Martini3 for mixture of surfactant and dodecane
238707
    1DDP     C1    1  22.933  19.747  28.923  0.2361  0.0960  0.0029
    1DDP     P1    2  23.352  19.860  28.854  0.1039 -0.2828 -0.1693
    1DDP     P2    3  22.736  19.405  28.528 -0.2025  0.0021 -0.1859
    1DDP     C2    4  22.910  19.100  28.241 -0.1332  0.1431 -0.1027
    1DDP     C3    5  23.689  20.090  28.755  0.1059  0.1253  0.0311
    1DDP     C4    6  22.750  19.623  29.259 -0.2558 -0.1595  0.1549
    2DDP     C1    7   0.124   2.179   8.616  0.1551  0.0609 -0.0269
    2DDP     P1    8  30.271   1.811   8.532 -0.0594 -0.1090 -0.0511
    2DDP     P2    9   0.508   2.041   8.862 -0.2197 -0.3121 -0.0871
    2DDP     C2   10   0.553   2.014   9.260 -0.0496  0.0563 -0.2208
    2DDP     C3   11  29.976   1.630   8.908  0.2408  0.0923  0.2769
    2DDP     C4   12  30.268   2.556   8.554 -0.0088 -0.1705  0.0203
    3DDP     C1   13  25.014   4.453  21.494 -0.0865 -0.3060  0.1723
    3DDP     P1   14  24.649   4.385  21.755  0.0857  0.0005  0.2639
    3DDP     P2   15  25.078   4.097  21.751 -0.1891 -0.0542  0.2334
    3DDP     C2   16  24.786   3.924  21.998 -0.2269  0.1063 -0.2215
    3DDP     C3   17  24.327   4.363  22.015 -0.1070  0.0607  0.0143
    3DDP     C4   18  25.230   4.685  21.177 -0.1103  0.1345  0.1926
    4DDP     C1   19  14.237  26.525   5.185  0.2422 -0.1103 -0.0022
    4DDP     P1   20  14.541  26.272   5.164  0.4590  0.1610 -0.2423
    4DDP     P2   21  14.483  26.882   5.329  0.0241  0.0547 -0.0248
    4DDP     C2   22  14.426  27.268   5.187 -0.0394 -0.1757  0.2256
    4DDP     C3   23  14.607  25.834   5.302  0.1223 -0.0964  0.2613
    4DDP     C4   24  13.938  26.669   4.853  0.0358  0.0655 -0.1686
    5DDP     C1   25  22.659  15.489  17.637  0.3655 -0.1405 -0.3025
    5DDP     P1   26  22.758  15.009  17.622  0.0099  0.1654 -0.0653
    5DDP     P2   27  22.934  15.872  17.719 -0.1848 -0.4011 -0.0920
    5DDP     C2   28  23.324  15.910  17.545  0.1534 -0.0686  0.2591
    5DDP     C3   29  22.681  14.648  17.576  0.2737 -0.3727  0.2329
    5DDP     C4   30  22.249  15.653  17.619  0.2255 -0.0417  0.2721
    6DDP     C1   31  10.603   7.175   7.331  0.3614  0.0211  0.0911
    6DDP     P1   32  10.853   7.566   7.247  0.0667 -0.0304  0.0773
    6DDP     P2   33  10.435   7.351   7.733 -0.1067  0.0834  0.2816
    6DDP     C2   34  10.344   7.746   7.879  0.0681 -0.1145  0.0744
    6DDP     C3   35  11.014   7.950   7.093 -0.1862 -0.2959 -0.0170
    6DDP     C4   36  10.268   6.941   7.081 -0.0085 -0.1983  0.2265
    7DDP     C1   37  18.210   5.907   8.584  0.3094  0.1349  0.0098
    7DDP     P1   38  18.282   5.429   8.553  0.1638 -0.2152  0.0158
    7DDP     P2   39  18.148   6.053   9.021  0.0405 -0.0812 -0.3547
    7DDP     C2   40  18.155   6.433   9.225  0.0210 -0.1715  0.1157
    7DDP     C3   41  18.527   5.102   8.290  0.2989 -0.1896 -0.0132
    7DDP     C4   42  18.254   6.175   8.279  0.3789  0.0462 -0.0850
    8DDP     C1   43   1.943   4.729  15.478 -0.3830  0.0524  0.2294
    8DDP     P1   44   1.600   4.568  15.219 -0.1466  0.1022  0.0439
    8DDP     P2   45   1.942   5.024  15.768 -0.1141 -0.0949 -0.0083
    8DDP     C2   46   1.622   5.315  15.901  0.0096  0.1331 -0.0962
    8DDP     C3   47   1.197   4.558  15.216  0.1773  0.3178  0.0859
    8DDP     C4   48   2.282   4.631  15.326  0.2683 -0.0276  0.1597
    9DDP     C1   49   7.336  23.974  10.251  0.1514  0.5108 -0.0963
    9DDP     P1   50   7.594  23.546  10.220 -0.1018  0.1483  0.2237
    9DDP     P2   51   7.041  24.233   9.997 -0.0035  0.1639  0.1490
    9DDP     C2   52   6.835  24.172   9.602 -0.1180 -0.1137  0.2944
    9DDP     C3   53   7.975  23.227  10.051  0.1128 -0.0736  0.0557
    9DDP     C4   54   7.152  24.079  10.679  0.2575 -0.4982  0.1866
   10DDP     C1   55   8.967   3.973  28.058 -0.1204  0.0074 -0.0263
   10DDP     P1   56   9.201   3.754  27.703 -0.0670 -0.1515 -0.0162
   10DDP     P2   57   9.157   4.402  28.283 -0.0634 -0.1804 -0.1041
   10DDP     C2   58   9.046   4.488  28.778 -0.2345 -0.2654 -0.0810
   10DDP     C3   59   9.011   3.705  27.294 -0.0401  0.1728  0.3411
   10DDP     C4   60   8.515   3.951  28.112 -0.2354  0.1531 -0.1466
   11DDP     C1   61  12.235  29.389  28.168 -0.1150 -0.1708 -0.0751
   11DDP     P1   62  12.062  29.757  28.060 -0.1433 -0.4084  0.0038
   11DDP     P2   63  11.907  28.990  28.165 -0.1615 -0.1062  0.0351
   11DDP     C2   64  11.881  28.574  28.411  0.0831  0.1628  0.0606
   11DDP     C3   65  12.117  30.078  27.858 -0.0064  0.0018  0.1038
   11DDP     C4   66  12.609  29.285  28.222 -0.0527 -0.2590  0.1518
   12DDP     C1   67  21.293  20.248  21.509  0.1013  0.2003  0.1289
   12DDP     P1   68  21.187  20.383  21.079 -0.1362  0.0406  0.1951
   12DDP     P2   69  20.908  20.140  21.812 -0.5487  0.0646  0.2459
   12DDP     C2   70  20.712  20.439  22.000 -0.3444 -0.0356  0.0052
   12DDP     C3   71  21.072  20.568  20.677 -0.0201 -0.0084  0.2073
   12DDP     C4   72  21.648  20.259  21.742  0.1567  0.1836 -0.2724
   13DDP     C1   73  23.305  11.285   4.682 -0.3305  0.0235  0.0768
   13DDP     P1   74  23.069  11.617   4.744  0.0555 -0.1169  0.3370
   13DDP     P2   75  23.272  10.931   4.942  0.1394 -0.1285 -0.0296
   13DDP     C2   76  23.301  10.612   4.941  0.1103 -0.1552  0.1844
   13DDP     C3   77  22.714  11.789   4.692 -0.0218  0.0002 -0.3390
   13DDP     C4   78  23.482  11.328   4.270  0.0937  0.2727 -0.2601
   14DDP     C1   79  14.783  13.423  30.037 -0.2121 -0.2361  0.1844
   14DDP     P1   80  15.043  13.343  29.638  0.1756  0.0582 -0.0702
   14DDP     P2   81  14.758  13.180  30.254 -0.1123  0.0949 -0.3002
   14DDP     C2   82  14.621  12.655  30.293 -0.1936 -0.1102 -0.0131
   14DDP     C3   83  15.370  13.393  29.286  0.1564 -0.2756  0.2059
   14DDP     C4   84  14.353  13.581  29.990 -0.0137 -0.3106  0.2051
   15DDP     C1   85  17.794  15.050  15.952 -0.1053  0.5847 -0.1971
   15DDP     P1   86  18.194  15.264  15.918  0.0921  0.1572 -0.3034
   15DDP     P2   87  17.809  15.110  16.440  0.0439 -0.0612 -0.0903
   15DDP     C2   88  17.691  15.003  16.875 -0.0168 -0.0414 -0.0226
   15DDP     C3   89  18.284  15.618  16.043 -0.1316  0.2274 -0.1736
   15DDP     C4   90  17.453  14.901  15.635 -0.1101  0.3853 -0.0522
   16DDP     C1   91  11.352  28.771  18.738  0.0753 -0.0142  0.2695
   16DDP     P1   92  11.184  28.702  18.271 -0.2448  0.0703 -0.1775
   16DDP     P2   93  10.988  28.812  18.890  0.2506  0.3201 -0.0161
   16DDP     C2   94  10.733  29.007  19.161  0.1504 -0.0502  0.0674
   16DDP     C3   95  10.749  28.621  18.084 -0.1616 -0.1800  0.2372
   16DDP     C4   96  11.778  28.700  18.914 -0.1213 -0.0460 -0.3965
   17DDP     C1   97  12.678  19.841  16.522  0.1276  0.3980  0.0393
   17DDP     P1   98  12.949  19.664  16.163  0.0379  0.1895 -0.1701
   17DDP     P2   99  13.017  20.214  16.772  0.1231  0.0796 -0.1794
   17DDP     C2  100  13.404  20.300  17.100 -0.0466  0.1125  0.0379
   17DDP     C3  101  12.902  19.165  16.125 -0.2940  0.0769  0.0247
   17DDP     C4  102  12.282  19.677  16.552 -0.0151  0.0421 -0.0999
   18DDP     C1  103   1.093   7.455  19.629  0.1294 -0.1645 -0.4635
   18DDP     P1  104   1.282   7.135  19.527  0.0202 -0.0744  0.2657
   18DDP     P2  105   0.890   7.452  20.020 -0.1599  0.2094 -0.0072
   18DDP     C2  106   0.590   7.706  20.150 -0.2305  0.1242 -0.2462
   18DDP     C3  107   1.233   6.918  19.210  0.1200 -0.1397  0.0594
   18DDP     C4  108   1.112   7.893  19.447  0.1442 -0.1858 -0.0285
   19DDP     C1  109   4.380   0.221  20.142 -0.1048  0.2962 -0.2875
   19DDP     P1  110   4.196  30.199  20.286 -0.0691 -0.0477 -0.3068
   19DDP     P2  111   4.408   0.137  19.822 -0.2536  0.2293  0.0986
   19DDP     C2  112   4.412   0.023  19.385  0.1123 -0.0632  0.0418
   19DDP     C3  113   4.062  30.042  20.656 -0.2606  0.0134  0.2784
   19DDP     C4  114   4.484   0.594  20.167 -0.1754  0.1398  0.0793
   20DDP     C1  115  28.781  12.821  10.444  0.1974 -0.0282 -0.0216
   20DDP     P1  116  28.538  13.019  10.829  0.3118 -0.0914 -0.2460
   20DDP     P2  117  28.905  12.418  10.547 -0.2593 -0.0234  0.1463
   20DDP     C2  118  28.970  12.183  10.866  0.0070  0.0429 -0.0075
   20DDP     C3  119  28.495  12.937  11.249 -0.0693  0.0851  0.0461
   20DDP     C4  120  28.680  12.827  10.026 -0.0080  0.0949  0.0112
   21DDP     C1  121  23.452  19.726  18.493  0.0370  0.1289 -0.2643
   21DDP     P1  122  23.129  19.902  18.547 -0.3128  0.0043  0.0839
   21DDP     P2  123  23.515  19.271  18.455 -0.0685  0.1744  0.0319
   21DDP     C2  124  23.773  19.026  18.617 -0.2290  0.0135  0.0571
   21DDP     C3  125  22.911  20.106  18.349 -0.0696 -0.0384  0.0381
   21DDP     C4  126  23.692  19.984  18.318  0.2303 -0.2197 -0.0646
   22DDP     C1  127   7.112   3.509  27.513 -0.2919  0.0696 -0.0009
   22DDP     P1  128   6.919   3.179  27.503  0.0459  0.0599 -0.2587
   22DDP     P2  129   7.256   3.697  27.920 -0.0662 -0.1369 -0.0046
   22DDP     C2  130   7.323   4.075  28.113 -0.0779  0.1374  0.1236
   22DDP     C3  131   6.650   2.925  27.276  0.0346 -0.0070  0.1466
   22DDP     C4  132   7.366   3.687  27.216 -0.1962 -0.1353  0.1482
   23DDP     C1  133  23.644  22.580  15.950 -0.3501  0.1472  0.1594
   23DDP     P1  134  23.154  22.554  15.866  0.0202 -0.2554 -0.0618
   23DDP     P2  135  23.995  22.282  15.847  0.0214 -0.0970 -0.2038
   23DDP     C2  136  23.935  21.871  15.614  0.0660 -0.0162 -0.1339
   23DDP     C3  137  22.701  22.494  15.625  0.0716 -0.0684  0.1181
   23DDP     C4  138  23.657  22.930  16.105  0.0944 -0.3774 -0.1970
   24DDP     C1  139  14.315   6.579  23.805 -0.0503  0.0776 -0.1520
   24DDP     P1  140  14.593   6.312  23.914 -0.1259 -0.0814  0.0735
   24DDP     P2  141  13.941   6.640  24.164  0.0980 -0.0620  0.1591
   24DDP     C2  142  13.524   6.674  24.341 -0.0433  0.1946  0.0217
   24DDP     C3  143  14.922   6.117  23.724  0.3299 -0.0959 -0.0030
   24DDP     C4  144  14.386   6.911  23.541 -0.0856 -0.2642  0.1611
   25DDP     C1  145   1.542  21.862   0.868  0.0543  0.0072  0.0466
   25DDP     P1  146   1.310  21.716   1.242 -0.2137  0.4149  0.0048
   25DDP     P2  147   1.345  21.874   0.459  0.3544 -0.0251  0.0547
   25DDP     C2  148   1.404  22.146   0.077  0.0166 -0.1935 -0.1793
   25DDP     C3  149   1.304  21.348   1.430  0.2263  0.0804  0.1053
   25DDP     C4  150   1.914  22.149   0.996 -0.3607 -0.3009  0.1381
   26DDP     C1  151  25.521  17.427  24.320 -0.2200 -0.1468  0.0408
   26DDP     P1  152  25.705  17.028  24.176  0.3193  0.1656  0.1466
   26DDP     P2  153  25.522  17.424  24.794 -0.0766 -0.2106 -0.0083
   26DDP     C2  154  25.379  17.297  25.162  0.1345  0.1803  0.2139
   26DDP     C3  155  25.864  16.708  23.985  0.0257 -0.0687 -0.1560
   26DDP     C4  156  25.272  17.587  24.035 -0.2223 -0.2834  0.1791
   27DDP     C1  157   6.217  12.891   6.316 -0.0295  0.1345  0.4311
   27DDP     P1  158   6.487  13.173   6.303 -0.1077 -0.0509 -0.1309
   27DDP     P2  159   6.223  12.465   6.395  0.2634 -0.1685 -0.1127
   27DDP     C2  160   6.211  12.083   6.393 -0.1105  0.0992 -0.0078
   27DDP     C3  161   6.782  13.591   6.154  0.0034 -0.1353  0.1554
   27DDP     C4  162   5.944  13.110   5.912 -0.1993  0.1194 -0.0848
   28DDP     C1  163  29.478  16.243   8.725 -0.0802  0.0170  0.1715
   28DDP     P1  164  29.777  15.941   8.906  0.0727 -0.0915 -0.3221
   28DDP     P2  165  29.109  16.100   8.889 -0.0446  0.3630  0.1624
   28DDP     C2  166  28.701  16.187   9.110 -0.1506  0.1850  0.2614
   28DDP     C3  167  30.192  15.868   9.165  0.0890 -0.0753  0.0069
   28DDP     C4  168  29.699  16.345   8.376 -0.2418  0.3268 -0.0523
   29DDP     C1  169  24.106   8.824  26.283  0.1122 -0.0189 -0.3078
   29DDP     P1  170  23.992   8.942  26.682  0.0427 -0.0556 -0.3075
   29DDP     P2  171  23.983   9.034  25.975  0.2041  0.0265 -0.1124
   29DDP     C2  172  23.912   9.486  25.925 -0.0458 -0.0740 -0.1179
   29DDP     C3  173  24.288   9.267  26.893  0.0495  0.2093 -0.0485
   29DDP     C4  174  24.201   8.477  26.178 -0.2901  0.1529  0.0858
   30DDP     C1  175  16.680   3.104   3.629  0.0617 -0.1254 -0.0301
   30DDP     P1  176  16.805   2.660   3.522  0.1547 -0.2428  0.1686
   30DDP     P2  177  16.963   3.451   3.630  0.1227 -0.2383 -0.0396
   30DDP     C2  178  17.042   3.928   3.803  0.0707 -0.0998 -0.0047
   30DDP     C3  179  16.709   2.238   3.550  0.0292 -0.2792  0.2071
   30DDP     C4  180  16.234   3.072   3.596 -0.3199  0.1398 -0.0132
   31DDP     C1  181  10.191  20.060  26.940 -0.1320 -0.0146  0.3548
   31DDP     P1  182   9.773  19.711  26.823 -0.3452  0.1366 -0.1484
   31DDP     P2  183  10.177  20.378  26.710  0.2223 -0.1001  0.1498
   31DDP     C2  184   9.970  20.611  26.356  0.0789  0.0947 -0.0922
   31DDP     C3  185   9.401  19.815  26.694  0.0362 -0.0784 -0.0525
   31DDP     C4  186  10.510  19.904  27.210 -0.0497 -0.0065 -0.3043
   32DDP     C1  187  20.205  10.633   4.222  0.2975  0.2871  0.2326
   32DDP     P1  188  19.710  10.862   4.187 -0.1334 -0.0947 -0.0123
   32DDP     P2  189  20.378  10.561   4.609  0.1785 -0.1700  0.2846
   32DDP     C2  190  20.393  10.159   4.938 -0.0258 -0.1056  0.1586
   32DDP     C3  191  19.441  11.052   4.503 -0.2734 -0.0390  0.0489
   32DDP     C4  192  20.394  10.470   3.829  0.2918 -0.1788  0.1601
   33DDP     C1  193  17.241  29.809   0.840 -0.2017 -0.1725 -0.0049
   33DDP     P1  194  17.559  29.474   0.877 -0.1735 -0.2108 -0.0888
   33DDP     P2  195  16.756  29.775   0.663  0.3043 -0.2111 -0.1447
   33DDP     C2  196  16.303  29.721   0.547  0.4950  0.0271  0.0740
   33DDP     C3  197  17.580  29.066   0.912  0.3443  0.0138  0.2222
   33DDP     C4  198  17.430  30.226   1.040  0.2047  0.0514  0.1189
   34DDP     C1  199  16.737  15.462  16.688 -0.2595  0.1263  0.1661
   34DDP     P1  200  16.681  15.041  16.732 -0.0338  0.1774  0.1409
   34DDP     P2  201  16.411  15.788  16.867  0.0195  0.1981  0.0224
   34DDP     C2  202  15.998  15.968  16.853  0.0279  0.0870 -0.2937
   34DDP     C3  203  16.459  14.524  16.708  0.1955 -0.0698  0.1051
   34DDP     C4  204  16.976  15.576  16.387 -0.3597 -0.1158 -0.1192
   35DDP     C1  205   1.602  23.373  15.863  0.2570  0.0627 -0.2220
   35DDP     P1  206   1.349  23.705  15.852 -0.0367 -0.2653 -0.1231
   35DDP     P2  207   1.490  23.176  15.481  0.1300  0.1273  0.2877
   35DDP     C2  208   1.695  22.924  15.107  0.4054  0.2253  0.2989
   35DDP     C3  209   0.913  23.811  15.724 -0.0700 -0.1306 -0.1411
   35DDP     C4  210   2.009  23.414  16.034  0.0919  0.1730  0.0546
   36DDP     C1  211  30.234  18.162   1.611 -0.1813  0.0381 -0.0526
   36DDP     P1  212   0.344  17.985   1.567  0.0709 -0.1583  0.1648
   36DDP     P2  213  29.902  17.968   1.597 -0.3282 -0.0449  0.0250
   36DDP     C2  214  29.397  17.940   1.755 -0.1153  0.0042 -0.1980
   36DDP     C3  215   0.726  18.140   1.550  0.0107 -0.2303 -0.1435
   36DDP     C4  216  30.195  18.556   1.615 -0.0422 -0.1251 -0.0837
   37DDP     C1  217  25.489  12.185   3.724  0.0686  0.0478  0.1096
   37DDP     P1  218  25.642  12.032   4.079 -0.2357 -0.4278  0.3619
   37DDP     P2  219  25.092  12.012   3.708  0.2462  0.0285  0.2178
   37DDP     C2  220  24.730  11.746   3.897 -0.1255 -0.1234  0.0135
   37DDP     C3  221  25.642  11.621   4.235  0.0632  0.2509 -0.4102
   37DDP     C4  222  25.588  12.560   3.616  0.1587  0.0931  0.2284
   38DDP     C1  223   3.548   3.488   5.912  0.0974 -0.1891  0.1979
   38DDP     P1  224   3.923   3.412   6.047  0.1903 -0.0868 -0.0027
   38DDP     P2  225   3.151   3.510   6.107 -0.1582 -0.4591 -0.2425
   38DDP     C2  226   2.871   3.660   6.177 -0.0521 -0.1185  0.3646
   38DDP     C3  227   4.161   3.700   6.258 -0.0138  0.2637  0.0900
   38DDP     C4  228   3.511   3.693   5.517  0.1052 -0.1744  0.0467
   39DDP     C1  229   5.714   4.607  28.147 -0.3529  0.2254  0.0784
   39DDP     P1  230   6.055   4.494  28.561 -0.1372 -0.0502 -0.3128
   39DDP     P2  231   5.328   4.686  28.097  0.1991  0.0423 -0.1313
   39DDP     C2  232   5.228   5.094  27.996  0.2259 -0.0745  0.0378
   39DDP     C3  233   6.333   4.163  28.639 -0.2304  0.0292 -0.1714
   39DDP     C4  234   5.869   4.636  27.716 -0.2401  0.2684  0.1535
   40DDP     C1  235  22.073   4.142  26.779  0.2284  0.1109 -0.0936
   40DDP     P1  236  22.481   4.406  26.714  0.1209  0.1055  0.1054
   40DDP     P2  237  22.116   3.829  26.991 -0.1431  0.0280  0.2059
   40DDP     C2  238  21.954   3.588  27.280  0.2367  0.3838 -0.1070
   40DDP     C3  239  22.785   4.381  27.038  0.1897 -0.0030  0.3417
   40DDP     C4  240  21.692   4.249  26.732 -0.2672 -0.1441 -0.1245
   41DDP     C1  241   8.332  18.709  24.402 -0.0922 -0.3031  0.2556
   41DDP     P1  242   8.008  18.843  24.625  0.3034  0.0945 -0.1859
   41DDP     P2  243   8.379  18.377  24.144 -0.1229 -0.0921  0.0180
   41DDP     C2  244   8.745  18.274  23.899  0.0551  0.0910  0.2868
   41DDP     C3  245   7.815  18.554  24.955 -0.1020  0.2839 -0.5275
   41DDP     C4  246   8.577  19.134  24.490 -0.3264  0.1449 -0.0968
   42DDP     C1  247  18.494  10.109  17.835  0.1502 -0.2220  0.0996
   42DDP     P1  248  18.685   9.759  18.117 -0.0822  0.1476 -0.0187
   42DDP     P2  249  18.729  10.552  17.952 -0.0319  0.0440  0.1660
   42DDP     C2  250  18.633  11.003  18.163 -0.0508 -0.5774  0.1419
   42DDP     C3  251  18.838   9.546  18.393  0.2267 -0.0052 -0.1826
   42DDP     C4  252  18.177  10.111  17.561 -0.2247 -0.0187 -0.3871
   43DDP     C1  253   7.319   8.499  24.143  0.2032  0.0317 -0.0996
   43DDP     P1  254   7.458   8.183  24.428  0.2198  0.0569 -0.1982
   43DDP     P2  255   7.103   8.364  23.738  0.0660  0.0782  0.1088
   43DDP     C2  256   7.020   8.110  23.447 -0.0627  0.0606  0.0188
   43DDP     C3  257   7.724   7.893  24.540  0.0186 -0.3720  0.0272
   43DDP     C4  258   7.629   8.839  24.172 -0.2308 -0.0751  0.2356
   44DDP     C1  259   0.589  21.191   4.723  0.0079  0.1528 -0.1680
   44DDP     P1  260   0.691  20.888   4.733 -0.0504 -0.0508  0.0558
   44DDP     P2  261   0.154  21.337   4.834  0.1378  0.3505 -0.4487
   44DDP     C2  262  30.077  21.574   4.825  0.0682 -0.1380 -0.1356
   44DDP     C3  263   0.927  20.565   4.684 -0.2494 -0.1556  0.1340
   44DDP     C4  264   1.027  21.322   4.708 -0.0746 -0.2307 -0.3277
   45DDP     C1  265  22.441  16.106   1.813 -0.4373 -0.0404 -0.0413
   45DDP     P1  266  22.337  16.494   1.654 -0.1076 -0.0639 -0.0926
   45DDP     P2  267  22.916  16.196   1.952  0.1806  0.1386  0.0753
   45DDP     C2  268  23.204  16.530   2.017  0.2587 -0.3028 -0.2027
   45DDP     C3  269  22.011  16.786   1.805  0.2179 -0.1949  0.0817
   45DDP     C4  270  22.142  15.815   1.869  0.1387 -0.0788 -0.1674
   46DDP     C1  271   1.216  30.060   7.622 -0.2855 -0.1593 -0.3474
   46DDP     P1  272   0.878   0.073   7.554  0.0993 -0.2298 -0.2538
   46DDP     P2  273   1.292  30.003   7.256 -0.0254  0.0503 -0.1418
   46DDP     C2  274   1.338  -0.003   6.858 -0.0994 -0.3257 -0.0455
   46DDP     C3  275   0.550   0.171   7.348 -0.3910 -0.1636 -0.0558
   46DDP     C4  276   1.204  29.773   8.065  0.1464 -0.3190 -0.0910
   47DDP     C1  277  29.975   9.739   3.767 -0.1125  0.3882  0.0964
   47DDP     P1  278  29.858   9.388   3.602  0.3947 -0.3268  0.0196
   47DDP     P2  279  30.059  10.181   3.805 -0.1926  0.1023  0.0181
   47DDP     C2  280   0.083  10.423   3.848 -0.1112 -0.2253  0.0390
   47DDP     C3  281  29.672   9.009   3.431  0.0119  0.0259  0.0428
   47DDP     C4  282   0.060   9.594   4.010 -0.1080 -0.1326  0.2881
   48DDP     C1  283  27.908   6.606  28.828 -0.3323  0.1678 -0.3899
   48DDP     P1  284  28.173   6.698  29.173  0.3067  0.1000 -0.4489
   48DDP     P2  285  27.498   6.255  28.891  0.0945 -0.1609 -0.1309
   48DDP     C2  286  27.202   5.919  28.785 -0.1673  0.1423 -0.0403
   48DDP     C3  287  28.361   7.065  29.242  0.0400 -0.0589 -0.0163
   48DDP     C4  288  27.835   6.971  28.526 -0.0140  0.1749 -0.0006
   49DDP     C1  289  23.025  24.318  25.854  0.0905  0.2277 -0.1640
   49DDP     P1  290  22.988  24.480  25.396 -0.1872 -0.0782 -0.1007
   49DDP     P2  291  23.168  23.909  25.820  0.4788 -0.0088  0.0457
   49DDP     C2  292  23.375  23.596  25.555  0.2210 -0.0939 -0.0033
   49DDP     C3  293  23.233  24.567  25.085  0.1258  0.0170 -0.0271
   49DDP     C4  294  22.741  24.468  26.174 -0.2987 -0.2147 -0.1678
   50DDP     C1  295  30.277   2.173   7.644  0.0303 -0.0572  0.2693
   50DDP     P1  296   0.227   2.299   8.112  0.3775 -0.3554  0.0768
   50DDP     P2  297  29.971   2.578   7.497 -0.1990 -0.1268  0.0937
   50DDP     C2  298  29.806   3.153   7.444 -0.2194  0.3291  0.0654
   50DDP     C3  299   0.328   2.743   8.238  0.1776  0.0180  0.2085
   50DDP     C4  300  30.157   1.754   7.655  0.0803  0.1735 -0.1538
   51DDP     C1  301  14.834  22.607   4.808  0.3035 -0.0863  0.0037
   51DDP     P1  302  14.515  22.357   4.757  0.0459 -0.0115 -0.0279
   51DDP     P2  303  14.999  22.630   5.244  0.2367 -0.1773 -0.1812
   51DDP     C2  304  15.052  22.805   5.700 -0.0083 -0.0135  0.0481
   51DDP     C3  305  14.282  22.093   4.548  0.2273  0.3241  0.1503
   51DDP     C4  306  15.114  22.652   4.414 -0.2819 -0.1639  0.0324
   52DDP     C1  307   4.681   7.434   7.242  0.1746 -0.0086 -0.3325
   52DDP     P1  308   5.060   7.629   7.190 -0.0907 -0.2373  0.4175
   52DDP     P2  309   4.315   7.592   7.456 -0.1674 -0.0467  0.1879
   52DDP     C2  310   4.011   7.657   7.838  0.0707  0.0052 -0.0242
   52DDP     C3  311   5.509   7.713   7.263  0.1691  0.1109 -0.0061
   52DDP     C4  312   4.731   7.058   7.030  0.2361 -0.4108 -0.0643
   53DDP     C1  313  12.657  15.636  18.158 -0.1836  0.2119 -0.1006
   53DDP     P1  314  12.648  15.277  18.080  0.2478  0.1713 -0.1309
   53DDP     P2  315  13.052  15.874  18.298 -0.2198  0.2112 -0.0082
   53DDP     C2  316  13.225  16.310  18.280  0.1736  0.1453 -0.1155
   53DDP     C3  317  12.961  14.951  18.031  0.3186  0.0445 -0.0927
   53DDP     C4  318  12.313  15.945  18.027  0.0127  0.0904 -0.1490
   54DDP     C1  319  23.579  20.099   6.527 -0.1380 -0.1379  0.1859
   54DDP     P1  320  23.659  19.630   6.344  0.1033  0.1050  0.2909
   54DDP     P2  321  23.605  20.072   6.983 -0.4326 -0.2034 -0.2114
   54DDP     C2  322  23.703  19.915   7.457 -0.2344 -0.1000  0.2076
   54DDP     C3  323  23.908  19.374   6.195  0.0467  0.0231  0.0875
   54DDP     C4  324  23.577  20.571   6.389  0.3750  0.3087  0.0376
   55DDP     C1  325   0.991   7.283   6.072  0.2570  0.3567 -0.0192
   55DDP     P1  326   0.783   7.635   6.110  0.3086  0.1117 -0.0528
   55DDP     P2  327   0.910   7.004   6.354 -0.1877 -0.1999  0.2990
   55DDP     C2  328   0.598   6.588   6.322  0.0668 -0.0522  0.0358
   55DDP     C3  329   0.566   7.924   5.863  0.0598 -0.0353 -0.2761
   55DDP     C4  330   1.161   7.165   5.729 -0.0541  0.2688  0.3929
   56DDP     C1  331   8.128  16.598   2.349  0.2137 -0.4080  0.2451
   56DDP     P1  332   8.110  16.957   2.108  0.2832  0.2905  0.3761
   56DDP     P2  333   7.822  16.435   2.629  0.0602 -0.0230 -0.1618
   56DDP     C2  334   7.590  16.349   3.051  0.0177 -0.0522  0.3424
   56DDP     C3  335   8.064  17.426   1.934 -0.1097  0.1965  0.2672
   56DDP     C4  336   8.245  16.331   2.114  0.1440 -0.2938  0.1041
   57DDP     C1  337  12.443  20.152   2.119 -0.1147 -0.0374  0.2360
   57DDP     P1  338  12.366  20.339   1.736  0.2490 -0.0381 -0.2177
   57DDP     P2  339  12.847  19.955   2.039  0.1314  0.3825 -0.1176
   57DDP     C2  340  13.131  20.278   1.893  0.0141  0.4099 -0.1387
   57DDP     C3  341  12.110  20.071   1.436  0.0917 -0.2200  0.0903
   57DDP     C4  342  12.167  20.294   2.508  0.0753 -0.0211 -0.0835
   58DDP     C1  343  20.093  16.440  30.227 -0.0473 -0.4488  0.1151
   58DDP     P1  344  20.461  16.312  29.957 -0.2480  0.1626 -0.3731
   58DDP     P2  345  19.649  16.424  30.088 -0.1173  0.3820  0.0162
   58DDP     C2  346  19.595  16.680  29.752 -0.0926  0.0431 -0.1156
   58DDP     C3  347  20.832  16.265  29.763 -0.0294  0.1463  0.0387
   58DDP     C4  348  20.251  16.753   0.197 -0.2043  0.1863  0.1277
   59DDP     C1  349  19.082   7.146  10.654 -0.1614  0.0987  0.2138
   59DDP     P1  350  19.021   6.921  11.004 -0.1941 -0.0515 -0.0236
   59DDP     P2  351  19.082   6.843  10.298 -0.3346 -0.2541  0.1275
   59DDP     C2  352  18.740   6.763  10.024 -0.1700  0.1334 -0.3164
   59DDP     C3  353  19.418   6.598  11.167 -0.0634  0.1642  0.0938
   59DDP     C4  354  18.843   7.565  10.636  0.0894 -0.0674 -0.0380
   60DDP     C1  355  13.431  13.252   2.134 -0.0390 -0.0319  0.0085
   60DDP     P1  356  13.111  13.095   2.456  0.1140  0.1048  0.2763
   60DDP     P2  357  13.836  12.964   2.115  0.0188  0.1815  0.0068
   60DDP     C2  358  13.803  12.546   2.161  0.0745  0.1048  0.1271
   60DDP     C3  359  12.761  12.864   2.552 -0.1008 -0.0400 -0.0944
   60DDP     C4  360  13.360  13.611   1.946  0.1095 -0.0381 -0.1399
   61DDP     C1  361  16.710  14.159  27.927 -0.4134 -0.1049 -0.0134
   61DDP     P1  362  16.604  13.719  27.835  0.0624 -0.0626  0.2982
   61DDP     P2  363  17.133  14.304  27.964  0.0615 -0.0226 -0.0803
   61DDP     C2  364  17.603  14.534  27.864  0.1509 -0.0427  0.1526
   61DDP     C3  365  16.650  13.570  27.476  0.0685  0.2491  0.1559
   61DDP     C4  366  16.557  14.541  27.757  0.0442 -0.1585  0.0663
   62DDP     C1  367   4.528  25.662  21.584 -0.1792 -0.1137  0.0956
   62DDP     P1  368   4.579  25.241  21.731 -0.1856 -0.3099 -0.0185
   62DDP     P2  369   4.773  25.915  21.214  0.1802  0.1348 -0.1820
   62DDP     C2  370   4.821  26.342  21.331  0.0923  0.2583 -0.0161
   62DDP     C3  371   4.724  24.857  22.050 -0.1179 -0.1223 -0.3555
   62DDP     C4  372   4.151  25.729  21.703  0.0585  0.1055  0.1026
   63DDP     C1  373   2.114  18.001   8.385 -0.0771  0.0249  0.1821
   63DDP     P1  374   2.368  17.591   8.345  0.1298  0.3596  0.0191
   63DDP     P2  375   2.365  18.217   8.703  0.3612 -0.0452 -0.0973
   63DDP     C2  376   2.309  18.539   8.906  0.0910  0.2732  0.0505
   63DDP     C3  377   2.739  17.289   8.412 -0.1196  0.0363  0.2339
   63DDP     C4  378   1.662  18.033   8.241  0.0647  0.0440 -0.1350
   64DDP     C1  379  26.309   4.594  13.891 -0.0578 -0.1408 -0.0479
   64DDP     P1  380  26.059   4.292  13.862  0.1319 -0.1055  0.0032
   64DDP     P2  381  26.666   4.639  13.567  0.0330 -0.1480  0.3356
   64DDP     C2  382  27.019   4.881  13.557  0.2780  0.1690  0.5995
   64DDP     C3  383  25.837   4.062  13.527  0.4772 -0.0281 -0.1327
   64DDP     C4  384  26.124   4.983  14.147 -0.0468 -0.2671 -0.1590
   65DDP     C1  385   3.610   1.982  25.411  0.1392  0.0931  0.1026
   65DDP     P1  386   3.304   1.951  25.619 -0.0695  0.1541  0.1530
   65DDP     P2  387   3.927   1.719  25.533  0.0819 -0.1797 -0.1523
   65DDP     C2  388   4.324   1.646  25.410 -0.2023 -0.1992  0.0530
   65DDP     C3  389   3.158   1.966  26.081 -0.3899  0.1520 -0.0674
   65DDP     C4  390   3.509   2.123  25.055 -0.2387  0.0804 -0.1329
   66DDP     C1  391   9.168  19.145  24.730  0.0343  0.2330  0.0204
   66DDP     P1  392   8.836  19.340  24.967  0.1600  0.1841 -0.1347
   66DDP     P2  393   8.993  18.780  24.537 -0.1454 -0.0100  0.2394
   66DDP     C2  394   9.099  18.456  24.227  0.1124 -0.0996  0.1092
   66DDP     C3  395   8.842  19.551  25.389  0.1874 -0.0451 -0.0514
   66DDP     C4  396   9.510  19.256  24.678  0.1751  0.2122 -0.3624
   67DDP     C1  397  14.974   1.347   2.053  0.0875  0.0625 -0.1403
   67DDP     P1  398  14.666   1.119   2.356 -0.1874  0.0437  0.0241
   67DDP     P2  399  14.995   1.155   1.719 -0.1534 -0.0679  0.3029
   67DDP     C2  400  15.217   0.821   1.487  0.0117 -0.1252 -0.0918
   67DDP     C3  401  14.440   0.849   2.561 -0.0157 -0.1445  0.0743
   67DDP     C4  402  14.866   1.801   2.047  0.3408  0.1806 -0.0487
   68DDP     C1  403  12.155  14.869   6.971  0.0797 -0.2690 -0.1081
   68DDP     P1  404  11.704  14.832   7.123  0.0096  0.1178 -0.2069
   68DDP     P2  405  12.271  15.191   6.791  0.1150  0.0193 -0.3849
   68DDP     C2  406  12.197  15.624   6.686 -0.1712 -0.0357  0.3389
   68DDP     C3  407  11.297  14.895   7.034 -0.0227 -0.1831  0.0146
   68DDP     C4  408  12.381  14.663   7.185 -0.0829  0.0545 -0.1174
   69DDP     C1  409  28.548  27.860  26.157 -0.0199 -0.1785  0.2564
   69DDP     P1  410  28.838  27.564  26.029  0.3374 -0.0347  0.0428
   69DDP     P2  411  28.632  27.645  26.530  0.1878  0.1371 -0.0932
   69DDP     C2  412  29.045  27.490  26.611 -0.2532 -0.5574  0.0925
   69DDP     C3  413  28.896  27.358  25.505 -0.0457 -0.4014  0.1490
   69DDP     C4  414  28.323  28.215  26.082 -0.0012 -0.1971  0.0146
   70DDP     C1  415   8.152  12.724  21.663  0.0824 -0.1350 -0.1811
   70DDP     P1  416   8.162  12.808  22.065  0.2060 -0.0815 -0.4188
   70DDP     P2  417   8.380  12.531  21.382 -0.1449  0.0646 -0.1461
   70DDP     C2  418   8.699  12.287  21.535 -0.3096  0.1022 -0.0488
   70DDP     C3  419   7.784  12.987  22.159  0.0141  0.0433 -0.3660
   70DDP     C4  420   7.685  12.939  21.500  0.1271  0.0410  0.2500
   71DDP     C1  421  14.831  26.753  12.285  0.1036 -0.0205  0.1803
   71DDP     P1  422  15.326  26.729  12.431  0.1340 -0.1147  0.0921
   71DDP     P2  423  14.442  26.985  12.419  0.2381 -0.0829  0.0506
   71DDP     C2  424  14.048  27.196  12.495 -0.1968  0.2145  0.5643
   71DDP     C3  425  15.458  26.512  12.750 -0.1023  0.3579 -0.2220
   71DDP     C4  426  14.619  26.433  12.009 -0.0540  0.1097  0.1614
   72DDP     C1  427   3.582  11.646  25.832  0.0321  0.0508  0.3797
   72DDP     P1  428   3.928  11.721  25.832  0.1981  0.1029  0.1822
   72DDP     P2  429   3.592  11.470  25.470  0.1749 -0.4250 -0.0549
   72DDP     C2  430   3.418  11.147  25.090 -0.2134  0.0654 -0.0138
   72DDP     C3  431   4.316  11.897  25.706  0.3193  0.3043  0.0861
   72DDP     C4  432   3.379  11.840  26.174  0.1714 -0.0703  0.0935
   73DDP     C1  433  11.561  27.073   2.693  0.3942 -0.4830  0.3038
   73DDP     P1  434  11.674  27.108   2.254 -0.2762 -0.0831  0.1838
   73DDP     P2  435  11.460  27.435   2.996  0.2607 -0.3657 -0.0122
   73DDP     C2  436  11.676  27.742   3.184  0.1246 -0.1994 -0.2417
   73DDP     C3  437  11.347  27.164   1.917  0.0571  0.4470  0.2366
   73DDP     C4  438  11.701  26.661   2.953 -0.2740  0.1392  0.0062
   74DDP     C1  439  29.544  22.846  12.194 -0.0277  0.0984 -0.0557
   74DDP     P1  440  29.251  22.746  12.532 -0.1193  0.0760 -0.2421
   74DDP     P2  441  29.400  23.290  12.094  0.0004 -0.2328 -0.1308
   74DDP     C2  442  29.513  23.620  12.079 -0.0081 -0.0882  0.1356
   74DDP     C3  443  29.153  22.431  12.785 -0.1741  0.2602  0.1844
   74DDP     C4  444  29.666  22.627  11.862  0.2545  0.0946 -0.0902
   75DDP     C1  445  15.974  17.426   4.418 -0.0563  0.0441  0.1015
   75DDP     P1  446  15.741  17.339   4.833  0.1679  0.0934  0.2225
   75DDP     P2  447  16.004  17.261   3.997  0.2998 -0.0568  0.1311
   75DDP     C2  448  15.775  16.993   3.738 -0.0635 -0.2304  0.0178
   75DDP     C3  449  15.379  17.226   5.106 -0.0717 -0.0917 -0.3329
   75DDP     C4  450  16.125  17.829   4.492  0.0809 -0.1602  0.3431
   76DDP     C1  451  24.357  12.342  22.316  0.1390  0.0720  0.1138
   76DDP     P1  452  24.087  12.463  22.690  0.1056  0.2862 -0.4358
   76DDP     P2  453  24.542  12.565  22.055 -0.0857 -0.1164  0.1037
   76DDP     C2  454  24.551  12.915  21.816  0.1265  0.0398  0.1232
   76DDP     C3  455  24.169  12.814  22.990 -0.0505 -0.0005  0.0954
   76DDP     C4  456  24.484  11.891  22.219 -0.1249  0.2978  0.0252
   77DDP     C1  457  16.226  21.245  28.649 -0.3086 -0.0750  0.0293
   77DDP     P1  458  16.275  21.338  28.245  0.3158  0.0235  0.0332
   77DDP     P2  459  15.887  20.900  28.625 -0.0677 -0.2490 -0.1809
   77DDP     C2  460  15.512  20.601  28.902 -0.0917  0.0243 -0.2429
   77DDP     C3  461  16.373  21.155  27.857 -0.0776  0.1884 -0.0245
   77DDP     C4  462  16.414  21.481  29.038  0.0746  0.2373  0.1055
   78DDP     C1  463   1.879  15.989   3.706  0.0515  0.0165 -0.0515
   78DDP     P1  464   1.871  16.232   3.359 -0.2813 -0.3466 -0.1557
   78DDP     P2  465   1.420  15.777   3.699 -0.0690 -0.1319  0.0726
   78DDP     C2  466   1.357  15.336   3.645  0.1921  0.1104  0.0985
   78DDP     C3  467   2.038  16.607   3.251  0.1416  0.3195 -0.2328
   78DDP     C4  468   2.200  15.783   3.856  0.4260  0.1947  0.1288
   79DDP     C1  469  13.108  29.472   3.661 -0.1704 -0.1493 -0.3777
   79DDP     P1  470  12.984  29.484   3.948  0.3094 -0.0868 -0.0597
   79DDP     P2  471  12.846  29.155   3.503 -0.0983  0.1640  0.1472
   79DDP     C2  472  12.918  28.746   3.443  0.0198 -0.0385  0.0185
   79DDP     C3  473  12.725  29.300   4.357 -0.2444  0.1483  0.3242
   79DDP     C4  474  13.449  29.799   3.583  0.0759 -0.3367  0.1848
   80DDP     C1  475  20.219  26.282   2.725 -0.0273  0.2026  0.4544
   80DDP     P1  476  19.848  26.253   3.073  0.2569  0.1769  0.1432
   80DDP     P2  477  20.606  26.006   2.795 -0.0758  0.1671  0.1932
   80DDP     C2  478  21.102  25.953   2.619  0.3879  0.0028  0.1308
   80DDP     C3  479  19.485  25.977   2.823  0.1771 -0.2735  0.1765
   80DDP     C4  480  20.474  26.287   2.386  0.0104  0.2402 -0.0492
   81DDP     C1  481  22.634   5.515   7.523  0.2580 -0.0219 -0.0672
   81DDP     P1  482  22.988   5.659   7.916 -0.0191 -0.0363  0.2579
   81DDP     P2  483  22.231   5.690   7.527 -0.0857 -0.0676  0.0683
   81DDP     C2  484  21.912   5.784   7.796 -0.2294  0.3872 -0.1708
   81DDP     C3  485  23.031   5.794   8.421  0.1101  0.1860 -0.0312
   81DDP     C4  486  22.713   5.141   7.325  0.2390 -0.1407  0.0267
   82DDP     C1  487  11.607  20.137  26.095 -0.1354  0.1291 -0.4863
   82DDP     P1  488  11.557  19.867  25.728  0.0773  0.0550 -0.5767
   82DDP     P2  489  11.471  20.060  26.456  0.0810 -0.0478  0.1696
   82DDP     C2  490  11.296  19.752  26.810 -0.0652  0.1140  0.0513
   82DDP     C3  491  11.417  19.896  25.365 -0.1420 -0.1489  0.1263
   82DDP     C4  492  11.844  20.496  26.134 -0.4566  0.0282  0.0948
   83DDP     C1  493  12.244  21.189   1.445  0.1695 -0.3686 -0.1549
   83DDP     P1  494  11.920  21.059   1.145  0.0154 -0.0859  0.1523
   83DDP     P2  495  12.566  21.379   1.314  0.0536 -0.1558  0.2790
   83DDP     C2  496  12.818  21.639   0.953  0.2137 -0.3422  0.3617
   83DDP     C3  497  11.499  21.116   1.089 -0.1729  0.2200  0.2679
   83DDP     C4  498  12.053  21.269   1.900  0.3228 -0.1894 -0.1524
   84DDP     C1  499  21.213   2.712  23.146  0.1432 -0.2002 -0.3076
   84DDP     P1  500  20.869   2.810  22.999 -0.3655  0.0311  0.1892
   84DDP     P2  501  21.206   2.916  23.470 -0.0276  0.1142  0.1982
   84DDP     C2  502  21.429   2.691  23.769 -0.1260  0.1548 -0.1641
   84DDP     C3  503  20.438   2.845  23.234  0.1450 -0.3468  0.0041
   84DDP     C4  504  21.541   2.530  22.987 -0.0408 -0.0608  0.3824
   85DDP     C1  505  21.711   1.851   2.072  0.0564 -0.3595 -0.0334
   85DDP     P1  506  21.344   1.731   1.896  0.0343 -0.0752 -0.3542
   85DDP     P2  507  21.793   2.283   2.078  0.0011 -0.1090  0.0270
   85DDP     C2  508  21.717   2.661   1.746  0.0100 -0.0466  0.2811
   85DDP     C3  509  21.261   1.366   1.747  0.2983  0.3122 -0.0816
   85DDP     C4  510  21.746   1.567   2.453  0.1270 -0.2648  0.1098
   86DDP     C1  511  18.137  28.111  24.039  0.0067 -0.3120  0.2939
   86DDP     P1  512  18.145  28.443  24.302 -0.1524 -0.0157 -0.4183
   86DDP     P2  513  18.215  27.722  24.183 -0.1673  0.1556  0.1590
   86DDP     C2  514  17.984  27.302  24.193 -0.2474 -0.0044 -0.1125
   86DDP     C3  515  18.146  28.481  24.761 -0.1110  0.3264  0.1592
   86DDP     C4  516  18.092  28.139  23.629  0.4349 -0.1091 -0.2246
   87DDP     C1  517  21.951  23.934  10.716 -0.0522 -0.1376 -0.2337
   87DDP     P1  518  21.829  23.787  11.077  0.0757  0.0331 -0.1581
   87DDP     P2  519  22.358  23.642  10.575  0.2226 -0.1358  0.1831
   87DDP     C2  520  22.636  23.328  10.508 -0.1994  0.0014  0.2152
   87DDP     C3  521  21.582  23.524  11.410  0.2306  0.0387  0.0510
   87DDP     C4  522  21.744  24.325  10.713  0.0980  0.0183 -0.1425
   88DDP     C1  523   8.756  24.623   1.784  0.1130  0.0435 -0.2236
   88DDP     P1  524   8.577  24.857   2.073 -0.0169 -0.0073 -0.2525
   88DDP     P2  525   9.196  24.530   1.724  0.0550  0.0456 -0.1270
   88DDP     C2  526   9.479  24.325   1.410  0.0063  0.2501 -0.0581
   88DDP     C3  527   8.502  25.228   2.265  0.0995 -0.1006 -0.1039
   88DDP     C4  528   8.443  24.712   1.497 -0.1393  0.4463 -0.1878
   89DDP     C1  529   9.675  26.122  14.751 -0.0020  0.3204  0.4120
   89DDP     P1  530   9.837  26.501  14.452  0.1164 -0.0402 -0.0453
   89DDP     P2  531   9.322  25.794  14.583 -0.1807  0.1467 -0.1602
   89DDP     C2  532   8.986  25.854  14.334 -0.1205  0.1700  0.1943
   89DDP     C3  533   9.829  26.529  14.014 -0.1918 -0.0010 -0.1779
   89DDP     C4  534  10.055  25.898  15.157 -0.0574 -0.0785  0.0400
   90DDP     C1  535   8.947   1.877   7.208  0.1506  0.1315 -0.0515
   90DDP     P1  536   9.127   1.605   7.564  0.2592 -0.0245  0.0128
   90DDP     P2  537   8.791   1.514   7.065  0.2901  0.1140 -0.1402
   90DDP     C2  538   8.365   1.377   6.908 -0.0713 -0.0688  0.5990
   90DDP     C3  539   9.098   1.614   7.994 -0.1544  0.1333 -0.1002
   90DDP     C4  540   8.787   2.272   7.153  0.2106  0.1690 -0.1407
   91DDP     C1  541   0.720   1.576  14.977  0.1983  0.0939  0.1567
   91DDP     P1  542   0.864   1.325  15.281  0.2234 -0.1441  0.1137
   91DDP     P2  543   0.574   1.453  14.516  0.0293 -0.0783 -0.3111
   91DDP     C2  544   0.252   1.123  14.338  0.1249  0.1796  0.3935
   91DDP     C3  545   0.887   0.955  15.568 -0.1207 -0.1101  0.3119
   91DDP     C4  546   0.897   2.010  14.823  0.0290 -0.5863  0.1739
   92DDP     C1  547  12.382   3.332  27.395  0.0460  0.1572 -0.0397
   92DDP     P1  548  12.457   3.148  27.009  0.1341 -0.0060 -0.2661
   92DDP     P2  549  12.481   2.928  27.573 -0.1432 -0.1541 -0.0090
   92DDP     C2  550  12.609   2.568  27.740 -0.1601  0.3546 -0.1120
   92DDP     C3  551  12.337   2.780  26.851  0.0407 -0.3215 -0.2034
   92DDP     C4  552  12.237   3.656  27.675 -0.0721  0.2464 -0.4156
   93DDP     C1  553  28.154  17.122   8.119 -0.0226 -0.0032  0.1017
   93DDP     P1  554  28.461  17.351   7.795  0.1092 -0.0048  0.0096
   93DDP     P2  555  27.727  17.087   8.230 -0.2363 -0.0987 -0.1550
   93DDP     C2  556  27.322  17.060   8.422  0.3689  0.1576 -0.1538
   93DDP     C3  557  28.673  17.299   7.409 -0.1171 -0.0337  0.1017
   93DDP     C4  558  28.345  16.639   8.019  0.1073  0.0753 -0.0619
   94DDP     C1  559  15.462   0.373   7.956  0.4857  0.0177 -0.0444
   94DDP     P1  560  15.636  30.222   8.027 -0.1432 -0.3261  0.1242
   94DDP     P2  561  15.701   0.646   8.183 -0.1315  0.1124  0.1262
   94DDP     C2  562  15.630   0.975   8.572 -0.2105  0.0735  0.1347
   94DDP     C3  563  15.885  30.041   8.121 -0.0047  0.0424 -0.0562
   94DDP     C4  564  15.113   0.487   7.637 -0.2586  0.4870  0.1779
   95DDP     C1  565   5.258  19.758   8.215 -0.2157 -0.2540  0.0646
   95DDP     P1  566   5.581  19.491   8.268 -0.1849  0.1787 -0.2365
   95DDP     P2  567   5.422  20.176   8.246  0.4545 -0.0556 -0.0720
   95DDP     C2  568   5.431  20.545   8.396  0.3112 -0.1166 -0.0042
   95DDP     C3  569   5.784  19.166   8.381  0.1420  0.2589 -0.1169
   95DDP     C4  570   4.929  19.538   8.295 -0.0556  0.1028  0.0235
   96DDP     C1  571  14.317  26.698   6.120  0.1761 -0.0853 -0.0509
   96DDP     P1  572  14.725  26.549   6.097 -0.0307  0.1606 -0.2859
   96DDP     P2  573  14.241  27.147   6.037 -0.0975 -0.2391  0.0841
   96DDP     C2  574  14.366  27.352   5.647  0.0784 -0.0924 -0.0461
   96DDP     C3  575  15.067  26.501   5.953  0.0010 -0.3793  0.0684
   96DDP     C4  576  14.082  26.467   6.392  0.0486 -0.0416 -0.4520
   97DDP     C1  577   6.563  29.483  21.890 -0.1055 -0.0980 -0.2222
   97DDP     P1  578   6.837  29.564  21.541 -0.0256  0.0649  0.1354
   97DDP     P2  579   6.688  29.068  22.133  0.0665  0.0170  0.2279
   97DDP     C2  580   6.598  28.663  22.240  0.2253 -0.0791 -0.1744
   97DDP     C3  581   6.989  29.877  21.270  0.1726  0.3574  0.2151
   97DDP     C4  582   6.262  29.824  22.077 -0.0857 -0.2815  0.0006
   98DDP     C1  583  14.482   1.219   1.845  0.0811 -0.0140 -0.0535
   98DDP     P1  584  14.034   1.312   1.666 -0.1329 -0.1624  0.0447
   98DDP     P2  585  14.714   0.687   1.773  0.1330 -0.0140  0.1450
   98DDP     C2  586  14.829   0.280   1.797  0.0726 -0.0877  0.2966
   98DDP     C3  587  13.852   1.610   1.376  0.2023 -0.0988  0.1866
   98DDP     C4  588  14.464   1.576   2.253 -0.3646 -0.1115  0.0891
   99DDP     C1  589  11.919   5.820   0.661 -0.0125  0.1093 -0.0710
   99DDP     P1  590  11.587   5.966   0.777  0.4192  0.0213 -0.2027
   99DDP     P2  591  12.006   5.662   0.280 -0.0366 -0.0333  0.1211
   99DDP     C2  592  11.976   5.606  30.183 -0.1710  0.1764  0.1882
   99DDP     C3  593  11.281   5.878   1.104  0.3620 -0.0114  0.0318
   99DDP     C4  594  12.218   5.614   0.869 -0.0217  0.1267  0.1505
  100DDP     C1  595  24.256   9.898  27.221  0.2794  0.2301  0.3032
  100DDP     P1  596  23.925  10.099  26.925 -0.2082 -0.1196  0.1866
  100DDP     P2  597  24.092   9.478  27.296  0.3513  0.1118 -0.1374
  100DDP     C2  598  24.225   9.163  27.631 -0.1435 -0.1011 -0.0120
  100DDP     C3  599  23.802  10.563  26.804  0.4582 -0.1569  0.1067
  100DDP     C4  600  24.569  10.080  27.604  0.2540 -0.2247  0.1797
  101DDP     C1  601  16.218   9.245   5.269 -0.1527 -0.4971  0.1100
  101DDP     P1  602  16.286   8.941   5.615  0.0378 -0.0806  0.0700
  101DDP     P2  603  16.604   9.495   5.228 -0.0914 -0.2765  0.3157
  101DDP     C2  604  16.890   9.739   4.974  0.1889  0.1666  0.0469
  101DDP     C3  605  15.986   8.752   5.843 -0.0006 -0.1128 -0.1032
  101DDP     C4  606  15.873   9.426   5.275 -0.0106  0.0653 -0.0911
  102DDP     C1  607  27.910  29.308   2.900 -0.2645  0.0345 -0.1287
  102DDP     P1  608  28.190  28.907   2.928  0.1065  0.1159  0.0327
  102DDP     P2  609  27.517  29.233   2.950  0.0441  0.0934  0.1285
  102DDP     C2  610  27.113  29.269   3.080  0.0957  0.1105 -0.1033
  102DDP     C3  611  28.503  28.835   3.178 -0.4554 -0.2706  0.0574
  102DDP     C4  612  27.923  29.778   2.812 -0.0723 -0.2655  0.1932
  103DDP     C1  613   5.036  27.845  16.791  0.1323  0.4008  0.1059
  103DDP     P1  614   5.296  28.117  17.080  0.0536 -0.3863 -0.1327
  103DDP     P2  615   5.139  27.965  16.479 -0.3215 -0.0379 -0.3082
  103DDP     C2  616   5.249  28.050  16.071  0.4719 -0.1242  0.0116
  103DDP     C3  617   5.266  28.521  17.331  0.1313  0.1019  0.1124
  103DDP     C4  618   4.558  27.683  16.766 -0.1494  0.0322  0.0540
  104DDP     C1  619  13.471  12.546   1.118  0.0250  0.0028 -0.1071
  104DDP     P1  620  13.920  12.414   1.197 -0.0264  0.0177 -0.1988
  104DDP     P2  621  13.430  12.735   1.437 -0.0274 -0.0996  0.0430
  104DDP     C2  622  13.312  12.749   1.864 -0.1406  0.2135 -0.1581
  104DDP     C3  623  14.204  12.334   1.590  0.2510 -0.2314  0.1621
  104DDP     C4  624  13.084  12.264   0.985 -0.2501 -0.0104  0.0694
  105DDP     C1  625  27.431  17.827   1.506 -0.1985  0.0844  0.0169
  105DDP     P1  626  27.358  18.050   1.965 -0.1046  0.1844 -0.0167
  105DDP     P2  627  27.390  18.031   1.204  0.0928 -0.0460 -0.2714
  105DDP     C2  628  27.658  18.077   0.846 -0.3812 -0.3531  0.0332
  105DDP     C3  629  27.313  18.368   2.265 -0.1677 -0.0184 -0.3365
  105DDP     C4  630  27.575  17.444   1.510 -0.0066  0.2798  0.1225
  106DDP     C1  631  20.246  21.897  25.332  0.0768 -0.0631  0.1327
  106DDP     P1  632  20.405  22.065  25.740 -0.0891  0.2020 -0.1634
  106DDP     P2  633  19.947  22.163  25.259 -0.2464 -0.0346  0.0809
  106DDP     C2  634  19.699  22.556  25.424  0.1005 -0.1985 -0.2022
  106DDP     C3  635  20.455  22.105  26.190  0.1676  0.1401  0.3199
  106DDP     C4  636  20.371  21.717  24.855  0.2053 -0.1933  0.2580
  107DDP     C1  637  17.654  18.298  18.499  0.2229  0.1101 -0.0119
  107DDP     P1  638  17.844  18.536  18.801 -0.1130 -0.2150  0.1691
  107DDP     P2  639  17.508  17.917  18.782 -0.0349  0.0195  0.0850
  107DDP     C2  640  17.101  17.928  18.832 -0.1246 -0.0902 -0.1040
  107DDP     C3  641  18.198  18.429  18.724 -0.1107  0.0398  0.0815
  107DDP     C4  642  17.455  18.191  17.995 -0.2209 -0.0237  0.2649
  108DDP     C1  643  10.504  23.219   3.009 -0.0319 -0.1338 -0.0248
  108DDP     P1  644  10.645  23.554   2.800 -0.0654  0.1451  0.5025
  108DDP     P2  645  10.167  23.046   2.865  0.2374  0.3554  0.1982
  108DDP     C2  646   9.694  23.119   2.962 -0.1202  0.3400  0.1583
  108DDP     C3  647  10.658  23.852   2.602  0.2062  0.2033  0.3181
  108DDP     C4  648  10.675  22.998   3.446 -0.2233 -0.2776  0.0632
  109DDP     C1  649  11.393   6.876  12.085  0.1370 -0.2266  0.0479
  109DDP     P1  650  11.527   6.995  12.458 -0.0698  0.0088  0.3870
  109DDP     P2  651  11.251   6.414  12.196 -0.1344  0.1944 -0.2947
  109DDP     C2  652  11.340   6.048  12.024 -0.2232  0.1752 -0.1808
  109DDP     C3  653  11.363   6.855  12.848  0.0019 -0.0928  0.0644
  109DDP     C4  654  11.183   7.255  11.850  0.1193 -0.1407 -0.1603
  110DDP     C1  655  14.565   2.195  20.481 -0.3270 -0.1072  0.0585
  110DDP     P1  656  14.788   1.908  20.809  0.2384  0.0858 -0.2556
  110DDP     P2  657  14.040   2.204  20.525 -0.1090 -0.2858 -0.4973
  110DDP     C2  658  13.688   1.949  20.700 -0.0380 -0.1484  0.2156
  110DDP     C3  659  15.108   2.109  21.136 -0.0625  0.1358  0.2325
  110DDP     C4  660  14.675   2.679  20.311 -0.2327  0.1555  0.0707
  111DDP     C1  661   4.377   3.052  10.657 -0.1892 -0.3276  0.2426
  111DDP     P1  662   4.426   3.382  10.476  0.0632  0.0529  0.1234
  111DDP     P2  663   4.398   2.630  10.525 -0.0933 -0.0692 -0.0291
  111DDP     C2  664   4.451   2.277  10.243  0.0280 -0.0050 -0.0069
  111DDP     C3  665   4.551   3.663  10.081  0.1061 -0.1983 -0.0438
  111DDP     C4  666   4.505   2.986  11.044 -0.1590 -0.0120  0.0445
  112DDP     C1  667  26.181  17.140  28.951 -0.0792  0.2701  0.2899
  112DDP     P1  668  26.193  17.338  29.279 -0.1172  0.1326 -0.4973
  112DDP     P2  669  26.630  16.966  28.805  0.2611 -0.1407 -0.3099
  112DDP     C2  670  26.900  16.707  28.574 -0.0779  0.0340 -0.1188
  112DDP     C3  671  26.192  17.290  29.694  0.0226 -0.3639 -0.0880
  112DDP     C4  672  25.987  16.781  28.899  0.0586  0.0827 -0.0825
  113DDP     C1  673  20.381  15.751  30.115 -0.1664 -0.1531 -0.1618
  113DDP     P1  674  20.229  16.029   0.067 -0.1713 -0.1042 -0.0763
  113DDP     P2  675  19.972  15.786  29.953  0.0122  0.2104  0.1457
  113DDP     C2  676  19.626  15.514  29.810 -0.3169 -0.2817  0.3344
  113DDP     C3  677  20.486  16.323   0.294  0.1830 -0.0925  0.1748
  113DDP     C4  678  20.731  15.786  29.814  0.3060 -0.3570  0.1080
  114DDP     C1  679  26.277  27.571  10.904  0.2021 -0.0568 -0.0071
  114DDP     P1  680  26.408  27.163  10.727 -0.1484 -0.0647  0.2564
  114DDP     P2  681  26.157  27.544  11.294 -0.0971 -0.0844 -0.0738
  114DDP     C2  682  26.137  27.446  11.729 -0.2581  0.2277 -0.0844
  114DDP     C3  683  26.479  26.943  10.325 -0.4324  0.3595  0.1412
  114DDP     C4  684  26.318  27.952  10.808  0.4549 -0.0533  0.0167
  115DDP     C1  685  23.107   5.361   0.931  0.0345 -0.0007  0.0560
  115DDP     P1  686  23.277   5.112   0.665 -0.1227  0.0807  0.3867
  115DDP     P2  687  23.227   5.737   0.749  0.0499 -0.0243  0.1188
  115DDP     C2  688  23.056   6.156   0.806 -0.0867 -0.1843  0.0273
  115DDP     C3  689  23.340   4.667   0.656  0.0353  0.0110  0.2228
  115DDP     C4  690  22.815   5.149   1.270 -0.1521  0.3971  0.2351
  116DDP     C1  691  11.768  13.657  15.502  0.5340  0.2525  0.1122
  116DDP     P1  692  12.126  13.609  15.730 -0.2031  0.0495  0.0144
  116DDP     P2  693  11.586  14.092  15.416 -0.1237  0.0056  0.0331
  116DDP     C2  694  11.183  14.390  15.515  0.3996 -0.0520  0.2750
  116DDP     C3  695  12.493  13.720  15.907 -0.3209 -0.0289 -0.0420
  116DDP     C4  696  11.483  13.295  15.490 -0.2068 -0.1442  0.0344
  117DDP     C1  697  15.795  18.110   5.526 -0.0582 -0.0928  0.2505
  117DDP     P1  698  15.493  17.985   5.884  0.0210  0.1645  0.0902
  117DDP     P2  699  16.309  17.979   5.563 -0.0276  0.1220 -0.0217
  117DDP     C2  700  16.496  17.664   5.754 -0.1341 -0.3654 -0.1638
  117DDP     C3  701  15.431  17.608   6.009 -0.3799  0.0780  0.0968
  117DDP     C4  702  15.463  18.403   5.339  0.1493  0.2118  0.1295
  118DDP     C1  703  24.224   0.940  17.870  0.0246 -0.0509  0.0695
  118DDP     P1  704  24.626   1.047  17.696  0.3060  0.4487  0.1087
  118DDP     P2  705  24.131   1.310  18.081 -0.1146  0.0671 -0.3417
  118DDP     C2  706  23.728   1.641  18.070 -0.1966 -0.1803  0.3050
  118DDP     C3  707  25.027   0.805  17.519 -0.1988  0.0087  0.2302
  118DDP     C4  708  24.064   0.573  17.775 -0.0455 -0.1623 -0.1399
  119DDP     C1  709   6.850  12.093  18.496 -0.0604 -0.4570  0.0615
  119DDP     P1  710   7.170  12.004  18.946  0.1541 -0.2666  0.0214
  119DDP     P2  711   6.756  11.708  18.311 -0.1986 -0.1436 -0.1787
  119DDP     C2  712   6.658  11.297  18.107  0.1793 -0.2235 -0.1362
  119DDP     C3  713   7.288  11.652  19.222 -0.0603 -0.2859  0.1818
  119DDP     C4  714   7.058  12.538  18.294 -0.1439 -0.0624  0.0139
  120DDP     C1  715   1.412   2.902   5.097  0.0530  0.1914  0.0082
  120DDP     P1  716   1.311   2.554   4.949 -0.0017 -0.4543  0.0263
  120DDP     P2  717   1.478   3.252   4.788  0.3699 -0.2709 -0.0787
  120DDP     C2  718   1.581   3.505   4.427 -0.2901  0.0925 -0.2007
  120DDP     C3  719   1.161   2.055   4.892  0.1356 -0.1959 -0.1374
  120DDP     C4  720   1.128   2.958   5.510 -0.0436 -0.2291  0.0815
  121DDP     C1  721  20.017   3.553  12.230 -0.0027 -0.1881  0.1726
  121DDP     P1  722  20.008   3.899  12.494  0.2798 -0.1553  0.2192
  121DDP     P2  723  19.905   3.565  11.797 -0.0846  0.3566  0.1120
  121DDP     C2  724  19.911   3.867  11.395  0.1756  0.0155  0.0187
  121DDP     C3  725  19.936   4.126  12.825  0.2313 -0.1120 -0.0642
  121DDP     C4  726  20.280   3.137  12.413 -0.0729  0.2197 -0.1897
  122DDP     C1  727  25.365  23.936  12.408 -0.0686 -0.0608 -0.1071
  122DDP     P1  728  25.110  24.172  12.707  0.0186  0.3444  0.1500
  122DDP     P2  729  25.661  24.073  12.092  0.0288 -0.3230 -0.0363
  122DDP     C2  730  26.067  24.126  11.945 -0.1958 -0.3050 -0.0681
  122DDP     C3  731  24.925  24.166  13.138  0.1069 -0.0590 -0.2318
  122DDP     C4  732  25.424  23.472  12.393  0.0294  0.1058 -0.0614
  123DDP     C1  733   3.024  10.391  13.033 -0.0236  0.0220 -0.1574
  123DDP     P1  734   2.977  10.390  13.444 -0.2671  0.1881 -0.0827
  123DDP     P2  735   3.011  10.762  12.849  0.0321  0.1360 -0.0836
  123DDP     C2  736   2.895  11.199  12.720  0.3290 -0.1301  0.0140
  123DDP     C3  737   2.644  10.199  13.620 -0.2996  0.0852 -0.2429
  123DDP     C4  738   3.000  10.009  12.914  0.1240 -0.0930 -0.0072
  124DDP     C1  739  14.404  23.952  26.224  0.0724  0.0181  0.0485
  124DDP     P1  740  14.473  24.081  25.748 -0.0603 -0.0008 -0.0531
  124DDP     P2  741  14.574  24.099  26.575  0.1658 -0.1143  0.4159
  124DDP     C2  742  14.409  23.975  27.024 -0.0727 -0.0821  0.2635
  124DDP     C3  743  14.389  24.284  25.306 -0.0963  0.1482  0.1789
  124DDP     C4  744  13.948  23.623  26.312  0.2838  0.0467  0.4437
  125DDP     C1  745   9.488   7.760  29.535 -0.3538 -0.2600  0.2776
  125DDP     P1  746   9.509   8.163  29.716  0.1167  0.2560  0.0706
  125DDP     P2  747   9.885   7.732  29.548  0.0563  0.0335  0.2100
  125DDP     C2  748  10.326   7.869  29.455  0.2025  0.0171 -0.0386
  125DDP     C3  749   9.250   8.255  30.029 -0.0335  0.0818  0.1895
  125DDP     C4  750   9.279   7.421  29.665 -0.3371  0.0630 -0.0471
  126DDP     C1  751  12.276  26.239  19.045  0.2272  0.3833  0.0551
  126DDP     P1  752  12.496  26.433  19.422  0.1415  0.0346  0.3783
  126DDP     P2  753  11.795  26.299  19.072  0.3680 -0.1025  0.0643
  126DDP     C2  754  11.468  26.143  19.237  0.0741 -0.1348  0.0507
  126DDP     C3  755  12.877  26.710  19.342 -0.0170  0.1389 -0.2401
  126DDP     C4  756  12.429  26.381  18.571 -0.2815  0.1463 -0.0031
  127DDP     C1  757  29.691  16.277  26.190  0.2356 -0.1943  0.2142
  127DDP     P1  758  29.666  16.217  25.782  0.2632 -0.0082  0.0427
  127DDP     P2  759  29.387  16.111  26.453 -0.0507  0.1562 -0.1668
  127DDP     C2  760  29.106  16.019  26.789  0.2628 -0.1434 -0.2065
  127DDP     C3  761  29.463  16.002  25.427  0.0750 -0.0078  0.1500
  127DDP     C4  762  29.928  16.467  26.389  0.2046  0.1511  0.0502
  128DDP     C1  763  23.197   0.989  17.859  0.2168 -0.2202  0.1793
  128DDP     P1  764  23.279   1.494  18.023 -0.3922 -0.1177 -0.3628
  128DDP     P2  765  23.596   0.796  17.731 -0.3363  0.0020  0.1032
  128DDP     C2  766  23.691   0.534  17.393  0.1205 -0.1650 -0.1673
  128DDP     C3  767  23.386   1.410  18.475 -0.0905  0.2664  0.1625
  128DDP     C4  768  22.777   0.851  17.989 -0.1987 -0.2353 -0.0455
  129DDP     C1  769  25.038  14.343   5.252  0.1606 -0.2750  0.1880
  129DDP     P1  770  24.644  14.371   5.049 -0.3198  0.0132  0.4783
  129DDP     P2  771  25.427  14.169   5.070  0.1624 -0.0455 -0.3927
  129DDP     C2  772  25.513  13.775   4.917 -0.0089 -0.0814 -0.1041
  129DDP     C3  773  24.417  14.393   4.666  0.0951  0.0438 -0.1483
  129DDP     C4  774  24.883  14.614   5.612 -0.0334  0.0147 -0.1835
  130DDP     C1  775   5.995  23.992  23.287  0.0883  0.0428 -0.3029
  130DDP     P1  776   5.704  23.662  23.297 -0.0592  0.1024 -0.0646
  130DDP     P2  777   6.103  24.204  22.939 -0.1037  0.0302 -0.0929
  130DDP     C2  778   6.143  24.126  22.478 -0.2635 -0.2463 -0.2357
  130DDP     C3  779   5.337  23.499  23.640  0.0136  0.2498  0.3094
  130DDP     C4  780   6.186  23.835  23.670  0.1683  0.0621  0.1780
  131DDP     C1  781   0.127  19.011   8.213 -0.0171 -0.0915  0.0556
  131DDP     P1  782   0.269  19.260   8.604 -0.2679 -0.0017 -0.3167
  131DDP     P2  783  30.051  18.801   8.197 -0.1084  0.0228  0.0728
  131DDP     C2  784  29.572  18.852   8.117  0.1332  0.0071 -0.2679
  131DDP     C3  785   0.121  19.655   8.701 -0.1300 -0.0092 -0.6082
  131DDP     C4  786   0.450  18.837   7.849 -0.2087 -0.0057 -0.2029
  132DDP     C1  787  10.418   6.329  16.221  0.0897  0.0043  0.0931
  132DDP     P1  788  10.661   6.267  16.618  0.4414 -0.1072 -0.1977
  132DDP     P2  789  10.208   6.692  16.012  0.0664  0.0065 -0.2297
  132DDP     C2  790  10.060   7.038  16.183  0.0110  0.1014  0.0764
  132DDP     C3  791  10.997   6.109  17.016 -0.2129  0.1747  0.0249
  132DDP     C4  792  10.111   6.079  15.919  0.1160  0.0558 -0.0719
  133DDP     C1  793  15.399  29.662  27.991  0.4086  0.1299  0.2581
  133DDP     P1  794  15.275  29.655  28.463 -0.4132  0.1376 -0.1552
  133DDP     P2  795  15.800  29.508  27.963  0.1780 -0.0142 -0.1292
  133DDP     C2  796  16.170  29.804  28.052  0.2772  0.1412 -0.0636
  133DDP     C3  797  15.147  29.337  28.848  0.0867 -0.0813  0.0562
  133DDP     C4  798  15.099  29.842  27.641 -0.0350 -0.0915 -0.2890
  134DDP     C1  799   7.848   8.447  29.440 -0.3593 -0.0984 -0.4225
  134DDP     P1  800   7.613   8.501  29.074 -0.0103  0.0238  0.0381
  134DDP     P2  801   7.758   8.188  29.905 -0.1721 -0.1155  0.1790
  134DDP     C2  802   8.057   7.896  30.041 -0.1654  0.0499 -0.0794
  134DDP     C3  803   7.292   8.398  28.695  0.0939 -0.3521  0.0227
  134DDP     C4  804   8.054   8.823  29.419  0.0247  0.0661 -0.1463
  135DDP     C1  805  24.689   2.189  27.559  0.3584 -0.0073  0.2308
  135DDP     P1  806  25.028   2.441  27.489  0.1122  0.0538 -0.2081
  135DDP     P2  807  24.699   1.740  27.620  0.1954 -0.1008  0.1482
  135DDP     C2  808  24.876   1.418  27.897  0.0808  0.0331 -0.3320
  135DDP     C3  809  25.207   2.866  27.271 -0.1576 -0.1808  0.1038
  135DDP     C4  810  24.281   2.407  27.635 -0.2365  0.0723 -0.0219
  136DDP     C1  811   4.967   2.602  18.785 -0.1972 -0.2396 -0.1858
  136DDP     P1  812   5.232   2.434  18.467  0.0902  0.2117  0.1991
  136DDP     P2  813   4.968   3.049  18.649 -0.1375  0.0516 -0.2120
  136DDP     C2  814   5.019   3.361  18.325 -0.0859 -0.0811 -0.2578
  136DDP     C3  815   5.279   2.496  18.044 -0.2027  0.1061  0.1778
  136DDP     C4  816   4.703   2.425  19.015  0.2211 -0.0240 -0.1507
  137DDP     C1  817  11.418  15.321  16.356  0.1318 -0.3782 -0.3849
  137DDP     P1  818  11.095  15.288  16.681 -0.0263  0.1504  0.1439
  137DDP     P2  819  11.764  15.135  16.497  0.0041 -0.0346 -0.4333
  137DDP     C2  820  12.074  14.817  16.385 -0.2818  0.1297 -0.2382
  137DDP     C3  821  10.640  15.124  16.783 -0.1907  0.0936  0.2710
  137DDP     C4  822  11.300  15.247  16.011  0.1512 -0.0676 -0.1087
  138DDP     C1  823  14.859   7.211   7.835 -0.0768  0.0476  0.0405
  138DDP     P1  824  14.876   7.007   8.194  0.2141 -0.1065  0.1198
  138DDP     P2  825  14.977   7.679   7.743 -0.3152  0.0870  0.0548
  138DDP     C2  826  15.119   7.805   7.364 -0.0214 -0.0066 -0.1875
  138DDP     C3  827  15.171   6.685   8.400 -0.1630 -0.3089  0.0767
  138DDP     C4  828  14.722   6.865   7.570 -0.3442  0.1898  0.2968
  139DDP     C1  829   5.575  10.345   9.834 -0.1565  0.2029  0.0393
  139DDP     P1  830   5.161  10.199   9.627  0.0097 -0.0035  0.1775
  139DDP     P2  831   5.911  10.738   9.756 -0.0053 -0.0778  0.2036
  139DDP     C2  832   6.004  10.878   9.299 -0.4061 -0.1497  0.1317
  139DDP     C3  833   4.892   9.977   9.672 -0.0617 -0.2008  0.2465
  139DDP     C4  834   5.853  10.133  10.172 -0.0251 -0.0048  0.0783
  140DDP     C1  835   1.344   8.574   5.372  0.3464 -0.0828  0.1002
  140DDP     P1  836   1.095   8.907   5.505 -0.1028 -0.1339  0.2601
  140DDP     P2  837   1.327   8.361   5.067  0.0943  0.0653 -0.0544
  140DDP     C2  838   1.079   8.099   4.894 -0.2481  0.0785 -0.1138
  140DDP     C3  839   0.793   9.223   5.670  0.0534  0.2356 -0.3254
  140DDP     C4  840   1.739   8.612   5.635 -0.2167 -0.1550 -0.0453
  141DDP     C1  841  28.369  19.152   9.479 -0.2688  0.2063  0.2666
  141DDP     P1  842  28.056  18.917   9.631  0.0207 -0.3258  0.0125
  141DDP     P2  843  28.540  19.622   9.539  0.1586 -0.0033  0.2178
  141DDP     C2  844  28.891  19.919   9.738 -0.0549  0.0218  0.3600
  141DDP     C3  845  27.667  18.861   9.796 -0.2007 -0.0706  0.1070
  141DDP     C4  846  28.325  18.738   9.201 -0.2037 -0.0733  0.1056
  142DDP     C1  847  14.984  10.486   6.947 -0.2901 -0.1714  0.4283
  142DDP     P1  848  14.849  10.274   7.362  0.0183 -0.0671  0.0181
  142DDP     P2  849  15.112  10.878   6.998  0.0720  0.0672  0.0518
  142DDP     C2  850  15.530  11.116   6.968  0.1177 -0.3074  0.0816
  142DDP     C3  851  14.626   9.962   7.654  0.0614  0.1752 -0.0377
  142DDP     C4  852  14.801  10.360   6.578  0.1765  0.0339  0.1008
  143DDP     C1  853  16.463   0.456  14.973  0.0595 -0.1254  0.3147
  143DDP     P1  854  16.550   0.638  15.430  0.3550  0.0421  0.2857
  143DDP     P2  855  15.961   0.442  14.896  0.0404  0.1309  0.0333
  143DDP     C2  856  15.684   0.275  14.525 -0.0140 -0.2254  0.0578
  143DDP     C3  857  16.755   0.878  15.761 -0.0761  0.3252 -0.0983
  143DDP     C4  858  16.760   0.336  14.652  0.0080  0.0271  0.0689
  144DDP     C1  859   4.119  26.066  12.198  0.2697  0.0658  0.4472
  144DDP     P1  860   4.312  25.725  11.978 -0.3608 -0.1337  0.3910
  144DDP     P2  861   3.769  26.029  12.292 -0.0648  0.0258  0.1345
  144DDP     C2  862   3.386  26.106  12.483  0.1886  0.0269 -0.1743
  144DDP     C3  863   4.526  25.357  11.826  0.1457  0.2696  0.0364
  144DDP     C4  864   4.394  26.045  12.599  0.2076 -0.0907  0.1868
  145DDP     C1  865   3.282  28.586   5.842 -0.2570  0.0158  0.1482
  145DDP     P1  866   3.208  28.961   5.465  0.1234  0.3824  0.2447
  145DDP     P2  867   3.603  28.254   5.790 -0.1624  0.0609  0.2983
  145DDP     C2  868   3.833  27.874   5.935 -0.1383 -0.0584  0.0256
  145DDP     C3  869   3.163  29.117   5.002  0.0374 -0.2120 -0.0530
  145DDP     C4  870   3.036  28.547   6.102 -0.0534 -0.0695 -0.0515
  146DDP     C1  871  21.346  17.105   6.298 -0.0796 -0.0640  0.2018
  146DDP     P1  872  21.216  16.892   6.643  0.1491 -0.1073  0.0242
  146DDP     P2  873  21.744  17.045   6.063 -0.1388  0.0367  0.1240
  146DDP     C2  874  21.872  16.589   6.038  0.0507 -0.0261  0.1646
  146DDP     C3  875  20.882  16.841   6.882  0.0070  0.0402  0.2707
  146DDP     C4  876  21.125  17.352   6.045  0.1984  0.1507  0.1161
  147DDP     C1  877  20.227   1.127   1.456  0.0349 -0.1535  0.0523
  147DDP     P1  878  20.332   1.285   1.863 -0.0935  0.0599 -0.0356
  147DDP     P2  879  19.827   1.125   1.252 -0.1204 -0.0026  0.2730
  147DDP     C2  880  19.341   0.977   1.101  0.0109  0.0490  0.0284
  147DDP     C3  881  20.553   1.283   2.282  0.2672  0.3186  0.3258
  147DDP     C4  882  20.460   1.037   1.090  0.2295  0.1814 -0.5206
  148DDP     C1  883  25.044  12.297  19.951 -0.1446 -0.4798  0.2298
  148DDP     P1  884  24.804  12.150  19.574 -0.0334 -0.1014 -0.0115
  148DDP     P2  885  25.116  12.763  20.134 -0.3116 -0.7302 -0.2178
  148DDP     C2  886  25.160  13.072  20.460 -0.0960  0.2656  0.4348
  148DDP     C3  887  24.523  11.858  19.491  0.1748  0.0337 -0.0668
  148DDP     C4  888  25.248  12.032  20.209 -0.1124  0.1239 -0.1103
  149DDP     C1  889  21.233  17.748  17.263 -0.2209 -0.1597  0.1478
  149DDP     P1  890  21.423  17.584  17.631 -0.1911 -0.0119  0.0254
  149DDP     P2  891  21.129  18.119  17.113  0.1135 -0.0744 -0.3596
  149DDP     C2  892  21.157  18.331  16.745 -0.1533  0.0516  0.4873
  149DDP     C3  893  21.417  17.364  18.024  0.0895  0.0260 -0.0908
  149DDP     C4  894  21.561  17.621  17.016 -0.0515  0.2223 -0.0988
  150DDP     C1  895  29.805  22.707  23.414  0.1877  0.1633 -0.1829
  150DDP     P1  896  30.062  22.374  23.366 -0.1601  0.0818  0.4088
  150DDP     P2  897  29.376  22.629  23.226  0.0791  0.0636 -0.5706
  150DDP     C2  898  29.196  22.871  22.883 -0.2267  0.0886 -0.1539
  150DDP     C3  899  30.246  21.939  23.504 -0.1243  0.4156  0.0945
  150DDP     C4  900  30.062  23.122  23.544  0.0273  0.0759 -0.0639
  151DDP     C1  901  22.904   3.474  25.878  0.1057 -0.2560 -0.1252
  151DDP     P1  902  23.171   3.730  25.914 -0.1662 -0.1006  0.2433
  151DDP     P2  903  23.140   3.116  25.986 -0.1322  0.0430 -0.2340
  151DDP     C2  904  23.009   2.912  26.277 -0.1122  0.1330  0.1032
  151DDP     C3  905  23.542   3.759  25.692  0.3333 -0.0284  0.1557
  151DDP     C4  906  22.480   3.548  25.916 -0.2087 -0.0588 -0.1875
  152DDP     C1  907  20.918  17.762  17.617  0.5306  0.0600  0.0756
  152DDP     P1  908  20.879  17.520  17.846  0.2286  0.1297  0.0108
  152DDP     P2  909  20.534  17.820  17.461 -0.0717 -0.3363  0.1912
  152DDP     C2  910  20.040  17.846  17.438 -0.3126 -0.1023 -0.1064
  152DDP     C3  911  20.549  17.497  18.142  0.1880 -0.0330 -0.0716
  152DDP     C4  912  21.290  18.137  17.705 -0.0758 -0.1271 -0.0186
  153DDP     C1  913  24.490  29.969   2.159 -0.0874  0.0060 -0.4378
  153DDP     P1  914  24.572  29.578   2.148 -0.1265  0.0753  0.3778
  153DDP     P2  915  24.796  30.284   2.341  0.2854 -0.3170 -0.0049
  153DDP     C2  916  25.035   0.217   2.560  0.1207  0.1551  0.0358
  153DDP     C3  917  24.669  29.212   2.013  0.0458 -0.1221 -0.0492
  153DDP     C4  918  24.228  30.089   1.745 -0.4247  0.3925 -0.2643
  154DDP     C1  919   1.029   6.420  19.984  0.4287 -0.0265 -0.0113
  154DDP     P1  920   1.003   6.857  19.977  0.0646 -0.1071 -0.3426
  154DDP     P2  921   1.397   6.273  19.937 -0.0756  0.0407  0.0205
  154DDP     C2  922   1.731   6.097  20.221  0.1018  0.0574  0.2692
  154DDP     C3  923   1.324   7.252  20.081 -0.2138  0.1908 -0.2156
  154DDP     C4  924   0.891   6.126  20.348 -0.1453  0.1719  0.3122
  155DDP     C1  925  27.971   8.565  16.115  0.2518 -0.2578 -0.0573
  155DDP     P1  926  27.745   8.850  16.264  0.1517 -0.0044  0.1138
  155DDP     P2  927  28.110   8.648  15.644 -0.3630 -0.2046 -0.0469
  155DDP     C2  928  27.912   8.767  15.186  0.0239 -0.0035 -0.1233
  155DDP     C3  929  27.372   8.919  16.394  0.1557  0.2410 -0.3774
  155DDP     C4  930  27.697   8.264  16.320  0.0180 -0.1744  0.0658
  156DDP     C1  931  12.819  26.719  28.367  0.2311  0.1730  0.1625
  156DDP     P1  932  12.643  26.873  28.050  0.1291 -0.1684  0.0649
  156DDP     P2  933  12.861  27.109  28.587 -0.2016 -0.1720 -0.2293
  156DDP     C2  934  12.643  27.189  29.002 -0.1532  0.0217  0.1146
  156DDP     C3  935  12.288  26.776  27.812  0.2952  0.1177 -0.1058
  156DDP     C4  936  12.910  26.346  28.526  0.0332  0.0825  0.1231
  157DDP     C1  937  12.720   4.869  23.348 -0.1962  0.0680  0.2341
  157DDP     P1  938  13.101   5.112  23.467  0.1484  0.0930 -0.2273
  157DDP     P2  939  12.467   5.057  23.072 -0.0553 -0.1059  0.2916
  157DDP     C2  940  12.144   5.128  22.687  0.0276  0.5493  0.2677
  157DDP     C3  941  13.578   5.204  23.623  0.0201  0.0161 -0.1699
  157DDP     C4  942  12.697   4.418  23.259  0.0111  0.0616  0.0919
  158DDP     C1  943  10.781  27.989   5.395  0.2535 -0.1473  0.2644
  158DDP     P1  944  11.180  27.923   5.650  0.2295  0.0024  0.0509
  158DDP     P2  945  10.684  28.465   5.500 -0.0907  0.1949 -0.2219
  158DDP     C2  946  10.569  28.686   5.799 -0.3269 -0.1384 -0.0847
  158DDP     C3  947  11.121  27.724   6.098  0.0323 -0.1560  0.1260
  158DDP     C4  948  10.731  28.008   4.940  0.2287  0.1238  0.2277
  159DDP     C1  949  29.242  24.232   4.143  0.1273  0.4544  0.4747
  159DDP     P1  950  29.265  24.125   4.491  0.0078  0.1603 -0.1239
  159DDP     P2  951  29.616  24.073   3.880  0.1072  0.0922  0.1588
  159DDP     C2  952  29.929  23.885   3.645  0.0583 -0.1907 -0.0879
  159DDP     C3  953  29.168  24.158   4.888 -0.1537  0.4387  0.1250
  159DDP     C4  954  28.785  24.321   3.851 -0.1121 -0.0673  0.0794
  160DDP     C1  955  19.844  25.782  13.460 -0.2331 -0.1499 -0.3342
  160DDP     P1  956  19.949  25.601  13.842 -0.2126  0.0735 -0.3153
  160DDP     P2  957  20.104  26.097  13.465  0.2823 -0.1953  0.1117
  160DDP     C2  958  20.365  26.518  13.224 -0.1323  0.0879 -0.1238
  160DDP     C3  959  20.041  25.556  14.256  0.0836  0.2322  0.1587
  160DDP     C4  960  19.702  25.457  13.160  0.0704  0.0996  0.0616
  161DDP     C1  961  28.762  22.542  27.368 -0.0942 -0.2163 -0.0594
  161DDP     P1  962  28.330  22.733  27.451  0.4249  0.0519  0.2219
  161DDP     P2  963  29.024  22.586  27.706  0.1114 -0.0531 -0.2647
  161DDP     C2  964  29.403  22.579  27.817  0.0572  0.1599  0.0605
  161DDP     C3  965  27.902  22.849  27.282  0.0981 -0.1800  0.2556
  161DDP     C4  966  28.888  22.368  27.023 -0.1216 -0.2282 -0.0459
  162DDP     C1  967   9.821   3.007  11.088 -0.1135 -0.0196  0.2199
  162DDP     P1  968  10.050   3.029  11.393 -0.3326 -0.0834 -0.1615
  162DDP     P2  969   9.358   3.214  11.091 -0.0486 -0.0023 -0.0578
  162DDP     C2  970   8.969   3.404  11.252  0.2041 -0.0237 -0.0796
  162DDP     C3  971  10.033   2.582  11.529 -0.1863 -0.1114 -0.1377
  162DDP     C4  972  10.073   2.811  10.739  0.0563  0.3407  0.0681
  163DDP     C1  973   6.775  19.637   1.967 -0.1030  0.0199 -0.0935
  163DDP     P1  974   6.900  19.579   2.375  0.1046 -0.0209  0.3235
  163DDP     P2  975   6.552  19.993   2.023  0.1583 -0.0918 -0.1038
  163DDP     C2  976   6.520  20.386   2.214  0.0631  0.0637  0.2099
  163DDP     C3  977   6.764  19.533   2.747 -0.2773 -0.2014  0.0676
  163DDP     C4  978   6.809  19.328   1.584  0.0060  0.0743  0.0742
  164DDP     C1  979  24.055   4.841  13.150 -0.2537 -0.0899  0.1762
  164DDP     P1  980  23.901   4.494  13.426 -0.0692 -0.1238  0.0686
  164DDP     P2  981  24.300   4.864  12.726 -0.0257  0.1293 -0.2240
  164DDP     C2  982  24.606   5.068  12.497  0.0723  0.0372  0.1558
  164DDP     C3  983  23.494   4.256  13.461 -0.1484  0.0184  0.2395
  164DDP     C4  984  24.116   5.163  13.264 -0.0757  0.0391 -0.5558
  165DDP     C1  985  17.986   3.951  23.324 -0.2221  0.0343 -0.1713
  165DDP     P1  986  18.197   4.340  23.234  0.0734 -0.0732  0.0397
  165DDP     P2  987  17.947   3.602  22.979  0.0056  0.0293  0.1452
  165DDP     C2  988  18.110   3.321  22.733 -0.0715 -0.0834  0.1104
  165DDP     C3  989  18.568   4.272  23.069 -0.0770 -0.0161  0.0222
  165DDP     C4  990  17.995   3.649  23.586  0.1264  0.0623 -0.2089
  166DDP     C1  991   7.451  24.675  24.300 -0.0322  0.1203  0.0792
  166DDP     P1  992   7.779  24.962  24.522 -0.0864 -0.1023 -0.0295
  166DDP     P2  993   7.115  24.908  23.974 -0.1664 -0.3252  0.1331
  166DDP     C2  994   6.862  24.807  23.620 -0.0011 -0.2099 -0.0187
  166DDP     C3  995   7.840  25.418  24.367 -0.0839 -0.2000  0.1674
  166DDP     C4  996   7.371  24.274  24.378  0.1323  0.4776 -0.1641
  167DDP     C1  997   7.620  12.274  28.866 -0.1350 -0.0375  0.1308
  167DDP     P1  998   7.236  12.450  28.748  0.2924 -0.0209 -0.1606
  167DDP     P2  999   8.042  12.395  28.697  0.3002  0.0679 -0.3734
  167DDP     C2 1000   8.423  12.507  28.326 -0.1418  0.3186  0.1729
  167DDP     C3 1001   7.140  12.849  28.562  0.1698 -0.1800  0.0669
  167DDP     C4 1002   7.660  11.977  29.080 -0.1840 -0.0067 -0.1313
  168DDP     C1 1003  26.916   8.608   9.581  0.2380  0.0164 -0.1916
  168DDP     P1 1004  26.996   8.339   9.550 -0.0418 -0.2108 -0.1693
  168DDP     P2 1005  27.025   8.790   9.921  0.0793 -0.1047 -0.1861
  168DDP     C2 1006  27.414   8.844  10.104 -0.1536  0.1505 -0.1927
  168DDP     C3 1007  27.054   8.077   9.873  0.0067 -0.1452  0.1297
  168DDP     C4 1008  26.442   8.854   9.523 -0.0006  0.3788 -0.1810
  169DDP     C1 1009   8.392   3.436  24.399 -0.3425 -0.1330 -0.2338
  169DDP     P1 1010   8.504   3.200  24.821  0.0502  0.1330 -0.1653
  169DDP     P2 1011   8.716   3.403  24.128  0.0715 -0.2055  0.1354
  169DDP     C2 1012   8.911   2.968  23.902 -0.1994  0.0212 -0.0905
  169DDP     C3 1013   8.436   2.932  25.198 -0.0157 -0.1372  0.1028
  169DDP     C4 1014   8.033   3.652  24.297  0.2274  0.0462 -0.2481
  170DDP     C1 1015   2.867   3.909  19.539 -0.1146  0.0060 -0.2504
  170DDP     P1 1016   2.459   4.115  19.496  0.0760 -0.1403  0.2712
  170DDP     P2 1017   2.876   3.756  19.148 -0.2539 -0.1160 -0.1576
  170DDP     C2 1018   3.217   3.591  18.809  0.1627 -0.1689  0.0110
  170DDP     C3 1019   2.043   4.231  19.622 -0.0670  0.1677 -0.3557
  170DDP     C4 1020   3.223   3.849  19.722  0.2075  0.1146  0.1222
  171DDP     C1 1021  13.323  26.385  18.986  0.0980  0.2027  0.1668
  171DDP     P1 1022  13.447  26.713  19.086  0.0325 -0.0495  0.0732
  171DDP     P2 1023  13.271  26.150  19.322 -0.0403  0.0889  0.0544
  171DDP     C2 1024  12.971  25.879  19.493  0.2838  0.1353 -0.0531
  171DDP     C3 1025  13.744  26.984  18.947 -0.4570 -0.0804  0.2183
  171DDP     C4 1026  13.344  26.135  18.543  0.1661  0.0416  0.0247
  172DDP     C1 1027  11.995  27.447  25.284  0.0750  0.2100  0.1079
  172DDP     P1 1028  12.240  27.764  25.253 -0.1570  0.0074 -0.3143
  172DDP     P2 1029  12.109  27.145  25.606  0.0034  0.1241  0.2538
  172DDP     C2 1030  12.112  26.903  26.063 -0.0898  0.2709 -0.0178
  172DDP     C3 1031  12.425  28.007  24.982 -0.1249  0.1728 -0.0683
  172DDP     C4 1032  11.781  27.445  24.862 -0.0255 -0.1798  0.2048
  173DDP     C1 1033  12.897   3.304   7.707 -0.1254 -0.1654  0.0736
  173DDP     P1 1034  12.909   3.702   7.891  0.2115 -0.1586  0.0832
  173DDP     P2 1035  13.331   3.051   7.799  0.3735 -0.2194 -0.2291
  173DDP     C2 1036  13.782   3.040   7.642 -0.1484 -0.1276 -0.0184
  173DDP     C3 1037  13.021   4.074   8.080  0.2352  0.2201 -0.0175
  173DDP     C4 1038  12.527   3.109   7.351 -0.2942 -0.0853 -0.1273
  174DDP     C1 1039   4.300   2.387   2.010 -0.1028  0.3592  0.4618
  174DDP     P1 1040   4.569   2.521   2.251 -0.1327 -0.0146 -0.2878
  174DDP     P2 1041   4.191   2.545   1.634  0.2800  0.2053 -0.0850
  174DDP     C2 1042   4.191   2.205   1.346 -0.2141  0.0338  0.2211
  174DDP     C3 1043   4.742   2.832   2.488 -0.1413  0.0357  0.4109
  174DDP     C4 1044   3.984   2.145   2.195  0.2525  0.0179 -0.1405
  175DDP     C1 1045  25.845  21.224   7.713 -0.0929 -0.1543 -0.2241
  175DDP     P1 1046  26.114  21.137   7.398 -0.0702 -0.0562  0.0400
  175DDP     P2 1047  25.587  21.573   7.515 -0.1591 -0.0850 -0.0445
  175DDP     C2 1048  25.475  21.850   7.304  0.1771  0.1352 -0.0711
  175DDP     C3 1049  26.523  21.135   7.021  0.2973 -0.2898  0.2087
  175DDP     C4 1050  25.902  21.065   8.144 -0.3140 -0.1721 -0.0594
  176DDP     C1 1051   9.894  15.461  10.000 -0.2770  0.1266  0.1147
  176DDP     P1 1052   9.750  15.112   9.713  0.0381  0.1713 -0.0713
  176DDP     P2 1053  10.336  15.621   9.990  0.0390 -0.1148 -0.2710
  176DDP     C2 1054  10.522  16.104   9.896  0.1646  0.1955  0.1147
  176DDP     C3 1055  10.075  14.822   9.500  0.1071  0.2179  0.0281
  176DDP     C4 1056   9.735  15.780  10.225 -0.3780  0.0540 -0.1280
  177DDP     C1 1057   3.930  21.108  25.807  0.1664  0.0229  0.3788
  177DDP     P1 1058   4.056  21.313  25.459  0.3439 -0.0220 -0.0095
  177DDP     P2 1059   3.510  21.070  25.678 -0.1695  0.0225 -0.2030
  177DDP     C2 1060   2.991  20.922  25.724  0.2974 -0.3591 -0.0363
  177DDP     C3 1061   4.280  21.239  25.156  0.0110  0.0405 -0.2464
  177DDP     C4 1062   4.260  21.142  26.126 -0.1139  0.0663  0.0549
  178DDP     C1 1063   1.069   4.263  10.874 -0.1441 -0.0236  0.2159
  178DDP     P1 1064   1.331   3.887  10.846  0.1563  0.0489  0.1547
  178DDP     P2 1065   1.208   4.690  10.799  0.0198 -0.1464 -0.2368
  178DDP     C2 1066   1.065   4.865  10.446 -0.2477  0.0353  0.0436
  178DDP     C3 1067   1.720   3.687  10.813 -0.1743  0.1078 -0.0202
  178DDP     C4 1068   0.589   4.173  10.924 -0.0457  0.1649 -0.1332
  179DDP     C1 1069   9.688   0.126   0.334  0.2612 -0.2520 -0.4757
  179DDP     P1 1070   9.922  -0.013   0.566  0.0401  0.0134  0.0937
  179DDP     P2 1071   9.862   0.476   0.174  0.0141 -0.0323 -0.1836
  179DDP     C2 1072  10.217   0.647   0.295 -0.2487 -0.0602  0.0541
  179DDP     C3 1073   9.965  30.234   1.022  0.1225 -0.1587  0.4841
  179DDP     C4 1074   9.228  30.179   0.435  0.0744 -0.1854  0.0345
  180DDP     C1 1075  18.265  14.146   4.688 -0.0462  0.2826 -0.1577
  180DDP     P1 1076  18.077  13.794   4.772  0.4876  0.1004 -0.3104
  180DDP     P2 1077  18.099  14.584   4.326 -0.1463  0.2660 -0.1978
  180DDP     C2 1078  18.134  14.636   3.904 -0.0645 -0.2774 -0.1939
  180DDP     C3 1079  17.613  13.663   4.987 -0.0106 -0.3362  0.3144
  180DDP     C4 1080  18.643  14.206   4.938  0.1614 -0.3778  0.0303
  181DDP     C1 1081   1.588  22.712   5.812 -0.1627  0.0767 -0.2738
  181DDP     P1 1082   1.702  22.658   5.368  0.0242  0.4641  0.1917
  181DDP     P2 1083   1.129  22.722   5.875 -0.0708  0.3399  0.4139
  181DDP     C2 1084   0.903  22.723   6.188  0.0745 -0.1076 -0.2922
  181DDP     C3 1085   1.545  22.582   4.918 -0.2873 -0.2544  0.0469
  181DDP     C4 1086   1.845  22.578   6.153 -0.0463  0.0783  0.0591
  182DDP     C1 1087  21.378  28.048   6.419  0.0261 -0.2209 -0.0779
  182DDP     P1 1088  21.053  27.780   6.238  0.1118  0.0674  0.2038
  182DDP     P2 1089  21.362  28.476   6.291 -0.0139  0.1255 -0.0041
  182DDP     C2 1090  21.005  28.687   6.382  0.2458  0.1831  0.1582
  182DDP     C3 1091  20.704  27.594   6.186  0.1209 -0.0680 -0.0397
  182DDP     C4 1092  21.716  27.768   6.500  0.0539  0.0389 -0.0355
  183DDP     C1 1093  24.608  13.611  14.434 -0.1687  0.1106 -0.2067
  183DDP     P1 1094  24.639  14.012  14.669 -0.1412 -0.0731  0.1993
  183DDP     P2 1095  24.909  13.353  14.414  0.0198 -0.2418 -0.0556
  183DDP     C2 1096  25.077  13.045  14.217 -0.0941 -0.1758 -0.0113
  183DDP     C3 1097  24.552  13.984  15.150  0.2627 -0.1590 -0.2172
  183DDP     C4 1098  24.129  13.544  14.352  0.0204  0.0538  0.2357
  184DDP     C1 1099  17.859  19.318  19.962 -0.0184 -0.1109 -0.2189
  184DDP     P1 1100  17.584  19.547  20.098  0.1271 -0.0410  0.1279
  184DDP     P2 1101  17.989  18.932  20.190  0.0080 -0.0355  0.0108
  184DDP     C2 1102  17.764  18.751  20.554  0.0058  0.4624 -0.2171
  184DDP     C3 1103  17.419  19.794  20.518 -0.0532 -0.3382  0.3164
  184DDP     C4 1104  18.072  19.685  19.724  0.1651 -0.1453 -0.1422
  185DDP     C1 1105   6.598  11.759   8.315 -0.1776 -0.1302  0.1025
  185DDP     P1 1106   7.022  11.755   8.288  0.3245 -0.1588 -0.0695
  185DDP     P2 1107   6.373  11.814   8.748 -0.0459 -0.1709  0.1321
  185DDP     C2 1108   6.574  11.755   9.114 -0.0050  0.1623 -0.0695
  185DDP     C3 1109   7.285  11.350   8.230  0.1026 -0.0815  0.0115
  185DDP     C4 1110   6.261  11.680   7.972  0.3652  0.1912 -0.0741
  186DDP     C1 1111   6.822  21.888   6.213  0.0101 -0.1192 -0.0662
  186DDP     P1 1112   7.016  22.243   6.373  0.0078  0.0600 -0.2661
  186DDP     P2 1113   6.494  21.959   5.907  0.0401  0.1034  0.0759
  186DDP     C2 1114   6.352  21.949   5.587 -0.1220 -0.2402 -0.4098
  186DDP     C3 1115   7.353  22.464   6.350 -0.1639 -0.0068 -0.0761
  186DDP     C4 1116   6.902  21.703   6.512  0.0080 -0.0058 -0.0287
  187DDP     C1 1117  23.235  14.589   1.449  0.3128  0.1491 -0.0509
  187DDP     P1 1118  23.417  14.406   1.818  0.2329 -0.0475 -0.1294
  187DDP     P2 1119  22.855  14.751   1.369 -0.0218  0.0104 -0.3298
  187DDP     C2 1120  22.542  15.076   1.309  0.0407 -0.1483  0.0937
  187DDP     C3 1121  23.698  14.202   1.994 -0.2222  0.2997 -0.0675
  187DDP     C4 1122  23.501  14.487   1.124 -0.1213  0.0186  0.2860
  188DDP     C1 1123  21.921  10.626  13.607  0.2649 -0.0436 -0.0474
  188DDP     P1 1124  21.569  10.655  13.741  0.1473  0.1518 -0.1075
  188DDP     P2 1125  22.124  10.400  13.401  0.1322 -0.0575  0.2202
  188DDP     C2 1126  22.447  10.307  13.111 -0.0225  0.1391 -0.0172
  188DDP     C3 1127  21.237  10.589  13.446 -0.0507 -0.1353  0.0991
  188DDP     C4 1128  22.246  10.892  13.832 -0.0481 -0.0283 -0.0908
  189DDP     C1 1129   7.890  19.516  23.310 -0.2265  0.4639 -0.0182
  189DDP     P1 1130   7.928  19.378  23.766  0.3269  0.1416  0.0958
  189DDP     P2 1131   8.153  19.269  23.035  0.1346 -0.0227  0.0227
  189DDP     C2 1132   8.313  18.987  22.816  0.1630 -0.0805  0.2956
  189DDP     C3 1133   8.046  19.154  24.147 -0.0925  0.2338 -0.3570
  189DDP     C4 1134   7.547  19.762  23.337  0.0763  0.2156 -0.1640
  190DDP     C1 1135  28.136   8.034  22.800 -0.0127  0.0611 -0.1145
  190DDP     P1 1136  28.347   8.325  22.682  0.1674  0.5303 -0.0720
  190DDP     P2 1137  27.812   7.937  22.478  0.2027  0.5227 -0.0278
  190DDP     C2 1138  27.501   7.933  22.248 -0.1478  0.1360  0.1890
  190DDP     C3 1139  28.646   8.541  22.365  0.2745 -0.1355  0.2543
  190DDP     C4 1140  28.201   7.660  23.137  0.2136 -0.3723  0.2168
  191DDP     C1 1141   6.768  16.365   2.587  0.1479  0.1741 -0.1809
  191DDP     P1 1142   6.777  16.775   2.686  0.1124  0.2258 -0.0693
  191DDP     P2 1143   6.399  16.185   2.893  0.3263  0.4647  0.0975
  191DDP     C2 1144   5.898  16.156   2.661 -0.0270  0.1061 -0.0428
  191DDP     C3 1145   6.790  17.220   2.621 -0.1441 -0.2022 -0.0867
  191DDP     C4 1146   6.951  16.229   2.424 -0.2330  0.0338  0.0416
  192DDP     C1 1147   8.669   9.588  21.569 -0.3453  0.0112  0.0325
  192DDP     P1 1148   9.037   9.357  21.734 -0.2898 -0.3104  0.2889
  192DDP     P2 1149   8.507   9.632  21.156 -0.1665  0.1176  0.1351
  192DDP     C2 1150   8.644   9.747  20.727 -0.0900 -0.2653 -0.0409
  192DDP     C3 1151   9.310   9.083  21.995  0.0671 -0.1977  0.1173
  192DDP     C4 1152   8.433   9.790  21.938  0.2035  0.0018  0.2565
  193DDP     C1 1153  11.473  15.345  21.236  0.2968  0.0394 -0.0019
  193DDP     P1 1154  11.977  15.265  21.147  0.3866 -0.0040  0.1077
  193DDP     P2 1155  11.215  15.419  21.593 -0.1663  0.0089 -0.1947
  193DDP     C2 1156  11.212  15.592  21.920  0.1674  0.1089  0.0321
  193DDP     C3 1157  12.209  14.983  20.903 -0.1998 -0.1059  0.2117
  193DDP     C4 1158  11.461  15.361  20.787  0.1203 -0.2541 -0.0091
  194DDP     C1 1159  26.710   5.846  26.575 -0.4103 -0.1214  0.0280
  194DDP     P1 1160  26.513   5.557  26.343 -0.0987 -0.0881  0.1694
  194DDP     P2 1161  26.780   6.358  26.462  0.2528 -0.2675  0.0392
  194DDP     C2 1162  26.540   6.705  26.654  0.0403  0.1780  0.3886
  194DDP     C3 1163  26.431   5.613  25.904  0.0524  0.0575  0.0576
  194DDP     C4 1164  26.773   5.686  27.001 -0.3601 -0.0988  0.0558
  195DDP     C1 1165   4.634   4.158  11.145 -0.1414  0.0566  0.2795
  195DDP     P1 1166   4.449   4.640  11.357  0.1117 -0.1190  0.0435
  195DDP     P2 1167   4.452   3.895  11.372 -0.2467 -0.1953 -0.1104
  195DDP     C2 1168   4.660   3.529  11.595  0.1496 -0.5567  0.0640
  195DDP     C3 1169   4.383   5.037  11.564  0.0017 -0.3281 -0.3194
  195DDP     C4 1170   5.055   3.906  10.975 -0.1756  0.1120  0.1100
  196DDP     C1 1171  29.554   7.952  27.133  0.1682 -0.1470  0.0034
  196DDP     P1 1172  29.566   7.816  27.547  0.0217  0.1124 -0.2589
  196DDP     P2 1173  29.420   8.342  26.798  0.1802 -0.0673  0.0070
  196DDP     C2 1174  29.555   8.560  26.403  0.1473 -0.3015  0.1242
  196DDP     C3 1175  29.689   7.784  27.932 -0.2414  0.1745 -0.2629
  196DDP     C4 1176  29.771   7.616  26.934  0.1802  0.1345 -0.0254
  197DDP     C1 1177   9.304  19.641  27.730 -0.0491 -0.0257 -0.0737
  197DDP     P1 1178   9.493  19.927  27.557 -0.0304  0.0201 -0.0633
  197DDP     P2 1179   9.172  19.321  27.515 -0.0661  0.2126  0.2817
  197DDP     C2 1180   8.924  19.208  27.381 -0.4114  0.1406 -0.1507
  197DDP     C3 1181   9.929  19.922  27.373 -0.2015 -0.0886  0.3813
  197DDP     C4 1182   9.249  19.606  28.128  0.2085 -0.0002 -0.2026
  198DDP     C1 1183   8.758  21.201   9.409  0.3239 -0.0688  0.1960
  198DDP     P1 1184   8.979  21.469   9.400 -0.2773  0.1027  0.2346
  198DDP     P2 1185   8.863  20.644   9.449 -0.0025  0.1791  0.0077
  198DDP     C2 1186   9.015  20.447   9.012 -0.0037 -0.0188  0.1191
  198DDP     C3 1187   9.131  21.920   9.515  0.0729 -0.0448  0.0247
  198DDP     C4 1188   8.283  21.252   9.386 -0.0887 -0.0243  0.0432
  199DDP     C1 1189  28.102   1.668  26.745  0.1940 -0.0012  0.2553
  199DDP     P1 1190  28.038   1.349  27.054 -0.3326 -0.0659  0.0217
  199DDP     P2 1191  28.399   1.947  26.771 -0.2909  0.1397  0.0647
  199DDP     C2 1192  28.545   2.333  26.879 -0.0792  0.1393  0.0145
  199DDP     C3 1193  27.929   1.392  27.529 -0.0237  0.1354  0.0531
  199DDP     C4 1194  27.811   1.652  26.400 -0.0044  0.0075  0.1938
  200DDP     C1 1195  11.976  27.591  19.047 -0.2074  0.1166 -0.2452
  200DDP     P1 1196  11.989  27.168  18.988  0.0855 -0.0899 -0.1076
  200DDP     P2 1197  11.966  27.827  18.646 -0.0805 -0.2293  0.2508
  200DDP     C2 1198  12.346  27.903  18.350 -0.5654  0.1232 -0.1181
  200DDP     C3 1199  12.235  26.890  18.776  0.2787 -0.0117  0.1278
  200DDP     C4 1200  11.880  27.417  19.470 -0.1264 -0.1921 -0.0549
  201DDP     C1 1201   1.177  15.360   2.262  0.4147 -0.0371 -0.2237
  201DDP     P1 1202   0.721  15.472   2.394  0.3861 -0.2647 -0.2413
  201DDP     P2 1203   1.430  15.550   1.916  0.0091  0.1060 -0.0313
  201DDP     C2 1204   1.869  15.584   1.665 -0.1575  0.4062 -0.3726
  201DDP     C3 1205   0.364  15.180   2.583 -0.1246  0.1412 -0.2484
  201DDP     C4 1206   1.459  15.081   2.462 -0.1478 -0.0962 -0.0694
  202DDP     C1 1207  18.405   8.424  22.320 -0.2166  0.1397  0.1722
  202DDP     P1 1208  18.555   8.196  21.905 -0.2300  0.2333 -0.0100
  202DDP     P2 1209  18.735   8.769  22.270  0.1448 -0.0470 -0.0196
  202DDP     C2 1210  18.659   9.080  21.945 -0.3903 -0.2389  0.0139
  202DDP     C3 1211  18.805   7.923  21.656  0.2585 -0.0481 -0.0202
  202DDP     C4 1212  18.032   8.452  22.596  0.1013 -0.0475  0.2898
  203DDP     C1 1213   0.143  15.051   0.446 -0.1375  0.0345 -0.1628
  203DDP     P1 1214   0.168  15.366   0.066 -0.3536 -0.3245 -0.0600
  203DDP     P2 1215   0.527  14.791   0.392  0.1301  0.0414  0.1002
  203DDP     C2 1216   0.834  14.642   0.746 -0.0634 -0.3205 -0.3285
  203DDP     C3 1217   0.363  15.343  29.971 -0.0076 -0.0576  0.0237
  203DDP     C4 1218  30.044  15.086   0.583  0.0152 -0.3047  0.0683
  204DDP     C1 1219  29.321  16.580  15.956 -0.0264 -0.1317  0.3649
  204DDP     P1 1220  29.006  16.629  15.544 -0.3849  0.0894 -0.0207
  204DDP     P2 1221  29.677  16.459  15.814  0.2710 -0.0442 -0.1371
  204DDP     C2 1222  29.974  16.222  15.514  0.0789 -0.2188 -0.3245
  204DDP     C3 1223  29.082  16.609  15.224  0.1465 -0.2181  0.1873
  204DDP     C4 1224  29.102  16.446  16.354  0.0587  0.3474  0.2106
  205DDP     C1 1225  10.474  24.407  26.510 -0.1213 -0.0792  0.2713
  205DDP     P1 1226  10.703  24.170  26.089 -0.0287  0.1959  0.0048
  205DDP     P2 1227  10.508  24.213  26.865  0.0054  0.1196 -0.1266
  205DDP     C2 1228  10.825  23.903  27.092  0.4276  0.1947 -0.1754
  205DDP     C3 1229  11.128  24.113  25.859  0.0962 -0.0743 -0.1215
  205DDP     C4 1230  10.241  24.824  26.410  0.1154  0.1840  0.0155
  206DDP     C1 1231   9.072   0.964   6.884  0.0462  0.0370  0.0831
  206DDP     P1 1232   9.079   1.041   7.295 -0.0272 -0.2176  0.2738
  206DDP     P2 1233   8.650   1.001   6.947  0.0095 -0.1627  0.1342
  206DDP     C2 1234   8.263   0.906   7.037 -0.1690 -0.0636  0.0427
  206DDP     C3 1235   9.410   0.829   7.539 -0.1201 -0.3560  0.0515
  206DDP     C4 1236   9.180   0.742   6.607  0.1413 -0.1672 -0.2979
  207DDP     C1 1237  25.683  10.595  20.827  0.1778 -0.0146  0.2289
  207DDP     P1 1238  26.143  10.549  20.790  0.1259 -0.1245  0.0487
  207DDP     P2 1239  25.463  10.214  20.488 -0.1574 -0.0208  0.1832
  207DDP     C2 1240  25.245   9.886  20.250 -0.1350 -0.5521  0.1461
  207DDP     C3 1241  26.537  10.703  20.575  0.1197 -0.0463 -0.0367
  207DDP     C4 1242  25.514  11.059  20.945  0.2146  0.1539 -0.1113
  208DDP     C1 1243  25.514   6.604  25.378  0.0618  0.0982  0.1044
  208DDP     P1 1244  25.342   6.817  25.675  0.1229 -0.1921 -0.2209
  208DDP     P2 1245  25.570   6.772  24.936  0.2232  0.2394 -0.0037
  208DDP     C2 1246  25.454   7.033  24.656 -0.4000  0.0481  0.1006
  208DDP     C3 1247  24.838   6.889  25.606  0.2540 -0.2470  0.2426
  208DDP     C4 1248  25.458   6.127  25.452  0.0984 -0.2952  0.1018
  209DDP     C1 1249  21.803  22.818   8.275 -0.0979  0.2689  0.0747
  209DDP     P1 1250  21.725  22.424   8.369 -0.1909  0.0742  0.1641
  209DDP     P2 1251  21.546  23.081   8.161 -0.0466 -0.0335 -0.1029
  209DDP     C2 1252  21.148  23.297   8.320  0.3697  0.0193 -0.1512
  209DDP     C3 1253  22.006  22.071   8.379 -0.0587  0.0896 -0.2926
  209DDP     C4 1254  22.271  22.980   8.422  0.1722 -0.1901 -0.2485
  210DDP     C1 1255  26.932  16.626  14.692  0.3922 -0.0305  0.1187
  210DDP     P1 1256  26.507  16.526  14.544 -0.0359 -0.2343  0.1474
  210DDP     P2 1257  27.115  16.233  14.625 -0.0952 -0.1341 -0.0830
  210DDP     C2 1258  27.296  15.912  14.440 -0.1220 -0.0216 -0.0053
  210DDP     C3 1259  26.179  16.460  14.254  0.1644  0.1506  0.3518
  210DDP     C4 1260  27.061  16.977  14.936 -0.1426  0.0078 -0.0218
  211DDP     C1 1261   0.091   8.442  26.553 -0.2395 -0.1352  0.0244
  211DDP     P1 1262   0.410   8.661  26.463 -0.0543 -0.1477  0.0147
  211DDP     P2 1263  -0.007   8.440  26.053 -0.1167  0.0093  0.0197
  211DDP     C2 1264   0.322   8.471  25.749 -0.0680 -0.0519  0.3635
  211DDP     C3 1265   0.857   8.906  26.404  0.0090  0.1626 -0.1240
  211DDP     C4 1266   0.015   8.107  26.817 -0.0217  0.1730 -0.0608
  212DDP     C1 1267  14.013  21.413   8.932  0.1779 -0.3619 -0.2635
  212DDP     P1 1268  14.354  21.405   8.862 -0.1743  0.0475 -0.0300
  212DDP     P2 1269  13.902  20.984   8.848 -0.1749  0.3444  0.1944
  212DDP     C2 1270  13.691  20.588   8.869 -0.1428  0.1051 -0.2301
  212DDP     C3 1271  14.693  21.234   8.868 -0.0703 -0.0924  0.0834
  212DDP     C4 1272  13.844  21.786   9.202  0.1318 -0.3179  0.1333
  213DDP     C1 1273   0.237  26.699   0.738  0.1479 -0.0170 -0.0917
  213DDP     P1 1274   0.524  26.487   0.994 -0.0914 -0.3104  0.0199
  213DDP     P2 1275  30.181  26.671   0.872  0.1584  0.2991  0.1675
  213DDP     C2 1276  29.891  26.957   1.062 -0.1525  0.0473 -0.1375
  213DDP     C3 1277   0.788  26.076   1.071  0.0301  0.2171 -0.3186
  213DDP     C4 1278   0.142  27.013   0.481 -0.1059 -0.1770 -0.0027
  214DDP     C1 1279  22.134  16.923   0.632 -0.1844 -0.5612 -0.4106
  214DDP     P1 1280  21.981  16.921   0.274  0.1283 -0.2363 -0.3919
  214DDP     P2 1281  22.043  17.090   0.955 -0.0412  0.2525  0.2884
  214DDP     C2 1282  22.243  17.175   1.420  0.0197  0.1346  0.1680
  214DDP     C3 1283  21.803  17.033  30.230 -0.1354 -0.1754 -0.0452
  214DDP     C4 1284  22.552  16.795   0.757  0.0497 -0.0013  0.0069
  215DDP     C1 1285  11.484  14.765  11.515 -0.0779  0.0503  0.0397
  215DDP     P1 1286  11.076  15.061  11.491 -0.2099  0.2975  0.2574
  215DDP     P2 1287  11.464  14.373  11.655  0.3003 -0.0395  0.3364
  215DDP     C2 1288  11.113  14.274  11.830 -0.1050 -0.0081  0.0588
  215DDP     C3 1289  10.957  15.419  11.725 -0.3039  0.1274 -0.0137
  215DDP     C4 1290  11.719  15.233  11.309 -0.3399  0.0811  0.0641
  216DDP     C1 1291  15.654  18.612   2.050  0.2403 -0.1868 -0.0250
  216DDP     P1 1292  15.764  18.936   1.733  0.2119  0.0309 -0.0156
  216DDP     P2 1293  15.313  18.728   2.290  0.0508 -0.0237 -0.0111
  216DDP     C2 1294  14.950  18.726   2.418  0.3037 -0.1037 -0.2824
  216DDP     C3 1295  15.775  18.981   1.316  0.1023  0.1296  0.1023
  216DDP     C4 1296  15.755  18.195   1.932 -0.2701  0.1395 -0.3167
  217DDP     C1 1297  29.849  20.730   6.790  0.0427  0.0800 -0.0012
  217DDP     P1 1298  29.819  21.011   7.124 -0.0808  0.3927 -0.0239
  217DDP     P2 1299  30.141  20.925   6.661 -0.1524  0.2487  0.0766
  217DDP     C2 1300   0.004  21.327   6.795 -0.2026 -0.2008  0.4553
  217DDP     C3 1301  29.728  21.104   7.545 -0.2922 -0.0838 -0.3902
  217DDP     C4 1302  29.729  20.309   6.730  0.2584 -0.0218  0.2794
  218DDP     C1 1303  22.511  19.524   6.705  0.0307 -0.0094 -0.0034
  218DDP     P1 1304  22.652  19.193   6.352  0.2853 -0.2845 -0.1276
  218DDP     P2 1305  22.210  19.894   6.552  0.0027  0.1353  0.2299
  218DDP     C2 1306  21.909  20.168   6.481 -0.1535  0.2548  0.3531
  218DDP     C3 1307  22.905  19.007   5.954 -0.1336 -0.0618  0.0942
  218DDP     C4 1308  22.844  19.505   7.008  0.1494  0.0779  0.1630
  219DDP     C1 1309  20.628  25.267   4.146  0.0317  0.0441  0.2170
  219DDP     P1 1310  21.001  25.624   4.105 -0.0886  0.2185 -0.3363
  219DDP     P2 1311  20.677  24.969   4.463  0.3951 -0.1420  0.0764
  219DDP     C2 1312  20.703  24.603   4.674  0.1305  0.1882 -0.0326
  219DDP     C3 1313  21.220  25.879   4.254 -0.1373  0.0901  0.3378
  219DDP     C4 1314  20.282  25.048   3.817 -0.2083 -0.0462 -0.2603
  220DDP     C1 1315  13.242  11.002   1.420  0.0039  0.2022  0.1893
  220DDP     P1 1316  12.807  10.935   1.514 -0.1739  0.1088 -0.1486
  220DDP     P2 1317  13.308  11.130   0.969 -0.0974  0.0209 -0.2577
  220DDP     C2 1318  13.142  11.508   0.772 -0.2715 -0.1798  0.0023
  220DDP     C3 1319  12.418  10.783   1.571 -0.0343 -0.1882 -0.2931
  220DDP     C4 1320  13.678  11.009   1.577 -0.0775 -0.0616  0.1317
  221DDP     C1 1321  10.607  23.662   3.299 -0.0591 -0.2236 -0.0175
  221DDP     P1 1322  10.153  23.540   3.047  0.1300  0.0641 -0.0571
  221DDP     P2 1323  10.811  23.437   3.634 -0.1753  0.2984 -0.1774
  221DDP     C2 1324  10.908  23.204   4.027 -0.2259 -0.1871 -0.1457
  221DDP     C3 1325   9.686  23.603   3.069  0.1776 -0.0081 -0.0647
  221DDP     C4 1326  11.013  23.775   2.982 -0.0411  0.0710  0.1352
  222DDP     C1 1327  12.417   0.294  16.301 -0.1240 -0.0983 -0.0987
  222DDP     P1 1328  12.478   0.624  15.908  0.0126 -0.0012 -0.0762
  222DDP     P2 1329  12.525  30.229  16.178 -0.1396  0.0917  0.2759
  222DDP     C2 1330  12.681  29.908  16.396 -0.0676  0.1559 -0.3641
  222DDP     C3 1331  12.589   0.885  15.479 -0.1559  0.1269 -0.0473
  222DDP     C4 1332  12.024   0.209  16.610  0.1915 -0.2961 -0.1003
  223DDP     C1 1333  23.777  29.596   2.292  0.1884  0.1256 -0.0722
  223DDP     P1 1334  23.750  29.878   2.553 -0.0878  0.2548  0.0828
  223DDP     P2 1335  23.825  29.181   2.458  0.1318  0.0938 -0.1973
  223DDP     C2 1336  24.191  29.157   2.688  0.0267  0.2844 -0.4134
  223DDP     C3 1337  23.722   0.078   2.746 -0.3101 -0.0346  0.0002
  223DDP     C4 1338  23.576  29.598   1.962  0.0983 -0.0596  0.3769
  224DDP     C1 1339   4.621  27.478   5.310  0.0676 -0.2494  0.1391
  224DDP     P1 1340   4.309  27.899   5.224 -0.1619  0.0191 -0.2580
  224DDP     P2 1341   4.637  27.107   4.964 -0.0440 -0.1083 -0.1086
  224DDP     C2 1342   4.745  26.915   4.597  0.0154  0.0543 -0.0054
  224DDP     C3 1343   4.389  28.311   5.286 -0.1484 -0.7253 -0.0288
  224DDP     C4 1344   4.987  27.443   5.611 -0.0533  0.2140 -0.1363
  225DDP     C1 1345  14.117  14.973   2.812 -0.2051  0.1081 -0.0228
  225DDP     P1 1346  14.217  14.660   2.475  0.1451 -0.3089 -0.0070
  225DDP     P2 1347  14.332  15.256   2.792 -0.0953  0.1924  0.1202
  225DDP     C2 1348  14.721  15.252   2.521  0.0325  0.0901 -0.0524
  225DDP     C3 1349  14.348  14.558   2.147 -0.0978  0.2654  0.1338
  225DDP     C4 1350  13.892  14.847   3.235  0.1839  0.2458 -0.2738
  226DDP     C1 1351  16.872  10.516  20.079 -0.0405  0.1696 -0.0997
  226DDP     P1 1352  16.702  10.123  19.811  0.0726 -0.1217 -0.1679
  226DDP     P2 1353  17.134  10.899  19.851 -0.0065 -0.2269 -0.0743
  226DDP     C2 1354  17.454  11.333  19.978 -0.0082 -0.5143  0.0291
  226DDP     C3 1355  16.980   9.798  19.541 -0.0326  0.0054 -0.0566
  226DDP     C4 1356  17.027  10.543  20.450 -0.0726 -0.0919 -0.0688
  227DDP     C1 1357  18.658  23.815  20.967  0.1824  0.0219 -0.1853
  227DDP     P1 1358  18.905  24.151  20.703  0.2425  0.1021  0.2535
  227DDP     P2 1359  18.666  23.860  21.405  0.1497  0.1407  0.1120
  227DDP     C2 1360  18.544  23.822  21.795  0.2118  0.1122 -0.1212
  227DDP     C3 1361  19.349  24.082  20.422  0.1190 -0.0541  0.4604
  227DDP     C4 1362  18.681  23.449  20.766 -0.0482 -0.0358  0.1199
  228DDP     C1 1363  10.390   9.065   8.460 -0.1289 -0.0187  0.0431
  228DDP     P1 1364   9.989   9.391   8.468  0.0327  0.1787 -0.1147
  228DDP     P2 1365  10.738   9.102   8.531 -0.1059  0.0543  0.2041
  228DDP     C2 1366  11.023   8.909   8.531 -0.0832 -0.2423 -0.0775
  228DDP     C3 1367   9.880   9.828   8.551  0.1810  0.1193  0.1277
  228DDP     C4 1368  10.255   8.723   8.706  0.3105 -0.0878 -0.1871
  229DDP     C1 1369  21.364   5.882  22.429 -0.0051 -0.0002  0.1793
  229DDP     P1 1370  21.087   5.708  22.194 -0.0703  0.1637 -0.1823
  229DDP     P2 1371  21.230   6.206  22.474  0.0300 -0.1805  0.0494
  229DDP     C2 1372  21.342   6.554  22.240 -0.1964  0.3161  0.1378
  229DDP     C3 1373  20.898   5.376  22.239 -0.3242 -0.1875  0.3556
  229DDP     C4 1374  21.700   5.694  22.685 -0.1677  0.1449 -0.2092
  230DDP     C1 1375   4.461  12.340   5.606  0.0353  0.2635  0.1214
  230DDP     P1 1376   4.444  12.749   5.650 -0.0881  0.0771  0.1568
  230DDP     P2 1377   4.388  12.033   5.270 -0.0036 -0.0701  0.0984
  230DDP     C2 1378   4.265  11.784   4.902  0.0039 -0.3155 -0.2318
  230DDP     C3 1379   4.372  13.069   5.887  0.1064  0.0806 -0.0811
  230DDP     C4 1380   4.523  12.274   6.116  0.1462 -0.0865  0.2415
  231DDP     C1 1381  25.130  18.043  27.653 -0.3604 -0.0838  0.0922
  231DDP     P1 1382  24.872  17.739  27.366  0.0408  0.1256 -0.0653
  231DDP     P2 1383  25.599  18.080  27.533 -0.2839 -0.4252 -0.3712
  231DDP     C2 1384  25.926  17.850  27.223 -0.1392  0.0138 -0.2804
  231DDP     C3 1385  24.553  17.513  27.171 -0.0246 -0.0413  0.1516
  231DDP     C4 1386  24.930  18.201  28.040  0.1695 -0.0151  0.1542
  232DDP     C1 1387   2.086  13.443  27.497 -0.0295 -0.2168  0.0841
  232DDP     P1 1388   2.471  13.238  27.210 -0.1147 -0.1667  0.3189
  232DDP     P2 1389   1.767  13.210  27.684 -0.0854  0.1888 -0.0258
  232DDP     C2 1390   1.456  13.305  27.877  0.1321 -0.1316  0.0422
  232DDP     C3 1391   2.199  13.236  26.754  0.2091 -0.1028 -0.3938
  232DDP     C4 1392   2.072  13.967  27.495 -0.1223  0.0203  0.0571
  233DDP     C1 1393  14.399  26.864  20.641  0.2886  0.3708 -0.0215
  233DDP     P1 1394  14.607  26.460  20.601  0.0392 -0.1718  0.0160
  233DDP     P2 1395  14.523  27.307  20.528 -0.0542  0.0180  0.0485
  233DDP     C2 1396  14.573  27.819  20.684  0.1416  0.2661 -0.1096
  233DDP     C3 1397  15.064  26.595  20.396  0.2725  0.1219 -0.0774
  233DDP     C4 1398  14.055  26.770  20.343  0.2036  0.0822 -0.1661
  234DDP     C1 1399  11.341   9.060  12.880 -0.1730 -0.4421  0.0046
  234DDP     P1 1400  11.051   8.730  12.864  0.2233  0.3187  0.0347
  234DDP     P2 1401  11.481   9.040  13.338 -0.0183 -0.1319  0.0241
  234DDP     C2 1402  11.539   9.118  13.780  0.3130 -0.0899 -0.0466
  234DDP     C3 1403  10.670   8.651  12.926  0.0759  0.1392 -0.4216
  234DDP     C4 1404  11.555   9.089  12.500 -0.1941  0.0977  0.0218
  235DDP     C1 1405   6.619  25.807   5.897 -0.2015 -0.0831  0.0151
  235DDP     P1 1406   6.195  25.652   5.764 -0.0637 -0.0116 -0.2923
  235DDP     P2 1407   6.874  25.384   5.792 -0.0310 -0.0524 -0.2089
  235DDP     C2 1408   7.142  25.125   5.520 -0.0992 -0.0005  0.0392
  235DDP     C3 1409   5.973  25.442   6.074  0.1633 -0.0733 -0.0201
  235DDP     C4 1410   6.728  26.271   5.892 -0.3124 -0.2426  0.1390
  236DDP     C1 1411  22.433   5.425   4.746  0.0306  0.2553  0.0655
  236DDP     P1 1412  22.673   5.234   5.001  0.0512 -0.0020  0.0540
  236DDP     P2 1413  22.425   5.727   4.953  0.1162 -0.0388 -0.0779
  236DDP     C2 1414  22.647   5.661   5.339 -0.2184 -0.0161 -0.0796
  236DDP     C3 1415  22.995   4.872   4.966 -0.1159 -0.1430 -0.0907
  236DDP     C4 1416  22.307   5.227   4.348  0.3282 -0.2689 -0.2068
  237DDP     C1 1417  11.828  19.421   2.784  0.0037 -0.2394 -0.0889
  237DDP     P1 1418  12.222  19.702   2.857  0.1295  0.0682 -0.1775
  237DDP     P2 1419  11.706  19.523   3.243 -0.0669  0.0444 -0.1234
  237DDP     C2 1420  11.774  19.690   3.759 -0.1136 -0.1320  0.1581
  237DDP     C3 1421  12.367  20.037   3.120 -0.0057  0.2668 -0.0383
  237DDP     C4 1422  11.671  19.153   2.478 -0.1828  0.3484  0.0402
  238DDP     C1 1423  21.959  13.459  22.854 -0.0912 -0.1520  0.3555
  238DDP     P1 1424  22.294  13.245  22.504  0.0290  0.1639 -0.0108
  238DDP     P2 1425  21.521  13.465  22.791 -0.1555 -0.2266 -0.5530
  238DDP     C2 1426  21.163  13.826  22.822  0.1147  0.0267  0.1245
  238DDP     C3 1427  22.324  13.182  22.042  0.1538 -0.1463 -0.2010
  238DDP     C4 1428  22.183  13.690  23.050 -0.4196  0.1802 -0.2260
  239DDP     C1 1429  19.006   3.965   0.269  0.0489  0.1041  0.1188
  239DDP     P1 1430  19.219   3.538   0.198 -0.0471  0.0534  0.0319
  239DDP     P2 1431  18.734   3.943   0.602 -0.2520 -0.1582  0.1641
  239DDP     C2 1432  18.562   3.786   0.973  0.0470  0.0735  0.0059
  239DDP     C3 1433  19.471   3.247   0.073 -0.0253 -0.1474  0.2054
  239DDP     C4 1434  19.067   4.406   0.052 -0.0606  0.2932 -0.0011
  240DDP     C1 1435  13.286   7.864   3.379 -0.1911  0.1284 -0.0889
  240DDP     P1 1436  13.340   7.917   3.768 -0.0163  0.1446 -0.0371
  240DDP     P2 1437  13.714   7.783   3.150 -0.4177  0.0282  0.2412
  240DDP     C2 1438  13.822   7.372   2.884 -0.1277 -0.0256 -0.3279
  240DDP     C3 1439  13.526   8.156   4.083  0.0844 -0.0991 -0.2685
  240DDP     C4 1440  13.016   7.759   3.014  0.1584 -0.0725 -0.1890
  241DDP     C1 1441  17.424   7.341   6.948 -0.0923  0.0913  0.0344
  241DDP     P1 1442  16.982   7.368   7.089  0.1655  0.1625 -0.1499
  241DDP     P2 1443  17.550   7.368   6.643 -0.4465 -0.0817 -0.4075
  241DDP     C2 1444  17.868   7.040   6.460 -0.0398  0.1871 -0.0728
  241DDP     C3 1445  16.715   7.698   7.079  0.0818  0.0211 -0.1595
  241DDP     C4 1446  17.639   7.587   7.337 -0.1084  0.1769  0.0768
  242DDP     C1 1447  13.681  19.750  14.026  0.0333  0.1749  0.4652
  242DDP     P1 1448  13.952  20.037  14.140  0.0415 -0.0470 -0.0745
  242DDP     P2 1449  14.122  19.623  13.833  0.4127  0.1826 -0.2785
  242DDP     C2 1450  14.583  19.481  14.074 -0.0173  0.0809 -0.2841
  242DDP     C3 1451  14.293  20.282  14.224  0.3944  0.2834 -0.1698
  242DDP     C4 1452  13.252  19.964  13.956  0.0350 -0.1894 -0.1435
  243DDP     C1 1453   1.423  25.628   6.273 -0.2391 -0.0277 -0.0787
  243DDP     P1 1454   1.615  25.923   6.572 -0.1313 -0.0334  0.3112
  243DDP     P2 1455   1.604  25.921   6.023 -0.1069 -0.1244  0.0729
  243DDP     C2 1456   2.022  26.201   6.024 -0.1019 -0.0442 -0.0517
  243DDP     C3 1457   1.906  26.281   6.548  0.1191  0.1249  0.1058
  243DDP     C4 1458   1.067  25.496   6.424 -0.4570  0.2510  0.3138
  244DDP     C1 1459  24.718  28.670  18.926 -0.1605 -0.0026 -0.2111
  244DDP     P1 1460  24.587  28.312  18.546 -0.0803  0.2348 -0.1135
  244DDP     P2 1461  24.562  28.598  19.222  0.1754 -0.1792 -0.1505
  244DDP     C2 1462  24.530  28.694  19.645 -0.0696 -0.2201  0.0014
  244DDP     C3 1463  24.698  27.825  18.471  0.0426 -0.1645 -0.0763
  244DDP     C4 1464  25.075  28.821  18.926  0.0591  0.0881 -0.4052
  245DDP     C1 1465  28.803  15.385  15.884  0.3289 -0.1460  0.0761
  245DDP     P1 1466  29.252  15.459  15.775  0.3044  0.0792  0.0708
  245DDP     P2 1467  28.589  15.798  16.015  0.0344 -0.1515 -0.0401
  245DDP     C2 1468  28.485  16.219  15.705  0.3264 -0.0816 -0.1080
  245DDP     C3 1469  29.587  15.619  15.885 -0.0377 -0.3815  0.0454
  245DDP     C4 1470  28.570  15.173  15.676  0.0477 -0.0872 -0.2932
  246DDP     C1 1471   1.268  16.950   5.482  0.1316  0.0576  0.3331
  246DDP     P1 1472   0.855  16.909   5.704  0.2012  0.1334  0.1890
  246DDP     P2 1473   1.282  17.379   5.423 -0.2326 -0.5703 -0.1693
  246DDP     C2 1474   1.462  17.778   5.212 -0.1582 -0.0855  0.0780
  246DDP     C3 1475   0.401  17.007   5.694 -0.0983 -0.2349 -0.3801
  246DDP     C4 1476   1.596  16.574   5.674 -0.0211 -0.4603 -0.4273
  247DDP     C1 1477   7.344  26.502  27.477  0.0527 -0.3129  0.1970
  247DDP     P1 1478   7.765  26.215  27.457 -0.0097  0.0072  0.1412
  247DDP     P2 1479   7.199  26.744  27.208 -0.2069 -0.0345 -0.1699
  247DDP     C2 1480   6.909  27.038  26.916  0.0987  0.0721 -0.0054
  247DDP     C3 1481   8.108  26.005  27.202  0.2267  0.1986 -0.0328
  247DDP     C4 1482   7.098  26.353  27.924 -0.1412 -0.5485  0.1936
  248DDP     C1 1483   8.344   5.684  25.303  0.1549  0.0275 -0.0427
  248DDP     P1 1484   8.613   5.695  25.544  0.1255  0.0144 -0.0728
  248DDP     P2 1485   8.355   5.838  24.969  0.2330  0.1475  0.1627
  248DDP     C2 1486   8.185   5.902  24.529  0.0472 -0.1804  0.0348
  248DDP     C3 1487   8.524   6.014  25.722 -0.3900  0.1611  0.2944
  248DDP     C4 1488   7.877   5.583  25.460 -0.0297  0.0401  0.0494
  249DDP     C1 1489  20.931   5.757   4.201  0.1177  0.0788 -0.1969
  249DDP     P1 1490  20.779   5.628   4.532  0.1223 -0.2911  0.0611
  249DDP     P2 1491  21.243   5.652   4.296 -0.1262 -0.0571  0.0228
  249DDP     C2 1492  21.495   5.722   4.715 -0.1491 -0.3792  0.2009
  249DDP     C3 1493  20.505   5.538   4.905 -0.0861  0.2831 -0.1725
  249DDP     C4 1494  20.742   5.800   3.789  0.0162  0.0339 -0.0266
  250DDP     C1 1495  28.522   5.114  28.864 -0.2524  0.5453  0.0044
  250DDP     P1 1496  28.958   5.304  28.664 -0.0527 -0.1311  0.1737
  250DDP     P2 1497  28.546   4.643  28.956 -0.1406  0.0726 -0.0174
  250DDP     C2 1498  28.615   4.474  29.347  0.1910  0.0018 -0.2106
  250DDP     C3 1499  29.463   5.302  28.815  0.2224  0.2919 -0.2152
  250DDP     C4 1500  28.199   5.345  29.011  0.4983  0.0585 -0.0116
  251DDP     C1 1501  12.276   7.296  28.053  0.2948 -0.1075  0.1038
  251DDP     P1 1502  12.777   7.259  27.976 -0.1041  0.2356 -0.1949
  251DDP     P2 1503  12.107   7.422  28.412 -0.1586 -0.0844  0.1776
  251DDP     C2 1504  12.205   7.284  28.797  0.3270  0.0333  0.1061
  251DDP     C3 1505  13.060   7.267  27.704  0.0853 -0.1380  0.2025
  251DDP     C4 1506  12.226   7.288  27.696 -0.1065 -0.0502 -0.0358
  252DDP     C1 1507   4.600   6.024  25.252  0.2526  0.2886  0.0812
  252DDP     P1 1508   5.044   6.013  25.049  0.3464  0.1798 -0.1617
  252DDP     P2 1509   4.548   5.732  25.485 -0.1698 -0.0519 -0.0654
  252DDP     C2 1510   4.479   5.675  25.959  0.0882  0.2738 -0.1844
  252DDP     C3 1511   5.224   6.307  24.733  0.0256  0.0010 -0.0687
  252DDP     C4 1512   4.222   6.417  25.284  0.0991 -0.1046  0.0200
  253DDP     C1 1513  27.784   9.863  18.684 -0.0036  0.1740  0.2574
  253DDP     P1 1514  27.709  10.333  18.682  0.1950  0.1843 -0.2511
  253DDP     P2 1515  27.798   9.920  19.036  0.0545  0.1789  0.0939
  253DDP     C2 1516  28.081  10.099  19.222 -0.0708  0.0522 -0.0893
  253DDP     C3 1517  27.712  10.766  18.536  0.0179 -0.2488 -0.1042
  253DDP     C4 1518  28.032   9.643  18.372 -0.1222 -0.0715 -0.1539
  254DDP     C1 1519   0.280  27.888   7.527 -0.0921  0.0981 -0.0016
  254DDP     P1 1520   0.329  28.056   7.150 -0.1136 -0.1374  0.1374
  254DDP     P2 1521  30.177  27.761   7.773 -0.0719 -0.0183  0.1415
  254DDP     C2 1522  30.261  27.450   8.173 -0.1150  0.0932 -0.0465
  254DDP     C3 1523   0.702  28.238   6.836 -0.2157 -0.0933  0.2213
  254DDP     C4 1524   0.556  27.974   7.767 -0.0525  0.0555  0.0173
  255DDP     C1 1525   1.890  27.692   6.218  0.0904 -0.0947 -0.1034
  255DDP     P1 1526   1.653  27.205   6.164 -0.0530  0.2182  0.1112
  255DDP     P2 1527   2.103  27.777   6.585  0.3170 -0.0201  0.1847
  255DDP     C2 1528   2.403  27.636   6.544  0.0335  0.2003 -0.1685
  255DDP     C3 1529   1.803  26.843   6.346 -0.1949  0.0725  0.0280
  255DDP     C4 1530   1.801  28.059   6.179  0.2058 -0.1554 -0.0464
  256DDP     C1 1531   2.882  24.281   2.829 -0.0159  0.5027 -0.0201
  256DDP     P1 1532   2.457  24.115   2.722  0.2531 -0.3137  0.0193
  256DDP     P2 1533   2.932  24.700   2.569 -0.1907 -0.0657 -0.2506
  256DDP     C2 1534   3.282  25.029   2.494 -0.2559 -0.1244 -0.0155
  256DDP     C3 1535   2.059  24.003   2.805  0.1669 -0.2142  0.2787
  256DDP     C4 1536   2.997  24.181   3.249 -0.1174  0.0162  0.2724
  257DDP     C1 1537   5.005  18.547  14.670 -0.2076  0.1485 -0.1697
  257DDP     P1 1538   5.394  18.444  14.647  0.1382  0.1515 -0.3400
  257DDP     P2 1539   4.682  18.553  14.405 -0.0940  0.0873 -0.2243
  257DDP     C2 1540   4.313  18.751  14.273 -0.2452  0.1044 -0.1176
  257DDP     C3 1541   5.796  18.607  14.590  0.0890 -0.1062 -0.0823
  257DDP     C4 1542   4.855  18.339  14.935 -0.0137  0.2047  0.3647
  258DDP     C1 1543   2.339   7.284   8.226  0.0658 -0.4827  0.2845
  258DDP     P1 1544   2.734   7.163   8.035 -0.3131 -0.0265 -0.0423
  258DDP     P2 1545   2.369   7.350   8.666  0.0759 -0.0476  0.1454
  258DDP     C2 1546   2.520   7.630   8.925 -0.1604 -0.0413  0.1975
  258DDP     C3 1547   3.045   7.072   7.835  0.2224  0.0959 -0.0104
  258DDP     C4 1548   2.024   7.254   8.103  0.1322 -0.0764  0.0506
  259DDP     C1 1549   8.808  18.276  16.246  0.3939  0.2336  0.0831
  259DDP     P1 1550   8.561  18.744  16.105 -0.1522  0.3801  0.1349
  259DDP     P2 1551   8.896  18.217  16.799  0.2550  0.3592  0.0376
  259DDP     C2 1552   8.679  18.169  17.226 -0.1513  0.0166  0.1806
  259DDP     C3 1553   8.556  19.190  16.000  0.1355  0.1475  0.0570
  259DDP     C4 1554   8.774  17.872  16.070 -0.0355  0.0335  0.1720
  260DDP     C1 1555  19.520   6.902  28.473 -0.1637  0.2313  0.1056
  260DDP     P1 1556  19.459   6.666  28.157  0.2261  0.1455  0.0564
  260DDP     P2 1557  19.206   6.983  28.628 -0.1655  0.0519 -0.1793
  260DDP     C2 1558  18.913   6.727  28.863  0.0585 -0.0291 -0.0880
  260DDP     C3 1559  19.336   6.369  27.792  0.0852  0.0269  0.1283
  260DDP     C4 1560  19.888   7.083  28.691 -0.0554  0.2149 -0.1756
  261DDP     C1 1561  23.267  25.482   8.107  0.4840  0.0757  0.1302
  261DDP     P1 1562  23.638  25.353   7.822 -0.1171  0.1003  0.1507
  261DDP     P2 1563  22.869  25.574   7.956  0.2159 -0.1738 -0.0570
  261DDP     C2 1564  22.610  26.025   8.057 -0.1981 -0.2349 -0.0938
  261DDP     C3 1565  23.889  25.340   7.424 -0.1869  0.0512  0.1927
  261DDP     C4 1566  23.380  25.698   8.492  0.0704  0.1375  0.1602
  262DDP     C1 1567  11.637  29.183  18.173  0.3231 -0.3466  0.1611
  262DDP     P1 1568  11.457  28.936  17.780  0.0754 -0.0632  0.0090
  262DDP     P2 1569  11.418  29.217  18.577 -0.2062 -0.1926  0.0120
  262DDP     C2 1570  10.985  29.270  18.778  0.0254 -0.0811  0.0688
  262DDP     C3 1571  11.125  28.794  17.549 -0.1440  0.0371  0.2889
  262DDP     C4 1572  11.913  29.498  18.089  0.1905 -0.1818  0.1216
  263DDP     C1 1573  10.238  12.561   9.928  0.1078  0.2823 -0.0800
  263DDP     P1 1574  10.620  12.587   9.778  0.0138  0.0174 -0.0870
  263DDP     P2 1575   9.889  12.204  10.004  0.0776  0.2341 -0.3671
  263DDP     C2 1576  10.076  11.890  10.414  0.1602  0.0570  0.1776
  263DDP     C3 1577  10.891  12.924   9.968  0.3024  0.2436  0.0202
  263DDP     C4 1578  10.139  12.993  10.090 -0.0609  0.1701  0.1228
  264DDP     C1 1579   4.063  19.271  16.327 -0.1543  0.2823 -0.0095
  264DDP     P1 1580   3.932  18.838  16.340 -0.1555 -0.0374 -0.0221
  264DDP     P2 1581   4.333  19.255  15.919  0.0330 -0.3463  0.2072
  264DDP     C2 1582   4.397  19.089  15.498 -0.0149  0.2433 -0.2283
  264DDP     C3 1583   4.068  18.376  16.321  0.3157 -0.1567  0.1112
  264DDP     C4 1584   3.831  19.615  16.554 -0.0884  0.0848  0.3075
  265DDP     C1 1585  14.448  20.775  12.972 -0.0809 -0.0126  0.0450
  265DDP     P1 1586  14.329  20.627  12.625 -0.0935  0.1465 -0.0616
  265DDP     P2 1587  14.903  20.982  12.858  0.3438 -0.3585 -0.1659
  265DDP     C2 1588  15.139  21.242  13.004 -0.3038 -0.0721  0.0035
  265DDP     C3 1589  14.139  20.181  12.639 -0.1537  0.1518  0.1541
  265DDP     C4 1590  14.251  20.801  13.366  0.2527 -0.1886  0.0192
  266DDP     C1 1591   1.609  29.998   6.455 -0.0166  0.3058 -0.1655
  266DDP     P1 1592   1.848  29.642   6.567  0.0058  0.0908  0.4516
  266DDP     P2 1593   1.374  29.973   6.040  0.1037  0.0029  0.0157
  266DDP     C2 1594   1.253  29.827   5.587 -0.1755 -0.0360  0.1130
  266DDP     C3 1595   2.283  29.632   6.489 -0.3808  0.0404  0.3675
  266DDP     C4 1596   1.684   0.114   6.511 -0.0132  0.0756 -0.2906
  267DDP     C1 1597  17.894  19.053   9.752 -0.1403  0.3314  0.0379
  267DDP     P1 1598  18.200  18.777   9.856  0.0784 -0.1786 -0.0828
  267DDP     P2 1599  18.206  19.387   9.668 -0.1727 -0.0917  0.1865
  267DDP     C2 1600  18.564  19.529   9.960  0.1734 -0.0821  0.2681
  267DDP     C3 1601  18.287  18.509  10.150  0.0353  0.1473 -0.2496
  267DDP     C4 1602  17.358  18.890   9.710 -0.0067  0.2417  0.4713
  268DDP     C1 1603  16.245  15.546  19.415  0.0165  0.0274 -0.0404
  268DDP     P1 1604  15.773  15.680  19.469  0.1496  0.0119 -0.0885
  268DDP     P2 1605  16.419  15.007  19.427 -0.0053 -0.1252 -0.0882
  268DDP     C2 1606  16.544  14.683  19.474 -0.1200 -0.1407 -0.1764
  268DDP     C3 1607  15.485  15.930  19.237 -0.0291 -0.1469  0.2144
  268DDP     C4 1608  16.448  15.848  19.072 -0.2087 -0.2633  0.3806
  269DDP     C1 1609  14.180  22.217   4.049 -0.2700  0.2364  0.3557
  269DDP     P1 1610  14.057  22.365   3.598 -0.3109  0.1615  0.1200
  269DDP     P2 1611  14.037  22.529   4.321  0.0557 -0.2087  0.0915
  269DDP     C2 1612  13.669  22.789   4.563 -0.4070  0.1560  0.1011
  269DDP     C3 1613  14.058  22.758   3.407 -0.1454 -0.0503 -0.2357
  269DDP     C4 1614  14.509  21.834   4.080  0.0077  0.0672  0.0756
  270DDP     C1 1615  19.735   0.134  11.281  0.1393  0.0066  0.0014
  270DDP     P1 1616  19.575   0.227  10.853  0.0383  0.2476  0.0976
  270DDP     P2 1617  19.474   0.181  11.667  0.2925  0.2329 -0.1729
  270DDP     C2 1618  19.599   0.127  11.967  0.2192  0.2612  0.2119
  270DDP     C3 1619  19.594   0.529  10.552 -0.2532  0.0009  0.0395
  270DDP     C4 1620  20.178  30.162  11.240 -0.2192 -0.0186 -0.3037
  271DDP     C1 1621  27.997   0.270  28.313  0.0731  0.1021 -0.1155
  271DDP     P1 1622  28.315   0.537  28.249  0.0098  0.1045 -0.1027
  271DDP     P2 1623  27.630   0.104  28.022  0.0335  0.0963 -0.0282
  271DDP     C2 1624  27.497  30.227  27.718  0.0193  0.3924  0.1755
  271DDP     C3 1625  28.734   0.540  28.099  0.0575  0.4524  0.0759
  271DDP     C4 1626  28.181   0.087  28.687 -0.1765 -0.1302 -0.1002
  272DDP     C1 1627  14.921  24.225  28.940 -0.1657 -0.0625  0.0423
  272DDP     P1 1628  14.964  23.854  28.752  0.1330  0.2053 -0.2182
  272DDP     P2 1629  14.875  24.205  29.358 -0.0549 -0.0506  0.1999
  272DDP     C2 1630  14.500  24.119  29.571  0.1070  0.0066 -0.0651
  272DDP     C3 1631  14.922  23.642  29.173  0.1602 -0.0190 -0.3630
  272DDP     C4 1632  14.972  24.608  28.650  0.0050 -0.2050  0.0408
  273DDP     C1 1633  16.361  29.638  11.931 -0.1017  0.2167  0.0908
  273DDP     P1 1634  16.593  29.248  12.119  0.0343  0.0863 -0.1742
  273DDP     P2 1635  16.773  29.789  11.794 -0.0435 -0.2390  0.0345
  273DDP     C2 1636  17.240  29.904  11.573 -0.1692 -0.2110  0.0103
  273DDP     C3 1637  16.803  29.261  12.432 -0.3206 -0.0093 -0.1742
  273DDP     C4 1638  16.046  29.477  11.548  0.0503 -0.1475  0.3911
  274DDP     C1 1639  14.188  17.785   5.837  0.0552  0.2642 -0.1041
  274DDP     P1 1640  14.258  17.933   5.521  0.1376  0.0826 -0.0514
  274DDP     P2 1641  14.497  17.858   6.057 -0.1496  0.4205 -0.0951
  274DDP     C2 1642  14.776  18.007   6.374  0.0869  0.0780  0.2309
  274DDP     C3 1643  14.271  17.920   5.055  0.2663  0.2412 -0.0761
  274DDP     C4 1644  13.785  17.715   5.841  0.1409  0.1941  0.0363
  275DDP     C1 1645  24.399  29.333  17.043  0.0845  0.0830  0.2535
  275DDP     P1 1646  24.086  29.114  17.139 -0.2107 -0.0586  0.0805
  275DDP     P2 1647  24.567  29.650  17.318  0.2032  0.2140  0.1131
  275DDP     C2 1648  24.983  29.750  17.498 -0.3467  0.1272  0.2400
  275DDP     C3 1649  24.094  28.695  17.200 -0.0894  0.3050 -0.1189
  275DDP     C4 1650  24.648  29.124  16.773  0.1249  0.0417  0.0355
  276DDP     C1 1651   6.181   9.144  23.654 -0.0674 -0.1320  0.0248
  276DDP     P1 1652   6.382   9.515  23.368  0.0747 -0.1785  0.1240
  276DDP     P2 1653   5.830   8.941  23.726 -0.0927 -0.1447 -0.0682
  276DDP     C2 1654   5.507   8.795  23.453 -0.0298  0.0545 -0.2825
  276DDP     C3 1655   6.629   9.864  23.507  0.2215  0.2951 -0.4986
  276DDP     C4 1656   6.602   9.119  23.765 -0.0261  0.0930  0.2192
  277DDP     C1 1657  16.558  12.968  16.934  0.0675 -0.0832  0.1231
  277DDP     P1 1658  16.738  12.549  16.939  0.2358 -0.1704 -0.3055
  277DDP     P2 1659  16.140  12.737  16.867  0.1590  0.3234  0.0918
  277DDP     C2 1660  15.719  12.541  16.971  0.0404 -0.2741  0.0945
  277DDP     C3 1661  16.586  12.121  17.136 -0.1937 -0.0632 -0.3553
  277DDP     C4 1662  16.554  13.290  16.613 -0.0159 -0.0719 -0.1872
  278DDP     C1 1663   8.974  25.311   6.799 -0.1684  0.0242  0.1222
  278DDP     P1 1664   8.930  25.668   6.467 -0.2152 -0.1252 -0.0633
  278DDP     P2 1665   8.468  25.076   6.705 -0.0455 -0.0559  0.0061
  278DDP     C2 1666   8.065  24.993   6.839  0.0303  0.1736  0.1519
  278DDP     C3 1667   9.153  26.021   6.414 -0.4597  0.1369 -0.0615
  278DDP     C4 1668   9.095  25.412   7.299 -0.0482 -0.0312  0.3616
  279DDP     C1 1669  22.691  26.074  21.736  0.0199 -0.0885  0.0665
  279DDP     P1 1670  22.732  25.826  22.172 -0.0755  0.1553  0.0915
  279DDP     P2 1671  23.118  25.989  21.578  0.4181 -0.3310 -0.1334
  279DDP     C2 1672  23.390  25.639  21.429 -0.1956  0.1652  0.0187
  279DDP     C3 1673  23.075  25.605  22.473  0.1356 -0.4406 -0.0551
  279DDP     C4 1674  22.358  26.314  21.831  0.1664 -0.2088 -0.0212
  280DDP     C1 1675  16.695   8.491  28.635  0.0688  0.2242  0.5519
  280DDP     P1 1676  16.299   8.707  28.681  0.1530 -0.2950  0.2075
  280DDP     P2 1677  16.885   8.214  28.248 -0.3127  0.1011  0.1439
  280DDP     C2 1678  17.063   7.846  28.053  0.0415  0.0987 -0.2672
  280DDP     C3 1679  15.878   8.888  28.669  0.2786 -0.1192  0.0714
  280DDP     C4 1680  16.960   8.387  29.018  0.2712  0.1993  0.0189
  281DDP     C1 1681  15.499  24.230   5.607 -0.0584  0.0811  0.1244
  281DDP     P1 1682  15.513  23.870   5.520 -0.1387  0.1602  0.1058
  281DDP     P2 1683  15.847  24.446   5.418  0.2273 -0.1120  0.0210
  281DDP     C2 1684  16.217  24.622   5.248  0.0732 -0.1866  0.0687
  281DDP     C3 1685  15.690  23.527   5.202  0.0477 -0.0898  0.1964
  281DDP     C4 1686  15.294  24.209   5.935 -0.1904 -0.1515 -0.3824
  282DDP     C1 1687  27.259  10.002   2.012 -0.2403  0.0087 -0.1524
  282DDP     P1 1688  26.835  10.012   1.945  0.1460  0.1413 -0.2458
  282DDP     P2 1689  27.361  10.276   2.351  0.0433 -0.0916 -0.1587
  282DDP     C2 1690  27.804  10.489   2.485  0.0126 -0.0341 -0.3094
  282DDP     C3 1691  26.527  10.343   2.061  0.1536 -0.3377 -0.0612
  282DDP     C4 1692  27.624   9.815   1.661 -0.0430  0.1022  0.0241
  283DDP     C1 1693  25.649  29.578  13.711 -0.2649 -0.1454 -0.4106
  283DDP     P1 1694  25.930  29.441  14.026  0.2231  0.1808 -0.0978
  283DDP     P2 1695  25.718  29.987  13.688 -0.3326  0.2387  0.1644
  283DDP     C2 1696  25.943   0.104  13.626 -0.2195 -0.0902 -0.1856
  283DDP     C3 1697  26.089  29.401  14.365  0.0145 -0.1178  0.0336
  283DDP     C4 1698  25.464  29.204  13.833  0.1944  0.2619  0.2082
  284DDP     C1 1699  20.244  26.131  25.306  0.1814 -0.3248 -0.2226
  284DDP     P1 1700  20.410  25.875  25.164  0.3395  0.0686 -0.1668
  284DDP     P2 1701  20.496  26.539  25.239  0.1351  0.1520  0.0588
  284DDP     C2 1702  20.720  26.879  25.395  0.0569 -0.2055 -0.0991
  284DDP     C3 1703  20.234  25.556  25.025  0.1502 -0.0035 -0.1979
  284DDP     C4 1704  19.906  26.067  25.692  0.2252 -0.1392  0.1278
  285DDP     C1 1705  19.794  26.451  29.079 -0.0690  0.0358 -0.1944
  285DDP     P1 1706  20.051  26.275  28.801  0.1845  0.3312 -0.0197
  285DDP     P2 1707  19.841  26.442  29.513 -0.3535 -0.0363 -0.0437
  285DDP     C2 1708  19.782  26.801  29.818 -0.1750 -0.0004  0.1132
  285DDP     C3 1709  20.252  26.014  28.476  0.1603 -0.2816  0.1095
  285DDP     C4 1710  19.526  26.796  28.857 -0.2518 -0.0014 -0.1384
  286DDP     C1 1711  16.904   1.377  10.216  0.3128  0.3760 -0.2219
  286DDP     P1 1712  17.083   1.022  10.158 -0.0902  0.0029  0.0583
  286DDP     P2 1713  16.841   1.441  10.619 -0.1375  0.2558  0.1402
  286DDP     C2 1714  16.892   1.194  10.958 -0.0431 -0.3061  0.2898
  286DDP     C3 1715  17.521   0.887   9.999  0.0857  0.2530 -0.0112
  286DDP     C4 1716  16.968   1.621   9.815 -0.0662 -0.0616  0.1575
  287DDP     C1 1717   6.721  13.849   3.852  0.5579 -0.1573 -0.2832
  287DDP     P1 1718   6.488  13.761   3.463  0.1633  0.1062  0.1648
  287DDP     P2 1719   6.594  13.809   4.237  0.1375  0.0454 -0.3027
  287DDP     C2 1720   6.841  13.952   4.535  0.0751 -0.2124  0.2736
  287DDP     C3 1721   6.394  13.900   3.071 -0.0095 -0.1191  0.1278
  287DDP     C4 1722   7.117  13.884   3.788 -0.1091  0.3831 -0.1362
  288DDP     C1 1723  16.075  11.229  26.795 -0.0534 -0.0125 -0.1182
  288DDP     P1 1724  16.434  11.025  26.757 -0.0956  0.1134 -0.2148
  288DDP     P2 1725  16.000  11.588  26.616 -0.2232 -0.0021 -0.1255
  288DDP     C2 1726  15.862  11.695  26.244  0.2632  0.1604  0.1855
  288DDP     C3 1727  16.684  10.667  26.827 -0.2192  0.2539  0.3354
  288DDP     C4 1728  15.720  10.938  26.846 -0.0314 -0.0789 -0.0032
  289DDP     C1 1729   6.145  26.321   6.089  0.2235  0.2055 -0.3145
  289DDP     P1 1730   5.839  26.603   6.232 -0.4945 -0.3042 -0.2476
  289DDP     P2 1731   6.156  26.199   5.706 -0.0369 -0.0256  0.1473
  289DDP     C2 1732   6.593  26.148   5.453 -0.2032  0.2135  0.2288
  289DDP     C3 1733   5.453  26.885   6.254 -0.1593 -0.0614 -0.0107
  289DDP     C4 1734   6.495  26.508   6.365  0.1918 -0.2856 -0.0497
  290DDP     C1 1735  29.976   2.660  16.881 -0.1014  0.0883 -0.0685
  290DDP     P1 1736   0.071   2.826  16.909  0.0877 -0.2825 -0.0054
  290DDP     P2 1737  29.777   2.513  17.205  0.0626  0.0503  0.0768
  290DDP     C2 1738  29.675   2.157  17.358  0.0700  0.1169 -0.2127
  290DDP     C3 1739   0.317   3.150  16.948  0.0910 -0.0589  0.1426
  290DDP     C4 1740  29.757   2.625  16.647  0.0114  0.4811  0.0096
  291DDP     C1 1741   8.828   2.265  13.265  0.0398 -0.0432 -0.0136
  291DDP     P1 1742   9.177   2.669  13.253 -0.0792  0.1491 -0.2797
  291DDP     P2 1743   9.014   1.859  13.085 -0.0444 -0.1028  0.1647
  291DDP     C2 1744   8.756   1.536  12.896 -0.1117 -0.0226 -0.3013
  291DDP     C3 1745   9.170   3.075  13.308  0.0059 -0.2495  0.1573
  291DDP     C4 1746   8.449   2.368  13.423 -0.0562 -0.2036 -0.3095
  292DDP     C1 1747   7.441  27.819   6.300  0.1394 -0.3070 -0.1818
  292DDP     P1 1748   7.499  27.724   6.772 -0.1446 -0.0252  0.3305
  292DDP     P2 1749   7.900  27.876   6.121 -0.1862  0.3193  0.1492
  292DDP     C2 1750   8.269  28.204   5.943  0.3235  0.0298  0.2260
  292DDP     C3 1751   7.459  27.735   7.177 -0.1570 -0.0974  0.0541
  292DDP     C4 1752   7.203  28.068   6.141 -0.0343 -0.2148  0.2519
  293DDP     C1 1753  29.404   3.455  15.091 -0.4071  0.1012 -0.0688
  293DDP     P1 1754  29.268   3.321  15.437 -0.1758  0.1019  0.1394
  293DDP     P2 1755  29.061   3.667  14.865 -0.0079  0.2630 -0.3449
  293DDP     C2 1756  28.865   4.077  14.867 -0.0811 -0.1170  0.2263
  293DDP     C3 1757  28.911   3.068  15.576 -0.1480  0.2594 -0.0009
  293DDP     C4 1758  29.726   3.321  14.932 -0.1736  0.0513 -0.0855
  294DDP     C1 1759  20.721  18.544  21.042 -0.1464  0.3865 -0.1497
  294DDP     P1 1760  20.329  18.484  21.246 -0.0920  0.0124  0.1436
  294DDP     P2 1761  20.665  18.091  20.828 -0.0284  0.1968 -0.0819
  294DDP     C2 1762  20.743  17.704  20.916 -0.1028 -0.0366 -0.1452
  294DDP     C3 1763  19.897  18.414  21.282  0.0805  0.0081  0.0168
  294DDP     C4 1764  20.879  18.929  21.049 -0.0085 -0.3238  0.1176
  295DDP     C1 1765  19.155   8.484  20.111 -0.1561  0.1149 -0.1466
  295DDP     P1 1766  19.478   8.300  19.846 -0.0294 -0.1804  0.1662
  295DDP     P2 1767  19.068   8.897  20.108 -0.1623  0.0636 -0.1184
  295DDP     C2 1768  19.197   9.341  20.013  0.0891 -0.4487  0.1880
  295DDP     C3 1769  19.946   8.392  19.962 -0.1110 -0.0732  0.0819
  295DDP     C4 1770  19.094   8.119  20.448  0.1445  0.1016  0.3909
  296DDP     C1 1771  16.358  19.076  28.985 -0.0666  0.3771  0.1219
  296DDP     P1 1772  15.948  19.206  29.336 -0.2020 -0.0157 -0.2166
  296DDP     P2 1773  16.752  19.263  28.954 -0.2102  0.3233  0.0819
  296DDP     C2 1774  17.211  19.188  28.672 -0.1254 -0.2633 -0.2442
  296DDP     C3 1775  15.650  19.317  29.685 -0.1262  0.1505 -0.1179
  296DDP     C4 1776  16.259  18.839  28.556  0.0633 -0.1214  0.1192
  297DDP     C1 1777  11.333   8.132  26.832 -0.0586 -0.0017  0.2042
  297DDP     P1 1778  11.631   7.939  27.119  0.2321  0.0774 -0.1886
  297DDP     P2 1779  11.010   8.065  26.906  0.0654  0.0501 -0.2774
  297DDP     C2 1780  10.696   8.331  26.979  0.0590  0.2512  0.0171
  297DDP     C3 1781  12.089   8.015  27.048 -0.0475 -0.0666 -0.4675
  297DDP     C4 1782  11.485   8.146  26.365  0.1596 -0.0885 -0.4157
  298DDP     C1 1783  18.269   8.814  28.544 -0.0283  0.2688  0.3511
  298DDP     P1 1784  18.073   8.480  28.779 -0.5079 -0.2714  0.3452
  298DDP     P2 1785  18.149   9.142  28.748 -0.1326 -0.0024 -0.3467
  298DDP     C2 1786  18.007   9.542  28.875  0.0280  0.2984 -0.0415
  298DDP     C3 1787  18.170   8.084  28.795 -0.0805  0.0002 -0.0895
  298DDP     C4 1788  18.449   8.754  28.102 -0.0436 -0.1638  0.0258
  299DDP     C1 1789  22.725   4.396   0.097 -0.0737  0.1359  0.0396
  299DDP     P1 1790  23.113   4.480   0.022 -0.2411  0.1915 -0.1990
  299DDP     P2 1791  22.638   4.394   0.499  0.1832  0.1747  0.0161
  299DDP     C2 1792  22.968   4.266   0.751  0.0781  0.3331 -0.2624
  299DDP     C3 1793  23.152   4.582  29.814 -0.0525  0.0408 -0.1592
  299DDP     C4 1794  22.559   4.421  30.056  0.2507  0.1236 -0.3187
  300DDP     C1 1795  28.583  21.726   6.119  0.0010 -0.1775  0.1675
  300DDP     P1 1796  28.543  21.455   6.456 -0.3219  0.3194  0.2082
  300DDP     P2 1797  28.636  21.454   5.723 -0.1281  0.0873 -0.1956
  300DDP     C2 1798  28.631  21.070   5.556 -0.1750 -0.0567 -0.3126
  300DDP     C3 1799  28.090  21.301   6.403  0.0366 -0.0678  0.1451
  300DDP     C4 1800  28.489  22.194   6.138  0.4556 -0.2736 -0.1002
  301DDP     C1 1801   7.184  18.828   5.275  0.0645 -0.0292 -0.1156
  301DDP     P1 1802   7.552  18.575   5.007  0.2888 -0.1093  0.1275
  301DDP     P2 1803   7.047  19.147   4.945  0.0254  0.0991  0.1119
  301DDP     C2 1804   6.850  19.496   4.771  0.0096 -0.1362  0.0321
  301DDP     C3 1805   7.694  18.231   5.201 -0.2276 -0.4895  0.0451
  301DDP     C4 1806   6.884  18.778   5.685 -0.2270 -0.0086 -0.0156
  302DDP     C1 1807  23.320   5.740  28.134  0.2816 -0.0193  0.1521
  302DDP     P1 1808  23.646   5.638  28.322  0.2499  0.0586 -0.1251
  302DDP     P2 1809  23.063   5.527  27.936 -0.0477  0.0560  0.0603
  302DDP     C2 1810  22.709   5.697  27.615 -0.1757 -0.2749  0.0044
  302DDP     C3 1811  23.874   5.634  28.765  0.0271 -0.1360 -0.1408
  302DDP     C4 1812  23.051   5.995  28.412  0.3977 -0.0207 -0.0944
  303DDP     C1 1813  13.446  10.055   1.248 -0.0098 -0.1558 -0.1093
  303DDP     P1 1814  13.658  10.362   1.167 -0.0653  0.0057 -0.2076
  303DDP     P2 1815  13.615   9.759   1.486 -0.2713 -0.0338 -0.1249
  303DDP     C2 1816  13.689   9.339   1.847  0.1106 -0.0812  0.2951
  303DDP     C3 1817  13.955  10.387   0.782  0.3032 -0.1163  0.0683
  303DDP     C4 1818  13.163  10.003   0.974 -0.1691  0.0762 -0.0190
  304DDP     C1 1819   9.986  18.942  27.007  0.1387  0.3018  0.1074
  304DDP     P1 1820   9.744  19.223  26.872  0.2655  0.1233  0.2148
  304DDP     P2 1821   9.730  18.558  26.877  0.3717 -0.0812 -0.0227
  304DDP     C2 1822   9.569  18.164  27.006  0.0519 -0.0649  0.1646
  304DDP     C3 1823   9.552  19.367  26.507 -0.1566 -0.0352  0.0296
  304DDP     C4 1824  10.198  19.000  27.363  0.2740 -0.3153  0.0631
  305DDP     C1 1825  23.076  29.990  25.477  0.4519 -0.0093  0.1631
  305DDP     P1 1826  23.208   0.133  25.438  0.1030 -0.4121  0.0492
  305DDP     P2 1827  23.317  29.616  25.783 -0.1052 -0.3610 -0.0072
  305DDP     C2 1828  23.722  29.525  26.105  0.0800  0.0019  0.3794
  305DDP     C3 1829  23.390   0.397  25.305  0.3540 -0.2492  0.2088
  305DDP     C4 1830  22.669  29.783  25.337  0.2162  0.1652  0.0267
  306DDP     C1 1831  10.005  16.510   4.618  0.1775  0.1898  0.1254
  306DDP     P1 1832   9.765  16.855   4.467  0.0660 -0.0082 -0.0218
  306DDP     P2 1833  10.294  16.246   4.335  0.1224 -0.0972 -0.2057
  306DDP     C2 1834  10.658  16.117   4.197  0.3091 -0.4174 -0.0934
  306DDP     C3 1835   9.428  17.085   4.262  0.0860  0.1782 -0.1546
  306DDP     C4 1836  10.091  16.386   5.005  0.0494 -0.1446 -0.0063
  307DDP     C1 1837   4.624   9.485  27.269 -0.4488 -0.1697 -0.1158
  307DDP     P1 1838   5.003   9.838  27.129 -0.0208 -0.1711 -0.2644
  307DDP     P2 1839   4.318   9.320  26.877 -0.2958  0.2328  0.0244
  307DDP     C2 1840   3.898   9.041  26.765  0.0839 -0.0942 -0.0675
  307DDP     C3 1841   5.108  10.020  26.755 -0.0381 -0.2043  0.0380
  307DDP     C4 1842   4.626   9.213  27.596  0.0020  0.0940 -0.3379
  308DDP     C1 1843  21.598  16.255   7.293 -0.1404  0.2001 -0.0317
  308DDP     P1 1844  21.857  16.274   6.997 -0.0127  0.1717 -0.1432
  308DDP     P2 1845  21.144  16.223   7.339  0.2280  0.1175 -0.1978
  308DDP     C2 1846  20.730  16.315   7.097 -0.3345 -0.0193  0.1769
  308DDP     C3 1847  22.034  16.704   6.909 -0.1328 -0.1515 -0.1669
  308DDP     C4 1848  21.773  16.356   7.763 -0.4525 -0.0510 -0.0680
  309DDP     C1 1849  21.286  19.292  22.605  0.2109 -0.0853 -0.1044
  309DDP     P1 1850  21.753  19.315  22.735 -0.2153  0.0382 -0.0604
  309DDP     P2 1851  21.073  19.483  22.259 -0.0699 -0.2458  0.0402
  309DDP     C2 1852  21.086  19.642  21.810 -0.1034 -0.0241 -0.2499
  309DDP     C3 1853  21.964  19.053  22.961 -0.0686 -0.0192 -0.1316
  309DDP     C4 1854  20.808  19.148  22.692  0.2520 -0.2220 -0.1455
  310DDP     C1 1855   6.610  21.624  11.058  0.1805 -0.1422  0.1585
  310DDP     P1 1856   6.216  21.567  10.947 -0.1585 -0.1978 -0.1093
  310DDP     P2 1857   6.667  21.317  11.477  0.0487  0.0376 -0.1207
  310DDP     C2 1858   6.551  21.007  11.855 -0.2025 -0.0732 -0.2089
  310DDP     C3 1859   5.741  21.454  10.668 -0.0723  0.0429 -0.3633
  310DDP     C4 1860   7.031  21.907  11.073  0.0190  0.0542 -0.0619
  311DDP     C1 1861   0.776   2.011   4.430 -0.0504 -0.4123 -0.1040
  311DDP     P1 1862   1.050   2.383   4.549 -0.3193 -0.2340  0.3687
  311DDP     P2 1863   0.450   2.104   4.227  0.2197 -0.0432  0.0191
  311DDP     C2 1864   0.245   2.422   4.155 -0.0226 -0.1269  0.1931
  311DDP     C3 1865   1.362   2.479   4.258 -0.1206  0.3370 -0.3657
  311DDP     C4 1866   0.814   1.781   4.716 -0.2213 -0.1925  0.1353
  312DDP     C1 1867  16.456  26.370   4.088  0.2209  0.1887 -0.0807
  312DDP     P1 1868  16.645  26.340   3.593  0.2652  0.2298 -0.0692
  312DDP     P2 1869  16.637  26.299   4.486  0.0069 -0.0704  0.1313
  312DDP     C2 1870  16.462  26.441   4.886 -0.1852 -0.5263 -0.0813
  312DDP     C3 1871  16.585  26.581   3.135  0.2105  0.2064 -0.0638
  312DDP     C4 1872  16.102  26.498   4.301  0.2853 -0.1079 -0.1340
  313DDP     C1 1873  20.616   1.340  18.670  0.0770  0.0938 -0.0565
  313DDP     P1 1874  20.535   1.457  18.199  0.3336  0.0224  0.1912
  313DDP     P2 1875  20.462   1.631  18.920  0.0003  0.2700 -0.0989
  313DDP     C2 1876  20.104   1.911  19.168  0.0016  0.1651  0.1436
  313DDP     C3 1877  20.604   1.915  18.001 -0.2551  0.1742 -0.3614
  313DDP     C4 1878  20.793   1.098  18.972 -0.2692 -0.0998  0.2435
  314DDP     C1 1879  12.203  12.234  24.804  0.4153 -0.0200 -0.2005
  314DDP     P1 1880  12.553  12.302  24.708 -0.1442  0.0082 -0.2110
  314DDP     P2 1881  11.766  12.475  24.635  0.2567 -0.1241 -0.3138
  314DDP     C2 1882  11.671  12.767  24.317  0.1299 -0.4411 -0.0804
  314DDP     C3 1883  12.899  12.480  24.616  0.1237  0.1253 -0.0835
  314DDP     C4 1884  12.079  11.799  24.839  0.2000 -0.0579 -0.1848
  315DDP     C1 1885  25.315   3.650  21.866 -0.3406 -0.2183 -0.1157
  315DDP     P1 1886  25.584   3.821  22.176  0.3285 -0.1588 -0.1856
  315DDP     P2 1887  25.263   3.659  21.450  0.2737 -0.1311  0.0613
  315DDP     C2 1888  25.107   3.642  20.958 -0.1037 -0.4898 -0.1267
  315DDP     C3 1889  25.574   3.853  22.619 -0.0608  0.0108 -0.0373
  315DDP     C4 1890  25.420   3.283  22.045  0.1983 -0.1214 -0.1671
  316DDP     C1 1891  19.661   4.629  10.872  0.3391 -0.2225 -0.1262
  316DDP     P1 1892  20.089   4.486  10.651  0.1594  0.0974  0.2206
  316DDP     P2 1893  19.754   4.862  11.161 -0.2137  0.1138 -0.0963
  316DDP     C2 1894  19.634   5.274  11.049 -0.2126  0.0363  0.1771
  316DDP     C3 1895  20.310   4.206  10.494 -0.5358  0.2851 -0.0062
  316DDP     C4 1896  19.230   4.498  10.643 -0.2312 -0.1449  0.2784
  317DDP     C1 1897  11.916   0.275   5.466 -0.1221 -0.2014 -0.3700
  317DDP     P1 1898  12.191   0.405   5.766 -0.1931 -0.0174 -0.2599
  317DDP     P2 1899  11.625  30.230   5.484 -0.1454 -0.0564  0.2578
  317DDP     C2 1900  11.625  29.884   5.611  0.2033  0.0531 -0.1375
  317DDP     C3 1901  12.244   0.431   6.151  0.1666 -0.3558  0.2766
  317DDP     C4 1902  12.015   0.331   5.113 -0.0395  0.0381  0.1426
  318DDP     C1 1903  11.586   6.745  15.815  0.0879 -0.0640 -0.0262
  318DDP     P1 1904  11.745   6.421  15.827  0.1248  0.0562  0.0914
  318DDP     P2 1905  11.140   6.838  15.637 -0.1545 -0.0242  0.2361
  318DDP     C2 1906  10.985   7.219  15.483  0.3289 -0.0262  0.2755
  318DDP     C3 1907  11.814   6.128  15.396  0.2191  0.2430 -0.1865
  318DDP     C4 1908  11.841   7.041  15.694 -0.1546  0.0816 -0.1925
  319DDP     C1 1909  26.638   4.454   8.058 -0.2717 -0.1470 -0.1954
  319DDP     P1 1910  26.175   4.363   8.087  0.3056 -0.2205 -0.4446
  319DDP     P2 1911  26.686   4.188   7.764  0.0957  0.4180  0.1304
  319DDP     C2 1912  26.798   3.897   7.746 -0.1573  0.1233  0.0628
  319DDP     C3 1913  25.759   4.322   8.036 -0.0460  0.1464  0.0248
  319DDP     C4 1914  26.934   4.745   8.136  0.0939 -0.0760 -0.1451
  320DDP     C1 1915  13.402  11.283  25.124  0.3627  0.0218 -0.0132
  320DDP     P1 1916  12.969  11.352  25.172  0.2960  0.2006 -0.2551
  320DDP     P2 1917  13.867  11.347  25.386  0.0139  0.1778  0.2131
  320DDP     C2 1918  13.870  11.418  25.813 -0.0006 -0.1547 -0.0347
  320DDP     C3 1919  12.613  11.195  25.084  0.2217 -0.0216 -0.2777
  320DDP     C4 1920  13.436  11.351  24.666  0.2016 -0.2695  0.1382
  321DDP     C1 1921  21.814   8.936   8.456  0.2463  0.0466  0.1692
  321DDP     P1 1922  22.142   9.119   8.250  0.0977  0.0281 -0.0872
  321DDP     P2 1923  21.835   8.553   8.619 -0.1640 -0.0338 -0.2314
  321DDP     C2 1924  21.588   8.167   8.853 -0.0375 -0.4462  0.0900
  321DDP     C3 1925  22.458   9.306   8.059  0.0309  0.1261 -0.1400
  321DDP     C4 1926  21.474   9.146   8.122  0.1689 -0.2344  0.2824
  322DDP     C1 1927   5.901  25.848  27.810 -0.2459  0.0312  0.2398
  322DDP     P1 1928   5.756  25.711  27.438  0.0938 -0.0698 -0.0400
  322DDP     P2 1929   6.224  25.761  28.128 -0.1011 -0.1188 -0.0270
  322DDP     C2 1930   6.327  25.812  28.471 -0.3818 -0.4322 -0.1092
  322DDP     C3 1931   5.469  25.423  27.188  0.0721  0.1352 -0.0853
  322DDP     C4 1932   5.628  26.054  28.033 -0.2277  0.3239 -0.1584
  323DDP     C1 1933  27.136   8.762   9.010 -0.0675  0.3853 -0.4188
  323DDP     P1 1934  27.228   8.996   9.340 -0.0097 -0.1535  0.0717
  323DDP     P2 1935  26.923   8.455   9.069  0.0732 -0.1733  0.2701
  323DDP     C2 1936  26.592   8.452   9.197 -0.0310 -0.1082 -0.0068
  323DDP     C3 1937  27.211   9.455   9.369  0.2358  0.1326 -0.3343
  323DDP     C4 1938  27.396   8.880   8.791  0.1015 -0.2485  0.2290
  324DDP     C1 1939  28.803  14.721   4.829  0.0626  0.0075 -0.2291
  324DDP     P1 1940  29.215  14.898   4.857  0.0493  0.1782 -0.0694
  324DDP     P2 1941  28.822  14.683   4.373 -0.0491  0.1654 -0.2460
  324DDP     C2 1942  28.904  14.565   3.951 -0.4566 -0.0639 -0.1262
  324DDP     C3 1943  29.466  15.165   4.678  0.0643 -0.4437 -0.0994
  324DDP     C4 1944  28.554  14.538   5.162  0.2577  0.2216  0.2241
  325DDP     C1 1945  10.577  18.927   9.356  0.3417 -0.0168 -0.1486
  325DDP     P1 1946  10.645  18.737   9.638  0.1866 -0.0447  0.2624
  325DDP     P2 1947  10.276  18.803   9.109 -0.0983 -0.1247 -0.3920
  325DDP     C2 1948   9.831  18.581   8.999 -0.1182  0.1751 -0.2762
  325DDP     C3 1949  10.698  18.695  10.080 -0.0702  0.2293  0.1504
  325DDP     C4 1950  10.814  19.297   9.345  0.0530 -0.1439  0.2952
  326DDP     C1 1951  25.200  16.406   3.737 -0.4553 -0.1674 -0.0457
  326DDP     P1 1952  25.147  16.149   4.151 -0.0054  0.0339 -0.1016
  326DDP     P2 1953  25.503  16.342   3.412  0.3650  0.2838  0.2885
  326DDP     C2 1954  25.808  16.280   3.077 -0.1322  0.1780 -0.1639
  326DDP     C3 1955  24.854  15.919   4.425 -0.1753 -0.1263  0.0146
  326DDP     C4 1956  24.939  16.683   3.704 -0.0599  0.0528  0.1016
  327DDP     C1 1957  25.051   6.341  28.128  0.0963 -0.1908  0.0857
  327DDP     P1 1958  24.994   6.284  27.742  0.0569 -0.3111  0.4342
  327DDP     P2 1959  25.365   6.427  28.339 -0.1807 -0.0395  0.2232
  327DDP     C2 1960  25.674   6.597  28.694 -0.0220 -0.1189 -0.1918
  327DDP     C3 1961  24.911   6.007  27.360  0.1814 -0.2922  0.0077
  327DDP     C4 1962  24.638   6.374  28.336 -0.0907 -0.1017 -0.0431
  328DDP     C1 1963   3.171  16.829   9.023  0.0477  0.0591  0.0007
  328DDP     P1 1964   2.803  16.680   9.112  0.3218 -0.3068  0.2244
  328DDP     P2 1965   3.444  16.673   8.774 -0.1138 -0.1678 -0.0109
  328DDP     C2 1966   3.535  16.222   8.696 -0.1028  0.1115  0.0287
  328DDP     C3 1967   2.344  16.699   8.993  0.1602 -0.0318 -0.0335
  328DDP     C4 1968   3.072  17.123   9.273 -0.2461  0.2674 -0.3192
  329DDP     C1 1969  24.927   2.889  13.271 -0.0808 -0.0996 -0.1230
  329DDP     P1 1970  24.787   3.191  13.612 -0.3754  0.0394  0.2329
  329DDP     P2 1971  24.743   2.806  12.996  0.1812  0.0578  0.1225
  329DDP     C2 1972  24.804   2.667  12.525 -0.0822 -0.0636  0.3175
  329DDP     C3 1973  24.425   3.472  13.586 -0.0028  0.2869  0.2115
  329DDP     C4 1974  25.306   2.782  13.476 -0.2027 -0.0103 -0.1385
  330DDP     C1 1975   2.007  12.739   3.090 -0.3075  0.1093  0.1271
  330DDP     P1 1976   2.432  13.014   3.135 -0.0980  0.2219 -0.0016
  330DDP     P2 1977   1.745  12.902   2.996 -0.0905 -0.1534 -0.1777
  330DDP     C2 1978   1.565  13.124   3.245 -0.0281  0.2126  0.0149
  330DDP     C3 1979   2.929  13.062   3.159 -0.2617 -0.2105  0.1602
  330DDP     C4 1980   2.034  12.294   3.310  0.0114 -0.2211  0.3066
  331DDP     C1 1981  14.496   7.186  20.311 -0.2565 -0.0219 -0.0456
  331DDP     P1 1982  14.546   7.366  19.878  0.0350 -0.2124 -0.1587
  331DDP     P2 1983  14.326   7.436  20.617 -0.0013 -0.2918 -0.0725
  331DDP     C2 1984  14.048   7.705  20.859  0.2844  0.1529  0.2099
  331DDP     C3 1985  14.575   7.724  19.727  0.1309 -0.0087  0.0567
  331DDP     C4 1986  14.469   6.719  20.275  0.0231  0.1341 -0.1039
  332DDP     C1 1987  27.154   2.712  15.625  0.0057  0.0653  0.0960
  332DDP     P1 1988  27.271   3.157  15.355 -0.2692  0.4084 -0.1067
  332DDP     P2 1989  26.693   2.731  15.622  0.2626 -0.1138 -0.1012
  332DDP     C2 1990  26.288   2.668  15.414  0.0924 -0.1355  0.1590
  332DDP     C3 1991  27.164   3.276  15.002 -0.1214 -0.2597 -0.3924
  332DDP     C4 1992  27.470   2.393  15.676 -0.0685 -0.0182  0.2314
  333DDP     C1 1993  23.062   2.064  21.985 -0.1218  0.0554  0.0552
  333DDP     P1 1994  22.597   2.136  21.961 -0.2650 -0.0472  0.1628
  333DDP     P2 1995  23.229   1.721  22.215 -0.0609  0.0358  0.3943
  333DDP     C2 1996  23.437   1.794  22.663  0.1736 -0.0956  0.0060
  333DDP     C3 1997  22.190   2.116  22.060 -0.0813 -0.1328 -0.1566
  333DDP     C4 1998  23.309   2.255  21.585 -0.0073  0.0752  0.3859
  334DDP     C1 1999  27.092  25.356  22.230 -0.2250  0.3752 -0.0651
  334DDP     P1 2000  27.319  25.511  22.466  0.0038  0.0263  0.2457
  334DDP     P2 2001  26.756  25.597  22.077 -0.2412  0.1618 -0.2267
  334DDP     C2 2002  26.536  26.046  21.985  0.1102  0.0650  0.2798
  334DDP     C3 2003  27.394  25.486  22.862  0.0543  0.2258 -0.2080
  334DDP     C4 2004  27.258  25.084  22.012  0.2565 -0.0790  0.0433
  335DDP     C1 2005  25.757  19.435  12.132  0.0292  0.1951  0.1662
  335DDP     P1 2006  25.936  19.608  11.788 -0.0056 -0.1403  0.0463
  335DDP     P2 2007  26.088  19.267  12.435  0.0978  0.0816  0.0326
  335DDP     C2 2008  26.191  19.103  12.784 -0.3601 -0.0627 -0.0497
  335DDP     C3 2009  25.669  19.706  11.436 -0.1782 -0.0914 -0.0991
  335DDP     C4 2010  25.367  19.421  12.240  0.1831 -0.1411  0.1927
  336DDP     C1 2011  23.756   8.436  16.605 -0.1448 -0.1487 -0.1173
  336DDP     P1 2012  23.407   8.506  16.414  0.2233  0.0868 -0.4283
  336DDP     P2 2013  23.863   8.061  16.680  0.1311  0.0661 -0.2098
  336DDP     C2 2014  24.279   7.914  16.870  0.1739 -0.0241 -0.0708
  336DDP     C3 2015  23.107   8.695  16.535  0.1472  0.1545 -0.1394
  336DDP     C4 2016  24.010   8.796  16.633 -0.0426 -0.0449  0.2533
  337DDP     C1 2017   4.053  26.714   2.729  0.2128 -0.2961 -0.3023
  337DDP     P1 2018   4.203  26.915   3.129 -0.0250 -0.4829 -0.1259
  337DDP     P2 2019   3.699  26.694   2.600  0.0947 -0.1171  0.1885
  337DDP     C2 2020   3.479  26.374   2.651  0.2427  0.1362  0.0142
  337DDP     C3 2021   4.121  27.261   3.392 -0.2024 -0.0864 -0.0970
  337DDP     C4 2022   4.160  26.327   2.763 -0.1427 -0.0216 -0.0042
  338DDP     C1 2023  21.815  25.031  23.832 -0.1632 -0.0065  0.0113
  338DDP     P1 2024  21.839  24.509  23.873 -0.0154  0.0174  0.0033
  338DDP     P2 2025  21.685  25.146  23.349  0.1012 -0.0580 -0.1946
  338DDP     C2 2026  21.259  25.161  23.294 -0.1130  0.3146  0.0267
  338DDP     C3 2027  21.694  24.057  23.711  0.2172  0.2177  0.2553
  338DDP     C4 2028  22.067  25.237  24.186 -0.0234  0.1034 -0.0218
  339DDP     C1 2029  24.932  16.684  17.002  0.0997 -0.0209 -0.2495
  339DDP     P1 2030  24.795  17.035  17.161  0.3079  0.2571  0.1718
  339DDP     P2 2031  24.518  16.400  17.148  0.0649 -0.1608 -0.0327
  339DDP     C2 2032  24.332  15.989  17.261  0.0465  0.1042 -0.0696
  339DDP     C3 2033  24.522  17.383  17.317 -0.0747 -0.1180  0.0982
  339DDP     C4 2034  25.209  16.618  16.577 -0.2709  0.1001 -0.5598
  340DDP     C1 2035   5.449   7.164  28.937  0.1768  0.0221  0.1293
  340DDP     P1 2036   5.412   6.691  29.025 -0.1161 -0.1610  0.0582
  340DDP     P2 2037   5.578   7.634  29.196 -0.0320  0.2672  0.0458
  340DDP     C2 2038   5.470   8.015  29.421 -0.0403 -0.1763 -0.0011
  340DDP     C3 2039   5.512   6.494  29.370  0.0351  0.0195  0.0067
  340DDP     C4 2040   5.152   7.222  28.609  0.0094  0.4026 -0.2170
  341DDP     C1 2041   4.933  25.757  14.384  0.0599  0.0280  0.0739
  341DDP     P1 2042   5.040  25.995  14.199  0.0420  0.0379 -0.2149
  341DDP     P2 2043   5.123  25.570  14.717  0.2082  0.2852  0.0544
  341DDP     C2 2044   5.377  25.195  14.843 -0.2756  0.1404 -0.3085
  341DDP     C3 2045   5.262  26.237  13.919 -0.0941  0.0479 -0.1163
  341DDP     C4 2046   4.691  25.397  14.197  0.1484  0.1965  0.0099
  342DDP     C1 2047  13.920   2.705  15.992 -0.0812 -0.1109 -0.0968
  342DDP     P1 2048  13.858   2.584  15.550  0.0574 -0.0096  0.0428
  342DDP     P2 2049  14.002   3.117  16.163 -0.2004  0.2502 -0.2095
  342DDP     C2 2050  14.285   3.442  16.135 -0.0786  0.4499 -0.2331
  342DDP     C3 2051  13.771   2.181  15.421 -0.5245  0.1915  0.0690
  342DDP     C4 2052  13.892   2.379  16.284 -0.1390 -0.0641  0.1725
  343DDP     C1 2053  13.368   6.787  12.207  0.1666 -0.2573  0.0280
  343DDP     P1 2054  13.599   6.780  11.876  0.2589 -0.1996  0.0715
  343DDP     P2 2055  13.510   6.844  12.651  0.1137 -0.1972 -0.1315
  343DDP     C2 2056  13.715   6.867  13.174  0.1012  0.2288 -0.2618
  343DDP     C3 2057  13.972   6.842  11.508 -0.0356 -0.3163  0.1456
  343DDP     C4 2058  12.893   6.809  12.129 -0.2736 -0.0675 -0.0148
  344DDP     C1 2059  14.826  11.528   7.970 -0.2573 -0.1547  0.1163
  344DDP     P1 2060  15.019  11.542   7.592  0.0562 -0.2290 -0.2022
  344DDP     P2 2061  14.692  11.209   8.251 -0.1351 -0.2720  0.1319
  344DDP     C2 2062  14.848  10.743   8.389  0.3176  0.0004 -0.0950
  344DDP     C3 2063  14.860  11.758   7.109 -0.1550 -0.3333 -0.1902
  344DDP     C4 2064  14.742  11.854   8.032  0.0325 -0.1359  0.1808
  345DDP     C1 2065   0.542   5.730   0.515 -0.0310 -0.0466  0.1049
  345DDP     P1 2066   0.510   5.725   0.085 -0.0176  0.1126 -0.1981
  345DDP     P2 2067   0.562   6.153   0.705 -0.0679 -0.1897  0.1156
  345DDP     C2 2068   0.664   6.361   1.069  0.0366  0.2537  0.1709
  345DDP     C3 2069   0.191   5.922  30.098 -0.1331  0.1205  0.1812
  345DDP     C4 2070   0.256   5.568   0.781 -0.1189 -0.1629  0.2569
  346DDP     C1 2071  11.944  16.940   4.028  0.0352  0.0889 -0.1605
  346DDP     P1 2072  11.862  16.782   3.747 -0.1498  0.0009  0.0978
  346DDP     P2 2073  11.778  17.005   4.379 -0.2839 -0.1705  0.0074
  346DDP     C2 2074  11.696  17.267   4.682 -0.0890  0.0844  0.1189
  346DDP     C3 2075  12.153  16.568   3.419  0.1007  0.2482 -0.1531
  346DDP     C4 2076  12.301  17.147   3.960 -0.0038  0.1804  0.1443
  347DDP     C1 2077   2.501   9.076   8.272  0.0688 -0.2552 -0.1747
  347DDP     P1 2078   2.099   9.043   8.147  0.0891  0.2584  0.0431
  347DDP     P2 2079   2.713   9.403   8.296  0.2519 -0.2382  0.0015
  347DDP     C2 2080   2.647   9.776   8.206 -0.3366 -0.0174 -0.0449
  347DDP     C3 2081   1.705   8.844   8.434  0.3536  0.1364 -0.3574
  347DDP     C4 2082   2.695   8.732   8.526  0.0705  0.0483  0.2219
  348DDP     C1 2083  22.967  24.644   0.638  0.2620 -0.0501  0.1010
  348DDP     P1 2084  23.082  24.636   0.215 -0.0513 -0.2367  0.2349
  348DDP     P2 2085  23.310  24.522   1.026  0.1442 -0.0163  0.1113
  348DDP     C2 2086  23.638  24.819   1.053 -0.1101 -0.1604  0.1062
  348DDP     C3 2087  23.353  24.358  30.253 -0.2197  0.0867 -0.1199
  348DDP     C4 2088  22.618  24.859   0.761  0.2123  0.0311 -0.2579
  349DDP     C1 2089   7.958  27.315  13.485 -0.2008 -0.3364  0.2226
  349DDP     P1 2090   7.934  27.053  13.837  0.0116 -0.1485 -0.0328
  349DDP     P2 2091   7.699  27.479  13.186 -0.1428  0.1026  0.1761
  349DDP     C2 2092   7.551  27.307  12.732 -0.2609 -0.0137  0.0878
  349DDP     C3 2093   8.112  27.143  14.240  0.1254 -0.0331  0.2201
  349DDP     C4 2094   7.890  27.639  13.676 -0.0633 -0.2323 -0.1004
  350DDP     C1 2095   1.631  21.069   5.673  0.1082  0.1326  0.0708
  350DDP     P1 2096   1.358  20.753   5.595  0.1290  0.1478 -0.0832
  350DDP     P2 2097   1.396  21.417   5.549 -0.0358 -0.5128 -0.0310
  350DDP     C2 2098   1.321  21.799   5.460  0.3016 -0.1289  0.2646
  350DDP     C3 2099   0.997  20.568   5.808  0.0673 -0.0785  0.0834
  350DDP     C4 2100   2.013  21.012   5.975  0.0766  0.0857 -0.0684
  351DDP     C1 2101  13.692   4.638  16.569 -0.0572 -0.2845  0.2038
  351DDP     P1 2102  13.894   4.838  16.936 -0.1681 -0.1317  0.1202
  351DDP     P2 2103  13.256   4.651  16.547 -0.4051  0.1204  0.2215
  351DDP     C2 2104  12.940   4.690  16.703  0.1231 -0.4655  0.1067
  351DDP     C3 2105  14.065   4.586  17.305  0.2598 -0.2242  0.2276
  351DDP     C4 2106  13.905   4.340  16.483 -0.3328  0.0358  0.2262
  352DDP     C1 2107  23.297  26.058  18.277  0.1031  0.2099  0.0036
  352DDP     P1 2108  22.911  26.207  17.980  0.2210  0.1237 -0.0763
  352DDP     P2 2109  23.111  25.708  18.608  0.0000  0.0811  0.3563
  352DDP     C2 2110  22.832  25.610  18.994 -0.0501  0.0046  0.0203
  352DDP     C3 2111  22.763  26.541  17.865  0.0083  0.1047  0.0211
  352DDP     C4 2112  23.688  26.076  18.138 -0.0013  0.3186  0.0698
  353DDP     C1 2113  15.053  24.522   2.773 -0.0104  0.0666  0.0898
  353DDP     P1 2114  15.083  24.296   3.229  0.1971 -0.0417  0.0637
  353DDP     P2 2115  14.806  24.746   2.697 -0.1393  0.0138 -0.0983
  353DDP     C2 2116  14.558  25.066   2.643  0.0599  0.4705  0.3304
  353DDP     C3 2117  15.254  23.989   3.473  0.1360 -0.0488  0.0497
  353DDP     C4 2118  15.226  24.167   2.568  0.0505  0.1706  0.0397
  354DDP     C1 2119  26.832  20.059  12.942 -0.2533  0.1086 -0.2082
  354DDP     P1 2120  26.960  20.127  12.496 -0.0677 -0.2175  0.0928
  354DDP     P2 2121  26.598  20.257  13.298  0.2176 -0.0160 -0.0362
  354DDP     C2 2122  26.293  20.184  13.598  0.0828  0.1542 -0.1159
  354DDP     C3 2123  27.306  20.415  12.400  0.1053  0.2193  0.3055
  354DDP     C4 2124  27.041  19.576  12.980  0.2040 -0.1478 -0.2172
  355DDP     C1 2125  20.174   1.980  14.557  0.1598  0.2396 -0.1232
  355DDP     P1 2126  19.812   1.728  14.792  0.2870 -0.3154  0.0073
  355DDP     P2 2127  20.280   1.909  14.148  0.0354  0.2910 -0.0779
  355DDP     C2 2128  20.165   1.535  13.844  0.2408  0.1762 -0.2027
  355DDP     C3 2129  19.514   1.449  14.913 -0.3290 -0.1457 -0.1420
  355DDP     C4 2130  20.431   2.291  14.570  0.2886  0.4761 -0.0027
  356DDP     C1 2131   6.854  12.948   8.361 -0.1539 -0.0423  0.1917
  356DDP     P1 2132   7.243  12.704   8.492  0.2357 -0.1344 -0.2425
  356DDP     P2 2133   6.463  12.862   8.562 -0.0339 -0.1803 -0.0809
  356DDP     C2 2134   5.951  12.787   8.649 -0.0143  0.1599 -0.0405
  356DDP     C3 2135   7.449  12.334   8.647  0.1881 -0.1327 -0.1613
  356DDP     C4 2136   7.015  13.370   8.104  0.0939  0.1434 -0.3147
  357DDP     C1 2137  24.606  18.935  28.390  0.2338  0.0242  0.0598
  357DDP     P1 2138  24.421  19.279  28.600 -0.1006  0.0385 -0.2119
  357DDP     P2 2139  25.010  19.007  28.517 -0.2157 -0.1741 -0.0840
  357DDP     C2 2140  25.226  19.267  28.900 -0.1050  0.3483  0.0578
  357DDP     C3 2141  24.657  19.252  28.875 -0.0992  0.0738  0.1425
  357DDP     C4 2142  24.525  18.585  28.087 -0.0928  0.1240 -0.0373
  358DDP     C1 2143  16.859  10.339  18.506  0.0527 -0.2288 -0.0405
  358DDP     P1 2144  16.925  10.024  18.268 -0.0969 -0.1182  0.0046
  358DDP     P2 2145  17.122  10.648  18.318 -0.0562 -0.1832 -0.2440
  358DDP     C2 2146  17.294  10.689  17.894 -0.0428 -0.3286  0.1034
  358DDP     C3 2147  17.071   9.608  18.237  0.1992 -0.2182 -0.0056
  358DDP     C4 2148  16.685  10.278  18.908  0.2285 -0.1759 -0.0585
  359DDP     C1 2149  22.384   0.121  14.268 -0.0582 -0.0993  0.0097
  359DDP     P1 2150  21.950   0.052  14.105  0.2510 -0.0164  0.2985
  359DDP     P2 2151  22.401   0.477  14.088 -0.1849 -0.2627  0.0470
  359DDP     C2 2152  22.685   0.740  13.902 -0.0382 -0.1649  0.1128
  359DDP     C3 2153  21.572   0.130  13.787 -0.0135  0.1174 -0.4058
  359DDP     C4 2154  22.697  30.172  14.533  0.1721  0.0774  0.2352
  360DDP     C1 2155  10.487   5.101  12.891 -0.0753 -0.4810  0.3036
  360DDP     P1 2156  10.804   5.064  13.116  0.0025 -0.0993  0.3629
  360DDP     P2 2157  10.323   5.371  12.564 -0.3169  0.3525 -0.1024
  360DDP     C2 2158  10.514   5.501  12.226  0.0061  0.3116  0.1891
  360DDP     C3 2159  11.187   5.015  13.492  0.0447 -0.0943  0.1139
  360DDP     C4 2160  10.340   4.737  12.963  0.1137 -0.0759  0.0647
  361DDP     C1 2161  14.699  14.258   3.557 -0.1434 -0.2954  0.3748
  361DDP     P1 2162  14.808  14.739   3.486 -0.0778  0.2439  0.2333
  361DDP     P2 2163  14.515  13.940   3.308 -0.0870  0.1357  0.0088
  361DDP     C2 2164  14.359  13.838   2.840  0.4215 -0.1443  0.0003
  361DDP     C3 2165  14.638  15.040   3.742  0.0326  0.1385  0.1212
  361DDP     C4 2166  14.907  14.032   3.759  0.0807 -0.4873  0.1167
  362DDP     C1 2167   9.412  10.404  27.610  0.0740 -0.1226 -0.1534
  362DDP     P1 2168   9.059  10.046  27.488 -0.1312  0.2407 -0.1615
  362DDP     P2 2169   9.340  10.775  27.335 -0.4549 -0.1201  0.1313
  362DDP     C2 2170   9.561  11.170  27.322  0.1093 -0.0629  0.0300
  362DDP     C3 2171   8.590   9.987  27.603  0.1989  0.1229 -0.0216
  362DDP     C4 2172   9.716  10.467  27.987 -0.2478  0.0237  0.2461
  363DDP     C1 2173  12.057   0.521  17.715  0.1107 -0.4740  0.1706
  363DDP     P1 2174  11.935   0.686  18.031 -0.2405 -0.0538 -0.1736
  363DDP     P2 2175  12.475   0.565  17.753  0.0641 -0.1365  0.0631
  363DDP     C2 2176  12.875   0.588  17.644  0.1863 -0.2448 -0.2647
  363DDP     C3 2177  11.947   0.869  18.403  0.1036  0.0220  0.3608
  363DDP     C4 2178  11.813   0.174  17.479  0.0908 -0.0772  0.0874
  364DDP     C1 2179   3.555  11.216  12.255  0.0787  0.0067 -0.0545
  364DDP     P1 2180   3.445  11.668  12.236  0.0236  0.0411 -0.3041
  364DDP     P2 2181   3.337  10.882  12.434  0.0767  0.2249  0.1712
  364DDP     C2 2182   3.360  10.476  12.639 -0.4099  0.4798 -0.0274
  364DDP     C3 2183   3.241  11.991  12.478  0.0348  0.2873  0.0038
  364DDP     C4 2184   3.924  11.085  12.115  0.0912  0.1142 -0.0183
  365DDP     C1 2185  24.085  28.562  28.996  0.2219  0.3259 -0.0694
  365DDP     P1 2186  23.732  28.225  29.064  0.2416  0.3910  0.0309
  365DDP     P2 2187  24.147  28.848  28.723 -0.1981 -0.0748 -0.1545
  365DDP     C2 2188  24.385  29.053  28.427 -0.0870 -0.0837 -0.0819
  365DDP     C3 2189  23.642  27.930  29.408  0.0063 -0.3875  0.1656
  365DDP     C4 2190  24.476  28.553  29.097  0.2188  0.0075  0.3651
  366DDP     C1 2191  10.635  20.180   0.280  0.1376  0.1233  0.2872
  366DDP     P1 2192  10.578  20.159   0.720  0.0985  0.2880 -0.2119
  366DDP     P2 2193  10.410  19.876   0.151  0.1392 -0.0888 -0.1002
  366DDP     C2 2194  10.165  19.484   0.080  0.1634  0.2612  0.0002
  366DDP     C3 2195  10.351  19.937   0.999 -0.3932  0.2509 -0.1837
  366DDP     C4 2196  10.488  20.521   0.079 -0.0474 -0.1261 -0.1285
  367DDP     C1 2197  21.573   5.797   1.821 -0.0489  0.1452 -0.0204
  367DDP     P1 2198  21.695   6.101   1.521 -0.0652  0.1390  0.1881
  367DDP     P2 2199  21.238   5.864   2.133  0.1340 -0.0619 -0.1277
  367DDP     C2 2200  20.891   5.678   2.413 -0.0420 -0.0561 -0.1683
  367DDP     C3 2201  21.656   6.452   1.236  0.1563  0.2022  0.1170
  367DDP     C4 2202  21.564   5.300   1.704 -0.0484  0.1833  0.0792
  368DDP     C1 2203  20.581   2.110   1.347 -0.0749  0.1727 -0.4221
  368DDP     P1 2204  20.431   1.577   1.422  0.0074 -0.2077 -0.2517
  368DDP     P2 2205  20.432   2.274   1.778  0.1777  0.2148 -0.2861
  368DDP     C2 2206  20.400   2.332   2.284 -0.2688 -0.0004 -0.1486
  368DDP     C3 2207  20.786   1.246   1.378 -0.3898 -0.2425  0.2311
  368DDP     C4 2208  20.948   2.304   1.176 -0.1974  0.0456  0.1290
  369DDP     C1 2209  24.109  11.242  19.249  0.2516 -0.2579 -0.2038
  369DDP     P1 2210  24.116  11.399  18.828  0.0082 -0.5119  0.0727
  369DDP     P2 2211  24.044  11.493  19.629  0.1170 -0.1353 -0.0729
  369DDP     C2 2212  24.184  11.945  19.894  0.1895 -0.0848 -0.1787
  369DDP     C3 2213  24.426  11.535  18.473  0.2022 -0.0353  0.0566
  369DDP     C4 2214  24.174  10.863  19.334 -0.0095  0.2002  0.0374
  370DDP     C1 2215  30.153  18.297   2.547 -0.2652 -0.1193  0.3409
  370DDP     P1 2216   0.181  18.070   2.439 -0.2992  0.0622  0.0598
  370DDP     P2 2217  29.752  18.124   2.606 -0.1857 -0.1504  0.1071
  370DDP     C2 2218  29.451  17.948   2.894 -0.0160  0.1019 -0.1528
  370DDP     C3 2219   0.181  17.601   2.363  0.0769 -0.1028 -0.5109
  370DDP     C4 2220  30.220  18.694   2.516 -0.1694  0.0129  0.1552
  371DDP     C1 2221  27.550   3.601  25.874 -0.2123 -0.0796 -0.0435
  371DDP     P1 2222  27.234   3.615  25.468 -0.0913 -0.0823  0.1196
  371DDP     P2 2223  27.254   3.434  26.195 -0.4727  0.0277  0.2200
  371DDP     C2 2224  26.941   3.034  26.198 -0.2053  0.1438 -0.1620
  371DDP     C3 2225  27.063   3.694  25.175 -0.1181 -0.5396 -0.0406
  371DDP     C4 2226  28.026   3.478  25.841  0.0318 -0.1150  0.1024
  372DDP     C1 2227   1.335  21.968  19.893 -0.1016 -0.1414  0.1056
  372DDP     P1 2228   1.578  22.081  19.538  0.0222 -0.0749 -0.1713
  372DDP     P2 2229   1.269  21.493  19.678 -0.0130 -0.0418 -0.3431
  372DDP     C2 2230   1.186  21.082  19.651 -0.0590  0.0563 -0.1101
  372DDP     C3 2231   1.534  22.072  19.076  0.4729 -0.1704 -0.4437
  372DDP     C4 2232   1.359  22.129  20.333  0.3584  0.0945 -0.0099
  373DDP     C1 2233   1.099  14.718  22.024  0.1064 -0.1590 -0.0979
  373DDP     P1 2234   0.794  14.890  21.691  0.2011  0.2793  0.1184
  373DDP     P2 2235   0.788  14.721  22.438 -0.0673  0.0319 -0.1562
  373DDP     C2 2236   0.370  14.746  22.554  0.0509 -0.2446  0.5017
  373DDP     C3 2237   0.710  15.150  21.389 -0.4062 -0.3009 -0.0878
  373DDP     C4 2238   1.463  14.636  21.938 -0.1347  0.0597 -0.0422
  374DDP     C1 2239   9.189   2.310  29.727 -0.3319  0.0802  0.0963
  374DDP     P1 2240   8.903   2.705  29.458  0.0998  0.2615  0.0492
  374DDP     P2 2241   9.551   2.071  29.640  0.1477 -0.1015  0.0477
  374DDP     C2 2242  10.058   2.047  29.909  0.2756 -0.0700 -0.2304
  374DDP     C3 2243   8.672   3.062  29.505  0.0682 -0.0887 -0.1012
  374DDP     C4 2244   9.239   2.105  30.170 -0.0149 -0.2035  0.1545
  375DDP     C1 2245  13.999  25.679   1.051  0.1477  0.1732  0.1749
  375DDP     P1 2246  14.366  25.553   1.172  0.1308  0.0856 -0.1776
  375DDP     P2 2247  13.852  25.811   0.556 -0.0858  0.0577  0.0672
  375DDP     C2 2248  13.753  25.841   0.133  0.1760 -0.1267 -0.2109
  375DDP     C3 2249  14.807  25.702   1.177 -0.0161 -0.2650  0.1284
  375DDP     C4 2250  13.844  25.835   1.415 -0.4648  0.1188 -0.2123
  376DDP     C1 2251   5.329  27.650  23.912  0.2321 -0.1867  0.0555
  376DDP     P1 2252   5.290  28.076  24.099 -0.0529 -0.0344  0.2870
  376DDP     P2 2253   5.727  27.487  23.947 -0.1006 -0.0659 -0.1360
  376DDP     C2 2254   5.904  27.081  24.040  0.0347 -0.0438  0.1790
  376DDP     C3 2255   5.291  28.536  24.057 -0.3573  0.0450 -0.0241
  376DDP     C4 2256   5.045  27.557  23.519 -0.3342 -0.4538 -0.1014
  377DDP     C1 2257  21.464   8.897  11.881  0.0260  0.3080 -0.0436
  377DDP     P1 2258  21.297   9.229  11.684 -0.4409 -0.0428 -0.1208
  377DDP     P2 2259  21.263   8.670  12.240  0.1101  0.1769 -0.2179
  377DDP     C2 2260  20.829   8.386  12.255 -0.2819  0.0797  0.0974
  377DDP     C3 2261  20.957   9.538  11.622  0.0500  0.0099  0.2589
  377DDP     C4 2262  21.865   8.722  11.979 -0.0732 -0.2150 -0.1836
  378DDP     C1 2263  27.249  13.383   9.466  0.0974 -0.0931  0.3709
  378DDP     P1 2264  27.676  13.693   9.477 -0.0183 -0.0059  0.2733
  378DDP     P2 2265  26.888  13.571   9.378  0.0153  0.1698  0.0686
  378DDP     C2 2266  26.782  13.956   9.196  0.2241  0.1669  0.4005
  378DDP     C3 2267  27.703  13.964   9.927 -0.0898  0.0385 -0.2792
  378DDP     C4 2268  27.333  12.961   9.414 -0.0996  0.2490 -0.1764
  379DDP     C1 2269   5.190  17.255  19.069 -0.1676  0.0182 -0.0971
  379DDP     P1 2270   5.665  17.062  18.854  0.2158 -0.5693 -0.0378
  379DDP     P2 2271   4.837  16.942  19.174  0.2476  0.3934  0.1216
  379DDP     C2 2272   4.694  16.501  19.253  0.1066 -0.0862 -0.2947
  379DDP     C3 2273   5.981  16.817  18.599 -0.2003  0.1471  0.0533
  379DDP     C4 2274   5.047  17.613  19.249 -0.0184  0.0757 -0.1675
  380DDP     C1 2275  15.101  14.790   2.028  0.1046 -0.1951  0.1533
  380DDP     P1 2276  14.914  14.968   1.646 -0.0942 -0.0535 -0.0967
  380DDP     P2 2277  15.423  14.400   2.038  0.2298  0.4666  0.2479
  380DDP     C2 2278  15.648  14.163   2.395  0.0132 -0.3013 -0.0632
  380DDP     C3 2279  14.972  14.620   1.233 -0.0458 -0.2785 -0.2549
  380DDP     C4 2280  15.242  15.089   2.371  0.0213  0.3841 -0.0261
  381DDP     C1 2281  14.028   1.082   3.309  0.0151  0.0088  0.0929
  381DDP     P1 2282  13.957   0.755   3.044 -0.4257 -0.1442  0.1575
  381DDP     P2 2283  14.183   1.391   3.096 -0.1906  0.2869  0.2117
  381DDP     C2 2284  14.355   1.697   2.836 -0.1897 -0.3499 -0.3733
  381DDP     C3 2285  13.687   0.666   2.850 -0.2538  0.1003 -0.0151
  381DDP     C4 2286  14.160   1.038   3.660  0.3463  0.6739 -0.0362
  382DDP     C1 2287   3.576   7.430   5.875  0.0480 -0.1652 -0.2841
  382DDP     P1 2288   3.641   7.089   5.777  0.0051 -0.3055 -0.0165
  382DDP     P2 2289   3.767   7.482   6.297  0.3740  0.0254 -0.1084
  382DDP     C2 2290   3.682   7.438   6.768  0.0415  0.0289 -0.0345
  382DDP     C3 2291   4.087   7.013   5.611  0.4197 -0.0114  0.1580
  382DDP     C4 2292   3.644   7.770   5.590 -0.2513  0.1482  0.0392
  383DDP     C1 2293  13.670  29.230   3.435  0.1237  0.0856  0.0472
  383DDP     P1 2294  13.890  29.405   3.860  0.3363  0.2911  0.0711
  383DDP     P2 2295  13.871  29.471   3.050  0.0930  0.1156  0.2404
  383DDP     C2 2296  14.094  29.585   2.683 -0.0273 -0.0510 -0.0424
  383DDP     C3 2297  14.112  29.663   4.094 -0.3307  0.2258  0.0520
  383DDP     C4 2298  13.315  29.000   3.505  0.1656 -0.1459  0.0401
  384DDP     C1 2299  14.486  15.000   6.628  0.1756 -0.0550  0.4397
  384DDP     P1 2300  14.543  14.631   6.648  0.0152  0.3106 -0.1077
  384DDP     P2 2301  14.856  15.240   6.576  0.0942  0.0506  0.1114
  384DDP     C2 2302  15.246  15.400   6.516 -0.0781  0.3102 -0.0837
  384DDP     C3 2303  14.829  14.360   6.812 -0.4683 -0.0836  0.1358
  384DDP     C4 2304  14.017  15.157   6.605 -0.1098 -0.1967  0.1255
  385DDP     C1 2305  22.458  13.842   2.255  0.1193 -0.2235 -0.0721
  385DDP     P1 2306  22.525  14.189   1.920  0.0586  0.1329 -0.2355
  385DDP     P2 2307  22.814  14.010   2.464  0.2842 -0.0895 -0.2658
  385DDP     C2 2308  23.234  14.215   2.248 -0.0906  0.0175 -0.0826
  385DDP     C3 2309  22.503  14.604   1.667  0.0540  0.0337  0.1893
  385DDP     C4 2310  22.137  13.578   2.171 -0.0912  0.1207 -0.0445
  386DDP     C1 2311   4.694  12.046  15.214  0.2231 -0.1203 -0.0522
  386DDP     P1 2312   4.650  12.009  14.762  0.0219 -0.0654  0.1316
  386DDP     P2 2313   5.022  12.298  15.391  0.0532  0.1085 -0.0560
  386DDP     C2 2314   5.461  12.231  15.638  0.1366 -0.1659  0.1343
  386DDP     C3 2315   4.670  11.822  14.264  0.0196  0.0060 -0.1266
  386DDP     C4 2316   4.429  11.720  15.401  0.0873  0.1468 -0.2173
  387DDP     C1 2317  25.266   3.311  15.693  0.0732 -0.0420  0.0855
  387DDP     P1 2318  25.124   3.617  15.374  0.1020 -0.3100  0.0110
  387DDP     P2 2319  25.102   2.869  15.729 -0.3322  0.1028 -0.1218
  387DDP     C2 2320  25.232   2.368  15.707 -0.2083 -0.2505 -0.3182
  387DDP     C3 2321  25.066   4.022  15.525  0.0045 -0.1402 -0.0822
  387DDP     C4 2322  25.391   3.449  16.210 -0.0645  0.5585  0.2972
  388DDP     C1 2323  30.152   0.065  27.978 -0.1347 -0.0129  0.2697
  388DDP     P1 2324  29.871   0.101  28.305 -0.0507  0.0963 -0.1782
  388DDP     P2 2325  29.930  30.087  27.644  0.0663 -0.2756 -0.0358
  388DDP     C2 2326  29.877  29.673  27.526 -0.0939 -0.0020 -0.1425
  388DDP     C3 2327  29.464   0.133  28.551 -0.0387  0.0803 -0.2360
  388DDP     C4 2328   0.244   0.249  27.947  0.3210 -0.1359  0.0604
  389DDP     C1 2329   0.119   0.914   4.526  0.0289  0.4095 -0.2860
  389DDP     P1 2330  30.092   1.132   4.468  0.0583  0.2382 -0.0319
  389DDP     P2 2331   0.420   0.786   4.862 -0.1843  0.0254 -0.2744
  389DDP     C2 2332   0.593   0.652   5.280 -0.0900 -0.1497  0.1084
  389DDP     C3 2333  29.697   1.248   4.348  0.2531 -0.0043  0.1210
  389DDP     C4 2334   0.052   0.681   4.217 -0.3267  0.1604 -0.1238
  390DDP     C1 2335   6.673  11.076  18.571  0.1405 -0.2559  0.0049
  390DDP     P1 2336   7.205  11.218  18.702  0.2742  0.2326  0.0459
  390DDP     P2 2337   6.397  11.275  18.858 -0.1829  0.1976 -0.0850
  390DDP     C2 2338   6.194  11.359  19.168  0.0624 -0.4456 -0.1886
  390DDP     C3 2339   7.585  11.317  18.969  0.0115 -0.0778  0.1392
  390DDP     C4 2340   6.535  10.841  18.234 -0.3098 -0.2412  0.1726
  391DDP     C1 2341  11.256   6.817  19.359  0.1834  0.0058 -0.0842
  391DDP     P1 2342  11.271   7.232  19.201 -0.0187  0.0486 -0.1139
  391DDP     P2 2343  11.542   6.428  19.213 -0.1427  0.0427 -0.1570
  391DDP     C2 2344  11.541   6.068  18.986 -0.1302 -0.4205 -0.0834
  391DDP     C3 2345  11.141   7.462  18.796 -0.0423  0.4196  0.0276
  391DDP     C4 2346  10.940   6.715  19.618 -0.0518 -0.2920 -0.0794
  392DDP     C1 2347  11.845  10.925   0.601 -0.2880  0.1519 -0.0806
  392DDP     P1 2348  11.927  11.131   0.991  0.0311  0.0929 -0.1130
  392DDP     P2 2349  11.635  10.594   0.452 -0.1625  0.1898  0.1809
  392DDP     C2 2350  11.608  10.437  30.353 -0.0127 -0.1176  0.2964
  392DDP     C3 2351  12.056  11.097   1.389  0.0330 -0.0352  0.4143
  392DDP     C4 2352  12.065  11.064   0.209  0.4072 -0.2245 -0.1067
  393DDP     C1 2353  18.288   5.718  10.538 -0.0099  0.1933 -0.0260
  393DDP     P1 2354  18.058   5.741  10.966  0.1808  0.0794  0.2567
  393DDP     P2 2355  18.179   5.485  10.121  0.4476 -0.4453 -0.0291
  393DDP     C2 2356  17.908   5.587   9.754 -0.1043  0.0453 -0.0289
  393DDP     C3 2357  17.987   5.984  11.373  0.2512 -0.1328  0.0172
  393DDP     C4 2358  18.629   6.017  10.439  0.3780 -0.2431 -0.0931
  394DDP     C1 2359  10.750  25.093  11.678  0.1894  0.2704 -0.2390
  394DDP     P1 2360  10.822  24.719  11.667 -0.1011  0.1015  0.2096
  394DDP     P2 2361  10.604  25.350  11.351  0.1267 -0.0824  0.0608
  394DDP     C2 2362  10.560  25.819  11.454 -0.2306 -0.0968  0.2558
  394DDP     C3 2363  10.926  24.464  11.970  0.2758  0.0541 -0.0168
  394DDP     C4 2364  10.879  25.133  12.025  0.1305 -0.0459  0.3156
  395DDP     C1 2365  23.933  29.478  23.076  0.1939 -0.0628 -0.1488
  395DDP     P1 2366  23.781  29.505  22.652  0.1942  0.0313  0.0789
  395DDP     P2 2367  23.561  29.490  23.437  0.0097 -0.1261 -0.0883
  395DDP     C2 2368  23.528  29.445  23.794  0.0509  0.1166 -0.1335
  395DDP     C3 2369  23.541  29.164  22.489 -0.6987  0.0153 -0.2355
  395DDP     C4 2370  24.363  29.407  23.271  0.2697  0.2723 -0.3386
  396DDP     C1 2371  23.435   6.470   0.652  0.1375  0.0525  0.0351
  396DDP     P1 2372  23.733   6.716   0.430  0.4440  0.0305  0.0403
  396DDP     P2 2373  23.629   6.033   0.738 -0.1860 -0.1560  0.0365
  396DDP     C2 2374  23.709   5.740   0.314 -0.0027  0.2025 -0.1111
  396DDP     C3 2375  24.082   6.894   0.674  0.1563 -0.0667  0.1038
  396DDP     C4 2376  22.954   6.584   0.625 -0.1295  0.4270 -0.0753
  397DDP     C1 2377  13.460   4.240   1.326  0.1989  0.0699  0.1421
  397DDP     P1 2378  13.793   4.349   1.021 -0.2923  0.0641 -0.0344
  397DDP     P2 2379  13.832   4.096   1.688  0.0991  0.1232  0.0252
  397DDP     C2 2380  14.263   4.327   1.884  0.0191 -0.0969 -0.0686
  397DDP     C3 2381  14.233   4.334   1.206  0.0957  0.1120  0.1133
  397DDP     C4 2382  12.997   4.196   1.214  0.2857  0.2491  0.1102
  398DDP     C1 2383   0.308  27.136  10.905  0.2036  0.1340 -0.2095
  398DDP     P1 2384   0.440  26.784  10.620  0.0101 -0.0664 -0.1004
  398DDP     P2 2385  30.363  27.114  11.311  0.3657  0.0054 -0.3645
  398DDP     C2 2386  30.037  27.016  11.649  0.0334  0.0665  0.2209
  398DDP     C3 2387   0.934  26.744  10.480  0.1014  0.2360  0.2612
  398DDP     C4 2388   0.526  27.576  10.852  0.0243  0.0796  0.2499
  399DDP     C1 2389  24.541  24.046   4.381 -0.0005  0.0084 -0.1953
  399DDP     P1 2390  25.052  23.991   4.330  0.0533  0.3647 -0.0851
  399DDP     P2 2391  24.333  24.244   4.029  0.0050  0.0474 -0.0729
  399DDP     C2 2392  23.877  24.278   3.980 -0.2006  0.1099  0.4135
  399DDP     C3 2393  25.415  23.881   4.251 -0.2587  0.2312 -0.0132
  399DDP     C4 2394  24.336  23.951   4.784 -0.0957 -0.0470  0.0655
  400DDP     C1 2395  28.623  24.193  29.501  0.0083 -0.1219  0.3389
  400DDP     P1 2396  28.992  24.393  29.732  0.0384 -0.1695 -0.1836
  400DDP     P2 2397  28.630  24.301  29.112 -0.0186  0.2226  0.4179
  400DDP     C2 2398  28.586  24.196  28.640  0.0072  0.1242  0.2964
  400DDP     C3 2399  29.091  24.544  30.123  0.1475  0.0428  0.1377
  400DDP     C4 2400  28.424  23.845  29.615 -0.0647 -0.0857 -0.3115
  401DDP     C1 2401  26.177  29.496  10.265 -0.0505  0.3291  0.0209
  401DDP     P1 2402  26.332  29.403  10.644 -0.0825 -0.0063  0.1016
  401DDP     P2 2403  25.973  29.884  10.242  0.1945  0.2566 -0.0293
  401DDP     C2 2404  26.231  -0.052  10.217  0.1097 -0.1533  0.0128
  401DDP     C3 2405  26.670  29.264  10.858  0.0801  0.0466  0.1896
  401DDP     C4 2406  26.464  29.446   9.854 -0.0495 -0.0203  0.1052
  402DDP     C1 2407  19.753  18.102  29.551 -0.0294  0.0916  0.1938
  402DDP     P1 2408  19.479  18.297  29.766 -0.2318 -0.1694 -0.3955
  402DDP     P2 2409  20.048  17.948  29.745  0.1273 -0.0931  0.2484
  402DDP     C2 2410  20.449  17.727  30.024  0.4254  0.2710  0.0730
  402DDP     C3 2411  19.368  18.602  30.099 -0.0059 -0.1097 -0.2933
  402DDP     C4 2412  19.697  17.995  29.171 -0.1497  0.3750  0.1840
  403DDP     C1 2413   1.975  14.030  23.674 -0.1506 -0.3338 -0.0177
  403DDP     P1 2414   2.236  14.368  23.425 -0.1817 -0.0964  0.0563
  403DDP     P2 2415   1.630  14.119  23.684 -0.0634 -0.1658  0.1194
  403DDP     C2 2416   1.340  14.009  23.895 -0.0349 -0.1773 -0.0311
  403DDP     C3 2417   2.090  14.713  23.384 -0.0376  0.0415 -0.2972
  403DDP     C4 2418   2.071  13.660  23.697  0.4225 -0.3926  0.2718
  404DDP     C1 2419  26.048   4.154  15.847  0.0329 -0.1685  0.2593
  404DDP     P1 2420  25.936   4.098  15.404 -0.1935 -0.0254  0.0834
  404DDP     P2 2421  26.476   4.016  15.939  0.2093  0.1157  0.0822
  404DDP     C2 2422  26.727   3.961  16.254 -0.4337  0.1274 -0.1015
  404DDP     C3 2423  26.180   4.118  14.969  0.2239  0.3393  0.0227
  404DDP     C4 2424  25.807   4.505  16.024  0.0135  0.0787 -0.0807
  405DDP     C1 2425  13.257   2.609  30.228  0.0382 -0.1914  0.2055
  405DDP     P1 2426  13.696   2.712  30.000  0.1187 -0.0350 -0.1554
  405DDP     P2 2427  13.163   2.995   0.080 -0.0737  0.1303 -0.2735
  405DDP     C2 2428  12.905   3.388   0.072 -0.2874 -0.0600 -0.0095
  405DDP     C3 2429  14.072   2.511  29.781 -0.1437  0.2674 -0.2582
  405DDP     C4 2430  13.051   2.221   0.141  0.1000 -0.2701 -0.3450
  406DDP     C1 2431  30.261  14.844   2.719 -0.2949 -0.0337  0.2354
  406DDP     P1 2432  29.980  14.700   3.039  0.2575  0.1101 -0.2659
  406DDP     P2 2433  30.173  15.274   2.674  0.1287  0.0644 -0.2402
  406DDP     C2 2434  30.098  15.641   2.940  0.0187  0.1021  0.2289
  406DDP     C3 2435  29.954  14.744   3.499  0.3830 -0.0086 -0.0045
  406DDP     C4 2436   0.146  14.702   2.437 -0.0942  0.1281  0.1383
  407DDP     C1 2437  15.850   6.009  19.087 -0.2382  0.1942 -0.1003
  407DDP     P1 2438  15.701   5.639  19.007 -0.2371  0.2917 -0.1436
  407DDP     P2 2439  15.809   6.327  19.356  0.2774  0.0280  0.2307
  407DDP     C2 2440  15.821   6.457  19.802  0.3296 -0.0429  0.3136
  407DDP     C3 2441  15.323   5.337  18.964  0.0799 -0.1342  0.0813
  407DDP     C4 2442  15.885   6.209  18.680  0.0121 -0.2405  0.0529
  408DDP     C1 2443  16.137  15.864   9.215 -0.2051  0.0605  0.3423
  408DDP     P1 2444  16.237  15.432   9.027  0.0782 -0.2454 -0.0666
  408DDP     P2 2445  15.780  15.925   8.883  0.3917  0.0174  0.0008
  408DDP     C2 2446  15.367  16.122   8.895  0.2032  0.0158 -0.0886
  408DDP     C3 2447  16.130  15.004   9.009 -0.1999  0.0951 -0.1645
  408DDP     C4 2448  16.378  16.050   9.604 -0.1930 -0.2805  0.0106
  409DDP     C1 2449  10.756  18.732  21.187  0.2576 -0.0288 -0.0625
  409DDP     P1 2450  10.881  18.918  21.661 -0.2852 -0.1370  0.1409
  409DDP     P2 2451  10.407  18.426  21.198 -0.2890  0.1494  0.1778
  409DDP     C2 2452  10.373  18.004  21.204 -0.0892  0.0410  0.1472
  409DDP     C3 2453  10.626  18.757  22.021 -0.2566 -0.1641 -0.1277
  409DDP     C4 2454  10.947  18.856  20.818  0.0205 -0.0045  0.1509
  410DDP     C1 2455  22.951  29.914   1.647  0.1153  0.0321 -0.1079
  410DDP     P1 2456  22.612  -0.025   1.529  0.1296 -0.3112 -0.5833
  410DDP     P2 2457  23.071  29.883   2.102  0.0689  0.2182  0.1204
  410DDP     C2 2458  23.303  29.603   2.493 -0.0721  0.2106  0.0540
  410DDP     C3 2459  22.575   0.374   1.410 -0.5823 -0.1964 -0.2543
  410DDP     C4 2460  22.871  29.596   1.488  0.0244 -0.1035  0.2866
  411DDP     C1 2461  19.514  13.677   9.250 -0.1583  0.0174 -0.0841
  411DDP     P1 2462  19.431  13.479   8.886  0.0389  0.2767 -0.0003
  411DDP     P2 2463  19.306  13.788   9.560  0.1226  0.2716  0.2877
  411DDP     C2 2464  19.220  13.795   9.992 -0.2580 -0.1591 -0.2430
  411DDP     C3 2465  19.235  13.750   8.522 -0.0690  0.2589  0.0319
  411DDP     C4 2466  19.818  13.529   9.481  0.3128 -0.1018  0.2676
  412DDP     C1 2467   0.296  11.411  10.785 -0.1756 -0.2129  0.0866
  412DDP     P1 2468   0.407  11.812  10.671 -0.0249 -0.2025  0.4385
  412DDP     P2 2469   0.566  11.117  10.980  0.1232  0.1210  0.1014
  412DDP     C2 2470   0.671  10.716  11.161 -0.3072 -0.0576 -0.0324
  412DDP     C3 2471   0.475  12.275  10.617  0.4052 -0.2181 -0.1325
  412DDP     C4 2472  30.234  11.451  10.878  0.0651  0.1443 -0.0146
  413DDP     C1 2473  18.229  15.836  14.436 -0.0397 -0.2564  0.3464
  413DDP     P1 2474  17.909  15.593  14.475  0.0120 -0.0746 -0.2035
  413DDP     P2 2475  18.640  15.688  14.228 -0.2496 -0.0379 -0.1324
  413DDP     C2 2476  18.896  15.564  13.891  0.0906  0.0110  0.4012
  413DDP     C3 2477  17.689  15.264  14.464 -0.1892 -0.0252  0.0109
  413DDP     C4 2478  18.238  16.156  14.637  0.1218 -0.0691 -0.0847
  414DDP     C1 2479  12.961  18.720  21.256  0.0498 -0.0612  0.2784
  414DDP     P1 2480  13.009  19.137  21.275 -0.0781 -0.0396 -0.0597
  414DDP     P2 2481  13.195  18.538  20.934  0.0234 -0.0463 -0.0849
  414DDP     C2 2482  13.546  18.526  20.624  0.0145 -0.0651  0.0183
  414DDP     C3 2483  13.494  19.180  21.222 -0.0034 -0.2231  0.0033
  414DDP     C4 2484  12.860  18.437  21.562 -0.1560 -0.0090  0.0524
  415DDP     C1 2485  24.179   5.750   6.744  0.1080 -0.1058  0.1544
  415DDP     P1 2486  23.928   5.568   6.450  0.5555  0.1521  0.2944
  415DDP     P2 2487  24.587   5.572   6.701  0.1081  0.0049  0.2125
  415DDP     C2 2488  24.926   5.811   6.601  0.0452 -0.0646 -0.1045
  415DDP     C3 2489  23.540   5.705   6.516 -0.0877 -0.2581  0.0971
  415DDP     C4 2490  24.050   6.000   6.970  0.3778 -0.0568 -0.0596
  416DDP     C1 2491   0.543   0.594   4.128 -0.1242  0.1236  0.1097
  416DDP     P1 2492   0.748   0.737   4.425 -0.0573 -0.0256  0.1910
  416DDP     P2 2493   0.410   1.010   3.975  0.0282  0.1038  0.2410
  416DDP     C2 2494   0.106   1.322   4.114 -0.2478  0.3177 -0.1984
  416DDP     C3 2495   1.197   0.878   4.464 -0.1433  0.1079 -0.1146
  416DDP     C4 2496   0.319   0.242   4.120  0.0186  0.0884 -0.2480
  417DDP     C1 2497  20.939   6.904  10.593 -0.0140  0.0269 -0.1496
  417DDP     P1 2498  20.894   6.454  10.376 -0.0698 -0.0816  0.1312
  417DDP     P2 2499  21.288   6.950  10.817  0.2299  0.0289 -0.1905
  417DDP     C2 2500  21.464   7.222  10.982  0.1820  0.0829  0.0840
  417DDP     C3 2501  20.995   6.054  10.163  0.2225 -0.2729  0.1643
  417DDP     C4 2502  20.961   7.278  10.403 -0.0097 -0.2805 -0.0096
  418DDP     C1 2503  25.102  22.529  22.880 -0.1938 -0.0926  0.0281
  418DDP     P1 2504  25.344  22.838  22.942 -0.0240 -0.2331 -0.1009
  418DDP     P2 2505  25.094  22.056  22.981  0.2583  0.1233 -0.3161
  418DDP     C2 2506  24.886  21.909  23.273  0.3958  0.3268 -0.0249
  418DDP     C3 2507  25.585  23.091  22.986 -0.3873  0.0428 -0.2381
  418DDP     C4 2508  24.840  22.822  22.696 -0.2060  0.1652 -0.2941
  419DDP     C1 2509   5.076  12.815  26.119 -0.2684  0.0250  0.0443
  419DDP     P1 2510   5.412  13.032  25.802  0.0297  0.1463  0.0921
  419DDP     P2 2511   4.719  12.995  26.156 -0.2326 -0.0260 -0.1270
  419DDP     C2 2512   4.399  13.165  26.326  0.1878 -0.0289 -0.0376
  419DDP     C3 2513   5.861  13.034  25.508 -0.2137 -0.1012 -0.0503
  419DDP     C4 2514   5.254  12.463  26.438 -0.2557 -0.2216  0.1292
  420DDP     C1 2515   3.593  13.422   7.428  0.0044 -0.0670 -0.3270
  420DDP     P1 2516   3.316  13.753   7.356  0.0661 -0.3332  0.1837
  420DDP     P2 2517   3.652  13.508   7.928  0.1285  0.0314  0.1867
  420DDP     C2 2518   3.659  13.500   8.455  0.1808  0.1450  0.0924
  420DDP     C3 2519   3.158  14.081   7.021 -0.0498  0.0904  0.0309
  420DDP     C4 2520   3.885  13.205   7.140  0.1413  0.0192  0.2807
  421DDP     C1 2521  24.236  21.913  21.699  0.0182  0.1231 -0.0230
  421DDP     P1 2522  24.423  22.231  21.450 -0.1514  0.1458  0.0982
  421DDP     P2 2523  23.897  21.700  21.499 -0.2927  0.0827  0.1079
  421DDP     C2 2524  23.644  21.424  21.596  0.1007  0.2784  0.2064
  421DDP     C3 2525  24.348  22.523  21.612 -0.0585 -0.0537  0.3108
  421DDP     C4 2526  24.255  21.857  22.181 -0.1076  0.2372  0.1958
  422DDP     C1 2527  27.225  12.639  16.241  0.1324 -0.0395 -0.0775
  422DDP     P1 2528  26.930  12.544  16.447  0.1414 -0.1101 -0.1306
  422DDP     P2 2529  27.531  12.837  16.374 -0.4304 -0.0631  0.3372
  422DDP     C2 2530  27.725  13.029  16.691 -0.0882  0.0715  0.1031
  422DDP     C3 2531  26.962  12.233  16.685 -0.0177 -0.2370  0.2559
  422DDP     C4 2532  27.266  12.343  15.959 -0.1773 -0.0480  0.1742
  423DDP     C1 2533  16.534  11.253   0.589 -0.1501 -0.0722  0.0444
  423DDP     P1 2534  16.800  11.079   0.809 -0.4698  0.0034  0.0945
  423DDP     P2 2535  16.579  11.751   0.629 -0.1082  0.1946  0.1990
  423DDP     C2 2536  16.775  11.946   0.876 -0.0045  0.0436 -0.1717
  423DDP     C3 2537  17.154  10.859   0.973  0.1198  0.1928 -0.0794
  423DDP     C4 2538  16.161  11.162   0.243  0.3679 -0.1213  0.0728
  424DDP     C1 2539  19.558   2.015   1.138 -0.0946 -0.2708  0.1387
  424DDP     P1 2540  19.950   1.617   1.131  0.0086 -0.0636  0.0237
  424DDP     P2 2541  19.579   2.096   0.687  0.0306  0.0369 -0.0336
  424DDP     C2 2542  19.437   1.840   0.295 -0.1518 -0.2556  0.0864
  424DDP     C3 2543  20.377   1.820   0.988 -0.3589 -0.3094  0.1923
  424DDP     C4 2544  19.289   2.220   1.554  0.0064 -0.3570  0.1019
  425DDP     C1 2545  20.491  20.228   7.928  0.0417 -0.2625  0.0377
  425DDP     P1 2546  20.141  20.217   8.104  0.4088 -0.0695 -0.0361
  425DDP     P2 2547  20.841  20.580   7.981  0.2606  0.2534  0.2844
  425DDP     C2 2548  21.063  20.956   7.995 -0.1720  0.1059 -0.2900
  425DDP     C3 2549  19.761  20.302   8.117  0.0072 -0.0109 -0.2473
  425DDP     C4 2550  20.492  19.789   7.751 -0.0872  0.1905 -0.4448
  426DDP     C1 2551  14.410  13.705  17.300 -0.3742  0.2261  0.0094
  426DDP     P1 2552  14.735  13.611  17.058  0.0366  0.1823  0.0563
  426DDP     P2 2553  14.108  13.438  17.557 -0.0169  0.1431  0.2183
  426DDP     C2 2554  13.916  13.098  17.760  0.1812 -0.2888 -0.4332
  426DDP     C3 2555  15.110  13.782  17.195 -0.2682  0.1356 -0.0448
  426DDP     C4 2556  14.378  14.150  17.443 -0.2529  0.0426  0.0518
  427DDP     C1 2557  17.020  14.900  23.374  0.2859  0.2429  0.1801
  427DDP     P1 2558  17.171  14.471  23.472  0.4806  0.2202  0.4224
  427DDP     P2 2559  16.724  15.115  23.457  0.2290 -0.2702 -0.1580
  427DDP     C2 2560  16.754  15.037  23.836  0.0815 -0.2853  0.2885
  427DDP     C3 2561  17.333  14.034  23.633 -0.0381  0.0333 -0.0148
  427DDP     C4 2562  16.732  15.011  22.995  0.0034 -0.0034  0.0948
  428DDP     C1 2563  25.392   8.739  28.265 -0.0458  0.0583  0.1879
  428DDP     P1 2564  25.526   8.391  28.676 -0.1108  0.1064  0.0815
  428DDP     P2 2565  25.177   9.056  28.326 -0.0579  0.0222  0.0196
  428DDP     C2 2566  25.018   9.482  28.435 -0.1293 -0.0242 -0.1568
  428DDP     C3 2567  25.488   8.414  29.182  0.1612  0.1556 -0.0345
  428DDP     C4 2568  25.453   8.676  27.837 -0.2766  0.0585  0.0295
  429DDP     C1 2569  12.745  26.132  12.292 -0.0355 -0.0038  0.0470
  429DDP     P1 2570  13.228  26.020  12.078 -0.1503 -0.1136  0.0042
  429DDP     P2 2571  12.757  26.107  12.783 -0.1796 -0.1446  0.1083
  429DDP     C2 2572  12.810  26.089  13.163  0.2679  0.0842 -0.2345
  429DDP     C3 2573  13.584  26.150  12.195  0.0838  0.2954 -0.5013
  429DDP     C4 2574  12.336  26.070  12.057  0.1490  0.0181 -0.0973
  430DDP     C1 2575  23.550   5.349  24.470  0.0886  0.1382  0.2670
  430DDP     P1 2576  23.526   5.056  24.197  0.3124 -0.2611 -0.1158
  430DDP     P2 2577  23.235   5.343  24.754  0.1390 -0.0713 -0.0196
  430DDP     C2 2578  22.828   5.212  24.754 -0.2735  0.0241  0.2608
  430DDP     C3 2579  23.678   4.892  23.877 -0.0917  0.1104 -0.0684
  430DDP     C4 2580  24.037   5.344  24.501 -0.1640  0.0491  0.1763
  431DDP     C1 2581  19.164  18.002   1.888  0.0155  0.3620 -0.2074
  431DDP     P1 2582  19.198  18.292   1.439  0.2838  0.3584 -0.0420
  431DDP     P2 2583  19.189  18.273   2.280  0.2150  0.3068 -0.2878
  431DDP     C2 2584  19.304  18.526   2.710 -0.1801  0.1467 -0.0477
  431DDP     C3 2585  19.310  18.395   1.048 -0.2535  0.0534 -0.0922
  431DDP     C4 2586  19.347  17.611   1.824 -0.1686  0.0213  0.1091
  432DDP     C1 2587   2.638  25.046  27.932 -0.1369 -0.4256 -0.1933
  432DDP     P1 2588   2.350  24.925  27.561  0.2435 -0.0442  0.2061
  432DDP     P2 2589   2.548  25.000  28.440 -0.2884 -0.1029 -0.0715
  432DDP     C2 2590   2.849  25.204  28.684  0.2300 -0.0400 -0.3574
  432DDP     C3 2591   2.336  25.127  27.214  0.0430 -0.0615 -0.2015
  432DDP     C4 2592   2.741  25.519  27.806 -0.3116  0.1242 -0.3189
  433DDP     C1 2593  18.638  12.748  20.896 -0.1105 -0.0390  0.1792
  433DDP     P1 2594  18.265  12.991  20.894 -0.0831  0.2926  0.0406
  433DDP     P2 2595  18.829  13.168  20.929  0.2989 -0.0759 -0.0362
  433DDP     C2 2596  19.196  13.215  20.851 -0.1177  0.1246 -0.2648
  433DDP     C3 2597  17.935  13.292  21.055  0.0152 -0.1920  0.3365
  433DDP     C4 2598  18.808  12.296  20.825 -0.1282  0.1233  0.0143
  434DDP     C1 2599   0.244  16.743  25.095 -0.1643  0.0615  0.3325
  434DDP     P1 2600   0.543  16.613  25.312 -0.0138  0.0459 -0.1214
  434DDP     P2 2601  30.210  16.711  25.002 -0.2225  0.1768  0.3720
  434DDP     C2 2602  29.825  16.735  25.117  0.2926  0.0120  0.2146
  434DDP     C3 2603   0.915  16.481  25.484 -0.0121  0.2942 -0.1012
  434DDP     C4 2604   0.467  17.000  24.857 -0.1621  0.0445 -0.0527
  435DDP     C1 2605   7.674  21.873  28.794 -0.0044  0.0316 -0.1705
  435DDP     P1 2606   7.737  21.587  29.189  0.1044  0.1752  0.0860
  435DDP     P2 2607   7.424  22.213  28.866 -0.0111  0.3123 -0.0364
  435DDP     C2 2608   7.108  22.279  29.124  0.2934  0.0577  0.0532
  435DDP     C3 2609   7.989  21.463  29.445  0.0509  0.1374  0.0742
  435DDP     C4 2610   7.611  21.710  28.251  0.1721 -0.1415 -0.1760
  436DDP     C1 2611  13.558   1.478  29.974  0.3352  0.3327 -0.0894
  436DDP     P1 2612  13.909   1.769  30.090  0.2770 -0.1366  0.3358
  436DDP     P2 2613  13.712   1.117  29.722 -0.2007 -0.1008  0.1033
  436DDP     C2 2614  13.618   0.911  29.326 -0.0905  0.2486  0.4441
  436DDP     C3 2615  14.226   1.644  30.018  0.3811  0.0816  0.4875
  436DDP     C4 2616  13.188   1.617  29.892  0.1628  0.1145  0.0150
  437DDP     C1 2617  26.799  29.997  16.816  0.0478  0.0430 -0.2750
  437DDP     P1 2618  27.144  30.218  16.658  0.1095 -0.1036  0.3166
  437DDP     P2 2619  26.910  29.692  17.235  0.0679  0.3377  0.0846
  437DDP     C2 2620  26.727  29.594  17.548 -0.1507 -0.0005  0.1603
  437DDP     C3 2621  27.610  30.246  16.510  0.0939  0.1709 -0.4442
  437DDP     C4 2622  26.382  29.921  16.570 -0.3181  0.3675 -0.0690
  438DDP     C1 2623  22.873  13.529  12.099 -0.0364 -0.0045 -0.0374
  438DDP     P1 2624  23.212  13.829  12.009  0.0292 -0.0842 -0.1944
  438DDP     P2 2625  22.868  13.178  11.904  0.3058  0.1860  0.0652
  438DDP     C2 2626  22.854  12.733  11.668  0.1042 -0.1387 -0.3890
  438DDP     C3 2627  23.354  14.282  12.023  0.5212  0.1637 -0.0848
  438DDP     C4 2628  22.504  13.633  12.223 -0.0142 -0.1499  0.3197
  439DDP     C1 2629   3.782  10.372  17.791 -0.0204 -0.0146  0.1948
  439DDP     P1 2630   4.107  10.607  18.000  0.1528  0.0303 -0.0103
  439DDP     P2 2631   3.375  10.475  17.997  0.1954  0.1238 -0.4383
  439DDP     C2 2632   3.040  10.734  18.100 -0.0131  0.2309 -0.2114
  439DDP     C3 2633   4.240  11.037  18.120  0.3062 -0.4094 -0.0474
  439DDP     C4 2634   3.821   9.976  17.546  0.2814 -0.0854  0.3452
  440DDP     C1 2635  22.009  28.450  12.186 -0.1105  0.4181  0.1870
  440DDP     P1 2636  21.943  28.057  12.444 -0.1317 -0.1538 -0.3712
  440DDP     P2 2637  21.799  28.574  11.874 -0.4578 -0.0294 -0.1389
  440DDP     C2 2638  21.686  28.855  11.500 -0.0366  0.1585 -0.0025
  440DDP     C3 2639  21.788  27.721  12.658 -0.2805 -0.0323 -0.2558
  440DDP     C4 2640  22.387  28.700  12.345 -0.0320 -0.1988  0.0340
  441DDP     C1 2641  27.698  16.563  13.335 -0.2909 -0.0063 -0.2570
  441DDP     P1 2642  27.544  16.501  13.005  0.2861 -0.0978  0.1092
  441DDP     P2 2643  28.152  16.537  13.509  0.0715 -0.0232 -0.4081
  441DDP     C2 2644  28.353  16.198  13.718  0.2265  0.0445 -0.1714
  441DDP     C3 2645  27.369  16.703  12.614 -0.0979 -0.1816  0.1448
  441DDP     C4 2646  27.426  16.607  13.753 -0.2042 -0.1295  0.0270
  442DDP     C1 2647  15.112  18.203   5.025 -0.2283  0.0097 -0.1918
  442DDP     P1 2648  15.335  18.535   4.764 -0.2391 -0.3042 -0.1108
  442DDP     P2 2649  15.099  17.980   5.388 -0.4333 -0.0765 -0.1993
  442DDP     C2 2650  15.157  17.525   5.523 -0.0714  0.2316  0.4371
  442DDP     C3 2651  15.295  18.966   4.633  0.0522  0.1404 -0.0751
  442DDP     C4 2652  14.653  18.128   4.928 -0.2110 -0.4360  0.0408
  443DDP     C1 2653  11.222   4.411  17.567  0.1217 -0.4583 -0.1005
  443DDP     P1 2654  11.257   4.015  17.354  0.0451 -0.0633 -0.0697
  443DDP     P2 2655  11.369   4.768  17.193 -0.0729  0.2006 -0.1333
  443DDP     C2 2656  11.616   4.813  16.840 -0.1626 -0.2011  0.0754
  443DDP     C3 2657  11.631   3.883  17.006 -0.0955  0.1633 -0.1313
  443DDP     C4 2658  11.172   4.520  17.979  0.0921  0.0240  0.1132
  444DDP     C1 2659   0.414  19.591   5.090 -0.2823 -0.0709  0.0452
  444DDP     P1 2660   0.864  19.461   5.012 -0.0773 -0.2929  0.2759
  444DDP     P2 2661   0.376  19.889   5.500  0.0496 -0.3290 -0.0806
  444DDP     C2 2662   0.215  20.267   5.717  0.1736  0.0398  0.1060
  444DDP     C3 2663   1.249  19.618   4.780 -0.0868  0.2903  0.3006
  444DDP     C4 2664  30.342  19.574   4.838  0.1511 -0.2392  0.1606
  445DDP     C1 2665   5.716  28.154  13.785  0.1088 -0.1079  0.2108
  445DDP     P1 2666   5.533  27.714  13.765 -0.1757  0.0714 -0.0230
  445DDP     P2 2667   6.185  28.054  13.661 -0.1238  0.4110  0.0740
  445DDP     C2 2668   6.579  27.958  13.447 -0.1152  0.1373 -0.3497
  445DDP     C3 2669   5.455  27.264  13.895  0.0590  0.0027  0.0923
  445DDP     C4 2670   5.349  28.533  13.738  0.1480  0.0510 -0.3623
  446DDP     C1 2671   7.334  25.235  24.795 -0.1288 -0.1790  0.0147
  446DDP     P1 2672   6.949  25.091  24.891  0.0331  0.1338  0.0936
  446DDP     P2 2673   7.591  25.556  24.843  0.1770  0.2490 -0.2112
  446DDP     C2 2674   7.890  26.008  25.030  0.1815  0.2474 -0.2699
  446DDP     C3 2675   6.783  24.582  24.958 -0.1548 -0.2692  0.1282
  446DDP     C4 2676   7.364  25.188  24.445 -0.1789 -0.0852 -0.1606
  447DDP     C1 2677  12.964   9.244  19.592 -0.2288  0.3354 -0.1306
  447DDP     P1 2678  13.168   9.421  19.272  0.0561  0.0295 -0.0089
  447DDP     P2 2679  12.994   8.777  19.477  0.1757  0.2106 -0.1545
  447DDP     C2 2680  12.837   8.374  19.527 -0.3202  0.0633 -0.0833
  447DDP     C3 2681  13.589   9.702  19.343 -0.2252  0.2984 -0.0191
  447DDP     C4 2682  12.587   9.505  19.651  0.1538 -0.2134  0.0212
  448DDP     C1 2683  15.186  28.750  21.330  0.1509 -0.1407  0.0842
  448DDP     P1 2684  15.288  28.561  20.956 -0.0604 -0.0643  0.0558
  448DDP     P2 2685  14.958  29.087  21.303  0.1658 -0.2510  0.1182
  448DDP     C2 2686  14.654  29.519  21.417 -0.2893 -0.1979 -0.0102
  448DDP     C3 2687  15.430  28.158  20.775  0.0139 -0.3090  0.0199
  448DDP     C4 2688  15.461  28.756  21.680 -0.2732 -0.0043 -0.1195
  449DDP     C1 2689  17.523   4.091   9.150 -0.3141 -0.2682  0.0810
  449DDP     P1 2690  17.866   4.161   8.824 -0.2060  0.1633  0.0083
  449DDP     P2 2691  17.045   4.129   9.300  0.1590  0.1622  0.2340
  449DDP     C2 2692  16.838   4.008   9.651 -0.1988  0.1653 -0.2019
  449DDP     C3 2693  18.218   4.289   8.613  0.1601  0.2963 -0.0513
  449DDP     C4 2694  17.713   3.852   9.568  0.0625 -0.3191  0.1295
  450DDP     C1 2695  20.149  29.698  29.901  0.0402  0.2445  0.0518
  450DDP     P1 2696  20.030  29.381  30.224  0.1795  0.0527  0.2156
  450DDP     P2 2697  19.802  30.006  29.797 -0.4956  0.0518 -0.0881
  450DDP     C2 2698  19.602   0.136  29.754 -0.1800  0.0175 -0.2035
  450DDP     C3 2699  19.714  29.548  30.262 -0.0380  0.0002  0.0795
  450DDP     C4 2700  20.431  29.376  29.699  0.0868  0.2053  0.0207
  451DDP     C1 2701  25.015  11.017   5.687 -0.0634  0.0666  0.2858
  451DDP     P1 2702  25.363  11.218   6.015  0.0640 -0.1468  0.0480
  451DDP     P2 2703  25.172  11.259   5.290 -0.1449 -0.0222 -0.1865
  451DDP     C2 2704  25.336  11.596   5.171 -0.3540 -0.0327  0.1690
  451DDP     C3 2705  25.821  11.189   6.092  0.1329 -0.2232 -0.3531
  451DDP     C4 2706  24.575  10.822   5.591 -0.2653 -0.0292  0.0103
  452DDP     C1 2707  17.192  28.906  28.068 -0.1024 -0.0412  0.2168
  452DDP     P1 2708  17.089  28.714  27.769  0.0492  0.2340 -0.1914
  452DDP     P2 2709  17.290  28.677  28.410  0.1047 -0.1033 -0.4065
  452DDP     C2 2710  17.496  28.624  28.885  0.1369 -0.1178 -0.0135
  452DDP     C3 2711  16.696  28.510  27.557  0.0266 -0.1322 -0.1658
  452DDP     C4 2712  17.306  29.393  27.991 -0.1218 -0.1770  0.0220
  453DDP     C1 2713  22.051   3.098  17.170 -0.1639 -0.3071 -0.2133
  453DDP     P1 2714  22.271   3.071  16.772 -0.0575 -0.3822 -0.0816
  453DDP     P2 2715  22.007   2.695  17.502 -0.0247 -0.0109  0.2433
  453DDP     C2 2716  22.354   2.522  17.626  0.0362 -0.2015  0.0225
  453DDP     C3 2717  22.392   3.380  16.408  0.2841 -0.2935  0.0757
  453DDP     C4 2718  21.862   3.465  17.101  0.1715  0.1595  0.0099
  454DDP     C1 2719   0.832  16.558   6.533  0.0572  0.0617  0.4481
  454DDP     P1 2720   0.844  16.273   6.238 -0.0387 -0.0442 -0.1809
  454DDP     P2 2721   0.427  16.744   6.526  0.3711 -0.0079 -0.2441
  454DDP     C2 2722  30.378  16.997   6.578  0.2103 -0.1210 -0.1509
  454DDP     C3 2723   0.645  15.901   6.240  0.2649  0.0076 -0.2864
  454DDP     C4 2724   1.178  16.808   6.720  0.0362 -0.0693  0.0383
  455DDP     C1 2725  24.616   6.025  15.039  0.2928  0.0985  0.1138
  455DDP     P1 2726  24.897   6.131  14.741  0.1548  0.1103 -0.1771
  455DDP     P2 2727  24.439   5.688  14.844 -0.1414 -0.1306 -0.2083
  455DDP     C2 2728  24.190   5.274  14.516  0.2604 -0.0500 -0.0064
  455DDP     C3 2729  25.311   6.043  14.498 -0.2723 -0.1911  0.2130
  455DDP     C4 2730  24.274   6.251  15.361  0.3610  0.1744 -0.1145
  456DDP     C1 2731  15.845  16.997  12.458 -0.0681 -0.3043  0.1589
  456DDP     P1 2732  16.202  16.932  12.516  0.0589 -0.1514  0.1412
  456DDP     P2 2733  15.814  16.577  12.379 -0.0516  0.2426  0.1490
  456DDP     C2 2734  16.007  16.229  12.585  0.1609 -0.2130  0.2465
  456DDP     C3 2735  16.516  17.149  12.835 -0.0431  0.0042 -0.0630
  456DDP     C4 2736  15.732  17.425  12.265  0.1907  0.2604 -0.2672
  457DDP     C1 2737  19.953  16.399  27.266 -0.1242 -0.0880 -0.1084
  457DDP     P1 2738  20.212  16.441  27.697 -0.1302 -0.1541 -0.1198
  457DDP     P2 2739  20.149  16.099  27.001 -0.0694  0.0715 -0.0983
  457DDP     C2 2740  20.449  15.907  26.882  0.2825  0.1928  0.0843
  457DDP     C3 2741  20.508  16.438  28.075 -0.1826 -0.2157  0.1796
  457DDP     C4 2742  19.681  16.639  27.140  0.1553  0.2966  0.1163
  458DDP     C1 2743  11.256  24.925  12.866 -0.0370 -0.1140  0.0488
  458DDP     P1 2744  11.210  25.138  12.418  0.1665 -0.2497  0.2475
  458DDP     P2 2745  11.724  24.904  13.050 -0.2810 -0.1962  0.1063
  458DDP     C2 2746  12.091  24.865  13.292  0.0498 -0.4525  0.0012
  458DDP     C3 2747  11.518  25.294  12.113 -0.0238 -0.0962 -0.3172
  458DDP     C4 2748  10.915  24.755  13.020 -0.0538 -0.1773  0.3793
  459DDP     C1 2749  27.259   3.134   7.216 -0.0775  0.0534 -0.0988
  459DDP     P1 2750  26.876   3.047   7.054 -0.1838 -0.0747 -0.2277
  459DDP     P2 2751  27.413   2.868   7.433 -0.2017  0.0901 -0.3266
  459DDP     C2 2752  27.704   2.473   7.373 -0.0481  0.0838  0.1199
  459DDP     C3 2753  26.809   3.096   6.656  0.1647  0.1798  0.0359
  459DDP     C4 2754  27.501   3.365   6.816 -0.0388 -0.0441  0.1337
  460DDP     C1 2755  11.485  30.255  16.179 -0.2626 -0.1523  0.0452
  460DDP     P1 2756  11.530   0.435  16.335  0.0700  0.1108 -0.0243
  460DDP     P2 2757  11.430  30.112  15.808 -0.1452 -0.1181 -0.2371
  460DDP     C2 2758  11.513  30.168  15.313 -0.1136  0.2020 -0.1145
  460DDP     C3 2759  11.798   0.709  16.467  0.1023 -0.1261 -0.5664
  460DDP     C4 2760  11.651  30.069  16.571  0.3838  0.1448 -0.0299
  461DDP     C1 2761   1.758   2.681   2.049 -0.1404  0.2442  0.0867
  461DDP     P1 2762   1.504   2.694   1.663 -0.0096  0.1184 -0.1138
  461DDP     P2 2763   2.170   2.908   2.024 -0.1340  0.1768 -0.1022
  461DDP     C2 2764   2.480   3.230   2.063  0.1023 -0.0695  0.0234
  461DDP     C3 2765   1.517   2.909   1.321 -0.3935  0.0405  0.0774
  461DDP     C4 2766   1.679   2.418   2.362 -0.3386  0.3643 -0.1111
  462DDP     C1 2767   6.716   0.131  16.346  0.0517 -0.0676  0.2324
  462DDP     P1 2768   6.242  30.272  16.265  0.3082  0.0132  0.0352
  462DDP     P2 2769   6.881  30.075  16.497  0.0941 -0.1829  0.1157
  462DDP     C2 2770   7.359  29.892  16.543  0.0915  0.0613  0.0395
  462DDP     C3 2771   5.890  30.216  15.940 -0.2944 -0.4417 -0.1337
  462DDP     C4 2772   6.864   0.568  16.495  0.4147 -0.1316  0.0031
  463DDP     C1 2773   3.497   5.513   4.554 -0.1404 -0.0246 -0.0224
  463DDP     P1 2774   3.213   5.400   4.147  0.0914 -0.0820 -0.0256
  463DDP     P2 2775   3.569   5.949   4.634 -0.0263 -0.3991 -0.0550
  463DDP     C2 2776   3.863   5.992   4.341 -0.1803  0.1722  0.0043
  463DDP     C3 2777   3.062   5.394   3.667  0.1051 -0.2474 -0.1532
  463DDP     C4 2778   3.840   5.163   4.727  0.0308 -0.0292  0.0983
  464DDP     C1 2779  10.256  18.373  18.394  0.1004  0.1303 -0.0172
  464DDP     P1 2780  10.108  18.388  18.854  0.0036  0.2114 -0.2061
  464DDP     P2 2781  10.184  18.576  18.097 -0.0256  0.2303  0.2249
  464DDP     C2 2782  10.264  18.405  17.637  0.2682  0.2085 -0.0706
  464DDP     C3 2783  10.193  18.390  19.248  0.1987 -0.0534  0.1089
  464DDP     C4 2784  10.661  18.247  18.135  0.0928  0.0640 -0.0165
  465DDP     C1 2785  19.853   9.616   3.813 -0.3814  0.1434 -0.0862
  465DDP     P1 2786  19.491   9.709   3.840 -0.2408  0.0312  0.2765
  465DDP     P2 2787  19.940   9.647   4.132  0.4620 -0.1545  0.0115
  465DDP     C2 2788  20.202   9.777   4.486 -0.1168 -0.2163  0.0714
  465DDP     C3 2789  19.103  10.078   3.945 -0.0050  0.2833  0.0027
  465DDP     C4 2790  19.986   9.363   3.560  0.1786 -0.1004  0.2765
  466DDP     C1 2791   8.526   7.078  29.423  0.0869 -0.1598 -0.1242
  466DDP     P1 2792   8.636   7.109  29.895  0.2474 -0.0919  0.2526
  466DDP     P2 2793   8.947   7.126  29.284  0.0573 -0.0064 -0.1132
  466DDP     C2 2794   9.369   6.937  28.971  0.3417  0.2365  0.2650
  466DDP     C3 2795   8.960   7.430  30.080 -0.2301 -0.0526  0.2231
  466DDP     C4 2796   8.319   6.743  29.205 -0.2699 -0.0114  0.0219
  467DDP     C1 2797   9.731   8.779  14.133  0.0062 -0.0741  0.0145
  467DDP     P1 2798   9.409   9.151  14.307  0.1333 -0.1075  0.0376
  467DDP     P2 2799  10.122   8.625  14.343  0.3961  0.1863  0.0617
  467DDP     C2 2800  10.540   8.263  14.407 -0.0166 -0.0505  0.2476
  467DDP     C3 2801   9.065   9.365  14.058  0.3118 -0.1054 -0.1972
  467DDP     C4 2802   9.679   8.604  13.690 -0.1793 -0.1465 -0.0007
  468DDP     C1 2803  24.231   5.669  10.643  0.2211  0.1228 -0.4590
  468DDP     P1 2804  24.469   5.778  10.302  0.0639  0.2051  0.1103
  468DDP     P2 2805  24.152   5.266  10.680  0.1268 -0.0209  0.0549
  468DDP     C2 2806  24.078   4.840  10.523  0.0255  0.0080 -0.0783
  468DDP     C3 2807  24.609   5.472  10.029  0.2901 -0.0602 -0.0851
  468DDP     C4 2808  24.292   5.758  11.122 -0.0762 -0.0315 -0.0428
  469DDP     C1 2809   7.764   5.919   9.406  0.1987 -0.0322  0.0045
  469DDP     P1 2810   7.963   5.808   8.983  0.2118  0.0396 -0.0429
  469DDP     P2 2811   7.247   5.778   9.471 -0.1463  0.1260 -0.0546
  469DDP     C2 2812   6.992   5.368   9.509 -0.0762  0.0122  0.0381
  469DDP     C3 2813   8.161   5.676   8.586 -0.4859  0.1627  0.0696
  469DDP     C4 2814   7.993   6.184   9.594 -0.0832 -0.0198  0.3906
  470DDP     C1 2815  27.456  25.722  15.477 -0.2499 -0.3170 -0.0809
  470DDP     P1 2816  27.132  25.410  15.527 -0.0253  0.2001  0.2289
  470DDP     P2 2817  27.697  25.712  15.097 -0.0961 -0.3127 -0.4695
  470DDP     C2 2818  27.830  26.188  14.957 -0.0256  0.2552 -0.1860
  470DDP     C3 2819  26.846  25.263  15.861  0.0701 -0.3281  0.2149
  470DDP     C4 2820  27.546  25.979  15.931  0.0599  0.0964 -0.1630
  471DDP     C1 2821  16.252  18.072  17.448 -0.1100 -0.0030  0.1531
  471DDP     P1 2822  15.868  18.049  17.241 -0.2479 -0.0111  0.1778
  471DDP     P2 2823  16.058  17.831  17.770  0.0950 -0.1184  0.0867
  471DDP     C2 2824  15.823  17.523  17.889  0.3331  0.1175  0.0094
  471DDP     C3 2825  15.553  17.715  17.339  0.1645  0.2146  0.1236
  471DDP     C4 2826  16.594  18.354  17.546  0.2145  0.2217  0.0109
  472DDP     C1 2827  22.288  22.213   2.154  0.2648 -0.1948  0.1927
  472DDP     P1 2828  21.980  22.566   2.101  0.1962  0.1397 -0.1980
  472DDP     P2 2829  22.729  22.219   2.355  0.2438 -0.3151  0.3033
  472DDP     C2 2830  23.080  22.464   2.218 -0.2075 -0.3125  0.4182
  472DDP     C3 2831  22.208  22.981   2.116  0.3712  0.1096  0.1223
  472DDP     C4 2832  22.179  21.897   1.812 -0.0968 -0.0513 -0.2085
  473DDP     C1 2833  22.534  11.475   3.810  0.1239  0.0999 -0.3967
  473DDP     P1 2834  22.374  11.830   4.022 -0.0086  0.0928  0.0885
  473DDP     P2 2835  22.329  11.569   3.419  0.1875  0.1296 -0.1660
  473DDP     C2 2836  22.160  11.864   3.186 -0.1875  0.1304 -0.1359
  473DDP     C3 2837  22.409  12.248   4.144 -0.2385  0.2530  0.0807
  473DDP     C4 2838  22.885  11.013   3.784  0.2125  0.1924  0.1499
  474DDP     C1 2839  18.238  11.602  30.282  0.2680 -0.2384  0.0814
  474DDP     P1 2840  18.656  11.355  30.090 -0.0795 -0.0053 -0.0537
  474DDP     P2 2841  18.196  11.701   0.347 -0.0651 -0.0196 -0.1439
  474DDP     C2 2842  18.074  11.549   0.686  0.0607 -0.1668 -0.3216
  474DDP     C3 2843  18.721  10.873  29.946  0.0049  0.3077  0.4078
  474DDP     C4 2844  17.939  11.865  30.030 -0.1520  0.1461  0.0200
  475DDP     C1 2845  22.354   6.959   3.388  0.0263 -0.2963 -0.1335
  475DDP     P1 2846  22.608   6.828   3.008 -0.2992 -0.0782 -0.1810
  475DDP     P2 2847  22.272   7.382   3.175 -0.4314  0.0194  0.3196
  475DDP     C2 2848  22.187   7.715   2.987  0.2465  0.2654 -0.2206
  475DDP     C3 2849  22.892   7.078   2.688  0.1732  0.0413 -0.0770
  475DDP     C4 2850  22.200   6.862   3.808 -0.2881  0.0452 -0.1997
  476DDP     C1 2851  22.307  19.930  28.759  0.1142 -0.1721 -0.3658
  476DDP     P1 2852  21.913  19.598  28.705  0.1866  0.0495 -0.1094
  476DDP     P2 2853  22.220  20.315  28.880 -0.0163  0.1640 -0.1380
  476DDP     C2 2854  22.058  20.750  28.764 -0.4638  0.0482  0.2827
  476DDP     C3 2855  21.608  19.815  28.609 -0.1850  0.0035 -0.4316
  476DDP     C4 2856  22.645  19.900  28.535 -0.2668  0.2384  0.4169
  477DDP     C1 2857  30.110  26.991   2.558  0.5795 -0.0152  0.0614
  477DDP     P1 2858  29.789  26.946   2.248  0.1208  0.1314 -0.1672
  477DDP     P2 2859   0.223  27.021   2.530 -0.2055  0.1497  0.0210
  477DDP     C2 2860   0.627  27.110   2.249  0.3875  0.0719 -0.1741
  477DDP     C3 2861  29.411  26.734   2.222 -0.1945 -0.0778  0.0245
  477DDP     C4 2862  29.968  26.839   3.001  0.0339 -0.3922 -0.0059
  478DDP     C1 2863   0.715  19.917  12.184  0.0955 -0.1247 -0.2591
  478DDP     P1 2864   0.552  20.095  12.526 -0.1306 -0.1135 -0.1862
  478DDP     P2 2865   1.097  20.007  12.074 -0.0451 -0.2904 -0.1520
  478DDP     C2 2866   1.296  19.921  11.646 -0.2041 -0.1403  0.4867
  478DDP     C3 2867   0.402  20.191  12.882  0.1173 -0.2678  0.0268
  478DDP     C4 2868   0.396  19.870  11.934 -0.1236 -0.1824  0.0897
  479DDP     C1 2869  24.624  18.591  20.580  0.1047 -0.2743  0.1253
  479DDP     P1 2870  24.457  18.673  20.984  0.2787  0.0293  0.0272
  479DDP     P2 2871  24.849  18.280  20.794  0.2975 -0.0934 -0.0042
  479DDP     C2 2872  24.691  18.161  21.242  0.2662  0.4507 -0.0566
  479DDP     C3 2873  24.250  18.703  21.196  0.0547 -0.1534  0.1058
  479DDP     C4 2874  24.875  18.744  20.305  0.2406  0.4424  0.3056
  480DDP     C1 2875  14.321  26.487   7.599  0.0808 -0.1315  0.0474
  480DDP     P1 2876  14.312  26.685   7.310 -0.1247  0.1675 -0.0901
  480DDP     P2 2877  14.501  26.086   7.479 -0.0093 -0.1344 -0.1122
  480DDP     C2 2878  14.793  25.800   7.268 -0.3314  0.0186 -0.2037
  480DDP     C3 2879  14.735  26.885   7.211  0.2003 -0.4981  0.2083
  480DDP     C4 2880  14.013  26.506   7.939 -0.1569 -0.1477  0.1115
  481DDP     C1 2881  16.199  19.674  26.247  0.0345  0.1264 -0.1198
  481DDP     P1 2882  16.086  19.607  26.482 -0.2712  0.0185 -0.0487
  481DDP     P2 2883  16.348  19.296  26.063 -0.1562 -0.2488 -0.0895
  481DDP     C2 2884  16.646  18.954  26.151 -0.2239 -0.4590  0.0187
  481DDP     C3 2885  16.003  19.562  26.855  0.1123  0.3654  0.0335
  481DDP     C4 2886  16.077  19.928  25.990  0.0571 -0.0431 -0.1159
  482DDP     C1 2887  24.448  17.565  10.743  0.3778  0.1815  0.0432
  482DDP     P1 2888  24.219  17.784  11.084 -0.0002  0.2285  0.0895
  482DDP     P2 2889  24.582  17.964  10.518  0.0318 -0.2664  0.3870
  482DDP     C2 2890  24.787  18.273  10.405 -0.1366  0.3125  0.1097
  482DDP     C3 2891  24.052  17.738  11.502  0.1222 -0.1023  0.0825
  482DDP     C4 2892  24.517  17.180  10.562  0.1421  0.1414 -0.0735
  483DDP     C1 2893  25.167  20.123  10.541 -0.1766 -0.0945  0.1099
  483DDP     P1 2894  24.876  20.278  10.205 -0.0619 -0.0759 -0.3017
  483DDP     P2 2895  25.204  19.779  10.803  0.1596  0.1073 -0.0756
  483DDP     C2 2896  25.139  19.787  11.208  0.2405 -0.0271  0.0270
  483DDP     C3 2897  24.853  20.218   9.725  0.1552  0.1282 -0.0299
  483DDP     C4 2898  25.522  20.418  10.698  0.2409 -0.2118 -0.0804
  484DDP     C1 2899   9.661   5.248  16.837 -0.0742  0.0439  0.1024
  484DDP     P1 2900   9.443   5.594  17.130  0.0591  0.2373  0.1968
  484DDP     P2 2901   9.594   4.745  16.845 -0.2277 -0.0036  0.1848
  484DDP     C2 2902   9.706   4.368  17.093  0.2003 -0.0719 -0.0389
  484DDP     C3 2903   9.406   5.924  17.503  0.1441 -0.0606  0.1519
  484DDP     C4 2904   9.898   5.422  16.520 -0.2222 -0.0331 -0.0302
  485DDP     C1 2905   8.868  20.679  25.366 -0.1317  0.0634 -0.0303
  485DDP     P1 2906   9.109  20.390  25.375 -0.0613  0.1416 -0.1801
  485DDP     P2 2907   8.509  20.689  25.584  0.0138  0.0296  0.2263
  485DDP     C2 2908   8.306  20.893  25.849 -0.3258  0.2701  0.0861
  485DDP     C3 2909   9.435  20.418  25.543  0.0115  0.2804 -0.0842
  485DDP     C4 2910   8.940  21.012  25.112  0.0308 -0.2128 -0.2475
  486DDP     C1 2911  11.401  19.483  24.314  0.0177  0.1749 -0.0744
  486DDP     P1 2912  11.105  19.202  24.504 -0.0357  0.2918  0.0402
  486DDP     P2 2913  11.773  19.515  24.222 -0.1495  0.0910 -0.1120
  486DDP     C2 2914  12.194  19.556  24.240 -0.1821  0.0553  0.1972
  486DDP     C3 2915  10.708  19.263  24.573 -0.1546  0.3940  0.1554
  486DDP     C4 2916  11.217  19.848  24.149 -0.1628 -0.1277 -0.1225
  487DDP     C1 2917   0.645   3.722  29.412  0.1927 -0.0190  0.0595
  487DDP     P1 2918   0.258   3.935  29.293  0.0053 -0.2699 -0.0950
  487DDP     P2 2919   0.850   3.787  29.855 -0.0748  0.1728 -0.1836
  487DDP     C2 2920   1.024   3.673  30.247 -0.0735  0.0018  0.1409
  487DDP     C3 2921   0.062   4.051  28.899 -0.0940  0.1142 -0.4047
  487DDP     C4 2922   0.944   3.733  29.114 -0.0382 -0.4016 -0.0135
  488DDP     C1 2923  11.862   2.561  22.540 -0.2506 -0.0694  0.0395
  488DDP     P1 2924  12.009   2.168  22.403  0.0387  0.0521 -0.0327
  488DDP     P2 2925  12.283   2.632  22.737  0.1351 -0.0597 -0.1697
  488DDP     C2 2926  12.765   2.708  22.607 -0.1315 -0.2747  0.0843
  488DDP     C3 2927  12.150   1.745  22.384  0.0537  0.0156 -0.1229
  488DDP     C4 2928  11.443   2.738  22.685  0.5344 -0.0853  0.0321
  489DDP     C1 2929  19.356  29.079   6.725  0.0486 -0.2345 -0.0936
  489DDP     P1 2930  19.761  29.074   6.846 -0.2345 -0.0792 -0.3330
  489DDP     P2 2931  19.050  29.038   7.049  0.4440  0.0032 -0.1445
  489DDP     C2 2932  19.058  28.909   7.524  0.0329 -0.0452 -0.3736
  489DDP     C3 2933  19.969  29.466   6.927  0.0857 -0.1224 -0.3008
  489DDP     C4 2934  19.436  29.309   6.401  0.0268  0.0211 -0.1426
  490DDP     C1 2935   6.471  25.563  17.638  0.0364  0.2625  0.1487
  490DDP     P1 2936   6.128  25.373  17.629 -0.1587  0.1950 -0.1795
  490DDP     P2 2937   6.852  25.516  17.408 -0.0457  0.0985 -0.1216
  490DDP     C2 2938   7.328  25.651  17.419  0.1510 -0.0938 -0.3067
  490DDP     C3 2939   5.822  25.023  17.592 -0.3818 -0.1064  0.1741
  490DDP     C4 2940   6.474  25.980  17.804 -0.2494 -0.1989 -0.0078
  491DDP     C1 2941  20.980   2.395   8.538 -0.4370 -0.2258  0.0394
  491DDP     P1 2942  20.718   2.467   8.168 -0.3963 -0.3134 -0.1061
  491DDP     P2 2943  21.125   2.751   8.827  0.0128 -0.0989  0.3634
  491DDP     C2 2944  21.352   3.173   8.939  0.2238  0.0118  0.2167
  491DDP     C3 2945  20.316   2.594   7.906 -0.0625 -0.0622  0.0383
  491DDP     C4 2946  21.190   1.955   8.357 -0.1134 -0.0754 -0.1896
  492DDP     C1 2947  23.919  15.371   9.513 -0.1397 -0.0660 -0.4523
  492DDP     P1 2948  23.893  14.926   9.462 -0.1775  0.2427  0.0785
  492DDP     P2 2949  24.235  15.506   9.174  0.0715 -0.0213 -0.1884
  492DDP     C2 2950  24.160  15.477   8.717 -0.3120 -0.1529 -0.2440
  492DDP     C3 2951  23.905  14.515   9.749  0.1816  0.0579  0.1985
  492DDP     C4 2952  23.641  15.677   9.751 -0.0908  0.2763 -0.3831
  493DDP     C1 2953  24.968  23.654   2.101  0.0250 -0.1078  0.2730
  493DDP     P1 2954  24.854  24.020   2.160  0.0801 -0.0433  0.3306
  493DDP     P2 2955  24.590  23.554   1.893  0.1534  0.1001 -0.0868
  493DDP     C2 2956  24.188  23.415   2.007  0.2986  0.1865  0.0022
  493DDP     C3 2957  24.578  24.247   2.212 -0.0643 -0.1723  0.2693
  493DDP     C4 2958  25.360  23.403   2.093 -0.0470  0.0559 -0.4939
  494DDP     C1 2959  12.110  26.248  13.595 -0.0927 -0.0600 -0.3226
  494DDP     P1 2960  12.539  26.288  13.751 -0.1801  0.1668 -0.2291
  494DDP     P2 2961  11.840  26.080  13.749  0.2095 -0.0184  0.1438
  494DDP     C2 2962  11.467  25.945  13.860  0.1367  0.2891 -0.0408
  494DDP     C3 2963  12.844  26.730  13.822 -0.1442  0.2400  0.0978
  494DDP     C4 2964  11.976  26.476  13.154 -0.0176  0.0270 -0.0573
  495DDP     C1 2965  26.311  21.564  29.114  0.4687 -0.1829 -0.2532
  495DDP     P1 2966  26.411  21.714  29.646 -0.1269  0.1362 -0.3034
  495DDP     P2 2967  26.166  22.019  29.191  0.2733 -0.1137 -0.1686
  495DDP     C2 2968  26.113  22.479  28.983  0.2999 -0.2647 -0.0399
  495DDP     C3 2969  26.840  21.875  29.969 -0.3423  0.0789 -0.4047
  495DDP     C4 2970  26.362  21.438  28.726  0.2525  0.0169  0.0600
  496DDP     C1 2971   9.864  26.048  21.654 -0.0796 -0.1515  0.1082
  496DDP     P1 2972   9.558  25.949  21.282 -0.3722 -0.1039  0.0021
  496DDP     P2 2973   9.936  26.386  21.359 -0.1401 -0.0284  0.0552
  496DDP     C2 2974   9.903  26.664  21.014  0.0286 -0.0595  0.1211
  496DDP     C3 2975   9.467  25.527  21.240  0.0417  0.4903  0.0016
  496DDP     C4 2976   9.851  25.889  22.093  0.0375  0.1531 -0.1855
  497DDP     C1 2977   2.470  30.025   2.242 -0.2069  0.1413 -0.1160
  497DDP     P1 2978   2.668  30.259   1.778  0.0809  0.2111  0.1650
  497DDP     P2 2979   2.792  29.816   2.476 -0.0104 -0.0719  0.0882
  497DDP     C2 2980   3.233  29.824   2.387 -0.1709 -0.0818 -0.0076
  497DDP     C3 2981   2.903   0.355   1.528  0.1866  0.1281 -0.0998
  497DDP     C4 2982   2.045  29.921   2.205  0.0942  0.3307  0.0264
  498DDP     C1 2983   0.863  12.075  10.319 -0.0761  0.2580 -0.0589
  498DDP     P1 2984   0.807  11.577  10.392  0.4434  0.0720  0.1048
  498DDP     P2 2985   1.207  12.268  10.535 -0.3280  0.1893  0.2112
  498DDP     C2 2986   1.445  12.417  10.851 -0.0766 -0.2227 -0.3067
  498DDP     C3 2987   0.434  11.297  10.326 -0.2076  0.0963  0.2127
  498DDP     C4 2988   0.555  12.357  10.011  0.2164 -0.1498  0.0936
  499DDP     C1 2989  13.042  24.534  29.931  0.1375 -0.0173 -0.0334
  499DDP     P1 2990  13.517  24.586  29.890 -0.0433 -0.3899  0.1245
  499DDP     P2 2991  12.782  24.248  29.675  0.1222 -0.0134  0.0374
  499DDP     C2 2992  12.348  24.027  29.622 -0.1852 -0.0856 -0.0649
  499DDP     C3 2993  13.790  24.780  29.594  0.1567  0.1589  0.1229
  499DDP     C4 2994  13.065  24.700   0.149 -0.3968 -0.3049 -0.1457
  500DDP     C1 2995  29.064  10.839  16.343 -0.0252 -0.1248  0.0095
  500DDP     P1 2996  29.039  11.243  16.584 -0.0258  0.1588  0.0430
  500DDP     P2 2997  28.666  10.976  16.056  0.2606 -0.1122 -0.1141
  500DDP     C2 2998  28.617  11.007  15.658 -0.1508 -0.1281  0.4355
  500DDP     C3 2999  28.859  11.665  16.354 -0.1420  0.1414  0.0259
  500DDP     C4 3000  29.327  10.552  16.262  0.0958  0.0189 -0.1723
  501DDP     C1 3001  18.637   7.380  24.557  0.1187  0.2197 -0.0279
  501DDP     P1 3002  19.010   7.245  24.643  0.0520 -0.0164  0.1985
  501DDP     P2 3003  18.497   7.570  24.981 -0.0791 -0.0098 -0.0564
  501DDP     C2 3004  18.183   7.687  25.321 -0.2074 -0.2032 -0.0539
  501DDP     C3 3005  19.384   7.188  24.671  0.1698  0.0426 -0.2060
  501DDP     C4 3006  18.424   7.470  24.139 -0.1115  0.1915  0.1184
  502DDP     C1 3007  15.982  28.081  15.326  0.0793  0.3364 -0.0425
  502DDP     P1 3008  16.012  27.991  15.846 -0.0417  0.0617 -0.2111
  502DDP     P2 3009  15.838  27.592  15.086  0.2569 -0.1852  0.2826
  502DDP     C2 3010  15.746  27.137  15.063  0.3151  0.2227 -0.0232
  502DDP     C3 3011  16.140  27.849  16.252 -0.2984  0.0035 -0.2457
  502DDP     C4 3012  15.986  28.351  15.156  0.0175  0.1579 -0.1102
  503DDP     C1 3013  20.572  29.337  11.157 -0.0026  0.0708  0.1004
  503DDP     P1 3014  20.144  29.202  11.287  0.1669 -0.1631  0.2620
  503DDP     P2 3015  20.948  29.621  11.139 -0.0478  0.3188  0.2416
  503DDP     C2 3016  21.223  29.919  10.942 -0.0898 -0.0521 -0.1371
  503DDP     C3 3017  19.902  28.827  11.209 -0.1941  0.0141 -0.2192
  503DDP     C4 3018  20.807  29.041  10.879  0.1007 -0.0732 -0.1167
  504DDP     C1 3019  13.173  28.341  17.989 -0.4140  0.0186 -0.1041
  504DDP     P1 3020  13.464  28.439  18.314 -0.0014 -0.2554  0.5202
  504DDP     P2 3021  12.783  28.277  18.076 -0.1054  0.1156  0.1095
  504DDP     C2 3022  12.495  28.479  18.380 -0.1598 -0.1076 -0.2147
  504DDP     C3 3023  13.641  28.101  18.559  0.0700 -0.0931  0.1352
  504DDP     C4 3024  13.237  28.491  17.585  0.0221  0.1388 -0.1637
  505DDP     C1 3025  10.277  24.499   6.412 -0.1146  0.0827  0.1646
  505DDP     P1 3026  10.258  24.110   6.595  0.0326  0.2107 -0.1090
  505DDP     P2 3027  10.558  24.852   6.727  0.3467 -0.2680  0.1163
  505DDP     C2 3028  10.832  25.105   6.926  0.2325 -0.1561  0.0124
  505DDP     C3 3029  10.115  23.610   6.707  0.3433 -0.0710  0.0340
  505DDP     C4 3030  10.110  24.861   6.119  0.1494 -0.0443  0.1283
  506DDP     C1 3031  21.415   8.240   2.861  0.2071  0.1192 -0.1953
  506DDP     P1 3032  21.276   7.801   2.866 -0.0856 -0.0602  0.1068
  506DDP     P2 3033  21.095   8.570   2.784  0.2770 -0.0352 -0.0372
  506DDP     C2 3034  20.875   8.822   2.446 -0.0243  0.0572  0.0125
  506DDP     C3 3035  21.028   7.550   3.241 -0.1075  0.0278 -0.0752
  506DDP     C4 3036  21.716   8.400   2.593 -0.3701  0.1008  0.0723
  507DDP     C1 3037  22.895  20.094  19.379  0.1560  0.1503 -0.1847
  507DDP     P1 3038  22.911  20.258  19.832 -0.0654 -0.2208 -0.3167
  507DDP     P2 3039  23.018  20.410  19.139 -0.2465 -0.1324  0.0218
  507DDP     C2 3040  23.073  20.465  18.734 -0.3836 -0.1157  0.0432
  507DDP     C3 3041  22.811  20.653  20.124 -0.1558  0.2025  0.0630
  507DDP     C4 3042  22.669  19.740  19.305 -0.2412 -0.2341 -0.0721
  508DDP     C1 3043   2.830  12.668   6.173  0.4051 -0.2751 -0.0154
  508DDP     P1 3044   2.699  12.299   6.133  0.0878  0.1335 -0.0521
  508DDP     P2 3045   2.925  12.755   6.668 -0.2953  0.0404 -0.1732
  508DDP     C2 3046   2.844  13.030   6.910  0.1987 -0.0595 -0.4265
  508DDP     C3 3047   2.922  12.000   6.373  0.1451 -0.1285 -0.3743
  508DDP     C4 3048   3.034  12.959   5.895  0.1769 -0.0559  0.1949
  509DDP     C1 3049  29.200  13.779  22.710 -0.2426  0.1061 -0.0088
  509DDP     P1 3050  28.827  13.605  22.762  0.0514 -0.0110  0.1778
  509DDP     P2 3051  29.505  14.123  22.956 -0.1773 -0.0781  0.1353
  509DDP     C2 3052  29.640  14.177  23.377 -0.3097  0.3372  0.1349
  509DDP     C3 3053  28.398  13.649  22.478  0.3257  0.1047  0.1923
  509DDP     C4 3054  29.570  13.522  22.563  0.1128 -0.3266  0.0163
  510DDP     C1 3055  22.073   5.198  19.528  0.1569  0.2810  0.0018
  510DDP     P1 3056  22.232   5.317  19.864  0.1773 -0.0031 -0.0299
  510DDP     P2 3057  21.734   5.416  19.471  0.0981  0.4181  0.3459
  510DDP     C2 3058  21.282   5.532  19.554 -0.1070  0.1225  0.0656
  510DDP     C3 3059  22.246   5.349  20.372  0.1861  0.0067 -0.0375
  510DDP     C4 3060  22.286   4.875  19.218  0.1308  0.0357  0.2037
  511DDP     C1 3061  10.819  17.211  28.008 -0.0100  0.0046 -0.2403
  511DDP     P1 3062  11.064  16.883  28.337 -0.0924 -0.1543 -0.2967
  511DDP     P2 3063  10.645  17.682  28.103  0.0488  0.1961  0.3288
  511DDP     C2 3064  10.945  18.098  28.229 -0.2036  0.1285  0.1307
  511DDP     C3 3065  11.243  16.551  28.181  0.0756  0.2311  0.0652
  511DDP     C4 3066  10.678  17.147  27.589  0.0183 -0.2870  0.1437
  512DDP     C1 3067  22.947  12.014  17.620 -0.1094  0.0064 -0.1177
  512DDP     P1 3068  22.603  11.912  17.285  0.3050  0.2602 -0.1130
  512DDP     P2 3069  22.926  11.592  17.950 -0.0490  0.2803  0.2375
  512DDP     C2 3070  22.831  11.445  18.324 -0.2498  0.0059  0.0748
  512DDP     C3 3071  22.322  11.816  16.979 -0.0115  0.1316  0.0327
  512DDP     C4 3072  23.336  12.371  17.470  0.1062 -0.0900  0.0494
  513DDP     C1 3073  11.144  27.362  20.698 -0.0930 -0.0145  0.1378
  513DDP     P1 3074  11.049  27.529  20.515 -0.0305 -0.0234  0.0783
  513DDP     P2 3075  11.613  27.517  20.708 -0.1254 -0.3684 -0.3342
  513DDP     C2 3076  11.932  27.730  20.946  0.1435  0.2693  0.1372
  513DDP     C3 3077  10.805  27.913  20.370  0.2277  0.1900 -0.3357
  513DDP     C4 3078  10.807  27.037  20.870 -0.1922  0.0220 -0.3684
  514DDP     C1 3079  20.792  12.030   4.039 -0.1509  0.0325 -0.0395
  514DDP     P1 3080  20.646  11.732   3.635 -0.2630  0.0276 -0.0502
  514DDP     P2 3081  20.725  11.886   4.438 -0.2799 -0.1384 -0.2137
  514DDP     C2 3082  20.498  11.982   4.697 -0.0921 -0.1423 -0.1407
  514DDP     C3 3083  20.569  11.554   3.285  0.1442  0.0710 -0.2575
  514DDP     C4 3084  21.001  12.339   4.090  0.1927 -0.2854 -0.0323
  515DDP     C1 3085  23.908   4.146  14.299 -0.0088  0.0176  0.0997
  515DDP     P1 3086  23.479   4.213  14.136 -0.1743  0.0014 -0.1008
  515DDP     P2 3087  23.943   4.127  14.768 -0.3346  0.0432  0.2845
  515DDP     C2 3088  23.960   3.857  15.131 -0.0376 -0.0616 -0.1184
  515DDP     C3 3089  23.263   4.458  13.967  0.2018 -0.0576  0.0274
  515DDP     C4 3090  24.236   4.316  13.961  0.1051  0.1157  0.1114
  516DDP     C1 3091  28.977   9.952  28.100 -0.0334 -0.2839 -0.4668
  516DDP     P1 3092  28.739   9.607  28.025 -0.0041 -0.0153  0.3450
  516DDP     P2 3093  28.959  10.377  27.821  0.3768 -0.2086 -0.0496
  516DDP     C2 3094  28.894  10.820  27.493 -0.3479 -0.2711 -0.0878
  516DDP     C3 3095  28.619   9.192  27.832 -0.1103 -0.0136  0.0794
  516DDP     C4 3096  29.141  10.013  28.475 -0.0473  0.0724  0.1160
  517DDP     C1 3097  29.911  19.913  26.082 -0.1239 -0.1003 -0.1997
  517DDP     P1 3098  30.157  20.034  26.410 -0.0442 -0.1057 -0.0417
  517DDP     P2 3099  29.542  19.729  26.233  0.6044  0.1496  0.0276
  517DDP     C2 3100  29.295  19.365  26.057 -0.2384  0.0498 -0.1406
  517DDP     C3 3101   0.094  20.233  26.679  0.1278  0.1447  0.1465
  517DDP     C4 3102  30.150  19.787  25.750  0.1726 -0.4488  0.0812
  518DDP     C1 3103   7.973   9.574  21.909  0.3286 -0.1588  0.0005
  518DDP     P1 3104   7.638   9.377  21.772  0.0033  0.1070 -0.0858
  518DDP     P2 3105   8.042   9.126  21.897  0.0246  0.2452  0.0803
  518DDP     C2 3106   7.851   8.695  21.837  0.0362 -0.4032  0.1272
  518DDP     C3 3107   7.451   8.963  21.819  0.0358 -0.0867 -0.1317
  518DDP     C4 3108   7.998  10.074  21.903 -0.0381  0.1100  0.0484
  519DDP     C1 3109  15.466  18.373  18.644 -0.5381  0.4019  0.1478
  519DDP     P1 3110  15.029  18.522  18.615 -0.0256 -0.1242 -0.0282
  519DDP     P2 3111  15.506  17.868  18.513 -0.2725  0.0595 -0.2441
  519DDP     C2 3112  15.375  17.459  18.478 -0.2412 -0.2637 -0.2694
  519DDP     C3 3113  14.587  18.706  18.796  0.0785  0.2969 -0.0308
  519DDP     C4 3114  15.833  18.625  18.750  0.4914 -0.0063  0.3883
  520DDP     C1 3115   7.790   2.043  16.316 -0.4459  0.2388 -0.2229
  520DDP     P1 3116   7.817   2.527  16.467  0.2313  0.2820  0.1005
  520DDP     P2 3117   7.507   1.802  15.958  0.1097  0.0641 -0.1330
  520DDP     C2 3118   7.079   1.950  15.978  0.0262  0.0676 -0.1138
  520DDP     C3 3119   7.553   2.849  16.236  0.4983  0.1523 -0.0211
  520DDP     C4 3120   8.146   1.756  16.513 -0.0349  0.1873  0.3503
  521DDP     C1 3121  27.150  10.120  22.977 -0.0101 -0.2482  0.0602
  521DDP     P1 3122  26.747  10.331  23.025  0.1358 -0.1688  0.2231
  521DDP     P2 3123  27.182  10.271  22.551 -0.2625 -0.0651 -0.5303
  521DDP     C2 3124  27.094  10.679  22.397 -0.3263 -0.0426 -0.1193
  521DDP     C3 3125  26.406  10.602  22.822 -0.1776  0.0639 -0.1436
  521DDP     C4 3126  27.475   9.848  23.092 -0.3839  0.0432  0.1586
  522DDP     C1 3127  14.814   0.686   5.015 -0.1815  0.1619  0.2352
  522DDP     P1 3128  15.260   0.778   5.129  0.0970  0.2275  0.3082
  522DDP     P2 3129  14.443   0.948   4.900  0.0069 -0.0407 -0.3899
  522DDP     C2 3130  14.206   1.188   4.719  0.1049  0.2755 -0.1495
  522DDP     C3 3131  15.777   0.695   5.271 -0.1094  0.0717  0.0458
  522DDP     C4 3132  14.774   0.284   5.020 -0.0135 -0.2075 -0.0675
  523DDP     C1 3133   2.773   1.495  17.317 -0.3316 -0.0342  0.3162
  523DDP     P1 3134   2.744   1.280  17.581 -0.1348 -0.4059  0.0211
  523DDP     P2 3135   2.367   1.777  17.259  0.1135 -0.0338  0.4099
  523DDP     C2 3136   2.148   2.029  17.593 -0.0993 -0.1678  0.1011
  523DDP     C3 3137   2.710   0.908  17.652 -0.0489 -0.1811  0.2508
  523DDP     C4 3138   2.904   1.836  17.053 -0.4155  0.0612  0.0501
  524DDP     C1 3139   4.103  12.536  11.875  0.1728  0.0453 -0.0031
  524DDP     P1 3140   3.813  12.441  11.607  0.0499 -0.0108  0.0980
  524DDP     P2 3141   4.072  12.920  12.106 -0.1376  0.0312  0.1225
  524DDP     C2 3142   3.628  13.058  12.207  0.1022  0.1624 -0.0682
  524DDP     C3 3143   3.694  12.031  11.379 -0.1504 -0.0315 -0.0211
  524DDP     C4 3144   4.492  12.332  12.015  0.0763 -0.1152  0.1117
  525DDP     C1 3145  27.690   3.097  22.164  0.2323  0.1457 -0.0829
  525DDP     P1 3146  27.700   2.924  21.819  0.0182  0.1902  0.0640
  525DDP     P2 3147  28.097   3.250  22.363  0.0607 -0.1247  0.3446
  525DDP     C2 3148  28.399   3.596  22.325 -0.0135  0.2745  0.0336
  525DDP     C3 3149  28.065   2.864  21.558 -0.0159  0.0277 -0.0326
  525DDP     C4 3150  27.376   3.347  22.231  0.1871  0.1300  0.0669
  526DDP     C1 3151  26.557  14.426   6.164  0.1115 -0.2278 -0.0851
  526DDP     P1 3152  26.309  14.249   5.799  0.1378 -0.1505  0.1001
  526DDP     P2 3153  26.772  14.799   6.138 -0.1243  0.0046 -0.0888
  526DDP     C2 3154  26.954  15.082   5.908  0.1032 -0.0428  0.0920
  526DDP     C3 3155  25.955  13.924   5.867 -0.1107 -0.0158  0.1669
  526DDP     C4 3156  26.734  14.098   6.415  0.0246 -0.0792  0.0706
  527DDP     C1 3157  28.562  18.747   4.602  0.2924 -0.0217  0.2198
  527DDP     P1 3158  28.770  18.481   4.300 -0.1061 -0.1965 -0.1145
  527DDP     P2 3159  28.778  19.135   4.734 -0.0308  0.1737  0.1498
  527DDP     C2 3160  28.920  19.543   4.729  0.1027  0.1013 -0.1735
  527DDP     C3 3161  29.027  18.487   3.876 -0.2196  0.1055  0.2640
  527DDP     C4 3162  28.070  18.545   4.779 -0.0644  0.0957 -0.3044
  528DDP     C1 3163  24.591   6.059  10.746  0.0408 -0.0329 -0.0960
  528DDP     P1 3164  24.766   5.656  10.850  0.3607  0.1228  0.0681
  528DDP     P2 3165  24.584   6.263  10.330  0.3938  0.0078  0.1790
  528DDP     C2 3166  24.889   6.617  10.231 -0.2769  0.1479 -0.3764
  528DDP     C3 3167  25.056   5.247  10.906  0.0735 -0.1843 -0.3917
  528DDP     C4 3168  24.642   6.311  11.148 -0.0064  0.1049 -0.0091
  529DDP     C1 3169  29.420  22.257  25.832  0.0250 -0.1733  0.0304
  529DDP     P1 3170  29.205  21.828  25.965 -0.0961  0.0515 -0.2453
  529DDP     P2 3171  29.129  22.683  25.790  0.2116 -0.0412 -0.0636
  529DDP     C2 3172  28.669  23.067  25.904 -0.3528  0.2041 -0.1153
  529DDP     C3 3173  29.072  21.376  25.945  0.2356  0.2472  0.1329
  529DDP     C4 3174  29.727  21.886  25.803  0.1452  0.1955 -0.0254
  530DDP     C1 3175   4.894  12.451  21.542 -0.0370 -0.3776  0.3274
  530DDP     P1 3176   4.454  12.527  21.569 -0.0273  0.1156 -0.0735
  530DDP     P2 3177   5.131  12.776  21.741 -0.1404  0.0588 -0.0339
  530DDP     C2 3178   5.462  12.772  22.027  0.0950 -0.0091  0.1903
  530DDP     C3 3179   4.033  12.648  21.765 -0.0123 -0.0442 -0.0775
  530DDP     C4 3180   4.970  11.973  21.534  0.1768  0.1952 -0.0510
  531DDP     C1 3181  19.424  22.231  22.382  0.0146 -0.0215  0.2866
  531DDP     P1 3182  19.173  21.851  22.359 -0.2607 -0.1167  0.2732
  531DDP     P2 3183  19.126  22.426  22.661 -0.0064 -0.1099 -0.2403
  531DDP     C2 3184  18.999  22.468  23.138 -0.1460  0.0774 -0.0532
  531DDP     C3 3185  19.350  21.431  22.144 -0.0193  0.0816  0.1987
  531DDP     C4 3186  19.833  22.314  22.026 -0.0484  0.4670 -0.0163
  532DDP     C1 3187  22.461  23.528  14.583  0.3916  0.0582 -0.0890
  532DDP     P1 3188  22.137  23.315  14.821  0.3904 -0.0874 -0.1755
  532DDP     P2 3189  22.717  23.315  14.364  0.2362  0.2532 -0.0445
  532DDP     C2 3190  22.981  23.298  14.104 -0.2724  0.0181 -0.1891
  532DDP     C3 3191  22.027  22.943  14.923 -0.1718 -0.1000  0.1396
  532DDP     C4 3192  22.633  23.966  14.605  0.2818  0.0556  0.0851
  533DDP     C1 3193  27.829   6.424  28.355 -0.1873  0.0102  0.0292
  533DDP     P1 3194  28.194   6.731  28.194 -0.1736  0.3316 -0.2209
  533DDP     P2 3195  27.367   6.662  28.330  0.0289  0.2545 -0.1979
  533DDP     C2 3196  26.993   6.884  28.197 -0.1105  0.0508 -0.2408
  533DDP     C3 3197  28.641   6.775  28.163  0.1961 -0.1094  0.1298
  533DDP     C4 3198  27.897   5.945  28.282  0.1571  0.2493 -0.0102
  534DDP     C1 3199  27.982   5.828  24.602  0.0718  0.1185 -0.1020
  534DDP     P1 3200  28.279   5.941  24.287 -0.0388  0.2497 -0.0362
  534DDP     P2 3201  27.939   5.414  24.723  0.2208 -0.0249 -0.0066
  534DDP     C2 3202  28.066   5.037  24.655  0.2350  0.2288  0.0285
  534DDP     C3 3203  28.483   5.771  23.907 -0.1028  0.1658  0.0164
  534DDP     C4 3204  27.558   6.019  24.656 -0.2219  0.1395 -0.0893
  535DDP     C1 3205  18.996  14.196  20.694  0.2561  0.1992 -0.1133
  535DDP     P1 3206  19.407  14.320  20.638  0.0012  0.0034  0.0636
  535DDP     P2 3207  18.670  14.550  20.521  0.0865  0.2992  0.1478
  535DDP     C2 3208  18.388  14.898  20.323 -0.2438  0.5501 -0.0708
  535DDP     C3 3209  19.580  14.074  20.221  0.1618  0.1260  0.0278
  535DDP     C4 3210  18.867  13.991  21.089 -0.2592  0.0784  0.0629
  536DDP     C1 3211  16.716   5.167  22.306  0.1120  0.2032 -0.1813
  536DDP     P1 3212  16.438   5.068  22.684  0.0151 -0.0434 -0.0571
  536DDP     P2 3213  17.119   5.416  22.438  0.1961 -0.3138  0.2548
  536DDP     C2 3214  17.020   5.420  22.853 -0.2789 -0.2085 -0.0144
  536DDP     C3 3215  16.283   4.893  23.074  0.1450 -0.2847 -0.2075
  536DDP     C4 3216  16.576   5.248  21.904  0.1205  0.2590 -0.1430
  537DDP     C1 3217  29.564   5.868  21.961 -0.2240  0.2039 -0.2902
  537DDP     P1 3218  29.825   5.570  22.108  0.2963  0.0260  0.0558
  537DDP     P2 3219  29.732   5.939  21.516 -0.3332 -0.3575 -0.1954
  537DDP     C2 3220  30.180   5.995  21.385  0.0606 -0.1934 -0.0081
  537DDP     C3 3221  29.769   5.156  21.964 -0.3249  0.2407  0.2745
  537DDP     C4 3222  29.159   6.025  22.188  0.1671  0.1792 -0.3220
  538DDP     C1 3223  21.373   7.930   6.886 -0.0968 -0.2045 -0.1251
  538DDP     P1 3224  21.438   7.518   6.985 -0.1720 -0.1128 -0.0407
  538DDP     P2 3225  21.184   8.139   6.562 -0.0640 -0.3187  0.0722
  538DDP     C2 3226  20.778   8.466   6.599  0.1061 -0.1473  0.1999
  538DDP     C3 3227  21.467   7.380   6.540  0.1360 -0.0773 -0.0751
  538DDP     C4 3228  21.477   8.113   7.297  0.2035 -0.1322 -0.1482
  539DDP     C1 3229   5.751  26.756  28.802 -0.1274 -0.1119 -0.2134
  539DDP     P1 3230   5.425  26.840  28.576 -0.1396 -0.0670  0.1855
  539DDP     P2 3231   5.974  27.110  29.058  0.3387  0.1185  0.0821
  539DDP     C2 3232   6.085  27.540  29.175 -0.2136 -0.0721 -0.0019
  539DDP     C3 3233   5.010  26.889  28.254  0.2645 -0.1239  0.0831
  539DDP     C4 3234   5.827  26.386  29.059  0.0402 -0.2624 -0.0939
  540DDP     C1 3235  12.977   5.532   6.037 -0.0709 -0.0857 -0.0118
  540DDP     P1 3236  13.173   5.166   5.733  0.0981 -0.3315  0.0193
  540DDP     P2 3237  12.785   5.892   5.861  0.1490 -0.0255 -0.2011
  540DDP     C2 3238  12.583   6.273   5.852  0.2608  0.0673 -0.0156
  540DDP     C3 3239  13.097   4.761   5.591  0.0691 -0.0851  0.0882
  540DDP     C4 3240  13.088   5.420   6.506  0.1842 -0.3045 -0.1978
  541DDP     C1 3241   1.674   3.350  27.200  0.2290 -0.1698 -0.1442
  541DDP     P1 3242   1.471   3.581  27.439 -0.0168 -0.1928  0.0881
  541DDP     P2 3243   1.643   2.919  27.393 -0.1808  0.1223  0.3792
  541DDP     C2 3244   1.445   2.595  27.223  0.2023 -0.1122 -0.4086
  541DDP     C3 3245   1.073   3.828  27.408 -0.2021 -0.1187 -0.1744
  541DDP     C4 3246   1.856   3.544  26.791 -0.3801  0.1467 -0.1028
  542DDP     C1 3247   6.854   7.329  29.139  0.1466  0.1353  0.1031
  542DDP     P1 3248   6.907   7.664  28.947  0.1404  0.3533 -0.4526
  542DDP     P2 3249   6.648   7.283  29.460 -0.0518 -0.0447  0.0630
  542DDP     C2 3250   6.273   7.163  29.830 -0.0427  0.0238  0.0067
  542DDP     C3 3251   7.111   7.904  28.711  0.2028 -0.0410  0.0262
  542DDP     C4 3252   7.186   7.168  29.232  0.1346 -0.3594 -0.1012
  543DDP     C1 3253  27.675  11.260  25.791 -0.3667 -0.3146 -0.0287
  543DDP     P1 3254  27.985  10.984  26.059  0.0603  0.0456  0.2874
  543DDP     P2 3255  27.766  11.182  25.434  0.0161 -0.2548 -0.2162
  543DDP     C2 3256  27.867  11.004  25.073  0.1001  0.2423  0.2743
  543DDP     C3 3257  27.893  10.691  26.347  0.1423 -0.2027  0.0473
  543DDP     C4 3258  27.511  11.564  25.978 -0.1458  0.1841 -0.0302
  544DDP     C1 3259   6.321  11.374  29.901  0.0744 -0.0881 -0.1380
  544DDP     P1 3260   6.180  11.712  29.866  0.2150 -0.0787  0.2431
  544DDP     P2 3261   6.230  11.091  30.235  0.0925  0.1296 -0.2382
  544DDP     C2 3262   6.395  10.732   0.234 -0.1380  0.1421 -0.0249
  544DDP     C3 3263   6.394  12.110  30.060 -0.0306 -0.4318 -0.2360
  544DDP     C4 3264   6.513  11.122  29.649  0.3299 -0.1716 -0.0082
  545DDP     C1 3265  23.475  16.707  25.740 -0.2284 -0.0227  0.0306
  545DDP     P1 3266  23.824  16.982  25.648  0.0374 -0.2499  0.2544
  545DDP     P2 3267  23.161  16.950  25.508  0.2347 -0.2480  0.3099
  545DDP     C2 3268  22.701  16.955  25.624  0.2247  0.0490 -0.0604
  545DDP     C3 3269  24.090  17.390  25.829 -0.1371  0.1057 -0.2903
  545DDP     C4 3270  23.368  16.606  26.135 -0.1395  0.0924 -0.1302
  546DDP     C1 3271  27.927  14.619  17.579 -0.3727  0.0488 -0.0237
  546DDP     P1 3272  27.964  14.258  17.803 -0.1768 -0.2241 -0.0277
  546DDP     P2 3273  28.292  14.876  17.645  0.1623  0.1874 -0.2692
  546DDP     C2 3274  28.628  15.081  17.791 -0.2928 -0.1972  0.1087
  546DDP     C3 3275  28.139  13.874  17.705 -0.1049  0.1916  0.1735
  546DDP     C4 3276  27.568  14.585  17.245 -0.1542 -0.2307 -0.0138
  547DDP     C1 3277  26.200  29.855   4.866 -0.0382  0.3038  0.0719
  547DDP     P1 3278  25.948  29.558   4.579 -0.1122 -0.0808 -0.0590
  547DDP     P2 3279  26.461  30.145   4.662  0.1201  0.1022 -0.0752
  547DDP     C2 3280  26.504   0.334   4.643 -0.2291 -0.0616 -0.0371
  547DDP     C3 3281  25.679  29.374   4.360 -0.1686  0.0311  0.3391
  547DDP     C4 3282  26.108  30.040   5.246 -0.0533 -0.0958 -0.1001
  548DDP     C1 3283  25.351  15.813  18.131 -0.3856 -0.2790 -0.0309
  548DDP     P1 3284  25.798  15.819  18.304 -0.2043 -0.1635 -0.1152
  548DDP     P2 3285  25.118  15.465  18.271  0.1167  0.1376 -0.1205
  548DDP     C2 3286  24.784  15.156  18.346  0.2947  0.1084 -0.0455
  548DDP     C3 3287  26.145  16.134  18.177 -0.0390 -0.2790  0.0064
  548DDP     C4 3288  25.179  16.029  17.755 -0.1165 -0.1253  0.0368
  549DDP     C1 3289  14.008   7.921  14.293 -0.1925 -0.2038  0.0356
  549DDP     P1 3290  14.076   8.207  14.619 -0.3078 -0.0475  0.0277
  549DDP     P2 3291  13.701   7.666  14.254 -0.1662  0.1358 -0.2550
  549DDP     C2 3292  13.376   7.510  14.017 -0.1005  0.2986  0.0282
  549DDP     C3 3293  14.187   8.510  14.904 -0.2711 -0.1443  0.2168
  549DDP     C4 3294  14.359   7.917  13.998  0.0564 -0.0727  0.0956
  550DDP     C1 3295   9.441  13.377  14.320  0.0676  0.2744  0.3294
  550DDP     P1 3296   9.725  13.467  13.946 -0.1409 -0.1143  0.0167
  550DDP     P2 3297   9.097  13.136  14.443  0.0259  0.1301 -0.1098
  550DDP     C2 3298   8.871  12.807  14.532  0.2546 -0.0800  0.1071
  550DDP     C3 3299   9.452  13.588  13.667  0.3039 -0.1156  0.1209
  550DDP     C4 3300   9.507  13.773  14.473 -0.0232 -0.2874  0.1149
  551DDP     C1 3301  19.304  23.707  26.365 -0.2246 -0.2241 -0.0773
  551DDP     P1 3302  18.852  23.602  26.262  0.0746 -0.1009  0.2488
  551DDP     P2 3303  19.349  23.923  26.823  0.2891 -0.0184 -0.0250
  551DDP     C2 3304  19.298  23.879  27.325 -0.0957  0.0619 -0.0834
  551DDP     C3 3305  18.519  23.331  26.097  0.1145 -0.2764 -0.5380
  551DDP     C4 3306  19.694  23.446  26.338  0.1871 -0.2264  0.1458
  552DDP     C1 3307  18.765  14.128   3.527 -0.2000 -0.1695  0.0312
  552DDP     P1 3308  18.915  14.298   3.987  0.0664  0.2502  0.0518
  552DDP     P2 3309  18.999  13.670   3.417  0.1679  0.2433  0.0453
  552DDP     C2 3310  19.198  13.483   3.676  0.0110  0.1291 -0.0463
  552DDP     C3 3311  19.070  14.577   4.338  0.2800  0.0196 -0.1070
  552DDP     C4 3312  18.501  14.282   3.212 -0.2502 -0.0186  0.1004
  553DDP     C1 3313  20.546   3.978  25.764 -0.0979  0.1217  0.2247
  553DDP     P1 3314  20.200   3.950  25.881 -0.0494  0.1527 -0.4416
  553DDP     P2 3315  20.747   3.645  25.820  0.3773  0.0869 -0.2903
  553DDP     C2 3316  20.878   3.447  26.184 -0.1817  0.0362  0.0352
  553DDP     C3 3317  19.904   3.809  26.082  0.1322 -0.3012 -0.3582
  553DDP     C4 3318  20.743   4.250  25.654 -0.0184 -0.0301  0.1807
  554DDP     C1 3319   3.430  27.490  10.007  0.0120  0.0175  0.0289
  554DDP     P1 3320   3.309  27.221  10.435  0.0614  0.0270 -0.1828
  554DDP     P2 3321   3.428  27.943  10.127 -0.2640 -0.3351 -0.2186
  554DDP     C2 3322   3.662  28.399  10.069 -0.1636  0.1178  0.2007
  554DDP     C3 3323   3.271  26.967  10.770 -0.0395 -0.1333  0.0462
  554DDP     C4 3324   3.655  27.296   9.729 -0.0210 -0.0686  0.2265
  555DDP     C1 3325  23.184   0.606   0.149 -0.1155 -0.1472 -0.2633
  555DDP     P1 3326  23.412   0.726  30.108  0.2808 -0.2071  0.0602
  555DDP     P2 3327  22.960   0.327   0.018  0.2686 -0.2253 -0.1540
  555DDP     C2 3328  22.516   0.367  30.112 -0.2496  0.0291 -0.0082
  555DDP     C3 3329  23.800   0.773  29.982  0.1222 -0.0570 -0.0365
  555DDP     C4 3330  23.181   0.820   0.469 -0.0550 -0.3032  0.1914
  556DDP     C1 3331  11.771  14.633  19.558 -0.2728 -0.1765 -0.1056
  556DDP     P1 3332  11.945  14.666  20.059  0.2550  0.4350  0.0141
  556DDP     P2 3333  11.502  14.979  19.433 -0.0996 -0.0843 -0.1805
  556DDP     C2 3334  11.247  15.406  19.322  0.1244  0.1121 -0.2457
  556DDP     C3 3335  11.829  14.576  20.451  0.1247  0.1417  0.1749
  556DDP     C4 3336  11.808  14.291  19.297 -0.0464 -0.0982 -0.0512
  557DDP     C1 3337  22.445  27.285  27.327 -0.0759 -0.0086  0.0737
  557DDP     P1 3338  22.624  27.320  27.009  0.1064 -0.0040 -0.0130
  557DDP     P2 3339  22.369  27.709  27.484 -0.1266  0.0930  0.4076
  557DDP     C2 3340  22.466  27.961  27.798  0.4139 -0.1395 -0.2093
  557DDP     C3 3341  22.669  27.466  26.598  0.3710  0.0267 -0.0331
  557DDP     C4 3342  22.145  26.879  27.402 -0.0407 -0.1256 -0.0671
  558DDP     C1 3343  23.785  11.616   5.650 -0.0098  0.1794  0.1691
  558DDP     P1 3344  23.860  11.405   6.081  0.1947 -0.0941 -0.0022
  558DDP     P2 3345  23.799  11.328   5.429 -0.0055  0.0919 -0.0069
  558DDP     C2 3346  23.832  11.175   4.990  0.1954 -0.2227  0.0717
  558DDP     C3 3347  23.769  11.047   6.306 -0.2701 -0.2974 -0.0280
  558DDP     C4 3348  23.468  11.915   5.496 -0.2932  0.2746 -0.1229
  559DDP     C1 3349   3.075  21.910  19.398  0.0288 -0.0898 -0.2931
  559DDP     P1 3350   2.722  22.097  19.432 -0.0115  0.0192 -0.0106
  559DDP     P2 3351   3.427  21.956  19.173 -0.2294 -0.1681 -0.1407
  559DDP     C2 3352   3.697  22.281  19.100 -0.2901 -0.2081 -0.2388
  559DDP     C3 3353   2.460  22.147  19.854  0.2077  0.0865  0.0304
  559DDP     C4 3354   3.102  21.593  19.674  0.1171 -0.2777 -0.4604
  560DDP     C1 3355   4.102  24.710  17.111  0.3105 -0.0117  0.1212
  560DDP     P1 3356   3.943  25.076  17.302 -0.2801 -0.0294 -0.2949
  560DDP     P2 3357   4.248  24.620  16.672  0.0020 -0.4481 -0.0829
  560DDP     C2 3358   4.264  25.084  16.477  0.0580  0.0921 -0.2028
  560DDP     C3 3359   3.815  25.226  17.694 -0.1984  0.1258 -0.0948
  560DDP     C4 3360   3.837  24.313  17.250  0.0107  0.0455  0.1774
  561DDP     C1 3361  29.389  14.940  10.137 -0.0505 -0.0634 -0.1308
  561DDP     P1 3362  29.738  14.603  10.191 -0.0312  0.1392 -0.0382
  561DDP     P2 3363  29.130  14.973  10.451 -0.1400  0.2354 -0.0895
  561DDP     C2 3364  29.058  15.033  10.889  0.2079 -0.0924  0.1055
  561DDP     C3 3365  30.170  14.658  10.204 -0.1417  0.1511 -0.0181
  561DDP     C4 3366  29.172  15.064   9.664 -0.3366 -0.1881 -0.0126
  562DDP     C1 3367  22.504  17.163   6.663  0.1338  0.1962 -0.2328
  562DDP     P1 3368  22.387  17.451   6.429 -0.0541  0.4057 -0.0727
  562DDP     P2 3369  22.392  17.184   6.998  0.0073 -0.1337 -0.2324
  562DDP     C2 3370  22.692  17.176   7.395  0.1036 -0.0369  0.2918
  562DDP     C3 3371  22.197  17.424   5.986 -0.1699  0.0527 -0.1251
  562DDP     C4 3372  22.546  16.739   6.647  0.1473 -0.0143 -0.1139
  563DDP     C1 3373  14.659  21.331   4.818  0.0521  0.2026  0.2851
  563DDP     P1 3374  14.836  21.377   5.120 -0.0587 -0.0403 -0.0149
  563DDP     P2 3375  14.823  20.906   4.780 -0.0465 -0.0963  0.2541
  563DDP     C2 3376  14.628  20.495   4.577 -0.4133 -0.2228 -0.0971
  563DDP     C3 3377  15.044  21.366   5.479 -0.2295 -0.0567  0.1030
  563DDP     C4 3378  14.383  21.609   4.626 -0.0217 -0.2288 -0.1545
  564DDP     C1 3379  13.164   7.287  12.073 -0.0882 -0.1650  0.0606
  564DDP     P1 3380  13.471   7.311  12.004 -0.1349 -0.2572 -0.2601
  564DDP     P2 3381  12.771   7.359  11.721 -0.0557  0.0074  0.0916
  564DDP     C2 3382  12.278   7.326  11.829 -0.1136  0.0727  0.0719
  564DDP     C3 3383  13.700   7.646  11.773 -0.0561 -0.0552  0.3607
  564DDP     C4 3384  13.009   7.115  12.496  0.0768  0.0804 -0.6062
  565DDP     C1 3385  18.866  21.814   6.221 -0.0373  0.0274 -0.1639
  565DDP     P1 3386  19.098  21.525   5.941  0.0326  0.3125  0.0683
  565DDP     P2 3387  18.489  21.788   6.389 -0.0537  0.1367 -0.1084
  565DDP     C2 3388  18.117  21.572   6.388  0.2514 -0.0379  0.1078
  565DDP     C3 3389  19.348  21.603   5.597 -0.1167 -0.1371 -0.0341
  565DDP     C4 3390  19.126  22.168   6.362 -0.1954 -0.1960 -0.1699
  566DDP     C1 3391   5.155  30.022  26.135 -0.3247 -0.2556  0.6118
  566DDP     P1 3392   5.249  29.632  26.113  0.1859  0.0867  0.0141
  566DDP     P2 3393   5.138  30.263  25.742  0.0396  0.0780  0.1719
  566DDP     C2 3394   5.127   0.380  25.628  0.0371  0.1568 -0.0446
  566DDP     C3 3395   5.560  29.315  26.032 -0.1073 -0.0863  0.1533
  566DDP     C4 3396   4.944  30.165  26.433  0.3868 -0.2207  0.3959
  567DDP     C1 3397   4.658  12.888   2.543 -0.0453 -0.0897 -0.1676
  567DDP     P1 3398   5.027  12.940   2.184  0.1949 -0.0625 -0.0463
  567DDP     P2 3399   4.517  13.333   2.591  0.3167  0.2806  0.0705
  567DDP     C2 3400   4.548  13.557   2.999 -0.2712  0.1195  0.0363
  567DDP     C3 3401   5.472  12.818   2.182  0.1816  0.0208  0.0146
  567DDP     C4 3402   4.351  12.676   2.530 -0.1694 -0.1669  0.0075
  568DDP     C1 3403   9.937  18.392  14.898  0.0838 -0.1867  0.1687
  568DDP     P1 3404  10.275  18.123  14.840  0.0286 -0.1120 -0.0847
  568DDP     P2 3405   9.745  18.639  14.604 -0.0248 -0.2724 -0.1498
  568DDP     C2 3406   9.622  18.729  14.268 -0.3260  0.3309  0.0628
  568DDP     C3 3407  10.435  17.691  14.715  0.0255  0.0527 -0.0236
  568DDP     C4 3408   9.758  18.311  15.362 -0.0252 -0.1788  0.1518
  569DDP     C1 3409  29.474   8.474  24.325  0.0272 -0.1526 -0.1309
  569DDP     P1 3410  29.560   8.703  24.073 -0.0263 -0.0642  0.0055
  569DDP     P2 3411  29.495   8.749  24.639 -0.3159 -0.1626 -0.0053
  569DDP     C2 3412  29.261   8.957  24.922  0.0115 -0.0974 -0.1142
  569DDP     C3 3413  29.636   9.076  23.900  0.0187 -0.0636  0.4734
  569DDP     C4 3414  29.355   8.094  24.455 -0.1154 -0.1329  0.0864
  570DDP     C1 3415  11.995  22.578  27.983  0.0043  0.1201  0.0669
  570DDP     P1 3416  12.230  22.938  28.164  0.2220 -0.1499 -0.0077
  570DDP     P2 3417  11.827  22.345  28.184 -0.2598  0.0069 -0.0282
  570DDP     C2 3418  11.920  22.203  28.660  0.0565  0.1051  0.0863
  570DDP     C3 3419  12.472  22.987  28.511 -0.0457  0.3333 -0.0141
  570DDP     C4 3420  11.784  22.645  27.480  0.3182 -0.0830 -0.0664
  571DDP     C1 3421   0.493  18.029  18.658 -0.0288 -0.2369 -0.2757
  571DDP     P1 3422   0.473  18.458  18.603 -0.1741  0.0019 -0.1114
  571DDP     P2 3423   0.607  17.737  19.055 -0.1665  0.0077  0.0805
  571DDP     C2 3424   0.824  17.796  19.510  0.1939 -0.0839 -0.1179
  571DDP     C3 3425   0.460  18.751  18.851  0.2639  0.3008  0.1245
  571DDP     C4 3426   0.344  17.906  18.251 -0.2489  0.1355 -0.2555
  572DDP     C1 3427  24.549   7.109   7.694  0.1047 -0.0808  0.3122
  572DDP     P1 3428  24.734   7.471   7.902  0.0498 -0.2375 -0.0449
  572DDP     P2 3429  24.226   6.839   7.685  0.1401 -0.1061  0.0120
  572DDP     C2 3430  23.953   6.590   7.379  0.0116 -0.1599  0.0443
  572DDP     C3 3431  24.746   7.930   7.961  0.0652  0.1078  0.0147
  572DDP     C4 3432  24.841   6.875   7.474 -0.2440 -0.1303 -0.1116
  573DDP     C1 3433  13.951  13.018  10.932 -0.0212 -0.1522 -0.2653
  573DDP     P1 3434  14.122  12.778  10.503 -0.0287 -0.2214  0.0560
  573DDP     P2 3435  14.023  13.495  10.906 -0.0854  0.0383  0.2825
  573DDP     C2 3436  13.971  13.860  10.582  0.1871  0.3331  0.1102
  573DDP     C3 3437  13.956  12.739  10.142 -0.0101  0.0960 -0.1502
  573DDP     C4 3438  14.072  12.748  11.300  0.0066  0.0754  0.1761
  574DDP     C1 3439  19.153   3.265   1.605 -0.3034  0.1867 -0.2784
  574DDP     P1 3440  19.031   3.412   1.859 -0.2130 -0.0246  0.1906
  574DDP     P2 3441  19.252   3.498   1.210 -0.0661  0.0091  0.0322
  574DDP     C2 3442  19.059   3.912   1.006  0.0084  0.1780 -0.0102
  574DDP     C3 3443  18.672   3.743   1.963  0.0646  0.0185 -0.0278
  574DDP     C4 3444  19.173   2.863   1.555 -0.1245  0.0555  0.4446
  575DDP     C1 3445   1.745  27.668  21.469 -0.3919  0.0900  0.2852
  575DDP     P1 3446   1.650  27.191  21.728 -0.1100  0.0360  0.0139
  575DDP     P2 3447   2.192  27.856  21.541  0.1935  0.2167  0.3797
  575DDP     C2 3448   2.491  27.664  21.717  0.1015  0.2629 -0.4089
  575DDP     C3 3449   1.913  26.818  21.533  0.1942 -0.0946 -0.1635
  575DDP     C4 3450   1.397  27.974  21.390  0.0102 -0.0090  0.0330
  576DDP     C1 3451  23.415  15.126   3.060  0.2333  0.2257  0.2171
  576DDP     P1 3452  23.569  15.070   2.617 -0.2597 -0.0148  0.2117
  576DDP     P2 3453  23.394  15.559   3.204 -0.0499  0.1705  0.1373
  576DDP     C2 3454  23.373  15.949   3.084  0.1868 -0.0485  0.0188
  576DDP     C3 3455  23.487  15.337   2.271 -0.1758  0.2421  0.2978
  576DDP     C4 3456  23.328  14.770   3.366 -0.0710  0.1946  0.0608
  577DDP     C1 3457   0.073  22.738  11.877  0.2126 -0.3349 -0.0239
  577DDP     P1 3458   0.305  22.988  11.584  0.0789  0.2520 -0.0308
  577DDP     P2 3459  30.076  22.427  11.773  0.0257  0.0779  0.0088
  577DDP     C2 3460  30.007  22.125  12.026  0.0510 -0.1677  0.2138
  577DDP     C3 3461   0.486  22.952  11.301 -0.1366 -0.0151 -0.1147
  577DDP     C4 3462   0.098  22.969  12.304 -0.4707 -0.0489 -0.2364
  578DDP     C1 3463  19.808  21.307  13.065  0.0503  0.1832 -0.2440
  578DDP     P1 3464  19.726  21.225  13.520  0.0587 -0.1047  0.3980
  578DDP     P2 3465  20.186  21.068  13.002  0.0068  0.1650 -0.2331
  578DDP     C2 3466  20.438  20.687  13.165  0.0452 -0.2711  0.0614
  578DDP     C3 3467  19.787  21.327  14.017 -0.0180  0.3337 -0.0386
  578DDP     C4 3468  19.633  21.507  12.742  0.2390 -0.0526  0.0137
  579DDP     C1 3469  10.279   0.416  13.870  0.0655  0.1051  0.1202
  579DDP     P1 3470  10.170   0.091  13.580 -0.1070 -0.1393  0.0397
  579DDP     P2 3471  10.708   0.374  13.985  0.2037  0.2640  0.0364
  579DDP     C2 3472  10.987   0.433  13.824 -0.1823 -0.0583  0.1240
  579DDP     C3 3473  10.283  30.201  13.204 -0.1879 -0.1058 -0.1776
  579DDP     C4 3474   9.944   0.719  14.024 -0.1149 -0.2004  0.0406
  580DDP     C1 3475  12.149  25.758   0.978 -0.2588 -0.1267  0.0855
  580DDP     P1 3476  12.483  25.616   0.726 -0.1599 -0.4947 -0.2514
  580DDP     P2 3477  12.044  25.449   1.262  0.2268 -0.0193 -0.1241
  580DDP     C2 3478  12.163  25.395   1.647 -0.2112 -0.0996  0.0700
  580DDP     C3 3479  12.789  25.522   0.345  0.1206 -0.2864 -0.0282
  580DDP     C4 3480  12.188  26.182   1.120  0.0168 -0.0394  0.4093
  581DDP     C1 3481  17.399  15.941  11.327  0.1003  0.2229 -0.1118
  581DDP     P1 3482  17.792  15.920  11.450 -0.0950  0.1287 -0.0427
  581DDP     P2 3483  17.568  16.177  11.031 -0.2095 -0.1855  0.1383
  581DDP     C2 3484  17.483  16.143  10.577 -0.4266 -0.0235  0.0360
  581DDP     C3 3485  18.161  16.103  11.327  0.0039  0.0590 -0.1524
  581DDP     C4 3486  17.021  15.704  11.257 -0.1344 -0.3185 -0.0578
  582DDP     C1 3487  10.679  24.414   9.576  0.0168 -0.2560 -0.2638
  582DDP     P1 3488  10.828  24.487   9.979 -0.2214 -0.1418 -0.1625
  582DDP     P2 3489  10.361  24.550   9.415  0.3320 -0.0394  0.3080
  582DDP     C2 3490  10.346  24.897   9.134 -0.0050  0.0595  0.0221
  582DDP     C3 3491  11.010  24.635  10.296  0.2167  0.2836 -0.3072
  582DDP     C4 3492  10.869  24.085   9.361  0.3204  0.2184  0.1853
  583DDP     C1 3493  17.942  18.702   3.256 -0.2764  0.3233 -0.1264
  583DDP     P1 3494  18.054  18.719   2.777  0.1165 -0.0887  0.0781
  583DDP     P2 3495  18.176  19.119   3.257  0.1094  0.1060  0.0670
  583DDP     C2 3496  18.290  19.483   3.600  0.1069 -0.2327 -0.3165
  583DDP     C3 3497  17.990  18.308   2.503 -0.0803 -0.0132 -0.2561
  583DDP     C4 3498  17.504  18.696   3.420  0.1532  0.0009 -0.1190
  584DDP     C1 3499   5.038  17.175  17.437  0.0288  0.0656 -0.1238
  584DDP     P1 3500   4.676  16.919  17.412 -0.2883  0.1591  0.0743
  584DDP     P2 3501   5.038  17.606  17.632  0.1411 -0.0407  0.1171
  584DDP     C2 3502   5.307  18.001  17.455  0.2140 -0.0828  0.1539
  584DDP     C3 3503   4.291  16.726  17.547  0.2110 -0.0127  0.2150
  584DDP     C4 3504   5.478  17.069  17.275 -0.2141  0.0242 -0.2126
  585DDP     C1 3505  17.849   8.025  16.370 -0.0222  0.1021 -0.0485
  585DDP     P1 3506  17.597   7.958  16.716 -0.0856  0.1622  0.3333
  585DDP     P2 3507  18.106   8.325  16.327  0.2347  0.0102  0.2534
  585DDP     C2 3508  18.533   8.501  16.352 -0.1442 -0.0419 -0.1068
  585DDP     C3 3509  17.170   7.781  16.770 -0.1396  0.1781  0.0720
  585DDP     C4 3510  17.765   7.693  16.169  0.1920  0.0129  0.4348
  586DDP     C1 3511  13.180  24.146  23.947 -0.0076  0.2295  0.0487
  586DDP     P1 3512  12.841  24.029  23.658 -0.0125 -0.0207  0.2000
  586DDP     P2 3513  13.224  24.615  23.875  0.1675 -0.0152 -0.0608
  586DDP     C2 3514  12.927  24.995  23.878  0.0855  0.0895  0.0752
  586DDP     C3 3515  12.480  23.846  23.480  0.1249 -0.1550 -0.2122
  586DDP     C4 3516  13.388  23.876  24.227  0.0218  0.1383  0.3080
  587DDP     C1 3517  13.917  27.436  30.209 -0.0511  0.1418  0.0983
  587DDP     P1 3518  13.750  27.373  29.819  0.5951  0.1062 -0.0670
  587DDP     P2 3519  14.118  27.778  30.217 -0.0476  0.0388 -0.0470
  587DDP     C2 3520  14.025  28.171   0.008 -0.1745  0.2567 -0.1213
  587DDP     C3 3521  13.503  27.545  29.704 -0.1019  0.4074 -0.0668
  587DDP     C4 3522  13.789  27.155   0.177  0.3233  0.1749 -0.2325
  588DDP     C1 3523  26.205   6.856   0.369 -0.2516 -0.3850  0.0502
  588DDP     P1 3524  25.819   6.723   0.439  0.2649 -0.0174 -0.1843
  588DDP     P2 3525  26.220   7.220   0.078 -0.0708  0.0011 -0.0084
  588DDP     C2 3526  25.901   7.338  30.083  0.1419 -0.1301 -0.1030
  588DDP     C3 3527  25.405   6.800   0.310  0.0782 -0.2958 -0.2058
  588DDP     C4 3528  26.563   6.562   0.242  0.3033 -0.2351  0.0089
  589DDP     C1 3529   8.364  21.391   9.944  0.0062  0.1777 -0.0330
  589DDP     P1 3530   8.609  21.260  10.302 -0.0171  0.0440  0.2738
  589DDP     P2 3531   7.953  21.229   9.854  0.1800 -0.0180 -0.0782
  589DDP     C2 3532   7.525  20.925   9.888 -0.2683 -0.0040 -0.2343
  589DDP     C3 3533   8.980  21.396  10.383  0.1486 -0.2534 -0.2569
  589DDP     C4 3534   8.533  21.647   9.638  0.3787 -0.1137 -0.0472
  590DDP     C1 3535  18.204  15.615  10.447 -0.1162  0.2262 -0.4481
  590DDP     P1 3536  18.533  15.848  10.634 -0.3193 -0.0388  0.0050
  590DDP     P2 3537  17.844  15.363  10.633 -0.1098  0.2073  0.1479
  590DDP     C2 3538  17.479  15.226  10.421 -0.0562  0.1071 -0.1005
  590DDP     C3 3539  18.867  16.207  10.657 -0.1319 -0.2249 -0.1497
  590DDP     C4 3540  18.273  15.591   9.970 -0.1332  0.1622  0.2637
  591DDP     C1 3541   6.389  23.003  10.614 -0.4518  0.2156 -0.1218
  591DDP     P1 3542   6.697  23.296  10.750  0.0763 -0.1550  0.0114
  591DDP     P2 3543   5.979  23.040  10.691 -0.1320  0.0398 -0.1210
  591DDP     C2 3544   5.825  22.650  10.780  0.1082  0.1081 -0.1882
  591DDP     C3 3545   6.753  23.741  10.765 -0.1601 -0.1685 -0.2626
  591DDP     C4 3546   6.552  22.838  10.322  0.0443  0.1689  0.1031
  592DDP     C1 3547  25.056   5.753   5.116  0.3917 -0.0306 -0.0189
  592DDP     P1 3548  24.604   5.535   5.209 -0.1133  0.2125 -0.1662
  592DDP     P2 3549  25.487   5.616   5.229  0.0460 -0.2243  0.1919
  592DDP     C2 3550  25.625   5.304   5.405 -0.1928 -0.0568  0.0399
  592DDP     C3 3551  24.198   5.309   5.343 -0.1582  0.3507 -0.0871
  592DDP     C4 3552  24.949   5.978   4.796  0.2838 -0.3363 -0.0095
  593DDP     C1 3553  24.074  12.260  29.998  0.0450 -0.2842 -0.2592
  593DDP     P1 3554  23.771  12.003  30.247 -0.0558  0.2170 -0.0475
  593DDP     P2 3555  24.188  12.681  30.162  0.2631 -0.1185  0.1244
  593DDP     C2 3556  24.210  13.083  30.299  0.0587  0.0133  0.0411
  593DDP     C3 3557  23.779  11.516   0.070  0.3765  0.0578 -0.0760
  593DDP     C4 3558  24.253  12.134  29.666 -0.0908  0.0413  0.1317
  594DDP     C1 3559  13.091  25.608  16.767 -0.0834 -0.2323 -0.2009
  594DDP     P1 3560  13.097  26.090  16.825 -0.0988 -0.1452  0.0493
  594DDP     P2 3561  13.183  25.512  17.207 -0.1406 -0.1346  0.0462
  594DDP     C2 3562  13.538  25.553  17.423 -0.2668 -0.5216  0.0799
  594DDP     C3 3563  13.341  26.420  16.818  0.2392 -0.0370  0.0196
  594DDP     C4 3564  13.090  25.485  16.413 -0.2387  0.2254  0.0213
  595DDP     C1 3565  22.558   5.729  24.693  0.3861  0.4032  0.0900
  595DDP     P1 3566  22.662   6.035  25.020 -0.0498  0.1148  0.2189
  595DDP     P2 3567  22.329   5.529  24.752  0.0912  0.4301  0.1043
  595DDP     C2 3568  21.930   5.458  25.008 -0.0718  0.2312 -0.3143
  595DDP     C3 3569  22.595   6.366  25.180  0.2538 -0.1479 -0.1999
  595DDP     C4 3570  22.882   5.676  24.580  0.1155  0.3595  0.2280
  596DDP     C1 3571  18.066  28.954  12.534 -0.0547 -0.2528  0.0431
  596DDP     P1 3572  17.997  29.100  12.951 -0.4560 -0.0143 -0.4155
  596DDP     P2 3573  18.329  29.248  12.299 -0.1562 -0.1415 -0.0975
  596DDP     C2 3574  18.753  29.445  12.101 -0.1489  0.3517 -0.0513
  596DDP     C3 3575  17.714  29.140  13.327  0.0509  0.0594 -0.0251
  596DDP     C4 3576  17.900  28.674  12.338 -0.0241 -0.1656  0.2098
  597DDP     C1 3577   8.982   8.956   8.493  0.2171 -0.4525 -0.1664
  597DDP     P1 3578   9.373   9.042   8.394  0.4667 -0.1700  0.0185
  597DDP     P2 3579   8.760   8.598   8.596 -0.1151 -0.1569  0.1048
  597DDP     C2 3580   8.478   8.327   8.826  0.3512 -0.1863 -0.1145
  597DDP     C3 3581   9.516   9.186   8.084  0.0439  0.2107  0.0885
  597DDP     C4 3582   8.612   9.044   8.369  0.2070  0.2002 -0.0211
  598DDP     C1 3583  23.158  12.963  10.166  0.3241  0.2203 -0.3204
  598DDP     P1 3584  23.040  13.364  10.075 -0.0371  0.1811  0.0862
  598DDP     P2 3585  23.588  12.818  10.217  0.1977 -0.0927 -0.0621
  598DDP     C2 3586  24.008  12.718  10.295 -0.2201  0.2142  0.0923
  598DDP     C3 3587  22.845  13.749  10.181 -0.2301  0.0081  0.3288
  598DDP     C4 3588  22.784  12.642  10.246 -0.1335  0.0089  0.2136
  599DDP     C1 3589  24.505  16.864  11.582 -0.0991 -0.1173 -0.1102
  599DDP     P1 3590  24.379  16.585  11.259 -0.1774  0.0097 -0.2974
  599DDP     P2 3591  24.779  16.609  11.919  0.1512  0.0930  0.1177
  599DDP     C2 3592  25.214  16.561  11.995  0.1047  0.0229 -0.0154
  599DDP     C3 3593  24.310  16.179  11.291 -0.1565 -0.0493 -0.2648
  599DDP     C4 3594  24.317  17.304  11.674  0.1895 -0.0480  0.0823
  600DDP     C1 3595  23.622  16.832   5.787 -0.1482 -0.0943  0.1317
  600DDP     P1 3596  24.138  16.784   5.678  0.0362 -0.0664 -0.1046
  600DDP     P2 3597  23.400  16.699   6.168 -0.0137  0.2575 -0.2492
  600DDP     C2 3598  23.246  16.720   6.656 -0.2358 -0.0646  0.1033
  600DDP     C3 3599  24.481  16.948   5.928 -0.1871  0.0318 -0.0451
  600DDP     C4 3600  23.283  16.958   5.463  0.0034 -0.1318  0.1711
  601DDP     C1 3601   7.197  15.902   3.818 -0.1260  0.2553 -0.1767
  601DDP     P1 3602   6.901  16.048   3.510  0.1546  0.1057 -0.1821
  601DDP     P2 3603   7.238  15.491   3.677 -0.1228 -0.0101  0.0712
  601DDP     C2 3604   7.371  15.223   3.306  0.2007  0.2330  0.3734
  601DDP     C3 3605   6.606  15.972   3.250 -0.1757  0.2335 -0.2797
  601DDP     C4 3606   7.211  15.994   4.265  0.0420 -0.1264  0.2072
  602DDP     C1 3607  11.670  12.355  26.533 -0.4384 -0.0457 -0.0012
  602DDP     P1 3608  11.954  12.496  26.624  0.1134  0.1889 -0.0408
  602DDP     P2 3609  11.770  12.269  26.182 -0.0475 -0.4415  0.2586
  602DDP     C2 3610  11.959  12.211  25.793 -0.3052  0.1711 -0.0595
  602DDP     C3 3611  12.215  12.716  26.487 -0.0562 -0.1578  0.1649
  602DDP     C4 3612  11.291  12.259  26.703 -0.4048  0.0071 -0.3889
  603DDP     C1 3613  15.110   3.264  24.504  0.0479  0.2293  0.0035
  603DDP     P1 3614  14.794   3.587  24.722 -0.1618 -0.0512  0.0305
  603DDP     P2 3615  14.777   3.086  24.265  0.2151  0.0854 -0.1121
  603DDP     C2 3616  14.406   2.934  24.137  0.1650  0.1720  0.1238
  603DDP     C3 3617  14.484   3.837  24.963 -0.0703 -0.1131  0.0002
  603DDP     C4 3618  15.482   3.364  24.317 -0.0400 -0.1607 -0.1633
  604DDP     C1 3619  23.502  21.377   1.406 -0.3450  0.2387 -0.1928
  604DDP     P1 3620  23.928  21.239   1.253  0.1341 -0.0374 -0.1017
  604DDP     P2 3621  23.254  21.739   1.240  0.3335  0.0043 -0.1541
  604DDP     C2 3622  23.125  22.193   1.131  0.1602  0.0579  0.0449
  604DDP     C3 3623  24.172  21.257   1.601  0.1760  0.0404 -0.2055
  604DDP     C4 3624  23.441  21.165   1.754  0.2545  0.1358 -0.0977
  605DDP     C1 3625  26.556  23.853  15.453 -0.2199 -0.0049 -0.0186
  605DDP     P1 3626  26.182  23.686  15.194 -0.0514  0.1289  0.0115
  605DDP     P2 3627  26.722  24.281  15.401 -0.0363 -0.0399 -0.1956
  605DDP     C2 3628  27.218  24.433  15.402  0.4020 -0.0188 -0.1116
  605DDP     C3 3629  26.114  23.326  15.086 -0.0278 -0.1575  0.0781
  605DDP     C4 3630  26.726  23.484  15.711  0.1222 -0.0358 -0.2391
  606DDP     C1 3631  19.015  26.602   3.500 -0.0174 -0.1526  0.0604
  606DDP     P1 3632  19.269  26.826   3.720  0.1439 -0.5468 -0.0830
  606DDP     P2 3633  18.624  26.343   3.632 -0.0947 -0.2632 -0.1243
  606DDP     C2 3634  18.163  26.436   3.633  0.2786 -0.1521 -0.2066
  606DDP     C3 3635  19.369  27.033   4.099  0.0689 -0.0752 -0.5066
  606DDP     C4 3636  18.862  26.782   3.061  0.2593  0.2826 -0.1424
  607DDP     C1 3637   8.544   6.054  23.543  0.1051 -0.1775  0.2725
  607DDP     P1 3638   8.510   6.515  23.375 -0.1720 -0.1163 -0.1192
  607DDP     P2 3639   8.889   5.842  23.788  0.2855 -0.0650 -0.2002
  607DDP     C2 3640   9.276   5.977  24.020  0.4515  0.0943  0.2895
  607DDP     C3 3641   8.820   6.823  23.261  0.0387  0.1485 -0.2017
  607DDP     C4 3642   8.259   5.819  23.436 -0.1155  0.0859 -0.0604
  608DDP     C1 3643  23.570  17.177   3.825 -0.1250 -0.0363 -0.1434
  608DDP     P1 3644  23.262  17.283   4.030 -0.1951  0.2184  0.0368
  608DDP     P2 3645  23.807  16.934   3.993 -0.1766 -0.1536 -0.1753
  608DDP     C2 3646  24.025  16.623   3.946 -0.1730  0.1423  0.0410
  608DDP     C3 3647  22.949  17.603   3.962 -0.1969 -0.3847  0.1527
  608DDP     C4 3648  23.594  17.278   3.404 -0.0078 -0.2035 -0.2923
  609DDP     C1 3649  20.776  10.310  16.743  0.1217  0.0342  0.2124
  609DDP     P1 3650  20.688  10.172  17.102  0.3750  0.1441 -0.2060
  609DDP     P2 3651  20.520   9.959  16.549 -0.0650  0.1038 -0.2895
  609DDP     C2 3652  20.053  10.015  16.506 -0.2766  0.0746  0.2847
  609DDP     C3 3653  20.759   9.759  17.059  0.3665 -0.0304 -0.0578
  609DDP     C4 3654  20.782  10.668  16.394  0.3476 -0.1083 -0.1025
  610DDP     C1 3655   9.849  27.179  27.043  0.3084 -0.1406 -0.0992
  610DDP     P1 3656   9.486  27.310  27.134 -0.1205 -0.0599 -0.1430
  610DDP     P2 3657  10.033  27.467  27.295 -0.0423 -0.1412 -0.0925
  610DDP     C2 3658   9.687  27.714  27.257 -0.0471 -0.3421  0.1100
  610DDP     C3 3659   9.096  27.568  27.117 -0.2231  0.3735 -0.3354
  610DDP     C4 3660  10.119  27.037  26.671  0.1243  0.0982 -0.2090
  611DDP     C1 3661  15.414  12.604   8.044  0.0066  0.2262  0.1361
  611DDP     P1 3662  15.528  12.353   8.332 -0.1284 -0.3561 -0.0356
  611DDP     P2 3663  15.660  12.649   7.704  0.2285  0.0453 -0.0996
  611DDP     C2 3664  16.144  12.801   7.521  0.0441  0.1888  0.1808
  611DDP     C3 3665  15.706  12.136   7.932  0.2296 -0.0511  0.1777
  611DDP     C4 3666  15.285  12.953   8.216 -0.0645 -0.1938  0.0687
  612DDP     C1 3667  19.298  15.729  12.768  0.1750 -0.2151  0.2507
  612DDP     P1 3668  19.272  15.442  13.060 -0.2798  0.1757  0.0780
  612DDP     P2 3669  19.621  15.966  12.379 -0.1102 -0.2240 -0.0223
  612DDP     C2 3670  19.604  16.267  12.163  0.1597 -0.0002 -0.0184
  612DDP     C3 3671  19.621  15.312  13.325 -0.3718  0.1457  0.7203
  612DDP     C4 3672  19.012  15.803  12.523  0.0777  0.0784  0.0171
  613DDP     C1 3673   7.091   7.269  20.821 -0.0275  0.0812  0.1718
  613DDP     P1 3674   7.266   6.955  21.055 -0.5937  0.0440 -0.1812
  613DDP     P2 3675   7.212   7.336  20.405  0.1387  0.1163  0.0737
  613DDP     C2 3676   7.274   7.486  19.927  0.0867 -0.0482 -0.1728
  613DDP     C3 3677   7.209   6.749  21.414 -0.0314  0.2539 -0.0583
  613DDP     C4 3678   6.790   7.562  20.885 -0.0441 -0.3801 -0.2180
  614DDP     C1 3679   4.678  26.595   3.204 -0.3522 -0.1035 -0.0574
  614DDP     P1 3680   4.721  26.809   2.822  0.0555 -0.2912  0.1382
  614DDP     P2 3681   5.105  26.359   3.301 -0.0189  0.2266  0.0282
  614DDP     C2 3682   5.184  26.098   3.627  0.1075  0.0524 -0.2068
  614DDP     C3 3683   5.033  27.164   2.631 -0.1528  0.0095 -0.1162
  614DDP     C4 3684   4.202  26.435   3.265 -0.0319  0.0087 -0.0307
  615DDP     C1 3685  13.809  29.293  10.642 -0.0436  0.0417 -0.0079
  615DDP     P1 3686  14.165  29.451  10.323 -0.0877 -0.0048  0.5273
  615DDP     P2 3687  14.217  29.343  10.942  0.1727 -0.0815  0.1006
  615DDP     C2 3688  14.511  29.704  10.990 -0.1311 -0.0329 -0.1097
  615DDP     C3 3689  14.545  29.603  10.089  0.2382  0.2576  0.1753
  615DDP     C4 3690  13.478  29.205  10.804 -0.1475 -0.0611  0.0065
  616DDP     C1 3691   8.365   3.279  17.935  0.2860  0.0944 -0.0530
  616DDP     P1 3692   8.409   3.330  18.368  0.1366  0.1650 -0.1264
  616DDP     P2 3693   8.590   3.708  17.763 -0.1522 -0.1191  0.0684
  616DDP     C2 3694   8.864   4.021  17.705 -0.2980  0.1520  0.1397
  616DDP     C3 3695   8.134   3.363  18.752  0.1585 -0.1466  0.1134
  616DDP     C4 3696   8.215   2.859  17.791 -0.0482 -0.3363  0.2285
  617DDP     C1 3697  27.066   6.814   4.807 -0.0705  0.3129  0.3597
  617DDP     P1 3698  26.903   6.573   5.162  0.1201  0.0062  0.0781
  617DDP     P2 3699  27.133   7.193   4.604 -0.3709 -0.1428 -0.0949
  617DDP     C2 3700  27.036   7.410   4.243 -0.0675  0.1731 -0.0977
  617DDP     C3 3701  26.565   6.182   5.035 -0.2182  0.2930 -0.0767
  617DDP     C4 3702  27.342   6.547   4.537 -0.0473  0.0248 -0.3105
  618DDP     C1 3703   7.867   3.063   6.613  0.1751 -0.2235 -0.1059
  618DDP     P1 3704   7.705   3.510   6.357  0.2082 -0.1028 -0.1716
  618DDP     P2 3705   7.895   2.726   6.892 -0.0522 -0.0396  0.0514
  618DDP     C2 3706   7.667   2.415   7.143  0.1152 -0.0715  0.2454
  618DDP     C3 3707   7.365   3.701   6.154  0.3543 -0.1183  0.1108
  618DDP     C4 3708   8.293   3.034   6.654  0.0230  0.2555  0.2045
  619DDP     C1 3709  14.786  28.824  14.938 -0.0336  0.0947 -0.0071
  619DDP     P1 3710  14.471  29.170  14.656  0.0836  0.1067  0.3024
  619DDP     P2 3711  14.714  28.439  14.981  0.2460  0.1409  0.2128
  619DDP     C2 3712  14.523  28.107  15.211  0.2855  0.1911  0.1081
  619DDP     C3 3713  14.085  29.166  14.756 -0.1174  0.1376 -0.0859
  619DDP     C4 3714  15.026  29.106  15.266  0.2486  0.2087  0.0904
  620DDP     C1 3715  27.281  22.863  29.036 -0.2609 -0.0199 -0.0908
  620DDP     P1 3716  27.729  22.807  29.392 -0.1517 -0.1359  0.1044
  620DDP     P2 3717  27.009  22.867  29.447  0.2232  0.1785  0.1185
  620DDP     C2 3718  26.712  23.113  29.668  0.0687  0.1608 -0.3036
  620DDP     C3 3719  28.041  23.021  29.660  0.2269 -0.1444  0.0235
  620DDP     C4 3720  27.265  22.820  28.606  0.1376 -0.1498 -0.0286
  621DDP     C1 3721  24.193   6.950  10.347  0.2816 -0.1379 -0.1424
  621DDP     P1 3722  24.420   6.643  10.044 -0.1853 -0.2075 -0.2224
  621DDP     P2 3723  23.781   6.943  10.413  0.0813  0.2426  0.0900
  621DDP     C2 3724  23.505   6.925  10.133  0.2376 -0.0799  0.2398
  621DDP     C3 3725  24.304   6.204   9.901  0.0543  0.1389  0.0773
  621DDP     C4 3726  24.542   7.121  10.674 -0.1459 -0.0042  0.2166
  622DDP     C1 3727  10.444  13.123  24.633  0.3177  0.0671  0.1240
  622DDP     P1 3728  10.805  13.103  24.442  0.0066 -0.1779 -0.1915
  622DDP     P2 3729  10.274  13.431  24.340 -0.1498 -0.2752  0.0888
  622DDP     C2 3730  10.076  13.383  23.956 -0.3956 -0.1678  0.1196
  622DDP     C3 3731  11.204  12.809  24.385 -0.2617  0.1773  0.0167
  622DDP     C4 3732  10.252  12.943  24.995  0.0572 -0.2337 -0.2428
  623DDP     C1 3733  15.603  10.489  12.045 -0.3747 -0.0570 -0.1004
  623DDP     P1 3734  15.484  10.632  11.628  0.2808 -0.2345  0.0693
  623DDP     P2 3735  15.691  10.073  12.106 -0.1253  0.2508  0.4135
  623DDP     C2 3736  15.379   9.825  12.394 -0.0462  0.0453 -0.1112
  623DDP     C3 3737  15.267  10.966  11.517 -0.1717  0.3332 -0.0862
  623DDP     C4 3738  15.580  10.730  12.451  0.1429  0.0354  0.2878
  624DDP     C1 3739   4.522  10.489  20.118 -0.0498 -0.0568 -0.1080
  624DDP     P1 3740   4.420  10.047  20.296 -0.0734  0.1189 -0.0094
  624DDP     P2 3741   4.369  10.558  19.719  0.0699 -0.0718  0.0679
  624DDP     C2 3742   4.529  10.579  19.235  0.0898  0.0490  0.0411
  624DDP     C3 3743   4.254   9.974  20.690  0.3896 -0.2584  0.0947
  624DDP     C4 3744   4.848  10.795  20.324  0.0719 -0.1853  0.0856
  625DDP     C1 3745   7.207  23.510  28.813  0.1765 -0.2699 -0.0654
  625DDP     P1 3746   7.589  23.753  28.627 -0.2461 -0.1366  0.2052
  625DDP     P2 3747   6.852  23.697  28.598  0.0846  0.1068  0.0137
  625DDP     C2 3748   6.742  24.039  28.515  0.3067  0.0634 -0.0306
  625DDP     C3 3749   7.838  24.044  28.790 -0.2682 -0.0232  0.0754
  625DDP     C4 3750   7.520  23.304  29.270  0.1918  0.1782  0.1429
  626DDP     C1 3751   2.388  15.632   8.134  0.1083  0.0357 -0.0624
  626DDP     P1 3752   2.593  16.008   7.897 -0.2759 -0.1029  0.2594
  626DDP     P2 3753   2.003  15.676   8.262 -0.0709 -0.0714 -0.0874
  626DDP     C2 3754   1.725  15.537   8.580  0.0925  0.1289 -0.3256
  626DDP     C3 3755   2.837  15.983   7.496  0.0491 -0.0310  0.0953
  626DDP     C4 3756   2.763  15.431   8.202 -0.1992 -0.0443 -0.1176
  627DDP     C1 3757  16.274   3.124  15.867 -0.1033 -0.0073 -0.1817
  627DDP     P1 3758  15.997   3.229  16.143 -0.1244 -0.2219 -0.1572
  627DDP     P2 3759  15.989   2.802  15.854 -0.0705  0.2845 -0.1928
  627DDP     C2 3760  15.726   2.411  15.857  0.0027 -0.2244  0.1216
  627DDP     C3 3761  16.022   3.268  16.586  0.2014 -0.2940 -0.1179
  627DDP     C4 3762  16.672   3.335  15.863 -0.0948 -0.2357  0.1954
  628DDP     C1 3763   1.413   9.122  26.205 -0.0316  0.0197  0.4711
  628DDP     P1 3764   1.187   8.805  25.947 -0.0355  0.0278  0.0539
  628DDP     P2 3765   1.209   9.253  26.520 -0.2914 -0.2614  0.2769
  628DDP     C2 3766   0.801   9.410  26.547  0.0077 -0.1941  0.0866
  628DDP     C3 3767   0.672   8.773  25.967 -0.0077 -0.0117 -0.1951
  628DDP     C4 3768   1.740   9.380  26.116 -0.1402 -0.0030 -0.2278
  629DDP     C1 3769  24.085   0.963  27.991  0.1948 -0.1325 -0.1476
  629DDP     P1 3770  23.859   1.020  28.349  0.0520 -0.1322 -0.1028
  629DDP     P2 3771  24.002   1.080  27.529 -0.0199  0.1935 -0.0387
  629DDP     C2 3772  23.864   1.178  27.105  0.1092  0.1544  0.0124
  629DDP     C3 3773  23.734   1.299  28.623  0.2263  0.1759 -0.2056
  629DDP     C4 3774  24.379   0.700  28.023  0.2302 -0.4197  0.5119
  630DDP     C1 3775  17.035  17.573  19.741 -0.1252  0.0663  0.0383
  630DDP     P1 3776  17.401  17.388  19.528 -0.1656  0.1434 -0.0692
  630DDP     P2 3777  16.999  17.791  20.117  0.1674  0.0065 -0.2112
  630DDP     C2 3778  16.729  18.015  20.292  0.2335 -0.0972 -0.0556
  630DDP     C3 3779  17.408  16.923  19.447 -0.2050 -0.0983  0.2094
  630DDP     C4 3780  16.851  17.645  19.518  0.3029 -0.1128  0.0639
  631DDP     C1 3781  22.055  16.355  18.610 -0.0443 -0.0795 -0.0847
  631DDP     P1 3782  22.413  16.270  19.004 -0.0347  0.0321 -0.0121
  631DDP     P2 3783  22.194  16.049  18.326 -0.1137 -0.3483  0.0518
  631DDP     C2 3784  22.525  16.024  17.969  0.0968 -0.0130 -0.2818
  631DDP     C3 3785  22.682  16.014  19.394 -0.4067  0.0910  0.3988
  631DDP     C4 3786  21.637  16.538  18.680 -0.1876  0.3314 -0.0610
  632DDP     C1 3787   8.690  25.256  14.020 -0.3197  0.0769  0.1035
  632DDP     P1 3788   8.781  24.843  13.726 -0.0457 -0.0175 -0.2865
  632DDP     P2 3789   9.147  25.262  14.119 -0.2188  0.2211 -0.1061
  632DDP     C2 3790   9.509  25.457  14.222  0.1868 -0.2543 -0.0119
  632DDP     C3 3791   9.021  24.708  13.441 -0.1432 -0.0433  0.0108
  632DDP     C4 3792   8.282  25.458  13.896 -0.2054  0.1519  0.2223
  633DDP     C1 3793   5.534  25.625   1.758  0.0771 -0.4074  0.0621
  633DDP     P1 3794   5.347  25.401   1.981  0.0915 -0.0771  0.0206
  633DDP     P2 3795   5.784  25.670   1.285 -0.0339  0.0283  0.1169
  633DDP     C2 3796   6.090  25.862   1.118  0.1259  0.3986  0.0256
  633DDP     C3 3797   5.293  25.298   2.458 -0.1596  0.3368 -0.3328
  633DDP     C4 3798   5.547  26.081   1.940 -0.1651  0.3211  0.2811
  634DDP     C1 3799  21.205  21.771  26.259 -0.0776  0.0763  0.1788
  634DDP     P1 3800  21.512  21.739  26.084 -0.1858  0.1448  0.1773
  634DDP     P2 3801  21.093  21.414  26.142  0.0467 -0.0490  0.0428
  634DDP     C2 3802  20.860  21.231  25.662 -0.0942  0.2410 -0.0744
  634DDP     C3 3803  21.913  21.670  25.808 -0.2910  0.1854  0.1536
  634DDP     C4 3804  20.982  22.134  26.519  0.0811  0.0546 -0.2662
  635DDP     C1 3805  18.629   4.350  25.539  0.0031 -0.1501 -0.2741
  635DDP     P1 3806  18.685   4.253  26.035 -0.1701  0.0805 -0.1082
  635DDP     P2 3807  18.297   4.625  25.458  0.0455 -0.0398 -0.1628
  635DDP     C2 3808  18.040   4.964  25.649  0.0248  0.2166  0.5114
  635DDP     C3 3809  18.770   4.048  26.453 -0.1162  0.2054  0.0435
  635DDP     C4 3810  18.876   4.035  25.188 -0.0095  0.0837  0.1826
  636DDP     C1 3811  19.700  24.175  21.184  0.3526  0.2216  0.0499
  636DDP     P1 3812  19.390  23.953  20.937  0.0568  0.2169  0.0989
  636DDP     P2 3813  20.029  23.952  21.447  0.0165  0.0772 -0.1107
  636DDP     C2 3814  20.251  23.696  21.670  0.0083 -0.1329  0.0330
  636DDP     C3 3815  19.269  23.631  20.606  0.0202  0.4340 -0.1751
  636DDP     C4 3816  19.720  24.561  21.408  0.0395  0.0953  0.1956
  637DDP     C1 3817  19.095  26.751  13.009 -0.0795  0.1959 -0.2481
  637DDP     P1 3818  18.968  27.250  12.978  0.0387 -0.0731 -0.0140
  637DDP     P2 3819  19.343  26.615  13.406  0.3791  0.1800  0.1228
  637DDP     C2 3820  19.400  26.764  13.794  0.0289  0.0872  0.0892
  637DDP     C3 3821  18.702  27.414  13.245 -0.4112 -0.1430 -0.1716
  637DDP     C4 3822  18.943  26.426  12.607  0.1329  0.2032  0.0229
  638DDP     C1 3823  13.618   4.376   3.664  0.3568 -0.1865  0.0179
  638DDP     P1 3824  13.803   4.076   3.970  0.1025 -0.5161 -0.0361
  638DDP     P2 3825  13.086   4.204   3.673  0.1582  0.2156  0.0244
  638DDP     C2 3826  12.737   3.910   3.638 -0.0447  0.1157  0.1015
  638DDP     C3 3827  14.047   3.829   4.139 -0.1164  0.0946  0.5632
  638DDP     C4 3828  13.957   4.473   3.523  0.3020 -0.0222  0.0315
  639DDP     C1 3829  23.048  22.661  13.522 -0.0217 -0.3604 -0.3530
  639DDP     P1 3830  22.783  22.659  13.150  0.0405 -0.0603 -0.2260
  639DDP     P2 3831  22.866  22.711  13.933 -0.0586 -0.0471  0.5575
  639DDP     C2 3832  22.675  22.818  14.271 -0.3063 -0.0868 -0.4635
  639DDP     C3 3833  22.555  22.952  12.884  0.1980 -0.0197  0.0952
  639DDP     C4 3834  23.495  22.550  13.582  0.3523 -0.0277 -0.0040
  640DDP     C1 3835   3.637  24.595  16.275  0.0199  0.3708  0.0364
  640DDP     P1 3836   3.263  24.625  16.601  0.2035  0.1187  0.0710
  640DDP     P2 3837   3.791  24.160  16.107  0.2342 -0.0688 -0.0862
  640DDP     C2 3838   4.125  24.049  15.827 -0.1224 -0.1935 -0.1054
  640DDP     C3 3839   2.799  24.775  16.744 -0.1467 -0.1342 -0.0154
  640DDP     C4 3840   3.757  24.910  16.102 -0.0396 -0.4414  0.1249
  641DDP     C1 3841  12.265  24.017  11.994  0.0495 -0.1257 -0.2797
  641DDP     P1 3842  11.942  24.266  11.835  0.1814 -0.1734  0.1239
  641DDP     P2 3843  12.270  24.082  12.455 -0.1912  0.0630  0.0731
  641DDP     C2 3844  12.399  24.497  12.535 -0.1977  0.3030 -0.1467
  641DDP     C3 3845  11.705  24.602  11.717  0.4852  0.0133 -0.2296
  641DDP     C4 3846  12.519  23.684  11.764  0.0562 -0.0926 -0.2375
  642DDP     C1 3847  28.265  14.269  24.178  0.1305 -0.3920 -0.2072
  642DDP     P1 3848  28.018  14.351  23.801 -0.1459  0.1555  0.0371
  642DDP     P2 3849  28.060  13.936  24.653  0.0951 -0.1097  0.1509
  642DDP     C2 3850  28.044  13.558  24.661 -0.1216 -0.5710  0.1006
  642DDP     C3 3851  27.858  14.498  23.414  0.0396  0.0790  0.2508
  642DDP     C4 3852  28.512  14.666  24.284 -0.1239  0.0365 -0.4646
  643DDP     C1 3853  13.060  20.562  24.393  0.0728  0.0594 -0.0555
  643DDP     P1 3854  13.390  20.385  24.112 -0.0209  0.0188 -0.3249
  643DDP     P2 3855  13.060  20.784  24.627  0.2113  0.0340  0.2248
  643DDP     C2 3856  12.988  21.110  24.875 -0.1546  0.0914 -0.2339
  643DDP     C3 3857  13.758  20.412  23.811 -0.0066 -0.1375  0.0234
  643DDP     C4 3858  12.613  20.549  24.326  0.3058  0.1189 -0.1855
  644DDP     C1 3859   6.417  25.786   6.733  0.0428  0.1745  0.0928
  644DDP     P1 3860   6.642  26.136   6.817 -0.2488 -0.0015 -0.4149
  644DDP     P2 3861   6.213  25.846   7.074 -0.1300 -0.1330  0.0912
  644DDP     C2 3862   5.781  25.757   7.012  0.1150  0.0586 -0.0313
  644DDP     C3 3863   6.664  26.238   7.130 -0.2787  0.1608  0.1182
  644DDP     C4 3864   6.322  25.745   6.288 -0.1577 -0.0358  0.0948
  645DDP     C1 3865   4.351  23.113  24.469  0.2273 -0.2885 -0.0525
  645DDP     P1 3866   4.648  23.072  24.578 -0.0871  0.2583 -0.0884
  645DDP     P2 3867   4.206  22.867  24.329  0.2330  0.0080 -0.1086
  645DDP     C2 3868   3.922  22.689  24.042 -0.2429  0.1484 -0.4165
  645DDP     C3 3869   4.886  23.260  24.941 -0.0259  0.1463 -0.2646
  645DDP     C4 3870   4.096  23.142  24.865 -0.0312 -0.1510 -0.1821
  646DDP     C1 3871   8.740   2.099  23.913  0.0921  0.1336 -0.1205
  646DDP     P1 3872   8.486   1.764  23.988  0.0824  0.2826  0.3761
  646DDP     P2 3873   9.018   2.088  23.610  0.0109  0.0638  0.0248
  646DDP     C2 3874   9.191   2.023  23.162 -0.1672  0.0086 -0.0112
  646DDP     C3 3875   8.524   1.505  24.298 -0.2190  0.0827  0.2565
  646DDP     C4 3876   8.763   2.561  24.080  0.1473  0.0298  0.0164
  647DDP     C1 3877  18.840   6.566  20.601 -0.0115  0.0832 -0.3398
  647DDP     P1 3878  18.806   6.549  20.148 -0.3351 -0.2046  0.1046
  647DDP     P2 3879  18.534   6.823  20.761 -0.0136 -0.0394 -0.1087
  647DDP     C2 3880  18.375   7.158  21.032  0.2232  0.1386  0.2425
  647DDP     C3 3881  18.986   6.708  19.755 -0.2413  0.0314  0.1661
  647DDP     C4 3882  19.117   6.455  20.968 -0.1449 -0.3387  0.0286
  648DDP     C1 3883  24.215  14.470  17.718  0.1226 -0.0284  0.3128
  648DDP     P1 3884  24.067  14.871  17.837 -0.0198  0.0001 -0.1314
  648DDP     P2 3885  24.022  14.514  17.345 -0.1925 -0.1379 -0.0484
  648DDP     C2 3886  24.204  14.694  16.920  0.1944 -0.2390 -0.1419
  648DDP     C3 3887  23.671  15.119  17.788 -0.0756  0.1396 -0.1991
  648DDP     C4 3888  24.320  14.101  18.010  0.0647 -0.2390  0.0126
  649DDP     C1 3889   6.538  23.517  26.310  0.0059  0.0860  0.2672
  649DDP     P1 3890   6.380  23.594  25.882  0.1878 -0.1136  0.3021
  649DDP     P2 3891   6.147  23.234  26.539 -0.1432  0.0340  0.0531
  649DDP     C2 3892   6.069  23.082  26.950  0.1249 -0.2635  0.1084
  649DDP     C3 3893   6.528  23.331  25.542  0.0446  0.1456  0.0667
  649DDP     C4 3894   6.743  23.786  26.529 -0.6057 -0.1217 -0.1841
  650DDP     C1 3895  17.658  10.992  19.099 -0.2690  0.1576 -0.2273
  650DDP     P1 3896  18.008  10.783  18.885 -0.1965  0.0009 -0.0161
  650DDP     P2 3897  17.261  10.852  19.329  0.0749 -0.1203  0.2173
  650DDP     C2 3898  16.875  10.805  19.246 -0.1651  0.0024 -0.0719
  650DDP     C3 3899  18.198  10.434  18.657 -0.2296  0.0215 -0.1177
  650DDP     C4 3900  17.659  11.349  18.914  0.4027 -0.1456 -0.1905
  651DDP     C1 3901  22.116  19.997  29.256 -0.1700 -0.1888 -0.0923
  651DDP     P1 3902  21.814  20.015  28.964  0.2281 -0.0338 -0.3294
  651DDP     P2 3903  22.281  20.192  29.599 -0.0871  0.1716  0.2649
  651DDP     C2 3904  22.402  20.609  29.669  0.0491 -0.3448 -0.1728
  651DDP     C3 3905  21.737  20.328  28.620  0.0347  0.1898 -0.0145
  651DDP     C4 3906  22.340  19.674  29.567 -0.1594 -0.1603  0.0402
  652DDP     C1 3907   5.956  10.720   8.476 -0.1042  0.1702 -0.0030
  652DDP     P1 3908   6.191  10.665   8.876 -0.1234 -0.2048 -0.3790
  652DDP     P2 3909   6.165  10.643   8.087 -0.1804 -0.1793  0.1518
  652DDP     C2 3910   6.317  10.549   7.688 -0.0670 -0.0228  0.1133
  652DDP     C3 3911   6.496  10.958   9.121  0.2967  0.1450  0.2213
  652DDP     C4 3912   5.574  10.986   8.411  0.2672  0.0145  0.0797
  653DDP     C1 3913  20.707   3.375  18.799  0.0219  0.2641 -0.2528
  653DDP     P1 3914  20.393   3.023  18.863 -0.1096  0.2261 -0.1767
  653DDP     P2 3915  21.202   3.464  18.707  0.1407  0.0738  0.0105
  653DDP     C2 3916  21.460   3.675  18.398  0.0216  0.2103 -0.1376
  653DDP     C3 3917  20.013   2.852  18.938  0.2177 -0.0368 -0.1797
  653DDP     C4 3918  20.511   3.796  18.874  0.1276 -0.3572 -0.0787
  654DDP     C1 3919  26.793   0.007   1.417 -0.4035 -0.1228 -0.0865
  654DDP     P1 3920  26.991  30.012   1.433  0.3415 -0.2609  0.1357
  654DDP     P2 3921  26.569  30.065   1.013 -0.3071  0.0675 -0.1177
  654DDP     C2 3922  26.411  29.832   0.740 -0.0246 -0.1272  0.1952
  654DDP     C3 3923  27.307  29.673   1.239 -0.2482 -0.0264  0.0214
  654DDP     C4 3924  26.558   0.485   1.387  0.2050  0.1580 -0.0574
  655DDP     C1 3925  25.659  21.369   1.652 -0.2157 -0.0432 -0.0287
  655DDP     P1 3926  26.116  21.391   1.591 -0.0662 -0.0052  0.1228
  655DDP     P2 3927  25.487  20.989   1.874  0.0567 -0.1080  0.0535
  655DDP     C2 3928  25.183  20.682   1.824  0.0293  0.0259 -0.1580
  655DDP     C3 3929  26.512  21.199   1.740 -0.2333 -0.1607  0.1260
  655DDP     C4 3930  25.453  21.780   1.419  0.2810 -0.3393  0.0621
  656DDP     C1 3931  26.428   7.088  24.064  0.0799 -0.1394  0.0775
  656DDP     P1 3932  26.805   6.911  24.128 -0.0545 -0.0285  0.2673
  656DDP     P2 3933  26.072   7.080  24.360  0.1043 -0.1016 -0.0093
  656DDP     C2 3934  25.994   7.172  24.827  0.2291  0.0314 -0.1966
  656DDP     C3 3935  26.865   6.485  24.044 -0.0608  0.0225  0.3358
  656DDP     C4 3936  26.322   7.333  23.589 -0.0614 -0.4162  0.0248
  657DDP     C1 3937  23.208   1.550   1.163 -0.1977 -0.1266 -0.1259
  657DDP     P1 3938  23.312   1.922   0.994 -0.3297 -0.0347 -0.0518
  657DDP     P2 3939  23.027   1.414   0.853 -0.0388 -0.1404  0.1506
  657DDP     C2 3940  22.601   1.281   1.005 -0.0627 -0.2629 -0.1493
  657DDP     C3 3941  23.105   2.355   1.099 -0.2306  0.2618 -0.2048
  657DDP     C4 3942  23.022   1.301   1.477  0.0871  0.0975  0.0922
  658DDP     C1 3943  20.048  21.647  29.344 -0.1095  0.3767 -0.4132
  658DDP     P1 3944  19.971  21.305  29.541 -0.2344  0.1535  0.1023
  658DDP     P2 3945  20.061  21.736  28.880 -0.1122 -0.2089 -0.2031
  658DDP     C2 3946  20.352  21.907  28.504 -0.1204 -0.0808 -0.2691
  658DDP     C3 3947  19.959  20.898  29.595 -0.3570  0.0591  0.2149
  658DDP     C4 3948  20.306  21.926  29.719  0.1734  0.2438 -0.1362
  659DDP     C1 3949  19.968   9.135   0.767 -0.1284  0.1278 -0.0318
  659DDP     P1 3950  20.268   8.940   0.979 -0.0544  0.3530  0.2153
  659DDP     P2 3951  20.093   9.582   0.712  0.4652  0.1361  0.3318
  659DDP     C2 3952  20.427   9.864   0.874 -0.2646 -0.0135  0.1719
  659DDP     C3 3953  20.564   8.623   0.837  0.1746 -0.1407 -0.3110
  659DDP     C4 3954  19.699   8.846   0.615 -0.0227  0.0758 -0.0361
  660DDP     C1 3955   4.757   0.029  30.298  0.3860 -0.0539 -0.1418
  660DDP     P1 3956   4.901  29.889  30.098 -0.0091  0.0071 -0.1908
  660DDP     P2 3957   4.361   0.040   0.070 -0.3610 -0.2335  0.2612
  660DDP     C2 3958   4.113   0.373   0.227 -0.1316 -0.2605  0.0649
  660DDP     C3 3959   5.194  29.666  29.770  0.1819 -0.0358 -0.1813
  660DDP     C4 3960   5.059   0.297  30.181 -0.2340 -0.0885  0.0490
  661DDP     C1 3961   9.953  19.408  10.248 -0.0038 -0.0828  0.0676
  661DDP     P1 3962  10.319  19.200  10.366  0.1458  0.3886 -0.0165
  661DDP     P2 3963   9.845  19.422   9.786 -0.1075 -0.1835 -0.3042
  661DDP     C2 3964   9.923  19.793   9.466  0.0471 -0.0457  0.2247
  661DDP     C3 3965  10.514  18.889  10.528  0.0809  0.3848 -0.3751
  661DDP     C4 3966   9.784  19.564  10.618 -0.1062 -0.4341 -0.1662
  662DDP     C1 3967   4.059  29.551  14.788  0.0845  0.0251  0.1287
  662DDP     P1 3968   4.502  29.796  14.740  0.2644  0.1015 -0.0532
  662DDP     P2 3969   3.728  29.869  14.674 -0.0926  0.1494 -0.2581
  662DDP     C2 3970   3.709  30.117  14.310  0.0737 -0.0451 -0.1585
  662DDP     C3 3971   4.930  30.050  14.726 -0.1539 -0.0747  0.1868
  662DDP     C4 3972   4.081  29.112  14.838  0.2583  0.1893  0.3028
  663DDP     C1 3973  21.690  28.325   4.912 -0.0797  0.0131 -0.3016
  663DDP     P1 3974  22.071  28.167   5.083 -0.3108 -0.0193 -0.3835
  663DDP     P2 3975  21.576  28.737   4.812  0.0647 -0.3373  0.2918
  663DDP     C2 3976  21.750  29.123   4.478 -0.0050  0.0572 -0.1047
  663DDP     C3 3977  22.421  28.239   5.380 -0.2703  0.0742 -0.2890
  663DDP     C4 3978  21.573  28.031   4.582  0.2068 -0.2084  0.0140
  664DDP     C1 3979  25.132   6.652  13.099 -0.0169  0.1831 -0.1577
  664DDP     P1 3980  25.170   6.225  13.429  0.0275 -0.0624 -0.0302
  664DDP     P2 3981  24.806   6.413  12.815  0.1280  0.1317 -0.2388
  664DDP     C2 3982  24.488   6.149  12.733  0.0361  0.2155  0.1287
  664DDP     C3 3983  24.869   5.822  13.537  0.1041  0.0637 -0.4901
  664DDP     C4 3984  25.448   7.026  13.009 -0.2279  0.3120 -0.0410
  665DDP     C1 3985   5.035  16.239  27.781 -0.1604  0.0064 -0.0195
  665DDP     P1 3986   5.459  16.324  28.002 -0.0378 -0.0052  0.0997
  665DDP     P2 3987   4.877  15.890  27.681  0.0962 -0.0165  0.0789
  665DDP     C2 3988   4.645  15.597  27.521 -0.1122 -0.2392 -0.2124
  665DDP     C3 3989   5.597  16.383  27.616  0.0573 -0.2238  0.1988
  665DDP     C4 3990   4.635  16.430  27.858 -0.0714 -0.1382  0.2431
  666DDP     C1 3991   0.515  23.995  28.866  0.0508 -0.0997  0.0857
  666DDP     P1 3992   1.038  23.954  29.080  0.1646 -0.1101  0.0088
  666DDP     P2 3993   0.340  24.145  29.227  0.1181 -0.1131  0.2633
  666DDP     C2 3994   0.181  24.312  29.578  0.0924  0.1214 -0.1294
  666DDP     C3 3995   1.437  23.981  29.174 -0.0694  0.0224  0.0089
  666DDP     C4 3996   0.447  23.745  28.436  0.0489 -0.0095  0.0036
  667DDP     C1 3997   5.211  19.368  15.189  0.0431 -0.0851 -0.1114
  667DDP     P1 3998   4.823  19.500  15.398  0.0328  0.3260  0.1859
  667DDP     P2 3999   5.401  18.947  15.030  0.1486 -0.2957  0.0535
  667DDP     C2 4000   5.620  18.663  15.082  0.1625  0.0233 -0.3183
  667DDP     C3 4001   4.499  19.828  15.202  0.0805 -0.1716  0.3159
  667DDP     C4 4002   5.472  19.650  14.970  0.0941 -0.1461 -0.2501
  668DDP     C1 4003   7.875  21.384  12.192  0.1110 -0.0143  0.2589
  668DDP     P1 4004   8.307  21.144  12.394  0.0946  0.0169  0.2714
  668DDP     P2 4005   7.884  21.878  12.261  0.2504 -0.1657 -0.1280
  668DDP     C2 4006   7.835  22.267  12.178 -0.3235  0.0090  0.1099
  668DDP     C3 4007   8.685  20.964  12.497 -0.0190 -0.2021 -0.2252
  668DDP     C4 4008   7.878  21.261  11.760  0.1128  0.2721 -0.0315
  669DDP     C1 4009   4.312   1.028   0.916 -0.3571 -0.0799  0.1329
  669DDP     P1 4010   4.464   1.324   1.310 -0.0727  0.0333 -0.0254
  669DDP     P2 4011   3.811   0.937   1.016 -0.0007 -0.1099  0.0417
  669DDP     C2 4012   3.494   0.911   0.773 -0.0935 -0.2418 -0.0178
  669DDP     C3 4013   4.690   1.737   1.257  0.1124  0.2103  0.1033
  669DDP     C4 4014   4.679   0.900   0.548 -0.1725 -0.1196 -0.1783
  670DDP     C1 4015  21.846  27.682  27.685 -0.0978 -0.0264  0.0464
  670DDP     P1 4016  21.939  28.077  27.510 -0.3945  0.1388  0.2324
  670DDP     P2 4017  21.410  27.725  27.886 -0.0030 -0.2556  0.2966
  670DDP     C2 4018  20.993  27.546  27.929 -0.0036 -0.1065 -0.0355
  670DDP     C3 4019  22.330  28.173  27.271 -0.2158 -0.1126  0.1890
  670DDP     C4 4020  22.172  27.297  27.764 -0.0501 -0.2020 -0.0486
  671DDP     C1 4021  29.315   8.670  15.312 -0.0561 -0.2042 -0.2449
  671DDP     P1 4022  29.257   9.194  15.155  0.3712  0.1198  0.1646
  671DDP     P2 4023  29.323   8.802  15.763  0.0952 -0.0136  0.0287
  671DDP     C2 4024  29.542   8.782  16.087  0.1092 -0.2767 -0.2511
  671DDP     C3 4025  29.380   9.652  14.934 -0.1849 -0.0387  0.0431
  671DDP     C4 4026  29.119   8.219  15.142 -0.4563 -0.3940  0.1692
  672DDP     C1 4027   9.153  19.680  24.979 -0.1056  0.1109 -0.3407
  672DDP     P1 4028   9.475  19.850  24.705  0.2086 -0.1929 -0.2501
  672DDP     P2 4029   8.787  19.953  25.093  0.0849 -0.0657  0.1816
  672DDP     C2 4030   8.575  20.321  25.199 -0.1760  0.0301  0.1566
  672DDP     C3 4031   9.869  19.794  24.454  0.2937 -0.1024  0.0119
  672DDP     C4 4032   9.247  19.315  25.206 -0.2890  0.2013 -0.2193
  673DDP     C1 4033   4.105  29.243  25.880  0.0266 -0.0842 -0.1644
  673DDP     P1 4034   3.818  28.933  25.681  0.3028 -0.1216 -0.0369
  673DDP     P2 4035   4.572  29.254  25.738 -0.2663  0.0116  0.2848
  673DDP     C2 4036   4.740  29.163  25.328  0.1061 -0.0706 -0.2280
  673DDP     C3 4037   3.923  28.599  25.449 -0.0438  0.1426  0.1234
  673DDP     C4 4038   3.911  29.567  26.067 -0.0081  0.0684  0.2641
  674DDP     C1 4039  17.926  13.978  28.313 -0.0855 -0.0338 -0.2769
  674DDP     P1 4040  17.486  13.973  28.240 -0.0243  0.0442 -0.1411
  674DDP     P2 4041  18.223  14.284  28.506  0.1387  0.1768  0.1438
  674DDP     C2 4042  18.003  14.702  28.734 -0.0466  0.1354 -0.0256
  674DDP     C3 4043  16.953  13.964  28.285  0.4235 -0.2265  0.1042
  674DDP     C4 4044  18.248  13.820  28.079 -0.0404  0.0887 -0.0735
  675DDP     C1 4045  14.864  18.156  11.911  0.2696  0.1599 -0.0139
  675DDP     P1 4046  15.138  17.777  11.584 -0.5179  0.0311  0.1066
  675DDP     P2 4047  15.175  18.438  12.009  0.1323  0.1187 -0.1634
  675DDP     C2 4048  15.599  18.415  12.241  0.1100 -0.0001 -0.0717
  675DDP     C3 4049  15.223  17.413  11.128 -0.0022  0.0336 -0.1964
  675DDP     C4 4050  14.617  18.052  12.165  0.1620  0.1764  0.2052
  676DDP     C1 4051  17.890  22.152  10.116 -0.0661  0.1037  0.3511
  676DDP     P1 4052  17.918  22.329  10.614  0.0879  0.0329 -0.0464
  676DDP     P2 4053  17.824  22.418   9.782 -0.0796 -0.0845 -0.2119
  676DDP     C2 4054  17.739  22.815   9.642 -0.1030 -0.1144 -0.0746
  676DDP     C3 4055  17.742  22.474  11.017 -0.1825  0.5352 -0.0848
  676DDP     C4 4056  17.991  21.769   9.919 -0.0706  0.5578  0.0144
  677DDP     C1 4057  26.973  19.376  25.721  0.1194 -0.1214 -0.0304
  677DDP     P1 4058  27.057  19.698  25.389  0.1415 -0.2732  0.2354
  677DDP     P2 4059  27.356  19.369  25.953  0.0209  0.2494 -0.0477
  677DDP     C2 4060  27.440  19.400  26.394  0.0119  0.0200 -0.1817
  677DDP     C3 4061  27.004  20.002  25.093  0.0544 -0.0685 -0.1305
  677DDP     C4 4062  26.532  19.223  25.832 -0.2253  0.0067  0.2516
  678DDP     C1 4063   8.389  22.042   8.206 -0.0380 -0.2337 -0.0298
  678DDP     P1 4064   8.502  22.421   8.160 -0.0418  0.1913  0.0303
  678DDP     P2 4065   8.168  21.868   7.812  0.2442 -0.2220 -0.2123
  678DDP     C2 4066   7.936  22.040   7.402  0.3283  0.2865  0.1110
  678DDP     C3 4067   8.812  22.650   7.872  0.0491 -0.1503  0.1301
  678DDP     C4 4068   8.365  21.886   8.616  0.0086 -0.2369 -0.1002
  679DDP     C1 4069  23.056  17.300  28.435  0.0162 -0.1986 -0.0431
  679DDP     P1 4070  23.093  17.080  28.056  0.1524  0.1624 -0.1925
  679DDP     P2 4071  23.343  17.332  28.775 -0.2929  0.0136 -0.1591
  679DDP     C2 4072  23.290  17.129  29.175 -0.1090 -0.1088  0.1673
  679DDP     C3 4073  23.297  16.913  27.699  0.1804 -0.0738  0.1651
  679DDP     C4 4074  22.653  17.545  28.536 -0.0366 -0.0853 -0.3408
  680DDP     C1 4075   1.317  13.907  10.388  0.0895  0.3135 -0.0474
  680DDP     P1 4076   1.511  13.562  10.113  0.0057 -0.1649 -0.0626
  680DDP     P2 4077   1.390  14.248  10.096 -0.0752  0.0088 -0.1392
  680DDP     C2 4078   1.209  14.603  10.077  0.0147 -0.4277  0.0142
  680DDP     C3 4079   1.492  13.485   9.659 -0.2582 -0.2025 -0.0238
  680DDP     C4 4080   1.004  13.613  10.361 -0.3974  0.0810 -0.2304
  681DDP     C1 4081  14.677   2.058  23.263  0.0660  0.3185  0.0303
  681DDP     P1 4082  14.173   2.067  23.278 -0.0793  0.2468  0.0554
  681DDP     P2 4083  14.860   1.610  23.270 -0.0618  0.1923  0.2942
  681DDP     C2 4084  14.711   1.213  23.114  0.1037  0.3743  0.2130
  681DDP     C3 4085  13.765   2.028  23.503 -0.1942 -0.2881  0.0331
  681DDP     C4 4086  14.772   2.435  23.421  0.0924  0.1870 -0.0356
  682DDP     C1 4087  14.559  21.194  10.268 -0.0125  0.1608  0.1520
  682DDP     P1 4088  14.233  20.895  10.107  0.0283  0.2948 -0.0746
  682DDP     P2 4089  14.722  21.519   9.917 -0.0895  0.1805  0.0686
  682DDP     C2 4090  14.679  21.870   9.646 -0.0457  0.1722  0.1684
  682DDP     C3 4091  13.972  20.806   9.766  0.0764  0.2896 -0.2393
  682DDP     C4 4092  14.920  21.021  10.573  0.0474 -0.1196  0.3487
  683DDP     C1 4093   5.608   0.039   9.502 -0.0127 -0.0618 -0.1825
  683DDP     P1 4094   5.772   0.397   9.819 -0.2465 -0.2531 -0.0660
  683DDP     P2 4095   5.828  30.202   9.118 -0.0984 -0.0495 -0.1801
  683DDP     C2 4096   5.716  30.089   8.753  0.1231  0.2797 -0.0757
  683DDP     C3 4097   5.989   0.545  10.133  0.1197  0.2125 -0.2587
  683DDP     C4 4098   5.249  30.192   9.542  0.2323  0.0462 -0.2353
  684DDP     C1 4099  10.147   3.612   2.584  0.3002 -0.0485  0.0632
  684DDP     P1 4100  10.488   3.547   2.950 -0.2604 -0.1512  0.2446
  684DDP     P2 4101   9.813   3.817   2.583 -0.0689 -0.0226 -0.1630
  684DDP     C2 4102   9.471   4.163   2.539 -0.0616  0.0424 -0.1329
  684DDP     C3 4103  10.749   3.582   3.278  0.0136  0.1881  0.1945
  684DDP     C4 4104  10.308   3.569   2.120 -0.0202  0.2703 -0.1671
  685DDP     C1 4105  24.558  17.045  21.720  0.1623  0.1077  0.0801
  685DDP     P1 4106  24.763  16.929  21.270 -0.1004  0.1445  0.2851
  685DDP     P2 4107  24.656  16.550  21.900 -0.2917 -0.2536 -0.4218
  685DDP     C2 4108  24.936  16.253  22.149  0.1574 -0.0928 -0.1859
  685DDP     C3 4109  24.675  16.821  20.863 -0.0861 -0.2568 -0.0617
  685DDP     C4 4110  24.334  17.414  21.825  0.1553  0.0294 -0.0911
  686DDP     C1 4111  10.392   4.332  11.003  0.3033 -0.4362 -0.1511
  686DDP     P1 4112  10.228   4.699  11.193 -0.3331 -0.1017 -0.2175
  686DDP     P2 4113  10.097   4.021  11.022  0.1457 -0.1479 -0.1171
  686DDP     C2 4114   9.739   3.612  10.981  0.1030 -0.2152  0.0687
  686DDP     C3 4115  10.205   4.925  11.612  0.3645  0.1305  0.1654
  686DDP     C4 4116  10.756   4.403  10.702 -0.0039  0.1681  0.0554
  687DDP     C1 4117   5.117  17.299  22.341 -0.0687 -0.2256 -0.0329
  687DDP     P1 4118   5.249  17.713  22.153  0.4248  0.1701 -0.1109
  687DDP     P2 4119   4.844  16.973  22.205 -0.1860 -0.2229 -0.1373
  687DDP     C2 4120   4.559  16.718  22.480 -0.0533 -0.2216 -0.1047
  687DDP     C3 4121   5.494  17.994  21.888  0.0145 -0.0104 -0.1223
  687DDP     C4 4122   5.458  17.121  22.635 -0.0386  0.0046  0.2427
  688DDP     C1 4123  10.896   5.831  19.455 -0.1274 -0.0278  0.0795
  688DDP     P1 4124  10.734   5.502  19.642  0.2467 -0.2687  0.1730
  688DDP     P2 4125  10.659   6.252  19.464 -0.3408  0.0927  0.0405
  688DDP     C2 4126  10.620   6.587  19.233 -0.1113 -0.1959  0.0163
  688DDP     C3 4127  10.588   5.083  19.500 -0.0763 -0.2331 -0.0711
  688DDP     C4 4128  11.154   5.827  19.147 -0.0778 -0.0388 -0.1759
  689DDP     C1 4129   6.838  26.921   8.546 -0.1768 -0.1366  0.1078
  689DDP     P1 4130   6.843  26.775   8.053 -0.1844  0.2933 -0.4417
  689DDP     P2 4131   6.448  27.070   8.864  0.3348  0.1854 -0.1436
  689DDP     C2 4132   6.415  27.201   9.338 -0.1145 -0.6101  0.1493
  689DDP     C3 4133   6.631  27.029   7.684  0.1911  0.0082  0.0555
  689DDP     C4 4134   7.168  26.932   8.763  0.0434  0.2630  0.4822
  690DDP     C1 4135  16.933   4.434  14.588  0.0111 -0.0340 -0.2907
  690DDP     P1 4136  16.724   4.706  14.900 -0.0853  0.0542 -0.0508
  690DDP     P2 4137  16.873   4.365  14.184 -0.2983  0.0990 -0.0706
  690DDP     C2 4138  17.152   4.467  13.850 -0.1879 -0.2815  0.0949
  690DDP     C3 4139  16.419   5.041  14.755  0.0534 -0.1045  0.0521
  690DDP     C4 4140  17.330   4.295  14.782 -0.0983  0.1120  0.0033
  691DDP     C1 4141   7.428   5.315  10.223 -0.1446  0.1760  0.5072
  691DDP     P1 4142   7.071   5.268  10.064  0.1543 -0.0710 -0.1213
  691DDP     P2 4143   7.691   5.048  10.370 -0.0733  0.0513  0.0615
  691DDP     C2 4144   7.980   4.743  10.456  0.1898 -0.1372  0.0025
  691DDP     C3 4145   6.593   5.331  10.148  0.1917  0.2911  0.1184
  691DDP     C4 4146   7.711   5.648  10.447  0.0980 -0.1108 -0.3110
  692DDP     C1 4147   6.304   8.091   3.866  0.1863 -0.0075 -0.1565
  692DDP     P1 4148   6.222   7.688   3.862  0.1035 -0.1883  0.0049
  692DDP     P2 4149   6.476   8.231   3.426  0.2230 -0.0961 -0.1097
  692DDP     C2 4150   6.501   8.478   3.066 -0.0646  0.2857  0.0768
  692DDP     C3 4151   6.018   7.219   3.902  0.1620  0.0240 -0.1657
  692DDP     C4 4152   6.418   8.202   4.365 -0.0861 -0.1203  0.0318
  693DDP     C1 4153   1.522   3.277  10.423 -0.4660  0.0398  0.0073
  693DDP     P1 4154   1.709   3.690  10.329  0.0045 -0.1175  0.0622
  693DDP     P2 4155   1.609   3.158  10.879  0.0062 -0.1896 -0.0368
  693DDP     C2 4156   1.637   2.767  11.072  0.0946 -0.1604  0.0421
  693DDP     C3 4157   2.114   3.961  10.167 -0.0143  0.0910 -0.1782
  693DDP     C4 4158   1.064   3.286  10.307 -0.1613  0.0202  0.0506
  694DDP     C1 4159   3.246   3.300   3.515 -0.0136 -0.1198 -0.0917
  694DDP     P1 4160   2.755   3.383   3.413 -0.1672  0.2278 -0.0132
  694DDP     P2 4161   3.550   3.645   3.594  0.0124 -0.4686 -0.1588
  694DDP     C2 4162   3.645   3.917   3.911 -0.0450 -0.0748  0.0473
  694DDP     C3 4163   2.374   3.534   3.178 -0.0681  0.4519  0.1732
  694DDP     C4 4164   3.253   2.920   3.647  0.5877 -0.1896 -0.0441
  695DDP     C1 4165   0.657  15.142  25.100  0.1467 -0.0652 -0.0384
  695DDP     P1 4166   0.704  15.230  24.661 -0.2710  0.0756  0.2137
  695DDP     P2 4167   0.278  14.865  25.233 -0.3210 -0.1154  0.3658
  695DDP     C2 4168   0.188  14.489  25.040  0.0532 -0.3473  0.2826
  695DDP     C3 4169   0.819  15.387  24.278 -0.0272  0.0599  0.2248
  695DDP     C4 4170   0.878  15.349  25.414 -0.0873 -0.0761  0.2245
  696DDP     C1 4171   8.564  21.433  18.769  0.5063  0.0327 -0.3030
  696DDP     P1 4172   8.696  21.715  18.514  0.3709  0.0612 -0.1984
  696DDP     P2 4173   8.099  21.631  18.922  0.2314  0.0155  0.3388
  696DDP     C2 4174   7.676  21.737  19.089 -0.1549 -0.0083 -0.3329
  696DDP     C3 4175   9.109  21.749  18.228  0.0809 -0.1517 -0.0272
  696DDP     C4 4176   8.528  21.037  18.535  0.2792 -0.0531 -0.0484
  697DDP     C1 4177   6.909  19.137  17.978 -0.2654  0.1950 -0.1466
  697DDP     P1 4178   7.235  18.888  17.721  0.1991  0.1079  0.1271
  697DDP     P2 4179   6.792  18.924  18.319  0.2471 -0.0882 -0.3106
  697DDP     C2 4180   6.878  18.481  18.560 -0.2014 -0.2679  0.0981
  697DDP     C3 4181   7.716  19.028  17.578 -0.0524 -0.0576 -0.1429
  697DDP     C4 4182   6.826  19.511  17.920 -0.1800 -0.0891  0.4077
  698DDP     C1 4183  21.533  29.111   0.317  0.3209  0.1956 -0.1221
  698DDP     P1 4184  21.249  28.758   0.243 -0.0991 -0.0299 -0.2489
  698DDP     P2 4185  21.341  29.488   0.261 -0.0278  0.0571 -0.1194
  698DDP     C2 4186  21.156  29.583  30.144  0.0037 -0.1189  0.0230
  698DDP     C3 4187  21.171  28.396   0.292 -0.1866  0.3140  0.0885
  698DDP     C4 4188  22.008  29.162   0.260 -0.0560 -0.1098  0.0171
  699DDP     C1 4189   8.369  21.211  27.890 -0.0975  0.0248  0.0251
  699DDP     P1 4190   8.330  21.652  28.041  0.1199 -0.1537 -0.0367
  699DDP     P2 4191   8.244  20.973  28.267  0.0261  0.1415  0.0074
  699DDP     C2 4192   8.157  20.831  28.659 -0.0587  0.0782 -0.0401
  699DDP     C3 4193   8.131  21.916  28.279  0.0460  0.0684 -0.2182
  699DDP     C4 4194   8.517  21.156  27.460 -0.2772 -0.1801 -0.1600
  700DDP     C1 4195  20.440  26.057  25.812  0.0518 -0.0238 -0.0911
  700DDP     P1 4196  20.259  25.723  25.587 -0.0776 -0.0214 -0.0258
  700DDP     P2 4197  20.233  25.861  26.084 -0.0648 -0.2548 -0.2781
  700DDP     C2 4198  20.183  25.890  26.577 -0.0708  0.1577 -0.0087
  700DDP     C3 4199  19.886  25.520  25.654 -0.0211  0.0168  0.0564
  700DDP     C4 4200  20.779  26.342  25.670 -0.0937  0.2660 -0.3183
  701DDP     C1 4201  13.414   2.089  28.363 -0.0222  0.4274  0.2111
  701DDP     P1 4202  13.397   2.560  28.193 -0.2794 -0.0680 -0.0597
  701DDP     P2 4203  13.164   1.761  28.095 -0.4818  0.2957  0.0683
  701DDP     C2 4204  12.895   1.357  27.998 -0.1229 -0.2074  0.0628
  701DDP     C3 4205  13.735   2.885  28.089  0.0431 -0.2441 -0.0815
  701DDP     C4 4206  13.594   1.709  28.624  0.1690 -0.2443  0.1146
  702DDP     C1 4207  12.920  10.622  27.894  0.1711  0.0070 -0.0970
  702DDP     P1 4208  13.227  10.466  27.578 -0.0111 -0.2811  0.0915
  702DDP     P2 4209  12.977  10.813  28.266  0.1047 -0.0684 -0.0683
  702DDP     C2 4210  12.724  10.881  28.626 -0.1398  0.2547  0.0100
  702DDP     C3 4211  13.718  10.516  27.535 -0.3692  0.2494  0.0291
  702DDP     C4 4212  12.476  10.555  27.848 -0.2808 -0.0415 -0.2254
  703DDP     C1 4213  13.566  11.609  19.621  0.1631 -0.0244 -0.0975
  703DDP     P1 4214  13.559  11.706  20.096 -0.0777  0.1838 -0.2668
  703DDP     P2 4215  13.642  11.282  19.322  0.0783  0.4401  0.5086
  703DDP     C2 4216  13.735  10.955  19.481 -0.1219 -0.0311 -0.0252
  703DDP     C3 4217  13.478  11.483  20.424  0.0145 -0.1101  0.3023
  703DDP     C4 4218  13.626  11.970  19.320  0.0251 -0.0819  0.0014
  704DDP     C1 4219  22.609  22.076  18.868 -0.3923 -0.0936 -0.1117
  704DDP     P1 4220  22.731  21.859  19.327 -0.0137 -0.1200  0.0213
  704DDP     P2 4221  22.194  22.134  18.816  0.0888 -0.2904  0.3904
  704DDP     C2 4222  21.983  22.540  18.753  0.0616  0.0025  0.1761
  704DDP     C3 4223  22.804  21.424  19.463  0.0637  0.0457  0.0236
  704DDP     C4 4224  22.794  22.364  18.556  0.0988  0.2772  0.3025
  705DDP     C1 4225  10.884  25.982  28.914  0.1025  0.0745  0.4562
  705DDP     P1 4226  10.781  25.663  28.467  0.2956 -0.1005 -0.0466
  705DDP     P2 4227  11.161  25.992  29.225 -0.0723  0.4528 -0.0839
  705DDP     C2 4228  11.537  26.145  29.466 -0.2903  0.1847 -0.1939
  705DDP     C3 4229  11.001  25.351  28.213  0.6096 -0.0499  0.0704
  705DDP     C4 4230  10.624  26.342  28.943 -0.0043 -0.1306 -0.0746
  706DDP     C1 4231  16.314   9.111  11.816  0.0760 -0.0271 -0.2535
  706DDP     P1 4232  16.057   9.231  11.555  0.1744 -0.3367 -0.0001
  706DDP     P2 4233  16.136   8.655  11.939  0.1197 -0.3112 -0.2538
  706DDP     C2 4234  16.113   8.233  12.108  0.2627  0.0394  0.3233
  706DDP     C3 4235  16.058   9.164  11.144  0.1580 -0.0195  0.0247
  706DDP     C4 4236  16.762   9.302  11.982  0.0289 -0.1647 -0.0701
  707DDP     C1 4237   8.780  11.639  22.662 -0.1445  0.0268  0.5301
  707DDP     P1 4238   8.355  11.524  22.655  0.0101 -0.2520  0.1073
  707DDP     P2 4239   8.907  11.296  22.973 -0.0869 -0.0445  0.1609
  707DDP     C2 4240   9.271  11.359  23.232  0.1084  0.1533 -0.2297
  707DDP     C3 4241   7.969  11.396  22.665 -0.0289  0.0030  0.1345
  707DDP     C4 4242   8.845  12.066  22.670  0.1467 -0.1825 -0.2568
  708DDP     C1 4243   3.353  29.848  26.145  0.0185 -0.0155 -0.1333
  708DDP     P1 4244   3.612  29.893  25.798  0.1379  0.2439  0.1491
  708DDP     P2 4245   3.171  29.494  26.353  0.1192  0.0005  0.0050
  708DDP     C2 4246   2.908  29.191  26.417 -0.0366  0.0030 -0.1032
  708DDP     C3 4247   3.700  29.494  25.424  0.0739 -0.0855 -0.1967
  708DDP     C4 4248   3.142  30.223  26.303 -0.1186  0.0314 -0.2752
  709DDP     C1 4249  24.419  29.358   5.060 -0.3458  0.1440  0.2116
  709DDP     P1 4250  24.464  29.367   5.506 -0.0322  0.1284 -0.0857
  709DDP     P2 4251  24.309  28.941   5.114  0.3807  0.0843 -0.1620
  709DDP     C2 4252  24.083  28.495   5.052  0.0700 -0.3660 -0.1575
  709DDP     C3 4253  24.322  29.088   5.902  0.1484 -0.1308  0.0119
  709DDP     C4 4254  24.792  29.397   4.780 -0.4909  0.1997  0.0950
  710DDP     C1 4255  21.056   6.249  28.660 -0.0331 -0.0492 -0.1041
  710DDP     P1 4256  20.613   6.307  28.562  0.3166 -0.0788  0.0930
  710DDP     P2 4257  21.186   6.425  29.016  0.1106 -0.1961  0.0893
  710DDP     C2 4258  21.450   6.768  29.089 -0.1329 -0.2271 -0.0486
  710DDP     C3 4259  20.196   6.215  28.672 -0.0288 -0.0215 -0.3700
  710DDP     C4 4260  21.026   5.970  28.360 -0.3655 -0.0144  0.0853
  711DDP     C1 4261  11.289  15.991  24.163  0.0673 -0.3065  0.5422
  711DDP     P1 4262  11.743  16.107  24.169  0.2604  0.0340 -0.0695
  711DDP     P2 4263  11.032  16.241  23.800 -0.0919 -0.1987 -0.3034
  711DDP     C2 4264  10.746  16.479  23.475  0.0127 -0.1260 -0.1299
  711DDP     C3 4265  12.090  15.931  24.285 -0.2987  0.2311  0.0624
  711DDP     C4 4266  11.107  15.900  24.576  0.2407  0.0127 -0.0424
  712DDP     C1 4267  10.288  18.344  25.468 -0.0257 -0.0933  0.1539
  712DDP     P1 4268  10.491  18.222  25.882 -0.4501  0.1832  0.2377
  712DDP     P2 4269  10.048  18.084  25.281  0.2014  0.1622 -0.2118
  712DDP     C2 4270   9.873  17.859  25.062  0.1174 -0.1755  0.0095
  712DDP     C3 4271  10.797  18.047  26.076 -0.1144  0.3232  0.1305
  712DDP     C4 4272  10.595  18.531  25.173  0.0025 -0.0089  0.0989
  713DDP     C1 4273   9.821  25.814  19.787 -0.1419 -0.0595  0.0759
  713DDP     P1 4274   9.961  25.696  20.192 -0.1697 -0.0506  0.2474
  713DDP     P2 4275   9.706  25.511  19.683 -0.0265 -0.0413  0.0622
  713DDP     C2 4276   9.534  25.277  19.375 -0.3828 -0.0244 -0.2898
  713DDP     C3 4277  10.140  25.560  20.573  0.2172  0.3533 -0.1530
  713DDP     C4 4278   9.766  26.335  19.652 -0.0133  0.2371 -0.1654
  714DDP     C1 4279  30.272  27.233  28.609 -0.0125 -0.1438 -0.0104
  714DDP     P1 4280  30.042  26.890  28.887 -0.1609 -0.0021  0.1182
  714DDP     P2 4281  30.115  27.371  28.153 -0.2516  0.2312  0.2095
  714DDP     C2 4282  30.055  27.829  28.064  0.3287 -0.2414  0.1381
  714DDP     C3 4283  29.834  26.623  29.269  0.2602 -0.3085 -0.0534
  714DDP     C4 4284   0.448  27.440  28.549  0.0595 -0.3838 -0.0483
  715DDP     C1 4285  12.984  15.320  20.457  0.1133 -0.1366  0.1074
  715DDP     P1 4286  12.884  15.452  20.895  0.0336 -0.1373 -0.1155
  715DDP     P2 4287  12.791  15.489  20.071  0.0817 -0.2165 -0.1779
  715DDP     C2 4288  12.746  15.464  19.544  0.1652 -0.1444  0.0377
  715DDP     C3 4289  12.514  15.550  21.173 -0.0513  0.0567 -0.1894
  715DDP     C4 4290  13.497  15.181  20.444 -0.2532  0.0004 -0.0525
  716DDP     C1 4291   9.491  12.580  21.632  0.0608  0.3228 -0.0610
  716DDP     P1 4292   9.613  12.721  21.288  0.2935  0.2493  0.0502
  716DDP     P2 4293   9.053  12.494  21.764 -0.0323 -0.0052  0.1471
  716DDP     C2 4294   8.606  12.435  22.080 -0.2300 -0.1192  0.0947
  716DDP     C3 4295   9.438  13.218  21.069  0.4249  0.0214  0.3495
  716DDP     C4 4296   9.956  12.394  21.824  0.0938 -0.1132 -0.0754
  717DDP     C1 4297   3.505  29.960  13.888 -0.1011  0.0165  0.0465
  717DDP     P1 4298   3.954  29.952  13.874 -0.0570  0.1716  0.1006
  717DDP     P2 4299   3.496  29.681  14.268 -0.1984 -0.2345  0.3157
  717DDP     C2 4300   3.821  29.392  14.368  0.1776 -0.0558 -0.1574
  717DDP     C3 4301   4.195  29.821  14.286  0.0471 -0.0561  0.4024
  717DDP     C4 4302   2.997  30.092  13.727 -0.0028  0.1598  0.4432
  718DDP     C1 4303  24.428  15.601  22.924 -0.1587 -0.0860 -0.3342
  718DDP     P1 4304  24.812  15.785  23.037 -0.0433  0.1319  0.0759
  718DDP     P2 4305  24.493  15.189  22.557  0.0678 -0.1556  0.2384
  718DDP     C2 4306  24.840  14.982  22.454  0.3874 -0.2524  0.2535
  718DDP     C3 4307  25.066  16.156  22.977  0.0447 -0.0581  0.1846
  718DDP     C4 4308  24.056  15.727  23.120  0.2656 -0.0711  0.0356
  719DDP     C1 4309  11.444  19.243  14.341 -0.0255  0.1010 -0.1047
  719DDP     P1 4310  11.120  19.385  14.703 -0.1474  0.0102  0.0300
  719DDP     P2 4311  11.563  18.859  14.144 -0.1886  0.0172 -0.2385
  719DDP     C2 4312  11.685  18.492  13.977 -0.2741  0.1452 -0.0788
  719DDP     C3 4313  10.915  19.785  14.753 -0.1994 -0.0386 -0.0997
  719DDP     C4 4314  11.624  19.472  14.002 -0.0156 -0.0284 -0.0472
  720DDP     C1 4315  27.246  18.753   4.660  0.0813  0.2947 -0.3867
  720DDP     P1 4316  27.244  18.889   4.276  0.3961 -0.0544  0.1407
  720DDP     P2 4317  27.644  18.838   4.737  0.4282 -0.0194 -0.0290
  720DDP     C2 4318  28.026  19.029   4.593  0.0884  0.1469  0.0851
  720DDP     C3 4319  27.153  19.011   3.932 -0.0147  0.1409 -0.1876
  720DDP     C4 4320  26.919  18.454   4.799  0.0751  0.5477 -0.0101
  721DDP     C1 4321  22.702  26.775  12.570 -0.1866 -0.1554  0.0462
  721DDP     P1 4322  22.627  26.299  12.741 -0.2046 -0.0062 -0.0157
  721DDP     P2 4323  22.298  26.928  12.404 -0.0844  0.0041  0.2186
  721DDP     C2 4324  21.969  27.133  12.164 -0.1982  0.0588  0.0462
  721DDP     C3 4325  22.858  26.008  12.731  0.0911  0.2625 -0.1073
  721DDP     C4 4326  23.163  27.019  12.556  0.1724 -0.1093 -0.0367
  722DDP     C1 4327  14.336  21.595  26.895 -0.1071  0.0667 -0.1797
  722DDP     P1 4328  14.001  21.298  26.882  0.2913 -0.1841 -0.2065
  722DDP     P2 4329  14.284  21.859  27.167 -0.5115  0.1401 -0.0074
  722DDP     C2 4330  14.319  22.341  26.990  0.1083 -0.0007 -0.0636
  722DDP     C3 4331  13.630  21.072  26.993 -0.1459 -0.1334 -0.3529
  722DDP     C4 4332  14.767  21.484  26.648 -0.1429  0.0417 -0.0286
  723DDP     C1 4333  24.787   1.832   5.183 -0.0428  0.1416  0.0973
  723DDP     P1 4334  24.624   1.566   4.912 -0.2634  0.0025 -0.0792
  723DDP     P2 4335  24.919   2.164   4.979  0.3088 -0.0845  0.0488
  723DDP     C2 4336  25.049   2.410   4.581 -0.0325  0.1279 -0.0307
  723DDP     C3 4337  24.208   1.558   4.680 -0.2286 -0.2464 -0.0766
  723DDP     C4 4338  25.009   1.705   5.540 -0.0115  0.0842 -0.2302
  724DDP     C1 4339  19.012  12.988  10.779  0.2877 -0.1161  0.0820
  724DDP     P1 4340  18.993  12.880  10.331  0.0274 -0.0587 -0.1052
  724DDP     P2 4341  18.720  13.400  10.858 -0.2453  0.0215 -0.1705
  724DDP     C2 4342  18.385  13.374  11.164 -0.2191 -0.0542 -0.1155
  724DDP     C3 4343  18.855  12.988   9.939  0.0027 -0.1021  0.0683
  724DDP     C4 4344  19.053  12.601  11.103  0.3981  0.0661 -0.1646
  725DDP     C1 4345  13.535  20.779  18.523  0.4399 -0.0747  0.3271
  725DDP     P1 4346  13.106  20.515  18.512  0.0439 -0.0400  0.0585
  725DDP     P2 4347  13.608  21.217  18.425 -0.0834  0.1249 -0.0186
  725DDP     C2 4348  13.828  21.695  18.548 -0.0190  0.0567 -0.1218
  725DDP     C3 4349  12.777  20.580  18.627 -0.0640 -0.2291 -0.1064
  725DDP     C4 4350  13.916  20.550  18.662 -0.0185 -0.5208 -0.0227
  726DDP     C1 4351   7.735  19.370   6.434  0.1704 -0.0750  0.1107
  726DDP     P1 4352   7.536  19.423   6.826  0.0770 -0.3196  0.4026
  726DDP     P2 4353   7.857  18.954   6.465 -0.3011  0.3972 -0.1638
  726DDP     C2 4354   7.589  18.622   6.367  0.1597  0.1343  0.3741
  726DDP     C3 4355   7.289  19.265   7.076  0.1334  0.3088 -0.1122
  726DDP     C4 4356   7.974  19.786   6.303 -0.0110  0.0393  0.2608
  727DDP     C1 4357   8.536  12.793   6.346 -0.0988 -0.2395 -0.2661
  727DDP     P1 4358   8.314  12.742   6.670 -0.3094  0.0446 -0.0522
  727DDP     P2 4359   8.441  13.018   5.966  0.2206 -0.3010  0.1668
  727DDP     C2 4360   8.317  13.137   5.542 -0.1762 -0.1234  0.0433
  727DDP     C3 4361   8.269  12.386   6.880 -0.2838 -0.1908 -0.0468
  727DDP     C4 4362   8.936  12.791   6.429  0.1911 -0.2644  0.2975
  728DDP     C1 4363  28.697  21.724  20.663 -0.1672  0.0684 -0.1552
  728DDP     P1 4364  28.405  21.715  20.516 -0.1180 -0.0079 -0.1047
  728DDP     P2 4365  28.714  21.925  21.133 -0.3286  0.1724 -0.2516
  728DDP     C2 4366  29.130  22.024  21.412  0.0371  0.1699  0.2739
  728DDP     C3 4367  28.001  21.869  20.524  0.1225 -0.2639 -0.0075
  728DDP     C4 4368  29.137  21.580  20.470  0.0760  0.3851  0.0102
  729DDP     C1 4369  20.678   6.196  25.832 -0.1615 -0.1878 -0.0590
  729DDP     P1 4370  20.950   6.325  25.439 -0.0375 -0.0063 -0.3270
  729DDP     P2 4371  20.915   6.354  26.180 -0.0273 -0.0443  0.0502
  729DDP     C2 4372  21.143   6.184  26.631 -0.0102 -0.2175 -0.0155
  729DDP     C3 4373  21.177   6.116  25.084 -0.2010 -0.0510  0.0357
  729DDP     C4 4374  20.383   5.974  26.066  0.0026 -0.3641  0.1020
  730DDP     C1 4375  10.595  11.265  10.012  0.0368  0.0823 -0.2791
  730DDP     P1 4376  10.952  11.123   9.695 -0.1134 -0.0683  0.2158
  730DDP     P2 4377  10.734  11.398  10.442 -0.0926  0.2361  0.3494
  730DDP     C2 4378  10.394  11.602  10.711  0.0872 -0.0369 -0.0016
  730DDP     C3 4379  11.354  10.798   9.683  0.1724  0.1989  0.2302
  730DDP     C4 4380  10.164  11.261   9.848  0.0998  0.0220  0.2166
  731DDP     C1 4381   4.510  14.427   4.947  0.0473  0.1197 -0.1092
  731DDP     P1 4382   4.193  14.326   4.713  0.1670 -0.0862 -0.0436
  731DDP     P2 4383   4.849  14.466   4.658 -0.0258 -0.0085  0.1696
  731DDP     C2 4384   5.135  14.557   4.451 -0.0187  0.0547  0.0871
  731DDP     C3 4385   4.225  14.465   4.196 -0.0043 -0.1896 -0.0256
  731DDP     C4 4386   4.479  14.335   5.368 -0.1245  0.3713  0.1991
  732DDP     C1 4387  14.809   9.744  25.686 -0.1732 -0.0197  0.1917
  732DDP     P1 4388  14.820  10.088  25.452  0.2262  0.1858  0.0266
  732DDP     P2 4389  15.106   9.571  25.830 -0.2031 -0.2287  0.1616
  732DDP     C2 4390  15.455   9.621  26.170  0.3248 -0.0218 -0.0036
  732DDP     C3 4391  14.682  10.302  25.144  0.2101  0.3877  0.1237
  732DDP     C4 4392  14.452   9.588  25.745  0.1055 -0.1945  0.1079
  733DDP     C1 4393   2.299  11.860   2.566 -0.0749 -0.0409  0.0262
  733DDP     P1 4394   2.581  11.731   2.278 -0.1289  0.0347 -0.0925
  733DDP     P2 4395   2.385  12.032   2.934 -0.0947 -0.1308  0.2460
  733DDP     C2 4396   2.564  12.082   3.333 -0.0939  0.0841 -0.4146
  733DDP     C3 4397   2.740  11.638   1.836  0.2091 -0.1274  0.1057
  733DDP     C4 4398   1.937  11.660   2.534 -0.3436 -0.4912 -0.0747
  734DDP     C1 4399  11.846  25.113  19.029 -0.0266 -0.0970 -0.4085
  734DDP     P1 4400  11.405  25.194  19.024  0.1530 -0.0909 -0.0587
  734DDP     P2 4401  11.814  24.767  19.449 -0.2309  0.2259  0.0423
  734DDP     C2 4402  11.711  24.374  19.670 -0.0987 -0.0667  0.0534
  734DDP     C3 4403  11.075  25.062  18.973 -0.0236  0.0073 -0.2792
  734DDP     C4 4404  12.182  25.402  18.942  0.0655 -0.1024  0.0141
  735DDP     C1 4405   4.975  14.083  28.592  0.0674 -0.1627 -0.1518
  735DDP     P1 4406   4.963  14.524  28.937 -0.0829  0.0538  0.0303
  735DDP     P2 4407   4.668  14.283  28.469  0.3005  0.1166  0.1506
  735DDP     C2 4408   4.402  14.454  28.112 -0.0610  0.0331 -0.0559
  735DDP     C3 4409   4.726  14.736  29.258  0.0233 -0.0951  0.1447
  735DDP     C4 4410   5.392  13.959  28.403 -0.2260  0.2111  0.0478
  736DDP     C1 4411   8.802  29.345  27.449  0.0663 -0.1230  0.0210
  736DDP     P1 4412   8.643  29.122  27.821  0.0244  0.1642 -0.0427
  736DDP     P2 4413   8.686  29.510  27.093  0.1736 -0.0424 -0.3088
  736DDP     C2 4414   8.590  29.774  26.839  0.2826 -0.0175 -0.4037
  736DDP     C3 4415   8.436  29.047  28.240  0.0691  0.0680  0.1357
  736DDP     C4 4416   9.185  29.266  27.338  0.0903 -0.1269  0.2430
  737DDP     C1 4417  19.255  24.050  22.161 -0.2886  0.1658 -0.0583
  737DDP     P1 4418  19.575  24.157  22.241  0.0364  0.1854  0.0332
  737DDP     P2 4419  19.201  23.677  21.899 -0.3351  0.1032  0.0014
  737DDP     C2 4420  19.033  23.425  21.665  0.0600  0.1607  0.1668
  737DDP     C3 4421  20.024  24.316  22.203 -0.0567 -0.0318 -0.2618
  737DDP     C4 4422  18.841  24.296  22.283  0.2019  0.2530  0.0379
  738DDP     C1 4423  18.255  17.947   4.655  0.0024  0.0697  0.1184
  738DDP     P1 4424  18.331  17.548   4.603 -0.0309  0.3367  0.1528
  738DDP     P2 4425  17.911  18.179   4.448 -0.0555 -0.3409 -0.4227
  738DDP     C2 4426  17.517  18.051   4.298 -0.1421 -0.1426 -0.3164
  738DDP     C3 4427  18.150  17.165   4.389  0.0863 -0.1654  0.1580
  738DDP     C4 4428  18.354  18.043   5.060  0.2740  0.0809  0.2129
  739DDP     C1 4429  21.993  13.151  13.747 -0.0739 -0.1230  0.3646
  739DDP     P1 4430  21.545  13.153  13.749  0.3912  0.0708  0.0254
  739DDP     P2 4431  22.206  13.572  13.760  0.3227 -0.1645 -0.1240
  739DDP     C2 4432  22.346  13.964  13.986  0.3537  0.2861  0.2095
  739DDP     C3 4433  21.233  12.844  13.873  0.1639 -0.0939 -0.3037
  739DDP     C4 4434  22.337  12.780  13.913  0.2424  0.4396  0.0858
  740DDP     C1 4435  26.625  17.389  19.398  0.1735 -0.0137  0.0127
  740DDP     P1 4436  26.643  17.091  19.749 -0.3645  0.1240 -0.2228
  740DDP     P2 4437  26.652  17.290  18.918  0.0587 -0.1508  0.2174
  740DDP     C2 4438  26.511  17.119  18.480 -0.0551  0.1569  0.1513
  740DDP     C3 4439  27.062  16.802  19.906  0.0485 -0.0927  0.2181
  740DDP     C4 4440  26.209  17.638  19.388 -0.2227  0.2005 -0.0016
  741DDP     C1 4441  17.175  13.533  19.381 -0.0369 -0.0436  0.1022
  741DDP     P1 4442  16.879  13.406  19.607  0.2324 -0.0952 -0.0077
  741DDP     P2 4443  17.359  13.476  19.023  0.3477  0.0660 -0.0335
  741DDP     C2 4444  17.255  13.003  18.801 -0.3151  0.0924 -0.0755
  741DDP     C3 4445  16.915  13.033  19.957  0.0790  0.0729  0.0641
  741DDP     C4 4446  17.031  13.944  19.338 -0.0122 -0.2324 -0.3399
  742DDP     C1 4447  16.928  28.182   4.477  0.0345 -0.2765  0.0414
  742DDP     P1 4448  17.061  27.782   4.304 -0.1704  0.0360  0.0511
  742DDP     P2 4449  17.035  28.216   4.976  0.3163 -0.1871 -0.0821
  742DDP     C2 4450  17.300  28.258   5.276  0.0031 -0.2507  0.2919
  742DDP     C3 4451  17.387  27.781   4.017 -0.0334  0.1422  0.4550
  742DDP     C4 4452  16.874  28.576   4.259 -0.0137 -0.1251  0.1330
  743DDP     C1 4453  16.056   2.383   7.863  0.0545  0.0040 -0.0663
  743DDP     P1 4454  15.863   2.685   8.146 -0.2576  0.0290 -0.1194
  743DDP     P2 4455  16.325   2.515   7.599 -0.1505 -0.2199  0.2344
  743DDP     C2 4456  16.729   2.643   7.448 -0.2325  0.1310  0.0856
  743DDP     C3 4457  15.647   2.938   8.448  0.2516  0.0217 -0.3889
  743DDP     C4 4458  15.983   1.945   7.771 -0.0223  0.1435 -0.0391
  744DDP     C1 4459   1.752   0.579  14.859  0.0909  0.1350 -0.1486
  744DDP     P1 4460   1.524   0.717  15.156  0.0780  0.1179  0.2072
  744DDP     P2 4461   1.614   0.742  14.415 -0.1518 -0.2970 -0.2071
  744DDP     C2 4462   1.499   0.967  14.079  0.0410 -0.0368  0.0407
  744DDP     C3 4463   1.165   0.989  15.155 -0.1711 -0.1281  0.0763
  744DDP     C4 4464   1.848   0.214  14.753  0.3038 -0.2337  0.0545
  745DDP     C1 4465  23.295   0.116  23.119  0.3009 -0.0268  0.1471
  745DDP     P1 4466  23.716   0.327  23.222  0.1102  0.0053  0.0898
  745DDP     P2 4467  23.106  30.031  23.149  0.3694  0.3136 -0.0235
  745DDP     C2 4468  23.195  29.625  23.140  0.0570 -0.0015  0.1915
  745DDP     C3 4469  23.857   0.637  23.516  0.1764  0.0980 -0.3910
  745DDP     C4 4470  23.080   0.323  22.784  0.2228 -0.2993 -0.3016
  746DDP     C1 4471   3.844   2.885  16.678 -0.0025  0.0374 -0.0734
  746DDP     P1 4472   4.098   3.038  16.981 -0.3129 -0.2832  0.0887
  746DDP     P2 4473   3.489   3.172  16.564  0.2298  0.3111  0.0072
  746DDP     C2 4474   3.189   3.319  16.193 -0.1530 -0.0071 -0.1867
  746DDP     C3 4475   4.220   3.400  17.160  0.0045  0.2889  0.2590
  746DDP     C4 4476   4.088   2.643  16.434  0.2488  0.1239  0.2311
  747DDP     C1 4477  15.124  21.590  17.706 -0.0048 -0.3603 -0.1351
  747DDP     P1 4478  14.938  22.018  17.610  0.4056 -0.1117 -0.0039
  747DDP     P2 4479  15.209  21.253  17.348  0.1420 -0.1925 -0.1828
  747DDP     C2 4480  15.227  20.966  17.059 -0.1778  0.1747 -0.3486
  747DDP     C3 4481  14.690  22.398  17.691 -0.2369  0.2891 -0.2525
  747DDP     C4 4482  14.862  21.370  18.082  0.1166  0.1041  0.4927
  748DDP     C1 4483  16.739  27.622   4.927 -0.0467  0.0880 -0.0820
  748DDP     P1 4484  16.562  27.710   4.382  0.1684  0.0767  0.2563
  748DDP     P2 4485  16.278  27.550   5.289  0.0498 -0.0873  0.0578
  748DDP     C2 4486  16.089  27.536   5.791  0.2024 -0.0071 -0.0705
  748DDP     C3 4487  16.337  27.813   3.971  0.2124  0.1548 -0.1145
  748DDP     C4 4488  17.121  27.691   5.133  0.0054 -0.2334 -0.2050
  749DDP     C1 4489   7.258   2.494   7.896  0.1810 -0.0051 -0.1344
  749DDP     P1 4490   7.362   2.706   8.313 -0.0454 -0.0507 -0.4276
  749DDP     P2 4491   7.187   1.998   7.935 -0.0522 -0.0909  0.0798
  749DDP     C2 4492   7.255   1.535   7.877  0.0145 -0.1881  0.0394
  749DDP     C3 4493   7.490   2.477   8.792  0.1435  0.1416  0.1994
  749DDP     C4 4494   7.156   2.580   7.447 -0.0118 -0.2765  0.1740
  750DDP     C1 4495   1.305  27.950  19.288  0.0733 -0.0741 -0.1453
  750DDP     P1 4496   1.497  27.766  19.018  0.1285  0.3047 -0.3790
  750DDP     P2 4497   0.855  28.007  19.235  0.2645 -0.0965 -0.0015
  750DDP     C2 4498   0.377  27.997  19.247 -0.1203  0.1393 -0.0727
  750DDP     C3 4499   1.637  27.412  18.728  0.0362 -0.1438  0.5623
  750DDP     C4 4500   1.546  28.061  19.675 -0.1355 -0.0392 -0.3570
  751DDP     C1 4501  23.503  12.442  26.688 -0.0935 -0.2396  0.1305
  751DDP     P1 4502  23.120  12.220  26.784  0.1632  0.1405  0.1282
  751DDP     P2 4503  23.805  12.489  26.992 -0.1877 -0.2814  0.0783
  751DDP     C2 4504  23.925  12.372  27.439  0.1748  0.1380 -0.3498
  751DDP     C3 4505  22.692  12.287  26.784  0.1618  0.1517 -0.0652
  751DDP     C4 4506  23.527  12.623  26.262 -0.1440  0.1428 -0.1778
  752DDP     C1 4507  14.925  11.335  14.979  0.0839 -0.2476  0.1952
  752DDP     P1 4508  14.509  11.377  14.845 -0.0047 -0.0504  0.1203
  752DDP     P2 4509  14.793  11.474  15.364  0.2403 -0.2666  0.2699
  752DDP     C2 4510  14.849  11.466  15.852 -0.0698  0.1031  0.3804
  752DDP     C3 4511  14.226  11.209  14.589  0.4016  0.2091 -0.2141
  752DDP     C4 4512  15.376  11.193  14.830  0.1157 -0.0381 -0.1332
  753DDP     C1 4513  25.372  19.230   2.154 -0.1074 -0.1853  0.1212
  753DDP     P1 4514  25.212  18.928   2.386 -0.3951  0.1448 -0.0490
  753DDP     P2 4515  25.344  19.313   1.618  0.0106 -0.1262  0.1946
  753DDP     C2 4516  25.354  19.142   1.227 -0.1583 -0.2057  0.4717
  753DDP     C3 4517  25.230  18.953   2.885  0.0865 -0.0614  0.1195
  753DDP     C4 4518  25.797  19.496   2.293 -0.2921  0.0854  0.1549
  754DDP     C1 4519   8.765  17.579  15.313 -0.0211  0.2148  0.1974
  754DDP     P1 4520   8.515  17.145  15.065  0.4400 -0.0613  0.2754
  754DDP     P2 4521   8.527  17.768  15.671 -0.2451  0.4199  0.1685
  754DDP     C2 4522   8.267  18.059  15.586  0.0246 -0.1901  0.2290
  754DDP     C3 4523   8.570  16.832  14.705 -0.3796  0.2076 -0.0925
  754DDP     C4 4524   9.007  17.883  15.027 -0.0677  0.1518 -0.2420
  755DDP     C1 4525  17.502  15.519  22.810 -0.0407 -0.2847  0.2101
  755DDP     P1 4526  17.180  15.171  22.662 -0.3241  0.0815 -0.2697
  755DDP     P2 4527  17.400  15.884  23.104 -0.1898 -0.1258 -0.0324
  755DDP     C2 4528  17.541  15.938  23.512  0.0066  0.0779  0.0161
  755DDP     C3 4529  16.874  14.958  22.567 -0.0265  0.3389 -0.0852
  755DDP     C4 4530  17.971  15.428  22.684  0.0151 -0.0229  0.0460
  756DDP     C1 4531   6.825   0.346   3.340  0.4842  0.0286  0.3656
  756DDP     P1 4532   7.100   0.587   3.362 -0.1124 -0.2071  0.1713
  756DDP     P2 4533   6.423   0.516   3.322  0.0957  0.1315 -0.0693
  756DDP     C2 4534   6.023   0.602   3.361 -0.1335 -0.0788 -0.1176
  756DDP     C3 4535   7.453   0.939   3.344  0.0246 -0.0238 -0.0543
  756DDP     C4 4536   6.980  30.186   3.325  0.4624  0.0847  0.0868
  757DDP     C1 4537  29.403  15.028  29.214 -0.0602 -0.0264  0.3369
  757DDP     P1 4538  29.662  14.721  29.003  0.1307 -0.1815 -0.1544
  757DDP     P2 4539  29.513  14.997  29.616  0.2836  0.0251 -0.1357
  757DDP     C2 4540  29.588  15.123  30.061 -0.1575  0.0864  0.1590
  757DDP     C3 4541  29.983  14.883  28.718  0.1428  0.4970 -0.0536
  757DDP     C4 4542  29.087  15.351  29.065 -0.2723 -0.0515 -0.3067
  758DDP     C1 4543  13.419  19.010   2.499  0.0921  0.2891 -0.0786
  758DDP     P1 4544  13.305  19.349   2.204 -0.0612  0.0129  0.0038
  758DDP     P2 4545  13.816  19.038   2.719  0.1029 -0.1053 -0.0019
  758DDP     C2 4546  13.956  18.822   3.024  0.2971  0.0030  0.2418
  758DDP     C3 4547  13.203  19.611   1.823  0.0470  0.0950 -0.1106
  758DDP     C4 4548  13.187  18.664   2.494  0.1985  0.1790  0.0877
  759DDP     C1 4549  12.826  11.927  29.879  0.1299 -0.0030  0.1048
  759DDP     P1 4550  12.804  11.767  29.428 -0.1332  0.0593 -0.1397
  759DDP     P2 4551  12.737  12.316  30.071  0.1293  0.1078 -0.1251
  759DDP     C2 4552  12.803  12.507   0.284 -0.0310  0.1666 -0.1546
  759DDP     C3 4553  12.712  11.290  29.276  0.2560 -0.1847 -0.1068
  759DDP     C4 4554  12.710  11.619  30.169  0.1248 -0.3327 -0.1964
  760DDP     C1 4555  23.595  10.574  22.353  0.0147 -0.1331  0.1364
  760DDP     P1 4556  23.965  10.629  22.324 -0.2619  0.1480 -0.2797
  760DDP     P2 4557  23.534  10.729  22.054  0.0178  0.1296 -0.1620
  760DDP     C2 4558  23.801  10.936  21.763  0.1771  0.1210 -0.3454
  760DDP     C3 4559  24.267  10.657  21.970  0.0111  0.0885 -0.1691
  760DDP     C4 4560  23.225  10.365  22.608 -0.0453 -0.1028  0.2048
  761DDP     C1 4561  14.160  17.131   9.599 -0.0554  0.0369  0.1777
  761DDP     P1 4562  14.392  16.835   9.948  0.0453 -0.2819 -0.0654
  761DDP     P2 4563  13.742  17.180   9.517  0.0074 -0.3088 -0.2215
  761DDP     C2 4564  13.390  17.122   9.635  0.0448  0.0814  0.3384
  761DDP     C3 4565  14.824  16.772  10.068  0.0761 -0.0803 -0.1115
  761DDP     C4 4566  14.486  17.489   9.479 -0.1009  0.1340  0.1178
  762DDP     C1 4567  12.052  21.704   6.246  0.0102 -0.1170  0.0537
  762DDP     P1 4568  12.352  21.644   5.953 -0.1095 -0.2507  0.0789
  762DDP     P2 4569  11.785  22.071   6.252 -0.1842  0.1234 -0.0076
  762DDP     C2 4570  11.610  22.527   6.308  0.0923  0.0353 -0.0972
  762DDP     C3 4571  12.587  21.355   5.855  0.2283 -0.0338  0.0409
  762DDP     C4 4572  11.992  21.389   6.600 -0.1043  0.0297 -0.0226
  763DDP     C1 4573   4.309   6.094  11.039 -0.0087 -0.0335  0.1920
  763DDP     P1 4574   4.701   5.848  10.978  0.0851  0.3981  0.0498
  763DDP     P2 4575   4.288   6.480  11.235  0.0341  0.1625  0.0983
  763DDP     C2 4576   4.330   6.916  11.155 -0.0567  0.0338  0.1768
  763DDP     C3 4577   4.881   5.520  10.802  0.0320 -0.2182  0.2132
  763DDP     C4 4578   3.937   6.012  10.862  0.2483 -0.0443  0.0343
  764DDP     C1 4579  10.865  17.822  13.840 -0.2877  0.0438  0.1128
  764DDP     P1 4580  10.951  18.305  13.679  0.2595 -0.0078 -0.0314
  764DDP     P2 4581  11.001  18.033  14.176 -0.1380 -0.1377 -0.1848
  764DDP     C2 4582  11.145  18.366  14.496  0.2358 -0.2401  0.1530
  764DDP     C3 4583  11.022  18.546  14.051  0.1930 -0.3471  0.0902
  764DDP     C4 4584  10.652  17.447  13.738  0.2229 -0.0369 -0.3138
  765DDP     C1 4585  18.592  11.938  13.399  0.0096 -0.0368 -0.0126
  765DDP     P1 4586  18.266  12.209  13.513  0.0271 -0.0760  0.0492
  765DDP     P2 4587  19.002  11.886  13.539  0.2235 -0.0750 -0.3200
  765DDP     C2 4588  19.437  11.871  13.778  0.1661 -0.2121  0.1376
  765DDP     C3 4589  17.868  12.467  13.610 -0.0175 -0.1374 -0.0373
  765DDP     C4 4590  18.445  11.721  13.000  0.1196  0.0930 -0.1961
  766DDP     C1 4591  27.952  23.988  29.413  0.2030 -0.0382 -0.0485
  766DDP     P1 4592  27.554  23.847  29.333 -0.2443 -0.1419  0.0502
  766DDP     P2 4593  28.206  23.923  29.209  0.0077  0.1167  0.0859
  766DDP     C2 4594  28.548  23.819  29.034 -0.1137  0.1264  0.2018
  766DDP     C3 4595  27.304  23.674  29.597  0.1075  0.0499  0.0800
  766DDP     C4 4596  28.133  24.242  29.707  0.0936 -0.3531  0.2535
  767DDP     C1 4597  20.369  30.266  20.434  0.3122  0.3442 -0.1584
  767DDP     P1 4598  20.356  30.072  20.051 -0.0954  0.1216  0.1268
  767DDP     P2 4599  20.155  30.096  20.805 -0.3075 -0.1893 -0.1405
  767DDP     C2 4600  20.029  30.079  21.259 -0.0496 -0.2293 -0.1560
  767DDP     C3 4601  20.356  29.653  19.871  0.0740 -0.1380  0.1240
  767DDP     C4 4602  20.665   0.365  20.607 -0.0385 -0.1159  0.0336
  768DDP     C1 4603  19.048  14.765  27.232  0.3411  0.1225 -0.0897
  768DDP     P1 4604  18.704  15.169  27.113  0.1750  0.0812  0.0457
  768DDP     P2 4605  19.200  14.548  27.623 -0.3972 -0.1162  0.1622
  768DDP     C2 4606  19.200  14.380  28.032  0.0668 -0.1776 -0.0478
  768DDP     C3 4607  18.287  15.417  26.932  0.0622 -0.1178  0.1248
  768DDP     C4 4608  19.170  14.553  26.920  0.2104  0.1683  0.2100
  769DDP     C1 4609  16.613   2.656  19.088 -0.0866  0.3201  0.1777
  769DDP     P1 4610  16.414   2.248  18.939 -0.0441  0.1697  0.0642
  769DDP     P2 4611  16.720   2.777  19.472  0.2586 -0.1856  0.1355
  769DDP     C2 4612  16.762   2.917  19.895  0.0749 -0.0954 -0.1047
  769DDP     C3 4613  16.264   1.970  18.687 -0.2968 -0.0753  0.1251
  769DDP     C4 4614  16.511   3.080  18.754  0.2773 -0.3156 -0.0533
  770DDP     C1 4615  30.012   8.451   1.268 -0.1986  0.0902 -0.1854
  770DDP     P1 4616  30.235   8.893   1.015 -0.0742  0.3053 -0.0540
  770DDP     P2 4617  29.806   8.344   1.635 -0.1051 -0.0854 -0.0699
  770DDP     C2 4618  29.383   8.257   1.820  0.1111  0.1373  0.0154
  770DDP     C3 4619  30.318   8.723   0.552  0.2298 -0.2833  0.1172
  770DDP     C4 4620   0.040   8.069   1.227 -0.0794  0.2593  0.1631
  771DDP     C1 4621   1.729  28.600  26.209 -0.1692  0.0960  0.1254
  771DDP     P1 4622   1.320  28.640  26.372  0.1993  0.2611  0.0232
  771DDP     P2 4623   2.046  28.778  26.420  0.0126  0.0850 -0.1343
  771DDP     C2 4624   2.338  28.919  26.777  0.1345 -0.0026 -0.1171
  771DDP     C3 4625   1.054  29.028  26.501  0.1653 -0.0228  0.1449
  771DDP     C4 4626   1.768  28.258  25.908 -0.0894 -0.0313 -0.0113
  772DDP     C1 4627  26.819   8.026   1.045 -0.1784  0.1993  0.4961
  772DDP     P1 4628  26.777   7.907   1.479  0.0026  0.2273  0.0657
  772DDP     P2 4629  27.227   7.801   0.955 -0.2023  0.0400 -0.3096
  772DDP     C2 4630  27.620   7.500   0.957 -0.2826 -0.3238  0.1257
  772DDP     C3 4631  26.496   7.835   1.756  0.0770 -0.2244  0.0020
  772DDP     C4 4632  26.582   8.076   0.615 -0.0076 -0.1797 -0.1016
  773DDP     C1 4633   9.088   5.665   7.296  0.3440 -0.0857  0.0716
  773DDP     P1 4634   8.857   5.962   7.461  0.2422  0.0412 -0.0983
  773DDP     P2 4635   8.956   5.494   6.828  0.0799  0.0450  0.0167
  773DDP     C2 4636   9.007   5.618   6.444  0.2344  0.1543 -0.1298
  773DDP     C3 4637   8.625   6.341   7.544  0.1671 -0.0099  0.1510
  773DDP     C4 4638   9.429   5.653   7.572 -0.0601  0.0245  0.0437
  774DDP     C1 4639  18.535  17.415  27.559  0.0968  0.3197  0.0879
  774DDP     P1 4640  18.539  17.734  27.245 -0.0997  0.3728 -0.1697
  774DDP     P2 4641  18.579  16.997  27.530  0.1192  0.1934  0.0297
  774DDP     C2 4642  18.836  16.774  27.237 -0.0833  0.0291 -0.1622
  774DDP     C3 4643  18.195  17.932  27.051 -0.2029 -0.2785  0.2873
  774DDP     C4 4644  18.478  17.502  27.937  0.3506  0.1107  0.0328
  775DDP     C1 4645  19.742   1.914  10.725  0.3172 -0.3019 -0.2004
  775DDP     P1 4646  19.622   2.072  10.287  0.1113  0.0470  0.0922
  775DDP     P2 4647  19.985   1.550  10.800  0.0569  0.0767  0.2843
  775DDP     C2 4648  20.250   1.229  10.599  0.0547  0.0780  0.0161
  775DDP     C3 4649  19.746   2.390   9.973 -0.0812 -0.0071 -0.0355
  775DDP     C4 4650  19.754   2.205  11.000  0.1800  0.1373 -0.0028
  776DDP     C1 4651  23.054  20.573  23.879 -0.0664 -0.0257  0.0561
  776DDP     P1 4652  22.753  20.397  23.804 -0.0790  0.1676  0.1622
  776DDP     P2 4653  23.283  20.197  23.870  0.3628  0.1816  0.0735
  776DDP     C2 4654  23.690  20.016  23.805  0.2611 -0.1973 -0.2205
  776DDP     C3 4655  22.392  20.234  23.596 -0.1955 -0.1491  0.1882
  776DDP     C4 4656  23.154  20.964  23.865  0.1644 -0.0962 -0.2149
  777DDP     C1 4657  22.618  13.765  26.542  0.0802 -0.4238  0.3630
  777DDP     P1 4658  22.339  13.698  26.258 -0.2641  0.0685 -0.1732
  777DDP     P2 4659  22.757  14.095  26.650 -0.0843 -0.2387 -0.2087
  777DDP     C2 4660  22.822  14.454  26.425 -0.1024 -0.0508 -0.1656
  777DDP     C3 4661  21.907  13.665  26.258  0.0565 -0.0874 -0.0086
  777DDP     C4 4662  22.948  13.565  26.787 -0.0523  0.0865  0.0302
  778DDP     C1 4663  19.849   7.856  14.372  0.0466  0.0817  0.0743
  778DDP     P1 4664  19.710   7.919  14.791 -0.4073 -0.1813  0.2908
  778DDP     P2 4665  20.125   7.396  14.387 -0.2030  0.1552  0.0918
  778DDP     C2 4666  20.176   7.092  14.044  0.2517  0.0569 -0.0607
  778DDP     C3 4667  19.742   8.172  15.212 -0.1543 -0.0786  0.0242
  778DDP     C4 4668  19.585   8.052  14.005  0.1007  0.1181  0.2037
  779DDP     C1 4669  23.079  12.838  20.889  0.2072  0.0759  0.0004
  779DDP     P1 4670  23.018  12.409  21.084 -0.0568 -0.3514  0.2401
  779DDP     P2 4671  23.177  12.739  20.489  0.0603 -0.0054 -0.1200
  779DDP     C2 4672  23.355  12.596  20.140 -0.0097  0.2526 -0.2275
  779DDP     C3 4673  22.751  12.042  21.228  0.1023  0.0790 -0.1993
  779DDP     C4 4674  22.975  13.210  20.991 -0.1577 -0.1308 -0.1314
  780DDP     C1 4675   6.007  22.846  10.252 -0.0731  0.0669  0.0168
  780DDP     P1 4676   5.631  22.792  10.039 -0.0628  0.2812 -0.0699
  780DDP     P2 4677   6.044  23.232  10.262 -0.2577 -0.2494 -0.3056
  780DDP     C2 4678   5.951  23.656   9.989  0.2593 -0.2048  0.0926
  780DDP     C3 4679   5.289  22.581  10.008 -0.0344 -0.1217  0.0265
  780DDP     C4 4680   6.127  22.523  10.439 -0.1044 -0.0343  0.0461
  781DDP     C1 4681  21.842  24.911   4.696  0.0812 -0.2295 -0.1167
  781DDP     P1 4682  21.841  24.466   4.603  0.1228 -0.1893  0.2841
  781DDP     P2 4683  22.293  24.883   4.519 -0.1100  0.0908  0.2099
  781DDP     C2 4684  22.459  25.281   4.701 -0.1896  0.1926  0.1232
  781DDP     C3 4685  22.224  24.145   4.652 -0.2202  0.2872  0.3148
  781DDP     C4 4686  21.519  25.146   4.904 -0.1241  0.0878 -0.2067
  782DDP     C1 4687  21.568  16.544   3.894  0.0696 -0.3012  0.2574
  782DDP     P1 4688  21.568  16.601   3.371 -0.0767  0.1127 -0.5049
  782DDP     P2 4689  22.131  16.471   3.996 -0.3324  0.0047  0.1403
  782DDP     C2 4690  22.552  16.344   3.965  0.1796 -0.3270 -0.3079
  782DDP     C3 4691  21.647  16.839   3.037  0.2453 -0.2403  0.0633
  782DDP     C4 4692  21.407  16.626   4.225  0.0871  0.1558  0.1116
  783DDP     C1 4693   5.084  15.221  26.780  0.0441 -0.0543  0.0797
  783DDP     P1 4694   5.156  15.146  27.295 -0.1734 -0.1805  0.1150
  783DDP     P2 4695   5.369  15.056  26.536  0.0601  0.3256  0.0082
  783DDP     C2 4696   5.396  15.123  26.156  0.3448 -0.0322  0.0141
  783DDP     C3 4697   5.058  15.283  27.725  0.2075  0.1833  0.2060
  783DDP     C4 4698   4.768  15.476  26.701 -0.1125 -0.1089 -0.0655
  784DDP     C1 4699   6.132   8.530   2.454 -0.0780 -0.2485  0.0306
  784DDP     P1 4700   6.149   8.189   2.787  0.1124 -0.1149  0.1042
  784DDP     P2 4701   6.061   8.344   2.094  0.2485 -0.1214 -0.1423
  784DDP     C2 4702   5.974   8.029   1.899  0.1299  0.1613  0.0305
  784DDP     C3 4703   6.268   7.802   2.784  0.2234  0.0076 -0.1272
  784DDP     C4 4704   6.081   8.980   2.532 -0.0933  0.1006 -0.1616
  785DDP     C1 4705  17.164  19.469  13.500  0.0219  0.3566 -0.1206
  785DDP     P1 4706  16.735  19.300  13.194 -0.1575 -0.3546 -0.2677
  785DDP     P2 4707  17.441  19.284  13.290 -0.2816  0.2194  0.1222
  785DDP     C2 4708  17.551  19.332  12.928  0.1538 -0.2365  0.0581
  785DDP     C3 4709  16.574  18.914  12.890  0.0880  0.1291 -0.2307
  785DDP     C4 4710  17.316  19.512  13.916 -0.0306  0.1684  0.2134
  786DDP     C1 4711  11.604  23.121  10.444 -0.1106  0.2372 -0.3458
  786DDP     P1 4712  12.011  23.014  10.426 -0.4793  0.0012  0.2530
  786DDP     P2 4713  11.284  22.989  10.815 -0.0563 -0.0587  0.0706
  786DDP     C2 4714  10.852  23.084  10.747  0.1628  0.0302 -0.1585
  786DDP     C3 4715  12.417  23.266  10.355  0.1293  0.0436 -0.0522
  786DDP     C4 4716  11.510  23.368  10.073 -0.2794 -0.2697 -0.0590
  787DDP     C1 4717  10.734  18.348  15.205  0.1262  0.0299 -0.1192
  787DDP     P1 4718  10.612  18.697  15.438 -0.1297 -0.1080  0.2481
  787DDP     P2 4719  10.681  18.452  14.852  0.1129  0.0095 -0.0474
  787DDP     C2 4720  10.708  18.621  14.445  0.2177 -0.2180  0.0848
  787DDP     C3 4721  10.257  18.996  15.541  0.0450  0.1290  0.4529
  787DDP     C4 4722  11.066  18.061  15.323  0.1359 -0.1029  0.0931
  788DDP     C1 4723  15.058   5.807   5.359 -0.1718 -0.1333 -0.1040
  788DDP     P1 4724  14.890   6.098   5.105  0.2266  0.4455 -0.1610
  788DDP     P2 4725  15.492   5.630   5.306  0.0721  0.1121  0.2812
  788DDP     C2 4726  15.891   5.666   5.167  0.1379 -0.5370 -0.0514
  788DDP     C3 4727  14.802   5.992   4.680  0.0151  0.1139  0.2382
  788DDP     C4 4728  14.860   5.729   5.697 -0.2332  0.2003  0.2002
  789DDP     C1 4729  10.196  16.482  29.711  0.0823  0.0005 -0.0993
  789DDP     P1 4730   9.869  16.264  29.992 -0.4118 -0.1653  0.0184
  789DDP     P2 4731  10.195  16.375  29.357 -0.2227 -0.0428 -0.1103
  789DDP     C2 4732  10.208  16.566  28.917 -0.5051  0.1997  0.2485
  789DDP     C3 4733   9.535  16.194  30.181  0.4246  0.1317 -0.0725
  789DDP     C4 4734  10.671  16.395  29.796 -0.0729 -0.3265 -0.0412
  790DDP     C1 4735  22.878  20.501   5.323 -0.1327  0.2270 -0.1427
  790DDP     P1 4736  22.341  20.545   5.190 -0.1756 -0.1756  0.0601
  790DDP     P2 4737  22.918  20.580   5.800 -0.0517 -0.0826 -0.1342
  790DDP     C2 4738  23.131  20.323   6.125 -0.1520  0.1035  0.0696
  790DDP     C3 4739  22.013  20.845   4.922  0.1257 -0.0086 -0.1924
  790DDP     C4 4740  23.179  20.237   5.157 -0.1887  0.2252  0.1231
  791DDP     C1 4741   1.928   2.364  25.848  0.2885 -0.1881  0.2432
  791DDP     P1 4742   1.849   2.643  26.174 -0.2245 -0.0246  0.1278
  791DDP     P2 4743   1.890   2.545  25.378  0.1498 -0.1008  0.3122
  791DDP     C2 4744   2.018   2.471  25.057  0.2959 -0.1646  0.0723
  791DDP     C3 4745   1.509   2.976  26.288  0.3099  0.2044 -0.2647
  791DDP     C4 4746   2.184   2.103  25.868  0.0427 -0.1292  0.1353
  792DDP     C1 4747   8.146  28.427  22.783  0.1124 -0.1035  0.0751
  792DDP     P1 4748   7.767  28.302  22.686 -0.1894 -0.1373 -0.3319
  792DDP     P2 4749   8.364  28.388  22.342 -0.0786  0.0492 -0.2210
  792DDP     C2 4750   8.694  28.385  22.008  0.1286  0.1952  0.0659
  792DDP     C3 4751   7.321  28.194  22.832  0.2425 -0.1381  0.0045
  792DDP     C4 4752   8.278  28.514  23.149 -0.2241  0.2343 -0.0177
  793DDP     C1 4753  18.616  11.717  23.844 -0.0709  0.1665 -0.1504
  793DDP     P1 4754  18.794  11.622  24.182  0.0135  0.0317  0.1587
  793DDP     P2 4755  18.199  11.577  23.664  0.2578 -0.0939  0.0991
  793DDP     C2 4756  18.022  11.807  23.295  0.0951 -0.0234 -0.1227
  793DDP     C3 4757  19.152  11.407  24.399  0.2014 -0.1718  0.0166
  793DDP     C4 4758  18.694  12.039  23.596 -0.0644 -0.2376  0.3104
  794DDP     C1 4759  27.571   3.538  20.627  0.1328  0.0124 -0.0111
  794DDP     P1 4760  27.785   3.225  20.840  0.4208 -0.1111 -0.1193
  794DDP     P2 4761  27.124   3.510  20.698  0.2413  0.1630 -0.2052
  794DDP     C2 4762  26.801   3.742  20.731 -0.2403 -0.1462 -0.1293
  794DDP     C3 4763  28.007   3.316  21.276 -0.0037  0.1574  0.1082
  794DDP     C4 4764  27.625   4.049  20.835 -0.0730 -0.1468  0.1724
  795DDP     C1 4765  11.707   5.533   3.887  0.2442 -0.1987 -0.1045
  795DDP     P1 4766  11.543   5.553   3.522  0.1589  0.0801  0.0375
  795DDP     P2 4767  11.558   5.864   3.990  0.0715 -0.3214 -0.1505
  795DDP     C2 4768  11.320   6.234   4.033 -0.0287  0.2940  0.3417
  795DDP     C3 4769  11.180   5.500   3.237  0.3678 -0.2636 -0.1647
  795DDP     C4 4770  11.696   5.164   4.163  0.0070 -0.1187  0.2070
  796DDP     C1 4771  16.692  10.876  28.142 -0.0881 -0.1222 -0.2232
  796DDP     P1 4772  16.279  10.656  28.134 -0.0835  0.1763  0.0284
  796DDP     P2 4773  16.770  11.183  28.500 -0.1410  0.2688  0.0919
  796DDP     C2 4774  16.994  11.507  28.804  0.1370  0.2002  0.0751
  796DDP     C3 4775  15.954  10.704  27.786  0.2040  0.0722 -0.0517
  796DDP     C4 4776  17.076  10.744  27.804  0.0546  0.0654  0.1442
  797DDP     C1 4777  15.099   9.919  11.455 -0.0136  0.0428  0.0855
  797DDP     P1 4778  15.460  10.144  11.612  0.2714  0.2064  0.0653
  797DDP     P2 4779  15.015   9.525  11.568 -0.0461  0.0470  0.1318
  797DDP     C2 4780  14.742   9.180  11.422  0.1969  0.1929 -0.0417
  797DDP     C3 4781  15.918  10.310  11.694 -0.1819 -0.0304  0.0119
  797DDP     C4 4782  14.925  10.086  11.132 -0.3223 -0.0548 -0.3778
  798DDP     C1 4783  12.582  30.205   8.293 -0.2830 -0.2447  0.0191
  798DDP     P1 4784  12.947  30.235   7.987  0.1491 -0.2658  0.2181
  798DDP     P2 4785  12.121  30.321   8.276 -0.1761 -0.0323  0.2370
  798DDP     C2 4786  11.648  30.205   8.346 -0.0323 -0.1291 -0.3653
  798DDP     C3 4787  13.376  30.212   7.791 -0.3281 -0.2662 -0.0323
  798DDP     C4 4788  12.618  30.197   8.704 -0.1284 -0.0446  0.2450
  799DDP     C1 4789   9.522  16.891  11.392  0.2348 -0.5203 -0.3661
  799DDP     P1 4790   9.832  16.827  11.529 -0.0597 -0.1886  0.1442
  799DDP     P2 4791   9.298  17.221  11.152 -0.0494  0.3818 -0.1614
  799DDP     C2 4792   9.403  17.379  10.777 -0.1909  0.1498  0.2333
  799DDP     C3 4793  10.091  16.671  11.902  0.0843 -0.3123  0.1542
  799DDP     C4 4794   9.272  16.510  11.478 -0.0774  0.1854  0.0817
  800DDP     C1 4795  23.687   5.115   1.043 -0.0944  0.0289  0.2539
  800DDP     P1 4796  23.740   5.436   0.672  0.0167 -0.0862 -0.1380
  800DDP     P2 4797  23.975   5.034   1.344 -0.1667 -0.1741  0.3868
  800DDP     C2 4798  24.371   5.193   1.514 -0.0934  0.0028 -0.0033
  800DDP     C3 4799  24.076   5.422   0.398 -0.3413  0.0304  0.0441
  800DDP     C4 4800  23.277   4.956   1.219  0.0220  0.1634 -0.0536
  801DDP     C1 4801  11.970  28.571  24.086 -0.1733  0.2459  0.3059
  801DDP     P1 4802  11.614  28.308  23.984 -0.0781  0.0915 -0.3522
  801DDP     P2 4803  11.788  28.988  23.918  0.1194  0.0904  0.1617
  801DDP     C2 4804  11.939  29.329  23.698 -0.0155 -0.0472  0.3172
  801DDP     C3 4805  11.473  28.113  23.546  0.2020  0.3314  0.2711
  801DDP     C4 4806  12.199  28.356  24.402 -0.1972 -0.3847  0.1206
  802DDP     C1 4807  27.522   3.250   1.031 -0.0668 -0.0481 -0.1237
  802DDP     P1 4808  27.683   3.006   1.331 -0.1403 -0.0861  0.0049
  802DDP     P2 4809  27.231   3.545   1.313  0.1067  0.0183  0.0700
  802DDP     C2 4810  27.113   3.988   1.293  0.2077 -0.0064  0.2703
  802DDP     C3 4811  28.167   2.669   1.268 -0.0853 -0.2003  0.0330
  802DDP     C4 4812  27.451   3.138   0.675  0.1801 -0.0669  0.1190
  803DDP     C1 4813   3.633  22.784  28.425 -0.1907  0.1485  0.0819
  803DDP     P1 4814   3.604  23.217  28.437  0.0352 -0.2281 -0.3446
  803DDP     P2 4815   3.994  22.586  28.598 -0.0295 -0.1155  0.1538
  803DDP     C2 4816   3.869  22.695  29.032  0.2131  0.0850  0.0595
  803DDP     C3 4817   3.916  23.576  28.355  0.0516  0.1008  0.2009
  803DDP     C4 4818   3.436  22.631  28.107  0.1473  0.2600  0.0595
  804DDP     C1 4819   5.808  17.112   9.886 -0.0219  0.0050  0.1153
  804DDP     P1 4820   5.794  17.501   9.663  0.1491  0.0327 -0.1878
  804DDP     P2 4821   6.231  17.008  10.201  0.0947 -0.0990  0.0497
  804DDP     C2 4822   6.645  17.290  10.450  0.1543 -0.0630 -0.1487
  804DDP     C3 4823   5.877  17.949   9.725  0.1570  0.6139 -0.2525
  804DDP     C4 4824   5.478  16.770   9.951 -0.0380  0.1340  0.1655
  805DDP     C1 4825   0.254  24.354   0.833  0.0355  0.0776 -0.0710
  805DDP     P1 4826   0.250  24.486   0.402 -0.0126 -0.1725  0.0115
  805DDP     P2 4827   0.258  23.923   0.950 -0.1371 -0.0699 -0.0163
  805DDP     C2 4828  30.274  23.640   0.968 -0.0270  0.2340 -0.0580
  805DDP     C3 4829   0.409  24.831   0.156  0.0456  0.1386  0.0169
  805DDP     C4 4830   0.134  24.613   1.033 -0.0368 -0.1835 -0.2076
  806DDP     C1 4831   5.265  18.377  13.833 -0.2017 -0.0804 -0.1379
  806DDP     P1 4832   5.074  18.166  14.237 -0.1711  0.1392  0.1419
  806DDP     P2 4833   5.584  18.655  13.906  0.0982 -0.1904 -0.0431
  806DDP     C2 4834   5.875  18.867  14.176 -0.0269  0.0977 -0.0888
  806DDP     C3 4835   4.702  18.077  14.532 -0.0480 -0.4213  0.0897
  806DDP     C4 4836   5.207  18.190  13.515  0.0839  0.0921  0.0471
  807DDP     C1 4837  25.558   0.131   3.526 -0.3997  0.1812  0.1003
  807DDP     P1 4838  25.774   0.520   3.577  0.1288 -0.0579 -0.0235
  807DDP     P2 4839  25.477   0.228   3.163  0.1642  0.0942 -0.0845
  807DDP     C2 4840  25.493   0.019   2.755  0.4661  0.1445  0.2065
  807DDP     C3 4841  25.787   0.947   3.647  0.1811 -0.0518 -0.0380
  807DDP     C4 4842  25.556  30.038   3.623 -0.1725  0.2855 -0.0903
  808DDP     C1 4843   4.620  11.384   9.535 -0.1399  0.4084  0.0621
  808DDP     P1 4844   4.869  11.737   9.474  0.0365  0.2499  0.3791
  808DDP     P2 4845   4.601  11.052   9.911 -0.0440 -0.1630  0.1461
  808DDP     C2 4846   4.487  10.740  10.242 -0.1758 -0.0202 -0.0339
  808DDP     C3 4847   5.264  11.989   9.672 -0.1537 -0.0157 -0.2203
  808DDP     C4 4848   4.279  11.201   9.225 -0.0105  0.0361 -0.4336
  809DDP     C1 4849  12.421   6.914  19.850 -0.0245  0.0010  0.3105
  809DDP     P1 4850  12.336   7.169  20.127  0.2167 -0.1228 -0.0968
  809DDP     P2 4851  12.472   7.230  19.488  0.0531  0.0161 -0.1595
  809DDP     C2 4852  12.581   7.141  19.096  0.1302  0.0119 -0.0418
  809DDP     C3 4853  12.054   7.522  20.199  0.1053  0.3945 -0.0226
  809DDP     C4 4854  12.453   6.516  20.029  0.0278 -0.0205 -0.0936
  810DDP     C1 4855   4.519   4.253  10.146  0.0674 -0.1106  0.0071
  810DDP     P1 4856   4.200   4.004  10.282  0.2043 -0.0885  0.0396
  810DDP     P2 4857   4.900   4.448  10.492  0.1428 -0.0905  0.0779
  810DDP     C2 4858   5.277   4.262  10.715  0.4045  0.0626  0.1301
  810DDP     C3 4859   3.908   3.588  10.280 -0.0880 -0.2004 -0.2796
  810DDP     C4 4860   4.550   4.410   9.734 -0.0736  0.0303  0.0530
  811DDP     C1 4861  29.754  24.997  11.229 -0.2257  0.1363 -0.1266
  811DDP     P1 4862  29.899  25.237  10.841 -0.1306  0.0729 -0.0318
  811DDP     P2 4863  29.956  24.616  11.204  0.1812  0.1933 -0.0129
  811DDP     C2 4864  30.259  24.299  11.066  0.0998  0.2186 -0.2103
  811DDP     C3 4865  29.795  25.603  10.511  0.0674 -0.0793 -0.2917
  811DDP     C4 4866  29.606  25.038  11.644  0.1135 -0.0265  0.0178
  812DDP     C1 4867  22.049  30.288  13.315  0.3874 -0.0129  0.0429
  812DDP     P1 4868  22.371   0.056  13.307  0.0679 -0.2425  0.0577
  812DDP     P2 4869  22.108  29.811  13.285  0.1334  0.0271 -0.0531
  812DDP     C2 4870  22.363  29.455  13.381  0.2112  0.1684 -0.1469
  812DDP     C3 4871  22.658  30.037  13.156  0.0581 -0.3693 -0.0384
  812DDP     C4 4872  21.729   0.269  13.189 -0.2402 -0.2419 -0.4115
  813DDP     C1 4873  26.745   7.773  26.155  0.0513 -0.1392  0.0640
  813DDP     P1 4874  26.315   7.817  25.990  0.2956  0.1532 -0.2545
  813DDP     P2 4875  26.812   7.313  26.055  0.0285 -0.0692  0.1071
  813DDP     C2 4876  26.873   7.003  25.704 -0.0214  0.1612 -0.2657
  813DDP     C3 4877  25.950   7.831  25.643 -0.2289  0.2483  0.0137
  813DDP     C4 4878  27.008   7.991  26.453  0.1675 -0.0929 -0.0527
  814DDP     C1 4879  19.671   3.544   1.639 -0.2859  0.1165  0.1630
  814DDP     P1 4880  19.292   3.809   1.636 -0.1187  0.1749 -0.0885
  814DDP     P2 4881  20.051   3.883   1.566 -0.3230 -0.0324  0.3218
  814DDP     C2 4882  19.995   4.056   1.120 -0.0643 -0.1971  0.0144
  814DDP     C3 4883  18.988   4.063   1.784  0.0159  0.0828  0.1423
  814DDP     C4 4884  19.704   3.087   1.424  0.0241 -0.0991  0.0212
  815DDP     C1 4885  21.085  17.264  27.693  0.0757 -0.2987  0.0064
  815DDP     P1 4886  21.262  17.320  28.097 -0.0957  0.0998 -0.1034
  815DDP     P2 4887  20.877  17.437  27.390 -0.1778 -0.0854 -0.2749
  815DDP     C2 4888  20.906  17.691  26.977 -0.0259  0.2299 -0.2793
  815DDP     C3 4889  21.624  17.231  28.352  0.1481  0.2082 -0.3116
  815DDP     C4 4890  21.419  16.919  27.390 -0.0377  0.0545 -0.0461
  816DDP     C1 4891  21.461   5.338   1.227  0.1105  0.1611  0.0059
  816DDP     P1 4892  21.827   5.095   1.274 -0.2747  0.2170 -0.0209
  816DDP     P2 4893  21.547   5.536   0.746  0.0540  0.0652 -0.1514
  816DDP     C2 4894  21.509   5.800   0.408  0.0726  0.0686  0.0851
  816DDP     C3 4895  22.020   5.055   1.559  0.1527 -0.2390  0.0532
  816DDP     C4 4896  21.094   5.376   1.480 -0.1858  0.2302 -0.1531
  817DDP     C1 4897  19.158  20.666  19.651  0.5092 -0.0176  0.2847
  817DDP     P1 4898  19.363  20.249  19.869  0.0462 -0.1202  0.0343
  817DDP     P2 4899  18.780  20.559  19.457 -0.0216  0.1752 -0.3567
  817DDP     C2 4900  18.592  20.309  19.207  0.1127  0.0366 -0.1509
  817DDP     C3 4901  19.104  19.907  19.989 -0.1155  0.0559 -0.0391
  817DDP     C4 4902  19.219  21.136  19.784  0.2744  0.0658 -0.0363
  818DDP     C1 4903  15.151  14.368  25.782  0.1389  0.3287  0.2975
  818DDP     P1 4904  15.628  14.458  25.712 -0.1048  0.0376  0.1715
  818DDP     P2 4905  15.012  13.960  25.726 -0.0639 -0.1326 -0.1028
  818DDP     C2 4906  14.803  13.726  25.457 -0.2044 -0.1425  0.0641
  818DDP     C3 4907  16.012  14.351  25.506 -0.1388  0.1995  0.2371
  818DDP     C4 4908  14.854  14.601  25.977 -0.0619 -0.3139  0.2526
  819DDP     C1 4909  14.138   9.457  30.010 -0.2279 -0.2301  0.4402
  819DDP     P1 4910  13.697   9.723  29.917 -0.3871  0.1072 -0.3165
  819DDP     P2 4911  14.055   9.115  30.303  0.2231  0.2270  0.0272
  819DDP     C2 4912  13.981   8.613  30.223 -0.0731  0.1504  0.1514
  819DDP     C3 4913  13.347   9.867  29.862  0.1764  0.0875  0.2470
  819DDP     C4 4914  14.491   9.633  29.848 -0.0050 -0.1112  0.0800
  820DDP     C1 4915  16.359   1.903  21.633 -0.0061 -0.0765 -0.0359
  820DDP     P1 4916  16.190   1.630  21.164 -0.1471 -0.1150  0.0201
  820DDP     P2 4917  16.088   1.920  22.055  0.1044 -0.2905  0.2085
  820DDP     C2 4918  15.965   1.547  22.205  0.1910  0.2518  0.4628
  820DDP     C3 4919  16.179   1.212  21.079 -0.1974 -0.0959  0.0597
  820DDP     C4 4920  16.791   1.918  21.724  0.1606 -0.1255  0.0748
  821DDP     C1 4921  10.351   9.294   3.410  0.0416 -0.0242  0.0492
  821DDP     P1 4922  10.450   8.987   3.846 -0.0146  0.4092 -0.2631
  821DDP     P2 4923  10.226   9.755   3.376 -0.1612 -0.1024 -0.0609
  821DDP     C2 4924   9.964  10.101   3.580 -0.1572 -0.0543  0.1382
  821DDP     C3 4925  10.150   8.893   4.176  0.0177  0.4399  0.3155
  821DDP     C4 4926  10.451   8.989   3.055  0.0078  0.0318 -0.2430
  822DDP     C1 4927  14.080  22.563   1.463 -0.0476  0.0721 -0.0324
  822DDP     P1 4928  13.856  22.213   1.742 -0.0218 -0.1772 -0.3002
  822DDP     P2 4929  14.160  22.967   1.757  0.1585 -0.0223 -0.1746
  822DDP     C2 4930  14.133  23.348   1.669 -0.0476 -0.0535 -0.1100
  822DDP     C3 4931  13.601  21.780   1.771 -0.1370 -0.1722 -0.0367
  822DDP     C4 4932  14.009  22.684   1.056  0.0087 -0.0238  0.2646
  823DDP     C1 4933  14.404   2.832  15.869  0.2404 -0.1199 -0.4649
  823DDP     P1 4934  14.093   3.021  15.529 -0.3327 -0.2535 -0.2317
  823DDP     P2 4935  14.672   2.541  15.751 -0.0888  0.3304  0.0855
  823DDP     C2 4936  15.092   2.194  15.914 -0.0811  0.2144  0.6001
  823DDP     C3 4937  13.763   2.941  15.113  0.1044 -0.1761 -0.3190
  823DDP     C4 4938  14.446   2.989  16.278 -0.0076  0.1815 -0.1718
  824DDP     C1 4939   6.612  15.449  14.345  0.1413 -0.1056  0.0113
  824DDP     P1 4940   6.278  15.383  14.474  0.1036 -0.2556  0.1406
  824DDP     P2 4941   6.866  15.194  14.647 -0.1943  0.1785  0.1508
  824DDP     C2 4942   7.112  14.866  14.617  0.3659 -0.1323 -0.3764
  824DDP     C3 4943   6.246  15.442  14.873  0.1562  0.2880  0.1135
  824DDP     C4 4944   6.719  15.465  13.907  0.4274  0.1939 -0.0072
  825DDP     C1 4945  11.054   2.068   0.106 -0.0161 -0.2298 -0.2151
  825DDP     P1 4946  11.384   2.041  30.111 -0.0004  0.0108 -0.2862
  825DDP     P2 4947  10.922   1.675   0.373 -0.0251 -0.0114 -0.1098
  825DDP     C2 4948  10.918   1.172   0.284 -0.0687 -0.0843 -0.1449
  825DDP     C3 4949  11.786   2.067  29.883 -0.2721  0.0145 -0.2028
  825DDP     C4 4950  10.657   2.374   0.160  0.0373 -0.0018 -0.1692
  826DDP     C1 4951  18.349  20.659   8.036  0.1193  0.1211 -0.0860
  826DDP     P1 4952  18.403  20.691   7.604  0.0834 -0.0419 -0.0471
  826DDP     P2 4953  17.927  20.600   8.103 -0.1268 -0.0347 -0.2890
  826DDP     C2 4954  17.745  20.700   8.528  0.2360  0.1678  0.0161
  826DDP     C3 4955  18.538  20.902   7.218 -0.0547 -0.0975  0.0161
  826DDP     C4 4956  18.640  20.715   8.374  0.1590  0.0466 -0.0805
  827DDP     C1 4957  29.253  27.785  23.641 -0.4948  0.1620  0.0127
  827DDP     P1 4958  29.321  28.233  23.584 -0.1353  0.1042 -0.2207
  827DDP     P2 4959  29.516  27.520  23.559 -0.1856 -0.0490 -0.2085
  827DDP     C2 4960  29.397  27.204  23.424 -0.1878  0.0680 -0.0591
  827DDP     C3 4961  29.651  28.429  23.714  0.0326  0.2622 -0.0570
  827DDP     C4 4962  28.948  27.610  23.934  0.1241 -0.0494  0.1663
  828DDP     C1 4963   6.782  12.620  11.393  0.0443  0.1495 -0.0216
  828DDP     P1 4964   6.438  12.770  11.495  0.1278  0.1701  0.2036
  828DDP     P2 4965   6.712  12.492  11.053 -0.1783  0.1391  0.2114
  828DDP     C2 4966   6.905  12.561  10.657 -0.1648 -0.4122 -0.0023
  828DDP     C3 4967   6.044  12.975  11.740  0.0648  0.4516 -0.0870
  828DDP     C4 4968   7.108  12.431  11.592 -0.0064 -0.1614  0.1943
  829DDP     C1 4969   4.965  10.845   1.439 -0.1142  0.1962  0.0550
  829DDP     P1 4970   4.662  11.058   1.388  0.2426 -0.1587 -0.0000
  829DDP     P2 4971   5.095  10.900   1.881 -0.2883  0.3560  0.1663
  829DDP     C2 4972   5.316  10.760   2.321 -0.1317 -0.0174 -0.1926
  829DDP     C3 4973   4.461  11.410   1.516  0.1050  0.4005 -0.3331
  829DDP     C4 4974   5.269  10.686   1.227  0.1094 -0.1314 -0.1291
  830DDP     C1 4975   8.279   7.261  21.638  0.1543 -0.0373 -0.0610
  830DDP     P1 4976   8.576   7.210  21.406 -0.0813  0.1966 -0.2567
  830DDP     P2 4977   8.071   6.952  21.743 -0.0816  0.0706  0.6616
  830DDP     C2 4978   7.955   6.649  22.041 -0.2538 -0.1804  0.0840
  830DDP     C3 4979   8.866   7.380  21.041 -0.2894 -0.0030  0.0708
  830DDP     C4 4980   8.133   7.732  21.579 -0.0329 -0.5273 -0.1195
  831DDP     C1 4981  23.984  15.516  29.931  0.2898 -0.1811 -0.1158
  831DDP     P1 4982  24.263  15.360  30.231 -0.4326 -0.0833 -0.0788
  831DDP     P2 4983  23.574  15.263  30.112  0.2716 -0.2409  0.0940
  831DDP     C2 4984  23.404  14.917  29.921 -0.0554 -0.3085 -0.0903
  831DDP     C3 4985  24.316  15.155   0.305 -0.0588  0.0285 -0.0490
  831DDP     C4 4986  24.092  15.668  29.487 -0.3749 -0.0417  0.0900
  832DDP     C1 4987  11.198  18.805  12.262 -0.1030 -0.1446 -0.5177
  832DDP     P1 4988  10.958  19.091  11.960  0.1622  0.3228  0.0942
  832DDP     P2 4989  11.669  18.748  12.332 -0.3337  0.0634  0.1139
  832DDP     C2 4990  12.047  18.826  12.648  0.0985  0.0677 -0.2252
  832DDP     C3 4991  10.693  19.491  12.086  0.2287  0.3705  0.5103
  832DDP     C4 4992  10.913  18.621  12.698  0.0423  0.0842 -0.2773
  833DDP     C1 4993   2.545   6.058   4.904 -0.0498  0.0040  0.4122
  833DDP     P1 4994   2.401   5.799   5.150  0.0665 -0.2753  0.0327
  833DDP     P2 4995   2.905   6.269   4.642 -0.1711  0.1749  0.0313
  833DDP     C2 4996   3.105   6.313   4.294  0.1011  0.0763 -0.2043
  833DDP     C3 4997   2.333   5.340   5.194  0.1500 -0.0109 -0.1747
  833DDP     C4 4998   2.120   6.381   4.843 -0.0160 -0.2220 -0.0042
  834DDP     C1 4999  14.035  30.266  30.112  0.0267 -0.0020  0.0409
  834DDP     P1 5000  14.461  30.047  30.017  0.0495 -0.3300 -0.1527
  834DDP     P2 5001  13.715  30.118  30.311  0.2642  0.2199  0.1589
  834DDP     C2 5002  13.612  29.819   0.294  0.2022  0.2013 -0.0334
  834DDP     C3 5003  14.693  29.739  30.101  0.0163 -0.0334  0.2897
  834DDP     C4 5004  13.933   0.327  -0.002  0.0425 -0.2379 -0.1307
  835DDP     C1 5005   2.848  17.290   9.695 -0.2955  0.1516 -0.1316
  835DDP     P1 5006   2.609  17.444  10.060 -0.3479 -0.0626 -0.1161
  835DDP     P2 5007   2.813  17.613   9.353  0.1690  0.0349 -0.2028
  835DDP     C2 5008   2.613  17.999   9.157  0.2055 -0.1809  0.1403
  835DDP     C3 5009   2.169  17.465  10.165 -0.1253  0.1131 -0.3066
  835DDP     C4 5010   3.005  16.981   9.764  0.0157 -0.1118 -0.1087
  836DDP     C1 5011   2.871   2.975  19.427  0.1246  0.0130 -0.1199
  836DDP     P1 5012   3.305   2.910  19.383 -0.3156  0.2595  0.1623
  836DDP     P2 5013   2.608   2.640  19.641  0.2879 -0.2213 -0.1756
  836DDP     C2 5014   2.499   2.454  20.019  0.2148 -0.0793 -0.0003
  836DDP     C3 5015   3.713   2.854  19.293 -0.1709 -0.0286 -0.0793
  836DDP     C4 5016   2.626   3.261  19.209  0.3254 -0.1905  0.0936
  837DDP     C1 5017  27.924   2.284  29.058 -0.0352 -0.2608  0.2243
  837DDP     P1 5018  28.148   2.549  29.349  0.0899 -0.0776  0.0195
  837DDP     P2 5019  27.997   2.349  28.664 -0.1492  0.2124  0.1432
  837DDP     C2 5020  28.391   2.355  28.405 -0.1836  0.2737  0.2504
  837DDP     C3 5021  28.467   2.744  29.617 -0.0041  0.0579 -0.0042
  837DDP     C4 5022  27.530   2.098  29.371 -0.3099 -0.2218 -0.2380
  838DDP     C1 5023  24.001  17.653  16.656  0.1132  0.1202 -0.5482
  838DDP     P1 5024  24.247  17.667  17.042  0.3928 -0.1503  0.3683
  838DDP     P2 5025  23.897  18.120  16.574 -0.0561  0.0559 -0.1920
  838DDP     C2 5026  23.881  18.386  16.229  0.0133 -0.1735  0.0261
  838DDP     C3 5027  24.616  17.922  17.246  0.0643  0.2031  0.1280
  838DDP     C4 5028  23.996  17.417  16.410  0.1579  0.0264  0.3566
  839DDP     C1 5029  16.571  13.710  25.290 -0.1175 -0.1420 -0.1540
  839DDP     P1 5030  16.797  13.476  25.615 -0.1147 -0.0037 -0.0733
  839DDP     P2 5031  16.771  13.409  25.009  0.0565  0.1346 -0.0560
  839DDP     C2 5032  17.283  13.226  24.980  0.1872 -0.1049 -0.2596
  839DDP     C3 5033  16.813  13.002  25.642  0.0831 -0.1406 -0.3657
  839DDP     C4 5034  16.586  14.146  25.404  0.2725  0.1050  0.0279
  840DDP     C1 5035   8.264  18.316  27.731  0.0038 -0.0019  0.2872
  840DDP     P1 5036   8.745  18.358  27.621  0.0351  0.0495 -0.2854
  840DDP     P2 5037   8.069  18.084  28.014 -0.2095 -0.1616  0.0737
  840DDP     C2 5038   8.145  17.807  28.442 -0.2264 -0.0298 -0.2661
  840DDP     C3 5039   8.995  17.991  27.544  0.1958  0.1813 -0.0260
  840DDP     C4 5040   8.001  18.500  27.456 -0.0052  0.0562 -0.1444
  841DDP     C1 5041  26.589  23.545   5.553  0.2881  0.1427  0.1794
  841DDP     P1 5042  27.047  23.453   5.565 -0.0790  0.0470 -0.4370
  841DDP     P2 5043  26.532  23.917   5.365 -0.0784  0.0177  0.2307
  841DDP     C2 5044  26.396  24.271   5.461  0.1670  0.2364  0.1431
  841DDP     C3 5045  27.343  23.441   5.980 -0.0529  0.0040 -0.2365
  841DDP     C4 5046  26.234  23.309   5.638 -0.0830  0.1794  0.0054
  842DDP     C1 5047  22.911  28.142  10.031  0.4984 -0.0856  0.1879
  842DDP     P1 5048  23.282  28.010   9.977 -0.0895 -0.1677 -0.1563
  842DDP     P2 5049  22.679  28.509  10.149  0.0925  0.0068 -0.0372
  842DDP     C2 5050  22.568  28.926  10.432 -0.3329 -0.2200  0.0343
  842DDP     C3 5051  23.722  27.858  10.097  0.2060  0.0780  0.0209
  842DDP     C4 5052  22.768  27.903   9.580  0.1299  0.2744  0.2138
  843DDP     C1 5053  19.105  14.505  10.218  0.0518  0.0253  0.1304
  843DDP     P1 5054  18.702  14.239  10.200  0.1882  0.0079  0.0319
  843DDP     P2 5055  19.183  14.963  10.173  0.1788 -0.3046  0.0328
  843DDP     C2 5056  19.160  15.380  10.013  0.0133 -0.1229  0.1201
  843DDP     C3 5057  18.284  14.158  10.399  0.3541  0.2693 -0.1521
  843DDP     C4 5058  19.190  14.215  10.556  0.1637 -0.1512 -0.1001
  844DDP     C1 5059  16.254   1.634   9.040 -0.0968  0.1294  0.0444
  844DDP     P1 5060  16.460   1.800   8.653  0.1783  0.1839 -0.0180
  844DDP     P2 5061  15.816   1.623   9.010 -0.2791 -0.0791  0.2992
  844DDP     C2 5062  15.493   1.634   9.270  0.0721  0.1915  0.3946
  844DDP     C3 5063  16.237   1.903   8.220 -0.2529 -0.0497  0.1707
  844DDP     C4 5064  16.282   1.771   9.484  0.1568 -0.0392  0.1052
  845DDP     C1 5065   5.848  10.138  15.159  0.1921 -0.0737 -0.4569
  845DDP     P1 5066   6.289  10.124  15.263  0.2332  0.0260  0.1796
  845DDP     P2 5067   5.648  10.088  14.652  0.1830 -0.0124  0.0083
  845DDP     C2 5068   5.651   9.713  14.442  0.0104  0.0894  0.1456
  845DDP     C3 5069   6.530   9.945  15.555  0.0854 -0.0995 -0.4142
  845DDP     C4 5070   5.558  10.113  15.420  0.0050  0.0608  0.3272
  846DDP     C1 5071  12.751   9.270  27.677  0.0677  0.0239  0.1875
  846DDP     P1 5072  13.180   9.578  27.616  0.2675 -0.1983  0.1775
  846DDP     P2 5073  12.512   8.977  27.610  0.3505  0.1882 -0.3200
  846DDP     C2 5074  12.219   8.684  27.884 -0.2501 -0.0403  0.0028
  846DDP     C3 5075  12.979   9.979  27.459  0.0224 -0.2302 -0.2243
  846DDP     C4 5076  12.543   9.269  28.061  0.1696 -0.1758  0.3697
  847DDP     C1 5077  20.979  25.680  15.076  0.1346  0.1694 -0.1328
  847DDP     P1 5078  20.561  25.826  15.150  0.3584 -0.1006 -0.2967
  847DDP     P2 5079  21.110  25.468  14.758 -0.0231  0.1789  0.0244
  847DDP     C2 5080  21.364  25.298  14.462 -0.3545 -0.0857  0.2108
  847DDP     C3 5081  20.118  25.820  15.208  0.1052  0.1966 -0.0239
  847DDP     C4 5082  21.327  25.744  15.395 -0.0008  0.1723 -0.0153
  848DDP     C1 5083   3.681  30.202   7.564  0.1549  0.1321 -0.0182
  848DDP     P1 5084   3.873  29.836   7.406  0.0521  0.2035 -0.0188
  848DDP     P2 5085   3.314   0.109   7.513  0.3998  0.1854 -0.3248
  848DDP     C2 5086   3.219   0.614   7.532 -0.2723  0.0549  0.0818
  848DDP     C3 5087   4.023  29.585   7.082  0.1007  0.2170  0.1586
  848DDP     C4 5088   4.113  30.265   7.888  0.1539  0.1405 -0.0712
  849DDP     C1 5089  14.439  14.011   4.174 -0.0888  0.0460  0.1898
  849DDP     P1 5090  14.272  14.032   3.732  0.2351 -0.2092 -0.2052
  849DDP     P2 5091  14.139  13.855   4.475 -0.0502 -0.1193  0.0586
  849DDP     C2 5092  13.894  14.065   4.806  0.1765  0.1597  0.2051
  849DDP     C3 5093  14.221  14.320   3.390 -0.1334  0.2923 -0.0076
  849DDP     C4 5094  14.900  14.034   4.254  0.0842  0.1690  0.0432
  850DDP     C1 5095  18.357  13.446   5.092  0.1638 -0.1655  0.6864
  850DDP     P1 5096  18.578  13.709   4.730 -0.0295  0.1691 -0.0887
  850DDP     P2 5097  17.988  13.268   4.874  0.0730  0.1687 -0.1510
  850DDP     C2 5098  17.651  13.332   4.663 -0.0475  0.1214  0.0927
  850DDP     C3 5099  18.753  14.005   4.395 -0.1385 -0.0292  0.0924
  850DDP     C4 5100  18.535  13.054   5.341 -0.4275  0.1885 -0.0142
  851DDP     C1 5101  19.663  10.862  19.920  0.0777  0.1015 -0.1009
  851DDP     P1 5102  19.639  11.158  19.671 -0.0812  0.1352  0.1371
  851DDP     P2 5103  19.867  10.396  19.727  0.0559 -0.0126 -0.1442
  851DDP     C2 5104  19.888  10.037  19.528 -0.1123 -0.1401  0.2327
  851DDP     C3 5105  19.719  11.266  19.173 -0.4047  0.3132 -0.1205
  851DDP     C4 5106  19.468  10.998  20.270  0.1254  0.3503 -0.0556
  852DDP     C1 5107   8.339  20.349  24.439  0.2402 -0.2893 -0.0903
  852DDP     P1 5108   8.348  20.050  24.758 -0.1691 -0.0298  0.0322
  852DDP     P2 5109   8.221  20.723  24.675 -0.0877  0.2142 -0.0040
  852DDP     C2 5110   7.904  20.743  24.971 -0.1190 -0.1991  0.0220
  852DDP     C3 5111   8.500  19.648  24.862 -0.0580  0.2948  0.1603
  852DDP     C4 5112   8.589  20.426  24.173 -0.1299 -0.1306  0.0136
  853DDP     C1 5113  13.817  25.066   5.923 -0.0083  0.0502 -0.0197
  853DDP     P1 5114  13.879  25.298   5.494  0.1922 -0.2984  0.0851
  853DDP     P2 5115  14.131  24.697   5.711 -0.0936 -0.2438  0.1520
  853DDP     C2 5116  14.363  24.489   5.679  0.2036 -0.0932  0.1437
  853DDP     C3 5117  13.604  25.718   5.363  0.0752 -0.2010 -0.1000
  853DDP     C4 5118  13.728  25.315   6.347 -0.1587  0.3402 -0.1247
  854DDP     C1 5119  29.535  18.137  15.499 -0.2189  0.0104  0.0474
  854DDP     P1 5120  29.247  18.015  15.830 -0.0045  0.0940  0.1366
  854DDP     P2 5121  29.359  18.244  14.975  0.1629 -0.2594  0.2546
  854DDP     C2 5122  29.449  18.441  14.572 -0.4980  0.1439  0.2470
  854DDP     C3 5123  28.953  17.757  16.020  0.0501 -0.1369 -0.1119
  854DDP     C4 5124  29.891  18.428  15.593  0.1327 -0.0498  0.1152
  855DDP     C1 5125  22.467  25.798  16.187 -0.2295  0.1111 -0.0929
  855DDP     P1 5126  22.700  25.520  16.324 -0.0451 -0.0695 -0.0617
  855DDP     P2 5127  22.279  26.007  16.612 -0.0582  0.2474  0.0578
  855DDP     C2 5128  21.909  26.000  16.835  0.0211 -0.1858 -0.0312
  855DDP     C3 5129  23.089  25.384  16.551 -0.0143  0.1509  0.1168
  855DDP     C4 5130  22.519  25.961  15.786 -0.0783 -0.0967  0.1174
  856DDP     C1 5131   5.389  18.308  20.314  0.2936  0.2783 -0.1299
  856DDP     P1 5132   5.257  18.699  20.302  0.0024 -0.0384 -0.0555
  856DDP     P2 5133   5.434  18.250  20.714  0.3441  0.1743 -0.2059
  856DDP     C2 5134   5.378  18.141  21.022 -0.0254 -0.1130  0.1037
  856DDP     C3 5135   5.067  18.740  20.061 -0.2652  0.2082 -0.1720
  856DDP     C4 5136   5.648  18.129  20.021 -0.1536 -0.2269 -0.1244
  857DDP     C1 5137   9.262  25.086  22.920 -0.0846 -0.1681 -0.0977
  857DDP     P1 5138   9.384  25.391  22.698 -0.0571  0.0366 -0.0193
  857DDP     P2 5139   9.551  24.958  23.187  0.0280 -0.1421  0.1819
  857DDP     C2 5140   9.692  24.833  23.584  0.4222 -0.1697  0.1540
  857DDP     C3 5141   9.410  25.886  22.649  0.2619 -0.0729  0.2345
  857DDP     C4 5142   8.966  24.822  22.927  0.1597 -0.2712  0.3123
  858DDP     C1 5143  15.199  24.850  20.203  0.2464  0.0067  0.2559
  858DDP     P1 5144  15.391  24.927  20.635 -0.1753  0.1980  0.4113
  858DDP     P2 5145  15.483  24.569  20.002 -0.1227  0.2039  0.0628
  858DDP     C2 5146  15.281  24.137  20.111 -0.1553  0.3212  0.0540
  858DDP     C3 5147  15.471  24.800  21.049  0.0764 -0.2045  0.1208
  858DDP     C4 5148  14.832  25.036  20.109 -0.2647 -0.0355 -0.1227
  859DDP     C1 5149   2.594   6.395  27.504 -0.2327  0.0357 -0.1425
  859DDP     P1 5150   2.239   6.549  27.889 -0.1495 -0.1089  0.1415
  859DDP     P2 5151   2.747   6.745  27.247  0.3903  0.4449 -0.2463
  859DDP     C2 5152   2.712   6.837  26.818 -0.0298 -0.1188 -0.0653
  859DDP     C3 5153   2.382   6.674  28.321  0.1042 -0.1092  0.2050
  859DDP     C4 5154   2.778   6.003  27.517 -0.2933 -0.0862  0.0660
  860DDP     C1 5155  18.934  26.968  13.473 -0.0606 -0.0005 -0.1829
  860DDP     P1 5156  18.835  26.825  13.864 -0.2650  0.1563 -0.0879
  860DDP     P2 5157  19.504  27.063  13.346 -0.0804  0.2781  0.0148
  860DDP     C2 5158  19.840  26.777  13.440  0.2263 -0.1613  0.0940
  860DDP     C3 5159  18.665  26.821  14.272  0.1164 -0.0637  0.2050
  860DDP     C4 5160  18.572  26.953  13.177 -0.4464 -0.2636 -0.2701
  861DDP     C1 5161   6.941  24.105   4.239  0.2148 -0.0114 -0.1285
  861DDP     P1 5162   7.174  24.131   4.663  0.3379  0.1687 -0.2091
  861DDP     P2 5163   6.626  23.814   4.119  0.0067 -0.1457 -0.0763
  861DDP     C2 5164   6.282  23.605   4.146 -0.0122 -0.0294 -0.2771
  861DDP     C3 5165   7.434  23.949   4.804  0.0197  0.2849  0.0666
  861DDP     C4 5166   6.972  24.382   3.874 -0.0305  0.2307  0.0986
  862DDP     C1 5167  29.741   4.551  10.311  0.0338  0.1021 -0.0662
  862DDP     P1 5168  29.304   4.840  10.418 -0.1120  0.3218 -0.2794
  862DDP     P2 5169  29.657   4.285   9.909  0.3691 -0.0508  0.0988
  862DDP     C2 5170  29.574   4.112   9.511 -0.2062 -0.1990  0.1838
  862DDP     C3 5171  28.946   5.002  10.348  0.4955 -0.0896  0.3396
  862DDP     C4 5172  30.108   4.638  10.604 -0.0294 -0.1258  0.1398
  863DDP     C1 5173  18.530  19.971   0.124  0.0426  0.2470  0.5134
  863DDP     P1 5174  18.773  20.202   0.383  0.1080  0.0107 -0.0070
  863DDP     P2 5175  18.834  19.673  30.272  0.0427 -0.0200  0.1657
  863DDP     C2 5176  19.295  19.543  30.343  0.2017  0.0388  0.1149
  863DDP     C3 5177  19.032  20.196   0.746  0.4254  0.0476  0.0080
  863DDP     C4 5178  17.985  19.738   0.162 -0.0534 -0.1795  0.3315
  864DDP     C1 5179  22.050  12.313  11.461  0.0383 -0.0233  0.1758
  864DDP     P1 5180  21.908  12.185  11.859  0.0024  0.2162  0.0251
  864DDP     P2 5181  21.894  12.173  11.117 -0.0222  0.3176 -0.3071
  864DDP     C2 5182  21.837  11.839  10.742 -0.3170  0.0107 -0.0071
  864DDP     C3 5183  21.603  12.125  12.220 -0.1042  0.0154  0.0603
  864DDP     C4 5184  22.264  12.656  11.398  0.1989  0.0217 -0.2857
  865DDP     C1 5185  11.831   1.550   6.460 -0.0789  0.1440 -0.0408
  865DDP     P1 5186  11.779   1.657   6.055 -0.1981 -0.2758  0.1391
  865DDP     P2 5187  12.154   1.877   6.596 -0.0393  0.1226 -0.3503
  865DDP     C2 5188  12.225   2.277   6.481  0.0333 -0.3118  0.2058
  865DDP     C3 5189  11.525   1.784   5.701  0.3284 -0.0363 -0.2276
  865DDP     C4 5190  11.522   1.163   6.664  0.1013  0.1337  0.0063
  866DDP     C1 5191  19.188  25.885  19.076 -0.3600  0.1005 -0.1272
  866DDP     P1 5192  18.816  25.813  19.291 -0.1304 -0.0058 -0.1319
  866DDP     P2 5193  19.141  26.259  18.938 -0.3463 -0.2713  0.2434
  866DDP     C2 5194  19.229  26.694  19.165  0.1056 -0.1787 -0.1584
  866DDP     C3 5195  18.433  25.608  19.490  0.0331  0.0097 -0.2299
  866DDP     C4 5196  19.451  25.517  18.881  0.1292  0.0393  0.3576
  867DDP     C1 5197  12.621  23.217  17.535 -0.0204  0.1029  0.2422
  867DDP     P1 5198  12.597  22.843  17.872  0.3005  0.2590 -0.1771
  867DDP     P2 5199  13.005  23.405  17.348 -0.0432 -0.3095  0.0288
  867DDP     C2 5200  13.258  23.453  16.976  0.1485  0.0047 -0.0027
  867DDP     C3 5201  12.214  22.887  18.226 -0.2202 -0.3558  0.0186
  867DDP     C4 5202  12.295  23.583  17.509  0.3375 -0.3889  0.1968
  868DDP     C1 5203  23.520  28.862  15.918 -0.1702  0.1149  0.3093
  868DDP     P1 5204  23.278  28.431  16.186 -0.2449  0.2461 -0.0107
  868DDP     P2 5205  23.353  29.219  15.929 -0.2231 -0.0105 -0.3354
  868DDP     C2 5206  23.351  29.649  16.027  0.1031 -0.0606 -0.1112
  868DDP     C3 5207  23.548  28.323  16.415 -0.1671 -0.0588 -0.0573
  868DDP     C4 5208  23.859  28.728  15.668 -0.0605  0.1060 -0.0618
  869DDP     C1 5209   2.105  21.258  19.250  0.1222 -0.1524 -0.0880
  869DDP     P1 5210   1.678  21.272  18.966  0.0345 -0.1890  0.1523
  869DDP     P2 5211   2.272  21.095  18.842  0.1930 -0.1084 -0.0452
  869DDP     C2 5212   2.397  20.967  18.433 -0.0257 -0.2256 -0.1773
  869DDP     C3 5213   1.334  20.868  18.968 -0.2003  0.1749 -0.3790
  869DDP     C4 5214   2.107  21.334  19.748 -0.2310 -0.0476 -0.0045
  870DDP     C1 5215  21.089   6.407   5.038 -0.1631 -0.0731  0.1284
  870DDP     P1 5216  21.330   6.685   4.721  0.0210 -0.1545 -0.0632
  870DDP     P2 5217  21.153   5.994   4.975 -0.1240  0.1762  0.0485
  870DDP     C2 5218  20.989   5.608   5.060 -0.2536 -0.1988  0.2464
  870DDP     C3 5219  21.688   6.560   4.579  0.3859  0.3310 -0.0508
  870DDP     C4 5220  20.981   6.461   5.500 -0.0955 -0.0764  0.0839
  871DDP     C1 5221  11.301  21.327  28.941  0.2350  0.0708 -0.0547
  871DDP     P1 5222  11.546  21.634  29.027  0.1447 -0.0963 -0.2518
  871DDP     P2 5223  11.042  21.418  28.611  0.2946  0.0508 -0.2181
  871DDP     C2 5224  11.254  21.557  28.305  0.2359 -0.2301 -0.0642
  871DDP     C3 5225  11.848  21.698  29.220 -0.0424 -0.0265  0.1393
  871DDP     C4 5226  11.223  20.947  28.977 -0.0314  0.3856  0.1298
  872DDP     C1 5227  14.508  21.919  20.494 -0.2800 -0.1568 -0.3431
  872DDP     P1 5228  14.766  22.133  20.302  0.1625 -0.1285  0.0669
  872DDP     P2 5229  14.079  21.940  20.420  0.1754  0.1182 -0.0401
  872DDP     C2 5230  13.811  22.171  20.695 -0.2756  0.0423  0.1143
  872DDP     C3 5231  14.864  22.106  19.905  0.0184 -0.0799 -0.1587
  872DDP     C4 5232  14.659  21.622  20.739 -0.0149 -0.3065  0.1205
  873DDP     C1 5233  22.159   6.361  11.149 -0.0916  0.0143  0.1607
  873DDP     P1 5234  22.499   6.649  11.170 -0.2041 -0.1231 -0.0953
  873DDP     P2 5235  21.864   6.420  11.527  0.2353 -0.0477 -0.1303
  873DDP     C2 5236  21.866   6.802  11.801  0.0363  0.2426  0.0565
  873DDP     C3 5237  22.876   6.719  11.001 -0.0305  0.1919  0.3548
  873DDP     C4 5238  22.110   6.010  10.844  0.1104 -0.2259 -0.2513
  874DDP     C1 5239  14.155  29.416  13.038  0.0785 -0.0570  0.0464
  874DDP     P1 5240  13.907  29.045  13.177  0.0142  0.0803 -0.1858
  874DDP     P2 5241  14.570  29.265  12.679  0.1959 -0.2871 -0.0546
  874DDP     C2 5242  14.616  29.430  12.232 -0.1035  0.0153 -0.1227
  874DDP     C3 5243  14.003  28.591  13.301  0.0711 -0.1640 -0.0710
  874DDP     C4 5244  14.037  29.744  13.065  0.2765  0.1467 -0.0172
  875DDP     C1 5245   0.502  14.232   6.844 -0.0508 -0.0626 -0.1327
  875DDP     P1 5246   0.937  14.434   7.036 -0.0105 -0.0898 -0.2106
  875DDP     P2 5247   0.375  14.412   6.523 -0.2639  0.1355 -0.1519
  875DDP     C2 5248   0.265  14.799   6.403  0.0104  0.1502 -0.0327
  875DDP     C3 5249   1.022  14.928   7.206  0.2137 -0.0359 -0.1750
  875DDP     C4 5250   0.164  14.020   7.150 -0.2170  0.0059  0.0761
  876DDP     C1 5251   8.598  14.303  15.186  0.2857 -0.0532  0.1498
  876DDP     P1 5252   8.829  14.651  14.881 -0.1163  0.0146 -0.2440
  876DDP     P2 5253   8.369  13.978  15.068 -0.2616 -0.1100 -0.2836
  876DDP     C2 5254   8.104  13.770  14.926  0.0523  0.0715 -0.4285
  876DDP     C3 5255   8.995  14.967  14.584 -0.3323  0.3179  0.1113
  876DDP     C4 5256   8.844  14.234  15.504 -0.0080 -0.0816  0.0801
  877DDP     C1 5257  29.896  27.200   1.730 -0.0346  0.1834 -0.1819
  877DDP     P1 5258  30.237  26.896   1.981 -0.2791  0.1911 -0.0718
  877DDP     P2 5259  29.488  27.218   1.959  0.1132 -0.4801  0.0359
  877DDP     C2 5260  29.400  27.239   2.298  0.2830  0.0647 -0.1738
  877DDP     C3 5261   0.398  26.734   1.942 -0.3628 -0.1164 -0.1435
  877DDP     C4 5262  30.143  27.361   1.297 -0.0955  0.1766 -0.1109
  878DDP     C1 5263  23.426   0.107  24.810  0.0599 -0.0720 -0.1470
  878DDP     P1 5264  23.685   0.031  25.227 -0.0714 -0.1101  0.0460
  878DDP     P2 5265  23.113   0.304  24.927 -0.0487  0.0247  0.1420
  878DDP     C2 5266  23.050   0.729  24.699  0.2804 -0.2750 -0.2234
  878DDP     C3 5267  24.105  30.257  25.277 -0.0021 -0.1139 -0.1039
  878DDP     C4 5268  23.715   0.107  24.344 -0.3424  0.3418 -0.0691
  879DDP     C1 5269  28.114   3.278  19.712 -0.0536 -0.2757 -0.0795
  879DDP     P1 5270  28.178   3.709  19.953 -0.0731 -0.0852  0.2975
  879DDP     P2 5271  27.722   3.219  19.583 -0.2950 -0.0523 -0.0437
  879DDP     C2 5272  27.406   3.145  19.884 -0.2524 -0.1562  0.0108
  879DDP     C3 5273  28.071   4.239  19.908  0.1599  0.0725  0.2772
  879DDP     C4 5274  28.519   3.095  19.674 -0.1028 -0.3918  0.2183
  880DDP     C1 5275  15.686  11.606  29.370  0.3141  0.0397 -0.1373
  880DDP     P1 5276  15.549  11.894  29.701 -0.1120  0.1065 -0.0668
  880DDP     P2 5277  15.533  11.358  29.477  0.0651 -0.1414  0.0163
  880DDP     C2 5278  15.332  11.115  29.946 -0.1405  0.0239 -0.2578
  880DDP     C3 5279  15.363  11.979  30.140 -0.1640  0.2239  0.1515
  880DDP     C4 5280  15.907  11.780  29.071 -0.0549  0.1753 -0.1436
  881DDP     C1 5281  18.464  22.861   0.381 -0.0705  0.0492 -0.1527
  881DDP     P1 5282  18.241  23.249   0.218  0.0173 -0.3699  0.0463
  881DDP     P2 5283  18.103  22.744   0.611 -0.1942  0.0357  0.0070
  881DDP     C2 5284  17.901  22.660   1.062 -0.0152  0.2027  0.1440
  881DDP     C3 5285  18.287  23.431  30.155  0.0592  0.1646  0.1922
  881DDP     C4 5286  18.844  22.742   0.600 -0.0603 -0.0738  0.0709
  882DDP     C1 5287  10.776  15.295   5.841  0.0154  0.0336  0.1093
  882DDP     P1 5288  10.897  14.920   5.653  0.1112  0.1584  0.0382
  882DDP     P2 5289  10.288  15.301   5.972 -0.0914 -0.3498 -0.1047
  882DDP     C2 5290   9.933  15.282   5.705 -0.0937 -0.0664  0.0704
  882DDP     C3 5291  11.057  14.613   5.317 -0.0161  0.1650  0.0116
  882DDP     C4 5292  11.112  15.445   6.062 -0.0702 -0.1931  0.0629
  883DDP     C1 5293   4.907  21.622  26.200 -0.0514 -0.0769 -0.1282
  883DDP     P1 5294   5.051  21.692  25.816  0.1515 -0.1017 -0.1109
  883DDP     P2 5295   5.230  21.524  26.501 -0.2487  0.1469  0.1320
  883DDP     C2 5296   5.680  21.506  26.766 -0.3032  0.1990  0.1077
  883DDP     C3 5297   5.088  21.848  25.387  0.0042 -0.0968  0.1545
  883DDP     C4 5298   4.458  21.740  26.205 -0.0854 -0.1157 -0.0477
  884DDP     C1 5299   8.181  10.590  20.798 -0.2205  0.1414 -0.1349
  884DDP     P1 5300   8.138  10.722  21.166 -0.2343  0.1113  0.1782
  884DDP     P2 5301   8.490  10.655  20.534  0.2163  0.1814  0.0993
  884DDP     C2 5302   8.736  10.969  20.427 -0.0793  0.2567  0.2736
  884DDP     C3 5303   8.257  10.897  21.477  0.1504  0.1709  0.1476
  884DDP     C4 5304   7.817  10.791  20.603  0.0749 -0.0442 -0.1178
  885DDP     C1 5305  23.090  23.204   1.104 -0.1565  0.0283 -0.1471
  885DDP     P1 5306  23.154  23.046   0.654  0.2123 -0.2850  0.3739
  885DDP     P2 5307  22.626  23.310   1.189  0.0481  0.2203  0.1686
  885DDP     C2 5308  22.439  23.618   1.467  0.0583  0.1559 -0.0591
  885DDP     C3 5309  23.032  23.019   0.267  0.0610  0.1141  0.0087
  885DDP     C4 5310  23.392  23.024   1.453 -0.1061  0.0933  0.2202
  886DDP     C1 5311   1.697   6.595  17.495  0.1629 -0.2134  0.0111
  886DDP     P1 5312   1.809   7.006  17.363  0.0438 -0.4394  0.0462
  886DDP     P2 5313   1.867   6.353  17.843 -0.0891  0.2370  0.0452
  886DDP     C2 5314   1.808   5.982  18.004 -0.1414 -0.1138  0.1484
  886DDP     C3 5315   1.895   7.391  17.198 -0.1214  0.1519 -0.2046
  886DDP     C4 5316   1.256   6.402  17.311  0.1630  0.2336  0.1324
  887DDP     C1 5317  16.438  18.062  12.240 -0.0492  0.2970 -0.0114
  887DDP     P1 5318  16.191  17.667  11.983  0.2254  0.1150  0.1264
  887DDP     P2 5319  16.369  18.394  12.063 -0.1682 -0.0335  0.2754
  887DDP     C2 5320  16.470  18.738  11.873  0.3402 -0.3050 -0.0683
  887DDP     C3 5321  16.000  17.388  11.846  0.1653  0.0833  0.0385
  887DDP     C4 5322  16.618  17.977  12.601 -0.0093  0.0243  0.0654
  888DDP     C1 5323  14.113   2.236  13.552 -0.2234 -0.0612 -0.2727
  888DDP     P1 5324  14.130   2.553  13.174 -0.0149  0.1571  0.2118
  888DDP     P2 5325  13.754   2.071  13.565  0.1838 -0.0178 -0.1302
  888DDP     C2 5326  13.562   2.089  13.060  0.1487 -0.4186  0.0775
  888DDP     C3 5327  14.142   2.892  13.035  0.3155  0.0332  0.0199
  888DDP     C4 5328  14.370   2.137  13.852  0.0230 -0.2236  0.0385
  889DDP     C1 5329   8.134   1.698  18.368  0.0915 -0.2185 -0.0694
  889DDP     P1 5330   8.031   2.247  18.460 -0.1620 -0.1018  0.0039
  889DDP     P2 5331   8.146   1.528  17.920 -0.3322 -0.0252 -0.0561
  889DDP     C2 5332   8.375   1.260  17.712  0.1185  0.1901 -0.3546
  889DDP     C3 5333   7.937   2.577  18.154 -0.1885 -0.2599  0.1456
  889DDP     C4 5334   8.228   1.377  18.715 -0.1271 -0.1175  0.2354
  890DDP     C1 5335  14.710  26.257   8.534 -0.1906 -0.0734 -0.3296
  890DDP     P1 5336  14.875  26.572   8.633  0.1024 -0.1604  0.1926
  890DDP     P2 5337  14.810  25.813   8.374 -0.3639  0.0983 -0.0360
  890DDP     C2 5338  14.606  25.439   8.228 -0.1310  0.0244 -0.0713
  890DDP     C3 5339  15.110  26.888   8.805 -0.0101  0.0118 -0.1641
  890DDP     C4 5340  14.323  26.268   8.835 -0.0188  0.0573 -0.4336
  891DDP     C1 5341  18.210   0.992  14.463 -0.2526  0.0371 -0.0161
  891DDP     P1 5342  18.625   0.978  14.634 -0.0008  0.1150 -0.1168
  891DDP     P2 5343  17.970   0.595  14.411  0.1195 -0.0583 -0.1682
  891DDP     C2 5344  18.130   0.184  14.420 -0.3054 -0.1880 -0.0329
  891DDP     C3 5345  18.892   0.866  14.270  0.4338 -0.0606 -0.1083
  891DDP     C4 5346  18.245   1.415  14.275 -0.1525  0.1444  0.1820
  892DDP     C1 5347  28.476   0.517  26.121  0.0764 -0.1209 -0.2671
  892DDP     P1 5348  28.497   0.672  25.716 -0.2155  0.2103  0.1832
  892DDP     P2 5349  28.776   0.286  26.340  0.3848 -0.0381 -0.2518
  892DDP     C2 5350  28.898  30.294  26.148 -0.0381  0.2234 -0.0030
  892DDP     C3 5351  28.771   0.667  25.387  0.0115  0.1816 -0.1332
  892DDP     C4 5352  28.027   0.640  26.261  0.0172  0.1217  0.1803
  893DDP     C1 5353   7.209   9.223  13.783 -0.0641 -0.0269  0.2120
  893DDP     P1 5354   7.601   9.232  13.744  0.0893 -0.1343 -0.1561
  893DDP     P2 5355   6.944   9.550  13.718 -0.1538 -0.2074 -0.0672
  893DDP     C2 5356   6.863   9.832  13.416  0.1099  0.1630  0.0311
  893DDP     C3 5357   8.070   9.106  13.782  0.1904 -0.3659 -0.2650
  893DDP     C4 5358   7.114   8.999  14.204 -0.0564  0.0594  0.0675
  894DDP     C1 5359  10.488  18.670   2.054  0.0466  0.1882  0.2434
  894DDP     P1 5360  10.832  18.506   2.099  0.4904 -0.2111 -0.2318
  894DDP     P2 5361  10.520  18.926   1.735 -0.1767  0.1192  0.1563
  894DDP     C2 5362  10.319  19.148   1.486 -0.0706  0.0089  0.1683
  894DDP     C3 5363  11.017  18.187   1.778 -0.1763  0.2136  0.1941
  894DDP     C4 5364  10.056  18.852   2.278 -0.2015 -0.2002 -0.4280
  895DDP     C1 5365  12.372   2.495  22.238 -0.0895  0.1816 -0.4471
  895DDP     P1 5366  12.301   2.086  21.979  0.3668  0.1846  0.0139
  895DDP     P2 5367  12.483   2.183  22.574  0.1835  0.2759 -0.1495
  895DDP     C2 5368  12.721   1.954  22.870 -0.2797  0.0787  0.0912
  895DDP     C3 5369  11.964   1.720  21.900  0.0778 -0.3383 -0.0479
  895DDP     C4 5370  12.308   2.959  22.268 -0.2081  0.1166 -0.1121
  896DDP     C1 5371  28.424  21.174  12.199  0.0235 -0.2499 -0.0060
  896DDP     P1 5372  28.096  21.290  12.532 -0.1221  0.2545  0.1236
  896DDP     P2 5373  28.255  20.976  11.930  0.1406 -0.0474 -0.4054
  896DDP     C2 5374  28.002  20.851  11.568 -0.2734 -0.1629 -0.1617
  896DDP     C3 5375  27.991  21.379  12.883 -0.1889  0.6090 -0.0393
  896DDP     C4 5376  28.783  21.271  12.235  0.1401 -0.0585 -0.1836
  897DDP     C1 5377  23.274  20.181  18.007  0.1988  0.1629  0.1666
  897DDP     P1 5378  22.826  20.320  17.879  0.0804 -0.0654  0.0090
  897DDP     P2 5379  23.437  19.848  17.855  0.0248  0.0726  0.1376
  897DDP     C2 5380  23.301  19.515  18.083  0.1262 -0.1895 -0.1585
  897DDP     C3 5381  22.543  20.561  17.687 -0.2831  0.0519 -0.0322
  897DDP     C4 5382  23.460  20.608  18.198  0.1589 -0.0992  0.1866
  898DDP     C1 5383  12.107   9.599  18.259  0.1339 -0.1050  0.1079
  898DDP     P1 5384  12.492   9.574  18.403  0.0716  0.2108 -0.1224
  898DDP     P2 5385  11.902   9.902  18.009 -0.0880  0.1272  0.0258
  898DDP     C2 5386  12.028  10.410  17.860 -0.0614 -0.0470 -0.3096
  898DDP     C3 5387  12.844   9.796  18.412 -0.0194 -0.0119 -0.3125
  898DDP     C4 5388  11.842   9.337  18.578  0.2129  0.0181  0.1567
  899DDP     C1 5389   0.189   3.032  25.340  0.0715  0.1992  0.2658
  899DDP     P1 5390   0.680   2.992  25.306  0.1865  0.2292 -0.0545
  899DDP     P2 5391   0.106   2.765  24.983 -0.1458 -0.2446 -0.3922
  899DDP     C2 5392   0.040   2.692  24.631 -0.3228  0.1400 -0.1463
  899DDP     C3 5393   0.996   3.184  25.619  0.1057  0.0099  0.0073
  899DDP     C4 5394  30.189   3.167  25.686 -0.0424 -0.1291  0.1367
  900DDP     C1 5395  19.343  27.537  13.112 -0.3085 -0.0219  0.2442
  900DDP     P1 5396  19.189  27.409  13.465  0.1931  0.1473 -0.1871
  900DDP     P2 5397  19.136  27.845  12.875  0.3543  0.0581  0.1440
  900DDP     C2 5398  19.094  28.219  12.715 -0.0809 -0.1049 -0.1894
  900DDP     C3 5399  18.973  27.388  13.814 -0.2490 -0.0093  0.1749
  900DDP     C4 5400  19.471  27.216  12.891  0.1931 -0.0495  0.1208
  901DDP     C1 5401  11.514  11.774   2.821  0.0945  0.2908 -0.0814
  901DDP     P1 5402  11.549  11.998   2.433 -0.4612 -0.1338  0.0584
  901DDP     P2 5403  11.105  11.578   2.873 -0.0808 -0.1465  0.2477
  901DDP     C2 5404  10.645  11.692   2.690 -0.1941 -0.1283 -0.2397
  901DDP     C3 5405  11.572  12.298   2.055 -0.3251  0.0925  0.1126
  901DDP     C4 5406  11.788  11.656   3.169  0.0777 -0.2467  0.2832
  902DDP     C1 5407  27.396   1.044   4.477 -0.1354  0.1076  0.1669
  902DDP     P1 5408  27.176   0.666   4.386 -0.1849 -0.0043 -0.3014
  902DDP     P2 5409  27.741   0.944   4.627 -0.2707 -0.1094 -0.1153
  902DDP     C2 5410  28.132   0.977   4.876 -0.2318 -0.1074  0.0319
  902DDP     C3 5411  26.772   0.536   4.200  0.0260  0.2484  0.1391
  902DDP     C4 5412  27.161   1.375   4.289  0.0551 -0.1301 -0.3593
  903DDP     C1 5413  12.016  24.094  26.505  0.0817  0.6716 -0.0718
  903DDP     P1 5414  11.779  23.858  26.766  0.0418  0.1088 -0.6855
  903DDP     P2 5415  11.924  24.547  26.530  0.1423  0.2089 -0.1269
  903DDP     C2 5416  11.887  24.703  26.949  0.2865  0.1400  0.0112
  903DDP     C3 5417  11.838  23.593  27.129  0.0205 -0.0360  0.1904
  903DDP     C4 5418  12.431  24.043  26.213  0.1604  0.2442 -0.0116
  904DDP     C1 5419   3.019  26.482   9.030  0.0661  0.4257 -0.2683
  904DDP     P1 5420   3.311  26.827   9.105  0.0891 -0.0433 -0.0914
  904DDP     P2 5421   3.202  26.181   8.789 -0.1128  0.1553  0.2788
  904DDP     C2 5422   3.408  25.782   8.864  0.0487 -0.2872 -0.1329
  904DDP     C3 5423   3.605  26.927   9.405  0.0168 -0.0873  0.1752
  904DDP     C4 5424   2.597  26.455   9.178  0.0762 -0.1278  0.1237
  905DDP     C1 5425  30.252  26.067  25.491 -0.1509 -0.0564  0.1695
  905DDP     P1 5426  29.925  26.395  25.455 -0.1066 -0.0155 -0.0936
  905DDP     P2 5427   0.378  26.144  25.421 -0.3515  0.0025 -0.0496
  905DDP     C2 5428   0.649  26.581  25.354 -0.2254 -0.1903 -0.1935
  905DDP     C3 5429  29.886  26.775  25.167 -0.0386  0.2446 -0.0685
  905DDP     C4 5430  30.010  25.669  25.262  0.3775 -0.0315 -0.1302
  906DDP     C1 5431   7.183   0.347   0.359  0.2161  0.0647  0.1084
  906DDP     P1 5432   7.203   0.596   0.785  0.0507  0.3105  0.0903
  906DDP     P2 5433   6.856   0.038   0.169 -0.3799 -0.0314  0.0641
  906DDP     C2 5434   6.842  29.876   0.032 -0.0054  0.2352 -0.0422
  906DDP     C3 5435   7.313   0.478   1.149  0.1541 -0.1430 -0.1393
  906DDP     C4 5436   7.468   0.141   0.105 -0.0714  0.0527 -0.1499
  907DDP     C1 5437   5.510  14.390  16.920 -0.0137  0.1367 -0.2894
  907DDP     P1 5438   5.461  14.222  17.217  0.1615  0.0784  0.0306
  907DDP     P2 5439   5.486  14.048  16.677 -0.1021  0.0655  0.0567
  907DDP     C2 5440   5.096  13.965  16.496 -0.1037 -0.0707  0.0060
  907DDP     C3 5441   5.122  13.920  17.438 -0.2527 -0.0865  0.2424
  907DDP     C4 5442   5.761  14.761  16.928 -0.0951 -0.0673 -0.1930
  908DDP     C1 5443  24.386   5.865  18.083  0.4000  0.1086 -0.0367
  908DDP     P1 5444  24.785   5.751  17.796  0.0510 -0.0310  0.0064
  908DDP     P2 5445  24.008   5.630  18.074  0.0916 -0.3448 -0.2292
  908DDP     C2 5446  23.931   5.247  18.197  0.0556 -0.0013  0.2572
  908DDP     C3 5447  25.220   5.683  17.594 -0.4354  0.1139  0.2417
  908DDP     C4 5448  24.406   6.183  18.421 -0.3063  0.2321  0.0471
  909DDP     C1 5449  22.521  17.813  20.857 -0.2051 -0.0710  0.0964
  909DDP     P1 5450  22.247  18.020  21.228 -0.2210 -0.0059 -0.1408
  909DDP     P2 5451  22.682  18.137  20.648 -0.0603 -0.1885  0.0297
  909DDP     C2 5452  22.510  18.448  20.384  0.1870  0.1077  0.2324
  909DDP     C3 5453  21.969  18.274  21.540  0.4658  0.0416  0.2244
  909DDP     C4 5454  22.869  17.439  20.908 -0.1997 -0.2590 -0.2534
  910DDP     C1 5455  23.476  17.141   6.104 -0.0672  0.0377  0.1783
  910DDP     P1 5456  23.934  17.144   5.976  0.1344 -0.0323  0.0666
  910DDP     P2 5457  23.122  17.234   5.882  0.0773 -0.1433 -0.0791
  910DDP     C2 5458  22.777  17.446   5.647  0.4256 -0.1354 -0.1339
  910DDP     C3 5459  24.143  17.375   5.680 -0.0803 -0.0008 -0.2051
  910DDP     C4 5460  23.403  17.169   6.551  0.0634 -0.0489 -0.1328
  911DDP     C1 5461  16.750  10.225  15.519 -0.2406  0.0725 -0.0215
  911DDP     P1 5462  17.165  10.147  15.606  0.0381  0.2882 -0.1219
  911DDP     P2 5463  16.444  10.370  15.799  0.0189  0.1797  0.4099
  911DDP     C2 5464  16.118  10.154  15.872 -0.1673  0.2584 -0.0562
  911DDP     C3 5465  17.508   9.951  15.681 -0.2017  0.2592  0.1362
  911DDP     C4 5466  16.577  10.223  15.124  0.0724 -0.3023 -0.0930
  912DDP     C1 5467  24.429  29.979  23.385  0.1158 -0.0138  0.1060
  912DDP     P1 5468  24.501  30.044  22.986 -0.1756  0.0393 -0.0950
  912DDP     P2 5469  24.808  29.706  23.382  0.1038  0.0689  0.2147
  912DDP     C2 5470  25.065  29.250  23.252 -0.1862  0.0102 -0.0700
  912DDP     C3 5471  24.321  29.565  22.697 -0.3667  0.0288 -0.2098
  912DDP     C4 5472  24.200  30.048  23.827  0.0650  0.0627  0.0804
  913DDP     C1 5473  17.595  26.127   3.446 -0.1245  0.3285 -0.1460
  913DDP     P1 5474  17.466  26.542   3.443 -0.2866  0.1414  0.0238
  913DDP     P2 5475  18.010  26.056   3.412  0.0158  0.2825  0.1636
  913DDP     C2 5476  18.458  25.948   3.377 -0.0043  0.1375 -0.0541
  913DDP     C3 5477  17.505  26.940   3.684  0.1411 -0.2417  0.1695
  913DDP     C4 5478  17.417  25.862   3.254  0.2306 -0.2233 -0.1683
  914DDP     C1 5479  15.310   0.317  19.154  0.1258 -0.2080 -0.0947
  914DDP     P1 5480  15.178  30.305  18.984  0.0266  0.1034  0.1729
  914DDP     P2 5481  15.095   0.757  19.156  0.1908  0.0827 -0.0329
  914DDP     C2 5482  14.801   0.926  19.550 -0.1125 -0.2040 -0.1533
  914DDP     C3 5483  15.059  30.048  18.743 -0.0618 -0.1861 -0.0715
  914DDP     C4 5484  15.581   0.208  19.487  0.2743  0.2232  0.2714
  915DDP     C1 5485  20.666   4.499  29.753  0.0629 -0.0829 -0.0826
  915DDP     P1 5486  20.200   4.651  29.781 -0.1746 -0.0417 -0.0648
  915DDP     P2 5487  21.057   4.781  30.011 -0.1609  0.0232  0.1150
  915DDP     C2 5488  20.892   4.949   0.129  0.2994  0.0153 -0.0496
  915DDP     C3 5489  19.711   4.763  29.782 -0.2043  0.0559 -0.3018
  915DDP     C4 5490  20.642   4.159  29.587  0.2829  0.1458  0.4614
  916DDP     C1 5491  19.314  23.906  12.716  0.3332 -0.1627  0.2703
  916DDP     P1 5492  19.395  23.598  12.428 -0.1057  0.1613  0.0611
  916DDP     P2 5493  19.552  24.037  13.026  0.0172 -0.0689 -0.0228
  916DDP     C2 5494  19.790  23.708  13.250 -0.2660  0.0365  0.2206
  916DDP     C3 5495  19.729  23.402  12.254  0.0140 -0.2311  0.1048
  916DDP     C4 5496  18.848  24.117  12.676 -0.0663 -0.1583 -0.0309
  917DDP     C1 5497  10.468   2.388   1.731  0.0577 -0.0860 -0.2380
  917DDP     P1 5498  10.253   2.715   1.543 -0.0257 -0.2627  0.1025
  917DDP     P2 5499  10.545   2.108   1.506 -0.2947  0.1338  0.2811
  917DDP     C2 5500  10.309   1.858   1.201  0.2660  0.2791 -0.1291
  917DDP     C3 5501   9.840   2.825   1.462  0.1527  0.2981  0.0883
  917DDP     C4 5502  10.451   2.386   2.208 -0.0508 -0.2443 -0.0655
  918DDP     C1 5503  22.677  29.592   9.239  0.1188 -0.2224  0.1636
  918DDP     P1 5504  23.005  29.424   9.162 -0.1587 -0.3495 -0.2635
  918DDP     P2 5505  22.488  29.836   9.586  0.0939  0.0392  0.4847
  918DDP     C2 5506  22.397  29.797   9.965 -0.2176 -0.1252  0.0765
  918DDP     C3 5507  23.362  29.328   9.036  0.0527 -0.2407  0.0107
  918DDP     C4 5508  22.411  29.834   8.864 -0.1096  0.0823  0.2331
  919DDP     C1 5509   3.971  29.020  19.706  0.0964  0.1130 -0.1826
  919DDP     P1 5510   4.145  29.101  19.292  0.0825 -0.1891 -0.1884
  919DDP     P2 5511   3.698  28.646  19.632  0.0538 -0.0677  0.0927
  919DDP     C2 5512   3.535  28.171  19.811  0.3570 -0.1448 -0.0972
  919DDP     C3 5513   4.241  29.448  19.025  0.0100 -0.2909  0.4980
  919DDP     C4 5514   4.163  29.080  20.134  0.1592 -0.0307  0.1095
  920DDP     C1 5515  20.542  25.729  30.004  0.0681  0.1033 -0.1827
  920DDP     P1 5516  20.667  26.167  30.059  0.1078  0.0283 -0.1201
  920DDP     P2 5517  20.151  25.563  30.062 -0.0607 -0.0908 -0.1408
  920DDP     C2 5518  19.664  25.441  29.967 -0.0869  0.1196  0.3114
  920DDP     C3 5519  20.536  26.536  30.310  0.1221  0.2128 -0.1077
  920DDP     C4 5520  20.900  25.483  29.965 -0.1463 -0.2978 -0.0440
  921DDP     C1 5521  17.628  24.200  21.616  0.0342 -0.1111  0.1718
  921DDP     P1 5522  17.631  23.750  21.626  0.0435  0.1455 -0.1974
  921DDP     P2 5523  17.966  24.481  21.423 -0.1944 -0.2056 -0.1954
  921DDP     C2 5524  18.408  24.868  21.387  0.0183  0.2206  0.1959
  921DDP     C3 5525  17.991  23.487  21.562  0.1099  0.1862 -0.0130
  921DDP     C4 5526  17.269  24.480  21.660  0.0992  0.1448 -0.1329
  922DDP     C1 5527   2.358  21.969   5.663 -0.0948 -0.1251 -0.1122
  922DDP     P1 5528   2.690  22.392   5.648 -0.0777 -0.2482 -0.2770
  922DDP     P2 5529   2.319  21.753   5.217 -0.0969 -0.2684 -0.2199
  922DDP     C2 5530   2.114  21.397   5.069 -0.1620 -0.2325 -0.2582
  922DDP     C3 5531   2.950  22.778   5.590 -0.3192  0.0579 -0.1430
  922DDP     C4 5532   2.210  21.819   6.070  0.1607 -0.0729  0.1378
  923DDP     C1 5533  10.139   3.712   8.034  0.0008  0.1466 -0.4181
  923DDP     P1 5534  10.149   3.322   8.320 -0.0479  0.0830  0.2604
  923DDP     P2 5535   9.897   3.643   7.632 -0.0603  0.1491  0.1631
  923DDP     C2 5536   9.544   3.748   7.343  0.0683 -0.0633 -0.2691
  923DDP     C3 5537   9.761   3.135   8.359  0.1668 -0.1879 -0.0851
  923DDP     C4 5538   9.977   4.099   8.081  0.0262 -0.2921  0.3687
  924DDP     C1 5539  26.506  18.315   8.779  0.1766  0.0111  0.0510
  924DDP     P1 5540  26.102  18.577   8.711 -0.0664 -0.3950  0.0012
  924DDP     P2 5541  26.445  17.925   8.736 -0.3706  0.3215 -0.0833
  924DDP     C2 5542  26.169  17.568   8.632  0.1062 -0.2173 -0.0048
  924DDP     C3 5543  25.938  18.944   8.504  0.2642 -0.1770  0.0610
  924DDP     C4 5544  26.907  18.454   8.910  0.1440  0.0230  0.1073
  925DDP     C1 5545  18.299  28.704  10.467  0.2409 -0.1495  0.0553
  925DDP     P1 5546  18.346  28.578  10.064 -0.2053  0.0620 -0.0431
  925DDP     P2 5547  18.610  28.976  10.675  0.1091  0.1280  0.3208
  925DDP     C2 5548  18.946  29.140  10.838  0.0554  0.0795  0.2105
  925DDP     C3 5549  18.331  28.951   9.734 -0.0267 -0.0821  0.0304
  925DDP     C4 5550  17.931  28.657  10.638 -0.2155 -0.0866  0.0604
  926DDP     C1 5551  16.330   5.656   4.271  0.2941  0.2122 -0.0564
  926DDP     P1 5552  16.135   5.400   4.469  0.1836 -0.0785 -0.1050
  926DDP     P2 5553  16.690   5.536   4.379  0.0867  0.4525  0.2846
  926DDP     C2 5554  16.997   5.438   4.768  0.0826  0.0971 -0.1448
  926DDP     C3 5555  15.927   5.309   4.814  0.0191 -0.2498  0.3090
  926DDP     C4 5556  16.159   5.722   3.894 -0.0998 -0.1146  0.0589
  927DDP     C1 5557  10.579  24.576  17.490 -0.2076  0.2384 -0.1210
  927DDP     P1 5558  10.602  24.555  17.881  0.2431  0.0171 -0.1177
  927DDP     P2 5559  10.917  24.516  17.237 -0.0437 -0.4153  0.0802
  927DDP     C2 5560  11.176  24.752  16.844 -0.2327  0.0593 -0.1202
  927DDP     C3 5561  10.370  24.258  18.126  0.0687  0.0855 -0.0097
  927DDP     C4 5562  10.235  24.873  17.397  0.2474  0.0788  0.2272
  928DDP     C1 5563  19.644  11.433   9.852 -0.1428 -0.1248  0.1780
  928DDP     P1 5564  19.956  11.515   9.559 -0.4419  0.1130 -0.1059
  928DDP     P2 5565  19.290  11.758  10.125  0.3903  0.0981  0.1243
  928DDP     C2 5566  19.169  12.148  10.405  0.1697  0.0479  0.2581
  928DDP     C3 5567  20.000  11.475   9.153 -0.0197  0.0262 -0.1493
  928DDP     C4 5568  19.642  10.915   9.980  0.2623 -0.1533 -0.1566
  929DDP     C1 5569   1.356  21.346   6.088 -0.1965  0.0255  0.0623
  929DDP     P1 5570   1.095  21.146   5.863  0.0692  0.2940 -0.0159
  929DDP     P2 5571   1.301  21.740   5.968 -0.0299 -0.3718 -0.1966
  929DDP     C2 5572   1.383  22.132   5.812  0.2479 -0.0348  0.0388
  929DDP     C3 5573   0.811  21.121   5.753  0.0227  0.0459  0.1323
  929DDP     C4 5574   1.705  21.114   6.357  0.0200  0.0513  0.1398
  930DDP     C1 5575  28.596   4.351  12.175  0.0258 -0.1041 -0.0345
  930DDP     P1 5576  28.246   4.204  11.995  0.1014  0.0547  0.2450
  930DDP     P2 5577  28.612   4.791  12.196  0.1125 -0.0583 -0.0243
  930DDP     C2 5578  28.442   5.232  12.340  0.3954  0.2507 -0.1711
  930DDP     C3 5579  28.105   3.786  12.079  0.0972  0.0501 -0.5401
  930DDP     C4 5580  28.887   4.114  12.490 -0.2271  0.0501 -0.2278
  931DDP     C1 5581   3.932  18.960  22.893  0.0292 -0.1072 -0.0680
  931DDP     P1 5582   3.749  18.568  22.895 -0.0848  0.1588 -0.0394
  931DDP     P2 5583   3.969  19.195  22.602  0.2134 -0.2657  0.1609
  931DDP     C2 5584   3.919  19.251  22.168  0.3744  0.1661 -0.1522
  931DDP     C3 5585   3.610  18.067  23.086  0.3443  0.1452 -0.2192
  931DDP     C4 5586   3.905  19.251  23.290  0.1822  0.1697  0.3512
  932DDP     C1 5587  12.230  22.101  23.707  0.0538 -0.1105 -0.0465
  932DDP     P1 5588  11.888  21.905  23.585 -0.4517 -0.0550  0.2785
  932DDP     P2 5589  12.497  21.954  23.349  0.2276  0.1085 -0.2013
  932DDP     C2 5590  12.768  21.901  22.964 -0.0801  0.0111 -0.2331
  932DDP     C3 5591  11.537  21.584  23.517 -0.0220  0.1970  0.0459
  932DDP     C4 5592  12.436  22.384  24.060  0.1999  0.0391 -0.1709
  933DDP     C1 5593  14.094  26.778   5.627 -0.1079 -0.1098 -0.1381
  933DDP     P1 5594  13.823  26.906   6.039  0.0312  0.3405 -0.0594
  933DDP     P2 5595  13.948  26.958   5.237 -0.0230  0.1140 -0.2191
  933DDP     C2 5596  13.603  27.276   5.213 -0.1935  0.0992  0.0553
  933DDP     C3 5597  13.724  27.294   6.266  0.1557 -0.1626  0.1137
  933DDP     C4 5598  14.400  26.461   5.661 -0.2327  0.2270 -0.1252
  934DDP     C1 5599  26.623  17.374  12.373  0.0813  0.1276  0.0614
  934DDP     P1 5600  26.687  17.532  12.020 -0.0675 -0.0692  0.2132
  934DDP     P2 5601  26.886  17.448  12.809 -0.0536 -0.0343  0.2531
  934DDP     C2 5602  27.077  17.645  13.159 -0.0360  0.0867  0.1567
  934DDP     C3 5603  26.914  17.885  11.719  0.2508 -0.4065 -0.1189
  934DDP     C4 5604  26.308  17.081  12.401 -0.3227  0.0477 -0.3799
  935DDP     C1 5605  22.000   2.579  16.977  0.1004  0.3209  0.3442
  935DDP     P1 5606  21.958   2.071  16.846 -0.2079  0.2166  0.1334
  935DDP     P2 5607  21.741   2.941  16.666  0.1988  0.1203 -0.1310
  935DDP     C2 5608  21.410   3.106  16.426 -0.1303 -0.2644 -0.1610
  935DDP     C3 5609  22.060   1.976  16.345 -0.2162  0.0205  0.1601
  935DDP     C4 5610  22.390   2.650  17.138  0.2039  0.0015  0.0754
  936DDP     C1 5611  11.025  22.256   0.812  0.1772  0.0717 -0.3107
  936DDP     P1 5612  11.102  22.301   0.412 -0.1007  0.1228 -0.1054
  936DDP     P2 5613  11.327  22.374   0.979  0.1760 -0.0089 -0.1063
  936DDP     C2 5614  11.356  22.764   1.296 -0.1182 -0.1341 -0.0265
  936DDP     C3 5615  11.210  22.674   0.239 -0.0510  0.1451  0.3231
  936DDP     C4 5616  10.974  22.102   1.297  0.2585 -0.0165 -0.0086
  937DDP     C1 5617  14.219  29.010  23.157  0.1602 -0.3708  0.1173
  937DDP     P1 5618  14.031  28.525  23.122 -0.2196  0.3224 -0.0787
  937DDP     P2 5619  14.595  29.245  23.046  0.0791 -0.1316 -0.2175
  937DDP     C2 5620  14.546  29.440  23.381  0.1865 -0.0963  0.1016
  937DDP     C3 5621  14.109  28.224  23.503  0.1244  0.4171 -0.0368
  937DDP     C4 5622  14.089  29.231  23.585  0.3107 -0.1394  0.3298
  938DDP     C1 5623  12.090  28.142  17.575  0.0517 -0.2517 -0.3660
  938DDP     P1 5624  11.743  28.281  17.782 -0.0087 -0.0892 -0.2948
  938DDP     P2 5625  12.175  28.465  17.401  0.0904  0.1286 -0.0894
  938DDP     C2 5626  12.157  28.406  17.001 -0.0561 -0.2875  0.0117
  938DDP     C3 5627  11.454  28.379  18.000  0.1120 -0.1859  0.0490
  938DDP     C4 5628  12.137  27.721  17.560  0.1681 -0.1816 -0.2438
  939DDP     C1 5629   4.592   2.606  20.252 -0.2083 -0.0765  0.3436
  939DDP     P1 5630   4.455   2.305  20.502  0.1210  0.0439  0.1445
  939DDP     P2 5631   4.492   2.637  19.840 -0.0557 -0.2051  0.0444
  939DDP     C2 5632   4.175   2.778  19.610  0.0969  0.0420  0.0424
  939DDP     C3 5633   4.709   1.955  20.733  0.1297 -0.1088 -0.0755
  939DDP     C4 5634   4.852   2.853  20.509  0.2046  0.0589  0.2076
  940DDP     C1 5635  13.982   8.235  26.518 -0.2175  0.2414  0.1285
  940DDP     P1 5636  14.345   7.976  26.694 -0.0042  0.0673 -0.2157
  940DDP     P2 5637  14.096   8.654  26.590 -0.1767  0.4917 -0.1811
  940DDP     C2 5638  14.390   8.883  26.372  0.1439 -0.2558  0.3004
  940DDP     C3 5639  14.786   7.806  26.638 -0.3182 -0.0651  0.0752
  940DDP     C4 5640  13.642   8.179  26.371  0.1795 -0.0871 -0.0155
  941DDP     C1 5641  18.080  28.136  15.294  0.0922  0.1995  0.1708
  941DDP     P1 5642  18.452  28.086  15.291  0.0819  0.0419 -0.2196
  941DDP     P2 5643  18.010  27.605  15.297 -0.1296 -0.0595  0.0355
  941DDP     C2 5644  17.774  27.228  15.451  0.3272 -0.0945 -0.3245
  941DDP     C3 5645  18.831  28.102  15.397  0.3453  0.0152  0.2730
  941DDP     C4 5646  17.926  28.435  15.136  0.2546  0.0319 -0.3486
  942DDP     C1 5647   3.441   9.673  14.790  0.2483  0.1615 -0.3629
  942DDP     P1 5648   3.658   9.433  14.442 -0.2428  0.1913  0.3684
  942DDP     P2 5649   3.276  10.097  14.751  0.2154  0.0920 -0.0483
  942DDP     C2 5650   2.778  10.205  14.606 -0.0514  0.0427  0.0903
  942DDP     C3 5651   3.713   9.036  14.228  0.5836  0.2541 -0.1311
  942DDP     C4 5652   3.404   9.327  15.132 -0.2705  0.3965 -0.2426
  943DDP     C1 5653   6.202  21.733  28.659 -0.2072  0.3185  0.1790
  943DDP     P1 5654   6.085  21.485  28.451 -0.0714 -0.1334 -0.0170
  943DDP     P2 5655   6.294  22.150  28.506  0.2048  0.3855 -0.3882
  943DDP     C2 5656   6.093  22.450  28.565 -0.1867 -0.2158 -0.0230
  943DDP     C3 5657   6.204  21.356  28.096 -0.3364 -0.2996  0.1218
  943DDP     C4 5658   6.076  21.703  29.119 -0.2578  0.0887 -0.1988
  944DDP     C1 5659   1.522   8.697   4.569  0.1027 -0.3261  0.0820
  944DDP     P1 5660   1.786   8.581   4.904 -0.2361  0.1725  0.1871
  944DDP     P2 5661   1.046   8.600   4.666 -0.0737  0.0140 -0.1260
  944DDP     C2 5662   0.834   8.561   5.056  0.0510 -0.0187  0.2690
  944DDP     C3 5663   2.246   8.470   5.041 -0.0275  0.2994 -0.1306
  944DDP     C4 5664   1.676   8.895   4.237 -0.0330 -0.0003  0.5046
  945DDP     C1 5665  21.717   3.706  26.714  0.2799 -0.2309  0.3163
  945DDP     P1 5666  21.881   4.011  26.353  0.1090  0.3388  0.0818
  945DDP     P2 5667  21.764   3.327  26.763  0.2031  0.2320  0.3412
  945DDP     C2 5668  21.681   3.024  26.956 -0.0173  0.2204  0.0947
  945DDP     C3 5669  21.923   4.244  26.039  0.1505  0.1973  0.1170
  945DDP     C4 5670  21.284   3.515  26.574  0.1508 -0.1576  0.0714
  946DDP     C1 5671   0.372  22.290  20.744  0.1840 -0.1384  0.1159
  946DDP     P1 5672   0.214  21.802  20.845 -0.0785 -0.0577 -0.0875
  946DDP     P2 5673   0.863  22.301  20.758 -0.1080  0.1935  0.2166
  946DDP     C2 5674   1.284  22.084  20.931  0.3500  0.1467  0.0014
  946DDP     C3 5675   0.173  21.315  20.921 -0.1170  0.0080 -0.2196
  946DDP     C4 5676   0.056  22.574  20.659 -0.2101 -0.0695 -0.1501
  947DDP     C1 5677   5.863   7.812  20.523  0.3911 -0.0778 -0.0515
  947DDP     P1 5678   6.260   7.795  20.819  0.1831 -0.0961 -0.1981
  947DDP     P2 5679   5.493   7.889  20.706  0.3808 -0.2255  0.1312
  947DDP     C2 5680   5.139   7.862  20.909  0.1906  0.1853  0.0235
  947DDP     C3 5681   6.580   8.004  21.139 -0.0232  0.1327 -0.0816
  947DDP     C4 5682   6.228   7.954  20.183 -0.0463  0.2761 -0.1435
  948DDP     C1 5683   0.056  10.937  16.929  0.1098 -0.2823  0.1400
  948DDP     P1 5684  30.209  11.331  16.634 -0.0894  0.1270 -0.0021
  948DDP     P2 5685   0.273  10.924  17.277 -0.0087 -0.1970  0.2624
  948DDP     C2 5686   0.242  10.912  17.794  0.2534 -0.1893  0.2876
  948DDP     C3 5687  30.121  11.727  16.829 -0.0834 -0.0137  0.2505
  948DDP     C4 5688   0.054  10.540  16.714  0.3363  0.1718  0.0502
  949DDP     C1 5689  26.955   3.748  29.729  0.2112 -0.0484  0.1843
  949DDP     P1 5690  27.078   4.045  29.430 -0.1619  0.1725 -0.2091
  949DDP     P2 5691  26.678   3.461  29.612  0.1233 -0.0527 -0.3646
  949DDP     C2 5692  26.630   3.048  29.493 -0.2397 -0.1063  0.3285
  949DDP     C3 5693  27.188   4.365  29.219 -0.0718  0.0005  0.0373
  949DDP     C4 5694  26.996   3.859  30.079 -0.4691 -0.0499 -0.1810
  950DDP     C1 5695  12.702  14.037   6.685 -0.2923 -0.0144 -0.0186
  950DDP     P1 5696  12.768  14.523   6.781 -0.0617 -0.1083 -0.0546
  950DDP     P2 5697  12.797  13.843   6.892  0.1990  0.1654 -0.1709
  950DDP     C2 5698  12.861  13.427   6.888 -0.0311 -0.2639  0.2107
  950DDP     C3 5699  12.970  14.954   6.701 -0.0022 -0.1741 -0.0902
  950DDP     C4 5700  12.527  13.983   6.366  0.1192 -0.3163  0.1074
  951DDP     C1 5701  13.774   3.383  17.326 -0.3548 -0.2081 -0.1978
  951DDP     P1 5702  14.146   3.229  17.503 -0.2043  0.1658  0.2346
  951DDP     P2 5703  13.727   3.804  17.009 -0.2081  0.2348 -0.1837
  951DDP     C2 5704  13.817   4.275  16.976 -0.0980  0.0207  0.0847
  951DDP     C3 5705  14.410   3.175  17.944  0.1881 -0.0331  0.0765
  951DDP     C4 5706  13.336   3.408  17.418 -0.1254 -0.1126  0.0686
  952DDP     C1 5707  28.427   5.882  14.207  0.0596  0.1800  0.3614
  952DDP     P1 5708  28.197   6.094  13.861 -0.0932  0.1442  0.0240
  952DDP     P2 5709  28.730   5.864  14.530  0.0798  0.1967 -0.0016
  952DDP     C2 5710  28.965   6.144  14.746 -0.2392  0.1056 -0.0613
  952DDP     C3 5711  27.884   5.853  13.751 -0.0650  0.3514  0.0543
  952DDP     C4 5712  28.291   5.532  13.978 -0.1562 -0.0025 -0.0480
  953DDP     C1 5713  22.095   5.435   5.098  0.2487 -0.1885 -0.0773
  953DDP     P1 5714  22.032   5.096   5.279 -0.1551 -0.0091 -0.1833
  953DDP     P2 5715  21.958   5.835   5.125  0.1465 -0.1541  0.1975
  953DDP     C2 5716  21.656   6.178   4.918  0.3597 -0.0361  0.0894
  953DDP     C3 5717  22.267   4.808   5.515 -0.0697  0.3369 -0.0739
  953DDP     C4 5718  21.842   5.378   4.758 -0.1488 -0.2428 -0.0752
  954DDP     C1 5719   7.649  20.316   8.560  0.2143  0.2097  0.3596
  954DDP     P1 5720   7.898  20.214   8.829 -0.1369  0.0481  0.0417
  954DDP     P2 5721   7.865  20.402   8.216 -0.1483  0.0109  0.0595
  954DDP     C2 5722   7.976  20.835   8.046 -0.0357 -0.0080 -0.1639
  954DDP     C3 5723   7.784  19.993   9.144 -0.0488 -0.2239  0.0803
  954DDP     C4 5724   7.248  20.584   8.629  0.2125 -0.0494  0.0544
  955DDP     C1 5725  27.140  27.622  15.998  0.0030 -0.3125  0.1217
  955DDP     P1 5726  27.401  27.405  16.376 -0.1954  0.2277 -0.0633
  955DDP     P2 5727  26.700  27.733  16.110 -0.0218  0.1475 -0.0435
  955DDP     C2 5728  26.280  27.643  16.142  0.0429  0.2117  0.1082
  955DDP     C3 5729  27.781  27.255  16.295  0.0355  0.4350 -0.1764
  955DDP     C4 5730  27.351  27.770  15.687  0.2038 -0.0788 -0.3192
  956DDP     C1 5731  26.262   5.586   5.606 -0.0567  0.1927  0.1407
  956DDP     P1 5732  26.369   6.032   5.526 -0.2775 -0.1617 -0.0501
  956DDP     P2 5733  26.351   5.360   5.948 -0.0411 -0.1137 -0.2015
  956DDP     C2 5734  26.459   4.957   6.177  0.0914  0.0332  0.3510
  956DDP     C3 5735  26.163   6.383   5.201 -0.1659 -0.2641 -0.0969
  956DDP     C4 5736  26.139   5.447   5.264  0.1470  0.1314 -0.0452
  957DDP     C1 5737  28.144   6.916  17.105 -0.0555  0.2113  0.0737
  957DDP     P1 5738  28.062   6.612  17.488 -0.0274 -0.0787  0.0860
  957DDP     P2 5739  28.603   7.103  17.025 -0.3841  0.0410 -0.0590
  957DDP     C2 5740  28.804   7.065  16.612 -0.0682 -0.0759  0.1433
  957DDP     C3 5741  28.066   6.321  17.946  0.2032  0.1193 -0.0610
  957DDP     C4 5742  27.856   6.773  16.817  0.1475  0.1888 -0.0323
  958DDP     C1 5743  12.769  27.502  24.070 -0.2811  0.1957  0.0279
  958DDP     P1 5744  12.962  27.185  24.271  0.1862  0.2031  0.1661
  958DDP     P2 5745  13.211  27.746  24.178  0.1118 -0.0759 -0.2447
  958DDP     C2 5746  13.581  28.019  24.305  0.0057 -0.1634 -0.0754
  958DDP     C3 5747  13.057  26.928  24.573 -0.0818  0.0569 -0.1345
  958DDP     C4 5748  12.623  27.497  23.609 -0.2343 -0.1745  0.0078
  959DDP     C1 5749   1.744  26.324  27.644  0.3248  0.0841  0.1069
  959DDP     P1 5750   1.770  26.576  27.987  0.2037 -0.2054  0.0835
  959DDP     P2 5751   2.028  26.402  27.329 -0.0154  0.1289  0.1347
  959DDP     C2 5752   2.319  26.801  27.270 -0.0463  0.0218  0.0186
  959DDP     C3 5753   1.985  26.915  28.160  0.0389  0.0064 -0.0953
  959DDP     C4 5754   1.391  26.314  27.694 -0.1355  0.0393  0.1817
  960DDP     C1 5755   7.869  12.478  16.817  0.2794 -0.1904 -0.3369
  960DDP     P1 5756   8.137  12.386  16.370  0.2436 -0.1076  0.4749
  960DDP     P2 5757   7.498  12.259  16.870 -0.0999 -0.2124 -0.2149
  960DDP     C2 5758   7.091  12.330  16.940  0.0519  0.3215 -0.0494
  960DDP     C3 5759   8.043  12.664  15.978 -0.0808  0.0096 -0.0153
  960DDP     C4 5760   8.022  12.768  17.236  0.1348 -0.2999  0.0585
  961DDP     C1 5761  22.613  10.718  12.228  0.0028  0.4332 -0.0124
  961DDP     P1 5762  22.620  10.848  12.683 -0.0236 -0.1293  0.0411
  961DDP     P2 5763  22.913  10.923  11.877  0.2887  0.1191 -0.0361
  961DDP     C2 5764  22.844  10.953  11.454 -0.0939  0.2002  0.0093
  961DDP     C3 5765  22.407  10.793  13.026 -0.2284 -0.3140  0.1394
  961DDP     C4 5766  22.531  10.294  12.027  0.2843  0.1240 -0.1857
  962DDP     C1 5767   2.003   7.285  19.822  0.1072  0.0549  0.3951
  962DDP     P1 5768   1.762   7.287  19.629 -0.1747  0.0577  0.1503
  962DDP     P2 5769   2.375   7.024  19.793  0.2575  0.1965  0.2843
  962DDP     C2 5770   2.761   6.991  19.918  0.2506  0.0359 -0.0676
  962DDP     C3 5771   1.633   7.439  19.242  0.1416  0.1378 -0.3472
  962DDP     C4 5772   2.066   7.570  20.087  0.2124 -0.0155 -0.2821
  963DDP     C1 5773   2.142   3.497  18.426  0.1302 -0.0179  0.2424
  963DDP     P1 5774   2.312   3.740  18.165  0.1997  0.0421 -0.1412
  963DDP     P2 5775   1.729   3.626  18.313  0.2460 -0.0388  0.2155
  963DDP     C2 5776   1.500   3.813  18.009  0.2423 -0.0363  0.0409
  963DDP     C3 5777   2.420   4.153  18.200 -0.1677  0.0806 -0.1352
  963DDP     C4 5778   2.287   3.172  18.644  0.2141 -0.0094  0.1331
  964DDP     C1 5779  28.232   0.124   5.869 -0.4601  0.0695 -0.0346
  964DDP     P1 5780  28.510   0.116   6.287  0.1990 -0.1529 -0.2754
  964DDP     P2 5781  28.237  30.054   5.516  0.1176  0.2758 -0.0662
  964DDP     C2 5782  28.533  29.803   5.381  0.1081  0.0859  0.1934
  964DDP     C3 5783  28.680   0.180   6.676  0.0138  0.2445  0.1716
  964DDP     C4 5784  28.050   0.580   5.857  0.1509 -0.0317 -0.2353
  965DDP     C1 5785   2.651  23.748  12.423 -0.1846  0.0560  0.2385
  965DDP     P1 5786   2.502  24.009  12.073  0.1941 -0.0276 -0.3475
  965DDP     P2 5787   3.159  23.805  12.629 -0.0758  0.0025 -0.3855
  965DDP     C2 5788   3.437  23.519  12.747 -0.1807 -0.0327  0.1293
  965DDP     C3 5789   2.601  24.051  11.677 -0.1693 -0.0899  0.1737
  965DDP     C4 5790   2.337  23.472  12.568  0.1022  0.1945 -0.1052
  966DDP     C1 5791  30.201   3.083   6.732  0.0229  0.3204  0.0712
  966DDP     P1 5792  29.925   3.352   6.402 -0.0756  0.2388  0.3361
  966DDP     P2 5793   0.131   2.790   6.479 -0.0475 -0.3124 -0.1573
  966DDP     C2 5794   0.634   2.742   6.528  0.0701  0.2698 -0.0981
  966DDP     C3 5795  29.795   3.281   5.937  0.1547 -0.3782 -0.0744
  966DDP     C4 5796  30.272   3.093   7.198  0.0207 -0.0792 -0.3000
  967DDP     C1 5797  13.891  28.768  18.339 -0.1536 -0.0007  0.3280
  967DDP     P1 5798  13.524  28.922  18.667  0.0108 -0.0462 -0.1131
  967DDP     P2 5799  14.052  28.439  18.367  0.0964  0.0928 -0.0677
  967DDP     C2 5800  14.353  28.105  18.146 -0.0396 -0.1407  0.1538
  967DDP     C3 5801  13.161  29.144  18.699 -0.0582 -0.1192 -0.1881
  967DDP     C4 5802  14.069  28.978  18.073  0.1819 -0.0098 -0.2393
  968DDP     C1 5803   8.480  28.229  19.768 -0.2446  0.1375 -0.3172
  968DDP     P1 5804   8.387  28.636  19.589  0.2551 -0.2891  0.6270
  968DDP     P2 5805   8.912  28.059  19.722 -0.2132  0.1592 -0.0650
  968DDP     C2 5806   9.388  28.145  19.584  0.3856  0.2126 -0.0768
  968DDP     C3 5807   8.208  28.780  19.257 -0.0258  0.1961  0.0709
  968DDP     C4 5808   8.139  28.054  19.902  0.0379 -0.0152  0.5741
  969DDP     C1 5809  22.178  20.695  15.146 -0.1433  0.1062 -0.1106
  969DDP     P1 5810  22.096  20.891  14.741 -0.3520  0.1408  0.0247
  969DDP     P2 5811  21.682  20.563  15.208 -0.3044 -0.0656 -0.1561
  969DDP     C2 5812  21.335  20.515  14.966  0.0882 -0.3041  0.2262
  969DDP     C3 5813  22.134  21.189  14.297 -0.2201  0.0926 -0.1156
  969DDP     C4 5814  22.415  20.560  15.473 -0.3896 -0.0008 -0.1749
  970DDP     C1 5815  20.818   5.946   1.115 -0.0671 -0.4301  0.1524
  970DDP     P1 5816  20.777   6.372   1.155  0.0877  0.0054  0.0542
  970DDP     P2 5817  20.370   5.834   1.014 -0.0807  0.0902  0.2133
  970DDP     C2 5818  20.094   5.671   0.717 -0.1008 -0.0816  0.1191
  970DDP     C3 5819  20.869   6.775   1.026 -0.1788  0.1649  0.2877
  970DDP     C4 5820  21.078   5.744   0.855 -0.0866  0.2718 -0.0067
  971DDP     C1 5821  23.321   8.504  21.107 -0.0273  0.2792 -0.1081
  971DDP     P1 5822  23.085   8.326  20.829 -0.0143 -0.2503  0.3275
  971DDP     P2 5823  23.448   8.263  21.446 -0.2559 -0.1351 -0.1779
  971DDP     C2 5824  23.589   7.855  21.685  0.0255 -0.1283  0.2738
  971DDP     C3 5825  23.014   8.470  20.460 -0.1604 -0.0613  0.2832
  971DDP     C4 5826  23.453   8.926  21.093  0.0841 -0.0906 -0.1516
  972DDP     C1 5827   8.531  15.477   8.727  0.1976 -0.0062  0.1447
  972DDP     P1 5828   8.906  15.244   8.492 -0.0318 -0.0401  0.1479
  972DDP     P2 5829   8.071  15.253   8.671 -0.1957 -0.1318 -0.3781
  972DDP     C2 5830   7.857  15.148   8.998 -0.1525  0.1323  0.1090
  972DDP     C3 5831   9.369  15.196   8.513  0.2803 -0.4041 -0.0245
  972DDP     C4 5832   8.604  15.828   8.971 -0.1561  0.2940  0.1892
  973DDP     C1 5833   0.586   7.363  11.216 -0.2767 -0.2566 -0.1964
  973DDP     P1 5834   0.880   6.990  11.100 -0.1629 -0.3718  0.0036
  973DDP     P2 5835   0.586   7.626  11.645 -0.0996 -0.1601  0.3597
  973DDP     C2 5836   0.738   7.737  11.987  0.0131 -0.2289 -0.1815
  973DDP     C3 5837   0.801   6.544  11.110  0.1794 -0.4054 -0.0875
  973DDP     C4 5838   0.336   7.525  10.838 -0.1155 -0.0495  0.0429
  974DDP     C1 5839   0.013  11.303  14.166  0.0663  0.0114 -0.0193
  974DDP     P1 5840  29.988  11.353  13.901 -0.1884 -0.1305 -0.0482
  974DDP     P2 5841   0.478  11.392  13.912 -0.2798  0.2737  0.3433
  974DDP     C2 5842   0.464  11.507  13.419  0.1787  0.0861 -0.1336
  974DDP     C3 5843  29.619  11.402  14.040 -0.0040  0.1693 -0.1743
  974DDP     C4 5844  -0.010  11.248  14.657 -0.0329  0.0026 -0.2576
  975DDP     C1 5845  10.327   1.353  21.700 -0.1310  0.1546  0.2133
  975DDP     P1 5846  10.197   1.138  22.087 -0.2443  0.3661  0.3380
  975DDP     P2 5847  10.282   1.811  21.591 -0.2196  0.2710  0.3515
  975DDP     C2 5848  10.537   2.282  21.591 -0.0796  0.2140 -0.1925
  975DDP     C3 5849  10.036   1.262  22.372  0.0139 -0.1796 -0.0090
  975DDP     C4 5850  10.630   1.097  21.519  0.1385 -0.0836 -0.0400
  976DDP     C1 5851   5.834  23.845  17.167  0.3781  0.2654  0.0923
  976DDP     P1 5852   5.701  23.891  16.740 -0.1853  0.1327  0.0578
  976DDP     P2 5853   5.569  24.050  17.482  0.0259  0.2814 -0.0152
  976DDP     C2 5854   5.428  24.523  17.680 -0.1409  0.4740 -0.0546
  976DDP     C3 5855   5.677  24.246  16.418  0.0103 -0.1891  0.1559
  976DDP     C4 5856   6.245  23.653  17.273  0.2028 -0.0027 -0.1282
  977DDP     C1 5857  29.776  18.769   2.248  0.0583 -0.0402  0.2004
  977DDP     P1 5858  30.123  18.356   2.078  0.0140  0.2335 -0.1722
  977DDP     P2 5859  30.062  19.142   2.312  0.1370  0.2526 -0.1964
  977DDP     C2 5860   0.171  19.343   2.185  0.0233 -0.0071  0.2215
  977DDP     C3 5861  29.893  18.004   2.163 -0.0129  0.1054  0.0011
  977DDP     C4 5862  29.367  18.738   2.248  0.1152  0.3515 -0.1294
  978DDP     C1 5863  11.225   9.975   8.103  0.0920 -0.1788  0.1112
  978DDP     P1 5864  11.310   9.852   7.685 -0.1563 -0.1277 -0.1262
  978DDP     P2 5865  11.145   9.495   8.241  0.2699 -0.1806  0.1603
  978DDP     C2 5866  11.230   9.087   8.107 -0.0073 -0.0385 -0.0228
  978DDP     C3 5867  11.190   9.383   7.711 -0.0580 -0.0246  0.0809
  978DDP     C4 5868  11.062  10.260   8.316 -0.0461  0.1522 -0.1431
  979DDP     C1 5869   0.839  21.151  10.626 -0.0438 -0.1337  0.2099
  979DDP     P1 5870   0.827  20.736  10.462  0.0244  0.1002  0.0254
  979DDP     P2 5871   1.068  21.596  10.622  0.0769  0.1745  0.0562
  979DDP     C2 5872   1.369  21.800  10.370 -0.2718  0.1524 -0.1883
  979DDP     C3 5873   0.623  20.340  10.624  0.1953  0.2335  0.0472
  979DDP     C4 5874   0.415  21.257  10.623  0.0389 -0.3047  0.4129
  980DDP     C1 5875  22.243  16.682  24.521 -0.0688 -0.0733 -0.0655
  980DDP     P1 5876  22.557  16.433  24.536  0.0514  0.0550  0.2515
  980DDP     P2 5877  22.125  16.983  24.794  0.0795  0.0614  0.3023
  980DDP     C2 5878  22.090  17.294  25.127  0.0851 -0.0709 -0.1039
  980DDP     C3 5879  22.922  16.436  24.745  0.0476  0.0300 -0.1459
  980DDP     C4 5880  22.036  16.663  24.103  0.0360 -0.0912  0.0910
  981DDP     C1 5881   3.565   9.638  30.017 -0.2435 -0.0798  0.0546
  981DDP     P1 5882   3.523   9.991  29.675  0.0094 -0.2111  0.1910
  981DDP     P2 5883   3.579   9.119  30.169  0.0703  0.2184 -0.1722
  981DDP     C2 5884   3.680   8.738  30.202  0.0473 -0.3363 -0.1315
  981DDP     C3 5885   3.297  10.373  29.669 -0.1137 -0.1900 -0.0979
  981DDP     C4 5886   3.652   9.788   0.070  0.2464 -0.0854 -0.0582
  982DDP     C1 5887   5.260  26.464  18.537  0.2978 -0.0168  0.1465
  982DDP     P1 5888   5.497  26.164  18.821  0.0506  0.0866 -0.0116
  982DDP     P2 5889   5.133  26.933  18.578 -0.2013 -0.0457 -0.1863
  982DDP     C2 5890   5.276  27.315  18.283 -0.1399 -0.3450 -0.5782
  982DDP     C3 5891   5.972  26.310  18.865  0.0259 -0.1609 -0.0193
  982DDP     C4 5892   5.341  26.281  18.132 -0.0449 -0.1673  0.0314
  983DDP     C1 5893   7.355   2.359  18.853 -0.3171 -0.1496 -0.0302
  983DDP     P1 5894   7.578   2.321  18.427  0.1986 -0.2045 -0.1518
  983DDP     P2 5895   7.579   2.364  19.282 -0.0348  0.1311  0.1444
  983DDP     C2 5896   7.504   2.541  19.686 -0.0090  0.1265 -0.1141
  983DDP     C3 5897   7.395   2.067  17.996  0.1056  0.2776  0.1472
  983DDP     C4 5898   6.935   2.426  18.771  0.1550 -0.2138  0.1521
  984DDP     C1 5899   9.325   6.037  11.198  0.3215 -0.0519  0.0874
  984DDP     P1 5900   8.976   5.756  11.313  0.0078 -0.0125  0.1000
  984DDP     P2 5901   9.279   6.069  10.790 -0.0136  0.0562  0.1103
  984DDP     C2 5902   9.485   5.913  10.405 -0.1918  0.1683  0.1874
  984DDP     C3 5903   8.588   5.589  11.359  0.2953  0.0921  0.0126
  984DDP     C4 5904   9.587   6.328  11.486  0.2131  0.0318 -0.0397
  985DDP     C1 5905  20.469  23.442  16.026  0.1546  0.3169 -0.1992
  985DDP     P1 5906  20.253  23.760  16.243  0.1619 -0.0544 -0.2693
  985DDP     P2 5907  20.737  23.039  16.262  0.2323 -0.0985  0.0410
  985DDP     C2 5908  21.092  23.021  16.532 -0.1175  0.0883 -0.0708
  985DDP     C3 5909  20.276  24.262  16.363 -0.0026 -0.0011  0.0348
  985DDP     C4 5910  20.539  23.504  15.636 -0.1019  0.0612 -0.4145
  986DDP     C1 5911  12.585  23.343   0.926 -0.4044 -0.0916  0.4071
  986DDP     P1 5912  12.451  23.754   1.248  0.0156  0.1614 -0.0217
  986DDP     P2 5913  12.780  23.061   1.272  0.1241  0.1373  0.1811
  986DDP     C2 5914  12.929  23.111   1.722 -0.0072  0.1318 -0.0569
  986DDP     C3 5915  12.102  23.780   1.501 -0.1973  0.2357  0.0846
  986DDP     C4 5916  12.327  23.424   0.575 -0.0819 -0.1870 -0.0109
  987DDP     C1 5917  18.215  14.853  13.106 -0.1481  0.1935  0.3067
  987DDP     P1 5918  18.534  14.571  12.998 -0.2027 -0.1432 -0.1899
  987DDP     P2 5919  17.749  14.688  13.248  0.0985 -0.2032  0.0661
  987DDP     C2 5920  17.561  14.405  13.458 -0.1883 -0.1342  0.0090
  987DDP     C3 5921  18.788  14.417  12.737  0.0290 -0.1974  0.1198
  987DDP     C4 5922  18.403  15.306  13.154  0.2148 -0.0259  0.1767
  988DDP     C1 5923  20.622  26.263  24.035 -0.0652 -0.2349 -0.0927
  988DDP     P1 5924  20.649  26.383  23.629 -0.2274 -0.0029 -0.0041
  988DDP     P2 5925  20.574  25.903  24.114 -0.2415 -0.1080  0.0792
  988DDP     C2 5926  20.558  25.474  24.166 -0.1267 -0.1031 -0.0448
  988DDP     C3 5927  20.621  26.280  23.223  0.0372  0.0058  0.0333
  988DDP     C4 5928  20.640  26.553  24.420  0.0050 -0.1102 -0.0840
  989DDP     C1 5929  26.694  17.454   3.873 -0.1971 -0.0264  0.0385
  989DDP     P1 5930  26.475  17.722   4.169 -0.0756  0.0249 -0.2160
  989DDP     P2 5931  27.137  17.330   4.072  0.0515  0.1849  0.0932
  989DDP     C2 5932  27.435  16.896   4.066 -0.1465  0.0716  0.3320
  989DDP     C3 5933  26.082  17.938   4.117  0.1470 -0.1397  0.2366
  989DDP     C4 5934  26.634  17.344   3.406  0.0642 -0.2894 -0.2422
  990DDP     C1 5935  27.700   0.058   9.048  0.0267  0.0514  0.0543
  990DDP     P1 5936  27.899   0.316   9.265 -0.0074  0.0565 -0.1733
  990DDP     P2 5937  27.917  30.246   8.679 -0.1030  0.1231 -0.2046
  990DDP     C2 5938  28.070  30.165   8.367  0.2603 -0.0359 -0.1530
  990DDP     C3 5939  28.035   0.512   9.621 -0.0552  0.1215 -0.1248
  990DDP     C4 5940  27.218   0.054   9.075 -0.0624  0.0866  0.2724
  991DDP     C1 5941   6.346  12.914  18.035  0.2384  0.0837 -0.4700
  991DDP     P1 5942   6.738  12.909  18.245  0.0253 -0.4202  0.0452
  991DDP     P2 5943   6.192  12.550  17.992  0.0694  0.2498 -0.1682
  991DDP     C2 5944   6.073  12.165  17.873 -0.1994  0.0712  0.0742
  991DDP     C3 5945   6.778  12.806  18.709  0.2075  0.2951  0.0313
  991DDP     C4 5946   6.268  13.429  18.027 -0.0949  0.0056  0.0840
  992DDP     C1 5947  15.566  19.860  14.520  0.2388 -0.0862 -0.0947
  992DDP     P1 5948  15.530  19.451  14.605  0.1393 -0.3703 -0.1277
  992DDP     P2 5949  15.764  20.151  14.184 -0.1464 -0.1948 -0.1963
  992DDP     C2 5950  16.134  20.247  13.902 -0.1435  0.0583  0.0404
  992DDP     C3 5951  15.766  19.106  14.739  0.3824 -0.0671  0.1462
  992DDP     C4 5952  15.238  19.948  14.870 -0.0048  0.1644  0.1616
  993DDP     C1 5953  18.369   4.320  11.645 -0.1410  0.2943 -0.4557
  993DDP     P1 5954  18.091   4.353  12.094 -0.0350  0.0050 -0.1501
  993DDP     P2 5955  18.575   3.996  11.538  0.1031  0.0337  0.1190
  993DDP     C2 5956  18.966   4.057  11.513 -0.0309 -0.1142  0.2297
  993DDP     C3 5957  17.611   4.560  12.239 -0.0493  0.0412 -0.1393
  993DDP     C4 5958  18.373   4.694  11.643 -0.0798  0.2354  0.1525
  994DDP     C1 5959   3.689   1.528  17.676 -0.5028 -0.2619 -0.0024
  994DDP     P1 5960   3.648   1.065  17.743 -0.0767  0.0901  0.3798
  994DDP     P2 5961   3.696   1.697  18.072 -0.1588  0.2402  0.3193
  994DDP     C2 5962   4.074   1.926  18.003 -0.1652  0.2137 -0.2222
  994DDP     C3 5963   3.755   0.808  17.337 -0.1246 -0.0350 -0.0935
  994DDP     C4 5964   3.748   1.851  17.202  0.0114 -0.1983 -0.0832
  995DDP     C1 5965   8.999  11.881  21.339 -0.1107  0.0617  0.5064
  995DDP     P1 5966   9.169  11.862  20.914  0.1188 -0.0481  0.2330
  995DDP     P2 5967   9.212  11.790  21.796 -0.0728  0.1916 -0.1853
  995DDP     C2 5968   9.306  11.701  22.198  0.2356  0.0546  0.3131
  995DDP     C3 5969   9.276  12.216  20.569  0.1822 -0.0357 -0.0370
  995DDP     C4 5970   8.521  11.969  21.231  0.2209 -0.0718 -0.1125
  996DDP     C1 5971   4.840  18.333   9.043 -0.0099  0.4427 -0.0698
  996DDP     P1 5972   4.843  18.688   9.369 -0.1299  0.2156  0.1450
  996DDP     P2 5973   4.483  18.174   8.772 -0.3253 -0.0270 -0.0146
  996DDP     C2 5974   4.030  18.228   8.819 -0.1558  0.3440 -0.0256
  996DDP     C3 5975   4.993  18.880   9.597  0.1298 -0.0434 -0.3469
  996DDP     C4 5976   5.213  18.102   9.129 -0.2911 -0.1749 -0.0550
  997DDP     C1 5977  20.628  28.406  13.808 -0.2312 -0.0323  0.0755
  997DDP     P1 5978  20.690  28.024  13.445  0.0817 -0.1590  0.1518
  997DDP     P2 5979  20.302  28.723  13.668 -0.0134 -0.0818 -0.1772
  997DDP     C2 5980  19.891  28.731  13.672  0.1872 -0.1852  0.0229
  997DDP     C3 5981  20.718  27.603  13.403  0.0747  0.0715 -0.0557
  997DDP     C4 5982  20.765  28.433  14.279  0.0172 -0.0705  0.0776
  998DDP     C1 5983   3.076  23.285  14.609  0.1686  0.1464 -0.1064
  998DDP     P1 5984   3.432  23.287  14.347  0.2275 -0.1140 -0.4249
  998DDP     P2 5985   2.677  23.229  14.304  0.3128  0.0708 -0.0186
  998DDP     C2 5986   2.527  23.124  13.892  0.1638  0.1955 -0.0633
  998DDP     C3 5987   3.844  23.064  14.338  0.2832 -0.1090 -0.0324
  998DDP     C4 5988   2.894  23.450  15.039  0.0704 -0.0244  0.3770
  999DDP     C1 5989  26.478   4.207  13.510 -0.1353  0.2403  0.3598
  999DDP     P1 5990  26.611   4.152  13.942 -0.0210  0.1429 -0.3519
  999DDP     P2 5991  26.285   3.840  13.234 -0.1195  0.0906 -0.1402
  999DDP     C2 5992  26.122   3.383  13.290  0.1995 -0.0978  0.0295
  999DDP     C3 5993  26.779   4.333  14.319 -0.1299  0.3856 -0.2578
  999DDP     C4 5994  26.148   4.552  13.419  0.2094 -0.1949  0.1740
 1000DDP     C1 5995  12.122  20.121  16.192  0.0499  0.1527  0.1620
 1000DDP     P1 5996  11.665  20.075  16.090  0.0916  0.0129 -0.0445
 1000DDP     P2 5997  12.318  20.180  16.508 -0.1493  0.0503 -0.1978
 1000DDP     C2 5998  12.536  20.269  16.902  0.0270 -0.1763  0.1377
 1000DDP     C3 5999  11.468  19.994  16.399  0.0988  0.1893  0.0910
 1000DDP     C4 6000  12.289  20.424  15.857 -0.2859  0.0407  0.1860
 1001DDP     C1 6001   7.191  11.375   0.679  0.2350 -0.1557 -0.1243
 1001DDP     P1 6002   7.288  10.976   0.792  0.1022 -0.1561  0.2274
 1001DDP     P2 6003   7.504  11.597   0.350 -0.0615 -0.2278  0.0360
 1001DDP     C2 6004   7.644  11.894   0.104  0.1086  0.0561 -0.0896
 1001DDP     C3 6005   7.640  10.658   0.800 -0.2217 -0.0817 -0.0364
 1001DDP     C4 6006   6.747  11.587   0.706  0.2405  0.0227 -0.3733
 1002DDP     C1 6007  12.197   5.783   2.430 -0.3723  0.1701 -0.2757
 1002DDP     P1 6008  11.791   5.611   2.524 -0.0936  0.0009  0.1402
 1002DDP     P2 6009  12.308   6.212   2.381 -0.0576 -0.1953  0.0208
 1002DDP     C2 6010  12.410   6.657   2.678 -0.3140  0.0567 -0.0034
 1002DDP     C3 6011  11.405   5.636   2.683  0.0038 -0.1501 -0.1371
 1002DDP     C4 6012  12.432   5.496   2.251  0.1403 -0.0700 -0.0833
 1003DDP     C1 6013   2.228   3.330   8.591 -0.0909 -0.0087  0.0344
 1003DDP     P1 6014   2.602   3.151   8.349  0.0367  0.3678 -0.0367
 1003DDP     P2 6015   1.997   3.686   8.362 -0.1487  0.1165 -0.0811
 1003DDP     C2 6016   1.908   3.714   7.970  0.1591 -0.0046 -0.1469
 1003DDP     C3 6017   2.970   3.080   8.099 -0.0903 -0.0019  0.0876
 1003DDP     C4 6018   2.089   3.138   8.987 -0.0419  0.0341  0.1301
 1004DDP     C1 6019  27.249  29.756  20.788 -0.1514 -0.0468 -0.2103
 1004DDP     P1 6020  27.448  29.999  21.046 -0.0427 -0.0888 -0.0297
 1004DDP     P2 6021  27.160  29.354  20.873  0.3017  0.2567  0.1953
 1004DDP     C2 6022  27.010  29.099  21.226  0.1087  0.0619  0.1304
 1004DDP     C3 6023  27.662  30.300  21.273 -0.0486  0.3057  0.3128
 1004DDP     C4 6024  27.166  30.090  20.390  0.1046  0.4227  0.1838
 1005DDP     C1 6025  23.409   8.120  23.102  0.1083  0.0209 -0.2024
 1005DDP     P1 6026  22.904   8.035  22.960  0.0308  0.1689 -0.1769
 1005DDP     P2 6027  23.675   8.089  22.755 -0.2535 -0.2872  0.0338
 1005DDP     C2 6028  23.954   7.842  22.528 -0.0430  0.0249 -0.1236
 1005DDP     C3 6029  22.531   7.903  23.078 -0.0117 -0.0374 -0.2141
 1005DDP     C4 6030  23.481   8.175  23.622  0.0746  0.1637 -0.0584
 1006DDP     C1 6031  25.793  18.843  10.166 -0.0052 -0.0870 -0.1551
 1006DDP     P1 6032  26.216  19.168  10.144  0.3616  0.1485  0.3282
 1006DDP     P2 6033  25.432  18.921   9.901  0.3366 -0.0383 -0.1905
 1006DDP     C2 6034  25.365  19.060   9.560  0.2653  0.0400  0.1161
 1006DDP     C3 6035  26.489  19.357  10.546  0.2027  0.0144 -0.0541
 1006DDP     C4 6036  25.973  18.484  10.062  0.2097  0.0608 -0.1234
 1007DDP     C1 6037   8.351   8.657  21.958  0.1335 -0.1139  0.1832
 1007DDP     P1 6038   8.266   8.809  21.508  0.0826 -0.0932  0.0883
 1007DDP     P2 6039   8.648   8.847  22.251 -0.1130 -0.0078 -0.1735
 1007DDP     C2 6040   8.726   8.732  22.606 -0.1515  0.1738 -0.0116
 1007DDP     C3 6041   8.214   9.030  21.113 -0.0744  0.0327  0.2439
 1007DDP     C4 6042   8.145   8.427  22.192  0.0931  0.0871  0.1841
 1008DDP     C1 6043  10.740  24.721  27.789  0.0069 -0.1582 -0.0758
 1008DDP     P1 6044  10.446  24.784  28.183 -0.2276  0.0981 -0.0572
 1008DDP     P2 6045  10.960  24.376  27.848 -0.1572  0.3302 -0.0540
 1008DDP     C2 6046  11.260  24.014  27.949  0.0745 -0.0352 -0.0451
 1008DDP     C3 6047  10.055  25.069  28.230 -0.0038  0.1023 -0.0021
 1008DDP     C4 6048  10.682  24.993  27.336  0.2198 -0.2499  0.2128
 1009DDP     C1 6049  10.691  14.129  16.683 -0.0025  0.0027  0.2027
 1009DDP     P1 6050  10.481  13.881  16.743  0.2665  0.2153  0.0667
 1009DDP     P2 6051  10.867  13.994  16.339 -0.0820  0.3166 -0.0811
 1009DDP     C2 6052  10.959  13.671  16.047 -0.1223  0.0131  0.3866
 1009DDP     C3 6053  10.244  13.432  16.788 -0.0913 -0.0629  0.0069
 1009DDP     C4 6054  10.608  14.633  16.780  0.3048 -0.0813 -0.0028
 1010DDP     C1 6055  13.641  28.789  28.696 -0.0178 -0.0269 -0.0461
 1010DDP     P1 6056  13.995  29.037  28.688  0.0854  0.2455 -0.0411
 1010DDP     P2 6057  13.390  28.684  29.074 -0.0864 -0.0248  0.1269
 1010DDP     C2 6058  13.253  28.757  29.484  0.0630 -0.2415  0.0414
 1010DDP     C3 6059  14.122  29.412  28.835 -0.1567 -0.3185 -0.0277
 1010DDP     C4 6060  13.560  28.467  28.261  0.0722  0.0791 -0.1019
 1011DDP     C1 6061  14.015  28.172  20.175 -0.1390  0.2325  0.1436
 1011DDP     P1 6062  13.898  27.793  20.481 -0.1940  0.0215 -0.0484
 1011DDP     P2 6063  13.874  28.547  20.293  0.0977  0.0539  0.0716
 1011DDP     C2 6064  13.731  28.779  20.632  0.2234  0.0785 -0.3299
 1011DDP     C3 6065  13.945  27.352  20.488  0.4035 -0.0249 -0.0458
 1011DDP     C4 6066  13.998  28.112  19.845  0.0410  0.0006  0.2713
 1012DDP     C1 6067  10.269  15.142  25.434 -0.1489  0.0268  0.1724
 1012DDP     P1 6068  10.330  15.317  25.864  0.2414  0.0032  0.3553
 1012DDP     P2 6069  10.591  15.070  25.178  0.1573  0.2067  0.0240
 1012DDP     C2 6070  10.999  15.114  25.004  0.0563 -0.1372 -0.0390
 1012DDP     C3 6071   9.965  15.511  25.996  0.0886 -0.2181 -0.2840
 1012DDP     C4 6072   9.922  15.165  25.391  0.0026  0.1800 -0.0325
 1013DDP     C1 6073   1.233  19.851  26.990  0.1130  0.4050  0.1665
 1013DDP     P1 6074   1.492  20.027  27.205  0.2298 -0.3141 -0.2575
 1013DDP     P2 6075   1.188  19.811  26.611 -0.1322 -0.0428  0.0039
 1013DDP     C2 6076   1.027  19.525  26.335  0.0402  0.4148 -0.0932
 1013DDP     C3 6077   1.755  20.403  27.451 -0.1763  0.0576  0.4807
 1013DDP     C4 6078   0.969  19.599  27.247 -0.1385  0.0275  0.0447
 1014DDP     C1 6079  24.498  14.333  19.891 -0.2351 -0.2916 -0.1406
 1014DDP     P1 6080  24.398  14.178  19.496  0.0904  0.2839  0.3113
 1014DDP     P2 6081  24.667  13.984  20.200 -0.0669  0.1371 -0.0807
 1014DDP     C2 6082  24.980  13.777  19.924 -0.0047  0.0658  0.3202
 1014DDP     C3 6083  24.620  13.886  19.285  0.0613  0.0033 -0.0126
 1014DDP     C4 6084  24.370  14.697  19.979  0.2893  0.1791 -0.1375
 1015DDP     C1 6085   0.205  10.162   2.304  0.2083  0.2556  0.3447
 1015DDP     P1 6086  30.289   9.821   2.397 -0.1390  0.0324 -0.1460
 1015DDP     P2 6087   0.146  10.536   2.068  0.2838 -0.3037 -0.1249
 1015DDP     C2 6088   0.071  10.784   1.866  0.1118 -0.0371  0.2623
 1015DDP     C3 6089  30.277   9.400   2.311  0.0042  0.1125 -0.0815
 1015DDP     C4 6090   0.427  10.298   2.706  0.1066 -0.0080 -0.0904
 1016DDP     C1 6091  13.192  27.252  12.863  0.1873 -0.0843  0.2718
 1016DDP     P1 6092  13.291  26.790  12.828  0.1488 -0.0792 -0.0266
 1016DDP     P2 6093  13.586  27.560  12.704  0.0497  0.3471 -0.1904
 1016DDP     C2 6094  13.964  27.746  12.437  0.0087 -0.1996 -0.0191
 1016DDP     C3 6095  13.487  26.510  13.059  0.1355  0.1549  0.3340
 1016DDP     C4 6096  12.782  27.379  12.945 -0.1486  0.2705 -0.0645
 1017DDP     C1 6097  14.937   5.925   1.036 -0.2970 -0.3467 -0.0612
 1017DDP     P1 6098  15.209   6.307   0.994  0.0140 -0.1212 -0.2846
 1017DDP     P2 6099  14.571   5.968   0.710 -0.1118 -0.1274  0.3201
 1017DDP     C2 6100  14.395   5.498   0.393  0.1083 -0.3035 -0.0392
 1017DDP     C3 6101  15.422   6.624   1.330  0.0557  0.2747  0.0455
 1017DDP     C4 6102  14.876   5.617   1.387  0.0782 -0.1093  0.0575
 1018DDP     C1 6103  13.505   9.413  18.385  0.2418  0.0610  0.0061
 1018DDP     P1 6104  13.389   9.303  17.925  0.1718 -0.0975  0.0571
 1018DDP     P2 6105  13.822   9.184  18.515  0.1227  0.1629 -0.0689
 1018DDP     C2 6106  14.223   9.106  18.641 -0.1987 -0.0885  0.2835
 1018DDP     C3 6107  13.245   9.112  17.561 -0.1421  0.0349 -0.0940
 1018DDP     C4 6108  13.367   9.562  18.845  0.1114  0.2705  0.2564
 1019DDP     C1 6109   1.008  21.531   3.049 -0.1345  0.0388  0.2792
 1019DDP     P1 6110   0.797  21.289   3.320 -0.2058 -0.1305  0.1781
 1019DDP     P2 6111   0.886  21.931   3.255 -0.1853  0.0559  0.0943
 1019DDP     C2 6112   0.608  22.249   3.267  0.1211 -0.3096 -0.1493
 1019DDP     C3 6113   0.566  20.846   3.309 -0.1427  0.0080  0.1241
 1019DDP     C4 6114   1.431  21.431   2.947 -0.0325 -0.1185  0.2030
 1020DDP     C1 6115   2.867   1.190  20.968 -0.1574  0.0928  0.0257
 1020DDP     P1 6116   3.250   1.034  20.752 -0.1950 -0.1980  0.1608
 1020DDP     P2 6117   2.847   1.056  21.404  0.0482 -0.0631 -0.1427
 1020DDP     C2 6118   2.372   0.998  21.644 -0.1787  0.2062  0.0697
 1020DDP     C3 6119   3.714   1.113  20.867 -0.1522  0.4623  0.0985
 1020DDP     C4 6120   2.506   1.132  20.762  0.0562 -0.2226 -0.2290
 1021DDP     C1 6121  25.823  17.511   1.836 -0.1199  0.2554 -0.0564
 1021DDP     P1 6122  25.663  17.221   1.533 -0.0674  0.0806  0.1020
 1021DDP     P2 6123  25.484  17.561   2.159 -0.0257  0.0396 -0.0269
 1021DDP     C2 6124  25.295  17.593   2.585  0.1548 -0.2466  0.0763
 1021DDP     C3 6125  25.264  17.118   1.371 -0.0185  0.0533  0.0478
 1021DDP     C4 6126  26.179  17.702   1.716  0.1917 -0.1547  0.1364
 1022DDP     C1 6127   0.942  23.902  25.790  0.2343  0.5227 -0.1514
 1022DDP     P1 6128   0.624  23.664  25.660 -0.1432  0.2246 -0.1097
 1022DDP     P2 6129   0.898  23.939  26.197 -0.0925 -0.2563  0.1318
 1022DDP     C2 6130   1.226  24.107  26.491 -0.1205 -0.1733  0.3342
 1022DDP     C3 6131   0.271  23.401  25.804  0.0083 -0.1729  0.0216
 1022DDP     C4 6132   1.197  24.106  25.493  0.4826 -0.1061 -0.0102
 1023DDP     C1 6133   7.625  28.462  11.259 -0.1693  0.0806 -0.3555
 1023DDP     P1 6134   7.438  28.062  11.244  0.0159  0.0960 -0.1122
 1023DDP     P2 6135   7.586  28.580  11.651  0.3271 -0.2839 -0.2050
 1023DDP     C2 6136   7.536  28.889  11.892 -0.1613  0.0113 -0.1609
 1023DDP     C3 6137   7.036  27.903  10.923 -0.1242  0.0673  0.4532
 1023DDP     C4 6138   7.520  28.719  10.907  0.0090  0.1087  0.1009
 1024DDP     C1 6139  25.252  26.579   8.263  0.1803 -0.3400  0.1557
 1024DDP     P1 6140  25.007  26.671   7.874 -0.1574 -0.4450 -0.1289
 1024DDP     P2 6141  25.633  26.678   8.073  0.2693 -0.2119 -0.0863
 1024DDP     C2 6142  26.097  26.704   8.238 -0.0012 -0.0293  0.0511
 1024DDP     C3 6143  24.756  27.182   7.902 -0.0278 -0.0093  0.4528
 1024DDP     C4 6144  25.296  26.460   8.618  0.0181  0.2980 -0.1548
 1025DDP     C1 6145  13.385  29.206   4.276  0.0106  0.0670 -0.1642
 1025DDP     P1 6146  13.146  29.097   4.588 -0.3887  0.1857  0.3047
 1025DDP     P2 6147  13.524  29.652   4.047  0.0526 -0.0134 -0.2457
 1025DDP     C2 6148  13.797  30.004   4.059  0.0040  0.2221 -0.1176
 1025DDP     C3 6149  13.014  29.308   4.908  0.0908  0.0691 -0.0963
 1025DDP     C4 6150  13.489  29.071   3.954  0.2478  0.1966  0.1899
 1026DDP     C1 6151   1.627  24.270  29.957  0.0348 -0.3153  0.3115
 1026DDP     P1 6152   1.757  23.971   0.005 -0.0833  0.0202 -0.0828
 1026DDP     P2 6153   1.787  24.057  29.584  0.1389  0.1847 -0.2297
 1026DDP     C2 6154   2.057  24.023  29.130  0.1575  0.1076 -0.3240
 1026DDP     C3 6155   1.738  23.738   0.304  0.3132  0.1382  0.0550
 1026DDP     C4 6156   1.543  24.690  30.035 -0.0214  0.0924  0.0777
 1027DDP     C1 6157   2.997  29.465  20.192 -0.1274 -0.4690  0.3006
 1027DDP     P1 6158   2.757  29.846  20.015  0.0002 -0.1963 -0.0614
 1027DDP     P2 6159   3.418  29.513  20.173  0.3511 -0.2615  0.3877
 1027DDP     C2 6160   3.805  29.429  19.962 -0.0099  0.1499 -0.2132
 1027DDP     C3 6161   2.417  30.074  19.812  0.1349  0.1648  0.3190
 1027DDP     C4 6162   2.911  29.277  20.540  0.0906 -0.1811 -0.1720
 1028DDP     C1 6163   8.588  25.040   7.177  0.3597 -0.2679  0.2661
 1028DDP     P1 6164   9.058  24.967   7.135 -0.0148 -0.0716  0.0854
 1028DDP     P2 6165   8.250  25.396   7.266 -0.0103  0.0292  0.2019
 1028DDP     C2 6166   8.002  25.732   7.232  0.0189 -0.2612  0.2367
 1028DDP     C3 6167   9.411  24.882   6.974 -0.3140 -0.0732 -0.2710
 1028DDP     C4 6168   8.427  24.683   7.122  0.2684  0.0854  0.1229
 1029DDP     C1 6169   8.510  25.667  17.366  0.1824  0.2230 -0.3186
 1029DDP     P1 6170   8.546  25.974  17.576  0.0101 -0.2373 -0.2932
 1029DDP     P2 6171   8.810  25.637  17.050 -0.1137  0.0334 -0.0483
 1029DDP     C2 6172   9.111  25.404  16.666 -0.2586 -0.1784 -0.0229
 1029DDP     C3 6173   8.410  26.345  17.657 -0.2204 -0.0078 -0.0833
 1029DDP     C4 6174   8.217  25.464  17.320  0.0843  0.0702 -0.0121
 1030DDP     C1 6175   7.131  11.531  17.938 -0.0749 -0.0037  0.0724
 1030DDP     P1 6176   7.218  11.575  18.341 -0.1915 -0.0129 -0.1465
 1030DDP     P2 6177   7.295  11.164  17.912 -0.1204  0.1182 -0.0323
 1030DDP     C2 6178   7.669  11.028  17.867  0.2404 -0.2876  0.1240
 1030DDP     C3 6179   7.621  11.603  18.546 -0.2580  0.0022 -0.0422
 1030DDP     C4 6180   6.828  11.617  17.841 -0.1922 -0.0208 -0.1280
 1031DDP     C1 6181   2.111  22.064  29.271  0.1405 -0.0821 -0.0658
 1031DDP     P1 6182   2.319  22.079  28.820 -0.1444 -0.1351  0.2392
 1031DDP     P2 6183   2.441  22.106  29.661 -0.0490 -0.2644 -0.1069
 1031DDP     C2 6184   2.503  22.413  29.907  0.1103 -0.0462  0.1317
 1031DDP     C3 6185   2.224  22.104  28.419 -0.0286 -0.0911 -0.0658
 1031DDP     C4 6186   1.736  22.155  29.416  0.0843 -0.1841 -0.2520
 1032DDP     C1 6187  22.439  28.027   3.973 -0.1186 -0.2786  0.1008
 1032DDP     P1 6188  22.702  28.214   4.362 -0.2829 -0.1737 -0.4005
 1032DDP     P2 6189  22.493  27.654   3.683 -0.1282  0.1694  0.1170
 1032DDP     C2 6190  22.614  27.281   3.496 -0.0562 -0.0696 -0.0779
 1032DDP     C3 6191  22.688  28.718   4.503 -0.0812  0.0622 -0.0245
 1032DDP     C4 6192  22.064  28.185   4.072  0.1072 -0.3478 -0.0381
 1033DDP     C1 6193  16.799   2.008  12.072 -0.0459  0.1256 -0.5068
 1033DDP     P1 6194  16.590   1.635  11.816 -0.1855  0.1894  0.0037
 1033DDP     P2 6195  16.624   2.452  12.003 -0.0972  0.0254  0.1730
 1033DDP     C2 6196  16.947   2.733  12.010  0.3987 -0.0878 -0.1456
 1033DDP     C3 6197  16.390   1.408  11.786  0.3150 -0.1185 -0.2915
 1033DDP     C4 6198  17.151   1.932  12.334 -0.1100  0.0475  0.2988
 1034DDP     C1 6199  20.500  18.345  10.760  0.2108  0.2476  0.0446
 1034DDP     P1 6200  20.701  17.956  10.561  0.0973  0.0060 -0.1749
 1034DDP     P2 6201  20.528  18.281  11.219 -0.0969 -0.0533  0.1251
 1034DDP     C2 6202  20.790  18.222  11.488 -0.2216  0.1548 -0.1794
 1034DDP     C3 6203  20.718  17.515  10.458 -0.1709  0.2149 -0.0453
 1034DDP     C4 6204  20.113  18.415  10.491 -0.2281  0.0317 -0.1217
 1035DDP     C1 6205  24.512  17.175  11.137 -0.0403 -0.0066 -0.2102
 1035DDP     P1 6206  24.148  17.171  10.941 -0.4173 -0.0570 -0.2090
 1035DDP     P2 6207  24.626  17.542  11.302 -0.0047  0.0533  0.1585
 1035DDP     C2 6208  25.064  17.661  11.257 -0.0657 -0.1759  0.1763
 1035DDP     C3 6209  23.983  16.769  10.917 -0.0506 -0.2497  0.0184
 1035DDP     C4 6210  24.875  17.268  10.915  0.0533 -0.1380  0.1919
 1036DDP     C1 6211  10.072  15.033  26.189 -0.1076  0.1510  0.1521
 1036DDP     P1 6212   9.882  15.387  26.448 -0.2188 -0.2660 -0.0359
 1036DDP     P2 6213  10.490  14.913  26.130 -0.3157  0.0494  0.1128
 1036DDP     C2 6214  10.601  14.731  25.589  0.0976  0.0039 -0.1886
 1036DDP     C3 6215   9.971  15.651  26.771 -0.0328 -0.0320 -0.0897
 1036DDP     C4 6216   9.719  14.864  25.816 -0.0349  0.1442 -0.3743
 1037DDP     C1 6217  25.697   3.010  12.225 -0.2206 -0.0019  0.0940
 1037DDP     P1 6218  25.790   2.747  12.575 -0.1005 -0.2063  0.3735
 1037DDP     P2 6219  25.732   3.521  12.157 -0.1116  0.0703 -0.2808
 1037DDP     C2 6220  25.901   3.773  11.866 -0.3147  0.0828 -0.1433
 1037DDP     C3 6221  26.238   2.725  12.611  0.2408 -0.1699 -0.0540
 1037DDP     C4 6222  25.525   2.850  11.775  0.0885  0.0521  0.2657
 1038DDP     C1 6223   1.157  24.392  29.557 -0.4874 -0.2138  0.0969
 1038DDP     P1 6224   0.740  24.367  29.459 -0.2205  0.0820  0.3747
 1038DDP     P2 6225   1.279  24.028  29.682  0.0306 -0.1227  0.1814
 1038DDP     C2 6226   1.465  23.765  29.936  0.1798  0.0264  0.2656
 1038DDP     C3 6227   0.618  24.528  29.095 -0.4437 -0.0881  0.1696
 1038DDP     C4 6228   1.507  24.654  29.518 -0.0426 -0.2934 -0.1282
 1039DDP     C1 6229  10.596  10.138  27.286  0.1191 -0.2216  0.0150
 1039DDP     P1 6230  10.629   9.767  26.956 -0.3141  0.0587 -0.1756
 1039DDP     P2 6231  10.485   9.957  27.661 -0.0217  0.0643  0.2094
 1039DDP     C2 6232  10.352   9.522  27.998  0.0754  0.0518  0.1198
 1039DDP     C3 6233  10.370   9.375  26.895  0.0396  0.1180 -0.0239
 1039DDP     C4 6234  10.562  10.592  27.292 -0.2156 -0.1232  0.0062
 1040DDP     C1 6235  24.080   6.676   8.820  0.4129  0.2077  0.1733
 1040DDP     P1 6236  24.414   6.648   9.030  0.1449 -0.0327  0.1416
 1040DDP     P2 6237  23.741   6.696   9.062 -0.2336 -0.2693  0.0884
 1040DDP     C2 6238  23.518   6.625   9.446  0.0079 -0.0112  0.2863
 1040DDP     C3 6239  24.826   6.855   8.955  0.0188 -0.0929 -0.1680
 1040DDP     C4 6240  24.101   6.476   8.430 -0.3406 -0.2787  0.3839
 1041DDP     C1 6241   5.796  23.708   6.671  0.2174  0.0061 -0.2109
 1041DDP     P1 6242   5.454  23.865   6.661  0.1960  0.0619  0.0078
 1041DDP     P2 6243   6.085  23.814   7.001  0.2843 -0.0771  0.2709
 1041DDP     C2 6244   6.041  24.153   7.217  0.1699 -0.2703 -0.1415
 1041DDP     C3 6245   5.033  23.800   6.721 -0.1339 -0.0600  0.0357
 1041DDP     C4 6246   5.887  23.274   6.457  0.1987  0.0497 -0.2335
 1042DDP     C1 6247   6.994   7.355  13.514  0.1514 -0.0033 -0.2667
 1042DDP     P1 6248   7.178   7.465  13.986  0.0120  0.2080  0.0147
 1042DDP     P2 6249   7.096   7.128  13.160 -0.0672 -0.2054 -0.1280
 1042DDP     C2 6250   7.322   6.845  13.103 -0.0889 -0.1324  0.0239
 1042DDP     C3 6251   7.542   7.459  14.294 -0.1650  0.2064  0.2076
 1042DDP     C4 6252   6.703   7.695  13.392 -0.1759 -0.1697  0.2095
 1043DDP     C1 6253   4.171   3.324  18.864  0.1767 -0.1100 -0.0044
 1043DDP     P1 6254   4.091   3.188  18.473  0.2790  0.0303  0.2388
 1043DDP     P2 6255   4.072   3.184  19.215  0.0016 -0.1099  0.2734
 1043DDP     C2 6256   3.863   3.616  19.283 -0.0604  0.3086  0.0554
 1043DDP     C3 6257   3.917   2.787  18.229  0.1971  0.0684  0.1461
 1043DDP     C4 6258   4.196   3.795  18.813  0.0996 -0.0676 -0.0835
 1044DDP     C1 6259  22.263  22.787   3.289  0.0404 -0.3557 -0.1052
 1044DDP     P1 6260  22.414  22.541   2.942  0.0313  0.1683  0.3380
 1044DDP     P2 6261  21.796  22.871   3.289  0.2192  0.1562 -0.0151
 1044DDP     C2 6262  21.325  22.932   3.233  0.0643 -0.0273  0.1506
 1044DDP     C3 6263  22.382  22.548   2.482 -0.2488 -0.0322 -0.1262
 1044DDP     C4 6264  22.499  22.816   3.644 -0.2491 -0.1682 -0.1324
 1045DDP     C1 6265   7.210  13.254  16.199  0.0887  0.0043  0.0777
 1045DDP     P1 6266   7.413  13.096  16.590 -0.0908 -0.0006  0.0677
 1045DDP     P2 6267   6.807  13.441  16.069  0.1800 -0.2587  0.0450
 1045DDP     C2 6268   6.398  13.738  16.030 -0.0060 -0.0837  0.2365
 1045DDP     C3 6269   7.241  12.775  16.794 -0.1303 -0.1087  0.1604
 1045DDP     C4 6270   7.390  12.954  15.965 -0.0025  0.0401  0.1539
 1046DDP     C1 6271  18.625  11.671   5.676 -0.0163  0.0071  0.0550
 1046DDP     P1 6272  19.015  11.461   5.671 -0.0807  0.1046 -0.3602
 1046DDP     P2 6273  18.543  12.082   5.826  0.3085 -0.1177  0.2500
 1046DDP     C2 6274  18.507  12.362   6.046 -0.1635 -0.1053  0.1353
 1046DDP     C3 6275  19.423  11.274   5.437 -0.2795 -0.2205 -0.0955
 1046DDP     C4 6276  18.366  11.584   5.279 -0.0676 -0.1612  0.1357
 1047DDP     C1 6277   0.338  23.026   9.459 -0.2086 -0.1525  0.0604
 1047DDP     P1 6278   0.404  22.678   9.303  0.2088 -0.0365  0.3027
 1047DDP     P2 6279   0.060  23.210   9.755 -0.0015 -0.1675 -0.0541
 1047DDP     C2 6280  29.927  23.336   9.800 -0.1286  0.0327  0.3418
 1047DDP     C3 6281   0.626  22.326   9.357 -0.0378 -0.2384 -0.1920
 1047DDP     C4 6282   0.685  23.226   9.328 -0.1860  0.1813 -0.0279
 1048DDP     C1 6283  12.200   1.118  25.035  0.1872 -0.4393 -0.0726
 1048DDP     P1 6284  12.618   1.198  25.046  0.2995 -0.1632 -0.1766
 1048DDP     P2 6285  12.247   0.762  25.058 -0.0192 -0.1432 -0.0483
 1048DDP     C2 6286  12.519   0.385  25.198 -0.0077 -0.1521  0.1997
 1048DDP     C3 6287  12.821   1.434  25.034 -0.0136  0.0939 -0.3520
 1048DDP     C4 6288  11.955   1.281  25.298 -0.1535 -0.0243 -0.1058
 1049DDP     C1 6289  26.542  23.929   3.575  0.1451  0.0301 -0.2820
 1049DDP     P1 6290  26.123  23.816   3.671 -0.0592  0.0503  0.1899
 1049DDP     P2 6291  26.799  23.545   3.735  0.1669  0.0464 -0.2730
 1049DDP     C2 6292  27.211  23.423   3.805  0.4686  0.1839 -0.2089
 1049DDP     C3 6293  25.832  24.015   3.940 -0.1756 -0.3213 -0.2392
 1049DDP     C4 6294  26.756  24.075   3.204  0.0385  0.0758  0.2145
 1050DDP     C1 6295  30.307  28.438  22.532  0.0034 -0.0756 -0.0271
 1050DDP     P1 6296  30.118  28.544  22.125  0.1351  0.0089 -0.3252
 1050DDP     P2 6297  30.302  28.835  22.784 -0.0099 -0.2074  0.2034
 1050DDP     C2 6298  30.172  29.256  22.719  0.1402 -0.0140 -0.1073
 1050DDP     C3 6299   0.015  28.570  21.755  0.1213 -0.1173 -0.2208
 1050DDP     C4 6300   0.025  28.016  22.648 -0.3168  0.0725 -0.0311
 1051DDP     C1 6301  21.818   4.221  23.506 -0.1013 -0.0418 -0.1259
 1051DDP     P1 6302  22.020   4.588  23.622 -0.0997  0.3099  0.0466
 1051DDP     P2 6303  22.007   4.053  23.202  0.1575  0.0208  0.1081
 1051DDP     C2 6304  22.206   3.986  22.877 -0.0121 -0.2437 -0.0362
 1051DDP     C3 6305  21.989   4.989  23.588  0.1131  0.2690 -0.0468
 1051DDP     C4 6306  21.477   4.009  23.747  0.0990 -0.2551  0.1736
 1052DDP     C1 6307   4.804  18.841  16.520 -0.3489  0.0509 -0.0301
 1052DDP     P1 6308   4.501  18.800  16.152  0.1152 -0.1887 -0.0081
 1052DDP     P2 6309   4.787  19.214  16.744 -0.1529 -0.0644  0.1380
 1052DDP     C2 6310   4.607  19.526  16.949 -0.2411 -0.3646 -0.2487
 1052DDP     C3 6311   4.121  18.807  15.915  0.1726  0.1978 -0.0487
 1052DDP     C4 6312   5.175  18.443  16.595  0.1208  0.2541  0.0127
 1053DDP     C1 6313  19.205  23.214  28.673  0.0680  0.2349  0.0823
 1053DDP     P1 6314  18.842  22.933  28.824 -0.1427 -0.0966 -0.0877
 1053DDP     P2 6315  19.293  23.352  29.066  0.1667  0.1779  0.1104
 1053DDP     C2 6316  19.315  23.804  29.232  0.1779 -0.1938 -0.1785
 1053DDP     C3 6317  18.944  22.669  29.116  0.3564 -0.0273  0.2781
 1053DDP     C4 6318  19.478  23.385  28.335  0.2074  0.1130 -0.0325
 1054DDP     C1 6319  12.276   5.502  27.518  0.1246 -0.1252  0.0420
 1054DDP     P1 6320  11.939   5.667  27.383  0.1799  0.3135  0.1296
 1054DDP     P2 6321  12.724   5.563  27.415 -0.1576 -0.0954 -0.0046
 1054DDP     C2 6322  13.070   5.353  27.570  0.2436 -0.1069  0.4046
 1054DDP     C3 6323  11.536   5.921  27.527 -0.0984  0.0020  0.0649
 1054DDP     C4 6324  12.038   5.285  27.861 -0.0780  0.1264 -0.0197
 1055DDP     C1 6325  11.631   4.895  28.901 -0.1516 -0.0259  0.1984
 1055DDP     P1 6326  12.071   4.863  28.867 -0.1019 -0.1644 -0.0848
 1055DDP     P2 6327  11.421   4.790  28.544 -0.1212  0.1315 -0.0474
 1055DDP     C2 6328  11.541   4.752  28.091 -0.2432  0.1748  0.1247
 1055DDP     C3 6329  12.386   5.152  28.735  0.2336  0.4234 -0.1525
 1055DDP     C4 6330  11.292   4.752  29.146  0.0450  0.1082  0.1384
 1056DDP     C1 6331  12.774  12.689   1.719  0.0258 -0.0692  0.1377
 1056DDP     P1 6332  12.869  12.582   2.123 -0.0223 -0.1332 -0.1563
 1056DDP     P2 6333  12.934  12.868   1.370  0.0359  0.0654 -0.0993
 1056DDP     C2 6334  12.956  13.246   1.133  0.1647 -0.3599 -0.3784
 1056DDP     C3 6335  13.153  12.470   2.377 -0.3065  0.0179  0.3272
 1056DDP     C4 6336  12.409  12.419   1.859 -0.1539 -0.1333 -0.1817
 1057DDP     C1 6337  17.287  19.829  12.060  0.0642  0.4616  0.1739
 1057DDP     P1 6338  17.063  19.464  11.810  0.1643 -0.2581 -0.2852
 1057DDP     P2 6339  16.980  20.234  12.027 -0.1669 -0.1189 -0.0284
 1057DDP     C2 6340  16.755  20.623  12.237 -0.1356 -0.0383 -0.0293
 1057DDP     C3 6341  16.852  19.058  11.787  0.0458  0.0046  0.3156
 1057DDP     C4 6342  17.762  19.859  12.048  0.3051  0.0490  0.1591
 1058DDP     C1 6343  29.461  23.791  23.993 -0.0093 -0.0479 -0.2492
 1058DDP     P1 6344  29.329  23.951  23.588  0.0744  0.0578 -0.2853
 1058DDP     P2 6345  29.594  23.413  23.958 -0.0925 -0.3136 -0.0149
 1058DDP     C2 6346  29.593  23.083  23.743  0.4508 -0.1044 -0.0930
 1058DDP     C3 6347  29.260  24.199  23.236  0.0532 -0.0163 -0.2718
 1058DDP     C4 6348  29.444  24.068  24.410  0.0340  0.3233 -0.1536
 1059DDP     C1 6349  16.553  28.144  16.160 -0.0019 -0.1694  0.1453
 1059DDP     P1 6350  16.535  27.985  15.746  0.1174  0.0312  0.2161
 1059DDP     P2 6351  16.669  27.859  16.467 -0.0875  0.1469  0.0370
 1059DDP     C2 6352  16.920  27.751  16.795 -0.1732  0.0596 -0.1829
 1059DDP     C3 6353  16.486  28.007  15.385  0.1990 -0.1380  0.1826
 1059DDP     C4 6354  16.383  28.586  16.289  0.1204  0.0149  0.0261
 1060DDP     C1 6355  14.328  17.303  27.504  0.1126  0.2192  0.1087
 1060DDP     P1 6356  14.657  17.134  27.370  0.0313 -0.1228  0.1538
 1060DDP     P2 6357  14.235  17.753  27.357 -0.0422  0.0546 -0.1155
 1060DDP     C2 6358  14.196  18.268  27.499  0.1083 -0.0310 -0.1088
 1060DDP     C3 6359  14.674  16.701  27.090 -0.0916 -0.1565 -0.2385
 1060DDP     C4 6360  14.265  17.122  27.966 -0.0826  0.0066 -0.1330
 1061DDP     C1 6361   0.160  29.335  17.502 -0.0227 -0.0034  0.1584
 1061DDP     P1 6362   0.292  29.604  17.114  0.0631 -0.0069 -0.1075
 1061DDP     P2 6363   0.351  28.994  17.589 -0.0535  0.3077 -0.2762
 1061DDP     C2 6364   0.297  28.622  17.842  0.0636 -0.0278 -0.3707
 1061DDP     C3 6365   0.224  29.676  16.740 -0.2023  0.1927  0.2155
 1061DDP     C4 6366  30.073  29.376  17.554 -0.2066 -0.0492  0.2165
 1062DDP     C1 6367   9.752  22.085  26.336 -0.0280 -0.0261 -0.0249
 1062DDP     P1 6368  10.032  21.680  26.439  0.0320 -0.2766  0.1909
 1062DDP     P2 6369   9.814  22.400  26.180 -0.4499 -0.1377  0.0994
 1062DDP     C2 6370  10.155  22.704  26.041  0.0696 -0.1638 -0.0487
 1062DDP     C3 6371  10.291  21.291  26.630  0.2397  0.3384 -0.1811
 1062DDP     C4 6372   9.381  21.791  26.372  0.1191 -0.2126  0.0992
 1063DDP     C1 6373   2.313  25.032   1.454  0.4532  0.1166 -0.0264
 1063DDP     P1 6374   2.473  25.345   1.712  0.2081  0.1195 -0.0220
 1063DDP     P2 6375   2.506  24.754   1.123  0.0912 -0.1718  0.0075
 1063DDP     C2 6376   2.809  24.579   0.941  0.2026 -0.1083 -0.0352
 1063DDP     C3 6377   2.533  25.748   1.708  0.1047 -0.1023 -0.1020
 1063DDP     C4 6378   1.929  24.792   1.645 -0.0355 -0.1339  0.1716
 1064DDP     C1 6379  25.447  26.315   0.674  0.0806 -0.0136  0.1551
 1064DDP     P1 6380  24.943  26.381   0.630  0.0219  0.2412 -0.0284
 1064DDP     P2 6381  25.811  26.541   0.809 -0.2544  0.2977  0.0627
 1064DDP     C2 6382  26.036  26.969   0.831 -0.0607 -0.0112 -0.0021
 1064DDP     C3 6383  24.539  26.232   0.848 -0.1559 -0.0576 -0.1484
 1064DDP     C4 6384  25.503  25.906   0.513  0.1561  0.1010  0.1680
 1065DDP     C1 6385  18.695  11.109  27.296 -0.0015 -0.2485  0.1629
 1065DDP     P1 6386  18.619  11.268  27.712 -0.0508  0.0974  0.1312
 1065DDP     P2 6387  19.073  10.766  27.169  0.1359 -0.1561  0.0252
 1065DDP     C2 6388  19.047  10.385  27.017 -0.0760  0.3930  0.0179
 1065DDP     C3 6389  18.634  11.381  28.113  0.0653  0.0091 -0.0830
 1065DDP     C4 6390  18.302  11.179  26.977  0.0276 -0.1737  0.1991
 1066DDP     C1 6391  21.831   1.611  27.730 -0.1312 -0.0311  0.0754
 1066DDP     P1 6392  21.892   1.919  27.338  0.1676 -0.0316 -0.1252
 1066DDP     P2 6393  21.516   1.358  27.782  0.0725 -0.0637  0.0045
 1066DDP     C2 6394  21.011   1.436  27.686  0.0346  0.1731 -0.0053
 1066DDP     C3 6395  21.540   2.083  27.028  0.2590 -0.0597  0.0094
 1066DDP     C4 6396  22.110   1.575  28.022 -0.0741 -0.2563  0.1053
 1067DDP     C1 6397  17.052  12.779  21.252 -0.2008  0.3007 -0.0488
 1067DDP     P1 6398  16.858  13.067  21.002 -0.2201 -0.0287  0.1599
 1067DDP     P2 6399  17.238  12.463  21.053 -0.1154  0.3726 -0.2757
 1067DDP     C2 6400  17.438  12.154  20.771 -0.3034  0.2052 -0.2488
 1067DDP     C3 6401  16.914  13.508  20.952  0.5316 -0.0474  0.1468
 1067DDP     C4 6402  17.237  12.935  21.618 -0.0771  0.0188 -0.0853
 1068DDP     C1 6403   8.658   0.975  11.288  0.0674 -0.1278  0.0552
 1068DDP     P1 6404   8.273   0.994  11.269 -0.1146 -0.1642 -0.2174
 1068DDP     P2 6405   8.730   1.169  10.921  0.0848 -0.1786  0.1915
 1068DDP     C2 6406   8.765   1.064  10.461  0.0250  0.1467 -0.0913
 1068DDP     C3 6407   7.863   0.949  11.432 -0.0500  0.0526 -0.2655
 1068DDP     C4 6408   8.880   0.992  11.633 -0.1247  0.0552 -0.2869
 1069DDP     C1 6409  15.466   3.486   4.726  0.1487 -0.0465  0.0108
 1069DDP     P1 6410  15.239   3.492   4.287  0.0386  0.1719 -0.2200
 1069DDP     P2 6411  15.686   2.983   4.898 -0.0951 -0.1856  0.0246
 1069DDP     C2 6412  16.099   2.882   4.806  0.1470 -0.2159  0.0854
 1069DDP     C3 6413  15.126   3.688   3.929 -0.1889 -0.3415  0.0959
 1069DDP     C4 6414  15.494   3.855   5.011  0.1794  0.2009 -0.0123
 1070DDP     C1 6415  23.523  26.166  11.854  0.1987 -0.0652 -0.0660
 1070DDP     P1 6416  23.555  26.405  12.230  0.2265  0.0764  0.3812
 1070DDP     P2 6417  23.333  25.912  11.872 -0.0436  0.0247  0.1689
 1070DDP     C2 6418  23.168  25.628  11.581 -0.0168 -0.2397  0.3361
 1070DDP     C3 6419  23.595  26.557  12.616  0.2955 -0.0525 -0.2709
 1070DDP     C4 6420  23.454  26.513  11.497  0.0524 -0.0453  0.0933
 1071DDP     C1 6421  21.501  27.516   4.467 -0.0188 -0.1766 -0.3395
 1071DDP     P1 6422  21.370  27.513   4.895  0.1450 -0.1880  0.1368
 1071DDP     P2 6423  21.947  27.495   4.536 -0.2944 -0.0666  0.2734
 1071DDP     C2 6424  21.876  27.670   5.002  0.0328  0.1516 -0.1465
 1071DDP     C3 6425  21.519  27.584   5.347 -0.2056  0.1961 -0.0527
 1071DDP     C4 6426  21.374  27.835   4.126 -0.0798 -0.0224 -0.1693
 1072DDP     C1 6427  18.356  24.241  14.921  0.4626  0.1701  0.2466
 1072DDP     P1 6428  18.645  24.047  15.126  0.1359  0.2737 -0.0013
 1072DDP     P2 6429  18.569  24.441  14.627  0.1564 -0.1504  0.1213
 1072DDP     C2 6430  18.878  24.581  14.331 -0.3340 -0.0249 -0.1888
 1072DDP     C3 6431  18.881  24.089  15.376 -0.0711  0.2296  0.2877
 1072DDP     C4 6432  17.933  24.213  15.014  0.1025  0.1515  0.1104
 1073DDP     C1 6433  13.282   6.131  14.861 -0.1264  0.1490 -0.0305
 1073DDP     P1 6434  13.478   6.099  15.114  0.0513 -0.1429 -0.0205
 1073DDP     P2 6435  13.449   6.235  14.423  0.1863  0.0230 -0.1064
 1073DDP     C2 6436  13.392   6.646  14.328 -0.0797 -0.3635 -0.0166
 1073DDP     C3 6437  13.891   5.913  15.185  0.0880  0.1126 -0.0806
 1073DDP     C4 6438  12.912   5.780  14.877  0.1648 -0.4041 -0.2320
 1074DDP     C1 6439  20.799  13.749   5.561  0.0757  0.3271 -0.0956
 1074DDP     P1 6440  20.482  13.884   5.435 -0.0941  0.1014 -0.0806
 1074DDP     P2 6441  21.022  13.572   5.196 -0.2250  0.0203 -0.1091
 1074DDP     C2 6442  21.257  13.276   4.965  0.1957  0.0313 -0.2044
 1074DDP     C3 6443  20.112  13.730   5.203 -0.3631 -0.1325 -0.1650
 1074DDP     C4 6444  20.933  13.798   6.125  0.2885 -0.1389 -0.0952
 1075DDP     C1 6445   3.955  22.157  17.578 -0.0639  0.0286  0.3153
 1075DDP     P1 6446   4.233  22.571  17.667  0.1047  0.0702 -0.1779
 1075DDP     P2 6447   3.819  22.370  17.244  0.0006  0.0222  0.1976
 1075DDP     C2 6448   3.914  22.274  16.739  0.1993 -0.0446  0.0099
 1075DDP     C3 6449   4.334  22.842  18.035  0.0012 -0.0152  0.2946
 1075DDP     C4 6450   3.747  21.786  17.726 -0.0432  0.3152 -0.2247
 1076DDP     C1 6451  21.576   4.469  13.041  0.0744 -0.2204  0.0069
 1076DDP     P1 6452  21.496   4.741  13.396  0.1521 -0.0738 -0.1701
 1076DDP     P2 6453  21.284   4.655  12.711  0.0213  0.2454  0.1629
 1076DDP     C2 6454  21.093   4.730  12.387  0.1252 -0.1423 -0.0710
 1076DDP     C3 6455  21.281   4.741  13.837 -0.2042 -0.0867  0.2256
 1076DDP     C4 6456  21.564   4.050  13.064 -0.1819 -0.0289 -0.1325
 1077DDP     C1 6457   7.088  20.271  22.552  0.1316  0.3808 -0.1096
 1077DDP     P1 6458   6.811  19.920  22.410 -0.0447 -0.1408 -0.0895
 1077DDP     P2 6459   7.025  20.641  22.755  0.5334 -0.0838  0.2399
 1077DDP     C2 6460   7.149  21.056  22.978 -0.1591 -0.0518  0.0163
 1077DDP     C3 6461   6.514  19.825  22.109 -0.0190  0.0170  0.0370
 1077DDP     C4 6462   7.497  20.264  22.345  0.3580  0.0925  0.0136
 1078DDP     C1 6463   3.789   6.128  20.339  0.2307 -0.2187  0.1855
 1078DDP     P1 6464   3.940   6.388  19.999 -0.0842  0.1004 -0.2058
 1078DDP     P2 6465   3.732   5.671  20.211  0.1120 -0.0580  0.0321
 1078DDP     C2 6466   3.882   5.279  20.082 -0.1899  0.1657  0.2658
 1078DDP     C3 6467   4.222   6.628  19.869 -0.0632  0.1009  0.0496
 1078DDP     C4 6468   3.771   6.259  20.758  0.2115 -0.0256 -0.1218
 1079DDP     C1 6469  20.694  25.613  14.192 -0.1184  0.0424 -0.0678
 1079DDP     P1 6470  20.438  25.945  14.427  0.1617  0.1602 -0.0032
 1079DDP     P2 6471  20.413  25.405  13.961  0.0440  0.2737 -0.1175
 1079DDP     C2 6472  20.227  25.431  13.477  0.0523 -0.1152  0.0863
 1079DDP     C3 6473  20.427  26.132  14.789  0.0596 -0.1897 -0.3971
 1079DDP     C4 6474  21.146  25.650  14.153 -0.2823 -0.0816  0.5741
 1080DDP     C1 6475  30.112   5.880  14.977  0.0457 -0.2396 -0.0260
 1080DDP     P1 6476  29.832   6.119  14.702  0.1711 -0.2729  0.0177
 1080DDP     P2 6477   0.212   5.931  14.880 -0.0705 -0.1441 -0.2862
 1080DDP     C2 6478   0.396   6.010  14.527 -0.0582 -0.1992  0.1938
 1080DDP     C3 6479  29.728   6.317  14.460 -0.0190 -0.1409  0.2593
 1080DDP     C4 6480  30.003   5.618  15.271  0.0702 -0.1093 -0.2094
 1081DDP     C1 6481   2.062   9.305  18.418  0.0884 -0.0822 -0.0484
 1081DDP     P1 6482   1.943   9.696  18.294 -0.1913  0.0368 -0.0535
 1081DDP     P2 6483   2.424   9.145  18.108  0.1259  0.1864 -0.0259
 1081DDP     C2 6484   2.604   9.286  17.722 -0.0403 -0.0477 -0.0669
 1081DDP     C3 6485   1.996  10.007  17.987  0.1734  0.1953  0.0442
 1081DDP     C4 6486   1.927   9.067  18.762 -0.0205 -0.0225  0.0658
 1082DDP     C1 6487  11.609  12.295  10.233  0.2434 -0.0869 -0.0712
 1082DDP     P1 6488  11.693  12.717  10.139  0.1390  0.1876 -0.1476
 1082DDP     P2 6489  11.642  11.960   9.803 -0.2328 -0.0133 -0.0504
 1082DDP     C2 6490  11.651  11.652   9.463 -0.0594 -0.0379 -0.1913
 1082DDP     C3 6491  11.812  13.049  10.403 -0.0711  0.1978 -0.0455
 1082DDP     C4 6492  11.342  12.173  10.600  0.3148  0.1197  0.1462
 1083DDP     C1 6493  16.588  26.534  10.341  0.1963  0.1757 -0.1441
 1083DDP     P1 6494  16.285  26.757  10.200 -0.0124 -0.0463  0.3396
 1083DDP     P2 6495  16.536  25.999  10.340 -0.0145 -0.1732 -0.1301
 1083DDP     C2 6496  16.462  25.600  10.376 -0.1197  0.0854  0.1561
 1083DDP     C3 6497  15.980  27.035  10.013 -0.2396  0.1905 -0.1262
 1083DDP     C4 6498  16.975  26.572  10.524  0.2247 -0.0803  0.0060
 1084DDP     C1 6499   3.913  16.297   6.707 -0.0171  0.3338  0.0023
 1084DDP     P1 6500   3.950  16.441   7.082 -0.0567 -0.1178  0.0729
 1084DDP     P2 6501   3.566  16.416   6.443 -0.1545 -0.0033  0.1521
 1084DDP     C2 6502   3.298  16.347   6.030  0.0073  0.0157  0.2683
 1084DDP     C3 6503   3.838  16.483   7.542 -0.0918  0.2188  0.0842
 1084DDP     C4 6504   4.305  15.951   6.509 -0.1210 -0.2378  0.0183
 1085DDP     C1 6505  19.796  29.362  27.546 -0.1610 -0.0704  0.0189
 1085DDP     P1 6506  20.188  29.207  27.349  0.1524 -0.2502 -0.2810
 1085DDP     P2 6507  19.732  29.523  27.946 -0.3486  0.0076 -0.2523
 1085DDP     C2 6508  19.595  29.887  28.056 -0.0499 -0.0090  0.0684
 1085DDP     C3 6509  20.182  29.153  26.861  0.0105 -0.2197 -0.2103
 1085DDP     C4 6510  19.527  29.554  27.261 -0.2336 -0.0469  0.1669
 1086DDP     C1 6511  13.931   9.980  14.914 -0.0707 -0.1384 -0.0697
 1086DDP     P1 6512  13.743   9.747  15.122  0.1327  0.0255  0.0863
 1086DDP     P2 6513  13.830  10.339  14.914  0.0186  0.0838  0.0021
 1086DDP     C2 6514  13.746  10.682  15.198 -0.1805  0.0841 -0.0716
 1086DDP     C3 6515  13.738   9.313  15.325  0.0831 -0.2537  0.0831
 1086DDP     C4 6516  14.235   9.850  14.632 -0.0830  0.1065 -0.1041
 1087DDP     C1 6517   4.235  22.117  27.060 -0.2211 -0.2760  0.2029
 1087DDP     P1 6518   4.410  21.692  26.993 -0.0085  0.1989 -0.2376
 1087DDP     P2 6519   3.923  22.010  27.410  0.1293  0.2937 -0.1798
 1087DDP     C2 6520   3.710  22.050  27.782  0.0408 -0.2051  0.0154
 1087DDP     C3 6521   4.284  21.335  27.075  0.2642  0.2338 -0.0897
 1087DDP     C4 6522   4.423  22.560  26.914  0.0170 -0.1547 -0.0616
 1088DDP     C1 6523   0.346  29.627  20.758 -0.0341 -0.0817  0.3238
 1088DDP     P1 6524   0.278  29.845  20.365  0.1125  0.0823  0.0608
 1088DDP     P2 6525  30.263  29.600  20.704 -0.3289 -0.1666  0.2145
 1088DDP     C2 6526  29.895  29.634  20.536  0.0286 -0.1497  0.1602
 1088DDP     C3 6527   0.237  30.257  20.095 -0.2042  0.0433  0.4494
 1088DDP     C4 6528   0.557  29.650  21.066 -0.0625  0.1179 -0.0368
 1089DDP     C1 6529  16.407   9.648   3.385  0.2159  0.2635 -0.0051
 1089DDP     P1 6530  16.548  10.012   3.624 -0.1532 -0.0352  0.4823
 1089DDP     P2 6531  16.114   9.578   3.137 -0.1263  0.3551  0.0096
 1089DDP     C2 6532  15.981   9.383   2.724 -0.1272 -0.1425 -0.1256
 1089DDP     C3 6533  16.785  10.033   3.987 -0.0987 -0.0307 -0.1788
 1089DDP     C4 6534  16.705   9.439   3.626  0.0848  0.1290  0.2799
 1090DDP     C1 6535  29.305   9.266  13.813 -0.3538 -0.1140  0.2513
 1090DDP     P1 6536  29.622   9.235  13.954 -0.0036 -0.1086 -0.1335
 1090DDP     P2 6537  29.058   9.548  13.889 -0.0850 -0.1841  0.2618
 1090DDP     C2 6538  28.803   9.881  14.098 -0.0659 -0.0737  0.1997
 1090DDP     C3 6539  29.950   9.018  13.760 -0.3307 -0.0243 -0.2043
 1090DDP     C4 6540  29.055   9.095  13.599  0.0534 -0.0627  0.0174
 1091DDP     C1 6541  17.495  22.528  25.627  0.2566  0.1446  0.0173
 1091DDP     P1 6542  17.391  22.279  25.984 -0.0858  0.1703 -0.1158
 1091DDP     P2 6543  17.942  22.697  25.421 -0.0384  0.0355  0.2140
 1091DDP     C2 6544  18.126  23.044  25.020 -0.1608 -0.0203 -0.0157
 1091DDP     C3 6545  17.349  21.859  26.341  0.0129  0.0681 -0.0588
 1091DDP     C4 6546  17.058  22.762  25.417 -0.1107  0.2087 -0.0150
 1092DDP     C1 6547  12.755  14.546  22.476 -0.0537 -0.3372 -0.2639
 1092DDP     P1 6548  12.491  14.803  22.266 -0.0541  0.0291 -0.0611
 1092DDP     P2 6549  13.102  14.526  22.297 -0.1115 -0.1559  0.1459
 1092DDP     C2 6550  13.263  14.557  21.960  0.0834  0.0488 -0.0581
 1092DDP     C3 6551  12.307  14.930  21.925 -0.0148  0.2177  0.1000
 1092DDP     C4 6552  12.790  14.424  22.909  0.2646  0.0459  0.1658
 1093DDP     C1 6553  21.840   3.583  23.959  0.1011  0.1479  0.1829
 1093DDP     P1 6554  21.405   3.379  24.051  0.0198  0.0237 -0.1097
 1093DDP     P2 6555  21.845   3.651  23.554  0.3573 -0.3821 -0.1047
 1093DDP     C2 6556  21.516   3.794  23.271  0.2688 -0.1026  0.0539
 1093DDP     C3 6557  21.109   3.095  23.920  0.3355  0.2489  0.3450
 1093DDP     C4 6558  22.189   3.703  24.131 -0.3898 -0.0569  0.1648
 1094DDP     C1 6559  12.239   1.556  24.389 -0.0604 -0.0528  0.0768
 1094DDP     P1 6560  12.579   1.409  23.987 -0.3480  0.0629 -0.0428
 1094DDP     P2 6561  12.332   1.954  24.558  0.0479  0.3420 -0.1302
 1094DDP     C2 6562  12.268   2.335  24.815 -0.1962 -0.0770  0.0086
 1094DDP     C3 6563  12.696   0.986  23.874  0.1779 -0.0174  0.0003
 1094DDP     C4 6564  11.977   1.132  24.588 -0.0992  0.0270  0.0542
 1095DDP     C1 6565  25.040  16.451  20.755 -0.3025  0.2648  0.0760
 1095DDP     P1 6566  24.797  16.135  21.034  0.2989  0.0918 -0.5060
 1095DDP     P2 6567  24.872  16.717  20.379 -0.0666  0.0593 -0.1699
 1095DDP     C2 6568  25.233  16.603  20.022  0.0908  0.2042  0.3054
 1095DDP     C3 6569  24.546  15.882  21.242  0.0393  0.0300  0.5671
 1095DDP     C4 6570  25.321  16.624  21.031 -0.0414 -0.2198 -0.1147
 1096DDP     C1 6571  27.430   9.783   1.166 -0.0698 -0.0545 -0.0010
 1096DDP     P1 6572  27.532  10.130   1.107  0.0720  0.1823 -0.3307
 1096DDP     P2 6573  27.061   9.724   1.444 -0.3026 -0.0771  0.0588
 1096DDP     C2 6574  26.659   9.715   1.440  0.3923 -0.1167  0.0447
 1096DDP     C3 6575  27.844  10.453   1.195  0.0106 -0.0689  0.0808
 1096DDP     C4 6576  27.590   9.488   0.788 -0.1821 -0.0710  0.1769
 1097DDP     C1 6577   7.992  14.150   6.030  0.2199 -0.2394  0.3045
 1097DDP     P1 6578   8.315  14.006   5.824  0.2239  0.1925  0.0983
 1097DDP     P2 6579   7.607  14.093   5.833  0.0100  0.1619  0.0154
 1097DDP     C2 6580   7.266  13.875   6.069  0.2663  0.4130  0.1184
 1097DDP     C3 6581   8.565  13.928   5.491 -0.1441  0.2863 -0.1593
 1097DDP     C4 6582   8.157  14.220   6.514  0.1900 -0.2507  0.2101
 1098DDP     C1 6583  23.479  19.741  12.427  0.2069 -0.2259 -0.2053
 1098DDP     P1 6584  23.271  20.064  12.266  0.1320 -0.4169 -0.0206
 1098DDP     P2 6585  23.228  19.443  12.369 -0.0331 -0.0257  0.0638
 1098DDP     C2 6586  23.192  19.028  12.491 -0.0787 -0.0713 -0.3280
 1098DDP     C3 6587  23.291  20.212  11.869 -0.1891 -0.0948 -0.3128
 1098DDP     C4 6588  23.723  19.742  12.716  0.0359 -0.1455  0.1983
 1099DDP     C1 6589  28.539  21.113  12.694  0.0200  0.1283 -0.0018
 1099DDP     P1 6590  28.435  20.880  13.126  0.0796 -0.0793 -0.1185
 1099DDP     P2 6591  28.698  20.803  12.367 -0.1074 -0.2101 -0.0439
 1099DDP     C2 6592  28.514  20.522  12.102 -0.0402  0.2629  0.0099
 1099DDP     C3 6593  28.340  21.128  13.450  0.0256  0.1747 -0.0242
 1099DDP     C4 6594  28.560  21.561  12.632 -0.1935  0.0541  0.0216
 1100DDP     C1 6595   3.502   9.007  23.770  0.1160  0.0379 -0.1410
 1100DDP     P1 6596   3.489   9.507  23.852  0.0023  0.1650 -0.1146
 1100DDP     P2 6597   3.670   8.704  24.063 -0.3684  0.1186 -0.0995
 1100DDP     C2 6598   4.085   8.640  24.231 -0.1524 -0.0303 -0.4252
 1100DDP     C3 6599   3.523   9.863  23.612  0.0327 -0.0329  0.1108
 1100DDP     C4 6600   3.538   8.859  23.307 -0.1035 -0.2792 -0.3364
 1101DDP     C1 6601   7.740  17.351  24.827  0.0369 -0.0431 -0.2510
 1101DDP     P1 6602   7.613  17.765  25.114 -0.1232 -0.2206  0.3837
 1101DDP     P2 6603   7.544  17.007  24.916  0.0285 -0.2713  0.1027
 1101DDP     C2 6604   7.539  16.752  25.179 -0.0991 -0.0527 -0.0982
 1101DDP     C3 6605   7.865  18.117  25.223 -0.1197 -0.0854  0.1922
 1101DDP     C4 6606   8.065  17.304  24.561  0.0680 -0.1085 -0.1215
 1102DDP     C1 6607  19.624   4.694   6.620 -0.0803  0.2774 -0.1519
 1102DDP     P1 6608  20.084   4.656   6.415 -0.1642 -0.1667 -0.0749
 1102DDP     P2 6609  19.523   4.369   6.982 -0.0910  0.0697  0.2148
 1102DDP     C2 6610  19.144   4.127   7.090 -0.0511  0.1134  0.0023
 1102DDP     C3 6611  20.347   4.324   6.391 -0.2619 -0.0635  0.0494
 1102DDP     C4 6612  19.380   4.816   6.297  0.2067 -0.1398  0.0923
 1103DDP     C1 6613  16.085   0.844  25.987 -0.0490 -0.1579 -0.0516
 1103DDP     P1 6614  16.210   1.275  25.912  0.0020 -0.0219 -0.1426
 1103DDP     P2 6615  15.849   0.948  26.320  0.2228  0.1680  0.2423
 1103DDP     C2 6616  15.981   0.889  26.750  0.1587  0.0992 -0.2530
 1103DDP     C3 6617  16.118   1.666  25.871  0.2951 -0.3000  0.2402
 1103DDP     C4 6618  16.227   0.423  25.944 -0.0425  0.0477  0.1904
 1104DDP     C1 6619  15.548  10.541  20.395  0.0722 -0.2037 -0.1903
 1104DDP     P1 6620  15.804  10.894  20.577  0.1155 -0.2245 -0.2758
 1104DDP     P2 6621  15.058  10.636  20.326 -0.0349  0.1311 -0.3802
 1104DDP     C2 6622  14.714  10.533  20.173 -0.1041 -0.2373 -0.1792
 1104DDP     C3 6623  15.756  11.202  20.911  0.1703  0.0411 -0.2772
 1104DDP     C4 6624  15.760  10.110  20.146 -0.0664 -0.2256 -0.0007
 1105DDP     C1 6625   1.147  17.570  28.297  0.1314  0.1492  0.5169
 1105DDP     P1 6626   0.953  17.667  28.609 -0.1344  0.1502  0.2114
 1105DDP     P2 6627   1.040  17.120  28.013  0.3726 -0.0368 -0.3688
 1105DDP     C2 6628   0.681  17.045  27.848  0.5012  0.2034  0.0330
 1105DDP     C3 6629   0.885  18.017  28.834 -0.0657  0.1994 -0.2292
 1105DDP     C4 6630   1.565  17.653  28.161  0.2859  0.1946 -0.0974
 1106DDP     C1 6631  13.346  24.448  22.557  0.0189  0.2025  0.1758
 1106DDP     P1 6632  13.541  24.715  22.935  0.2894  0.1468  0.0952
 1106DDP     P2 6633  13.533  24.664  22.168 -0.0682  0.0711 -0.2206
 1106DDP     C2 6634  13.768  24.969  21.882 -0.1421 -0.0282  0.1753
 1106DDP     C3 6635  13.779  25.060  22.903  0.1008  0.2890  0.1551
 1106DDP     C4 6636  12.985  24.205  22.593  0.1225 -0.0092  0.0025
 1107DDP     C1 6637  21.089  24.216   4.604  0.0546 -0.0638 -0.1036
 1107DDP     P1 6638  21.299  23.983   4.277  0.0976  0.3171  0.1007
 1107DDP     P2 6639  21.384  24.314   4.928  0.0504  0.0446 -0.3943
 1107DDP     C2 6640  21.714  24.595   5.086  0.0318 -0.0358  0.0207
 1107DDP     C3 6641  21.518  23.693   4.327 -0.2359 -0.0391  0.0335
 1107DDP     C4 6642  20.715  23.987   4.755  0.2088  0.1709  0.2492
 1108DDP     C1 6643  24.280  24.808   6.272 -0.0529 -0.1585 -0.0785
 1108DDP     P1 6644  24.070  25.088   6.507 -0.0623 -0.2524  0.0047
 1108DDP     P2 6645  24.639  24.934   6.033 -0.1123  0.0883  0.0412
 1108DDP     C2 6646  24.803  24.987   5.591 -0.0928  0.1003  0.1207
 1108DDP     C3 6647  23.863  25.389   6.815 -0.2618  0.1550 -0.1646
 1108DDP     C4 6648  24.105  24.413   6.195  0.1885 -0.5033  0.4374
 1109DDP     C1 6649  28.134  20.294  16.067  0.1977  0.0515  0.1716
 1109DDP     P1 6650  27.862  20.394  15.694 -0.1942 -0.0381 -0.0746
 1109DDP     P2 6651  27.973  20.281  16.444 -0.0816 -0.0595  0.0932
 1109DDP     C2 6652  28.250  20.174  16.849  0.0207  0.0262  0.0688
 1109DDP     C3 6653  27.848  20.363  15.263  0.0645 -0.1091  0.0347
 1109DDP     C4 6654  28.509  20.297  15.926 -0.0817 -0.1771 -0.1729
 1110DDP     C1 6655   1.539  28.347   6.421  0.0802 -0.3833  0.2954
 1110DDP     P1 6656   1.792  28.681   6.472  0.3594  0.3187  0.3101
 1110DDP     P2 6657   1.132  28.458   6.163  0.0593  0.4049 -0.2221
 1110DDP     C2 6658   1.220  28.744   5.777 -0.0762 -0.0189  0.2140
 1110DDP     C3 6659   2.243  28.898   6.394 -0.2033 -0.5139 -0.2526
 1110DDP     C4 6660   1.644  27.929   6.628 -0.0458 -0.1188 -0.1306
 1111DDP     C1 6661  21.665   5.185  23.221 -0.1006 -0.0363 -0.1208
 1111DDP     P1 6662  21.378   5.452  23.277  0.1432  0.0283 -0.2575
 1111DDP     P2 6663  21.538   4.814  23.001 -0.3840 -0.0966  0.1659
 1111DDP     C2 6664  21.199   4.578  22.756 -0.4487  0.1451  0.1465
 1111DDP     C3 6665  21.125   5.559  23.753  0.0948 -0.0351  0.0935
 1111DDP     C4 6666  22.100   5.390  23.287 -0.1838 -0.0247  0.1724
 1112DDP     C1 6667  27.660  28.240   8.993 -0.1143 -0.2591  0.0379
 1112DDP     P1 6668  27.467  28.491   9.308  0.1725 -0.0258  0.1597
 1112DDP     P2 6669  27.695  27.794   9.127 -0.1106 -0.0496 -0.1014
 1112DDP     C2 6670  27.907  27.452   9.227 -0.1845 -0.1021 -0.2787
 1112DDP     C3 6671  27.309  28.810   9.650 -0.1984 -0.2305 -0.2389
 1112DDP     C4 6672  27.838  28.323   8.618  0.1520  0.0018 -0.1908
 1113DDP     C1 6673   0.252   8.125  24.368  0.1028  0.2278  0.0601
 1113DDP     P1 6674   0.189   8.201  24.796  0.0585  0.2846  0.1466
 1113DDP     P2 6675   0.661   8.334  24.156  0.2744  0.3667 -0.0336
 1113DDP     C2 6676   0.696   8.555  23.702 -0.0003 -0.2829  0.0766
 1113DDP     C3 6677   0.144   8.161  25.310  0.1339  0.1384  0.2361
 1113DDP     C4 6678  30.299   7.891  24.040  0.2501 -0.1424 -0.3962
 1114DDP     C1 6679  17.280  17.740   6.407  0.0794  0.1010 -0.1709
 1114DDP     P1 6680  17.092  17.519   6.075  0.2796  0.1653  0.0254
 1114DDP     P2 6681  17.636  17.558   6.530 -0.1976 -0.2170 -0.1475
 1114DDP     C2 6682  17.877  17.258   6.567  0.0749 -0.0721  0.1966
 1114DDP     C3 6683  17.345  17.195   5.917 -0.2169  0.0634  0.1862
 1114DDP     C4 6684  17.156  18.175   6.546 -0.1029 -0.0695 -0.1351
 1115DDP     C1 6685  29.213   3.166   8.120  0.3970  0.3319  0.0485
 1115DDP     P1 6686  29.294   2.788   8.411  0.1687 -0.3644 -0.1914
 1115DDP     P2 6687  29.467   3.476   7.987 -0.1141  0.1763  0.0686
 1115DDP     C2 6688  29.538   3.866   7.810  0.0383  0.0954 -0.1311
 1115DDP     C3 6689  29.442   2.589   8.794 -0.0547  0.1735  0.1441
 1115DDP     C4 6690  28.741   3.279   8.163 -0.1040 -0.2921  0.1095
 1116DDP     C1 6691  27.233   4.372   8.102 -0.0801 -0.1552  0.0475
 1116DDP     P1 6692  27.446   4.768   8.279  0.1693  0.1675  0.2456
 1116DDP     P2 6693  26.938   4.096   8.235 -0.2605  0.0656  0.1789
 1116DDP     C2 6694  26.477   3.892   8.207  0.2798 -0.2092 -0.1241
 1116DDP     C3 6695  27.529   4.715   8.777  0.1273 -0.2852 -0.1059
 1116DDP     C4 6696  27.082   4.466   7.759 -0.1163  0.1728 -0.0433
 1117DDP     C1 6697  29.371   0.978  11.315  0.0098  0.0131  0.3507
 1117DDP     P1 6698  29.533   0.910  11.693 -0.0280 -0.2430  0.1347
 1117DDP     P2 6699  29.321   0.632  11.098  0.0141 -0.3989 -0.0923
 1117DDP     C2 6700  29.206   0.154  10.958  0.2824  0.1395 -0.1198
 1117DDP     C3 6701  30.030   0.951  11.829 -0.1235 -0.3064 -0.1787
 1117DDP     C4 6702  29.163   1.173  10.884  0.1598 -0.1830 -0.0400
 1118DDP     C1 6703   4.017  23.759  12.322  0.0027  0.0296 -0.0632
 1118DDP     P1 6704   3.676  23.543  12.264 -0.0814 -0.1660  0.1333
 1118DDP     P2 6705   4.262  23.798  12.677  0.0722 -0.0430 -0.3188
 1118DDP     C2 6706   4.337  23.781  13.149  0.0364  0.1612 -0.2822
 1118DDP     C3 6707   3.372  23.412  12.010  0.0092  0.1225 -0.0044
 1118DDP     C4 6708   4.036  24.030  11.929  0.2075 -0.0469 -0.0156
 1119DDP     C1 6709  12.737  12.905   6.892 -0.1788  0.0328  0.4079
 1119DDP     P1 6710  13.176  12.702   6.812  0.1147 -0.0178 -0.1301
 1119DDP     P2 6711  12.798  12.731   7.270  0.0907 -0.1851  0.1536
 1119DDP     C2 6712  12.725  12.375   7.498  0.3206 -0.2626 -0.0586
 1119DDP     C3 6713  13.284  12.319   6.694  0.1272  0.2256  0.1089
 1119DDP     C4 6714  12.528  13.077   6.562 -0.1900  0.1808  0.0638
 1120DDP     C1 6715  24.675  11.736   6.378  0.2551  0.0725  0.2664
 1120DDP     P1 6716  24.761  11.749   5.995 -0.5295 -0.1095  0.0429
 1120DDP     P2 6717  24.439  11.390   6.489 -0.2191  0.2451  0.1261
 1120DDP     C2 6718  24.017  11.216   6.694 -0.1266  0.0294 -0.0373
 1120DDP     C3 6719  25.060  11.562   5.733 -0.1686  0.1980  0.3900
 1120DDP     C4 6720  24.707  12.156   6.709  0.1046 -0.0432  0.1740
 1121DDP     C1 6721   1.767   3.807  26.137  0.0077 -0.0230  0.2717
 1121DDP     P1 6722   2.002   3.670  25.773 -0.0966 -0.0280  0.1331
 1121DDP     P2 6723   1.678   4.285  26.288  0.0899  0.2294  0.2349
 1121DDP     C2 6724   1.508   4.681  26.369  0.1010 -0.1489 -0.0596
 1121DDP     C3 6725   1.841   3.744  25.433  0.0302  0.0753 -0.1046
 1121DDP     C4 6726   1.545   3.478  26.430  0.1399  0.0731 -0.0150
 1122DDP     C1 6727  11.875   2.549   8.090  0.2495 -0.3910 -0.0665
 1122DDP     P1 6728  11.973   2.171   7.968  0.1342 -0.0877 -0.0229
 1122DDP     P2 6729  11.611   2.803   8.074  0.2538 -0.0628  0.0122
 1122DDP     C2 6730  11.291   3.258   8.186 -0.2302  0.0091  0.0277
 1122DDP     C3 6731  11.895   1.809   7.840 -0.0943 -0.1631 -0.1973
 1122DDP     C4 6732  12.103   2.624   8.535 -0.3357 -0.0933 -0.0156
 1123DDP     C1 6733  11.832   8.097  22.110 -0.2788  0.2531 -0.1464
 1123DDP     P1 6734  11.374   8.179  21.921  0.0071  0.1894  0.3575
 1123DDP     P2 6735  12.148   8.298  22.213 -0.0818 -0.3054 -0.1247
 1123DDP     C2 6736  12.228   8.738  22.211 -0.1780  0.0125 -0.2839
 1123DDP     C3 6737  11.024   8.544  21.899 -0.0961 -0.1580  0.0091
 1123DDP     C4 6738  11.953   7.678  22.035  0.1023  0.1567  0.1214
 1124DDP     C1 6739   6.918  24.066   0.155 -0.0123  0.0107  0.0602
 1124DDP     P1 6740   7.203  23.789  30.170  0.1356 -0.3609  0.2098
 1124DDP     P2 6741   6.460  24.059   0.113  0.1162 -0.2916 -0.2335
 1124DDP     C2 6742   6.132  23.994  30.052 -0.0788 -0.2984 -0.1026
 1124DDP     C3 6743   7.614  23.898  30.081 -0.0977 -0.0352  0.2671
 1124DDP     C4 6744   7.043  24.452   0.402 -0.0875 -0.1571  0.4341
 1125DDP     C1 6745  26.359   5.648   0.556 -0.0654 -0.0650 -0.2817
 1125DDP     P1 6746  26.485   5.267   0.695 -0.1578  0.1988 -0.0774
 1125DDP     P2 6747  26.362   5.671   0.074 -0.2785  0.0297 -0.1683
 1125DDP     C2 6748  26.596   5.656  29.924 -0.1992  0.0239 -0.0853
 1125DDP     C3 6749  26.752   4.956   0.558 -0.3675  0.1124  0.2181
 1125DDP     C4 6750  26.082   5.938   0.832 -0.3844 -0.1925  0.0966
 1126DDP     C1 6751  18.976   9.517  11.765  0.1356 -0.1751 -0.0315
 1126DDP     P1 6752  19.297   9.735  11.422  0.0571  0.0857  0.1193
 1126DDP     P2 6753  18.689   9.225  11.708  0.2145  0.1650  0.2619
 1126DDP     C2 6754  18.365   9.029  11.866 -0.1908  0.3603 -0.0862
 1126DDP     C3 6755  19.157  10.165  11.240  0.0446 -0.0978 -0.0919
 1126DDP     C4 6756  19.007   9.549  12.162 -0.1795 -0.0175  0.0255
 1127DDP     C1 6757  12.888  27.494  18.636  0.0719  0.4263  0.0563
 1127DDP     P1 6758  13.200  27.790  18.924 -0.1975  0.0619  0.1061
 1127DDP     P2 6759  12.735  27.073  18.768  0.2293  0.1652  0.2457
 1127DDP     C2 6760  12.747  26.693  18.851  0.2123 -0.3648 -0.1830
 1127DDP     C3 6761  13.286  28.062  19.095 -0.0704  0.0976  0.0580
 1127DDP     C4 6762  12.902  27.612  18.331  0.0289  0.0507 -0.3064
 1128DDP     C1 6763  28.255   3.134   8.994 -0.0559  0.1825 -0.1307
 1128DDP     P1 6764  28.005   3.007   9.349 -0.2073  0.0844 -0.2513
 1128DDP     P2 6765  28.641   2.822   8.886  0.1030 -0.0364  0.1580
 1128DDP     C2 6766  28.956   2.634   8.746  0.4560  0.1500 -0.1793
 1128DDP     C3 6767  27.698   3.078   9.683  0.0968  0.0700  0.0906
 1128DDP     C4 6768  28.222   3.212   8.529  0.1073  0.2891  0.0846
 1129DDP     C1 6769   8.191   2.125   3.918 -0.0711  0.0175  0.2112
 1129DDP     P1 6770   7.908   2.417   3.664  0.1962 -0.0430 -0.0932
 1129DDP     P2 6771   8.312   2.246   4.347  0.1436  0.0286 -0.0031
 1129DDP     C2 6772   8.472   1.969   4.650  0.2326  0.1586 -0.1903
 1129DDP     C3 6773   7.671   2.605   3.347 -0.1245  0.1443 -0.0348
 1129DDP     C4 6774   8.573   1.896   3.735  0.0649 -0.0901  0.1152
 1130DDP     C1 6775  26.855  28.045  19.423 -0.0713  0.0631 -0.2686
 1130DDP     P1 6776  26.586  28.321  19.531  0.1041 -0.0796  0.1327
 1130DDP     P2 6777  26.741  27.719  19.488 -0.1049 -0.0505 -0.0579
 1130DDP     C2 6778  26.245  27.801  19.328  0.1805 -0.1985  0.0666
 1130DDP     C3 6779  26.303  28.581  19.727 -0.5663  0.2025  0.1638
 1130DDP     C4 6780  27.288  28.116  19.409  0.1943 -0.0507  0.1172
 1131DDP     C1 6781  15.268  28.976  23.652  0.0799  0.1669  0.1115
 1131DDP     P1 6782  15.446  28.677  23.511 -0.1114  0.2025 -0.0883
 1131DDP     P2 6783  15.372  29.251  23.986  0.1826 -0.0042 -0.1870
 1131DDP     C2 6784  15.701  29.558  24.031 -0.1424  0.1425 -0.1472
 1131DDP     C3 6785  15.865  28.737  23.383  0.0347  0.0246 -0.0103
 1131DDP     C4 6786  15.030  29.096  23.295  0.1633 -0.0170  0.2419
 1132DDP     C1 6787  20.496   1.021  11.932  0.1883  0.1802 -0.0249
 1132DDP     P1 6788  20.818   1.207  12.165  0.1781 -0.4060 -0.2258
 1132DDP     P2 6789  20.560   0.521  11.701 -0.1494 -0.1190  0.1112
 1132DDP     C2 6790  20.573   0.061  11.498 -0.0258 -0.2259 -0.0231
 1132DDP     C3 6791  21.050   1.135  12.491  0.1370 -0.0415  0.1262
 1132DDP     C4 6792  20.085   1.122  11.973  0.3809 -0.1813 -0.0330
 1133DDP     C1 6793  10.920  29.619   5.544  0.0038  0.5272  0.0366
 1133DDP     P1 6794  10.856  29.194   5.876 -0.2417  0.0922  0.2912
 1133DDP     P2 6795  10.590  29.913   5.681  0.2426 -0.0494 -0.1631
 1133DDP     C2 6796  10.443  30.226   5.780  0.0376  0.1389 -0.0487
 1133DDP     C3 6797  10.754  29.158   6.289  0.1073 -0.1006  0.0269
 1133DDP     C4 6798  11.298  29.812   5.281  0.0486  0.2564 -0.1006
 1134DDP     C1 6799  22.760  10.790  19.057 -0.1198 -0.1345 -0.1670
 1134DDP     P1 6800  22.543  11.183  18.991  0.0089  0.1205 -0.5116
 1134DDP     P2 6801  23.121  10.702  19.008 -0.0844  0.1400 -0.0709
 1134DDP     C2 6802  23.539  10.543  19.116  0.0189  0.1330  0.0096
 1134DDP     C3 6803  22.618  11.518  18.761 -0.3180  0.0894 -0.1561
 1134DDP     C4 6804  22.613  10.442  19.260  0.0333 -0.0507 -0.2739
 1135DDP     C1 6805  23.681  23.449  28.595 -0.0103  0.3009  0.2380
 1135DDP     P1 6806  23.496  23.086  28.834  0.1882 -0.1661 -0.1779
 1135DDP     P2 6807  23.999  23.692  28.468  0.0753  0.0671  0.0800
 1135DDP     C2 6808  24.323  23.862  28.570  0.2060  0.0057  0.1587
 1135DDP     C3 6809  23.211  22.745  28.854 -0.1505 -0.1487 -0.1974
 1135DDP     C4 6810  23.398  23.477  28.210  0.0771 -0.0251  0.2084
 1136DDP     C1 6811   9.830   7.109  12.262  0.0576 -0.0560  0.2215
 1136DDP     P1 6812  10.115   6.765  12.394  0.0455 -0.1179 -0.1988
 1136DDP     P2 6813   9.419   7.011  12.215 -0.1687 -0.1953  0.2225
 1136DDP     C2 6814   9.306   6.763  12.668 -0.1659 -0.2267 -0.2534
 1136DDP     C3 6815  10.566   6.556  12.432  0.3003  0.3837 -0.2736
 1136DDP     C4 6816   9.951   7.439  12.121 -0.0560  0.1927 -0.0019
 1137DDP     C1 6817  27.900  28.190   2.166  0.0754  0.1870 -0.0359
 1137DDP     P1 6818  27.448  28.140   2.284 -0.0045  0.0749  0.0491
 1137DDP     P2 6819  28.166  27.954   1.871 -0.1674  0.2069 -0.1697
 1137DDP     C2 6820  28.415  28.005   1.546 -0.0635  0.1858 -0.2056
 1137DDP     C3 6821  27.062  28.251   2.496 -0.1911 -0.0295 -0.1223
 1137DDP     C4 6822  28.229  28.503   2.392  0.4218 -0.2583  0.2382
 1138DDP     C1 6823  25.760  17.599  28.086 -0.3721  0.1636  0.0562
 1138DDP     P1 6824  25.706  17.205  27.820 -0.1617 -0.0648  0.2624
 1138DDP     P2 6825  25.921  17.997  27.863 -0.0884  0.0487  0.0334
 1138DDP     C2 6826  26.165  18.143  27.605 -0.2940 -0.0214 -0.0107
 1138DDP     C3 6827  25.861  17.085  27.495 -0.3510  0.0005 -0.0321
 1138DDP     C4 6828  25.287  17.766  28.228  0.2680  0.0530 -0.1300
 1139DDP     C1 6829  16.966   4.285   1.578  0.0718  0.0857 -0.1701
 1139DDP     P1 6830  17.221   3.999   1.760  0.0861 -0.3658  0.1226
 1139DDP     P2 6831  17.176   4.489   1.414 -0.2321  0.1761 -0.2679
 1139DDP     C2 6832  17.590   4.324   1.227  0.0703 -0.1691  0.0107
 1139DDP     C3 6833  17.654   3.893   1.941 -0.1765  0.2390  0.2089
 1139DDP     C4 6834  16.521   4.371   1.820  0.2703 -0.3120  0.1779
 1140DDP     C1 6835   9.092  21.772   3.251 -0.0698  0.0749  0.0794
 1140DDP     P1 6836   8.717  21.756   3.455  0.1997 -0.2106  0.1017
 1140DDP     P2 6837   9.108  21.666   2.909 -0.1256  0.2415  0.0065
 1140DDP     C2 6838   9.376  21.513   2.530 -0.0292  0.1562 -0.4548
 1140DDP     C3 6839   8.749  22.162   3.803  0.0911  0.3475 -0.1872
 1140DDP     C4 6840   9.536  21.991   3.347  0.1797 -0.0574  0.0851
 1141DDP     C1 6841  12.560  24.322  14.890  0.0253  0.0400  0.1974
 1141DDP     P1 6842  12.404  24.734  14.911  0.1924 -0.4456 -0.0788
 1141DDP     P2 6843  12.707  24.072  15.145  0.2311 -0.0271 -0.1246
 1141DDP     C2 6844  12.965  23.998  15.449  0.1745  0.1783  0.0924
 1141DDP     C3 6845  12.435  25.161  14.716 -0.2357 -0.0879 -0.0997
 1141DDP     C4 6846  12.465  24.206  14.470 -0.3341 -0.2790  0.1682
 1142DDP     C1 6847  21.948  11.784   1.992 -0.0001  0.1834  0.0995
 1142DDP     P1 6848  21.736  11.822   1.676  0.0687 -0.2549  0.0349
 1142DDP     P2 6849  22.280  11.759   1.964 -0.1321 -0.4283 -0.2056
 1142DDP     C2 6850  22.677  11.917   2.152  0.0342  0.0063  0.2428
 1142DDP     C3 6851  21.319  11.673   1.445 -0.0967 -0.1073  0.0626
 1142DDP     C4 6852  21.808  12.067   2.298  0.1846  0.3297 -0.2339
 1143DDP     C1 6853   8.794   6.856  10.469  0.3648 -0.3189 -0.0426
 1143DDP     P1 6854   9.080   6.677  10.798  0.1153  0.2203 -0.1262
 1143DDP     P2 6855   8.404   7.047  10.656 -0.0965  0.0436 -0.2586
 1143DDP     C2 6856   8.131   6.770  10.949 -0.0239  0.0528 -0.0393
 1143DDP     C3 6857   9.493   6.506  11.002 -0.1201 -0.0748  0.4015
 1143DDP     C4 6858   8.991   6.915  10.107  0.0888  0.1534  0.2050
 1144DDP     C1 6859  12.782  21.012  12.190  0.3673  0.0445  0.1525
 1144DDP     P1 6860  13.195  21.308  12.215 -0.0286  0.3382  0.1875
 1144DDP     P2 6861  12.586  20.810  11.770 -0.1271 -0.2119 -0.2088
 1144DDP     C2 6862  12.869  20.456  11.475  0.0841 -0.2112  0.2818
 1144DDP     C3 6863  13.476  21.642  12.277  0.0684  0.4121  0.0641
 1144DDP     C4 6864  12.498  20.960  12.476 -0.0374 -0.0527  0.1632
 1145DDP     C1 6865  23.554   3.744  11.187  0.1560  0.1011  0.3330
 1145DDP     P1 6866  23.360   3.415  11.010  0.0803  0.0424  0.0702
 1145DDP     P2 6867  23.882   3.736  11.588  0.1887  0.0306  0.3707
 1145DDP     C2 6868  23.825   4.038  11.894 -0.1628  0.1227 -0.3259
 1145DDP     C3 6869  23.063   3.461  10.708  0.0164 -0.0515  0.0490
 1145DDP     C4 6870  23.461   4.141  10.999 -0.0338  0.0841  0.0544
 1146DDP     C1 6871  25.422  19.813   4.315 -0.2272 -0.4283  0.0531
 1146DDP     P1 6872  25.268  20.162   4.399 -0.1211 -0.0260  0.0079
 1146DDP     P2 6873  25.471  19.504   4.645  0.4540 -0.1951 -0.0789
 1146DDP     C2 6874  25.489  19.577   5.126  0.3739 -0.1052 -0.0685
 1146DDP     C3 6875  25.212  20.504   4.682 -0.1103  0.1653  0.2804
 1146DDP     C4 6876  25.260  19.706   3.984 -0.0061 -0.3114 -0.3569
 1147DDP     C1 6877   3.813   0.951  25.545  0.0834  0.0223  0.3898
 1147DDP     P1 6878   3.515   0.851  25.766  0.0896  0.1365  0.1482
 1147DDP     P2 6879   3.728   0.730  25.303 -0.1494  0.1595  0.3335
 1147DDP     C2 6880   3.520   0.566  24.980 -0.0890  0.2649  0.0285
 1147DDP     C3 6881   3.187   0.918  26.075 -0.3965  0.0190  0.0477
 1147DDP     C4 6882   4.044   1.207  25.347  0.1069  0.1211  0.0873
 1148DDP     C1 6883   5.201  25.233   3.180  0.0564 -0.1389 -0.4038
 1148DDP     P1 6884   5.099  25.475   2.885 -0.0688  0.0520  0.0240
 1148DDP     P2 6885   4.790  25.003   3.278  0.0733 -0.2387 -0.3514
 1148DDP     C2 6886   4.381  25.047   3.307  0.1084 -0.1149 -0.0395
 1148DDP     C3 6887   4.685  25.603   2.684 -0.1183  0.2168 -0.0546
 1148DDP     C4 6888   5.640  25.092   3.360 -0.1725 -0.0058 -0.0051
 1149DDP     C1 6889  16.977  20.194  20.553  0.0453  0.1564 -0.2311
 1149DDP     P1 6890  16.779  19.811  20.525  0.1585  0.0290  0.4088
 1149DDP     P2 6891  17.352  20.241  20.301  0.2407 -0.2990 -0.1181
 1149DDP     C2 6892  17.759  20.045  20.055  0.2289 -0.2655  0.1250
 1149DDP     C3 6893  17.003  19.426  20.304  0.0252 -0.3732  0.0632
 1149DDP     C4 6894  16.918  20.379  21.024  0.2275  0.1639  0.2529
 1150DDP     C1 6895  22.454   0.591  29.441 -0.1579  0.0649  0.1151
 1150DDP     P1 6896  22.806   0.382  29.331 -0.2201 -0.0689 -0.1721
 1150DDP     P2 6897  22.545   1.080  29.361  0.1684  0.0102  0.2246
 1150DDP     C2 6898  22.463   1.449  29.250  0.1063  0.1135  0.2374
 1150DDP     C3 6899  23.156   0.124  29.284  0.1677  0.0457  0.1822
 1150DDP     C4 6900  22.185   0.342  29.729 -0.1130 -0.1262 -0.1758
 1151DDP     C1 6901  29.574   8.432  18.519 -0.0457  0.1969 -0.2624
 1151DDP     P1 6902  29.130   8.552  18.560 -0.1786 -0.0782 -0.3106
 1151DDP     P2 6903  29.646   8.172  18.237  0.3120 -0.0844 -0.1784
 1151DDP     C2 6904  29.399   7.866  18.256  0.0701  0.2472  0.0558
 1151DDP     C3 6905  28.942   8.761  18.890  0.0439  0.4169  0.0176
 1151DDP     C4 6906  29.875   8.685  18.636 -0.1363 -0.0345  0.2222
 1152DDP     C1 6907   3.643  19.155  25.550 -0.0290  0.1527 -0.1219
 1152DDP     P1 6908   3.205  19.151  25.473  0.0543  0.0248 -0.1330
 1152DDP     P2 6909   4.065  19.404  25.635 -0.1825  0.4182 -0.2286
 1152DDP     C2 6910   4.263  19.825  25.595  0.0308  0.0772  0.1134
 1152DDP     C3 6911   3.015  18.823  25.298  0.0335 -0.1516  0.1038
 1152DDP     C4 6912   3.881  18.743  25.455 -0.0225  0.1810 -0.1604
 1153DDP     C1 6913  12.350  20.780  29.180 -0.0832  0.4569  0.0061
 1153DDP     P1 6914  12.731  20.786  29.001 -0.1131 -0.2653 -0.0297
 1153DDP     P2 6915  12.268  21.222  29.230 -0.0888  0.2979  0.1345
 1153DDP     C2 6916  12.220  21.473  29.581  0.2354 -0.1202 -0.0659
 1153DDP     C3 6917  13.063  20.985  28.760 -0.0155 -0.0813 -0.1841
 1153DDP     C4 6918  12.068  20.499  29.262 -0.3728  0.1577 -0.0516
 1154DDP     C1 6919  15.117   9.003  14.450  0.0645  0.1468  0.0152
 1154DDP     P1 6920  15.279   8.704  14.454  0.0119  0.0645  0.0469
 1154DDP     P2 6921  15.006   9.309  14.174 -0.1932 -0.0720  0.0023
 1154DDP     C2 6922  15.067   9.774  14.319 -0.2096  0.1562  0.0280
 1154DDP     C3 6923  15.009   8.394  14.439  0.0725 -0.0675 -0.0475
 1154DDP     C4 6924  15.034   9.084  14.897 -0.0463 -0.0190 -0.2285
 1155DDP     C1 6925   2.372  25.659  12.925  0.1856  0.5083 -0.0005
 1155DDP     P1 6926   2.413  26.048  12.818 -0.2506 -0.1220  0.1005
 1155DDP     P2 6927   2.125  25.584  13.134 -0.1182 -0.1065 -0.2565
 1155DDP     C2 6928   2.081  25.375  13.581  0.0536  0.1178  0.0030
 1155DDP     C3 6929   2.305  26.480  12.644  0.0670 -0.3490  0.1030
 1155DDP     C4 6930   2.866  25.503  13.041 -0.0653 -0.1328  0.1343
 1156DDP     C1 6931  20.212   0.835   8.379  0.0494 -0.0033 -0.1070
 1156DDP     P1 6932  19.996   1.121   8.103 -0.0934 -0.3367 -0.0185
 1156DDP     P2 6933  19.956   0.685   8.604  0.2092 -0.1738  0.1737
 1156DDP     C2 6934  19.662   0.854   8.965 -0.1330  0.0361  0.1260
 1156DDP     C3 6935  19.598   1.257   7.998 -0.1059  0.1079 -0.0908
 1156DDP     C4 6936  20.620   1.015   8.427  0.0607  0.0870 -0.0138
 1157DDP     C1 6937  10.748  28.203  27.427 -0.0393 -0.4845 -0.1342
 1157DDP     P1 6938  11.155  28.227  27.560 -0.2199 -0.0280  0.2154
 1157DDP     P2 6939  10.608  28.388  27.058  0.3427  0.0611 -0.0225
 1157DDP     C2 6940  10.604  28.443  26.625 -0.0316  0.3012  0.2170
 1157DDP     C3 6941  11.351  27.917  27.798  0.1048  0.0452  0.1667
 1157DDP     C4 6942  10.555  28.270  27.817  0.1678  0.3372  0.0287
 1158DDP     C1 6943   0.029  21.400  -0.020 -0.0264  0.0200 -0.3672
 1158DDP     P1 6944   0.362  21.278   0.257 -0.0709  0.1867  0.0512
 1158DDP     P2 6945  29.965  21.349   0.135 -0.0353  0.1369 -0.0561
 1158DDP     C2 6946  29.677  21.253  30.202  0.4369 -0.0452  0.3770
 1158DDP     C3 6947   0.150  21.406   0.641 -0.0877  0.0055  0.1314
 1158DDP     C4 6948   0.113  21.551  29.888  0.0437 -0.0668  0.2106
 1159DDP     C1 6949  23.443  16.578  28.102 -0.1204 -0.1850 -0.2602
 1159DDP     P1 6950  23.013  16.563  28.087  0.0320  0.2685 -0.2233
 1159DDP     P2 6951  23.629  16.206  28.316  0.1991  0.1710 -0.1727
 1159DDP     C2 6952  23.543  16.021  28.663 -0.1262  0.3175 -0.0795
 1159DDP     C3 6953  22.783  16.192  27.907 -0.1089 -0.0642  0.1480
 1159DDP     C4 6954  23.658  16.980  28.169  0.0417  0.1347  0.1626
 1160DDP     C1 6955  27.852  24.322  28.538  0.1800  0.0251  0.1081
 1160DDP     P1 6956  28.102  24.320  28.947  0.1109 -0.1497 -0.1078
 1160DDP     P2 6957  28.125  23.958  28.507 -0.2314  0.0755 -0.0569
 1160DDP     C2 6958  28.503  23.694  28.543  0.2626  0.1599 -0.0778
 1160DDP     C3 6959  28.410  24.659  28.887  0.0635  0.1036 -0.1439
 1160DDP     C4 6960  27.413  24.328  28.521 -0.0751  0.1024  0.0139
 1161DDP     C1 6961   5.452  27.018  22.371 -0.0106 -0.3528  0.1327
 1161DDP     P1 6962   5.858  26.813  22.447 -0.2431  0.0533  0.0086
 1161DDP     P2 6963   5.300  27.120  21.867  0.2857 -0.1720  0.0916
 1161DDP     C2 6964   5.531  26.994  21.449  0.0545 -0.1401 -0.1390
 1161DDP     C3 6965   6.056  26.572  22.837  0.0786 -0.2344 -0.1922
 1161DDP     C4 6966   5.311  27.313  22.738  0.1484 -0.2533 -0.0458
 1162DDP     C1 6967  14.802  23.131  13.445  0.1482  0.2778  0.0048
 1162DDP     P1 6968  15.002  23.327  13.749  0.0422 -0.1422 -0.1135
 1162DDP     P2 6969  14.557  23.216  13.109 -0.3467  0.0709  0.1114
 1162DDP     C2 6970  14.164  23.254  12.973  0.0757  0.1411  0.3191
 1162DDP     C3 6971  14.972  23.261  14.100 -0.2273  0.3378  0.2416
 1162DDP     C4 6972  14.567  22.839  13.723  0.2672 -0.1412  0.0899
 1163DDP     C1 6973  20.093  19.086   5.116 -0.0224 -0.5464  0.0228
 1163DDP     P1 6974  19.885  18.882   5.498  0.2288 -0.0483  0.0375
 1163DDP     P2 6975  19.757  19.522   5.066 -0.1661  0.1232  0.2401
 1163DDP     C2 6976  19.970  19.964   5.237 -0.1078  0.2554 -0.0155
 1163DDP     C3 6977  19.701  18.928   5.865  0.3056  0.0385 -0.3840
 1163DDP     C4 6978  20.216  18.784   4.884 -0.0967 -0.3228 -0.1370
 1164DDP     C1 6979   3.221  12.916  13.440  0.1555  0.1709  0.2372
 1164DDP     P1 6980   3.045  12.483  13.570  0.3194 -0.0205 -0.2924
 1164DDP     P2 6981   3.562  12.832  13.187 -0.2074  0.2841  0.1063
 1164DDP     C2 6982   4.057  12.820  13.154 -0.2265 -0.0847  0.3021
 1164DDP     C3 6983   3.206  12.253  14.078  0.0678 -0.2120  0.0736
 1164DDP     C4 6984   3.187  13.377  13.562 -0.0750  0.1262 -0.0117
 1165DDP     C1 6985  17.589  25.351  22.770  0.0872  0.0530 -0.3090
 1165DDP     P1 6986  17.561  25.041  23.268  0.2216 -0.2656 -0.2942
 1165DDP     P2 6987  17.605  25.713  22.817 -0.0920 -0.1023 -0.1604
 1165DDP     C2 6988  17.207  25.994  22.849 -0.0532  0.1038  0.2878
 1165DDP     C3 6989  17.615  25.064  23.689  0.3950 -0.1661  0.2367
 1165DDP     C4 6990  17.820  25.184  22.443  0.1146  0.1847  0.2768
 1166DDP     C1 6991   5.150  10.034  14.861 -0.0351 -0.1759 -0.2873
 1166DDP     P1 6992   5.229  10.362  14.484 -0.0021 -0.0724 -0.0393
 1166DDP     P2 6993   5.118   9.673  14.602 -0.1107  0.0801  0.1692
 1166DDP     C2 6994   4.920   9.331  14.681 -0.0135 -0.1513  0.1020
 1166DDP     C3 6995   5.224  10.807  14.309  0.1714 -0.1729 -0.0505
 1166DDP     C4 6996   4.959  10.104  15.346  0.0884  0.1513 -0.0326
 1167DDP     C1 6997  29.441  17.609  24.306  0.5236  0.0333  0.1642
 1167DDP     P1 6998  29.687  17.301  24.119 -0.0110 -0.3116  0.2174
 1167DDP     P2 6999  29.073  17.298  24.489  0.2990 -0.0774  0.0578
 1167DDP     C2 7000  29.027  16.779  24.408  0.2101 -0.1046 -0.3804
 1167DDP     C3 7001  29.759  17.191  23.692  0.1086  0.0466  0.1366
 1167DDP     C4 7002  29.235  18.084  24.125 -0.0029 -0.0736  0.2196
 1168DDP     C1 7003  12.686  12.091  12.370 -0.4072 -0.0283 -0.1253
 1168DDP     P1 7004  13.066  11.999  12.612 -0.1595 -0.0964 -0.0206
 1168DDP     P2 7005  12.552  11.801  12.133  0.0552 -0.3803 -0.4568
 1168DDP     C2 7006  12.671  11.862  11.763 -0.1110  0.3806 -0.2418
 1168DDP     C3 7007  13.165  12.260  13.086 -0.4127  0.0116  0.1238
 1168DDP     C4 7008  12.455  12.406  12.523 -0.1686  0.3026 -0.0750
 1169DDP     C1 7009   9.482  26.268   3.363 -0.3105  0.2978 -0.0511
 1169DDP     P1 7010   9.391  26.216   3.680  0.2183 -0.0937  0.0361
 1169DDP     P2 7011   9.810  26.412   3.250 -0.1144  0.2726 -0.1080
 1169DDP     C2 7012   9.902  26.819   3.270  0.1377  0.1359  0.2970
 1169DDP     C3 7013   9.305  25.993   4.146  0.0969 -0.1659 -0.1767
 1169DDP     C4 7014   9.194  26.162   3.047  0.0045 -0.0982  0.2350
 1170DDP     C1 7015   8.084  28.764  27.469  0.1108  0.0933 -0.1724
 1170DDP     P1 7016   8.386  28.649  27.269 -0.1120 -0.1499  0.0182
 1170DDP     P2 7017   7.724  28.632  27.326 -0.2043  0.0870 -0.1302
 1170DDP     C2 7018   7.309  28.717  27.326  0.0786 -0.1667 -0.0422
 1170DDP     C3 7019   8.756  28.790  27.444  0.2876  0.4911 -0.1533
 1170DDP     C4 7020   8.003  29.088  27.811  0.0944 -0.1088  0.1132
 1171DDP     C1 7021  27.345   6.720  23.799 -0.0836  0.0795 -0.1231
 1171DDP     P1 7022  27.352   6.953  23.480 -0.1999  0.4179  0.1596
 1171DDP     P2 7023  27.413   6.897  24.231 -0.1935 -0.2643 -0.0871
 1171DDP     C2 7024  27.090   6.938  24.574 -0.0774  0.0417  0.1423
 1171DDP     C3 7025  27.420   7.400  23.456  0.2905  0.1388 -0.0390
 1171DDP     C4 7026  27.296   6.290  23.811 -0.1086  0.0491 -0.0105
 1172DDP     C1 7027   8.725   3.040   2.095  0.2988 -0.1403  0.0426
 1172DDP     P1 7028   9.025   3.032   2.514 -0.0404 -0.0512 -0.0642
 1172DDP     P2 7029   8.842   3.487   1.788 -0.1624  0.0006 -0.1078
 1172DDP     C2 7030   9.332   3.649   1.711  0.0715 -0.1676  0.1248
 1172DDP     C3 7031   9.322   2.784   2.788 -0.1737  0.3332 -0.0933
 1172DDP     C4 7032   8.764   2.658   1.740 -0.2886 -0.1557 -0.1970
 1173DDP     C1 7033  17.516  12.204  23.255 -0.2654  0.1727 -0.0795
 1173DDP     P1 7034  17.872  12.421  23.164  0.1194 -0.0397  0.0572
 1173DDP     P2 7035  17.575  11.891  23.509 -0.2272  0.2013  0.1553
 1173DDP     C2 7036  17.510  11.537  23.626  0.2389  0.3545 -0.1449
 1173DDP     C3 7037  18.230  12.690  23.000  0.3543  0.0703 -0.1917
 1173DDP     C4 7038  17.110  12.450  23.071  0.0069  0.1313 -0.1475
 1174DDP     C1 7039   0.782  15.643  10.613 -0.4494  0.1144  0.0281
 1174DDP     P1 7040   0.799  15.323  10.580 -0.1641 -0.0265  0.1818
 1174DDP     P2 7041   1.090  15.668  10.335  0.1503  0.1199 -0.1196
 1174DDP     C2 7042   1.536  15.525  10.312 -0.0806  0.0653 -0.1891
 1174DDP     C3 7043   0.807  15.085  10.973 -0.1186  0.2996  0.0216
 1174DDP     C4 7044   0.702  15.880  10.924  0.1384  0.2650  0.2068
 1175DDP     C1 7045  10.443  20.538  24.748  0.2521  0.0766  0.0927
 1175DDP     P1 7046  10.660  20.145  24.862  0.1484  0.2462 -0.0251
 1175DDP     P2 7047  10.223  20.601  25.134 -0.1342 -0.1369 -0.1840
 1175DDP     C2 7048   9.842  20.823  25.279 -0.0633  0.0513 -0.2129
 1175DDP     C3 7049  10.963  20.057  25.168 -0.2084  0.0394 -0.1168
 1175DDP     C4 7050  10.440  20.927  24.366 -0.2592 -0.1033 -0.2922
 1176DDP     C1 7051  25.591  11.232  12.304  0.0884 -0.0631 -0.2512
 1176DDP     P1 7052  25.376  10.970  12.503 -0.0087  0.0577  0.2421
 1176DDP     P2 7053  25.724  11.536  12.587  0.3206  0.1260  0.1610
 1176DDP     C2 7054  25.601  11.958  12.665 -0.0325  0.1439 -0.0224
 1176DDP     C3 7055  25.270  10.610  12.757  0.1800 -0.1671  0.2893
 1176DDP     C4 7056  25.815  11.103  11.950 -0.3869  0.1710 -0.0498
 1177DDP     C1 7057  22.595  16.962  16.475 -0.1762 -0.3250  0.1337
 1177DDP     P1 7058  22.331  17.087  16.098  0.2066 -0.1313  0.1881
 1177DDP     P2 7059  22.353  17.048  16.901  0.0840  0.0232  0.3948
 1177DDP     C2 7060  21.945  17.175  17.043 -0.3547 -0.0977  0.1539
 1177DDP     C3 7061  22.280  17.369  15.644 -0.0652 -0.2452  0.0071
 1177DDP     C4 7062  22.920  16.712  16.537  0.1676  0.2843  0.1101
 1178DDP     C1 7063  21.242   1.754  18.703  0.0190  0.1254  0.3838
 1178DDP     P1 7064  20.950   1.903  18.927 -0.3241 -0.1036  0.0554
 1178DDP     P2 7065  21.218   2.002  18.324 -0.1119  0.0203  0.0376
 1178DDP     C2 7066  21.382   2.123  17.959 -0.0307 -0.2266  0.0335
 1178DDP     C3 7067  20.670   2.176  19.049 -0.0453 -0.0141  0.0469
 1178DDP     C4 7068  21.232   1.384  18.695  0.1334  0.1950  0.0813
 1179DDP     C1 7069  13.067  14.663   0.873  0.3036 -0.0089 -0.1808
 1179DDP     P1 7070  13.228  14.281   0.992 -0.3269 -0.1543 -0.1148
 1179DDP     P2 7071  12.981  14.743   0.359 -0.1033  0.2299 -0.2067
 1179DDP     C2 7072  12.863  14.748  30.236 -0.0432 -0.1754 -0.0927
 1179DDP     C3 7073  13.588  14.042   1.079 -0.0057  0.1462  0.4265
 1179DDP     C4 7074  12.987  15.019   1.041 -0.1529  0.2024  0.0084
 1180DDP     C1 7075   7.528  20.709  28.929  0.2336 -0.0573  0.1759
 1180DDP     P1 7076   7.539  20.341  29.231 -0.2137  0.1366 -0.0947
 1180DDP     P2 7077   7.778  21.054  29.128 -0.2637 -0.0432  0.2183
 1180DDP     C2 7078   8.276  21.010  29.377 -0.1256  0.2428  0.1546
 1180DDP     C3 7079   7.632  20.228  29.577  0.3155 -0.0428  0.0164
 1180DDP     C4 7080   7.608  20.684  28.480 -0.0758  0.2059 -0.2153
 1181DDP     C1 7081   7.239  24.914   1.494 -0.0451  0.2586 -0.0093
 1181DDP     P1 7082   7.377  25.252   1.502  0.0564  0.3091 -0.1293
 1181DDP     P2 7083   7.349  24.567   1.714  0.4273 -0.0374 -0.2697
 1181DDP     C2 7084   7.097  24.123   1.714  0.1097 -0.0350 -0.0585
 1181DDP     C3 7085   7.412  25.666   1.499  0.0111  0.1276  0.1110
 1181DDP     C4 7086   6.916  24.568   1.259 -0.0515  0.0445 -0.1786
 1182DDP     C1 7087  20.974  21.447   8.820 -0.0868  0.2768  0.0018
 1182DDP     P1 7088  20.685  21.145   8.922 -0.2073  0.3868 -0.4203
 1182DDP     P2 7089  20.972  21.837   8.548 -0.1827 -0.1205 -0.0972
 1182DDP     C2 7090  20.937  22.265   8.343 -0.0987 -0.1487 -0.1714
 1182DDP     C3 7091  20.509  20.754   8.755 -0.2888 -0.0357 -0.0252
 1182DDP     C4 7092  21.411  21.504   9.016 -0.1187  0.1746 -0.0993
 1183DDP     C1 7093  21.503  12.692  30.072  0.3332 -0.2184 -0.0169
 1183DDP     P1 7094  21.380  12.593   0.101  0.1155 -0.2810  0.0892
 1183DDP     P2 7095  21.312  12.606  29.668 -0.0675 -0.2826 -0.3565
 1183DDP     C2 7096  21.016  12.860  29.515 -0.0401  0.1111 -0.1024
 1183DDP     C3 7097  21.038  12.364   0.356  0.1078  0.0996 -0.1610
 1183DDP     C4 7098  21.878  12.955  29.986 -0.0686  0.0226  0.3157
 1184DDP     C1 7099  12.928  22.859  30.313  0.0117 -0.3052  0.1952
 1184DDP     P1 7100  13.327  22.841   0.334  0.2130  0.0621  0.1860
 1184DDP     P2 7101  12.645  23.255  30.153  0.0987 -0.2838  0.1262
 1184DDP     C2 7102  12.268  23.579  29.906 -0.2050 -0.0466 -0.2911
 1184DDP     C3 7103  13.787  22.747   0.235 -0.0724 -0.2750  0.0159
 1184DDP     C4 7104  13.050  22.516  29.955  0.0489  0.0065 -0.0991
 1185DDP     C1 7105  25.076   9.854  18.047  0.1213 -0.0573  0.1027
 1185DDP     P1 7106  24.700  10.021  18.145 -0.0484 -0.2224 -0.0176
 1185DDP     P2 7107  25.170   9.876  17.656 -0.0328 -0.0075  0.1518
 1185DDP     C2 7108  25.292  10.039  17.213  0.0678  0.0755  0.1277
 1185DDP     C3 7109  24.306  10.122  18.181 -0.0076  0.0625 -0.1409
 1185DDP     C4 7110  25.132   9.921  18.517 -0.1090  0.2492  0.0088
 1186DDP     C1 7111  29.809  23.013   9.402  0.2429 -0.1879 -0.0494
 1186DDP     P1 7112  29.820  23.532   9.396 -0.0310  0.3382  0.2438
 1186DDP     P2 7113  30.215  22.819   9.456 -0.3464 -0.1357 -0.0174
 1186DDP     C2 7114   0.017  22.396   9.303 -0.2233  0.0056  0.0285
 1186DDP     C3 7115  29.592  23.924   9.389 -0.0880 -0.0739 -0.0203
 1186DDP     C4 7116  29.476  23.023   9.167 -0.1656  0.1337 -0.0729
 1187DDP     C1 7117   8.293   4.426  21.155  0.1478  0.0779  0.1237
 1187DDP     P1 7118   8.250   4.212  21.484  0.2039  0.1328 -0.0024
 1187DDP     P2 7119   8.375   4.907  21.189 -0.2614  0.2707  0.1016
 1187DDP     C2 7120   8.487   5.155  21.420  0.1576  0.1243 -0.2037
 1187DDP     C3 7121   8.392   3.823  21.569  0.1421 -0.0961 -0.0458
 1187DDP     C4 7122   8.219   4.162  20.789  0.1218 -0.2667  0.1465
 1188DDP     C1 7123  17.460  25.213  11.697 -0.0624 -0.1530  0.1246
 1188DDP     P1 7124  17.637  25.350  11.280  0.1871  0.1927 -0.0793
 1188DDP     P2 7125  17.384  24.722  11.816 -0.0579  0.0651  0.0846
 1188DDP     C2 7126  17.588  24.473  12.126  0.1571  0.1849  0.4152
 1188DDP     C3 7127  17.668  25.527  10.980  0.1459  0.0030 -0.0646
 1188DDP     C4 7128  17.116  25.560  11.827  0.1231  0.2789  0.0655
 1189DDP     C1 7129  13.757  28.831  15.140 -0.4679  0.1366  0.0281
 1189DDP     P1 7130  13.870  28.462  14.967  0.1715 -0.1653 -0.2302
 1189DDP     P2 7131  13.370  29.011  15.183 -0.0946 -0.1433 -0.3471
 1189DDP     C2 7132  13.057  29.327  15.234 -0.1671 -0.1738 -0.0183
 1189DDP     C3 7133  13.967  28.080  15.050 -0.0363 -0.1431 -0.0185
 1189DDP     C4 7134  14.148  28.992  15.278 -0.0608  0.4138  0.1612
 1190DDP     C1 7135  20.709  29.635   9.071 -0.0294 -0.0703 -0.1321
 1190DDP     P1 7136  20.285  29.602   9.202 -0.0751 -0.2893 -0.4159
 1190DDP     P2 7137  20.919  29.969   8.951 -0.1804 -0.1939 -0.0163
 1190DDP     C2 7138  21.369  30.089   9.051 -0.3564  0.1175  0.1243
 1190DDP     C3 7139  19.902  29.445   9.182  0.3310  0.1450 -0.1202
 1190DDP     C4 7140  20.858  29.209   9.177  0.1505 -0.0083  0.1137
 1191DDP     C1 7141   1.108   1.443  24.419 -0.2928  0.0738  0.2544
 1191DDP     P1 7142   0.878   1.130  24.209 -0.0208  0.0406 -0.0362
 1191DDP     P2 7143   1.015   1.881  24.328  0.2372 -0.3359  0.1057
 1191DDP     C2 7144   1.210   2.221  24.137 -0.1000  0.2725 -0.1364
 1191DDP     C3 7145   0.651   0.674  24.137 -0.0159 -0.0354 -0.1101
 1191DDP     C4 7146   1.512   1.331  24.703  0.1388 -0.0087  0.0981
 1192DDP     C1 7147   0.051  26.893   7.158 -0.1777  0.0160 -0.0964
 1192DDP     P1 7148   0.185  27.090   7.590 -0.3123 -0.1253  0.0208
 1192DDP     P2 7149   0.358  26.935   6.822  0.3605 -0.0652 -0.3641
 1192DDP     C2 7150   0.433  26.547   6.632  0.1151 -0.1948  0.2002
 1192DDP     C3 7151   0.273  27.471   7.806  0.1825 -0.0711 -0.0535
 1192DDP     C4 7152  29.932  26.918   7.116 -0.1329  0.1009 -0.0917
 1193DDP     C1 7153   9.803  13.559   0.712  0.2678  0.1298 -0.1147
 1193DDP     P1 7154   9.600  13.277   0.939 -0.1576 -0.0419  0.0755
 1193DDP     P2 7155  10.230  13.446   0.856 -0.5181  0.1819  0.1013
 1193DDP     C2 7156  10.541  13.203   0.859  0.0786  0.1735 -0.0991
 1193DDP     C3 7157   9.281  13.173   1.045  0.3013 -0.0124  0.0732
 1193DDP     C4 7158   9.765  13.888   0.379 -0.0490 -0.2512 -0.2829
 1194DDP     C1 7159   6.233  11.336   6.575  0.1443  0.0369  0.0590
 1194DDP     P1 7160   6.333  11.055   6.265  0.2801  0.0326 -0.0178
 1194DDP     P2 7161   6.497  11.668   6.370  0.1894  0.0148 -0.1748
 1194DDP     C2 7162   6.657  12.056   6.242 -0.0095 -0.1474 -0.4263
 1194DDP     C3 7163   6.523  10.693   6.241  0.0855 -0.0798  0.2532
 1194DDP     C4 7164   6.096  11.245   7.074  0.1601  0.2632  0.1429
 1195DDP     C1 7165  11.201   0.114   4.694  0.0871  0.1531 -0.0235
 1195DDP     P1 7166  10.909  30.104   4.997  0.0098 -0.1825  0.1820
 1195DDP     P2 7167  11.596  30.230   4.940  0.0529 -0.2478  0.2402
 1195DDP     C2 7168  12.010  30.113   5.050  0.2245  0.0072 -0.1162
 1195DDP     C3 7169  10.620  29.789   5.155 -0.3201 -0.1016 -0.1089
 1195DDP     C4 7170  11.141   0.483   4.355 -0.0667 -0.1265 -0.1992
 1196DDP     C1 7171   6.879  21.070  10.550 -0.0371  0.0644 -0.3205
 1196DDP     P1 7172   6.482  21.213  10.534 -0.0147 -0.0851  0.1028
 1196DDP     P2 7173   7.113  20.872  10.920  0.0807 -0.2337 -0.0945
 1196DDP     C2 7174   7.313  20.604  11.291  0.3758 -0.3223 -0.2539
 1196DDP     C3 7175   6.041  21.077  10.701  0.0851 -0.2959  0.0719
 1196DDP     C4 7176   7.081  20.960  10.144 -0.0594  0.0946  0.0529
 1197DDP     C1 7177  26.103   3.488  24.602  0.2488 -0.0151 -0.1777
 1197DDP     P1 7178  26.561   3.230  24.684  0.1019  0.0359  0.2559
 1197DDP     P2 7179  26.145   3.905  24.731 -0.0265  0.1759  0.0215
 1197DDP     C2 7180  26.199   4.151  25.033 -0.0331 -0.1609  0.2366
 1197DDP     C3 7181  26.762   2.881  24.489  0.0449  0.6084  0.1885
 1197DDP     C4 7182  25.647   3.260  24.533 -0.1683  0.0159 -0.0692
 1198DDP     C1 7183  22.929   0.526  23.714 -0.0078  0.1139  0.0512
 1198DDP     P1 7184  22.747   0.186  23.868 -0.0570 -0.1368 -0.0637
 1198DDP     P2 7185  22.747   0.886  23.796 -0.1855  0.0234 -0.0938
 1198DDP     C2 7186  22.905   1.042  24.210  0.1694 -0.0563  0.0742
 1198DDP     C3 7187  22.373  30.201  24.033  0.1856 -0.2449 -0.0267
 1198DDP     C4 7188  23.346   0.580  23.524  0.2944 -0.0477 -0.0503
 1199DDP     C1 7189   7.560  17.348   6.094 -0.3274 -0.3999 -0.2008
 1199DDP     P1 7190   7.637  17.660   6.396  0.0522 -0.3477 -0.1752
 1199DDP     P2 7191   7.867  17.136   5.732  0.0527  0.0955 -0.1988
 1199DDP     C2 7192   7.812  17.101   5.331  0.0227  0.1988 -0.1076
 1199DDP     C3 7193   7.766  17.743   6.793 -0.0042 -0.3542  0.1692
 1199DDP     C4 7194   7.101  17.125   6.168 -0.1128  0.1547 -0.0683
 1200DDP     C1 7195   7.442  23.021  15.180 -0.2779 -0.0922 -0.0870
 1200DDP     P1 7196   7.352  23.347  15.396  0.2395  0.1022 -0.1887
 1200DDP     P2 7197   7.592  22.999  14.776  0.0534  0.1213 -0.0767
 1200DDP     C2 7198   7.757  23.370  14.549  0.2842  0.0986  0.4578
 1200DDP     C3 7199   7.407  23.772  15.341 -0.1221 -0.2198 -0.1989
 1200DDP     C4 7200   7.240  22.516  15.180 -0.3505 -0.0268  0.2353
 1201DDP     C1 7201   6.120   1.955  14.472  0.3540  0.0744  0.0926
 1201DDP     P1 7202   6.160   1.538  14.547 -0.2775 -0.1633  0.2277
 1201DDP     P2 7203   6.036   2.020  14.050 -0.0802  0.1299 -0.0064
 1201DDP     C2 7204   6.262   2.264  13.780  0.0656  0.3503 -0.3169
 1201DDP     C3 7205   6.181   1.167  14.407 -0.0219  0.1474 -0.1236
 1201DDP     C4 7206   6.013   2.277  14.768 -0.0832  0.2094  0.1274
 1202DDP     C1 7207  10.658  18.208  29.957 -0.0078 -0.0572 -0.0053
 1202DDP     P1 7208  10.508  18.687  30.032  0.2038 -0.0218  0.0242
 1202DDP     P2 7209  10.556  18.025  30.355 -0.1972  0.2604  0.3378
 1202DDP     C2 7210  10.481  17.578   0.151  0.2351  0.0290 -0.1171
 1202DDP     C3 7211  10.175  18.911  29.683 -0.3055  0.1232  0.4159
 1202DDP     C4 7212  10.587  18.003  29.530  0.0280  0.0749  0.3869
 1203DDP     C1 7213  19.657  22.812  24.526  0.2940 -0.0449 -0.3101
 1203DDP     P1 7214  19.714  22.724  24.224 -0.0824 -0.2009  0.0221
 1203DDP     P2 7215  19.254  22.720  24.484 -0.0372  0.1534  0.0747
 1203DDP     C2 7216  19.008  22.624  24.844 -0.0904  0.2036 -0.0152
 1203DDP     C3 7217  19.491  22.617  23.901 -0.1986 -0.0707  0.1713
 1203DDP     C4 7218  19.875  23.110  24.825 -0.3108 -0.0159  0.1557
 1204DDP     C1 7219   7.320  28.783  16.007  0.2820 -0.0352 -0.2846
 1204DDP     P1 7220   6.952  28.474  15.875  0.1776  0.0396  0.0000
 1204DDP     P2 7221   7.325  29.173  15.992  0.0095 -0.1289 -0.0223
 1204DDP     C2 7222   7.178  29.655  16.057  0.2086  0.0349  0.2394
 1204DDP     C3 7223   6.662  28.109  15.793 -0.0853  0.0759 -0.2549
 1204DDP     C4 7224   7.663  28.718  16.178  0.1535 -0.3268 -0.5549
 1205DDP     C1 7225  22.479  17.698  14.082  0.0829  0.0172  0.1386
 1205DDP     P1 7226  22.570  17.847  14.535  0.0725  0.3039  0.1081
 1205DDP     P2 7227  22.461  17.958  13.784  0.0831  0.0886  0.1615
 1205DDP     C2 7228  22.374  18.246  13.475  0.0861  0.3086 -0.0279
 1205DDP     C3 7229  22.637  17.635  14.962 -0.0068 -0.2255 -0.0030
 1205DDP     C4 7230  22.447  17.278  13.984  0.2981  0.0649  0.2034
 1206DDP     C1 7231   1.544  17.837   5.769 -0.1937 -0.2573  0.0583
 1206DDP     P1 7232   1.321  17.721   6.124  0.0732 -0.1148  0.0019
 1206DDP     P2 7233   1.455  18.197   5.543 -0.1355 -0.0893  0.1366
 1206DDP     C2 7234   1.449  18.651   5.418  0.0288  0.1251 -0.0229
 1206DDP     C3 7235   0.967  17.944   6.393  0.0301  0.1482  0.0041
 1206DDP     C4 7236   1.866  17.553   5.619 -0.2365 -0.1519 -0.0097
 1207DDP     C1 7237  15.464   9.303   3.879 -0.0122 -0.1605 -0.1382
 1207DDP     P1 7238  15.254   9.724   3.574 -0.1058  0.2111 -0.0738
 1207DDP     P2 7239  15.389   8.970   3.630  0.1967 -0.0433  0.1020
 1207DDP     C2 7240  15.052   8.709   3.466  0.0932  0.2078  0.2055
 1207DDP     C3 7241  15.014  10.057   3.405  0.0590  0.2440 -0.0437
 1207DDP     C4 7242  15.451   9.276   4.334 -0.0846 -0.0165 -0.0923
 1208DDP     C1 7243  10.655  23.805  26.564  0.0682  0.0445  0.1134
 1208DDP     P1 7244  10.231  23.862  26.519  0.1515  0.3228 -0.1397
 1208DDP     P2 7245  10.799  23.440  26.816  0.2413  0.2362  0.1874
 1208DDP     C2 7246  10.919  23.133  27.147 -0.0233  0.0739  0.0654
 1208DDP     C3 7247   9.847  23.762  26.532 -0.3433  0.2484 -0.2761
 1208DDP     C4 7248  11.050  23.876  26.342 -0.0079 -0.1139  0.1227
 1209DDP     C1 7249   8.113   2.743  29.332  0.2013 -0.4080  0.4219
 1209DDP     P1 7250   7.861   2.619  29.676 -0.0314  0.1163  0.0074
 1209DDP     P2 7251   7.828   2.921  29.008  0.0762  0.0793  0.0604
 1209DDP     C2 7252   7.691   3.236  28.697 -0.2513  0.0366  0.2583
 1209DDP     C3 7253   7.395   2.576  29.995 -0.0300  0.1440 -0.1461
 1209DDP     C4 7254   8.538   2.357  29.232 -0.0625 -0.0661 -0.1698
 1210DDP     C1 7255   2.125  17.553  18.583 -0.1662  0.0062  0.2558
 1210DDP     P1 7256   2.215  17.197  18.710 -0.3618  0.2154  0.0051
 1210DDP     P2 7257   1.759  17.658  18.639 -0.3318 -0.0776  0.0751
 1210DDP     C2 7258   1.522  17.887  19.023 -0.1547  0.2606 -0.1494
 1210DDP     C3 7259   2.202  16.954  19.074 -0.1001  0.0392  0.2776
 1210DDP     C4 7260   2.492  17.686  18.379  0.0491 -0.0176  0.0535
 1211DDP     C1 7261  22.347   3.559   2.046  0.0083  0.0248 -0.5234
 1211DDP     P1 7262  22.152   3.354   2.387  0.5178  0.0614 -0.0070
 1211DDP     P2 7263  22.223   3.678   1.578 -0.1608  0.1688 -0.4916
 1211DDP     C2 7264  22.400   3.770   1.085 -0.0491  0.1000 -0.3227
 1211DDP     C3 7265  22.220   3.069   2.739  0.3555 -0.2670  0.1612
 1211DDP     C4 7266  22.708   3.544   2.064 -0.2725 -0.0314 -0.0230
 1212DDP     C1 7267  24.889  28.999  22.815  0.1778  0.0088  0.0890
 1212DDP     P1 7268  24.627  28.598  22.759 -0.3672 -0.1385  0.0628
 1212DDP     P2 7269  25.346  29.031  22.495 -0.2936  0.0797 -0.0205
 1212DDP     C2 7270  25.721  29.073  22.315 -0.2029  0.0289  0.1096
 1212DDP     C3 7271  24.676  28.303  22.543  0.0282  0.0433 -0.2719
 1212DDP     C4 7272  24.727  29.276  22.844  0.3573 -0.1029  0.1791
 1213DDP     C1 7273  13.913  25.663   4.771  0.3800  0.1332  0.0591
 1213DDP     P1 7274  14.187  25.663   5.092 -0.1576 -0.0586 -0.0251
 1213DDP     P2 7275  13.815  25.936   4.474  0.4942  0.0203 -0.0787
 1213DDP     C2 7276  13.688  25.826   4.000 -0.1948  0.1224 -0.0894
 1213DDP     C3 7277  14.536  25.360   5.183  0.0117  0.2456  0.0061
 1213DDP     C4 7278  13.649  25.361   4.947 -0.1509  0.1902 -0.0002
 1214DDP     C1 7279  28.913   6.441   9.235  0.1569 -0.1149  0.0201
 1214DDP     P1 7280  28.759   6.077   8.997  0.3134  0.0067  0.1587
 1214DDP     P2 7281  28.791   6.527   9.703  0.0235  0.1528  0.1041
 1214DDP     C2 7282  28.447   6.389   9.997 -0.2375  0.1860  0.1408
 1214DDP     C3 7283  28.438   5.889   8.676  0.1624  0.1140 -0.0071
 1214DDP     C4 7284  29.424   6.672   9.081  0.0122  0.2551 -0.1933
 1215DDP     C1 7285   8.396  22.269   0.648  0.0691  0.0430 -0.3343
 1215DDP     P1 7286   8.541  22.018   0.971  0.0369  0.5139 -0.1403
 1215DDP     P2 7287   8.400  22.006   0.332  0.1980  0.2959  0.0511
 1215DDP     C2 7288   8.234  21.876   0.068 -0.1701 -0.0742  0.1029
 1215DDP     C3 7289   8.553  21.663   1.229  0.2853 -0.1672  0.1670
 1215DDP     C4 7290   8.455  22.687   0.459 -0.0686  0.3137  0.0354
 1216DDP     C1 7291  22.965  17.109  27.321 -0.1688  0.1787 -0.3043
 1216DDP     P1 7292  23.365  16.987  27.190  0.2802 -0.0489  0.1958
 1216DDP     P2 7293  22.601  16.960  27.095  0.1895 -0.3159  0.1975
 1216DDP     C2 7294  22.385  16.624  26.776  0.3140  0.0077  0.0146
 1216DDP     C3 7295  23.775  16.798  27.048  0.2577 -0.0345 -0.0351
 1216DDP     C4 7296  23.046  17.370  27.655 -0.0608  0.0636  0.0095
 1217DDP     C1 7297   3.444   5.623  25.676  0.0082  0.1820 -0.1034
 1217DDP     P1 7298   3.534   5.737  25.335 -0.1349  0.0904 -0.0213
 1217DDP     P2 7299   3.646   5.761  26.021 -0.1216  0.2757 -0.0226
 1217DDP     C2 7300   3.524   6.082  26.319 -0.0637 -0.2597  0.2329
 1217DDP     C3 7301   3.525   5.691  24.919  0.1466 -0.0625 -0.0394
 1217DDP     C4 7302   2.963   5.546  25.805  0.2056 -0.2342 -0.1012
 1218DDP     C1 7303  15.415  28.601   2.546 -0.0401 -0.2343 -0.0556
 1218DDP     P1 7304  15.531  28.242   2.507  0.1607  0.0090 -0.1070
 1218DDP     P2 7305  15.009  28.839   2.446 -0.3061 -0.1361  0.0047
 1218DDP     C2 7306  14.582  28.675   2.359 -0.0154 -0.0034  0.0425
 1218DDP     C3 7307  15.619  27.923   2.162 -0.1242  0.1546 -0.0150
 1218DDP     C4 7308  15.600  28.659   2.899  0.2375 -0.0643 -0.0935
 1219DDP     C1 7309  12.772  12.060  24.189 -0.1103 -0.1084 -0.1101
 1219DDP     P1 7310  12.814  11.925  23.705  0.0025 -0.0836 -0.3253
 1219DDP     P2 7311  12.606  12.551  24.212  0.1549  0.0688  0.2537
 1219DDP     C2 7312  12.493  12.981  23.921  0.1063 -0.1356 -0.0111
 1219DDP     C3 7313  12.578  11.712  23.395 -0.2311 -0.2752 -0.0859
 1219DDP     C4 7314  12.998  11.985  24.675  0.3120  0.1189  0.4621
 1220DDP     C1 7315   2.369  16.689  22.260 -0.1527 -0.0358 -0.1288
 1220DDP     P1 7316   2.462  17.054  22.430 -0.0034 -0.1992  0.0419
 1220DDP     P2 7317   2.349  16.175  21.995 -0.4312 -0.4543 -0.1484
 1220DDP     C2 7318   2.286  15.669  21.943 -0.0257 -0.2349  0.2750
 1220DDP     C3 7319   2.474  17.533  22.423 -0.2554  0.0721  0.1031
 1220DDP     C4 7320   1.951  16.623  22.290  0.0416  0.2920 -0.3265
 1221DDP     C1 7321  22.220  22.978  18.807 -0.2159 -0.0978  0.2700
 1221DDP     P1 7322  22.533  22.607  18.861  0.0208 -0.1512  0.0501
 1221DDP     P2 7323  22.367  23.269  19.121 -0.1236  0.2447  0.1140
 1221DDP     C2 7324  22.697  23.312  19.396 -0.0506 -0.0910  0.1810
 1221DDP     C3 7325  22.624  22.444  19.241 -0.0133  0.0888  0.0403
 1221DDP     C4 7326  21.964  22.935  18.443 -0.0879 -0.0022 -0.1587
 1222DDP     C1 7327  25.166   0.959  25.193  0.1016 -0.2870  0.2065
 1222DDP     P1 7328  25.125   1.080  24.833  0.1106 -0.5018 -0.3231
 1222DDP     P2 7329  25.276   0.622  25.483 -0.1196 -0.0536  0.1321
 1222DDP     C2 7330  25.472   0.216  25.782 -0.3336  0.0568 -0.2160
 1222DDP     C3 7331  25.264   1.588  24.792  0.0644  0.2040  0.1367
 1222DDP     C4 7332  24.870   0.990  25.383  0.3768 -0.4182  0.2159
 1223DDP     C1 7333   2.050   3.850   4.457 -0.4700  0.2139 -0.1509
 1223DDP     P1 7334   1.736   3.979   4.589  0.0029 -0.0076  0.2056
 1223DDP     P2 7335   2.399   3.644   4.654  0.3385 -0.3754  0.1729
 1223DDP     C2 7336   2.752   3.432   4.877  0.0678  0.1882  0.0742
 1223DDP     C3 7337   1.404   3.766   4.887 -0.0708 -0.0854  0.0097
 1223DDP     C4 7338   2.068   3.531   4.154 -0.0346  0.0159  0.2880
 1224DDP     C1 7339  28.524   5.495  19.584  0.2039  0.0171 -0.0201
 1224DDP     P1 7340  28.542   4.974  19.577 -0.0176  0.2883 -0.0377
 1224DDP     P2 7341  28.935   5.687  19.560  0.2468 -0.0441 -0.0145
 1224DDP     C2 7342  29.208   5.980  19.395  0.4931 -0.1028  0.2388
 1224DDP     C3 7343  28.399   4.520  19.473 -0.1497 -0.1369 -0.0190
 1224DDP     C4 7344  28.233   5.714  19.885 -0.1184  0.1644  0.1755
 1225DDP     C1 7345   6.555  29.651  28.210  0.2100 -0.0664  0.3659
 1225DDP     P1 7346   6.654  29.669  28.625 -0.0690  0.2931 -0.2183
 1225DDP     P2 7347   6.188  29.320  28.161 -0.3548 -0.1504  0.2471
 1225DDP     C2 7348   6.120  28.942  28.280 -0.4074 -0.3145  0.0280
 1225DDP     C3 7349   6.721  29.693  28.981  0.0313 -0.0390  0.1090
 1225DDP     C4 7350   6.651  29.974  27.925  0.0894 -0.2970 -0.1533
 1226DDP     C1 7351   8.910  22.769   0.070 -0.0787  0.1275 -0.1401
 1226DDP     P1 7352   9.070  23.020  30.087  0.0836  0.0399 -0.1522
 1226DDP     P2 7353   9.100  22.844   0.452 -0.0559  0.0751 -0.1513
 1226DDP     C2 7354   9.382  23.159   0.679 -0.0843 -0.2648 -0.0565
 1226DDP     C3 7355   9.003  23.418  30.028 -0.0564 -0.0959  0.0453
 1226DDP     C4 7356   8.680  22.324   0.076 -0.3032 -0.0689 -0.2880
 1227DDP     C1 7357   4.574  19.209  11.904 -0.0011 -0.1126 -0.1447
 1227DDP     P1 7358   4.257  19.243  12.021 -0.1864  0.1166  0.0634
 1227DDP     P2 7359   4.757  19.179  12.237 -0.2356 -0.1743  0.0392
 1227DDP     C2 7360   5.128  19.149  12.327 -0.3271  0.1093  0.0139
 1227DDP     C3 7361   3.923  19.430  11.774 -0.2326 -0.1691 -0.3387
 1227DDP     C4 7362   4.798  19.039  11.450 -0.0255 -0.1116  0.0547
 1228DDP     C1 7363  28.387  28.470   7.899  0.1476  0.1677  0.1320
 1228DDP     P1 7364  28.197  28.479   8.324  0.0056  0.4120  0.0124
 1228DDP     P2 7365  28.750  28.248   7.961 -0.2295  0.0605  0.0757
 1228DDP     C2 7366  29.111  28.007   7.944  0.0061 -0.3853  0.1853
 1228DDP     C3 7367  28.258  28.718   8.646  0.1080 -0.0085  0.3757
 1228DDP     C4 7368  28.171  28.582   7.451 -0.1845  0.0506  0.3173
 1229DDP     C1 7369   6.122  21.761  27.274 -0.0327 -0.1852  0.0254
 1229DDP     P1 7370   6.204  22.200  27.180 -0.0008  0.0567  0.1176
 1229DDP     P2 7371   5.997  21.862  27.705 -0.0382 -0.4099 -0.1902
 1229DDP     C2 7372   5.847  21.638  27.999 -0.2303  0.1180  0.1060
 1229DDP     C3 7373   5.922  22.582  27.192  0.3241  0.3381  0.2581
 1229DDP     C4 7374   6.243  21.388  27.137 -0.0026 -0.0176 -0.1257
 1230DDP     C1 7375  21.373  24.460  24.771  0.1333 -0.0730  0.2862
 1230DDP     P1 7376  21.404  24.651  25.124  0.2910 -0.0430  0.2414
 1230DDP     P2 7377  21.684  24.147  24.727  0.4843  0.1159 -0.3015
 1230DDP     C2 7378  22.158  24.028  24.647  0.0763  0.0842 -0.1012
 1230DDP     C3 7379  21.417  25.040  25.134  0.1707 -0.1043 -0.2216
 1230DDP     C4 7380  21.009  24.473  24.448  0.0533  0.0095 -0.0145
 1231DDP     C1 7381   4.702  12.088  25.835  0.0826 -0.2098  0.2309
 1231DDP     P1 7382   4.928  12.183  25.557  0.0755 -0.1814  0.0687
 1231DDP     P2 7383   4.466  12.391  25.763 -0.2759  0.1859  0.2351
 1231DDP     C2 7384   4.270  12.461  25.336 -0.0021  0.1788 -0.4058
 1231DDP     C3 7385   4.945  12.295  25.163 -0.2825 -0.1090  0.0644
 1231DDP     C4 7386   4.765  11.693  26.174 -0.0217 -0.0741  0.0565
 1232DDP     C1 7387   8.620  24.429   2.384  0.0571  0.0153  0.0484
 1232DDP     P1 7388   8.968  24.267   2.115 -0.0191  0.0879 -0.1773
 1232DDP     P2 7389   8.327  24.256   2.327  0.0578 -0.2017 -0.1399
 1232DDP     C2 7390   7.945  23.963   2.287 -0.0171  0.0779  0.4070
 1232DDP     C3 7391   9.428  24.481   2.151  0.2473 -0.1936  0.0206
 1232DDP     C4 7392   8.710  24.797   2.574 -0.0444  0.2056 -0.4315
 1233DDP     C1 7393  20.369   5.529   7.050  0.0512 -0.2543 -0.0060
 1233DDP     P1 7394  20.342   5.443   6.635  0.2220 -0.1646 -0.0672
 1233DDP     P2 7395  20.130   5.285   7.310 -0.0883 -0.3164 -0.2046
 1233DDP     C2 7396  19.888   5.243   7.676  0.1401 -0.1580  0.0627
 1233DDP     C3 7397  20.463   5.155   6.354  0.2126 -0.0044  0.1151
 1233DDP     C4 7398  20.637   5.939   7.187 -0.0077  0.1409 -0.0063
 1234DDP     C1 7399  24.267  29.305  13.194 -0.2640  0.2369  0.0533
 1234DDP     P1 7400  23.789  29.375  13.068 -0.1942 -0.2326  0.0050
 1234DDP     P2 7401  24.460  29.702  13.110  0.3017 -0.0346 -0.2128
 1234DDP     C2 7402  24.872  29.713  13.228 -0.0696  0.2471 -0.3555
 1234DDP     C3 7403  23.419  29.530  13.164  0.0372 -0.2687 -0.3213
 1234DDP     C4 7404  24.410  28.938  13.267 -0.0790 -0.1493  0.0043
 1235DDP     C1 7405  19.838  24.878  11.956  0.0438 -0.1519 -0.0979
 1235DDP     P1 7406  19.477  25.073  11.898  0.1575 -0.2760 -0.0853
 1235DDP     P2 7407  20.088  24.781  11.550  0.0712  0.0014 -0.0656
 1235DDP     C2 7408  20.201  25.061  11.219  0.2101  0.0114  0.0762
 1235DDP     C3 7409  19.000  24.945  11.898  0.1664 -0.2932 -0.0557
 1235DDP     C4 7410  20.008  24.801  12.399  0.0813  0.0990  0.0400
 1236DDP     C1 7411   9.890  24.208  24.795 -0.3061  0.0457  0.1616
 1236DDP     P1 7412  10.255  24.495  24.693  0.0285 -0.0543 -0.3048
 1236DDP     P2 7413   9.676  24.185  24.386 -0.0910 -0.2183  0.0840
 1236DDP     C2 7414   9.311  24.307  24.338 -0.1973  0.1063 -0.2226
 1236DDP     C3 7415  10.495  24.784  24.737  0.1156 -0.0095 -0.2102
 1236DDP     C4 7416   9.690  24.064  25.147  0.2601  0.0208  0.0807
 1237DDP     C1 7417  25.061  22.909  28.712 -0.0953  0.4108 -0.1637
 1237DDP     P1 7418  24.617  22.897  28.689  0.2697  0.0468  0.0100
 1237DDP     P2 7419  25.287  22.806  28.331 -0.1672  0.3967  0.2604
 1237DDP     C2 7420  25.075  22.765  27.875 -0.0021 -0.2696 -0.0297
 1237DDP     C3 7421  24.381  22.594  28.620  0.0262 -0.0247 -0.0271
 1237DDP     C4 7422  25.130  22.841  29.219  0.1836  0.0179  0.0505
 1238DDP     C1 7423   1.410   2.550   0.369 -0.3066  0.0046  0.1154
 1238DDP     P1 7424   1.620   2.586   0.715 -0.0055  0.2248 -0.2556
 1238DDP     P2 7425   1.523   2.739  30.308 -0.0376  0.0641  0.2119
 1238DDP     C2 7426   1.849   2.725  30.004  0.0756  0.2734 -0.3783
 1238DDP     C3 7427   1.795   2.983   0.959 -0.4254 -0.3992  0.2014
 1238DDP     C4 7428   0.996   2.496   0.460 -0.1328  0.2342 -0.4142
 1239DDP     C1 7429  18.290   9.989  12.945  0.0799 -0.1196 -0.2102
 1239DDP     P1 7430  18.393  10.425  12.972 -0.0042  0.1270  0.0068
 1239DDP     P2 7431  18.495   9.888  12.530  0.2218 -0.0094  0.1166
 1239DDP     C2 7432  18.600   9.909  12.142  0.1547 -0.0227 -0.1186
 1239DDP     C3 7433  18.141  10.779  13.135  0.1328 -0.1639 -0.1710
 1239DDP     C4 7434  17.949   9.683  13.242  0.1827 -0.1685  0.2074
 1240DDP     C1 7435  22.704  21.625   7.282 -0.2729  0.1582  0.0202
 1240DDP     P1 7436  23.084  21.541   7.498  0.1410  0.2085 -0.0502
 1240DDP     P2 7437  22.774  21.387   6.998  0.1691 -0.0289 -0.0911
 1240DDP     C2 7438  22.927  21.021   6.795  0.0630  0.0588  0.1296
 1240DDP     C3 7439  23.503  21.465   7.599  0.1425 -0.0832 -0.1721
 1240DDP     C4 7440  22.643  22.107   7.146 -0.0486  0.0806 -0.3081
 1241DDP     C1 7441  17.098  26.502   0.177  0.0025 -0.0113  0.0331
 1241DDP     P1 7442  16.907  26.057   0.078  0.0010 -0.1693  0.2039
 1241DDP     P2 7443  16.934  26.906   0.392 -0.0892 -0.1122  0.1485
 1241DDP     C2 7444  16.840  27.272   0.579  0.0986  0.2340  0.0543
 1241DDP     C3 7445  16.983  25.746   0.384  0.4808 -0.1471  0.1676
 1241DDP     C4 7446  17.460  26.347  30.243  0.2553  0.0321 -0.1972
 1242DDP     C1 7447   5.162  26.006  15.194 -0.0891 -0.0322 -0.1660
 1242DDP     P1 7448   5.411  26.401  15.288  0.3512  0.0976 -0.2582
 1242DDP     P2 7449   5.138  25.512  15.297 -0.1835 -0.1254  0.3074
 1242DDP     C2 7450   4.901  25.131  15.433 -0.3743  0.3092 -0.1527
 1242DDP     C3 7451   5.466  26.660  15.642  0.1595 -0.0910 -0.0273
 1242DDP     C4 7452   5.172  26.099  14.699  0.0289  0.1646 -0.0221
 1243DDP     C1 7453  28.833   3.953  21.327 -0.1158  0.1243  0.0754
 1243DDP     P1 7454  28.864   4.320  21.059  0.0319 -0.1534  0.1299
 1243DDP     P2 7455  28.496   3.509  21.241 -0.2494  0.3114 -0.0201
 1243DDP     C2 7456  28.432   3.114  21.408  0.1318 -0.1802  0.1549
 1243DDP     C3 7457  29.275   4.470  20.851  0.1044 -0.0416  0.1071
 1243DDP     C4 7458  29.096   4.012  21.701 -0.0594 -0.1663  0.2042
 1244DDP     C1 7459  14.776  28.554  26.500  0.0349 -0.2078 -0.1038
 1244DDP     P1 7460  14.740  28.568  26.919 -0.0894  0.0399  0.0408
 1244DDP     P2 7461  14.577  28.837  26.234 -0.1104 -0.1567  0.1523
 1244DDP     C2 7462  14.100  29.107  26.226 -0.0382  0.0303 -0.0695
 1244DDP     C3 7463  14.470  28.379  27.275 -0.3391 -0.1017  0.4042
 1244DDP     C4 7464  14.885  28.176  26.279  0.1184 -0.0873 -0.1256
 1245DDP     C1 7465  17.316  17.113   5.239  0.2076  0.3513 -0.3075
 1245DDP     P1 7466  17.692  17.395   5.186 -0.0499 -0.0269 -0.1729
 1245DDP     P2 7467  17.102  16.894   5.594  0.2761 -0.0089 -0.0230
 1245DDP     C2 7468  17.349  16.642   5.853  0.3199  0.0320  0.2301
 1245DDP     C3 7469  17.974  17.671   5.074  0.1377 -0.3274  0.2711
 1245DDP     C4 7470  16.926  17.251   4.964  0.2258  0.0982 -0.2172
 1246DDP     C1 7471   2.575  20.132  13.683  0.3257 -0.2336  0.1372
 1246DDP     P1 7472   2.206  20.152  13.690 -0.0434  0.1412 -0.1454
 1246DDP     P2 7473   2.647  20.481  13.812 -0.2048  0.1498 -0.0211
 1246DDP     C2 7474   2.731  20.937  13.529  0.1904 -0.1093 -0.1303
 1246DDP     C3 7475   1.886  19.782  13.725 -0.1540  0.3184  0.4216
 1246DDP     C4 7476   2.832  19.870  13.553 -0.0262  0.1132  0.1669
 1247DDP     C1 7477  11.922  18.622   2.037  0.0553 -0.1513 -0.2021
 1247DDP     P1 7478  12.223  18.946   1.920 -0.1150 -0.0873 -0.0248
 1247DDP     P2 7479  11.542  18.628   1.935 -0.1724 -0.0351 -0.3043
 1247DDP     C2 7480  11.428  18.383   1.509 -0.1339 -0.0109 -0.1456
 1247DDP     C3 7481  12.589  18.940   1.622 -0.1439  0.1188  0.0048
 1247DDP     C4 7482  12.050  18.396   2.476 -0.0667  0.2427  0.0603
 1248DDP     C1 7483  11.796  13.935  21.132 -0.0927  0.0585 -0.2643
 1248DDP     P1 7484  11.744  14.118  21.560 -0.0046 -0.1686  0.2395
 1248DDP     P2 7485  11.584  14.333  20.917  0.1370  0.0786  0.0313
 1248DDP     C2 7486  11.167  14.494  20.926  0.1992  0.0301 -0.1884
 1248DDP     C3 7487  11.567  14.220  21.963  0.2238  0.1185 -0.0057
 1248DDP     C4 7488  11.965  13.512  21.002 -0.1078  0.2280 -0.1843
 1249DDP     C1 7489  22.006  22.119  29.402  0.0097  0.0739 -0.2859
 1249DDP     P1 7490  22.065  22.148  29.803 -0.0324 -0.1760  0.1508
 1249DDP     P2 7491  21.663  22.435  29.326  0.1670  0.3495 -0.0167
 1249DDP     C2 7492  21.406  22.739  29.169 -0.3628 -0.0829  0.0036
 1249DDP     C3 7493  21.729  22.399  30.064  0.0399 -0.0580  0.0691
 1249DDP     C4 7494  22.252  21.807  29.094  0.0922  0.2519  0.0763
 1250DDP     C1 7495  12.829  26.325  25.399 -0.0145 -0.2247  0.2674
 1250DDP     P1 7496  12.967  26.710  25.299 -0.0865  0.0123  0.0718
 1250DDP     P2 7497  13.069  25.853  25.209 -0.1906 -0.3316  0.0733
 1250DDP     C2 7498  13.080  25.418  25.155 -0.1247 -0.5353  0.1800
 1250DDP     C3 7499  12.895  27.086  25.056  0.1482 -0.1755  0.1256
 1250DDP     C4 7500  12.482  26.161  25.630 -0.1378 -0.0254 -0.0857
 1251DDP     C1 7501  23.496  27.111  24.963  0.3544 -0.2845 -0.1954
 1251DDP     P1 7502  23.358  27.472  24.763  0.0023 -0.1175  0.2143
 1251DDP     P2 7503  23.970  27.163  25.016 -0.2093  0.3055 -0.0502
 1251DDP     C2 7504  24.210  27.128  24.567  0.0362 -0.3714  0.2540
 1251DDP     C3 7505  22.918  27.489  24.766  0.0302  0.0814  0.3957
 1251DDP     C4 7506  23.280  26.769  25.185 -0.2147  0.1130  0.0385
 1252DDP     C1 7507   9.654   2.562  24.543  0.2974  0.0811  0.1156
 1252DDP     P1 7508   9.870   2.508  24.889 -0.0202  0.0981 -0.0148
 1252DDP     P2 7509   9.233   2.453  24.739 -0.1931  0.0236  0.3771
 1252DDP     C2 7510   9.013   2.388  25.086 -0.1281 -0.1445 -0.3546
 1252DDP     C3 7511   9.910   2.215  25.212 -0.1613 -0.1905  0.1456
 1252DDP     C4 7512   9.680   2.593  24.089 -0.1764  0.0853 -0.0537
 1253DDP     C1 7513  13.386  27.455  26.645  0.2503  0.2227 -0.0903
 1253DDP     P1 7514  13.321  27.412  26.243 -0.0720 -0.2858 -0.1058
 1253DDP     P2 7515  13.465  27.765  26.805 -0.0755  0.3011 -0.0792
 1253DDP     C2 7516  13.682  27.778  27.095  0.4377 -0.0583  0.1032
 1253DDP     C3 7517  13.519  27.340  25.780  0.0527  0.0231 -0.2545
 1253DDP     C4 7518  13.095  27.228  26.830  0.1921  0.0854 -0.4194
 1254DDP     C1 7519   7.718  23.876  14.993 -0.2581 -0.2987 -0.0732
 1254DDP     P1 7520   7.363  23.536  14.915 -0.2108  0.0281  0.0390
 1254DDP     P2 7521   7.976  23.836  15.392 -0.1054  0.1950 -0.3171
 1254DDP     C2 7522   8.230  23.781  15.717  0.1336 -0.0104 -0.2961
 1254DDP     C3 7523   7.248  23.325  14.441  0.1484  0.4032 -0.1811
 1254DDP     C4 7524   7.772  24.181  14.626  0.2460 -0.1561  0.3337
 1255DDP     C1 7525  19.378  27.800   8.908  0.0957  0.1513 -0.1003
 1255DDP     P1 7526  19.489  27.657   8.444 -0.3554  0.0946  0.1004
 1255DDP     P2 7527  18.994  27.598   8.905 -0.1326  0.0758  0.0591
 1255DDP     C2 7528  18.901  27.287   9.102  0.1597 -0.0399  0.2858
 1255DDP     C3 7529  19.723  27.736   8.052  0.1137 -0.0514  0.0857
 1255DDP     C4 7530  19.675  28.183   9.072  0.1435  0.1880 -0.1759
 1256DDP     C1 7531  24.310   1.400  27.693 -0.0361  0.0830  0.0649
 1256DDP     P1 7532  23.983   1.545  27.365 -0.2512  0.0883 -0.0013
 1256DDP     P2 7533  24.077   1.488  28.023  0.0144 -0.2201 -0.3300
 1256DDP     C2 7534  23.639   1.567  28.157  0.1181 -0.0476  0.0001
 1256DDP     C3 7535  23.565   1.556  27.412  0.1384  0.1384 -0.1742
 1256DDP     C4 7536  24.592   1.015  27.641  0.0722 -0.1205 -0.2368
 1257DDP     C1 7537  27.571  23.837   5.589 -0.1967 -0.3032 -0.1872
 1257DDP     P1 7538  27.183  23.879   5.793  0.1141  0.0971  0.2223
 1257DDP     P2 7539  27.720  24.049   5.290 -0.0217 -0.1401  0.3961
 1257DDP     C2 7540  28.038  24.314   5.103  0.0128 -0.2482 -0.0237
 1257DDP     C3 7541  26.809  24.124   5.774 -0.0577 -0.1363  0.1455
 1257DDP     C4 7542  27.843  23.514   5.861  0.1473 -0.0821 -0.2429
 1258DDP     C1 7543   2.758  16.570  10.132 -0.1263  0.2779  0.0238
 1258DDP     P1 7544   3.159  16.778  10.237 -0.2672  0.4995 -0.1759
 1258DDP     P2 7545   2.633  16.880  10.347 -0.2854 -0.0384 -0.1010
 1258DDP     C2 7546   2.566  16.883  10.864 -0.0429 -0.2453 -0.0373
 1258DDP     C3 7547   3.421  16.968  10.566  0.0773  0.4917  0.1725
 1258DDP     C4 7548   2.565  16.194   9.971  0.2015  0.1098 -0.5673
 1259DDP     C1 7549  16.146  27.824  25.775 -0.0065 -0.2073 -0.0420
 1259DDP     P1 7550  15.857  28.184  25.753 -0.0249 -0.1424 -0.0233
 1259DDP     P2 7551  16.586  27.924  25.894  0.1073 -0.0418 -0.1235
 1259DDP     C2 7552  16.930  28.141  26.132 -0.1358 -0.2082  0.1206
 1259DDP     C3 7553  15.625  28.272  26.108 -0.1839  0.1479  0.1091
 1259DDP     C4 7554  16.132  27.527  25.357 -0.0218 -0.1372 -0.1994
 1260DDP     C1 7555  11.347  27.910   8.049 -0.0999  0.0905  0.1599
 1260DDP     P1 7556  10.922  27.804   7.901  0.2581  0.0154  0.2508
 1260DDP     P2 7557  11.302  28.220   8.373 -0.0881 -0.2860 -0.0622
 1260DDP     C2 7558  11.586  28.359   8.660 -0.2857  0.1275 -0.1252
 1260DDP     C3 7559  10.711  27.333   7.874 -0.2336  0.2319  0.1018
 1260DDP     C4 7560  11.676  27.685   7.903  0.2637 -0.3558 -0.1011
 1261DDP     C1 7561  10.874  28.934  13.888 -0.1010  0.0927  0.0819
 1261DDP     P1 7562  10.507  29.233  13.746 -0.0570  0.1183  0.1083
 1261DDP     P2 7563  10.792  28.717  14.187  0.1993  0.7049 -0.0987
 1261DDP     C2 7564  11.014  28.402  14.454  0.0883 -0.0996  0.1316
 1261DDP     C3 7565  10.483  29.554  13.426  0.1340  0.0443  0.2792
 1261DDP     C4 7566  11.327  29.138  13.743 -0.0549 -0.2858 -0.1660
 1262DDP     C1 7567  24.747  16.287   6.755  0.1173  0.2838 -0.0991
 1262DDP     P1 7568  24.770  16.687   6.757  0.2844  0.0008  0.1728
 1262DDP     P2 7569  24.433  15.946   6.973  0.1578 -0.1725  0.1652
 1262DDP     C2 7570  24.418  15.859   7.387  0.1053 -0.0867  0.2331
 1262DDP     C3 7571  25.212  16.660   6.737 -0.0892 -0.0496  0.0175
 1262DDP     C4 7572  25.248  16.166   6.810 -0.0089 -0.1519 -0.2890
 1263DDP     C1 7573  14.817  20.764   3.738  0.1617 -0.0431  0.2819
 1263DDP     P1 7574  14.913  20.435   3.384 -0.1830 -0.2058  0.3452
 1263DDP     P2 7575  15.166  21.025   3.942  0.2793 -0.3263 -0.1459
 1263DDP     C2 7576  15.579  21.347   3.914 -0.3286  0.0122  0.0417
 1263DDP     C3 7577  14.784  20.423   2.942  0.1866  0.0078  0.0047
 1263DDP     C4 7578  14.445  20.659   4.036  0.7389 -0.2612 -0.0069
 1264DDP     C1 7579   2.160  27.905   4.437  0.2882  0.0011  0.1091
 1264DDP     P1 7580   2.249  28.110   4.896 -0.0395 -0.2375  0.0716
 1264DDP     P2 7581   2.504  27.944   4.194  0.0296 -0.2526  0.1854
 1264DDP     C2 7582   2.987  27.854   4.241  0.2522  0.2697  0.2164
 1264DDP     C3 7583   2.051  28.281   5.213 -0.1118 -0.0503 -0.0927
 1264DDP     C4 7584   1.751  27.952   4.154  0.0389  0.0914 -0.2616
 1265DDP     C1 7585  27.189   3.523  20.190 -0.1108 -0.1277 -0.1353
 1265DDP     P1 7586  27.045   3.452  19.720  0.2250 -0.0800  0.2465
 1265DDP     P2 7587  27.194   3.126  20.392  0.0657 -0.1266  0.2121
 1265DDP     C2 7588  27.253   2.908  20.762 -0.0366  0.0665  0.2608
 1265DDP     C3 7589  27.228   3.170  19.407  0.3554  0.3565 -0.1994
 1265DDP     C4 7590  27.330   3.959  20.474 -0.0453  0.1038 -0.1217
 1266DDP     C1 7591  17.743  17.380  25.257  0.0223  0.0766  0.0173
 1266DDP     P1 7592  18.031  17.716  25.474  0.2164  0.0123  0.1774
 1266DDP     P2 7593  17.844  17.278  24.889 -0.1605 -0.1318 -0.1262
 1266DDP     C2 7594  17.627  17.227  24.522  0.0627 -0.1698  0.1079
 1266DDP     C3 7595  18.231  18.112  25.643 -0.0568 -0.1713 -0.0963
 1266DDP     C4 7596  17.368  17.350  25.449 -0.1117  0.0637 -0.1744
 1267DDP     C1 7597   9.539  17.812  30.301 -0.0339 -0.1028  0.2437
 1267DDP     P1 7598   9.274  17.464  30.156 -0.1409  0.1654 -0.3300
 1267DDP     P2 7599   9.271  18.233   0.174 -0.2718  0.0578 -0.1865
 1267DDP     C2 7600   9.110  18.614   0.196 -0.2004 -0.2587  0.1533
 1267DDP     C3 7601   9.059  17.114  30.277 -0.0839  0.0571  0.0721
 1267DDP     C4 7602   9.928  17.858  30.162 -0.0895  0.2245  0.1050
 1268DDP     C1 7603   1.236  22.695  20.988  0.1202  0.2434  0.2276
 1268DDP     P1 7604   1.423  22.511  20.674  0.1068  0.1401  0.3243
 1268DDP     P2 7605   1.528  22.494  21.220  0.0153 -0.2416  0.3618
 1268DDP     C2 7606   1.754  22.159  21.370  0.1824  0.0522  0.1093
 1268DDP     C3 7607   1.760  22.569  20.402  0.0921 -0.2815 -0.2249
 1268DDP     C4 7608   0.777  22.680  21.182 -0.1300  0.0767 -0.0750
 1269DDP     C1 7609   4.188   2.273  29.395 -0.0945  0.3078 -0.0475
 1269DDP     P1 7610   4.113   2.110  29.031 -0.0638 -0.0108  0.1443
 1269DDP     P2 7611   4.206   2.023  29.791 -0.0612 -0.1016 -0.2043
 1269DDP     C2 7612   4.221   2.183  30.239  0.1062  0.1569 -0.2361
 1269DDP     C3 7613   4.143   2.367  28.541  0.1923 -0.4119  0.0727
 1269DDP     C4 7614   4.082   2.741  29.345  0.0395  0.0122 -0.0601
 1270DDP     C1 7615  12.582  13.140   7.522  0.1697  0.0303  0.0079
 1270DDP     P1 7616  12.844  12.894   7.778  0.0209 -0.3303  0.2580
 1270DDP     P2 7617  12.044  13.145   7.515 -0.1335 -0.0549  0.0480
 1270DDP     C2 7618  11.608  13.145   7.466  0.4165 -0.0242 -0.0889
 1270DDP     C3 7619  13.165  12.770   7.953  0.1319  0.1547 -0.0384
 1270DDP     C4 7620  12.799  13.564   7.367 -0.0774 -0.0312  0.2115
 1271DDP     C1 7621  11.833  30.015   6.378 -0.1705 -0.1597 -0.1190
 1271DDP     P1 7622  11.558  29.968   6.083  0.2669 -0.2099 -0.1814
 1271DDP     P2 7623  12.180  29.937   6.476  0.1132  0.1446 -0.1533
 1271DDP     C2 7624  12.535  29.737   6.739 -0.0657  0.1532  0.2708
 1271DDP     C3 7625  11.205  30.139   5.784 -0.0838  0.1936  0.1012
 1271DDP     C4 7626  11.761  30.083   6.808 -0.2180 -0.1358 -0.1150
 1272DDP     C1 7627   1.758   1.764  14.116 -0.2692 -0.3419  0.0652
 1272DDP     P1 7628   1.677   1.959  13.741 -0.0995 -0.0698 -0.0244
 1272DDP     P2 7629   1.427   1.851  14.414 -0.2066  0.2781 -0.1952
 1272DDP     C2 7630   1.295   2.310  14.533  0.0192 -0.0468 -0.3038
 1272DDP     C3 7631   1.509   2.266  13.486 -0.1432  0.0464  0.0178
 1272DDP     C4 7632   2.170   1.512  14.301 -0.1182 -0.0761 -0.2618
 1273DDP     C1 7633  25.858  20.540  15.258 -0.0450 -0.1188 -0.3671
 1273DDP     P1 7634  26.273  20.425  15.204  0.1495 -0.3602  0.2898
 1273DDP     P2 7635  25.450  20.648  15.072 -0.0915 -0.1164 -0.0613
 1273DDP     C2 7636  25.139  20.791  14.732 -0.2237  0.0023  0.2208
 1273DDP     C3 7637  26.657  20.274  15.061 -0.1771 -0.1510 -0.1646
 1273DDP     C4 7638  25.836  20.540  15.715 -0.1300 -0.0917  0.1029
 1274DDP     C1 7639   7.920  16.056  25.588 -0.0763 -0.0371 -0.0156
 1274DDP     P1 7640   7.857  16.318  25.193  0.0714  0.2772 -0.1327
 1274DDP     P2 7641   8.101  15.647  25.628  0.0291  0.2569 -0.0253
 1274DDP     C2 7642   8.451  15.497  25.528  0.1901 -0.0068 -0.0891
 1274DDP     C3 7643   7.950  16.311  24.706 -0.0764  0.0779 -0.0582
 1274DDP     C4 7644   7.933  16.346  26.010 -0.0179  0.0530 -0.3079
 1275DDP     C1 7645   0.028   8.321  20.854 -0.0663  0.2888  0.0216
 1275DDP     P1 7646   0.479   8.272  20.957 -0.0751  0.1181 -0.2996
 1275DDP     P2 7647   0.232   8.672  20.620 -0.2373 -0.0093 -0.3952
 1275DDP     C2 7648   0.011   9.064  20.479  0.0265  0.1005 -0.2258
 1275DDP     C3 7649   0.683   8.424  20.591 -0.0564 -0.0380 -0.2825
 1275DDP     C4 7650  30.014   8.568  21.072 -0.0409 -0.1840 -0.1073
 1276DDP     C1 7651  21.616  15.265  18.531  0.0501 -0.0984  0.2032
 1276DDP     P1 7652  21.684  15.394  18.936 -0.1520 -0.2458 -0.1256
 1276DDP     P2 7653  21.649  14.849  18.275  0.0046 -0.0294  0.0513
 1276DDP     C2 7654  21.697  14.639  17.937 -0.1721 -0.2888 -0.0628
 1276DDP     C3 7655  21.910  15.449  19.252  0.1783  0.2000  0.0309
 1276DDP     C4 7656  21.520  15.664  18.250  0.1531 -0.0739 -0.0219
 1277DDP     C1 7657   4.063   3.162  22.598  0.0847  0.1211  0.0711
 1277DDP     P1 7658   3.636   3.027  22.391  0.0560  0.0146 -0.0713
 1277DDP     P2 7659   4.122   3.014  23.018 -0.0024  0.0651 -0.0823
 1277DDP     C2 7660   4.337   2.815  23.325 -0.0133 -0.1600 -0.0781
 1277DDP     C3 7661   3.161   3.064  22.359 -0.1852  0.0399 -0.1610
 1277DDP     C4 7662   4.361   3.413  22.396  0.1596 -0.1428  0.2803
 1278DDP     C1 7663   7.043   3.002  13.007 -0.1688  0.1121 -0.0465
 1278DDP     P1 7664   6.776   3.320  12.871  0.1071  0.3642  0.1457
 1278DDP     P2 7665   7.344   3.046  13.182  0.1209 -0.3211 -0.0679
 1278DDP     C2 7666   7.500   3.140  13.594 -0.0920  0.2171  0.1892
 1278DDP     C3 7667   6.690   3.720  13.104 -0.2975 -0.1179  0.1894
 1278DDP     C4 7668   6.971   2.580  13.079  0.0412  0.1382 -0.0862
 1279DDP     C1 7669  12.035   5.469  11.098 -0.0148  0.0601 -0.1314
 1279DDP     P1 7670  12.445   5.358  11.165  0.1321  0.2703  0.0121
 1279DDP     P2 7671  11.846   5.863  11.184  0.4211 -0.0638  0.0542
 1279DDP     C2 7672  11.890   6.258  11.133  0.1298 -0.0868  0.4486
 1279DDP     C3 7673  12.650   4.979  11.323 -0.2469 -0.0993 -0.3460
 1279DDP     C4 7674  11.764   5.432  10.816 -0.2073 -0.2353 -0.0822
 1280DDP     C1 7675  13.317  17.559  29.518 -0.2091 -0.2563  0.1551
 1280DDP     P1 7676  13.467  17.445  29.077 -0.0254  0.0499  0.2213
 1280DDP     P2 7677  12.996  17.428  29.804 -0.3588 -0.0258  0.0192
 1280DDP     C2 7678  12.873  17.161  30.164 -0.0142  0.2465  0.0508
 1280DDP     C3 7679  13.617  17.095  28.787  0.2963 -0.2816 -0.2286
 1280DDP     C4 7680  13.427  18.000  29.585  0.0445  0.2578  0.0976
 1281DDP     C1 7681  22.475  13.016  14.749  0.2587 -0.0885  0.2295
 1281DDP     P1 7682  22.655  13.129  14.471 -0.0951  0.2722 -0.2529
 1281DDP     P2 7683  22.154  12.705  14.729  0.1167  0.0886  0.1923
 1281DDP     C2 7684  21.774  12.558  14.495 -0.1322  0.2015 -0.0076
 1281DDP     C3 7685  23.019  13.312  14.261 -0.0808 -0.0153  0.0918
 1281DDP     C4 7686  22.377  13.181  15.114 -0.2079 -0.0575 -0.1544
 1282DDP     C1 7687  26.295  28.132  24.842  0.0042  0.4497 -0.0018
 1282DDP     P1 7688  26.028  28.530  24.733  0.0238 -0.3404  0.2973
 1282DDP     P2 7689  26.609  27.946  24.648  0.1387  0.0270  0.0525
 1282DDP     C2 7690  27.062  28.012  24.623 -0.2343 -0.2280 -0.0537
 1282DDP     C3 7691  25.845  28.822  25.078 -0.0303 -0.0228 -0.1567
 1282DDP     C4 7692  26.291  27.922  25.175 -0.5662  0.1270  0.0294
 1283DDP     C1 7693  13.921  21.407   2.362  0.0413  0.0060  0.0934
 1283DDP     P1 7694  13.985  21.022   2.603 -0.0972 -0.0579 -0.2140
 1283DDP     P2 7695  14.378  21.683   2.395 -0.2590 -0.2395 -0.2067
 1283DDP     C2 7696  14.794  21.599   2.420  0.1272  0.0558 -0.3059
 1283DDP     C3 7697  13.977  20.557   2.538 -0.4443 -0.3018 -0.0044
 1283DDP     C4 7698  13.575  21.784   2.388 -0.2186  0.0314 -0.0301
 1284DDP     C1 7699  25.852  22.344  10.821 -0.0813  0.1804 -0.0179
 1284DDP     P1 7700  26.157  22.454  10.428 -0.3084 -0.0305  0.0262
 1284DDP     P2 7701  25.783  22.734  10.775  0.0195  0.1384  0.2309
 1284DDP     C2 7702  25.745  23.228  10.689  0.0088  0.2297  0.1611
 1284DDP     C3 7703  26.071  22.553   9.977 -0.1308 -0.0079  0.2079
 1284DDP     C4 7704  25.609  21.981  10.619  0.2032  0.0971 -0.3915
 1285DDP     C1 7705   9.153  11.428  21.170  0.0178  0.0604  0.2408
 1285DDP     P1 7706   9.304  11.080  21.229  0.0948  0.3190  0.1330
 1285DDP     P2 7707   9.439  11.734  21.345 -0.0389  0.1359 -0.4384
 1285DDP     C2 7708   9.587  12.167  21.394 -0.0225  0.1334 -0.1095
 1285DDP     C3 7709   9.436  10.749  21.446  0.0728 -0.0943  0.4100
 1285DDP     C4 7710   8.779  11.587  20.980 -0.1814 -0.1954  0.1479
 1286DDP     C1 7711  26.944  16.161   7.046 -0.1052  0.0820 -0.5178
 1286DDP     P1 7712  26.587  16.372   7.243 -0.2215  0.1532  0.1521
 1286DDP     P2 7713  27.372  16.138   7.280  0.1099  0.0289  0.3259
 1286DDP     C2 7714  27.591  16.454   7.393 -0.1999 -0.1049 -0.0596
 1286DDP     C3 7715  26.388  16.741   7.377  0.0148 -0.0344 -0.1743
 1286DDP     C4 7716  26.759  15.949   6.688 -0.1166 -0.3390 -0.5325
 1287DDP     C1 7717  21.358  29.591  29.469  0.1520 -0.2229 -0.0388
 1287DDP     P1 7718  21.251  29.927  29.421 -0.1090  0.2471 -0.0616
 1287DDP     P2 7719  21.295  29.252  29.230  0.1938  0.1921 -0.0256
 1287DDP     C2 7720  21.411  28.794  29.212  0.2552 -0.1323  0.2210
 1287DDP     C3 7721  21.246   0.037  29.533  0.3982  0.0426  0.4424
 1287DDP     C4 7722  21.704  29.604  29.823  0.1877  0.2087 -0.3979
 1288DDP     C1 7723  28.892  21.371  23.096  0.0067  0.0797 -0.2232
 1288DDP     P1 7724  29.031  21.796  23.010 -0.1791 -0.1791 -0.0594
 1288DDP     P2 7725  28.517  21.299  22.810 -0.1025  0.2876 -0.1383
 1288DDP     C2 7726  28.173  21.039  22.678  0.0597 -0.0894 -0.3890
 1288DDP     C3 7727  28.760  22.028  23.276  0.0527  0.0565 -0.0663
 1288DDP     C4 7728  29.158  21.132  23.269  0.2384 -0.3513  0.0383
 1289DDP     C1 7729   2.665  18.082  28.245  0.0501  0.0002  0.3873
 1289DDP     P1 7730   2.503  18.115  27.973  0.0077 -0.1358  0.2428
 1289DDP     P2 7731   2.328  18.087  28.545  0.1367  0.2290 -0.1731
 1289DDP     C2 7732   2.079  18.186  28.829 -0.0129 -0.0646  0.4260
 1289DDP     C3 7733   2.518  17.854  27.586  0.5322 -0.0497 -0.1464
 1289DDP     C4 7734   3.040  18.149  28.335 -0.1305 -0.0559 -0.0537
 1290DDP     C1 7735  16.197   2.449  11.722 -0.3406 -0.1360 -0.0336
 1290DDP     P1 7736  16.303   2.075  12.043 -0.1393 -0.0277 -0.3423
 1290DDP     P2 7737  16.268   2.514  11.286 -0.2073 -0.0670 -0.1526
 1290DDP     C2 7738  16.380   2.740  10.927 -0.1692 -0.1472  0.0581
 1290DDP     C3 7739  16.290   1.798  12.348  0.1924 -0.1744  0.2130
 1290DDP     C4 7740  16.110   2.743  12.020 -0.0488  0.1319 -0.1252
 1291DDP     C1 7741   1.914  15.533  11.607 -0.0703  0.1461 -0.2026
 1291DDP     P1 7742   1.867  15.938  11.608  0.5124  0.3980  0.2196
 1291DDP     P2 7743   2.260  15.264  11.553  0.2407 -0.1715  0.3067
 1291DDP     C2 7744   2.307  14.797  11.433 -0.1397 -0.3207 -0.0270
 1291DDP     C3 7745   1.740  16.337  11.964  0.0555  0.5074 -0.0641
 1291DDP     C4 7746   1.546  15.279  11.566 -0.4370 -0.0701 -0.2800
 1292DDP     C1 7747  21.024  11.346  13.166 -0.0731  0.2032 -0.1011
 1292DDP     P1 7748  20.633  11.540  12.918 -0.4306  0.0298  0.0608
 1292DDP     P2 7749  21.269  11.658  13.329  0.2276 -0.1748 -0.0578
 1292DDP     C2 7750  21.628  11.518  13.415  0.0160  0.0288 -0.0831
 1292DDP     C3 7751  20.662  11.747  12.556  0.0950 -0.1823 -0.3541
 1292DDP     C4 7752  20.999  11.070  13.454  0.2088  0.0047 -0.1934
 1293DDP     C1 7753  29.672  26.884   5.318  0.3260 -0.2866  0.1574
 1293DDP     P1 7754  29.916  26.560   5.166 -0.1504 -0.1085 -0.0853
 1293DDP     P2 7755  29.366  26.969   4.987  0.0212 -0.1800 -0.1981
 1293DDP     C2 7756  29.063  26.999   4.666  0.2203  0.1605 -0.2715
 1293DDP     C3 7757  30.234  26.550   4.827 -0.1146 -0.0531 -0.2055
 1293DDP     C4 7758  29.679  27.210   5.677  0.2114  0.0209  0.1307
 1294DDP     C1 7759   8.978   2.346  11.092 -0.1153  0.2011  0.0544
 1294DDP     P1 7760   9.164   2.032  10.820  0.1562 -0.2367 -0.3235
 1294DDP     P2 7761   8.996   2.849  10.912  0.0142 -0.2059  0.0877
 1294DDP     C2 7762   8.582   3.183  10.904  0.0904 -0.1216 -0.2290
 1294DDP     C3 7763   9.377   1.771  10.566  0.1990  0.1752 -0.0430
 1294DDP     C4 7764   9.104   2.304  11.609  0.1289  0.0030 -0.1564
 1295DDP     C1 7765  28.243  15.588  18.512  0.2709 -0.0600 -0.0295
 1295DDP     P1 7766  28.454  15.647  18.142  0.0568  0.0411 -0.0161
 1295DDP     P2 7767  28.308  15.289  18.805 -0.1679  0.0427 -0.0384
 1295DDP     C2 7768  28.232  15.150  19.226 -0.0625 -0.0659  0.0792
 1295DDP     C3 7769  28.600  15.626  17.847  0.1237 -0.3465 -0.2802
 1295DDP     C4 7770  27.794  15.705  18.433 -0.1269 -0.2945 -0.3137
 1296DDP     C1 7771   8.143  26.678   9.508 -0.3223 -0.2470 -0.1578
 1296DDP     P1 7772   8.071  26.873   9.910 -0.0641 -0.1663  0.2138
 1296DDP     P2 7773   8.118  26.172   9.568 -0.1035  0.0277 -0.2507
 1296DDP     C2 7774   7.848  25.804   9.502 -0.3004  0.0074  0.0976
 1296DDP     C3 7775   8.360  27.097  10.226  0.0931 -0.1504  0.1807
 1296DDP     C4 7776   8.269  26.943   9.236  0.1932 -0.0701  0.1364
 1297DDP     C1 7777  18.849  14.851   0.604 -0.0124  0.1840  0.3182
 1297DDP     P1 7778  19.024  14.378   0.429 -0.0209  0.0138  0.0081
 1297DDP     P2 7779  18.788  14.955   0.967 -0.0006  0.5016 -0.0464
 1297DDP     C2 7780  18.847  15.283   1.177 -0.3234  0.0502  0.0681
 1297DDP     C3 7781  19.099  14.258  30.196  0.0990 -0.1924 -0.0474
 1297DDP     C4 7782  18.921  15.114   0.297 -0.0338  0.0518 -0.0813
 1298DDP     C1 7783   4.361  18.973  20.676  0.0375  0.0665  0.0015
 1298DDP     P1 7784   4.398  18.678  21.009  0.3109  0.2907  0.1338
 1298DDP     P2 7785   4.440  18.925  20.268  0.0432  0.1105 -0.3025
 1298DDP     C2 7786   4.127  18.845  19.925 -0.0397  0.0641 -0.0355
 1298DDP     C3 7787   4.471  18.227  21.108 -0.2113 -0.1678 -0.1061
 1298DDP     C4 7788   4.426  19.438  20.913 -0.1046 -0.0156 -0.0096
 1299DDP     C1 7789  19.449   8.097   8.401  0.0733  0.0047  0.2438
 1299DDP     P1 7790  19.540   8.540   8.671  0.1796  0.0568  0.1070
 1299DDP     P2 7791  19.838   7.818   8.160 -0.2063 -0.2264 -0.3098
 1299DDP     C2 7792  20.174   7.759   8.349 -0.1615  0.0882  0.0694
 1299DDP     C3 7793  19.900   8.722   8.515 -0.0364 -0.0915 -0.0134
 1299DDP     C4 7794  19.066   7.865   8.214  0.4582  0.0722  0.2681
 1300DDP     C1 7795  18.183  16.170  29.381  0.1628  0.1846 -0.0684
 1300DDP     P1 7796  18.126  16.476  29.601  0.0854  0.1877 -0.0079
 1300DDP     P2 7797  17.944  16.069  29.083  0.0619 -0.0041  0.1760
 1300DDP     C2 7798  17.943  15.766  28.728 -0.0126 -0.0602 -0.0700
 1300DDP     C3 7799  17.966  16.687  29.857  0.3309  0.2797 -0.1694
 1300DDP     C4 7800  18.487  15.934  29.608  0.0595  0.2438 -0.0972
 1301DDP     C1 7801   3.095   8.441  30.299  0.2371  0.2330 -0.1031
 1301DDP     P1 7802   2.843   8.310  29.892 -0.0306  0.0415  0.1446
 1301DDP     P2 7803   3.520   8.285  30.225  0.0254 -0.1059 -0.2807
 1301DDP     C2 7804   3.821   8.123   0.085 -0.1028 -0.1845 -0.1563
 1301DDP     C3 7805   2.880   8.054  29.493 -0.0149  0.0285 -0.1987
 1301DDP     C4 7806   2.978   8.385   0.435 -0.2719 -0.1187 -0.1976
 1302DDP     C1 7807   4.672  20.961  11.026  0.0102  0.3609  0.2004
 1302DDP     P1 7808   4.670  21.313  11.249 -0.1185 -0.1530  0.1772
 1302DDP     P2 7809   4.788  21.189  10.676 -0.0915 -0.2231 -0.1999
 1302DDP     C2 7810   4.767  21.552  10.375  0.1235 -0.1810 -0.1392
 1302DDP     C3 7811   4.279  21.507  11.365  0.1501  0.2766  0.0182
 1302DDP     C4 7812   4.478  20.620  11.285 -0.3065 -0.1228  0.2474
 1303DDP     C1 7813   9.782  26.723  16.016  0.2636  0.2387 -0.1142
 1303DDP     P1 7814  10.226  26.686  16.154 -0.1203  0.1494 -0.1139
 1303DDP     P2 7815   9.577  26.788  16.414 -0.0578 -0.1072 -0.0129
 1303DDP     C2 7816   9.132  26.924  16.486 -0.1092 -0.0308 -0.2828
 1303DDP     C3 7817  10.682  26.636  16.278  0.1432 -0.0197 -0.1658
 1303DDP     C4 7818   9.453  26.818  15.587 -0.4147  0.1849  0.0501
 1304DDP     C1 7819   7.100  28.469  22.222 -0.1100  0.1614  0.0565
 1304DDP     P1 7820   7.194  28.337  21.825 -0.1452  0.0611  0.4220
 1304DDP     P2 7821   7.280  28.897  22.386 -0.1243  0.2459  0.2713
 1304DDP     C2 7822   7.359  29.193  22.697 -0.0402  0.1007  0.0699
 1304DDP     C3 7823   7.416  27.989  21.564  0.0101 -0.0337 -0.2751
 1304DDP     C4 7824   6.929  28.189  22.553  0.2395 -0.0961  0.0601
 1305DDP     C1 7825  22.688   8.577  12.720  0.0212  0.1143  0.0740
 1305DDP     P1 7826  22.675   9.033  12.709  0.0724  0.1448  0.1180
 1305DDP     P2 7827  22.381   8.260  12.891 -0.0367  0.3683  0.0296
 1305DDP     C2 7828  22.328   8.092  13.251  0.4604 -0.0142  0.1544
 1305DDP     C3 7829  22.607   9.357  12.459 -0.1826 -0.2707 -0.2986
 1305DDP     C4 7830  23.008   8.500  12.321  0.0486  0.3763  0.3906
 1306DDP     C1 7831  12.964  23.811   2.305 -0.0760  0.1029  0.2104
 1306DDP     P1 7832  12.781  23.541   2.010  0.1118  0.0192  0.0725
 1306DDP     P2 7833  13.228  23.769   2.693  0.1528 -0.1443 -0.1176
 1306DDP     C2 7834  13.323  23.796   3.113 -0.0114 -0.1558 -0.0764
 1306DDP     C3 7835  12.367  23.207   2.092  0.1031  0.0920 -0.0171
 1306DDP     C4 7836  12.819  24.210   2.156 -0.3677  0.1404  0.0573
 1307DDP     C1 7837  16.644  24.998  10.200 -0.0725  0.0341  0.0636
 1307DDP     P1 7838  16.814  24.996   9.849  0.0647 -0.2310 -0.0518
 1307DDP     P2 7839  16.449  24.737  10.317 -0.2871  0.2196  0.2936
 1307DDP     C2 7840  16.071  24.746  10.482 -0.1673  0.4465 -0.2225
 1307DDP     C3 7841  17.125  25.008   9.505  0.0709 -0.0182 -0.1998
 1307DDP     C4 7842  17.041  25.152  10.412  0.3357 -0.0371  0.0682
 1308DDP     C1 7843  20.589   7.264  22.756 -0.3574 -0.0307  0.3141
 1308DDP     P1 7844  20.681   7.617  22.711  0.1047  0.0371 -0.1284
 1308DDP     P2 7845  20.213   7.249  23.075 -0.0680 -0.2732 -0.0871
 1308DDP     C2 7846  19.977   7.617  23.349  0.2251 -0.0355 -0.1267
 1308DDP     C3 7847  20.877   7.887  22.504  0.0328 -0.1108 -0.3105
 1308DDP     C4 7848  20.724   7.047  22.402  0.1249 -0.2131 -0.1716
 1309DDP     C1 7849  20.100  19.711   2.832  0.0767 -0.3011 -0.4543
 1309DDP     P1 7850  20.328  19.869   2.370  0.2435 -0.0402 -0.0486
 1309DDP     P2 7851  20.004  19.277   2.772 -0.2848 -0.1765  0.1885
 1309DDP     C2 7852  19.601  18.999   2.811 -0.1085  0.1523 -0.3118
 1309DDP     C3 7853  20.767  19.750   2.362 -0.0593 -0.0775  0.1594
 1309DDP     C4 7854  20.200  20.053   3.169 -0.1760 -0.1293  0.1762
 1310DDP     C1 7855  21.725   2.939  28.015  0.3052 -0.0506 -0.2327
 1310DDP     P1 7856  21.685   2.684  27.706  0.1060  0.1161 -0.0646
 1310DDP     P2 7857  21.727   2.807  28.429 -0.0709 -0.0832  0.0734
 1310DDP     C2 7858  21.682   2.469  28.741 -0.1892  0.0430 -0.2296
 1310DDP     C3 7859  21.453   2.806  27.413 -0.2260 -0.1946  0.1316
 1310DDP     C4 7860  21.994   3.290  28.162  0.2316  0.1493 -0.0347
 1311DDP     C1 7861   3.503   2.181   2.219  0.1644  0.3362 -0.1177
 1311DDP     P1 7862   3.329   2.510   2.017  0.2939 -0.0455 -0.0785
 1311DDP     P2 7863   3.577   1.815   2.072  0.0246  0.3518  0.0272
 1311DDP     C2 7864   3.385   1.547   1.708  0.1234  0.0802 -0.1599
 1311DDP     C3 7865   3.041   2.846   1.793  0.0156  0.1965 -0.0510
 1311DDP     C4 7866   3.554   2.316   2.644 -0.1904  0.2868  0.2319
 1312DDP     C1 7867   3.601   4.931  13.177 -0.1806  0.3096 -0.0849
 1312DDP     P1 7868   3.695   4.723  12.750 -0.0180  0.0714  0.1966
 1312DDP     P2 7869   3.232   4.801  13.384  0.0207  0.0040  0.0166
 1312DDP     C2 7870   2.891   4.943  13.644 -0.0860 -0.3225  0.0260
 1312DDP     C3 7871   3.521   4.402  12.585 -0.0549 -0.1559  0.0217
 1312DDP     C4 7872   3.975   5.113  13.402 -0.2282  0.3460  0.0990
 1313DDP     C1 7873   7.593  17.903  27.049  0.2504 -0.1758 -0.2930
 1313DDP     P1 7874   7.312  17.887  27.400  0.0174  0.1056 -0.0804
 1313DDP     P2 7875   8.030  18.119  26.991 -0.0961 -0.0716  0.4691
 1313DDP     C2 7876   8.219  18.289  26.671 -0.2252  0.0419  0.3643
 1313DDP     C3 7877   7.015  18.157  27.710 -0.0609 -0.0689 -0.4083
 1313DDP     C4 7878   7.312  17.758  26.599  0.0590  0.0536  0.1169
 1314DDP     C1 7879  22.053   2.572  27.381 -0.0676 -0.0025 -0.2648
 1314DDP     P1 7880  22.520   2.566  27.228  0.1810 -0.0599  0.1896
 1314DDP     P2 7881  22.012   2.269  27.676  0.0504  0.1413 -0.1818
 1314DDP     C2 7882  21.911   2.035  27.951 -0.0253 -0.4640 -0.0992
 1314DDP     C3 7883  22.929   2.619  27.155 -0.1229  0.0308 -0.0039
 1314DDP     C4 7884  21.701   2.555  27.089 -0.2198 -0.1552  0.1216
 1315DDP     C1 7885  28.409   4.860  29.709  0.1819 -0.0675  0.1772
 1315DDP     P1 7886  28.158   4.800  29.271  0.1471  0.0014 -0.0585
 1315DDP     P2 7887  28.275   5.146  29.999  0.2085 -0.6309  0.0506
 1315DDP     C2 7888  27.832   5.294  30.037  0.2529  0.2531 -0.1254
 1315DDP     C3 7889  27.981   4.878  28.873  0.3822 -0.0230 -0.0457
 1315DDP     C4 7890  28.870   4.767  29.644  0.1301  0.1222  0.0780
 1316DDP     C1 7891   2.183  30.097   4.793 -0.3475  0.2223 -0.1200
 1316DDP     P1 7892   2.185   0.118   5.080 -0.0179  0.0339 -0.1968
 1316DDP     P2 7893   2.589  30.107   4.791  0.0568  0.0321  0.1149
 1316DDP     C2 7894   3.007  30.099   4.829 -0.1651 -0.0343 -0.0515
 1316DDP     C3 7895   2.394   0.477   5.260 -0.0159  0.0788 -0.0223
 1316DDP     C4 7896   1.922  30.040   4.365  0.3649  0.3459 -0.0364
 1317DDP     C1 7897  20.116   8.616  17.536  0.0277 -0.0368 -0.2016
 1317DDP     P1 7898  20.103   9.066  17.435 -0.2824 -0.1092 -0.0940
 1317DDP     P2 7899  19.967   8.234  17.770 -0.1766 -0.1032 -0.2333
 1317DDP     C2 7900  19.575   8.168  18.053 -0.1028  0.2280 -0.2237
 1317DDP     C3 7901  19.824   9.363  17.374  0.3022 -0.1802  0.1763
 1317DDP     C4 7902  20.416   8.377  17.467  0.2827  0.1789 -0.1213
 1318DDP     C1 7903  28.770  13.524  24.103  0.1901  0.1015  0.0409
 1318DDP     P1 7904  29.110  13.668  23.884 -0.0019  0.2286  0.0397
 1318DDP     P2 7905  28.589  13.297  24.418  0.2461  0.0094  0.2360
 1318DDP     C2 7906  28.369  13.257  24.924 -0.3020  0.0197  0.2871
 1318DDP     C3 7907  29.457  13.853  23.740 -0.1053 -0.0846 -0.1556
 1318DDP     C4 7908  28.575  13.536  23.722 -0.0859 -0.2019  0.2648
 1319DDP     C1 7909  13.987  17.624   0.949 -0.0840 -0.0015  0.2921
 1319DDP     P1 7910  14.410  17.501   1.221  0.4373 -0.0780  0.3680
 1319DDP     P2 7911  14.221  17.723   0.550  0.0149  0.0566 -0.0653
 1319DDP     C2 7912  14.643  17.710   0.364 -0.2307 -0.0093 -0.1991
 1319DDP     C3 7913  14.549  17.250   1.491 -0.1886  0.1330  0.0051
 1319DDP     C4 7914  13.557  17.460   1.084  0.2587  0.1077 -0.1355
 1320DDP     C1 7915  29.467  24.702   1.412 -0.2238  0.3152 -0.0152
 1320DDP     P1 7916  29.165  24.654   0.996 -0.0442 -0.0717 -0.1447
 1320DDP     P2 7917  29.652  25.140   1.309  0.0407 -0.2036 -0.2542
 1320DDP     C2 7918  30.005  25.388   1.465  0.0652 -0.2641  0.3172
 1320DDP     C3 7919  28.899  24.336   0.810  0.1897  0.3026  0.2152
 1320DDP     C4 7920  29.461  24.438   1.792  0.0090 -0.0852 -0.2816
 1321DDP     C1 7921  20.000  16.899  24.725  0.0754 -0.0178 -0.1017
 1321DDP     P1 7922  20.497  17.064  24.653  0.3926  0.0367 -0.0114
 1321DDP     P2 7923  19.843  16.837  25.160  0.4464  0.1336 -0.3361
 1321DDP     C2 7924  19.446  16.872  25.306  0.0840 -0.1422  0.2399
 1321DDP     C3 7925  20.870  17.248  24.629 -0.2118 -0.0866 -0.1820
 1321DDP     C4 7926  19.780  16.708  24.324 -0.4204  0.1948 -0.0278
 1322DDP     C1 7927   7.604  19.084   4.783  0.1458 -0.3005  0.0934
 1322DDP     P1 7928   7.229  19.001   4.495 -0.0993 -0.0704 -0.0593
 1322DDP     P2 7929   7.528  19.180   5.217 -0.1693 -0.0183 -0.2915
 1322DDP     C2 7930   7.667  18.887   5.545  0.2220 -0.0535  0.1073
 1322DDP     C3 7931   6.897  19.220   4.370  0.0858 -0.0806  0.1875
 1322DDP     C4 7932   7.979  19.182   4.704  0.1498  0.0865 -0.0041
 1323DDP     C1 7933  16.398  14.351  22.222 -0.1192 -0.0246 -0.0198
 1323DDP     P1 7934  16.136  14.357  22.617  0.0102  0.3076 -0.1535
 1323DDP     P2 7935  16.386  13.972  22.041 -0.2535  0.2480  0.1538
 1323DDP     C2 7936  16.633  13.754  21.855 -0.0869 -0.0282  0.0120
 1323DDP     C3 7937  16.058  14.493  22.981 -0.0189 -0.1103 -0.0259
 1323DDP     C4 7938  16.619  14.769  22.198  0.1866  0.2425  0.0758
 1324DDP     C1 7939   8.038  17.215  30.105 -0.0538 -0.1297  0.1466
 1324DDP     P1 7940   8.124  17.494   0.207  0.1484  0.1061  0.2560
 1324DDP     P2 7941   8.361  17.362  29.790 -0.3684 -0.2816 -0.3929
 1324DDP     C2 7942   8.584  17.695  29.621  0.1942  0.1166 -0.1110
 1324DDP     C3 7943   7.960  17.656   0.533 -0.1771 -0.0093 -0.0704
 1324DDP     C4 7944   7.620  17.037  30.130 -0.2813 -0.0963 -0.4059
 1325DDP     C1 7945  19.387  28.142  29.224 -0.1457 -0.1481  0.2558
 1325DDP     P1 7946  19.750  28.088  29.559 -0.2122 -0.0089 -0.0405
 1325DDP     P2 7947  19.046  28.198  29.470 -0.0426 -0.0818  0.3056
 1325DDP     C2 7948  18.802  28.440  29.766 -0.0801 -0.0848  0.0614
 1325DDP     C3 7949  19.935  27.936  29.907 -0.1619 -0.0085 -0.0586
 1325DDP     C4 7950  19.404  28.176  28.786 -0.1189 -0.3016 -0.0338
 1326DDP     C1 7951  17.286   6.913  17.084  0.0924 -0.5011  0.0424
 1326DDP     P1 7952  17.565   6.877  16.714 -0.0121 -0.0910  0.1431
 1326DDP     P2 7953  17.153   6.708  17.482 -0.1239 -0.0411  0.1213
 1326DDP     C2 7954  17.188   6.526  17.877  0.0635  0.0792 -0.2819
 1326DDP     C3 7955  18.130   6.821  16.632  0.2946 -0.0871 -0.0946
 1326DDP     C4 7956  16.868   7.144  16.872 -0.0670  0.0483 -0.0246
 1327DDP     C1 7957  23.184  20.917  13.324  0.0860  0.3316 -0.2034
 1327DDP     P1 7958  23.030  20.670  13.580 -0.0390  0.0017 -0.2019
 1327DDP     P2 7959  23.345  20.803  12.970  0.0818 -0.1474  0.0450
 1327DDP     C2 7960  23.494  20.340  12.801 -0.2859  0.1344 -0.0583
 1327DDP     C3 7961  22.680  20.561  13.711  0.2262 -0.2739  0.0678
 1327DDP     C4 7962  23.155  21.379  13.244  0.2042  0.0918 -0.4575
 1328DDP     C1 7963  24.609  15.185   8.638 -0.0328 -0.2161 -0.0250
 1328DDP     P1 7964  24.141  15.030   8.484  0.1655  0.3099  0.1221
 1328DDP     P2 7965  25.000  15.135   8.361 -0.0587  0.1297  0.1110
 1328DDP     C2 7966  25.279  15.103   8.050 -0.1534 -0.0383 -0.0176
 1328DDP     C3 7967  23.699  15.349   8.429  0.3994 -0.2367  0.0050
 1328DDP     C4 7968  24.769  15.359   9.119  0.0085  0.1007 -0.2247
 1329DDP     C1 7969   1.387   6.041  25.504  0.1146 -0.0332 -0.0983
 1329DDP     P1 7970   1.215   5.808  25.217 -0.0309  0.1943 -0.2203
 1329DDP     P2 7971   1.204   6.213  25.832  0.2917 -0.0274  0.0667
 1329DDP     C2 7972   1.109   6.645  25.659  0.1808  0.0311 -0.2007
 1329DDP     C3 7973   1.137   5.849  24.776  0.2291 -0.0027  0.2211
 1329DDP     C4 7974   1.541   6.433  25.436  0.2043 -0.0783 -0.1168
 1330DDP     C1 7975   9.146   3.853  17.071 -0.3783 -0.1614  0.0070
 1330DDP     P1 7976   8.953   3.548  16.752 -0.0563 -0.0136  0.0565
 1330DDP     P2 7977   9.525   3.916  17.139 -0.2773 -0.1497  0.0975
 1330DDP     C2 7978   9.851   3.989  17.467 -0.2064 -0.3764  0.0692
 1330DDP     C3 7979   8.883   3.196  16.477 -0.2110  0.0640  0.0728
 1330DDP     C4 7980   8.892   4.171  17.208  0.1444  0.1762 -0.0772
 1331DDP     C1 7981   4.686  29.932  28.178 -0.1673 -0.4768 -0.0500
 1331DDP     P1 7982   4.524  29.523  27.997  0.0542 -0.0765  0.2353
 1331DDP     P2 7983   4.773  30.182  27.838 -0.0000  0.0923  0.1065
 1331DDP     C2 7984   4.654  -0.013  27.480  0.1288 -0.0548  0.2323
 1331DDP     C3 7985   4.296  29.426  27.662 -0.1795 -0.1322  0.0970
 1331DDP     C4 7986   4.913  30.013  28.490 -0.2586  0.3033 -0.1527
 1332DDP     C1 7987  26.251   7.770  26.686 -0.2400 -0.0694 -0.1779
 1332DDP     P1 7988  26.193   7.969  27.061  0.1736  0.0019 -0.0279
 1332DDP     P2 7989  26.692   7.560  26.609  0.0566  0.0791  0.0230
 1332DDP     C2 7990  26.828   7.145  26.623  0.2288 -0.3110 -0.0755
 1332DDP     C3 7991  25.833   8.186  27.258  0.2605  0.1886  0.0740
 1332DDP     C4 7992  25.926   7.613  26.390 -0.3361  0.2699 -0.3235
 1333DDP     C1 7993  14.969  28.903  10.693  0.3675 -0.1699 -0.2653
 1333DDP     P1 7994  15.189  28.473  10.636  0.1366  0.1094  0.1576
 1333DDP     P2 7995  14.917  29.141  10.292  0.0832 -0.0838 -0.0392
 1333DDP     C2 7996  15.060  29.546  10.262 -0.0319  0.2215  0.0107
 1333DDP     C3 7997  15.244  28.155  10.964  0.2474 -0.2865  0.0916
 1333DDP     C4 7998  15.279  29.050  11.069 -0.0947  0.2639 -0.5043
 1334DDP     C1 7999   8.499  19.371  27.323 -0.1923  0.1612  0.1489
 1334DDP     P1 8000   8.552  19.074  27.041 -0.1460 -0.0384 -0.1699
 1334DDP     P2 8001   8.394  19.366  27.742  0.2312 -0.0708  0.0589
 1334DDP     C2 8002   8.107  19.687  27.833 -0.0553  0.1344 -0.0426
 1334DDP     C3 8003   8.901  18.917  26.987 -0.1435  0.1299  0.0460
 1334DDP     C4 8004   8.434  19.691  27.051 -0.0598  0.1573 -0.0647
 1335DDP     C1 8005  21.556  26.001  10.154 -0.1112 -0.0822  0.3800
 1335DDP     P1 8006  21.406  26.256  10.491  0.1565 -0.4221 -0.1242
 1335DDP     P2 8007  21.411  25.587  10.245 -0.0676  0.1605 -0.1782
 1335DDP     C2 8008  21.629  25.191  10.330  0.0230 -0.1681  0.1336
 1335DDP     C3 8009  21.717  26.478  10.768  0.1860  0.4305 -0.0456
 1335DDP     C4 8010  21.855  26.180   9.859  0.2271  0.3030  0.1092
 1336DDP     C1 8011  22.393   8.097   6.505 -0.2352 -0.1654 -0.2140
 1336DDP     P1 8012  22.175   7.703   6.334 -0.0878  0.0943 -0.2573
 1336DDP     P2 8013  22.572   8.366   6.261 -0.5527 -0.1167  0.2732
 1336DDP     C2 8014  22.765   8.506   5.859  0.0647 -0.3983 -0.1636
 1336DDP     C3 8015  21.983   7.274   6.357 -0.2020 -0.3607  0.1676
 1336DDP     C4 8016  22.520   8.212   6.909 -0.0781  0.3183  0.1232
 1337DDP     C1 8017  13.541  13.484  11.109  0.0792  0.0781 -0.3577
 1337DDP     P1 8018  13.233  13.422  10.823  0.2097  0.3561 -0.2138
 1337DDP     P2 8019  13.666  13.874  11.087  0.0393 -0.0387  0.2416
 1337DDP     C2 8020  13.824  14.294  11.057  0.2560 -0.3040  0.1512
 1337DDP     C3 8021  12.813  13.342  10.648  0.1533 -0.0958 -0.2805
 1337DDP     C4 8022  13.667  13.191  11.348 -0.0174  0.2002  0.2359
 1338DDP     C1 8023  12.505  19.728   2.368  0.2444 -0.4839 -0.0584
 1338DDP     P1 8024  12.090  19.814   2.359 -0.2907  0.3715  0.1795
 1338DDP     P2 8025  12.719  20.067   2.618  0.0070  0.2193  0.0932
 1338DDP     C2 8026  12.614  20.524   2.644 -0.1282 -0.0539  0.3038
 1338DDP     C3 8027  11.874  20.036   1.961 -0.1913 -0.1992  0.1551
 1338DDP     C4 8028  12.668  19.415   2.020  0.2471  0.1562  0.1715
 1339DDP     C1 8029   0.171   8.706   2.628  0.0385 -0.3117  0.1321
 1339DDP     P1 8030  30.094   8.907   2.456 -0.2363  0.2390 -0.0257
 1339DDP     P2 8031   0.323   9.126   2.523  0.3269  0.0029 -0.2439
 1339DDP     C2 8032   0.635   9.271   2.326  0.0539 -0.2252  0.1447
 1339DDP     C3 8033  29.709   8.612   2.328 -0.1679 -0.0064 -0.1129
 1339DDP     C4 8034   0.153   8.545   3.006  0.0231  0.0096 -0.3432
 1340DDP     C1 8035  20.444   0.246  19.512 -0.2028 -0.3859 -0.1373
 1340DDP     P1 8036  20.753   0.022  19.264  0.1956  0.1367 -0.2329
 1340DDP     P2 8037  20.384   0.270  20.000  0.2074 -0.3505  0.1057
 1340DDP     C2 8038  20.180   0.446  20.414  0.1295  0.0747  0.3308
 1340DDP     C3 8039  21.182   0.098  19.295 -0.0679 -0.0217  0.0259
 1340DDP     C4 8040  20.107   0.367  19.206 -0.0817  0.0399  0.1048
 1341DDP     C1 8041  18.021   8.443  21.679 -0.2005  0.0873  0.0703
 1341DDP     P1 8042  17.795   8.444  22.070  0.0657 -0.0253 -0.0403
 1341DDP     P2 8043  17.895   8.375  21.309 -0.0165  0.0522 -0.0130
 1341DDP     C2 8044  17.478   8.516  21.095  0.0445 -0.3990  0.1386
 1341DDP     C3 8045  17.404   8.366  22.204 -0.2156 -0.3074 -0.0194
 1341DDP     C4 8046  18.467   8.656  21.697 -0.1740  0.1032 -0.0415
 1342DDP     C1 8047   8.818  21.546  20.528  0.0111 -0.2486 -0.2523
 1342DDP     P1 8048   8.400  21.611  20.290  0.0307  0.1149  0.0152
 1342DDP     P2 8049   9.197  21.612  20.434  0.1196  0.0901 -0.1262
 1342DDP     C2 8050   9.386  21.462  20.007 -0.1622 -0.1397  0.0115
 1342DDP     C3 8051   8.018  21.397  20.400 -0.2985  0.2773  0.0026
 1342DDP     C4 8052   8.771  21.460  20.911 -0.1756  0.0020  0.1014
 1343DDP     C1 8053  10.067   9.714  23.930 -0.1485 -0.0823  0.3199
 1343DDP     P1 8054  10.117  10.164  23.935 -0.0285  0.3078 -0.2091
 1343DDP     P2 8055  10.173   9.401  24.234  0.0896  0.1195  0.2173
 1343DDP     C2 8056  10.348   8.935  24.390 -0.2695 -0.2184 -0.1140
 1343DDP     C3 8057  10.513  10.357  24.098  0.2749  0.2343 -0.0320
 1343DDP     C4 8058   9.590   9.733  23.687  0.0263  0.0255 -0.0661
 1344DDP     C1 8059   1.292  20.409   3.523 -0.1580  0.0783 -0.0776
 1344DDP     P1 8060   1.407  20.199   3.860 -0.0552  0.0490 -0.0866
 1344DDP     P2 8061   0.933  20.689   3.603  0.2249  0.1863 -0.0751
 1344DDP     C2 8062   0.611  20.932   3.876  0.2790 -0.4309  0.1315
 1344DDP     C3 8063   1.735  20.143   4.098  0.2704  0.2786  0.0615
 1344DDP     C4 8064   1.311  20.003   3.207 -0.1497 -0.1339  0.5839
 1345DDP     C1 8065  29.050  28.852  17.755  0.0238 -0.2932  0.0457
 1345DDP     P1 8066  29.090  28.746  18.167 -0.1406  0.3709  0.2770
 1345DDP     P2 8067  29.283  29.140  17.436 -0.0549 -0.0207  0.0330
 1345DDP     C2 8068  29.552  29.466  17.243 -0.3343  0.0685 -0.3609
 1345DDP     C3 8069  29.074  29.069  18.591 -0.1152  0.1006  0.0928
 1345DDP     C4 8070  28.702  28.733  17.819 -0.0704 -0.1991 -0.0284
 1346DDP     C1 8071  13.412  28.247  20.397 -0.2362  0.1443  0.0246
 1346DDP     P1 8072  13.002  27.957  20.405 -0.0049  0.0132  0.1849
 1346DDP     P2 8073  13.455  28.389  20.054 -0.1236  0.2342 -0.2579
 1346DDP     C2 8074  13.839  28.607  19.790  0.4348  0.1642 -0.0682
 1346DDP     C3 8075  12.603  27.836  20.368  0.3237 -0.0085 -0.0928
 1346DDP     C4 8076  13.698  28.199  20.734 -0.1753 -0.2701  0.1654
 1347DDP     C1 8077  11.226  10.576  13.072  0.2276  0.2619  0.0923
 1347DDP     P1 8078  11.122  11.015  13.006 -0.1165 -0.4843  0.1908
 1347DDP     P2 8079  11.033  10.269  13.174 -0.5034 -0.0521  0.1902
 1347DDP     C2 8080  11.014   9.860  13.438 -0.2471  0.0529  0.0211
 1347DDP     C3 8081  11.286  11.339  13.338  0.1042  0.1307  0.2852
 1347DDP     C4 8082  11.650  10.445  12.915 -0.1442 -0.0746 -0.0585
 1348DDP     C1 8083  14.920  26.487   4.066 -0.0252 -0.0042  0.3844
 1348DDP     P1 8084  14.622  26.217   4.214 -0.3660  0.3482 -0.1186
 1348DDP     P2 8085  14.792  26.685   3.626  0.4314  0.0115  0.1221
 1348DDP     C2 8086  14.388  26.743   3.393  0.3461  0.1308  0.2115
 1348DDP     C3 8087  14.772  26.224   4.674  0.1520 -0.1605  0.1259
 1348DDP     C4 8088  15.400  26.559   4.181  0.1932 -0.0080 -0.0963
 1349DDP     C1 8089  24.090  12.330   5.459 -0.1023  0.3334 -0.3491
 1349DDP     P1 8090  24.244  12.620   5.316  0.0683 -0.2598  0.2001
 1349DDP     P2 8091  23.896  12.035   5.232  0.0730 -0.2306 -0.0890
 1349DDP     C2 8092  23.838  11.930   4.859 -0.0657 -0.0613 -0.0194
 1349DDP     C3 8093  24.593  12.870   5.448  0.1233 -0.2362 -0.3888
 1349DDP     C4 8094  24.133  12.529   5.873 -0.0644  0.0629  0.0151
 1350DDP     C1 8095  14.218  28.595  11.818 -0.0358  0.0578 -0.1085
 1350DDP     P1 8096  14.360  28.140  11.620  0.0763 -0.0229 -0.2533
 1350DDP     P2 8097  14.320  28.737  12.183 -0.0193 -0.0656 -0.0445
 1350DDP     C2 8098  14.484  28.923  12.323 -0.0615  0.0683 -0.0181
 1350DDP     C3 8099  14.527  27.764  11.456  0.1960  0.0247  0.0228
 1350DDP     C4 8100  14.057  28.869  11.500 -0.0224  0.0816 -0.3009
 1351DDP     C1 8101  24.319   5.258  28.457  0.2865  0.1534  0.5493
 1351DDP     P1 8102  24.653   4.958  28.232  0.0704 -0.2319  0.1118
 1351DDP     P2 8103  24.472   5.550  28.792  0.0411 -0.2219 -0.4581
 1351DDP     C2 8104  24.674   5.779  29.193  0.1155 -0.2110  0.4545
 1351DDP     C3 8105  24.926   5.013  27.953  0.4548  0.3333  0.0802
 1351DDP     C4 8106  23.901   5.203  28.357  0.1267 -0.2014 -0.2016
 1352DDP     C1 8107   5.291  21.756  15.943  0.2528  0.2249  0.0592
 1352DDP     P1 8108   5.138  21.800  16.338  0.1139  0.1854 -0.0340
 1352DDP     P2 8109   5.487  22.177  15.778  0.3442  0.3222 -0.1068
 1352DDP     C2 8110   5.591  22.558  15.719 -0.1332  0.0781  0.2054
 1352DDP     C3 8111   5.129  21.797  16.799 -0.0163  0.0379 -0.0961
 1352DDP     C4 8112   5.327  21.387  15.613 -0.2979 -0.1739  0.0983
 1353DDP     C1 8113  15.322   2.950  15.011  0.3485 -0.3226 -0.1216
 1353DDP     P1 8114  15.561   2.610  15.029 -0.0136  0.3773  0.2627
 1353DDP     P2 8115  15.355   3.190  15.397  0.1393  0.0422  0.3023
 1353DDP     C2 8116  15.265   3.298  15.781 -0.0086  0.0989  0.0678
 1353DDP     C3 8117  15.829   2.244  15.306  0.1111 -0.0008 -0.3505
 1353DDP     C4 8118  15.010   3.181  14.771 -0.2049  0.0414  0.0009
 1354DDP     C1 8119  18.348  19.539   0.442  0.1335  0.1100 -0.1254
 1354DDP     P1 8120  18.433  19.361   0.033 -0.2792  0.2059 -0.0198
 1354DDP     P2 8121  18.206  19.230   0.747 -0.0682 -0.1593 -0.1170
 1354DDP     C2 8122  18.040  18.898   1.075  0.1339  0.2800  0.1696
 1354DDP     C3 8123  18.629  19.288  29.954 -0.0730 -0.0894 -0.1939
 1354DDP     C4 8124  18.394  19.883   0.635  0.2086  0.2234  0.1473
 1355DDP     C1 8125  20.820  11.695  13.574  0.0039  0.0541  0.1400
 1355DDP     P1 8126  20.809  11.921  13.809  0.2300  0.3664 -0.1912
 1355DDP     P2 8127  20.946  11.862  13.076  0.2022  0.3056 -0.2482
 1355DDP     C2 8128  21.045  12.343  12.998 -0.1809  0.2849 -0.3597
 1355DDP     C3 8129  20.679  12.235  14.011  0.1686  0.1645 -0.2219
 1355DDP     C4 8130  20.546  11.426  13.428 -0.0671  0.1406  0.0990
 1356DDP     C1 8131  21.892  22.084   9.460 -0.1705 -0.1082 -0.0714
 1356DDP     P1 8132  22.043  22.222   9.014  0.1767 -0.0918  0.0679
 1356DDP     P2 8133  21.886  21.683   9.420 -0.0618 -0.2115 -0.1011
 1356DDP     C2 8134  21.781  21.274   9.634 -0.0443  0.2809 -0.1795
 1356DDP     C3 8135  22.076  22.537   8.668 -0.3392  0.2232  0.0526
 1356DDP     C4 8136  21.948  22.219   9.872  0.2225 -0.4153 -0.0705
 1357DDP     C1 8137  19.422  12.607  10.303  0.2291  0.2559  0.2524
 1357DDP     P1 8138  19.528  12.995  10.173  0.0310  0.1136  0.1079
 1357DDP     P2 8139  19.601  12.278  10.123 -0.1221 -0.1069  0.1845
 1357DDP     C2 8140  19.801  11.968   9.956 -0.6179 -0.2203  0.2129
 1357DDP     C3 8141  19.934  13.142  10.053 -0.3284  0.1500  0.1672
 1357DDP     C4 8142  19.184  12.562  10.617  0.0766 -0.1267 -0.4230
 1358DDP     C1 8143   4.090   1.229  25.967  0.1532  0.1777  0.3706
 1358DDP     P1 8144   4.322   0.939  25.768  0.2597  0.2930  0.0752
 1358DDP     P2 8145   4.318   1.351  26.273 -0.1592 -0.1511 -0.4063
 1358DDP     C2 8146   4.452   1.811  26.455  0.2884  0.1574 -0.2918
 1358DDP     C3 8147   4.506   0.972  25.358  0.0986  0.0696 -0.2856
 1358DDP     C4 8148   3.772   1.385  25.828  0.0705 -0.0642  0.1886
 1359DDP     C1 8149  21.670   8.758  29.081  0.0069  0.0675  0.0589
 1359DDP     P1 8150  21.908   9.049  28.945  0.1667 -0.0949 -0.1053
 1359DDP     P2 8151  21.327   8.868  28.874 -0.1292  0.0816 -0.0154
 1359DDP     C2 8152  21.254   8.655  28.451 -0.0907 -0.2358  0.0615
 1359DDP     C3 8153  22.289   9.150  28.982 -0.0734 -0.1123  0.1299
 1359DDP     C4 8154  21.784   8.373  29.299  0.2823  0.1217 -0.2302
 1360DDP     C1 8155  18.604  21.796   5.085  0.0724 -0.0287 -0.2592
 1360DDP     P1 8156  19.003  21.861   4.865  0.1777  0.1965  0.0559
 1360DDP     P2 8157  18.462  21.589   5.456  0.0368  0.2169 -0.1337
 1360DDP     C2 8158  18.181  21.233   5.626 -0.1645 -0.0819 -0.1080
 1360DDP     C3 8159  19.410  21.975   4.678 -0.1635  0.2775 -0.0266
 1360DDP     C4 8160  18.232  21.975   5.002 -0.0554  0.0809 -0.1728
 1361DDP     C1 8161   3.166   8.797  18.473 -0.1378 -0.2102  0.1241
 1361DDP     P1 8162   2.754   8.925  18.440 -0.0519  0.1197 -0.1033
 1361DDP     P2 8163   3.363   8.862  18.176 -0.1206  0.1385 -0.1244
 1361DDP     C2 8164   3.578   9.090  18.004 -0.0207  0.0790 -0.2684
 1361DDP     C3 8165   2.283   8.791  18.502 -0.1569  0.1458  0.5192
 1361DDP     C4 8166   3.411   8.837  18.819 -0.1348  0.0090 -0.0062
 1362DDP     C1 8167   8.654   6.093  18.430 -0.3182  0.3058  0.2031
 1362DDP     P1 8168   8.776   5.763  18.117 -0.0171  0.1454  0.0897
 1362DDP     P2 8169   8.969   6.192  18.807  0.1829 -0.1552 -0.1242
 1362DDP     C2 8170   9.395   6.082  18.761  0.0894  0.2827  0.1230
 1362DDP     C3 8171   9.096   5.596  17.770  0.0086 -0.1442  0.2316
 1362DDP     C4 8172   8.228   5.998  18.455  0.1155  0.0845 -0.2013
 1363DDP     C1 8173   4.303   2.816  20.700 -0.0292  0.2594 -0.1102
 1363DDP     P1 8174   4.156   2.803  20.455  0.2242 -0.1869  0.0704
 1363DDP     P2 8175   4.191   2.460  20.975  0.2909 -0.1511  0.1893
 1363DDP     C2 8176   3.870   2.328  21.368 -0.0836 -0.2718  0.1490
 1363DDP     C3 8177   4.001   2.587  20.112  0.0000 -0.3577 -0.2513
 1363DDP     C4 8178   4.560   3.163  20.711 -0.1033 -0.1891  0.1333
 1364DDP     C1 8179  10.369  15.311  26.519 -0.0632 -0.1790  0.0579
 1364DDP     P1 8180  10.100  15.115  26.825 -0.0956  0.1740 -0.0192
 1364DDP     P2 8181  10.332  15.715  26.327  0.1712 -0.2371 -0.0965
 1364DDP     C2 8182   9.997  15.940  26.266 -0.0518 -0.2032 -0.3357
 1364DDP     C3 8183   9.720  15.181  26.805  0.1219  0.1327  0.0837
 1364DDP     C4 8184  10.775  15.187  26.626  0.0192 -0.2169  0.2628
 1365DDP     C1 8185   1.642   1.231  15.254 -0.1248 -0.0335 -0.2087
 1365DDP     P1 8186   1.554   1.686  15.296  0.1163  0.1152  0.2815
 1365DDP     P2 8187   1.935   1.143  15.102  0.1395 -0.2774  0.3297
 1365DDP     C2 8188   2.292   1.364  14.958  0.2086  0.0924  0.0555
 1365DDP     C3 8189   1.421   2.039  15.622 -0.2865  0.0572  0.3289
 1365DDP     C4 8190   1.390   0.996  15.606 -0.1887  0.0964 -0.2090
 1366DDP     C1 8191  15.700  13.612  22.641  0.0119 -0.4584  0.2222
 1366DDP     P1 8192  16.007  13.282  22.756  0.5142 -0.0512 -0.0146
 1366DDP     P2 8193  15.678  14.167  22.566  0.3225 -0.3562 -0.0494
 1366DDP     C2 8194  15.508  14.525  22.467 -0.2133 -0.2252 -0.0906
 1366DDP     C3 8195  16.069  13.016  23.146 -0.0321  0.0327 -0.0593
 1366DDP     C4 8196  15.326  13.457  22.678  0.0790 -0.1284 -0.3515
 1367DDP     C1 8197  23.135  13.476  22.859 -0.0279 -0.3300 -0.1779
 1367DDP     P1 8198  22.726  13.729  23.017 -0.2127  0.2257  0.0289
 1367DDP     P2 8199  23.433  13.701  22.606  0.0088 -0.2745 -0.0590
 1367DDP     C2 8200  23.657  13.984  22.677 -0.0157  0.3644 -0.0329
 1367DDP     C3 8201  22.428  14.058  23.292  0.0668 -0.3142 -0.1133
 1367DDP     C4 8202  23.139  13.138  22.848  0.1254 -0.0564  0.1836
 1368DDP     C1 8203  10.382  23.510  25.624  0.0316  0.0767 -0.0746
 1368DDP     P1 8204  10.433  23.195  25.228  0.1115 -0.0478 -0.0681
 1368DDP     P2 8205  10.361  23.289  26.043 -0.2172  0.2511 -0.0797
 1368DDP     C2 8206  10.271  23.404  26.517  0.1297 -0.3019 -0.1080
 1368DDP     C3 8207  10.154  23.057  24.927 -0.3294  0.0814 -0.0487
 1368DDP     C4 8208  10.169  23.854  25.359  0.3854 -0.1123 -0.2596
 1369DDP     C1 8209  12.717  19.807   5.464 -0.0710 -0.0230  0.2832
 1369DDP     P1 8210  12.283  19.652   5.414 -0.3945  0.0054 -0.1567
 1369DDP     P2 8211  12.798  20.048   5.107  0.2788  0.1406  0.1771
 1369DDP     C2 8212  12.583  20.186   4.700  0.2177  0.0940  0.3977
 1369DDP     C3 8213  12.058  19.498   5.721  0.0868  0.1378 -0.0121
 1369DDP     C4 8214  13.021  19.612   5.792  0.2449  0.0122 -0.2242
 1370DDP     C1 8215  14.749  18.537  13.957  0.1172 -0.0294  0.0223
 1370DDP     P1 8216  14.739  18.254  13.596  0.0835  0.0049 -0.3225
 1370DDP     P2 8217  14.591  18.342  14.317 -0.0874  0.2649  0.0770
 1370DDP     C2 8218  14.723  17.967  14.584  0.0671 -0.1838  0.0821
 1370DDP     C3 8219  14.774  18.060  13.176 -0.2051 -0.1231 -0.2300
 1370DDP     C4 8220  14.895  18.972  14.054  0.1318 -0.0544  0.0343
 1371DDP     C1 8221  23.199  26.664   6.766 -0.0980 -0.1511  0.1525
 1371DDP     P1 8222  23.442  26.967   6.556  0.0062 -0.0863 -0.1867
 1371DDP     P2 8223  22.972  26.673   6.472 -0.0481 -0.0279 -0.0548
 1371DDP     C2 8224  22.764  26.980   6.220 -0.1778 -0.0934 -0.3001
 1371DDP     C3 8225  23.672  27.147   6.260  0.4567  0.1991 -0.0417
 1371DDP     C4 8226  23.101  26.541   7.215 -0.3660  0.0338 -0.1844
 1372DDP     C1 8227   2.630   9.267  13.882  0.0829  0.1182 -0.0893
 1372DDP     P1 8228   2.221   9.126  13.751  0.4023  0.0593  0.2053
 1372DDP     P2 8229   2.807   9.274  13.458  0.1018  0.0900 -0.0925
 1372DDP     C2 8230   2.805   9.514  13.074  0.0541  0.1062  0.1188
 1372DDP     C3 8231   1.785   9.040  13.833  0.0372  0.0102 -0.0936
 1372DDP     C4 8232   2.532   9.666  14.180 -0.1750  0.2880  0.1543
 1373DDP     C1 8233   5.283  18.522   7.414 -0.1563  0.1843 -0.2218
 1373DDP     P1 8234   5.135  18.428   7.709 -0.0674  0.0606  0.0610
 1373DDP     P2 8235   5.028  18.527   7.063 -0.2227  0.1138 -0.2170
 1373DDP     C2 8236   4.752  18.759   6.877  0.0039  0.1175 -0.0832
 1373DDP     C3 8237   5.205  18.536   8.014  0.0982  0.1560 -0.2693
 1373DDP     C4 8238   5.679  18.678   7.264 -0.0863 -0.2553  0.1071
 1374DDP     C1 8239  20.062  20.145   6.206 -0.2544 -0.0635  0.1413
 1374DDP     P1 8240  20.489  19.982   6.173 -0.1575  0.1652 -0.0631
 1374DDP     P2 8241  19.821  19.846   5.975  0.4070 -0.0976  0.1325
 1374DDP     C2 8242  19.525  19.885   5.653 -0.0511 -0.0219  0.0503
 1374DDP     C3 8243  20.610  19.587   6.338  0.1236 -0.2440 -0.2908
 1374DDP     C4 8244  19.890  20.582   6.401  0.4198  0.0529 -0.2802
 1375DDP     C1 8245  21.866  16.269  15.918  0.1204  0.0943  0.2002
 1375DDP     P1 8246  21.772  16.461  16.200  0.0619  0.1869  0.1738
 1375DDP     P2 8247  21.836  16.575  15.604 -0.0871 -0.4322 -0.0407
 1375DDP     C2 8248  21.444  16.605  15.388 -0.2259 -0.0677 -0.2708
 1375DDP     C3 8249  21.583  16.711  16.510 -0.0186  0.2994  0.1221
 1375DDP     C4 8250  21.930  15.868  15.940  0.6834  0.0737  0.1077
 1376DDP     C1 8251   7.149   8.704  13.112  0.2000 -0.0874  0.0255
 1376DDP     P1 8252   6.917   9.015  12.886 -0.1022 -0.0666 -0.2173
 1376DDP     P2 8253   7.234   8.709  13.562  0.0013 -0.4846 -0.2069
 1376DDP     C2 8254   7.435   8.708  13.981 -0.2143  0.2280 -0.0990
 1376DDP     C3 8255   6.892   9.401  12.657  0.0875  0.1326 -0.2918
 1376DDP     C4 8256   7.446   8.345  12.910  0.2947  0.1911 -0.0225
 1377DDP     C1 8257   9.923   6.177  21.899 -0.1247  0.3640  0.2861
 1377DDP     P1 8258  10.137   6.552  21.915  0.0406  0.1316  0.0300
 1377DDP     P2 8259  10.012   6.113  21.595 -0.0851  0.1167 -0.1743
 1377DDP     C2 8260  10.458   6.172  21.318  0.0463  0.1484  0.1412
 1377DDP     C3 8261  10.335   6.631  21.524  0.2644  0.1436  0.2724
 1377DDP     C4 8262   9.905   5.821  22.144 -0.1728 -0.1086  0.1072
 1378DDP     C1 8263  29.614  23.072  28.869 -0.1047 -0.1830  0.0842
 1378DDP     P1 8264  29.919  23.211  28.621 -0.1920  0.1695  0.4177
 1378DDP     P2 8265  29.698  23.199  29.175 -0.1339 -0.0496  0.0167
 1378DDP     C2 8266  30.198  23.323  29.232  0.2189 -0.0057 -0.2364
 1378DDP     C3 8267   0.063  23.030  28.729  0.0241 -0.1810  0.0014
 1378DDP     C4 8268  29.254  23.037  28.703 -0.1576  0.2753 -0.1043
 1379DDP     C1 8269  18.163   3.275  15.845 -0.2933  0.0186 -0.1616
 1379DDP     P1 8270  18.231   3.078  15.455 -0.1409 -0.3391 -0.0637
 1379DDP     P2 8271  17.917   3.124  16.115 -0.0455  0.0916 -0.0458
 1379DDP     C2 8272  17.522   3.312  16.377 -0.1432 -0.0381  0.1010
 1379DDP     C3 8273  18.608   3.001  15.352  0.2138 -0.0734  0.0224
 1379DDP     C4 8274  18.316   3.631  15.977  0.1091 -0.0395 -0.0182
 1380DDP     C1 8275   5.979   5.980  24.579  0.1385  0.0952 -0.1394
 1380DDP     P1 8276   5.672   6.054  24.949 -0.1725 -0.1717 -0.0649
 1380DDP     P2 8277   6.218   6.255  24.382 -0.2358  0.2319 -0.0581
 1380DDP     C2 8278   6.651   6.294  24.527 -0.3063  0.0343  0.1998
 1380DDP     C3 8279   5.566   6.010  25.377  0.0028  0.0004  0.2282
 1380DDP     C4 8280   5.882   5.555  24.572  0.0230  0.2300  0.2971
 1381DDP     C1 8281   9.211   0.200  26.329  0.4188 -0.1016 -0.4366
 1381DDP     P1 8282   8.957   0.505  26.421 -0.0300  0.0426  0.0233
 1381DDP     P2 8283   9.020  30.140  26.257 -0.2058 -0.0631  0.0727
 1381DDP     C2 8284   8.728  29.874  26.375  0.2785 -0.0708  0.0762
 1381DDP     C3 8285   8.731   0.798  26.744  0.1541 -0.3069  0.1209
 1381DDP     C4 8286   9.664   0.209  26.477  0.1248  0.1784 -0.1074
 1382DDP     C1 8287  10.018  22.952   1.887 -0.1173  0.2690 -0.1672
 1382DDP     P1 8288   9.929  23.192   2.289 -0.1332 -0.2033 -0.3327
 1382DDP     P2 8289   9.626  23.111   1.695 -0.1942 -0.4260 -0.0164
 1382DDP     C2 8290   9.563  23.470   1.386 -0.2657  0.0939  0.0784
 1382DDP     C3 8291   9.838  23.424   2.646  0.3477  0.0760 -0.1635
 1382DDP     C4 8292  10.440  22.769   1.795  0.0729  0.1283  0.1142
 1383DDP     C1 8293  22.595  28.823   5.043 -0.1110 -0.0067 -0.2922
 1383DDP     P1 8294  22.535  28.420   4.894  0.1060  0.0979  0.1685
 1383DDP     P2 8295  23.072  28.886   5.224  0.0385 -0.3016 -0.0513
 1383DDP     C2 8296  23.349  29.158   5.574 -0.1110 -0.4512  0.0732
 1383DDP     C3 8297  22.619  27.991   4.813  0.0665 -0.0085 -0.0576
 1383DDP     C4 8298  22.317  29.139   5.048 -0.3613 -0.2019  0.1065
 1384DDP     C1 8299  14.197  29.619   0.051 -0.3271  0.0001 -0.1569
 1384DDP     P1 8300  14.324  29.291   0.150 -0.0120 -0.2048 -0.0854
 1384DDP     P2 8301  14.111  29.971   0.209  0.0156  0.1519 -0.1871
 1384DDP     C2 8302  13.897   0.004   0.390 -0.2307 -0.0012  0.2318
 1384DDP     C3 8303  14.529  28.819   0.090 -0.0975 -0.0176 -0.4002
 1384DDP     C4 8304  14.232  29.670  29.922  0.1454 -0.1271 -0.1304
 1385DDP     C1 8305   6.677   6.836  24.622 -0.2981 -0.3302  0.1669
 1385DDP     P1 8306   6.319   6.718  24.336 -0.3557 -0.0888  0.0579
 1385DDP     P2 8307   7.073   6.975  24.483  0.0027 -0.0317 -0.0203
 1385DDP     C2 8308   7.557   6.703  24.547  0.0357 -0.1284  0.1460
 1385DDP     C3 8309   5.941   6.612  24.151  0.2923 -0.1550  0.1603
 1385DDP     C4 8310   6.690   6.900  25.065  0.0959 -0.0259 -0.0343
 1386DDP     C1 8311  13.335  12.028   8.073 -0.3622  0.1483 -0.1442
 1386DDP     P1 8312  13.007  12.317   8.212 -0.1533 -0.1833 -0.0484
 1386DDP     P2 8313  13.598  11.857   8.411 -0.3399  0.0348 -0.1289
 1386DDP     C2 8314  13.676  11.687   8.827  0.1940  0.0937 -0.1258
 1386DDP     C3 8315  12.654  12.529   8.137  0.3814 -0.0930  0.1722
 1386DDP     C4 8316  13.528  12.056   7.537 -0.1537 -0.0878 -0.2273
 1387DDP     C1 8317  29.503  25.466   7.464 -0.2914  0.0816 -0.0974
 1387DDP     P1 8318  29.480  25.194   7.140 -0.3221 -0.1368  0.0742
 1387DDP     P2 8319  29.776  25.783   7.477 -0.0845  0.1502  0.1165
 1387DDP     C2 8320  29.968  26.125   7.128  0.0136 -0.0061 -0.1527
 1387DDP     C3 8321  29.238  25.041   6.766  0.1253  0.1468  0.0755
 1387DDP     C4 8322  29.303  25.277   7.917 -0.1408  0.0670  0.0592
 1388DDP     C1 8323  23.730   1.490  21.976  0.1542 -0.1450  0.3118
 1388DDP     P1 8324  23.362   1.336  21.818 -0.1643  0.0472  0.3936
 1388DDP     P2 8325  23.836   1.912  22.313  0.0419 -0.0240  0.1779
 1388DDP     C2 8326  24.073   2.280  22.548  0.0606  0.1145 -0.2221
 1388DDP     C3 8327  23.139   1.691  21.563 -0.2097  0.1705 -0.2372
 1388DDP     C4 8328  23.918   1.091  21.993 -0.2958  0.1957 -0.0703
 1389DDP     C1 8329  17.362  26.314   3.963  0.1879 -0.1620  0.0053
 1389DDP     P1 8330  17.701  26.039   3.951  0.1735 -0.1217 -0.2405
 1389DDP     P2 8331  17.106  26.280   3.639 -0.1222 -0.0488  0.0461
 1389DDP     C2 8332  17.013  26.196   3.293 -0.0544 -0.1108 -0.0078
 1389DDP     C3 8333  17.610  25.586   4.070 -0.1959 -0.0161 -0.1108
 1389DDP     C4 8334  17.392  26.707   4.094  0.0680 -0.3085 -0.0795
 1390DDP     C1 8335  16.376  15.800  23.021 -0.0781  0.2008  0.2003
 1390DDP     P1 8336  16.429  16.126  22.740  0.0467 -0.0523 -0.1434
 1390DDP     P2 8337  16.771  15.614  23.228 -0.1264  0.0013 -0.1322
 1390DDP     C2 8338  17.124  15.385  23.165  0.1309 -0.1158  0.1135
 1390DDP     C3 8339  16.399  16.268  22.351 -0.2129  0.1142 -0.1235
 1390DDP     C4 8340  15.967  15.899  23.077 -0.2566  0.0052 -0.2047
 1391DDP     C1 8341  19.303  17.388  29.994 -0.0301 -0.0279  0.2448
 1391DDP     P1 8342  19.595  17.286   0.067  0.0773 -0.0069 -0.1119
 1391DDP     P2 8343  19.594  17.161  29.727 -0.0292 -0.0266 -0.0938
 1391DDP     C2 8344  19.802  17.015  29.366 -0.0225  0.0059  0.0817
 1391DDP     C3 8345  19.709  17.063   0.394 -0.0931 -0.1772 -0.1381
 1391DDP     C4 8346  19.136  17.749  30.090 -0.0326 -0.0370  0.1727
 1392DDP     C1 8347  25.508   9.175   3.063  0.1811 -0.1724 -0.2522
 1392DDP     P1 8348  25.449   9.017   2.626 -0.4579 -0.2306  0.0246
 1392DDP     P2 8349  25.178   9.127   3.223 -0.4194  0.0930  0.1659
 1392DDP     C2 8350  24.712   9.143   3.129  0.0583  0.0575 -0.1673
 1392DDP     C3 8351  25.180   8.952   2.277 -0.0160  0.2495 -0.0892
 1392DDP     C4 8352  25.863   9.343   3.311 -0.0864  0.2150  0.1616
 1393DDP     C1 8353  21.988   1.290  17.765 -0.2953  0.2605 -0.1278
 1393DDP     P1 8354  22.229   1.389  17.360  0.1162  0.3321 -0.3316
 1393DDP     P2 8355  21.793   0.908  17.681  0.2344  0.1444 -0.0347
 1393DDP     C2 8356  22.237   0.585  17.510 -0.1294  0.0557  0.3749
 1393DDP     C3 8357  22.371   1.718  17.088  0.2298  0.0113 -0.3387
 1393DDP     C4 8358  22.070   1.509  18.186  0.0091 -0.1625 -0.0549
 1394DDP     C1 8359  20.819  15.194  23.858 -0.1466 -0.2675  0.3593
 1394DDP     P1 8360  21.097  15.046  23.570 -0.2978 -0.4111  0.0117
 1394DDP     P2 8361  20.555  15.470  23.751 -0.1542  0.0541  0.0961
 1394DDP     C2 8362  20.104  15.620  23.935  0.0165 -0.0647  0.0022
 1394DDP     C3 8363  21.326  14.760  23.201 -0.2189 -0.2520 -0.2859
 1394DDP     C4 8364  20.861  15.298  24.188  0.1384 -0.2579  0.1541
 1395DDP     C1 8365   7.366  24.722   3.878 -0.1115  0.1197 -0.2286
 1395DDP     P1 8366   7.814  24.899   3.880 -0.0926 -0.1070  0.0280
 1395DDP     P2 8367   7.403  24.293   4.105  0.1085 -0.1419 -0.3341
 1395DDP     C2 8368   7.447  23.942   4.289 -0.1651 -0.3784 -0.0534
 1395DDP     C3 8369   8.009  25.246   3.992  0.1102  0.2547  0.0797
 1395DDP     C4 8370   7.097  24.859   3.522 -0.2111  0.0658 -0.2659
 1396DDP     C1 8371  23.101   8.160  17.374 -0.0446 -0.1341 -0.2815
 1396DDP     P1 8372  22.887   7.874  17.147  0.1865 -0.2688  0.0277
 1396DDP     P2 8373  23.513   7.968  17.584 -0.1992 -0.2432 -0.0873
 1396DDP     C2 8374  23.697   7.578  17.778  0.0928 -0.1290  0.1649
 1396DDP     C3 8375  22.626   7.825  16.801  0.0417  0.0249 -0.1884
 1396DDP     C4 8376  22.950   8.497  17.533 -0.0173 -0.0864  0.0075
 1397DDP     C1 8377  12.111  26.488  27.037 -0.1621 -0.0728  0.2086
 1397DDP     P1 8378  11.824  26.258  26.729  0.1855  0.1300  0.1035
 1397DDP     P2 8379  12.173  26.400  27.452 -0.5019 -0.0465  0.2051
 1397DDP     C2 8380  12.122  26.287  27.831  0.0635  0.2597  0.3312
 1397DDP     C3 8381  11.595  26.390  26.477  0.3675  0.0094 -0.0716
 1397DDP     C4 8382  12.481  26.551  26.771  0.0015  0.1449  0.1224
 1398DDP     C1 8383  14.806  13.289   9.562 -0.0214  0.4949  0.3844
 1398DDP     P1 8384  15.198  13.121   9.761 -0.0715 -0.1910  0.2199
 1398DDP     P2 8385  14.578  13.596   9.830  0.1573  0.1006  0.5652
 1398DDP     C2 8386  14.393  13.828  10.281  0.0484 -0.0919  0.1062
 1398DDP     C3 8387  15.521  12.842   9.671 -0.1912  0.0559 -0.0300
 1398DDP     C4 8388  14.576  13.240   9.240 -0.3079 -0.0438  0.2762
 1399DDP     C1 8389  22.347  17.567  27.467  0.0101  0.0897 -0.0480
 1399DDP     P1 8390  22.151  17.338  27.756  0.1527  0.1223  0.0399
 1399DDP     P2 8391  22.305  17.374  27.152  0.0586 -0.1439  0.0897
 1399DDP     C2 8392  22.084  17.147  26.790  0.1255 -0.0652 -0.1305
 1399DDP     C3 8393  22.069  17.046  27.955  0.0859 -0.1830 -0.1432
 1399DDP     C4 8394  22.503  17.927  27.585 -0.0324 -0.1993  0.2123
 1400DDP     C1 8395  21.662   1.648  18.945 -0.1376 -0.0675  0.0214
 1400DDP     P1 8396  22.141   1.421  18.907  0.2288 -0.0434  0.2629
 1400DDP     P2 8397  21.541   2.082  18.822 -0.1936 -0.1258  0.1316
 1400DDP     C2 8398  21.488   2.563  18.771 -0.2683  0.0483  0.3468
 1400DDP     C3 8399  22.385   1.382  18.593  0.1488  0.0675  0.0207
 1400DDP     C4 8400  21.351   1.352  19.177  0.1862  0.0081  0.3092
 1401DDP     C1 8401  15.111  24.116  26.569  0.0905  0.1526  0.2688
 1401DDP     P1 8402  15.124  23.692  26.282  0.2095 -0.0708  0.0722
 1401DDP     P2 8403  15.505  24.405  26.575 -0.3145 -0.0586  0.1906
 1401DDP     C2 8404  15.861  24.732  26.594 -0.2164 -0.0128  0.1126
 1401DDP     C3 8405  14.893  23.291  26.124 -0.1671  0.1073 -0.2118
 1401DDP     C4 8406  14.817  24.223  26.960 -0.0934  0.0547  0.0210
 1402DDP     C1 8407  24.946  16.878   0.353 -0.2998 -0.0868  0.1713
 1402DDP     P1 8408  25.360  16.803   0.291 -0.0688 -0.0091 -0.0501
 1402DDP     P2 8409  24.721  16.589   0.668 -0.3966 -0.0343  0.1838
 1402DDP     C2 8410  24.458  16.197   0.794 -0.1418  0.0767  0.0961
 1402DDP     C3 8411  25.731  16.920   0.459 -0.0840 -0.0497  0.0173
 1402DDP     C4 8412  24.562  17.074   0.371 -0.0490  0.1982 -0.0087
 1403DDP     C1 8413   2.706  17.513   0.516  0.1333 -0.1949 -0.1477
 1403DDP     P1 8414   2.435  17.296   0.740  0.2059 -0.0376 -0.1014
 1403DDP     P2 8415   2.780  18.010   0.395 -0.0108 -0.2001 -0.3623
 1403DDP     C2 8416   2.557  18.424   0.299 -0.0431 -0.0772  0.0785
 1403DDP     C3 8417   2.384  16.920   0.907 -0.0860 -0.0866  0.1208
 1403DDP     C4 8418   2.868  17.237   0.208  0.2497 -0.0751  0.1250
 1404DDP     C1 8419  14.883  14.299   6.064  0.0394  0.4280  0.2623
 1404DDP     P1 8420  14.933  14.594   6.289 -0.2713  0.3075 -0.3284
 1404DDP     P2 8421  14.587  14.065   6.392 -0.3652 -0.2302  0.0674
 1404DDP     C2 8422  14.575  13.665   6.346 -0.0340  0.0084  0.2135
 1404DDP     C3 8423  15.211  14.730   6.584  0.0053 -0.2925  0.1050
 1404DDP     C4 8424  15.102  14.155   5.760  0.0425 -0.1351  0.0450
 1405DDP     C1 8425  25.537  23.196  12.834  0.0140 -0.3398 -0.0096
 1405DDP     P1 8426  25.556  22.917  13.096  0.0210  0.0122 -0.2901
 1405DDP     P2 8427  25.302  22.897  12.541 -0.2307 -0.1945 -0.0549
 1405DDP     C2 8428  24.978  22.695  12.188 -0.2116 -0.1632  0.0495
 1405DDP     C3 8429  25.386  22.618  13.426  0.1021  0.4921  0.1795
 1405DDP     C4 8430  25.715  23.617  12.779 -0.1459 -0.0293  0.0215
 1406DDP     C1 8431  13.688   3.757   2.767  0.2445 -0.1143  0.0475
 1406DDP     P1 8432  13.602   3.333   2.564  0.3432  0.0880  0.0220
 1406DDP     P2 8433  14.080   3.995   2.644  0.1819 -0.0296  0.2650
 1406DDP     C2 8434  14.423   4.249   2.417  0.0306 -0.0248  0.0484
 1406DDP     C3 8435  13.711   2.943   2.285  0.0055  0.1622 -0.2200
 1406DDP     C4 8436  13.227   3.934   2.725  0.1676  0.2166 -0.0805
 1407DDP     C1 8437  28.250  12.553   8.103  0.2258 -0.0567 -0.1070
 1407DDP     P1 8438  28.315  12.756   7.843  0.4420 -0.0667  0.0917
 1407DDP     P2 8439  28.025  12.834   8.489  0.0438  0.0302 -0.1480
 1407DDP     C2 8440  27.780  13.076   8.493 -0.1051  0.0301 -0.1736
 1407DDP     C3 8441  28.662  12.872   7.787  0.2282 -0.0952  0.1372
 1407DDP     C4 8442  28.406  12.153   7.819 -0.1020 -0.2692  0.1091
 1408DDP     C1 8443  30.197  12.302   3.808  0.2221  0.1235 -0.2296
 1408DDP     P1 8444   0.100  12.426   4.236 -0.0571  0.3005 -0.1763
 1408DDP     P2 8445  29.724  12.215   3.665  0.0415  0.2188 -0.3842
 1408DDP     C2 8446  29.307  12.532   3.465 -0.0020  0.0621 -0.3077
 1408DDP     C3 8447   0.095  12.506   4.668 -0.1591 -0.3947  0.0130
 1408DDP     C4 8448   0.221  12.315   3.504  0.3289 -0.0614  0.2332
 1409DDP     C1 8449  24.323  12.318  24.541 -0.3720 -0.2742  0.1420
 1409DDP     P1 8450  24.192  12.728  24.509 -0.0500  0.0029 -0.3929
 1409DDP     P2 8451  24.130  11.953  24.634 -0.0262  0.0096 -0.0819
 1409DDP     C2 8452  24.242  11.544  24.645  0.0033  0.1634 -0.1146
 1409DDP     C3 8453  24.095  13.093  24.344 -0.2140  0.2826  0.1503
 1409DDP     C4 8454  24.791  12.179  24.533  0.0962 -0.2000  0.0701
 1410DDP     C1 8455  21.203   0.224  20.729 -0.1255 -0.1273 -0.0168
 1410DDP     P1 8456  21.683   0.363  20.968  0.0292  0.2277  0.2441
 1410DDP     P2 8457  20.995   0.198  20.288 -0.2117 -0.0498 -0.1106
 1410DDP     C2 8458  20.800   0.122  19.837 -0.0017  0.1450 -0.2908
 1410DDP     C3 8459  22.018   0.654  20.723  0.1342 -0.1397 -0.2789
 1410DDP     C4 8460  20.851  30.319  20.891  0.0161  0.1194 -0.1649
 1411DDP     C1 8461  23.294   6.800  27.031 -0.3178 -0.5501  0.0641
 1411DDP     P1 8462  23.062   7.042  27.300 -0.1026  0.2129 -0.1179
 1411DDP     P2 8463  23.188   6.470  27.042 -0.1220  0.0079 -0.1293
 1411DDP     C2 8464  22.880   6.268  26.923  0.3388  0.2518  0.2205
 1411DDP     C3 8465  22.940   6.870  27.731  0.1086 -0.0577 -0.0904
 1411DDP     C4 8466  23.679   6.920  26.767  0.0802 -0.1653 -0.2535
 1412DDP     C1 8467  13.031  12.940  19.585  0.1248 -0.1186  0.1758
 1412DDP     P1 8468  13.123  13.025  19.975 -0.0377  0.2290  0.3363
 1412DDP     P2 8469  13.275  13.110  19.362  0.1061 -0.2947  0.1725
 1412DDP     C2 8470  13.400  13.233  19.015 -0.0087  0.2113  0.0305
 1412DDP     C3 8471  13.510  12.833  20.250 -0.0515 -0.2043  0.0113
 1412DDP     C4 8472  12.644  12.713  19.494  0.0767  0.1517 -0.0595
 1413DDP     C1 8473  28.514   6.037  17.821  0.2578  0.2742  0.3540
 1413DDP     P1 8474  28.789   5.673  17.631  0.1351  0.1444 -0.0012
 1413DDP     P2 8475  28.286   6.188  17.418  0.0591 -0.0279 -0.3298
 1413DDP     C2 8476  28.381   6.125  17.048  0.0774 -0.0552  0.0629
 1413DDP     C3 8477  28.756   5.378  17.382 -0.0049  0.2277  0.1897
 1413DDP     C4 8478  28.292   6.004  18.239 -0.0010  0.2521  0.1838
 1414DDP     C1 8479  14.130  11.407   7.332 -0.1439  0.1296  0.4239
 1414DDP     P1 8480  13.812  11.712   7.090 -0.0802 -0.0308  0.0854
 1414DDP     P2 8481  14.591  11.402   7.170  0.1467  0.1486  0.0547
 1414DDP     C2 8482  15.089  11.316   7.192 -0.1203  0.0205  0.3720
 1414DDP     C3 8483  13.787  11.978   6.704  0.2776  0.1917  0.0381
 1414DDP     C4 8484  14.019  11.199   7.744 -0.3779 -0.0542  0.0574
 1415DDP     C1 8485  10.950  22.397  29.752  0.0035 -0.2536  0.1762
 1415DDP     P1 8486  11.372  22.314  29.598  0.0889 -0.0941  0.1682
 1415DDP     P2 8487  10.904  22.709  30.028  0.0569  0.0503 -0.0287
 1415DDP     C2 8488  10.529  22.817  30.236 -0.0873  0.2588  0.0003
 1415DDP     C3 8489  11.720  22.310  29.406  0.0058  0.0727  0.0552
 1415DDP     C4 8490  10.534  22.408  29.550  0.2666 -0.3919 -0.2140
 1416DDP     C1 8491  29.441  24.186  29.898 -0.0327  0.1739 -0.1789
 1416DDP     P1 8492  29.439  24.220  29.404  0.0578  0.3317  0.2402
 1416DDP     P2 8493  29.175  23.971  30.206 -0.2886  0.0355 -0.1925
 1416DDP     C2 8494  29.150  23.467   0.017 -0.0447  0.2265 -0.4154
 1416DDP     C3 8495  29.142  23.987  29.039 -0.1533 -0.0051 -0.0264
 1416DDP     C4 8496  29.805  24.243  30.026 -0.2249  0.1453  0.1167
 1417DDP     C1 8497  27.282  11.456  13.755  0.0155  0.1616 -0.0896
 1417DDP     P1 8498  27.616  11.169  13.803 -0.1098 -0.1854 -0.0044
 1417DDP     P2 8499  27.445  11.852  13.900  0.1507  0.1333  0.0974
 1417DDP     C2 8500  27.110  12.198  13.957 -0.1805 -0.0056  0.1400
 1417DDP     C3 8501  27.775  10.786  13.515  0.1033 -0.0568 -0.4322
 1417DDP     C4 8502  26.885  11.322  13.787  0.1629 -0.1148 -0.1044
 1418DDP     C1 8503   2.732  11.166  24.266 -0.1593  0.1454 -0.3864
 1418DDP     P1 8504   3.047  11.336  24.294 -0.0537  0.5409  0.0474
 1418DDP     P2 8505   2.441  11.440  24.011 -0.2088 -0.1201 -0.0063
 1418DDP     C2 8506   2.147  11.640  23.676 -0.2779 -0.0708 -0.0193
 1418DDP     C3 8507   3.260  11.714  24.383  0.0579  0.0668 -0.3787
 1418DDP     C4 8508   2.707  10.726  24.466  0.0817 -0.1010  0.2659
 1419DDP     C1 8509  26.528  11.884   0.673  0.1353 -0.4418  0.1912
 1419DDP     P1 8510  26.441  12.196   0.369 -0.1755  0.0164  0.1079
 1419DDP     P2 8511  26.600  11.585   0.394 -0.2663 -0.1461 -0.3889
 1419DDP     C2 8512  26.813  11.118   0.190 -0.2408 -0.2317 -0.1096
 1419DDP     C3 8513  26.187  12.315   0.050  0.2673 -0.1834 -0.2260
 1419DDP     C4 8514  26.442  11.731   1.072 -0.2093 -0.3101  0.2179
 1420DDP     C1 8515  24.376  16.712  29.515  0.0091  0.1316 -0.0970
 1420DDP     P1 8516  24.106  16.678  29.127  0.1328  0.1568  0.0901
 1420DDP     P2 8517  24.705  16.360  29.610 -0.1740 -0.3080 -0.0085
 1420DDP     C2 8518  24.863  15.985  29.870 -0.0905 -0.1666  0.0275
 1420DDP     C3 8519  23.996  16.213  29.073 -0.0597 -0.1450  0.1713
 1420DDP     C4 8520  24.324  17.140  29.623  0.3090  0.0317  0.0092
 1421DDP     C1 8521  17.439  19.145  23.755 -0.2687 -0.2769 -0.3604
 1421DDP     P1 8522  17.851  19.237  23.762 -0.1060 -0.0728 -0.0610
 1421DDP     P2 8523  17.170  19.316  23.967 -0.3684 -0.1974 -0.1371
 1421DDP     C2 8524  17.133  19.336  24.374 -0.2957  0.1528 -0.0023
 1421DDP     C3 8525  18.219  19.201  24.047  0.2539 -0.0549  0.1734
 1421DDP     C4 8526  17.429  18.984  23.366 -0.1277 -0.0459  0.3325
 1422DDP     C1 8527  14.773  23.652   2.677 -0.1321  0.1567  0.0719
 1422DDP     P1 8528  14.764  23.559   3.176 -0.0427 -0.1207 -0.2400
 1422DDP     P2 8529  14.878  23.311   2.283  0.2165 -0.1770 -0.2118
 1422DDP     C2 8530  14.606  22.860   2.274  0.0328 -0.2563  0.3059
 1422DDP     C3 8531  14.566  23.613   3.582 -0.0868  0.2387 -0.0946
 1422DDP     C4 8532  14.716  24.105   2.607 -0.0035  0.1896 -0.0022
 1423DDP     C1 8533  30.164  15.754  12.349 -0.0731  0.2344 -0.1896
 1423DDP     P1 8534  30.028  15.609  12.814  0.1495 -0.2326 -0.2376
 1423DDP     P2 8535   0.152  15.458  12.315  0.1017 -0.0864  0.1353
 1423DDP     C2 8536   0.431  15.081  12.266  0.1119 -0.0519 -0.1750
 1423DDP     C3 8537  29.734  15.604  13.198  0.3001  0.3458 -0.2883
 1423DDP     C4 8538  29.987  16.181  12.215 -0.3930  0.3729  0.0033
 1424DDP     C1 8539   8.346  22.305  29.960  0.4578  0.1488 -0.0498
 1424DDP     P1 8540   8.480  22.705  30.105  0.2217  0.0648  0.2368
 1424DDP     P2 8541   8.780  22.123  29.948  0.0154  0.1925  0.0400
 1424DDP     C2 8542   9.204  22.007  29.836 -0.1120 -0.0395 -0.1886
 1424DDP     C3 8543   8.380  23.026   0.062 -0.0904 -0.1119  0.1213
 1424DDP     C4 8544   7.856  22.294  30.225  0.1454  0.0937  0.1406
 1425DDP     C1 8545   1.193   0.909  18.321 -0.1031 -0.3326 -0.1411
 1425DDP     P1 8546   1.537   1.165  18.500 -0.2194  0.0514 -0.1677
 1425DDP     P2 8547   0.950   1.018  17.885  0.0383 -0.0881  0.2013
 1425DDP     C2 8548   0.574   0.997  17.743  0.0953 -0.0339 -0.0311
 1425DDP     C3 8549   1.799   1.363  18.783  0.2503  0.2482  0.1053
 1425DDP     C4 8550   0.795   0.762  18.620  0.0421  0.0992 -0.1549
 1426DDP     C1 8551  26.800   6.705  22.890  0.2183 -0.0820  0.1873
 1426DDP     P1 8552  26.440   6.966  22.588 -0.1461  0.0621 -0.3681
 1426DDP     P2 8553  27.113   6.927  22.992 -0.0581 -0.4178  0.2701
 1426DDP     C2 8554  27.509   7.235  22.856  0.4315 -0.1441 -0.0874
 1426DDP     C3 8555  26.406   7.356  22.458  0.3919 -0.0408 -0.2514
 1426DDP     C4 8556  26.555   6.540  23.145 -0.0872  0.2779 -0.2199
 1427DDP     C1 8557  29.569   6.532  22.921 -0.2012  0.1013 -0.0318
 1427DDP     P1 8558  29.409   6.775  23.137  0.3468 -0.1040 -0.1497
 1427DDP     P2 8559  29.932   6.267  23.013 -0.1825 -0.2200  0.1137
 1427DDP     C2 8560  29.994   5.829  22.692  0.0777  0.2801  0.1861
 1427DDP     C3 8561  28.975   7.078  23.216  0.0333  0.0747 -0.0299
 1427DDP     C4 8562  29.250   6.293  22.633  0.0298  0.1433 -0.0404
 1428DDP     C1 8563  15.867   1.701  20.599  0.0473 -0.0856  0.0916
 1428DDP     P1 8564  15.589   2.068  20.449  0.1266  0.0013 -0.0297
 1428DDP     P2 8565  16.328   1.583  20.709  0.0908  0.1709 -0.0358
 1428DDP     C2 8566  16.640   1.276  20.618 -0.1847 -0.1459 -0.3614
 1428DDP     C3 8567  15.179   2.222  20.488  0.1497  0.1613  0.1580
 1428DDP     C4 8568  15.628   1.298  20.812 -0.1602 -0.0243 -0.0132
 1429DDP     C1 8569  14.734  21.030   5.657  0.0752 -0.0813  0.1963
 1429DDP     P1 8570  14.372  21.039   5.225 -0.0870  0.0142  0.0538
 1429DDP     P2 8571  14.402  21.073   6.088 -0.0058 -0.0429 -0.1627
 1429DDP     C2 8572  14.154  20.807   6.499  0.0594 -0.0344  0.0290
 1429DDP     C3 8573  14.216  21.272   5.029 -0.0851  0.1013 -0.0011
 1429DDP     C4 8574  15.194  20.895   5.618 -0.0657  0.1281  0.0601
 1430DDP     C1 8575  12.036  12.831  10.942  0.1031 -0.5261 -0.0270
 1430DDP     P1 8576  12.001  13.074  11.257 -0.1009  0.4593  0.1792
 1430DDP     P2 8577  12.322  13.112  10.655  0.2310 -0.0122  0.1840
 1430DDP     C2 8578  12.357  13.037  10.249  0.4200  0.1782 -0.0782
 1430DDP     C3 8579  11.732  13.349  11.631 -0.2317 -0.1807  0.0464
 1430DDP     C4 8580  11.682  12.478  10.827 -0.0474  0.0029  0.1141
 1431DDP     C1 8581  16.608  12.335  29.900 -0.0606 -0.4429  0.0314
 1431DDP     P1 8582  16.586  12.120  30.284 -0.0810 -0.0473  0.3605
 1431DDP     P2 8583  16.237  12.297  29.705  0.3118  0.0693 -0.2198
 1431DDP     C2 8584  16.008  11.971  29.822 -0.0223 -0.3591 -0.0663
 1431DDP     C3 8585  16.390  11.794   0.151 -0.2607 -0.0302  0.0514
 1431DDP     C4 8586  16.918  12.587  29.837 -0.0830 -0.0557 -0.0716
 1432DDP     C1 8587   2.651  25.739  16.998 -0.0052  0.0419  0.0772
 1432DDP     P1 8588   3.013  25.863  16.696  0.0012  0.3635  0.0378
 1432DDP     P2 8589   2.825  25.528  17.273 -0.0141 -0.1572 -0.1752
 1432DDP     C2 8590   2.740  25.242  17.554 -0.1331  0.2901 -0.3732
 1432DDP     C3 8591   3.198  26.086  16.363  0.0463  0.1316 -0.0228
 1432DDP     C4 8592   2.322  25.623  17.229 -0.0019  0.2048 -0.1916
 1433DDP     C1 8593  10.328   5.718  28.921  0.1005  0.2335  0.1798
 1433DDP     P1 8594   9.992   5.641  28.639  0.0224  0.0561 -0.2008
 1433DDP     P2 8595  10.482   5.401  29.223  0.0441  0.2214  0.0295
 1433DDP     C2 8596  10.318   5.131  29.416 -0.2298 -0.3884  0.2541
 1433DDP     C3 8597   9.741   5.279  28.648 -0.4493  0.2287 -0.3622
 1433DDP     C4 8598  10.329   6.171  29.064 -0.2713  0.3165 -0.0912
 1434DDP     C1 8599   5.801  12.686   7.698  0.3305 -0.0402 -0.1803
 1434DDP     P1 8600   5.605  12.505   8.041 -0.1320 -0.0747  0.1911
 1434DDP     P2 8601   6.204  12.979   7.676 -0.0945  0.1236  0.0324
 1434DDP     C2 8602   6.430  13.419   7.807 -0.1990  0.1734 -0.2075
 1434DDP     C3 8603   5.642  12.356   8.332 -0.0967 -0.2383  0.3073
 1434DDP     C4 8604   5.457  12.461   7.432  0.0657 -0.0497 -0.1219
 1435DDP     C1 8605  28.812  28.469  28.451 -0.1037  0.0192 -0.2110
 1435DDP     P1 8606  29.273  28.224  28.573 -0.0670  0.0816 -0.3810
 1435DDP     P2 8607  28.705  28.663  28.846  0.0655 -0.0198  0.1489
 1435DDP     C2 8608  28.244  28.409  29.136  0.0435  0.2570  0.0658
 1435DDP     C3 8609  29.716  28.144  28.379 -0.3361  0.4827 -0.1593
 1435DDP     C4 8610  28.554  28.521  28.104  0.1700  0.1159 -0.0533
 1436DDP     C1 8611  10.742  29.285   0.285  0.4285 -0.0015  0.1673
 1436DDP     P1 8612  11.114  29.292   0.167 -0.0214  0.1646 -0.0066
 1436DDP     P2 8613  10.594  28.862   0.275 -0.0215 -0.0523  0.1452
 1436DDP     C2 8614  10.414  28.506   0.461 -0.1087 -0.1597 -0.0838
 1436DDP     C3 8615  11.427  29.526   0.039  0.0735 -0.3353  0.1699
 1436DDP     C4 8616  10.352  29.564   0.315  0.4428 -0.2945  0.1108
 1437DDP     C1 8617   5.072   4.759  20.217  0.3913  0.1629  0.0569
 1437DDP     P1 8618   5.563   4.759  20.384  0.2563 -0.0291 -0.2013
 1437DDP     P2 8619   4.641   4.829  20.185  0.0204  0.0749 -0.0355
 1437DDP     C2 8620   4.277   4.939  19.809  0.5009  0.3230 -0.1000
 1437DDP     C3 8621   5.826   4.861  20.718 -0.1371 -0.0994  0.2844
 1437DDP     C4 8622   5.168   4.566  19.885 -0.1355 -0.1633 -0.2549
 1438DDP     C1 8623  24.576   1.550   4.293  0.1192  0.0327  0.0054
 1438DDP     P1 8624  24.976   1.613   4.543  0.2828 -0.2370  0.2484
 1438DDP     P2 8625  24.556   1.288   3.971  0.0334 -0.1187  0.1308
 1438DDP     C2 8626  24.708   1.300   3.581  0.0329  0.0359  0.0326
 1438DDP     C3 8627  25.363   1.927   4.633 -0.0432  0.1908 -0.1593
 1438DDP     C4 8628  24.220   1.869   4.306  0.1004 -0.0771  0.0892
 1439DDP     C1 8629  17.041   1.534  20.682 -0.1638  0.0623 -0.1552
 1439DDP     P1 8630  17.359   1.854  20.657 -0.0203  0.1365 -0.1072
 1439DDP     P2 8631  16.784   1.528  21.080 -0.3399  0.0700 -0.0151
 1439DDP     C2 8632  16.608   1.453  21.432  0.0195 -0.1185 -0.3335
 1439DDP     C3 8633  17.732   1.834  20.433 -0.1726 -0.3543 -0.1975
 1439DDP     C4 8634  17.020   1.127  20.393 -0.0066  0.1462  0.0213
 1440DDP     C1 8635  29.326  25.361   8.782 -0.0200  0.1954  0.1087
 1440DDP     P1 8636  28.989  25.130   8.850 -0.0945 -0.1453 -0.0509
 1440DDP     P2 8637  29.545  25.127   8.693  0.0430  0.2609 -0.2019
 1440DDP     C2 8638  29.724  24.670   8.587 -0.1947  0.1065  0.1799
 1440DDP     C3 8639  28.854  24.699   9.092 -0.4623  0.1942 -0.1808
 1440DDP     C4 8640  29.313  25.850   8.721  0.0591  0.2153  0.2286
 1441DDP     C1 8641  11.982  18.773  17.876 -0.4018 -0.0086  0.1718
 1441DDP     P1 8642  11.570  18.878  18.123  0.2628  0.1910  0.0100
 1441DDP     P2 8643  12.344  18.939  17.969  0.0603  0.1866  0.1831
 1441DDP     C2 8644  12.818  18.888  18.032 -0.2236 -0.1157 -0.0862
 1441DDP     C3 8645  11.302  19.061  17.994  0.1320 -0.0040  0.1850
 1441DDP     C4 8646  11.971  18.570  17.587  0.0127 -0.2379 -0.0341
 1442DDP     C1 8647  24.063  17.481  22.969  0.2645  0.1526 -0.4195
 1442DDP     P1 8648  24.090  17.801  22.686  0.3461  0.0651 -0.1058
 1442DDP     P2 8649  24.005  17.592  23.324  0.0128  0.0629  0.3255
 1442DDP     C2 8650  23.612  17.540  23.501  0.0534 -0.2433  0.2424
 1442DDP     C3 8651  24.013  18.273  22.713 -0.2258  0.1496 -0.0452
 1442DDP     C4 8652  24.082  17.134  22.812 -0.2482 -0.2643 -0.1391
 1443DDP     C1 8653  21.041  16.996   2.665 -0.3488 -0.1218 -0.1793
 1443DDP     P1 8654  21.139  16.679   3.060  0.0697 -0.1169  0.0388
 1443DDP     P2 8655  21.462  16.950   2.580  0.3696 -0.1028 -0.1034
 1443DDP     C2 8656  21.685  17.293   2.583  0.0253  0.6267 -0.0826
 1443DDP     C3 8657  20.805  16.437   3.145 -0.1527 -0.2271 -0.4089
 1443DDP     C4 8658  20.885  17.341   2.683  0.0287 -0.0370 -0.0296
 1444DDP     C1 8659  10.806  24.887  28.531  0.1430 -0.1676  0.0413
 1444DDP     P1 8660  10.652  24.675  28.884 -0.2778 -0.0475 -0.1293
 1444DDP     P2 8661  10.518  25.228  28.542 -0.0346  0.0870 -0.0940
 1444DDP     C2 8662  10.177  25.523  28.418 -0.4443 -0.4142  0.1609
 1444DDP     C3 8663  10.752  24.664  29.386  0.0212 -0.1997 -0.2863
 1444DDP     C4 8664  11.159  24.881  28.139  0.6077 -0.1357 -0.1401
 1445DDP     C1 8665  16.642   5.853   6.427 -0.2267  0.0349  0.0697
 1445DDP     P1 8666  16.801   6.252   6.297  0.2528  0.1649 -0.1986
 1445DDP     P2 8667  17.029   5.596   6.470 -0.0590  0.0794  0.0374
 1445DDP     C2 8668  17.189   5.542   6.842 -0.0045  0.1888 -0.1203
 1445DDP     C3 8669  16.701   6.454   5.966 -0.0097  0.0102  0.0954
 1445DDP     C4 8670  16.146   5.714   6.530  0.0349 -0.0470  0.1678
 1446DDP     C1 8671  29.901  23.305   7.166 -0.0358 -0.0579  0.0989
 1446DDP     P1 8672  29.853  23.565   7.534  0.0563  0.3878 -0.2177
 1446DDP     P2 8673  29.592  23.237   6.789 -0.4624  0.4882 -0.0872
 1446DDP     C2 8674  29.322  23.139   6.465  0.1017  0.0070 -0.0982
 1446DDP     C3 8675  29.845  23.971   7.733  0.2248 -0.0741  0.0673
 1446DDP     C4 8676  30.283  23.282   6.962  0.1152  0.0748  0.3845
 1447DDP     C1 8677   0.279  16.849  15.340 -0.1537 -0.0322  0.0263
 1447DDP     P1 8678   0.720  16.802  15.423 -0.1704 -0.1351  0.0485
 1447DDP     P2 8679   0.058  16.983  14.976  0.2936  0.1505 -0.2249
 1447DDP     C2 8680  -0.003  17.072  14.525 -0.3329  0.0196  0.4363
 1447DDP     C3 8681   1.059  16.971  15.271  0.2111  0.1594 -0.1845
 1447DDP     C4 8682  30.194  16.672  15.615 -0.1738  0.0238  0.1012
 1448DDP     C1 8683  23.951  14.596   4.644  0.0206  0.0050  0.0732
 1448DDP     P1 8684  23.970  14.815   4.307  0.0399 -0.2877  0.0059
 1448DDP     P2 8685  23.901  14.124   4.625  0.1154  0.1700 -0.0442
 1448DDP     C2 8686  23.749  13.746   4.562 -0.1029  0.1138 -0.2348
 1448DDP     C3 8687  23.828  14.813   3.895  0.0319 -0.0407 -0.1322
 1448DDP     C4 8688  24.123  14.667   5.005 -0.0842 -0.1658  0.0230
 1449DDP     C1 8689   2.788   4.261   0.153  0.1220  0.0125  0.1935
 1449DDP     P1 8690   2.531   4.240   0.486  0.0646  0.3641  0.0122
 1449DDP     P2 8691   2.917   4.661   0.048  0.4358 -0.0661 -0.0052
 1449DDP     C2 8692   2.714   5.102   0.111  0.1055 -0.3918 -0.0047
 1449DDP     C3 8693   2.367   4.386   0.776 -0.1483  0.0995  0.1829
 1449DDP     C4 8694   2.843   3.912  30.172  0.0537 -0.1210 -0.3157
 1450DDP     C1 8695  19.763   7.158  25.875 -0.0453 -0.2587  0.0456
 1450DDP     P1 8696  19.485   7.535  26.041 -0.1108 -0.0933  0.0932
 1450DDP     P2 8697  19.779   6.718  25.884 -0.0929  0.0099  0.4477
 1450DDP     C2 8698  19.662   6.416  26.171  0.0214  0.0075  0.0357
 1450DDP     C3 8699  19.290   7.741  25.575 -0.0763  0.0374 -0.0460
 1450DDP     C4 8700  20.131   7.149  25.508  0.1644  0.0545 -0.0122
 1451DDP     C1 8701   0.224   8.503  28.376 -0.0266  0.0822 -0.1253
 1451DDP     P1 8702   0.049   8.765  28.648 -0.2208  0.2703  0.0020
 1451DDP     P2 8703   0.085   8.021  28.262 -0.1466 -0.2211  0.1160
 1451DDP     C2 8704   0.128   7.582  28.281 -0.0022 -0.3257  0.1215
 1451DDP     C3 8705   0.024   8.790  29.111 -0.3193 -0.0751  0.1461
 1451DDP     C4 8706   0.716   8.554  28.308 -0.1613 -0.0070  0.0069
 1452DDP     C1 8707  25.003  29.575  24.693 -0.0087 -0.1692 -0.0258
 1452DDP     P1 8708  24.639  29.334  24.688  0.2351  0.0052  0.1691
 1452DDP     P2 8709  25.031  29.820  24.292  0.2256  0.2897 -0.2124
 1452DDP     C2 8710  24.829  30.023  24.018 -0.2792 -0.0849  0.0035
 1452DDP     C3 8711  24.500  28.960  24.903  0.1076 -0.0062  0.0875
 1452DDP     C4 8712  25.253  29.535  25.020 -0.3139  0.0173 -0.2407
 1453DDP     C1 8713   3.786  29.864  17.121 -0.0450 -0.0257 -0.2582
 1453DDP     P1 8714   3.794  29.568  17.484 -0.0117  0.0522 -0.2815
 1453DDP     P2 8715   3.656  29.863  16.648 -0.0696 -0.1095 -0.2468
 1453DDP     C2 8716   3.194  29.866  16.441 -0.0904 -0.0328  0.0764
 1453DDP     C3 8717   3.692  29.380  17.845  0.0552 -0.0881 -0.1875
 1453DDP     C4 8718   4.121  30.220  17.168 -0.0731 -0.1060 -0.0907
 1454DDP     C1 8719  29.798  12.014   6.407 -0.0951 -0.1732 -0.0317
 1454DDP     P1 8720  29.893  11.765   6.140  0.1737  0.2114  0.0811
 1454DDP     P2 8721  29.419  12.001   6.400  0.1657  0.0974 -0.1983
 1454DDP     C2 8722  28.916  11.894   6.400 -0.0571 -0.3004 -0.1953
 1454DDP     C3 8723  30.255  11.677   5.902  0.2456 -0.3299  0.2052
 1454DDP     C4 8724  30.061  12.361   6.573 -0.3913 -0.0684  0.0192
 1455DDP     C1 8725  21.617  28.607   8.395  0.1497 -0.1386  0.4185
 1455DDP     P1 8726  21.900  28.590   8.666 -0.1307 -0.0814  0.0054
 1455DDP     P2 8727  21.794  28.461   8.012  0.2746  0.1269  0.3122
 1455DDP     C2 8728  22.099  28.383   7.665  0.1447 -0.2318  0.5869
 1455DDP     C3 8729  22.178  28.957   8.817 -0.0092  0.2224 -0.0548
 1455DDP     C4 8730  21.191  28.866   8.366 -0.0023  0.0333 -0.0930
 1456DDP     C1 8731  26.234  28.983  24.758  0.2233 -0.3340  0.1075
 1456DDP     P1 8732  26.411  28.692  25.082  0.0668  0.0980 -0.0217
 1456DDP     P2 8733  25.910  29.002  24.536 -0.1369  0.0226  0.0070
 1456DDP     C2 8734  25.623  29.022  24.175 -0.0474  0.2747  0.1045
 1456DDP     C3 8735  26.587  28.331  25.351 -0.2078 -0.2233 -0.0999
 1456DDP     C4 8736  26.426  29.290  24.533  0.2203  0.4178  0.0347
 1457DDP     C1 8737  21.480   9.949   9.646 -0.0209  0.0952  0.1005
 1457DDP     P1 8738  21.498   9.859   9.163 -0.1023  0.0782  0.1602
 1457DDP     P2 8739  21.907   9.894   9.777  0.0370  0.0743  0.0850
 1457DDP     C2 8740  22.135   9.524   9.890  0.0164  0.0558  0.1282
 1457DDP     C3 8741  21.706   9.902   8.803 -0.0408  0.3090 -0.0496
 1457DDP     C4 8742  21.353   9.809  10.062  0.1982 -0.1029  0.0734
 1458DDP     C1 8743  29.206   0.957   3.399  0.2473  0.0292  0.1930
 1458DDP     P1 8744  28.882   1.064   3.292  0.1198 -0.0969  0.1890
 1458DDP     P2 8745  29.326   0.595   3.291 -0.0339 -0.0176  0.2385
 1458DDP     C2 8746  29.279   0.205   3.089  0.0283 -0.2342  0.3297
 1458DDP     C3 8747  28.511   1.210   3.498 -0.0780  0.2826 -0.1526
 1458DDP     C4 8748  29.565   1.130   3.627  0.0743  0.1641 -0.2623
 1459DDP     C1 8749   5.921   8.085  28.343 -0.0673  0.0461 -0.2151
 1459DDP     P1 8750   5.897   8.404  28.656 -0.1553 -0.1468  0.2691
 1459DDP     P2 8751   5.706   8.118  27.988 -0.0263 -0.0194 -0.0823
 1459DDP     C2 8752   5.792   8.072  27.520 -0.3301  0.2873 -0.0575
 1459DDP     C3 8753   5.877   8.784  28.643  0.2849 -0.0713  0.0420
 1459DDP     C4 8754   6.265   7.856  28.268  0.2720 -0.1896 -0.0043
 1460DDP     C1 8755  13.131   8.025   5.049 -0.1812 -0.0226  0.2852
 1460DDP     P1 8756  13.472   7.728   4.906  0.2021  0.2771 -0.2551
 1460DDP     P2 8757  12.744   7.855   5.203 -0.2080  0.1003  0.3540
 1460DDP     C2 8758  12.355   7.540   5.395  0.2859  0.4116  0.1310
 1460DDP     C3 8759  13.643   7.821   4.531 -0.0283 -0.0958 -0.0889
 1460DDP     C4 8760  13.211   8.428   5.015  0.3039  0.3624  0.1381
 1461DDP     C1 8761  22.775  16.571   7.883 -0.3628 -0.0118 -0.2627
 1461DDP     P1 8762  22.474  16.735   7.640 -0.1550  0.1366  0.0644
 1461DDP     P2 8763  23.143  16.216   7.708  0.0786  0.0619 -0.0385
 1461DDP     C2 8764  23.430  16.054   7.937 -0.0347  0.2962  0.4368
 1461DDP     C3 8765  22.469  16.710   7.159 -0.1811  0.1337 -0.1222
 1461DDP     C4 8766  22.744  16.773   8.291 -0.0005 -0.0447  0.1933
 1462DDP     C1 8767   3.359  24.274  15.748  0.1730  0.1962 -0.2712
 1462DDP     P1 8768   3.644  24.039  15.521 -0.3129 -0.0652  0.0093
 1462DDP     P2 8769   2.952  24.031  15.778  0.3747 -0.1012  0.0133
 1462DDP     C2 8770   2.881  23.690  16.010 -0.1606  0.0703 -0.0124
 1462DDP     C3 8771   3.718  23.577  15.382 -0.0158  0.0485 -0.0546
 1462DDP     C4 8772   3.426  24.724  15.748  0.1226 -0.1821 -0.1987
 1463DDP     C1 8773  26.006  10.653   5.816 -0.0948 -0.2761  0.1886
 1463DDP     P1 8774  26.238  11.077   5.928 -0.2528 -0.4189 -0.0854
 1463DDP     P2 8775  26.191  10.317   5.952 -0.2385 -0.0178 -0.2699
 1463DDP     C2 8776  26.284  10.193   6.340  0.1220  0.2196 -0.1113
 1463DDP     C3 8777  26.552  11.419   5.967  0.0194  0.1461  0.0978
 1463DDP     C4 8778  25.820  10.606   5.428  0.2782 -0.0924  0.0953
 1464DDP     C1 8779  14.377  13.469   3.553  0.0152 -0.2533  0.2370
 1464DDP     P1 8780  14.099  13.682   3.372  0.0376  0.0435 -0.1112
 1464DDP     P2 8781  14.605  13.621   3.833  0.1108 -0.0614 -0.0442
 1464DDP     C2 8782  14.830  13.351   4.168  0.2712 -0.0595 -0.0416
 1464DDP     C3 8783  13.649  13.811   3.305  0.1894 -0.0666 -0.0806
 1464DDP     C4 8784  14.154  13.039   3.415  0.1676 -0.1424  0.3674
 1465DDP     C1 8785  29.376   7.616   2.282  0.1244 -0.1297  0.2797
 1465DDP     P1 8786  29.101   7.331   2.626  0.0209  0.0438 -0.1515
 1465DDP     P2 8787  29.459   8.177   2.322 -0.0758 -0.1777 -0.0288
 1465DDP     C2 8788  29.392   8.437   2.659  0.3239 -0.3872  0.3702
 1465DDP     C3 8789  29.197   7.184   3.091  0.2549  0.1618 -0.1749
 1465DDP     C4 8790  29.384   7.416   1.871 -0.0012 -0.1530  0.2887
 1466DDP     C1 8791   6.875  11.813   3.935  0.0113  0.3100  0.1430
 1466DDP     P1 8792   7.079  11.933   3.641 -0.4418  0.0755  0.2164
 1466DDP     P2 8793   6.708  12.146   4.085 -0.0378 -0.0305  0.0393
 1466DDP     C2 8794   6.640  12.439   3.831  0.0538  0.1084 -0.0632
 1466DDP     C3 8795   7.296  12.188   3.328 -0.0460 -0.0585  0.0934
 1466DDP     C4 8796   6.731  11.456   3.904  0.4453 -0.1370  0.0181
 1467DDP     C1 8797  29.195   0.630  16.485  0.2956  0.1964 -0.1156
 1467DDP     P1 8798  29.309   0.297  16.745  0.3655  0.1948  0.0887
 1467DDP     P2 8799  29.120   0.922  16.694 -0.4121  0.1072 -0.1919
 1467DDP     C2 8800  28.791   1.252  16.825 -0.0751  0.2041 -0.0960
 1467DDP     C3 8801  29.367  30.275  17.106 -0.0116 -0.0754 -0.3408
 1467DDP     C4 8802  29.197   0.575  16.053  0.1154  0.1989 -0.1642
 1468DDP     C1 8803   6.152  11.616  14.270 -0.1436  0.0812  0.1588
 1468DDP     P1 8804   5.996  11.929  14.381 -0.1496  0.1072 -0.1338
 1468DDP     P2 8805   5.839  11.422  14.151  0.1276  0.0082  0.0300
 1468DDP     C2 8806   5.658  11.059  14.382 -0.1248  0.1390 -0.2848
 1468DDP     C3 8807   5.990  12.309  14.164  0.2442 -0.0100 -0.3241
 1468DDP     C4 8808   6.374  11.373  14.128  0.0502  0.1807 -0.2752
 1469DDP     C1 8809   4.079   4.938  12.449  0.0696  0.1608  0.1188
 1469DDP     P1 8810   3.736   5.220  12.582 -0.1466 -0.2902  0.0865
 1469DDP     P2 8811   3.973   4.504  12.333 -0.0511 -0.0821 -0.2062
 1469DDP     C2 8812   3.584   4.206  12.091 -0.0727 -0.0354 -0.0449
 1469DDP     C3 8813   3.618   5.696  12.594  0.1155  0.1057 -0.0561
 1469DDP     C4 8814   4.560   4.961  12.567 -0.1715  0.0890 -0.2366
 1470DDP     C1 8815  19.470  30.041   5.458  0.0010  0.1702  0.0644
 1470DDP     P1 8816  19.907  30.144   5.195 -0.0736  0.0058  0.0682
 1470DDP     P2 8817  19.226  29.785   5.111  0.1912  0.1428 -0.0688
 1470DDP     C2 8818  18.838  29.775   4.867 -0.0619  0.0353  0.0139
 1470DDP     C3 8819  20.041  30.272   4.695 -0.2725  0.1371 -0.0456
 1470DDP     C4 8820  19.344  29.981   5.891  0.0226  0.0763  0.2588
 1471DDP     C1 8821  24.366  14.114  16.093  0.1642 -0.0955  0.4237
 1471DDP     P1 8822  23.936  14.027  15.829 -0.1149  0.0742 -0.1267
 1471DDP     P2 8823  24.466  13.899  16.475  0.0694  0.0472 -0.1193
 1471DDP     C2 8824  24.783  13.973  16.825  0.1137  0.1380 -0.1063
 1471DDP     C3 8825  23.818  14.044  15.504 -0.0184 -0.2330  0.4006
 1471DDP     C4 8826  24.703  14.348  15.911  0.1961  0.0404  0.0178
 1472DDP     C1 8827  10.002  17.878  26.639 -0.1625 -0.0860  0.2152
 1472DDP     P1 8828   9.925  17.654  27.006  0.0844 -0.0795 -0.0852
 1472DDP     P2 8829   9.953  18.310  26.431 -0.0927 -0.0043 -0.5179
 1472DDP     C2 8830  10.037  18.418  25.960 -0.0083 -0.0084 -0.0246
 1472DDP     C3 8831  10.050  17.574  27.396  0.3205  0.0391  0.0021
 1472DDP     C4 8832  10.328  17.605  26.473 -0.3256 -0.0720 -0.0557
 1473DDP     C1 8833  23.200  21.589   9.628  0.0534  0.1168  0.0005
 1473DDP     P1 8834  23.601  21.632   9.448 -0.0797 -0.1697 -0.1247
 1473DDP     P2 8835  23.099  21.975   9.938 -0.2117 -0.0024  0.0939
 1473DDP     C2 8836  22.865  22.286  10.071  0.1089 -0.2752  0.1445
 1473DDP     C3 8837  23.860  21.639   9.088  0.0331 -0.1549 -0.1836
 1473DDP     C4 8838  22.884  21.269   9.472 -0.2559 -0.1803  0.0296
 1474DDP     C1 8839   9.505  23.002   3.987  0.2133 -0.4012  0.1700
 1474DDP     P1 8840   9.406  22.611   4.224 -0.2438 -0.2714 -0.0893
 1474DDP     P2 8841   9.157  23.172   3.730  0.1909 -0.1273  0.0982
 1474DDP     C2 8842   9.201  23.587   3.449 -0.0166  0.1169  0.2043
 1474DDP     C3 8843   9.454  22.399   4.539  0.2552 -0.0204 -0.0754
 1474DDP     C4 8844   9.957  23.206   3.947  0.2028  0.1542  0.0926
 1475DDP     C1 8845   3.949   2.255   5.580  0.1808 -0.1821 -0.1788
 1475DDP     P1 8846   3.957   2.015   5.969  0.0102  0.0072 -0.0933
 1475DDP     P2 8847   3.769   1.889   5.244 -0.0065 -0.3083  0.1138
 1475DDP     C2 8848   3.415   1.576   5.371  0.2857 -0.0259  0.1377
 1475DDP     C3 8849   3.707   1.743   6.201  0.0175 -0.1774  0.3199
 1475DDP     C4 8850   3.875   2.675   5.656  0.0155 -0.0347 -0.0539
 1476DDP     C1 8851  28.485  27.243  11.592 -0.3831 -0.3861 -0.1878
 1476DDP     P1 8852  28.881  26.975  11.730  0.2871  0.2357 -0.4388
 1476DDP     P2 8853  28.464  27.665  11.549 -0.1431 -0.0189  0.0595
 1476DDP     C2 8854  28.570  27.976  11.815 -0.3321 -0.0673  0.0282
 1476DDP     C3 8855  29.410  26.871  11.856 -0.1312  0.2781  0.0996
 1476DDP     C4 8856  28.086  27.118  11.581 -0.1676  0.1593  0.0574
 1477DDP     C1 8857  18.226   5.551  24.840  0.2546 -0.2507  0.2129
 1477DDP     P1 8858  18.329   5.950  24.614 -0.0263  0.2573 -0.0908
 1477DDP     P2 8859  17.973   5.271  24.505  0.0342 -0.2480 -0.1304
 1477DDP     C2 8860  17.756   4.987  24.215  0.1995 -0.1053  0.0559
 1477DDP     C3 8861  18.129   6.274  24.288  0.3541 -0.0700  0.2693
 1477DDP     C4 8862  18.279   5.657  25.360 -0.0988 -0.0019  0.2010
 1478DDP     C1 8863   1.264  11.705  19.442  0.1352  0.2501 -0.1390
 1478DDP     P1 8864   0.834  11.571  19.363 -0.4238  0.2459 -0.0730
 1478DDP     P2 8865   1.218  12.061  19.685 -0.0317  0.1347  0.2639
 1478DDP     C2 8866   1.443  12.275  20.022  0.1521  0.0601  0.1468
 1478DDP     C3 8867   0.486  11.808  19.265 -0.3149 -0.1934 -0.0284
 1478DDP     C4 8868   1.722  11.689  19.370  0.0615  0.1124 -0.1119
 1479DDP     C1 8869   1.138   2.146  25.232 -0.1503 -0.0447  0.0297
 1479DDP     P1 8870   1.331   1.773  25.588 -0.1931  0.1336  0.0955
 1479DDP     P2 8871   0.785   2.422  25.334  0.1669 -0.1138 -0.1389
 1479DDP     C2 8872   0.322   2.511  25.366 -0.2429  0.0290  0.1307
 1479DDP     C3 8873   1.233   1.749  26.050 -0.0846 -0.3347  0.0494
 1479DDP     C4 8874   1.448   2.397  25.115  0.1566 -0.1989  0.1068
 1480DDP     C1 8875  13.876  11.525   1.675 -0.1578  0.2081 -0.1502
 1480DDP     P1 8876  13.899  11.986   1.854 -0.2998  0.1727 -0.0441
 1480DDP     P2 8877  13.850  11.204   2.005  0.1331 -0.2924 -0.0436
 1480DDP     C2 8878  13.892  10.844   2.191 -0.0462 -0.1896 -0.1528
 1480DDP     C3 8879  14.212  12.100   2.121 -0.1545 -0.2580 -0.1765
 1480DDP     C4 8880  13.837  11.389   1.250  0.0569 -0.0725 -0.1004
 1481DDP     C1 8881  15.012  26.629  24.198 -0.0558 -0.1192  0.0782
 1481DDP     P1 8882  15.056  26.873  23.881  0.0652  0.0503  0.0416
 1481DDP     P2 8883  14.812  26.280  24.072 -0.0561 -0.0806  0.2098
 1481DDP     C2 8884  14.903  25.886  24.159  0.1238  0.4425  0.1705
 1481DDP     C3 8885  14.673  27.223  23.898 -0.0176  0.0993  0.3796
 1481DDP     C4 8886  15.217  26.806  24.591  0.0442 -0.0209 -0.2722
 1482DDP     C1 8887   6.517   4.676   2.564 -0.0456 -0.1570 -0.3772
 1482DDP     P1 8888   6.084   4.531   2.834 -0.0483  0.2909 -0.1437
 1482DDP     P2 8889   6.515   5.073   2.296  0.2204  0.0920  0.0032
 1482DDP     C2 8890   6.832   5.148   2.032 -0.1423 -0.0071 -0.3185
 1482DDP     C3 8891   5.625   4.637   2.826 -0.2725  0.0410 -0.1716
 1482DDP     C4 8892   6.907   4.390   2.569  0.1911 -0.2403  0.4037
 1483DDP     C1 8893  26.599  20.023  28.897 -0.1352 -0.3869  0.3387
 1483DDP     P1 8894  26.409  20.014  28.473  0.0025  0.1801 -0.3540
 1483DDP     P2 8895  26.664  20.449  29.136  0.2249 -0.0178  0.1129
 1483DDP     C2 8896  26.824  20.678  29.445 -0.0677  0.0924  0.2345
 1483DDP     C3 8897  26.396  20.424  28.247  0.2455  0.1576  0.0603
 1483DDP     C4 8898  26.332  19.718  29.307 -0.0016 -0.2652 -0.1198
 1484DDP     C1 8899  20.649   1.149  27.261 -0.4620  0.0820  0.1925
 1484DDP     P1 8900  20.952   1.297  27.104  0.2344  0.0927 -0.1410
 1484DDP     P2 8901  20.605   1.579  27.433 -0.3966  0.3614 -0.1295
 1484DDP     C2 8902  20.544   1.930  27.291  0.1180  0.3088  0.5223
 1484DDP     C3 8903  20.983   1.782  27.093 -0.0979  0.1256  0.0323
 1484DDP     C4 8904  20.412   0.738  27.310 -0.0152  0.0352  0.1099
 1485DDP     C1 8905  26.364  28.080   0.125 -0.0171  0.2993  0.1821
 1485DDP     P1 8906  26.718  28.182   0.303 -0.0262  0.0701 -0.0802
 1485DDP     P2 8907  26.117  27.712   0.047 -0.0046 -0.2852  0.1364
 1485DDP     C2 8908  26.113  27.310  30.237  0.1367 -0.0891 -0.0131
 1485DDP     C3 8909  27.055  28.245   0.498  0.0734 -0.1223 -0.2030
 1485DDP     C4 8910  26.377  28.308  30.134 -0.4314  0.0891  0.2261
 1486DDP     C1 8911   1.126  14.006  26.880 -0.1532 -0.1720 -0.2414
 1486DDP     P1 8912   1.183  14.007  26.437  0.0175 -0.1297  0.3318
 1486DDP     P2 8913   1.245  13.661  27.206  0.2987 -0.1049  0.0550
 1486DDP     C2 8914   1.524  13.438  27.325  0.0935  0.3532  0.1131
 1486DDP     C3 8915   1.288  13.834  25.995 -0.0753 -0.2123  0.0196
 1486DDP     C4 8916   0.780  14.330  26.958 -0.0058 -0.1511  0.0599
 1487DDP     C1 8917  26.439  26.047   0.602  0.1242  0.0448 -0.2819
 1487DDP     P1 8918  26.146  25.792   0.350  0.3474 -0.1979 -0.0661
 1487DDP     P2 8919  26.261  26.397   0.870 -0.0028  0.2886  0.0703
 1487DDP     C2 8920  26.144  26.694   1.256 -0.2132  0.3794 -0.3388
 1487DDP     C3 8921  25.957  25.379   0.229  0.0767  0.0416 -0.1492
 1487DDP     C4 8922  26.849  26.084   0.574  0.2354 -0.1003 -0.3267
 1488DDP     C1 8923  25.978  28.555   5.067  0.1420  0.0982  0.3593
 1488DDP     P1 8924  26.369  28.239   4.937 -0.1439  0.1306 -0.1773
 1488DDP     P2 8925  26.021  28.599   5.507 -0.1634 -0.2876  0.0670
 1488DDP     C2 8926  26.359  28.835   5.545 -0.0907  0.1312  0.3427
 1488DDP     C3 8927  26.487  27.961   4.571  0.0972  0.1723 -0.0021
 1488DDP     C4 8928  25.591  28.625   4.831  0.2285 -0.3814  0.0056
 1489DDP     C1 8929   8.992  18.986  16.702 -0.3508  0.2796 -0.0519
 1489DDP     P1 8930   8.638  19.124  16.959  0.2630  0.1847  0.1183
 1489DDP     P2 8931   9.008  18.728  16.336 -0.6271 -0.2271 -0.1304
 1489DDP     C2 8932   9.028  18.823  15.931  0.1776 -0.0019 -0.0384
 1489DDP     C3 8933   8.285  19.499  16.896  0.0219  0.0318 -0.2009
 1489DDP     C4 8934   9.376  19.139  16.617  0.1458  0.0465  0.0414
 1490DDP     C1 8935   1.920  26.836   7.009  0.4864  0.0370 -0.1154
 1490DDP     P1 8936   1.874  26.633   7.408 -0.2291 -0.2706 -0.0301
 1490DDP     P2 8937   2.366  27.009   6.731  0.2985  0.4951  0.1804
 1490DDP     C2 8938   2.692  27.166   6.554 -0.1564 -0.1013 -0.0651
 1490DDP     C3 8939   1.645  26.559   7.816 -0.2728  0.2165 -0.0181
 1490DDP     C4 8940   1.549  26.691   6.765  0.0132 -0.2357 -0.0970
 1491DDP     C1 8941   0.991   4.317  29.230  0.0003 -0.3226  0.1818
 1491DDP     P1 8942   0.985   4.728  29.352 -0.2359  0.1072  0.2141
 1491DDP     P2 8943   0.609   4.224  29.010  0.3528 -0.3187  0.0774
 1491DDP     C2 8944   0.223   4.522  28.914 -0.2224  0.1175  0.2733
 1491DDP     C3 8945   1.160   5.110  29.310  0.2551  0.1556 -0.0618
 1491DDP     C4 8946   1.190   4.035  29.496 -0.2650  0.1390 -0.0104
 1492DDP     C1 8947  12.753  14.842  12.655  0.2108  0.0862  0.1088
 1492DDP     P1 8948  12.514  14.590  12.519 -0.1519 -0.0391  0.2672
 1492DDP     P2 8949  12.888  15.300  12.327  0.0334  0.0928  0.1443
 1492DDP     C2 8950  13.132  15.668  12.183  0.1197  0.0366  0.6377
 1492DDP     C3 8951  12.262  14.403  12.614  0.0579  0.1321  0.5621
 1492DDP     C4 8952  12.847  14.767  13.105  0.0925  0.0473 -0.2810
 1493DDP     C1 8953   9.439   7.157   9.970 -0.1314  0.1019 -0.1512
 1493DDP     P1 8954   9.093   7.271  10.363  0.1791  0.0267 -0.0322
 1493DDP     P2 8955   9.676   7.341   9.679 -0.1779 -0.0113  0.1674
 1493DDP     C2 8956   9.714   7.602   9.295 -0.1430 -0.0069  0.1029
 1493DDP     C3 8957   8.716   7.420  10.585 -0.0010  0.0994 -0.0496
 1493DDP     C4 8958   9.589   6.840   9.892  0.1190  0.1804  0.0935
 1494DDP     C1 8959  12.133  24.546   9.782  0.0405 -0.2054 -0.2575
 1494DDP     P1 8960  12.081  24.825   9.358  0.0664 -0.0111 -0.0132
 1494DDP     P2 8961  12.068  24.120   9.806 -0.2122  0.2627  0.2482
 1494DDP     C2 8962  12.100  23.698   9.940 -0.0113  0.0534 -0.0171
 1494DDP     C3 8963  12.162  24.614   8.927  0.1252 -0.2326 -0.2325
 1494DDP     C4 8964  11.914  24.778  10.174  0.1982 -0.1234 -0.3027
 1495DDP     C1 8965  22.021  14.445   0.977  0.2552 -0.0421  0.2323
 1495DDP     P1 8966  21.761  14.472   0.624  0.2009  0.2296  0.1125
 1495DDP     P2 8967  21.759  14.506   1.275  0.0714 -0.0539  0.1936
 1495DDP     C2 8968  21.535  14.427   1.680 -0.1619 -0.0975 -0.0101
 1495DDP     C3 8969  21.390  14.200   0.380  0.1717 -0.3766 -0.2163
 1495DDP     C4 8970  22.399  14.417   1.172  0.0257  0.1401 -0.1806
 1496DDP     C1 8971   7.675   1.282   7.804 -0.0726  0.1725  0.0987
 1496DDP     P1 8972   7.678   1.528   7.542 -0.2233 -0.1848 -0.0881
 1496DDP     P2 8973   7.849   1.479   8.190 -0.0339 -0.0553 -0.0963
 1496DDP     C2 8974   8.142   1.787   8.520  0.0354  0.2415  0.1125
 1496DDP     C3 8975   7.380   1.722   7.455 -0.0801 -0.1118 -0.0134
 1496DDP     C4 8976   7.688   0.804   7.752 -0.0301 -0.0137  0.1974
 1497DDP     C1 8977  21.538  26.811  13.386  0.0881 -0.0586 -0.0150
 1497DDP     P1 8978  21.848  26.553  13.152  0.0959  0.2088  0.0221
 1497DDP     P2 8979  21.792  27.068  13.403  0.1223 -0.1890  0.0106
 1497DDP     C2 8980  22.206  27.342  13.422 -0.1230 -0.0144 -0.0530
 1497DDP     C3 8981  22.256  26.332  13.135  0.2711 -0.1291  0.1421
 1497DDP     C4 8982  21.217  26.861  13.580 -0.0446 -0.0105  0.4386
 1498DDP     C1 8983  14.461   8.353  24.039  0.3476  0.3780 -0.0941
 1498DDP     P1 8984  14.587   7.939  24.145  0.0908  0.1113 -0.1047
 1498DDP     P2 8985  14.653   8.556  23.621 -0.0077 -0.0699 -0.0608
 1498DDP     C2 8986  14.942   8.738  23.320  0.1074  0.0552  0.0460
 1498DDP     C3 8987  14.749   7.601  23.819 -0.1194 -0.4880 -0.0835
 1498DDP     C4 8988  14.194   8.589  24.312  0.0327 -0.0720  0.1291
 1499DDP     C1 8989   6.315   9.259   5.394  0.0835  0.1337 -0.4567
 1499DDP     P1 8990   6.099   9.585   5.635 -0.3388  0.0371  0.2198
 1499DDP     P2 8991   6.337   9.328   4.910  0.0190 -0.1948  0.1150
 1499DDP     C2 8992   6.391   9.748   4.721  0.2402  0.0009 -0.1166
 1499DDP     C3 8993   5.724   9.817   5.852  0.1869 -0.0531  0.0673
 1499DDP     C4 8994   6.481   8.901   5.650  0.1730  0.1009  0.0449
 1500DDP     C1 8995  13.399   8.713  14.672  0.0269 -0.2876  0.0752
 1500DDP     P1 8996  13.192   9.073  14.527 -0.1041  0.0564  0.0772
 1500DDP     P2 8997  13.683   8.539  14.805 -0.4822  0.0916  0.1734
 1500DDP     C2 8998  13.813   8.484  15.273 -0.0966  0.1121  0.0921
 1500DDP     C3 8999  12.813   9.130  14.329 -0.0705  0.3977  0.0981
 1500DDP     C4 9000  13.211   8.325  14.469 -0.1066 -0.1385 -0.1954
 1501DDP     C1 9001  22.686   3.061  17.088  0.1393  0.1671  0.2994
 1501DDP     P1 9002  22.805   2.675  17.400  0.1129 -0.1327  0.1840
 1501DDP     P2 9003  22.395   3.409  17.238 -0.0507  0.1951  0.2705
 1501DDP     C2 9004  22.556   3.825  17.151  0.1424  0.0848 -0.0341
 1501DDP     C3 9005  22.832   2.328  17.561  0.0735 -0.0514  0.0693
 1501DDP     C4 9006  22.783   2.992  16.658  0.2331  0.2210  0.0770
 1502DDP     C1 9007  21.420  14.467   8.788 -0.0557 -0.2213 -0.0154
 1502DDP     P1 9008  21.006  14.189   8.726  0.1404  0.0813 -0.2484
 1502DDP     P2 9009  21.867  14.448   8.723 -0.2064  0.1145  0.0165
 1502DDP     C2 9010  22.356  14.441   8.507 -0.2172  0.1561 -0.3804
 1502DDP     C3 9011  20.545  14.431   8.827 -0.2283  0.2603  0.1806
 1502DDP     C4 9012  21.183  14.793   8.817 -0.0475 -0.1199 -0.3338
 1503DDP     C1 9013  10.623   3.910   0.749  0.1247  0.1600  0.0100
 1503DDP     P1 9014  11.022   3.970   0.634  0.0586 -0.1852 -0.0663
 1503DDP     P2 9015  10.434   3.516   0.646 -0.2444 -0.2547 -0.3004
 1503DDP     C2 9016  10.329   3.195   0.575 -0.0778 -0.3016  0.0759
 1503DDP     C3 9017  11.316   3.878   0.273 -0.0009  0.4349  0.0355
 1503DDP     C4 9018  10.563   4.022   1.191 -0.0128 -0.2700  0.1465
 1504DDP     C1 9019   4.792   2.373  30.141 -0.2364  0.0163 -0.4731
 1504DDP     P1 9020   5.212   2.527  30.103  0.0451  0.0009  0.3491
 1504DDP     P2 9021   4.463   2.581  30.364 -0.1187 -0.0987  0.4376
 1504DDP     C2 9022   4.097   2.589   0.351 -0.0636 -0.0111 -0.0474
 1504DDP     C3 9023   5.629   2.699  29.946 -0.0181 -0.0242 -0.0369
 1504DDP     C4 9024   4.753   2.273  29.692  0.2072 -0.2006  0.3903
 1505DDP     C1 9025  11.955   0.539   4.220 -0.1093  0.0781  0.1792
 1505DDP     P1 9026  12.223   0.749   3.866 -0.1904 -0.0635 -0.0239
 1505DDP     P2 9027  11.810   0.132   4.061  0.1397  0.2047 -0.0576
 1505DDP     C2 9028  11.934  30.210   3.682  0.0713  0.1359 -0.1666
 1505DDP     C3 9029  12.120   1.030   3.561  0.2264  0.1816  0.0462
 1505DDP     C4 9030  11.682   0.845   4.462 -0.3203 -0.2055  0.3199
 1506DDP     C1 9031  23.955  29.031  23.249 -0.0301  0.0030 -0.2410
 1506DDP     P1 9032  23.553  28.960  23.447  0.2083  0.4040 -0.2779
 1506DDP     P2 9033  23.990  29.230  23.586 -0.0753 -0.1086  0.1648
 1506DDP     C2 9034  23.993  29.709  23.548  0.1208 -0.1372  0.1626
 1506DDP     C3 9035  23.133  29.226  23.488 -0.1649  0.0256  0.0445
 1506DDP     C4 9036  23.884  29.046  22.847 -0.2017  0.0727 -0.0896
 1507DDP     C1 9037  13.847  15.779  12.792  0.0142  0.1438  0.4534
 1507DDP     P1 9038  13.525  15.910  12.605 -0.1433 -0.1018 -0.2211
 1507DDP     P2 9039  14.092  15.407  12.612 -0.0121 -0.3350  0.1315
 1507DDP     C2 9040  14.249  14.907  12.528  0.0496 -0.1864 -0.1805
 1507DDP     C3 9041  13.285  16.262  12.708  0.0928 -0.0642 -0.5172
 1507DDP     C4 9042  14.135  16.141  12.907  0.1229 -0.0327 -0.0214
 1508DDP     C1 9043   7.240  24.087   7.360  0.1791  0.1493 -0.3360
 1508DDP     P1 9044   7.089  24.522   7.609 -0.0790  0.1225  0.0382
 1508DDP     P2 9045   7.642  23.889   7.512 -0.1245 -0.0085  0.0285
 1508DDP     C2 9046   7.679  23.565   7.771 -0.2408  0.0718 -0.3445
 1508DDP     C3 9047   6.858  24.930   7.770 -0.0408  0.1370 -0.1579
 1508DDP     C4 9048   7.069  24.146   6.965 -0.0493  0.1826 -0.1008
 1509DDP     C1 9049  27.859  13.675   3.965 -0.2626 -0.0942 -0.0785
 1509DDP     P1 9050  27.777  14.013   3.743 -0.2654 -0.0713 -0.0053
 1509DDP     P2 9051  28.260  13.613   4.053 -0.4216 -0.1917  0.1634
 1509DDP     C2 9052  28.306  14.015   3.912  0.1469  0.0317 -0.0942
 1509DDP     C3 9053  27.693  14.492   3.822  0.1982  0.2964  0.4772
 1509DDP     C4 9054  27.630  13.298   3.905  0.0064  0.0250  0.1956
 1510DDP     C1 9055   6.897  25.922   3.327 -0.1862 -0.0586 -0.1738
 1510DDP     P1 9056   6.865  25.717   3.714  0.2411  0.0752  0.5016
 1510DDP     P2 9057   7.196  26.148   3.215 -0.0127 -0.0262  0.1478
 1510DDP     C2 9058   7.396  26.467   3.534  0.0971  0.2376 -0.1214
 1510DDP     C3 9059   6.791  25.495   4.076  0.0097 -0.2528 -0.0480
 1510DDP     C4 9060   6.516  25.913   3.121 -0.1884  0.2785 -0.0473
 1511DDP     C1 9061  28.390  20.100  13.546 -0.0738  0.0649  0.1730
 1511DDP     P1 9062  28.126  19.821  13.365 -0.0404 -0.0266 -0.2184
 1511DDP     P2 9063  28.604  20.431  13.382  0.1000  0.1780  0.1386
 1511DDP     C2 9064  28.700  20.807  13.663 -0.2326  0.0207 -0.4055
 1511DDP     C3 9065  28.053  19.465  13.460 -0.0003  0.0813  0.1866
 1511DDP     C4 9066  28.352  20.128  13.983 -0.1903  0.1995 -0.0008
 1512DDP     C1 9067  13.127  15.614   9.038 -0.1085  0.5051 -0.1249
 1512DDP     P1 9068  13.313  15.983   9.247  0.2201  0.1943 -0.1468
 1512DDP     P2 9069  13.185  15.124   9.098  0.1767 -0.3115  0.2231
 1512DDP     C2 9070  13.427  14.906   9.448  0.0504 -0.1743 -0.0368
 1512DDP     C3 9071  13.152  15.890   9.636 -0.1343  0.2883  0.0015
 1512DDP     C4 9072  12.740  15.833   8.800  0.3325  0.0125 -0.2976
 1513DDP     C1 9073   6.622  29.878  18.083  0.0467  0.0828 -0.1235
 1513DDP     P1 9074   6.374  29.911  18.421 -0.1443 -0.1179 -0.1410
 1513DDP     P2 9075   6.393  29.880  17.653  0.0563 -0.0487  0.1575
 1513DDP     C2 9076   6.082  29.792  17.378  0.1935 -0.4698 -0.0373
 1513DDP     C3 9077   5.949  29.802  18.480  0.0108 -0.3272 -0.2102
 1513DDP     C4 9078   7.061  29.876  18.020 -0.2252  0.0825  0.2637
 1514DDP     C1 9079  18.769  19.053   3.447 -0.2084 -0.2673 -0.0673
 1514DDP     P1 9080  18.920  19.522   3.449 -0.0922  0.1916  0.3253
 1514DDP     P2 9081  18.604  19.001   3.808  0.1025 -0.1137 -0.2058
 1514DDP     C2 9082  18.691  18.655   4.103  0.0903 -0.0472 -0.1958
 1514DDP     C3 9083  19.113  19.720   3.774 -0.0194  0.1098 -0.2081
 1514DDP     C4 9084  18.602  18.677   3.387 -0.2832 -0.0637  0.3711
 1515DDP     C1 9085  19.822   1.764  11.334 -0.1542  0.1496 -0.1763
 1515DDP     P1 9086  20.205   2.052  11.092  0.2869 -0.2948  0.2114
 1515DDP     P2 9087  19.526   1.516  11.048 -0.1126 -0.1712 -0.1722
 1515DDP     C2 9088  19.375   1.655  10.582 -0.1133 -0.0887 -0.1837
 1515DDP     C3 9089  20.550   2.419  10.939 -0.1133 -0.1377  0.3211
 1515DDP     C4 9090  19.773   1.781  11.794  0.2377  0.2496 -0.2863
 1516DDP     C1 9091  12.687  20.779  19.123 -0.2056 -0.0949  0.0531
 1516DDP     P1 9092  12.923  21.224  19.216 -0.0910 -0.1691  0.0452
 1516DDP     P2 9093  12.273  20.806  18.858 -0.0758  0.1024 -0.0301
 1516DDP     C2 9094  11.911  20.706  18.529  0.1466 -0.0459  0.4334
 1516DDP     C3 9095  12.788  21.619  19.405  0.0853 -0.0743 -0.0832
 1516DDP     C4 9096  12.627  20.428  19.521  0.0402  0.0771 -0.1736
 1517DDP     C1 9097   8.437   6.344   9.228  0.0870 -0.0760  0.0174
 1517DDP     P1 9098   8.804   6.290   8.909 -0.2261 -0.2039  0.1804
 1517DDP     P2 9099   8.487   6.547   9.544  0.3148  0.2042  0.1059
 1517DDP     C2 9100   8.632   6.924   9.757  0.1630 -0.2142  0.2725
 1517DDP     C3 9101   9.167   6.099   9.071  0.0940  0.0896  0.0539
 1517DDP     C4 9102   8.074   6.288   9.093  0.2542 -0.1366  0.2028
 1518DDP     C1 9103   7.529   6.013  19.487  0.1672 -0.0675  0.1889
 1518DDP     P1 9104   7.625   6.316  19.734 -0.2049 -0.1890  0.0183
 1518DDP     P2 9105   7.115   6.054  19.440 -0.1875  0.0322 -0.2647
 1518DDP     C2 9106   6.675   5.984  19.690  0.1955  0.0637 -0.0360
 1518DDP     C3 9107   7.881   6.246  20.040  0.0224  0.3742 -0.0090
 1518DDP     C4 9108   7.851   5.758  19.268 -0.1201  0.1791  0.3996
 1519DDP     C1 9109  28.424  24.136  26.243 -0.0358  0.0595 -0.0878
 1519DDP     P1 9110  28.634  24.368  26.653 -0.1203 -0.0542 -0.0770
 1519DDP     P2 9111  28.737  24.012  25.884 -0.0021 -0.0446 -0.2644
 1519DDP     C2 9112  29.168  24.106  25.631  0.1629 -0.5711  0.0547
 1519DDP     C3 9113  28.767  24.748  26.851  0.0784  0.0772 -0.1702
 1519DDP     C4 9114  27.900  24.036  26.238  0.0138  0.1035 -0.1175
 1520DDP     C1 9115  10.060   5.014  25.834 -0.1473  0.0298 -0.3106
 1520DDP     P1 9116  10.025   4.964  26.298  0.2351 -0.1282  0.0131
 1520DDP     P2 9117  10.266   5.394  25.617  0.0754 -0.0190  0.1374
 1520DDP     C2 9118  10.301   5.789  25.462  0.1811  0.0012 -0.0588
 1520DDP     C3 9119  10.127   4.889  26.716  0.1022  0.1071 -0.3947
 1520DDP     C4 9120   9.703   4.976  25.576  0.1025  0.1254 -0.2299
 1521DDP     C1 9121   6.174  28.792   5.251  0.0333 -0.1348 -0.2411
 1521DDP     P1 9122   6.194  28.386   5.255 -0.2388 -0.2156  0.4012
 1521DDP     P2 9123   5.868  29.115   5.539 -0.2855  0.1625 -0.1305
 1521DDP     C2 9124   5.565  29.189   5.837  0.0363 -0.1293 -0.1299
 1521DDP     C3 9125   5.932  28.059   5.023  0.0631  0.2090 -0.3585
 1521DDP     C4 9126   6.370  28.999   4.956 -0.0225 -0.2756  0.1031
 1522DDP     C1 9127  12.090   2.575   3.773  0.0086 -0.1874  0.2040
 1522DDP     P1 9128  12.241   2.217   4.126 -0.0265 -0.2630 -0.1375
 1522DDP     P2 9129  11.682   2.436   3.494  0.0300 -0.1064  0.1033
 1522DDP     C2 9130  11.235   2.217   3.374 -0.2768 -0.1720  0.3052
 1522DDP     C3 9131  12.486   1.926   4.451 -0.0918 -0.0453  0.1360
 1522DDP     C4 9132  12.390   2.894   3.550 -0.0295 -0.5114 -0.1935
 1523DDP     C1 9133  23.499   2.427  12.959  0.0628 -0.2762 -0.0596
 1523DDP     P1 9134  23.398   2.837  13.127 -0.3501  0.0948  0.2169
 1523DDP     P2 9135  23.873   2.230  13.159  0.3133  0.2394 -0.0846
 1523DDP     C2 9136  24.211   1.922  13.183 -0.1905 -0.0526  0.0451
 1523DDP     C3 9137  23.044   3.239  13.226  0.0443  0.1448 -0.0328
 1523DDP     C4 9138  23.230   2.444  12.590  0.2193  0.0128 -0.0338
 1524DDP     C1 9139   6.689  17.754  18.455 -0.0088  0.2668  0.2519
 1524DDP     P1 9140   6.562  18.160  18.290 -0.0947 -0.0928 -0.0690
 1524DDP     P2 9141   6.723  17.308  18.345 -0.0055 -0.0521 -0.1146
 1524DDP     C2 9142   6.771  16.977  18.065 -0.0548 -0.3816 -0.0523
 1524DDP     C3 9143   6.296  18.488  18.057 -0.3338 -0.1563  0.0269
 1524DDP     C4 9144   6.544  17.709  18.912 -0.1912 -0.0334  0.0039
 1525DDP     C1 9145  23.215  27.048  11.710  0.3765 -0.3192  0.1346
 1525DDP     P1 9146  23.093  26.722  12.010  0.0748 -0.1705 -0.0232
 1525DDP     P2 9147  23.486  27.400  11.816  0.2266  0.2417  0.0320
 1525DDP     C2 9148  23.641  27.762  11.701 -0.1669 -0.1607  0.1516
 1525DDP     C3 9149  23.127  26.538  12.384  0.1419  0.0627 -0.1718
 1525DDP     C4 9150  23.356  27.016  11.236 -0.4770 -0.1235  0.0125
 1526DDP     C1 9151   3.310   4.671  19.575  0.3685  0.0219 -0.1401
 1526DDP     P1 9152   3.749   4.529  19.512 -0.1283  0.1455 -0.2620
 1526DDP     P2 9153   3.238   5.086  19.542  0.1937  0.1060  0.0633
 1526DDP     C2 9154   3.227   5.303  19.155  0.2118 -0.3639 -0.0773
 1526DDP     C3 9155   3.865   4.414  19.901 -0.1747 -0.0290  0.2228
 1526DDP     C4 9156   3.090   4.351  19.597  0.0688 -0.0061  0.1415
 1527DDP     C1 9157  29.833  11.302  20.381  0.2376 -0.2744 -0.1163
 1527DDP     P1 9158  29.805  11.079  20.743  0.0736 -0.0352  0.0235
 1527DDP     P2 9159  30.045  11.132  20.089 -0.3303  0.1954 -0.0495
 1527DDP     C2 9160  30.234  11.176  19.678 -0.0533  0.3037 -0.0897
 1527DDP     C3 9161  29.846  10.815  21.144  0.0549  0.1097 -0.0811
 1527DDP     C4 9162  29.531  11.555  20.561 -0.0303  0.2291 -0.0550
 1528DDP     C1 9163  28.011  19.179  15.273  0.1280 -0.1089  0.4296
 1528DDP     P1 9164  27.851  19.315  15.755 -0.0758  0.1652 -0.0373
 1528DDP     P2 9165  27.866  18.918  15.021  0.3639  0.0240  0.2643
 1528DDP     C2 9166  27.396  18.988  14.764 -0.2290 -0.1753 -0.0188
 1528DDP     C3 9167  27.769  19.218  16.221  0.1113 -0.1161  0.1799
 1528DDP     C4 9168  28.331  19.389  15.194 -0.0641 -0.1602  0.1625
 1529DDP     C1 9169   1.400   9.289   8.537 -0.1344 -0.0098 -0.3173
 1529DDP     P1 9170   1.453   9.681   8.843 -0.2039  0.2729  0.3588
 1529DDP     P2 9171   1.707   9.361   8.195 -0.1118  0.0110 -0.0513
 1529DDP     C2 9172   1.809   9.594   7.781  0.4777  0.3144 -0.0803
 1529DDP     C3 9173   1.342  10.155   8.926  0.0624  0.1406 -0.1479
 1529DDP     C4 9174   1.227   8.930   8.608  0.2229  0.2301 -0.0784
 1530DDP     C1 9175  14.483  12.851  14.230  0.0763 -0.0590  0.2332
 1530DDP     P1 9176  14.269  12.663  13.910 -0.0002  0.1522 -0.2411
 1530DDP     P2 9177  14.168  12.729  14.490 -0.0519 -0.2293  0.2199
 1530DDP     C2 9178  13.690  12.781  14.654 -0.0693 -0.1565  0.1405
 1530DDP     C3 9179  13.943  12.627  13.505 -0.1082  0.0108  0.1443
 1530DDP     C4 9180  14.810  13.084  14.238  0.0669 -0.0738  0.2713
 1531DDP     C1 9181   2.910  23.372  13.853  0.0857 -0.2133  0.1705
 1531DDP     P1 9182   3.088  23.529  13.520  0.2097 -0.0906  0.1625
 1531DDP     P2 9183   2.642  23.645  13.982 -0.1694 -0.1171  0.1518
 1531DDP     C2 9184   2.760  24.061  13.906 -0.1554 -0.1284 -0.1177
 1531DDP     C3 9185   3.035  23.535  13.107  0.0421  0.1506 -0.1346
 1531DDP     C4 9186   3.081  23.073  14.094 -0.1666 -0.1548  0.0567
 1532DDP     C1 9187   9.686  29.522   1.711 -0.3629 -0.5021 -0.1686
 1532DDP     P1 9188   9.905  29.420   2.082  0.0410 -0.1574 -0.2048
 1532DDP     P2 9189   9.486  29.882   1.847 -0.2313 -0.1434 -0.0155
 1532DDP     C2 9190   9.272  30.181   2.154 -0.1033 -0.2268  0.3849
 1532DDP     C3 9191   9.756  29.461   2.520 -0.0849 -0.0227  0.1130
 1532DDP     C4 9192   9.623  29.359   1.340 -0.1002 -0.1003  0.2945
 1533DDP     C1 9193  19.784   2.360  16.692 -0.0308  0.1419  0.4161
 1533DDP     P1 9194  19.405   2.371  16.871  0.0474  0.1690  0.2533
 1533DDP     P2 9195  19.869   2.171  16.272 -0.0857 -0.1051  0.0144
 1533DDP     C2 9196  20.199   1.992  15.975 -0.3319 -0.1311  0.0694
 1533DDP     C3 9197  18.908   2.444  17.012  0.0356 -0.0139  0.0446
 1533DDP     C4 9198  20.004   2.705  16.619 -0.0112 -0.0812 -0.1468
 1534DDP     C1 9199  24.077  17.214  12.961  0.1078 -0.0640 -0.0220
 1534DDP     P1 9200  23.636  16.984  12.687 -0.2148  0.1286 -0.0304
 1534DDP     P2 9201  24.465  17.148  12.807  0.0781 -0.2734  0.2558
 1534DDP     C2 9202  24.809  17.283  12.823  0.0365  0.1873 -0.1384
 1534DDP     C3 9203  23.313  16.858  12.376  0.0824 -0.1702  0.1429
 1534DDP     C4 9204  23.963  17.197  13.476 -0.2096  0.0879  0.2972
 1535DDP     C1 9205  10.359  20.570   3.077  0.1246  0.4445  0.0267
 1535DDP     P1 9206  10.176  20.695   2.797  0.2322 -0.0692  0.2961
 1535DDP     P2 9207  10.038  20.676   3.432  0.0246  0.0252  0.1846
 1535DDP     C2 9208  10.200  20.750   3.823 -0.1399  0.3952 -0.0237
 1535DDP     C3 9209  10.107  20.747   2.319 -0.1062  0.0578  0.0002
 1535DDP     C4 9210  10.572  20.205   3.099  0.2455  0.1716  0.3239
 1536DDP     C1 9211  21.559  27.913   0.230  0.0265  0.3470  0.2258
 1536DDP     P1 9212  21.117  27.867   0.237 -0.3110 -0.2524  0.0488
 1536DDP     P2 9213  21.586  28.384   0.006 -0.1420  0.1863 -0.0177
 1536DDP     C2 9214  21.283  28.685  30.066  0.1694 -0.1920  0.0464
 1536DDP     C3 9215  20.643  27.750   0.284  0.0483  0.2529  0.2645
 1536DDP     C4 9216  21.885  27.816   0.551  0.2722 -0.1790  0.1782
 1537DDP     C1 9217   1.176  16.904   7.230 -0.0639 -0.2497 -0.2532
 1537DDP     P1 9218   0.842  16.782   7.466  0.1323 -0.1463  0.0142
 1537DDP     P2 9219   1.488  16.623   7.077 -0.0756  0.0759  0.1494
 1537DDP     C2 9220   1.459  16.272   6.784 -0.2073 -0.3693  0.0764
 1537DDP     C3 9221   0.529  16.574   7.400  0.1082  0.1127  0.0161
 1537DDP     C4 9222   1.227  17.360   7.145 -0.1821 -0.1788 -0.2297
 1538DDP     C1 9223   0.145   9.907  12.667  0.0586  0.1388 -0.3615
 1538DDP     P1 9224  -0.002   9.518  12.464 -0.0822  0.2230 -0.0181
 1538DDP     P2 9225  30.073  10.095  12.772 -0.1331 -0.4930 -0.0493
 1538DDP     C2 9226  29.787  10.260  12.477 -0.1660  0.1927  0.1092
 1538DDP     C3 9227  30.119   9.180  12.155  0.5264 -0.1545 -0.1929
 1538DDP     C4 9228   0.618   9.942  12.755 -0.2589 -0.5044 -0.1210
 1539DDP     C1 9229  20.811  24.944  17.213  0.3170  0.2468  0.0567
 1539DDP     P1 9230  20.855  24.546  17.256  0.3105  0.0207 -0.0183
 1539DDP     P2 9231  20.915  25.098  16.831  0.0507  0.0214 -0.0629
 1539DDP     C2 9232  21.400  25.122  16.585 -0.1866  0.2170 -0.0469
 1539DDP     C3 9233  21.052  24.140  17.324 -0.1819 -0.0390  0.2062
 1539DDP     C4 9234  20.579  24.973  17.596 -0.0741 -0.0373 -0.0743
 1540DDP     C1 9235  10.363  18.531   0.178 -0.0314  0.1128 -0.2958
 1540DDP     P1 9236  10.244  18.357   0.554  0.0399  0.2030  0.1010
 1540DDP     P2 9237  10.186  18.338  30.042  0.2671  0.1339 -0.0229
 1540DDP     C2 9238  10.237  18.369  29.674 -0.1356  0.2910  0.1798
 1540DDP     C3 9239   9.889  18.160   0.704 -0.0518 -0.1006 -0.1334
 1540DDP     C4 9240  10.612  18.924   0.178  0.3691  0.0473 -0.1417
 1541DDP     C1 9241  16.555   4.401  21.971 -0.3796  0.2486 -0.0434
 1541DDP     P1 9242  16.274   4.305  22.333  0.0468 -0.0022 -0.0946
 1541DDP     P2 9243  16.762   3.961  21.853  0.1356 -0.1997 -0.1896
 1541DDP     C2 9244  16.742   3.734  21.493 -0.1851 -0.0687 -0.2128
 1541DDP     C3 9245  15.971   4.039  22.495 -0.2978  0.0943  0.2342
 1541DDP     C4 9246  16.774   4.698  21.940  0.0647  0.1152 -0.3502
 1542DDP     C1 9247  25.613  24.689   9.891  0.0278 -0.2592  0.1103
 1542DDP     P1 9248  25.830  25.022   9.709  0.1202 -0.2153  0.0254
 1542DDP     P2 9249  25.362  24.791  10.237 -0.0815  0.0124 -0.1433
 1542DDP     C2 9250  25.227  25.024  10.564 -0.0845 -0.1440 -0.2467
 1542DDP     C3 9251  25.712  25.414   9.496  0.0018 -0.0029  0.0995
 1542DDP     C4 9252  25.421  24.355   9.633 -0.2285 -0.0618  0.2812
 1543DDP     C1 9253   7.402  14.597   3.200  0.3645  0.0211  0.0578
 1543DDP     P1 9254   7.626  14.736   2.774  0.1525  0.1110  0.3521
 1543DDP     P2 9255   7.727  14.585   3.505  0.0146 -0.0566  0.1267
 1543DDP     C2 9256   8.068  14.518   3.819 -0.2300  0.0446 -0.1648
 1543DDP     C3 9257   7.721  14.938   2.324 -0.1047  0.0615 -0.2245
 1543DDP     C4 9258   7.021  14.590   3.267 -0.0585 -0.2923  0.4206
 1544DDP     C1 9259  26.135  23.815  11.261 -0.2330 -0.2503  0.0771
 1544DDP     P1 9260  26.144  23.484  11.412  0.4057 -0.2032  0.3773
 1544DDP     P2 9261  25.785  23.958  11.051 -0.1284  0.3557 -0.1230
 1544DDP     C2 9262  25.416  24.252  11.101 -0.1302 -0.0534  0.1261
 1544DDP     C3 9263  26.058  23.059  11.584  0.0607  0.2504  0.3128
 1544DDP     C4 9264  26.331  24.217  11.480  0.1641 -0.1324 -0.0707
 1545DDP     C1 9265   6.381   1.967  28.372 -0.2110  0.1507  0.0421
 1545DDP     P1 9266   6.466   1.561  28.608 -0.0821  0.1164  0.0547
 1545DDP     P2 9267   6.754   1.948  28.169 -0.3772 -0.2013  0.3527
 1545DDP     C2 9268   6.717   1.940  27.721  0.0709  0.2580 -0.3595
 1545DDP     C3 9269   6.498   1.120  28.781 -0.0377 -0.4681 -0.0783
 1545DDP     C4 9270   6.012   2.188  28.341 -0.1402  0.1051 -0.0646
 1546DDP     C1 9271   2.450   8.047  27.389  0.0289  0.2376 -0.3114
 1546DDP     P1 9272   2.270   7.633  27.340 -0.1773  0.0362  0.0143
 1546DDP     P2 9273   2.751   8.230  27.158 -0.1218  0.0620  0.3996
 1546DDP     C2 9274   2.973   8.554  26.968  0.0667 -0.0340 -0.1227
 1546DDP     C3 9275   2.080   7.468  27.033 -0.0383 -0.0969  0.3503
 1546DDP     C4 9276   2.325   8.321  27.642 -0.0586 -0.2072  0.0158
 1547DDP     C1 9277  18.536  23.846   7.391 -0.2775  0.1876 -0.0234
 1547DDP     P1 9278  18.650  24.254   7.212  0.0949 -0.3964 -0.0313
 1547DDP     P2 9279  18.552  23.419   7.222 -0.1154  0.2284  0.2642
 1547DDP     C2 9280  18.219  23.203   7.005  0.1437 -0.2031 -0.0081
 1547DDP     C3 9281  18.749  24.761   7.372 -0.0099  0.0935 -0.0917
 1547DDP     C4 9282  18.249  23.944   7.676  0.0783 -0.0538  0.2279
 1548DDP     C1 9283   1.095  18.370   1.271 -0.1460 -0.3471  0.2479
 1548DDP     P1 9284   1.117  17.908   1.392  0.1470  0.1060 -0.0736
 1548DDP     P2 9285   0.830  18.635   1.382 -0.3678 -0.1711 -0.1944
 1548DDP     C2 9286   0.458  18.584   1.659 -0.1713 -0.1869  0.2755
 1548DDP     C3 9287   1.126  17.418   1.365 -0.2839 -0.0073  0.1589
 1548DDP     C4 9288   1.350  18.675   0.971  0.0381  0.0854  0.3850
 1549DDP     C1 9289  29.147  14.022  23.296  0.2846 -0.0770 -0.0608
 1549DDP     P1 9290  29.289  14.528  23.214 -0.2802 -0.0979 -0.0771
 1549DDP     P2 9291  29.073  13.579  23.306  0.0823  0.0689  0.0590
 1549DDP     C2 9292  29.270  13.320  22.933 -0.2684  0.2143  0.0557
 1549DDP     C3 9293  29.402  14.849  22.912 -0.0544  0.1995 -0.1149
 1549DDP     C4 9294  29.060  14.131  23.713 -0.0955 -0.1873 -0.1254
 1550DDP     C1 9295  12.337   5.369   6.248  0.0685 -0.0242 -0.3237
 1550DDP     P1 9296  12.541   5.391   5.773  0.3926  0.1756  0.2428
 1550DDP     P2 9297  12.677   5.255   6.346 -0.1174  0.0979 -0.1746
 1550DDP     C2 9298  13.168   4.968   6.246 -0.0023  0.1452  0.0546
 1550DDP     C3 9299  12.867   5.585   5.427  0.0855 -0.1739 -0.1696
 1550DDP     C4 9300  12.017   5.505   6.430 -0.2833 -0.0323 -0.1798
 1551DDP     C1 9301   3.399  20.433  27.475 -0.0164  0.3138 -0.1331
 1551DDP     P1 9302   3.482  20.586  27.869 -0.0544  0.2813  0.0808
 1551DDP     P2 9303   3.017  20.262  27.181 -0.0564  0.0587 -0.0801
 1551DDP     C2 9304   2.923  20.192  26.829  0.2429  0.1750  0.0061
 1551DDP     C3 9305   3.829  20.655  28.138 -0.0473 -0.2347  0.0417
 1551DDP     C4 9306   3.872  20.426  27.433 -0.2465 -0.0864 -0.3348
 1552DDP     C1 9307  19.928   1.157  15.000 -0.0381 -0.4406  0.0948
 1552DDP     P1 9308  20.147   1.220  14.712 -0.0323  0.0126 -0.1469
 1552DDP     P2 9309  19.835   1.522  15.268 -0.3263  0.0683  0.0315
 1552DDP     C2 9310  19.769   1.751  15.660  0.0319 -0.1041  0.0673
 1552DDP     C3 9311  20.221   1.420  14.346  0.1582 -0.1247 -0.0828
 1552DDP     C4 9312  19.797   0.668  14.995 -0.0973  0.1721  0.0644
 1553DDP     C1 9313  15.800  23.593   1.475  0.0141 -0.1201 -0.0102
 1553DDP     P1 9314  15.475  23.368   1.510  0.1918 -0.3238  0.0799
 1553DDP     P2 9315  16.039  23.852   1.518 -0.0181 -0.3683  0.2370
 1553DDP     C2 9316  16.116  24.029   1.216  0.4481 -0.0940  0.1298
 1553DDP     C3 9317  15.318  22.927   1.337 -0.0962  0.0660 -0.1433
 1553DDP     C4 9318  15.959  23.496   1.144  0.0321  0.0572 -0.0245
 1554DDP     C1 9319   5.723  29.998  17.023 -0.0477  0.1643 -0.2503
 1554DDP     P1 9320   6.091  29.747  16.803  0.1295 -0.0464  0.2082
 1554DDP     P2 9321   5.753  30.181  17.464 -0.2624 -0.0378  0.0519
 1554DDP     C2 9322   5.617  30.159  17.904  0.2133  0.0748  0.0831
 1554DDP     C3 9323   6.288  29.311  16.991 -0.2493  0.0600  0.2124
 1554DDP     C4 9324   5.296  30.059  16.719 -0.2615  0.1637 -0.0639
 1555DDP     C1 9325   0.750   7.232  23.695  0.0571 -0.1029 -0.0072
 1555DDP     P1 9326   0.684   7.202  24.116 -0.0247 -0.3060 -0.0343
 1555DDP     P2 9327   1.075   7.532  23.787  0.4163  0.1160 -0.2776
 1555DDP     C2 9328   1.445   7.627  23.934 -0.0317 -0.1211  0.1795
 1555DDP     C3 9329   0.244   7.351  24.323 -0.2171  0.3344 -0.1403
 1555DDP     C4 9330   0.673   7.092  23.302  0.0250 -0.1533  0.0619
 1556DDP     C1 9331  23.620  15.914  27.387  0.4584  0.2648 -0.0695
 1556DDP     P1 9332  23.817  15.871  27.882 -0.0652  0.0467 -0.1156
 1556DDP     P2 9333  23.929  15.810  27.117  0.0542 -0.0120 -0.1045
 1556DDP     C2 9334  24.381  15.938  26.941  0.2057  0.0500  0.1020
 1556DDP     C3 9335  24.068  15.532  28.048 -0.1406 -0.1667 -0.3625
 1556DDP     C4 9336  23.217  16.044  27.265  0.4507  0.1509 -0.3588
 1557DDP     C1 9337  21.970  19.483   8.152  0.1075 -0.2083 -0.0638
 1557DDP     P1 9338  22.154  19.361   8.556 -0.1044  0.1536 -0.0292
 1557DDP     P2 9339  21.721  19.807   8.155  0.0173  0.2726  0.0046
 1557DDP     C2 9340  21.640  20.190   8.113  0.3832 -0.1312 -0.0723
 1557DDP     C3 9341  22.226  19.093   8.831  0.0668 -0.0835 -0.1565
 1557DDP     C4 9342  22.063  19.309   7.706  0.0635  0.0975  0.1486
 1558DDP     C1 9343   6.821  26.247   1.935  0.0619  0.0688  0.0065
 1558DDP     P1 9344   6.784  26.707   1.943  0.0128  0.2206  0.2058
 1558DDP     P2 9345   7.235  26.087   1.887 -0.1746  0.0419 -0.2079
 1558DDP     C2 9346   7.500  26.202   2.226  0.1062  0.3040  0.1047
 1558DDP     C3 9347   7.077  27.041   2.090 -0.2413  0.0436  0.1968
 1558DDP     C4 9348   6.607  25.922   2.200 -0.1837  0.2707  0.1983
 1559DDP     C1 9349  10.047  20.803   4.931 -0.0214 -0.2923 -0.3202
 1559DDP     P1 9350   9.767  21.142   5.010  0.0489  0.0627  0.0034
 1559DDP     P2 9351   9.967  20.498   5.316 -0.2254  0.0409 -0.0760
 1559DDP     C2 9352  10.167  20.258   5.583  0.2388 -0.1346  0.1452
 1559DDP     C3 9353   9.669  21.182   5.422 -0.2959  0.2092  0.4967
 1559DDP     C4 9354  10.369  20.644   4.740  0.1659  0.3315 -0.1899
 1560DDP     C1 9355  25.659   7.233  26.596 -0.1513  0.0047 -0.0319
 1560DDP     P1 9356  25.700   7.322  26.147 -0.0802  0.1799  0.0241
 1560DDP     P2 9357  25.368   7.350  26.949 -0.2059  0.3676 -0.2759
 1560DDP     C2 9358  25.316   7.275  27.366 -0.1483  0.1298  0.0066
 1560DDP     C3 9359  25.962   7.382  25.850 -0.0354 -0.0009  0.0101
 1560DDP     C4 9360  26.100   7.109  26.677 -0.4478  0.2002  0.0419
 1561DDP     C1 9361  18.324  -0.005   3.107 -0.1928 -0.1606 -0.0958
 1561DDP     P1 9362  18.022  30.139   3.336 -0.0728 -0.0916  0.2316
 1561DDP     P2 9363  18.357  30.199   2.667  0.1374  0.0449 -0.3456
 1561DDP     C2 9364  18.373  30.062   2.196  0.0440  0.2525  0.1029
 1561DDP     C3 9365  17.680  30.091   3.526 -0.2037 -0.1740 -0.0111
 1561DDP     C4 9366  18.413   0.453   3.230  0.1153  0.0197  0.0048
 1562DDP     C1 9367  21.937  19.761  12.618  0.1813 -0.2340 -0.1203
 1562DDP     P1 9368  21.959  19.775  13.100  0.4394  0.0443 -0.4503
 1562DDP     P2 9369  22.277  19.677  12.369 -0.3238 -0.1461  0.2834
 1562DDP     C2 9370  22.294  19.266  12.084  0.2047  0.0173  0.3562
 1562DDP     C3 9371  21.846  20.036  13.435  0.1189  0.1951  0.1790
 1562DDP     C4 9372  21.750  19.895  12.246 -0.1710 -0.5106 -0.0479
 1563DDP     C1 9373  22.801   8.596  29.158 -0.0953 -0.1553  0.3552
 1563DDP     P1 9374  22.690   9.085  29.267  0.1406  0.3065  0.1062
 1563DDP     P2 9375  22.799   8.335  29.442 -0.1206  0.3154  0.0763
 1563DDP     C2 9376  23.143   8.113  29.458  0.2659 -0.0236 -0.4623
 1563DDP     C3 9377  22.603   9.512  29.229  0.0334  0.2342  0.0414
 1563DDP     C4 9378  22.848   8.674  28.729 -0.2225 -0.0667  0.0255
 1564DDP     C1 9379   4.364  15.336  21.233  0.1619 -0.0176  0.1894
 1564DDP     P1 9380   4.187  15.715  21.187 -0.3156  0.0362 -0.0895
 1564DDP     P2 9381   4.167  15.007  21.398 -0.0005  0.1918 -0.1173
 1564DDP     C2 9382   3.753  14.757  21.214  0.0930  0.3916 -0.0718
 1564DDP     C3 9383   4.167  16.114  21.178 -0.1899 -0.2289  0.1308
 1564DDP     C4 9384   4.775  15.530  21.186 -0.1320  0.1670 -0.0811
 1565DDP     C1 9385  27.827  14.878  18.415 -0.0327 -0.1078  0.1551
 1565DDP     P1 9386  28.054  14.769  18.044  0.1637 -0.0937  0.1155
 1565DDP     P2 9387  28.228  14.766  18.797  0.1528  0.1326  0.0559
 1565DDP     C2 9388  28.636  14.876  18.937  0.1186  0.1562 -0.1515
 1565DDP     C3 9389  28.350  14.408  17.967  0.2898 -0.0984 -0.1474
 1565DDP     C4 9390  27.642  15.176  18.478  0.1322  0.0308  0.1816
 1566DDP     C1 9391  22.716  12.421  27.615  0.1482  0.0835  0.2413
 1566DDP     P1 9392  22.392  12.234  27.780  0.0516 -0.3170  0.0071
 1566DDP     P2 9393  23.092  12.431  27.741 -0.0526  0.1665  0.2331
 1566DDP     C2 9394  23.554  12.639  27.905 -0.0132 -0.1011 -0.1546
 1566DDP     C3 9395  22.026  12.474  27.830 -0.1187 -0.2067  0.4185
 1566DDP     C4 9396  22.774  12.406  27.263 -0.0962 -0.2637  0.0713
 1567DDP     C1 9397   8.750   6.057  20.720  0.1121 -0.0843  0.0307
 1567DDP     P1 9398   8.683   6.522  20.658 -0.0041  0.1672 -0.1102
 1567DDP     P2 9399   8.804   5.959  21.066  0.2594 -0.0985  0.2653
 1567DDP     C2 9400   9.258   5.776  21.118  0.0642  0.0781  0.1571
 1567DDP     C3 9401   8.753   6.980  20.613  0.2713  0.2127 -0.1352
 1567DDP     C4 9402   8.856   5.807  20.537 -0.1498  0.0596  0.3728
 1568DDP     C1 9403  16.582   4.964  27.738 -0.0218 -0.4485 -0.1026
 1568DDP     P1 9404  16.744   4.788  27.326  0.3245 -0.3221  0.1951
 1568DDP     P2 9405  16.264   4.655  27.873 -0.2297  0.4007  0.1899
 1568DDP     C2 9406  15.837   4.684  28.104  0.2694 -0.0703  0.0439
 1568DDP     C3 9407  17.194   5.028  27.222  0.0724 -0.1413  0.1202
 1568DDP     C4 9408  16.521   5.484  27.803 -0.1924 -0.0204 -0.0544
 1569DDP     C1 9409  19.153   7.546   5.206 -0.2324  0.1707 -0.0454
 1569DDP     P1 9410  18.983   7.183   5.278 -0.1086  0.1585 -0.0347
 1569DDP     P2 9411  19.360   7.862   5.511  0.2319  0.0577 -0.1573
 1569DDP     C2 9412  19.170   7.978   5.855 -0.1679  0.0889 -0.4022
 1569DDP     C3 9413  19.131   6.812   5.333  0.0478  0.1318 -0.1997
 1569DDP     C4 9414  19.304   7.410   4.833 -0.1323  0.1966 -0.0610
 1570DDP     C1 9415  29.225  23.821   8.897 -0.2097 -0.1144  0.0296
 1570DDP     P1 9416  29.361  23.470   9.151  0.0687  0.1394 -0.1551
 1570DDP     P2 9417  28.796  23.888   8.920 -0.0938  0.2870 -0.0821
 1570DDP     C2 9418  28.426  24.069   8.834 -0.4508 -0.1653 -0.1531
 1570DDP     C3 9419  29.400  23.346   9.621  0.0127 -0.0891 -0.2536
 1570DDP     C4 9420  29.666  23.903   8.858 -0.0753 -0.1491 -0.0500
 1571DDP     C1 9421   0.932   6.915  24.384  0.2661  0.0264  0.1996
 1571DDP     P1 9422   1.180   7.121  24.028  0.0173 -0.2795  0.1712
 1571DDP     P2 9423   0.731   7.137  24.737  0.0054 -0.0619  0.2445
 1571DDP     C2 9424   0.521   7.381  24.977  0.0259 -0.2543 -0.0356
 1571DDP     C3 9425   1.517   7.110  23.709  0.0687  0.2129  0.2090
 1571DDP     C4 9426   0.712   6.625  24.401 -0.3827 -0.0660 -0.1262
 1572DDP     C1 9427  18.478   7.440  20.462  0.0259 -0.1889 -0.3637
 1572DDP     P1 9428  18.288   7.079  20.383 -0.0187  0.0970 -0.0040
 1572DDP     P2 9429  18.366   7.662  20.890  0.3166 -0.0347 -0.0497
 1572DDP     C2 9430  18.477   7.691  21.249  0.2811  0.4611  0.2470
 1572DDP     C3 9431  18.062   6.673  20.464 -0.0081  0.3805 -0.1015
 1572DDP     C4 9432  18.835   7.728  20.354  0.1567  0.3031 -0.2762
 1573DDP     C1 9433   7.417   9.651  13.320  0.2847 -0.0539 -0.1427
 1573DDP     P1 9434   7.085   9.439  13.192 -0.0129 -0.2344 -0.1782
 1573DDP     P2 9435   7.402   9.738  13.823 -0.1825 -0.2168 -0.0615
 1573DDP     C2 9436   7.613   9.580  14.163 -0.0371 -0.1342 -0.0338
 1573DDP     C3 9437   6.819   9.045  13.420  0.0144 -0.1444 -0.0064
 1573DDP     C4 9438   7.747   9.597  12.948  0.0930  0.0171 -0.1138
 1574DDP     C1 9439  16.509   1.103   5.869 -0.0637  0.1689 -0.2208
 1574DDP     P1 9440  16.414   0.660   5.965  0.2468 -0.1305  0.4236
 1574DDP     P2 9441  16.120   1.319   5.813 -0.2942 -0.0948 -0.2455
 1574DDP     C2 9442  16.057   1.674   5.440  0.1815 -0.0782 -0.0060
 1574DDP     C3 9443  16.564   0.366   6.297  0.0323  0.0234 -0.3891
 1574DDP     C4 9444  16.821   1.294   5.626 -0.2678  0.1229 -0.1792
 1575DDP     C1 9445   9.828   5.089  13.889  0.1006 -0.1887  0.0988
 1575DDP     P1 9446   9.766   5.277  13.548  0.2685  0.1040  0.3882
 1575DDP     P2 9447   9.716   5.251  14.282  0.2677  0.1421  0.0033
 1575DDP     C2 9448   9.284   5.115  14.610 -0.1500  0.1857  0.4202
 1575DDP     C3 9449   9.673   5.715  13.396 -0.0463  0.0371  0.2559
 1575DDP     C4 9450   9.932   4.721  13.954 -0.2093  0.0789  0.1027
 1576DDP     C1 9451  10.544  17.826  18.957  0.2517  0.2252 -0.2633
 1576DDP     P1 9452  10.285  17.915  19.200  0.3111  0.0038  0.0164
 1576DDP     P2 9453  10.731  17.399  18.974 -0.1051  0.0062 -0.0567
 1576DDP     C2 9454  10.697  17.094  19.289 -0.1041  0.2623 -0.0614
 1576DDP     C3 9455   9.805  18.025  19.437  0.1305 -0.3870  0.1184
 1576DDP     C4 9456  10.561  18.020  18.541  0.3514 -0.1342 -0.3963
 1577DDP     C1 9457   5.814  26.004   6.395  0.0489 -0.2818 -0.4208
 1577DDP     P1 9458   6.209  26.197   6.602 -0.1294  0.0764  0.1661
 1577DDP     P2 9459   5.779  25.972   5.977  0.0890 -0.2339  0.2020
 1577DDP     C2 9460   5.733  25.738   5.551  0.1878  0.1632 -0.2661
 1577DDP     C3 9461   6.382  26.535   6.880  0.0678 -0.1458 -0.1403
 1577DDP     C4 9462   5.437  25.987   6.584  0.0213  0.1649  0.0713
 1578DDP     C1 9463  25.221  28.404   3.217 -0.3678  0.0496  0.2050
 1578DDP     P1 9464  25.529  28.421   3.148 -0.3378  0.0470 -0.2878
 1578DDP     P2 9465  24.987  28.714   3.143  0.0839  0.1225  0.0928
 1578DDP     C2 9466  24.716  28.924   2.871 -0.0463 -0.0387 -0.3509
 1578DDP     C3 9467  25.880  28.469   3.305  0.0165  0.0631  0.0517
 1578DDP     C4 9468  25.216  28.028   3.474 -0.0447  0.1434 -0.1133
 1579DDP     C1 9469   8.098  19.399   1.526  0.1228  0.0467  0.0914
 1579DDP     P1 9470   8.529  19.433   1.432 -0.0946  0.2263 -0.1023
 1579DDP     P2 9471   7.841  19.694   1.776 -0.1794 -0.0358  0.2141
 1579DDP     C2 9472   7.723  20.023   1.934  0.1435  0.0091  0.0244
 1579DDP     C3 9473   8.913  19.682   1.430  0.4518  0.0378 -0.0355
 1579DDP     C4 9474   7.927  18.943   1.622  0.2108 -0.1381  0.1330
 1580DDP     C1 9475  12.904  25.607  13.049 -0.0909 -0.0913  0.2026
 1580DDP     P1 9476  13.205  25.765  13.266  0.0753  0.0459  0.1443
 1580DDP     P2 9477  12.785  25.358  12.672 -0.1972 -0.1219  0.0969
 1580DDP     C2 9478  13.144  25.485  12.200  0.0193 -0.1161 -0.2782
 1580DDP     C3 9479  13.441  25.339  13.369 -0.0783 -0.2775 -0.0936
 1580DDP     C4 9480  12.516  25.671  13.087  0.1015  0.0356  0.0389
 1581DDP     C1 9481  29.567  19.429  12.946  0.0231 -0.0957 -0.1226
 1581DDP     P1 9482  29.991  19.554  13.036 -0.0217 -0.1483 -0.0593
 1581DDP     P2 9483  29.347  19.073  13.201 -0.1077 -0.0091  0.0839
 1581DDP     C2 9484  29.153  18.689  13.296 -0.0580 -0.0478 -0.2705
 1581DDP     C3 9485   0.077  19.690  13.062 -0.1118  0.0698 -0.2355
 1581DDP     C4 9486  29.365  19.882  12.829 -0.0420  0.4500 -0.1804
 1582DDP     C1 9487   5.818   2.952  10.302  0.2088 -0.2568 -0.1220
 1582DDP     P1 9488   5.936   3.236  10.529 -0.0716  0.2407 -0.3002
 1582DDP     P2 9489   5.759   2.942   9.851 -0.2438  0.1161  0.1946
 1582DDP     C2 9490   5.412   2.938   9.690 -0.1061  0.1949  0.0538
 1582DDP     C3 9491   6.198   3.604  10.513  0.3318  0.2945 -0.2655
 1582DDP     C4 9492   5.566   2.711  10.562 -0.0673 -0.2693  0.5941
 1583DDP     C1 9493  16.272   6.493  11.574 -0.0782 -0.3875  0.0477
 1583DDP     P1 9494  16.036   6.758  11.815 -0.0753 -0.2860  0.2116
 1583DDP     P2 9495  16.183   6.040  11.728  0.2210 -0.2387 -0.2663
 1583DDP     C2 9496  15.907   5.693  11.773  0.0754 -0.0872 -0.0630
 1583DDP     C3 9497  15.703   7.082  12.054 -0.4017  0.2163  0.2933
 1583DDP     C4 9498  16.696   6.649  11.323  0.0430  0.0777  0.2342
 1584DDP     C1 9499  13.492  24.880  13.205 -0.1668 -0.0658 -0.3522
 1584DDP     P1 9500  13.363  24.736  12.796 -0.0101  0.4180  0.0410
 1584DDP     P2 9501  13.912  24.948  13.412  0.2498  0.0205 -0.2853
 1584DDP     C2 9502  14.127  24.894  13.846 -0.1453 -0.1433 -0.2521
 1584DDP     C3 9503  12.993  24.616  12.458  0.0616 -0.0448  0.0355
 1584DDP     C4 9504  13.163  24.827  13.390 -0.2305  0.0147 -0.3425
 1585DDP     C1 9505   7.468   4.397  25.453 -0.1670  0.1718 -0.0628
 1585DDP     P1 9506   7.384   4.040  25.391 -0.3106  0.2209 -0.0708
 1585DDP     P2 9507   7.642   4.145  25.861  0.1883  0.2757 -0.2164
 1585DDP     C2 9508   8.104   4.079  25.967 -0.0545 -0.1765 -0.0023
 1585DDP     C3 9509   7.166   3.750  25.557 -0.0971  0.1544  0.0190
 1585DDP     C4 9510   7.341   4.719  25.321 -0.1081  0.0004  0.0149
 1586DDP     C1 9511   3.698  28.626   6.161 -0.0481 -0.2151  0.0712
 1586DDP     P1 9512   3.837  28.979   6.490  0.4054 -0.2311  0.2200
 1586DDP     P2 9513   3.859  28.784   5.667  0.0073 -0.1474  0.0131
 1586DDP     C2 9514   4.372  28.789   5.573 -0.2230  0.1283 -0.0391
 1586DDP     C3 9515   4.087  29.268   6.753  0.0208 -0.0087 -0.0086
 1586DDP     C4 9516   3.467  28.403   6.322 -0.1100  0.2973  0.0810
 1587DDP     C1 9517  18.970  29.656   4.234 -0.0808 -0.1895 -0.3301
 1587DDP     P1 9518  18.595  29.748   4.436  0.0336 -0.3107  0.1023
 1587DDP     P2 9519  19.078  29.783   3.756 -0.1679  0.3643 -0.1586
 1587DDP     C2 9520  18.950  29.635   3.321 -0.0839 -0.3082 -0.1292
 1587DDP     C3 9521  18.328  29.674   4.804  0.0623  0.0329 -0.2368
 1587DDP     C4 9522  19.274  29.872   4.465 -0.3896 -0.0793 -0.0634
 1588DDP     C1 9523   8.033  28.286   0.434  0.1670  0.0130 -0.1260
 1588DDP     P1 9524   7.975  27.889   0.169 -0.1880 -0.1191 -0.0854
 1588DDP     P2 9525   7.995  28.741   0.266  0.0483  0.1975 -0.0205
 1588DDP     C2 9526   7.763  29.033   0.280 -0.3014 -0.0090 -0.1289
 1588DDP     C3 9527   7.770  27.609  30.162  0.0040 -0.0212 -0.1397
 1588DDP     C4 9528   8.197  28.332   0.833 -0.1353 -0.1597  0.0208
 1589DDP     C1 9529   6.417  15.781   3.665  0.2673 -0.3070  0.0808
 1589DDP     P1 9530   6.800  15.654   3.827 -0.0685 -0.0750  0.0525
 1589DDP     P2 9531   6.032  15.638   3.665 -0.0348 -0.0408 -0.0779
 1589DDP     C2 9532   5.674  15.777   3.432  0.0147  0.1374 -0.1827
 1589DDP     C3 9533   7.137  15.514   4.181  0.0852  0.1703  0.1189
 1589DDP     C4 9534   6.436  16.193   3.652 -0.3202  0.1731 -0.0408
 1590DDP     C1 9535  26.776  22.009  29.244 -0.0288  0.1429  0.0128
 1590DDP     P1 9536  26.852  21.578  29.132 -0.1792  0.0625  0.3733
 1590DDP     P2 9537  26.631  22.167  28.829 -0.4731 -0.3361  0.0660
 1590DDP     C2 9538  26.568  22.280  28.380  0.0133  0.0982 -0.1313
 1590DDP     C3 9539  26.878  21.394  28.688 -0.1631 -0.0074 -0.1512
 1590DDP     C4 9540  26.832  22.254  29.624 -0.0904  0.2096 -0.0170
 1591DDP     C1 9541  16.808  18.891   3.749 -0.1652 -0.1715 -0.0829
 1591DDP     P1 9542  17.186  18.928   3.655 -0.0423 -0.0670 -0.1776
 1591DDP     P2 9543  16.511  19.202   3.816 -0.0192 -0.1538  0.2498
 1591DDP     C2 9544  16.365  19.575   4.099  0.0526 -0.0239 -0.2760
 1591DDP     C3 9545  17.495  19.266   3.512 -0.2642  0.0559  0.0383
 1591DDP     C4 9546  16.705  18.594   3.932 -0.0663 -0.2266  0.3640
 1592DDP     C1 9547  27.733  24.492   6.416  0.0909 -0.2963 -0.2840
 1592DDP     P1 9548  27.543  24.566   6.813  0.2298 -0.3787  0.0164
 1592DDP     P2 9549  27.252  24.456   6.302  0.0071  0.3505 -0.0393
 1592DDP     C2 9550  26.794  24.413   6.297 -0.0109  0.0783 -0.0716
 1592DDP     C3 9551  27.519  24.407   7.224  0.3232  0.1904  0.0996
 1592DDP     C4 9552  28.147  24.262   6.250 -0.0968  0.2025  0.0723
 1593DDP     C1 9553   6.498  12.645  16.347  0.0144  0.0063 -0.0026
 1593DDP     P1 9554   6.280  12.283  16.210 -0.0472  0.1450 -0.0769
 1593DDP     P2 9555   6.444  13.068  16.162 -0.2123  0.3072  0.0805
 1593DDP     C2 9556   6.223  13.426  16.403 -0.0497 -0.0272  0.0491
 1593DDP     C3 9557   6.021  11.997  15.988  0.0259 -0.1938  0.3276
 1593DDP     C4 9558   6.691  12.558  16.730 -0.3016  0.1927  0.0202
 1594DDP     C1 9559  23.567  12.177  25.137  0.0808  0.1444 -0.0593
 1594DDP     P1 9560  23.860  12.355  24.797  0.1526  0.1974  0.0260
 1594DDP     P2 9561  23.431  11.707  25.121  0.2872 -0.1593 -0.1804
 1594DDP     C2 9562  23.372  11.344  25.279 -0.2677  0.0702 -0.2941
 1594DDP     C3 9563  23.862  12.228  24.352  0.0369 -0.3316 -0.1512
 1594DDP     C4 9564  23.265  12.369  25.425 -0.1080 -0.3887  0.1244
 1595DDP     C1 9565  21.361   5.855  28.766  0.1546 -0.1188  0.0480
 1595DDP     P1 9566  21.129   5.898  29.117 -0.5291  0.1545 -0.1275
 1595DDP     P2 9567  21.435   5.476  28.531  0.0064 -0.2221  0.0745
 1595DDP     C2 9568  21.410   5.550  28.071 -0.3026  0.1203  0.2258
 1595DDP     C3 9569  21.064   5.787  29.587  0.2616  0.0253 -0.0508
 1595DDP     C4 9570  21.622   6.242  28.805  0.0433  0.0055 -0.2586
 1596DDP     C1 9571  20.511  27.206  14.299  0.0411  0.0312  0.0606
 1596DDP     P1 9572  20.898  27.506  14.282 -0.0679 -0.3982 -0.0336
 1596DDP     P2 9573  20.396  27.091  14.820 -0.1128  0.0719  0.0298
 1596DDP     C2 9574  20.459  27.088  15.299 -0.4665  0.1742  0.2940
 1596DDP     C3 9575  21.301  27.765  14.292 -0.0184  0.1316 -0.1676
 1596DDP     C4 9576  20.271  27.046  14.080 -0.2688 -0.2219  0.1654
 1597DDP     C1 9577   5.500  21.870  17.659  0.0467 -0.0601  0.1799
 1597DDP     P1 9578   5.610  22.336  17.811  0.3119 -0.0142 -0.2366
 1597DDP     P2 9579   5.872  21.805  17.480 -0.0517  0.0354 -0.1874
 1597DDP     C2 9580   6.296  21.614  17.569  0.1378  0.2640  0.0553
 1597DDP     C3 9581   5.587  22.825  17.803 -0.2163  0.3098 -0.0101
 1597DDP     C4 9582   5.112  21.581  17.471  0.1442 -0.2466 -0.1941
 1598DDP     C1 9583  25.589  15.559  10.604  0.0221  0.0169  0.0985
 1598DDP     P1 9584  25.321  15.887  10.810 -0.0057 -0.2001 -0.1539
 1598DDP     P2 9585  25.492  15.717  10.173 -0.1376 -0.2315 -0.2266
 1598DDP     C2 9586  25.497  15.843   9.769 -0.0481  0.2399  0.0457
 1598DDP     C3 9587  25.061  15.813  11.202 -0.0951  0.0214 -0.1202
 1598DDP     C4 9588  25.932  15.135  10.622  0.0288  0.0496 -0.4868
 1599DDP     C1 9589   9.332  25.791   5.778 -0.1776  0.0547 -0.2079
 1599DDP     P1 9590   9.630  25.506   5.750 -0.0244  0.0175 -0.2310
 1599DDP     P2 9591   9.453  26.181   5.900 -0.0562  0.1958 -0.0258
 1599DDP     C2 9592   9.649  26.456   5.614  0.1080 -0.1700  0.0824
 1599DDP     C3 9593   9.716  25.059   5.697 -0.3379 -0.2075 -0.2113
 1599DDP     C4 9594   8.995  25.746   5.477 -0.1314  0.2790  0.1522
 1600DDP     C1 9595   3.361  12.878  15.095  0.2537 -0.1464  0.0220
 1600DDP     P1 9596   2.990  12.886  15.097  0.2054  0.0269  0.3609
 1600DDP     P2 9597   3.472  12.938  15.633 -0.0835 -0.1203  0.0031
 1600DDP     C2 9598   3.864  12.848  15.777 -0.1355  0.0622  0.0685
 1600DDP     C3 9599   2.466  12.751  15.002  0.1885 -0.0573  0.1524
 1600DDP     C4 9600   3.665  12.884  14.783 -0.2638  0.2559 -0.1144
 1601DDP     C1 9601  15.605  29.140   9.655  0.2535 -0.0496  0.1871
 1601DDP     P1 9602  15.331  29.359   9.636  0.0500  0.0732  0.0269
 1601DDP     P2 9603  15.785  28.915  10.005  0.1180 -0.3507  0.2832
 1601DDP     C2 9604  15.967  28.707  10.327  0.0464  0.1505  0.0449
 1601DDP     C3 9605  15.173  29.650   9.765  0.3767 -0.0973 -0.1608
 1601DDP     C4 9606  15.901  29.163   9.232 -0.1451  0.0647 -0.0221
 1602DDP     C1 9607  20.497  13.501   4.926  0.2366 -0.2809 -0.1287
 1602DDP     P1 9608  20.154  13.400   4.690  0.0376 -0.3269  0.0446
 1602DDP     P2 9609  20.628  13.942   4.946 -0.0040  0.1354 -0.2173
 1602DDP     C2 9610  20.715  14.364   4.865 -0.3092 -0.2250 -0.4132
 1602DDP     C3 9611  19.781  13.137   4.589  0.0569  0.0494  0.4920
 1602DDP     C4 9612  20.761  13.104   5.106 -0.2016 -0.2709 -0.1298
 1603DDP     C1 9613  22.759  11.993   8.446  0.0770 -0.0677  0.1460
 1603DDP     P1 9614  22.460  11.717   8.388  0.0668 -0.0247  0.0869
 1603DDP     P2 9615  22.986  11.961   8.070 -0.2168  0.1071  0.3354
 1603DDP     C2 9616  23.432  11.734   7.985  0.0121  0.0443  0.2808
 1603DDP     C3 9617  22.097  11.697   8.487  0.1145 -0.1226 -0.1343
 1603DDP     C4 9618  22.966  12.157   8.889 -0.1941  0.3321  0.0897
 1604DDP     C1 9619  12.104  27.509  29.195  0.1229  0.0021  0.0401
 1604DDP     P1 9620  12.272  27.125  29.349  0.0673  0.0108 -0.1814
 1604DDP     P2 9621  12.384  27.693  29.400 -0.2645  0.2673  0.1050
 1604DDP     C2 9622  12.655  27.440  29.470 -0.1101  0.0145 -0.2962
 1604DDP     C3 9623  12.615  26.792  29.307  0.1508  0.0373  0.3750
 1604DDP     C4 9624  11.756  27.526  28.912 -0.2686 -0.0317  0.0006
 1605DDP     C1 9625   7.674  27.585   8.360 -0.1219 -0.2726 -0.0529
 1605DDP     P1 9626   7.590  28.019   8.292 -0.1964  0.1419 -0.1477
 1605DDP     P2 9627   7.356  27.408   8.659 -0.2868  0.2328  0.0214
 1605DDP     C2 9628   6.935  27.527   8.842  0.0127 -0.1167 -0.0972
 1605DDP     C3 9629   7.362  28.366   8.476 -0.2389 -0.1449  0.3537
 1605DDP     C4 9630   7.846  27.276   8.124 -0.0913 -0.1900  0.2416
 1606DDP     C1 9631   5.499  24.786  16.888 -0.0145 -0.0665  0.2937
 1606DDP     P1 9632   5.615  24.723  17.248  0.0045 -0.4593 -0.0116
 1606DDP     P2 9633   5.856  25.192  16.970 -0.4192  0.3199 -0.0083
 1606DDP     C2 9634   5.818  25.587  17.155  0.0459 -0.0525 -0.0630
 1606DDP     C3 9635   5.830  24.436  17.395  0.1535 -0.2715 -0.2323
 1606DDP     C4 9636   5.326  24.552  16.489 -0.1135  0.0600 -0.2307
 1607DDP     C1 9637   5.982  21.952  20.501 -0.0701  0.1417 -0.2317
 1607DDP     P1 9638   5.913  21.621  20.235 -0.0883  0.1421  0.0625
 1607DDP     P2 9639   6.137  22.182  20.235 -0.2592  0.0894  0.1713
 1607DDP     C2 9640   6.168  22.399  19.747  0.1689  0.4398 -0.1368
 1607DDP     C3 9641   5.534  21.419  20.104  0.0847 -0.2846 -0.2807
 1607DDP     C4 9642   5.892  21.775  20.847 -0.1007 -0.0822 -0.3097
 1608DDP     C1 9643  24.415  28.588   9.537  0.4469  0.1460  0.1424
 1608DDP     P1 9644  24.052  28.597   9.683 -0.0857 -0.1081 -0.1150
 1608DDP     P2 9645  24.630  28.351   9.724  0.1538  0.1074 -0.2694
 1608DDP     C2 9646  24.713  27.920   9.783 -0.2808  0.2603  0.3169
 1608DDP     C3 9647  23.673  28.889   9.608 -0.0555  0.0890 -0.1663
 1608DDP     C4 9648  24.648  28.849   9.258 -0.3352 -0.0710  0.0052
 1609DDP     C1 9649  28.349  25.244  25.320  0.2516 -0.0179  0.0312
 1609DDP     P1 9650  28.116  25.252  24.988  0.0319 -0.0769 -0.1751
 1609DDP     P2 9651  28.321  24.951  25.645 -0.1814 -0.0078  0.1081
 1609DDP     C2 9652  28.178  24.650  26.006 -0.1035 -0.1442 -0.0212
 1609DDP     C3 9653  28.075  25.246  24.606  0.0113 -0.0789  0.0544
 1609DDP     C4 9654  28.757  25.531  25.467 -0.0251  0.1270  0.1968
 1610DDP     C1 9655  12.493  24.184   5.483 -0.0294  0.1495  0.3067
 1610DDP     P1 9656  12.694  23.818   5.591 -0.0426  0.2065  0.1910
 1610DDP     P2 9657  12.047  24.175   5.660 -0.1185  0.1292 -0.1489
 1610DDP     C2 9658  11.845  24.517   5.877  0.0192  0.3730  0.0146
 1610DDP     C3 9659  13.062  23.517   5.489 -0.1511  0.2315 -0.2583
 1610DDP     C4 9660  12.665  24.555   5.319  0.2236  0.2100 -0.3959
 1611DDP     C1 9661  26.971   5.319  26.623  0.2426 -0.1342  0.0494
 1611DDP     P1 9662  26.826   5.122  27.003  0.1308  0.1362  0.1434
 1611DDP     P2 9663  27.200   5.654  26.702 -0.3827  0.0873  0.0544
 1611DDP     C2 9664  27.519   5.936  26.985 -0.1082  0.1724 -0.3551
 1611DDP     C3 9665  26.840   5.297  27.422  0.0906  0.2224  0.0738
 1611DDP     C4 9666  26.820   5.170  26.223  0.1022 -0.0546  0.1556
 1612DDP     C1 9667  24.913  27.456  28.547  0.0632  0.2073 -0.1979
 1612DDP     P1 9668  25.000  27.522  29.012 -0.1629 -0.0438  0.0962
 1612DDP     P2 9669  24.970  27.753  28.273 -0.2101 -0.1667  0.3305
 1612DDP     C2 9670  24.849  28.174  28.218  0.0445 -0.4290  0.0626
 1612DDP     C3 9671  25.142  27.514  29.438 -0.2254  0.2947 -0.0314
 1612DDP     C4 9672  24.538  27.317  28.535  0.1136 -0.1486 -0.2168
 1613DDP     C1 9673  10.771  15.012   0.871  0.1897 -0.1126  0.1495
 1613DDP     P1 9674  10.959  15.493   0.840  0.0886  0.1471 -0.0275
 1613DDP     P2 9675  10.578  14.784   1.191 -0.0228 -0.3494  0.1086
 1613DDP     C2 9676  10.511  14.813   1.645  0.1562  0.0553 -0.1380
 1613DDP     C3 9677  10.977  15.713   0.409 -0.1006 -0.0063  0.5816
 1613DDP     C4 9678  10.735  14.853   0.456  0.0642 -0.0806  0.1589
 1614DDP     C1 9679  20.211  18.745  24.747 -0.2007 -0.2128 -0.0842
 1614DDP     P1 9680  20.150  18.376  25.029 -0.0401 -0.1098  0.0294
 1614DDP     P2 9681  20.543  18.508  24.511 -0.1059  0.0396  0.3746
 1614DDP     C2 9682  20.995  18.310  24.479  0.1590  0.4142 -0.0079
 1614DDP     C3 9683  20.299  17.981  25.061 -0.3167  0.3423 -0.1412
 1614DDP     C4 9684  20.042  19.080  24.447  0.0753  0.1189  0.0890
 1615DDP     C1 9685  11.876   6.677  23.235  0.0624 -0.0837  0.1964
 1615DDP     P1 9686  11.876   7.092  23.226 -0.2547 -0.0964  0.1262
 1615DDP     P2 9687  12.146   6.520  22.995  0.0938 -0.0858 -0.0543
 1615DDP     C2 9688  12.359   6.773  22.697  0.0271  0.3106 -0.1791
 1615DDP     C3 9689  11.807   7.373  22.924 -0.1472 -0.4828  0.1378
 1615DDP     C4 9690  11.694   6.409  23.498 -0.0940  0.1230 -0.0054
 1616DDP     C1 9691  16.342   4.437   2.942 -0.1151 -0.0286 -0.1430
 1616DDP     P1 9692  16.503   4.425   3.395 -0.2368 -0.1570  0.4931
 1616DDP     P2 9693  16.172   3.971   2.986 -0.1179 -0.1135  0.1258
 1616DDP     C2 9694  16.272   3.528   2.700  0.0587  0.0121 -0.1121
 1616DDP     C3 9695  16.609   4.183   3.748 -0.1753  0.2210 -0.1138
 1616DDP     C4 9696  16.349   4.720   2.637 -0.1644  0.0595  0.0840
 1617DDP     C1 9697  29.491  29.762  29.316 -0.1271  0.2746 -0.2169
 1617DDP     P1 9698  29.474  30.139  29.601  0.1555 -0.0253  0.0820
 1617DDP     P2 9699  29.628  29.900  28.869 -0.2146  0.3040 -0.0622
 1617DDP     C2 9700  29.780  30.247  28.858  0.1911  0.1439  0.3076
 1617DDP     C3 9701  29.674   0.051  29.905 -0.2616 -0.0948  0.1101
 1617DDP     C4 9702  29.313  29.361  29.426 -0.1146 -0.0026 -0.2192
 1618DDP     C1 9703  27.747  14.258  14.306  0.0520 -0.3603  0.2781
 1618DDP     P1 9704  27.851  14.595  14.454 -0.0329 -0.1550 -0.0272
 1618DDP     P2 9705  27.498  14.014  14.566 -0.2559 -0.3068  0.0175
 1618DDP     C2 9706  27.461  14.009  14.947  0.1144  0.1939 -0.3172
 1618DDP     C3 9707  27.970  15.032  14.589  0.1677  0.1287  0.0813
 1618DDP     C4 9708  28.051  13.949  14.008 -0.1091  0.0389 -0.0672
 1619DDP     C1 9709  14.106  23.300  22.790  0.0243  0.2250 -0.0094
 1619DDP     P1 9710  14.106  23.389  23.264 -0.0087 -0.0089 -0.1259
 1619DDP     P2 9711  14.464  23.576  22.575 -0.1194  0.0391 -0.1235
 1619DDP     C2 9712  14.907  23.510  22.682 -0.1150  0.0349 -0.0012
 1619DDP     C3 9713  13.985  23.157  23.712 -0.2819 -0.2142 -0.1434
 1619DDP     C4 9714  13.674  23.051  22.719  0.1811 -0.0998  0.2770
 1620DDP     C1 9715  20.714  18.418  16.185  0.2352  0.2111  0.3090
 1620DDP     P1 9716  21.016  18.663  16.397  0.3525  0.0085 -0.3281
 1620DDP     P2 9717  20.449  18.614  15.905  0.3499  0.2599 -0.1117
 1620DDP     C2 9718  20.455  19.015  15.614  0.2730  0.2324  0.1081
 1620DDP     C3 9719  21.392  18.841  16.510  0.0101 -0.0338 -0.1194
 1620DDP     C4 9720  20.418  18.103  16.272 -0.0830  0.2264 -0.0192
 1621DDP     C1 9721  20.746  10.663  23.912  0.1925 -0.1502  0.1168
 1621DDP     P1 9722  20.845  10.912  23.502 -0.0886  0.0285  0.0131
 1621DDP     P2 9723  20.984  10.684  24.268  0.0886 -0.1114  0.2334
 1621DDP     C2 9724  20.931  10.563  24.660 -0.0252 -0.1274  0.0560
 1621DDP     C3 9725  20.957  11.175  23.184 -0.0756 -0.1047 -0.0908
 1621DDP     C4 9726  20.279  10.478  23.907  0.2895  0.1314  0.0775
 1622DDP     C1 9727   4.620   7.832   5.017  0.0729  0.1992 -0.0738
 1622DDP     P1 9728   4.890   7.728   5.372 -0.2982 -0.0559  0.0705
 1622DDP     P2 9729   4.438   8.249   4.965  0.1179  0.0563  0.1204
 1622DDP     C2 9730   4.024   8.485   4.965  0.0473 -0.1476 -0.0926
 1622DDP     C3 9731   5.101   7.497   5.603  0.1123 -0.1000  0.0445
 1622DDP     C4 9732   4.832   7.662   4.752  0.3626 -0.3631  0.1437
 1623DDP     C1 9733  29.983   8.641   8.618 -0.0842 -0.2013 -0.2263
 1623DDP     P1 9734  30.162   8.456   8.236 -0.1050  0.0010 -0.2174
 1623DDP     P2 9735  29.700   8.914   8.502  0.0669  0.2175 -0.0767
 1623DDP     C2 9736  29.279   8.935   8.385 -0.1602  0.0702 -0.0406
 1623DDP     C3 9737   0.203   8.436   7.984  0.0095  0.2302  0.2199
 1623DDP     C4 9738  30.155   8.860   9.025 -0.3131  0.2562 -0.1234
 1624DDP     C1 9739  17.641   0.073  28.290 -0.1663  0.0265  0.0510
 1624DDP     P1 9740  17.699   0.365  28.488  0.0023  0.2186 -0.2060
 1624DDP     P2 9741  17.489  30.006  28.411  0.2151  0.0374  0.1435
 1624DDP     C2 9742  17.457  29.665  28.492  0.1424  0.1394  0.3901
 1624DDP     C3 9743  18.016   0.652  28.550 -0.2312  0.1255 -0.1326
 1624DDP     C4 9744  17.853   0.126  27.934  0.0949  0.1366  0.1090
 1625DDP     C1 9745  26.446  21.417  26.288 -0.0226  0.1368  0.0584
 1625DDP     P1 9746  26.767  21.481  26.522 -0.0254 -0.0348  0.1004
 1625DDP     P2 9747  26.193  21.811  26.169  0.0031  0.1369  0.2504
 1625DDP     C2 9748  26.260  22.239  26.060 -0.0929  0.0681 -0.0592
 1625DDP     C3 9749  27.154  21.546  26.644  0.1557 -0.1259 -0.0136
 1625DDP     C4 9750  26.516  21.086  26.059 -0.1551  0.2205  0.0563
 1626DDP     C1 9751  26.544  29.276   8.015 -0.0479  0.2630  0.1622
 1626DDP     P1 9752  26.229  29.040   8.285 -0.1111  0.1668  0.2838
 1626DDP     P2 9753  26.881  29.033   7.921  0.3470  0.2008 -0.0288
 1626DDP     C2 9754  26.924  28.825   7.505  0.1889 -0.0750  0.0515
 1626DDP     C3 9755  26.225  28.686   8.572  0.5642  0.1392  0.1595
 1626DDP     C4 9756  26.509  29.622   7.766  0.2790  0.2060 -0.0425
 1627DDP     C1 9757   3.585  29.546   3.292  0.0231  0.3463  0.1515
 1627DDP     P1 9758   3.274  29.363   3.526 -0.2281 -0.0020 -0.2051
 1627DDP     P2 9759   4.008  29.509   3.050  0.1926 -0.0521  0.0226
 1627DDP     C2 9760   4.047  29.286   2.664 -0.3785  0.0162 -0.1206
 1627DDP     C3 9761   3.307  29.066   3.791  0.1912  0.1618 -0.1316
 1627DDP     C4 9762   3.704  29.925   3.250  0.3825  0.0044 -0.0407
 1628DDP     C1 9763   1.635  15.656  16.612  0.1291 -0.1331 -0.0874
 1628DDP     P1 9764   1.277  15.602  16.257  0.1957 -0.0731 -0.1960
 1628DDP     P2 9765   1.725  15.321  16.843 -0.0824  0.0780  0.0601
 1628DDP     C2 9766   1.948  15.058  17.113 -0.1470 -0.1230  0.2890
 1628DDP     C3 9767   0.925  15.318  16.051  0.1619 -0.2735  0.1178
 1628DDP     C4 9768   1.908  15.946  16.809 -0.0133 -0.3139  0.2301
 1629DDP     C1 9769  12.259  14.483  20.623  0.1411  0.2390 -0.1332
 1629DDP     P1 9770  12.371  14.433  20.263  0.1594  0.2827  0.0373
 1629DDP     P2 9771  12.585  14.639  20.910  0.2163  0.1276  0.3460
 1629DDP     C2 9772  12.697  15.054  21.039  0.2143 -0.0352 -0.0421
 1629DDP     C3 9773  12.402  14.619  19.921  0.1267 -0.0298  0.2242
 1629DDP     C4 9774  11.990  14.106  20.736  0.0060 -0.2231  0.1866
 1630DDP     C1 9775   0.324  11.896   0.926  0.2003  0.1071  0.0573
 1630DDP     P1 9776   0.337  12.260   1.291 -0.1628 -0.2273 -0.0810
 1630DDP     P2 9777   0.582  11.761   0.618  0.1368  0.0681  0.2502
 1630DDP     C2 9778   0.872  12.013   0.362  0.1969 -0.1106 -0.2294
 1630DDP     C3 9779   0.301  12.239   1.748  0.3469 -0.0145 -0.0041
 1630DDP     C4 9780  -0.010  11.543   0.941 -0.2717 -0.0239 -0.2119
 1631DDP     C1 9781  14.050   5.451  13.509 -0.3818 -0.0356 -0.0255
 1631DDP     P1 9782  14.096   5.092  13.711 -0.2146  0.1087 -0.2553
 1631DDP     P2 9783  14.404   5.613  13.235  0.1074 -0.1070  0.1147
 1631DDP     C2 9784  14.699   5.381  12.873  0.0047  0.0581 -0.0594
 1631DDP     C3 9785  13.987   4.772  14.042 -0.2905  0.1000  0.3947
 1631DDP     C4 9786  13.626   5.531  13.443  0.0558 -0.1111  0.3071
 1632DDP     C1 9787  11.312  28.264   6.005 -0.3196 -0.4889 -0.1124
 1632DDP     P1 9788  11.561  28.690   6.031  0.2281  0.3409  0.3623
 1632DDP     P2 9789  10.860  28.230   6.032  0.0877  0.0159  0.1555
 1632DDP     C2 9790  10.526  27.999   5.792  0.1766 -0.0236  0.0674
 1632DDP     C3 9791  11.361  29.075   5.968  0.0158 -0.0726  0.3091
 1632DDP     C4 9792  11.562  27.936   5.972 -0.2671  0.2194  0.0896
 1633DDP     C1 9793  12.524  19.839   7.208  0.0365  0.3079 -0.2078
 1633DDP     P1 9794  12.592  19.378   7.411  0.4170 -0.3202 -0.0556
 1633DDP     P2 9795  12.810  19.913   6.954 -0.0936  0.0634  0.0784
 1633DDP     C2 9796  13.051  20.101   6.615 -0.0209 -0.1206 -0.1549
 1633DDP     C3 9797  12.455  19.287   7.819  0.0153  0.0773 -0.1404
 1633DDP     C4 9798  12.211  19.722   6.941  0.1048  0.3397 -0.2928
 1634DDP     C1 9799  18.967  21.289  18.997 -0.0216 -0.1631  0.2242
 1634DDP     P1 9800  19.197  21.365  18.619  0.0381 -0.1453 -0.2223
 1634DDP     P2 9801  18.469  21.275  18.999  0.1905  0.0023  0.1010
 1634DDP     C2 9802  18.058  21.495  18.898 -0.0172 -0.1066  0.4711
 1634DDP     C3 9803  19.384  20.995  18.482  0.0331  0.1498  0.0327
 1634DDP     C4 9804  18.992  21.034  19.375  0.0264  0.0131  0.2069
 1635DDP     C1 9805  13.524   1.215  27.946  0.0301  0.2189 -0.1769
 1635DDP     P1 9806  13.576   1.547  27.797  0.2738 -0.0634 -0.2156
 1635DDP     P2 9807  13.615   1.277  28.433  0.0165  0.1682  0.1209
 1635DDP     C2 9808  13.904   0.977  28.760 -0.0376 -0.0424  0.0466
 1635DDP     C3 9809  13.931   1.766  27.517 -0.0376 -0.0043  0.0246
 1635DDP     C4 9810  13.698   0.747  27.812 -0.0355 -0.0978  0.0714
 1636DDP     C1 9811  12.716  26.101  22.877  0.0306  0.3196 -0.0198
 1636DDP     P1 9812  12.530  25.850  22.888  0.3172 -0.2594  0.1297
 1636DDP     P2 9813  12.479  26.510  22.670 -0.0469 -0.1344  0.2746
 1636DDP     C2 9814  12.128  26.752  22.418  0.0094  0.2168 -0.2646
 1636DDP     C3 9815  12.125  25.603  22.705  0.1757  0.1166  0.3685
 1636DDP     C4 9816  13.089  26.011  23.230 -0.1271  0.0045 -0.1500
 1637DDP     C1 9817   7.368   4.213  20.611 -0.0296  0.1609  0.1715
 1637DDP     P1 9818   7.741   4.396  20.452  0.1405  0.3496 -0.1899
 1637DDP     P2 9819   7.108   3.899  20.439  0.0152 -0.1071 -0.3278
 1637DDP     C2 9820   6.779   3.815  20.160 -0.4531 -0.0424 -0.0566
 1637DDP     C3 9821   7.992   4.613  20.165  0.0029  0.0841 -0.0088
 1637DDP     C4 9822   7.196   4.443  20.929  0.0482  0.2113 -0.1059
 1638DDP     C1 9823  17.152  18.533  18.487  0.1540 -0.1970  0.0986
 1638DDP     P1 9824  16.810  18.826  18.427 -0.2671 -0.3208  0.0922
 1638DDP     P2 9825  17.307  18.347  18.858 -0.0655 -0.2418  0.1219
 1638DDP     C2 9826  17.538  18.414  19.241 -0.1092  0.1450 -0.0596
 1638DDP     C3 9827  16.756  19.289  18.228 -0.2560 -0.2243 -0.2248
 1638DDP     C4 9828  17.436  18.706  18.160 -0.0772 -0.0134 -0.0223
 1639DDP     C1 9829  11.249  24.833  11.373  0.0156  0.1993 -0.1899
 1639DDP     P1 9830  11.273  24.388  11.497 -0.2216 -0.0178  0.0615
 1639DDP     P2 9831  10.938  25.008  11.153 -0.2049 -0.0673  0.1813
 1639DDP     C2 9832  10.524  25.061  10.906  0.1383  0.0733 -0.0660
 1639DDP     C3 9833  11.537  24.060  11.436 -0.0470  0.1940 -0.3433
 1639DDP     C4 9834  11.550  25.071  11.622  0.1833 -0.0119  0.0270
 1640DDP     C1 9835   0.829  27.470  11.347  0.3476 -0.0645 -0.0375
 1640DDP     P1 9836   0.450  27.484  11.370 -0.2859 -0.1814 -0.0183
 1640DDP     P2 9837   0.862  27.178  10.891  0.0062 -0.1658 -0.0749
 1640DDP     C2 9838   0.736  27.196  10.507 -0.2207  0.2545 -0.1035
 1640DDP     C3 9839   0.191  27.795  11.149  0.1545 -0.2320  0.1932
 1640DDP     C4 9840   1.204  27.651  11.580  0.0069  0.0839 -0.0393
 1641DDP     C1 9841   2.282  29.897   0.639 -0.0457  0.3301  0.0558
 1641DDP     P1 9842   2.644  29.613   0.518 -0.4264 -0.0800 -0.2268
 1641DDP     P2 9843   1.946  29.955   0.842 -0.1841  0.2086  0.0915
 1641DDP     C2 9844   2.017  30.019   1.312 -0.0993  0.1086  0.2726
 1641DDP     C3 9845   2.733  29.156   0.582 -0.2040  0.3819 -0.0335
 1641DDP     C4 9846   2.214  30.238   0.331 -0.0604 -0.1386  0.3522
 1642DDP     C1 9847  14.344   8.311  19.697 -0.0672  0.0914 -0.0889
 1642DDP     P1 9848  14.192   8.709  19.588  0.0012  0.0292  0.0728
 1642DDP     P2 9849  14.157   8.081  20.021  0.4477 -0.0355  0.1178
 1642DDP     C2 9850  14.293   7.853  20.267  0.2142 -0.1601  0.2633
 1642DDP     C3 9851  14.013   8.834  19.342  0.0654  0.2315  0.1468
 1642DDP     C4 9852  14.652   8.070  19.357 -0.0460 -0.0615 -0.1517
 1643DDP     C1 9853  13.664   6.975  11.083  0.3224 -0.0916 -0.1391
 1643DDP     P1 9854  13.565   7.155  11.553  0.0362  0.1938  0.0916
 1643DDP     P2 9855  14.002   6.616  10.937  0.0012 -0.0944  0.4690
 1643DDP     C2 9856  13.900   6.184  10.572  0.1133 -0.4123  0.0244
 1643DDP     C3 9857  13.176   7.003  11.712  0.0360 -0.0047 -0.0958
 1643DDP     C4 9858  13.405   6.990  10.634  0.0764 -0.1734  0.1843
 1644DDP     C1 9859  19.922  17.411  11.929  0.1308 -0.1495 -0.0861
 1644DDP     P1 9860  20.352  17.609  11.709  0.0466 -0.2924 -0.3148
 1644DDP     P2 9861  19.615  17.789  11.819 -0.0422  0.0877 -0.0560
 1644DDP     C2 9862  19.358  18.211  11.647 -0.2892 -0.0836  0.3192
 1644DDP     C3 9863  20.787  17.776  11.697  0.0069 -0.0437  0.1802
 1644DDP     C4 9864  19.745  17.096  12.197 -0.0415  0.1133  0.4573
 1645DDP     C1 9865  26.132   2.620  26.228 -0.0165 -0.0466 -0.0543
 1645DDP     P1 9866  26.416   2.822  25.923  0.0706 -0.2453  0.0062
 1645DDP     P2 9867  26.271   2.252  26.433 -0.0611  0.0584  0.3477
 1645DDP     C2 9868  26.471   1.939  26.210  0.3932  0.2481 -0.2554
 1645DDP     C3 9869  26.518   3.055  25.595  0.1580 -0.0288 -0.0605
 1645DDP     C4 9870  25.720   2.490  26.127 -0.2051 -0.0219 -0.4171
 1646DDP     C1 9871   3.930  11.247   8.648  0.2374  0.1284 -0.1265
 1646DDP     P1 9872   3.938  11.572   8.953 -0.1213 -0.1534 -0.1833
 1646DDP     P2 9873   3.545  11.303   8.352 -0.1359 -0.3075  0.1301
 1646DDP     C2 9874   3.249  11.655   8.221  0.1215  0.0744 -0.1358
 1646DDP     C3 9875   3.884  11.701   9.421 -0.0390 -0.0826  0.2733
 1646DDP     C4 9876   4.171  10.864   8.798  0.4169  0.1777 -0.1977
 1647DDP     C1 9877   7.560   4.475   9.742 -0.1920  0.1749  0.0069
 1647DDP     P1 9878   8.000   4.418   9.755  0.0830  0.0104  0.0340
 1647DDP     P2 9879   7.430   4.904   9.872  0.2042 -0.0256 -0.0536
 1647DDP     C2 9880   7.484   5.415   9.751 -0.1912 -0.1294 -0.1182
 1647DDP     C3 9881   8.336   4.191   9.980  0.2906 -0.2299 -0.1203
 1647DDP     C4 9882   7.147   4.454   9.667 -0.0026  0.1255  0.1429
 1648DDP     C1 9883   9.190   1.574   3.072  0.2869  0.1744  0.2162
 1648DDP     P1 9884   9.125   1.897   2.919  0.0263 -0.0066 -0.0452
 1648DDP     P2 9885   8.808   1.380   2.998 -0.0266  0.0181 -0.0490
 1648DDP     C2 9886   8.528   0.965   3.129  0.0806  0.0729  0.0913
 1648DDP     C3 9887   9.083   2.279   2.588  0.0098 -0.0891 -0.3188
 1648DDP     C4 9888   9.458   1.475   3.461  0.0313 -0.0084  0.0664
 1649DDP     C1 9889  22.784   4.223  19.902  0.0487 -0.1060 -0.1022
 1649DDP     P1 9890  23.093   3.980  19.942  0.3541  0.0776  0.0815
 1649DDP     P2 9891  22.620   4.433  20.183 -0.0714 -0.0521 -0.1239
 1649DDP     C2 9892  22.581   4.523  20.579  0.1735 -0.2181  0.0948
 1649DDP     C3 9893  23.215   3.744  20.349  0.0699 -0.0658 -0.4945
 1649DDP     C4 9894  22.401   4.170  19.705  0.2416 -0.2049 -0.2327
 1650DDP     C1 9895   4.403   1.092  20.253 -0.4319  0.2436 -0.2019
 1650DDP     P1 9896   4.364   1.401  19.929 -0.0050  0.1844  0.2234
 1650DDP     P2 9897   4.868   0.816  20.222 -0.2615 -0.4088 -0.1093
 1650DDP     C2 9898   5.254   0.781  19.971 -0.1378 -0.3620  0.0691
 1650DDP     C3 9899   4.445   1.774  19.692  0.0045  0.0858  0.0468
 1650DDP     C4 9900   4.123   0.973  20.592 -0.0829 -0.1096 -0.0288
 1651DDP     C1 9901  22.961  12.330  23.066 -0.1245 -0.0331  0.0644
 1651DDP     P1 9902  22.534  12.449  23.065 -0.1468  0.3085 -0.1547
 1651DDP     P2 9903  23.174  12.249  22.667  0.2042 -0.2721  0.0012
 1651DDP     C2 9904  23.596  12.309  22.747 -0.1237  0.1976 -0.3192
 1651DDP     C3 9905  22.103  12.239  22.809  0.2103 -0.2710 -0.1087
 1651DDP     C4 9906  23.037  12.110  23.431  0.2563 -0.0400  0.0179
 1652DDP     C1 9907  15.505  10.646   8.367  0.2121  0.1311  0.0009
 1652DDP     P1 9908  15.604  11.006   8.165  0.2052  0.0144 -0.2465
 1652DDP     P2 9909  15.275  10.713   8.757  0.2241 -0.3764 -0.1974
 1652DDP     C2 9910  14.981  10.660   9.016 -0.1096  0.2198 -0.0781
 1652DDP     C3 9911  15.499  11.425   7.899 -0.3380 -0.1083  0.0615
 1652DDP     C4 9912  15.677  10.238   8.359 -0.0164  0.1910  0.3657
 1653DDP     C1 9913   4.233  22.356  24.216  0.0168  0.0623  0.2359
 1653DDP     P1 9914   4.624  22.457  24.463  0.1349 -0.2591 -0.0819
 1653DDP     P2 9915   4.352  22.405  23.739 -0.3470 -0.0068 -0.4516
 1653DDP     C2 9916   4.686  22.326  23.385  0.0777  0.0682 -0.0145
 1653DDP     C3 9917   4.955  22.634  24.800  0.1354  0.4981 -0.0777
 1653DDP     C4 9918   3.851  22.315  24.389  0.0284 -0.2404 -0.2774
 1654DDP     C1 9919   2.393   6.608  30.232  0.0208 -0.3066  0.2623
 1654DDP     P1 9920   2.782   6.599   0.013  0.0161  0.0121  0.0068
 1654DDP     P2 9921   2.254   6.381  29.771  0.0519 -0.2432 -0.0603
 1654DDP     C2 9922   2.341   6.500  29.312  0.4292  0.0640  0.1013
 1654DDP     C3 9923   3.182   6.972   0.097 -0.1421 -0.0670  0.2263
 1654DDP     C4 9924   2.080   6.615   0.172  0.1972 -0.1267 -0.1739
 1655DDP     C1 9925   4.332  16.537  10.450 -0.0836 -0.0923  0.0987
 1655DDP     P1 9926   4.040  16.704  10.106 -0.1843  0.0809  0.1910
 1655DDP     P2 9927   4.553  16.254  10.321  0.0997 -0.1877 -0.3393
 1655DDP     C2 9928   4.579  16.323   9.894 -0.1161  0.0804 -0.1255
 1655DDP     C3 9929   3.905  16.533   9.662  0.1519 -0.1830  0.0244
 1655DDP     C4 9930   4.228  16.529  10.912  0.2580  0.1692 -0.2327
 1656DDP     C1 9931   1.161  23.763   1.513  0.0357  0.3339 -0.0356
 1656DDP     P1 9932   0.923  23.590   1.140  0.1490 -0.2292 -0.2627
 1656DDP     P2 9933   1.329  24.141   1.392 -0.6150 -0.0569 -0.0485
 1656DDP     C2 9934   1.390  24.586   1.506 -0.4222  0.1500 -0.1422
 1656DDP     C3 9935   0.909  23.216   1.006  0.4035 -0.0226  0.0453
 1656DDP     C4 9936   1.215  23.555   1.947 -0.1011 -0.3091 -0.1569
 1657DDP     C1 9937  15.773   9.375   4.721 -0.0499  0.2238  0.1822
 1657DDP     P1 9938  15.871   9.054   5.014 -0.0480  0.4367 -0.1491
 1657DDP     P2 9939  16.158   9.486   4.405 -0.2633 -0.2126  0.4945
 1657DDP     C2 9940  16.456   9.677   4.534  0.0542 -0.2031 -0.0100
 1657DDP     C3 9941  15.839   8.914   5.385 -0.1533 -0.1490 -0.0643
 1657DDP     C4 9942  15.277   9.508   4.725 -0.1861  0.0992 -0.1528
 1658DDP     C1 9943  19.110  17.819  20.900 -0.1605 -0.0822 -0.0649
 1658DDP     P1 9944  19.535  17.622  21.014  0.3792  0.0563  0.0433
 1658DDP     P2 9945  18.808  17.555  20.942  0.0448 -0.1846 -0.0129
 1658DDP     C2 9946  18.432  17.361  20.840  0.0896 -0.4223  0.1349
 1658DDP     C3 9947  19.952  17.810  21.091 -0.2655  0.0771 -0.1711
 1658DDP     C4 9948  19.006  18.278  20.961  0.1045  0.1409 -0.1506
 1659DDP     C1 9949  17.063  14.784   4.838  0.0969  0.1515 -0.1421
 1659DDP     P1 9950  17.483  14.553   4.852 -0.1516  0.1527 -0.1050
 1659DDP     P2 9951  17.175  15.278   4.803  0.2140  0.0008 -0.1511
 1659DDP     C2 9952  17.367  15.701   4.728 -0.4027 -0.0210  0.0077
 1659DDP     C3 9953  17.597  14.155   4.809 -0.2444  0.0264  0.0789
 1659DDP     C4 9954  16.684  14.752   5.026  0.0832  0.2244  0.1433
 1660DDP     C1 9955   4.646   1.304  15.066  0.0714  0.1667 -0.0873
 1660DDP     P1 9956   4.316   1.662  15.039 -0.0975  0.0440 -0.0726
 1660DDP     P2 9957   4.516   0.833  14.946  0.1302  0.3998  0.0578
 1660DDP     C2 9958   4.475   0.513  14.878 -0.1078  0.2469  0.2510
 1660DDP     C3 9959   4.068   1.853  14.698 -0.1438 -0.3246  0.0218
 1660DDP     C4 9960   5.051   1.520  15.235  0.1606  0.0171  0.2037
 1661DDP     C1 9961   0.763  26.119   8.920 -0.1527  0.1482  0.0719
 1661DDP     P1 9962   0.571  26.488   8.683  0.2939 -0.0926  0.0255
 1661DDP     P2 9963   1.280  26.117   8.957  0.2154 -0.1609  0.1582
 1661DDP     C2 9964   1.709  26.153   8.921 -0.0157 -0.0874  0.1874
 1661DDP     C3 9965   0.127  26.470   8.408 -0.0892 -0.0269 -0.1130
 1661DDP     C4 9966   0.452  25.784   8.832  0.2478  0.2840  0.2116
 1662DDP     C1 9967  12.960  28.297  16.530 -0.1900  0.2388 -0.0284
 1662DDP     P1 9968  12.580  28.435  16.300 -0.2738 -0.0273  0.0023
 1662DDP     P2 9969  12.737  28.466  16.962 -0.0095 -0.2592  0.3120
 1662DDP     C2 9970  12.757  28.873  17.182 -0.0870  0.0407  0.0245
 1662DDP     C3 9971  12.187  28.301  16.018 -0.2760 -0.2664 -0.4243
 1662DDP     C4 9972  13.195  27.832  16.672 -0.1346  0.0600  0.1463
 1663DDP     C1 9973   5.289  15.168   3.943 -0.0208  0.0087 -0.0473
 1663DDP     P1 9974   5.111  14.955   3.790  0.0245 -0.1574  0.3513
 1663DDP     P2 9975   5.251  15.511   3.798  0.1210  0.1114  0.0098
 1663DDP     C2 9976   4.973  15.679   3.430 -0.1243  0.1133  0.1387
 1663DDP     C3 9977   4.885  14.679   4.029 -0.2397  0.1545  0.1739
 1663DDP     C4 9978   5.700  15.101   4.110  0.0706 -0.0032 -0.0225
 1664DDP     C1 9979  14.426  27.831   7.986 -0.0586  0.2475  0.1758
 1664DDP     P1 9980  14.623  27.339   7.894  0.2492  0.3041  0.1141
 1664DDP     P2 9981  14.057  28.080   7.906 -0.2490  0.0671  0.0607
 1664DDP     C2 9982  13.924  28.302   7.578  0.0196  0.0035 -0.1154
 1664DDP     C3 9983  14.998  27.062   7.831 -0.1650  0.0036  0.3487
 1664DDP     C4 9984  14.606  28.056   8.261 -0.0467  0.4297 -0.4064
 1665DDP     C1 9985  14.769  16.088  19.089  0.0198  0.2623  0.0147
 1665DDP     P1 9986  14.595  15.869  19.438  0.3798 -0.0924  0.0110
 1665DDP     P2 9987  15.127  16.327  19.163  0.0416  0.0540 -0.0347
 1665DDP     C2 9988  15.238  16.509  19.634  0.2346  0.0034  0.2849
 1665DDP     C3 9989  14.163  15.875  19.633  0.0090  0.3036  0.0206
 1665DDP     C4 9990  14.552  16.009  18.677  0.0028 -0.0448 -0.0576
 1666DDP     C1 9991   3.585  29.498   5.827 -0.0131 -0.1920 -0.1297
 1666DDP     P1 9992   3.369  29.576   5.444  0.3328  0.2777 -0.0724
 1666DDP     P2 9993   3.809  29.845   5.928 -0.0565 -0.1619 -0.1500
 1666DDP     C2 9994   4.070  30.159   6.148  0.5024 -0.0665  0.0673
 1666DDP     C3 9995   3.397  29.561   4.972 -0.3013 -0.2607 -0.1453
 1666DDP     C4 9996   3.638  29.067   6.013 -0.1527 -0.0318  0.0997
 1667DDP     C1 9997  13.087   2.137  10.440  0.0164  0.0854 -0.2480
 1667DDP     P1 9998  13.459   2.073  10.577  0.0485 -0.0062  0.2271
 1667DDP     P2 9999  12.950   2.312  10.086  0.2224 -0.1801  0.1199
 1667DDP     C210000  12.808   2.234   9.654  0.2603 -0.0267  0.0008
 1667DDP     C310001  13.921   1.963  10.661 -0.0692 -0.0287  0.1663
 1667DDP     C410002  12.815   2.439  10.694  0.1259 -0.3812  0.1652
 1668DDP     C110003  11.489   0.162  18.855  0.0651  0.0374 -0.1252
 1668DDP     P110004  11.706   0.109  19.145  0.2888 -0.0501  0.1154
 1668DDP     P210005  11.730  30.246  18.515  0.1086  0.2212  0.0654
 1668DDP     C210006  11.689  29.965  18.166 -0.3143 -0.2715 -0.0784
 1668DDP     C310007  11.766  30.132  19.420 -0.3414 -0.2350  0.0905
 1668DDP     C410008  11.085   0.383  18.813 -0.0419 -0.2935  0.0862
 1669DDP     C110009  23.231  12.232   0.899 -0.3347 -0.2515  0.4273
 1669DDP     P110010  23.186  11.836   1.258 -0.0873  0.2275 -0.0438
 1669DDP     P210011  23.212  12.239   0.401  0.3050 -0.1051  0.0595
 1669DDP     C210012  22.903  12.562   0.195 -0.1029 -0.0967  0.3677
 1669DDP     C310013  23.137  11.492   1.536 -0.5064  0.1552  0.0547
 1669DDP     C410014  22.858  12.594   0.966  0.1274  0.2144  0.2227
 1670DDP     C110015  10.648  20.684  27.302 -0.0662  0.0538  0.0909
 1670DDP     P110016  10.669  20.441  26.861 -0.0789 -0.0453 -0.0641
 1670DDP     P210017  11.043  20.585  27.470  0.0592  0.1552 -0.0480
 1670DDP     C210018  11.476  20.373  27.534 -0.0061  0.0902 -0.0300
 1670DDP     C310019  10.612  20.233  26.448  0.0480  0.1593  0.1438
 1670DDP     C410020  10.520  21.110  27.318 -0.1786  0.1330  0.2788
 1671DDP     C110021  17.528   9.886   5.016 -0.1879 -0.0721 -0.1498
 1671DDP     P110022  17.901  10.058   5.271  0.2972  0.2080  0.2947
 1671DDP     P210023  17.121  10.132   4.990 -0.3189  0.3209  0.0514
 1671DDP     C210024  17.023  10.369   4.585  0.1794 -0.1786  0.0574
 1671DDP     C310025  17.965  10.327   5.582  0.1249  0.0574 -0.2544
 1671DDP     C410026  17.450   9.466   4.870 -0.0928  0.1061 -0.0572
 1672DDP     C110027  21.953   8.688  17.918  0.1172  0.2098 -0.0805
 1672DDP     P110028  21.923   8.949  17.534  0.0891 -0.0597  0.1178
 1672DDP     P210029  21.679   8.877  18.341 -0.4564 -0.3067  0.0705
 1672DDP     C210030  21.261   8.898  18.449  0.0640  0.1356 -0.1092
 1672DDP     C310031  21.942   8.988  17.027  0.0702 -0.1303  0.1129
 1672DDP     C410032  22.197   8.203  17.915 -0.0819  0.0028  0.0617
 1673DDP     C110033  15.472   9.840  13.201  0.1873 -0.1762  0.0382
 1673DDP     P110034  15.590   9.721  13.560 -0.1333 -0.1356 -0.1239
 1673DDP     P210035  15.547  10.299  13.058  0.0732  0.2095  0.0543
 1673DDP     C210036  15.814  10.512  13.060 -0.0347 -0.1713  0.2544
 1673DDP     C310037  15.926   9.536  13.765  0.0220  0.4104  0.1657
 1673DDP     C410038  15.098   9.530  13.118 -0.2143 -0.2381 -0.1186
 1674DDP     C110039  27.966  30.235  14.314  0.0181  0.4593 -0.1402
 1674DDP     P110040  27.774   0.252  14.340 -0.1855 -0.0534  0.0352
 1674DDP     P210041  27.903  30.137  14.685 -0.2858 -0.0379 -0.1411
 1674DDP     C210042  27.652  30.108  15.152 -0.3343 -0.1697  0.1710
 1674DDP     C310043  27.473   0.596  14.434  0.5728 -0.0764  0.0402
 1674DDP     C410044  28.077  29.918  14.055  0.0682  0.1661 -0.0848
 1675DDP     C110045  11.996  13.499  27.893 -0.1027  0.1673 -0.0626
 1675DDP     P110046  12.030  13.301  28.269  0.2173 -0.2454 -0.1640
 1675DDP     P210047  11.740  13.800  27.828 -0.0346 -0.0601 -0.1402
 1675DDP     C210048  11.532  13.953  27.501 -0.1522 -0.1306 -0.0210
 1675DDP     C310049  12.288  12.833  28.383 -0.5042 -0.0308 -0.0382
 1675DDP     C410050  12.338  13.359  27.549  0.0313 -0.0649 -0.0518
 1676DDP     C110051   3.727  13.606  24.406  0.1626 -0.0982 -0.0300
 1676DDP     P110052   3.909  13.756  24.162 -0.1250  0.0101 -0.1060
 1676DDP     P210053   3.337  13.867  24.488  0.0342  0.2496  0.2642
 1676DDP     C210054   3.061  14.031  24.597 -0.0741  0.2174  0.2679
 1676DDP     C310055   4.211  13.662  23.808 -0.2235 -0.0356 -0.0755
 1676DDP     C410056   3.771  13.188  24.430  0.0540 -0.0151  0.0241
 1677DDP     C110057  26.085   2.017  24.438  0.0231 -0.1478  0.0696
 1677DDP     P110058  26.362   1.872  24.660  0.2767  0.0305  0.0674
 1677DDP     P210059  26.321   2.024  24.112  0.0399 -0.0510 -0.0575
 1677DDP     C210060  26.595   2.260  23.845 -0.3055  0.2479 -0.0998
 1677DDP     C310061  26.400   1.766  25.137 -0.3353  0.0113 -0.3345
 1677DDP     C410062  25.728   2.306  24.549 -0.3810 -0.1347  0.0640
 1678DDP     C110063   6.458   5.731  20.055 -0.2702 -0.1745  0.2460
 1678DDP     P110064   6.248   5.527  19.675 -0.2477 -0.4051 -0.0032
 1678DDP     P210065   6.585   5.569  20.440 -0.4428 -0.0382 -0.1580
 1678DDP     C210066   6.725   5.482  20.917  0.0260  0.1420  0.0814
 1678DDP     C310067   6.226   5.258  19.421 -0.2365  0.1505 -0.0821
 1678DDP     C410068   6.498   6.247  20.050  0.3080 -0.2390 -0.0850
 1679DDP     C110069  23.194   8.744  26.802  0.0077  0.3424  0.1168
 1679DDP     P110070  23.296   8.562  27.223 -0.3301 -0.1391  0.1476
 1679DDP     P210071  23.371   8.574  26.430 -0.2477 -0.1203  0.1626
 1679DDP     C210072  23.586   8.631  26.104 -0.0170 -0.0830  0.4829
 1679DDP     C310073  23.264   8.313  27.616 -0.2631 -0.0562  0.0685
 1679DDP     C410074  23.023   9.126  27.072 -0.0118 -0.0141  0.2282
 1680DDP     C110075  14.021  12.636  17.487 -0.1692 -0.0275  0.0837
 1680DDP     P110076  14.139  12.420  17.187  0.0623  0.0234 -0.2229
 1680DDP     P210077  14.307  12.989  17.453  0.1541 -0.2120 -0.0193
 1680DDP     C210078  14.600  13.288  17.438 -0.5249  0.0600  0.1205
 1680DDP     C310079  14.434  12.222  16.948  0.0679  0.0578  0.0206
 1680DDP     C410080  13.584  12.772  17.519 -0.1973  0.1220 -0.1152
 1681DDP     C110081   2.612  11.124  24.866  0.2089  0.0710 -0.0098
 1681DDP     P110082   2.490  11.437  24.590  0.0986 -0.0557 -0.1117
 1681DDP     P210083   2.875  11.266  25.186  0.0016  0.0143  0.2609
 1681DDP     C210084   3.142  11.486  25.553  0.2216 -0.2265  0.3261
 1681DDP     C310085   2.283  11.830  24.523  0.1392 -0.1109  0.0940
 1681DDP     C410086   2.259  10.886  25.011  0.3992 -0.0074  0.2914
 1682DDP     C110087  27.809  25.930   4.495  0.2785  0.0559 -0.0864
 1682DDP     P110088  27.820  25.851   4.027 -0.4022 -0.0403 -0.0877
 1682DDP     P210089  27.399  26.105   4.758 -0.3318 -0.0083  0.2663
 1682DDP     C210090  27.058  26.387   4.979 -0.1382 -0.0075 -0.1373
 1682DDP     C310091  27.875  25.795   3.659 -0.0726  0.1647  0.0842
 1682DDP     C410092  27.903  25.499   4.679 -0.0710  0.1386  0.1207
 1683DDP     C110093  11.889  17.180  19.518 -0.2148 -0.0262 -0.2053
 1683DDP     P110094  11.749  17.129  19.876 -0.3490  0.3441 -0.0677
 1683DDP     P210095  12.044  17.112  19.152  0.2006  0.0625 -0.1156
 1683DDP     C210096  11.998  17.262  18.767 -0.2888 -0.0300 -0.1400
 1683DDP     C310097  11.538  17.295  20.284  0.1767  0.0921  0.5646
 1683DDP     C410098  12.216  17.460  19.766 -0.1392 -0.0695 -0.0609
 1684DDP     C110099   0.816  25.230   7.730 -0.1754 -0.1063  0.3027
 1684DDP     P110100   0.947  25.627   7.360  0.0328  0.2334 -0.1864
 1684DDP     P210101   1.196  24.868   7.697  0.1156 -0.0669 -0.1061
 1684DDP     C210102   1.265  24.387   7.835 -0.0583  0.1130 -0.2645
 1684DDP     C310103   1.118  25.645   6.924 -0.0789 -0.2537  0.0916
 1684DDP     C410104   0.327  25.009   7.895 -0.1190 -0.3468 -0.1560
 1685DDP     C110105  24.845  23.042  10.103  0.1321  0.0362 -0.0533
 1685DDP     P110106  24.541  23.297  10.373 -0.2019 -0.2508 -0.0934
 1685DDP     P210107  24.778  22.840   9.837 -0.1597 -0.0339  0.1507
 1685DDP     C210108  24.410  22.786   9.483  0.0881 -0.0161  0.3288
 1685DDP     C310109  24.180  23.012  10.415 -0.1133 -0.1280 -0.2108
 1685DDP     C410110  25.387  23.142  10.215 -0.1965 -0.1876 -0.1813
 1686DDP     C110111   7.532  18.057   1.370  0.0683 -0.0278 -0.4001
 1686DDP     P110112   7.632  17.509   1.430 -0.0718  0.1936  0.0310
 1686DDP     P210113   7.492  18.234   0.994 -0.2397 -0.2248  0.1679
 1686DDP     C210114   7.316  18.697   0.989 -0.1592 -0.4754  0.0944
 1686DDP     C310115   7.851  17.070   1.574 -0.1877 -0.2725 -0.1944
 1686DDP     C410116   7.272  18.191   1.762 -0.3298  0.2541 -0.0263
 1687DDP     C110117   0.713  25.601   2.188  0.0573 -0.3338 -0.2585
 1687DDP     P110118   0.569  25.213   2.333  0.2156 -0.1648  0.2758
 1687DDP     P210119   1.218  25.784   2.404 -0.0623  0.3136 -0.0896
 1687DDP     C210120   1.604  26.055   2.380  0.1923 -0.2181  0.0932
 1687DDP     C310121   0.088  25.199   2.329  0.0388  0.0038  0.2056
 1687DDP     C410122   0.385  25.792   1.869 -0.2223  0.3319  0.1089
 1688DDP     C110123   2.170   6.622  17.551  0.0057 -0.3225  0.0382
 1688DDP     P110124   2.004   6.909  17.869 -0.3896  0.1530 -0.1858
 1688DDP     P210125   2.314   6.963  17.421 -0.1084 -0.3088 -0.1028
 1688DDP     C210126   2.726   7.160  17.365  0.5636  0.0082 -0.4578
 1688DDP     C310127   2.123   7.022  18.305  0.2343 -0.0101 -0.1730
 1688DDP     C410128   2.211   6.165  17.525 -0.3078 -0.0670 -0.1122
 1689DDP     C110129  23.697  18.509  24.471  0.1190  0.0838 -0.1944
 1689DDP     P110130  24.094  18.573  24.311 -0.1218 -0.1195 -0.0458
 1689DDP     P210131  23.308  18.825  24.670  0.0607  0.1022 -0.0029
 1689DDP     C210132  23.001  19.081  24.634  0.0617 -0.1434 -0.0700
 1689DDP     C310133  24.385  18.865  24.549 -0.2583 -0.0187 -0.1880
 1689DDP     C410134  23.513  18.138  24.222  0.2240  0.0390 -0.0032
 1690DDP     C110135  25.034   8.621   7.874  0.1687 -0.2658  0.0679
 1690DDP     P110136  24.685   8.454   8.186 -0.0290 -0.0868  0.1491
 1690DDP     P210137  25.304   8.327   7.552  0.1547 -0.1662  0.1500
 1690DDP     C210138  25.374   8.144   7.149 -0.0383 -0.5310 -0.1966
 1690DDP     C310139  24.250   8.640   8.208  0.1203 -0.1059  0.0647
 1690DDP     C410140  25.151   9.079   7.877  0.0186  0.3962 -0.0198
 1691DDP     C110141  20.995  25.899  26.040  0.0710 -0.3177 -0.0742
 1691DDP     P110142  21.108  25.461  26.128 -0.1055  0.2308 -0.2256
 1691DDP     P210143  20.894  25.841  25.588  0.2511  0.3982  0.0720
 1691DDP     C210144  20.899  26.039  25.192  0.2232 -0.5703 -0.1174
 1691DDP     C310145  21.380  25.146  26.057  0.0284  0.0337  0.3043
 1691DDP     C410146  20.886  26.166  26.286 -0.0990 -0.2052  0.2435
 1692DDP     C110147  23.650   5.080  14.654  0.1328  0.1552 -0.0686
 1692DDP     P110148  23.194   4.948  14.738  0.0379  0.0170  0.2228
 1692DDP     P210149  23.767   5.129  14.312  0.0427  0.0593  0.0910
 1692DDP     C210150  24.000   5.199  13.983 -0.2752 -0.0034  0.3852
 1692DDP     C310151  22.791   4.966  14.802  0.1056  0.3832 -0.2308
 1692DDP     C410152  23.891   5.204  14.899 -0.0794 -0.1569  0.0209
 1693DDP     C110153  11.074   9.597  14.971 -0.0381 -0.0656  0.3124
 1693DDP     P110154  10.797   9.245  15.069  0.4032 -0.0540 -0.0146
 1693DDP     P210155  11.105   9.579  14.557 -0.0005 -0.1786 -0.2404
 1693DDP     C210156  10.924   9.721  14.329  0.0038  0.0417  0.0368
 1693DDP     C310157  10.776   8.884  14.931  0.2714  0.1150  0.0256
 1693DDP     C410158  11.213   9.921  15.094  0.1473  0.1684  0.1582
 1694DDP     C110159  13.154   2.517  29.351  0.0168 -0.0697  0.0164
 1694DDP     P110160  13.363   2.442  28.925 -0.0111  0.1592 -0.1988
 1694DDP     P210161  13.105   2.998  29.354  0.0944 -0.2108 -0.0300
 1694DDP     C210162  12.677   3.186  29.485 -0.4762  0.1839 -0.0448
 1694DDP     C310163  13.551   2.709  28.618 -0.2056  0.1639 -0.2103
 1694DDP     C410164  13.023   2.176  29.623 -0.1097  0.1493  0.2921
 1695DDP     C110165  17.529  20.300  28.455 -0.1262  0.1036 -0.0359
 1695DDP     P110166  17.101  20.524  28.517 -0.2232  0.0542  0.2542
 1695DDP     P210167  17.513  19.954  28.631  0.0485  0.2149  0.1381
 1695DDP     C210168  17.209  19.652  28.793  0.1626  0.0689 -0.1083
 1695DDP     C310169  16.827  20.949  28.658 -0.3121 -0.1361 -0.0859
 1695DDP     C410170  17.924  20.378  28.132  0.1835 -0.3159  0.1310
 1696DDP     C110171   4.341   1.216  16.675  0.0498 -0.1360 -0.1769
 1696DDP     P110172   4.575   1.201  16.351 -0.1751  0.1512 -0.2545
 1696DDP     P210173   4.078   1.524  16.860 -0.0408 -0.1593  0.2288
 1696DDP     C210174   4.083   1.516  17.298  0.0800 -0.0477 -0.0089
 1696DDP     C310175   4.922   1.046  16.168 -0.0037  0.1457  0.0906
 1696DDP     C410176   4.384   0.727  16.746 -0.0927 -0.4533 -0.1571
 1697DDP     C110177  23.830   6.478   1.731  0.0585 -0.1120  0.1624
 1697DDP     P110178  23.473   6.674   1.411 -0.1018 -0.0404 -0.0702
 1697DDP     P210179  23.752   6.448   2.167  0.3433 -0.2423 -0.1799
 1697DDP     C210180  23.936   6.399   2.600  0.0401 -0.0552 -0.1733
 1697DDP     C310181  23.162   6.521   1.072 -0.2217  0.1266  0.2588
 1697DDP     C410182  24.193   6.163   1.559  0.1407 -0.0071 -0.3662
 1698DDP     C110183  21.997  13.211  23.289 -0.2602 -0.2367  0.0405
 1698DDP     P110184  21.781  13.636  23.541  0.1392  0.0528  0.0410
 1698DDP     P210185  22.424  13.267  23.069  0.1463 -0.0339 -0.1029
 1698DDP     C210186  22.862  13.252  23.274  0.1619 -0.0369 -0.3172
 1698DDP     C310187  21.683  13.909  23.862 -0.1545  0.1114  0.2641
 1698DDP     C410188  21.911  12.768  23.336 -0.1777 -0.3442  0.0565
 1699DDP     C110189  25.562  12.406  15.151  0.2363 -0.0288 -0.0454
 1699DDP     P110190  25.716  11.978  15.210  0.0189 -0.0490  0.1608
 1699DDP     P210191  25.401  12.446  14.740 -0.1799 -0.1794 -0.1233
 1699DDP     C210192  25.542  12.539  14.284 -0.1220  0.2099 -0.2101
 1699DDP     C310193  25.842  11.604  15.165  0.0157 -0.0395  0.0504
 1699DDP     C410194  25.592  12.809  15.444  0.1711 -0.3543 -0.4151
 1700DDP     C110195  15.828   8.532  23.100 -0.3445  0.0426 -0.1001
 1700DDP     P110196  15.645   8.654  22.759  0.0130  0.0680  0.3062
 1700DDP     P210197  16.309   8.633  23.094 -0.1443  0.1731 -0.1975
 1700DDP     C210198  16.729   8.444  22.964 -0.0212 -0.0597 -0.1250
 1700DDP     C310199  15.364   8.501  22.465  0.0992  0.1420  0.1283
 1700DDP     C410200  15.645   8.222  23.385  0.1110  0.1606 -0.4246
 1701DDP     C110201   9.177  16.086   4.083 -0.4236  0.2636  0.1497
 1701DDP     P110202   9.162  16.612   4.037 -0.0961  0.1290  0.0107
 1701DDP     P210203   8.894  15.944   4.291  0.1126  0.2555  0.1203
 1701DDP     C210204   8.673  15.546   4.287 -0.0723 -0.0225 -0.3087
 1701DDP     C310205   9.293  16.773   3.617  0.0108  0.0492  0.3444
 1701DDP     C410206   9.502  15.835   4.000 -0.0734 -0.1569 -0.0466
 1702DDP     C110207  24.584   4.686  24.550 -0.2168  0.1520  0.1523
 1702DDP     P110208  24.214   4.842  24.760  0.2828 -0.1684  0.0297
 1702DDP     P210209  24.787   4.412  24.774  0.1071  0.0682 -0.2649
 1702DDP     C210210  24.879   4.056  25.012  0.0057 -0.1464 -0.1301
 1702DDP     C310211  24.149   5.214  25.146  0.2316  0.0373  0.2811
 1702DDP     C410212  24.803   4.836  24.125  0.0766  0.1626  0.1609
 1703DDP     C110213  15.358  14.571  29.681 -0.0987 -0.1034  0.4326
 1703DDP     P110214  15.450  15.101  29.690  0.2171 -0.2510  0.0314
 1703DDP     P210215  15.633  14.238  29.593  0.2300  0.1206  0.0750
 1703DDP     C210216  16.020  14.247  29.712 -0.3883 -0.1790 -0.1759
 1703DDP     C310217  15.187  15.537  29.614  0.0868 -0.2402  0.0469
 1703DDP     C410218  15.026  14.427  29.417  0.1833 -0.1420  0.0634
 1704DDP     C110219   6.834  17.383  24.630 -0.0948  0.0947  0.3693
 1704DDP     P110220   6.575  17.579  24.856  0.4516  0.5620 -0.1383
 1704DDP     P210221   7.082  16.942  24.741  0.1894  0.1023  0.1583
 1704DDP     C210222   6.968  16.593  24.812 -0.1632 -0.3028  0.2300
 1704DDP     C310223   6.135  17.744  25.104 -0.0015  0.0517  0.2628
 1704DDP     C410224   7.074  17.703  24.391 -0.3420 -0.0303  0.0171
 1705DDP     C110225  27.045   1.338   1.421 -0.0145 -0.1251  0.0775
 1705DDP     P110226  27.407   1.023   1.411  0.2838  0.1623 -0.2021
 1705DDP     P210227  26.983   1.292   1.038 -0.0187  0.2363 -0.0466
 1705DDP     C210228  26.592   1.237   0.936 -0.0768  0.2836  0.1334
 1705DDP     C310229  27.530   0.819   1.845 -0.0332 -0.1088  0.0187
 1705DDP     C410230  26.859   1.424   1.782  0.1346  0.1548 -0.0482
 1706DDP     C110231  12.511  22.442  27.848  0.1135  0.0052  0.2993
 1706DDP     P110232  12.763  22.513  28.161 -0.2054 -0.0288  0.0701
 1706DDP     P210233  12.598  22.694  27.459  0.3078 -0.1767  0.1129
 1706DDP     C210234  12.704  22.584  27.004  0.0518  0.1296  0.1214
 1706DDP     C310235  13.139  22.397  28.377  0.3392 -0.1300 -0.1568
 1706DDP     C410236  12.243  22.034  27.978  0.0066  0.0969 -0.0601
 1707DDP     C110237   7.902   8.071  10.111  0.0484 -0.0719  0.1208
 1707DDP     P110238   8.261   8.239   9.892 -0.1142  0.1936  0.0569
 1707DDP     P210239   7.564   7.880   9.930 -0.1996 -0.0516  0.2379
 1707DDP     C210240   7.489   7.675   9.526  0.3550 -0.3394  0.1309
 1707DDP     C310241   8.465   8.516  10.067  0.0417  0.5192 -0.0232
 1707DDP     C410242   7.997   7.856  10.569  0.0998 -0.0233  0.1829
 1708DDP     C110243  27.143  21.156  11.554  0.2485 -0.0736  0.1869
 1708DDP     P110244  26.760  20.987  11.701  0.1025 -0.1359 -0.1056
 1708DDP     P210245  27.561  21.035  11.498  0.2515 -0.1607  0.2974
 1708DDP     C210246  27.958  21.321  11.444 -0.0905  0.0354  0.2342
 1708DDP     C310247  26.487  21.255  11.760  0.1473  0.0024  0.1815
 1708DDP     C410248  26.947  21.490  11.212  0.0008 -0.0451  0.0940
 1709DDP     C110249  25.092   6.814  29.757  0.0655 -0.1866 -0.0223
 1709DDP     P110250  25.000   7.203  29.809 -0.1714 -0.0709  0.2035
 1709DDP     P210251  25.424   6.600  30.006 -0.4616 -0.2917 -0.1033
 1709DDP     C210252  25.554   6.363   0.067  0.1739 -0.2362 -0.0084
 1709DDP     C310253  24.961   7.659  29.869  0.0483  0.0503  0.2800
 1709DDP     C410254  25.031   6.474  29.408  0.0982 -0.0129  0.0663
 1710DDP     C110255  15.173   2.061   3.853 -0.0057  0.3279  0.2639
 1710DDP     P110256  15.181   1.684   4.030  0.0408 -0.1828 -0.0483
 1710DDP     P210257  15.222   1.946   3.418  0.1722 -0.1618 -0.1549
 1710DDP     C210258  15.616   1.872   3.198  0.1569 -0.1763  0.3338
 1710DDP     C310259  15.095   1.481   4.402  0.1551  0.2438  0.2335
 1710DDP     C410260  15.376   2.434   3.822  0.1321  0.0275 -0.2831
 1711DDP     C110261  15.557  22.245   4.686  0.3253 -0.0548  0.3658
 1711DDP     P110262  15.176  22.104   4.486  0.0327 -0.0657  0.0601
 1711DDP     P210263  15.904  22.310   4.569 -0.1828 -0.0453  0.0635
 1711DDP     C210264  16.152  22.490   4.184 -0.1580  0.2904  0.0971
 1711DDP     C310265  14.881  22.014   4.342  0.1483 -0.1045 -0.2268
 1711DDP     C410266  15.367  22.529   4.842 -0.0275 -0.1671  0.0391
 1712DDP     C110267   3.327   7.937  27.372  0.1136  0.0770 -0.2738
 1712DDP     P110268   2.885   7.802  27.434  0.2222 -0.4428 -0.0540
 1712DDP     P210269   3.358   7.849  27.016  0.0945  0.1326 -0.1831
 1712DDP     C210270   3.388   7.979  26.535  0.0387 -0.0967 -0.0989
 1712DDP     C310271   2.637   7.917  27.865 -0.1799 -0.3346 -0.0185
 1712DDP     C410272   3.643   8.187  27.511  0.2500  0.3372  0.2422
 1713DDP     C110273  22.945   4.514  26.429 -0.3559 -0.1233  0.0260
 1713DDP     P110274  23.031   4.602  25.915  0.0066  0.0806 -0.1662
 1713DDP     P210275  22.757   4.820  26.688  0.4522 -0.0717 -0.0480
 1713DDP     C210276  22.727   4.963  27.147 -0.1917 -0.0296  0.0587
 1713DDP     C310277  23.197   4.701  25.496 -0.1445  0.1372 -0.2052
 1713DDP     C410278  22.913   4.098  26.635  0.1580  0.1229  0.0023
 1714DDP     C110279  29.428  19.272   7.582 -0.0011  0.0816 -0.0855
 1714DDP     P110280  29.660  19.452   7.235  0.0241  0.1365  0.1424
 1714DDP     P210281  28.974  19.417   7.638  0.0792 -0.1550 -0.0898
 1714DDP     C210282  28.652  19.714   7.717  0.2084 -0.0116  0.3554
 1714DDP     C310283  30.045  19.569   7.010  0.0654 -0.1437 -0.0522
 1714DDP     C410284  29.677  18.835   7.644  0.1047  0.0758  0.0152
 1715DDP     C110285  18.414  19.351  17.794 -0.2905  0.0691 -0.1197
 1715DDP     P110286  18.201  19.010  17.792 -0.0615  0.1596 -0.0973
 1715DDP     P210287  18.047  19.500  17.608  0.2391 -0.0805  0.1515
 1715DDP     C210288  17.571  19.446  17.495 -0.1967  0.1076  0.3410
 1715DDP     C310289  17.887  18.609  17.838 -0.2625  0.1801 -0.0832
 1715DDP     C410290  18.596  19.588  18.236 -0.1119 -0.2062  0.1727
 1716DDP     C110291  22.605  11.391  13.958 -0.1359  0.2009 -0.1605
 1716DDP     P110292  22.663  11.693  14.334  0.1248 -0.0420  0.2020
 1716DDP     P210293  22.769  11.040  13.864 -0.2832 -0.2267  0.2436
 1716DDP     C210294  22.867  10.715  14.108 -0.1810  0.1904  0.0279
 1716DDP     C310295  22.504  12.096  14.533  0.3219  0.0632  0.1307
 1716DDP     C410296  22.174  11.441  13.780 -0.4640 -0.1682 -0.1150
 1717DDP     C110297  29.516  26.030  24.096  0.0598 -0.1497  0.0332
 1717DDP     P110298  29.908  25.957  23.863 -0.1831 -0.0597 -0.1329
 1717DDP     P210299  29.516  25.676  24.448 -0.0355  0.1017 -0.1387
 1717DDP     C210300  29.965  25.793  24.735 -0.0807 -0.0528  0.2183
 1717DDP     C310301   0.052  25.920  23.952 -0.0320 -0.1406  0.0085
 1717DDP     C410302  29.146  26.247  24.044  0.1321 -0.0884 -0.0042
 1718DDP     C110303  20.757  22.634  10.848 -0.1504  0.0571  0.0855
 1718DDP     P110304  20.908  23.063  10.810  0.3348  0.1628 -0.0602
 1718DDP     P210305  20.406  22.643  10.668  0.2736  0.1700 -0.0237
 1718DDP     C210306  20.267  22.784  10.226 -0.2345 -0.0407  0.1140
 1718DDP     C310307  20.952  23.128  10.296 -0.1388  0.0492 -0.1461
 1718DDP     C410308  21.020  22.360  10.926 -0.2358  0.1475 -0.1566
 1719DDP     C110309   4.438   3.321  15.966  0.3487 -0.1182 -0.0176
 1719DDP     P110310   4.239   3.507  15.656  0.0076  0.0648 -0.2099
 1719DDP     P210311   4.907   3.474  15.694  0.4028 -0.0402  0.0794
 1719DDP     C210312   5.216   3.624  15.403  0.0067  0.1668 -0.1640
 1719DDP     C310313   4.538   3.562  15.286 -0.1397 -0.1654  0.1269
 1719DDP     C410314   4.139   3.154  16.371 -0.2020 -0.0925  0.1489
 1720DDP     C110315   0.553  11.529   1.883  0.0457 -0.1775  0.1319
 1720DDP     P110316   0.653  11.919   1.659  0.0645  0.2977 -0.0334
 1720DDP     P210317   0.828  11.352   1.625 -0.0296 -0.0375  0.0849
 1720DDP     C210318   0.955  10.993   1.415 -0.3224  0.2001  0.1611
 1720DDP     C310319   0.785  12.276   1.560 -0.0454  0.3734  0.4700
 1720DDP     C410320   0.364  11.432   2.203 -0.1553  0.0381  0.2180
 1721DDP     C110321  26.837  10.857   6.195 -0.1219  0.1878 -0.3047
 1721DDP     P110322  26.571  11.113   6.347  0.0603  0.0191 -0.2503
 1721DDP     P210323  26.552  10.646   5.943 -0.1065  0.0587 -0.4596
 1721DDP     C210324  26.621  10.237   5.800  0.2712 -0.0000 -0.0071
 1721DDP     C310325  26.184  11.491   6.343 -0.3120  0.0450  0.2562
 1721DDP     C410326  27.279  10.747   6.207  0.0703  0.0037 -0.1926
 1722DDP     C110327  10.579  17.629  20.618  0.0546  0.3558  0.0219
 1722DDP     P110328  10.822  17.397  20.317  0.0766 -0.3147 -0.0432
 1722DDP     P210329  10.812  17.669  20.987  0.1576  0.1317  0.1415
 1722DDP     C210330  10.801  17.765  21.355  0.1632  0.2048  0.1476
 1722DDP     C310331  11.118  17.437  20.003  0.0121  0.1095 -0.2983
 1722DDP     C410332  10.124  17.699  20.801 -0.1143 -0.1522  0.1153
 1723DDP     C110333   1.269  25.006   4.422 -0.0063  0.1802  0.1901
 1723DDP     P110334   1.037  24.940   4.790 -0.0823  0.2639 -0.1381
 1723DDP     P210335   0.959  25.258   4.227 -0.1148 -0.1957  0.5040
 1723DDP     C210336   0.774  25.260   3.715 -0.0631  0.1732 -0.3192
 1723DDP     C310337   1.038  25.109   5.190  0.2960 -0.0165 -0.1384
 1723DDP     C410338   1.335  24.546   4.383 -0.2421 -0.1925 -0.1920
 1724DDP     C110339   1.771   6.230   2.789  0.1201 -0.2839  0.2333
 1724DDP     P110340   1.722   6.409   3.112 -0.0929 -0.0120 -0.0687
 1724DDP     P210341   2.088   6.359   2.473 -0.2239 -0.2261  0.0818
 1724DDP     C210342   2.072   6.402   1.989  0.0829  0.2373  0.1910
 1724DDP     C310343   1.932   6.671   3.465  0.0451 -0.0906 -0.0157
 1724DDP     C410344   1.537   5.836   2.719  0.1990 -0.0065  0.0304
 1725DDP     C110345  21.623   3.168  24.984  0.3094  0.2381 -0.0456
 1725DDP     P110346  21.780   3.242  25.251 -0.4404 -0.0252 -0.0348
 1725DDP     P210347  21.453   3.580  24.845  0.2807  0.0719 -0.1126
 1725DDP     C210348  21.551   3.918  24.696  0.0144 -0.1637 -0.2380
 1725DDP     C310349  22.067   3.605  25.351 -0.2185  0.0623  0.0892
 1725DDP     C410350  21.590   2.818  24.726 -0.0216 -0.2227  0.0007
 1726DDP     C110351   4.491   2.812   3.231 -0.0461  0.2018  0.1600
 1726DDP     P110352   4.347   2.570   3.634 -0.1057  0.0117 -0.1713
 1726DDP     P210353   4.772   2.575   2.928  0.1538  0.1326  0.1916
 1726DDP     C210354   4.992   2.339   2.616  0.0875  0.1769 -0.1077
 1726DDP     C310355   3.902   2.425   3.503  0.0803 -0.1094  0.4357
 1726DDP     C410356   4.469   3.149   3.015  0.0829 -0.0732  0.2518
 1727DDP     C110357  28.658  23.242  20.958 -0.1562  0.0279  0.0043
 1727DDP     P110358  28.644  23.648  21.136 -0.0586  0.0265 -0.1689
 1727DDP     P210359  28.240  23.147  20.638  0.0715  0.1655  0.1988
 1727DDP     C210360  28.396  22.876  20.234  0.3888 -0.3338 -0.2384
 1727DDP     C310361  28.651  24.038  21.416 -0.3979 -0.0823 -0.4539
 1727DDP     C410362  28.891  22.892  20.945  0.0638 -0.1779  0.0815
 1728DDP     C110363  24.881  22.731   7.200  0.2789  0.3744 -0.0588
 1728DDP     P110364  24.595  23.088   7.283  0.2157  0.1123  0.0352
 1728DDP     P210365  25.170  22.478   7.486 -0.0341  0.1454 -0.2616
 1728DDP     C210366  25.539  22.281   7.634  0.0084  0.1441 -0.0778
 1728DDP     C310367  24.416  23.463   7.413  0.4952  0.1568 -0.0217
 1728DDP     C410368  24.815  22.479   6.835 -0.1919  0.2090  0.1489
 1729DDP     C110369   8.525  12.600  22.510 -0.0746  0.2421  0.1637
 1729DDP     P110370   8.642  12.504  22.872  0.2574  0.1390 -0.0922
 1729DDP     P210371   8.690  12.892  22.265 -0.0862  0.2494 -0.0454
 1729DDP     C210372   8.477  13.183  21.992 -0.2987 -0.1396 -0.0339
 1729DDP     C310373   8.812  12.332  23.270  0.0614 -0.0425 -0.0042
 1729DDP     C410374   8.176  12.339  22.431 -0.4818  0.0013 -0.2474
 1730DDP     C110375  16.958   8.429   0.880  0.0171  0.1565  0.0917
 1730DDP     P110376  16.878   8.432   0.493 -0.2552 -0.0919  0.1240
 1730DDP     P210377  16.908   8.701   1.236 -0.4382 -0.1155  0.2160
 1730DDP     C210378  16.643   9.014   1.272 -0.0493  0.0440 -0.0160
 1730DDP     C310379  16.759   8.389   0.086  0.2784  0.0300  0.0561
 1730DDP     C410380  17.353   8.101   0.929  0.0068  0.0876  0.0332
 1731DDP     C110381  12.811  29.632   5.250 -0.0779  0.0790 -0.0021
 1731DDP     P110382  12.866  29.153   5.326  0.1445 -0.2285  0.1232
 1731DDP     P210383  12.538  29.944   5.441 -0.2239 -0.0277 -0.1540
 1731DDP     C210384  12.342  30.315   5.386 -0.2940  0.0585 -0.1399
 1731DDP     C310385  12.604  28.857   5.399  0.1385  0.2351  0.0715
 1731DDP     C410386  13.181  29.809   5.023 -0.0819  0.2080 -0.1924
 1732DDP     C110387  28.312  19.590  18.535  0.0899  0.0484  0.1380
 1732DDP     P110388  28.034  19.885  18.467 -0.0084  0.0201  0.0073
 1732DDP     P210389  28.574  19.463  18.222  0.1278 -0.4815 -0.3205
 1732DDP     C210390  29.075  19.371  18.215 -0.1194 -0.0261 -0.0314
 1732DDP     C310391  27.732  20.175  18.325 -0.1371 -0.0916  0.1656
 1732DDP     C410392  28.350  19.427  18.981 -0.0981 -0.2870 -0.0439
 1733DDP     C110393  23.248   0.038  20.833  0.0443 -0.1333  0.1363
 1733DDP     P110394  23.357   0.335  21.076  0.1847 -0.4566 -0.1009
 1733DDP     P210395  22.982  30.089  21.034  0.0409  0.0501  0.3415
 1733DDP     C210396  22.839  30.033  21.458  0.1652  0.2179  0.1324
 1733DDP     C310397  23.739   0.585  21.196 -0.0135 -0.1478  0.1426
 1733DDP     C410398  23.422   0.130  20.402 -0.2635  0.2468  0.0660
 1734DDP     C110399   4.192  17.778  22.974  0.1550  0.0362  0.1411
 1734DDP     P110400   4.026  17.964  22.579  0.2447  0.3168  0.0820
 1734DDP     P210401   4.568  17.587  23.000 -0.1401  0.1323  0.0892
 1734DDP     C210402   5.043  17.405  22.869  0.1167 -0.3243 -0.1386
 1734DDP     C310403   3.734  18.185  22.535  0.0389  0.0786 -0.2289
 1734DDP     C410404   3.926  17.784  23.323 -0.2440  0.2079 -0.1702
 1735DDP     C110405  26.942   8.123  24.629  0.0227 -0.4010  0.0529
 1735DDP     P110406  27.238   8.083  24.882 -0.1439  0.3866  0.0032
 1735DDP     P210407  26.925   8.484  24.454  0.1011  0.1666  0.1733
 1735DDP     C210408  27.025   8.751  24.098  0.0961 -0.0435 -0.1545
 1735DDP     C310409  27.464   7.673  24.895 -0.0016 -0.1487  0.0844
 1735DDP     C410410  26.752   7.839  24.344 -0.1187 -0.1555 -0.4494
 1736DDP     C110411  21.804  28.162   0.984  0.0957  0.1311 -0.1347
 1736DDP     P110412  22.062  28.429   0.935 -0.2735  0.0493 -0.2867
 1736DDP     P210413  21.875  28.011   1.444  0.0288  0.1872 -0.2583
 1736DDP     C210414  22.154  27.888   1.696 -0.2261 -0.2038  0.0684
 1736DDP     C310415  22.407  28.719   0.952  0.3578  0.0538 -0.0815
 1736DDP     C410416  21.399  28.007   0.740  0.1345 -0.2651 -0.1137
 1737DDP     C110417  18.027   2.992  29.183  0.0117 -0.1372 -0.1291
 1737DDP     P110418  17.719   2.995  29.096  0.2019  0.0279 -0.2405
 1737DDP     P210419  18.261   2.897  28.964 -0.1662 -0.2147  0.2642
 1737DDP     C210420  18.603   3.019  29.049 -0.0045 -0.3745  0.0353
 1737DDP     C310421  17.338   2.999  28.869  0.0684 -0.0654  0.1972
 1737DDP     C410422  18.220   3.073  29.639 -0.1246 -0.0180 -0.0980
 1738DDP     C110423  25.732  10.445  27.204 -0.1902 -0.2059  0.1147
 1738DDP     P110424  26.097  10.441  27.449  0.0633  0.5353  0.0267
 1738DDP     P210425  25.484  10.816  27.096  0.1984  0.0039  0.2634
 1738DDP     C210426  25.165  11.071  26.913  0.0078  0.2581 -0.1844
 1738DDP     C310427  26.324  10.088  27.619  0.0597  0.1628 -0.1240
 1738DDP     C410428  25.668  10.133  26.990  0.0414 -0.1972 -0.2563
 1739DDP     C110429  21.141  26.402  20.460 -0.0013  0.0774 -0.2274
 1739DDP     P110430  21.479  26.288  20.344 -0.3467 -0.0221  0.0115
 1739DDP     P210431  21.126  26.819  20.601  0.0268  0.3055  0.0359
 1739DDP     C210432  21.157  27.101  20.379  0.0412  0.0015 -0.1149
 1739DDP     C310433  21.840  26.541  20.391 -0.0039  0.0443  0.0793
 1739DDP     C410434  20.772  26.017  20.441 -0.0569 -0.0418 -0.3284
 1740DDP     C110435   9.701  28.779   0.928 -0.1270 -0.0258  0.1162
 1740DDP     P110436   9.598  29.278   0.852  0.1625  0.5042 -0.1508
 1740DDP     P210437  10.138  28.681   1.005  0.2301  0.3135 -0.2858
 1740DDP     C210438  10.203  28.399   1.279  0.0627 -0.3004 -0.1926
 1740DDP     C310439   9.431  29.489   0.510  0.1143  0.0601 -0.0102
 1740DDP     C410440   9.441  28.529   0.629  0.1167  0.0200 -0.3871
 1741DDP     C110441  11.023  26.633  11.209  0.0911 -0.2529 -0.0724
 1741DDP     P110442  10.658  26.860  11.266  0.3479  0.2572 -0.0899
 1741DDP     P210443  10.892  26.678  10.742  0.0090 -0.1021 -0.2338
 1741DDP     C210444  10.565  26.603  10.343  0.1904  0.1397 -0.0287
 1741DDP     C310445  10.273  26.962  11.160  0.1156  0.2947  0.2750
 1741DDP     C410446  11.457  26.460  11.343 -0.0126  0.0831  0.0924
 1742DDP     C110447  10.713  21.671  20.008  0.0468 -0.2643 -0.0719
 1742DDP     P110448  10.925  21.802  20.416 -0.1844  0.1317  0.0185
 1742DDP     P210449  11.048  21.466  19.851  0.1510 -0.3688 -0.1197
 1742DDP     C210450  11.480  21.438  19.942  0.0284  0.3383  0.0521
 1742DDP     C310451  11.125  22.144  20.607 -0.1318 -0.1364 -0.0489
 1742DDP     C410452  10.436  21.892  19.815 -0.1002 -0.1213 -0.2856
 1743DDP     C110453   3.773  21.748   0.542 -0.0646 -0.2438 -0.1004
 1743DDP     P110454   3.951  21.902   0.242  0.2407  0.3361 -0.2895
 1743DDP     P210455   3.399  21.644   0.366 -0.0146  0.0513 -0.1808
 1743DDP     C210456   3.260  21.721  30.263 -0.3227  0.2019  0.1489
 1743DDP     C310457   4.383  21.931   0.135  0.4245  0.0994 -0.2377
 1743DDP     C410458   3.926  21.768   0.989  0.0215 -0.1793 -0.0807
 1744DDP     C110459  15.937  12.293  16.252  0.1193 -0.0097  0.1883
 1744DDP     P110460  15.877  12.174  16.624  0.0519 -0.0524  0.0299
 1744DDP     P210461  16.159  12.087  15.920 -0.1115  0.1607  0.0519
 1744DDP     C210462  16.349  11.825  15.616  0.0663  0.1027 -0.1899
 1744DDP     C310463  15.899  11.821  16.808 -0.2504 -0.1206 -0.2790
 1744DDP     C410464  16.116  12.638  16.335  0.0136  0.0456 -0.0914
 1745DDP     C110465  20.177  16.769  17.856  0.1735 -0.1106 -0.1732
 1745DDP     P110466  20.107  16.931  17.416 -0.1293 -0.0329 -0.0940
 1745DDP     P210467  19.961  16.531  18.083 -0.0435 -0.0773  0.3105
 1745DDP     C210468  19.774  16.492  18.389 -0.3147  0.3102  0.1852
 1745DDP     C310469  19.974  17.012  16.992  0.0148  0.1116  0.1275
 1745DDP     C410470  20.229  17.081  18.181 -0.2844 -0.2410 -0.0459
 1746DDP     C110471  17.948  15.343  25.382  0.2733 -0.2883 -0.0181
 1746DDP     P110472  18.184  15.447  25.679 -0.2766 -0.1920 -0.0455
 1746DDP     P210473  18.219  15.481  25.072  0.1945  0.1992 -0.1634
 1746DDP     C210474  18.658  15.686  24.929 -0.1228  0.2779 -0.3143
 1746DDP     C310475  18.080  15.356  26.100 -0.3020 -0.2677 -0.1034
 1746DDP     C410476  17.643  15.062  25.409  0.0152  0.1634  0.2155
 1747DDP     C110477  27.408   8.969  25.071 -0.2308 -0.1419  0.0089
 1747DDP     P110478  27.059   8.687  25.064  0.1319 -0.0728  0.0485
 1747DDP     P210479  27.881   9.099  24.895 -0.0162  0.3180 -0.1474
 1747DDP     C210480  28.296   8.940  24.555 -0.2439 -0.0668 -0.0442
 1747DDP     C310481  26.723   8.467  24.997  0.0772 -0.2339  0.1593
 1747DDP     C410482  27.480   9.190  25.485 -0.1026  0.0802  0.1929
 1748DDP     C110483   0.569  15.794  13.868 -0.0057 -0.0300 -0.2525
 1748DDP     P110484   0.535  16.141  14.110 -0.3040 -0.0236 -0.3267
 1748DDP     P210485   0.488  15.809  13.421  0.4567 -0.0328 -0.0881
 1748DDP     C210486   0.477  15.935  12.970  0.5642  0.2415 -0.3293
 1748DDP     C310487   0.384  16.530  13.977  0.0540  0.1356 -0.2411
 1748DDP     C410488   0.906  15.578  13.951 -0.2304 -0.0258 -0.0605
 1749DDP     C110489  23.022   3.905  12.100 -0.3251 -0.2079  0.0657
 1749DDP     P110490  22.727   3.561  12.241 -0.1496 -0.1002  0.1796
 1749DDP     P210491  23.142   3.779  11.692 -0.0239  0.1800  0.0217
 1749DDP     C210492  23.337   3.434  11.514 -0.1814 -0.1870 -0.0618
 1749DDP     C310493  22.459   3.113  12.254  0.1180  0.1140 -0.0284
 1749DDP     C410494  22.910   4.350  12.164  0.1863  0.0735  0.0708
 1750DDP     C110495  19.621  29.991  16.676  0.2123 -0.1967 -0.3331
 1750DDP     P110496  19.867  29.986  16.978 -0.0297 -0.0940  0.0077
 1750DDP     P210497  19.835  29.648  16.407 -0.1560 -0.1746  0.2871
 1750DDP     C210498  20.062  29.758  16.140 -0.1889  0.1806  0.3180
 1750DDP     C310499  20.358  29.923  17.030 -0.1452  0.0515 -0.1526
 1750DDP     C410500  19.311   0.028  16.428  0.1331 -0.2316 -0.1971
 1751DDP     C110501  27.498   4.675  19.764  0.1140 -0.0028  0.1549
 1751DDP     P110502  27.457   4.622  19.285  0.3275 -0.3088 -0.3116
 1751DDP     P210503  27.544   4.295  20.102  0.2244 -0.0399  0.0789
 1751DDP     C210504  27.807   3.933  20.317 -0.1906 -0.4011 -0.0786
 1751DDP     C310505  27.382   5.042  19.056  0.0425 -0.2820 -0.4754
 1751DDP     C410506  27.269   4.923  19.975 -0.0396  0.1969  0.1478
 1752DDP     C110507  27.813  18.222   9.994 -0.0625  0.1325  0.0470
 1752DDP     P110508  28.089  17.814  10.036  0.4393 -0.0808 -0.1083
 1752DDP     P210509  27.893  18.375   9.628 -0.2208 -0.0571 -0.1915
 1752DDP     C210510  27.580  18.483   9.253  0.2142 -0.0431 -0.0282
 1752DDP     C310511  28.105  17.915  10.449 -0.0592  0.0505 -0.1290
 1752DDP     C410512  27.479  18.402  10.224 -0.1812  0.2056  0.1159
 1753DDP     C110513   0.428  29.623  21.594  0.2977  0.1329  0.1542
 1753DDP     P110514   0.743  29.475  21.768 -0.0175  0.0949 -0.2998
 1753DDP     P210515   0.284  29.949  21.416  0.3762 -0.2760 -0.1992
 1753DDP     C210516   0.214  30.313  21.466  0.1703  0.2829  0.3652
 1753DDP     C310517   0.839  29.306  22.127 -0.1873 -0.2645 -0.0609
 1753DDP     C410518   0.072  29.520  21.678 -0.2910  0.0649  0.0022
 1754DDP     C110519   7.501  15.376  12.917  0.0072  0.2086 -0.0291
 1754DDP     P110520   7.773  15.414  12.471  0.0322 -0.1957 -0.3067
 1754DDP     P210521   7.455  15.411  13.276  0.1166  0.0567 -0.2063
 1754DDP     C210522   7.569  15.594  13.779 -0.1184 -0.0383  0.0408
 1754DDP     C310523   8.176  15.417  12.361 -0.1027 -0.0484 -0.1295
 1754DDP     C410524   7.197  15.684  12.700  0.1181 -0.1104 -0.0751
 1755DDP     C110525   5.859  18.572  11.714  0.1851  0.2202 -0.1814
 1755DDP     P110526   5.751  18.459  11.329  0.0427  0.3908  0.0186
 1755DDP     P210527   6.109  18.918  11.775 -0.0648 -0.2296  0.0248
 1755DDP     C210528   6.495  19.200  11.959 -0.1217 -0.3999 -0.0818
 1755DDP     C310529   5.598  18.451  10.871  0.0300 -0.1964 -0.1905
 1755DDP     C410530   5.622  18.281  12.129  0.0761 -0.0337  0.1766
 1756DDP     C110531  17.357  15.533  28.778  0.1735  0.3699 -0.0637
 1756DDP     P110532  17.343  15.432  29.209 -0.0410 -0.2788  0.0577
 1756DDP     P210533  17.100  15.115  28.702  0.1602 -0.1009  0.1456
 1756DDP     C210534  16.882  14.735  28.573  0.1736  0.0797 -0.1728
 1756DDP     C310535  17.581  15.253  29.539 -0.0172 -0.1941 -0.2473
 1756DDP     C410536  17.487  15.849  28.465  0.1076  0.0683  0.0145
 1757DDP     C110537  28.720  22.997  21.896  0.0469  0.0092  0.1654
 1757DDP     P110538  29.182  23.020  21.990  0.0420 -0.2044 -0.1417
 1757DDP     P210539  28.497  23.225  22.194 -0.2532  0.0741  0.1277
 1757DDP     C210540  28.229  23.198  22.435 -0.1865  0.0913  0.0512
 1757DDP     C310541  29.462  22.841  22.187  0.2296  0.0471  0.1827
 1757DDP     C410542  28.663  22.993  21.431  0.0750 -0.0552  0.0509
 1758DDP     C110543  21.901  26.919   5.898  0.1344 -0.3108 -0.1410
 1758DDP     P110544  22.276  27.166   5.839 -0.1314 -0.2767 -0.1279
 1758DDP     P210545  21.529  27.078   6.116 -0.0241 -0.2489 -0.3347
 1758DDP     C210546  21.219  27.277   6.211  0.2865 -0.0298 -0.0010
 1758DDP     C310547  22.461  27.435   6.076 -0.1179  0.0166  0.1760
 1758DDP     C410548  21.926  26.458   5.971  0.0111 -0.1216  0.1713
 1759DDP     C110549  24.883  21.977  22.548  0.0313  0.2448  0.1846
 1759DDP     P110550  25.309  22.207  22.560 -0.5195  0.0328 -0.1499
 1759DDP     P210551  24.755  21.645  22.779 -0.0071 -0.0837  0.0000
 1759DDP     C210552  24.368  21.559  22.615 -0.1844  0.5371  0.2015
 1759DDP     C310553  25.628  22.432  22.630 -0.0827  0.0245  0.2159
 1759DDP     C410554  24.517  22.181  22.525 -0.0281  0.2815  0.2383
 1760DDP     C110555   0.124  14.908   7.573 -0.1865 -0.3973  0.0174
 1760DDP     P110556  30.215  15.312   7.589  0.1629  0.0271 -0.1224
 1760DDP     P210557  -0.010  14.879   7.035  0.0721 -0.3443 -0.1845
 1760DDP     C210558  30.010  14.825   6.686  0.1239 -0.0919  0.1387
 1760DDP     C310559  30.121  15.641   7.984 -0.2492 -0.2324  0.0309
 1760DDP     C410560   0.376  14.700   7.859  0.2060  0.0601  0.0321
 1761DDP     C110561  22.901  20.955  17.754  0.1637  0.1133  0.2953
 1761DDP     P110562  22.666  20.985  17.367 -0.0780  0.0828 -0.1813
 1761DDP     P210563  23.397  20.871  17.705 -0.0623  0.1182  0.0643
 1761DDP     C210564  23.466  20.497  17.695 -0.1464 -0.1861 -0.0964
 1761DDP     C310565  22.236  21.105  17.274  0.3480 -0.1734  0.1442
 1761DDP     C410566  22.750  21.114  18.130 -0.1327 -0.1301  0.2347
 1762DDP     C110567  29.472  30.155  15.196 -0.1231 -0.1179  0.0603
 1762DDP     P110568  29.846  30.179  14.948 -0.0014 -0.0493  0.2265
 1762DDP     P210569  29.374   0.138  15.528  0.0686  0.1240 -0.0530
 1762DDP     C210570  29.110   0.103  15.884 -0.1114 -0.2542  0.3704
 1762DDP     C310571  30.185  29.927  14.809 -0.0439  0.0888 -0.0731
 1762DDP     C410572  29.384  29.660  15.261  0.6181 -0.0397 -0.1311
 1763DDP     C110573  24.224   2.289  10.996  0.0662 -0.0014  0.1905
 1763DDP     P110574  24.007   1.972  11.226 -0.0889 -0.0406  0.2733
 1763DDP     P210575  24.551   2.253  10.748 -0.1212  0.2655 -0.0421
 1763DDP     C210576  24.794   1.838  10.750  0.0838 -0.1444  0.1751
 1763DDP     C310577  24.023   1.691  11.602 -0.1992  0.1587  0.0696
 1763DDP     C410578  24.044   2.734  10.986  0.2242  0.0010 -0.2441
 1764DDP     C110579  16.749   6.053   7.659 -0.3313  0.2423  0.1383
 1764DDP     P110580  16.486   6.432   7.391  0.2255 -0.0647 -0.3689
 1764DDP     P210581  17.124   6.227   7.937  0.2910 -0.1148  0.1056
 1764DDP     C210582  17.427   5.979   7.749 -0.0460 -0.0428  0.1868
 1764DDP     C310583  16.654   6.715   7.151 -0.0911  0.1468  0.0019
 1764DDP     C410584  16.660   5.622   7.745 -0.1810  0.1756  0.1924
 1765DDP     C110585  22.200  22.670  28.743 -0.1132  0.0250 -0.0229
 1765DDP     P110586  21.970  22.533  28.373  0.2176 -0.0094 -0.3263
 1765DDP     P210587  22.231  22.479  29.120 -0.2714 -0.0361 -0.0553
 1765DDP     C210588  22.263  22.613  29.476 -0.1234 -0.0270  0.3247
 1765DDP     C310589  21.836  22.516  27.985 -0.1333  0.1549  0.4941
 1765DDP     C410590  22.276  23.001  28.923 -0.0623 -0.1920 -0.2421
 1766DDP     C110591  21.053   0.653  22.393 -0.1004 -0.2210  0.1798
 1766DDP     P110592  20.696   0.648  22.679 -0.1625  0.0331 -0.0437
 1766DDP     P210593  20.954   0.907  21.999  0.0241  0.3100 -0.1605
 1766DDP     C210594  20.718   1.329  21.969  0.0530  0.4176  0.1625
 1766DDP     C310595  20.258   0.907  22.589 -0.2658  0.0327 -0.1482
 1766DDP     C410596  21.485   0.481  22.441  0.2146 -0.0336  0.0514
 1767DDP     C110597  19.770  25.537  28.752 -0.1159  0.1294 -0.1741
 1767DDP     P110598  19.438  25.243  28.678  0.2225  0.0599  0.2417
 1767DDP     P210599  19.710  25.957  29.039 -0.0040  0.1237  0.1274
 1767DDP     C210600  19.988  26.021  29.337 -0.1642 -0.2172 -0.0118
 1767DDP     C310601  19.069  24.960  28.697  0.1285  0.1537  0.1531
 1767DDP     C410602  20.108  25.413  28.392  0.0191  0.3553 -0.1621
 1768DDP     C110603  24.834   5.058   3.191  0.0182 -0.0499 -0.3801
 1768DDP     P110604  24.554   5.296   3.455 -0.1170  0.0452 -0.2644
 1768DDP     P210605  25.149   4.913   3.328 -0.1309 -0.1263 -0.1228
 1768DDP     C210606  25.345   4.502   3.164  0.3227  0.1774  0.0680
 1768DDP     C310607  24.387   5.471   3.794  0.4477 -0.0868  0.2405
 1768DDP     C410608  24.639   5.069   2.731  0.1831  0.2534 -0.0442
 1769DDP     C110609   0.245   4.510  11.342  0.2585  0.0091 -0.0504
 1769DDP     P110610   0.504   4.971  11.322 -0.0522 -0.0157 -0.1573
 1769DDP     P210611   0.131   4.271  10.972 -0.2953  0.0365 -0.1969
 1769DDP     C210612   0.051   4.226  10.577 -0.0549  0.2657  0.3339
 1769DDP     C310613   0.504   5.418  11.155  0.1336  0.2460  0.2937
 1769DDP     C410614  30.215   4.394  11.593 -0.0227  0.1733  0.0924
 1770DDP     C110615  29.624  24.635   3.504 -0.1247  0.2616  0.1670
 1770DDP     P110616  29.699  24.650   4.069  0.1568  0.2122  0.0373
 1770DDP     P210617  29.216  24.829   3.359 -0.0642  0.2243 -0.0260
 1770DDP     C210618  28.693  24.941   3.423 -0.0960  0.2439  0.0298
 1770DDP     C310619  29.782  24.996   4.483  0.0098 -0.0490 -0.0126
 1770DDP     C410620  29.545  24.168   3.287  0.0263  0.0667 -0.1757
 1771DDP     C110621  23.056  27.138  26.988  0.0196  0.1842 -0.2554
 1771DDP     P110622  23.340  26.988  27.392 -0.1571 -0.4300 -0.0655
 1771DDP     P210623  23.221  27.475  26.750  0.1429  0.1157 -0.0829
 1771DDP     C210624  23.473  27.786  26.574  0.4270  0.2129 -0.0167
 1771DDP     C310625  23.677  27.167  27.558 -0.3614  0.0467  0.0570
 1771DDP     C410626  22.838  26.992  26.734  0.4668  0.1978 -0.1485
 1772DDP     C110627   9.229   3.080  28.757 -0.1751  0.1390 -0.0848
 1772DDP     P110628   9.329   3.413  29.071  0.3026  0.0003 -0.0435
 1772DDP     P210629   9.293   3.078  28.316 -0.1042  0.0468  0.2066
 1772DDP     C210630   9.223   2.827  27.969  0.2042  0.1254  0.4045
 1772DDP     C310631   9.670   3.635  29.330 -0.0270  0.0277  0.2600
 1772DDP     C410632   9.095   2.685  29.011 -0.1090  0.1873  0.0170
 1773DDP     C110633  18.099  17.396   1.192  0.0141 -0.1100  0.1151
 1773DDP     P110634  17.926  17.779   1.078  0.2829  0.1542 -0.0042
 1773DDP     P210635  18.466  17.611   1.175 -0.1388  0.1447 -0.2560
 1773DDP     C210636  18.890  17.397   1.047  0.1712 -0.1595 -0.2576
 1773DDP     C310637  17.858  18.266   1.092  0.2553  0.1610 -0.3014
 1773DDP     C410638  18.114  17.086   1.551  0.2240  0.0081  0.0085
 1774DDP     C110639  21.396  22.122  25.163 -0.2922 -0.1971 -0.3761
 1774DDP     P110640  21.735  22.436  25.028  0.3062  0.2676 -0.0886
 1774DDP     P210641  21.567  21.621  25.299 -0.1912  0.0967 -0.2780
 1774DDP     C210642  21.792  21.320  25.401  0.1909  0.4547 -0.1240
 1774DDP     C310643  22.099  22.669  24.902  0.0288 -0.1216  0.3404
 1774DDP     C410644  21.118  22.339  25.136  0.1583 -0.1180 -0.3150
 1775DDP     C110645   8.346   0.309  15.728  0.0572  0.0393  0.0089
 1775DDP     P110646   8.548  30.121  15.951  0.0661  0.0746  0.2035
 1775DDP     P210647   8.067   0.543  15.937  0.0038  0.0422 -0.3053
 1775DDP     C210648   7.847   0.791  15.697  0.0167  0.1944 -0.1081
 1775DDP     C310649   8.554  29.731  16.142 -0.0647  0.0971 -0.0521
 1775DDP     C410650   8.352   0.359  15.343 -0.1307 -0.3203 -0.0942
 1776DDP     C110651   0.589   7.373   7.948  0.1778  0.1434  0.2327
 1776DDP     P110652   0.857   7.712   8.140  0.0911 -0.0266  0.0250
 1776DDP     P210653   0.155   7.428   8.038  0.1418  0.3015 -0.0439
 1776DDP     C210654  30.060   7.475   7.739 -0.1500 -0.2199 -0.0206
 1776DDP     C310655   1.163   8.118   8.017  0.3234 -0.2175  0.1163
 1776DDP     C410656   0.783   6.893   7.896 -0.1954 -0.1691  0.1057
 1777DDP     C110657  19.608  24.244   3.779  0.1655  0.2128 -0.1442
 1777DDP     P110658  20.023  24.330   3.697  0.1973 -0.5149 -0.1262
 1777DDP     P210659  19.662  24.426   3.363 -0.2436  0.0074 -0.0464
 1777DDP     C210660  19.770  24.513   2.866  0.0151  0.3394 -0.0781
 1777DDP     C310661  20.479  24.362   3.717  0.1350  0.0900  0.1677
 1777DDP     C410662  19.250  24.405   3.836  0.0960 -0.0891 -0.0440
 1778DDP     C110663  12.045  20.935  27.368 -0.0629  0.0886  0.0827
 1778DDP     P110664  12.388  21.324  27.255  0.1893 -0.0486 -0.3460
 1778DDP     P210665  11.999  20.450  27.224  0.2559  0.1559 -0.0043
 1778DDP     C210666  11.980  20.075  27.375 -0.1032 -0.0151 -0.1434
 1778DDP     C310667  12.718  21.330  27.581 -0.0613  0.0721 -0.0309
 1778DDP     C410668  11.863  21.035  27.717  0.0151 -0.1286  0.1784
 1779DDP     C110669   5.941   1.380   9.453  0.0277  0.0394 -0.1188
 1779DDP     P110670   6.249   1.292   9.122 -0.2443  0.0218  0.1592
 1779DDP     P210671   5.519   1.435   9.308  0.2723 -0.2548  0.1447
 1779DDP     C210672   5.558   1.717   8.892 -0.2506  0.4067  0.1580
 1779DDP     C310673   6.444   1.010   8.859 -0.0276 -0.0524 -0.1710
 1779DDP     C410674   5.868   1.523   9.835  0.0710  0.2522  0.0354
 1780DDP     C110675  22.873  23.533  22.870 -0.3105 -0.1984 -0.2360
 1780DDP     P110676  22.535  23.273  22.942 -0.2456 -0.1041 -0.1659
 1780DDP     P210677  22.906  23.870  22.533  0.1417  0.1307 -0.0639
 1780DDP     C210678  23.068  24.237  22.398  0.2620  0.0632  0.1213
 1780DDP     C310679  22.373  22.963  23.192 -0.1160  0.0970  0.3403
 1780DDP     C410680  23.077  23.460  23.157 -0.0036 -0.0271  0.1056
 1781DDP     C110681  28.726   3.766  26.180 -0.0525  0.0855  0.1277
 1781DDP     P110682  29.250   3.673  26.356  0.0255 -0.2483  0.1321
 1781DDP     P210683  28.801   4.045  25.860 -0.1110 -0.0585  0.0710
 1781DDP     C210684  28.763   4.456  25.549  0.1336 -0.0647 -0.1438
 1781DDP     C310685  29.562   3.492  26.558  0.0661  0.0062  0.3606
 1781DDP     C410686  28.380   3.606  26.167 -0.0825  0.1764 -0.0663
 1782DDP     C110687  14.200   7.354   6.675  0.0393  0.1137 -0.1225
 1782DDP     P110688  14.496   7.404   6.935 -0.0973 -0.1810 -0.0787
 1782DDP     P210689  14.197   7.717   6.323  0.0613  0.0643  0.0556
 1782DDP     C210690  14.083   8.132   6.151  0.3161  0.0105 -0.0202
 1782DDP     C310691  14.842   7.114   7.158  0.0846  0.0290 -0.1171
 1782DDP     C410692  14.063   6.891   6.833 -0.0037 -0.1277  0.0242
 1783DDP     C110693  20.595  13.650   3.889 -0.1252 -0.2117 -0.2395
 1783DDP     P110694  20.245  13.454   3.790  0.0760 -0.0886 -0.0095
 1783DDP     P210695  20.469  13.980   4.114  0.0955  0.0767  0.2924
 1783DDP     C210696  20.366  14.430   4.316  0.0388 -0.3329 -0.0643
 1783DDP     C310697  20.069  13.042   3.677  0.1063 -0.0291  0.1658
 1783DDP     C410698  20.936  13.486   3.794 -0.4339 -0.1304  0.5210
 1784DDP     C110699  15.845  21.611   8.616  0.1071  0.0490 -0.0665
 1784DDP     P110700  16.043  21.825   8.250  0.0986  0.1058 -0.0989
 1784DDP     P210701  15.454  21.479   8.545  0.0295 -0.1649  0.2260
 1784DDP     C210702  15.180  21.837   8.380 -0.0595 -0.0031  0.0107
 1784DDP     C310703  16.415  21.814   7.976 -0.0318 -0.0214  0.5661
 1784DDP     C410704  16.183  21.627   8.938  0.1355 -0.0686 -0.0648
 1785DDP     C110705  14.380  12.103  12.278  0.1124 -0.0153 -0.0827
 1785DDP     P110706  13.968  12.148  12.591 -0.0145  0.0373  0.3261
 1785DDP     P210707  14.775  12.017  12.213 -0.1220 -0.3318  0.0025
 1785DDP     C210708  15.011  11.719  12.355 -0.1469  0.1503 -0.0650
 1785DDP     C310709  13.557  12.111  12.793  0.1535  0.1271 -0.2308
 1785DDP     C410710  14.201  12.445  12.028 -0.2036  0.1716  0.1788
 1786DDP     C110711   0.226  27.342  27.942 -0.0165  0.0170 -0.0697
 1786DDP     P110712  30.173  27.436  27.575  0.1379 -0.1807  0.1300
 1786DDP     P210713   0.255  27.741  28.050  0.1643 -0.3250 -0.2611
 1786DDP     C210714   0.109  27.813  27.687  0.0376 -0.1369  0.3394
 1786DDP     C310715  30.020  27.644  27.156  0.0654 -0.1529 -0.0527
 1786DDP     C410716   0.331  27.043  28.269  0.0649  0.1747 -0.1317
 1787DDP     C110717  25.127  27.643  26.486  0.1659  0.1680  0.0229
 1787DDP     P110718  25.369  27.973  26.483  0.3252  0.2575  0.2105
 1787DDP     P210719  24.807  27.579  26.776 -0.0291  0.1266 -0.0863
 1787DDP     C210720  24.739  27.626  27.357  0.3013  0.2215  0.0388
 1787DDP     C310721  25.340  28.263  26.150 -0.0259  0.1283  0.0501
 1787DDP     C410722  25.156  27.390  26.139  0.1403 -0.2396 -0.0422
 1788DDP     C110723  20.355   3.782  29.717  0.2381  0.2298 -0.1919
 1788DDP     P110724  20.512   3.457  29.443 -0.0992  0.0374 -0.0967
 1788DDP     P210725  20.101   4.111  29.561  0.1841  0.0613 -0.0355
 1788DDP     C210726  19.769   4.365  29.457 -0.1015  0.2972 -0.0395
 1788DDP     C310727  20.528   3.059  29.328  0.1514  0.4415  0.2218
 1788DDP     C410728  20.297   3.732  30.240 -0.2884 -0.2504  0.0773
 1789DDP     C110729  11.680  21.757  22.865  0.0451 -0.0847  0.0166
 1789DDP     P110730  11.796  22.069  22.694  0.1180 -0.2734 -0.3796
 1789DDP     P210731  12.025  21.647  23.166  0.1338  0.1433  0.0702
 1789DDP     C210732  12.394  21.484  23.376 -0.0910  0.1371  0.1787
 1789DDP     C310733  11.442  22.192  22.543 -0.0532 -0.0023  0.0765
 1789DDP     C410734  11.374  21.640  23.059  0.0417  0.1795  0.0032
 1790DDP     C110735  29.204  23.051  27.375  0.2247  0.1414 -0.3406
 1790DDP     P110736  29.311  23.113  27.845  0.1059 -0.1127 -0.1676
 1790DDP     P210737  29.298  22.668  27.218  0.0940  0.0623 -0.0378
 1790DDP     C210738  29.278  22.261  27.453  0.2408 -0.1262  0.1010
 1790DDP     C310739  29.353  23.302  28.267 -0.0409 -0.0778  0.1570
 1790DDP     C410740  29.168  23.336  27.011 -0.0162  0.3636  0.3417
 1791DDP     C110741  14.234  21.681  10.330  0.2130  0.4253  0.0223
 1791DDP     P110742  14.673  21.715  10.430 -0.0081 -0.0280 -0.2875
 1791DDP     P210743  14.251  21.948   9.953 -0.0172 -0.2199 -0.0190
 1791DDP     C210744  14.006  22.234   9.809  0.0321 -0.2899 -0.1503
 1791DDP     C310745  14.954  22.172  10.577 -0.0214 -0.1431  0.3750
 1791DDP     C410746  13.810  21.525  10.399  0.0392 -0.1449  0.1106
 1792DDP     C110747  14.023  24.988  12.748  0.0402  0.1860 -0.4524
 1792DDP     P110748  13.768  24.625  12.583 -0.1503  0.0293 -0.1648
 1792DDP     P210749  13.787  25.229  13.022 -0.0255 -0.0316 -0.1134
 1792DDP     C210750  13.764  25.659  13.212  0.0485 -0.2724  0.2830
 1792DDP     C310751  13.909  24.300  12.360 -0.1933 -0.0547 -0.0565
 1792DDP     C410752  14.502  24.940  12.813  0.3637 -0.1361 -0.1944
 1793DDP     C110753   8.096  29.132  22.989 -0.0020 -0.0622 -0.1875
 1793DDP     P110754   7.933  29.244  22.572 -0.0342 -0.2138  0.0418
 1793DDP     P210755   8.124  29.277  23.432 -0.0215  0.0409 -0.3199
 1793DDP     C210756   8.366  29.343  23.686 -0.4833 -0.2360 -0.2350
 1793DDP     C310757   7.734  29.223  22.226 -0.2339  0.1701  0.2702
 1793DDP     C410758   8.278  28.876  22.775  0.2976  0.1144 -0.1899
 1794DDP     C110759   8.640  25.358   5.846  0.1740 -0.0965  0.2459
 1794DDP     P110760   8.473  25.118   5.498  0.0027  0.1362  0.1029
 1794DDP     P210761   8.404  25.692   5.826  0.1359  0.0030  0.2373
 1794DDP     C210762   7.991  25.657   6.052 -0.2198 -0.0022 -0.1783
 1794DDP     C310763   8.674  24.792   5.278  0.4138 -0.1683 -0.0245
 1794DDP     C410764   8.875  25.139   6.244 -0.0356  0.2689 -0.2548
 1795DDP     C110765  19.278   2.465  11.149 -0.1427 -0.0306  0.1298
 1795DDP     P110766  18.975   2.590  11.018  0.1578  0.0084  0.0468
 1795DDP     P210767  19.670   2.775  11.070 -0.2894  0.3473 -0.2613
 1795DDP     C210768  20.085   2.550  11.161  0.0520 -0.1476  0.0221
 1795DDP     C310769  18.657   2.811  11.170 -0.0342 -0.0396  0.1989
 1795DDP     C410770  19.262   2.175  11.529 -0.5850  0.1104 -0.0645
 1796DDP     C110771   8.201  29.593  24.535  0.1314 -0.1919  0.1276
 1796DDP     P110772   8.555  29.850  24.497  0.0619 -0.0553 -0.0863
 1796DDP     P210773   8.283  29.366  24.131 -0.0113  0.3155  0.1766
 1796DDP     C210774   7.971  29.154  23.887 -0.0259 -0.0595  0.1899
 1796DDP     C310775   8.977  29.983  24.426  0.0940  0.3812  0.1953
 1796DDP     C410776   7.922  29.504  24.893  0.0576  0.0654 -0.0401
 1797DDP     C110777  10.903  10.634  24.503  0.0175  0.0449  0.0212
 1797DDP     P110778  10.620  10.439  24.780 -0.1539  0.2656 -0.0974
 1797DDP     P210779  10.644  10.988  24.411 -0.1964  0.2623  0.2010
 1797DDP     C210780  10.236  11.180  24.449  0.0634  0.0389  0.0047
 1797DDP     C310781  10.282  10.143  24.827 -0.1806 -0.1359  0.2775
 1797DDP     C410782  11.251  10.362  24.446  0.0544 -0.1447 -0.1334
 1798DDP     C110783   3.418  28.761  16.015 -0.2398  0.0579 -0.3452
 1798DDP     P110784   3.537  28.847  16.383 -0.3791  0.1052 -0.0424
 1798DDP     P210785   3.067  28.465  15.933 -0.1473  0.0520  0.0313
 1798DDP     C210786   2.723  28.203  15.862 -0.0460  0.0056  0.1968
 1798DDP     C310787   3.572  28.707  16.804  0.1006  0.2813  0.0335
 1798DDP     C410788   3.641  28.974  15.698  0.0646  0.0835 -0.0586
 1799DDP     C110789  28.690   5.456  24.832  0.1068 -0.0641  0.3584
 1799DDP     P110790  28.339   5.531  25.008  0.0640 -0.4251 -0.4594
 1799DDP     P210791  28.785   5.763  24.371  0.1238 -0.1617  0.1273
 1799DDP     C210792  29.231   5.953  24.335 -0.1606  0.1191 -0.0481
 1799DDP     C310793  27.905   5.274  25.185 -0.0873  0.2754  0.0467
 1799DDP     C410794  29.138   5.205  24.891  0.0823 -0.2169  0.2272
 1800DDP     C110795   2.004   5.501   6.781  0.2439  0.0286  0.0903
 1800DDP     P110796   2.079   5.439   7.197  0.2057 -0.0352 -0.1445
 1800DDP     P210797   1.550   5.512   6.584  0.1253  0.1249  0.1449
 1800DDP     C210798   1.342   5.178   6.409  0.1890 -0.0118 -0.1377
 1800DDP     C310799   2.042   5.588   7.591 -0.1143  0.1374 -0.0870
 1800DDP     C410800   2.267   5.644   6.425 -0.1102  0.0800 -0.0532
 1801DDP     C110801  18.207   6.469   4.879  0.0291  0.0042  0.0319
 1801DDP     P110802  18.276   6.907   5.103 -0.0199  0.0306  0.0711
 1801DDP     P210803  18.263   6.011   5.021 -0.3371 -0.0624  0.0414
 1801DDP     C210804  18.150   5.678   5.285  0.1624  0.1445  0.0971
 1801DDP     C310805  18.516   7.133   5.307  0.0304 -0.1193 -0.0426
 1801DDP     C410806  17.899   6.545   4.601 -0.1888 -0.0139  0.0195
 1802DDP     C110807  24.600  27.193  10.703 -0.2805  0.0344  0.0115
 1802DDP     P110808  24.467  27.549  11.027 -0.1707 -0.2998  0.0109
 1802DDP     P210809  24.320  26.872  10.685 -0.0314  0.0792 -0.2568
 1802DDP     C210810  24.044  26.618  10.419  0.1844 -0.1548 -0.1645
 1802DDP     C310811  24.383  27.954  11.108  0.1501 -0.0510  0.1747
 1802DDP     C410812  25.001  27.177  10.471  0.0470  0.1509  0.2397
 1803DDP     C110813  21.268   1.741  11.795  0.0911 -0.1002 -0.2117
 1803DDP     P110814  21.281   2.165  11.695  0.1625 -0.1071  0.3628
 1803DDP     P210815  20.841   1.704  11.838 -0.0503 -0.1305  0.2627
 1803DDP     C210816  20.572   2.029  11.933 -0.1750 -0.0234 -0.0746
 1803DDP     C310817  21.426   2.448  11.888  0.2805 -0.1391 -0.1776
 1803DDP     C410818  21.430   1.327  11.998  0.1906 -0.0123 -0.1553
 1804DDP     C110819  30.265  23.840  27.076 -0.1222 -0.0213 -0.4124
 1804DDP     P110820  29.905  23.805  27.030  0.4329  0.0003  0.1648
 1804DDP     P210821   0.133  23.453  27.328  0.0126 -0.0056  0.2726
 1804DDP     C210822   0.537  23.272  27.376 -0.1304 -0.3011 -0.2048
 1804DDP     C310823  29.515  23.633  26.783 -0.1397 -0.0655  0.0542
 1804DDP     C410824   0.299  24.172  26.900 -0.1718  0.0317  0.0308
 1805DDP     C110825  26.562   9.076  18.655 -0.1165  0.0511 -0.1303
 1805DDP     P110826  26.845   9.251  18.415 -0.2171  0.0805 -0.0452
 1805DDP     P210827  26.107   9.273  18.750  0.0437  0.1145  0.0681
 1805DDP     C210828  25.953   9.506  19.103  0.0466 -0.1919  0.3225
 1805DDP     C310829  27.158   9.237  18.134 -0.0913 -0.0829 -0.4162
 1805DDP     C410830  26.776   8.651  18.475 -0.0528 -0.1445 -0.1023
 1806DDP     C110831  20.316  11.205  15.536  0.0592  0.0435 -0.0384
 1806DDP     P110832  20.489  10.852  15.428  0.1308  0.1082 -0.4192
 1806DDP     P210833  20.294  11.492  15.237 -0.0314  0.0291 -0.2754
 1806DDP     C210834  19.985  11.771  15.244 -0.0348 -0.0116 -0.0540
 1806DDP     C310835  20.522  10.435  15.546 -0.0159  0.1783 -0.1863
 1806DDP     C410836  20.391  11.261  15.964 -0.1844 -0.0907  0.1690
 1807DDP     C110837  14.147  15.753  15.356  0.0091 -0.3066  0.1151
 1807DDP     P110838  14.322  15.908  15.707  0.3585 -0.1732  0.2793
 1807DDP     P210839  14.066  15.964  15.120  0.1054  0.1101  0.0914
 1807DDP     C210840  14.025  15.971  14.672  0.3405  0.1967  0.1882
 1807DDP     C310841  14.285  16.072  16.098  0.2246 -0.2090  0.1047
 1807DDP     C410842  14.193  15.430  15.069 -0.0943  0.0063 -0.0224
 1808DDP     C110843  15.938  27.987   8.181  0.0363  0.1642 -0.0353
 1808DDP     P110844  15.910  28.038   8.617 -0.0808  0.2714 -0.0066
 1808DDP     P210845  15.630  27.689   8.085 -0.0904  0.1256 -0.2907
 1808DDP     C210846  15.412  27.451   7.775  0.1507  0.1764 -0.0501
 1808DDP     C310847  16.222  28.013   8.953  0.1584 -0.0012  0.1958
 1808DDP     C410848  15.913  28.170   7.804  0.1249 -0.0256  0.0225
 1809DDP     C110849  23.436  22.044  21.271 -0.1089  0.0269  0.0851
 1809DDP     P110850  23.214  22.147  20.998  0.2804  0.1000 -0.0169
 1809DDP     P210851  23.408  21.956  21.695 -0.0070  0.1753  0.2715
 1809DDP     C210852  23.708  21.773  21.967  0.1136 -0.2575 -0.1390
 1809DDP     C310853  23.076  22.435  20.739 -0.0659 -0.0253 -0.0361
 1809DDP     C410854  23.817  22.102  21.031  0.0983 -0.2080  0.0819
 1810DDP     C110855  30.161  25.428  26.981  0.1199 -0.1478  0.2082
 1810DDP     P110856  29.656  25.546  26.955  0.1128  0.1446 -0.1743
 1810DDP     P210857  30.219  24.901  27.216  0.0079 -0.1616 -0.1458
 1810DDP     C210858  30.079  24.728  27.656 -0.0345  0.0924  0.2744
 1810DDP     C310859  29.329  25.795  27.018  0.1556  0.0527  0.3088
 1810DDP     C410860   0.085  25.733  27.341 -0.0294 -0.1220  0.0494
 1811DDP     C110861  29.317  12.838  27.708  0.1596  0.3948  0.1081
 1811DDP     P110862  29.218  12.907  27.233 -0.2553  0.0266 -0.0748
 1811DDP     P210863  29.647  12.977  27.921 -0.2254 -0.2260 -0.1987
 1811DDP     C210864  30.069  13.224  28.005  0.1362 -0.1423 -0.0510
 1811DDP     C310865  28.852  12.698  26.999 -0.0542 -0.2802  0.0363
 1811DDP     C410866  28.903  12.716  27.980 -0.0308  0.2922 -0.0695
 1812DDP     C110867   1.986   6.524  10.789  0.0555  0.1126 -0.2140
 1812DDP     P110868   2.033   6.149  11.092  0.0165 -0.0497  0.0731
 1812DDP     P210869   2.214   6.852  10.928 -0.0560  0.0659 -0.1972
 1812DDP     C210870   2.604   7.068  10.807  0.0741  0.0150  0.0771
 1812DDP     C310871   2.142   5.940  11.456 -0.0705  0.2401 -0.0356
 1812DDP     C410872   1.658   6.426  10.443 -0.1458  0.2436 -0.0441
 1813DDP     C110873  10.514  15.777  24.480  0.2760 -0.1486 -0.3234
 1813DDP     P110874  10.611  15.996  24.914  0.0935 -0.1181 -0.1688
 1813DDP     P210875  10.775  16.147  24.265 -0.0314  0.0435  0.2486
 1813DDP     C210876  11.011  16.605  24.317 -0.0367 -0.1383  0.1858
 1813DDP     C310877  10.840  15.985  25.351 -0.2690 -0.4514 -0.0346
 1813DDP     C410878  10.171  15.556  24.453 -0.1299  0.0871  0.0976
 1814DDP     C110879  17.535   4.468  13.508  0.0674  0.5336 -0.2069
 1814DDP     P110880  17.740   4.772  13.800  0.0264 -0.2447 -0.1559
 1814DDP     P210881  17.534   4.141  13.810 -0.3707  0.3507 -0.0733
 1814DDP     C210882  17.509   3.687  14.099  0.0795 -0.0646  0.2204
 1814DDP     C310883  18.151   4.739  13.847  0.1415 -0.5724 -0.2742
 1814DDP     C410884  17.450   4.590  13.068 -0.1691  0.2278 -0.1697
 1815DDP     C110885  27.487  24.029   8.839  0.2660  0.1591 -0.1432
 1815DDP     P110886  26.996  24.179   8.773  0.0259 -0.0349 -0.1902
 1815DDP     P210887  27.505  23.641   8.707 -0.0048 -0.0017 -0.0917
 1815DDP     C210888  27.816  23.318   8.862  0.4945 -0.0617  0.2462
 1815DDP     C310889  26.828  24.444   9.054 -0.4832 -0.0166 -0.3674
 1815DDP     C410890  27.857  24.314   8.846 -0.0193 -0.1406 -0.1531
 1816DDP     C110891  15.121  23.113  11.872 -0.0638 -0.1794 -0.2733
 1816DDP     P110892  15.076  23.453  11.686 -0.4546 -0.2411  0.0632
 1816DDP     P210893  15.355  22.991  12.229  0.4090 -0.4490  0.1356
 1816DDP     C210894  15.703  22.814  12.312 -0.1869  0.1427 -0.3843
 1816DDP     C310895  15.074  23.885  11.730  0.2275  0.2664  0.2307
 1816DDP     C410896  15.025  22.680  11.754 -0.0700  0.2517 -0.0158
 1817DDP     C110897  15.219  25.024  16.239 -0.0288  0.2105 -0.0126
 1817DDP     P110898  14.966  25.219  15.896 -0.4444  0.0121  0.2436
 1817DDP     P210899  15.355  24.599  16.293 -0.0990 -0.0296 -0.0560
 1817DDP     C210900  15.343  24.153  16.001  0.1954 -0.2144  0.0888
 1817DDP     C310901  14.692  25.338  15.606 -0.0930  0.0707  0.1354
 1817DDP     C410902  15.273  25.268  16.668 -0.1733 -0.2565 -0.0498
 1818DDP     C110903  26.724   5.129   9.611 -0.0332  0.2331 -0.0310
 1818DDP     P110904  27.072   4.959   9.738 -0.0194  0.1023 -0.0132
 1818DDP     P210905  26.531   4.791   9.352 -0.2186 -0.2588 -0.0991
 1818DDP     C210906  26.482   4.371   9.092  0.2604 -0.0518 -0.2369
 1818DDP     C310907  27.234   4.655   9.961 -0.3346  0.0707  0.0071
 1818DDP     C410908  26.555   5.502   9.637 -0.4416 -0.0846 -0.0250
 1819DDP     C110909   4.413   4.817  28.330  0.0263  0.0258  0.0675
 1819DDP     P110910   4.266   4.576  27.931  0.0514  0.4117  0.0160
 1819DDP     P210911   4.808   4.927  28.467  0.0443  0.0935  0.1418
 1819DDP     C210912   4.911   5.239  28.575 -0.1816  0.3857  0.0321
 1819DDP     C310913   3.826   4.376  27.941  0.0221  0.0008 -0.0782
 1819DDP     C410914   4.199   4.840  28.564  0.1353  0.0030  0.0632
 1820DDP     C110915  11.763  27.442  24.060  0.1504 -0.0730 -0.0106
 1820DDP     P110916  11.933  27.566  24.351  0.0041  0.1018 -0.1451
 1820DDP     P210917  11.369  27.318  23.932  0.3070  0.0990 -0.0208
 1820DDP     C210918  10.968  27.459  23.698 -0.0132  0.1605  0.1027
 1820DDP     C310919  12.167  27.780  24.576 -0.2629 -0.0304 -0.1047
 1820DDP     C410920  11.967  27.011  23.793  0.0440  0.1712 -0.0487
 1821DDP     C110921   2.789  15.875   1.900 -0.1840 -0.2068  0.0937
 1821DDP     P110922   3.037  15.882   1.520 -0.1745  0.3274  0.0098
 1821DDP     P210923   3.064  15.897   2.287 -0.0993 -0.2856  0.0156
 1821DDP     C210924   3.428  15.929   2.529 -0.0919  0.2610 -0.1235
 1821DDP     C310925   3.199  16.097   1.152 -0.0630 -0.0266  0.1966
 1821DDP     C410926   2.316  15.792   1.801 -0.3096 -0.0496 -0.3521
 1822DDP     C110927  24.713   9.014  14.624  0.3432 -0.0721 -0.1105
 1822DDP     P110928  24.529   8.668  14.903  0.1036 -0.1067  0.3544
 1822DDP     P210929  25.110   9.109  14.563  0.1476  0.2368 -0.0911
 1822DDP     C210930  25.358   9.480  14.403  0.4251  0.1315 -0.1365
 1822DDP     C310931  24.634   8.218  15.000  0.1432 -0.1641 -0.0503
 1822DDP     C410932  24.471   9.013  14.248  0.1374  0.1720  0.0334
 1823DDP     C110933   0.693   4.738   0.227  0.1406 -0.0777  0.2992
 1823DDP     P110934   0.736   4.744  30.138 -0.1026  0.1098 -0.0435
 1823DDP     P210935   0.397   4.511   0.521 -0.1645 -0.0061 -0.4712
 1823DDP     C210936   0.218   4.625   0.854  0.1714 -0.2140 -0.1440
 1823DDP     C310937   1.142   4.854  29.796 -0.0109  0.2850  0.1071
 1823DDP     C410938   0.816   4.841   0.572 -0.1476  0.3107  0.3243
 1824DDP     C110939   9.734   3.219   4.568 -0.0722  0.0425 -0.0023
 1824DDP     P110940  10.034   3.512   4.657 -0.2369  0.0613 -0.1685
 1824DDP     P210941   9.499   3.154   4.142  0.0487  0.1928  0.2595
 1824DDP     C210942   9.467   2.912   3.819  0.3613  0.1568 -0.5713
 1824DDP     C310943  10.064   3.755   4.985  0.0130 -0.0693  0.1244
 1824DDP     C410944   9.506   3.161   4.894  0.0542  0.1562 -0.1729
 1825DDP     C110945  30.238   5.779   0.191  0.1027 -0.1368  0.1605
 1825DDP     P110946   0.239   6.154   0.235 -0.0289  0.1996 -0.2129
 1825DDP     P210947  30.193   5.444   0.481  0.3204 -0.2407 -0.0753
 1825DDP     C210948   0.088   5.090   0.697  0.0106 -0.0641  0.0686
 1825DDP     C310949   0.625   6.217   0.203  0.0035  0.3237 -0.1351
 1825DDP     C410950  29.928   5.766  30.174 -0.1063 -0.1240  0.1117
 1826DDP     C110951   2.582   7.136  28.407 -0.2495 -0.0384 -0.1211
 1826DDP     P110952   3.008   7.063  28.474  0.1455 -0.0463 -0.2563
 1826DDP     P210953   2.313   7.169  28.741 -0.1592  0.2023 -0.2092
 1826DDP     C210954   2.295   7.454  29.144 -0.2223  0.0464 -0.0133
 1826DDP     C310955   3.178   6.688  28.591  0.2800  0.0708 -0.1518
 1826DDP     C410956   2.377   7.327  28.101 -0.2480 -0.1238 -0.2986
 1827DDP     C110957  12.468   0.655   8.972  0.0088 -0.1914 -0.0737
 1827DDP     P110958  12.477   0.384   8.676  0.0591 -0.0005 -0.0691
 1827DDP     P210959  12.156   0.956   8.779 -0.1952 -0.0184 -0.0987
 1827DDP     C210960  12.289   1.154   8.426 -0.1857  0.0193 -0.0014
 1827DDP     C310961  12.423   0.411   8.289  0.2504  0.0276 -0.2197
 1827DDP     C410962  12.522   0.565   9.366 -0.3115  0.2252 -0.0088
 1828DDP     C110963   1.708  16.517   1.150 -0.0941  0.0064  0.0842
 1828DDP     P110964   1.745  17.010   1.165  0.0077 -0.2451  0.0598
 1828DDP     P210965   1.417  16.557   1.433  0.0012  0.0562 -0.1129
 1828DDP     C210966   1.169  16.418   1.700  0.4077 -0.1599 -0.0755
 1828DDP     C310967   2.073  17.355   1.043  0.0601  0.0801  0.1493
 1828DDP     C410968   1.737  16.166   0.876  0.1067 -0.0585 -0.3014
 1829DDP     C110969  22.244  25.676  17.003 -0.0632 -0.2138  0.2671
 1829DDP     P110970  22.661  25.810  17.083 -0.2158  0.2340 -0.0216
 1829DDP     P210971  21.969  25.646  17.358 -0.2214  0.0570 -0.0298
 1829DDP     C210972  21.538  25.427  17.353  0.0721  0.3791 -0.1447
 1829DDP     C310973  22.796  25.950  17.486  0.1529  0.6343  0.2153
 1829DDP     C410974  22.008  25.516  16.603 -0.0147 -0.0494 -0.1829
 1830DDP     C110975  14.905  16.943  20.210  0.0402 -0.1887  0.2647
 1830DDP     P110976  15.316  16.919  19.899  0.0028  0.3850  0.2116
 1830DDP     P210977  14.530  17.238  20.049  0.1848 -0.0830  0.0716
 1830DDP     C210978  14.549  17.611  20.239 -0.1234 -0.1415 -0.0062
 1830DDP     C310979  15.666  16.701  19.795 -0.2689  0.0693  0.3090
 1830DDP     C410980  14.886  16.552  20.518  0.1747 -0.2484 -0.0924
 1831DDP     C110981   2.926   7.254  13.139  0.3905  0.0789  0.2283
 1831DDP     P110982   2.680   6.880  13.379 -0.0291  0.1808 -0.0034
 1831DDP     P210983   3.263   7.034  12.849 -0.2760  0.2437 -0.0328
 1831DDP     C210984   3.481   6.806  12.572  0.2004 -0.0839 -0.0428
 1831DDP     C310985   2.786   6.527  13.761  0.0490 -0.1522  0.0297
 1831DDP     C410986   2.776   7.608  13.011 -0.1416 -0.0790 -0.2696
 1832DDP     C110987  21.333  15.113  28.275 -0.2079  0.0855  0.1255
 1832DDP     P110988  21.182  14.734  28.019  0.1058 -0.1295 -0.0797
 1832DDP     P210989  21.794  15.158  28.434  0.2108 -0.0808  0.4013
 1832DDP     C210990  22.094  15.291  28.598 -0.1537 -0.1064 -0.1786
 1832DDP     C310991  21.017  14.694  27.540 -0.1990  0.1034 -0.0680
 1832DDP     C410992  21.396  15.526  28.134  0.1333  0.0682 -0.0750
 1833DDP     C110993  23.086  17.244  21.370 -0.2851  0.0545 -0.0132
 1833DDP     P110994  23.278  16.978  21.579  0.4538  0.0968 -0.2716
 1833DDP     P210995  22.619  17.159  21.451  0.2487  0.1885  0.1930
 1833DDP     C210996  22.173  17.008  21.281 -0.0386  0.1477 -0.3789
 1833DDP     C310997  23.551  16.919  21.977 -0.1686  0.0676  0.1147
 1833DDP     C410998  23.269  17.730  21.326  0.1709  0.2047  0.2629
 1834DDP     C110999  12.845  29.978  14.445  0.1701  0.0300 -0.0409
 1834DDP     P111000  13.208  29.613  14.322  0.1018 -0.0732 -0.0704
 1834DDP     P211001  13.009   0.120  14.259 -0.1259  0.1504 -0.2345
 1834DDP     C211002  13.157   0.375  14.464  0.2346  0.0100  0.3018
 1834DDP     C311003  13.409  29.125  14.254 -0.2509  0.1853 -0.2589
 1834DDP     C411004  12.402  29.837  14.412  0.0452 -0.0793 -0.1434
 1835DDP     C111005  19.192   9.517  25.478  0.0917  0.2454  0.0214
 1835DDP     P111006  18.811   9.517  25.380 -0.0769  0.1253  0.0597
 1835DDP     P211007  19.254   9.110  25.352 -0.0202  0.0889  0.1507
 1835DDP     C211008  19.318   9.094  24.858  0.3158 -0.0101  0.3814
 1835DDP     C311009  18.468   9.809  25.144 -0.1613 -0.3313 -0.1550
 1835DDP     C411010  19.423   9.830  25.773 -0.1771  0.0266 -0.1051
 1836DDP     C111011  10.895   8.032  25.993  0.0922  0.0894  0.2259
 1836DDP     P111012  11.039   7.721  26.158  0.3502  0.3121 -0.0270
 1836DDP     P211013  10.433   8.190  25.889 -0.2522  0.2844 -0.0360
 1836DDP     C211014  10.095   8.110  26.190  0.0107 -0.1986  0.0568
 1836DDP     C311015  11.396   7.438  26.027 -0.1312 -0.1043  0.2074
 1836DDP     C411016  11.176   8.469  25.920  0.0489  0.6177 -0.0215
 1837DDP     C111017  14.638  16.323  21.262 -0.1180 -0.3177  0.1522
 1837DDP     P111018  14.342  16.644  21.374  0.0904  0.0894 -0.2120
 1837DDP     P211019  14.907  16.155  20.967 -0.1078 -0.2736 -0.1326
 1837DDP     C211020  14.867  15.662  20.825  0.3942  0.2695 -0.2945
 1837DDP     C311021  14.401  17.073  21.208  0.2217 -0.1619 -0.1078
 1837DDP     C411022  14.372  16.016  21.541 -0.0657 -0.2908  0.0492
 1838DDP     C111023  27.746   7.568  25.320  0.1540 -0.0918 -0.2061
 1838DDP     P111024  27.789   7.887  25.173  0.1246  0.4363 -0.1139
 1838DDP     P211025  28.038   7.248  25.149 -0.0252  0.1855 -0.1342
 1838DDP     C211026  28.417   7.274  24.950 -0.1059  0.0973  0.3195
 1838DDP     C311027  28.064   8.180  25.293  0.0468 -0.0842  0.0953
 1838DDP     C411028  27.460   7.257  25.582 -0.0376  0.1540  0.1861
 1839DDP     C111029  28.928   9.806  26.736 -0.0513 -0.1151  0.0808
 1839DDP     P111030  29.034  10.278  26.590 -0.1004 -0.3611 -0.1045
 1839DDP     P211031  28.879   9.830  27.180  0.3863  0.1478  0.0541
 1839DDP     C211032  28.732   9.974  27.641  0.1062  0.1945  0.0814
 1839DDP     C311033  28.912  10.726  26.464 -0.0329 -0.2389  0.0830
 1839DDP     C411034  28.807   9.632  26.399  0.1772  0.1100 -0.1518
 1840DDP     C111035  19.950  18.527  16.550  0.1735 -0.2437 -0.1911
 1840DDP     P111036  19.991  18.534  16.124 -0.0189 -0.1417  0.0790
 1840DDP     P211037  20.217  18.532  16.931  0.0643 -0.0478 -0.0948
 1840DDP     C211038  20.160  18.392  17.336  0.0523 -0.1894 -0.0148
 1840DDP     C311039  19.908  18.733  15.863  0.3596  0.1834  0.1087
 1840DDP     C411040  19.549  18.570  16.757  0.1498 -0.0956 -0.0999
 1841DDP     C111041  18.907   8.868   2.979 -0.1558  0.0915 -0.1360
 1841DDP     P111042  18.753   9.154   3.236  0.0800  0.1140 -0.0779
 1841DDP     P211043  19.368   8.826   2.980 -0.0195 -0.0237  0.3455
 1841DDP     C211044  19.654   8.480   2.731  0.1917 -0.0832 -0.0876
 1841DDP     C311045  18.499   9.359   3.514 -0.0172 -0.0423 -0.0191
 1841DDP     C411046  18.500   8.658   2.705 -0.2272  0.0586  0.2308
 1842DDP     C111047  12.397   6.950   0.359 -0.1277 -0.2027 -0.0154
 1842DDP     P111048  12.041   7.247   0.493 -0.0768 -0.0677 -0.1805
 1842DDP     P211049  12.477   6.843  30.251 -0.3155  0.3746 -0.1682
 1842DDP     C211050  12.867   6.907  30.146  0.0822  0.3199  0.0787
 1842DDP     C311051  11.739   7.370   0.198 -0.0931  0.0782 -0.0769
 1842DDP     C411052  12.559   6.748   0.710  0.2408 -0.0311 -0.4119
 1843DDP     C111053  13.546  21.656   7.864 -0.2208  0.0642 -0.1365
 1843DDP     P111054  13.924  21.618   8.085  0.0746  0.0811  0.1082
 1843DDP     P211055  13.516  21.979   7.471  0.0666  0.0700 -0.0288
 1843DDP     C211056  13.658  22.141   7.126  0.0965  0.1944 -0.1262
 1843DDP     C311057  14.171  21.783   8.508  0.0010 -0.0489 -0.0162
 1843DDP     C411058  13.226  21.266   8.046  0.0382  0.0061 -0.0429
 1844DDP     C111059  21.234  16.369  16.710  0.0226 -0.3297 -0.2122
 1844DDP     P111060  20.980  16.001  16.867  0.1841  0.3072 -0.1919
 1844DDP     P211061  21.129  16.483  16.297  0.0598  0.0372  0.1352
 1844DDP     C211062  21.393  16.738  15.971  0.2304  0.2859  0.4041
 1844DDP     C311063  20.912  15.886  17.271 -0.1194  0.2065 -0.1444
 1844DDP     C411064  21.208  16.657  16.956  0.2333  0.4376  0.2021
 1845DDP     C111065   6.338  21.147  14.132 -0.0290  0.1909 -0.2351
 1845DDP     P111066   6.552  21.309  13.862 -0.2166 -0.1564 -0.0488
 1845DDP     P211067   6.519  20.759  14.155 -0.0144  0.1179  0.1444
 1845DDP     C211068   6.452  20.393  14.292 -0.1684 -0.0865  0.1186
 1845DDP     C311069   6.748  21.727  13.898  0.0145 -0.2877  0.0637
 1845DDP     C411070   5.984  21.338  14.468  0.0678 -0.0649  0.2255
 1846DDP     C111071  15.687   4.840   2.361 -0.2965  0.1720  0.0512
 1846DDP     P111072  16.061   4.665   2.220  0.3559  0.1142 -0.0637
 1846DDP     P211073  15.431   4.544   2.432  0.0904  0.1747 -0.2473
 1846DDP     C211074  15.012   4.307   2.497  0.0021  0.0926  0.0952
 1846DDP     C311075  16.312   4.326   2.275 -0.2290  0.0581 -0.1750
 1846DDP     C411076  15.737   5.307   2.382  0.2000  0.3205  0.2054
 1847DDP     C111077   7.771  20.904  27.149 -0.3678  0.1363 -0.0197
 1847DDP     P111078   7.646  20.649  27.568 -0.0912 -0.0125 -0.4027
 1847DDP     P211079   7.878  20.593  26.872 -0.1141  0.1194 -0.1983
 1847DDP     C211080   7.823  20.653  26.447 -0.0234 -0.0828 -0.2755
 1847DDP     C311081   7.405  20.278  27.693  0.2435  0.0074  0.2827
 1847DDP     C411082   7.682  21.304  27.053  0.1592  0.0132  0.1611
 1848DDP     C111083  16.373  16.968   1.137 -0.1084 -0.1500 -0.2202
 1848DDP     P111084  16.480  16.528   1.159 -0.3591  0.1338 -0.3192
 1848DDP     P211085  16.172  17.202   0.787  0.0914 -0.1961 -0.0353
 1848DDP     C211086  16.060  17.434   0.367  0.1404  0.0585 -0.2352
 1848DDP     C311087  16.809  16.447   0.713  0.1869  0.2221  0.0633
 1848DDP     C411088  16.249  17.133   1.560  0.0882 -0.0166 -0.2367
 1849DDP     C111089  18.113  10.101  19.043 -0.1729 -0.0333 -0.4365
 1849DDP     P111090  18.416   9.907  19.233 -0.1751  0.0936  0.2507
 1849DDP     P211091  17.720  10.339  19.229 -0.3692 -0.1710 -0.1239
 1849DDP     C211092  17.484  10.504  19.568 -0.1012 -0.2326  0.1734
 1849DDP     C311093  18.459   9.789  19.699  0.0656 -0.0666 -0.0934
 1849DDP     C411094  18.215   9.926  18.643  0.1909  0.2985 -0.1423
 1850DDP     C111095   8.611   1.680  17.961 -0.3497 -0.3175 -0.3917
 1850DDP     P111096   8.315   2.017  17.988  0.0995 -0.0436 -0.3300
 1850DDP     P211097   8.945   1.378  17.720  0.3619  0.2175 -0.2892
 1850DDP     C211098   9.271   1.033  17.879 -0.3481  0.0131 -0.0558
 1850DDP     C311099   7.907   2.002  18.028  0.0850 -0.2088  0.1516
 1850DDP     C411100   8.651   1.546  18.452  0.0490 -0.0514 -0.0504
 1851DDP     C111101  14.347  10.596  16.357 -0.0807  0.1696 -0.1038
 1851DDP     P111102  14.180  10.390  16.246 -0.0123 -0.2118 -0.3052
 1851DDP     P211103  14.294  11.048  16.292 -0.0215 -0.2575  0.1610
 1851DDP     C211104  14.066  11.524  16.334 -0.5925  0.0919  0.3042
 1851DDP     C311105  14.204   9.885  16.076  0.1532 -0.1088  0.1295
 1851DDP     C411106  14.680  10.389  16.609 -0.1721  0.1816  0.1414
 1852DDP     C111107  10.581  23.517  21.381  0.0920 -0.0084  0.1850
 1852DDP     P111108  10.244  23.559  21.541 -0.1512 -0.2470  0.0166
 1852DDP     P211109  11.032  23.319  21.142  0.2268  0.2401  0.1294
 1852DDP     C211110  11.376  23.257  20.911  0.1192  0.0380 -0.1718
 1852DDP     C311111   9.931  23.783  21.430  0.1814  0.1528 -0.0330
 1852DDP     C411112  10.605  23.875  21.168  0.2128 -0.1924 -0.2310
 1853DDP     C111113  29.157   2.366   9.206 -0.2065  0.2476  0.0279
 1853DDP     P111114  29.023   2.092   8.858  0.2978  0.0149  0.2298
 1853DDP     P211115  28.882   2.623   9.274  0.1848 -0.0141  0.3071
 1853DDP     C211116  28.448   2.715   9.374  0.0880 -0.1325 -0.1226
 1853DDP     C311117  29.090   1.854   8.418  0.1007  0.2337  0.1703
 1853DDP     C411118  29.451   2.306   9.440  0.1118  0.1330  0.2565
 1854DDP     C111119  25.001   4.907   6.512 -0.0130 -0.1244  0.1259
 1854DDP     P111120  25.016   5.353   6.792  0.2745 -0.0708  0.3270
 1854DDP     P211121  24.634   4.612   6.630 -0.3938  0.0505  0.0277
 1854DDP     C211122  24.169   4.548   6.706 -0.0280  0.0803  0.2635
 1854DDP     C311123  25.199   5.582   6.965 -0.0132  0.1762 -0.1267
 1854DDP     C411124  25.301   4.589   6.341 -0.2811  0.1001  0.0763
 1855DDP     C111125   5.030  16.312  15.851  0.1650  0.0848 -0.0877
 1855DDP     P111126   4.681  16.128  15.904 -0.0702  0.1202 -0.0391
 1855DDP     P211127   5.044  16.738  16.010 -0.1547 -0.1738 -0.0881
 1855DDP     C211128   5.004  17.096  16.131  0.1306  0.2514  0.3920
 1855DDP     C311129   4.262  16.287  15.864  0.0832 -0.0454 -0.0123
 1855DDP     C411130   5.475  16.175  15.844  0.1198 -0.0134 -0.3791
 1856DDP     C111131   7.880  29.876   0.463  0.0096  0.1941 -0.0282
 1856DDP     P111132   7.729  29.581   0.713 -0.2257 -0.0952 -0.0968
 1856DDP     P211133   7.848  30.269   0.462 -0.1380 -0.1461 -0.1036
 1856DDP     C211134   8.083   0.280   0.564  0.1595  0.0012  0.0302
 1856DDP     C311135   7.753  29.189   0.809 -0.0395  0.3065  0.1173
 1856DDP     C411136   8.053  29.481   0.186 -0.4985  0.0529 -0.0216
 1857DDP     C111137  16.129  18.918   7.239 -0.1312 -0.2818  0.1135
 1857DDP     P111138  15.773  19.036   7.146  0.0347  0.4015 -0.2123
 1857DDP     P211139  16.375  18.997   6.877 -0.1036  0.0472  0.0698
 1857DDP     C211140  16.806  18.953   6.691  0.3093  0.1146  0.0452
 1857DDP     C311141  15.721  19.392   6.891  0.3658 -0.1351  0.0815
 1857DDP     C411142  16.395  18.549   7.395  0.0986  0.1569  0.1898
 1858DDP     C111143  30.168  12.960  25.868 -0.0001  0.1564 -0.0065
 1858DDP     P111144   0.258  12.978  26.001  0.2732  0.0373 -0.0317
 1858DDP     P211145  30.017  13.235  25.562  0.0391 -0.4794 -0.3595
 1858DDP     C211146  29.999  13.649  25.691  0.0558  0.0375  0.0854
 1858DDP     C311147   0.646  13.026  25.944 -0.0198 -0.1807  0.0582
 1858DDP     C411148  29.798  12.798  26.123  0.0818  0.0528 -0.4469
 1859DDP     C111149  29.385   6.153   8.862 -0.0966 -0.3474  0.0485
 1859DDP     P111150  29.720   6.006   8.582 -0.1519  0.2302  0.0058
 1859DDP     P211151  29.276   5.760   8.951  0.2272 -0.0667 -0.0423
 1859DDP     C211152  29.149   5.282   8.929  0.0705 -0.0825 -0.0647
 1859DDP     C311153  29.728   5.684   8.208 -0.2355 -0.0760 -0.4222
 1859DDP     C411154  29.002   6.365   8.635 -0.1157  0.1421  0.3256
 1860DDP     C111155  21.906  16.442   2.611  0.1032 -0.0603 -0.1932
 1860DDP     P111156  21.952  16.902   2.325  0.0365  0.1572 -0.1127
 1860DDP     P211157  21.514  16.358   2.822  0.0368 -0.0114  0.0997
 1860DDP     C211158  21.366  16.154   3.249 -0.2127 -0.3505  0.0498
 1860DDP     C311159  22.118  17.253   2.247  0.0432 -0.0355  0.1749
 1860DDP     C411160  22.181  16.054   2.703 -0.0739  0.1464 -0.0622
 1861DDP     C111161  12.868  14.561  15.794 -0.1734  0.0198  0.1447
 1861DDP     P111162  12.460  14.474  15.563  0.1450 -0.2319  0.1803
 1861DDP     P211163  12.998  14.963  16.122  0.0477 -0.0248  0.0900
 1861DDP     C211164  13.089  14.939  16.526 -0.2186 -0.0047 -0.2357
 1861DDP     C311165  12.069  14.439  15.373  0.0501  0.0733 -0.1184
 1861DDP     C411166  13.324  14.336  15.609  0.0123 -0.0772  0.0326
 1862DDP     C111167  12.984   9.807   5.256 -0.0364  0.0742  0.3114
 1862DDP     P111168  13.198  10.126   5.229 -0.1181  0.0742  0.1059
 1862DDP     P211169  12.693   9.823   4.921  0.1648  0.3412  0.0266
 1862DDP     C211170  12.415   9.950   4.576  0.0086  0.2029 -0.0793
 1862DDP     C311171  13.500  10.264   4.935 -0.1007 -0.0026  0.0521
 1862DDP     C411172  12.995   9.373   5.452 -0.2579 -0.1427 -0.3037
 1863DDP     C111173  22.177  26.334  27.143  0.1759  0.1380 -0.0600
 1863DDP     P111174  21.764  26.271  27.156  0.0689  0.2373 -0.0341
 1863DDP     P211175  22.416  26.340  26.750  0.1757 -0.0094 -0.1738
 1863DDP     C211176  22.341  26.163  26.385 -0.4597  0.1414  0.0384
 1863DDP     C311177  21.375  26.288  27.082 -0.3319 -0.3135  0.1185
 1863DDP     C411178  22.401  26.423  27.477 -0.0296  0.0846  0.0071
 1864DDP     C111179  18.517   4.362  24.999  0.0073  0.0724 -0.1734
 1864DDP     P111180  18.636   4.241  24.681 -0.0104 -0.1114 -0.0041
 1864DDP     P211181  18.462   4.681  24.884  0.0948  0.0432  0.0646
 1864DDP     C211182  18.522   5.080  24.833  0.2845 -0.2057  0.2741
 1864DDP     C311183  18.863   3.845  24.611  0.1425  0.0848  0.0886
 1864DDP     C411184  18.271   4.087  25.305 -0.0186  0.1359 -0.0423
 1865DDP     C111185  27.091  17.294   7.736  0.3706 -0.1323  0.3728
 1865DDP     P111186  27.248  16.868   7.667  0.0876 -0.1801 -0.1008
 1865DDP     P211187  27.091  17.558   7.379 -0.0942 -0.3595  0.3310
 1865DDP     C211188  26.837  17.437   7.071 -0.3374 -0.1449  0.1629
 1865DDP     C311189  27.038  16.513   7.399 -0.0318 -0.0753 -0.4192
 1865DDP     C411190  27.101  17.587   8.090  0.0370  0.3964 -0.2878
 1866DDP     C111191   2.964   9.983  20.417  0.0126  0.4297  0.0856
 1866DDP     P111192   3.078  10.091  20.021  0.3790  0.1187 -0.1943
 1866DDP     P211193   3.285   9.641  20.620  0.4475  0.3212  0.0785
 1866DDP     C211194   3.571   9.248  20.476  0.0785 -0.1487 -0.0249
 1866DDP     C311195   3.347  10.357  19.711 -0.4094 -0.0967 -0.1858
 1866DDP     C411196   2.588  10.093  20.626  0.1309 -0.1909  0.0653
 1867DDP     C111197  14.947  20.194  16.300  0.0610 -0.1684 -0.2315
 1867DDP     P111198  15.366  20.504  16.101  0.1339  0.2332 -0.2110
 1867DDP     P211199  14.795  20.046  15.895  0.0002  0.1675  0.3334
 1867DDP     C211200  14.743  20.176  15.456 -0.1416 -0.2927  0.0632
 1867DDP     C311201  15.420  21.027  16.095 -0.0831  0.1376  0.0665
 1867DDP     C411202  14.661  20.255  16.583  0.1576 -0.0497 -0.0190
 1868DDP     C111203   0.597  15.788  19.879 -0.4373 -0.0221  0.2149
 1868DDP     P111204   1.052  15.973  19.903  0.0320  0.2982 -0.0113
 1868DDP     P211205   0.607  15.555  19.440 -0.2415 -0.2094 -0.1222
 1868DDP     C211206   0.472  15.155  19.354  0.0947 -0.2752  0.0800
 1868DDP     C311207   1.262  16.325  19.783 -0.2103 -0.2916  0.1212
 1868DDP     C411208   0.226  15.775  20.100  0.0479 -0.2025  0.0483
 1869DDP     C111209   6.841   2.686  28.689  0.1934  0.4245 -0.1555
 1869DDP     P111210   7.042   2.420  28.871 -0.0804  0.0386 -0.0568
 1869DDP     P211211   7.047   2.838  28.281 -0.2218 -0.1120 -0.1318
 1869DDP     C211212   7.045   3.255  28.015 -0.1852 -0.0832 -0.1445
 1869DDP     C311213   7.406   2.239  28.904 -0.3190 -0.0840 -0.0098
 1869DDP     C411214   6.539   2.959  28.899 -0.0157 -0.1513  0.3686
 1870DDP     C111215  23.068  16.643   3.156  0.3228  0.1007  0.2013
 1870DDP     P111216  23.207  16.940   3.406 -0.3028  0.0607 -0.1797
 1870DDP     P211217  22.749  16.740   2.959  0.0681 -0.3628  0.2372
 1870DDP     C211218  22.485  17.019   2.555 -0.3562  0.0448 -0.3829
 1870DDP     C311219  23.137  17.245   3.522 -0.0994 -0.0065  0.0083
 1870DDP     C411220  23.418  16.405   3.082 -0.1025  0.3113 -0.0147
 1871DDP     C111221   2.032  20.264  20.132 -0.3041  0.2207 -0.2676
 1871DDP     P111222   1.581  20.274  20.194  0.0010 -0.0944  0.0038
 1871DDP     P211223   1.898  19.933  19.944  0.0766  0.0692  0.2098
 1871DDP     C211224   1.891  19.543  19.685 -0.0111  0.2431 -0.0587
 1871DDP     C311225   1.159  20.065  20.149  0.0898 -0.0558  0.3851
 1871DDP     C411226   2.379  20.425  20.339 -0.4146 -0.2376 -0.0742
 1872DDP     C111227  23.040  19.728  21.426  0.1338 -0.1864 -0.0470
 1872DDP     P111228  23.445  19.674  21.658  0.1164  0.1123  0.2145
 1872DDP     P211229  22.844  19.374  21.111  0.1182 -0.1229  0.2160
 1872DDP     C211230  22.551  19.103  20.896 -0.0151  0.3565 -0.1899
 1872DDP     C311231  23.841  19.971  21.689 -0.0074  0.0310 -0.1451
 1872DDP     C411232  22.855  20.069  21.518 -0.1002 -0.2084  0.1380
 1873DDP     C111233   5.653  26.261   3.882  0.2829  0.1585 -0.1103
 1873DDP     P111234   5.922  26.650   3.990  0.1296 -0.3793 -0.0105
 1873DDP     P211235   5.757  26.056   3.515  0.1051 -0.0858  0.1340
 1873DDP     C211236   5.493  25.957   3.183  0.3781 -0.1280 -0.3258
 1873DDP     C311237   5.763  26.972   4.252 -0.0615  0.1302  0.0689
 1873DDP     C411238   5.322  26.338   4.056  0.0636  0.1615  0.2271
 1874DDP     C111239   3.432  14.756  29.590  0.1044 -0.1637 -0.0858
 1874DDP     P111240   3.214  14.688  29.890  0.0964 -0.2756  0.1072
 1874DDP     P211241   3.304  15.037  29.430 -0.0934  0.0619  0.1433
 1874DDP     C211242   3.271  15.297  29.015  0.2967 -0.2278 -0.0023
 1874DDP     C311243   2.940  14.591  30.234  0.1184 -0.4539 -0.2348
 1874DDP     C411244   3.753  14.451  29.439 -0.0135 -0.2201 -0.0117
 1875DDP     C111245   7.489  11.943   3.943 -0.0771 -0.0878 -0.0538
 1875DDP     P111246   7.832  11.773   3.679 -0.0456  0.0780  0.0347
 1875DDP     P211247   7.267  12.363   3.929 -0.1304  0.0419 -0.1034
 1875DDP     C211248   6.950  12.625   4.136  0.0436 -0.0504 -0.1993
 1875DDP     C311249   7.965  11.724   3.301  0.4439 -0.2458  0.3240
 1875DDP     C411250   7.419  11.656   4.295  0.3831 -0.0082  0.1324
 1876DDP     C111251  27.678  29.667  14.935  0.0882 -0.0012 -0.0595
 1876DDP     P111252  27.402  29.967  14.732  0.0102 -0.4131  0.0416
 1876DDP     P211253  28.140  29.764  14.924  0.2923 -0.0362 -0.1453
 1876DDP     C211254  28.588  30.012  14.874 -0.4170 -0.0942 -0.0713
 1876DDP     C311255  27.237  30.256  14.475 -0.2702  0.4041  0.0755
 1876DDP     C411256  27.579  29.294  15.081 -0.3217 -0.0875 -0.2983
 1877DDP     C111257   6.952  10.411   5.440 -0.0662  0.1071  0.0840
 1877DDP     P111258   6.593  10.352   5.788 -0.0620 -0.0978 -0.1331
 1877DDP     P211259   6.985  10.273   4.992 -0.0395  0.1304 -0.1316
 1877DDP     C211260   7.322  10.282   4.662 -0.4377 -0.1621  0.2762
 1877DDP     C311261   6.413  10.217   6.189  0.4562  0.2011 -0.0782
 1877DDP     C411262   7.197  10.679   5.789 -0.0267 -0.3091 -0.2570
 1878DDP     C111263   4.796  19.767  16.000 -0.0321  0.1423  0.1359
 1878DDP     P111264   4.519  19.726  15.691 -0.1728 -0.1689  0.1793
 1878DDP     P211265   5.087  19.762  15.725 -0.1903 -0.1501  0.3304
 1878DDP     C211266   5.131  19.968  15.319  0.1133 -0.0777  0.1134
 1878DDP     C311267   4.142  19.554  15.433 -0.0188 -0.0339  0.2349
 1878DDP     C411268   4.739  19.863  16.473  0.1304  0.3958  0.3149
 1879DDP     C111269  26.526   3.896   1.236 -0.2287 -0.1707  0.0268
 1879DDP     P111270  26.714   3.482   1.024 -0.1010 -0.1742 -0.2378
 1879DDP     P211271  26.669   4.090   1.648 -0.0471 -0.3905 -0.0088
 1879DDP     C211272  26.820   4.083   2.027  0.0396 -0.0136  0.2043
 1879DDP     C311273  26.497   3.107   0.986  0.0946 -0.1506 -0.0283
 1879DDP     C411274  26.106   4.077   0.939 -0.0580  0.0804  0.3036
 1880DDP     C111275   4.527  11.133  16.824 -0.2460 -0.0971 -0.1449
 1880DDP     P111276   4.440  11.467  16.515 -0.2030 -0.1434 -0.0019
 1880DDP     P211277   4.841  10.825  16.811 -0.2549  0.3533  0.0536
 1880DDP     C211278   5.299  10.807  16.684 -0.0500 -0.0975 -0.0063
 1880DDP     C311279   4.212  11.550  16.259  0.1221  0.0904  0.1138
 1880DDP     C411280   4.306  10.853  17.150 -0.1035  0.0380  0.1230
 1881DDP     C111281   3.584   2.717  10.639  0.0696  0.1042  0.1138
 1881DDP     P111282   3.933   2.638  10.799  0.0448  0.2360  0.0032
 1881DDP     P211283   3.302   2.689  10.977 -0.1026 -0.0852 -0.0774
 1881DDP     C211284   3.206   2.808  11.381  0.1975  0.0614  0.1008
 1881DDP     C311285   4.150   2.623  11.102 -0.0273  0.0845  0.1037
 1881DDP     C411286   3.382   2.582  10.292 -0.2481  0.0317 -0.1020
 1882DDP     C111287   7.974   3.684  27.079  0.2600 -0.0358 -0.0328
 1882DDP     P111288   8.045   3.249  27.222  0.1089 -0.0104  0.1384
 1882DDP     P211289   7.663   3.708  26.717 -0.1575 -0.0615 -0.1271
 1882DDP     C211290   7.240   3.715  26.604 -0.1615 -0.2082  0.2450
 1882DDP     C311291   8.200   2.896  27.058 -0.1046  0.0707 -0.0904
 1882DDP     C411292   8.307   4.081  27.149  0.2679 -0.1896 -0.1363
 1883DDP     C111293  13.481  27.874  18.079  0.1836  0.0047  0.0062
 1883DDP     P111294  13.215  27.989  18.346  0.0135  0.1235  0.1016
 1883DDP     P211295  13.876  27.896  18.203 -0.1761  0.1155 -0.0509
 1883DDP     C211296  14.322  27.649  18.361  0.2788 -0.4399  0.0059
 1883DDP     C311297  12.832  28.068  18.558 -0.0760 -0.0191  0.1953
 1883DDP     C411298  13.465  28.027  17.641  0.0769  0.0234  0.4009
 1884DDP     C111299   2.863  25.672   3.484 -0.0357 -0.0542 -0.0295
 1884DDP     P111300   2.734  25.659   3.035 -0.1403 -0.0909  0.0702
 1884DDP     P211301   2.784  25.327   3.711 -0.1015 -0.0888  0.0641
 1884DDP     C211302   2.615  24.959   3.652  0.0193  0.1106 -0.1295
 1884DDP     C311303   2.622  26.081   2.953 -0.0490  0.0147  0.3163
 1884DDP     C411304   3.246  25.933   3.451 -0.0270  0.2639 -0.1728
 1885DDP     C111305  10.464  24.231   8.624 -0.0989  0.2554 -0.2750
 1885DDP     P111306  10.862  24.211   8.555  0.1198  0.1210  0.1352
 1885DDP     P211307   9.951  24.292   8.650 -0.0354  0.3448  0.0370
 1885DDP     C211308   9.580  24.255   8.848  0.1738  0.1619  0.2109
 1885DDP     C311309  11.248  24.301   8.452  0.1347  0.0308 -0.0752
 1885DDP     C411310  10.572  24.215   9.047 -0.2307 -0.1435  0.1046
 1886DDP     C111311  28.737   8.508  19.952 -0.0294 -0.1535  0.1137
 1886DDP     P111312  28.923   8.309  20.311  0.1956  0.2158 -0.2804
 1886DDP     P211313  28.918   8.518  19.728 -0.2180 -0.0515  0.3873
 1886DDP     C211314  29.199   8.611  19.460  0.1316 -0.0360 -0.2408
 1886DDP     C311315  29.390   8.238  20.270  0.0795 -0.0593  0.2075
 1886DDP     C411316  28.317   8.361  20.067 -0.0448  0.1451  0.1822
 1887DDP     C111317   7.205   7.481  15.841  0.2284  0.0394 -0.0478
 1887DDP     P111318   6.918   7.884  15.623 -0.2722 -0.0630  0.1374
 1887DDP     P211319   6.935   6.995  16.081  0.1863 -0.0114 -0.3784
 1887DDP     C211320   6.738   6.595  16.094  0.1847 -0.1472  0.0283
 1887DDP     C311321   6.806   8.093  15.182 -0.0161  0.3403 -0.1395
 1887DDP     C411322   7.547   7.408  15.914 -0.0152  0.2297 -0.1353
 1888DDP     C111323  16.243   4.063  10.338  0.0230  0.4059 -0.1632
 1888DDP     P111324  16.188   3.958  10.830  0.0138 -0.0107 -0.3047
 1888DDP     P211325  15.827   3.964  10.372 -0.0390 -0.0540  0.0558
 1888DDP     C211326  15.639   3.624  10.404  0.1529 -0.2255 -0.1454
 1888DDP     C311327  16.338   3.775  11.124 -0.0741  0.2142 -0.1490
 1888DDP     C411328  16.568   3.958  10.047  0.1076  0.3001 -0.2235
 1889DDP     C111329   6.767   8.203  29.003 -0.3469  0.2985 -0.3522
 1889DDP     P111330   6.744   8.200  28.567 -0.3911 -0.2994  0.1654
 1889DDP     P211331   6.507   7.854  29.132 -0.1215 -0.0914 -0.1861
 1889DDP     C211332   6.240   7.481  29.165  0.0972 -0.3004  0.3161
 1889DDP     C311333   6.431   8.370  28.357  0.2746 -0.0073 -0.0881
 1889DDP     C411334   7.053   8.460  29.181 -0.1620 -0.1476  0.3527
 1890DDP     C111335  28.940  26.733   9.605 -0.0694  0.0357 -0.0957
 1890DDP     P111336  29.131  26.538   9.268  0.0214  0.0574 -0.0537
 1890DDP     P211337  28.991  27.002   9.814 -0.0785  0.0485  0.1541
 1890DDP     C211338  28.893  27.239  10.108 -0.2336  0.0577 -0.2242
 1890DDP     C311339  29.648  26.573   9.247  0.0829 -0.1907  0.1267
 1890DDP     C411340  28.545  26.544   9.434 -0.1951 -0.1017 -0.0766
 1891DDP     C111341  14.034  19.248   8.152 -0.2102  0.1726 -0.0878
 1891DDP     P111342  14.263  19.465   8.334 -0.0284 -0.1595 -0.1689
 1891DDP     P211343  13.862  19.442   7.877  0.2956  0.1925 -0.3484
 1891DDP     C211344  13.440  19.723   7.847 -0.0322 -0.3421 -0.0279
 1891DDP     C311345  14.599  19.443   8.675 -0.2241  0.0957 -0.0042
 1891DDP     C411346  13.998  18.816   8.125  0.1325  0.1634  0.5276
 1892DDP     C111347   5.837  22.949   6.818  0.4197 -0.2473  0.0430
 1892DDP     P111348   5.422  22.918   6.474 -0.1004  0.1161  0.4708
 1892DDP     P211349   6.113  22.541   6.844  0.2167  0.0215  0.1454
 1892DDP     C211350   6.049  22.179   6.904  0.0133  0.2323  0.2250
 1892DDP     C311351   5.064  23.014   6.212  0.1213 -0.2740  0.2783
 1892DDP     C411352   5.918  23.317   7.009  0.1084 -0.4829 -0.1432
 1893DDP     C111353   7.659  15.624   3.464  0.0709  0.1502 -0.2622
 1893DDP     P111354   8.034  15.565   3.168  0.2456 -0.0249 -0.1473
 1893DDP     P211355   7.350  15.792   3.248 -0.2058 -0.2554 -0.0146
 1893DDP     C211356   7.139  15.894   2.930  0.4302 -0.0365  0.0983
 1893DDP     C311357   8.257  15.478   2.801 -0.0706  0.0966  0.2958
 1893DDP     C411358   7.630  15.383   3.910 -0.2186  0.2898  0.1898
 1894DDP     C111359  15.182  13.445   1.931  0.2500 -0.1972  0.1885
 1894DDP     P111360  15.240  13.801   2.217  0.1037 -0.1713 -0.0836
 1894DDP     P211361  14.856  13.202   1.878  0.1696  0.0569 -0.0508
 1894DDP     C211362  14.363  13.142   1.946  0.2344  0.3501  0.0742
 1894DDP     C311363  14.895  13.861   2.553  0.1208 -0.0941 -0.1289
 1894DDP     C411364  15.603  13.554   1.576 -0.3360  0.0676 -0.2665
 1895DDP     C111365  15.145  26.861   5.541  0.4288  0.2629  0.0394
 1895DDP     P111366  15.429  26.960   5.826 -0.0308 -0.1724 -0.0559
 1895DDP     P211367  14.901  27.235   5.467  0.3074  0.2632  0.0049
 1895DDP     C211368  14.772  27.604   5.328  0.0405 -0.0911 -0.3133
 1895DDP     C311369  15.494  26.729   6.095 -0.0909 -0.2774  0.1015
 1895DDP     C411370  14.870  26.532   5.466  0.0834  0.0542 -0.0516
 1896DDP     C111371   6.816   8.725  12.420 -0.3438  0.0531  0.1232
 1896DDP     P111372   6.768   8.369  12.678 -0.2423  0.0737  0.1504
 1896DDP     P211373   6.462   8.926  12.646  0.1136 -0.2521  0.5555
 1896DDP     C211374   6.281   9.307  12.723  0.0130  0.3805 -0.0680
 1896DDP     C311375   6.713   7.944  12.710  0.1436 -0.2618 -0.2194
 1896DDP     C411376   6.885   8.777  12.017  0.0714  0.3443 -0.0123
 1897DDP     C111377  24.933  28.739   5.404 -0.1800 -0.0084 -0.3098
 1897DDP     P111378  25.374  28.755   5.318  0.2110 -0.0383  0.1850
 1897DDP     P211379  24.737  28.609   5.153 -0.3842  0.1161 -0.0264
 1897DDP     C211380  24.436  28.546   4.731  0.1562  0.0265  0.2283
 1897DDP     C311381  25.716  28.958   5.232 -0.0052  0.1780 -0.2072
 1897DDP     C411382  24.899  29.091   5.575  0.0805 -0.3960 -0.0762
 1898DDP     C111383   0.110  29.818  19.878  0.0513  0.3671  0.1976
 1898DDP     P111384  30.370  29.457  20.134 -0.0455 -0.1746  0.1715
 1898DDP     P211385  30.121  30.197  19.758  0.0510  0.1995 -0.0483
 1898DDP     C211386  30.165   0.272  20.104  0.1247  0.0775 -0.0726
 1898DDP     C311387  30.119  29.043  20.138 -0.2698  0.4252  0.1929
 1898DDP     C411388   0.491  29.800  19.586  0.1326  0.3091 -0.1157
 1899DDP     C111389  10.550   7.220  13.265 -0.1381  0.1109 -0.2154
 1899DDP     P111390  10.294   7.604  13.490 -0.2436 -0.5146 -0.0274
 1899DDP     P211391  10.513   7.483  12.855 -0.0701  0.0352 -0.1562
 1899DDP     C211392  10.813   7.740  12.598  0.1256 -0.0932  0.0096
 1899DDP     C311393  10.169   7.643  13.936  0.1692 -0.0263  0.3281
 1899DDP     C411394  10.489   6.891  13.445  0.0054  0.3930  0.1120
 1900DDP     C111395  22.743   1.427  15.283  0.0060 -0.0198  0.1052
 1900DDP     P111396  22.649   1.228  15.713  0.2359  0.3719  0.0747
 1900DDP     P211397  22.565   1.279  14.845 -0.3769 -0.0706 -0.3449
 1900DDP     C211398  22.482   1.453  14.417 -0.2056  0.3378  0.3200
 1900DDP     C311399  23.000   0.946  15.866  0.0002 -0.1807  0.0250
 1900DDP     C411400  22.589   1.974  15.327  0.1561  0.1455  0.0002
 1901DDP     C111401   8.368  14.223   1.804 -0.3606  0.0279 -0.2440
 1901DDP     P111402   8.524  14.675   1.787  0.3435  0.1223  0.1403
 1901DDP     P211403   7.902  14.039   1.715  0.1995  0.1595  0.1155
 1901DDP     C211404   7.615  13.757   1.601  0.0175 -0.1031  0.2223
 1901DDP     C311405   8.670  15.117   1.764  0.1844  0.1233 -0.0157
 1901DDP     C411406   8.622  13.917   2.026  0.1604 -0.0845 -0.0705
 1902DDP     C111407  27.757   6.282  25.179  0.0324  0.0241  0.3758
 1902DDP     P111408  27.993   6.277  24.841 -0.1055 -0.0342  0.2603
 1902DDP     P211409  27.348   5.995  25.121 -0.1401 -0.0116 -0.4646
 1902DDP     C211410  26.990   5.830  25.024 -0.3021  0.1066 -0.0486
 1902DDP     C311411  27.987   6.320  24.493  0.3299  0.2253  0.1677
 1902DDP     C411412  27.752   6.468  25.621  0.2255  0.0397  0.1001
 1903DDP     C111413  30.221  13.345  26.108  0.1104 -0.1017 -0.4338
 1903DDP     P111414   0.134  13.297  26.458 -0.2308 -0.1326 -0.1814
 1903DDP     P211415   0.189  13.419  25.714 -0.2248 -0.3732  0.0872
 1903DDP     C211416   0.130  13.543  25.329 -0.1505 -0.0961  0.1259
 1903DDP     C311417   0.151  12.986  26.831 -0.0071  0.0742 -0.0353
 1903DDP     C411418  29.792  13.393  26.025 -0.1534  0.1449 -0.1706
 1904DDP     C111419  24.759  14.569  10.994 -0.1888  0.0118 -0.1240
 1904DDP     P111420  24.657  14.842  10.618 -0.0747  0.0801  0.0505
 1904DDP     P211421  25.174  14.514  11.071  0.0142 -0.0109 -0.0788
 1904DDP     C211422  25.626  14.390  11.066 -0.3309  0.0275 -0.0582
 1904DDP     C311423  24.882  15.009  10.254  0.4291 -0.3765 -0.0410
 1904DDP     C411424  24.505  14.330  11.252 -0.4040  0.0657 -0.3027
 1905DDP     C111425   2.497   2.652  13.730 -0.0697  0.0573  0.3103
 1905DDP     P111426   2.708   2.930  13.892 -0.0476  0.1486 -0.2182
 1905DDP     P211427   2.680   2.469  13.409  0.1904 -0.0819  0.1101
 1905DDP     C211428   2.624   2.156  13.049  0.0723 -0.2239 -0.2217
 1905DDP     C311429   3.023   3.204  13.995  0.0458 -0.2873  0.0226
 1905DDP     C411430   2.104   2.531  13.865  0.0172 -0.5833  0.2758
 1906DDP     C111431  20.930   2.637  18.833 -0.0258  0.0905 -0.2413
 1906DDP     P111432  20.968   2.368  18.679 -0.0240  0.0746 -0.2597
 1906DDP     P211433  20.585   2.646  19.192  0.2269  0.0888  0.1607
 1906DDP     C211434  20.203   2.785  19.455  0.2963  0.1509  0.2389
 1906DDP     C311435  20.896   2.325  18.240 -0.0982 -0.0496 -0.4149
 1906DDP     C411436  21.066   3.016  18.700 -0.2891 -0.0521 -0.0891
 1907DDP     C111437  14.211  12.705   0.812  0.2025  0.1398 -0.1569
 1907DDP     P111438  14.421  12.757   0.454 -0.3734  0.0997  0.0091
 1907DDP     P211439  14.349  12.347   0.987 -0.0798 -0.0492  0.2124
 1907DDP     C211440  14.623  12.090   1.242  0.1693  0.0492 -0.0300
 1907DDP     C311441  14.303  13.149   0.183  0.1569 -0.1101  0.2918
 1907DDP     C411442  13.830  12.921   0.935 -0.3178  0.2653 -0.0511
 1908DDP     C111443  11.243   3.796  28.714  0.1335 -0.0159 -0.1727
 1908DDP     P111444  11.366   3.578  28.427  0.3981  0.1235  0.0218
 1908DDP     P211445  11.490   3.877  28.993 -0.0151 -0.1520  0.0435
 1908DDP     C211446  11.917   3.825  28.897  0.5419  0.0867 -0.3107
 1908DDP     C311447  11.551   3.215  28.255  0.1558 -0.0189  0.2063
 1908DDP     C411448  10.859   3.878  28.870 -0.0409 -0.4495 -0.0309
 1909DDP     C111449  24.649  27.721  23.415 -0.0843  0.1317  0.1901
 1909DDP     P111450  24.399  27.598  23.700  0.3282  0.2253  0.1965
 1909DDP     P211451  24.939  28.084  23.374 -0.0700  0.0162 -0.1675
 1909DDP     C211452  24.929  28.486  23.403  0.2363 -0.0063  0.3519
 1909DDP     C311453  24.123  27.416  24.056 -0.0463  0.0245 -0.0260
 1909DDP     C411454  24.524  27.584  23.058  0.0052 -0.0398 -0.0165
 1910DDP     C111455   8.331  21.678  12.269 -0.0694  0.1300 -0.1358
 1910DDP     P111456   8.173  21.975  12.616 -0.1524  0.0033 -0.2117
 1910DDP     P211457   8.065  21.671  11.851 -0.1937  0.3300  0.2004
 1910DDP     C211458   7.857  21.914  11.406 -0.0007  0.1694 -0.1008
 1910DDP     C311459   8.117  21.898  12.981 -0.3007 -0.0831 -0.0530
 1910DDP     C411460   8.714  21.513  12.353 -0.2995  0.0511 -0.3978
 1911DDP     C111461  11.054   2.108  25.701  0.1047  0.0678 -0.1094
 1911DDP     P111462  10.645   2.073  25.513  0.0574 -0.1251  0.3084
 1911DDP     P211463  11.188   1.655  25.864 -0.2475 -0.0953 -0.1351
 1911DDP     C211464  11.633   1.503  26.143 -0.1615 -0.1343 -0.1087
 1911DDP     C311465  10.362   1.996  25.126  0.1202  0.1303  0.1451
 1911DDP     C411466  11.327   2.415  25.850  0.0758  0.0866 -0.2129
 1912DDP     C111467   1.908  16.577   2.217  0.2722 -0.1459 -0.1803
 1912DDP     P111468   1.782  16.780   1.761  0.0885  0.1050  0.1812
 1912DDP     P211469   1.527  16.608   2.556 -0.1100  0.0249 -0.0393
 1912DDP     C211470   1.362  16.888   2.764  0.0731 -0.0016  0.0456
 1912DDP     C311471   1.510  17.122   1.567 -0.4120 -0.3058  0.0482
 1912DDP     C411472   2.242  16.251   2.236  0.2019  0.0076 -0.3647
 1913DDP     C111473   1.519  22.416  22.005 -0.3671  0.0569  0.1249
 1913DDP     P111474   1.827  22.518  21.651 -0.1332 -0.1557 -0.0931
 1913DDP     P211475   1.387  21.970  22.255  0.0723 -0.1871  0.2009
 1913DDP     C211476   1.146  21.767  22.588  0.0393  0.2020  0.4022
 1913DDP     C311477   1.732  22.924  21.378  0.0209  0.0242  0.0964
 1913DDP     C411478   1.198  22.607  22.194  0.0643  0.0892  0.4393
 1914DDP     C111479  21.092  23.110  25.427  0.0022  0.0112  0.0882
 1914DDP     P111480  21.424  22.897  25.490 -0.0292  0.0128  0.1585
 1914DDP     P211481  20.719  22.859  25.527 -0.0365 -0.1606  0.2237
 1914DDP     C211482  20.291  23.007  25.755  0.0723  0.2740  0.3017
 1914DDP     C311483  21.443  22.494  25.559 -0.1185 -0.0141  0.0999
 1914DDP     C411484  21.203  23.469  25.176  0.1200 -0.0434  0.0632
 1915DDP     C111485  27.083  22.419   2.348 -0.1078 -0.2323 -0.1518
 1915DDP     P111486  26.862  22.613   2.655 -0.2253 -0.0921  0.2545
 1915DDP     P211487  27.254  22.068   2.602 -0.0780 -0.0987 -0.0657
 1915DDP     C211488  26.911  21.940   2.853 -0.0964  0.0773 -0.2231
 1915DDP     C311489  26.570  22.413   2.974  0.0827 -0.2078 -0.0941
 1915DDP     C411490  27.295  22.627   1.984 -0.1870 -0.4340 -0.1570
 1916DDP     C111491  12.149  25.356  29.632 -0.1865 -0.2498 -0.0721
 1916DDP     P111492  12.438  25.660  29.740 -0.0766  0.3006  0.1468
 1916DDP     P211493  11.743  25.469  29.574 -0.0102  0.1093 -0.0585
 1916DDP     C211494  11.221  25.726  29.644 -0.4021  0.1470  0.2054
 1916DDP     C311495  12.791  25.609  29.999 -0.1818 -0.0089 -0.0355
 1916DDP     C411496  12.275  24.919  29.409  0.0148  0.0516 -0.0042
 1917DDP     C111497  22.852   1.526  17.282  0.0429  0.2104  0.1713
 1917DDP     P111498  22.956   1.363  16.959 -0.2031  0.0862  0.0132
 1917DDP     P211499  22.814   1.261  17.718  0.0708 -0.2869 -0.1127
 1917DDP     C211500  22.566   1.332  18.135  0.0316 -0.1729 -0.1294
 1917DDP     C311501  22.848   0.873  16.778  0.1148  0.1215 -0.0348
 1917DDP     C411502  23.079   1.952  17.316 -0.1779  0.0714 -0.5348
 1918DDP     C111503   9.007  19.839   6.538 -0.0088  0.0002 -0.3547
 1918DDP     P111504   8.678  19.548   6.789 -0.0967  0.1100 -0.0053
 1918DDP     P211505   8.907  19.886   6.106 -0.2210 -0.1871 -0.2239
 1918DDP     C211506   8.533  20.082   6.015 -0.1080  0.0960  0.2364
 1918DDP     C311507   8.797  19.130   6.830  0.0301  0.0511 -0.1536
 1918DDP     C411508   9.472  19.981   6.656 -0.4056  0.3397 -0.0182
 1919DDP     C111509  20.369   2.095  18.601 -0.1282 -0.0511  0.0931
 1919DDP     P111510  20.715   1.871  18.494 -0.0192  0.5128 -0.1244
 1919DDP     P211511  20.119   1.717  18.518 -0.2899  0.1291  0.3888
 1919DDP     C211512  20.108   1.320  18.772 -0.0095 -0.0268  0.0844
 1919DDP     C311513  20.976   1.613  18.226  0.0176  0.2768  0.0855
 1919DDP     C411514  20.385   2.534  18.684 -0.1121  0.3209  0.0260
 1920DDP     C111515  19.314  13.104   9.664 -0.1028  0.0989  0.1711
 1920DDP     P111516  18.992  13.463   9.393 -0.2066 -0.0355  0.0606
 1920DDP     P211517  19.556  13.388   9.901  0.4687 -0.0268  0.4476
 1920DDP     C211518  19.897  13.697   9.965 -0.3272  0.1190 -0.2448
 1920DDP     C311519  18.650  13.768   9.290  0.2419  0.0458  0.1742
 1920DDP     C411520  19.274  12.706   9.856 -0.1226  0.3822  0.0997
 1921DDP     C111521  10.489  13.649  13.986  0.0074  0.0770 -0.0198
 1921DDP     P111522  10.823  13.295  13.952  0.0888 -0.2134  0.1739
 1921DDP     P211523  10.650  14.019  13.976  0.4450  0.1010 -0.1316
 1921DDP     C211524  10.956  14.108  13.578  0.1499 -0.2629 -0.0430
 1921DDP     C311525  11.073  13.033  14.247  0.0540 -0.0518  0.0028
 1921DDP     C411526  10.107  13.735  13.902  0.1820 -0.0547  0.3791
 1922DDP     C111527  25.344   0.953   4.968  0.3758 -0.1904  0.2895
 1922DDP     P111528  25.415   0.910   5.415 -0.1872  0.0631 -0.1325
 1922DDP     P211529  25.647   0.716   4.735 -0.1681 -0.1111 -0.0516
 1922DDP     C211530  25.806   0.646   4.315 -0.0817 -0.2181 -0.0221
 1922DDP     C311531  25.776   0.869   5.678  0.2320 -0.1628 -0.1135
 1922DDP     C411532  24.985   1.152   4.756 -0.2161  0.1334  0.0203
 1923DDP     C111533   2.885   6.239  22.073 -0.0694  0.2577 -0.2360
 1923DDP     P111534   2.730   6.536  21.943 -0.1053  0.0246  0.2074
 1923DDP     P211535   3.277   6.316  22.415 -0.2088 -0.1489 -0.1122
 1923DDP     C211536   3.552   6.241  22.778  0.1357 -0.0084 -0.1347
 1923DDP     C311537   2.303   6.779  21.987  0.0271 -0.3343 -0.0089
 1923DDP     C411538   2.660   5.784  22.056  0.1009  0.0414  0.2868
 1924DDP     C111539  18.713  23.392  17.397 -0.0155  0.2612 -0.0404
 1924DDP     P111540  18.970  23.680  17.380  0.1393  0.0699 -0.0589
 1924DDP     P211541  18.296  23.529  17.675 -0.0121  0.1748  0.0053
 1924DDP     C211542  17.904  23.642  17.821 -0.1535  0.0103 -0.1423
 1924DDP     C311543  19.285  23.945  17.466 -0.0598 -0.1062  0.1414
 1924DDP     C411544  18.890  23.008  17.334  0.0733  0.3181 -0.2224
 1925DDP     C111545  26.025  29.791  10.767  0.3694  0.0141  0.0556
 1925DDP     P111546  25.835  29.453  10.889  0.0397  0.4768 -0.0478
 1925DDP     P211547  26.409  29.896  10.455 -0.2636  0.2334 -0.2029
 1925DDP     C211548  26.489  29.893  10.052  0.1147 -0.1979 -0.2472
 1925DDP     C311549  25.428  29.194  10.779 -0.3560  0.3276 -0.2573
 1925DDP     C411550  25.744  30.271  10.839 -0.3260  0.0758  0.1817
 1926DDP     C111551  27.162  21.093  12.481  0.0155 -0.0265 -0.0517
 1926DDP     P111552  27.623  20.909  12.583  0.1767  0.1969 -0.1589
 1926DDP     P211553  26.970  21.100  12.939 -0.1332 -0.2958 -0.0913
 1926DDP     C211554  26.453  21.184  13.228 -0.1341  0.2288  0.0496
 1926DDP     C311555  28.007  20.807  12.932 -0.2173 -0.0902 -0.0693
 1926DDP     C411556  26.864  21.260  12.124 -0.1551 -0.0370  0.1031
 1927DDP     C111557   9.215  29.980   4.413 -0.0500 -0.0133 -0.0034
 1927DDP     P111558   8.937  29.699   4.167 -0.0618 -0.1982 -0.1012
 1927DDP     P211559   9.164  30.270   4.677 -0.1727 -0.0678 -0.3419
 1927DDP     C211560   9.038   0.157   4.989 -0.1343 -0.0261  0.0539
 1927DDP     C311561   8.706  29.414   4.020 -0.1046 -0.1306 -0.0309
 1927DDP     C411562   9.551  30.197   4.207 -0.0518 -0.2488  0.0853
 1928DDP     C111563  25.788  30.336   9.907  0.3226  0.2193  0.2102
 1928DDP     P111564  25.662   0.092  10.375  0.2925  0.0803 -0.1091
 1928DDP     P211565  25.516  29.964   9.767  0.0038  0.1692 -0.1239
 1928DDP     C211566  25.244  29.725   9.407 -0.2141  0.0459 -0.0054
 1928DDP     C311567  25.289   0.020  10.652 -0.1195 -0.0692 -0.1810
 1928DDP     C411568  26.140   0.166   9.698 -0.0472 -0.1002 -0.3073
 1929DDP     C111569  26.982   0.026   0.709  0.4211 -0.0282  0.1545
 1929DDP     P111570  27.018   0.098   0.240  0.0841 -0.2910 -0.1240
 1929DDP     P211571  26.764   0.324   0.932 -0.1091  0.0045  0.1765
 1929DDP     C211572  26.748   0.758   1.057 -0.3941 -0.4542  0.2332
 1929DDP     C311573  26.941  30.326  30.173 -0.0852  0.0092 -0.2962
 1929DDP     C411574  26.998  29.867   0.799  0.0517  0.0917 -0.0238
 1930DDP     C111575  30.249   6.746  13.400  0.0935 -0.0215  0.2183
 1930DDP     P111576   0.307   6.415  13.449 -0.2079  0.3399 -0.0506
 1930DDP     P211577  29.974   6.802  13.016  0.1295 -0.0732  0.1633
 1930DDP     C211578  29.952   7.008  12.640 -0.0709 -0.1574  0.2719
 1930DDP     C311579   0.306   5.982  13.495  0.1510 -0.0111  0.1615
 1930DDP     C411580  30.031   7.080  13.746 -0.2695 -0.1345  0.3298
 1931DDP     C111581  20.794  29.260   6.734 -0.0892  0.1956 -0.0657
 1931DDP     P111582  20.622  28.835   6.636  0.2164  0.0600 -0.3018
 1931DDP     P211583  21.200  29.216   6.556  0.2025  0.1182 -0.1256
 1931DDP     C211584  21.568  29.412   6.797 -0.3218  0.2006 -0.2680
 1931DDP     C311585  20.287  28.564   6.456 -0.1250 -0.1156  0.2327
 1931DDP     C411586  20.521  29.709   6.893  0.0412 -0.0513 -0.2543
 1932DDP     C111587  24.562   9.569   1.703  0.3658 -0.0719  0.2701
 1932DDP     P111588  24.058   9.625   1.633  0.3025 -0.0967  0.0320
 1932DDP     P211589  24.686   9.947   1.995 -0.2258 -0.3244 -0.3223
 1932DDP     C211590  25.138  10.063   1.954 -0.0255 -0.0304  0.3574
 1932DDP     C311591  23.665   9.345   1.622  0.0430 -0.1323 -0.3520
 1932DDP     C411592  24.742   9.324   1.423 -0.0329 -0.2444 -0.0018
 1933DDP     C111593  22.866  12.677  16.029 -0.1511  0.0847  0.0281
 1933DDP     P111594  22.878  13.074  16.433 -0.1306 -0.3223  0.0561
 1933DDP     P211595  23.030  12.725  15.659 -0.0231 -0.1459  0.0202
 1933DDP     C211596  23.465  12.701  15.415 -0.1275 -0.1624  0.4214
 1933DDP     C311597  22.487  13.361  16.680  0.1821 -0.1060  0.2799
 1933DDP     C411598  22.553  12.382  16.168 -0.1220 -0.0579 -0.1272
 1934DDP     C111599   7.215  26.776  11.462 -0.2452  0.0607 -0.0253
 1934DDP     P111600   7.191  27.013  11.076 -0.1934  0.1393 -0.1097
 1934DDP     P211601   6.858  26.725  11.752  0.1247 -0.1066  0.1039
 1934DDP     C211602   6.777  26.377  12.038 -0.1647 -0.1635  0.1241
 1934DDP     C311603   6.938  27.300  10.795  0.2986  0.0716  0.1039
 1934DDP     C411604   7.654  26.740  11.414  0.0229 -0.3421  0.0105
 1935DDP     C111605  12.448  21.239  19.140 -0.1711 -0.1533 -0.0177
 1935DDP     P111606  12.676  21.062  18.730 -0.0567  0.2076  0.0551
 1935DDP     P211607  12.337  21.675  18.968  0.0487  0.2159 -0.4395
 1935DDP     C211608  12.171  21.920  18.698 -0.1276 -0.2309 -0.1686
 1935DDP     C311609  13.091  21.195  18.665 -0.0490 -0.0565  0.0112
 1935DDP     C411610  12.576  21.125  19.590  0.0735 -0.2130 -0.0119
 1936DDP     C111611   7.049  25.882   4.267 -0.1099  0.1057 -0.0735
 1936DDP     P111612   7.251  25.715   4.060 -0.0208 -0.0557  0.2311
 1936DDP     P211613   6.943  25.561   4.643 -0.3223  0.2464  0.0500
 1936DDP     C211614   7.319  25.638   4.984  0.1262  0.0986 -0.3655
 1936DDP     C311615   7.733  25.719   3.988  0.0257 -0.2688 -0.1979
 1936DDP     C411616   6.744  26.058   4.072 -0.0132 -0.1634 -0.0298
 1937DDP     C111617  22.176   5.697  26.361 -0.1105 -0.1134  0.2334
 1937DDP     P111618  22.162   5.710  25.901  0.0226  0.1044 -0.0931
 1937DDP     P211619  21.878   5.752  26.710 -0.1574  0.4069  0.0744
 1937DDP     C211620  21.535   5.854  26.927  0.0560  0.1108  0.4825
 1937DDP     C311621  21.733   5.566  25.692  0.2626 -0.1986 -0.0759
 1937DDP     C411622  22.655   5.740  26.546  0.3719  0.0804 -0.3202
 1938DDP     C111623  28.704  22.093  14.012  0.0963 -0.1300  0.0750
 1938DDP     P111624  29.048  21.943  14.287  0.0031  0.0092  0.0431
 1938DDP     P211625  28.653  21.719  13.765  0.0536 -0.1323  0.2059
 1938DDP     C211626  28.845  21.297  13.614  0.0988  0.1001 -0.3348
 1938DDP     C311627  29.359  22.269  14.469  0.0691  0.4253  0.1091
 1938DDP     C411628  28.495  22.349  13.840  0.0527  0.0301  0.0002
 1939DDP     C111629   9.277   1.095  14.204 -0.0139 -0.1163 -0.0187
 1939DDP     P111630   9.101   0.821  14.387  0.2437 -0.1143  0.0159
 1939DDP     P211631   9.216   1.236  13.840  0.3164 -0.2016  0.0935
 1939DDP     C211632   9.105   1.589  13.533 -0.0487 -0.0264 -0.0192
 1939DDP     C311633   8.673   0.903  14.609 -0.1056 -0.0062  0.2746
 1939DDP     C411634   9.461   1.337  14.421  0.2817 -0.4595 -0.1462
 1940DDP     C111635  21.424  19.544   5.438  0.0729  0.3378  0.0735
 1940DDP     P111636  21.528  19.198   5.125  0.1841 -0.1318 -0.0946
 1940DDP     P211637  21.716  19.678   5.712  0.0345  0.0644  0.0592
 1940DDP     C211638  21.807  20.064   5.908 -0.0402  0.0873 -0.0835
 1940DDP     C311639  21.888  19.100   4.818  0.0726 -0.0240 -0.1196
 1940DDP     C411640  21.030  19.809   5.562  0.0080 -0.1011 -0.0418
 1941DDP     C111641  10.970  17.509   7.977 -0.0076  0.1133  0.2858
 1941DDP     P111642  11.169  17.312   8.341 -0.1652 -0.2040 -0.2957
 1941DDP     P211643  11.261  17.774   7.898  0.1324  0.1071  0.1867
 1941DDP     C211644  11.436  17.957   8.216 -0.3221  0.2442 -0.0676
 1941DDP     C311645  11.182  17.301   8.763  0.1528  0.0409  0.2282
 1941DDP     C411646  10.484  17.581   7.855 -0.0841 -0.0300 -0.2076
 1942DDP     C111647  16.214  13.073  20.749  0.0006  0.0948 -0.0684
 1942DDP     P111648  15.958  13.215  20.480  0.2407  0.4813  0.0211
 1942DDP     P211649  16.416  12.707  20.581  0.2231 -0.1718  0.0972
 1942DDP     C211650  16.524  12.411  20.373 -0.1282 -0.0038  0.1168
 1942DDP     C311651  15.610  13.301  20.116 -0.1536 -0.1047  0.0610
 1942DDP     C411652  16.404  13.262  21.062  0.0026 -0.2883 -0.2123
 1943DDP     C111653   4.741  21.151  12.919  0.4522 -0.1644  0.2381
 1943DDP     P111654   4.384  21.112  13.049 -0.1874  0.1221  0.3168
 1943DDP     P211655   5.034  20.796  12.827 -0.0169  0.2119 -0.1271
 1943DDP     C211656   5.021  20.333  12.656  0.1361  0.1572 -0.4134
 1943DDP     C311657   3.989  21.152  13.392 -0.1434  0.1476  0.0262
 1943DDP     C411658   4.939  21.524  12.784  0.2360  0.3418  0.0738
 1944DDP     C111659   6.118  12.501  17.098 -0.1476 -0.1654  0.0948
 1944DDP     P111660   6.313  12.818  17.421 -0.0419  0.1986  0.1223
 1944DDP     P211661   6.072  12.365  16.696  0.1717  0.1839 -0.0619
 1944DDP     C211662   5.829  12.339  16.371 -0.1648  0.0651 -0.2562
 1944DDP     C311663   6.623  13.118  17.531  0.2390 -0.1325  0.2402
 1944DDP     C411664   6.090  12.094  17.278 -0.1145 -0.0960  0.3527
 1945DDP     C111665   8.497  16.906  15.670  0.0658 -0.1483 -0.2616
 1945DDP     P111666   8.377  17.301  15.801 -0.1718 -0.2577  0.0633
 1945DDP     P211667   8.262  16.705  15.417 -0.0673 -0.1810  0.1136
 1945DDP     C211668   8.106  16.305  15.333  0.1550 -0.0481  0.1178
 1945DDP     C311669   7.975  17.571  16.126  0.1257  0.3384 -0.3007
 1945DDP     C411670   8.872  16.665  15.713 -0.0072 -0.3691  0.1918
 1946DDP     C111671  26.664  22.170  16.100  0.0062 -0.2506  0.1358
 1946DDP     P111672  26.442  22.188  15.759  0.0847 -0.0408  0.0771
 1946DDP     P211673  26.874  21.805  16.330 -0.2122 -0.0509  0.0173
 1946DDP     C211674  27.036  21.468  16.439 -0.1251 -0.2664 -0.2811
 1946DDP     C311675  26.316  22.037  15.390 -0.0459 -0.2284 -0.2178
 1946DDP     C411676  26.457  22.534  16.297  0.2478  0.2094  0.0461
 1947DDP     C111677   0.640   6.984  15.911 -0.2985  0.3440 -0.1070
 1947DDP     P111678   0.671   7.159  15.571 -0.0894  0.3007 -0.2232
 1947DDP     P211679   0.620   6.540  15.850  0.2519 -0.2179  0.0869
 1947DDP     C211680   0.463   6.119  15.818 -0.1481  0.1320  0.1760
 1947DDP     C311681   0.501   7.434  15.279 -0.1015 -0.0489 -0.0217
 1947DDP     C411682   0.571   6.895  16.269 -0.1476 -0.1423 -0.0368
 1948DDP     C111683  24.968  27.676  10.533  0.0022  0.2402  0.0954
 1948DDP     P111684  24.658  27.492  10.219 -0.3424 -0.0855  0.2391
 1948DDP     P211685  24.735  27.856  10.720  0.2493  0.0389 -0.1232
 1948DDP     C211686  24.397  28.172  10.542 -0.2956  0.2137 -0.1099
 1948DDP     C311687  24.702  27.399   9.754  0.0248  0.1298 -0.0010
 1948DDP     C411688  25.372  27.580  10.661  0.0742 -0.0101 -0.1872
 1949DDP     C111689  14.069  28.967   0.381 -0.0778 -0.2901 -0.1645
 1949DDP     P111690  14.383  29.128   0.688 -0.2517 -0.0094 -0.1726
 1949DDP     P211691  14.031  28.840  30.244 -0.0763  0.0729  0.1667
 1949DDP     C211692  13.784  28.576  29.987 -0.2088 -0.0541  0.2754
 1949DDP     C311693  14.723  29.097   0.971 -0.0115  0.3060  0.2738
 1949DDP     C411694  13.780  28.609   0.651 -0.1145  0.0653 -0.1194
 1950DDP     C111695  26.109   3.314  18.793 -0.0710  0.0490  0.2740
 1950DDP     P111696  26.186   3.452  19.140 -0.0543 -0.3480 -0.0851
 1950DDP     P211697  26.017   3.511  18.465  0.0278 -0.0487  0.1625
 1950DDP     C211698  25.569   3.642  18.362  0.0658 -0.0763 -0.1360
 1950DDP     C311699  26.184   3.685  19.522 -0.0495 -0.1882  0.0317
 1950DDP     C411700  26.065   2.924  18.602  0.0865  0.1834 -0.0894
 1951DDP     C111701   3.289   1.992   8.149 -0.0051 -0.0914 -0.2786
 1951DDP     P111702   3.633   2.147   8.018  0.2130  0.1022  0.1895
 1951DDP     P211703   2.857   1.996   8.462 -0.0071  0.1176  0.1474
 1951DDP     C211704   2.596   1.700   8.393  0.2328 -0.0346  0.2912
 1951DDP     C311705   3.916   2.017   7.795 -0.1239  0.1904  0.0420
 1951DDP     C411706   3.244   1.764   7.810  0.0111 -0.0714  0.1358
 1952DDP     C111707  13.953  10.530   5.181 -0.0395 -0.1656  0.0005
 1952DDP     P111708  13.580  10.737   5.161  0.2968 -0.1917 -0.1086
 1952DDP     P211709  14.011  10.183   4.785 -0.3995  0.2141  0.0832
 1952DDP     C211710  13.729   9.830   4.737  0.2034 -0.5057 -0.1314
 1952DDP     C311711  13.228  11.096   5.441 -0.1697  0.0893 -0.1763
 1952DDP     C411712  14.393  10.352   5.484  0.0920  0.1231  0.3962
 1953DDP     C111713  18.884  12.045   4.012  0.1552 -0.0439 -0.0012
 1953DDP     P111714  19.278  11.898   4.091 -0.6507  0.0661 -0.0325
 1953DDP     P211715  18.874  12.283   3.646  0.3861  0.1148  0.1638
 1953DDP     C211716  18.903  12.482   3.390  0.0798 -0.3655  0.0978
 1953DDP     C311717  19.745  11.780   4.045  0.1106  0.0965  0.2159
 1953DDP     C411718  18.593  12.049   4.248 -0.3744 -0.0397 -0.0668
 1954DDP     C111719   1.871  15.290   2.741 -0.0669 -0.0922  0.0011
 1954DDP     P111720   1.663  14.846   2.911 -0.2894 -0.1536 -0.2357
 1954DDP     P211721   2.306  15.461   2.973 -0.1321  0.1819  0.1554
 1954DDP     C211722   2.609  15.316   3.208 -0.1766  0.1593 -0.1735
 1954DDP     C311723   1.305  14.654   2.669 -0.0491  0.2027  0.3170
 1954DDP     C411724   1.617  15.585   2.405 -0.2361 -0.0105 -0.2210
 1955DDP     C111725   4.389  28.352  25.789 -0.0965 -0.1088  0.0277
 1955DDP     P111726   4.227  28.267  25.331  0.2262  0.0918 -0.1011
 1955DDP     P211727   4.354  28.806  25.733 -0.1165  0.0163 -0.2941
 1955DDP     C211728   4.175  29.184  25.350  0.0403 -0.1141  0.1297
 1955DDP     C311729   4.408  27.878  25.088 -0.3491 -0.4817 -0.0676
 1955DDP     C411730   4.558  27.968  25.920  0.0084 -0.2420 -0.0637
 1956DDP     C111731  27.393  19.402  10.958  0.1411  0.0327 -0.2160
 1956DDP     P111732  27.324  19.145  11.182  0.1259 -0.2430 -0.3064
 1956DDP     P211733  27.843  19.389  10.892  0.0297 -0.1630  0.1142
 1956DDP     C211734  28.069  19.122  10.671 -0.0178 -0.1717  0.0936
 1956DDP     C311735  27.371  19.051  11.630 -0.0073  0.0173 -0.3945
 1956DDP     C411736  27.237  19.781  10.864  0.1335  0.0531  0.3210
 1957DDP     C111737   0.527  29.115  15.916 -0.0339 -0.1418  0.1325
 1957DDP     P111738   0.918  29.323  15.963  0.0774  0.1139 -0.0021
 1957DDP     P211739   0.408  29.221  16.247 -0.1692 -0.0174 -0.1549
 1957DDP     C211740   0.001  29.036  16.369  0.0694  0.3945  0.1802
 1957DDP     C311741   1.356  29.168  16.072 -0.3351  0.1075  0.0096
 1957DDP     C411742   0.281  28.897  15.616 -0.0089  0.0566  0.2220
 1958DDP     C111743  12.703  15.614  21.755  0.3570 -0.0495  0.4674
 1958DDP     P111744  12.349  15.846  21.636  0.3460  0.0755  0.1099
 1958DDP     P211745  13.004  15.491  22.175  0.2136 -0.0267 -0.0683
 1958DDP     C211746  13.364  15.516  22.396  0.0768 -0.2509 -0.1692
 1958DDP     C311747  12.106  16.001  21.384  0.0705 -0.2285 -0.0011
 1958DDP     C411748  12.601  15.179  21.587  0.2383  0.3783 -0.2551
 1959DDP     C111749  17.043  19.711  11.359 -0.4589 -0.0735  0.0811
 1959DDP     P111750  16.740  19.447  11.370 -0.0341  0.1378 -0.1327
 1959DDP     P211751  17.399  19.471  11.304  0.2157  0.1903  0.2311
 1959DDP     C211752  17.533  19.189  11.619  0.0289 -0.2285  0.2650
 1959DDP     C311753  16.431  19.314  11.712  0.0213 -0.0200  0.3204
 1959DDP     C411754  17.040  20.104  11.544  0.0663 -0.0170 -0.1599
 1960DDP     C111755  14.209   9.608   4.638 -0.5175  0.2531 -0.0831
 1960DDP     P111756  14.411   9.206   4.439 -0.0867  0.0548 -0.1711
 1960DDP     P211757  14.089   9.723   5.054  0.1896 -0.0593  0.0652
 1960DDP     C211758  13.959  10.052   5.326 -0.0089 -0.1695  0.0468
 1960DDP     C311759  14.565   8.855   4.362  0.0813  0.1516 -0.1405
 1960DDP     C411760  14.114   9.916   4.315  0.1578 -0.1422  0.1080
 1961DDP     C111761   2.271  16.659  25.344 -0.1437 -0.0316  0.0271
 1961DDP     P111762   2.409  16.824  24.906 -0.0972  0.1470 -0.2009
 1961DDP     P211763   2.533  16.297  25.520 -0.0326 -0.1565 -0.0702
 1961DDP     C211764   3.002  16.205  25.578  0.0892  0.2403  0.2571
 1961DDP     C311765   2.628  16.799  24.451 -0.0062 -0.1790  0.1495
 1961DDP     C411766   1.909  16.906  25.524  0.1110  0.0964  0.4356
 1962DDP     C111767  24.718  14.394  15.426  0.0466 -0.1922 -0.0079
 1962DDP     P111768  24.426  14.054  15.614 -0.0746 -0.1644 -0.5304
 1962DDP     P211769  25.093  14.232  15.215 -0.1005 -0.2270 -0.1552
 1962DDP     C211770  25.245  14.054  14.823  0.2600 -0.2530  0.2700
 1962DDP     C311771  24.492  13.662  15.767  0.0524 -0.1631 -0.0317
 1962DDP     C411772  24.755  14.829  15.681 -0.3024 -0.1556  0.0392
 1963DDP     C111773  12.985  30.015  15.097 -0.1186 -0.2215  0.2350
 1963DDP     P111774  12.922  29.694  14.829 -0.1000 -0.0048  0.2568
 1963DDP     P211775  13.417  30.140  15.231  0.1157  0.3544 -0.1487
 1963DDP     C211776  13.640   0.118  15.219 -0.2174 -0.1291  0.0477
 1963DDP     C311777  12.723  29.498  14.365 -0.0953 -0.1775 -0.0795
 1963DDP     C411778  12.803  30.041  15.498 -0.0500 -0.1311  0.0272
 1964DDP     C111779  17.999  18.031   5.883  0.1091  0.1446 -0.1745
 1964DDP     P111780  18.207  18.442   5.695 -0.0442 -0.1505  0.0495
 1964DDP     P211781  17.683  18.005   6.248  0.0893  0.3110  0.1689
 1964DDP     C211782  17.675  18.319   6.523  0.0136  0.2128 -0.1493
 1964DDP     C311783  18.213  18.897   5.548 -0.0188  0.1638  0.0879
 1964DDP     C411784  17.982  17.688   5.606 -0.2762  0.4407 -0.1694
 1965DDP     C111785  20.769   3.632   4.095  0.0230  0.0839 -0.0923
 1965DDP     P111786  20.717   3.434   3.778  0.1717  0.0537 -0.0358
 1965DDP     P211787  20.880   4.062   4.173 -0.3422  0.0546 -0.0951
 1965DDP     C211788  20.713   4.419   4.244  0.0589  0.2026  0.0469
 1965DDP     C311789  20.638   3.003   3.502  0.2402  0.5666  0.0324
 1965DDP     C411790  20.777   3.243   4.404 -0.0769 -0.0787 -0.0795
 1966DDP     C111791   6.430  30.116   9.185 -0.1841  0.3908 -0.0654
 1966DDP     P111792   6.130  29.870   8.890 -0.2043  0.0785  0.1098
 1966DDP     P211793   6.439   0.189   9.111  0.1341 -0.0198  0.0868
 1966DDP     C211794   6.319   0.575   9.074  0.0427 -0.3051  0.1555
 1966DDP     C311795   6.104  29.536   8.525 -0.2137 -0.0201 -0.2736
 1966DDP     C411796   6.711  29.959   9.440  0.0924 -0.0452  0.0142
 1967DDP     C111797  18.250  16.525  25.182  0.0357 -0.4522 -0.2906
 1967DDP     P111798  18.643  16.421  25.526 -0.0687 -0.0436  0.0864
 1967DDP     P211799  18.028  16.192  25.113 -0.1505  0.1582 -0.0236
 1967DDP     C211800  17.731  16.043  24.787 -0.0627  0.0688  0.2137
 1967DDP     C311801  18.771  16.131  25.859  0.3057 -0.0141 -0.3354
 1967DDP     C411802  18.133  16.947  25.198  0.0163 -0.1733  0.0435
 1968DDP     C111803   2.881  13.013  21.050  0.0332  0.1751  0.1227
 1968DDP     P111804   3.140  12.826  20.850  0.1725  0.1749 -0.1575
 1968DDP     P211805   2.491  12.786  20.912  0.2800 -0.0306  0.2787
 1968DDP     C211806   2.168  12.438  21.063  0.0383 -0.1863 -0.2296
 1968DDP     C311807   3.494  12.809  20.595  0.1673 -0.1939 -0.1610
 1968DDP     C411808   2.812  13.339  21.238 -0.2094  0.4404  0.0397
 1969DDP     C111809   0.029  23.993  11.500  0.0453  0.2157 -0.0153
 1969DDP     P111810   0.067  23.632  11.816  0.1358  0.0546 -0.1746
 1969DDP     P211811  30.219  24.368  11.572  0.0996 -0.2765 -0.0317
 1969DDP     C211812  30.064  24.797  11.705 -0.1244  0.1106  0.2789
 1969DDP     C311813   0.000  23.299  11.886 -0.3696  0.3442 -0.1921
 1969DDP     C411814   0.256  23.890  11.068  0.0348 -0.0706 -0.0588
 1970DDP     C111815  16.092  18.846  17.687 -0.1804  0.0392 -0.1567
 1970DDP     P111816  16.116  18.370  17.863 -0.0780 -0.1221 -0.0176
 1970DDP     P211817  16.416  19.096  17.438 -0.0124  0.0234 -0.1268
 1970DDP     C211818  16.760  19.099  17.233  0.2666  0.1383 -0.4369
 1970DDP     C311819  16.256  18.116  18.276  0.1917  0.3356  0.2070
 1970DDP     C411820  15.829  18.881  17.915 -0.0339 -0.1225 -0.0892
 1971DDP     C111821   3.545  17.870  15.186  0.1551 -0.0599 -0.2694
 1971DDP     P111822   3.272  18.177  14.973  0.3235  0.1416  0.0883
 1971DDP     P211823   3.719  17.396  14.919  0.0102  0.0538  0.1617
 1971DDP     C211824   3.970  17.035  14.826 -0.0154 -0.2865  0.0824
 1971DDP     C311825   3.029  18.610  14.846  0.0443 -0.0115 -0.0765
 1971DDP     C411826   3.509  17.818  15.680 -0.0567 -0.0447 -0.1768
 1972DDP     C111827   0.471  20.923  19.359  0.2560  0.0280  0.3219
 1972DDP     P111828   0.782  21.272  19.509  0.1616  0.0074  0.1038
 1972DDP     P211829   0.196  21.118  19.099  0.0402  0.1041  0.2434
 1972DDP     C211830   0.068  21.282  18.735 -0.1385  0.2175 -0.1467
 1972DDP     C311831   0.801  21.756  19.697  0.0207 -0.0030 -0.1286
 1972DDP     C411832   0.553  20.535  19.303  0.3552 -0.0138  0.0591
 1973DDP     C111833   8.971   5.715   8.836 -0.1329  0.1784  0.0751
 1973DDP     P111834   9.338   5.651   9.088 -0.4217 -0.0675  0.0281
 1973DDP     P211835   8.984   5.987   8.524 -0.2287 -0.1100  0.0729
 1973DDP     C211836   8.945   6.089   8.125  0.1209 -0.1183  0.2461
 1973DDP     C311837   9.809   5.406   8.888  0.1121 -0.1294 -0.0140
 1973DDP     C411838   8.711   5.328   8.755  0.0109 -0.0694  0.0070
 1974DDP     C111839   7.887   7.648  28.054 -0.0036  0.0959 -0.1658
 1974DDP     P111840   8.082   7.533  28.355  0.2458  0.2726  0.1816
 1974DDP     P211841   8.048   7.815  27.652 -0.0849 -0.1755  0.3252
 1974DDP     C211842   7.776   7.855  27.219 -0.2124  0.3065  0.0772
 1974DDP     C311843   8.093   7.552  28.748  0.0838  0.5130  0.1129
 1974DDP     C411844   7.431   7.633  28.136 -0.0523  0.1219 -0.2406
 1975DDP     C111845   3.654   3.955  19.959 -0.0358  0.1297  0.0718
 1975DDP     P111846   3.985   3.731  19.874  0.1700  0.0815  0.3984
 1975DDP     P211847   3.518   3.986  20.435  0.3971  0.1468 -0.0533
 1975DDP     C211848   3.597   4.272  20.680 -0.0217 -0.0509  0.1645
 1975DDP     C311849   4.381   3.882  20.031 -0.1230 -0.1637 -0.2607
 1975DDP     C411850   3.608   4.112  19.535  0.0947 -0.0870 -0.2510
 1976DDP     C111851  24.824   8.426  11.116 -0.1504  0.3193  0.0465
 1976DDP     P111852  24.741   8.805  11.261  0.3939 -0.0015 -0.0504
 1976DDP     P211853  24.545   8.178  10.974  0.1481  0.1582 -0.1050
 1976DDP     C211854  24.223   7.990  11.261 -0.0570 -0.3649  0.1859
 1976DDP     C311855  24.377   9.108  11.209 -0.0553  0.0693 -0.4356
 1976DDP     C411856  25.153   8.398  11.161  0.2678 -0.0073 -0.1191
 1977DDP     C111857  25.991   1.386  17.326  0.1682  0.1178  0.4139
 1977DDP     P111858  25.950   1.259  16.863  0.1459  0.3749  0.1525
 1977DDP     P211859  25.768   1.321  17.700 -0.0896 -0.3536  0.1339
 1977DDP     C211860  25.658   1.158  18.117  0.0055 -0.0577  0.0211
 1977DDP     C311861  25.883   1.141  16.556 -0.0391  0.0219  0.1229
 1977DDP     C411862  26.355   1.776  17.394 -0.1697  0.0315 -0.2294
 1978DDP     C111863  21.080   8.558  19.470  0.4490  0.0825 -0.3041
 1978DDP     P111864  21.468   8.311  19.515 -0.0342 -0.0052  0.3387
 1978DDP     P211865  20.960   8.176  19.370  0.0306 -0.0510 -0.4122
 1978DDP     C211866  20.614   7.985  19.333  0.3538 -0.2062 -0.0966
 1978DDP     C311867  21.823   8.223  19.810 -0.0051 -0.1980 -0.2434
 1978DDP     C411868  20.766   8.880  19.671 -0.3067  0.0723 -0.0063
 1979DDP     C111869  30.041   4.555   9.850  0.4931  0.1994  0.1001
 1979DDP     P111870  29.764   4.543   9.480  0.0952  0.3286 -0.1650
 1979DDP     P211871   0.053   4.898   9.815 -0.0997 -0.1106  0.0540
 1979DDP     C211872   0.413   4.993   9.733  0.2251 -0.0541 -0.1596
 1979DDP     C311873  29.756   4.631   9.032 -0.3195 -0.1185  0.1104
 1979DDP     C411874  30.115   4.280  10.123  0.1458  0.1308 -0.0088
 1980DDP     C111875   9.930  25.278   5.315  0.0727 -0.1081 -0.3733
 1980DDP     P111876  10.078  25.695   5.319  0.1035 -0.1536 -0.1080
 1980DDP     P211877   9.541  25.074   5.252 -0.0099  0.0100  0.0737
 1980DDP     C211878   9.182  24.846   5.492 -0.0525 -0.0212  0.0115
 1980DDP     C311879  10.303  25.988   5.178  0.0387 -0.0836  0.2241
 1980DDP     C411880  10.108  24.913   5.385 -0.0470 -0.2566 -0.0338
 1981DDP     C111881   5.002  18.659  13.389  0.0597 -0.3469 -0.3348
 1981DDP     P111882   4.821  18.962  13.562  0.0127  0.0122 -0.1456
 1981DDP     P211883   4.750  18.267  13.312  0.1874  0.1880  0.0968
 1981DDP     C211884   4.490  17.998  13.473  0.0788  0.0651  0.1312
 1981DDP     C311885   4.586  19.167  13.930  0.1762 -0.0993 -0.0796
 1981DDP     C411886   5.436  18.644  13.447  0.1343  0.0808  0.1129
 1982DDP     C111887  18.529   6.552  18.168 -0.0936  0.4597  0.1217
 1982DDP     P111888  18.294   6.713  17.804  0.1100  0.1487  0.1277
 1982DDP     P211889  18.636   6.946  18.471  0.2418  0.1852 -0.2219
 1982DDP     C211890  18.766   7.192  18.886  0.0608 -0.2736 -0.0363
 1982DDP     C311891  18.177   7.054  17.583  0.0267 -0.4376  0.2415
 1982DDP     C411892  18.635   6.116  18.211  0.2578 -0.0479  0.1989
 1983DDP     C111893  21.133  19.629  11.919  0.2516  0.2122  0.2299
 1983DDP     P111894  21.479  19.533  12.149 -0.2151  0.0296  0.1449
 1983DDP     P211895  20.981  19.994  11.642  0.0495 -0.1101 -0.0706
 1983DDP     C211896  20.905  19.997  11.111  0.1226 -0.1001  0.2838
 1983DDP     C311897  21.815  19.355  12.368 -0.3196  0.0663 -0.2488
 1983DDP     C411898  20.862  19.500  12.198 -0.0414 -0.6345 -0.3711
 1984DDP     C111899   4.071  25.002   0.544  0.0260  0.0751  0.0278
 1984DDP     P111900   3.806  24.646   0.468 -0.1214 -0.3172  0.1347
 1984DDP     P211901   4.069  24.973   0.922  0.1105  0.0272  0.4381
 1984DDP     C211902   4.018  24.681   1.332 -0.1776 -0.0936 -0.0946
 1984DDP     C311903   3.892  24.232   0.289 -0.0947 -0.3039  0.4024
 1984DDP     C411904   4.177  25.418   0.341  0.1702  0.0444  0.0702
 1985DDP     C111905  27.963   5.854  17.349  0.0451 -0.2321 -0.1051
 1985DDP     P111906  28.329   5.643  17.200  0.2032 -0.1198  0.2941
 1985DDP     P211907  27.520   5.963  17.163  0.1688  0.4186  0.2775
 1985DDP     C211908  27.197   6.318  17.302 -0.0619 -0.0129  0.0249
 1985DDP     C311909  28.623   5.615  16.867 -0.1297  0.1699  0.2249
 1985DDP     C411910  28.015   5.869  17.801 -0.1439 -0.2019  0.1870
 1986DDP     C111911   4.209   2.430   4.841 -0.0317  0.1761 -0.0379
 1986DDP     P111912   4.583   2.722   4.801  0.0527  0.2263 -0.0986
 1986DDP     P211913   4.146   2.100   5.118 -0.0749 -0.2908  0.0415
 1986DDP     C211914   4.294   1.949   5.461  0.0857  0.1607 -0.3561
 1986DDP     C311915   4.669   3.120   4.709  0.2037 -0.0188  0.1293
 1986DDP     C411916   3.913   2.314   4.552  0.0212  0.2026  0.1182
 1987DDP     C111917  20.860  28.449   0.667 -0.3800  0.3059 -0.0683
 1987DDP     P111918  20.632  28.374   0.295 -0.0175  0.0594 -0.1824
 1987DDP     P211919  20.971  28.845   0.652  0.2235 -0.1057  0.2505
 1987DDP     C211920  21.297  29.133   0.771  0.1304  0.1017  0.0887
 1987DDP     C311921  20.253  28.224   0.234 -0.1464 -0.0937 -0.1428
 1987DDP     C411922  20.960  28.212   1.037  0.1436  0.2332  0.1557
 1988DDP     C111923  25.484   2.249  27.603  0.1321  0.1576 -0.1746
 1988DDP     P111924  25.120   2.116  27.872 -0.3113  0.0168 -0.1464
 1988DDP     P211925  25.756   2.611  27.624  0.1868  0.0903  0.3518
 1988DDP     C211926  25.683   3.094  27.487  0.3822  0.0780 -0.1270
 1988DDP     C311927  24.883   1.932  28.066 -0.1257 -0.2157 -0.1464
 1988DDP     C411928  25.648   1.858  27.379  0.3710 -0.1587 -0.0987
 1989DDP     C111929  13.484   9.221   3.592 -0.0096  0.1764 -0.0666
 1989DDP     P111930  13.481   9.358   3.172  0.1118 -0.2334  0.1284
 1989DDP     P211931  13.849   9.194   3.874 -0.1272 -0.0114 -0.0267
 1989DDP     C211932  14.001   9.308   4.183  0.2122 -0.0553  0.0229
 1989DDP     C311933  13.767   9.456   2.888  0.0791  0.0560 -0.0522
 1989DDP     C411934  13.233   8.956   3.868  0.0215 -0.3090  0.1135
 1990DDP     C111935  28.187   8.265  15.334  0.1664 -0.2629 -0.2993
 1990DDP     P111936  28.586   8.341  15.427 -0.2874 -0.2120  0.0998
 1990DDP     P211937  28.302   7.932  15.144  0.2526 -0.0795 -0.0879
 1990DDP     C211938  27.918   7.651  14.992  0.4594 -0.0103  0.0991
 1990DDP     C311939  28.834   8.637  15.231 -0.1448  0.0210  0.2160
 1990DDP     C411940  27.753   8.331  15.493 -0.3792 -0.0222  0.3708
 1991DDP     C111941  14.058  14.578  15.501  0.1515  0.0033 -0.1531
 1991DDP     P111942  14.232  14.626  15.828  0.0088  0.0720 -0.0341
 1991DDP     P211943  14.326  14.478  15.168 -0.1741  0.1682 -0.0226
 1991DDP     C211944  14.454  14.161  14.890 -0.0413  0.1252 -0.0963
 1991DDP     C311945  14.182  14.576  16.221 -0.0497  0.0215 -0.0584
 1991DDP     C411946  13.626  14.809  15.387 -0.1501 -0.0843  0.0748
 1992DDP     C111947  21.180  24.168   3.814 -0.4433 -0.0062  0.2015
 1992DDP     P111948  21.537  23.885   3.795 -0.0251  0.1891 -0.1636
 1992DDP     P211949  20.871  24.022   3.513  0.0744 -0.0246  0.1536
 1992DDP     C211950  20.360  23.965   3.478  0.0961  0.3615  0.1273
 1992DDP     C311951  22.014  23.727   3.806 -0.1393 -0.2009 -0.0946
 1992DDP     C411952  21.193  24.581   4.125  0.1748 -0.0253  0.0346
 1993DDP     C111953   3.149   4.922   2.803 -0.3007 -0.2661  0.1446
 1993DDP     P111954   3.258   4.748   3.191 -0.1559  0.0467  0.0007
 1993DDP     P211955   3.307   4.992   2.387  0.1341  0.1673  0.0390
 1993DDP     C211956   3.769   4.956   2.191 -0.0682  0.0862 -0.2569
 1993DDP     C311957   3.601   4.790   3.436 -0.0845 -0.1685  0.0317
 1993DDP     C411958   2.766   5.168   2.707  0.1893  0.2064 -0.2796
 1994DDP     C111959  27.955  13.128   7.956  0.1976  0.0357  0.0776
 1994DDP     P111960  27.694  12.808   8.067  0.2553 -0.2199 -0.1425
 1994DDP     P211961  28.316  13.290   7.724 -0.2200  0.3040  0.1340
 1994DDP     C211962  28.673  13.503   7.713  0.1901 -0.0906  0.0471
 1994DDP     C311963  27.340  12.633   8.080 -0.1468  0.2618  0.0123
 1994DDP     C411964  27.798  13.438   8.059 -0.1279 -0.1000  0.3139
 1995DDP     C111965   7.426   5.593  25.025  0.4198  0.0415 -0.0032
 1995DDP     P111966   7.298   5.146  24.978 -0.0658 -0.0270  0.1924
 1995DDP     P211967   7.384   5.763  25.387  0.0934  0.2168 -0.1305
 1995DDP     C211968   7.082   5.943  25.555 -0.0414 -0.0669 -0.2382
 1995DDP     C311969   7.038   5.103  24.557 -0.0446  0.0218  0.2082
 1995DDP     C411970   7.791   5.879  24.907 -0.1687 -0.1993 -0.2525
 1996DDP     C111971  10.763  16.701  18.712 -0.1973  0.2863 -0.0741
 1996DDP     P111972  10.328  16.912  18.740  0.1635 -0.0780  0.2931
 1996DDP     P211973  10.907  16.607  18.236 -0.2013 -0.0727 -0.2083
 1996DDP     C211974  11.124  16.823  17.994  0.0051 -0.1043  0.0100
 1996DDP     C311975  10.189  17.265  18.945 -0.0510 -0.2410  0.4933
 1996DDP     C411976  11.006  16.562  19.052 -0.1260  0.0383  0.1336
 1997DDP     C111977   0.370  11.993  11.586 -0.0642 -0.0416 -0.0966
 1997DDP     P111978   0.577  11.819  11.971  0.0551  0.1549  0.0163
 1997DDP     P211979  -0.005  12.175  11.432  0.0016  0.1682 -0.1300
 1997DDP     C211980  30.232  12.531  11.054 -0.1263  0.0773  0.1511
 1997DDP     C311981   0.924  12.055  12.111 -0.1695  0.0947  0.1025
 1997DDP     C411982   0.314  11.723  11.214 -0.0261  0.3147 -0.1064
 1998DDP     C111983  27.569  22.456  26.313 -0.2557  0.1472 -0.0238
 1998DDP     P111984  27.539  22.755  25.991  0.0160  0.0102 -0.1374
 1998DDP     P211985  27.870  22.298  26.579  0.6428  0.0953  0.2584
 1998DDP     C211986  27.861  22.333  27.010  0.0077 -0.2607  0.3018
 1998DDP     C311987  27.311  22.588  25.603 -0.4274 -0.0172 -0.0847
 1998DDP     C411988  27.186  22.477  26.524  0.2244 -0.0309  0.1754
 1999DDP     C111989   1.705  15.810   2.929  0.0223 -0.0247 -0.0078
 1999DDP     P111990   1.731  15.654   3.320  0.0387 -0.2138  0.1770
 1999DDP     P211991   1.288  15.946   2.801  0.1008  0.1955 -0.0255
 1999DDP     C211992   0.913  16.072   2.569  0.2324  0.1795  0.2404
 1999DDP     C311993   2.133  15.434   3.517  0.1925 -0.0547  0.3675
 1999DDP     C411994   2.157  15.976   2.797 -0.0403  0.0782  0.0067
 2000DDP     C111995  19.619  26.467  22.227  0.0405 -0.1463  0.1762
 2000DDP     P111996  19.201  26.289  22.232  0.1513 -0.2445 -0.0362
 2000DDP     P211997  19.985  26.225  22.143  0.0879 -0.3893  0.1124
 2000DDP     C211998  20.142  25.861  22.443 -0.1255  0.0491  0.1886
 2000DDP     C311999  19.041  25.881  22.226 -0.1047 -0.1506  0.1361
 2000DDP     C412000  19.639  26.962  22.280 -0.0624 -0.0391  0.0288
 2001DDP     C112001  27.720   4.023   2.559  0.2875 -0.2187  0.1289
 2001DDP     P112002  28.026   3.866   2.291  0.0500  0.5036  0.1563
 2001DDP     P212003  27.704   4.333   2.842 -0.2350  0.0457 -0.0218
 2001DDP     C212004  27.509   4.504   3.249 -0.0159  0.2951  0.0879
 2001DDP     C312005  28.257   3.537   2.263  0.0044  0.2431  0.1339
 2001DDP     C412006  27.352   3.780   2.718  0.2035 -0.3478 -0.3006
 2002DDP     C112007  10.251  22.074   0.167 -0.0456  0.1119  0.1797
 2002DDP     P112008  10.109  22.060  30.084  0.0569 -0.2446  0.1372
 2002DDP     P212009  10.304  22.438   0.302  0.3911 -0.5646 -0.3342
 2002DDP     C212010  10.278  22.889   0.479 -0.0962 -0.2869 -0.2544
 2002DDP     C312011  10.088  22.148  29.651 -0.1538 -0.2026 -0.2370
 2002DDP     C412012  10.253  21.686   0.402 -0.2316 -0.5105  0.0364
 2003DDP     C112013  17.023   4.166   3.386  0.0693  0.1293  0.1064
 2003DDP     P112014  16.651   3.918   3.262  0.1492  0.0018  0.2381
 2003DDP     P212015  17.499   4.102   3.305  0.0495  0.5105 -0.1592
 2003DDP     C212016  17.869   3.814   3.416  0.1032 -0.0853  0.1835
 2003DDP     C312017  16.352   3.542   3.268 -0.1959  0.1137 -0.1841
 2003DDP     C412018  16.955   4.565   3.616  0.3260 -0.0557 -0.0226
 2004DDP     C112019   6.556   6.731  20.679  0.3260  0.2793  0.0389
 2004DDP     P112020   6.230   6.753  20.880 -0.0958 -0.2053  0.1876
 2004DDP     P212021   6.861   6.420  20.861  0.0121 -0.0775 -0.0996
 2004DDP     C212022   7.100   6.247  21.191 -0.1035  0.0002  0.1179
 2004DDP     C312023   6.297   6.869  21.326 -0.4675 -0.0271  0.3400
 2004DDP     C412024   6.635   7.082  20.496 -0.1498 -0.0811  0.1648
 2005DDP     C112025  28.530  14.544  23.777 -0.0825 -0.1601 -0.1598
 2005DDP     P112026  28.332  14.642  23.482 -0.0209  0.1562 -0.1156
 2005DDP     P212027  28.758  14.974  23.966  0.0801  0.2134 -0.0303
 2005DDP     C212028  28.803  15.436  23.959  0.0449  0.2804  0.1842
 2005DDP     C312029  28.398  15.056  23.276 -0.0465  0.0709  0.0278
 2005DDP     C412030  28.517  14.039  23.822  0.2183 -0.0993 -0.0141
 2006DDP     C112031   5.182   9.572  22.927  0.0494  0.0067  0.0165
 2006DDP     P112032   5.304   9.292  23.317 -0.1367 -0.1335 -0.2114
 2006DDP     P212033   5.225   9.943  22.954  0.0504 -0.0196 -0.3503
 2006DDP     C212034   4.897  10.325  22.983  0.4092 -0.1986 -0.0949
 2006DDP     C312035   5.312   9.245  23.808 -0.0710 -0.0289 -0.2028
 2006DDP     C412036   5.123   9.444  22.433 -0.0780  0.1420 -0.3308
 2007DDP     C112037  26.455  27.397   8.935  0.1741  0.1777 -0.1465
 2007DDP     P112038  26.338  27.410   8.514 -0.3221 -0.2524  0.0822
 2007DDP     P212039  26.181  27.576   9.306 -0.3848  0.3095 -0.0921
 2007DDP     C212040  25.780  27.527   9.616  0.2061 -0.1106 -0.2531
 2007DDP     C312041  26.248  27.342   8.031 -0.3488 -0.3795 -0.2981
 2007DDP     C412042  26.934  27.193   9.011 -0.4148  0.3680 -0.0156
 2008DDP     C112043   2.365   4.456  11.532  0.0432 -0.1614 -0.2547
 2008DDP     P112044   2.149   4.079  11.592 -0.1073 -0.3936 -0.0655
 2008DDP     P212045   2.375   4.702  11.122 -0.0971  0.1077 -0.2916
 2008DDP     C212046   2.379   4.766  10.681 -0.1762 -0.1624  0.0272
 2008DDP     C312047   1.741   3.900  11.895 -0.1049 -0.1204  0.3444
 2008DDP     C412048   2.470   4.702  11.957  0.2622  0.1775  0.2509
 2009DDP     C112049   2.952   0.071   3.028 -0.0929 -0.1734 -0.0126
 2009DDP     P112050   2.983   0.408   2.723  0.1092  0.1873  0.0690
 2009DDP     P212051   2.957   0.164   3.499 -0.2399  0.0675 -0.3305
 2009DDP     C212052   2.896   0.337   3.844 -0.0766 -0.1495 -0.0469
 2009DDP     C312053   2.806   0.895   2.670  0.0122 -0.2797 -0.4124
 2009DDP     C412054   3.136  29.980   2.882  0.1598 -0.0049  0.0188
 2010DDP     C112055   9.330   5.831  25.843 -0.0697  0.0357 -0.1199
 2010DDP     P112056   9.506   6.036  25.594  0.1078  0.0659 -0.2460
 2010DDP     P212057   8.965   5.927  25.920  0.2365 -0.1975 -0.4274
 2010DDP     C212058   8.702   6.128  26.186  0.0367 -0.1849 -0.3791
 2010DDP     C312059   9.584   5.760  25.165 -0.3858 -0.1361 -0.1412
 2010DDP     C412060   9.342   5.535  26.230 -0.3322  0.1583  0.1720
 2011DDP     C112061   6.379  22.854  19.312  0.1566 -0.1246  0.0493
 2011DDP     P112062   6.194  23.300  19.541 -0.0636  0.3055  0.0834
 2011DDP     P212063   6.233  22.574  19.116 -0.3096 -0.1832  0.2637
 2011DDP     C212064   6.255  22.144  18.899 -0.1392 -0.1569  0.1367
 2011DDP     C312065   5.905  23.655  19.596 -0.0175 -0.1958 -0.3117
 2011DDP     C412066   6.618  22.467  19.466 -0.2871  0.0693  0.1761
 2012DDP     C112067  15.167  13.622  10.579  0.1036  0.3100  0.2961
 2012DDP     P112068  14.803  13.528  10.560 -0.0246  0.2240 -0.1726
 2012DDP     P212069  15.357  13.693  11.027  0.2968 -0.0863  0.0263
 2012DDP     C212070  15.275  13.738  11.473 -0.4402  0.0899  0.2429
 2012DDP     C312071  14.490  13.682  10.723  0.1655 -0.2400 -0.0794
 2012DDP     C412072  15.486  13.490  10.333  0.0786  0.0158  0.0602
 2013DDP     C112073  28.292  11.621  24.112 -0.0463  0.2614  0.0390
 2013DDP     P112074  27.924  11.328  24.184 -0.3598  0.0936  0.0442
 2013DDP     P212075  28.489  11.727  24.526  0.2592  0.2151  0.1350
 2013DDP     C212076  28.551  11.835  24.965  0.1798 -0.4413 -0.0757
 2013DDP     C312077  27.514  11.123  24.143  0.0668  0.0561  0.1447
 2013DDP     C412078  28.429  11.821  23.719 -0.1771  0.0661  0.2360
 2014DDP     C112079  21.154  18.254   7.086  0.1481 -0.0449  0.2140
 2014DDP     P112080  20.780  18.347   7.400 -0.1565 -0.3123 -0.1679
 2014DDP     P212081  21.422  18.608   6.981 -0.0628  0.2325 -0.0764
 2014DDP     C212082  21.814  18.796   6.937  0.1492  0.1389 -0.1593
 2014DDP     C312083  20.600  18.732   7.730 -0.0093  0.2075  0.0662
 2014DDP     C412084  21.276  17.898   6.879 -0.4203  0.0723 -0.0809
 2015DDP     C112085  11.349  24.734  13.400  0.0560 -0.0989 -0.3318
 2015DDP     P112086  10.919  24.560  13.465  0.0897  0.0237  0.0039
 2015DDP     P212087  11.322  25.151  13.325 -0.0911  0.0682  0.0181
 2015DDP     C212088  11.444  25.469  12.981 -0.1149  0.4664 -0.0976
 2015DDP     C312089  10.614  24.171  13.379  0.0076 -0.0750 -0.2613
 2015DDP     C412090  11.790  24.474  13.269  0.0958 -0.1175  0.0896
 2016DDP     C112091  11.782  23.876   9.441  0.2856 -0.5165  0.3078
 2016DDP     P112092  11.404  23.945   9.220  0.0626  0.5407 -0.0934
 2016DDP     P212093  11.632  23.856   9.945  0.2190  0.2878 -0.0912
 2016DDP     C212094  11.686  23.995  10.320 -0.2395  0.4104  0.2551
 2016DDP     C312095  11.131  24.258   8.960 -0.1303 -0.0951 -0.1815
 2016DDP     C412096  12.014  23.996   9.045 -0.0409 -0.0302  0.0692
 2017DDP     C112097  13.603  28.480  18.967  0.3192 -0.0632  0.1893
 2017DDP     P112098  13.430  28.475  19.344 -0.0440 -0.1798  0.0585
 2017DDP     P212099  13.163  28.457  18.796 -0.2223  0.1652  0.0371
 2017DDP     C212100  13.055  28.615  18.372  0.0286  0.2161  0.0753
 2017DDP     C312101  13.312  28.157  19.628  0.2441 -0.0219 -0.2243
 2017DDP     C412102  13.972  28.719  18.827 -0.2044 -0.1638  0.3061
 2018DDP     C112103   0.580  21.245  18.725  0.1436  0.2213  0.0195
 2018DDP     P112104   0.416  21.702  18.720  0.1180 -0.3054 -0.3330
 2018DDP     P212105   0.821  21.146  18.984  0.3568  0.2826  0.1917
 2018DDP     C212106   0.987  20.828  19.299  0.0667  0.4915  0.1983
 2018DDP     C312107   0.326  22.223  18.811  0.4858  0.3166  0.0625
 2018DDP     C412108   0.623  21.047  18.286  0.1558  0.2341  0.2798
 2019DDP     C112109  20.551  19.275  20.827 -0.2281 -0.0695 -0.1906
 2019DDP     P112110  20.424  19.595  20.863  0.0158 -0.0223 -0.0270
 2019DDP     P212111  20.378  18.981  21.005 -0.1327  0.2209 -0.0530
 2019DDP     C212112  20.270  18.971  21.417  0.0927  0.3939  0.2106
 2019DDP     C312113  20.131  19.916  20.758  0.0041 -0.1202  0.0617
 2019DDP     C412114  20.860  19.265  20.603  0.2185  0.3037  0.1714
 2020DDP     C112115  11.419  -0.001  24.725  0.2106 -0.3958 -0.0960
 2020DDP     P112116  11.022  30.242  24.474  0.3329 -0.2561 -0.1431
 2020DDP     P212117  11.389   0.302  25.024 -0.1686 -0.1525  0.0751
 2020DDP     C212118  11.480   0.226  25.481  0.2542 -0.3549  0.2667
 2020DDP     C312119  11.034  30.164  24.041  0.2830 -0.1497 -0.1796
 2020DDP     C412120  11.754  30.164  24.834 -0.1031  0.0004 -0.0212
 2021DDP     C112121  25.063   4.588   2.227  0.1062 -0.1790 -0.1594
 2021DDP     P112122  24.782   4.672   2.507  0.0973  0.0837  0.1080
 2021DDP     P212123  24.978   4.192   2.026  0.0534 -0.0871 -0.3343
 2021DDP     C212124  24.616   4.019   1.776 -0.5275 -0.2614  0.0758
 2021DDP     C312125  24.341   4.575   2.442 -0.1073 -0.0511 -0.1189
 2021DDP     C412126  25.422   4.892   1.958  0.0789 -0.3788  0.2010
 2022DDP     C112127  12.600  26.295  29.267  0.1366 -0.1010 -0.2092
 2022DDP     P112128  12.262  26.138  29.056 -0.0506  0.0192 -0.2499
 2022DDP     P212129  12.958  26.538  29.033 -0.0704 -0.1046  0.1547
 2022DDP     C212130  13.106  27.039  28.999 -0.3074  0.0513 -0.0546
 2022DDP     C312131  11.828  25.963  29.074 -0.0877 -0.0959  0.1066
 2022DDP     C412132  12.566  26.301  29.717  0.3569 -0.0529 -0.2130
 2023DDP     C112133  29.381  11.809  29.547 -0.1649  0.1067 -0.3909
 2023DDP     P112134  29.463  11.823  30.043  0.2870  0.1838 -0.0125
 2023DDP     P212135  29.092  12.164  29.461  0.2156 -0.1349 -0.1262
 2023DDP     C212136  28.662  12.169  29.333 -0.1215 -0.0042  0.1345
 2023DDP     C312137  29.516  12.125   0.113 -0.0140  0.3253  0.0898
 2023DDP     C412138  29.696  11.668  29.232 -0.1724  0.0437  0.3076
 2024DDP     C112139  30.185  25.552  30.022  0.2029 -0.0413 -0.0658
 2024DDP     P112140  29.752  25.422  30.178 -0.0852  0.0537 -0.2493
 2024DDP     P212141  30.244  25.381   0.113 -0.2000 -0.2200  0.2778
 2024DDP     C212142  30.342  25.029   0.441  0.1640 -0.0496  0.0635
 2024DDP     C312143  29.406  25.669  30.252 -0.0925 -0.1155  0.1458
 2024DDP     C412144  -0.020  25.714  29.570 -0.1185  0.2001  0.0326
 2025DDP     C112145  18.896  21.125  23.340 -0.0506  0.2507  0.1380
 2025DDP     P112146  19.188  21.383  23.108 -0.0911 -0.3021  0.0844
 2025DDP     P212147  19.146  20.924  23.541  0.0522 -0.2957  0.1700
 2025DDP     C212148  19.213  20.567  23.441  0.1123  0.0919  0.0747
 2025DDP     C312149  19.443  21.655  22.750 -0.0328  0.0850 -0.0741
 2025DDP     C412150  18.439  21.073  23.417 -0.0561  0.1102  0.1746
 2026DDP     C112151  12.199  26.859  28.913 -0.1877  0.2508 -0.2439
 2026DDP     P112152  12.163  27.208  28.834 -0.0201  0.0210 -0.4121
 2026DDP     P212153  11.991  26.575  29.309 -0.1342 -0.2050  0.1496
 2026DDP     C212154  12.100  26.257  29.529 -0.1668 -0.2264 -0.0268
 2026DDP     C312155  11.946  27.418  28.384 -0.0739  0.2653 -0.0528
 2026DDP     C412156  12.484  26.548  28.832  0.0387 -0.2521 -0.0927
 2027DDP     C112157   5.541  13.789   2.988  0.1524  0.0276 -0.2756
 2027DDP     P112158   5.268  13.852   3.317  0.1179 -0.2611 -0.0731
 2027DDP     P212159   5.430  13.363   2.838 -0.0823 -0.0834 -0.0299
 2027DDP     C212160   5.399  13.248   2.397 -0.0495  0.0837 -0.0346
 2027DDP     C312161   5.100  13.826   3.702  0.0516  0.0126  0.1871
 2027DDP     C412162   5.844  14.027   2.768  0.0205 -0.0398  0.2467
 2028DDP     C112163  24.140   8.867   1.261 -0.1565  0.1048  0.0108
 2028DDP     P112164  24.053   8.648   1.638  0.1422 -0.2599  0.1765
 2028DDP     P212165  24.095   8.690   0.831 -0.0840 -0.1357  0.3062
 2028DDP     C212166  24.019   8.758   0.367  0.1949 -0.1793 -0.0771
 2028DDP     C312167  23.908   8.405   1.896  0.1079 -0.2214  0.0439
 2028DDP     C412168  24.193   9.222   1.273  0.1533  0.1388  0.0180
 2029DDP     C112169   7.872  22.773  10.795 -0.1668  0.3089  0.0646
 2029DDP     P112170   7.726  22.798  11.227 -0.0178 -0.0668 -0.3141
 2029DDP     P212171   7.745  22.925  10.341 -0.0314  0.1156  0.0833
 2029DDP     C212172   7.409  23.117  10.087  0.1733  0.3035  0.1696
 2029DDP     C312173   8.019  22.771  11.639  0.3392  0.0071 -0.1555
 2029DDP     C412174   8.351  22.721  10.719 -0.0206  0.2611  0.0238
 2030DDP     C112175   5.000  17.358   9.293  0.1059 -0.0722 -0.0360
 2030DDP     P112176   5.405  17.534   9.310  0.1103 -0.1552  0.1275
 2030DDP     P212177   4.895  17.085   8.986  0.2142  0.1537 -0.1993
 2030DDP     C212178   4.555  16.980   8.759  0.0392 -0.2938 -0.3592
 2030DDP     C312179   5.706  17.198   9.263 -0.1280  0.1487 -0.2438
 2030DDP     C412180   4.674  17.275   9.627 -0.1766  0.0211  0.0705
 2031DDP     C112181  22.083  13.685  18.279  0.1018 -0.1764 -0.1156
 2031DDP     P112182  21.743  13.424  18.118 -0.1783 -0.0907 -0.1060
 2031DDP     P212183  22.488  13.463  18.391  0.0254 -0.1934 -0.0676
 2031DDP     C212184  22.846  13.486  18.311 -0.2202 -0.1284  0.1133
 2031DDP     C312185  21.385  13.495  18.046 -0.0270  0.0933  0.0681
 2031DDP     C412186  22.019  14.059  18.233  0.0310 -0.1414  0.2268
 2032DDP     C112187   2.260   3.825  13.993 -0.0144 -0.0038  0.0472
 2032DDP     P112188   2.213   3.789  14.478 -0.1802 -0.0662  0.1222
 2032DDP     P212189   2.291   3.424  13.747  0.2664 -0.1787 -0.0256
 2032DDP     C212190   2.168   3.041  13.741  0.1427 -0.2461  0.1543
 2032DDP     C312191   2.040   3.920  14.843  0.1252  0.2307 -0.1033
 2032DDP     C412192   2.477   4.172  13.880  0.0810 -0.2785  0.2548
 2033DDP     C112193  21.239   3.048  28.026  0.0039 -0.0770  0.2401
 2033DDP     P112194  20.929   2.619  28.139 -0.1457 -0.1015 -0.2592
 2033DDP     P212195  21.082   3.179  27.592 -0.0251 -0.1915  0.0593
 2033DDP     C212196  20.972   2.918  27.191 -0.0424  0.0180  0.0983
 2033DDP     C312197  20.518   2.387  28.214 -0.0737  0.0431  0.4465
 2033DDP     C412198  21.564   3.232  28.412  0.1712  0.0203 -0.1360
 2034DDP     C112199   0.499  24.041   2.200  0.3714  0.2192 -0.0254
 2034DDP     P112200   0.271  23.999   1.773  0.1104 -0.1483  0.1990
 2034DDP     P212201   0.358  24.400   2.448  0.0296  0.0637 -0.1764
 2034DDP     C212202   0.304  24.654   2.832  0.3006 -0.0470  0.0229
 2034DDP     C312203   0.155  23.759   1.443 -0.1938 -0.0711 -0.0745
 2034DDP     C412204   0.684  23.641   2.367  0.2126  0.3112  0.1853
 2035DDP     C112205   3.337   3.567   1.347 -0.1796 -0.1000  0.0954
 2035DDP     P112206   3.509   3.859   1.624 -0.4707 -0.0112 -0.2058
 2035DDP     P212207   3.014   3.650   1.048 -0.0084 -0.3260 -0.1575
 2035DDP     C212208   2.684   3.575   0.731 -0.3077 -0.0389  0.0005
 2035DDP     C312209   3.610   4.250   1.677 -0.0286 -0.4202  0.0231
 2035DDP     C412210   3.379   3.125   1.498 -0.3114 -0.2180 -0.0969
 2036DDP     C112211  22.089  26.532  19.405 -0.3867 -0.0794  0.0428
 2036DDP     P112212  22.250  26.942  19.230  0.1130  0.0906 -0.0881
 2036DDP     P212213  21.679  26.487  19.726 -0.0275  0.0251  0.1578
 2036DDP     C212214  21.253  26.544  19.377 -0.0357 -0.0559  0.0567
 2036DDP     C312215  21.990  27.267  19.183  0.0230  0.1459  0.0128
 2036DDP     C412216  22.201  26.140  19.357 -0.0365 -0.0232 -0.0235
 2037DDP     C112217  24.665  19.927   5.553 -0.0678  0.1246  0.1881
 2037DDP     P112218  24.687  19.531   5.815  0.0540  0.2809 -0.1624
 2037DDP     P212219  24.327  20.104   5.708  0.0163 -0.1204  0.0804
 2037DDP     C212220  23.982  20.383   5.845 -0.2424 -0.1469 -0.2025
 2037DDP     C312221  24.933  19.240   6.019  0.0498 -0.0052 -0.0150
 2037DDP     C412222  24.566  20.019   5.079  0.2550  0.1544  0.0476
 2038DDP     C112223  20.533  24.717  25.684 -0.0418 -0.0749 -0.0990
 2038DDP     P112224  20.283  24.597  25.877 -0.1137  0.2730 -0.2177
 2038DDP     P212225  20.477  24.885  25.273 -0.2578  0.2182  0.3282
 2038DDP     C212226  20.486  25.168  24.900  0.0303  0.1370  0.1469
 2038DDP     C312227  20.239  24.167  25.964 -0.0796  0.0917  0.2539
 2038DDP     C412228  21.022  24.601  25.908 -0.0050  0.2495  0.1509
 2039DDP     C112229  28.404  16.000  22.341 -0.0386 -0.0107  0.1341
 2039DDP     P112230  28.281  16.151  21.975 -0.0547  0.1045  0.0997
 2039DDP     P212231  28.843  16.102  22.586 -0.4420  0.0084 -0.1640
 2039DDP     C212232  29.234  16.142  22.665 -0.2410 -0.1075  0.3442
 2039DDP     C312233  28.226  16.388  21.637  0.1544  0.0642  0.1166
 2039DDP     C412234  28.111  15.898  22.631  0.0313  0.0057 -0.4026
 2040DDP     C112235  17.473  11.711  29.877  0.1779  0.3830  0.3745
 2040DDP     P112236  17.307  11.775  29.446  0.3235 -0.0101 -0.2953
 2040DDP     P212237  17.597  11.289  29.950  0.2436 -0.0608 -0.1614
 2040DDP     C212238  17.851  10.898  29.775 -0.4402 -0.0832 -0.1472
 2040DDP     C312239  17.378  11.724  29.050 -0.0102  0.1554 -0.0359
 2040DDP     C412240  17.436  11.878   0.023 -0.0103 -0.2985 -0.1780
 2041DDP     C112241  12.429  25.632  15.651 -0.1867 -0.0553 -0.0099
 2041DDP     P112242  12.377  25.896  15.322  0.0687  0.3861 -0.1980
 2041DDP     P212243  12.567  25.242  15.771  0.0958  0.0381  0.1029
 2041DDP     C212244  12.411  24.891  16.086  0.0224 -0.2184  0.0336
 2041DDP     C312245  12.269  26.302  15.207 -0.1574 -0.1934  0.1193
 2041DDP     C412246  12.281  26.009  15.798 -0.1289  0.0004  0.0709
 2042DDP     C112247   7.554  26.487  29.595 -0.3162  0.0084  0.1470
 2042DDP     P112248   7.272  26.593  30.021 -0.1533 -0.0657 -0.1248
 2042DDP     P212249   7.798  26.834  29.419 -0.0993  0.1606  0.0675
 2042DDP     C212250   8.145  26.999  29.408  0.1771 -0.2255  0.2663
 2042DDP     C312251   7.124  26.956  30.153  0.1111  0.1134 -0.0715
 2042DDP     C412252   7.667  26.080  29.660 -0.2348  0.1356 -0.0590
 2043DDP     C112253  28.484  20.528  12.786 -0.2394 -0.0295 -0.0487
 2043DDP     P112254  28.844  20.718  12.808  0.1316 -0.1604 -0.1932
 2043DDP     P212255  28.327  20.181  12.445 -0.1460 -0.1326 -0.2357
 2043DDP     C212256  28.274  19.906  12.193 -0.0189  0.1866 -0.0224
 2043DDP     C312257  28.890  21.146  13.109  0.0655  0.2892 -0.3448
 2043DDP     C412258  28.194  20.378  13.149  0.0800  0.1171  0.3929
 2044DDP     C112259   3.825   8.063   8.204  0.0258 -0.1397 -0.0839
 2044DDP     P112260   4.105   8.159   7.898 -0.0607 -0.0627  0.1002
 2044DDP     P212261   3.365   8.132   8.305  0.0262  0.0208 -0.2210
 2044DDP     C212262   3.138   8.528   8.396 -0.1302  0.1087  0.0421
 2044DDP     C312263   4.492   8.428   7.969 -0.1896  0.0962  0.1075
 2044DDP     C412264   3.823   7.662   8.407  0.1219  0.1803 -0.0631
 2045DDP     C112265  21.512  19.619  18.773  0.0959 -0.0622 -0.0030
 2045DDP     P112266  21.330  19.198  18.554  0.0473 -0.2233 -0.1183
 2045DDP     P212267  21.590  20.099  18.752  0.1357 -0.0595 -0.1200
 2045DDP     C212268  21.242  20.462  18.789 -0.0497 -0.1347 -0.1723
 2045DDP     C312269  21.128  18.851  18.670 -0.2268  0.0608 -0.0185
 2045DDP     C412270  21.946  19.292  18.881 -0.0425  0.0938 -0.0457
 2046DDP     C112271  26.558  17.026  11.845  0.2624  0.3926  0.1585
 2046DDP     P112272  26.198  17.318  12.009 -0.1402 -0.0846  0.2265
 2046DDP     P212273  26.314  16.636  11.756  0.0571  0.0402 -0.0639
 2046DDP     C212274  26.059  16.292  11.923 -0.0309 -0.2015 -0.1688
 2046DDP     C312275  26.215  17.618  12.279 -0.3477  0.3868 -0.0139
 2046DDP     C412276  26.956  17.085  11.849 -0.0580  0.1747 -0.0376
 2047DDP     C112277   6.304   2.822   5.032 -0.3051 -0.2381 -0.2430
 2047DDP     P112278   6.442   3.023   5.421  0.1477  0.1998  0.1641
 2047DDP     P212279   5.968   2.556   5.108  0.1587  0.0752 -0.1766
 2047DDP     C212280   5.762   2.220   5.342 -0.1639  0.3077 -0.3899
 2047DDP     C312281   6.539   3.295   5.759 -0.1186  0.0964 -0.1697
 2047DDP     C412282   6.538   2.775   4.684  0.2487 -0.2166  0.1304
 2048DDP     C112283  13.732  15.197  15.774  0.0605  0.1683 -0.0820
 2048DDP     P112284  13.925  15.088  16.176  0.3044 -0.1781 -0.0746
 2048DDP     P212285  14.172  15.239  15.617  0.2719  0.1138  0.0335
 2048DDP     C212286  14.567  15.434  15.507 -0.0410 -0.0235 -0.0048
 2048DDP     C312287  13.866  15.184  16.597 -0.0181 -0.3470  0.0693
 2048DDP     C412288  13.331  15.098  15.639  0.1609 -0.1422  0.2967
 2049DDP     C112289  28.989  22.679  13.860 -0.0470  0.1901  0.0721
 2049DDP     P112290  28.622  22.754  13.527  0.2272 -0.2060 -0.1019
 2049DDP     P212291  28.942  22.512  14.281  0.0467  0.1116  0.0877
 2049DDP     C212292  28.615  22.170  14.512  0.1589  0.4953  0.1135
 2049DDP     C312293  28.209  22.593  13.490  0.0403 -0.2356 -0.1222
 2049DDP     C412294  29.428  22.682  13.628  0.2134 -0.0365 -0.1093
 2050DDP     C112295   5.068   1.491  10.601  0.0642  0.0837  0.0612
 2050DDP     P112296   5.223   1.016  10.467 -0.1685 -0.0400 -0.1338
 2050DDP     P212297   5.221   1.884  10.514  0.1115  0.1170  0.1246
 2050DDP     C212298   5.563   2.191  10.510 -0.0163  0.3255 -0.2866
 2050DDP     C312299   5.499   1.238  10.159  0.1286 -0.2888 -0.1785
 2050DDP     C412300   4.678   1.451  10.873  0.2669  0.1767  0.1382
 2051DDP     C112301   5.045  29.349  30.122  0.0176  0.2885  0.0177
 2051DDP     P112302   4.797  29.323  29.792  0.2079 -0.2512  0.1562
 2051DDP     P212303   4.980  29.633   0.254  0.0210 -0.4425  0.1219
 2051DDP     C212304   4.736  29.471   0.611  0.1898 -0.1143 -0.1781
 2051DDP     C312305   4.642  28.993  29.558 -0.1831 -0.2144  0.0958
 2051DDP     C412306   5.186  28.987  29.995 -0.2023 -0.0888  0.0473
 2052DDP     C112307  10.366  27.284   4.191 -0.1043  0.0348  0.0396
 2052DDP     P112308  10.692  27.224   4.382  0.1379  0.0012  0.0091
 2052DDP     P212309  10.054  27.083   4.462  0.2745 -0.2088  0.1434
 2052DDP     C212310   9.849  27.004   4.835 -0.2235 -0.2020  0.2749
 2052DDP     C312311  10.863  26.862   4.657 -0.1528 -0.2161  0.0624
 2052DDP     C412312  10.216  27.544   3.853 -0.1450  0.0434 -0.2170
 2053DDP     C112313   9.416  15.598  23.205 -0.3169 -0.0365 -0.2494
 2053DDP     P112314   9.120  15.745  22.912 -0.0853  0.0551  0.2105
 2053DDP     P212315   9.342  15.203  23.344 -0.1043  0.2008  0.0942
 2053DDP     C212316   9.601  14.939  23.461  0.2209  0.2051  0.2322
 2053DDP     C312317   8.902  15.960  22.728 -0.2966  0.1545  0.1774
 2053DDP     C412318   9.634  15.967  23.410 -0.1630  0.2101 -0.1483
 2054DDP     C112319   9.171  19.995   3.250 -0.2266  0.0706  0.0381
 2054DDP     P112320   9.469  20.086   2.896  0.0904 -0.1116  0.2717
 2054DDP     P212321   9.182  20.485   3.540 -0.1107 -0.1960 -0.2164
 2054DDP     C212322   9.026  20.792   3.724  0.0522 -0.0121  0.0254
 2054DDP     C312323   9.769  19.911   2.784 -0.2821  0.1470 -0.3658
 2054DDP     C412324   8.801  19.854   3.145 -0.0985  0.0821 -0.1080
 2055DDP     C112325  29.677  23.475  25.990 -0.0530 -0.1596  0.0673
 2055DDP     P112326  29.403  23.338  26.399  0.2333 -0.1839 -0.2045
 2055DDP     P212327  30.149  23.697  25.905  0.1117 -0.1866  0.1992
 2055DDP     C212328   0.282  23.867  25.935 -0.0882  0.1206  0.1141
 2055DDP     C312329  29.308  22.984  26.671  0.2288  0.0893 -0.0440
 2055DDP     C412330  29.547  23.501  25.573 -0.0497 -0.0941  0.2143
 2056DDP     C112331  12.656  26.284   1.359 -0.1135 -0.2141  0.0162
 2056DDP     P112332  12.303  26.429   1.590  0.1053  0.1033  0.3392
 2056DDP     P212333  12.678  26.209   0.951 -0.1312 -0.0242 -0.0179
 2056DDP     C212334  12.683  25.971   0.512 -0.0332 -0.1694  0.1728
 2056DDP     C312335  11.984  26.313   1.795 -0.2034 -0.2618  0.0123
 2056DDP     C412336  12.726  26.320   1.881 -0.2356  0.1969  0.0672
 2057DDP     C112337   3.503   8.288  20.937  0.1395  0.1510  0.4673
 2057DDP     P112338   3.169   8.388  21.170 -0.1076  0.0542  0.0237
 2057DDP     P212339   3.445   8.349  20.480 -0.1264  0.0360  0.0877
 2057DDP     C212340   3.439   8.789  20.228 -0.0313  0.0965  0.2876
 2057DDP     C312341   2.876   8.328  21.566 -0.0538 -0.2136 -0.0758
 2057DDP     C412342   3.769   7.931  20.951  0.0049  0.0928 -0.1969
 2058DDP     C112343   0.877   6.618   7.388  0.3628  0.2024  0.2487
 2058DDP     P112344   0.587   6.279   7.451  0.0931  0.2268  0.4568
 2058DDP     P212345   0.756   7.116   7.446 -0.0188  0.2262 -0.0263
 2058DDP     C212346   0.580   7.532   7.450 -0.0294  0.0434  0.0826
 2058DDP     C312347   0.276   5.959   7.725  0.4024 -0.0399 -0.1967
 2058DDP     C412348   1.339   6.552   7.246  0.0674 -0.0170  0.2816
 2059DDP     C112349  12.096  19.556  23.110  0.0314  0.0597 -0.1905
 2059DDP     P112350  12.290  19.146  22.986 -0.2482 -0.1197 -0.1989
 2059DDP     P212351  11.498  19.655  23.089 -0.0678 -0.0480  0.0838
 2059DDP     C212352  11.253  19.357  23.170 -0.1220  0.2027 -0.1519
 2059DDP     C312353  12.546  18.895  22.639 -0.3934  0.3280  0.0887
 2059DDP     C412354  12.344  20.017  23.116  0.2464  0.0942 -0.1825
 2060DDP     C112355   8.302  27.046  21.465 -0.0934  0.3476 -0.0564
 2060DDP     P112356   7.895  27.176  21.329  0.0287 -0.2168 -0.0718
 2060DDP     P212357   8.334  26.533  21.531 -0.0651 -0.1051 -0.1069
 2060DDP     C212358   8.237  26.077  21.294  0.0650  0.0141 -0.1131
 2060DDP     C312359   7.645  27.563  21.352  0.1882  0.0699 -0.1805
 2060DDP     C412360   8.678  27.263  21.509  0.1442 -0.1587  0.2157
 2061DDP     C112361  19.400  29.651  11.806  0.2207 -0.0840 -0.1023
 2061DDP     P112362  19.274  29.294  11.565 -0.1148 -0.1913 -0.0015
 2061DDP     P212363  19.372  29.511  12.252 -0.0315  0.2391  0.2114
 2061DDP     C212364  19.445  29.192  12.575 -0.2180  0.1557 -0.1462
 2061DDP     C312365  19.081  28.919  11.526 -0.0256 -0.2279 -0.0350
 2061DDP     C412366  19.375  29.991  11.536  0.1891 -0.2352 -0.1676
 2062DDP     C112367  15.496  24.961   6.783  0.1024  0.2312 -0.2071
 2062DDP     P112368  15.492  25.456   6.737  0.2271  0.1218 -0.2991
 2062DDP     P212369  15.429  24.719   6.322 -0.0401 -0.0605 -0.1335
 2062DDP     C212370  15.641  24.599   5.895  0.0463 -0.1558 -0.2435
 2062DDP     C312371  15.367  25.867   6.497 -0.0359 -0.0713 -0.0371
 2062DDP     C412372  15.460  24.726   7.135  0.3713 -0.1473 -0.1778
 2063DDP     C112373  22.020  11.220   2.660  0.1559  0.0073  0.2734
 2063DDP     P112374  22.302  11.459   2.890  0.1496 -0.2105 -0.0234
 2063DDP     P212375  21.987  10.867   2.860  0.1486  0.0337 -0.0808
 2063DDP     C212376  22.231  10.443   2.990 -0.0376 -0.2949 -0.0373
 2063DDP     C312377  22.654  11.479   3.050  0.0814 -0.1630 -0.1963
 2063DDP     C412378  21.965  11.325   2.161  0.0241  0.1222 -0.1205
 2064DDP     C112379   4.164  16.708  23.750  0.2980 -0.0386 -0.1979
 2064DDP     P112380   3.889  17.001  23.956  0.2480 -0.3694  0.1145
 2064DDP     P212381   4.253  16.715  23.332  0.1405  0.0002  0.0956
 2064DDP     C212382   4.270  16.761  22.871 -0.0460  0.0881 -0.1104
 2064DDP     C312383   3.731  17.258  24.243  0.1023  0.2710 -0.2516
 2064DDP     C412384   4.312  16.368  23.988 -0.0879  0.0518  0.0396
 2065DDP     C112385  24.837  21.928  22.089  0.2641  0.3899  0.0310
 2065DDP     P112386  25.291  21.977  22.068  0.0495  0.2662  0.1681
 2065DDP     P212387  24.657  21.554  22.161 -0.2436 -0.0567  0.2786
 2065DDP     C212388  24.903  21.286  22.413  0.0449  0.1869 -0.1591
 2065DDP     C312389  25.704  21.745  21.968  0.1694  0.3330 -0.1299
 2065DDP     C412390  24.489  22.213  21.989  0.1473  0.1585  0.1686
 2066DDP     C112391  15.719  27.654   4.500  0.0617 -0.1047  0.2208
 2066DDP     P112392  15.516  27.828   4.221 -0.0471  0.1553  0.4370
 2066DDP     P212393  15.759  27.281   4.566  0.1108 -0.0773  0.0817
 2066DDP     C212394  15.542  26.870   4.668 -0.2102 -0.3503  0.2175
 2066DDP     C312395  15.508  28.117   3.895 -0.2062  0.0721 -0.1101
 2066DDP     C412396  16.078  27.899   4.564  0.0436  0.2514 -0.0478
 2067DDP     C112397   0.569  14.414  25.465 -0.3483  0.0080  0.1177
 2067DDP     P112398   0.639  14.156  25.123 -0.0338 -0.0016  0.1309
 2067DDP     P212399   0.211  14.522  25.588  0.1533 -0.0226 -0.2401
 2067DDP     C212400  30.081  14.470  25.550 -0.1461  0.0736 -0.0685
 2067DDP     C312401   0.458  14.137  24.678 -0.1637 -0.0052 -0.0973
 2067DDP     C412402   0.917  14.437  25.819  0.0140  0.0856 -0.0434
 2068DDP     C112403  26.225  29.771   2.718 -0.1282 -0.0493 -0.1080
 2068DDP     P112404  26.503  29.753   2.345  0.0299 -0.0821 -0.2692
 2068DDP     P212405  26.306  30.004   3.153 -0.2433  0.1510 -0.5719
 2068DDP     C212406  26.133  30.220   3.517  0.1015  0.1484  0.3391
 2068DDP     C312407  26.835  30.047   2.249 -0.1826  0.1256  0.1526
 2068DDP     C412408  25.924  29.468   2.747  0.0083  0.1481 -0.0409
 2069DDP     C112409  23.858  13.157  11.808 -0.1520  0.3234  0.0908
 2069DDP     P112410  23.682  13.266  11.448 -0.0167 -0.0294  0.2011
 2069DDP     P212411  24.163  13.296  12.034  0.0887 -0.2311 -0.0329
 2069DDP     C212412  24.347  13.039  12.390 -0.0408  0.4480 -0.3908
 2069DDP     C312413  23.925  13.321  11.036 -0.0739  0.1946 -0.0561
 2069DDP     C412414  23.684  12.828  11.915 -0.3284  0.0518  0.2570
 2070DDP     C112415  23.921  16.462  12.229  0.1241 -0.2576  0.2268
 2070DDP     P112416  23.790  16.836  12.182  0.1419  0.1283 -0.0449
 2070DDP     P212417  24.377  16.428  12.188  0.0202  0.3550  0.0801
 2070DDP     C212418  24.831  16.280  12.336  0.1777 -0.1618 -0.0741
 2070DDP     C312419  23.876  17.229  11.956  0.0763 -0.2423 -0.0321
 2070DDP     C412420  23.745  16.161  12.031  0.0437  0.1372 -0.0258
 2071DDP     C112421  14.980   8.292  27.896  0.1160 -0.0754  0.2118
 2071DDP     P112422  14.600   8.531  28.045 -0.0623  0.2924 -0.1044
 2071DDP     P212423  14.918   7.871  27.685 -0.2206 -0.1949 -0.3430
 2071DDP     C212424  14.992   7.452  27.780 -0.0407 -0.3418  0.1554
 2071DDP     C312425  14.165   8.327  28.175  0.1015 -0.0843  0.0727
 2071DDP     C412426  15.419   8.573  28.067 -0.1992 -0.1757  0.0728
 2072DDP     C112427   7.528  26.365  11.033  0.1788 -0.0921  0.2211
 2072DDP     P112428   7.617  26.225  11.436  0.2414  0.0978 -0.1040
 2072DDP     P212429   7.143  26.550  10.989  0.0990  0.0347  0.2993
 2072DDP     C212430   6.882  26.780  10.728  0.4984 -0.0376 -0.1930
 2072DDP     C312431   7.478  25.919  11.739 -0.0037  0.1761 -0.3368
 2072DDP     C412432   7.757  26.212  10.604  0.0090  0.0910 -0.0484
 2073DDP     C112433  15.623  23.826   0.419 -0.0795  0.0495  0.0815
 2073DDP     P112434  15.517  24.161   0.567 -0.0401 -0.0765  0.2514
 2073DDP     P212435  15.888  23.689   0.280 -0.0229  0.2448  0.0959
 2073DDP     C212436  16.207  23.352   0.539  0.0181  0.2636 -0.3066
 2073DDP     C312437  15.162  24.318   0.521  0.2886 -0.0770 -0.0338
 2073DDP     C412438  15.340  23.546   0.253  0.2529  0.3849 -0.1442
 2074DDP     C112439  25.231  25.097   9.197 -0.2973  0.2215  0.0289
 2074DDP     P112440  24.796  25.133   8.983 -0.0405  0.2109  0.1182
 2074DDP     P212441  25.282  25.497   9.213  0.0763 -0.0325 -0.0923
 2074DDP     C212442  25.441  25.881   9.404 -0.1022  0.0160  0.2317
 2074DDP     C312443  24.561  25.152   8.522 -0.0812  0.2142 -0.0493
 2074DDP     C412444  25.328  24.656   9.295 -0.1093 -0.0543  0.1556
 2075DDP     C112445  11.085  28.229  18.216  0.1715  0.1466 -0.0147
 2075DDP     P112446  11.104  27.828  18.507 -0.0160  0.2542  0.0868
 2075DDP     P212447  11.022  28.252  17.837 -0.0323 -0.1768 -0.2486
 2075DDP     C212448  11.272  28.251  17.369 -0.3252 -0.1471  0.0429
 2075DDP     C312449  10.816  27.417  18.518 -0.2617 -0.0457 -0.2041
 2075DDP     C412450  11.016  28.414  18.609 -0.2091 -0.1422  0.0810
 2076DDP     C112451  24.306  27.615  26.509 -0.1233  0.0465 -0.0164
 2076DDP     P112452  23.930  27.722  26.305 -0.0249  0.1625  0.4223
 2076DDP     P212453  24.681  27.351  26.248  0.2266  0.1990 -0.0142
 2076DDP     C212454  24.963  26.938  26.095 -0.3217 -0.1766 -0.0598
 2076DDP     C312455  23.561  27.572  26.010 -0.0149 -0.2212  0.0919
 2076DDP     C412456  24.346  27.471  27.028 -0.1521 -0.2207  0.1183
 2077DDP     C112457  19.574  20.222   9.610 -0.0942  0.1891 -0.1664
 2077DDP     P112458  19.641  20.623   9.830 -0.0575  0.1881  0.2064
 2077DDP     P212459  19.760  19.978   9.343  0.1305 -0.0143  0.2017
 2077DDP     C212460  19.684  19.794   8.942  0.0036  0.2918 -0.0604
 2077DDP     C312461  19.639  21.021   9.991 -0.0599  0.1299 -0.1445
 2077DDP     C412462  19.205  20.088   9.420  0.2364  0.1301  0.1417
 2078DDP     C112463  25.514   0.193  18.508  0.2400  0.1153  0.2299
 2078DDP     P112464  25.784   0.571  18.590  0.1509 -0.3344 -0.0985
 2078DDP     P212465  25.326   0.112  18.055 -0.0090 -0.0990  0.0358
 2078DDP     C212466  24.909   0.064  18.016  0.1479 -0.2111  0.1978
 2078DDP     C312467  25.663   0.946  18.609  0.2752  0.1967  0.1906
 2078DDP     C412468  25.351  -0.005  18.811  0.1031 -0.2180  0.3424
 2079DDP     C112469  18.983   9.327   3.853  0.0125  0.1506 -0.0499
 2079DDP     P112470  19.050   9.608   3.497 -0.3900 -0.1368 -0.2264
 2079DDP     P212471  19.204   9.088   4.259  0.1072  0.0161  0.0269
 2079DDP     C212472  19.056   8.788   4.586  0.0827  0.0128 -0.2830
 2079DDP     C312473  18.861   9.679   3.072  0.1252  0.1425  0.0617
 2079DDP     C412474  18.547   9.139   4.024  0.3420  0.2798  0.2089
 2080DDP     C112475  16.526  14.884  14.434 -0.0109  0.0499 -0.2382
 2080DDP     P112476  16.115  15.007  14.479  0.0777 -0.4560 -0.2748
 2080DDP     P212477  16.739  15.181  14.316 -0.0967  0.1726  0.0598
 2080DDP     C212478  17.124  15.273  14.406 -0.1546  0.2205  0.0580
 2080DDP     C312479  15.887  14.674  14.684 -0.0063 -0.1648 -0.2126
 2080DDP     C412480  16.597  14.511  14.384  0.0197 -0.0776  0.3358
 2081DDP     C112481  14.453   0.012   0.108  0.0919 -0.1517  0.0111
 2081DDP     P112482  14.435   0.239  29.960 -0.0031 -0.3502 -0.0166
 2081DDP     P212483  14.585  29.896   0.255  0.2067  0.1480 -0.0725
 2081DDP     C212484  14.990  29.759   0.172  0.1954  0.2890 -0.0197
 2081DDP     C312485  14.380   0.361  29.448  0.0500  0.0505  0.0890
 2081DDP     C412486  14.355   0.312   0.355 -0.0117  0.1066 -0.1185
 2082DDP     C112487  17.099   3.580  15.707 -0.2274 -0.2066  0.2234
 2082DDP     P112488  17.470   3.673  15.973  0.4150 -0.1011  0.0702
 2082DDP     P212489  16.550   3.752  15.608  0.1931 -0.1107  0.1369
 2082DDP     C212490  16.100   3.548  15.650 -0.1277  0.0214 -0.1522
 2082DDP     C312491  17.806   3.639  15.998 -0.0126  0.1335  0.2928
 2082DDP     C412492  17.363   3.412  15.247  0.1116  0.0813 -0.1694
 2083DDP     C112493  13.648  10.717  28.507  0.1236  0.1259  0.0550
 2083DDP     P112494  13.365  11.071  28.543  0.0157  0.1498  0.0460
 2083DDP     P212495  13.874  11.008  28.291  0.0137  0.2698 -0.1185
 2083DDP     C212496  14.228  11.301  28.392  0.2728  0.1835  0.0933
 2083DDP     C312497  13.211  11.369  28.342 -0.1265 -0.2737 -0.0120
 2083DDP     C412498  13.700  10.457  28.808  0.2470  0.0315 -0.1666
 2084DDP     C112499  17.042   2.976  18.691 -0.2140 -0.2011  0.1611
 2084DDP     P112500  16.909   3.127  19.004 -0.2017 -0.0314  0.2008
 2084DDP     P212501  17.197   3.080  18.300  0.0857 -0.3066  0.2954
 2084DDP     C212502  17.369   3.316  17.868 -0.2569 -0.0187  0.1599
 2084DDP     C312503  16.845   3.267  19.455  0.0096 -0.0737  0.3562
 2084DDP     C412504  16.953   2.597  18.714  0.0673 -0.0710 -0.0039
 2085DDP     C112505  13.749  21.477  11.029 -0.0006 -0.0155  0.3925
 2085DDP     P112506  13.577  21.313  11.432  0.0621  0.0450 -0.2629
 2085DDP     P212507  13.725  21.983  10.950 -0.2043 -0.0517 -0.0744
 2085DDP     C212508  13.982  22.277  11.011  0.1037 -0.1811  0.2705
 2085DDP     C312509  13.230  21.181  11.756  0.4028 -0.0912  0.4566
 2085DDP     C412510  14.069  21.314  10.748 -0.0173 -0.0643  0.1099
 2086DDP     C112511  20.488  21.685  18.671 -0.0966 -0.1887 -0.0033
 2086DDP     P112512  20.051  21.744  18.827 -0.3775 -0.1300  0.0288
 2086DDP     P212513  20.913  21.740  18.876 -0.1384 -0.0309 -0.0097
 2086DDP     C212514  21.104  22.131  18.941  0.2428  0.1867  0.1898
 2086DDP     C312515  19.792  21.672  19.276 -0.0477 -0.2470 -0.0062
 2086DDP     C412516  20.549  21.504  18.354  0.0302 -0.1371  0.1436
 2087DDP     C112517  22.723  17.523  23.962 -0.2246 -0.1447 -0.1345
 2087DDP     P112518  22.501  17.892  24.021 -0.3072 -0.4133 -0.2888
 2087DDP     P212519  22.825  17.233  24.228 -0.1409 -0.2333 -0.3316
 2087DDP     C212520  22.808  16.993  24.609 -0.2406 -0.0357  0.0465
 2087DDP     C312521  22.521  18.310  23.792  0.3845 -0.0853  0.2973
 2087DDP     C412522  23.105  17.604  23.637  0.0500 -0.2383 -0.1414
 2088DDP     C112523  18.059  13.483  20.070  0.2041  0.2332 -0.0124
 2088DDP     P112524  18.394  13.184  20.000 -0.0914  0.2533  0.2914
 2088DDP     P212525  17.732  13.260  20.090 -0.0914 -0.3626 -0.1152
 2088DDP     C212526  17.463  12.989  20.204 -0.0597  0.0887 -0.0140
 2088DDP     C312527  18.853  13.102  19.784 -0.1031  0.3871 -0.0725
 2088DDP     C412528  18.161  13.951  19.978  0.1069 -0.0149 -0.0498
 2089DDP     C112529   4.450  26.504  16.303  0.0823  0.0908  0.2074
 2089DDP     P112530   4.743  26.674  16.006  0.0610 -0.0292  0.1511
 2089DDP     P212531   4.312  26.715  16.620  0.0255  0.0957  0.0823
 2089DDP     C212532   4.523  26.924  16.978  0.0233  0.0049  0.1695
 2089DDP     C312533   4.951  26.720  15.692 -0.0272 -0.1938  0.2818
 2089DDP     C412534   4.249  26.212  16.196  0.1982  0.0903 -0.1922
 2090DDP     C112535  29.270  18.294  20.562  0.0595 -0.0002 -0.1907
 2090DDP     P112536  28.968  18.048  20.251  0.0416 -0.1047  0.2231
 2090DDP     P212537  29.634  18.415  20.524  0.1353  0.2700 -0.1207
 2090DDP     C212538  30.021  18.552  20.735 -0.0146 -0.0161  0.1283
 2090DDP     C312539  29.058  17.973  19.832 -0.4679 -0.2028 -0.4483
 2090DDP     C412540  28.970  18.430  20.926 -0.0081  0.2015  0.2123
 2091DDP     C112541  29.529   9.692  23.029  0.1446 -0.1061 -0.3175
 2091DDP     P112542  29.633   9.254  22.912  0.1307  0.0030  0.1127
 2091DDP     P212543  29.637   9.913  23.447 -0.0539 -0.0777 -0.3300
 2091DDP     C212544  29.773   9.551  23.739 -0.1003  0.0589 -0.1595
 2091DDP     C312545  29.934   9.193  22.553 -0.1036 -0.2141 -0.0169
 2091DDP     C412546  29.331   9.950  22.678  0.0023  0.1469  0.2586
 2092DDP     C112547  25.942   5.998   6.512  0.0797 -0.1780 -0.2677
 2092DDP     P112548  26.172   5.581   6.577  0.1344 -0.0551  0.3547
 2092DDP     P212549  25.703   6.206   6.195  0.1439  0.0267 -0.0491
 2092DDP     C212550  25.330   6.311   6.269 -0.4308 -0.0019 -0.1067
 2092DDP     C312551  26.165   5.057   6.649  0.1393  0.2538  0.3416
 2092DDP     C412552  26.051   6.243   6.974  0.3234 -0.1210  0.0219
 2093DDP     C112553  27.709  19.134   3.023  0.1489  0.2124 -0.0342
 2093DDP     P112554  28.129  19.115   3.222  0.2419  0.0926  0.1866
 2093DDP     P212555  27.675  19.008   2.612 -0.0220  0.0692 -0.1177
 2093DDP     C212556  27.325  18.901   2.562 -0.1528  0.0622 -0.0030
 2093DDP     C312557  28.624  19.000   3.090  0.0898 -0.0699 -0.2343
 2093DDP     C412558  27.360  19.236   3.305  0.2204  0.1742 -0.2906
 2094DDP     C112559  30.015   8.127  13.691 -0.1116  0.0842  0.2293
 2094DDP     P112560  29.565   8.239  13.763  0.1819  0.1997 -0.1100
 2094DDP     P212561  29.851   7.775  13.295  0.3568 -0.3791 -0.0433
 2094DDP     C212562  29.937   7.327  13.247 -0.3541 -0.1367 -0.0245
 2094DDP     C312563  29.092   8.045  13.708 -0.1299  0.0459  0.0021
 2094DDP     C412564  -0.011   8.162  13.979 -0.1000  0.0853  0.0080
 2095DDP     C112565  10.483  12.977  30.326  0.2536  0.2908 -0.0270
 2095DDP     P112566  10.285  13.022   0.397  0.3805 -0.0677 -0.0036
 2095DDP     P212567  10.217  12.779  30.132  0.2768  0.1067  0.1043
 2095DDP     C212568   9.741  12.661  29.968 -0.0903  0.1583  0.4037
 2095DDP     C312569   9.914  13.037   0.617  0.1158  0.3596  0.0889
 2095DDP     C412570  10.960  12.944  30.097  0.2297  0.0293 -0.2469
 2096DDP     C112571  10.144  21.234  16.124 -0.2644  0.0625 -0.0553
 2096DDP     P112572  10.560  21.341  16.428 -0.2824  0.3562 -0.2833
 2096DDP     P212573  10.205  20.865  15.729 -0.1117 -0.0654 -0.0933
 2096DDP     C212574  10.175  20.823  15.239 -0.1265 -0.1205 -0.1296
 2096DDP     C312575  10.618  21.356  16.910 -0.0717  0.3173  0.0314
 2096DDP     C412576   9.769  21.344  16.205  0.0729 -0.0015 -0.2582
 2097DDP     C112577  13.198  23.698   1.750 -0.0786  0.3132  0.0850
 2097DDP     P112578  13.333  23.352   1.371  0.0902  0.0953 -0.2143
 2097DDP     P212579  13.299  23.499   2.222  0.0030  0.0176  0.0361
 2097DDP     C212580  13.521  23.404   2.526  0.1028  0.1597 -0.1183
 2097DDP     C312581  13.268  22.905   1.288  0.1185  0.2342  0.2677
 2097DDP     C412582  13.159  24.129   1.795  0.1199  0.2661 -0.2251
 2098DDP     C112583   3.188   3.356  19.686 -0.0007 -0.1903  0.0689
 2098DDP     P112584   2.717   3.394  19.643 -0.2524 -0.2153  0.1656
 2098DDP     P212585   3.401   3.484  19.456  0.0432  0.0889  0.1309
 2098DDP     C212586   3.449   3.813  19.158 -0.0248  0.1970 -0.0856
 2098DDP     C312587   2.415   3.623  19.490 -0.1919 -0.3598  0.2360
 2098DDP     C412588   3.278   3.094  20.078 -0.2731  0.6413  0.1486
 2099DDP     C112589  17.965   2.606  24.628 -0.3204 -0.0192  0.0401
 2099DDP     P112590  18.270   2.940  24.432  0.2083  0.0327 -0.0106
 2099DDP     P212591  18.033   2.632  25.017 -0.1207  0.0264  0.1005
 2099DDP     C212592  17.746   2.456  25.281 -0.0540 -0.2206 -0.0435
 2099DDP     C312593  18.711   2.978  24.501  0.0007  0.2491 -0.1799
 2099DDP     C412594  17.817   2.122  24.581  0.0034  0.0135 -0.1106
 2100DDP     C112595  29.143  26.518  22.179 -0.0034  0.2046 -0.2490
 2100DDP     P112596  29.004  26.699  22.636 -0.1705  0.0143  0.1286
 2100DDP     P212597  29.102  26.732  21.839 -0.4160 -0.1235 -0.1917
 2100DDP     C212598  28.738  27.024  21.758  0.0821 -0.3123 -0.0580
 2100DDP     C312599  28.873  27.121  22.686  0.0826 -0.0956  0.1301
 2100DDP     C412600  29.527  26.291  22.232  0.2160  0.0564 -0.1851
 2101DDP     C112601  10.640  19.994   1.882 -0.0476 -0.0679  0.1840
 2101DDP     P112602  10.576  19.713   1.465 -0.1796  0.1167  0.1812
 2101DDP     P212603  10.723  20.496   1.922  0.0034 -0.0000 -0.1053
 2101DDP     C212604  10.880  20.892   1.963 -0.0404  0.1490 -0.0237
 2101DDP     C312605  10.395  19.427   1.098  0.4239  0.1883 -0.1879
 2101DDP     C412606  10.493  19.733   2.327  0.1572 -0.1401 -0.2320
 2102DDP     C112607   5.395  23.625   2.937  0.1411  0.1242  0.1538
 2102DDP     P112608   5.767  23.548   3.143 -0.2813 -0.0589  0.1681
 2102DDP     P212609   5.265  23.227   2.619  0.0471 -0.3668 -0.1868
 2102DDP     C212610   5.298  22.841   2.405 -0.0730 -0.0814 -0.0571
 2102DDP     C312611   6.167  23.765   3.163  0.1912  0.0607 -0.0221
 2102DDP     C412612   5.106  23.961   3.049  0.1075 -0.2036  0.3265
 2103DDP     C112613   8.577  22.416  21.073  0.2133 -0.1679  0.0204
 2103DDP     P112614   8.190  22.390  20.869  0.0107  0.2944 -0.1754
 2103DDP     P212615   8.982  22.326  21.280  0.2626 -0.0448 -0.1271
 2103DDP     C212616   9.342  22.050  21.309  0.1326 -0.2130  0.1784
 2103DDP     C312617   7.812  22.309  20.561  0.0094 -0.0241 -0.0747
 2103DDP     C412618   8.705  22.845  20.832 -0.2590 -0.1019 -0.0433
 2104DDP     C112619  27.604  17.564   9.967  0.4155 -0.4293  0.1707
 2104DDP     P112620  27.753  17.709   9.583 -0.0305  0.0983 -0.1591
 2104DDP     P212621  27.835  17.420  10.307 -0.0414 -0.0340  0.0674
 2104DDP     C212622  28.017  17.178  10.603  0.0980 -0.0224  0.0344
 2104DDP     C312623  27.644  18.028   9.388 -0.2738  0.4246  0.0199
 2104DDP     C412624  27.186  17.412  10.102 -0.2490 -0.5908 -0.2672
 2105DDP     C112625   3.564  27.885   9.632  0.0433  0.1373 -0.0131
 2105DDP     P112626   3.441  27.901   9.187 -0.4241  0.0252 -0.0211
 2105DDP     P212627   3.221  28.192   9.750  0.0184  0.0309  0.1073
 2105DDP     C212628   3.145  28.413  10.189  0.0448  0.1691 -0.0155
 2105DDP     C312629   3.076  27.992   9.025  0.1082  0.2021  0.3340
 2105DDP     C412630   3.915  27.982   9.773 -0.0393 -0.1480 -0.1737
 2106DDP     C112631   9.216  27.303  15.582 -0.1991  0.0811 -0.1614
 2106DDP     P112632   8.824  27.428  15.863  0.2265 -0.0640 -0.1437
 2106DDP     P212633   9.170  26.967  15.219  0.1447 -0.0524  0.1106
 2106DDP     C212634   8.818  26.556  15.226 -0.1011  0.1289  0.3175
 2106DDP     C312635   8.441  27.271  16.074  0.0946 -0.0250  0.3339
 2106DDP     C412636   9.530  27.618  15.470 -0.0095  0.0184 -0.0657
 2107DDP     C112637   8.033   6.843   0.776  0.1644  0.1012 -0.2314
 2107DDP     P112638   8.363   6.609   0.918 -0.0456  0.1736  0.3591
 2107DDP     P212639   7.862   7.045   1.194  0.1613  0.0703 -0.2193
 2107DDP     C212640   7.786   7.141   1.599 -0.1209 -0.0156  0.0626
 2107DDP     C312641   8.741   6.402   1.011 -0.1097 -0.0213 -0.1530
 2107DDP     C412642   7.886   6.974   0.353  0.0903 -0.1692  0.0911
 2108DDP     C112643   9.433  26.182  27.676  0.3644  0.1962  0.1393
 2108DDP     P112644   9.462  26.463  27.924 -0.0719  0.0392 -0.0993
 2108DDP     P212645   9.043  26.150  27.430 -0.0191 -0.3908 -0.0610
 2108DDP     C212646   8.839  25.828  27.404 -0.1121 -0.0478 -0.2570
 2108DDP     C312647   9.364  26.923  27.795 -0.0108  0.3515  0.2026
 2108DDP     C412648   9.695  25.868  27.544  0.0937 -0.2489  0.0276
 2109DDP     C112649  13.672  11.703  23.153  0.2059 -0.0225  0.2539
 2109DDP     P112650  13.519  11.568  22.782 -0.0835  0.2098  0.1053
 2109DDP     P212651  14.106  11.709  23.231  0.0589  0.2671  0.0569
 2109DDP     C212652  14.467  11.774  23.059  0.1251  0.4715 -0.0341
 2109DDP     C312653  13.270  11.647  22.437 -0.0615  0.0663  0.1100
 2109DDP     C412654  13.364  11.898  23.242  0.3757 -0.1116  0.2707
 2110DDP     C112655   7.451  26.954  13.923  0.1507  0.0767  0.0366
 2110DDP     P112656   7.422  27.343  13.708 -0.2460  0.1501 -0.1916
 2110DDP     P212657   7.601  26.878  14.177  0.1438 -0.0322  0.0151
 2110DDP     C212658   7.495  26.955  14.551  0.2641  0.0497 -0.0835
 2110DDP     C312659   7.196  27.679  13.498 -0.1105  0.3236 -0.0825
 2110DDP     C412660   7.378  26.668  13.595 -0.0058  0.1268 -0.3852
 2111DDP     C112661  15.550   0.726  23.337 -0.0297  0.1854  0.1797
 2111DDP     P112662  15.648   1.032  23.061  0.0989  0.0803  0.0809
 2111DDP     P212663  15.579   0.725  23.762  0.0218  0.4081  0.1733
 2111DDP     C212664  15.454   0.938  24.169  0.0310  0.3200  0.2714
 2111DDP     C312665  15.384   1.015  22.626 -0.1554 -0.1456  0.0218
 2111DDP     C412666  15.584   0.332  23.094 -0.1034 -0.3239  0.1830
 2112DDP     C112667   6.982  17.241  28.146 -0.1553 -0.3901 -0.2004
 2112DDP     P112668   6.823  17.139  27.644 -0.0867  0.2174 -0.0573
 2112DDP     P212669   7.371  17.365  28.314  0.4450  0.0471  0.2118
 2112DDP     C212670   7.667  17.595  28.455  0.0942  0.5973  0.0220
 2112DDP     C312671   6.835  16.977  27.209  0.1310 -0.0853 -0.1642
 2112DDP     C412672   6.829  17.199  28.438 -0.0750  0.1439  0.0171
 2113DDP     C112673  28.059   7.980  19.347 -0.1177 -0.1423  0.1763
 2113DDP     P112674  28.402   8.070  19.023  0.1130 -0.0542 -0.3826
 2113DDP     P212675  27.688   8.131  19.455  0.2623 -0.0655 -0.0454
 2113DDP     C212676  27.352   8.100  19.729  0.0140  0.1003  0.0851
 2113DDP     C312677  28.286   8.036  18.625 -0.0381  0.0742  0.0076
 2113DDP     C412678  28.243   7.809  19.721 -0.1776 -0.0819  0.0239
 2114DDP     C112679  11.605  21.243  17.020 -0.0946 -0.0884 -0.0616
 2114DDP     P112680  11.212  21.352  16.881 -0.2311  0.3280  0.1884
 2114DDP     P212681  11.902  20.820  16.938  0.0796 -0.1049  0.0083
 2114DDP     C212682  12.108  20.423  17.065 -0.0216  0.0304 -0.0438
 2114DDP     C312683  10.997  21.661  16.580  0.0434  0.0282 -0.1037
 2114DDP     C412684  11.663  21.347  17.386  0.3690  0.0432  0.1181
 2115DDP     C112685   3.542   9.197  28.767 -0.1810 -0.0275 -0.3649
 2115DDP     P112686   3.362   9.289  29.235  0.1915 -0.1213 -0.1739
 2115DDP     P212687   3.459   9.638  28.592 -0.0398 -0.0120 -0.0178
 2115DDP     C212688   3.649  10.052  28.765  0.3135 -0.0208 -0.0966
 2115DDP     C312689   3.406   9.378  29.645 -0.1796 -0.4155  0.0889
 2115DDP     C412690   3.586   8.837  28.521 -0.0020 -0.2389 -0.0217
 2116DDP     C112691   4.316  22.426  22.114  0.0451 -0.0974  0.1369
 2116DDP     P112692   4.410  22.025  22.183 -0.0629 -0.1986  0.0692
 2116DDP     P212693   4.457  22.795  22.227 -0.1346 -0.0394  0.1653
 2116DDP     C212694   4.309  23.225  22.162  0.0530 -0.3503 -0.0378
 2116DDP     C312695   4.394  21.633  22.046 -0.1788  0.4438  0.1262
 2116DDP     C412696   4.058  22.399  21.806  0.3586 -0.1184  0.1763
 2117DDP     C112697  28.678   0.445  13.524  0.0700  0.2993 -0.0265
 2117DDP     P112698  29.064   0.558  13.573 -0.1154 -0.0097 -0.0241
 2117DDP     P212699  28.449   0.794  13.166  0.0790  0.1716  0.1414
 2117DDP     C212700  28.116   1.034  13.359  0.0242  0.0204  0.2013
 2117DDP     C312701  29.364   0.360  13.785 -0.1134 -0.1048  0.0252
 2117DDP     C412702  28.572   0.157  13.712  0.0243  0.1574 -0.2265
 2118DDP     C112703  15.017   0.230  20.921 -0.1225 -0.0739 -0.2174
 2118DDP     P112704  14.707  -0.017  21.201  0.4095 -0.0730 -0.0334
 2118DDP     P212705  15.438   0.058  20.967  0.1636 -0.2856  0.0424
 2118DDP     C212706  15.670  30.109  20.925 -0.0090  0.0193 -0.0601
 2118DDP     C312707  14.480  29.962  21.293 -0.0144  0.0945 -0.2066
 2118DDP     C412708  14.904   0.626  20.690 -0.1960  0.0940  0.0281
 2119DDP     C112709  10.134   5.332  14.632  0.1433 -0.3786  0.3031
 2119DDP     P112710  10.198   4.906  14.409  0.4225  0.0156 -0.1491
 2119DDP     P212711   9.904   5.740  14.489  0.1137  0.1646  0.0151
 2119DDP     C212712  10.006   6.192  14.476  0.1282 -0.0394 -0.0420
 2119DDP     C312713  10.426   4.659  14.138  0.1836  0.1381 -0.2006
 2119DDP     C412714  10.539   5.310  14.781 -0.0609  0.0184  0.2482
 2120DDP     C112715  11.754   2.317  24.585 -0.0567 -0.3792 -0.1027
 2120DDP     P112716  11.700   2.495  24.992 -0.1600  0.0329  0.3178
 2120DDP     P212717  11.697   1.954  24.570 -0.0782 -0.0453  0.3960
 2120DDP     C212718  11.780   1.781  24.209 -0.0403  0.0129 -0.1428
 2120DDP     C312719  11.612   2.682  25.404 -0.0384  0.2382 -0.1532
 2120DDP     C412720  12.122   2.381  24.299 -0.0222  0.5300 -0.0245
 2121DDP     C112721   6.111  23.306  14.104  0.1312  0.1712  0.1060
 2121DDP     P112722   6.209  22.967  14.159 -0.0148 -0.0898  0.1529
 2121DDP     P212723   6.556  23.527  14.039  0.2505  0.1660  0.4235
 2121DDP     C212724   6.663  23.921  13.870  0.3079 -0.0357  0.2507
 2121DDP     C312725   5.977  22.665  14.546 -0.2551 -0.0263  0.2003
 2121DDP     C412726   5.811  23.482  14.271  0.1608  0.2076 -0.0039
 2122DDP     C112727  11.192  16.999  20.052 -0.5725  0.3251  0.0423
 2122DDP     P112728  10.808  17.046  19.764 -0.0500  0.0965 -0.1077
 2122DDP     P212729  11.198  17.022  20.414  0.0087  0.3199  0.2970
 2122DDP     C212730  10.908  17.077  20.686 -0.0052  0.1965 -0.3023
 2122DDP     C312731  10.498  17.324  19.916  0.2707  0.2062 -0.2271
 2122DDP     C412732  11.492  16.686  19.842  0.1311 -0.2372 -0.1094
 2123DDP     C112733  14.476  26.200  24.398  0.1213 -0.1641  0.1631
 2123DDP     P112734  14.305  25.813  24.431  0.2202  0.0342  0.0208
 2123DDP     P212735  14.380  26.606  24.223  0.2547 -0.0606 -0.2690
 2123DDP     C212736  13.991  26.757  24.084 -0.1107  0.1031 -0.1292
 2123DDP     C312737  13.948  25.568  24.672  0.1804 -0.0070 -0.0682
 2123DDP     C412738  14.865  26.297  24.647  0.1499  0.0291 -0.2603
 2124DDP     C112739  21.616  18.557  22.093 -0.1708 -0.0495  0.4320
 2124DDP     P112740  22.075  18.631  21.947 -0.1466  0.0841  0.0091
 2124DDP     P212741  21.636  18.776  22.530  0.1292  0.0221 -0.0567
 2124DDP     C212742  21.734  18.608  22.886  0.0613  0.1209  0.3043
 2124DDP     C312743  22.521  18.769  22.124  0.0585 -0.0626  0.2116
 2124DDP     C412744  21.262  18.704  21.736 -0.0962  0.4956  0.0465
 2125DDP     C112745  26.518  16.086  19.825 -0.0862 -0.0384  0.0468
 2125DDP     P112746  26.237  16.025  19.513  0.1196 -0.0163 -0.0675
 2125DDP     P212747  26.935  15.901  19.589  0.0089  0.0474  0.2541
 2125DDP     C212748  27.348  15.928  19.455  0.0911 -0.1276  0.1166
 2125DDP     C312749  25.900  15.718  19.389  0.2416  0.0394 -0.0128
 2125DDP     C412750  26.410  16.111  20.276 -0.0381  0.1765  0.0647
 2126DDP     C112751   4.313   5.878  13.887 -0.2320  0.0685  0.2398
 2126DDP     P112752   4.561   6.241  13.803  0.0591 -0.2495  0.1699
 2126DDP     P212753   4.219   5.683  13.551  0.1204 -0.3102 -0.1566
 2126DDP     C212754   3.838   5.570  13.540 -0.1659 -0.4076 -0.0442
 2126DDP     C312755   4.740   6.367  13.429  0.0494 -0.2082  0.2571
 2126DDP     C412756   4.248   5.657  14.295  0.5089  0.0001  0.0221
 2127DDP     C112757  11.688   5.245  30.138  0.0065  0.2727 -0.2603
 2127DDP     P112758  11.905   4.881  29.843  0.2695  0.2101  0.0917
 2127DDP     P212759  11.776   5.167   0.212 -0.0062 -0.0158 -0.0889
 2127DDP     C212760  11.802   5.330   0.618 -0.2729  0.0327 -0.0711
 2127DDP     C312761  12.279   4.660  29.900 -0.1283 -0.1680 -0.1166
 2127DDP     C412762  11.477   5.619  29.839 -0.3424  0.0202  0.0907
 2128DDP     C112763   7.060  19.751  24.474  0.1440  0.2973 -0.1280
 2128DDP     P112764   7.375  19.825  24.248 -0.2879 -0.1334  0.0787
 2128DDP     P212765   6.724  19.586  24.219 -0.0453  0.0044  0.1327
 2128DDP     C212766   6.769  19.383  23.779  0.1541 -0.0296  0.0919
 2128DDP     C312767   7.641  19.768  23.805 -0.3120 -0.1465  0.0147
 2128DDP     C412768   7.019  19.729  24.881 -0.0951 -0.1904  0.1937
 2129DDP     C112769  14.813   2.500  17.539 -0.2035  0.4758 -0.0638
 2129DDP     P112770  14.623   2.239  17.245  0.0311 -0.0704 -0.4728
 2129DDP     P212771  14.573   2.759  17.642  0.1756  0.0231 -0.3470
 2129DDP     C212772  14.636   3.156  17.486  0.1633  0.0372  0.0405
 2129DDP     C312773  14.661   1.777  17.354 -0.1792  0.1450  0.0696
 2129DDP     C412774  15.134   2.554  18.011  0.3628  0.2516  0.2240
 2130DDP     C112775   0.727   9.024   4.800 -0.0371 -0.0274 -0.2334
 2130DDP     P112776   0.902   9.285   5.129 -0.1150 -0.0145  0.0262
 2130DDP     P212777   0.370   8.844   4.944  0.1208 -0.1814  0.1970
 2130DDP     C212778   0.194   8.490   5.014 -0.0414  0.1126  0.0452
 2130DDP     C312779   1.270   9.390   5.254 -0.1272 -0.3806  0.2113
 2130DDP     C412780   0.938   9.054   4.480 -0.2959  0.2130  0.0064
 2131DDP     C112781  30.230  12.650   6.098  0.2105  0.0337  0.0576
 2131DDP     P112782  29.958  12.658   5.836  0.2486 -0.0693  0.0852
 2131DDP     P212783  30.000  12.871   6.331  0.2366 -0.0187 -0.0195
 2131DDP     C212784  29.810  12.872   6.768 -0.2042  0.6173 -0.0466
 2131DDP     C312785  29.569  12.621   5.461  0.4659  0.1710  0.4176
 2131DDP     C412786   0.253  12.420   6.117  0.2193 -0.5551  0.2168
 2132DDP     C112787  22.717   8.331   2.990 -0.2073 -0.0128  0.1310
 2132DDP     P112788  22.570   8.367   2.668 -0.5275 -0.0214  0.0021
 2132DDP     P212789  23.134   8.567   2.979 -0.2671  0.1482 -0.1097
 2132DDP     C212790  23.276   8.918   2.808 -0.1076 -0.0932  0.0882
 2132DDP     C312791  22.619   8.405   2.158  0.1374  0.0659 -0.3219
 2132DDP     C412792  22.690   7.940   3.239  0.2150 -0.2197 -0.0866
 2133DDP     C112793  15.499   6.779   5.583 -0.0851 -0.3053  0.2170
 2133DDP     P112794  15.527   6.901   5.119  0.2653 -0.1169  0.3690
 2133DDP     P212795  15.076   6.647   5.860  0.0801  0.0429 -0.1304
 2133DDP     C212796  14.649   6.514   6.067 -0.2657  0.1494 -0.1307
 2133DDP     C312797  15.700   7.117   4.719 -0.1240 -0.1470 -0.0059
 2133DDP     C412798  15.879   6.870   5.904 -0.0396 -0.0279  0.1241
 2134DDP     C112799  17.322   2.839  15.388 -0.0653  0.1566 -0.0272
 2134DDP     P112800  17.758   2.795  15.240  0.2309 -0.3537 -0.0734
 2134DDP     P212801  17.221   2.687  15.691 -0.1437  0.0412 -0.1921
 2134DDP     C212802  16.983   2.254  15.916  0.2009 -0.0490 -0.0245
 2134DDP     C312803  17.862   2.470  15.060 -0.3407  0.2341 -0.0638
 2134DDP     C412804  17.017   3.042  15.059  0.0572 -0.0112  0.0662
 2135DDP     C112805  20.958  23.669  28.951  0.1749  0.0034 -0.2043
 2135DDP     P112806  20.898  24.140  28.957  0.0517 -0.0702  0.1593
 2135DDP     P212807  20.919  23.489  29.335  0.2634 -0.0151  0.1505
 2135DDP     C212808  20.992  23.358  29.702 -0.0261  0.1162 -0.1377
 2135DDP     C312809  20.708  24.557  28.781 -0.0565 -0.0186 -0.5603
 2135DDP     C412810  21.222  23.340  28.721 -0.1004 -0.1341 -0.2182
 2136DDP     C112811   2.252  16.073  26.417 -0.1569  0.0087  0.2648
 2136DDP     P112812   2.438  15.989  26.060  0.1539 -0.1121  0.1452
 2136DDP     P212813   1.870  15.892  26.466  0.1648  0.0473 -0.2065
 2136DDP     C212814   1.697  15.453  26.339 -0.1795 -0.1502 -0.1819
 2136DDP     C312815   2.828  16.260  26.018  0.1471  0.0031 -0.1569
 2136DDP     C412816   2.510  16.239  26.698 -0.1703 -0.3441 -0.0039
 2137DDP     C112817   3.598  24.206   3.103  0.1216 -0.0890 -0.0276
 2137DDP     P112818   3.829  24.123   2.757  0.1959 -0.0023  0.2464
 2137DDP     P212819   3.678  24.707   3.167  0.0892 -0.0999 -0.0531
 2137DDP     C212820   3.613  25.156   2.884  0.4137 -0.0679  0.1215
 2137DDP     C312821   4.052  24.008   2.460 -0.3456 -0.5328 -0.1363
 2137DDP     C412822   3.427  23.897   3.334 -0.0673  0.1481 -0.0532
 2138DDP     C112823   3.301  17.986  11.042  0.0165  0.1106 -0.3499
 2138DDP     P112824   3.643  18.230  11.184  0.1031 -0.1730  0.2320
 2138DDP     P212825   3.340  17.549  11.132  0.1992 -0.0894  0.2053
 2138DDP     C212826   3.277  17.325  11.428  0.1097 -0.4008 -0.0742
 2138DDP     C312827   3.737  18.648  11.451 -0.0267 -0.1710  0.1504
 2138DDP     C412828   2.986  18.007  10.792 -0.0738  0.1914  0.2103
 2139DDP     C112829  12.686   1.756   1.944 -0.0189  0.1795  0.0188
 2139DDP     P112830  13.029   1.857   2.278  0.0149  0.1459 -0.2580
 2139DDP     P212831  12.803   1.300   1.909  0.3160 -0.2451  0.3832
 2139DDP     C212832  12.599   0.954   1.727  0.0349  0.0197  0.1446
 2139DDP     C312833  13.171   2.181   2.514 -0.0115  0.0489 -0.0810
 2139DDP     C412834  12.431   1.951   1.629  0.0655  0.1963  0.0708
 2140DDP     C112835  14.679  30.244  29.250  0.1324  0.0274 -0.1700
 2140DDP     P112836  14.315  30.090  29.551  0.0949 -0.0434 -0.3847
 2140DDP     P212837  15.048  30.104  29.270 -0.4495  0.1243  0.0418
 2140DDP     C212838  15.305  29.768  28.984 -0.4058  0.2883  0.0534
 2140DDP     C312839  13.814  29.911  29.668 -0.1593  0.2287 -0.2597
 2140DDP     C412840  14.449   0.092  28.893  0.3313  0.1331 -0.0202
 2141DDP     C112841   3.548  27.467   8.612  0.2173 -0.1103  0.0045
 2141DDP     P112842   3.259  27.534   8.887 -0.0970 -0.3104 -0.1145
 2141DDP     P212843   3.497  27.244   8.259  0.2219  0.2119  0.1712
 2141DDP     C212844   3.703  26.917   8.162 -0.0343  0.1631  0.0986
 2141DDP     C312845   2.831  27.433   8.790  0.0154  0.0085  0.0103
 2141DDP     C412846   3.854  27.753   8.719  0.0297  0.0458 -0.0313
 2142DDP     C112847  21.049  21.857   2.253  0.1498  0.0450 -0.1549
 2142DDP     P112848  21.446  21.577   2.424  0.2080  0.0101 -0.0521
 2142DDP     P212849  20.868  22.054   1.874  0.0820 -0.3269  0.0730
 2142DDP     C212850  20.531  22.122   1.607 -0.3299 -0.2742  0.2258
 2142DDP     C312851  21.856  21.203   2.494 -0.1183  0.0962  0.2512
 2142DDP     C412852  20.680  21.993   2.532 -0.1017 -0.2095  0.1170
 2143DDP     C112853  26.810  23.308   4.213  0.1181 -0.2577 -0.1763
 2143DDP     P112854  26.933  23.758   4.251  0.0001  0.0905 -0.2136
 2143DDP     P212855  26.353  23.195   4.297 -0.1581 -0.1900 -0.2075
 2143DDP     C212856  26.053  22.783   4.276 -0.0341 -0.6647 -0.2788
 2143DDP     C312857  27.282  23.903   4.218  0.0263 -0.3336  0.0554
 2143DDP     C412858  27.032  22.992   4.058 -0.2160 -0.2310  0.0627
 2144DDP     C112859   2.560  23.280   6.167  0.3234  0.0715  0.4587
 2144DDP     P112860   2.194  23.291   6.230 -0.2014 -0.1126  0.0031
 2144DDP     P212861   2.764  23.642   6.044 -0.1343 -0.2908 -0.0571
 2144DDP     C212862   2.928  24.012   5.797 -0.1202 -0.0687 -0.0164
 2144DDP     C312863   1.892  23.126   5.894 -0.1360  0.1162 -0.0853
 2144DDP     C412864   2.881  23.057   6.445 -0.1076  0.0762 -0.0621
 2145DDP     C112865  15.532  22.350  12.099  0.0111 -0.1010  0.1114
 2145DDP     P112866  15.562  22.776  11.840 -0.0723  0.1628  0.1185
 2145DDP     P212867  15.184  22.463  12.470  0.1442 -0.0737  0.0023
 2145DDP     C212868  14.818  22.586  12.708  0.1769 -0.0749  0.3215
 2145DDP     C312869  15.820  22.774  11.440  0.3653  0.1163 -0.0620
 2145DDP     C412870  15.770  22.034  12.165  0.2414  0.2587  0.1364
 2146DDP     C112871   6.267  10.335  14.652 -0.1665 -0.0699  0.1177
 2146DDP     P112872   6.161  10.603  14.985  0.1302 -0.2556 -0.4417
 2146DDP     P212873   6.391  10.009  14.768  0.3424  0.1123  0.0321
 2146DDP     C212874   6.746   9.940  15.060 -0.1364 -0.1128 -0.3463
 2146DDP     C312875   6.195  11.039  14.991 -0.0602  0.0151  0.4524
 2146DDP     C412876   6.073  10.434  14.308  0.1612 -0.3924 -0.1285
 2147DDP     C112877   5.549   5.608  18.155 -0.1414 -0.1937  0.3750
 2147DDP     P112878   5.150   5.471  18.046 -0.0499 -0.0319  0.0096
 2147DDP     P212879   5.472   6.040  18.102 -0.0912  0.1531  0.3475
 2147DDP     C212880   5.025   6.239  18.023 -0.2167 -0.0537 -0.1671
 2147DDP     C312881   4.910   5.144  18.187 -0.3497  0.1867 -0.1899
 2147DDP     C412882   5.765   5.376  18.443  0.0405 -0.2432  0.1524
 2148DDP     C112883  25.672  22.027  24.294  0.2586 -0.0897 -0.0575
 2148DDP     P112884  25.330  22.421  24.118  0.0381 -0.0652  0.0274
 2148DDP     P212885  25.735  22.112  23.854 -0.0632  0.0475  0.1022
 2148DDP     C212886  25.790  22.029  23.412 -0.3615 -0.4913  0.0757
 2148DDP     C312887  25.094  22.637  23.839  0.1897 -0.1221 -0.2163
 2148DDP     C412888  25.504  21.736  24.572  0.0250  0.6486 -0.1008
 2149DDP     C112889  19.263  17.743  25.078  0.0482  0.2045  0.2989
 2149DDP     P112890  19.244  17.657  24.639 -0.1432 -0.0662 -0.0437
 2149DDP     P212891  19.072  18.149  25.175 -0.1260 -0.0275 -0.0525
 2149DDP     C212892  18.880  18.482  24.907  0.1683  0.2387  0.2809
 2149DDP     C312893  19.242  17.416  24.212  0.0199 -0.0930  0.1345
 2149DDP     C412894  19.346  17.391  25.386 -0.2384  0.0409  0.1982
 2150DDP     C112895  26.869   7.701   2.158  0.1209 -0.0639 -0.2295
 2150DDP     P112896  26.354   7.663   2.280  0.0209  0.1635  0.0283
 2150DDP     P212897  27.050   8.110   1.931 -0.1267 -0.0753  0.0136
 2150DDP     C212898  27.174   8.527   1.785  0.1242 -0.2333  0.0294
 2150DDP     C312899  25.861   7.547   2.193 -0.1905  0.3641 -0.1426
 2150DDP     C412900  27.154   7.363   2.320  0.6603  0.0193 -0.0956
 2151DDP     C112901  28.160  21.576  19.568 -0.0169  0.0914  0.4898
 2151DDP     P112902  28.078  21.795  19.069 -0.0865  0.0149  0.1183
 2151DDP     P212903  28.586  21.633  19.729  0.0150 -0.4530 -0.0457
 2151DDP     C212904  28.776  21.784  20.104 -0.1128 -0.3104 -0.1170
 2151DDP     C312905  28.425  21.864  18.756 -0.0255  0.0143  0.3453
 2151DDP     C412906  27.987  21.201  19.749  0.0497  0.1083  0.0476
 2152DDP     C112907   5.613  14.820  26.858  0.3252 -0.0827  0.0141
 2152DDP     P112908   5.474  14.639  27.266  0.2407 -0.2286 -0.1178
 2152DDP     P212909   5.541  15.281  26.960 -0.0089 -0.1561  0.0248
 2152DDP     C212910   5.547  15.735  26.935  0.1470 -0.2474 -0.1001
 2152DDP     C312911   5.486  14.411  27.679  0.2269  0.2429 -0.0798
 2152DDP     C412912   5.673  14.661  26.435  0.0337 -0.1637 -0.1302
 2153DDP     C112913  24.905   7.865  24.251  0.1532  0.0701 -0.1021
 2153DDP     P112914  25.221   7.943  24.630 -0.0587 -0.0183 -0.2756
 2153DDP     P212915  24.583   8.107  24.064  0.0639 -0.2572  0.0799
 2153DDP     C212916  24.169   8.129  24.010  0.2057 -0.0963  0.1907
 2153DDP     C312917  25.649   8.200  24.887  0.2716  0.1131 -0.2723
 2153DDP     C412918  24.993   7.577  23.944  0.1431 -0.2181  0.1557
 2154DDP     C112919  29.622  28.155   0.088  0.0362 -0.0328 -0.1123
 2154DDP     P112920  29.557  28.325   0.495 -0.1091  0.0387  0.3804
 2154DDP     P212921  29.247  28.073  30.112  0.1522  0.1981 -0.0663
 2154DDP     C212922  28.894  28.132  29.809 -0.0551  0.0985  0.0077
 2154DDP     C312923  29.792  28.338   0.845  0.2602 -0.0149 -0.1792
 2154DDP     C412924  29.991  27.887   0.028 -0.0718 -0.1039 -0.2659
 2155DDP     C112925  16.715  26.806   4.651  0.0025  0.2869 -0.0051
 2155DDP     P112926  16.535  27.133   4.918 -0.0662 -0.0464 -0.1784
 2155DDP     P212927  16.516  26.826   4.277 -0.3523 -0.1150  0.0440
 2155DDP     C212928  16.331  27.263   4.220 -0.1297  0.0376 -0.1633
 2155DDP     C312929  16.247  27.450   4.756 -0.1875  0.0355 -0.0037
 2155DDP     C412930  16.961  26.460   4.934  0.5918 -0.0081 -0.1386
 2156DDP     C112931  15.511  21.875  18.043 -0.1870  0.2650  0.0639
 2156DDP     P112932  15.432  22.104  17.723  0.1033  0.2064  0.0395
 2156DDP     P212933  15.234  21.576  18.288 -0.0928 -0.0676  0.0296
 2156DDP     C212934  14.978  21.657  18.702  0.0675 -0.0104  0.1331
 2156DDP     C312935  15.270  22.381  17.454  0.1658  0.2694  0.0483
 2156DDP     C412936  15.892  21.755  18.129  0.2480  0.3148  0.0306
 2157DDP     C112937  18.876  29.170  24.153 -0.1319 -0.0613  0.0424
 2157DDP     P112938  18.968  29.583  24.119 -0.2700 -0.0776 -0.0195
 2157DDP     P212939  18.835  28.849  23.824 -0.0613  0.0806  0.2525
 2157DDP     C212940  18.876  28.512  23.545  0.2902 -0.1066  0.0632
 2157DDP     C312941  18.690  29.916  24.171 -0.0525  0.2071  0.1060
 2157DDP     C412942  18.900  29.007  24.579  0.0619  0.0618  0.0276
 2158DDP     C112943   3.841  10.492   1.903  0.1514  0.3180  0.2863
 2158DDP     P112944   3.890  10.120   2.010  0.1609  0.1150 -0.3054
 2158DDP     P212945   4.197  10.456   1.594 -0.1025 -0.2082 -0.1919
 2158DDP     C212946   4.640  10.471   1.433  0.3884 -0.1648 -0.0939
 2158DDP     C312947   3.705   9.702   2.082 -0.2198 -0.1110  0.0049
 2158DDP     C412948   3.383  10.688   1.771  0.0051 -0.0807  0.3235
 2159DDP     C112949   6.966  28.807   3.994  0.1696  0.0114 -0.2525
 2159DDP     P112950   6.596  28.627   3.903 -0.0736 -0.1973 -0.0621
 2159DDP     P212951   7.116  28.963   4.369 -0.0767 -0.1338 -0.0314
 2159DDP     C212952   7.039  29.446   4.483 -0.0514 -0.0238 -0.2090
 2159DDP     C312953   6.195  28.363   4.109 -0.1758 -0.2605  0.0028
 2159DDP     C412954   7.364  28.783   3.742 -0.0542  0.1090  0.1620
 2160DDP     C112955   8.309   7.269  22.659 -0.1313  0.0758  0.2557
 2160DDP     P112956   7.976   7.249  22.319 -0.1940 -0.0705  0.1635
 2160DDP     P212957   8.624   7.086  22.622  0.0942 -0.0815  0.0013
 2160DDP     C212958   9.004   6.946  22.775 -0.0547 -0.0150 -0.0804
 2160DDP     C312959   7.694   7.087  21.995  0.0036  0.1097 -0.2041
 2160DDP     C412960   8.146   7.398  22.994  0.0564  0.0744  0.0189
 2161DDP     C112961   6.371  20.121  29.283 -0.0526 -0.0802 -0.2357
 2161DDP     P112962   6.796  20.307  29.218  0.2676 -0.0243 -0.4146
 2161DDP     P212963   6.171  20.248  28.849  0.0593 -0.0925 -0.4071
 2161DDP     C212964   6.344  20.485  28.561 -0.2065  0.2950 -0.2728
 2161DDP     C312965   7.101  20.528  29.059 -0.2707  0.0312 -0.1210
 2161DDP     C412966   6.279  19.801  29.637 -0.1790  0.0508  0.1638
 2162DDP     C112967  26.378  11.071   9.386 -0.0574  0.0715  0.2290
 2162DDP     P112968  26.773  11.298   9.243  0.2854  0.2489 -0.1510
 2162DDP     P212969  26.459  10.558   9.545 -0.1489  0.1954 -0.6054
 2162DDP     C212970  26.124  10.361   9.648 -0.0218  0.0540  0.3122
 2162DDP     C312971  26.977  11.315   8.901 -0.0156  0.3093  0.4565
 2162DDP     C412972  26.050  11.267   9.369 -0.2544 -0.0777 -0.1024
 2163DDP     C112973  16.312   2.134  29.750 -0.0606  0.0363  0.4981
 2163DDP     P112974  16.324   2.535  30.087  0.0681  0.0683 -0.0744
 2163DDP     P212975  16.114   2.125  29.408 -0.1300  0.0563  0.0506
 2163DDP     C212976  15.947   2.318  29.030  0.1006 -0.1138 -0.0195
 2163DDP     C312977  16.490   2.907   0.027  0.3705  0.0185 -0.0820
 2163DDP     C412978  16.682   1.885  29.832  0.0107  0.0611  0.3002
 2164DDP     C112979  22.812   0.422  10.780 -0.3689 -0.2006 -0.4846
 2164DDP     P112980  22.541   0.320  11.151  0.0431  0.0271 -0.0712
 2164DDP     P212981  22.620   0.613  10.512 -0.2557 -0.2667  0.0482
 2164DDP     C212982  22.436   0.447  10.062  0.1691 -0.0123  0.1251
 2164DDP     C312983  22.256   0.631  11.390  0.1365  0.0124  0.1785
 2164DDP     C412984  23.159   0.340  10.849 -0.3397  0.2614  0.3213
 2165DDP     C112985  27.285   9.275   2.310  0.2332  0.2405 -0.1509
 2165DDP     P112986  27.548   9.210   2.676  0.0185 -0.2675 -0.0429
 2165DDP     P212987  26.938   9.591   2.374  0.0516 -0.1316  0.1140
 2165DDP     C212988  26.757   9.667   2.797 -0.1528 -0.0253  0.4582
 2165DDP     C312989  27.470   8.997   3.071 -0.2745  0.0045 -0.1451
 2165DDP     C412990  27.226   8.997   2.006  0.3721 -0.3557 -0.1156
 2166DDP     C112991  18.885  28.224  25.269 -0.1750 -0.1878  0.0391
 2166DDP     P112992  18.882  27.979  24.825 -0.4108 -0.1397  0.1890
 2166DDP     P212993  18.830  27.982  25.681 -0.1042  0.0496 -0.2821
 2166DDP     C212994  19.057  27.891  26.005 -0.0817 -0.0573 -0.3056
 2166DDP     C312995  19.085  27.634  24.603  0.0823 -0.1898 -0.0544
 2166DDP     C412996  19.106  28.572  25.289 -0.1948 -0.1298 -0.4507
 2167DDP     C112997   8.711  26.410  25.590  0.3068  0.0463 -0.0287
 2167DDP     P112998   8.551  26.688  25.356  0.0299  0.1476  0.0324
 2167DDP     P212999   9.063  26.223  25.436 -0.1472 -0.0661  0.1261
 2167DDP     C213000   9.356  26.179  25.161  0.1236  0.0710  0.3974
 2167DDP     C313001   8.426  27.095  25.103 -0.1256 -0.0581  0.0418
 2167DDP     C413002   8.518  26.185  25.849 -0.2962  0.1271 -0.1314
 2168DDP     C113003   5.724  22.548   6.484  0.1020  0.0310  0.0881
 2168DDP     P113004   5.536  22.342   6.815 -0.3116  0.1369 -0.0144
 2168DDP     P213005   5.924  22.207   6.394 -0.0699  0.2055  0.0413
 2168DDP     C213006   5.982  22.057   6.012 -0.0245 -0.0698  0.2356
 2168DDP     C313007   5.191  22.345   7.144  0.1828 -0.0012  0.0939
 2168DDP     C413008   5.625  22.701   6.117 -0.0377  0.0185 -0.2202
 2169DDP     C113009  17.299  19.385   4.251  0.1444 -0.2350  0.2431
 2169DDP     P113010  17.105  18.981   4.287 -0.1544  0.4453  0.1671
 2169DDP     P213011  17.511  19.554   3.924 -0.0703 -0.1507  0.1179
 2169DDP     C213012  17.809  19.744   3.748  0.1579  0.0394 -0.1027
 2169DDP     C313013  16.871  18.708   4.408  0.1211 -0.4962  0.0343
 2169DDP     C413014  17.230  19.663   4.553  0.1723 -0.0310 -0.2491
 2170DDP     C113015  27.100   5.407   0.531 -0.0053 -0.0701  0.1293
 2170DDP     P113016  27.282   5.028   0.714 -0.0725 -0.1676  0.2093
 2170DDP     P213017  26.722   5.357   0.228  0.0835  0.1808 -0.3154
 2170DDP     C213018  26.200   5.239   0.287 -0.3672  0.1744  0.1987
 2170DDP     C313019  27.073   4.619   0.749  0.1201  0.0356 -0.3519
 2170DDP     C413020  27.328   5.730   0.698 -0.0515 -0.1998 -0.1798
 2171DDP     C113021  24.984   1.006   8.705 -0.0889  0.2690  0.2570
 2171DDP     P113022  25.123   0.751   8.417  0.0838  0.0381  0.1665
 2171DDP     P213023  24.660   1.067   9.090 -0.0950 -0.4640 -0.1229
 2171DDP     C213024  24.510   1.340   9.564  0.2397 -0.0072 -0.1403
 2171DDP     C313025  25.242   0.423   8.377  0.0035  0.1527  0.0688
 2171DDP     C413026  25.187   1.440   8.707  0.1046  0.2745  0.0445
 2172DDP     C113027  11.943  28.749  17.947  0.2975 -0.0637  0.0599
 2172DDP     P113028  12.298  28.485  17.865  0.0098 -0.1768  0.1629
 2172DDP     P213029  11.923  29.197  17.664  0.0091  0.2399 -0.2822
 2172DDP     C213030  11.741  29.636  17.631  0.1120 -0.0166  0.0839
 2172DDP     C313031  12.742  28.484  17.662  0.0649  0.3042  0.1668
 2172DDP     C413032  11.908  28.771  18.390  0.1471  0.1377 -0.2706
 2173DDP     C113033  19.673  17.399  19.467 -0.0423 -0.1057  0.2650
 2173DDP     P113034  19.424  17.180  19.703  0.3517 -0.2064 -0.2625
 2173DDP     P213035  20.077  17.333  19.663  0.4265  0.0550 -0.0404
 2173DDP     C213036  20.253  17.551  19.920  0.0185 -0.0263 -0.0510
 2173DDP     C313037  19.226  17.119  20.159 -0.1271  0.1295 -0.1351
 2173DDP     C413038  19.530  17.612  19.203 -0.1210  0.0267  0.0910
 2174DDP     C113039  26.410  11.089   8.869  0.0423 -0.0236  0.4897
 2174DDP     P113040  26.688  10.818   9.017 -0.5597  0.0773 -0.1301
 2174DDP     P213041  26.111  10.933   8.510 -0.2280  0.0783 -0.1398
 2174DDP     C213042  25.674  11.059   8.512  0.0912  0.0885 -0.0208
 2174DDP     C313043  26.894  10.878   9.454 -0.1163  0.2152  0.1439
 2174DDP     C413044  26.360  11.478   8.952 -0.1636 -0.1022  0.2343
 2175DDP     C113045  19.847  16.406   8.760  0.2093 -0.1341  0.1290
 2175DDP     P113046  19.624  16.752   8.617 -0.2294  0.1061  0.1018
 2175DDP     P213047  19.654  16.073   8.567  0.1252  0.4498  0.2949
 2175DDP     C213048  19.449  15.738   8.737  0.0592 -0.0392 -0.0291
 2175DDP     C313049  19.787  17.140   8.638  0.1544  0.0564 -0.1879
 2175DDP     C413050  20.171  16.456   9.014  0.1174  0.0866 -0.0155
 2176DDP     C113051   7.134  22.043  22.415  0.1066  0.2253  0.1261
 2176DDP     P113052   7.067  21.766  22.092 -0.0662  0.1785  0.3200
 2176DDP     P213053   7.501  22.398  22.550 -0.1404  0.1788 -0.2521
 2176DDP     C213054   7.682  22.835  22.710 -0.0774 -0.1260  0.0662
 2176DDP     C313055   7.278  21.716  21.721 -0.1289 -0.1375  0.2166
 2176DDP     C413056   6.853  22.094  22.686 -0.1454  0.4681  0.0215
 2177DDP     C113057   6.838  23.111  11.333 -0.0033  0.0708 -0.0543
 2177DDP     P113058   6.737  23.510  11.315  0.1309 -0.3781 -0.3582
 2177DDP     P213059   6.741  22.845  11.013 -0.0372 -0.0197 -0.1374
 2177DDP     C213060   7.008  22.892  10.587 -0.1039  0.2448 -0.2962
 2177DDP     C313061   6.931  23.958  11.198 -0.0097 -0.2045  0.0274
 2177DDP     C413062   7.097  23.018  11.690  0.4639  0.1192  0.0726
 2178DDP     C113063   0.365   1.028   8.054 -0.1430  0.3192 -0.5632
 2178DDP     P113064   0.301   1.294   8.466  0.0272  0.1790 -0.1168
 2178DDP     P213065   0.519   0.688   8.187  0.0497 -0.1322 -0.4750
 2178DDP     C213066   0.496   0.255   8.561 -0.2037  0.1617  0.0218
 2178DDP     C313067   0.520   1.685   8.537  0.0297 -0.2050  0.4048
 2178DDP     C413068   0.066   0.956   7.834  0.2045 -0.2344 -0.0796
 2179DDP     C113069  16.508   5.365   6.640 -0.0800  0.0599  0.0051
 2179DDP     P113070  16.021   5.233   6.488  0.0987 -0.0452 -0.1293
 2179DDP     P213071  16.694   5.663   6.914  0.0881  0.0268 -0.0088
 2179DDP     C213072  16.502   5.875   7.211  0.2016 -0.0707  0.0200
 2179DDP     C313073  15.738   4.945   6.494 -0.0068 -0.2335 -0.2078
 2179DDP     C413074  16.765   5.060   6.581 -0.2343 -0.1571 -0.1415
 2180DDP     C113075  25.933  28.326  17.771 -0.0954  0.0578  0.0571
 2180DDP     P113076  26.327  28.380  17.834 -0.0920  0.0041 -0.0360
 2180DDP     P213077  26.119  27.889  17.704  0.2847  0.3163  0.2596
 2180DDP     C213078  26.336  27.556  17.806  0.0505  0.1059 -0.1067
 2180DDP     C313079  26.680  28.379  17.976  0.4015 -0.3309 -0.0914
 2180DDP     C413080  25.581  28.570  17.618  0.1929 -0.3156 -0.4284
 2181DDP     C113081  14.118   0.176   6.302  0.1368 -0.1314 -0.3030
 2181DDP     P113082  13.826  -0.010   5.988  0.1841 -0.1145  0.2685
 2181DDP     P213083  14.447   0.072   6.525 -0.3113 -0.2297  0.0215
 2181DDP     C213084  14.789  29.994   6.619 -0.1626  0.1501 -0.1526
 2181DDP     C313085  13.910   0.115   5.527  0.0148  0.0317 -0.2677
 2181DDP     C413086  13.711   0.122   6.537  0.1644  0.1434 -0.5119
 2182DDP     C113087  16.577   6.029  12.424 -0.1651 -0.0570  0.0899
 2182DDP     P113088  16.259   6.178  12.732 -0.0552 -0.1182 -0.0314
 2182DDP     P213089  16.492   5.775  12.113 -0.3916  0.0772  0.2405
 2182DDP     C213090  16.577   5.704  11.695 -0.1867  0.1629 -0.0617
 2182DDP     C313091  16.203   6.657  13.024  0.0280  0.1425 -0.0302
 2182DDP     C413092  17.022   5.917  12.524 -0.0434 -0.0818 -0.1000
 2183DDP     C113093   4.095   7.875   9.908 -0.0871  0.0492 -0.0785
 2183DDP     P113094   4.124   8.138   9.487 -0.2469 -0.2110  0.1761
 2183DDP     P213095   4.567   7.750  10.090  0.0306  0.1989  0.1781
 2183DDP     C213096   4.732   8.170  10.212  0.3955 -0.2982 -0.1378
 2183DDP     C313097   4.137   8.337   9.069 -0.0223  0.0600 -0.3274
 2183DDP     C413098   3.742   7.566  10.084 -0.2807 -0.2578  0.0741
 2184DDP     C113099   3.739   7.856  24.460  0.0623  0.0071 -0.1162
 2184DDP     P113100   3.810   7.591  24.870  0.1467 -0.0063  0.1177
 2184DDP     P213101   3.746   8.310  24.552  0.2406 -0.1902  0.0608
 2184DDP     C213102   3.395   8.563  24.401  0.1354  0.1140 -0.2139
 2184DDP     C313103   3.800   7.473  25.324  0.0265 -0.1611 -0.0074
 2184DDP     C413104   3.858   7.753  24.105 -0.2613 -0.2664 -0.0064
 2185DDP     C113105  18.333  27.697  20.459 -0.4422 -0.0190  0.1279
 2185DDP     P113106  18.165  27.482  20.207  0.2166  0.3202 -0.1074
 2185DDP     P213107  18.641  27.990  20.348  0.0565  0.2031 -0.1428
 2185DDP     C213108  19.090  27.948  20.233 -0.0599 -0.2480 -0.0937
 2185DDP     C313109  17.805  27.398  19.946 -0.0999  0.1664  0.3168
 2185DDP     C413110  18.303  27.702  20.849  0.1922  0.0138  0.1514
 2186DDP     C113111   9.861  21.012  20.617 -0.2182  0.0127  0.1348
 2186DDP     P113112   9.775  21.325  20.980  0.1368  0.1157 -0.1614
 2186DDP     P213113   9.916  21.214  20.101 -0.0181 -0.0233 -0.0438
 2186DDP     C213114   9.834  21.529  19.721 -0.0025 -0.0718 -0.1725
 2186DDP     C313115   9.636  21.606  21.351 -0.0078 -0.1725  0.0176
 2186DDP     C413116   9.443  20.704  20.666  0.0680 -0.2819  0.1376
 2187DDP     C113117  19.112   6.587   2.988 -0.0892 -0.2484 -0.1726
 2187DDP     P113118  19.258   6.833   2.749  0.2251 -0.1292  0.3501
 2187DDP     P213119  19.201   6.796   3.294  0.3279 -0.2496  0.1224
 2187DDP     C213120  19.370   7.001   3.644  0.1753 -0.0614 -0.1049
 2187DDP     C313121  19.100   7.073   2.354  0.0332  0.3079 -0.0004
 2187DDP     C413122  19.235   6.165   2.965  0.1864 -0.1530  0.1156
 2188DDP     C113123   1.951  27.314   6.681 -0.3973  0.1713  0.0086
 2188DDP     P113124   1.591  27.462   6.626  0.1012 -0.2814  0.0714
 2188DDP     P213125   2.218  27.446   7.008 -0.2066 -0.2906  0.0754
 2188DDP     C213126   2.646  27.660   7.007  0.0773  0.2744 -0.3449
 2188DDP     C313127   1.419  27.725   6.263 -0.1332 -0.0360  0.2349
 2188DDP     C413128   2.162  27.261   6.318  0.0144  0.2118 -0.2235
 2189DDP     C113129  10.636  25.490  25.932 -0.3054  0.0620  0.2463
 2189DDP     P113130  10.365  25.449  25.657 -0.0298 -0.2016  0.0515
 2189DDP     P213131  10.809  25.159  26.224 -0.0164 -0.2259  0.0604
 2189DDP     C213132  10.999  24.912  26.485  0.0428 -0.2245 -0.1595
 2189DDP     C313133  10.437  25.198  25.426  0.3609 -0.1346 -0.1637
 2189DDP     C413134  10.863  25.757  25.708  0.1014  0.0516  0.1838
 2190DDP     C113135   8.083  17.730  19.165 -0.1667  0.2277 -0.2289
 2190DDP     P113136   7.945  18.083  19.022 -0.1855 -0.1708 -0.0824
 2190DDP     P213137   8.149  17.678  19.610  0.2003 -0.4433 -0.0871
 2190DDP     C213138   8.120  17.878  20.006 -0.1914  0.0418  0.0720
 2190DDP     C313139   7.699  18.354  18.907  0.0168  0.3218 -0.1420
 2190DDP     C413140   8.251  17.410  18.937  0.0545 -0.2410  0.0206
 2191DDP     C113141  24.153  30.243   9.695 -0.1378 -0.0365 -0.1200
 2191DDP     P113142  23.774  -0.004   9.490 -0.0818 -0.0128  0.1437
 2191DDP     P213143  24.168  29.771   9.621 -0.1945 -0.2121 -0.0240
 2191DDP     C213144  24.222  29.360   9.653 -0.3650 -0.0983 -0.4251
 2191DDP     C313145  23.316   0.135   9.572  0.1860  0.0863  0.0356
 2191DDP     C413146  24.246   0.085  10.154 -0.0728 -0.0847 -0.1984
 2192DDP     C113147  13.118   3.347  28.886  0.2782 -0.3124 -0.0722
 2192DDP     P113148  13.244   3.722  28.997  0.4067  0.2167 -0.1270
 2192DDP     P213149  12.663   3.238  28.906 -0.1004 -0.1219  0.2477
 2192DDP     C213150  12.481   2.845  28.710  0.1427  0.1547  0.0800
 2192DDP     C313151  12.883   3.643  29.367  0.3874 -0.2820  0.0402
 2192DDP     C413152  13.390   3.187  28.466  0.1406  0.0311  0.1074
 2193DDP     C113153  28.173   6.981  21.106 -0.0143 -0.1711 -0.2814
 2193DDP     P113154  28.056   6.936  20.662  0.1010  0.2540  0.0016
 2193DDP     P213155  28.113   6.527  21.241  0.1097 -0.0645 -0.1191
 2193DDP     C213156  28.064   6.084  21.083  0.0353 -0.0711  0.1826
 2193DDP     C313157  27.892   7.100  20.291  0.3561 -0.4002  0.0800
 2193DDP     C413158  28.452   7.336  21.222  0.0537  0.0722 -0.2536
 2194DDP     C113159   1.032  18.918  25.488 -0.0532  0.3027  0.3492
 2194DDP     P113160   1.298  19.226  25.396  0.0121  0.0868 -0.3123
 2194DDP     P213161   1.165  18.516  25.601  0.3374 -0.1161  0.1914
 2194DDP     C213162   1.473  18.374  25.272  0.3718  0.0307  0.1561
 2194DDP     C313163   1.245  19.665  25.300 -0.1426  0.2524  0.2426
 2194DDP     C413164   0.568  19.062  25.419 -0.2482 -0.1543 -0.0697
 2195DDP     C113165  28.094   7.814  12.670  0.2130  0.0059  0.0886
 2195DDP     P113166  28.511   7.557  12.829  0.1257  0.1439 -0.0256
 2195DDP     P213167  27.875   7.957  12.967 -0.0219  0.0121 -0.0131
 2195DDP     C213168  27.706   7.965  13.382  0.0860  0.0639  0.1362
 2195DDP     C313169  28.857   7.769  13.041  0.0249  0.0135 -0.2422
 2195DDP     C413170  28.309   8.163  12.335 -0.2928  0.0726 -0.2864
 2196DDP     C113171  29.581   2.419  20.011  0.0116 -0.0000 -0.3059
 2196DDP     P113172  29.825   2.761  19.896 -0.0973  0.1169  0.0182
 2196DDP     P213173  29.152   2.250  19.906  0.1084  0.0296  0.1001
 2196DDP     C213174  28.749   2.251  19.747  0.0700 -0.0418  0.2462
 2196DDP     C313175  30.195   2.797  19.716  0.0244 -0.2571  0.0003
 2196DDP     C413176  29.727   2.281  20.422 -0.0389 -0.1511  0.1903
 2197DDP     C113177  15.138  13.336   2.819 -0.3006  0.0892 -0.1635
 2197DDP     P113178  15.322  13.352   2.447 -0.2569 -0.1500  0.1854
 2197DDP     P213179  15.475  13.476   3.028  0.2552 -0.1537 -0.2494
 2197DDP     C213180  15.654  13.745   3.313  0.1222 -0.1404 -0.3345
 2197DDP     C313181  15.243  13.030   2.138 -0.0767  0.2649  0.0132
 2197DDP     C413182  14.725  13.410   2.845 -0.3274 -0.1751 -0.1285
 2198DDP     C113183  18.108  19.436  14.785  0.2867  0.1385 -0.1099
 2198DDP     P113184  18.229  19.312  14.377  0.3470 -0.1021  0.0185
 2198DDP     P213185  17.899  19.201  15.115 -0.0206  0.0048 -0.0219
 2198DDP     C213186  17.701  19.334  15.522  0.0298 -0.0867  0.1473
 2198DDP     C313187  18.324  19.322  13.876 -0.2462 -0.0521 -0.0594
 2198DDP     C413188  18.221  19.841  15.030 -0.1403 -0.1641  0.0836
 2199DDP     C113189   9.332  17.989  29.527 -0.0446  0.3068 -0.0481
 2199DDP     P113190   9.186  17.983  29.960  0.0353  0.1710  0.2452
 2199DDP     P213191   9.786  18.133  29.501  0.1333  0.1129  0.0881
 2199DDP     C213192   9.905  18.553  29.327 -0.1241 -0.0453  0.0281
 2199DDP     C313193   9.000  17.839   0.066 -0.0044 -0.1487  0.1081
 2199DDP     C413194   9.104  17.993  29.124 -0.2532 -0.2754 -0.0847
 2200DDP     C113195  23.196  29.882   9.828  0.0952  0.1466 -0.0863
 2200DDP     P113196  23.060  30.004   9.428  0.1966  0.0100 -0.2378
 2200DDP     P213197  22.895  29.506   9.637 -0.0966 -0.1833  0.2024
 2200DDP     C213198  22.493  29.332   9.684  0.1557  0.2784  0.0535
 2200DDP     C313199  22.902  29.972   8.953 -0.1349 -0.0016 -0.2026
 2200DDP     C413200  23.542  29.933   9.969 -0.1502  0.2255 -0.0774
 2201DDP     C113201   9.114  20.547  24.932  0.1968  0.0211 -0.1901
 2201DDP     P113202   9.380  20.752  25.165 -0.0210 -0.1533 -0.1033
 2201DDP     P213203   8.837  20.657  24.536  0.0416  0.0319 -0.0820
 2201DDP     C213204   8.979  20.821  24.177 -0.2711 -0.1819 -0.2011
 2201DDP     C313205   9.336  21.049  25.448 -0.1936  0.1378 -0.2566
 2201DDP     C413206   9.273  20.191  24.959  0.1209 -0.0698 -0.2520
 2202DDP     C113207  13.899  15.637  17.759 -0.0403  0.3690 -0.2099
 2202DDP     P113208  14.046  15.806  18.099 -0.1776 -0.1470  0.0578
 2202DDP     P213209  13.995  15.675  17.311 -0.0390 -0.1779  0.1102
 2202DDP     C213210  14.201  16.009  17.112  0.0981  0.2571 -0.0559
 2202DDP     C313211  14.144  16.231  18.395  0.0344  0.1633 -0.2908
 2202DDP     C413212  13.892  15.171  17.876  0.3014  0.1664 -0.0885
 2203DDP     C113213  13.737  11.562   6.120 -0.1391  0.0884  0.3036
 2203DDP     P113214  13.908  11.643   5.739 -0.0921  0.0242  0.1291
 2203DDP     P213215  13.512  11.172   6.107  0.0394 -0.1930  0.2221
 2203DDP     C213216  13.188  10.933   5.897  0.2227 -0.3251 -0.2066
 2203DDP     C313217  14.215  11.445   5.564  0.2207  0.1673  0.0417
 2203DDP     C413218  13.545  11.928   6.235  0.1101 -0.0072 -0.1863
 2204DDP     C113219  25.505   5.612  24.977  0.0925 -0.2319 -0.1276
 2204DDP     P113220  25.884   5.462  25.195 -0.0184  0.5020 -0.1649
 2204DDP     P213221  25.200   5.808  25.178 -0.2180  0.0236  0.0653
 2204DDP     C213222  25.002   6.161  25.209  0.0712  0.1158  0.1727
 2204DDP     C313223  26.115   5.614  25.522 -0.1319 -0.2929  0.1184
 2204DDP     C413224  25.363   5.452  24.569  0.1294 -0.4687  0.3129
 2205DDP     C113225  11.598  19.805  11.623  0.1052  0.3930  0.1147
 2205DDP     P113226  11.794  20.097  11.373  0.0647 -0.1024 -0.1182
 2205DDP     P213227  11.298  19.926  11.944 -0.0543  0.2211  0.2649
 2205DDP     C213228  10.971  19.927  12.195 -0.2133  0.1397 -0.1754
 2205DDP     C313229  12.172  20.128  11.153  0.2359 -0.2179  0.2176
 2205DDP     C413230  11.617  19.452  11.509  0.1872  0.3018 -0.4603
 2206DDP     C113231   3.375  14.252  19.291  0.2086  0.1132  0.0625
 2206DDP     P113232   3.045  14.125  19.645 -0.0003 -0.0134  0.1755
 2206DDP     P213233   3.508  13.890  18.991  0.1838 -0.0538  0.1985
 2206DDP     C213234   3.669  13.811  18.674  0.0742  0.1888 -0.0872
 2206DDP     C313235   2.990  13.905  19.978 -0.2084 -0.1754 -0.2178
 2206DDP     C413236   3.313  14.594  19.272  0.1395 -0.2852  0.2458
 2207DDP     C113237  23.805  16.529  21.700 -0.0915  0.0967  0.1475
 2207DDP     P113238  24.038  16.209  21.880  0.0846  0.2300 -0.1536
 2207DDP     P213239  23.976  16.997  21.581 -0.3130 -0.0008  0.1331
 2207DDP     C213240  24.164  17.266  21.278 -0.0208  0.0523  0.2141
 2207DDP     C313241  24.026  15.767  22.058 -0.0494 -0.0387  0.1773
 2207DDP     C413242  23.384  16.508  21.603  0.5248 -0.0150  0.4944
 2208DDP     C113243  21.066  11.826   5.503 -0.0865 -0.3206  0.0901
 2208DDP     P113244  21.436  11.897   5.608  0.2355 -0.1546 -0.1820
 2208DDP     P213245  21.115  11.480   5.472 -0.1177 -0.3688  0.0083
 2208DDP     C213246  21.171  11.245   5.868 -0.1439  0.1682  0.0122
 2208DDP     C313247  21.517  12.369   5.545  0.2137 -0.0882 -0.1518
 2208DDP     C413248  20.746  12.147   5.405  0.1110  0.3029 -0.0432
 2209DDP     C113249  16.698   8.866   2.693 -0.1671  0.0986  0.0949
 2209DDP     P113250  17.041   8.987   2.796 -0.1908 -0.0585  0.1488
 2209DDP     P213251  16.303   9.014   2.586 -0.0661 -0.2302  0.1815
 2209DDP     C213252  15.915   8.893   2.428  0.2235 -0.2177 -0.0084
 2209DDP     C313253  17.371   9.130   3.084 -0.1707 -0.0248  0.1922
 2209DDP     C413254  16.607   8.664   3.128 -0.0613 -0.0487  0.2027
 2210DDP     C113255  21.443   6.670   5.307 -0.3915  0.2804  0.0208
 2210DDP     P113256  21.383   6.209   5.435 -0.0836 -0.0043  0.2721
 2210DDP     P213257  21.769   6.652   5.036 -0.3119 -0.1725  0.0730
 2210DDP     C213258  21.878   6.995   4.625 -0.1581 -0.1501  0.0214
 2210DDP     C313259  21.265   6.033   5.791  0.0610  0.1977  0.1379
 2210DDP     C413260  21.163   6.922   5.653 -0.2826  0.1094  0.1608
 2211DDP     C113261   1.471   4.780  26.949  0.1896 -0.0817  0.0167
 2211DDP     P113262   1.495   5.123  26.638  0.0472 -0.2011 -0.0961
 2211DDP     P213263   1.290   4.441  26.795  0.1325 -0.2678 -0.2165
 2211DDP     C213264   1.095   4.095  26.991 -0.1064 -0.1174 -0.3283
 2211DDP     C313265   1.880   5.325  26.404  0.0061 -0.1050 -0.4176
 2211DDP     C413266   1.296   4.888  27.381  0.0792  0.0014 -0.1544
 2212DDP     C113267  15.036  17.510  23.072 -0.1916  0.0539  0.2415
 2212DDP     P113268  15.234  17.861  23.174  0.1521  0.0412 -0.1910
 2212DDP     P213269  15.323  17.154  22.988  0.0190  0.1104  0.3766
 2212DDP     C213270  15.732  16.981  23.103 -0.1048 -0.2337  0.2155
 2212DDP     C313271  15.513  18.135  23.410  0.2827 -0.3017  0.2259
 2212DDP     C413272  14.667  17.480  22.849 -0.0843  0.2502 -0.0560
 2213DDP     C113273  17.205  20.881  26.339 -0.0724 -0.3353  0.3187
 2213DDP     P113274  16.926  20.786  25.973  0.1524  0.1287 -0.2762
 2213DDP     P213275  17.076  20.586  26.720 -0.1515 -0.2694  0.0359
 2213DDP     C213276  16.965  20.307  26.934  0.0472 -0.2207 -0.2527
 2213DDP     C313277  16.796  20.784  25.531  0.0572  0.1922 -0.1787
 2213DDP     C413278  17.410  21.268  26.448 -0.0819 -0.2618 -0.0961
 2214DDP     C113279   0.351   2.050  29.935 -0.0140  0.0413 -0.1901
 2214DDP     P113280   0.461   1.949   0.035  0.2134 -0.1347 -0.1584
 2214DDP     P213281   0.577   2.319  29.724 -0.3110  0.1402 -0.0311
 2214DDP     C213282   0.710   2.469  29.310 -0.2744  0.1030 -0.3376
 2214DDP     C313283   0.252   1.995   0.414  0.1772 -0.0962 -0.2192
 2214DDP     C413284   0.044   1.719  29.843 -0.0355  0.0549  0.0148
 2215DDP     C113285  16.529  18.685  25.553  0.0801  0.1627 -0.2119
 2215DDP     P113286  16.922  18.932  25.649 -0.1144  0.2495  0.0846
 2215DDP     P213287  16.182  18.898  25.389  0.1548  0.1916 -0.1351
 2215DDP     C213288  16.017  19.239  25.566 -0.1628 -0.2118 -0.0919
 2215DDP     C313289  17.228  19.330  25.741  0.0663  0.0061 -0.0668
 2215DDP     C413290  16.312  18.404  25.812 -0.0498  0.2062  0.3085
 2216DDP     C113291   4.241   9.062   6.245 -0.2483 -0.1633 -0.2820
 2216DDP     P113292   4.251   9.505   6.450  0.0052  0.0328 -0.2928
 2216DDP     P213293   4.621   8.807   6.406 -0.0519 -0.1487 -0.0983
 2216DDP     C213294   5.010   8.810   6.579  0.1386 -0.1608  0.1361
 2216DDP     C313295   4.213   9.961   6.395  0.0343  0.4711 -0.0622
 2216DDP     C413296   4.054   9.143   5.840 -0.1585  0.0964 -0.1969
 2217DDP     C113297  16.254  13.173   8.649 -0.0113 -0.0783 -0.1170
 2217DDP     P113298  16.126  13.282   9.069  0.0684 -0.3013  0.0416
 2217DDP     P213299  16.643  12.913   8.602  0.0359  0.4026 -0.1415
 2217DDP     C213300  16.902  12.795   8.919 -0.0529 -0.4565 -0.0590
 2217DDP     C313301  16.007  12.979   9.352 -0.0880 -0.0494 -0.0771
 2217DDP     C413302  16.035  13.321   8.236  0.1481  0.2250 -0.2248
 2218DDP     C113303  26.212  19.680  23.508  0.0279 -0.1089  0.0298
 2218DDP     P113304  25.895  19.961  23.311  0.0397  0.1679  0.0779
 2218DDP     P213305  26.388  19.366  23.227  0.4870 -0.1090 -0.2103
 2218DDP     C213306  26.800  19.321  23.044  0.0566  0.1095 -0.1685
 2218DDP     C313307  25.744  20.343  23.191  0.2255 -0.2359  0.0469
 2218DDP     C413308  26.068  19.743  23.918  0.0129  0.1907  0.2662
 2219DDP     C113309  19.159  25.301  24.227  0.0528  0.2872 -0.1878
 2219DDP     P113310  19.301  25.816  24.179  0.3178 -0.1045  0.0039
 2219DDP     P213311  19.468  25.100  24.139 -0.1154  0.0734  0.0446
 2219DDP     C213312  19.714  24.668  24.140  0.2881 -0.1018 -0.0408
 2219DDP     C313313  19.735  26.068  24.265 -0.1075  0.1963 -0.4944
 2219DDP     C413314  18.960  25.176  24.594 -0.1609 -0.1606 -0.1117
 2220DDP     C113315  11.124  22.351  21.384 -0.1671 -0.1139 -0.0400
 2220DDP     P113316  11.095  22.774  21.269 -0.1144 -0.3781  0.0826
 2220DDP     P213317  11.332  22.045  21.219 -0.0405 -0.1856 -0.0572
 2220DDP     C213318  11.525  21.769  21.069 -0.0666  0.3339  0.0918
 2220DDP     C313319  11.507  22.972  21.383  0.0357 -0.1329 -0.1428
 2220DDP     C413320  10.753  22.165  21.426  0.2325  0.2545 -0.1128
 2221DDP     C113321   5.840  18.867  18.861  0.0557 -0.3937 -0.3551
 2221DDP     P113322   5.974  19.260  18.747 -0.1349  0.2108  0.0492
 2221DDP     P213323   5.906  18.707  18.425  0.0257 -0.0472 -0.2063
 2221DDP     C213324   5.765  18.376  18.153 -0.1631  0.1305 -0.0546
 2221DDP     C313325   5.992  19.598  18.438  0.2235  0.0661  0.1736
 2221DDP     C413326   5.572  18.676  19.087 -0.0925  0.0782 -0.1077
 2222DDP     C113327   4.432  24.277  12.591 -0.3885 -0.2895  0.2374
 2222DDP     P113328   4.457  23.995  12.205 -0.0183  0.0447  0.2435
 2222DDP     P213329   4.151  24.615  12.716  0.0664  0.0865 -0.1432
 2222DDP     C213330   3.950  24.853  12.963 -0.2016  0.1900 -0.2689
 2222DDP     C313331   4.698  24.104  11.785 -0.3697 -0.2091  0.2834
 2222DDP     C413332   4.731  24.105  12.912  0.1677  0.2200  0.1140
 2223DDP     C113333   2.431  19.274  10.466 -0.1821 -0.0575 -0.1308
 2223DDP     P113334   2.342  19.710  10.770  0.0855 -0.2458  0.1495
 2223DDP     P213335   2.457  19.345  10.027 -0.0041 -0.0388  0.0713
 2223DDP     C213336   2.336  19.108   9.685  0.3110  0.1107 -0.0931
 2223DDP     C313337   2.232  20.122  10.535 -0.1790  0.1231  0.1737
 2223DDP     C413338   2.517  18.873  10.694  0.2277  0.0696  0.0401
 2224DDP     C113339  23.571   6.350  14.133  0.2307  0.1585  0.0508
 2224DDP     P113340  23.573   6.683  14.300  0.1816 -0.0842  0.1050
 2224DDP     P213341  23.354   5.890  14.346 -0.0050 -0.0696 -0.0360
 2224DDP     C213342  23.761   5.620  14.562  0.5000 -0.2701 -0.1491
 2224DDP     C313343  23.199   7.000  14.403 -0.1375 -0.2684  0.0754
 2224DDP     C413344  23.799   6.419  13.790 -0.1518 -0.1570  0.2912
 2225DDP     C113345  22.864  26.857  19.291  0.0116 -0.2580  0.0507
 2225DDP     P113346  22.632  26.639  19.602  0.1950  0.0145  0.0193
 2225DDP     P213347  22.708  26.767  18.900 -0.1782  0.1208 -0.0941
 2225DDP     C213348  22.367  26.636  18.702  0.5050 -0.0054 -0.0261
 2225DDP     C313349  22.558  26.309  19.668  0.0408  0.2375 -0.1706
 2225DDP     C413350  23.037  27.290  19.324 -0.1020 -0.3908 -0.1807
 2226DDP     C113351  18.786  24.883  22.725 -0.0914  0.0533 -0.3975
 2226DDP     P113352  18.436  24.677  23.002  0.3179 -0.1930 -0.2028
 2226DDP     P213353  18.989  25.225  22.878  0.0416 -0.3411  0.1455
 2226DDP     C213354  18.895  25.487  23.231 -0.3109 -0.0487 -0.0172
 2226DDP     C313355  18.208  24.181  23.034 -0.1589 -0.0640 -0.0159
 2226DDP     C413356  18.636  24.784  22.303  0.0152 -0.0436  0.0334
 2227DDP     C113357  23.761   3.466  20.434 -0.0672 -0.0649  0.2727
 2227DDP     P113358  23.658   3.812  20.106 -0.1806  0.0080 -0.2634
 2227DDP     P213359  24.257   3.363  20.394 -0.2466 -0.0384 -0.0050
 2227DDP     C213360  24.557   3.144  20.534 -0.1573  0.4772 -0.1120
 2227DDP     C313361  23.483   4.284  20.004  0.3674  0.1892  0.3226
 2227DDP     C413362  23.635   3.394  20.901  0.1631 -0.0125  0.0716
 2228DDP     C113363  13.762  16.383  26.621  0.0949 -0.4540  0.2914
 2228DDP     P113364  14.055  16.092  26.333 -0.1430  0.0131  0.0282
 2228DDP     P213365  13.553  16.716  26.311  0.0561 -0.0749 -0.0249
 2228DDP     C213366  13.205  16.927  26.277  0.0647 -0.1301 -0.0550
 2228DDP     C313367  14.406  15.752  26.276 -0.0535  0.0120  0.0633
 2228DDP     C413368  13.659  16.421  27.057  0.1748  0.2897 -0.0171
 2229DDP     C113369  10.985   9.623  24.478 -0.2202  0.0262  0.1125
 2229DDP     P113370  10.618   9.499  24.394 -0.3767  0.0831 -0.3450
 2229DDP     P213371  10.998   9.531  24.838 -0.2232 -0.1237 -0.1043
 2229DDP     C213372  11.293   9.323  24.977  0.2244  0.0927 -0.0642
 2229DDP     C313373  10.316   9.850  24.373  0.1159 -0.1359 -0.1776
 2229DDP     C413374  11.198   9.879  24.258  0.0905 -0.3547 -0.0758
 2230DDP     C113375   1.515   6.305  21.025  0.0044  0.2805  0.1321
 2230DDP     P113376   1.420   6.147  21.503  0.0316  0.0753 -0.0947
 2230DDP     P213377   1.187   6.574  20.896  0.1495 -0.0353  0.3791
 2230DDP     C213378   1.252   7.011  20.835  0.1214  0.0871 -0.0001
 2230DDP     C313379   1.367   6.161  21.940  0.2572  0.0961 -0.0015
 2230DDP     C413380   1.676   6.036  20.768 -0.0534  0.1622 -0.0028
 2231DDP     C113381   2.689  17.322  19.359  0.0228  0.1023 -0.2039
 2231DDP     P113382   2.375  17.341  19.576 -0.1814 -0.0447  0.1355
 2231DDP     P213383   2.921  17.328  19.638  0.0897  0.2278  0.1603
 2231DDP     C213384   3.295  17.495  19.781 -0.2599  0.1536 -0.0220
 2231DDP     C313385   2.143  17.477  19.869 -0.4309  0.0469  0.0770
 2231DDP     C413386   2.756  17.263  18.868  0.1619 -0.3286 -0.2595
 2232DDP     C113387   6.511  30.215  29.450 -0.0429  0.0788 -0.0472
 2232DDP     P113388   6.554  30.120  29.040  0.1651  0.0877  0.0352
 2232DDP     P213389   6.679  29.901  29.497  0.0795 -0.1330  0.0202
 2232DDP     C213390   6.963  29.486  29.492  0.1173  0.0148  0.0983
 2232DDP     C313391   6.500  30.202  28.584 -0.0203 -0.2567  0.2051
 2232DDP     C413392   6.313   0.235  29.587 -0.0629 -0.5411  0.2640
 2233DDP     C113393  23.143   5.970  13.526 -0.2009  0.0516 -0.0006
 2233DDP     P113394  23.110   6.017  13.928 -0.2443 -0.2177  0.1297
 2233DDP     P213395  23.558   5.826  13.536  0.2122 -0.2390 -0.1548
 2233DDP     C213396  23.939   5.546  13.615  0.2378 -0.0153  0.0792
 2233DDP     C313397  22.999   6.229  14.291 -0.0122 -0.2306  0.0172
 2233DDP     C413398  22.954   6.256  13.282 -0.0022  0.1979  0.0690
 2234DDP     C113399  26.784  14.631  16.650 -0.0474 -0.1453  0.1748
 2234DDP     P113400  26.979  14.616  16.215  0.0480  0.1081 -0.0514
 2234DDP     P213401  26.456  14.448  16.803 -0.2416  0.0350  0.0515
 2234DDP     C213402  26.158  14.280  17.179  0.0130 -0.0811 -0.0582
 2234DDP     C313403  27.427  14.665  16.014 -0.1043 -0.0636 -0.1540
 2234DDP     C413404  26.893  14.966  17.025  0.2202  0.0305  0.0921
 2235DDP     C113405  18.854  19.031   5.037 -0.2933 -0.2508 -0.3831
 2235DDP     P113406  19.155  18.726   5.036 -0.0122  0.0960  0.1462
 2235DDP     P213407  19.019  19.503   5.106 -0.1095  0.1315  0.0640
 2235DDP     C213408  19.118  19.924   5.261  0.0569 -0.0815 -0.0382
 2235DDP     C313409  19.576  18.648   5.211  0.0278  0.1726  0.0870
 2235DDP     C413410  18.442  19.009   5.052  0.3938 -0.1302 -0.1118
 2236DDP     C113411  25.786   5.274   8.538  0.2700  0.3196 -0.3489
 2236DDP     P113412  26.183   5.189   8.706  0.3576  0.0799 -0.0101
 2236DDP     P213413  25.605   5.301   8.930 -0.2500  0.0443  0.1439
 2236DDP     C213414  25.578   5.368   9.395  0.2492 -0.1494  0.0475
 2236DDP     C313415  26.477   5.004   8.919 -0.2777  0.3399 -0.4266
 2236DDP     C413416  25.673   5.467   8.271 -0.1218  0.1117  0.0887
 2237DDP     C113417  20.741  18.400  19.301  0.3825 -0.0736 -0.1888
 2237DDP     P113418  20.978  18.082  19.177  0.1504  0.2587  0.2215
 2237DDP     P213419  20.768  18.431  19.763  0.1093  0.0243 -0.3117
 2237DDP     C213420  20.859  18.545  20.175  0.2631  0.1158 -0.2022
 2237DDP     C313421  21.094  17.712  19.398 -0.0640 -0.0822  0.2724
 2237DDP     C413422  20.705  18.566  18.838 -0.1641  0.1762 -0.0695
 2238DDP     C113423  13.702  24.939   9.992 -0.1096  0.0770 -0.2823
 2238DDP     P113424  14.029  24.822   9.811 -0.1352 -0.2186  0.2409
 2238DDP     P213425  13.357  25.313   9.839  0.1868 -0.1027  0.1457
 2238DDP     C213426  13.369  25.521   9.454  0.1292  0.1321  0.2216
 2238DDP     C313427  14.405  24.908   9.527 -0.0338 -0.0098  0.2178
 2238DDP     C413428  13.300  24.671  10.011 -0.0611 -0.0997 -0.0857
 2239DDP     C113429  27.797   5.768  22.807  0.0846 -0.0905  0.0451
 2239DDP     P113430  27.996   5.464  22.906  0.1250  0.0871 -0.0650
 2239DDP     P213431  27.824   6.015  23.172  0.2522  0.1524 -0.3148
 2239DDP     C213432  28.103   5.991  23.519  0.2249 -0.1573  0.0062
 2239DDP     C313433  28.011   5.089  23.159  0.1438  0.2371 -0.2063
 2239DDP     C413434  27.870   5.973  22.369  0.0567  0.0296  0.1110
 2240DDP     C113435  11.179   0.503   6.139 -0.2298  0.0350 -0.1324
 2240DDP     P113436  11.440   0.774   6.037  0.0719 -0.0151 -0.3226
 2240DDP     P213437  11.344   0.072   6.251 -0.5457  0.2127  0.0931
 2240DDP     C213438  11.319  30.022   6.613  0.0684  0.0492  0.0095
 2240DDP     C313439  11.407   1.257   5.925 -0.0520 -0.0823  0.1075
 2240DDP     C413440  10.839   0.649   6.275 -0.2130  0.0233  0.0437
 2241DDP     C113441   9.788   3.807  19.483  0.1573 -0.0425 -0.1886
 2241DDP     P113442   9.726   3.651  19.892 -0.1664  0.4120  0.1637
 2241DDP     P213443   9.638   3.618  19.142  0.1491 -0.2183  0.1260
 2241DDP     C213444   9.766   3.424  18.829 -0.0526 -0.0825 -0.2331
 2241DDP     C313445   9.353   3.396  20.138 -0.1067  0.0169 -0.2784
 2241DDP     C413446  10.069   4.192  19.458 -0.2250  0.2204 -0.2285
 2242DDP     C113447   2.037   8.075   9.463 -0.0598 -0.4181 -0.1449
 2242DDP     P113448   2.057   8.498   9.648 -0.2127  0.1939 -0.0054
 2242DDP     P213449   1.656   7.815   9.462 -0.0117 -0.1193  0.1308
 2242DDP     C213450   1.235   7.934   9.420  0.0012 -0.1921 -0.3978
 2242DDP     C313451   2.169   8.974   9.640 -0.1779  0.1095 -0.0671
 2242DDP     C413452   2.397   8.073   9.221 -0.1405  0.0718  0.2373
 2243DDP     C113453   7.353   7.429  18.450 -0.0031 -0.1644 -0.2293
 2243DDP     P113454   7.332   7.870  18.665  0.2896 -0.5286 -0.0493
 2243DDP     P213455   7.404   7.482  17.977 -0.3101  0.2398  0.0682
 2243DDP     C213456   7.153   7.685  17.575  0.0880 -0.1243  0.1579
 2243DDP     C313457   7.263   8.282  18.709  0.1806  0.1013 -0.0022
 2243DDP     C413458   7.410   7.018  18.661  0.0974 -0.0175 -0.0098
 2244DDP     C113459   7.705  29.860  24.462 -0.2355 -0.0115  0.3048
 2244DDP     P113460   7.286  29.834  24.518  0.3074 -0.0691 -0.1995
 2244DDP     P213461   7.805  29.753  23.981 -0.2239  0.2662  0.0442
 2244DDP     C213462   8.108  29.755  23.737  0.0089  0.0824 -0.0916
 2244DDP     C313463   7.000  30.187  24.508 -0.1177 -0.1127 -0.3478
 2244DDP     C413464   8.009  30.034  24.727  0.0004  0.0265  0.0404
 2245DDP     C113465  16.551  26.720   5.694 -0.0197 -0.3828  0.1106
 2245DDP     P113466  16.345  26.463   5.463 -0.0865  0.3504 -0.1244
 2245DDP     P213467  16.900  26.498   5.984 -0.1550 -0.1501 -0.0171
 2245DDP     C213468  17.028  26.017   6.084  0.0696 -0.3744  0.0054
 2245DDP     C313469  16.367  26.069   5.283  0.1875  0.2332  0.0489
 2245DDP     C413470  16.392  27.107   5.775 -0.1389  0.0433 -0.1986
 2246DDP     C113471  17.906  14.653  26.643 -0.2752  0.2722 -0.2498
 2246DDP     P113472  18.172  14.922  26.506 -0.0788 -0.3314 -0.2181
 2246DDP     P213473  17.907  14.652  27.079 -0.0766 -0.3058  0.1018
 2246DDP     C213474  17.960  14.664  27.555  0.1183  0.0548 -0.1634
 2246DDP     C313475  18.364  14.905  26.130  0.0691  0.1453  0.1359
 2246DDP     C413476  18.245  14.394  26.431  0.1688 -0.1976  0.2153
 2247DDP     C113477   5.567  13.830   9.557 -0.1093  0.2743 -0.0236
 2247DDP     P113478   5.535  14.250   9.852 -0.1887 -0.0281  0.2017
 2247DDP     P213479   5.631  13.468   9.917 -0.0277 -0.1983  0.3028
 2247DDP     C213480   5.542  13.476  10.442  0.0572 -0.1273 -0.3531
 2247DDP     C313481   5.568  14.565  10.273  0.0441  0.0478 -0.0901
 2247DDP     C413482   5.646  13.747   9.041  0.0043  0.0044 -0.4377
 2248DDP     C113483   1.287  14.103  12.836 -0.0638 -0.0102 -0.0391
 2248DDP     P113484   1.231  14.617  12.952 -0.0084  0.0490  0.1320
 2248DDP     P213485   1.677  13.958  12.548  0.1326 -0.0084  0.0904
 2248DDP     C213486   2.030  13.829  12.244 -0.1285 -0.1536  0.0769
 2248DDP     C313487   1.269  15.131  12.862 -0.1151 -0.2511 -0.2504
 2248DDP     C413488   0.933  13.812  12.746 -0.0817  0.0039 -0.1161
 2249DDP     C113489   2.515   2.367   5.586  0.1917 -0.1298 -0.1925
 2249DDP     P113490   2.407   2.368   5.138 -0.2106  0.1995 -0.0561
 2249DDP     P213491   2.812   2.679   5.769  0.1531 -0.2485  0.0171
 2249DDP     C213492   3.082   2.871   6.129 -0.4408 -0.0477 -0.3198
 2249DDP     C313493   2.663   2.351   4.641  0.1412  0.2093 -0.2148
 2249DDP     C413494   2.168   2.315   5.893 -0.0087  0.0050  0.1081
 2250DDP     C113495  30.291  18.597  13.469 -0.1738 -0.0464  0.0269
 2250DDP     P113496  29.905  18.612  13.382 -0.1144  0.0641  0.1779
 2250DDP     P213497   0.096  18.960  13.638 -0.2355  0.0557  0.2252
 2250DDP     C213498   0.218  19.272  13.982 -0.0382  0.0524 -0.2241
 2250DDP     C313499  29.610  18.269  13.259 -0.3158 -0.1401  0.4935
 2250DDP     C413500   0.118  18.203  13.369 -0.0640  0.1192 -0.4257
 2251DDP     C113501   6.858  18.039   0.760 -0.0034  0.1389  0.0467
 2251DDP     P113502   6.520  18.204   1.032 -0.1383  0.1478 -0.0037
 2251DDP     P213503   6.811  18.161   0.339 -0.0364  0.4896  0.0039
 2251DDP     C213504   6.475  18.331   0.178 -0.0792 -0.2387 -0.1662
 2251DDP     C313505   6.572  18.252   1.488 -0.0458 -0.0299 -0.0729
 2251DDP     C413506   7.065  17.662   0.941  0.0277  0.2185 -0.0835
 2252DDP     C113507   7.653  29.104  19.583 -0.0665  0.1607 -0.1994
 2252DDP     P113508   7.448  29.498  19.441 -0.1366  0.1031 -0.1512
 2252DDP     P213509   7.832  28.882  19.978  0.0621  0.0811  0.0205
 2252DDP     C213510   8.128  28.595  20.042 -0.0354 -0.0899 -0.3869
 2252DDP     C313511   7.173  29.709  19.257 -0.1156  0.0587 -0.0446
 2252DDP     C413512   7.847  29.078  19.119  0.0381 -0.1434  0.2633
 2253DDP     C113513  27.316   5.745   5.176  0.0253 -0.1100  0.1249
 2253DDP     P113514  27.126   6.096   5.166  0.1918  0.1648  0.1631
 2253DDP     P213515  27.583   5.663   5.550 -0.4454  0.2006 -0.2659
 2253DDP     C213516  27.861   5.454   5.794  0.0272  0.4505  0.3025
 2253DDP     C313517  27.354   6.478   5.114 -0.5480 -0.1094 -0.1192
 2253DDP     C413518  27.231   5.383   4.958 -0.0287 -0.2801 -0.1920
 2254DDP     C113519  23.415   2.835  17.342  0.0375  0.1296  0.1288
 2254DDP     P113520  23.652   2.817  17.687 -0.3230 -0.2698  0.0050
 2254DDP     P213521  23.290   2.464  17.257 -0.0617 -0.0594  0.0422
 2254DDP     C213522  23.528   2.138  17.224 -0.1348 -0.3546  0.2963
 2254DDP     C313523  23.968   3.060  17.865  0.1088  0.2301 -0.3436
 2254DDP     C413524  23.186   3.105  17.102 -0.0357  0.2144  0.1437
 2255DDP     C113525  22.960   8.208  21.396  0.0904  0.2932 -0.2494
 2255DDP     P113526  23.213   7.890  21.240 -0.1405  0.0975  0.2524
 2255DDP     P213527  23.065   8.172  21.786 -0.1462  0.0020  0.0473
 2255DDP     C213528  23.204   8.376  22.088  0.1159  0.1234  0.1437
 2255DDP     C313529  23.351   7.661  20.828 -0.0841 -0.0701 -0.1899
 2255DDP     C413530  22.830   8.530  21.186 -0.1335  0.0467 -0.1884
 2256DDP     C113531  26.643  21.741  15.074 -0.2218 -0.4775 -0.0488
 2256DDP     P113532  26.817  22.124  15.265 -0.1465 -0.1192 -0.1290
 2256DDP     P213533  26.315  21.606  14.930  0.2666 -0.0134  0.0986
 2256DDP     C213534  26.268  21.121  14.860 -0.0357  0.0864  0.1724
 2256DDP     C313535  27.239  22.199  15.377  0.2459 -0.0633  0.0284
 2256DDP     C413536  27.021  21.748  14.876 -0.1139  0.4537  0.0782
 2257DDP     C113537  10.586  21.704   9.355 -0.0822 -0.0387  0.0790
 2257DDP     P113538  10.662  21.432   9.053  0.0356 -0.2071  0.1007
 2257DDP     P213539  10.220  21.841   9.484 -0.0066  0.1465  0.1891
 2257DDP     C213540   9.896  21.767   9.679  0.3396 -0.0461 -0.1868
 2257DDP     C313541  10.846  21.588   8.683 -0.0840  0.1834 -0.0334
 2257DDP     C413542  11.000  21.811   9.657 -0.0709 -0.0423  0.3114
 2258DDP     C113543  15.981   6.796  10.105 -0.4030 -0.4332 -0.2835
 2258DDP     P113544  16.086   6.816   9.742  0.0251 -0.1402 -0.0196
 2258DDP     P213545  15.667   6.863  10.265 -0.0642  0.1675  0.2727
 2258DDP     C213546  15.373   7.161  10.195  0.0379  0.1013 -0.2044
 2258DDP     C313547  15.932   6.755   9.297  0.1948  0.0348 -0.0466
 2258DDP     C413548  16.146   6.518  10.405  0.1990  0.1602  0.0723
 2259DDP     C113549   6.287  12.002  13.296  0.0393  0.4195 -0.1285
 2259DDP     P113550   6.489  12.113  13.691  0.1857  0.2120 -0.1800
 2259DDP     P213551   6.423  12.256  13.174  0.0407 -0.4058 -0.2393
 2259DDP     C213552   6.474  12.623  13.332  0.1684 -0.0116  0.0972
 2259DDP     C313553   6.421  12.127  14.105  0.0492 -0.2622 -0.1787
 2259DDP     C413554   6.021  11.686  13.301 -0.1051 -0.3262 -0.0378
 2260DDP     C113555   5.252  29.240  25.218 -0.0385  0.0429 -0.3486
 2260DDP     P113556   5.616  29.413  25.115 -0.0936  0.2628 -0.1972
 2260DDP     P213557   5.086  29.229  25.646  0.0641  0.3328  0.1064
 2260DDP     C213558   4.949  29.253  26.056  0.1560  0.0289  0.1632
 2260DDP     C313559   5.791  29.906  25.075  0.1968 -0.1077 -0.0505
 2260DDP     C413560   4.997  29.001  24.885 -0.2973  0.2262 -0.0303
 2261DDP     C113561   0.222  25.893  23.438  0.3958 -0.0246  0.2475
 2261DDP     P113562  30.193  26.104  23.289  0.0938 -0.0974 -0.1107
 2261DDP     P213563  30.293  25.636  23.580  0.1116 -0.1783  0.0832
 2261DDP     C213564  29.849  25.614  23.384 -0.0691  0.0818  0.3180
 2261DDP     C313565  29.856  26.501  23.084 -0.3852  0.0115  0.1336
 2261DDP     C413566   0.578  25.820  23.530  0.0011 -0.2834  0.0751
 2262DDP     C113567  14.100  24.655  15.477 -0.0314 -0.2918 -0.0031
 2262DDP     P113568  14.527  24.486  15.366  0.0063 -0.1733  0.0909
 2262DDP     P213569  14.040  24.653  15.901  0.1634  0.0704  0.1344
 2262DDP     C213570  14.032  25.052  16.096  0.0828  0.1501  0.0317
 2262DDP     C313571  14.665  24.032  15.378  0.2052  0.1155  0.1193
 2262DDP     C413572  13.797  24.891  15.188  0.2228 -0.3000  0.2971
 2263DDP     C113573  29.127   0.908   2.879 -0.1390  0.0241  0.0104
 2263DDP     P113574  29.103   1.323   2.845  0.2009  0.2231 -0.2562
 2263DDP     P213575  28.991   0.590   2.860 -0.0050  0.1875  0.0259
 2263DDP     C213576  28.832   0.236   2.671 -0.1499 -0.0895  0.2621
 2263DDP     C313577  28.965   1.773   2.838  0.2072 -0.3310  0.1222
 2263DDP     C413578  29.137   0.976   2.480  0.1542 -0.1495 -0.2278
 2264DDP     C113579  27.053  20.608  11.467  0.2929 -0.2780  0.0925
 2264DDP     P113580  27.062  20.564  11.860 -0.2194  0.0361 -0.0079
 2264DDP     P213581  26.675  20.702  11.310 -0.3442  0.1981 -0.0872
 2264DDP     C213582  26.572  21.070  11.179  0.0240  0.0559 -0.0952
 2264DDP     C313583  27.314  20.869  12.067  0.0581 -0.0597 -0.2047
 2264DDP     C413584  27.451  20.653  11.222 -0.0753  0.1879  0.1707
 2265DDP     C113585  19.113   3.845  10.199 -0.0846 -0.0247  0.2347
 2265DDP     P113586  19.297   3.988  10.557 -0.1040 -0.0103  0.0310
 2265DDP     P213587  18.747   3.933  10.157  0.1117  0.0396 -0.3439
 2265DDP     C213588  18.386   3.764  10.127 -0.2671 -0.3098 -0.1968
 2265DDP     C313589  19.648   4.043  10.915  0.2935 -0.0890 -0.2305
 2265DDP     C413590  19.217   3.546   9.869 -0.0070  0.1815  0.1728
 2266DDP     C113591  17.072  22.286   7.850  0.0015  0.0447 -0.3419
 2266DDP     P113592  16.781  22.471   7.612  0.2071  0.0189  0.0750
 2266DDP     P213593  16.857  22.018   7.996 -0.1972  0.0941  0.3344
 2266DDP     C213594  16.886  21.523   7.958 -0.2405  0.0273 -0.0556
 2266DDP     C313595  16.652  22.909   7.429  0.3692  0.1066 -0.4150
 2266DDP     C413596  17.449  22.509   7.992 -0.1945 -0.1533  0.1827
 2267DDP     C113597  24.824   0.965  19.773  0.1406 -0.0776  0.1239
 2267DDP     P113598  25.217   0.780  19.937 -0.2113 -0.1549  0.0343
 2267DDP     P213599  24.647   1.244  19.987  0.0977  0.1480  0.0134
 2267DDP     C213600  24.446   1.628  20.148 -0.0490  0.0503 -0.0752
 2267DDP     C313601  25.393   0.502  20.218  0.2363 -0.0174 -0.3180
 2267DDP     C413602  24.904   1.239  19.439 -0.0492 -0.1301  0.0176
 2268DDP     C113603   3.481  29.238  20.700 -0.0407 -0.0264 -0.2239
 2268DDP     P113604   3.346  29.400  21.043  0.1680  0.0528 -0.0002
 2268DDP     P213605   3.238  28.908  20.588  0.0527  0.3373  0.0360
 2268DDP     C213606   2.966  28.645  20.680  0.0736 -0.1454  0.4085
 2268DDP     C313607   3.246  29.828  21.210 -0.4248 -0.1528  0.2013
 2268DDP     C413608   3.863  29.251  20.503 -0.5544  0.1532  0.2419
 2269DDP     C113609  29.373   9.518  18.853 -0.2412 -0.0216 -0.0917
 2269DDP     P113610  29.125   9.172  19.106  0.0791 -0.0882 -0.0303
 2269DDP     P213611  29.528   9.869  19.120  0.0124  0.0080 -0.0829
 2269DDP     C213612  29.777  10.250  18.933  0.2920 -0.0815 -0.0450
 2269DDP     C313613  28.826   8.966  19.353  0.0200 -0.2821 -0.1769
 2269DDP     C413614  29.424   9.522  18.445 -0.1124 -0.1453 -0.0297
 2270DDP     C113615  25.496   9.128  16.448  0.0010 -0.1052 -0.2350
 2270DDP     P113616  25.696   9.402  16.125  0.2402  0.0112  0.0332
 2270DDP     P213617  25.523   8.648  16.409 -0.0969 -0.3266  0.0825
 2270DDP     C213618  25.726   8.451  16.005  0.0541 -0.0131  0.1307
 2270DDP     C313619  25.889   9.494  15.699  0.4118 -0.0622 -0.2093
 2270DDP     C413620  25.379   9.426  16.882  0.0174  0.3547 -0.2987
 2271DDP     C113621  20.900  16.639  25.859 -0.1111  0.0860 -0.0174
 2271DDP     P113622  20.752  16.713  25.360  0.0233  0.3030 -0.2090
 2271DDP     P213623  20.721  16.973  26.096 -0.1600  0.2138 -0.1742
 2271DDP     C213624  20.440  17.032  26.469 -0.0848  0.2518  0.1384
 2271DDP     C313625  20.845  16.870  25.007 -0.0257 -0.2080 -0.1195
 2271DDP     C413626  21.113  16.272  26.078  0.3251 -0.1386 -0.0715
 2272DDP     C113627   3.745  26.071   8.573  0.2465 -0.3519  0.0305
 2272DDP     P113628   3.283  25.884   8.389 -0.0990  0.1502  0.0271
 2272DDP     P213629   3.664  26.546   8.463  0.3459  0.3045  0.1596
 2272DDP     C213630   3.311  26.795   8.563  0.1158 -0.0767 -0.0111
 2272DDP     C313631   3.220  25.498   8.544  0.1161  0.3511 -0.1536
 2272DDP     C413632   3.949  25.909   8.769  0.0433 -0.0109 -0.2523
 2273DDP     C113633   7.999  18.991  18.340 -0.0947 -0.0963 -0.0050
 2273DDP     P113634   7.890  19.122  18.771  0.1736  0.1313 -0.1194
 2273DDP     P213635   8.363  18.830  18.095 -0.2448  0.1552  0.1016
 2273DDP     C213636   8.576  18.942  17.652  0.3474 -0.1093  0.2765
 2273DDP     C313637   7.871  19.450  19.114  0.4076  0.0072  0.0167
 2273DDP     C413638   7.538  18.988  18.084 -0.0794  0.0640 -0.0035
 2274DDP     C113639  11.575  21.278  11.891  0.0666 -0.1583  0.3471
 2274DDP     P113640  11.796  21.653  12.049  0.0868  0.2154  0.0877
 2274DDP     P213641  11.599  20.889  12.141  0.1411  0.0122  0.1438
 2274DDP     C213642  11.261  20.739  12.327  0.1607  0.2297 -0.2909
 2274DDP     C313643  11.853  22.092  12.105  0.0665  0.5402 -0.2424
 2274DDP     C413644  11.249  21.369  11.538 -0.1771  0.1740  0.1019
 2275DDP     C113645   9.620  17.546  11.293 -0.0420 -0.0161 -0.0637
 2275DDP     P113646   9.269  17.500  11.649 -0.1452 -0.2965 -0.0596
 2275DDP     P213647   9.894  17.224  11.178  0.2292  0.0507 -0.0360
 2275DDP     C213648  10.038  16.927  10.903 -0.0128  0.3890 -0.3240
 2275DDP     C313649   9.160  17.449  12.138 -0.2329 -0.0624  0.0794
 2275DDP     C413650   9.341  17.806  11.160  0.0561  0.1863 -0.2739
 2276DDP     C113651   2.011   7.662   4.993 -0.0076  0.2531  0.1924
 2276DDP     P113652   1.740   7.706   5.360 -0.2879 -0.1641  0.1930
 2276DDP     P213653   2.290   7.913   4.961  0.1226  0.1745  0.2736
 2276DDP     C213654   2.623   8.201   4.943  0.1405  0.1276 -0.1058
 2276DDP     C313655   1.509   8.031   5.526  0.2514 -0.0504 -0.0247
 2276DDP     C413656   1.790   7.274   4.881 -0.2263  0.0460  0.1559
 2277DDP     C113657   6.298  19.450  27.864 -0.3166 -0.1105 -0.1431
 2277DDP     P113658   6.173  19.438  28.328 -0.1666  0.0072  0.1663
 2277DDP     P213659   6.649  19.115  27.679 -0.1539  0.1428 -0.3519
 2277DDP     C213660   6.924  18.834  27.718 -0.0176  0.0916  0.0072
 2277DDP     C313661   6.059  19.411  28.696 -0.0921 -0.0689 -0.1121
 2277DDP     C413662   6.166  19.787  27.516  0.1037  0.3136  0.1247
 2278DDP     C113663   1.476  24.255   3.538  0.0086  0.2399  0.3524
 2278DDP     P113664   1.004  24.216   3.478  0.1199 -0.0642  0.1292
 2278DDP     P213665   1.582  24.247   4.035  0.0107  0.1599  0.1329
 2278DDP     C213666   1.590  24.077   4.468 -0.0487 -0.0631  0.0222
 2278DDP     C313667   0.588  24.066   3.678 -0.3164 -0.0213  0.0501
 2278DDP     C413668   1.733  24.361   3.173 -0.0325  0.1444  0.3470
 2279DDP     C113669   2.992   6.936  21.718 -0.1085  0.0403 -0.2216
 2279DDP     P113670   3.467   6.888  21.796 -0.1032 -0.0037 -0.0648
 2279DDP     P213671   2.803   6.704  21.390  0.0716  0.2903 -0.2617
 2279DDP     C213672   2.934   6.601  20.993 -0.2225  0.0708  0.0510
 2279DDP     C313673   3.753   7.101  21.894 -0.4208 -0.0441  0.0230
 2279DDP     C413674   2.743   7.051  22.080 -0.0576 -0.0261 -0.2189
 2280DDP     C113675   8.192  11.625  16.742 -0.1798 -0.0766 -0.0500
 2280DDP     P113676   8.580  11.782  16.933  0.4190  0.1041  0.1142
 2280DDP     P213677   7.782  11.877  16.621  0.0425  0.1452 -0.2779
 2280DDP     C213678   7.714  12.032  16.291 -0.1409  0.0087 -0.1801
 2280DDP     C313679   8.823  12.196  17.110 -0.3011 -0.0588  0.3767
 2280DDP     C413680   8.222  11.328  16.533  0.0794  0.1160 -0.0840
 2281DDP     C113681   9.286  13.744   3.618 -0.0001  0.1710  0.1862
 2281DDP     P113682   8.995  13.296   3.562 -0.0136 -0.0899  0.1721
 2281DDP     P213683   9.631  13.783   3.905  0.1834 -0.0714  0.1259
 2281DDP     C213684   9.835  13.440   4.067  0.0647  0.1003  0.1080
 2281DDP     C313685   8.823  12.930   3.297  0.0612  0.1508 -0.0140
 2281DDP     C413686   9.466  14.031   3.305  0.2817 -0.2196 -0.2659
 2282DDP     C113687   4.733   4.402  26.767  0.0876 -0.0765  0.1648
 2282DDP     P113688   4.799   3.940  26.950 -0.2100  0.0624 -0.0189
 2282DDP     P213689   4.921   4.658  26.422  0.0882 -0.3378 -0.0217
 2282DDP     C213690   5.252   4.820  26.358 -0.2051 -0.4494  0.1722
 2282DDP     C313691   4.465   3.550  27.040 -0.3334  0.0288 -0.4279
 2282DDP     C413692   4.404   4.685  26.880  0.0662  0.0614  0.2127
 2283DDP     C113693   2.392  19.843   9.863 -0.2222  0.2906  0.1263
 2283DDP     P113694   2.103  19.539   9.703 -0.2076  0.0084 -0.1036
 2283DDP     P213695   2.418  19.740  10.307  0.1072 -0.1580  0.2148
 2283DDP     C213696   2.778  19.851  10.533  0.3941  0.0468  0.1866
 2283DDP     C313697   1.761  19.508   9.675 -0.2074 -0.1945 -0.0072
 2283DDP     C413698   2.450  20.271   9.685  0.3020  0.0198 -0.1370
 2284DDP     C113699  24.428  19.991  29.909  0.0197  0.2394  0.0338
 2284DDP     P113700  24.420  19.481  30.089  0.0393 -0.2626 -0.0006
 2284DDP     P213701  24.322  20.355  30.228 -0.0938  0.2540 -0.0393
 2284DDP     C213702  24.184  20.667   0.283 -0.0057  0.1276  0.1383
 2284DDP     C313703  24.571  19.012  30.196 -0.1348  0.0239 -0.1181
 2284DDP     C413704  24.357  20.065  29.397  0.0651 -0.1399  0.1135
 2285DDP     C113705   5.465  26.704  10.841  0.1831 -0.1003 -0.0256
 2285DDP     P113706   5.633  26.945  11.137  0.1038 -0.1179  0.3232
 2285DDP     P213707   5.680  26.794  10.458  0.1981 -0.2386 -0.0174
 2285DDP     C213708   5.663  26.795  10.020  0.0648 -0.0175 -0.2466
 2285DDP     C313709   5.785  27.099  11.498  0.4251 -0.0585 -0.2248
 2285DDP     C413710   5.285  26.333  10.812  0.0951  0.2703  0.1161
 2286DDP     C113711  17.618  26.953  28.310 -0.0961  0.0400  0.1532
 2286DDP     P113712  17.507  26.903  27.911 -0.3727 -0.3377  0.1081
 2286DDP     P213713  17.915  26.728  28.485  0.1264  0.2148 -0.1077
 2286DDP     C213714  18.132  26.375  28.456  0.0660  0.1265 -0.1346
 2286DDP     C313715  17.440  27.154  27.578 -0.0167 -0.1448  0.1544
 2286DDP     C413716  17.491  27.285  28.462  0.0301  0.2057 -0.0420
 2287DDP     C113717  14.632   5.336   6.030  0.1355  0.2977 -0.1847
 2287DDP     P113718  14.441   5.153   6.378  0.0249 -0.1020 -0.2941
 2287DDP     P213719  14.567   5.348   5.517 -0.1014  0.4002 -0.1691
 2287DDP     C213720  14.495   5.080   5.216  0.1044  0.0943  0.0204
 2287DDP     C313721  14.480   4.777   6.542 -0.1275  0.0163 -0.0026
 2287DDP     C413722  15.064   5.582   6.180  0.0916  0.2870  0.2136
 2288DDP     C113723  22.825  17.874  17.111  0.1688  0.0052  0.2314
 2288DDP     P113724  22.605  18.199  17.001 -0.0437 -0.1134 -0.2188
 2288DDP     P213725  22.522  17.536  17.143  0.1273  0.0904  0.0797
 2288DDP     C213726  22.281  17.190  17.431 -0.0826 -0.0513  0.2283
 2288DDP     C313727  22.470  18.536  17.160 -0.1043 -0.4019 -0.0560
 2288DDP     C413728  23.234  18.018  17.269  0.2904  0.1308  0.1753
 2289DDP     C113729   7.460  13.080   1.736  0.1199 -0.0431 -0.2441
 2289DDP     P113730   7.884  13.195   1.749 -0.0858  0.0567 -0.1436
 2289DDP     P213731   7.200  13.450   1.546  0.0825  0.2580  0.0009
 2289DDP     C213732   6.916  13.727   1.252 -0.1854 -0.0009  0.0257
 2289DDP     C313733   8.312  13.451   1.839 -0.0782  0.2404 -0.0044
 2289DDP     C413734   7.259  12.769   1.717 -0.0704  0.1407  0.1353
 2290DDP     C113735   9.009  15.455   9.606  0.2377  0.2773  0.0416
 2290DDP     P113736   9.205  15.164   9.398 -0.0293  0.1452  0.2539
 2290DDP     P213737   9.313  15.434   9.992  0.0648 -0.3221  0.0681
 2290DDP     C213738   9.536  15.301  10.315  0.2082  0.1111  0.0672
 2290DDP     C313739   9.294  14.726   9.357  0.2676  0.3227  0.2310
 2290DDP     C413740   8.770  15.798   9.628 -0.2182 -0.1054  0.0522
 2291DDP     C113741  20.425  15.047  28.199  0.2088  0.2751  0.0654
 2291DDP     P113742  20.166  14.743  27.875  0.1986  0.1356  0.0075
 2291DDP     P213743  20.866  14.778  28.422 -0.0076 -0.1179 -0.1223
 2291DDP     C213744  21.045  14.442  28.419 -0.1424  0.1408  0.1962
 2291DDP     C313745  20.107  14.751  27.365  0.0814 -0.1189 -0.2812
 2291DDP     C413746  20.271  15.381  28.360  0.1667  0.1607  0.0763
 2292DDP     C113747   0.668  30.001  16.680  0.1000  0.2620  0.1082
 2292DDP     P113748   0.802   0.081  16.934 -0.3373  0.0098  0.2661
 2292DDP     P213749   0.692  29.587  16.857  0.0167 -0.1756 -0.0524
 2292DDP     C213750   0.746  29.528  17.354  0.0005  0.0344  0.0332
 2292DDP     C313751   0.789   0.454  17.171  0.2203 -0.1096  0.0527
 2292DDP     C413752   0.614  30.043  16.208  0.1371  0.1248  0.1127
 2293DDP     C113753  21.814  19.035   9.395 -0.2545 -0.0427  0.1487
 2293DDP     P113754  21.393  18.907   9.226  0.0667 -0.1401 -0.2662
 2293DDP     P213755  22.139  18.762   9.188  0.0096  0.2384  0.1648
 2293DDP     C213756  22.417  18.526   8.943 -0.3205 -0.2646  0.1041
 2293DDP     C313757  20.959  18.950   8.978  0.1431 -0.1122  0.1285
 2293DDP     C413758  21.829  19.282   9.774 -0.2161  0.1246  0.0777
 2294DDP     C113759  24.606  21.079  21.910  0.0192 -0.0477 -0.1656
 2294DDP     P113760  24.830  20.707  21.755 -0.2705  0.2150 -0.0177
 2294DDP     P213761  24.514  21.517  21.714 -0.0886 -0.3905  0.1071
 2294DDP     C213762  24.693  21.780  21.339 -0.1224 -0.0598 -0.3130
 2294DDP     C313763  25.272  20.684  21.763  0.0065  0.3088 -0.1919
 2294DDP     C413764  24.286  21.087  22.324 -0.0971  0.2530  0.0523
 2295DDP     C113765   9.589  24.697   7.773  0.0150  0.3852  0.1031
 2295DDP     P113766  10.059  24.793   7.745 -0.1387  0.2289  0.0449
 2295DDP     P213767   9.617  24.759   8.273  0.5577 -0.0378  0.1659
 2295DDP     C213768   9.680  24.698   8.637  0.0342  0.1602 -0.4384
 2295DDP     C313769  10.393  24.743   7.646  0.2644  0.0898  0.3194
 2295DDP     C413770   9.376  24.943   7.433  0.0688 -0.1068 -0.0793
 2296DDP     C113771  20.080  18.961  17.201  0.2423 -0.3197 -0.3272
 2296DDP     P113772  19.612  19.142  17.390 -0.3703 -0.2620  0.0335
 2296DDP     P213773  20.179  18.968  16.729  0.2231  0.0733 -0.0904
 2296DDP     C213774  20.604  18.765  16.641  0.2927 -0.0117  0.0233
 2296DDP     C313775  19.397  19.337  17.668  0.1950  0.1641  0.0335
 2296DDP     C413776  20.448  18.804  17.304 -0.0322  0.0358 -0.2474
 2297DDP     C113777  23.257  28.706   8.919  0.1848  0.0359  0.0875
 2297DDP     P113778  22.980  28.842   8.565  0.2208  0.2375  0.0032
 2297DDP     P213779  23.308  28.336   8.829  0.0810 -0.0469  0.0316
 2297DDP     C213780  23.618  28.083   8.850  0.0285  0.1168 -0.1635
 2297DDP     C313781  22.568  28.817   8.541  0.0885 -0.5644 -0.0860
 2297DDP     C413782  23.297  28.932   9.290  0.1006 -0.0569 -0.0252
 2298DDP     C113783   9.622  28.385  19.956 -0.0292  0.1960  0.0049
 2298DDP     P113784   9.236  28.265  20.198 -0.6251 -0.1179 -0.3949
 2298DDP     P213785   9.475  28.671  19.662  0.1803  0.0067 -0.1595
 2298DDP     C213786   9.119  29.004  19.560  0.0773  0.0753 -0.3589
 2298DDP     C313787   8.900  27.920  20.292  0.2418  0.3515  0.0167
 2298DDP     C413788   9.831  27.987  19.868  0.2398 -0.0406  0.1678
 2299DDP     C113789   4.540  26.128   8.816 -0.1408  0.2786 -0.2555
 2299DDP     P113790   4.422  25.771   8.614  0.1483  0.1980  0.2084
 2299DDP     P213791   4.401  26.134   9.180 -0.0801 -0.0742 -0.1919
 2299DDP     C213792   4.303  26.125   9.640 -0.1172  0.0217 -0.0371
 2299DDP     C313793   4.446  25.525   8.240  0.1425 -0.0102  0.2277
 2299DDP     C413794   4.828  26.423   8.709 -0.0846  0.0077  0.1161
 2300DDP     C113795  25.829  12.203   4.584  0.3602  0.2383 -0.0822
 2300DDP     P113796  26.171  12.547   4.532  0.0714 -0.3925 -0.4406
 2300DDP     P213797  25.917  11.859   4.552 -0.1167 -0.1105  0.1583
 2300DDP     C213798  25.784  11.551   4.817  0.1408  0.2792  0.1261
 2300DDP     C313799  26.413  12.899   4.158 -0.0228 -0.5478 -0.2118
 2300DDP     C413800  25.362  12.172   4.494 -0.0117  0.0949 -0.1277
 2301DDP     C113801  22.671  26.550  11.994 -0.0905 -0.3488 -0.0178
 2301DDP     P113802  22.688  27.033  12.005  0.0825 -0.1399 -0.1341
 2301DDP     P213803  22.384  26.353  12.307 -0.1647 -0.2156  0.1451
 2301DDP     C213804  22.147  26.348  12.661  0.2068  0.2843  0.2535
 2301DDP     C313805  22.529  27.476  12.125  0.1090  0.0012  0.1104
 2301DDP     C413806  23.003  26.326  11.823 -0.1287  0.1322  0.0627
 2302DDP     C113807   2.644  23.730   3.831 -0.3423 -0.0615 -0.2721
 2302DDP     P113808   2.655  23.798   3.436 -0.0024 -0.1378 -0.0491
 2302DDP     P213809   2.547  24.061   4.106 -0.1631  0.2451  0.3067
 2302DDP     C213810   2.685  24.271   4.535 -0.0530 -0.3007 -0.4141
 2302DDP     C313811   2.757  23.712   3.059 -0.1166 -0.0356 -0.1775
 2302DDP     C413812   2.614  23.269   3.845  0.1536  0.0609  0.0082
 2303DDP     C113813   2.090   0.938  29.695 -0.0291  0.2782 -0.0917
 2303DDP     P113814   2.426   0.684  29.474 -0.1543  0.3113 -0.2633
 2303DDP     P213815   2.114   1.418  29.842  0.0567 -0.2059 -0.0791
 2303DDP     C213816   2.323   1.885  29.943  0.0304 -0.0928 -0.0665
 2303DDP     C313817   2.527   0.213  29.187 -0.1038 -0.0409 -0.0623
 2303DDP     C413818   1.753   0.833  29.836 -0.2436 -0.2415 -0.0463
 2304DDP     C113819  12.808   2.625   9.348 -0.0919 -0.3213 -0.0009
 2304DDP     P113820  12.889   2.792   9.791 -0.3712  0.1937  0.1664
 2304DDP     P213821  12.487   2.916   9.268  0.0665 -0.0954 -0.0470
 2304DDP     C213822  12.221   3.080   8.929  0.1505 -0.1711  0.1468
 2304DDP     C313823  13.110   2.822  10.194  0.0858  0.2682 -0.1062
 2304DDP     C413824  12.868   2.294   9.042 -0.1106  0.1471  0.0521
 2305DDP     C113825  28.153  11.190   8.410  0.1034 -0.1190  0.0170
 2305DDP     P113826  28.141  11.234   7.920 -0.0678 -0.2676 -0.0710
 2305DDP     P213827  27.943  10.831   8.599  0.2705  0.1400  0.1621
 2305DDP     C213828  28.138  10.744   8.964  0.3401  0.0553  0.2254
 2305DDP     C313829  28.334  11.030   7.546  0.2229  0.0790  0.0084
 2305DDP     C413830  28.461  11.234   8.564 -0.0884 -0.0152 -0.3572
 2306DDP     C113831   3.815   6.632  14.089  0.0264  0.1659  0.0248
 2306DDP     P113832   3.622   6.618  13.648  0.0253  0.0060 -0.0673
 2306DDP     P213833   4.145   6.228  14.190 -0.1958 -0.1323  0.0163
 2306DDP     C213834   4.547   6.083  14.337  0.2203 -0.0419 -0.0163
 2306DDP     C313835   3.620   6.235  13.290 -0.0200  0.1125 -0.1804
 2306DDP     C413836   3.749   6.740  14.503 -0.1278 -0.2484 -0.2266
 2307DDP     C113837  20.566  24.951  14.013 -0.1150  0.0276  0.4465
 2307DDP     P113838  20.666  24.425  14.168 -0.2697 -0.0710 -0.1417
 2307DDP     P213839  20.755  25.149  13.642 -0.1254 -0.2593 -0.0894
 2307DDP     C213840  20.853  25.560  13.766 -0.2220 -0.0618  0.4324
 2307DDP     C313841  20.629  24.035  14.233 -0.3186 -0.0619  0.0772
 2307DDP     C413842  20.131  24.910  14.092  0.1838  0.0036 -0.2242
 2308DDP     C113843  24.250   5.121  18.683  0.3856  0.0880  0.0302
 2308DDP     P113844  23.889   5.380  18.707 -0.1116 -0.1009  0.0472
 2308DDP     P213845  24.435   5.314  18.371 -0.0127 -0.0601  0.1135
 2308DDP     C213846  24.750   5.237  18.041  0.2764 -0.2425 -0.2168
 2308DDP     C313847  23.649   5.656  18.410  0.1371 -0.2654 -0.1221
 2308DDP     C413848  24.386   4.719  18.742  0.0684 -0.1410  0.1035
 2309DDP     C113849  30.158   3.735  27.379 -0.1413 -0.1141 -0.1243
 2309DDP     P113850   0.104   4.107  27.201 -0.0775  0.0174 -0.2223
 2309DDP     P213851   0.080   3.473  27.450  0.1287  0.0448  0.0018
 2309DDP     C213852   0.265   3.711  27.766  0.1730 -0.1580 -0.1084
 2309DDP     C313853  30.209   4.441  27.065  0.2635 -0.0330 -0.1502
 2309DDP     C413854  29.737   3.757  27.629 -0.2239 -0.2439 -0.1680
 2310DDP     C113855  11.436  12.992  12.839 -0.0560 -0.0474  0.0448
 2310DDP     P113856  11.299  13.432  12.767  0.0386  0.0493 -0.1440
 2310DDP     P213857  11.647  12.755  12.583 -0.0875  0.1311 -0.1128
 2310DDP     C213858  11.997  12.451  12.577 -0.3390  0.3866  0.1805
 2310DDP     C313859  11.294  13.867  12.889 -0.4037 -0.0850 -0.2927
 2310DDP     C413860  11.178  12.876  13.145  0.0261  0.0468 -0.2794
 2311DDP     C113861  24.996   4.709   4.719  0.0760 -0.2355 -0.4032
 2311DDP     P113862  25.012   4.711   5.160  0.0519  0.2600 -0.0410
 2311DDP     P213863  24.770   5.069   4.502 -0.0294 -0.2736  0.0483
 2311DDP     C213864  25.004   5.396   4.249 -0.1533 -0.4719  0.0528
 2311DDP     C313865  24.973   4.660   5.651 -0.0216  0.1435  0.0677
 2311DDP     C413866  25.249   4.330   4.611  0.1166 -0.3655 -0.1446
 2312DDP     C113867  13.950  20.000  16.321  0.1807  0.0385 -0.1535
 2312DDP     P113868  14.077  20.496  16.597  0.1384 -0.0726  0.1241
 2312DDP     P213869  13.829  20.004  15.867  0.0203 -0.2194 -0.0495
 2312DDP     C213870  13.774  20.330  15.641  0.1493 -0.0635 -0.0842
 2312DDP     C313871  14.389  20.589  16.953 -0.2016  0.1279  0.2679
 2312DDP     C413872  13.904  19.694  16.529 -0.1936  0.3666 -0.2550
 2313DDP     C113873   5.988  21.097   1.100  0.1791  0.0525  0.1846
 2313DDP     P113874   5.581  20.942   0.953  0.1208  0.0425  0.0838
 2313DDP     P213875   6.006  21.300   1.491  0.4405  0.0985  0.0842
 2313DDP     C213876   5.848  21.342   1.932 -0.0898 -0.3370  0.2140
 2313DDP     C313877   5.224  20.692   0.725 -0.3036 -0.1332  0.1976
 2313DDP     C413878   6.303  21.087   0.811 -0.1831 -0.1636 -0.3448
 2314DDP     C113879  19.731  18.473   7.658  0.0191  0.0227 -0.2331
 2314DDP     P113880  19.236  18.404   7.682  0.2194 -0.3692  0.2399
 2314DDP     P213881  19.894  18.324   7.319  0.0546 -0.1238  0.1193
 2314DDP     C213882  20.310  18.095   7.198  0.0453  0.0705  0.0153
 2314DDP     C313883  18.718  18.223   7.512 -0.1683  0.2502 -0.1499
 2314DDP     C413884  20.016  18.727   7.861  0.3750  0.0572  0.2665
 2315DDP     C113885   1.433  24.966   3.433 -0.3085 -0.3951  0.1184
 2315DDP     P113886   1.782  24.857   3.148  0.3000  0.0593 -0.0074
 2315DDP     P213887   0.989  24.811   3.422 -0.1921 -0.0805 -0.1460
 2315DDP     C213888   0.656  24.473   3.249 -0.1035  0.0758 -0.0953
 2315DDP     C313889   2.248  24.993   3.200 -0.1306  0.2700  0.0591
 2315DDP     C413890   1.401  25.279   3.781 -0.0451  0.1854  0.2854
 2316DDP     C113891  15.936  10.506   3.970 -0.5341  0.1079  0.0276
 2316DDP     P113892  16.414  10.455   3.869  0.2005  0.0508 -0.2924
 2316DDP     P213893  15.599  10.579   3.755 -0.0949  0.1258 -0.1397
 2316DDP     C213894  15.470  10.246   3.477  0.0246  0.1952  0.1402
 2316DDP     C313895  16.700  10.724   3.661  0.0036 -0.1078 -0.3464
 2316DDP     C413896  15.934  10.435   4.414 -0.0381 -0.2765  0.0702
 2317DDP     C113897  14.054   6.242   5.934 -0.0914  0.7358 -0.0952
 2317DDP     P113898  13.693   6.433   5.827 -0.3515  0.2335  0.0794
 2317DDP     P213899  14.329   6.135   6.332  0.0204  0.1033 -0.3503
 2317DDP     C213900  14.743   6.376   6.585  0.0083 -0.6938  0.0218
 2317DDP     C313901  13.376   6.791   5.664  0.1644 -0.1325  0.0083
 2317DDP     C413902  14.112   6.147   5.545  0.1872 -0.3199  0.0402
 2318DDP     C113903   5.851   4.540   9.208  0.0367  0.0046 -0.0468
 2318DDP     P113904   6.219   4.470   9.521 -0.0581 -0.0399  0.1666
 2318DDP     P213905   5.694   4.175   9.082  0.2681 -0.4786 -0.1328
 2318DDP     C213906   5.465   3.764   9.169 -0.1431  0.0247 -0.2168
 2318DDP     C313907   6.659   4.456   9.883  0.1176  0.1709  0.2685
 2318DDP     C413908   5.745   4.828   8.935 -0.3792 -0.4694 -0.4232
 2319DDP     C113909   4.758   7.522   5.977  0.2628  0.0038 -0.2583
 2319DDP     P113910   4.564   7.428   5.560  0.3184 -0.1940 -0.1959
 2319DDP     P213911   5.083   7.208   6.239  0.0129 -0.3283 -0.2355
 2319DDP     C213912   5.480   7.025   6.378 -0.1161  0.1648 -0.1767
 2319DDP     C313913   4.212   7.540   5.340 -0.0613  0.1795 -0.0388
 2319DDP     C413914   4.713   7.773   6.376 -0.2034 -0.1135 -0.0929
 2320DDP     C113915   8.174  28.525  21.829  0.3392  0.2907  0.1857
 2320DDP     P113916   8.288  28.312  21.495  0.0854  0.0952 -0.0316
 2320DDP     P213917   7.841  28.335  22.179  0.0864  0.1589 -0.2668
 2320DDP     C213918   7.478  28.122  22.324  0.0104  0.1951  0.0334
 2320DDP     C313919   8.267  28.383  21.096 -0.1364 -0.0845  0.0465
 2320DDP     C413920   8.108  28.921  21.752  0.0172 -0.1996 -0.0905
 2321DDP     C113921   3.571   8.193  17.800 -0.0555  0.0119  0.1696
 2321DDP     P113922   3.423   7.696  17.777 -0.0036 -0.0243  0.3617
 2321DDP     P213923   3.238   8.412  17.992 -0.2857 -0.1641 -0.1839
 2321DDP     C213924   2.871   8.451  18.133  0.0637  0.1060 -0.1370
 2321DDP     C313925   3.516   7.274  17.739  0.3368  0.0618  0.0538
 2321DDP     C413926   3.631   8.516  17.398 -0.0253 -0.2131 -0.1852
 2322DDP     C113927  10.203  16.379  28.013 -0.4672 -0.0045  0.0987
 2322DDP     P113928   9.970  16.082  27.675 -0.2437 -0.0553  0.0964
 2322DDP     P213929  10.629  16.491  28.117  0.2003 -0.0974  0.0438
 2322DDP     C213930  10.868  16.258  28.314  0.1875 -0.5464  0.2072
 2322DDP     C313931   9.764  15.674  27.685  0.1813 -0.1957 -0.0453
 2322DDP     C413932  10.057  16.478  28.407  0.1505 -0.2290 -0.0108
 2323DDP     C113933   6.349  29.655   9.764  0.1758  0.0083  0.2353
 2323DDP     P113934   6.270  29.627   9.351  0.2398 -0.1425 -0.2181
 2323DDP     P213935   6.419  30.057   9.789 -0.0425  0.1849 -0.0716
 2323DDP     C213936   6.531   0.110   9.644  0.0289 -0.0780 -0.1640
 2323DDP     C313937   6.060  29.322   9.066 -0.1651  0.4107  0.1061
 2323DDP     C413938   6.320  29.221  10.026 -0.2051  0.0546 -0.0348
 2324DDP     C113939  24.452   7.725  25.309  0.2086  0.1434  0.3451
 2324DDP     P113940  24.439   7.490  24.815 -0.0851  0.1263 -0.1467
 2324DDP     P213941  24.905   7.892  25.361 -0.0169  0.2125 -0.0280
 2324DDP     C213942  25.158   8.070  25.093  0.1112  0.0114  0.1910
 2324DDP     C313943  24.059   7.419  24.481 -0.1612 -0.0080  0.1802
 2324DDP     C413944  24.162   7.709  25.557 -0.2790  0.0304  0.2659
 2325DDP     C113945   0.472  19.190   4.286  0.0512  0.0314  0.2259
 2325DDP     P113946   0.453  19.373   4.616 -0.0503 -0.0061  0.0796
 2325DDP     P213947   0.487  19.597   4.184 -0.0957 -0.1321  0.0057
 2325DDP     C213948   0.778  19.767   4.162  0.1410 -0.0303 -0.0335
 2325DDP     C313949   0.744  19.803   4.648  0.2432  0.4051  0.1165
 2325DDP     C413950   0.157  19.090   4.008 -0.1155 -0.1086 -0.0140
 2326DDP     C113951  21.517  10.971  16.026 -0.1410 -0.0550 -0.1863
 2326DDP     P113952  21.286  10.587  16.206 -0.0102 -0.1337 -0.0678
 2326DDP     P213953  21.956  10.838  15.838  0.1028 -0.2022 -0.0049
 2326DDP     C213954  22.069  10.496  15.600  0.3507  0.1036  0.0263
 2326DDP     C313955  21.298  10.187  16.322 -0.1525 -0.1458  0.0403
 2326DDP     C413956  21.301  11.357  15.989  0.0771  0.0177  0.3318
 2327DDP     C113957  24.914   1.899  18.090  0.3164  0.0565  0.0284
 2327DDP     P113958  24.686   1.412  18.192  0.1447  0.1708 -0.2538
 2327DDP     P213959  24.562   2.276  18.028 -0.0770 -0.0185  0.0869
 2327DDP     C213960  24.171   2.434  18.049  0.0743  0.1757 -0.0476
 2327DDP     C313961  24.681   0.897  18.139 -0.0572 -0.0832 -0.0585
 2327DDP     C413962  25.335   1.938  18.112  0.1767  0.1264  0.4619
 2328DDP     C113963   9.325  15.789  24.537  0.0175  0.3775 -0.0608
 2328DDP     P113964   9.790  15.935  24.490 -0.0979  0.1894  0.0711
 2328DDP     P213965   9.171  15.427  24.285  0.3527 -0.0375 -0.5483
 2328DDP     C213966   9.340  15.172  24.005  0.0444  0.0398 -0.0224
 2328DDP     C313967  10.129  15.928  24.825 -0.0913 -0.1950  0.0900
 2328DDP     C413968   9.243  15.769  24.919 -0.5485  0.1730 -0.1527
 2329DDP     C113969  15.386  19.041  17.764 -0.0421  0.2114  0.3822
 2329DDP     P113970  15.423  18.739  18.164  0.0202  0.1208 -0.0540
 2329DDP     P213971  15.633  19.408  17.962 -0.0342 -0.0235  0.0762
 2329DDP     C213972  15.871  19.734  17.736 -0.1016 -0.0111 -0.0543
 2329DDP     C313973  15.269  18.272  18.146 -0.2372  0.0482  0.1118
 2329DDP     C413974  15.222  18.893  17.330  0.0290 -0.0049  0.2324
 2330DDP     C113975   7.747   3.997   5.933 -0.2091  0.0307  0.0120
 2330DDP     P113976   7.690   4.154   6.299  0.1898  0.1028 -0.1022
 2330DDP     P213977   7.427   3.741   5.691 -0.0885  0.2485  0.0185
 2330DDP     C213978   7.364   3.348   5.437 -0.2334  0.0186  0.2521
 2330DDP     C313979   7.641   4.427   6.606 -0.2012  0.0914 -0.0485
 2330DDP     C413980   8.100   4.181   5.689 -0.1547  0.0020 -0.0841
 2331DDP     C113981  10.542   0.113  21.440  0.0055 -0.1437  0.0111
 2331DDP     P113982  10.930  30.172  21.662  0.1741 -0.3003  0.2379
 2331DDP     P213983  10.331  30.148  21.750 -0.1943  0.2939 -0.0931
 2331DDP     C213984  10.033  30.103  22.111  0.0208 -0.0302  0.3117
 2331DDP     C313985  11.078  30.215  21.949 -0.0141 -0.0454 -0.1705
 2331DDP     C413986  10.275   0.275  21.230 -0.0078 -0.0925  0.0124
 2332DDP     C113987  21.965  11.955  24.545  0.3269  0.2129 -0.1026
 2332DDP     P113988  22.095  11.807  24.904  0.5548 -0.1025  0.1531
 2332DDP     P213989  21.734  11.778  24.325  0.1773  0.0685 -0.0271
 2332DDP     C213990  21.795  11.510  23.995 -0.0250  0.0329 -0.1289
 2332DDP     C313991  21.908  11.640  25.321 -0.0363  0.0288 -0.0050
 2332DDP     C413992  22.099  12.348  24.568  0.2640  0.0819 -0.1360
 2333DDP     C113993   1.750   0.613  17.297  0.0089 -0.0050 -0.1055
 2333DDP     P113994   1.744   0.208  17.328 -0.1976  0.1066  0.0123
 2333DDP     P213995   1.510   0.881  17.096  0.1084  0.0810  0.0012
 2333DDP     C213996   1.075   0.942  16.978 -0.0617 -0.0012  0.3620
 2333DDP     C313997   1.794  30.049  17.493  0.0556 -0.1885 -0.1288
 2333DDP     C413998   2.072   0.729  17.604 -0.0607  0.0367  0.4805
 2334DDP     C113999  11.973  20.060   4.488 -0.0565 -0.1990  0.0255
 2334DDP     P114000  11.578  20.248   4.570 -0.1661 -0.1188  0.0396
 2334DDP     P214001  12.337  19.710   4.541  0.0108 -0.0399  0.0175
 2334DDP     C214002  12.413  19.257   4.788 -0.1003 -0.1309  0.0627
 2334DDP     C314003  11.320  20.569   4.780  0.0604 -0.3964  0.0969
 2334DDP     C414004  12.296  20.330   4.290  0.1443  0.0789  0.1609
 2335DDP     C114005  18.558   3.936  21.092 -0.1405 -0.1162  0.1261
 2335DDP     P114006  18.856   4.105  20.875  0.0234  0.1897  0.1630
 2335DDP     P214007  18.629   3.905  21.552  0.1149  0.1875  0.0520
 2335DDP     C214008  18.913   3.622  21.780 -0.2714  0.1038 -0.1652
 2335DDP     C314009  18.740   4.170  20.419 -0.0694 -0.1392 -0.0508
 2335DDP     C414010  18.153   3.942  20.948 -0.2461 -0.2348  0.3005
 2336DDP     C114011  12.857   7.861  10.983 -0.1570 -0.0391 -0.0243
 2336DDP     P114012  12.957   7.674  11.293 -0.1516  0.0067 -0.0847
 2336DDP     P214013  12.687   7.541  10.704 -0.1494  0.1174  0.0642
 2336DDP     C214014  12.357   7.270  10.909 -0.1160  0.4546 -0.1066
 2336DDP     C314015  13.210   7.772  11.592 -0.1443 -0.3371 -0.2275
 2336DDP     C414016  12.866   8.350  10.880 -0.0028  0.1701  0.3122
 2337DDP     C114017  21.851   6.953   9.712 -0.2355  0.0340 -0.2854
 2337DDP     P114018  21.961   7.419   9.762  0.1151  0.1724  0.2293
 2337DDP     P214019  21.451   6.823   9.652  0.0501  0.0280 -0.4672
 2337DDP     C214020  21.034   6.838   9.572 -0.0510 -0.1519 -0.0373
 2337DDP     C314021  22.308   7.628  10.004  0.0392 -0.0565 -0.0256
 2337DDP     C414022  22.089   6.685   9.631  0.1357 -0.2599 -0.0151
 2338DDP     C114023  21.331  23.730  22.569  0.1627 -0.0399  0.1962
 2338DDP     P114024  21.867  23.780  22.764  0.1136  0.0066  0.0679
 2338DDP     P214025  21.424  23.420  22.235 -0.0047  0.0671  0.0170
 2338DDP     C214026  21.565  22.952  22.434 -0.1350 -0.2285  0.0507
 2338DDP     C314027  22.160  23.514  22.810  0.0114  0.1988  0.0847
 2338DDP     C414028  21.033  23.707  22.878  0.0387 -0.0626  0.0636
 2339DDP     C114029  28.623  14.369  20.327 -0.4369 -0.1406 -0.1300
 2339DDP     P114030  28.924  14.750  20.171 -0.3374 -0.2524 -0.0288
 2339DDP     P214031  28.769  13.938  20.308  0.0221 -0.1365 -0.0675
 2339DDP     C214032  28.593  13.556  20.011 -0.0651  0.0643 -0.1097
 2339DDP     C314033  28.844  14.931  19.731 -0.4384  0.0120 -0.0986
 2339DDP     C414034  28.135  14.422  20.391  0.2584 -0.0725 -0.6012
 2340DDP     C114035  13.275  29.231  26.327 -0.0222 -0.1135  0.0777
 2340DDP     P114036  13.231  29.522  26.183  0.1786  0.0245  0.3421
 2340DDP     P214037  13.597  29.054  26.339  0.4764 -0.1234  0.0289
 2340DDP     C214038  13.854  28.916  26.719  0.1356 -0.3152  0.1488
 2340DDP     C314039  12.817  29.506  25.780  0.1075  0.5167 -0.0917
 2340DDP     C414040  12.994  29.040  26.654 -0.3836  0.1038 -0.2177
 2341DDP     C114041  23.676   7.046  23.734  0.4100  0.2271  0.1551
 2341DDP     P114042  23.387   7.463  23.763  0.1950  0.1093 -0.1043
 2341DDP     P214043  23.683   6.816  23.344 -0.2156 -0.1181 -0.0977
 2341DDP     C214044  23.418   6.516  23.202  0.1463  0.1713  0.1258
 2341DDP     C314045  23.221   7.939  23.882 -0.0832 -0.0969  0.2496
 2341DDP     C414046  23.908   6.818  24.071 -0.0003 -0.2679 -0.0391
 2342DDP     C114047  11.628   1.889  22.238  0.0511  0.0524  0.1011
 2342DDP     P114048  11.623   2.218  21.920  0.0965  0.0769  0.0507
 2342DDP     P214049  11.706   1.819  22.686  0.0159 -0.0349 -0.1095
 2342DDP     C214050  11.771   1.807  23.140  0.1937  0.1140 -0.2250
 2342DDP     C314051  11.401   2.528  21.831  0.0828  0.1094 -0.3031
 2342DDP     C414052  11.546   1.443  21.956 -0.1056  0.1781 -0.1111
 2343DDP     C114053  23.168  12.123   5.834  0.3730 -0.2417 -0.0221
 2343DDP     P114054  23.362  11.697   5.953 -0.0431 -0.0982 -0.2568
 2343DDP     P214055  22.743  12.161   6.059  0.1327  0.1264  0.0234
 2343DDP     C214056  22.256  12.110   6.034 -0.0906  0.0435 -0.0059
 2343DDP     C314057  23.362  11.332   5.799 -0.3457 -0.0355  0.2987
 2343DDP     C414058  23.138  12.320   5.418 -0.4292  0.1584 -0.2830
 2344DDP     C114059   1.112   5.580  10.884  0.0926  0.2319  0.2960
 2344DDP     P114060   0.697   5.651  10.766  0.0381 -0.1928 -0.2034
 2344DDP     P214061   1.425   5.504  10.541 -0.0178 -0.0271 -0.0209
 2344DDP     C214062   1.386   5.206  10.093  0.1338  0.0397  0.0854
 2344DDP     C314063   0.349   5.587  10.507  0.1984 -0.0546 -0.5335
 2344DDP     C414064   1.001   5.366  11.326 -0.2773 -0.0779  0.1021
 2345DDP     C114065  16.585  26.711  22.175  0.0508 -0.1326  0.3107
 2345DDP     P114066  16.410  26.223  22.326  0.1844 -0.0798 -0.2830
 2345DDP     P214067  16.382  27.071  22.289  0.1480  0.0180  0.0327
 2345DDP     C214068  15.954  27.180  22.394  0.1619 -0.3523  0.1206
 2345DDP     C314069  16.096  26.053  22.137 -0.2583  0.1266 -0.3172
 2345DDP     C414070  17.053  26.701  22.041 -0.2071  0.1317  0.1848
 2346DDP     C114071   8.384  26.549  16.770  0.0286  0.1426 -0.1388
 2346DDP     P114072   8.202  26.361  17.042 -0.0549  0.0015 -0.1048
 2346DDP     P214073   8.222  26.423  16.291 -0.2165  0.0541  0.0110
 2346DDP     C214074   8.549  26.469  16.013 -0.3631 -0.2010 -0.1142
 2346DDP     C314075   8.140  26.095  17.333 -0.2526  0.2278  0.3327
 2346DDP     C414076   8.600  26.836  17.077  0.6101  0.0466  0.2294
 2347DDP     C114077   9.278  15.160  25.824  0.2342  0.0517 -0.0419
 2347DDP     P114078   9.384  15.494  25.687  0.2894  0.0433 -0.2739
 2347DDP     P214079   9.115  14.766  25.595 -0.1082 -0.0330  0.0232
 2347DDP     C214080   8.715  14.700  25.531  0.0875 -0.0943  0.1720
 2347DDP     C314081   9.467  15.731  25.377 -0.0098 -0.0203  0.3294
 2347DDP     C414082   9.542  14.978  26.270 -0.0843 -0.0187  0.0191
 2348DDP     C114083  24.801  23.679   9.151  0.0935 -0.0264  0.0684
 2348DDP     P114084  24.711  24.056   9.039 -0.0540  0.2856  0.0689
 2348DDP     P214085  25.026  23.692   9.498 -0.1655 -0.0109  0.1321
 2348DDP     C214086  25.399  23.541   9.835 -0.0566  0.1346  0.0372
 2348DDP     C314087  24.384  24.307   8.994  0.5510 -0.1753  0.1495
 2348DDP     C414088  24.670  23.326   8.883  0.3267 -0.1733 -0.3372
 2349DDP     C114089  18.778   7.357   4.850 -0.1379  0.2425  0.2813
 2349DDP     P114090  18.687   7.648   5.206 -0.1581 -0.0598 -0.4947
 2349DDP     P214091  19.006   7.030   4.808  0.0906 -0.0338 -0.1160
 2349DDP     C214092  18.956   6.682   4.626  0.1570  0.0271  0.0751
 2349DDP     C314093  18.404   7.965   5.535  0.2956 -0.1076 -0.0989
 2349DDP     C414094  18.295   7.389   4.901  0.1739  0.0802 -0.0944
 2350DDP     C114095   1.215  14.025   8.029  0.0047 -0.0458  0.0333
 2350DDP     P114096   1.141  13.720   7.566  0.0404  0.0691 -0.2060
 2350DDP     P214097   1.650  13.987   8.243 -0.1498  0.3695  0.2983
 2350DDP     C214098   2.077  13.974   8.454  0.1042 -0.0156 -0.2703
 2350DDP     C314099   1.077  13.758   7.014  0.0152 -0.1664 -0.1290
 2350DDP     C414100   0.920  14.125   8.298 -0.0961  0.1751 -0.0530
 2351DDP     C114101  19.936   3.576  20.973 -0.2265 -0.0012  0.0896
 2351DDP     P114102  20.323   3.541  20.902  0.5001  0.1362  0.1819
 2351DDP     P214103  19.694   3.984  20.706 -0.1566  0.0516 -0.0863
 2351DDP     C214104  19.246   3.907  20.492  0.2167 -0.3260  0.1163
 2351DDP     C314105  20.577   3.460  20.425  0.2062 -0.2689 -0.0183
 2351DDP     C414106  19.693   3.233  21.104 -0.1889 -0.0759 -0.2159
 2352DDP     C114107   1.258   1.244  20.701  0.0844  0.0125  0.3412
 2352DDP     P114108   1.684   0.937  20.654  0.0422 -0.0848 -0.1129
 2352DDP     P214109   0.788   1.055  20.723 -0.1206 -0.2702 -0.0001
 2352DDP     C214110   0.690   0.576  20.672  0.0706  0.1469 -0.3269
 2352DDP     C314111   2.067   0.756  20.526  0.0658  0.0121  0.1113
 2352DDP     C414112   1.269   1.678  20.557 -0.0985  0.0274 -0.2301
 2353DDP     C114113  16.943  20.276   1.953  0.0027 -0.1799  0.0649
 2353DDP     P114114  17.134  20.594   1.726  0.3572 -0.2967  0.1952
 2353DDP     P214115  16.623  19.948   1.840  0.0094  0.0047  0.0995
 2353DDP     C214116  16.429  19.585   1.510 -0.0150 -0.0659  0.1101
 2353DDP     C314117  17.121  20.993   1.669  0.0034 -0.3245 -0.0273
 2353DDP     C414118  17.043  20.086   2.339 -0.0764 -0.1042 -0.0958
 2354DDP     C114119  14.189  26.567  15.960  0.3140  0.1132  0.0089
 2354DDP     P114120  14.077  26.206  15.670 -0.0001 -0.0091  0.3060
 2354DDP     P214121  14.349  26.563  16.382 -0.1276  0.2898 -0.1662
 2354DDP     C214122  14.508  26.853  16.657 -0.2898 -0.1454  0.0629
 2354DDP     C314123  13.999  25.867  15.350  0.0151 -0.2005 -0.1725
 2354DDP     C414124  14.238  27.009  16.144 -0.1630 -0.1520 -0.1375
 2355DDP     C114125  29.522  17.951  27.746 -0.1269  0.1935  0.0955
 2355DDP     P114126  29.169  17.817  27.965  0.2121  0.0945  0.0819
 2355DDP     P214127  29.603  18.465  27.696  0.0174 -0.0816 -0.1729
 2355DDP     C214128  29.964  18.783  27.627  0.1137  0.0546 -0.0672
 2355DDP     C314129  28.965  17.487  27.773  0.0032  0.1436  0.3505
 2355DDP     C414130  29.580  17.588  27.611  0.0870 -0.0494 -0.3385
 2356DDP     C114131  10.074  14.853  11.749  0.1624 -0.0460 -0.2411
 2356DDP     P114132   9.608  14.737  11.894  0.2002  0.2110  0.1388
 2356DDP     P214133  10.311  14.921  12.153 -0.0425  0.0193  0.0107
 2356DDP     C214134  10.295  14.551  12.354  0.2088 -0.0896  0.2153
 2356DDP     C314135   9.136  14.782  11.739  0.0536  0.2098  0.1996
 2356DDP     C414136  10.108  14.850  11.452  0.2330  0.1360  0.1506
 2357DDP     C114137  29.695  20.966   2.635  0.2644 -0.2912  0.1671
 2357DDP     P114138  29.336  21.153   2.854 -0.0039 -0.0591 -0.0502
 2357DDP     P214139  29.872  21.047   2.213 -0.2760 -0.1725  0.2760
 2357DDP     C214140  29.902  21.169   1.803 -0.1965  0.3044 -0.1638
 2357DDP     C314141  29.145  21.221   3.189 -0.2826  0.0485  0.0563
 2357DDP     C414142  29.783  20.623   2.938 -0.0529  0.0922  0.1272
 2358DDP     C114143   8.762  23.936   1.209  0.1147  0.0064 -0.1448
 2358DDP     P114144   8.827  24.350   1.393  0.1234  0.0411  0.1032
 2358DDP     P214145   8.539  23.951   0.864 -0.0702  0.0941 -0.0171
 2358DDP     C214146   8.255  24.055   0.694 -0.1882 -0.0907 -0.1840
 2358DDP     C314147   9.094  24.598   1.235 -0.0215 -0.0915  0.0398
 2358DDP     C414148   8.813  23.623   1.341 -0.2731 -0.1328  0.0782
 2359DDP     C114149  13.910   6.745   0.354  0.1292 -0.0215  0.1596
 2359DDP     P114150  13.914   6.332   0.430 -0.3781  0.2954 -0.0712
 2359DDP     P214151  14.001   6.939   0.637 -0.1228 -0.0200  0.2847
 2359DDP     C214152  14.163   7.004   1.052  0.0404  0.1270  0.3050
 2359DDP     C314153  14.107   5.935   0.393  0.2302  0.2629  0.2932
 2359DDP     C414154  13.851   6.898  30.237  0.2743 -0.1254 -0.1722
 2360DDP     C114155  21.115  14.942   5.980  0.1380 -0.1107 -0.0608
 2360DDP     P114156  21.043  14.481   5.823 -0.0730 -0.2944  0.0546
 2360DDP     P214157  20.818  14.991   6.229 -0.0645 -0.3163  0.0676
 2360DDP     C214158  20.478  15.059   6.474  0.1162  0.0921  0.0192
 2360DDP     C314159  21.231  14.089   5.771  0.0689  0.0682 -0.2591
 2360DDP     C414160  21.577  15.096   6.109 -0.0941  0.1107  0.2598
 2361DDP     C114161  13.776  16.112  16.199 -0.0604 -0.1630 -0.3061
 2361DDP     P114162  13.353  16.111  16.404 -0.0102  0.2353  0.3088
 2361DDP     P214163  14.052  16.064  16.557 -0.0239 -0.1857  0.2296
 2361DDP     C214164  14.430  16.265  16.680  0.1355  0.0721 -0.0163
 2361DDP     C314165  12.958  16.251  16.236  0.2186  0.0239 -0.0525
 2361DDP     C414166  13.824  16.129  15.812  0.0736  0.3313  0.0644
 2362DDP     C114167  25.258  27.003  20.343  0.0844 -0.0549 -0.0763
 2362DDP     P114168  25.616  26.919  20.560  0.1713 -0.0024  0.0757
 2362DDP     P214169  24.856  27.205  20.539 -0.1697 -0.0969  0.1144
 2362DDP     C214170  24.518  27.126  20.416 -0.3937 -0.1235  0.1804
 2362DDP     C314171  26.043  26.859  20.778  0.2523 -0.3175 -0.1089
 2362DDP     C414172  25.189  26.850  19.991 -0.0660 -0.3617  0.0685
 2363DDP     C114173   5.702  24.148  14.182  0.3784 -0.0035  0.0023
 2363DDP     P114174   5.663  23.993  14.592 -0.0312 -0.3108  0.2599
 2363DDP     P214175   5.655  24.564  14.250 -0.0258  0.0187  0.3655
 2363DDP     C214176   5.672  24.677  14.731 -0.2038  0.0494 -0.2525
 2363DDP     C314177   5.423  24.151  14.947 -0.1098 -0.2747  0.3243
 2363DDP     C414178   5.791  23.879  13.812 -0.4017 -0.1187 -0.0415
 2364DDP     C114179  21.531  12.699  28.539 -0.5186  0.0289 -0.1369
 2364DDP     P114180  21.179  12.763  28.619 -0.2713 -0.1226 -0.0263
 2364DDP     P214181  21.725  12.852  28.087 -0.3965 -0.1413 -0.1234
 2364DDP     C214182  22.145  13.023  28.026  0.2221  0.0750  0.1904
 2364DDP     C314183  21.117  12.905  29.017 -0.0102  0.2803 -0.0018
 2364DDP     C414184  21.658  12.694  28.908  0.0427 -0.0041 -0.4206
 2365DDP     C114185   3.976   2.084   8.380  0.1407  0.1918  0.0835
 2365DDP     P114186   4.302   1.811   8.143 -0.2616 -0.4843 -0.0616
 2365DDP     P214187   3.852   2.467   8.440  0.1908 -0.1116  0.0912
 2365DDP     C214188   3.676   2.881   8.543 -0.0375  0.2896 -0.0935
 2365DDP     C314189   4.596   1.432   7.951 -0.0389  0.0007  0.0088
 2365DDP     C414190   3.679   1.871   8.587  0.0299 -0.0516 -0.0679
 2366DDP     C114191   8.550  26.535   6.239  0.1103 -0.2168  0.0729
 2366DDP     P114192   8.646  26.750   5.845 -0.1758 -0.2098 -0.0625
 2366DDP     P214193   8.664  26.053   6.226  0.2080 -0.0332  0.1136
 2366DDP     C214194   8.882  25.770   5.951 -0.1700 -0.0625  0.0603
 2366DDP     C314195   8.838  26.615   5.426 -0.0084 -0.0832  0.2643
 2366DDP     C414196   8.456  26.765   6.729  0.3385 -0.0537 -0.1000
 2367DDP     C114197   7.078  10.527   0.085 -0.1767  0.1690  0.1769
 2367DDP     P114198   7.196  10.535   0.503  0.0803 -0.0784  0.1297
 2367DDP     P214199   6.714  10.411  30.244  0.1586  0.1459  0.4270
 2367DDP     C214200   6.560  10.211  29.931  0.2147  0.0807  0.0062
 2367DDP     C314201   7.100  10.529   0.949 -0.1614  0.0891  0.1342
 2367DDP     C414202   7.395  10.754  30.097  0.1815 -0.0837 -0.1359
 2368DDP     C114203   8.539   0.111  10.299 -0.1917 -0.0558  0.3897
 2368DDP     P114204   8.821   0.476  10.371 -0.0799 -0.3553  0.0775
 2368DDP     P214205   8.763   0.186   9.944 -0.1800  0.3321 -0.1331
 2368DDP     C214206   8.986   0.459   9.742 -0.0500  0.0941  0.3769
 2368DDP     C314207   9.159   0.782  10.304  0.2072 -0.2362  0.0915
 2368DDP     C414208   8.295  30.072  10.468 -0.1291 -0.3578 -0.0435
 2369DDP     C114209   5.021  14.551   7.081  0.3139  0.0894  0.0827
 2369DDP     P114210   4.579  14.407   7.446 -0.3508 -0.1927 -0.2838
 2369DDP     P214211   5.405  14.351   7.196 -0.1948 -0.1228 -0.1385
 2369DDP     C214212   5.575  14.176   7.541 -0.3221 -0.0434  0.0398
 2369DDP     C314213   4.269  14.073   7.454 -0.1803 -0.1454  0.1217
 2369DDP     C414214   4.785  14.761   6.816 -0.0546 -0.0622 -0.2018
 2370DDP     C114215  25.998   2.063  16.811 -0.0868 -0.1782  0.4181
 2370DDP     P114216  26.036   2.483  16.768  0.3386 -0.1492  0.1126
 2370DDP     P214217  26.178   1.750  16.625 -0.0207 -0.2119  0.0782
 2370DDP     C214218  26.273   1.614  16.277 -0.1463  0.0191 -0.2080
 2370DDP     C314219  25.852   2.797  17.096 -0.1930 -0.0600 -0.3346
 2370DDP     C414220  25.903   1.930  17.233  0.4390 -0.1016  0.1608
 2371DDP     C114221   2.245  26.189   2.153 -0.1088  0.1447 -0.3301
 2371DDP     P114222   2.669  26.018   2.260 -0.1014  0.2847  0.1090
 2371DDP     P214223   2.162  26.058   1.751  0.1289  0.2402 -0.2554
 2371DDP     C214224   2.324  26.163   1.339 -0.0506  0.1988 -0.0803
 2371DDP     C314225   2.922  25.914   2.472  0.0045 -0.0402 -0.0245
 2371DDP     C414226   1.903  26.425   2.353  0.2256 -0.0096 -0.1457
 2372DDP     C114227  29.488   3.240   1.457 -0.3608  0.0451  0.1320
 2372DDP     P114228  29.727   3.182   1.035 -0.4175  0.2996 -0.2735
 2372DDP     P214229  29.774   3.253   1.833  0.2116 -0.1175  0.0997
 2372DDP     C214230  29.817   3.224   2.252 -0.1933 -0.2574 -0.1499
 2372DDP     C314231  29.834   3.401   0.680  0.2971  0.0503  0.2048
 2372DDP     C414232  29.113   3.223   1.388  0.0827 -0.2746  0.2739
 2373DDP     C114233  15.639  12.109  26.493 -0.0209  0.2685  0.0530
 2373DDP     P114234  16.127  12.114  26.509 -0.1027  0.1137 -0.1717
 2373DDP     P214235  15.546  12.410  26.231  0.0707 -0.0308  0.0251
 2373DDP     C214236  15.577  12.829  26.065 -0.0354  0.0126  0.1080
 2373DDP     C314237  16.630  12.003  26.679 -0.2673  0.2793  0.2293
 2373DDP     C414238  15.304  11.772  26.481 -0.1844 -0.0292  0.1853
 2374DDP     C114239  22.742  26.274  16.740 -0.0498  0.0553  0.0683
 2374DDP     P114240  22.817  25.985  16.593 -0.2348  0.0122 -0.1800
 2374DDP     P214241  22.433  26.422  16.919  0.1690  0.1660  0.0914
 2374DDP     C214242  22.181  26.519  16.516  0.1134  0.0272 -0.1256
 2374DDP     C314243  23.000  25.912  16.228  0.1950  0.0889 -0.1050
 2374DDP     C414244  23.158  26.556  16.787  0.0810  0.0047 -0.1326
 2375DDP     C114245  27.736  10.124  15.750 -0.1618 -0.2744  0.2177
 2375DDP     P114246  27.624   9.696  15.652  0.1897  0.2097  0.0319
 2375DDP     P214247  27.648  10.260  16.211  0.0311 -0.1174  0.0282
 2375DDP     C214248  27.601  10.202  16.610  0.1163 -0.4101  0.1397
 2375DDP     C314249  27.289   9.520  15.323 -0.0702 -0.1090 -0.1230
 2375DDP     C414250  27.901  10.471  15.565 -0.0749  0.0111 -0.2147
 2376DDP     C114251  13.208  20.864  29.747 -0.1082  0.1052  0.3794
 2376DDP     P114252  13.262  21.044  29.287  0.1066 -0.0228 -0.1846
 2376DDP     P214253  13.055  21.010  30.060  0.1399 -0.2262  0.2682
 2376DDP     C214254  12.813  21.118   0.030 -0.1415  0.1749 -0.1353
 2376DDP     C314255  13.605  21.303  29.201  0.1811  0.2194  0.0158
 2376DDP     C414256  13.317  20.541  29.907 -0.0735 -0.0193 -0.1230
 2377DDP     C114257  26.788  29.174  18.389 -0.0443  0.1376 -0.2243
 2377DDP     P114258  26.466  29.285  18.718 -0.0479  0.0740  0.0490
 2377DDP     P214259  27.019  29.561  18.459 -0.0589  0.0189  0.1529
 2377DDP     C214260  27.291  29.908  18.361 -0.3150 -0.4087  0.3344
 2377DDP     C314261  26.220  29.203  19.078 -0.0609 -0.0390  0.0701
 2377DDP     C414262  26.821  28.730  18.283 -0.4082  0.0480 -0.0050
 2378DDP     C114263  24.902  12.996   9.873  0.1265  0.2486  0.2177
 2378DDP     P114264  24.959  12.533   9.833  0.1093  0.0021 -0.1407
 2378DDP     P214265  25.007  13.331   9.504 -0.0216 -0.0616  0.0366
 2378DDP     C214266  25.226  13.275   9.111  0.0705 -0.3148 -0.1689
 2378DDP     C314267  25.182  12.282   9.540  0.0760 -0.0656 -0.0795
 2378DDP     C414268  24.748  13.242  10.257 -0.3749 -0.0239  0.0804
 2379DDP     C114269  30.320  18.964  12.556  0.2145 -0.0798 -0.0330
 2379DDP     P114270  29.917  18.817  12.901  0.3793  0.2178  0.1129
 2379DDP     P214271   0.266  18.630  12.302  0.0847  0.0025  0.1748
 2379DDP     C214272   0.209  18.133  12.115 -0.1401 -0.2668 -0.1228
 2379DDP     C314273  29.587  18.612  12.857 -0.0041  0.0030  0.0239
 2379DDP     C414274   0.134  19.292  12.699 -0.0189  0.0473  0.3138
 2380DDP     C114275   7.024  13.454  11.919 -0.0627 -0.0428 -0.1208
 2380DDP     P114276   6.628  13.587  12.083 -0.2534 -0.0019 -0.1274
 2380DDP     P214277   7.085  13.134  11.841 -0.2544  0.0410 -0.4209
 2380DDP     C214278   7.032  12.684  12.001  0.1763 -0.2967 -0.1845
 2380DDP     C314279   6.251  13.793  12.245  0.1410  0.2665 -0.0703
 2380DDP     C414280   7.395  13.591  11.775 -0.0666 -0.0637 -0.3145
 2381DDP     C114281  13.549   9.173  19.520 -0.1604  0.1531  0.1166
 2381DDP     P114282  13.276   8.989  19.916  0.0203 -0.0033  0.0171
 2381DDP     P214283  13.364   8.987  19.204 -0.0160 -0.1824  0.0310
 2381DDP     C214284  13.326   9.046  18.747  0.0010 -0.0228 -0.1131
 2381DDP     C314285  13.114   8.646  20.198 -0.2948  0.1665 -0.2012
 2381DDP     C414286  14.009   9.339  19.442  0.0376 -0.3055  0.0406
 2382DDP     C114287  26.201  25.460  21.896 -0.2315 -0.1183  0.0391
 2382DDP     P114288  26.538  25.669  21.612 -0.1734  0.0971  0.1355
 2382DDP     P214289  26.141  25.061  21.691 -0.0288 -0.2046  0.1147
 2382DDP     C214290  25.883  24.747  21.623 -0.0496  0.1479 -0.1133
 2382DDP     C314291  26.631  25.756  21.213  0.2606  0.0355  0.0534
 2382DDP     C414292  26.029  25.413  22.341  0.0836  0.1058  0.0868
 2383DDP     C114293  23.301  27.829  16.367  0.1191  0.4263 -0.0833
 2383DDP     P114294  22.950  28.181  16.452  0.0717 -0.3745 -0.0968
 2383DDP     P214295  23.276  27.606  15.908  0.1960  0.0978 -0.0657
 2383DDP     C214296  23.575  27.530  15.656  0.3350 -0.0877  0.0680
 2383DDP     C314297  22.591  28.342  16.295  0.0799  0.0924  0.0376
 2383DDP     C414298  23.697  27.889  16.590 -0.1656 -0.1493  0.1277
 2384DDP     C114299  13.031   6.391   5.318  0.0279  0.0850 -0.2752
 2384DDP     P114300  13.529   6.348   5.320 -0.0833  0.0625 -0.1251
 2384DDP     P214301  13.034   6.872   5.303  0.0260 -0.0138  0.0458
 2384DDP     C214302  13.227   7.247   5.194 -0.1777  0.1391 -0.1795
 2384DDP     C314303  13.934   6.647   5.407  0.3796 -0.1253 -0.0985
 2384DDP     C414304  12.658   6.070   5.378 -0.0880 -0.1022 -0.0367
 2385DDP     C114305   5.129  10.201   2.168  0.0235  0.0022 -0.2695
 2385DDP     P114306   5.277  10.414   1.822 -0.0058 -0.3481 -0.0355
 2385DDP     P214307   5.107   9.751   2.169 -0.2340  0.1909  0.1277
 2385DDP     C214308   4.969   9.365   2.017  0.1417 -0.2284 -0.0461
 2385DDP     C314309   5.543  10.641   1.837  0.0495 -0.0733  0.0053
 2385DDP     C414310   4.984  10.412   2.528 -0.0295  0.1472 -0.0502
 2386DDP     C114311  15.524   9.203  13.583 -0.2024 -0.1214  0.0050
 2386DDP     P114312  15.183   9.383  13.686 -0.1134  0.0817  0.3030
 2386DDP     P214313  15.830   8.842  13.788  0.0789  0.1683 -0.0271
 2386DDP     C214314  16.166   8.516  13.882  0.3009 -0.1216 -0.0162
 2386DDP     C314315  14.947   9.714  13.810  0.1564 -0.3707 -0.0167
 2386DDP     C414316  15.662   9.256  13.115  0.4379  0.3536  0.2655
 2387DDP     C114317   4.528  28.145   2.509  0.0713  0.0736  0.3603
 2387DDP     P114318   4.299  28.028   2.150  0.1862 -0.1898 -0.0777
 2387DDP     P214319   4.842  27.917   2.291  0.0340 -0.0783  0.0385
 2387DDP     C214320   5.158  27.582   2.429  0.2565  0.1114 -0.1396
 2387DDP     C314321   3.887  27.780   2.154  0.0003 -0.2796  0.0364
 2387DDP     C414322   4.485  28.411   2.786 -0.2455 -0.1302 -0.1366
 2388DDP     C114323   5.587  25.527  29.872 -0.2486  0.3798  0.0190
 2388DDP     P114324   5.496  25.145  29.801 -0.1637 -0.1163  0.0387
 2388DDP     P214325   5.933  25.547  29.961 -0.1531 -0.1137 -0.1735
 2388DDP     C214326   6.090  25.216  30.278  0.0348 -0.2370 -0.1317
 2388DDP     C314327   5.243  25.021  29.527  0.5329  0.0451  0.0917
 2388DDP     C414328   5.343  25.817  30.105  0.2511  0.0883  0.0576
 2389DDP     C114329  29.640  29.595   2.904  0.4708 -0.1199 -0.3236
 2389DDP     P114330  29.489  29.277   3.095 -0.1397 -0.1487 -0.2699
 2389DDP     P214331  29.613  29.904   2.655  0.1124 -0.3149  0.1064
 2389DDP     C214332  29.275  30.263   2.587  0.5780  0.0212  0.2667
 2389DDP     C314333  29.633  28.852   3.274  0.0294  0.0515 -0.0661
 2389DDP     C414334  30.001  29.799   3.144 -0.2078  0.1564  0.1932
 2390DDP     C114335   8.769  26.461  26.323  0.3385  0.0940  0.0637
 2390DDP     P114336   9.221  26.520  26.507 -0.0601  0.0481  0.1649
 2390DDP     P214337   8.695  25.989  26.253  0.0634 -0.0938  0.2544
 2390DDP     C214338   8.584  25.641  26.477  0.0369 -0.0298  0.2079
 2390DDP     C314339   9.504  26.596  26.143  0.0275 -0.0089 -0.0092
 2390DDP     C414340   8.575  26.689  26.111 -0.2415 -0.2479 -0.1503
 2391DDP     C114341   7.956  25.387  29.194  0.1419  0.0780 -0.0410
 2391DDP     P114342   7.745  24.980  29.114  0.1623  0.3954 -0.0472
 2391DDP     P214343   7.737  25.749  29.299  0.1034 -0.0028  0.1887
 2391DDP     C214344   7.323  25.750  29.537  0.1482 -0.0702  0.0560
 2391DDP     C314345   7.297  24.775  29.137 -0.0731  0.2581  0.2284
 2391DDP     C414346   8.331  25.513  29.117  0.0834 -0.1281  0.0893
 2392DDP     C114347  25.458   4.666  19.166  0.0649  0.0729  0.1261
 2392DDP     P114348  25.772   4.499  19.343  0.0878  0.0705  0.2523
 2392DDP     P214349  25.369   4.762  18.751 -0.0115 -0.1177  0.0233
 2392DDP     C214350  25.268   4.521  18.458  0.1577  0.1448 -0.0902
 2392DDP     C314351  25.841   4.055  19.302 -0.3005  0.0637 -0.0515
 2392DDP     C414352  25.100   4.743  19.440  0.0212 -0.1238 -0.0440
 2393DDP     C114353  26.153   7.876  11.300  0.0466 -0.1691 -0.2110
 2393DDP     P114354  25.863   7.417  11.338  0.1712 -0.2138  0.0886
 2393DDP     P214355  26.439   7.856  10.974 -0.0309  0.1612 -0.5571
 2393DDP     C214356  26.801   7.568  10.889  0.0105 -0.2806  0.3477
 2393DDP     C314357  25.897   7.010  11.455 -0.1315 -0.2760 -0.0593
 2393DDP     C414358  26.144   8.200  11.705 -0.0457  0.1710 -0.0417
 2394DDP     C114359   8.669  19.480   7.297 -0.0162 -0.0722  0.1134
 2394DDP     P114360   8.315  19.227   7.173  0.1445 -0.1510 -0.0892
 2394DDP     P214361   9.017  19.219   7.250  0.0822  0.0598  0.0218
 2394DDP     C214362   9.306  19.430   7.459 -0.1586 -0.0602  0.1912
 2394DDP     C314363   8.317  19.076   6.764 -0.1745 -0.0086  0.0505
 2394DDP     C414364   8.621  19.927   7.227 -0.2455  0.2080  0.1157
 2395DDP     C114365  22.718  29.891  11.121  0.2796 -0.0034  0.4058
 2395DDP     P114366  23.103  29.758  11.243  0.0667  0.4134  0.2184
 2395DDP     P214367  22.856  30.020  10.698 -0.0674  0.4030 -0.4516
 2395DDP     C214368  22.874  29.927  10.223  0.1206 -0.0872  0.0182
 2395DDP     C314369  23.488  29.892  11.343  0.0488 -0.3196  0.1112
 2395DDP     C414370  22.231  29.734  11.247 -0.0263  0.1940  0.0401
 2396DDP     C114371  13.848   5.051   0.144 -0.0978 -0.2492 -0.2749
 2396DDP     P114372  13.905   5.313   0.607 -0.0544 -0.0906 -0.3409
 2396DDP     P214373  14.067   4.591   0.109 -0.0740  0.1413  0.0846
 2396DDP     C214374  14.188   4.310  30.085  0.0973  0.1084  0.0223
 2396DDP     C314375  13.925   5.536   1.016  0.2613 -0.1406  0.0022
 2396DDP     C414376  13.547   5.027  30.190  0.1267  0.0730  0.1673
 2397DDP     C114377  14.593   3.028  10.465 -0.0721  0.0462 -0.0143
 2397DDP     P114378  14.596   2.661  10.806 -0.0668  0.0926 -0.3115
 2397DDP     P214379  14.650   2.960   9.932  0.2109  0.1468 -0.0131
 2397DDP     C214380  14.801   2.940   9.505  0.1314  0.2786  0.3303
 2397DDP     C314381  14.216   2.403  10.955  0.1737  0.0408  0.2662
 2397DDP     C414382  14.415   3.472  10.610 -0.0000  0.0854 -0.0453
 2398DDP     C114383  22.905  15.806   4.121 -0.1153  0.0358 -0.4993
 2398DDP     P114384  22.714  15.426   4.300  0.1754  0.2368 -0.2017
 2398DDP     P214385  22.840  16.003   3.724 -0.0775  0.1313  0.1074
 2398DDP     C214386  22.941  16.178   3.384 -0.0870  0.2366  0.1580
 2398DDP     C314387  22.852  15.010   4.281 -0.0087 -0.0211 -0.0151
 2398DDP     C414388  23.154  15.825   4.377 -0.0842  0.5883 -0.1214
 2399DDP     C114389  23.939  11.117   7.213  0.2184 -0.0437  0.2378
 2399DDP     P114390  24.182  11.229   7.569  0.0572 -0.0038  0.3434
 2399DDP     P214391  23.965  10.784   6.978 -0.0332  0.3683  0.2497
 2399DDP     C214392  23.533  10.407   7.010  0.0441  0.2740  0.3812
 2399DDP     C314393  24.421  11.252   8.046  0.3489  0.2870  0.2009
 2399DDP     C414394  23.671  11.390   7.043 -0.1748 -0.0175 -0.0665
 2400DDP     C114395  18.690  19.255  15.787 -0.2573  0.1051  0.0057
 2400DDP     P114396  18.864  19.036  16.219  0.2058 -0.0292 -0.0517
 2400DDP     P214397  18.235  19.142  15.663 -0.1691 -0.0189 -0.0071
 2400DDP     C214398  17.918  19.001  15.922 -0.0449 -0.0834 -0.1149
 2400DDP     C314399  19.149  18.808  16.481  0.0055 -0.1206 -0.1989
 2400DDP     C414400  18.831  19.714  15.626 -0.0857  0.0570  0.0460
 2401DDP     C114401   5.005   2.466   9.734 -0.2169  0.0892  0.2589
 2401DDP     P114402   5.503   2.364   9.656 -0.2223 -0.2282 -0.0862
 2401DDP     P214403   4.784   2.581  10.042  0.0975 -0.0309  0.0178
 2401DDP     C214404   4.697   3.004  10.262 -0.0288 -0.1165  0.1338
 2401DDP     C314405   5.863   2.383   9.610  0.2981 -0.1012  0.0990
 2401DDP     C414406   4.719   2.366   9.321 -0.0219 -0.0328 -0.0497
 2402DDP     C114407  23.117  22.440  15.253  0.1061  0.0975 -0.0055
 2402DDP     P114408  23.075  22.148  15.567  0.2781  0.4094  0.0134
 2402DDP     P214409  23.134  22.755  15.275 -0.0747  0.2373 -0.2630
 2402DDP     C214410  22.663  22.968  15.348  0.2107  0.0652  0.1035
 2402DDP     C314411  23.086  21.869  15.914  0.1574  0.1718  0.1441
 2402DDP     C414412  23.170  22.288  14.764  0.2989 -0.0634  0.1120
 2403DDP     C114413  20.732   1.246  29.306 -0.1677 -0.0169 -0.1157
 2403DDP     P114414  20.660   0.886  29.149  0.0284 -0.0027 -0.0843
 2403DDP     P214415  20.593   1.527  29.072 -0.1965 -0.2412 -0.1407
 2403DDP     C214416  20.402   1.704  28.765  0.0101  0.0124  0.1956
 2403DDP     C314417  20.387   0.591  28.948  0.2095  0.0555  0.0974
 2403DDP     C414418  21.095   1.337  29.599  0.0855  0.0866 -0.1762
 2404DDP     C114419   5.924  29.107  14.139 -0.0331  0.1789  0.3684
 2404DDP     P114420   5.849  29.087  13.794  0.2241 -0.1380  0.2970
 2404DDP     P214421   5.890  29.396  14.398  0.1558 -0.0845  0.2272
 2404DDP     C214422   5.723  29.655  14.620  0.0901  0.0760  0.1402
 2404DDP     C314423   5.642  28.903  13.499  0.1463  0.0863  0.0319
 2404DDP     C414424   6.033  28.878  14.526 -0.2362 -0.0920 -0.0412
 2405DDP     C114425  24.935  24.443  10.773 -0.1269  0.0094  0.2344
 2405DDP     P114426  24.835  24.742  10.395 -0.0032 -0.2895  0.1744
 2405DDP     P214427  25.221  24.089  10.645  0.4287 -0.1751 -0.1894
 2405DDP     C214428  25.487  23.775  10.763  0.4181 -0.2339 -0.0398
 2405DDP     C314429  24.496  25.083  10.280 -0.0866  0.0402 -0.1176
 2405DDP     C414430  24.726  24.430  11.203 -0.1262 -0.0564  0.4072
 2406DDP     C114431  20.203  29.563  28.238  0.0047 -0.1527 -0.2872
 2406DDP     P114432  20.471  29.856  28.429  0.1872 -0.0034  0.0794
 2406DDP     P214433  19.952  29.533  28.544  0.1988  0.0634  0.0286
 2406DDP     C214434  19.593  29.685  28.838 -0.0496  0.0862 -0.2245
 2406DDP     C314435  20.430  30.277  28.237 -0.3727 -0.1613 -0.2973
 2406DDP     C414436  20.290  29.284  27.838  0.3925 -0.0097  0.0447
 2407DDP     C114437   6.251  17.195  27.342  0.0312 -0.0237 -0.0847
 2407DDP     P114438   6.418  16.820  27.002 -0.1003 -0.3039  0.0381
 2407DDP     P214439   5.973  17.057  27.636 -0.3072  0.0177  0.3048
 2407DDP     C214440   5.814  17.105  28.077  0.0483 -0.0899  0.3333
 2407DDP     C314441   6.498  16.742  26.475 -0.2253  0.0104 -0.4793
 2407DDP     C414442   6.469  17.565  27.328  0.1620 -0.3666 -0.1082
 2408DDP     C114443  18.872  20.203  11.362  0.0212  0.2893  0.1321
 2408DDP     P114444  18.725  19.828  11.631  0.3163  0.0396 -0.0137
 2408DDP     P214445  18.491  20.469  11.232 -0.0692 -0.0740 -0.2110
 2408DDP     C214446  18.139  20.569  11.420  0.0383  0.1870  0.2069
 2408DDP     C314447  18.826  19.414  11.779 -0.2464  0.0429  0.1167
 2408DDP     C414448  19.227  20.375  11.372  0.0522  0.0457 -0.1795
 2409DDP     C114449  20.277   1.991  21.307 -0.2003  0.0002  0.1242
 2409DDP     P114450  20.653   1.913  21.292 -0.0548  0.0133 -0.1366
 2409DDP     P214451  20.247   2.366  21.542 -0.1669 -0.1793  0.3343
 2409DDP     C214452  19.932   2.550  21.646  0.4518  0.1153 -0.1756
 2409DDP     C314453  21.117   2.023  21.546  0.1952 -0.0572  0.1103
 2409DDP     C414454  20.065   1.762  21.093  0.0763 -0.1309  0.2680
 2410DDP     C114455  24.788  10.713   2.750 -0.0662  0.0588 -0.0134
 2410DDP     P114456  24.994  10.464   3.026 -0.1539 -0.1779 -0.3574
 2410DDP     P214457  24.933  10.969   2.417  0.0303 -0.0881 -0.3527
 2410DDP     C214458  25.237  10.871   2.099 -0.3939  0.1445  0.1778
 2410DDP     C314459  25.339  10.479   3.428  0.1799  0.2870  0.0647
 2410DDP     C414460  24.418  10.742   2.572 -0.0358  0.1590 -0.1099
 2411DDP     C114461  27.271  22.031  23.076  0.3436 -0.3236  0.0613
 2411DDP     P114462  27.144  22.083  22.690  0.0415 -0.0514 -0.0011
 2411DDP     P214463  27.322  22.334  23.409 -0.2453 -0.1238 -0.1485
 2411DDP     C214464  26.992  22.589  23.749  0.0268 -0.1397  0.0384
 2411DDP     C314465  26.945  21.791  22.533 -0.0692 -0.2895 -0.4081
 2411DDP     C414466  27.428  21.521  23.097 -0.2772  0.0527  0.0492
 2412DDP     C114467  20.865  28.990  11.470 -0.1479 -0.0671  0.0741
 2412DDP     P114468  20.901  28.658  11.154  0.0371  0.1274 -0.3247
 2412DDP     P214469  20.973  29.377  11.660  0.1864  0.1515 -0.1055
 2412DDP     C214470  21.215  29.606  11.948 -0.2732  0.0357  0.0109
 2412DDP     C314471  21.071  28.320  10.878  0.0420  0.0878 -0.1362
 2412DDP     C414472  20.686  28.664  11.706 -0.0528  0.0118 -0.0345
 2413DDP     C114473  26.606  17.359  24.796 -0.2390  0.0542 -0.2249
 2413DDP     P114474  26.317  17.088  24.823  0.0785  0.0992 -0.0408
 2413DDP     P214475  26.879  17.436  25.146 -0.0661 -0.0239  0.0026
 2413DDP     C214476  26.795  17.769  25.370  0.0995  0.2775 -0.1380
 2413DDP     C314477  25.954  17.138  25.116 -0.0643  0.0884  0.2674
 2413DDP     C414478  26.565  17.475  24.397  0.4380 -0.3277  0.0449
 2414DDP     C114479  23.799   0.641   9.303  0.0299 -0.2797  0.1356
 2414DDP     P114480  23.686   1.033   9.100 -0.0793  0.1712  0.2000
 2414DDP     P214481  23.791   0.514   9.722 -0.2906 -0.0935 -0.0154
 2414DDP     C214482  24.172   0.550   9.965  0.2299 -0.3920  0.0105
 2414DDP     C314483  23.646   1.494   9.123 -0.1103 -0.0180  0.0731
 2414DDP     C414484  24.091   0.308   8.975 -0.2449 -0.1234  0.0820
 2415DDP     C114485  18.525  14.538   3.703 -0.1105  0.0601 -0.1938
 2415DDP     P114486  18.578  14.577   4.160 -0.0914  0.2084  0.4114
 2415DDP     P214487  18.193  14.250   3.618  0.1239  0.1612 -0.0817
 2415DDP     C214488  18.256  13.926   3.652  0.1802 -0.2460 -0.0150
 2415DDP     C314489  18.578  14.413   4.460  0.0655 -0.0362 -0.0896
 2415DDP     C414490  18.602  14.777   3.285  0.0072 -0.0791 -0.1026
 2416DDP     C114491   8.618   3.006   9.418 -0.1047 -0.2342  0.3046
 2416DDP     P114492   8.561   3.179   8.962  0.0904 -0.1710 -0.1060
 2416DDP     P214493   8.665   3.253   9.873  0.1389 -0.2529 -0.0456
 2416DDP     C214494   8.442   3.614   9.956  0.3004  0.1314  0.2177
 2416DDP     C314495   8.561   3.059   8.573 -0.0478 -0.0238 -0.1187
 2416DDP     C414496   8.840   2.575   9.466  0.0923  0.1341  0.1819
 2417DDP     C114497   0.531  16.021   1.850  0.0645  0.1298  0.0940
 2417DDP     P114498   0.128  16.217   1.717  0.0641 -0.0861 -0.1246
 2417DDP     P214499   0.502  15.964   2.346 -0.2593 -0.1491 -0.1414
 2417DDP     C214500   0.454  16.247   2.699  0.1911  0.1916  0.3110
 2417DDP     C314501   0.063  16.405   1.408 -0.0831  0.0847 -0.2332
 2417DDP     C414502   0.900  15.999   1.478 -0.2964 -0.3191 -0.0880
 2418DDP     C114503  17.801  29.661   3.282 -0.2355  0.0733 -0.0527
 2418DDP     P114504  18.097  29.875   2.930 -0.1468 -0.5981  0.0932
 2418DDP     P214505  17.400  29.763   3.234 -0.0105 -0.1240 -0.0485
 2418DDP     C214506  17.087  29.618   2.922  0.1156  0.1499  0.0561
 2418DDP     C314507  18.418  29.704   2.635  0.1095  0.1084  0.0662
 2418DDP     C414508  18.095  29.409   3.620 -0.1542  0.1058 -0.0667
 2419DDP     C114509  11.443   9.151  28.004  0.3174  0.0336  0.1056
 2419DDP     P114510  11.389   9.529  28.266 -0.2621  0.2268  0.2482
 2419DDP     P214511  11.118   8.913  27.873 -0.2589 -0.0437 -0.0365
 2419DDP     C214512  11.052   8.622  27.619  0.4477 -0.2753 -0.0900
 2419DDP     C314513  11.257   9.934  28.100 -0.1628  0.0559 -0.1727
 2419DDP     C414514  11.839   8.989  28.044  0.0009  0.2502 -0.1365
 2420DDP     C114515   0.961  14.778  29.661  0.2138 -0.0515  0.2109
 2420DDP     P114516   0.531  14.928  29.681 -0.2442  0.1465 -0.3155
 2420DDP     P214517   1.143  14.808  30.123  0.0152  0.1453  0.1084
 2420DDP     C214518   1.395  15.195  30.264  0.0145  0.1601  0.2439
 2420DDP     C314519   0.174  14.857  29.870  0.1990  0.2029 -0.2603
 2420DDP     C414520   1.120  14.825  29.158 -0.2873  0.0212 -0.0598
 2421DDP     C114521  10.561  21.632  13.452 -0.0278  0.2944  0.1257
 2421DDP     P114522  10.701  21.915  13.104 -0.2077  0.1241 -0.1430
 2421DDP     P214523  10.546  21.957  13.731  0.4171 -0.1716  0.1004
 2421DDP     C214524  10.560  22.222  14.068 -0.2862  0.0642  0.3537
 2421DDP     C314525  10.771  22.332  12.853 -0.0691  0.2946  0.0510
 2421DDP     C414526  10.347  21.229  13.480 -0.2256 -0.2829 -0.2218
 2422DDP     C114527   7.673  28.970  15.695  0.0592  0.2228 -0.1291
 2422DDP     P114528   7.819  29.175  16.021  0.0267  0.2506 -0.0623
 2422DDP     P214529   7.308  28.879  15.531 -0.1642  0.1705  0.0652
 2422DDP     C214530   7.030  28.583  15.360  0.1718  0.1957  0.1307
 2422DDP     C314531   7.648  29.443  16.330 -0.0986  0.2499  0.1558
 2422DDP     C414532   8.008  28.719  15.554 -0.1160 -0.1966 -0.0762
 2423DDP     C114533  26.945   1.067   7.798 -0.0671 -0.3709 -0.0871
 2423DDP     P114534  27.420   0.898   7.885  0.1910 -0.1205  0.2198
 2423DDP     P214535  26.540   1.044   7.987 -0.0139  0.3978 -0.2026
 2423DDP     C214536  26.247   1.004   7.824 -0.2493 -0.1180 -0.4088
 2423DDP     C314537  27.796   0.523   7.826 -0.3627  0.3593 -0.2036
 2423DDP     C414538  26.962   1.486   7.605  0.0855 -0.1457 -0.0191
 2424DDP     C114539  10.686  26.180  16.584 -0.2329  0.4113  0.1212
 2424DDP     P114540  11.094  26.473  16.456 -0.0662 -0.2251  0.2264
 2424DDP     P214541  10.409  26.219  16.304 -0.0901 -0.3185 -0.0069
 2424DDP     C214542  10.226  26.279  15.816  0.1129  0.0356 -0.1390
 2424DDP     C314543  11.514  26.649  16.412 -0.3518 -0.0421  0.0030
 2424DDP     C414544  10.622  26.026  16.947  0.3325  0.3017  0.0883
 2425DDP     C114545  16.350  12.404   6.901 -0.1396  0.0901  0.0919
 2425DDP     P114546  16.656  12.328   7.214 -0.0231  0.4162  0.0303
 2425DDP     P214547  16.473  12.728   6.680 -0.1435 -0.1528  0.1029
 2425DDP     C214548  16.822  13.030   6.498  0.1735 -0.0002  0.4192
 2425DDP     C314549  16.800  11.982   7.474 -0.0265  0.3549 -0.0605
 2425DDP     C414550  15.922  12.267   6.878  0.2597 -0.0128 -0.0802
 2426DDP     C114551  10.502   6.237  14.342 -0.3376 -0.0852  0.2425
 2426DDP     P114552  10.918   6.286  14.069  0.0767  0.2442 -0.1845
 2426DDP     P214553  10.349   6.520  14.666  0.1137 -0.0956  0.1382
 2426DDP     C214554  10.351   6.698  15.093  0.0244  0.1435 -0.1837
 2426DDP     C314555  11.227   5.930  13.995 -0.0860  0.0540 -0.0540
 2426DDP     C414556  10.453   5.757  14.447 -0.1222  0.0983  0.0424
 2427DDP     C114557  10.747   5.323  18.134  0.2840  0.0622  0.0518
 2427DDP     P114558  11.036   5.611  18.044 -0.1514 -0.1646  0.0522
 2427DDP     P214559  10.459   5.268  17.771  0.2997 -0.0039  0.2283
 2427DDP     C214560  10.323   4.774  17.835  0.0217  0.1492 -0.0903
 2427DDP     C314561  11.420   5.647  18.095  0.2125  0.2751  0.2699
 2427DDP     C414562  10.756   5.327  18.496 -0.0730  0.1162 -0.1130
 2428DDP     C114563   9.423  20.797  16.192  0.2589 -0.0967 -0.1283
 2428DDP     P114564   9.785  20.816  16.092 -0.1987  0.1986 -0.4321
 2428DDP     P214565   9.264  21.218  16.054  0.0182 -0.2821  0.4094
 2428DDP     C214566   9.004  21.493  16.354 -0.0322  0.2234  0.2944
 2428DDP     C314567   9.771  21.091  15.768  0.0397  0.0589  0.0301
 2428DDP     C414568   9.248  20.439  16.398  0.2380 -0.0019 -0.2411
 2429DDP     C114569  12.959   9.059  22.288  0.0506  0.2268  0.0974
 2429DDP     P114570  13.069   8.877  22.709  0.2952 -0.0145 -0.4273
 2429DDP     P214571  13.206   8.837  22.043 -0.1161 -0.1392  0.0830
 2429DDP     C214572  13.482   8.506  21.842 -0.5857  0.2276  0.1283
 2429DDP     C314573  13.207   8.991  23.018 -0.0231 -0.0964 -0.0202
 2429DDP     C414574  12.919   9.529  22.262 -0.0336 -0.0563  0.2769
 2430DDP     C114575  23.394  15.744  13.008  0.3894  0.0469  0.2381
 2430DDP     P114576  23.211  15.747  12.520  0.1823 -0.1369  0.2255
 2430DDP     P214577  23.149  15.472  13.301 -0.2518  0.1036  0.0122
 2430DDP     C214578  22.884  15.269  13.284  0.0114  0.0373 -0.0762
 2430DDP     C314579  22.926  15.696  12.337  0.2254  0.3492 -0.0909
 2430DDP     C414580  23.795  16.020  13.110  0.0839  0.0368  0.1529
 2431DDP     C114581  29.880   3.498   6.911  0.0676  0.3492 -0.0919
 2431DDP     P114582  29.744   3.801   6.773 -0.0753 -0.1903  0.3391
 2431DDP     P214583  30.296   3.598   6.889  0.3944  0.0479 -0.0814
 2431DDP     C214584   0.270   3.908   6.801  0.1365 -0.2991 -0.1369
 2431DDP     C314585  29.456   4.122   6.935  0.0909  0.0419 -0.0329
 2431DDP     C414586  29.722   3.075   6.891 -0.0651 -0.0524 -0.0172
 2432DDP     C114587  26.049  12.814  15.614 -0.1243 -0.1447 -0.0686
 2432DDP     P114588  25.718  12.802  15.971 -0.1185 -0.0484  0.1193
 2432DDP     P214589  26.271  12.520  15.735  0.2045 -0.1930 -0.1461
 2432DDP     C214590  26.185  12.187  15.998  0.1000  0.2604 -0.0556
 2432DDP     C314591  25.394  13.088  15.799  0.0449 -0.3544 -0.2035
 2432DDP     C414592  25.997  13.023  15.225  0.2390  0.2597 -0.1261
 2433DDP     C114593  17.431  22.646   1.222  0.3235 -0.0379 -0.0543
 2433DDP     P114594  17.529  22.306   1.230  0.2332  0.0494 -0.0943
 2433DDP     P214595  17.222  22.707   0.927  0.1250 -0.3605  0.2931
 2433DDP     C214596  17.095  22.526   0.496  0.2699  0.1726 -0.0858
 2433DDP     C314597  17.720  22.066   1.042  0.0119  0.0928 -0.1597
 2433DDP     C414598  17.544  22.918   1.663 -0.0036 -0.1504  0.1913
 2434DDP     C114599  26.721  10.218   8.464  0.0584 -0.3402 -0.0133
 2434DDP     P114600  27.018  10.482   8.158  0.1087 -0.2989  0.0596
 2434DDP     P214601  26.695   9.905   8.764  0.1218  0.0208  0.0075
 2434DDP     C214602  26.773   9.614   8.982 -0.4201 -0.2333  0.1040
 2434DDP     C314603  26.947  10.454   7.693  0.1944  0.0146 -0.1292
 2434DDP     C414604  26.475  10.599   8.629  0.1553  0.0283 -0.0227
 2435DDP     C114605   0.513   3.838  27.368 -0.1552 -0.1766  0.1583
 2435DDP     P114606   0.697   3.484  27.628 -0.0947  0.2084 -0.2697
 2435DDP     P214607   0.559   4.327  27.351  0.1141  0.0325 -0.2478
 2435DDP     C214608   0.325   4.616  27.044  0.0988  0.1392  0.2763
 2435DDP     C314609   0.738   3.386  28.114 -0.0263  0.0872 -0.0733
 2435DDP     C414610   0.248   3.655  26.989  0.0061  0.1767  0.0270
 2436DDP     C114611  29.935   4.133   7.095  0.2066 -0.0401  0.0994
 2436DDP     P114612  30.179   4.156   6.642  0.1166 -0.1972  0.1874
 2436DDP     P214613  30.242   3.972   7.377 -0.1134 -0.1119 -0.1837
 2436DDP     C214614   0.213   4.090   7.701  0.4949 -0.1893 -0.1606
 2436DDP     C314615  30.267   3.811   6.421  0.3034 -0.2106 -0.0607
 2436DDP     C414616  29.555   4.195   7.397  0.2315  0.0490  0.2648
 2437DDP     C114617   2.553  12.335   8.458  0.0510  0.0194  0.1666
 2437DDP     P114618   2.614  12.728   8.371  0.0163  0.1665 -0.1738
 2437DDP     P214619   2.664  12.279   8.902 -0.2976  0.0773 -0.1789
 2437DDP     C214620   3.015  12.361   9.115  0.2021 -0.1955  0.0854
 2437DDP     C314621   3.036  12.935   8.350  0.1205  0.3074 -0.1588
 2437DDP     C414622   2.508  12.076   8.241 -0.3936 -0.1357  0.0331
 2438DDP     C114623  16.394  23.158  16.227 -0.0730 -0.1235  0.0201
 2438DDP     P114624  16.660  23.474  16.354  0.3197 -0.0847 -0.2295
 2438DDP     P214625  16.403  22.650  16.202 -0.1553  0.0043  0.1188
 2438DDP     C214626  16.025  22.417  15.915 -0.2107  0.3446  0.0566
 2438DDP     C314627  16.927  23.858  16.215  0.2176 -0.0078 -0.3099
 2438DDP     C414628  15.988  23.303  16.479 -0.2392  0.1378 -0.1566
 2439DDP     C114629  20.728   1.862  26.659  0.0697 -0.0059  0.1390
 2439DDP     P114630  20.911   2.222  26.774 -0.0946  0.0383 -0.3757
 2439DDP     P214631  20.466   1.857  26.345 -0.0651 -0.3918 -0.0003
 2439DDP     C214632  20.411   2.158  25.962  0.2318  0.0223  0.0313
 2439DDP     C314633  21.190   2.475  27.132 -0.2201  0.0520  0.1153
 2439DDP     C414634  20.869   1.522  26.557 -0.0840 -0.0829 -0.0575
 2440DDP     C114635  25.524  14.952  18.700  0.0245  0.1514 -0.2230
 2440DDP     P114636  25.560  14.441  18.791 -0.3034  0.2105 -0.2503
 2440DDP     P214637  25.869  15.134  18.897 -0.2077 -0.1914 -0.0095
 2440DDP     C214638  25.740  15.280  19.266  0.0489  0.2448 -0.1503
 2440DDP     C314639  25.500  14.022  18.651  0.5071  0.2158  0.0268
 2440DDP     C414640  25.228  15.039  18.430 -0.0288  0.0561 -0.1371
 2441DDP     C114641   9.085  23.509   4.843 -0.2031  0.3225  0.0120
 2441DDP     P114642   9.312  23.504   4.488  0.1534 -0.2265 -0.2273
 2441DDP     P214643   8.797  23.757   5.062 -0.0268  0.1643  0.0846
 2441DDP     C214644   8.483  24.006   5.209  0.1617 -0.5637 -0.3017
 2441DDP     C314645   9.678  23.274   4.342  0.1535 -0.1532 -0.1764
 2441DDP     C414646   9.094  23.070   4.960 -0.3446  0.1346 -0.2707
 2442DDP     C114647  20.584  21.569  29.397  0.0362  0.0095 -0.2514
 2442DDP     P114648  20.800  21.264  29.109  0.0390  0.2141 -0.1159
 2442DDP     P214649  20.726  22.076  29.364 -0.1984  0.1485 -0.3449
 2442DDP     C214650  20.758  22.417  29.674  0.3164  0.1226 -0.1221
 2442DDP     C314651  21.255  21.044  28.946 -0.0397 -0.2127 -0.0823
 2442DDP     C414652  20.509  21.462  29.763 -0.1788  0.0375 -0.2562
 2443DDP     C114653  23.479  27.764  24.276 -0.0870  0.0838 -0.0455
 2443DDP     P114654  23.576  27.939  24.703 -0.1327  0.2091  0.0231
 2443DDP     P214655  23.736  28.105  24.161 -0.0829  0.2164 -0.2279
 2443DDP     C214656  23.953  28.348  23.932  0.1229 -0.0911 -0.0930
 2443DDP     C314657  23.892  27.667  25.057 -0.0060  0.4721  0.0479
 2443DDP     C414658  23.057  27.510  24.307  0.3365  0.0205 -0.0140
 2444DDP     C114659  15.375  11.940   1.160 -0.1464 -0.4213  0.1894
 2444DDP     P114660  15.282  12.218   0.916  0.0653  0.1581 -0.3507
 2444DDP     P214661  15.712  11.646   1.275  0.1530  0.0034 -0.0481
 2444DDP     C214662  16.158  11.572   1.248 -0.1318  0.0878  0.0300
 2444DDP     C314663  14.868  12.371   0.886 -0.2811 -0.3667  0.2637
 2444DDP     C414664  15.098  12.207   1.410  0.1639 -0.1757 -0.0805
 2445DDP     C114665  17.421  13.956   7.090  0.2250  0.0267 -0.1094
 2445DDP     P114666  17.880  13.863   7.160 -0.0386  0.3111  0.0751
 2445DDP     P214667  17.237  13.727   6.961 -0.0980  0.0484 -0.2135
 2445DDP     C214668  16.771  13.616   6.761  0.0952 -0.0446 -0.0880
 2445DDP     C314669  18.338  13.814   7.346 -0.2572 -0.1117  0.3084
 2445DDP     C414670  17.260  14.316   7.479 -0.1603 -0.2702  0.0680
 2446DDP     C114671   5.987  19.918  27.001  0.0594  0.0499 -0.0748
 2446DDP     P114672   6.402  19.879  27.032 -0.0638  0.2099 -0.0110
 2446DDP     P214673   5.586  19.891  27.375  0.1771 -0.1088 -0.0493
 2446DDP     C214674   5.219  19.827  27.598  0.0829  0.1041  0.1489
 2446DDP     C314675   6.775  19.897  27.233  0.3619  0.1746  0.3655
 2446DDP     C414676   5.577  20.173  26.951 -0.1453 -0.0697 -0.2063
 2447DDP     C114677  11.098  29.377   1.130  0.0225  0.4426  0.1891
 2447DDP     P114678  11.446  29.430   1.096 -0.0107 -0.0327 -0.0716
 2447DDP     P214679  11.051  28.917   1.130  0.3215  0.1264 -0.0905
 2447DDP     C214680  11.058  28.538   1.340 -0.0376  0.0159  0.1412
 2447DDP     C314681  11.702  29.747   0.984  0.0662  0.2140 -0.1820
 2447DDP     C414682  10.737  29.617   1.165  0.1305 -0.3612 -0.2294
 2448DDP     C114683   5.091   1.927  17.831 -0.0796  0.0232  0.1300
 2448DDP     P114684   5.039   1.506  18.131  0.1784 -0.0785  0.0614
 2448DDP     P214685   5.433   2.098  17.709 -0.0728 -0.0902  0.0827
 2448DDP     C214686   5.718   2.445  17.505 -0.1337  0.2113  0.0862
 2448DDP     C314687   5.254   1.130  18.142 -0.0626 -0.0959  0.0340
 2448DDP     C414688   4.874   2.143  17.694  0.2470 -0.1862  0.3331
 2449DDP     C114689   6.666  10.078   1.532  0.0838 -0.2449  0.1543
 2449DDP     P114690   6.765  10.006   2.018  0.1134  0.2374  0.2031
 2449DDP     P214691   6.249  10.055   1.423 -0.0039  0.2688 -0.0773
 2449DDP     C214692   5.876   9.714   1.578  0.0253  0.1702  0.0946
 2449DDP     C314693   6.631   9.895   2.412  0.2024 -0.2479  0.0243
 2449DDP     C414694   6.999  10.504   1.451  0.1603  0.2296  0.0276
 2450DDP     C114695  21.533  28.855  26.752  0.0540 -0.0196 -0.0184
 2450DDP     P114696  21.490  29.104  27.026 -0.2524 -0.1774  0.0109
 2450DDP     P214697  21.808  29.097  26.478 -0.3703 -0.0974 -0.3479
 2450DDP     C214698  22.273  29.158  26.282  0.1615 -0.0633  0.2266
 2450DDP     C314699  21.424  29.332  27.372 -0.0946  0.0859 -0.0518
 2450DDP     C414700  21.274  28.449  26.813 -0.1653 -0.0184 -0.2764
 2451DDP     C114701  28.273   0.107   4.614 -0.2041  0.0474 -0.3003
 2451DDP     P114702  28.347   0.597   4.532  0.0805 -0.0474 -0.0951
 2451DDP     P214703  28.183  30.241   5.006  0.0882  0.0174 -0.0034
 2451DDP     C214704  28.040  29.811   4.958  0.0199 -0.0146 -0.1474
 2451DDP     C314705  28.646   0.895   4.541  0.1102 -0.0674  0.0040
 2451DDP     C414706  28.509  30.016   4.484 -0.0220  0.2536  0.0711
 2452DDP     C114707   3.969   2.301  23.421  0.4171  0.3047  0.0385
 2452DDP     P114708   3.910   2.554  23.114  0.0526 -0.0715 -0.0979
 2452DDP     P214709   4.096   2.524  23.717 -0.1095 -0.2815  0.3998
 2452DDP     C214710   4.259   2.964  23.754  0.0047  0.0564 -0.0236
 2452DDP     C314711   3.776   2.714  22.777 -0.0100 -0.1004  0.0270
 2452DDP     C414712   3.991   1.933  23.596 -0.1601  0.1196  0.0511
 2453DDP     C114713   8.971   6.410  18.134  0.4043  0.1170 -0.2166
 2453DDP     P114714   8.875   6.708  18.376 -0.2060 -0.1091  0.1888
 2453DDP     P214715   9.157   6.131  18.322 -0.0899  0.0119 -0.1009
 2453DDP     C214716   9.429   5.922  17.982 -0.0101 -0.0959 -0.1724
 2453DDP     C314717   9.189   7.051  18.553 -0.1966  0.0177  0.0167
 2453DDP     C414718   8.480   6.376  17.980 -0.0105  0.0774 -0.0030
 2454DDP     C114719   2.548   6.386   4.293  0.2349 -0.0201  0.2969
 2454DDP     P114720   2.694   5.887   4.314  0.0421  0.0647 -0.1204
 2454DDP     P214721   2.537   6.565   4.597  0.1332  0.0950  0.2687
 2454DDP     C214722   2.651   6.593   4.933 -0.2107 -0.4479  0.1230
 2454DDP     C314723   3.108   5.803   4.456  0.2073  0.1752  0.1215
 2454DDP     C414724   2.362   6.608   3.876  0.1111 -0.2364  0.3314
 2455DDP     C114725   3.431  24.398  11.824 -0.1969 -0.1201 -0.2843
 2455DDP     P114726   3.212  24.764  11.879 -0.5665 -0.0813  0.1615
 2455DDP     P214727   3.476  24.072  12.148 -0.1906 -0.3258 -0.1729
 2455DDP     C214728   3.604  24.010  12.502  0.0785  0.3132 -0.0528
 2455DDP     C314729   2.929  25.097  11.729 -0.1262  0.0402 -0.1266
 2455DDP     C414730   3.628  24.231  11.520  0.0830  0.1318  0.3562
 2456DDP     C114731  26.747  19.368   0.910 -0.2629  0.1382  0.1347
 2456DDP     P114732  26.732  19.324   0.544 -0.2147 -0.0258 -0.1101
 2456DDP     P214733  26.407  19.697   1.053 -0.0590  0.1864  0.0617
 2456DDP     C214734  26.014  19.577   1.307 -0.2348  0.1123 -0.1475
 2456DDP     C314735  26.856  19.075   0.190  0.1430 -0.3296  0.0165
 2456DDP     C414736  26.939  18.960   1.049 -0.0530 -0.1736  0.1465
 2457DDP     C114737  10.034  26.470  11.725  0.0239 -0.2070 -0.0806
 2457DDP     P114738   9.866  26.883  11.901 -0.0032 -0.5976  0.2371
 2457DDP     P214739  10.215  26.467  11.326 -0.1705 -0.1897  0.0972
 2457DDP     C214740  10.001  26.315  10.980 -0.1218  0.2050 -0.0531
 2457DDP     C314741   9.731  27.388  11.933 -0.3885  0.1080  0.0576
 2457DDP     C414742   9.749  26.149  11.904 -0.0228 -0.0548  0.2028
 2458DDP     C114743   2.917  13.381  20.092 -0.0414 -0.2461  0.2522
 2458DDP     P114744   2.512  13.545  20.211  0.0842  0.1446  0.2579
 2458DDP     P214745   3.262  13.289  20.420 -0.2255 -0.3269  0.0945
 2458DDP     C214746   3.663  13.349  20.587 -0.2649  0.1823 -0.0975
 2458DDP     C314747   2.282  13.752  20.502  0.1689  0.2004 -0.3799
 2458DDP     C414748   2.948  13.509  19.653  0.1138 -0.0509 -0.1702
 2459DDP     C114749  12.349  17.484   4.705 -0.0626 -0.1961 -0.2156
 2459DDP     P114750  11.963  17.506   4.941  0.1235  0.3164  0.0644
 2459DDP     P214751  12.666  17.656   4.606 -0.0974  0.0489 -0.0492
 2459DDP     C214752  12.989  17.704   4.917  0.1802 -0.1383  0.0351
 2459DDP     C314753  11.598  17.519   5.211 -0.0237 -0.3340 -0.0681
 2459DDP     C414754  12.245  17.083   4.522 -0.4759  0.2942  0.0388
 2460DDP     C114755  18.624  12.951  14.851 -0.2469 -0.0353 -0.1095
 2460DDP     P114756  18.733  12.603  14.713  0.0272  0.2218 -0.3805
 2460DDP     P214757  18.442  12.827  15.266 -0.0389 -0.0204  0.1400
 2460DDP     C214758  18.394  12.752  15.772 -0.1503  0.0195  0.1351
 2460DDP     C314759  19.010  12.420  14.468  0.2326  0.0202  0.2076
 2460DDP     C414760  18.572  13.412  14.727 -0.3316 -0.1939 -0.0193
 2461DDP     C114761  21.360  21.540  12.458  0.0006  0.1310 -0.0231
 2461DDP     P114762  21.793  21.731  12.520  0.0340 -0.0359 -0.0453
 2461DDP     P214763  21.051  21.120  12.735 -0.0427  0.1082 -0.0853
 2461DDP     C214764  20.770  21.194  13.086  0.1968 -0.1785 -0.2698
 2461DDP     C314765  22.052  22.005  12.653 -0.1949  0.0063  0.0103
 2461DDP     C414766  21.048  21.840  12.238  0.1223  0.0359  0.0712
 2462DDP     C114767   0.741   8.548  17.830 -0.0833  0.1943  0.0638
 2462DDP     P114768   0.683   9.017  17.751  0.2008 -0.0055  0.0592
 2462DDP     P214769   1.079   8.254  17.763  0.1619 -0.0726  0.6538
 2462DDP     C214770   1.461   8.077  17.695 -0.0201  0.0866 -0.0880
 2462DDP     C314771   0.357   9.254  17.675 -0.4188 -0.2436  0.0514
 2462DDP     C414772   0.437   8.309  17.861 -0.0369 -0.2029 -0.1801
 2463DDP     C114773  15.610   3.291  11.120 -0.2644  0.2036  0.0062
 2463DDP     P114774  15.360   3.068  10.831  0.0243  0.1144 -0.1028
 2463DDP     P214775  15.627   3.362  11.526 -0.1307  0.3156  0.0570
 2463DDP     C214776  15.627   3.170  11.929  0.1109  0.2744 -0.2167
 2463DDP     C314777  14.982   3.231  10.675  0.2362  0.0218  0.1355
 2463DDP     C414778  15.746   3.699  10.881  0.0253  0.0752  0.0723
 2464DDP     C114779  17.010  25.454  20.161  0.2203  0.2954 -0.0607
 2464DDP     P114780  16.905  25.806  19.905 -0.1339 -0.0331 -0.0437
 2464DDP     P214781  16.692  25.138  20.247  0.3503  0.0348 -0.0167
 2464DDP     C214782  16.571  25.101  20.701  0.1403 -0.0907  0.2059
 2464DDP     C314783  16.549  26.027  19.572  0.1053  0.0568  0.1218
 2464DDP     C414784  17.428  25.248  20.296  0.1222  0.1016 -0.0192
 2465DDP     C114785   4.628  11.908  28.839 -0.0815 -0.0902 -0.0472
 2465DDP     P114786   4.631  12.267  28.606  0.2312  0.1252  0.0622
 2465DDP     P214787   4.626  12.008  29.339  0.0188 -0.0840  0.0241
 2465DDP     C214788   4.486  12.029  29.740 -0.3748  0.1291 -0.1344
 2465DDP     C314789   4.378  12.621  28.731 -0.1851 -0.0369 -0.2030
 2465DDP     C414790   4.442  11.603  28.731  0.3339  0.3222 -0.2167
 2466DDP     C114791  23.980  21.028   2.564  0.2994 -0.0292  0.0705
 2466DDP     P114792  23.802  21.296   2.310  0.1134 -0.1255  0.1876
 2466DDP     P214793  24.195  20.625   2.360  0.2384  0.1567  0.3320
 2466DDP     C214794  24.288  20.614   1.968  0.1068  0.0358  0.0638
 2466DDP     C314795  23.785  21.439   1.952 -0.1266  0.0994  0.0516
 2466DDP     C414796  23.998  20.945   3.061  0.2110  0.0992  0.4504
 2467DDP     C114797   0.823  14.121  15.593 -0.0254  0.1613 -0.2723
 2467DDP     P114798   1.147  14.380  15.360  0.1267  0.2526 -0.1139
 2467DDP     P214799   0.947  13.874  15.845 -0.1465  0.0633  0.1200
 2467DDP     C214800   1.365  13.821  16.009  0.0589  0.1219  0.2610
 2467DDP     C314801   1.545  14.207  15.139  0.0605  0.0474  0.1670
 2467DDP     C414802   0.304  14.160  15.534  0.0810  0.0150  0.0740
 2468DDP     C114803  14.909  17.121  22.562  0.0316  0.0262 -0.1049
 2468DDP     P114804  15.152  16.743  22.664 -0.0522  0.2079  0.2085
 2468DDP     P214805  15.135  17.430  22.592  0.0886  0.1064  0.1788
 2468DDP     C214806  15.035  17.850  22.691  0.0732 -0.2574  0.1573
 2468DDP     C314807  15.127  16.617  23.090  0.0738  0.2284  0.0436
 2468DDP     C414808  14.438  17.198  22.422  0.2367 -0.0477 -0.3202
 2469DDP     C114809   1.612   7.262  17.890  0.2298 -0.0121  0.2262
 2469DDP     P114810   1.991   7.441  17.858  0.2569 -0.0956  0.0352
 2469DDP     P214811   1.546   6.768  17.976  0.3450  0.0545  0.3319
 2469DDP     C214812   1.376   6.435  18.131  0.0429  0.0724 -0.0311
 2469DDP     C314813   2.250   7.467  17.548 -0.1796  0.2880  0.1160
 2469DDP     C414814   1.274   7.539  17.932  0.0873  0.0983  0.2767
 2470DDP     C114815  13.023  12.671  11.684 -0.1091  0.1199  0.0522
 2470DDP     P114816  13.401  12.953  11.730 -0.0899 -0.0978  0.1694
 2470DDP     P214817  12.820  12.836  11.334 -0.0501 -0.2890  0.3708
 2470DDP     C214818  12.501  13.041  11.100 -0.2425 -0.1238 -0.0779
 2470DDP     C314819  13.495  13.417  11.938 -0.1687  0.1131 -0.1064
 2470DDP     C414820  13.112  12.247  11.795 -0.3431  0.0456  0.1812
 2471DDP     C114821   8.956  21.989  19.366 -0.1553 -0.2123 -0.0086
 2471DDP     P114822   8.585  22.085  19.700  0.0742  0.0436  0.1317
 2471DDP     P214823   8.857  21.977  18.880 -0.3102  0.2298 -0.3706
 2471DDP     C214824   8.864  22.296  18.523  0.0596 -0.1064  0.3146
 2471DDP     C314825   8.221  22.358  19.676 -0.1315 -0.2151  0.1501
 2471DDP     C414826   9.336  21.711  19.524  0.0763 -0.0612  0.2162
 2472DDP     C114827  22.846   1.636   5.477 -0.1224 -0.0903 -0.0127
 2472DDP     P114828  22.608   1.334   5.190  0.2554 -0.0744 -0.1093
 2472DDP     P214829  23.248   1.634   5.527  0.0742 -0.0468  0.3720
 2472DDP     C214830  23.400   1.287   5.489  0.0788  0.0286 -0.0291
 2472DDP     C314831  22.416   0.939   5.012  0.3382  0.0109 -0.0635
 2472DDP     C414832  22.534   1.941   5.357  0.2347  0.2310 -0.0817
 2473DDP     C114833   1.577  22.165  17.484  0.2281  0.0674  0.0397
 2473DDP     P114834   1.131  22.179  17.474  0.2124  0.1375 -0.1156
 2473DDP     P214835   1.839  22.217  17.803  0.2888 -0.0294 -0.1292
 2473DDP     C214836   2.253  22.002  18.049 -0.0502  0.0240 -0.1717
 2473DDP     C314837   0.967  21.806  17.685 -0.1073 -0.0905  0.0803
 2473DDP     C414838   1.823  22.094  17.111  0.0293 -0.1964  0.1863
 2474DDP     C114839  10.601   8.228  13.309 -0.0915 -0.2290 -0.1680
 2474DDP     P114840  11.162   8.392  13.376  0.2026 -0.0171 -0.2086
 2474DDP     P214841  10.198   8.419  13.398 -0.2612 -0.0220 -0.1047
 2474DDP     C214842   9.736   8.386  13.252 -0.0090  0.0835  0.2742
 2474DDP     C314843  11.523   8.581  13.070  0.1688  0.0402 -0.0532
 2474DDP     C414844  10.534   8.063  12.907 -0.0981 -0.4805  0.1705
 2475DDP     C114845   8.247   7.485  14.503 -0.5534 -0.1729  0.0536
 2475DDP     P114846   8.369   7.064  14.556 -0.2443 -0.3300 -0.0686
 2475DDP     P214847   8.347   7.727  14.090 -0.0102 -0.1723 -0.3771
 2475DDP     C214848   8.548   8.158  13.988  0.1122  0.0314  0.1569
 2475DDP     C314849   8.180   6.772  14.884  0.2116  0.4201  0.2296
 2475DDP     C414850   7.899   7.761  14.500 -0.3250  0.0782 -0.1350
 2476DDP     C114851  18.692  14.962  15.923 -0.0173 -0.0532  0.3913
 2476DDP     P114852  18.867  15.362  16.197 -0.1403  0.2839  0.0730
 2476DDP     P214853  18.264  14.665  15.832 -0.0784 -0.0351  0.0646
 2476DDP     C214854  17.847  14.570  15.620  0.1683 -0.2188  0.2249
 2476DDP     C314855  18.944  15.850  16.103  0.0520 -0.1685  0.0579
 2476DDP     C414856  19.018  14.719  15.780  0.0793 -0.1633  0.0556
 2477DDP     C114857  27.592  17.371   5.405  0.2428  0.0568  0.2395
 2477DDP     P114858  27.195  17.443   5.044  0.3945  0.1135  0.1045
 2477DDP     P214859  27.456  17.192   5.799 -0.0654  0.0863  0.1238
 2477DDP     C214860  27.075  17.141   6.073  0.2875  0.2388 -0.0280
 2477DDP     C314861  26.836  17.298   4.781  0.0424 -0.1943  0.2328
 2477DDP     C414862  28.082  17.411   5.230 -0.0377 -0.2663 -0.0776
 2478DDP     C114863   0.494   0.272   4.728  0.0040 -0.0202  0.1818
 2478DDP     P114864   0.607   0.133   5.210 -0.1855 -0.1437 -0.0058
 2478DDP     P214865   0.100   0.206   4.549  0.1548  0.0886  0.1271
 2478DDP     C214866  30.071   0.320   4.310 -0.2943 -0.2129  0.3087
 2478DDP     C314867   0.418   0.042   5.585  0.0007  0.1484 -0.1245
 2478DDP     C414868   0.743   0.198   4.329 -0.4269 -0.1361 -0.1590
 2479DDP     C114869  19.850   3.909  17.326 -0.1749  0.1160  0.0366
 2479DDP     P114870  19.840   4.257  16.925 -0.0053  0.1519  0.0405
 2479DDP     P214871  19.665   3.876  17.727 -0.2100  0.0682 -0.0423
 2479DDP     C214872  19.580   4.115  18.101  0.0116 -0.4365  0.0189
 2479DDP     C314873  20.149   4.383  16.713 -0.0418  0.2063 -0.0036
 2479DDP     C414874  20.169   3.623  17.240 -0.0324  0.1253  0.0549
 2480DDP     C114875  13.605  25.724  15.636 -0.1006 -0.0412  0.1203
 2480DDP     P114876  13.602  26.159  15.943  0.1288  0.0017  0.0168
 2480DDP     P214877  13.938  25.469  15.801 -0.0618 -0.1651 -0.0697
 2480DDP     C214878  14.261  25.162  15.668 -0.1299 -0.0995  0.0300
 2480DDP     C314879  13.691  26.608  15.940  0.3635 -0.1177  0.2944
 2480DDP     C414880  13.455  25.681  15.180  0.1208  0.0795 -0.0039
 2481DDP     C114881   0.069  12.081  10.968  0.0549 -0.3661  0.1681
 2481DDP     P114882  30.259  12.243  10.588  0.0817 -0.1500  0.1292
 2481DDP     P214883  30.087  11.775  11.266 -0.4176 -0.1285 -0.0576
 2481DDP     C214884  30.110  11.423  11.563  0.1004  0.4797  0.0488
 2481DDP     C314885   0.126  12.416  10.216 -0.0645 -0.2260  0.0153
 2481DDP     C414886   0.504  12.226  11.123  0.1802  0.1370 -0.2398
 2482DDP     C114887   6.390   6.990   9.839 -0.3055  0.2607  0.1317
 2482DDP     P114888   6.218   6.848   9.462  0.0415 -0.2033 -0.1347
 2482DDP     P214889   6.653   6.712   9.961 -0.0473 -0.0615 -0.1073
 2482DDP     C214890   6.711   6.194  10.011 -0.0993 -0.2555 -0.0003
 2482DDP     C314891   5.793   7.071   9.325  0.1300  0.1068  0.0174
 2482DDP     C414892   6.209   7.270  10.108 -0.1362  0.0578 -0.1215
 2483DDP     C114893  21.707  13.216  27.151  0.0751 -0.1350 -0.0813
 2483DDP     P114894  21.606  12.996  26.764 -0.1538 -0.4331  0.0019
 2483DDP     P214895  21.687  13.661  27.092  0.3521 -0.1051  0.0004
 2483DDP     C214896  21.543  14.023  26.851 -0.1426 -0.3104  0.0791
 2483DDP     C314897  21.422  12.992  26.423  0.1162  0.2027 -0.2818
 2483DDP     C414898  21.886  13.004  27.507  0.4790  0.0521 -0.0027
 2484DDP     C114899  11.542  21.710   5.471 -0.0355 -0.3631  0.0322
 2484DDP     P114900  11.576  21.710   5.948  0.0434 -0.1351  0.1883
 2484DDP     P214901  11.916  21.860   5.267  0.1646 -0.0240  0.1872
 2484DDP     C214902  12.050  21.956   4.894 -0.0323 -0.1051  0.0151
 2484DDP     C314903  11.599  21.550   6.365  0.3235 -0.3122  0.3354
 2484DDP     C414904  11.251  21.360   5.448 -0.0005  0.0776  0.3180
 2485DDP     C114905  14.031   7.538   0.898  0.3092 -0.1820 -0.3812
 2485DDP     P114906  14.135   7.409   1.381 -0.1463  0.4392 -0.0469
 2485DDP     P214907  14.221   7.345   0.528  0.1771 -0.0689 -0.4629
 2485DDP     C214908  14.588   7.366   0.351  0.0047  0.1789  0.2233
 2485DDP     C314909  14.168   7.037   1.710  0.0297  0.0367  0.2084
 2485DDP     C414910  14.004   7.956   0.938 -0.2275  0.1817 -0.0832
 2486DDP     C114911   3.374  18.718  16.240 -0.1806 -0.0773 -0.2595
 2486DDP     P114912   3.650  18.528  16.057 -0.1062 -0.1213  0.0828
 2486DDP     P214913   3.098  18.958  16.076  0.3252 -0.1867  0.0528
 2486DDP     C214914   2.857  19.099  15.749 -0.0281 -0.1199  0.0013
 2486DDP     C314915   3.900  18.231  15.875 -0.0298  0.2366 -0.3175
 2486DDP     C414916   3.369  18.545  16.656  0.0663 -0.0624  0.0465
 2487DDP     C114917   6.385  27.020  27.825 -0.1379  0.1349  0.1501
 2487DDP     P114918   6.127  27.008  28.060 -0.3005  0.1356 -0.2735
 2487DDP     P214919   6.729  27.290  27.743 -0.2170 -0.0888 -0.2837
 2487DDP     C214920   6.719  27.743  27.689  0.2910  0.0440 -0.0354
 2487DDP     C314921   5.997  26.723  28.405 -0.0201 -0.1526  0.0044
 2487DDP     C414922   6.321  26.652  27.587  0.0237 -0.1314  0.0313
 2488DDP     C114923  24.314   1.597  18.475 -0.0491  0.0829  0.0680
 2488DDP     P114924  24.394   1.995  18.403 -0.1345  0.0306  0.1269
 2488DDP     P214925  24.643   1.445  18.713  0.1226 -0.2234  0.0438
 2488DDP     C214926  24.678   1.589  19.189 -0.1289  0.2939 -0.1298
 2488DDP     C314927  24.773   2.176  18.521 -0.0818  0.1107 -0.2879
 2488DDP     C414928  23.901   1.424  18.589 -0.1289  0.1774 -0.3403
 2489DDP     C114929  27.342  14.447  14.767  0.0608  0.0350 -0.2713
 2489DDP     P114930  27.049  14.689  14.973 -0.0163  0.0179 -0.0352
 2489DDP     P214931  27.779  14.357  14.899  0.0902 -0.0504 -0.1859
 2489DDP     C214932  28.085  14.666  14.950  0.0869  0.2935 -0.1261
 2489DDP     C314933  26.793  14.790  15.303  0.1184  0.1069  0.2016
 2489DDP     C414934  27.207  14.291  14.292  0.3868 -0.0537  0.0576
 2490DDP     C114935  17.889  17.557  21.571  0.2012  0.1934  0.0359
 2490DDP     P114936  17.561  17.763  21.843 -0.1950 -0.0395 -0.1994
 2490DDP     P214937  18.013  17.233  21.556  0.3701 -0.1693 -0.2767
 2490DDP     C214938  18.419  17.032  21.597  0.0625 -0.2730 -0.1231
 2490DDP     C314939  17.241  18.056  21.709 -0.3917 -0.0035 -0.3167
 2490DDP     C414940  18.189  17.908  21.451  0.1660  0.0761 -0.1839
 2491DDP     C114941  12.529  26.505  22.033 -0.0288 -0.2315  0.0691
 2491DDP     P114942  12.018  26.466  21.943  0.1303  0.0062 -0.0611
 2491DDP     P214943  12.704  26.220  22.354 -0.2074 -0.0704 -0.2171
 2491DDP     C214944  13.203  26.232  22.623 -0.1394 -0.0189  0.2302
 2491DDP     C314945  11.827  26.260  21.577 -0.1676  0.1759  0.0627
 2491DDP     C414946  12.719  26.793  21.769  0.1521 -0.1640  0.0060
 2492DDP     C114947  11.893   8.499   3.239 -0.0618 -0.2540 -0.0253
 2492DDP     P114948  11.848   8.454   3.676  0.0059 -0.1068  0.0510
 2492DDP     P214949  12.334   8.701   3.128 -0.1006  0.2069 -0.0807
 2492DDP     C214950  12.804   8.795   3.363  0.1064  0.2797  0.0978
 2492DDP     C314951  11.996   8.255   4.126 -0.0606 -0.2528  0.0842
 2492DDP     C414952  11.638   8.480   2.851  0.1269  0.2342  0.0099
 2493DDP     C114953  11.883  16.118   7.588 -0.0229  0.2884 -0.1814
 2493DDP     P114954  11.549  16.113   7.256 -0.1500  0.1450 -0.0042
 2493DDP     P214955  12.039  16.471   7.499 -0.0756 -0.0823  0.0171
 2493DDP     C214956  12.081  16.946   7.534 -0.2546  0.1915 -0.1297
 2493DDP     C314957  11.460  15.942   6.920  0.0434  0.0944  0.3012
 2493DDP     C414958  11.985  15.776   8.034  0.2257 -0.0025 -0.0205
 2494DDP     C114959  29.220  14.608  11.344 -0.0741 -0.0272 -0.0359
 2494DDP     P114960  28.826  14.633  11.114 -0.0233  0.0628  0.2072
 2494DDP     P214961  29.218  14.855  11.725  0.0499  0.3937 -0.1929
 2494DDP     C214962  29.360  14.755  12.082  0.0223  0.0486 -0.0283
 2494DDP     C314963  28.442  14.607  10.834 -0.2821 -0.0964 -0.0929
 2494DDP     C414964  29.623  14.541  11.223 -0.3225  0.4454  0.0583
 2495DDP     C114965  19.329   8.790  11.486  0.1348 -0.0441  0.4870
 2495DDP     P114966  19.611   8.782  11.787  0.0694  0.0007 -0.1232
 2495DDP     P214967  19.156   9.206  11.419 -0.0990  0.0051 -0.2069
 2495DDP     C214968  18.881   9.428  11.289  0.1733 -0.1109 -0.1065
 2495DDP     C314969  19.583   8.994  12.221  0.0047 -0.2053 -0.0468
 2495DDP     C414970  19.076   8.507  11.419 -0.0092 -0.1337 -0.0326
 2496DDP     C114971  26.070   6.512  25.474 -0.2291 -0.0316 -0.2409
 2496DDP     P114972  25.974   6.474  25.061  0.1727 -0.4506  0.0838
 2496DDP     P214973  26.026   6.100  25.430  0.0811  0.2056  0.0975
 2496DDP     C214974  25.944   5.974  24.886 -0.0107 -0.1576 -0.0066
 2496DDP     C314975  26.067   6.608  24.611 -0.0654 -0.2938  0.0207
 2496DDP     C414976  26.382   6.780  25.699 -0.0989  0.0567  0.0699
 2497DDP     C114977  27.881  23.791  10.656  0.3906 -0.1393  0.0217
 2497DDP     P114978  27.723  23.510  10.940 -0.0417 -0.1051  0.1709
 2497DDP     P214979  27.612  24.095  10.582  0.1410  0.1197  0.1656
 2497DDP     C214980  27.636  24.589  10.594 -0.1789 -0.0207  0.1042
 2497DDP     C314981  27.622  23.596  11.375 -0.0316 -0.0470  0.1701
 2497DDP     C414982  28.224  23.502  10.479  0.0061  0.2614  0.2781
 2498DDP     C114983   4.418  19.825  23.954  0.1627  0.1904 -0.0823
 2498DDP     P114984   4.428  19.526  24.240 -0.1989 -0.0149  0.0630
 2498DDP     P214985   4.658  19.557  23.739 -0.2146 -0.0272 -0.1365
 2498DDP     C214986   4.697  19.466  23.259  0.2381 -0.3157  0.0150
 2498DDP     C314987   4.162  19.225  24.273 -0.1999  0.1562  0.0130
 2498DDP     C414988   4.250  20.248  23.807  0.1302 -0.1576 -0.1787
 2499DDP     C114989   2.608  12.999  16.937 -0.1215  0.0265  0.1642
 2499DDP     P114990   2.802  12.545  17.063  0.1169  0.1412  0.0185
 2499DDP     P214991   2.772  13.276  17.221  0.0164 -0.1909  0.3256
 2499DDP     C214992   2.633  13.653  17.336  0.1184 -0.0676 -0.2524
 2499DDP     C314993   2.594  12.093  17.030  0.2168 -0.0587 -0.2663
 2499DDP     C414994   2.249  13.110  16.801  0.3076  0.0484  0.1023
 2500DDP     C114995   5.421  23.049  19.830  0.3217 -0.0819 -0.1089
 2500DDP     P114996   5.429  22.618  19.622 -0.3724 -0.5169  0.1190
 2500DDP     P214997   5.602  23.197  19.595  0.0836 -0.0501 -0.0799
 2500DDP     C214998   5.890  23.001  19.318  0.0058 -0.0523 -0.0529
 2500DDP     C314999   5.826  22.476  19.411  0.2740  0.0032 -0.1452
 2500DDP     C415000   5.296  23.234  20.180  0.1160 -0.0939 -0.1213
 2501DDP     C115001  16.640  25.927  29.283 -0.1574 -0.0962  0.1199
 2501DDP     P115002  16.410  26.239  29.506  0.1097  0.2092 -0.2369
 2501DDP     P215003  17.011  25.881  29.543 -0.2839 -0.0840  0.1900
 2501DDP     C215004  17.346  25.719  29.542  0.2564  0.0354 -0.2360
 2501DDP     C315005  16.066  26.091  29.811 -0.0514 -0.0974  0.0402
 2501DDP     C415006  16.407  25.654  28.966 -0.3113 -0.0765  0.0117
 2502DDP     C115007  30.237  15.181  12.736 -0.0740  0.2480  0.4656
 2502DDP     P115008  29.845  15.144  12.773  0.2844  0.0082  0.1036
 2502DDP     P215009  30.243  14.751  12.686  0.1327  0.0878 -0.0780
 2502DDP     C215010  29.898  14.408  12.716  0.3496 -0.1469 -0.1672
 2502DDP     C315011  29.522  14.919  12.515  0.2247  0.2460  0.0722
 2502DDP     C415012   0.226  15.539  12.836 -0.1247  0.0547  0.0475
 2503DDP     C115013   4.491  22.999  22.757 -0.2245 -0.0939  0.2068
 2503DDP     P115014   4.216  22.616  22.650 -0.0407 -0.0084  0.0781
 2503DDP     P215015   4.763  22.979  23.177  0.0469 -0.1029 -0.1347
 2503DDP     C215016   5.024  22.650  23.163  0.0315  0.1048 -0.0025
 2503DDP     C315017   3.725  22.441  22.499 -0.0372  0.1004  0.0775
 2503DDP     C415018   4.826  23.178  22.318  0.1630  0.3128 -0.1568
 2504DDP     C115019   6.870   7.651   3.105  0.0085  0.0276 -0.1070
 2504DDP     P115020   7.024   7.758   3.526 -0.0115 -0.0282 -0.0313
 2504DDP     P215021   7.042   7.371   2.837 -0.0764 -0.0475  0.0433
 2504DDP     C215022   7.336   7.079   2.482  0.1381  0.0081 -0.0206
 2504DDP     C315023   6.764   7.603   3.949  0.2753 -0.0920 -0.1001
 2504DDP     C415024   6.649   8.050   2.985 -0.1772  0.0220 -0.2342
 2505DDP     C115025  24.818  14.827   6.835 -0.0477  0.1970  0.1874
 2505DDP     P115026  24.665  14.916   7.257  0.2940 -0.2694 -0.2132
 2505DDP     P215027  25.244  15.014   6.752  0.2738 -0.0153  0.1427
 2505DDP     C215028  25.575  14.968   6.923 -0.0405  0.2647 -0.1427
 2505DDP     C315029  24.378  15.176   7.542 -0.0106 -0.0671  0.0433
 2505DDP     C415030  24.441  14.792   6.504 -0.1257  0.0689 -0.2934
 2506DDP     C115031   6.534  24.613   6.168 -0.0676 -0.1867 -0.0477
 2506DDP     P115032   6.199  24.744   5.835 -0.1626  0.0775  0.0439
 2506DDP     P215033   6.541  24.243   6.355  0.0246 -0.5419 -0.0450
 2506DDP     C215034   6.826  24.008   6.378 -0.3011  0.2045  0.2099
 2506DDP     C315035   5.858  24.829   5.600 -0.3414 -0.2989 -0.0034
 2506DDP     C415036   6.939  24.614   6.094  0.0323  0.0207  0.0057
 2507DDP     C115037  23.647   2.127  14.181 -0.2501  0.2983  0.0212
 2507DDP     P115038  23.931   2.190  13.927  0.5108  0.0190 -0.0577
 2507DDP     P215039  23.781   2.349  14.495  0.3390  0.0212  0.1458
 2507DDP     C215040  23.735   2.396  14.924 -0.1367  0.1505  0.1927
 2507DDP     C315041  24.131   2.242  13.595 -0.0417  0.0655  0.2315
 2507DDP     C415042  23.573   1.687  14.272  0.1409  0.1492  0.1598
 2508DDP     C115043  22.351   6.641  23.721  0.2336 -0.2240  0.3032
 2508DDP     P115044  22.501   6.737  23.282  0.2649  0.1234  0.1685
 2508DDP     P215045  22.311   7.123  23.849 -0.0605 -0.3445  0.0812
 2508DDP     C215046  22.135   7.432  23.696  0.0948  0.2431  0.0921
 2508DDP     C315047  22.572   6.730  22.800  0.2595  0.0905  0.3878
 2508DDP     C415048  22.211   6.232  23.884 -0.0077  0.0720  0.2755
 2509DDP     C115049  14.527  21.296  20.303 -0.3339 -0.2926 -0.1377
 2509DDP     P115050  14.636  21.286  19.792 -0.0968  0.0639 -0.4196
 2509DDP     P215051  14.877  21.256  20.612  0.0433  0.3348  0.1156
 2509DDP     C215052  15.044  21.433  21.014  0.0449 -0.3343  0.0483
 2509DDP     C315053  14.796  21.067  19.532  0.0611 -0.0644  0.0649
 2509DDP     C415054  14.199  21.475  20.537  0.1346  0.0398 -0.2270
 2510DDP     C115055   8.630  22.169  25.773  0.0481 -0.1065 -0.2137
 2510DDP     P115056   8.890  22.227  25.946 -0.1917 -0.3181 -0.4654
 2510DDP     P215057   8.549  21.815  25.402  0.1965  0.2401 -0.3422
 2510DDP     C215058   8.391  21.602  25.081  0.0130  0.1659 -0.0983
 2510DDP     C315059   9.002  22.230  26.348 -0.1136  0.0942 -0.1269
 2510DDP     C415060   8.258  22.350  25.894  0.0686 -0.2048  0.1612
 2511DDP     C115061  28.082  18.230   4.386 -0.1917 -0.0600  0.1781
 2511DDP     P115062  27.857  17.954   4.667 -0.0275  0.0128  0.1238
 2511DDP     P215063  28.457  18.259   4.607 -0.3349 -0.1650 -0.3053
 2511DDP     C215064  28.494  18.281   5.000  0.2101 -0.1633  0.0626
 2511DDP     C315065  27.774  17.507   4.733 -0.1734 -0.2995 -0.1047
 2511DDP     C415066  27.925  18.428   3.960  0.1954  0.1307 -0.2552
 2512DDP     C115067   6.530   3.367  24.460 -0.0668 -0.0950  0.2399
 2512DDP     P115068   6.534   3.744  24.254 -0.1393  0.2642  0.2740
 2512DDP     P215069   6.749   3.379  24.864  0.1619 -0.1009  0.1921
 2512DDP     C215070   7.049   3.273  24.993  0.0916 -0.3781 -0.0592
 2512DDP     C315071   6.866   4.035  24.242 -0.3467  0.0983  0.0668
 2512DDP     C415072   6.424   2.969  24.278 -0.0477 -0.1912  0.1771
 2513DDP     C115073   4.689  23.095  10.996 -0.2178 -0.1915  0.3510
 2513DDP     P115074   4.796  23.499  11.238 -0.1032  0.0041 -0.1887
 2513DDP     P215075   4.977  22.857  10.661  0.3356 -0.0210  0.1312
 2513DDP     C215076   5.345  22.537  10.560 -0.0778  0.1894 -0.0881
 2513DDP     C315077   4.958  23.651  11.652 -0.1417 -0.0943  0.0292
 2513DDP     C415078   4.289  23.017  10.841  0.2295  0.0485 -0.1272
 2514DDP     C115079  15.647  10.517   9.521 -0.2575  0.1474 -0.2118
 2514DDP     P115080  15.464  10.710   9.937 -0.0468  0.0509 -0.1328
 2514DDP     P215081  16.074  10.581   9.192  0.0198 -0.0927  0.0958
 2514DDP     C215082  16.527  10.589   9.048 -0.3704 -0.1945 -0.3754
 2514DDP     C315083  15.160  10.741  10.263  0.0232  0.0617 -0.2991
 2514DDP     C415084  15.343  10.242   9.279 -0.0661  0.1012  0.1393
 2515DDP     C115085   0.611  27.323   0.907 -0.0311  0.4362  0.0193
 2515DDP     P115086   0.463  27.522   0.629 -0.3501 -0.1130  0.2490
 2515DDP     P215087   0.334  27.025   1.142  0.0009 -0.1584 -0.1577
 2515DDP     C215088   0.393  26.697   1.446 -0.0256 -0.0178  0.3743
 2515DDP     C315089   0.609  27.573   0.235  0.3397 -0.1781  0.0911
 2515DDP     C415090   0.919  27.532   1.090 -0.1549 -0.1269  0.0843
 2516DDP     C115091  27.072  13.248  25.177 -0.1691 -0.1034  0.4130
 2516DDP     P115092  26.912  13.352  24.733  0.3118 -0.0054  0.0291
 2516DDP     P215093  27.316  13.558  25.403 -0.1585  0.0412 -0.0840
 2516DDP     C215094  27.496  13.972  25.488 -0.0236 -0.1117  0.0687
 2516DDP     C315095  26.883  13.734  24.438 -0.0542  0.0216 -0.0507
 2516DDP     C415096  26.839  12.981  25.470  0.0729  0.1919 -0.1901
 2517DDP     C115097  21.315   6.919  10.204 -0.0705  0.2404 -0.2760
 2517DDP     P115098  21.690   7.228  10.231  0.1503 -0.0455 -0.0419
 2517DDP     P215099  20.894   6.985  10.043 -0.1050 -0.1365  0.0674
 2517DDP     C215100  20.541   6.785  10.158 -0.2203 -0.0770  0.1081
 2517DDP     C315101  22.126   7.136  10.174  0.0028  0.0272  0.0271
 2517DDP     C415102  21.405   6.452  10.398  0.2511 -0.2097  0.1534
 2518DDP     C115103  21.808  15.662   6.376  0.1125  0.0386  0.2422
 2518DDP     P115104  21.943  15.412   6.046 -0.0384 -0.1137  0.1121
 2518DDP     P215105  22.023  16.045   6.247 -0.1887  0.1368 -0.1166
 2518DDP     C215106  22.098  16.452   6.498 -0.0074  0.2163  0.0391
 2518DDP     C315107  22.252  15.152   5.754 -0.1238 -0.1691  0.0909
 2518DDP     C415108  21.704  15.609   6.759  0.2061 -0.4344 -0.1017
 2519DDP     C115109  19.477  15.565   4.947  0.0104  0.1149  0.2775
 2519DDP     P115110  19.560  15.258   4.602 -0.1844  0.2672  0.0159
 2519DDP     P215111  19.901  15.379   5.051  0.3051 -0.0396 -0.1805
 2519DDP     C215112  20.258  15.233   5.078  0.0839  0.0313 -0.1545
 2519DDP     C315113  19.448  15.076   4.257 -0.0812  0.1665 -0.0899
 2519DDP     C415114  19.134  15.855   5.021  0.1087 -0.0069 -0.2575
 2520DDP     C115115  23.327   5.587  13.945 -0.2389 -0.0173 -0.2195
 2520DDP     P115116  23.800   5.840  14.031 -0.0021  0.0460 -0.1814
 2520DDP     P215117  23.263   5.314  14.306  0.1375 -0.1257  0.1416
 2520DDP     C215118  22.945   5.083  14.315 -0.1517 -0.0666  0.1338
 2520DDP     C315119  24.227   5.785  14.262  0.0685 -0.2817 -0.0282
 2520DDP     C415120  23.245   5.481  13.591 -0.1903 -0.0461 -0.0092
 2521DDP     C115121   3.884  25.727   1.727 -0.2210  0.0284  0.0516
 2521DDP     P115122   4.244  25.605   1.563  0.2316  0.1090  0.0451
 2521DDP     P215123   3.855  25.645   2.160  0.0569 -0.1473  0.3193
 2521DDP     C215124   3.819  25.680   2.673 -0.0539  0.2613 -0.0171
 2521DDP     C315125   4.530  25.868   1.602  0.0623 -0.2984  0.0721
 2521DDP     C415126   3.480  25.879   1.608 -0.0776  0.0118 -0.2981
 2522DDP     C115127   7.033  10.723  22.490 -0.0584  0.1245 -0.2028
 2522DDP     P115128   6.959  10.329  22.551  0.1109  0.0854 -0.0244
 2522DDP     P215129   6.654  10.879  22.387 -0.2579 -0.0839  0.0755
 2522DDP     C215130   6.246  10.935  22.176 -0.2095  0.2083 -0.1261
 2522DDP     C315131   6.835   9.873  22.564  0.1162  0.2230  0.0521
 2522DDP     C415132   7.428  10.944  22.595  0.1513  0.0949 -0.1575
 2523DDP     C115133  27.600  12.983  18.434  0.0312 -0.2921 -0.0092
 2523DDP     P115134  27.694  13.404  18.585 -0.0839 -0.3568 -0.3600
 2523DDP     P215135  27.844  12.631  18.556 -0.0831  0.0562  0.2497
 2523DDP     C215136  28.179  12.462  18.430 -0.1944 -0.4521  0.3995
 2523DDP     C315137  27.738  13.853  18.510 -0.0344  0.3027 -0.1847
 2523DDP     C415138  27.123  12.877  18.361  0.0716  0.3173  0.1829
 2524DDP     C115139  18.219   7.079  27.982  0.1534 -0.1604  0.1034
 2524DDP     P115140  18.045   7.166  28.367 -0.1099  0.2054 -0.2920
 2524DDP     P215141  18.483   6.811  27.998 -0.0953  0.1291 -0.0587
 2524DDP     C215142  18.555   6.412  28.202  0.0479  0.0660  0.1805
 2524DDP     C315143  17.623   7.385  28.352  0.0121  0.0938 -0.2056
 2524DDP     C415144  18.034   7.110  27.548  0.1616 -0.0250  0.1242
 2525DDP     C115145  17.222  11.839   1.052  0.1543 -0.2352 -0.2637
 2525DDP     P115146  17.638  11.830   0.815  0.0158 -0.0313 -0.1930
 2525DDP     P215147  16.902  11.549   1.106  0.4385 -0.0335 -0.0770
 2525DDP     C215148  16.842  11.114   1.271 -0.1787 -0.0414 -0.1972
 2525DDP     C315149  17.935  12.069   0.703 -0.0163  0.0335 -0.2228
 2525DDP     C415150  17.269  12.179   1.135  0.1773 -0.2117 -0.3969
 2526DDP     C115151   9.739  10.910  17.890 -0.2171  0.2762 -0.2833
 2526DDP     P115152  10.113  10.873  17.691  0.1859 -0.2176 -0.3239
 2526DDP     P215153   9.744  10.935  18.405  0.0652 -0.2893  0.1507
 2526DDP     C215154   9.391  10.798  18.725 -0.1329 -0.2341  0.3088
 2526DDP     C315155  10.335  10.525  17.693  0.0326 -0.1580 -0.0904
 2526DDP     C415156   9.375  10.698  17.746 -0.0940 -0.0843 -0.1428
 2527DDP     C115157   1.153   6.307  11.314 -0.1764 -0.1624  0.1885
 2527DDP     P115158   1.316   6.199  11.730 -0.1174  0.5689  0.0793
 2527DDP     P215159   0.950   6.060  11.038 -0.1386  0.0263  0.0171
 2527DDP     C215160   0.465   5.936  11.101  0.2013 -0.0173  0.0582
 2527DDP     C315161   1.494   6.502  12.053 -0.1286 -0.0009  0.2165
 2527DDP     C415162   1.358   6.683  11.200  0.3570 -0.3933  0.1664
 2528DDP     C115163  24.194   0.943  10.425  0.0223 -0.0283 -0.1151
 2528DDP     P115164  23.861   0.652  10.342 -0.0019  0.2599 -0.2137
 2528DDP     P215165  24.004   1.228  10.365 -0.0882  0.1062  0.0071
 2528DDP     C215166  23.805   1.603  10.545 -0.1895 -0.1718 -0.0634
 2528DDP     C315167  23.475   0.629  10.473  0.0676  0.1354 -0.1662
 2528DDP     C415168  24.727   0.930  10.536 -0.3072 -0.1798 -0.0625
 2529DDP     C115169   6.446  12.269  15.747 -0.0573 -0.0383 -0.3788
 2529DDP     P115170   6.128  12.611  15.765 -0.1311  0.2277 -0.1494
 2529DDP     P215171   6.445  11.940  15.489  0.2578  0.0780  0.1952
 2529DDP     C215172   6.648  11.681  15.430  0.1640 -0.0842 -0.0382
 2529DDP     C315173   5.745  12.598  15.920  0.3778  0.0005  0.0581
 2529DDP     C415174   6.824  12.486  15.950 -0.1514 -0.1064  0.0860
 2530DDP     C115175  28.581  27.830  27.005  0.1168 -0.3610 -0.1733
 2530DDP     P115176  28.749  28.108  26.684  0.0023 -0.2275 -0.0558
 2530DDP     P215177  28.664  27.376  26.989  0.1666 -0.0277 -0.1042
 2530DDP     C215178  28.806  27.094  26.665  0.1916  0.0098 -0.0727
 2530DDP     C315179  28.964  28.584  26.528 -0.0950 -0.1306  0.0790
 2530DDP     C415180  28.259  28.067  27.330 -0.1385 -0.2399  0.5208
 2531DDP     C115181  26.453   3.363   2.583 -0.3642  0.1859  0.1290
 2531DDP     P115182  26.595   3.190   3.004  0.0791 -0.1030  0.0094
 2531DDP     P215183  26.657   3.796   2.410  0.0363  0.1717 -0.3036
 2531DDP     C215184  26.673   4.133   2.614 -0.1648 -0.0924 -0.1952
 2531DDP     C315185  26.866   3.054   3.262  0.1291  0.3046  0.0294
 2531DDP     C415186  26.325   3.082   2.335  0.0659  0.1243 -0.2989
 2532DDP     C115187  11.079  11.697   7.809  0.0596 -0.0836  0.0614
 2532DDP     P115188  10.647  11.821   7.975 -0.4540 -0.0773  0.3190
 2532DDP     P215189  11.435  11.855   8.087 -0.2785 -0.0748 -0.0752
 2532DDP     C215190  11.794  11.536   8.261  0.1174 -0.1074 -0.0045
 2532DDP     C315191  10.225  12.022   7.744 -0.0215 -0.0518  0.0550
 2532DDP     C415192  11.140  11.351   7.541  0.0378  0.2095 -0.1384
 2533DDP     C115193   9.250  16.211  13.867  0.2497  0.2135 -0.1114
 2533DDP     P115194   8.890  16.392  14.187 -0.0113 -0.1839 -0.2012
 2533DDP     P215195   9.242  16.430  13.467 -0.1938  0.0600  0.1055
 2533DDP     C215196   9.185  16.353  13.130  0.0418 -0.6482 -0.0448
 2533DDP     C315197   8.724  16.770  14.203  0.2046 -0.1527  0.0169
 2533DDP     C415198   9.544  15.899  13.695 -0.0647  0.0531 -0.1571
 2534DDP     C115199  25.295   2.435  12.664 -0.0334 -0.1754 -0.3323
 2534DDP     P115200  25.209   2.846  12.766 -0.0133 -0.1349  0.0755
 2534DDP     P215201  24.833   2.162  12.582 -0.0668 -0.0166 -0.0946
 2534DDP     C215202  24.579   2.016  12.273  0.0216  0.0371 -0.1141
 2534DDP     C315203  25.030   3.216  12.817 -0.1163  0.2666  0.2611
 2534DDP     C415204  25.597   2.308  12.817  0.1114 -0.0050  0.1912
 2535DDP     C115205  14.861  18.743  26.765 -0.0346 -0.0912  0.0073
 2535DDP     P115206  14.566  18.922  26.939 -0.1927 -0.1070  0.2444
 2535DDP     P215207  15.254  18.537  27.127  0.1689 -0.0230 -0.0340
 2535DDP     C215208  15.637  18.404  26.940  0.1990  0.0843  0.0364
 2535DDP     C315209  14.190  18.966  27.201  0.0763  0.2277  0.1579
 2535DDP     C415210  14.945  18.712  26.283 -0.0191  0.0793  0.1546
 2536DDP     C115211   8.202  28.953   0.744  0.2976  0.0200  0.1238
 2536DDP     P115212   8.185  29.402   0.652  0.0706  0.0115 -0.3240
 2536DDP     P215213   8.629  28.827   0.811  0.0455  0.3010 -0.0373
 2536DDP     C215214   8.830  28.988   1.176 -0.0070  0.1000  0.2988
 2536DDP     C315215   8.361  29.766   0.724  0.2328 -0.0123  0.1463
 2536DDP     C415216   7.853  28.698   0.746  0.1382  0.0393 -0.1606
 2537DDP     C115217   8.562  14.994   8.801 -0.1696  0.1315  0.2646
 2537DDP     P115218   8.491  14.949   8.422  0.0887 -0.1816  0.3338
 2537DDP     P215219   8.278  14.950   9.243 -0.0579  0.1037 -0.1551
 2537DDP     C215220   7.926  14.945   9.540 -0.1158  0.0759  0.3020
 2537DDP     C315221   8.117  15.009   8.219 -0.3467  0.2856 -0.2432
 2537DDP     C415222   9.010  15.167   8.970  0.0949  0.0467 -0.2037
 2538DDP     C115223  14.515  28.554  29.654  0.0884 -0.1905 -0.2698
 2538DDP     P115224  14.647  28.884  29.913 -0.0094 -0.4297  0.0527
 2538DDP     P215225  14.688  28.382  29.269 -0.2655  0.3571  0.1862
 2538DDP     C215226  14.667  28.432  28.803  0.1670  0.0252  0.0654
 2538DDP     C315227  14.284  29.194  29.957  0.2038 -0.1063 -0.0966
 2538DDP     C415228  14.202  28.183  29.813  0.1869 -0.0975  0.1595
 2539DDP     C115229   7.494  25.048   4.794  0.2734 -0.2032 -0.2566
 2539DDP     P115230   7.434  24.729   4.537  0.1196 -0.0693  0.3694
 2539DDP     P215231   7.819  25.337   4.880  0.2483 -0.2321  0.0854
 2539DDP     C215232   7.770  25.785   5.038  0.0676  0.1947  0.2007
 2539DDP     C315233   7.703  24.392   4.501 -0.3206  0.0436 -0.2242
 2539DDP     C415234   7.126  25.067   5.008 -0.0232  0.2472  0.0488
 2540DDP     C115235   2.709  16.175   5.020  0.0941  0.3029  0.0448
 2540DDP     P115236   2.257  16.504   5.094  0.2794  0.4705  0.1665
 2540DDP     P215237   2.734  15.675   5.104  0.0098 -0.0611 -0.4196
 2540DDP     C215238   2.956  15.426   5.399  0.1176  0.0041 -0.2517
 2540DDP     C315239   2.002  16.800   4.931 -0.3389  0.1248  0.0628
 2540DDP     C415240   3.053  16.331   4.989  0.0354  0.1478  0.1833
 2541DDP     C115241   9.785  26.767  10.350  0.1669 -0.1590  0.5028
 2541DDP     P115242   9.960  26.691   9.959  0.3312 -0.0496 -0.1879
 2541DDP     P215243  10.194  26.917  10.359 -0.0962  0.2434 -0.1781
 2541DDP     C215244  10.539  27.177  10.398  0.1894 -0.2439 -0.1996
 2541DDP     C315245   9.805  26.396   9.582  0.1330 -0.0356  0.1174
 2541DDP     C415246   9.470  26.849  10.522  0.1907  0.0227 -0.1347
 2542DDP     C115247  20.223  11.529  28.047 -0.1205  0.0527 -0.0152
 2542DDP     P115248  20.105  11.493  28.564 -0.3705 -0.1641 -0.3022
 2542DDP     P215249  20.280  11.848  27.990 -0.1063 -0.3148  0.0248
 2542DDP     C215250  20.512  12.200  28.308 -0.1089  0.0139  0.0174
 2542DDP     C315251  20.303  11.169  28.853 -0.1254 -0.0906 -0.2788
 2542DDP     C415252  19.992  11.177  27.792  0.0424  0.4831 -0.2494
 2543DDP     C115253  25.865   2.872   4.622 -0.1813 -0.0490 -0.1736
 2543DDP     P115254  26.246   2.972   4.577 -0.0915  0.0814  0.1294
 2543DDP     P215255  25.771   3.211   4.852  0.0235 -0.0078 -0.2902
 2543DDP     C215256  25.498   3.525   4.794  0.0595 -0.0252 -0.2072
 2543DDP     C315257  26.655   3.057   4.586  0.1982  0.0987  0.2283
 2543DDP     C415258  25.689   2.461   4.587 -0.1376 -0.0742  0.1499
 2544DDP     C115259  18.656  12.139  13.873  0.0793  0.2513  0.1260
 2544DDP     P115260  18.412  12.596  13.753  0.1908 -0.3686  0.0117
 2544DDP     P215261  18.318  11.772  13.929  0.0700 -0.1025 -0.1544
 2544DDP     C215262  18.032  11.423  13.831  0.4212 -0.1534 -0.2087
 2544DDP     C315263  18.167  12.996  13.952  0.0511 -0.0793 -0.1664
 2544DDP     C415264  19.066  12.195  14.024 -0.2055 -0.3840  0.3590
 2545DDP     C115265  27.884   9.831   7.355 -0.0094 -0.0400  0.2974
 2545DDP     P115266  28.129   9.664   7.047 -0.0745 -0.0800  0.0724
 2545DDP     P215267  28.109  10.238   7.458  0.0021 -0.1745 -0.2997
 2545DDP     C215268  28.509  10.491   7.531  0.1085 -0.0412  0.1662
 2545DDP     C315269  28.051   9.223   6.865 -0.1790  0.3135 -0.2649
 2545DDP     C415270  27.621   9.598   7.654 -0.0999 -0.0363 -0.1457
 2546DDP     C115271  21.761   2.681  18.055 -0.0397  0.1436  0.1066
 2546DDP     P115272  21.819   2.870  18.459  0.1440 -0.2452  0.0515
 2546DDP     P215273  21.454   2.669  17.637  0.1893 -0.0264  0.0272
 2546DDP     C215274  21.605   2.867  17.274  0.1011 -0.2810  0.2775
 2546DDP     C315275  21.990   2.805  18.889 -0.0066 -0.1004 -0.3172
 2546DDP     C415276  22.101   2.489  18.166  0.0260  0.0250  0.2559
 2547DDP     C115277  18.805  20.228   8.584  0.1737 -0.1909  0.2169
 2547DDP     P115278  18.910  20.306   8.236  0.0536 -0.0845  0.2320
 2547DDP     P215279  18.335  20.199   8.821 -0.1901  0.0080  0.0685
 2547DDP     C215280  18.023  19.879   8.837 -0.1201 -0.0995  0.1574
 2547DDP     C315281  18.672  20.232   7.850 -0.1387  0.2485 -0.2145
 2547DDP     C415282  19.183  20.059   8.908 -0.0097 -0.3139  0.0870
 2548DDP     C115283   1.204  20.489  27.562  0.0283 -0.0574 -0.0655
 2548DDP     P115284   1.435  20.921  27.744  0.0933 -0.2257  0.0232
 2548DDP     P215285   1.102  20.390  27.153 -0.1148  0.0076  0.2498
 2548DDP     C215286   1.063  20.279  26.757 -0.2357  0.1834  0.2014
 2548DDP     C315287   1.299  21.327  27.956  0.2714  0.3538 -0.1387
 2548DDP     C415288   1.060  20.299  27.909  0.2440 -0.0882  0.0493
 2549DDP     C115289  11.539   5.369   8.619 -0.1369 -0.1254 -0.2149
 2549DDP     P115290  12.040   5.386   8.596 -0.0372  0.3713  0.1583
 2549DDP     P215291  11.440   5.841   8.632 -0.4430 -0.2501  0.2456
 2549DDP     C215292  11.454   6.239   8.444 -0.1351  0.0959 -0.5221
 2549DDP     C315293  12.353   5.715   8.755 -0.1511  0.2381 -0.0440
 2549DDP     C415294  11.240   5.148   8.794 -0.0563 -0.2074  0.0587
 2550DDP     C115295  25.077  20.471   1.324  0.3205 -0.2635 -0.2331
 2550DDP     P115296  24.761  20.466   1.763 -0.3675 -0.0342 -0.1382
 2550DDP     P215297  25.219  20.773   1.282 -0.0307 -0.1931  0.1274
 2550DDP     C215298  25.442  21.058   1.377  0.1874  0.2165  0.0226
 2550DDP     C315299  24.593  20.105   1.916  0.0022 -0.1462 -0.1326
 2550DDP     C415300  24.896  20.179   1.003 -0.1006  0.0780 -0.0809
 2551DDP     C115301  11.625  23.262  28.785  0.2899  0.0813 -0.0822
 2551DDP     P115302  11.564  23.404  29.237  0.1666 -0.0147  0.1824
 2551DDP     P215303  11.997  23.180  28.565 -0.1810  0.0042 -0.1320
 2551DDP     C215304  12.113  23.464  28.124 -0.0061  0.0544  0.2950
 2551DDP     C315305  11.334  23.422  29.623  0.0367 -0.3309 -0.2541
 2551DDP     C415306  11.270  23.306  28.537  0.0809 -0.2931 -0.0756
 2552DDP     C115307  11.631  21.324  14.441 -0.3006 -0.1435 -0.1339
 2552DDP     P115308  11.845  21.718  14.157  0.0506  0.1939  0.1194
 2552DDP     P215309  11.596  20.913  14.623  0.0404  0.0770 -0.0844
 2552DDP     C215310  11.750  20.532  14.630  0.1410 -0.1944  0.2563
 2552DDP     C315311  11.917  22.191  14.169  0.0526 -0.0589  0.2375
 2552DDP     C415312  11.302  21.591  14.545  0.3609  0.1647 -0.1487
 2553DDP     C115313  13.893  27.232  20.946  0.1113 -0.1426 -0.2159
 2553DDP     P115314  13.491  27.286  20.757 -0.1885  0.0319  0.0503
 2553DDP     P215315  14.069  27.684  21.000  0.0950 -0.1335  0.2992
 2553DDP     C215316  14.061  28.057  21.191 -0.0073  0.1430 -0.2057
 2553DDP     C315317  13.378  27.667  20.465 -0.0041  0.0229 -0.1320
 2553DDP     C415318  14.036  26.758  21.048 -0.1142 -0.0636 -0.0932
 2554DDP     C115319   3.060   8.878  26.243 -0.0174  0.0112 -0.0370
 2554DDP     P115320   2.634   8.973  26.040 -0.0461 -0.0628 -0.0277
 2554DDP     P215321   3.234   8.465  26.084  0.4803 -0.0706 -0.2478
 2554DDP     C215322   2.947   8.120  26.037  0.2148 -0.1619 -0.1585
 2554DDP     C315323   2.131   9.037  25.847  0.1022 -0.0893  0.0169
 2554DDP     C415324   3.331   9.281  26.313  0.2709 -0.0066  0.0388
 2555DDP     C115325  10.414  12.823  13.575  0.3346 -0.1192 -0.0021
 2555DDP     P115326  10.096  12.904  13.267  0.2382 -0.0753  0.3038
 2555DDP     P215327  10.766  13.053  13.495  0.1119 -0.0834 -0.1098
 2555DDP     C215328  11.170  12.979  13.729  0.4883 -0.1713  0.1933
 2555DDP     C315329   9.651  12.843  13.038 -0.0416  0.1836  0.2578
 2555DDP     C415330  10.286  12.543  13.951 -0.0669 -0.1188 -0.0286
 2556DDP     C115331  10.035  17.042   5.581 -0.1635 -0.2056 -0.1377
 2556DDP     P115332  10.404  17.239   5.713 -0.1121  0.0505  0.3872
 2556DDP     P215333  10.041  16.655   5.909  0.0039 -0.2794 -0.1122
 2556DDP     C215334   9.973  16.268   6.175 -0.2328 -0.2100  0.1184
 2556DDP     C315335  10.560  17.562   6.147 -0.0278  0.2585 -0.1049
 2556DDP     C415336   9.724  17.283   5.473  0.3144  0.0240  0.2789
 2557DDP     C115337   6.825   5.951  29.936  0.2929  0.0962 -0.0810
 2557DDP     P115338   7.207   5.905  30.041  0.0400  0.1824 -0.0776
 2557DDP     P215339   6.787   5.847  29.584 -0.0729 -0.1244 -0.2359
 2557DDP     C215340   6.564   5.567  29.212  0.4469 -0.1660  0.1522
 2557DDP     C315341   7.571   5.932  29.817  0.0455 -0.0720 -0.0496
 2557DDP     C415342   6.424   5.888  30.026 -0.2106 -0.0333 -0.0889
 2558DDP     C115343  30.249  15.592   3.553  0.5164  0.1898 -0.1083
 2558DDP     P115344   0.248  15.455   3.545  0.0794 -0.2241 -0.1105
 2558DDP     P215345  29.898  15.332   3.787  0.1350  0.1824  0.3302
 2558DDP     C215346  29.714  15.374   4.229 -0.0947 -0.0634  0.0491
 2558DDP     C315347   0.763  15.345   3.600  0.1502  0.0598  0.0814
 2558DDP     C415348  30.094  16.004   3.409  0.1901  0.2923  0.2799
 2559DDP     C115349  11.944  18.172  13.362  0.4864  0.3170 -0.0668
 2559DDP     P115350  11.759  17.811  13.140 -0.3458 -0.0656  0.1981
 2559DDP     P215351  12.151  18.028  13.811 -0.0200  0.1936  0.0295
 2559DDP     C215352  12.501  17.756  13.842 -0.1667  0.1407 -0.1063
 2559DDP     C315353  11.831  17.358  12.876 -0.0320  0.0389 -0.1914
 2559DDP     C415354  12.214  18.492  13.061 -0.0053 -0.0026 -0.0277
 2560DDP     C115355  22.909  21.057   7.341  0.0916 -0.0031  0.0841
 2560DDP     P115356  22.521  21.177   7.376 -0.0683  0.0733  0.0034
 2560DDP     P215357  23.297  21.220   7.180  0.0607  0.4805  0.5620
 2560DDP     C215358  23.636  21.086   7.282 -0.0778 -0.0817  0.1565
 2560DDP     C315359  22.267  21.329   7.591 -0.1505 -0.0164  0.0172
 2560DDP     C415360  23.025  20.576   7.264 -0.2859 -0.1914 -0.1226
 2561DDP     C115361  28.633   7.979   4.472  0.1231 -0.0633  0.1132
 2561DDP     P115362  28.766   7.611   4.181  0.0735  0.2870 -0.3329
 2561DDP     P215363  28.415   7.892   4.879  0.1532 -0.1955  0.1005
 2561DDP     C215364  28.067   7.909   5.171 -0.1676 -0.1385  0.0962
 2561DDP     C315365  29.125   7.383   3.969 -0.1242 -0.4972 -0.2057
 2561DDP     C415366  28.712   8.431   4.469 -0.0324  0.1678 -0.2577
 2562DDP     C115367  15.494  13.642  17.496  0.4334 -0.0333 -0.2239
 2562DDP     P115368  15.349  13.338  17.272 -0.1054  0.0929  0.0163
 2562DDP     P215369  15.376  13.455  17.920 -0.0324  0.0489 -0.4667
 2562DDP     C215370  15.148  13.686  18.262  0.0953  0.0173  0.2107
 2562DDP     C315371  14.927  13.082  17.127 -0.2938  0.3274 -0.1498
 2562DDP     C415372  15.406  14.047  17.470 -0.0445 -0.2169  0.0098
 2563DDP     C115373  11.608  25.652   0.982  0.0532 -0.1371  0.0668
 2563DDP     P115374  11.549  25.242   1.257  0.1542 -0.1098 -0.0707
 2563DDP     P215375  11.729  25.975   1.256  0.3123 -0.0771 -0.0745
 2563DDP     C215376  11.787  26.438   1.264 -0.2194  0.0702  0.0068
 2563DDP     C315377  11.370  24.869   1.490  0.0528 -0.0914  0.4603
 2563DDP     C415378  11.400  25.698   0.551 -0.2120  0.0775 -0.0094
 2564DDP     C115379  10.481  23.835  18.347  0.1439  0.0811 -0.2016
 2564DDP     P115380  10.540  23.806  17.840  0.0973 -0.1249  0.1213
 2564DDP     P215381  10.067  24.063  18.505  0.0623 -0.2919  0.0888
 2564DDP     C215382   9.643  24.297  18.551 -0.2481 -0.1455  0.1327
 2564DDP     C315383  10.692  23.601  17.636 -0.0640  0.0840 -0.0676
 2564DDP     C415384  10.847  23.723  18.611  0.0397 -0.0413  0.3021
 2565DDP     C115385  19.611  18.091  19.988 -0.1462 -0.0736 -0.1755
 2565DDP     P115386  19.787  18.360  20.409  0.2074 -0.1323  0.0388
 2565DDP     P215387  19.363  18.417  19.678  0.2893 -0.0943 -0.0383
 2565DDP     C215388  19.121  18.609  19.348  0.2015  0.0146  0.3805
 2565DDP     C315389  20.063  18.244  20.787 -0.3790 -0.1046 -0.1237
 2565DDP     C415390  19.750  17.668  19.886  0.1347 -0.1893 -0.1301
 2566DDP     C115391  12.779  12.973   4.381  0.2264  0.1011  0.0843
 2566DDP     P115392  12.363  12.877   4.393 -0.1641 -0.0994 -0.0720
 2566DDP     P215393  13.111  13.118   4.049  0.1454  0.0581 -0.1557
 2566DDP     C215394  13.549  13.383   4.062 -0.0454  0.2015  0.1244
 2566DDP     C315395  12.162  12.819   3.979 -0.3749 -0.0402 -0.0900
 2566DDP     C415396  12.968  12.993   4.806  0.0258  0.1071  0.1780
 2567DDP     C115397   2.057   2.766  23.620  0.0689 -0.5446 -0.1860
 2567DDP     P115398   1.831   2.433  23.616  0.0202 -0.1386 -0.3948
 2567DDP     P215399   2.498   2.924  23.851 -0.0764 -0.1466  0.2492
 2567DDP     C215400   2.766   2.981  24.202  0.0573 -0.2207 -0.1439
 2567DDP     C315401   1.760   2.066  23.410 -0.2472 -0.0389  0.0233
 2567DDP     C415402   2.091   3.047  23.188 -0.2205  0.0776  0.0224
 2568DDP     C115403   1.938  15.512  19.686 -0.0969  0.4554  0.0705
 2568DDP     P115404   2.289  15.561  19.999 -0.3601 -0.0139  0.0785
 2568DDP     P215405   1.571  15.288  19.590 -0.1845 -0.0825  0.0012
 2568DDP     C215406   1.377  15.031  19.667  0.4237 -0.0595 -0.2297
 2568DDP     C315407   2.650  15.636  20.311  0.1395  0.1354  0.2029
 2568DDP     C415408   2.035  15.723  19.389 -0.1522  0.3392 -0.0484
 2569DDP     C115409  29.576  11.169   3.922 -0.2914 -0.2879 -0.0071
 2569DDP     P115410  29.974  11.018   4.143  0.3277  0.1457  0.2122
 2569DDP     P215411  29.374  11.134   4.244  0.1305 -0.0261 -0.0451
 2569DDP     C215412  29.304  10.997   4.666 -0.0226 -0.3576 -0.0647
 2569DDP     C315413  30.302  10.780   4.198 -0.1061 -0.1531 -0.1088
 2569DDP     C415414  29.505  11.525   3.712 -0.1057  0.0049 -0.1048
 2570DDP     C115415   8.672   4.915  18.713  0.1227  0.0945  0.2504
 2570DDP     P115416   8.529   4.849  19.134 -0.2235  0.1826  0.1193
 2570DDP     P215417   8.843   4.517  18.541 -0.1570 -0.0273  0.0721
 2570DDP     C215418   8.839   4.173  18.222  0.0046 -0.1604  0.2592
 2570DDP     C315419   8.809   4.529  19.436 -0.1155 -0.2014  0.1813
 2570DDP     C415420   8.649   5.307  18.471  0.0179  0.0550  0.1205
 2571DDP     C115421  27.889   0.297  17.278 -0.0497 -0.1166  0.3510
 2571DDP     P115422  27.406   0.368  17.354 -0.0758  0.0716 -0.1123
 2571DDP     P215423  28.171   0.528  17.518 -0.0872 -0.0777 -0.0372
 2571DDP     C215424  28.590   0.565  17.586 -0.0620 -0.0328  0.0756
 2571DDP     C315425  27.007   0.476  17.612  0.0631 -0.0336 -0.0354
 2571DDP     C415426  28.066  -0.009  17.335  0.0944 -0.1452 -0.1233
 2572DDP     C115427  28.590  10.148  15.392  0.4735  0.0919  0.0343
 2572DDP     P115428  29.037  10.014  15.541  0.0855 -0.0134  0.1672
 2572DDP     P215429  28.394  10.423  15.236  0.2008 -0.2349 -0.0303
 2572DDP     C215430  28.158  10.548  14.821  0.0769  0.1105  0.0675
 2572DDP     C315431  29.213   9.615  15.485 -0.1489  0.1726  0.2004
 2572DDP     C415432  28.208   9.968  15.498  0.2273  0.2612  0.1758
 2573DDP     C115433  12.513   4.596   8.625 -0.1375  0.1810 -0.2635
 2573DDP     P115434  12.497   4.629   9.082  0.1888  0.0864 -0.1028
 2573DDP     P215435  12.773   4.926   8.495 -0.1421 -0.0069 -0.2150
 2573DDP     C215436  12.968   4.911   8.066  0.1070  0.0384  0.1615
 2573DDP     C315437  12.688   4.829   9.452 -0.3194 -0.0842  0.0234
 2573DDP     C415438  12.202   4.314   8.349  0.2213 -0.1826 -0.0584
 2574DDP     C115439   4.431   3.652  14.802 -0.0604  0.1485 -0.0652
 2574DDP     P115440   4.589   3.453  14.615 -0.1074  0.1913 -0.0473
 2574DDP     P215441   4.828   3.885  14.747  0.0218 -0.2302  0.0825
 2574DDP     C215442   5.173   4.058  14.937 -0.1879  0.2268 -0.3286
 2574DDP     C315443   4.708   3.080  14.601  0.0417  0.0853 -0.3487
 2574DDP     C415444   3.956   3.689  14.953  0.1559 -0.1165  0.2706
 2575DDP     C115445  15.088  29.234  24.383  0.1435 -0.1591 -0.1316
 2575DDP     P115446  15.151  28.831  24.629  0.1775  0.1809  0.1245
 2575DDP     P215447  15.412  29.622  24.414  0.2469  0.1764 -0.0369
 2575DDP     C215448  15.865  29.584  24.557  0.1120  0.1733 -0.0317
 2575DDP     C315449  14.965  28.459  24.654  0.2219  0.2258 -0.0058
 2575DDP     C415450  14.676  29.299  24.228 -0.1593 -0.1886 -0.2382
 2576DDP     C115451  11.065  27.154  22.543 -0.1187 -0.2702 -0.1158
 2576DDP     P115452  11.443  27.261  22.279 -0.1336  0.1078 -0.0328
 2576DDP     P215453  10.805  26.830  22.323  0.0331  0.0629 -0.1568
 2576DDP     C215454  10.479  26.562  22.140 -0.0353  0.0438  0.0961
 2576DDP     C315455  11.810  27.281  22.250  0.0388 -0.0430  0.1037
 2576DDP     C415456  10.848  27.211  22.904 -0.0030 -0.0737 -0.1365
 2577DDP     C115457  10.749  10.155  18.706  0.1541  0.0953  0.2739
 2577DDP     P115458  10.438  10.261  19.071  0.2432 -0.0700 -0.1312
 2577DDP     P215459  11.241  10.214  18.489  0.2114 -0.3214  0.1750
 2577DDP     C215460  11.607  10.287  18.241  0.1105  0.0302 -0.0943
 2577DDP     C315461  10.344  10.353  19.499  0.5630 -0.0238 -0.2739
 2577DDP     C415462  10.466  10.036  18.399  0.1461  0.0342  0.0201
 2578DDP     C115463   0.906  29.757  14.935  0.1675  0.0189 -0.0034
 2578DDP     P115464   1.068  29.625  15.444  0.2410  0.0603  0.1900
 2578DDP     P215465   1.084  29.444  14.649 -0.1504  0.1425  0.1301
 2578DDP     C215466   1.331  29.057  14.488  0.2584  0.0943 -0.0813
 2578DDP     C315467   1.381  29.512  15.576 -0.1126  0.1258 -0.0325
 2578DDP     C415468   0.571  29.943  14.784 -0.1787  0.0353 -0.4378
 2579DDP     C115469   9.147  30.151  11.696 -0.2224  0.2280 -0.3475
 2579DDP     P115470   9.016   0.221  11.745 -0.0036 -0.2130 -0.2407
 2579DDP     P215471   8.952  29.902  11.425 -0.0676  0.0717 -0.0639
 2579DDP     C215472   8.591  29.725  11.201  0.0793  0.0187  0.0592
 2579DDP     C315473   8.887   0.639  12.003 -0.1414  0.2051  0.0011
 2579DDP     C415474   9.545  29.967  11.814 -0.0167  0.1399 -0.0749
 2580DDP     C115475  12.988  28.377  13.815 -0.2882  0.1534 -0.3110
 2580DDP     P115476  13.467  28.307  13.862 -0.0510  0.1807 -0.1485
 2580DDP     P215477  12.815  28.096  13.528 -0.0549 -0.2594  0.2282
 2580DDP     C215478  12.582  27.810  13.218 -0.1199 -0.1298  0.1983
 2580DDP     C315479  13.845  28.629  13.782  0.0849  0.0150  0.2072
 2580DDP     C415480  12.855  28.779  13.887  0.0966  0.1768  0.0551
 2581DDP     C115481  21.117   7.847  15.050  0.0179 -0.2479 -0.1474
 2581DDP     P115482  21.365   7.526  14.832 -0.0241  0.3394  0.1121
 2581DDP     P215483  21.098   8.232  14.871 -0.0468 -0.0938  0.1787
 2581DDP     C215484  20.869   8.424  14.586  0.0857 -0.2284 -0.1215
 2581DDP     C315485  21.487   7.193  15.080 -0.2553  0.2677 -0.2633
 2581DDP     C415486  21.319   7.806  15.501  0.1843 -0.0962 -0.2964
 2582DDP     C115487   9.176  15.978  17.454  0.0108  0.0204 -0.0168
 2582DDP     P115488   8.963  15.657  17.150 -0.0129  0.0561  0.4153
 2582DDP     P215489   9.097  16.406  17.490  0.4264 -0.0734 -0.2771
 2582DDP     C215490   8.967  16.632  17.801  0.1822 -0.1684 -0.0320
 2582DDP     C315491   9.005  15.388  16.760  0.0454 -0.2449  0.0571
 2582DDP     C415492   9.346  15.824  17.877  0.3410 -0.1193  0.2019
 2583DDP     C115493  17.350  13.396  28.975  0.1676  0.3306  0.0678
 2583DDP     P115494  17.470  12.945  29.031  0.1733  0.0916  0.3449
 2583DDP     P215495  17.445  13.822  28.796  0.0281  0.1862  0.2658
 2583DDP     C215496  17.732  14.268  28.615 -0.4207  0.1632 -0.0347
 2583DDP     C315497  17.745  12.603  29.010 -0.0273 -0.2281 -0.0775
 2583DDP     C415498  16.990  13.573  29.061  0.2021  0.1391  0.2871
 2584DDP     C115499  28.238  27.092   3.308 -0.3417 -0.0077  0.1972
 2584DDP     P115500  28.197  26.798   3.630  0.1928  0.2090  0.2877
 2584DDP     P215501  27.934  27.421   3.149 -0.0861  0.1158 -0.1922
 2584DDP     C215502  27.843  27.652   2.733  0.0116  0.2134  0.5964
 2584DDP     C315503  28.353  26.681   3.992 -0.0244  0.1839 -0.0458
 2584DDP     C415504  28.599  26.944   3.112 -0.3130 -0.2431 -0.0788
 2585DDP     C115505   8.081  15.750   4.493  0.0110 -0.1209  0.2219
 2585DDP     P115506   8.133  15.332   4.203  0.2422 -0.0015 -0.0917
 2585DDP     P215507   8.445  16.047   4.519  0.1893  0.1784  0.3619
 2585DDP     C215508   8.856  16.335   4.823 -0.1740  0.0238  0.1112
 2585DDP     C315509   8.443  14.997   4.276 -0.1410 -0.2113 -0.0756
 2585DDP     C415510   7.751  15.810   4.691 -0.0438 -0.0442  0.1436
 2586DDP     C115511   5.865   5.593  21.650  0.0001 -0.0818  0.1964
 2586DDP     P115512   5.983   5.203  21.782 -0.1240  0.3344  0.1450
 2586DDP     P215513   5.955   5.449  21.224 -0.0018  0.2566  0.1370
 2586DDP     C215514   6.061   5.296  20.805  0.0832  0.2134  0.1593
 2586DDP     C315515   5.827   4.767  21.821 -0.1633 -0.0291  0.0343
 2586DDP     C415516   5.739   5.950  21.912  0.1261 -0.1305 -0.2024
 2587DDP     C115517  21.963  22.206   0.823 -0.1747  0.0276 -0.2044
 2587DDP     P115518  22.198  22.534   1.116  0.1598  0.2325  0.0347
 2587DDP     P215519  22.243  21.903   0.758  0.0799 -0.0180  0.1696
 2587DDP     C215520  22.145  21.789   0.338 -0.0373 -0.2295  0.0670
 2587DDP     C315521  22.678  22.488   1.330  0.1676  0.1324  0.1526
 2587DDP     C415522  21.590  22.148   0.610  0.1550 -0.0893  0.0739
 2588DDP     C115523  22.377  21.536   9.476 -0.0949  0.1115  0.0025
 2588DDP     P115524  22.237  21.725   9.031  0.1212 -0.1198 -0.2164
 2588DDP     P215525  22.743  21.723   9.725 -0.0977  0.1949 -0.1548
 2588DDP     C215526  22.691  21.688  10.179  0.1235  0.2845  0.0105
 2588DDP     C315527  21.988  21.583   8.626 -0.1669 -0.1342  0.2123
 2588DDP     C415528  22.435  21.025   9.504 -0.0535  0.0141 -0.0137
 2589DDP     C115529  18.601  25.229  28.648  0.2612 -0.2346 -0.1250
 2589DDP     P115530  18.747  25.036  29.064 -0.0818 -0.0071  0.0272
 2589DDP     P215531  18.970  25.245  28.360 -0.0319  0.1710  0.2986
 2589DDP     C215532  18.890  25.087  27.911  0.1701 -0.0077 -0.0489
 2589DDP     C315533  19.006  24.874  29.441  0.1962 -0.0185 -0.0827
 2589DDP     C415534  18.153  25.543  28.660 -0.0708  0.0665  0.0806
 2590DDP     C115535  23.143  20.232  24.971 -0.1105 -0.1021 -0.1211
 2590DDP     P115536  22.948  20.406  24.681  0.2817 -0.0044 -0.1611
 2590DDP     P215537  23.187  19.858  25.020 -0.0997 -0.2526  0.2515
 2590DDP     C215538  23.004  19.566  24.911 -0.0028  0.1229  0.0279
 2590DDP     C315539  22.875  20.696  24.388  0.0383  0.1957  0.2085
 2590DDP     C415540  23.233  20.568  25.267 -0.0907 -0.0731  0.0854
 2591DDP     C115541  24.791  20.557  19.192 -0.2648 -0.0364  0.1869
 2591DDP     P115542  25.210  20.629  19.060 -0.0249 -0.1734 -0.0671
 2591DDP     P215543  24.467  20.742  19.021 -0.5235  0.3009  0.3220
 2591DDP     C215544  24.051  20.756  19.263 -0.0576 -0.0844 -0.0200
 2591DDP     C315545  25.611  20.610  19.124  0.0043  0.0007  0.1276
 2591DDP     C415546  24.759  20.164  19.446 -0.0360 -0.0814  0.3113
 2592DDP     C115547  26.376  20.859  27.347 -0.1281 -0.3186  0.2152
 2592DDP     P115548  26.152  20.863  26.952  0.1289  0.3957  0.0978
 2592DDP     P215549  26.739  20.683  27.313  0.0692 -0.0891  0.2251
 2592DDP     C215550  27.148  20.880  27.170 -0.1101  0.0680 -0.1301
 2592DDP     C315551  25.986  20.628  26.708  0.1171 -0.0602 -0.3882
 2592DDP     C415552  26.327  20.997  27.740 -0.1448 -0.0386 -0.0429
 2593DDP     C115553   5.060  17.679  26.084  0.1191  0.1430 -0.1592
 2593DDP     P115554   5.026  17.947  25.748  0.2717  0.1664  0.3860
 2593DDP     P215555   4.716  17.415  26.085 -0.3284  0.0470 -0.2417
 2593DDP     C215556   4.318  17.255  26.132  0.0945 -0.0109 -0.1358
 2593DDP     C315557   5.215  18.206  25.484 -0.1320  0.1724 -0.0009
 2593DDP     C415558   5.436  17.440  26.285 -0.0982  0.0031  0.0100
 2594DDP     C115559   6.646  28.315  28.558  0.0485 -0.1502  0.0753
 2594DDP     P115560   6.643  27.992  28.805 -0.2695  0.1723  0.2972
 2594DDP     P215561   6.884  28.325  28.224 -0.3636 -0.1359 -0.1721
 2594DDP     C215562   6.995  28.120  27.850 -0.0591  0.3219 -0.0468
 2594DDP     C315563   6.689  27.836  29.244 -0.0411  0.0181 -0.0567
 2594DDP     C415564   6.493  28.764  28.625 -0.1821  0.0036 -0.2894
 2595DDP     C115565  12.496  18.373  27.028 -0.0858 -0.0707  0.2435
 2595DDP     P115566  12.563  17.985  26.836 -0.2091 -0.2666  0.1278
 2595DDP     P215567  12.552  18.375  27.461  0.0646 -0.0799  0.0421
 2595DDP     C215568  12.558  18.085  27.821 -0.1781  0.0882 -0.1210
 2595DDP     C315569  12.867  17.679  27.028  0.0445 -0.0116  0.1728
 2595DDP     C415570  12.581  18.765  26.865  0.0503 -0.1521  0.1803
 2596DDP     C115571  29.256  20.585  12.480  0.0397 -0.0499  0.0579
 2596DDP     P115572  29.404  20.805  12.888  0.1036  0.0673  0.0716
 2596DDP     P215573  28.860  20.332  12.508 -0.3078 -0.0448  0.1416
 2596DDP     C215574  28.771  19.940  12.625 -0.1571  0.1358  0.0778
 2596DDP     C315575  29.423  21.225  13.164 -0.4900 -0.0881  0.2634
 2596DDP     C415576  29.122  20.866  12.028  0.1193  0.2361 -0.2801
 2597DDP     C115577  10.418  26.064   4.657  0.1389 -0.0423 -0.3357
 2597DDP     P115578  10.586  26.401   4.926  0.0475 -0.3054  0.1395
 2597DDP     P215579  10.017  25.959   4.776  0.0291 -0.1712  0.1287
 2597DDP     C215580   9.692  26.042   4.990 -0.2504  0.0563 -0.1237
 2597DDP     C315581  10.519  26.698   5.174 -0.0449  0.2603  0.0964
 2597DDP     C415582  10.638  25.732   4.431 -0.1975 -0.0716 -0.0921
 2598DDP     C115583  21.137  23.981  27.964  0.1119 -0.0940  0.1180
 2598DDP     P115584  20.778  23.629  27.979 -0.1967  0.2000 -0.0702
 2598DDP     P215585  21.498  23.889  28.149  0.0064 -0.0933  0.0607
 2598DDP     C215586  21.748  24.011  28.443 -0.1110  0.2376  0.1803
 2598DDP     C315587  20.552  23.537  27.772  0.0474  0.1290 -0.2809
 2598DDP     C415588  21.295  24.209  27.699 -0.0984 -0.0315  0.2491
 2599DDP     C115589  17.846   7.638  17.106  0.2092  0.1845  0.1578
 2599DDP     P115590  17.998   7.356  16.664 -0.2019  0.0253 -0.3465
 2599DDP     P215591  17.459   7.901  17.220 -0.0936 -0.3078 -0.0133
 2599DDP     C215592  17.277   8.318  17.318 -0.3458  0.0291 -0.4189
 2599DDP     C315593  18.195   7.520  16.294  0.3003 -0.2524 -0.3641
 2599DDP     C415594  18.108   7.677  17.506 -0.1215  0.1947  0.0043
 2600DDP     C115595  29.549   0.853  28.097 -0.0835  0.0523  0.1291
 2600DDP     P115596  29.900   0.950  27.788 -0.2005  0.1026  0.0710
 2600DDP     P215597  29.349   1.207  28.176  0.0133  0.1420  0.2872
 2600DDP     C215598  29.039   1.420  28.366 -0.2223  0.0658 -0.0981
 2600DDP     C315599  29.880   0.958  27.407  0.2120  0.1357  0.4706
 2600DDP     C415600  29.359   0.401  28.147 -0.0648  0.1511 -0.0441
 2601DDP     C115601   7.878  16.350  19.299  0.0563  0.0718  0.2391
 2601DDP     P115602   7.848  15.968  19.435 -0.2041 -0.0847 -0.1471
 2601DDP     P215603   7.493  16.581  19.202  0.2690  0.1202 -0.2388
 2601DDP     C215604   7.298  16.950  19.130  0.2299 -0.0034  0.2197
 2601DDP     C315605   7.592  15.563  19.515 -0.0989  0.3492 -0.3801
 2601DDP     C415606   8.342  16.548  19.198 -0.3518 -0.2021  0.3672
 2602DDP     C115607   9.195   6.513  20.113  0.0355 -0.1203  0.0223
 2602DDP     P115608   9.566   6.337  20.180 -0.1742 -0.1626  0.1902
 2602DDP     P215609   8.840   6.502  19.837 -0.2120  0.1155  0.2171
 2602DDP     C215610   8.743   6.353  19.374 -0.1621  0.0317 -0.1952
 2602DDP     C315611   9.638   6.772  20.397  0.0409  0.0442 -0.0718
 2602DDP     C415612   9.121   6.685  20.420  0.1482 -0.1939 -0.0084
 2603DDP     C115613  25.189  12.155  22.786  0.2702  0.1628  0.1835
 2603DDP     P115614  25.088  12.389  23.034  0.2025 -0.1266 -0.0609
 2603DDP     P215615  25.096  11.699  22.766  0.3920  0.1208 -0.0394
 2603DDP     C215616  24.835  11.484  23.043  0.0159 -0.0273 -0.0041
 2603DDP     C315617  25.001  12.406  23.500 -0.0725 -0.0865 -0.1060
 2603DDP     C415618  25.633  12.298  22.534  0.2846 -0.1200 -0.0535
 2604DDP     C115619  30.199   5.354  14.772  0.1914 -0.2394 -0.4016
 2604DDP     P115620   0.105   5.396  15.214 -0.3651 -0.2505 -0.2841
 2604DDP     P215621  29.803   5.504  14.754  0.1709 -0.0414 -0.0254
 2604DDP     C215622  29.455   5.203  14.629 -0.1111  0.0333  0.1317
 2604DDP     C315623  -0.020   5.071  15.549 -0.0681  0.0675 -0.2695
 2604DDP     C415624  -0.022   4.991  14.514 -0.1678 -0.0607 -0.3059
 2605DDP     C115625  20.878   4.066  12.403  0.1156 -0.1225  0.0416
 2605DDP     P115626  20.761   4.425  12.605 -0.0493  0.0232 -0.0439
 2605DDP     P215627  20.679   3.730  12.192 -0.1493 -0.0432 -0.0509
 2605DDP     C215628  20.446   3.399  11.961 -0.1570  0.0763 -0.0893
 2605DDP     C315629  20.799   4.905  12.838  0.0381  0.1651  0.0406
 2605DDP     C415630  21.287   4.207  12.490 -0.0424  0.2528 -0.1452
 2606DDP     C115631   3.417  10.657  22.240  0.0103 -0.0260 -0.1325
 2606DDP     P115632   3.904  10.728  22.430  0.0827 -0.1577 -0.0085
 2606DDP     P215633   3.195  11.066  22.320  0.2427 -0.0804  0.5440
 2606DDP     C215634   3.196  11.412  21.968 -0.0864 -0.0541  0.1133
 2606DDP     C315635   3.980  10.826  22.855 -0.5399  0.1211  0.0487
 2606DDP     C415636   3.172  10.291  22.198 -0.0259 -0.0109 -0.0462
 2607DDP     C115637   2.163  28.873  25.157 -0.0452  0.0884  0.0622
 2607DDP     P115638   2.284  28.520  25.247  0.3065  0.1294 -0.2698
 2607DDP     P215639   1.847  29.051  25.307 -0.0513  0.1549 -0.5935
 2607DDP     C215640   1.692  29.484  25.150 -0.2267  0.3536 -0.0642
 2607DDP     C315641   2.577  28.113  25.142 -0.0339 -0.1529 -0.1392
 2607DDP     C415642   2.297  28.956  24.720  0.2182  0.0970 -0.2652
 2608DDP     C115643  19.792  19.511  13.942  0.1237  0.1234  0.3826
 2608DDP     P115644  19.979  19.204  13.644  0.0518 -0.0175  0.3930
 2608DDP     P215645  19.474  19.358  14.274 -0.0490 -0.1682  0.2306
 2608DDP     C215646  19.270  19.089  14.382  0.0541 -0.0710  0.1031
 2608DDP     C315647  19.580  18.837  13.441  0.2013  0.1051 -0.0088
 2608DDP     C415648  19.547  19.871  13.771  0.1449  0.0879 -0.0044
 2609DDP     C115649  10.390   1.733  17.247 -0.0963 -0.2957  0.1683
 2609DDP     P115650  10.079   1.725  17.630  0.0760  0.0766  0.0933
 2609DDP     P215651  10.364   2.092  17.002  0.3193 -0.3666  0.0944
 2609DDP     C215652  10.496   2.287  16.681 -0.3571 -0.2150 -0.0954
 2609DDP     C315653  10.087   1.832  18.076 -0.2335 -0.1411 -0.1493
 2609DDP     C415654  10.207   1.427  16.859 -0.2114 -0.0946  0.0725
 2610DDP     C115655  18.289  24.042   0.512  0.0040 -0.1563 -0.1368
 2610DDP     P115656  18.558  24.304   0.532 -0.2907  0.1463 -0.1347
 2610DDP     P215657  17.970  23.975   0.796  0.0665 -0.0856  0.2575
 2610DDP     C215658  17.720  23.676   0.977 -0.1699 -0.1111  0.1659
 2610DDP     C315659  18.612  24.753   0.542  0.2566  0.0713  0.0878
 2610DDP     C415660  18.386  23.797   0.167  0.3377 -0.0817  0.0305
 2611DDP     C115661  18.774  26.102  14.577 -0.0015  0.3147  0.0313
 2611DDP     P115662  19.162  26.141  14.427  0.2919  0.0482 -0.0010
 2611DDP     P215663  18.650  25.744  14.593  0.3951  0.1270  0.3496
 2611DDP     C215664  18.694  25.350  14.831  0.3095  0.2436  0.1126
 2611DDP     C315665  19.212  26.430  14.109 -0.0055 -0.0772  0.1174
 2611DDP     C415666  18.479  26.384  14.326  0.2688  0.4374  0.3675
 2612DDP     C115667   8.643   2.592   4.657  0.1094 -0.4508  0.0824
 2612DDP     P115668   8.474   2.434   4.982 -0.3685  0.2779  0.3294
 2612DDP     P215669   8.621   2.919   4.344  0.3999 -0.2798  0.1021
 2612DDP     C215670   8.914   3.053   4.052 -0.2258 -0.0997  0.1840
 2612DDP     C315671   8.133   2.306   5.366 -0.0761  0.2408  0.3142
 2612DDP     C415672   9.069   2.392   4.650 -0.0900  0.1885  0.3327
 2613DDP     C115673  23.996  28.093  13.673  0.1075  0.1640  0.4700
 2613DDP     P115674  23.982  27.994  13.210  0.0935  0.1831  0.0289
 2613DDP     P215675  23.558  28.167  13.917  0.0088 -0.0664  0.0223
 2613DDP     C215676  23.336  28.318  14.237  0.1625  0.1579 -0.1869
 2613DDP     C315677  24.191  27.647  12.998 -0.0510  0.0071 -0.0979
 2613DDP     C415678  24.363  28.159  13.640  0.0482 -0.0143  0.1191
 2614DDP     C115679  23.504  28.260   8.179  0.0751 -0.1224 -0.4549
 2614DDP     P115680  23.381  28.614   8.392  0.0164  0.1058 -0.2320
 2614DDP     P215681  23.852  28.060   8.392  0.3404 -0.0528  0.2877
 2614DDP     C215682  24.166  27.905   8.666 -0.0448  0.1340 -0.0256
 2614DDP     C315683  23.585  29.009   8.561 -0.2173  0.1648  0.0859
 2614DDP     C415684  23.300  28.098   7.809 -0.2284  0.0769 -0.1043
 2615DDP     C115685  18.989  24.848  19.601 -0.3017 -0.0742 -0.1245
 2615DDP     P115686  18.899  25.216  19.472 -0.2068  0.1943 -0.1941
 2615DDP     P215687  19.294  24.561  19.305 -0.1815 -0.3821  0.0032
 2615DDP     C215688  19.631  24.753  19.047 -0.0131  0.0282 -0.0593
 2615DDP     C315689  18.812  25.300  19.036  0.1348 -0.4184 -0.0716
 2615DDP     C415690  18.778  24.666  19.875  0.1134 -0.2214  0.0138
 2616DDP     C115691  24.268  22.837   8.087  0.2561  0.0868 -0.2213
 2616DDP     P115692  24.426  22.465   8.089 -0.0833  0.1050 -0.0812
 2616DDP     P215693  23.990  22.818   8.379 -0.1264 -0.2519  0.3324
 2616DDP     C215694  23.777  22.538   8.661 -0.0012  0.0274  0.0570
 2616DDP     C315695  24.752  22.143   8.266 -0.0240  0.0402  0.1861
 2616DDP     C415696  24.488  23.265   7.974 -0.1197  0.0891  0.1010
 2617DDP     C115697  11.247  19.349   2.215  0.0843 -0.0177  0.0069
 2617DDP     P115698  11.097  19.789   2.202  0.0802 -0.0578  0.0705
 2617DDP     P215699  11.528  19.158   1.955  0.2137 -0.0110  0.0732
 2617DDP     C215700  11.706  19.276   1.626 -0.1867  0.0308  0.0257
 2617DDP     C315701  11.384  20.192   2.410  0.0733  0.1907 -0.1980
 2617DDP     C415702  10.903  19.323   2.513  0.0166 -0.3964  0.0932
 2618DDP     C115703   1.824  22.852  24.466  0.1564 -0.1015  0.4643
 2618DDP     P115704   1.890  23.232  24.288  0.0343  0.1359 -0.0599
 2618DDP     P215705   1.386  22.949  24.545 -0.0642 -0.1470 -0.3255
 2618DDP     C215706   1.081  23.218  24.515 -0.0115  0.0763  0.2033
 2618DDP     C315707   2.133  23.299  23.865  0.0574  0.0140 -0.0341
 2618DDP     C415708   2.017  22.694  24.779  0.0404  0.1904  0.0813
 2619DDP     C115709   8.899   3.869  20.274 -0.0381 -0.4064 -0.0762
 2619DDP     P115710   8.927   3.442  20.474 -0.0423 -0.1368 -0.0393
 2619DDP     P215711   8.608   4.123  20.276  0.0520 -0.2486  0.1285
 2619DDP     C215712   8.506   4.523  20.396  0.0029 -0.0387  0.2411
 2619DDP     C315713   8.976   3.082  20.147 -0.4048  0.1045 -0.0895
 2619DDP     C415714   9.225   3.984  20.081  0.0342 -0.0635  0.1651
 2620DDP     C115715  21.848  30.204  20.582  0.4166  0.1283 -0.0121
 2620DDP     P115716  22.049   0.236  20.392  0.1806  0.2083  0.0204
 2620DDP     P215717  21.989  29.975  20.269  0.2985 -0.0710  0.4175
 2620DDP     C215718  22.169  29.573  20.048  0.1526  0.1446 -0.1410
 2620DDP     C315719  22.318   0.515  20.301  0.4091  0.0826  0.3455
 2620DDP     C415720  21.475  30.153  20.768 -0.2074  0.2114 -0.0008
 2621DDP     C115721  29.843   7.602   6.801  0.1179 -0.0826  0.1365
 2621DDP     P115722  29.861   7.324   6.448 -0.2623 -0.0474 -0.2142
 2621DDP     P215723  30.061   8.033   6.684 -0.0810  0.0316 -0.0298
 2621DDP     C215724   0.028   8.351   6.633  0.1505  0.1704  0.4278
 2621DDP     C315725  30.072   7.370   6.076  0.1292 -0.0506 -0.0833
 2621DDP     C415726  29.745   7.505   7.210 -0.2184 -0.0363  0.1514
 2622DDP     C115727   5.493  25.995  21.260 -0.0574 -0.1320 -0.2966
 2622DDP     P115728   5.767  26.148  20.985 -0.0521  0.2980  0.2628
 2622DDP     P215729   5.311  26.172  21.501  0.1382 -0.0701  0.0152
 2622DDP     C215730   5.345  26.179  21.948 -0.0485  0.2894  0.1306
 2622DDP     C315731   6.019  26.273  20.689 -0.0322  0.1394 -0.0422
 2622DDP     C415732   5.473  25.608  21.005 -0.2682  0.0023 -0.0585
 2623DDP     C115733  20.752  21.810   8.115  0.1626 -0.2107  0.2478
 2623DDP     P115734  20.712  21.377   7.919 -0.1805  0.1694 -0.1677
 2623DDP     P215735  21.093  22.016   7.936  0.1702 -0.0661 -0.1883
 2623DDP     C215736  21.193  22.244   7.564 -0.0894  0.3498 -0.2993
 2623DDP     C315737  20.609  21.003   7.653  0.0887  0.4255 -0.1364
 2623DDP     C415738  20.431  21.871   8.371  0.0808 -0.2638  0.1226
 2624DDP     C115739   0.590  12.122   7.341  0.0180 -0.0056  0.0377
 2624DDP     P115740   0.178  12.376   7.388 -0.2888 -0.2396 -0.0142
 2624DDP     P215741   0.472  11.735   7.188 -0.0033  0.3081  0.2127
 2624DDP     C215742   0.432  11.863   6.752  0.2838 -0.0618 -0.2023
 2624DDP     C315743  30.079  12.505   7.499  0.0832  0.2014  0.1990
 2624DDP     C415744   1.078  12.151   7.467 -0.0990 -0.0943 -0.0644
 2625DDP     C115745  27.519  27.529  27.054  0.0668  0.0137 -0.1045
 2625DDP     P115746  27.247  27.890  27.314 -0.0050  0.1338 -0.1296
 2625DDP     P215747  27.589  27.491  26.615 -0.0669 -0.2911 -0.3004
 2625DDP     C215748  27.885  27.395  26.265  0.0417 -0.1802 -0.0871
 2625DDP     C315749  26.895  28.038  27.418 -0.0367 -0.0854  0.4011
 2625DDP     C415750  27.703  27.304  27.449 -0.1816 -0.0238  0.1688
 2626DDP     C115751  10.480   7.631  25.821 -0.1211  0.2425  0.0562
 2626DDP     P115752  10.037   7.674  25.958 -0.3349  0.1095 -0.1243
 2626DDP     P215753  10.549   7.266  26.001  0.3014 -0.4178  0.0064
 2626DDP     C215754  10.819   6.959  26.077  0.2128 -0.2542 -0.1000
 2626DDP     C315755   9.689   7.707  25.710 -0.1855  0.0657  0.1261
 2626DDP     C415756  10.707   7.675  25.417 -0.1874  0.3526  0.0552
 2627DDP     C115757  27.327  23.244   2.181 -0.4695  0.0513  0.2056
 2627DDP     P115758  27.162  23.649   1.996 -0.0141  0.0790 -0.0374
 2627DDP     P215759  26.939  22.920   2.232  0.1358 -0.0566 -0.0788
 2627DDP     C215760  26.613  22.553   2.210  0.1893  0.0419 -0.0898
 2627DDP     C315761  27.072  23.996   2.168  0.1238  0.0017  0.1809
 2627DDP     C415762  27.721  23.250   2.475 -0.0702  0.2118 -0.1913
 2628DDP     C115763  12.926  18.049  20.188 -0.0405  0.2291 -0.1202
 2628DDP     P115764  13.005  17.968  19.742  0.1529 -0.2535  0.1936
 2628DDP     P215765  13.242  18.155  20.632  0.3479 -0.0724  0.2978
 2628DDP     C215766  13.286  17.978  20.990 -0.1137  0.1517  0.1626
 2628DDP     C315767  13.096  17.527  19.470  0.1182 -0.0436  0.0359
 2628DDP     C415768  12.456  18.142  20.292 -0.0914  0.0296  0.1178
 2629DDP     C115769  10.349   8.426  25.442  0.0615  0.1914  0.1472
 2629DDP     P115770  10.073   8.601  25.069 -0.0633  0.1032  0.0064
 2629DDP     P215771  10.729   8.475  25.584  0.0837  0.1272  0.2815
 2629DDP     C215772  10.966   8.143  25.457 -0.0349 -0.1775 -0.2315
 2629DDP     C315773   9.965   9.048  24.856  0.0900  0.1983  0.0731
 2629DDP     C415774  10.128   8.014  25.549 -0.0451 -0.0897  0.1928
 2630DDP     C115775  12.758   9.771   4.279 -0.0109  0.0098  0.0832
 2630DDP     P115776  12.557   9.636   3.943 -0.1071 -0.1270 -0.1444
 2630DDP     P215777  12.685   9.446   4.604 -0.3645  0.0493 -0.1688
 2630DDP     C215778  12.702   9.320   5.042  0.0795 -0.1745  0.2614
 2630DDP     C315779  12.239   9.901   3.810  0.4107  0.0696 -0.0726
 2630DDP     C415780  13.074  10.119   4.289  0.0145  0.0104 -0.1462
 2631DDP     C115781  21.255   5.909   7.092  0.1123  0.0193  0.2467
 2631DDP     P115782  21.291   5.470   6.848 -0.2347 -0.2091  0.2649
 2631DDP     P215783  21.184   6.368   6.810 -0.0975 -0.3536 -0.0351
 2631DDP     C215784  20.966   6.730   6.997 -0.5354  0.1318 -0.1688
 2631DDP     C315785  21.405   5.099   6.610  0.1076  0.2914  0.2650
 2631DDP     C415786  21.440   5.888   7.506 -0.0235 -0.0389 -0.4215
 2632DDP     C115787   7.173   4.332  26.833  0.0516  0.0650  0.0839
 2632DDP     P115788   6.949   4.013  26.950 -0.0433  0.2134  0.0427
 2632DDP     P215789   7.444   4.143  26.416  0.0426  0.0956  0.1723
 2632DDP     C215790   7.675   3.888  26.277 -0.2790  0.1263  0.0506
 2632DDP     C315791   6.803   3.644  27.113 -0.0036 -0.0489 -0.1908
 2632DDP     C415792   7.332   4.623  27.193  0.0212 -0.0915  0.0653
 2633DDP     C115793   6.199  12.650  20.243  0.1169 -0.0680  0.1708
 2633DDP     P115794   5.991  12.299  20.232 -0.3237 -0.1829  0.2040
 2633DDP     P215795   6.395  12.907  19.910 -0.1026  0.0386 -0.1060
 2633DDP     C215796   6.083  13.067  19.543 -0.2909  0.2969 -0.2363
 2633DDP     C315797   5.586  12.333  20.369  0.0680  0.0795 -0.0772
 2633DDP     C415798   6.521  12.847  20.563 -0.0246 -0.0320  0.1572
 2634DDP     C115799  15.454  29.489   7.064  0.1262 -0.0857 -0.2611
 2634DDP     P115800  15.009  29.252   7.314 -0.2010 -0.0954  0.0402
 2634DDP     P215801  15.810  29.417   7.213  0.1329  0.1412 -0.1772
 2634DDP     C215802  16.022  29.129   7.152  0.1602 -0.4075 -0.0863
 2634DDP     C315803  14.948  29.313   7.678 -0.1686  0.0727  0.2133
 2634DDP     C415804  15.343  29.719   6.590  0.2445 -0.4040 -0.0300
 2635DDP     C115805   8.598  12.968   4.904 -0.0153 -0.2462 -0.3016
 2635DDP     P115806   8.317  12.840   4.613 -0.1467 -0.1984  0.2463
 2635DDP     P215807   8.571  13.367   5.037  0.1727  0.1852 -0.1744
 2635DDP     C215808   8.291  13.710   5.192  0.0731 -0.0475  0.2086
 2635DDP     C315809   8.320  12.911   4.165  0.1464  0.1725 -0.0055
 2635DDP     C415810   9.037  12.825   4.919  0.0484  0.0744 -0.1715
 2636DDP     C115811   9.040  27.523  18.888 -0.0065 -0.1757 -0.4711
 2636DDP     P115812   9.112  27.354  19.241 -0.2624  0.0626  0.0251
 2636DDP     P215813   9.160  27.203  18.465  0.1270 -0.0725 -0.1365
 2636DDP     C215814   9.514  26.903  18.285  0.1275  0.0650  0.0575
 2636DDP     C315815   9.195  27.064  19.609  0.0364 -0.3520 -0.1919
 2636DDP     C415816   8.860  27.848  18.853 -0.0539  0.0048 -0.0380
 2637DDP     C115817   2.865   6.741  19.051  0.1954  0.0032 -0.0736
 2637DDP     P115818   3.051   6.873  19.463 -0.0425 -0.1882 -0.1607
 2637DDP     P215819   2.567   6.366  18.910 -0.0038 -0.1208 -0.3359
 2637DDP     C215820   2.481   5.923  18.756 -0.1396 -0.2487 -0.1756
 2637DDP     C315821   3.241   7.124  19.753  0.1295  0.1139  0.3760
 2637DDP     C415822   2.628   7.124  18.869  0.0268  0.0212  0.1488
 2638DDP     C115823  26.551  29.079  19.917 -0.3373 -0.1015  0.1621
 2638DDP     P115824  26.467  29.031  19.458 -0.1742  0.2788  0.3071
 2638DDP     P215825  26.500  29.472  20.107 -0.3131 -0.0956 -0.1033
 2638DDP     C215826  26.708  29.821  20.177  0.3108 -0.0955 -0.0271
 2638DDP     C315827  26.474  28.733  19.210 -0.0806 -0.2007 -0.0375
 2638DDP     C415828  26.957  28.830  20.163  0.1677 -0.0424 -0.0899
 2639DDP     C115829  13.879  18.038   4.767 -0.0054 -0.3853  0.2572
 2639DDP     P115830  13.544  17.672   4.872 -0.0172 -0.1041  0.0159
 2639DDP     P215831  13.949  18.324   4.953 -0.0996 -0.0718  0.1639
 2639DDP     C215832  14.316  18.505   5.153  0.2129 -0.0823 -0.0732
 2639DDP     C315833  13.537  17.312   5.082  0.2247  0.2535  0.0736
 2639DDP     C415834  14.091  18.062   4.325  0.0309  0.1742 -0.2394
 2640DDP     C115835  20.290   7.359   3.895 -0.0722 -0.2165  0.0345
 2640DDP     P115836  20.167   7.777   4.030  0.1180  0.0735 -0.0851
 2640DDP     P215837  20.389   6.934   4.081  0.1576 -0.0524  0.0015
 2640DDP     C215838  20.704   6.733   4.258 -0.0128 -0.0291 -0.0461
 2640DDP     C315839  20.006   7.816   4.371  0.3919  0.0445 -0.2627
 2640DDP     C415840  20.656   7.365   3.563  0.0053 -0.3315  0.1342
 2641DDP     C115841   2.321  29.669  20.817 -0.0097 -0.0743 -0.1768
 2641DDP     P115842   2.411  29.661  21.262  0.2468  0.0706 -0.0250
 2641DDP     P215843   2.283  30.188  20.833 -0.0114 -0.0248  0.1703
 2641DDP     C215844   2.415   0.344  20.912  0.1612 -0.1470  0.0477
 2641DDP     C315845   2.543  29.853  21.669 -0.0787 -0.0906 -0.0604
 2641DDP     C415846   2.236  29.410  20.371 -0.4431  0.3211  0.1089
 2642DDP     C115847  12.077   0.100  21.193  0.2243  0.2539 -0.0312
 2642DDP     P115848  11.880   0.338  21.354  0.1865  0.2486 -0.0806
 2642DDP     P215849  12.020  30.026  21.295 -0.0114  0.0262 -0.0001
 2642DDP     C215850  11.609  29.860  21.356 -0.2480  0.0639  0.2889
 2642DDP     C315851  11.356   0.511  21.472 -0.1873 -0.3178 -0.0999
 2642DDP     C415852  12.197   0.132  20.752 -0.2242 -0.3048  0.0924
 2643DDP     C115853  25.056  20.799  26.814 -0.1452 -0.3281  0.0609
 2643DDP     P115854  24.876  20.467  27.031  0.1431  0.1040 -0.2974
 2643DDP     P215855  25.430  20.709  26.588  0.0550  0.0563 -0.1360
 2643DDP     C215856  25.676  20.454  26.399 -0.2371  0.2460  0.2615
 2643DDP     C315857  24.928  20.155  27.409 -0.0872  0.0128 -0.0156
 2643DDP     C415858  24.686  20.847  26.750  0.1050  0.2612  0.0072
 2644DDP     C115859  15.317   1.897   7.918  0.4242  0.1861 -0.1927
 2644DDP     P115860  14.993   2.188   7.871  0.0645  0.0406 -0.1814
 2644DDP     P215861  15.322   1.652   8.287  0.0025 -0.0957 -0.1150
 2644DDP     C215862  15.414   1.477   8.630 -0.0836  0.0962 -0.2542
 2644DDP     C315863  14.534   2.232   7.934  0.1303 -0.2601 -0.2760
 2644DDP     C415864  15.402   1.579   7.696  0.0277  0.2636  0.0003
 2645DDP     C115865  26.769  22.268  14.127 -0.2220 -0.4102 -0.3275
 2645DDP     P115866  26.463  22.558  13.856  0.1217 -0.2184 -0.2326
 2645DDP     P215867  26.889  21.841  13.968 -0.3813 -0.0284 -0.1235
 2645DDP     C215868  27.282  21.807  13.909  0.1889  0.0226 -0.1890
 2645DDP     C315869  26.377  22.916  13.697 -0.2982  0.0256 -0.0773
 2645DDP     C415870  27.034  22.621  14.302  0.2514 -0.0477  0.0830
 2646DDP     C115871  20.682  11.405  22.081 -0.1476 -0.1867 -0.2168
 2646DDP     P115872  20.617  11.769  22.292  0.2285 -0.0319  0.1601
 2646DDP     P215873  21.017  11.148  21.886  0.0830 -0.1187 -0.0245
 2646DDP     C215874  21.491  11.188  21.725  0.0897  0.0127 -0.1124
 2646DDP     C315875  20.780  11.853  22.708 -0.0582 -0.1158  0.0506
 2646DDP     C415876  20.255  11.222  22.257  0.0844  0.2121 -0.1491
 2647DDP     C115877  10.728   3.534  26.122 -0.3418  0.1189  0.1054
 2647DDP     P115878  10.989   3.224  26.298 -0.0454 -0.1272 -0.1030
 2647DDP     P215879  10.388   3.373  26.287  0.2770  0.1755  0.1344
 2647DDP     C215880  10.193   3.182  26.570  0.2279  0.2114  0.1456
 2647DDP     C315881  11.506   3.098  26.455 -0.0383  0.0739 -0.0878
 2647DDP     C415882  10.894   3.679  25.788 -0.2860  0.1356 -0.1443
 2648DDP     C115883   1.357  19.864   0.294 -0.1219 -0.1088  0.0354
 2648DDP     P115884   1.585  19.523   0.266 -0.1200  0.0749 -0.1625
 2648DDP     P215885   1.016  19.849   0.425  0.1597  0.1030 -0.0190
 2648DDP     C215886   0.533  19.874   0.188 -0.1005  0.0819  0.0504
 2648DDP     C315887   1.807  19.343   0.616 -0.2401  0.0320  0.1220
 2648DDP     C415888   1.348  20.231   0.026  0.1540  0.2534  0.1120
 2649DDP     C115889   6.871   9.597   0.754  0.1586 -0.6188 -0.0093
 2649DDP     P115890   6.466   9.682   0.633  0.0004  0.3625  0.1337
 2649DDP     P215891   7.015   9.417   0.437 -0.0577 -0.2035 -0.1944
 2649DDP     C215892   7.190   9.233   0.110  0.1094  0.1840  0.0135
 2649DDP     C315893   6.136   9.289   0.548 -0.0173 -0.0866 -0.0360
 2649DDP     C415894   6.928   9.229   1.056 -0.0029  0.2610  0.1049
 2650DDP     C115895   6.488  16.425  10.891  0.0331 -0.0648  0.2901
 2650DDP     P115896   6.839  16.409  10.620  0.0169  0.3217  0.1154
 2650DDP     P215897   6.285  16.213  10.669  0.1673  0.0762  0.0699
 2650DDP     C215898   5.921  15.933  10.651  0.3261  0.1290  0.0025
 2650DDP     C315899   6.813  16.131  10.246 -0.0345  0.0918  0.0031
 2650DDP     C415900   6.428  16.509  11.293 -0.2768  0.2603 -0.2614
 2651DDP     C115901  13.781  25.077  22.384 -0.3599  0.2370 -0.0190
 2651DDP     P115902  14.133  24.830  22.172  0.2963 -0.0750  0.2387
 2651DDP     P215903  13.374  25.117  22.306 -0.2131 -0.0428 -0.3311
 2651DDP     C215904  13.105  25.478  22.162  0.0046  0.1706  0.1138
 2651DDP     C315905  14.218  24.844  21.696 -0.1290 -0.3328 -0.0729
 2651DDP     C415906  13.929  25.414  22.561 -0.0471 -0.1790  0.1765
 2652DDP     C115907   9.067   1.546  14.984  0.0048  0.1843 -0.0161
 2652DDP     P115908   9.195   1.892  15.282 -0.0405 -0.1108  0.1017
 2652DDP     P215909   9.229   1.160  14.806  0.2536 -0.3033  0.0612
 2652DDP     C215910   9.554   0.878  14.659  0.1941  0.0439 -0.1308
 2652DDP     C315911   9.101   2.098  15.592  0.1177  0.0253  0.0078
 2652DDP     C415912   8.601   1.352  14.871 -0.2700  0.3164 -0.0451
 2653DDP     C115913   8.575  29.766   8.389  0.0619 -0.5538 -0.0127
 2653DDP     P115914   8.724  29.339   8.666 -0.1878  0.2813  0.2123
 2653DDP     P215915   8.121  29.909   8.320  0.1340  0.3671  0.1447
 2653DDP     C215916   7.808  30.288   8.290 -0.2769  0.1936 -0.1194
 2653DDP     C315917   8.943  28.915   8.559  0.0853 -0.0339  0.0998
 2653DDP     C415918   8.847  30.159   8.458 -0.0974 -0.1495  0.0114
 2654DDP     C115919  10.395  12.886   3.943  0.2101  0.0621  0.1247
 2654DDP     P115920  10.616  13.068   3.660 -0.1372  0.0401 -0.0010
 2654DDP     P215921  10.500  12.525   3.817  0.1127  0.0307 -0.0032
 2654DDP     C215922  10.664  12.428   3.390  0.0556 -0.2080 -0.1922
 2654DDP     C315923  10.783  12.929   3.218  0.0710 -0.2064  0.0230
 2654DDP     C415924  10.137  12.955   4.298  0.0044  0.0572  0.0786
 2655DDP     C115925   8.936   8.944   2.497 -0.0352 -0.3587 -0.0334
 2655DDP     P115926   8.604   9.254   2.658  0.1452  0.0197 -0.0606
 2655DDP     P215927   9.047   9.090   2.036 -0.0459  0.2637  0.0658
 2655DDP     C215928   9.245   9.010   1.688  0.0125 -0.2597 -0.0543
 2655DDP     C315929   8.466   9.633   2.563 -0.0414 -0.0910 -0.1590
 2655DDP     C415930   8.992   8.440   2.615  0.3218  0.0739 -0.1384
 2656DDP     C115931  10.576  12.356   5.239  0.1173 -0.1111 -0.1825
 2656DDP     P115932  10.765  12.294   4.895 -0.1137 -0.1653 -0.0472
 2656DDP     P215933  10.238  12.195   5.357 -0.0044  0.1255  0.0470
 2656DDP     C215934   9.903  12.457   5.134 -0.2040  0.0301  0.0863
 2656DDP     C315935  11.192  12.363   4.757  0.0054  0.2393 -0.0040
 2656DDP     C415936  10.915  12.575   5.468 -0.1857 -0.1484 -0.1238
 2657DDP     C115937   6.244  25.973   9.724  0.0930  0.0209  0.0519
 2657DDP     P115938   6.721  26.282   9.710  0.1060  0.0906  0.0799
 2657DDP     P215939   5.988  26.269   9.944 -0.0802 -0.1774 -0.1062
 2657DDP     C215940   5.777  26.245  10.323  0.0691 -0.3316 -0.0452
 2657DDP     C315941   6.756  26.662   9.381 -0.4031  0.1435  0.0129
 2657DDP     C415942   6.150  25.630   9.381  0.0355 -0.1806 -0.0781
 2658DDP     C115943  29.440  24.518  18.194  0.1415 -0.0526  0.1626
 2658DDP     P115944  29.382  25.009  17.864  0.4348  0.0525 -0.1078
 2658DDP     P215945  29.186  24.527  18.533  0.0227  0.0889  0.4066
 2658DDP     C215946  28.818  24.436  18.833 -0.1985  0.3458  0.0424
 2658DDP     C315947  29.151  25.353  17.692 -0.1068  0.0446  0.1523
 2658DDP     C415948  29.836  24.263  18.121 -0.1681 -0.2492  0.2001
 2659DDP     C115949   3.745   0.258  17.421 -0.0035  0.0381  0.2164
 2659DDP     P115950   3.804  30.158  17.558 -0.2552  0.0008  0.1963
 2659DDP     P215951   3.378   0.447  17.327  0.1055 -0.2191  0.1001
 2659DDP     C215952   3.226   0.347  16.920  0.0268 -0.1974  0.0344
 2659DDP     C315953   3.946  29.862  17.886  0.0404  0.1488  0.1200
 2659DDP     C415954   4.192   0.516  17.283  0.4576  0.3176 -0.0053
 2660DDP     C115955  13.360  23.166   4.021  0.2999 -0.1242  0.3823
 2660DDP     P115956  13.219  23.051   4.372  0.1397  0.2382  0.0558
 2660DDP     P215957  13.054  23.230   3.723 -0.0843 -0.1737  0.0258
 2660DDP     C215958  12.689  23.018   3.693 -0.0887  0.4782 -0.1752
 2660DDP     C315959  13.351  23.055   4.821  0.1414 -0.3466  0.0464
 2660DDP     C415960  13.743  23.331   3.966  0.0238  0.1316  0.1252
 2661DDP     C115961  21.209   8.183  11.182 -0.1535  0.0646 -0.0991
 2661DDP     P115962  21.169   7.993  11.591  0.0517  0.1084  0.1716
 2661DDP     P215963  21.015   8.149  10.832 -0.0267  0.1982  0.0825
 2661DDP     C215964  21.151   7.911  10.500  0.0576  0.2432  0.0231
 2661DDP     C315965  21.239   8.139  12.044 -0.0219 -0.1610  0.2378
 2661DDP     C415966  21.533   8.569  10.952 -0.2383 -0.1163  0.1396
 2662DDP     C115967  29.996  23.359  14.497  0.0874 -0.2571  0.1432
 2662DDP     P115968  29.575  23.075  14.405 -0.0029 -0.1539 -0.0403
 2662DDP     P215969  29.850  23.730  14.355  0.1797 -0.1274  0.0172
 2662DDP     C215970  29.622  24.130  14.265 -0.0812  0.1553  0.0890
 2662DDP     C315971  29.551  22.754  14.135 -0.1850  0.2944  0.1781
 2662DDP     C415972   0.021  23.296  14.766  0.0218 -0.0639  0.2704
 2663DDP     C115973  20.677  29.204   0.910  0.1045  0.0032 -0.2027
 2663DDP     P115974  20.656  29.487   1.263  0.0359  0.2445  0.2295
 2663DDP     P215975  20.834  29.308   0.411  0.0761  0.3115  0.2465
 2663DDP     C215976  20.857  29.632   0.180  0.6771 -0.1938 -0.4293
 2663DDP     C315977  20.794  29.864   1.149 -0.1821  0.2640  0.1095
 2663DDP     C415978  20.555  28.809   1.028 -0.0985  0.2381  0.1349
 2664DDP     C115979  14.601   9.152  13.810 -0.2059  0.0941 -0.0185
 2664DDP     P115980  14.509   9.512  13.860  0.0518 -0.1432  0.1693
 2664DDP     P215981  15.043   8.938  13.831  0.1111  0.2244  0.2443
 2664DDP     C215982  15.434   8.975  14.049  0.1381  0.0543  0.0769
 2664DDP     C315983  14.221   9.806  13.706 -0.1020  0.0556 -0.2361
 2664DDP     C415984  14.176   8.941  13.749  0.1810  0.1168 -0.1778
 2665DDP     C115985   8.629  27.222   6.504  0.3730  0.0839  0.2899
 2665DDP     P115986   8.892  27.535   6.427 -0.0736  0.1158 -0.2823
 2665DDP     P215987   8.902  26.929   6.911  0.1032  0.1047  0.1004
 2665DDP     C215988   9.190  26.587   7.155  0.2806 -0.0371  0.0504
 2665DDP     C315989   9.278  27.562   6.489 -0.0065  0.2273 -0.0187
 2665DDP     C415990   8.315  27.116   6.310  0.0460  0.1001 -0.0004
 2666DDP     C115991  26.893  11.132   5.123  0.0908  0.1798 -0.2371
 2666DDP     P115992  27.154  10.806   5.124 -0.3516 -0.3960  0.0811
 2666DDP     P215993  26.582  11.184   4.716  0.1510  0.1456 -0.0069
 2666DDP     C215994  26.369  11.541   4.622  0.1598  0.2437 -0.1065
 2666DDP     C315995  27.316  10.373   5.240  0.0665  0.0465  0.0961
 2666DDP     C415996  27.080  11.552   5.269  0.1532 -0.2123 -0.1412
 2667DDP     C115997   3.009   9.515  19.992  0.0684 -0.0608 -0.3761
 2667DDP     P115998   2.622   9.543  20.349 -0.1330 -0.0913 -0.1570
 2667DDP     P215999   3.399   9.658  20.079 -0.0390  0.3620 -0.3620
 2667DDP     C216000   3.604  10.031  19.949  0.1425  0.0624  0.2090
 2667DDP     C316001   2.372   9.599  20.682  0.3373  0.2247 -0.0312
 2667DDP     C416002   2.881   9.352  19.638  0.1280  0.0482 -0.2302
 2668DDP     C116003   0.243  23.431   5.565  0.0293  0.2068 -0.4408
 2668DDP     P116004   0.196  23.355   6.060  0.1841  0.3423 -0.2348
 2668DDP     P216005   0.023  23.488   5.229 -0.0723 -0.0231 -0.0650
 2668DDP     C216006  30.070  23.200   4.944  0.2941  0.0988 -0.0949
 2668DDP     C316007   0.098  23.656   6.442 -0.0653 -0.1001  0.0267
 2668DDP     C416008   0.612  23.582   5.405 -0.2018  0.1202 -0.0369
 2669DDP     C116009  10.260   2.229  17.613  0.3988 -0.0489 -0.4864
 2669DDP     P116010   9.952   2.196  17.322 -0.1165  0.2308 -0.2458
 2669DDP     P216011  10.574   2.047  17.723 -0.0714  0.0680 -0.1799
 2669DDP     C216012  11.032   2.081  17.664  0.0663 -0.2929  0.1194
 2669DDP     C316013   9.558   2.238  16.966  0.1365  0.0648 -0.0618
 2669DDP     C416014  10.246   2.589  17.958 -0.0561  0.1255 -0.1654
 2670DDP     C116015  21.370  24.762   7.500  0.0056 -0.0195 -0.0169
 2670DDP     P116016  20.910  24.906   7.720 -0.0924  0.4494  0.0322
 2670DDP     P216017  21.734  24.692   7.752  0.3349  0.0185 -0.1300
 2670DDP     C216018  22.150  24.309   7.872  0.1850  0.2334 -0.3438
 2670DDP     C316019  20.438  25.016   7.788  0.1298  0.1766  0.3563
 2670DDP     C416020  21.418  24.786   7.016 -0.2740  0.4419 -0.0078
 2671DDP     C116021   5.114  20.849   4.682 -0.1429  0.1181 -0.2304
 2671DDP     P116022   4.932  21.125   4.776  0.1715 -0.2240  0.1690
 2671DDP     P216023   5.338  20.687   4.309 -0.1633 -0.2685  0.1348
 2671DDP     C216024   5.223  20.516   3.897  0.0319  0.1925 -0.2537
 2671DDP     C316025   4.501  21.222   4.723 -0.0421 -0.0480 -0.0798
 2671DDP     C416026   5.104  20.463   4.841  0.0494  0.0136 -0.0433
 2672DDP     C116027  11.626   0.680   3.852 -0.1848 -0.1196  0.2893
 2672DDP     P116028  11.847   0.439   3.683 -0.0778 -0.0009  0.1471
 2672DDP     P216029  11.225   0.414   3.873  0.1151 -0.0357  0.0600
 2672DDP     C216030  10.834   0.214   4.027  0.0704  0.0577  0.1036
 2672DDP     C316031  12.290   0.274   3.631 -0.0455  0.3687 -0.2111
 2672DDP     C416032  11.784   1.029   3.968  0.0248  0.0338 -0.0633
 2673DDP     C116033   1.864  11.858  19.859 -0.1517  0.1301 -0.2074
 2673DDP     P116034   1.759  12.214  19.541 -0.0043 -0.1178  0.2289
 2673DDP     P216035   2.118  11.503  19.617  0.0805 -0.2639  0.1910
 2673DDP     C216036   2.538  11.549  19.487  0.3038  0.0529 -0.0481
 2673DDP     C316037   1.665  12.589  19.646 -0.0349  0.1914 -0.0326
 2673DDP     C416038   1.862  11.917  20.246 -0.1517 -0.2710 -0.1450
 2674DDP     C116039  28.910  16.000   1.443  0.0307  0.0652 -0.1145
 2674DDP     P116040  28.672  16.018   1.066  0.0360  0.0085  0.2746
 2674DDP     P216041  29.375  16.232   1.519 -0.6205 -0.0902 -0.0161
 2674DDP     C216042  29.625  16.462   1.266  0.0670  0.1379  0.1898
 2674DDP     C316043  28.518  16.120   0.550  0.1879 -0.2914  0.0861
 2674DDP     C416044  28.690  15.725   1.843 -0.3481  0.2452  0.3627
 2675DDP     C116045  22.530  10.295  11.197  0.0640  0.0732 -0.0452
 2675DDP     P116046  22.804  10.207  11.170  0.0022  0.3197  0.1921
 2675DDP     P216047  22.550  10.823  11.096  0.0062  0.2427  0.3225
 2675DDP     C216048  22.454  11.151  10.633  0.0224  0.2628 -0.0563
 2675DDP     C316049  23.163   9.927  11.133  0.1740  0.0374  0.0055
 2675DDP     C416050  22.239   9.916  11.216 -0.2562 -0.1118 -0.0370
 2676DDP     C116051  21.356   8.999   4.495 -0.2467  0.1438 -0.2785
 2676DDP     P116052  21.693   8.806   4.668  0.0134  0.2965 -0.4061
 2676DDP     P216053  20.958   8.828   4.484  0.2829 -0.1512 -0.0571
 2676DDP     C216054  20.815   8.424   4.508 -0.3403  0.2106  0.3473
 2676DDP     C316055  21.976   8.544   4.774 -0.0621 -0.2797 -0.1497
 2676DDP     C416056  21.464   9.399   4.336  0.1861 -0.4216 -0.4414
 2677DDP     C116057  19.582   1.690   3.029 -0.1210  0.0330 -0.2493
 2677DDP     P116058  19.582   1.542   3.441 -0.2625  0.0240  0.0702
 2677DDP     P216059  19.653   1.511   2.628 -0.1020  0.2341 -0.1200
 2677DDP     C216060  19.764   1.622   2.248  0.1373  0.4093  0.1071
 2677DDP     C316061  19.678   1.503   3.879 -0.0791 -0.0030  0.2190
 2677DDP     C416062  19.362   2.018   2.997  0.0078  0.2858 -0.1822
 2678DDP     C116063   6.163   3.759   2.578 -0.1282  0.1751 -0.0021
 2678DDP     P116064   6.376   3.487   2.519 -0.0615 -0.0543  0.0962
 2678DDP     P216065   6.307   4.122   2.575 -0.0190 -0.2194 -0.0883
 2678DDP     C216066   6.474   4.213   2.811 -0.1451  0.0922  0.3752
 2678DDP     C316067   6.569   3.132   2.523 -0.0683 -0.0379  0.1402
 2678DDP     C416068   5.707   3.691   2.671 -0.1673  0.1451  0.1253
 2679DDP     C116069  28.336  30.065  10.954  0.0183  0.1099  0.0969
 2679DDP     P116070  28.082  29.723  11.038  0.0785 -0.4526  0.1484
 2679DDP     P216071  28.837  29.956  11.122  0.2167  0.1078 -0.3015
 2679DDP     C216072  29.282  29.922  11.119  0.1229 -0.1197  0.3579
 2679DDP     C316073  27.727  29.745  11.273  0.1160  0.2213 -0.0899
 2679DDP     C416074  28.099  30.287  10.644  0.1347 -0.0386 -0.0428
 2680DDP     C116075  20.404  12.613  13.289  0.3175  0.2788  0.1014
 2680DDP     P116076  20.801  12.710  13.613 -0.0436  0.1218  0.0560
 2680DDP     P216077  20.464  12.647  12.834 -0.1072 -0.2061 -0.0878
 2680DDP     C216078  20.155  12.612  12.541 -0.0433  0.0412 -0.0064
 2680DDP     C316079  21.227  12.667  13.285  0.0354  0.2180 -0.0639
 2680DDP     C416080  20.226  12.313  13.423  0.0398 -0.1306 -0.0670
 2681DDP     C116081  10.080  21.900  24.135  0.0020  0.0082 -0.0110
 2681DDP     P116082  10.305  22.334  24.020 -0.2118 -0.1128 -0.3292
 2681DDP     P216083  10.338  21.554  23.961  0.1573 -0.0653  0.2569
 2681DDP     C216084  10.280  21.453  23.465  0.1412 -0.1350 -0.3132
 2681DDP     C316085  10.337  22.529  23.608 -0.1862 -0.1691  0.0096
 2681DDP     C416086   9.724  21.807  24.453  0.0568  0.0869 -0.0217
 2682DDP     C116087  28.900  10.095   1.669 -0.3313 -0.0925  0.0327
 2682DDP     P116088  28.526  10.247   1.578 -0.0256 -0.2692 -0.1707
 2682DDP     P216089  28.918   9.772   1.895  0.2446  0.0582  0.2194
 2682DDP     C216090  28.951   9.372   1.887  0.0337 -0.3677  0.1843
 2682DDP     C316091  28.037  10.154   1.626 -0.1851  0.0423 -0.1925
 2682DDP     C416092  29.064  10.501   1.449  0.1824 -0.1389  0.0931
 2683DDP     C116093  23.688  29.393  25.543 -0.0863 -0.1294  0.0377
 2683DDP     P116094  23.633  29.004  25.352  0.0344 -0.0617 -0.1282
 2683DDP     P216095  23.554  29.967  25.631 -0.0975 -0.2523  0.4400
 2683DDP     C216096  23.358  30.251  25.896  0.2652 -0.2278 -0.0065
 2683DDP     C316097  23.816  28.681  25.389  0.1580  0.0025  0.0198
 2683DDP     C416098  23.836  29.060  25.792 -0.1011 -0.0522 -0.1577
 2684DDP     C116099  19.533   7.545  23.511 -0.2172  0.1747  0.0297
 2684DDP     P116100  19.702   7.178  23.329 -0.0613  0.0582 -0.0393
 2684DDP     P216101  19.561   7.591  23.947 -0.0037 -0.2293 -0.0598
 2684DDP     C216102  20.017   7.528  24.162  0.0818 -0.0089  0.0431
 2684DDP     C316103  19.804   7.005  22.946 -0.4071  0.0071 -0.4420
 2684DDP     C416104  19.505   7.953  23.202  0.1251  0.0302  0.3214
 2685DDP     C116105   0.650  15.396  13.080 -0.1836  0.4177  0.0046
 2685DDP     P116106   0.331  15.363  13.291 -0.0610  0.1338 -0.2866
 2685DDP     P216107   0.654  15.456  12.674  0.0584  0.4211  0.0905
 2685DDP     C216108   0.438  15.882  12.443 -0.1758  0.0413 -0.0465
 2685DDP     C316109   0.138  15.482  13.650  0.0116 -0.1898 -0.0120
 2685DDP     C416110   0.892  15.086  13.161 -0.0033 -0.1536 -0.0284
 2686DDP     C116111   5.430  25.206   8.783  0.2793 -0.0594  0.0605
 2686DDP     P116112   5.338  25.554   8.585  0.0138  0.2301  0.2185
 2686DDP     P216113   5.202  25.106   9.228  0.0446  0.0920  0.1943
 2686DDP     C216114   5.339  24.885   9.583 -0.1915 -0.3788 -0.0292
 2686DDP     C316115   5.548  25.786   8.159 -0.0996  0.0030 -0.0028
 2686DDP     C416116   5.843  25.057   8.768 -0.0450  0.0033  0.1558
 2687DDP     C116117  13.447  15.289  23.999 -0.2031 -0.0133 -0.0807
 2687DDP     P116118  13.132  15.438  23.953 -0.0742  0.0061  0.2492
 2687DDP     P216119  13.600  15.128  23.587 -0.0389  0.0228  0.1680
 2687DDP     C216120  13.539  14.944  23.216  0.2856 -0.0375  0.1376
 2687DDP     C316121  12.959  15.802  23.797  0.4031  0.2879  0.0880
 2687DDP     C416122  13.715  15.402  24.316  0.0402 -0.1221  0.0697
 2688DDP     C116123  25.996  25.743   5.221 -0.1176 -0.0173 -0.1224
 2688DDP     P116124  26.311  25.732   5.524 -0.0454  0.0670  0.0798
 2688DDP     P216125  26.030  25.827   4.765 -0.1015 -0.2180  0.1000
 2688DDP     C216126  26.105  26.083   4.426  0.1737  0.0472  0.1580
 2688DDP     C316127  26.430  25.587   5.946 -0.1471 -0.1156  0.2118
 2688DDP     C416128  25.637  25.597   5.397  0.1155  0.1414 -0.1717
 2689DDP     C116129  26.945  27.301  17.586 -0.3259 -0.0101  0.0840
 2689DDP     P116130  26.478  27.084  17.377 -0.1437 -0.1532 -0.1672
 2689DDP     P216131  27.425  27.238  17.569 -0.0829 -0.1564  0.0082
 2689DDP     C216132  27.617  26.880  17.636  0.1146  0.1895  0.0625
 2689DDP     C316133  26.211  27.044  17.040 -0.0400 -0.0582 -0.0657
 2689DDP     C416134  26.833  27.693  17.856  0.2535 -0.1765 -0.3495
 2690DDP     C116135  23.446  27.228   7.610  0.3984 -0.1151 -0.2071
 2690DDP     P116136  23.805  27.048   7.392  0.1235  0.3919 -0.2225
 2690DDP     P216137  23.317  26.958   8.027 -0.1674  0.0426 -0.0467
 2690DDP     C216138  23.231  26.789   8.476 -0.0546 -0.2759 -0.1103
 2690DDP     C316139  24.130  26.768   7.326  0.0155  0.2777  0.0363
 2690DDP     C416140  23.388  27.628   7.711  0.2559  0.3726  0.0699
 2691DDP     C116141  24.557  20.775  16.056 -0.1950 -0.0562  0.1712
 2691DDP     P116142  24.278  20.512  16.138 -0.3620 -0.0985 -0.2629
 2691DDP     P216143  24.425  20.852  15.581 -0.1663 -0.0679 -0.1132
 2691DDP     C216144  24.543  20.856  15.186  0.1607  0.1646  0.1567
 2691DDP     C316145  24.245  20.126  16.137  0.2706 -0.0860  0.0214
 2691DDP     C416146  24.571  21.123  16.335 -0.0240 -0.0519  0.1328
 2692DDP     C116147   5.712  11.439  25.437  0.0647 -0.0557  0.1973
 2692DDP     P116148   5.979  11.090  25.439  0.0346  0.4715  0.1776
 2692DDP     P216149   5.505  11.323  25.799 -0.0541 -0.0444 -0.2569
 2692DDP     C216150   5.870  11.226  26.049  0.3333 -0.0824  0.0240
 2692DDP     C316151   6.257  10.938  25.732  0.0409 -0.0156 -0.2339
 2692DDP     C416152   5.526  11.656  25.120 -0.2139  0.1507 -0.3282
 2693DDP     C116153  17.041   5.252   2.024  0.0754  0.3074 -0.1204
 2693DDP     P116154  16.654   5.332   2.064 -0.1896 -0.0410  0.0573
 2693DDP     P216155  17.409   5.520   1.779 -0.3218  0.0550  0.1127
 2693DDP     C216156  17.426   5.930   1.540 -0.2656  0.0105 -0.2407
 2693DDP     C316157  16.408   4.962   2.033  0.1225 -0.2083  0.1491
 2693DDP     C416158  17.206   5.013   2.285 -0.2336 -0.1384  0.0474
 2694DDP     C116159  23.565   0.991  10.117  0.1852  0.0391 -0.0961
 2694DDP     P116160  23.995   1.030   9.876  0.4399  0.0806  0.0041
 2694DDP     P216161  23.414   1.429  10.317  0.2822  0.0460  0.0319
 2694DDP     C216162  23.300   1.811  10.167 -0.2572  0.0607 -0.0371
 2694DDP     C316163  24.205   0.921   9.606  0.1277  0.2397 -0.2401
 2694DDP     C416164  23.341   0.588  10.023 -0.0208  0.1127  0.2715
 2695DDP     C116165  24.887  30.077   7.936  0.0090 -0.1263  0.0985
 2695DDP     P116166  24.774   0.118   8.154 -0.0954 -0.2912 -0.1239
 2695DDP     P216167  25.174  29.937   8.243  0.2601 -0.3227 -0.0032
 2695DDP     C216168  25.398  29.724   8.540  0.0142 -0.0430  0.0976
 2695DDP     C316169  24.704   0.456   8.370 -0.0104  0.1012 -0.1492
 2695DDP     C416170  24.799  30.011   7.564 -0.0502 -0.0798 -0.0303
 2696DDP     C116171  19.317  13.444   4.929 -0.2129  0.0352 -0.2346
 2696DDP     P116172  19.309  13.022   4.933  0.2986  0.3268 -0.1164
 2696DDP     P216173  19.180  13.899   4.815  0.0520  0.0769  0.3839
 2696DDP     C216174  19.094  14.280   4.772 -0.2920  0.0037 -0.1306
 2696DDP     C316175  19.216  12.556   4.770 -0.1638  0.0508 -0.0485
 2696DDP     C416176  19.724  13.439   5.004  0.1310  0.1179 -0.2279
 2697DDP     C116177   7.367  25.166  14.386 -0.2599  0.0752  0.3553
 2697DDP     P116178   7.068  24.839  14.358 -0.1547 -0.0851  0.1081
 2697DDP     P216179   7.142  25.390  14.130 -0.0020 -0.2738  0.0730
 2697DDP     C216180   6.731  25.632  14.264  0.2374 -0.0015  0.4798
 2697DDP     C316181   7.042  24.448  14.098  0.2092 -0.0416  0.0721
 2697DDP     C416182   7.815  25.053  14.658  0.1665 -0.2216  0.4665
 2698DDP     C116183  19.556   3.395  28.778 -0.0901  0.1213 -0.1536
 2698DDP     P116184  19.187   3.257  28.496 -0.1253  0.1606  0.2532
 2698DDP     P216185  19.565   3.678  28.493 -0.1794 -0.1377 -0.1101
 2698DDP     C216186  19.908   3.726  28.289 -0.2824  0.0685  0.1187
 2698DDP     C316187  18.804   3.039  28.402  0.1031  0.6391  0.1099
 2698DDP     C416188  19.758   3.277  29.038 -0.0535 -0.3722 -0.0592
 2699DDP     C116189  21.711  25.470  21.641  0.3100  0.0055 -0.0303
 2699DDP     P116190  21.813  25.634  21.971  0.0926 -0.0007 -0.2551
 2699DDP     P216191  22.030  25.268  21.537  0.0535  0.1027  0.1790
 2699DDP     C216192  22.229  24.904  21.304 -0.1882 -0.2137 -0.3777
 2699DDP     C316193  21.672  25.897  22.181  0.0083 -0.1716 -0.1298
 2699DDP     C416194  21.332  25.275  21.399  0.1710  0.1466  0.1478
 2700DDP     C116195  17.027  25.605  12.329  0.3052 -0.0570 -0.1054
 2700DDP     P116196  17.114  25.990  12.142  0.1729  0.0999 -0.2777
 2700DDP     P216197  17.192  25.144  12.162 -0.1246 -0.1108  0.0749
 2700DDP     C216198  17.050  24.650  12.179 -0.1429 -0.2060  0.1947
 2700DDP     C316199  17.313  26.400  12.174  0.2756 -0.1973 -0.0348
 2700DDP     C416200  16.932  25.364  12.691 -0.2553  0.0658 -0.1852
 2701DDP     C116201   9.268  16.606  28.015 -0.3043  0.1091 -0.1813
 2701DDP     P116202   9.730  16.860  27.864 -0.1406 -0.0719 -0.2075
 2701DDP     P216203   9.014  16.819  27.873  0.1934 -0.0063  0.1032
 2701DDP     C216204   8.561  16.714  27.724 -0.0341 -0.0241 -0.1548
 2701DDP     C316205   9.887  16.570  27.648  0.1028 -0.0759 -0.0856
 2701DDP     C416206   9.132  16.264  28.278 -0.0901  0.2417  0.0386
 2702DDP     C116207  26.386   6.799  29.212  0.0269  0.1582 -0.1878
 2702DDP     P116208  26.587   6.963  29.517 -0.0276  0.1605 -0.0148
 2702DDP     P216209  26.751   6.734  28.993  0.1808 -0.1804  0.1163
 2702DDP     C216210  27.157   6.664  29.228  0.0078  0.0684  0.2174
 2702DDP     C316211  26.968   6.836  29.721  0.1393  0.1607  0.2911
 2702DDP     C416212  26.010   6.725  29.033 -0.1515  0.0951 -0.0776
 2703DDP     C116213  29.429  29.696  29.797 -0.2677  0.0129  0.0879
 2703DDP     P116214  29.046  29.784  29.523 -0.0368  0.1954  0.2055
 2703DDP     P216215  29.783  29.843  29.991 -0.2507  0.0951  0.0457
 2703DDP     C216216  30.021  29.701   0.030  0.1803  0.3459 -0.1667
 2703DDP     C316217  28.618  29.933  29.623  0.0060  0.0617  0.0498
 2703DDP     C416218  29.360  29.321  29.940  0.0825  0.1794  0.0981
 2704DDP     C116219  20.624   8.632   5.346  0.2275 -0.1570 -0.5030
 2704DDP     P116220  20.238   8.701   5.582 -0.1694 -0.0696  0.0055
 2704DDP     P216221  20.558   8.279   4.955  0.1299  0.0424  0.0205
 2704DDP     C216222  20.133   8.118   4.823  0.1481 -0.1039 -0.3156
 2704DDP     C316223  20.131   8.847   5.952 -0.1378 -0.0654  0.0904
 2704DDP     C416224  20.898   8.985   5.305 -0.0178 -0.3480  0.2137
 2705DDP     C116225  28.325  20.864  14.112 -0.1812 -0.0351 -0.2284
 2705DDP     P116226  28.415  21.168  14.529 -0.0357  0.2463 -0.2170
 2705DDP     P216227  28.452  21.284  13.968  0.2410 -0.2466 -0.1578
 2705DDP     C216228  28.511  21.642  14.211  0.2416 -0.1829  0.3663
 2705DDP     C316229  28.165  21.389  14.941 -0.1320 -0.0567 -0.1316
 2705DDP     C416230  28.165  20.575  13.825 -0.1313 -0.1283 -0.1325
 2706DDP     C116231  12.652  11.113  13.638  0.1320 -0.0837  0.3798
 2706DDP     P116232  12.676  11.580  13.675 -0.0422  0.0796 -0.1448
 2706DDP     P216233  13.041  10.869  13.925 -0.0268 -0.0283 -0.1580
 2706DDP     C216234  13.462  10.909  13.885  0.0027 -0.2814  0.0607
 2706DDP     C316235  12.928  11.753  13.966 -0.0114 -0.3778 -0.1006
 2706DDP     C416236  12.532  10.935  13.143 -0.0968  0.1526  0.0898
 2707DDP     C116237  24.186   5.217   9.934 -0.0532  0.0819 -0.3448
 2707DDP     P116238  24.014   5.559  10.107 -0.4476 -0.2304  0.2169
 2707DDP     P216239  24.471   5.223   9.600 -0.1660  0.0144  0.0105
 2707DDP     C216240  24.977   5.360   9.444 -0.0741  0.2269 -0.0386
 2707DDP     C316241  23.863   5.894  10.326  0.1220  0.0156 -0.0881
 2707DDP     C416242  24.026   4.754   9.951 -0.1760  0.2548 -0.0840
 2708DDP     C116243   8.093  26.015  12.854  0.1557 -0.2889 -0.1413
 2708DDP     P116244   8.399  26.000  12.860  0.0384  0.0887  0.2582
 2708DDP     P216245   8.068  26.320  13.285 -0.2210  0.2813 -0.0547
 2708DDP     C216246   8.296  26.328  13.576  0.0779  0.5278 -0.0974
 2708DDP     C316247   8.716  25.854  12.928  0.0601  0.0880 -0.1050
 2708DDP     C416248   7.933  25.579  12.722  0.1289  0.0722 -0.1620
 2709DDP     C116249  18.965  27.136   2.259  0.2821  0.4106  0.0981
 2709DDP     P116250  19.126  26.884   2.566 -0.1257 -0.0863 -0.0355
 2709DDP     P216251  18.924  27.016   1.829 -0.1125 -0.1823  0.0218
 2709DDP     C216252  18.729  26.908   1.483  0.2214 -0.1063  0.2010
 2709DDP     C316253  19.300  27.008   3.013  0.0610 -0.0403 -0.0543
 2709DDP     C416254  18.623  27.418   2.400 -0.2399 -0.0525  0.1460
 2710DDP     C116255  30.298  12.847  26.367 -0.1145 -0.1202  0.4293
 2710DDP     P116256   0.482  12.912  26.469 -0.4043 -0.2508 -0.1613
 2710DDP     P216257  30.232  12.441  26.297  0.1555 -0.0443 -0.1444
 2710DDP     C216258   0.124  12.021  26.171 -0.0060 -0.1761 -0.2270
 2710DDP     C316259   0.787  12.635  26.693 -0.0920  0.4360  0.1563
 2710DDP     C416260  29.981  12.989  26.658 -0.0741 -0.0617  0.2063
 2711DDP     C116261  30.239  12.794   9.952  0.0055  0.0049  0.2474
 2711DDP     P116262  29.976  12.552  10.248 -0.1917 -0.1112  0.1323
 2711DDP     P216263  29.953  13.093   9.818  0.1329  0.2094  0.2127
 2711DDP     C216264  29.538  13.207   9.768  0.1019  0.0608  0.2737
 2711DDP     C316265  29.758  12.727  10.596  0.1998 -0.0386 -0.1158
 2711DDP     C416266   0.230  12.699   9.830 -0.0630  0.1551 -0.3557
 2712DDP     C116267   0.042   9.275  25.431  0.1309 -0.0329 -0.0506
 2712DDP     P116268  30.288   9.638  25.510  0.0653 -0.0157  0.1062
 2712DDP     P216269  30.184   9.092  25.112 -0.2038 -0.1591 -0.3128
 2712DDP     C216270  29.856   8.830  25.034  0.0126 -0.0810  0.0048
 2712DDP     C316271  30.252  10.061  25.708  0.1904  0.2724  0.1954
 2712DDP     C416272   0.438   9.113  25.715 -0.3403  0.1970 -0.0626
 2713DDP     C116273  14.722  21.914  14.692 -0.3798  0.3505  0.0188
 2713DDP     P116274  14.362  22.090  14.552  0.1019  0.0873 -0.2095
 2713DDP     P216275  15.113  21.997  14.735 -0.0316  0.0305 -0.0387
 2713DDP     C216276  15.392  21.677  14.636  0.3098  0.1735  0.0536
 2713DDP     C316277  13.844  22.233  14.421 -0.1722 -0.1353  0.0059
 2713DDP     C416278  14.654  21.512  14.958 -0.1723  0.2306 -0.0452
 2714DDP     C116279  19.416   7.102   9.984 -0.2803  0.0978  0.1136
 2714DDP     P116280  19.010   7.074   9.780  0.2112  0.0102 -0.1399
 2714DDP     P216281  19.631   6.727  10.101  0.2313 -0.0846 -0.3885
 2714DDP     C216282  19.818   6.353   9.989 -0.1280  0.0342  0.2594
 2714DDP     C316283  18.899   6.923   9.521  0.0397  0.2339  0.2543
 2714DDP     C416284  19.327   7.465  10.260  0.0186 -0.2374 -0.0086
 2715DDP     C116285   9.763  13.684  27.662 -0.0227 -0.1303  0.4665
 2715DDP     P116286   9.688  14.016  28.026  0.0925  0.2134  0.0401
 2715DDP     P216287   9.731  13.265  27.834 -0.0446 -0.1056  0.1933
 2715DDP     C216288   9.991  12.932  28.063  0.0601  0.0637  0.0064
 2715DDP     C316289   9.669  14.417  28.315 -0.0407  0.2785 -0.1941
 2715DDP     C416290  10.035  13.802  27.374  0.3481 -0.1119  0.2105
 2716DDP     C116291  10.748   4.114  16.019  0.3351 -0.0390  0.0686
 2716DDP     P116292  10.629   3.937  15.704 -0.2765 -0.0751  0.0732
 2716DDP     P216293  10.501   4.496  16.130  0.0382  0.1627  0.0680
 2716DDP     C216294  10.295   4.895  16.037  0.1773 -0.0026  0.0326
 2716DDP     C316295  10.233   3.750  15.590 -0.1138  0.2312 -0.0662
 2716DDP     C416296  11.194   4.087  16.255 -0.1465  0.0525 -0.1177
 2717DDP     C116297   7.098  23.165   2.307  0.1885 -0.3281  0.0076
 2717DDP     P116298   7.192  22.723   2.125 -0.2236  0.0413  0.0433
 2717DDP     P216299   6.987  23.436   2.015  0.1475 -0.0877  0.1163
 2717DDP     C216300   6.676  23.326   1.619 -0.0190  0.0569 -0.0601
 2717DDP     C316301   7.332  22.361   1.898  0.1419  0.1547 -0.0379
 2717DDP     C416302   7.203  23.161   2.758 -0.0697 -0.2266  0.1447
 2718DDP     C116303  28.614   8.086   1.563  0.1716  0.5011 -0.0042
 2718DDP     P116304  28.408   7.695   1.444 -0.2733 -0.4174  0.1651
 2718DDP     P216305  28.427   8.486   1.540  0.1860  0.0766  0.0117
 2718DDP     C216306  28.023   8.502   1.362 -0.0606  0.0271  0.1249
 2718DDP     C316307  28.424   7.265   1.229  0.4806  0.0381 -0.0194
 2718DDP     C416308  28.868   8.244   1.955 -0.0235  0.0785  0.3063
 2719DDP     C116309  24.744  26.496  29.454 -0.0626 -0.1959 -0.1063
 2719DDP     P116310  24.335  26.467  29.786  0.3435 -0.0887  0.1351
 2719DDP     P216311  24.749  26.692  29.094 -0.1335  0.0075  0.0247
 2719DDP     C216312  24.534  26.954  28.876 -0.3197 -0.0773 -0.1062
 2719DDP     C316313  24.195  26.814  30.038 -0.0113 -0.0270 -0.0941
 2719DDP     C416314  25.089  26.170  29.528 -0.4172 -0.0008  0.1575
 2720DDP     C116315  15.066   8.488  29.331 -0.0670 -0.1200 -0.2024
 2720DDP     P116316  15.110   8.366  28.933  0.1531 -0.3107  0.1864
 2720DDP     P216317  15.221   8.130  29.638  0.0563 -0.0737  0.0755
 2720DDP     C216318  15.484   7.889  29.816  0.2292  0.0034  0.0976
 2720DDP     C316319  15.466   8.233  28.781 -0.0700  0.1972  0.2262
 2720DDP     C416320  14.990   8.918  29.523  0.0160  0.1925 -0.1420
 2721DDP     C116321  19.328  28.310  24.849 -0.0803  0.3197  0.1607
 2721DDP     P116322  19.447  28.103  24.505  0.0278 -0.1196 -0.2301
 2721DDP     P216323  19.670  28.563  25.087  0.1610 -0.4601  0.0027
 2721DDP     C216324  20.090  28.702  25.281 -0.3538  0.0345 -0.2752
 2721DDP     C316325  19.677  27.933  24.146  0.3740 -0.1122 -0.3562
 2721DDP     C416326  18.917  28.496  24.804 -0.1013  0.0371 -0.0918
 2722DDP     C116327  22.819  27.012  26.159  0.0253  0.2874  0.0437
 2722DDP     P116328  22.725  26.639  26.361 -0.0917  0.2084  0.0306
 2722DDP     P216329  22.414  26.921  25.978  0.1615 -0.2255  0.2203
 2722DDP     C216330  22.033  27.026  25.888 -0.0672  0.0666 -0.1591
 2722DDP     C316331  22.951  26.440  26.618  0.1992 -0.0572 -0.2716
 2722DDP     C416332  23.195  27.269  26.160  0.4064  0.2977 -0.2811
 2723DDP     C116333  28.849   8.012  18.122 -0.1942  0.2927 -0.1694
 2723DDP     P116334  28.745   8.294  17.812 -0.0802 -0.2343  0.1293
 2723DDP     P216335  29.057   7.618  17.883 -0.0585 -0.4538  0.0648
 2723DDP     C216336  29.229   7.328  17.605  0.0593 -0.0218  0.0577
 2723DDP     C316337  28.603   8.331  17.455 -0.3795  0.0466 -0.1122
 2723DDP     C416338  28.776   8.024  18.558 -0.0833  0.2235  0.1401
 2724DDP     C116339  25.632  12.695   4.639  0.0324  0.0688 -0.0224
 2724DDP     P116340  25.971  13.110   4.652  0.1554  0.0815  0.2871
 2724DDP     P216341  25.371  12.587   4.974  0.0586  0.2147  0.2173
 2724DDP     C216342  25.091  12.736   5.310  0.2324 -0.2520 -0.3890
 2724DDP     C316343  25.863  13.533   4.736 -0.0546 -0.1686  0.1678
 2724DDP     C416344  25.549  12.508   4.232 -0.0096 -0.2539 -0.0446
 2725DDP     C116345  18.500  18.069  24.914 -0.3336 -0.0732 -0.0564
 2725DDP     P116346  18.611  17.774  25.324 -0.1442 -0.1731  0.2887
 2725DDP     P216347  18.797  18.048  24.669  0.0819  0.3992 -0.1640
 2725DDP     C216348  19.230  18.218  24.617 -0.1828  0.1346 -0.0666
 2725DDP     C316349  18.973  17.646  25.624 -0.0673  0.1347 -0.1928
 2725DDP     C416350  18.133  18.291  24.755 -0.1427  0.0954  0.1940
 2726DDP     C116351   2.385  26.741  23.734 -0.0630  0.2685  0.1178
 2726DDP     P116352   2.749  26.623  23.476  0.0859 -0.2803  0.1803
 2726DDP     P216353   2.287  26.958  24.067 -0.2432  0.2383 -0.0853
 2726DDP     C216354   2.223  27.311  24.278 -0.3308 -0.0222  0.1243
 2726DDP     C316355   2.914  26.710  23.124  0.3272 -0.3592 -0.0156
 2726DDP     C416356   2.083  26.825  23.399  0.1514 -0.0823 -0.1476
 2727DDP     C116357  14.295  13.965  27.264 -0.0402 -0.0804  0.1223
 2727DDP     P116358  14.537  13.732  27.001  0.1575  0.1657  0.3587
 2727DDP     P216359  13.907  13.999  27.241  0.1642 -0.2010 -0.2449
 2727DDP     C216360  13.487  14.143  27.589  0.1422 -0.1553  0.0538
 2727DDP     C316361  14.826  13.384  26.844 -0.2996 -0.0373  0.1462
 2727DDP     C416362  14.477  14.241  27.476 -0.2087 -0.0024  0.0363
 2728DDP     C116363   0.077  24.715  29.123 -0.0526 -0.3362  0.3040
 2728DDP     P116364   0.240  24.418  28.768 -0.1803 -0.2808  0.1019
 2728DDP     P216365   0.261  24.855  29.361 -0.1452  0.0882  0.0233
 2728DDP     C216366   0.519  25.163  29.580  0.0860 -0.0765  0.1114
 2728DDP     C316367   0.703  24.319  28.582  0.0909 -0.1304  0.1293
 2728DDP     C416368  30.010  24.841  29.159  0.2868  0.2698 -0.0800
 2729DDP     C116369  16.387   3.929   4.252  0.2464  0.0818  0.0061
 2729DDP     P116370  16.434   4.332   4.164 -0.3271  0.2030  0.0539
 2729DDP     P216371  16.149   3.846   4.031  0.1332 -0.1671  0.0704
 2729DDP     C216372  15.777   3.986   3.860  0.0604 -0.4093  0.0753
 2729DDP     C316373  16.467   4.703   3.851  0.1560  0.2760 -0.1063
 2729DDP     C416374  16.423   3.690   4.630 -0.0062 -0.5003  0.1353
 2730DDP     C116375   8.646   4.126  28.574  0.1355  0.3192 -0.0406
 2730DDP     P116376   8.391   3.772  28.587 -0.1628  0.1161 -0.0528
 2730DDP     P216377   9.048   4.023  28.563  0.1463 -0.3136 -0.1851
 2730DDP     C216378   9.383   3.883  28.290 -0.0124 -0.2168 -0.3220
 2730DDP     C316379   8.184   3.563  28.784  0.0896  0.1832  0.1953
 2730DDP     C416380   8.552   4.430  28.344  0.0049  0.1309 -0.2045
 2731DDP     C116381   7.653   6.511  23.457  0.1869 -0.0886  0.2549
 2731DDP     P116382   7.887   6.266  23.752 -0.2809 -0.2337  0.3219
 2731DDP     P216383   7.493   6.176  23.138 -0.2132 -0.0155  0.1848
 2731DDP     C216384   7.594   5.762  22.852  0.1688  0.1389 -0.0630
 2731DDP     C316385   7.784   5.884  23.961  0.1486 -0.0053 -0.3613
 2731DDP     C416386   7.909   6.918  23.358  0.0972 -0.1076 -0.0785
 2732DDP     C116387   1.990  26.591   4.538  0.0997 -0.3340 -0.0202
 2732DDP     P116388   1.983  26.142   4.331  0.1915 -0.2193  0.1893
 2732DDP     P216389   1.724  27.007   4.440  0.1966 -0.0204  0.3125
 2732DDP     C216390   1.961  27.437   4.309 -0.1274  0.1292 -0.1791
 2732DDP     C316391   1.945  25.698   4.178 -0.2553 -0.0005  0.0580
 2732DDP     C416392   2.105  26.695   5.000 -0.1649 -0.0198  0.2404
 2733DDP     C116393  23.096  13.760  17.469  0.3836 -0.0434 -0.1671
 2733DDP     P116394  22.870  13.321  17.431  0.1805 -0.0231  0.2877
 2733DDP     P216395  23.217  14.079  17.786 -0.1082  0.2074  0.0303
 2733DDP     C216396  23.334  14.442  18.135 -0.2974 -0.1225 -0.1045
 2733DDP     C316397  22.673  13.110  17.067 -0.1865 -0.2858 -0.3137
 2733DDP     C416398  23.018  14.035  17.127 -0.1111 -0.1742 -0.2712
 2734DDP     C116399  12.443   6.629  19.329 -0.1419  0.3212  0.0285
 2734DDP     P116400  12.795   6.625  18.960 -0.0353  0.0099  0.1403
 2734DDP     P216401  12.237   6.756  19.366 -0.0660 -0.0315  0.3397
 2734DDP     C216402  11.823   6.716  19.422 -0.0271 -0.2424  0.0988
 2734DDP     C316403  13.058   6.623  18.599 -0.2170 -0.1165  0.2663
 2734DDP     C416404  12.772   6.408  19.657  0.2776 -0.2262 -0.1706
 2735DDP     C116405  29.116   4.885  11.318  0.0470  0.1724 -0.1838
 2735DDP     P116406  29.423   4.570  11.308 -0.0828  0.0270  0.0318
 2735DDP     P216407  28.665   4.691  11.343  0.1328  0.2167 -0.1936
 2735DDP     C216408  28.361   4.596  11.172  0.0047 -0.1160  0.2103
 2735DDP     C316409  29.688   4.184  11.397  0.0611 -0.1454  0.2727
 2735DDP     C416410  28.980   5.326  11.004  0.1458 -0.0901 -0.0437
 2736DDP     C116411  27.274  12.882  22.839  0.2342  0.0407  0.4127
 2736DDP     P116412  27.181  13.371  22.717  0.2222 -0.1423  0.1964
 2736DDP     P216413  27.806  12.707  22.793 -0.0612  0.2224 -0.1300
 2736DDP     C216414  28.157  12.696  23.144  0.2719 -0.0890  0.2096
 2736DDP     C316415  27.006  13.491  22.230  0.1448  0.1282  0.2187
 2736DDP     C416416  26.891  12.653  22.884  0.3341 -0.1061  0.2359
 2737DDP     C116417   3.344  28.523  26.267  0.1831  0.3300 -0.0209
 2737DDP     P116418   3.218  28.835  25.968  0.0923  0.0856  0.0125
 2737DDP     P216419   3.697  28.613  26.561  0.1289  0.0523 -0.1248
 2737DDP     C216420   3.927  28.626  26.953  0.1758 -0.1747  0.1033
 2737DDP     C316421   2.918  28.758  25.638 -0.0129  0.3637 -0.0521
 2737DDP     C416422   3.018  28.257  26.282 -0.3619  0.1102  0.0834
 2738DDP     C116423   4.458  18.366   0.681  0.0921  0.1797 -0.0563
 2738DDP     P116424   4.608  18.361   1.139  0.1167  0.0675  0.1197
 2738DDP     P216425   4.197  18.703   0.412 -0.1836 -0.0423  0.0867
 2738DDP     C216426   3.852  18.822   0.284  0.2717 -0.0191  0.3086
 2738DDP     C316427   4.537  18.179   1.555 -0.2251  0.3123 -0.1525
 2738DDP     C416428   4.772  18.250   0.345 -0.0677  0.0427  0.2037
 2739DDP     C116429   9.292  13.029  16.200 -0.0831  0.1364  0.1130
 2739DDP     P116430   9.197  13.366  15.868 -0.3187  0.1295  0.1178
 2739DDP     P216431   9.193  12.944  16.639 -0.1770 -0.3612  0.0270
 2739DDP     C216432   9.165  12.598  16.883  0.0541 -0.2053 -0.1981
 2739DDP     C316433   9.031  13.737  15.577 -0.1273  0.0963  0.3181
 2739DDP     C416434   9.704  12.913  15.999  0.0354  0.0442  0.0473
 2740DDP     C116435  22.433  27.459  28.971  0.0127  0.1062 -0.2284
 2740DDP     P116436  22.370  27.195  28.678  0.0278  0.3197 -0.2363
 2740DDP     P216437  22.684  27.883  28.848  0.2235 -0.0797 -0.1421
 2740DDP     C216438  22.696  28.300  28.796 -0.0616 -0.1432 -0.3974
 2740DDP     C316439  22.253  27.140  28.310 -0.0764  0.3839 -0.1067
 2740DDP     C416440  22.327  27.240  29.313  0.0473  0.0687  0.3530
 2741DDP     C116441   9.505   1.369  21.024  0.2440 -0.0362  0.1673
 2741DDP     P116442   9.544   1.163  21.348 -0.1459  0.3093 -0.0100
 2741DDP     P216443   9.182   1.332  20.722 -0.1627 -0.0967 -0.1172
 2741DDP     C216444   9.043   0.998  20.459  0.0876 -0.0769 -0.1013
 2741DDP     C316445   9.363   1.142  21.711 -0.0163 -0.0948 -0.2324
 2741DDP     C416446   9.756   1.732  20.859  0.2239 -0.3398  0.0487
 2742DDP     C116447  19.620  10.049   4.648 -0.2449 -0.0285 -0.2095
 2742DDP     P116448  19.582  10.494   4.533 -0.0742  0.1012 -0.0044
 2742DDP     P216449  19.403   9.734   4.392 -0.0396  0.2731  0.3167
 2742DDP     C216450  18.951   9.601   4.235  0.2266 -0.1522 -0.2774
 2742DDP     C316451  19.376  10.564   4.150 -0.0795 -0.1052  0.0652
 2742DDP     C416452  19.871   9.903   5.038  0.1301  0.0228  0.2305
 2743DDP     C116453  18.099  25.869  29.713 -0.0002  0.0678 -0.2546
 2743DDP     P116454  18.170  25.488  29.440  0.2985  0.0392  0.0056
 2743DDP     P216455  17.715  25.816  29.949 -0.0422 -0.0527 -0.3142
 2743DDP     C216456  17.357  25.795  30.243  0.3419  0.1096  0.0809
 2743DDP     C316457  18.105  25.293  29.065 -0.3287 -0.1510  0.0444
 2743DDP     C416458  18.278  26.256  29.582  0.3228 -0.3135  0.2096
 2744DDP     C116459  10.313   9.562  27.391 -0.0859 -0.0640 -0.4452
 2744DDP     P116460  10.176   9.823  27.023  0.2342  0.1846 -0.0946
 2744DDP     P216461  10.049   9.741  27.721 -0.3211  0.1501 -0.0553
 2744DDP     C216462   9.939   9.635  28.220 -0.0418 -0.1760  0.2220
 2744DDP     C316463  10.410  10.202  26.776 -0.7496 -0.3054  0.3385
 2744DDP     C416464  10.799   9.578  27.348  0.3401  0.2094  0.2289
 2745DDP     C116465  28.128  12.132  29.272 -0.0144  0.1812  0.3600
 2745DDP     P116466  28.315  12.536  29.499  0.1673 -0.0699  0.0767
 2745DDP     P216467  28.333  11.838  29.277 -0.1546  0.1425  0.1042
 2745DDP     C216468  28.609  11.651  28.915 -0.0867 -0.0955  0.0142
 2745DDP     C316469  28.415  12.934  29.667 -0.1898  0.1609 -0.0648
 2745DDP     C416470  28.002  12.325  28.788 -0.4920  0.0184 -0.0314
 2746DDP     C116471  22.393  16.609   4.990  0.1718  0.0091 -0.3663
 2746DDP     P116472  22.197  16.737   5.391  0.3636  0.2144 -0.2165
 2746DDP     P216473  22.278  16.826   4.588 -0.2343  0.0075  0.1994
 2746DDP     C216474  22.476  17.175   4.316 -0.0144 -0.1260  0.1477
 2746DDP     C316475  22.099  16.962   5.749  0.0896 -0.1329 -0.2416
 2746DDP     C416476  22.697  16.310   5.035  0.1448  0.0180 -0.0631
 2747DDP     C116477   4.200  24.167  13.500  0.2699 -0.0438  0.0105
 2747DDP     P116478   3.956  23.802  13.534  0.2013 -0.0185  0.1068
 2747DDP     P216479   4.296  24.301  13.893  0.0558 -0.2035  0.0422
 2747DDP     C216480   4.261  24.246  14.303  0.0975 -0.3427 -0.0189
 2747DDP     C316481   3.517  23.829  13.610  0.2612  0.3858 -0.2927
 2747DDP     C416482   4.267  24.375  13.133  0.1709 -0.0057  0.0759
 2748DDP     C116483   0.478   1.326  21.798  0.0539 -0.2896 -0.0618
 2748DDP     P116484   0.323   0.989  21.908  0.1030  0.3136  0.1115
 2748DDP     P216485   0.976   1.449  21.931 -0.1071  0.0833  0.1513
 2748DDP     C216486   1.281   1.485  21.811 -0.0300  0.0741  0.0190
 2748DDP     C316487   0.397   0.624  22.215  0.1843 -0.0994 -0.2271
 2748DDP     C416488   0.162   1.678  21.559  0.0261 -0.1337 -0.1051
 2749DDP     C116489   7.744  22.370  14.410 -0.1052  0.1142 -0.0770
 2749DDP     P116490   7.978  22.009  14.566 -0.1529 -0.0860 -0.0482
 2749DDP     P216491   8.039  22.690  14.642 -0.0503  0.1163 -0.0084
 2749DDP     C216492   8.060  22.898  14.915 -0.4106  0.2597  0.1307
 2749DDP     C316493   8.184  21.843  14.815 -0.1462  0.0742 -0.0653
 2749DDP     C416494   7.323  22.484  14.347  0.0668 -0.0140 -0.2094
 2750DDP     C116495   9.522  27.124   8.972 -0.3163  0.0316  0.0823
 2750DDP     P116496   9.836  26.797   8.724 -0.1189 -0.4196  0.0786
 2750DDP     P216497   9.225  26.936   9.162 -0.0848  0.2016 -0.2626
 2750DDP     C216498   8.921  26.769   9.309  0.1610 -0.3794 -0.4387
 2750DDP     C316499   9.931  26.529   8.471 -0.0898  0.2269 -0.1160
 2750DDP     C416500   9.740  27.556   9.037 -0.1753  0.1793 -0.1641
 2751DDP     C116501   6.246  24.165  17.231 -0.4545  0.1269  0.1068
 2751DDP     P116502   5.892  24.363  16.936  0.3095 -0.1154 -0.0783
 2751DDP     P216503   6.670  23.985  17.056 -0.2354  0.0598 -0.1125
 2751DDP     C216504   6.983  23.678  16.885 -0.0389  0.0857 -0.0603
 2751DDP     C316505   5.538  24.319  16.907 -0.1192 -0.1218 -0.0706
 2751DDP     C416506   6.154  24.087  17.684  0.0708 -0.1190 -0.0797
 2752DDP     C116507  15.468   3.959  14.852  0.0777  0.1132  0.0028
 2752DDP     P116508  15.218   3.667  14.557  0.1015 -0.1997  0.1017
 2752DDP     P216509  15.786   3.950  15.050  0.0835  0.2803 -0.1416
 2752DDP     C216510  16.183   4.172  15.203  0.0409 -0.2162  0.3770
 2752DDP     C316511  15.287   3.626  14.078 -0.2117 -0.1715  0.1228
 2752DDP     C416512  15.502   4.398  14.757 -0.0409 -0.1157  0.0677
 2753DDP     C116513   9.576   2.319   2.493 -0.3129  0.3018  0.0356
 2753DDP     P116514   9.680   2.026   2.848  0.4464  0.1044  0.0751
 2753DDP     P216515   9.395   2.151   2.220  0.0057 -0.0732  0.0972
 2753DDP     C216516   9.371   1.881   1.980 -0.1273  0.1247 -0.0809
 2753DDP     C316517   9.540   1.861   3.185  0.1251 -0.0723 -0.1625
 2753DDP     C416518   9.858   2.666   2.384 -0.0696  0.0552 -0.2315
 2754DDP     C116519   4.620   9.953   1.349  0.0876 -0.3350  0.0227
 2754DDP     P116520   4.596   9.649   1.662  0.3426 -0.2297  0.1396
 2754DDP     P216521   4.261  10.138   1.150 -0.1036  0.0499  0.1466
 2754DDP     C216522   3.805  10.136   1.194  0.1722 -0.0680 -0.0763
 2754DDP     C316523   4.145   9.525   1.939 -0.2596 -0.0551 -0.0554
 2754DDP     C416524   5.068  10.227   1.355  0.3173 -0.0932  0.3254
 2755DDP     C116525  27.786   6.025  18.301  0.0504 -0.3775 -0.1443
 2755DDP     P116526  27.713   5.617  18.315 -0.1247  0.4297 -0.0408
 2755DDP     P216527  27.493   6.163  17.902 -0.0093 -0.1426 -0.0234
 2755DDP     C216528  27.661   6.309  17.588  0.0515 -0.1089  0.0072
 2755DDP     C316529  27.608   5.391  18.074 -0.3461 -0.0991 -0.0706
 2755DDP     C416530  28.057   6.275  18.557 -0.0332 -0.0826  0.1157
 2756DDP     C116531  20.267   8.518   3.382 -0.0297 -0.4350 -0.1250
 2756DDP     P116532  20.147   8.882   3.712 -0.2055 -0.2812  0.0364
 2756DDP     P216533  19.949   8.255   3.180 -0.0127 -0.0782 -0.0896
 2756DDP     C216534  19.559   8.046   3.033  0.0111 -0.1245  0.3924
 2756DDP     C316535  20.124   9.173   4.111  0.1972 -0.0560 -0.1314
 2756DDP     C416536  20.695   8.469   3.131  0.0491  0.0494  0.3600
 2757DDP     C116537  18.813  29.256  20.450 -0.2347 -0.0240 -0.0899
 2757DDP     P116538  18.519  29.518  20.527 -0.3164  0.4626  0.3095
 2757DDP     P216539  18.494  28.963  20.169 -0.3158  0.0047 -0.0426
 2757DDP     C216540  18.327  28.992  19.803  0.3436 -0.0877  0.0312
 2757DDP     C316541  18.368  29.635  20.886 -0.0982 -0.2106 -0.2520
 2757DDP     C416542  19.164  29.431  20.421 -0.2002  0.0550 -0.1238
 2758DDP     C116543  28.041  21.705  27.571 -0.1013 -0.4516  0.0258
 2758DDP     P116544  28.468  21.622  27.601  0.4479  0.1215 -0.0024
 2758DDP     P216545  28.062  21.282  27.553  0.1584  0.0395 -0.2710
 2758DDP     C216546  27.930  20.846  27.650 -0.1571  0.0210  0.0612
 2758DDP     C316547  28.570  21.260  27.771 -0.0891 -0.2656  0.2138
 2758DDP     C416548  27.936  22.106  27.510  0.1120 -0.0268  0.1310
 2759DDP     C116549   7.360   9.404   5.063 -0.0795  0.0478  0.1139
 2759DDP     P116550   7.236   9.395   5.490  0.2051  0.0012  0.1880
 2759DDP     P216551   7.666   9.574   4.840 -0.1751 -0.0264  0.1304
 2759DDP     C216552   8.107   9.688   4.690 -0.0173 -0.0023 -0.0060
 2759DDP     C316553   7.011   9.230   5.811  0.1425  0.2540 -0.0754
 2759DDP     C416554   7.108   9.020   4.923 -0.2155  0.0590  0.1174
 2760DDP     C116555  22.928  12.074  15.585  0.1172  0.0606  0.0341
 2760DDP     P116556  22.532  12.349  15.530 -0.2423 -0.3456 -0.2548
 2760DDP     P216557  23.339  12.322  15.691  0.0390  0.2544  0.3594
 2760DDP     C216558  23.777  12.351  15.624 -0.2785  0.1159  0.1564
 2760DDP     C316559  22.232  12.702  15.231  0.1300  0.1194  0.1237
 2760DDP     C416560  23.007  11.615  15.565 -0.0855 -0.0108 -0.0287
 2761DDP     C116561  16.280  17.088   2.586 -0.1931  0.0023  0.1688
 2761DDP     P116562  16.522  17.188   2.991 -0.0740  0.2675  0.0021
 2761DDP     P216563  16.247  16.542   2.618  0.0258 -0.3180 -0.1738
 2761DDP     C216564  16.577  16.168   2.573  0.1374 -0.0344 -0.3674
 2761DDP     C316565  16.870  17.301   3.332  0.0859 -0.0776  0.2246
 2761DDP     C416566  16.121  17.168   2.159 -0.1597 -0.0092  0.1336
 2762DDP     C116567   0.920  11.111  22.215 -0.1090  0.1368 -0.1031
 2762DDP     P116568   1.157  11.144  22.577 -0.0794 -0.0125 -0.4028
 2762DDP     P216569   0.493  11.049  22.322 -0.0249 -0.3957  0.3661
 2762DDP     C216570   0.079  11.154  22.161  0.0984  0.0482  0.0660
 2762DDP     C316571   1.120  11.234  22.995 -0.0356 -0.0793  0.0528
 2762DDP     C416572   0.919  11.218  21.786  0.2026  0.0627 -0.1201
 2763DDP     C116573  18.005   0.698   3.312 -0.2302  0.0609  0.0672
 2763DDP     P116574  18.376   0.919   3.182 -0.1264 -0.3316  0.0289
 2763DDP     P216575  17.847   0.363   3.127  0.0481  0.3116  0.0519
 2763DDP     C216576  17.653  30.272   2.986 -0.2360  0.1992 -0.1439
 2763DDP     C316577  18.726   1.226   3.071 -0.0216 -0.1466  0.1862
 2763DDP     C416578  17.861   0.798   3.617  0.1717  0.0625  0.2197
 2764DDP     C116579  23.695  13.239  30.288 -0.0667  0.1439 -0.1529
 2764DDP     P116580  23.981  13.594   0.034 -0.1586 -0.0323 -0.0398
 2764DDP     P216581  23.438  13.152   0.347 -0.2629  0.0509  0.1476
 2764DDP     C216582  23.126  13.269   0.554  0.0292 -0.0591 -0.0292
 2764DDP     C316583  24.398  13.665  30.267  0.2131 -0.0382 -0.1979
 2764DDP     C416584  23.741  12.965  29.931  0.3038  0.0886  0.0520
 2765DDP     C116585  13.363  21.669  25.135 -0.0880 -0.4053  0.0689
 2765DDP     P116586  13.005  21.876  25.058 -0.2441  0.1285  0.1632
 2765DDP     P216587  13.624  21.525  24.829  0.1009  0.1266 -0.0166
 2765DDP     C216588  14.053  21.572  24.620  0.1532 -0.0030  0.0230
 2765DDP     C316589  12.581  21.954  24.830 -0.0925 -0.2474  0.0913
 2765DDP     C416590  13.553  21.571  25.562  0.2662 -0.0681  0.1100
 2766DDP     C116591  26.231  30.088  27.901  0.3183  0.0406  0.1295
 2766DDP     P116592  26.496  29.752  27.933  0.2224 -0.1956  0.2888
 2766DDP     P216593  26.349   0.099  27.658 -0.1052  0.0429  0.2055
 2766DDP     C216594  26.412  30.294  27.265  0.2005  0.0178 -0.0565
 2766DDP     C316595  26.889  29.882  28.060  0.0512  0.2999 -0.1628
 2766DDP     C416596  25.766  30.100  27.913  0.3139  0.1316  0.0026
 2767DDP     C116597  29.944  19.169   8.588 -0.3439  0.0973  0.0998
 2767DDP     P116598  29.541  19.277   8.609 -0.0693  0.4048 -0.0080
 2767DDP     P216599  30.166  18.897   8.727  0.1868  0.1707  0.0515
 2767DDP     C216600   0.276  18.689   8.762  0.1004 -0.1749  0.0831
 2767DDP     C316601  29.175  19.426   8.545  0.2209 -0.0377 -0.2595
 2767DDP     C416602  30.169  19.482   8.349 -0.0372  0.0391 -0.0558
 2768DDP     C116603  12.162   2.637  11.151 -0.1166 -0.0290 -0.0700
 2768DDP     P116604  11.926   2.319  11.360 -0.2524  0.0454 -0.3012
 2768DDP     P216605  12.376   2.899  11.383  0.2220 -0.3197 -0.2348
 2768DDP     C216606  12.634   3.283  11.522 -0.3112  0.2071 -0.1759
 2768DDP     C316607  11.941   2.414  11.765 -0.1973  0.0510 -0.4817
 2768DDP     C416608  12.244   2.378  10.706 -0.0180 -0.3666 -0.2180
 2769DDP     C116609  20.135  25.836  24.318 -0.1712 -0.2439 -0.0059
 2769DDP     P116610  20.123  25.957  23.937 -0.0996 -0.3515 -0.3682
 2769DDP     P216611  20.431  25.904  24.596 -0.0130  0.1133  0.2947
 2769DDP     C216612  20.527  26.275  24.820  0.1207 -0.3195 -0.0544
 2769DDP     C316613  20.247  26.184  23.548 -0.0281 -0.0571 -0.0120
 2769DDP     C416614  19.694  25.596  24.277 -0.1003  0.1728 -0.1393
 2770DDP     C116615   7.310  23.225  22.510  0.1716 -0.0484 -0.3296
 2770DDP     P116616   7.348  23.523  22.132  0.0757  0.0666  0.1471
 2770DDP     P216617   7.587  23.297  22.906  0.2990  0.0031  0.3720
 2770DDP     C216618   7.825  23.584  23.049 -0.0145  0.0849  0.2036
 2770DDP     C316619   7.086  23.726  21.732 -0.1957  0.0866  0.2098
 2770DDP     C416620   6.945  23.105  22.440 -0.4960  0.3818  0.0576
 2771DDP     C116621   2.275   4.600  23.911 -0.0379 -0.0238  0.2829
 2771DDP     P116622   2.750   4.681  23.758 -0.1612  0.0997  0.0925
 2771DDP     P216623   2.266   4.233  23.592 -0.0725  0.3466  0.1477
 2771DDP     C216624   2.430   4.392  23.329  0.2007 -0.0180  0.1115
 2771DDP     C316625   3.111   4.642  23.544 -0.0530 -0.1440  0.0982
 2771DDP     C416626   1.878   4.750  24.090 -0.0599 -0.0763  0.1314
 2772DDP     C116627  28.533   5.024  18.268  0.1847  0.0992  0.1802
 2772DDP     P116628  28.677   5.513  18.142 -0.1602  0.3901 -0.3333
 2772DDP     P216629  28.268   4.948  17.916  0.0544  0.2740  0.2482
 2772DDP     C216630  28.230   4.940  17.467  0.2125  0.2551 -0.3643
 2772DDP     C316631  28.973   5.847  18.057 -0.0236  0.0487 -0.0958
 2772DDP     C416632  28.553   4.724  18.576  0.0300  0.2171 -0.0487
 2773DDP     C116633  23.115  26.455   1.032  0.0403  0.2325  0.2586
 2773DDP     P116634  22.883  26.471   0.708  0.2424 -0.0373 -0.4190
 2773DDP     P216635  23.164  26.866   1.207 -0.0223  0.4410  0.0234
 2773DDP     C216636  23.471  27.200   1.368  0.2870  0.1423  0.2648
 2773DDP     C316637  22.442  26.582   0.554 -0.3782  0.3048  0.0025
 2773DDP     C416638  23.223  26.109   1.261  0.0083  0.1834 -0.3162
 2774DDP     C116639  12.509   1.447   8.073 -0.1366  0.2355  0.1395
 2774DDP     P116640  12.444   1.603   8.491  0.1368 -0.1084 -0.0327
 2774DDP     P216641  12.115   1.258   7.885  0.2673  0.1303 -0.0200
 2774DDP     C216642  11.681   1.242   7.774 -0.2108  0.2350 -0.3430
 2774DDP     C316643  12.080   1.869   8.834  0.4497 -0.0990 -0.0021
 2774DDP     C416644  12.948   1.459   7.808 -0.1747  0.1789  0.2008
 2775DDP     C116645   5.755  15.959  27.896 -0.0088  0.0008 -0.0027
 2775DDP     P116646   5.949  16.241  28.095  0.2017 -0.0525 -0.0359
 2775DDP     P216647   5.391  15.816  27.957 -0.1302  0.0866 -0.2313
 2775DDP     C216648   5.090  15.668  28.120  0.0344 -0.1816 -0.2448
 2775DDP     C316649   5.940  16.610  27.961  0.2779  0.0691  0.0693
 2775DDP     C416650   5.926  15.637  27.681 -0.3034  0.1704  0.0103
 2776DDP     C116651  26.413  21.648  20.628  0.1323  0.2370 -0.0256
 2776DDP     P116652  26.361  21.998  20.207 -0.0169 -0.0114 -0.2384
 2776DDP     P216653  26.590  21.184  20.434 -0.1782  0.2763  0.1976
 2776DDP     C216654  26.955  21.124  20.254 -0.1955  0.2403 -0.0248
 2776DDP     C316655  26.273  22.366  19.958 -0.2085 -0.1186 -0.1135
 2776DDP     C416656  26.508  21.803  21.098 -0.2178  0.1243 -0.0574
 2777DDP     C116657   4.044  14.889  27.927 -0.2921 -0.4840  0.0618
 2777DDP     P116658   4.269  15.099  28.260 -0.1260 -0.2101  0.1626
 2777DDP     P216659   3.820  15.124  27.716  0.1175  0.0292  0.1829
 2777DDP     C216660   3.653  14.959  27.234  0.0343  0.4150 -0.0921
 2777DDP     C316661   4.272  15.154  28.703 -0.1212 -0.1125 -0.2043
 2777DDP     C416662   3.930  14.450  27.976  0.0928 -0.1539 -0.1482
 2778DDP     C116663   8.098  15.130  15.046  0.3065 -0.0928 -0.1220
 2778DDP     P116664   8.202  15.184  15.507 -0.0410  0.0782  0.0270
 2778DDP     P216665   8.440  15.398  14.812  0.3194 -0.1226 -0.0343
 2778DDP     C216666   8.814  15.503  14.495 -0.1865 -0.3072 -0.1372
 2778DDP     C316667   8.250  15.232  16.029 -0.1038 -0.0924 -0.1363
 2778DDP     C416668   7.887  14.721  14.810  0.1759 -0.2512 -0.1070
 2779DDP     C116669  27.811  25.473   8.340 -0.3665  0.1563  0.3188
 2779DDP     P116670  27.923  25.119   8.577 -0.1784  0.0938  0.1405
 2779DDP     P216671  27.959  25.361   7.973 -0.0394  0.0634 -0.0551
 2779DDP     C216672  28.378  25.482   7.804 -0.2519 -0.0463  0.2237
 2779DDP     C316673  27.795  24.843   9.028 -0.2139  0.2098 -0.1972
 2779DDP     C416674  27.663  25.890   8.350  0.1248  0.0139 -0.3165
 2780DDP     C116675  23.915  26.700  16.795 -0.3130 -0.1615  0.0735
 2780DDP     P116676  24.287  26.669  17.167  0.1470  0.2538 -0.0268
 2780DDP     P216677  23.730  26.266  16.792 -0.3969 -0.0756  0.0202
 2780DDP     C216678  23.552  25.953  17.070  0.1624  0.0160  0.1316
 2780DDP     C316679  24.484  26.666  17.532  0.0045  0.3805  0.0353
 2780DDP     C416680  23.875  27.012  16.418 -0.1985  0.2723  0.2087
 2781DDP     C116681   4.291  13.557  12.825 -0.2582 -0.0075 -0.0392
 2781DDP     P116682   4.470  13.235  13.004  0.0865  0.3205  0.0971
 2781DDP     P216683   4.693  13.709  13.013  0.3913 -0.0926  0.0060
 2781DDP     C216684   5.013  13.517  12.959 -0.1454 -0.0830 -0.0258
 2781DDP     C316685   4.357  13.051  13.458 -0.0238  0.1465 -0.0505
 2781DDP     C416686   3.924  13.593  12.730  0.0574 -0.1783  0.1006
 2782DDP     C116687  12.245   3.393   3.824  0.0059  0.1180 -0.0417
 2782DDP     P116688  12.485   3.394   4.210  0.3630  0.1831  0.1840
 2782DDP     P216689  12.476   3.355   3.332  0.0535 -0.1107 -0.1764
 2782DDP     C216690  12.851   3.339   3.294 -0.0804 -0.3034 -0.0397
 2782DDP     C316691  12.753   3.135   4.344  0.3797  0.2222 -0.2541
 2782DDP     C416692  11.778   3.401   3.837 -0.0519 -0.4027 -0.2082
 2783DDP     C116693  14.313  25.051  23.025  0.2687 -0.1002 -0.2463
 2783DDP     P116694  14.049  24.804  23.329  0.1914 -0.2749 -0.2501
 2783DDP     P216695  14.772  25.017  23.106 -0.3550  0.2455  0.0375
 2783DDP     C216696  15.048  25.256  22.877 -0.2526  0.3226 -0.0416
 2783DDP     C316697  14.118  24.650  23.746  0.0438  0.0126 -0.2010
 2783DDP     C416698  14.367  25.128  22.633  0.2036 -0.2232 -0.2150
 2784DDP     C116699   0.018   0.366  11.482 -0.2285 -0.0054  0.0876
 2784DDP     P116700   0.251  30.239  11.333  0.2800 -0.2609  0.1044
 2784DDP     P216701  30.016   0.336  11.722 -0.2082  0.1528 -0.0970
 2784DDP     C216702  29.648   0.471  11.879  0.0196  0.1682  0.0569
 2784DDP     C316703   0.287  29.846  11.561 -0.0712  0.0627  0.2194
 2784DDP     C416704   0.105   0.799  11.421  0.3123  0.2011 -0.1721
 2785DDP     C116705  29.191  16.809   2.267 -0.1451 -0.1914  0.0294
 2785DDP     P116706  29.601  16.702   2.148  0.2832  0.0603  0.0273
 2785DDP     P216707  28.957  16.445   2.401  0.1438 -0.2053  0.0762
 2785DDP     C216708  28.530  16.417   2.384 -0.3733  0.3049  0.0999
 2785DDP     C316709  29.721  16.553   1.849 -0.2260  0.4934  0.3944
 2785DDP     C416710  28.959  17.244   2.152 -0.0527 -0.0849  0.2432
 2786DDP     C116711  11.268   8.343  16.212  0.1803 -0.3001  0.1570
 2786DDP     P116712  11.378   8.600  15.891  0.4366 -0.1040  0.0394
 2786DDP     P216713  10.903   8.349  16.194  0.0261  0.1614  0.1748
 2786DDP     C216714  10.624   8.625  16.082 -0.2418  0.0209  0.0452
 2786DDP     C316715  11.547   8.715  15.497 -0.0252 -0.0545 -0.2635
 2786DDP     C416716  11.521   7.944  16.466 -0.0510  0.1947  0.1002
 2787DDP     C116717  17.031   3.067   5.114  0.1026  0.2059 -0.1565
 2787DDP     P116718  16.895   2.649   5.170 -0.2180 -0.1253 -0.2692
 2787DDP     P216719  16.898   3.484   5.209 -0.1074 -0.0507  0.0226
 2787DDP     C216720  16.694   3.812   5.510 -0.0563  0.4350 -0.1831
 2787DDP     C316721  16.730   2.454   5.553  0.0563  0.2131 -0.1398
 2787DDP     C416722  17.438   3.165   5.087  0.5187 -0.3124 -0.1928
 2788DDP     C116723  23.735  14.689  16.029  0.1162 -0.1337  0.0473
 2788DDP     P116724  23.515  14.256  15.959 -0.2227 -0.0960  0.1656
 2788DDP     P216725  24.180  14.718  16.252 -0.0211 -0.0774 -0.2630
 2788DDP     C216726  24.403  15.006  16.591 -0.2402 -0.1453 -0.1466
 2788DDP     C316727  23.378  13.954  15.695  0.1272  0.2233  0.1847
 2788DDP     C416728  23.377  14.945  15.962 -0.0764 -0.0719  0.0091
 2789DDP     C116729  12.172  10.873  26.222 -0.3927 -0.2668 -0.1930
 2789DDP     P116730  12.408  10.675  26.495  0.1504 -0.0458  0.1731
 2789DDP     P216731  12.104  11.253  26.349  0.1599  0.1160  0.1518
 2789DDP     C216732  11.742  11.409  26.450  0.0806  0.1226 -0.0679
 2789DDP     C316733  12.734  10.759  26.822 -0.0342 -0.0813  0.4874
 2789DDP     C416734  12.340  10.830  25.846  0.0747  0.1354 -0.2631
 2790DDP     C116735   0.236  22.387  19.680 -0.1576  0.0780 -0.0328
 2790DDP     P116736   0.118  22.748  19.980  0.1326  0.1317 -0.1834
 2790DDP     P216737   0.587  22.191  19.872  0.1742  0.0682 -0.1479
 2790DDP     C216738   0.856  22.158  20.296 -0.2346  0.0627 -0.0657
 2790DDP     C316739  30.290  22.971  20.336  0.0960  0.2316  0.1113
 2790DDP     C416740   0.006  22.249  19.323 -0.1551 -0.3984 -0.2833
 2791DDP     C116741  28.995  11.400  28.200  0.0104  0.2908  0.2051
 2791DDP     P116742  28.917  11.017  28.501  0.0391 -0.0784 -0.0565
 2791DDP     P216743  29.013  11.744  28.290 -0.1815  0.0295  0.0044
 2791DDP     C216744  28.891  12.209  28.146  0.1370  0.1869 -0.2016
 2791DDP     C316745  28.702  11.045  28.960 -0.0282  0.0165  0.0295
 2791DDP     C416746  28.957  11.317  27.691  0.0520  0.2642  0.2230
 2792DDP     C116747  30.316   5.984   9.028  0.2375  0.1141 -0.0865
 2792DDP     P116748   0.373   5.697   8.984 -0.1128  0.1351 -0.1061
 2792DDP     P216749  30.138   5.922   9.469 -0.1920 -0.1387 -0.3204
 2792DDP     C216750  29.817   5.868   9.900  0.0963 -0.1460  0.1744
 2792DDP     C316751   0.601   5.630   8.604  0.0676  0.1483  0.1147
 2792DDP     C416752  30.173   6.193   8.711  0.1254 -0.2027 -0.1022
 2793DDP     C116753  25.905   5.912  20.185 -0.3013 -0.2601  0.0045
 2793DDP     P116754  26.076   6.215  19.955 -0.0796 -0.3672  0.1814
 2793DDP     P216755  26.152   6.173  20.566  0.0215 -0.0569  0.1518
 2793DDP     C216756  26.379   6.276  20.926 -0.0744  0.2140 -0.1314
 2793DDP     C316757  26.215   6.506  19.642 -0.1165 -0.3420 -0.0413
 2793DDP     C416758  25.544   5.708  20.210 -0.1984 -0.1573 -0.0662
 2794DDP     C116759  28.783   1.475  16.314 -0.2493  0.0220 -0.1379
 2794DDP     P116760  28.699   1.643  16.546  0.0804  0.1294  0.1805
 2794DDP     P216761  29.164   1.383  16.445 -0.0560  0.2215 -0.1483
 2794DDP     C216762  29.423   1.388  16.880  0.1492 -0.2886  0.0184
 2794DDP     C316763  28.951   1.794  16.875 -0.0037  0.0241 -0.3676
 2794DDP     C416764  28.629   1.434  15.907 -0.1924  0.2856  0.1092
 2795DDP     C116765   9.953  19.955  26.445 -0.1045 -0.0896 -0.0344
 2795DDP     P116766   9.974  19.507  26.403 -0.0564 -0.0285 -0.0527
 2795DDP     P216767   9.693  20.191  26.810  0.1728  0.3804  0.3129
 2795DDP     C216768   9.531  20.190  27.158 -0.1560  0.0351 -0.1387
 2795DDP     C316769  10.304  19.325  26.167 -0.3140  0.0613 -0.2694
 2795DDP     C416770  10.044  20.185  26.093 -0.0567  0.0853 -0.0081
 2796DDP     C116771  23.967   7.573   7.891 -0.0258 -0.1332 -0.1293
 2796DDP     P116772  24.212   7.770   7.577 -0.2520  0.0152  0.5533
 2796DDP     P216773  23.879   7.208   7.958 -0.0867 -0.1217  0.1393
 2796DDP     C216774  24.199   6.941   8.209  0.0755  0.0033 -0.4314
 2796DDP     C316775  24.368   8.091   7.336 -0.1678 -0.1952  0.1012
 2796DDP     C416776  23.786   7.766   8.190  0.0101  0.0907  0.0565
 2797DDP     C116777   0.104   9.253  24.730  0.2245 -0.0605 -0.2440
 2797DDP     P116778  30.073   9.054  24.621  0.0852  0.3070 -0.0193
 2797DDP     P216779   0.480   9.174  24.536  0.1971  0.2724 -0.0344
 2797DDP     C216780   0.766   9.310  24.279  0.0799  0.0143  0.2180
 2797DDP     C316781  29.946   8.794  24.276  0.1830 -0.0163 -0.3869
 2797DDP     C416782   0.195   9.583  24.998  0.2472  0.1359 -0.2781
 2798DDP     C116783  19.063   5.469   5.620  0.0436  0.1251 -0.1026
 2798DDP     P116784  19.366   5.739   5.960  0.0722 -0.1648  0.2582
 2798DDP     P216785  18.833   5.785   5.384 -0.2900  0.1841 -0.0110
 2798DDP     C216786  18.620   5.669   5.155  0.0757  0.0038 -0.0315
 2798DDP     C316787  19.484   6.097   5.843 -0.0150 -0.1753 -0.1369
 2798DDP     C416788  19.182   4.930   5.339 -0.3418  0.2892 -0.0733
 2799DDP     C116789  23.419  22.606   8.294 -0.0828 -0.0573  0.0223
 2799DDP     P116790  23.498  22.151   8.281 -0.0748 -0.0593  0.1316
 2799DDP     P216791  23.078  22.789   8.177 -0.4142 -0.0862  0.0065
 2799DDP     C216792  22.697  23.002   8.176  0.0621  0.1020  0.0276
 2799DDP     C316793  23.708  21.898   8.467  0.1094  0.2098 -0.1002
 2799DDP     C416794  23.542  22.966   8.468  0.1131  0.1518 -0.1715
 2800DDP     C116795  16.198   2.613   2.154 -0.1252 -0.2578  0.2186
 2800DDP     P116796  16.086   2.351   1.815  0.0347  0.2173  0.0369
 2800DDP     P216797  16.433   2.553   2.548 -0.2144  0.0529 -0.0044
 2800DDP     C216798  16.800   2.335   2.735  0.0155 -0.1922  0.1571
 2800DDP     C316799  16.316   2.309   1.391  0.0020  0.0616 -0.3716
 2800DDP     C416800  16.156   3.102   2.036  0.0899  0.3755 -0.1625
 2801DDP     C116801  17.541  12.508   6.279  0.0561  0.0875  0.3806
 2801DDP     P116802  17.889  12.326   6.092 -0.1003  0.0522 -0.0286
 2801DDP     P216803  17.732  12.660   6.646  0.0311  0.1979  0.0728
 2801DDP     C216804  17.958  12.923   6.789 -0.0108 -0.1545 -0.2495
 2801DDP     C316805  18.109  12.401   5.723 -0.1130  0.1721  0.1357
 2801DDP     C416806  17.160  12.645   6.237  0.1006  0.2638 -0.0209
 2802DDP     C116807   7.374  11.279  24.980 -0.1840  0.1035  0.0121
 2802DDP     P116808   7.354  11.065  24.587  0.0595  0.0486 -0.1712
 2802DDP     P216809   7.837  11.426  25.155 -0.3416  0.3233 -0.0668
 2802DDP     C216810   7.925  11.736  25.448  0.2857  0.2548  0.0225
 2802DDP     C316811   7.193  10.684  24.216  0.0291 -0.2390  0.2006
 2802DDP     C416812   7.076  11.633  25.065  0.1230  0.1489  0.0957
 2803DDP     C116813   1.144  21.112   1.833  0.1072  0.1672 -0.0353
 2803DDP     P116814   0.771  21.138   1.545  0.0152  0.0365 -0.1188
 2803DDP     P216815   1.115  20.863   2.125 -0.4055 -0.1873 -0.0406
 2803DDP     C216816   0.892  20.725   2.526 -0.0301  0.0995 -0.2835
 2803DDP     C316817   0.457  21.493   1.391 -0.3777  0.3954  0.1019
 2803DDP     C416818   1.340  21.517   1.884 -0.0720 -0.2170  0.2976
 2804DDP     C116819  28.545  17.821  26.072  0.3217  0.3370  0.2877
 2804DDP     P116820  28.156  17.753  25.796  0.0942 -0.0489  0.0183
 2804DDP     P216821  28.855  18.114  25.976  0.2828 -0.2299  0.0749
 2804DDP     C216822  29.352  18.008  25.840  0.1101  0.1843 -0.2181
 2804DDP     C316823  28.257  17.644  25.346 -0.1519 -0.0132 -0.1413
 2804DDP     C416824  28.595  17.716  26.462  0.0635  0.2176 -0.0520
 2805DDP     C116825  28.411  16.984   4.412 -0.0141 -0.0719 -0.2616
 2805DDP     P116826  28.414  17.287   4.718 -0.2124  0.0301  0.2864
 2805DDP     P216827  28.232  16.603   4.409 -0.0706 -0.0312  0.1505
 2805DDP     C216828  27.909  16.595   4.815  0.1936  0.1195 -0.1396
 2805DDP     C316829  28.308  17.716   4.720  0.0658  0.1158  0.4410
 2805DDP     C416830  28.478  17.347   4.124  0.2056 -0.2229 -0.2642
 2806DDP     C116831  28.235  21.799  14.637  0.0805 -0.0789  0.2771
 2806DDP     P116832  28.142  22.015  14.354  0.0548  0.1180  0.3990
 2806DDP     P216833  28.683  21.630  14.773  0.0727 -0.0098  0.3991
 2806DDP     C216834  29.092  21.479  14.977  0.0259 -0.4380  0.2447
 2806DDP     C316835  27.833  22.313  14.342  0.0084  0.0814  0.1621
 2806DDP     C416836  27.789  21.768  14.960 -0.0435  0.1217 -0.0930
 2807DDP     C116837   9.141  21.187  10.932 -0.2375  0.0488  0.2585
 2807DDP     P116838   9.189  21.664  10.920  0.0387 -0.1842  0.0365
 2807DDP     P216839   9.525  20.973  11.038  0.2220  0.0545  0.0962
 2807DDP     C216840   9.937  21.085  11.030  0.1309  0.3409 -0.0151
 2807DDP     C316841   9.293  22.164  11.032 -0.0580  0.1032  0.2862
 2807DDP     C416842   8.704  21.114  10.785  0.2427 -0.1978  0.0257
 2808DDP     C116843  21.346   3.635  16.941  0.2482 -0.0135 -0.2713
 2808DDP     P116844  21.124   3.946  16.529  0.0647  0.0707 -0.3157
 2808DDP     P216845  21.430   3.191  16.972  0.2619 -0.1303  0.0488
 2808DDP     C216846  21.194   2.839  16.878 -0.0550 -0.0227 -0.0961
 2808DDP     C316847  21.211   4.420  16.461 -0.4353  0.0825  0.0015
 2808DDP     C416848  21.568   3.965  17.123  0.0985  0.0179 -0.2630
 2809DDP     C116849   8.074  23.486  14.995 -0.1271 -0.1147 -0.1540
 2809DDP     P116850   8.477  23.225  14.869 -0.1111 -0.0249  0.1122
 2809DDP     P216851   8.032  23.769  14.590  0.1806  0.1000  0.1391
 2809DDP     C216852   8.062  23.588  14.134 -0.0123 -0.1252 -0.2966
 2809DDP     C316853   8.563  22.734  14.988  0.1845  0.0754  0.0029
 2809DDP     C416854   7.825  23.345  15.304  0.1559  0.0958 -0.0423
 2810DDP     C116855  15.437  10.526   1.448  0.2890  0.2405  0.1994
 2810DDP     P116856  15.112  10.495   1.208  0.1209 -0.0468 -0.0254
 2810DDP     P216857  15.658  10.932   1.505  0.1140 -0.0066  0.0440
 2810DDP     C216858  16.079  11.167   1.511  0.1488 -0.0516  0.1362
 2810DDP     C316859  14.677  10.437   1.113  0.0174  0.0213 -0.0281
 2810DDP     C416860  15.630  10.218   1.594 -0.2667 -0.1692  0.0850
 2811DDP     C116861  10.431  26.511   0.720  0.2897  0.0504  0.0785
 2811DDP     P116862  10.504  26.693   1.060 -0.2583 -0.0268 -0.1416
 2811DDP     P216863  10.656  26.625   0.322  0.0564 -0.0646 -0.2290
 2811DDP     C216864  10.814  26.614  30.153 -0.1978 -0.0962 -0.1830
 2811DDP     C316865  10.731  26.828   1.373  0.1017 -0.0226 -0.1388
 2811DDP     C416866  10.163  26.161   0.613  0.0292 -0.0926 -0.1227
 2812DDP     C116867  29.427  14.286  30.189 -0.1915 -0.1879  0.0425
 2812DDP     P116868  29.423  13.849  30.169  0.1084 -0.2113  0.2211
 2812DDP     P216869  29.266  14.608  29.898  0.0863 -0.1385 -0.1357
 2812DDP     C216870  28.878  14.892  29.914  0.2154 -0.0879 -0.3926
 2812DDP     C316871  29.584  13.556  29.878  0.0747 -0.0923 -0.1893
 2812DDP     C416872  29.292  14.485   0.306 -0.3430  0.2416 -0.1037
 2813DDP     C116873  22.975   7.626  13.016  0.2192  0.2173  0.2836
 2813DDP     P116874  22.820   8.034  13.150  0.0043  0.2747  0.0863
 2813DDP     P216875  23.289   7.565  12.766  0.2617 -0.1191  0.3044
 2813DDP     C216876  23.398   7.434  12.413  0.0641 -0.4300  0.0747
 2813DDP     C316877  22.833   8.428  13.291  0.0430  0.1788 -0.0895
 2813DDP     C416878  22.750   7.201  13.130 -0.0884 -0.0980 -0.2963
 2814DDP     C116879  10.440  19.461  18.127  0.0776  0.2102 -0.0507
 2814DDP     P116880  10.089  19.580  17.859  0.1228 -0.3832  0.0627
 2814DDP     P216881  10.501  19.682  18.595 -0.2279  0.4067  0.0609
 2814DDP     C216882  10.306  19.782  19.009 -0.0152  0.0737 -0.0080
 2814DDP     C316883  10.106  19.803  17.501  0.1628 -0.0270  0.1648
 2814DDP     C416884  10.783  19.050  18.121 -0.0419  0.0023  0.1857
 2815DDP     C116885   7.915  10.853   3.947 -0.0406 -0.1278 -0.0885
 2815DDP     P116886   7.985  11.037   4.313 -0.0501  0.0601 -0.1151
 2815DDP     P216887   8.287  10.663   3.657 -0.2110 -0.0876  0.0180
 2815DDP     C216888   8.677  10.619   3.783 -0.0603  0.1700  0.1181
 2815DDP     C316889   7.703  11.300   4.564 -0.1636 -0.0694  0.1334
 2815DDP     C416890   7.495  10.777   3.801  0.0398  0.1876  0.0731
 2816DDP     C116891  22.597  19.426  22.913  0.0899  0.1659  0.2542
 2816DDP     P116892  22.156  19.527  23.053 -0.2912 -0.0306  0.2003
 2816DDP     P216893  22.886  19.431  23.020  0.1396 -0.0853  0.0454
 2816DDP     C216894  23.206  19.765  23.089 -0.0749  0.0758  0.3994
 2816DDP     C316895  21.775  19.752  23.045  0.0556  0.0997  0.1507
 2816DDP     C416896  22.761  19.307  22.470  0.0425 -0.1728  0.0368
 2817DDP     C116897  29.925   9.973   2.083  0.0116  0.2603  0.0743
 2817DDP     P116898  29.821  10.000   1.631 -0.0117 -0.0985 -0.3353
 2817DDP     P216899  30.045  10.346   2.336  0.3550 -0.0351  0.2526
 2817DDP     C216900  30.028  10.798   2.227  0.1295 -0.2757 -0.0825
 2817DDP     C316901  29.560  10.304   1.420  0.1271 -0.4364  0.0871
 2817DDP     C416902  29.836   9.653   2.277  0.1280 -0.0504 -0.0695
 2818DDP     C116903  19.252  14.582  20.227 -0.2163 -0.0738  0.2444
 2818DDP     P116904  19.072  14.157  20.241  0.0077  0.0345  0.0848
 2818DDP     P216905  18.895  14.750  20.107  0.1805 -0.1040  0.2120
 2818DDP     C216906  18.744  15.131  19.890  0.0657 -0.1573 -0.0014
 2818DDP     C316907  18.665  14.035  20.266  0.0145  0.0016 -0.1575
 2818DDP     C416908  19.688  14.720  20.439 -0.2614 -0.1076  0.3658
 2819DDP     C116909  22.670  15.584  18.728  0.1229 -0.0136 -0.2583
 2819DDP     P116910  22.558  15.265  18.586 -0.2028  0.5104 -0.0766
 2819DDP     P216911  22.610  15.982  18.591 -0.0369 -0.2936  0.0203
 2819DDP     C216912  22.822  16.180  18.653 -0.0867 -0.3269  0.1095
 2819DDP     C316913  22.478  14.859  18.598 -0.0816 -0.2206 -0.1428
 2819DDP     C416914  22.945  15.420  19.052 -0.2363 -0.1676  0.3232
 2820DDP     C116915   7.250   2.888  27.036  0.0896  0.2986  0.1053
 2820DDP     P116916   7.094   2.517  27.166 -0.0877  0.2326  0.0057
 2820DDP     P216917   7.620   2.944  26.871 -0.2850 -0.1492  0.1805
 2820DDP     C216918   7.917   3.306  26.717 -0.0521  0.2558  0.3106
 2820DDP     C316919   7.203   2.023  27.369 -0.1823 -0.0966  0.0633
 2820DDP     C416920   7.057   3.181  27.015 -0.1349  0.1124  0.1736
 2821DDP     C116921  19.910  24.489  14.645  0.0677 -0.1542  0.0890
 2821DDP     P116922  20.382  24.395  14.604 -0.2614  0.3760  0.0010
 2821DDP     P216923  19.703  24.377  14.978 -0.4698  0.1426 -0.2322
 2821DDP     C216924  19.262  24.060  15.080  0.1792  0.0580 -0.0620
 2821DDP     C316925  20.840  24.206  14.657  0.1888 -0.3040  0.2594
 2821DDP     C416926  19.769  24.831  14.528 -0.0164  0.3312  0.0555
 2822DDP     C116927  15.747   4.216   2.941 -0.0930  0.0835  0.0243
 2822DDP     P116928  15.493   3.778   2.888 -0.0210 -0.0718  0.1592
 2822DDP     P216929  15.686   4.564   3.321 -0.1469  0.1433  0.0334
 2822DDP     C216930  15.544   5.022   3.376  0.0081  0.0163 -0.3302
 2822DDP     C316931  15.448   3.311   2.732  0.0450 -0.1407  0.1286
 2822DDP     C416932  15.936   4.412   2.646  0.1453 -0.3323 -0.1018
 2823DDP     C116933   9.856   2.774   8.742  0.1025  0.1059 -0.3235
 2823DDP     P116934   9.804   2.349   8.908  0.1745 -0.0191 -0.0301
 2823DDP     P216935  10.201   2.804   8.617 -0.0076 -0.0257 -0.0050
 2823DDP     C216936  10.521   2.515   8.369  0.1424 -0.0897 -0.3732
 2823DDP     C316937   9.626   1.948   9.218 -0.1744  0.1437  0.1665
 2823DDP     C416938   9.538   3.074   8.799 -0.0516  0.1496 -0.2229
 2824DDP     C116939  11.207   5.637  24.610  0.2539 -0.1202  0.1871
 2824DDP     P116940  10.934   5.975  24.645 -0.1359  0.0673  0.0314
 2824DDP     P216941  11.430   5.408  24.915  0.1583 -0.2141 -0.0209
 2824DDP     C216942  11.724   5.616  25.242 -0.2809  0.0637 -0.1792
 2824DDP     C316943  10.828   6.383  24.919 -0.0215  0.1654 -0.0472
 2824DDP     C416944  11.167   5.366  24.267  0.0306 -0.0830  0.3210
 2825DDP     C116945   7.383  28.381  23.829  0.0141 -0.1525 -0.3313
 2825DDP     P116946   7.769  28.066  23.792  0.1268  0.1400  0.1438
 2825DDP     P216947   7.080  28.403  24.135  0.3136  0.0265  0.2134
 2825DDP     C216948   6.772  28.765  24.283 -0.0089 -0.2453  0.0464
 2825DDP     C316949   7.886  27.682  24.044 -0.1094  0.2875 -0.2663
 2825DDP     C416950   7.330  28.920  23.781  0.1462  0.1170  0.2301
 2826DDP     C116951   1.377  26.687   2.173 -0.3925  0.3438 -0.0481
 2826DDP     P116952   1.229  26.332   2.089  0.0701 -0.1953  0.2223
 2826DDP     P216953   1.487  27.010   2.069  0.1562 -0.0875  0.1625
 2826DDP     C216954   1.771  27.282   1.772  0.0480  0.1471  0.0971
 2826DDP     C316955   1.007  25.925   1.991 -0.1897 -0.1315 -0.0353
 2826DDP     C416956   1.478  26.597   2.503  0.3654  0.0389 -0.0911
 2827DDP     C116957  13.579  16.748  25.208  0.1748 -0.1400  0.0350
 2827DDP     P116958  14.050  16.579  25.172 -0.0363 -0.2060  0.1114
 2827DDP     P216959  13.404  16.491  25.575  0.1235 -0.1030 -0.1030
 2827DDP     C216960  13.196  16.329  25.926  0.0005 -0.0703  0.0227
 2827DDP     C316961  14.347  16.555  24.929  0.0461 -0.1051  0.2033
 2827DDP     C416962  13.362  16.883  24.786 -0.0514 -0.0281  0.3908
 2828DDP     C116963  11.774   8.041  27.590 -0.2023 -0.0886  0.0021
 2828DDP     P116964  11.812   8.413  27.341 -0.0169  0.0915 -0.1472
 2828DDP     P216965  11.550   7.965  28.079 -0.0856 -0.1047 -0.1870
 2828DDP     C216966  11.409   7.665  28.404  0.1154  0.0827  0.0536
 2828DDP     C316967  12.003   8.857  27.400  0.0966  0.0182 -0.0031
 2828DDP     C416968  12.199   7.793  27.493  0.3794 -0.2119  0.1617
 2829DDP     C116969  16.924  23.747   3.448  0.1876  0.0512 -0.1540
 2829DDP     P116970  16.802  24.055   3.718  0.0510  0.1161  0.0811
 2829DDP     P216971  17.075  23.926   3.064  0.2950  0.1333 -0.2437
 2829DDP     C216972  17.244  23.738   2.621  0.0611 -0.1382  0.0466
 2829DDP     C316973  16.573  24.273   3.896  0.2278  0.0187  0.1710
 2829DDP     C416974  16.570  23.457   3.576  0.1245 -0.1783  0.0135
 2830DDP     C116975  20.274   7.600   6.120  0.0472  0.0524 -0.0232
 2830DDP     P116976  20.040   7.940   6.064  0.0255  0.0919 -0.4258
 2830DDP     P216977  20.242   7.140   6.240  0.2512 -0.4545  0.1319
 2830DDP     C216978  20.305   6.851   6.135 -0.0778  0.2314  0.1016
 2830DDP     C316979  19.791   7.983   5.732  0.3268 -0.2433  0.2246
 2830DDP     C416980  20.686   7.600   6.220  0.0674 -0.1005 -0.0073
 2831DDP     C116981  26.694  16.860  28.072  0.1810 -0.0115 -0.0465
 2831DDP     P116982  27.080  16.894  28.132 -0.0464  0.0185 -0.0149
 2831DDP     P216983  26.667  17.345  28.089  0.1282  0.1672  0.0353
 2831DDP     C216984  26.900  17.706  28.228 -0.0218  0.0426 -0.0235
 2831DDP     C316985  27.389  16.983  28.536  0.1352 -0.0347 -0.0654
 2831DDP     C416986  26.457  16.579  27.885 -0.0896 -0.1470  0.2306
 2832DDP     C116987  23.887  14.730   7.257 -0.0233  0.1489  0.2853
 2832DDP     P116988  24.166  14.719   6.960 -0.1813 -0.1974  0.0811
 2832DDP     P216989  23.716  15.085   7.475  0.1160  0.1726 -0.1888
 2832DDP     C216990  23.322  15.292   7.248  0.1537  0.2620 -0.1169
 2832DDP     C316991  24.265  15.082   6.896  0.1685  0.0328  0.2164
 2832DDP     C416992  23.863  14.230   7.174  0.2290  0.1692 -0.0101
 2833DDP     C116993  18.274   4.516   3.977  0.0646  0.0665 -0.0267
 2833DDP     P116994  17.838   4.363   4.099 -0.2678  0.1486 -0.2411
 2833DDP     P216995  18.530   4.252   3.761  0.0085 -0.2348  0.0282
 2833DDP     C216996  18.891   4.132   3.457  0.1889 -0.0737 -0.0303
 2833DDP     C316997  17.371   4.289   4.035  0.4006 -0.1937 -0.3218
 2833DDP     C416998  18.449   4.880   3.998 -0.1853  0.0243 -0.0939
 2834DDP     C116999  10.319  10.771  13.223  0.0546  0.0641 -0.2912
 2834DDP     P117000  10.169  10.291  13.162 -0.0552 -0.0773  0.2687
 2834DDP     P217001  10.228  11.125  13.249 -0.0155 -0.1353 -0.0212
 2834DDP     C217002   9.906  11.348  13.003 -0.3562  0.0060  0.0397
 2834DDP     C317003  10.087   9.888  13.454  0.1348 -0.1553  0.0979
 2834DDP     C417004  10.696  10.745  12.891  0.0286 -0.0803  0.1048
 2835DDP     C117005  10.765  27.698  21.913  0.1389 -0.1500 -0.1842
 2835DDP     P117006  10.670  27.264  21.967  0.1665  0.3192  0.0823
 2835DDP     P217007  10.905  27.955  21.530 -0.1909  0.0563  0.3113
 2835DDP     C217008  11.311  28.096  21.214  0.2407  0.0276 -0.3892
 2835DDP     C317009  10.687  26.927  21.750  0.1300 -0.2436 -0.1212
 2835DDP     C417010  10.531  27.948  22.203 -0.3257  0.0107  0.0181
 2836DDP     C117011   4.473  19.114   1.078  0.1355  0.0059 -0.0817
 2836DDP     P117012   4.578  19.278   1.491  0.0259  0.1031 -0.0187
 2836DDP     P217013   4.291  18.768   0.941  0.1700 -0.0455  0.1547
 2836DDP     C217014   4.096  18.383   1.049  0.1964 -0.3566 -0.0678
 2836DDP     C317015   4.982  19.368   1.439  0.0126  0.0180  0.2506
 2836DDP     C417016   4.542  19.361   0.705  0.0181  0.1486  0.0118
 2837DDP     C117017  26.830  19.954  17.191 -0.3349 -0.1461  0.0016
 2837DDP     P117018  26.675  20.194  17.587  0.4679 -0.0660  0.0656
 2837DDP     P217019  27.313  19.856  17.047 -0.1075  0.0669  0.0190
 2837DDP     C217020  27.764  19.775  17.025 -0.1643  0.2324  0.3372
 2837DDP     C317021  26.528  20.196  17.982 -0.2125  0.1434 -0.0794
 2837DDP     C417022  26.472  19.876  16.936  0.2024 -0.3118  0.2620
 2838DDP     C117023  20.016  20.950   7.453 -0.0522  0.4374 -0.0852
 2838DDP     P117024  19.627  21.045   7.279  0.1187 -0.0483  0.1099
 2838DDP     P217025  20.032  20.446   7.532 -0.0970  0.1194  0.0217
 2838DDP     C217026  20.147  20.105   7.604  0.0002 -0.3443  0.0236
 2838DDP     C317027  19.484  21.317   6.929 -0.0749 -0.0500 -0.0956
 2838DDP     C417028  20.147  21.264   7.871 -0.2979  0.0407 -0.0104
 2839DDP     C117029  27.239  13.573   2.865  0.2117  0.1432 -0.2615
 2839DDP     P117030  27.682  13.513   2.892  0.0946  0.3639 -0.3808
 2839DDP     P217031  27.180  13.953   2.735 -0.0244 -0.2941 -0.0086
 2839DDP     C217032  27.192  14.393   2.727 -0.0003  0.0060 -0.0282
 2839DDP     C317033  28.095  13.565   3.002  0.1660 -0.1160 -0.0338
 2839DDP     C417034  26.973  13.205   2.841  0.2289 -0.0476  0.1569
 2840DDP     C117035  24.340  16.494  16.643 -0.1673 -0.3309 -0.3103
 2840DDP     P117036  24.141  16.765  16.905  0.1756 -0.0015 -0.0804
 2840DDP     P217037  24.765  16.309  16.685  0.0218 -0.3191  0.0205
 2840DDP     C217038  25.042  16.174  17.042 -0.3663  0.0675  0.2663
 2840DDP     C317039  24.165  17.137  17.046  0.0891 -0.2726  0.1298
 2840DDP     C417040  23.970  16.441  16.522  0.0773 -0.0785  0.0210
 2841DDP     C117041  21.887  30.106  14.547 -0.2328 -0.2374 -0.2957
 2841DDP     P117042  21.611  29.794  14.489 -0.0213 -0.2484 -0.3513
 2841DDP     P217043  22.119  29.865  14.212 -0.0785 -0.0840  0.2896
 2841DDP     C217044  22.237  29.714  13.799  0.2601  0.2511 -0.0610
 2841DDP     C317045  21.361  29.501  14.741  0.1575  0.0746  0.0350
 2841DDP     C417046  22.234  30.267  14.761 -0.1214  0.2937  0.1748
 2842DDP     C117047   4.472   1.056  10.473 -0.0996  0.1925 -0.1454
 2842DDP     P117048   4.789   1.298  10.233 -0.2394  0.0358 -0.0161
 2842DDP     P217049   4.207   1.341  10.667 -0.0735  0.2328 -0.0572
 2842DDP     C217050   4.157   1.679  10.838 -0.0030 -0.0157  0.1647
 2842DDP     C317051   4.972   1.584  10.091 -0.0020 -0.0458  0.1344
 2842DDP     C417052   4.509   0.544  10.532  0.0079  0.0337 -0.1249
 2843DDP     C117053  13.838  13.194  19.332 -0.0225 -0.3620 -0.0206
 2843DDP     P117054  13.762  12.853  19.036 -0.2529  0.0089  0.0430
 2843DDP     P217055  14.137  12.947  19.572  0.2601 -0.1507 -0.1672
 2843DDP     C217056  14.089  13.136  19.941 -0.1371  0.0974 -0.0958
 2843DDP     C317057  13.809  12.534  18.832 -0.1478  0.0702 -0.1205
 2843DDP     C417058  13.763  13.606  19.351 -0.1670 -0.3192  0.0568
 2844DDP     C117059   7.549  12.774  18.798 -0.1151 -0.0895  0.2491
 2844DDP     P117060   7.566  13.194  18.797  0.0411  0.3176  0.0353
 2844DDP     P217061   7.194  12.509  18.775  0.0050 -0.5512  0.0964
 2844DDP     C217062   6.961  12.537  19.070  0.0061 -0.0732 -0.0585
 2844DDP     C317063   7.626  13.597  18.843  0.0623 -0.1779  0.1394
 2844DDP     C417064   7.943  12.545  18.804 -0.2406 -0.0483 -0.1332
 2845DDP     C117065  26.434  27.364  12.982 -0.0467  0.0034 -0.1188
 2845DDP     P117066  26.610  27.204  12.522 -0.0045 -0.3453  0.0919
 2845DDP     P217067  26.093  27.638  13.027  0.1261  0.0601 -0.0409
 2845DDP     C217068  25.740  27.455  12.911 -0.0983  0.1011 -0.0108
 2845DDP     C317069  26.769  27.136  12.154  0.2741 -0.0535  0.0173
 2845DDP     C417070  26.687  27.352  13.267  0.0553 -0.1288  0.0384
 2846DDP     C117071   4.657  28.337  20.505  0.2736  0.1905 -0.0712
 2846DDP     P117072   4.227  28.172  20.453  0.1093  0.0407  0.0105
 2846DDP     P217073   4.830  28.226  20.953 -0.1174  0.3373 -0.0627
 2846DDP     C217074   5.197  28.098  21.133 -0.2002 -0.0016  0.2313
 2846DDP     C317075   3.990  28.168  20.848  0.0853 -0.1712  0.0872
 2846DDP     C417076   4.787  28.451  20.151 -0.0250 -0.0060  0.2016
 2847DDP     C117077  26.859   8.113  11.097  0.0851 -0.2823 -0.2802
 2847DDP     P117078  26.871   7.984  10.635 -0.0950 -0.0035 -0.2751
 2847DDP     P217079  26.395   8.310  11.234  0.1289  0.1220  0.0544
 2847DDP     C217080  26.051   8.471  11.025 -0.0622 -0.3552 -0.3688
 2847DDP     C317081  27.249   7.934  10.324 -0.2061 -0.0155  0.1335
 2847DDP     C417082  27.085   7.950  11.361  0.0943 -0.1521  0.0122
 2848DDP     C117083  20.396  16.319   1.246  0.1898  0.5860  0.0299
 2848DDP     P117084  20.653  15.913   1.295  0.0197 -0.0962  0.1897
 2848DDP     P217085  20.100  16.321   0.824  0.4313  0.0330  0.1731
 2848DDP     C217086  19.635  16.231   0.767  0.1311 -0.0420  0.1007
 2848DDP     C317087  20.754  15.496   1.341 -0.1469 -0.0655  0.1159
 2848DDP     C417088  20.408  16.631   1.532 -0.1174  0.1407 -0.1465
 2849DDP     C117089  23.480  25.130  28.852  0.1821 -0.0697 -0.1963
 2849DDP     P117090  23.598  24.783  29.076 -0.0294  0.2477  0.1957
 2849DDP     P217091  23.748  25.391  28.533  0.0964 -0.0950  0.0539
 2849DDP     C217092  23.771  25.819  28.488 -0.1497  0.1485  0.1133
 2849DDP     C317093  23.757  24.357  29.086  0.0091  0.0053 -0.0565
 2849DDP     C417094  22.985  25.238  28.927 -0.1875 -0.1333  0.0748
 2850DDP     C117095  24.168  22.607  20.738 -0.1199 -0.1381 -0.1342
 2850DDP     P117096  23.980  23.025  20.931 -0.1463 -0.0817 -0.2477
 2850DDP     P217097  24.049  22.475  21.125  0.0179  0.1136 -0.4363
 2850DDP     C217098  23.967  22.229  21.454 -0.0968 -0.0554  0.2251
 2850DDP     C317099  23.679  23.180  21.253 -0.1365  0.4438 -0.1988
 2850DDP     C417100  24.468  22.564  20.329  0.1839  0.1097  0.1175
 2851DDP     C117101   2.463  29.337  21.617  0.2210  0.0835 -0.2381
 2851DDP     P117102   2.838  29.343  21.407  0.3273  0.0714  0.0681
 2851DDP     P217103   2.056  29.260  21.357 -0.1242 -0.1641 -0.0735
 2851DDP     C217104   1.662  29.501  21.455 -0.1572  0.2244 -0.3488
 2851DDP     C317105   2.872  29.586  20.935 -0.1502 -0.0492  0.0237
 2851DDP     C417106   2.489  29.339  22.099  0.1470 -0.1102 -0.0091
 2852DDP     C117107   3.803  29.956  22.662 -0.0067  0.3017  0.0429
 2852DDP     P117108   3.899  30.258  22.429 -0.0441 -0.2170 -0.1197
 2852DDP     P217109   3.757  30.222  22.980  0.0441  0.0374 -0.3032
 2852DDP     C217110   3.818   0.227  23.285  0.2069 -0.1485 -0.1475
 2852DDP     C317111   3.642   0.275  22.138 -0.0756 -0.0641  0.0477
 2852DDP     C417112   3.820  29.591  22.659 -0.4058 -0.0304  0.0584
 2853DDP     C117113  16.704   2.183   7.808 -0.4120 -0.0762  0.2184
 2853DDP     P117114  16.709   2.146   7.365  0.2551 -0.0892  0.1559
 2853DDP     P217115  16.481   2.524   8.130  0.0692  0.0507  0.0692
 2853DDP     C217116  16.181   2.352   8.380 -0.1281  0.0311 -0.3738
 2853DDP     C317117  16.952   1.797   7.261 -0.1743  0.0340  0.2704
 2853DDP     C417118  17.019   1.824   7.907 -0.0083  0.1314  0.2968
 2854DDP     C117119  29.245  13.745  11.969  0.1745 -0.2460 -0.0202
 2854DDP     P117120  29.221  13.372  12.220 -0.1462  0.0537 -0.0225
 2854DDP     P217121  29.079  13.956  12.237 -0.1498  0.0248  0.2945
 2854DDP     C217122  29.171  14.393  12.412 -0.2547 -0.0593 -0.1273
 2854DDP     C317123  29.170  13.141  12.537  0.2658 -0.4499 -0.0104
 2854DDP     C417124  29.326  13.977  11.554 -0.1502  0.0535  0.1738
 2855DDP     C117125  12.396  19.190  28.036  0.0735 -0.0550  0.0736
 2855DDP     P117126  12.177  19.501  28.271 -0.0199  0.3224 -0.1752
 2855DDP     P217127  12.200  19.173  27.564 -0.3501  0.3994 -0.0016
 2855DDP     C217128  12.319  18.860  27.326 -0.0116  0.2486 -0.1214
 2855DDP     C317129  12.259  19.946  28.443  0.1827 -0.0053  0.1090
 2855DDP     C417130  12.917  19.028  28.080  0.1459 -0.3309  0.1476
 2856DDP     C117131  20.774  11.621   8.104 -0.0128  0.0296 -0.0972
 2856DDP     P117132  20.606  11.564   8.579 -0.1628 -0.2276  0.0017
 2856DDP     P217133  20.520  11.620   7.772  0.2794 -0.0208  0.1511
 2856DDP     C217134  20.175  11.611   7.484  0.1688  0.2757 -0.1693
 2856DDP     C317135  20.647  11.930   8.896  0.3956 -0.1216  0.2709
 2856DDP     C417136  21.197  11.651   8.016  0.0778 -0.1762  0.0142
 2857DDP     C117137   9.443  16.929  29.325  0.1738  0.1578 -0.1338
 2857DDP     P117138   9.500  17.383  29.457  0.3325  0.0336  0.2927
 2857DDP     P217139   9.295  16.593  29.597  0.4454  0.0014 -0.0378
 2857DDP     C217140   9.421  16.134  29.682  0.3437  0.1424 -0.1129
 2857DDP     C317141   9.587  17.650  29.801  0.0765 -0.1737  0.0686
 2857DDP     C417142   9.715  16.725  28.973  0.0639 -0.2282  0.1708
 2858DDP     C117143  15.942  25.584  12.112  0.0127  0.0924 -0.0299
 2858DDP     P117144  15.532  25.556  12.375 -0.0791 -0.1666  0.5183
 2858DDP     P217145  16.114  26.043  12.244 -0.0734 -0.2148  0.1583
 2858DDP     C217146  16.404  26.090  12.574 -0.0006  0.0349  0.2648
 2858DDP     C317147  15.309  25.489  12.693 -0.0504  0.0973  0.1819
 2858DDP     C417148  16.169  25.408  11.852 -0.3759 -0.0895  0.0649
 2859DDP     C117149  25.808   0.382  28.096 -0.1792  0.0764 -0.0464
 2859DDP     P117150  26.037   0.437  27.710 -0.2613 -0.1929 -0.2379
 2859DDP     P217151  26.252   0.139  28.298 -0.0614  0.1315 -0.1597
 2859DDP     C217152  26.541   0.311  28.461 -0.2447 -0.2176  0.1147
 2859DDP     C317153  26.212   0.526  27.334 -0.1785 -0.0250 -0.2617
 2859DDP     C417154  25.379   0.302  28.210 -0.0447  0.2530 -0.2386
 2860DDP     C117155  13.832   5.684   5.186 -0.0244 -0.0878 -0.2482
 2860DDP     P117156  14.046   5.662   5.587  0.0367  0.1877 -0.2542
 2860DDP     P217157  13.973   5.933   4.866  0.3140 -0.3533  0.1964
 2860DDP     C217158  13.765   5.794   4.463  0.3384 -0.0923 -0.2181
 2860DDP     C317159  14.334   5.782   5.931 -0.4888 -0.2881 -0.1260
 2860DDP     C417160  13.507   5.472   5.031  0.1156 -0.0335 -0.0922
 2861DDP     C117161   1.440   1.878   0.232  0.2315  0.1719 -0.5013
 2861DDP     P117162   1.701   2.102   0.416 -0.1708 -0.2432  0.0169
 2861DDP     P217163   1.405   1.492   0.101  0.0727  0.4073  0.1397
 2861DDP     C217164   1.537   1.144   0.312  0.0185  0.0422  0.1078
 2861DDP     C317165   2.040   2.389   0.477  0.1972  0.1554 -0.0564
 2861DDP     C417166   1.174   2.158   0.084  0.0561  0.1782 -0.2032
 2862DDP     C117167  16.194   3.417  22.387 -0.2988  0.0302  0.1028
 2862DDP     P117168  15.939   3.298  22.107 -0.2781  0.2464 -0.1097
 2862DDP     P217169  16.344   3.692  22.646 -0.4782  0.2297  0.2930
 2862DDP     C217170  16.288   3.920  23.038 -0.2467  0.1470  0.2967
 2862DDP     C317171  15.669   3.454  21.778 -0.1034  0.4227  0.0930
 2862DDP     C417172  16.523   3.163  22.321 -0.2277 -0.1568  0.1128
 2863DDP     C117173  24.463  21.541  26.172 -0.0541 -0.0401  0.3536
 2863DDP     P117174  24.708  21.522  25.841 -0.0722  0.0016  0.1113
 2863DDP     P217175  24.776  21.837  26.439 -0.2826 -0.0122 -0.0708
 2863DDP     C217176  25.176  21.959  26.549 -0.1077 -0.0225  0.2752
 2863DDP     C317177  24.482  21.611  25.389 -0.1516 -0.2823 -0.0149
 2863DDP     C417178  24.059  21.296  26.201  0.0116  0.1994 -0.0757
 2864DDP     C117179   7.200  10.339  29.495  0.2337  0.0238 -0.0151
 2864DDP     P117180   7.069  10.228  29.910 -0.1000 -0.0536 -0.2661
 2864DDP     P217181   7.714  10.389  29.380 -0.0616  0.2128 -0.2596
 2864DDP     C217182   7.998  10.293  29.167 -0.5339  0.0226 -0.0912
 2864DDP     C317183   6.963   9.984  30.280  0.0058 -0.1209  0.1643
 2864DDP     C417184   6.953  10.623  29.242  0.2898  0.2447  0.1907
 2865DDP     C117185   2.033   1.528  25.352 -0.3728  0.1183 -0.2245
 2865DDP     P117186   2.103   1.675  25.701 -0.0667  0.3136 -0.2159
 2865DDP     P217187   2.377   1.707  25.066 -0.0178 -0.2366  0.3788
 2865DDP     C217188   2.403   1.938  24.751 -0.1147  0.1823  0.0217
 2865DDP     C317189   1.720   1.869  25.886  0.0294  0.0126  0.1167
 2865DDP     C417190   1.680   1.284  25.359  0.0637  0.0045  0.2918
 2866DDP     C117191  13.092  27.313   4.974 -0.0607  0.0037  0.2300
 2866DDP     P117192  12.869  27.757   5.208  0.1947 -0.0232  0.2856
 2866DDP     P217193  13.463  27.185   4.682 -0.1144  0.4035 -0.3795
 2866DDP     C217194  13.646  26.921   4.457 -0.0547 -0.1338  0.1121
 2866DDP     C317195  12.475  27.795   5.416  0.1132 -0.1458 -0.1540
 2866DDP     C417196  12.978  27.064   5.335 -0.3797 -0.0181  0.1735
 2867DDP     C117197  14.302   2.238  24.239 -0.1304  0.0897  0.5166
 2867DDP     P117198  13.957   2.429  23.783  0.1291  0.1935 -0.1173
 2867DDP     P217199  14.036   1.901  24.449 -0.1678  0.2775  0.2466
 2867DDP     C217200  13.728   1.740  24.715 -0.0716  0.2658 -0.0029
 2867DDP     C317201  13.691   2.742  23.686 -0.2306 -0.2231  0.0142
 2867DDP     C417202  14.692   2.322  24.366 -0.4660  0.2390 -0.1173
 2868DDP     C117203   7.636  18.807  23.672  0.5109  0.0350  0.1658
 2868DDP     P117204   7.259  18.854  23.474 -0.1478 -0.0149 -0.0706
 2868DDP     P217205   7.600  19.050  23.901  0.0474 -0.1678  0.0595
 2868DDP     C217206   7.671  19.434  24.173 -0.2613  0.1564 -0.0109
 2868DDP     C317207   7.094  18.730  23.052 -0.0669 -0.1611 -0.0006
 2868DDP     C417208   7.933  18.501  23.622 -0.4402 -0.0165 -0.0178
 2869DDP     C117209   1.703  28.581   5.948  0.2060  0.2141 -0.1213
 2869DDP     P117210   1.446  28.264   5.838  0.1356 -0.1942  0.0660
 2869DDP     P217211   1.392  28.935   6.164  0.0019  0.4324 -0.3583
 2869DDP     C217212   1.012  29.168   6.073  0.3541  0.0793 -0.3304
 2869DDP     C317213   1.144  27.988   5.916 -0.0541  0.1340  0.2022
 2869DDP     C417214   2.179  28.471   6.124  0.0001  0.0935 -0.0085
 2870DDP     C117215  27.053  23.352   3.162 -0.1631  0.1072  0.1029
 2870DDP     P117216  27.056  22.833   3.050 -0.4887 -0.2016  0.2247
 2870DDP     P217217  26.732  23.555   2.966  0.0336  0.0162 -0.5588
 2870DDP     C217218  26.701  23.802   2.609  0.0132  0.3266 -0.1652
 2870DDP     C317219  27.184  22.365   3.124  0.1025 -0.1893 -0.2698
 2870DDP     C417220  27.376  23.517   3.361  0.2165  0.0111  0.4420
 2871DDP     C117221   4.652  14.427  29.788 -0.1411 -0.1850  0.0591
 2871DDP     P117222   4.683  14.103  29.754 -0.0193 -0.0387 -0.2993
 2871DDP     P217223   4.902  14.723  29.763 -0.1117 -0.0446 -0.0838
 2871DDP     C217224   5.097  15.142  29.952 -0.1752 -0.0874 -0.2793
 2871DDP     C317225   4.441  13.750  29.785  0.1101 -0.1495 -0.0036
 2871DDP     C417226   4.188  14.691  29.821  0.1184  0.1508  0.1881
 2872DDP     C117227   2.073   8.350   1.088 -0.0204  0.1944 -0.1175
 2872DDP     P117228   1.939   8.755   1.008  0.1395 -0.0211 -0.1106
 2872DDP     P217229   1.748   8.240   1.428  0.0395  0.0194 -0.4105
 2872DDP     C217230   1.461   8.161   1.761  0.3815 -0.2821 -0.1933
 2872DDP     C317231   1.763   9.092   1.027 -0.0580  0.1451 -0.0510
 2872DDP     C417232   2.491   8.089   1.131  0.0973 -0.0579  0.0054
 2873DDP     C117233  11.093   9.776  26.967  0.1429 -0.1442  0.0156
 2873DDP     P117234  11.208   9.978  26.531  0.1823  0.0049  0.1898
 2873DDP     P217235  11.132   9.958  27.399 -0.3564 -0.1527  0.0347
 2873DDP     C217236  11.566  10.016  27.614 -0.2235 -0.2493  0.3780
 2873DDP     C317237  11.444  10.226  26.197  0.2162  0.0386  0.0278
 2873DDP     C417238  10.912   9.355  26.919  0.1093 -0.0068  0.0633
 2874DDP     C117239   8.932  22.964  13.594 -0.2803 -0.0977  0.2415
 2874DDP     P117240   8.640  22.782  13.332  0.1002  0.0657  0.1136
 2874DDP     P217241   8.676  23.149  13.904  0.0251 -0.0774  0.1284
 2874DDP     C217242   8.510  23.537  13.964  0.1295  0.1179  0.0844
 2874DDP     C317243   8.299  22.462  13.156  0.0190 -0.2927 -0.1283
 2874DDP     C417244   9.381  22.963  13.684  0.1937  0.0376 -0.1775
 2875DDP     C117245  10.207  19.090  16.535  0.1654 -0.0209  0.0020
 2875DDP     P117246  10.484  19.323  16.814 -0.1797  0.2872 -0.2698
 2875DDP     P217247  10.326  18.714  16.417  0.0356 -0.1597  0.0573
 2875DDP     C217248  10.289  18.309  16.590 -0.2739 -0.1101  0.0672
 2875DDP     C317249  10.787  19.182  17.147 -0.2437  0.2260  0.1335
 2875DDP     C417250   9.793  19.323  16.438 -0.0145  0.1209  0.1800
 2876DDP     C117251  19.001   2.408  17.969  0.3628 -0.2799  0.1076
 2876DDP     P117252  18.750   2.350  18.255 -0.1674 -0.1924  0.0018
 2876DDP     P217253  18.692   2.404  17.588 -0.0710  0.0249 -0.1075
 2876DDP     C217254  18.572   2.148  17.285 -0.0514 -0.0127 -0.0096
 2876DDP     C317255  18.374   2.260  18.547 -0.1249 -0.0660 -0.0077
 2876DDP     C417256  19.359   2.605  18.136  0.1597  0.0001  0.5194
 2877DDP     C117257  19.425   7.313  28.919  0.0394 -0.0538 -0.0491
 2877DDP     P117258  19.005   7.210  28.996 -0.0061 -0.0017 -0.0338
 2877DDP     P217259  19.878   7.198  29.218  0.1666  0.0809  0.0626
 2877DDP     C217260  20.198   7.353  29.440 -0.4198 -0.0169  0.1983
 2877DDP     C317261  18.560   7.167  29.070 -0.2419 -0.2454  0.0466
 2877DDP     C417262  19.586   7.449  28.510  0.3063 -0.1001  0.2972
 2878DDP     C117263  10.843  23.564  12.900 -0.0949  0.1205 -0.0695
 2878DDP     P117264  10.925  23.267  13.324 -0.1131  0.2473 -0.0412
 2878DDP     P217265  11.056  23.393  12.570 -0.1501 -0.0695  0.0600
 2878DDP     C217266  11.149  23.436  12.110 -0.3179 -0.1583  0.0040
 2878DDP     C317267  10.798  23.155  13.712 -0.1344 -0.2402  0.0443
 2878DDP     C417268  10.550  23.814  13.035  0.0931 -0.0667 -0.1560
 2879DDP     C117269  23.125  21.724  12.806 -0.1024 -0.0369  0.0200
 2879DDP     P117270  23.257  21.235  12.686 -0.0115 -0.1166 -0.2123
 2879DDP     P217271  23.337  21.906  13.163  0.2025  0.1650  0.3200
 2879DDP     C217272  23.661  22.113  13.430 -0.2080  0.0830  0.2096
 2879DDP     C317273  23.587  21.236  13.011  0.1215 -0.0284  0.3385
 2879DDP     C417274  22.724  21.992  12.497  0.1918 -0.2296 -0.1134
 2880DDP     C117275  19.177  11.130  15.395 -0.0995  0.0550 -0.4717
 2880DDP     P117276  19.095  10.726  15.425 -0.3804 -0.0167 -0.2256
 2880DDP     P217277  19.063  11.432  15.184 -0.2083  0.4182  0.0157
 2880DDP     C217278  18.738  11.492  14.890  0.1415  0.2905 -0.0045
 2880DDP     C317279  19.113  10.291  15.457 -0.1055  0.1473  0.0283
 2880DDP     C417280  19.617  11.394  15.565 -0.3210  0.0085 -0.2693
 2881DDP     C117281   9.394  18.344  14.705 -0.0439  0.2040  0.2513
 2881DDP     P117282   9.246  18.303  15.115  0.1371 -0.3495  0.1165
 2881DDP     P217283   9.199  18.580  14.411 -0.0985  0.0393 -0.2475
 2881DDP     C217284   9.178  18.693  13.922 -0.1306 -0.1672 -0.2029
 2881DDP     C317285   8.897  18.271  15.278  0.1378  0.1487 -0.1876
 2881DDP     C417286   9.715  18.141  14.529  0.0131  0.3102  0.0512
 2882DDP     C117287  23.362   4.364  18.142  0.0084 -0.1201 -0.0102
 2882DDP     P117288  23.135   4.024  18.515  0.0474 -0.0790  0.0526
 2882DDP     P217289  23.739   4.464  18.352 -0.2086 -0.0032  0.4790
 2882DDP     C217290  24.051   4.720  18.290 -0.2241  0.1138 -0.1312
 2882DDP     C317291  22.931   3.884  18.887  0.0188 -0.1757 -0.3423
 2882DDP     C417292  23.240   4.452  17.661 -0.0125  0.1450  0.0431
 2883DDP     C117293  17.247   8.955  25.829  0.1522 -0.0195  0.2872
 2883DDP     P117294  17.022   8.874  25.466  0.0542  0.1977 -0.1752
 2883DDP     P217295  17.133   8.961  26.233 -0.0458  0.0363  0.2747
 2883DDP     C217296  16.735   9.054  26.412 -0.3756  0.0575 -0.0335
 2883DDP     C317297  16.775   8.912  25.014 -0.0448  0.2212 -0.1889
 2883DDP     C417298  17.683   9.059  25.655 -0.4596  0.2445 -0.1792
 2884DDP     C117299   9.162   9.676  26.700  0.1448 -0.0042 -0.0990
 2884DDP     P117300   9.512   9.441  26.943 -0.0970 -0.2068  0.2032
 2884DDP     P217301   8.850   9.411  26.800 -0.3727  0.0521  0.1542
 2884DDP     C217302   8.402   9.421  26.829  0.0553  0.2060 -0.0961
 2884DDP     C317303   9.911   9.302  26.596  0.0631 -0.1804  0.0113
 2884DDP     C417304   9.291  10.123  26.556  0.0230 -0.0280  0.0759
 2885DDP     C117305  10.504  22.353  13.371  0.0650  0.0582 -0.0914
 2885DDP     P117306  10.848  22.620  13.339  0.1609 -0.1463  0.2769
 2885DDP     P217307  10.210  22.400  13.749 -0.0816 -0.0892 -0.1359
 2885DDP     C217308  10.251  22.623  14.192 -0.0497 -0.0748 -0.0294
 2885DDP     C317309  11.066  22.860  13.039 -0.1472 -0.2974  0.3747
 2885DDP     C417310  10.324  22.137  12.961 -0.1554  0.0908 -0.0363
 2886DDP     C117311  24.859   8.307  28.801  0.0331  0.1081  0.1169
 2886DDP     P117312  25.145   8.645  28.688  0.0284  0.0583  0.0995
 2886DDP     P217313  24.526   8.357  29.007  0.1319  0.1645  0.0514
 2886DDP     C217314  24.656   8.512  29.373  0.1577 -0.0110 -0.0950
 2886DDP     C317315  25.569   8.876  28.793  0.3085 -0.0102 -0.0395
 2886DDP     C417316  24.849   7.837  28.590 -0.1019  0.2528  0.0549
 2887DDP     C117317  20.321  25.315  27.410 -0.3036  0.1233 -0.1082
 2887DDP     P117318  19.778  25.470  27.544 -0.0359  0.1960 -0.1247
 2887DDP     P217319  20.673  25.434  27.413  0.0085 -0.0376  0.0807
 2887DDP     C217320  20.890  25.825  27.261  0.0280  0.0965 -0.0884
 2887DDP     C317321  19.545  25.658  27.814 -0.2836 -0.2457  0.0779
 2887DDP     C417322  20.385  24.898  27.272  0.4604  0.0336  0.1347
 2888DDP     C117323   0.784  12.594   7.299  0.2919 -0.1864  0.3259
 2888DDP     P117324   1.131  12.586   7.200 -0.1849  0.1117 -0.2515
 2888DDP     P217325   0.573  12.691   7.691 -0.0079 -0.1739 -0.3287
 2888DDP     C217326   0.158  12.700   7.782 -0.3074 -0.0514  0.2894
 2888DDP     C317327   1.540  12.333   7.288 -0.1677  0.0600 -0.0976
 2888DDP     C417328   0.477  12.469   6.998  0.0417 -0.0712  0.0642
 2889DDP     C117329  22.993   8.056   8.285 -0.0551 -0.0922  0.1269
 2889DDP     P117330  22.577   7.969   8.441 -0.1579 -0.3836 -0.0237
 2889DDP     P217331  23.198   7.744   8.017 -0.0259  0.0273 -0.0125
 2889DDP     C217332  23.211   7.334   7.850  0.0092  0.2067  0.2118
 2889DDP     C317333  22.053   8.112   8.597 -0.3034  0.0577 -0.2098
 2889DDP     C417334  23.297   8.395   8.474  0.0821  0.2148 -0.5449
 2890DDP     C117335  15.153  14.529  19.888 -0.0738 -0.1646  0.2927
 2890DDP     P117336  14.843  14.838  19.747  0.0219  0.2458  0.3481
 2890DDP     P217337  15.426  14.399  19.540 -0.2790 -0.0210  0.0412
 2890DDP     C217338  15.834  14.230  19.412 -0.0525  0.0425 -0.1850
 2890DDP     C317339  14.578  14.951  19.380  0.0904 -0.3020  0.1564
 2890DDP     C417340  15.090  14.230  20.193  0.1412 -0.2253  0.0092
 2891DDP     C117341  17.382  17.647  13.594 -0.0113  0.0398  0.3383
 2891DDP     P117342  17.251  17.442  13.927 -0.1127  0.0866 -0.0885
 2891DDP     P217343  17.827  17.502  13.351  0.3026  0.1618 -0.0190
 2891DDP     C217344  17.957  17.323  12.893 -0.0725  0.0766 -0.1227
 2891DDP     C317345  16.946  17.339  14.256  0.2345 -0.3395  0.0853
 2891DDP     C417346  17.239  17.939  13.275  0.1724  0.1111  0.0569
 2892DDP     C117347  12.482  17.275  19.410  0.0268  0.1096  0.1667
 2892DDP     P117348  12.678  17.021  19.253  0.0473 -0.1153  0.5966
 2892DDP     P217349  12.688  17.252  19.762  0.1284  0.0762  0.2063
 2892DDP     C217350  13.025  17.477  19.938 -0.2309 -0.0511 -0.1857
 2892DDP     C317351  12.897  16.889  18.880 -0.0352 -0.1153  0.4043
 2892DDP     C417352  12.153  17.575  19.317 -0.0916  0.3790 -0.1694
 2893DDP     C117353  26.016   8.292  22.587 -0.0051 -0.0606  0.2183
 2893DDP     P117354  25.708   7.985  22.500 -0.2444 -0.2294  0.1690
 2893DDP     P217355  26.148   8.574  22.229  0.1436  0.1938 -0.1564
 2893DDP     C217356  26.546   8.459  22.050  0.1371 -0.1482 -0.1735
 2893DDP     C317357  25.509   7.593  22.649  0.1092  0.0226 -0.3106
 2893DDP     C417358  26.357   8.401  22.894  0.0825 -0.1182  0.2524
 2894DDP     C117359  29.323  14.513  14.940  0.0732  0.1259  0.1765
 2894DDP     P117360  29.246  14.176  15.180  0.1697 -0.0050 -0.2012
 2894DDP     P217361  29.110  14.913  15.002  0.1040 -0.1772  0.1861
 2894DDP     C217362  29.008  15.295  14.862 -0.3956  0.4730  0.0867
 2894DDP     C317363  28.995  13.937  15.389 -0.2640 -0.1265 -0.0498
 2894DDP     C417364  29.417  14.395  14.540  0.0163 -0.0955 -0.2775
 2895DDP     C117365  27.742   1.177  21.696  0.0816  0.1447 -0.0996
 2895DDP     P117366  27.821   1.651  21.667 -0.0235 -0.0884  0.0306
 2895DDP     P217367  27.406   0.954  22.048 -0.2351  0.0137  0.0966
 2895DDP     C217368  27.623   1.081  22.475  0.1662 -0.0963  0.2730
 2895DDP     C317369  27.816   2.078  21.649 -0.0190 -0.1333  0.1058
 2895DDP     C417370  28.061   0.943  21.464  0.0730  0.0071  0.1827
 2896DDP     C117371  10.398  18.494   8.740  0.0557 -0.0522 -0.0152
 2896DDP     P117372  10.241  18.874   8.598  0.2003  0.0203 -0.1808
 2896DDP     P217373  10.072  18.209   8.587 -0.0142 -0.0130  0.1135
 2896DDP     C217374   9.657  18.042   8.751 -0.0991  0.1714  0.0201
 2896DDP     C317375   9.943  19.013   8.772  0.1116 -0.1781 -0.1600
 2896DDP     C417376  10.588  18.338   9.225 -0.0665 -0.0668 -0.0421
 2897DDP     C117377   8.480  26.230   5.241  0.1785 -0.1129 -0.1390
 2897DDP     P117378   8.297  26.632   5.508 -0.1825 -0.4412  0.0842
 2897DDP     P217379   8.923  26.135   5.126  0.1614 -0.0528  0.1614
 2897DDP     C217380   9.313  26.219   5.287 -0.0333  0.3447 -0.2586
 2897DDP     C317381   7.958  26.907   5.385 -0.1659 -0.0879  0.0032
 2897DDP     C417382   8.173  26.045   5.123  0.1114  0.2140 -0.1967
 2898DDP     C117383  17.650  18.931  19.757  0.0438 -0.0012  0.1281
 2898DDP     P117384  17.480  18.574  19.857 -0.1145 -0.0989  0.1951
 2898DDP     P217385  17.272  19.166  19.892  0.1513 -0.2464  0.2417
 2898DDP     C217386  16.926  19.116  19.567 -0.0595 -0.1637 -0.0888
 2898DDP     C317387  17.196  18.322  20.089  0.0131 -0.0029 -0.0949
 2898DDP     C417388  18.074  19.063  19.507 -0.2120  0.2607 -0.0749
 2899DDP     C117389  14.598  15.624  11.734  0.0537  0.1204  0.0244
 2899DDP     P117390  14.850  15.962  11.569  0.1749 -0.2573  0.0930
 2899DDP     P217391  14.271  15.327  11.605  0.1336 -0.2372  0.1030
 2899DDP     C217392  13.873  15.231  11.701  0.1205 -0.0553 -0.0676
 2899DDP     C317393  15.000  16.467  11.450  0.1217  0.5970  0.0038
 2899DDP     C417394  14.654  15.494  12.104  0.1048 -0.3345 -0.2254
 2900DDP     C117395  13.413  25.361   5.685 -0.2301 -0.0765  0.2222
 2900DDP     P117396  13.460  24.985   5.530  0.3382  0.1013 -0.0524
 2900DDP     P217397  13.081  25.539   5.504 -0.0635 -0.2456 -0.2481
 2900DDP     C217398  12.656  25.684   5.566  0.0495 -0.2550  0.0351
 2900DDP     C317399  13.544  24.849   5.131 -0.0725 -0.1376  0.2117
 2900DDP     C417400  13.747  25.710   5.884  0.3235  0.1664  0.3917
 2901DDP     C117401  29.983  15.936   6.975  0.1231  0.0936 -0.1498
 2901DDP     P117402  29.632  16.107   6.956 -0.0133  0.0563  0.1654
 2901DDP     P217403  30.217  15.892   6.621 -0.2054 -0.1421  0.1210
 2901DDP     C217404   0.142  15.719   6.303  0.2312 -0.0704 -0.0492
 2901DDP     C317405  29.247  15.970   7.096 -0.2017  0.1653 -0.2758
 2901DDP     C417406  30.243  15.876   7.370 -0.1351  0.0661  0.1006
 2902DDP     C117407   6.379  30.189  16.850 -0.3212  0.0061 -0.2350
 2902DDP     P117408   6.446  29.824  16.452  0.0561 -0.2410 -0.1552
 2902DDP     P217409   6.481  30.141  17.267  0.1298  0.1921 -0.2598
 2902DDP     C217410   6.976  29.924  17.393  0.4114 -0.1701  0.3532
 2902DDP     C317411   6.457  29.492  16.183  0.2472 -0.3671 -0.2059
 2902DDP     C417412   6.306   0.383  16.577 -0.1148  0.1915 -0.1964
 2903DDP     C117413  27.974   5.723  29.690 -0.3149 -0.0695  0.0059
 2903DDP     P117414  28.268   5.313  29.509 -0.0094 -0.0547 -0.1139
 2903DDP     P217415  27.728   6.065  29.379 -0.1319  0.0635  0.0095
 2903DDP     C217416  27.663   6.464  29.317 -0.3045  0.1464  0.2903
 2903DDP     C317417  28.629   5.164  29.353  0.3306  0.1475  0.2563
 2903DDP     C417418  27.862   5.806  30.167  0.0351 -0.2200 -0.3230
 2904DDP     C117419  14.695   5.268  17.583 -0.1286 -0.2177 -0.0785
 2904DDP     P117420  14.709   5.246  17.190  0.0882 -0.0697  0.0728
 2904DDP     P217421  14.882   5.539  17.891  0.0710 -0.2246  0.2496
 2904DDP     C217422  14.628   5.817  18.275 -0.4400  0.1505 -0.1280
 2904DDP     C317423  14.559   4.940  16.935  0.0142  0.1955  0.1825
 2904DDP     C417424  14.399   5.024  17.866  0.1491 -0.0779 -0.2588
 2905DDP     C117425  12.154  22.474   0.796 -0.2352  0.0839  0.2001
 2905DDP     P117426  12.311  22.839   0.527 -0.1459 -0.0218 -0.4324
 2905DDP     P217427  12.193  22.459   1.229  0.2340  0.2755 -0.2207
 2905DDP     C217428  11.918  22.506   1.575 -0.0294  0.1924  0.3881
 2905DDP     C317429  12.659  23.121   0.315 -0.1791  0.1961  0.1191
 2905DDP     C417430  12.026  22.257   0.444  0.1612 -0.0344 -0.3617
 2906DDP     C117431  24.588   7.191   8.340  0.0688  0.0258  0.1292
 2906DDP     P117432  24.886   6.910   8.112 -0.1598 -0.3774  0.0786
 2906DDP     P217433  24.303   7.511   8.239  0.3235 -0.1748  0.1806
 2906DDP     C217434  24.286   7.933   8.143 -0.3679  0.1086 -0.2190
 2906DDP     C317435  25.220   6.909   7.833  0.0338 -0.1478  0.1453
 2906DDP     C417436  24.477   6.981   8.699  0.3067  0.0029  0.1459
 2907DDP     C117437   8.503  17.564   2.230  0.1128 -0.0161  0.0982
 2907DDP     P117438   8.114  17.731   2.482 -0.1566  0.4724  0.4507
 2907DDP     P217439   8.691  17.078   2.063 -0.1759  0.1568  0.1327
 2907DDP     C217440   9.054  16.898   2.291  0.1764  0.3578  0.1464
 2907DDP     C317441   7.707  17.861   2.672  0.1854  0.1253 -0.0410
 2907DDP     C417442   8.726  17.860   1.958  0.0928  0.1941 -0.1501
 2908DDP     C117443  20.858   4.825  17.543 -0.1338  0.0025 -0.2466
 2908DDP     P117444  20.821   4.473  17.266  0.0919 -0.0184 -0.0262
 2908DDP     P217445  21.143   5.145  17.316  0.2191 -0.6048  0.0102
 2908DDP     C217446  21.289   5.211  16.942  0.1941  0.0548  0.1460
 2908DDP     C317447  20.698   4.442  16.835  0.0644  0.0315 -0.0878
 2908DDP     C417448  20.777   4.866  17.964 -0.0526  0.0883 -0.0347
 2909DDP     C117449   7.306  19.828  29.906  0.0197  0.1957 -0.2567
 2909DDP     P117450   7.568  19.971  30.123 -0.3110  0.0544  0.2231
 2909DDP     P217451   6.890  19.630  30.188 -0.1982 -0.0370 -0.0979
 2909DDP     C217452   6.588  19.361  30.123 -0.0616 -0.1333 -0.2485
 2909DDP     C317453   7.502  20.254   0.172  0.0372  0.2223 -0.0609
 2909DDP     C417454   7.177  19.649  29.395  0.0844 -0.1958 -0.0543
 2910DDP     C117455   0.290   2.828   4.462 -0.1740  0.1433 -0.0121
 2910DDP     P117456  30.326   2.914   4.131  0.2585  0.0454 -0.0088
 2910DDP     P217457   0.567   2.555   4.586  0.4155 -0.1682  0.0728
 2910DDP     C217458   0.699   2.238   4.898 -0.4185 -0.0154 -0.3716
 2910DDP     C317459  29.970   3.043   4.027  0.1711  0.2204 -0.0735
 2910DDP     C417460   0.157   3.178   4.746 -0.0190  0.0011 -0.0573
 2911DDP     C117461  10.998  25.926   1.118 -0.1393  0.1973 -0.2077
 2911DDP     P117462  10.871  26.346   0.926  0.3814 -0.2182  0.0743
 2911DDP     P217463  10.822  25.758   1.532 -0.1188  0.1042 -0.2344
 2911DDP     C217464  10.626  26.078   1.989  0.0643  0.1459 -0.2108
 2911DDP     C317465  10.978  26.690   0.819  0.2256 -0.2735  0.0326
 2911DDP     C417466  11.022  25.498   0.821 -0.2616 -0.2272 -0.0224
 2912DDP     C117467   9.434  10.972   0.443 -0.2252 -0.1320 -0.1072
 2912DDP     P117468   9.121  10.886   0.156 -0.1902 -0.0895  0.3735
 2912DDP     P217469   9.509  11.270   0.727  0.2376  0.0230 -0.2104
 2912DDP     C217470   9.866  11.447   0.949 -0.2563 -0.0109  0.1198
 2912DDP     C317471   8.861  10.601  30.307 -0.1253 -0.0903 -0.0119
 2912DDP     C417472   9.698  10.682   0.491 -0.1076  0.1807  0.2757
 2913DDP     C117473   0.567  18.775   2.486 -0.1592  0.1589  0.1150
 2913DDP     P117474   0.275  19.062   2.550 -0.1143 -0.0273  0.0036
 2913DDP     P217475   0.330  18.493   2.739 -0.1807  0.0526  0.1353
 2913DDP     C217476   0.302  18.112   2.939  0.2222 -0.0866  0.1443
 2913DDP     C317477   0.186  19.496   2.704 -0.1611  0.1531 -0.0126
 2913DDP     C417478   1.074  18.810   2.454 -0.0763  0.2290 -0.0857
 2914DDP     C117479  16.839   1.405   6.104  0.0537 -0.2282  0.0633
 2914DDP     P117480  16.508   1.648   5.887  0.2188  0.0626  0.0415
 2914DDP     P217481  17.236   1.280   5.978 -0.0748  0.2256 -0.0575
 2914DDP     C217482  17.465   1.280   5.668  0.0184  0.2274 -0.1020
 2914DDP     C317483  16.431   2.020   5.628 -0.0954 -0.1351  0.2571
 2914DDP     C417484  16.808   1.509   6.572  0.2381 -0.1298  0.1514
 2915DDP     C117485   1.316   1.652  26.646  0.1730 -0.0319 -0.4131
 2915DDP     P117486   1.208   1.358  26.460 -0.3364 -0.2788  0.0467
 2915DDP     P217487   1.326   1.580  27.095  0.0532  0.0177 -0.4111
 2915DDP     C217488   1.778   1.513  27.224 -0.1289  0.0219 -0.1355
 2915DDP     C317489   1.285   1.222  26.100 -0.1914  0.0864 -0.1203
 2915DDP     C417490   1.497   2.041  26.431 -0.1502 -0.2617  0.2335
 2916DDP     C117491  22.922   8.024  23.483 -0.0451  0.1677 -0.0887
 2916DDP     P117492  23.260   7.708  23.356  0.2082  0.0314  0.1478
 2916DDP     P217493  23.134   8.420  23.378 -0.0623  0.0135  0.2222
 2916DDP     C217494  23.407   8.751  23.383  0.0575  0.1712 -0.1602
 2916DDP     C317495  23.454   7.317  23.247  0.4262 -0.1029 -0.2966
 2916DDP     C417496  22.559   7.875  23.575  0.1705  0.1454 -0.2244
 2917DDP     C117497   4.906   7.078   2.007 -0.2109 -0.0975 -0.0815
 2917DDP     P117498   4.992   6.748   1.728 -0.2573  0.0491  0.1472
 2917DDP     P217499   5.185   7.226   2.348  0.0616  0.1576 -0.0151
 2917DDP     C217500   5.344   7.716   2.306  0.1740 -0.0139 -0.1793
 2917DDP     C317501   4.973   6.286   1.782  0.0993  0.0160 -0.3651
 2917DDP     C417502   4.577   7.299   2.104 -0.1163  0.0150 -0.0641
 2918DDP     C117503  21.265   0.757  17.762  0.1568  0.0585 -0.1565
 2918DDP     P117504  21.384   0.879  17.430 -0.2060 -0.3353  0.0074
 2918DDP     P217505  21.077   0.897  18.074  0.2099 -0.5982 -0.1230
 2918DDP     C217506  20.971   0.995  18.503 -0.0936 -0.0149  0.0433
 2918DDP     C317507  21.671   0.739  17.053  0.0923  0.2046  0.1572
 2918DDP     C417508  21.258   0.303  17.819 -0.3664 -0.1745 -0.2132
 2919DDP     C117509   8.108   8.701   9.348  0.0148 -0.1260  0.1757
 2919DDP     P117510   8.262   8.334   9.361  0.0872 -0.3395  0.0047
 2919DDP     P217511   7.773   8.890   9.552 -0.0386  0.2445  0.1263
 2919DDP     C217512   7.311   9.062   9.604  0.0080  0.1518  0.1597
 2919DDP     C317513   8.639   8.030   9.514  0.0066  0.1746  0.3071
 2919DDP     C417514   8.357   8.941   9.100  0.0650 -0.0520 -0.0849
 2920DDP     C117515  19.101  11.876  20.793  0.0977  0.1102  0.1480
 2920DDP     P117516  19.291  11.401  20.609 -0.0963  0.0980 -0.1947
 2920DDP     P217517  18.602  11.822  20.784  0.0221  0.4353 -0.2579
 2920DDP     C217518  18.265  11.671  21.157  0.1349  0.4262 -0.2269
 2920DDP     C317519  19.679  11.104  20.737 -0.0164 -0.2135 -0.0515
 2920DDP     C417520  19.320  12.271  20.924  0.1315  0.0751 -0.3788
 2921DDP     C117521  22.806  11.606  20.066 -0.0146  0.1611  0.1945
 2921DDP     P117522  23.222  11.574  20.318 -0.0751  0.1427  0.1556
 2921DDP     P217523  23.015  11.504  19.698  0.4489 -0.2373  0.2886
 2921DDP     C217524  23.248  11.074  19.603  0.1691 -0.0728 -0.3750
 2921DDP     C317525  23.531  11.703  20.639 -0.0191 -0.0305  0.1563
 2921DDP     C417526  22.282  11.772  20.134 -0.0099 -0.3712 -0.0384
 2922DDP     C117527  20.774   6.375  16.636 -0.0228  0.1420  0.1340
 2922DDP     P117528  20.660   6.113  16.352  0.2016  0.4748 -0.2574
 2922DDP     P217529  20.301   6.520  16.730 -0.1912  0.0147  0.0804
 2922DDP     C217530  19.998   6.502  16.588 -0.1126 -0.0643 -0.3356
 2922DDP     C317531  20.605   5.918  15.925 -0.1284 -0.1086 -0.0219
 2922DDP     C417532  21.171   6.362  16.959  0.3046  0.1534 -0.1482
 2923DDP     C117533  12.697   8.674  30.240 -0.2955 -0.2650 -0.1890
 2923DDP     P117534  12.991   8.629  29.957  0.0631 -0.2804 -0.1141
 2923DDP     P217535  12.785   8.893   0.323 -0.0628  0.2735  0.0246
 2923DDP     C217536  12.818   8.730   0.677 -0.1290  0.0785 -0.1069
 2923DDP     C317537  13.137   8.366  29.663 -0.0187  0.2835 -0.0925
 2923DDP     C417538  12.494   8.637  29.877  0.1527  0.1168 -0.0650
 2924DDP     C117539   7.611   2.860   0.148  0.3365 -0.0580  0.1329
 2924DDP     P117540   7.714   2.996  29.996 -0.0452  0.2125 -0.3333
 2924DDP     P217541   7.204   2.614   0.198  0.0410  0.1069  0.3109
 2924DDP     C217542   6.981   2.179   0.067  0.0555  0.1342  0.1753
 2924DDP     C317543   7.708   3.194  29.545  0.3191 -0.0814 -0.0242
 2924DDP     C417544   7.734   3.167   0.343 -0.0261 -0.0368 -0.0184
 2925DDP     C117545  26.934  23.339   2.505 -0.1247  0.1240 -0.2564
 2925DDP     P117546  26.646  23.522   2.176  0.1351  0.2048 -0.2144
 2925DDP     P217547  26.675  23.065   2.800  0.2406 -0.0454 -0.1769
 2925DDP     C217548  26.551  22.893   3.115  0.0750  0.0602 -0.0892
 2925DDP     C317549  26.333  23.434   1.927  0.0328 -0.2355 -0.1604
 2925DDP     C417550  27.181  23.583   2.526  0.0249  0.1335 -0.1048
 2926DDP     C117551   8.913  27.991  17.725  0.2534 -0.1383 -0.1267
 2926DDP     P117552   9.127  27.599  17.577 -0.1104  0.1795  0.2701
 2926DDP     P217553   8.514  28.127  17.557  0.1319 -0.2674 -0.0585
 2926DDP     C217554   8.206  28.430  17.331 -0.1468 -0.0487  0.1006
 2926DDP     C317555   9.099  27.163  17.467  0.2707 -0.0290  0.1570
 2926DDP     C417556   9.008  28.319  17.953 -0.2781 -0.4043 -0.0807
 2927DDP     C117557   7.295   0.990  14.218 -0.2462  0.0732 -0.0899
 2927DDP     P117558   7.700   1.116  13.976  0.0103 -0.0981  0.0233
 2927DDP     P217559   6.998   0.855  13.908  0.0304 -0.1663  0.0245
 2927DDP     C217560   6.652   0.787  13.621  0.0512  0.0701  0.1365
 2927DDP     C317561   8.063   1.406  13.899 -0.3704  0.4151  0.1848
 2927DDP     C417562   7.132   0.930  14.699 -0.2624 -0.0014 -0.1462
 2928DDP     C117563   7.567  18.011   0.524  0.0737  0.2312  0.1410
 2928DDP     P117564   7.798  18.347   0.631  0.0125 -0.2327 -0.2831
 2928DDP     P217565   7.320  18.179   0.335 -0.0240 -0.3371 -0.4269
 2928DDP     C217566   7.008  18.515   0.135  0.0798  0.0693  0.0308
 2928DDP     C317567   7.860  18.651   0.874  0.2553  0.2340  0.1433
 2928DDP     C417568   7.433  17.586   0.585  0.1663 -0.0100  0.1174
 2929DDP     C117569   9.400  10.235  20.667  0.2050  0.1477  0.1964
 2929DDP     P117570   9.411  10.685  20.904 -0.1353  0.0034  0.1098
 2929DDP     P217571   9.109   9.911  20.499  0.1840 -0.3184 -0.0331
 2929DDP     C217572   9.059   9.456  20.530  0.1257  0.0578  0.0804
 2929DDP     C317573   9.680  11.176  20.889  0.0752 -0.0782 -0.0562
 2929DDP     C417574   9.736  10.099  20.522 -0.2676  0.1211  0.0385
 2930DDP     C117575  26.299   2.329  21.670 -0.0150  0.4485 -0.0030
 2930DDP     P117576  26.677   2.237  21.452  0.0910  0.6411  0.0634
 2930DDP     P217577  26.253   1.941  21.935  0.0081 -0.0188  0.2567
 2930DDP     C217578  26.070   1.572  22.088  0.0453  0.5063 -0.3449
 2930DDP     C317579  26.927   1.928  21.217  0.0148  0.4291  0.1947
 2930DDP     C417580  26.071   2.646  21.553  0.0496 -0.4251  0.1905
 2931DDP     C117581  14.816   4.769   8.177  0.1277 -0.1746  0.0074
 2931DDP     P117582  14.724   4.413   7.990  0.1713 -0.0194  0.2850
 2931DDP     P217583  14.705   5.156   7.953  0.1261  0.1871  0.1539
 2931DDP     C217584  14.654   5.413   7.563  0.2856 -0.0564  0.1296
 2931DDP     C317585  14.884   4.298   7.673  0.2117 -0.1238  0.1083
 2931DDP     C417586  14.959   4.722   8.534 -0.1587 -0.2493 -0.1589
 2932DDP     C117587   6.528  13.559   9.650 -0.0622  0.1807  0.0099
 2932DDP     P117588   6.120  13.686   9.606 -0.1731  0.1647  0.2149
 2932DDP     P217589   6.761  13.869   9.852  0.0341  0.2953 -0.1419
 2932DDP     C217590   6.742  14.170  10.188  0.0303  0.0927  0.1419
 2932DDP     C317591   5.898  13.895   9.947  0.1383 -0.0573 -0.1555
 2932DDP     C417592   6.695  13.220   9.439  0.1406 -0.2828 -0.0735
 2933DDP     C117593  20.197   1.109  28.845 -0.0955 -0.2613  0.0255
 2933DDP     P117594  19.931   0.855  28.950 -0.0323 -0.1504  0.0267
 2933DDP     P217595  19.974   1.479  28.914  0.0300 -0.5542  0.0425
 2933DDP     C217596  19.888   1.898  28.819 -0.3873  0.0767 -0.0930
 2933DDP     C317597  19.930   0.575  29.224  0.1608 -0.1161  0.5050
 2933DDP     C417598  20.442   1.069  28.447  0.3717 -0.2497 -0.2278
 2934DDP     C117599  30.273  11.338  10.348  0.3907  0.0065  0.1218
 2934DDP     P117600   0.208  10.976  10.637 -0.2166 -0.3075  0.0512
 2934DDP     P217601  30.225  11.747  10.487 -0.1113  0.0702  0.1208
 2934DDP     C217602  29.893  11.889  10.825 -0.0236  0.0646  0.1143
 2934DDP     C317603   0.208  10.712  10.963 -0.2084 -0.1742 -0.0628
 2934DDP     C417604   0.050  11.266  10.028 -0.0454  0.0627 -0.0510
 2935DDP     C117605  30.004   9.659  14.968  0.0496  0.1180 -0.1689
 2935DDP     P117606  29.859   9.223  14.925  0.1554 -0.3463  0.2064
 2935DDP     P217607  29.768   9.974  15.112  0.0352  0.0267 -0.2710
 2935DDP     C217608  29.747  10.452  14.970  0.0131  0.1833 -0.0565
 2935DDP     C317609  29.791   8.957  14.731  0.2792  0.1234 -0.1095
 2935DDP     C417610   0.059   9.673  15.153  0.3422  0.0924 -0.3532
 2936DDP     C117611   4.285  30.166  15.590  0.1303 -0.0397  0.2473
 2936DDP     P117612   3.914  30.196  15.535  0.1627 -0.3410  0.0718
 2936DDP     P217613   4.359  30.196  16.052 -0.0536 -0.4879 -0.1601
 2936DDP     C217614   4.567   0.225  16.256  0.0566  0.0046  0.0630
 2936DDP     C317615   3.793  30.242  15.162  0.0148  0.0007 -0.0483
 2936DDP     C417616   4.732  30.088  15.263  0.2025  0.1675 -0.1022
 2937DDP     C117617   8.980  20.484  11.783  0.0440  0.0873 -0.2794
 2937DDP     P117618   9.120  20.897  11.732 -0.1705  0.1126  0.1837
 2937DDP     P217619   8.577  20.407  11.560 -0.1751 -0.0485 -0.1177
 2937DDP     C217620   8.226  20.741  11.561  0.1853 -0.0405  0.3875
 2937DDP     C317621   9.578  21.010  11.540  0.1810  0.3734 -0.0054
 2937DDP     C417622   9.305  20.237  12.023 -0.1944 -0.0911 -0.1014
 2938DDP     C117623   7.744   8.830  13.136 -0.1770  0.1109  0.0812
 2938DDP     P117624   7.776   8.784  13.595  0.1377  0.1894 -0.0347
 2938DDP     P217625   7.501   9.194  12.969  0.3596  0.1569 -0.4640
 2938DDP     C217626   7.377   9.293  12.596  0.1534 -0.0390 -0.0390
 2938DDP     C317627   7.951   8.736  14.048  0.0610 -0.2443 -0.0999
 2938DDP     C417628   8.029   8.574  12.856 -0.0292  0.1095  0.0251
 2939DDP     C117629  14.966   7.283   6.674 -0.0171 -0.1409 -0.0797
 2939DDP     P117630  15.241   6.926   6.671 -0.0097 -0.0672 -0.0146
 2939DDP     P217631  14.574   7.276   6.435 -0.0818  0.1466 -0.0067
 2939DDP     C217632  14.309   7.320   6.015 -0.0112  0.1790 -0.0075
 2939DDP     C317633  15.258   6.542   6.452 -0.1080  0.0841  0.4885
 2939DDP     C417634  14.936   7.665   6.936  0.2274 -0.0754 -0.0142
 2940DDP     C117635   4.940  11.328   1.040  0.1662  0.0441  0.1443
 2940DDP     P117636   4.545  11.622   1.117 -0.1524 -0.0211 -0.0933
 2940DDP     P217637   5.091  11.338   1.537  0.1879 -0.0839 -0.5204
 2940DDP     C217638   5.477  11.278   1.877 -0.2067 -0.1080  0.0066
 2940DDP     C317639   4.157  11.791   1.240  0.2290 -0.0778  0.0732
 2940DDP     C417640   4.969  10.919   0.803  0.0991  0.0313 -0.1392
 2941DDP     C117641  24.431  10.765   2.025 -0.0977  0.3057 -0.2490
 2941DDP     P117642  24.604  11.113   2.024 -0.2443  0.0850  0.1580
 2941DDP     P217643  24.754  10.577   2.090 -0.0152 -0.0170  0.0166
 2941DDP     C217644  25.071  10.389   2.353 -0.0310 -0.0462  0.0658
 2941DDP     C317645  24.640  11.609   2.063 -0.0957 -0.3526 -0.0524
 2941DDP     C417646  24.054  10.619   1.792 -0.0815 -0.0248 -0.1238
 2942DDP     C117647  20.060  27.878   9.288  0.0181  0.1185 -0.2105
 2942DDP     P117648  20.075  28.026   9.636  0.1780  0.1068  0.0204
 2942DDP     P217649  20.126  28.154   8.961  0.2999  0.0684  0.0971
 2942DDP     C217650  20.104  28.446   8.673 -0.2081 -0.1878 -0.0575
 2942DDP     C317651  19.789  28.052   9.983  0.1660  0.2310  0.0932
 2942DDP     C417652  19.846  27.587   9.238  0.1907 -0.0193 -0.2090
 2943DDP     C117653  10.397   5.189   3.503  0.1233  0.2686  0.2006
 2943DDP     P117654  10.208   4.884   3.261 -0.2026 -0.2765  0.0625
 2943DDP     P217655  10.137   5.168   3.834 -0.1274 -0.2552 -0.0509
 2943DDP     C217656   9.981   4.977   4.269 -0.1471  0.0103 -0.1592
 2943DDP     C317657  10.170   4.457   3.244 -0.1520 -0.0488  0.3662
 2943DDP     C417658  10.642   5.540   3.544 -0.2298 -0.0900 -0.1603
 2944DDP     C117659  20.613  20.406  22.677 -0.0720  0.3133  0.2446
 2944DDP     P117660  20.258  20.468  22.724 -0.4384  0.2942 -0.0073
 2944DDP     P217661  20.671  20.077  22.930 -0.2978  0.0160 -0.0850
 2944DDP     C217662  21.088  19.935  23.312 -0.1427  0.1955 -0.3084
 2944DDP     C317663  20.037  20.291  23.010  0.1425 -0.0951 -0.1783
 2944DDP     C417664  20.883  20.568  22.452 -0.2897 -0.1397 -0.2912
 2945DDP     C117665  21.992  23.701  19.176 -0.2820  0.0344  0.0982
 2945DDP     P117666  21.840  23.362  19.008  0.0711  0.0821 -0.0892
 2945DDP     P217667  21.837  24.105  19.283  0.2257  0.1691  0.4256
 2945DDP     C217668  22.131  24.426  19.572  0.2443 -0.0986  0.0932
 2945DDP     C317669  21.857  22.890  19.107 -0.0466 -0.1347  0.1017
 2945DDP     C417670  22.536  23.764  19.116 -0.2999 -0.0153 -0.0992
 2946DDP     C117671   4.802  29.914  16.055  0.0574  0.1322 -0.1735
 2946DDP     P117672   4.823  30.299  15.692  0.0169  0.2714 -0.0774
 2946DDP     P217673   4.417  29.669  15.989  0.1958 -0.1833  0.3362
 2946DDP     C217674   3.987  29.800  15.925 -0.3203 -0.1262 -0.0567
 2946DDP     C317675   4.665   0.279  15.417 -0.0466  0.2152  0.0414
 2946DDP     C417676   5.115  29.764  16.278  0.0870 -0.1071  0.0767
 2947DDP     C117677  12.232  22.086  30.251 -0.0899 -0.0602 -0.1378
 2947DDP     P117678  12.177  22.458  -0.001 -0.0029 -0.1549 -0.2510
 2947DDP     P217679  11.912  21.776  30.204  0.0851  0.0061 -0.1612
 2947DDP     C217680  11.962  21.388  29.989 -0.1248 -0.0698  0.0668
 2947DDP     C317681  12.326  22.895   0.047  0.2085  0.1172 -0.3531
 2947DDP     C417682  12.435  21.687  30.008 -0.1107 -0.0617 -0.1653
 2948DDP     C117683  15.073  23.056  16.861  0.2899  0.1297 -0.1325
 2948DDP     P117684  14.681  22.838  16.645 -0.0030 -0.0249  0.0106
 2948DDP     P217685  15.428  22.875  16.646  0.2645  0.2187 -0.0343
 2948DDP     C217686  15.492  22.632  16.250 -0.2590  0.2502 -0.0812
 2948DDP     C317687  14.323  22.657  16.406 -0.2841 -0.0921  0.0099
 2948DDP     C417688  15.030  23.513  17.113  0.0915 -0.0244 -0.1341
 2949DDP     C117689  11.317  25.677   2.253  0.1115  0.2080  0.2394
 2949DDP     P117690  11.130  25.709   1.931  0.2116  0.0283  0.2170
 2949DDP     P217691  11.706  25.492   2.186  0.2326 -0.1709  0.2645
 2949DDP     C217692  11.982  25.045   2.014 -0.0848  0.3369  0.4358
 2949DDP     C317693  11.259  25.933   1.565 -0.0863 -0.1652 -0.2871
 2949DDP     C417694  11.268  25.888   2.654  0.0346  0.0639 -0.1416
 2950DDP     C117695  26.129  21.222  12.682  0.0638  0.0634  0.3081
 2950DDP     P117696  26.193  21.640  13.044  0.1971  0.1605 -0.1915
 2950DDP     P217697  25.744  21.137  12.865 -0.2947  0.0553  0.4028
 2950DDP     C217698  25.504  20.937  13.126  0.0765  0.1091  0.0220
 2950DDP     C317699  26.461  21.925  13.237  0.4733  0.0654  0.0754
 2950DDP     C417700  26.362  21.225  12.260  0.1430  0.0913  0.0896
 2951DDP     C117701   5.974  17.663  18.816 -0.1295 -0.1650  0.0214
 2951DDP     P117702   5.462  17.612  18.785 -0.1353  0.0105  0.1853
 2951DDP     P217703   6.275  17.442  18.506  0.1890  0.1546  0.1168
 2951DDP     C217704   6.212  17.116  18.225  0.0248 -0.1127 -0.0535
 2951DDP     C317705   5.003  17.601  18.707  0.1463 -0.0395 -0.0433
 2951DDP     C417706   6.178  18.015  19.192  0.0216  0.0917  0.0035
 2952DDP     C117707  17.017  12.302  26.009  0.2522  0.0092  0.0331
 2952DDP     P117708  16.828  11.945  25.831 -0.2103 -0.0162 -0.5422
 2952DDP     P217709  17.086  12.279  26.418  0.0608 -0.2705 -0.2422
 2952DDP     C217710  17.016  12.632  26.729  0.0056  0.0713  0.1803
 2952DDP     C317711  17.089  11.576  25.819 -0.0170 -0.1449 -0.2451
 2952DDP     C417712  17.150  12.606  25.789 -0.2324  0.0429  0.1998
 2953DDP     C117713  15.651   4.640  19.129  0.3878 -0.1427 -0.1533
 2953DDP     P117714  16.064   4.848  19.204 -0.2639 -0.2068 -0.2213
 2953DDP     P217715  15.538   4.260  19.260  0.1738  0.1529  0.2393
 2953DDP     C217716  15.272   3.884  19.394  0.2619 -0.1409  0.1525
 2953DDP     C317717  16.481   5.081  19.150 -0.1007  0.1739  0.0017
 2953DDP     C417718  15.395   4.844  18.782  0.1536 -0.0187  0.1168
 2954DDP     C117719   5.841  19.102  10.036 -0.1178 -0.3567  0.3806
 2954DDP     P117720   5.662  18.739  10.228 -0.1934  0.0524 -0.0278
 2954DDP     P217721   6.210  19.191   9.830  0.0495  0.0030  0.2388
 2954DDP     C217722   6.414  19.215   9.364  0.0221  0.1505  0.1209
 2954DDP     C317723   5.407  18.471  10.433 -0.0470  0.1564 -0.1369
 2954DDP     C417724   5.502  19.347   9.928  0.0549  0.0369  0.0156
 2955DDP     C117725  29.977  22.594  19.490 -0.0798 -0.0505  0.0989
 2955DDP     P117726  29.938  22.605  19.978  0.0079 -0.0878 -0.3068
 2955DDP     P217727  29.775  22.563  19.087  0.2128 -0.2490  0.1598
 2955DDP     C217728  29.414  22.264  18.991 -0.0675 -0.0098 -0.0341
 2955DDP     C317729  29.538  22.481  20.102  0.0595  0.1261  0.2202
 2955DDP     C417730   0.071  22.871  19.400  0.1652  0.1121  0.1818
 2956DDP     C117731  10.201  16.888   9.821 -0.0929 -0.0960 -0.0867
 2956DDP     P117732  10.121  16.789  10.314  0.0295 -0.1016 -0.0868
 2956DDP     P217733  10.630  16.620   9.616 -0.1568 -0.0560 -0.1772
 2956DDP     C217734  11.174  16.539   9.606 -0.2117  0.2041  0.2240
 2956DDP     C317735  10.082  16.341  10.729 -0.0704 -0.4443 -0.0354
 2956DDP     C417736   9.901  17.116   9.561  0.1168 -0.0916  0.0001
 2957DDP     C117737  22.664  12.273  28.716  0.0418 -0.0137 -0.3463
 2957DDP     P117738  22.378  11.940  28.592  0.0702  0.0572  0.0611
 2957DDP     P217739  22.421  12.072  29.062 -0.2209  0.1225 -0.1456
 2957DDP     C217740  22.221  12.155  29.483  0.0995  0.2239 -0.1607
 2957DDP     C317741  22.415  11.580  28.518  0.2297 -0.1387 -0.1363
 2957DDP     C417742  22.871  12.615  28.597  0.0573 -0.2771  0.1415
 2958DDP     C117743  24.881  14.509  19.377 -0.2558 -0.0871 -0.1861
 2958DDP     P117744  25.118  14.219  19.569  0.1622 -0.1273  0.0367
 2958DDP     P217745  24.989  14.896  19.405 -0.1721 -0.3434 -0.3211
 2958DDP     C217746  25.204  15.232  19.340 -0.1860 -0.1626  0.0834
 2958DDP     C317747  25.369  13.959  19.697  0.1113  0.1381  0.2535
 2958DDP     C417748  24.614  14.385  19.058  0.0534  0.2795  0.3006
 2959DDP     C117749  22.732  10.473   8.682 -0.1134 -0.1569 -0.0122
 2959DDP     P117750  23.084  10.732   8.778  0.2628 -0.0208  0.5361
 2959DDP     P217751  22.762  10.349   8.294 -0.3060  0.3418  0.0632
 2959DDP     C217752  22.878  10.496   7.834  0.2475  0.2887  0.1910
 2959DDP     C317753  23.404  10.982   8.684 -0.3878 -0.1443  0.0822
 2959DDP     C417754  22.331  10.434   8.957  0.0783  0.0987 -0.2067
 2960DDP     C117755  12.496  14.871  16.081 -0.0739  0.1758 -0.1618
 2960DDP     P117756  12.579  15.170  15.663 -0.1058 -0.1827  0.1807
 2960DDP     P217757  12.078  14.653  15.891 -0.4789  0.1016 -0.3340
 2960DDP     C217758  11.675  14.540  15.838 -0.3798  0.2524 -0.0306
 2960DDP     C317759  12.772  15.618  15.606 -0.4272 -0.1496  0.0488
 2960DDP     C417760  12.610  14.760  16.540 -0.0655  0.0609 -0.1364
 2961DDP     C117761  19.141   3.248  18.796  0.0768  0.1908  0.1438
 2961DDP     P117762  19.364   3.237  18.350 -0.0486  0.1185 -0.0090
 2961DDP     P217763  19.421   3.016  19.139 -0.0405  0.0636  0.3103
 2961DDP     C217764  19.638   2.638  19.294  0.2066  0.4300 -0.3236
 2961DDP     C317765  19.154   3.060  18.050  0.0212 -0.0529  0.0673
 2961DDP     C417766  18.784   3.462  18.818 -0.1463 -0.0875 -0.0528
 2962DDP     C117767  30.270  10.589  12.920 -0.0997 -0.0421  0.1147
 2962DDP     P117768  29.929  10.831  13.209 -0.2085  0.1599 -0.1315
 2962DDP     P217769   0.231  10.862  12.657  0.2116 -0.4227  0.2727
 2962DDP     C217770   0.605  10.836  12.531  0.3565  0.1169  0.3386
 2962DDP     C317771  29.537  10.713  13.376  0.0288  0.0294 -0.1064
 2962DDP     C417772   0.069  10.116  13.096  0.0734 -0.1110  0.1761
 2963DDP     C117773  26.210  30.123  12.348 -0.2535 -0.0028  0.2062
 2963DDP     P117774  26.132  30.256  11.957 -0.2407 -0.1373  0.0693
 2963DDP     P217775  26.471  29.801  12.534  0.1116  0.0441  0.2987
 2963DDP     C217776  26.799  29.677  12.780 -0.2106 -0.0473 -0.0064
 2963DDP     C317777  25.794   0.004  11.548 -0.2219 -0.1315  0.0596
 2963DDP     C417778  25.907   0.036  12.753  0.3883 -0.2484  0.1400
 2964DDP     C117779   0.874  26.447  16.191 -0.0125 -0.0028 -0.0239
 2964DDP     P117780   1.093  26.132  16.527  0.4084  0.1810  0.2227
 2964DDP     P217781   0.403  26.706  16.291  0.1473  0.0718  0.1053
 2964DDP     C217782  30.219  26.861  16.451  0.0548 -0.1480  0.2347
 2964DDP     C317783   1.515  26.035  16.710  0.0316  0.1466  0.0742
 2964DDP     C417784   1.039  26.557  15.800 -0.0242  0.4365 -0.0328
 2965DDP     C117785   6.842   3.451   2.748 -0.0961 -0.0355 -0.2809
 2965DDP     P117786   6.912   2.978   2.833  0.0308  0.0655  0.3146
 2965DDP     P217787   7.123   3.684   2.463  0.1994  0.4073  0.2188
 2965DDP     C217788   7.129   3.661   2.051 -0.0314 -0.3274  0.3652
 2965DDP     C317789   6.701   2.761   3.095  0.2925 -0.1631 -0.2090
 2965DDP     C417790   6.561   3.761   3.037 -0.2033  0.5588 -0.0871
 2966DDP     C117791   6.755  23.380  17.255 -0.1612  0.2396 -0.0414
 2966DDP     P117792   7.146  23.235  17.066 -0.0838  0.0803 -0.0341
 2966DDP     P217793   6.419  23.061  17.320  0.0614  0.0428  0.1932
 2966DDP     C217794   6.403  22.604  17.281 -0.0871 -0.0602  0.0904
 2966DDP     C317795   7.534  23.110  16.956 -0.0219  0.2912 -0.3314
 2966DDP     C417796   6.751  23.750  17.485 -0.0137 -0.2429 -0.2115
 2967DDP     C117797  13.907   4.601  24.931 -0.0774 -0.4304 -0.0314
 2967DDP     P117798  13.748   4.280  24.948  0.3647 -0.1202 -0.0130
 2967DDP     P217799  13.782   4.858  25.252  0.2053 -0.3855  0.0357
 2967DDP     C217800  13.421   5.153  25.047 -0.1957 -0.0618  0.0267
 2967DDP     C317801  13.827   3.845  25.103  0.0707  0.5134  0.1804
 2967DDP     C417802  14.128   4.825  24.472  0.2893  0.3029  0.2765
 2968DDP     C117803  22.657   9.703   5.724  0.1422 -0.0123 -0.0961
 2968DDP     P117804  23.103   9.564   5.855 -0.1547  0.1699 -0.1414
 2968DDP     P217805  22.311   9.655   5.999  0.2816  0.4334  0.0325
 2968DDP     C217806  22.255   9.488   6.435 -0.0785  0.1418 -0.2348
 2968DDP     C317807  23.387   9.220   5.787  0.1333 -0.3718  0.3192
 2968DDP     C417808  22.720  10.228   5.502  0.1816 -0.0498  0.3579
 2969DDP     C117809   0.776   3.920   9.068 -0.0888 -0.0412 -0.0548
 2969DDP     P117810   0.572   4.065   8.742 -0.0444 -0.0932 -0.1107
 2969DDP     P217811   0.962   3.553   9.269 -0.0462 -0.0995  0.0359
 2969DDP     C217812   1.212   3.217   9.257 -0.3184  0.0014 -0.1783
 2969DDP     C317813   0.617   4.328   8.490  0.0421  0.0353  0.2095
 2969DDP     C417814   0.552   4.180   9.337  0.0214 -0.3314  0.2956
 2970DDP     C117815  13.952   9.403   6.036 -0.2960  0.2040 -0.1553
 2970DDP     P117816  14.368   9.426   6.085 -0.1487 -0.0174 -0.2126
 2970DDP     P217817  13.694   9.719   5.995 -0.1942  0.1075  0.1702
 2970DDP     C217818  13.896  10.071   5.860  0.0746  0.2605 -0.0046
 2970DDP     C317819  14.707   9.707   6.078 -0.0931 -0.1732  0.2624
 2970DDP     C417820  13.899   9.098   5.781  0.0532 -0.1016  0.0899
 2971DDP     C117821  22.821  12.740  28.072  0.1098  0.2516  0.0273
 2971DDP     P117822  22.577  12.897  27.808 -0.2427 -0.0916 -0.1042
 2971DDP     P217823  22.739  12.303  28.167 -0.1752  0.1723  0.0541
 2971DDP     C217824  22.860  11.975  27.892 -0.0498 -0.0796  0.3990
 2971DDP     C317825  22.542  13.254  27.583 -0.1125 -0.2808 -0.3025
 2971DDP     C417826  23.239  12.807  28.225  0.0153  0.2771  0.1616
 2972DDP     C117827   7.799  23.748  12.252  0.1546  0.2333  0.0269
 2972DDP     P117828   7.631  23.418  12.405  0.1059  0.3028 -0.3822
 2972DDP     P217829   8.255  23.883  12.489 -0.0912  0.0844  0.1581
 2972DDP     C217830   8.499  24.239  12.573 -0.2606  0.0268  0.0971
 2972DDP     C317831   7.226  23.311  12.577  0.0669 -0.1538 -0.2870
 2972DDP     C417832   7.557  24.022  11.932 -0.1564 -0.2166  0.0335
 2973DDP     C117833  13.822  12.737   0.406  0.0417  0.1678  0.3062
 2973DDP     P117834  13.767  12.432   0.674 -0.3086 -0.1641 -0.3412
 2973DDP     P217835  13.563  13.069   0.434 -0.0925 -0.5054  0.0951
 2973DDP     C217836  13.479  13.489   0.252 -0.3068 -0.1867 -0.1880
 2973DDP     C317837  13.471  12.145   0.581 -0.0238 -0.6283  0.1087
 2973DDP     C417838  14.101  12.673  30.318 -0.0151  0.1315 -0.0001
 2974DDP     C117839   9.191  23.714  15.453 -0.1817  0.0862 -0.0091
 2974DDP     P117840   8.921  23.514  15.318  0.0332 -0.0028 -0.0453
 2974DDP     P217841   9.535  23.564  15.736 -0.0405 -0.1491 -0.0051
 2974DDP     C217842   9.725  23.365  16.105  0.2198 -0.3246  0.1127
 2974DDP     C317843   8.825  22.998  15.294  0.0703 -0.0599 -0.0254
 2974DDP     C417844   9.140  24.072  15.360 -0.0579 -0.1713 -0.1733
 2975DDP     C117845   1.458  10.080   8.065 -0.2288  0.0304  0.2149
 2975DDP     P117846   1.208   9.713   8.171 -0.1008 -0.1015  0.1915
 2975DDP     P217847   1.673  10.049   7.614  0.0215  0.1707  0.1712
 2975DDP     C217848   1.827  10.165   7.249 -0.1692  0.2689 -0.0436
 2975DDP     C317849   0.894   9.587   8.437  0.0378 -0.1610  0.3330
 2975DDP     C417850   1.565  10.449   8.332  0.3226 -0.2893 -0.0397
 2976DDP     C117851  10.237  19.439  24.686  0.1000 -0.3071  0.0271
 2976DDP     P117852  10.376  19.490  24.225  0.2100  0.2752  0.1275
 2976DDP     P217853  10.182  19.855  24.830  0.0737 -0.1809  0.3150
 2976DDP     C217854   9.984  20.213  24.655 -0.3172 -0.1026 -0.0406
 2976DDP     C317855  10.123  19.754  23.924 -0.2213  0.0388 -0.1106
 2976DDP     C417856   9.993  19.054  24.651 -0.0679  0.1423 -0.0313
 2977DDP     C117857   7.059  27.775  11.558  0.4375 -0.2632  0.0137
 2977DDP     P117858   7.265  27.499  11.219  0.1913 -0.0351 -0.3069
 2977DDP     P217859   6.919  28.172  11.309  0.1893 -0.0011 -0.1522
 2977DDP     C217860   7.144  28.552  11.342 -0.0620  0.0530  0.0429
 2977DDP     C317861   7.722  27.238  11.154 -0.1416  0.1103 -0.1643
 2977DDP     C417862   7.216  27.740  11.980  0.2272  0.2122 -0.3026
 2978DDP     C117863   3.469  11.359  13.928 -0.1156  0.0960 -0.2228
 2978DDP     P117864   3.076  11.391  13.795  0.1518  0.0108 -0.0865
 2978DDP     P217865   3.788  11.635  14.015  0.2870 -0.0852  0.2856
 2978DDP     C217866   4.160  11.990  13.830 -0.2036  0.4028 -0.1568
 2978DDP     C317867   2.744  11.179  13.704  0.1417  0.0558 -0.0117
 2978DDP     C417868   3.557  11.078  14.225 -0.1089 -0.1552 -0.0552
 2979DDP     C117869  19.930  24.952  13.250  0.0999 -0.1735  0.2922
 2979DDP     P117870  19.840  25.126  13.715  0.0512 -0.1020  0.1123
 2979DDP     P217871  20.129  24.498  13.211  0.0554 -0.3632 -0.1388
 2979DDP     C217872  20.122  23.990  13.031  0.0724 -0.1307  0.1447
 2979DDP     C317873  19.437  25.471  13.708 -0.3124  0.1019 -0.0457
 2979DDP     C417874  19.885  25.116  12.833  0.2658  0.1145  0.1459
 2980DDP     C117875  19.144   0.181  28.689 -0.1270  0.2295 -0.2738
 2980DDP     P117876  19.138   0.614  28.459  0.1238 -0.2483  0.1617
 2980DDP     P217877  19.344   0.211  29.055  0.1218 -0.0064 -0.3180
 2980DDP     C217878  19.475   0.607  29.349 -0.1248 -0.2399 -0.0862
 2980DDP     C317879  19.266   0.689  28.004  0.2678  0.1023  0.0748
 2980DDP     C417880  18.896  30.187  28.521 -0.1492  0.2888 -0.0013
 2981DDP     C117881   4.334  17.226  16.599  0.2278  0.0873 -0.0341
 2981DDP     P117882   4.557  16.999  16.230 -0.3207 -0.1004  0.0808
 2981DDP     P217883   4.480  17.248  17.020  0.4167  0.0972  0.2313
 2981DDP     C217884   4.589  17.435  17.401 -0.1395  0.1277  0.1189
 2981DDP     C317885   4.559  16.667  16.015 -0.2103 -0.0926  0.1026
 2981DDP     C417886   3.984  17.467  16.405  0.3128  0.1142  0.1500
 2982DDP     C117887  18.577  17.762   0.751  0.3439 -0.4308  0.1037
 2982DDP     P117888  18.273  18.089   0.947  0.1183  0.1000  0.2302
 2982DDP     P217889  18.960  17.960   0.561  0.1053 -0.0109  0.3426
 2982DDP     C217890  19.152  18.334   0.502  0.1714 -0.1983 -0.0318
 2982DDP     C317891  18.338  18.510   1.171 -0.0859  0.0297 -0.0827
 2982DDP     C417892  18.428  17.334   0.719  0.1925  0.1261 -0.1198
 2983DDP     C117893  13.684  11.089   2.795 -0.2142 -0.1591 -0.0223
 2983DDP     P117894  13.186  10.986   2.863 -0.1586 -0.1158  0.1460
 2983DDP     P217895  14.034  11.145   3.194 -0.1514  0.1418  0.2008
 2983DDP     C217896  14.182  11.511   3.272  0.2607 -0.3382  0.0510
 2983DDP     C317897  13.057  10.844   2.385 -0.1610  0.1390 -0.0115
 2983DDP     C417898  13.923  11.311   2.496  0.0266 -0.0626 -0.0697
 2984DDP     C117899  29.948  22.066  24.849  0.2486  0.0758  0.1377
 2984DDP     P117900  30.290  22.289  24.928  0.0183 -0.1919  0.0613
 2984DDP     P217901  29.480  22.204  24.927  0.0729  0.2577 -0.1411
 2984DDP     C217902  29.131  22.564  24.952  0.3431 -0.0098  0.0952
 2984DDP     C317903   0.274  22.287  25.166 -0.4838  0.1117 -0.1542
 2984DDP     C417904  30.068  21.863  24.502 -0.1573 -0.1783  0.1065
 2985DDP     C117905  25.109  11.111  19.643  0.0863  0.1771 -0.2431
 2985DDP     P117906  25.425  10.895  19.972  0.2306 -0.1581  0.3930
 2985DDP     P217907  25.085  10.998  19.233 -0.1919  0.0495 -0.0294
 2985DDP     C217908  24.832  10.783  19.003  0.1772  0.0125 -0.1901
 2985DDP     C317909  25.672  10.621  20.231  0.1597 -0.1669  0.0462
 2985DDP     C417910  25.150  11.358  20.062  0.0409 -0.2902 -0.3992
 2986DDP     C117911   0.293  24.191  15.587  0.3172  0.0059 -0.2912
 2986DDP     P117912   0.712  24.197  15.410 -0.0077 -0.3824  0.1610
 2986DDP     P217913  -0.016  24.511  15.476 -0.2650 -0.1204 -0.0328
 2986DDP     C217914  30.142  24.597  15.070 -0.0430  0.0701 -0.1183
 2986DDP     C317915   0.950  23.864  15.248 -0.1419  0.0189 -0.1326
 2986DDP     C417916   0.231  23.994  15.959 -0.0813  0.0959 -0.0212
 2987DDP     C117917  19.653   9.903  27.365  0.0779 -0.1089 -0.3154
 2987DDP     P117918  19.916   9.843  27.732  0.3921  0.1304  0.4280
 2987DDP     P217919  19.464  10.191  27.347  0.3242  0.0537 -0.2880
 2987DDP     C217920  19.207  10.529  27.601 -0.3306  0.0630 -0.3059
 2987DDP     C317921  20.343   9.696  27.719  0.0913  0.0852 -0.0419
 2987DDP     C417922  19.696   9.710  26.814  0.0985  0.0499 -0.2647
 2988DDP     C117923  19.574   9.914  11.081  0.2193 -0.2828  0.1461
 2988DDP     P117924  19.331  10.120  10.726 -0.2157  0.0018 -0.0507
 2988DDP     P217925  19.886   9.565  10.898 -0.0976 -0.1052  0.0059
 2988DDP     C217926  19.921   9.242  10.596 -0.1552 -0.1105 -0.0404
 2988DDP     C317927  18.880  10.146  10.780  0.2304  0.5182 -0.0550
 2988DDP     C417928  19.638  10.135  11.466  0.2656 -0.0672  0.0536
 2989DDP     C117929  28.674  14.407  25.102 -0.0383  0.0888 -0.2572
 2989DDP     P117930  28.497  14.285  25.443  0.0463  0.0028  0.2426
 2989DDP     P217931  28.907  14.060  24.949  0.1907 -0.0838  0.0567
 2989DDP     C217932  28.745  13.687  24.697  0.0432 -0.0136 -0.3387
 2989DDP     C317933  28.049  14.033  25.446  0.0229 -0.1403 -0.1443
 2989DDP     C417934  28.466  14.760  24.836  0.0580 -0.0249 -0.0953
 2990DDP     C117935  25.903  10.745  17.573  0.4066  0.0649 -0.0789
 2990DDP     P117936  26.316  10.873  17.728 -0.0121 -0.2505 -0.0078
 2990DDP     P217937  25.737  10.278  17.633  0.0113 -0.1707 -0.0277
 2990DDP     C217938  25.647   9.803  17.562  0.1423  0.1352 -0.1553
 2990DDP     C317939  26.754  10.797  17.544 -0.1093 -0.1403 -0.0739
 2990DDP     C417940  25.565  10.953  17.725 -0.0120  0.1073  0.1343
 2991DDP     C117941   5.975   1.524  28.259 -0.2295 -0.2396  0.0301
 2991DDP     P117942   5.930   1.305  28.636 -0.0603 -0.0899  0.2927
 2991DDP     P217943   6.405   1.561  28.073 -0.0536  0.0784  0.1011
 2991DDP     C217944   6.873   1.530  27.918  0.2580  0.0883 -0.0236
 2991DDP     C317945   5.640   1.554  28.896  0.3010 -0.0513  0.1191
 2991DDP     C417946   5.764   1.836  28.119 -0.1688  0.3219 -0.0501
 2992DDP     C117947  13.346  16.928  16.664 -0.2110 -0.2727  0.2462
 2992DDP     P117948  13.468  17.330  16.642 -0.0107  0.0623  0.1176
 2992DDP     P217949  13.815  16.854  16.560 -0.1683  0.2188  0.0231
 2992DDP     C217950  14.065  16.565  16.355  0.0238 -0.1279  0.3072
 2992DDP     C317951  13.612  17.645  16.864 -0.0807  0.0099  0.1203
 2992DDP     C417952  13.063  16.659  16.666 -0.1432 -0.1523  0.1577
 2993DDP     C117953   2.756   2.220  27.551  0.1793  0.2681 -0.3053
 2993DDP     P117954   2.656   2.433  28.005 -0.0189  0.0609  0.0875
 2993DDP     P217955   2.492   2.047  27.299 -0.0433  0.3297  0.1687
 2993DDP     C217956   2.151   1.976  27.126 -0.0692 -0.0636 -0.0382
 2993DDP     C317957   2.499   2.530  28.384  0.0714 -0.0437 -0.1039
 2993DDP     C417958   3.217   2.284  27.417 -0.1227  0.2932 -0.1321
 2994DDP     C117959  18.762  11.435  20.553  0.1930  0.0045  0.1174
 2994DDP     P117960  18.855  11.408  21.030 -0.1117  0.1471  0.0845
 2994DDP     P217961  18.977  11.853  20.244  0.3252  0.0294 -0.1143
 2994DDP     C217962  19.182  11.990  19.940 -0.1937 -0.1826 -0.1676
 2994DDP     C317963  18.710  11.549  21.369  0.0806 -0.0412 -0.2669
 2994DDP     C417964  18.630  10.989  20.250  0.1568 -0.2806  0.0584
 2995DDP     C117965  13.284  13.943  10.295  0.0528 -0.1522  0.1716
 2995DDP     P117966  13.035  13.779  10.516 -0.1687  0.2737 -0.3617
 2995DDP     P217967  13.554  13.672  10.528 -0.0616  0.0378  0.1492
 2995DDP     C217968  13.695  13.227  10.597  0.0284  0.4826 -0.3133
 2995DDP     C317969  12.687  13.814  10.773  0.4289  0.0693 -0.4302
 2995DDP     C417970  13.341  14.340  10.078  0.0276  0.1002 -0.2020
 2996DDP     C117971  23.249  14.368  17.336 -0.2161  0.1926  0.0499
 2996DDP     P117972  23.502  13.978  17.361 -0.5119  0.0034 -0.0451
 2996DDP     P217973  23.149  14.617  17.637 -0.0467  0.1965 -0.0590
 2996DDP     C217974  23.145  14.953  17.959  0.1599  0.2043 -0.0001
 2996DDP     C317975  23.617  13.704  17.074 -0.0223 -0.1915 -0.2630
 2996DDP     C417976  23.155  14.410  16.847 -0.1397  0.0693 -0.0318
 2997DDP     C117977  28.433  16.155   7.795 -0.2282  0.1221 -0.2061
 2997DDP     P117978  28.417  15.927   7.414  0.0890 -0.1170 -0.3111
 2997DDP     P217979  28.276  16.076   8.233 -0.1782 -0.2248 -0.0095
 2997DDP     C217980  28.130  16.171   8.663  0.0732 -0.1873  0.2073
 2997DDP     C317981  28.744  15.716   7.149 -0.1149  0.0940 -0.2306
 2997DDP     C417982  28.750  16.523   7.753  0.0956 -0.0928  0.2338
 2998DDP     C117983  15.332   3.508  16.232  0.2580  0.0741  0.0761
 2998DDP     P117984  14.956   3.708  15.892  0.1104 -0.1859 -0.2571
 2998DDP     P217985  15.318   3.300  16.609 -0.0878  0.0564 -0.0031
 2998DDP     C217986  15.079   3.086  16.820  0.2828  0.3160  0.0317
 2998DDP     C317987  14.535   3.915  16.002  0.2313  0.0304  0.0367
 2998DDP     C417988  15.609   3.601  15.986 -0.1561  0.1783  0.0456
 2999DDP     C117989  23.337  24.366  20.760  0.0759  0.1142 -0.2285
 2999DDP     P117990  23.101  23.994  20.866 -0.0095 -0.0044  0.4304
 2999DDP     P217991  23.187  24.819  20.628 -0.0919  0.1045  0.1846
 2999DDP     C217992  22.991  25.177  20.577  0.2775 -0.0995  0.1065
 2999DDP     C317993  22.704  23.819  20.684 -0.0827  0.0682 -0.0530
 2999DDP     C417994  23.784  24.347  20.745 -0.2865 -0.2557 -0.3287
 3000DDP     C117995  12.359  27.516  14.033  0.0330 -0.0260 -0.3041
 3000DDP     P117996  11.950  27.272  14.052 -0.3551  0.2215 -0.0622
 3000DDP     P217997  12.609  27.885  13.925 -0.1299  0.1630 -0.0212
 3000DDP     C217998  12.507  28.387  13.801  0.2932 -0.3091  0.0993
 3000DDP     C317999  11.681  27.393  14.333  0.0035  0.0100  0.2143
 3000DDP     C418000  12.715  27.293  14.073 -0.0969 -0.0814 -0.3793
 3001DDP     C118001  15.123  22.332  16.039 -0.3721 -0.2430  0.4234
 3001DDP     P118002  15.378  21.973  16.232 -0.0057  0.1329  0.0611
 3001DDP     P218003  14.733  22.480  16.215 -0.0949  0.0400  0.0272
 3001DDP     C218004  14.335  22.179  16.342 -0.1869 -0.0383  0.1898
 3001DDP     C318005  15.204  21.673  16.494  0.0713 -0.1616 -0.3668
 3001DDP     C418006  15.234  22.719  15.802 -0.1369  0.0525  0.0257
 3002DDP     C118007  10.179  24.651  27.829  0.0514  0.0976  0.0200
 3002DDP     P118008  10.482  24.306  27.693 -0.0018 -0.0111  0.1786
 3002DDP     P218009   9.940  24.545  28.083 -0.2213  0.2337 -0.3762
 3002DDP     C218010   9.599  24.456  28.232 -0.0829 -0.2054 -0.0989
 3002DDP     C318011  10.721  23.968  27.602 -0.2775 -0.0876  0.3779
 3002DDP     C418012  10.215  25.083  27.746  0.0726  0.1078  0.2849
 3003DDP     C118013  10.916  26.027  10.770  0.0787 -0.0577 -0.1850
 3003DDP     P118014  10.986  25.748  11.230 -0.1202  0.2260 -0.0611
 3003DDP     P218015  10.592  26.129  10.468  0.2311 -0.1575 -0.0139
 3003DDP     C218016  10.268  25.862  10.376  0.0457  0.1581 -0.2261
 3003DDP     C318017  11.181  25.391  11.447  0.3413 -0.0158 -0.1092
 3003DDP     C418018  11.328  26.368  10.803  0.3432 -0.1576 -0.2406
 3004DDP     C118019  21.945  18.871  17.841  0.2581  0.0837  0.1890
 3004DDP     P118020  21.543  19.211  17.799 -0.0342 -0.2062 -0.0766
 3004DDP     P218021  21.935  18.668  17.458  0.2914 -0.4221  0.0025
 3004DDP     C218022  21.983  18.767  16.975  0.0248  0.0318  0.0297
 3004DDP     C318023  21.281  18.907  17.690  0.1361  0.0047 -0.2122
 3004DDP     C418024  22.061  18.656  18.193  0.0290  0.0898  0.3819
 3005DDP     C118025  17.046  24.932   3.858  0.2229 -0.0944 -0.0084
 3005DDP     P118026  16.700  25.287   3.630  0.3071 -0.0215 -0.0479
 3005DDP     P218027  17.009  24.516   4.057  0.0887  0.0358  0.1167
 3005DDP     C218028  16.703  24.415   4.374  0.3960 -0.1114  0.2454
 3005DDP     C318029  16.522  25.448   3.252  0.1469  0.2001 -0.0766
 3005DDP     C418030  17.311  25.128   4.036  0.2179 -0.0679  0.1679
 3006DDP     C118031   1.482  26.378  22.372 -0.0100  0.0512 -0.1909
 3006DDP     P118032   1.749  26.256  22.287 -0.0223  0.0621 -0.2370
 3006DDP     P218033   1.131  26.363  22.142  0.0365  0.0797  0.0847
 3006DDP     C218034   0.903  26.706  22.075  0.1955  0.0308  0.1334
 3006DDP     C318035   2.193  26.121  22.212  0.1125  0.1829  0.1388
 3006DDP     C418036   1.369  26.647  22.725 -0.0872 -0.1342 -0.0832
 3007DDP     C118037  27.370   9.700   4.251 -0.0255 -0.3183 -0.1846
 3007DDP     P118038  27.706   9.740   4.489  0.1799 -0.4769  0.0672
 3007DDP     P218039  27.129   9.389   4.150 -0.0042  0.2397  0.0274
 3007DDP     C218040  26.825   9.114   3.840  0.4044  0.0881  0.1587
 3007DDP     C318041  27.967   9.804   4.887 -0.0943  0.0728 -0.0558
 3007DDP     C418042  27.222  10.134   4.389  0.1412  0.3726  0.3335
 3008DDP     C118043  10.881   5.854  24.187 -0.0623  0.0606  0.0392
 3008DDP     P118044  11.299   5.943  24.200 -0.2504  0.1337 -0.0791
 3008DDP     P218045  10.620   5.633  24.521  0.1211 -0.2497  0.1020
 3008DDP     C218046  10.158   5.606  24.421  0.2913 -0.0594 -0.0807
 3008DDP     C318047  11.724   5.772  24.241  0.2442  0.2400  0.1184
 3008DDP     C418048  10.994   5.572  23.848 -0.0463  0.1276 -0.0295
 3009DDP     C118049   1.422  14.814   9.465 -0.0668  0.0217 -0.1919
 3009DDP     P118050   1.536  15.264   9.495  0.0692  0.2058  0.4152
 3009DDP     P218051   1.078  14.707   9.160 -0.2417 -0.0858  0.0115
 3009DDP     C218052   0.849  14.434   9.099 -0.1427  0.3365 -0.0687
 3009DDP     C318053   1.802  15.666   9.320  0.1911  0.0660 -0.2225
 3009DDP     C418054   1.652  14.508   9.729  0.2781 -0.1863 -0.2898
 3010DDP     C118055   5.530   4.601  15.089 -0.1070  0.2420  0.0671
 3010DDP     P118056   5.657   4.232  15.040 -0.2883  0.1121  0.0454
 3010DDP     P218057   5.357   4.837  14.704 -0.1695  0.4192  0.2666
 3010DDP     C218058   5.074   4.938  14.280 -0.1377 -0.1096  0.0842
 3010DDP     C318059   6.017   4.059  15.010 -0.0886  0.0638  0.0092
 3010DDP     C418060   5.601   4.841  15.392  0.0267 -0.1535  0.2067
 3011DDP     C118061  27.955   3.433  27.785 -0.1866 -0.3586  0.0097
 3011DDP     P118062  28.273   3.617  27.462  0.2299  0.1929  0.1365
 3011DDP     P218063  27.635   3.256  27.640 -0.0043  0.3113  0.2128
 3011DDP     C218064  27.549   2.833  27.244 -0.1361 -0.1073  0.0714
 3011DDP     C318065  28.707   3.805  27.357 -0.0751  0.0306 -0.0034
 3011DDP     C418066  27.841   3.634  28.153  0.0340  0.0118 -0.1297
 3012DDP     C118067  26.588  30.158   5.136 -0.0319 -0.4650  0.0892
 3012DDP     P118068  26.300   0.125   5.106 -0.0115  0.1751  0.0839
 3012DDP     P218069  26.736  29.949   5.509  0.0049  0.2414 -0.0380
 3012DDP     C218070  26.535  29.738   5.857  0.1207  0.1815 -0.4761
 3012DDP     C318071  26.085   0.458   4.810 -0.1856 -0.0620  0.0904
 3012DDP     C418072  27.016  30.087   4.995 -0.0967 -0.0949  0.1733
 3013DDP     C118073  21.030  23.138   4.189  0.1227  0.3805  0.3228
 3013DDP     P118074  21.306  23.266   4.474 -0.1515  0.0224 -0.1387
 3013DDP     P218075  20.625  23.063   4.242  0.3602  0.1987  0.0241
 3013DDP     C218076  20.220  22.989   3.993  0.1021  0.1316  0.2460
 3013DDP     C318077  21.638  23.490   4.762 -0.0006  0.0922  0.0646
 3013DDP     C418078  21.055  23.113   3.720 -0.1867 -0.1706 -0.1572
 3014DDP     C118079  19.510  16.160   7.824 -0.0436  0.3989  0.3839
 3014DDP     P118080  19.434  15.707   7.804  0.0552 -0.2381  0.0426
 3014DDP     P218081  19.777  16.423   7.768 -0.0846 -0.2161  0.0271
 3014DDP     C218082  20.178  16.648   7.820  0.0004  0.1062 -0.3125
 3014DDP     C318083  19.615  15.484   8.009 -0.1655 -0.1246  0.3028
 3014DDP     C418084  19.102  16.284   7.863  0.1478 -0.2765  0.1051
 3015DDP     C118085   3.193  29.631  28.598 -0.1275 -0.1192  0.1270
 3015DDP     P118086   3.313  29.380  28.940 -0.1983  0.2232 -0.0646
 3015DDP     P218087   3.362  30.033  28.627  0.0211  0.0146 -0.0722
 3015DDP     C218088   3.389   0.092  28.289  0.0597  0.0662 -0.2318
 3015DDP     C318089   3.610  29.094  29.187 -0.1892  0.0088  0.1078
 3015DDP     C418090   3.088  29.322  28.180  0.1483  0.0366  0.1716
 3016DDP     C118091   3.815  10.057   8.974 -0.1244  0.0610  0.2318
 3016DDP     P118092   3.539  10.034   9.403 -0.0024 -0.0847  0.0127
 3016DDP     P218093   3.589   9.888   8.577  0.0911 -0.4093 -0.2360
 3016DDP     C218094   3.136   9.923   8.370 -0.2220 -0.1640  0.2049
 3016DDP     C318095   3.210  10.263   9.477 -0.1590 -0.0473  0.0653
 3016DDP     C418096   4.210  10.343   8.954  0.1025 -0.1012  0.2917
 3017DDP     C118097  19.725  20.247  26.532 -0.0278  0.2886  0.3038
 3017DDP     P118098  20.030  20.012  26.344 -0.0589  0.2899 -0.0833
 3017DDP     P218099  19.322  20.181  26.816 -0.0857 -0.0367 -0.2460
 3017DDP     C218100  19.141  20.267  27.171  0.1437  0.0870 -0.0882
 3017DDP     C318101  20.490  20.154  26.246 -0.1045  0.0420 -0.1601
 3017DDP     C418102  19.753  20.761  26.617 -0.0831  0.0328  0.2898
 3018DDP     C118103   7.483  29.010  29.440 -0.0301 -0.0479 -0.0993
 3018DDP     P118104   7.849  28.947  29.725  0.0898  0.2086 -0.0207
 3018DDP     P218105   7.471  29.354  29.105 -0.0932 -0.3097 -0.0054
 3018DDP     C218106   7.805  29.669  28.955  0.1359 -0.0795 -0.0719
 3018DDP     C318107   7.766  28.902  30.124  0.0965  0.1549  0.3875
 3018DDP     C418108   7.225  28.607  29.518  0.1474 -0.1881 -0.0784
 3019DDP     C118109   0.488  25.522   9.243  0.0550  0.2074 -0.0270
 3019DDP     P118110   0.711  25.378   9.058 -0.3508  0.1858  0.0512
 3019DDP     P218111   0.339  25.372   9.610  0.0164 -0.0628 -0.0275
 3019DDP     C218112   0.217  25.078   9.895 -0.2013  0.0786 -0.1616
 3019DDP     C318113   0.887  24.908   8.972 -0.0081  0.0506 -0.2010
 3019DDP     C418114   0.496  26.014   9.417  0.0651  0.0936  0.3405
 3020DDP     C118115  15.432  11.531  25.253  0.0504 -0.2552  0.5637
 3020DDP     P118116  15.324  11.087  25.298  0.0257 -0.3187 -0.2466
 3020DDP     P218117  15.456  11.698  25.648 -0.0428 -0.0252 -0.2073
 3020DDP     C218118  15.487  11.967  26.003 -0.1276  0.1678  0.2342
 3020DDP     C318119  15.493  10.786  25.207  0.1488 -0.2939  0.0439
 3020DDP     C418120  15.631  11.848  24.923  0.2826 -0.1355  0.0634
 3021DDP     C118121  22.536   6.430   3.777  0.3186  0.4232  0.1050
 3021DDP     P118122  22.613   6.145   4.016  0.0390  0.3116  0.0082
 3021DDP     P218123  22.068   6.289   3.658 -0.1919  0.2511 -0.1671
 3021DDP     C218124  21.936   5.933   3.226 -0.0084  0.3054 -0.0917
 3021DDP     C318125  23.091   5.914   4.155 -0.0543  0.1281 -0.0856
 3021DDP     C418126  22.796   6.644   3.507  0.0950  0.2145  0.0301
 3022DDP     C118127  29.052  15.988  21.633 -0.1140  0.0310  0.0811
 3022DDP     P118128  29.423  15.911  21.357  0.0016  0.1045  0.3701
 3022DDP     P218129  28.970  16.389  21.528 -0.1755 -0.0117  0.4293
 3022DDP     C218130  28.526  16.432  21.265  0.0155  0.0730 -0.2729
 3022DDP     C318131  29.733  15.676  21.370 -0.3850 -0.2412 -0.2263
 3022DDP     C418132  29.239  15.887  22.017 -0.0138 -0.1693 -0.2611
 3023DDP     C118133  25.355   2.127   7.904 -0.1056 -0.1038 -0.0966
 3023DDP     P118134  25.713   2.102   8.202  0.1750  0.0373  0.1265
 3023DDP     P218135  25.210   2.537   8.029 -0.0227  0.1648 -0.0723
 3023DDP     C218136  24.981   2.880   7.862 -0.0567  0.1884  0.1152
 3023DDP     C318137  26.101   2.326   8.299  0.0029 -0.0588 -0.0390
 3023DDP     C418138  25.245   1.835   7.548 -0.0941  0.1436 -0.1426
 3024DDP     C118139  18.247  19.771  14.059  0.0980 -0.0225  0.4131
 3024DDP     P118140  17.829  19.716  14.373 -0.1689 -0.0634 -0.1643
 3024DDP     P218141  18.640  19.635  14.126  0.0984 -0.2530  0.1489
 3024DDP     C218142  18.869  19.478  14.421  0.0358  0.1587 -0.0395
 3024DDP     C318143  17.385  19.877  14.327 -0.1600  0.2772 -0.1106
 3024DDP     C418144  18.220  20.167  13.983 -0.1645 -0.0949  0.0308
 3025DDP     C118145  15.669  15.983   7.088 -0.0065  0.2228  0.1021
 3025DDP     P118146  15.424  16.015   7.375 -0.0978  0.0642 -0.1343
 3025DDP     P218147  15.663  15.533   6.817 -0.3584 -0.2650  0.1950
 3025DDP     C218148  16.021  15.274   6.630 -0.2550 -0.1509  0.0997
 3025DDP     C318149  15.438  16.353   7.782  0.0588  0.2723 -0.3149
 3025DDP     C418150  15.791  16.369   6.856 -0.0653 -0.3240 -0.1257
 3026DDP     C118151   6.538  30.248  13.637  0.2213 -0.0815 -0.1742
 3026DDP     P118152   6.841  30.138  13.343  0.1347 -0.1036  0.3758
 3026DDP     P218153   6.718  30.329  14.056 -0.1172  0.1010  0.1987
 3026DDP     C218154   6.633  30.131  14.497  0.1741 -0.2508  0.0903
 3026DDP     C318155   7.200  30.227  13.107 -0.4073 -0.2407  0.0319
 3026DDP     C418156   6.147  30.281  13.595  0.0140 -0.0631 -0.0416
 3027DDP     C118157   6.573  21.622  28.266  0.0601  0.1865 -0.0259
 3027DDP     P118158   6.752  21.772  28.623 -0.0601 -0.2595 -0.0035
 3027DDP     P218159   6.242  21.828  28.134 -0.1306  0.1611  0.2352
 3027DDP     C218160   5.775  22.070  28.292  0.0581  0.1797  0.0762
 3027DDP     C318161   6.800  22.149  28.701  0.0362 -0.1986 -0.0068
 3027DDP     C418162   6.822  21.256  28.039 -0.0946 -0.0478  0.0102
 3028DDP     C118163  17.009   5.704  19.443 -0.3020  0.0408  0.0759
 3028DDP     P118164  16.788   5.898  19.754  0.3358  0.3472 -0.1724
 3028DDP     P218165  17.151   6.133  19.151  0.0771  0.2634  0.2730
 3028DDP     C218166  17.091   6.523  19.073  0.0818  0.1186  0.0648
 3028DDP     C318167  16.642   6.315  19.895 -0.2821  0.1757 -0.0409
 3028DDP     C418168  16.933   5.250  19.338  0.1074 -0.4080 -0.2782
 3029DDP     C118169   5.523  11.360  22.331  0.1845 -0.1007  0.0915
 3029DDP     P118170   5.394  11.756  22.438  0.0898 -0.2276 -0.0210
 3029DDP     P218171   5.177  11.040  22.348 -0.0190 -0.2943  0.3214
 3029DDP     C218172   4.764  11.022  22.358 -0.2339 -0.1163  0.1594
 3029DDP     C318173   5.114  12.153  22.612  0.0873  0.1857  0.0284
 3029DDP     C418174   5.839  11.172  22.048  0.3730  0.0567  0.3000
 3030DDP     C118175  21.028  15.287  28.605 -0.2056  0.0927 -0.1909
 3030DDP     P118176  20.982  15.642  28.423 -0.3423 -0.0918 -0.0339
 3030DDP     P218177  21.388  14.968  28.755  0.1732  0.1943 -0.1501
 3030DDP     C218178  21.472  14.489  28.823 -0.0963 -0.0379 -0.0338
 3030DDP     C318179  21.369  15.916  28.354  0.1923  0.1024 -0.5080
 3030DDP     C418180  20.696  15.223  28.581  0.0550 -0.1341 -0.0085
 3031DDP     C118181   9.202   4.025  19.561 -0.2387  0.2076 -0.0597
 3031DDP     P118182   9.549   4.197  19.283 -0.1920  0.0405 -0.0498
 3031DDP     P218183   8.876   4.130  19.743 -0.2746  0.0195  0.1275
 3031DDP     C218184   8.784   4.506  19.913 -0.1722  0.4112 -0.1344
 3031DDP     C318185   9.881   4.532  19.208  0.0843 -0.2687  0.0522
 3031DDP     C418186   9.307   3.681  19.686  0.0838 -0.1221 -0.1017
 3032DDP     C118187  18.118  12.871  16.396 -0.0381  0.2720  0.0775
 3032DDP     P118188  18.370  12.483  16.445  0.3005 -0.0992 -0.0107
 3032DDP     P218189  18.245  13.200  16.013 -0.0531  0.2231 -0.1822
 3032DDP     C218190  18.272  13.208  15.564 -0.1574 -0.2658  0.2356
 3032DDP     C318191  18.565  12.224  16.844 -0.0029 -0.0538 -0.1314
 3032DDP     C418192  17.746  12.978  16.779  0.1442 -0.1269  0.0919
 3033DDP     C118193  21.728   4.656   0.170 -0.1045 -0.0964 -0.0661
 3033DDP     P118194  21.946   4.856  30.109 -0.0988 -0.1033  0.0092
 3033DDP     P218195  21.261   4.593   0.167  0.2416 -0.0195 -0.2806
 3033DDP     C218196  20.909   4.350   0.252  0.5493 -0.1175 -0.2493
 3033DDP     C318197  21.998   5.201  29.864  0.1773  0.0549  0.1141
 3033DDP     C418198  21.887   4.232   0.476  0.3557 -0.2386 -0.0771
 3034DDP     C118199  12.250  14.345   4.911 -0.1104  0.0290 -0.2056
 3034DDP     P118200  12.221  14.403   4.473 -0.2618 -0.0035  0.2497
 3034DDP     P218201  12.579  14.127   4.998  0.1664 -0.0648 -0.0207
 3034DDP     C218202  12.979  14.014   4.831  0.3433 -0.1263  0.1613
 3034DDP     C318203  12.410  14.406   4.005 -0.0715 -0.0574 -0.0190
 3034DDP     C418204  11.989  14.521   5.186  0.1137  0.3447  0.2119
 3035DDP     C118205   9.839  26.262  20.515 -0.1014  0.1379 -0.2651
 3035DDP     P118206   9.956  26.001  20.904 -0.1475 -0.0192  0.0992
 3035DDP     P218207   9.922  26.180  20.163 -0.1703  0.0754 -0.1548
 3035DDP     C218208  10.357  26.044  19.904 -0.0803  0.0382  0.3835
 3035DDP     C318209  10.048  25.679  21.288  0.0528 -0.0640 -0.0476
 3035DDP     C418210   9.555  26.657  20.642  0.3312  0.0778  0.1977
 3036DDP     C118211   2.412  22.636  14.168  0.1290  0.1377 -0.0556
 3036DDP     P118212   2.476  22.395  13.835  0.2085  0.0795  0.0231
 3036DDP     P218213   2.050  22.615  14.304  0.2948 -0.3997  0.1053
 3036DDP     C218214   1.694  22.307  14.354  0.1195  0.0950  0.2844
 3036DDP     C318215   2.708  22.369  13.425 -0.0285 -0.0898 -0.2378
 3036DDP     C418216   2.839  22.613  14.263 -0.4986 -0.0454  0.1861
 3037DDP     C118217   8.358  12.740  20.472 -0.3036  0.1413  0.0174
 3037DDP     P118218   7.993  12.780  20.677  0.2979  0.0526  0.1420
 3037DDP     P218219   8.769  12.847  20.488 -0.1485 -0.2232  0.1428
 3037DDP     C218220   9.094  13.153  20.694 -0.0630 -0.1390  0.0490
 3037DDP     C318221   7.538  12.653  20.736 -0.0903  0.2769 -0.3299
 3037DDP     C418222   8.233  12.559  20.038 -0.1187  0.1090  0.0495
 3038DDP     C118223  30.136   7.562  22.652 -0.0401 -0.1660  0.3848
 3038DDP     P118224  29.755   7.594  22.789  0.1244 -0.2940 -0.2940
 3038DDP     P218225  30.298   7.117  22.596 -0.0283  0.0632 -0.4325
 3038DDP     C218226  30.322   6.779  22.349 -0.0693 -0.0476 -0.4394
 3038DDP     C318227  29.484   7.944  22.539  0.1513 -0.1469 -0.1589
 3038DDP     C418228  30.207   7.794  22.280 -0.0441 -0.0973  0.0211
 3039DDP     C118229  15.081  14.451   3.063  0.2070  0.2329 -0.1120
 3039DDP     P118230  14.627  14.431   3.091 -0.0962 -0.2422 -0.2714
 3039DDP     P218231  15.014  13.992   3.043 -0.0327 -0.0382 -0.0538
 3039DDP     C218232  14.947  13.648   3.302  0.2282  0.1180 -0.1076
 3039DDP     C318233  14.233  14.486   2.905 -0.2473 -0.2815  0.1263
 3039DDP     C418234  15.384  14.808   3.160 -0.3961  0.0263  0.0135
 3040DDP     C118235  -0.029  23.716   4.722 -0.0406  0.1855  0.2469
 3040DDP     P118236  29.854  23.781   4.794  0.2304  0.2897 -0.2892
 3040DDP     P218237   0.409  23.419   4.898  0.0515  0.3662  0.0802
 3040DDP     C218238   0.923  23.289   5.027  0.1711 -0.2572 -0.1337
 3040DDP     C318239  29.652  24.088   5.027  0.2011  0.0914 -0.1635
 3040DDP     C418240   0.202  24.195   4.495  0.2019  0.3756  0.0339
 3041DDP     C118241   7.985  15.444  28.680  0.1931 -0.1909 -0.1458
 3041DDP     P118242   7.903  15.125  28.562  0.0055  0.2842  0.1044
 3041DDP     P218243   8.202  15.699  28.523 -0.2077  0.0135 -0.0913
 3041DDP     C218244   8.654  15.573  28.602  0.1101  0.0980  0.0826
 3041DDP     C318245   7.664  14.871  28.301 -0.1999  0.2570 -0.0134
 3041DDP     C418246   7.790  15.551  29.170  0.3208 -0.0249 -0.1835
 3042DDP     C118247  22.160  13.161  11.735 -0.2249  0.0057 -0.0774
 3042DDP     P118248  22.297  13.180  12.130 -0.3476 -0.0261 -0.0508
 3042DDP     P218249  22.459  13.152  11.486  0.0502 -0.2502  0.0679
 3042DDP     C218250  22.414  13.079  11.131  0.1659 -0.3020  0.0525
 3042DDP     C318251  22.748  13.081  12.387  0.2298  0.2762  0.1476
 3042DDP     C418252  21.669  13.202  11.606  0.0271 -0.0982  0.1827
 3043DDP     C118253  15.575  13.035  21.798  0.1398  0.1529  0.2322
 3043DDP     P118254  15.506  12.854  21.366  0.2708  0.0315 -0.0584
 3043DDP     P218255  15.630  12.703  22.106  0.0189  0.1595 -0.1774
 3043DDP     C218256  15.807  12.449  22.458 -0.2926 -0.1820 -0.2720
 3043DDP     C318257  15.169  12.826  21.049  0.0465  0.2020  0.0385
 3043DDP     C418258  15.551  13.480  21.888 -0.2912 -0.0149  0.0119
 3044DDP     C118259  12.300  20.422  18.279 -0.2784  0.0342 -0.0927
 3044DDP     P118260  12.257  20.890  18.244  0.1664 -0.0933 -0.4163
 3044DDP     P218261  12.669  20.216  18.355 -0.3059  0.2892 -0.0574
 3044DDP     C218262  12.825  20.058  18.766  0.3267 -0.1946  0.3468
 3044DDP     C318263  11.923  21.087  18.199 -0.1021  0.1654 -0.1989
 3044DDP     C418264  11.916  20.251  18.390  0.0042  0.1642 -0.1669
 3045DDP     C118265  19.006  22.013  22.936  0.0570 -0.1557  0.1633
 3045DDP     P118266  18.823  21.721  23.190 -0.0490 -0.1286  0.0992
 3045DDP     P218267  18.765  22.081  22.515  0.1468  0.0933 -0.1787
 3045DDP     C218268  18.478  21.717  22.616  0.2380 -0.0948 -0.2820
 3045DDP     C318269  18.690  21.599  23.567 -0.0922 -0.0537 -0.2740
 3045DDP     C418270  19.501  22.101  22.854 -0.0486  0.0763 -0.1111
 3046DDP     C118271  15.128  16.154  17.353 -0.1913  0.3209  0.4537
 3046DDP     P118272  15.085  16.405  17.664 -0.0059  0.0836 -0.0213
 3046DDP     P218273  15.065  15.706  17.246  0.0495 -0.0531  0.1562
 3046DDP     C218274  15.328  15.331  17.150  0.0880  0.1502 -0.0480
 3046DDP     C318275  14.884  16.330  18.077  0.0683 -0.1000 -0.0551
 3046DDP     C418276  15.325  16.477  17.027 -0.2263 -0.0070  0.0537
 3047DDP     C118277  20.607  27.375  13.820 -0.0435  0.0339 -0.3953
 3047DDP     P118278  20.208  27.572  14.006  0.0132  0.2250  0.0039
 3047DDP     P218279  21.044  27.633  13.789  0.0530  0.2898 -0.3598
 3047DDP     C218280  21.470  27.850  13.817  0.0630  0.2123  0.3428
 3047DDP     C318281  19.900  27.852  13.840  0.0949 -0.0056  0.0003
 3047DDP     C418282  20.549  26.953  13.696 -0.2686 -0.0595  0.0990
 3048DDP     C118283  26.963  19.436  16.770 -0.0725  0.0771 -0.0545
 3048DDP     P118284  26.903  19.801  16.700  0.0856 -0.0477 -0.1154
 3048DDP     P218285  27.370  19.389  16.592 -0.1992 -0.2799 -0.3847
 3048DDP     C218286  27.540  18.890  16.625  0.0788  0.2032 -0.0185
 3048DDP     C318287  26.912  20.241  16.826  0.0710  0.0178 -0.0991
 3048DDP     C418288  26.735  19.099  17.088  0.2551 -0.0533  0.1219
 3049DDP     C118289  14.396  10.454  23.345  0.3756  0.3545 -0.2884
 3049DDP     P118290  14.251  10.742  23.053  0.0543  0.0152 -0.0149
 3049DDP     P218291  14.151  10.543  23.782 -0.2639 -0.0931 -0.0311
 3049DDP     C218292  13.787  10.605  24.064  0.1067  0.1341  0.2225
 3049DDP     C318293  14.320  10.665  22.711 -0.1273 -0.0871 -0.1514
 3049DDP     C418294  14.661  10.081  23.229 -0.0487  0.0953  0.0307
 3050DDP     C118295   3.890  10.466  26.211 -0.2960 -0.2545 -0.1165
 3050DDP     P118296   3.989  10.964  26.211  0.0764 -0.0820 -0.5975
 3050DDP     P218297   3.436  10.251  26.154 -0.3740  0.0119 -0.0742
 3050DDP     C218298   3.335   9.795  26.045 -0.4698  0.0133 -0.3457
 3050DDP     C318299   3.823  11.331  26.141 -0.2780  0.1179  0.0704
 3050DDP     C418300   4.092  10.218  26.480  0.0707  0.0372  0.0720
 3051DDP     C118301  14.844  13.828   5.450  0.1837 -0.1672  0.1628
 3051DDP     P118302  14.629  13.791   5.053 -0.0281 -0.1079 -0.3128
 3051DDP     P218303  15.229  13.905   5.345 -0.0257  0.1589 -0.0858
 3051DDP     C218304  15.630  13.774   5.446 -0.0457  0.4077  0.2069
 3051DDP     C318305  14.226  13.643   4.956 -0.3553  0.0416  0.0108
 3051DDP     C418306  14.638  13.852   5.847  0.0803  0.0173  0.4078
 3052DDP     C118307   6.924   0.094   1.229 -0.3011  0.0170  0.0571
 3052DDP     P118308   7.063   0.087   0.753  0.0358  0.1278 -0.0639
 3052DDP     P218309   7.110   0.314   1.619 -0.0394  0.2729 -0.1432
 3052DDP     C218310   7.285   0.202   2.035  0.5011 -0.0688  0.0954
 3052DDP     C318311   7.489   0.186   0.671 -0.1335 -0.1096  0.2271
 3052DDP     C418312   6.699  30.150   1.231  0.1280 -0.0626 -0.0167
 3053DDP     C118313   4.692  15.916   9.417  0.2599  0.1077  0.1270
 3053DDP     P118314   4.711  15.506   9.700  0.0553 -0.1022 -0.2681
 3053DDP     P218315   4.939  16.278   9.603  0.1672  0.0390 -0.1968
 3053DDP     C218316   5.228  16.340   9.888 -0.3061  0.1171  0.1934
 3053DDP     C318317   4.581  15.038   9.446  0.0726 -0.3233 -0.0878
 3053DDP     C418318   4.369  15.873   9.147  0.1743 -0.0978  0.2739
 3054DDP     C118319   5.753   0.451  15.824  0.1558  0.2441  0.1707
 3054DDP     P118320   5.355   0.304  15.640  0.2736 -0.1206  0.0758
 3054DDP     P218321   5.789   0.825  16.089 -0.2129  0.0535 -0.2057
 3054DDP     C218322   5.543   1.182  16.227  0.0820 -0.1957 -0.1792
 3054DDP     C318323   5.278  30.108  15.713 -0.1161  0.2497 -0.0050
 3054DDP     C418324   6.060   0.330  15.578 -0.1452  0.0760  0.0471
 3055DDP     C118325  25.016  18.943   8.341  0.1313  0.2089  0.0655
 3055DDP     P118326  24.979  18.711   7.894  0.2208  0.0153  0.0910
 3055DDP     P218327  25.028  18.668   8.669 -0.2575  0.0837  0.0214
 3055DDP     C218328  24.935  18.506   9.144 -0.1013  0.0566 -0.1332
 3055DDP     C318329  24.964  18.851   7.535 -0.1559 -0.2606 -0.0420
 3055DDP     C418330  25.275  19.445   8.364  0.6786  0.1876  0.0346
 3056DDP     C118331  14.841  21.081  12.034 -0.1822 -0.2093  0.1412
 3056DDP     P118332  14.848  21.489  12.192 -0.0833 -0.0374  0.2910
 3056DDP     P218333  14.485  20.980  12.305 -0.0090 -0.0277 -0.1970
 3056DDP     C218334  14.256  21.187  12.556  0.0779 -0.3169  0.0099
 3056DDP     C318335  14.979  21.951  12.335  0.0114  0.2905 -0.1233
 3056DDP     C418336  14.963  20.825  11.693  0.0493 -0.2080  0.2016
 3057DDP     C118337  14.006  28.962  25.522  0.0158 -0.0719 -0.0100
 3057DDP     P118338  13.835  28.495  25.612 -0.0134  0.0403 -0.2056
 3057DDP     P218339  14.083  29.212  25.730  0.0373  0.3114  0.3343
 3057DDP     C218340  14.206  29.703  25.889  0.0750 -0.3527  0.0946
 3057DDP     C318341  13.551  28.318  25.799 -0.0337  0.2105  0.1482
 3057DDP     C418342  14.311  29.015  25.154 -0.1642 -0.1702  0.3338
 3058DDP     C118343  11.935  23.381   1.781  0.0329  0.1442  0.0696
 3058DDP     P118344  11.851  22.976   1.903  0.0152  0.2291  0.1343
 3058DDP     P218345  12.183  23.705   2.114 -0.1772 -0.2096  0.1495
 3058DDP     C218346  12.400  24.008   2.235 -0.2569 -0.0813 -0.1981
 3058DDP     C318347  11.412  22.728   1.851 -0.1741  0.0524 -0.3062
 3058DDP     C418348  11.671  23.583   1.389 -0.0692 -0.3513  0.1042
 3059DDP     C118349  19.830  26.091  23.336 -0.2121 -0.2711 -0.1201
 3059DDP     P118350  19.695  26.044  22.922  0.0340  0.1458  0.4310
 3059DDP     P218351  19.654  26.222  23.716  0.0333  0.0762  0.2608
 3059DDP     C218352  19.263  26.344  23.786 -0.0114  0.3556  0.1584
 3059DDP     C318353  19.643  26.034  22.465 -0.1053 -0.0799 -0.0855
 3059DDP     C418354  20.063  25.724  23.561 -0.2708  0.1638 -0.2621
 3060DDP     C118355   8.844  15.912  23.355 -0.1972 -0.0906  0.1173
 3060DDP     P118356   9.106  16.224  23.235 -0.1632  0.4752  0.2915
 3060DDP     P218357   8.930  15.482  23.299  0.4183 -0.0885  0.0531
 3060DDP     C218358   9.014  15.200  22.995 -0.1615  0.1251  0.1225
 3060DDP     C318359   9.332  16.558  23.188  0.2559 -0.2683 -0.3026
 3060DDP     C418360   8.500  16.140  23.384  0.1347 -0.1444  0.0043
 3061DDP     C118361   7.280   3.538  13.055  0.1779 -0.1353  0.1320
 3061DDP     P118362   7.167   3.519  13.536  0.3008 -0.1019 -0.0151
 3061DDP     P218363   7.286   3.297  12.710  0.0323  0.0402 -0.2069
 3061DDP     C218364   7.187   3.050  12.282  0.4436  0.1376 -0.1219
 3061DDP     C318365   6.944   3.366  13.985  0.1678 -0.0504  0.1582
 3061DDP     C418366   7.611   3.894  12.972  0.1323  0.0616  0.0197
 3062DDP     C118367  14.357  22.307   2.161  0.0151  0.2291  0.1923
 3062DDP     P118368  14.018  22.044   2.257 -0.0676 -0.0752 -0.0719
 3062DDP     P218369  14.773  22.290   2.330 -0.0124 -0.0795  0.1895
 3062DDP     C218370  15.054  22.418   2.646 -0.1370  0.0020 -0.2343
 3062DDP     C318371  14.018  21.763   2.041 -0.2528 -0.2524  0.0552
 3062DDP     C418372  14.473  22.401   1.714  0.1088  0.0179  0.1252
 3063DDP     C118373   8.533  14.489  28.712  0.1940 -0.0557 -0.0076
 3063DDP     P118374   8.362  14.253  28.930  0.0239 -0.0308 -0.3111
 3063DDP     P218375   8.871  14.340  28.516 -0.2018 -0.0013 -0.0450
 3063DDP     C218376   9.237  14.062  28.258 -0.3790 -0.0687 -0.1680
 3063DDP     C318377   8.201  13.811  28.810 -0.1660 -0.1537 -0.1208
 3063DDP     C418378   8.344  14.864  28.575 -0.0366  0.2458 -0.0613
 3064DDP     C118379  26.766  17.505  27.578 -0.1141  0.0447 -0.1106
 3064DDP     P118380  27.129  17.481  27.802 -0.1945  0.1010  0.1275
 3064DDP     P218381  26.854  17.731  27.206 -0.2626  0.0185  0.0759
 3064DDP     C218382  26.858  18.024  26.871 -0.0097  0.1195  0.2159
 3064DDP     C318383  27.559  17.501  27.701 -0.1036 -0.0736 -0.0274
 3064DDP     C418384  26.438  17.106  27.640 -0.2775  0.0799  0.4240
 3065DDP     C118385   8.398  17.780   6.239  0.0578 -0.0878  0.1732
 3065DDP     P118386   7.995  17.860   6.004  0.0135 -0.0884  0.0996
 3065DDP     P218387   8.870  17.750   6.160 -0.0094  0.3624 -0.2022
 3065DDP     C218388   9.177  17.863   6.541  0.2332  0.0954  0.1145
 3065DDP     C318389   7.913  18.072   5.606  0.3780  0.0272  0.0109
 3065DDP     C418390   8.239  17.911   6.628  0.0180  0.0388 -0.0304
 3066DDP     C118391  25.686   2.056  12.112 -0.3328 -0.0341  0.0943
 3066DDP     P118392  25.383   2.413  12.059  0.0269  0.0021  0.0076
 3066DDP     P218393  25.907   2.141  12.438  0.0933  0.0948  0.0924
 3066DDP     C218394  26.066   1.859  12.692  0.1389  0.0545 -0.1374
 3066DDP     C318395  25.235   2.811  12.255 -0.0898 -0.1490  0.0293
 3066DDP     C418396  25.763   1.841  11.771 -0.2703  0.1253  0.0671
 3067DDP     C118397   7.920  18.895   9.084 -0.0063  0.1030  0.1156
 3067DDP     P118398   8.323  18.960   9.139 -0.0925  0.0785 -0.1265
 3067DDP     P218399   7.690  18.594   8.783 -0.0390  0.1143  0.2533
 3067DDP     C218400   7.745  18.231   8.550  0.1383 -0.1063 -0.0449
 3067DDP     C318401   8.612  18.786   8.741  0.3562  0.0351 -0.2287
 3067DDP     C418402   7.726  19.081   9.419  0.0802  0.0663  0.1340
 3068DDP     C118403  10.690  20.991  28.424 -0.0793 -0.1116 -0.3126
 3068DDP     P118404  11.113  20.687  28.528  0.2712  0.0746  0.3268
 3068DDP     P218405  10.557  20.984  28.027  0.0052 -0.0326  0.0121
 3068DDP     C218406  10.371  20.816  27.721  0.2578 -0.0241  0.2797
 3068DDP     C318407  11.350  20.290  28.561  0.0137 -0.0030  0.1206
 3068DDP     C418408  10.521  21.337  28.593 -0.3175 -0.0600  0.1174
 3069DDP     C118409  20.911  14.892   5.490 -0.1280  0.0282  0.1186
 3069DDP     P118410  20.858  14.448   5.360  0.0378  0.1783  0.2895
 3069DDP     P218411  20.687  15.218   5.635 -0.0992  0.1204 -0.1849
 3069DDP     C218412  20.469  15.462   5.934  0.1151 -0.0342 -0.0102
 3069DDP     C318413  21.061  14.044   5.315 -0.0478  0.0452  0.2308
 3069DDP     C418414  21.318  14.945   5.477  0.1043 -0.1932  0.2695
 3070DDP     C118415   7.933   8.614   9.981 -0.0989  0.1549 -0.0324
 3070DDP     P118416   7.696   8.471  10.340  0.0734  0.2219  0.0111
 3070DDP     P218417   7.862   8.421   9.645  0.0848  0.1604 -0.4732
 3070DDP     C218418   7.788   8.070   9.485 -0.0787 -0.2065  0.0745
 3070DDP     C318419   7.618   8.728  10.720  0.1763  0.2060  0.0967
 3070DDP     C418420   8.221   8.981  10.051 -0.2431 -0.0099 -0.1912
 3071DDP     C118421   5.629   7.889  21.865 -0.1234 -0.3236  0.0494
 3071DDP     P118422   6.076   7.852  21.693  0.5759 -0.0877 -0.0013
 3071DDP     P218423   5.584   8.112  22.362  0.2372 -0.1342  0.0911
 3071DDP     C218424   5.368   8.063  22.722 -0.0808 -0.0109  0.1276
 3071DDP     C318425   6.437   7.914  21.671  0.4551 -0.0671  0.1305
 3071DDP     C418426   5.244   7.674  21.598  0.1182 -0.0600  0.0336
 3072DDP     C118427  22.657   3.642  28.650  0.2063  0.0737  0.2551
 3072DDP     P118428  22.527   4.038  28.532  0.1413  0.0100  0.1986
 3072DDP     P218429  22.961   3.582  28.979  0.3224  0.1381 -0.0365
 3072DDP     C218430  23.416   3.616  28.899 -0.0462 -0.2325  0.0875
 3072DDP     C318431  22.250   4.325  28.592  0.0530 -0.2908  0.2244
 3072DDP     C418432  22.376   3.386  28.536 -0.1287  0.0858  0.1865
 3073DDP     C118433   2.287  14.672  13.621  0.1721 -0.0155 -0.1272
 3073DDP     P118434   2.355  14.306  13.381  0.1215  0.3397  0.4537
 3073DDP     P218435   2.159  14.447  14.020  0.0927 -0.0106  0.2458
 3073DDP     C218436   2.029  14.663  14.367  0.2980  0.0852  0.1482
 3073DDP     C318437   2.418  14.098  13.035 -0.1750 -0.1822  0.0559
 3073DDP     C418438   2.255  15.046  13.460  0.0774 -0.1975  0.0627
 3074DDP     C118439   9.993  22.739  26.604  0.0030 -0.0802  0.1550
 3074DDP     P118440   9.883  23.101  26.308 -0.1685 -0.2019  0.0314
 3074DDP     P218441  10.433  22.417  26.538  0.1137 -0.3935  0.0737
 3074DDP     C218442  10.895  22.604  26.466  0.2642 -0.0015 -0.0535
 3074DDP     C318443   9.746  23.019  25.961  0.0913 -0.4802  0.4089
 3074DDP     C418444   9.687  22.681  26.921 -0.0469  0.0811  0.0612
 3075DDP     C118445  12.359  22.204   1.708  0.3384 -0.2643  0.3900
 3075DDP     P118446  12.779  21.990   1.801 -0.3242 -0.0782 -0.0937
 3075DDP     P218447  12.052  22.045   1.493 -0.0704  0.3219  0.0791
 3075DDP     C218448  11.860  22.043   1.045  0.3124  0.1422  0.0080
 3075DDP     C318449  12.994  21.762   2.088 -0.0662  0.0924  0.1676
 3075DDP     C418450  12.192  22.564   1.952 -0.0618 -0.0376 -0.1148
 3076DDP     C118451  29.152   2.577   7.582  0.1467  0.2107  0.0181
 3076DDP     P118452  29.482   2.525   7.374 -0.0255 -0.0041 -0.0655
 3076DDP     P218453  29.241   2.238   7.870  0.1721 -0.1479 -0.1024
 3076DDP     C218454  29.495   2.109   8.212  0.1464 -0.2539  0.1147
 3076DDP     C318455  29.502   2.621   6.968 -0.0996  0.1929  0.2779
 3076DDP     C418456  28.932   3.023   7.646 -0.1833  0.2089  0.0330
 3077DDP     C118457  24.819  30.118  22.643 -0.1940  0.2880 -0.2352
 3077DDP     P118458  24.483   0.062  22.589 -0.0296 -0.2684 -0.0006
 3077DDP     P218459  24.815  29.749  22.769 -0.0735 -0.0870 -0.0480
 3077DDP     C218460  25.221  29.435  22.826  0.3172  0.1204  0.0022
 3077DDP     C318461  23.940   0.165  22.556 -0.0007 -0.0222 -0.1656
 3077DDP     C418462  25.230   0.014  22.719  0.1126  0.0104 -0.3409
 3078DDP     C118463  16.768   4.640  28.024  0.0147  0.1234  0.1569
 3078DDP     P118464  16.661   4.456  27.656 -0.2916  0.3087 -0.2960
 3078DDP     P218465  17.179   4.822  28.043 -0.2074  0.0133  0.0543
 3078DDP     C218466  17.464   5.027  27.887 -0.1069  0.0510 -0.0080
 3078DDP     C318467  16.614   4.244  27.316 -0.0853  0.1653  0.0317
 3078DDP     C418468  16.497   4.731  28.454  0.5450  0.1657  0.3709
 3079DDP     C118469  26.944   8.177   8.493  0.1505  0.0630  0.1388
 3079DDP     P118470  27.273   8.252   8.725  0.1092  0.1714 -0.2465
 3079DDP     P218471  26.664   8.093   8.832  0.0779 -0.0774 -0.1005
 3079DDP     C218472  26.254   8.086   9.087 -0.1203 -0.1636 -0.3072
 3079DDP     C318473  27.661   8.090   8.824  0.2169 -0.0266 -0.2927
 3079DDP     C418474  26.910   8.271   8.081  0.1209 -0.0783  0.2766
 3080DDP     C118475   1.891   7.748   8.218  0.2499 -0.1001  0.1266
 3080DDP     P118476   2.183   7.778   8.442 -0.0773  0.0924 -0.3137
 3080DDP     P218477   1.646   8.081   8.435 -0.1263  0.1785  0.1278
 3080DDP     C218478   1.390   8.380   8.688 -0.1826  0.2934  0.0164
 3080DDP     C318479   2.494   8.100   8.418  0.2892  0.1532 -0.0185
 3080DDP     C418480   1.966   7.672   7.792 -0.0399 -0.1468 -0.1137
 3081DDP     C118481   1.712  26.350   9.648 -0.0987 -0.1033  0.0224
 3081DDP     P118482   1.636  26.419  10.123  0.0601 -0.2278  0.0253
 3081DDP     P218483   1.562  26.052   9.369 -0.0525 -0.1759 -0.0607
 3081DDP     C218484   1.108  25.794   9.301 -0.1029 -0.0444 -0.2494
 3081DDP     C318485   1.291  26.453  10.266  0.0759 -0.0894  0.0211
 3081DDP     C418486   1.951  26.719   9.575  0.2089 -0.0593 -0.1582
 3082DDP     C118487  25.182  10.483   6.478 -0.2776 -0.1915 -0.0348
 3082DDP     P118488  25.320  10.259   6.131  0.0041  0.1337  0.2594
 3082DDP     P218489  25.421  10.840   6.456  0.2289 -0.2416  0.0775
 3082DDP     C218490  25.611  11.042   6.792 -0.1483 -0.0316 -0.0191
 3082DDP     C318491  25.008  10.061   5.800  0.3357 -0.0403 -0.0135
 3082DDP     C418492  24.895  10.425   6.842  0.1721 -0.0354 -0.1115
 3083DDP     C118493   9.047  15.787  11.932  0.0645 -0.2489 -0.0419
 3083DDP     P118494   9.035  16.186  11.917  0.0957 -0.1050  0.4198
 3083DDP     P218495   9.464  15.548  12.019  0.0166  0.0483 -0.1372
 3083DDP     C218496   9.512  15.375  11.700 -0.0970 -0.2028  0.3221
 3083DDP     C318497   8.925  16.643  11.888 -0.0904  0.1955 -0.0367
 3083DDP     C418498   8.669  15.651  12.078 -0.1212 -0.0698  0.1419
 3084DDP     C118499  20.451  10.019  23.242 -0.2630  0.2165  0.1377
 3084DDP     P118500  20.498   9.746  22.829  0.1818 -0.2903  0.1496
 3084DDP     P218501  20.798  10.248  23.195  0.1536 -0.0110 -0.0072
 3084DDP     C218502  21.206  10.118  23.195  0.0530 -0.1446 -0.0677
 3084DDP     C318503  20.853   9.528  22.643  0.0612 -0.0381  0.0546
 3084DDP     C418504  20.063  10.001  23.620 -0.2367 -0.0340 -0.0663
 3085DDP     C118505  17.596  10.760   3.973 -0.2101  0.0377  0.2449
 3085DDP     P118506  17.794  10.607   4.329 -0.0838  0.1415 -0.2254
 3085DDP     P218507  17.414  10.551   3.561  0.1738 -0.2530 -0.0614
 3085DDP     C218508  17.388  10.743   3.133  0.0771  0.1430  0.1969
 3085DDP     C318509  17.981  10.720   4.767  0.1429 -0.0793 -0.0122
 3085DDP     C418510  17.230  10.876   4.197  0.3457 -0.3075 -0.1859
 3086DDP     C118511  28.962   3.991   4.917 -0.1091  0.0014  0.1355
 3086DDP     P118512  28.562   3.958   5.058  0.1170  0.1211  0.0478
 3086DDP     P218513  29.300   3.456   4.815  0.2546 -0.0724  0.2053
 3086DDP     C218514  29.083   3.024   4.967  0.2406 -0.0342  0.3701
 3086DDP     C318515  28.408   3.602   5.285 -0.0912  0.0284  0.2137
 3086DDP     C418516  29.167   4.285   4.622 -0.0547 -0.0953  0.3144
 3087DDP     C118517   4.601  22.685  29.017  0.0328 -0.0275 -0.0791
 3087DDP     P118518   4.373  22.443  29.250 -0.0213  0.0349 -0.1548
 3087DDP     P218519   4.374  22.880  28.723  0.4082  0.3359 -0.2726
 3087DDP     C218520   3.992  23.131  28.763 -0.1563  0.1934 -0.2653
 3087DDP     C318521   4.242  22.019  29.276  0.0699  0.0302 -0.1721
 3087DDP     C418522   5.065  22.703  29.053  0.4863  0.1774 -0.2002
 3088DDP     C118523  25.876  22.194  27.742  0.0009 -0.0298  0.1687
 3088DDP     P118524  25.676  21.937  27.432  0.1261 -0.0522  0.3573
 3088DDP     P218525  26.198  22.306  27.939  0.1280 -0.0272  0.1825
 3088DDP     C218526  26.613  22.497  27.822  0.0959 -0.2543 -0.0680
 3088DDP     C318527  25.379  21.986  27.026 -0.1736 -0.0456 -0.1963
 3088DDP     C418528  25.767  22.079  28.107  0.0052  0.1418 -0.1610
 3089DDP     C118529  17.460  10.050   5.920 -0.0346 -0.3547 -0.4087
 3089DDP     P118530  17.502   9.822   6.266  0.1074 -0.2902 -0.2088
 3089DDP     P218531  17.600  10.520   5.941  0.2291  0.3528  0.0529
 3089DDP     C218532  17.884  10.882   6.242 -0.0263 -0.2748 -0.0635
 3089DDP     C318533  17.481   9.642   6.708  0.1234 -0.0231 -0.0037
 3089DDP     C418534  17.562   9.733   5.564  0.2404  0.2396 -0.0064
 3090DDP     C118535  18.940  29.359   8.535  0.0114 -0.2340  0.1201
 3090DDP     P118536  19.302  29.564   8.347  0.2527 -0.0277 -0.1683
 3090DDP     P218537  18.918  29.041   8.416  0.2739 -0.0704 -0.0583
 3090DDP     C218538  19.131  28.678   8.191  0.0826  0.1724 -0.2893
 3090DDP     C318539  19.623  29.426   8.087 -0.2535  0.0152 -0.2013
 3090DDP     C418540  18.568  29.543   8.577 -0.3832  0.0467  0.0189
 3091DDP     C118541  21.603  13.021  13.216 -0.0490  0.0281  0.0744
 3091DDP     P118542  21.371  13.378  13.238 -0.1013  0.0377  0.2734
 3091DDP     P218543  21.873  12.931  12.768 -0.2724  0.2277 -0.0114
 3091DDP     C218544  22.262  12.987  12.562  0.2016  0.0253 -0.1284
 3091DDP     C318545  21.057  13.433  12.902  0.0185 -0.0470  0.1829
 3091DDP     C418546  21.597  12.603  13.594  0.1838 -0.0091 -0.0274
 3092DDP     C118547  18.431  25.925  15.986 -0.0200 -0.0500 -0.0200
 3092DDP     P118548  18.560  26.318  15.959 -0.3168  0.1728  0.0590
 3092DDP     P218549  17.962  25.779  15.992  0.3250 -0.0683 -0.2850
 3092DDP     C218550  17.587  25.543  16.047  0.0069 -0.1034  0.1470
 3092DDP     C318551  18.534  26.776  15.737 -0.0709 -0.0347  0.4131
 3092DDP     C418552  18.727  25.632  15.965  0.2246  0.1057 -0.2166
 3093DDP     C118553   6.011  27.372  21.578  0.1143 -0.0216 -0.1122
 3093DDP     P118554   6.217  27.080  21.287  0.2385 -0.0564 -0.0714
 3093DDP     P218555   6.281  27.243  21.874 -0.2084 -0.0981  0.1010
 3093DDP     C218556   6.656  27.006  22.128  0.1425  0.0617  0.0320
 3093DDP     C318557   6.622  27.004  21.135 -0.0834  0.2470 -0.4324
 3093DDP     C418558   5.599  27.487  21.727 -0.2845 -0.2049  0.0940
 3094DDP     C118559  13.104  16.567  19.817 -0.3801 -0.1508 -0.2671
 3094DDP     P118560  12.747  16.760  19.733  0.2099 -0.1567  0.1683
 3094DDP     P218561  13.314  16.495  20.252  0.0702  0.0973  0.0390
 3094DDP     C218562  13.391  16.358  20.649 -0.0601 -0.0052 -0.1147
 3094DDP     C318563  12.266  16.873  19.750 -0.0292 -0.1788 -0.2746
 3094DDP     C418564  13.199  16.335  19.463  0.0730 -0.1757 -0.0322
 3095DDP     C118565   1.098   0.295   0.969  0.2539  0.0815 -0.0036
 3095DDP     P118566   1.528   0.428   0.888 -0.1660 -0.3710 -0.1201
 3095DDP     P218567   0.725   0.640   0.900 -0.1548  0.1565  0.0532
 3095DDP     C218568   0.488   0.989   1.069  0.0731  0.2266 -0.1051
 3095DDP     C318569   1.772   0.098   0.620 -0.0209 -0.1354  0.0804
 3095DDP     C418570   0.958  30.149   1.071 -0.2883  0.0391 -0.0279
 3096DDP     C118571  27.830  12.327   3.505  0.3442  0.2713 -0.2090
 3096DDP     P118572  27.663  12.018   3.837  0.1428 -0.0603  0.2230
 3096DDP     P218573  28.006  12.155   3.126  0.2679 -0.0984 -0.1216
 3096DDP     C218574  28.305  12.462   2.873 -0.1186  0.0078 -0.2673
 3096DDP     C318575  27.681  12.226   4.239 -0.1366 -0.2638 -0.2565
 3096DDP     C418576  28.092  12.776   3.484 -0.1737  0.0906 -0.0442
 3097DDP     C118577  21.075  15.640  16.456 -0.1514 -0.0526  0.0433
 3097DDP     P118578  21.430  15.792  16.724  0.2819  0.0784  0.0081
 3097DDP     P218579  20.956  15.903  16.079  0.1910  0.0876 -0.1893
 3097DDP     C218580  21.201  16.093  15.635  0.0598  0.0958 -0.1915
 3097DDP     C318581  21.618  16.117  16.914 -0.0567  0.1917 -0.2771
 3097DDP     C418582  20.921  15.284  16.678 -0.1236 -0.1144  0.2564
 3098DDP     C118583  18.320   0.651  19.815 -0.2603 -0.0188 -0.2287
 3098DDP     P118584  18.076   0.367  20.156 -0.0647 -0.0599  0.0142
 3098DDP     P218585  18.354   1.141  19.752 -0.1518 -0.1325 -0.0818
 3098DDP     C218586  18.566   1.384  19.580  0.1593 -0.1084  0.1102
 3098DDP     C318587  17.636   0.305  20.368 -0.1247 -0.0226 -0.0419
 3098DDP     C418588  18.263   0.568  19.420  0.0973  0.0068 -0.0930
 3099DDP     C118589  21.597   5.524   8.416  0.0768 -0.1046 -0.0593
 3099DDP     P118590  21.390   5.738   8.691 -0.0303  0.3987  0.0795
 3099DDP     P218591  21.474   5.644   7.989  0.0556  0.0860 -0.0336
 3099DDP     C218592  21.133   5.750   7.899 -0.2782  0.0174 -0.4218
 3099DDP     C318593  21.478   6.004   9.118 -0.0818  0.1141  0.2273
 3099DDP     C418594  21.692   5.178   8.555 -0.0646  0.3330  0.2249
 3100DDP     C118595   1.044   5.187  22.877 -0.1081 -0.2840 -0.0720
 3100DDP     P118596   1.260   4.955  23.129 -0.2965 -0.2543  0.0161
 3100DDP     P218597   0.656   5.347  22.796  0.0065 -0.1260 -0.1554
 3100DDP     C218598   0.246   5.605  22.853 -0.0754  0.1960  0.0121
 3100DDP     C318599   1.583   4.673  23.017  0.1483  0.0883 -0.1828
 3100DDP     C418600   1.308   5.453  22.665  0.2530 -0.3350  0.3236
 3101DDP     C118601   7.238  14.732  23.848  0.0237  0.1577 -0.2823
 3101DDP     P118602   7.442  14.461  23.960  0.0290  0.2241  0.1328
 3101DDP     P218603   7.308  15.059  23.490  0.1733 -0.3211 -0.1994
 3101DDP     C218604   7.423  15.488  23.394 -0.0381  0.2436 -0.0887
 3101DDP     C318605   7.418  14.070  24.028  0.1389 -0.0093 -0.1565
 3101DDP     C418606   7.055  14.979  24.101 -0.0032 -0.0896 -0.0626
 3102DDP     C118607  11.491   2.427   4.470 -0.0571  0.0461 -0.1671
 3102DDP     P118608  11.558   2.860   4.426  0.0166  0.0763 -0.3946
 3102DDP     P218609  11.835   2.096   4.491  0.2652  0.4966 -0.1781
 3102DDP     C218610  12.011   1.716   4.401 -0.1459  0.1291  0.1429
 3102DDP     C318611  11.737   3.234   4.349 -0.0369 -0.0105  0.0675
 3102DDP     C418612  11.249   2.033   4.206  0.0053  0.1730 -0.2296
 3103DDP     C118613  30.082  23.543  22.685  0.0143  0.0216 -0.4812
 3103DDP     P118614  30.207  23.258  22.826  0.0397  0.0086  0.1834
 3103DDP     P218615   0.014  23.864  22.647 -0.3219 -0.0621 -0.2304
 3103DDP     C218616   0.058  24.323  22.499 -0.2082 -0.1962  0.1174
 3103DDP     C318617  30.131  22.787  22.988  0.0357 -0.1239  0.0573
 3103DDP     C418618  29.675  23.601  22.594 -0.3198  0.0091  0.0896
 3104DDP     C118619   7.468   5.317  10.715  0.0060 -0.1451 -0.0887
 3104DDP     P118620   7.220   4.974  10.511  0.1667 -0.3624  0.3905
 3104DDP     P218621   7.074   5.451  10.832  0.0007 -0.0448 -0.0181
 3104DDP     C218622   6.814   5.693  10.919  0.0820 -0.0402  0.1498
 3104DDP     C318623   7.289   4.648  10.268  0.4469  0.1690 -0.1289
 3104DDP     C418624   7.999   5.196  10.720  0.0835 -0.1528 -0.0678
 3105DDP     C118625  27.091   2.693   0.669  0.0888 -0.0136 -0.0741
 3105DDP     P118626  26.740   2.645   0.815 -0.1044  0.0760  0.0129
 3105DDP     P218627  27.409   2.742   0.952 -0.0505  0.0777 -0.0740
 3105DDP     C218628  27.837   2.801   0.947 -0.0805 -0.2072 -0.1221
 3105DDP     C318629  26.497   2.255   0.892  0.2742 -0.0845  0.1274
 3105DDP     C418630  27.061   2.636   0.248 -0.2047  0.0155  0.1746
 3106DDP     C118631  26.152  12.700   3.558 -0.1445  0.4567  0.2842
 3106DDP     P118632  26.639  12.660   3.639 -0.2445 -0.1966 -0.0104
 3106DDP     P218633  25.837  12.739   3.164 -0.1061  0.1314  0.1806
 3106DDP     C218634  25.878  12.742   2.577  0.2786  0.1868 -0.3600
 3106DDP     C318635  27.061  12.397   3.575  0.3295 -0.5175 -0.2432
 3106DDP     C418636  25.929  12.830   3.918 -0.1852 -0.0684  0.1821
 3107DDP     C118637   8.744  20.501  27.047  0.1859 -0.1661  0.0307
 3107DDP     P118638   8.613  20.631  27.518 -0.0783 -0.2524  0.3545
 3107DDP     P218639   8.715  20.132  26.876 -0.2119 -0.0937  0.0900
 3107DDP     C218640   8.474  20.032  26.541 -0.0316 -0.0455 -0.1108
 3107DDP     C318641   8.316  20.673  27.873  0.0752 -0.0649 -0.0846
 3107DDP     C418642   8.848  20.914  26.789 -0.1064 -0.1621  0.0842
 3108DDP     C118643  13.028  15.370  11.764 -0.1752  0.2823 -0.1428
 3108DDP     P118644  13.344  15.207  11.523 -0.2053 -0.2910  0.1604
 3108DDP     P218645  12.716  15.165  11.887  0.4407 -0.2645  0.4584
 3108DDP     C218646  12.487  15.010  12.163 -0.0857 -0.0689 -0.1953
 3108DDP     C318647  13.650  15.174  11.184 -0.1995 -0.2384  0.0981
 3108DDP     C418648  13.003  15.810  11.670 -0.0295 -0.2722 -0.0885
 3109DDP     C118649  20.895  19.587  22.967  0.1976  0.1747  0.1558
 3109DDP     P118650  20.734  19.622  22.598  0.2642  0.2054  0.1430
 3109DDP     P218651  20.560  19.710  23.218  0.2017  0.2380  0.0577
 3109DDP     C218652  20.275  20.073  23.376  0.0756 -0.0564 -0.0412
 3109DDP     C318653  20.469  19.557  22.275  0.3809 -0.2439 -0.3362
 3109DDP     C418654  21.333  19.522  23.098  0.0691 -0.3555  0.0163
 3110DDP     C118655  11.758   3.998  23.888 -0.0615 -0.0068  0.1282
 3110DDP     P118656  12.068   3.656  23.941  0.1570  0.1961  0.0529
 3110DDP     P218657  11.406   4.078  24.129 -0.0950 -0.2349  0.1910
 3110DDP     C218658  11.139   4.234  24.424  0.1483 -0.1062 -0.0050
 3110DDP     C318659  12.206   3.231  24.020 -0.2181 -0.5176 -0.5331
 3110DDP     C418660  11.739   4.128  23.337 -0.1323 -0.2206  0.2373
 3111DDP     C118661   8.780  15.068  25.195 -0.0636 -0.0401  0.3086
 3111DDP     P118662   9.072  14.823  24.978  0.0237  0.0103  0.1130
 3111DDP     P218663   8.922  15.468  25.364  0.0690  0.2102 -0.0647
 3111DDP     C218664   9.020  15.848  25.725  0.0159 -0.1921  0.0200
 3111DDP     C318665   9.493  14.858  24.814 -0.1461  0.1287 -0.0972
 3111DDP     C418666   8.394  14.988  25.277 -0.2139  0.0783 -0.0251
 3112DDP     C118667  23.123   2.775  20.278  0.2059 -0.1748  0.4051
 3112DDP     P118668  23.565   2.771  20.262  0.0515 -0.1192 -0.2564
 3112DDP     P218669  23.023   2.362  20.267  0.2178  0.2334  0.0203
 3112DDP     C218670  22.791   2.019  20.068  0.0140  0.3027  0.1397
 3112DDP     C318671  23.957   2.988  20.275 -0.2407 -0.1699  0.3845
 3112DDP     C418672  22.883   2.975  20.049  0.0938  0.1360  0.1321
 3113DDP     C118673  25.747  19.651  20.906 -0.2772 -0.1088  0.1219
 3113DDP     P118674  25.413  19.886  21.084  0.1006  0.0186  0.0387
 3113DDP     P218675  25.987  19.834  20.670 -0.1785 -0.0911  0.1489
 3113DDP     C218676  26.384  19.956  20.883 -0.0875 -0.1347  0.0555
 3113DDP     C318677  25.022  20.006  20.961  0.1602  0.1483 -0.0644
 3113DDP     C418678  25.848  19.208  21.047  0.0759  0.1869  0.3719
 3114DDP     C118679  11.778   6.758  25.241 -0.1126  0.0777  0.2042
 3114DDP     P118680  11.788   6.687  24.792 -0.1573 -0.1583 -0.1353
 3114DDP     P218681  11.488   6.520  25.440  0.2967 -0.2206  0.2187
 3114DDP     C218682  11.108   6.342  25.332  0.2028  0.0446 -0.0522
 3114DDP     C318683  11.931   6.846  24.428 -0.0388  0.0547  0.0295
 3114DDP     C418684  11.896   7.245  25.273 -0.1599 -0.0571  0.0129
 3115DDP     C118685  27.298  10.235  20.463  0.2699  0.0020 -0.3074
 3115DDP     P118686  27.687  10.248  20.406 -0.4064 -0.0085  0.2956
 3115DDP     P218687  27.108   9.823  20.530  0.0831 -0.5020 -0.0488
 3115DDP     C218688  27.133   9.462  20.389  0.1644  0.4608 -0.3103
 3115DDP     C318689  27.997  10.390  20.510  0.0018 -0.2869  0.2122
 3115DDP     C418690  27.064  10.639  20.541  0.3584  0.1429 -0.0376
 3116DDP     C118691   5.913   3.624  12.120  0.0969 -0.1992 -0.1283
 3116DDP     P118692   5.614   4.013  12.012  0.0557 -0.2376 -0.0493
 3116DDP     P218693   6.038   3.834  12.506  0.0848  0.1226  0.1441
 3116DDP     C218694   6.110   4.230  12.755 -0.0692  0.0561 -0.2627
 3116DDP     C318695   5.543   4.173  11.683 -0.1767  0.1276  0.1206
 3116DDP     C418696   6.122   3.161  12.038 -0.2000 -0.0681  0.1199
 3117DDP     C118697  29.938  28.524  19.566 -0.2425  0.4169  0.2766
 3117DDP     P118698  30.124  28.947  19.668 -0.0590  0.2469  0.2004
 3117DDP     P218699  29.813  28.563  19.081  0.2081  0.0392 -0.0193
 3117DDP     C218700  30.033  28.704  18.831 -0.1733 -0.1193  0.1349
 3117DDP     C318701  30.108  29.338  19.732  0.1753  0.0553  0.2926
 3117DDP     C418702  29.871  28.252  19.910  0.0837 -0.0265  0.1368
 3118DDP     C118703   9.450  19.063   7.889 -0.1723 -0.2383 -0.2017
 3118DDP     P118704   9.787  19.356   7.939 -0.2667  0.1571  0.0300
 3118DDP     P218705   9.006  19.152   7.781 -0.0454 -0.0677 -0.2643
 3118DDP     C218706   8.598  19.231   7.867  0.0086  0.0523  0.1956
 3118DDP     C318707  10.133  19.735   7.935  0.1445 -0.0890  0.4626
 3118DDP     C418708   9.535  18.683   7.947 -0.3392  0.1610 -0.0089
 3119DDP     C118709   6.728   5.759  16.427  0.1207 -0.0673  0.0655
 3119DDP     P118710   6.465   5.833  16.772 -0.3946 -0.0690 -0.1066
 3119DDP     P218711   6.549   5.814  16.090 -0.1204  0.0456  0.3665
 3119DDP     C218712   6.726   6.144  15.836  0.0871 -0.2455 -0.0817
 3119DDP     C318713   6.482   5.610  17.175 -0.1541  0.4122  0.2423
 3119DDP     C418714   7.214   5.756  16.522 -0.0203  0.2190 -0.2299
 3120DDP     C118715   0.655  29.635  12.222 -0.1302 -0.3448 -0.0418
 3120DDP     P118716   0.955  29.656  12.586  0.0418 -0.1229 -0.1659
 3120DDP     P218717   0.395  29.919  12.088  0.1049  0.0023 -0.2150
 3120DDP     C218718   0.107  30.106  12.412  0.2807 -0.1472 -0.1178
 3120DDP     C318719   1.473  29.690  12.564  0.4949  0.0724  0.0528
 3120DDP     C418720   0.713  29.221  12.095 -0.2171 -0.1371  0.0769
 3121DDP     C118721  27.087   7.823   7.578 -0.0804  0.2133  0.3127
 3121DDP     P118722  26.738   7.519   7.488 -0.0599  0.1924  0.2467
 3121DDP     P218723  27.202   8.004   7.275 -0.2153 -0.0662 -0.1166
 3121DDP     C218724  27.355   7.883   6.964  0.4066  0.1821 -0.2879
 3121DDP     C318725  26.813   7.098   7.690 -0.1330 -0.0188 -0.1789
 3121DDP     C418726  27.277   7.893   7.928 -0.4267 -0.0437 -0.0108
 3122DDP     C118727  27.191  29.012  24.219  0.2345  0.1955 -0.1425
 3122DDP     P118728  26.876  28.992  24.386 -0.2024  0.1110  0.0429
 3122DDP     P218729  27.296  29.158  23.824 -0.1238  0.2260  0.0221
 3122DDP     C218730  27.362  29.133  23.333 -0.1127  0.0685 -0.0660
 3122DDP     C318731  26.715  28.906  24.735  0.5300 -0.2476  0.0120
 3122DDP     C418732  27.377  29.145  24.617  0.0826  0.0815  0.2366
 3123DDP     C118733  16.803   0.675  10.677  0.2545 -0.2539  0.2515
 3123DDP     P118734  16.627   0.500  10.886  0.2134  0.0624  0.0548
 3123DDP     P218735  17.196   0.725  10.629 -0.2908  0.2387  0.2743
 3123DDP     C218736  17.594   0.615  10.550 -0.2510  0.0752 -0.1637
 3123DDP     C318737  16.235   0.692  11.127  0.1146 -0.2901  0.0501
 3123DDP     C418738  16.561   0.943  10.422  0.1783 -0.4012 -0.3699
 3124DDP     C118739  25.294   7.476   1.937  0.1291  0.1895 -0.0801
 3124DDP     P118740  25.717   7.374   1.659 -0.0982 -0.1960  0.1514
 3124DDP     P218741  25.077   7.440   2.356 -0.0784 -0.3315  0.3484
 3124DDP     C218742  24.915   7.156   2.590 -0.0475  0.1650  0.0637
 3124DDP     C318743  26.032   7.769   1.446  0.0929 -0.2110  0.0443
 3124DDP     C418744  25.028   7.541   1.557 -0.1307 -0.0531  0.2527
 3125DDP     C118745   3.999  18.000   7.945 -0.1522 -0.1055  0.1915
 3125DDP     P118746   4.518  17.906   7.846 -0.3687 -0.2532  0.2808
 3125DDP     P218747   3.877  18.357   8.233  0.1319 -0.1620  0.1645
 3125DDP     C218748   3.963  18.795   8.423 -0.1404 -0.2092  0.3387
 3125DDP     C318749   4.790  17.524   7.775 -0.0181  0.1967 -0.1671
 3125DDP     C418750   3.744  17.865   7.698 -0.0560 -0.3616  0.3724
 3126DDP     C118751  26.549  17.392  20.192  0.1249 -0.2792 -0.1150
 3126DDP     P118752  26.729  16.955  20.224 -0.1533  0.1194 -0.0200
 3126DDP     P218753  26.330  17.466  19.920  0.1035 -0.1575  0.3199
 3126DDP     C218754  25.893  17.529  19.748  0.2759 -0.4827 -0.1098
 3126DDP     C318755  26.738  16.533  20.350  0.0587 -0.4273 -0.0349
 3126DDP     C418756  26.401  17.582  20.600  0.0738  0.0170 -0.1188
 3127DDP     C118757  11.046  30.026   3.937 -0.1830 -0.0443  0.1069
 3127DDP     P118758  10.964  29.654   4.174 -0.2291 -0.0191 -0.1149
 3127DDP     P218759  10.942  30.159   3.595  0.0981 -0.1942  0.0844
 3127DDP     C218760  10.778  29.906   3.233  0.2241 -0.0350  0.3924
 3127DDP     C318761  10.686  29.308   4.253 -0.1006  0.1023  0.0021
 3127DDP     C418762  11.310  -0.024   4.209  0.0078 -0.1155 -0.1802
 3128DDP     C118763  23.655  21.351  19.373 -0.1967 -0.0638  0.3220
 3128DDP     P118764  24.041  21.233  19.361  0.0704  0.1154 -0.1559
 3128DDP     P218765  23.681  21.821  19.241  0.2585  0.0099 -0.3716
 3128DDP     C218766  23.738  22.144  18.906  0.2315 -0.1765 -0.1041
 3128DDP     C318767  24.437  21.120  19.386 -0.0086 -0.0637 -0.0029
 3128DDP     C418768  23.209  21.171  19.304 -0.0016  0.0732  0.0172
 3129DDP     C118769  24.234  10.925  17.147  0.1681 -0.1014  0.1522
 3129DDP     P118770  24.241  10.641  16.795  0.0081  0.1795 -0.3068
 3129DDP     P218771  23.969  11.267  16.917 -0.1642 -0.0946 -0.0481
 3129DDP     C218772  23.766  11.422  16.517  0.0109  0.0529 -0.0172
 3129DDP     C318773  24.104  10.168  16.768 -0.0404  0.0391 -0.1312
 3129DDP     C418774  24.276  10.700  17.570  0.1997  0.0458  0.2932
 3130DDP     C118775  27.231  25.967  22.191  0.0190 -0.1037 -0.0402
 3130DDP     P118776  27.400  25.622  21.973  0.2363 -0.1306  0.0014
 3130DDP     P218777  27.538  26.107  21.899 -0.0841 -0.3196 -0.0181
 3130DDP     C218778  28.019  26.032  21.839  0.1004  0.0289 -0.1071
 3130DDP     C318779  27.504  25.251  21.628 -0.0487 -0.2068  0.0532
 3130DDP     C418780  26.839  25.991  22.385  0.2130  0.1533 -0.0299
 3131DDP     C118781  13.036   3.800  18.494 -0.3372 -0.2242  0.0892
 3131DDP     P118782  12.603   3.604  18.594  0.3370 -0.2754 -0.2157
 3131DDP     P218783  13.178   4.143  18.486 -0.3470 -0.1720  0.3086
 3131DDP     C218784  13.533   4.376  18.560 -0.0854  0.0510  0.0984
 3131DDP     C318785  12.129   3.717  18.605 -0.0511 -0.3100 -0.4192
 3131DDP     C418786  13.342   3.562  18.714  0.1480 -0.0327 -0.1143
 3132DDP     C118787  26.601  11.123  24.206  0.1431  0.4124  0.1585
 3132DDP     P118788  26.646  11.046  23.702  0.3746  0.0152 -0.0771
 3132DDP     P218789  26.617  11.524  24.373  0.5354 -0.0762  0.3668
 3132DDP     C218790  26.797  11.868  24.439 -0.1091 -0.3821 -0.0069
 3132DDP     C318791  26.551  10.714  23.335  0.1441  0.3242  0.3285
 3132DDP     C418792  26.648  10.903  24.573 -0.2258  0.2238  0.2900
 3133DDP     C118793   8.667  26.310  25.051 -0.0928 -0.1152 -0.1472
 3133DDP     P118794   8.970  26.566  25.058 -0.2779 -0.0106 -0.2227
 3133DDP     P218795   8.897  25.976  24.953  0.2088 -0.0808 -0.2985
 3133DDP     C218796   8.948  25.585  24.943 -0.3839 -0.3904 -0.0790
 3133DDP     C318797   9.325  26.739  24.868 -0.2980  0.2671 -0.1808
 3133DDP     C418798   8.180  26.441  25.112  0.1100 -0.0154 -0.0541
 3134DDP     C118799   3.711  28.801  12.141 -0.0643  0.1559 -0.1862
 3134DDP     P118800   3.581  28.486  12.429  0.0483  0.0651  0.0746
 3134DDP     P218801   4.096  28.924  12.240  0.2039  0.0499 -0.1072
 3134DDP     C218802   4.528  28.966  12.237 -0.1248 -0.3237  0.1420
 3134DDP     C318803   3.397  28.317  12.719  0.2125 -0.2778 -0.0788
 3134DDP     C418804   3.694  28.992  11.734  0.3075 -0.0960  0.0996
 3135DDP     C118805  15.918  21.414  27.825  0.1557  0.0161  0.1313
 3135DDP     P118806  15.885  21.078  28.120  0.4168 -0.3258  0.0669
 3135DDP     P218807  15.383  21.520  27.985  0.2019  0.1410 -0.1135
 3135DDP     C218808  15.190  21.669  28.370  0.0403  0.2174  0.0364
 3135DDP     C318809  16.138  20.814  28.206  0.0736  0.2436 -0.2945
 3135DDP     C418810  16.327  21.617  27.840  0.0063  0.1188 -0.0043
 3136DDP     C118811   6.184  23.883   6.221 -0.4793  0.2318 -0.2636
 3136DDP     P118812   6.520  23.724   6.601  0.1961  0.0375  0.1060
 3136DDP     P218813   5.844  23.630   5.955  0.1989  0.3331 -0.3453
 3136DDP     C218814   5.675  23.581   5.571  0.1423 -0.0670  0.1208
 3136DDP     C318815   6.437  23.462   6.945 -0.4638 -0.2015 -0.2522
 3136DDP     C418816   6.231  24.304   6.001  0.0423  0.0382 -0.2565
 3137DDP     C118817  14.162   1.790  13.105  0.1884 -0.0348 -0.2440
 3137DDP     P118818  14.133   1.717  13.530 -0.1572  0.0379 -0.0810
 3137DDP     P218819  13.749   1.688  12.882  0.0295 -0.0711 -0.0135
 3137DDP     C218820  13.484   1.490  12.732 -0.1834  0.3026  0.0219
 3137DDP     C318821  13.937   1.733  13.894  0.1666 -0.0660  0.0499
 3137DDP     C418822  14.368   2.077  12.962 -0.2629  0.0017  0.0673
 3138DDP     C118823   2.549   3.953   1.134  0.0300 -0.0704  0.1212
 3138DDP     P118824   2.203   3.937   0.873 -0.2834  0.1505 -0.0901
 3138DDP     P218825   2.795   4.381   1.117 -0.4206 -0.0057 -0.1490
 3138DDP     C218826   2.822   4.740   1.380 -0.3070  0.1104  0.3842
 3138DDP     C318827   2.124   3.906   0.416  0.1633  0.3623 -0.1539
 3138DDP     C418828   2.570   3.472   1.208 -0.3337  0.0072  0.2837
 3139DDP     C118829   2.664  10.494  29.709  0.1428 -0.0106 -0.0927
 3139DDP     P118830   2.307  10.736  29.642 -0.2332 -0.0329  0.2628
 3139DDP     P218831   2.883  10.261  29.998 -0.1710 -0.0887 -0.4382
 3139DDP     C218832   2.777  10.065   0.097 -0.1779 -0.2408  0.1751
 3139DDP     C318833   1.905  10.763  29.835  0.2899 -0.3713  0.1120
 3139DDP     C418834   2.951  10.651  29.417  0.0129  0.3239 -0.3158
 3140DDP     C118835   7.661  25.853   0.984 -0.1853 -0.3740  0.2201
 3140DDP     P118836   7.892  25.900   0.693  0.2687 -0.1064  0.0481
 3140DDP     P218837   7.579  25.469   1.055  0.1614  0.0839  0.0032
 3140DDP     C218838   7.563  25.062   1.096  0.1892  0.1686 -0.0820
 3140DDP     C318839   8.276  26.019   0.535 -0.0768 -0.0728  0.3197
 3140DDP     C418840   7.453  26.168   1.341 -0.0688  0.2718  0.2142
 3141DDP     C118841  24.327  16.718   9.291 -0.1449 -0.1916 -0.0654
 3141DDP     P118842  24.444  16.768   8.879 -0.0101  0.2097 -0.2413
 3141DDP     P218843  24.103  16.356   9.503 -0.2704 -0.1744  0.0668
 3141DDP     C218844  23.872  15.978   9.338 -0.2617 -0.0920  0.0207
 3141DDP     C318845  24.531  17.015   8.515 -0.0876 -0.0863  0.0836
 3141DDP     C418846  24.467  17.005   9.592  0.0793 -0.1921  0.0193
 3142DDP     C118847  30.082   0.756  21.588 -0.2102  0.2658  0.1244
 3142DDP     P118848   0.094   0.636  21.220 -0.1332  0.0619 -0.0364
 3142DDP     P218849  30.199   0.839  21.990  0.1461 -0.1431  0.0110
 3142DDP     C218850   0.073   1.037  22.361 -0.0920 -0.0157  0.2651
 3142DDP     C318851   0.287   0.379  20.978  0.0385 -0.0496  0.1756
 3142DDP     C418852  29.697   1.003  21.536 -0.0652  0.2761 -0.0473
 3143DDP     C118853  17.075  19.289   7.600  0.0589 -0.0674  0.0065
 3143DDP     P118854  16.958  18.846   7.664  0.5041  0.0198  0.0500
 3143DDP     P218855  17.003  19.439   7.225  0.1434  0.2406  0.0569
 3143DDP     C218856  16.782  19.417   6.877 -0.0550  0.1186  0.2876
 3143DDP     C318857  16.767  18.475   7.711 -0.1534 -0.1216  0.2694
 3143DDP     C418858  16.985  19.587   7.963 -0.1592  0.0084 -0.0832
 3144DDP     C118859  26.317   2.623   2.682 -0.1105  0.1758  0.1348
 3144DDP     P118860  26.595   2.491   2.967  0.1928 -0.0378 -0.0819
 3144DDP     P218861  26.142   2.994   2.773  0.1618  0.1901  0.2775
 3144DDP     C218862  25.758   3.183   2.654 -0.2509 -0.0778 -0.1400
 3144DDP     C318863  26.825   2.570   3.404 -0.1766  0.0687  0.0738
 3144DDP     C418864  26.282   2.461   2.280 -0.2197 -0.0179  0.2267
 3145DDP     C118865   2.108  16.202   7.629  0.3451 -0.0806  0.2985
 3145DDP     P118866   2.440  16.249   7.410  0.3025 -0.3425 -0.2114
 3145DDP     P218867   1.946  15.791   7.762 -0.1351  0.0763 -0.1198
 3145DDP     C218868   2.038  15.401   7.804  0.2805 -0.1355 -0.1391
 3145DDP     C318869   2.558  16.698   7.225 -0.1338 -0.0350 -0.1246
 3145DDP     C418870   1.966  16.682   7.559  0.0102  0.1361 -0.0022
 3146DDP     C118871  16.535   7.711   4.328  0.1016 -0.0470 -0.1688
 3146DDP     P118872  16.895   7.472   4.577  0.1849 -0.2370 -0.1494
 3146DDP     P218873  16.703   8.034   3.954 -0.0719 -0.0372  0.2634
 3146DDP     C218874  16.492   8.368   3.608  0.0061 -0.0308  0.0093
 3146DDP     C318875  17.156   7.262   4.857 -0.1582 -0.1357  0.1152
 3146DDP     C418876  16.099   7.574   4.342 -0.0684  0.1588 -0.0309
 3147DDP     C118877  23.262   3.225   9.939  0.1505  0.0540 -0.3087
 3147DDP     P118878  23.318   3.677   9.739 -0.1388 -0.0946 -0.0916
 3147DDP     P218879  23.334   2.790   9.744  0.1184  0.2793 -0.0797
 3147DDP     C218880  23.225   2.461   9.455  0.3305  0.0593 -0.0872
 3147DDP     C318881  23.483   4.115   9.652  0.4033 -0.1877  0.4504
 3147DDP     C418882  23.010   3.211  10.220  0.1872 -0.0283  0.0969
 3148DDP     C118883  25.520   4.193   1.698 -0.1907 -0.1073 -0.2096
 3148DDP     P118884  25.066   4.158   1.463 -0.0684 -0.0419  0.0945
 3148DDP     P218885  25.485   4.287   2.103 -0.0159  0.1939  0.0589
 3148DDP     C218886  25.453   4.545   2.516  0.3110 -0.1406 -0.1885
 3148DDP     C318887  24.616   4.286   1.332  0.2604  0.3312  0.1183
 3148DDP     C418888  25.757   4.156   1.317 -0.1939 -0.2412  0.0533
 3149DDP     C118889  12.160  19.676  11.642 -0.2734  0.0735  0.0328
 3149DDP     P118890  12.168  20.103  11.804 -0.0144 -0.0452  0.0592
 3149DDP     P218891  11.992  19.451  11.903  0.1282 -0.1313  0.1208
 3149DDP     C218892  11.964  19.153  12.236  0.1802 -0.0009  0.4088
 3149DDP     C318893  12.227  20.541  11.971 -0.0106  0.0224 -0.2396
 3149DDP     C418894  12.448  19.376  11.426 -0.0071  0.0634  0.1253
 3150DDP     C118895   2.083  19.488  12.288 -0.2373  0.0380  0.0550
 3150DDP     P118896   2.355  19.378  11.917  0.1207 -0.0593  0.2566
 3150DDP     P218897   1.974  19.866  12.399  0.2546 -0.2452 -0.1042
 3150DDP     C218898   2.129  20.180  12.780 -0.2089  0.1178  0.1660
 3150DDP     C318899   2.608  19.549  11.752 -0.0986  0.2450  0.0156
 3150DDP     C418900   1.983  19.054  12.465 -0.0729 -0.0604 -0.4098
 3151DDP     C118901   4.625  16.257  26.108 -0.0039  0.4180  0.0854
 3151DDP     P118902   4.712  16.736  26.011 -0.1208 -0.1631 -0.2588
 3151DDP     P218903   4.368  16.234  26.439 -0.1020  0.1084 -0.2281
 3151DDP     C218904   4.370  16.307  26.894 -0.0384 -0.1989 -0.1511
 3151DDP     C318905   4.993  16.843  25.680 -0.2290  0.0094 -0.2094
 3151DDP     C418906   4.795  15.890  26.010 -0.4276  0.2096 -0.2932
 3152DDP     C118907  22.466  28.901  23.361 -0.0965 -0.0283 -0.1451
 3152DDP     P118908  22.776  29.021  23.079 -0.2313  0.3265  0.0657
 3152DDP     P218909  22.343  28.445  23.316 -0.4103 -0.0499 -0.3430
 3152DDP     C218910  21.904  28.217  23.120  0.0372 -0.2516  0.4613
 3152DDP     C318911  22.736  29.308  22.768 -0.3713  0.0203 -0.1295
 3152DDP     C418912  22.411  29.185  23.757 -0.1832 -0.0305  0.0807
 3153DDP     C118913   9.332  27.296  12.250 -0.0296 -0.0667 -0.1357
 3153DDP     P118914   9.373  26.987  11.972  0.2447  0.1169 -0.0918
 3153DDP     P218915   9.501  27.720  12.284  0.1920  0.0768 -0.2637
 3153DDP     C218916   9.640  28.042  12.565  0.3386  0.3478 -0.0845
 3153DDP     C318917   9.413  26.963  11.481 -0.3729 -0.2315 -0.1667
 3153DDP     C418918   9.246  27.133  12.730 -0.2695  0.1931 -0.0401
 3154DDP     C118919   5.106  10.984  11.323 -0.1829  0.1855 -0.2524
 3154DDP     P118920   4.780  11.198  11.108  0.1157 -0.1188 -0.1820
 3154DDP     P218921   5.258  11.443  11.404 -0.1420 -0.0254 -0.1238
 3154DDP     C218922   5.323  11.748  11.634 -0.1602 -0.1616 -0.1098
 3154DDP     C318923   4.299  11.123  11.033 -0.0377 -0.0880  0.2279
 3154DDP     C418924   5.312  10.612  11.350 -0.0053 -0.2060  0.0756
 3155DDP     C118925   6.973  26.565  21.774  0.0682 -0.0959 -0.4740
 3155DDP     P118926   6.795  26.517  22.134 -0.1162  0.2572 -0.1008
 3155DDP     P218927   7.009  26.263  21.407 -0.1321  0.1399 -0.3495
 3155DDP     C218928   7.315  25.936  21.364 -0.0198  0.1314  0.0051
 3155DDP     C318929   6.627  26.301  22.500  0.0087  0.0729 -0.1074
 3155DDP     C418930   6.963  26.900  21.562 -0.2357 -0.0987 -0.2783
 3156DDP     C118931   1.668  20.167   6.805 -0.2622  0.0965  0.1167
 3156DDP     P118932   1.809  20.581   6.646 -0.2163 -0.0688  0.1897
 3156DDP     P218933   1.659  19.801   6.627  0.0312  0.3714  0.3788
 3156DDP     C218934   2.043  19.686   6.730  0.0624  0.0281 -0.0711
 3156DDP     C318935   2.083  20.590   6.275  0.0498  0.0914  0.3170
 3156DDP     C418936   1.502  20.261   7.145  0.2879 -0.0872  0.0668
 3157DDP     C118937   7.271   7.661  23.537  0.0001 -0.1016  0.0917
 3157DDP     P118938   7.529   7.977  23.480 -0.1004 -0.2595 -0.0078
 3157DDP     P218939   7.459   7.396  23.656 -0.0224 -0.0985  0.1338
 3157DDP     C218940   7.827   7.186  23.795  0.1499  0.1179 -0.0300
 3157DDP     C318941   8.024   8.279  23.518  0.1967  0.1959 -0.0033
 3157DDP     C418942   6.871   7.612  23.319  0.1223  0.1106 -0.1259
 3158DDP     C118943   4.771   4.415   5.796  0.0173  0.1962  0.0526
 3158DDP     P118944   5.127   4.588   6.067 -0.1020 -0.2266 -0.1237
 3158DDP     P218945   4.332   4.437   5.781 -0.0657  0.3858 -0.2604
 3158DDP     C218946   3.809   4.324   5.627  0.1082 -0.3220  0.3030
 3158DDP     C318947   5.298   4.534   6.478 -0.1806  0.2835  0.1076
 3158DDP     C418948   4.968   4.157   5.423  0.0603  0.1576  0.2314
 3159DDP     C118949  30.146   5.281  24.384 -0.0840 -0.0314 -0.2109
 3159DDP     P118950  29.815   5.104  24.524 -0.1747  0.1215 -0.0190
 3159DDP     P218951  30.176   5.706  24.717  0.0610 -0.1901 -0.1794
 3159DDP     C218952   0.075   5.992  24.948 -0.0716 -0.3827 -0.0449
 3159DDP     C318953  29.607   5.086  24.829  0.1098 -0.2942  0.1788
 3159DDP     C418954   0.047   5.257  23.997 -0.5170 -0.2359  0.0524
 3160DDP     C118955  24.349  18.169  24.539  0.0810  0.0268 -0.2573
 3160DDP     P118956  24.092  18.296  24.816 -0.0563 -0.3095  0.1995
 3160DDP     P218957  24.315  18.185  24.101  0.0811  0.0178 -0.2768
 3160DDP     C218958  24.512  18.225  23.853 -0.2144 -0.1890 -0.1254
 3160DDP     C318959  23.846  18.747  24.929 -0.0778  0.2829  0.0084
 3160DDP     C418960  24.632  17.997  24.578 -0.3594  0.0688  0.0866
 3161DDP     C118961  19.079  25.305  13.002 -0.2312 -0.1913  0.0710
 3161DDP     P118962  19.403  24.980  12.861 -0.1876 -0.0075 -0.1392
 3161DDP     P218963  18.825  25.605  12.781 -0.2761  0.2513  0.1632
 3161DDP     C218964  18.567  25.564  12.489  0.0636  0.1469 -0.1333
 3161DDP     C318965  19.488  24.972  12.488  0.0052 -0.1434 -0.1864
 3161DDP     C418966  18.887  25.322  13.449  0.2060 -0.0098 -0.1322
 3162DDP     C118967   0.631  16.649  22.326 -0.1690  0.0425 -0.1454
 3162DDP     P118968   0.512  16.946  22.045  0.1638 -0.3198 -0.2509
 3162DDP     P218969   1.049  16.719  22.226 -0.0270  0.2476  0.2054
 3162DDP     C218970   1.464  16.510  22.148  0.0816 -0.0118 -0.1260
 3162DDP     C318971   0.432  17.440  22.062  0.0757  0.0587 -0.0196
 3162DDP     C418972   0.456  16.382  22.488  0.0238  0.4789  0.4516
 3163DDP     C118973  22.973   8.358  18.509  0.0569 -0.0951 -0.1666
 3163DDP     P118974  23.298   8.344  18.324  0.1318 -0.2242  0.0194
 3163DDP     P218975  22.697   8.330  18.865 -0.0256 -0.0324 -0.1364
 3163DDP     C218976  22.434   8.072  19.117  0.0120 -0.0252  0.0776
 3163DDP     C318977  23.412   7.957  18.028 -0.1202  0.1644 -0.0935
 3163DDP     C418978  22.527   8.441  18.311 -0.0406  0.3970 -0.1342
 3164DDP     C118979   4.837   2.534  21.334  0.2234  0.1770 -0.0957
 3164DDP     P118980   5.155   2.850  21.408  0.3192  0.3813 -0.1207
 3164DDP     P218981   4.828   2.383  21.674  0.0341 -0.0339  0.0299
 3164DDP     C218982   4.984   2.257  22.014  0.3699  0.0916 -0.1933
 3164DDP     C318983   5.522   2.989  21.544 -0.3664 -0.2258  0.0435
 3164DDP     C418984   4.684   2.409  21.009  0.0380  0.1637 -0.3159
 3165DDP     C118985  26.921  26.779   5.875 -0.0343 -0.1054 -0.1077
 3165DDP     P118986  26.773  26.714   6.333  0.0352 -0.0666 -0.0248
 3165DDP     P218987  26.613  27.050   5.625 -0.4555  0.0812  0.0100
 3165DDP     C218988  26.354  27.224   5.386 -0.0406  0.0883 -0.2939
 3165DDP     C318989  27.010  26.524   6.707 -0.1865 -0.0096  0.0780
 3165DDP     C418990  27.112  26.418   5.694  0.0597  0.0049 -0.1080
 3166DDP     C118991  30.179  30.077  17.748 -0.2553 -0.1457 -0.2070
 3166DDP     P118992   0.081   0.125  17.830 -0.0565 -0.2057 -0.0488
 3166DDP     P218993   0.209  29.880  17.577 -0.1287 -0.1083  0.0828
 3166DDP     C218994   0.609  29.799  17.693 -0.0292 -0.1003 -0.0141
 3166DDP     C318995   0.265   0.331  18.112 -0.0012  0.1021  0.1105
 3166DDP     C418996  29.719  29.964  17.937  0.0440 -0.2049  0.1079
 3167DDP     C118997  10.884  28.217  13.398 -0.1505 -0.0070 -0.0933
 3167DDP     P118998  11.261  28.004  13.186  0.0428 -0.0063 -0.2642
 3167DDP     P218999  10.503  28.022  13.177 -0.0157  0.2535 -0.0191
 3167DDP     C219000  10.728  27.866  12.873 -0.0037  0.1496  0.1375
 3167DDP     C319001  11.641  28.118  13.052 -0.1326  0.1523 -0.0015
 3167DDP     C419002  11.112  28.448  13.753 -0.0381 -0.0012  0.0153
 3168DDP     C119003  13.657  23.555   4.903  0.0041  0.0471 -0.2716
 3168DDP     P119004  13.827  23.754   5.205 -0.1122 -0.0480 -0.1478
 3168DDP     P219005  13.871  23.205   4.765 -0.1181 -0.0684 -0.0374
 3168DDP     C219006  13.981  23.111   4.349  0.0991  0.0179  0.0979
 3168DDP     C319007  14.099  23.627   5.630 -0.2719 -0.3758  0.0489
 3168DDP     C419008  13.227  23.567   4.958 -0.2491  0.1954 -0.1463
 3169DDP     C119009  17.169   5.965  17.244  0.3541 -0.0317 -0.1301
 3169DDP     P119010  17.516   5.958  17.261 -0.3229 -0.1924 -0.0139
 3169DDP     P219011  16.943   5.569  17.094 -0.1773 -0.6033 -0.2169
 3169DDP     C219012  17.027   5.092  17.176  0.2362  0.0494 -0.1072
 3169DDP     C319013  17.631   5.564  17.013 -0.3719  0.4366 -0.0152
 3169DDP     C419014  16.996   6.280  17.522 -0.0343 -0.1796  0.0134
 3170DDP     C119015  11.323   9.912  19.490  0.1155  0.0300  0.0234
 3170DDP     P119016  10.927   9.776  19.484  0.1489  0.0835 -0.0405
 3170DDP     P219017  11.534  10.234  19.826  0.0106 -0.0374 -0.2873
 3170DDP     C219018  11.820  10.194  20.099 -0.0758  0.3317 -0.1180
 3170DDP     C319019  10.624   9.978  19.662 -0.1592 -0.1003  0.3782
 3170DDP     C419020  11.583   9.463  19.374  0.5215 -0.0416 -0.0577
 3171DDP     C119021   9.475   9.437   6.529 -0.0630  0.1975  0.2241
 3171DDP     P119022   9.275   9.529   6.181 -0.3003  0.1398  0.0466
 3171DDP     P219023   9.933   9.492   6.640 -0.3002  0.1471 -0.1422
 3171DDP     C219024  10.256   9.550   6.926  0.2145 -0.0643  0.0366
 3171DDP     C319025   9.408   9.628   5.745 -0.1381 -0.1938  0.0028
 3171DDP     C419026   9.171   9.226   6.724 -0.0212 -0.0590  0.0646
 3172DDP     C119027   1.004  28.736  13.164  0.0955 -0.0156 -0.1253
 3172DDP     P119028   0.629  28.767  12.847  0.2850 -0.1067  0.0153
 3172DDP     P219029   1.279  29.062  13.051 -0.1758  0.0782 -0.0690
 3172DDP     C219030   1.581  29.232  12.731  0.1101 -0.0533 -0.1170
 3172DDP     C319031   0.533  28.911  12.427 -0.4123  0.0825  0.1311
 3172DDP     C419032   1.112  28.430  13.346  0.2428 -0.0944 -0.2277
 3173DDP     C119033  12.813  20.946   4.871 -0.4221  0.1702 -0.0816
 3173DDP     P119034  12.530  21.052   5.231 -0.0173 -0.2360  0.1074
 3173DDP     P219035  12.986  20.492   4.838 -0.0566  0.0579  0.0361
 3173DDP     C219036  13.465  20.398   4.725 -0.0892  0.0883 -0.0289
 3173DDP     C319037  12.233  21.022   5.545 -0.0008 -0.1804  0.0992
 3173DDP     C419038  12.984  21.269   4.548 -0.2997 -0.0002 -0.1622
 3174DDP     C119039   0.068   7.588   3.070  0.1107 -0.0866 -0.2701
 3174DDP     P119040  30.001   7.446   3.075  0.0915  0.2266  0.4555
 3174DDP     P219041   0.073   8.025   3.221  0.1386 -0.1076  0.1485
 3174DDP     C219042  -0.018   8.276   3.550 -0.1780 -0.1660 -0.0615
 3174DDP     C319043  29.698   7.104   3.210  0.1023 -0.1289 -0.1825
 3174DDP     C419044   0.488   7.361   3.054  0.0156  0.1152  0.1221
 3175DDP     C119045  22.633  22.397  14.617  0.2643 -0.0334  0.2166
 3175DDP     P119046  22.231  22.640  14.564  0.0684 -0.1606  0.1989
 3175DDP     P219047  22.695  21.988  14.679 -0.5198  0.0008 -0.1672
 3175DDP     C219048  22.734  21.518  14.931  0.3013 -0.1395  0.0223
 3175DDP     C319049  21.915  22.731  14.229 -0.1966  0.0254 -0.1792
 3175DDP     C419050  22.951  22.817  14.804  0.6851  0.2962 -0.1210
 3176DDP     C119051  16.636   4.112  28.066  0.0368 -0.6814  0.1880
 3176DDP     P119052  16.699   3.650  28.199  0.0688  0.0112  0.1760
 3176DDP     P219053  17.118   4.316  28.173 -0.3056 -0.1184 -0.1435
 3176DDP     C219054  17.524   4.411  28.081  0.0246  0.2213 -0.0216
 3176DDP     C319055  16.431   3.339  28.088  0.0310 -0.0196  0.1993
 3176DDP     C419056  16.298   4.158  27.778 -0.0242  0.1534  0.1667
 3177DDP     C119057  12.508   4.477  22.430 -0.1257 -0.1334  0.0294
 3177DDP     P119058  12.211   4.659  22.564 -0.0763 -0.1373  0.1913
 3177DDP     P219059  12.338   4.278  22.118 -0.2350  0.0663  0.4721
 3177DDP     C219060  12.005   3.954  22.020  0.2371 -0.3263 -0.0783
 3177DDP     C319061  11.801   4.631  22.651 -0.1398 -0.0692  0.2972
 3177DDP     C419062  12.873   4.484  22.676  0.1137 -0.0645  0.0757
 3178DDP     C119063  25.723  27.236   0.557  0.0446  0.1512 -0.1767
 3178DDP     P119064  25.208  27.227   0.719  0.2402 -0.2099  0.1828
 3178DDP     P219065  26.016  26.858   0.315 -0.3413  0.0467  0.0525
 3178DDP     C219066  26.386  26.903   0.061  0.1318  0.1393  0.2300
 3178DDP     C319067  24.899  27.393   0.801  0.2431  0.1120 -0.1626
 3178DDP     C419068  25.882  27.734   0.624 -0.1558 -0.1388  0.1311
 3179DDP     C119069  23.797  13.177  16.402  0.2361  0.3124  0.0977
 3179DDP     P119070  24.121  13.359  16.527 -0.3621  0.2239  0.1762
 3179DDP     P219071  23.845  13.165  15.963  0.1366  0.2881  0.1279
 3179DDP     C219072  23.804  13.084  15.527 -0.0427  0.0683  0.2394
 3179DDP     C319073  24.437  13.315  16.786 -0.0765 -0.1280 -0.2016
 3179DDP     C419074  23.533  12.807  16.530 -0.1991  0.0160  0.0031
 3180DDP     C119075   4.302  11.780  24.757  0.4710  0.0859  0.1789
 3180DDP     P119076   4.432  11.366  25.013 -0.3427  0.0702  0.1148
 3180DDP     P219077   3.845  11.725  24.688 -0.2162 -0.3141  0.2769
 3180DDP     C219078   3.426  11.607  24.902 -0.0084 -0.0644  0.0836
 3180DDP     C319079   4.694  11.141  25.390  0.3487  0.1077  0.0302
 3180DDP     C419080   4.737  11.998  24.778 -0.0358 -0.0373  0.2446
 3181DDP     C119081  12.571  12.898   3.083  0.0109  0.1947  0.0671
 3181DDP     P119082  12.897  13.252   3.043 -0.1781 -0.0745 -0.2163
 3181DDP     P219083  12.613  12.488   3.056 -0.1683 -0.2794 -0.0581
 3181DDP     C219084  12.290  12.185   3.315 -0.2023 -0.3460 -0.0361
 3181DDP     C319085  13.214  13.400   3.251  0.0791  0.2294 -0.4009
 3181DDP     C419086  12.222  13.017   2.773  0.0456  0.0411 -0.2534
 3182DDP     C119087  23.316   9.355  13.865  0.0368 -0.1786 -0.2676
 3182DDP     P119088  23.209   8.986  13.599  0.2426  0.0761  0.2299
 3182DDP     P219089  23.416   9.432  14.362  0.0278 -0.2222  0.0791
 3182DDP     C219090  23.463   9.684  14.688 -0.1874 -0.2763  0.0647
 3182DDP     C319091  23.330   8.678  13.318  0.0334 -0.1995 -0.4779
 3182DDP     C419092  23.545   9.415  13.541 -0.1556  0.3092  0.0024
 3183DDP     C119093  10.064   8.682  27.919  0.0688 -0.0647 -0.0986
 3183DDP     P119094   9.799   8.601  28.274 -0.2212 -0.1818 -0.2751
 3183DDP     P219095  10.537   8.849  27.896  0.2105  0.0891 -0.0512
 3183DDP     C219096  10.693   9.017  28.129 -0.2980  0.0128  0.1210
 3183DDP     C319097   9.627   8.145  28.258 -0.0762  0.1027 -0.0820
 3183DDP     C419098   9.941   8.633  27.541  0.0982  0.0465 -0.0738
 3184DDP     C119099  16.155  22.919  27.810 -0.1467 -0.0540  0.0088
 3184DDP     P119100  16.437  22.840  27.547 -0.2577  0.3759 -0.1389
 3184DDP     P219101  16.143  22.611  28.114  0.1289  0.0510 -0.0507
 3184DDP     C219102  16.445  22.598  28.496 -0.1464 -0.2240 -0.2616
 3184DDP     C319103  16.799  22.566  27.584 -0.0957 -0.0470 -0.2547
 3184DDP     C419104  15.803  23.312  27.703 -0.0070  0.0823 -0.1731
 3185DDP     C119105   2.556  26.658  10.474 -0.1814 -0.2197 -0.2197
 3185DDP     P119106   2.670  26.236  10.423 -0.1595 -0.0241 -0.2506
 3185DDP     P219107   2.838  27.046  10.641 -0.0016 -0.1730  0.3780
 3185DDP     C219108   2.983  27.323  10.991 -0.0191  0.3996 -0.3350
 3185DDP     C319109   2.791  25.894  10.326  0.1049  0.0473  0.3001
 3185DDP     C419110   2.195  26.878  10.232 -0.3845 -0.1030 -0.0829
 3186DDP     C119111  20.854  19.365   1.436 -0.2012 -0.2262 -0.1097
 3186DDP     P119112  20.489  19.605   1.423  0.0786 -0.3244  0.0007
 3186DDP     P219113  21.092  19.688   1.612  0.3500 -0.0349 -0.1991
 3186DDP     C219114  21.010  19.966   2.002  0.5418  0.0954  0.2774
 3186DDP     C319115  20.380  19.838   1.032 -0.1920  0.1114 -0.0016
 3186DDP     C419116  20.913  19.207   1.164 -0.4623 -0.1266  0.0569
 3187DDP     C119117   2.048  16.468   2.730  0.0480  0.0574  0.0249
 3187DDP     P119118   2.373  16.334   3.041  0.0989  0.1833  0.0909
 3187DDP     P219119   1.728  16.185   2.567 -0.3635 -0.1582  0.1656
 3187DDP     C219120   1.330  16.008   2.310 -0.1851 -0.1629 -0.1553
 3187DDP     C319121   2.739  16.269   3.246 -0.0853  0.1642  0.1327
 3187DDP     C419122   1.900  16.870   2.714  0.0553  0.0336 -0.0890
 3188DDP     C119123  21.658  21.139  26.111 -0.1014  0.0402 -0.0196
 3188DDP     P119124  21.446  21.231  25.730 -0.1247  0.0553  0.0470
 3188DDP     P219125  21.693  21.479  26.481 -0.0787 -0.1568  0.1720
 3188DDP     C219126  21.613  21.557  27.006  0.0717 -0.2732 -0.2077
 3188DDP     C319127  21.425  21.003  25.384  0.2246 -0.0418 -0.0315
 3188DDP     C419128  21.560  20.718  26.288  0.1175 -0.1074 -0.1606
 3189DDP     C119129   9.621  24.654  19.995  0.1708  0.2628  0.0580
 3189DDP     P119130   9.727  24.866  19.605 -0.0190  0.0593  0.0789
 3189DDP     P219131   9.400  24.717  20.333  0.2771 -0.1240 -0.1160
 3189DDP     C219132   9.397  25.136  20.550  0.3290  0.1067  0.1582
 3189DDP     C319133   9.711  24.913  19.104 -0.3022 -0.0547  0.1387
 3189DDP     C419134   9.846  24.219  20.075 -0.1665 -0.1374 -0.0582
 3190DDP     C119135  11.837   3.512   5.219  0.3197  0.0087  0.0138
 3190DDP     P119136  12.007   3.560   5.592  0.2015  0.0860  0.4105
 3190DDP     P219137  11.979   3.218   4.871  0.0291  0.0529 -0.1537
 3190DDP     C219138  12.241   3.077   4.508 -0.0914  0.2335  0.0364
 3190DDP     C319139  12.217   3.374   5.927 -0.2797  0.1016 -0.0471
 3190DDP     C419140  11.484   3.729   5.189 -0.0209  0.0015  0.1854
 3191DDP     C119141  28.954  15.976   2.224  0.1444 -0.2692 -0.0227
 3191DDP     P119142  28.566  15.853   2.365 -0.0944  0.0042 -0.0426
 3191DDP     P219143  29.134  15.968   1.885 -0.1594 -0.2346  0.2729
 3191DDP     C219144  29.242  15.702   1.637  0.3153  0.3287  0.0217
 3191DDP     C319145  28.494  15.457   2.208 -0.0111 -0.0545 -0.1084
 3191DDP     C419146  29.369  15.922   2.480  0.2455 -0.2364  0.0414
 3192DDP     C119147  29.201   9.307   7.580  0.1789  0.1822 -0.1081
 3192DDP     P119148  28.996   9.207   8.018 -0.0872  0.1615  0.2431
 3192DDP     P219149  29.524   9.612   7.509 -0.1388 -0.0454 -0.3043
 3192DDP     C219150  29.651   9.924   7.277 -0.1472  0.1580  0.0297
 3192DDP     C319151  28.738   9.221   8.377 -0.1767 -0.1464  0.3389
 3192DDP     C419152  28.971   9.069   7.207 -0.0124 -0.2673  0.0205
 3193DDP     C119153   1.244  23.380  10.872 -0.3759  0.0262  0.0133
 3193DDP     P119154   1.228  23.846  10.884  0.0738 -0.1176 -0.1137
 3193DDP     P219155   1.150  23.184  11.142 -0.1072 -0.0196  0.0406
 3193DDP     C219156   0.991  22.769  11.269  0.1591 -0.0012 -0.1514
 3193DDP     C319157   1.131  24.267  10.816 -0.3668 -0.0727  0.0273
 3193DDP     C419158   1.425  23.147  10.548 -0.0451  0.0482  0.2844
 3194DDP     C119159  21.276  29.917  16.267 -0.0576 -0.0314 -0.0362
 3194DDP     P119160  21.057  30.171  15.865 -0.1440  0.0084 -0.2959
 3194DDP     P219161  20.947  29.593  16.287 -0.1888 -0.0811 -0.0760
 3194DDP     C219162  20.864  29.177  16.247  0.0183 -0.2523  0.6040
 3194DDP     C319163  20.965   0.237  15.657  0.1145  0.1140 -0.1496
 3194DDP     C419164  21.740  29.893  16.326 -0.4550 -0.1891  0.3046
 3195DDP     C119165   4.530  23.767   3.198 -0.2458 -0.1457  0.1672
 3195DDP     P119166   4.730  24.131   3.339 -0.1294  0.4799 -0.4727
 3195DDP     P219167   4.367  23.882   2.807 -0.0440  0.1883  0.1322
 3195DDP     C219168   4.430  23.719   2.294  0.2625  0.0891  0.1412
 3195DDP     C319169   4.845  24.534   3.275 -0.0217  0.1206 -0.1005
 3195DDP     C419170   4.428  23.411   3.374  0.1523  0.0617 -0.2339
 3196DDP     C119171  15.461   1.057   2.972  0.1444  0.0677 -0.1110
 3196DDP     P119172  15.748   0.725   2.887 -0.0187 -0.4365 -0.0942
 3196DDP     P219173  15.559   1.363   2.730  0.2336 -0.3133 -0.2534
 3196DDP     C219174  15.431   1.562   2.334 -0.1258  0.0694  0.0619
 3196DDP     C319175  15.836   0.243   2.958  0.1236  0.5131  0.2486
 3196DDP     C419176  15.058   1.063   3.220 -0.0956 -0.0218  0.1610
 3197DDP     C119177  13.361  16.586   8.886 -0.1307 -0.4461  0.0015
 3197DDP     P119178  13.496  16.664   9.338  0.0028 -0.3577  0.0724
 3197DDP     P219179  13.105  16.853   8.752 -0.0341 -0.0995  0.1169
 3197DDP     C219180  13.016  16.862   8.341  0.2018 -0.0201 -0.0475
 3197DDP     C319181  13.366  16.682   9.865 -0.0730 -0.0252  0.0763
 3197DDP     C419182  13.602  16.471   8.487 -0.2917 -0.0725 -0.1210
 3198DDP     C119183  27.213   5.071   8.652 -0.0148 -0.2358 -0.0741
 3198DDP     P119184  26.997   4.720   8.685  0.0969  0.2916 -0.0194
 3198DDP     P219185  27.740   5.139   8.563 -0.0440  0.1843 -0.2084
 3198DDP     C219186  28.159   5.300   8.638  0.1678  0.0500 -0.1713
 3198DDP     C319187  26.581   4.643   8.655 -0.0469 -0.2076 -0.1656
 3198DDP     C419188  27.014   5.516   8.699  0.2807  0.0070  0.3031
 3199DDP     C119189  14.527  27.772  22.735 -0.1375 -0.2596  0.2235
 3199DDP     P119190  14.679  27.995  22.472  0.0181 -0.0703  0.2759
 3199DDP     P219191  14.435  27.482  22.434 -0.0838  0.1681 -0.2763
 3199DDP     C219192  14.441  27.392  21.951  0.1372  0.0867 -0.0905
 3199DDP     C319193  14.854  27.776  22.091  0.1035  0.0380 -0.0968
 3199DDP     C419194  14.221  27.981  23.029  0.2061  0.3039  0.1347
 3200DDP     C119195  18.594  12.081  26.995 -0.2067  0.1708 -0.0002
 3200DDP     P119196  18.847  11.913  27.201  0.1818  0.1496 -0.1114
 3200DDP     P219197  18.876  12.321  26.677 -0.1863 -0.2342 -0.1405
 3200DDP     C219198  19.279  12.288  26.488  0.2722  0.0017  0.1745
 3200DDP     C319199  19.158  11.918  27.465 -0.0726  0.1948  0.0701
 3200DDP     C419200  18.414  11.669  26.828  0.0202 -0.0953  0.1896
 3201DDP     C119201  21.222  20.003  10.361  0.1778  0.1135 -0.2553
 3201DDP     P119202  21.250  20.101  10.815 -0.3225  0.0199  0.1449
 3201DDP     P219203  21.019  20.116   9.923 -0.1422 -0.0374  0.2349
 3201DDP     C219204  20.952  19.863   9.536 -0.0589 -0.0884 -0.2727
 3201DDP     C319205  21.511  20.513  11.032 -0.4206  0.1972  0.1137
 3201DDP     C419206  21.617  19.880  10.303  0.2675  0.0678 -0.1126
 3202DDP     C119207  14.489  18.207   0.366  0.3199 -0.1555 -0.1151
 3202DDP     P119208  14.249  17.941   0.100  0.1143  0.0154  0.0500
 3202DDP     P219209  14.174  18.505   0.647  0.1568  0.1590 -0.0306
 3202DDP     C219210  13.984  18.408   1.033 -0.0173 -0.1193 -0.0676
 3202DDP     C319211  13.829  17.767   0.131  0.0569  0.1400  0.0698
 3202DDP     C419212  14.984  18.054   0.246 -0.1325 -0.0637 -0.2616
 3203DDP     C119213  11.633  12.595  27.006  0.4828  0.2140  0.0171
 3203DDP     P119214  11.722  12.957  26.926  0.1119  0.1819  0.2266
 3203DDP     P219215  11.201  12.627  27.122  0.0985 -0.0443  0.2605
 3203DDP     C219216  10.814  12.820  26.911  0.1266  0.0631 -0.3443
 3203DDP     C319217  11.697  13.359  26.929 -0.1150  0.0579  0.0110
 3203DDP     C419218  11.860  12.181  27.074 -0.0614  0.0812  0.1894
 3204DDP     C119219   2.213   5.918  28.607 -0.1966  0.0187 -0.2841
 3204DDP     P119220   2.387   5.620  28.276 -0.1365  0.1788  0.0712
 3204DDP     P219221   2.014   5.760  28.947  0.0149  0.0635  0.0232
 3204DDP     C219222   1.595   5.937  29.089 -0.2577  0.0568 -0.2313
 3204DDP     C319223   2.401   5.181  28.121  0.0302 -0.0684 -0.2713
 3204DDP     C419224   2.405   6.249  28.785 -0.3835  0.0147  0.1565
 3205DDP     C119225  21.132  12.189  13.544  0.0464 -0.1303 -0.1624
 3205DDP     P119226  21.519  12.094  13.196 -0.1753  0.1377 -0.0289
 3205DDP     P219227  20.743  12.258  13.332 -0.0805 -0.1529 -0.1594
 3205DDP     C219228  20.452  12.079  12.926  0.0456  0.0386 -0.0797
 3205DDP     C319229  21.897  12.215  13.177 -0.1718 -0.2664 -0.0316
 3205DDP     C419230  21.260  12.357  13.996 -0.0720 -0.1202 -0.1031
 3206DDP     C119231  26.381  24.173   4.058  0.0740 -0.2482  0.0227
 3206DDP     P119232  26.394  24.414   4.400  0.1462  0.0945 -0.0268
 3206DDP     P219233  26.103  24.401   3.849 -0.4370 -0.0175  0.0939
 3206DDP     C219234  25.787  24.429   3.555 -0.1245 -0.0146  0.2250
 3206DDP     C319235  26.487  24.827   4.597  0.0663  0.1278 -0.1964
 3206DDP     C419236  26.433  23.705   4.078  0.0058 -0.1889  0.1640
 3207DDP     C119237  11.205  17.415  21.420 -0.0760 -0.0657 -0.0758
 3207DDP     P119238  11.581  17.288  21.752 -0.2844 -0.1202  0.2265
 3207DDP     P219239  11.305  17.588  20.998  0.0511  0.4135 -0.0953
 3207DDP     C219240  11.324  17.396  20.751  0.1326  0.2057 -0.0614
 3207DDP     C319241  12.088  17.170  21.662 -0.0516 -0.1101  0.0757
 3207DDP     C419242  10.829  17.210  21.485 -0.0352 -0.2203 -0.1234
 3208DDP     C119243   2.048  22.698  18.079  0.1269 -0.0303 -0.0338
 3208DDP     P119244   2.354  22.565  17.829  0.0548 -0.0301  0.3878
 3208DDP     P219245   2.177  22.401  18.375  0.1615 -0.0871  0.1301
 3208DDP     C219246   1.879  22.329  18.784  0.0583 -0.0265  0.0043
 3208DDP     C319247   2.140  22.337  17.405 -0.3908 -0.0649  0.0488
 3208DDP     C419248   1.625  22.758  17.840  0.0022  0.0039  0.0103
 3209DDP     C119249  28.279   1.182  16.471 -0.3018  0.0102 -0.1496
 3209DDP     P119250  28.016   1.210  16.863 -0.1256 -0.1107  0.0238
 3209DDP     P219251  28.679   1.002  16.426 -0.1715 -0.3064 -0.0829
 3209DDP     C219252  28.975   1.046  15.996  0.4456  0.1272 -0.0400
 3209DDP     C319253  27.620   1.372  17.078  0.0912  0.0514  0.2256
 3209DDP     C419254  28.118   1.210  16.128  0.0124  0.0687  0.1267
 3210DDP     C119255   3.929  13.715   6.226  0.2467 -0.1849 -0.2863
 3210DDP     P119256   3.928  14.155   6.177 -0.1734 -0.2234 -0.2308
 3210DDP     P219257   3.816  13.477   6.597  0.2786  0.1143  0.0848
 3210DDP     C219258   3.608  13.738   6.972 -0.0518  0.0337  0.2032
 3210DDP     C319259   3.917  14.608   6.253 -0.2422  0.2102 -0.2542
 3210DDP     C419260   3.807  13.478   5.832  0.0051  0.0556 -0.2443
 3211DDP     C119261   0.400   9.403   7.365  0.0457 -0.1037 -0.1927
 3211DDP     P119262   0.234   8.968   7.428  0.0678 -0.2992  0.2063
 3211DDP     P219263   0.582   9.740   7.674 -0.1588 -0.1218  0.1364
 3211DDP     C219264   0.542   9.797   8.124 -0.0320  0.2062  0.0735
 3211DDP     C319265   0.319   8.533   7.475 -0.1539 -0.0676 -0.0867
 3211DDP     C419266   0.591   9.520   6.889  0.0431  0.0222  0.2227
 3212DDP     C119267  11.695   9.472  20.364  0.1729  0.1822 -0.1963
 3212DDP     P119268  12.039   9.835  20.393 -0.0522 -0.0715 -0.0717
 3212DDP     P219269  11.569   9.361  19.941  0.3241 -0.1269 -0.0173
 3212DDP     C219270  11.145   9.283  19.698 -0.0609 -0.0503 -0.3163
 3212DDP     C319271  12.058  10.165  20.628 -0.2839  0.0035  0.0320
 3212DDP     C419272  11.590   9.358  20.751  0.0513 -0.3177  0.0505
 3213DDP     C119273  14.879   1.392  12.588 -0.1195  0.0677 -0.0694
 3213DDP     P119274  14.930   1.685  12.830 -0.1806  0.2207  0.1631
 3213DDP     P219275  14.501   1.284  12.374  0.2070  0.0101 -0.0682
 3213DDP     C219276  14.149   1.455  12.240  0.4082  0.0950  0.1957
 3213DDP     C319277  15.291   1.758  13.096 -0.0873  0.0169 -0.0088
 3213DDP     C419278  15.277   1.171  12.370 -0.1594  0.1144  0.1372
 3214DDP     C119279   6.216  25.551  20.532 -0.2772 -0.2052 -0.0768
 3214DDP     P119280   5.854  25.750  20.645  0.0994 -0.1359  0.1239
 3214DDP     P219281   6.557  25.817  20.553  0.1294  0.0656 -0.0770
 3214DDP     C219282   6.643  26.085  20.975 -0.2174 -0.2480  0.0554
 3214DDP     C319283   5.519  25.972  20.524  0.1885 -0.1838 -0.0044
 3214DDP     C419284   6.128  25.151  20.310 -0.0952  0.0084  0.0926
 3215DDP     C119285   6.144  26.711   4.586  0.2280 -0.3017 -0.1181
 3215DDP     P119286   6.359  26.811   4.935  0.1282  0.1293 -0.1522
 3215DDP     P219287   5.729  26.745   4.668 -0.0025 -0.0012 -0.5572
 3215DDP     C219288   5.348  26.632   4.433  0.1511 -0.2977 -0.0537
 3215DDP     C319289   6.220  26.955   5.275  0.3882  0.1515 -0.4159
 3215DDP     C419290   6.331  26.730   4.206  0.2093 -0.0115  0.2110
 3216DDP     C119291  28.632  23.967  15.469  0.3025  0.1624  0.2400
 3216DDP     P119292  28.905  23.728  15.438 -0.3767  0.0791 -0.3359
 3216DDP     P219293  28.428  24.058  15.879 -0.0591  0.0048  0.0899
 3216DDP     C219294  28.063  23.975  15.985 -0.0040 -0.2241  0.1932
 3216DDP     C319295  29.003  23.316  15.416  0.1910  0.0904 -0.0120
 3216DDP     C419296  28.685  24.373  15.323 -0.0732 -0.1280  0.2842
 3217DDP     C119297  22.316   2.422  28.492 -0.0661 -0.0612  0.2321
 3217DDP     P119298  22.175   2.562  28.058 -0.0109 -0.1328 -0.0562
 3217DDP     P219299  22.665   2.580  28.616  0.0693  0.1921 -0.1842
 3217DDP     C219300  23.002   2.645  28.791 -0.0863  0.3143 -0.4222
 3217DDP     C319301  22.147   2.867  27.784 -0.0625 -0.3214 -0.2324
 3217DDP     C419302  22.162   2.243  28.885  0.3415  0.0009  0.0608
 3218DDP     C119303  21.056   6.733  27.222  0.0896 -0.0552 -0.0203
 3218DDP     P119304  20.865   6.495  26.840 -0.0545 -0.2287  0.0873
 3218DDP     P219305  21.433   7.013  27.025 -0.0602 -0.0339 -0.0162
 3218DDP     C219306  21.635   7.227  26.728 -0.0396  0.0897 -0.1311
 3218DDP     C319307  20.616   6.384  26.534 -0.3177 -0.2381 -0.1190
 3218DDP     C419308  20.874   6.658  27.618 -0.0457  0.2160 -0.1456
 3219DDP     C119309   3.002  11.478   9.996 -0.2882 -0.1586  0.3390
 3219DDP     P119310   3.341  11.452  10.174  0.0095 -0.2526  0.2813
 3219DDP     P219311   3.016  11.510   9.496  0.0328 -0.0277 -0.0504
 3219DDP     C219312   2.873  11.457   9.087 -0.1287 -0.0909  0.3154
 3219DDP     C319313   3.744  11.306  10.416 -0.0141 -0.1413 -0.4006
 3219DDP     C419314   2.605  11.551  10.164 -0.1899  0.0129  0.0004
 3220DDP     C119315  24.949   6.757  24.248 -0.1233 -0.1503  0.2053
 3220DDP     P119316  25.178   6.563  23.954 -0.0117 -0.0086 -0.0706
 3220DDP     P219317  24.694   6.620  24.552  0.0231  0.1521 -0.0525
 3220DDP     C219318  24.580   6.531  25.050 -0.1690 -0.2560  0.1205
 3220DDP     C319319  25.603   6.665  23.771 -0.2384  0.0358  0.1845
 3220DDP     C419320  24.996   7.101  24.142 -0.1847 -0.1630 -0.0399
 3221DDP     C119321   8.765  23.262  12.422 -0.0186 -0.0484  0.1893
 3221DDP     P119322   8.795  23.610  12.588 -0.0621  0.1406 -0.2738
 3221DDP     P219323   8.926  23.059  11.902 -0.1642 -0.1634 -0.0684
 3221DDP     C219324   8.967  22.717  11.725 -0.0647  0.0785  0.0356
 3221DDP     C319325   8.946  24.045  12.754 -0.0440 -0.0092  0.0324
 3221DDP     C419326   8.439  23.033  12.502 -0.0568  0.0432  0.3482
 3222DDP     C119327  23.791  17.115  29.414  0.1106 -0.3461 -0.2601
 3222DDP     P119328  23.848  17.089  28.938  0.4103  0.0049  0.3542
 3222DDP     P219329  23.964  16.809  29.757 -0.3987 -0.1475 -0.2485
 3222DDP     C219330  24.319  16.769  30.019  0.3378  0.0621  0.0250
 3222DDP     C319331  23.955  17.205  28.469 -0.1710  0.4946 -0.1273
 3222DDP     C419332  23.505  17.385  29.562 -0.1982 -0.2302 -0.2599
 3223DDP     C119333   2.960  24.720  27.779  0.1174  0.1874  0.0135
 3223DDP     P119334   2.512  24.501  27.657  0.1715  0.3274  0.0363
 3223DDP     P219335   3.092  24.726  28.315 -0.1103 -0.1174  0.0734
 3223DDP     C219336   3.299  24.845  28.756 -0.5541 -0.1807 -0.5724
 3223DDP     C319337   2.111  24.350  27.600  0.0129 -0.1373  0.0383
 3223DDP     C419338   3.291  24.696  27.485 -0.3085 -0.1223 -0.1714
 3224DDP     C119339  14.425  10.909   6.091  0.0196  0.0587 -0.0774
 3224DDP     P119340  14.511  10.906   5.786  0.2673 -0.0920  0.1284
 3224DDP     P219341  14.363  10.523   6.301  0.2015  0.0891  0.2408
 3224DDP     C219342  14.350  10.096   6.165  0.1493  0.0216  0.1717
 3224DDP     C319343  14.263  10.949   5.413 -0.0170  0.0626  0.1070
 3224DDP     C419344  14.275  11.442   6.099  0.0418  0.0340  0.0245
 3225DDP     C119345   8.927  18.422   7.248  0.0402  0.3740 -0.1680
 3225DDP     P119346   9.405  18.441   7.199 -0.2354  0.0736 -0.1592
 3225DDP     P219347   8.694  18.117   7.469  0.1778  0.0337  0.3098
 3225DDP     C219348   8.222  18.143   7.663  0.0935  0.0887 -0.2021
 3225DDP     C319349   9.667  18.444   6.829  0.2430  0.0604  0.0053
 3225DDP     C419350   8.670  18.657   7.004  0.1398  0.0854 -0.1116
 3226DDP     C119351  25.615  17.522  15.143 -0.1070  0.2077 -0.2022
 3226DDP     P119352  25.699  17.476  15.564 -0.1459  0.5504 -0.0087
 3226DDP     P219353  25.374  17.830  14.936  0.0901 -0.0031 -0.2067
 3226DDP     C219354  25.055  18.139  14.912  0.0700 -0.2559 -0.2251
 3226DDP     C319355  25.549  17.467  15.963  0.1600 -0.0212  0.1167
 3226DDP     C419356  25.822  17.354  14.817 -0.1039  0.3061  0.1610
 3227DDP     C119357   7.523  28.572  25.134  0.4190  0.2593  0.1021
 3227DDP     P119358   7.917  28.715  25.339  0.2273  0.1171  0.0703
 3227DDP     P219359   7.561  28.390  24.813 -0.0702  0.0165 -0.1587
 3227DDP     C219360   7.773  28.102  24.605 -0.0928 -0.1488 -0.0664
 3227DDP     C319361   8.098  28.514  25.703 -0.0842  0.2719 -0.1023
 3227DDP     C419362   7.092  28.647  25.312  0.0313 -0.0365  0.0938
 3228DDP     C119363  28.510   7.086  27.288  0.3998 -0.0741 -0.1791
 3228DDP     P119364  28.534   6.873  26.983  0.0190 -0.1132  0.1692
 3228DDP     P219365  28.800   6.934  27.624  0.0796 -0.0067 -0.2444
 3228DDP     C219366  29.059   7.141  28.052 -0.0074 -0.3443  0.2129
 3228DDP     C319367  28.742   6.917  26.592 -0.1151 -0.0019  0.0884
 3228DDP     C419368  28.625   7.559  27.285 -0.0739  0.2783  0.1905
 3229DDP     C119369   8.703  29.963  19.346 -0.0677 -0.1432 -0.2745
 3229DDP     P119370   8.655  29.568  19.182  0.2074  0.0730  0.0501
 3229DDP     P219371   8.815   0.044  19.101 -0.2173  0.0522  0.2536
 3229DDP     C219372   8.564   0.417  18.943 -0.3278  0.0464  0.1244
 3229DDP     C319373   8.345  29.224  18.975  0.2729 -0.0606  0.1670
 3229DDP     C419374   8.673  30.041  19.722 -0.3252  0.2478 -0.1985
 3230DDP     C119375  13.147   0.761  27.913  0.2213  0.2053 -0.2150
 3230DDP     P119376  13.127   1.054  28.325  0.0151  0.4552 -0.4498
 3230DDP     P219377  13.094   1.107  27.649 -0.1984 -0.0269 -0.0756
 3230DDP     C219378  13.351   1.343  27.374 -0.2638 -0.0806 -0.0779
 3230DDP     C319379  12.621   1.250  28.387 -0.0654 -0.0669 -0.1023
 3230DDP     C419380  13.033   0.315  27.800 -0.0296 -0.0490 -0.2352
 3231DDP     C119381   8.735   7.710  18.763  0.1528 -0.2495 -0.1524
 3231DDP     P119382   8.478   7.644  19.059 -0.2577  0.1751 -0.0458
 3231DDP     P219383   8.702   7.976  18.482  0.3237 -0.3069 -0.1656
 3231DDP     C219384   8.271   7.886  18.160 -0.2203  0.1791  0.1668
 3231DDP     C319385   8.232   7.724  19.279 -0.0616 -0.0657 -0.2162
 3231DDP     C419386   8.686   7.285  18.674  0.1367 -0.0722 -0.0726
 3232DDP     C119387  29.471   9.979  27.802 -0.0911 -0.1994  0.0890
 3232DDP     P119388  29.426  10.260  28.146 -0.0728 -0.3251 -0.0954
 3232DDP     P219389  29.191   9.747  27.683 -0.0214  0.0160  0.3189
 3232DDP     C219390  29.104   9.328  27.707  0.1668 -0.1477  0.1587
 3232DDP     C319391  29.205  10.650  28.391 -0.0430 -0.0187 -0.0348
 3232DDP     C419392  29.717   9.650  27.675  0.3463 -0.0184 -0.1225
 3233DDP     C119393   1.040  25.888  18.986 -0.1492  0.0406  0.1089
 3233DDP     P119394   0.865  25.652  19.140 -0.0305  0.3210 -0.2141
 3233DDP     P219395   1.192  26.376  19.021  0.1486  0.0980 -0.1283
 3233DDP     C219396   1.108  26.597  18.689  0.0268  0.0283 -0.0944
 3233DDP     C319397   0.474  25.356  19.149 -0.0995  0.2330 -0.1705
 3233DDP     C419398   1.295  25.752  18.582 -0.0028 -0.0018 -0.0957
 3234DDP     C119399  29.273  14.514  29.473 -0.0912  0.2794 -0.0349
 3234DDP     P119400  29.028  14.821  29.476 -0.3044 -0.2007 -0.0984
 3234DDP     P219401  29.156  14.098  29.275  0.2596  0.2080 -0.0864
 3234DDP     C219402  29.314  13.720  29.190 -0.3695 -0.0711 -0.0002
 3234DDP     C319403  28.769  15.262  29.410  0.2904 -0.3082 -0.1104
 3234DDP     C419404  29.726  14.581  29.499  0.0402  0.0463  0.0158
 3235DDP     C119405  25.347  27.020   5.762 -0.1489 -0.1528 -0.1581
 3235DDP     P119406  24.900  26.881   5.935  0.1554  0.0503  0.0480
 3235DDP     P219407  25.293  27.407   5.405  0.1040 -0.1216  0.0696
 3235DDP     C219408  25.369  27.351   4.915 -0.1140  0.1511 -0.0697
 3235DDP     C319409  24.442  26.993   5.791 -0.2136  0.0989  0.0175
 3235DDP     C419410  25.757  26.619   5.700  0.1439 -0.4258  0.1759
 3236DDP     C119411   5.116   5.504  24.033  0.0433 -0.1262 -0.2377
 3236DDP     P119412   5.235   5.719  24.450  0.1695  0.0364 -0.0891
 3236DDP     P219413   5.317   5.762  23.657  0.1232  0.2488 -0.0855
 3236DDP     C219414   5.377   5.945  23.293 -0.1821  0.3229  0.3492
 3236DDP     C319415   5.485   5.588  24.822  0.1105  0.3112 -0.0396
 3236DDP     C419416   4.702   5.232  24.070  0.2305  0.0195  0.0069
 3237DDP     C119417   1.204   5.793  18.396  0.0940 -0.3313  0.0671
 3237DDP     P119418   1.620   5.819  18.497 -0.3622  0.0669 -0.1139
 3237DDP     P219419   1.296   5.681  17.982 -0.0399  0.0235 -0.0576
 3237DDP     C219420   1.501   5.428  17.574 -0.2732  0.0381 -0.0123
 3237DDP     C319421   1.938   5.699  18.821 -0.0415 -0.3833  0.0392
 3237DDP     C419422   0.895   5.847  18.579  0.0642  0.0221 -0.0407
 3238DDP     C119423  24.726   4.215   5.628  0.0200 -0.0888 -0.0431
 3238DDP     P119424  24.651   3.849   5.407  0.4214 -0.1603 -0.3371
 3238DDP     P219425  24.493   4.552   5.643 -0.1083 -0.0617 -0.3456
 3238DDP     C219426  24.655   4.988   5.340  0.0373  0.2037  0.1223
 3238DDP     C319427  24.405   3.532   5.227 -0.1183 -0.0971  0.0154
 3238DDP     C419428  25.166   4.224   5.947 -0.2166 -0.0381  0.1255
 3239DDP     C119429  23.036  11.140  18.732 -0.1666 -0.0969  0.0784
 3239DDP     P119430  22.691  11.068  18.499 -0.0804  0.0101 -0.0427
 3239DDP     P219431  23.015  11.200  19.173 -0.1985 -0.1144 -0.0406
 3239DDP     C219432  22.689  11.177  19.473  0.1779  0.0667 -0.2545
 3239DDP     C319433  22.482  10.868  18.163  0.2227 -0.2673  0.0201
 3239DDP     C419434  23.454  10.844  18.696 -0.0809  0.0661 -0.0215
 3240DDP     C119435  25.628   1.370  25.212 -0.0119 -0.0570 -0.1596
 3240DDP     P119436  25.721   1.263  24.813  0.2536 -0.0392  0.2215
 3240DDP     P219437  25.461   1.081  25.525  0.1406  0.1325 -0.2412
 3240DDP     C219438  25.160   1.020  25.823 -0.5444 -0.1278 -0.1806
 3240DDP     C319439  25.633   0.900  24.504  0.4512 -0.0394 -0.1627
 3240DDP     C419440  25.910   1.790  25.326  0.1070  0.0853 -0.2362
 3241DDP     C119441   5.537  26.514  16.535 -0.0093  0.0376  0.0286
 3241DDP     P119442   5.775  26.676  16.903 -0.0923 -0.0126 -0.2747
 3241DDP     P219443   5.321  26.131  16.339  0.2389 -0.0337  0.3392
 3241DDP     C219444   5.122  25.800  16.151 -0.3557  0.0932  0.1120
 3241DDP     C319445   5.794  26.638  17.328 -0.0937  0.0563  0.1438
 3241DDP     C419446   5.326  26.986  16.397 -0.1543  0.0636 -0.4168
 3242DDP     C119447  30.201  20.079   2.445 -0.2131 -0.1188 -0.0575
 3242DDP     P119448  30.036  20.335   2.090  0.1551 -0.1547  0.2153
 3242DDP     P219449   0.236  20.245   2.541  0.1327  0.0657 -0.1225
 3242DDP     C219450   0.684  20.254   2.387 -0.1300 -0.5131 -0.1913
 3242DDP     C319451  29.704  20.624   2.042  0.0119 -0.0711 -0.2931
 3242DDP     C419452  30.058  19.599   2.469  0.1095  0.3512 -0.0472
 3243DDP     C119453  29.700   4.249   8.429  0.1624 -0.2468 -0.0328
 3243DDP     P119454  29.316   4.181   8.740  0.0239 -0.2819 -0.2260
 3243DDP     P219455  30.181   4.381   8.561  0.0771  0.1126 -0.1931
 3243DDP     C219456   0.016   4.775   8.752  0.1284 -0.0675 -0.0892
 3243DDP     C319457  29.261   4.046   9.152 -0.0437  0.0725  0.1318
 3243DDP     C419458  29.583   4.340   8.040  0.2848  0.1553 -0.2726
 3244DDP     C119459  13.730  26.072  25.986 -0.0697  0.0412  0.0939
 3244DDP     P119460  14.104  26.227  25.620 -0.1174  0.0799 -0.1414
 3244DDP     P219461  13.320  25.904  25.841 -0.2399  0.1404 -0.2269
 3244DDP     C219462  12.921  26.065  25.823 -0.2140  0.3065  0.2076
 3244DDP     C319463  14.146  26.246  25.239  0.1304 -0.0993 -0.0535
 3244DDP     C419464  13.865  25.942  26.469  0.0500  0.2247  0.2311
 3245DDP     C119465  13.733  19.265  14.171 -0.1034 -0.1034 -0.0944
 3245DDP     P119466  14.145  19.166  14.219 -0.3168 -0.2398 -0.2809
 3245DDP     P219467  13.662  19.512  14.510 -0.1966 -0.1816 -0.1590
 3245DDP     C219468  13.529  19.528  14.893 -0.2313 -0.1574  0.0405
 3245DDP     C319469  14.293  18.844  13.912  0.0978 -0.0354  0.3542
 3245DDP     C419470  13.320  18.964  13.977  0.0636  0.2833 -0.0592
 3246DDP     C119471  29.567  14.703   5.272 -0.1617  0.0395 -0.0870
 3246DDP     P119472  29.269  14.307   5.309  0.2111  0.0441 -0.0773
 3246DDP     P219473  29.741  14.776   4.862 -0.0370 -0.3110 -0.0390
 3246DDP     C219474  29.974  15.017   4.555 -0.1365  0.5303  0.1600
 3246DDP     C319475  29.081  13.996   5.285  0.2317  0.0399  0.2846
 3246DDP     C419476  29.752  14.831   5.660  0.3251  0.0767  0.3282
 3247DDP     C119477  16.771   4.508   8.839 -0.2440 -0.1587 -0.0043
 3247DDP     P119478  17.214   4.442   8.923 -0.2418 -0.4240  0.2632
 3247DDP     P219479  16.469   4.706   9.035 -0.2869 -0.0505 -0.0598
 3247DDP     C219480  16.163   4.879   9.214  0.1022 -0.0757  0.0801
 3247DDP     C319481  17.653   4.558   9.045 -0.4586 -0.0948  0.1347
 3247DDP     C419482  16.677   4.469   8.387  0.2171 -0.0071  0.2637
 3248DDP     C119483  14.460   2.336  11.396  0.1976 -0.4579 -0.0952
 3248DDP     P119484  14.804   2.202  11.031 -0.0447  0.3938 -0.1944
 3248DDP     P219485  14.484   2.140  11.756 -0.0947  0.3002 -0.2407
 3248DDP     C219486  14.756   2.293  12.065  0.0069 -0.3111  0.1365
 3248DDP     C319487  15.252   2.107  10.931 -0.1675  0.0295  0.0052
 3248DDP     C419488  14.390   2.744  11.309 -0.0499 -0.0519 -0.1484
 3249DDP     C119489  25.801   6.936  20.525  0.2832 -0.2853 -0.0334
 3249DDP     P119490  25.780   7.230  20.794  0.1342  0.0210 -0.2248
 3249DDP     P219491  26.215   6.698  20.522 -0.0865 -0.0696  0.0002
 3249DDP     C219492  26.599   6.409  20.442  0.1419 -0.3162  0.0471
 3249DDP     C319493  26.085   7.573  20.920  0.1728  0.0491 -0.1953
 3249DDP     C419494  25.487   6.734  20.331  0.3034 -0.1684  0.2706
 3250DDP     C119495   0.236  14.628  10.645 -0.2938 -0.0070  0.1656
 3250DDP     P119496   0.306  14.143  10.530 -0.2015  0.1392 -0.1669
 3250DDP     P219497   0.241  14.988  10.257 -0.0728  0.0157  0.3893
 3250DDP     C219498   0.177  15.219   9.865  0.2135 -0.0157 -0.1634
 3250DDP     C319499   0.175  13.899  10.216 -0.1785 -0.0027  0.0343
 3250DDP     C419500   0.390  14.763  11.093  0.1533  0.1825 -0.3394
 3251DDP     C119501  13.279   6.931  22.320  0.1776 -0.2791  0.0941
 3251DDP     P119502  13.473   7.302  22.572  0.0778 -0.3869  0.2430
 3251DDP     P219503  13.565   6.879  21.963  0.1895  0.0174 -0.1061
 3251DDP     C219504  13.787   7.116  21.743  0.2307  0.1995  0.1194
 3251DDP     C319505  13.643   7.798  22.571  0.0287  0.0427 -0.0597
 3251DDP     C419506  12.911   6.665  22.396  0.0294  0.0304  0.0129
 3252DDP     C119507  10.068  26.584  19.280  0.0905  0.4351 -0.0498
 3252DDP     P119508   9.593  26.457  19.188 -0.0437  0.0941 -0.3834
 3252DDP     P219509  10.376  26.669  18.849 -0.0546  0.0201  0.3925
 3252DDP     C219510  10.511  26.672  18.491  0.0782  0.2482  0.2192
 3252DDP     C319511   9.164  26.565  19.344  0.0797 -0.0369 -0.4927
 3252DDP     C419512  10.232  26.705  19.678 -0.1422 -0.4172  0.3082
 3253DDP     C119513  16.175  25.750   7.540 -0.0220  0.3697 -0.0959
 3253DDP     P119514  16.068  25.617   7.984 -0.2358  0.1959  0.0492
 3253DDP     P219515  16.058  25.567   7.146 -0.5120  0.2152 -0.2605
 3253DDP     C219516  15.926  25.685   6.724  0.0239 -0.0456 -0.1748
 3253DDP     C319517  15.888  25.362   8.174 -0.0658 -0.0176  0.1829
 3253DDP     C419518  16.267  26.151   7.430 -0.0294 -0.3784  0.1968
 3254DDP     C119519  16.415  26.036  30.236  0.1748  0.0616 -0.2127
 3254DDP     P119520  16.513  25.664   0.102 -0.0458 -0.1794 -0.1133
 3254DDP     P219521  16.104  26.423  30.274  0.3498 -0.0078 -0.1232
 3254DDP     C219522  15.903  26.685   0.252  0.0749 -0.0220 -0.1727
 3254DDP     C319523  16.678  25.243  30.224 -0.0880  0.4220 -0.4300
 3254DDP     C419524  16.695  26.285  29.873  0.1728 -0.1527  0.3146
 3255DDP     C119525  23.268  11.281  14.463  0.2050  0.0281 -0.3001
 3255DDP     P119526  22.888  11.170  14.305  0.0380  0.1332 -0.0119
 3255DDP     P219527  23.522  11.511  14.195  0.3951 -0.3874  0.0205
 3255DDP     C219528  23.464  11.798  14.002 -0.0491  0.1111  0.0175
 3255DDP     C319529  22.552  10.986  14.444  0.0789  0.2142  0.0560
 3255DDP     C419530  23.499  11.181  14.893 -0.2298 -0.2526  0.2892
 3256DDP     C119531   3.043   9.283  18.231 -0.0808  0.0891 -0.0710
 3256DDP     P119532   2.948   8.938  17.901  0.1174 -0.0787 -0.0721
 3256DDP     P219533   2.952   9.432  18.706  0.0072  0.0232  0.0053
 3256DDP     C219534   3.035   9.616  19.171 -0.1765  0.2656  0.2673
 3256DDP     C319535   3.312   8.776  17.674  0.0536 -0.1301 -0.0747
 3256DDP     C419536   3.427   9.540  18.175 -0.0931 -0.1537 -0.0048
 3257DDP     C119537  15.027  28.958  25.788 -0.1243  0.0424  0.1560
 3257DDP     P119538  14.617  28.988  25.636  0.0377  0.1203  0.1201
 3257DDP     P219539  15.422  29.202  25.803  0.0156  0.0856 -0.0097
 3257DDP     C219540  15.944  29.289  25.893  0.0469 -0.0437 -0.1069
 3257DDP     C319541  14.654  29.286  25.344 -0.1557  0.0781  0.4005
 3257DDP     C419542  15.107  28.587  26.124 -0.2757 -0.1389  0.3663
 3258DDP     C119543   4.624  22.248   4.625 -0.0820  0.0362  0.0405
 3258DDP     P119544   4.777  21.896   4.473  0.0811  0.0832 -0.0992
 3258DDP     P219545   4.717  22.638   4.646 -0.2924  0.0530 -0.0915
 3258DDP     C219546   4.593  22.957   4.556 -0.2060  0.1894  0.2119
 3258DDP     C319547   4.880  21.547   4.411 -0.1445  0.0925 -0.0706
 3258DDP     C419548   4.243  22.203   4.866  0.0728  0.0040 -0.0657
 3259DDP     C119549   3.829   4.054  14.442  0.2069 -0.1945  0.1100
 3259DDP     P119550   3.736   4.456  14.488  0.0479 -0.4497  0.0833
 3259DDP     P219551   3.523   3.714  14.586 -0.2917  0.0198 -0.4673
 3259DDP     C219552   3.644   3.298  14.760 -0.0402  0.0961  0.1704
 3259DDP     C319553   3.687   4.781  14.796  0.2658 -0.0614 -0.1329
 3259DDP     C419554   4.299   3.880  14.393 -0.1785  0.2358  0.0139
 3260DDP     C119555  11.090   2.981  29.295 -0.1795 -0.1895 -0.1265
 3260DDP     P119556  11.068   2.589  29.296  0.1817 -0.0068 -0.0548
 3260DDP     P219557  11.448   3.101  29.100 -0.1907  0.1018  0.3086
 3260DDP     C219558  11.757   3.353  29.196  0.3765  0.1311  0.2043
 3260DDP     C319559  10.679   2.389  29.306 -0.2302 -0.3605 -0.0987
 3260DDP     C419560  10.818   3.237  29.470  0.2902 -0.0671 -0.0306
 3261DDP     C119561  29.669  10.179  27.356  0.3210  0.1058  0.0852
 3261DDP     P119562  29.426  10.544  27.741 -0.0916  0.2189  0.3775
 3261DDP     P219563  29.378   9.866  27.165 -0.0163 -0.1253 -0.0482
 3261DDP     C219564  29.168   9.423  27.184  0.1058 -0.2511  0.1611
 3261DDP     C319565  29.226  10.888  27.941  0.2012  0.1091  0.0153
 3261DDP     C419566  29.920  10.454  27.024 -0.3161  0.0277  0.0134
 3262DDP     C119567  12.374   6.419  28.338  0.0913 -0.1322 -0.0683
 3262DDP     P119568  12.756   6.183  28.137 -0.3158 -0.1793 -0.2947
 3262DDP     P219569  12.404   6.617  28.725 -0.1800 -0.0976 -0.1982
 3262DDP     C219570  12.606   6.960  28.935  0.1421 -0.0643  0.0217
 3262DDP     C319571  13.170   6.241  27.987 -0.0237 -0.0453 -0.0040
 3262DDP     C419572  11.976   6.393  28.128 -0.1700  0.0723  0.0591
 3263DDP     C119573  12.126   2.860   9.574  0.0361 -0.0506 -0.0174
 3263DDP     P119574  12.496   3.107   9.754  0.3098  0.1454  0.0343
 3263DDP     P219575  12.078   2.530   9.233 -0.2449  0.0259  0.3313
 3263DDP     C219576  11.883   2.351   8.868 -0.0995  0.1213  0.3578
 3263DDP     C319577  12.884   3.184   9.446  0.0281  0.1256  0.0653
 3263DDP     C419578  11.786   2.780   9.867  0.0648 -0.2224 -0.0033
 3264DDP     C119579  16.276   5.055   1.354  0.0071  0.0001 -0.2231
 3264DDP     P119580  16.264   5.340   1.707 -0.2309  0.1542 -0.0147
 3264DDP     P219581  16.444   5.109   0.963 -0.0131  0.1722  0.3708
 3264DDP     C219582  16.749   5.049   0.674  0.2386  0.0421 -0.2570
 3264DDP     C319583  15.904   5.085   1.958  0.1616 -0.1865  0.2960
 3264DDP     C419584  15.982   4.646   1.510 -0.2929  0.2492  0.2651
 3265DDP     C119585   1.487   8.104  13.502  0.0277  0.3513  0.0047
 3265DDP     P119586   1.479   8.100  13.905 -0.1090  0.0316 -0.1669
 3265DDP     P219587   1.841   7.836  13.264 -0.1628  0.2840  0.0846
 3265DDP     C219588   1.783   7.686  12.860  0.1824 -0.1302 -0.0984
 3265DDP     C319589   1.310   7.921  14.207 -0.0670 -0.0626 -0.0677
 3265DDP     C419590   1.017   8.160  13.262 -0.1435  0.0769  0.2113
 3266DDP     C119591  15.130  10.814  27.820  0.0014 -0.0446  0.1071
 3266DDP     P119592  15.451  10.794  27.670  0.0160  0.0191 -0.0167
 3266DDP     P219593  15.141  11.312  27.939 -0.3085  0.0028  0.3324
 3266DDP     C219594  14.756  11.668  27.919  0.3840  0.0700  0.1155
 3266DDP     C319595  15.767  10.885  27.343  0.0804  0.2555 -0.1606
 3266DDP     C419596  14.723  10.645  27.719 -0.0770 -0.3105  0.1695
 3267DDP     C119597  12.013   6.187   0.073 -0.0503 -0.1543 -0.0161
 3267DDP     P119598  11.750   6.200   0.391  0.1258 -0.1834  0.2548
 3267DDP     P219599  12.051   6.542  30.054  0.1060  0.0675 -0.0658
 3267DDP     C219600  12.170   6.691  29.669  0.4659  0.4168 -0.2658
 3267DDP     C319601  11.546   6.455   0.552 -0.2215 -0.0705 -0.4174
 3267DDP     C419602  12.296   6.005  30.315  0.0515 -0.0482 -0.0330
 3268DDP     C119603  16.474   7.894   0.053  0.0354  0.1128 -0.0215
 3268DDP     P119604  16.733   7.925   0.406 -0.2492 -0.0590  0.0850
 3268DDP     P219605  16.098   8.117  30.142 -0.2883  0.2202 -0.0380
 3268DDP     C219606  15.945   8.059  29.669  0.0006 -0.1485 -0.1696
 3268DDP     C319607  17.199   7.926   0.496 -0.1911 -0.3206 -0.1183
 3268DDP     C419608  16.618   7.550  30.162  0.0868 -0.1158 -0.0755
 3269DDP     C119609   4.546  11.890  12.972 -0.0701 -0.1568  0.0544
 3269DDP     P119610   4.616  11.578  13.200 -0.3630  0.0022  0.2761
 3269DDP     P219611   4.212  11.911  12.721  0.0597 -0.0407  0.0972
 3269DDP     C219612   4.029  12.088  12.352 -0.3099  0.2690 -0.4243
 3269DDP     C319613   4.323  11.466  13.520 -0.0795 -0.0019  0.1709
 3269DDP     C419614   4.899  12.149  12.978 -0.0852  0.0048 -0.0240
 3270DDP     C119615   3.467  11.427  15.405  0.2008  0.0247  0.1190
 3270DDP     P119616   3.658  11.303  15.777 -0.0204  0.1477  0.0673
 3270DDP     P219617   3.342  11.552  14.944 -0.3180  0.2096 -0.3298
 3270DDP     C219618   2.887  11.524  14.691  0.0748  0.0534 -0.2692
 3270DDP     C319619   3.982  11.188  16.028 -0.0035  0.2998 -0.0301
 3270DDP     C419620   3.380  11.721  15.651  0.0410  0.1741  0.0991
 3271DDP     C119621  27.733   3.583  23.967 -0.0558 -0.1622 -0.0870
 3271DDP     P119622  27.492   3.466  23.639  0.0873  0.1206 -0.0624
 3271DDP     P219623  27.454   3.719  24.355  0.1861 -0.1576  0.1328
 3271DDP     C219624  27.029   3.743  24.581  0.6013 -0.2385 -0.0143
 3271DDP     C319625  27.161   3.631  23.545  0.1545 -0.1801  0.0650
 3271DDP     C419626  28.143   3.726  24.026 -0.1116  0.3575 -0.0137
 3272DDP     C119627  13.604  28.481  12.994  0.1393 -0.0666 -0.0081
 3272DDP     P119628  13.689  28.018  12.990  0.0389 -0.1673  0.1211
 3272DDP     P219629  13.895  28.631  12.783  0.0265 -0.1538 -0.0795
 3272DDP     C219630  14.041  28.924  12.561  0.0783  0.2533  0.1413
 3272DDP     C319631  14.040  27.645  13.061 -0.1709  0.0183  0.2191
 3272DDP     C419632  13.533  28.722  13.364 -0.1674 -0.2245 -0.0943
 3273DDP     C119633   0.735  16.768  13.396 -0.0142 -0.0873 -0.3476
 3273DDP     P119634   0.352  16.819  13.600  0.0658 -0.1170  0.1514
 3273DDP     P219635   0.982  16.682  13.691  0.0549  0.3993 -0.1046
 3273DDP     C219636   0.874  16.475  13.970  0.2101  0.0633 -0.0823
 3273DDP     C319637  30.296  16.858  13.457 -0.0361 -0.0532  0.0860
 3273DDP     C419638   0.941  16.715  13.001  0.2312 -0.0076  0.4195
 3274DDP     C119639  18.361  13.509  20.694 -0.5221 -0.3077  0.1638
 3274DDP     P119640  18.467  13.648  21.179 -0.2657 -0.0628  0.1285
 3274DDP     P219641  17.964  13.420  20.601 -0.1281 -0.0380  0.1903
 3274DDP     C219642  17.702  13.236  20.582 -0.2707 -0.1191 -0.1278
 3274DDP     C319643  18.402  14.066  21.294 -0.0060 -0.1296 -0.4971
 3274DDP     C419644  18.557  13.513  20.304 -0.1074 -0.2532 -0.0502
 3275DDP     C119645  25.942   7.650  24.617  0.1415 -0.1526 -0.0138
 3275DDP     P119646  25.626   7.620  24.848  0.1716  0.0714 -0.2475
 3275DDP     P219647  26.338   7.445  24.687  0.1664 -0.4577 -0.0609
 3275DDP     C219648  26.588   7.211  24.969  0.0562 -0.1364  0.3814
 3275DDP     C319649  25.479   7.612  25.156 -0.2682 -0.1567  0.0037
 3275DDP     C419650  25.736   7.750  24.266 -0.1023 -0.2565 -0.0882
 3276DDP     C119651   1.377  10.021   7.195  0.1756 -0.1056  0.1309
 3276DDP     P119652   1.256  10.110   6.755 -0.1796  0.3191 -0.0798
 3276DDP     P219653   1.246  10.395   7.531  0.2665  0.0225  0.3737
 3276DDP     C219654   1.246  10.614   7.918 -0.2251 -0.0418 -0.0010
 3276DDP     C319655   1.457  10.207   6.430  0.1080  0.0106 -0.2872
 3276DDP     C419656   1.608   9.643   7.313  0.0079 -0.0305  0.0791
 3277DDP     C119657  26.217   2.021  20.668 -0.1392  0.2060 -0.0799
 3277DDP     P119658  26.349   2.422  20.785  0.0370  0.0475 -0.2887
 3277DDP     P219659  25.942   1.788  20.930 -0.2003 -0.1624  0.1258
 3277DDP     C219660  25.789   1.417  21.223 -0.2778 -0.3187  0.0137
 3277DDP     C319661  26.491   2.661  21.237  0.3406  0.0171 -0.2285
 3277DDP     C419662  26.404   1.725  20.380  0.0098 -0.0713  0.1544
 3278DDP     C119663  22.391  16.677  25.167  0.1419 -0.0677  0.1740
 3278DDP     P119664  22.651  17.053  25.079 -0.0010 -0.0463 -0.2911
 3278DDP     P219665  22.142  16.434  24.889 -0.0640 -0.1168  0.0293
 3278DDP     C219666  22.146  16.181  24.491 -0.0557 -0.0967  0.2865
 3278DDP     C319667  23.109  17.027  25.027  0.0417 -0.2449  0.1869
 3278DDP     C419668  22.524  16.456  25.592 -0.0944  0.2473 -0.0233
 3279DDP     C119669   7.981  26.115  16.558 -0.0699 -0.2177 -0.0842
 3279DDP     P119670   7.884  26.635  16.555  0.0703  0.2356 -0.1447
 3279DDP     P219671   7.882  26.030  16.905  0.0855 -0.0644  0.0186
 3279DDP     C219672   7.647  26.173  17.291  0.0539  0.0275  0.0980
 3279DDP     C319673   8.022  26.923  16.971  0.1357 -0.3002  0.5391
 3279DDP     C419674   7.972  25.955  16.185  0.1649  0.0950 -0.0889
 3280DDP     C119675  22.315  26.334  17.610  0.1572  0.3310 -0.4059
 3280DDP     P119676  22.385  26.697  17.494 -0.0464 -0.0178 -0.1458
 3280DDP     P219677  22.385  26.214  18.048 -0.1367  0.1172 -0.3776
 3280DDP     C219678  22.603  26.028  18.340  0.1374 -0.0419  0.0942
 3280DDP     C319679  22.598  26.987  17.568  0.0613 -0.1879  0.1521
 3280DDP     C419680  22.150  26.104  17.296 -0.0194  0.2661 -0.2241
 3281DDP     C119681  27.966   7.567  16.765  0.0510 -0.0627 -0.0255
 3281DDP     P119682  27.817   7.962  16.718 -0.1959 -0.1185  0.0150
 3281DDP     P219683  28.064   7.567  16.409 -0.1371 -0.0660 -0.3347
 3281DDP     C219684  28.227   7.460  16.051  0.0462  0.0651 -0.2579
 3281DDP     C319685  27.805   8.373  16.852  0.0308  0.1711  0.2408
 3281DDP     C419686  27.813   7.247  16.982  0.0196 -0.2034  0.3333
 3282DDP     C119687   3.550  10.969  17.779  0.0046 -0.2808 -0.1904
 3282DDP     P119688   3.689  10.838  18.182  0.0215 -0.2622  0.0037
 3282DDP     P219689   3.083  10.910  17.617  0.0688  0.0567  0.1307
 3282DDP     C219690   2.860  11.206  17.343 -0.1801  0.0326  0.1515
 3282DDP     C319691   3.915  10.567  18.417 -0.1518 -0.0447 -0.1294
 3282DDP     C419692   3.757  11.012  17.529 -0.0665  0.0880  0.0260
 3283DDP     C119693  11.296   5.884  25.013  0.0999 -0.5324  0.1504
 3283DDP     P119694  11.471   5.998  25.397  0.2079  0.0800 -0.0594
 3283DDP     P219695  11.741   5.851  24.825  0.2820 -0.0858 -0.0053
 3283DDP     C219696  12.160   5.649  24.950  0.0981 -0.2906  0.0193
 3283DDP     C319697  11.354   6.186  25.771  0.0450 -0.1400  0.2971
 3283DDP     C419698  10.914   5.591  24.968 -0.0531  0.2883 -0.0653
 3284DDP     C119699  23.121   0.238  28.567  0.1740 -0.2689 -0.1305
 3284DDP     P119700  23.528   0.304  28.408 -0.0753  0.0388  0.1678
 3284DDP     P219701  22.884   0.426  28.758 -0.1206 -0.1127  0.1260
 3284DDP     C219702  22.474   0.366  28.999  0.1252  0.1680  0.1343
 3284DDP     C319703  23.984   0.587  28.312 -0.1029  0.0234  0.1599
 3284DDP     C419704  22.861  30.131  28.534 -0.2245  0.2654 -0.2135
 3285DDP     C119705   5.407  29.317  11.064 -0.0863 -0.0451 -0.1537
 3285DDP     P119706   5.384  29.565  10.543 -0.2328  0.0607 -0.2438
 3285DDP     P219707   5.036  29.296  11.174 -0.1975  0.1241  0.0071
 3285DDP     C219708   4.675  29.162  10.956  0.1290 -0.2143 -0.0522
 3285DDP     C319709   5.712  29.831  10.258 -0.2259 -0.0172 -0.3029
 3285DDP     C419710   5.774  29.069  11.180  0.1447  0.3761 -0.0432
 3286DDP     C119711   0.778  26.665  19.281  0.0301 -0.1523  0.2882
 3286DDP     P119712   0.404  26.453  19.080 -0.0786  0.1379  0.0900
 3286DDP     P219713   0.623  26.637  19.738 -0.1135  0.1423  0.0466
 3286DDP     C219714   0.235  26.536  19.931  0.0474  0.0829 -0.1408
 3286DDP     C319715   0.180  26.374  18.729 -0.2203  0.0522 -0.1923
 3286DDP     C419716   1.069  26.948  19.065  0.0525  0.4172  0.3069
 3287DDP     C119717  27.870   0.084  27.376 -0.0111  0.1280  0.1702
 3287DDP     P119718  27.375   0.228  27.273 -0.2196  0.1466  0.2218
 3287DDP     P219719  28.068  30.268  27.820 -0.0556  0.1474  0.0845
 3287DDP     C219720  28.394  29.976  27.995  0.0616  0.0193  0.1974
 3287DDP     C319721  26.931   0.094  27.156 -0.2044 -0.1706 -0.4577
 3287DDP     C419722  28.298  30.310  27.183 -0.1159 -0.2610  0.0361
 3288DDP     C119723  23.294  19.849   6.072 -0.0222 -0.3367  0.3627
 3288DDP     P119724  23.101  19.986   6.477 -0.2382  0.1087  0.2488
 3288DDP     P219725  23.102  19.527   5.926  0.2302  0.1136 -0.1219
 3288DDP     C219726  22.718  19.458   5.796 -0.3627  0.1097 -0.3871
 3288DDP     C319727  22.697  20.070   6.517 -0.0121 -0.2242 -0.1784
 3288DDP     C419728  23.707  19.919   6.000  0.2935 -0.2427 -0.0053
 3289DDP     C119729  25.020  21.139   1.691  0.0626  0.2133 -0.0797
 3289DDP     P119730  25.136  21.465   1.728  0.2955 -0.0125  0.2126
 3289DDP     P219731  24.745  20.859   1.465 -0.1215  0.1574  0.1502
 3289DDP     C219732  24.552  20.386   1.285 -0.0675 -0.0990  0.0534
 3289DDP     C319733  25.346  21.832   1.945  0.1287  0.1221  0.1894
 3289DDP     C419734  25.134  21.170   2.178 -0.2633  0.1104 -0.0057
 3290DDP     C119735   6.926   6.774  10.759  0.2921  0.0580  0.1170
 3290DDP     P119736   6.968   7.267  10.821  0.1321  0.1976  0.0118
 3290DDP     P219737   6.819   6.608  10.430  0.0686 -0.3038 -0.0271
 3290DDP     C219738   7.185   6.277  10.208 -0.2449  0.0534 -0.1560
 3290DDP     C319739   7.068   7.464  10.509  0.0657 -0.1321  0.1598
 3290DDP     C419740   6.550   6.634  11.109 -0.1558 -0.2513  0.0107
 3291DDP     C119741   3.575  14.256   3.047  0.0561 -0.2487  0.0790
 3291DDP     P119742   3.520  14.630   3.376  0.0560  0.2884  0.0599
 3291DDP     P219743   3.325  14.177   2.763 -0.0643 -0.0818 -0.1852
 3291DDP     C219744   2.893  13.949   2.891 -0.1372 -0.3043 -0.0664
 3291DDP     C319745   3.569  15.081   3.554 -0.0868 -0.3602  0.4435
 3291DDP     C419746   3.971  14.100   3.074 -0.2273 -0.3058  0.3139
 3292DDP     C119747   4.948  26.508   4.973  0.2426 -0.0400  0.0524
 3292DDP     P119748   5.393  26.443   5.091 -0.1245 -0.2210  0.2853
 3292DDP     P219749   4.774  26.630   5.329  0.1874  0.0302  0.3451
 3292DDP     C219750   4.751  26.964   5.510  0.0599 -0.1426 -0.1960
 3292DDP     C319751   5.678  26.735   5.234  0.1732 -0.0660  0.1441
 3292DDP     C419752   4.855  26.478   4.554 -0.1466  0.1681 -0.0926
 3293DDP     C119753  17.830   5.279  14.948 -0.1317  0.2018  0.1726
 3293DDP     P119754  17.643   4.965  14.634 -0.0004  0.1978  0.2786
 3293DDP     P219755  17.596   5.648  15.107 -0.1031 -0.1915 -0.0878
 3293DDP     C219756  17.231   5.750  15.218 -0.1865 -0.0452  0.1830
 3293DDP     C319757  17.448   4.663  14.352 -0.1712 -0.2175 -0.1737
 3293DDP     C419758  18.170   5.267  15.043 -0.0957  0.1148 -0.0981
 3294DDP     C119759  26.331  21.822  12.079  0.1213  0.1545  0.2084
 3294DDP     P119760  26.688  21.687  11.873 -0.2052 -0.0012 -0.0138
 3294DDP     P219761  26.287  22.133  12.397 -0.0733  0.0452 -0.3443
 3294DDP     C219762  26.311  22.647  12.567 -0.0895  0.0553 -0.0746
 3294DDP     C319763  27.085  21.593  11.795  0.0627  0.0460  0.0999
 3294DDP     C419764  26.019  21.531  11.978 -0.1213 -0.5061  0.4735
 3295DDP     C119765  28.489   9.228   7.052 -0.2290 -0.1507  0.2173
 3295DDP     P119766  28.265   8.937   7.337 -0.1185  0.3467  0.1731
 3295DDP     P219767  28.417   9.237   6.523  0.1499 -0.1032  0.1622
 3295DDP     C219768  28.366   9.084   6.108  0.0599 -0.1839  0.0623
 3295DDP     C319769  27.958   9.254   7.422 -0.4509  0.0925 -0.0821
 3295DDP     C419770  28.702   9.629   7.151  0.0637 -0.1862  0.1424
 3296DDP     C119771  27.425  29.533  27.921  0.2068  0.0140 -0.2030
 3296DDP     P119772  27.095  29.299  28.151 -0.1793  0.3062 -0.0817
 3296DDP     P219773  27.473  29.887  28.134  0.1038 -0.1280 -0.3431
 3296DDP     C219774  27.619  29.976  28.584  0.1205 -0.0407 -0.0337
 3296DDP     C319775  26.623  29.459  28.309 -0.1213  0.1376 -0.2656
 3296DDP     C419776  27.409  29.557  27.497  0.3934 -0.0983 -0.1315
 3297DDP     C119777  25.005  13.711  10.167 -0.1113  0.5002  0.4874
 3297DDP     P119778  25.094  13.660  10.566  0.0030  0.1012  0.0058
 3297DDP     P219779  25.302  13.983  10.084  0.3752 -0.2090  0.2246
 3297DDP     C219780  25.302  14.459   9.868  0.3128  0.2137 -0.1989
 3297DDP     C319781  25.069  13.548  11.078 -0.4205 -0.1538 -0.0231
 3297DDP     C419782  24.613  13.614   9.864 -0.0300  0.0660 -0.2155
 3298DDP     C119783  24.809  10.305  25.850  0.4251  0.1484 -0.0962
 3298DDP     P119784  25.099  10.239  26.142 -0.0040 -0.1922  0.1301
 3298DDP     P219785  24.467  10.069  25.845  0.1358 -0.2520  0.1492
 3298DDP     C219786  24.053  10.097  25.711 -0.1670  0.0185 -0.0767
 3298DDP     C319787  25.410  10.235  26.510  0.0809  0.2484 -0.2253
 3298DDP     C419788  24.728  10.687  25.571 -0.1996 -0.3018  0.3406
 3299DDP     C119789  12.204   7.620  21.587 -0.0687  0.2591  0.1859
 3299DDP     P119790  11.737   7.483  21.575 -0.2207 -0.1190 -0.0159
 3299DDP     P219791  12.067   8.058  21.650 -0.0764 -0.3480 -0.1523
 3299DDP     C219792  11.999   8.531  21.768 -0.2025  0.1502  0.0873
 3299DDP     C319793  11.452   7.429  21.900 -0.0758  0.2708 -0.1580
 3299DDP     C419794  12.415   7.440  21.894 -0.0656  0.1627 -0.0802
 3300DDP     C119795   5.918  30.070   1.610  0.1473 -0.1370 -0.3234
 3300DDP     P119796   6.143  29.663   1.733  0.3404  0.0095  0.0505
 3300DDP     P219797   5.524  29.957   1.431 -0.0710 -0.1308 -0.1642
 3300DDP     C219798   5.111  29.990   1.294 -0.0455  0.1781 -0.0576
 3300DDP     C319799   6.038  29.241   1.965  0.1141  0.2342 -0.0157
 3300DDP     C419800   6.229   0.015   1.451 -0.1945 -0.3672 -0.0387
 3301DDP     C119801   8.088   3.039   4.261 -0.0648  0.0106  0.2370
 3301DDP     P119802   8.095   2.701   4.527 -0.2907  0.1991 -0.1001
 3301DDP     P219803   8.326   3.427   4.204  0.3255  0.0127 -0.1580
 3301DDP     C219804   8.294   3.850   4.341  0.2612 -0.0963 -0.2398
 3301DDP     C319805   8.024   2.322   4.805  0.0242 -0.0307 -0.0373
 3301DDP     C419806   7.728   3.245   4.221  0.0581  0.1764 -0.0567
 3302DDP     C119807  22.362  22.347   1.670 -0.0134  0.1269 -0.0236
 3302DDP     P119808  22.693  22.180   1.895 -0.0842  0.2137  0.1384
 3302DDP     P219809  22.274  22.776   1.681 -0.1198  0.1814 -0.1125
 3302DDP     C219810  22.367  23.189   1.668 -0.2120 -0.1953 -0.0724
 3302DDP     C319811  23.004  21.882   2.125  0.1281  0.2901 -0.3384
 3302DDP     C419812  22.208  22.065   1.280 -0.3955  0.0892  0.0093
 3303DDP     C119813  15.566  17.429  25.191  0.2093 -0.2161  0.1522
 3303DDP     P119814  15.308  17.488  25.528 -0.0510 -0.0881  0.1022
 3303DDP     P219815  15.350  17.130  24.909  0.0335  0.2931 -0.0648
 3303DDP     C219816  15.019  16.786  24.852  0.0639 -0.0147 -0.3724
 3303DDP     C319817  15.364  17.475  25.955  0.1648 -0.0178  0.1225
 3303DDP     C419818  15.984  17.495  25.327 -0.3084  0.1369  0.0327
 3304DDP     C119819   4.281   9.870  23.316 -0.0120 -0.2835  0.1514
 3304DDP     P119820   4.646   9.825  23.267  0.1412 -0.2061  0.0727
 3304DDP     P219821   4.270   9.948  22.927 -0.1460  0.0145  0.0867
 3304DDP     C219822   4.574  10.147  22.653  0.1024 -0.0998 -0.0466
 3304DDP     C319823   4.950   9.529  23.470  0.0284 -0.4668 -0.0429
 3304DDP     C419824   4.015   9.753  23.583 -0.0541  0.1080  0.1080
 3305DDP     C119825  11.170  20.111   3.302  0.1949  0.1351  0.1039
 3305DDP     P119826  10.862  20.229   3.492 -0.1963 -0.1684 -0.2075
 3305DDP     P219827  11.609  20.004   3.248  0.2129 -0.2437 -0.1119
 3305DDP     C219828  11.986  20.272   3.051  0.1544 -0.2221  0.0769
 3305DDP     C319829  10.589  20.606   3.492 -0.1352  0.1590  0.1418
 3305DDP     C419830  11.245  20.346   2.968  0.3430  0.2585 -0.3599
 3306DDP     C119831  14.205  23.430  29.351 -0.0688 -0.1905  0.0507
 3306DDP     P119832  14.156  23.445  29.690  0.0145  0.0402  0.0384
 3306DDP     P219833  14.567  23.333  29.340  0.1061 -0.2671  0.1628
 3306DDP     C219834  14.786  23.086  29.659 -0.2236 -0.0020 -0.0914
 3306DDP     C319835  14.379  23.246  29.967  0.1268 -0.1147 -0.1759
 3306DDP     C419836  14.092  23.248  29.071  0.0776 -0.1880 -0.1446
 3307DDP     C119837  11.421   0.909  22.542  0.0125 -0.1406  0.1787
 3307DDP     P119838  11.787   0.732  22.393 -0.0041  0.0216 -0.0560
 3307DDP     P219839  11.113   1.044  22.231  0.0578  0.2919 -0.1620
 3307DDP     C219840  10.990   0.845  21.799  0.0624 -0.0348 -0.2107
 3307DDP     C319841  11.892   0.394  22.572 -0.0515 -0.2329  0.2352
 3307DDP     C419842  11.399   1.015  22.972 -0.0353  0.0945 -0.0285
 3308DDP     C119843  22.622  15.274  17.097  0.2617 -0.0549  0.0385
 3308DDP     P119844  22.437  14.878  17.067 -0.3314  0.3609 -0.0894
 3308DDP     P219845  22.364  15.615  17.150 -0.0879 -0.0077  0.0069
 3308DDP     C219846  21.959  15.699  16.867  0.0266 -0.0711  0.0021
 3308DDP     C319847  22.148  14.746  16.790 -0.2239  0.2176  0.1917
 3308DDP     C419848  22.967  15.374  16.787  0.1457  0.0334 -0.1944
 3309DDP     C119849   0.958   3.656  11.418 -0.0959  0.2459  0.0313
 3309DDP     P119850   0.658   3.264  11.417  0.0826 -0.0748 -0.3435
 3309DDP     P219851   1.337   3.550  11.361  0.3968  0.3292  0.0273
 3309DDP     C219852   1.657   3.507  11.597 -0.0648 -0.0530  0.3636
 3309DDP     C319853   0.301   3.176  11.231  0.3106 -0.0859  0.3999
 3309DDP     C419854   0.729   4.058  11.375 -0.0311 -0.1654 -0.1459
 3310DDP     C119855  13.828  21.931  13.980  0.1033  0.0562  0.0835
 3310DDP     P119856  13.479  22.081  13.700 -0.0030 -0.1221  0.0242
 3310DDP     P219857  14.146  22.155  14.039  0.1486  0.1042 -0.1878
 3310DDP     C219858  14.562  22.396  14.136 -0.1333 -0.0112  0.2013
 3310DDP     C319859  13.134  22.466  13.608  0.0735 -0.0022  0.0218
 3310DDP     C419860  13.814  21.632  14.266  0.3275  0.0933 -0.0615
 3311DDP     C119861  17.328  22.982  23.606  0.5926 -0.0188  0.2034
 3311DDP     P119862  17.641  22.758  23.866  0.3332 -0.3377  0.4741
 3311DDP     P219863  16.934  22.778  23.554 -0.0651 -0.0803  0.0361
 3311DDP     C219864  16.620  22.533  23.857 -0.0177 -0.1339 -0.1772
 3311DDP     C319865  17.771  22.697  24.236 -0.0517 -0.0056 -0.0995
 3311DDP     C419866  17.325  23.187  23.322  0.0397 -0.2989  0.0006
 3312DDP     C119867  11.906  19.072  13.817 -0.2801 -0.1062 -0.0896
 3312DDP     P119868  12.367  19.062  13.653  0.2748 -0.2043  0.3033
 3312DDP     P219869  12.028  19.160  14.188  0.4062  0.0630 -0.1881
 3312DDP     C219870  12.055  19.614  14.343  0.0297 -0.3480  0.0672
 3312DDP     C319871  12.551  18.780  13.336  0.0445 -0.0167  0.1377
 3312DDP     C419872  11.531  19.165  13.601  0.1023 -0.0259 -0.0220
 3313DDP     C119873   4.323  18.595  10.251  0.0874 -0.0475 -0.0039
 3313DDP     P119874   4.490  18.306  10.558 -0.2738  0.1215 -0.0163
 3313DDP     P219875   4.314  18.977  10.336  0.1315 -0.1311  0.0376
 3313DDP     C219876   4.704  19.303  10.504 -0.2199  0.1889 -0.1259
 3313DDP     C319877   4.593  18.226  10.991  0.0039  0.0979  0.0704
 3313DDP     C419878   4.184  18.410   9.855  0.0571 -0.0440 -0.0426
 3314DDP     C119879   8.308   5.982  12.875 -0.1010  0.1128 -0.0821
 3314DDP     P119880   8.425   5.569  12.790  0.4791  0.0026 -0.1678
 3314DDP     P219881   8.344   6.470  12.739  0.1756  0.2911 -0.0428
 3314DDP     C219882   8.231   6.834  12.783 -0.0758 -0.3397 -0.0663
 3314DDP     C319883   8.418   5.088  12.825 -0.0038 -0.2747 -0.4158
 3314DDP     C419884   8.081   5.807  13.225 -0.1140 -0.0752  0.0678
 3315DDP     C119885  24.973  12.059  18.707  0.0360  0.0021 -0.0221
 3315DDP     P119886  25.359  11.918  18.609  0.1698 -0.1072 -0.1014
 3315DDP     P219887  24.935  12.275  19.103  0.1004  0.2996  0.0035
 3315DDP     C219888  25.133  12.646  19.230 -0.2351  0.0699 -0.0181
 3315DDP     C319889  25.696  11.647  18.626  0.0151  0.0122  0.1065
 3315DDP     C419890  24.578  12.037  18.419  0.0524 -0.1185  0.2583
 3316DDP     C119891  28.049   7.492  10.288  0.1992 -0.1752 -0.1376
 3316DDP     P119892  28.207   7.830  10.096  0.0866 -0.3983  0.1663
 3316DDP     P219893  28.321   7.245  10.506  0.3390  0.0239 -0.0030
 3316DDP     C219894  28.597   7.057  10.868  0.1345  0.0524  0.2359
 3316DDP     C319895  28.318   8.104   9.792  0.1939  0.0445  0.3207
 3316DDP     C419896  27.687   7.570  10.546 -0.1657 -0.1919 -0.2775
 3317DDP     C119897  29.412  17.936  16.339 -0.2605 -0.1404  0.0236
 3317DDP     P119898  29.661  18.330  16.477 -0.1584 -0.0506  0.0206
 3317DDP     P219899  29.061  18.293  16.181 -0.0955  0.2999 -0.3717
 3317DDP     C219900  28.783  18.493  16.412  0.1107 -0.1172  0.1713
 3317DDP     C319901  29.500  18.667  16.579 -0.4195  0.0751  0.1204
 3317DDP     C419902  29.500  17.635  16.731 -0.0916  0.2175  0.1676
 3318DDP     C119903  14.455  22.162  24.393 -0.0498  0.0013 -0.1789
 3318DDP     P119904  14.255  22.346  24.733 -0.1685  0.2090  0.2876
 3318DDP     P219905  14.149  22.083  24.174 -0.2197 -0.0186 -0.0795
 3318DDP     C219906  13.899  22.039  23.815 -0.0105  0.0272  0.0671
 3318DDP     C319907  14.176  22.684  24.926 -0.1250 -0.0428  0.1952
 3318DDP     C419908  14.935  22.253  24.156  0.2002 -0.0610 -0.1747
 3319DDP     C119909  29.320  16.150   6.588 -0.0369 -0.0391 -0.3546
 3319DDP     P119910  29.518  16.520   6.542  0.1078  0.2469 -0.1387
 3319DDP     P219911  29.568  15.853   6.490  0.1548 -0.0407  0.0704
 3319DDP     C219912  29.415  15.410   6.525  0.0345  0.0015 -0.0002
 3319DDP     C319913  29.506  16.906   6.414  0.2013  0.1987 -0.0316
 3319DDP     C419914  28.879  16.136   6.687 -0.0956 -0.3203 -0.2365
 3320DDP     C119915  22.490  14.070  19.811  0.2534 -0.1663  0.4515
 3320DDP     P119916  22.560  14.442  19.934 -0.2923  0.0600 -0.2737
 3320DDP     P219917  22.961  14.018  19.676  0.1271 -0.0565  0.0560
 3320DDP     C219918  23.330  13.789  19.615 -0.2313  0.2567 -0.2473
 3320DDP     C319919  22.221  14.846  19.964 -0.0132  0.3124 -0.1293
 3320DDP     C419920  22.108  13.992  19.430  0.1963 -0.3540  0.2436
 3321DDP     C119921  25.425  15.110  24.690  0.0005 -0.0173  0.0640
 3321DDP     P119922  24.984  15.203  24.789 -0.5441  0.1058  0.4266
 3321DDP     P219923  25.558  15.061  24.269 -0.0624 -0.0699  0.1359
 3321DDP     C219924  25.487  15.417  24.035  0.0208 -0.2703  0.0341
 3321DDP     C319925  24.673  14.956  24.502  0.1572  0.1672  0.3664
 3321DDP     C419926  25.679  15.277  25.040 -0.0344  0.0805 -0.1622
 3322DDP     C119927  19.506  10.162   3.635  0.2169 -0.2060 -0.1155
 3322DDP     P119928  19.574  10.146   4.157  0.1640 -0.0374 -0.1589
 3322DDP     P219929  19.092  10.188   3.445 -0.1322  0.2053 -0.2734
 3322DDP     C219930  18.947  10.342   3.089  0.0942 -0.1436  0.0095
 3322DDP     C319931  20.019  10.205   4.257  0.2752 -0.0741 -0.1483
 3322DDP     C419932  19.861  10.170   3.337 -0.0852 -0.0161 -0.2319
 3323DDP     C119933  16.818  22.272  25.262  0.1705  0.0533 -0.1685
 3323DDP     P119934  16.675  21.910  25.098  0.3604  0.2837  0.4329
 3323DDP     P219935  16.866  22.699  24.913  0.0863  0.0589  0.2958
 3323DDP     C219936  17.139  22.834  24.537 -0.2864 -0.0329 -0.1113
 3323DDP     C319937  16.303  21.703  24.947  0.0787  0.0019  0.0437
 3323DDP     C419938  17.172  22.199  25.568 -0.2421  0.0608  0.0352
 3324DDP     C119939  26.085  23.153  27.988  0.0497  0.0245 -0.0741
 3324DDP     P119940  25.775  23.115  28.244  0.2498 -0.1473  0.0168
 3324DDP     P219941  26.050  23.253  27.536  0.0850 -0.1181 -0.1999
 3324DDP     C219942  26.317  23.469  27.154  0.1505 -0.0717  0.1203
 3324DDP     C319943  25.463  23.164  28.621 -0.1912  0.0555  0.0004
 3324DDP     C419944  26.410  22.960  27.996 -0.0504 -0.1152 -0.1097
 3325DDP     C119945  16.854   7.049  20.493  0.1322  0.2823 -0.1203
 3325DDP     P119946  16.640   7.110  20.872  0.2014 -0.0671 -0.1944
 3325DDP     P219947  17.273   6.894  20.411 -0.0319  0.2118 -0.2697
 3325DDP     C219948  17.541   6.704  20.329 -0.2244  0.3152 -0.1597
 3325DDP     C319949  16.434   7.454  21.007  0.0897 -0.2440 -0.0710
 3325DDP     C419950  16.673   7.160  20.073  0.0665 -0.1151 -0.0111
 3326DDP     C119951   4.176  29.741  22.242 -0.3033  0.1519  0.1257
 3326DDP     P119952   4.316  30.191  22.116  0.4595  0.1355 -0.2743
 3326DDP     P219953   4.343  29.432  22.569 -0.3253 -0.1309 -0.0922
 3326DDP     C219954   4.174  29.365  22.913 -0.3141 -0.3548  0.1008
 3326DDP     C319955   4.277   0.315  22.204  0.0738  0.1702  0.0210
 3326DDP     C419956   3.966  29.373  22.072 -0.1502 -0.1240  0.0855
 3327DDP     C119957  30.164   6.358   9.846  0.1734  0.1797 -0.1215
 3327DDP     P119958  30.315   5.958   9.915  0.3184  0.1214  0.1727
 3327DDP     P219959  29.833   6.392   9.569  0.0373  0.0725  0.1238
 3327DDP     C219960  29.836   6.344   9.092  0.0334 -0.0624 -0.0796
 3327DDP     C319961   0.129   5.417   9.965 -0.1420  0.0877 -0.1929
 3327DDP     C419962   0.100   6.748   9.820  0.2193  0.3772 -0.0539
 3328DDP     C119963   6.670   3.348  23.924  0.0505 -0.0239 -0.0258
 3328DDP     P119964   6.233   3.450  23.916  0.1992  0.1317  0.0330
 3328DDP     P219965   7.039   3.539  24.278  0.1884 -0.0381  0.0755
 3328DDP     C219966   7.096   3.692  24.646  0.0059 -0.4302 -0.0608
 3328DDP     C319967   6.217   3.912  23.861 -0.0746 -0.1300 -0.0427
 3328DDP     C419968   6.826   2.969  23.599 -0.0853  0.0106 -0.3316
 3329DDP     C119969   1.152  18.982  20.703 -0.1196  0.2226  0.1016
 3329DDP     P119970   0.928  19.367  20.827 -0.5714  0.0679  0.0614
 3329DDP     P219971   0.962  18.664  20.520  0.1249 -0.0071  0.1717
 3329DDP     C219972   0.751  18.453  20.445 -0.0127 -0.1409 -0.2804
 3329DDP     C319973   0.562  19.433  21.029 -0.0655 -0.3028  0.0159
 3329DDP     C419974   1.526  18.927  20.670  0.0631  0.0873 -0.2186
 3330DDP     C119975  11.687   4.746   3.184 -0.0411  0.0636 -0.1105
 3330DDP     P119976  12.011   4.933   2.894 -0.1510 -0.1446  0.1594
 3330DDP     P219977  11.479   5.034   3.499 -0.0131  0.0416 -0.5274
 3330DDP     C219978  11.178   5.172   3.720  0.2350  0.1591  0.0524
 3330DDP     C319979  12.119   5.277   2.642 -0.0317 -0.0486 -0.0141
 3330DDP     C419980  11.557   4.298   3.021 -0.0547  0.1367 -0.2106
 3331DDP     C119981  17.259  14.459  29.260 -0.1047 -0.0312 -0.3117
 3331DDP     P119982  17.474  14.643  28.831  0.2434  0.1083  0.1250
 3331DDP     P219983  17.263  14.768  29.623 -0.0447  0.1033  0.2735
 3331DDP     C219984  17.018  14.870  30.104 -0.0237  0.0272 -0.3002
 3331DDP     C319985  17.576  14.741  28.404  0.0898  0.0383 -0.0163
 3331DDP     C419986  17.055  14.050  29.221  0.2870 -0.2543  0.0533
 3332DDP     C119987  23.200  20.920   8.102 -0.1884  0.0517  0.1398
 3332DDP     P119988  22.718  20.950   8.155 -0.2680  0.0483 -0.0570
 3332DDP     P219989  23.412  21.008   8.565  0.0096 -0.1686  0.1354
 3332DDP     C219990  23.230  20.690   9.034 -0.1758  0.4007 -0.3572
 3332DDP     C319991  22.450  20.748   8.418  0.2414 -0.0227  0.0080
 3332DDP     C419992  23.403  20.815   7.688 -0.2036  0.1083 -0.1427
 3333DDP     C119993  16.039  25.550   8.709  0.1442  0.0192 -0.4091
 3333DDP     P119994  15.573  25.501   8.495 -0.0255 -0.1774  0.1223
 3333DDP     P219995  16.312  25.221   8.838 -0.2388 -0.2218  0.1420
 3333DDP     C219996  16.313  24.725   8.735  0.1429  0.2252  0.0034
 3333DDP     C319997  15.263  25.720   8.771 -0.2218 -0.2706 -0.4193
 3333DDP     C419998  16.127  25.897   8.402 -0.2935 -0.0503 -0.0102
 3334DDP     C119999  16.605  24.947  29.349  0.4705 -0.0865 -0.0862
 3334DDP     P120000  16.797  25.209  29.068 -0.0627  0.0163  0.2903
 3334DDP     P220001  16.385  24.637  29.180  0.0890 -0.1595 -0.4021
 3334DDP     C220002  15.953  24.327  28.973  0.2193 -0.1045  0.1208
 3334DDP     C320003  17.003  25.160  28.646  0.2317  0.2584 -0.4378
 3334DDP     C420004  16.820  24.811  29.673  0.1260  0.1379 -0.1411
 3335DDP     C120005  18.777  19.214   2.138  0.3335  0.3421 -0.2376
 3335DDP     P120006  19.120  18.878   2.090  0.1942 -0.0710 -0.0921
 3335DDP     P220007  18.602  19.188   2.537  0.1475  0.0274 -0.2213
 3335DDP     C220008  18.528  18.947   2.913 -0.0552 -0.2121 -0.2031
 3335DDP     C320009  19.476  18.651   2.305  0.0631  0.0866  0.1905
 3335DDP     C420010  18.306  19.243   1.860 -0.0247  0.2156 -0.0772
 3336DDP     C120011   6.446  14.269   4.095  0.0244 -0.0631  0.2371
 3336DDP     P120012   6.239  13.875   3.868 -0.1096  0.1984  0.2807
 3336DDP     P220013   6.678  14.641   4.040  0.1463 -0.5301 -0.1084
 3336DDP     C220014   7.035  14.952   4.207 -0.1643  0.2364 -0.2109
 3336DDP     C320015   5.973  13.537   3.675 -0.0945  0.3703 -0.1243
 3336DDP     C420016   6.266  14.187   4.426  0.2804  0.0604  0.2420
 3337DDP     C120017  20.658  20.451  20.464  0.0945  0.0226  0.0353
 3337DDP     P120018  21.002  20.702  20.216 -0.3006 -0.3062 -0.3834
 3337DDP     P220019  20.631  20.265  20.864  0.1977  0.0153  0.0443
 3337DDP     C220020  20.566  20.450  21.292 -0.1635 -0.0024  0.1316
 3337DDP     C320021  21.299  20.983  20.028 -0.3517 -0.0735 -0.1034
 3337DDP     C420022  20.309  20.487  20.075  0.2378 -0.4717  0.0011
 3338DDP     C120023  24.501   6.776  28.617 -0.0133 -0.2419 -0.0322
 3338DDP     P120024  24.146   7.048  28.731 -0.1594  0.0162 -0.1182
 3338DDP     P220025  24.182   6.463  28.614  0.3502  0.0906  0.0481
 3338DDP     C220026  24.231   5.994  28.433 -0.1045 -0.0933  0.1254
 3338DDP     C320027  24.262   7.359  29.067  0.2487  0.0069 -0.0098
 3338DDP     C420028  24.976   6.704  28.480  0.2091 -0.0091 -0.1439
 3339DDP     C120029   9.770   4.429   3.593 -0.0087 -0.1954  0.1977
 3339DDP     P120030   9.911   4.086   3.375 -0.1647  0.2341 -0.1380
 3339DDP     P220031   9.404   4.513   3.474 -0.1027 -0.1708  0.3986
 3339DDP     C220032   8.960   4.633   3.493  0.0583 -0.1117 -0.1134
 3339DDP     C320033   9.769   3.736   3.169  0.1991 -0.0046 -0.1474
 3339DDP     C420034  10.099   4.632   3.896 -0.1544  0.0111 -0.1183
 3340DDP     C120035  24.504  18.481  19.836  0.3228  0.0490 -0.1213
 3340DDP     P120036  24.243  18.133  19.881  0.1269  0.0348 -0.2638
 3340DDP     P220037  24.893  18.409  19.578  0.1643  0.3844  0.1130
 3340DDP     C220038  25.126  18.748  19.426  0.0349  0.0368  0.0285
 3340DDP     C320039  24.171  17.829  20.137  0.2354  0.0118 -0.1086
 3340DDP     C420040  24.422  18.901  20.154 -0.0246 -0.1653  0.1644
 3341DDP     C120041  23.967  23.688  17.626 -0.2742  0.0022 -0.2967
 3341DDP     P120042  24.240  24.013  17.394 -0.0159 -0.0222  0.0475
 3341DDP     P220043  23.806  23.269  17.386 -0.0677  0.2949 -0.0318
 3341DDP     C220044  23.595  22.916  17.402 -0.1288 -0.4332  0.0880
 3341DDP     C320045  24.604  24.303  17.671 -0.0343 -0.0033 -0.2514
 3341DDP     C420046  23.693  23.733  17.972 -0.1782  0.0504 -0.1582
 3342DDP     C120047  15.512  27.351  25.054 -0.1864  0.0377  0.1637
 3342DDP     P120048  15.565  27.410  25.491 -0.1101  0.0197  0.2209
 3342DDP     P220049  15.634  26.974  24.775 -0.1484  0.1418 -0.1616
 3342DDP     C220050  15.659  26.967  24.339 -0.2495 -0.2578  0.0194
 3342DDP     C320051  15.120  27.635  25.655  0.3523 -0.1832  0.0988
 3342DDP     C420052  15.512  27.754  24.800  0.2487  0.0590 -0.0153
 3343DDP     C120053  21.468  13.795   4.983 -0.1477 -0.0654  0.2209
 3343DDP     P120054  21.640  13.620   4.634  0.2579  0.0092  0.0795
 3343DDP     P220055  21.099  13.842   4.794  0.1492  0.2331  0.0406
 3343DDP     C220056  20.708  13.749   4.475  0.2469  0.2683 -0.1343
 3343DDP     C320057  21.813  13.797   4.261  0.1987  0.0006 -0.0266
 3343DDP     C420058  21.580  13.916   5.326  0.2267  0.1407  0.0725
 3344DDP     C120059  19.302  16.414   0.202  0.3907  0.1895 -0.1517
 3344DDP     P120060  19.161  16.377  30.038 -0.3043 -0.3799 -0.3497
 3344DDP     P220061  19.569  16.631   0.281 -0.1807 -0.0794  0.1901
 3344DDP     C220062  19.896  16.471   0.379  0.2802  0.1315  0.0271
 3344DDP     C320063  18.951  16.094  29.619 -0.1231  0.4057 -0.2172
 3344DDP     C420064  19.248  16.075   0.533 -0.1378  0.1975  0.2357
 3345DDP     C120065   5.537  13.835  13.204 -0.0176 -0.0401 -0.1198
 3345DDP     P120066   5.117  13.955  13.333 -0.0929  0.0664 -0.1822
 3345DDP     P220067   5.805  13.684  13.391 -0.1079 -0.0367 -0.1402
 3345DDP     C220068   6.042  13.354  13.156 -0.1825  0.0553  0.3697
 3345DDP     C320069   5.037  14.135  13.748 -0.1113 -0.3552  0.1895
 3345DDP     C420070   5.659  13.597  12.841  0.1023 -0.1422 -0.0175
 3346DDP     C120071   5.269   0.621   0.726  0.1909 -0.0827  0.0273
 3346DDP     P120072   5.283   0.650   1.138  0.0761  0.0228 -0.1367
 3346DDP     P220073   5.159   0.271   0.500 -0.2415 -0.0120  0.0838
 3346DDP     C220074   5.124  30.143   0.307  0.1383  0.3712  0.3033
 3346DDP     C320075   5.149   0.486   1.465  0.3173  0.0325 -0.2724
 3346DDP     C420076   5.173   0.929   0.513  0.0614 -0.0282  0.0172
 3347DDP     C120077   6.758  28.446   7.310 -0.3222 -0.1309 -0.1351
 3347DDP     P120078   6.687  28.458   7.658 -0.0032  0.1303  0.0536
 3347DDP     P220079   6.555  28.114   7.163  0.0404 -0.0388  0.1240
 3347DDP     C220080   6.441  27.746   6.902 -0.3114  0.2893  0.1137
 3347DDP     C320081   6.318  28.397   7.963 -0.2043  0.1926  0.0308
 3347DDP     C420082   6.813  28.880   7.300 -0.4450 -0.1217 -0.0293
 3348DDP     C120083  25.514   2.229  17.389  0.1660  0.1615 -0.0473
 3348DDP     P120084  25.533   2.279  16.990 -0.3611 -0.0098 -0.1174
 3348DDP     P220085  25.177   1.944  17.529  0.0921  0.1939  0.2019
 3348DDP     C220086  24.780   1.953  17.623 -0.0577  0.0171  0.0212
 3348DDP     C320087  25.518   2.614  16.761  0.0414  0.2734 -0.1862
 3348DDP     C420088  25.833   2.406  17.549 -0.3181 -0.2037 -0.0135
 3349DDP     C120089   8.781  11.504   6.865 -0.0884 -0.2585 -0.3767
 3349DDP     P120090   8.788  11.193   7.266  0.0174  0.2011  0.4941
 3349DDP     P220091   9.196  11.484   6.623  0.0068  0.2547 -0.0691
 3349DDP     C220092   9.428  11.476   6.253  0.0757 -0.0038 -0.1572
 3349DDP     C320093   8.721  10.930   7.608  0.0483 -0.2456  0.1196
 3349DDP     C420094   8.428  11.819   7.091  0.1513  0.2772  0.0126
 3350DDP     C120095   3.432  15.502   0.459 -0.0526  0.1804  0.0387
 3350DDP     P120096   3.855  15.475   0.613 -0.1928  0.0108 -0.2948
 3350DDP     P220097   3.159  15.804   0.613  0.1429 -0.1119  0.0153
 3350DDP     C220098   2.882  16.136   0.713  0.2058 -0.0531 -0.0426
 3350DDP     C320099   4.366  15.549   0.629 -0.0973 -0.0269 -0.1083
 3350DDP     C420100   3.326  15.436   0.037  0.0249 -0.1361  0.0039
 3351DDP     C120101  18.108  18.464   8.799 -0.0939 -0.0692  0.0623
 3351DDP     P120102  17.681  18.505   8.809 -0.1812 -0.0641 -0.1092
 3351DDP     P220103  18.221  18.050   8.786 -0.2582  0.0516  0.0585
 3351DDP     C220104  18.376  17.696   8.668 -0.2387 -0.1117 -0.3084
 3351DDP     C320105  17.284  18.384   8.909 -0.1021 -0.0343 -0.0323
 3351DDP     C420106  18.341  18.781   8.943  0.1225  0.1181 -0.0580
 3352DDP     C120107  22.505  13.364   4.650  0.2226 -0.2990 -0.0536
 3352DDP     P120108  22.264  13.820   4.712  0.2303 -0.2384 -0.2762
 3352DDP     P220109  22.470  13.178   4.192 -0.1399  0.3957 -0.0686
 3352DDP     C220110  22.635  12.785   4.038 -0.0306 -0.1753 -0.4513
 3352DDP     C320111  22.184  13.951   5.096  0.0984 -0.1098  0.2205
 3352DDP     C420112  22.616  13.202   4.975 -0.1533  0.2132 -0.3776
 3353DDP     C120113   9.273  20.728  18.342 -0.2999  0.2568 -0.0951
 3353DDP     P120114   8.858  20.680  18.597 -0.1026  0.3533  0.3896
 3353DDP     P220115   9.482  20.995  17.972  0.2012 -0.0135  0.4409
 3353DDP     C220116   9.666  21.316  17.636  0.0806  0.2808  0.0518
 3353DDP     C320117   8.676  20.557  19.021  0.0561 -0.3650  0.1273
 3353DDP     C420118   9.666  20.658  18.557 -0.2023 -0.2303 -0.2363
 3354DDP     C120119  18.769   6.520   3.408  0.1477 -0.0665 -0.1444
 3354DDP     P120120  18.586   6.893   3.294 -0.0378 -0.1330  0.4567
 3354DDP     P220121  18.985   6.683   3.774 -0.0157  0.0662  0.2617
 3354DDP     C220122  19.181   6.532   4.254 -0.1066  0.2335 -0.0352
 3354DDP     C320123  18.167   6.993   3.262  0.1493  0.0792  0.0067
 3354DDP     C420124  18.721   6.327   3.009  0.1993 -0.5001 -0.2038
 3355DDP     C120125   2.093  11.388  29.306  0.1271  0.2003 -0.2656
 3355DDP     P120126   1.830  10.927  29.273 -0.0253 -0.2710 -0.1282
 3355DDP     P220127   1.883  11.787  29.017  0.0637  0.2873 -0.0496
 3355DDP     C220128   1.436  11.988  28.827  0.0837  0.0367  0.3763
 3355DDP     C320129   1.479  10.721  29.569 -0.0985 -0.4929  0.1053
 3355DDP     C420130   2.365  11.237  29.445 -0.2131 -0.1234 -0.0365
 3356DDP     C120131  15.576  19.603  13.533  0.0214  0.2226 -0.1890
 3356DDP     P120132  15.258  19.859  13.717 -0.2066 -0.0420 -0.1282
 3356DDP     P220133  15.992  19.692  13.718 -0.0496  0.2121 -0.3528
 3356DDP     C220134  16.326  19.867  13.628  0.2532  0.0609  0.1947
 3356DDP     C320135  15.045  20.266  13.502 -0.1262 -0.0997  0.2067
 3356DDP     C420136  15.401  19.210  13.413 -0.3366 -0.0633  0.1077
 3357DDP     C120137   1.116   3.470   6.926  0.0359  0.1242  0.2014
 3357DDP     P120138   0.721   3.426   6.701  0.1129  0.0259 -0.2109
 3357DDP     P220139   1.558   3.167   6.927 -0.0763 -0.0457 -0.0545
 3357DDP     C220140   1.719   2.778   6.752  0.2392  0.1514  0.0164
 3357DDP     C320141   0.499   3.621   6.260  0.2593 -0.2606  0.4177
 3357DDP     C420142   1.225   3.905   6.924  0.0607 -0.2488 -0.5027
 3358DDP     C120143  18.615  21.165   7.684 -0.1333  0.1278 -0.1182
 3358DDP     P120144  18.776  21.301   7.282 -0.2429 -0.0112 -0.0219
 3358DDP     P220145  18.807  20.857   7.887  0.2009  0.3045 -0.1795
 3358DDP     C220146  19.126  20.769   8.238  0.1515  0.0476 -0.0678
 3358DDP     C320147  19.073  21.381   7.161 -0.2996  0.2269 -0.0182
 3358DDP     C420148  18.489  21.579   7.927  0.0046 -0.1666 -0.1593
 3359DDP     C120149  23.469  27.212   2.796 -0.2565  0.1527 -0.0109
 3359DDP     P120150  23.356  27.358   2.387  0.3219  0.1155 -0.0765
 3359DDP     P220151  23.883  26.946   2.872  0.1570 -0.1030  0.0608
 3359DDP     C220152  24.168  27.053   2.580 -0.1102  0.2452  0.0541
 3359DDP     C320153  23.495  27.438   1.982  0.1539 -0.0882 -0.1566
 3359DDP     C420154  23.058  27.273   3.057  0.3351  0.4915 -0.3079
 3360DDP     C120155  25.856   5.688   4.307  0.2714  0.3024  0.1248
 3360DDP     P120156  25.609   5.949   4.074  0.1502  0.1312  0.2426
 3360DDP     P220157  25.774   5.325   4.319 -0.2598 -0.1130  0.0148
 3360DDP     C220158  25.695   4.948   4.045 -0.2343  0.1087 -0.1981
 3360DDP     C320159  25.479   6.225   3.678 -0.0486 -0.1630 -0.2315
 3360DDP     C420160  26.223   5.789   4.466  0.0984 -0.1389  0.0185
 3361DDP     C120161  16.112   7.359   6.875  0.1787  0.0184 -0.2385
 3361DDP     P120162  16.310   7.135   6.562  0.1089 -0.0029  0.0113
 3361DDP     P220163  16.253   7.755   6.805 -0.2030 -0.0394  0.0424
 3361DDP     C220164  16.398   8.138   6.595  0.0307 -0.2357  0.2083
 3361DDP     C320165  16.558   7.221   6.157  0.0987  0.0220 -0.0241
 3361DDP     C420166  16.065   7.137   7.183  0.3385  0.0547 -0.2115
 3362DDP     C120167  24.338   9.488  13.439  0.0377  0.2834  0.0692
 3362DDP     P120168  23.859   9.622  13.199  0.1177  0.2673 -0.0935
 3362DDP     P220169  24.653   9.699  13.270  0.2081 -0.0373 -0.3674
 3362DDP     C220170  24.715   9.861  12.926 -0.0936 -0.2508  0.2389
 3362DDP     C320171  23.673   9.508  12.777 -0.0656 -0.0595  0.2766
 3362DDP     C420172  24.318   9.212  13.805 -0.2646  0.2301 -0.1372
 3363DDP     C120173   5.132  22.834   4.432 -0.1693 -0.0410 -0.0273
 3363DDP     P120174   4.828  22.793   4.162 -0.0999 -0.3572  0.0939
 3363DDP     P220175   5.447  22.503   4.501  0.0879  0.0156 -0.1682
 3363DDP     C220176   5.844  22.558   4.528 -0.1578  0.0624 -0.0739
 3363DDP     C320177   4.493  22.456   4.163 -0.3180  0.2072  0.0067
 3363DDP     C420178   5.271  23.275   4.657 -0.0595 -0.1071 -0.1101
 3364DDP     C120179  12.673   9.498  10.853  0.0320  0.1099 -0.0255
 3364DDP     P120180  12.749   9.529  11.271  0.2363  0.3495 -0.0021
 3364DDP     P220181  12.993   9.635  10.562 -0.0363 -0.3775  0.1353
 3364DDP     C220182  13.199   9.322  10.322  0.4773  0.0500 -0.0198
 3364DDP     C320183  13.106   9.645  11.464 -0.0586 -0.1199  0.1536
 3364DDP     C420184  12.281   9.672  10.688 -0.1403  0.0846  0.2279
 3365DDP     C120185  17.209  13.623  19.967  0.0965  0.3206 -0.1171
 3365DDP     P120186  17.333  13.485  20.284  0.1674  0.1312 -0.0849
 3365DDP     P220187  17.163  14.105  19.847  0.0500 -0.1896  0.0436
 3365DDP     C220188  17.195  14.433  20.052  0.3493  0.0060 -0.2572
 3365DDP     C320189  17.505  13.640  20.702  0.1094 -0.2098  0.1265
 3365DDP     C420190  17.376  13.232  19.732  0.1569  0.1871  0.0513
 3366DDP     C120191  16.331   1.089  15.691  0.1649  0.3761 -0.1295
 3366DDP     P120192  16.145   1.208  15.283 -0.2414 -0.1799  0.1668
 3366DDP     P220193  16.602   1.330  15.962 -0.0423 -0.4109  0.1468
 3366DDP     C220194  16.801   1.727  15.945 -0.1436  0.0263  0.1180
 3366DDP     C320195  16.431   1.051  15.003 -0.1052 -0.0735 -0.1107
 3366DDP     C420196  16.195   0.735  15.830 -0.1573 -0.0680  0.0389
 3367DDP     C120197  18.721  28.012  29.905 -0.1039 -0.0330 -0.0524
 3367DDP     P120198  18.529  27.942  29.520 -0.0500 -0.2209  0.2391
 3367DDP     P220199  18.918  27.674  29.880  0.2085  0.0721  0.0817
 3367DDP     C220200  19.120  27.346  30.174  0.1405 -0.2054 -0.0141
 3367DDP     C320201  18.211  27.911  29.421  0.3520  0.0272 -0.0411
 3367DDP     C420202  18.478  28.317  30.213  0.2015  0.2542 -0.3353
 3368DDP     C120203   5.046   0.526  24.263 -0.0044  0.0534  0.3940
 3368DDP     P120204   5.138   0.843  23.904  0.0228  0.3797  0.0906
 3368DDP     P220205   4.712   0.486  24.552 -0.0186 -0.0081  0.0189
 3368DDP     C220206   4.306   0.272  24.620  0.0482 -0.2526  0.3289
 3368DDP     C320207   5.158   1.152  23.575  0.3950 -0.0048  0.1476
 3368DDP     C420208   5.365   0.218  24.362  0.0718 -0.1289 -0.3262
 3369DDP     C120209   9.597   7.162  22.954 -0.1752  0.0057 -0.0187
 3369DDP     P120210   9.895   7.489  23.011 -0.1407  0.1228 -0.1654
 3369DDP     P220211   9.404   7.330  22.644 -0.1540 -0.1334 -0.1947
 3369DDP     C220212   9.141   7.272  22.307  0.1051 -0.1591 -0.0299
 3369DDP     C320213  10.016   7.948  23.169  0.2201 -0.1503  0.1244
 3369DDP     C420214   9.434   6.868  23.165 -0.0286 -0.1750  0.1853
 3370DDP     C120215   3.458  22.311  28.438 -0.0050  0.2812  0.1067
 3370DDP     P120216   3.473  21.946  28.616  0.1746  0.0085 -0.2533
 3370DDP     P220217   3.032  22.431  28.370  0.0384  0.0139 -0.2477
 3370DDP     C220218   2.648  22.372  28.504 -0.0821 -0.2574 -0.0743
 3370DDP     C320219   3.376  21.543  28.554  0.0322  0.1734  0.1400
 3370DDP     C420220   3.852  22.325  28.211 -0.0187 -0.1603 -0.1128
 3371DDP     C120221  16.742  15.164   1.236  0.2386  0.2576 -0.0213
 3371DDP     P120222  16.291  15.202   1.026 -0.4014  0.2154  0.1097
 3371DDP     P220223  16.798  14.957   1.475  0.2626  0.0164  0.0904
 3371DDP     C220224  16.854  14.763   1.854 -0.0928  0.1168 -0.1429
 3371DDP     C320225  15.968  14.958   1.002  0.0647  0.3240  0.2661
 3371DDP     C420226  17.017  15.296   0.982 -0.1832 -0.0839 -0.1312
 3372DDP     C120227   5.640  12.551  13.498  0.0683  0.2587 -0.0883
 3372DDP     P120228   5.578  12.835  13.309 -0.0088 -0.1850  0.1761
 3372DDP     P220229   5.715  12.275  13.190 -0.1957 -0.1607 -0.1075
 3372DDP     C220230   5.403  11.895  13.060 -0.1486  0.0591 -0.1287
 3372DDP     C320231   5.715  13.101  12.955  0.3089  0.0231  0.3556
 3372DDP     C420232   5.541  12.440  13.969 -0.3147 -0.1776  0.1307
 3373DDP     C120233  11.224  26.005   7.565 -0.1340  0.2322  0.1800
 3373DDP     P120234  10.841  26.196   7.559 -0.0291 -0.0090 -0.3095
 3373DDP     P220235  11.577  25.852   7.301  0.1990 -0.1360 -0.3090
 3373DDP     C220236  11.738  25.347   7.171 -0.2747 -0.2029 -0.0721
 3373DDP     C320237  10.562  26.532   7.396 -0.3818 -0.0792 -0.3060
 3373DDP     C420238  11.465  26.024   7.901 -0.0326  0.2318 -0.1645
 3374DDP     C120239  11.589   8.780  21.911  0.0763  0.1129  0.0683
 3374DDP     P120240  11.207   9.118  21.940  0.1686 -0.0734 -0.2302
 3374DDP     P220241  11.588   8.566  21.519 -0.1139 -0.1305 -0.2130
 3374DDP     C220242  11.554   8.186  21.385 -0.3881  0.2047  0.2067
 3374DDP     C320243  11.012   9.560  22.075 -0.2496 -0.2537  0.2481
 3374DDP     C420244  11.700   8.623  22.163  0.0125 -0.1820 -0.0251
 3375DDP     C120245   4.310   8.283  16.164 -0.0073 -0.2389  0.0372
 3375DDP     P120246   4.098   7.986  16.353  0.0993 -0.0328  0.0221
 3375DDP     P220247   4.160   8.303  15.853  0.2576  0.0977  0.2372
 3375DDP     C220248   4.045   8.321  15.427 -0.2056  0.1523  0.0955
 3375DDP     C320249   3.884   7.923  16.782  0.2636 -0.1420 -0.1506
 3375DDP     C420250   4.665   8.368  16.338  0.0822  0.0627  0.0422
 3376DDP     C120251   3.250   0.131  25.243 -0.0698 -0.0272 -0.1924
 3376DDP     P120252   3.240   0.570  25.448  0.0542 -0.1979 -0.0907
 3376DDP     P220253   3.420   0.010  24.844  0.1537 -0.0206 -0.0984
 3376DDP     C220254   3.586   0.228  24.593 -0.0539  0.0151 -0.0815
 3376DDP     C320255   3.039   1.059  25.565 -0.0326  0.0880 -0.2238
 3376DDP     C420256   3.330  30.284  25.667 -0.1219  0.0289 -0.0469
 3377DDP     C120257   1.335  23.255   6.822 -0.1990  0.0665  0.2606
 3377DDP     P120258   1.543  23.169   7.161  0.1742 -0.1182 -0.0885
 3377DDP     P220259   1.503  23.590   6.619  0.1385  0.3130  0.1213
 3377DDP     C220260   1.450  23.624   6.164 -0.1749  0.2733 -0.4074
 3377DDP     C320261   1.760  23.134   7.691 -0.0880  0.2735  0.4394
 3377DDP     C420262   0.937  23.045   6.700  0.2295  0.1425 -0.0676
 3378DDP     C120263  10.832  13.711  23.430  0.0134 -0.3796  0.0456
 3378DDP     P120264  10.563  13.387  23.129 -0.2041 -0.5067  0.1020
 3378DDP     P220265  10.789  13.849  23.931  0.0638  0.3476  0.3523
 3378DDP     C220266  10.603  14.162  24.167 -0.0094 -0.0170 -0.1596
 3378DDP     C320267  10.369  13.089  23.020 -0.1422 -0.1310  0.0588
 3378DDP     C420268  10.825  14.119  23.146  0.2415  0.1166  0.1795
 3379DDP     C120269  11.871  12.252  24.199 -0.0968 -0.3172 -0.0445
 3379DDP     P120270  11.602  11.988  24.524  0.1120 -0.3005 -0.0532
 3379DDP     P220271  12.170  12.607  24.421 -0.3942 -0.2036  0.3456
 3379DDP     C220272  12.433  12.958  24.584 -0.2117  0.1523  0.1007
 3379DDP     C320273  11.318  12.049  24.801  0.0976 -0.0074 -0.0442
 3379DDP     C420274  11.686  12.150  23.814  0.2406 -0.5806  0.1723
 3380DDP     C120275   9.620  24.979  15.732 -0.0104 -0.1195  0.1192
 3380DDP     P120276   9.179  25.149  15.785  0.0089  0.0006  0.0836
 3380DDP     P220277   9.415  24.570  15.700  0.2576 -0.0496  0.2793
 3380DDP     C220278   9.129  24.186  15.847  0.0686  0.0312 -0.3483
 3380DDP     C320279   8.902  25.076  15.465 -0.3940  0.4631  0.2154
 3380DDP     C420280   9.887  25.004  15.415 -0.0973 -0.0829 -0.1695
 3381DDP     C120281  13.080  19.369  15.561  0.1078 -0.1257 -0.3479
 3381DDP     P120282  13.407  19.346  15.946  0.5515  0.2337 -0.1784
 3381DDP     P220283  13.149  19.581  15.227 -0.5024 -0.1708  0.0500
 3381DDP     C220284  13.322  19.987  14.954 -0.1288  0.3788 -0.1525
 3381DDP     C320285  13.370  19.334  16.342  0.0830  0.1970 -0.0615
 3381DDP     C420286  12.700  19.104  15.490  0.1501  0.1177 -0.1593
 3382DDP     C120287   8.557  21.405  22.294 -0.2568 -0.1349  0.1835
 3382DDP     P120288   8.223  21.338  22.620  0.0899  0.1437 -0.0477
 3382DDP     P220289   8.830  21.710  22.403 -0.1686  0.0131  0.2502
 3382DDP     C220290   9.065  21.845  22.865  0.1855 -0.0325 -0.1208
 3382DDP     C320291   8.147  21.109  22.972  0.3781  0.1149  0.1264
 3382DDP     C420292   8.605  21.349  21.940 -0.6160 -0.0919  0.0557
 3383DDP     C120293  15.845  19.852  14.932  0.1710  0.2116  0.1379
 3383DDP     P120294  15.840  20.209  14.684  0.1320  0.3467 -0.0344
 3383DDP     P220295  16.270  19.692  15.089 -0.2683 -0.1812  0.1684
 3383DDP     C220296  16.469  19.678  15.511 -0.1390  0.1158  0.3224
 3383DDP     C320297  15.744  20.604  14.547 -0.3314 -0.0218 -0.3071
 3383DDP     C420298  15.470  19.585  15.109 -0.0492  0.0104 -0.0022
 3384DDP     C120299  10.565   9.573  28.428  0.2158 -0.2550  0.2075
 3384DDP     P120300  10.328   9.996  28.235 -0.0090 -0.0862 -0.1163
 3384DDP     P220301  10.938   9.383  28.239  0.3157  0.0085  0.4081
 3384DDP     C220302  10.743   9.287  27.772  0.2312 -0.0753 -0.1191
 3384DDP     C320303  10.079  10.226  27.835 -0.1893 -0.2027  0.0984
 3384DDP     C420304  10.456   9.570  28.902  0.0292 -0.1949 -0.0645
 3385DDP     C120305  15.248  19.223  10.811  0.2200  0.1074 -0.1178
 3385DDP     P120306  14.840  19.321  10.660 -0.0890 -0.2330 -0.2905
 3385DDP     P220307  15.294  19.335  11.247  0.1655 -0.0666 -0.2958
 3385DDP     C220308  14.960  19.325  11.611  0.0601  0.1519  0.0453
 3385DDP     C320309  14.455  19.574  10.400 -0.2573 -0.2250 -0.1341
 3385DDP     C420310  15.541  18.985  10.671  0.0342  0.3787 -0.1920
 3386DDP     C120311  17.963  10.855   8.751 -0.0301 -0.2056 -0.1130
 3386DDP     P120312  18.262  10.865   9.052 -0.1811 -0.0669 -0.2973
 3386DDP     P220313  18.104  10.800   8.360  0.2457 -0.2719  0.3054
 3386DDP     C220314  17.835  10.903   8.020 -0.0831 -0.1228  0.1530
 3386DDP     C320315  18.558  10.664   9.126  0.0295  0.1721 -0.0814
 3386DDP     C420316  17.538  10.805   8.757  0.2056 -0.2226 -0.5514
 3387DDP     C120317   8.025   3.751  20.487  0.0508  0.2177  0.0285
 3387DDP     P120318   7.773   3.946  20.786 -0.0287 -0.1672 -0.0030
 3387DDP     P220319   8.080   4.097  20.154  0.2031 -0.0330 -0.2685
 3387DDP     C220320   7.680   4.244  19.929  0.0053  0.0531 -0.1201
 3387DDP     C320321   7.733   4.399  20.999 -0.1072  0.1398  0.2777
 3387DDP     C420322   8.349   3.409  20.638 -0.1813 -0.1826  0.0272
 3388DDP     C120323  18.111  29.544  12.579 -0.1211  0.1093  0.0243
 3388DDP     P120324  18.339  29.742  12.335 -0.0922 -0.0918  0.0990
 3388DDP     P220325  17.737  29.682  12.504  0.3166 -0.1129  0.0618
 3388DDP     C220326  17.369  29.524  12.423  0.1607 -0.2394 -0.0514
 3388DDP     C320327  18.608  30.010  12.567 -0.0230  0.1305  0.1144
 3388DDP     C420328  18.391  29.340  12.807  0.0611  0.1112  0.0069
 3389DDP     C120329  12.356   8.163  21.207 -0.2324 -0.1202 -0.0812
 3389DDP     P120330  12.211   7.828  21.067  0.0305  0.0335 -0.3098
 3389DDP     P220331  11.995   8.415  21.202 -0.0850  0.0302  0.2952
 3389DDP     C220332  11.768   8.389  20.763 -0.0813  0.0201 -0.1087
 3389DDP     C320333  12.056   7.688  20.709 -0.2670  0.2689  0.2797
 3389DDP     C420334  12.766   8.428  21.205  0.1040 -0.0001 -0.0986
 3390DDP     C120335  16.890  29.006  13.220  0.1407 -0.0917  0.0347
 3390DDP     P120336  16.911  28.822  13.571 -0.1843 -0.1242 -0.0836
 3390DDP     P220337  16.497  28.999  12.977  0.0927 -0.1998  0.0100
 3390DDP     C220338  16.400  28.947  12.529 -0.0734 -0.0976  0.1970
 3390DDP     C320339  17.166  28.919  13.998 -0.2203  0.0320  0.0491
 3390DDP     C420340  17.218  29.125  12.928  0.1037 -0.0361  0.2827
 3391DDP     C120341   8.861   9.208   6.192  0.0067 -0.1341 -0.2048
 3391DDP     P120342   8.638   8.841   6.348 -0.1848  0.0651 -0.2310
 3391DDP     P220343   8.987   9.408   5.774 -0.0906  0.2386 -0.2347
 3391DDP     C220344   8.965   9.360   5.369 -0.0466 -0.0009 -0.0292
 3391DDP     C320345   8.488   8.462   6.326 -0.0449  0.4465  0.0123
 3391DDP     C420346   8.940   9.602   6.491 -0.0700  0.2802 -0.3034
 3392DDP     C120347  28.668   3.752   1.977 -0.1383 -0.1743 -0.0834
 3392DDP     P120348  28.507   3.991   2.342 -0.1043  0.0163  0.0449
 3392DDP     P220349  29.044   3.640   2.122 -0.3062  0.0098 -0.1265
 3392DDP     C220350  29.508   3.605   2.123 -0.0638  0.0176 -0.1798
 3392DDP     C320351  28.493   3.854   2.726 -0.0299  0.0366 -0.2604
 3392DDP     C420352  28.249   3.651   1.682  0.0383 -0.0272  0.1313
 3393DDP     C120353  13.722  29.644   0.837 -0.0363  0.0642  0.0364
 3393DDP     P120354  13.862  30.045   1.137 -0.1491  0.1355  0.0556
 3393DDP     P220355  13.431  29.279   0.945 -0.2103  0.0503  0.0240
 3393DDP     C220356  13.350  28.800   0.856 -0.0287  0.2002 -0.2492
 3393DDP     C320357  14.161  -0.012   1.292 -0.0740 -0.0157  0.1007
 3393DDP     C420358  14.044  29.478   0.518  0.1294  0.1658  0.0250
 3394DDP     C120359  26.766  30.272  21.746  0.1961 -0.0650  0.0887
 3394DDP     P120360  26.718  30.135  21.371 -0.0460 -0.3514 -0.0897
 3394DDP     P220361  26.424  30.120  22.065  0.0806 -0.3029  0.2154
 3394DDP     C220362  26.477  29.782  22.290  0.2031  0.0525 -0.0821
 3394DDP     C320363  26.803  30.068  20.943  0.0839 -0.0829  0.1341
 3394DDP     C420364  27.186  30.290  21.965  0.1361 -0.2015  0.0159
 3395DDP     C120365   1.550   6.752  27.593  0.1385 -0.3082  0.0679
 3395DDP     P120366   1.287   6.587  27.351  0.0256  0.1196 -0.0000
 3395DDP     P220367   1.932   6.665  27.516 -0.3381  0.0975 -0.1470
 3395DDP     C220368   2.194   6.560  27.247 -0.0385 -0.0314 -0.1167
 3395DDP     C320369   1.007   6.373  27.619 -0.1520 -0.0055 -0.2143
 3395DDP     C420370   1.455   7.207  27.916  0.1588 -0.1454  0.1333
 3396DDP     C120371   1.217   6.079  29.422 -0.3273 -0.1379  0.0575
 3396DDP     P120372   0.911   5.864  29.515 -0.0701  0.0466 -0.1904
 3396DDP     P220373   1.507   5.870  29.635 -0.1040  0.2205  0.1940
 3396DDP     C220374   1.829   5.643  29.470 -0.1980  0.0680  0.1418
 3396DDP     C320375   0.441   5.773  29.729 -0.2034  0.2516 -0.0870
 3396DDP     C420376   1.217   6.513  29.226 -0.2780 -0.3221  0.1354
 3397DDP     C120377   2.821  17.445   7.400  0.2621  0.1501 -0.1656
 3397DDP     P120378   3.006  17.463   7.056  0.1315  0.0979 -0.1368
 3397DDP     P220379   2.799  17.008   7.596  0.2600  0.1253 -0.0693
 3397DDP     C220380   2.630  16.974   7.971  0.0565 -0.3144 -0.1778
 3397DDP     C320381   3.462  17.329   6.913 -0.2732 -0.2030  0.1989
 3397DDP     C420382   2.345  17.640   7.528 -0.1009  0.1316 -0.2317
 3398DDP     C120383  10.377   2.496  28.421 -0.1437 -0.1492 -0.0686
 3398DDP     P120384  10.052   2.577  28.517 -0.2114  0.1380  0.0006
 3398DDP     P220385  10.508   2.258  28.101  0.1721  0.2369  0.1800
 3398DDP     C220386  10.512   1.758  28.005 -0.2018  0.2958  0.3126
 3398DDP     C320387   9.623   2.695  28.264 -0.0193  0.0447  0.2085
 3398DDP     C420388  10.657   2.786  28.436 -0.1073  0.0514  0.0906
 3399DDP     C120389   1.560   6.564   1.081 -0.1742  0.2528 -0.4849
 3399DDP     P120390   1.225   6.311   0.957  0.1473  0.1359 -0.1254
 3399DDP     P220391   1.470   7.056   0.944 -0.0597  0.0438 -0.0051
 3399DDP     C220392   1.614   7.470   0.834  0.1357 -0.0918  0.0194
 3399DDP     C320393   1.048   6.233   0.516  0.0269 -0.0373 -0.1392
 3399DDP     C420394   1.744   6.448   1.529 -0.2302 -0.1099  0.1706
 3400DDP     C120395  11.063  10.928   9.139 -0.0428  0.2900  0.2995
 3400DDP     P120396  11.148  11.096   8.765 -0.0729  0.2307 -0.3275
 3400DDP     P220397  10.615  11.067   9.354  0.1618  0.0778  0.0241
 3400DDP     C220398  10.282  11.185   9.374  0.0710  0.0339  0.0924
 3400DDP     C320399  11.277  11.382   8.585  0.3662  0.0529  0.3047
 3400DDP     C420400  11.222  10.488   9.267  0.2810 -0.4216 -0.2452
 3401DDP     C120401  15.617   5.687  14.598 -0.0021  0.1180  0.1606
 3401DDP     P120402  15.421   6.113  14.635  0.1911  0.2294 -0.0900
 3401DDP     P220403  15.524   5.272  14.391 -0.0185  0.1967 -0.0601
 3401DDP     C220404  15.135   5.056  14.444 -0.0851  0.2606  0.1086
 3401DDP     C320405  15.327   6.440  14.981 -0.1570  0.0655 -0.2465
 3401DDP     C420406  16.027   5.850  14.607 -0.2502 -0.1800 -0.2775
 3402DDP     C120407  25.302  16.776  27.325 -0.1807 -0.3855  0.0754
 3402DDP     P120408  24.968  16.622  27.526  0.0247  0.0504 -0.0288
 3402DDP     P220409  25.411  17.242  27.385  0.0885  0.0727  0.1522
 3402DDP     C220410  25.287  17.516  27.759  0.1854  0.1396  0.0609
 3402DDP     C320411  24.651  16.417  27.702  0.3201 -0.0940  0.2451
 3402DDP     C420412  25.457  16.550  26.943 -0.0028  0.1593 -0.1544
 3403DDP     C120413  19.070  26.014   7.358  0.0271 -0.1288 -0.2843
 3403DDP     P120414  18.675  26.066   7.257  0.2884 -0.0353  0.3165
 3403DDP     P220415  19.228  26.280   7.720 -0.0334  0.1351  0.3142
 3403DDP     C220416  19.356  26.474   8.096 -0.0396  0.0061  0.0398
 3403DDP     C320417  18.294  26.191   7.345 -0.0325  0.2139  0.0627
 3403DDP     C420418  19.379  25.709   7.223  0.0672 -0.0876  0.0431
 3404DDP     C120419  26.359  22.032  16.988 -0.1290  0.0848  0.0781
 3404DDP     P120420  25.997  22.164  17.101 -0.0387  0.2024  0.2127
 3404DDP     P220421  26.581  21.812  17.322  0.2115  0.0928 -0.3131
 3404DDP     C220422  26.629  21.525  17.617  0.1907  0.0124  0.0448
 3404DDP     C320423  25.470  22.380  16.971  0.1983 -0.0244  0.2933
 3404DDP     C420424  26.670  22.274  16.677 -0.0231 -0.1207  0.1515
 3405DDP     C120425  25.642  18.739  12.123 -0.0803  0.0038 -0.0639
 3405DDP     P120426  25.370  18.277  12.147  0.1612 -0.3625 -0.1298
 3405DDP     P220427  26.012  18.718  12.348  0.3196  0.0130  0.5411
 3405DDP     C220428  26.152  18.605  12.811  0.2465  0.0537 -0.0386
 3405DDP     C320429  25.011  17.960  12.094 -0.3747  0.1613 -0.4823
 3405DDP     C420430  25.540  19.056  11.885  0.0413  0.0145  0.1318
 3406DDP     C120431  16.418  22.349  24.822 -0.3665  0.0593 -0.2698
 3406DDP     P120432  16.809  22.235  24.774 -0.0019  0.1945  0.0450
 3406DDP     P220433  16.235  22.264  24.525  0.1600 -0.2325 -0.1341
 3406DDP     C220434  15.922  22.173  24.240 -0.1664  0.1480 -0.2824
 3406DDP     C320435  17.279  22.291  24.645 -0.1996  0.1049 -0.1563
 3406DDP     C420436  16.263  22.563  25.175 -0.1467  0.2098  0.2411
 3407DDP     C120437  14.149   2.053   8.140  0.3528 -0.0067 -0.2393
 3407DDP     P120438  14.386   1.701   7.969  0.1723 -0.0338  0.0922
 3407DDP     P220439  13.907   2.216   7.950  0.1372 -0.0219 -0.1522
 3407DDP     C220440  13.585   2.122   7.671 -0.3690  0.1120 -0.2472
 3407DDP     C320441  14.686   1.469   8.262 -0.0109 -0.0166  0.0834
 3407DDP     C420442  14.118   2.149   8.685  0.1298 -0.3409 -0.0210
 3408DDP     C120443   2.026  27.891  24.362 -0.0843 -0.0979  0.2177
 3408DDP     P120444   1.770  28.177  24.301 -0.2219  0.2049 -0.1826
 3408DDP     P220445   2.364  27.865  24.123  0.1320 -0.0042  0.0357
 3408DDP     C220446   2.481  27.495  23.908 -0.1437  0.0317  0.1408
 3408DDP     C320447   1.585  28.492  24.143  0.1506 -0.1540  0.0540
 3408DDP     C420448   2.031  27.777  24.871  0.2290 -0.0359 -0.1996
 3409DDP     C120449  10.159   0.330  30.142 -0.0169 -0.2954 -0.0380
 3409DDP     P120450   9.883   0.876  30.135 -0.2427  0.2145  0.0817
 3409DDP     P220451  10.303   0.167   0.215 -0.0545  0.0816  0.0212
 3409DDP     C220452  10.657  30.338   0.529 -0.1373  0.2927  0.0397
 3409DDP     C320453   9.635   1.243   0.109  0.0105  0.1630 -0.3289
 3409DDP     C420454  10.165  30.332  29.736  0.0689  0.2169 -0.2497
 3410DDP     C120455  26.361  11.109  20.855  0.2778 -0.1334 -0.1102
 3410DDP     P120456  26.509  10.866  21.131 -0.1287  0.1534 -0.3207
 3410DDP     P220457  26.648  11.460  20.911  0.5647  0.0163  0.3303
 3410DDP     C220458  26.863  11.796  21.222  0.3528  0.0865  0.1257
 3410DDP     C320459  26.659  10.512  21.078  0.0274 -0.2179 -0.3129
 3410DDP     C420460  26.102  10.877  20.434  0.0575 -0.2315 -0.0535
 3411DDP     C120461  29.411  22.935  16.257 -0.2280  0.0390 -0.2841
 3411DDP     P120462  29.561  23.198  16.557 -0.1611  0.2010  0.0489
 3411DDP     P220463  29.353  22.479  16.526  0.0191 -0.0186 -0.0840
 3411DDP     C220464  29.375  21.971  16.490 -0.0453 -0.0284  0.3819
 3411DDP     C320465  29.245  23.257  16.928  0.1067 -0.1987  0.0598
 3411DDP     C420466  29.157  22.969  15.873 -0.0412  0.0098 -0.2458
 3412DDP     C120467  15.030  28.912  29.542 -0.2187  0.0865 -0.1683
 3412DDP     P120468  14.699  28.933  29.370  0.1747 -0.3450 -0.0040
 3412DDP     P220469  15.217  28.955  30.024  0.1857  0.2190 -0.2449
 3412DDP     C220470  15.226  28.610   0.066 -0.1732  0.5481 -0.3171
 3412DDP     C320471  14.284  28.964  29.469  0.0000  0.2537  0.1126
 3412DDP     C420472  15.278  28.883  29.134 -0.1060 -0.2701  0.0125
 3413DDP     C120473   4.268  30.347  15.093 -0.0538  0.3174  0.0632
 3413DDP     P120474   4.266  29.900  15.161 -0.0992  0.1342 -0.2180
 3413DDP     P220475   4.091   0.352  15.354 -0.1266 -0.1380 -0.1162
 3413DDP     C220476   4.280   0.754  15.403 -0.1811 -0.0901 -0.0008
 3413DDP     C320477   4.596  29.568  15.432  0.2375 -0.1365 -0.3706
 3413DDP     C420478   4.391  30.278  14.588 -0.1050 -0.1049  0.1384
 3414DDP     C120479  28.664  14.258  26.614 -0.2079 -0.0481 -0.0826
 3414DDP     P120480  28.648  14.078  26.129  0.1951 -0.0514 -0.4867
 3414DDP     P220481  28.595  14.735  26.662 -0.1401  0.1544 -0.5410
 3414DDP     C220482  28.876  15.115  26.639 -0.1179  0.1493 -0.1808
 3414DDP     C320483  29.080  14.190  25.960 -0.4028 -0.0333  0.3193
 3414DDP     C420484  28.526  14.140  26.936  0.0147 -0.2000  0.1265
 3415DDP     C120485   5.702  25.454   0.098 -0.1318  0.1296  0.2787
 3415DDP     P120486   5.226  25.292   0.011 -0.1591 -0.3131 -0.1745
 3415DDP     P220487   5.726  25.859   0.106  0.0769 -0.3393  0.1368
 3415DDP     C220488   5.904  26.067  29.972  0.0350  0.0239  0.1997
 3415DDP     C320489   4.753  25.533  30.283 -0.2706 -0.4618 -0.0246
 3415DDP     C420490   5.922  25.193   0.411  0.1363  0.2067  0.3378
 3416DDP     C120491   3.131   0.523  14.151  0.0887  0.0691 -0.1293
 3416DDP     P120492   3.121   0.943  14.153  0.1556  0.0721  0.1609
 3416DDP     P220493   3.565   0.478  14.221  0.0909 -0.0670  0.1359
 3416DDP     C220494   3.828   0.675  14.511 -0.0266 -0.6186 -0.0098
 3416DDP     C320495   3.270   1.523  14.214  0.4549  0.0716 -0.1959
 3416DDP     C420496   2.856   0.213  14.248 -0.0498  0.0527  0.1272
 3417DDP     C120497   7.600   7.689  20.893  0.0385 -0.1242 -0.3434
 3417DDP     P120498   7.209   7.795  20.626  0.1610 -0.3282 -0.3120
 3417DDP     P220499   7.588   7.259  20.809 -0.1450  0.2281 -0.1029
 3417DDP     C220500   7.642   6.968  20.481  0.0566  0.0330  0.1432
 3417DDP     C320501   6.700   8.038  20.627 -0.0529  0.0352  0.1229
 3417DDP     C420502   7.956   7.903  21.106 -0.1612  0.1781 -0.1137
 3418DDP     C120503   7.691   2.851   2.370  0.2196  0.0233 -0.1965
 3418DDP     P120504   7.731   3.177   2.545  0.1494  0.1615  0.3186
 3418DDP     P220505   7.745   2.597   1.957 -0.2838  0.1046  0.1291
 3418DDP     C220506   7.576   2.410   1.512  0.1456 -0.0658 -0.2136
 3418DDP     C320507   8.066   3.447   2.770 -0.1757 -0.0761 -0.1815
 3418DDP     C420508   7.312   2.748   2.548 -0.0275  0.1341 -0.0215
 3419DDP     C120509   1.319   7.650   6.216 -0.3572  0.1002 -0.2280
 3419DDP     P120510   1.375   8.116   6.294  0.1048  0.1643  0.2131
 3419DDP     P220511   1.350   7.668   5.788  0.0871  0.2434  0.3722
 3419DDP     C220512   1.250   7.570   5.353 -0.0657  0.3129 -0.0534
 3419DDP     C320513   1.125   8.560   6.192  0.3899  0.0719  0.1187
 3419DDP     C420514   1.400   7.270   6.520  0.1660 -0.1421  0.0449
 3420DDP     C120515   4.236  17.227  15.683 -0.1676  0.0827  0.2638
 3420DDP     P120516   4.670  17.038  15.712  0.1394  0.3318 -0.2342
 3420DDP     P220517   4.167  17.168  15.275 -0.1773 -0.1506 -0.0652
 3420DDP     C220518   4.350  17.415  14.910  0.0583  0.2706 -0.0970
 3420DDP     C320519   5.073  16.768  15.563 -0.0804  0.1765  0.1824
 3420DDP     C420520   4.046  17.557  15.953 -0.1040  0.1586  0.1119
 3421DDP     C120521  13.697   6.500  29.391 -0.0216 -0.1452 -0.0124
 3421DDP     P120522  13.415   6.891  29.526 -0.2688 -0.1904  0.2134
 3421DDP     P220523  13.831   6.442  28.951 -0.1139  0.1932 -0.0728
 3421DDP     C220524  13.830   6.352  28.570 -0.1396 -0.0616 -0.1727
 3421DDP     C320525  13.410   6.988  29.977 -0.0882 -0.2960 -0.2593
 3421DDP     C420526  13.638   6.088  29.735  0.0905  0.1329  0.3209
 3422DDP     C120527  19.770  25.669  24.792  0.0745  0.0082 -0.0215
 3422DDP     P120528  19.315  25.563  24.660 -0.0668 -0.0978 -0.1722
 3422DDP     P220529  19.921  26.039  24.798 -0.1505  0.3088  0.1458
 3422DDP     C220530  20.123  26.320  24.519  0.2625 -0.0139 -0.0883
 3422DDP     C320531  18.881  25.685  24.750  0.1760  0.1418  0.0100
 3422DDP     C420532  20.147  25.391  24.524  0.1080 -0.0445  0.2968
 3423DDP     C120533  15.059  13.093  17.601  0.0160  0.3089  0.2591
 3423DDP     P120534  14.826  12.852  17.743 -0.2679 -0.0295 -0.0704
 3423DDP     P220535  15.553  12.973  17.576 -0.1248  0.1299 -0.1263
 3423DDP     C220536  15.848  12.975  17.301  0.3172  0.0338  0.1364
 3423DDP     C320537  14.823  12.432  17.962  0.2655  0.1127 -0.1355
 3423DDP     C420538  14.984  13.552  17.694  0.0108 -0.0305  0.4163
 3424DDP     C120539   7.957   2.765  19.302  0.0187  0.1838 -0.1428
 3424DDP     P120540   8.289   2.730  18.916 -0.2331 -0.1924 -0.1827
 3424DDP     P220541   8.058   2.514  19.631 -0.1927  0.2076  0.3743
 3424DDP     C220542   8.235   2.161  19.886 -0.0046  0.0104 -0.0696
 3424DDP     C320543   8.571   2.979  18.701  0.3481  0.1296 -0.0553
 3424DDP     C420544   7.585   2.894  19.289  0.0746  0.0456 -0.2140
 3425DDP     C120545   4.139  15.874  12.345  0.2714 -0.5020  0.1175
 3425DDP     P120546   4.533  16.184  12.322  0.0317  0.3457 -0.1208
 3425DDP     P220547   3.821  16.015  12.557  0.0533  0.3512 -0.3440
 3425DDP     C220548   3.496  16.330  12.409 -0.1261 -0.0621 -0.2099
 3425DDP     C320549   4.851  16.399  12.203 -0.0667  0.2802 -0.0810
 3425DDP     C420550   4.165  15.449  12.156 -0.3053  0.0165  0.0031
 3426DDP     C120551  21.530  21.784  16.996  0.0712 -0.0232  0.1275
 3426DDP     P120552  21.892  22.020  16.993 -0.0071  0.2041  0.0431
 3426DDP     P220553  21.539  21.446  17.300  0.0447 -0.0064  0.1462
 3426DDP     C220554  21.309  21.095  17.250 -0.0002 -0.0853 -0.1975
 3426DDP     C320555  22.139  22.320  16.803  0.1832 -0.1625 -0.2359
 3426DDP     C420556  21.535  21.700  16.581 -0.0174  0.1417 -0.0531
 3427DDP     C120557  17.122  29.120  23.928  0.1455  0.1310 -0.2095
 3427DDP     P120558  16.819  28.971  24.324  0.0879  0.0311  0.3306
 3427DDP     P220559  17.646  29.177  24.044 -0.1971  0.0239 -0.1320
 3427DDP     C220560  18.054  29.402  24.203  0.0229  0.1497 -0.0325
 3427DDP     C320561  16.869  28.567  24.348 -0.0067 -0.3809  0.0262
 3427DDP     C420562  17.018  28.899  23.480 -0.0187  0.0378 -0.0151
 3428DDP     C120563  15.076   9.811  20.621  0.2583 -0.3501  0.2260
 3428DDP     P120564  15.029   9.435  20.344 -0.2610 -0.0562  0.0111
 3428DDP     P220565  15.400  10.115  20.578 -0.0061  0.2157 -0.1587
 3428DDP     C220566  15.783   9.801  20.487  0.0207 -0.1557 -0.2962
 3428DDP     C320567  14.886   9.157  19.956  0.3154  0.1342  0.0029
 3428DDP     C420568  14.609   9.958  20.812  0.3089 -0.1595  0.0063
 3429DDP     C120569  28.509  10.384   3.660  0.2939 -0.1464  0.1579
 3429DDP     P120570  28.601  10.791   3.748  0.1021  0.1103  0.1642
 3429DDP     P220571  28.099  10.505   3.474 -0.1948  0.0393  0.0946
 3429DDP     C220572  27.763  10.595   3.758  0.1253  0.1396  0.0051
 3429DDP     C320573  28.925  10.914   4.017  0.1870 -0.2612 -0.1563
 3429DDP     C420574  28.777  10.055   3.639 -0.0021 -0.0346  0.0671
 3430DDP     C120575  14.900   0.170   7.330 -0.3508  0.2053  0.2072
 3430DDP     P120576  15.311  30.307   7.542  0.0157  0.0352 -0.1838
 3430DDP     P220577  14.471   0.303   7.357 -0.0150 -0.2788 -0.0103
 3430DDP     C220578  14.477   0.657   7.113  0.0231 -0.1936 -0.0475
 3430DDP     C320579  15.716  -0.022   7.538 -0.2945 -0.1245 -0.2121
 3430DDP     C420580  14.922   0.573   7.073  0.0262 -0.0434  0.1823
 3431DDP     C120581   0.490  27.292   5.992 -0.3090 -0.0398 -0.3074
 3431DDP     P120582   0.610  27.757   5.992 -0.2367 -0.0956  0.0333
 3431DDP     P220583   0.668  26.975   5.735  0.1340  0.1009 -0.0716
 3431DDP     C220584   0.842  26.474   5.666 -0.2036 -0.0401  0.4224
 3431DDP     C320585   0.716  28.208   5.922 -0.1051  0.0389 -0.0038
 3431DDP     C420586   0.371  27.067   6.357  0.1591 -0.0097 -0.0367
 3432DDP     C120587  12.718   9.487  28.535 -0.1610  0.0242  0.2570
 3432DDP     P120588  12.804   9.437  28.920 -0.0524  0.1193 -0.1310
 3432DDP     P220589  13.041   9.564  28.293 -0.0988 -0.2010  0.2155
 3432DDP     C220590  13.184   9.893  28.026  0.0363  0.2214  0.0618
 3432DDP     C320591  13.161   9.285  29.151 -0.2039  0.0905 -0.2515
 3432DDP     C420592  12.339   9.374  28.519  0.1001  0.1926 -0.2642
 3433DDP     C120593  10.136   6.277  29.516  0.2126  0.0844  0.0145
 3433DDP     P120594   9.947   6.515  29.857  0.2301 -0.3867  0.0839
 3433DDP     P220595   9.999   5.970  29.481  0.0889 -0.1144  0.0787
 3433DDP     C220596  10.321   5.634  29.636  0.1469  0.0246  0.2821
 3433DDP     C320597   9.687   6.694  30.186  0.0299  0.3418 -0.1928
 3433DDP     C420598  10.419   6.653  29.279  0.2632  0.1732 -0.0807
 3434DDP     C120599   2.542  19.214  26.741 -0.1606  0.3346  0.3680
 3434DDP     P120600   2.601  18.805  26.680 -0.1150 -0.0331  0.0605
 3434DDP     P220601   2.514  19.375  27.147 -0.2219 -0.3482  0.1332
 3434DDP     C220602   2.354  19.700  27.441 -0.0727 -0.2539 -0.0160
 3434DDP     C320603   2.653  18.350  26.799 -0.0935  0.2908  0.1245
 3434DDP     C420604   2.503  19.422  26.330 -0.1444 -0.1390 -0.0260
 3435DDP     C120605   8.806  25.535   1.567 -0.2013  0.1071 -0.1455
 3435DDP     P120606   9.020  25.441   1.168  0.0410  0.3899  0.0235
 3435DDP     P220607   8.929  25.420   1.953  0.2024 -0.1741 -0.1947
 3435DDP     C220608   9.061  25.730   2.255 -0.0850  0.2789  0.1567
 3435DDP     C320609   9.130  25.470   0.752  0.0288 -0.0978 -0.1250
 3435DDP     C420610   8.426  25.818   1.516  0.0582  0.2289 -0.0626
 3436DDP     C120611   3.130   7.532  28.484  0.1516  0.0005  0.0402
 3436DDP     P120612   3.260   7.440  28.820 -0.0244 -0.1527  0.1397
 3436DDP     P220613   3.428   7.475  28.124  0.1756 -0.4549  0.2218
 3436DDP     C220614   3.662   7.884  28.029  0.2966 -0.1339 -0.0205
 3436DDP     C320615   3.079   7.075  29.057  0.1630 -0.1021  0.2882
 3436DDP     C420616   2.731   7.606  28.304  0.2019 -0.1282 -0.1687
 3437DDP     C120617  14.944  28.683  15.468 -0.1355 -0.1467  0.1770
 3437DDP     P120618  14.561  28.688  15.459 -0.2292  0.1297  0.0379
 3437DDP     P220619  15.135  28.337  15.222 -0.0622 -0.1677  0.0213
 3437DDP     C220620  15.473  27.915  15.333  0.0607 -0.4604 -0.2086
 3437DDP     C320621  14.227  28.462  15.278  0.1688  0.2639 -0.1384
 3437DDP     C420622  15.124  28.891  15.764  0.1366 -0.1564  0.1976
 3438DDP     C120623  24.498  18.783  13.712  0.0595 -0.0359  0.2613
 3438DDP     P120624  24.912  18.602  13.751  0.3806  0.3587  0.0754
 3438DDP     P220625  24.561  19.072  13.450  0.1792  0.0206  0.1959
 3438DDP     C220626  24.836  19.448  13.457 -0.1124  0.2149 -0.0311
 3438DDP     C320627  25.083  18.122  13.854 -0.0847 -0.0108  0.1285
 3438DDP     C420628  24.216  18.425  13.692 -0.0194  0.0892 -0.1367
 3439DDP     C120629   2.391   3.300  14.604 -0.1305 -0.2081  0.2039
 3439DDP     P120630   2.509   3.401  14.230 -0.1051  0.0357  0.2629
 3439DDP     P220631   1.942   3.434  14.701 -0.1510 -0.1830  0.1363
 3439DDP     C220632   1.555   3.299  14.700  0.2316 -0.0091 -0.2928
 3439DDP     C320633   2.766   3.760  13.984  0.0665  0.1724 -0.2014
 3439DDP     C420634   2.755   3.331  14.883  0.1318  0.0497 -0.0704
 3440DDP     C120635  28.851   4.863  30.140 -0.1114  0.0281  0.1661
 3440DDP     P120636  28.897   5.291  29.904  0.2142  0.2039  0.0808
 3440DDP     P220637  29.147   4.515  30.208 -0.0114 -0.0775  0.0193
 3440DDP     C220638  29.229   4.272   0.297  0.1665 -0.0279  0.0826
 3440DDP     C320639  29.014   5.597  29.624  0.0982 -0.3567  0.1431
 3440DDP     C420640  28.510   4.688   0.024  0.1798  0.0808 -0.0485
 3441DDP     C120641   5.136  20.908  28.840 -0.2050 -0.2000 -0.0428
 3441DDP     P120642   4.903  20.553  28.846 -0.1846  0.0308  0.0726
 3441DDP     P220643   5.540  20.927  29.033 -0.1167  0.1359 -0.0320
 3441DDP     C220644   5.828  20.779  29.312  0.0436  0.1265 -0.2814
 3441DDP     C320645   4.707  20.176  28.697  0.0025 -0.0791  0.1149
 3441DDP     C420646   4.882  21.188  28.729  0.2548  0.2062  0.0541
 3442DDP     C120647  30.128   8.196   2.332 -0.1217  0.1267  0.1130
 3442DDP     P120648   0.247   8.183   2.196 -0.2040  0.0131  0.1460
 3442DDP     P220649  29.872   8.112   2.075 -0.0988  0.0703  0.0549
 3442DDP     C220650  29.694   7.766   1.970  0.0287  0.0734 -0.0260
 3442DDP     C320651   0.583   8.290   2.373 -0.0347  0.0181 -0.4305
 3442DDP     C420652  29.952   8.388   2.766 -0.1976  0.0048  0.1183
 3443DDP     C120653  17.611  20.501  19.834  0.0210 -0.1251 -0.3905
 3443DDP     P120654  17.189  20.335  19.826 -0.1005 -0.1093  0.4726
 3443DDP     P220655  17.842  20.528  20.128 -0.2828  0.0023  0.0853
 3443DDP     C220656  18.289  20.595  20.223  0.2751 -0.0782 -0.1793
 3443DDP     C320657  16.896  20.462  20.132  0.1081 -0.3650 -0.2114
 3443DDP     C420658  17.855  20.600  19.477  0.0179  0.2249  0.0862
 3444DDP     C120659  21.029  28.073  15.189  0.1752 -0.2592 -0.0804
 3444DDP     P120660  21.168  28.304  15.605 -0.0208  0.1431  0.0992
 3444DDP     P220661  21.292  27.709  15.123  0.2145  0.1513  0.0021
 3444DDP     C220662  21.266  27.413  14.868  0.3601 -0.1799 -0.0529
 3444DDP     C320663  21.325  28.274  16.049  0.0405 -0.0713  0.0567
 3444DDP     C420664  20.706  28.083  15.077 -0.0180  0.2563  0.0502
 3445DDP     C120665   9.958  28.751  19.888 -0.3852  0.1460  0.2317
 3445DDP     P120666   9.880  29.120  19.710 -0.1753  0.1811  0.1900
 3445DDP     P220667   9.988  28.368  20.271 -0.0743 -0.1127 -0.2955
 3445DDP     C220668  10.310  28.072  20.183  0.0589 -0.0153  0.0378
 3445DDP     C320669   9.599  29.247  19.691  0.3576  0.0946 -0.2440
 3445DDP     C420670   9.940  28.479  19.517  0.1784 -0.0104 -0.1188
 3446DDP     C120671  10.859   4.823  25.702 -0.1693 -0.1166  0.2664
 3446DDP     P120672  10.463   4.930  25.603 -0.0322  0.0144 -0.1293
 3446DDP     P220673  11.217   5.026  25.684 -0.0050 -0.1535  0.1175
 3446DDP     C220674  11.574   5.147  25.368  0.1691  0.2836  0.2128
 3446DDP     C320675  10.152   4.968  25.286 -0.2185 -0.1090 -0.0166
 3446DDP     C420676  10.815   4.357  25.609  0.3211  0.0427 -0.0159
 3447DDP     C120677  25.356  28.972  12.990  0.1663 -0.0017 -0.1780
 3447DDP     P120678  24.955  28.698  13.068  0.0362  0.0817  0.0527
 3447DDP     P220679  25.478  28.843  12.593  0.0029 -0.1328  0.1433
 3447DDP     C220680  25.480  28.582  12.192  0.3043 -0.2576  0.1316
 3447DDP     C320681  24.663  28.322  12.914  0.1065  0.1253  0.0992
 3447DDP     C420682  25.606  29.098  13.306  0.1343  0.1423 -0.2467
 3448DDP     C120683  30.196  26.347   2.990  0.1057  0.1891  0.5897
 3448DDP     P120684   0.156  26.803   3.011  0.0574 -0.1333 -0.0634
 3448DDP     P220685  30.218  26.137   2.644  0.7301 -0.3807  0.0477
 3448DDP     C220686   0.097  25.907   2.492 -0.1302 -0.1829  0.1765
 3448DDP     C320687   0.164  27.215   2.965  0.3070  0.1827 -0.1207
 3448DDP     C420688  30.059  26.052   3.385  0.4531  0.2357 -0.0330
 3449DDP     C120689  29.881  24.124  22.480 -0.1834  0.0213  0.1633
 3449DDP     P120690  30.049  23.776  22.219 -0.0492 -0.1290  0.0260
 3449DDP     P220691  29.944  24.209  22.904  0.0176 -0.2658  0.1363
 3449DDP     C220692  30.159  24.335  23.362  0.0690 -0.1434  0.0341
 3449DDP     C320693   0.104  23.565  22.265 -0.0552 -0.3093 -0.1315
 3449DDP     C420694  29.895  24.586  22.508  0.1791 -0.1464  0.3365
 3450DDP     C120695  24.184   5.401  29.693 -0.1620 -0.0701 -0.0922
 3450DDP     P120696  24.070   5.033  29.934  0.0729 -0.5789 -0.3614
 3450DDP     P220697  23.845   5.682  29.695 -0.1147 -0.0868  0.1711
 3450DDP     C220698  23.769   6.120  29.659  0.1360  0.1359  0.3334
 3450DDP     C320699  24.136   4.971   0.092  0.0806 -0.0018 -0.4473
 3450DDP     C420700  24.562   5.394  29.610 -0.0175 -0.2673  0.2376
 3451DDP     C120701   0.412  28.702   2.138  0.1337  0.2682 -0.0715
 3451DDP     P120702   0.743  28.341   2.265 -0.0226  0.3233  0.1131
 3451DDP     P220703   0.084  28.952   2.364 -0.3015 -0.1292 -0.1827
 3451DDP     C220704  29.972  28.943   2.542 -0.2890  0.0208 -0.0232
 3451DDP     C320705   1.177  28.254   2.441 -0.1074  0.1053  0.3754
 3451DDP     C420706   0.441  28.777   1.781  0.1198 -0.0780  0.0059
 3452DDP     C120707  16.238  27.041  25.409 -0.2527  0.2340 -0.1601
 3452DDP     P120708  16.192  27.183  24.899 -0.0181  0.2794  0.1592
 3452DDP     P220709  16.631  26.741  25.484 -0.2977 -0.0242  0.0376
 3452DDP     C220710  16.944  26.427  25.390  0.4949 -0.1048  0.2444
 3452DDP     C320711  16.144  27.251  24.456 -0.2561  0.0775  0.2294
 3452DDP     C420712  15.825  26.842  25.712 -0.2763  0.0276 -0.0329
 3453DDP     C120713  19.696  17.251  28.124 -0.0492  0.2032 -0.1811
 3453DDP     P120714  19.624  17.678  27.863  0.5427  0.2867  0.1290
 3453DDP     P220715  19.298  17.021  28.077  0.1325 -0.0504  0.0744
 3453DDP     C220716  18.964  16.817  28.334 -0.3981  0.0019  0.0751
 3453DDP     C320717  19.294  17.606  27.574 -0.0615 -0.1258 -0.0758
 3453DDP     C420718  19.955  17.063  28.342 -0.0345 -0.3014  0.1354
 3454DDP     C120719   0.765  24.922  18.520 -0.0806  0.1085 -0.0467
 3454DDP     P120720   0.362  24.921  18.289 -0.2367  0.0565 -0.3691
 3454DDP     P220721   0.768  24.479  18.699 -0.0879  0.2251  0.2097
 3454DDP     C220722   0.707  24.129  18.984  0.1527 -0.4617  0.2741
 3454DDP     C320723   0.098  25.206  18.166 -0.1485 -0.0791 -0.1264
 3454DDP     C420724   1.062  25.237  18.441  0.1179 -0.3653 -0.0384
 3455DDP     C120725   3.043  16.324  22.649  0.2513  0.2997  0.1900
 3455DDP     P120726   3.447  16.252  22.805  0.1861  0.2369 -0.0698
 3455DDP     P220727   3.238  16.138  22.191 -0.0861  0.0590  0.2629
 3455DDP     C220728   3.516  16.289  21.819  0.2550  0.0323 -0.1150
 3455DDP     C320729   3.759  16.473  22.664 -0.1290  0.0626  0.0435
 3455DDP     C420730   2.820  16.693  22.575  0.1950  0.2568  0.1671
 3456DDP     C120731  16.938   5.569  28.629  0.4397  0.5419  0.1158
 3456DDP     P120732  16.936   5.378  28.119 -0.0405  0.2906 -0.0044
 3456DDP     P220733  17.276   5.351  28.854  0.3019  0.1225  0.0412
 3456DDP     C220734  17.417   5.289  29.227  0.1784  0.2728  0.1514
 3456DDP     C320735  17.090   5.276  27.719  0.0114  0.0852 -0.0703
 3456DDP     C420736  16.474   5.685  28.647 -0.1383 -0.2452  0.1102
 3457DDP     C120737  24.284   1.062  16.100 -0.0947  0.0749  0.1032
 3457DDP     P120738  24.221   1.441  15.837  0.1003  0.0854 -0.0522
 3457DDP     P220739  24.317   0.648  15.830  0.0887  0.0188 -0.1538
 3457DDP     C220740  24.586   0.311  15.666  0.1763  0.0802  0.1095
 3457DDP     C320741  24.091   1.840  15.652  0.3982  0.0219  0.3476
 3457DDP     C420742  24.142   1.076  16.439  0.0987 -0.1430  0.2014
 3458DDP     C120743  20.462  14.828  28.780 -0.3141  0.2566  0.1187
 3458DDP     P120744  20.827  15.047  29.030  0.2019  0.0739  0.3662
 3458DDP     P220745  20.122  15.036  28.727  0.4149 -0.0427  0.3489
 3458DDP     C220746  19.834  15.335  28.571  0.1494 -0.0511  0.1249
 3458DDP     C320747  21.212  15.250  29.135 -0.1977  0.3186 -0.0139
 3458DDP     C420748  20.480  14.327  28.749  0.1936  0.5521  0.2542
 3459DDP     C120749  22.152   0.021   9.426 -0.0005 -0.2835  0.2408
 3459DDP     P120750  22.460  30.218   9.077 -0.1816 -0.0333 -0.0370
 3459DDP     P220751  22.435   0.328   9.622  0.3143 -0.2379  0.0181
 3459DDP     C220752  22.908   0.367   9.737  0.1922 -0.3850 -0.1409
 3459DDP     C320753  22.422  30.245   8.590  0.2768  0.4374 -0.2175
 3459DDP     C420754  21.764  30.223   9.424  0.2749  0.1101 -0.0360
 3460DDP     C120755  20.406  26.758   2.148  0.2074 -0.1360  0.1527
 3460DDP     P120756  19.993  26.562   2.240 -0.2212  0.0533 -0.2212
 3460DDP     P220757  20.619  26.491   1.957 -0.0220 -0.1536  0.1270
 3460DDP     C220758  20.672  26.112   1.807 -0.2688  0.1208  0.1596
 3460DDP     C320759  19.684  26.435   2.095 -0.1740  0.0184  0.1672
 3460DDP     C420760  20.313  27.065   1.876  0.1842 -0.0859  0.2095
 3461DDP     C120761  16.914  20.345  24.362  0.1342 -0.3252 -0.1088
 3461DDP     P120762  16.616  20.479  23.924  0.0301  0.0288  0.1437
 3461DDP     P220763  17.009  20.692  24.601 -0.0100  0.2768  0.3203
 3461DDP     C220764  16.998  20.827  25.013 -0.1716  0.4358  0.1581
 3461DDP     C320765  16.210  20.581  23.814  0.2882  0.2685  0.0006
 3461DDP     C420766  16.994  19.854  24.410  0.0033  0.0046  0.0879
 3462DDP     C120767  17.472  11.943  10.243  0.1147  0.1141  0.0769
 3462DDP     P120768  17.504  11.709   9.815  0.0394 -0.3257 -0.2697
 3462DDP     P220769  17.680  12.233  10.054  0.4617 -0.1189 -0.0594
 3462DDP     C220770  17.946  12.399   9.768 -0.1243  0.2302 -0.2102
 3462DDP     C320771  17.214  11.655   9.494  0.0365 -0.0139 -0.1511
 3462DDP     C420772  17.088  11.902  10.579 -0.0468 -0.1068 -0.0574
 3463DDP     C120773  25.394  12.095  14.002 -0.0416 -0.2692  0.0424
 3463DDP     P120774  25.766  12.012  14.293  0.0361  0.0404 -0.1633
 3463DDP     P220775  25.004  12.304  14.193 -0.0602 -0.0582  0.0871
 3463DDP     C220776  24.767  12.264  14.632  0.0051 -0.1976  0.0237
 3463DDP     C320777  25.854  12.294  14.626  0.0350  0.1726  0.2767
 3463DDP     C420778  25.380  11.855  13.611  0.1319  0.2065 -0.1005
 3464DDP     C120779   1.386  15.794   6.915  0.0032 -0.0854  0.0177
 3464DDP     P120780   1.605  15.324   6.862  0.1471 -0.2368 -0.4210
 3464DDP     P220781   1.032  15.934   7.144  0.0737 -0.0761 -0.2050
 3464DDP     C220782   0.632  15.763   7.204  0.1115 -0.4909 -0.3153
 3464DDP     C320783   1.911  14.990   6.965 -0.0944 -0.0821  0.1691
 3464DDP     C420784   1.582  15.912   6.489  0.0364  0.1846 -0.1665
 3465DDP     C120785   3.799   2.587   1.971 -0.0897 -0.0658 -0.1160
 3465DDP     P120786   3.725   2.253   1.802  0.0691 -0.1606  0.1364
 3465DDP     P220787   3.803   2.872   1.712 -0.1898 -0.3429 -0.0465
 3465DDP     C220788   3.953   3.362   1.635  0.0122  0.2053 -0.1260
 3465DDP     C320789   3.785   1.905   1.629  0.2273  0.0041 -0.1588
 3465DDP     C420790   3.899   2.619   2.425  0.2067 -0.0237  0.1167
 3466DDP     C120791  11.377  19.798  12.455 -0.2229  0.2327  0.5012
 3466DDP     P120792  11.731  19.588  12.643  0.2270 -0.0379  0.1522
 3466DDP     P220793  11.129  19.482  12.338 -0.1183 -0.3039 -0.1712
 3466DDP     C220794  10.945  19.189  12.521 -0.0538  0.3853  0.1262
 3466DDP     C320795  12.078  19.339  12.769  0.2216 -0.0305  0.0260
 3466DDP     C420796  11.345  20.257  12.452  0.4619 -0.1331  0.1449
 3467DDP     C120797  22.648  10.670  10.353  0.1508 -0.3687 -0.1465
 3467DDP     P120798  22.270  10.646  10.633 -0.2783  0.1734 -0.1840
 3467DDP     P220799  22.728  10.382   9.964  0.1551 -0.2342  0.1266
 3467DDP     C220800  22.421  10.306   9.625 -0.0886 -0.3751  0.2447
 3467DDP     C320801  22.025  10.653  10.975  0.1609  0.1336 -0.5820
 3467DDP     C420802  22.971  10.862  10.525 -0.0720 -0.1295 -0.5882
 3468DDP     C120803   4.589  13.806   0.794  0.1573  0.0483  0.0293
 3468DDP     P120804   4.760  13.558   1.135 -0.2501  0.0965 -0.2508
 3468DDP     P220805   4.662  13.626   0.365  0.0103  0.1689 -0.0928
 3468DDP     C220806   4.379  13.506   0.024 -0.1984 -0.0860  0.1704
 3468DDP     C320807   5.042  13.518   1.539 -0.3631  0.2843 -0.0418
 3468DDP     C420808   4.203  14.041   0.854  0.0603  0.0694  0.4285
 3469DDP     C120809  25.397  29.886   7.084  0.1012 -0.0149 -0.1023
 3469DDP     P120810  25.602  29.551   6.925  0.3805 -0.1069  0.2776
 3469DDP     P220811  25.599  30.291   7.204  0.0552  0.4091  0.0409
 3469DDP     C220812  25.722   0.256   7.522 -0.0066 -0.0770  0.1556
 3469DDP     C320813  25.844  29.225   6.547  0.0455 -0.3139  0.0100
 3469DDP     C420814  24.924  30.023   7.063  0.1949  0.2117 -0.1220
 3470DDP     C120815  15.456  18.202  10.087 -0.0167  0.0320 -0.1260
 3470DDP     P120816  15.674  17.863   9.852 -0.0428 -0.1875  0.0680
 3470DDP     P220817  14.966  18.204  10.052 -0.2489 -0.1144 -0.0424
 3470DDP     C220818  14.630  17.921   9.900 -0.0096 -0.2885  0.1290
 3470DDP     C320819  16.047  17.629  10.033  0.1794  0.1483 -0.1808
 3470DDP     C420820  15.574  18.498  10.432 -0.0219 -0.2102  0.1361
 3471DDP     C120821  18.725  27.323  16.210  0.2548  0.1284 -0.1267
 3471DDP     P120822  18.773  26.948  16.123  0.2004 -0.0858 -0.3749
 3471DDP     P220823  18.759  27.553  16.560 -0.1709 -0.0343 -0.0369
 3471DDP     C220824  18.811  27.511  17.013  0.1643 -0.1465  0.0152
 3471DDP     C320825  19.143  26.650  16.018 -0.0222 -0.1864  0.0248
 3471DDP     C420826  18.374  27.410  16.043 -0.1874 -0.4191  0.1730
 3472DDP     C120827  28.888  28.687   8.683  0.2388  0.1058 -0.3175
 3472DDP     P120828  28.676  28.712   9.066  0.1020 -0.1793  0.1126
 3472DDP     P220829  29.031  29.150   8.588 -0.3562  0.1661  0.0243
 3472DDP     C220830  29.017  29.622   8.403  0.3252  0.0128  0.0784
 3472DDP     C320831  28.386  29.112   9.341  0.0638 -0.1692 -0.2609
 3472DDP     C420832  28.988  28.360   8.395  0.1913 -0.0989  0.1046
 3473DDP     C120833   4.539   9.382  28.913 -0.0251 -0.0107 -0.0980
 3473DDP     P120834   4.688   9.101  28.632 -0.2354 -0.0665  0.0996
 3473DDP     P220835   4.164   9.453  29.234 -0.0521 -0.0755  0.4555
 3473DDP     C220836   3.922   9.696  29.513  0.0560  0.0288  0.2592
 3473DDP     C320837   4.822   8.751  28.484 -0.1464 -0.0014 -0.0447
 3473DDP     C420838   4.897   9.747  28.868  0.1609 -0.0743  0.0681
 3474DDP     C120839   0.409   4.868   6.294  0.1197 -0.3041  0.2695
 3474DDP     P120840   0.293   5.260   6.154 -0.2137 -0.2141 -0.0386
 3474DDP     P220841   0.158   4.656   6.596  0.0104 -0.0729  0.0378
 3474DDP     C220842  30.064   4.601   6.795  0.1486  0.1409 -0.0397
 3474DDP     C320843   0.228   5.571   6.548  0.1246  0.0264  0.0363
 3474DDP     C420844   0.570   4.454   6.060  0.2645 -0.1042  0.0502
 3475DDP     C120845  15.898  11.470  10.409 -0.1293  0.1027 -0.1893
 3475DDP     P120846  15.692  11.906  10.580 -0.1500 -0.0787  0.0117
 3475DDP     P220847  15.614  11.219  10.142  0.2874  0.1453 -0.0869
 3475DDP     C220848  15.478  11.162   9.720  0.1059 -0.2054 -0.2025
 3475DDP     C320849  15.391  12.144  10.818  0.1293  0.0677  0.1702
 3475DDP     C420850  16.278  11.221  10.440 -0.1243 -0.1109  0.1949
 3476DDP     C120851   8.966  25.592  12.498  0.0390  0.0108 -0.0035
 3476DDP     P120852   8.895  26.016  12.346 -0.2582 -0.0503  0.1526
 3476DDP     P220853   8.565  25.464  12.687 -0.0507  0.0547 -0.2615
 3476DDP     C220854   8.187  25.199  12.725  0.0595  0.1512  0.2164
 3476DDP     C320855   8.526  26.150  12.064 -0.2891  0.3097 -0.1619
 3476DDP     C420856   9.181  25.306  12.415  0.1228  0.0319  0.1299
 3477DDP     C120857  29.758  22.501   0.795 -0.0656 -0.2021  0.0123
 3477DDP     P120858  29.353  22.596   1.022  0.1298 -0.1527 -0.2038
 3477DDP     P220859  29.823  22.860   0.418 -0.0167  0.3825  0.4044
 3477DDP     C220860  29.916  23.231   0.134  0.3329  0.1895  0.1052
 3477DDP     C320861  28.980  22.441   1.092 -0.2019  0.3367  0.2017
 3477DDP     C420862  29.803  22.117   0.611  0.0983 -0.0673 -0.2582
 3478DDP     C120863  23.393  14.068  16.371 -0.1447 -0.1910 -0.0240
 3478DDP     P120864  23.550  14.119  16.713  0.1745 -0.1087  0.1047
 3478DDP     P220865  23.177  13.937  16.110  0.0462  0.0897 -0.1491
 3478DDP     C220866  23.054  13.619  15.817 -0.0196  0.1009 -0.1085
 3478DDP     C320867  23.859  14.235  16.875  0.0702 -0.0198  0.2677
 3478DDP     C420868  23.417  14.537  16.350  0.1846 -0.0432  0.0365
 3479DDP     C120869  27.874   7.713  20.224  0.0299 -0.1297 -0.3052
 3479DDP     P120870  27.950   7.425  20.655  0.0356 -0.0716 -0.1084
 3479DDP     P220871  27.850   8.112  20.452  0.0483  0.1326 -0.1112
 3479DDP     C220872  27.901   8.565  20.309  0.1909 -0.0250 -0.0329
 3479DDP     C320873  27.913   7.391  21.038  0.3313  0.1361 -0.2194
 3479DDP     C420874  27.759   7.726  19.722  0.4539 -0.4871  0.1837
 3480DDP     C120875   2.281  10.223   0.869 -0.0045  0.0184  0.0592
 3480DDP     P120876   1.902   9.919   0.884 -0.1728  0.3896 -0.1936
 3480DDP     P220877   2.348  10.610   1.130 -0.1484  0.0518 -0.0530
 3480DDP     C220878   2.274  10.991   1.292  0.1371  0.4217 -0.1556
 3480DDP     C320879   1.845   9.492   0.711 -0.1122 -0.0467  0.0337
 3480DDP     C420880   2.590  10.062   0.563  0.2781 -0.0268 -0.3073
 3481DDP     C120881   0.623  12.502  12.865 -0.1419 -0.1539  0.3766
 3481DDP     P120882   0.831  12.837  12.653 -0.2388  0.1384  0.1797
 3481DDP     P220883   0.262  12.442  12.750 -0.0895 -0.2113  0.1145
 3481DDP     C220884  30.310  12.153  12.950  0.0445 -0.1508  0.1138
 3481DDP     C320885   1.144  13.189  12.709  0.4312  0.3378  0.0612
 3481DDP     C420886   0.988  12.301  13.033 -0.0387  0.2216  0.2256
 3482DDP     C120887  28.150  22.874  21.488 -0.0739 -0.1895 -0.1969
 3482DDP     P120888  28.043  22.884  21.039  0.0902 -0.2070 -0.3999
 3482DDP     P220889  28.007  22.455  21.405  0.2349  0.1892  0.3736
 3482DDP     C220890  27.989  21.995  21.364  0.2277 -0.0999  0.2565
 3482DDP     C320891  27.784  23.186  20.863  0.0378  0.2347 -0.3671
 3482DDP     C420892  28.241  23.185  21.735  0.1259 -0.0621 -0.0753
 3483DDP     C120893   5.201   8.516   5.232  0.0509  0.0170 -0.3329
 3483DDP     P120894   4.988   8.546   4.896 -0.1161 -0.2119  0.0289
 3483DDP     P220895   5.208   8.139   5.549  0.1133 -0.0781  0.1787
 3483DDP     C220896   5.517   7.825   5.431  0.2743 -0.0602 -0.0073
 3483DDP     C320897   4.615   8.732   4.787 -0.0184  0.4030 -0.0485
 3483DDP     C420898   5.613   8.598   5.045 -0.0090  0.2111  0.1023
 3484DDP     C120899   9.622  17.104  24.491 -0.0232  0.0133 -0.0418
 3484DDP     P120900   9.677  17.512  24.772 -0.5749 -0.2929 -0.1349
 3484DDP     P220901   9.409  17.194  24.063  0.2023  0.2395 -0.0185
 3484DDP     C220902   9.460  17.074  23.621 -0.2366 -0.1026  0.0969
 3484DDP     C320903   9.589  17.326  25.154  0.1323  0.0259 -0.1788
 3484DDP     C420904   9.866  16.708  24.535  0.2513  0.1178  0.0342
 3485DDP     C120905   3.325  24.280  13.889 -0.0687  0.1027 -0.1089
 3485DDP     P120906   3.586  24.227  14.281  0.0904 -0.2585  0.0080
 3485DDP     P220907   3.206  24.426  13.512  0.3689  0.1067  0.0627
 3485DDP     C220908   3.496  24.707  13.272 -0.0969 -0.0999  0.2123
 3485DDP     C320909   3.782  24.632  14.507 -0.2590 -0.2735  0.2420
 3485DDP     C420910   3.188  23.852  14.012  0.0288  0.2424 -0.0562
 3486DDP     C120911  29.572  12.110  23.905 -0.2981  0.0671 -0.2606
 3486DDP     P120912  29.870  11.900  24.080 -0.2012  0.1192 -0.1111
 3486DDP     P220913  29.160  11.991  23.940  0.2098  0.0988 -0.2961
 3486DDP     C220914  29.114  11.770  24.357 -0.2234  0.2184  0.5009
 3486DDP     C320915  30.223  11.794  24.385 -0.1048  0.1430  0.1599
 3486DDP     C420916  29.794  12.460  23.989  0.3693  0.0111 -0.3339
 3487DDP     C120917   1.532   5.452   0.660 -0.1356 -0.1812 -0.1699
 3487DDP     P120918   1.711   5.687   0.896 -0.1417  0.0790 -0.1136
 3487DDP     P220919   1.279   5.091   0.809  0.0325 -0.2624  0.1977
 3487DDP     C220920   1.197   4.827   1.079 -0.0430  0.1566  0.3906
 3487DDP     C320921   1.653   5.983   1.337  0.2907 -0.2424 -0.3910
 3487DDP     C420922   1.414   5.546   0.233 -0.2478  0.2652  0.1871
 3488DDP     C120923   8.419  23.198  13.475 -0.2467 -0.1245 -0.2921
 3488DDP     P120924   8.293  22.804  13.700 -0.2668  0.1140  0.1223
 3488DDP     P220925   8.078  23.337  13.096 -0.0006  0.2845 -0.2766
 3488DDP     C220926   8.096  23.325  12.717  0.0164 -0.3013  0.0974
 3488DDP     C320927   8.085  22.436  13.581 -0.2159  0.0373  0.0014
 3488DDP     C420928   8.791  23.449  13.509  0.3203 -0.1726  0.0322
 3489DDP     C120929  28.856  10.157  18.175 -0.1442  0.0397 -0.2594
 3489DDP     P120930  28.844  10.422  17.838  0.0098 -0.4723  0.2348
 3489DDP     P220931  28.953   9.714  18.274 -0.2814 -0.1336  0.1072
 3489DDP     C220932  29.158   9.261  18.141 -0.1976 -0.3347 -0.1053
 3489DDP     C320933  28.659  10.601  17.561  0.1123  0.0461  0.0237
 3489DDP     C420934  28.630  10.370  18.549 -0.1350 -0.5153 -0.0434
 3490DDP     C120935  24.770  22.231  20.512  0.0560  0.1214 -0.7342
 3490DDP     P120936  24.942  22.525  20.291 -0.1456 -0.2957  0.1539
 3490DDP     P220937  24.920  21.773  20.318 -0.4777  0.0797  0.1015
 3490DDP     C220938  25.180  21.627  20.019 -0.0070 -0.1544 -0.0612
 3490DDP     C320939  24.975  22.722  19.941 -0.2491  0.1127  0.1255
 3490DDP     C420940  24.438  22.205  20.940  0.0754  0.1055  0.5137
 3491DDP     C120941  20.998  21.501  24.259 -0.3276  0.3111  0.0154
 3491DDP     P120942  21.172  21.471  23.912  0.0350  0.0528 -0.2743
 3491DDP     P220943  20.742  21.103  24.265 -0.2851  0.2659 -0.1233
 3491DDP     C220944  20.454  20.840  24.453  0.0543 -0.2171  0.1251
 3491DDP     C320945  21.506  21.320  23.769 -0.0550  0.1838 -0.2004
 3491DDP     C420946  21.308  21.601  24.648  0.3152 -0.2362 -0.0020
 3492DDP     C120947  12.987  22.145  22.166  0.1595 -0.0303  0.0777
 3492DDP     P120948  12.742  22.339  21.748  0.0591  0.3949  0.0221
 3492DDP     P220949  12.987  21.743  22.090 -0.0464  0.0296  0.0878
 3492DDP     C220950  13.165  21.286  22.100 -0.1080  0.2509 -0.0712
 3492DDP     C320951  12.699  22.709  21.473 -0.2449  0.0155  0.3247
 3492DDP     C420952  12.969  22.241  22.608  0.1921  0.3271 -0.0696
 3493DDP     C120953  23.129  29.302   1.936 -0.2924  0.1383  0.0355
 3493DDP     P120954  23.435  29.175   2.169  0.2716 -0.1879 -0.2114
 3493DDP     P220955  22.694  29.533   2.050  0.1246 -0.2189  0.1476
 3493DDP     C220956  22.456  29.794   1.865  0.1756  0.3663 -0.0920
 3493DDP     C320957  23.511  28.793   2.509  0.1008  0.0883  0.1034
 3493DDP     C420958  23.371  29.192   1.575 -0.2112  0.1663  0.0775
 3494DDP     C120959  11.858  29.574   2.807  0.0322  0.1541  0.0025
 3494DDP     P120960  12.294  29.653   2.892 -0.4222 -0.1570  0.2969
 3494DDP     P220961  11.561  29.281   2.611 -0.1095 -0.1279 -0.2313
 3494DDP     C220962  11.176  29.009   2.736  0.1388  0.2992 -0.0537
 3494DDP     C320963  12.659  29.306   2.891 -0.0616  0.0734  0.1250
 3494DDP     C420964  11.802  30.009   2.740 -0.2175 -0.1693 -0.1598
 3495DDP     C120965  10.781  24.175  18.721  0.1958  0.0148 -0.0964
 3495DDP     P120966  10.856  24.149  18.290 -0.0439  0.0158  0.0434
 3495DDP     P220967  10.406  24.507  18.754  0.1122 -0.1283 -0.0130
 3495DDP     C220968   9.987  24.434  18.857  0.0418  0.0059 -0.1995
 3495DDP     C320969  10.909  24.092  17.840  0.0551 -0.0846  0.0373
 3495DDP     C420970  11.092  24.152  19.051  0.0296  0.0569 -0.0881
 3496DDP     C120971  13.481  28.044   1.361  0.2289  0.3849 -0.2940
 3496DDP     P120972  13.168  27.864   1.548 -0.1035  0.1525 -0.1303
 3496DDP     P220973  13.392  28.508   1.274 -0.0658 -0.0148  0.1128
 3496DDP     C220974  13.132  28.986   1.251 -0.1856 -0.1922 -0.0906
 3496DDP     C320975  12.840  27.539   1.646  0.3612 -0.2206  0.2222
 3496DDP     C420976  13.898  27.959   1.397 -0.1287 -0.3174 -0.2925
 3497DDP     C120977  20.997  21.620   7.553  0.0642  0.3769 -0.1887
 3497DDP     P120978  21.099  21.408   7.167 -0.2840 -0.3206  0.0515
 3497DDP     P220979  20.743  21.910   7.440  0.0954  0.0900 -0.0072
 3497DDP     C220980  20.508  22.247   7.564 -0.1801 -0.2726  0.2863
 3497DDP     C320981  21.325  21.476   6.844 -0.2469  0.2040  0.0392
 3497DDP     C420982  21.184  21.458   7.887 -0.1529 -0.1053  0.0618
 3498DDP     C120983   7.238  21.954   7.306  0.0732  0.0086  0.0499
 3498DDP     P120984   6.993  21.705   7.011 -0.0022  0.1290  0.0117
 3498DDP     P220985   7.491  21.677   7.452 -0.2265  0.2105 -0.1874
 3498DDP     C220986   7.815  21.401   7.435 -0.1601 -0.0137  0.0582
 3498DDP     C320987   6.730  21.332   6.913  0.0529  0.0877 -0.1453
 3498DDP     C420988   7.396  22.335   7.421  0.1138 -0.2146 -0.2626
 3499DDP     C120989  11.837  18.562  18.968  0.1745 -0.0857  0.1866
 3499DDP     P120990  11.709  18.375  19.427 -0.0264  0.4849 -0.0995
 3499DDP     P220991  12.225  18.443  19.006  0.2408 -0.0384  0.0603
 3499DDP     C220992  12.630  18.413  18.778 -0.1890  0.0577 -0.1465
 3499DDP     C320993  11.571  18.545  19.806 -0.0389 -0.0486  0.1601
 3499DDP     C420994  11.670  18.998  18.860 -0.0911  0.1613 -0.1692
 3500DDP     C120995   2.368   8.018  20.011  0.0818 -0.3163  0.0986
 3500DDP     P120996   1.979   8.048  20.254 -0.1658 -0.0671  0.1336
 3500DDP     P220997   2.598   7.582  20.070  0.0396 -0.0887  0.2180
 3500DDP     C220998   3.018   7.476  20.136  0.0107 -0.1243  0.1043
 3500DDP     C320999   2.011   8.088  20.654  0.2509  0.0307  0.1390
 3500DDP     C421000   2.423   8.360  19.761 -0.0415 -0.1418  0.0348
 3501DDP     C121001  24.145  29.955  27.575  0.1065 -0.1662  0.0329
 3501DDP     P121002  24.139   0.085  27.561 -0.0646  0.2762  0.1397
 3501DDP     P221003  23.959  29.771  27.878 -0.1210 -0.0387 -0.1920
 3501DDP     C221004  23.944  29.966  28.310 -0.0182  0.0110  0.1050
 3501DDP     C321005  23.832   0.561  27.783  0.2516  0.1134  0.0772
 3501DDP     C421006  24.328  29.526  27.391  0.3479  0.1645  0.1980
 3502DDP     C121007   2.193  28.623  28.844  0.1756  0.0343  0.1121
 3502DDP     P121008   2.336  28.801  29.230 -0.1828 -0.1088  0.0056
 3502DDP     P221009   2.379  28.151  28.764 -0.3347  0.0106  0.0706
 3502DDP     C221010   2.176  27.757  28.613  0.0769  0.0857  0.0684
 3502DDP     C321011   2.785  28.956  29.421 -0.0175 -0.0336  0.0762
 3502DDP     C421012   1.901  28.701  28.390  0.0706  0.0668 -0.1648
 3503DDP     C121013   1.896  13.253   4.641  0.0865 -0.2404 -0.0294
 3503DDP     P121014   1.883  12.801   4.577  0.1165 -0.0973 -0.0388
 3503DDP     P221015   2.225  13.264   4.958  0.3595  0.0010 -0.1189
 3503DDP     C221016   2.343  12.921   5.229  0.0603  0.0444 -0.1675
 3503DDP     C321017   1.951  12.385   4.711 -0.0311  0.0720 -0.1740
 3503DDP     C421018   1.495  13.583   4.615  0.1101 -0.2557  0.2138
 3504DDP     C121019  23.570  23.247  19.591  0.2939  0.1036  0.0402
 3504DDP     P121020  23.522  23.478  19.945  0.0986  0.1556 -0.2173
 3504DDP     P221021  23.590  23.609  19.379  0.1514  0.1680 -0.1719
 3504DDP     C221022  23.429  23.940  19.220  0.2195  0.2653 -0.0381
 3504DDP     C321023  23.534  23.886  19.919  0.1274  0.0656 -0.1465
 3504DDP     C421024  23.667  22.842  19.396 -0.0997  0.0570 -0.2115
 3505DDP     C121025   4.212   0.872   0.355  0.2102 -0.1870  0.0947
 3505DDP     P121026   3.996   1.222   0.075 -0.0954 -0.1045 -0.0200
 3505DDP     P221027   3.904   0.640   0.609 -0.2906 -0.1121 -0.1137
 3505DDP     C221028   3.861   0.215   0.665  0.2502 -0.0935 -0.1663
 3505DDP     C321029   4.010   1.631   0.279 -0.0856  0.2417 -0.0912
 3505DDP     C421030   4.690   0.801   0.084 -0.1581 -0.2578 -0.2008
 3506DDP     C121031   5.816  10.662  25.747 -0.0307 -0.1527  0.2107
 3506DDP     P121032   5.835  10.812  26.223  0.0092  0.0546 -0.1413
 3506DDP     P221033   5.314  10.583  25.609  0.3143 -0.1031 -0.0983
 3506DDP     C221034   5.080  10.837  25.219 -0.2695 -0.3623  0.2004
 3506DDP     C321035   6.121  10.625  26.483  0.3660  0.1238 -0.1604
 3506DDP     C421036   6.162  10.476  25.524 -0.2071  0.1795  0.1102
 3507DDP     C121037  11.302  24.638   8.067 -0.1314 -0.1122 -0.1505
 3507DDP     P121038  11.710  24.455   8.131  0.1054 -0.0673  0.1188
 3507DDP     P221039  11.052  24.322   7.975  0.0153  0.0478  0.0094
 3507DDP     C221040  11.090  23.865   7.863 -0.0233  0.0492  0.2215
 3507DDP     C321041  11.946  24.073   8.112  0.0857 -0.0402  0.0428
 3507DDP     C421042  11.169  25.033   7.973  0.0558  0.1178 -0.1194
 3508DDP     C121043   3.350   6.306  20.476  0.1567  0.0380 -0.2003
 3508DDP     P121044   3.197   5.877  20.577  0.1330 -0.2187 -0.0433
 3508DDP     P221045   3.363   6.286  20.055  0.0475 -0.0707 -0.5229
 3508DDP     C221046   3.281   6.457  19.691  0.0580  0.3766  0.0836
 3508DDP     C321047   3.113   5.493  20.682 -0.0129 -0.2739 -0.2660
 3508DDP     C421048   3.432   6.576  20.888  0.1887 -0.0464  0.0089
 3509DDP     C121049  27.361  22.622   3.654 -0.2787 -0.1243  0.2629
 3509DDP     P121050  27.155  22.955   3.542  0.2790 -0.2037  0.0490
 3509DDP     P221051  27.227  22.443   3.994 -0.0207 -0.1297 -0.1801
 3509DDP     C221052  27.143  22.639   4.399 -0.0228  0.2068 -0.1858
 3509DDP     C321053  26.772  23.019   3.648 -0.1505  0.2176 -0.1924
 3509DDP     C421054  27.624  22.365   3.346  0.0518 -0.0075  0.1252
 3510DDP     C121055  21.829   3.568  29.093 -0.0754 -0.1167 -0.0055
 3510DDP     P121056  21.405   3.588  28.981 -0.0322 -0.1542 -0.0013
 3510DDP     P221057  22.079   3.212  29.150 -0.0846 -0.0261 -0.1990
 3510DDP     C221058  22.322   2.971  29.504 -0.0301  0.2200  0.1817
 3510DDP     C321059  20.962   3.505  29.187 -0.0055 -0.1262 -0.0573
 3510DDP     C421060  21.996   4.006  29.360  0.0231 -0.0253  0.0065
 3511DDP     C121061  15.526   9.973   7.161  0.1531 -0.1152  0.2886
 3511DDP     P121062  15.641  10.166   7.503  0.0966  0.0580 -0.2749
 3511DDP     P221063  15.443  10.288   6.873 -0.1084  0.0566  0.1327
 3511DDP     C221064  15.503  10.655   6.720 -0.1803 -0.0047  0.1265
 3511DDP     C321065  15.875  10.328   7.852 -0.1758  0.0005 -0.1204
 3511DDP     C421066  15.465   9.553   7.371 -0.0989  0.2461 -0.1068
 3512DDP     C121067  26.642  27.399  20.419  0.2033 -0.0578 -0.0417
 3512DDP     P121068  26.714  27.519  19.994  0.0050  0.1940 -0.1048
 3512DDP     P221069  26.284  27.268  20.700  0.3173 -0.1775  0.0214
 3512DDP     C221070  25.866  27.384  20.808  0.2573 -0.3132  0.0343
 3512DDP     C321071  26.693  27.977  19.916  0.0876  0.0779 -0.0297
 3512DDP     C421072  27.090  27.479  20.606 -0.2046  0.0398 -0.1433
 3513DDP     C121073   8.335  17.020   0.337  0.2789  0.3342 -0.1219
 3513DDP     P121074   8.125  16.668   0.110  0.0555 -0.5081 -0.0661
 3513DDP     P221075   8.555  17.076  30.276 -0.4226 -0.1955  0.1270
 3513DDP     C221076   8.754  16.839  29.991 -0.2823 -0.1607  0.1388
 3513DDP     C321077   8.278  16.686  30.068 -0.0484  0.1286 -0.0069
 3513DDP     C421078   8.304  17.107   0.722  0.1016 -0.0689  0.0984
 3514DDP     C121079   7.753   2.570  28.600 -0.0324 -0.0445 -0.0853
 3514DDP     P121080   7.880   2.489  28.254  0.2631  0.2686 -0.1092
 3514DDP     P221081   8.161   2.529  28.835  0.3209 -0.2144 -0.6454
 3514DDP     C221082   8.553   2.776  28.984  0.0266 -0.0794 -0.0634
 3514DDP     C321083   8.267   2.577  27.987 -0.0033  0.1179  0.0432
 3514DDP     C421084   7.388   2.789  28.694 -0.2690 -0.2212 -0.3706
 3515DDP     C121085   4.806   5.821   0.295  0.0578  0.0497 -0.0462
 3515DDP     P121086   4.666   6.298   0.297  0.0660  0.2144  0.0654
 3515DDP     P221087   5.029   5.500   0.176 -0.0045 -0.1937 -0.1583
 3515DDP     C221088   4.775   5.372  30.220 -0.0166  0.0298  0.1431
 3515DDP     C321089   4.513   6.580   0.665  0.2736 -0.0106 -0.1266
 3515DDP     C421090   4.795   5.831   0.748  0.1945  0.1231 -0.4405
 3516DDP     C121091   4.257  24.529   3.230  0.0833 -0.0356 -0.0330
 3516DDP     P121092   4.485  24.791   2.907  0.1849 -0.0477  0.0050
 3516DDP     P221093   4.136  24.172   3.146 -0.1002 -0.0247  0.4717
 3516DDP     C221094   3.938  23.824   3.279  0.2444 -0.0931 -0.3105
 3516DDP     C321095   4.664  24.638   2.492 -0.2486 -0.0059 -0.1913
 3516DDP     C421096   4.025  24.684   3.534  0.0260 -0.1553  0.2242
 3517DDP     C121097   2.519  10.338  17.718  0.4813  0.2302  0.1095
 3517DDP     P121098   2.734  10.207  18.164  0.0795  0.1044 -0.1189
 3517DDP     P221099   2.872  10.412  17.354  0.1949 -0.2026  0.0593
 3517DDP     C221100   3.073  10.335  16.974 -0.0595 -0.0644  0.2511
 3517DDP     C321101   2.720  10.575  18.400 -0.3208  0.2932  0.1300
 3517DDP     C421102   2.086  10.290  17.635  0.0789 -0.0231  0.3932
 3518DDP     C121103   7.257  16.465  10.234  0.0354 -0.4331 -0.0442
 3518DDP     P121104   7.229  16.685  10.656 -0.3738  0.0595 -0.1653
 3518DDP     P221105   7.482  16.059  10.266 -0.3047  0.2671  0.1476
 3518DDP     C221106   7.924  15.914  10.337 -0.0700  0.0702  0.1728
 3518DDP     C321107   7.251  17.142  10.789 -0.0699 -0.2107 -0.1440
 3518DDP     C421108   6.926  16.538   9.967  0.3309 -0.1823  0.2284
 3519DDP     C121109  18.303  27.611  14.315  0.3253  0.0719  0.0610
 3519DDP     P121110  17.882  27.641  14.458  0.0413 -0.1850  0.2052
 3519DDP     P221111  18.567  27.323  14.096  0.4694  0.0885  0.2556
 3519DDP     C221112  18.496  27.083  13.763 -0.0816 -0.0651  0.0254
 3519DDP     C321113  17.735  27.595  14.858 -0.1525  0.1603  0.0588
 3519DDP     C421114  18.627  27.821  14.571  0.0025  0.0560 -0.0328
 3520DDP     C121115  20.350  29.448  28.833 -0.1490 -0.0206  0.1641
 3520DDP     P121116  19.913  29.243  28.996 -0.1491 -0.1403 -0.1405
 3520DDP     P221117  20.645  29.367  28.489 -0.2401 -0.0693 -0.1886
 3520DDP     C221118  20.751  29.476  28.007 -0.0508 -0.1431 -0.0168
 3520DDP     C321119  19.714  29.027  29.378  0.0824 -0.1956 -0.2828
 3520DDP     C421120  20.533  29.843  29.039  0.0650  0.1047  0.1693
 3521DDP     C121121   3.041  18.869   6.166 -0.1117  0.1398  0.1570
 3521DDP     P121122   3.440  18.692   6.304  0.2051 -0.1157 -0.0004
 3521DDP     P221123   2.683  18.683   6.197  0.2168 -0.0507  0.0585
 3521DDP     C221124   2.562  18.178   6.142  0.1044  0.1533  0.1084
 3521DDP     C321125   3.885  18.567   6.165 -0.0011 -0.1399 -0.0289
 3521DDP     C421126   3.074  19.214   5.921 -0.3623  0.0306  0.0802
 3522DDP     C121127  15.990  25.844   2.573 -0.1038  0.0540 -0.0343
 3522DDP     P121128  16.223  26.019   2.825 -0.2976 -0.1688 -0.1622
 3522DDP     P221129  15.640  25.869   2.353  0.3389  0.1756  0.4059
 3522DDP     C221130  15.232  25.848   2.194  0.0667  0.0537 -0.0838
 3522DDP     C321131  16.698  25.804   2.859  0.2432 -0.0906  0.0010
 3522DDP     C421132  16.151  25.330   2.566 -0.0468 -0.0627  0.0378
 3523DDP     C121133  26.856  23.679  28.509 -0.2659  0.0734 -0.1396
 3523DDP     P121134  26.949  24.099  28.391 -0.3800 -0.0892  0.0716
 3523DDP     P221135  26.940  23.316  28.785 -0.1149 -0.1121  0.1288
 3523DDP     C221136  26.803  23.012  28.992 -0.0650  0.2326 -0.1832
 3523DDP     C321137  27.030  24.526  28.193 -0.1162 -0.0198 -0.3206
 3523DDP     C421138  26.592  23.528  28.179  0.1074  0.0912 -0.3223
 3524DDP     C121139  16.841  16.158  13.987 -0.2257 -0.0747  0.1027
 3524DDP     P121140  17.029  15.953  14.309  0.2419  0.1845  0.3244
 3524DDP     P221141  16.697  16.592  14.019 -0.2295  0.3471 -0.1637
 3524DDP     C221142  16.616  17.047  13.864  0.0584  0.0608  0.1077
 3524DDP     C321143  17.477  15.910  14.349 -0.0304 -0.1636  0.1053
 3524DDP     C421144  16.722  16.047  13.652 -0.1671 -0.0968 -0.1306
 3525DDP     C121145  23.673  23.925  15.174  0.1466 -0.0665  0.2246
 3525DDP     P121146  23.258  23.804  15.100 -0.0641 -0.0544 -0.0958
 3525DDP     P221147  23.883  23.861  15.610  0.0342 -0.0464  0.1450
 3525DDP     C221148  24.182  23.798  16.021 -0.0212  0.0198  0.1646
 3525DDP     C321149  22.800  23.753  15.163 -0.3981  0.0895 -0.1484
 3525DDP     C421150  23.894  24.035  14.832  0.1403  0.0198 -0.0327
 3526DDP     C121151   5.415  24.070  24.535  0.0562 -0.1556  0.0382
 3526DDP     P121152   5.753  24.105  24.206  0.5008  0.1740 -0.1344
 3526DDP     P221153   5.586  23.907  24.941 -0.1496  0.0006  0.1327
 3526DDP     C221154   5.545  24.040  25.484 -0.3613 -0.0750 -0.0588
 3526DDP     C321155   6.151  23.900  24.184 -0.0233  0.1215 -0.1519
 3526DDP     C421156   4.999  24.070  24.345 -0.0380  0.0091 -0.2000
 3527DDP     C121157  28.211  21.991   4.238 -0.1410 -0.1724  0.0536
 3527DDP     P121158  27.993  22.112   4.697  0.1046  0.0721  0.1899
 3527DDP     P221159  28.019  21.859   3.880 -0.1685 -0.0116 -0.0510
 3527DDP     C221160  28.027  21.327   3.768  0.0720 -0.0975  0.0771
 3527DDP     C321161  27.667  21.953   4.775 -0.3340 -0.1899  0.1699
 3527DDP     C421162  28.701  21.936   4.277 -0.1941 -0.0788 -0.1275
 3528DDP     C121163  27.254   7.189  29.893 -0.1649 -0.0649  0.2722
 3528DDP     P121164  27.188   7.408  30.302  0.1707 -0.0490  0.1742
 3528DDP     P221165  26.872   7.354  29.713  0.1388  0.0627 -0.1142
 3528DDP     C221166  26.764   7.725  29.451 -0.1243  0.4044  0.2027
 3528DDP     C321167  27.010   7.788   0.209  0.2240 -0.1168 -0.3446
 3528DDP     C421168  27.486   6.841  29.703 -0.2425  0.0650 -0.0359
 3529DDP     C121169  27.770   4.271   7.661  0.2573  0.0707  0.3394
 3529DDP     P121170  27.908   4.701   7.377  0.0842  0.1830 -0.0628
 3529DDP     P221171  27.689   4.263   8.015  0.0405 -0.1522 -0.2088
 3529DDP     C221172  27.639   4.105   8.431 -0.1788  0.1166 -0.2855
 3529DDP     C321173  28.167   5.074   7.375 -0.2277 -0.0665  0.0325
 3529DDP     C421174  27.563   3.850   7.409 -0.3403 -0.1824 -0.1838
 3530DDP     C121175  10.183   7.168  22.042 -0.0744 -0.1614  0.0698
 3530DDP     P121176  10.133   7.460  22.359  0.0439  0.0002 -0.2753
 3530DDP     P221177  10.077   7.076  21.599 -0.0567  0.0154 -0.1720
 3530DDP     C221178  10.178   6.925  21.167  0.4486  0.0562 -0.1240
 3530DDP     C321179  10.461   7.554  22.755 -0.2843  0.2465 -0.0877
 3530DDP     C421180  10.530   6.986  22.177  0.2150 -0.0337 -0.1221
 3531DDP     C121181   0.694   8.119   7.889 -0.0381  0.0370  0.0715
 3531DDP     P121182   0.383   7.888   7.850  0.5318 -0.0436 -0.0095
 3531DDP     P221183   0.691   8.086   8.403  0.0616 -0.2595  0.0015
 3531DDP     C221184   0.505   7.826   8.681 -0.1094 -0.2764  0.1793
 3531DDP     C321185   0.138   7.761   7.496 -0.1269  0.2618 -0.1855
 3531DDP     C421186   0.829   8.450   7.558 -0.0111 -0.1003  0.3476
 3532DDP     C121187  26.444   6.712   5.504 -0.1575  0.3675  0.0295
 3532DDP     P121188  26.132   6.778   5.779 -0.0125  0.1106 -0.0366
 3532DDP     P221189  26.533   6.883   5.083 -0.2089 -0.1341 -0.0235
 3532DDP     C221190  26.575   7.120   4.766  0.0949  0.1166  0.2453
 3532DDP     C321191  26.116   7.017   6.172 -0.1264  0.1652 -0.3764
 3532DDP     C421192  26.818   6.317   5.616 -0.1379  0.1191 -0.3828
 3533DDP     C121193  12.109   0.747   5.394 -0.0456  0.1237  0.1366
 3533DDP     P121194  11.918   0.923   5.773  0.0113 -0.0126 -0.0491
 3533DDP     P221195  12.476   0.524   5.380  0.1079 -0.0536 -0.0697
 3533DDP     C221196  12.600   0.300   5.040 -0.0155 -0.0883  0.1059
 3533DDP     C321197  11.967   1.229   6.125 -0.0230  0.0275  0.0037
 3533DDP     C421198  11.750   0.865   4.993  0.0293 -0.0656  0.0355
 3534DDP     C121199   2.955  23.732   2.556  0.0650 -0.1449 -0.2743
 3534DDP     P121200   2.483  23.601   2.652  0.1738 -0.1515 -0.2195
 3534DDP     P221201   3.022  24.077   2.395 -0.1394 -0.1235 -0.1968
 3534DDP     C221202   2.953  24.470   2.087  0.1624 -0.3228  0.0579
 3534DDP     C321203   2.309  23.224   2.391  0.1859  0.0088  0.2326
 3534DDP     C421204   3.294  23.409   2.571  0.1033 -0.1657 -0.0147
 3535DDP     C121205   6.130  25.925   7.928 -0.1335  0.0449 -0.2103
 3535DDP     P121206   5.975  26.372   8.047 -0.1752 -0.2485 -0.1430
 3535DDP     P221207   6.385  25.726   8.274 -0.1778  0.1842  0.2605
 3535DDP     C221208   6.288  25.224   8.447 -0.3608 -0.0310  0.0456
 3535DDP     C321209   5.756  26.395   8.411  0.1077 -0.1399 -0.1773
 3535DDP     C421210   6.116  25.729   7.530 -0.0744  0.1550 -0.1060
 3536DDP     C121211   3.129  22.135   0.136 -0.0828 -0.1885  0.0009
 3536DDP     P121212   3.039  21.942   0.501  0.1322  0.1620  0.1096
 3536DDP     P221213   2.942  22.129  30.078 -0.2166  0.2787 -0.3137
 3536DDP     C221214   2.933  22.273  29.576 -0.0465  0.0238  0.1668
 3536DDP     C321215   3.135  21.779   0.979  0.0250 -0.2663  0.3109
 3536DDP     C421216   3.489  22.359   0.033 -0.2677 -0.1697 -0.1691
 3537DDP     C121217  27.732   0.303  26.920  0.0114  0.1398 -0.3245
 3537DDP     P121218  27.956  30.196  26.800  0.0168  0.1459 -0.0222
 3537DDP     P221219  27.716   0.546  27.286  0.2368  0.1825 -0.3188
 3537DDP     C221220  27.647   0.523  27.759 -0.1320  0.1072 -0.0047
 3537DDP     C321221  27.746  29.851  26.523  0.0078 -0.1306  0.0572
 3537DDP     C421222  27.773   0.573  26.646  0.1821  0.2165  0.0325
 3538DDP     C121223  17.510  28.156   8.127  0.2657  0.0389  0.1960
 3538DDP     P121224  17.568  28.144   7.662 -0.0687 -0.0194  0.2802
 3538DDP     P221225  17.440  28.605   8.368 -0.0141 -0.0454 -0.1819
 3538DDP     C221226  17.712  28.916   8.444 -0.2687  0.2721  0.1439
 3538DDP     C321227  17.791  28.143   7.301  0.0029 -0.1609 -0.1480
 3538DDP     C421228  17.122  28.018   8.193 -0.0993 -0.2706  0.0360
 3539DDP     C121229   9.011   9.435  17.520 -0.1795  0.2617 -0.2997
 3539DDP     P121230   8.753   9.387  17.830 -0.2730  0.2758 -0.0292
 3539DDP     P221231   9.341   9.252  17.462  0.2312  0.2267 -0.2606
 3539DDP     C221232   9.487   8.951  17.384  0.0513 -0.5164 -0.0671
 3539DDP     C321233   8.349   9.579  17.900 -0.1591  0.0476 -0.0173
 3539DDP     C421234   8.927   9.736  17.293 -0.2845  0.1802 -0.1805
 3540DDP     C121235  25.487   0.533  14.119 -0.2952 -0.0537  0.1435
 3540DDP     P121236  25.116   0.405  13.887  0.0839 -0.0569 -0.2077
 3540DDP     P221237  25.952   0.354  14.073  0.0798  0.1540 -0.2033
 3540DDP     C221238  26.294   0.161  14.292 -0.1564 -0.0151  0.2063
 3540DDP     C321239  24.748   0.263  13.669  0.0761  0.2185 -0.2432
 3540DDP     C421240  25.419   0.929  14.288 -0.0243 -0.1135  0.0071
 3541DDP     C121241   8.989  12.147  25.226  0.1939  0.1369 -0.0237
 3541DDP     P121242   9.456  12.126  25.194 -0.0899 -0.4984 -0.1793
 3541DDP     P221243   8.893  11.727  25.035  0.0841  0.4601 -0.4857
 3541DDP     C221244   8.624  11.425  25.244  0.1373 -0.1674 -0.4785
 3541DDP     C321245   9.736  12.270  24.961  0.0550 -0.3524  0.0250
 3541DDP     C421246   8.700  12.449  25.246  0.0038  0.0764  0.1113
 3542DDP     C121247   0.854  10.873   8.214  0.0195 -0.4006 -0.1134
 3542DDP     P121248   0.807  10.548   7.808  0.0383 -0.0278 -0.3376
 3542DDP     P221249   1.090  10.590   8.442  0.0507  0.0331  0.0524
 3542DDP     C221250   1.157  10.110   8.457 -0.1044 -0.1071  0.1597
 3542DDP     C321251   0.507  10.212   7.823 -0.0245  0.1128  0.1619
 3542DDP     C421252   0.490  11.136   8.347  0.0638  0.0848  0.1648
 3543DDP     C121253   2.215   9.652  28.470 -0.3141 -0.0636 -0.0751
 3543DDP     P121254   1.719   9.494  28.401  0.0539  0.0400  0.2220
 3543DDP     P221255   2.575   9.566  28.108  0.1441 -0.2933  0.0031
 3543DDP     C221256   2.624   9.647  27.775  0.0680  0.0718 -0.0990
 3543DDP     C321257   1.412   9.538  28.789  0.0697  0.3642  0.0697
 3543DDP     C421258   2.318   9.938  28.813  0.0982 -0.0316 -0.2779
 3544DDP     C121259   4.021  28.074  19.406  0.2099 -0.2001 -0.1704
 3544DDP     P121260   4.258  27.709  19.653  0.1537  0.1426 -0.0910
 3544DDP     P221261   3.579  27.803  19.426  0.0643 -0.0814  0.3099
 3544DDP     C221262   3.146  27.964  19.250  0.0329 -0.0981  0.0468
 3544DDP     C321263   4.662  27.566  19.755  0.0564  0.1231 -0.0395
 3544DDP     C421264   4.088  28.515  19.326  0.2286 -0.0261 -0.0198
 3545DDP     C121265  27.990   1.368  25.514  0.0811 -0.0432 -0.2382
 3545DDP     P121266  27.639   1.665  25.729 -0.0348  0.1756 -0.0859
 3545DDP     P221267  27.964   1.404  25.065  0.1224 -0.1766  0.1434
 3545DDP     C221268  28.121   1.459  24.705 -0.0308 -0.1458 -0.1260
 3545DDP     C321269  27.248   2.010  25.681  0.2403 -0.1502 -0.2359
 3545DDP     C421270  28.387   1.185  25.721 -0.2220 -0.0457 -0.1318
 3546DDP     C121271   3.686   3.387  17.003 -0.1458  0.0200 -0.1697
 3546DDP     P121272   3.852   3.509  16.707 -0.0047  0.0644  0.0842
 3546DDP     P221273   3.462   2.921  17.010  0.3155 -0.0590 -0.2953
 3546DDP     C221274   3.652   2.591  17.065 -0.0487  0.3128  0.2044
 3546DDP     C321275   4.335   3.524  16.682  0.0327 -0.0112  0.1689
 3546DDP     C421276   3.825   3.575  17.413 -0.1759 -0.1786 -0.3703
 3547DDP     C121277   8.051  28.729  11.207 -0.2272  0.0043 -0.1186
 3547DDP     P121278   7.794  29.023  11.228  0.0089 -0.1183  0.1091
 3547DDP     P221279   8.036  28.277  11.333 -0.0800 -0.1239  0.0057
 3547DDP     C221280   8.016  27.919  11.297 -0.2840  0.0585 -0.0464
 3547DDP     C321281   7.675  29.414  11.168 -0.0483 -0.0596  0.0484
 3547DDP     C421282   8.554  28.711  11.034 -0.1266 -0.1773  0.1364
 3548DDP     C121283  16.829  28.861  25.873  0.0524 -0.0385 -0.1507
 3548DDP     P121284  16.782  29.200  25.808 -0.0289 -0.0945  0.1098
 3548DDP     P221285  16.602  28.466  25.827  0.1000 -0.2426  0.0664
 3548DDP     C221286  16.305  28.167  25.461 -0.2822 -0.2294 -0.0509
 3548DDP     C321287  16.374  29.495  25.805  0.1972  0.0585 -0.2851
 3548DDP     C421288  17.163  28.643  26.186 -0.1183 -0.1814  0.1532
 3549DDP     C121289  19.866  20.109  19.696 -0.0833  0.0492  0.0597
 3549DDP     P121290  20.150  19.965  19.897  0.1604 -0.2289 -0.0122
 3549DDP     P221291  19.489  19.853  19.541  0.0785 -0.5810  0.0278
 3549DDP     C221292  19.289  19.856  19.099  0.0956 -0.0060  0.0355
 3549DDP     C321293  20.475  19.694  19.864  0.1500  0.1339 -0.0517
 3549DDP     C421294  19.829  20.660  19.662 -0.2323 -0.2118 -0.1643
 3550DDP     C121295   4.343  15.804  10.437 -0.1155 -0.3549  0.2941
 3550DDP     P121296   4.242  15.661   9.942  0.1524 -0.1000  0.0443
 3550DDP     P221297   4.638  15.754  10.737 -0.0671 -0.4332 -0.2052
 3550DDP     C221298   5.034  15.923  10.956  0.0037 -0.3615  0.1649
 3550DDP     C321299   4.251  15.462   9.540  0.0361 -0.0894 -0.2627
 3550DDP     C421300   4.057  16.135  10.598 -0.0019  0.0521 -0.1838
 3551DDP     C121301   0.253  25.170   6.487 -0.1340  0.1108  0.0281
 3551DDP     P121302   0.145  25.457   6.727  0.1193 -0.0650  0.3446
 3551DDP     P221303   0.638  25.333   6.229 -0.1930 -0.1808  0.2376
 3551DDP     C221304   0.944  25.576   5.944  0.3021  0.2832 -0.3226
 3551DDP     C321305  30.191  25.764   6.872 -0.1171  0.0343  0.2966
 3551DDP     C421306  30.170  24.973   6.301  0.0476  0.0280  0.2127
 3552DDP     C121307  17.543  13.553   8.980  0.0393 -0.1091 -0.1550
 3552DDP     P121308  17.824  13.558   8.741  0.2646  0.2301 -0.2626
 3552DDP     P221309  17.332  13.803   8.713 -0.0168 -0.2628 -0.2706
 3552DDP     C221310  17.043  14.178   8.661  0.0050 -0.2376 -0.0778
 3552DDP     C321311  18.240  13.440   8.559 -0.1896  0.1129 -0.2649
 3552DDP     C421312  17.256  13.396   9.274 -0.0586  0.0289  0.0207
 3553DDP     C121313  27.526  20.169   1.385  0.0812 -0.0037 -0.1975
 3553DDP     P121314  27.458  19.743   1.188  0.0552  0.0991  0.0915
 3553DDP     P221315  27.986  20.062   1.484 -0.0315  0.1775 -0.0234
 3553DDP     C221316  28.401  20.075   1.392 -0.0850 -0.0442 -0.3350
 3553DDP     C321317  27.290  19.324   1.230 -0.0846 -0.1343  0.2498
 3553DDP     C421318  27.323  20.584   1.144  0.1005  0.3869  0.1169
 3554DDP     C121319  20.741  18.802  21.511  0.1936 -0.0416  0.0491
 3554DDP     P121320  20.711  19.185  21.418 -0.1339  0.3255 -0.2184
 3554DDP     P221321  20.437  18.847  21.887  0.0514  0.2247  0.3490
 3554DDP     C221322  20.158  19.121  22.080 -0.0809  0.4003 -0.0553
 3554DDP     C321323  20.894  19.449  21.175  0.3353 -0.0765  0.0241
 3554DDP     C421324  20.963  18.388  21.471 -0.0033 -0.1197 -0.0474
 3555DDP     C121325   5.394  29.186  19.051 -0.1302 -0.2654 -0.0504
 3555DDP     P121326   5.216  29.202  18.695 -0.1667  0.1299 -0.0591
 3555DDP     P221327   5.300  29.115  19.515  0.0274 -0.1019 -0.0013
 3555DDP     C221328   5.058  28.963  19.892 -0.0661  0.0208  0.0881
 3555DDP     C321329   5.189  29.108  18.303 -0.1298 -0.0224 -0.2039
 3555DDP     C421330   5.796  29.158  19.092 -0.4532  0.2000 -0.0644
 3556DDP     C121331  17.067   3.150  15.987 -0.1933  0.2362 -0.3032
 3556DDP     P121332  17.064   3.483  16.256 -0.0016  0.0874 -0.0505
 3556DDP     P221333  17.421   3.184  15.713 -0.0327 -0.2784  0.3424
 3556DDP     C221334  17.785   3.229  15.510 -0.2310 -0.0178  0.1166
 3556DDP     C321335  17.129   4.003  16.139  0.0459 -0.2164  0.0679
 3556DDP     C421336  16.805   2.872  16.013 -0.0802  0.4476 -0.0490
 3557DDP     C121337   5.239  19.381   2.711  0.1595  0.1105  0.0555
 3557DDP     P121338   4.946  19.549   3.035 -0.2668 -0.2556  0.2102
 3557DDP     P221339   5.104  19.284   2.340 -0.1956 -0.2907  0.0499
 3557DDP     C221340   4.988  19.056   1.949 -0.0403 -0.0991 -0.0282
 3557DDP     C321341   4.809  19.808   3.320  0.3458  0.0930  0.0513
 3557DDP     C421342   5.679  19.274   2.882 -0.0614 -0.3552 -0.0829
 3558DDP     C121343  16.729  27.453   3.912 -0.1393  0.1871 -0.1821
 3558DDP     P121344  16.824  27.226   4.360 -0.1264  0.1477 -0.0025
 3558DDP     P221345  16.483  27.231   3.660 -0.1974 -0.2201 -0.0395
 3558DDP     C221346  16.458  26.784   3.676 -0.0227  0.0149 -0.1065
 3558DDP     C321347  17.081  27.266   4.773  0.2997  0.1267 -0.1091
 3558DDP     C421348  17.021  27.769   3.657  0.0595 -0.1805  0.4520
 3559DDP     C121349  22.818  14.937  24.639  0.0550 -0.0525  0.2447
 3559DDP     P121350  23.083  14.980  24.278 -0.0999 -0.0150 -0.1371
 3559DDP     P221351  22.447  15.117  24.473  0.0617  0.1079  0.0588
 3559DDP     C221352  22.031  15.176  24.444  0.1022  0.2188 -0.2016
 3559DDP     C321353  23.281  14.825  23.932  0.3015  0.0299  0.1227
 3559DDP     C421354  23.033  14.985  25.075 -0.0777  0.0029 -0.3180
 3560DDP     C121355   2.372  23.401  28.963  0.1201 -0.2189  0.0879
 3560DDP     P121356   2.491  23.761  29.088 -0.1118  0.2894 -0.1614
 3560DDP     P221357   2.422  22.989  28.842 -0.1255  0.0469  0.1126
 3560DDP     C221358   2.813  22.882  28.792 -0.0116 -0.0059  0.1771
 3560DDP     C321359   2.567  24.119  29.030 -0.2141  0.0525  0.0843
 3560DDP     C421360   1.983  23.522  28.767  0.4104  0.0103  0.2400
 3561DDP     C121361  17.500   5.787   8.218 -0.0344  0.1520  0.0972
 3561DDP     P121362  17.491   6.087   8.439  0.0704 -0.0663 -0.0402
 3561DDP     P221363  17.834   5.682   8.025  0.0450 -0.1884  0.0059
 3561DDP     C221364  17.854   5.737   7.678  0.3079  0.1291 -0.1624
 3561DDP     C321365  17.365   6.399   8.737 -0.0258 -0.0734  0.0267
 3561DDP     C421366  17.364   5.420   8.336 -0.1661  0.0139 -0.1051
 3562DDP     C121367  13.668   8.620   0.353 -0.0968  0.3328 -0.3596
 3562DDP     P121368  14.109   8.769   0.345 -0.1307 -0.1768 -0.0913
 3562DDP     P221369  13.511   8.859   0.005  0.0134 -0.2514  0.0998
 3562DDP     C221370  13.046   9.018  30.259  0.1293 -0.0781  0.3387
 3562DDP     C321371  14.527   8.931   0.233  0.0881 -0.0306  0.1454
 3562DDP     C421372  13.615   8.224   0.642 -0.0379 -0.0565 -0.3885
 3563DDP     C121373  27.763   8.433   0.059 -0.4352 -0.0379  0.1592
 3563DDP     P121374  27.716   8.231   0.397  0.0913 -0.1686  0.0387
 3563DDP     P221375  28.147   8.780   0.082 -0.2152 -0.2047 -0.0874
 3563DDP     C221376  28.329   9.080  30.275 -0.1528 -0.2160  0.0562
 3563DDP     C321377  27.848   8.325   0.891  0.1040 -0.0209  0.0873
 3563DDP     C421378  27.495   8.471  29.911  0.0294 -0.1329 -0.0251
 3564DDP     C121379   0.695  10.549  23.434 -0.0937 -0.4382 -0.4005
 3564DDP     P121380   0.499  10.786  23.170 -0.0789 -0.0699 -0.1324
 3564DDP     P221381   0.519  10.492  23.955  0.0546  0.2002 -0.0721
 3564DDP     C221382   0.169  10.512  24.192 -0.2365  0.2601  0.1566
 3564DDP     C321383   0.233  11.157  23.303  0.0116 -0.0792 -0.0667
 3564DDP     C421384   1.109  10.290  23.364 -0.0057 -0.0665  0.2467
 3565DDP     C121385  18.938  19.595   7.823  0.1656  0.1951  0.0846
 3565DDP     P121386  19.122  19.173   7.749  0.0489  0.1503 -0.0164
 3565DDP     P221387  19.244  19.921   7.950  0.0415  0.1254 -0.0519
 3565DDP     C221388  19.244  20.325   7.917  0.3082  0.1910 -0.0715
 3565DDP     C321389  19.551  19.044   7.498 -0.1831 -0.5306  0.0949
 3565DDP     C421390  18.450  19.641   7.862 -0.1384  0.1571  0.3235
 3566DDP     C121391  17.237  27.938  16.229 -0.0843 -0.1545  0.1591
 3566DDP     P121392  17.265  28.193  16.608  0.3196  0.0585 -0.1115
 3566DDP     P221393  16.960  27.825  15.915  0.1695 -0.2753 -0.0974
 3566DDP     C221394  16.508  27.582  16.039 -0.0633 -0.0751  0.0467
 3566DDP     C321395  17.352  28.091  17.036 -0.0566  0.0443  0.0113
 3566DDP     C421396  17.412  27.606  16.150  0.0654 -0.1554 -0.2507
 3567DDP     C121397   8.254  21.884  18.361  0.0733 -0.1909  0.0617
 3567DDP     P121398   7.924  21.985  18.262  0.2377  0.0358 -0.4092
 3567DDP     P221399   8.244  21.512  18.247 -0.2170  0.4076 -0.0757
 3567DDP     C221400   8.266  20.925  18.160  0.2400 -0.0851  0.0021
 3567DDP     C321401   7.770  22.427  18.274  0.0788  0.1942 -0.0577
 3567DDP     C421402   8.406  22.071  18.744  0.0963  0.0741  0.0692
 3568DDP     C121403  28.962  13.551  12.793 -0.2128  0.1868 -0.0179
 3568DDP     P121404  29.375  13.612  12.699  0.2443  0.1929 -0.3585
 3568DDP     P221405  28.737  13.551  12.497 -0.0692 -0.0346  0.2359
 3568DDP     C221406  28.557  13.856  12.278 -0.0356 -0.1839  0.1853
 3568DDP     C321407  29.534  14.007  12.563 -0.0107  0.2620  0.3773
 3568DDP     C421408  28.750  13.396  13.132  0.1752 -0.0855  0.0465
 3569DDP     C121409   9.648  12.910  11.291  0.1918 -0.0859 -0.1003
 3569DDP     P121410   9.230  13.055  11.157  0.1400 -0.1016 -0.2885
 3569DDP     P221411   9.471  12.571  11.214 -0.0151  0.0137 -0.1724
 3569DDP     C221412   9.097  12.401  11.358  0.1018 -0.2723 -0.0650
 3569DDP     C321413   9.035  13.471  11.014 -0.0465 -0.1044  0.0601
 3569DDP     C421414   9.820  13.171  11.635  0.3181 -0.0362  0.0355
 3570DDP     C121415   3.296  25.219  15.834  0.1266 -0.2478  0.0632
 3570DDP     P121416   2.998  24.927  15.775 -0.1792 -0.0670 -0.0938
 3570DDP     P221417   3.669  25.164  15.600  0.0811 -0.2784  0.0556
 3570DDP     C221418   4.022  24.950  15.524 -0.2583 -0.3947  0.0931
 3570DDP     C321419   2.762  24.557  15.987 -0.2928  0.0844 -0.0551
 3570DDP     C421420   3.232  25.692  15.962  0.3363 -0.2973  0.0828
 3571DDP     C121421  17.762  29.115  28.827 -0.0249  0.0805  0.1634
 3571DDP     P121422  17.404  29.058  29.107 -0.1885 -0.0754  0.2788
 3571DDP     P221423  18.097  29.063  28.904 -0.1722 -0.0430  0.2419
 3571DDP     C221424  18.377  28.917  28.603 -0.1264  0.1177 -0.1159
 3571DDP     C321425  17.241  29.275  29.545  0.1425 -0.0162 -0.0349
 3571DDP     C421426  17.573  29.122  28.385 -0.2054 -0.2724  0.0593
 3572DDP     C121427   2.412  26.337  28.299 -0.0166  0.0540 -0.1928
 3572DDP     P121428   2.834  26.255  28.251 -0.0205  0.2143 -0.2200
 3572DDP     P221429   2.164  26.257  28.017 -0.0077 -0.0023 -0.1876
 3572DDP     C221430   2.150  26.058  27.649  0.3081 -0.1269 -0.2766
 3572DDP     C321431   3.075  25.929  28.049 -0.1946  0.1632 -0.1717
 3572DDP     C421432   2.273  26.704  28.518  0.3451 -0.1348  0.1266
 3573DDP     C121433   5.364  16.395  21.988 -0.1165 -0.0876  0.1912
 3573DDP     P121434   5.497  16.256  21.579  0.0972 -0.2245 -0.2528
 3573DDP     P221435   5.278  16.672  21.739 -0.0135  0.3322 -0.0958
 3573DDP     C221436   5.184  16.721  21.285 -0.0339 -0.0975  0.0172
 3573DDP     C321437   5.245  16.229  21.195  0.1054  0.0625 -0.1897
 3573DDP     C421438   5.400  16.405  22.458 -0.0010  0.0764  0.1328
 3574DDP     C121439  10.816  11.671  19.317  0.0215  0.0535 -0.1395
 3574DDP     P121440  10.449  11.481  19.445 -0.3348  0.2859 -0.1111
 3574DDP     P221441  10.624  12.010  19.147 -0.3773 -0.0299 -0.1718
 3574DDP     C221442  10.321  12.316  19.141 -0.0418  0.1439  0.0412
 3574DDP     C321443  10.192  11.282  19.191  0.0965 -0.0447  0.1387
 3574DDP     C421444  11.139  11.443  19.107 -0.0093  0.0073  0.0043
 3575DDP     C121445  29.876  14.841  14.124 -0.1039 -0.2297 -0.0835
 3575DDP     P121446  30.086  14.911  13.713 -0.0922 -0.1860  0.1769
 3575DDP     P221447  29.546  14.836  13.845 -0.2055 -0.0513 -0.2379
 3575DDP     C221448  29.093  15.014  13.644  0.0341 -0.0452  0.3442
 3575DDP     C321449   0.203  14.979  13.655  0.1127  0.1579  0.0925
 3575DDP     C421450  29.890  14.685  14.532  0.0334 -0.0061 -0.0592
 3576DDP     C121451  13.681  24.301  17.148 -0.0336 -0.0551 -0.1904
 3576DDP     P121452  13.800  24.049  17.529  0.2818  0.1421 -0.4450
 3576DDP     P221453  13.689  24.720  17.268  0.2624 -0.0797  0.0457
 3576DDP     C221454  13.571  25.142  17.097  0.1274  0.0031  0.1004
 3576DDP     C321455  14.098  23.730  17.420  0.2747 -0.1302 -0.1066
 3576DDP     C421456  13.593  24.132  16.783 -0.0053 -0.1174 -0.0726
 3577DDP     C121457  22.930   0.575  22.033 -0.0209  0.2045  0.2233
 3577DDP     P121458  22.779   0.872  22.493  0.2879  0.1938  0.0026
 3577DDP     P221459  23.103   0.913  21.681 -0.1022  0.3252  0.1846
 3577DDP     C221460  22.937   1.237  21.347 -0.0002  0.0328 -0.0886
 3577DDP     C321461  22.681   1.086  22.853  0.2780 -0.0143  0.0997
 3577DDP     C421462  22.960   0.145  21.867 -0.1051  0.1632 -0.0408
 3578DDP     C121463  23.853  14.007   5.244 -0.0902 -0.0979 -0.1855
 3578DDP     P121464  23.667  14.307   5.055 -0.0372  0.0908 -0.1344
 3578DDP     P221465  23.953  13.709   5.019  0.1628  0.2227 -0.0085
 3578DDP     C221466  23.948  13.255   4.863 -0.1078 -0.0263  0.0941
 3578DDP     C321467  23.255  14.298   4.854  0.1835  0.2720  0.1560
 3578DDP     C421468  23.967  13.954   5.638  0.1742 -0.1027 -0.0203
 3579DDP     C121469  20.478  25.006  13.104 -0.2158  0.4531 -0.1735
 3579DDP     P121470  20.497  25.439  13.031  0.0881 -0.1724  0.2403
 3579DDP     P221471  20.291  24.923  13.559 -0.1586  0.1617 -0.1071
 3579DDP     C221472  20.040  24.633  13.722  0.0844 -0.0846  0.1513
 3579DDP     C321473  20.139  25.681  13.039  0.0047 -0.1255 -0.3595
 3579DDP     C421474  20.346  24.791  12.765  0.1201  0.0418  0.0306
 3580DDP     C121475   8.507  25.290  26.875  0.1979 -0.3968 -0.1603
 3580DDP     P121476   8.723  25.553  26.955  0.0501  0.0576 -0.1390
 3580DDP     P221477   8.400  25.093  27.276 -0.0236  0.1725 -0.0219
 3580DDP     C221478   8.420  25.015  27.741 -0.3580 -0.2463  0.1434
 3580DDP     C321479   8.958  25.947  26.789 -0.0510  0.0702  0.0398
 3580DDP     C421480   8.297  25.256  26.532  0.0457 -0.0326 -0.2121
 3581DDP     C121481  20.314   2.812  13.871  0.1187 -0.3806  0.4452
 3581DDP     P121482  20.469   2.451  14.100 -0.1528 -0.2738  0.0065
 3581DDP     P221483  20.509   3.230  13.857  0.1254 -0.0541  0.1861
 3581DDP     C221484  20.786   3.647  13.567  0.3312  0.0612 -0.1264
 3581DDP     C321485  20.736   2.082  14.095  0.0984 -0.1276  0.2064
 3581DDP     C421486  19.890   2.682  13.763  0.0986  0.0212 -0.0225
 3582DDP     C121487  21.568  23.151  14.904 -0.1528 -0.0122  0.1970
 3582DDP     P121488  21.705  23.329  15.286 -0.1399  0.0423 -0.0949
 3582DDP     P221489  21.305  22.809  14.898  0.1894  0.1660 -0.3025
 3582DDP     C221490  20.904  22.763  14.853  0.2142 -0.0373  0.1682
 3582DDP     C321491  21.867  23.426  15.737  0.3881  0.2356  0.0965
 3582DDP     C421492  21.784  23.149  14.444  0.0420 -0.1842  0.3132
 3583DDP     C121493  28.094   6.834  21.865  0.0866 -0.1051 -0.1390
 3583DDP     P121494  27.704   7.064  22.006  0.0025 -0.0885 -0.0189
 3583DDP     P221495  27.937   6.380  21.721 -0.0050 -0.1304 -0.1276
 3583DDP     C221496  28.150   6.122  21.576  0.0551 -0.0596 -0.2078
 3583DDP     C321497  27.344   7.142  21.780  0.0661  0.1575  0.0284
 3583DDP     C421498  28.430   7.040  21.608  0.0163 -0.0820 -0.1001
 3584DDP     C121499  11.559  16.897  14.369 -0.0939  0.4459  0.0872
 3584DDP     P121500  11.720  16.414  14.472  0.2561  0.3090 -0.1496
 3584DDP     P221501  11.208  17.022  14.093 -0.4694  0.2203 -0.0943
 3584DDP     C221502  11.012  17.180  13.678  0.0516  0.2513  0.3170
 3584DDP     C321503  12.027  16.202  14.583  0.1959  0.0086  0.0081
 3584DDP     C421504  11.811  17.161  14.642  0.4373 -0.2058 -0.0052
 3585DDP     C121505  26.236  12.776  14.438 -0.1231 -0.3161  0.0151
 3585DDP     P121506  26.091  12.376  14.232 -0.0141 -0.2222  0.2149
 3585DDP     P221507  26.672  12.696  14.554  0.2806  0.0249 -0.0880
 3585DDP     C221508  26.919  12.927  14.829  0.0037  0.0472 -0.2842
 3585DDP     C321509  25.911  12.278  13.857  0.0058  0.0320  0.0649
 3585DDP     C421510  25.990  13.133  14.694  0.0055 -0.1797  0.2331
 3586DDP     C121511  25.114  25.113  13.338 -0.2760 -0.3595  0.1308
 3586DDP     P121512  24.850  25.256  13.661 -0.1173 -0.3831  0.1174
 3586DDP     P221513  25.488  25.429  13.296 -0.0527 -0.1827 -0.0325
 3586DDP     C221514  25.875  25.650  13.014  0.1038 -0.0942  0.2331
 3586DDP     C321515  24.754  25.342  13.997 -0.0086  0.1931 -0.1461
 3586DDP     C421516  24.846  24.677  13.316  0.1260  0.2795  0.1694
 3587DDP     C121517  20.642  16.763  16.181 -0.3517 -0.1211 -0.0523
 3587DDP     P121518  20.180  16.958  16.167 -0.3111 -0.0902 -0.2369
 3587DDP     P221519  20.696  16.312  16.078 -0.1403 -0.0943 -0.2060
 3587DDP     C221520  20.463  16.088  15.833 -0.1032  0.1463 -0.2171
 3587DDP     C321521  19.826  17.041  15.865  0.0861  0.0088 -0.0667
 3587DDP     C421522  21.048  16.911  16.384  0.1708 -0.0867  0.1982
 3588DDP     C121523   1.738  23.671   8.036 -0.0021  0.0303  0.0544
 3588DDP     P121524   1.363  23.401   7.903 -0.2043 -0.2932  0.1518
 3588DDP     P221525   1.764  24.025   8.291  0.2333  0.0863 -0.1637
 3588DDP     C221526   1.396  24.208   8.444  0.0587  0.0022 -0.1614
 3588DDP     C321527   1.267  23.304   7.528 -0.1992  0.1629 -0.1691
 3588DDP     C421528   2.120  23.706   7.751  0.1627 -0.0100  0.0380
 3589DDP     C121529  29.345   8.889   7.908  0.0229  0.0619  0.4683
 3589DDP     P121530  29.096   8.631   7.998 -0.0980 -0.1799  0.0712
 3589DDP     P221531  29.582   9.235   8.110 -0.1147 -0.2129  0.1924
 3589DDP     C221532  29.711   9.491   8.409 -0.2093 -0.0927 -0.0810
 3589DDP     C321533  28.904   8.219   7.978 -0.1467  0.0562 -0.0153
 3589DDP     C421534  29.491   8.669   7.534 -0.0334 -0.0061  0.0118
 3590DDP     C121535  11.567  17.335  29.108 -0.2553  0.2769  0.1674
 3590DDP     P121536  11.975  17.252  29.471  0.2055  0.1176 -0.1230
 3590DDP     P221537  11.630  17.431  28.561 -0.1043  0.0570  0.0325
 3590DDP     C221538  11.500  17.219  28.128 -0.1796 -0.4669 -0.0426
 3590DDP     C321539  12.421  17.388  29.653  0.2597 -0.2453  0.0497
 3590DDP     C421540  11.212  17.256  29.313 -0.3212  0.0948 -0.2077
 3591DDP     C121541  23.648  13.081  26.500  0.0883 -0.0290 -0.1079
 3591DDP     P121542  23.442  12.979  26.866 -0.1919  0.0089  0.0815
 3591DDP     P221543  24.145  13.206  26.502 -0.0197 -0.1853 -0.3862
 3591DDP     C221544  24.333  13.301  26.923 -0.2762 -0.0195 -0.1797
 3591DDP     C321545  23.314  13.232  27.183 -0.0189 -0.3817 -0.2304
 3591DDP     C421546  23.475  13.187  26.147 -0.5040 -0.2993  0.1331
 3592DDP     C121547  12.496   5.526  29.998  0.1163  0.0311  0.0468
 3592DDP     P121548  12.271   5.177  30.225  0.1924 -0.0835 -0.2834
 3592DDP     P221549  12.367   5.816  29.753 -0.1131  0.2164  0.0077
 3592DDP     C221550  12.317   5.854  29.265  0.1829 -0.4206 -0.4901
 3592DDP     C321551  12.038   4.758   0.056 -0.2332 -0.1691 -0.1265
 3592DDP     C421552  13.076   5.475  30.191  0.1724  0.2015 -0.0679
 3593DDP     C121553  29.976  23.017   8.122  0.2680  0.3938 -0.2728
 3593DDP     P121554  29.744  22.610   8.091 -0.1248 -0.0211 -0.0505
 3593DDP     P221555  29.907  23.264   8.433  0.2723 -0.0605 -0.0961
 3593DDP     C221556  29.619  23.303   8.779 -0.0998 -0.1922 -0.0979
 3593DDP     C321557  29.555  22.158   8.148 -0.1578 -0.0907 -0.2213
 3593DDP     C421558  30.126  23.160   7.758 -0.0682 -0.0718 -0.2713
 3594DDP     C121559   0.537  24.123  19.997 -0.2235  0.0448  0.2163
 3594DDP     P121560   0.419  23.690  20.331  0.1544  0.2180 -0.1085
 3594DDP     P221561   0.457  24.551  19.944  0.0397  0.2768 -0.0046
 3594DDP     C221562   0.657  24.816  19.620 -0.3894 -0.0299  0.1290
 3594DDP     C321563   0.065  23.499  20.435  0.0275 -0.0057 -0.0411
 3594DDP     C421564   0.889  23.878  19.870 -0.0296 -0.0202  0.0217
 3595DDP     C121565   3.167  11.290  27.761  0.0675  0.2384  0.0708
 3595DDP     P121566   3.403  11.004  27.522 -0.0718  0.1379 -0.0555
 3595DDP     P221567   3.009  11.697  27.559  0.0170 -0.1817 -0.1441
 3595DDP     C221568   3.244  12.008  27.449  0.3268  0.1033  0.3792
 3595DDP     C321569   3.120  10.755  27.269  0.0199  0.1106 -0.2152
 3595DDP     C421570   3.007  11.034  28.049 -0.2597  0.0015 -0.1165
 3596DDP     C121571   1.125  22.291   1.277  0.0980 -0.2070 -0.0349
 3596DDP     P121572   1.342  22.316   0.915 -0.1680  0.0292 -0.1126
 3596DDP     P221573   1.078  22.011   1.586 -0.2167  0.0676 -0.2417
 3596DDP     C221574   0.860  21.547   1.679 -0.4220 -0.3799 -0.2293
 3596DDP     C321575   1.563  22.280   0.563  0.2872  0.2137 -0.1126
 3596DDP     C421576   1.022  22.708   1.388 -0.0475 -0.1462 -0.2797
 3597DDP     C121577  29.323   3.888  10.006  0.2308 -0.1214 -0.1736
 3597DDP     P121578  29.331   3.695   9.634 -0.0394 -0.2403 -0.0039
 3597DDP     P221579  29.415   3.581  10.410 -0.3944 -0.0763  0.2083
 3597DDP     C221580  29.351   3.176  10.603  0.1009 -0.1480 -0.1980
 3597DDP     C321581  29.201   3.298   9.564  0.4266  0.2598 -0.0327
 3597DDP     C421582  29.169   4.273  10.066  0.0313 -0.1399 -0.1194
 3598DDP     C121583  15.824  22.933  28.803  0.1760  0.1578  0.0116
 3598DDP     P121584  15.486  23.001  28.650 -0.0791  0.2458  0.2008
 3598DDP     P221585  16.003  22.974  28.468  0.0237  0.1576  0.0363
 3598DDP     C221586  16.118  23.306  28.130  0.3691 -0.1855 -0.1264
 3598DDP     C321587  15.244  23.026  28.385  0.0323  0.0729 -0.2652
 3598DDP     C421588  16.170  22.770  28.874  0.0383 -0.1734 -0.0522
 3599DDP     C121589  19.847   0.625  11.189 -0.0952 -0.1044  0.0859
 3599DDP     P121590  19.824   1.180  11.226  0.3417  0.0505 -0.1550
 3599DDP     P221591  19.337   0.523  11.202 -0.0742 -0.0150 -0.0249
 3599DDP     C221592  19.221   0.136  11.254 -0.1303  0.3661  0.1872
 3599DDP     C321593  20.103   1.353  11.508  0.0028 -0.2493  0.4575
 3599DDP     C421594  20.262   0.348  11.248 -0.1033 -0.0496 -0.1840
 3600DDP     C121595  27.336  19.342   2.294  0.1240 -0.1921  0.1538
 3600DDP     P121596  27.442  18.963   2.108  0.0745  0.2177 -0.1397
 3600DDP     P221597  27.479  19.736   2.213  0.0326 -0.0768  0.0667
 3600DDP     C221598  27.751  20.084   2.282 -0.2931  0.0709 -0.0341
 3600DDP     C321599  27.557  18.649   1.914  0.1473  0.0628 -0.2970
 3600DDP     C421600  27.291  19.363   2.765 -0.1116 -0.4407  0.2880
 3601DDP     C121601  19.234   8.466  17.627  0.1141  0.5323  0.0845
 3601DDP     P121602  19.228   8.529  18.143 -0.1188 -0.2845 -0.1154
 3601DDP     P221603  18.896   8.214  17.444 -0.1627 -0.1740 -0.1441
 3601DDP     C221604  18.807   8.105  17.027  0.1512 -0.0198  0.1596
 3601DDP     C321605  19.138   8.339  18.571  0.2238  0.2083 -0.2164
 3601DDP     C421606  19.229   8.863  17.325 -0.0458  0.0030 -0.0239
 3602DDP     C121607  13.992  24.614   5.221 -0.0871 -0.0599 -0.0005
 3602DDP     P121608  13.702  24.516   5.529 -0.1573 -0.0132 -0.0098
 3602DDP     P221609  13.812  24.401   4.816 -0.2332  0.0774  0.0197
 3602DDP     C221610  13.403  24.009   4.720  0.0382 -0.1109  0.1962
 3602DDP     C321611  13.660  24.351   5.840 -0.3478  0.1993 -0.1311
 3602DDP     C421612  14.282  24.958   5.281  0.1671 -0.1980 -0.2162
 3603DDP     C121613  20.705  19.114  16.012 -0.0991  0.1152  0.0083
 3603DDP     P121614  21.014  18.786  15.930 -0.2811 -0.1458  0.2199
 3603DDP     P221615  20.689  19.244  16.512 -0.1927  0.0796  0.2960
 3603DDP     C221616  20.582  19.180  17.018 -0.1064 -0.0486  0.4238
 3603DDP     C321617  21.364  18.714  16.028 -0.1725  0.1150  0.0617
 3603DDP     C421618  20.585  19.569  15.987  0.0477 -0.1158  0.1320
 3604DDP     C121619   0.206  20.176  28.488  0.4118  0.0065 -0.0748
 3604DDP     P121620   0.535  20.363  28.766 -0.1358  0.3553 -0.0567
 3604DDP     P221621   0.206  19.890  28.157  0.0248 -0.2669  0.0081
 3604DDP     C221622   0.303  19.686  27.884 -0.2017  0.3238  0.3223
 3604DDP     C321623   0.839  20.657  28.889 -0.0636 -0.1048 -0.1305
 3604DDP     C421624   0.148  20.430  28.377 -0.1124  0.2068 -0.1108
 3605DDP     C121625  22.438   0.619  23.476 -0.3654 -0.1788 -0.0711
 3605DDP     P121626  22.327   0.474  23.885 -0.0543 -0.1968 -0.0684
 3605DDP     P221627  22.754   0.686  23.105  0.2037  0.2428  0.1105
 3605DDP     C221628  23.166   0.783  22.942 -0.5145 -0.2389 -0.0218
 3605DDP     C321629  21.921   0.171  24.124  0.3521 -0.0490  0.0039
 3605DDP     C421630  22.244   1.062  23.442  0.4077 -0.1510 -0.1136
 3606DDP     C121631   2.499  25.907  15.828  0.0601 -0.1327  0.0746
 3606DDP     P121632   2.733  25.854  16.254  0.0559 -0.0305  0.1682
 3606DDP     P221633   2.286  25.419  15.680 -0.2296 -0.1752  0.1875
 3606DDP     C221634   2.025  25.099  15.607  0.1485 -0.2525  0.3639
 3606DDP     C321635   2.976  25.445  16.359  0.1096  0.2106  0.1384
 3606DDP     C421636   2.322  26.448  15.705 -0.2318 -0.2224  0.3843
 3607DDP     C121637  26.881  13.256  13.595 -0.0361  0.2085 -0.0800
 3607DDP     P121638  26.837  13.625  13.566 -0.0380  0.1390 -0.1181
 3607DDP     P221639  27.346  13.182  13.469 -0.1694 -0.1129 -0.1369
 3607DDP     C221640  27.481  13.154  13.082 -0.0664 -0.3099 -0.0155
 3607DDP     C321641  26.658  13.936  13.425 -0.1614 -0.2330 -0.0694
 3607DDP     C421642  26.595  13.056  13.847 -0.2255  0.0819  0.1240
 3608DDP     C121643  26.018   8.560   5.728  0.0791  0.1723  0.0701
 3608DDP     P121644  25.968   8.113   5.754 -0.1498  0.0197 -0.0963
 3608DDP     P221645  25.677   8.859   5.497 -0.0303 -0.0502 -0.2106
 3608DDP     C221646  25.489   9.026   5.158 -0.0102 -0.1559  0.0053
 3608DDP     C321647  25.914   7.669   5.718  0.2044 -0.1462 -0.0038
 3608DDP     C421648  26.452   8.770   5.877  0.1242  0.1088 -0.0795
 3609DDP     C121649  16.213  20.585  24.374  0.1996 -0.1496 -0.1129
 3609DDP     P121650  15.774  20.583  24.182  0.0933  0.1035 -0.3332
 3609DDP     P221651  16.422  20.840  24.255  0.1887 -0.0044  0.1013
 3609DDP     C221652  16.807  21.029  23.982 -0.0624  0.1366  0.0617
 3609DDP     C321653  15.461  20.511  24.486 -0.0658  0.2659  0.3014
 3609DDP     C421654  16.436  20.310  24.523 -0.1481  0.2347  0.1487
 3610DDP     C121655  13.095  18.547  19.787 -0.0128  0.0420  0.5128
 3610DDP     P121656  13.397  18.194  19.724  0.0837 -0.1248  0.0174
 3610DDP     P221657  13.280  19.046  19.879  0.1716  0.0794  0.1357
 3610DDP     C221658  13.195  19.420  19.671  0.0202  0.1992 -0.0057
 3610DDP     C321659  13.433  17.701  19.786  0.1355  0.0247 -0.2440
 3610DDP     C421660  12.657  18.295  19.847  0.4055  0.0225  0.1369
 3611DDP     C121661  28.986   1.689  11.661 -0.1545 -0.0920 -0.1279
 3611DDP     P121662  28.561   1.720  11.626 -0.1763 -0.0488  0.0829
 3611DDP     P221663  28.886   1.823  12.132 -0.0988  0.1293  0.2313
 3611DDP     C221664  28.886   2.056  12.369  0.0702 -0.3303 -0.0466
 3611DDP     C321665  28.284   1.952  11.817 -0.3472 -0.1838  0.0028
 3611DDP     C421666  29.204   1.473  11.410  0.1875 -0.0971  0.0646
 3612DDP     C121667  24.199  15.725  18.128 -0.2779  0.2546 -0.2262
 3612DDP     P121668  24.213  15.894  18.489  0.0691  0.1080  0.0576
 3612DDP     P221669  24.118  15.927  17.711  0.0665  0.0838  0.0330
 3612DDP     C221670  23.847  16.024  17.396  0.1568  0.2552  0.0994
 3612DDP     C321671  24.544  16.171  18.755 -0.2233 -0.2094  0.0299
 3612DDP     C421672  23.963  15.328  18.163 -0.0680 -0.2193  0.1884
 3613DDP     C121673   7.876   2.493  15.993 -0.2143 -0.3139  0.2234
 3613DDP     P121674   8.091   2.883  16.143 -0.3103 -0.0175  0.1262
 3613DDP     P221675   7.426   2.362  16.107 -0.0437 -0.2663  0.0309
 3613DDP     C221676   7.089   2.606  16.242  0.3129 -0.0526  0.0520
 3613DDP     C321677   8.611   3.014  16.067  0.1775 -0.3051 -0.0156
 3613DDP     C421678   8.196   2.353  15.736  0.0775  0.1560  0.0971
 3614DDP     C121679   7.304   9.379  18.819 -0.1117 -0.0474  0.6180
 3614DDP     P121680   7.030   9.185  19.091  0.0642 -0.3490  0.0499
 3614DDP     P221681   7.515   9.470  19.193  0.1412  0.2502  0.3626
 3614DDP     C221682   7.875   9.747  19.400  0.1481  0.3189 -0.0956
 3614DDP     C321683   6.911   8.977  19.450 -0.1354  0.0974 -0.0861
 3614DDP     C421684   7.498   9.513  18.389 -0.0148  0.0775 -0.0119
 3615DDP     C121685  30.021  11.250   5.773  0.1244  0.1561 -0.2230
 3615DDP     P121686  30.256  10.943   6.039  0.2254 -0.2552  0.5302
 3615DDP     P221687  29.671  11.250   5.875 -0.0843  0.0830 -0.0339
 3615DDP     C221688  29.318  10.913   6.041  0.1472 -0.0022 -0.1353
 3615DDP     C321689   0.139  10.593   6.182 -0.1300 -0.0959 -0.1039
 3615DDP     C421690  -0.041  11.377   5.516 -0.3078  0.0746 -0.1994
 3616DDP     C121691   5.081  16.807   3.291  0.0009 -0.1213 -0.0240
 3616DDP     P121692   5.393  16.838   3.550  0.1195 -0.1887  0.1558
 3616DDP     P221693   5.043  16.822   2.883  0.2525  0.1535 -0.0793
 3616DDP     C221694   5.137  16.674   2.464  0.1017 -0.1248 -0.2883
 3616DDP     C321695   5.446  17.178   3.830  0.2931 -0.0165 -0.2979
 3616DDP     C421696   4.780  16.559   3.508 -0.0326 -0.1808  0.1177
 3617DDP     C121697  26.840   5.673  17.778  0.0616  0.1285  0.1721
 3617DDP     P121698  26.399   5.649  17.567 -0.1591  0.3642 -0.0830
 3617DDP     P221699  26.973   5.281  17.961 -0.4245  0.1225 -0.0052
 3617DDP     C221700  27.281   5.011  18.098  0.0232  0.3422  0.0326
 3617DDP     C321701  26.284   5.828  17.179  0.0119 -0.3133  0.3671
 3617DDP     C421702  27.013   6.093  17.820 -0.2372 -0.2682 -0.0404
 3618DDP     C121703  15.664  14.979   9.256 -0.0742  0.0617  0.0582
 3618DDP     P121704  15.899  14.675   9.328  0.4685 -0.2068 -0.3159
 3618DDP     P221705  15.828  15.419   9.303 -0.0935  0.2103  0.3122
 3618DDP     C221706  16.082  15.604   9.651 -0.1190  0.0362 -0.0927
 3618DDP     C321707  16.001  14.237   9.282  0.0443  0.3141  0.3684
 3618DDP     C421708  15.249  14.831   9.060  0.0426 -0.0715 -0.2182
 3619DDP     C121709  25.070  24.971   6.591  0.1559  0.1335 -0.1940
 3619DDP     P121710  25.003  24.659   6.889 -0.3121 -0.0015  0.1424
 3619DDP     P221711  24.752  25.208   6.425  0.1089 -0.2409  0.0297
 3619DDP     C221712  24.667  25.621   6.097  0.3222 -0.2115 -0.1283
 3619DDP     C321713  25.045  24.408   7.230 -0.0823  0.0101 -0.1283
 3619DDP     C421714  25.444  24.865   6.251  0.0294  0.0422  0.0357
 3620DDP     C121715  27.997  14.944   6.996  0.2063 -0.1168  0.1066
 3620DDP     P121716  28.439  14.914   7.144  0.0711 -0.3074 -0.0495
 3620DDP     P221717  28.017  15.022   6.534 -0.2209 -0.3340  0.1210
 3620DDP     C221718  27.893  15.121   6.090  0.1031  0.0532  0.2133
 3620DDP     C321719  28.887  14.956   7.318  0.2269  0.1019  0.1308
 3620DDP     C421720  27.555  14.952   7.137 -0.0953 -0.1154 -0.0910
 3621DDP     C121721   4.322   5.299  25.562 -0.1104 -0.0245  0.2334
 3621DDP     P121722   4.572   5.149  25.823 -0.2253 -0.1508 -0.1513
 3621DDP     P221723   4.164   5.512  25.216 -0.0042 -0.0608 -0.0382
 3621DDP     C221724   3.900   5.378  24.920 -0.0807 -0.0275  0.2775
 3621DDP     C321725   4.833   5.142  26.120  0.0651 -0.1019  0.2166
 3621DDP     C421726   3.973   5.069  25.655 -0.0977 -0.2294  0.0082
 3622DDP     C121727   6.933  19.322   5.438  0.1827 -0.4522  0.2942
 3622DDP     P121728   6.502  19.232   5.602 -0.2878  0.1242 -0.3498
 3622DDP     P221729   7.153  19.666   5.110  0.0519  0.3686 -0.0466
 3622DDP     C221730   7.114  20.126   5.251  0.0103 -0.0068 -0.2167
 3622DDP     C321731   6.112  19.144   5.728 -0.1124 -0.2027 -0.2156
 3622DDP     C421732   7.286  19.181   5.663 -0.2321 -0.1268 -0.1415
 3623DDP     C121733   3.037  14.029   3.716 -0.0298 -0.2013  0.0058
 3623DDP     P121734   2.584  14.090   3.621 -0.0566 -0.2328  0.0730
 3623DDP     P221735   3.391  14.320   3.761 -0.2219 -0.1340  0.2550
 3623DDP     C221736   3.690  14.718   3.967 -0.3333  0.0488 -0.3952
 3623DDP     C321737   2.203  14.028   3.556  0.0439 -0.1836 -0.0935
 3623DDP     C421738   3.226  13.865   3.997  0.2651  0.0570 -0.2091
 3624DDP     C121739  24.811  27.114  28.217 -0.0087 -0.1216 -0.0779
 3624DDP     P121740  25.022  27.108  27.836 -0.1339 -0.0598  0.1551
 3624DDP     P221741  25.051  27.018  28.619  0.0075 -0.1187  0.0762
 3624DDP     C221742  25.512  27.084  28.705 -0.0722 -0.0015  0.0075
 3624DDP     C321743  25.276  27.456  27.735 -0.3167 -0.2552 -0.0900
 3624DDP     C421744  24.362  27.177  28.067 -0.1325  0.5400  0.1402
 3625DDP     C121745  15.132  24.160   5.191  0.1510 -0.1553 -0.2207
 3625DDP     P121746  14.750  24.028   5.033  0.0512 -0.1422 -0.1267
 3625DDP     P221747  15.214  24.577   5.410  0.0235  0.1865 -0.0501
 3625DDP     C221748  15.377  24.930   5.503 -0.2126 -0.0975  0.0777
 3625DDP     C321749  14.528  23.770   5.375  0.3157 -0.4991  0.0367
 3625DDP     C421750  15.507  24.019   5.012  0.0683  0.0578 -0.2301
 3626DDP     C121751  28.558  20.645  22.628 -0.0459 -0.1896  0.3035
 3626DDP     P121752  28.423  20.554  22.998  0.0475 -0.1055 -0.1974
 3626DDP     P221753  28.134  20.571  22.307  0.2962  0.0981  0.1465
 3626DDP     C221754  27.651  20.446  22.406  0.3327 -0.1251  0.0593
 3626DDP     C321755  28.213  20.308  23.286  0.1408 -0.2050  0.2276
 3626DDP     C421756  28.952  20.633  22.388  0.0519 -0.1634 -0.0501
 3627DDP     C121757  30.177  18.853  16.381 -0.0319 -0.2632  0.1172
 3627DDP     P121758   0.047  19.023  16.776 -0.0088 -0.4075 -0.1214
 3627DDP     P221759  30.273  18.620  15.989 -0.1397  0.0378  0.2355
 3627DDP     C221760   0.056  18.745  15.623  0.1047  0.0060 -0.1321
 3627DDP     C321761   0.097  19.217  17.093  0.0189  0.2168 -0.4709
 3627DDP     C421762  29.756  19.045  16.396 -0.0970 -0.1647  0.0624
 3628DDP     C121763  17.619  22.957  12.610  0.1629 -0.2232  0.4689
 3628DDP     P121764  17.790  22.606  12.386  0.0680 -0.0639 -0.1898
 3628DDP     P221765  17.583  23.416  12.492 -0.1021 -0.0585 -0.4577
 3628DDP     C221766  17.250  23.667  12.553  0.0878  0.0094  0.1968
 3628DDP     C321767  17.622  22.315  12.068  0.2014 -0.3109  0.0193
 3628DDP     C421768  17.848  23.055  13.042  0.0206 -0.2659  0.0110
 3629DDP     C121769   4.683   3.492  23.919 -0.0261 -0.0151  0.1811
 3629DDP     P121770   5.095   3.625  23.630  0.0982 -0.3421 -0.1476
 3629DDP     P221771   4.218   3.496  23.849  0.0226  0.1278  0.1601
 3629DDP     C221772   3.920   3.321  23.678  0.0258  0.2727 -0.0680
 3629DDP     C321773   5.521   3.736  23.529 -0.4469  0.1537 -0.1610
 3629DDP     C421774   4.724   3.494  24.426 -0.1541  0.1973 -0.2087
 3630DDP     C121775  28.816  19.746   6.774  0.1137 -0.0960  0.1373
 3630DDP     P121776  28.608  20.061   6.872  0.0234 -0.2169  0.0687
 3630DDP     P221777  29.276  19.760   6.954 -0.1596  0.3541 -0.0261
 3630DDP     C221778  29.510  19.885   7.369  0.1290 -0.4273  0.0529
 3630DDP     C321779  28.437  20.386   7.211  0.0856 -0.0899  0.1400
 3630DDP     C421780  28.771  19.421   6.469 -0.2024 -0.0511 -0.1898
 3631DDP     C121781  29.332   4.113  17.072  0.1566 -0.0278 -0.5177
 3631DDP     P121782  29.125   4.099  16.664  0.3550 -0.3076 -0.2752
 3631DDP     P221783  29.325   4.327  17.552  0.1038  0.1419 -0.4663
 3631DDP     C221784  29.591   4.365  17.898  0.2346  0.2322 -0.3051
 3631DDP     C321785  29.310   4.144  16.241  0.0795 -0.1857  0.0417
 3631DDP     C421786  29.610   3.647  17.240  0.3249  0.0707  0.3677
 3632DDP     C121787  10.093  12.463  12.723 -0.1551 -0.0301 -0.1134
 3632DDP     P121788   9.771  12.125  12.518 -0.1782 -0.2081  0.1161
 3632DDP     P221789  10.000  12.869  12.750  0.1557  0.1492 -0.0604
 3632DDP     C221790  10.138  13.206  12.712  0.2570  0.0746 -0.0100
 3632DDP     C321791   9.558  11.784  12.211  0.3613 -0.1882 -0.3324
 3632DDP     C421792  10.548  12.185  12.980 -0.1590  0.0668 -0.1063
 3633DDP     C121793  21.287  19.026   6.599  0.0429 -0.2483  0.3101
 3633DDP     P121794  20.916  19.210   6.456 -0.0021 -0.2382  0.0366
 3633DDP     P221795  21.690  19.233   6.655  0.0412 -0.3815 -0.0566
 3633DDP     C221796  21.980  19.590   6.809  0.0758 -0.3034 -0.2036
 3633DDP     C321797  20.637  19.037   6.085 -0.1682 -0.0269 -0.0205
 3633DDP     C421798  21.175  18.526   6.556 -0.1616  0.5545  0.1888
 3634DDP     C121799  13.888  18.046  18.898 -0.0528 -0.0357  0.0154
 3634DDP     P121800  13.418  18.232  18.827 -0.1200  0.1641 -0.1803
 3634DDP     P221801  13.885  17.656  18.944  0.0409  0.0013 -0.0924
 3634DDP     C221802  14.043  17.174  18.929  0.1690  0.3895  0.1805
 3634DDP     C321803  13.116  18.202  18.797 -0.0830  0.0254 -0.3056
 3634DDP     C421804  14.280  18.311  19.158  0.1615 -0.0446  0.0080
 3635DDP     C121805  26.875   3.196  20.995 -0.1686  0.2529 -0.1918
 3635DDP     P121806  26.647   3.127  21.311  0.1033  0.2148 -0.0917
 3635DDP     P221807  27.320   3.286  21.134 -0.2561 -0.0793  0.1619
 3635DDP     C221808  27.548   3.630  21.134  0.0575  0.1152 -0.1808
 3635DDP     C321809  26.290   3.319  21.476  0.0903  0.2677  0.0212
 3635DDP     C421810  26.758   3.216  20.568  0.1024  0.0159  0.2919
 3636DDP     C121811  18.645  16.463  24.389 -0.1582  0.0685  0.1819
 3636DDP     P121812  18.943  16.730  24.614 -0.2034  0.1066  0.0715
 3636DDP     P221813  18.424  15.986  24.301 -0.2138 -0.1059 -0.2227
 3636DDP     C221814  18.539  15.596  24.486  0.0182  0.5874  0.5274
 3636DDP     C321815  19.043  17.166  24.839  0.0810  0.1721 -0.0248
 3636DDP     C421816  18.512  16.611  23.972  0.0111  0.2859  0.1533
 3637DDP     C121817  14.495  11.672   7.607 -0.0009 -0.2070  0.1849
 3637DDP     P121818  14.584  11.250   7.662  0.0161  0.1510 -0.1008
 3637DDP     P221819  14.086  11.857   7.610  0.2482 -0.0413 -0.1086
 3637DDP     C221820  13.912  12.360   7.509 -0.1577  0.0010  0.2054
 3637DDP     C321821  14.666  10.849   7.878 -0.0550  0.1189 -0.0199
 3637DDP     C421822  14.850  11.991   7.582 -0.1765 -0.3533  0.0278
 3638DDP     C121823  14.075   3.651   6.666 -0.0997  0.2529 -0.0927
 3638DDP     P121824  13.778   3.680   6.873  0.2718 -0.2518 -0.2289
 3638DDP     P221825  14.050   3.761   6.249  0.0637  0.0325  0.0186
 3638DDP     C221826  14.498   3.767   5.964  0.0408  0.1100 -0.0645
 3638DDP     C321827  13.507   3.649   6.568 -0.1737 -0.1324  0.0872
 3638DDP     C421828  14.384   3.492   6.851  0.3407 -0.0246  0.1299
 3639DDP     C121829  13.903   5.589  18.588 -0.0433 -0.0264  0.0598
 3639DDP     P121830  14.317   5.700  18.702  0.1646 -0.2410 -0.1331
 3639DDP     P221831  13.585   5.760  18.906 -0.2983 -0.0203  0.0196
 3639DDP     C221832  13.518   6.080  19.169  0.1222  0.0403  0.1931
 3639DDP     C321833  14.687   5.423  18.842 -0.1323 -0.2493 -0.0165
 3639DDP     C421834  13.779   5.331  18.285 -0.1492 -0.1718  0.0847
 3640DDP     C121835   1.927  10.818   7.989  0.2909 -0.1339  0.2125
 3640DDP     P121836   2.308  11.015   7.817 -0.0801 -0.0322  0.0555
 3640DDP     P221837   1.590  11.076   8.082 -0.3107 -0.0851  0.0017
 3640DDP     C221838   1.244  11.139   8.470  0.1439 -0.0208  0.1860
 3640DDP     C321839   2.329  11.005   7.358 -0.0065 -0.0027  0.1109
 3640DDP     C421840   1.903  10.341   7.981 -0.0959 -0.0467 -0.0017
 3641DDP     C121841  19.159   8.001  15.602 -0.1302 -0.0648 -0.3631
 3641DDP     P121842  19.251   7.840  15.928 -0.0492  0.0202  0.0993
 3641DDP     P221843  19.251   7.608  15.253 -0.2554 -0.2672 -0.1483
 3641DDP     C221844  19.330   7.550  14.806  0.3858 -0.2635  0.2360
 3641DDP     C321845  19.365   7.457  16.099  0.0741  0.4393  0.0243
 3641DDP     C421846  18.958   8.400  15.619  0.0664 -0.1204  0.0729
 3642DDP     C121847   9.499   2.671  21.659 -0.1830  0.3180  0.0287
 3642DDP     P121848   9.315   2.534  22.069 -0.2188  0.1156 -0.0828
 3642DDP     P221849   9.244   2.678  21.284 -0.0668  0.3311 -0.0303
 3642DDP     C221850   8.929   2.371  21.112 -0.2757  0.0723 -0.2316
 3642DDP     C321851   9.245   2.325  22.451  0.2560  0.0721 -0.3717
 3642DDP     C421852  10.049   2.571  21.539  0.0258 -0.0328  0.0038
 3643DDP     C121853   8.386   4.961  22.236  0.0376 -0.1369  0.0532
 3643DDP     P121854   8.260   4.449  22.265 -0.0046  0.0100 -0.3479
 3643DDP     P221855   8.505   5.324  21.925 -0.1305 -0.1094 -0.0180
 3643DDP     C221856   8.786   5.521  21.781 -0.3505  0.4673  0.2269
 3643DDP     C321857   8.000   4.060  22.166 -0.2150 -0.2527 -0.1025
 3643DDP     C421858   8.300   5.181  22.534  0.1609  0.1978  0.1099
 3644DDP     C121859  23.080  14.000  24.497  0.0168  0.1563 -0.0337
 3644DDP     P121860  22.971  13.903  24.912 -0.2778 -0.0979  0.2163
 3644DDP     P221861  22.718  14.014  24.336  0.0799 -0.2221 -0.0679
 3644DDP     C221862  22.263  14.091  24.161 -0.1788  0.2067 -0.0437
 3644DDP     C321863  23.280  14.053  25.197 -0.0127 -0.1311 -0.1592
 3644DDP     C421864  23.557  13.995  24.275  0.3258  0.1214 -0.2819
 3645DDP     C121865   2.191   4.037  17.628  0.3294 -0.0788 -0.0237
 3645DDP     P121866   1.946   4.065  18.013 -0.1548  0.0063  0.2553
 3645DDP     P221867   2.564   3.951  17.613 -0.1205  0.1275 -0.0879
 3645DDP     C221868   2.945   3.581  17.550  0.2210 -0.2698  0.2487
 3645DDP     C321869   1.934   4.077  18.387 -0.0150 -0.2811 -0.0511
 3645DDP     C421870   1.898   4.029  17.245 -0.0438 -0.1669 -0.2083
 3646DDP     C121871   9.796  12.215   6.064 -0.2596  0.1081 -0.0377
 3646DDP     P121872   9.696  12.626   6.072 -0.0235  0.1644  0.1728
 3646DDP     P221873   9.410  12.009   6.081 -0.1220 -0.0848 -0.2953
 3646DDP     C221874   8.950  12.160   5.906 -0.0174 -0.0724  0.3295
 3646DDP     C321875   9.562  13.009   5.867 -0.1795  0.2551 -0.0548
 3646DDP     C421876  10.249  12.078   6.014 -0.4086 -0.0341  0.0683
 3647DDP     C121877  16.483  18.346   8.110 -0.2294 -0.0177  0.0545
 3647DDP     P121878  16.862  18.332   8.204  0.1159 -0.0421 -0.1145
 3647DDP     P221879  16.416  18.736   7.910 -0.1117 -0.0020 -0.0185
 3647DDP     C221880  16.634  19.164   7.832 -0.0904  0.2248 -0.0569
 3647DDP     C321881  17.049  18.476   8.422  0.2427 -0.1293 -0.0864
 3647DDP     C421882  16.072  17.953   8.049 -0.1507 -0.1186 -0.6473
 3648DDP     C121883  11.878   0.253  19.918 -0.0690  0.0151  0.3053
 3648DDP     P121884  11.835   0.498  20.313  0.2358  0.1947 -0.1080
 3648DDP     P221885  11.568   0.294  19.586 -0.1331 -0.3260  0.2031
 3648DDP     C221886  11.352   0.552  19.360 -0.0916  0.0355 -0.0070
 3648DDP     C321887  11.880   0.517  20.731  0.0427 -0.1392  0.2299
 3648DDP     C421888  12.042  30.150  19.823 -0.5048 -0.1546 -0.2553
 3649DDP     C121889   9.053   7.756  12.364 -0.2595  0.0305 -0.0163
 3649DDP     P121890   8.793   7.667  12.720  0.1695  0.2009  0.0191
 3649DDP     P221891   8.863   7.538  12.024  0.0127 -0.2240 -0.2974
 3649DDP     C221892   8.617   7.361  11.676 -0.2613  0.2597 -0.0468
 3649DDP     C321893   8.581   7.860  13.024  0.0907 -0.2415 -0.1407
 3649DDP     C421894   9.402   7.975  12.406  0.0583  0.0843 -0.0290
 3650DDP     C121895  27.263  13.126  15.745 -0.1146 -0.0121 -0.1895
 3650DDP     P121896  27.283  13.465  15.546  0.0196 -0.2350  0.1505
 3650DDP     P221897  27.615  13.137  15.968  0.1410  0.0584  0.0606
 3650DDP     C221898  27.692  13.321  16.256  0.2560 -0.0226 -0.0402
 3650DDP     C321899  27.168  13.872  15.609  0.1726 -0.3662 -0.2660
 3650DDP     C421900  26.986  12.737  15.793 -0.0381 -0.0373  0.0214
 3651DDP     C121901  26.565   4.372  18.198 -0.1005 -0.0648 -0.3269
 3651DDP     P121902  26.698   4.413  18.655  0.2500  0.0396 -0.1805
 3651DDP     P221903  26.937   4.414  17.944  0.3757 -0.0572  0.2603
 3651DDP     C221904  27.316   4.545  17.984 -0.0246  0.2256  0.2426
 3651DDP     C321905  26.802   4.245  19.073 -0.0761 -0.3572 -0.0491
 3651DDP     C421906  26.297   4.040  17.999  0.1564 -0.1106  0.0440
 3652DDP     C121907   2.800  12.772  14.568 -0.4488  0.2363 -0.0908
 3652DDP     P121908   2.413  13.034  14.618 -0.1433  0.3364  0.0334
 3652DDP     P221909   2.861  12.443  14.730  0.1271 -0.0234 -0.1463
 3652DDP     C221910   2.916  12.326  15.196 -0.1848 -0.1237 -0.1812
 3652DDP     C321911   2.012  13.052  14.855  0.3740 -0.1063  0.0440
 3652DDP     C421912   3.193  13.072  14.455  0.1074 -0.0010 -0.0004
 3653DDP     C121913   0.248  20.165   6.278 -0.1055 -0.1299  0.2251
 3653DDP     P121914   0.175  19.752   6.005  0.0754  0.0716 -0.1237
 3653DDP     P221915   0.183  20.298   6.681  0.0691 -0.1795 -0.1060
 3653DDP     C221916   0.008  20.597   6.974  0.0182 -0.0778  0.0601
 3653DDP     C321917   0.160  19.512   5.585 -0.1850 -0.1123  0.2663
 3653DDP     C421918   0.578  20.468   6.049 -0.0011 -0.1934  0.3508
 3654DDP     C121919  29.428   3.441  19.520 -0.0706  0.2137 -0.1277
 3654DDP     P121920  29.625   3.402  19.955  0.0872 -0.2534  0.0381
 3654DDP     P221921  29.729   3.464  19.190 -0.2664 -0.2012 -0.1594
 3654DDP     C221922  30.048   3.771  18.982  0.1688  0.1135 -0.2260
 3654DDP     C321923  29.793   3.362  20.400  0.0510  0.0422 -0.2128
 3654DDP     C421924  28.955   3.298  19.490  0.2926  0.0811 -0.1249
 3655DDP     C121925  29.843   4.984   4.936  0.2332  0.1334  0.1439
 3655DDP     P121926  30.004   4.785   4.592 -0.0479 -0.1014 -0.2446
 3655DDP     P221927  30.111   5.280   5.131  0.0440  0.0794 -0.3124
 3655DDP     C221928   0.137   5.540   5.191  0.0513 -0.0177 -0.1212
 3655DDP     C321929  30.286   4.801   4.253  0.3262 -0.1562  0.1130
 3655DDP     C421930  29.361   4.912   5.087 -0.3746 -0.0973  0.2284
 3656DDP     C121931  18.595  16.438   9.476  0.0039 -0.1775  0.1453
 3656DDP     P121932  18.227  16.675   9.439  0.1073 -0.0181  0.3271
 3656DDP     P221933  18.663  16.216   9.822  0.2419 -0.2809 -0.1206
 3656DDP     C221934  18.742  16.066  10.184 -0.0912  0.2064  0.2753
 3656DDP     C321935  18.007  17.003   9.409 -0.0476  0.0049 -0.0022
 3656DDP     C421936  18.848  16.338   9.127 -0.0300  0.0498  0.1206
 3657DDP     C121937  12.187  12.767  13.413 -0.0518  0.0092 -0.0993
 3657DDP     P121938  12.395  12.410  13.421 -0.1172  0.3543 -0.0201
 3657DDP     P221939  12.040  12.855  13.890  0.1047 -0.0965  0.1971
 3657DDP     C221940  12.159  12.880  14.245  0.0157 -0.0794  0.1541
 3657DDP     C321941  12.585  12.247  13.031 -0.1534  0.2506  0.1876
 3657DDP     C421942  12.204  13.182  13.310 -0.0455 -0.1044 -0.0150
 3658DDP     C121943  26.242   4.154  11.898  0.3987  0.0846  0.1895
 3658DDP     P121944  26.013   4.370  12.247  0.1116  0.0227 -0.2549
 3658DDP     P221945  26.664   4.252  11.855  0.0727  0.1829 -0.0033
 3658DDP     C221946  27.124   4.129  11.732 -0.0443  0.0362 -0.0726
 3658DDP     C321947  25.740   4.663  12.480 -0.2859 -0.1886 -0.0560
 3658DDP     C421948  25.945   4.319  11.655  0.0408 -0.0188 -0.0024
 3659DDP     C121949  21.883  19.940   7.685  0.2220 -0.3735  0.2503
 3659DDP     P121950  21.654  20.219   7.534 -0.2028 -0.0071 -0.1774
 3659DDP     P221951  22.043  19.717   7.354  0.3928  0.2289  0.0128
 3659DDP     C221952  22.394  19.681   7.186 -0.1698  0.3080 -0.1351
 3659DDP     C321953  21.324  20.497   7.755 -0.1931 -0.1299 -0.0289
 3659DDP     C421954  22.173  20.002   8.069  0.2696  0.1715 -0.0723
 3660DDP     C121955  19.377   1.054  11.304 -0.0787  0.1671  0.3038
 3660DDP     P121956  19.522   0.978  10.879 -0.2721  0.1516  0.4411
 3660DDP     P221957  19.053   1.022  11.474  0.2370 -0.3707  0.2419
 3660DDP     C221958  18.786   1.386  11.646  0.1944 -0.1382 -0.2381
 3660DDP     C321959  19.683   1.255  10.562 -0.1480  0.0923 -0.0201
 3660DDP     C421960  19.568   1.300  11.662  0.3806 -0.0881  0.1114
 3661DDP     C121961  12.262  13.384   7.957  0.3622 -0.1773  0.0574
 3661DDP     P121962  12.323  13.561   7.557  0.0463  0.1150 -0.2788
 3661DDP     P221963  12.329  12.996   7.932  0.1565  0.1253  0.1545
 3661DDP     C221964  12.330  12.708   7.709  0.5002 -0.0725 -0.4826
 3661DDP     C321965  12.396  13.828   7.263  0.0886  0.0753  0.2239
 3661DDP     C421966  12.027  13.562   8.248 -0.0326 -0.2447  0.0390
 3662DDP     C121967  28.932  23.637  12.181  0.0161  0.2822  0.0547
 3662DDP     P121968  29.241  23.711  12.441 -0.1393  0.0003  0.2248
 3662DDP     P221969  28.918  23.403  11.855 -0.4725 -0.1535  0.2747
 3662DDP     C221970  28.427  23.200  11.643 -0.3121  0.0314 -0.3377
 3662DDP     C321971  29.393  23.754  12.902  0.0784  0.1959 -0.2418
 3662DDP     C421972  28.516  23.704  12.237 -0.1419  0.2185 -0.0047
 3663DDP     C121973  19.352   7.167  16.882  0.0677  0.1672  0.0811
 3663DDP     P121974  19.764   7.319  16.911  0.0432  0.1853 -0.0278
 3663DDP     P221975  19.200   6.833  17.008  0.2122  0.1788 -0.0034
 3663DDP     C221976  19.256   6.566  17.269  0.1403  0.1089  0.0785
 3663DDP     C321977  19.907   7.692  16.919 -0.1689 -0.1371 -0.0361
 3663DDP     C421978  19.108   7.525  16.878  0.0666  0.1162  0.0520
 3664DDP     C121979  15.117  26.536  10.305 -0.1157  0.1215  0.1976
 3664DDP     P121980  15.556  26.404  10.454 -0.0315  0.1613  0.0369
 3664DDP     P221981  14.727  26.345  10.131  0.3734 -0.2092  0.0125
 3664DDP     C221982  14.768  26.331   9.641  0.3650  0.0666  0.0209
 3664DDP     C321983  15.831  26.666  10.487 -0.3240 -0.0564 -0.0265
 3664DDP     C421984  14.940  26.965  10.353 -0.3600 -0.0890 -0.1818
 3665DDP     C121985  22.235   7.812   2.478 -0.1276  0.1151  0.0907
 3665DDP     P121986  22.015   8.120   2.830 -0.1224 -0.0641  0.1032
 3665DDP     P221987  22.161   7.686   2.052  0.1349  0.0121  0.0676
 3665DDP     C221988  21.941   7.515   1.752  0.1471  0.1374  0.0565
 3665DDP     C321989  22.052   8.526   2.928 -0.0654  0.1410  0.0080
 3665DDP     C421990  22.624   7.898   2.682 -0.1825  0.0773 -0.1363
 3666DDP     C121991  21.841  23.191   9.199 -0.2400 -0.1178 -0.1261
 3666DDP     P121992  22.259  23.357   9.090 -0.0339 -0.0521 -0.0266
 3666DDP     P221993  21.668  22.928   9.394  0.0572 -0.0772 -0.0203
 3666DDP     C221994  21.340  22.595   9.662 -0.2120  0.1128 -0.0470
 3666DDP     C321995  22.424  23.715   9.364  0.0255  0.0114  0.0714
 3666DDP     C421996  21.455  23.224   8.911 -0.0457 -0.0980 -0.0919
 3667DDP     C121997   4.228  -0.016  21.458  0.1766 -0.3108 -0.1321
 3667DDP     P121998   4.538   0.232  21.143  0.0862  0.2952  0.0310
 3667DDP     P221999   4.479  29.990  21.728 -0.1223  0.0482 -0.0461
 3667DDP     C222000   4.916  29.760  21.781 -0.0930 -0.0175 -0.0750
 3667DDP     C322001   4.597   0.530  20.738 -0.0464  0.0505  0.2390
 3667DDP     C422002   3.854   0.172  21.696  0.1279  0.2486  0.1877
 3668DDP     C122003   4.882   3.685  26.500 -0.2065  0.0728  0.0080
 3668DDP     P122004   4.561   3.939  26.451  0.0253 -0.1084  0.0667
 3668DDP     P222005   5.002   3.431  26.160  0.3564  0.2249  0.1115
 3668DDP     C222006   5.105   3.416  25.702  0.1452 -0.1672 -0.1735
 3668DDP     C322007   4.235   4.245  26.580 -0.3572  0.3599  0.2003
 3668DDP     C422008   5.040   3.513  26.907  0.0538 -0.0421 -0.1372
 3669DDP     C122009  21.102  18.563   7.862 -0.0545 -0.0128 -0.0163
 3669DDP     P122010  20.905  18.674   8.190  0.1408  0.0578  0.0449
 3669DDP     P222011  21.222  18.075   8.012  0.0596  0.2519  0.1418
 3669DDP     C222012  21.420  17.648   7.807 -0.0267  0.0372  0.2225
 3669DDP     C322013  21.067  18.702   8.574 -0.2039 -0.1277 -0.2885
 3669DDP     C422014  21.185  18.660   7.473  0.1017  0.0510  0.3087
 3670DDP     C122015  22.399  12.045  25.815 -0.0919 -0.2122  0.0097
 3670DDP     P122016  22.462  12.290  25.602 -0.3656  0.1092 -0.0102
 3670DDP     P222017  22.170  12.017  26.169 -0.2204  0.0777 -0.0605
 3670DDP     C222018  21.969  11.924  26.478 -0.6083  0.0859 -0.0412
 3670DDP     C322019  22.495  12.678  25.753 -0.1586 -0.1694 -0.1036
 3670DDP     C422020  22.604  11.669  25.857  0.2823  0.1690 -0.0658
 3671DDP     C122021  14.036  20.308  -0.015 -0.0657  0.2815 -0.1834
 3671DDP     P122022  14.107  20.513   0.349  0.0557 -0.2855 -0.0957
 3671DDP     P222023  14.402  20.361  30.122  0.0474  0.0791 -0.0691
 3671DDP     C222024  14.561  20.252  29.755  0.2188  0.2349 -0.4129
 3671DDP     C322025  14.439  20.937   0.473  0.2363  0.0675  0.0987
 3671DDP     C422026  13.548  20.200  30.170  0.0652  0.2747  0.1029
 3672DDP     C122027   0.107  22.067  26.218 -0.1257 -0.2414  0.1303
 3672DDP     P122028   0.098  22.118  26.565 -0.2094  0.1521  0.2458
 3672DDP     P222029  30.151  21.849  25.982  0.0935 -0.1058  0.2157
 3672DDP     C222030  30.218  21.660  25.609  0.1319  0.3183  0.1244
 3672DDP     C322031   0.279  22.099  26.899 -0.0925 -0.3266  0.1263
 3672DDP     C422032   0.499  22.154  26.174 -0.1737 -0.0602  0.0263
 3673DDP     C122033   1.847  12.032  16.391  0.1796 -0.0398  0.1512
 3673DDP     P122034   1.610  12.370  15.958 -0.1765  0.2326  0.0228
 3673DDP     P222035   2.031  12.171  16.759  0.1517  0.1185 -0.1461
 3673DDP     C222036   2.271  12.523  16.880 -0.0413  0.2755  0.0539
 3673DDP     C322037   1.212  12.476  15.573  0.3119 -0.0031 -0.1791
 3673DDP     C422038   1.901  11.609  16.378  0.0505  0.3612 -0.1759
 3674DDP     C122039   1.404  22.540  27.321  0.2716  0.0686 -0.1453
 3674DDP     P122040   1.515  22.749  27.019 -0.0077  0.1911 -0.2316
 3674DDP     P222041   1.021  22.476  27.414 -0.1996  0.3784 -0.0311
 3674DDP     C222042   0.833  22.471  27.829 -0.1949 -0.2078 -0.1427
 3674DDP     C322043   1.265  22.994  26.671 -0.0363  0.2029 -0.1226
 3674DDP     C422044   1.725  22.552  27.532  0.1211 -0.0808 -0.2827
 3675DDP     C122045   7.047  16.742  28.052  0.0332  0.1266 -0.0021
 3675DDP     P122046   6.830  16.607  27.692  0.1909 -0.0513  0.0186
 3675DDP     P222047   7.414  16.999  27.973 -0.2726 -0.1281  0.1757
 3675DDP     C222048   7.816  17.180  27.979  0.1964 -0.3917 -0.0391
 3675DDP     C322049   6.715  16.458  27.191  0.1322  0.0812 -0.0878
 3675DDP     C422050   6.852  16.567  28.362 -0.1961  0.0905  0.0807
 3676DDP     C122051  16.905   3.589  13.954 -0.1855  0.1679  0.0422
 3676DDP     P122052  16.477   3.476  13.760  0.0803 -0.2227 -0.1157
 3676DDP     P222053  17.137   3.335  14.266  0.1260 -0.0718  0.3407
 3676DDP     C222054  17.291   3.419  14.729  0.3438  0.1361  0.0646
 3676DDP     C322055  16.096   3.287  13.628 -0.0088 -0.1258  0.2709
 3676DDP     C422056  17.089   3.948  13.929 -0.2841  0.0984  0.0923
 3677DDP     C122057  12.913  26.949  15.618  0.0266 -0.2113 -0.3162
 3677DDP     P122058  12.495  26.955  15.917 -0.2756  0.4215 -0.4080
 3677DDP     P222059  13.163  26.579  15.535  0.1277 -0.0766 -0.1440
 3677DDP     C222060  13.250  26.097  15.559  0.0440  0.0046 -0.1172
 3677DDP     C322061  12.437  26.997  16.340 -0.1410  0.1576 -0.1508
 3677DDP     C422062  13.033  27.281  15.445 -0.2128  0.2343  0.4124
 3678DDP     C122063  23.699  27.462  18.560 -0.0766  0.1885 -0.0863
 3678DDP     P122064  24.070  27.256  18.469 -0.0328 -0.1436 -0.2149
 3678DDP     P222065  23.313  27.272  18.329 -0.0382 -0.1264  0.2197
 3678DDP     C222066  23.095  27.015  18.060 -0.1556  0.0529 -0.1378
 3678DDP     C322067  24.119  26.943  18.181  0.0073 -0.1834  0.0392
 3678DDP     C422068  23.659  27.862  18.774 -0.0550 -0.3461 -0.0375
 3679DDP     C122069  26.244  11.155   1.955 -0.1361 -0.2254 -0.0090
 3679DDP     P122070  26.049  10.745   2.108 -0.1960 -0.3425 -0.3620
 3679DDP     P222071  25.980  11.632   1.918 -0.2313  0.1525  0.0775
 3679DDP     C222072  26.096  12.055   1.784 -0.1835 -0.1481  0.1014
 3679DDP     C322073  25.569  10.485   2.251  0.2248  0.1446 -0.0160
 3679DDP     C422074  26.638  11.231   1.872 -0.0967 -0.0517  0.3868
 3680DDP     C122075   0.695   4.046  14.389  0.2386  0.1377  0.2265
 3680DDP     P122076   0.582   3.735  14.506  0.0269 -0.1055  0.3801
 3680DDP     P222077   1.150   3.979  14.414 -0.2409  0.0080 -0.0320
 3680DDP     C222078   1.431   3.956  14.114 -0.0382  0.3943  0.1343
 3680DDP     C322079   0.796   3.324  14.517 -0.3013  0.1367 -0.1949
 3680DDP     C422080   0.432   4.247  14.064 -0.0152  0.1621  0.4750
 3681DDP     C122081  24.706  10.862   6.097  0.0071 -0.2388 -0.1993
 3681DDP     P122082  24.885  11.273   6.230 -0.1166 -0.2022  0.0357
 3681DDP     P222083  24.201  10.914   5.979 -0.4692 -0.3217 -0.1937
 3681DDP     C222084  23.738  10.959   5.729 -0.0570 -0.1845  0.0067
 3681DDP     C322085  25.206  11.596   6.333 -0.0673  0.1685  0.4244
 3681DDP     C422086  25.029  10.613   5.999  0.1721  0.0879  0.1521
 3682DDP     C122087   3.634   2.361  19.438 -0.0305 -0.0387  0.0504
 3682DDP     P122088   3.443   2.044  19.394 -0.0427  0.1657  0.0152
 3682DDP     P222089   3.889   2.336  19.169 -0.0190 -0.0887 -0.0348
 3682DDP     C222090   4.154   2.591  19.135  0.2294  0.0693  0.0925
 3682DDP     C322091   3.339   1.721  19.033 -0.0317  0.2528  0.1721
 3682DDP     C422092   3.669   2.687  19.745  0.1851 -0.1309 -0.4443
 3683DDP     C122093  10.523   2.742   7.910 -0.0919  0.1419  0.6049
 3683DDP     P122094  10.840   2.879   8.169 -0.1543  0.2705 -0.2105
 3683DDP     P222095  10.094   2.816   8.032 -0.0632 -0.0749  0.0233
 3683DDP     C222096   9.981   3.239   7.877 -0.0002  0.0975  0.0793
 3683DDP     C322097  10.905   3.297   8.494  0.0686 -0.4728 -0.2269
 3683DDP     C422098  10.588   2.629   7.425 -0.2225  0.0283 -0.0327
 3684DDP     C122099   4.441   1.603  21.269 -0.1532  0.1342 -0.2425
 3684DDP     P122100   4.882   1.599  21.088  0.0839 -0.0028 -0.1189
 3684DDP     P222101   4.267   1.940  20.990 -0.0387 -0.0877 -0.2050
 3684DDP     C222102   3.870   2.011  20.763  0.0620  0.0493  0.0683
 3684DDP     C322103   5.130   1.476  20.726  0.2501  0.1614 -0.1668
 3684DDP     C422104   4.202   1.449  21.673  0.2780 -0.1810 -0.2118
 3685DDP     C122105  17.698   0.628  23.719  0.1528 -0.0011  0.0884
 3685DDP     P122106  17.767   0.593  23.303 -0.1717  0.2600  0.0473
 3685DDP     P222107  17.407   0.965  23.653 -0.0830 -0.1676  0.1946
 3685DDP     C222108  17.004   1.077  23.569 -0.1192  0.0848  0.4223
 3685DDP     C322109  17.486   0.620  22.808  0.0157  0.1664  0.2879
 3685DDP     C422110  18.042   0.522  24.039 -0.0928 -0.1127  0.0452
 3686DDP     C122111   8.659  10.193   2.690 -0.1675 -0.1641  0.1798
 3686DDP     P122112   8.963  10.247   2.745 -0.0267  0.0982 -0.1582
 3686DDP     P222113   8.433   9.992   3.039  0.2006  0.3650  0.0161
 3686DDP     C222114   8.308   9.486   3.033  0.0124 -0.3553 -0.0643
 3686DDP     C322115   9.222  10.580   2.625 -0.0278 -0.0981 -0.2161
 3686DDP     C422116   8.552  10.149   2.212  0.2720  0.0734 -0.2060
 3687DDP     C122117  19.462  23.163  21.598 -0.0054  0.3170  0.0164
 3687DDP     P122118  19.829  23.193  21.976  0.1663  0.1390 -0.1923
 3687DDP     P222119  19.522  23.471  21.217 -0.0748 -0.0930  0.1151
 3687DDP     C222120  19.959  23.591  21.147  0.4130  0.0349  0.1944
 3687DDP     C322121  20.183  23.333  22.201  0.1455 -0.0001 -0.1755
 3687DDP     C422122  19.170  22.865  21.730  0.2472 -0.1761  0.1210
 3688DDP     C122123   1.502  18.302  23.087 -0.2001  0.0902 -0.1331
 3688DDP     P122124   1.046  18.107  23.107  0.1530 -0.0892  0.1848
 3688DDP     P222125   1.878  18.093  22.852  0.2539 -0.3399  0.2466
 3688DDP     C222126   2.040  17.851  22.453 -0.1045 -0.0825 -0.0293
 3688DDP     C322127   0.752  17.918  23.358  0.3201  0.0702  0.0523
 3688DDP     C422128   1.469  18.554  23.470 -0.0004  0.1428 -0.1612
 3689DDP     C122129  17.840  25.120   5.720 -0.1702  0.3788 -0.1945
 3689DDP     P122130  17.589  25.310   6.006  0.1147 -0.1081 -0.1797
 3689DDP     P222131  17.925  25.020   5.309 -0.1427  0.0632 -0.0229
 3689DDP     C222132  17.801  24.732   5.051 -0.1619  0.1415 -0.1252
 3689DDP     C322133  17.460  25.725   5.939 -0.2891 -0.0764 -0.0262
 3689DDP     C422134  18.122  24.838   6.011 -0.1221  0.2175  0.1894
 3690DDP     C122135  21.878   5.169  22.717 -0.0475  0.0709  0.0075
 3690DDP     P122136  22.032   5.430  22.340 -0.0376  0.1443  0.2920
 3690DDP     P222137  21.430   5.230  22.659 -0.0860 -0.2175 -0.1017
 3690DDP     C222138  21.048   5.075  22.744  0.0797  0.1788 -0.1489
 3690DDP     C322139  22.082   5.500  21.909 -0.0932 -0.3053  0.1898
 3690DDP     C422140  22.118   4.955  23.035  0.0436  0.2938  0.2526
 3691DDP     C122141   9.568   2.137  20.658 -0.1718 -0.1736  0.1856
 3691DDP     P122142   9.353   2.494  20.794 -0.2802  0.1505  0.0947
 3691DDP     P222143   9.940   2.269  20.788 -0.0039 -0.1399  0.0057
 3691DDP     C222144  10.087   2.100  21.257  0.1401 -0.0179  0.1727
 3691DDP     C322145   9.163   2.773  20.482 -0.5257  0.0691  0.2790
 3691DDP     C422146   9.429   1.724  20.417 -0.0770 -0.1096 -0.1674
 3692DDP     C122147   5.933  19.069  19.955  0.1627 -0.1574 -0.0940
 3692DDP     P122148   5.849  19.376  19.648 -0.0528 -0.2664 -0.0379
 3692DDP     P222149   5.863  19.052  20.381  0.1808 -0.2660  0.2067
 3692DDP     C222150   5.688  18.722  20.580  0.0548 -0.1950  0.1288
 3692DDP     C322151   5.698  19.317  19.271  0.2674  0.0798 -0.0200
 3692DDP     C422152   6.124  18.692  19.873  0.1944  0.0469 -0.1455
 3693DDP     C122153  23.550   4.181  12.980 -0.0419 -0.3425  0.2754
 3693DDP     P122154  23.688   3.842  13.229  0.2436  0.0537 -0.1972
 3693DDP     P222155  23.440   4.281  12.534  0.1350  0.2692 -0.0154
 3693DDP     C222156  23.426   4.154  12.113 -0.3764 -0.0138 -0.1897
 3693DDP     C322157  23.967   3.495  13.361 -0.0768 -0.1378  0.0697
 3693DDP     C422158  24.022   4.240  13.039 -0.1968  0.3550 -0.1843
 3694DDP     C122159  12.551  10.687  15.538 -0.0659  0.1783  0.2946
 3694DDP     P122160  12.970  10.717  15.741  0.1276 -0.0126  0.0700
 3694DDP     P222161  12.661  10.654  15.119  0.0747 -0.2300 -0.3429
 3694DDP     C222162  12.412  10.711  14.794  0.0224 -0.1187  0.2083
 3694DDP     C322163  13.255  10.986  15.799 -0.2390 -0.0590 -0.0356
 3694DDP     C422164  12.192  10.676  15.724 -0.2855 -0.0987 -0.0738
 3695DDP     C122165   3.303  25.135  10.754 -0.0449  0.2805 -0.1816
 3695DDP     P122166   3.621  24.950  10.968 -0.1094 -0.0538 -0.1255
 3695DDP     P222167   2.978  24.886  10.798 -0.3278 -0.0002  0.1343
 3695DDP     C222168   2.844  24.506  11.157 -0.0699  0.0103  0.2838
 3695DDP     C322169   4.004  24.812  10.815 -0.0995  0.0021  0.0871
 3695DDP     C422170   3.549  25.209  10.402 -0.0220 -0.0671 -0.1902
 3696DDP     C122171   6.320  26.332  12.908  0.0645  0.1121  0.1480
 3696DDP     P122172   6.082  26.430  12.523 -0.1468 -0.2849 -0.3185
 3696DDP     P222173   6.488  26.627  13.213  0.0918 -0.0435  0.1688
 3696DDP     C222174   6.924  26.777  13.253 -0.0304  0.1728 -0.2459
 3696DDP     C322175   6.275  26.486  12.108  0.0814 -0.1695  0.1348
 3696DDP     C422176   6.455  25.913  12.871  0.0619  0.1938  0.1142
 3697DDP     C122177  19.204  17.465  21.346 -0.0024  0.4526  0.1953
 3697DDP     P122178  19.530  17.394  21.622 -0.1438  0.3908  0.2003
 3697DDP     P222179  18.920  17.752  21.400 -0.0776 -0.1540 -0.0555
 3697DDP     C222180  18.989  18.183  21.496 -0.2480  0.0944  0.0430
 3697DDP     C322181  19.886  17.297  21.856  0.1089 -0.1085  0.0470
 3697DDP     C422182  19.342  17.091  21.026  0.0728  0.2638  0.0860
 3698DDP     C122183  12.553  28.054   8.436  0.2418 -0.2480 -0.0829
 3698DDP     P122184  12.597  27.735   8.096 -0.1562 -0.1472  0.1936
 3698DDP     P222185  12.447  28.364   8.195  0.1150 -0.3562 -0.1313
 3698DDP     C222186  12.727  28.520   7.891 -0.0664 -0.0364  0.3351
 3698DDP     C322187  12.605  27.811   7.584 -0.2919  0.1754 -0.0312
 3698DDP     C422188  12.645  27.878   8.846  0.1097 -0.1524  0.0978
 3699DDP     C122189  17.043  27.061  18.554 -0.1929 -0.0312  0.4199
 3699DDP     P122190  16.805  27.200  18.183  0.1839 -0.2196  0.1384
 3699DDP     P222191  16.997  27.296  18.922 -0.4268  0.1824  0.0388
 3699DDP     C222192  17.089  27.342  19.390 -0.0586 -0.0448  0.0114
 3699DDP     C322193  16.688  27.392  17.737  0.0898 -0.0194 -0.0683
 3699DDP     C422194  17.282  26.651  18.577  0.1614  0.2806 -0.0052
 3700DDP     C122195  21.840  28.647  11.095 -0.1382 -0.2733  0.0409
 3700DDP     P122196  21.401  28.535  11.217  0.2310  0.1550 -0.1405
 3700DDP     P222197  22.162  28.463  11.367 -0.0185  0.0000  0.2214
 3700DDP     C222198  22.356  28.256  11.689  0.2167  0.1267 -0.3693
 3700DDP     C322199  21.242  28.560  11.661 -0.1243 -0.1574  0.0580
 3700DDP     C422200  21.822  29.025  10.937  0.0197  0.0786 -0.2408
 3701DDP     C122201  10.433   5.879  23.862  0.1688  0.4310  0.2927
 3701DDP     P122202  10.438   6.303  23.987 -0.0280  0.0308 -0.1730
 3701DDP     P222203  10.473   5.478  24.087  0.2032  0.1807  0.1718
 3701DDP     C222204  10.703   5.255  24.104  0.1183  0.0007 -0.1159
 3701DDP     C322205  10.637   6.692  24.093  0.3009  0.1897 -0.1195
 3701DDP     C422206  10.521   5.709  23.468  0.0633 -0.2308  0.0970
 3702DDP     C122207   1.959   3.389  13.313  0.2855 -0.2152 -0.1417
 3702DDP     P122208   2.336   3.370  13.065  0.2056 -0.0703 -0.0606
 3702DDP     P222209   1.741   3.008  13.409  0.1184 -0.5006  0.1935
 3702DDP     C222210   1.713   2.782  13.752  0.2124  0.0499 -0.3183
 3702DDP     C322211   2.656   3.262  12.853  0.1723  0.2289  0.2759
 3702DDP     C422212   1.890   3.702  13.553 -0.1487  0.1091 -0.0133
 3703DDP     C122213   9.098   3.001  12.820  0.1034  0.0299 -0.2617
 3703DDP     P122214   8.778   2.674  12.968 -0.2197 -0.0227 -0.0144
 3703DDP     P222215   9.486   3.038  12.606 -0.1568 -0.0999 -0.0391
 3703DDP     C222216   9.797   3.284  12.337 -0.1398  0.1548  0.1683
 3703DDP     C322217   8.460   2.356  12.943 -0.1884  0.0151  0.0877
 3703DDP     C422218   8.754   3.315  12.786  0.0083 -0.0150 -0.0305
 3704DDP     C122219  10.207  18.927  13.259 -0.2033  0.0788  0.1958
 3704DDP     P122220  10.244  19.196  13.569 -0.2779  0.0339 -0.2088
 3704DDP     P222221  10.663  18.589  13.169 -0.2041  0.0726 -0.3942
 3704DDP     C222222  11.062  18.612  13.276 -0.0826  0.2565 -0.0955
 3704DDP     C322223  10.135  19.453  13.929  0.0807  0.0207  0.3741
 3704DDP     C422224   9.922  19.049  12.999  0.1117 -0.1390  0.1679
 3705DDP     C122225  21.895  14.976   0.932 -0.0578 -0.1461 -0.2773
 3705DDP     P122226  21.720  15.404   0.776 -0.0798 -0.1640 -0.0565
 3705DDP     P222227  22.275  14.853   0.918  0.1201  0.4262  0.2958
 3705DDP     C222228  22.715  14.701   0.916  0.3342  0.1320  0.2887
 3705DDP     C322229  21.579  15.822   0.739 -0.1049 -0.1878 -0.0998
 3705DDP     C422230  21.537  14.899   1.316  0.1006  0.1215 -0.4110
 3706DDP     C122231  24.696  19.182  18.595  0.3335  0.2399  0.1512
 3706DDP     P122232  25.020  18.995  18.740 -0.0124 -0.1141 -0.0128
 3706DDP     P222233  24.431  19.170  18.986  0.1760 -0.1000  0.1646
 3706DDP     C222234  24.151  19.185  19.330  0.0697 -0.1340  0.1921
 3706DDP     C322235  25.236  18.649  18.780 -0.1714 -0.2308  0.1145
 3706DDP     C422236  24.598  19.472  18.182 -0.2825 -0.0793  0.1056
 3707DDP     C122237   8.799  11.400  25.819 -0.0439 -0.2951  0.1906
 3707DDP     P122238   9.068  11.574  25.527 -0.0631 -0.1017  0.0127
 3707DDP     P222239   8.689  11.062  25.551  0.0023 -0.0295 -0.2313
 3707DDP     C222240   8.760  10.869  25.101  0.1452  0.0675 -0.1325
 3707DDP     C322241   9.399  11.961  25.653  0.1732  0.0067 -0.0106
 3707DDP     C422242   8.478  11.738  25.909 -0.0085  0.2725 -0.0891
 3708DDP     C122243  27.236  13.400  28.782 -0.3936  0.0451  0.0012
 3708DDP     P122244  27.650  13.233  29.016 -0.1202 -0.0630 -0.0949
 3708DDP     P222245  26.921  13.625  29.000 -0.4306 -0.2844  0.3140
 3708DDP     C222246  26.812  14.028  29.166  0.1757  0.0037  0.0662
 3708DDP     C322247  27.958  13.432  29.242  0.0345 -0.1067  0.0150
 3708DDP     C422248  27.215  13.203  28.424  0.0914 -0.1090  0.0875
 3709DDP     C122249  15.664  20.659  23.687  0.0664 -0.0234  0.2703
 3709DDP     P122250  16.008  20.783  23.412 -0.2187 -0.0991  0.2870
 3709DDP     P222251  15.323  20.433  23.507 -0.0371  0.1079 -0.0450
 3709DDP     C222252  14.914  20.517  23.437 -0.0509 -0.1094  0.3081
 3709DDP     C322253  16.348  20.588  23.088 -0.1525 -0.2734 -0.2369
 3709DDP     C422254  15.510  20.991  23.935 -0.0579  0.0798 -0.2077
 3710DDP     C122255  29.858   8.345   7.917 -0.0693  0.0111 -0.2081
 3710DDP     P122256  29.912   8.816   7.953  0.1556 -0.1074 -0.2569
 3710DDP     P222257  30.206   7.994   8.066  0.2191  0.0875 -0.1380
 3710DDP     C222258   0.162   7.812   8.314 -0.1528 -0.2014  0.1606
 3710DDP     C322259  29.770   9.054   7.626 -0.2112 -0.2380  0.2458
 3710DDP     C422260  29.382   8.159   7.810 -0.2600  0.0408  0.0015
 3711DDP     C122261   7.232   2.169  11.842 -0.1010  0.1014 -0.1260
 3711DDP     P122262   7.293   2.635  11.607 -0.1546 -0.0721 -0.1830
 3711DDP     P222263   7.146   2.163  12.192  0.0615  0.0429  0.0234
 3711DDP     C222264   7.076   2.431  12.523 -0.1282 -0.1827 -0.1811
 3711DDP     C322265   7.638   2.836  11.513 -0.2251 -0.0307 -0.1088
 3711DDP     C422266   7.171   1.782  11.711 -0.3009  0.0653  0.0121
 3712DDP     C122267   0.231   1.098  25.704 -0.0457 -0.3397 -0.1167
 3712DDP     P122268   0.461   1.440  25.483  0.0675 -0.1448  0.1283
 3712DDP     P222269   0.420   0.740  25.635  0.0955  0.3022 -0.0261
 3712DDP     C222270   0.512   0.514  25.297  0.0991  0.0408  0.1732
 3712DDP     C322271   0.693   1.810  25.286 -0.2202  0.1786 -0.2371
 3712DDP     C422272  30.303   0.959  26.102  0.0287  0.1183 -0.2200
 3713DDP     C122273  23.015  29.204   4.797  0.0937  0.1952  0.1215
 3713DDP     P122274  23.089  28.703   4.769  0.0676  0.0081  0.0088
 3713DDP     P222275  22.640  29.337   4.565 -0.1687 -0.0265  0.0137
 3713DDP     C222276  22.650  29.572   4.238  0.0398  0.0337 -0.0256
 3713DDP     C322277  23.129  28.302   4.757  0.1884  0.0986 -0.2701
 3713DDP     C422278  23.214  29.376   5.099 -0.2949  0.0533 -0.0559
 3714DDP     C122279   4.696   5.620  29.236 -0.0363 -0.0626 -0.3680
 3714DDP     P122280   5.108   5.843  29.365 -0.1057  0.1220  0.1712
 3714DDP     P222281   4.283   5.793  29.179  0.0182  0.2117 -0.0474
 3714DDP     C222282   3.838   5.920  29.233 -0.1571  0.0978  0.1989
 3714DDP     C322283   5.424   5.735  29.571  0.0186  0.1365  0.0943
 3714DDP     C422284   4.849   5.279  29.074  0.1466 -0.1402 -0.0045
 3715DDP     C122285  15.699   9.110  23.143  0.1261 -0.2442 -0.0737
 3715DDP     P122286  15.800   9.217  22.831  0.4146  0.1129  0.2278
 3715DDP     P222287  15.366   8.927  23.092 -0.1394  0.0879 -0.0782
 3715DDP     C222288  15.043   8.761  22.787 -0.1921 -0.1056  0.1210
 3715DDP     C322289  15.809   9.676  22.748 -0.1342  0.0545 -0.0463
 3715DDP     C422290  15.830   9.083  23.496 -0.1779  0.1338  0.0348
 3716DDP     C122291   9.242  27.809  28.600 -0.2476  0.3694  0.2104
 3716DDP     P122292   9.640  28.054  28.560  0.2374 -0.0697  0.1337
 3716DDP     P222293   9.309  27.358  28.486 -0.0723 -0.0752 -0.2095
 3716DDP     C222294   9.611  27.389  28.150 -0.1440 -0.1630  0.2032
 3716DDP     C322295   9.655  28.466  28.282  0.2417  0.3564 -0.1252
 3716DDP     C422296   8.819  27.904  28.820 -0.1224  0.2579 -0.2441
 3717DDP     C122297  28.476  28.754  25.161  0.0736  0.1591 -0.0965
 3717DDP     P122298  28.769  28.342  25.228  0.0307 -0.2211 -0.0991
 3717DDP     P222299  28.210  28.738  24.868 -0.1770 -0.0566 -0.2805
 3717DDP     C222300  27.787  28.855  24.782  0.1361  0.1656 -0.1128
 3717DDP     C322301  28.953  27.916  25.208  0.1741  0.0089 -0.0167
 3717DDP     C422302  28.614  29.177  25.413  0.0163  0.0165  0.0277
 3718DDP     C122303   6.948  25.810   8.877  0.1512 -0.2083 -0.0333
 3718DDP     P122304   7.008  25.398   8.853 -0.3804 -0.0947  0.0333
 3718DDP     P222305   7.392  26.000   8.813 -0.0844 -0.0520  0.0016
 3718DDP     C222306   7.792  26.007   8.529 -0.5846 -0.0333  0.0228
 3718DDP     C322307   7.271  25.087   8.832  0.0804  0.1096  0.0611
 3718DDP     C422308   6.767  26.063   9.235 -0.2596  0.1076  0.0705
 3719DDP     C122309  22.671  15.408  12.798  0.0894  0.0799  0.0375
 3719DDP     P122310  22.878  15.765  13.018  0.3188  0.1219 -0.2536
 3719DDP     P222311  23.054  15.258  12.615 -0.2205 -0.0944 -0.0326
 3719DDP     C222312  23.523  15.224  12.511 -0.0949  0.0909  0.0144
 3719DDP     C322313  22.825  16.198  13.166 -0.0445  0.0138 -0.0276
 3719DDP     C422314  22.231  15.237  12.674 -0.2387 -0.1283 -0.2257
 3720DDP     C122315  27.534  15.174  20.548 -0.0782 -0.0795  0.1031
 3720DDP     P122316  27.610  15.606  20.279 -0.0659 -0.4236 -0.1711
 3720DDP     P222317  27.168  15.151  20.309  0.0822  0.2818  0.0084
 3720DDP     C222318  26.756  15.220  20.357  0.0267  0.0225  0.1533
 3720DDP     C322319  28.052  15.656  20.117  0.0436 -0.0596 -0.1910
 3720DDP     C422320  27.618  15.073  20.960  0.1555 -0.0758  0.1729
 3721DDP     C122321  13.845  25.905   7.196  0.1981 -0.1160 -0.2059
 3721DDP     P122322  13.904  25.646   7.657 -0.2458  0.3726  0.0389
 3721DDP     P222323  14.092  26.256   7.167  0.3161 -0.1495 -0.0100
 3721DDP     C222324  14.258  26.552   6.804  0.1075 -0.0408  0.1405
 3721DDP     C322325  14.058  25.550   8.136  0.0986 -0.0144  0.1196
 3721DDP     C422326  13.440  25.904   6.910 -0.0214 -0.1770  0.2454
 3722DDP     C122327   4.248  27.631  12.665  0.4480 -0.0545  0.2797
 3722DDP     P122328   3.868  27.879  12.733  0.1865  0.0104 -0.1074
 3722DDP     P222329   4.616  27.672  12.967 -0.0430  0.2041  0.2441
 3722DDP     C222330   4.713  27.477  13.345 -0.1712 -0.2991 -0.0018
 3722DDP     C322331   3.974  28.235  12.569 -0.0033 -0.2984 -0.2619
 3722DDP     C422332   4.206  27.437  12.297  0.0322  0.0279  0.0741
 3723DDP     C122333  20.419   3.751  22.757 -0.1298 -0.4007  0.4865
 3723DDP     P122334  20.298   3.976  23.148  0.4113  0.2719  0.0952
 3723DDP     P222335  20.847   3.622  22.581 -0.0992  0.1062 -0.0565
 3723DDP     C222336  20.897   3.115  22.551  0.0342 -0.1138 -0.0739
 3723DDP     C322337  20.045   3.888  23.336 -0.0237 -0.4097  0.1218
 3723DDP     C422338  20.062   3.614  22.519 -0.2047  0.1635 -0.1657
 3724DDP     C122339   1.293   9.650   3.734  0.0987  0.1447 -0.1559
 3724DDP     P122340   1.070   9.566   4.113  0.0192  0.1010  0.0331
 3724DDP     P222341   1.443   9.984   3.940  0.0832 -0.0107  0.0351
 3724DDP     C222342   1.787  10.054   4.186  0.0706 -0.1315 -0.1841
 3724DDP     C322343   0.563   9.564   4.073  0.3216  0.2077  0.1336
 3724DDP     C422344   1.272   9.513   3.362 -0.0413 -0.1160  0.0356
 3725DDP     C122345  25.731  21.517  26.996  0.1229 -0.1655  0.0487
 3725DDP     P122346  25.978  21.225  27.254  0.0454  0.0213  0.6033
 3725DDP     P222347  26.062  21.809  27.074  0.1397  0.2276  0.0784
 3725DDP     C222348  26.338  22.118  26.933 -0.0476 -0.1867 -0.2085
 3725DDP     C322349  25.822  20.968  27.518 -0.0281 -0.2294 -0.0858
 3725DDP     C422350  25.314  21.502  26.724  0.1689 -0.1350  0.0396
 3726DDP     C122351  20.411  23.842   3.024 -0.0322 -0.2665  0.0260
 3726DDP     P122352  20.543  23.527   3.348  0.1708 -0.1784 -0.0418
 3726DDP     P222353  20.548  24.322   3.174  0.2451  0.0365 -0.1356
 3726DDP     C222354  20.223  24.650   3.211  0.2517 -0.1062 -0.1975
 3726DDP     C322355  20.532  23.131   3.656  0.2610  0.0740  0.1300
 3726DDP     C422356  20.144  23.833   2.649 -0.1707  0.0863 -0.2215
 3727DDP     C122357  24.568   7.333   7.150  0.0300 -0.1755  0.1371
 3727DDP     P122358  25.020   7.350   7.417  0.2967 -0.0084 -0.1897
 3727DDP     P222359  24.277   7.692   6.967 -0.0950 -0.2669 -0.2738
 3727DDP     C222360  23.956   7.885   7.187  0.2764  0.0010 -0.0756
 3727DDP     C322361  25.430   7.045   7.398  0.3061 -0.1318 -0.0640
 3727DDP     C422362  24.531   6.982   7.072 -0.2164  0.0675  0.3530
 3728DDP     C122363  10.360  20.278  27.553 -0.0220  0.0840  0.1927
 3728DDP     P122364  10.200  20.300  27.833 -0.0504  0.1295  0.1632
 3728DDP     P222365  10.212  20.470  27.171 -0.0803  0.0315  0.0919
 3728DDP     C222366   9.881  20.694  26.930  0.5530 -0.0681  0.0679
 3728DDP     C322367  10.124  20.693  28.117 -0.0158  0.3251 -0.0091
 3728DDP     C422368  10.781  20.126  27.536 -0.0514 -0.0216  0.2299
 3729DDP     C122369  22.661  19.255  18.257  0.1967  0.1473 -0.0741
 3729DDP     P122370  23.017  19.012  18.387 -0.0867  0.0295  0.2194
 3729DDP     P222371  22.724  19.615  18.483  0.0444  0.0344 -0.2488
 3729DDP     C222372  22.771  19.887  18.867  0.1803  0.0643  0.3285
 3729DDP     C322373  23.373  18.779  18.370  0.3257 -0.1444  0.0089
 3729DDP     C422374  22.239  19.157  18.110 -0.1356  0.0809  0.3717
 3730DDP     C122375  15.144  15.954   0.509 -0.1176  0.1609  0.1212
 3730DDP     P122376  14.811  16.224   0.505  0.3680 -0.0728 -0.2129
 3730DDP     P222377  15.038  15.519   0.450 -0.1222  0.0316 -0.0841
 3730DDP     C222378  15.224  15.184   0.435 -0.1346 -0.0070 -0.1202
 3730DDP     C322379  14.408  16.265   0.736 -0.0080  0.0927 -0.0006
 3730DDP     C422380  15.527  16.048   0.539  0.5243 -0.1054 -0.1987
 3731DDP     C122381  25.319  25.133  20.668 -0.0807  0.3110 -0.0244
 3731DDP     P122382  25.582  25.233  20.297 -0.0672  0.1241 -0.2253
 3731DDP     P222383  25.065  25.419  20.698  0.3377 -0.1091  0.1667
 3731DDP     C222384  24.664  25.608  20.760  0.1914 -0.1814 -0.0478
 3731DDP     C322385  25.763  24.909  20.164 -0.0793  0.0580 -0.2627
 3731DDP     C422386  24.887  24.982  20.808  0.0164 -0.2408 -0.1049
 3732DDP     C122387  14.695   8.830  27.682 -0.0517  0.1590 -0.0422
 3732DDP     P122388  15.130   8.618  27.557 -0.1389  0.1756 -0.1516
 3732DDP     P222389  14.690   9.054  28.066  0.0978  0.0386  0.0815
 3732DDP     C222390  14.454   9.380  28.386 -0.0205  0.1038  0.2682
 3732DDP     C322391  15.554   8.759  27.610  0.0260  0.2014  0.1517
 3732DDP     C422392  14.337   8.695  27.495 -0.0873  0.4104 -0.2519
 3733DDP     C122393   6.751  11.773  12.473 -0.0709  0.1963  0.1110
 3733DDP     P122394   6.720  11.852  12.044 -0.2664  0.0222  0.0249
 3733DDP     P222395   6.495  12.143  12.587 -0.1744  0.0934  0.0551
 3733DDP     C222396   6.457  12.584  12.816 -0.0630  0.1362 -0.1636
 3733DDP     C322397   6.630  12.078  11.680 -0.0434 -0.3749 -0.0431
 3733DDP     C422398   6.753  11.491  12.766 -0.0002  0.0790 -0.4421
 3734DDP     C122399   8.544   5.676  14.261  0.1619 -0.0360  0.2852
 3734DDP     P122400   8.971   5.891  14.201  0.0155 -0.0073  0.2058
 3734DDP     P222401   8.448   5.496  14.575  0.0064 -0.0541  0.2371
 3734DDP     C222402   8.368   5.049  14.799 -0.1675 -0.0780 -0.1275
 3734DDP     C322403   9.051   6.253  13.977 -0.1351  0.0939  0.0136
 3734DDP     C422404   8.244   5.705  14.036  0.0239  0.1019  0.1716
 3735DDP     C122405  17.811   0.620   2.688  0.0482 -0.0629  0.1128
 3735DDP     P122406  18.236   0.445   2.765  0.3120  0.2976 -0.1009
 3735DDP     P222407  17.508   0.791   2.985  0.1188  0.1138 -0.1318
 3735DDP     C222408  17.425   0.752   3.409  0.1854 -0.2942  0.2184
 3735DDP     C322409  18.663   0.266   2.851 -0.0882 -0.3678 -0.5014
 3735DDP     C422410  17.722   0.608   2.291 -0.0826 -0.1862 -0.1734
 3736DDP     C122411  23.104   3.459  23.597 -0.2400 -0.1727  0.1916
 3736DDP     P122412  23.067   3.263  23.252 -0.5037  0.2231  0.2579
 3736DDP     P222413  22.808   3.592  23.572 -0.2554  0.1112 -0.0344
 3736DDP     C222414  22.301   3.542  23.683  0.2370  0.0791 -0.2525
 3736DDP     C322415  23.048   2.886  23.040 -0.1823  0.0279 -0.0282
 3736DDP     C422416  23.251   3.477  24.012 -0.2755 -0.0318  0.0781
 3737DDP     C122417   7.013  17.224  29.221  0.1980 -0.0259  0.1066
 3737DDP     P122418   6.787  17.501  29.624 -0.0642 -0.0708 -0.2745
 3737DDP     P222419   7.154  16.776  29.185  0.3207 -0.0846 -0.3765
 3737DDP     C222420   7.490  16.674  28.897  0.0098  0.3327 -0.0614
 3737DDP     C322421   6.497  17.833  29.759  0.1905 -0.1975 -0.0291
 3737DDP     C422422   7.280  17.318  28.825  0.0143  0.2015  0.1587
 3738DDP     C122423  28.549  14.140  24.657  0.0990 -0.3169  0.2295
 3738DDP     P122424  28.778  14.441  24.612  0.2197 -0.2905 -0.0976
 3738DDP     P222425  28.408  13.809  24.306 -0.2257  0.1668 -0.1741
 3738DDP     C222426  28.174  13.480  24.139 -0.2305  0.0440  0.0494
 3738DDP     C322427  29.024  14.710  24.895  0.1104  0.1051 -0.1202
 3738DDP     C422428  28.321  14.051  25.031  0.0700  0.0281  0.0848
 3739DDP     C122429  28.586  29.988  25.842  0.0209 -0.0268  0.0395
 3739DDP     P122430  28.870  30.140  25.589 -0.0509 -0.0901 -0.0158
 3739DDP     P222431  28.212  30.046  25.643  0.0376 -0.0891 -0.0746
 3739DDP     C222432  28.032   0.010  25.487  0.0634  0.1305 -0.2058
 3739DDP     C322433  29.100  30.292  25.180 -0.1004 -0.0627 -0.1947
 3739DDP     C422434  28.586  29.702  26.298 -0.1144 -0.3370 -0.0011
 3740DDP     C122435   6.532  13.745  23.871 -0.4474  0.1657  0.2310
 3740DDP     P122436   6.872  13.619  23.605 -0.0273  0.3017  0.0232
 3740DDP     P222437   6.164  13.584  23.735 -0.1470 -0.3443 -0.1748
 3740DDP     C222438   5.771  13.388  23.546  0.0497  0.2231  0.2344
 3740DDP     C322439   7.194  13.508  23.235 -0.1712 -0.0348 -0.0083
 3740DDP     C422440   6.513  14.086  24.188 -0.1534  0.1142  0.0793
 3741DDP     C122441  23.007  22.282  21.501 -0.2048  0.1184 -0.0684
 3741DDP     P122442  22.994  21.840  21.430  0.0330 -0.3792  0.0338
 3741DDP     P222443  22.942  22.445  21.955  0.1576 -0.1357 -0.1161
 3741DDP     C222444  22.490  22.543  22.158 -0.1429  0.2482  0.1420
 3741DDP     C322445  23.016  21.691  21.042 -0.1141  0.3071 -0.0481
 3741DDP     C422446  23.114  22.578  21.221 -0.1239 -0.3400 -0.4061
 3742DDP     C122447  25.079  27.413  24.980  0.2619  0.1363  0.2480
 3742DDP     P122448  25.112  26.993  25.281 -0.0564  0.1107  0.3638
 3742DDP     P222449  24.678  27.394  24.774  0.2845  0.5707  0.2965
 3742DDP     C222450  24.359  27.589  24.867  0.2290  0.3939 -0.0225
 3742DDP     C322451  24.933  26.622  25.150  0.0349  0.1011 -0.0487
 3742DDP     C422452  25.293  27.795  25.186  0.2235  0.0045  0.1766
 3743DDP     C122453  11.078  11.207  15.203  0.0409 -0.0578  0.2164
 3743DDP     P122454  11.511  11.156  15.227  0.2329 -0.0519 -0.0949
 3743DDP     P222455  10.858  10.923  14.998  0.0170 -0.1171 -0.3247
 3743DDP     C222456  10.785  10.385  15.028  0.2390 -0.3389 -0.1211
 3743DDP     C322457  11.817  10.896  15.429  0.1662  0.4169  0.1767
 3743DDP     C422458  10.958  11.507  15.551  0.1467  0.0680  0.1249
 3744DDP     C122459  15.454  28.154   4.685  0.3372  0.3213  0.0962
 3744DDP     P122460  15.145  27.833   4.538 -0.2067  0.1288 -0.1299
 3744DDP     P222461  15.701  28.272   4.383  0.0668  0.1167 -0.2549
 3744DDP     C222462  16.005  28.213   4.086 -0.1123 -0.2696 -0.1504
 3744DDP     C322463  14.809  27.502   4.435 -0.1069  0.2380  0.2153
 3744DDP     C422464  15.403  28.364   5.123  0.1815 -0.1385 -0.1319
 3745DDP     C122465  19.327  19.738  20.696 -0.3055 -0.0851  0.1315
 3745DDP     P122466  18.905  19.909  20.840 -0.0876  0.1776  0.0341
 3745DDP     P222467  19.472  19.339  20.559 -0.1069  0.4122  0.3240
 3745DDP     C222468  19.405  19.131  20.176  0.0650  0.1423 -0.1436
 3745DDP     C322469  18.613  20.103  21.123 -0.4076 -0.1159  0.0841
 3745DDP     C422470  19.661  19.962  20.897  0.1348  0.0441 -0.0877
 3746DDP     C122471  26.536  22.656  25.285  0.1292 -0.4117  0.2612
 3746DDP     P122472  26.360  22.262  25.030  0.3187  0.1453 -0.2654
 3746DDP     P222473  26.727  22.585  25.637  0.0606 -0.0071 -0.0802
 3746DDP     C222474  26.785  22.269  25.871  0.3537  0.0699 -0.2331
 3746DDP     C322475  25.991  22.078  24.755 -0.0005 -0.1133 -0.1362
 3746DDP     C422476  26.600  23.065  25.098 -0.4040  0.1763 -0.0341
 3747DDP     C122477  21.970   6.174  27.013 -0.3292  0.1019 -0.0484
 3747DDP     P122478  21.905   5.790  27.220  0.2238 -0.1505  0.0309
 3747DDP     P222479  21.901   6.220  26.546 -0.0229  0.0006  0.3029
 3747DDP     C222480  22.097   6.174  26.053  0.1365 -0.1221  0.1594
 3747DDP     C322481  22.066   5.695  27.530  0.0056 -0.1122 -0.0041
 3747DDP     C422482  21.965   6.579  27.332 -0.3914  0.1031 -0.2319
 3748DDP     C122483   4.389  26.858   2.359 -0.2307 -0.1497  0.2657
 3748DDP     P122484   4.169  26.471   2.298 -0.0683  0.3155  0.0613
 3748DDP     P222485   4.753  26.962   2.269 -0.3390 -0.1925 -0.2134
 3748DDP     C222486   5.057  27.230   2.126  0.0373  0.1695 -0.0901
 3748DDP     C322487   3.855  26.144   2.326 -0.3083  0.0519  0.1032
 3748DDP     C422488   4.389  27.128   2.661  0.0400 -0.0447  0.0675
 3749DDP     C122489  11.278  24.455  12.384  0.2078  0.0273  0.0679
 3749DDP     P122490  10.945  24.716  12.450  0.1764  0.1607 -0.0958
 3749DDP     P222491  11.631  24.552  12.623  0.0257 -0.0689  0.2086
 3749DDP     C222492  12.026  24.327  12.800  0.2543  0.0370 -0.0246
 3749DDP     C322493  10.666  25.136  12.487  0.1743 -0.0554  0.0394
 3749DDP     C422494  11.443  24.283  12.024  0.0160 -0.0095  0.1020
 3750DDP     C122495   7.300  18.237  18.674  0.0726 -0.1900  0.1996
 3750DDP     P122496   7.602  17.999  18.538 -0.0446 -0.3307  0.1120
 3750DDP     P222497   7.159  18.119  18.324 -0.2260 -0.0742  0.0534
 3750DDP     C222498   7.308  17.904  17.892  0.4062  0.1118  0.2191
 3750DDP     C322499   7.752  17.692  18.747 -0.2440 -0.2778 -0.1356
 3750DDP     C422500   7.227  18.391  19.109 -0.2514 -0.2691  0.1286
 3751DDP     C122501   7.800   9.981  28.230  0.0199  0.1050  0.2672
 3751DDP     P122502   7.864   9.463  28.029  0.0012  0.1809  0.2224
 3751DDP     P222503   7.474  10.152  28.544 -0.1514 -0.0772  0.4024
 3751DDP     C222504   7.167  10.432  28.829  0.1741 -0.1184  0.1441
 3751DDP     C322505   7.736   9.214  27.585  0.3840 -0.2638 -0.0407
 3751DDP     C422506   8.185  10.174  28.098  0.0153 -0.0700  0.2363
 3752DDP     C122507  26.802  27.343  16.970 -0.0257 -0.1601  0.0540
 3752DDP     P122508  27.302  27.472  16.894  0.1142  0.1079 -0.0351
 3752DDP     P222509  26.582  27.612  17.341 -0.0025 -0.1750 -0.2665
 3752DDP     C222510  26.672  28.068  17.473 -0.1521  0.0720 -0.1415
 3752DDP     C322511  27.528  27.682  17.194  0.3091 -0.0185  0.0806
 3752DDP     C422512  26.468  27.386  16.574 -0.0672  0.0575 -0.0396
 3753DDP     C122513  14.733  28.712  23.074  0.0399  0.1410 -0.3619
 3753DDP     P122514  14.506  28.486  23.193  0.2140 -0.0063 -0.0479
 3753DDP     P222515  14.515  28.927  22.668  0.0284  0.0987  0.0585
 3753DDP     C222516  14.272  29.275  22.687  0.0476 -0.0183  0.0407
 3753DDP     C322517  14.570  28.070  23.420  0.0821  0.1567  0.3498
 3753DDP     C422518  15.265  28.600  23.074  0.1152  0.1041  0.3140
 3754DDP     C122519   1.278  27.514   5.763  0.1569  0.0031 -0.1198
 3754DDP     P122520   0.986  27.308   6.002  0.1691  0.2365  0.1646
 3754DDP     P222521   1.014  27.801   5.497  0.1527 -0.1295  0.1671
 3754DDP     C222522   0.667  27.854   5.202 -0.0069  0.2628 -0.1491
 3754DDP     C322523   0.847  26.942   6.236  0.1666  0.0146  0.0429
 3754DDP     C422524   1.652  27.663   5.785 -0.2365  0.0638 -0.0542
 3755DDP     C122525  11.302  10.716  26.401 -0.1842  0.0609 -0.0124
 3755DDP     P122526  11.271  10.587  25.940 -0.0702  0.2900  0.1293
 3755DDP     P222527  11.422  10.394  26.694  0.2511 -0.2510  0.0706
 3755DDP     C222528  11.533  10.129  27.038  0.0722  0.1616 -0.4070
 3755DDP     C322529  11.270  10.193  25.773 -0.0875  0.0615  0.2800
 3755DDP     C422530  11.286  11.115  26.368 -0.1833  0.0989 -0.0277
 3756DDP     C122531  20.567  16.233   5.949  0.1048 -0.1489  0.1103
 3756DDP     P122532  20.431  16.162   5.527 -0.0064  0.2169  0.0470
 3756DDP     P222533  20.673  15.949   6.206  0.1508  0.0238  0.0328
 3756DDP     C222534  20.751  15.926   6.626  0.1143 -0.1229  0.1401
 3756DDP     C322535  20.300  16.315   5.101 -0.0068 -0.1484  0.0425
 3756DDP     C422536  20.453  16.738   6.009  0.1977 -0.1843 -0.1264
 3757DDP     C122537   0.389  12.938  28.714  0.0584 -0.0358 -0.1129
 3757DDP     P122538   0.449  13.379  28.605 -0.1884 -0.2571  0.1151
 3757DDP     P222539   0.091  12.858  29.006  0.0682  0.0765  0.1755
 3757DDP     C222540  30.060  13.070  29.287  0.0039  0.1629 -0.3453
 3757DDP     C322541   0.511  13.803  28.512  0.0781 -0.3356  0.0346
 3757DDP     C422542   0.644  12.637  28.600  0.0764 -0.0493  0.0147
 3758DDP     C122543   9.595  15.382   7.155  0.2117  0.1966  0.0775
 3758DDP     P122544   9.312  15.816   7.146 -0.0580 -0.0191  0.3172
 3758DDP     P222545  10.023  15.284   7.276  0.0926 -0.1250 -0.1264
 3758DDP     C222546  10.313  15.383   7.683 -0.0563  0.2416 -0.2271
 3758DDP     C322547   8.892  16.046   6.988 -0.0522 -0.0508  0.3534
 3758DDP     C422548   9.441  14.941   7.040  0.0890 -0.0352  0.3301
 3759DDP     C122549  13.411  27.008  27.266 -0.1195 -0.1305 -0.0804
 3759DDP     P122550  13.361  26.805  27.660 -0.0565 -0.1851 -0.0704
 3759DDP     P222551  13.607  26.923  26.749 -0.1898  0.2886 -0.2089
 3759DDP     C222552  14.086  26.885  26.540 -0.0548  0.0150  0.1413
 3759DDP     C322553  13.566  26.728  28.076  0.0535 -0.2563 -0.2245
 3759DDP     C422554  13.415  27.436  27.225  0.3777  0.1104 -0.1604
 3760DDP     C122555   8.597  21.145   8.438  0.1665  0.3323  0.1248
 3760DDP     P122556   8.192  21.053   8.434 -0.1006 -0.3293  0.0277
 3760DDP     P222557   8.894  21.012   8.162 -0.2507  0.2520  0.0487
 3760DDP     C222558   9.227  20.974   8.011  0.1012  0.0063  0.1064
 3760DDP     C322559   7.838  20.906   8.516  0.4763 -0.0098  0.0036
 3760DDP     C422560   8.822  21.499   8.727  0.0053  0.2006 -0.2331
 3761DDP     C122561   2.180   6.682  24.820  0.0311  0.0981 -0.0582
 3761DDP     P122562   2.104   6.568  25.196  0.0360  0.0676  0.4844
 3761DDP     P222563   2.559   7.021  24.787  0.0265 -0.3423 -0.1967
 3761DDP     C222564   2.660   7.416  24.507 -0.1326 -0.0902  0.1560
 3761DDP     C322565   1.865   6.805  25.475  0.1852  0.0303  0.2086
 3761DDP     C422566   1.859   6.779  24.553  0.0452  0.1129 -0.0310
 3762DDP     C122567   2.840  12.746   8.808  0.0347 -0.1440 -0.0075
 3762DDP     P122568   3.100  12.474   8.632 -0.1297 -0.3267 -0.0041
 3762DDP     P222569   2.519  12.755   9.085  0.1156 -0.0713  0.1560
 3762DDP     C222570   2.259  13.022   9.389  0.0072 -0.0990 -0.0410
 3762DDP     C322571   3.535  12.380   8.808  0.0360 -0.0908 -0.3210
 3762DDP     C422572   3.134  13.253   8.802 -0.0379  0.0349 -0.3241
 3763DDP     C122573  17.054  25.882  17.291 -0.2687  0.0575  0.1966
 3763DDP     P122574  16.958  25.561  17.430  0.0234  0.3423 -0.1997
 3763DDP     P222575  17.075  25.906  16.803  0.0349  0.0334  0.0265
 3763DDP     C222576  17.220  26.209  16.528 -0.1192  0.1167 -0.0211
 3763DDP     C322577  17.097  25.144  17.529  0.0396 -0.1004  0.1716
 3763DDP     C422578  17.016  26.301  17.459  0.1697 -0.1445  0.1654
 3764DDP     C122579  17.796   7.951  20.996 -0.0936 -0.2067  0.1255
 3764DDP     P122580  17.458   8.086  20.684 -0.2058  0.0443 -0.1687
 3764DDP     P222581  17.951   7.667  21.286 -0.1230  0.2036 -0.1315
 3764DDP     C222582  18.222   7.405  21.569 -0.0932 -0.1040 -0.0304
 3764DDP     C322583  17.041   7.890  20.602 -0.0352 -0.0833 -0.0474
 3764DDP     C422584  18.190   8.137  21.004  0.0564 -0.0593  0.1872
 3765DDP     C122585   9.543  10.186  17.621 -0.1373  0.2862  0.4052
 3765DDP     P122586   9.108   9.833  17.825  0.4221  0.0741  0.1948
 3765DDP     P222587   9.871  10.361  17.820  0.2710 -0.0641 -0.1437
 3765DDP     C222588  10.137  10.613  18.135  0.1490  0.0766 -0.0790
 3765DDP     C322589   8.804   9.885  18.105  0.1500 -0.0794  0.0139
 3765DDP     C422590   9.858  10.130  17.207 -0.1151  0.0008 -0.1535
 3766DDP     C122591  20.239  10.977  24.156 -0.0699  0.1723  0.1413
 3766DDP     P122592  20.556  10.994  24.342  0.1672  0.2052 -0.0146
 3766DDP     P222593  20.350  10.968  23.725  0.0491 -0.0019  0.1601
 3766DDP     C222594  20.450  10.617  23.422 -0.3246  0.2916  0.2380
 3766DDP     C322595  20.741  11.043  24.674 -0.1962 -0.0411  0.0726
 3766DDP     C422596  19.809  10.906  24.367 -0.5957 -0.2365  0.0727
 3767DDP     C122597   8.273   3.422  17.428 -0.0200 -0.3110  0.1891
 3767DDP     P122598   8.235   3.870  17.438  0.0153 -0.3012 -0.3050
 3767DDP     P222599   7.915   3.309  17.572  0.1494 -0.3628 -0.1000
 3767DDP     C222600   7.496   3.355  17.879 -0.0890  0.0061 -0.4655
 3767DDP     C322601   8.391   4.095  17.173 -0.1221  0.2105 -0.0398
 3767DDP     C422602   8.608   3.197  17.416 -0.0546  0.0411  0.0926
 3768DDP     C122603   9.330  21.709   4.361 -0.2161 -0.3255 -0.1235
 3768DDP     P122604   9.531  21.963   4.098 -0.0406  0.1434  0.4712
 3768DDP     P222605   8.951  21.878   4.625  0.0704  0.4085 -0.3501
 3768DDP     C222606   8.706  22.092   4.838 -0.0047  0.1112 -0.1823
 3768DDP     C322607   9.483  22.269   3.780  0.2238  0.1892 -0.1636
 3768DDP     C422608   9.345  21.296   4.240 -0.0061  0.0795 -0.0562
 3769DDP     C122609  25.929  24.587  18.758  0.0628  0.1293 -0.1422
 3769DDP     P122610  26.207  24.648  18.523 -0.1982 -0.0490  0.1215
 3769DDP     P222611  25.535  24.321  18.709  0.2193  0.2901 -0.0475
 3769DDP     C222612  25.229  24.066  18.379  0.1136  0.0974  0.2551
 3769DDP     C322613  26.597  24.652  18.588  0.0331  0.0459 -0.0748
 3769DDP     C422614  26.078  24.796  19.133  0.0144  0.2226 -0.1230
 3770DDP     C122615  13.788  15.255  13.453  0.0542  0.3808  0.5001
 3770DDP     P122616  13.474  15.130  13.720 -0.3699  0.1161  0.1530
 3770DDP     P222617  13.904  15.599  13.298  0.2533  0.3581  0.0013
 3770DDP     C222618  13.938  15.958  13.352  0.1307 -0.1153 -0.1740
 3770DDP     C322619  13.120  15.220  13.919  0.0923  0.1545  0.1129
 3770DDP     C422620  14.040  14.821  13.272  0.0889 -0.1042  0.3351
 3771DDP     C122621   9.754  17.598  12.107  0.3215  0.1075 -0.1576
 3771DDP     P122622   9.892  17.488  11.694 -0.0982 -0.0447 -0.0140
 3771DDP     P222623   9.668  17.210  12.302 -0.0614  0.0155 -0.1169
 3771DDP     C222624   9.573  16.778  12.345 -0.1304 -0.0972 -0.2147
 3771DDP     C322625  10.128  17.218  11.690  0.6155 -0.1058 -0.1628
 3771DDP     C422626   9.904  18.075  12.263 -0.2111 -0.0864  0.0061
 3772DDP     C122627   0.385  29.627   3.333  0.0994 -0.1294  0.4300
 3772DDP     P122628   0.067  29.839   3.533  0.0850  0.1597 -0.0210
 3772DDP     P222629   0.649  29.754   3.023 -0.0904 -0.0651  0.1028
 3772DDP     C222630   0.908  29.853   2.602 -0.1461 -0.1798  0.0462
 3772DDP     C322631  30.078  29.760   3.855 -0.1279 -0.1492  0.1187
 3772DDP     C422632   0.417  29.278   3.586 -0.2137  0.2124 -0.1299
 3773DDP     C122633  25.627  23.437  27.828  0.1681 -0.1425 -0.0991
 3773DDP     P122634  25.887  23.615  28.082  0.4198 -0.0888 -0.2139
 3773DDP     P222635  25.650  23.020  27.778  0.0129 -0.2949  0.1494
 3773DDP     C222636  25.635  22.577  28.033  0.1220 -0.0826 -0.0114
 3773DDP     C322637  26.204  23.746  28.380  0.4431 -0.1274  0.0630
 3773DDP     C422638  25.431  23.718  27.692  0.0012  0.1536  0.0535
 3774DDP     C122639  10.549  15.236   8.754  0.4473  0.3946  0.0195
 3774DDP     P122640  10.594  15.633   8.468 -0.0774 -0.3198  0.1823
 3774DDP     P222641  10.120  15.018   8.894  0.0441  0.2231  0.2483
 3774DDP     C222642   9.838  14.824   9.095  0.0791 -0.1033 -0.1745
 3774DDP     C322643  10.772  15.963   8.663  0.0345 -0.0615  0.2117
 3774DDP     C422644  10.975  15.057   8.837 -0.1331 -0.0704  0.0229
 3775DDP     C122645   3.159   9.051  22.888  0.3720 -0.2635  0.0727
 3775DDP     P122646   2.924   9.364  22.605  0.1305 -0.1007  0.0219
 3775DDP     P222647   3.252   8.611  22.875  0.0374 -0.0548  0.1630
 3775DDP     C222648   3.084   8.385  23.169  0.0791  0.0349  0.1565
 3775DDP     C322649   2.507   9.444  22.331 -0.0903  0.2514  0.2850
 3775DDP     C422650   2.975   9.236  23.251 -0.2787  0.2088 -0.0492
 3776DDP     C122651   6.565  26.684  29.845 -0.3502 -0.1356  0.0139
 3776DDP     P122652   6.805  27.014  29.716 -0.1817 -0.2440 -0.3031
 3776DDP     P222653   6.852  26.341  29.822 -0.0281  0.0529 -0.1250
 3776DDP     C222654   7.147  26.062  29.928  0.0808  0.0224 -0.2138
 3776DDP     C322655   6.946  27.386  29.767  0.1941 -0.1433 -0.0387
 3776DDP     C422656   6.159  26.575  29.940 -0.4653 -0.1465  0.3309
 3777DDP     C122657  22.142  16.174  30.062  0.0237 -0.3140  0.1093
 3777DDP     P122658  22.477  16.260  30.178  0.1167  0.0769 -0.1446
 3777DDP     P222659  22.036  15.817  30.164 -0.0631  0.3069 -0.4049
 3777DDP     C222660  21.996  15.513   0.188 -0.1195 -0.0082  0.2641
 3777DDP     C322661  22.916  16.294  30.050  0.0712 -0.1453 -0.2286
 3777DDP     C422662  21.846  16.205  29.693 -0.4126 -0.0393  0.0247
 3778DDP     C122663  29.361  13.021  10.612 -0.0104  0.2206 -0.1712
 3778DDP     P122664  29.653  12.977  10.206 -0.1434  0.0692  0.3763
 3778DDP     P222665  28.947  13.269  10.609  0.0688 -0.0896 -0.1071
 3778DDP     C222666  28.667  13.614  10.557  0.0286  0.2165  0.0124
 3778DDP     C322667  29.670  12.689   9.875  0.4169 -0.0533  0.2170
 3778DDP     C422668  29.479  12.806  11.049 -0.0999 -0.3400  0.2167
 3779DDP     C122669  26.898  13.669  10.258 -0.1403 -0.2252  0.2649
 3779DDP     P122670  27.139  13.245  10.237 -0.0256  0.1019  0.4314
 3779DDP     P222671  26.921  14.071  10.405  0.2326  0.2455  0.1661
 3779DDP     C222672  27.015  14.422  10.420  0.0366  0.1143  0.1055
 3779DDP     C322673  27.525  13.052  10.017 -0.0313 -0.1118  0.4612
 3779DDP     C422674  26.592  13.931  10.034  0.0507  0.0850  0.4417
 3780DDP     C122675  14.061  20.037   8.105  0.0856  0.1671  0.0106
 3780DDP     P122676  14.337  19.654   7.893 -0.1709  0.2118 -0.0911
 3780DDP     P222677  13.815  20.111   8.464  0.2106  0.0511  0.0175
 3780DDP     C222678  13.631  20.089   8.834  0.1166 -0.0498 -0.1388
 3780DDP     C322679  14.335  19.489   7.385  0.1233  0.1334 -0.2020
 3780DDP     C422680  14.347  20.415   8.202 -0.2691 -0.0729  0.0782
 3781DDP     C122681  24.469  23.304  16.312  0.0498 -0.0279  0.0112
 3781DDP     P122682  24.627  23.290  16.630  0.1989  0.2071 -0.2438
 3781DDP     P222683  24.730  23.411  15.995 -0.1297  0.0650 -0.1132
 3781DDP     C222684  24.840  23.370  15.645  0.1392 -0.0073  0.4612
 3781DDP     C322685  25.021  23.180  16.792 -0.1241 -0.1372  0.2553
 3781DDP     C422686  24.314  23.171  15.907  0.0309  0.0138  0.2384
 3782DDP     C122687  24.198  22.976  20.032  0.1793  0.0308 -0.2535
 3782DDP     P122688  24.359  23.415  20.243  0.2509 -0.1703  0.1234
 3782DDP     P222689  24.467  22.593  19.834 -0.1965 -0.3061  0.1426
 3782DDP     C222690  24.805  22.420  19.617 -0.0008 -0.3693  0.0308
 3782DDP     C322691  24.517  23.793  20.503 -0.1490  0.0241 -0.3035
 3782DDP     C422692  23.729  22.936  20.016 -0.3351  0.3842 -0.1004
 3783DDP     C122693   7.230   0.175  13.646 -0.1060  0.0039 -0.4323
 3783DDP     P122694   7.486   0.378  13.306  0.1218 -0.0583 -0.1768
 3783DDP     P222695   7.313  30.142  13.615  0.0216  0.0569  0.1148
 3783DDP     C222696   7.375  29.738  13.699 -0.3324 -0.2342 -0.0923
 3783DDP     C322697   7.865   0.365  13.146  0.1459 -0.0036  0.2251
 3783DDP     C422698   6.882   0.345  13.714  0.1068  0.3927  0.0645
 3784DDP     C122699  18.961  12.799  20.136 -0.2676 -0.0492  0.0534
 3784DDP     P122700  19.390  12.665  20.139  0.0741 -0.0041 -0.0781
 3784DDP     P222701  19.013  13.260  20.339 -0.3000 -0.1660  0.1863
 3784DDP     C222702  18.878  13.635  20.707  0.1224 -0.0060  0.0015
 3784DDP     C322703  19.595  12.291  19.934  0.0810  0.1555 -0.0495
 3784DDP     C422704  18.546  12.625  19.967  0.2198 -0.0898 -0.0511
 3785DDP     C122705   3.213  12.716   1.524  0.2778 -0.0021  0.1251
 3785DDP     P122706   3.412  13.052   1.734  0.2453  0.1298  0.2229
 3785DDP     P222707   2.821  12.845   1.329  0.0582  0.1896 -0.0626
 3785DDP     C222708   2.452  12.626   1.051 -0.0497  0.2278 -0.1862
 3785DDP     C322709   3.511  13.179   2.202  0.0486 -0.1016 -0.1099
 3785DDP     C422710   3.340  12.294   1.469  0.1142  0.0191 -0.1410
 3786DDP     C122711  29.780  19.597   6.158 -0.1953 -0.0014 -0.1625
 3786DDP     P122712  29.409  19.555   6.199 -0.0096 -0.1406 -0.1715
 3786DDP     P222713  29.972  19.890   5.806  0.0603 -0.1817  0.1233
 3786DDP     C222714  29.967  20.337   5.737  0.1442 -0.2165  0.0828
 3786DDP     C322715  29.039  19.466   5.944 -0.3156  0.2164  0.0061
 3786DDP     C422716  29.948  19.315   6.443  0.0253 -0.2251  0.0902
 3787DDP     C122717   3.631  30.013   4.877 -0.0165  0.2614  0.0272
 3787DDP     P122718   3.429  30.236   4.596  0.0865 -0.0858  0.2774
 3787DDP     P222719   3.412  29.998   5.189 -0.0299 -0.0180 -0.2456
 3787DDP     C222720   3.178  30.233   5.310  0.0002 -0.4027 -0.3754
 3787DDP     C322721   3.168   0.339   4.538 -0.0643 -0.0677 -0.0312
 3787DDP     C422722   3.790  29.742   4.639  0.1594  0.1177  0.1541
 3788DDP     C122723   0.141  16.534  14.587  0.2159 -0.1624 -0.0791
 3788DDP     P122724   0.563  16.461  14.527  0.1661  0.2560  0.2499
 3788DDP     P222725  30.256  16.363  14.176  0.0205  0.0137 -0.1149
 3788DDP     C222726  29.864  16.268  14.018  0.1468  0.1075 -0.0802
 3788DDP     C322727   0.982  16.503  14.457  0.0285  0.2810  0.1143
 3788DDP     C422728  30.234  16.563  15.055  0.3819  0.1908 -0.1687
 3789DDP     C122729   3.162  25.032   3.424 -0.1437  0.1013  0.2086
 3789DDP     P122730   2.761  25.168   3.177  0.1018  0.0789 -0.0700
 3789DDP     P222731   3.593  25.150   3.382 -0.3333 -0.2402 -0.1426
 3789DDP     C222732   4.011  25.181   3.610 -0.3191 -0.1572 -0.0357
 3789DDP     C322733   2.300  25.408   2.948  0.0794  0.0699 -0.1336
 3789DDP     C422734   3.039  24.745   3.803  0.1194  0.4160  0.0693
 3790DDP     C122735   0.147  27.753   1.169  0.0037 -0.0620  0.0250
 3790DDP     P122736   0.508  27.793   1.066 -0.0307 -0.0323 -0.0099
 3790DDP     P222737   0.322  27.460   1.463 -0.1508  0.2564  0.1477
 3790DDP     C222738   0.680  27.249   1.423  0.0554 -0.1291 -0.1905
 3790DDP     C322739   0.845  28.020   1.179  0.3090  0.2419  0.2353
 3790DDP     C422740  30.036  27.982   1.161  0.0042 -0.0821  0.0096
 3791DDP     C122741  23.204  15.217   7.914 -0.0577 -0.0945  0.0013
 3791DDP     P122742  22.736  15.378   7.725 -0.2410  0.0902  0.0983
 3791DDP     P222743  23.536  15.507   7.850 -0.0354 -0.0407  0.0066
 3791DDP     C222744  23.821  15.783   8.141 -0.3197 -0.0543  0.2859
 3791DDP     C322745  22.527  15.324   7.250 -0.2356  0.0265 -0.0436
 3791DDP     C422746  23.350  14.786   8.097 -0.2068 -0.1345  0.2243
 3792DDP     C122747  12.901   5.582   2.130 -0.2107 -0.2692  0.0023
 3792DDP     P122748  13.429   5.573   2.084 -0.0661  0.0458  0.0525
 3792DDP     P222749  12.742   5.907   2.221  0.0620 -0.1162 -0.0640
 3792DDP     C222750  12.811   6.332   2.504 -0.1084  0.1004 -0.1671
 3792DDP     C322751  13.672   5.207   1.997  0.1664 -0.1935  0.2092
 3792DDP     C422752  12.677   5.170   1.966  0.0907  0.2233 -0.2951
 3793DDP     C122753  23.747   3.561  16.296 -0.1016 -0.1404 -0.0352
 3793DDP     P122754  23.781   4.051  16.509 -0.0240 -0.0645  0.0395
 3793DDP     P222755  23.836   3.165  16.659  0.0511  0.2222 -0.0857
 3793DDP     C222756  23.781   2.935  17.007 -0.1291  0.2563  0.1264
 3793DDP     C322757  23.877   4.308  16.920 -0.0843  0.1460 -0.1271
 3793DDP     C422758  23.480   3.596  16.055 -0.2075  0.2911 -0.1239
 3794DDP     C122759   9.394  20.228   4.081 -0.0287 -0.1236 -0.1094
 3794DDP     P122760   8.913  20.334   3.949  0.1006 -0.0439 -0.0621
 3794DDP     P222761   9.810  20.281   3.785 -0.3169 -0.1779  0.2632
 3794DDP     C222762  10.291  20.217   3.564  0.2907  0.1514 -0.1362
 3794DDP     C322763   8.464  20.281   3.733  0.0961  0.2306 -0.2770
 3794DDP     C422764   9.514  19.978   4.408  0.0142 -0.0517  0.0064
 3795DDP     C122765  12.578  16.141  11.841  0.0483  0.0833  0.2694
 3795DDP     P122766  12.165  16.206  11.567  0.1415  0.2288 -0.0961
 3795DDP     P222767  12.592  15.848  12.208  0.0052  0.0433  0.0382
 3795DDP     C222768  12.509  15.939  12.549  0.2894 -0.2684  0.1039
 3795DDP     C322769  11.832  16.459  11.672  0.0514  0.3553 -0.3126
 3795DDP     C422770  12.893  16.318  11.884 -0.0133  0.2121  0.3109
 3796DDP     C122771   2.290  24.088  12.626 -0.0527 -0.1864 -0.0611
 3796DDP     P122772   2.009  24.424  12.399  0.1202 -0.1945  0.3408
 3796DDP     P222773   2.145  23.646  12.930  0.1032  0.1108 -0.1072
 3796DDP     C222774   1.994  23.785  13.384  0.1575  0.0960  0.0063
 3796DDP     C322775   1.751  24.648  12.288 -0.4145 -0.1967  0.0309
 3796DDP     C422776   2.484  24.420  12.921  0.3675 -0.2048  0.0003
 3797DDP     C122777  14.115   7.109  28.679 -0.1430 -0.0031  0.1940
 3797DDP     P122778  14.220   6.671  28.759 -0.3360  0.0827 -0.0302
 3797DDP     P222779  14.219   7.431  29.081 -0.1369 -0.3551 -0.0375
 3797DDP     C222780  14.522   7.702  29.356  0.1109  0.2580 -0.1416
 3797DDP     C322781  14.670   6.509  28.815  0.2124 -0.0210  0.0593
 3797DDP     C422782  14.051   7.260  28.208 -0.2702  0.0760  0.1170
 3798DDP     C122783  26.956   2.790  17.717 -0.3640 -0.2280 -0.0403
 3798DDP     P122784  26.709   3.198  17.972  0.0402 -0.2468  0.6285
 3798DDP     P222785  26.806   2.427  17.515  0.1356 -0.0166 -0.1681
 3798DDP     C222786  26.790   1.998  17.311 -0.0811 -0.2755  0.2184
 3798DDP     C322787  26.364   3.401  18.110  0.0918 -0.4515  0.2363
 3798DDP     C422788  27.381   2.765  17.611 -0.0972  0.0410 -0.2155
 3799DDP     C122789  24.483  23.304   2.398 -0.0478 -0.1810 -0.2428
 3799DDP     P122790  24.473  22.973   2.018  0.2577 -0.2424 -0.1206
 3799DDP     P222791  24.396  23.756   2.295 -0.2314 -0.1452 -0.6529
 3799DDP     C222792  24.271  23.940   1.903 -0.1514 -0.3480 -0.0401
 3799DDP     C322793  24.720  22.798   1.666  0.1170 -0.0930 -0.1803
 3799DDP     C422794  24.706  23.246   2.819 -0.0731 -0.0739 -0.1073
 3800DDP     C122795  10.459  27.288   8.409 -0.1224 -0.0582 -0.1106
 3800DDP     P122796  10.292  26.854   8.641  0.0778 -0.0347 -0.0218
 3800DDP     P222797  10.650  27.566   8.695 -0.1956  0.0716  0.1734
 3800DDP     C222798  10.973  27.538   8.901  0.0224  0.1916  0.0628
 3800DDP     C322799  10.090  26.567   9.006  0.2781  0.0566 -0.0986
 3800DDP     C422800  10.212  27.372   8.002  0.0393  0.0962  0.0387
 3801DDP     C122801   8.589  27.987  21.252 -0.0365 -0.3315  0.2931
 3801DDP     P122802   8.880  27.645  21.288 -0.2982  0.2019  0.0033
 3801DDP     P222803   8.773  28.309  21.145 -0.0208 -0.0124  0.0011
 3801DDP     C222804   8.846  28.566  20.845 -0.3676  0.0174 -0.3469
 3801DDP     C322805   9.201  27.438  21.147  0.6129  0.1891  0.0031
 3801DDP     C422806   8.040  27.950  21.302 -0.2249 -0.2237  0.0575
 3802DDP     C122807  15.609   6.181  17.139 -0.0229 -0.1728 -0.0536
 3802DDP     P122808  15.461   6.297  16.821 -0.3977 -0.1904 -0.2611
 3802DDP     P222809  15.726   6.313  17.408 -0.0198 -0.0003  0.2635
 3802DDP     C222810  15.731   6.151  17.873  0.0991  0.0491 -0.0997
 3802DDP     C322811  15.270   6.737  16.648  0.0049  0.3629  0.2280
 3802DDP     C422812  15.544   5.752  17.145  0.2467  0.0044 -0.2693
 3803DDP     C122813  15.816  19.314  28.543  0.2618 -0.1408  0.0300
 3803DDP     P122814  15.369  19.355  28.699  0.2838  0.2516  0.1548
 3803DDP     P222815  16.202  19.451  28.650 -0.0771  0.0472  0.0083
 3803DDP     C222816  16.390  19.745  28.880  0.4166  0.0727  0.2136
 3803DDP     C322817  14.977  19.178  28.950  0.2449  0.1402 -0.1064
 3803DDP     C422818  15.889  19.016  28.272 -0.2121 -0.1209  0.3362
 3804DDP     C122819   4.592   6.133   7.158 -0.0251  0.0622  0.0640
 3804DDP     P122820   4.269   6.239   6.820  0.1347 -0.1199  0.2033
 3804DDP     P222821   4.806   5.782   7.117  0.0281 -0.0692 -0.1834
 3804DDP     C222822   4.753   5.422   6.925  0.2288  0.0155  0.1481
 3804DDP     C322823   3.881   6.480   6.760  0.0519 -0.0494 -0.0147
 3804DDP     C422824   4.658   6.521   7.394 -0.0413  0.2609 -0.2175
 3805DDP     C122825  29.521   0.589   4.354 -0.3568  0.1471  0.0365
 3805DDP     P122826  29.314   0.527   4.834 -0.1093  0.1895 -0.0719
 3805DDP     P222827  29.234   0.302   4.155  0.0887  0.0356  0.0598
 3805DDP     C222828  29.305  30.195   4.145  0.0398 -0.3962  0.2634
 3805DDP     C322829  29.206   0.068   4.871  0.0994  0.0284 -0.0275
 3805DDP     C422830  29.871   0.778   4.159  0.0566 -0.0246 -0.1824
 3806DDP     C122831  19.168   5.179   4.788  0.2720 -0.3267 -0.2047
 3806DDP     P122832  18.762   5.403   4.730 -0.0426 -0.0159  0.0499
 3806DDP     P222833  19.344   5.296   5.108 -0.0679  0.2891 -0.0310
 3806DDP     C222834  19.577   5.336   5.577 -0.1035  0.0220  0.0204
 3806DDP     C322835  18.538   5.750   4.632  0.0688  0.0471 -0.2300
 3806DDP     C422836  19.371   4.848   4.738 -0.0773  0.1015  0.1653
 3807DDP     C122837  18.307  17.939   7.616 -0.2554  0.2521  0.1201
 3807DDP     P122838  18.448  17.493   7.655  0.5187  0.2241  0.1509
 3807DDP     P222839  18.497  18.027   7.968  0.0329 -0.1926 -0.1342
 3807DDP     C222840  18.387  18.164   8.337  0.2380 -0.1188  0.3283
 3807DDP     C322841  18.412  17.141   7.882 -0.0460 -0.1078  0.0364
 3807DDP     C422842  18.053  18.317   7.323  0.1868 -0.0339 -0.2372
 3808DDP     C122843   7.893  22.741  16.976  0.0422  0.0084 -0.0778
 3808DDP     P122844   7.892  22.427  16.829 -0.0296  0.1810 -0.2680
 3808DDP     P222845   7.460  22.659  17.211 -0.0615 -0.0530 -0.0251
 3808DDP     C222846   7.230  22.317  17.348 -0.1581  0.0479 -0.0545
 3808DDP     C322847   8.047  21.991  16.845 -0.3137  0.0554  0.2211
 3808DDP     C422848   8.077  23.151  16.898 -0.2200  0.0454  0.1516
 3809DDP     C122849  20.653  26.103  19.836 -0.1394 -0.0176 -0.1774
 3809DDP     P122850  20.917  26.124  19.480  0.0258 -0.2450 -0.0445
 3809DDP     P222851  20.367  26.394  19.781  0.3859  0.2332 -0.1021
 3809DDP     C222852  20.418  26.813  19.937  0.3317 -0.0762 -0.0284
 3809DDP     C322853  21.265  26.054  19.188 -0.2359 -0.2052 -0.3134
 3809DDP     C422854  20.565  25.688  20.044 -0.1777 -0.1047  0.2334
 3810DDP     C122855  12.516  10.748   3.972  0.1566 -0.0359  0.0257
 3810DDP     P122856  12.450  10.886   4.357  0.1562  0.0721 -0.1184
 3810DDP     P222857  12.387  11.035   3.642 -0.3017  0.0000 -0.1035
 3810DDP     C222858  12.170  11.442   3.519  0.0652  0.0225  0.0642
 3810DDP     C322859  12.103  11.143   4.614  0.0793  0.1448  0.1361
 3810DDP     C422860  12.543  10.282   3.879  0.0474 -0.1250  0.0074
 3811DDP     C122861  21.094   4.017   1.666  0.1878 -0.3037  0.0384
 3811DDP     P122862  20.965   3.745   1.585  0.0784  0.1552  0.1156
 3811DDP     P222863  21.199   4.271   2.164 -0.0741  0.0344  0.1046
 3811DDP     C222864  21.213   4.725   2.263 -0.2072 -0.1161  0.0651
 3811DDP     C322865  20.679   3.664   1.382 -0.1522 -0.1720 -0.6975
 3811DDP     C422866  21.178   4.236   1.266  0.1526  0.1243  0.0987
 3812DDP     C122867  22.532  27.666   1.953  0.0435 -0.0700 -0.1858
 3812DDP     P122868  22.254  27.406   1.752 -0.2534 -0.3118  0.2715
 3812DDP     P222869  22.934  27.403   2.013  0.2503  0.2089  0.0983
 3812DDP     C222870  23.171  27.071   1.774  0.0155 -0.1064  0.1361
 3812DDP     C322871  22.243  27.047   1.570  0.2608 -0.0365  0.0287
 3812DDP     C422872  22.428  27.964   2.146 -0.3496  0.1726  0.0989
 3813DDP     C122873  29.021   6.945  11.802  0.4012  0.0662 -0.0834
 3813DDP     P122874  29.369   7.216  11.778 -0.1494  0.4319 -0.3000
 3813DDP     P222875  29.093   6.577  11.853 -0.1864  0.4794 -0.0787
 3813DDP     C222876  29.232   6.298  12.130 -0.0681 -0.0404  0.0416
 3813DDP     C322877  29.374   7.603  11.655  0.0933  0.1184  0.0553
 3813DDP     C422878  28.696   7.067  11.923  0.3694  0.0747  0.0579
 3814DDP     C122879  12.360  15.457   8.671  0.4308 -0.0876 -0.0913
 3814DDP     P122880  12.261  15.851   8.976  0.1089 -0.1162  0.3151
 3814DDP     P222881  12.629  15.190   8.867 -0.0928  0.0977  0.1744
 3814DDP     C222882  12.806  14.820   9.199  0.0633 -0.1515  0.0929
 3814DDP     C322883  12.434  16.236   9.039 -0.0285  0.0433  0.0259
 3814DDP     C422884  12.372  15.566   8.234  0.2224  0.4821  0.1024
 3815DDP     C122885  21.839  19.836  17.126 -0.2428 -0.2148 -0.4303
 3815DDP     P122886  22.271  19.932  17.242  0.1448  0.5909 -0.3056
 3815DDP     P222887  21.697  20.204  16.961  0.0634 -0.1028  0.2087
 3815DDP     C222888  21.399  20.503  16.880 -0.0101  0.0747 -0.1163
 3815DDP     C322889  22.683  19.978  17.422  0.1108 -0.3045 -0.1134
 3815DDP     C422890  21.648  19.592  17.413  0.3152 -0.1017  0.1849
 3816DDP     C122891   3.312  12.352  11.192  0.3261 -0.0542  0.1077
 3816DDP     P122892   3.272  12.292  10.732  0.1964 -0.2956  0.1370
 3816DDP     P222893   3.284  12.729  11.401  0.1291  0.3668 -0.0613
 3816DDP     C222894   3.550  13.004  11.633  0.0393  0.4465  0.0763
 3816DDP     C322895   3.511  12.295  10.275 -0.0505 -0.0370 -0.1006
 3816DDP     C422896   3.192  12.114  11.472 -0.0940  0.1511  0.2453
 3817DDP     C122897  16.993   1.237  14.156  0.1868 -0.1038  0.3758
 3817DDP     P122898  16.645   1.111  13.994 -0.0361 -0.4110  0.0983
 3817DDP     P222899  17.186   1.509  13.919  0.1844  0.0049 -0.1992
 3817DDP     C222900  17.528   1.820  13.723 -0.1743 -0.1294  0.1126
 3817DDP     C322901  16.495   0.735  13.983  0.1881 -0.1494 -0.2944
 3817DDP     C422902  17.166   1.153  14.597 -0.0578 -0.2092  0.0809
 3818DDP     C122903   0.371  25.245  12.950 -0.1646  0.2046  0.1843
 3818DDP     P122904   0.005  25.565  12.883 -0.2650 -0.1245 -0.3532
 3818DDP     P222905   0.788  25.427  13.069 -0.0069 -0.3151  0.0050
 3818DDP     C222906   0.907  25.897  13.198  0.0758 -0.0598 -0.0073
 3818DDP     C322907  29.946  25.802  12.934 -0.0580 -0.2821 -0.1134
 3818DDP     C422908   0.499  24.868  12.761  0.1769  0.0640 -0.2925
 3819DDP     C122909   3.598  23.348  22.560 -0.1618  0.2587  0.0370
 3819DDP     P122910   3.764  23.244  22.959 -0.2277 -0.0920  0.0047
 3819DDP     P222911   3.445  22.881  22.353 -0.0131 -0.1101  0.1255
 3819DDP     C222912   3.251  22.726  21.915 -0.0796 -0.3374 -0.1291
 3819DDP     C322913   3.785  23.438  23.400  0.3305  0.1630  0.0379
 3819DDP     C422914   3.641  23.843  22.495  0.1097  0.2603 -0.0787
 3820DDP     C122915  22.646   2.238  10.679 -0.1560 -0.1495  0.0683
 3820DDP     P122916  22.660   1.862  10.431  0.2183 -0.1060  0.0882
 3820DDP     P222917  23.112   2.430  10.725  0.1640 -0.0202  0.0540
 3820DDP     C222918  23.319   2.747  10.366 -0.3379  0.0488  0.1896
 3820DDP     C322919  22.442   1.559  10.175  0.1166 -0.1098  0.1289
 3820DDP     C422920  22.455   2.128  11.052  0.0172 -0.0003  0.1720
 3821DDP     C122921  11.232  11.661   2.318 -0.2766 -0.1647  0.0212
 3821DDP     P122922  11.459  11.252   2.253 -0.3288 -0.3412  0.3486
 3821DDP     P222923  11.041  11.998   2.045 -0.2076 -0.1575 -0.1813
 3821DDP     C222924  10.799  12.408   1.992  0.1022  0.2583 -0.1924
 3821DDP     C322925  11.745  11.199   1.909 -0.1862 -0.3068  0.2100
 3821DDP     C422926  11.107  12.038   2.656  0.0917 -0.1806 -0.0487
 3822DDP     C122927  17.292  21.853   0.281  0.3276 -0.2155 -0.2026
 3822DDP     P122928  17.468  22.269   0.241  0.2433  0.0755 -0.3246
 3822DDP     P222929  17.303  21.697   0.612 -0.0038 -0.1357  0.1871
 3822DDP     C222930  17.292  21.794   1.125  0.0748  0.0551  0.4874
 3822DDP     C322931  17.606  22.457  30.126 -0.2034  0.1628  0.2791
 3822DDP     C422932  17.017  21.688   0.068 -0.2712  0.0515  0.1560
 3823DDP     C122933  25.631  22.211   2.055  0.2367 -0.0526 -0.0498
 3823DDP     P122934  25.387  22.450   2.271 -0.0763  0.2648  0.4744
 3823DDP     P222935  25.809  21.878   2.297  0.2091  0.0825  0.0956
 3823DDP     C222936  26.110  21.721   2.600 -0.3104  0.1713 -0.0539
 3823DDP     C322937  25.120  22.554   2.617  0.0397 -0.1811 -0.4301
 3823DDP     C422938  25.798  22.525   1.729  0.1694 -0.1102 -0.2178
 3824DDP     C122939  18.046   5.505  17.905  0.1484  0.1799  0.0085
 3824DDP     P122940  17.860   5.714  17.592  0.1320  0.0044  0.1377
 3824DDP     P222941  17.975   5.089  17.919  0.2661  0.3841 -0.0467
 3824DDP     C222942  17.858   4.800  18.165  0.2094 -0.0568 -0.2694
 3824DDP     C322943  18.075   5.797  17.173  0.0970  0.0993  0.0563
 3824DDP     C422944  18.288   5.683  18.274  0.0008 -0.0651 -0.1545
 3825DDP     C122945   8.752  19.973   1.986 -0.0592 -0.1746  0.0911
 3825DDP     P122946   9.054  20.303   2.122  0.1285 -0.0824  0.2954
 3825DDP     P222947   8.289  20.131   2.014  0.2081 -0.0507 -0.0991
 3825DDP     C222948   8.090  20.572   1.861 -0.0907 -0.0999  0.0383
 3825DDP     C322949   9.339  20.325   2.469  0.1991 -0.1515 -0.0992
 3825DDP     C422950   8.904  19.557   2.041 -0.2505  0.0811  0.0346
 3826DDP     C122951  28.790  17.483  20.564 -0.0941 -0.2746 -0.2042
 3826DDP     P122952  28.979  17.296  20.258 -0.0876 -0.0189 -0.1383
 3826DDP     P222953  28.858  17.307  20.911 -0.0104  0.1099  0.2474
 3826DDP     C222954  29.247  17.125  21.023 -0.4504  0.0632 -0.1840
 3826DDP     C322955  29.383  17.202  20.399 -0.0493  0.0521  0.2080
 3826DDP     C422956  28.633  17.779  20.405  0.2303  0.0595 -0.0460
 3827DDP     C122957  21.881  20.420  23.361 -0.0833 -0.1354  0.1294
 3827DDP     P122958  21.842  20.193  23.700  0.0860 -0.1611 -0.0426
 3827DDP     P222959  21.699  20.844  23.368  0.1260 -0.2179 -0.0859
 3827DDP     C222960  21.289  20.858  23.288 -0.0991  0.0255  0.0575
 3827DDP     C322961  22.085  20.032  23.982  0.0632 -0.2622  0.2056
 3827DDP     C422962  22.243  20.327  23.145 -0.1229 -0.2298  0.0663
 3828DDP     C122963  22.708  23.441  15.664  0.1355  0.1321  0.0621
 3828DDP     P122964  23.108  23.223  15.511 -0.3359 -0.0929  0.0542
 3828DDP     P222965  22.418  23.609  16.021 -0.0790  0.2300 -0.2629
 3828DDP     C222966  22.500  23.664  16.435 -0.3142  0.0977 -0.1169
 3828DDP     C322967  23.380  23.023  15.738  0.2556  0.0791 -0.1636
 3828DDP     C422968  22.399  23.462  15.237  0.2660  0.1095 -0.1244
 3829DDP     C122969  28.136   3.903  27.080  0.3427 -0.0266 -0.0123
 3829DDP     P122970  28.397   3.547  26.952  0.0174 -0.1091 -0.1577
 3829DDP     P222971  27.705   3.708  27.379  0.2087 -0.1333 -0.1791
 3829DDP     C222972  27.377   3.523  27.314 -0.1246  0.1648  0.3885
 3829DDP     C322973  28.219   3.248  26.701 -0.0538  0.0781  0.1389
 3829DDP     C422974  28.059   4.305  26.896  0.1080 -0.0062 -0.0189
 3830DDP     C122975   2.824  30.145  28.380 -0.0657 -0.1248  0.0846
 3830DDP     P122976   2.955   0.226  28.452  0.1850  0.2168 -0.2346
 3830DDP     P222977   3.066  29.812  28.117  0.1609  0.2165  0.0323
 3830DDP     C222978   3.249  29.636  27.684 -0.0235  0.0328  0.0936
 3830DDP     C322979   3.354   0.415  28.655  0.5609  0.1170 -0.0724
 3830DDP     C422980   2.409  30.150  28.501 -0.0985  0.1071 -0.0199
 3831DDP     C122981  21.653  26.053  17.592 -0.0019 -0.1793 -0.0941
 3831DDP     P122982  21.991  25.852  17.868 -0.2334  0.1942 -0.2261
 3831DDP     P222983  21.418  25.743  17.723 -0.2107 -0.1739  0.1730
 3831DDP     C222984  21.026  25.570  17.717 -0.2022  0.3698  0.1758
 3831DDP     C322985  22.188  25.720  18.317  0.0840  0.1937 -0.0657
 3831DDP     C422986  21.632  26.238  17.232  0.2069 -0.1377 -0.0271
 3832DDP     C122987  22.293   9.173  25.539 -0.0755 -0.0013  0.0284
 3832DDP     P122988  22.577   8.936  25.896  0.0765 -0.1376  0.1331
 3832DDP     P222989  22.124   9.576  25.696 -0.3188  0.2572  0.0006
 3832DDP     C222990  21.737   9.554  25.635 -0.1190  0.1327  0.0054
 3832DDP     C322991  22.432   8.712  26.379 -0.0204 -0.0025 -0.1112
 3832DDP     C422992  22.203   9.241  25.081  0.1509  0.0501  0.0040
 3833DDP     C122993  16.873  22.644   8.166 -0.2085 -0.1028 -0.2163
 3833DDP     P122994  16.540  22.770   8.383 -0.1282 -0.1224  0.2204
 3833DDP     P222995  17.104  22.371   8.395  0.0613  0.2438 -0.3156
 3833DDP     C222996  17.021  21.860   8.419 -0.0768  0.0324 -0.1511
 3833DDP     C322997  16.256  23.054   8.571 -0.2107  0.1410 -0.5004
 3833DDP     C422998  17.112  22.826   7.838 -0.2492  0.2930 -0.0997
 3834DDP     C122999  26.161   8.951   9.943 -0.1393 -0.1737 -0.1319
 3834DDP     P123000  25.994   8.623   9.612 -0.0611 -0.1474  0.0267
 3834DDP     P223001  25.857   9.047  10.163 -0.0186 -0.1456  0.1684
 3834DDP     C223002  25.631   9.268  10.448  0.2489  0.0540 -0.2183
 3834DDP     C323003  26.091   8.348   9.533  0.1972  0.1350 -0.1063
 3834DDP     C423004  26.508   9.078   9.971 -0.2250  0.0007 -0.0309
 3835DDP     C123005   3.455   3.051   8.009 -0.3923  0.0040  0.0739
 3835DDP     P123006   3.383   3.288   8.335 -0.0010 -0.0357  0.0800
 3835DDP     P223007   3.534   2.657   8.036 -0.0335  0.2738  0.1604
 3835DDP     C223008   3.384   2.389   8.436 -0.1040 -0.0193  0.0130
 3835DDP     C323009   3.606   3.649   8.449  0.2564  0.1332  0.2936
 3835DDP     C423010   3.254   3.158   7.697  0.1805  0.1662  0.3345
 3836DDP     C123011  13.195   2.976  14.254 -0.1870 -0.3709 -0.0882
 3836DDP     P123012  13.600   2.832  14.087 -0.0269 -0.0824  0.0709
 3836DDP     P223013  12.970   2.807  14.557 -0.0854 -0.2871 -0.1379
 3836DDP     C223014  12.907   3.102  14.805 -0.1064 -0.1251 -0.2095
 3836DDP     C323015  13.643   2.502  14.067 -0.1320 -0.1207 -0.0539
 3836DDP     C423016  13.098   3.320  14.043 -0.1210 -0.2259  0.0764
 3837DDP     C123017  28.920   7.274  12.364  0.2869  0.2354 -0.0177
 3837DDP     P123018  29.181   6.891  12.249 -0.3170 -0.0349  0.1509
 3837DDP     P223019  29.068   7.492  12.684 -0.2760  0.1798 -0.5305
 3837DDP     C223020  29.202   7.898  12.744 -0.0394  0.0165  0.1276
 3837DDP     C323021  29.372   6.693  12.580  0.0421 -0.1095  0.3137
 3837DDP     C423022  28.513   7.418  12.347  0.0330  0.0585  0.0613
 3838DDP     C123023   6.556   7.966  12.188  0.0320 -0.1090  0.0994
 3838DDP     P123024   6.921   7.833  12.012 -0.2272 -0.0620 -0.1050
 3838DDP     P223025   6.475   8.445  12.248  0.1152  0.1807  0.1801
 3838DDP     C223026   6.139   8.719  12.185  0.0189  0.0467 -0.2434
 3838DDP     C323027   6.778   7.511  11.680  0.0497  0.1074  0.0792
 3838DDP     C423028   6.082   7.794  12.137 -0.1395 -0.0092 -0.2420
 3839DDP     C123029  27.397  11.323  30.227 -0.2170  0.0593  0.0552
 3839DDP     P123030  27.416  11.283  29.808  0.0305 -0.1690  0.0829
 3839DDP     P223031  27.219  10.952   0.031  0.0234  0.1093  0.0975
 3839DDP     C223032  27.326  10.474   0.089 -0.2385  0.1853 -0.0056
 3839DDP     C323033  27.350  11.496  29.418  0.0870  0.2809  0.0930
 3839DDP     C423034  27.615  11.564   0.136  0.2311  0.0435 -0.1006
 3840DDP     C123035  24.181  28.179  30.245  0.0548 -0.2631  0.0379
 3840DDP     P123036  24.160  27.898   0.360  0.0993  0.1787  0.0364
 3840DDP     P223037  24.202  28.011  29.819 -0.0812  0.5159  0.4525
 3840DDP     C223038  24.158  27.748  29.430 -0.0663 -0.0403 -0.0560
 3840DDP     C323039  24.482  27.653   0.505  0.2948  0.1893 -0.0312
 3840DDP     C423040  24.189  28.632   0.005 -0.1323  0.1084 -0.3993
 3841DDP     C123041  17.273   6.044  18.566  0.0529  0.0543 -0.0669
 3841DDP     P123042  17.026   6.336  18.335 -0.3664  0.1146 -0.3248
 3841DDP     P223043  17.344   5.574  18.425  0.0820 -0.1006  0.1790
 3841DDP     C223044  16.944   5.417  18.449 -0.3613  0.1556  0.3256
 3841DDP     C323045  16.596   6.590  18.193 -0.1740  0.1323 -0.0308
 3841DDP     C423046  17.514   6.277  18.848 -0.2322 -0.0874 -0.2333
 3842DDP     C123047  23.040  16.617  22.358  0.1586  0.1512 -0.0073
 3842DDP     P123048  23.467  16.761  22.591 -0.3999 -0.0829 -0.1917
 3842DDP     P223049  22.737  16.438  22.571 -0.0546 -0.2046  0.0389
 3842DDP     C223050  22.420  16.111  22.762  0.0363  0.0775  0.2158
 3842DDP     C323051  23.769  16.700  23.075  0.0151  0.0138  0.0061
 3842DDP     C423052  22.978  16.557  21.952  0.1526  0.1064  0.2670
 3843DDP     C123053  20.065  12.852  19.470 -0.0194 -0.0071 -0.2449
 3843DDP     P123054  20.296  13.201  19.234 -0.0629  0.2503 -0.3429
 3843DDP     P223055  20.124  12.413  19.309 -0.0261  0.3719 -0.4296
 3843DDP     C223056  20.215  12.252  18.921  0.5732 -0.0341 -0.1421
 3843DDP     C323057  20.293  13.707  19.055 -0.2041  0.0986 -0.1730
 3843DDP     C423058  19.647  12.939  19.696  0.0179 -0.2491 -0.3297
 3844DDP     C123059  19.913  26.786  13.951 -0.3317  0.0320  0.3310
 3844DDP     P123060  19.711  27.192  13.802 -0.4996  0.2535  0.0493
 3844DDP     P223061  20.246  26.561  13.736 -0.1777 -0.0735 -0.0322
 3844DDP     C223062  20.611  26.406  13.669 -0.1295  0.0777 -0.0400
 3844DDP     C323063  19.422  27.548  13.908  0.0259 -0.0277 -0.1585
 3844DDP     C423064  19.723  26.551  14.189  0.0731  0.0978  0.1259
 3845DDP     C123065  13.687   4.613  28.397 -0.1370 -0.0352 -0.2514
 3845DDP     P123066  13.726   5.049  28.080 -0.3223  0.0781  0.1069
 3845DDP     P223067  13.459   4.445  28.633 -0.1277  0.1799  0.0355
 3845DDP     C223068  13.525   4.128  28.908  0.4288  0.0790  0.3334
 3845DDP     C323069  13.479   5.341  27.972  0.3415 -0.2679 -0.0929
 3845DDP     C423070  14.115   4.406  28.462  0.1687 -0.2454  0.1674
 3846DDP     C123071  23.584  23.483  27.318  0.0108  0.0489 -0.0308
 3846DDP     P123072  23.378  23.265  27.581 -0.0010 -0.1734  0.0135
 3846DDP     P223073  23.994  23.607  27.217 -0.0198  0.0023 -0.0367
 3846DDP     C223074  24.386  23.380  27.071 -0.2285  0.2444  0.4394
 3846DDP     C323075  22.977  23.195  27.498  0.2393  0.2088 -0.0495
 3846DDP     C423076  23.436  23.598  26.910 -0.2000  0.0653  0.2003
 3847DDP     C123077  12.051   6.225  24.858 -0.0170  0.3527 -0.2067
 3847DDP     P123078  11.811   6.320  24.438 -0.1458 -0.0589 -0.0689
 3847DDP     P223079  12.246   6.512  25.012 -0.1303  0.1890  0.2983
 3847DDP     C223080  12.628   6.616  25.222  0.1290 -0.2184 -0.1525
 3847DDP     C323081  11.394   6.257  24.535  0.2329  0.0023 -0.0364
 3847DDP     C423082  11.976   6.064  25.297  0.0370 -0.2381  0.0630
 3848DDP     C123083  29.602   7.261   2.728  0.1609 -0.1181 -0.0201
 3848DDP     P123084  29.554   6.821   2.809  0.1601 -0.0459  0.2793
 3848DDP     P223085  29.514   7.602   2.961 -0.3390  0.0976 -0.0100
 3848DDP     C223086  29.604   8.067   3.037  0.1627  0.2903  0.1943
 3848DDP     C323087  29.467   6.464   2.557 -0.2247 -0.2154 -0.1954
 3848DDP     C423088  29.811   7.450   2.325  0.1865  0.3820 -0.2635
 3849DDP     C123089  19.089   2.094  16.465 -0.2549  0.1594 -0.1173
 3849DDP     P123090  19.118   1.960  16.983 -0.0581 -0.0144 -0.1415
 3849DDP     P223091  19.407   2.416  16.326  0.1566 -0.0070 -0.3092
 3849DDP     C223092  19.778   2.697  16.055  0.1671  0.0342 -0.0313
 3849DDP     C323093  19.072   2.106  17.437  0.0754 -0.2039 -0.1411
 3849DDP     C423094  18.941   1.865  16.078 -0.1958  0.1954 -0.0544
 3850DDP     C123095  25.123  18.627  11.962 -0.4491  0.2387  0.3143
 3850DDP     P123096  25.259  18.938  12.278  0.1965  0.2079 -0.1783
 3850DDP     P223097  24.714  18.413  11.917 -0.1597 -0.1413  0.3264
 3850DDP     C223098  24.337  18.309  11.908  0.5201 -0.1058  0.1065
 3850DDP     C323099  25.656  19.042  12.493 -0.0079 -0.0745 -0.3151
 3850DDP     C423100  25.451  18.550  11.690  0.0997 -0.4458 -0.1757
 3851DDP     C123101   7.185  15.041  21.878  0.0333 -0.1898  0.0791
 3851DDP     P123102   7.291  14.705  21.713  0.0999  0.1923  0.0525
 3851DDP     P223103   6.765  15.123  21.889 -0.2217 -0.0776 -0.0061
 3851DDP     C223104   6.518  15.181  21.513  0.1238 -0.0510  0.1584
 3851DDP     C323105   7.593  14.442  21.594 -0.1575 -0.3976  0.1760
 3851DDP     C423106   7.631  15.256  21.953 -0.1902 -0.2328  0.0967
 3852DDP     C123107  12.297  26.372   2.898  0.0941  0.0285  0.4247
 3852DDP     P123108  12.021  26.225   3.105  0.2631 -0.0816  0.1830
 3852DDP     P223109  12.152  26.172   2.593 -0.0747  0.0913 -0.4526
 3852DDP     C223110  11.768  26.029   2.494 -0.3039 -0.2591  0.0438
 3852DDP     C323111  11.573  26.079   3.258 -0.3562 -0.0356  0.0232
 3852DDP     C423112  12.749  26.442   2.994 -0.0588  0.2264  0.0097
 3853DDP     C123113  28.398  12.331  21.185 -0.2562 -0.1565 -0.0158
 3853DDP     P123114  28.846  12.223  21.395  0.1137  0.0175  0.0471
 3853DDP     P223115  28.311  12.753  20.935  0.0442 -0.2023 -0.1938
 3853DDP     C223116  28.093  13.171  20.893 -0.2420 -0.0002 -0.1322
 3853DDP     C323117  29.007  11.939  21.729 -0.1135 -0.2290 -0.3262
 3853DDP     C423118  28.174  12.012  21.318 -0.0248  0.2013 -0.0743
 3854DDP     C123119  24.559  13.662  18.775 -0.1455 -0.2449 -0.0221
 3854DDP     P123120  24.347  13.247  18.634  0.1729  0.0786 -0.0309
 3854DDP     P223121  24.921  13.850  18.821  0.0737 -0.0186  0.2511
 3854DDP     C223122  25.167  14.233  18.956 -0.0872 -0.1071 -0.1815
 3854DDP     C323123  24.167  12.889  18.393 -0.1389 -0.0544 -0.1211
 3854DDP     C423124  24.240  13.945  18.840  0.1672 -0.2886  0.1294
 3855DDP     C123125  21.781  28.972  12.408  0.1054  0.0088 -0.1268
 3855DDP     P123126  22.038  29.049  12.098  0.2316 -0.2097 -0.3492
 3855DDP     P223127  21.500  28.856  12.117  0.1573 -0.1016 -0.0878
 3855DDP     C223128  21.029  28.929  11.932  0.1139 -0.3049 -0.1192
 3855DDP     C323129  22.251  28.780  11.865  0.0872  0.0618 -0.0102
 3855DDP     C423130  21.966  28.598  12.645 -0.0353 -0.2021 -0.1739
 3856DDP     C123131   0.472  15.607  25.005  0.2074  0.0037 -0.1462
 3856DDP     P123132   0.200  15.291  24.815 -0.0872  0.1219 -0.1441
 3856DDP     P223133   0.410  15.447  25.387  0.0159 -0.1225  0.0641
 3856DDP     C223134   0.198  15.198  25.710 -0.1134  0.1456 -0.2680
 3856DDP     C323135   0.320  14.924  24.688 -0.2997 -0.3091  0.0072
 3856DDP     C423136   0.514  16.072  25.007  0.4016 -0.2073  0.1116
 3857DDP     C123137  15.007  17.091   1.331  0.2013  0.2502 -0.1604
 3857DDP     P123138  15.270  16.708   1.410  0.0555 -0.0869  0.0678
 3857DDP     P223139  15.014  17.459   1.678 -0.0574  0.4178 -0.2994
 3857DDP     C223140  14.761  17.737   1.992  0.0284 -0.2123 -0.1433
 3857DDP     C323141  15.513  16.469   1.637 -0.0334 -0.1447  0.0541
 3857DDP     C423142  14.734  17.011   1.012  0.3025 -0.1709  0.0505
 3858DDP     C123143   7.857  28.792   8.653 -0.2647 -0.1239 -0.0778
 3858DDP     P123144   8.343  28.761   8.596 -0.2249 -0.0392  0.2186
 3858DDP     P223145   7.645  28.822   8.304  0.2302  0.1695  0.1900
 3858DDP     C223146   7.599  28.734   7.945 -0.1096  0.1702  0.1101
 3858DDP     C323147   8.643  28.794   8.221 -0.0925  0.0443 -0.2564
 3858DDP     C423148   7.644  28.477   9.021  0.2048  0.0252 -0.3182
 3859DDP     C123149  25.373  14.040  20.277  0.2311  0.2962  0.0008
 3859DDP     P123150  25.294  14.009  20.730  0.0668 -0.1749 -0.0718
 3859DDP     P223151  25.032  14.307  20.066  0.1846 -0.0006  0.4188
 3859DDP     C223152  24.819  14.716  20.195  0.1317 -0.3379 -0.0889
 3859DDP     C323153  25.557  13.609  20.812 -0.0309 -0.0800  0.3960
 3859DDP     C423154  25.675  13.874  20.081 -0.2460 -0.0179  0.0559
 3860DDP     C123155  11.609   7.120   2.942 -0.2237 -0.0682  0.0651
 3860DDP     P123156  11.198   7.087   2.820  0.3658 -0.0791 -0.3173
 3860DDP     P223157  11.801   7.459   3.242 -0.0649 -0.0916 -0.1535
 3860DDP     C223158  12.083   7.494   3.608  0.1511 -0.3177 -0.3626
 3860DDP     C323159  10.952   7.355   2.729  0.2681 -0.1064  0.1227
 3860DDP     C423160  11.823   6.691   3.013  0.0689 -0.0810  0.1306
 3861DDP     C123161  20.755  21.719  16.526 -0.0327 -0.0668  0.2199
 3861DDP     P123162  20.769  21.284  16.704 -0.0015  0.1363  0.0199
 3861DDP     P223163  21.119  22.019  16.627 -0.0691 -0.1707 -0.1697
 3861DDP     C223164  21.348  22.288  16.878 -0.1394  0.0648  0.2630
 3861DDP     C323165  20.991  20.876  16.951 -0.3164 -0.0808  0.1768
 3861DDP     C423166  20.642  21.855  16.076  0.0282 -0.2221  0.1276
 3862DDP     C123167   7.620  17.042  27.472 -0.1350 -0.2691 -0.0393
 3862DDP     P123168   7.654  17.547  27.373  0.2524  0.0130 -0.0641
 3862DDP     P223169   7.804  16.708  27.649 -0.0684  0.1099  0.0575
 3862DDP     C223170   8.166  16.393  27.563  0.3171 -0.0089 -0.3057
 3862DDP     C323171   8.036  17.839  27.419 -0.1968 -0.2555  0.2618
 3862DDP     C423172   7.204  16.786  27.476 -0.2169 -0.1039  0.0660
 3863DDP     C123173  13.206  21.886  19.327 -0.0426  0.2309 -0.0487
 3863DDP     P123174  12.927  22.307  19.525 -0.0174  0.1347 -0.0450
 3863DDP     P223175  13.266  21.472  19.443  0.0515 -0.2121  0.0219
 3863DDP     C223176  13.470  21.051  19.353 -0.1574  0.5346 -0.0506
 3863DDP     C323177  12.834  22.730  19.772  0.0435 -0.1083  0.2349
 3863DDP     C423178  13.609  22.137  19.154 -0.0133 -0.0797 -0.0374
 3864DDP     C123179  25.956   9.917  18.033  0.2917  0.1133 -0.0108
 3864DDP     P123180  26.057   9.479  17.886  0.2026  0.2448 -0.1041
 3864DDP     P223181  26.216  10.007  17.894 -0.1926  0.2178  0.2215
 3864DDP     C223182  26.406   9.747  17.597 -0.0683 -0.2804 -0.0301
 3864DDP     C323183  25.981   8.929  17.889 -0.2461  0.1358  0.1773
 3864DDP     C423184  25.612  10.130  18.078  0.0292  0.0217 -0.1128
 3865DDP     C123185   9.570  22.784  25.236  0.0656 -0.0489 -0.0071
 3865DDP     P123186   9.407  22.864  24.847  0.1413 -0.1873  0.0186
 3865DDP     P223187   9.496  23.031  25.527  0.0380 -0.1110  0.2960
 3865DDP     C223188   9.189  23.340  25.579  0.2405 -0.0064 -0.0804
 3865DDP     C323189   9.053  22.870  24.461 -0.0288 -0.0043 -0.2379
 3865DDP     C423190   9.501  22.325  25.283 -0.3266 -0.2010  0.1546
 3866DDP     C123191  21.799   5.517  14.829  0.0060 -0.0635 -0.0454
 3866DDP     P123192  21.909   5.278  14.488  0.2056  0.0923  0.1313
 3866DDP     P223193  21.505   5.822  14.917  0.0346  0.4003 -0.1205
 3866DDP     C223194  21.225   6.152  15.258 -0.4549  0.0967 -0.0377
 3866DDP     C323195  21.987   5.253  14.034  0.1279 -0.2446 -0.2606
 3866DDP     C423196  22.023   5.448  15.073 -0.0106 -0.1032 -0.0626
 3867DDP     C123197   1.241   1.557  14.956  0.1924 -0.1091 -0.1403
 3867DDP     P123198   0.943   1.203  14.794 -0.2321  0.0377 -0.1461
 3867DDP     P223199   1.793   1.580  14.844  0.0872 -0.0192  0.0241
 3867DDP     C223200   1.955   1.898  14.561  0.2383  0.3963 -0.0810
 3867DDP     C323201   0.769   0.780  14.960  0.0466  0.1155 -0.2220
 3867DDP     C423202   1.070   1.839  15.290 -0.1642 -0.2251 -0.0527
 3868DDP     C123203  15.887   6.454   5.411  0.0483 -0.0494  0.0726
 3868DDP     P123204  15.634   6.371   5.850 -0.2207 -0.1365 -0.1772
 3868DDP     P223205  16.016   6.905   5.433  0.0825  0.3594  0.2632
 3868DDP     C223206  15.892   7.272   5.202 -0.1444 -0.0601  0.4037
 3868DDP     C323207  15.723   6.489   6.268 -0.2972  0.0490  0.0956
 3868DDP     C423208  16.187   6.121   5.192 -0.1039  0.0494 -0.2394
 3869DDP     C123209  13.174   7.403   2.184 -0.1847  0.1214  0.1553
 3869DDP     P123210  13.510   7.689   2.219 -0.2656  0.0351 -0.2645
 3869DDP     P223211  13.110   7.063   2.001  0.0704 -0.0166 -0.1878
 3869DDP     C223212  12.757   6.830   1.834 -0.2531 -0.3156  0.1216
 3869DDP     C323213  13.919   7.699   2.508 -0.0326 -0.0842 -0.3699
 3869DDP     C423214  12.838   7.718   2.245 -0.2425  0.0029 -0.2662
 3870DDP     C123215  27.304  23.445   9.966  0.5182  0.1319  0.0287
 3870DDP     P123216  27.372  23.648  10.408 -0.4787  0.2589 -0.1555
 3870DDP     P223217  27.727  23.304   9.809  0.1561  0.0121 -0.2807
 3870DDP     C223218  28.023  23.400   9.445 -0.0042 -0.0056 -0.0804
 3870DDP     C323219  27.203  23.551  10.723  0.2729  0.0277  0.1513
 3870DDP     C423220  26.941  23.724   9.788  0.4667  0.0775 -0.1361
 3871DDP     C123221  25.999  20.531  19.696 -0.0697 -0.1482 -0.0750
 3871DDP     P123222  25.606  20.527  19.867 -0.1007 -0.0032  0.2096
 3871DDP     P223223  26.341  20.317  19.931  0.0519  0.1398 -0.1446
 3871DDP     C223224  26.258  19.941  20.211 -0.0150  0.3048  0.2290
 3871DDP     C323225  25.285  20.467  20.109 -0.2148  0.4097 -0.4503
 3871DDP     C423226  26.073  20.571  19.270 -0.1193 -0.0376 -0.0077
 3872DDP     C123227   2.132  28.102   8.367  0.0881  0.1996 -0.1336
 3872DDP     P123228   2.141  28.460   8.544 -0.0311 -0.2056  0.1077
 3872DDP     P223229   2.419  28.068   7.984  0.0231  0.0644 -0.1247
 3872DDP     C223230   2.411  28.075   7.567  0.0012 -0.1108 -0.0244
 3872DDP     C323231   2.356  28.985   8.460  0.0289  0.5199 -0.0455
 3872DDP     C423232   2.167  27.655   8.353  0.0677 -0.1463  0.0331
 3873DDP     C123233  16.911   5.361   2.494  0.4183  0.0391  0.3384
 3873DDP     P123234  16.635   5.705   2.442  0.1760  0.1574 -0.0650
 3873DDP     P223235  16.568   5.101   2.513  0.2453  0.0647  0.2108
 3873DDP     C223236  16.685   4.672   2.243  0.3152  0.1681  0.0373
 3873DDP     C323237  16.305   5.985   2.497  0.3222  0.1767  0.3925
 3873DDP     C423238  17.283   5.278   2.756  0.2817 -0.1571  0.0067
 3874DDP     C123239   1.568  10.691  13.392 -0.2223  0.0175 -0.0611
 3874DDP     P123240   1.609  10.804  13.834  0.1116  0.0415 -0.1539
 3874DDP     P223241   1.524  11.015  13.103 -0.1645  0.0919 -0.0596
 3874DDP     C223242   1.252  11.381  13.025  0.1450  0.0083  0.1767
 3874DDP     C323243   1.921  10.649  14.053 -0.0206 -0.0585 -0.1248
 3874DDP     C423244   1.548  10.264  13.310 -0.4670 -0.3171 -0.1665
 3875DDP     C123245  17.774   4.731  23.391 -0.2123 -0.1378 -0.2644
 3875DDP     P123246  17.573   4.783  23.742 -0.1141  0.3317 -0.1362
 3875DDP     P223247  17.683   4.335  23.102  0.0889 -0.0617  0.1247
 3875DDP     C223248  17.908   4.203  22.671  0.0732 -0.0064  0.2266
 3875DDP     C323249  17.472   4.538  24.069 -0.6068 -0.2566  0.1775
 3875DDP     C423250  18.036   5.023  23.326  0.2659 -0.2414 -0.2275
 3876DDP     C123251   7.028   0.166  17.295  0.2877 -0.0112  0.0146
 3876DDP     P123252   7.100  30.205  16.983 -0.1891  0.1623 -0.2819
 3876DDP     P223253   6.593   0.445  17.215 -0.0669  0.2430 -0.0865
 3876DDP     C223254   6.259   0.718  16.954 -0.1846  0.1526  0.0912
 3876DDP     C323255   7.253   0.132  16.489 -0.3968  0.0427 -0.2800
 3876DDP     C423256   7.196  30.338  17.680  0.2033  0.1876 -0.1127
 3877DDP     C123257  12.192  23.911  19.614 -0.1044  0.0949 -0.2186
 3877DDP     P123258  12.612  23.957  19.528 -0.1504 -0.2078  0.0356
 3877DDP     P223259  11.935  23.876  19.249  0.0206 -0.0222  0.1598
 3877DDP     C223260  11.750  24.074  18.812 -0.1785  0.1863  0.0697
 3877DDP     C323261  13.061  23.904  19.416 -0.0918  0.0599  0.0193
 3877DDP     C423262  12.001  24.040  19.968 -0.1347  0.3091 -0.3217
 3878DDP     C123263  20.605   9.189   4.543 -0.0154  0.1165  0.0979
 3878DDP     P123264  20.493   9.456   4.291 -0.2212 -0.1522 -0.1434
 3878DDP     P223265  20.438   8.771   4.372  0.0692  0.0685 -0.1639
 3878DDP     C223266  20.355   8.495   4.038  0.0431  0.0985  0.0091
 3878DDP     C323267  20.356   9.543   3.852 -0.1696 -0.3669  0.4849
 3878DDP     C423268  20.924   9.259   4.831 -0.0998  0.2349  0.3984
 3879DDP     C123269   7.082   1.663  23.990  0.1554  0.1573 -0.0291
 3879DDP     P123270   7.338   1.312  23.897  0.2262  0.1295  0.2958
 3879DDP     P223271   7.099   1.763  24.500  0.1674 -0.1767  0.0152
 3879DDP     C223272   6.912   1.590  24.901  0.0890  0.0692  0.0661
 3879DDP     C323273   7.612   1.044  23.868  0.1935  0.2009  0.4118
 3879DDP     C423274   6.788   1.830  23.692  0.0692 -0.1592 -0.0238
 3880DDP     C123275  23.440  10.842  29.682 -0.1022 -0.3644 -0.0548
 3880DDP     P123276  23.300  11.255  29.431  0.0041  0.2281  0.0755
 3880DDP     P223277  23.289  10.443  29.880  0.1527  0.1676  0.0983
 3880DDP     C223278  23.262  10.017  29.707 -0.1634  0.1834  0.0184
 3880DDP     C323279  22.776  11.355  29.273 -0.2219 -0.2650  0.0509
 3880DDP     C423280  23.871  10.959  29.606 -0.1502 -0.0120 -0.1732
 3881DDP     C123281  24.779   5.402   0.518 -0.4003  0.0621 -0.0195
 3881DDP     P123282  24.588   4.959   0.379 -0.2095 -0.0773  0.1392
 3881DDP     P223283  24.499   5.649   0.646 -0.0143  0.4780  0.0540
 3881DDP     C223284  24.092   5.810   0.731 -0.1101 -0.2677  0.0078
 3881DDP     C323285  24.544   4.953  30.167 -0.1024  0.0109  0.2044
 3881DDP     C423286  25.279   5.375   0.594  0.0656  0.2050  0.3434
 3882DDP     C123287  15.405   1.429  15.671 -0.1195 -0.0957 -0.1126
 3882DDP     P123288  14.978   1.456  15.612  0.3492 -0.0297  0.0580
 3882DDP     P223289  15.597   1.378  15.252  0.0401 -0.1329 -0.0800
 3882DDP     C223290  15.627   1.668  14.879  0.0937  0.0532  0.1324
 3882DDP     C323291  14.578   1.494  15.373 -0.0730 -0.0333 -0.0280
 3882DDP     C423292  15.439   1.844  16.011 -0.0750 -0.0451 -0.0953
 3883DDP     C123293  25.748   2.839  23.722  0.0297 -0.0665 -0.1418
 3883DDP     P123294  25.886   3.170  24.097 -0.1417 -0.1662 -0.0912
 3883DDP     P223295  25.582   2.360  23.811  0.1725 -0.0555  0.0442
 3883DDP     C223296  25.239   1.956  23.919 -0.0138  0.0109  0.1294
 3883DDP     C323297  25.842   3.603  24.143 -0.0238 -0.2625  0.0776
 3883DDP     C423298  25.850   2.996  23.311  0.0511  0.2425 -0.1576
 3884DDP     C123299  28.257  11.168  11.504 -0.0694  0.4813 -0.0154
 3884DDP     P123300  28.493  11.518  11.376  0.0166 -0.0625 -0.2056
 3884DDP     P223301  28.298  10.884  11.852 -0.0065 -0.0067  0.2249
 3884DDP     C223302  28.285  10.458  11.748  0.2554  0.1319  0.1820
 3884DDP     C323303  28.607  11.890  11.545 -0.0697 -0.2198  0.3919
 3884DDP     C423304  28.055  10.820  11.228 -0.1058 -0.1216  0.2327
 3885DDP     C123305  17.179  17.862  11.300  0.0206  0.2751 -0.2567
 3885DDP     P123306  17.062  18.268  11.469 -0.2541  0.2766  0.0484
 3885DDP     P223307  17.172  17.531  11.560  0.0432 -0.0271  0.2547
 3885DDP     C223308  17.596  17.388  11.808 -0.3505 -0.0191 -0.1163
 3885DDP     C323309  16.802  18.532  11.581 -0.0906 -0.2240 -0.2421
 3885DDP     C423310  17.313  17.728  11.028  0.1324 -0.0961 -0.2866
 3886DDP     C123311  28.347   3.906  15.429 -0.0516  0.0662  0.1253
 3886DDP     P123312  28.002   3.948  15.206 -0.1492 -0.1105  0.2115
 3886DDP     P223313  28.642   4.086  15.685 -0.2278  0.2430  0.1674
 3886DDP     C223314  28.998   4.218  15.872  0.1903  0.0815 -0.1164
 3886DDP     C323315  27.756   4.000  14.805 -0.1980 -0.1940  0.0023
 3886DDP     C423316  28.380   3.517  15.478 -0.0041 -0.3293 -0.0993
 3887DDP     C123317  15.279  28.549   8.392 -0.0288 -0.0705 -0.1060
 3887DDP     P123318  15.290  28.556   8.835 -0.1995  0.3751 -0.0132
 3887DDP     P223319  15.523  28.911   8.280 -0.0880 -0.2209 -0.1161
 3887DDP     C223320  15.611  29.376   8.434  0.1926  0.2804  0.0008
 3887DDP     C323321  15.451  28.797   9.221  0.0064 -0.0735 -0.0983
 3887DDP     C423322  15.007  28.354   8.000  0.1888 -0.2732 -0.2669
 3888DDP     C123323  13.418   9.508  14.812 -0.1369  0.2967  0.0522
 3888DDP     P123324  13.210   9.586  15.145 -0.0250 -0.0021  0.0770
 3888DDP     P223325  13.708   9.123  14.774  0.0762  0.0216  0.1246
 3888DDP     C223326  14.002   8.955  15.081 -0.0168  0.1183 -0.0057
 3888DDP     C323327  12.939   9.793  15.468 -0.2615 -0.0376 -0.2250
 3888DDP     C423328  13.524   9.879  14.545 -0.1539  0.3155 -0.1129
 3889DDP     C123329  22.189   9.596  10.717 -0.1927  0.0541  0.0141
 3889DDP     P123330  22.488   9.647  10.354  0.4226 -0.2156 -0.3570
 3889DDP     P223331  22.476   9.285  10.861  0.1855  0.0221  0.0866
 3889DDP     C223332  22.657   9.032  11.128 -0.2918  0.0913  0.3991
 3889DDP     C323333  22.503   9.901  10.027  0.0828  0.0050 -0.1516
 3889DDP     C423334  21.757   9.781  11.089  0.2781  0.1548 -0.1307
 3890DDP     C123335  25.459   7.527  28.214  0.1680  0.5827 -0.3352
 3890DDP     P123336  25.437   7.881  27.934  0.0267 -0.2352 -0.3048
 3890DDP     P223337  25.828   7.179  28.224  0.0028 -0.0997 -0.0251
 3890DDP     C223338  26.069   7.117  27.982 -0.1724  0.2161  0.1899
 3890DDP     C323339  25.634   8.227  27.717 -0.2097  0.0583  0.1749
 3890DDP     C423340  25.166   7.398  28.460  0.0949  0.0652 -0.1890
 3891DDP     C123341  13.448  15.954  13.548 -0.0693 -0.1985 -0.0753
 3891DDP     P123342  13.539  16.048  13.080 -0.0792 -0.2241 -0.1564
 3891DDP     P223343  13.196  16.292  13.732 -0.1774  0.3174  0.1045
 3891DDP     C223344  13.222  16.736  13.659 -0.0458 -0.0350 -0.0208
 3891DDP     C323345  13.728  16.405  12.819 -0.2378  0.1912  0.0581
 3891DDP     C423346  13.703  15.636  13.741  0.1075  0.0831 -0.0706
 3892DDP     C123347  26.975  13.103  12.704 -0.1667  0.1641 -0.2136
 3892DDP     P123348  26.631  12.851  12.644  0.1501 -0.0480 -0.0111
 3892DDP     P223349  26.966  13.442  13.030 -0.1931 -0.1091  0.4880
 3892DDP     C223350  27.054  13.864  13.061  0.0717  0.0890  0.2179
 3892DDP     C323351  26.294  12.666  12.365  0.1776 -0.0392 -0.0640
 3892DDP     C423352  27.322  13.107  12.460 -0.1189  0.0215  0.0790
 3893DDP     C123353  17.979  20.140  26.204  0.0697  0.0380 -0.3021
 3893DDP     P123354  18.389  20.228  26.132 -0.1367  0.0561 -0.0744
 3893DDP     P223355  17.932  20.370  26.466  0.1847  0.0708 -0.0349
 3893DDP     C223356  17.578  20.503  26.790  0.2581 -0.4245 -0.0049
 3893DDP     C323357  18.755  20.017  25.887 -0.1466  0.0883  0.1533
 3893DDP     C423358  17.657  20.060  25.921  0.0344 -0.0430  0.3166
 3894DDP     C123359  16.176   8.472  10.044 -0.2084 -0.0360 -0.0710
 3894DDP     P123360  16.399   8.586  10.408  0.2104 -0.0344 -0.0909
 3894DDP     P223361  16.079   8.143  10.106 -0.0311 -0.0587  0.2176
 3894DDP     C223362  16.186   7.831  10.266  0.2119  0.2460  0.4171
 3894DDP     C323363  16.716   8.938  10.499 -0.3228 -0.2272 -0.1647
 3894DDP     C423364  16.200   8.634   9.627 -0.1445 -0.0329  0.1821
 3895DDP     C123365  16.694   6.328  18.741 -0.0972 -0.0646 -0.0230
 3895DDP     P123366  16.444   6.177  18.422 -0.0176  0.1109  0.1436
 3895DDP     P223367  16.646   6.155  19.196 -0.2592 -0.0708 -0.2756
 3895DDP     C223368  16.856   6.406  19.441 -0.2020 -0.2493 -0.1024
 3895DDP     C323369  16.068   6.025  18.207 -0.3066 -0.1577  0.1931
 3895DDP     C423370  16.726   6.726  18.628 -0.1721 -0.1937 -0.0358
 3896DDP     C123371  23.387   1.164  13.403 -0.0822  0.2465 -0.0026
 3896DDP     P123372  23.663   0.820  13.335  0.1176 -0.2424 -0.0608
 3896DDP     P223373  23.487   1.579  13.390 -0.0177 -0.0327 -0.1686
 3896DDP     C223374  23.502   1.961  13.198  0.3683 -0.0425  0.3171
 3896DDP     C323375  23.594   0.381  13.514 -0.4836 -0.0133  0.0470
 3896DDP     C423376  23.115   1.074  13.670  0.0946  0.1840 -0.1844
 3897DDP     C123377  16.635   5.374  18.810  0.0296 -0.3063  0.2550
 3897DDP     P123378  17.012   5.112  18.823 -0.0420 -0.0646 -0.3143
 3897DDP     P223379  16.612   5.661  19.189  0.2561  0.0865 -0.1493
 3897DDP     C223380  16.285   5.836  19.397  0.0381  0.0828 -0.2921
 3897DDP     C323381  17.289   4.796  18.892  0.1126 -0.1782 -0.2106
 3897DDP     C423382  16.413   5.602  18.512  0.2292 -0.1311  0.0245
 3898DDP     C123383  25.557  25.786  10.352  0.3607  0.2673  0.0075
 3898DDP     P123384  26.025  25.603  10.498  0.2642  0.4661 -0.1005
 3898DDP     P223385  25.382  25.812   9.923 -0.5024 -0.0344  0.0779
 3898DDP     C223386  25.072  25.561   9.737 -0.2121 -0.2667 -0.1482
 3898DDP     C323387  26.272  25.921  10.670 -0.0125  0.2627 -0.0769
 3898DDP     C423388  25.222  25.734  10.692 -0.2874 -0.0373  0.2157
 3899DDP     C123389  26.888   5.652  20.043 -0.1751 -0.0591 -0.2462
 3899DDP     P123390  26.870   5.641  20.546 -0.2996 -0.1238  0.1435
 3899DDP     P223391  26.947   5.988  19.968  0.0644  0.1645  0.2211
 3899DDP     C223392  27.051   6.298  20.297  0.0034  0.1642 -0.0935
 3899DDP     C323393  27.090   5.769  20.829  0.1786 -0.0503  0.0737
 3899DDP     C423394  26.928   5.377  19.867 -0.2770  0.0023  0.2560
 3900DDP     C123395   2.641  14.601   5.938  0.0467 -0.1292  0.0480
 3900DDP     P123396   2.782  14.584   5.536  0.0142 -0.0915 -0.0131
 3900DDP     P223397   2.387  14.303   6.153 -0.1930 -0.1356 -0.0122
 3900DDP     C223398   2.022  13.989   6.347 -0.2902  0.0871  0.2657
 3900DDP     C323399   2.925  14.871   5.442 -0.1731 -0.1091  0.2105
 3900DDP     C423400   2.951  14.781   6.188 -0.1765 -0.2345  0.0474
 3901DDP     C123401  16.231  25.277  30.186  0.1254  0.0147  0.2440
 3901DDP     P123402  16.041  25.714  30.129 -0.1349 -0.0204  0.2129
 3901DDP     P223403  16.214  25.030   0.176 -0.0302 -0.3132  0.1133
 3901DDP     C223404  16.011  24.955   0.671  0.1176 -0.2994  0.0280
 3901DDP     C323405  15.892  25.990   0.133 -0.1760 -0.0220  0.0041
 3901DDP     C423406  16.394  25.053  29.824 -0.4165 -0.0362  0.0147
 3902DDP     C123407  22.254  26.942  26.765  0.1955 -0.1165 -0.2279
 3902DDP     P123408  22.144  27.427  26.885 -0.0390  0.1784 -0.0363
 3902DDP     P223409  22.249  26.644  26.360  0.0371  0.1986  0.1891
 3902DDP     C223410  21.928  26.468  26.238 -0.5505 -0.0914  0.0348
 3902DDP     C323411  22.011  27.856  27.017  0.0359 -0.1855  0.2296
 3902DDP     C423412  22.467  26.739  27.062 -0.2274  0.1419  0.0999
 3903DDP     C123413  13.428  13.051  17.124 -0.0482 -0.3561  0.0313
 3903DDP     P123414  13.474  13.218  16.777  0.1013 -0.2714 -0.0263
 3903DDP     P223415  13.455  13.252  17.479 -0.1923 -0.1415  0.4308
 3903DDP     C223416  13.624  13.635  17.697 -0.0052  0.2739  0.3309
 3903DDP     C323417  13.102  13.404  16.632 -0.2303  0.1389 -0.0854
 3903DDP     C423418  13.168  12.610  17.269 -0.2747 -0.1234  0.1107
 3904DDP     C123419  24.250  29.463  11.196 -0.2076 -0.2024 -0.1501
 3904DDP     P123420  24.714  29.597  11.293  0.1984  0.2225  0.2370
 3904DDP     P223421  24.192  29.079  10.970  0.2351 -0.0898  0.2443
 3904DDP     C223422  24.018  28.615  10.974 -0.0438 -0.0505  0.2232
 3904DDP     C323423  24.834  29.922  10.990  0.0804 -0.1778 -0.0584
 3904DDP     C423424  23.986  29.805  11.355 -0.0772 -0.2490  0.1695
 3905DDP     C123425  13.355  19.441  11.156 -0.1252 -0.7402 -0.0363
 3905DDP     P123426  13.277  19.089  11.513  0.0794  0.1054 -0.0131
 3905DDP     P223427  13.605  19.751  11.271  0.0551  0.1771 -0.0494
 3905DDP     C223428  13.613  20.001  11.694  0.2115 -0.2209 -0.1209
 3905DDP     C323429  13.165  18.811  11.835 -0.0155 -0.1549 -0.2789
 3905DDP     C423430  13.360  19.395  10.799  0.2550  0.2754  0.2027
 3906DDP     C123431   9.205  18.466   4.975 -0.0938 -0.1039 -0.0290
 3906DDP     P123432   9.286  18.254   5.344  0.1443 -0.0304 -0.4561
 3906DDP     P223433   9.043  18.808   4.946 -0.1059 -0.0725  0.0101
 3906DDP     C223434   8.746  18.941   4.940 -0.0099 -0.1565  0.1824
 3906DDP     C323435   9.132  18.001   5.630 -0.0583 -0.1405  0.2212
 3906DDP     C423436   9.132  18.257   4.580 -0.2012  0.2326  0.0000
 3907DDP     C123437  10.208  15.373   9.585 -0.0983  0.2330  0.1396
 3907DDP     P123438  10.213  15.074   9.972 -0.2696 -0.2734 -0.1618
 3907DDP     P223439  10.573  15.818   9.495 -0.0408  0.0315  0.1023
 3907DDP     C223440  10.951  16.076   9.556  0.0819  0.0752  0.0653
 3907DDP     C323441  10.019  14.871  10.233 -0.0730 -0.1972 -0.1287
 3907DDP     C423442   9.973  15.304   9.245 -0.0140 -0.2031 -0.4272
 3908DDP     C123443  26.858   3.220  25.255 -0.2300  0.0432  0.3844
 3908DDP     P123444  26.620   3.584  25.517 -0.2164 -0.1179  0.2348
 3908DDP     P223445  27.342   3.125  25.291 -0.1296  0.2375 -0.0993
 3908DDP     C223446  27.719   3.047  25.569 -0.0189  0.2068 -0.0013
 3908DDP     C323447  26.612   3.960  25.434 -0.1922 -0.0067  0.1664
 3908DDP     C423448  26.592   2.849  24.993 -0.0657 -0.0575 -0.2444
 3909DDP     C123449  25.944  22.623  22.226  0.0149 -0.2590 -0.2365
 3909DDP     P123450  25.805  22.172  22.258  0.0324  0.2421 -0.3248
 3909DDP     P223451  25.745  22.950  22.519  0.2041  0.0764  0.1883
 3909DDP     C223452  25.939  23.291  22.755  0.1022  0.3733  0.0680
 3909DDP     C323453  25.787  21.830  22.545 -0.1690  0.1875 -0.2244
 3909DDP     C423454  26.197  22.919  21.848  0.2617 -0.2669  0.3105
 3910DDP     C123455   2.007   0.214  13.592  0.1199  0.4390 -0.0579
 3910DDP     P123456   1.966  30.203  13.307  0.2250 -0.0623  0.0953
 3910DDP     P223457   1.729   0.259  13.910  0.1894  0.2971 -0.0039
 3910DDP     C223458   1.384   0.495  14.008  0.2705  0.1634  0.2105
 3910DDP     C323459   1.795  30.098  12.914 -0.1256  0.3147 -0.1885
 3910DDP     C423460   2.078   0.662  13.635 -0.0640  0.2194 -0.3254
 3911DDP     C123461  21.430  21.615   8.468 -0.1588  0.2756  0.1725
 3911DDP     P123462  21.570  21.914   8.767 -0.2406  0.0504 -0.2183
 3911DDP     P223463  21.118  21.347   8.355  0.1441 -0.0936 -0.0105
 3911DDP     C223464  20.726  21.410   8.418  0.0738  0.4085  0.0942
 3911DDP     C323465  21.535  22.152   9.125  0.1949 -0.3791  0.2012
 3911DDP     C423466  21.686  21.698   8.099  0.0377 -0.1720  0.2938
 3912DDP     C123467   2.905   0.500  14.595  0.1247 -0.1563 -0.0288
 3912DDP     P123468   2.595   0.683  14.263 -0.1237 -0.1035  0.3472
 3912DDP     P223469   3.238   0.618  14.640  0.0840 -0.2731 -0.1572
 3912DDP     C223470   3.557   0.597  14.950 -0.0863 -0.2347  0.3295
 3912DDP     C323471   2.515   1.184  14.271 -0.0144  0.1432  0.0682
 3912DDP     C423472   2.758   0.241  14.916 -0.2982 -0.0614  0.1912
 3913DDP     C123473  19.740  10.077  28.186  0.0594  0.5785  0.1235
 3913DDP     P123474  20.209  10.161  28.104 -0.1995 -0.0215  0.1567
 3913DDP     P223475  19.534  10.396  28.489  0.1198  0.1698  0.2024
 3913DDP     C223476  19.472  10.682  28.996 -0.5337  0.3131 -0.1830
 3913DDP     C323477  20.338  10.453  28.376 -0.0427 -0.2964 -0.0031
 3913DDP     C423478  19.502   9.703  28.084 -0.0691 -0.2029 -0.1236
 3914DDP     C123479   6.021  20.769  11.966 -0.0713 -0.0486 -0.2297
 3914DDP     P123480   6.167  21.220  12.107 -0.1187  0.4121  0.0074
 3914DDP     P223481   6.049  20.495  12.393  0.0705 -0.0706 -0.1461
 3914DDP     C223482   6.115  20.068  12.725 -0.4408  0.1420  0.1515
 3914DDP     C323483   6.200  21.647  12.004 -0.1478 -0.5428  0.1806
 3914DDP     C423484   6.343  20.642  11.594  0.1629 -0.2003 -0.0408
 3915DDP     C123485   0.393   8.292  23.390  0.1295 -0.1118 -0.2250
 3915DDP     P123486   0.844   8.160  23.414 -0.1709 -0.1202  0.3662
 3915DDP     P223487   0.409   8.642  23.138  0.2971 -0.2695  0.0914
 3915DDP     C223488   0.316   8.960  22.810  0.3537  0.3009  0.0299
 3915DDP     C323489   1.293   7.938  23.602 -0.6012  0.1921  0.0618
 3915DDP     C423490   0.148   8.031  23.410 -0.0807 -0.0020 -0.0959
 3916DDP     C123491  11.976   4.180  27.104 -0.2587 -0.1897  0.2116
 3916DDP     P123492  12.271   4.188  26.940 -0.1356 -0.1022  0.1242
 3916DDP     P223493  11.564   4.471  26.862  0.1375  0.0483  0.3512
 3916DDP     C223494  11.426   4.824  26.561  0.3370 -0.2195  0.4541
 3916DDP     C323495  12.357   3.975  26.596  0.1249  0.2036  0.0532
 3916DDP     C423496  11.856   3.983  27.495 -0.0712  0.1620  0.0556
 3917DDP     C123497   0.266  27.120   8.462  0.1182  0.1134 -0.0349
 3917DDP     P123498   0.140  26.972   8.046 -0.0733  0.3322  0.1772
 3917DDP     P223499   0.064  26.790   8.762 -0.0011 -0.0124  0.3511
 3917DDP     C223500  29.958  26.598   8.809  0.1204 -0.0359  0.0480
 3917DDP     C323501   0.122  26.686   7.767  0.3207 -0.0106  0.0022
 3917DDP     C423502   0.339  27.532   8.634  0.1802  0.0202  0.0690
 3918DDP     C123503  22.361  15.450  24.017 -0.1083 -0.0462 -0.3044
 3918DDP     P123504  22.272  15.784  23.828 -0.0166  0.0397 -0.0866
 3918DDP     P223505  22.842  15.438  24.254 -0.2242  0.0911  0.1410
 3918DDP     C223506  23.189  15.740  24.284 -0.2007 -0.0555 -0.2069
 3918DDP     C323507  21.929  16.173  23.986 -0.1022  0.0001  0.2755
 3918DDP     C423508  22.201  15.143  23.611 -0.2446 -0.3862 -0.1660
 3919DDP     C123509   0.982   4.430  22.394 -0.1108 -0.2251 -0.2021
 3919DDP     P123510   0.695   4.183  22.516 -0.2026 -0.1508  0.0924
 3919DDP     P223511   0.876   4.659  22.014 -0.1772 -0.1413 -0.2270
 3919DDP     C223512   0.606   4.655  21.653 -0.0401 -0.0757 -0.0088
 3919DDP     C323513   0.546   3.827  22.596 -0.0042 -0.0324 -0.0499
 3919DDP     C423514   1.322   4.313  22.665  0.0229  0.2276  0.1077
 3920DDP     C123515   3.981  10.498   0.051 -0.1250  0.1874 -0.3466
 3920DDP     P123516   3.530  10.546  30.129 -0.5954 -0.0326 -0.2122
 3920DDP     P223517   4.416  10.724   0.040  0.1992 -0.1765 -0.1054
 3920DDP     C223518   4.731  10.715  30.092 -0.1787  0.0985 -0.1477
 3920DDP     C323519   3.177  10.762  30.142 -0.1573 -0.0327  0.1019
 3920DDP     C423520   3.894  10.145   0.340 -0.3048 -0.0838  0.0148
 3921DDP     C123521   0.630  24.370  10.770  0.1232 -0.0532  0.0712
 3921DDP     P123522   0.751  24.100  11.034 -0.3000 -0.0248 -0.0372
 3921DDP     P223523   0.233  24.242  10.687  0.0417 -0.1526  0.0422
 3921DDP     C223524  30.296  23.932  10.578 -0.1115 -0.3626  0.0708
 3921DDP     C323525   0.739  23.954  11.421  0.0767 -0.5353 -0.0458
 3921DDP     C423526   0.915  24.650  10.592 -0.2037 -0.3220 -0.1205
 3922DDP     C123527  25.341  11.173   8.893 -0.1498 -0.0434  0.1382
 3922DDP     P123528  24.987  11.512   8.986  0.0691 -0.3262 -0.0025
 3922DDP     P223529  25.265  10.775   8.699 -0.4814  0.2308 -0.0571
 3922DDP     C223530  25.379  10.299   8.457 -0.5694 -0.2265 -0.1011
 3922DDP     C323531  25.098  11.927   9.222  0.1596 -0.0589  0.3035
 3922DDP     C423532  25.747  11.148   8.967  0.2544 -0.1909 -0.3910
 3923DDP     C123533   9.207  17.091  24.877 -0.3361  0.0434 -0.1137
 3923DDP     P123534   9.070  17.171  25.359  0.0445 -0.0373  0.0029
 3923DDP     P223535   9.124  17.504  24.671 -0.1320 -0.2177 -0.2487
 3923DDP     C223536   9.427  17.568  24.351 -0.1261  0.1289  0.2143
 3923DDP     C323537   8.683  17.405  25.639  0.4691 -0.0704 -0.0062
 3923DDP     C423538   9.270  16.680  24.613 -0.3953 -0.0698 -0.0807
 3924DDP     C123539   7.401  20.251   7.218  0.4543  0.0024 -0.3661
 3924DDP     P123540   7.199  20.158   6.923 -0.2986  0.0903 -0.0100
 3924DDP     P223541   7.353  20.084   7.629  0.2990 -0.1286  0.1899
 3924DDP     C223542   7.022  19.855   7.855 -0.3339 -0.2008  0.0820
 3924DDP     C323543   7.211  20.272   6.530 -0.4268  0.2535 -0.0338
 3924DDP     C423544   7.756  20.435   7.240 -0.1314  0.0183 -0.0810
 3925DDP     C123545  27.330  25.261  14.268  0.0042  0.0871  0.0896
 3925DDP     P123546  27.609  25.394  14.669 -0.2776 -0.0144  0.0848
 3925DDP     P223547  27.596  25.254  13.899  0.1326 -0.0468  0.1632
 3925DDP     C223548  27.997  25.382  13.631 -0.3673  0.0752 -0.0682
 3925DDP     C323549  27.901  25.711  14.648  0.2807 -0.0210 -0.3520
 3925DDP     C423550  26.884  25.217  14.218 -0.1872  0.1983  0.1293
 3926DDP     C123551  15.295   6.039   9.693  0.3219 -0.3771 -0.1579
 3926DDP     P123552  15.106   6.450   9.453 -0.2601  0.3125  0.2275
 3926DDP     P223553  15.585   6.203  10.001  0.0389  0.3030 -0.0674
 3926DDP     C223554  15.560   6.440  10.480  0.1755  0.0664  0.3664
 3926DDP     C323555  14.698   6.621   9.311  0.0302  0.0930  0.0215
 3926DDP     C423556  14.956   5.788   9.775  0.2306  0.1253  0.0169
 3927DDP     C123557  29.685   6.143  11.833  0.1630  0.1228  0.0529
 3927DDP     P123558  29.912   5.882  11.532 -0.0283 -0.3325  0.4365
 3927DDP     P223559  29.611   6.564  11.813  0.2592 -0.0208  0.0091
 3927DDP     C223560  29.540   6.842  11.477 -0.2337  0.0611 -0.0614
 3927DDP     C323561  29.960   5.577  11.287 -0.1437 -0.2352 -0.2563
 3927DDP     C423562  29.573   5.948  12.182 -0.0752  0.1938  0.2017
 3928DDP     C123563  21.114   7.568  17.604 -0.0194 -0.0953 -0.2529
 3928DDP     P123564  20.969   7.194  17.241 -0.1237  0.0022  0.0787
 3928DDP     P223565  21.455   7.935  17.561  0.1139  0.1250 -0.2184
 3928DDP     C223566  21.576   8.389  17.627  0.2291  0.0320 -0.1363
 3928DDP     C323567  21.159   6.889  17.107  0.0211 -0.0862  0.1060
 3928DDP     C423568  20.684   7.658  17.967  0.0812 -0.0149  0.0744
 3929DDP     C123569  15.468   9.241  29.881 -0.0050  0.2772 -0.0480
 3929DDP     P123570  15.231   9.279  30.274 -0.0892  0.0134  0.3709
 3929DDP     P223571  15.542   8.834  29.568 -0.0708 -0.0938  0.1300
 3929DDP     C223572  15.568   8.413  29.431  0.3345  0.0085 -0.1664
 3929DDP     C323573  14.838   9.244   0.013 -0.0336  0.0239  0.2298
 3929DDP     C423574  15.752   9.658  29.661 -0.1801  0.2527 -0.1846
 3930DDP     C123575  24.600   5.546  30.104 -0.1665 -0.3855  0.0010
 3930DDP     P123576  24.572   6.044  30.099 -0.1438  0.0483  0.1357
 3930DDP     P223577  24.999   5.342  29.885  0.1161  0.1483  0.0020
 3930DDP     C223578  24.994   4.965  29.534 -0.2332  0.2393  0.0191
 3930DDP     C323579  24.207   6.312  30.062  0.0026  0.2648 -0.1667
 3930DDP     C423580  24.494   5.444   0.127  0.1730  0.1642  0.0780
 3931DDP     C123581  13.129   3.563   4.272  0.1179  0.2077 -0.1040
 3931DDP     P123582  12.828   3.698   4.108  0.0530 -0.1573  0.0080
 3931DDP     P223583  13.147   3.285   4.529 -0.1623  0.3061  0.0153
 3931DDP     C223584  13.022   3.140   5.015 -0.1636 -0.2380 -0.4183
 3931DDP     C323585  12.467   3.869   4.122  0.3796  0.0759  0.2157
 3931DDP     C423586  13.439   3.801   4.052  0.0210  0.1092 -0.1099
 3932DDP     C123587   7.709  22.224  23.756 -0.0836 -0.0539 -0.1477
 3932DDP     P123588   7.870  22.639  23.922  0.3712  0.0307  0.1497
 3932DDP     P223589   7.986  21.875  23.655  0.1008 -0.0987 -0.1247
 3932DDP     C223590   8.259  21.579  23.801 -0.0402 -0.1349  0.0048
 3932DDP     C323591   7.846  22.850  24.355 -0.5214  0.1090  0.0930
 3932DDP     C423592   7.333  22.236  23.605 -0.0774  0.0550 -0.0507
 3933DDP     C123593  12.836   8.048   6.250  0.3383  0.0638 -0.0515
 3933DDP     P123594  12.516   8.251   6.471  0.1264  0.1543 -0.2595
 3933DDP     P223595  12.552   7.781   6.126  0.0509  0.2676 -0.0856
 3933DDP     C223596  12.596   7.396   5.921  0.1326  0.1304  0.1715
 3933DDP     C323597  12.118   8.521   6.498  0.0712 -0.1311 -0.1163
 3933DDP     C423598  13.067   8.405   6.096  0.0984  0.0434  0.1269
 3934DDP     C123599   7.527  15.420  17.758  0.2587  0.4478  0.0245
 3934DDP     P123600   7.542  15.626  18.089 -0.1489 -0.0103  0.4134
 3934DDP     P223601   7.705  15.600  17.323 -0.1532  0.4150  0.1004
 3934DDP     C223602   8.004  15.716  17.004  0.2621 -0.0616 -0.4319
 3934DDP     C323603   7.759  15.896  18.286 -0.0632  0.2217 -0.2259
 3934DDP     C423604   7.270  14.981  17.638 -0.0744 -0.1561  0.1651
 3935DDP     C123605  15.391   5.563  11.356  0.2706  0.1393 -0.2342
 3935DDP     P123606  15.446   5.423  11.763 -0.0989  0.1488 -0.2463
 3935DDP     P223607  14.997   5.583  11.221  0.1515  0.0984  0.0782
 3935DDP     C223608  14.644   5.619  11.280 -0.1198 -0.2213 -0.2240
 3935DDP     C323609  15.489   5.030  12.027 -0.3594  0.0201 -0.0652
 3935DDP     C423610  15.787   5.510  11.313  0.1785  0.0460  0.1889
 3936DDP     C123611  19.728   9.793   9.262 -0.0637 -0.1958  0.3169
 3936DDP     P123612  20.089   9.992   9.229  0.1761 -0.1258  0.2237
 3936DDP     P223613  19.342   9.873   9.522 -0.1607  0.0057  0.0623
 3936DDP     C223614  19.036   9.997   9.797 -0.0824 -0.0841 -0.0515
 3936DDP     C323615  20.305  10.348   9.074 -0.1175 -0.1439  0.1279
 3936DDP     C423616  19.883   9.343   9.277  0.1224  0.0054  0.0963
 3937DDP     C123617  29.335  17.077  17.600  0.1132  0.0743 -0.1486
 3937DDP     P123618  29.079  16.810  17.748  0.0195 -0.0772 -0.0380
 3937DDP     P223619  29.023  17.403  17.464 -0.0987 -0.0223  0.1938
 3937DDP     C223620  28.560  17.440  17.209  0.1179 -0.1005 -0.0880
 3937DDP     C323621  29.181  16.492  17.546  0.0702  0.2390  0.0244
 3937DDP     C423622  29.750  17.078  17.476  0.0188 -0.0904 -0.0407
 3938DDP     C123623  26.241  19.373  14.849  0.1548  0.2427 -0.0962
 3938DDP     P123624  26.016  19.266  14.647  0.0093 -0.0922  0.1889
 3938DDP     P223625  26.281  19.069  15.129  0.1057  0.1738 -0.0903
 3938DDP     C223626  26.328  18.961  15.607 -0.2182 -0.1084  0.0399
 3938DDP     C323627  25.660  19.148  14.389 -0.3106 -0.0535  0.0756
 3938DDP     C423628  26.371  19.839  14.903  0.0035  0.2411  0.4508
 3939DDP     C123629   6.297  23.263  11.073  0.2852  0.0852 -0.0138
 3939DDP     P123630   6.265  22.730  11.128 -0.1144  0.0168  0.0466
 3939DDP     P223631   6.148  23.488  11.409  0.0305  0.2824 -0.0687
 3939DDP     C223632   5.920  23.571  11.758  0.0930 -0.0981  0.0276
 3939DDP     C323633   6.074  22.315  11.147 -0.1530 -0.1041 -0.0535
 3939DDP     C423634   6.181  23.546  10.698  0.2232 -0.1133  0.1158
 3940DDP     C123635   1.997  21.453  27.024  0.2141 -0.0996 -0.0907
 3940DDP     P123636   2.107  21.874  26.999 -0.1120 -0.1238  0.1954
 3940DDP     P223637   1.489  21.457  26.853  0.1775  0.0119 -0.0826
 3940DDP     C223638   1.238  21.275  26.512  0.1229  0.0484 -0.2407
 3940DDP     C323639   1.974  22.346  27.083 -0.1160  0.0093 -0.0174
 3940DDP     C423640   2.192  21.186  27.222  0.1698  0.0567 -0.4061
 3941DDP     C123641  10.344   2.320  24.669  0.1740  0.1902  0.4375
 3941DDP     P123642  10.225   2.701  24.605 -0.0182 -0.0465  0.0084
 3941DDP     P223643  10.002   2.064  24.770  0.0036 -0.0403 -0.1613
 3941DDP     C223644   9.583   2.118  24.853  0.2212 -0.0155 -0.1366
 3941DDP     C323645  10.419   3.093  24.814 -0.1284  0.0707 -0.0152
 3941DDP     C423646  10.653   2.239  24.410 -0.1568  0.1358  0.1444
 3942DDP     C123647  21.754  29.436  13.565 -0.3010 -0.1762  0.3350
 3942DDP     P123648  21.769  29.559  13.953 -0.0581 -0.1663 -0.0573
 3942DDP     P223649  21.507  29.662  13.262  0.0024  0.1104  0.1830
 3942DDP     C223650  21.698  29.928  13.060 -0.0113  0.4844  0.2665
 3942DDP     C323651  21.940  29.403  14.422  0.0432 -0.0516  0.1707
 3942DDP     C423652  21.790  29.155  13.338  0.4164  0.2519 -0.1283
 3943DDP     C123653   0.767  29.235  16.499  0.3122  0.0385 -0.1003
 3943DDP     P123654   1.183  28.971  16.535  0.1632 -0.1152  0.4498
 3943DDP     P223655   0.343  29.105  16.796 -0.3893  0.0049 -0.0605
 3943DDP     C223656  30.220  29.123  16.864  0.1382 -0.1503 -0.0969
 3943DDP     C323657   1.589  29.164  16.520 -0.0667  0.1675  0.3685
 3943DDP     C423658   0.694  29.581  16.362  0.1189 -0.0532  0.0926
 3944DDP     C123659  26.049  29.095   0.171  0.0342 -0.1323 -0.0459
 3944DDP     P123660  26.008  28.925  30.135 -0.1526 -0.2924 -0.2326
 3944DDP     P223661  25.815  28.950   0.513 -0.1194 -0.1156 -0.3101
 3944DDP     C223662  25.377  29.037   0.456  0.1398  0.2548 -0.3207
 3944DDP     C323663  25.897  29.060  29.707  0.3169 -0.0868  0.1663
 3944DDP     C423664  26.262  29.496   0.256 -0.2795  0.0356  0.1855
 3945DDP     C123665  19.324  13.507  19.543  0.1391  0.2373 -0.1204
 3945DDP     P123666  19.332  13.907  19.768 -0.0863  0.2950  0.1014
 3945DDP     P223667  19.313  13.246  19.936  0.0885  0.3798  0.0099
 3945DDP     C223668  19.602  13.117  20.306  0.0928  0.1201 -0.0972
 3945DDP     C323669  19.504  14.270  19.726 -0.0642 -0.0476  0.0340
 3945DDP     C423670  19.398  13.361  19.143  0.0643  0.0714 -0.3382
 3946DDP     C123671  18.473   1.726  28.907  0.3171 -0.1201  0.2370
 3946DDP     P123672  18.112   2.113  28.862 -0.1652  0.1256 -0.0956
 3946DDP     P223673  18.924   2.000  29.139  0.1946  0.1002  0.1197
 3946DDP     C223674  19.108   2.421  29.248 -0.0090 -0.0825  0.1183
 3946DDP     C323675  18.171   2.502  28.721  0.2260 -0.4185 -0.0992
 3946DDP     C423676  18.401   1.311  28.680 -0.2460 -0.0766  0.1416
 3947DDP     C123677   5.471  14.270  24.464  0.0160  0.0812  0.2257
 3947DDP     P123678   5.638  14.667  24.300 -0.0486  0.1364  0.1832
 3947DDP     P223679   5.205  14.280  24.808 -0.2412 -0.2642  0.1239
 3947DDP     C223680   5.113  13.988  25.170  0.1547 -0.0442  0.2394
 3947DDP     C323681   5.953  15.003  24.316 -0.0453 -0.0596 -0.0495
 3947DDP     C423682   5.583  13.874  24.218 -0.1557 -0.0728 -0.1940
 3948DDP     C123683   9.682  11.721   5.827 -0.0190  0.1104 -0.0141
 3948DDP     P123684   9.781  12.070   5.584 -0.2454  0.1866 -0.1074
 3948DDP     P223685   9.933  11.730   6.218  0.0062 -0.2199  0.0191
 3948DDP     C223686  10.258  11.956   6.501 -0.1054 -0.0502 -0.2046
 3948DDP     C323687   9.882  12.556   5.621  0.0700  0.0044 -0.1592
 3948DDP     C423688   9.210  11.708   5.728 -0.0094 -0.1232  0.0105
 3949DDP     C123689   7.746  23.342  10.821  0.1109 -0.1019  0.0525
 3949DDP     P123690   7.736  23.346  11.253  0.0480 -0.0007  0.0836
 3949DDP     P223691   7.409  23.232  10.570 -0.0991  0.0947 -0.0855
 3949DDP     C223692   7.114  23.443  10.516 -0.1416  0.1196  0.2158
 3949DDP     C323693   7.599  23.071  11.672 -0.1128  0.1756 -0.4925
 3949DDP     C423694   8.144  23.215  10.557  0.2136  0.2637  0.1808
 3950DDP     C123695   9.343  18.022  24.961 -0.0546 -0.2123 -0.1513
 3950DDP     P123696   9.186  17.949  24.513 -0.0874 -0.2446 -0.1765
 3950DDP     P223697   9.197  17.680  25.230 -0.2051 -0.0928  0.3551
 3950DDP     C223698   9.135  17.632  25.737  0.0693  0.1251 -0.1777
 3950DDP     C323699   8.787  18.108  24.369 -0.3978  0.3613 -0.1846
 3950DDP     C423700   9.633  18.320  25.029 -0.0869  0.1078  0.4470
 3951DDP     C123701  29.902  10.271   3.123 -0.0468  0.2361 -0.3284
 3951DDP     P123702  29.793  10.373   3.413 -0.1961  0.0989 -0.1600
 3951DDP     P223703  30.276  10.152   2.828 -0.1382 -0.0670  0.1162
 3951DDP     C223704   0.418   9.947   3.108 -0.0012  0.2130 -0.1285
 3951DDP     C323705  29.470  10.729   3.613  0.2143 -0.2893  0.0044
 3951DDP     C423706  29.500  10.059   3.025 -0.2014 -0.1275  0.3394
 3952DDP     C123707  14.554  24.029  13.237 -0.0608 -0.2827  0.1316
 3952DDP     P123708  14.897  24.090  13.473  0.0980  0.0816 -0.1891
 3952DDP     P223709  14.341  24.382  13.086  0.0149 -0.1216 -0.0497
 3952DDP     C223710  14.255  24.488  12.652  0.1920  0.1939 -0.2579
 3952DDP     C323711  15.111  23.804  13.687 -0.1109  0.1390  0.0080
 3952DDP     C423712  14.275  23.683  13.244  0.0115  0.0744  0.1875
 3953DDP     C123713  17.267  27.318  28.011 -0.1288  0.1020 -0.1685
 3953DDP     P123714  17.618  27.407  28.007 -0.2006 -0.2032  0.1057
 3953DDP     P223715  17.014  27.607  27.715 -0.0268  0.1083  0.0253
 3953DDP     C223716  16.852  27.977  27.740 -0.2326 -0.0776 -0.0360
 3953DDP     C323717  17.956  27.671  28.170 -0.2429 -0.0718  0.0884
 3953DDP     C423718  17.099  26.985  28.240  0.1397 -0.1812  0.2373
 3954DDP     C123719  29.523  12.361  11.807  0.0290  0.2320 -0.1131
 3954DDP     P123720  29.179  12.534  11.703 -0.2662  0.0012  0.0717
 3954DDP     P223721  29.471  12.013  12.144  0.0147 -0.1672  0.2055
 3954DDP     C223722  29.367  11.620  12.246 -0.0189  0.1533 -0.1387
 3954DDP     C323723  28.873  12.786  11.508 -0.1387 -0.0961  0.1411
 3954DDP     C423724  29.883  12.478  11.593  0.1567 -0.0428  0.2586
 3955DDP     C123725  23.960  21.731  27.864 -0.0788  0.2868 -0.0498
 3955DDP     P123726  24.177  21.558  27.510  0.1314  0.2222  0.0160
 3955DDP     P223727  24.116  22.066  28.043 -0.0404 -0.1998  0.1983
 3955DDP     C223728  24.462  22.286  28.249 -0.0335  0.0844 -0.3309
 3955DDP     C323729  24.410  21.728  27.096 -0.2156  0.2206  0.0340
 3955DDP     C423730  23.718  21.442  28.162  0.3276  0.1088  0.0891
 3956DDP     C123731   4.034  14.351  30.188  0.0174 -0.1279  0.0019
 3956DDP     P123732   4.361  14.017  30.178 -0.0636  0.3999  0.1543
 3956DDP     P223733   4.187  14.772   0.036 -0.0710 -0.1313  0.1545
 3956DDP     C223734   4.263  15.163   0.276 -0.3387 -0.1009  0.0436
 3956DDP     C323735   4.743  13.840  30.160  0.2690 -0.2568  0.0527
 3956DDP     C423736   3.686  14.292  29.909 -0.0956  0.0247  0.4615
 3957DDP     C123737  24.413  23.530  17.344  0.2095  0.1842 -0.1234
 3957DDP     P123738  24.426  23.227  17.732  0.2988  0.1100 -0.1259
 3957DDP     P223739  24.175  23.551  16.923 -0.0285 -0.0238 -0.2037
 3957DDP     C223740  24.232  23.710  16.534 -0.0519  0.2015 -0.2436
 3957DDP     C323741  24.490  22.931  18.002 -0.0063 -0.1221  0.2270
 3957DDP     C423742  24.733  23.915  17.317 -0.1459 -0.2990 -0.0468
 3958DDP     C123743   7.933   5.037   0.827  0.0647 -0.1640  0.0224
 3958DDP     P123744   7.768   5.081   1.225  0.0073  0.0265  0.0315
 3958DDP     P223745   7.828   4.605   0.862  0.1547  0.2679 -0.0407
 3958DDP     C223746   7.937   4.132   0.910 -0.0432  0.0291 -0.0928
 3958DDP     C323747   7.550   5.270   1.622  0.0494  0.2791  0.0427
 3958DDP     C423748   8.303   5.280   0.713 -0.1346  0.1633 -0.0136
 3959DDP     C123749  10.944   7.405   5.944  0.0120  0.1148  0.3731
 3959DDP     P123750  10.440   7.278   6.000  0.1561 -0.2221 -0.0210
 3959DDP     P223751  11.142   7.533   6.348  0.0561  0.0489  0.0925
 3959DDP     C223752  11.074   7.427   6.800  0.2283  0.1702  0.1500
 3959DDP     C323753  10.010   7.093   6.089  0.1216  0.1693  0.1894
 3959DDP     C423754  11.030   7.337   5.560  0.1249 -0.0349 -0.1134
 3960DDP     C123755  11.828   8.162   6.845 -0.1227 -0.0219  0.3951
 3960DDP     P123756  11.986   7.761   6.984  0.1219  0.2665  0.2594
 3960DDP     P223757  12.245   8.355   6.984  0.1469  0.0298  0.1816
 3960DDP     C223758  12.644   8.407   7.046 -0.4962  0.2316 -0.0140
 3960DDP     C323759  11.990   7.528   7.277 -0.1968  0.0248 -0.0046
 3960DDP     C423760  11.530   8.318   6.701 -0.3265  0.1141  0.1368
 3961DDP     C123761  16.859  28.215  29.634 -0.0314  0.0623 -0.1443
 3961DDP     P123762  16.464  28.389  29.777  0.1557 -0.0608 -0.2101
 3961DDP     P223763  16.796  28.090  29.176 -0.3220 -0.0329  0.2723
 3961DDP     C223764  16.444  28.014  28.904  0.3650  0.2028 -0.2429
 3961DDP     C323765  15.987  28.470  29.577  0.2786 -0.0578  0.0637
 3961DDP     C423766  17.270  28.153  29.892  0.2523 -0.0218 -0.1437
 3962DDP     C123767  16.302  18.041  16.568  0.2118 -0.0678  0.3693
 3962DDP     P123768  16.077  18.427  16.682 -0.2008  0.2261  0.0222
 3962DDP     P223769  16.509  18.023  16.241  0.1297  0.2580  0.1062
 3962DDP     C223770  16.349  17.842  15.839 -0.1309  0.1429 -0.0030
 3962DDP     C323771  15.678  18.253  16.796  0.1879  0.4737 -0.2200
 3962DDP     C423772  16.566  17.776  16.747 -0.1033 -0.1115  0.0314
 3963DDP     C123773  22.083  28.754  16.412  0.3091 -0.0249 -0.2732
 3963DDP     P123774  21.878  29.116  16.650  0.1524 -0.0915  0.2637
 3963DDP     P223775  22.079  28.261  16.538  0.4147  0.0437 -0.0837
 3963DDP     C223776  22.237  27.927  16.777 -0.2036 -0.1003 -0.0666
 3963DDP     C323777  21.813  29.469  16.510  0.0786 -0.0616 -0.0864
 3963DDP     C423778  22.172  28.884  15.992  0.1596  0.4419 -0.2131
 3964DDP     C123779  22.517   3.635   3.486 -0.2797  0.2084  0.1052
 3964DDP     P123780  22.258   3.819   3.850 -0.4441 -0.0012  0.1553
 3964DDP     P223781  22.656   3.272   3.484 -0.0973  0.1992  0.1905
 3964DDP     C223782  22.679   2.807   3.498 -0.2296  0.1831 -0.0347
 3964DDP     C323783  22.143   4.236   3.913 -0.1596 -0.2622  0.1492
 3964DDP     C423784  22.396   3.759   2.990 -0.1434  0.0143 -0.1757
 3965DDP     C123785  12.015  21.761   9.216 -0.2506 -0.0412 -0.0897
 3965DDP     P123786  11.694  21.709   8.976  0.2204  0.1387  0.1295
 3965DDP     P223787  11.995  22.140   9.536  0.2903  0.1558 -0.4134
 3965DDP     C223788  11.863  22.160  10.070  0.0107  0.1952  0.2403
 3965DDP     C323789  11.293  21.722   8.845 -0.0848  0.1657  0.0594
 3965DDP     C423790  12.352  21.633   9.349 -0.0302 -0.0667 -0.0093
 3966DDP     C123791  12.181  11.281   2.978 -0.3805 -0.1852 -0.0108
 3966DDP     P123792  12.290  10.917   2.900  0.0220 -0.0058 -0.5040
 3966DDP     P223793  11.780  11.277   2.805 -0.1559  0.3132  0.5016
 3966DDP     C223794  11.406  11.226   2.746 -0.2351 -0.1160  0.0116
 3966DDP     C323795  12.676  10.738   2.831 -0.0244  0.0471  0.0004
 3966DDP     C423796  12.375  11.662   3.089 -0.1603  0.1248 -0.2082
 3967DDP     C123797   9.630  11.635   3.542  0.0208  0.0463  0.0268
 3967DDP     P123798  10.066  11.685   3.602  0.0321  0.0986  0.0406
 3967DDP     P223799   9.706  11.421   3.123  0.1299  0.1981 -0.1623
 3967DDP     C223800   9.608  11.352   2.776  0.1504 -0.2015 -0.4009
 3967DDP     C323801  10.460  12.020   3.620 -0.2177 -0.1928 -0.2969
 3967DDP     C423802   9.359  11.925   3.734 -0.1701  0.0539 -0.1493
 3968DDP     C123803  11.239   9.446  14.024 -0.2454  0.0494  0.1891
 3968DDP     P123804  11.475   9.587  13.620 -0.0479  0.1451  0.1002
 3968DDP     P223805  10.820   9.222  14.140 -0.0903  0.3517  0.0501
 3968DDP     C223806  10.328   9.314  14.176 -0.0785  0.0870 -0.1925
 3968DDP     C323807  11.801   9.404  13.542 -0.1534 -0.1772 -0.2132
 3968DDP     C423808  11.531   9.666  14.302  0.0617  0.1585  0.0525
 3969DDP     C123809  17.445   4.589  27.010  0.3467  0.0485  0.1099
 3969DDP     P123810  17.689   4.429  27.246 -0.0474 -0.0449 -0.1590
 3969DDP     P223811  17.636   4.594  26.621  0.4023 -0.2169  0.0178
 3969DDP     C223812  17.865   4.439  26.286 -0.0879 -0.0663 -0.0355
 3969DDP     C323813  18.051   4.187  27.241 -0.0028 -0.1071  0.0991
 3969DDP     C423814  16.978   4.572  26.967 -0.1950 -0.0664 -0.2439
 3970DDP     C123815  15.238   5.279   0.120  0.1209  0.0609  0.0950
 3970DDP     P123816  15.438   5.408  30.056 -0.1151  0.0048  0.0687
 3970DDP     P223817  15.549   5.009   0.216  0.1382  0.0279  0.1568
 3970DDP     C223818  15.787   4.850  30.250 -0.3554 -0.2500 -0.1022
 3970DDP     C323819  15.836   5.323  29.843  0.0770 -0.2472  0.1547
 3970DDP     C423820  14.930   5.387   0.342 -0.1283 -0.2224  0.0567
 3971DDP     C123821  18.200   7.645  29.941 -0.1000  0.0351  0.4629
 3971DDP     P123822  17.864   7.921  29.919 -0.2161 -0.0056 -0.0233
 3971DDP     P223823  18.213   7.297  29.631 -0.0467  0.1686 -0.1183
 3971DDP     C223824  18.077   7.085  29.303 -0.0668 -0.0260  0.2685
 3971DDP     C323825  17.470   8.169  29.600  0.0658 -0.1179  0.2278
 3971DDP     C423826  18.499   7.752  30.280 -0.3163  0.0985 -0.1884
 3972DDP     C123827  26.136  22.927  19.249  0.1269 -0.2776 -0.0435
 3972DDP     P123828  26.460  22.749  18.901  0.0432 -0.2750 -0.3382
 3972DDP     P223829  25.846  23.171  18.976  0.1891  0.2336 -0.2343
 3972DDP     C223830  25.598  23.476  19.050 -0.0798 -0.0642 -0.0604
 3972DDP     C323831  26.683  22.699  18.616  0.0472 -0.1682 -0.0466
 3972DDP     C423832  26.104  22.830  19.671 -0.1485  0.1529 -0.0952
 3973DDP     C123833  29.252   6.322  20.484  0.0536 -0.2288 -0.1629
 3973DDP     P123834  29.028   6.364  20.090  0.1732 -0.0404  0.0715
 3973DDP     P223835  29.673   6.508  20.649  0.0931 -0.0011 -0.1292
 3973DDP     C223836  30.083   6.843  20.682  0.0391 -0.0926  0.2223
 3973DDP     C323837  28.757   6.705  19.914  0.0245  0.1554  0.0615
 3973DDP     C423838  28.887   6.185  20.823  0.1609 -0.1862 -0.0409
 3974DDP     C123839  11.648  23.636  12.254  0.1728  0.0858 -0.0027
 3974DDP     P123840  11.269  23.805  12.387  0.1001  0.0488  0.3094
 3974DDP     P223841  12.008  23.566  12.274 -0.1073  0.5231  0.2413
 3974DDP     C223842  12.431  23.629  12.288  0.2131 -0.0084 -0.0535
 3974DDP     C323843  10.891  24.191  12.453  0.3490 -0.2851 -0.0722
 3974DDP     C423844  11.549  23.290  11.904 -0.0187 -0.0738  0.1792
 3975DDP     C123845   7.789  25.399  14.162 -0.0943 -0.0821  0.0733
 3975DDP     P123846   7.579  25.030  13.935 -0.0515  0.1453 -0.1786
 3975DDP     P223847   7.660  25.731  14.408 -0.0609 -0.0659 -0.0616
 3975DDP     C223848   7.847  26.011  14.665  0.1310  0.2358 -0.0657
 3975DDP     C323849   7.176  24.808  13.666 -0.1746 -0.1238 -0.0286
 3975DDP     C423850   8.213  25.350  14.413 -0.0666  0.0709 -0.4094
 3976DDP     C123851  23.834  11.954  25.533  0.1161  0.1099  0.0520
 3976DDP     P123852  23.507  11.719  25.675  0.1052  0.1078 -0.2096
 3976DDP     P223853  23.978  11.677  25.108 -0.0628 -0.2880 -0.1012
 3976DDP     C223854  23.957  11.237  25.027  0.1967  0.0571 -0.1583
 3976DDP     C323855  23.231  11.741  26.090  0.0004  0.0876  0.0406
 3976DDP     C423856  23.795  12.414  25.514  0.0205 -0.0606  0.1922
 3977DDP     C123857   1.249  11.586  24.638  0.0666  0.0899  0.1336
 3977DDP     P123858   0.939  11.791  24.309 -0.0399 -0.1472  0.1308
 3977DDP     P223859   1.675  11.435  24.454  0.0692  0.2400 -0.0390
 3977DDP     C223860   2.071  11.330  24.285 -0.0210 -0.1017 -0.1434
 3977DDP     C323861   0.510  11.996  24.455 -0.0273  0.2563 -0.0205
 3977DDP     C423862   1.067  11.351  25.028  0.1893 -0.0681 -0.0362
 3978DDP     C123863  14.746  27.374   6.504 -0.0606  0.0118  0.0756
 3978DDP     P123864  14.654  27.436   6.103  0.2535 -0.0127 -0.0384
 3978DDP     P223865  14.568  27.268   6.836 -0.1629 -0.2077  0.1367
 3978DDP     C223866  14.200  27.076   7.010  0.2081 -0.1942 -0.1694
 3978DDP     C323867  14.599  27.798   5.827  0.0985 -0.1583  0.0037
 3978DDP     C423868  15.099  27.743   6.410  0.3402 -0.1030 -0.0743
 3979DDP     C123869  28.361  28.072   0.140 -0.3367 -0.1012 -0.1874
 3979DDP     P123870  28.625  27.670   0.232 -0.1369 -0.0308 -0.1071
 3979DDP     P223871  28.500  28.250  30.018  0.0607  0.1754  0.0960
 3979DDP     C223872  28.507  28.198  29.567 -0.0820 -0.1365  0.2636
 3979DDP     C323873  28.825  27.376   0.559  0.1392 -0.0325  0.5037
 3979DDP     C423874  28.317  28.364   0.439 -0.3237 -0.1306  0.0765
 3980DDP     C123875  12.489  16.628  17.749  0.3783  0.0132 -0.1114
 3980DDP     P123876  12.937  16.661  17.858  0.1916  0.1455 -0.2103
 3980DDP     P223877  12.492  16.486  17.324 -0.1230 -0.0845  0.0563
 3980DDP     C223878  12.370  16.124  17.171 -0.0983 -0.0253 -0.0074
 3980DDP     C323879  13.370  16.566  17.775 -0.4135  0.4299 -0.0651
 3980DDP     C423880  11.988  16.681  17.860 -0.1236  0.1531  0.3763
 3981DDP     C123881  29.340  27.336  29.060 -0.0826 -0.0185 -0.1597
 3981DDP     P123882  29.489  26.873  28.941  0.2086 -0.0269  0.0755
 3981DDP     P223883  28.971  27.391  28.925  0.0796  0.1988 -0.3518
 3981DDP     C223884  28.483  27.157  29.009 -0.1909  0.0482 -0.2343
 3981DDP     C323885  29.696  26.574  28.797 -0.1196  0.0686  0.1580
 3981DDP     C423886  29.635  27.598  29.264  0.0687  0.0997  0.1107
 3982DDP     C123887   3.270  16.301   2.075 -0.1111  0.0475 -0.2367
 3982DDP     P123888   2.803  16.441   1.901  0.1423  0.1157 -0.2612
 3982DDP     P223889   3.397  16.605   2.315 -0.0809  0.2550 -0.1288
 3982DDP     C223890   3.513  16.590   2.774  0.1675 -0.3581 -0.1187
 3982DDP     C323891   2.434  16.697   2.062  0.0562 -0.1329 -0.0452
 3982DDP     C423892   3.590  15.962   2.042  0.0604 -0.0261 -0.0489
 3983DDP     C123893  26.889  26.242  13.883 -0.0302  0.2437  0.0447
 3983DDP     P123894  27.236  26.226  13.583  0.1291 -0.1929 -0.1783
 3983DDP     P223895  26.861  26.344  14.372 -0.1259  0.2334  0.1242
 3983DDP     C223896  26.893  26.697  14.751 -0.1402 -0.1829  0.0371
 3983DDP     C323897  27.266  26.496  13.286 -0.0295  0.0855 -0.1081
 3983DDP     C423898  26.535  25.984  13.677 -0.2203  0.0881  0.0602
 3984DDP     C123899  23.914   4.242   3.447  0.3967  0.2981 -0.0149
 3984DDP     P123900  23.646   4.493   3.314 -0.1154  0.0109 -0.2716
 3984DDP     P223901  23.745   3.799   3.396  0.1805  0.2778  0.0680
 3984DDP     C223902  23.528   3.534   3.543  0.1210  0.1328  0.4481
 3984DDP     C323903  23.600   4.923   3.269  0.2408 -0.2253 -0.0809
 3984DDP     C423904  24.357   4.308   3.618 -0.1452 -0.0933 -0.1950
 3985DDP     C123905   7.455  12.348  17.738  0.0030 -0.0603 -0.2841
 3985DDP     P123906   7.171  12.651  17.829  0.2174  0.1322  0.3356
 3985DDP     P223907   7.224  12.261  17.417  0.0128  0.2470  0.0203
 3985DDP     C223908   7.052  11.844  17.248 -0.0806  0.0555  0.0929
 3985DDP     C323909   6.767  12.752  17.817  0.0896 -0.1590 -0.0132
 3985DDP     C423910   7.809  12.193  17.946 -0.0357  0.1722  0.1039
 3986DDP     C123911  17.306  26.958  22.508 -0.1496  0.0389 -0.1712
 3986DDP     P123912  17.576  26.876  22.190  0.1578  0.2474  0.2619
 3986DDP     P223913  16.936  26.751  22.569  0.0132  0.2517 -0.0711
 3986DDP     C223914  16.604  26.487  22.659  0.1076 -0.4902 -0.0452
 3986DDP     C323915  17.705  26.585  21.828 -0.0900 -0.0778  0.2074
 3986DDP     C423916  17.270  27.371  22.716  0.0607 -0.2632  0.0599
 3987DDP     C123917  19.936   8.073   9.886 -0.1919  0.2062 -0.0108
 3987DDP     P123918  19.907   7.919   9.426 -0.1842 -0.0783 -0.1094
 3987DDP     P223919  20.368   8.167   9.829  0.1266 -0.2902  0.1187
 3987DDP     C223920  20.778   7.912   9.661  0.1632  0.0099 -0.1629
 3987DDP     C323921  19.913   7.623   9.139 -0.2272  0.0642 -0.1371
 3987DDP     C423922  19.732   8.257  10.230  0.1946 -0.3149 -0.2886
 3988DDP     C123923  15.324  11.935   8.979 -0.0428 -0.0675 -0.0096
 3988DDP     P123924  15.512  11.943   8.585  0.0718 -0.2035  0.2368
 3988DDP     P223925  15.607  11.955   9.270  0.0693  0.0674  0.0386
 3988DDP     C223926  15.739  11.555   9.527 -0.1975 -0.1632  0.0325
 3988DDP     C323927  16.033  12.103   8.428 -0.0159  0.0349 -0.0167
 3988DDP     C423928  14.933  11.712   9.045 -0.1008  0.2627  0.0003
 3989DDP     C123929  12.726  20.198  17.762  0.0267 -0.1925 -0.4355
 3989DDP     P123930  12.412  20.058  17.939  0.1930  0.5318 -0.3031
 3989DDP     P223931  12.901  19.820  17.828  0.1302  0.1040  0.1043
 3989DDP     C223932  13.175  19.585  18.049 -0.0776 -0.0904 -0.1815
 3989DDP     C323933  12.084  19.680  17.960  0.1107 -0.0125  0.1048
 3989DDP     C423934  12.911  20.616  17.655 -0.0111  0.0689 -0.3205
 3990DDP     C123935  20.261   1.401   5.118  0.1978 -0.0970  0.1327
 3990DDP     P123936  20.108   1.059   5.002 -0.1060 -0.0623  0.2449
 3990DDP     P223937  20.270   1.573   5.523 -0.1012  0.0714  0.1606
 3990DDP     C223938  20.222   1.848   5.812 -0.1820 -0.4207 -0.1505
 3990DDP     C323939  19.934   0.845   4.580  0.0699  0.2991  0.0505
 3990DDP     C423940  20.381   1.815   4.827  0.3874  0.1422  0.2900
 3991DDP     C123941  19.614  23.222   1.639  0.0648  0.0258  0.0571
 3991DDP     P123942  19.537  23.378   1.282  0.2331 -0.3637 -0.4089
 3991DDP     P223943  19.733  22.791   1.694  0.0523  0.0372  0.1742
 3991DDP     C223944  19.643  22.400   1.408 -0.0146 -0.1671  0.0468
 3991DDP     C323945  19.324  23.583   0.875 -0.4488 -0.3993 -0.0085
 3991DDP     C423946  19.322  23.359   1.986  0.1890  0.1177  0.1359
 3992DDP     C123947   3.167   3.136  27.854  0.1505 -0.0164 -0.0691
 3992DDP     P123948   3.176   3.106  28.347  0.3286 -0.1409  0.2209
 3992DDP     P223949   2.902   3.280  27.543  0.0702  0.0957  0.0543
 3992DDP     C223950   2.899   2.911  27.201 -0.3459 -0.1046 -0.0448
 3992DDP     C323951   2.962   2.802  28.658  0.1073 -0.1747  0.2026
 3992DDP     C423952   3.658   3.029  27.758 -0.2142  0.3126 -0.2343
 3993DDP     C123953  13.365   5.090  15.110  0.0349  0.1213  0.0311
 3993DDP     P123954  13.429   4.805  14.806  0.0141 -0.2187  0.1267
 3993DDP     P223955  13.705   5.357  15.192 -0.2655  0.1439  0.1817
 3993DDP     C223956  13.988   5.392  15.447 -0.0767  0.0626 -0.1021
 3993DDP     C323957  13.683   4.520  14.604  0.2587  0.1380  0.4491
 3993DDP     C423958  13.044   5.190  15.274  0.0944 -0.2052  0.2417
 3994DDP     C123959  14.685   0.550  18.596  0.2848 -0.0939  0.1056
 3994DDP     P123960  14.365   0.957  18.709 -0.2650  0.1985  0.0776
 3994DDP     P223961  14.747   0.435  18.266 -0.0253  0.2900  0.1224
 3994DDP     C223962  14.826   0.055  17.927  0.0717  0.1069  0.3520
 3994DDP     C323963  14.051   1.061  18.514 -0.1086  0.1897 -0.1908
 3994DDP     C423964  14.791   0.328  18.992 -0.3247  0.2067  0.1876
 3995DDP     C123965  11.870  10.342  16.273 -0.3621  0.1805 -0.2585
 3995DDP     P123966  12.246  10.619  16.252  0.2160 -0.1905  0.0422
 3995DDP     P223967  12.070   9.940  16.214  0.2802  0.3156  0.2923
 3995DDP     C223968  12.234   9.485  16.025 -0.4996 -0.0892  0.1960
 3995DDP     C323969  12.581  10.814  16.016 -0.2208 -0.0227  0.0427
 3995DDP     C423970  11.387  10.295  16.298 -0.0870  0.1041 -0.2868
 3996DDP     C123971   2.379   5.225  30.062 -0.3499 -0.1876 -0.1980
 3996DDP     P123972   2.668   5.571  30.045  0.0858  0.1974 -0.1131
 3996DDP     P223973   2.177   5.116   0.147  0.1420 -0.0010  0.1708
 3996DDP     C223974   1.939   5.197   0.573  0.3568 -0.1862 -0.2926
 3996DDP     C323975   3.136   5.484  29.927  0.0050 -0.0557  0.0994
 3996DDP     C423976   2.194   5.191  29.687 -0.1174 -0.0383  0.0829
 3997DDP     C123977  12.170   8.884   0.012 -0.1329 -0.0206  0.1413
 3997DDP     P123978  12.551   9.181  30.303  0.1222  0.1864 -0.0611
 3997DDP     P223979  11.802   9.166  30.245 -0.1075  0.0244  0.1724
 3997DDP     C223980  11.689   9.584   0.049 -0.1748 -0.1054 -0.1117
 3997DDP     C323981  12.869   9.456   0.212 -0.3763  0.3492 -0.0797
 3997DDP     C423982  12.208   8.450   0.003 -0.4340  0.0038 -0.0402
 3998DDP     C123983  12.679  14.639  17.569  0.2575  0.1132 -0.1805
 3998DDP     P123984  12.894  14.425  17.900  0.0080  0.1510  0.0791
 3998DDP     P223985  12.664  14.496  17.220  0.1131  0.1425 -0.0839
 3998DDP     C223986  12.704  14.364  16.803  0.2626  0.0839  0.0270
 3998DDP     C323987  13.216  14.372  18.184  0.0227 -0.0083 -0.0276
 3998DDP     C423988  12.727  15.094  17.621 -0.1902 -0.0452  0.2696
 3999DDP     C123989  26.626   0.219  11.986  0.0083  0.2943  0.0776
 3999DDP     P123990  26.969   0.301  12.190 -0.1800 -0.2121  0.0787
 3999DDP     P223991  26.626  30.181  11.669 -0.0300 -0.1397 -0.1680
 3999DDP     C223992  26.754   0.027  11.164  0.2700  0.1360  0.0399
 3999DDP     C323993  27.121   0.685  12.497 -0.0168  0.4653 -0.2925
 3999DDP     C423994  26.319   0.579  11.866 -0.0196 -0.2730 -0.1970
 4000DDP     C123995   6.652   0.598   0.296  0.0647 -0.1228 -0.1850
 4000DDP     P123996   6.710   0.383   0.567  0.1181 -0.1998 -0.0327
 4000DDP     P223997   7.008   0.843   0.187  0.0358  0.2617  0.1136
 4000DDP     C223998   7.184   1.168   0.304 -0.0157 -0.1734 -0.1058
 4000DDP     C323999   6.411   0.177   0.986  0.1322  0.3921  0.1081
 4000DDP     C424000   6.227   0.641   0.182 -0.2879 -0.0460  0.1606
 4001DDP     C124001  28.390  28.673   1.047  0.2467  0.2615 -0.0122
 4001DDP     P124002  28.460  28.505   1.335 -0.0689 -0.3393  0.0641
 4001DDP     P224003  28.324  29.086   1.162 -0.0013  0.2586 -0.1437
 4001DDP     C224004  28.053  29.362   1.316 -0.3649 -0.1426  0.0670
 4001DDP     C324005  28.569  28.534   1.817 -0.3887  0.1670  0.3070
 4001DDP     C424006  28.726  28.529   0.765  0.1990 -0.3392 -0.3377
 4002DDP     C124007  10.969  18.949   2.097  0.0994 -0.0452 -0.1930
 4002DDP     P124008  11.067  18.788   1.754 -0.2128  0.0690 -0.2363
 4002DDP     P224009  11.265  18.853   2.377  0.0161 -0.0593  0.2507
 4002DDP     C224010  11.585  18.678   2.571  0.0954 -0.1098 -0.1615
 4002DDP     C324011  10.957  18.471   1.322 -0.1178 -0.0301 -0.1437
 4002DDP     C424012  10.519  19.184   2.178 -0.1854  0.2450 -0.1100
 4003DDP     C124013  15.196  11.212  10.554  0.1054 -0.0518 -0.0831
 4003DDP     P124014  15.118  11.224  10.123  0.0801 -0.0458 -0.0533
 4003DDP     P224015  14.854  11.319  10.862  0.1109 -0.0159  0.0554
 4003DDP     C224016  14.808  11.619  11.119  0.0472 -0.2499  0.1958
 4003DDP     C324017  15.006  11.095   9.800  0.3293  0.2435 -0.4394
 4003DDP     C424018  15.618  11.067  10.645 -0.1284 -0.0109  0.0353
 4004DDP     C124019  19.648  17.398  17.541 -0.3572 -0.0139  0.0328
 4004DDP     P124020  20.097  17.364  17.670 -0.0504  0.4739  0.0968
 4004DDP     P224021  19.580  17.085  17.285 -0.0788 -0.1414 -0.2067
 4004DDP     C224022  19.526  16.667  17.367 -0.2816  0.1171 -0.1613
 4004DDP     C324023  20.422  17.318  17.476 -0.2153  0.2537  0.0079
 4004DDP     C424024  19.228  17.561  17.767 -0.1787  0.0824  0.2190
 4005DDP     C124025   3.187   6.612  13.393 -0.2866  0.0280 -0.1409
 4005DDP     P124026   3.238   6.192  13.579  0.1613  0.2741 -0.4008
 4005DDP     P224027   3.211   6.511  12.994 -0.2289  0.2528 -0.2467
 4005DDP     C224028   3.244   6.054  13.018 -0.0899 -0.2297 -0.1686
 4005DDP     C324029   3.372   5.841  13.546 -0.0916 -0.1488  0.3181
 4005DDP     C424030   3.116   6.915  13.645 -0.0260 -0.0821 -0.0273
 4006DDP     C124031  17.845   2.999   6.640 -0.1652  0.1070  0.1299
 4006DDP     P124032  17.661   3.046   6.207  0.1924  0.2348  0.1094
 4006DDP     P224033  18.187   3.075   6.437 -0.1437 -0.1048 -0.1700
 4006DDP     C224034  18.300   2.798   6.014 -0.0215 -0.1805  0.1110
 4006DDP     C324035  17.325   3.061   6.024 -0.0253  0.1532 -0.0591
 4006DDP     C424036  17.615   3.195   7.048 -0.2143 -0.0555 -0.2058
 4007DDP     C124037   8.764  22.546   5.131  0.0993 -0.1754 -0.0791
 4007DDP     P124038   8.351  22.353   5.107  0.2405 -0.1344  0.1321
 4007DDP     P224039   8.979  22.890   5.450 -0.1844  0.1719 -0.0542
 4007DDP     C224040   9.251  23.154   5.724  0.3423 -0.1351 -0.0542
 4007DDP     C324041   8.191  22.002   4.785  0.2447 -0.2355 -0.0700
 4007DDP     C424042   9.023  22.441   4.741 -0.2658  0.0676 -0.2596
 4008DDP     C124043  13.538  11.897  12.332  0.1698  0.3577 -0.3894
 4008DDP     P124044  13.540  12.356  12.291  0.2919  0.2322 -0.0371
 4008DDP     P224045  13.761  11.661  12.636  0.1892 -0.0600 -0.0218
 4008DDP     C224046  13.925  11.537  13.047 -0.1293 -0.2430  0.0428
 4008DDP     C324047  13.392  12.595  12.663  0.0016 -0.1513  0.2030
 4008DDP     C424048  13.178  11.810  11.977  0.0836 -0.4780  0.0597
 4009DDP     C124049   2.507  29.669  29.766  0.1314  0.0814 -0.2912
 4009DDP     P124050   2.311  29.992  29.743  0.2714 -0.0223  0.4090
 4009DDP     P224051   2.712  29.707  30.176 -0.1653  0.3543 -0.0086
 4009DDP     C224052   2.923  29.885   0.146  0.1450 -0.0227  0.0119
 4009DDP     C324053   2.390   0.058  29.662  0.1009 -0.1208 -0.0003
 4009DDP     C424054   2.493  29.404  29.386 -0.0818 -0.0928  0.2328
 4010DDP     C124055  26.547  13.789  12.897 -0.1524 -0.0096 -0.0366
 4010DDP     P124056  26.417  13.482  13.255 -0.0174 -0.0565  0.0745
 4010DDP     P224057  26.437  13.757  12.457 -0.1452  0.3662 -0.1062
 4010DDP     C224058  26.138  13.929  12.133  0.0520 -0.0449 -0.1573
 4010DDP     C324059  26.392  13.600  13.669  0.0336  0.2718  0.3234
 4010DDP     C424060  26.785  14.207  12.894  0.2238 -0.0495 -0.1850
 4011DDP     C124061  26.593  28.492   5.838 -0.0488 -0.0681  0.0342
 4011DDP     P124062  26.996  28.257   5.700 -0.0596 -0.1056 -0.2960
 4011DDP     P224063  26.250  28.222   5.607  0.2486 -0.0190  0.0755
 4011DDP     C224064  25.933  28.061   5.261  0.2886 -0.1066 -0.1765
 4011DDP     C324065  27.295  27.947   5.509  0.1008 -0.1028 -0.0166
 4011DDP     C424066  26.615  28.869   6.054 -0.0034 -0.2461 -0.0202
 4012DDP     C124067   9.706  20.701  24.782  0.2770 -0.0807 -0.2006
 4012DDP     P124068   9.722  20.262  25.139 -0.1162 -0.0052 -0.1530
 4012DDP     P224069  10.069  20.963  24.804 -0.2566  0.1483 -0.1437
 4012DDP     C224070  10.312  21.164  25.073 -0.0055  0.1080 -0.0987
 4012DDP     C324071  10.036  19.901  25.356 -0.2219  0.0557 -0.0605
 4012DDP     C424072   9.270  20.947  24.739 -0.0678 -0.2923  0.1868
 4013DDP     C124073  30.198  11.336  21.315  0.1135 -0.1465  0.2645
 4013DDP     P124074  30.212  11.099  21.682  0.1306  0.4616  0.0260
 4013DDP     P224075  30.259  11.125  20.932 -0.0082 -0.1226  0.1218
 4013DDP     C224076  30.212  10.879  20.568  0.1353  0.1605 -0.0073
 4013DDP     C324077  29.849  10.801  21.716  0.0817 -0.0236 -0.1703
 4013DDP     C424078  29.873  11.683  21.396 -0.2640 -0.0070  0.1666
 4014DDP     C124079   6.069  14.488  15.498 -0.0167  0.2072 -0.0276
 4014DDP     P124080   6.206  14.608  15.113 -0.1032  0.1766  0.1927
 4014DDP     P224081   6.399  14.685  15.679  0.0556  0.3131  0.0341
 4014DDP     C224082   6.455  14.774  16.213  0.2147 -0.1650  0.0222
 4014DDP     C324083   6.167  14.494  14.618 -0.2982 -0.0645  0.3263
 4014DDP     C424084   5.719  14.434  15.628 -0.0336 -0.1500 -0.1968
 4015DDP     C124085  13.811   1.652   2.754 -0.1880  0.4383 -0.0323
 4015DDP     P124086  14.160   1.291   2.534  0.2004 -0.2402  0.2197
 4015DDP     P224087  13.952   1.904   3.009 -0.0091  0.0709 -0.0858
 4015DDP     C224088  13.965   1.970   3.420 -0.0658 -0.1096  0.1234
 4015DDP     C324089  13.970   0.833   2.478  0.0916 -0.1320  0.2967
 4015DDP     C424090  13.453   1.733   2.515  0.3095  0.0823  0.0210
 4016DDP     C124091   6.082   6.283  14.890 -0.1846 -0.0707  0.0782
 4016DDP     P124092   6.354   6.590  14.786 -0.0546  0.4107 -0.0046
 4016DDP     P224093   5.665   6.369  14.818 -0.1442 -0.0080  0.2040
 4016DDP     C224094   5.319   6.258  14.688 -0.0130  0.1450  0.2486
 4016DDP     C324095   6.506   6.858  15.099  0.1798 -0.0042 -0.1300
 4016DDP     C424096   6.120   5.960  15.204  0.1108  0.2382 -0.1872
 4017DDP     C124097  18.011  26.772  17.411 -0.0171 -0.1924 -0.1818
 4017DDP     P124098  17.637  26.696  17.255 -0.0012  0.2822 -0.3557
 4017DDP     P224099  18.407  26.492  17.141  0.0025 -0.1402 -0.0626
 4017DDP     C224100  18.593  26.119  16.912  0.0292  0.3947 -0.0958
 4017DDP     C324101  17.543  26.562  16.797 -0.0943 -0.2292  0.0139
 4017DDP     C424102  18.196  27.079  17.706  0.1055 -0.1703  0.0949
 4018DDP     C124103   1.718  10.836  10.270  0.0542 -0.4827 -0.1969
 4018DDP     P124104   1.531  10.426  10.300  0.0666 -0.1454  0.2998
 4018DDP     P224105   1.982  10.890   9.869 -0.2223  0.0821 -0.1129
 4018DDP     C224106   2.422  10.750   9.747  0.0796 -0.0676 -0.3943
 4018DDP     C324107   1.370  10.034  10.394  0.1612 -0.1936 -0.2244
 4018DDP     C424108   1.807  11.183  10.559 -0.0083 -0.1426  0.1234
 4019DDP     C124109  21.821  25.591   7.278  0.1547  0.1101 -0.2376
 4019DDP     P124110  22.206  25.398   7.386  0.2022 -0.0618  0.1827
 4019DDP     P224111  21.451  25.376   7.205 -0.2887 -0.1105 -0.1951
 4019DDP     C224112  21.016  25.151   7.241 -0.3184 -0.0838  0.1458
 4019DDP     C324113  22.611  25.229   7.561  0.0253 -0.2597  0.1277
 4019DDP     C424114  21.878  26.061   7.133 -0.2736 -0.1267 -0.1165
 4020DDP     C124115  23.747   0.660  21.708  0.0246  0.2454 -0.0795
 4020DDP     P124116  23.466   0.827  22.013 -0.0446  0.0148  0.2969
 4020DDP     P224117  24.154   0.699  21.403  0.1682 -0.1338 -0.1181
 4020DDP     C224118  24.410   0.827  21.096  0.1041 -0.1902 -0.0915
 4020DDP     C324119  23.260   0.761  22.389 -0.1693 -0.0829 -0.1108
 4020DDP     C424120  23.390   0.483  21.554 -0.0970 -0.1988 -0.3251
 4021DDP     C124121  20.729  28.380  12.756  0.2024 -0.2077  0.3182
 4021DDP     P124122  21.155  28.302  12.600  0.0742  0.1492  0.1522
 4021DDP     P224123  20.447  28.104  13.038  0.1973 -0.0934  0.0461
 4021DDP     C224124  20.231  27.790  12.943  0.1154 -0.1283  0.0344
 4021DDP     C324125  21.566  28.405  12.406  0.4200  0.1015  0.0132
 4021DDP     C424126  20.409  28.663  12.544  0.0682 -0.0504 -0.0558
 4022DDP     C124127  16.630   8.830   0.744 -0.0048 -0.2843  0.1049
 4022DDP     P124128  16.378   8.836   0.414  0.4846  0.1203  0.0235
 4022DDP     P224129  16.388   8.513   0.924  0.3685 -0.1662  0.2561
 4022DDP     C224130  16.447   8.353   1.297  0.2222 -0.1548  0.1440
 4022DDP     C324131  16.368   8.657  30.276  0.0388 -0.0245 -0.2023
 4022DDP     C424132  17.139   8.860   0.751 -0.2837 -0.0824  0.3734
 4023DDP     C124133  10.901  16.207  27.819  0.0893 -0.0787 -0.1550
 4023DDP     P124134  11.030  15.936  27.479  0.0809  0.1425 -0.1421
 4023DDP     P224135  10.484  15.975  27.980  0.1134  0.1114  0.0949
 4023DDP     C224136  10.539  15.575  28.063  0.1105 -0.0078 -0.3008
 4023DDP     C324137  11.199  16.038  27.025  0.1591  0.2559  0.4481
 4023DDP     C424138  10.954  16.715  27.775  0.2353 -0.1886  0.0869
 4024DDP     C124139   3.118  27.299   3.498 -0.1196  0.0809 -0.1788
 4024DDP     P124140   3.358  27.214   3.795  0.3583  0.1294  0.2277
 4024DDP     P224141   3.366  27.249   3.132 -0.2427 -0.2049 -0.4201
 4024DDP     C224142   3.509  27.191   2.726 -0.0156 -0.0146 -0.0542
 4024DDP     C324143   3.563  27.106   4.141  0.1758 -0.5014 -0.2362
 4024DDP     C424144   2.631  27.321   3.581 -0.1179 -0.2244  0.0632
 4025DDP     C124145  17.943  20.652  24.799  0.0147  0.1498 -0.2915
 4025DDP     P124146  17.470  20.579  24.909 -0.2835  0.3826  0.0879
 4025DDP     P224147  18.051  20.562  25.112  0.2147  0.2235  0.0044
 4025DDP     C224148  18.017  20.721  25.353  0.3050  0.1183  0.0241
 4025DDP     C324149  17.200  20.332  25.183  0.0421  0.0678  0.0853
 4025DDP     C424150  18.084  20.497  24.440  0.1042  0.0158 -0.0810
 4026DDP     C124151  13.626  25.083   0.313  0.1397 -0.3096  0.3552
 4026DDP     P124152  13.393  25.461   0.331 -0.3053 -0.0513  0.0516
 4026DDP     P224153  13.519  24.655   0.154 -0.0453  0.1933 -0.0103
 4026DDP     C224154  13.411  24.233   0.015 -0.0055  0.0044 -0.3092
 4026DDP     C324155  13.150  25.808   0.090  0.2418 -0.0657  0.1437
 4026DDP     C424156  14.078  25.275   0.355  0.1016 -0.1699  0.1288
 4027DDP     C124157   7.268   1.457  18.914  0.3602  0.2357 -0.0418
 4027DDP     P124158   7.589   1.331  18.622  0.2865 -0.0148 -0.1447
 4027DDP     P224159   7.299   1.839  18.802  0.2697  0.1175  0.1092
 4027DDP     C224160   7.149   2.092  18.454  0.0711 -0.0133  0.0331
 4027DDP     C324161   7.927   1.048  18.380 -0.0490  0.3981  0.0796
 4027DDP     C424162   6.851   1.205  19.242  0.0097  0.0569 -0.0422
 4028DDP     C124163  20.848   6.681  19.549 -0.3458  0.0267 -0.1757
 4028DDP     P124164  21.031   6.513  19.922  0.0113 -0.2021 -0.3094
 4028DDP     P224165  21.129   6.851  19.194 -0.1082 -0.0320  0.0602
 4028DDP     C224166  21.412   7.116  18.926  0.2794  0.1153  0.1837
 4028DDP     C324167  21.108   6.599  20.314 -0.1584  0.0035 -0.0975
 4028DDP     C424168  20.409   6.648  19.471  0.0757 -0.1452  0.2197
 4029DDP     C124169   8.080  14.855   0.885  0.0862 -0.2075  0.4316
 4029DDP     P124170   8.483  14.625   0.939 -0.0790  0.0632 -0.0243
 4029DDP     P224171   7.939  15.250   1.011 -0.0107 -0.1350 -0.0185
 4029DDP     C224172   7.662  15.433   1.314 -0.0169 -0.0914  0.2821
 4029DDP     C324173   8.928  14.498   0.939 -0.0968  0.3949  0.2127
 4029DDP     C424174   7.777  14.538   0.761  0.0183  0.0998 -0.0632
 4030DDP     C124175  21.539  14.868  14.162  0.0927 -0.3299 -0.2983
 4030DDP     P124176  21.709  15.236  14.246 -0.0124  0.1849 -0.1654
 4030DDP     P224177  21.189  14.787  14.220  0.0296 -0.0487 -0.1763
 4030DDP     C224178  20.831  14.833  14.521  0.2318  0.2961 -0.0184
 4030DDP     C324179  21.640  15.451  14.481 -0.1316  0.0693 -0.0392
 4030DDP     C424180  21.978  14.721  14.027 -0.1711 -0.2090 -0.3927
 4031DDP     C124181  29.771   7.465  17.468 -0.1090 -0.2288 -0.1399
 4031DDP     P124182  29.696   7.211  17.924  0.0146  0.0621  0.1374
 4031DDP     P224183  29.490   7.366  17.055 -0.3738  0.2110 -0.0070
 4031DDP     C224184  29.687   7.310  16.620  0.1173 -0.1515  0.0337
 4031DDP     C324185  29.664   6.844  18.124 -0.0306  0.1975  0.2395
 4031DDP     C424186  30.049   7.784  17.237  0.0308 -0.0104 -0.0085
 4032DDP     C124187  21.392   4.881  20.142 -0.0161 -0.1266  0.0072
 4032DDP     P124188  21.160   5.291  19.943 -0.0904  0.0780 -0.1069
 4032DDP     P224189  21.862   4.846  20.268 -0.0193  0.3213  0.0176
 4032DDP     C224190  22.262   4.860  20.308  0.3509  0.1074 -0.0785
 4032DDP     C324191  20.835   5.478  19.730 -0.0669  0.0360  0.2335
 4032DDP     C424192  21.189   4.603  19.967  0.0482  0.0181  0.2377
 4033DDP     C124193  16.901  18.890  24.243  0.1225  0.0516 -0.3519
 4033DDP     P124194  16.574  18.881  23.939  0.2302 -0.1147 -0.1680
 4033DDP     P224195  17.296  18.840  24.217  0.1653 -0.1862 -0.0615
 4033DDP     C224196  17.661  19.064  24.222 -0.0335 -0.1034 -0.2343
 4033DDP     C324197  16.421  18.815  23.518  0.2407  0.0556 -0.1052
 4033DDP     C424198  16.743  19.032  24.664  0.4648  0.1127 -0.0068
 4034DDP     C124199  15.160  27.143  13.049 -0.0885 -0.3351 -0.0334
 4034DDP     P124200  15.589  27.277  12.771  0.2086  0.2928  0.0331
 4034DDP     P224201  15.009  27.373  13.484 -0.0444 -0.1642  0.1032
 4034DDP     C224202  14.966  27.348  13.967  0.0087  0.2052  0.2736
 4034DDP     C324203  15.981  27.372  12.765  0.1896  0.1096  0.1919
 4034DDP     C424204  14.914  26.703  12.974  0.1535  0.0463 -0.1577
 4035DDP     C124205  27.314   3.027  25.840 -0.0143  0.2651  0.0953
 4035DDP     P124206  26.991   3.280  25.751 -0.0623 -0.0747  0.0401
 4035DDP     P224207  27.695   3.097  26.064 -0.1395 -0.2504  0.2811
 4035DDP     C224208  27.805   3.457  26.322  0.0163  0.1027  0.0638
 4035DDP     C324209  26.621   3.426  26.039  0.1565  0.0108  0.0075
 4035DDP     C424210  27.446   2.597  25.605  0.0778  0.0090  0.2696
 4036DDP     C124211   4.154   4.880  18.161  0.3650  0.0826 -0.0846
 4036DDP     P124212   4.051   4.496  18.171  0.1401 -0.4222  0.0944
 4036DDP     P224213   3.740   5.252  18.044 -0.4218  0.0754 -0.0313
 4036DDP     C224214   3.451   5.513  17.900  0.2016  0.3247  0.4364
 4036DDP     C324215   4.405   4.223  18.095  0.1941  0.0045  0.2269
 4036DDP     C424216   4.511   5.018  18.419 -0.1812  0.1948  0.0811
 4037DDP     C124217  23.006  27.957  20.977  0.3247  0.1434  0.0148
 4037DDP     P124218  22.830  28.434  20.845  0.0528 -0.0479 -0.0053
 4037DDP     P224219  23.476  27.915  20.816  0.1465  0.1791 -0.0176
 4037DDP     C224220  23.710  27.639  20.524 -0.0746  0.0391 -0.3066
 4037DDP     C324221  22.404  28.590  20.647  0.2457 -0.1220  0.0341
 4037DDP     C424222  22.821  27.778  21.310 -0.0172  0.0793 -0.0623
 4038DDP     C124223  10.659   2.413  18.326 -0.0255  0.1740  0.0228
 4038DDP     P124224  11.055   2.491  18.453  0.0203 -0.2847  0.2581
 4038DDP     P224225  10.329   2.154  18.403 -0.3614 -0.2162  0.0026
 4038DDP     C224226   9.996   1.922  18.659  0.0540 -0.4176  0.2271
 4038DDP     C324227  11.465   2.803  18.672 -0.2885  0.1213 -0.1579
 4038DDP     C424228  10.773   2.533  17.855 -0.2952 -0.0597  0.0325
 4039DDP     C124229  22.145  17.334  14.765  0.0308 -0.0595  0.0932
 4039DDP     P124230  22.206  16.893  14.792  0.0049  0.0432 -0.0139
 4039DDP     P224231  22.045  17.601  14.433  0.0742  0.0124 -0.3179
 4039DDP     C224232  22.147  18.023  14.231 -0.0303 -0.2840  0.2673
 4039DDP     C324233  22.470  16.500  14.837 -0.0177  0.2898  0.0123
 4039DDP     C424234  22.153  17.395  15.155 -0.1146  0.5515  0.1335
 4040DDP     C124235  17.221  27.797   8.804  0.0402  0.1106 -0.1316
 4040DDP     P124236  17.541  28.068   8.735 -0.0175 -0.1635 -0.1296
 4040DDP     P224237  17.044  27.695   9.246  0.0769 -0.2783  0.1058
 4040DDP     C224238  16.930  27.817   9.649 -0.0231 -0.0150  0.1848
 4040DDP     C324239  17.887  28.163   9.149  0.2306 -0.2194  0.0868
 4040DDP     C424240  17.110  27.538   8.431  0.0108  0.1273 -0.0525
 4041DDP     C124241  20.808  11.772  15.362  0.0955  0.1793  0.0415
 4041DDP     P124242  21.211  12.020  15.361 -0.2090  0.2623 -0.0928
 4041DDP     P224243  20.841  11.286  15.212  0.1182  0.1379  0.0306
 4041DDP     C224244  20.877  10.821  15.210  0.0778 -0.3862  0.0756
 4041DDP     C324245  21.458  11.847  15.050 -0.2743  0.3020  0.0891
 4041DDP     C424246  20.493  11.921  15.439  0.1627 -0.1190 -0.1439
 4042DDP     C124247  16.257   8.675  24.843 -0.1142  0.0910 -0.0463
 4042DDP     P124248  16.642   8.610  24.539  0.0891 -0.1876  0.1493
 4042DDP     P224249  16.150   8.271  24.961  0.0162  0.2183  0.1652
 4042DDP     C224250  16.146   7.838  25.075  0.0981 -0.1328  0.1429
 4042DDP     C324251  16.980   8.818  24.573 -0.0637  0.0883  0.0629
 4042DDP     C424252  16.153   8.938  25.125  0.0141 -0.0457 -0.3686
 4043DDP     C124253   4.097  11.860   2.294  0.0635 -0.2385 -0.0762
 4043DDP     P124254   4.087  12.318   2.209  0.1592 -0.0194 -0.2685
 4043DDP     P224255   4.175  11.627   2.533 -0.0590 -0.0407 -0.3456
 4043DDP     C224256   4.252  11.151   2.782  0.1152 -0.2277  0.5435
 4043DDP     C324257   4.164  12.521   1.870 -0.1817 -0.2109  0.0224
 4043DDP     C424258   4.100  11.553   1.886 -0.1776 -0.1066  0.0789
 4044DDP     C124259   7.959  13.537   9.734  0.0158  0.1472 -0.3361
 4044DDP     P124260   8.124  13.895  10.016  0.2991  0.1820 -0.1174
 4044DDP     P224261   7.841  13.124   9.933  0.2962 -0.2035  0.0751
 4044DDP     C224262   7.476  12.968  10.099  0.3378 -0.1045 -0.0949
 4044DDP     C324263   8.112  14.102  10.507 -0.1297  0.1755 -0.1156
 4044DDP     C424264   7.935  13.503   9.282  0.2708 -0.2945  0.2272
 4045DDP     C124265  29.933  30.263  29.274 -0.3457  0.1393 -0.1032
 4045DDP     P124266  30.117  29.874  28.978  0.1421 -0.0412 -0.0636
 4045DDP     P224267  30.103   0.213  29.659  0.1367 -0.1017  0.3021
 4045DDP     C224268  30.241   0.650  29.723 -0.0498 -0.2899 -0.0292
 4045DDP     C324269   0.052  29.481  28.805  0.0986  0.4047 -0.0449
 4045DDP     C424270  30.005   0.373  29.137  0.0837 -0.1151 -0.3185
 4046DDP     C124271  17.378  29.919   1.775  0.1234 -0.1841 -0.3699
 4046DDP     P124272  17.333  29.452   1.695 -0.0421 -0.1418  0.0695
 4046DDP     P224273  17.557  29.761   2.233  0.5678  0.3908 -0.0473
 4046DDP     C224274  17.938  29.859   2.403 -0.1069  0.2043  0.1412
 4046DDP     C324275  17.262  29.374   1.275  0.0361  0.2668  0.2393
 4046DDP     C424276  17.271  30.285   1.606 -0.2286  0.0839  0.0640
 4047DDP     C124277   9.376  12.926   3.041  0.1592 -0.1945  0.1610
 4047DDP     P124278   9.046  12.552   3.012  0.0184  0.2249 -0.1926
 4047DDP     P224279   9.423  13.061   3.418 -0.0577  0.0536  0.0246
 4047DDP     C224280   9.434  13.283   3.792 -0.0517  0.1036 -0.0764
 4047DDP     C324281   8.884  12.165   3.286  0.3535 -0.2606 -0.1347
 4047DDP     C424282   9.533  13.205   2.819 -0.0669 -0.0772 -0.1006
 4048DDP     C124283  17.716  15.291   2.629  0.1348  0.0733  0.1330
 4048DDP     P124284  17.473  15.428   2.285  0.3306  0.1268  0.1035
 4048DDP     P224285  17.541  15.666   2.930 -0.4333  0.1404 -0.0813
 4048DDP     C224286  17.372  15.991   3.136 -0.2199 -0.2021  0.1148
 4048DDP     C324287  17.123  15.535   2.183 -0.0342 -0.1760  0.1715
 4048DDP     C424288  17.977  14.935   2.810 -0.2645  0.2828  0.0868
 4049DDP     C124289   7.624   9.234  28.862 -0.0897  0.2638 -0.2295
 4049DDP     P124290   7.641   9.696  28.702 -0.0658  0.1459  0.3456
 4049DDP     P224291   7.556   9.088  29.153  0.1663 -0.0252  0.3336
 4049DDP     C224292   7.618   8.902  29.635  0.0741 -0.0444 -0.0331
 4049DDP     C324293   7.912  10.060  28.717  0.0837  0.1803  0.0746
 4049DDP     C424294   7.528   8.976  28.583  0.0483 -0.0109 -0.1197
 4050DDP     C124295   2.215   8.918  29.165  0.1112  0.2066 -0.1646
 4050DDP     P124296   1.856   8.765  28.929  0.2867  0.1290  0.1059
 4050DDP     P224297   2.353   9.191  29.488  0.2011  0.0610  0.0001
 4050DDP     C224298   2.742   9.317  29.721  0.0708 -0.2431  0.1176
 4050DDP     C324299   1.822   8.607  28.553 -0.0205 -0.1723  0.1260
 4050DDP     C424300   2.539   8.530  29.142  0.0075  0.1601 -0.0793
 4051DDP     C124301   3.377  29.196   3.018  0.0774  0.0734  0.2625
 4051DDP     P124302   3.035  29.526   2.995 -0.2748 -0.0058  0.2856
 4051DDP     P224303   3.616  29.058   3.355 -0.0455 -0.1591 -0.1027
 4051DDP     C224304   3.987  28.835   3.450  0.0174  0.2927 -0.0776
 4051DDP     C324305   2.616  29.711   2.916 -0.1067 -0.0742  0.1035
 4051DDP     C424306   3.494  29.038   2.549 -0.1207  0.2315 -0.2108
 4052DDP     C124307   9.034  16.126  29.361 -0.0133  0.2242  0.2153
 4052DDP     P124308   8.742  16.102  29.700 -0.1290  0.0996 -0.3256
 4052DDP     P224309   9.089  16.560  29.123  0.0942  0.0315 -0.1209
 4052DDP     C224310   8.872  16.949  29.029  0.0796  0.1158  0.0485
 4052DDP     C324311   8.624  16.300  30.020  0.0443  0.0926 -0.0545
 4052DDP     C424312   9.394  15.770  29.108  0.0521  0.2119  0.0161
 4053DDP     C124313  28.469   7.581   7.561  0.1035  0.1404 -0.0453
 4053DDP     P124314  28.585   7.211   7.683  0.2743  0.3081 -0.0138
 4053DDP     P224315  28.502   7.938   7.982 -0.2249 -0.0428 -0.1484
 4053DDP     C224316  28.574   8.072   8.352  0.0807 -0.1707 -0.2173
 4053DDP     C324317  28.479   6.711   7.831  0.0673  0.2163 -0.0985
 4053DDP     C424318  28.412   7.628   7.196  0.0586  0.2427  0.3386
 4054DDP     C124319   2.429  13.727  21.138 -0.0487 -0.0678 -0.0041
 4054DDP     P124320   2.550  14.150  20.990  0.1390 -0.0049 -0.1750
 4054DDP     P224321   2.305  13.515  21.519  0.1764  0.2675  0.1989
 4054DDP     C224322   2.653  13.268  21.841  0.0139 -0.0606 -0.1228
 4054DDP     C324323   2.820  14.539  21.112  0.0454  0.0474  0.1421
 4054DDP     C424324   2.407  13.367  20.866 -0.2866  0.1392  0.1522
 4055DDP     C124325   8.064  15.224  17.076 -0.1239 -0.0398 -0.2737
 4055DDP     P124326   7.666  15.329  16.886 -0.3071 -0.1262  0.0083
 4055DDP     P224327   8.433  15.434  16.977 -0.1600  0.3173  0.2191
 4055DDP     C224328   8.553  15.808  16.788 -0.1148  0.2932  0.3973
 4055DDP     C324329   7.319  15.385  17.155 -0.2056  0.0145 -0.0369
 4055DDP     C424330   7.866  15.127  17.469 -0.0400  0.0024  0.1331
 4056DDP     C124331  29.694  11.826  14.558  0.1584  0.0304  0.2241
 4056DDP     P124332  29.814  12.164  14.236 -0.0598  0.1851  0.0053
 4056DDP     P224333  29.349  11.660  14.569  0.0269  0.0939 -0.0055
 4056DDP     C224334  28.857  11.771  14.559  0.1757 -0.1108  0.1838
 4056DDP     C324335  30.223  12.217  13.994  0.0483  0.0170 -0.0357
 4056DDP     C424336  30.032  11.631  14.626 -0.0030  0.0318 -0.3056
 4057DDP     C124337   3.953   7.517  28.185  0.1771 -0.3137  0.0553
 4057DDP     P124338   3.868   7.042  28.160 -0.1033  0.0761 -0.0910
 4057DDP     P224339   3.740   7.636  28.644 -0.0507 -0.2838 -0.2238
 4057DDP     C224340   3.736   7.419  29.036 -0.3383 -0.0051  0.1879
 4057DDP     C324341   3.991   6.583  28.123  0.4396  0.1977  0.4006
 4057DDP     C424342   3.868   7.441  27.710 -0.2433  0.0309  0.1081
 4058DDP     C124343  14.421   9.249   5.129 -0.0050 -0.1328  0.2814
 4058DDP     P124344  14.550   9.688   5.267 -0.2911 -0.1500 -0.1161
 4058DDP     P224345  14.803   9.044   4.805 -0.1033  0.1620 -0.1781
 4058DDP     C224346  15.035   8.797   4.456 -0.0368  0.0453  0.1005
 4058DDP     C324347  14.377   9.882   5.665  0.2315  0.1521 -0.0246
 4058DDP     C424348  14.057   9.141   5.176  0.0792 -0.0914 -0.0823
 4059DDP     C124349   9.970  29.127  22.893 -0.4167  0.2172 -0.0269
 4059DDP     P124350   9.640  28.880  23.133  0.3985  0.0037  0.0997
 4059DDP     P224351   9.720  29.292  22.576  0.0859 -0.2570  0.0542
 4059DDP     C224352   9.514  29.444  22.222 -0.2713 -0.0476  0.1888
 4059DDP     C324353   9.396  28.644  23.458  0.0146  0.0634 -0.4356
 4059DDP     C424354  10.335  29.209  22.976 -0.0466  0.3334  0.0803
 4060DDP     C124355  24.145  22.533  14.951  0.0161 -0.1121  0.1506
 4060DDP     P124356  24.127  22.491  15.352  0.0724 -0.2232  0.0329
 4060DDP     P224357  23.948  22.757  14.656 -0.0031  0.0171 -0.1451
 4060DDP     C224358  23.647  22.725  14.310  0.3051 -0.1254  0.2550
 4060DDP     C324359  24.189  22.855  15.628  0.3833  0.2857  0.0727
 4060DDP     C424360  24.368  22.138  14.774  0.1765 -0.0410 -0.0376
 4061DDP     C124361  11.697  21.823   3.513 -0.0035 -0.0068 -0.0363
 4061DDP     P124362  11.386  21.588   3.467 -0.1235 -0.1238 -0.2422
 4061DDP     P224363  12.096  21.595   3.746  0.1659 -0.0679 -0.2244
 4061DDP     C224364  12.441  21.384   3.885 -0.0010 -0.1731  0.1014
 4061DDP     C324365  11.216  21.323   3.207 -0.2095 -0.0932  0.5122
 4061DDP     C424366  11.746  22.179   3.263  0.2973  0.2723  0.1065
 4062DDP     C124367   8.000  10.476  26.002  0.1786  0.0195  0.0837
 4062DDP     P124368   8.332  10.728  25.795  0.5542 -0.0387 -0.0161
 4062DDP     P224369   7.669  10.260  25.936 -0.0478  0.4047  0.0436
 4062DDP     C224370   7.500   9.885  26.184 -0.2313 -0.0536 -0.2475
 4062DDP     C324371   8.707  10.836  25.960  0.0892 -0.0514  0.1353
 4062DDP     C424372   8.099  10.642  26.387 -0.2711 -0.0080 -0.0101
 4063DDP     C124373  27.406   8.393  25.334  0.1052 -0.0354  0.0075
 4063DDP     P124374  27.048   8.200  25.279  0.3899 -0.1550 -0.0759
 4063DDP     P224375  27.618   8.318  25.771  0.2181 -0.0094 -0.1107
 4063DDP     C224376  27.866   8.304  26.170 -0.1907 -0.3143 -0.1954
 4063DDP     C324377  26.710   8.020  25.618 -0.0425 -0.1619 -0.1571
 4063DDP     C424378  27.514   8.421  25.013  0.1585  0.0042 -0.0018
 4064DDP     C124379  10.872  14.483  14.081 -0.1852  0.1255 -0.0254
 4064DDP     P124380  11.401  14.630  14.159  0.1353 -0.2967 -0.0362
 4064DDP     P224381  10.740  14.574  13.596 -0.0429  0.2960 -0.2851
 4064DDP     C224382  10.394  14.484  13.283 -0.0727 -0.1544  0.1372
 4064DDP     C324383  11.796  14.624  13.839  0.0259 -0.2150 -0.0342
 4064DDP     C424384  10.597  14.290  14.364  0.0884 -0.0532  0.1001
 4065DDP     C124385  12.858  12.235  13.847  0.1325 -0.2218  0.0800
 4065DDP     P124386  13.061  12.354  13.603 -0.1144  0.2118  0.0211
 4065DDP     P224387  12.467  12.010  13.796  0.0782  0.4933  0.1014
 4065DDP     C224388  12.094  11.846  13.812 -0.1918  0.2452 -0.0792
 4065DDP     C324389  13.536  12.276  13.638 -0.0602  0.2908 -0.1914
 4065DDP     C424390  12.959  12.518  14.138 -0.5048 -0.0705  0.0870
 4066DDP     C124391   1.761  13.396   6.782 -0.2076 -0.1838  0.1602
 4066DDP     P124392   1.744  13.404   6.354  0.0203 -0.2611 -0.3364
 4066DDP     P224393   1.871  13.282   7.101 -0.1406  0.0480 -0.0498
 4066DDP     C224394   1.851  12.916   7.431 -0.2194 -0.1591 -0.1609
 4066DDP     C324395   1.473  13.820   6.227 -0.1778 -0.1664  0.3705
 4066DDP     C424396   1.753  13.882   6.740 -0.1793  0.0873  0.1576
 4067DDP     C124397   2.395   6.948  27.625 -0.3068 -0.0670 -0.1781
 4067DDP     P124398   2.657   6.881  27.894 -0.0562 -0.1217  0.1890
 4067DDP     P224399   2.453   7.152  27.272 -0.1848  0.0340 -0.1136
 4067DDP     C224400   2.748   7.335  26.985 -0.0033  0.1382 -0.0690
 4067DDP     C324401   2.812   6.571  28.039  0.1053  0.1536 -0.0444
 4067DDP     C424402   2.028   7.016  27.859  0.0428  0.0687  0.0942
 4068DDP     C124403   1.709   2.735  18.638 -0.2348  0.2365 -0.0379
 4068DDP     P124404   1.608   2.677  18.217 -0.1163 -0.0221 -0.3862
 4068DDP     P224405   2.108   2.755  18.916  0.2349 -0.1315 -0.0113
 4068DDP     C224406   2.380   2.826  19.242 -0.1828 -0.1975 -0.3935
 4068DDP     C324407   1.786   2.843  17.846  0.2686  0.0764  0.1816
 4068DDP     C424408   1.397   3.011  18.863  0.3408  0.1402  0.1012
 4069DDP     C124409  22.065  15.789  28.943 -0.0111 -0.0915  0.1810
 4069DDP     P124410  22.044  15.789  29.399 -0.0384  0.1007  0.1179
 4069DDP     P224411  21.722  15.509  28.904 -0.1925  0.1226 -0.0525
 4069DDP     C224412  21.487  15.447  28.661 -0.0009  0.0056 -0.0363
 4069DDP     C324413  21.749  15.699  29.749 -0.0052 -0.0099  0.1272
 4069DDP     C424414  22.415  15.810  28.685 -0.0796 -0.0656  0.1348
 4070DDP     C124415  17.931  14.405  20.141  0.1048 -0.0333 -0.0120
 4070DDP     P124416  17.670  14.176  19.862  0.2206  0.1286 -0.2768
 4070DDP     P224417  18.331  14.459  20.125  0.0143 -0.1106 -0.0578
 4070DDP     C224418  18.525  14.602  19.798  0.2782 -0.3099  0.1806
 4070DDP     C324419  17.568  14.061  19.404  0.0700  0.1923 -0.2658
 4070DDP     C424420  17.641  14.526  20.409 -0.2658 -0.1966  0.1850
 4071DDP     C124421  16.318  12.211  22.428  0.0511  0.1774  0.0714
 4071DDP     P124422  16.130  12.562  22.099  0.3143 -0.0956 -0.1101
 4071DDP     P224423  16.083  11.934  22.514  0.1726  0.3304 -0.1957
 4071DDP     C224424  15.732  11.690  22.568  0.2935  0.0480  0.0086
 4071DDP     C324425  16.048  13.041  21.942 -0.2152 -0.0661  0.4778
 4071DDP     C424426  16.758  12.099  22.345  0.1124  0.0811 -0.0369
 4072DDP     C124427  22.726  20.943   3.975 -0.3319 -0.2484 -0.3178
 4072DDP     P124428  22.683  20.942   4.393  0.2452  0.1790 -0.1257
 4072DDP     P224429  22.433  21.259   3.843 -0.0618 -0.1311  0.0718
 4072DDP     C224430  22.457  21.615   3.485  0.0828 -0.0685 -0.1102
 4072DDP     C324431  22.417  20.687   4.685  0.1099 -0.1122  0.2946
 4072DDP     C424432  22.890  20.610   3.679 -0.1149  0.2923 -0.1313
 4073DDP     C124433  16.240  12.516   9.311 -0.4567 -0.0597 -0.2498
 4073DDP     P124434  16.105  12.065   9.296  0.1921 -0.4246 -0.0560
 4073DDP     P224435  16.415  12.871   9.064  0.1467 -0.0180 -0.1187
 4073DDP     C224436  16.615  13.263   8.991  0.1661  0.0599  0.4613
 4073DDP     C324437  16.066  11.924   9.765 -0.1714  0.1205 -0.0794
 4073DDP     C424438  16.073  12.508   9.861 -0.1903  0.1603 -0.2081
 4074DDP     C124439   1.130  24.406  30.226 -0.3417 -0.1072  0.2484
 4074DDP     P124440   0.911  24.753   0.034 -0.0434  0.0168 -0.0551
 4074DDP     P224441   0.899  24.087  30.000  0.3427  0.2069  0.2255
 4074DDP     C224442   0.524  23.950  29.783  0.1195 -0.1196  0.0208
 4074DDP     C324443   0.720  25.106  30.123 -0.1049 -0.3384  0.0960
 4074DDP     C424444   1.439  24.455   0.185 -0.1447  0.3580  0.1855
 4075DDP     C124445   1.566  27.453  17.702  0.0549 -0.1719 -0.0945
 4075DDP     P124446   1.251  27.495  18.080  0.1403  0.1262 -0.1594
 4075DDP     P224447   1.333  27.661  17.322 -0.0571  0.5672 -0.0739
 4075DDP     C224448   1.306  27.897  16.886 -0.0375  0.0193 -0.0023
 4075DDP     C324449   0.824  27.549  18.208  0.0060  0.2267 -0.1551
 4075DDP     C424450   2.030  27.454  17.849 -0.1503 -0.0906 -0.0607
 4076DDP     C124451  29.602  26.946   3.515  0.0484 -0.2129  0.1400
 4076DDP     P124452  29.221  26.913   3.650  0.1287  0.0435  0.1716
 4076DDP     P224453  29.771  27.426   3.488 -0.0949 -0.1495 -0.0743
 4076DDP     C224454  30.262  27.537   3.476  0.0757  0.0456  0.1134
 4076DDP     C324455  28.741  26.880   3.585  0.1982  0.0270 -0.0588
 4076DDP     C424456  29.891  26.547   3.374 -0.1051 -0.5373 -0.1706
 4077DDP     C124457  10.792   6.917   5.925 -0.0111 -0.0619  0.1764
 4077DDP     P124458  11.025   6.875   6.242 -0.0239 -0.2825 -0.2449
 4077DDP     P224459  10.616   6.991   5.540 -0.3143  0.0665  0.1250
 4077DDP     C224460  10.531   7.500   5.503 -0.3174  0.0494  0.0691
 4077DDP     C324461  11.016   6.527   6.577 -0.1774 -0.0403  0.0724
 4077DDP     C424462  10.890   6.451   5.776 -0.4557 -0.2481 -0.2630
 4078DDP     C124463  25.414  18.161   7.903  0.2363  0.0974 -0.2541
 4078DDP     P124464  25.885  18.043   7.740  0.1872  0.1588  0.1130
 4078DDP     P224465  25.161  18.356   7.589 -0.2992  0.1665  0.0257
 4078DDP     C224466  24.749  18.419   7.365 -0.1930 -0.2841  0.0438
 4078DDP     C324467  26.282  18.054   7.684  0.2708 -0.1234  0.1088
 4078DDP     C424468  25.371  18.147   8.435 -0.1025 -0.4314  0.0121
 4079DDP     C124469   6.389  11.308  23.494  0.0734  0.0620 -0.2707
 4079DDP     P124470   6.543  11.148  23.849  0.0308 -0.2617 -0.0068
 4079DDP     P224471   6.565  11.302  23.060  0.1379 -0.0209 -0.2156
 4079DDP     C224472   6.453  11.270  22.661  0.1709  0.0009 -0.3076
 4079DDP     C324473   6.254  10.993  24.221  0.3415  0.0994  0.0164
 4079DDP     C424474   6.041  11.123  23.561 -0.0859  0.3165 -0.0706
 4080DDP     C124475  12.002  10.423   0.759  0.1888  0.1015 -0.0344
 4080DDP     P124476  11.563  10.692   0.947  0.1800 -0.0218 -0.0064
 4080DDP     P224477  12.299  10.163   0.979 -0.0811 -0.1006  0.0287
 4080DDP     C224478  12.641  10.140   0.986 -0.0358  0.1067  0.1237
 4080DDP     C324479  11.297  10.877   1.152  0.0081  0.2098  0.0920
 4080DDP     C424480  12.076  10.440   0.313 -0.0183  0.2012  0.2006
 4081DDP     C124481  24.509  11.712   2.904 -0.2684  0.0956 -0.0285
 4081DDP     P124482  24.110  11.395   2.791 -0.2464  0.0757  0.3856
 4081DDP     P224483  24.599  11.725   2.616  0.2481 -0.0173  0.1953
 4081DDP     C224484  24.578  12.105   2.285 -0.0099  0.1712  0.1658
 4081DDP     C324485  23.757  11.424   2.491  0.1025  0.1340  0.1939
 4081DDP     C424486  24.727  11.807   3.390  0.2077 -0.0999  0.0109
 4082DDP     C124487   4.597  14.770  19.668 -0.2142 -0.2446  0.1637
 4082DDP     P124488   4.138  14.871  19.748  0.1362  0.0576  0.1490
 4082DDP     P224489   4.754  14.926  19.197 -0.0366  0.1719 -0.1385
 4082DDP     C224490   4.694  15.151  18.850  0.3742  0.2599 -0.2680
 4082DDP     C324491   3.923  15.011  20.107 -0.0196 -0.0210  0.2162
 4082DDP     C424492   4.852  14.513  19.991  0.2998  0.1707 -0.0408
 4083DDP     C124493  21.948  20.535  19.601  0.2029  0.1100 -0.2049
 4083DDP     P124494  22.045  20.254  19.240 -0.0795  0.0841  0.0777
 4083DDP     P224495  22.336  20.499  19.886  0.2178  0.3513 -0.2069
 4083DDP     C224496  22.453  20.125  20.173  0.2715  0.0117  0.1560
 4083DDP     C324497  22.272  20.014  19.073 -0.1400  0.0132 -0.0793
 4083DDP     C424498  21.506  20.692  19.631  0.0178  0.0355  0.2600
 4084DDP     C124499   8.556  13.532   5.826  0.0821 -0.1412 -0.0271
 4084DDP     P124500   8.031  13.551   5.699  0.1006 -0.0801 -0.1112
 4084DDP     P224501   8.846  13.509   5.542 -0.3361 -0.1303 -0.1311
 4084DDP     C224502   9.130  13.593   5.175 -0.1614 -0.5794  0.0519
 4084DDP     C324503   7.914  13.361   5.388  0.1085  0.3374  0.2232
 4084DDP     C424504   8.670  13.314   6.220 -0.0097 -0.0237 -0.1616
 4085DDP     C124505  20.272   5.924   1.491  0.3103 -0.2350 -0.2490
 4085DDP     P124506  20.675   5.846   1.607 -0.1458  0.0425 -0.3438
 4085DDP     P224507  20.129   6.261   1.239 -0.1239  0.1365  0.1373
 4085DDP     C224508  20.049   6.321   0.801  0.2124  0.1371  0.0155
 4085DDP     C324509  20.902   5.553   1.926  0.1103 -0.1586 -0.1271
 4085DDP     C424510  20.035   6.088   1.764  0.4659 -0.1111 -0.1336
 4086DDP     C124511  16.490  11.846  16.275  0.0378  0.2715 -0.0652
 4086DDP     P124512  16.495  12.302  16.319  0.1651 -0.1283  0.1532
 4086DDP     P224513  16.262  11.606  16.063  0.0175  0.0978 -0.1376
 4086DDP     C224514  16.107  11.160  16.120  0.1768 -0.1361  0.0414
 4086DDP     C324515  16.633  12.754  16.467 -0.2106  0.0215 -0.0192
 4086DDP     C424516  16.868  11.626  16.540  0.1375  0.1086 -0.1857
 4087DDP     C124517  18.102  10.618  12.127  0.1164  0.1631 -0.0323
 4087DDP     P124518  17.998  11.131  11.932 -0.1770 -0.1002  0.2116
 4087DDP     P224519  18.210  10.161  11.977 -0.1844  0.4372  0.3138
 4087DDP     C224520  18.069   9.910  11.626  0.0038 -0.1074 -0.2581
 4087DDP     C324521  17.867  11.460  12.210 -0.3923  0.1203 -0.0654
 4087DDP     C424522  17.924  10.649  12.549 -0.0998 -0.3416 -0.1443
 4088DDP     C124523  17.192  17.693  25.037  0.1535 -0.1984 -0.0930
 4088DDP     P124524  17.573  17.737  24.733  0.1393 -0.0648 -0.0436
 4088DDP     P224525  16.929  17.311  25.148 -0.1788 -0.0535  0.2824
 4088DDP     C224526  16.467  17.195  24.983 -0.2805 -0.3163 -0.2852
 4088DDP     C324527  17.915  17.951  24.497  0.0936  0.0030 -0.2006
 4088DDP     C424528  17.062  18.112  25.105 -0.3802  0.0951  0.1997
 4089DDP     C124529   3.942  21.129   8.293  0.1360 -0.1157  0.0365
 4089DDP     P124530   3.932  20.879   8.676 -0.1492  0.1140  0.1235
 4089DDP     P224531   4.225  21.466   8.441 -0.2295 -0.1390  0.2273
 4089DDP     C224532   4.423  21.888   8.601 -0.1531  0.1660 -0.3139
 4089DDP     C324533   3.799  20.892   9.111  0.2819  0.1256  0.0838
 4089DDP     C424534   3.780  21.214   7.897 -0.0520 -0.1237 -0.0852
 4090DDP     C124535  24.958  15.007  14.964  0.0344  0.2880  0.1364
 4090DDP     P124536  25.089  15.155  14.537 -0.0821  0.0895 -0.1296
 4090DDP     P224537  25.151  14.817  15.148 -0.0663 -0.3648 -0.0547
 4090DDP     C224538  25.512  14.682  15.304  0.0317  0.1931 -0.0217
 4090DDP     C324539  24.998  15.546  14.235  0.0637 -0.1399  0.1382
 4090DDP     C424540  24.553  15.202  14.978  0.1811 -0.4597 -0.1450
 4091DDP     C124541  10.186   0.257   5.191 -0.0792  0.4143 -0.0319
 4091DDP     P124542   9.935   0.600   5.043 -0.1750 -0.4187 -0.2182
 4091DDP     P224543  10.381   0.423   5.624  0.0929  0.0896  0.2107
 4091DDP     C224544  10.431   0.313   6.108 -0.1147 -0.1295  0.2485
 4091DDP     C324545   9.821   0.975   5.115  0.1148 -0.0402 -0.0610
 4091DDP     C424546  10.450  30.238   4.967 -0.0996 -0.0216  0.0538
 4092DDP     C124547  27.099  10.218  17.559  0.2754  0.2282 -0.0414
 4092DDP     P124548  27.495  10.209  17.682 -0.1438 -0.0163 -0.2553
 4092DDP     P224549  26.764  10.341  17.166 -0.3354 -0.2271  0.2798
 4092DDP     C224550  26.637  10.331  16.813 -0.3073 -0.2490 -0.0468
 4092DDP     C324551  27.887  10.241  17.793  0.1128 -0.2118  0.1458
 4092DDP     C424552  26.737  10.092  17.822 -0.1667 -0.0809  0.1492
 4093DDP     C124553  19.621  18.493  28.261 -0.0912 -0.3353  0.1537
 4093DDP     P124554  19.961  18.439  28.634  0.1516  0.1163 -0.0281
 4093DDP     P224555  19.417  18.130  28.034  0.2663 -0.0651 -0.0216
 4093DDP     C224556  19.375  18.099  27.528 -0.0302  0.0127  0.1428
 4093DDP     C324557  20.223  18.734  28.821  0.2760 -0.3004 -0.3710
 4093DDP     C424558  19.529  18.901  28.044  0.0042 -0.2086  0.3373
 4094DDP     C124559  20.887  17.180   9.800 -0.0264 -0.0440  0.0677
 4094DDP     P124560  20.848  16.881   9.453  0.2183 -0.1406 -0.0419
 4094DDP     P224561  21.311  17.292  10.073  0.1478 -0.0863  0.0030
 4094DDP     C224562  21.596  17.401  10.473  0.2721 -0.0508 -0.0517
 4094DDP     C324563  20.545  16.679   9.231  0.1196  0.0327 -0.1782
 4094DDP     C424564  20.528  17.186  10.124  0.0173  0.0293  0.2097
 4095DDP     C124565   9.047  19.060  14.395 -0.1507 -0.0327 -0.3336
 4095DDP     P124566   8.758  18.811  14.170  0.1448 -0.3963  0.0686
 4095DDP     P224567   9.366  19.183  14.219 -0.0002 -0.0998 -0.0557
 4095DDP     C224568   9.312  19.357  13.689  0.3005  0.0633 -0.0988
 4095DDP     C324569   8.345  18.770  14.000  0.2803  0.0240  0.1082
 4095DDP     C424570   8.794  19.083  14.760 -0.2543 -0.1056 -0.0010
 4096DDP     C124571  22.745  29.950  25.929 -0.0920  0.0277 -0.0108
 4096DDP     P124572  23.088  29.854  26.164  0.0964 -0.0968 -0.2406
 4096DDP     P224573  22.840   0.073  25.773 -0.3730  0.1567 -0.2050
 4096DDP     C224574  23.021   0.531  25.765  0.3525  0.1660 -0.1069
 4096DDP     C324575  23.186  30.069  26.574  0.2015  0.1729 -0.1181
 4096DDP     C424576  22.414  29.766  25.789  0.1379  0.2100  0.0325
 4097DDP     C124577   2.678  29.248   1.059  0.1154  0.4679 -0.1500
 4097DDP     P124578   2.354  29.213   0.823  0.0294 -0.1844  0.0580
 4097DDP     P224579   2.660  29.384   1.482 -0.1283 -0.1789  0.1344
 4097DDP     C224580   2.640  29.066   1.905  0.0450 -0.0839  0.0137
 4097DDP     C324581   1.972  29.463   0.713 -0.0275  0.2413  0.2553
 4097DDP     C424582   3.086  29.404   0.845  0.1241 -0.0293  0.1782
 4098DDP     C124583  14.654  29.738  29.477  0.1970  0.0405  0.1030
 4098DDP     P124584  14.835  30.079  29.719 -0.1672  0.4107 -0.0619
 4098DDP     P224585  14.223  29.460  29.487 -0.2754  0.0716 -0.0593
 4098DDP     C224586  13.833  29.314  29.420 -0.0242 -0.2608 -0.1698
 4098DDP     C324587  14.922  30.222  30.180 -0.0026 -0.0396  0.2978
 4098DDP     C424588  15.060  29.415  29.325 -0.2214  0.0650 -0.0721
 4099DDP     C124589  16.782   1.600  16.791 -0.3209  0.1899 -0.0191
 4099DDP     P124590  16.766   1.534  17.259 -0.3750 -0.1068 -0.3444
 4099DDP     P224591  16.762   2.076  16.830  0.0605 -0.1390 -0.0061
 4099DDP     C224592  16.806   2.405  17.171  0.0229  0.1188 -0.4206
 4099DDP     C324593  16.620   1.252  17.477  0.1451 -0.0558  0.1757
 4099DDP     C424594  16.930   1.490  16.354  0.1720  0.1724  0.1359
 4100DDP     C124595  13.486  16.976  10.585  0.0385  0.0580  0.4215
 4100DDP     P124596  13.551  16.558  10.398 -0.2503  0.0366 -0.1187
 4100DDP     P224597  13.037  16.922  10.627  0.0261  0.1552  0.1812
 4100DDP     C224598  12.615  17.006  10.484 -0.0187  0.2636  0.0751
 4100DDP     C324599  13.581  16.230  10.236  0.1441  0.2692 -0.0281
 4100DDP     C424600  13.618  17.239  10.940 -0.4601 -0.0854 -0.2231
 4101DDP     C124601  23.080  14.050  13.817 -0.0549 -0.0603  0.5004
 4101DDP     P124602  22.789  13.712  13.930  0.0268  0.2440  0.2145
 4101DDP     P224603  23.396  13.989  14.110  0.0149  0.0082 -0.0033
 4101DDP     C224604  23.837  13.912  14.066  0.0711 -0.0726 -0.1503
 4101DDP     C324605  22.409  13.461  14.203 -0.2654 -0.1109  0.2530
 4101DDP     C424606  22.918  14.309  13.464 -0.4857 -0.2274 -0.0011
 4102DDP     C124607  22.550  11.974   5.078 -0.0375  0.1583  0.0374
 4102DDP     P124608  22.128  11.889   4.910  0.1395  0.2269  0.1257
 4102DDP     P224609  22.798  12.233   5.008  0.3594 -0.2465 -0.0410
 4102DDP     C224610  23.094  12.611   5.004 -0.1082 -0.1484  0.1649
 4102DDP     C324611  21.575  11.973   4.773 -0.0549 -0.1441  0.0753
 4102DDP     C424612  22.640  11.502   5.193  0.2829 -0.0640  0.2004
 4103DDP     C124613  12.331  14.106   0.525 -0.0828 -0.4055 -0.0535
 4103DDP     P124614  12.062  14.261   0.842  0.0844 -0.1296 -0.0492
 4103DDP     P224615  12.413  13.691   0.565  0.0044 -0.2774  0.2378
 4103DDP     C224616  12.175  13.276   0.593 -0.0140  0.0403 -0.2007
 4103DDP     C324617  11.841  14.252   1.264  0.2706 -0.1841 -0.1461
 4103DDP     C424618  12.502  14.361   0.075  0.0684 -0.0221 -0.2254
 4104DDP     C124619  26.660   3.033  16.813 -0.0452 -0.3022  0.2816
 4104DDP     P124620  26.636   3.412  16.969 -0.1536  0.2397 -0.1803
 4104DDP     P224621  26.335   2.851  16.620  0.2407  0.2254 -0.1266
 4104DDP     C224622  26.108   2.697  16.284  0.0682 -0.3168 -0.0108
 4104DDP     C324623  26.862   3.635  17.150 -0.1782  0.1520  0.0603
 4104DDP     C424624  27.005   2.780  16.701  0.1409 -0.1031  0.1466
 4105DDP     C124625  21.338  17.967   8.874  0.4062 -0.0348  0.1297
 4105DDP     P124626  21.145  17.660   8.563 -0.1565  0.4538 -0.4649
 4105DDP     P224627  21.459  18.379   8.706 -0.4752  0.3590 -0.1426
 4105DDP     C224628  21.705  18.713   8.892  0.1094  0.1025 -0.0038
 4105DDP     C324629  21.152  17.342   8.147 -0.0010 -0.1152  0.1390
 4105DDP     C424630  21.422  17.839   9.306 -0.0093  0.0783  0.4039
 4106DDP     C124631  14.060   8.433  25.368 -0.0577 -0.3845 -0.1836
 4106DDP     P124632  13.707   8.315  25.308 -0.1655 -0.0222  0.2708
 4106DDP     P224633  14.148   8.657  25.719 -0.0634  0.4699  0.4901
 4106DDP     C224634  14.347   9.086  25.828  0.1502 -0.5943 -0.0531
 4106DDP     C324635  13.314   8.497  25.542  0.2324 -0.4033 -0.0764
 4106DDP     C424636  14.378   8.318  25.023  0.1276 -0.0446 -0.3013
 4107DDP     C124637  13.570  22.807  23.897  0.1630 -0.0203 -0.1683
 4107DDP     P124638  13.368  23.102  23.606 -0.3351  0.2050 -0.1716
 4107DDP     P224639  13.707  23.082  24.225 -0.4496 -0.2550 -0.1048
 4107DDP     C224640  13.893  23.177  24.581 -0.0958  0.0601 -0.3062
 4107DDP     C324641  13.244  23.437  23.381 -0.0034 -0.0680 -0.1243
 4107DDP     C424642  13.559  22.327  23.951 -0.1200 -0.1000  0.0698
 4108DDP     C124643  25.329  11.191   4.851 -0.5296 -0.2224  0.1855
 4108DDP     P124644  25.282  11.616   4.609  0.0932  0.1769  0.0525
 4108DDP     P224645  25.717  11.172   5.092 -0.3935 -0.0114  0.0538
 4108DDP     C224646  25.983  11.109   5.542  0.0583  0.0332  0.0916
 4108DDP     C324647  25.154  11.753   4.230  0.1482 -0.1174 -0.0505
 4108DDP     C424648  24.943  10.875   4.907 -0.2378  0.0635 -0.3282
 4109DDP     C124649   8.612  22.434  21.883  0.0956  0.0632 -0.1884
 4109DDP     P124650   8.852  22.107  22.051  0.2354 -0.1458  0.0235
 4109DDP     P224651   8.557  22.295  21.573  0.0828  0.5168 -0.2899
 4109DDP     C224652   8.363  21.856  21.610 -0.1836 -0.0213  0.0781
 4109DDP     C324653   9.191  22.069  21.792  0.0702  0.2687  0.2096
 4109DDP     C424654   8.559  22.778  22.078 -0.0604  0.1546 -0.0714
 4110DDP     C124655   1.384   6.178   3.931  0.1796 -0.0769 -0.1425
 4110DDP     P124656   1.708   5.851   4.041 -0.2348 -0.2063  0.3268
 4110DDP     P224657   1.016   5.901   3.691  0.0941 -0.0984 -0.2834
 4110DDP     C224658   0.879   5.477   3.701 -0.0220  0.0733  0.1189
 4110DDP     C324659   1.665   5.432   3.824 -0.0185  0.0084  0.2920
 4110DDP     C424660   1.370   6.560   3.661  0.0940 -0.0729  0.1722
 4111DDP     C124661   3.201   1.682   3.035  0.2900 -0.1297 -0.3638
 4111DDP     P124662   3.208   1.449   3.474 -0.1538 -0.1315  0.1069
 4111DDP     P224663   3.267   2.170   2.994 -0.0539  0.0310  0.2316
 4111DDP     C224664   3.339   2.517   3.329 -0.2266 -0.5636 -0.0120
 4111DDP     C324665   3.169   1.630   3.882  0.1536  0.0752  0.0790
 4111DDP     C424666   2.992   1.398   2.828 -0.0044  0.0444 -0.1947
 4112DDP     C124667   1.568   5.451   4.363 -0.2455  0.1081 -0.0930
 4112DDP     P124668   1.737   5.803   4.692 -0.3809 -0.1642 -0.2582
 4112DDP     P224669   1.949   5.296   4.180 -0.0425 -0.0887 -0.2193
 4112DDP     C224670   2.183   5.566   4.178 -0.0487  0.2146  0.2264
 4112DDP     C324671   1.534   6.153   4.954 -0.3888  0.2088 -0.0382
 4112DDP     C424672   1.235   5.679   4.126  0.0283  0.3529 -0.0721
 4113DDP     C124673   6.578  10.754   8.526 -0.1093 -0.0754  0.3267
 4113DDP     P124674   6.308  10.356   8.519  0.0181 -0.1732 -0.0982
 4113DDP     P224675   6.283  11.076   8.620 -0.2686  0.1209  0.1724
 4113DDP     C224676   6.204  11.294   8.910 -0.1711  0.1018 -0.4925
 4113DDP     C324677   6.169  10.169   8.108 -0.1754 -0.2076 -0.1203
 4113DDP     C424678   7.013  10.794   8.327  0.0078 -0.3125 -0.0225
 4114DDP     C124679  15.021  14.634  22.698  0.0853 -0.2904 -0.1715
 4114DDP     P124680  15.211  14.145  22.594  0.2093 -0.2882 -0.0035
 4114DDP     P224681  15.291  15.000  22.814  0.0900  0.2495  0.1249
 4114DDP     C224682  15.453  15.225  22.544 -0.1296 -0.0331  0.1176
 4114DDP     C324683  15.042  13.812  22.626  0.0697  0.0068  0.0584
 4114DDP     C424684  14.591  14.625  22.857  0.1403 -0.1212  0.2634
 4115DDP     C124685   8.714  28.998  10.174  0.0707  0.2372  0.2052
 4115DDP     P124686   8.350  28.798   9.959 -0.0872 -0.0266  0.0537
 4115DDP     P224687   8.825  29.372  10.061 -0.1455  0.0080  0.1229
 4115DDP     C224688   8.453  29.684  10.146 -0.0911 -0.3060 -0.2171
 4115DDP     C324689   7.985  29.011   9.913  0.0809 -0.2424  0.1655
 4115DDP     C424690   8.830  28.842  10.627 -0.0534 -0.3479 -0.0299
 4116DDP     C124691   9.826  23.054   0.410 -0.1482  0.0675  0.1352
 4116DDP     P124692   9.458  23.162   0.148 -0.3724  0.0947  0.0023
 4116DDP     P224693   9.836  22.622   0.289 -0.0718 -0.2460  0.2833
 4116DDP     C224694   9.758  22.267   0.258  0.0234  0.4020  0.1374
 4116DDP     C324695   8.980  23.329   0.181 -0.0873  0.2841 -0.0901
 4116DDP     C424696   9.928  23.190   0.773  0.0848  0.0946  0.1476
 4117DDP     C124697  25.585  10.935  10.016 -0.0982  0.0831  0.0739
 4117DDP     P124698  25.570  10.562   9.810  0.1394  0.0955  0.1284
 4117DDP     P224699  25.379  11.364  10.194 -0.0992  0.1593  0.0017
 4117DDP     C224700  25.180  11.559  10.432  0.1616  0.1395  0.0175
 4117DDP     C324701  25.516  10.332   9.509  0.0719 -0.1288 -0.1196
 4117DDP     C424702  25.994  10.922  10.050  0.3369  0.1366  0.1265
 4118DDP     C124703  17.079   2.054  14.012 -0.0988  0.3127 -0.2202
 4118DDP     P124704  16.967   1.966  13.672 -0.2136  0.1937  0.1106
 4118DDP     P224705  16.798   2.099  14.416  0.2420 -0.2375  0.0366
 4118DDP     C224706  16.580   1.764  14.615  0.0990  0.3402 -0.3903
 4118DDP     C324707  17.164   1.975  13.289  0.1287  0.2204  0.1913
 4118DDP     C424708  17.552   2.219  14.014  0.3495  0.2264  0.1255
 4119DDP     C124709  13.019   7.563  12.979  0.0559 -0.0530 -0.2550
 4119DDP     P124710  12.901   7.680  13.395 -0.0832 -0.1368  0.0857
 4119DDP     P224711  12.593   7.647  12.925 -0.0572 -0.2170  0.2503
 4119DDP     C224712  12.208   7.577  13.029 -0.0976 -0.2266 -0.2478
 4119DDP     C324713  12.929   7.643  13.741  0.1031 -0.1166  0.0423
 4119DDP     C424714  13.343   7.405  12.666 -0.1468  0.0207  0.1742
 4120DDP     C124715   8.646  10.013  17.583 -0.1191  0.0536 -0.2158
 4120DDP     P124716   8.491   9.627  17.430  0.2062 -0.0595  0.1705
 4120DDP     P224717   8.655  10.128  17.116  0.0798 -0.0992  0.1074
 4120DDP     C224718   8.837  10.365  16.858 -0.1173  0.0824  0.1554
 4120DDP     C324719   8.317   9.197  17.559 -0.0932 -0.2871 -0.1086
 4120DDP     C424720   8.577  10.344  17.904  0.0737 -0.0011 -0.0231
 4121DDP     C124721  15.292  26.026  10.381  0.2091 -0.2125  0.2470
 4121DDP     P124722  15.143  26.170  10.785 -0.1417 -0.0810  0.2052
 4121DDP     P224723  15.733  25.979  10.540  0.1494 -0.0914  0.0380
 4121DDP     C224724  15.942  25.589  10.612  0.0882 -0.0278  0.1130
 4121DDP     C324725  14.835  26.129  11.033  0.0336 -0.0706 -0.0751
 4121DDP     C424726  15.012  25.886  10.124 -0.0913 -0.2740  0.0137
 4122DDP     C124727   5.786  19.796  29.305 -0.4201  0.0500 -0.1711
 4122DDP     P124728   6.211  19.575  29.149  0.2493  0.0121 -0.0623
 4122DDP     P224729   5.740  19.825  29.762 -0.1224  0.3740  0.0875
 4122DDP     C224730   5.770  19.415  29.941 -0.0503  0.2518  0.1354
 4122DDP     C324731   6.655  19.696  29.157 -0.1959  0.0555  0.0874
 4122DDP     C424732   5.497  19.654  29.117 -0.3540  0.1800  0.1025
 4123DDP     C124733   7.290   6.946  15.781 -0.1231 -0.1805  0.1648
 4123DDP     P124734   6.988   6.767  15.615  0.2285 -0.0727  0.1115
 4123DDP     P224735   7.365   7.175  15.455  0.1733 -0.1517 -0.1406
 4123DDP     C224736   7.572   7.585  15.304 -0.0730  0.0998  0.0564
 4123DDP     C324737   6.980   6.404  15.341 -0.2703 -0.0092 -0.0920
 4123DDP     C424738   7.470   6.916  16.201 -0.2969 -0.2603  0.2115
 4124DDP     C124739  17.693   3.835  24.489  0.0515  0.2681 -0.0878
 4124DDP     P124740  17.790   3.617  24.748  0.0941  0.1252 -0.4464
 4124DDP     P224741  17.334   3.882  24.266 -0.0316 -0.2095 -0.1003
 4124DDP     C224742  16.929   3.843  23.980 -0.0077  0.3478 -0.0320
 4124DDP     C324743  18.059   3.622  25.099  0.0734 -0.0233 -0.0976
 4124DDP     C424744  17.808   4.285  24.463  0.1456 -0.0384 -0.0598
 4125DDP     C124745   4.822   6.612  17.384 -0.3336 -0.0135  0.1005
 4125DDP     P124746   4.718   6.203  17.177 -0.3845  0.0284 -0.3248
 4125DDP     P224747   5.232   6.508  17.676 -0.0999 -0.2107  0.0242
 4125DDP     C224748   5.592   6.126  17.639 -0.3548 -0.2101  0.1983
 4125DDP     C324749   4.744   5.789  17.047  0.0967  0.1152 -0.1399
 4125DDP     C424750   4.815   7.003  17.206 -0.1168 -0.0384 -0.0082
 4126DDP     C124751  10.411   4.055  11.467 -0.0063  0.1451 -0.0209
 4126DDP     P124752  10.365   3.588  11.257 -0.3793  0.1412  0.0342
 4126DDP     P224753  10.100   4.311  11.610 -0.1404  0.0114  0.1352
 4126DDP     C224754   9.792   4.264  11.858  0.0357 -0.0723  0.1152
 4126DDP     C324755  10.229   3.367  11.006 -0.1156 -0.2006 -0.1069
 4126DDP     C424756  10.821   4.246  11.421  0.1853 -0.0744  0.0588
 4127DDP     C124757   9.811  29.377  13.872  0.2564  0.2352 -0.1443
 4127DDP     P124758   9.566  29.169  13.480  0.0825 -0.0505  0.0211
 4127DDP     P224759  10.231  29.713  13.972 -0.4035 -0.0794 -0.2083
 4127DDP     C224760  10.661  29.773  14.115  0.0323 -0.0878 -0.0943
 4127DDP     C324761   9.730  29.059  13.044 -0.0345 -0.1654  0.1124
 4127DDP     C424762   9.706  29.350  14.361 -0.1287  0.4098  0.0185
 4128DDP     C124763  21.208  18.815  15.419 -0.1290  0.0178 -0.0093
 4128DDP     P124764  21.569  18.860  15.160 -0.1809  0.0066 -0.1185
 4128DDP     P224765  21.131  18.359  15.568 -0.2124  0.1183 -0.2105
 4128DDP     C224766  21.327  17.896  15.568 -0.1592  0.0764 -0.1845
 4128DDP     C324767  21.695  19.149  14.844 -0.2232 -0.1757 -0.2521
 4128DDP     C424768  20.934  19.090  15.403 -0.1318  0.1375  0.1791
 4129DDP     C124769   1.725   0.756  26.191  0.4862  0.0713 -0.2714
 4129DDP     P124770   1.776   0.395  26.480  0.4005 -0.0627  0.1519
 4129DDP     P224771   1.762   1.129  26.308 -0.1353 -0.2670 -0.0645
 4129DDP     C224772   1.766   1.379  25.901  0.1462 -0.4085 -0.0062
 4129DDP     C324773   1.775   0.118  26.714  0.0978 -0.1326 -0.2186
 4129DDP     C424774   1.844   0.535  25.672 -0.3651  0.0989  0.0517
 4130DDP     C124775  20.594   4.162  26.698 -0.1686  0.0246  0.2206
 4130DDP     P124776  20.497   3.993  26.302 -0.0740 -0.1593  0.0096
 4130DDP     P224777  20.630   4.013  27.148 -0.4097  0.2860  0.1057
 4130DDP     C224778  20.667   3.813  27.631 -0.1284  0.1733 -0.0844
 4130DDP     C324779  20.423   3.553  26.297 -0.0266  0.2069  0.2996
 4130DDP     C424780  20.643   4.609  26.852  0.1584  0.0938  0.2492
 4131DDP     C124781  13.274  16.952  29.872 -0.1582  0.3366 -0.1022
 4131DDP     P124782  13.460  17.294  29.947  0.1410  0.3653 -0.0599
 4131DDP     P224783  12.958  16.915  29.664 -0.0925 -0.2487  0.1784
 4131DDP     C224784  12.911  16.474  29.456 -0.0631  0.1006 -0.1629
 4131DDP     C324785  13.667  17.591  29.898 -0.0118 -0.0617  0.1000
 4131DDP     C424786  13.206  16.661  30.279  0.0906 -0.3011 -0.1596
 4132DDP     C124787  14.171   9.222  25.095 -0.3975  0.1896 -0.1014
 4132DDP     P124788  14.119   9.253  24.650  0.0266  0.1860  0.0397
 4132DDP     P224789  14.306   8.896  25.212 -0.2935 -0.2358  0.1814
 4132DDP     C224790  14.557   8.667  25.428 -0.1505  0.2660  0.0514
 4132DDP     C324791  14.164   9.213  24.207 -0.1043  0.4876  0.2017
 4132DDP     C424792  14.143   9.417  25.404  0.1452 -0.3614  0.0160
 4133DDP     C124793  23.706  17.180   7.827  0.3357 -0.1191  0.2368
 4133DDP     P124794  23.871  17.573   8.089  0.0677 -0.0226 -0.1232
 4133DDP     P224795  23.310  17.007   7.602 -0.0083  0.0584  0.2706
 4133DDP     C224796  23.001  16.713   7.392  0.0389 -0.0137 -0.3565
 4133DDP     C324797  24.134  17.850   8.329  0.1742  0.1082  0.1880
 4133DDP     C424798  23.987  16.874   7.950 -0.1251  0.0061 -0.3284
 4134DDP     C124799  13.543  14.560  22.629  0.2000  0.0155 -0.2504
 4134DDP     P124800  13.363  14.232  22.659 -0.1220  0.0219  0.3706
 4134DDP     P224801  13.550  14.888  22.776  0.0336  0.1581  0.0068
 4134DDP     C224802  13.748  15.232  22.717 -0.1172  0.1652 -0.2209
 4134DDP     C324803  13.269  13.840  22.799 -0.1968 -0.1576 -0.2613
 4134DDP     C424804  13.691  14.579  22.267 -0.0142 -0.0188 -0.1073
 4135DDP     C124805   8.990   9.775   9.576  0.2282 -0.0151  0.3641
 4135DDP     P124806   8.580   9.744   9.750  0.1187 -0.2151  0.2395
 4135DDP     P224807   9.147   9.494   9.337  0.2790  0.1654  0.2653
 4135DDP     C224808   9.258   9.352   8.926  0.1724 -0.0677 -0.0269
 4135DDP     C324809   8.215   9.944   9.693  0.0648  0.3162 -0.2510
 4135DDP     C424810   9.089  10.151   9.581 -0.1669  0.1073 -0.1545
 4136DDP     C124811  23.773  21.012  15.604  0.1154  0.3948  0.1214
 4136DDP     P124812  23.913  21.411  15.830  0.1036  0.0116 -0.1129
 4136DDP     P224813  23.884  20.864  15.045 -0.1875  0.1985  0.0028
 4136DDP     C224814  23.652  20.917  14.692  0.0597  0.0751 -0.1453
 4136DDP     C324815  24.072  21.649  16.187  0.0488  0.0287  0.0351
 4136DDP     C424816  23.529  20.646  15.863  0.0171  0.0981  0.0402
 4137DDP     C124817  16.029  24.228  19.779  0.1914 -0.2204 -0.0953
 4137DDP     P124818  15.950  24.413  20.304  0.3996  0.1331 -0.0849
 4137DDP     P224819  16.386  24.340  19.599  0.0885  0.2383 -0.1003
 4137DDP     C224820  16.843  24.363  19.687 -0.0390  0.2865  0.0504
 4137DDP     C324821  16.303  24.329  20.616 -0.1112 -0.1047  0.3183
 4137DDP     C424822  15.851  23.835  19.760  0.0653 -0.3155 -0.1540
 4138DDP     C124823  23.249  24.658   9.966  0.0790  0.1696 -0.1633
 4138DDP     P124824  23.496  25.042   9.872  0.1452 -0.0772 -0.2410
 4138DDP     P224825  22.999  24.754  10.308  0.5209 -0.2362  0.0624
 4138DDP     C224826  22.608  24.745  10.549  0.0536 -0.1401  0.2026
 4138DDP     C324827  23.619  25.503   9.818 -0.0755  0.1172 -0.2410
 4138DDP     C424828  23.166  24.263   9.689 -0.1308 -0.3063  0.0334
 4139DDP     C124829  20.302  11.123   3.454 -0.0469  0.0908  0.2576
 4139DDP     P124830  20.042  11.344   3.276  0.1201  0.0918 -0.1211
 4139DDP     P224831  20.827  11.164   3.308 -0.2329 -0.0325 -0.2081
 4139DDP     C224832  21.296  11.220   3.358 -0.0745  0.1065  0.2997
 4139DDP     C324833  19.699  11.640   3.451  0.3050  0.0693 -0.5283
 4139DDP     C424834  20.150  10.892   3.754  0.1383  0.1688  0.2022
 4140DDP     C124835  27.664  22.065  15.701  0.0375 -0.2739 -0.2763
 4140DDP     P124836  27.705  22.127  15.297 -0.2662 -0.2663  0.2675
 4140DDP     P224837  27.222  22.009  15.808  0.0451 -0.1905  0.3327
 4140DDP     C224838  27.126  22.323  16.084 -0.0396 -0.1412  0.1530
 4140DDP     C324839  27.412  22.032  14.929 -0.1304 -0.0807 -0.1893
 4140DDP     C424840  27.992  21.878  15.928 -0.0196  0.3896 -0.0615
 4141DDP     C124841   8.571  12.708  13.521  0.0012  0.0805 -0.1723
 4141DDP     P124842   8.896  12.851  13.326  0.4433 -0.0816 -0.1826
 4141DDP     P224843   8.658  13.067  13.836 -0.0721  0.2984  0.3656
 4141DDP     C224844   8.526  13.249  14.196  0.1909  0.4647 -0.2896
 4141DDP     C324845   9.168  12.718  13.104  0.0086 -0.2810 -0.0600
 4141DDP     C424846   8.183  12.409  13.286  0.0755  0.1546 -0.0211
 4142DDP     C124847   6.386   1.648  19.436 -0.2863  0.1563  0.1196
 4142DDP     P124848   6.772   2.041  19.450 -0.2434  0.1032 -0.1808
 4142DDP     P224849   6.158   1.410  19.217 -0.3022 -0.0218  0.2436
 4142DDP     C224850   6.354   1.215  18.932  0.1868  0.4814 -0.0619
 4142DDP     C324851   7.133   2.205  19.395 -0.1069  0.0310  0.0069
 4142DDP     C424852   6.328   1.362  19.766 -0.0180  0.0108  0.1867
 4143DDP     C124853  11.558  26.040  27.206 -0.0495  0.0167  0.1576
 4143DDP     P124854  12.012  25.911  27.046  0.1031 -0.1483  0.4851
 4143DDP     P224855  11.613  26.388  27.500  0.0380  0.0410 -0.0143
 4143DDP     C224856  11.674  26.672  27.721  0.2753 -0.0836  0.1315
 4143DDP     C324857  12.424  26.048  26.871 -0.0867 -0.2506 -0.1828
 4143DDP     C424858  11.111  25.862  26.992 -0.1613  0.1117  0.1753
 4144DDP     C124859  15.806  28.394  27.463 -0.1166 -0.0656  0.0298
 4144DDP     P124860  16.158  28.585  27.701  0.2522  0.1954  0.1038
 4144DDP     P224861  15.408  28.537  27.426 -0.1391  0.2205 -0.2506
 4144DDP     C224862  15.112  28.345  27.137 -0.0224  0.1748 -0.0584
 4144DDP     C324863  16.458  28.915  27.613 -0.3618 -0.2025 -0.0480
 4144DDP     C424864  16.087  28.089  27.179  0.3985  0.0669  0.1810
 4145DDP     C124865   4.762   7.766   2.001  0.0528  0.2171 -0.0760
 4145DDP     P124866   4.606   8.158   1.752  0.3226  0.0376  0.1389
 4145DDP     P224867   4.857   7.632   2.363  0.0759  0.3049 -0.0083
 4145DDP     C224868   4.829   7.366   2.747 -0.0961  0.1883 -0.1026
 4145DDP     C324869   4.599   8.391   1.329  0.1325 -0.0641 -0.2066
 4145DDP     C424870   4.729   7.498   1.654  0.0506 -0.1500  0.3061
 4146DDP     C124871  27.493   1.528  11.163 -0.1288 -0.1001  0.1765
 4146DDP     P124872  27.570   1.241  11.316  0.1089  0.0435  0.0469
 4146DDP     P224873  27.527   1.779  11.446 -0.0694  0.0844  0.2143
 4146DDP     C224874  27.763   1.992  11.788  0.1368 -0.3381 -0.0876
 4146DDP     C324875  27.425   0.856  11.476  0.2919 -0.3242 -0.2391
 4146DDP     C424876  27.482   1.629  10.673  0.1266  0.0420 -0.1339
 4147DDP     C124877   7.406   3.162   6.544  0.0256  0.0891 -0.2362
 4147DDP     P124878   7.529   3.442   6.828  0.1872 -0.0848 -0.1793
 4147DDP     P224879   7.038   3.246   6.271 -0.0640 -0.1440 -0.1340
 4147DDP     C224880   6.704   3.151   6.203  0.1602  0.1112  0.2308
 4147DDP     C324881   7.454   3.477   7.194 -0.1795  0.1845 -0.0662
 4147DDP     C424882   7.450   2.749   6.502  0.0830 -0.1118  0.1479
 4148DDP     C124883  16.111  26.066  14.857 -0.0629  0.0364 -0.2061
 4148DDP     P124884  16.382  26.181  14.561  0.0395  0.0584 -0.1014
 4148DDP     P224885  15.860  25.735  14.924 -0.0659  0.0557 -0.2157
 4148DDP     C224886  15.461  25.459  14.906  0.0414  0.0900  0.0142
 4148DDP     C324887  16.599  25.924  14.354  0.3755  0.0378 -0.1693
 4148DDP     C424888  16.012  26.378  15.138  0.0508 -0.3576 -0.2179
 4149DDP     C124889  29.734   0.365   5.212 -0.3226  0.1636  0.0283
 4149DDP     P124890  29.507   0.129   5.576 -0.2164 -0.1762  0.0009
 4149DDP     P224891  29.823   0.319   4.748  0.2704 -0.1268 -0.2033
 4149DDP     C224892  29.602   0.098   4.437 -0.2276 -0.2913  0.1331
 4149DDP     C324893  29.507  30.312   5.992  0.2345  0.1519  0.2222
 4149DDP     C424894  29.837   0.778   5.422 -0.1569  0.3149 -0.0070
 4150DDP     C124895   3.633  26.055   9.220  0.0140 -0.0283 -0.3352
 4150DDP     P124896   3.217  25.859   9.294 -0.0879 -0.0122 -0.3105
 4150DDP     P224897   3.612  26.444   8.990  0.0402 -0.2476  0.2951
 4150DDP     C224898   3.810  26.779   8.886 -0.0070 -0.0038 -0.2618
 4150DDP     C324899   3.022  25.528   9.071 -0.0020 -0.0767  0.0595
 4150DDP     C424900   3.966  25.937   9.357 -0.0880  0.1255 -0.0418
 4151DDP     C124901  10.003   8.818  18.168  0.3411  0.0417 -0.0930
 4151DDP     P124902  10.058   9.112  18.376  0.1823  0.3996 -0.1053
 4151DDP     P224903   9.707   9.077  17.896 -0.1894  0.2606 -0.0745
 4151DDP     C224904   9.263   9.322  17.996 -0.2169  0.0380  0.0763
 4151DDP     C324905   9.837   9.519  18.362  0.2504 -0.1956 -0.2924
 4151DDP     C424906  10.178   8.290  18.273  0.0710  0.0791  0.1804
 4152DDP     C124907   8.453  28.756  26.660 -0.2490  0.3247 -0.2818
 4152DDP     P124908   8.145  29.040  26.519  0.1722 -0.3960 -0.1477
 4152DDP     P224909   8.783  28.363  26.555  0.3589  0.1206  0.1387
 4152DDP     C224910   8.662  28.034  26.229  0.0754 -0.0320 -0.1585
 4152DDP     C324911   7.918  29.371  26.327  0.3143  0.0284 -0.0231
 4152DDP     C424912   8.657  28.976  27.033  0.2737  0.3474  0.2755
 4153DDP     C124913  23.282   2.828  11.760  0.0668 -0.2970 -0.0021
 4153DDP     P124914  23.569   2.837  11.518  0.0693 -0.0407  0.1933
 4153DDP     P224915  23.275   2.389  11.765 -0.0249  0.2060  0.0381
 4153DDP     C224916  23.169   2.073  12.115  0.1555 -0.0201  0.1202
 4153DDP     C324917  23.571   3.011  11.073 -0.0838 -0.0477 -0.1574
 4153DDP     C424918  23.017   3.212  11.935  0.1203 -0.0912 -0.0198
 4154DDP     C124919   3.152  27.521  15.542 -0.3286 -0.3331 -0.3411
 4154DDP     P124920   2.948  27.767  15.825  0.0795  0.0398  0.2231
 4154DDP     P224921   3.096  27.539  14.996 -0.0646 -0.0954  0.0846
 4154DDP     C224922   3.143  27.698  14.528 -0.1662  0.2672 -0.0526
 4154DDP     C324923   2.696  27.853  16.276  0.0097  0.0196 -0.2034
 4154DDP     C424924   3.521  27.429  15.776 -0.0468 -0.0775 -0.2077
 4155DDP     C124925  26.214   8.767  12.540  0.0533 -0.2244 -0.0761
 4155DDP     P124926  26.030   8.401  12.273 -0.0253  0.0834 -0.1035
 4155DDP     P224927  26.512   9.102  12.382 -0.0326 -0.1497  0.3220
 4155DDP     C224928  26.711   9.442  12.518 -0.0007  0.0869  0.1183
 4155DDP     C324929  25.741   8.393  11.885 -0.0961  0.1492  0.0061
 4155DDP     C424930  25.836   8.867  12.720 -0.2125  0.3796  0.1166
 4156DDP     C124931   9.580   0.480  22.085  0.0520  0.1696  0.0673
 4156DDP     P124932   9.599   0.991  22.098 -0.3294  0.2168  0.0672
 4156DDP     P224933   9.386   0.345  21.722 -0.2667  0.0794 -0.2407
 4156DDP     C224934   9.436   0.100  21.273 -0.0011  0.2744  0.2188
 4156DDP     C324935   9.562   1.424  22.188  0.1992 -0.1644 -0.0258
 4156DDP     C424936   9.837   0.264  22.332 -0.0994  0.2666 -0.0650
 4157DDP     C124937  18.810  16.038  12.084  0.0978 -0.2432 -0.0203
 4157DDP     P124938  18.882  16.422  12.355 -0.1252  0.0347 -0.0685
 4157DDP     P224939  19.223  15.898  12.047  0.0677 -0.1902  0.2961
 4157DDP     C224940  19.628  15.683  11.889 -0.1758 -0.0564  0.1493
 4157DDP     C324941  18.504  16.618  12.516  0.0365  0.0807  0.0030
 4157DDP     C424942  18.465  15.709  12.111 -0.2070  0.3039 -0.0682
 4158DDP     C124943  22.779  28.678  28.404  0.2066 -0.2782 -0.0891
 4158DDP     P124944  22.475  28.469  28.184 -0.0019  0.3705  0.0221
 4158DDP     P224945  23.238  28.785  28.319 -0.0296  0.0083 -0.2028
 4158DDP     C224946  23.587  28.973  28.190  0.0258  0.0400 -0.0164
 4158DDP     C324947  22.406  28.099  28.431  0.2733 -0.0059 -0.2001
 4158DDP     C424948  22.654  28.920  28.688  0.0000 -0.2107 -0.0156
 4159DDP     C124949   8.754  28.608  26.022 -0.1206 -0.1980  0.1746
 4159DDP     P124950   8.365  28.364  26.056 -0.3331  0.1757  0.0453
 4159DDP     P224951   8.762  29.023  25.756  0.0917  0.0310 -0.1477
 4159DDP     C224952   8.653  29.327  25.368  0.0896  0.0270  0.0479
 4159DDP     C324953   8.288  28.030  25.718 -0.0756 -0.0416  0.1835
 4159DDP     C424954   9.088  28.361  26.163  0.0757  0.1664 -0.1870
 4160DDP     C124955  16.768   7.245  18.099  0.1295  0.0438  0.0305
 4160DDP     P124956  16.630   7.006  17.985 -0.0627 -0.1746  0.1826
 4160DDP     P224957  16.774   7.586  17.891  0.0661  0.4674 -0.3145
 4160DDP     C224958  16.507   7.734  17.575  0.1390 -0.0949  0.0182
 4160DDP     C324959  16.713   6.655  17.738 -0.0773  0.0582  0.2773
 4160DDP     C424960  16.817   7.234  18.517 -0.0898 -0.3115 -0.2469
 4161DDP     C124961  21.318  24.688   5.442  0.2644  0.0462 -0.2961
 4161DDP     P124962  21.117  24.930   5.161 -0.0421 -0.1473 -0.2118
 4161DDP     P224963  21.069  24.339   5.622 -0.2370 -0.0916  0.1443
 4161DDP     C224964  20.796  24.116   6.028  0.0488 -0.0666 -0.0179
 4161DDP     C324965  21.024  25.293   5.002  0.0611 -0.1534  0.2951
 4161DDP     C424966  21.739  24.680   5.676 -0.0052 -0.1046  0.0846
 4162DDP     C124967  21.124  12.667  28.155 -0.0258 -0.0885  0.1029
 4162DDP     P124968  21.004  12.340  28.265  0.0228  0.2494  0.1309
 4162DDP     P224969  20.983  13.062  28.163  0.0440 -0.0051  0.1765
 4162DDP     C224970  20.909  13.335  27.827 -0.0493 -0.2070 -0.1328
 4162DDP     C324971  21.000  11.995  28.592 -0.0232  0.2102 -0.1332
 4162DDP     C424972  21.495  12.538  27.803 -0.0997 -0.0099 -0.4032
 4163DDP     C124973   3.069   7.615  12.448 -0.2451 -0.1509 -0.1210
 4163DDP     P124974   3.276   7.557  12.795  0.5162  0.0900 -0.1623
 4163DDP     P224975   2.957   7.196  12.123 -0.3238 -0.0352 -0.1505
 4163DDP     C224976   3.043   6.850  11.844  0.3086  0.0809  0.1913
 4163DDP     C324977   3.615   7.772  12.972 -0.2116 -0.0223  0.2462
 4163DDP     C424978   2.791   7.848  12.515  0.1013  0.2835  0.0644
 4164DDP     C124979   3.411  13.945  26.562  0.0203  0.3186 -0.0233
 4164DDP     P124980   3.208  13.688  26.879 -0.1814  0.0235  0.1109
 4164DDP     P224981   3.830  13.962  26.410  0.3683  0.0288  0.0316
 4164DDP     C224982   4.053  14.050  25.954  0.2665 -0.3290 -0.0922
 4164DDP     C324983   3.246  13.541  27.277  0.0508 -0.1333  0.2172
 4164DDP     C424984   3.244  14.328  26.399  0.0215  0.2003 -0.0481
 4165DDP     C124985  20.039   3.709   3.419 -0.3551 -0.1086  0.0275
 4165DDP     P124986  19.823   3.642   3.794 -0.3068 -0.1353 -0.1453
 4165DDP     P224987  20.508   3.637   3.362  0.0586  0.0024  0.0480
 4165DDP     C224988  20.783   3.581   3.052  0.0560 -0.2403 -0.1665
 4165DDP     C324989  19.601   3.361   4.069 -0.2134 -0.2322 -0.2828
 4165DDP     C424990  19.812   3.967   3.091  0.1043  0.0815 -0.0480
 4166DDP     C124991   8.494  14.182  18.191 -0.1232 -0.0346 -0.0141
 4166DDP     P124992   8.352  13.988  17.837  0.1864 -0.1193 -0.4488
 4166DDP     P224993   8.373  14.110  18.615  0.0195 -0.0089 -0.0162
 4166DDP     C224994   8.219  13.987  19.022 -0.0280  0.0976  0.1001
 4166DDP     C324995   8.200  13.738  17.478  0.2773  0.3081  0.3318
 4166DDP     C424996   8.966  14.215  18.103  0.1836  0.3665 -0.0379
 4167DDP     C124997   0.953  23.130  20.939 -0.0540 -0.2213  0.1661
 4167DDP     P124998   0.493  23.307  21.098  0.0468 -0.0060  0.0018
 4167DDP     P224999   0.759  23.193  20.560  0.2156  0.2919  0.0166
 4167DDP     C225000   0.398  23.128  20.452 -0.0424  0.1096 -0.0763
 4167DDP     C325001   0.105  23.375  21.087  0.0297 -0.2369  0.1225
 4167DDP     C425002   1.318  23.131  21.194  0.0848 -0.1510 -0.1405
 4168DDP     C125003  13.842  17.827  26.956 -0.1177 -0.0374 -0.1874
 4168DDP     P125004  13.775  18.092  27.272 -0.4367 -0.1466  0.0997
 4168DDP     P225005  14.230  17.765  26.816  0.1980  0.2245 -0.1542
 4168DDP     C225006  14.637  17.794  27.019 -0.0462 -0.1641 -0.2191
 4168DDP     C325007  13.516  18.335  27.420  0.0241 -0.0616 -0.1964
 4168DDP     C425008  13.576  17.481  27.029 -0.0952 -0.1310  0.3967
 4169DDP     C125009  12.777  21.349  29.205 -0.1450 -0.2055 -0.0479
 4169DDP     P125010  12.463  21.681  29.108 -0.0963 -0.1600  0.1544
 4169DDP     P225011  13.165  21.557  29.116 -0.0740  0.1209 -0.1404
 4169DDP     C225012  13.398  21.426  28.679  0.0663 -0.0572  0.0394
 4169DDP     C325013  12.232  21.720  28.682  0.0220  0.0815  0.2809
 4169DDP     C425014  12.787  20.983  29.426  0.1580  0.0234 -0.1920
 4170DDP     C125015  22.016  12.836  10.869  0.0179  0.2400  0.0316
 4170DDP     P125016  21.915  13.250  11.169 -0.0427 -0.0378  0.0002
 4170DDP     P225017  22.312  12.676  10.913 -0.0533 -0.0924 -0.2070
 4170DDP     C225018  22.597  12.512  10.815 -0.1168 -0.0171 -0.0422
 4170DDP     C325019  21.522  13.562  11.162 -0.0548 -0.1083  0.0400
 4170DDP     C425020  21.795  12.747  10.438 -0.0452  0.0817 -0.1168
 4171DDP     C125021  15.125   2.805   3.596  0.1698 -0.0669  0.0448
 4171DDP     P125022  14.866   2.857   3.879 -0.2556  0.3058  0.0812
 4171DDP     P225023  15.054   2.402   3.405 -0.1413  0.2596  0.0693
 4171DDP     C225024  14.761   2.072   3.325  0.0005  0.0270 -0.0686
 4171DDP     C325025  14.752   3.070   3.987  0.3022  0.0969 -0.1879
 4171DDP     C425026  15.331   3.034   3.244 -0.1469  0.1226  0.0146
 4172DDP     C125027  15.702   5.978   1.158 -0.2891 -0.1543 -0.1145
 4172DDP     P125028  16.138   6.017   1.221  0.0248  0.0858 -0.1214
 4172DDP     P225029  15.559   6.064   0.710 -0.2571 -0.1027  0.0817
 4172DDP     C225030  15.204   5.845   0.550 -0.2836  0.0383 -0.1288
 4172DDP     C325031  16.372   6.387   1.168 -0.0647 -0.1020  0.0442
 4172DDP     C425032  15.291   5.945   1.471 -0.5721  0.3043  0.1090
 4173DDP     C125033  17.387  23.980   0.642 -0.1376  0.2037  0.2241
 4173DDP     P125034  17.375  23.915   0.187 -0.2416  0.1995 -0.3987
 4173DDP     P225035  17.180  23.496   0.661  0.0860  0.0173  0.1630
 4173DDP     C225036  16.746  23.651   0.837 -0.3116  0.0253  0.1004
 4173DDP     C325037  17.390  23.723  30.153  0.2996 -0.1329  0.0245
 4173DDP     C425038  17.506  24.215   1.003  0.0151  0.0568 -0.1815
 4174DDP     C125039  26.240  19.349   2.104  0.1099 -0.1608  0.1558
 4174DDP     P125040  26.403  18.966   2.338 -0.0780 -0.0916  0.2255
 4174DDP     P225041  26.186  19.760   2.289  0.0929  0.0658 -0.1048
 4174DDP     C225042  25.835  19.908   2.545 -0.2951  0.0267 -0.1700
 4174DDP     C325043  26.277  18.940   2.759 -0.0845  0.0578  0.3186
 4174DDP     C425044  26.308  19.332   1.607  0.4318 -0.0661  0.1875
 4175DDP     C125045  29.680   0.419   7.632 -0.3638  0.2668 -0.0616
 4175DDP     P125046  30.049   0.513   7.607 -0.0850 -0.4086  0.1270
 4175DDP     P225047  29.423  30.338   7.495 -0.0508  0.4738  0.2522
 4175DDP     C225048  29.074  30.013   7.463 -0.2685  0.2890  0.0645
 4175DDP     C325049   0.108   0.490   7.960  0.0945  0.0695 -0.0084
 4175DDP     C425050  29.544   0.833   7.666  0.1210 -0.1098  0.0125
 4176DDP     C125051  23.211  29.127   9.772  0.0648  0.0231  0.2910
 4176DDP     P125052  23.486  29.388   9.521 -0.1528 -0.1681 -0.1703
 4176DDP     P225053  22.967  29.345  10.259 -0.1840 -0.1954 -0.0851
 4176DDP     C225054  22.747  29.551  10.619  0.1810 -0.0446 -0.1738
 4176DDP     C325055  23.804  29.350   9.314  0.1801 -0.0700 -0.0597
 4176DDP     C425056  23.060  28.719   9.729 -0.2758 -0.0463 -0.1099
 4177DDP     C125057  22.992   4.095  28.723 -0.1412 -0.2208  0.3269
 4177DDP     P125058  22.626   4.039  29.038  0.0583 -0.1958  0.1444
 4177DDP     P225059  22.867   4.352  28.345  0.3260  0.1108  0.0126
 4177DDP     C225060  22.960   4.598  28.012  0.0448  0.1812 -0.3351
 4177DDP     C325061  22.252   4.375  29.105  0.1456  0.4462  0.2387
 4177DDP     C425062  23.362   3.844  28.511 -0.3270 -0.0792 -0.0770
 4178DDP     C125063  10.641   6.976  21.262 -0.0985 -0.7663 -0.1975
 4178DDP     P125064  10.599   7.173  21.622  0.0931 -0.1851 -0.2846
 4178DDP     P225065  11.012   6.664  21.317  0.1967 -0.2894  0.1622
 4178DDP     C225066  11.277   6.495  21.635  0.0084  0.1268  0.2382
 4178DDP     C325067  10.520   7.566  21.850 -0.1457 -0.1873  0.1445
 4178DDP     C425068  10.478   7.147  20.866  0.1165 -0.3742 -0.1033
 4179DDP     C125069   2.233   9.468  28.954 -0.1760  0.1426  0.1029
 4179DDP     P125070   2.672   9.528  28.635 -0.3326 -0.1106 -0.2842
 4179DDP     P225071   1.880   9.227  28.934  0.0743 -0.1290  0.0688
 4179DDP     C225072   1.468   9.057  29.124  0.0563  0.2922 -0.2759
 4179DDP     C325073   3.056   9.370  28.801  0.5433  0.1115 -0.1937
 4179DDP     C425074   2.252   9.719  29.285  0.2503  0.2930 -0.0579
 4180DDP     C125075   4.801  15.219  20.736 -0.1602  0.0283  0.1486
 4180DDP     P125076   5.132  15.361  20.483  0.0959  0.0065  0.3860
 4180DDP     P225077   4.447  15.393  20.706  0.0532  0.1006 -0.1312
 4180DDP     C225078   4.060  15.465  20.687  0.2322 -0.3123  0.1569
 4180DDP     C325079   5.575  15.365  20.357 -0.0244 -0.0962 -0.1432
 4180DDP     C425080   4.936  14.831  20.882 -0.0742 -0.1623  0.0650
 4181DDP     C125081   4.412  29.408  13.920 -0.1440 -0.1851 -0.0603
 4181DDP     P125082   4.804  29.670  13.756  0.0030 -0.1371  0.0860
 4181DDP     P225083   4.064  29.354  13.889  0.0379  0.1283  0.0711
 4181DDP     C225084   3.714  29.443  13.872  0.0982 -0.0714  0.1284
 4181DDP     C325085   5.089  29.740  13.385 -0.0822 -0.1388  0.0212
 4181DDP     C425086   4.820  29.150  14.155  0.0571  0.0845  0.1196
 4182DDP     C125087  24.270   9.595   3.996 -0.1175  0.0160 -0.1091
 4182DDP     P125088  24.187   9.783   3.626  0.0059  0.1169 -0.0222
 4182DDP     P225089  24.055   9.558   4.362 -0.3809  0.1395 -0.1441
 4182DDP     C225090  23.800   9.439   4.695 -0.3300 -0.2870  0.2072
 4182DDP     C325091  24.200  10.266   3.609 -0.0492 -0.0646  0.0417
 4182DDP     C425092  24.530   9.300   3.970 -0.1453  0.3168  0.0262
 4183DDP     C125093   8.224  19.739   7.462  0.2562  0.0383 -0.0878
 4183DDP     P125094   8.257  19.691   7.064 -0.0407  0.0494  0.0833
 4183DDP     P225095   8.003  19.478   7.666 -0.0455  0.1013  0.1550
 4183DDP     C225096   7.571  19.172   7.542  0.0109  0.0705  0.1188
 4183DDP     C325097   8.176  19.534   6.684 -0.3389  0.3848  0.0952
 4183DDP     C425098   8.495  20.084   7.690  0.2159  0.1652 -0.0499
 4184DDP     C125099  12.442   0.982  24.355  0.1396  0.1836  0.0780
 4184DDP     P125100  12.606   1.200  24.552 -0.2483 -0.1552 -0.4276
 4184DDP     P225101  12.173   1.134  24.120  0.0192 -0.2164  0.0869
 4184DDP     C225102  11.812   1.308  24.181 -0.0123 -0.0519 -0.0577
 4184DDP     C325103  12.800   1.494  24.565  0.2615  0.1931  0.1841
 4184DDP     C425104  12.255   0.589  24.520 -0.1401  0.3348 -0.1309
 4185DDP     C125105   0.524  14.444  29.751 -0.1408 -0.0183 -0.2336
 4185DDP     P125106   0.209  14.640  29.380 -0.0122  0.0889 -0.0683
 4185DDP     P225107   0.673  14.693  30.121  0.0161 -0.0723 -0.2964
 4185DDP     C225108   0.765  14.405   0.278  0.0886  0.0864  0.0877
 4185DDP     C325109  30.116  14.810  29.343  0.0911  0.2342  0.4590
 4185DDP     C425110   0.687  14.037  29.649 -0.1774 -0.2725 -0.4613
 4186DDP     C125111  13.405   8.107  18.937  0.0747 -0.0502 -0.0940
 4186DDP     P125112  13.860   8.287  18.755  0.0640  0.2267  0.0174
 4186DDP     P225113  13.496   7.859  19.353  0.0092 -0.0340  0.3075
 4186DDP     C225114  13.509   7.496  19.495 -0.1948  0.0977  0.3934
 4186DDP     C325115  14.196   8.574  18.532 -0.3764  0.0640 -0.2325
 4186DDP     C425116  12.981   8.022  18.724 -0.0432 -0.1028  0.1172
 4187DDP     C125117  13.098  29.344   2.252  0.1189  0.1850 -0.2667
 4187DDP     P125118  13.011  29.052   2.517  0.1011  0.1540  0.3321
 4187DDP     P225119  13.132  29.113   1.849 -0.0392  0.2440  0.2946
 4187DDP     C225120  12.872  28.782   1.614  0.0034 -0.0584 -0.0612
 4187DDP     C325121  12.755  28.803   2.950  0.0098  0.3353  0.0781
 4187DDP     C425122  13.256  29.700   2.293  0.2539 -0.3157 -0.0285
 4188DDP     C125123   4.895   5.334   4.439  0.1457  0.3316  0.1256
 4188DDP     P125124   5.005   5.826   4.346 -0.1044  0.0490 -0.1024
 4188DDP     P225125   4.699   4.947   4.214  0.0494 -0.1645 -0.1076
 4188DDP     C225126   4.625   4.940   3.715  0.1386  0.1773 -0.2259
 4188DDP     C325127   4.893   6.240   4.221  0.0376  0.0401 -0.0454
 4188DDP     C425128   5.087   5.266   4.824  0.4316  0.0054  0.0690
 4189DDP     C125129  29.560  21.683  24.874  0.1524 -0.2208 -0.1552
 4189DDP     P125130  29.191  21.348  24.848  0.1051 -0.0032 -0.2378
 4189DDP     P225131  29.551  21.900  24.383  0.1474 -0.1418 -0.2301
 4189DDP     C225132  29.421  21.742  23.948 -0.1158 -0.0105  0.1072
 4189DDP     C325133  28.817  21.279  24.628 -0.0829  0.0253  0.1581
 4189DDP     C425134  29.797  21.882  25.271 -0.0416  0.0197 -0.3857
 4190DDP     C125135  15.688  28.206  10.355 -0.1713  0.2397  0.2772
 4190DDP     P125136  15.754  28.387  10.727 -0.0834  0.0958  0.2610
 4190DDP     P225137  15.733  28.357   9.974  0.0765  0.0366 -0.3959
 4190DDP     C225138  15.574  28.506   9.747  0.1035 -0.3762  0.2368
 4190DDP     C325139  15.569  28.572  10.992 -0.0596  0.0718 -0.1071
 4190DDP     C425140  15.545  27.805  10.384 -0.0843 -0.0624  0.1811
 4191DDP     C125141   9.656   8.833  12.875 -0.0256  0.0462  0.0917
 4191DDP     P125142   9.546   9.232  12.827 -0.0325 -0.1601  0.1873
 4191DDP     P225143   9.845   8.826  13.182 -0.0799  0.2417 -0.0031
 4191DDP     C225144  10.141   8.956  13.496  0.1780 -0.3057 -0.3584
 4191DDP     C325145   9.360   9.577  12.727 -0.0004 -0.1475  0.1621
 4191DDP     C425146   9.527   8.619  12.590 -0.2038  0.1392 -0.1571
 4192DDP     C125147   2.509   8.424  15.680  0.1477  0.0728  0.0168
 4192DDP     P125148   2.098   8.296  15.470 -0.0657  0.1880 -0.4538
 4192DDP     P225149   2.625   8.913  15.625  0.4619 -0.0337  0.0731
 4192DDP     C225150   2.370   9.121  15.414  0.2064 -0.1282  0.2984
 4192DDP     C325151   1.866   7.949  15.543 -0.1385 -0.2108  0.5387
 4192DDP     C425152   2.816   8.254  15.858 -0.1829 -0.1421  0.1625
 4193DDP     C125153  23.821  21.249   9.910  0.0200  0.1198  0.0447
 4193DDP     P125154  23.951  20.961  10.184 -0.1103  0.0710  0.0959
 4193DDP     P225155  23.980  21.651   9.782  0.3864 -0.2697  0.2805
 4193DDP     C225156  24.152  21.758   9.458  0.2147  0.0870  0.1450
 4193DDP     C325157  24.272  20.834  10.601 -0.0796 -0.0112 -0.1094
 4193DDP     C425158  23.409  21.050   9.772  0.3071 -0.2941  0.2331
 4194DDP     C125159   9.014   6.014  28.513 -0.2629 -0.0796  0.0576
 4194DDP     P125160   8.604   5.874  28.572 -0.0959  0.2047  0.5884
 4194DDP     P225161   9.257   6.304  28.730  0.3693  0.2101  0.0513
 4194DDP     C225162   9.593   6.566  28.755  0.3059 -0.0491  0.0041
 4194DDP     C325163   8.255   5.882  28.829  0.1513  0.1852 -0.0673
 4194DDP     C425164   9.123   5.686  28.307 -0.0717 -0.0879 -0.2005
 4195DDP     C125165  18.988   0.658   2.068 -0.0622  0.1418  0.0887
 4195DDP     P125166  19.218   1.136   2.229 -0.1693 -0.1851  0.0953
 4195DDP     P225167  18.518   0.546   2.055 -0.2728 -0.0388  0.2268
 4195DDP     C225168  18.138   0.639   1.935 -0.2154 -0.0279  0.3195
 4195DDP     C325169  19.162   1.591   2.484 -0.1587 -0.0488  0.1625
 4195DDP     C425170  19.474   0.675   2.005  0.2491 -0.1145  0.1439
 4196DDP     C125171  12.441  24.289   0.678 -0.0093  0.1561  0.0168
 4196DDP     P125172  12.706  24.492   0.456 -0.0647 -0.2370 -0.0525
 4196DDP     P225173  12.391  24.705   0.907 -0.2565  0.1207 -0.1137
 4196DDP     C225174  12.653  24.935   1.202  0.2575  0.1317 -0.1580
 4196DDP     C325175  13.203  24.553   0.559  0.2524  0.2351  0.0524
 4196DDP     C425176  12.482  23.839   0.781 -0.4701  0.0194  0.1828
 4197DDP     C125177  11.282  25.217  28.681  0.0392  0.1071 -0.1651
 4197DDP     P125178  11.261  24.726  28.607  0.2404 -0.1908  0.1204
 4197DDP     P225179  10.889  25.378  28.869  0.2075  0.1636  0.0367
 4197DDP     C225180  10.839  25.539  29.255  0.1240 -0.0626 -0.3594
 4197DDP     C325181  10.985  24.336  28.788 -0.2226 -0.3921  0.0918
 4197DDP     C425182  11.616  25.416  28.676  0.4093  0.3327  0.1041
 4198DDP     C125183  12.678   6.257  25.634  0.0686  0.0578  0.3411
 4198DDP     P125184  12.866   5.924  25.495 -0.0395  0.2577 -0.1412
 4198DDP     P225185  12.215   6.447  25.514 -0.2026 -0.0815  0.3329
 4198DDP     C225186  12.039   6.814  25.718 -0.0845  0.4689  0.0158
 4198DDP     C325187  13.098   5.546  25.274  0.2574  0.3189  0.0368
 4198DDP     C425188  12.879   6.469  25.904 -0.2289 -0.0060  0.0986
 4199DDP     C125189  13.134  20.570   2.977  0.1848  0.0443 -0.0655
 4199DDP     P125190  13.035  20.912   2.605 -0.2889  0.1481  0.0748
 4199DDP     P225191  12.713  20.381   3.069  0.0390 -0.1595  0.0245
 4199DDP     C225192  12.398  20.475   3.353 -0.2486 -0.0667  0.0829
 4199DDP     C325193  12.635  21.058   2.327 -0.1362 -0.0830 -0.0386
 4199DDP     C425194  13.491  20.356   3.191  0.1085 -0.2373  0.0565
 4200DDP     C125195   1.695  25.719   5.575 -0.2085  0.0422  0.1766
 4200DDP     P125196   1.338  25.748   5.670 -0.0476  0.2045 -0.0368
 4200DDP     P225197   1.690  26.175   5.437 -0.3170  0.1099 -0.2839
 4200DDP     C225198   1.788  26.707   5.390  0.0460 -0.0788 -0.3521
 4200DDP     C325199   1.136  26.157   5.942 -0.2473  0.1402 -0.0503
 4200DDP     C425200   1.991  25.470   5.686 -0.3117  0.0906 -0.0757
 4201DDP     C125201   8.360  15.031   3.747  0.1409  0.1321 -0.0704
 4201DDP     P125202   8.546  15.389   3.783 -0.1614 -0.1654  0.0222
 4201DDP     P225203   7.943  15.003   3.528  0.0598 -0.0840 -0.0572
 4201DDP     C225204   7.814  15.125   3.116  0.0683  0.4315 -0.2151
 4201DDP     C325205   8.879  15.616   3.747  0.0069 -0.1630 -0.3024
 4201DDP     C425206   8.597  14.652   3.876 -0.1243  0.2395  0.0750
 4202DDP     C125207  29.817   7.654   4.473 -0.0752 -0.1236  0.1413
 4202DDP     P125208  29.753   7.387   4.692  0.0277  0.0475 -0.1702
 4202DDP     P225209  30.211   7.405   4.207 -0.3326 -0.1448  0.0736
 4202DDP     C225210   0.022   7.135   3.887 -0.0206  0.2365 -0.1652
 4202DDP     C325211  29.392   7.177   4.919  0.2282 -0.1070 -0.2202
 4202DDP     C425212  29.753   8.073   4.246  0.1601 -0.1142 -0.2088
 4203DDP     C125213  24.559   7.717  10.671  0.0902  0.0793  0.2071
 4203DDP     P125214  24.305   7.859  10.380 -0.2399  0.1287  0.0626
 4203DDP     P225215  24.976   7.476  10.639  0.1682 -0.2644  0.2450
 4203DDP     C225216  25.405   7.330  10.667 -0.2889  0.0333 -0.1927
 4203DDP     C325217  24.126   8.180  10.076 -0.0715  0.0570  0.0507
 4203DDP     C425218  24.227   7.605  10.879  0.2355 -0.5121  0.1500
 4204DDP     C125219   3.624  18.783  22.476 -0.2621  0.1337  0.0039
 4204DDP     P125220   4.051  18.620  22.405  0.1451 -0.1029  0.0252
 4204DDP     P225221   3.401  19.007  22.758  0.0658 -0.3026  0.0073
 4204DDP     C225222   3.542  18.866  23.232 -0.1937  0.0829 -0.1320
 4204DDP     C325223   4.369  18.763  22.411  0.1821 -0.3549  0.0394
 4204DDP     C425224   3.532  18.557  22.219  0.2446 -0.1348 -0.1466
 4205DDP     C125225  10.565   7.049  19.762 -0.3863 -0.0217  0.1669
 4205DDP     P125226  10.824   7.111  19.381 -0.0598 -0.3385  0.0155
 4205DDP     P225227  10.260   6.738  19.858  0.2936  0.1172  0.3147
 4205DDP     C225228  10.037   6.634  20.124  0.1066  0.0452 -0.1063
 4205DDP     C325229  10.957   6.866  18.967 -0.0037 -0.2561 -0.3257
 4205DDP     C425230  10.506   7.443  19.970  0.3143  0.4547  0.0723
 4206DDP     C125231  20.361  17.775  12.240 -0.0224  0.2989 -0.3036
 4206DDP     P125232  20.377  18.084  11.974  0.1843  0.0988  0.0006
 4206DDP     P225233  19.911  17.685  12.267 -0.2038 -0.1542 -0.2317
 4206DDP     C225234  19.510  17.575  12.260 -0.0284  0.0985  0.0759
 4206DDP     C325235  20.191  18.079  11.599  0.2410  0.1225 -0.1989
 4206DDP     C425236  20.686  17.425  12.345  0.1121  0.0664  0.2250
 4207DDP     C125237  25.974   4.315  17.067 -0.0181  0.2482  0.0885
 4207DDP     P125238  25.578   4.539  17.099  0.3431 -0.3207 -0.0945
 4207DDP     P225239  25.994   3.955  16.810 -0.0720  0.2276 -0.0842
 4207DDP     C225240  26.394   3.786  16.711 -0.0624 -0.1705  0.0368
 4207DDP     C325241  25.396   4.946  17.121 -0.2628 -0.1210  0.3390
 4207DDP     C425242  26.332   4.460  17.232 -0.0601  0.0858  0.1475
 4208DDP     C125243  20.211   4.473  23.136  0.0982  0.1400 -0.0029
 4208DDP     P125244  20.667   4.357  23.171  0.0412  0.0102  0.3003
 4208DDP     P225245  20.013   4.183  22.783 -0.2710 -0.1504 -0.4190
 4208DDP     C225246  19.841   4.306  22.430 -0.3048 -0.1665 -0.0576
 4208DDP     C325247  20.937   4.328  23.539  0.2361 -0.0245  0.0251
 4208DDP     C425248  20.075   4.851  23.423 -0.1701  0.5236  0.3488
 4209DDP     C125249  11.714  10.787  15.993  0.1352 -0.0299  0.1062
 4209DDP     P125250  11.743  10.890  16.347  0.1718  0.0781  0.0008
 4209DDP     P225251  11.451  11.148  15.820 -0.1148  0.0754  0.1160
 4209DDP     C225252  11.454  11.519  15.625 -0.2013 -0.2644  0.0524
 4209DDP     C325253  11.513  10.743  16.698  0.4561 -0.1397 -0.1541
 4209DDP     C425254  11.825  10.365  15.726  0.0591 -0.1031 -0.0350
 4210DDP     C125255   5.277  28.811  16.360 -0.3625  0.0738  0.0813
 4210DDP     P125256   5.383  28.612  15.955  0.2841  0.1824 -0.4275
 4210DDP     P225257   4.914  28.879  16.082 -0.2014 -0.1854  0.0757
 4210DDP     C225258   4.480  28.934  16.121  0.1537 -0.1749 -0.0395
 4210DDP     C325259   5.685  28.619  15.631  0.0530  0.1609 -0.1094
 4210DDP     C425260   5.472  28.890  16.748 -0.0281  0.0923 -0.1413
 4211DDP     C125261  20.145  21.587   1.790 -0.0435 -0.2092 -0.2740
 4211DDP     P125262  20.228  21.335   2.028  0.2041 -0.3051  0.0671
 4211DDP     P225263  20.293  21.935   2.003  0.0413 -0.0172  0.1398
 4211DDP     C225264  20.367  22.252   2.245  0.2506  0.0068 -0.0643
 4211DDP     C325265  20.517  20.977   2.140  0.2110  0.0691 -0.1705
 4211DDP     C425266  19.874  21.460   1.464  0.1589  0.0626 -0.0505
 4212DDP     C125267  25.316  21.629  27.904  0.1690 -0.0476  0.2549
 4212DDP     P125268  25.651  21.450  27.707  0.1404 -0.1323 -0.0775
 4212DDP     P225269  25.048  21.860  27.588 -0.1566  0.2839  0.0740
 4212DDP     C225270  24.802  22.145  27.349 -0.0075  0.2529  0.1269
 4212DDP     C325271  25.969  21.323  28.019  0.1707  0.1227 -0.0660
 4212DDP     C425272  25.273  21.783  28.353 -0.2066  0.1719  0.0949
 4213DDP     C125273   2.019   7.602  18.954  0.1062  0.2484  0.0823
 4213DDP     P125274   2.261   7.545  18.476  0.2738  0.0124 -0.0498
 4213DDP     P225275   1.923   8.006  19.103  0.2057 -0.0961  0.2724
 4213DDP     C225276   2.051   8.334  19.353 -0.3325  0.0995 -0.1646
 4213DDP     C325277   2.474   7.399  18.070 -0.1068 -0.4741  0.1689
 4213DDP     C425278   2.123   7.230  19.309 -0.3649 -0.2200  0.0618
 4214DDP     C125279   6.592   2.352   0.467  0.2086 -0.2910  0.0524
 4214DDP     P125280   6.794   2.696   0.502 -0.1573 -0.2001 -0.0117
 4214DDP     P225281   6.713   1.872   0.536 -0.0732 -0.0937  0.0013
 4214DDP     C225282   7.076   1.713   0.376 -0.0414  0.0298 -0.1065
 4214DDP     C325283   6.827   3.172   0.691 -0.0061  0.0752  0.0732
 4214DDP     C425284   6.146   2.280   0.386 -0.1997 -0.0762  0.3382
 4215DDP     C125285   3.221  13.314  15.274 -0.0247 -0.3207  0.0863
 4215DDP     P125286   3.026  13.140  15.609 -0.0240  0.1108  0.0788
 4215DDP     P225287   3.695  13.245  15.214 -0.0096 -0.1370 -0.1517
 4215DDP     C225288   4.090  13.138  15.050 -0.1420 -0.4647 -0.0128
 4215DDP     C325289   3.083  12.864  15.950 -0.0813 -0.0818 -0.0819
 4215DDP     C425290   3.088  13.305  14.905 -0.0766 -0.1461  0.3882
 4216DDP     C125291  18.624  20.801  20.652  0.2765 -0.1190 -0.1762
 4216DDP     P125292  18.652  20.988  21.057 -0.1445 -0.2091  0.0819
 4216DDP     P225293  18.818  20.584  20.404  0.0080  0.0544 -0.2342
 4216DDP     C225294  18.848  20.432  19.991  0.2134  0.2139 -0.0411
 4216DDP     C325295  18.812  20.950  21.498  0.0043 -0.0179  0.4401
 4216DDP     C425296  18.327  21.114  20.369 -0.0972 -0.1675  0.1499
 4217DDP     C125297   4.222  27.320  23.796  0.2886  0.0207 -0.0089
 4217DDP     P125298   3.861  27.459  23.833 -0.1033  0.0486 -0.3357
 4217DDP     P225299   4.219  26.813  23.829 -0.1569  0.0563 -0.0205
 4217DDP     C225300   4.164  26.410  24.194 -0.4495  0.1512  0.0780
 4217DDP     C325301   3.665  27.732  23.886 -0.0205  0.2654  0.2444
 4217DDP     C425302   4.484  27.552  24.067 -0.0573  0.2059 -0.0361
 4218DDP     C125303   2.967  17.633  24.477  0.0312 -0.1797 -0.1858
 4218DDP     P125304   2.624  17.554  24.740  0.1449  0.2083  0.0129
 4218DDP     P225305   3.373  17.415  24.588 -0.0074  0.0462 -0.3429
 4218DDP     C225306   3.615  17.012  24.704  0.1591  0.2049 -0.3884
 4218DDP     C325307   2.324  17.312  24.666  0.3641 -0.0467 -0.1190
 4218DDP     C425308   2.969  17.928  24.076 -0.1231  0.0949 -0.0499
 4219DDP     C125309  29.563   8.727   1.441  0.1427 -0.0880  0.0963
 4219DDP     P125310  29.605   8.779   1.859 -0.2135  0.1635 -0.0241
 4219DDP     P225311  29.756   9.011   1.258 -0.3310 -0.1065  0.1073
 4219DDP     C225312  29.981   9.432   0.910  0.1839 -0.2883 -0.0545
 4219DDP     C325313  29.860   9.075   2.089 -0.0462 -0.1523  0.1258
 4219DDP     C425314  29.180   8.647   1.304  0.1152 -0.1001  0.0209
 4220DDP     C125315  19.003   1.869  20.126 -0.0251 -0.0881 -0.0733
 4220DDP     P125316  18.654   1.878  19.792 -0.0845 -0.1454  0.0845
 4220DDP     P225317  19.023   1.536  20.394 -0.0451  0.0866  0.3397
 4220DDP     C225318  19.299   1.437  20.895  0.2067  0.1638 -0.1707
 4220DDP     C325319  18.282   2.121  19.588  0.1587 -0.3846  0.2186
 4220DDP     C425320  19.132   2.280  20.092  0.0205 -0.1897 -0.2551
 4221DDP     C125321   0.990   8.689  11.451  0.0475  0.3342 -0.1409
 4221DDP     P125322   0.772   8.486  11.700 -0.2267 -0.1655 -0.0713
 4221DDP     P225323   1.344   8.752  11.518 -0.1774 -0.1434  0.0034
 4221DDP     C225324   1.759   8.584  11.350  0.0314  0.0994  0.0096
 4221DDP     C325325   0.844   8.312  12.062 -0.1632 -0.0216  0.0491
 4221DDP     C425326   0.848   8.751  11.069  0.2363  0.2257  0.3663
 4222DDP     C125327  28.667  22.045  26.688 -0.0081 -0.1550  0.0769
 4222DDP     P125328  28.292  22.004  26.483  0.1217  0.3525  0.0429
 4222DDP     P225329  28.750  22.414  26.568 -0.0817  0.2083  0.1783
 4222DDP     C225330  28.262  22.656  26.408 -0.0277  0.4587  0.1281
 4222DDP     C325331  27.853  21.754  26.564 -0.1759 -0.0823 -0.2680
 4222DDP     C425332  28.895  21.618  26.867 -0.1301  0.1121 -0.2185
 4223DDP     C125333  23.455  12.859  17.656 -0.0692 -0.1221 -0.2123
 4223DDP     P125334  23.762  12.650  17.558  0.0458 -0.1166  0.0840
 4223DDP     P225335  23.140  12.892  17.336  0.0833 -0.0436  0.0723
 4223DDP     C225336  23.164  12.888  16.881  0.1682  0.0722  0.1118
 4223DDP     C325337  24.190  12.656  17.714 -0.0167 -0.3862  0.0516
 4223DDP     C425338  23.528  13.170  18.000 -0.0726  0.1796  0.1313
 4224DDP     C125339  13.673  21.553  27.221  0.0430  0.0517 -0.0482
 4224DDP     P125340  13.820  21.886  26.931  0.1185 -0.1228 -0.1245
 4224DDP     P225341  13.189  21.454  27.230 -0.0029  0.2687  0.1253
 4224DDP     C225342  12.725  21.131  26.970 -0.0938  0.0457 -0.1349
 4224DDP     C325343  13.982  21.890  26.520  0.4656 -0.0153  0.2097
 4224DDP     C425344  13.945  21.179  27.377 -0.1619 -0.2223  0.2757
 4225DDP     C125345  10.548  26.216  24.588 -0.2385  0.0747  0.2216
 4225DDP     P125346  10.291  26.269  24.929 -0.0265 -0.0486  0.1256
 4225DDP     P225347  10.892  26.586  24.441  0.1971  0.4241  0.0533
 4225DDP     C225348  11.335  26.696  24.507  0.0880 -0.3076  0.2084
 4225DDP     C325349  10.142  26.501  25.332  0.0719 -0.0493 -0.1334
 4225DDP     C425350  10.537  25.970  24.165 -0.1534  0.1269  0.3113
 4226DDP     C125351  11.604   7.447  17.660  0.0456  0.1700 -0.0249
 4226DDP     P125352  11.445   7.096  17.583  0.0700  0.0408 -0.0645
 4226DDP     P225353  11.471   7.702  17.915  0.1009 -0.1916  0.0142
 4226DDP     C225354  11.009   7.911  17.843 -0.1573 -0.0838 -0.0770
 4226DDP     C325355  11.281   6.856  17.363  0.0438 -0.1563 -0.0027
 4226DDP     C425356  11.951   7.707  17.655 -0.2528 -0.0346 -0.0874
 4227DDP     C125357   7.638  17.820   8.778 -0.1132  0.1380 -0.3302
 4227DDP     P125358   7.383  17.405   8.882 -0.2341 -0.2859 -0.0351
 4227DDP     P225359   7.936  18.061   9.078  0.2969  0.1142 -0.2825
 4227DDP     C225360   8.136  18.477   9.092 -0.0284  0.1235 -0.0618
 4227DDP     C325361   6.986  17.194   9.020  0.2144 -0.2493  0.2266
 4227DDP     C425362   7.293  18.015   8.507 -0.2835 -0.2881  0.0517
 4228DDP     C125363  21.982  15.672  18.061 -0.1503 -0.1035 -0.0568
 4228DDP     P125364  22.056  15.510  18.550 -0.1107 -0.1541 -0.1368
 4228DDP     P225365  22.305  15.454  18.075  0.1861  0.1348 -0.1578
 4228DDP     C225366  22.604  15.210  18.037  0.1261 -0.3128  0.1003
 4228DDP     C325367  22.155  15.240  18.857 -0.2204  0.2755  0.3043
 4228DDP     C425368  21.971  16.063  17.782 -0.0482 -0.1327  0.2024
 4229DDP     C125369   5.973  26.656  19.780  0.2955 -0.2880 -0.1664
 4229DDP     P125370   5.909  26.946  20.070  0.3281  0.2222 -0.0190
 4229DDP     P225371   5.566  26.425  19.748  0.1013 -0.2708  0.2068
 4229DDP     C225372   5.093  26.291  19.815 -0.4236 -0.0436  0.0216
 4229DDP     C325373   5.396  27.014  20.108 -0.1163  0.0155  0.3521
 4229DDP     C425374   6.397  26.701  19.706 -0.0878 -0.0782  0.1699
 4230DDP     C125375   3.358  20.087  14.171 -0.2475 -0.0816 -0.0124
 4230DDP     P125376   3.751  20.202  14.218  0.0779 -0.1276  0.3681
 4230DDP     P225377   3.054  20.053  14.611  0.0672  0.0579 -0.0788
 4230DDP     C225378   2.957  19.760  14.904 -0.1348  0.3808 -0.1314
 4230DDP     C325379   4.126  20.413  14.295  0.2075 -0.3491  0.0851
 4230DDP     C425380   3.013  20.192  13.873  0.0351  0.0264 -0.2479
 4231DDP     C125381  10.695   0.843  24.674  0.2364 -0.1874 -0.1584
 4231DDP     P125382  11.155   0.944  24.619  0.0576  0.0093  0.2128
 4231DDP     P225383  10.423   1.052  24.803  0.1242 -0.5587 -0.0290
 4231DDP     C225384   9.943   1.165  24.780 -0.1878  0.1991 -0.0251
 4231DDP     C325385  11.497   1.197  24.607 -0.2596  0.0933  0.2464
 4231DDP     C425386  10.474   0.368  24.639  0.2102  0.0620  0.2366
 4232DDP     C125387  27.253  19.321   0.075 -0.0569  0.0744  0.2103
 4232DDP     P125388  27.192  19.699  30.121 -0.2104  0.0015 -0.0680
 4232DDP     P225389  27.480  19.081  30.110 -0.2761 -0.2986  0.3785
 4232DDP     C225390  27.566  18.746  29.812 -0.2158 -0.3930 -0.0454
 4232DDP     C325391  26.730  19.932  29.967 -0.2511 -0.0355  0.1998
 4232DDP     C425392  27.259  19.261   0.578 -0.1984  0.2017 -0.0676
 4233DDP     C125393  14.136  11.522  29.271 -0.1141 -0.0598 -0.0894
 4233DDP     P125394  14.223  11.998  29.185 -0.1051 -0.1453 -0.0532
 4233DDP     P225395  13.985  11.252  28.850 -0.3351  0.0765 -0.2927
 4233DDP     C225396  14.020  10.886  28.769 -0.1712  0.1007  0.0102
 4233DDP     C325397  14.343  12.406  29.146 -0.0641  0.0600 -0.0249
 4233DDP     C425398  14.236  11.402  29.746 -0.1645  0.0043 -0.2992
 4234DDP     C125399   5.136  22.862  22.702  0.1268 -0.4109 -0.3262
 4234DDP     P125400   5.009  23.271  22.831 -0.1493  0.1968 -0.2650
 4234DDP     P225401   4.862  22.622  22.414 -0.1647  0.1012 -0.3291
 4234DDP     C225402   4.605  22.274  22.558  0.2610 -0.1627 -0.0169
 4234DDP     C325403   4.952  23.719  22.772  0.0032  0.0516  0.3979
 4234DDP     C425404   5.447  22.707  22.921  0.0355  0.1552 -0.3401
 4235DDP     C125405  25.492  10.928   5.610  0.1181 -0.0870  0.0521
 4235DDP     P125406  25.509  10.701   5.966  0.1204 -0.1167  0.1485
 4235DDP     P225407  25.531  11.408   5.604  0.1361 -0.2684  0.0269
 4235DDP     C225408  25.527  11.886   5.542 -0.1514  0.1145 -0.0928
 4235DDP     C325409  25.805  10.465   6.297 -0.0786  0.2078 -0.0397
 4235DDP     C425410  25.402  10.821   5.215  0.1663 -0.0157 -0.0849
 4236DDP     C125411  23.573  28.568   4.638 -0.3057  0.1775 -0.0030
 4236DDP     P125412  23.892  28.853   4.727  0.0770  0.0216  0.0681
 4236DDP     P225413  23.329  28.592   4.325 -0.1391  0.1200  0.1188
 4236DDP     C225414  22.943  28.625   4.082 -0.3330  0.2361  0.1703
 4236DDP     C325415  23.876  29.244   4.885 -0.0971 -0.1934  0.1342
 4236DDP     C425416  23.735  28.236   4.816  0.2228  0.2197 -0.2479
 4237DDP     C125417   5.911   6.181  11.987  0.1168 -0.1861 -0.0084
 4237DDP     P125418   6.132   6.516  12.227 -0.1495 -0.3019  0.0082
 4237DDP     P225419   5.906   6.396  11.747 -0.0330 -0.1685 -0.1925
 4237DDP     C225420   5.749   6.496  11.349 -0.2962 -0.0114 -0.2317
 4237DDP     C325421   6.580   6.833  12.126  0.3238 -0.1239  0.0242
 4237DDP     C425422   5.827   5.751  12.130 -0.0723 -0.1255  0.1759
 4238DDP     C125423  23.732  26.976   2.302 -0.1764  0.2052 -0.0213
 4238DDP     P125424  24.028  27.413   2.245  0.0692 -0.1706  0.2000
 4238DDP     P225425  23.349  26.788   2.503  0.0645 -0.1647  0.1272
 4238DDP     C225426  23.013  26.873   2.741  0.0815 -0.0132 -0.0354
 4238DDP     C325427  23.995  27.614   1.815 -0.1120 -0.1214 -0.0168
 4238DDP     C425428  23.845  26.488   2.003 -0.3037  0.1154  0.2005
 4239DDP     C125429   0.068  19.626  29.675 -0.1073 -0.2509 -0.1255
 4239DDP     P125430  30.128  19.476  29.964 -0.1544 -0.2557 -0.0892
 4239DDP     P225431  -0.000  19.597  29.216 -0.0011  0.0390  0.5078
 4239DDP     C225432   0.214  19.752  28.790 -0.0540 -0.1529 -0.1304
 4239DDP     C325433  29.734  19.629  29.942 -0.2390  0.0764 -0.1267
 4239DDP     C425434   0.133  20.028  29.891  0.0810 -0.1246 -0.1912
 4240DDP     C125435  21.819   7.177  25.895 -0.0875 -0.3193 -0.1370
 4240DDP     P125436  22.067   7.065  26.182  0.0706  0.0864 -0.2665
 4240DDP     P225437  21.854   6.916  25.495 -0.0944  0.4346  0.1400
 4240DDP     C225438  22.320   6.875  25.228  0.3050 -0.1019  0.2130
 4240DDP     C325439  22.257   7.013  26.577  0.1710 -0.0961  0.2360
 4240DDP     C425440  21.472   7.474  25.940 -0.0225  0.2967 -0.3552
 4241DDP     C125441  13.732  23.436  14.430 -0.1182  0.1067 -0.3753
 4241DDP     P125442  13.642  23.022  14.251  0.0061 -0.0489 -0.2063
 4241DDP     P225443  13.365  23.651  14.447 -0.2546 -0.0228  0.1073
 4241DDP     C225444  13.081  23.911  14.575 -0.0422  0.0731 -0.0228
 4241DDP     C325445  13.315  22.618  14.478  0.1193 -0.0843 -0.2220
 4241DDP     C425446  14.043  23.639  14.473  0.0979  0.0337  0.4159
 4242DDP     C125447  26.849  29.293  16.080  0.1728  0.2596  0.0784
 4242DDP     P125448  26.432  29.219  16.147 -0.2590 -0.1724 -0.2618
 4242DDP     P225449  27.303  29.268  16.400  0.3390 -0.4334  0.1255
 4242DDP     C225450  27.566  29.403  16.748  0.1194  0.0494  0.0818
 4242DDP     C325451  26.241  29.396  16.408  0.0228  0.0128  0.0586
 4242DDP     C425452  27.098  29.202  15.675  0.0304 -0.1601 -0.1644
 4243DDP     C125453  13.214  25.155   9.098 -0.0644  0.4497  0.1361
 4243DDP     P125454  13.101  24.679   9.091 -0.1987 -0.1053 -0.1431
 4243DDP     P225455  13.546  25.380   9.008  0.2345  0.1108 -0.2207
 4243DDP     C225456  13.929  25.511   9.083  0.1834 -0.1638  0.0581
 4243DDP     C325457  13.077  24.201   9.002 -0.2127  0.0853  0.0899
 4243DDP     C425458  12.920  25.338   9.400  0.3155  0.0067 -0.3620
 4244DDP     C125459   8.545  12.263   0.464 -0.3111  0.0899  0.2462
 4244DDP     P125460   8.186  12.548   0.459  0.0166 -0.2144 -0.1038
 4244DDP     P225461   8.655  12.102  30.262  0.0764 -0.0001 -0.0501
 4244DDP     C225462   8.678  12.173  29.840  0.3734 -0.1449  0.0034
 4244DDP     C325463   7.921  12.844   0.739 -0.0634 -0.1491  0.0402
 4244DDP     C425464   8.666  12.403   0.830 -0.2455  0.1826  0.2287
 4245DDP     C125465  10.952  16.613  20.367  0.1240  0.2148  0.0161
 4245DDP     P125466  11.218  16.281  20.195 -0.0776 -0.0765  0.1104
 4245DDP     P225467  11.113  16.669  20.806 -0.2847  0.0759 -0.0387
 4245DDP     C225468  11.142  17.053  21.098  0.3162  0.0145  0.0840
 4245DDP     C325469  11.723  16.234  20.096 -0.0070  0.1455  0.1324
 4245DDP     C425470  10.710  16.793  20.144  0.0153  0.3052 -0.1688
 4246DDP     C125471  11.200   1.789  11.752 -0.3039 -0.2098 -0.1956
 4246DDP     P125472  11.104   1.293  11.865 -0.2480 -0.1759  0.0069
 4246DDP     P225473  11.054   2.059  11.525 -0.1440  0.2788  0.1281
 4246DDP     C225474  10.641   2.050  11.248 -0.1163 -0.0395  0.1613
 4246DDP     C325475  10.964   1.075  12.224  0.0363  0.1648  0.0409
 4246DDP     C425476  11.461   2.079  11.948 -0.2780 -0.0722 -0.0365
 4247DDP     C125477  26.947  24.151   3.840 -0.0780  0.1925 -0.0382
 4247DDP     P125478  26.936  24.285   4.308 -0.2882  0.0467 -0.0217
 4247DDP     P225479  27.293  23.893   3.686 -0.1923  0.1313 -0.3403
 4247DDP     C225480  27.607  23.773   3.842  0.0752 -0.0290  0.2105
 4247DDP     C325481  27.082  24.024   4.706 -0.1489  0.0110  0.1201
 4247DDP     C425482  26.663  24.421   3.602 -0.0253 -0.0100 -0.1664
 4248DDP     C125483  28.636  15.621  11.623 -0.1214  0.0525 -0.1009
 4248DDP     P125484  28.341  15.394  11.848 -0.1787 -0.0578  0.1960
 4248DDP     P225485  28.678  16.073  11.778  0.3182  0.2328  0.0669
 4248DDP     C225486  28.746  16.449  11.868 -0.1391 -0.2282 -0.2033
 4248DDP     C325487  27.971  15.418  12.075 -0.0501 -0.0394  0.3058
 4248DDP     C425488  28.813  15.486  11.128  0.1641 -0.4127  0.2359
 4249DDP     C125489   3.942  11.255   1.440 -0.1062  0.1103 -0.1195
 4249DDP     P125490   4.239  11.021   1.656 -0.0580  0.1740 -0.2302
 4249DDP     P225491   4.194  11.272   1.081  0.0022  0.1398 -0.1572
 4249DDP     C225492   4.546  11.217   0.741 -0.0659 -0.4007 -0.0747
 4249DDP     C325493   4.606  10.863   1.836 -0.0055  0.0980  0.0668
 4249DDP     C425494   3.561  11.132   1.582 -0.1954  0.0515 -0.0559
 4250DDP     C125495  18.362   5.194  26.151 -0.0234 -0.1687 -0.3016
 4250DDP     P125496  18.108   5.372  25.969 -0.3174 -0.2969 -0.0443
 4250DDP     P225497  18.776   5.167  26.092  0.0227 -0.1441 -0.0075
 4250DDP     C225498  19.130   5.009  26.341  0.1188  0.3992 -0.4404
 4250DDP     C325499  17.935   5.632  25.838  0.0652 -0.1491 -0.1356
 4250DDP     C425500  18.243   4.888  26.485 -0.0072 -0.0154  0.3710
 4251DDP     C125501  25.409  18.660  21.614 -0.0075 -0.0520  0.1566
 4251DDP     P125502  25.247  18.586  21.260 -0.1695 -0.0183  0.3325
 4251DDP     P225503  25.696  18.863  21.430  0.0669  0.3023 -0.1094
 4251DDP     C225504  25.820  18.660  20.985  0.2471 -0.2750  0.0526
 4251DDP     C325505  24.903  18.725  21.007 -0.0556 -0.0336 -0.2544
 4251DDP     C425506  25.372  18.410  21.982  0.1321  0.0704  0.0154
 4252DDP     C125507   0.943   1.476  23.173  0.0980  0.2170  0.1565
 4252DDP     P125508   0.784   1.031  23.293 -0.0265 -0.0179  0.0193
 4252DDP     P225509   0.723   1.579  22.855 -0.0689  0.1729 -0.0089
 4252DDP     C225510   0.386   1.813  22.816  0.3469  0.1326 -0.0438
 4252DDP     C325511   0.836   0.692  23.588 -0.1388  0.0059  0.1196
 4252DDP     C425512   1.022   1.788  23.616 -0.1265 -0.0251  0.1293
 4253DDP     C125513  17.533  11.841   5.521  0.0084 -0.1197 -0.2616
 4253DDP     P125514  17.819  11.363   5.333  0.1937 -0.3973  0.0148
 4253DDP     P225515  17.090  11.941   5.666 -0.3427  0.0596 -0.0037
 4253DDP     C225516  16.810  11.788   6.001  0.0865 -0.0428 -0.2476
 4253DDP     C325517  18.162  11.127   5.205  0.3661  0.2460  0.0703
 4253DDP     C425518  17.762  12.190   5.466  0.3278  0.0244 -0.3217
 4254DDP     C125519  27.847   2.686  20.805 -0.2586 -0.2708  0.3792
 4254DDP     P125520  27.480   2.521  20.990 -0.1404  0.0949 -0.0909
 4254DDP     P225521  28.123   2.798  21.067 -0.0796 -0.3493  0.0435
 4254DDP     C225522  28.348   3.073  20.919  0.3883 -0.1061  0.1165
 4254DDP     C325523  27.372   2.078  20.868  0.2678 -0.3542  0.1748
 4254DDP     C425524  28.012   2.564  20.271 -0.0549  0.3615  0.0498
 4255DDP     C125525   9.450  24.270   9.882 -0.1669 -0.0005  0.0711
 4255DDP     P125526   9.397  24.106   9.464  0.1516  0.1825 -0.2463
 4255DDP     P225527   9.899  24.454  10.008 -0.0762 -0.0071  0.0510
 4255DDP     C225528  10.325  24.335   9.984  0.2598 -0.0080  0.1927
 4255DDP     C325529   9.244  24.060   9.070  0.0622  0.6276  0.1558
 4255DDP     C425530   9.177  24.407  10.150 -0.0586 -0.1105  0.0873
 4256DDP     C125531  14.321   7.214   8.017 -0.0183  0.1472  0.3363
 4256DDP     P125532  14.293   7.142   7.641  0.1565 -0.0983  0.1432
 4256DDP     P225533  14.594   7.556   8.001 -0.0928 -0.0380 -0.3560
 4256DDP     C225534  14.899   7.515   8.211 -0.0000 -0.1313  0.0731
 4256DDP     C325535  14.267   7.089   7.213  0.1051 -0.0435  0.0331
 4256DDP     C425536  14.433   6.896   8.396  0.2669  0.0413 -0.1127
 4257DDP     C125537  21.366  10.794  21.335 -0.1730  0.0045  0.0612
 4257DDP     P125538  21.040  11.101  21.400 -0.1945  0.0439  0.0346
 4257DDP     P225539  21.869  10.902  21.216  0.2741 -0.1556 -0.2154
 4257DDP     C225540  22.373  10.851  21.292  0.1802  0.0166 -0.2472
 4257DDP     C325541  21.147  11.540  21.455  0.3244 -0.1028  0.0775
 4257DDP     C425542  21.344  10.369  21.425 -0.2427  0.1983 -0.0450
 4258DDP     C125543  21.603  20.765  18.050 -0.0963  0.3889 -0.2504
 4258DDP     P125544  21.443  20.644  17.645 -0.1382  0.2825  0.0885
 4258DDP     P225545  21.952  21.100  18.115 -0.0280 -0.4138 -0.0844
 4258DDP     C225546  22.264  21.471  18.075 -0.2045  0.2905 -0.3298
 4258DDP     C325547  21.066  20.396  17.443  0.2786  0.0641  0.2989
 4258DDP     C425548  21.224  20.791  18.368 -0.0923 -0.2783 -0.2947
 4259DDP     C125549  27.570  27.274   3.552  0.1305 -0.1322 -0.1368
 4259DDP     P125550  27.570  27.679   3.434 -0.1173  0.0807 -0.0201
 4259DDP     P225551  27.227  27.023   3.751 -0.0783  0.0679 -0.2679
 4259DDP     C225552  27.244  26.674   4.023 -0.0342  0.2023 -0.1263
 4259DDP     C325553  27.903  27.916   3.143 -0.1315  0.0632  0.1836
 4259DDP     C425554  27.704  26.941   3.271 -0.0396 -0.0247 -0.2322
 4260DDP     C125555  17.677  19.115  29.285  0.0215 -0.1037 -0.1314
 4260DDP     P125556  17.648  18.680  29.364  0.1769  0.0806 -0.4109
 4260DDP     P225557  18.109  19.334  29.472 -0.1756 -0.0732  0.4386
 4260DDP     C225558  18.448  19.144  29.394  0.0426  0.0865 -0.2047
 4260DDP     C325559  17.480  18.314  29.079 -0.0755 -0.2514  0.0088
 4260DDP     C425560  17.442  19.384  29.115  0.1461 -0.1364 -0.3558
 4261DDP     C125561  20.791  19.008  24.310 -0.1046 -0.3363 -0.0598
 4261DDP     P125562  20.432  19.203  24.098 -0.0818  0.1775 -0.0450
 4261DDP     P225563  21.131  19.261  24.584  0.0535 -0.1636 -0.0741
 4261DDP     C225564  21.574  19.498  24.511  0.2801  0.2262 -0.4105
 4261DDP     C325565  20.569  19.391  23.656 -0.1063 -0.0080  0.0546
 4261DDP     C425566  20.905  18.612  24.097 -0.0214  0.0818  0.0581
 4262DDP     C125567  23.858   8.998  12.983  0.1711 -0.1199  0.0048
 4262DDP     P125568  23.393   9.191  13.110  0.1008 -0.3697 -0.0727
 4262DDP     P225569  24.045   9.023  12.574  0.0204  0.1004 -0.3899
 4262DDP     C225570  23.926   8.698  12.362 -0.1440 -0.2427  0.2485
 4262DDP     C325571  23.054   9.375  13.280 -0.1013 -0.2322 -0.0650
 4262DDP     C425572  23.960   8.678  13.242 -0.3476  0.3231 -0.1644
 4263DDP     C125573  24.559  21.426  14.444 -0.1282 -0.4684 -0.2467
 4263DDP     P125574  24.890  21.496  14.097 -0.0719 -0.0657 -0.0597
 4263DDP     P225575  24.721  21.792  14.576  0.2432  0.0595 -0.1571
 4263DDP     C225576  24.892  22.193  14.822 -0.0183 -0.0313  0.0084
 4263DDP     C325577  24.901  21.635  13.610  0.4595  0.0515 -0.1851
 4263DDP     C425578  24.135  21.161  14.783  0.0957 -0.0498 -0.3066
 4264DDP     C125579   1.958  25.617  24.108  0.0750 -0.1738  0.4165
 4264DDP     P125580   1.857  25.898  23.846  0.1859  0.3229 -0.1629
 4264DDP     P225581   1.717  25.640  24.420  0.0411  0.0335 -0.1259
 4264DDP     C225582   1.558  25.409  24.784  0.1416 -0.1221 -0.3878
 4264DDP     C325583   1.535  25.960  23.572 -0.3842 -0.0094 -0.0442
 4264DDP     C425584   2.361  25.446  24.214 -0.0819 -0.1951 -0.1635
 4265DDP     C125585  26.145  17.927  13.113  0.1587 -0.0232 -0.0325
 4265DDP     P125586  26.397  18.282  13.229  0.3053 -0.1037 -0.1004
 4265DDP     P225587  25.957  18.159  12.742 -0.1722 -0.4668  0.1133
 4265DDP     C225588  25.787  18.088  12.376  0.2586 -0.2079  0.0509
 4265DDP     C325589  26.835  18.348  13.319 -0.0517  0.0750 -0.1472
 4265DDP     C425590  26.131  17.464  13.393 -0.2096  0.0810 -0.1063
 4266DDP     C125591   3.570  14.032  24.040  0.1270  0.3326 -0.3600
 4266DDP     P125592   3.280  13.793  23.960  0.0563  0.1516  0.3328
 4266DDP     P225593   3.910  14.091  23.739  0.0128  0.0080 -0.3055
 4266DDP     C225594   4.076  13.860  23.393 -0.1168  0.2845  0.4840
 4266DDP     C325595   2.977  13.761  23.617 -0.3358  0.3086  0.1223
 4266DDP     C425596   3.476  14.317  24.353  0.0205 -0.0513 -0.0154
 4267DDP     C125597  11.633  16.645  26.303 -0.0671  0.2141 -0.1591
 4267DDP     P125598  11.948  16.468  26.156 -0.0775 -0.1427 -0.4733
 4267DDP     P225599  11.230  16.616  26.182  0.2334  0.1802 -0.0449
 4267DDP     C225600  10.759  16.655  26.130 -0.3250  0.1301  0.0311
 4267DDP     C325601  12.355  16.332  26.150  0.0241  0.1899 -0.1595
 4267DDP     C425602  11.727  16.937  26.685 -0.1632  0.1116 -0.1785
 4268DDP     C125603  21.674  22.719  27.083 -0.1134 -0.1740  0.0255
 4268DDP     P125604  21.761  22.778  27.573 -0.0808 -0.3116  0.0051
 4268DDP     P225605  21.908  22.474  26.903 -0.0308 -0.1556 -0.1418
 4268DDP     C225606  21.951  22.023  26.912 -0.1408 -0.1601 -0.0023
 4268DDP     C325607  21.709  22.987  27.948 -0.1420 -0.1284  0.3937
 4268DDP     C425608  21.346  22.985  27.038 -0.0575  0.0292 -0.1383
 4269DDP     C125609   8.531   3.172   2.546 -0.1894 -0.0637 -0.0505
 4269DDP     P125610   8.818   3.484   2.387  0.4243 -0.2031 -0.1839
 4269DDP     P225611   8.218   3.071   2.280  0.2432  0.1044 -0.1778
 4269DDP     C225612   7.961   3.025   1.893  0.2289 -0.0030  0.3647
 4269DDP     C325613   8.833   3.892   2.090 -0.0002 -0.0949  0.1758
 4269DDP     C425614   8.715   2.774   2.812  0.0700 -0.0379  0.2168
 4270DDP     C125615   0.395   7.853   3.918  0.2391 -0.3244  0.0828
 4270DDP     P125616   0.280   7.669   4.366 -0.1026 -0.0913  0.0080
 4270DDP     P225617   0.394   8.308   3.919 -0.3147  0.0411  0.2298
 4270DDP     C225618   0.155   8.661   3.980 -0.2716  0.1896  0.1961
 4270DDP     C325619   0.358   7.482   4.807 -0.0552  0.1221  0.1059
 4270DDP     C425620   0.329   7.481   3.616 -0.0653 -0.0231 -0.0960
 4271DDP     C125621  19.187   7.623   1.807 -0.3432  0.0165  0.2497
 4271DDP     P125622  19.523   7.925   1.829 -0.2000  0.0795  0.3005
 4271DDP     P225623  19.127   7.524   1.337 -0.1202  0.0437 -0.0595
 4271DDP     C225624  18.795   7.676   1.053 -0.2632 -0.2655 -0.4385
 4271DDP     C325625  19.650   8.310   1.989  0.1539 -0.4756 -0.1304
 4271DDP     C425626  18.855   7.541   2.168  0.0391 -0.1455  0.0180
 4272DDP     C125627   4.430  13.266  11.422  0.1180  0.0469  0.0776
 4272DDP     P125628   4.758  13.438  11.225 -0.1203 -0.4269 -0.0722
 4272DDP     P225629   3.794  13.322  11.272  0.2783 -0.1154 -0.1284
 4272DDP     C225630   3.401  13.489  11.577  0.0883  0.3183 -0.2569
 4272DDP     C325631   5.240  13.608  11.180  0.2240 -0.0797 -0.0143
 4272DDP     C425632   4.537  12.895  11.750  0.1297  0.2954  0.0340
 4273DDP     C125633  30.208   0.533  14.740 -0.2656  0.2506  0.1367
 4273DDP     P125634   0.223   0.749  14.784  0.0442  0.2643 -0.1998
 4273DDP     P225635  30.115   0.560  14.314  0.0250  0.0096 -0.0849
 4273DDP     C225636  29.721   0.644  14.178 -0.2084  0.0836 -0.1300
 4273DDP     C325637   0.431   1.126  14.918  0.0247 -0.1713 -0.1431
 4273DDP     C425638  30.106   0.377  15.095 -0.1108  0.1175  0.0990
 4274DDP     C125639  28.065   4.186  18.164 -0.0607  0.1253  0.0367
 4274DDP     P125640  28.058   4.138  18.605  0.0113 -0.3396 -0.1023
 4274DDP     P225641  28.458   4.485  18.088  0.0571 -0.0461  0.2160
 4274DDP     C225642  28.942   4.494  18.189 -0.1116  0.4272  0.1237
 4274DDP     C325643  28.291   4.362  18.864  0.1631 -0.0289  0.2414
 4274DDP     C425644  27.776   3.956  17.846  0.1239 -0.0154 -0.1592
 4275DDP     C125645  13.670  26.450   9.362 -0.1411  0.0732  0.1023
 4275DDP     P125646  13.759  26.252   9.708  0.0519  0.3359 -0.0474
 4275DDP     P225647  13.979  26.485   9.164 -0.0985  0.0580 -0.0324
 4275DDP     C225648  14.121  26.830   8.882  0.0357  0.1886 -0.2383
 4275DDP     C325649  13.441  26.298  10.087  0.0876  0.0198  0.5374
 4275DDP     C425650  13.286  26.777   9.275  0.2452  0.0289  0.2073
 4276DDP     C125651  17.281  15.905  29.502  0.0393  0.2315  0.0050
 4276DDP     P125652  17.169  15.563  29.655  0.0961  0.1215 -0.1652
 4276DDP     P225653  17.105  16.197  29.711  0.1521 -0.3220 -0.0344
 4276DDP     C225654  16.996  16.591  29.487 -0.1845 -0.1595  0.2154
 4276DDP     C325655  17.272  15.272  29.954 -0.1247 -0.1294  0.2228
 4276DDP     C425656  17.480  15.874  29.062  0.0856 -0.2548 -0.0700
 4277DDP     C125657  19.983   2.274  15.016 -0.0897 -0.0214 -0.0495
 4277DDP     P125658  20.300   1.958  15.030  0.0088 -0.0780 -0.3004
 4277DDP     P225659  20.156   2.640  14.871  0.0115 -0.0689 -0.2544
 4277DDP     C225660  20.120   3.058  14.602  0.0214 -0.1429 -0.3508
 4277DDP     C325661  20.576   1.790  14.692  0.2335 -0.2768 -0.1783
 4277DDP     C425662  19.805   2.219  15.242 -0.1190 -0.1304  0.1029
 4278DDP     C125663   7.121   4.253   0.857  0.0247 -0.0304 -0.2607
 4278DDP     P125664   6.855   4.462   0.606  0.1037 -0.2662  0.1387
 4278DDP     P225665   7.329   4.526   1.028  0.0027 -0.0617 -0.1373
 4278DDP     C225666   7.409   4.831   1.342 -0.1621  0.2352 -0.0842
 4278DDP     C325667   6.757   4.518   0.137  0.1567  0.2037 -0.1530
 4278DDP     C425668   7.274   3.799   0.987  0.1113 -0.2466  0.2920
 4279DDP     C125669   1.961  29.533  25.579  0.1688  0.4147  0.0804
 4279DDP     P125670   1.648  29.535  25.954 -0.2080 -0.0951 -0.2555
 4279DDP     P225671   2.313  29.293  25.477  0.0322  0.0892 -0.2543
 4279DDP     C225672   2.658  29.133  25.225  0.0938  0.0607 -0.2217
 4279DDP     C325673   1.206  29.627  25.943  0.0897 -0.2410  0.0751
 4279DDP     C425674   1.976  29.943  25.381 -0.0730  0.1999 -0.0612
 4280DDP     C125675   3.478   9.501  22.831  0.1770  0.0439 -0.1449
 4280DDP     P125676   3.809   9.094  22.957  0.1015 -0.2530 -0.0745
 4280DDP     P225677   3.078   9.676  23.018 -0.0232  0.0501 -0.0178
 4280DDP     C225678   2.628   9.654  23.148  0.0917  0.2603 -0.0290
 4280DDP     C325679   3.907   8.600  23.035 -0.1555 -0.1651  0.2210
 4280DDP     C425680   3.462   9.702  22.416 -0.0429  0.0631 -0.0104
 4281DDP     C125681   7.453   0.671  17.862 -0.0779  0.1758 -0.0954
 4281DDP     P125682   7.218   0.651  18.231  0.4530  0.1112  0.2650
 4281DDP     P225683   7.524   0.329  17.540 -0.2956 -0.0941 -0.1286
 4281DDP     C225684   7.539   0.126  17.178  0.0843 -0.1549 -0.0742
 4281DDP     C325685   6.788   0.688  18.403 -0.1353  0.0298  0.0253
 4281DDP     C425686   7.438   1.075  17.653 -0.0423 -0.0751  0.0622
 4282DDP     C125687  25.311   6.552  26.066  0.1623  0.3310 -0.3019
 4282DDP     P125688  24.935   6.792  26.177 -0.0973  0.0143  0.2130
 4282DDP     P225689  25.250   6.069  25.913 -0.1446  0.0466 -0.0717
 4282DDP     C225690  24.937   5.920  25.611  0.0864  0.4249 -0.0166
 4282DDP     C325691  24.454   6.912  26.320 -0.0361 -0.2851 -0.2423
 4282DDP     C425692  25.623   6.851  26.089 -0.1350  0.0118  0.1759
 4283DDP     C125693  23.283  16.573  18.150  0.3617 -0.0332  0.0446
 4283DDP     P125694  23.525  16.204  17.981 -0.0522  0.0362  0.0650
 4283DDP     P225695  23.197  16.472  18.591  0.2787 -0.0739 -0.2543
 4283DDP     C225696  23.267  16.851  18.846  0.4391  0.1286 -0.0361
 4283DDP     C325697  23.639  15.721  17.918  0.1201 -0.1560  0.1010
 4283DDP     C425698  23.016  16.873  17.805  0.0700  0.0146 -0.2068
 4284DDP     C125699   4.256  10.932   2.183  0.0952  0.1091 -0.0772
 4284DDP     P125700   4.373  10.508   2.213 -0.4235 -0.0617 -0.2449
 4284DDP     P225701   4.478  11.378   2.254  0.3671  0.1840  0.1804
 4284DDP     C225702   4.673  11.741   2.428  0.2309 -0.2376 -0.0217
 4284DDP     C325703   4.639  10.067   2.302 -0.1891 -0.1058  0.4303
 4284DDP     C425704   3.881  10.997   1.921  0.3374 -0.1537 -0.0030
 4285DDP     C125705   2.413  16.249  19.439  0.1362  0.0428 -0.1943
 4285DDP     P125706   2.356  16.507  19.783  0.0476  0.0142  0.1913
 4285DDP     P225707   2.363  16.504  19.101 -0.1546 -0.1218  0.0630
 4285DDP     C225708   2.662  16.771  18.857 -0.0433 -0.2480  0.1361
 4285DDP     C325709   2.595  16.667  20.042  0.0190  0.0166 -0.0832
 4285DDP     C425710   2.475  15.889  19.459 -0.2570 -0.0992  0.1194
 4286DDP     C125711   6.368   9.721   8.002  0.1128  0.2050  0.3462
 4286DDP     P125712   5.952   9.659   8.219 -0.1976  0.4900  0.1614
 4286DDP     P225713   6.534  10.077   7.647 -0.0509  0.1116 -0.2987
 4286DDP     C225714   6.875  10.353   7.391 -0.1937 -0.3525 -0.1093
 4286DDP     C325715   5.519   9.583   8.107  0.0397  0.0920  0.1168
 4286DDP     C425716   6.818   9.421   8.027 -0.0461 -0.0927  0.2671
 4287DDP     C125717  19.580  12.376   9.626  0.4115 -0.0233 -0.0782
 4287DDP     P125718  19.172  12.208   9.907 -0.2437  0.1377 -0.1856
 4287DDP     P225719  19.760  12.708   9.792 -0.2611 -0.0876  0.1306
 4287DDP     C225720  19.798  13.037   9.501  0.1930  0.0113 -0.4257
 4287DDP     C325721  18.803  11.944  10.043 -0.1878  0.2086 -0.1765
 4287DDP     C425722  19.548  12.297   9.157  0.5030  0.3380  0.0146
 4288DDP     C125723  28.045  29.710  24.117 -0.0968  0.0865 -0.0121
 4288DDP     P125724  28.134  29.390  24.514  0.1964 -0.1729  0.0643
 4288DDP     P225725  27.654  29.833  24.157 -0.0358  0.0367  0.1322
 4288DDP     C225726  27.409  30.064  24.516 -0.0635  0.0775 -0.1535
 4288DDP     C325727  28.299  29.219  24.963 -0.1508 -0.2325  0.0868
 4288DDP     C425728  28.383  30.092  24.075  0.4142  0.2368 -0.1518
 4289DDP     C125729  27.751  18.275  15.422 -0.3581 -0.1890  0.1193
 4289DDP     P125730  27.732  18.593  15.620 -0.2275 -0.0502 -0.0209
 4289DDP     P225731  27.394  18.245  15.088  0.0028  0.2350 -0.1992
 4289DDP     C225732  27.186  18.465  14.662  0.2460  0.0441  0.0081
 4289DDP     C325733  28.049  18.831  15.705  0.1671 -0.1173  0.0420
 4289DDP     C425734  28.160  18.083  15.254  0.1463  0.1258 -0.2054
 4290DDP     C125735  22.552  13.223  26.493 -0.0136 -0.0388 -0.0249
 4290DDP     P125736  22.206  13.498  26.662  0.1436  0.0628  0.0783
 4290DDP     P225737  23.096  13.159  26.534 -0.3252  0.1606 -0.0905
 4290DDP     C225738  23.404  13.525  26.586  0.0356 -0.1560 -0.0219
 4290DDP     C325739  22.000  13.902  26.756 -0.0800 -0.1073  0.1792
 4290DDP     C425740  22.564  12.862  26.256  0.0729  0.0667 -0.1494
 4291DDP     C125741  26.290   0.299  20.641  0.4115 -0.3063  0.0416
 4291DDP     P125742  25.925  30.340  20.760 -0.0412  0.0539 -0.1014
 4291DDP     P225743  26.329   0.625  21.022  0.2910 -0.0090 -0.1247
 4291DDP     C225744  26.584   0.823  21.351 -0.1220  0.2044  0.1547
 4291DDP     C325745  25.720  30.192  21.233 -0.1208 -0.0931  0.0662
 4291DDP     C425746  26.574   0.368  20.287 -0.0493  0.5303 -0.0589
 4292DDP     C125747   3.755  14.999  10.188 -0.1069  0.1874 -0.3694
 4292DDP     P125748   3.905  15.388  10.172  0.1556  0.1271 -0.3341
 4292DDP     P225749   3.979  14.604  10.010 -0.1968  0.1507 -0.1309
 4292DDP     C225750   4.262  14.524   9.639  0.0067 -0.1134  0.1788
 4292DDP     C325751   3.847  15.761  10.345  0.0080 -0.0608 -0.0191
 4292DDP     C425752   3.394  14.982  10.414 -0.4284  0.2233  0.1325
 4293DDP     C125753   6.175   3.857  26.315  0.0841 -0.2496  0.0467
 4293DDP     P125754   5.817   4.220  26.262 -0.2831 -0.0318 -0.2248
 4293DDP     P225755   5.762   3.544  26.358  0.2511  0.0478  0.3576
 4293DDP     C225756   5.470   3.394  26.059  0.0729  0.0092 -0.0257
 4293DDP     C325757   5.488   4.320  26.375  0.2475 -0.1186 -0.2746
 4293DDP     C425758   6.547   3.745  26.148 -0.0428 -0.0430 -0.1106
 4294DDP     C125759  15.022  12.515  25.277 -0.2169  0.6840  0.1751
 4294DDP     P125760  14.620  12.743  25.229 -0.1138  0.0420 -0.1404
 4294DDP     P225761  15.243  12.482  24.884  0.2590 -0.1674  0.0886
 4294DDP     C225762  15.284  12.630  24.531  0.0160  0.0163 -0.0934
 4294DDP     C325763  14.176  12.779  25.224 -0.0599 -0.4710 -0.2294
 4294DDP     C425764  15.096  12.230  25.734 -0.3763  0.1868 -0.0973
 4295DDP     C125765  12.180  19.214  15.113 -0.3616  0.1019 -0.0769
 4295DDP     P125766  12.065  18.809  15.412  0.1129 -0.2833 -0.0618
 4295DDP     P225767  12.549  19.589  15.257  0.2286  0.0454  0.0828
 4295DDP     C225768  12.643  19.632  15.635 -0.2039 -0.0030  0.1948
 4295DDP     C325769  12.432  18.556  15.608 -0.0133 -0.0628 -0.1410
 4295DDP     C425770  11.919  19.192  14.747  0.2255  0.0054 -0.1215
 4296DDP     C125771  13.338  27.251  19.792  0.0710 -0.0138 -0.0126
 4296DDP     P125772  13.175  27.197  20.228 -0.1960  0.2882  0.1590
 4296DDP     P225773  13.581  26.851  19.649  0.0142  0.0222  0.1407
 4296DDP     C225774  13.582  26.406  19.590  0.1254  0.0969  0.2131
 4296DDP     C325775  12.889  27.461  20.469  0.0662  0.1771 -0.2988
 4296DDP     C425776  13.282  27.613  19.519 -0.1808  0.1086  0.0922
 4297DDP     C125777  24.052  27.241  25.566 -0.1141 -0.1695  0.0772
 4297DDP     P125778  24.344  27.195  25.334 -0.1074 -0.0286  0.0715
 4297DDP     P225779  24.087  27.378  25.929 -0.1457 -0.1015  0.1773
 4297DDP     C225780  24.196  27.197  26.375  0.3187 -0.4850  0.0655
 4297DDP     C325781  24.616  26.988  25.071  0.2547  0.1312 -0.0619
 4297DDP     C425782  23.767  26.921  25.432  0.2175 -0.2566 -0.0511
 4298DDP     C125783  15.941  25.661  19.822  0.1279  0.0129  0.1183
 4298DDP     P125784  15.987  25.676  20.295 -0.0130 -0.0473 -0.1710
 4298DDP     P225785  15.631  25.704  19.793  0.1162 -0.1061 -0.3765
 4298DDP     C225786  15.293  25.905  19.887 -0.0134  0.2828 -0.2300
 4298DDP     C325787  15.881  25.787  20.792 -0.0309 -0.1266  0.0828
 4298DDP     C425788  16.235  25.634  19.522 -0.3284  0.1133 -0.0055
 4299DDP     C125789  16.065  27.888  11.309 -0.1439  0.0125  0.0732
 4299DDP     P125790  16.028  27.910  11.796  0.1855  0.4211  0.0643
 4299DDP     P225791  15.999  28.298  11.165  0.1129  0.1176  0.1268
 4299DDP     C225792  16.264  28.722  11.231 -0.0740 -0.0144  0.1166
 4299DDP     C325793  16.138  28.117  12.229  0.1614 -0.2910  0.1042
 4299DDP     C425794  16.123  27.533  11.019  0.3452 -0.1447  0.1626
 4300DDP     C125795  27.923  22.838  20.490 -0.0965  0.0479 -0.1009
 4300DDP     P125796  28.399  22.713  20.717 -0.3237 -0.3669  0.2403
 4300DDP     P225797  27.643  22.654  20.721  0.0689  0.1478  0.3153
 4300DDP     C225798  27.287  22.465  20.852 -0.0893  0.2343 -0.3506
 4300DDP     C325799  28.547  22.562  21.092 -0.0419  0.0804 -0.0319
 4300DDP     C425800  27.935  22.826  20.017  0.1046  0.2627  0.1514
 4301DDP     C125801  21.519   4.417  20.729  0.0649 -0.0555 -0.0333
 4301DDP     P125802  21.236   4.298  20.978 -0.1302  0.0829  0.1811
 4301DDP     P225803  21.781   4.214  20.535 -0.3141  0.2504 -0.0122
 4301DDP     C225804  22.159   4.242  20.328 -0.0461 -0.1273  0.0161
 4301DDP     C325805  20.868   3.974  21.065  0.0725  0.4008 -0.0333
 4301DDP     C425806  21.563   4.818  20.721 -0.1662  0.2317  0.4103
 4302DDP     C125807  26.215  10.171  17.244 -0.1506  0.0847 -0.1641
 4302DDP     P125808  26.429  10.343  17.585  0.0500 -0.1759  0.0682
 4302DDP     P225809  26.495   9.876  17.081 -0.0581 -0.4557  0.0781
 4302DDP     C225810  26.596   9.384  17.250 -0.2940 -0.1427  0.0739
 4302DDP     C325811  26.119  10.482  17.935 -0.3155 -0.0675  0.2661
 4302DDP     C425812  25.863  10.394  17.177 -0.0729 -0.0598  0.1175
 4303DDP     C125813  23.672  21.316  13.955  0.1700  0.1360 -0.1001
 4303DDP     P125814  23.850  21.724  14.077 -0.2320  0.0904  0.5565
 4303DDP     P225815  23.547  21.202  13.582  0.1185  0.0563 -0.0351
 4303DDP     C225816  23.750  20.890  13.363  0.0367  0.1133  0.0160
 4303DDP     C325817  24.132  21.948  14.361  0.0870  0.1306  0.0426
 4303DDP     C425818  23.711  21.041  14.164  0.0735 -0.1702 -0.1893
 4304DDP     C125819  20.363  30.194  15.183  0.1345 -0.0348 -0.2586
 4304DDP     P125820  20.061   0.080  15.357  0.1016  0.1485 -0.3701
 4304DDP     P225821  20.460  29.773  15.424  0.0744  0.3009  0.1683
 4304DDP     C225822  20.522  29.569  15.762  0.0967  0.2467 -0.0832
 4304DDP     C325823  19.665   0.060  15.068 -0.1208  0.0129  0.2298
 4304DDP     C425824  20.665  30.207  14.787 -0.3430  0.2684 -0.1838
 4305DDP     C125825  16.787   8.939  11.578  0.3325 -0.1670  0.0012
 4305DDP     P125826  16.609   9.215  11.347  0.0053  0.1503 -0.0253
 4305DDP     P225827  16.357   8.761  11.475 -0.2835 -0.0450  0.1077
 4305DDP     C225828  16.157   8.483  11.089 -0.1328 -0.0807  0.1417
 4305DDP     C325829  16.390   9.601  11.274 -0.1090  0.0943 -0.2318
 4305DDP     C425830  17.124   8.990  11.857 -0.0905 -0.2816 -0.0012
 4306DDP     C125831   1.018   0.799   0.373 -0.3100  0.3253  0.0435
 4306DDP     P125832   0.681   0.811   0.402 -0.1665  0.1934 -0.1066
 4306DDP     P225833   1.113   0.915   0.758 -0.1608 -0.0744 -0.1209
 4306DDP     C225834   1.010   1.213   1.156 -0.0927 -0.0694 -0.0687
 4306DDP     C325835   0.403   1.049   0.462 -0.1610 -0.1384 -0.2342
 4306DDP     C425836   1.222   0.579  -0.011  0.3801  0.0956 -0.0963
 4307DDP     C125837  27.373  16.390  11.969  0.2680  0.4246 -0.0137
 4307DDP     P125838  26.998  16.175  11.788  0.1431  0.0254  0.2104
 4307DDP     P225839  27.361  16.179  12.333  0.1530 -0.0246 -0.1142
 4307DDP     C225840  27.630  16.126  12.638 -0.2476 -0.2323  0.1794
 4307DDP     C325841  26.892  16.009  11.347 -0.0055 -0.0149 -0.0475
 4307DDP     C425842  27.728  16.539  11.691  0.2183  0.4004  0.0717
 4308DDP     C125843  20.887  14.821  17.571 -0.3249  0.0536  0.0016
 4308DDP     P125844  20.758  15.138  17.505  0.2208 -0.1161  0.0642
 4308DDP     P225845  20.866  14.410  17.872 -0.0164  0.1610 -0.1147
 4308DDP     C225846  20.777  14.150  18.235  0.0435 -0.3328  0.0383
 4308DDP     C325847  20.962  15.415  17.451  0.2733 -0.1108  0.2479
 4308DDP     C425848  20.945  14.578  17.185  0.0380  0.1276  0.0575
 4309DDP     C125849  14.407   6.440  14.165  0.1134 -0.0812  0.0048
 4309DDP     P125850  14.761   6.181  13.879 -0.3380  0.0685  0.0397
 4309DDP     P225851  14.481   6.847  14.048  0.0339  0.0969  0.0176
 4309DDP     C225852  14.760   7.240  14.030 -0.2898  0.4480  0.1887
 4309DDP     C325853  15.197   6.153  13.901 -0.0895  0.3200 -0.2442
 4309DDP     C425854  14.118   6.267  14.435 -0.4039  0.1411  0.2060
 4310DDP     C125855  22.365  19.026  22.702  0.1200  0.0319 -0.1115
 4310DDP     P125856  22.198  18.583  22.474  0.0063 -0.3910  0.2648
 4310DDP     P225857  22.234  19.421  22.550  0.1010  0.1208  0.2053
 4310DDP     C225858  22.241  19.886  22.722 -0.1805 -0.1412 -0.0866
 4310DDP     C325859  21.910  18.222  22.613 -0.0290  0.2826  0.0136
 4310DDP     C425860  22.683  18.903  22.882  0.0932 -0.1963 -0.1595
 4311DDP     C125861  13.051  21.861  20.287 -0.0060 -0.2350 -0.0575
 4311DDP     P125862  13.180  22.077  20.646 -0.2100  0.0973  0.1768
 4311DDP     P225863  13.465  21.732  20.254 -0.1201 -0.0121  0.1748
 4311DDP     C225864  13.531  21.356  19.867 -0.1479 -0.3137 -0.0896
 4311DDP     C325865  12.967  22.457  20.803 -0.3944 -0.0869  0.0804
 4311DDP     C425866  12.805  21.886  19.792 -0.2737  0.0536  0.3299
 4312DDP     C125867   6.015  18.845   3.605 -0.0496 -0.0035 -0.0558
 4312DDP     P125868   5.895  18.567   3.927 -0.0904  0.3564  0.2731
 4312DDP     P225869   6.287  19.148   3.602 -0.1089  0.0756 -0.0158
 4312DDP     C225870   6.589  19.431   3.499  0.1612  0.1519  0.0432
 4312DDP     C325871   5.688  18.251   4.056 -0.2147  0.0058 -0.1864
 4312DDP     C425872   5.784  18.928   3.285 -0.1468  0.0967  0.0912
 4313DDP     C125873  10.513   2.672  18.701 -0.1512 -0.0251 -0.0863
 4313DDP     P125874  10.758   2.905  18.364 -0.0079  0.2083  0.0674
 4313DDP     P225875  10.668   2.452  19.054  0.0394 -0.0090  0.1332
 4313DDP     C225876  10.679   2.106  19.365 -0.1027 -0.1601  0.0018
 4313DDP     C325877  11.157   3.114  18.191 -0.0163  0.0913  0.0934
 4313DDP     C425878  10.210   2.850  18.820  0.2640  0.1169  0.0435
 4314DDP     C125879   3.417  28.421  15.606  0.3627  0.1921 -0.1388
 4314DDP     P125880   3.725  28.527  15.443 -0.0741  0.0028  0.0235
 4314DDP     P225881   3.410  28.032  15.966  0.0704 -0.0963 -0.1256
 4314DDP     C225882   3.282  27.871  16.322  0.5519  0.1246 -0.1659
 4314DDP     C325883   3.868  28.972  15.310 -0.2001  0.1472 -0.2477
 4314DDP     C425884   3.052  28.583  15.400 -0.0861 -0.0404 -0.1616
 4315DDP     C125885  26.888   4.914  13.033  0.0921  0.1638 -0.1158
 4315DDP     P125886  27.323   4.913  13.085 -0.3223 -0.2245 -0.5349
 4315DDP     P225887  26.600   5.005  13.204 -0.1996 -0.2431 -0.1259
 4315DDP     C225888  26.144   5.242  13.054  0.0143  0.1747  0.0423
 4315DDP     C325889  27.663   5.134  13.107  0.3503  0.0382  0.0979
 4315DDP     C425890  26.723   4.775  12.678 -0.3393 -0.0840  0.0790
 4316DDP     C125891   0.549   8.800  17.338  0.0893  0.0854 -0.1411
 4316DDP     P125892   0.977   8.701  17.446  0.1071 -0.0166 -0.3020
 4316DDP     P225893   0.208   8.774  17.697  0.5230  0.0783 -0.1574
 4316DDP     C225894   0.256   8.719  18.182 -0.2613  0.0310  0.0492
 4316DDP     C325895   1.238   8.374  17.332  0.1979 -0.1910  0.0609
 4316DDP     C425896   0.719   8.936  16.973 -0.0344  0.3105  0.0802
 4317DDP     C125897   0.410  12.505  18.219  0.1127 -0.0853 -0.3005
 4317DDP     P125898   0.370  12.038  18.274 -0.0617 -0.0104 -0.2129
 4317DDP     P225899   0.707  12.766  18.456 -0.0985 -0.0063 -0.2013
 4317DDP     C225900   0.998  13.077  18.461 -0.1948 -0.3445 -0.1289
 4317DDP     C325901   0.424  11.672  18.355  0.3240 -0.1617  0.0090
 4317DDP     C425902   0.324  12.682  17.872 -0.3232  0.0127 -0.0332
 4318DDP     C125903  20.010  10.323  12.633  0.6081 -0.0519 -0.0877
 4318DDP     P125904  20.380  10.440  12.505  0.2759  0.1706 -0.2604
 4318DDP     P225905  19.746  10.558  12.557 -0.0008 -0.0286  0.0048
 4318DDP     C225906  19.572  10.780  12.172  0.0110  0.1158 -0.0936
 4318DDP     C325907  20.687  10.482  12.768 -0.1351 -0.3292 -0.1983
 4318DDP     C425908  19.906   9.872  12.674  0.1437 -0.0404  0.1764
 4319DDP     C125909   3.235  -0.020  17.469  0.1906 -0.1036  0.2827
 4319DDP     P125910   3.517  30.261  17.115  0.1602  0.2390  0.3577
 4319DDP     P225911   3.400   0.103  17.782  0.0975 -0.2487  0.1058
 4319DDP     C225912   3.377  30.229  18.222  0.0818  0.1350 -0.1400
 4319DDP     C325913   3.738   0.006  16.758 -0.0597 -0.1213 -0.1052
 4319DDP     C425914   2.945  29.983  17.496 -0.3200 -0.1018 -0.0297
 4320DDP     C125915   9.214  12.425  27.216 -0.0131  0.1650  0.0393
 4320DDP     P125916   8.945  12.550  27.561  0.4366  0.0631 -0.1303
 4320DDP     P225917   9.617  12.454  27.199  0.0429 -0.1682 -0.0899
 4320DDP     C225918   9.837  12.179  27.101  0.0569 -0.0384 -0.1490
 4320DDP     C325919   8.883  12.573  28.001  0.0245  0.1268 -0.1652
 4320DDP     C425920   9.100  12.270  26.856 -0.0714 -0.1252  0.2801
 4321DDP     C125921  11.889  24.520   1.831  0.3699 -0.2328  0.0072
 4321DDP     P125922  12.226  24.202   1.745  0.2147 -0.4010  0.0211
 4321DDP     P225923  11.854  24.907   1.506 -0.2376  0.2988  0.1621
 4321DDP     C225924  11.923  24.868   1.040  0.0713  0.1414  0.0679
 4321DDP     C325925  12.565  23.925   1.752 -0.0226 -0.1350  0.2039
 4321DDP     C425926  11.688  24.606   2.288 -0.1130  0.2234  0.3495
 4322DDP     C125927  16.419  13.018  17.969 -0.2039  0.1283  0.0913
 4322DDP     P125928  16.371  13.226  18.369  0.2988 -0.3598 -0.0371
 4322DDP     P225929  16.665  12.885  17.756  0.6676  0.0089  0.1663
 4322DDP     C225930  16.912  12.622  17.470 -0.0663 -0.0230 -0.2339
 4322DDP     C325931  16.357  13.539  18.686 -0.0594  0.1614 -0.1848
 4322DDP     C425932  15.994  12.903  17.792  0.0229 -0.0628 -0.1607
 4323DDP     C125933   8.867  10.384  26.607 -0.0841 -0.0600 -0.1754
 4323DDP     P125934   9.014  10.363  26.965  0.0028  0.0227  0.2066
 4323DDP     P225935   8.996  10.372  26.253  0.2656  0.2928  0.0593
 4323DDP     C225936   9.138  10.631  25.882  0.1137  0.0378 -0.2440
 4323DDP     C325937   9.281  10.203  27.088 -0.0388 -0.0354 -0.1646
 4323DDP     C425938   8.449  10.326  26.722  0.1295  0.3513 -0.1606
 4324DDP     C125939  15.677  28.940  18.520  0.1971 -0.0629  0.0411
 4324DDP     P125940  15.645  29.204  18.984 -0.0866  0.2437  0.0528
 4324DDP     P225941  15.563  29.122  18.048 -0.2588  0.2701 -0.0556
 4324DDP     C225942  15.491  28.860  17.599  0.0038 -0.0852 -0.3714
 4324DDP     C325943  15.444  29.552  19.288 -0.2373 -0.1930  0.0661
 4324DDP     C425944  15.850  28.554  18.474 -0.1556 -0.0200  0.1976
 4325DDP     C125945  18.715  13.214   3.459 -0.1045 -0.0007  0.0173
 4325DDP     P125946  18.563  13.514   3.650  0.1841 -0.3053  0.0597
 4325DDP     P225947  18.970  13.258   3.090 -0.3355 -0.2541  0.1703
 4325DDP     C225948  19.233  13.332   2.813 -0.1736 -0.0033 -0.2312
 4325DDP     C325949  18.742  13.811   3.900  0.0245 -0.4450  0.5157
 4325DDP     C425950  18.407  12.892   3.632  0.0273  0.0253  0.2801
 4326DDP     C125951   0.487  25.631   4.791  0.0804 -0.2187  0.1362
 4326DDP     P125952   0.565  25.319   5.063 -0.1011 -0.0076 -0.1510
 4326DDP     P225953   0.219  26.006   4.982  0.3584 -0.0438 -0.1874
 4326DDP     C225954  30.172  26.222   5.304 -0.1737  0.0243 -0.0279
 4326DDP     C325955   0.562  24.884   5.038  0.0560  0.1444 -0.0462
 4326DDP     C425956   0.569  25.555   4.388  0.3547 -0.1012 -0.0256
 4327DDP     C125957  15.100  22.507   9.027  0.0102  0.3057 -0.0772
 4327DDP     P125958  15.466  22.401   8.877 -0.0971  0.1561  0.1480
 4327DDP     P225959  14.879  22.315   8.646  0.1321  0.3890  0.1474
 4327DDP     C225960  14.577  22.079   8.447 -0.1205  0.1534 -0.0878
 4327DDP     C325961  15.818  22.071   8.836 -0.2241  0.0520  0.0209
 4327DDP     C425962  14.967  22.899   9.276  0.1276 -0.2811  0.0467
 4328DDP     C125963   2.754   9.291  15.055  0.2019  0.1458  0.2572
 4328DDP     P125964   2.434   9.120  14.874 -0.0925  0.1997 -0.0372
 4328DDP     P225965   2.886   8.866  15.150 -0.1962 -0.2224 -0.1010
 4328DDP     C225966   2.838   8.508  15.341 -0.3050 -0.2958  0.1028
 4328DDP     C325967   2.208   8.836  14.698 -0.2809  0.0875  0.0631
 4328DDP     C425968   3.020   9.727  15.166 -0.1158  0.3206  0.0729
 4329DDP     C125969   1.393   1.537  16.292  0.0702  0.2857  0.0110
 4329DDP     P125970   1.327   1.075  16.151  0.0830 -0.1651 -0.0193
 4329DDP     P225971   1.250   1.888  16.142  0.1745  0.0851  0.1180
 4329DDP     C225972   1.070   2.243  16.062 -0.0168 -0.2267  0.1901
 4329DDP     C325973   1.095   0.670  15.936  0.3501  0.1800 -0.0631
 4329DDP     C425974   1.546   1.478  16.712 -0.0679 -0.0468  0.1670
 4330DDP     C125975  10.078  14.465   1.830  0.0285 -0.0473  0.0948
 4330DDP     P125976  10.118  14.956   1.951  0.1025 -0.1493  0.3048
 4330DDP     P225977  10.154  14.322   1.421  0.1510  0.0277 -0.1183
 4330DDP     C225978  10.460  14.264   1.137  0.3658  0.2329 -0.0855
 4330DDP     C325979  10.209  15.361   2.215  0.0428  0.0481 -0.1192
 4330DDP     C425980   9.836  14.195   2.057  0.0705 -0.0720 -0.4400
 4331DDP     C125981   9.893  17.856   4.777 -0.2545  0.4461  0.0414
 4331DDP     P125982  10.321  18.079   4.866 -0.0183  0.0737 -0.1761
 4331DDP     P225983   9.652  17.499   4.962  0.1648  0.2409  0.3185
 4331DDP     C225984   9.654  17.083   4.871 -0.2152  0.3391  0.1289
 4331DDP     C325985  10.623  18.156   5.212  0.0640 -0.2258  0.2131
 4331DDP     C425986   9.613  17.971   4.438 -0.1802 -0.0264 -0.3418
 4332DDP     C125987  10.396  20.831  19.927 -0.0781 -0.2655  0.0847
 4332DDP     P125988  10.125  20.587  19.858  0.1865  0.3049  0.0803
 4332DDP     P225989  10.449  21.281  19.970 -0.0286 -0.2349 -0.2083
 4332DDP     C225990  10.234  21.588  20.075 -0.0309  0.0896 -0.0969
 4332DDP     C325991   9.808  20.159  19.972  0.2815 -0.0499 -0.0530
 4332DDP     C425992  10.777  20.667  19.649 -0.1076 -0.1254  0.1942
 4333DDP     C125993  11.331   0.868   0.381  0.1277  0.1457  0.1281
 4333DDP     P125994  11.347   0.531   0.146  0.1613 -0.0774 -0.0202
 4333DDP     P225995  10.961   0.871   0.749 -0.1309  0.2784 -0.1804
 4333DDP     C225996  10.530   0.967   0.613  0.1430 -0.2672  0.0804
 4333DDP     C325997  11.463   0.157  -0.007 -0.1823  0.0537 -0.2632
 4333DDP     C425998  11.647   1.236   0.228 -0.0565  0.1677 -0.3159
 4334DDP     C125999  15.631  21.276  16.745 -0.3225 -0.0096 -0.0941
 4334DDP     P126000  15.911  21.504  16.985  0.0595 -0.0021 -0.2756
 4334DDP     P226001  15.376  21.524  16.957 -0.0785 -0.0045 -0.1464
 4334DDP     C226002  15.464  21.697  17.230  0.3225  0.3923  0.0755
 4334DDP     C326003  16.276  21.602  17.237  0.1290  0.0755 -0.0051
 4334DDP     C426004  15.588  20.810  16.654 -0.4331  0.0995  0.0843
 4335DDP     C126005  15.631  23.778  18.584  0.0509 -0.1527 -0.3202
 4335DDP     P126006  15.611  24.010  18.279  0.1626 -0.0195 -0.1175
 4335DDP     P226007  15.470  23.853  18.892 -0.2813 -0.0543 -0.0557
 4335DDP     C226008  15.195  24.228  19.064  0.0614 -0.0974 -0.0006
 4335DDP     C326009  15.580  24.348  18.007 -0.1764  0.1411  0.3677
 4335DDP     C426010  15.985  23.514  18.655  0.1393  0.1220  0.5190
 4336DDP     C126011  14.967  15.067  14.777  0.1159 -0.3216 -0.1049
 4336DDP     P126012  14.653  15.477  14.837  0.0802  0.0138 -0.0214
 4336DDP     P226013  15.027  14.804  15.194  0.0545  0.1952 -0.2450
 4336DDP     C226014  15.221  14.580  15.563  0.0869 -0.4749  0.2316
 4336DDP     C326015  14.522  15.891  14.991 -0.3036  0.1122  0.3474
 4336DDP     C426016  15.224  14.906  14.418  0.0031  0.1583  0.0058
 4337DDP     C126017  14.882  10.882  19.785  0.1320 -0.1038  0.3287
 4337DDP     P126018  14.705  10.686  19.399  0.0284 -0.0835  0.2225
 4337DDP     P226019  15.277  10.742  19.874 -0.0972  0.1133  0.1038
 4337DDP     C226020  15.496  10.473  19.922 -0.2214  0.0827  0.2104
 4337DDP     C326021  14.543  10.452  19.007  0.1450 -0.6059  0.3419
 4337DDP     C426022  14.823  11.360  19.826  0.1897  0.0441 -0.1484
 4338DDP     C126023   5.715   9.126   5.330 -0.0784  0.1760 -0.0539
 4338DDP     P126024   5.971   8.727   5.401  0.0092  0.1762  0.1456
 4338DDP     P226025   5.668   9.276   4.840  0.1158 -0.0612  0.0400
 4338DDP     C226026   5.545   9.243   4.415 -0.0484 -0.0581 -0.2875
 4338DDP     C326027   6.327   8.392   5.432  0.0016  0.1604 -0.2129
 4338DDP     C426028   5.476   9.181   5.674  0.0198  0.1681 -0.1991
 4339DDP     C126029   6.331   5.228  14.232  0.1938  0.3056 -0.0197
 4339DDP     P126030   6.341   5.329  13.806 -0.0732  0.0843 -0.0108
 4339DDP     P226031   6.728   5.083  14.386 -0.0729  0.1097  0.1633
 4339DDP     C226032   6.722   4.674  14.493 -0.1772 -0.1487 -0.1604
 4339DDP     C326033   5.992   5.309  13.562  0.2282 -0.0348  0.1152
 4339DDP     C426034   5.953   5.161  14.473  0.1010  0.0897 -0.0622
 4340DDP     C126035  11.425   5.851  22.980  0.1024  0.1362 -0.1684
 4340DDP     P126036  11.564   6.024  22.652 -0.0679 -0.0042 -0.4581
 4340DDP     P226037  11.383   6.118  23.303  0.0801  0.3816  0.1354
 4340DDP     C226038  11.263   6.559  23.416  0.0119  0.2773  0.3201
 4340DDP     C326039  11.523   6.435  22.462 -0.0975  0.1269 -0.2225
 4340DDP     C426040  11.189   5.433  22.968 -0.2004 -0.0401  0.1280
 4341DDP     C126041   4.653   7.117  15.197  0.1278  0.0297 -0.2169
 4341DDP     P126042   4.853   7.481  15.231  0.1937  0.2164 -0.0665
 4341DDP     P226043   4.811   6.708  15.385 -0.1272  0.0762 -0.3530
 4341DDP     C226044   4.750   6.556  15.899 -0.1605  0.0164 -0.2941
 4341DDP     C326045   4.673   7.930  15.214  0.1570 -0.1666 -0.1317
 4341DDP     C426046   4.423   6.993  14.847  0.1009  0.3575  0.1601
 4342DDP     C126047   2.882   8.430  26.461 -0.0136 -0.0745  0.1315
 4342DDP     P126048   2.876   8.027  26.708 -0.0881 -0.2744  0.2373
 4342DDP     P226049   3.289   8.528  26.572 -0.0526 -0.0451 -0.0537
 4342DDP     C226050   3.596   8.834  26.329  0.0323  0.0489  0.0892
 4342DDP     C326051   3.019   7.606  26.658 -0.1817  0.5073  0.1167
 4342DDP     C426052   2.626   8.497  26.034 -0.1665  0.4042 -0.1294
 4343DDP     C126053  21.812  23.602  24.100 -0.3638 -0.1436 -0.2834
 4343DDP     P126054  21.341  23.718  24.080  0.0192 -0.1890 -0.0286
 4343DDP     P226055  21.947  23.241  24.040  0.0111  0.2763 -0.3640
 4343DDP     C226056  22.279  23.024  24.113 -0.0489  0.2499  0.3823
 4343DDP     C326057  21.003  23.936  23.721  0.0181  0.0418 -0.0097
 4343DDP     C426058  22.046  24.028  24.182  0.1595  0.1182  0.0405
 4344DDP     C126059  10.721  21.066   5.415 -0.5337  0.0493  0.3076
 4344DDP     P126060  10.675  21.231   5.817 -0.1586 -0.2681  0.1758
 4344DDP     P226061  10.975  21.240   5.052  0.1951 -0.1354  0.0575
 4344DDP     C226062  10.747  21.397   4.733 -0.3937  0.0376 -0.1432
 4344DDP     C326063  10.713  21.652   5.836 -0.2378  0.0690 -0.1141
 4344DDP     C426064  10.490  20.654   5.239  0.0059 -0.1282 -0.2039
 4345DDP     C126065   9.615  20.062  16.273  0.0198 -0.1272 -0.0724
 4345DDP     P126066   9.866  19.782  16.595  0.3771  0.0455  0.2221
 4345DDP     P226067   9.584  19.915  15.906  0.0519  0.1243  0.2064
 4345DDP     C226068   9.866  19.867  15.482 -0.0437 -0.1340 -0.0583
 4345DDP     C326069  10.123  19.673  16.866 -0.3738 -0.1846  0.0897
 4345DDP     C426070   9.809  20.465  16.416  0.2564 -0.0761 -0.1238
 4346DDP     C126071  13.507   2.648  19.874 -0.0208 -0.0589  0.0368
 4346DDP     P126072  13.735   2.492  20.085 -0.0024  0.2381  0.2100
 4346DDP     P226073  13.256   2.927  20.095 -0.1917  0.1051  0.0026
 4346DDP     C226074  12.896   3.238  20.119 -0.1053  0.2219 -0.0123
 4346DDP     C326075  14.131   2.641  20.291 -0.2784  0.1966  0.3954
 4346DDP     C426076  13.619   2.554  19.440  0.0263 -0.0554 -0.3457
 4347DDP     C126077   5.656  23.464  27.586 -0.0221 -0.3105 -0.2431
 4347DDP     P126078   5.930  23.297  27.839  0.0594 -0.2253 -0.0156
 4347DDP     P226079   5.772  23.782  27.197 -0.0119  0.1874 -0.2922
 4347DDP     C226080   6.137  24.120  27.154  0.0358  0.0706  0.0198
 4347DDP     C326081   6.319  23.385  28.076 -0.1268  0.1307  0.0179
 4347DDP     C426082   5.241  23.429  27.682 -0.0944 -0.2540  0.0339
 4348DDP     C126083   5.230  28.160  28.778 -0.2128 -0.0462  0.0622
 4348DDP     P126084   5.021  28.504  28.512  0.1302  0.0411 -0.1626
 4348DDP     P226085   5.388  27.774  28.461  0.1285 -0.0369 -0.0470
 4348DDP     C226086   5.191  27.392  28.282 -0.0755  0.1442 -0.1845
 4348DDP     C326087   4.906  28.862  28.542 -0.2743  0.0088  0.1128
 4348DDP     C426088   5.259  28.008  29.193  0.2641  0.2414 -0.2228
 4349DDP     C126089  16.850  11.766  24.244 -0.0824  0.0218 -0.2116
 4349DDP     P126090  17.299  11.827  23.978 -0.0163 -0.3401  0.0806
 4349DDP     P226091  16.832  11.335  24.232  0.0788  0.1706 -0.2868
 4349DDP     C226092  16.521  11.098  24.016  0.0964  0.0293 -0.1792
 4349DDP     C326093  17.466  12.221  23.900 -0.2190  0.2793  0.1364
 4349DDP     C426094  16.514  11.933  24.512 -0.0119  0.1367 -0.0336
 4350DDP     C126095   3.822  12.605  17.058 -0.2504 -0.0540 -0.2524
 4350DDP     P126096   3.769  12.707  16.589  0.1329 -0.2028  0.0635
 4350DDP     P226097   3.851  12.841  17.448 -0.0548 -0.0604  0.2526
 4350DDP     C226098   3.961  12.967  17.909 -0.2110 -0.0427 -0.1200
 4350DDP     C326099   3.557  12.604  16.118 -0.4278 -0.2572 -0.2855
 4350DDP     C426100   4.078  12.187  17.001  0.2671 -0.2325  0.0162
 4351DDP     C126101  20.707  17.816   1.974 -0.0502 -0.5021  0.0095
 4351DDP     P126102  20.828  17.560   1.571  0.0330 -0.1283 -0.0800
 4351DDP     P226103  20.521  18.146   1.842  0.1516  0.1545  0.0188
 4351DDP     C226104  20.140  18.245   1.628  0.0509 -0.1006  0.1033
 4351DDP     C326105  21.135  17.328   1.237  0.0888 -0.0765 -0.0270
 4351DDP     C426106  20.796  17.720   2.364  0.0889 -0.1965  0.1015
 4352DDP     C126107  24.274   4.587   1.495 -0.3635  0.2905 -0.2363
 4352DDP     P126108  24.158   4.140   1.477 -0.0859  0.2769  0.0456
 4352DDP     P226109  24.152   4.897   1.847  0.0890  0.0367 -0.3340
 4352DDP     C226110  24.124   4.995   2.280  0.2586  0.2041  0.0403
 4352DDP     C326111  24.034   3.728   1.367  0.3396  0.1014  0.0538
 4352DDP     C426112  24.345   4.822   1.176  0.0337  0.0240  0.0370
 4353DDP     C126113  28.540   7.878   6.346 -0.0702 -0.1453  0.0796
 4353DDP     P126114  28.592   8.034   5.893  0.1158  0.0646  0.1652
 4353DDP     P226115  28.215   7.695   6.430 -0.2129 -0.0276  0.0245
 4353DDP     C226116  28.062   7.561   6.843  0.0177 -0.1780 -0.2046
 4353DDP     C326117  28.477   8.184   5.507 -0.2964 -0.0887  0.1031
 4353DDP     C426118  28.746   7.753   6.772  0.0631 -0.0038 -0.2636
 4354DDP     C126119  20.083  12.986  13.051 -0.0804  0.1237  0.2624
 4354DDP     P126120  20.589  13.049  13.055 -0.0708 -0.1596  0.1586
 4354DDP     P226121  19.932  12.573  12.986 -0.1828 -0.1261  0.0732
 4354DDP     C226122  19.685  12.313  12.852 -0.1422 -0.1132 -0.4601
 4354DDP     C326123  20.989  12.949  12.877 -0.1368 -0.0016  0.2505
 4354DDP     C426124  19.895  13.380  13.007 -0.1787 -0.0202 -0.0462
 4355DDP     C126125  10.542  26.657  27.253 -0.0010  0.2392 -0.0571
 4355DDP     P126126  10.514  26.490  27.553 -0.1187 -0.3642  0.0925
 4355DDP     P226127  10.860  26.641  27.181 -0.3425  0.1085 -0.2926
 4355DDP     C226128  11.311  26.497  27.146 -0.0383  0.0273 -0.1550
 4355DDP     C326129  10.697  26.445  28.046  0.1862  0.0135 -0.2900
 4355DDP     C426130  10.245  26.913  27.239 -0.1295 -0.1158 -0.2366
 4356DDP     C126131  20.476  18.592  28.358 -0.1155  0.1363 -0.1118
 4356DDP     P126132  20.433  18.186  28.586  0.0037  0.1176 -0.2914
 4356DDP     P226133  20.909  18.633  28.191  0.1972  0.2392  0.1140
 4356DDP     C226134  21.210  18.381  27.992  0.0302 -0.1525  0.1845
 4356DDP     C326135  20.489  17.780  28.733  0.1283  0.0086 -0.1981
 4356DDP     C426136  20.248  19.004  28.426 -0.1627 -0.2228 -0.1827
 4357DDP     C126137   4.185   6.468  29.897  0.1515  0.0518  0.0943
 4357DDP     P126138   4.542   6.638  29.616  0.2104  0.1748  0.1644
 4357DDP     P226139   4.123   6.761  30.257  0.0197 -0.0248  0.2623
 4357DDP     C226140   4.099   7.175   0.110 -0.2525  0.0460 -0.2506
 4357DDP     C326141   4.823   7.020  29.511  0.2973 -0.2288 -0.1968
 4357DDP     C426142   4.108   6.030  29.695 -0.0221  0.3376 -0.1450
 4358DDP     C126143   8.501   2.729  13.898  0.0804 -0.0681 -0.0841
 4358DDP     P126144   8.921   2.717  13.746  0.0079 -0.1680 -0.2994
 4358DDP     P226145   8.503   2.533  14.328 -0.1763 -0.2331  0.1244
 4358DDP     C226146   8.672   2.508  14.734  0.1939 -0.2844 -0.0687
 4358DDP     C326147   9.206   2.993  13.816  0.0231  0.1675 -0.0508
 4358DDP     C426148   8.201   2.354  13.802  0.1978 -0.2310 -0.0929
 4359DDP     C126149  22.897  25.698   7.311  0.3590 -0.1010 -0.1245
 4359DDP     P126150  22.585  25.732   7.574  0.0103  0.1764  0.0636
 4359DDP     P226151  22.841  25.979   7.077 -0.1972 -0.1247 -0.0814
 4359DDP     C226152  22.782  26.370   6.843 -0.1097 -0.0966  0.0434
 4359DDP     C326153  22.157  25.901   7.554 -0.0789 -0.2224 -0.1757
 4359DDP     C426154  23.082  25.277   7.266  0.0204 -0.2032  0.5615
 4360DDP     C126155  14.089   2.540  21.473 -0.0679 -0.0975 -0.0787
 4360DDP     P126156  13.878   2.820  21.710 -0.0693 -0.1053 -0.2775
 4360DDP     P226157  13.918   2.244  21.227  0.0553  0.2012  0.1195
 4360DDP     C226158  13.565   1.904  21.289 -0.1779 -0.2805 -0.1041
 4360DDP     C326159  13.912   3.235  21.755  0.2109 -0.4888 -0.0793
 4360DDP     C426160  14.491   2.539  21.572  0.1233 -0.1586  0.2007
 4361DDP     C126161  13.547  18.172  26.193 -0.2807  0.1488  0.1805
 4361DDP     P126162  13.670  18.148  25.786 -0.0003  0.0425  0.0398
 4361DDP     P226163  13.304  18.501  26.390 -0.0249 -0.1168 -0.3144
 4361DDP     C226164  13.051  18.870  26.584 -0.3901  0.0332 -0.0176
 4361DDP     C326165  13.878  18.117  25.456  0.1708 -0.0734  0.2460
 4361DDP     C426166  13.710  17.794  26.417  0.1591 -0.1387 -0.0959
 4362DDP     C126167  17.586   9.304  18.943  0.0543  0.0845 -0.0639
 4362DDP     P126168  17.771   9.544  18.706  0.1844  0.0612  0.1359
 4362DDP     P226169  17.470   8.933  18.861  0.0925  0.5069  0.2512
 4362DDP     C226170  17.257   8.764  18.582  0.4167 -0.1063  0.0274
 4362DDP     C326171  17.770   9.938  18.404 -0.3472 -0.3670  0.2018
 4362DDP     C426172  17.559   9.464  19.268  0.0505 -0.2783  0.1506
 4363DDP     C126173   1.551  25.267  13.571  0.3401 -0.2757  0.0279
 4363DDP     P126174   1.645  25.488  13.199 -0.1251 -0.2779  0.0005
 4363DDP     P226175   1.080  25.489  13.443 -0.0623  0.1962 -0.1446
 4363DDP     C226176   0.893  25.342  13.943 -0.0695 -0.2685  0.1001
 4363DDP     C326177   1.646  25.931  13.140  0.1149  0.0312 -0.0459
 4363DDP     C426178   1.805  24.983  13.856 -0.2105 -0.1383  0.0768
 4364DDP     C126179  25.354  13.742  30.201 -0.0829 -0.1272  0.3765
 4364DDP     P126180  25.546  14.100  29.868 -0.3374  0.0387 -0.2616
 4364DDP     P226181  25.350  13.314  30.190 -0.2989 -0.1910 -0.0559
 4364DDP     C226182  25.658  13.070   0.024  0.0906  0.0101 -0.1339
 4364DDP     C326183  25.901  14.221  29.559 -0.1865 -0.0743 -0.1906
 4364DDP     C426184  25.168  13.834   0.351 -0.4310 -0.3467 -0.0096
 4365DDP     C126185  11.136  28.171  28.210 -0.0574  0.2385 -0.0195
 4365DDP     P126186  10.966  28.474  27.990 -0.1120 -0.0404 -0.3290
 4365DDP     P226187  11.053  28.265  28.548 -0.1897 -0.1025  0.1157
 4365DDP     C226188  11.165  27.910  28.800  0.2572  0.1211 -0.1453
 4365DDP     C326189  10.960  28.877  27.982 -0.4071 -0.0047  0.2914
 4365DDP     C426190  11.486  27.839  28.312 -0.1051  0.2020  0.0050
 4366DDP     C126191  24.419  10.902  14.577  0.1965 -0.1338 -0.1725
 4366DDP     P126192  24.511  10.953  14.884 -0.4709  0.3923 -0.1726
 4366DDP     P226193  24.526  11.039  14.215 -0.2389 -0.1167 -0.2010
 4366DDP     C226194  24.842  11.037  13.770  0.0469 -0.0313 -0.1442
 4366DDP     C326195  24.846  10.879  15.184 -0.4014 -0.0651  0.1602
 4366DDP     C426196  24.245  10.406  14.622 -0.1478 -0.2580 -0.2489
 4367DDP     C126197   8.278  24.797  17.997 -0.0161 -0.1279 -0.2468
 4367DDP     P126198   8.428  24.494  18.246 -0.0738 -0.1738 -0.1535
 4367DDP     P226199   8.258  24.773  17.629 -0.4217  0.1426  0.0177
 4367DDP     C226200   7.982  24.779  17.368  0.1931 -0.1278  0.1301
 4367DDP     C326201   8.726  24.117  18.110 -0.3579  0.0612 -0.1462
 4367DDP     C426202   8.235  25.218  18.167  0.0273  0.2730 -0.0555
 4368DDP     C126203  18.934  18.064   5.906  0.0089  0.3024  0.0350
 4368DDP     P126204  18.672  18.449   5.924 -0.3292  0.1195 -0.2891
 4368DDP     P226205  18.947  17.912   6.256 -0.1051 -0.1108  0.0273
 4368DDP     C226206  18.945  17.508   6.439 -0.2476 -0.2192 -0.1499
 4368DDP     C326207  18.479  18.795   5.963 -0.1285 -0.1247 -0.1328
 4368DDP     C426208  19.261  17.894   5.627 -0.1149 -0.0799  0.3042
 4369DDP     C126209  22.814  12.258  20.519 -0.2367  0.1236 -0.0993
 4369DDP     P126210  22.701  12.166  20.059  0.2075 -0.0238  0.1714
 4369DDP     P226211  22.394  12.439  20.706 -0.0650  0.1222  0.4656
 4369DDP     C226212  22.268  12.241  21.052  0.1552  0.1352 -0.1948
 4369DDP     C326213  22.997  12.048  19.735 -0.1993  0.2377 -0.1428
 4369DDP     C426214  23.318  12.326  20.672  0.3358  0.3542 -0.2343
 4370DDP     C126215   8.613  23.577   8.447 -0.2191 -0.0801  0.1350
 4370DDP     P126216   8.562  23.568   7.982  0.0272 -0.4041 -0.3519
 4370DDP     P226217   9.043  23.772   8.375  0.4935 -0.0933  0.0527
 4370DDP     C226218   9.424  23.624   8.134 -0.0244  0.0151 -0.1665
 4370DDP     C326219   8.669  23.786   7.596 -0.3444  0.3845 -0.1861
 4370DDP     C426220   8.317  23.732   8.705 -0.0845 -0.1586  0.3338
 4371DDP     C126221   5.447  27.251  18.778  0.3136 -0.1319 -0.0435
 4371DDP     P126222   5.040  27.602  18.655 -0.0088  0.1663 -0.0608
 4371DDP     P226223   5.797  27.148  18.474  0.1299 -0.0759 -0.2860
 4371DDP     C226224   6.135  26.797  18.457 -0.0286  0.0958 -0.0288
 4371DDP     C326225   4.644  27.874  18.706  0.3266  0.1084 -0.1419
 4371DDP     C426226   5.500  27.207  19.173  0.0677  0.1070 -0.2780
 4372DDP     C126227  16.233  23.104  21.592 -0.0756  0.0783  0.0092
 4372DDP     P126228  16.254  23.084  22.023 -0.2169  0.1351  0.1920
 4372DDP     P226229  16.168  23.498  21.519 -0.1447  0.0291 -0.1671
 4372DDP     C226230  16.271  23.959  21.530  0.0057 -0.3337 -0.0059
 4372DDP     C326231  16.297  22.859  22.398 -0.0264 -0.1985  0.0170
 4372DDP     C426232  16.084  22.606  21.338  0.0328 -0.1310  0.0799
 4373DDP     C126233  27.182  25.266  28.325  0.1923 -0.1360  0.2965
 4373DDP     P126234  26.726  25.092  28.279  0.0636 -0.1679 -0.2477
 4373DDP     P226235  27.144  25.493  27.973  0.3113  0.0174 -0.1448
 4373DDP     C226236  26.913  25.575  27.652 -0.1181  0.1726 -0.2224
 4373DDP     C326237  26.283  25.099  28.302  0.3091  0.1731  0.1456
 4373DDP     C426238  27.430  24.861  28.428  0.1875  0.1688  0.1017
 4374DDP     C126239  29.144   7.431  10.547  0.1703  0.0023  0.0444
 4374DDP     P126240  29.091   7.579  10.918 -0.0731  0.1380 -0.2465
 4374DDP     P226241  28.801   7.148  10.459 -0.0274  0.0377  0.1018
 4374DDP     C226242  28.779   6.668  10.338  0.0133  0.1681  0.0152
 4374DDP     C326243  29.467   7.649  11.139  0.1896 -0.0856  0.1384
 4374DDP     C426244  29.480   7.667  10.271 -0.2119  0.0623 -0.0841
 4375DDP     C126245  26.450  10.028   9.312  0.2066  0.0356 -0.1290
 4375DDP     P126246  26.374  10.353   9.065  0.1200 -0.2116  0.2518
 4375DDP     P226247  26.276   9.699   9.165 -0.0329 -0.0003 -0.1710
 4375DDP     C226248  26.261   9.540   8.871 -0.1721  0.1826  0.1849
 4375DDP     C326249  26.122  10.793   9.066  0.0203  0.0569  0.1847
 4375DDP     C426250  26.638  10.094   9.624  0.1363 -0.1692 -0.2763
 4376DDP     C126251  10.204   6.710   5.682  0.0412 -0.1585  0.1288
 4376DDP     P126252   9.807   6.456   5.614  0.1815 -0.0354 -0.2270
 4376DDP     P226253  10.156   7.129   5.549 -0.0563 -0.0755  0.1410
 4376DDP     C226254   9.915   7.472   5.364 -0.1060  0.1473  0.2022
 4376DDP     C326255   9.510   6.331   5.310  0.1751  0.4430 -0.3161
 4376DDP     C426256  10.434   6.669   6.102  0.3547  0.2727 -0.1349
 4377DDP     C126257  29.935   1.620  15.443  0.4003 -0.3876  0.1882
 4377DDP     P126258  29.548   1.380  15.432 -0.2492  0.0176  0.0610
 4377DDP     P226259  29.834   2.042  15.439 -0.2217  0.1473 -0.0109
 4377DDP     C226260  29.691   2.284  15.070 -0.0069  0.1311  0.0850
 4377DDP     C326261  29.301   1.130  15.557 -0.2190  0.0398 -0.1433
 4377DDP     C426262  30.236   1.310  15.633  0.0868  0.0364  0.0921
 4378DDP     C126263  19.127  18.791  20.954 -0.0687 -0.0208 -0.1086
 4378DDP     P126264  18.635  18.758  20.854 -0.0933  0.1297 -0.0300
 4378DDP     P226265  19.410  18.760  20.527 -0.1481  0.1406  0.0418
 4378DDP     C226266  19.449  18.626  20.104  0.0433 -0.0259 -0.0096
 4378DDP     C326267  18.375  18.563  20.545 -0.0350 -0.0584 -0.0813
 4378DDP     C426268  19.190  18.682  21.370 -0.0725 -0.0469 -0.1483
 4379DDP     C126269  25.596   4.526  11.926 -0.3725  0.0152  0.0115
 4379DDP     P126270  26.115   4.737  11.861 -0.1619  0.1420 -0.2632
 4379DDP     P226271  25.600   4.125  12.123 -0.1755 -0.1223 -0.0622
 4379DDP     C226272  25.872   3.916  12.431 -0.5290 -0.0435  0.1622
 4379DDP     C326273  26.339   5.144  11.830  0.0740  0.0322  0.1081
 4379DDP     C426274  25.183   4.726  11.866  0.3189  0.0230 -0.0908
 4380DDP     C126275  21.324   5.194   4.687 -0.1121  0.2624  0.2602
 4380DDP     P126276  21.316   5.232   5.109 -0.0170  0.1494 -0.1143
 4380DDP     P226277  21.768   4.996   4.507 -0.0618 -0.0150 -0.1587
 4380DDP     C226278  22.169   4.967   4.734 -0.0580 -0.1975  0.1631
 4380DDP     C326279  21.538   5.139   5.485  0.0447  0.1923 -0.0199
 4380DDP     C426280  21.031   5.245   4.401  0.2287  0.1426  0.2592
 4381DDP     C126281   9.541   2.204  10.325 -0.2284 -0.0738 -0.0747
 4381DDP     P126282   9.662   2.228  10.732 -0.0328 -0.0740  0.1054
 4381DDP     P226283   9.492   2.602  10.230  0.1554 -0.1923  0.2056
 4381DDP     C226284   9.846   3.000  10.161  0.0575 -0.0921 -0.3483
 4381DDP     C326285   9.860   2.403  11.044  0.1014 -0.2856 -0.1124
 4381DDP     C426286   9.230   1.870  10.104  0.1552  0.1879 -0.1142
 4382DDP     C126287  26.193  17.657  14.976 -0.0081 -0.0349 -0.1503
 4382DDP     P126288  26.530  17.785  15.261  0.3325 -0.2306 -0.0777
 4382DDP     P226289  26.286  17.211  14.904  0.3651  0.0914 -0.1208
 4382DDP     C226290  26.544  16.921  14.943  0.2312  0.1200 -0.1849
 4382DDP     C326291  26.671  18.112  15.591  0.2911  0.0424  0.2182
 4382DDP     C426292  25.928  17.852  14.787 -0.3326  0.1156 -0.3147
 4383DDP     C126293   6.442  14.343   2.065  0.2398 -0.2446  0.0396
 4383DDP     P126294   6.376  13.930   1.922 -0.0211 -0.1357  0.0053
 4383DDP     P226295   6.306  14.776   1.868  0.0727 -0.0250 -0.2688
 4383DDP     C226296   5.929  14.963   1.683  0.0682  0.0362  0.0957
 4383DDP     C326297   6.081  13.967   1.580 -0.1846 -0.0344  0.2348
 4383DDP     C426298   6.544  14.284   2.509 -0.1840 -0.1861  0.1624
 4384DDP     C126299  23.139  22.398   9.220  0.0123 -0.0852 -0.0350
 4384DDP     P126300  23.446  22.096   9.593  0.1336 -0.1939  0.0783
 4384DDP     P226301  22.887  22.164   8.879 -0.0197 -0.0471  0.1364
 4384DDP     C226302  22.458  22.117   8.701  0.1946 -0.0925 -0.0870
 4384DDP     C326303  23.543  21.816   9.903 -0.0899  0.5917 -0.4253
 4384DDP     C426304  22.968  22.879   9.217 -0.2166  0.2021 -0.2277
 4385DDP     C126305  11.252   7.814  10.776  0.2049  0.1080  0.0812
 4385DDP     P126306  11.660   8.006  10.985 -0.1363  0.2544 -0.2349
 4385DDP     P226307  11.161   7.389  10.817  0.0298 -0.4490 -0.1112
 4385DDP     C226308  10.714   7.280  10.883  0.1048 -0.1052  0.0518
 4385DDP     C326309  11.788   8.160  11.355  0.1940  0.3183  0.0062
 4385DDP     C426310  11.135   8.152  10.431  0.2065  0.0363  0.3028
 4386DDP     C126311   2.307  26.449  25.827  0.3189  0.2924  0.0700
 4386DDP     P126312   2.179  26.152  26.157 -0.0291 -0.2215 -0.0760
 4386DDP     P226313   2.220  26.939  25.810 -0.1412 -0.2632  0.1037
 4386DDP     C226314   2.207  27.426  25.900  0.0017  0.1679 -0.0426
 4386DDP     C326315   1.924  25.875  26.060 -0.0299 -0.0134 -0.1287
 4386DDP     C426316   2.501  26.109  25.554 -0.6383 -0.0746  0.1340
 4387DDP     C126317  27.986  11.687  20.048 -0.0169 -0.1428 -0.1851
 4387DDP     P126318  28.339  11.474  19.901 -0.0638 -0.0699  0.2388
 4387DDP     P226319  27.730  11.538  19.830  0.1128  0.2017 -0.1624
 4387DDP     C226320  27.712  11.448  19.380  0.1939 -0.0711 -0.1098
 4387DDP     C326321  28.580  11.375  19.549 -0.0127 -0.1440  0.0472
 4387DDP     C426322  27.966  11.893  20.517 -0.2307 -0.2551  0.0752
 4388DDP     C126323  20.898  22.961  19.456 -0.0114 -0.0173 -0.3699
 4388DDP     P126324  21.334  22.879  19.231 -0.3153  0.0982  0.1081
 4388DDP     P226325  20.567  22.954  19.280  0.1562  0.0665 -0.0924
 4388DDP     C226326  20.091  23.062  19.172 -0.0750  0.0912 -0.3120
 4388DDP     C326327  21.618  22.503  19.248 -0.0700  0.2661  0.0993
 4388DDP     C426328  20.852  22.758  19.881 -0.0946  0.3170 -0.0997
 4389DDP     C126329  29.187  24.548  28.212 -0.1252 -0.2924  0.0245
 4389DDP     P126330  28.973  24.713  27.816  0.0218 -0.1168  0.0399
 4389DDP     P226331  29.385  24.091  28.109 -0.0930  0.1293 -0.4631
 4389DDP     C226332  29.298  23.846  27.774 -0.0448 -0.1314  0.0449
 4389DDP     C326333  28.640  24.816  27.428 -0.2273  0.0903 -0.2018
 4389DDP     C426334  29.351  24.875  28.463  0.3323  0.3161  0.1808
 4390DDP     C126335  26.271  10.918   7.148  0.1357 -0.0511  0.2274
 4390DDP     P126336  26.538  11.192   6.896  0.0736  0.3160 -0.1439
 4390DDP     P226337  26.162  11.047   7.596 -0.1242 -0.1800  0.0830
 4390DDP     C226338  26.148  11.479   7.790 -0.1504  0.1416  0.0943
 4390DDP     C326339  26.886  11.357   7.030 -0.1149  0.0879  0.0142
 4390DDP     C426340  26.078  10.660   6.837  0.0771 -0.0304  0.2855
 4391DDP     C126341  15.337  29.476  26.256  0.0415 -0.2594 -0.2441
 4391DDP     P126342  14.850  29.413  26.186 -0.0185  0.0699 -0.0438
 4391DDP     P226343  15.406  29.327  26.590  0.1799 -0.0378 -0.0509
 4391DDP     C226344  15.089  29.218  26.966  0.0762  0.0100 -0.1668
 4391DDP     C326345  14.514  29.286  25.976 -0.0047 -0.1927  0.2466
 4391DDP     C426346  15.604  29.732  26.055  0.1578 -0.1493  0.0229
 4392DDP     C126347   5.678   6.439   9.403  0.0103  0.1282  0.0991
 4392DDP     P126348   5.490   6.734   9.126 -0.0141 -0.0576  0.1060
 4392DDP     P226349   6.033   6.430   9.735  0.3070  0.0572 -0.3225
 4392DDP     C226350   6.237   6.353  10.214 -0.3724 -0.0761  0.2035
 4392DDP     C326351   5.183   7.011   8.963  0.5798 -0.2974 -0.0505
 4392DDP     C426352   5.612   6.044   9.167 -0.2691 -0.1179 -0.2467
 4393DDP     C126353   8.455  23.351  30.004  0.2318 -0.0364 -0.1050
 4393DDP     P126354   8.704  23.089  29.711  0.1791  0.3809 -0.0794
 4393DDP     P226355   8.026  23.110  29.874  0.0210  0.1514 -0.0712
 4393DDP     C226356   7.845  22.635  29.866 -0.2110  0.0088 -0.2689
 4393DDP     C326357   8.517  23.192  29.336  0.0163 -0.2607 -0.0973
 4393DDP     C426358   8.525  23.671   0.001 -0.2755 -0.1554  0.0274
 4394DDP     C126359  15.283  17.605  10.087 -0.1576  0.1934  0.0444
 4394DDP     P126360  15.205  17.766   9.704  0.2158 -0.0006 -0.0287
 4394DDP     P226361  14.977  17.732  10.413 -0.0784  0.0166 -0.2001
 4394DDP     C226362  14.755  17.747  10.715 -0.1302  0.0003  0.1808
 4394DDP     C326363  14.978  17.676   9.299 -0.0309  0.0243  0.0405
 4394DDP     C426364  15.683  17.341  10.225 -0.3404  0.0690  0.1495
 4395DDP     C126365  16.984   5.137  23.828 -0.0912  0.1921  0.1629
 4395DDP     P126366  16.791   5.273  23.369 -0.0164 -0.0838  0.0223
 4395DDP     P226367  17.286   5.274  23.649  0.1493 -0.0531 -0.0600
 4395DDP     C226368  17.254   5.667  23.394 -0.1340  0.2654 -0.0589
 4395DDP     C326369  16.413   5.430  23.192 -0.0439  0.0234  0.1348
 4395DDP     C426370  16.844   5.028  24.265 -0.1291  0.0515 -0.0620
 4396DDP     C126371   4.869  23.340  13.419 -0.0563  0.1625  0.0935
 4396DDP     P126372   4.820  23.782  13.464 -0.2586  0.0396  0.0630
 4396DDP     P226373   4.633  23.063  13.611  0.0459  0.1875  0.0301
 4396DDP     C226374   4.387  22.757  13.569  0.0540 -0.1030 -0.0371
 4396DDP     C326375   4.931  24.112  13.723 -0.2587 -0.1522 -0.0008
 4396DDP     C426376   5.192  23.105  13.177  0.0874  0.0838 -0.0407
 4397DDP     C126377  26.257  10.091   7.172  0.0864 -0.4316 -0.1012
 4397DDP     P126378  26.488  10.229   7.481 -0.0461  0.1747 -0.0570
 4397DDP     P226379  26.613   9.774   7.094  0.0456 -0.1006  0.0663
 4397DDP     C226380  26.962   9.556   7.292  0.4022  0.1622  0.0780
 4397DDP     C326381  26.297   9.987   7.823  0.1762 -0.0411  0.3228
 4397DDP     C426382  25.714  10.039   7.099  0.2443 -0.0772  0.2220
 4398DDP     C126383   1.880  17.772  28.517  0.0867 -0.1122  0.0213
 4398DDP     P126384   2.229  17.514  28.555  0.0934  0.1532 -0.0337
 4398DDP     P226385   1.914  18.208  28.252  0.1520 -0.2000 -0.0725
 4398DDP     C226386   1.908  18.551  28.583  0.0116  0.3226 -0.1387
 4398DDP     C326387   2.374  17.270  28.955  0.0414  0.0039 -0.1108
 4398DDP     C426388   1.462  17.469  28.680 -0.2257  0.1275 -0.2887
 4399DDP     C126389  12.731  28.129   5.643  0.1656  0.0714  0.2372
 4399DDP     P126390  13.057  28.400   5.992 -0.0407  0.2956  0.2677
 4399DDP     P226391  12.923  27.814   6.006  0.1105  0.0236  0.3613
 4399DDP     C226392  12.969  27.635   6.355 -0.0699 -0.2994 -0.0302
 4399DDP     C326393  13.318  28.170   6.280 -0.2096 -0.0424  0.3442
 4399DDP     C426394  12.428  28.268   5.288  0.0565  0.1255 -0.3470
 4400DDP     C126395   2.050   8.327  29.564  0.3958 -0.0047 -0.0743
 4400DDP     P126396   2.407   8.557  29.624  0.2041 -0.4230  0.0144
 4400DDP     P226397   1.909   8.030  29.922  0.0533  0.0216 -0.1285
 4400DDP     C226398   1.728   7.723  29.834  0.2054 -0.0621  0.1818
 4400DDP     C326399   2.510   8.758  29.968 -0.0060  0.3791  0.0028
 4400DDP     C426400   1.994   8.299  29.134  0.0159 -0.0795 -0.3329
 4401DDP     C126401  11.002  14.745  14.530  0.0469 -0.0469 -0.0557
 4401DDP     P126402  11.062  14.284  14.474 -0.0274 -0.0246  0.2172
 4401DDP     P226403  10.706  14.832  14.809 -0.2001 -0.0644  0.2336
 4401DDP     C226404  10.570  14.893  15.209  0.1033  0.2590  0.1145
 4401DDP     C326405  11.147  14.017  14.087  0.2006 -0.0417  0.2507
 4401DDP     C426406  11.327  15.065  14.540  0.1007 -0.0865 -0.1345
 4402DDP     C126407  27.274  20.099  25.513 -0.2392  0.1220 -0.1453
 4402DDP     P126408  27.569  19.736  25.479  0.3897  0.0333  0.0502
 4402DDP     P226409  27.343  20.502  25.410  0.1050  0.0594 -0.2387
 4402DDP     C226410  27.568  20.879  25.180 -0.1088  0.1742  0.1424
 4402DDP     C326411  28.044  19.712  25.466 -0.0377 -0.0330 -0.0156
 4402DDP     C426412  27.103  19.879  25.881  0.0695  0.2708 -0.0042
 4403DDP     C126413   9.939  12.066  11.837  0.1112 -0.0219 -0.0064
 4403DDP     P126414   9.566  12.178  11.533 -0.1473 -0.0157 -0.1318
 4403DDP     P226415  10.111  11.684  11.936  0.4671 -0.1436 -0.1434
 4403DDP     C226416  10.317  11.265  11.807  0.1712 -0.2327  0.0417
 4403DDP     C326417   9.456  12.103  11.196  0.0687 -0.3509  0.3437
 4403DDP     C426418  10.138  12.461  12.018  0.1721 -0.0278  0.1897
 4404DDP     C126419   9.459  30.246  24.354  0.0668  0.0354  0.2977
 4404DDP     P126420   9.838   0.195  24.495 -0.2210  0.2584  0.0289
 4404DDP     P226421   9.410  29.768  24.460 -0.2751  0.1076  0.0256
 4404DDP     C226422   9.040  29.497  24.545 -0.0751 -0.1608  0.3981
 4404DDP     C326423  10.089   0.117  24.894  0.3572 -0.0438  0.0889
 4404DDP     C426424   9.433  -0.005  23.926  0.1480 -0.1300  0.1549
 4405DDP     C126425   8.240  16.670   6.064  0.4738  0.4862  0.1948
 4405DDP     P126426   7.770  16.360   6.066  0.0127  0.1266  0.0493
 4405DDP     P226427   8.685  16.753   5.968  0.0211 -0.2769  0.1939
 4405DDP     C226428   9.048  16.782   5.788 -0.0653 -0.2238 -0.0865
 4405DDP     C326429   7.437  16.187   6.093  0.1007 -0.0658 -0.0613
 4405DDP     C426430   8.271  16.851   6.371 -0.0936  0.0962  0.1440
 4406DDP     C126431  29.733  13.297  10.824 -0.3498 -0.3206 -0.0072
 4406DDP     P126432  29.864  13.542  10.510 -0.1732 -0.1234  0.0936
 4406DDP     P226433  29.275  13.354  11.043  0.0081 -0.1761  0.4385
 4406DDP     C226434  28.952  13.170  11.185 -0.1271  0.1246  0.0536
 4406DDP     C326435  29.920  13.485  10.088  0.2367  0.3925 -0.0207
 4406DDP     C426436  29.942  12.941  10.978 -0.3042  0.2577 -0.2718
 4407DDP     C126437   7.770  26.833   4.302 -0.1103  0.2458 -0.3006
 4407DDP     P126438   7.586  27.116   4.550  0.2243 -0.0920  0.0942
 4407DDP     P226439   8.055  26.603   4.497  0.0863 -0.0153  0.2158
 4407DDP     C226440   8.239  26.216   4.674 -0.2663 -0.0243  0.0875
 4407DDP     C326441   7.532  27.468   4.629 -0.4975 -0.0831 -0.3298
 4407DDP     C426442   7.562  26.686   3.891  0.0043  0.0725 -0.0467
 4408DDP     C126443  26.564   2.771  23.798  0.0428 -0.2187  0.0570
 4408DDP     P126444  26.993   2.585  23.546 -0.0030  0.0034  0.1433
 4408DDP     P226445  26.423   2.604  24.182 -0.1851  0.1377  0.1376
 4408DDP     C226446  26.367   2.436  24.620 -0.2687  0.2015 -0.0530
 4408DDP     C326447  27.027   2.758  23.135 -0.1370 -0.0095  0.3288
 4408DDP     C426448  26.260   3.111  23.660  0.1715  0.2066  0.2803
 4409DDP     C126449   7.102   1.764   3.155 -0.0151 -0.1998 -0.3144
 4409DDP     P126450   7.194   1.890   3.581 -0.1056 -0.0010  0.0741
 4409DDP     P226451   7.380   1.744   2.812  0.1304 -0.1465 -0.2936
 4409DDP     C226452   7.823   1.738   2.791 -0.1417 -0.1613  0.5671
 4409DDP     C326453   7.192   1.934   4.077  0.1575 -0.1406  0.0601
 4409DDP     C426454   6.719   1.707   3.201  0.0334 -0.1926 -0.4758
 4410DDP     C126455   6.344  29.438  25.919  0.5182  0.1590 -0.0917
 4410DDP     P126456   6.145  29.614  26.265 -0.2211  0.2447  0.1036
 4410DDP     P226457   6.498  29.741  25.569  0.3068  0.0808  0.3939
 4410DDP     C226458   6.271  29.726  25.255 -0.2222  0.3439  0.2452
 4410DDP     C326459   5.850  29.694  26.609  0.1433 -0.0920 -0.0469
 4410DDP     C426460   6.512  28.985  25.959  0.1865 -0.0687 -0.0572
 4411DDP     C126461   3.582  26.397  20.857 -0.0942  0.1855 -0.0727
 4411DDP     P126462   3.454  26.518  20.495  0.0259 -0.1434 -0.0531
 4411DDP     P226463   3.974  26.178  21.027  0.0234  0.0058  0.0903
 4411DDP     C226464   4.284  25.886  21.240  0.1995  0.0289  0.0114
 4411DDP     C326465   3.198  26.888  20.473  0.2255 -0.3831 -0.1273
 4411DDP     C426466   3.244  26.393  21.096 -0.0473  0.1091 -0.2894
 4412DDP     C126467  14.624   5.677  16.269 -0.0744 -0.0169 -0.1596
 4412DDP     P126468  15.065   5.485  16.418  0.0179  0.0025  0.0003
 4412DDP     P226469  14.885   5.973  16.345 -0.1331  0.5923  0.0662
 4412DDP     C226470  15.323   5.882  16.203 -0.1662 -0.1360 -0.2708
 4412DDP     C326471  15.487   5.203  16.382 -0.3043  0.0855 -0.1675
 4412DDP     C426472  14.262   5.718  16.308 -0.0877  0.1522  0.2690
 4413DDP     C126473   1.020  19.111  17.344  0.1322  0.0753  0.5211
 4413DDP     P126474   0.776  19.349  17.793  0.1878  0.0619 -0.0518
 4413DDP     P226475   1.002  18.849  16.928  0.0211  0.2625 -0.1715
 4413DDP     C226476   0.935  18.563  16.645  0.2239  0.1476  0.3263
 4413DDP     C326477   0.480  19.507  18.091 -0.2553 -0.1500 -0.3078
 4413DDP     C426478   1.349  19.335  17.243 -0.0848 -0.2658 -0.1250
 4414DDP     C126479   0.818  25.442  20.909  0.3252 -0.0267 -0.1051
 4414DDP     P126480   0.664  25.738  20.637  0.1205  0.0276  0.1162
 4414DDP     P226481   0.815  25.430  21.299 -0.0491 -0.1242  0.2898
 4414DDP     C226482   1.045  25.459  21.724  0.2072 -0.0157 -0.1384
 4414DDP     C326483   0.649  25.782  20.187 -0.1363 -0.0935  0.0782
 4414DDP     C426484   1.266  25.347  20.772  0.0740  0.0575 -0.0067
 4415DDP     C126485  27.901  22.764  18.967  0.1691  0.4555 -0.1946
 4415DDP     P126486  27.821  22.681  18.535 -0.2585 -0.3378  0.1152
 4415DDP     P226487  27.919  22.344  19.279  0.0078 -0.1411 -0.1193
 4415DDP     C226488  27.776  22.058  19.436 -0.2757 -0.3344 -0.0920
 4415DDP     C326489  27.679  22.661  18.183 -0.1456  0.1924  0.1593
 4415DDP     C426490  27.830  23.220  19.124  0.0972 -0.0758 -0.1342
 4416DDP     C126491  29.602  15.072   6.969  0.0397 -0.1265  0.0711
 4416DDP     P126492  29.418  14.891   7.268 -0.1653 -0.0809  0.0942
 4416DDP     P226493  29.958  15.260   7.155 -0.3865 -0.2140  0.4444
 4416DDP     C226494   0.088  15.432   7.142  0.1039  0.0914  0.3149
 4416DDP     C326495  29.512  14.604   7.666 -0.0057  0.1039  0.1138
 4416DDP     C426496  29.559  14.927   6.594 -0.0942  0.1249 -0.1153
 4417DDP     C126497  12.732   3.619   0.606 -0.2660  0.2221 -0.1672
 4417DDP     P126498  12.959   3.361   0.905 -0.1953  0.0832  0.2528
 4417DDP     P226499  12.366   3.475   0.397 -0.0238  0.2811 -0.1069
 4417DDP     C226500  12.216   3.565  30.299  0.2337  0.3294  0.0390
 4417DDP     C326501  13.013   3.037   1.104 -0.1857  0.0861 -0.0064
 4417DDP     C426502  12.713   4.090   0.762  0.1635 -0.0953 -0.0636
 4418DDP     C126503  18.553  22.548   6.167  0.0312  0.1793  0.4306
 4418DDP     P126504  18.599  22.971   6.281 -0.1171 -0.2260 -0.0927
 4418DDP     P226505  18.231  22.272   6.329  0.0984  0.1007 -0.1552
 4418DDP     C226506  17.961  21.974   6.127 -0.1568  0.0258 -0.2970
 4418DDP     C326507  18.327  23.170   6.505 -0.0598  0.0549 -0.1377
 4418DDP     C426508  18.784  22.290   5.943 -0.3164  0.0162 -0.1823
 4419DDP     C126509  11.273   0.102  10.841  0.0140  0.3092  0.0891
 4419DDP     P126510  11.322   0.377  10.404 -0.1717  0.0984 -0.2470
 4419DDP     P226511  11.643  30.195  10.934  0.2120 -0.0719 -0.1152
 4419DDP     C226512  11.947  29.785  10.811 -0.2078  0.0776 -0.2971
 4419DDP     C326513  11.355   0.332   9.910  0.0329 -0.0470 -0.3487
 4419DDP     C426514  10.964  30.138  10.829  0.0457 -0.0157 -0.0009
 4420DDP     C126515  16.148  21.000  20.178 -0.1266  0.3474 -0.2948
 4420DDP     P126516  15.764  20.970  20.029 -0.3992 -0.2082 -0.0079
 4420DDP     P226517  16.395  21.392  20.104 -0.2280  0.1291 -0.0553
 4420DDP     C226518  16.237  21.793  20.005  0.0126  0.0501  0.0205
 4420DDP     C326519  15.700  20.575  19.836  0.1211 -0.2244 -0.1680
 4420DDP     C426520  16.433  20.550  20.055 -0.0140 -0.3698  0.4743
 4421DDP     C126521  17.629  22.420   6.952 -0.2638 -0.0881 -0.0567
 4421DDP     P126522  17.373  22.025   6.864  0.1361  0.1305  0.0882
 4421DDP     P226523  18.042  22.332   6.844  0.1824  0.2291  0.1928
 4421DDP     C226524  18.090  21.935   6.768 -0.0920  0.3458  0.0000
 4421DDP     C326525  17.125  21.705   6.754  0.0063 -0.0480  0.0283
 4421DDP     C426526  17.429  22.820   6.901  0.0640 -0.1791 -0.1198
 4422DDP     C126527  13.386  29.998   9.614  0.2699  0.2287  0.0009
 4422DDP     P126528  13.877  29.985   9.646  0.0568  0.0025 -0.3759
 4422DDP     P226529  13.235  30.262   9.878  0.2516 -0.0869 -0.2762
 4422DDP     C226530  13.317   0.317  10.064  0.0917  0.0153  0.6221
 4422DDP     C326531  14.243  29.967   9.981 -0.2819 -0.0898  0.0202
 4422DDP     C426532  13.212  29.692   9.349 -0.0050 -0.0982  0.0486
 4423DDP     C126533   1.318  13.600  20.078  0.4069 -0.3800  0.0578
 4423DDP     P126534   1.114  13.851  20.386  0.0038  0.2016  0.1703
 4423DDP     P226535   1.619  13.543  19.942  0.1591 -0.1733 -0.4717
 4423DDP     C226536   1.994  13.722  19.883 -0.0675  0.0476 -0.2329
 4423DDP     C326537   0.948  13.849  20.837  0.3448  0.1565  0.5056
 4423DDP     C426538   0.969  13.430  19.956  0.1216 -0.1025 -0.0671
 4424DDP     C126539  25.405   4.334  28.691 -0.0398 -0.2389  0.0288
 4424DDP     P126540  25.531   3.904  28.861 -0.1541 -0.0263 -0.1448
 4424DDP     P226541  25.524   4.750  28.807 -0.0521  0.0358  0.0163
 4424DDP     C226542  25.631   4.953  29.103 -0.1078  0.0906 -0.0175
 4424DDP     C326543  25.510   3.515  28.893  0.1134  0.2024 -0.0319
 4424DDP     C426544  24.994   4.237  28.451  0.1193 -0.0026 -0.0305
 4425DDP     C126545  12.248  17.420  24.791  0.3254 -0.1509 -0.0447
 4425DDP     P126546  12.108  17.170  25.206 -0.0341  0.2029  0.0908
 4425DDP     P226547  12.654  17.467  24.609  0.1937 -0.2026 -0.1739
 4425DDP     C226548  13.008  17.378  24.271 -0.1794 -0.2377  0.2444
 4425DDP     C326549  12.290  17.197  25.686  0.0409 -0.1905  0.0883
 4425DDP     C426550  11.901  17.635  24.751  0.2482 -0.2610  0.0262
 4426DDP     C126551  19.175   6.140   7.931 -0.2370  0.1203  0.2138
 4426DDP     P126552  19.439   5.923   8.265  0.0313 -0.1366 -0.3465
 4426DDP     P226553  18.967   6.470   7.950 -0.2453  0.0031 -0.1325
 4426DDP     C226554  18.432   6.582   7.770  0.2850  0.1316 -0.0833
 4426DDP     C326555  19.391   5.564   8.450 -0.4545  0.0128 -0.2587
 4426DDP     C426556  19.146   6.031   7.425 -0.0086  0.1203  0.1181
 4427DDP     C126557  28.053   6.925   1.495  0.1705  0.1561 -0.1032
 4427DDP     P126558  27.787   6.687   1.735 -0.0467 -0.2718 -0.2114
 4427DDP     P226559  28.486   7.052   1.693 -0.4482  0.3040  0.0358
 4427DDP     C226560  28.816   7.313   1.539 -0.1800 -0.0553  0.0585
 4427DDP     C326561  27.634   6.294   1.526 -0.1375  0.1993  0.0448
 4427DDP     C426562  27.947   7.176   1.238  0.2606 -0.0780  0.0174
 4428DDP     C126563  25.107   7.909   7.631  0.0933  0.0221  0.2324
 4428DDP     P126564  25.162   8.182   8.086  0.2381  0.2512  0.1475
 4428DDP     P226565  25.468   7.666   7.504  0.0027  0.0596 -0.1735
 4428DDP     C226566  25.908   7.593   7.726 -0.3177  0.0153 -0.0091
 4428DDP     C326567  25.150   8.416   8.425  0.1282  0.0909 -0.0527
 4428DDP     C426568  24.696   7.748   7.504 -0.3309 -0.1890  0.4434
 4429DDP     C126569   9.863  18.651   9.788 -0.1159  0.0496  0.4017
 4429DDP     P126570   9.994  19.016   9.959  0.0421  0.1662  0.0374
 4429DDP     P226571  10.173  18.499   9.490  0.1870 -0.2265 -0.0734
 4429DDP     C226572  10.316  18.136   9.561  0.1058  0.2428 -0.0028
 4429DDP     C326573  10.324  19.230   9.837  0.2259 -0.2703  0.3947
 4429DDP     C426574   9.450  18.562   9.573 -0.1739  0.0864 -0.3026
 4430DDP     C126575   1.350  27.863   3.396 -0.1005 -0.0029  0.1354
 4430DDP     P126576   1.071  27.657   3.405  0.2723 -0.0242 -0.4697
 4430DDP     P226577   1.112  28.046   3.020  0.1582 -0.1740 -0.1260
 4430DDP     C226578   0.923  28.453   2.813 -0.0582  0.0478 -0.2689
 4430DDP     C326579   0.668  27.413   3.494 -0.0127  0.1620 -0.2049
 4430DDP     C426580   1.812  27.795   3.612 -0.0729  0.0593 -0.1200
 4431DDP     C126581  24.661  11.218   2.950 -0.2496 -0.1686 -0.1183
 4431DDP     P126582  24.534  11.227   2.551 -0.2188 -0.1229 -0.0624
 4431DDP     P226583  25.099  11.041   2.876  0.1413 -0.0633  0.1625
 4431DDP     C226584  25.502  11.149   3.028 -0.1716 -0.0069 -0.1026
 4431DDP     C326585  24.169  11.136   2.253 -0.2675 -0.1567  0.0273
 4431DDP     C426586  24.365  11.255   3.202 -0.0255  0.0987 -0.1159
 4432DDP     C126587  20.132  17.315   6.599 -0.0346 -0.3510  0.1507
 4432DDP     P126588  20.123  17.155   6.245 -0.0465 -0.3492 -0.1533
 4432DDP     P226589  19.806  17.347   6.907  0.0071 -0.1647  0.2669
 4432DDP     C226590  19.771  17.624   7.129  0.1655  0.2603  0.0137
 4432DDP     C326591  19.991  16.769   6.149 -0.1610 -0.1147 -0.2496
 4432DDP     C426592  20.519  17.491   6.649 -0.0495  0.3526 -0.1049
 4433DDP     C126593   3.585  19.787  26.840 -0.0617 -0.0762 -0.0203
 4433DDP     P126594   3.659  19.322  27.045 -0.2539  0.0057 -0.2280
 4433DDP     P226595   3.917  19.949  26.659 -0.1088  0.1239 -0.0321
 4433DDP     C226596   3.982  20.391  26.490  0.0701 -0.1273  0.0293
 4433DDP     C326597   3.333  19.130  27.340  0.0572  0.1102 -0.1180
 4433DDP     C426598   3.480  20.104  27.150  0.0605  0.2816  0.1022
 4434DDP     C126599   4.464  20.677  13.693 -0.0500  0.0425 -0.0937
 4434DDP     P126600   4.537  20.737  14.012  0.0107 -0.0704  0.3153
 4434DDP     P226601   4.778  20.768  13.417  0.3934  0.0266 -0.2889
 4434DDP     C226602   5.138  21.087  13.362  0.0351  0.2240  0.0147
 4434DDP     C326603   4.629  20.576  14.310  0.1695 -0.1824 -0.2069
 4434DDP     C426604   4.105  20.555  13.710  0.1203  0.0716 -0.3058
 4435DDP     C126605  11.481  16.079   3.413  0.2501  0.1222  0.0951
 4435DDP     P126606  11.697  16.321   3.649 -0.1400  0.0299  0.0617
 4435DDP     P226607  11.025  15.938   3.230  0.0100  0.0221 -0.0519
 4435DDP     C226608  10.673  16.231   3.332  0.1864 -0.1649  0.0627
 4435DDP     C326609  12.109  16.335   3.859 -0.1459 -0.0966 -0.3921
 4435DDP     C426610  11.845  15.828   3.341 -0.1336  0.0653  0.2573
 4436DDP     C126611  24.968  29.957   3.530 -0.1969  0.2377  0.2180
 4436DDP     P126612  24.618  29.875   3.889  0.0113 -0.0217 -0.1378
 4436DDP     P226613  24.827  29.707   3.221 -0.1070  0.2436  0.3605
 4436DDP     C226614  24.930  29.463   2.935 -0.0898  0.0997  0.1862
 4436DDP     C326615  24.746  30.032   4.248  0.1164 -0.0657 -0.2388
 4436DDP     C426616  25.126  30.252   3.411  0.4641 -0.2161 -0.0179
 4437DDP     C126617  27.556  23.265  25.813  0.1108  0.4800 -0.0660
 4437DDP     P126618  27.390  23.373  25.500 -0.0314 -0.0900 -0.1518
 4437DDP     P226619  27.795  22.951  25.551  0.0833  0.3555 -0.1347
 4437DDP     C226620  27.807  22.472  25.289  0.1783  0.2856  0.2946
 4437DDP     C326621  27.076  23.355  25.080 -0.0823 -0.2608 -0.1105
 4437DDP     C426622  27.392  23.146  26.270  0.2839 -0.1962  0.0169
 4438DDP     C126623   6.356  10.858   6.760 -0.0425  0.0247 -0.0698
 4438DDP     P126624   6.494  10.505   6.696  0.1312 -0.3362 -0.1261
 4438DDP     P226625   5.901  10.970   6.644  0.0289  0.3356 -0.0140
 4438DDP     C226626   5.408  11.029   6.527  0.0388  0.0889 -0.0983
 4438DDP     C326627   6.895  10.397   6.474  0.4896  0.0684  0.2425
 4438DDP     C426628   6.594  11.265   6.965 -0.0781 -0.0769 -0.2397
 4439DDP     C126629   5.189  11.321  25.364 -0.0820 -0.0737  0.0507
 4439DDP     P126630   5.093  11.078  25.664 -0.0658  0.2164 -0.0547
 4439DDP     P226631   4.999  11.699  25.250  0.1717  0.0450 -0.0448
 4439DDP     C226632   4.620  11.930  25.259  0.2717 -0.2048 -0.1682
 4439DDP     C326633   4.795  10.719  25.784 -0.0431 -0.2477  0.0087
 4439DDP     C426634   5.512  10.995  25.384  0.3378  0.1227  0.2528
 4440DDP     C126635  15.819  23.226   1.961 -0.1302 -0.1182  0.0949
 4440DDP     P126636  15.415  23.015   1.851  0.0255 -0.4272  0.0590
 4440DDP     P226637  15.802  23.638   1.970 -0.3054  0.2830  0.3670
 4440DDP     C226638  15.830  24.070   1.899 -0.1743  0.2016 -0.1139
 4440DDP     C326639  15.060  23.179   1.647 -0.1471 -0.2857 -0.2811
 4440DDP     C426640  16.259  23.007   1.978  0.0413  0.1771  0.2244
 4441DDP     C126641  30.244  28.493  24.819  0.1415  0.2126  0.1365
 4441DDP     P126642   0.036  28.992  24.686 -0.1651  0.2630 -0.0049
 4441DDP     P226643   0.096  28.170  24.622 -0.0698  0.1425 -0.2504
 4441DDP     C226644   0.126  28.026  24.244 -0.2034  0.2424  0.2179
 4441DDP     C326645   0.078  29.201  24.284  0.1378 -0.0456 -0.1083
 4441DDP     C426646  29.883  28.433  25.069 -0.1058 -0.0665 -0.0106
 4442DDP     C126647  14.635  21.029   1.803 -0.1373 -0.2273  0.0949
 4442DDP     P126648  14.543  21.390   1.983  0.0764 -0.2163  0.1815
 4442DDP     P226649  14.246  20.943   1.608  0.0225 -0.2096 -0.1358
 4442DDP     C226650  14.204  21.102   1.163  0.2317  0.1024 -0.3348
 4442DDP     C326651  14.566  21.863   1.925  0.4514  0.1853  0.1926
 4442DDP     C426652  14.942  20.701   1.635  0.1415  0.0682 -0.4572
 4443DDP     C126653  24.295  24.113   9.919  0.1588  0.0721  0.0454
 4443DDP     P126654  24.679  24.023   9.789  0.1591  0.3736 -0.0467
 4443DDP     P226655  24.065  24.301   9.673 -0.0206 -0.0020 -0.0730
 4443DDP     C226656  23.934  24.133   9.230 -0.1588  0.0515  0.1554
 4443DDP     C326657  25.057  23.964   9.885 -0.0223  0.1493 -0.3570
 4443DDP     C426658  24.121  24.109  10.374 -0.2818  0.2537  0.0656
 4444DDP     C126659  11.357  15.940  28.033 -0.0195 -0.1569 -0.1321
 4444DDP     P126660  11.630  15.769  28.295 -0.2340 -0.1989  0.0360
 4444DDP     P226661  10.988  15.704  28.086 -0.1659 -0.0901  0.4400
 4444DDP     C226662  10.768  15.713  28.552 -0.1285  0.1799  0.1359
 4444DDP     C326663  11.644  15.456  28.519 -0.0981 -0.0708  0.1874
 4444DDP     C426664  11.596  16.275  27.895  0.2827 -0.0600  0.3605
 4445DDP     C126665   1.004   5.086  22.379  0.1763  0.0418  0.0340
 4445DDP     P126666   0.595   4.894  22.623  0.2584 -0.3445  0.0101
 4445DDP     P226667   1.326   4.777  22.204 -0.2282 -0.2485  0.2473
 4445DDP     C226668   1.502   4.404  21.936 -0.0605  0.3218  0.0251
 4445DDP     C326669   0.380   4.610  22.844  0.2236 -0.1299  0.1006
 4445DDP     C426670   1.134   5.486  22.196 -0.0888  0.2024 -0.0783
 4446DDP     C126671  29.888  11.669   4.165  0.0980  0.0938  0.1070
 4446DDP     P126672  29.772  11.281   4.546  0.0027 -0.0323  0.3465
 4446DDP     P226673  29.537  11.940   4.140  0.0205  0.1203  0.0635
 4446DDP     C226674  29.081  11.668   3.983  0.0024 -0.0056 -0.3082
 4446DDP     C326675  29.795  10.823   4.584 -0.0375  0.0631 -0.1926
 4446DDP     C426676  30.233  11.826   4.176 -0.0023  0.0607  0.1765
 4447DDP     C126677  27.304  25.577   6.103 -0.3497 -0.1112 -0.0096
 4447DDP     P126678  27.572  25.886   6.369  0.2845 -0.0855  0.0527
 4447DDP     P226679  27.565  25.294   6.012  0.0453  0.1220 -0.4275
 4447DDP     C226680  27.744  25.047   5.551 -0.2539  0.0269 -0.0801
 4447DDP     C326681  27.815  26.180   6.707  0.3700 -0.2085 -0.2598
 4447DDP     C426682  26.908  25.660   5.735  0.3056  0.0730 -0.1934
 4448DDP     C126683  19.321  15.640   5.899 -0.3302  0.2064 -0.1020
 4448DDP     P126684  18.894  15.558   5.952 -0.6839  0.0037 -0.0605
 4448DDP     P226685  19.519  15.221   5.941  0.2228 -0.1080 -0.2081
 4448DDP     C226686  19.592  14.758   6.010  0.1859  0.0410 -0.1667
 4448DDP     C326687  18.504  15.738   5.968 -0.0607  0.0210 -0.0694
 4448DDP     C426688  19.597  15.928   5.849  0.0200  0.1104  0.1392
 4449DDP     C126689  18.854  10.841   8.734  0.1748  0.2092 -0.1767
 4449DDP     P126690  18.529  11.058   8.609 -0.0230 -0.1840 -0.0773
 4449DDP     P226691  19.145  11.069   9.007 -0.0077 -0.0353 -0.1010
 4449DDP     C226692  19.432  11.453   8.878 -0.0257 -0.1385 -0.0576
 4449DDP     C326693  18.132  11.298   8.483  0.0944  0.0715 -0.0339
 4449DDP     C426694  18.808  10.394   8.835 -0.0307  0.4057  0.1026
 4450DDP     C126695  16.757  28.277   9.963  0.0980  0.2019  0.2443
 4450DDP     P126696  16.690  28.674   9.747 -0.4868  0.0489  0.2657
 4450DDP     P226697  17.071  28.513  10.176 -0.2236  0.2344 -0.0565
 4450DDP     C226698  17.205  28.613  10.562  0.0606  0.1457  0.0473
 4450DDP     C326699  16.308  28.978   9.475 -0.2489  0.3793  0.2597
 4450DDP     C426700  16.592  27.843  10.001 -0.0463  0.1238 -0.2066
 4451DDP     C126701  29.837  20.533  22.325 -0.1693  0.2098 -0.0055
 4451DDP     P126702  29.605  20.386  22.690  0.4210  0.0604 -0.1747
 4451DDP     P226703  29.969  20.155  21.946 -0.1369 -0.1920 -0.0202
 4451DDP     C226704  30.340  19.893  21.744  0.2695  0.1409  0.2680
 4451DDP     C326705  29.238  20.141  22.784  0.1006  0.3108  0.0052
 4451DDP     C426706  29.940  20.940  22.243  0.2053 -0.1065  0.0409
 4452DDP     C126707  25.163  20.304  14.272  0.2156  0.0798  0.0005
 4452DDP     P126708  25.553  20.600  14.528  0.0554  0.1963 -0.0557
 4452DDP     P226709  25.031  19.907  14.440 -0.2705  0.2532  0.0427
 4452DDP     C226710  24.756  19.575  14.137  0.2562 -0.0655  0.0879
 4452DDP     C326711  25.890  20.777  14.778 -0.1553 -0.3591 -0.2831
 4452DDP     C426712  25.240  20.368  13.849 -0.1048  0.2677  0.1145
 4453DDP     C126713  27.662  20.122   3.104 -0.0275  0.0603 -0.0409
 4453DDP     P126714  28.017  20.166   3.436 -0.1210  0.0814  0.0893
 4453DDP     P226715  27.290  20.268   3.305 -0.0984  0.1944  0.2768
 4453DDP     C226716  27.084  20.317   3.692  0.2782  0.2255 -0.1574
 4453DDP     C326717  28.171  20.487   3.738 -0.2505  0.4059  0.1345
 4453DDP     C426718  27.522  19.857   2.774  0.0541  0.0218  0.5043
 4454DDP     C126719   0.189  15.715  14.152  0.1513  0.2669 -0.0371
 4454DDP     P126720   0.151  16.033  13.789 -0.0799 -0.1163  0.0348
 4454DDP     P226721   0.607  15.645  14.375  0.1992  0.0377  0.2416
 4454DDP     C226722   0.979  15.963  14.302  0.0111 -0.0255  0.2035
 4454DDP     C326723   0.225  16.350  13.497  0.0774 -0.3038 -0.1526
 4454DDP     C426724  30.213  15.352  14.100  0.2146 -0.3527  0.0108
 4455DDP     C126725  22.859  12.690   3.430 -0.1392  0.1623 -0.0147
 4455DDP     P126726  22.630  12.458   3.633 -0.0806  0.0351 -0.0638
 4455DDP     P226727  22.716  12.837   3.134 -0.0440 -0.1786 -0.1343
 4455DDP     C226728  22.615  12.583   2.744 -0.1126  0.1187  0.1066
 4455DDP     C326729  22.376  12.104   3.589 -0.1447 -0.1797 -0.0759
 4455DDP     C426730  23.153  12.777   3.719  0.0238  0.0178  0.2784
 4456DDP     C126731  26.946  26.612  11.121  0.4654  0.1876  0.2376
 4456DDP     P126732  27.253  26.933  11.201 -0.4203 -0.1769  0.1941
 4456DDP     P226733  26.462  26.759  10.947  0.3362 -0.0310  0.0584
 4456DDP     C226734  26.300  26.522  10.570 -0.0611 -0.0308  0.2264
 4456DDP     C326735  27.701  27.082  11.038  0.0802 -0.1242 -0.1894
 4456DDP     C426736  27.046  26.174  11.131  0.2352 -0.2448 -0.0005
 4457DDP     C126737   6.001  28.214  26.318 -0.1287  0.0968  0.1794
 4457DDP     P126738   6.063  28.609  26.485  0.0971  0.1397  0.4210
 4457DDP     P226739   6.336  28.019  26.048 -0.0814 -0.2688 -0.0274
 4457DDP     C226740   6.325  27.711  25.768 -0.1375  0.1377  0.2109
 4457DDP     C326741   5.757  28.910  26.454 -0.2235  0.2083 -0.3104
 4457DDP     C426742   5.715  27.998  26.602  0.1265 -0.0623 -0.1221
 4458DDP     C126743  19.662   6.514   4.803  0.0966  0.1274  0.0565
 4458DDP     P126744  19.448   6.850   4.537 -0.1376 -0.0758 -0.1613
 4458DDP     P226745  19.628   6.132   4.987  0.1611  0.2998 -0.0610
 4458DDP     C226746  19.824   6.067   5.350 -0.3202  0.3688  0.3995
 4458DDP     C326747  19.400   7.056   4.203  0.3465  0.1475 -0.0573
 4458DDP     C426748  20.067   6.839   4.890 -0.0343  0.2351  0.1455
 4459DDP     C126749   5.283  11.398   9.346  0.0371 -0.0173  0.1939
 4459DDP     P126750   5.100  11.113   9.694 -0.1343 -0.1622 -0.1788
 4459DDP     P226751   5.084  11.386   8.998 -0.0873 -0.1825  0.0860
 4459DDP     C226752   5.089  11.333   8.597 -0.0753 -0.0086  0.2297
 4459DDP     C326753   4.910  10.649   9.854 -0.0809 -0.1131  0.1671
 4459DDP     C426754   5.680  11.582   9.263 -0.2634  0.1887  0.0053
 4460DDP     C126755  22.513  27.198   1.195 -0.0814 -0.1919  0.4303
 4460DDP     P126756  22.742  27.134   0.845 -0.0472  0.2380  0.3704
 4460DDP     P226757  22.171  27.580   1.241 -0.0676 -0.2861 -0.1759
 4460DDP     C226758  21.690  27.678   1.066 -0.0105  0.0915  0.2052
 4460DDP     C326759  22.797  26.961   0.396 -0.5555  0.2378 -0.2758
 4460DDP     C426760  22.707  26.778   1.349  0.1812  0.0061 -0.1473
 4461DDP     C126761  23.388   4.494  28.509  0.1573  0.0646 -0.0310
 4461DDP     P126762  23.344   4.233  28.189  0.0901  0.0331 -0.4316
 4461DDP     P226763  23.258   4.662  28.863 -0.2211 -0.0538  0.1767
 4461DDP     C226764  23.012   5.032  28.990 -0.3821  0.0610 -0.2669
 4461DDP     C326765  23.159   4.149  27.835  0.4547  0.1042  0.0944
 4461DDP     C426766  23.675   4.751  28.492 -0.0306  0.2312 -0.2372
 4462DDP     C126767  13.384  25.850   3.231 -0.2444 -0.4119 -0.1032
 4462DDP     P126768  13.203  25.387   3.421 -0.1100 -0.1205 -0.2521
 4462DDP     P226769  13.601  26.083   3.567 -0.1217 -0.0048  0.1613
 4462DDP     C226770  13.697  26.387   3.822 -0.1197 -0.2338 -0.0014
 4462DDP     C326771  13.107  24.948   3.250  0.0471  0.0777  0.0673
 4462DDP     C426772  13.141  26.143   2.878  0.0312 -0.1963 -0.3327
 4463DDP     C126773   7.837   5.443   0.471 -0.2473  0.0485  0.2444
 4463DDP     P126774   7.583   5.101   0.442  0.0818  0.0876  0.0349
 4463DDP     P226775   7.780   5.508   0.880 -0.1391  0.2767 -0.2482
 4463DDP     C226776   7.865   5.558   1.270  0.2986  0.0809 -0.1381
 4463DDP     C326777   7.437   4.764   0.639  0.1306  0.1339 -0.1142
 4463DDP     C426778   8.024   5.820   0.230  0.0244 -0.2802 -0.0782
 4464DDP     C126779  28.793   5.449  26.582 -0.2400  0.0860  0.0418
 4464DDP     P126780  28.369   5.380  26.810 -0.0945  0.0346  0.1430
 4464DDP     P226781  28.768   5.745  26.180  0.1883 -0.2178  0.0243
 4464DDP     C226782  28.968   5.748  25.792  0.1315 -0.0840  0.0665
 4464DDP     C326783  27.996   5.643  26.786 -0.1414  0.0485 -0.0393
 4464DDP     C426784  29.198   5.253  26.765 -0.2474 -0.0117 -0.1325
 4465DDP     C126785  10.452  13.205  15.300 -0.0300 -0.0997 -0.1103
 4465DDP     P126786  10.489  12.846  15.604  0.3228 -0.1637  0.4849
 4465DDP     P226787  10.740  13.375  15.013  0.1448  0.0394  0.2947
 4465DDP     C226788  11.163  13.574  15.120  0.0251  0.3659  0.0650
 4465DDP     C326789  10.423  12.456  15.415 -0.1063  0.1044 -0.1272
 4465DDP     C426790  10.025  13.354  15.325 -0.1247  0.1343  0.1506
 4466DDP     C126791  14.458   6.082  28.863 -0.0226 -0.0084 -0.0222
 4466DDP     P126792  14.807   5.918  28.707 -0.2912  0.2598  0.0049
 4466DDP     P226793  14.393   6.413  29.162  0.1483  0.1980 -0.0481
 4466DDP     C226794  14.130   6.404  29.551  0.1250 -0.2587 -0.1035
 4466DDP     C326795  15.218   5.717  28.566  0.0097 -0.0538  0.1193
 4466DDP     C426796  14.108   5.927  28.668 -0.1932  0.1852  0.0430
 4467DDP     C126797  21.469  14.935  30.169  0.1245 -0.0306  0.0160
 4467DDP     P126798  20.952  14.926  30.163 -0.0712 -0.0795  0.0943
 4467DDP     P226799  21.612  14.655   0.174  0.1745 -0.2426  0.1438
 4467DDP     C226800  21.890  14.281   0.095 -0.0511 -0.4940 -0.1258
 4467DDP     C326801  20.596  14.601  30.138 -0.1491  0.0497 -0.0143
 4467DDP     C426802  21.796  15.187  30.025  0.0320  0.1731  0.0397
 4468DDP     C126803   9.061   8.201  28.567  0.0220  0.1280  0.0764
 4468DDP     P126804   9.457   8.387  28.768 -0.1729  0.1321  0.2863
 4468DDP     P226805   8.719   8.337  28.528  0.3077 -0.2791 -0.0830
 4468DDP     C226806   8.320   8.461  28.562 -0.1218 -0.1629 -0.2522
 4468DDP     C326807   9.681   8.668  28.771  0.0435 -0.3283 -0.3803
 4468DDP     C426808   9.263   7.816  28.663  0.3232 -0.1453  0.3815
 4469DDP     C126809   5.968  29.793   2.160  0.1636 -0.1977 -0.0578
 4469DDP     P126810   5.658  30.093   2.446  0.0436 -0.0359 -0.2119
 4469DDP     P226811   6.401  29.593   2.161 -0.1133 -0.1056 -0.1120
 4469DDP     C226812   6.848  29.378   2.138  0.0366  0.2262  0.4114
 4469DDP     C326813   5.678   0.159   2.831 -0.1294  0.2218  0.0461
 4469DDP     C426814   5.647  29.643   1.945  0.0670  0.0234 -0.1780
 4470DDP     C126815  13.865  28.079  24.811 -0.0701 -0.1110 -0.0224
 4470DDP     P126816  14.181  28.408  24.796  0.1860  0.0521  0.0411
 4470DDP     P226817  13.961  27.741  24.601 -0.0797  0.3884 -0.4111
 4470DDP     C226818  13.912  27.288  24.499 -0.1029  0.0632 -0.0412
 4470DDP     C326819  14.520  28.314  24.464 -0.2347  0.1625 -0.0885
 4470DDP     C426820  13.568  27.970  25.076  0.2338  0.0344 -0.1207
 4471DDP     C126821  16.135  14.048   5.170 -0.0970 -0.0483  0.0717
 4471DDP     P126822  16.068  14.449   5.163  0.5902  0.2169 -0.2960
 4471DDP     P226823  16.098  13.916   5.664  0.0017 -0.0621 -0.3868
 4471DDP     C226824  16.268  13.774   6.044 -0.1229  0.0627  0.0724
 4471DDP     C326825  16.254  14.855   5.234  0.2763 -0.1131  0.2853
 4471DDP     C426826  16.370  13.786   4.869  0.0561 -0.2519 -0.1348
 4472DDP     C126827  22.269   9.820  26.083 -0.2175  0.0743 -0.0871
 4472DDP     P126828  21.920   9.531  26.159  0.0346  0.1960  0.0178
 4472DDP     P226829  22.273  10.031  25.749 -0.2234 -0.1334  0.0674
 4472DDP     C226830  22.491   9.849  25.383 -0.3995 -0.0795 -0.1669
 4472DDP     C326831  21.758   9.156  26.315 -0.3722  0.2444  0.3102
 4472DDP     C426832  22.546  10.086  26.405 -0.0641 -0.0865  0.4465
 4473DDP     C126833  16.988   0.717   4.299  0.4167  0.0708  0.0448
 4473DDP     P126834  16.909   0.278   4.052  0.2816 -0.0699 -0.1765
 4473DDP     P226835  17.074   1.105   4.182 -0.1043 -0.0795 -0.1421
 4473DDP     C226836  17.499   1.303   4.164 -0.0839 -0.2005 -0.1134
 4473DDP     C326837  16.771  30.212   4.131 -0.1088  0.0840  0.3494
 4473DDP     C426838  17.031   0.822   4.812  0.0276  0.0517 -0.2321
 4474DDP     C126839   4.575  28.861  14.830  0.2190  0.1032 -0.3541
 4474DDP     P126840   4.219  28.666  14.662  0.1909  0.0771  0.0998
 4474DDP     P226841   4.758  28.676  15.213  0.1377 -0.1630 -0.0347
 4474DDP     C226842   4.662  28.258  15.253 -0.0431 -0.2284  0.0620
 4474DDP     C326843   3.876  28.857  14.377 -0.0109  0.0178  0.1690
 4474DDP     C426844   4.806  29.220  14.716  0.0418  0.1133  0.0701
 4475DDP     C126845  23.183   7.339  17.928  0.0256 -0.1167 -0.2797
 4475DDP     P126846  23.382   6.977  17.653 -0.2106  0.1017  0.0655
 4475DDP     P226847  22.890   7.705  17.816 -0.4007  0.1737  0.2440
 4475DDP     C226848  22.966   8.072  17.921  0.0787  0.0825 -0.1687
 4475DDP     C326849  23.355   6.795  17.216 -0.1086 -0.4681  0.0805
 4475DDP     C426850  23.082   7.181  18.263  0.0290 -0.1187  0.0816
 4476DDP     C126851   5.058  13.692  10.289 -0.4319  0.2997 -0.1340
 4476DDP     P126852   4.639  13.930  10.268  0.2753  0.0697 -0.3118
 4476DDP     P226853   5.039  13.351  10.643 -0.2049  0.2228  0.0276
 4476DDP     C226854   5.078  13.137  11.042  0.1397 -0.3095 -0.2711
 4476DDP     C326855   4.258  14.033  10.096  0.2400 -0.0873  0.1414
 4476DDP     C426856   5.381  13.858  10.093  0.0096  0.0422 -0.0616
 4477DDP     C126857  11.137  20.478  17.711  0.1365 -0.0722  0.2023
 4477DDP     P126858  10.879  20.248  17.978 -0.1383 -0.1248  0.0350
 4477DDP     P226859  11.369  20.301  17.469  0.0754  0.0044 -0.0381
 4477DDP     C226860  11.696  20.117  17.236 -0.0729 -0.0241  0.0159
 4477DDP     C326861  10.744  20.021  18.291 -0.1009 -0.1022  0.0912
 4477DDP     C426862  11.368  20.835  17.828  0.0768  0.0039  0.0210
 4478DDP     C126863  27.959   3.181  20.283 -0.1063  0.1169 -0.1456
 4478DDP     P126864  27.668   3.455  20.160  0.0100  0.0384 -0.2628
 4478DDP     P226865  28.247   3.034  20.480  0.3038 -0.2627  0.2745
 4478DDP     C226866  28.462   2.654  20.704 -0.1722  0.3001 -0.2455
 4478DDP     C326867  27.530   3.685  19.829 -0.1969 -0.0243  0.2383
 4478DDP     C426868  27.722   2.987  20.234 -0.0962 -0.1684 -0.3125
 4479DDP     C126869  28.296   8.685  25.039  0.1882  0.0144 -0.2429
 4479DDP     P126870  28.667   8.695  24.868 -0.0111 -0.0352  0.0629
 4479DDP     P226871  28.282   8.748  25.538  0.2691  0.1011  0.2278
 4479DDP     C226872  28.594   9.038  25.794 -0.0818  0.1244 -0.0379
 4479DDP     C326873  28.816   8.980  24.564  0.1105 -0.1120  0.1853
 4479DDP     C426874  27.932   8.582  24.802  0.1883  0.1840 -0.0647
 4480DDP     C126875   3.104  25.835  10.957 -0.3686 -0.1777  0.0060
 4480DDP     P126876   3.056  25.567  10.669 -0.0958  0.0225 -0.2483
 4480DDP     P226877   2.843  26.155  11.047 -0.1021 -0.0115  0.1693
 4480DDP     C226878   2.497  26.438  10.897  0.1804  0.3044 -0.1818
 4480DDP     C326879   3.034  25.368  10.255  0.0282  0.1325 -0.1358
 4480DDP     C426880   3.550  25.862  11.004  0.0529 -0.0910  0.1588
 4481DDP     C126881  23.250   6.844   8.651 -0.1725  0.0470 -0.0738
 4481DDP     P126882  23.219   6.401   8.885 -0.0375  0.2782 -0.2732
 4481DDP     P226883  23.080   7.254   8.831 -0.0070  0.1472  0.1134
 4481DDP     C226884  22.836   7.472   9.223  0.1467 -0.2499  0.0912
 4481DDP     C326885  22.864   6.029   8.859 -0.0618  0.1982  0.3396
 4481DDP     C426886  23.438   6.965   8.188  0.0956 -0.0743  0.0610
 4482DDP     C126887   8.611  24.187  18.916 -0.3010 -0.0657  0.3381
 4482DDP     P126888   8.308  24.124  19.183 -0.1981  0.1410 -0.1271
 4482DDP     P226889   8.810  23.905  18.923  0.4086 -0.1519  0.0147
 4482DDP     C226890   8.806  23.497  18.793  0.0086  0.4391  0.1214
 4482DDP     C326891   7.947  24.315  19.395 -0.0433  0.1551  0.0010
 4482DDP     C426892   8.680  24.577  18.675  0.1244 -0.1895 -0.2110
 4483DDP     C126893  20.974  13.152  27.300 -0.4994 -0.1384 -0.1889
 4483DDP     P126894  21.053  12.925  26.872 -0.1651 -0.0721  0.1683
 4483DDP     P226895  21.273  13.363  27.426 -0.0524 -0.5106  0.1312
 4483DDP     C226896  21.259  13.622  27.780 -0.1993 -0.1142  0.2623
 4483DDP     C326897  21.072  12.654  26.616  0.2340 -0.0461  0.2120
 4483DDP     C426898  20.578  13.123  27.560  0.4472  0.0321  0.2200
 4484DDP     C126899   1.560  15.637  11.924  0.2092  0.0089 -0.4731
 4484DDP     P126900   1.207  15.705  12.128  0.2694 -0.0333  0.1741
 4484DDP     P226901   1.417  16.089  11.705 -0.1247  0.1666 -0.1093
 4484DDP     C226902   1.175  16.493  11.710 -0.1318 -0.0994  0.1007
 4484DDP     C326903   0.715  15.608  12.111  0.0675 -0.3862  0.1660
 4484DDP     C426904   1.726  15.266  12.032  0.0622 -0.2918 -0.1517
 4485DDP     C126905   7.041  21.068  18.815  0.1097 -0.1311  0.1217
 4485DDP     P126906   6.772  20.851  18.580 -0.2293 -0.1743  0.0490
 4485DDP     P226907   6.923  21.075  19.285 -0.1576 -0.1081  0.0103
 4485DDP     C226908   6.831  20.786  19.606  0.0440  0.1278 -0.0558
 4485DDP     C326909   6.732  20.689  18.171 -0.0808  0.0824 -0.1214
 4485DDP     C426910   7.437  21.003  18.891 -0.1511  0.2799  0.0912
 4486DDP     C126911  12.864   5.768  27.908 -0.0361 -0.0667  0.2031
 4486DDP     P126912  13.273   5.687  28.195 -0.1715  0.2115  0.1198
 4486DDP     P226913  12.809   6.094  27.629 -0.1420  0.1072  0.1822
 4486DDP     C226914  13.174   6.244  27.258  0.0558 -0.3384 -0.3839
 4486DDP     C326915  13.533   6.030  28.297  0.0299 -0.1308  0.2217
 4486DDP     C426916  12.448   5.485  28.003  0.0944  0.0036 -0.3389
 4487DDP     C126917  24.993   8.420  10.625 -0.0330  0.3651 -0.2631
 4487DDP     P126918  24.816   8.081  10.467  0.1373 -0.2537 -0.0409
 4487DDP     P226919  24.760   8.752  10.657  0.0081  0.0037  0.1331
 4487DDP     C226920  24.744   9.146  10.741  0.0970 -0.2731 -0.1167
 4487DDP     C326921  24.782   7.644  10.205  0.0080  0.1105  0.2637
 4487DDP     C426922  25.481   8.542  10.825  0.0189  0.3837  0.0127
 4488DDP     C126923  10.701   5.811  14.046 -0.0134  0.3340 -0.1682
 4488DDP     P126924  10.340   6.077  13.810 -0.0373  0.2565 -0.0903
 4488DDP     P226925  10.719   5.453  13.798 -0.3540 -0.3369  0.4020
 4488DDP     C226926  10.703   4.977  13.783  0.1049  0.3118 -0.0229
 4488DDP     C326927   9.982   6.056  13.636 -0.0558 -0.1993  0.1934
 4488DDP     C426928  10.944   5.785  14.411 -0.1063  0.2889 -0.1201
 4489DDP     C126929   4.706  22.263   8.345  0.1128  0.2329  0.0976
 4489DDP     P126930   4.350  22.305   8.134  0.1180 -0.0628  0.1295
 4489DDP     P226931   4.907  22.720   8.284 -0.0585  0.2991 -0.0243
 4489DDP     C226932   5.083  22.939   8.013 -0.3604  0.0721 -0.0016
 4489DDP     C326933   4.202  22.635   7.862  0.0474  0.0979  0.1400
 4489DDP     C426934   4.928  21.868   8.343 -0.0841  0.1644  0.1158
 4490DDP     C126935  18.459  21.427  21.050  0.0325 -0.1730 -0.0685
 4490DDP     P126936  18.850  21.426  21.339 -0.1354  0.2812 -0.0084
 4490DDP     P226937  18.140  21.439  21.319 -0.0080 -0.0934 -0.0358
 4490DDP     C226938  17.734  21.533  21.172  0.0004  0.0926  0.0866
 4490DDP     C326939  19.167  21.245  21.624 -0.1989 -0.1507 -0.0357
 4490DDP     C426940  18.413  21.603  20.557 -0.0963  0.0574  0.0026
 4491DDP     C126941  17.961   2.338   4.675 -0.0691 -0.2127 -0.3711
 4491DDP     P126942  17.631   2.568   5.019 -0.2234 -0.2231 -0.2254
 4491DDP     P226943  18.126   1.968   4.602  0.0058  0.1018 -0.0248
 4491DDP     C226944  18.414   1.522   4.635  0.1465 -0.1416 -0.3528
 4491DDP     C326945  17.381   2.669   5.400 -0.1062 -0.0255  0.1628
 4491DDP     C426946  17.935   2.658   4.381 -0.1888  0.0115 -0.1688
 4492DDP     C126947  16.265  23.764  16.596 -0.0047 -0.3224  0.2151
 4492DDP     P126948  16.360  23.383  16.790 -0.0352 -0.2937 -0.2669
 4492DDP     P226949  16.355  23.988  16.168  0.0981 -0.1779 -0.1216
 4492DDP     C226950  16.155  23.964  15.814 -0.3118  0.0557 -0.0733
 4492DDP     C326951  16.439  23.105  17.140 -0.2592 -0.1020 -0.0940
 4492DDP     C426952  15.800  23.831  16.733  0.1547 -0.0544  0.1258
 4493DDP     C126953  24.459   7.701   1.278 -0.0568 -0.1939 -0.0400
 4493DDP     P126954  24.188   7.805   1.005  0.2529 -0.2181  0.1244
 4493DDP     P226955  24.563   7.844   1.734  0.0384  0.0726 -0.3109
 4493DDP     C226956  24.896   7.842   1.943 -0.0507  0.0085  0.0561
 4493DDP     C326957  24.138   7.993   0.605  0.0802  0.0337  0.0326
 4493DDP     C426958  24.782   7.488   1.137  0.3118  0.0831 -0.0975
 4494DDP     C126959  15.773   0.969  15.009 -0.0882 -0.2258  0.1046
 4494DDP     P126960  15.336   1.060  14.987 -0.0642  0.2059  0.3008
 4494DDP     P226961  16.022   0.661  15.338 -0.4743  0.1654  0.0782
 4494DDP     C226962  16.265   0.231  15.394  0.1022  0.0017 -0.1707
 4494DDP     C326963  14.974   1.350  15.095  0.2634 -0.4207  0.0000
 4494DDP     C426964  16.005   0.886  14.702  0.0992 -0.1577  0.0509
 4495DDP     C126965   0.707  11.840  17.760  0.0273  0.3731 -0.0645
 4495DDP     P126966   1.185  12.019  17.617  0.0127 -0.0776 -0.1777
 4495DDP     P226967   0.825  11.625  18.049 -0.1135 -0.0462  0.1727
 4495DDP     C226968   0.947  11.453  18.491 -0.1490  0.0074 -0.4363
 4495DDP     C326969   1.650  11.861  17.610 -0.0793  0.0716  0.0906
 4495DDP     C426970   0.377  11.806  17.457  0.0173 -0.1506 -0.3064
 4496DDP     C126971  21.888  25.177   7.730 -0.1284  0.0143  0.1392
 4496DDP     P126972  21.855  25.548   7.869  0.1940  0.0817 -0.1549
 4496DDP     P226973  21.814  25.070   7.343  0.0139  0.5148 -0.0521
 4496DDP     C226974  21.790  24.552   7.249 -0.0987 -0.1247 -0.1026
 4496DDP     C326975  22.041  25.818   8.071  0.0679  0.0331 -0.1256
 4496DDP     C426976  22.006  24.802   8.112 -0.2717  0.0274 -0.4211
 4497DDP     C126977  13.911  26.297  11.427  0.0994  0.2837  0.1358
 4497DDP     P126978  13.581  26.356  11.130  0.1941 -0.0087 -0.0039
 4497DDP     P226979  14.138  26.496  11.436 -0.0758  0.2532 -0.0907
 4497DDP     C226980  14.589  26.574  11.075  0.1015  0.1977 -0.0124
 4497DDP     C326981  13.379  26.239  10.812  0.0434  0.1568  0.2389
 4497DDP     C426982  13.798  26.501  11.841 -0.1517  0.1085  0.3107
 4498DDP     C126983   2.809  28.064   5.784  0.0554 -0.1174 -0.1374
 4498DDP     P126984   2.329  28.166   5.605  0.3038  0.1546  0.0769
 4498DDP     P226985   3.093  28.313   5.448 -0.1463 -0.2173 -0.2366
 4498DDP     C226986   3.474  28.549   5.392  0.0797  0.1571  0.0602
 4498DDP     C326987   1.900  28.074   5.698 -0.2735  0.0766  0.0654
 4498DDP     C426988   3.003  28.002   6.130 -0.0102  0.1251  0.1035
 4499DDP     C126989   1.882  16.712   8.503  0.3642  0.0185 -0.0041
 4499DDP     P126990   1.945  16.329   8.643  0.0690  0.1086  0.1118
 4499DDP     P226991   2.028  16.589   8.117  0.0632 -0.1510 -0.1339
 4499DDP     C226992   2.345  16.604   7.821 -0.0190  0.1939 -0.0571
 4499DDP     C326993   1.783  16.063   8.886 -0.1766  0.4151  0.0439
 4499DDP     C426994   1.878  17.105   8.716 -0.1827  0.0873 -0.1076
 4500DDP     C126995  21.615  24.770  25.777 -0.1734  0.0872  0.0560
 4500DDP     P126996  21.611  24.503  26.054  0.6130  0.0149 -0.0284
 4500DDP     P226997  21.301  24.782  25.562 -0.1032  0.0874 -0.2657
 4500DDP     C226998  21.038  24.374  25.459  0.0938  0.1807  0.0442
 4500DDP     C326999  21.765  24.214  26.383 -0.1770 -0.2844  0.1788
 4500DDP     C427000  21.847  25.204  25.855  0.1366  0.3565  0.1725
 4501DDP     C127001   8.026  20.734   9.113  0.0531 -0.2184 -0.0813
 4501DDP     P127002   7.905  20.925   9.489 -0.2945  0.2202 -0.0649
 4501DDP     P227003   8.534  20.830   9.049  0.0592 -0.0418 -0.2201
 4501DDP     C227004   8.881  21.011   8.963  0.1045  0.0820 -0.3276
 4501DDP     C327005   7.941  20.596   9.866 -0.0468  0.2172 -0.2165
 4501DDP     C427006   7.745  20.702   8.974  0.1112 -0.3381  0.1397
 4502DDP     C127007   0.458   5.075  23.308 -0.1314  0.1093  0.0900
 4502DDP     P127008   0.423   5.267  23.677  0.1980  0.0575 -0.0729
 4502DDP     P227009   0.808   4.879  23.198  0.1658 -0.1750 -0.1628
 4502DDP     C227010   0.982   4.693  22.810  0.1750  0.2878  0.1196
 4502DDP     C327011   0.446   5.547  24.101  0.1401  0.1328  0.1079
 4502DDP     C427012   0.189   5.153  23.085 -0.0604  0.0015  0.1843
 4503DDP     C127013  21.622  11.804  22.659  0.1341 -0.1839 -0.1878
 4503DDP     P127014  21.684  11.771  22.280 -0.0466 -0.0468 -0.1138
 4503DDP     P227015  21.956  11.673  22.810  0.1247 -0.3269 -0.3758
 4503DDP     C227016  22.127  11.473  23.060 -0.0393  0.0555 -0.2319
 4503DDP     C327017  21.626  11.692  21.774 -0.0378  0.0631  0.0050
 4503DDP     C427018  21.425  12.144  22.741  0.0901 -0.3587  0.2276
 4504DDP     C127019  23.258   5.122  28.154 -0.1362  0.1377  0.3223
 4504DDP     P127020  22.714   5.105  27.975 -0.0222 -0.1827  0.1752
 4504DDP     P227021  23.544   5.338  27.884  0.0997 -0.3775 -0.0226
 4504DDP     C227022  23.883   5.172  27.684  0.0722 -0.1164  0.2167
 4504DDP     C327023  22.436   5.317  27.655  0.3894 -0.2283  0.0439
 4504DDP     C427024  23.409   5.118  28.635  0.0740 -0.0578  0.3529
 4505DDP     C127025  11.096  17.376   4.063 -0.3760 -0.1116 -0.3930
 4505DDP     P127026  11.547  17.311   4.001  0.0404 -0.0916 -0.3303
 4505DDP     P227027  10.840  16.996   4.019 -0.1937  0.1317 -0.1827
 4505DDP     C227028  10.850  16.635   3.769 -0.1510  0.1887  0.1512
 4505DDP     C327029  11.910  17.481   4.257 -0.0959 -0.1332  0.1822
 4505DDP     C427030  11.023  17.893   4.104 -0.2158 -0.0806 -0.0706
 4506DDP     C127031   9.145   5.798  23.434 -0.1141 -0.1456 -0.2934
 4506DDP     P127032   9.133   6.253  23.549 -0.0753  0.0753  0.1155
 4506DDP     P227033   9.388   5.631  23.659 -0.3004  0.0952 -0.0591
 4506DDP     C227034   9.649   5.294  23.620  0.2746  0.2843 -0.3134
 4506DDP     C327035   9.333   6.687  23.758  0.1792 -0.1980  0.2505
 4506DDP     C427036   8.797   5.705  23.276 -0.0115 -0.1974 -0.3259
 4507DDP     C127037   7.385  21.814   8.361  0.0022  0.0345 -0.2356
 4507DDP     P127038   7.626  22.279   8.416 -0.5263  0.0360 -0.0325
 4507DDP     P227039   7.528  21.564   8.765  0.0196 -0.0274  0.0238
 4507DDP     C227040   7.692  21.239   8.942 -0.0260  0.1716 -0.3023
 4507DDP     C327041   7.563  22.634   8.081  0.1796  0.1473 -0.0559
 4507DDP     C427042   7.242  21.947   7.885  0.0753  0.0523 -0.0982
 4508DDP     C127043   3.347  28.279  14.302 -0.1025 -0.1226 -0.1701
 4508DDP     P127044   3.415  28.707  14.510 -0.2861 -0.4276 -0.0164
 4508DDP     P227045   2.937  28.026  14.090 -0.1996  0.1658 -0.1297
 4508DDP     C227046   2.878  27.643  13.818 -0.2839  0.1221  0.1704
 4508DDP     C327047   3.452  29.150  14.710 -0.0027  0.0411 -0.3166
 4508DDP     C427048   3.695  28.034  14.094 -0.0443 -0.1345  0.1419
 4509DDP     C127049  16.252   9.982   4.188  0.0965 -0.1275 -0.3159
 4509DDP     P127050  16.464   9.621   3.986  0.0744 -0.1360 -0.0159
 4509DDP     P227051  15.827   9.986   4.170 -0.0670  0.4341 -0.0869
 4509DDP     C227052  15.432  10.018   3.959  0.0592  0.0026  0.1789
 4509DDP     C327053  16.848   9.462   4.104 -0.4631 -0.0876 -0.2276
 4509DDP     C427054  16.432  10.261   4.327 -0.0749  0.2008  0.1691
 4510DDP     C127055  14.213  22.396  16.883 -0.1394  0.1854 -0.0008
 4510DDP     P127056  14.578  22.346  16.792 -0.2865 -0.1198 -0.1052
 4510DDP     P227057  14.081  22.817  17.087 -0.1975 -0.0691 -0.0737
 4510DDP     C227058  14.068  23.320  17.106  0.1944  0.1168  0.0252
 4510DDP     C327059  14.786  21.902  16.692 -0.0700 -0.0366 -0.1201
 4510DDP     C427060  14.097  22.093  17.154 -0.2205  0.0542  0.1192
 4511DDP     C127061  23.731  14.367   8.648  0.3847  0.0021 -0.3399
 4511DDP     P127062  23.794  14.704   8.346  0.3322  0.1558  0.0974
 4511DDP     P227063  24.044  14.148   8.817  0.1530 -0.2110  0.0957
 4511DDP     C227064  24.149  13.692   8.982  0.0057  0.4447 -0.0064
 4511DDP     C327065  23.996  14.777   7.928 -0.0361  0.0826 -0.1898
 4511DDP     C427066  23.222  14.273   8.747 -0.1111 -0.2233  0.1180
 4512DDP     C127067   0.347  19.066  17.839  0.2530 -0.1109 -0.3016
 4512DDP     P127068   0.358  19.587  17.560 -0.1740 -0.4709 -0.0653
 4512DDP     P227069   0.091  18.718  17.678  0.3799 -0.1555  0.3408
 4512DDP     C227070  30.269  18.363  17.513 -0.1994  0.0849 -0.0013
 4512DDP     C327071   0.396  19.693  17.089  0.2400 -0.2779  0.1427
 4512DDP     C427072   0.542  18.977  18.293  0.1887  0.1138  0.1613
 4513DDP     C127073   6.888  23.205  25.970  0.0485  0.0163 -0.1896
 4513DDP     P127074   6.910  23.643  26.000  0.0024 -0.2173  0.3122
 4513DDP     P227075   6.720  23.031  26.259  0.0472 -0.1012 -0.2783
 4513DDP     C227076   6.400  22.763  26.328  0.0438 -0.1169 -0.0076
 4513DDP     C327077   7.029  24.012  26.259 -0.1069  0.2121  0.1042
 4513DDP     C427078   6.935  23.062  25.522 -0.2183 -0.2279 -0.0922
 4514DDP     C127079  18.842  10.441  14.889  0.1122 -0.0998  0.2369
 4514DDP     P127080  18.978  10.017  14.828  0.0078 -0.0282  0.0572
 4514DDP     P227081  18.478  10.699  14.819 -0.1721 -0.1113  0.0829
 4514DDP     C227082  18.389  11.125  14.894  0.2261  0.0424  0.0319
 4514DDP     C327083  18.951   9.631  14.977 -0.1597  0.2684 -0.0320
 4514DDP     C427084  19.188  10.581  14.987 -0.0177  0.0616 -0.1378
 4515DDP     C127085  17.635   4.885  20.988 -0.2101 -0.0846 -0.1884
 4515DDP     P127086  18.026   4.813  21.265 -0.2209  0.0982  0.2169
 4515DDP     P227087  17.645   4.824  20.546  0.0632 -0.1879  0.1205
 4515DDP     C227088  17.698   4.412  20.514 -0.4023 -0.0351  0.1855
 4515DDP     C327089  18.294   4.963  21.584 -0.0807  0.0790 -0.1035
 4515DDP     C427090  17.211   4.892  21.192 -0.4341 -0.1772  0.2068
 4516DDP     C127091  15.549   5.041   0.934 -0.2330 -0.1329 -0.2621
 4516DDP     P127092  15.684   4.758   0.651 -0.0890 -0.3679 -0.0226
 4516DDP     P227093  15.843   5.295   1.158  0.0170  0.0116  0.2219
 4516DDP     C227094  15.879   5.578   1.480  0.1316  0.0592 -0.0617
 4516DDP     C327095  15.618   4.457   0.343  0.2177  0.3258 -0.0797
 4516DDP     C427096  15.183   4.909   1.087 -0.2181 -0.2985  0.2759
 4517DDP     C127097   3.837   7.262   4.226 -0.0512  0.0946  0.0194
 4517DDP     P127098   3.591   7.650   4.418 -0.0562  0.2294  0.2302
 4517DDP     P227099   4.218   7.014   4.328  0.1809 -0.1009 -0.3481
 4517DDP     C227100   4.699   7.022   4.520  0.0019 -0.0617  0.1338
 4517DDP     C327101   3.597   8.083   4.248 -0.1786 -0.3134 -0.1131
 4517DDP     C427102   3.660   7.230   3.779 -0.2811 -0.1695  0.0247
 4518DDP     C127103   4.992   6.823  14.011 -0.1140  0.1386 -0.0641
 4518DDP     P127104   4.835   6.860  14.402  0.1880  0.0610  0.2107
 4518DDP     P227105   5.044   6.488  13.799 -0.0570  0.0963  0.0812
 4518DDP     C227106   5.201   6.096  13.599 -0.1868  0.3431  0.1651
 4518DDP     C327107   4.948   7.167  14.662  0.1266 -0.0289  0.0447
 4518DDP     C427108   5.348   7.040  13.925  0.1611  0.2617  0.6573
 4519DDP     C127109   4.521  18.670  30.278 -0.0912  0.0438  0.1124
 4519DDP     P127110   4.879  18.747   0.171 -0.1755  0.1220 -0.2274
 4519DDP     P227111   4.166  18.341  -0.004  0.0251  0.1992  0.0270
 4519DDP     C227112   3.748  18.317   0.120 -0.3271  0.0034  0.2275
 4519DDP     C327113   5.351  18.487   0.226  0.0563  0.0994 -0.0093
 4519DDP     C427114   4.692  18.617  29.868  0.1133 -0.2627  0.0551
 4520DDP     C127115  18.631   4.304   2.620  0.0150  0.2024 -0.1312
 4520DDP     P127116  18.418   4.070   2.315 -0.5095  0.0471 -0.1086
 4520DDP     P227117  19.100   4.098   2.766 -0.3361  0.0979  0.1654
 4520DDP     C227118  19.147   3.604   2.703  0.0302  0.2474  0.1206
 4520DDP     C327119  18.504   4.218   1.951 -0.2196 -0.0210  0.2097
 4520DDP     C427120  18.374   4.646   2.781 -0.1363  0.0889  0.0023
 4521DDP     C127121  19.181  11.294   3.239  0.2246  0.1383  0.1297
 4521DDP     P127122  19.192  11.685   3.157  0.1521  0.1131  0.3151
 4521DDP     P227123  19.446  11.182   3.465 -0.0393  0.0374  0.0844
 4521DDP     C227124  19.833  10.872   3.334 -0.1298  0.0589  0.0704
 4521DDP     C327125  18.974  11.998   3.209  0.0471  0.0610  0.1131
 4521DDP     C427126  19.145  10.847   3.120 -0.0751  0.1957 -0.4372
 4522DDP     C127127  27.697  22.234   2.874 -0.2168 -0.0538  0.1605
 4522DDP     P127128  27.564  22.597   2.893 -0.1836  0.0323  0.2288
 4522DDP     P227129  27.429  21.919   3.156  0.3043  0.0431 -0.2932
 4522DDP     C227130  27.185  22.036   3.518  0.1014  0.1226  0.2195
 4522DDP     C327131  27.526  22.866   3.245 -0.0890 -0.0212 -0.0292
 4522DDP     C427132  28.029  22.030   2.520 -0.2112  0.5233 -0.0265
 4523DDP     C127133  16.221   0.697   2.559  0.3233  0.1990  0.0962
 4523DDP     P127134  16.064   1.074   2.618 -0.0942  0.1800  0.0739
 4523DDP     P227135  16.635   0.618   2.472 -0.2082  0.2077  0.1386
 4523DDP     C227136  16.905   0.292   2.452  0.1236 -0.0710  0.0190
 4523DDP     C327137  15.954   1.296   3.004  0.2843 -0.4072 -0.0420
 4523DDP     C427138  15.799   0.428   2.408 -0.1362  0.1468 -0.1622
 4524DDP     C127139  17.312  24.681   2.012 -0.0735  0.0321  0.1949
 4524DDP     P127140  17.075  25.045   2.165  0.1193  0.1901 -0.0740
 4524DDP     P227141  17.562  24.688   1.679 -0.0666 -0.1465  0.1011
 4524DDP     C227142  17.661  24.517   1.330  0.0699 -0.0941 -0.2185
 4524DDP     C327143  16.935  25.480   2.018  0.1501  0.1155  0.3143
 4524DDP     C427144  17.611  24.516   2.370  0.2639 -0.2064 -0.0238
 4525DDP     C127145   2.939  19.721   1.086 -0.1067 -0.0934  0.1865
 4525DDP     P127146   3.118  19.352   1.253 -0.1633  0.1410 -0.0193
 4525DDP     P227147   3.179  20.091   0.991 -0.0397 -0.0041 -0.1454
 4525DDP     C227148   3.471  20.387   1.090  0.1010 -0.0481  0.0166
 4525DDP     C327149   3.416  19.096   1.446 -0.0385 -0.4393  0.1844
 4525DDP     C427150   2.533  19.651   0.801  0.0366 -0.2140 -0.1507
 4526DDP     C127151   1.177  25.608   5.051  0.1041  0.2026  0.2659
 4526DDP     P127152   1.622  25.809   5.101 -0.0753 -0.0485  0.2374
 4526DDP     P227153   0.889  25.553   5.392 -0.2405  0.1448  0.2029
 4526DDP     C227154   0.511  25.762   5.333 -0.0187  0.2079 -0.1806
 4526DDP     C327155   1.889  26.146   4.822 -0.3158  0.2686  0.1136
 4526DDP     C427156   1.001  25.488   4.667  0.2629 -0.0365 -0.1260
 4527DDP     C127157  20.438  17.823  28.190 -0.0213  0.1424  0.2684
 4527DDP     P127158  20.844  18.090  28.268 -0.2940  0.2212  0.0614
 4527DDP     P227159  20.370  17.820  27.832  0.1223 -0.2051 -0.1182
 4527DDP     C227160  20.608  17.899  27.348 -0.0085 -0.1896 -0.1228
 4527DDP     C327161  20.995  18.339  28.543 -0.0352 -0.1719  0.0826
 4527DDP     C427162  20.353  17.383  28.437 -0.2760  0.2111  0.0350
 4528DDP     C127163   6.628  27.144  13.083  0.2342 -0.3098 -0.0904
 4528DDP     P127164   6.605  26.854  12.790  0.0736  0.4818  0.1733
 4528DDP     P227165   6.926  27.476  13.110  0.0527 -0.0814 -0.2170
 4528DDP     C227166   7.070  27.915  13.046 -0.2911 -0.0403 -0.1560
 4528DDP     C327167   6.719  26.425  12.548  0.2218 -0.1041  0.0687
 4528DDP     C427168   6.198  27.108  13.272  0.0825  0.0520  0.2973
 4529DDP     C127169  12.446  25.298   5.327 -0.0238  0.0190 -0.2623
 4529DDP     P127170  12.210  24.929   5.273  0.0865  0.2273 -0.2125
 4529DDP     P227171  12.690  25.249   5.683  0.0805  0.0534 -0.3146
 4529DDP     C227172  12.823  25.343   6.048  0.2981  0.3280 -0.0154
 4529DDP     C327173  11.739  24.871   5.228 -0.4017 -0.0663  0.1803
 4529DDP     C427174  12.244  25.686   5.286 -0.0120  0.2089 -0.1247
 4530DDP     C127175  22.625  24.422   4.446  0.1590  0.1563  0.1925
 4530DDP     P127176  22.701  24.333   4.781 -0.0664  0.3156 -0.0565
 4530DDP     P227177  22.226  24.486   4.216  0.0287  0.1216 -0.0376
 4530DDP     C227178  21.979  24.836   3.913  0.3022 -0.0334  0.3300
 4530DDP     C327179  22.636  23.967   5.059  0.0749  0.2230 -0.1117
 4530DDP     C427180  22.956  24.341   4.309  0.1712  0.0252 -0.1017
 4531DDP     C127181   8.966  17.213   1.606 -0.2158 -0.0528 -0.1599
 4531DDP     P127182   9.178  17.319   1.163  0.1050  0.0440 -0.2172
 4531DDP     P227183   8.607  17.423   1.711  0.1882  0.0725 -0.3229
 4531DDP     C227184   8.493  17.785   1.390  0.1568  0.1744  0.1337
 4531DDP     C327185   9.466  16.997   1.015  0.1103  0.1356  0.3483
 4531DDP     C427186   9.308  17.083   1.892  0.0511 -0.1694  0.0155
 4532DDP     C127187  16.197  12.317  14.069 -0.0820 -0.1228  0.3715
 4532DDP     P127188  16.168  12.560  14.365  0.0406  0.0199  0.2873
 4532DDP     P227189  16.370  12.390  13.661  0.1204 -0.0028  0.2429
 4532DDP     C227190  16.701  12.508  13.399  0.0308  0.2817  0.0544
 4532DDP     C327191  16.597  12.489  14.616  0.0321 -0.3376 -0.1198
 4532DDP     C427192  15.836  12.127  14.001 -0.0347  0.2584 -0.1263
 4533DDP     C127193   0.217  24.389   4.996  0.1311  0.1922 -0.1072
 4533DDP     P127194   0.479  24.545   4.676  0.1406 -0.2485  0.0681
 4533DDP     P227195   0.286  24.513   5.327 -0.2047 -0.0166  0.1303
 4533DDP     C227196   0.673  24.657   5.479 -0.2519 -0.1440 -0.1656
 4533DDP     C327197   0.846  24.638   4.361 -0.2952 -0.2260  0.2670
 4533DDP     C427198  30.176  24.144   4.894  0.1351  0.0964  0.0079
 4534DDP     C127199  13.719  21.901  24.341  0.1823  0.1251 -0.2815
 4534DDP     P127200  13.455  21.675  24.377 -0.1114  0.1297  0.0678
 4534DDP     P227201  13.744  22.274  24.423 -0.1690  0.2571  0.0092
 4534DDP     C227202  13.878  22.668  24.476  0.0461  0.1740 -0.1522
 4534DDP     C327203  13.195  21.308  24.447  0.1313  0.1194  0.0488
 4534DDP     C427204  13.907  21.664  24.130  0.0579  0.3355 -0.0077
 4535DDP     C127205  27.368  27.079  18.411 -0.2261 -0.0377  0.3710
 4535DDP     P127206  27.375  26.908  18.789  0.1092 -0.3174 -0.0894
 4535DDP     P227207  27.475  27.435  18.440  0.0694 -0.0666  0.1295
 4535DDP     C227208  27.324  27.875  18.410 -0.0408 -0.0266  0.0441
 4535DDP     C327209  27.816  26.901  18.771  0.0793 -0.0250 -0.0960
 4535DDP     C427210  27.198  26.959  17.958  0.0220 -0.1387  0.2590
 4536DDP     C127211  13.505   5.460  12.994  0.0122 -0.0611  0.1109
 4536DDP     P127212  13.976   5.558  13.004 -0.1519 -0.1057  0.2015
 4536DDP     P227213  13.142   5.782  13.142 -0.1927  0.2940 -0.0269
 4536DDP     C227214  12.712   5.635  13.169 -0.0378 -0.4862 -0.0711
 4536DDP     C327215  14.106   6.020  12.967 -0.1008  0.0626  0.2052
 4536DDP     C427216  13.421   4.937  12.915 -0.5729  0.2231 -0.2021
 4537DDP     C127217   7.015   9.701  25.921 -0.0292 -0.0200  0.0714
 4537DDP     P127218   7.238  10.026  25.690 -0.1552 -0.0728 -0.0949
 4537DDP     P227219   6.580   9.685  25.799 -0.0997 -0.0410  0.0965
 4537DDP     C227220   6.410  10.084  25.601 -0.1176 -0.2094  0.0684
 4537DDP     C327221   7.086  10.450  25.659  0.2494  0.0432  0.1555
 4537DDP     C427222   7.012   9.897  26.291 -0.1699  0.1300 -0.1051
 4538DDP     C127223   9.897   5.781   6.060  0.1467  0.1571  0.1335
 4538DDP     P127224  10.215   5.353   6.136  0.4073 -0.1500 -0.1898
 4538DDP     P227225   9.913   5.903   5.610 -0.1364 -0.1053  0.0314
 4538DDP     C227226  10.158   5.733   5.194 -0.2410  0.4445 -0.2037
 4538DDP     C327227  10.517   5.389   6.268 -0.1010 -0.2069 -0.3439
 4538DDP     C427228   9.649   6.054   6.320 -0.0551 -0.2341  0.0293
 4539DDP     C127229   0.844   8.902  21.859 -0.0165 -0.0141 -0.0551
 4539DDP     P127230   1.029   9.272  22.050  0.0908 -0.0194 -0.0210
 4539DDP     P227231   0.638   8.906  21.433 -0.1765  0.1553 -0.1214
 4539DDP     C227232   0.819   8.934  21.040  0.0109  0.1356  0.3055
 4539DDP     C327233   1.088   9.690  22.074 -0.0548  0.1997  0.0886
 4539DDP     C427234   1.012   8.468  21.910  0.0815 -0.1908  0.0064
 4540DDP     C127235   6.383  13.778  28.676 -0.2314  0.4024  0.0607
 4540DDP     P127236   6.049  13.680  28.396  0.3370  0.2364 -0.3771
 4540DDP     P227237   6.722  13.375  28.778 -0.2478 -0.2090 -0.1297
 4540DDP     C227238   7.109  13.317  28.840  0.3389 -0.0294  0.1569
 4540DDP     C327239   5.941  14.027  28.173  0.2210 -0.0393  0.1076
 4540DDP     C427240   6.538  14.232  28.809 -0.0424  0.1496  0.1411
 4541DDP     C127241  19.580  24.572  24.786 -0.2207 -0.2177  0.3804
 4541DDP     P127242  19.225  24.858  24.867 -0.0721  0.2041  0.1851
 4541DDP     P227243  19.687  24.417  24.509 -0.0569 -0.1741 -0.0636
 4541DDP     C227244  19.413  24.283  24.109 -0.1535  0.0704  0.1894
 4541DDP     C327245  19.137  25.234  25.079 -0.6866  0.0606 -0.1378
 4541DDP     C427246  19.763  24.355  25.118 -0.0305 -0.0197  0.0394
 4542DDP     C127247  10.482   5.976   5.843  0.1224 -0.1405  0.1951
 4542DDP     P127248  10.184   6.214   5.992 -0.1138  0.1501  0.4494
 4542DDP     P227249  10.444   6.035   5.466 -0.0592 -0.0358 -0.1033
 4542DDP     C227250  10.076   6.243   5.229 -0.4152  0.1269 -0.1283
 4542DDP     C327251   9.913   6.552   6.082  0.1131  0.0489  0.0371
 4542DDP     C427252  10.731   5.670   5.932 -0.1448  0.3747  0.0172
 4543DDP     C127253   8.697   3.016  27.995  0.2515  0.4086  0.0328
 4543DDP     P127254   8.290   2.999  28.152 -0.3165 -0.2732  0.1773
 4543DDP     P227255   8.991   3.410  27.968  0.0624  0.0677 -0.2244
 4543DDP     C227256   9.410   3.412  27.973 -0.4571 -0.3090  0.1777
 4543DDP     C327257   7.993   3.318  28.384 -0.2334 -0.0175 -0.3075
 4543DDP     C427258   8.723   2.738  27.717  0.0644 -0.1237 -0.2351
 4544DDP     C127259  14.965  12.871   9.158 -0.0618 -0.0630 -0.0855
 4544DDP     P127260  15.310  12.508   9.271 -0.0330  0.0537  0.1754
 4544DDP     P227261  14.617  12.560   9.316  0.3614  0.0671  0.1751
 4544DDP     C227262  14.260  12.273   9.190 -0.2973 -0.0469  0.1269
 4544DDP     C327263  15.760  12.486   9.320  0.3401 -0.0201  0.0998
 4544DDP     C427264  15.108  13.322   9.070  0.0173  0.3010  0.0058
 4545DDP     C127265  16.157  18.679  24.092  0.0984  0.2753 -0.2862
 4545DDP     P127266  16.238  19.080  24.288  0.0481 -0.2226  0.2628
 4545DDP     P227267  15.788  18.328  24.217  0.0949  0.0323  0.2240
 4545DDP     C227268  15.412  18.166  24.044  0.0584 -0.3232 -0.1631
 4545DDP     C327269  16.320  19.199  24.714 -0.1302  0.1717  0.1006
 4545DDP     C427270  16.438  18.375  23.843  0.2106  0.1737 -0.2283
 4546DDP     C127271  27.296   7.349   1.268 -0.0295  0.0342 -0.1965
 4546DDP     P127272  26.873   7.470   1.231  0.0059  0.1895 -0.1004
 4546DDP     P227273  27.639   7.431   1.589 -0.0151  0.0883 -0.4606
 4546DDP     C227274  28.109   7.390   1.662 -0.1533 -0.0187 -0.3485
 4546DDP     C327275  26.436   7.442   1.398  0.2020  0.0517  0.2716
 4546DDP     C427276  27.524   7.014   0.959 -0.1803  0.2792 -0.3048
 4547DDP     C127277   5.295   7.973  26.165  0.0203 -0.0216 -0.0168
 4547DDP     P127278   5.569   8.066  26.481 -0.0924  0.1592 -0.1572
 4547DDP     P227279   5.463   7.843  25.779  0.4101  0.0952 -0.0301
 4547DDP     C227280   5.753   7.713  25.503 -0.0212  0.5469 -0.1296
 4547DDP     C327281   5.760   8.236  26.952 -0.1618 -0.2992  0.1471
 4547DDP     C427282   4.907   7.926  26.103 -0.2639 -0.0446  0.0859
 4548DDP     C127283  20.678  22.052  11.138 -0.3115 -0.1307 -0.2018
 4548DDP     P127284  20.768  21.617  11.229  0.0699  0.1389  0.1432
 4548DDP     P227285  20.756  22.396  11.345  0.1407  0.1505  0.0956
 4548DDP     C227286  20.935  22.680  11.600  0.1647 -0.0506 -0.0218
 4548DDP     C327287  20.563  21.291  11.433  0.0651 -0.1095 -0.2603
 4548DDP     C427288  20.536  22.201  10.691  0.2472  0.2196  0.1585
 4549DDP     C127289  15.334   7.670   6.693 -0.1191 -0.2359  0.0478
 4549DDP     P127290  14.929   7.719   6.491 -0.1958  0.1030  0.0102
 4549DDP     P227291  15.449   7.373   6.551 -0.1158  0.1544  0.1140
 4549DDP     C227292  15.691   6.975   6.515  0.3607 -0.0827  0.2518
 4549DDP     C327293  14.698   7.667   6.115 -0.3031 -0.3881 -0.0490
 4549DDP     C427294  15.565   7.940   7.022 -0.0441 -0.0117 -0.2206
 4550DDP     C127295  13.196  21.713   5.928 -0.1406  0.0015 -0.2307
 4550DDP     P127296  13.636  21.729   5.783 -0.1045 -0.3267 -0.2272
 4550DDP     P227297  12.800  21.959   5.893 -0.1534  0.0171  0.2250
 4550DDP     C227298  12.442  22.087   6.221 -0.3330  0.1146 -0.1379
 4550DDP     C327299  13.904  21.531   5.468 -0.1774  0.0819  0.0826
 4550DDP     C427300  13.029  21.426   6.122  0.0214 -0.0413 -0.3736
 4551DDP     C127301  16.732  28.753  26.792 -0.1050  0.2244 -0.0017
 4551DDP     P127302  16.319  28.531  26.688  0.0777 -0.1942  0.0811
 4551DDP     P227303  16.970  28.524  27.018  0.1468  0.1506 -0.0199
 4551DDP     C227304  17.203  28.466  27.365  0.2447  0.2303  0.1511
 4551DDP     C327305  15.908  28.469  26.455 -0.0381 -0.1191  0.0063
 4551DDP     C427306  16.897  29.015  26.472 -0.1611 -0.2217  0.0570
 4552DDP     C127307  29.382   6.564  18.848 -0.0110 -0.0600 -0.0223
 4552DDP     P127308  28.990   6.724  18.892  0.0144 -0.1477 -0.1607
 4552DDP     P227309  29.633   6.186  18.993 -0.0510  0.0973 -0.3264
 4552DDP     C227310  30.034   5.914  18.937  0.1424  0.2518 -0.5455
 4552DDP     C327311  28.692   7.068  19.102  0.1528 -0.0546  0.2229
 4552DDP     C427312  29.654   6.885  18.649  0.0233 -0.3223  0.2778
 4553DDP     C127313   1.842   5.635  23.584  0.0968  0.1168 -0.2926
 4553DDP     P127314   2.210   5.647  23.804 -0.2791  0.1021  0.0552
 4553DDP     P227315   1.562   5.362  23.256 -0.2518 -0.3962  0.2552
 4553DDP     C227316   1.756   5.430  22.785  0.1905 -0.2361  0.5129
 4553DDP     C327317   2.481   5.863  24.093  0.0463  0.2311  0.1763
 4553DDP     C427318   1.696   6.048  23.487 -0.4049 -0.0537  0.0406
 4554DDP     C127319  29.138   9.556  24.962  0.0241 -0.3351  0.1322
 4554DDP     P127320  29.529   9.843  25.023 -0.1064  0.1323  0.1148
 4554DDP     P227321  29.022   9.403  25.395 -0.0126  0.1184  0.0347
 4554DDP     C227322  29.297   9.275  25.651  0.2702 -0.0916 -0.1907
 4554DDP     C327323  29.599  10.281  25.190  0.1387  0.3764  0.0805
 4554DDP     C427324  29.055   9.394  24.567 -0.2613  0.0251  0.0103
 4555DDP     C127325   1.423  21.555  12.709 -0.0371  0.0551  0.0432
 4555DDP     P127326   1.819  21.778  12.818 -0.0784 -0.1575 -0.1521
 4555DDP     P227327   1.560  21.160  12.773 -0.0271 -0.1891 -0.1308
 4555DDP     C227328   1.697  20.838  12.937 -0.1264 -0.3873 -0.1410
 4555DDP     C327329   1.954  21.926  13.226 -0.0862 -0.0252 -0.0890
 4555DDP     C427330   1.039  21.732  12.515 -0.1235 -0.0006 -0.0582
 4556DDP     C127331  17.001  17.152  27.588 -0.3159 -0.0210  0.0721
 4556DDP     P127332  16.718  17.046  27.988  0.0364  0.1539 -0.1568
 4556DDP     P227333  16.761  17.293  27.097 -0.0530 -0.1834 -0.2161
 4556DDP     C227334  16.957  17.338  26.690  0.1138  0.0266  0.3522
 4556DDP     C327335  16.324  17.015  28.015  0.0188  0.1565  0.0991
 4556DDP     C427336  17.443  17.235  27.660 -0.0223 -0.2026  0.2099
 4557DDP     C127337  13.874  29.812  15.357  0.1502 -0.2483 -0.2570
 4557DDP     P127338  13.977  30.101  15.075 -0.2403  0.2602 -0.1855
 4557DDP     P227339  14.071  29.772  15.685 -0.2913  0.1475 -0.0099
 4557DDP     C227340  14.550  29.606  15.715  0.1011  0.0986 -0.0522
 4557DDP     C327341  14.337  30.208  14.739 -0.1578 -0.1467  0.0114
 4557DDP     C427342  13.749  29.380  15.195 -0.0809  0.0982  0.1465
 4558DDP     C127343   1.254  13.901   1.273  0.1650 -0.0161  0.0017
 4558DDP     P127344   0.814  13.887   1.504  0.1128  0.0195 -0.1903
 4558DDP     P227345   1.479  14.257   1.372  0.1308  0.0891  0.0220
 4558DDP     C227346   1.748  14.557   1.553  0.1275  0.0983  0.1447
 4558DDP     C327347   0.543  13.572   1.733  0.0893 -0.1818  0.0618
 4558DDP     C427348   1.343  13.506   0.929  0.1925  0.1073 -0.2759
 4559DDP     C127349  26.215  25.546   8.328  0.1156 -0.1580  0.1073
 4559DDP     P127350  26.466  25.208   8.529  0.0468  0.0389  0.0927
 4559DDP     P227351  25.811  25.376   8.229  0.1278 -0.2799 -0.2987
 4559DDP     C227352  25.536  25.152   7.906  0.1248 -0.1838  0.0545
 4559DDP     C327353  26.941  25.128   8.497  0.2042 -0.1139  0.0213
 4559DDP     C427354  26.383  26.048   8.250  0.1915  0.1541 -0.0616
 4560DDP     C127355  22.775   1.737  22.266  0.3547 -0.1211 -0.0423
 4560DDP     P127356  22.596   1.436  22.518  0.0747 -0.2743  0.1211
 4560DDP     P227357  22.817   2.183  22.424 -0.0986  0.0427 -0.1980
 4560DDP     C227358  22.898   2.491  22.179 -0.0529 -0.1698  0.0936
 4560DDP     C327359  22.277   1.152  22.428 -0.0514 -0.0884  0.3203
 4560DDP     C427360  22.774   1.575  21.894  0.1945 -0.1361  0.1039
 4561DDP     C127361  15.083   1.583   3.063 -0.2571  0.1414  0.1127
 4561DDP     P127362  15.300   1.416   3.511  0.0107  0.0838  0.0228
 4561DDP     P227363  14.693   1.300   2.958  0.0781 -0.0300  0.0378
 4561DDP     C227364  14.498   0.930   3.136 -0.2933  0.2446 -0.1615
 4561DDP     C327365  15.564   1.396   3.874 -0.0697  0.1074  0.1827
 4561DDP     C427366  15.072   2.111   2.955 -0.2037 -0.0375  0.1553
 4562DDP     C127367   7.496  14.854  18.953  0.0653 -0.0364  0.0392
 4562DDP     P127368   7.229  14.955  18.625  0.0611  0.0745 -0.0693
 4562DDP     P227369   7.404  14.653  19.366  0.1313  0.2477  0.1580
 4562DDP     C227370   7.655  14.598  19.760  0.2632  0.0578  0.0891
 4562DDP     C327371   6.941  15.116  18.585 -0.4984  0.3017 -0.0890
 4562DDP     C427372   7.949  14.936  18.959 -0.0679 -0.0376 -0.0995
 4563DDP     C127373  14.680  21.965  21.692  0.2452  0.3438 -0.0226
 4563DDP     P127374  14.891  21.677  21.944  0.0026 -0.0671 -0.0969
 4563DDP     P227375  14.781  22.489  21.617 -0.2816  0.4613 -0.3821
 4563DDP     C227376  15.160  22.649  21.503  0.0586 -0.0210  0.1248
 4563DDP     C327377  15.036  21.216  21.833  0.2674  0.1531  0.1008
 4563DDP     C427378  14.126  22.026  21.596  0.0998 -0.3160  0.2225
 4564DDP     C127379  24.504  13.950   0.361 -0.1258 -0.1700  0.0702
 4564DDP     P127380  24.733  14.397   0.211 -0.0006  0.2843 -0.0472
 4564DDP     P227381  24.671  13.771   0.657  0.2171 -0.4120 -0.3151
 4564DDP     C227382  24.920  13.381   0.662  0.0099  0.0297  0.2769
 4564DDP     C327383  24.488  14.701  30.278 -0.2770 -0.0145 -0.0257
 4564DDP     C427384  24.050  13.901   0.503  0.1290 -0.2209  0.0500
 4565DDP     C127385  29.214  11.574  10.390  0.2389  0.0049  0.1483
 4565DDP     P127386  29.135  11.392  10.820  0.2077 -0.1866 -0.0402
 4565DDP     P227387  29.345  11.990  10.422  0.0290  0.0346 -0.0517
 4565DDP     C227388  29.772  12.164  10.424  0.3913  0.1656 -0.1729
 4565DDP     C327389  28.784  11.601  10.996 -0.1512  0.0094 -0.2873
 4565DDP     C427390  29.329  11.380   9.981  0.1380 -0.3375  0.0485
 4566DDP     C127391   8.198   3.030   5.750 -0.0241 -0.1123  0.0392
 4566DDP     P127392   7.729   3.156   5.925 -0.2176 -0.0693  0.0136
 4566DDP     P227393   8.542   2.883   5.922  0.1511 -0.0064  0.0460
 4566DDP     C227394   8.877   3.008   6.210  0.3459  0.2275 -0.0286
 4566DDP     C327395   7.291   3.184   5.881  0.0511 -0.4186 -0.0421
 4566DDP     C427396   8.290   2.891   5.394 -0.0984  0.1160  0.1783
 4567DDP     C127397  17.466   3.024  27.530  0.0119  0.4077 -0.1777
 4567DDP     P127398  17.284   2.929  27.907 -0.1323  0.1896  0.1413
 4567DDP     P227399  17.241   2.984  27.146 -0.1496 -0.1522 -0.0209
 4567DDP     C227400  17.310   2.866  26.842  0.1267 -0.2316  0.0982
 4567DDP     C327401  17.475   2.894  28.299  0.0842 -0.0234 -0.1872
 4567DDP     C427402  17.916   3.090  27.533  0.3531  0.0368  0.1472
 4568DDP     C127403  26.094  15.957   7.868  0.0547 -0.3758  0.0040
 4568DDP     P127404  26.157  15.790   8.234  0.0714  0.4639 -0.0965
 4568DDP     P227405  26.491  16.127   7.657  0.1405  0.1131 -0.0385
 4568DDP     C227406  26.904  16.021   7.533  0.1639  0.1659  0.0611
 4568DDP     C327407  26.134  15.348   8.352  0.3511 -0.1005  0.2503
 4568DDP     C427408  25.777  15.996   7.619 -0.0400  0.2328  0.3090
 4569DDP     C127409   1.098   5.870   8.838 -0.0737  0.0669  0.1899
 4569DDP     P127410   0.902   5.685   9.111  0.1868  0.3670 -0.2376
 4569DDP     P227411   1.396   5.767   8.477 -0.0904  0.2591  0.1868
 4569DDP     C227412   1.609   5.444   8.190  0.3050  0.1352  0.0887
 4569DDP     C327413   0.644   5.490   9.485  0.0644 -0.0721 -0.0697
 4569DDP     C427414   0.972   6.294   8.891 -0.0127 -0.1121  0.0664
 4570DDP     C127415  20.117   7.231  27.253  0.0493  0.2114 -0.1264
 4570DDP     P127416  20.406   7.510  27.397  0.0651  0.0506 -0.0590
 4570DDP     P227417  19.714   7.478  27.468  0.0983 -0.0272 -0.0392
 4570DDP     C227418  19.498   7.588  27.888 -0.0531  0.0235  0.3418
 4570DDP     C327419  20.604   7.846  27.257  0.0473  0.1056  0.0530
 4570DDP     C427420  20.008   7.025  26.839  0.0405 -0.2876  0.1118
 4571DDP     C127421   7.218   6.239  11.848 -0.1850  0.0281 -0.0450
 4571DDP     P127422   7.414   5.972  12.190 -0.0873  0.3770 -0.4082
 4571DDP     P227423   6.993   6.595  12.026  0.1451 -0.1417  0.0212
 4571DDP     C227424   6.974   7.118  12.006 -0.0049  0.2029 -0.0740
 4571DDP     C327425   7.276   5.569  12.422 -0.0433  0.1476 -0.1445
 4571DDP     C427426   7.318   6.173  11.401 -0.3820 -0.1361 -0.0060
 4572DDP     C127427  26.598  18.481   7.766  0.2781  0.1157  0.0201
 4572DDP     P127428  26.089  18.478   7.782  0.0723  0.1164 -0.1911
 4572DDP     P227429  26.707  18.054   8.000 -0.2973  0.0751 -0.2026
 4572DDP     C227430  26.700  17.688   8.344  0.0255  0.1489 -0.0292
 4572DDP     C327431  25.797  18.531   7.508 -0.1218  0.0557  0.3508
 4572DDP     C427432  26.844  18.817   7.604  0.2546 -0.0154 -0.1700
 4573DDP     C127433  20.497   7.553  11.952  0.1176  0.1092 -0.0518
 4573DDP     P127434  20.712   7.625  11.659 -0.2042  0.0486  0.1961
 4573DDP     P227435  20.311   7.273  12.008 -0.3196 -0.0827 -0.1803
 4573DDP     C227436  20.120   6.931  11.812  0.1994 -0.2227  0.0825
 4573DDP     C327437  21.041   7.382  11.403 -0.0799 -0.1898 -0.0994
 4573DDP     C427438  20.835   7.800  12.245 -0.2022  0.2432 -0.1047
 4574DDP     C127439  19.838   1.148   9.273  0.0943  0.6271 -0.0115
 4574DDP     P127440  19.983   1.410   8.843 -0.4053 -0.0244 -0.1397
 4574DDP     P227441  19.482   1.212   9.246  0.1549  0.1307  0.1390
 4574DDP     C227442  19.040   1.206   9.410 -0.0785 -0.2367 -0.1896
 4574DDP     C327443  20.087   1.810   8.751 -0.0708  0.3262  0.2808
 4574DDP     C427444  20.091   0.955   9.563 -0.0966  0.1728  0.1520
 4575DDP     C127445   8.709  23.490   3.865 -0.0547  0.0067 -0.3834
 4575DDP     P127446   9.118  23.696   3.967  0.0481  0.0362 -0.1248
 4575DDP     P227447   8.370  23.719   4.066 -0.0710 -0.1476 -0.0045
 4575DDP     C227448   7.866  23.738   3.974  0.0198 -0.0450 -0.0918
 4575DDP     C327449   9.471  23.509   3.992  0.0179  0.1343  0.1357
 4575DDP     C427450   8.704  23.440   3.401  0.2408 -0.2220 -0.0158
 4576DDP     C127451  24.350   8.567  24.974  0.1984 -0.1202 -0.2207
 4576DDP     P127452  24.709   8.750  24.740  0.0096 -0.0071  0.0510
 4576DDP     P227453  24.260   8.056  24.936 -0.1115 -0.0144  0.2878
 4576DDP     C227454  23.959   7.795  24.910  0.0409  0.1286  0.0266
 4576DDP     C327455  24.850   8.580  24.280  0.0089  0.1093 -0.2195
 4576DDP     C427456  24.097   8.632  25.268 -0.1173 -0.0936 -0.1226
 4577DDP     C127457   1.428  20.962  24.934  0.2591  0.1400  0.2227
 4577DDP     P127458   1.269  21.090  24.600 -0.5508  0.1480  0.2268
 4577DDP     P227459   1.108  20.724  25.098 -0.0551 -0.2726 -0.2036
 4577DDP     C227460   0.825  20.357  25.254  0.0277  0.0127  0.1327
 4577DDP     C327461   1.226  21.309  24.223  0.1864  0.0165 -0.0600
 4577DDP     C427462   1.695  21.005  25.198  0.0189  0.0481 -0.0732
 4578DDP     C127463   9.177  26.945   2.744 -0.0648 -0.0601 -0.1349
 4578DDP     P127464   9.130  26.468   2.661  0.2463  0.1861 -0.5692
 4578DDP     P227465   8.939  27.227   3.129 -0.2866  0.2390 -0.0740
 4578DDP     C227466   8.944  27.079   3.523 -0.0404 -0.1563 -0.1181
 4578DDP     C327467   9.394  26.029   2.486  0.2516 -0.1939 -0.0574
 4578DDP     C427468   9.399  27.293   2.491 -0.2162  0.0848  0.0067
 4579DDP     C127469   0.608  11.049  24.503  0.0744 -0.1751  0.0437
 4579DDP     P127470   1.015  11.218  24.461  0.0737 -0.0746 -0.2468
 4579DDP     P227471   0.396  10.909  24.176 -0.0041  0.1419  0.1635
 4579DDP     C227472   0.158  11.194  23.887  0.2542 -0.1549 -0.0192
 4579DDP     C327473   1.230  11.422  24.118 -0.2232  0.0755 -0.3561
 4579DDP     C427474   0.419  11.112  24.854  0.0443 -0.4731  0.1097
 4580DDP     C127475   8.388  13.018  30.119 -0.2126  0.2849 -0.0129
 4580DDP     P127476   7.968  12.941  29.983  0.0111  0.0518  0.0872
 4580DDP     P227477   8.772  13.124  29.819 -0.3018 -0.0401 -0.0863
 4580DDP     C227478   8.872  13.238  29.385 -0.0927 -0.1246 -0.2652
 4580DDP     C327479   7.609  12.782  30.048 -0.1547  0.3656 -0.0094
 4580DDP     C427480   8.512  12.875   0.237  0.0870  0.0644 -0.1530
 4581DDP     C127481  14.941   6.430  14.537 -0.0217 -0.1914  0.0290
 4581DDP     P127482  15.300   6.655  14.535 -0.1233 -0.1412  0.1743
 4581DDP     P227483  14.942   5.962  14.341 -0.0783  0.2380  0.1427
 4581DDP     C227484  14.836   5.699  14.048 -0.3209  0.0251 -0.1075
 4581DDP     C327485  15.227   6.921  14.855  0.6940 -0.2225  0.1790
 4581DDP     C427486  14.496   6.501  14.630 -0.1247  0.0822 -0.1101
 4582DDP     C127487   1.114  10.460  25.668 -0.2422  0.0465 -0.1564
 4582DDP     P127488   1.035  10.874  25.725  0.0034  0.0079 -0.1907
 4582DDP     P227489   1.009  10.239  26.003  0.1538  0.2111  0.0338
 4582DDP     C227490   0.629  10.232  26.402  0.2197  0.0911  0.0190
 4582DDP     C327491   1.241  11.217  26.003  0.1495 -0.1447  0.2915
 4582DDP     C427492   1.372  10.440  25.249 -0.1987  0.1918 -0.1251
 4583DDP     C127493  10.050   8.728  14.862 -0.1295 -0.3235  0.0191
 4583DDP     P127494   9.690   8.716  14.621 -0.0030  0.0908 -0.2091
 4583DDP     P227495  10.029   9.032  15.232  0.0453 -0.1344  0.2325
 4583DDP     C227496   9.629   9.237  15.463  0.2783  0.1168 -0.0610
 4583DDP     C327497   9.321   8.559  14.451  0.2444  0.0387 -0.0030
 4583DDP     C427498  10.394   8.475  14.897  0.2553  0.0904 -0.0467
 4584DDP     C127499  29.891   9.921  22.739  0.4064  0.1452 -0.3026
 4584DDP     P127500  30.131   9.608  22.763  0.2844 -0.0612  0.2845
 4584DDP     P227501  29.673  10.295  22.941 -0.0459  0.1607  0.2409
 4584DDP     C227502  29.498  10.377  23.374 -0.0985 -0.1089  0.2943
 4584DDP     C327503  30.262   9.204  22.999 -0.3339  0.1493 -0.1649
 4584DDP     C427504  29.729  10.145  22.375  0.0604  0.1010  0.0104
 4585DDP     C127505  28.160   6.421  20.713  0.0587 -0.0003  0.0297
 4585DDP     P127506  28.552   6.479  21.000  0.0264  0.2772  0.0001
 4585DDP     P227507  28.206   6.254  20.309  0.1014  0.1169  0.3561
 4585DDP     C227508  28.248   6.292  19.875 -0.2917  0.2637  0.1669
 4585DDP     C327509  28.924   6.383  21.274  0.3573 -0.1620 -0.0101
 4585DDP     C427510  27.746   6.631  20.923 -0.1092 -0.1253  0.3838
 4586DDP     C127511   7.829   1.431  28.915 -0.1227 -0.2342  0.0665
 4586DDP     P127512   7.510   1.482  28.699 -0.1257  0.0693  0.0987
 4586DDP     P227513   7.618   1.344  29.261 -0.1592  0.0897 -0.0022
 4586DDP     C227514   7.561   0.922  29.432 -0.2464 -0.5464  0.1227
 4586DDP     C327515   7.416   1.495  28.245  0.0404 -0.1259 -0.1203
 4586DDP     C427516   8.257   1.516  28.797 -0.2205 -0.4982  0.3039
 4587DDP     C127517  10.641   9.410  13.179  0.3425 -0.1571  0.2402
 4587DDP     P127518  10.839   8.969  13.290  0.1102  0.0365  0.2272
 4587DDP     P227519  10.930   9.777  12.940  0.0103 -0.0457 -0.0167
 4587DDP     C227520  10.681  10.160  12.749 -0.1086 -0.0258  0.3820
 4587DDP     C327521  10.661   8.686  13.569 -0.0892 -0.4434  0.0909
 4587DDP     C427522  10.307   9.447  13.376 -0.2405  0.2251 -0.1099
 4588DDP     C127523   4.647  22.596  29.787 -0.0921  0.2369 -0.2340
 4588DDP     P127524   4.459  22.270  29.775 -0.2610  0.2731 -0.0228
 4588DDP     P227525   4.908  22.738  30.104 -0.1107  0.1017  0.1010
 4588DDP     C227526   4.582  22.855   0.162 -0.1581 -0.3460 -0.1196
 4588DDP     C327527   4.239  22.022  30.005  0.2495  0.1894 -0.3987
 4588DDP     C427528   4.715  22.939  29.441  0.1552  0.0643  0.1896
 4589DDP     C127529   9.745  24.173   1.847 -0.2087  0.1566 -0.3567
 4589DDP     P127530   9.305  23.999   1.793  0.2896  0.0833  0.3364
 4589DDP     P227531   9.798  24.245   2.320  0.1031 -0.1188 -0.1834
 4589DDP     C227532   9.752  24.453   2.690  0.0732 -0.1936  0.0974
 4589DDP     C327533   9.068  23.644   1.789  0.2153 -0.0715  0.0203
 4589DDP     C427534   9.971  24.159   1.300 -0.2098 -0.0656  0.0248
 4590DDP     C127535  17.487   3.385  10.945  0.1208 -0.4586 -0.0896
 4590DDP     P127536  17.032   3.394  10.889 -0.1572  0.1012  0.5053
 4590DDP     P227537  17.689   3.177  10.697  0.0061 -0.0479 -0.0086
 4590DDP     C227538  17.756   2.763  10.631  0.0449 -0.0295  0.1912
 4590DDP     C327539  16.629   3.666  10.703  0.1322 -0.0477 -0.0560
 4590DDP     C427540  17.757   3.658  11.192 -0.0710  0.3123 -0.1105
 4591DDP     C127541  15.873   9.741   7.778 -0.3748 -0.1870  0.0188
 4591DDP     P127542  15.584   9.867   8.005 -0.0896 -0.0090 -0.1264
 4591DDP     P227543  16.237   9.994   7.754 -0.3408  0.0764 -0.1176
 4591DDP     C227544  16.663  10.064   7.789  0.1211 -0.0057  0.2823
 4591DDP     C327545  15.172   9.861   8.245 -0.0255 -0.0461  0.0462
 4591DDP     C427546  15.960   9.362   7.554  0.1039 -0.3088 -0.1655
 4592DDP     C127547  27.309   6.628  14.570 -0.4378 -0.2929  0.0688
 4592DDP     P127548  27.113   6.464  14.968  0.1861  0.3530  0.1981
 4592DDP     P227549  27.793   6.707  14.626 -0.0967 -0.2939  0.2473
 4592DDP     C227550  28.257   6.747  14.726  0.0170  0.1408 -0.1692
 4592DDP     C327551  26.976   6.212  15.282 -0.2618 -0.2049  0.3957
 4592DDP     C427552  27.187   6.754  14.056  0.0482 -0.1657  0.0651
 4593DDP     C127553  26.901   5.515  28.684  0.0480 -0.0684  0.1208
 4593DDP     P127554  26.762   5.697  28.345 -0.0606 -0.0038 -0.1521
 4593DDP     P227555  26.846   5.065  28.590  0.1498  0.1990  0.3984
 4593DDP     C227556  26.753   4.777  28.295  0.0472  0.1604  0.2157
 4593DDP     C327557  26.298   5.661  28.036  0.1167  0.3456  0.1213
 4593DDP     C427558  26.739   5.748  29.067  0.0624  0.0396  0.1279
 4594DDP     C127559  26.963   1.797  11.523  0.4650 -0.0918 -0.0308
 4594DDP     P127560  26.766   1.944  11.766 -0.0315 -0.0808 -0.0885
 4594DDP     P227561  27.206   1.584  11.841 -0.0081  0.0392 -0.1718
 4594DDP     C227562  27.116   1.271  12.273  0.0340 -0.0201 -0.0932
 4594DDP     C327563  26.957   1.908  12.146  0.1845 -0.0745  0.1034
 4594DDP     C427564  26.810   1.638  11.142  0.2064 -0.2346 -0.1231
 4595DDP     C127565  16.836  29.686   1.619 -0.0051 -0.3834  0.0567
 4595DDP     P127566  16.999  29.567   2.088 -0.3254 -0.0616 -0.1224
 4595DDP     P227567  16.782  29.408   1.383  0.1040  0.2424 -0.0589
 4595DDP     C227568  16.828  29.145   1.029 -0.2048  0.2513 -0.3020
 4595DDP     C327569  17.071  29.860   2.475 -0.3497  0.0394  0.2863
 4595DDP     C427570  17.088  29.937   1.326  0.1196 -0.0226  0.0382
 4596DDP     C127571  15.162  24.300  14.701 -0.0695  0.1693 -0.0651
 4596DDP     P127572  15.549  24.269  14.520 -0.0944  0.0975 -0.0460
 4596DDP     P227573  15.056  24.382  15.204  0.0653  0.1808  0.2185
 4596DDP     C227574  14.883  24.399  15.659  0.2081 -0.1039  0.1487
 4596DDP     C327575  15.720  24.003  14.217  0.4060 -0.0941 -0.2472
 4596DDP     C427576  14.787  24.469  14.413  0.1199  0.0862  0.2478
 4597DDP     C127577  20.098  12.429   5.344  0.0579 -0.3789  0.0100
 4597DDP     P127578  19.789  12.240   5.111  0.1067  0.1690 -0.0041
 4597DDP     P227579  20.394  12.465   5.082 -0.0927 -0.0481  0.0551
 4597DDP     C227580  20.453  12.844   4.876 -0.0856  0.0215  0.1125
 4597DDP     C327581  19.604  11.903   4.775  0.1385 -0.1518  0.0689
 4597DDP     C427582  20.029  12.554   5.732 -0.2324 -0.2090 -0.3466
 4598DDP     C127583   6.265  26.154  15.028  0.1023  0.2424 -0.0524
 4598DDP     P127584   6.479  26.487  14.857 -0.0205 -0.0556  0.0023
 4598DDP     P227585   6.082  26.020  14.702 -0.1288 -0.1702  0.3373
 4598DDP     C227586   5.982  26.020  14.345  0.3801 -0.5401 -0.0163
 4598DDP     C327587   6.337  26.989  14.948  0.1786 -0.1705  0.3987
 4598DDP     C427588   6.382  26.126  15.387  0.3654 -0.1427 -0.0318
 4599DDP     C127589  18.068  11.515   1.422  0.2582  0.2746  0.2196
 4599DDP     P127590  17.731  11.478   1.206  0.0162  0.2153 -0.2246
 4599DDP     P227591  18.203  11.922   1.202  0.1152  0.0782  0.2158
 4599DDP     C227592  18.301  12.265   0.999  0.2189 -0.1705 -0.0002
 4599DDP     C327593  17.334  11.316   1.028  0.1372 -0.1575 -0.0536
 4599DDP     C427594  18.303  11.299   1.661 -0.1836  0.2221 -0.1456
 4600DDP     C127595  12.001  22.995  10.960  0.0133  0.0267 -0.1643
 4600DDP     P127596  11.887  22.564  11.269 -0.0126 -0.0883 -0.0284
 4600DDP     P227597  11.822  23.310  10.887 -0.1029 -0.1560 -0.0474
 4600DDP     C227598  11.484  23.578  10.718  0.1913  0.0879  0.2860
 4600DDP     C327599  11.833  22.231  11.307 -0.0318 -0.0922  0.1964
 4600DDP     C427600  12.373  22.934  10.711 -0.1608 -0.0327  0.0731
 4601DDP     C127601  26.663   0.562   7.222  0.2437 -0.2098 -0.1209
 4601DDP     P127602  26.270   0.379   7.196 -0.0982  0.0808  0.2410
 4601DDP     P227603  26.607   0.934   7.491  0.0551 -0.1337 -0.0901
 4601DDP     C227604  26.546   1.389   7.454  0.0324 -0.1322  0.0828
 4601DDP     C327605  25.822   0.452   7.080 -0.0670  0.0917  0.2058
 4601DDP     C427606  26.937   0.652   6.934 -0.2693 -0.2389  0.1142
 4602DDP     C127607  21.628   6.013   3.827  0.0344 -0.2111 -0.0611
 4602DDP     P127608  21.697   6.436   4.010 -0.3357  0.0301 -0.0826
 4602DDP     P227609  21.967   5.758   3.721  0.1474 -0.3265  0.0128
 4602DDP     C227610  21.881   5.345   3.496  0.0323 -0.0753 -0.2798
 4602DDP     C327611  21.877   6.790   4.173 -0.0268  0.2060  0.1923
 4602DDP     C427612  21.217   5.981   3.839 -0.4606  0.2904  0.0463
 4603DDP     C127613  10.441  19.751  26.535  0.1740  0.0528  0.1952
 4603DDP     P127614  10.254  19.547  26.852  0.2990  0.0857 -0.2040
 4603DDP     P227615  10.390  19.830  26.162  0.0217 -0.2013  0.1478
 4603DDP     C227616  10.408  20.023  25.813  0.0136 -0.2704  0.1643
 4603DDP     C327617  10.027  19.490  27.164  0.0476 -0.0584  0.1750
 4603DDP     C427618  10.826  19.902  26.735  0.1780  0.3195 -0.1317
 4604DDP     C127619  19.759   7.633   8.632 -0.1414  0.4042 -0.3168
 4604DDP     P127620  19.418   7.600   8.395  0.1651  0.1387 -0.1287
 4604DDP     P227621  19.895   8.019   8.828  0.0373 -0.3304  0.2480
 4604DDP     C227622  20.250   7.943   8.838 -0.0598  0.2734  0.0327
 4604DDP     C327623  19.154   7.295   8.121  0.0176  0.0344 -0.1481
 4604DDP     C427624  19.964   7.280   8.731 -0.1272  0.0138  0.0639
 4605DDP     C127625   4.767   7.807  14.414  0.1406 -0.0706 -0.1732
 4605DDP     P127626   4.873   7.734  14.796  0.0375  0.2188  0.0118
 4605DDP     P227627   4.805   8.023  13.944  0.1017  0.0775  0.1084
 4605DDP     C227628   4.640   8.179  13.534  0.2268 -0.1093  0.1158
 4605DDP     C327629   5.200   7.785  15.154  0.0276 -0.1068 -0.1970
 4605DDP     C427630   4.372   7.917  14.646  0.1844  0.2240 -0.3415
 4606DDP     C127631  17.017   1.991  10.496  0.0829  0.0506  0.0431
 4606DDP     P127632  16.709   1.853  10.242  0.0200  0.1253 -0.0631
 4606DDP     P227633  16.672   1.979  10.736  0.0940 -0.0202 -0.4487
 4606DDP     C227634  16.702   1.767  11.206 -0.1723  0.2169  0.1181
 4606DDP     C327635  16.476   1.692   9.944 -0.2448  0.1170  0.2479
 4606DDP     C427636  17.397   1.866  10.407  0.0187 -0.1424  0.2763
 4607DDP     C127637  12.833   7.890   4.036  0.3289  0.1456  0.2049
 4607DDP     P127638  12.675   8.279   3.929 -0.0870 -0.0282 -0.1200
 4607DDP     P227639  13.000   7.538   3.705  0.1986 -0.1186 -0.2806
 4607DDP     C227640  13.148   7.342   3.373  0.0114  0.3773 -0.0744
 4607DDP     C327641  12.718   8.751   3.998  0.2333 -0.2414 -0.1934
 4607DDP     C427642  12.787   7.615   4.364  0.0988 -0.2466 -0.3741
 4608DDP     C127643  20.079  11.062  19.491  0.2775  0.3561  0.2441
 4608DDP     P127644  20.099  11.138  19.922 -0.0044 -0.0164 -0.1230
 4608DDP     P227645  19.791  10.771  19.373  0.1154  0.3441  0.1129
 4608DDP     C227646  19.404  10.835  19.186  0.0555  0.1276  0.1720
 4608DDP     C327647  19.840  11.391  20.167  0.1535  0.2629  0.1367
 4608DDP     C427648  20.251  11.318  19.246 -0.0977  0.4090 -0.0697
 4609DDP     C127649  22.268  24.167  26.477  0.0722  0.1022  0.1990
 4609DDP     P127650  22.011  23.797  26.284  0.2537  0.1516 -0.2722
 4609DDP     P227651  22.573  23.863  26.487  0.1641 -0.2347 -0.1258
 4609DDP     C227652  22.898  23.615  26.566 -0.0514  0.0940 -0.1556
 4609DDP     C327653  21.876  23.348  26.295  0.0067  0.2559 -0.1576
 4609DDP     C427654  22.408  24.604  26.500  0.1031  0.1606  0.0122
 4610DDP     C127655  15.802  25.482  16.818 -0.3067  0.0710  0.4625
 4610DDP     P127656  15.634  25.265  16.387  0.0999 -0.1782  0.1299
 4610DDP     P227657  15.516  25.793  17.042 -0.0455  0.1682  0.0810
 4610DDP     C227658  15.222  25.916  17.310 -0.1235  0.0373  0.1597
 4610DDP     C327659  15.805  24.774  16.216 -0.0755  0.0401  0.0066
 4610DDP     C427660  16.209  25.354  16.795 -0.1268  0.0757  0.0575
 4611DDP     C127661   4.643  26.203  13.837 -0.2581 -0.0527 -0.0177
 4611DDP     P127662   4.367  26.326  13.486  0.1546  0.0709  0.2252
 4611DDP     P227663   4.997  25.998  13.586 -0.2535  0.3065 -0.2577
 4611DDP     C227664   5.429  26.148  13.416 -0.0489 -0.2537  0.1185
 4611DDP     C327665   4.186  26.104  13.042 -0.0616  0.0418 -0.1774
 4611DDP     C427666   4.687  26.385  14.281 -0.1854 -0.4031  0.1986
 4612DDP     C127667  23.765  23.296  10.253 -0.0838 -0.0735 -0.0824
 4612DDP     P127668  23.819  23.776  10.180 -0.2013 -0.1462  0.1231
 4612DDP     P227669  23.779  23.065  10.651  0.0617 -0.3551 -0.0994
 4612DDP     C227670  23.875  22.605  10.692 -0.4205 -0.2832  0.0148
 4612DDP     C327671  23.630  24.075   9.869  0.0507  0.1901 -0.0761
 4612DDP     C427672  23.429  23.092   9.976  0.1598  0.1724  0.4207
 4613DDP     C127673  26.985  25.412  14.675  0.2964 -0.0234  0.3702
 4613DDP     P127674  27.094  25.028  14.686  0.1250  0.2329  0.0972
 4613DDP     P227675  27.194  25.500  15.010 -0.0915 -0.0570 -0.0543
 4613DDP     C227676  27.531  25.241  15.174  0.1145  0.2058 -0.0747
 4613DDP     C327677  27.282  24.583  14.604 -0.0232 -0.1135  0.1083
 4613DDP     C427678  26.895  25.754  14.291 -0.0177 -0.0250  0.2055
 4614DDP     C127679   3.703  11.723  12.622 -0.2101 -0.2009  0.0266
 4614DDP     P127680   3.393  11.428  12.731 -0.0294  0.1609 -0.0437
 4614DDP     P227681   3.637  12.173  12.708 -0.2709  0.0300  0.1319
 4614DDP     C227682   3.806  12.616  12.814 -0.1039 -0.0911  0.0813
 4614DDP     C327683   3.465  11.072  12.928 -0.0052 -0.1506  0.0201
 4614DDP     C427684   4.087  11.487  12.334 -0.1120 -0.0589 -0.1061
 4615DDP     C127685  16.326   4.686   0.661 -0.0377 -0.1286  0.0726
 4615DDP     P127686  16.717   4.540   0.755  0.1328  0.1610  0.0161
 4615DDP     P227687  15.983   4.826   1.048 -0.3266 -0.0575  0.0816
 4615DDP     C227688  15.629   4.614   1.162  0.2016 -0.1826 -0.0349
 4615DDP     C327689  16.906   4.232   1.040 -0.1349 -0.0774 -0.3264
 4615DDP     C427690  16.070   4.778   0.328 -0.1434  0.0692  0.2464
 4616DDP     C127691  23.284   1.711  19.503 -0.3678  0.0233 -0.1975
 4616DDP     P127692  23.721   1.994  19.541 -0.2619  0.1208  0.1913
 4616DDP     P227693  23.062   1.511  19.870 -0.0287 -0.0101  0.0973
 4616DDP     C227694  22.967   1.080  20.095 -0.0840  0.1012  0.4368
 4616DDP     C327695  24.112   2.031  19.807 -0.3818 -0.1455 -0.1162
 4616DDP     C427696  23.072   1.702  19.085 -0.0273 -0.1359  0.0832
 4617DDP     C127697   5.579  22.468   3.720 -0.4199 -0.0263 -0.2283
 4617DDP     P127698   5.531  22.921   3.596  0.4108 -0.0895  0.0264
 4617DDP     P227699   5.373  22.350   4.016 -0.1142 -0.3853 -0.0675
 4617DDP     C227700   4.984  22.243   4.163  0.0768  0.0961  0.1211
 4617DDP     C327701   5.425  23.314   3.463 -0.0631 -0.0569 -0.4980
 4617DDP     C427702   5.918  22.280   3.555  0.0613 -0.0948 -0.0525
 4618DDP     C127703  28.844   6.585  16.482  0.1161 -0.0242 -0.2900
 4618DDP     P127704  28.913   6.128  16.777  0.1313 -0.0232 -0.0738
 4618DDP     P227705  28.421   6.735  16.624  0.1290 -0.0060  0.1921
 4618DDP     C227706  28.171   7.152  16.632 -0.2780 -0.4558 -0.1485
 4618DDP     C327707  28.864   5.947  17.195  0.2727  0.1358 -0.0120
 4618DDP     C427708  28.906   6.553  16.030  0.0452  0.0994 -0.2073
 4619DDP     C127709  23.782  10.898   9.788 -0.1720  0.2033  0.1153
 4619DDP     P127710  23.503  10.538   9.816  0.2092 -0.1085  0.1101
 4619DDP     P227711  23.788  11.201   9.402 -0.3023  0.1801 -0.0843
 4619DDP     C227712  23.611  11.336   9.011  0.1828 -0.2637  0.0094
 4619DDP     C327713  23.572  10.132   9.666 -0.0537 -0.1755  0.2810
 4619DDP     C427714  24.005  11.070  10.179  0.0226  0.1718 -0.0282
 4620DDP     C127715  21.633  21.342  11.445 -0.0456  0.1714 -0.0822
 4620DDP     P127716  21.881  21.402  11.749  0.2255  0.3448  0.0729
 4620DDP     P227717  21.145  21.292  11.540 -0.0805 -0.2803 -0.0650
 4620DDP     C227718  20.939  21.069  11.786 -0.2460 -0.0399 -0.0606
 4620DDP     C327719  21.953  21.854  12.018  0.1380  0.0236 -0.3540
 4620DDP     C427720  21.761  21.414  11.055 -0.2565 -0.2060 -0.0657
 4621DDP     C127721  21.546   8.761  15.923 -0.0700 -0.1165 -0.4352
 4621DDP     P127722  21.659   8.901  16.292  0.0270  0.0596  0.0201
 4621DDP     P227723  21.412   9.040  15.772 -0.1702 -0.0706 -0.2250
 4621DDP     C227724  21.137   9.433  15.938  0.1261  0.3480  0.2386
 4621DDP     C327725  21.957   9.041  16.533 -0.1847 -0.2082 -0.2641
 4621DDP     C427726  21.466   8.370  15.865  0.2570 -0.1487 -0.2438
 4622DDP     C127727  25.145  26.406  16.806  0.2997 -0.2079  0.0308
 4622DDP     P127728  25.209  26.493  16.375  0.2118  0.1955 -0.0939
 4622DDP     P227729  24.858  26.083  16.745  0.1360 -0.4364  0.0459
 4622DDP     C227730  24.550  25.883  16.556 -0.0299 -0.2614 -0.0347
 4622DDP     C327731  25.399  26.396  15.948  0.2229 -0.5106 -0.0976
 4622DDP     C427732  25.106  26.680  17.146  0.1945 -0.0139  0.1365
 4623DDP     C127733   9.696   9.642  19.231  0.0474 -0.1114 -0.1698
 4623DDP     P127734   9.558   9.601  19.672 -0.0038 -0.3817  0.0332
 4623DDP     P227735   9.691   9.881  18.829 -0.0597  0.1930  0.1892
 4623DDP     C227736   9.329  10.182  18.583  0.2062 -0.2061 -0.0511
 4623DDP     C327737   9.276   9.864  19.783 -0.2513 -0.0399 -0.0159
 4623DDP     C427738  10.109   9.447  19.361  0.0280  0.1476  0.0180
 4624DDP     C127739  18.271   6.170  22.256 -0.2221  0.1376  0.0156
 4624DDP     P127740  18.314   6.256  22.731  0.1781 -0.0432 -0.1366
 4624DDP     P227741  18.545   5.776  22.099 -0.2148 -0.2075  0.0016
 4624DDP     C227742  18.848   5.459  22.159  0.3132 -0.2787  0.1145
 4624DDP     C327743  18.682   6.365  22.965 -0.1111 -0.0587  0.1084
 4624DDP     C427744  17.946   6.348  22.027 -0.0941 -0.2876 -0.1040
 4625DDP     C127745  15.903   4.081   9.841  0.0486  0.2158  0.1205
 4625DDP     P127746  15.897   4.458  10.210  0.0497  0.1969  0.0654
 4625DDP     P227747  15.607   4.130   9.514 -0.0378 -0.1845 -0.2872
 4625DDP     C227748  15.256   4.462   9.243 -0.0364 -0.0836  0.0640
 4625DDP     C327749  15.822   4.496  10.645  0.1815  0.2317 -0.2677
 4625DDP     C427750  16.095   3.616  10.036  0.1315  0.2775 -0.0117
 4626DDP     C127751   1.830  15.056   1.568  0.1808  0.4868  0.1212
 4626DDP     P127752   1.580  15.364   1.312 -0.0793 -0.0111 -0.1435
 4626DDP     P227753   2.219  14.800   1.639 -0.0732  0.0172  0.0513
 4626DDP     C227754   2.630  14.764   1.629  0.1135 -0.2953  0.1323
 4626DDP     C327755   1.238  15.632   1.448 -0.4662 -0.1386 -0.0684
 4626DDP     C427756   1.617  14.987   1.969 -0.0596  0.0875  0.0446
 4627DDP     C127757  23.466  16.445  19.221 -0.0125  0.0021  0.2306
 4627DDP     P127758  23.114  16.442  19.116 -0.2028 -0.0577 -0.2194
 4627DDP     P227759  23.672  16.499  18.819 -0.2199  0.5876  0.1157
 4627DDP     C227760  24.096  16.409  18.656  0.0082  0.4324 -0.1176
 4627DDP     C327761  22.727  16.619  18.922 -0.3546 -0.1512 -0.2679
 4627DDP     C427762  23.715  16.288  19.609 -0.1356  0.0829  0.1294
 4628DDP     C127763  20.836  18.409   2.180  0.0007 -0.2316  0.2535
 4628DDP     P127764  20.434  18.569   2.238  0.0799 -0.0745  0.4277
 4628DDP     P227765  20.974  18.649   1.763  0.1169  0.0597 -0.1794
 4628DDP     C227766  21.019  18.850   1.503 -0.2269 -0.2081  0.1801
 4628DDP     C327767  20.009  18.423   2.065  0.1670  0.1045 -0.1021
 4628DDP     C427768  21.027  18.193   2.493  0.0514 -0.2695  0.1909
 4629DDP     C127769  24.905   4.618  18.022 -0.0397  0.1981  0.0318
 4629DDP     P127770  25.159   4.932  18.160  0.2294  0.1182 -0.2975
 4629DDP     P227771  25.268   4.358  17.954 -0.1266  0.0401  0.2455
 4629DDP     C227772  25.449   4.251  17.561 -0.1427 -0.1198  0.3286
 4629DDP     C327773  25.547   5.014  18.042 -0.0284 -0.0189 -0.2742
 4629DDP     C427774  24.575   4.832  17.785  0.1283  0.0915 -0.0419
 4630DDP     C127775  28.023  27.464  15.060 -0.0607  0.0368 -0.4815
 4630DDP     P127776  27.995  27.653  15.509  0.2427  0.0301  0.1763
 4630DDP     P227777  28.217  27.128  14.807  0.6128  0.2285 -0.1812
 4630DDP     C227778  28.404  26.641  14.694  0.1563 -0.0582 -0.1633
 4630DDP     C327779  27.820  27.695  15.948 -0.2380 -0.1939  0.0668
 4630DDP     C427780  27.944  27.940  14.757  0.0766 -0.0888  0.2277
 4631DDP     C127781  14.488  25.405  20.137  0.1231  0.4073 -0.2186
 4631DDP     P127782  14.425  25.035  20.367  0.3088 -0.3228 -0.0069
 4631DDP     P227783  14.322  25.816  20.223  0.0304 -0.1358 -0.1145
 4631DDP     C227784  14.112  26.246  20.335  0.0917 -0.1295  0.0811
 4631DDP     C327785  14.067  24.790  20.378 -0.1224 -0.0515  0.0200
 4631DDP     C427786  14.668  25.254  19.693 -0.1327  0.2155  0.2910
 4632DDP     C127787  21.748  19.309   7.197  0.0024  0.2144  0.4061
 4632DDP     P127788  21.619  19.510   7.577  0.0438 -0.0721 -0.0722
 4632DDP     P227789  21.440  19.071   7.170 -0.0456 -0.0837  0.0557
 4632DDP     C227790  20.974  18.879   7.003 -0.0084 -0.0494 -0.4205
 4632DDP     C327791  21.392  19.865   7.814  0.1578  0.0880 -0.2436
 4632DDP     C427792  22.161  19.223   7.266 -0.0693 -0.0483 -0.0086
 4633DDP     C127793  18.189  15.481   4.908  0.0087  0.0648  0.0471
 4633DDP     P127794  18.264  15.736   4.533 -0.0484  0.1700 -0.2027
 4633DDP     P227795  17.802  15.399   4.983  0.2135 -0.0696  0.0491
 4633DDP     C227796  17.613  15.032   4.800  0.0209  0.3579  0.1726
 4633DDP     C327797  18.615  15.740   4.269  0.1043 -0.0085  0.4306
 4633DDP     C427798  18.577  15.176   5.191 -0.0295  0.3308  0.1286
 4634DDP     C127799  17.712  13.772  20.279  0.1432  0.2845  0.1005
 4634DDP     P127800  17.680  13.679  19.791 -0.0638 -0.2815 -0.2137
 4634DDP     P227801  18.135  13.934  20.534  0.2174  0.0651  0.1129
 4634DDP     C227802  18.471  14.075  20.751 -0.2552 -0.0008 -0.2875
 4634DDP     C327803  17.745  13.656  19.368  0.0141  0.2144  0.1197
 4634DDP     C427804  17.349  14.023  20.316  0.0526 -0.0586 -0.0241
 4635DDP     C127805  26.817  21.924  10.115 -0.2643  0.0466 -0.0279
 4635DDP     P127806  26.442  22.038  10.028  0.0647 -0.0408 -0.1025
 4635DDP     P227807  26.935  21.440  10.357 -0.1170  0.3656 -0.3482
 4635DDP     C227808  27.015  21.294  10.750 -0.0390  0.2085 -0.1643
 4635DDP     C327809  25.998  22.047  10.210  0.0544 -0.0573 -0.0724
 4635DDP     C427810  27.093  22.244  10.025  0.2785  0.3284  0.0474
 4636DDP     C127811  20.514  12.442  24.766  0.0932 -0.1368  0.0828
 4636DDP     P127812  20.423  12.767  25.103  0.0016  0.2326  0.0509
 4636DDP     P227813  20.618  11.961  24.936 -0.4519  0.0741  0.2186
 4636DDP     C227814  20.736  11.644  25.145 -0.2270  0.0098  0.0332
 4636DDP     C327815  20.212  13.186  25.117 -0.1405 -0.0007 -0.0622
 4636DDP     C427816  20.582  12.653  24.403  0.1697  0.1613 -0.0119
 4637DDP     C127817  11.023  17.997  10.700  0.2089 -0.1379 -0.1344
 4637DDP     P127818  10.954  17.931  10.264  0.2898 -0.0889  0.0755
 4637DDP     P227819  10.682  17.808  10.945 -0.1583 -0.1481  0.1548
 4637DDP     C227820  10.258  17.531  10.855 -0.1967  0.1116 -0.0299
 4637DDP     C327821  10.778  18.120   9.929 -0.0440  0.0291 -0.3973
 4637DDP     C427822  11.334  18.132  10.912 -0.2015  0.1549  0.2255
 4638DDP     C127823   2.528  24.966   8.101 -0.2160  0.0320  0.0908
 4638DDP     P127824   2.506  25.144   7.707  0.3038  0.0047  0.1214
 4638DDP     P227825   2.591  25.094   8.463 -0.0256 -0.0130  0.1019
 4638DDP     C227826   2.964  25.113   8.775 -0.0343 -0.1108  0.0348
 4638DDP     C327827   2.239  24.882   7.342 -0.2462  0.0174  0.1034
 4638DDP     C427828   2.723  24.483   7.994 -0.1443  0.2231 -0.0846
 4639DDP     C127829   8.755   3.678  24.728  0.0541  0.2392 -0.0581
 4639DDP     P127830   8.812   3.856  25.197  0.2541  0.5379  0.0848
 4639DDP     P227831   8.942   3.295  24.572  0.0403 -0.0239  0.0701
 4639DDP     C227832   8.725   2.913  24.395  0.1981  0.2064 -0.0659
 4639DDP     C327833   9.011   4.078  25.596  0.1935 -0.1504  0.1759
 4639DDP     C427834   8.447   3.922  24.572 -0.3145  0.1958 -0.1896
 4640DDP     C127835  26.489   6.883   1.897 -0.2241 -0.0155 -0.0787
 4640DDP     P127836  26.597   7.152   2.274 -0.0724  0.1152 -0.2678
 4640DDP     P227837  26.575   6.940   1.525 -0.1427 -0.0106 -0.2567
 4640DDP     C227838  26.971   6.873   1.346  0.1866  0.0930  0.0982
 4640DDP     C327839  26.715   7.459   2.585  0.1368  0.1824 -0.1044
 4640DDP     C427840  26.171   6.555   1.899 -0.2710  0.0696  0.1209
 4641DDP     C127841   1.013  22.758  20.513 -0.0118 -0.1482 -0.0497
 4641DDP     P127842   0.613  22.747  20.763 -0.0844 -0.0667  0.1099
 4641DDP     P227843   1.448  22.990  20.588  0.0858 -0.0289  0.0747
 4641DDP     C227844   1.779  22.784  20.854 -0.1575 -0.0775  0.0613
 4641DDP     C327845   0.253  22.888  20.996 -0.2724  0.3210  0.0003
 4641DDP     C427846   1.071  22.631  20.207  0.0410 -0.2174  0.0962
 4642DDP     C127847  24.720   9.198  16.757  0.3587  0.0529 -0.1869
 4642DDP     P127848  24.316   9.254  16.680  0.2015  0.0053  0.0811
 4642DDP     P227849  25.028   9.280  16.392  0.0185  0.1237  0.0943
 4642DDP     C227850  24.976   9.331  15.975  0.0644  0.1617  0.1658
 4642DDP     C327851  24.074   9.241  16.296 -0.0429 -0.0241 -0.0953
 4642DDP     C427852  24.811   9.071  17.169  0.0615  0.0674 -0.3244
 4643DDP     C127853  19.495   8.371  27.983 -0.0066  0.1575 -0.1289
 4643DDP     P127854  19.493   8.753  28.049 -0.0404  0.2199  0.3203
 4643DDP     P227855  19.209   8.359  27.612  0.1812  0.0636 -0.2565
 4643DDP     C227856  19.014   8.650  27.354  0.0470  0.1533 -0.1852
 4643DDP     C327857  19.331   9.058  28.092 -0.0021  0.0403  0.0279
 4643DDP     C427858  19.791   8.091  28.078 -0.1090  0.2524 -0.2080
 4644DDP     C127859  20.484  18.789   1.360  0.2839 -0.0287  0.2654
 4644DDP     P127860  20.490  19.161   1.675 -0.2304  0.0085 -0.3572
 4644DDP     P227861  20.452  18.610   1.623 -0.1792  0.2955  0.2001
 4644DDP     C227862  20.154  18.831   1.927  0.1599 -0.0669  0.2109
 4644DDP     C327863  20.259  19.473   1.969 -0.0620  0.4622  0.0341
 4644DDP     C427864  20.538  18.754   0.948  0.0029  0.2752  0.3135
 4645DDP     C127865   9.321   2.888  12.152 -0.2488 -0.0228  0.0045
 4645DDP     P127866   9.694   2.630  12.439  0.1513  0.2422 -0.1401
 4645DDP     P227867   8.883   2.701  12.007 -0.3161 -0.0707  0.0979
 4645DDP     C227868   8.402   2.835  12.023  0.0294  0.1885 -0.1340
 4645DDP     C327869   9.901   2.379  12.866 -0.0177 -0.3952  0.0055
 4645DDP     C427870   9.400   3.365  12.033 -0.0208  0.1143  0.0726
 4646DDP     C127871  25.388  10.344   5.519 -0.2695 -0.3552  0.0941
 4646DDP     P127872  25.241  10.021   5.300 -0.1124  0.0586 -0.0214
 4646DDP     P227873  25.728  10.245   5.813  0.2341  0.2089 -0.1785
 4646DDP     C227874  25.801   9.936   6.120 -0.1122  0.4531 -0.1341
 4646DDP     C327875  24.949   9.687   5.044  0.1296  0.2398  0.2357
 4646DDP     C427876  24.996  10.500   5.470 -0.3140 -0.0644 -0.1743
 4647DDP     C127877   2.536  19.434  25.719 -0.1184  0.1042  0.1005
 4647DDP     P127878   2.702  19.049  25.901  0.3018 -0.0918  0.2553
 4647DDP     P227879   2.714  19.351  25.424 -0.0337  0.3442 -0.0505
 4647DDP     C227880   2.614  19.571  25.106 -0.2481  0.2059 -0.0492
 4647DDP     C327881   2.934  19.045  26.293  0.1211  0.0423 -0.0723
 4647DDP     C427882   2.369  19.813  25.940  0.0570 -0.4142 -0.0252
 4648DDP     C127883   5.863  12.703  25.898 -0.1728  0.0208  0.0673
 4648DDP     P127884   5.580  12.733  26.233  0.0346 -0.2261 -0.0424
 4648DDP     P227885   5.913  12.249  25.701 -0.2631 -0.0392  0.1941
 4648DDP     C227886   5.919  11.899  25.399 -0.0217  0.3116 -0.0901
 4648DDP     C327887   5.423  12.841  26.714  0.1543  0.2262 -0.1311
 4648DDP     C427888   6.208  13.007  25.843 -0.2222  0.0255  0.0598
 4649DDP     C127889   8.830  25.097   4.224 -0.1075 -0.1988 -0.2154
 4649DDP     P127890   8.726  24.701   4.024 -0.0856  0.0372  0.0092
 4649DDP     P227891   8.430  25.194   4.452 -0.2558 -0.2687  0.0466
 4649DDP     C227892   7.959  25.040   4.473 -0.0835  0.2592 -0.0091
 4649DDP     C327893   8.437  24.392   3.785 -0.0844 -0.0268 -0.0543
 4649DDP     C427894   9.104  25.390   4.028  0.0670  0.1633  0.1091
 4650DDP     C127895   4.696  20.659  22.605  0.1519 -0.0149  0.0190
 4650DDP     P127896   4.631  20.328  22.287 -0.0847 -0.0735  0.4846
 4650DDP     P227897   5.129  20.856  22.712 -0.2398  0.4578  0.1269
 4650DDP     C227898   5.346  21.171  22.879 -0.2116  0.1276  0.0405
 4650DDP     C327899   4.663  19.977  22.112 -0.2967  0.2127 -0.1562
 4650DDP     C427900   4.338  20.691  22.878  0.2809 -0.0189  0.1151
 4651DDP     C127901  26.814   3.020  13.643  0.0855  0.0329 -0.1150
 4651DDP     P127902  26.836   3.226  13.257 -0.0608  0.1974 -0.1287
 4651DDP     P227903  26.734   3.338  14.010  0.1008 -0.3500  0.1400
 4651DDP     C227904  26.628   3.698  14.166 -0.0209 -0.2298  0.1117
 4651DDP     C327905  27.024   3.241  12.781  0.3535  0.2827  0.1412
 4651DDP     C427906  26.745   2.592  13.610 -0.0985 -0.0709  0.1539
 4652DDP     C127907   6.055  10.742  22.638 -0.4933  0.1294  0.0965
 4652DDP     P127908   6.452  10.423  22.633 -0.0009  0.0914  0.4017
 4652DDP     P227909   5.781  10.682  22.917 -0.0621 -0.1028  0.1691
 4652DDP     C227910   5.435  10.607  23.149  0.0692  0.1822 -0.0055
 4652DDP     C327911   6.613   9.998  22.946 -0.1614 -0.1461 -0.1253
 4652DDP     C427912   5.963  11.145  22.586 -0.1291  0.1396 -0.0837
 4653DDP     C127913  24.938  28.882   4.660 -0.1461 -0.0271  0.1160
 4653DDP     P127914  24.835  29.120   4.275 -0.3020  0.2724 -0.1388
 4653DDP     P227915  24.925  28.439   4.620 -0.0240  0.0577  0.0676
 4653DDP     C227916  25.214  28.178   4.609  0.2884  0.0582  0.4681
 4653DDP     C327917  24.927  29.587   4.087  0.0051  0.1222  0.0133
 4653DDP     C427918  25.131  29.045   4.997  0.0157  0.2212  0.0957
 4654DDP     C127919   6.729  16.535   7.674 -0.0533 -0.1725 -0.1718
 4654DDP     P127920   6.989  16.834   7.665  0.0345  0.0058  0.0795
 4654DDP     P227921   6.501  16.568   7.316  0.1376  0.1605 -0.4430
 4654DDP     C227922   6.117  16.478   7.108  0.1234 -0.4054 -0.0888
 4654DDP     C327923   7.127  17.198   7.744  0.0004 -0.1096 -0.3485
 4654DDP     C427924   6.697  16.126   7.929  0.0838 -0.0212  0.0431
 4655DDP     C127925   4.968  24.678   8.484 -0.0295 -0.2674 -0.1298
 4655DDP     P127926   5.049  24.834   8.099 -0.3107  0.1018  0.3282
 4655DDP     P227927   4.619  24.841   8.594 -0.2250 -0.1888 -0.1289
 4655DDP     C227928   4.251  25.155   8.496 -0.1937  0.2056 -0.0674
 4655DDP     C327929   4.960  24.901   7.666  0.1448  0.2148 -0.3849
 4655DDP     C427930   5.196  24.330   8.572  0.1869  0.0633 -0.1354
 4656DDP     C127931  15.085  14.618   0.499  0.1703  0.3426 -0.0904
 4656DDP     P127932  15.083  14.493   0.054  0.3303 -0.3352  0.1412
 4656DDP     P227933  14.793  14.856   0.606  0.1485  0.0889  0.3737
 4656DDP     C227934  14.673  15.211   0.476 -0.0219 -0.0294  0.3136
 4656DDP     C327935  15.016  14.808  29.958 -0.2147  0.0340 -0.0933
 4656DDP     C427936  15.335  14.602   0.762 -0.0354  0.1499 -0.0697
 4657DDP     C127937  13.549  16.480  16.695 -0.1338 -0.2012  0.0054
 4657DDP     P127938  13.958  16.509  16.937  0.0092 -0.2145  0.0546
 4657DDP     P227939  13.423  16.609  16.281 -0.2168  0.0922  0.0403
 4657DDP     C227940  13.368  16.297  15.951 -0.0649  0.0817  0.2317
 4657DDP     C327941  14.133  16.438  17.317 -0.0395 -0.2956 -0.1779
 4657DDP     C427942  13.248  16.135  16.954 -0.0614  0.0777  0.0824
 4658DDP     C127943  29.140  24.005  16.362  0.0242  0.0810  0.0893
 4658DDP     P127944  29.395  24.324  16.148  0.1695  0.0437  0.3292
 4658DDP     P227945  28.572  24.130  16.407 -0.0236 -0.1468  0.0438
 4658DDP     C227946  28.266  24.438  16.608 -0.0835 -0.1278  0.0229
 4658DDP     C327947  29.565  24.338  15.748 -0.4226 -0.2239 -0.1516
 4658DDP     C427948  29.247  23.542  16.494 -0.0166 -0.0252  0.0405
 4659DDP     C127949  14.071  28.356   4.401  0.2837 -0.0966 -0.0016
 4659DDP     P127950  14.330  28.426   4.786 -0.1051  0.2260 -0.0467
 4659DDP     P227951  13.937  28.696   4.086  0.1213 -0.3745 -0.0709
 4659DDP     C227952  14.063  28.969   3.776  0.2340  0.1775  0.0676
 4659DDP     C327953  14.434  28.552   5.200 -0.1100 -0.1477 -0.1610
 4659DDP     C427954  14.072  27.954   4.206 -0.0453 -0.1029 -0.0862
 4660DDP     C127955  22.218  22.137  25.843  0.0555  0.0880  0.0919
 4660DDP     P127956  22.443  21.806  25.975 -0.1095 -0.1913  0.3627
 4660DDP     P227957  22.118  22.433  26.193  0.0346  0.0372 -0.2294
 4660DDP     C227958  22.156  22.335  26.552 -0.0053  0.0753 -0.1690
 4660DDP     C327959  22.752  21.410  25.935 -0.1508  0.3028  0.2144
 4660DDP     C427960  22.477  22.276  25.434  0.0815  0.0487  0.2954
 4661DDP     C127961  18.622  29.009  11.173 -0.2689  0.1607 -0.1623
 4661DDP     P127962  18.731  29.264  11.609 -0.1921  0.2688 -0.0697
 4661DDP     P227963  18.817  28.682  10.980 -0.0948 -0.0572  0.1175
 4661DDP     C227964  19.033  28.404  10.659 -0.1150 -0.0871  0.2306
 4661DDP     C327965  18.874  29.709  11.692 -0.0139 -0.1151 -0.0721
 4661DDP     C427966  18.205  29.010  10.928  0.0494 -0.1090  0.0242
 4662DDP     C127967   1.431  25.137   1.325  0.2395  0.0536 -0.3750
 4662DDP     P127968   1.206  25.405   1.122 -0.4621  0.1108  0.0583
 4662DDP     P227969   1.871  25.055   1.107  0.4422 -0.0345 -0.0752
 4662DDP     C227970   2.224  25.020   0.825 -0.2839  0.2351 -0.1655
 4662DDP     C327971   1.083  25.664   0.839 -0.2916  0.1129  0.1096
 4662DDP     C427972   1.370  25.020   1.768 -0.0993 -0.2278  0.1217
 4663DDP     C127973  26.640   4.379  29.348  0.0377 -0.1904 -0.2736
 4663DDP     P127974  26.474   4.017  29.457  0.3097  0.3224 -0.0888
 4663DDP     P227975  26.482   4.566  28.974 -0.2969  0.1081  0.0587
 4663DDP     C227976  26.415   4.407  28.527 -0.0913 -0.0551 -0.1763
 4663DDP     C327977  26.006   3.820  29.537  0.0883 -0.1493 -0.0269
 4663DDP     C427978  26.738   4.764  29.481 -0.0926  0.2063 -0.2162
 4664DDP     C127979   7.341   5.955  24.069  0.3976 -0.3723  0.1547
 4664DDP     P127980   7.580   6.135  24.435  0.1152  0.2452 -0.1408
 4664DDP     P227981   7.389   6.174  23.673 -0.0784  0.1060 -0.2223
 4664DDP     C227982   7.133   6.295  23.445 -0.0788  0.3775 -0.1185
 4664DDP     C327983   7.842   6.362  24.682 -0.1100  0.0408  0.1048
 4664DDP     C427984   6.936   5.596  24.098 -0.0622 -0.0207 -0.2799
 4665DDP     C127985  23.727  16.815   3.243  0.1161  0.0752  0.0297
 4665DDP     P127986  24.008  17.053   3.553  0.0699  0.1414 -0.0980
 4665DDP     P227987  23.981  16.453   3.378 -0.0574  0.0293 -0.1345
 4665DDP     C227988  24.262  16.161   3.253  0.1946 -0.0748 -0.4294
 4665DDP     C327989  24.558  17.100   3.649 -0.0189 -0.0167 -0.0025
 4665DDP     C427990  23.443  16.851   2.854 -0.1035 -0.3393  0.2093
 4666DDP     C127991  25.771  19.064   5.028  0.0849 -0.2501  0.2824
 4666DDP     P127992  25.943  18.753   5.201  0.0404  0.1147  0.0841
 4666DDP     P227993  25.442  19.143   5.277  0.3538  0.0905  0.1396
 4666DDP     C227994  25.264  19.434   5.602 -0.0115  0.1273  0.1438
 4666DDP     C327995  26.032  18.360   5.152  0.0779  0.3221 -0.2467
 4666DDP     C427996  25.997  19.410   4.810  0.0836 -0.1895 -0.4761
 4667DDP     C127997  13.185  17.114  29.254  0.0323  0.0884  0.0793
 4667DDP     P127998  13.570  17.087  29.471  0.0794 -0.0769  0.1618
 4667DDP     P227999  12.812  17.383  29.334  0.2956 -0.0437  0.0049
 4667DDP     C228000  12.598  17.837  29.155  0.0334  0.1343  0.0213
 4667DDP     C328001  13.924  17.317  29.571 -0.0986  0.0919  0.2904
 4667DDP     C428002  13.131  16.981  28.845 -0.0365 -0.0892 -0.1045
 4668DDP     C128003   1.359  18.342  24.209 -0.3799  0.1764 -0.1083
 4668DDP     P128004   1.296  18.646  23.891  0.1489  0.1986  0.0029
 4668DDP     P228005   1.688  18.151  24.075 -0.2396  0.0804  0.1368
 4668DDP     C228006   1.864  18.202  23.686 -0.0126 -0.0619 -0.0216
 4668DDP     C328007   1.593  19.005  23.706  0.1685 -0.2687 -0.1221
 4668DDP     C428008   1.267  18.338  24.723  0.2608 -0.3189  0.1968
 4669DDP     C128009   1.170   5.561  26.542 -0.0542 -0.0084 -0.0250
 4669DDP     P128010   1.116   5.808  26.876  0.0014 -0.0043  0.0210
 4669DDP     P228011   0.756   5.384  26.637  0.1780  0.1741  0.2235
 4669DDP     C228012   0.436   5.146  26.826  0.1639  0.1749 -0.0248
 4669DDP     C328013   0.935   6.017  27.213  0.4101 -0.5467 -0.0226
 4669DDP     C428014   1.393   5.527  26.219 -0.0413 -0.2776  0.4117
 4670DDP     C128015   2.431   0.204  12.649  0.2127 -0.0523  0.2947
 4670DDP     P128016   2.219   0.420  12.348 -0.0016  0.0145  0.0575
 4670DDP     P228017   2.845   0.314  12.558  0.1645 -0.1443  0.2181
 4670DDP     C228018   3.181   0.580  12.483  0.0432  0.0049 -0.0137
 4670DDP     C328019   2.094   0.698  12.060  0.0609  0.0955 -0.0936
 4670DDP     C428020   2.319  30.210  13.018 -0.2796 -0.0497 -0.0506
 4671DDP     C128021   3.872  27.270   0.613  0.1489  0.0445  0.0159
 4671DDP     P128022   3.525  27.537   0.481 -0.1503  0.2077 -0.0401
 4671DDP     P228023   4.161  27.319   0.251 -0.3472 -0.0270 -0.0808
 4671DDP     C228024   4.171  27.647  30.276  0.1662 -0.1347 -0.2487
 4671DDP     C328025   3.222  27.909   0.552 -0.0275 -0.2148 -0.1768
 4671DDP     C428026   4.107  27.206   1.070  0.0135  0.0898 -0.1729
 4672DDP     C128027   2.255  18.042  23.285  0.3915 -0.1230 -0.0643
 4672DDP     P128028   2.330  17.812  22.910 -0.0363  0.1327 -0.1740
 4672DDP     P228029   2.298  17.957  23.766  0.4013  0.2279 -0.0903
 4672DDP     C228030   2.608  17.655  23.895  0.1303  0.0728  0.0419
 4672DDP     C328031   2.605  17.417  22.978 -0.1456  0.0974 -0.0207
 4672DDP     C428032   1.971  18.370  23.256  0.0171 -0.4290 -0.0411
 4673DDP     C128033  26.562  28.381   4.212 -0.0450 -0.2185 -0.0029
 4673DDP     P128034  26.965  28.299   4.424  0.1108 -0.1635 -0.2424
 4673DDP     P228035  26.303  27.960   4.096 -0.1060  0.2910  0.0471
 4673DDP     C228036  26.328  27.576   4.061  0.0217 -0.2110  0.1225
 4673DDP     C328037  27.276  27.973   4.466  0.1759 -0.1889 -0.0330
 4673DDP     C428038  26.305  28.736   4.210 -0.1005  0.3435  0.2718
 4674DDP     C128039  23.962   1.658   7.614  0.2154 -0.1221 -0.0429
 4674DDP     P128040  23.872   1.575   7.949 -0.0725 -0.2708 -0.0453
 4674DDP     P228041  23.820   1.393   7.362 -0.1189 -0.1486  0.0146
 4674DDP     C228042  23.601   0.951   7.411  0.0972 -0.2151 -0.0598
 4674DDP     C328043  24.116   1.678   8.188 -0.1241  0.3992  0.1742
 4674DDP     C428044  23.787   2.017   7.437 -0.1011 -0.3472  0.1764
 4675DDP     C128045  21.313  28.805   2.142 -0.1483  0.1050  0.0667
 4675DDP     P128046  21.201  28.516   2.411 -0.2260 -0.0947 -0.0678
 4675DDP     P228047  21.488  29.156   2.183  0.0177  0.2531 -0.1623
 4675DDP     C228048  21.654  29.414   1.942  0.0962 -0.1719 -0.0786
 4675DDP     C328049  21.445  28.109   2.518 -0.0327 -0.0125 -0.2234
 4675DDP     C428050  21.220  28.750   1.739 -0.0854 -0.0454  0.0164
 4676DDP     C128051  26.218  27.337  13.497 -0.0639 -0.5276  0.1249
 4676DDP     P128052  26.020  27.724  13.561  0.0328  0.0711  0.0373
 4676DDP     P228053  26.590  27.132  13.712 -0.2563  0.1949  0.1829
 4676DDP     C228054  26.949  26.968  13.388 -0.3399  0.1350 -0.1483
 4676DDP     C328055  25.612  27.785  13.821 -0.0065  0.0848  0.0515
 4676DDP     C428056  25.924  27.086  13.238  0.3023  0.0876 -0.0730
 4677DDP     C128057  13.525   6.627   1.739 -0.3612 -0.1847  0.3558
 4677DDP     P128058  13.835   6.792   2.021  0.0440 -0.0126  0.1268
 4677DDP     P228059  13.136   6.427   1.734  0.2227 -0.0542 -0.0974
 4677DDP     C228060  12.700   6.330   2.004  0.0647  0.2232 -0.0685
 4677DDP     C328061  13.869   7.186   2.298 -0.0341 -0.1161  0.0828
 4677DDP     C428062  13.600   6.914   1.473 -0.0706  0.1223  0.3326
 4678DDP     C128063  11.793  10.037   5.601 -0.0224 -0.0994  0.1286
 4678DDP     P128064  12.259  10.000   5.426 -0.1164  0.1374  0.0533
 4678DDP     P228065  11.593   9.590   5.645  0.1469 -0.0407  0.0009
 4678DDP     C228066  11.532   9.132   5.753  0.3092 -0.1802  0.1619
 4678DDP     C328067  12.372  10.173   5.089  0.0407  0.0423 -0.0809
 4678DDP     C428068  11.630  10.413   5.555 -0.1416  0.3279 -0.1203
 4679DDP     C128069  28.914  16.167  13.004  0.2007  0.1112  0.1170
 4679DDP     P128070  28.826  16.086  12.537  0.1708 -0.0494  0.0279
 4679DDP     P228071  29.188  16.461  13.157 -0.0018  0.1252 -0.0216
 4679DDP     C228072  29.405  16.914  13.006 -0.0395  0.0568  0.0364
 4679DDP     C328073  28.523  16.212  12.252  0.3156  0.1557 -0.4098
 4679DDP     C428074  28.772  15.881  13.314  0.1454 -0.0347 -0.2457
 4680DDP     C128075  28.205  20.818   0.516 -0.0659  0.0104  0.2052
 4680DDP     P128076  28.010  20.432   0.618 -0.1099  0.1452 -0.2617
 4680DDP     P228077  28.400  20.746   0.032 -0.2336 -0.0496 -0.0311
 4680DDP     C228078  28.602  20.414  30.191 -0.1005  0.2214 -0.1698
 4680DDP     C328079  27.641  20.291   0.383  0.0252  0.0515 -0.3288
 4680DDP     C428080  28.288  20.981   0.857 -0.0266 -0.2584  0.2993
 4681DDP     C128081   7.656   2.052  16.832  0.0801 -0.1465 -0.2899
 4681DDP     P128082   8.086   2.020  16.953 -0.0616 -0.0401  0.0666
 4681DDP     P228083   7.605   1.674  16.662 -0.0955 -0.1973  0.1637
 4681DDP     C228084   7.503   1.410  16.332  0.1093  0.1339  0.0011
 4681DDP     C328085   8.372   2.235  17.017  0.0296  0.1306 -0.3662
 4681DDP     C428086   7.305   2.417  16.643 -0.0923 -0.3374  0.1584
 4682DDP     C128087  19.002  23.976   7.482  0.0152  0.1292 -0.1415
 4682DDP     P128088  19.350  23.897   7.715  0.3557 -0.0325  0.0476
 4682DDP     P228089  18.940  23.699   7.116  0.1941 -0.1569 -0.3751
 4682DDP     C228090  18.673  23.854   6.748  0.0128  0.2932  0.0240
 4682DDP     C328091  19.645  23.554   7.915 -0.0065 -0.1040 -0.0518
 4682DDP     C428092  18.677  24.226   7.691  0.1326 -0.1990  0.2877
 4683DDP     C128093   2.086  24.099   4.061 -0.0186  0.0550  0.0674
 4683DDP     P128094   2.291  24.104   3.623  0.2604  0.2698  0.1948
 4683DDP     P228095   2.093  23.893   4.464  0.0992  0.3062  0.1340
 4683DDP     C228096   2.153  23.552   4.672 -0.0111 -0.1517 -0.3440
 4683DDP     C328097   2.331  24.217   3.159  0.0269 -0.3096  0.2952
 4683DDP     C428098   1.866  24.539   4.240 -0.1073 -0.0374  0.2197
 4684DDP     C128099  11.574  20.449  19.914  0.1017 -0.1698 -0.0559
 4684DDP     P128100  11.861  20.684  19.659 -0.0801 -0.0013 -0.0734
 4684DDP     P228101  11.692  20.510  20.333  0.1468 -0.0448  0.0378
 4684DDP     C228102  11.905  20.327  20.671  0.0925 -0.4982 -0.0216
 4684DDP     C328103  12.272  20.704  19.733  0.2508  0.3341  0.1619
 4684DDP     C428104  11.272  20.341  19.676  0.0524 -0.1407  0.3981
 4685DDP     C128105  27.358  22.071  11.203 -0.0723  0.0524  0.2238
 4685DDP     P128106  26.965  22.152  10.980  0.0593  0.3023  0.0413
 4685DDP     P228107  27.252  22.431  11.458 -0.0780  0.1230  0.1905
 4685DDP     C228108  27.506  22.817  11.569 -0.2623 -0.2229 -0.2674
 4685DDP     C328109  26.777  21.848  10.816 -0.0800 -0.3878 -0.0656
 4685DDP     C428110  27.783  21.826  11.123  0.0016 -0.0936  0.2006
 4686DDP     C128111   0.235  22.995   6.520 -0.1122  0.1234 -0.1429
 4686DDP     P128112   0.662  23.146   6.247  0.0723 -0.1299  0.0391
 4686DDP     P228113  30.155  23.222   6.407 -0.1357 -0.0250  0.1511
 4686DDP     C228114  29.788  23.119   6.216  0.0862  0.1955 -0.0210
 4686DDP     C328115   1.089  23.201   6.231 -0.1839 -0.2187 -0.1210
 4686DDP     C428116   0.312  22.625   6.873 -0.2598 -0.2834 -0.0709
 4687DDP     C128117  24.779   2.778   9.564  0.6139  0.0642 -0.0927
 4687DDP     P128118  25.101   2.631   9.422 -0.2721 -0.1831 -0.2414
 4687DDP     P228119  24.465   3.087   9.323  0.2767 -0.2871 -0.0558
 4687DDP     C228120  23.917   3.301   9.223 -0.1497  0.1458  0.0203
 4687DDP     C328121  25.556   2.674   9.652 -0.0254  0.3504 -0.0016
 4687DDP     C428122  24.783   2.906   9.995  0.1215  0.2630 -0.0171
 4688DDP     C128123  22.526  12.872  15.648 -0.0456 -0.1500 -0.1521
 4688DDP     P128124  22.863  13.163  15.864  0.1496 -0.0836 -0.1017
 4688DDP     P228125  22.136  12.826  15.738 -0.3424  0.3514  0.2285
 4688DDP     C228126  21.691  13.017  15.794 -0.5653  0.1044  0.2300
 4688DDP     C328127  22.710  13.402  16.115  0.0464  0.1061 -0.2324
 4688DDP     C428128  22.755  12.782  15.269  0.1870  0.1338 -0.3156
 4689DDP     C128129   2.640   9.611  18.166 -0.2501 -0.3716 -0.2277
 4689DDP     P128130   2.479   9.819  17.832 -0.0776  0.2085 -0.1016
 4689DDP     P228131   2.518   9.510  18.434 -0.2868  0.1715 -0.3827
 4689DDP     C228132   2.427   9.271  18.809 -0.3591  0.1626 -0.1829
 4689DDP     C328133   2.453   9.889  17.431  0.0850 -0.0863 -0.0849
 4689DDP     C428134   2.964   9.787  18.109  0.3307  0.1102  0.3180
 4690DDP     C128135  12.487  14.219  10.456 -0.1537  0.0352  0.1206
 4690DDP     P128136  12.029  14.372  10.311 -0.0012 -0.0488  0.1606
 4690DDP     P228137  12.498  14.565  10.806  0.0537 -0.0703 -0.0087
 4690DDP     C228138  12.800  14.609  11.224  0.0535 -0.1649  0.2562
 4690DDP     C328139  11.713  14.545  10.681 -0.0738 -0.3241 -0.0525
 4690DDP     C428140  12.875  14.236  10.267  0.2779  0.0434  0.1355
 4691DDP     C128141  30.000   8.864  17.741  0.3278 -0.0311 -0.0734
 4691DDP     P128142  30.139   8.570  18.062  0.0561 -0.0613  0.0236
 4691DDP     P228143  29.926   9.249  18.046 -0.1387  0.0017 -0.0476
 4691DDP     C228144  29.979   9.521  18.330 -0.0365  0.0609  0.0439
 4691DDP     C328145  -0.006   8.232  18.196 -0.0966  0.1540 -0.2105
 4691DDP     C428146  30.149   8.692  17.311  0.2387  0.2171  0.2130
 4692DDP     C128147  18.294  29.800  11.685 -0.4548 -0.1168  0.3227
 4692DDP     P128148  18.321  29.415  11.823  0.4178  0.1293 -0.1156
 4692DDP     P228149  17.970  30.155  11.674 -0.0909  0.1008 -0.1218
 4692DDP     C228150  17.559  30.246  11.710  0.1686 -0.1695  0.0276
 4692DDP     C328151  18.159  29.006  11.943  0.1685 -0.1269 -0.1312
 4692DDP     C428152  18.559  29.975  11.967  0.2459  0.2397  0.2983
 4693DDP     C128153  27.674   5.025  10.797 -0.1751  0.0552 -0.0264
 4693DDP     P128154  27.536   5.391  10.713  0.1134  0.1746  0.0185
 4693DDP     P228155  28.139   4.962  10.884 -0.3420 -0.1495  0.0353
 4693DDP     C228156  28.531   5.011  10.976 -0.0442  0.1119 -0.0520
 4693DDP     C328157  27.206   5.770  10.803 -0.3075  0.0362  0.0693
 4693DDP     C428158  27.390   4.682  10.810  0.0260  0.0018 -0.1102
 4694DDP     C128159  27.572  11.771  12.518  0.0228 -0.3744 -0.0672
 4694DDP     P128160  27.628  11.642  12.942  0.0553  0.0466 -0.0647
 4694DDP     P228161  27.104  11.976  12.377  0.1118 -0.0181 -0.5911
 4694DDP     C228162  26.875  12.399  12.522 -0.2216  0.1280  0.0179
 4694DDP     C328163  28.068  11.499  13.104  0.0204 -0.0960  0.0989
 4694DDP     C428164  27.994  11.894  12.260  0.0468  0.3789 -0.2001
 4695DDP     C128165   3.748  16.726  19.556 -0.4057  0.1586  0.0985
 4695DDP     P128166   3.932  16.833  19.182  0.1615 -0.1751 -0.0363
 4695DDP     P228167   3.309  16.487  19.519  0.1206  0.1048  0.0925
 4695DDP     C228168   2.864  16.318  19.640  0.1191 -0.3835  0.3463
 4695DDP     C328169   4.321  16.796  18.998 -0.2209  0.0278 -0.1911
 4695DDP     C428170   3.969  16.704  20.001 -0.2634  0.0548  0.1058
 4696DDP     C128171   8.410  19.552   3.267 -0.0766 -0.1670  0.0156
 4696DDP     P128172   8.003  19.333   3.392 -0.2576 -0.0518 -0.0296
 4696DDP     P228173   8.827  19.288   3.270 -0.4380 -0.2674 -0.3212
 4696DDP     C228174   9.029  18.887   3.211 -0.1108 -0.2198 -0.1525
 4696DDP     C328175   7.723  19.276   3.717  0.0659  0.1332 -0.0671
 4696DDP     C428176   8.319  19.974   3.294 -0.3384 -0.1830  0.1417
 4697DDP     C128177   3.202  24.451  12.318  0.1125 -0.2301 -0.2602
 4697DDP     P128178   3.055  24.659  12.675 -0.1530 -0.0410 -0.3179
 4697DDP     P228179   3.610  24.549  12.271  0.2133 -0.0889 -0.3640
 4697DDP     C228180   3.960  24.317  12.336  0.0281  0.0229 -0.1296
 4697DDP     C328181   3.040  24.778  13.069 -0.0350  0.1009  0.1878
 4697DDP     C428182   2.991  24.149  12.131  0.1733 -0.0766  0.1160
 4698DDP     C128183  11.787   2.932  12.000 -0.2468  0.1740  0.0620
 4698DDP     P128184  11.703   3.337  12.188 -0.4135 -0.1049 -0.0048
 4698DDP     P228185  11.837   2.816  11.501 -0.1575 -0.1256  0.0329
 4698DDP     C228186  11.973   3.123  11.141 -0.1860  0.1317 -0.0731
 4698DDP     C328187  11.950   3.743  12.016 -0.0977 -0.0058 -0.1576
 4698DDP     C428188  12.241   2.819  12.161 -0.0326 -0.2291 -0.1117
 4699DDP     C128189  19.548  13.879   5.201  0.0877  0.1214  0.1781
 4699DDP     P128190  19.892  14.174   5.346 -0.1637  0.1566  0.0348
 4699DDP     P228191  19.691  13.897   4.697 -0.1314 -0.0448  0.1920
 4699DDP     C228192  19.829  14.208   4.346 -0.0080 -0.0931 -0.2475
 4699DDP     C328193  19.933  14.552   5.576  0.1237  0.0557 -0.2818
 4699DDP     C428194  19.225  13.770   5.489  0.2461  0.3689  0.4783
 4700DDP     C128195  17.126  21.206  24.718 -0.0925 -0.2484 -0.0929
 4700DDP     P128196  17.235  21.342  25.141 -0.0118 -0.0222  0.1830
 4700DDP     P228197  17.490  21.029  24.694 -0.2756  0.0061 -0.1244
 4700DDP     C228198  17.856  21.029  24.501  0.0962 -0.0509  0.0767
 4700DDP     C328199  17.176  21.253  25.608  0.1034  0.3986 -0.1175
 4700DDP     C428200  16.822  21.219  24.417 -0.1829 -0.1625 -0.1270
 4701DDP     C128201  21.338  27.964  20.636 -0.1943 -0.3492 -0.0110
 4701DDP     P128202  21.719  28.163  20.727  0.0222  0.0712 -0.0678
 4701DDP     P228203  21.025  27.822  20.954 -0.0992 -0.0455  0.1333
 4701DDP     C228204  21.019  28.098  21.367 -0.0605 -0.1281  0.2520
 4701DDP     C328205  22.189  28.140  20.727  0.1899 -0.1973 -0.0245
 4701DDP     C428206  21.254  27.873  20.241 -0.1899 -0.1399  0.1324
 4702DDP     C128207  23.294   0.216  22.321 -0.0336  0.1999 -0.0538
 4702DDP     P128208  22.739   0.367  22.425  0.0403 -0.1821 -0.0176
 4702DDP     P228209  23.519  30.264  22.653 -0.1669 -0.0159  0.1824
 4702DDP     C228210  23.488  29.875  22.830 -0.2585 -0.1160 -0.3655
 4702DDP     C328211  22.405   0.371  22.105 -0.2716 -0.0220 -0.1207
 4702DDP     C428212  23.483   0.326  22.027 -0.5161 -0.0338 -0.1248
 4703DDP     C128213   9.813  27.203   8.274 -0.0469  0.0625 -0.2624
 4703DDP     P128214   9.734  27.550   8.035  0.2023  0.3682 -0.1545
 4703DDP     P228215   9.987  27.272   8.688 -0.1525 -0.1587 -0.3494
 4703DDP     C228216  10.034  27.124   9.105  0.0507  0.1186  0.3025
 4703DDP     C328217   9.427  27.764   7.831 -0.1696  0.1523 -0.3723
 4703DDP     C428218   9.560  26.888   8.289 -0.1135 -0.1851  0.3529
 4704DDP     C128219  25.999   7.833   2.807 -0.4409  0.2230  0.0119
 4704DDP     P128220  26.270   8.109   3.067 -0.1265  0.2431  0.0067
 4704DDP     P228221  25.864   7.995   2.437 -0.0779 -0.1337  0.3202
 4704DDP     C228222  26.015   7.946   1.975 -0.3128 -0.1064  0.0351
 4704DDP     C328223  26.619   8.395   2.915 -0.1061 -0.2341 -0.0619
 4704DDP     C428224  25.848   7.492   2.995  0.0980 -0.0577  0.1795
 4705DDP     C128225  16.138   9.659   4.946 -0.1316 -0.0504  0.1186
 4705DDP     P128226  16.347   9.175   4.795 -0.3338 -0.3043  0.0555
 4705DDP     P228227  16.401   9.996   5.310  0.0499  0.0580 -0.1580
 4705DDP     C228228  16.933   9.968   5.435 -0.1975 -0.0680 -0.3059
 4705DDP     C328229  16.646   9.106   4.646 -0.0130 -0.0226 -0.1145
 4705DDP     C428230  16.004   9.953   4.628  0.4624 -0.1613  0.0197
 4706DDP     C128231  11.603  18.629   8.123  0.0149  0.3971  0.2044
 4706DDP     P128232  11.719  18.372   7.843 -0.0562  0.0213 -0.0554
 4706DDP     P228233  11.569  19.106   8.111 -0.0647 -0.2826 -0.2767
 4706DDP     C228234  11.417  19.462   8.142 -0.1482  0.2011  0.3760
 4706DDP     C328235  11.831  18.508   7.437  0.0365 -0.0469 -0.3322
 4706DDP     C428236  11.237  18.457   8.382 -0.1031  0.2045  0.1446
 4707DDP     C128237  23.088   5.979  14.729 -0.1543 -0.0584 -0.0018
 4707DDP     P128238  22.898   5.794  15.081 -0.0204  0.3344 -0.2545
 4707DDP     P228239  22.898   5.742  14.315  0.2395  0.1556 -0.2741
 4707DDP     C228240  22.882   5.502  13.938 -0.0723  0.1142  0.2698
 4707DDP     C328241  22.741   5.333  15.218  0.0714  0.2742  0.1309
 4707DDP     C428242  23.322   6.343  14.678  0.2290  0.0747 -0.1562
 4708DDP     C128243  16.759   2.379  11.154  0.0286  0.2705  0.1483
 4708DDP     P128244  16.736   2.697  11.498  0.0169  0.0711  0.1688
 4708DDP     P228245  17.043   2.060  11.325 -0.5100 -0.0981  0.0829
 4708DDP     C228246  17.121   1.652  11.539 -0.0413 -0.3614 -0.2014
 4708DDP     C328247  16.505   2.942  11.812  0.0872 -0.1572 -0.1973
 4708DDP     C428248  16.741   2.443  10.677 -0.3465  0.2201  0.4652
 4709DDP     C128249   7.121  11.527  24.434 -0.1918 -0.1837  0.2683
 4709DDP     P128250   6.892  11.461  24.635  0.1401  0.1461 -0.3215
 4709DDP     P228251   6.953  11.781  24.004 -0.1695 -0.2032 -0.1990
 4709DDP     C228252   7.109  12.055  23.625 -0.3209 -0.0361 -0.0436
 4709DDP     C328253   6.917  11.190  24.891 -0.1039 -0.0568  0.0225
 4709DDP     C428254   7.468  11.579  24.612 -0.1811 -0.0621 -0.0447
 4710DDP     C128255  18.343   1.234   6.530  0.0022  0.0710 -0.1838
 4710DDP     P128256  18.437   1.148   6.848 -0.3073  0.2215 -0.2645
 4710DDP     P228257  18.618   1.168   6.213  0.1664 -0.0735  0.0412
 4710DDP     C228258  18.899   1.515   5.936 -0.1229  0.2677 -0.3407
 4710DDP     C328259  18.630   0.844   7.036  0.0307  0.2875  0.2790
 4710DDP     C428260  17.972   1.107   6.465  0.1673 -0.3143  0.2643
 4711DDP     C128261   8.543  25.906  18.368 -0.2024  0.1164 -0.0167
 4711DDP     P128262   8.833  26.264  18.540 -0.2218  0.1758 -0.0066
 4711DDP     P228263   8.659  25.459  18.423  0.2401  0.0175  0.2950
 4711DDP     C228264   8.672  24.968  18.284  0.0282 -0.1093 -0.1998
 4711DDP     C328265   8.795  26.465  18.949  0.4457 -0.2098  0.1604
 4711DDP     C428266   8.247  26.037  18.036  0.0626  0.1081  0.5923
 4712DDP     C128267   5.883  17.120  17.682  0.0680  0.0937  0.4249
 4712DDP     P128268   6.012  16.906  17.308  0.0804 -0.0180  0.0156
 4712DDP     P228269   5.984  17.530  17.950  0.2085  0.0840  0.1909
 4712DDP     C228270   6.334  17.656  18.027  0.4763 -0.1947  0.1356
 4712DDP     C328271   6.166  16.464  17.283  0.0422 -0.1620 -0.0015
 4712DDP     C428272   5.807  16.861  18.050 -0.1890  0.1715  0.0880
 4713DDP     C128273  26.283  29.429  13.661 -0.1093  0.2054 -0.0942
 4713DDP     P128274  26.140  29.179  13.318  0.2964  0.1401 -0.0187
 4713DDP     P228275  26.565  29.506  13.927 -0.0321  0.1080 -0.1851
 4713DDP     C228276  26.655  29.898  14.206  0.2461  0.2098  0.0222
 4713DDP     C328277  25.848  28.806  12.974 -0.1078 -0.2691 -0.1142
 4713DDP     C428278  26.109  29.713  13.440 -0.1667 -0.1474 -0.2823
 4714DDP     C128279   2.975  20.627  24.177 -0.0631 -0.1285 -0.1147
 4714DDP     P128280   2.966  21.019  24.014  0.1171 -0.0836 -0.0752
 4714DDP     P228281   3.333  20.624  24.413  0.0820 -0.1489 -0.3330
 4714DDP     C228282   3.538  20.769  24.792 -0.1806  0.0141 -0.1755
 4714DDP     C328283   3.270  21.253  23.919  0.2128  0.0164 -0.2802
 4714DDP     C428284   2.733  20.333  24.239  0.1365  0.0353 -0.0249
 4715DDP     C128285   6.681  30.311  18.459 -0.2275  0.1586 -0.0785
 4715DDP     P128286   6.690   0.029  18.064 -0.0650 -0.0111 -0.0733
 4715DDP     P228287   6.843  29.932  18.660  0.0198  0.4151 -0.2280
 4715DDP     C228288   6.825  29.560  18.915 -0.3109 -0.1836  0.2276
 4715DDP     C328289   6.720  30.223  17.748 -0.0472 -0.1013 -0.0338
 4715DDP     C428290   6.431   0.346  18.609  0.0210  0.2296  0.1872
 4716DDP     C128291   7.587  17.971  10.710 -0.2368  0.0312  0.2028
 4716DDP     P128292   8.026  17.771  10.532 -0.0934  0.1217  0.1296
 4716DDP     P228293   7.674  18.435  10.766  0.1586  0.0153 -0.2500
 4716DDP     C228294   7.517  18.802  11.075  0.1129  0.0347  0.3226
 4716DDP     C328295   8.417  17.549  10.415  0.0270  0.0564 -0.1142
 4716DDP     C428296   7.276  17.665  10.826 -0.0515 -0.0715  0.3149
 4717DDP     C128297  13.737   1.409  11.256  0.2098  0.1866  0.0808
 4717DDP     P128298  13.758   1.510  10.816  0.2652  0.1179  0.0038
 4717DDP     P228299  14.200   1.362  11.263  0.1439  0.1557  0.0975
 4717DDP     C228300  14.545   1.129  11.441  0.3112  0.1739 -0.3282
 4717DDP     C328301  13.685   1.534  10.352 -0.1394 -0.2817 -0.3021
 4717DDP     C428302  13.339   1.397  11.402 -0.1338  0.1226 -0.0198
 4718DDP     C128303   5.740   1.500  24.507 -0.1173 -0.1211  0.1944
 4718DDP     P128304   5.572   1.937  24.465  0.1268 -0.2658  0.0490
 4718DDP     P228305   6.053   1.603  24.899 -0.1189 -0.0797 -0.1385
 4718DDP     C228306   6.031   1.806  25.370 -0.2219 -0.3197 -0.0284
 4718DDP     C328307   5.414   2.361  24.641  0.2422  0.1276  0.0555
 4718DDP     C428308   5.767   1.099  24.254  0.0533  0.0118 -0.0307
 4719DDP     C128309   4.481  17.707  16.452  0.1312  0.0627  0.3565
 4719DDP     P128310   4.799  17.395  16.534 -0.2431 -0.0176  0.0533
 4719DDP     P228311   4.153  17.659  16.815  0.0030 -0.2383 -0.1538
 4719DDP     C228312   3.919  17.646  17.214 -0.4014 -0.1704 -0.2687
 4719DDP     C328313   5.058  17.207  16.877 -0.0056 -0.0507  0.3233
 4719DDP     C428314   4.425  18.058  16.121 -0.2158 -0.0351  0.2644
 4720DDP     C128315  16.251  10.769  13.179 -0.1688  0.1382  0.2275
 4720DDP     P128316  16.608  11.112  13.127  0.2743  0.0142  0.2080
 4720DDP     P228317  15.853  10.982  12.968 -0.1601 -0.0599  0.1032
 4720DDP     C228318  15.624  11.319  13.066  0.1911  0.0143  0.1186
 4720DDP     C328319  16.546  11.534  12.933 -0.2107  0.0006  0.1773
 4720DDP     C428320  16.124  10.456  13.471 -0.4014 -0.4482  0.0721
 4721DDP     C128321  23.666  25.073  13.223  0.0467 -0.2806 -0.1264
 4721DDP     P128322  23.829  25.249  12.832  0.1060 -0.2167  0.0249
 4721DDP     P228323  23.990  24.826  13.451  0.0260  0.0454  0.0446
 4721DDP     C228324  24.270  24.555  13.358 -0.2107  0.0841  0.1209
 4721DDP     C328325  23.949  25.643  12.647 -0.4282  0.0936 -0.0271
 4721DDP     C428326  23.323  25.321  13.418  0.2393 -0.0711  0.2969
 4722DDP     C128327  18.877   8.836   2.482 -0.1885  0.2477 -0.2450
 4722DDP     P128328  18.527   9.160   2.590  0.1529 -0.0673 -0.0625
 4722DDP     P228329  18.832   8.460   2.296 -0.0375 -0.1857  0.0143
 4722DDP     C228330  18.597   8.010   2.235  0.1421  0.3220 -0.0362
 4722DDP     C328331  18.451   9.480   2.981  0.1604 -0.2114  0.0277
 4722DDP     C428332  19.355   9.006   2.461  0.0926 -0.2809  0.1770
 4723DDP     C128333  29.398  13.806  14.919  0.1175 -0.0970 -0.2223
 4723DDP     P128334  29.648  14.137  14.881 -0.2187 -0.0413  0.0253
 4723DDP     P228335  28.899  13.824  14.825  0.0139  0.0144  0.0448
 4723DDP     C228336  28.554  13.829  14.580 -0.3283  0.0547  0.3183
 4723DDP     C328337  30.033  14.289  14.872 -0.0480  0.1220 -0.0894
 4723DDP     C428338  29.429  13.385  15.151  0.1053 -0.1794  0.2742
 4724DDP     C128339   9.093  11.665   2.948 -0.1933  0.1926 -0.2107
 4724DDP     P128340   9.264  11.240   3.143  0.2282  0.0094 -0.0365
 4724DDP     P228341   8.898  11.993   2.828 -0.2119  0.1773 -0.0293
 4724DDP     C228342   9.261  12.284   2.625  0.0778 -0.1735 -0.0801
 4724DDP     C328343   9.561  10.965   3.161  0.2374 -0.0381  0.0711
 4724DDP     C428344   9.321  11.945   3.182 -0.2567 -0.0652 -0.0445
 4725DDP     C128345  26.436  14.384  22.106 -0.0317 -0.1126 -0.1483
 4725DDP     P128346  26.521  14.129  22.629 -0.1087  0.0262 -0.0172
 4725DDP     P228347  26.060  14.490  21.878  0.1034  0.1395 -0.3458
 4725DDP     C228348  25.727  14.229  21.647 -0.2739  0.1841  0.0581
 4725DDP     C328349  26.680  13.703  22.776  0.1737  0.2028 -0.1329
 4725DDP     C428350  26.842  14.348  21.823  0.2604 -0.1901  0.0577
 4726DDP     C128351  16.919  21.646  29.563  0.4764 -0.0312  0.2243
 4726DDP     P128352  16.876  21.392  29.139 -0.0242 -0.0567  0.1631
 4726DDP     P228353  17.287  21.959  29.617  0.3289 -0.0195 -0.3439
 4726DDP     C228354  17.677  21.892  29.761  0.3071  0.1354 -0.0228
 4726DDP     C328355  17.060  20.905  29.137 -0.1880  0.0501 -0.1047
 4726DDP     C428356  16.583  21.546  29.851 -0.1431  0.0762 -0.0927
 4727DDP     C128357   7.147  16.428   8.693  0.1336  0.2157  0.0001
 4727DDP     P128358   6.772  16.366   8.472 -0.0543  0.2747  0.0236
 4727DDP     P228359   7.071  16.670   9.124  0.0423 -0.0652 -0.0466
 4727DDP     C228360   6.960  16.964   9.467  0.1036 -0.0311 -0.1687
 4727DDP     C328361   6.372  16.566   8.221  0.0857 -0.0493  0.1891
 4727DDP     C428362   7.559  16.595   8.461 -0.0583  0.2113  0.2741
 4728DDP     C128363  23.607  16.832  15.365 -0.2792 -0.0032 -0.1136
 4728DDP     P128364  23.960  16.864  15.783 -0.0171  0.1964  0.0255
 4728DDP     P228365  23.394  16.437  15.352  0.1443 -0.1241  0.1905
 4728DDP     C228366  23.030  16.188  15.352 -0.1921 -0.2277 -0.1833
 4728DDP     C328367  24.164  17.235  15.912 -0.1232 -0.1220  0.0662
 4728DDP     C428368  23.575  17.134  15.077  0.2870  0.2964 -0.0142
 4729DDP     C128369  21.971  21.336  17.633  0.0288 -0.0034 -0.1617
 4729DDP     P128370  21.583  21.153  17.713 -0.0971 -0.1905  0.2215
 4729DDP     P228371  22.058  21.709  17.372  0.1276 -0.2358  0.0961
 4729DDP     C228372  22.157  22.154  17.331 -0.0302  0.2305 -0.3560
 4729DDP     C328373  21.148  21.108  17.792  0.0848  0.2719 -0.0759
 4729DDP     C428374  22.347  21.053  17.800  0.1578  0.0836  0.0948
 4730DDP     C128375  14.262  27.020  10.896  0.1384 -0.1392  0.0497
 4730DDP     P128376  14.035  26.953  11.247  0.2447 -0.2120 -0.2896
 4730DDP     P228377  14.659  26.990  10.920 -0.4136 -0.1336  0.2006
 4730DDP     C228378  14.963  27.155  11.146 -0.1247 -0.2480  0.1436
 4730DDP     C328379  13.892  27.036  11.646 -0.1297  0.2357 -0.0885
 4730DDP     C428380  13.937  27.081  10.588  0.1582  0.1147  0.1421
 4731DDP     C128381  20.702   4.055  30.089  0.1116  0.1092 -0.1360
 4731DDP     P128382  21.201   4.250  30.039 -0.1912 -0.2331 -0.1238
 4731DDP     P228383  20.800   3.818   0.145 -0.1052  0.0546 -0.0462
 4731DDP     C228384  21.183   3.796   0.470 -0.0482  0.0503  0.0072
 4731DDP     C328385  21.603   4.498  30.030 -0.1709 -0.0118  0.3421
 4731DDP     C428386  20.226   4.186  29.984  0.2452 -0.1402 -0.2317
 4732DDP     C128387  20.838   7.274   2.849 -0.0173 -0.1307 -0.1972
 4732DDP     P128388  21.078   7.114   3.112  0.1673  0.2567  0.0101
 4732DDP     P228389  21.070   7.455   2.584  0.1424 -0.1927 -0.0234
 4732DDP     C228390  21.055   7.824   2.412  0.0177  0.1624  0.1463
 4732DDP     C328391  21.207   6.727   3.260 -0.1083  0.2438 -0.3552
 4732DDP     C428392  20.456   7.295   3.091 -0.0484  0.2270 -0.2782
 4733DDP     C128393   4.022   6.670  25.746 -0.0487  0.1608  0.1478
 4733DDP     P128394   4.306   6.248  25.759 -0.0003 -0.1247  0.0416
 4733DDP     P228395   3.859   7.075  25.999 -0.0504  0.1313  0.1541
 4733DDP     C228396   3.379   7.253  26.142 -0.1427  0.1075  0.2600
 4733DDP     C328397   4.754   6.140  25.770  0.3372 -0.1796 -0.2653
 4733DDP     C428398   3.833   6.571  25.425 -0.0289  0.0625  0.0591
 4734DDP     C128399  17.610  12.664   3.529 -0.0103 -0.1381  0.1249
 4734DDP     P128400  17.921  12.960   3.330 -0.1011 -0.1019  0.0914
 4734DDP     P228401  17.230  12.735   3.718 -0.1216  0.4007  0.1366
 4734DDP     C228402  16.716  12.728   3.638  0.0536 -0.2305  0.2804
 4734DDP     C328403  18.177  13.250   3.418  0.0109 -0.3857  0.2152
 4734DDP     C428404  17.813  12.400   3.243 -0.3676 -0.0699 -0.2528
 4735DDP     C128405   1.552  14.813  10.505  0.0791  0.1010  0.1479
 4735DDP     P128406   1.099  14.839  10.518  0.0995  0.2052  0.0224
 4735DDP     P228407   1.815  15.115  10.665  0.0943  0.2568  0.1148
 4735DDP     C228408   2.102  14.879  10.492  0.0618 -0.0189  0.1430
 4735DDP     C328409   0.664  14.683  10.371  0.4576 -0.0510  0.2649
 4735DDP     C428410   1.722  14.653  10.194 -0.1551  0.1108  0.2075
 4736DDP     C128411  18.662  16.847  26.753  0.2056  0.0068 -0.1142
 4736DDP     P128412  18.452  16.458  26.940  0.0784 -0.0340  0.1687
 4736DDP     P228413  18.434  17.075  26.478  0.1909  0.0163  0.0932
 4736DDP     C228414  18.399  17.436  26.222  0.2041 -0.3669  0.1698
 4736DDP     C328415  18.384  16.495  27.434  0.0103 -0.0496  0.2806
 4736DDP     C428416  19.019  17.123  26.916 -0.1995 -0.1545  0.1926
 4737DDP     C128417  20.334   9.667  12.368  0.1240 -0.0154 -0.0474
 4737DDP     P128418  20.368   9.971  12.746 -0.1018 -0.2461  0.3148
 4737DDP     P228419  19.929   9.871  12.081  0.0341 -0.1449 -0.0346
 4737DDP     C228420  19.486   9.874  11.881 -0.1038  0.0239 -0.0976
 4737DDP     C328421  20.544  10.146  13.085 -0.3510  0.1394 -0.1404
 4737DDP     C428422  20.337   9.215  12.320 -0.1007 -0.0009 -0.0967
 4738DDP     C128423  28.047   4.095   5.069 -0.1326  0.1299  0.3333
 4738DDP     P128424  27.891   3.809   5.305  0.0706  0.1979 -0.0284
 4738DDP     P228425  28.380   4.457   5.183  0.3641 -0.0504  0.0611
 4738DDP     C228426  28.479   4.627   5.561 -0.0875  0.0871 -0.3453
 4738DDP     C328427  27.657   3.884   5.730  0.3695 -0.1725  0.0290
 4738DDP     C428428  27.858   3.963   4.737 -0.1975  0.1360  0.2242
 4739DDP     C128429  30.019   2.957  13.558  0.0728  0.0759 -0.0066
 4739DDP     P128430  30.313   3.240  13.552 -0.0632  0.4275  0.0567
 4739DDP     P228431  29.898   2.872  13.109  0.1273 -0.2782 -0.2265
 4739DDP     C228432  30.019   2.485  12.776  0.0833 -0.3311  0.1130
 4739DDP     C328433   0.380   3.456  13.515  0.0092  0.0035  0.0684
 4739DDP     C428434  29.701   3.081  13.810  0.0519  0.4089 -0.3057
 4740DDP     C128435  18.646  19.406  14.830  0.2038  0.3262 -0.0488
 4740DDP     P128436  18.482  19.730  14.615 -0.0423  0.0524 -0.1171
 4740DDP     P228437  18.510  19.456  15.215  0.1465 -0.3371 -0.1027
 4740DDP     C228438  18.259  19.684  15.572 -0.2285  0.0582 -0.0304
 4740DDP     C328439  18.241  20.010  14.525  0.0309  0.5203 -0.1620
 4740DDP     C428440  18.904  19.082  14.760  0.0397 -0.0045  0.1646
 4741DDP     C128441  17.976  20.289  19.123  0.0255  0.3601  0.0688
 4741DDP     P128442  18.172  20.682  19.051 -0.0869 -0.0278  0.0119
 4741DDP     P228443  18.209  20.042  19.368 -0.0110  0.0212  0.2414
 4741DDP     C228444  18.617  20.051  19.650  0.2389  0.1475  0.1248
 4741DDP     C328445  18.116  20.984  18.798  0.2356  0.2664 -0.2903
 4741DDP     C428446  17.570  20.141  18.939  0.1599  0.0250 -0.0508
 4742DDP     C128447  14.731  25.413   6.906 -0.0315 -0.3045 -0.3154
 4742DDP     P128448  14.326  25.274   6.771  0.2354  0.1614  0.3391
 4742DDP     P228449  14.696  25.825   6.725 -0.1031 -0.3525  0.0267
 4742DDP     C228450  14.563  26.245   6.498 -0.0830 -0.1441 -0.3578
 4742DDP     C328451  14.140  25.056   6.444  0.2762  0.3177  0.2084
 4742DDP     C428452  15.053  25.183   7.112 -0.1579 -0.0151  0.0483
 4743DDP     C128453  21.712  20.530  28.111 -0.2175  0.0012 -0.0189
 4743DDP     P128454  22.147  20.436  28.317  0.2127  0.0620  0.0492
 4743DDP     P228455  21.452  20.823  28.012 -0.1054 -0.1459  0.2856
 4743DDP     C228456  21.130  20.976  27.715  0.1484 -0.1945 -0.0206
 4743DDP     C328457  22.472  20.598  28.543  0.2162 -0.1659 -0.0817
 4743DDP     C428458  21.478  20.188  28.122 -0.1507  0.0788  0.0641
 4744DDP     C128459  25.080  14.470   7.847 -0.0874 -0.4662 -0.1883
 4744DDP     P128460  24.955  14.695   8.152  0.2268  0.1871 -0.3162
 4744DDP     P228461  24.834  14.498   7.515 -0.1362 -0.3418  0.1989
 4744DDP     C228462  24.335  14.578   7.523  0.0862  0.4209 -0.1953
 4744DDP     C328463  24.790  14.468   8.474 -0.2099  0.0704  0.2824
 4744DDP     C428464  25.132  14.094   8.025 -0.0485 -0.1595 -0.0330
 4745DDP     C128465  24.959   2.245   1.497 -0.0415  0.1572 -0.0333
 4745DDP     P128466  24.492   2.000   1.358 -0.2426 -0.0802 -0.0827
 4745DDP     P228467  25.115   2.171   1.993 -0.1497  0.0276  0.0608
 4745DDP     C228468  24.966   2.156   2.444  0.2858  0.1654 -0.1361
 4745DDP     C328469  24.249   1.839   1.050 -0.0645 -0.1619  0.0606
 4745DDP     C428470  25.246   2.104   1.304 -0.0449 -0.0990 -0.0524
 4746DDP     C128471  16.395   2.620  19.812  0.1096  0.0368  0.2096
 4746DDP     P128472  16.229   2.960  19.764  0.0789  0.0236  0.1657
 4746DDP     P228473  16.357   2.419  19.443  0.0114 -0.1987 -0.3413
 4746DDP     C228474  15.965   2.303  19.342  0.2202  0.1024  0.1574
 4746DDP     C328475  15.840   3.194  19.726  0.0736  0.0314  0.1141
 4746DDP     C428476  16.634   2.542  20.277  0.2935  0.0535 -0.0319
 4747DDP     C128477   7.114   1.514  17.800  0.1158  0.0618 -0.1049
 4747DDP     P128478   6.955   1.265  17.413 -0.2929 -0.3497 -0.1378
 4747DDP     P228479   6.845   1.526  18.169  0.0351 -0.0473  0.3710
 4747DDP     C228480   6.860   1.588  18.593 -0.2344 -0.4055 -0.0713
 4747DDP     C328481   6.688   0.859  17.581  0.1002 -0.0293 -0.0577
 4747DDP     C428482   7.359   1.878  17.588  0.0517  0.2738  0.2019
 4748DDP     C128483  17.259   8.509   1.976  0.1547 -0.0234  0.3425
 4748DDP     P128484  17.419   8.158   2.205 -0.0577 -0.0616 -0.0979
 4748DDP     P228485  17.146   8.367   1.544 -0.3145 -0.2810 -0.1728
 4748DDP     C228486  16.958   8.040   1.316 -0.0277  0.1843 -0.0770
 4748DDP     C328487  17.833   8.114   2.357 -0.5096  0.2159 -0.3278
 4748DDP     C428488  17.375   8.919   1.905 -0.0623 -0.0981 -0.0383
 4749DDP     C128489  28.461  11.829   4.666  0.1371  0.2073 -0.0958
 4749DDP     P128490  28.747  12.066   4.373  0.0568 -0.0260  0.0160
 4749DDP     P228491  28.509  11.880   5.094 -0.1077 -0.2962 -0.0886
 4749DDP     C228492  28.411  12.283   5.414 -0.0116  0.0439  0.0258
 4749DDP     C328493  28.663  12.161   3.966  0.1801  0.1111  0.1031
 4749DDP     C428494  28.332  11.415   4.549  0.2352 -0.2796  0.1024
 4750DDP     C128495  10.726  24.898  25.695  0.1737  0.0098  0.0367
 4750DDP     P128496  10.798  24.438  25.622 -0.1069  0.0452  0.0020
 4750DDP     P228497  10.999  25.226  25.709  0.0941 -0.0747  0.0554
 4750DDP     C228498  11.185  25.504  25.413  0.0154 -0.1377  0.0752
 4750DDP     C328499  10.486  24.149  25.669  0.0802 -0.2401  0.3717
 4750DDP     C428500  10.309  25.041  25.935 -0.2689  0.1592  0.2817
 4751DDP     C128501   7.372  18.497  17.140  0.2726  0.1743  0.0250
 4751DDP     P128502   7.519  18.453  17.548 -0.2386  0.1870  0.3586
 4751DDP     P228503   7.258  18.276  16.795 -0.1787  0.4619 -0.0607
 4751DDP     C228504   7.529  18.219  16.364 -0.0895  0.3514 -0.3586
 4751DDP     C328505   7.898  18.640  17.872 -0.0129  0.2355 -0.0425
 4751DDP     C428506   7.093  18.878  17.247  0.1522  0.1044  0.0071
 4752DDP     C128507   9.823  24.156   5.070 -0.1255  0.0877  0.0959
 4752DDP     P128508   9.933  23.661   5.149 -0.0542 -0.2423  0.0222
 4752DDP     P228509   9.454  24.345   4.747  0.0136  0.0092 -0.1289
 4752DDP     C228510   9.119  24.542   4.513 -0.0624  0.0557  0.0844
 4752DDP     C328511  10.319  23.473   5.097 -0.1055  0.1289 -0.1403
 4752DDP     C428512  10.031  24.414   5.291  0.1634  0.1009 -0.0236
 4753DDP     C128513   6.428  25.233  16.904  0.0760  0.0240  0.2440
 4753DDP     P128514   6.377  25.143  17.242  0.2340  0.2812 -0.0338
 4753DDP     P228515   6.802  25.525  16.877  0.0645  0.1250 -0.1351
 4753DDP     C228516   6.978  25.857  17.013 -0.1357  0.1367 -0.1459
 4753DDP     C328517   6.638  25.065  17.591  0.5119  0.0616 -0.3447
 4753DDP     C428518   6.387  24.936  16.555 -0.1047  0.4040 -0.1064
 4754DDP     C128519   5.733   5.064  23.226 -0.1314 -0.1316  0.1248
 4754DDP     P128520   5.406   4.926  22.954  0.2382 -0.0630 -0.0458
 4754DDP     P228521   5.673   5.500  23.278 -0.2817 -0.0053  0.0105
 4754DDP     C228522   5.824   5.854  23.515  0.0528 -0.0304  0.2037
 4754DDP     C328523   5.134   4.929  22.586  0.2152 -0.2490 -0.0590
 4754DDP     C428524   5.742   4.702  23.491  0.2204  0.0242  0.3346
 4755DDP     C128525   3.392   3.439  14.243 -0.3483  0.2866  0.1326
 4755DDP     P128526   3.228   3.831  14.218  0.3463  0.0548  0.3109
 4755DDP     P228527   3.189   3.112  14.523 -0.2636 -0.1040 -0.4053
 4755DDP     C228528   2.792   3.053  14.450  0.2260 -0.2881  0.1862
 4755DDP     C328529   3.253   4.213  14.599  0.1040 -0.0777  0.1635
 4755DDP     C428530   3.787   3.466  14.047  0.3098 -0.0512 -0.0757
 4756DDP     C128531  13.590   2.235   0.237  0.0709 -0.1236  0.0907
 4756DDP     P128532  13.906   2.277  30.213  0.1842  0.0994 -0.0151
 4756DDP     P228533  13.451   2.508   0.388 -0.0439  0.2854 -0.2076
 4756DDP     C228534  12.972   2.641   0.456 -0.2144 -0.0909 -0.2885
 4756DDP     C328535  14.396   2.131  30.203  0.4432 -0.0891 -0.3159
 4756DDP     C428536  13.469   1.857   0.050 -0.1025 -0.0686  0.0139
 4757DDP     C128537  27.902  25.142  14.322  0.2489 -0.1186  0.1678
 4757DDP     P128538  28.041  25.077  14.710  0.0568  0.0158  0.0971
 4757DDP     P228539  27.645  24.772  14.319 -0.0003  0.0488  0.1840
 4757DDP     C228540  27.754  24.413  14.375  0.1986  0.2010  0.1080
 4757DDP     C328541  28.406  24.810  14.970  0.0696  0.0441 -0.0188
 4757DDP     C428542  27.989  25.549  14.098  0.0139  0.0446  0.0893
 4758DDP     C128543   4.711   4.243   7.940 -0.3772 -0.1375 -0.0078
 4758DDP     P128544   4.832   4.686   7.954 -0.2924  0.1204  0.0810
 4758DDP     P228545   4.529   4.346   7.624  0.1859  0.0617  0.1370
 4758DDP     C228546   4.532   4.383   7.169 -0.2191  0.4989 -0.1974
 4758DDP     C328547   4.711   5.011   8.150  0.1618 -0.0104 -0.0934
 4758DDP     C428548   4.762   3.865   8.083 -0.0272  0.3678 -0.1308
 4759DDP     C128549  18.846  20.457  12.717  0.0695  0.0915  0.0256
 4759DDP     P128550  19.144  20.229  12.911 -0.1605 -0.1806  0.2603
 4759DDP     P228551  18.349  20.287  12.645 -0.2820 -0.0434 -0.3578
 4759DDP     C228552  17.917  20.227  12.566 -0.1899 -0.1840  0.0007
 4759DDP     C328553  19.609  20.199  12.882 -0.1436  0.0123 -0.1524
 4759DDP     C428554  18.698  20.915  12.535  0.0105 -0.1334 -0.0262
 4760DDP     C128555  14.827  19.915  10.640  0.1014  0.2092 -0.0648
 4760DDP     P128556  14.430  19.998  10.831 -0.0647 -0.0156 -0.0944
 4760DDP     P228557  14.946  20.051  10.229  0.1065 -0.1781  0.0435
 4760DDP     C228558  15.304  20.417  10.047 -0.1698  0.1040 -0.0748
 4760DDP     C328559  14.099  20.238  10.846 -0.0690 -0.0026 -0.0333
 4760DDP     C428560  15.055  19.690  10.999  0.2223 -0.0256 -0.1931
 4761DDP     C128561   2.086  16.946  21.860  0.0975  0.0643 -0.0209
 4761DDP     P128562   2.015  17.142  22.212  0.1048 -0.2376 -0.0495
 4761DDP     P228563   2.377  16.715  21.799 -0.2479  0.1190 -0.2419
 4761DDP     C228564   2.492  16.314  21.583  0.0943 -0.2455  0.0291
 4761DDP     C328565   1.680  17.386  22.380 -0.0629 -0.0918 -0.1890
 4761DDP     C428566   1.662  16.896  21.593  0.2063 -0.3382  0.0969
 4762DDP     C128567  12.110  28.532   7.480  0.2446 -0.0015  0.1084
 4762DDP     P128568  12.314  28.322   7.669  0.2567 -0.0073 -0.2990
 4762DDP     P228569  12.276  28.675   7.103  0.1907  0.0183  0.0263
 4762DDP     C228570  12.411  28.478   6.732  0.0987 -0.1127 -0.2847
 4762DDP     C328571  12.189  27.975   7.982  0.0516  0.0097  0.2642
 4762DDP     C428572  11.684  28.652   7.418  0.2250  0.5790  0.2097
 4763DDP     C128573  10.929   2.006   2.507 -0.0056  0.2555 -0.0231
 4763DDP     P128574  11.308   2.340   2.436  0.3176  0.0855  0.0853
 4763DDP     P228575  10.779   1.816   2.171 -0.0419  0.2040  0.1253
 4763DDP     C228576  10.365   1.840   1.987  0.1569 -0.1038  0.0978
 4763DDP     C328577  11.408   2.433   1.939  0.0084 -0.1234  0.1378
 4763DDP     C428578  10.664   1.953   2.941  0.0305 -0.0137  0.1691
 4764DDP     C128579   6.048  10.474   1.195  0.1149  0.1517  0.0610
 4764DDP     P128580   5.956  10.133   1.055 -0.1228  0.4322 -0.3148
 4764DDP     P228581   5.793  10.817   1.280  0.2036  0.0542  0.3546
 4764DDP     C228582   5.477  11.030   1.444 -0.0868 -0.1148 -0.0961
 4764DDP     C328583   6.018   9.683   1.146 -0.0377 -0.0459 -0.0479
 4764DDP     C428584   6.528  10.468   1.179  0.1394  0.0264  0.1309
 4765DDP     C128585   9.420  20.828   2.592 -0.0469 -0.0453 -0.2260
 4765DDP     P128586   9.261  20.629   3.010 -0.1362  0.0117 -0.0896
 4765DDP     P228587   9.741  21.170   2.658  0.0039  0.1993  0.2330
 4765DDP     C228588   9.919  21.406   2.363 -0.0861  0.0511  0.1958
 4765DDP     C328589   8.978  20.843   3.222  0.0002  0.1508  0.0442
 4765DDP     C428590   9.384  20.770   2.115 -0.2289  0.0459 -0.1134
 4766DDP     C128591   9.340  20.738  16.840  0.0556 -0.1738 -0.0302
 4766DDP     P128592   9.032  20.964  16.515 -0.1613  0.1109 -0.1773
 4766DDP     P228593   9.633  20.998  17.151  0.2660 -0.1858  0.1528
 4766DDP     C228594   9.874  21.305  17.015  0.1115 -0.2547 -0.2280
 4766DDP     C328595   8.620  21.152  16.596  0.0715 -0.2235  0.2080
 4766DDP     C428596   9.501  20.197  16.767  0.2647  0.0530  0.0733
 4767DDP     C128597   6.351   1.092   5.273  0.0546 -0.1521  0.2791
 4767DDP     P128598   6.160   0.829   4.922  0.1702  0.2263  0.1308
 4767DDP     P228599   6.423   0.857   5.768  0.1495 -0.1795  0.0669
 4767DDP     C228600   6.348   0.329   5.764 -0.1627  0.0793 -0.3405
 4767DDP     C328601   6.267   0.899   4.447 -0.1881  0.0820  0.1915
 4767DDP     C428602   6.513   1.434   5.230 -0.2661  0.2209  0.1911
 4768DDP     C128603  25.414   8.577  27.306 -0.3830 -0.2012  0.2854
 4768DDP     P128604  25.857   8.638  27.525  0.0567  0.1197  0.1140
 4768DDP     P228605  25.103   8.906  27.324  0.2923 -0.0243  0.0755
 4768DDP     C228606  24.635   8.865  27.495  0.2420 -0.1721  0.0304
 4768DDP     C328607  26.005   9.028  27.529  0.0014 -0.0608  0.3707
 4768DDP     C428608  25.236   8.275  27.188 -0.1900  0.1074 -0.0228
 4769DDP     C128609  18.551  10.580  20.798 -0.1962 -0.1232 -0.0633
 4769DDP     P128610  18.875  10.588  20.739 -0.2321  0.0338  0.0259
 4769DDP     P228611  18.561  11.013  20.840 -0.1034  0.1863 -0.0162
 4769DDP     C228612  18.421  11.168  21.114  0.3728 -0.1733 -0.0949
 4769DDP     C328613  19.061  10.869  20.568  0.0910 -0.3174  0.2462
 4769DDP     C428614  18.228  10.309  20.733  0.3485  0.0753  0.3841
 4770DDP     C128615   3.637   1.467  16.193  0.0529 -0.0647 -0.1654
 4770DDP     P128616   3.660   1.797  16.519 -0.0976  0.0550  0.1015
 4770DDP     P228617   3.744   1.669  15.871  0.1024  0.1018 -0.1965
 4770DDP     C228618   3.747   1.954  15.693 -0.0871 -0.0068 -0.1677
 4770DDP     C328619   3.393   1.669  16.800  0.1085 -0.1369  0.0526
 4770DDP     C428620   3.509   1.048  16.111  0.0776 -0.1823  0.1125
 4771DDP     C128621   4.278  25.266   9.025 -0.0704  0.3746 -0.1028
 4771DDP     P128622   4.643  25.493   8.918  0.3728  0.0967 -0.0241
 4771DDP     P228623   3.952  25.423   8.864  0.0490 -0.1360  0.0589
 4771DDP     C228624   3.783  25.554   8.486  0.2576  0.2291  0.4826
 4771DDP     C328625   4.784  25.771   9.124 -0.0932 -0.0447  0.0821
 4771DDP     C428626   4.212  24.890   9.342  0.0696 -0.0912 -0.2522
 4772DDP     C128627  10.267   5.857  16.337  0.1339 -0.1598  0.0089
 4772DDP     P128628  10.266   5.352  16.258 -0.1790  0.1049  0.0361
 4772DDP     P228629  10.615   5.922  16.039 -0.1390 -0.1035  0.0198
 4772DDP     C228630  10.999   5.794  15.774 -0.3630 -0.0425 -0.1872
 4772DDP     C328631  10.085   4.944  16.530 -0.1032 -0.3937  0.0095
 4772DDP     C428632   9.859   6.074  16.341 -0.0586  0.0818 -0.0649
 4773DDP     C128633  16.303  29.245  24.828  0.0033  0.2936  0.1069
 4773DDP     P128634  16.342  29.652  24.745  0.3225 -0.1166 -0.1468
 4773DDP     P228635  15.954  29.009  24.544 -0.0120  0.0302  0.0420
 4773DDP     C228636  15.558  29.157  24.421 -0.2762  0.0256  0.1618
 4773DDP     C328637  16.385  30.002  24.615  0.1434  0.0893 -0.0866
 4773DDP     C428638  16.738  29.120  24.765  0.0835 -0.2459 -0.1185
 4774DDP     C128639  16.324  24.943  21.704 -0.1209  0.0381 -0.2126
 4774DDP     P128640  16.642  24.736  21.530  0.0096 -0.0150  0.3386
 4774DDP     P228641  16.190  25.388  21.606  0.3360  0.0310 -0.2464
 4774DDP     C228642  15.899  25.630  21.804  0.2104  0.0269 -0.0136
 4774DDP     C328643  16.684  24.258  21.695 -0.0736 -0.3233  0.1363
 4774DDP     C428644  16.148  24.620  21.979 -0.1889 -0.2165 -0.0691
 4775DDP     C128645  16.037   6.391   2.134  0.1791  0.1882  0.0634
 4775DDP     P128646  16.245   6.789   2.124 -0.0952  0.2182 -0.0587
 4775DDP     P228647  16.125   6.256   1.685 -0.1104 -0.0052 -0.0326
 4775DDP     C228648  15.912   6.422   1.347  0.0462 -0.0122 -0.1329
 4775DDP     C328649  16.431   7.270   2.113 -0.0570  0.1549 -0.0020
 4775DDP     C428650  15.691   6.211   2.407  0.0278 -0.2900 -0.1808
 4776DDP     C128651  24.012  14.396  18.775  0.0554 -0.0495  0.1822
 4776DDP     P128652  24.058  14.414  19.215  0.1214 -0.0198  0.2657
 4776DDP     P228653  24.427  14.411  18.503  0.2262 -0.0387  0.0965
 4776DDP     C228654  24.587  14.516  18.152  0.1429 -0.0445  0.1874
 4776DDP     C328655  23.900  14.726  19.581  0.1065  0.0429  0.4533
 4776DDP     C428656  23.580  14.490  18.574  0.2791 -0.1292  0.2027
 4777DDP     C128657  13.515  16.769  18.704  0.0345 -0.1184 -0.0890
 4777DDP     P128658  13.736  16.499  18.775  0.2102 -0.1441 -0.1107
 4777DDP     P228659  13.132  16.797  18.421  0.0035 -0.2864  0.0164
 4777DDP     C228660  12.765  16.814  18.246 -0.0492 -0.2708  0.1513
 4777DDP     C328661  14.221  16.496  18.917  0.0747  0.0193  0.1061
 4777DDP     C428662  13.469  17.200  19.046 -0.0297  0.2688 -0.1499
 4778DDP     C128663   5.617   9.972  19.294 -0.2112 -0.2171  0.2147
 4778DDP     P128664   5.242  10.011  19.622 -0.1122  0.0238 -0.0001
 4778DDP     P228665   5.863  10.365  19.178 -0.0704 -0.0710  0.1004
 4778DDP     C228666   6.331  10.342  19.349  0.0579 -0.0584  0.0315
 4778DDP     C328667   4.753  10.126  19.608  0.2411  0.1717 -0.1745
 4778DDP     C428668   5.758   9.669  18.941 -0.0387  0.0043 -0.1142
 4779DDP     C128669  28.543  11.955  23.128 -0.2649 -0.1177 -0.0943
 4779DDP     P128670  29.003  11.933  23.008 -0.0898  0.1798  0.2230
 4779DDP     P228671  28.318  12.259  23.449  0.1914  0.2418 -0.2420
 4779DDP     C228672  28.450  12.270  23.916 -0.1627  0.0709  0.0979
 4779DDP     C328673  29.149  11.843  22.634  0.0440  0.0665 -0.3876
 4779DDP     C428674  28.231  11.709  23.044 -0.0797 -0.2540  0.5384
 4780DDP     C128675   9.243   2.538  12.804 -0.0992  0.1449 -0.0110
 4780DDP     P128676   9.630   2.762  13.004  0.2321 -0.1523  0.0059
 4780DDP     P228677   9.046   2.224  12.800 -0.0082 -0.1009 -0.0104
 4780DDP     C228678   8.959   1.875  12.628  0.2176 -0.2561  0.1381
 4780DDP     C328679  10.032   2.791  13.250 -0.1474  0.4815 -0.1242
 4780DDP     C428680   8.934   2.724  12.497  0.2302  0.2676  0.1876
 4781DDP     C128681  26.552  28.947  20.462  0.2485  0.1880  0.1545
 4781DDP     P128682  26.976  28.872  20.735 -0.0438  0.2152 -0.1500
 4781DDP     P228683  26.451  29.331  20.654 -0.0633  0.4087  0.6420
 4781DDP     C228684  26.335  29.679  20.929 -0.2395 -0.1308 -0.0422
 4781DDP     C328685  27.400  28.978  20.826  0.1265 -0.1050 -0.1149
 4781DDP     C428686  26.206  28.733  20.417 -0.0107  0.2290  0.1886
 4782DDP     C128687   8.453  13.938   4.712 -0.0138  0.0010  0.1059
 4782DDP     P128688   8.465  13.999   4.198  0.0764 -0.1720 -0.1819
 4782DDP     P228689   8.078  14.047   4.892 -0.0001  0.1425 -0.0384
 4782DDP     C228690   7.688  14.290   5.024  0.1953 -0.2081 -0.3001
 4782DDP     C328691   8.727  13.893   3.885  0.0045  0.0772  0.0139
 4782DDP     C428692   8.752  13.812   4.930  0.1747 -0.0641  0.2406
 4783DDP     C128693  19.999  17.654  10.311 -0.1432 -0.0917 -0.0022
 4783DDP     P128694  19.705  17.634   9.968 -0.2664 -0.1217 -0.1680
 4783DDP     P228695  20.413  17.798  10.183 -0.1531 -0.0774  0.0298
 4783DDP     C228696  20.789  17.679   9.974  0.0276  0.1272  0.1428
 4783DDP     C328697  19.796  17.569   9.576  0.2136 -0.2102 -0.2570
 4783DDP     C428698  19.820  17.616  10.786  0.0171 -0.0939 -0.3019
 4784DDP     C128699  11.550  17.287   0.533 -0.1635 -0.2460 -0.1323
 4784DDP     P128700  11.370  17.056   0.855  0.0266 -0.3715 -0.3021
 4784DDP     P228701  11.348  17.694   0.502 -0.1028 -0.0444 -0.0880
 4784DDP     C228702  11.052  17.755   0.792 -0.0077  0.0315  0.2692
 4784DDP     C328703  11.505  17.042   1.277  0.1670  0.0636 -0.1375
 4784DDP     C428704  11.860  17.256   0.174 -0.3932 -0.1097 -0.0446
 4785DDP     C128705   3.897  11.771  14.552 -0.2090  0.0998 -0.2951
 4785DDP     P128706   3.822  11.371  14.747  0.2109  0.1094  0.2011
 4785DDP     P228707   3.479  11.979  14.612  0.1372  0.2506 -0.0607
 4785DDP     C228708   2.963  11.982  14.837  0.0720  0.2344  0.1432
 4785DDP     C328709   3.624  11.030  14.803  0.0480  0.1895  0.0134
 4785DDP     C428710   4.187  12.093  14.404  0.2716  0.0947  0.2096
 4786DDP     C128711  19.284  22.163  25.073  0.3171  0.1936  0.1398
 4786DDP     P128712  19.486  21.878  25.389 -0.1145 -0.1330  0.0818
 4786DDP     P228713  19.272  22.246  24.660  0.2132 -0.1974 -0.0260
 4786DDP     C228714  19.580  22.263  24.349  0.0544  0.1538  0.1662
 4786DDP     C328715  19.791  21.726  25.622  0.0928  0.0482 -0.0203
 4786DDP     C428716  19.192  22.608  25.331  0.1410  0.2541  0.0194
 4787DDP     C128717   2.282  14.009   7.047 -0.1284 -0.1976 -0.0572
 4787DDP     P128718   2.300  13.545   7.045  0.1439 -0.1550 -0.0793
 4787DDP     P228719   2.374  14.362   7.339 -0.0129 -0.0681 -0.0305
 4787DDP     C228720   2.255  14.675   7.647  0.0968  0.1864  0.1324
 4787DDP     C328721   2.338  13.114   7.228  0.0618  0.2227 -0.0569
 4787DDP     C428722   2.271  14.363   6.687  0.2586 -0.0825 -0.3389
 4788DDP     C128723  11.422  16.699   3.501 -0.0371  0.0006  0.2812
 4788DDP     P128724  11.204  16.439   3.352  0.1089  0.1361 -0.1661
 4788DDP     P228725  11.377  16.835   3.973 -0.2218 -0.1870  0.1815
 4788DDP     C228726  11.239  17.038   4.427  0.0569 -0.0353  0.2407
 4788DDP     C328727  11.114  16.302   2.922  0.3135 -0.0392 -0.1822
 4788DDP     C428728  11.774  16.806   3.190  0.0160  0.1769 -0.2019
 4789DDP     C128729   5.315  29.782  25.047 -0.1675  0.0608 -0.0360
 4789DDP     P128730   5.236  29.801  25.507  0.1201 -0.1422 -0.1566
 4789DDP     P228731   5.456  30.177  24.796  0.1879  0.2106  0.0450
 4789DDP     C228732   5.498   0.202  24.867 -0.0232 -0.2185 -0.0790
 4789DDP     C328733   4.960  29.681  25.725 -0.0086 -0.0558  0.3543
 4789DDP     C428734   5.126  29.457  24.765  0.1791  0.0237  0.2069
 4790DDP     C128735   6.013  19.584  22.554  0.1204  0.1119 -0.5509
 4790DDP     P128736   5.544  19.618  22.640  0.0552 -0.2446  0.1484
 4790DDP     P228737   6.313  20.025  22.523  0.0333  0.1147  0.0689
 4790DDP     C228738   6.118  20.375  22.579  0.2088 -0.1054  0.1748
 4790DDP     C328739   5.251  19.474  22.832 -0.1284  0.1397  0.1009
 4790DDP     C428740   6.251  19.198  22.560  0.0908 -0.2434 -0.2542
 4791DDP     C128741  26.680  28.452  20.605 -0.2464  0.1365  0.0306
 4791DDP     P128742  27.134  28.370  20.648 -0.2870 -0.0305  0.0194
 4791DDP     P228743  26.392  28.458  20.918  0.0591  0.0732 -0.1927
 4791DDP     C228744  26.038  28.646  21.067  0.0946 -0.0111  0.0621
 4791DDP     C328745  27.458  28.420  20.804 -0.0143 -0.1418  0.0097
 4791DDP     C428746  26.613  28.500  20.155  0.0662  0.2172 -0.1335
 4792DDP     C128747   0.272   1.665  10.481 -0.1561 -0.1498  0.1587
 4792DDP     P128748   0.022   1.526  10.854 -0.0310  0.1335 -0.0568
 4792DDP     P228749   0.335   1.371  10.235  0.0131  0.5080 -0.1266
 4792DDP     C228750   0.173   1.350   9.861  0.1148 -0.1250  0.0036
 4792DDP     C328751   0.186   1.155  11.117  0.1368  0.1104 -0.0379
 4792DDP     C428752   0.289   2.001  10.253  0.0957  0.2748 -0.1523
 4793DDP     C128753  20.081   3.109  13.571  0.2153  0.0343 -0.2587
 4793DDP     P128754  19.852   3.210  14.036  0.1008 -0.0708  0.1194
 4793DDP     P228755  20.288   3.518  13.342 -0.0569 -0.0437 -0.0472
 4793DDP     C228756  20.097   3.732  13.080  0.1476  0.2679  0.2437
 4793DDP     C328757  19.898   3.648  14.313 -0.0614 -0.0818  0.3523
 4793DDP     C428758  19.903   2.837  13.288  0.0570  0.1711 -0.4904
 4794DDP     C128759  24.349  15.016   9.140  0.2230  0.1932 -0.1495
 4794DDP     P128760  24.362  15.178   9.599 -0.1757  0.0189  0.0006
 4794DDP     P228761  23.943  15.125   9.038 -0.0311 -0.0134  0.3196
 4794DDP     C228762  23.516  15.016   8.871 -0.0264 -0.3960  0.1945
 4794DDP     C328763  24.113  15.502   9.953 -0.1639  0.1342 -0.1932
 4794DDP     C428764  24.734  14.775   8.840  0.0114 -0.3806 -0.2523
 4795DDP     C128765   7.410   7.108  12.309 -0.1367 -0.2649 -0.0599
 4795DDP     P128766   7.364   7.508  12.060 -0.1021  0.1119 -0.1330
 4795DDP     P228767   7.148   6.769  12.565 -0.0051  0.1834  0.2841
 4795DDP     C228768   6.962   6.497  12.785 -0.1815 -0.4621  0.1044
 4795DDP     C328769   7.260   7.615  11.592 -0.3738  0.1057 -0.1776
 4795DDP     C428770   7.717   6.930  12.134  0.1221  0.1260  0.1038
 4796DDP     C128771  14.641  15.784  25.604 -0.0273 -0.2908  0.1319
 4796DDP     P128772  14.203  15.855  25.703 -0.0591  0.1042 -0.0388
 4796DDP     P228773  14.769  15.770  25.198  0.0270 -0.0963 -0.1518
 4796DDP     C228774  14.975  15.851  24.854 -0.1159 -0.0703  0.1104
 4796DDP     C328775  13.912  15.725  26.068 -0.1459 -0.2039 -0.0060
 4796DDP     C428776  14.813  15.627  25.947 -0.0975 -0.1385 -0.1374
 4797DDP     C128777  23.152  22.964  12.854 -0.3288  0.0494 -0.0813
 4797DDP     P128778  23.021  23.191  12.549  0.0101  0.0817 -0.0398
 4797DDP     P228779  23.317  22.627  12.735 -0.0567  0.1361 -0.0655
 4797DDP     C228780  23.629  22.511  12.938  0.0033 -0.0080  0.1929
 4797DDP     C328781  23.063  23.529  12.204  0.0294  0.0983 -0.2228
 4797DDP     C428782  23.247  23.091  13.287 -0.1362 -0.0458  0.0736
 4798DDP     C128783   9.301  18.181  28.506  0.1250  0.0463  0.0042
 4798DDP     P128784   9.141  18.514  28.504 -0.0541  0.0932 -0.1817
 4798DDP     P228785   8.924  17.954  28.684 -0.0182  0.2673  0.0196
 4798DDP     C228786   8.503  17.766  28.896 -0.0981 -0.0751 -0.1434
 4798DDP     C328787   8.849  18.834  28.552  0.0140  0.0936  0.1481
 4798DDP     C428788   9.553  17.980  28.237 -0.3844  0.0294 -0.0767
 4799DDP     C128789  15.702   5.686  12.648 -0.1655 -0.1305  0.0298
 4799DDP     P128790  16.035   5.771  12.373  0.2045 -0.0647 -0.3882
 4799DDP     P228791  15.772   5.447  13.042  0.2026  0.6365  0.0445
 4799DDP     C228792  15.496   5.227  13.365 -0.0665  0.1217  0.2796
 4799DDP     C328793  16.216   6.299  12.211 -0.2222 -0.0446 -0.0379
 4799DDP     C428794  15.413   5.979  12.668  0.2648 -0.2157  0.0732
 4800DDP     C128795  16.311  23.811   3.880 -0.2655 -0.3407 -0.0137
 4800DDP     P128796  16.257  24.048   3.464  0.2840 -0.1531  0.1338
 4800DDP     P228797  16.604  23.880   4.250 -0.1806 -0.1209  0.1907
 4800DDP     C228798  17.005  24.042   4.213 -0.0905  0.3909 -0.0738
 4800DDP     C328799  16.483  23.941   3.129  0.1050  0.0216  0.0734
 4800DDP     C428800  16.091  23.362   3.917  0.3370  0.2385 -0.1216
 4801DDP     C128801   7.724  14.652  16.764 -0.1157 -0.1753 -0.2458
 4801DDP     P128802   7.803  14.690  17.166 -0.1991  0.0681 -0.0239
 4801DDP     P228803   7.807  14.910  16.515 -0.0079  0.3944  0.2008
 4801DDP     C228804   7.816  14.988  16.172 -0.2328 -0.1175  0.1562
 4801DDP     C328805   7.686  14.689  17.571  0.2220  0.1100  0.1605
 4801DDP     C428806   7.553  14.253  16.695 -0.0449  0.2010  0.2438
 4802DDP     C128807  18.670  23.528   5.741  0.1071 -0.0697  0.1751
 4802DDP     P128808  18.577  23.843   5.677  0.0732 -0.1013  0.2469
 4802DDP     P228809  18.457  23.168   5.738 -0.1179 -0.0598  0.0004
 4802DDP     C228810  18.476  22.747   5.683 -0.0950  0.3569  0.2311
 4802DDP     C328811  18.555  24.135   5.312 -0.2618 -0.0767 -0.1053
 4802DDP     C428812  19.135  23.345   5.659 -0.3509 -0.1744 -0.1367
 4803DDP     C128813   1.303  26.529  23.775 -0.0976 -0.0656  0.0960
 4803DDP     P128814   1.531  26.252  24.056  0.1156  0.1030 -0.0015
 4803DDP     P228815   1.005  26.354  23.410 -0.2243 -0.0121 -0.1074
 4803DDP     C228816   0.547  26.198  23.207  0.0190 -0.1501 -0.4778
 4803DDP     C328817   1.647  26.091  24.398 -0.0928  0.0867 -0.1598
 4803DDP     C428818   1.179  27.036  23.749  0.0063  0.0479 -0.1303
 4804DDP     C128819  30.313   0.610  10.926 -0.0124 -0.0183  0.0567
 4804DDP     P128820   0.358   0.485  11.149  0.1434  0.0235 -0.1101
 4804DDP     P228821  30.067   0.349  10.946  0.1560 -0.2169  0.0077
 4804DDP     C228822  30.053  30.295  11.283  0.2719  0.1173 -0.0615
 4804DDP     C328823   0.719   0.321  11.099  0.2830  0.0642 -0.1352
 4804DDP     C428824  30.129   1.009  10.744 -0.1774 -0.3750 -0.3726
 4805DDP     C128825  18.781   5.520  13.401  0.3853 -0.3310 -0.0809
 4805DDP     P128826  18.750   5.160  13.025  0.0854 -0.0255 -0.0944
 4805DDP     P228827  18.567   5.261  13.839  0.1953 -0.4326  0.3104
 4805DDP     C228828  18.367   5.027  14.216 -0.1656  0.4337  0.2682
 4805DDP     C328829  18.507   4.921  12.685  0.0759 -0.3137  0.1365
 4805DDP     C428830  18.677   5.952  13.251 -0.0397  0.1300 -0.0539
 4806DDP     C128831  27.741  24.191  14.874  0.1643 -0.0608 -0.5669
 4806DDP     P128832  27.499  24.082  14.613 -0.2046 -0.0723  0.0283
 4806DDP     P228833  28.017  23.967  14.724  0.0648  0.3038 -0.0250
 4806DDP     C228834  28.285  23.669  14.477  0.2969  0.1626  0.0903
 4806DDP     C328835  27.103  24.010  14.567  0.4754 -0.1219  0.1739
 4806DDP     C428836  27.718  24.348  15.266 -0.2204  0.1200 -0.1765
 4807DDP     C128837  21.390  21.040  11.091  0.0643  0.2740  0.0243
 4807DDP     P128838  21.646  20.919  10.784  0.1093 -0.1865 -0.0644
 4807DDP     P228839  21.238  21.393  10.952  0.0448  0.0103  0.0973
 4807DDP     C228840  21.016  21.781  10.867 -0.1779 -0.4093 -0.1561
 4807DDP     C328841  21.979  20.867  10.407  0.0245 -0.1737 -0.3759
 4807DDP     C428842  21.322  20.816  11.478 -0.1804  0.0707 -0.1552
 4808DDP     C128843  29.462  19.823  12.021  0.1209 -0.1353 -0.1448
 4808DDP     P128844  29.170  19.850  11.782  0.0556 -0.1231  0.1108
 4808DDP     P228845  29.855  20.121  11.862  0.2360  0.1146  0.2651
 4808DDP     C228846  30.157  20.465  11.887  0.4045  0.1375  0.2541
 4808DDP     C328847  29.093  19.733  11.305 -0.0514  0.1803 -0.0364
 4808DDP     C428848  29.491  19.513  12.374 -0.2231  0.0630  0.0711
 4809DDP     C128849  13.347   9.670   4.301 -0.1462  0.0001  0.1219
 4809DDP     P128850  13.178   9.838   4.692  0.0005 -0.0786 -0.3586
 4809DDP     P228851  13.036   9.409   4.094 -0.2917 -0.1058 -0.2785
 4809DDP     C228852  12.856   9.226   3.727 -0.1131  0.1210 -0.1582
 4809DDP     C328853  12.859  10.232   4.832 -0.2590  0.0333  0.5039
 4809DDP     C428854  13.725   9.706   4.105 -0.1939 -0.0901  0.0286
 4810DDP     C128855   8.180  27.906   8.267  0.1221  0.0168  0.0335
 4810DDP     P128856   7.874  27.904   7.873 -0.4979  0.2102 -0.2194
 4810DDP     P228857   7.855  27.924   8.686 -0.0003 -0.2442  0.1381
 4810DDP     C228858   7.654  27.993   9.077 -0.0030  0.0411 -0.2215
 4810DDP     C328859   7.562  27.969   7.596 -0.1267 -0.0149 -0.0667
 4810DDP     C428860   8.603  27.891   8.323  0.1280 -0.0603 -0.2717
 4811DDP     C128861  17.650  22.493   0.678  0.1419 -0.0132 -0.1102
 4811DDP     P128862  17.345  22.200   0.793 -0.0822 -0.0489 -0.3597
 4811DDP     P228863  17.632  22.922   0.688 -0.1800  0.2312 -0.3596
 4811DDP     C228864  17.474  23.207   0.935  0.0365 -0.1701  0.0473
 4811DDP     C328865  16.958  22.030   0.666 -0.0286  0.1501 -0.0110
 4811DDP     C428866  17.962  22.450   0.270 -0.0293 -0.0798 -0.1219
 4812DDP     C128867  25.399  16.592   4.117  0.1275  0.0247  0.0139
 4812DDP     P128868  25.273  16.638   4.555 -0.2538  0.1054  0.0078
 4812DDP     P228869  25.758  16.449   3.969  0.0816 -0.0460 -0.2191
 4812DDP     C228870  26.051  16.382   3.540  0.2269 -0.0202  0.2509
 4812DDP     C328871  25.003  16.417   4.855 -0.2105  0.0392 -0.1955
 4812DDP     C428872  25.487  16.886   3.787 -0.0668 -0.0551 -0.1283
 4813DDP     C128873   0.129  22.326   5.369 -0.0657 -0.2531 -0.0905
 4813DDP     P128874   0.022  22.095   5.615  0.1540  0.4472  0.2178
 4813DDP     P228875  30.291  22.739   5.193  0.0079 -0.1277  0.0390
 4813DDP     C228876  30.163  23.096   5.483  0.3052  0.0464  0.0892
 4813DDP     C328877  29.955  21.996   5.676  0.3586  0.0986 -0.5332
 4813DDP     C428878   0.570  22.318   5.228  0.4873  0.1083 -0.0611
 4814DDP     C128879  16.042   1.444  24.382 -0.3243 -0.0320  0.1772
 4814DDP     P128880  16.131   1.874  24.237  0.0735  0.0270 -0.6193
 4814DDP     P228881  15.956   1.688  24.760  0.0273 -0.0045 -0.0073
 4814DDP     C228882  15.768   1.968  25.043 -0.0389 -0.0561 -0.4311
 4814DDP     C328883  16.281   2.199  24.104 -0.1030  0.2854 -0.0862
 4814DDP     C428884  16.276   1.103  24.234  0.1022  0.1035  0.0469
 4815DDP     C128885   8.866  17.661  22.700  0.1008 -0.0163 -0.0203
 4815DDP     P128886   9.015  17.622  22.263  0.1374  0.2507 -0.1150
 4815DDP     P228887   9.076  17.996  22.917  0.0550  0.1932 -0.4236
 4815DDP     C228888   9.307  18.460  23.086 -0.3199 -0.4060 -0.0636
 4815DDP     C328889   9.239  17.471  21.854  0.0580  0.1216  0.2136
 4815DDP     C428890   8.688  17.397  23.008  0.1993  0.0568 -0.1342
 4816DDP     C128891  25.732   3.790   6.721  0.0351  0.4313 -0.1185
 4816DDP     P128892  25.657   4.105   6.921 -0.0043  0.1417 -0.0621
 4816DDP     P228893  25.988   3.503   6.936  0.1554  0.1946  0.0342
 4816DDP     C228894  25.926   3.090   7.200 -0.0862  0.2285  0.1264
 4816DDP     C328895  25.436   4.297   7.225  0.5101 -0.1483  0.1034
 4816DDP     C428896  25.455   3.655   6.478 -0.1231 -0.1337 -0.1085
 4817DDP     C128897   0.781  10.829  20.670  0.1786 -0.0587  0.0523
 4817DDP     P128898   0.377  11.108  20.692 -0.0286  0.3372  0.3623
 4817DDP     P228899   0.696  10.482  20.489 -0.1553  0.0836 -0.0398
 4817DDP     C228900   0.570  10.191  20.270  0.0579 -0.0530  0.1762
 4817DDP     C328901  30.302  11.420  20.566  0.1876 -0.1402  0.2040
 4817DDP     C428902   1.228  11.079  20.666 -0.0131  0.3897  0.1474
 4818DDP     C128903  26.728  29.054  16.576 -0.1574 -0.1822  0.2583
 4818DDP     P128904  27.049  29.284  16.828 -0.1055 -0.1396 -0.1554
 4818DDP     P228905  26.354  29.080  16.713  0.2351  0.0844  0.0570
 4818DDP     C228906  25.970  28.995  16.927  0.0397  0.0470  0.0131
 4818DDP     C328907  27.301  29.363  17.155 -0.0113  0.0091  0.2685
 4818DDP     C428908  26.985  28.851  16.308  0.0232  0.1101  0.1166
 4819DDP     C128909   5.056  10.891  12.010  0.1745 -0.0142  0.1783
 4819DDP     P128910   5.362  10.624  11.966 -0.0066  0.0948  0.0998
 4819DDP     P228911   5.234  11.271  11.920 -0.1429  0.1229 -0.1052
 4819DDP     C228912   4.992  11.613  12.090 -0.0292  0.3959  0.0983
 4819DDP     C328913   5.519  10.273  12.190  0.1920 -0.2760  0.1805
 4819DDP     C428914   4.750  10.784  12.313  0.0354  0.0904 -0.1519
 4820DDP     C128915  20.468  20.883  23.929 -0.1466 -0.1987  0.4854
 4820DDP     P128916  20.649  21.148  23.797 -0.0762 -0.1594  0.4692
 4820DDP     P228917  20.496  20.460  24.143 -0.0295  0.1406  0.0369
 4820DDP     C228918  20.758  20.458  24.468  0.3771 -0.0029 -0.0197
 4820DDP     C328919  20.698  21.593  23.822  0.4448  0.0188  0.1277
 4820DDP     C428920  20.133  21.152  23.899  0.0719 -0.0329  0.2296
 4821DDP     C128921  24.990  17.519  17.024  0.0932 -0.1445 -0.0240
 4821DDP     P128922  25.339  17.588  16.807 -0.0296 -0.2053  0.0091
 4821DDP     P228923  24.584  17.328  16.818 -0.2972 -0.1201  0.0657
 4821DDP     C228924  24.393  17.070  16.607  0.1083  0.0058 -0.1878
 4821DDP     C328925  25.623  17.650  16.533 -0.0287  0.0910  0.2855
 4821DDP     C428926  24.988  17.455  17.480  0.1149 -0.1194 -0.1164
 4822DDP     C128927  20.709   0.316   8.836 -0.0286 -0.0874 -0.1753
 4822DDP     P128928  20.577  30.258   8.632 -0.1231 -0.1001 -0.1053
 4822DDP     P228929  20.482   0.594   8.706  0.0618  0.1654  0.4554
 4822DDP     C228930  20.210   0.992   8.848 -0.2569  0.1765 -0.0398
 4822DDP     C328931  20.683  29.916   8.395 -0.1433  0.1382  0.3004
 4822DDP     C428932  20.908   0.337   9.192  0.0386  0.3124  0.0282
 4823DDP     C128933  30.269  13.053   3.981 -0.0215  0.2439 -0.2620
 4823DDP     P128934   0.093  13.360   4.178 -0.1556  0.1302  0.2520
 4823DDP     P228935  29.997  12.892   3.893  0.1382  0.2586  0.0461
 4823DDP     C228936  29.667  12.564   3.954  0.0854 -0.1597 -0.1495
 4823DDP     C328937   0.039  13.689   4.577  0.2107 -0.1591  0.0359
 4823DDP     C428938   0.289  12.842   3.818  0.1904  0.0818 -0.2445
 4824DDP     C128939   2.726   9.404   9.178 -0.1656  0.2496  0.2136
 4824DDP     P128940   2.606   9.791   9.142  0.2516  0.1262  0.5221
 4824DDP     P228941   3.114   9.259   9.158  0.2118 -0.0196 -0.0396
 4824DDP     C228942   3.476   9.342   9.378 -0.1228 -0.2808  0.2128
 4824DDP     C328943   2.226  10.035   8.865 -0.0437  0.3371  0.2981
 4824DDP     C428944   2.359   9.255   9.276 -0.2108  0.0162  0.2591
 4825DDP     C128945  18.784   0.110   0.845 -0.0706  0.0358  0.0496
 4825DDP     P128946  19.075   0.407   0.603  0.0657  0.0990 -0.1408
 4825DDP     P228947  18.602   0.388   1.203 -0.0653 -0.0478 -0.0459
 4825DDP     C228948  18.521   0.498   1.581  0.0395  0.0883 -0.2110
 4825DDP     C328949  19.271   0.525   0.225 -0.0556 -0.0152  0.0236
 4825DDP     C428950  18.628  30.077   0.879 -0.1530  0.0046 -0.2523
 4826DDP     C128951   4.149   5.366  19.637  0.6002 -0.1044  0.0401
 4826DDP     P128952   4.532   5.344  19.514 -0.3157 -0.3101 -0.0182
 4826DDP     P228953   3.993   5.826  19.830  0.4359  0.0358 -0.1066
 4826DDP     C228954   3.682   6.095  19.636  0.3171 -0.1085 -0.3605
 4826DDP     C328955   4.700   5.207  19.227 -0.1518 -0.0003  0.0402
 4826DDP     C428956   3.817   5.037  19.517 -0.2048 -0.0430  0.3815
 4827DDP     C128957  10.391  11.595  17.861  0.1776  0.1922 -0.1156
 4827DDP     P128958  10.542  11.125  17.833 -0.0922 -0.1780 -0.4004
 4827DDP     P228959  10.297  11.674  18.279  0.1329  0.0204  0.0734
 4827DDP     C228960  10.388  12.010  18.639 -0.2051  0.0792  0.0878
 4827DDP     C328961  10.801  10.794  17.609 -0.0114 -0.1194  0.2567
 4827DDP     C428962  10.306  11.952  17.599 -0.0931 -0.0152  0.1128
 4828DDP     C128963  10.077  18.310  19.739  0.3188  0.3830 -0.1673
 4828DDP     P128964  10.215  17.898  19.674 -0.0773 -0.3135 -0.0773
 4828DDP     P228965  10.228  18.190  20.135 -0.2037  0.1065 -0.1628
 4828DDP     C228966  10.437  18.110  20.575  0.0048 -0.3138  0.0020
 4828DDP     C328967  10.309  17.520  19.437  0.2572  0.1002  0.0365
 4828DDP     C428968   9.915  18.700  19.628  0.0752 -0.0780  0.0970
 4829DDP     C128969   3.254  10.990  11.947 -0.0014 -0.2983 -0.2104
 4829DDP     P128970   3.551  10.581  12.063  0.1401  0.2079 -0.2669
 4829DDP     P228971   3.047  11.288  12.264 -0.5324  0.0217  0.0525
 4829DDP     C228972   2.792  11.673  12.364  0.1277  0.0627 -0.0589
 4829DDP     C328973   4.083  10.595  11.930  0.0669  0.1833 -0.0118
 4829DDP     C428974   3.176  11.113  11.547 -0.1046 -0.5209 -0.0802
 4830DDP     C128975  20.143  14.738  18.891  0.2442 -0.1279  0.1065
 4830DDP     P128976  20.549  14.676  19.016  0.1042  0.1410 -0.0922
 4830DDP     P228977  19.977  14.214  18.935  0.1395  0.1973 -0.0168
 4830DDP     C228978  19.473  14.067  18.874 -0.2706  0.0005  0.1181
 4830DDP     C328979  20.800  14.562  19.363  0.0947  0.0943 -0.2475
 4830DDP     C428980  20.011  15.137  18.847  0.0204 -0.2448  0.0774
 4831DDP     C128981  13.242  10.498  15.258  0.1856 -0.2492  0.0233
 4831DDP     P128982  13.414  10.556  15.692 -0.2347 -0.0964 -0.0726
 4831DDP     P228983  12.900  10.245  15.405  0.1077 -0.1414 -0.1001
 4831DDP     C228984  12.498  10.141  15.709 -0.0950  0.0007 -0.2512
 4831DDP     C328985  13.812  10.545  15.804 -0.0083  0.0167  0.0816
 4831DDP     C428986  13.205  10.777  14.869 -0.0876 -0.1433 -0.1318
 4832DDP     C128987  23.826  18.073   8.690 -0.0280  0.0517 -0.0646
 4832DDP     P128988  24.239  17.951   8.869  0.1521 -0.0121  0.1199
 4832DDP     P228989  23.614  17.775   8.529  0.1486 -0.1718 -0.1276
 4832DDP     C228990  23.348  17.464   8.616  0.3517  0.2157 -0.3370
 4832DDP     C328991  24.483  17.788   9.127 -0.2427  0.4433  0.1020
 4832DDP     C428992  23.500  18.312   8.815 -0.1023  0.2036 -0.1889
 4833DDP     C128993  25.070  30.206  20.581  0.1089 -0.0640  0.2436
 4833DDP     P128994  24.763  30.324  20.905 -0.2559  0.0861 -0.0734
 4833DDP     P228995  24.964   0.161  20.149 -0.1095 -0.1080 -0.2742
 4833DDP     C228996  25.043   0.361  19.769 -0.0642 -0.2598  0.0292
 4833DDP     C328997  24.442   0.321  21.104 -0.0349  0.1057  0.2875
 4833DDP     C428998  25.478  30.111  20.705  0.0085  0.0397 -0.1268
 4834DDP     C128999   2.963   1.847  28.810  0.1769 -0.2410  0.0095
 4834DDP     P129000   3.255   2.171  29.016 -0.1054  0.0423  0.0202
 4834DDP     P229001   3.136   1.853  28.330  0.0641  0.0169  0.0485
 4834DDP     C229002   3.153   2.098  27.959 -0.0454 -0.1325 -0.0626
 4834DDP     C329003   3.234   2.346  29.415 -0.3098  0.0024 -0.1031
 4834DDP     C429004   2.723   1.540  29.159  0.3514  0.0741  0.1921
 4835DDP     C129005  21.399  29.419  16.142  0.2532  0.2110  0.0885
 4835DDP     P129006  21.295  29.468  16.626  0.0085  0.1668  0.4155
 4835DDP     P229007  21.080  29.628  15.774  0.0512  0.0732  0.3927
 4835DDP     C229008  20.952  29.658  15.410 -0.2006 -0.3010  0.0251
 4835DDP     C329009  21.174  29.497  17.133 -0.1737  0.1267 -0.0919
 4835DDP     C429010  21.759  29.124  16.151 -0.0610 -0.1453 -0.2149
 4836DDP     C129011   7.846  17.172   6.983  0.2026 -0.1315 -0.1979
 4836DDP     P129012   7.563  16.845   6.928  0.2187  0.0843 -0.3621
 4836DDP     P229013   8.057  17.389   6.583  0.2538 -0.1568  0.0960
 4836DDP     C229014   8.481  17.371   6.520 -0.1484  0.3834 -0.1935
 4836DDP     C329015   7.513  16.408   7.022  0.0300  0.1606 -0.0403
 4836DDP     C429016   8.004  17.185   7.334  0.0882  0.0371 -0.0768
 4837DDP     C129017  21.666   6.455  10.853  0.1007  0.0182 -0.3368
 4837DDP     P129018  21.489   6.609  11.181 -0.0132  0.4643  0.1644
 4837DDP     P229019  21.490   6.046  10.636 -0.2784  0.0969 -0.1212
 4837DDP     C229020  21.591   6.047  10.180  0.2532 -0.2008  0.4184
 4837DDP     C329021  21.135   6.623  11.513  0.1205 -0.1047  0.0629
 4837DDP     C429022  21.818   6.782  10.531  0.0297  0.0526  0.1246
 4838DDP     C129023  23.763   1.061   2.424  0.2353  0.0637  0.0009
 4838DDP     P129024  23.963   0.812   2.080 -0.2462 -0.2151 -0.0712
 4838DDP     P229025  23.320   1.096   2.460  0.0492 -0.0036  0.1143
 4838DDP     C229026  23.057   1.223   2.664  0.1392 -0.1837  0.0572
 4838DDP     C329027  24.399   0.794   1.969  0.1731 -0.2791  0.1629
 4838DDP     C429028  23.980   1.382   2.631 -0.0971  0.0019  0.1252
 4839DDP     C129029  11.313  21.520  14.072  0.1101 -0.2678 -0.0756
 4839DDP     P129030  10.904  21.498  14.284 -0.1788  0.3612 -0.1590
 4839DDP     P229031  11.574  21.256  13.941  0.1064  0.1158 -0.3443
 4839DDP     C229032  11.808  21.056  13.493  0.0919 -0.1112  0.1260
 4839DDP     C329033  10.560  21.787  14.255 -0.0768  0.1799  0.1552
 4839DDP     C429034  11.505  22.034  13.970 -0.1853  0.0225  0.2044
 4840DDP     C129035  26.292  16.698  20.103  0.0080 -0.2018  0.1691
 4840DDP     P129036  26.040  16.967  19.919  0.0180 -0.0157  0.2550
 4840DDP     P229037  26.631  16.544  19.891  0.1250  0.1534  0.1126
 4840DDP     C229038  26.947  16.190  20.038  0.1357  0.2943 -0.1915
 4840DDP     C329039  26.148  17.150  19.604 -0.2100  0.0438 -0.1331
 4840DDP     C429040  26.156  16.513  20.538  0.1034  0.0156 -0.2648
 4841DDP     C129041  26.411   0.169   0.117  0.1821  0.0511  0.0502
 4841DDP     P129042  26.275  30.066   0.058  0.3293 -0.0401  0.0166
 4841DDP     P229043  26.362   0.432  30.085 -0.0552 -0.2241 -0.0227
 4841DDP     C229044  26.170   0.360  29.674 -0.1253  0.2564 -0.1590
 4841DDP     C329045  26.370  29.767  30.118 -0.0405  0.0608 -0.1024
 4841DDP     C429046  26.464   0.174   0.553  0.3832 -0.2304  0.0243
 4842DDP     C129047   9.371   8.588   8.455 -0.2600  0.2571  0.1498
 4842DDP     P129048   9.532   8.540   8.111 -0.2937  0.2399 -0.1179
 4842DDP     P229049   9.815   8.930   8.582 -0.0783 -0.0826 -0.0597
 4842DDP     C229050   9.870   9.273   8.960  0.3035 -0.2617  0.1886
 4842DDP     C329051   9.577   8.319   7.763  0.1179 -0.3545 -0.1521
 4842DDP     C429052   9.162   8.345   8.730 -0.0403  0.2651  0.0873
 4843DDP     C129053  22.166  11.385   5.685  0.1210  0.2870 -0.1618
 4843DDP     P129054  22.489  11.612   5.827 -0.1931 -0.0133  0.3069
 4843DDP     P229055  21.717  11.514   5.415  0.0379  0.1735  0.0561
 4843DDP     C229056  21.727  11.971   5.245  0.3177  0.2851  0.1332
 4843DDP     C329057  22.898  11.680   5.865  0.3174  0.0576 -0.2308
 4843DDP     C429058  22.201  10.898   5.690 -0.0399 -0.0004  0.0277
 4844DDP     C129059  21.781   4.393  21.172  0.1786  0.2222  0.1339
 4844DDP     P129060  21.408   4.580  21.289 -0.1749 -0.2156 -0.2159
 4844DDP     P229061  21.725   3.993  21.213  0.2568 -0.3015 -0.0902
 4844DDP     C229062  21.661   3.554  20.910 -0.1297 -0.2385  0.1277
 4844DDP     C329063  21.172   4.932  21.037 -0.1026  0.1854  0.0479
 4844DDP     C429064  22.063   4.568  20.775 -0.1227  0.3534 -0.0302
 4845DDP     C129065  20.526   7.828   4.542  0.0244 -0.1832 -0.2374
 4845DDP     P129066  20.446   8.080   4.316 -0.1139 -0.0073 -0.5397
 4845DDP     P229067  20.438   7.444   4.363  0.1096  0.0091  0.1640
 4845DDP     C229068  20.350   7.057   4.565  0.2953 -0.2018  0.2777
 4845DDP     C329069  20.554   8.125   3.888 -0.1616  0.2603 -0.1919
 4845DDP     C429070  20.767   7.818   4.871 -0.0053  0.0279 -0.0843
 4846DDP     C129071   4.299   0.197  14.007 -0.1914  0.2449  0.0490
 4846DDP     P129072   4.017   0.182  14.322  0.2485  0.0911 -0.1084
 4846DDP     P229073   4.115   0.078  13.674  0.0309 -0.0284 -0.2191
 4846DDP     C229074   4.257  -0.023  13.229  0.2667  0.0014 -0.1222
 4846DDP     C329075   3.893   0.113  14.730  0.0649 -0.2053  0.1075
 4846DDP     C429076   4.728   0.208  14.216 -0.1382  0.1623  0.1403
 4847DDP     C129077  13.007   0.142   9.434  0.3609  0.0643  0.0942
 4847DDP     P129078  12.748  30.159   9.543  0.0321  0.2273 -0.2932
 4847DDP     P229079  13.267  30.224   9.048  0.2600 -0.1323  0.2189
 4847DDP     C229080  13.656  30.108   9.205 -0.2992 -0.1239 -0.1462
 4847DDP     C329081  12.391  29.929   9.633  0.0749 -0.1332 -0.1489
 4847DDP     C429082  13.005   0.568   9.679  0.0845 -0.0169  0.1273
 4848DDP     C129083  25.787  28.868  20.627  0.1147 -0.3368  0.0324
 4848DDP     P129084  25.518  28.646  20.833 -0.0253 -0.1798 -0.2879
 4848DDP     P229085  26.138  29.116  20.930  0.2104 -0.0928  0.0175
 4848DDP     C229086  25.945  29.394  21.333 -0.1247 -0.1787  0.0969
 4848DDP     C329087  25.371  28.318  21.053  0.1893 -0.2340 -0.1443
 4848DDP     C429088  25.676  28.853  20.232  0.1233 -0.1873  0.2883
 4849DDP     C129089  24.291   5.673  17.649 -0.2515 -0.2566 -0.1338
 4849DDP     P129090  23.983   6.036  17.717 -0.1933  0.0628 -0.2901
 4849DDP     P229091  24.625   5.719  17.365 -0.1543  0.1181 -0.2419
 4849DDP     C229092  24.515   5.804  16.918  0.1359 -0.0832  0.0006
 4849DDP     C329093  23.978   6.429  17.970 -0.1521 -0.2280 -0.0521
 4849DDP     C429094  24.259   5.239  17.805 -0.1345  0.0158  0.0393
 4850DDP     C129095  22.762   6.864  24.967  0.0742 -0.2470 -0.1369
 4850DDP     P129096  22.675   6.481  24.740  0.0144 -0.0642 -0.1371
 4850DDP     P229097  22.434   7.179  24.808  0.0828 -0.3646 -0.2234
 4850DDP     C229098  22.594   7.477  24.461  0.1605  0.2931 -0.1867
 4850DDP     C329099  22.965   6.205  24.493 -0.3533  0.0923  0.3192
 4850DDP     C429100  23.096   6.938  25.277  0.0131  0.2141 -0.0058
 4851DDP     C129101   9.542  14.421   6.549  0.0773  0.1693  0.2038
 4851DDP     P129102   9.610  14.462   6.992 -0.3582 -0.0488  0.1303
 4851DDP     P229103   9.553  14.746   6.241 -0.3393  0.0504 -0.3200
 4851DDP     C229104   9.588  14.844   5.775 -0.2073 -0.2127 -0.2819
 4851DDP     C329105   9.568  14.328   7.436  0.1004 -0.2005 -0.2056
 4851DDP     C429106   9.705  14.110   6.421 -0.0756  0.1992  0.0405
 4852DDP     C129107  21.921   7.190  23.219 -0.1088  0.2758  0.0717
 4852DDP     P129108  21.767   7.535  22.948  0.1065 -0.0956  0.2664
 4852DDP     P229109  21.711   7.181  23.598 -0.0930 -0.0550 -0.2917
 4852DDP     C229110  21.471   7.026  23.860 -0.1625  0.3944  0.1383
 4852DDP     C329111  21.851   7.973  22.945  0.2114  0.3224 -0.0483
 4852DDP     C429112  22.194   7.071  22.995  0.1386  0.4621  0.0429
 4853DDP     C129113  14.751   7.962  21.534  0.1614  0.2591  0.0148
 4853DDP     P129114  15.073   7.780  21.385  0.3155  0.1365 -0.2129
 4853DDP     P229115  14.476   7.672  21.514 -0.3022  0.1863 -0.0080
 4853DDP     C229116  14.227   7.280  21.456 -0.1973 -0.2371  0.1276
 4853DDP     C329117  15.358   7.517  21.575 -0.2926 -0.1671 -0.0005
 4853DDP     C429118  14.648   8.301  21.710  0.0818 -0.1336 -0.0017
 4854DDP     C129119  24.488  11.021  23.728  0.1929 -0.1916  0.2685
 4854DDP     P129120  24.440  11.153  24.117  0.1466 -0.4750 -0.0522
 4854DDP     P229121  24.125  10.966  23.476  0.3550  0.0233 -0.0821
 4854DDP     C229122  23.915  10.798  23.103 -0.0035 -0.0280 -0.0888
 4854DDP     C329123  24.101  11.077  24.394  0.5636 -0.3012 -0.0320
 4854DDP     C429124  24.863  10.949  23.508 -0.0173 -0.0512 -0.4219
 4855DDP     C129125  12.491  16.034  25.272  0.1647 -0.1598 -0.1841
 4855DDP     P129126  12.662  15.787  25.671 -0.0587 -0.0496  0.0501
 4855DDP     P229127  12.098  15.889  25.092 -0.0963 -0.2369  0.2719
 4855DDP     C229128  11.711  15.656  25.241  0.0581 -0.0333 -0.2318
 4855DDP     C329129  12.518  15.840  26.107  0.1091  0.4896  0.0639
 4855DDP     C429130  12.729  16.448  25.274  0.2688  0.0863  0.0335
 4856DDP     C129131  12.054  22.440  21.931 -0.1574  0.0244 -0.0433
 4856DDP     P129132  11.683  22.381  22.077 -0.0736  0.2837  0.2084
 4856DDP     P229133  12.345  22.690  21.868 -0.0461 -0.1994  0.1368
 4856DDP     C229134  12.655  23.038  22.020 -0.0067  0.1239 -0.0924
 4856DDP     C329135  11.609  21.899  22.128 -0.1709  0.1160 -0.1133
 4856DDP     C429136  12.279  22.223  21.605 -0.0053  0.0511 -0.0005
 4857DDP     C129137  25.359  19.254  21.211  0.2255 -0.1451 -0.0269
 4857DDP     P129138  25.304  19.232  20.715 -0.1324  0.0411 -0.1018
 4857DDP     P229139  25.629  19.477  21.386 -0.5540 -0.5797 -0.2993
 4857DDP     C229140  25.563  19.715  21.756  0.1427 -0.1320  0.2518
 4857DDP     C329141  25.198  19.198  20.292 -0.0857 -0.1136  0.1942
 4857DDP     C429142  25.011  19.123  21.441 -0.2422  0.1379 -0.0938
 4858DDP     C129143   0.101   8.353  19.504  0.2733 -0.1161 -0.1757
 4858DDP     P129144  29.957   8.440  19.547 -0.0067 -0.2196 -0.2881
 4858DDP     P229145   0.341   8.643  19.820 -0.0942  0.2585 -0.1221
 4858DDP     C229146   0.304   8.995  20.064  0.0438 -0.2714 -0.1848
 4858DDP     C329147  29.702   8.676  19.382 -0.3020 -0.1365 -0.0758
 4858DDP     C429148   0.120   7.926  19.431  0.0358  0.0646  0.0096
 4859DDP     C129149   8.876  27.560  19.696  0.0688  0.1140 -0.3817
 4859DDP     P129150   8.518  27.758  19.888 -0.1463  0.1125 -0.2366
 4859DDP     P229151   9.324  27.609  19.679 -0.3517  0.2632 -0.0740
 4859DDP     C229152   9.676  27.366  20.073  0.0756 -0.2869  0.0408
 4859DDP     C329153   8.059  27.532  19.992 -0.3846  0.0200 -0.1872
 4859DDP     C429154   8.512  27.303  19.639  0.0306 -0.0922  0.0920
 4860DDP     C129155  24.781  21.928  10.749  0.0144 -0.0551 -0.1406
 4860DDP     P129156  24.764  21.487  10.525  0.0469 -0.1862  0.2233
 4860DDP     P229157  24.371  22.116  10.742  0.0629 -0.1823  0.0556
 4860DDP     C229158  24.342  22.514  10.753  0.4019 -0.3208 -0.1667
 4860DDP     C329159  24.797  21.114  10.585  0.1720 -0.1969  0.0142
 4860DDP     C429160  25.088  22.064  11.031 -0.3894  0.0672  0.2231
 4861DDP     C129161   6.493  18.989  14.230 -0.1120 -0.2400 -0.1625
 4861DDP     P129162   6.997  18.916  14.183 -0.1101  0.0386 -0.0190
 4861DDP     P229163   6.273  18.681  14.474  0.1387 -0.0366 -0.1489
 4861DDP     C229164   6.302  18.409  14.698  0.2308 -0.0877  0.0983
 4861DDP     C329165   7.223  18.651  14.416 -0.0175  0.2930  0.2653
 4861DDP     C429166   6.202  19.355  14.066 -0.3863 -0.0852 -0.0900
 4862DDP     C129167  15.605  11.017  23.861 -0.0526 -0.0708 -0.2889
 4862DDP     P129168  15.489  11.318  24.135 -0.1161 -0.2713 -0.3165
 4862DDP     P229169  15.725  10.582  23.917  0.1382 -0.1727  0.0560
 4862DDP     C229170  16.114  10.429  23.870 -0.3756 -0.2410  0.3631
 4862DDP     C329171  15.607  11.572  24.498 -0.0373  0.2725  0.1860
 4862DDP     C429172  15.376  11.122  23.521  0.0988  0.0575 -0.0468
 4863DDP     C129173  14.889  15.893   4.862 -0.2402  0.0089 -0.1579
 4863DDP     P129174  15.018  15.477   4.756 -0.0625  0.2723  0.0351
 4863DDP     P229175  14.953  15.787   5.284 -0.0952 -0.0946 -0.0827
 4863DDP     C229176  15.309  15.925   5.639 -0.0630 -0.1291 -0.2861
 4863DDP     C329177  14.728  15.523   4.509  0.2508 -0.2451  0.4080
 4863DDP     C429178  14.739  16.181   4.587  0.0897 -0.0277 -0.0338
 4864DDP     C129179  20.506  12.811  10.709  0.0293  0.1102  0.0333
 4864DDP     P129180  20.509  12.545  10.371  0.2191 -0.2883  0.0086
 4864DDP     P229181  20.770  13.195  10.890  0.1010  0.1671  0.0997
 4864DDP     C229182  21.104  13.556  10.945  0.1541 -0.2830  0.0747
 4864DDP     C329183  20.626  12.275  10.128  0.3150 -0.2189 -0.1021
 4864DDP     C429184  20.076  12.819  10.929  0.0361 -0.0562  0.0041
 4865DDP     C129185   9.718   5.644  20.381  0.1125  0.0386 -0.0375
 4865DDP     P129186   9.527   5.082  20.435  0.0752  0.0292  0.0272
 4865DDP     P229187   9.404   5.943  20.501  0.2684  0.1657  0.1661
 4865DDP     C229188   9.198   6.274  20.701 -0.0094  0.3613  0.0929
 4865DDP     C329189   9.078   4.924  20.293 -0.0544 -0.0219 -0.0825
 4865DDP     C429190  10.100   5.618  20.334  0.0455  0.0785 -0.0846
 4866DDP     C129191  10.458   9.863   7.279 -0.1090 -0.2142 -0.1040
 4866DDP     P129192  10.846   9.818   7.526  0.1990 -0.0569  0.0780
 4866DDP     P229193  10.346  10.112   6.930  0.0490  0.0559 -0.0161
 4866DDP     C229194  10.523  10.312   6.520  0.1820 -0.1265  0.3036
 4866DDP     C329195  10.838   9.704   7.876  0.0483  0.0572  0.1594
 4866DDP     C429196  10.095   9.662   7.386  0.2720  0.2298  0.1226
 4867DDP     C129197  13.110  16.432   9.467 -0.1724 -0.1061  0.0026
 4867DDP     P129198  13.555  16.270   9.605 -0.1278  0.1367  0.2237
 4867DDP     P229199  13.008  16.400   9.086  0.1784 -0.0220 -0.1461
 4867DDP     C229200  12.822  16.356   8.717  0.1865 -0.0037 -0.2210
 4867DDP     C329201  13.857  16.169   9.806  0.3210  0.1436  0.1664
 4867DDP     C429202  13.073  16.327   9.932  0.2065  0.1264 -0.1845
 4868DDP     C129203   6.019  16.424   9.768 -0.0933 -0.3284  0.3100
 4868DDP     P129204   6.200  16.842   9.687 -0.1112  0.2935  0.0015
 4868DDP     P229205   6.112  16.126  10.056 -0.0713  0.1997 -0.0611
 4868DDP     C229206   6.350  15.861  10.341  0.2817  0.3177  0.2512
 4868DDP     C329207   6.144  17.208   9.505  0.1218  0.1637  0.1833
 4868DDP     C429208   5.713  16.293   9.496  0.0375 -0.0310  0.3385
 4869DDP     C129209  14.406  14.518  20.928 -0.3809  0.0110  0.0914
 4869DDP     P129210  14.575  14.165  21.007 -0.2221  0.0850 -0.0106
 4869DDP     P229211  14.498  14.882  20.895 -0.0406  0.0319  0.3503
 4869DDP     C229212  14.843  15.162  21.061 -0.1263  0.2307 -0.0298
 4869DDP     C329213  14.805  14.027  21.364 -0.3036 -0.0557  0.1117
 4869DDP     C429214  14.108  14.655  20.648 -0.0180 -0.1285  0.2851
 4870DDP     C129215  11.282  24.382  22.566 -0.0947  0.0250  0.2254
 4870DDP     P129216  11.329  24.724  22.217  0.0550  0.1214 -0.0057
 4870DDP     P229217  11.151  24.093  22.298  0.2798  0.1569  0.1308
 4870DDP     C229218  10.897  24.193  21.988 -0.0878  0.4292  0.0278
 4870DDP     C329219  11.568  24.964  21.944  0.1384 -0.1148 -0.0501
 4870DDP     C429220  11.235  24.451  23.027  0.1374 -0.1147 -0.0479
 4871DDP     C129221  22.028  28.501   4.550  0.3344  0.3870  0.0560
 4871DDP     P129222  22.241  28.146   4.507  0.0682 -0.1088  0.0354
 4871DDP     P229223  22.044  28.721   4.935  0.1300  0.0316  0.2289
 4871DDP     C229224  22.254  28.785   5.426  0.2732  0.1355 -0.1907
 4871DDP     C329225  22.398  27.751   4.392 -0.1855 -0.0468  0.1353
 4871DDP     C429226  21.750  28.631   4.322 -0.2230 -0.1032 -0.0470
 4872DDP     C129227  24.606   5.287  22.286  0.0042  0.0216 -0.1411
 4872DDP     P129228  24.163   5.096  22.492  0.0665  0.3649  0.3498
 4872DDP     P229229  24.856   5.207  21.865  0.1286  0.0626  0.1685
 4872DDP     C229230  25.048   5.492  21.469  0.1218  0.1627  0.2696
 4872DDP     C329231  23.717   4.998  22.699  0.1147  0.0937  0.4030
 4872DDP     C429232  24.544   5.696  22.107  0.0149  0.3126  0.0149
 4873DDP     C129233   1.544  17.029   6.385 -0.1525 -0.1807  0.1190
 4873DDP     P129234   1.272  17.350   6.465 -0.0814  0.1559 -0.0687
 4873DDP     P229235   1.631  17.085   6.840 -0.1463 -0.0226 -0.0497
 4873DDP     C229236   2.011  16.907   7.032 -0.2299 -0.3243  0.0319
 4873DDP     C329237   1.361  17.687   6.750 -0.0643 -0.1169 -0.2550
 4873DDP     C429238   1.566  17.106   5.904  0.0523 -0.1465  0.1798
 4874DDP     C129239  27.353  16.306   1.412  0.2196 -0.1340 -0.0605
 4874DDP     P129240  27.029  16.112   1.335 -0.2554 -0.0224 -0.0847
 4874DDP     P229241  27.522  16.713   1.433  0.1871  0.0965 -0.2941
 4874DDP     C229242  27.305  17.051   1.705 -0.2040  0.0832 -0.1599
 4874DDP     C329243  26.638  16.220   1.114 -0.0550 -0.2127 -0.1477
 4874DDP     C429244  27.454  15.945   1.608  0.1901 -0.2302 -0.1018
 4875DDP     C129245   4.767  15.680  11.653 -0.0987  0.2898 -0.2576
 4875DDP     P129246   5.162  15.672  11.474 -0.1304 -0.2128  0.1213
 4875DDP     P229247   4.348  15.684  11.426  0.2295  0.1716 -0.1797
 4875DDP     C229248   4.188  15.873  10.977  0.0305  0.2636 -0.1650
 4875DDP     C329249   5.294  15.416  11.043  0.2662  0.0853 -0.0730
 4875DDP     C429250   4.700  15.660  12.048 -0.1165 -0.1607 -0.3696
 4876DDP     C129251  25.684   8.965   2.206  0.0371 -0.1411 -0.0541
 4876DDP     P129252  25.577   8.737   1.831 -0.2753 -0.6132  0.1698
 4876DDP     P229253  25.515   9.376   2.266  0.0384 -0.1243 -0.1233
 4876DDP     C229254  25.163   9.576   2.377 -0.0080  0.0289 -0.1379
 4876DDP     C329255  25.507   8.759   1.437  0.0516  0.2909 -0.0468
 4876DDP     C429256  25.870   8.804   2.557 -0.0765  0.1754  0.1115
 4877DDP     C129257   1.908  25.513   6.325  0.0765 -0.0655  0.4260
 4877DDP     P129258   1.593  25.255   6.024  0.1609  0.1857 -0.0851
 4877DDP     P229259   2.261  25.737   6.212 -0.3368  0.0909  0.0863
 4877DDP     C229260   2.713  25.758   6.149 -0.3049 -0.0898  0.2578
 4877DDP     C329261   1.559  24.858   5.962  0.3579  0.0193 -0.1995
 4877DDP     C429262   2.054  25.685   6.727  0.2132  0.1437  0.1636
 4878DDP     C129263   2.440  30.147  18.241  0.2077 -0.0987  0.2376
 4878DDP     P129264   2.176   0.136  18.137 -0.0559 -0.1777 -0.3111
 4878DDP     P229265   2.905  30.058  18.085  0.1021  0.2080 -0.1123
 4878DDP     C229266   2.904  29.541  17.950 -0.0604  0.1777 -0.2489
 4878DDP     C329267   1.993   0.233  17.715 -0.1664 -0.1625 -0.0177
 4878DDP     C429268   2.388  30.142  18.696  0.0330  0.0965  0.0598
 4879DDP     C129269   6.496  19.927  23.216  0.2332  0.1359 -0.1312
 4879DDP     P129270   6.267  20.180  23.516  0.1493 -0.2671 -0.1575
 4879DDP     P229271   6.391  19.648  22.963 -0.0775 -0.1920  0.0440
 4879DDP     C229272   6.644  19.391  22.789  0.0937 -0.2489  0.1866
 4879DDP     C329273   6.238  20.519  23.624  0.0261 -0.1162  0.1524
 4879DDP     C429274   6.807  19.736  23.396  0.5026  0.0013 -0.0358
 4880DDP     C129275  13.244  10.240  10.354 -0.1653  0.0539 -0.2005
 4880DDP     P129276  13.709  10.216  10.133 -0.3030  0.0927 -0.1922
 4880DDP     P229277  13.449   9.888  10.580 -0.1766  0.1041  0.0935
 4880DDP     C229278  13.970   9.820  10.562  0.0751 -0.1296 -0.2009
 4880DDP     C329279  14.133   9.939  10.107 -0.1647 -0.0714 -0.0234
 4880DDP     C429280  12.859  10.605  10.175  0.0497 -0.1966  0.2168
 4881DDP     C129281  21.562  25.732   9.633 -0.1874 -0.0108 -0.0459
 4881DDP     P129282  21.392  26.165   9.582  0.0759 -0.2667  0.0148
 4881DDP     P229283  21.371  25.306   9.785  0.0425  0.2022 -0.2651
 4881DDP     C229284  21.058  25.030   9.611  0.1733  0.0958 -0.0217
 4881DDP     C329285  21.388  26.482   9.282  0.1197  0.1794 -0.1208
 4881DDP     C429286  22.069  25.849   9.574 -0.2845  0.1392 -0.2644
 4882DDP     C129287  28.029   2.449  26.699  0.1216  0.1048  0.2514
 4882DDP     P129288  27.759   2.101  26.755 -0.1034  0.3796 -0.0726
 4882DDP     P229289  28.179   2.705  26.966 -0.0315  0.1295 -0.1137
 4882DDP     C229290  28.413   3.072  27.212 -0.0070 -0.2409  0.1003
 4882DDP     C329291  27.349   1.936  26.879  0.0039 -0.1922  0.0087
 4882DDP     C429292  28.042   2.628  26.355  0.2282  0.2025  0.3527
 4883DDP     C129293  22.462  22.862  19.405 -0.3042  0.0714  0.2281
 4883DDP     P129294  22.405  23.160  19.688  0.1462 -0.2658  0.2525
 4883DDP     P229295  22.145  22.466  19.291  0.1207 -0.0238 -0.0581
 4883DDP     C229296  22.144  22.020  19.368  0.1200  0.0679  0.4087
 4883DDP     C329297  22.692  23.192  20.039  0.1633  0.1514 -0.0262
 4883DDP     C429298  22.764  22.994  19.035 -0.0114  0.0410  0.3975
 4884DDP     C129299  23.078   3.179  26.796 -0.3175 -0.0673  0.0901
 4884DDP     P129300  22.679   2.909  26.743 -0.2195 -0.1131 -0.0188
 4884DDP     P229301  23.122   3.411  26.398 -0.2252  0.0955  0.2962
 4884DDP     C229302  23.460   3.408  26.140  0.0076  0.1654  0.2212
 4884DDP     C329303  22.546   2.633  26.353  0.2829 -0.3282 -0.2389
 4884DDP     C429304  23.548   2.964  26.982 -0.1570 -0.0062 -0.3870
 4885DDP     C129305   3.107  22.836  18.665 -0.2908 -0.0722  0.0373
 4885DDP     P129306   3.125  22.387  18.579  0.1128  0.2922  0.1289
 4885DDP     P229307   2.873  23.032  19.069 -0.2772  0.1277  0.0847
 4885DDP     C229308   2.878  23.433  19.237 -0.1267  0.2201  0.2715
 4885DDP     C329309   3.275  22.016  18.368  0.0788 -0.1857 -0.1048
 4885DDP     C429310   3.497  23.111  18.492 -0.0717  0.0252  0.3305
 4886DDP     C129311  14.826  18.819   3.561  0.6321  0.1114  0.1811
 4886DDP     P129312  14.400  18.717   3.598 -0.3037  0.1281  0.0181
 4886DDP     P229313  14.925  18.440   3.305  0.1425 -0.0150 -0.0636
 4886DDP     C229314  14.931  17.976   3.364  0.2367 -0.0372 -0.0393
 4886DDP     C329315  14.024  18.609   3.522  0.1032 -0.0727  0.3465
 4886DDP     C429316  15.120  19.166   3.647 -0.2109 -0.3362 -0.0162
 4887DDP     C129317   6.331   7.882  11.151  0.0862  0.1817  0.1857
 4887DDP     P129318   6.349   8.086  11.499 -0.1352  0.1745 -0.0723
 4887DDP     P229319   6.400   7.978  10.699 -0.2583  0.3166 -0.0277
 4887DDP     C229320   6.468   7.705  10.274  0.0287 -0.2661 -0.0320
 4887DDP     C329321   6.172   8.260  11.923 -0.0316 -0.0582 -0.0243
 4887DDP     C429322   6.118   7.497  11.106  0.1933  0.2453  0.1513
 4888DDP     C129323   8.574  23.175   2.457 -0.1398  0.1776  0.1315
 4888DDP     P129324   8.640  23.624   2.661  0.1636 -0.1189  0.0356
 4888DDP     P229325   8.639  23.076   2.077  0.2494  0.1134 -0.4040
 4888DDP     C229326   8.587  22.909   1.744 -0.4910  0.0835 -0.1947
 4888DDP     C329327   8.795  24.010   2.642 -0.0095  0.1111 -0.0458
 4888DDP     C429328   8.381  22.828   2.699 -0.0628 -0.1875 -0.1905
 4889DDP     C129329   8.552  19.744   8.064  0.1504 -0.1075 -0.1277
 4889DDP     P129330   8.483  19.442   8.355 -0.3029  0.1153 -0.0992
 4889DDP     P229331   8.324  20.243   8.213 -0.3866  0.4448  0.1978
 4889DDP     C229332   8.482  20.649   8.196  0.1540 -0.0182 -0.1013
 4889DDP     C329333   8.324  19.228   8.701  0.2145  0.0013 -0.0677
 4889DDP     C429334   8.875  19.685   7.811  0.1947 -0.2150 -0.0439
 4890DDP     C129335  21.557   0.089   1.232  0.2544 -0.1154 -0.1680
 4890DDP     P129336  21.216  30.115   1.563 -0.2059 -0.0577 -0.2770
 4890DDP     P229337  22.048   0.272   1.453 -0.1899  0.1231 -0.0091
 4890DDP     C229338  22.273   0.367   1.856  0.2552  0.0686 -0.1377
 4890DDP     C329339  20.860  29.781   1.669 -0.1855 -0.2725 -0.1685
 4890DDP     C429340  21.695  30.055   0.812 -0.0299 -0.0364  0.2962
 4891DDP     C129341  20.991  22.353  21.392  0.0443  0.1393  0.1862
 4891DDP     P129342  20.593  22.533  21.586 -0.0519 -0.3301  0.0429
 4891DDP     P229343  21.396  22.571  21.315 -0.2503  0.1643  0.1102
 4891DDP     C229344  21.796  22.720  21.550 -0.3379  0.2211  0.0279
 4891DDP     C329345  20.393  22.421  21.918  0.0223  0.2772  0.0819
 4891DDP     C429346  20.694  21.992  21.243 -0.2138 -0.0916 -0.0027
 4892DDP     C129347  18.680  22.798  10.565 -0.0967  0.0222 -0.3547
 4892DDP     P129348  18.330  22.986  10.976 -0.3014 -0.1774  0.1623
 4892DDP     P229349  18.742  22.378  10.676 -0.2775 -0.1572  0.0557
 4892DDP     C229350  18.484  22.076  10.768 -0.2802 -0.2710  0.3337
 4892DDP     C329351  18.123  22.831  11.288  0.0127  0.2833  0.0624
 4892DDP     C429352  19.019  23.088  10.448  0.1569 -0.0765 -0.0935
 4893DDP     C129353   0.454  16.183   0.239  0.0148 -0.0249  0.0218
 4893DDP     P129354   0.162  15.803   0.271 -0.1125  0.0897 -0.3175
 4893DDP     P229355   0.703  16.237   0.668  0.1258  0.0244  0.4999
 4893DDP     C229356   0.789  16.046   0.988  0.2437 -0.0279 -0.0938
 4893DDP     C329357  30.208  15.855  30.192  0.1656 -0.2254 -0.4919
 4893DDP     C429358   0.564  16.466  30.153 -0.0310  0.1028 -0.0347
 4894DDP     C129359  25.404   3.388  17.321 -0.3726  0.0735  0.1524
 4894DDP     P129360  25.332   3.729  17.654  0.0353 -0.1731 -0.0184
 4894DDP     P229361  25.087   3.467  16.960 -0.1765  0.4124 -0.3935
 4894DDP     C229362  24.979   3.238  16.480  0.1309 -0.3449  0.0483
 4894DDP     C329363  25.241   3.875  18.068 -0.2563 -0.2455 -0.0026
 4894DDP     C429364  25.689   3.321  17.372  0.2434 -0.0316 -0.1054
 4895DDP     C129365  12.791   2.592   2.575  0.1264 -0.1062 -0.0025
 4895DDP     P129366  13.131   2.558   2.876  0.1342  0.1590 -0.1100
 4895DDP     P229367  12.621   2.273   2.488  0.3772 -0.1341  0.0695
 4895DDP     C229368  12.497   1.833   2.396  0.1309  0.0697  0.0354
 4895DDP     C329369  13.616   2.759   2.845  0.2321  0.1933 -0.0124
 4895DDP     C429370  12.574   2.986   2.473 -0.0468 -0.1963 -0.1563
 4896DDP     C129371  28.673  23.106  19.218 -0.0534 -0.0549 -0.0149
 4896DDP     P129372  28.884  22.935  19.492 -0.0505  0.0566  0.0905
 4896DDP     P229373  28.288  23.238  19.338 -0.0547  0.0131  0.1157
 4896DDP     C229374  27.898  23.376  19.625 -0.3127  0.0298  0.0246
 4896DDP     C329375  29.082  22.649  19.757  0.1671  0.1214 -0.1681
 4896DDP     C429376  28.849  22.924  18.793  0.0906  0.0473  0.0226
 4897DDP     C129377  17.460  16.802  13.748  0.1903 -0.1241 -0.1674
 4897DDP     P129378  17.115  16.946  13.976 -0.0480  0.0166 -0.0533
 4897DDP     P229379  17.593  17.056  13.550 -0.6089 -0.1341  0.0252
 4897DDP     C229380  17.846  16.906  13.151 -0.1189 -0.0934  0.2279
 4897DDP     C329381  16.990  16.840  14.318  0.0511  0.0411  0.1740
 4897DDP     C429382  17.645  16.454  13.894  0.0562  0.0933 -0.0861
 4898DDP     C129383  17.901  18.415  28.815 -0.0278 -0.1100 -0.3004
 4898DDP     P129384  18.298  18.629  28.721 -0.0902 -0.0096 -0.1045
 4898DDP     P229385  17.606  18.408  28.563  0.2448 -0.0425 -0.0995
 4898DDP     C229386  17.345  18.291  28.220  0.2726 -0.0919  0.2421
 4898DDP     C329387  18.691  18.612  28.504  0.0158  0.1641  0.2546
 4898DDP     C429388  17.894  18.127  29.243 -0.0926 -0.0645  0.0833
 4899DDP     C129389   2.531  27.497  14.218  0.2013 -0.1017  0.0270
 4899DDP     P129390   2.645  27.795  14.590  0.0278 -0.2659 -0.0958
 4899DDP     P229391   2.514  27.049  14.261 -0.1705  0.0221 -0.1262
 4899DDP     C229392   2.494  26.684  14.558 -0.1606  0.2072 -0.2771
 4899DDP     C329393   2.787  27.917  14.917  0.0387 -0.3618  0.0400
 4899DDP     C429394   2.401  27.740  13.902  0.0265 -0.0247 -0.0974
 4900DDP     C129395   7.490  19.873   6.577 -0.1419  0.0949  0.0113
 4900DDP     P129396   7.501  19.982   6.120 -0.0539  0.1539  0.0282
 4900DDP     P229397   7.113  19.779   6.700 -0.0817  0.2998  0.0176
 4900DDP     C229398   6.843  19.495   6.951  0.1376  0.2095  0.0319
 4900DDP     C329399   7.280  20.184   5.790 -0.2610  0.0589 -0.2304
 4900DDP     C429400   7.813  19.961   6.875  0.0480  0.2348 -0.0696
 4901DDP     C129401   3.874   4.115  29.691 -0.0577  0.4607  0.0179
 4901DDP     P129402   3.595   4.145  29.962 -0.1090 -0.1452  0.1332
 4901DDP     P229403   3.670   3.791  29.380  0.0782  0.3698 -0.0615
 4901DDP     C229404   3.591   3.658  28.995  0.0478  0.3933  0.0667
 4901DDP     C329405   3.221   3.831  29.809 -0.1444 -0.0288  0.1841
 4901DDP     C429406   4.374   4.280  29.771  0.2011 -0.3148 -0.0833
 4902DDP     C129407  14.399  18.353  26.152 -0.2096  0.1985  0.0748
 4902DDP     P129408  14.152  18.373  25.805 -0.2479  0.0401 -0.1367
 4902DDP     P229409  14.495  17.998  26.224 -0.0772 -0.1061 -0.1404
 4902DDP     C229410  14.621  17.695  26.532 -0.2214 -0.0978 -0.0619
 4902DDP     C329411  13.993  18.787  25.668 -0.0523 -0.0659 -0.0002
 4902DDP     C429412  14.420  18.633  26.521  0.4036  0.1395 -0.1049
 4903DDP     C129413  21.568  23.492   6.159  0.1843  0.3074 -0.0293
 4903DDP     P129414  21.272  23.348   5.969  0.1880 -0.1236  0.2450
 4903DDP     P229415  21.632  23.154   6.297  0.3159 -0.4954  0.2913
 4903DDP     C229416  21.483  22.802   6.105  0.0450 -0.1855 -0.1575
 4903DDP     C329417  20.860  23.406   5.698 -0.0366 -0.0654  0.0729
 4903DDP     C429418  21.541  23.893   6.102  0.3334 -0.2221 -0.3143
 4904DDP     C129419   5.826   7.523   0.419 -0.0146 -0.0820  0.3174
 4904DDP     P129420   5.981   7.137   0.447 -0.2857  0.0521 -0.0084
 4904DDP     P229421   5.395   7.671   0.554 -0.4378  0.1134  0.0972
 4904DDP     C229422   4.996   7.909   0.682  0.1478 -0.1124  0.4364
 4904DDP     C329423   5.953   6.723   0.475  0.1160  0.1841 -0.2150
 4904DDP     C429424   6.131   7.686   0.238 -0.1689  0.0637  0.0799
 4905DDP     C129425  28.102  10.146  20.957  0.2551 -0.3440 -0.3727
 4905DDP     P129426  28.293  10.091  21.433 -0.0697 -0.2926  0.1564
 4905DDP     P229427  28.172  10.507  20.936 -0.3060 -0.2191  0.1079
 4905DDP     C229428  28.081  10.953  21.060 -0.1681 -0.2388  0.3085
 4905DDP     C329429  28.164   9.849  21.720  0.0117  0.1412 -0.0466
 4905DDP     C429430  27.979   9.816  20.621  0.0980 -0.2199 -0.0177
 4906DDP     C129431  23.593   7.010   1.768 -0.1216  0.2774 -0.1419
 4906DDP     P129432  23.730   7.071   1.352 -0.0281  0.1270 -0.2008
 4906DDP     P229433  23.330   6.634   1.931 -0.1197 -0.0456  0.1153
 4906DDP     C229434  23.207   6.304   1.604 -0.0924  0.2516 -0.2865
 4906DDP     C329435  24.054   7.242   1.154  0.2759  0.3656  0.0645
 4906DDP     C429436  23.727   7.345   2.095 -0.2179  0.2002 -0.1495
 4907DDP     C129437   9.951  24.188  28.470 -0.1326 -0.0442  0.0358
 4907DDP     P129438  10.299  24.194  28.145 -0.0789 -0.0878  0.0594
 4907DDP     P229439   9.778  24.007  28.138  0.1797 -0.1728 -0.3472
 4907DDP     C229440   9.809  23.606  27.871  0.2156 -0.1582 -0.2751
 4907DDP     C329441  10.689  23.984  28.121 -0.1370  0.3913 -0.1153
 4907DDP     C429442   9.784  24.500  28.693  0.0911  0.3212  0.0758
 4908DDP     C129443   5.194  12.716  15.529  0.1586 -0.0406  0.1744
 4908DDP     P129444   5.574  12.860  15.506 -0.1720 -0.2490  0.0282
 4908DDP     P229445   5.064  12.491  15.905  0.1146  0.0229 -0.4243
 4908DDP     C229446   4.952  12.388  16.318 -0.0156 -0.3662  0.1277
 4908DDP     C329447   5.969  13.068  15.539 -0.2397 -0.1465 -0.2678
 4908DDP     C429448   4.914  12.820  15.122  0.0789 -0.1034 -0.1474
 4909DDP     C129449   6.167  27.397  28.462  0.1114  0.0061  0.1978
 4909DDP     P129450   6.298  27.071  28.664 -0.0319  0.0696 -0.1925
 4909DDP     P229451   6.346  27.495  28.051 -0.2232  0.0567  0.2356
 4909DDP     C229452   6.223  27.901  27.821 -0.0536 -0.0918 -0.2568
 4909DDP     C329453   6.241  26.708  28.909 -0.1980  0.0114  0.0784
 4909DDP     C429454   6.113  27.712  28.678  0.3387 -0.0535  0.0812
 4910DDP     C129455  23.623   6.685  27.610 -0.1474 -0.1890  0.0416
 4910DDP     P129456  23.655   7.021  27.316 -0.2651  0.1734 -0.2180
 4910DDP     P229457  23.659   6.864  28.129  0.0564  0.0738  0.2855
 4910DDP     C229458  23.693   7.086  28.437  0.0860  0.3407 -0.3150
 4910DDP     C329459  23.827   7.305  27.038  0.0292 -0.1811  0.0233
 4910DDP     C429460  23.385   6.360  27.497 -0.0258  0.2191  0.0606
 4911DDP     C129461  30.094  21.933   2.203 -0.0290  0.4890  0.0723
 4911DDP     P129462  29.697  22.151   2.235 -0.0607  0.0160 -0.1945
 4911DDP     P229463  30.079  21.631   1.729  0.1413 -0.2598 -0.2719
 4911DDP     C229464  30.192  21.661   1.308 -0.5342  0.2470  0.4045
 4911DDP     C329465  29.356  22.266   1.873 -0.2554  0.1615  0.1838
 4911DDP     C429466  30.339  21.722   2.547  0.5405 -0.4519  0.0246
 4912DDP     C129467  11.635   3.042  20.177  0.0664  0.2825 -0.0522
 4912DDP     P129468  11.288   2.871  19.886 -0.0327 -0.3213 -0.2542
 4912DDP     P229469  11.964   3.423  20.051  0.3663  0.1945  0.1540
 4912DDP     C229470  12.376   3.351  20.036 -0.0152  0.1492 -0.2617
 4912DDP     C329471  10.991   2.999  19.613 -0.2564 -0.0887  0.0907
 4912DDP     C429472  11.588   2.925  20.641 -0.0013  0.4255  0.1844
 4913DDP     C129473  22.177  15.447   7.942  0.1577 -0.1655 -0.0724
 4913DDP     P129474  22.308  15.873   8.029 -0.0133  0.0250 -0.0741
 4913DDP     P229475  21.835  15.130   8.069 -0.2027  0.0699 -0.2241
 4913DDP     C229476  21.570  14.882   7.852  0.0867  0.0185  0.0193
 4913DDP     C329477  22.220  16.298   7.884  0.2417  0.0910 -0.2548
 4913DDP     C429478  22.282  15.624   7.584  0.1510 -0.4632 -0.0638
 4914DDP     C129479  14.634  27.470  19.767  0.3005  0.0832  0.0573
 4914DDP     P129480  14.675  27.589  20.123 -0.2589  0.1074 -0.1838
 4914DDP     P229481  14.675  27.111  19.831  0.0458 -0.1721  0.3197
 4914DDP     C229482  14.638  26.710  20.151  0.2234  0.3714 -0.1499
 4914DDP     C329483  14.921  27.115  20.294  0.1825 -0.1041  0.1573
 4914DDP     C429484  14.631  27.529  19.292  0.1099 -0.0251  0.3048
 4915DDP     C129485  12.069   4.958  18.004  0.0951  0.0093 -0.0621
 4915DDP     P129486  11.802   5.320  17.923  0.0516 -0.3732 -0.2723
 4915DDP     P229487  12.200   4.612  18.220 -0.0856  0.0203 -0.0264
 4915DDP     C229488  12.081   4.269  17.979  0.2198 -0.2936 -0.1862
 4915DDP     C329489  11.556   5.509  17.615  0.0215  0.0736 -0.2193
 4915DDP     C429490  12.174   5.064  17.562 -0.0457  0.3833 -0.1964
 4916DDP     C129491  19.790   3.131  17.018  0.0916  0.0916  0.2670
 4916DDP     P129492  19.848   3.228  16.620 -0.0068 -0.0712  0.0702
 4916DDP     P229493  19.687   3.430  17.423  0.2158  0.0642 -0.1789
 4916DDP     C229494  19.674   3.236  17.908  0.3415 -0.1053 -0.1116
 4916DDP     C329495  19.844   3.125  16.230  0.1621 -0.1750  0.0066
 4916DDP     C429496  19.769   2.679  17.146  0.0263  0.3155 -0.0704
 4917DDP     C129497  15.545  28.051  16.047  0.0157 -0.2475  0.0794
 4917DDP     P129498  15.131  27.932  16.084 -0.0288  0.1149  0.0407
 4917DDP     P229499  15.643  27.633  15.838  0.2554  0.1782 -0.3923
 4917DDP     C229500  15.615  27.327  15.475 -0.3979 -0.0861  0.0399
 4917DDP     C329501  14.759  27.679  15.837  0.4706  0.0414  0.1768
 4917DDP     C429502  15.624  28.339  16.472 -0.0904 -0.1842  0.2451
 4918DDP     C129503   0.177  15.810  24.019 -0.2174 -0.0866 -0.2128
 4918DDP     P129504  30.304  16.154  24.287  0.1166 -0.1764  0.0411
 4918DDP     P229505   0.343  15.341  24.122 -0.3232 -0.1080 -0.0475
 4918DDP     C229506   0.449  14.846  24.209 -0.1547 -0.0210 -0.1231
 4918DDP     C329507  29.936  16.405  24.173 -0.1359  0.1613 -0.1833
 4918DDP     C429508   0.381  16.024  23.648 -0.0120  0.4851 -0.0643
 4919DDP     C129509   3.368   6.869  28.117  0.3737 -0.0060  0.0209
 4919DDP     P129510   3.515   7.034  28.570 -0.1770 -0.0889 -0.1270
 4919DDP     P229511   3.559   6.569  27.754 -0.0398 -0.1881 -0.1014
 4919DDP     C229512   3.854   6.355  27.738  0.0919  0.0615  0.0364
 4919DDP     C329513   3.513   6.855  28.917 -0.0237  0.1152  0.2233
 4919DDP     C429514   3.032   7.183  27.960 -0.0652  0.2240  0.0934
 4920DDP     C129515  14.327  26.630  29.215  0.1158  0.2112 -0.0663
 4920DDP     P129516  14.453  26.194  29.337 -0.0886 -0.1721  0.1523
 4920DDP     P229517  13.952  26.697  28.981  0.2915 -0.2727 -0.1480
 4920DDP     C229518  13.844  26.533  28.683  0.1427  0.4065  0.1132
 4920DDP     C329519  14.414  25.815  29.643  0.0385  0.1625  0.2068
 4920DDP     C429520  14.556  27.034  29.316 -0.0297 -0.0140  0.0852
 4921DDP     C129521   5.116  21.501  27.037 -0.2661  0.0991 -0.0313
 4921DDP     P129522   4.808  21.389  26.860  0.2208  0.3498 -0.1407
 4921DDP     P229523   5.435  21.874  26.955  0.0330 -0.0819 -0.0036
 4921DDP     C229524   5.761  22.116  26.883  0.1568  0.0568  0.0182
 4921DDP     C329525   4.529  21.348  26.520  0.2018  0.0084 -0.2444
 4921DDP     C429526   5.137  21.350  27.492  0.2663 -0.0298  0.0942
 4922DDP     C129527  19.481  10.902  13.773  0.0186 -0.0010  0.0393
 4922DDP     P129528  19.928  10.939  13.653  0.2360 -0.2666 -0.2262
 4922DDP     P229529  19.412  10.532  14.000  0.1877  0.3903 -0.2006
 4922DDP     C229530  19.601  10.103  14.173 -0.2540 -0.1716  0.0617
 4922DDP     C329531  20.270  10.983  13.327  0.0860  0.2639  0.0263
 4922DDP     C429532  19.067  11.181  13.724 -0.3112 -0.1087 -0.0920
 4923DDP     C129533   0.977   1.444  28.424 -0.2162 -0.4163  0.1644
 4923DDP     P129534   0.661   1.334  28.726 -0.2087  0.0644  0.0134
 4923DDP     P229535   0.765   1.676  27.990  0.1865  0.0703 -0.0222
 4923DDP     C229536   0.489   1.660  27.696  0.0600 -0.3479 -0.2118
 4923DDP     C329537   0.293   1.613  28.753  0.2786  0.1783  0.1844
 4923DDP     C429538   1.458   1.345  28.544  0.2445 -0.1104  0.1170
 4924DDP     C129539  17.039  18.251  19.243  0.0032  0.0822  0.0951
 4924DDP     P129540  16.771  18.305  18.812 -0.1016  0.3184  0.2051
 4924DDP     P229541  17.229  17.810  19.316  0.0115  0.0464  0.0875
 4924DDP     C229542  17.321  17.485  19.051  0.0965 -0.0465 -0.3641
 4924DDP     C329543  16.696  18.308  18.402  0.1081 -0.1619  0.1289
 4924DDP     C429544  17.032  18.637  19.573  0.0504 -0.1155  0.1735
 4925DDP     C129545  24.298  28.049  26.291  0.1589 -0.0780 -0.0157
 4925DDP     P129546  24.220  27.841  25.863  0.0399 -0.2324 -0.2383
 4925DDP     P229547  24.696  27.885  26.442  0.1517 -0.1703  0.0427
 4925DDP     C229548  25.050  28.071  26.837 -0.2469 -0.1187  0.3390
 4925DDP     C329549  24.501  27.529  25.727 -0.0957 -0.0667 -0.2583
 4925DDP     C429550  24.283  28.489  26.431  0.2059  0.0726 -0.1965
 4926DDP     C129551  17.188  18.869   6.348 -0.2542  0.1866  0.1449
 4926DDP     P129552  17.176  18.663   6.679 -0.2128  0.3470  0.1102
 4926DDP     P229553  16.940  18.776   6.243 -0.0256  0.0418  0.0791
 4926DDP     C229554  16.629  18.397   6.355 -0.0225 -0.1297 -0.0982
 4926DDP     C329555  17.452  18.470   7.019 -0.0776 -0.0489  0.0800
 4926DDP     C429556  17.513  19.003   6.090  0.1668  0.1239 -0.0402
 4927DDP     C129557  22.523  17.601   1.471 -0.1968 -0.0237 -0.2729
 4927DDP     P129558  22.370  17.393   1.892 -0.3735  0.1180 -0.0677
 4927DDP     P229559  22.777  17.309   1.285 -0.0422 -0.2090  0.0161
 4927DDP     C229560  23.077  16.961   1.097  0.4013 -0.1911  0.0968
 4927DDP     C329561  22.662  17.136   2.109  0.0622  0.2414 -0.1760
 4927DDP     C429562  22.303  17.634   1.129 -0.1195  0.0159 -0.1673
 4928DDP     C129563  29.027  19.165  14.404  0.5285 -0.0737 -0.1803
 4928DDP     P129564  29.199  18.760  14.195  0.0302 -0.0253  0.1130
 4928DDP     P229565  28.618  19.233  14.223 -0.1040 -0.2855 -0.2093
 4928DDP     C229566  28.184  19.301  14.031  0.4436  0.1248 -0.1717
 4928DDP     C329567  29.658  18.609  14.140 -0.1362  0.0121 -0.3014
 4928DDP     C429568  29.290  19.277  14.664  0.1206 -0.1426  0.2380
 4929DDP     C129569  20.135  19.949  16.202 -0.0145 -0.2947 -0.0860
 4929DDP     P129570  19.930  20.224  16.422 -0.0893 -0.0469 -0.1196
 4929DDP     P229571  20.053  19.658  15.976  0.0120 -0.2276 -0.0176
 4929DDP     C229572  20.115  19.281  15.833 -0.2216 -0.0734  0.1152
 4929DDP     C329573  20.008  20.278  16.920 -0.0027  0.2349 -0.0233
 4929DDP     C429574  20.478  20.117  16.094  0.0724 -0.1411  0.1935
 4930DDP     C129575  27.563   0.713   7.332  0.0717 -0.0230  0.1440
 4930DDP     P129576  27.960   0.875   7.527 -0.1163  0.0422  0.0999
 4930DDP     P229577  27.804   0.323   7.344 -0.1257 -0.0955 -0.1257
 4930DDP     C229578  28.194  -0.003   7.465  0.2308 -0.0748  0.4113
 4930DDP     C329579  28.297   1.154   7.402 -0.0792 -0.1153 -0.0917
 4930DDP     C429580  27.061   0.805   7.385 -0.2335  0.1851 -0.1649
 4931DDP     C129581  16.804  20.608  28.073  0.2511  0.0890  0.0307
 4931DDP     P129582  16.757  21.103  28.224 -0.0086  0.1858 -0.1233
 4931DDP     P229583  16.899  20.192  28.160 -0.1647  0.0621  0.1368
 4931DDP     C229584  16.978  19.997  28.492 -0.1146 -0.2692  0.1465
 4931DDP     C329585  16.698  21.405  28.595  0.2492 -0.0937 -0.1792
 4931DDP     C429586  16.474  20.549  27.815 -0.0120  0.1213 -0.0928
 4932DDP     C129587  18.140  17.648   6.992  0.0770 -0.3590  0.1904
 4932DDP     P129588  18.212  17.787   6.586  0.2596  0.0641 -0.0784
 4932DDP     P229589  18.474  17.558   7.141  0.0427  0.0227 -0.1461
 4932DDP     C229590  18.971  17.613   7.336 -0.0708 -0.1864  0.0636
 4932DDP     C329591  18.065  17.659   6.208  0.2496  0.0732  0.1701
 4932DDP     C429592  17.724  17.540   7.067 -0.0766  0.1922 -0.1825
 4933DDP     C129593  16.195  24.940  11.556  0.0784 -0.1296  0.4424
 4933DDP     P129594  16.598  24.986  11.461  0.0087  0.4118  0.0729
 4933DDP     P229595  15.815  25.119  11.608  0.3676 -0.2800 -0.0695
 4933DDP     C229596  15.553  25.347  11.409  0.0947 -0.0322 -0.2690
 4933DDP     C329597  16.879  24.975  11.843  0.4081 -0.1821  0.0856
 4933DDP     C429598  16.246  24.548  11.550  0.0780  0.2948 -0.0527
 4934DDP     C129599  10.065  14.954  15.936 -0.0963 -0.0022  0.0687
 4934DDP     P129600  10.294  15.232  15.607  0.0076 -0.4220  0.3655
 4934DDP     P229601  10.121  14.483  15.924  0.1370  0.1871  0.0636
 4934DDP     C229602  10.264  14.149  15.782  0.2260  0.0715 -0.1207
 4934DDP     C329603  10.656  15.397  15.391 -0.2064 -0.5141  0.3870
 4934DDP     C429604  10.002  15.303  16.169  0.2292  0.2542  0.1947
 4935DDP     C129605   8.758  14.665   7.994 -0.2284 -0.4434 -0.2032
 4935DDP     P129606   8.378  14.809   7.796 -0.0865  0.1091  0.1306
 4935DDP     P229607   9.168  14.890   8.075  0.2150  0.2181 -0.0201
 4935DDP     C229608   9.588  14.822   8.054  0.0770 -0.0242 -0.1015
 4935DDP     C329609   7.999  14.882   7.627 -0.2839 -0.1601  0.1284
 4935DDP     C429610   8.674  14.170   8.161  0.0809 -0.1727 -0.1202
 4936DDP     C129611   5.447  27.543  12.726  0.2589 -0.0114 -0.1784
 4936DDP     P129612   5.656  27.933  12.947  0.0128 -0.0011 -0.2441
 4936DDP     P229613   5.009  27.542  12.547  0.1840 -0.0321  0.0055
 4936DDP     C229614   4.613  27.378  12.499 -0.0849 -0.1863  0.0817
 4936DDP     C329615   5.846  27.832  13.280 -0.0059 -0.0231 -0.1942
 4936DDP     C429616   5.701  27.192  12.797  0.3762  0.0700 -0.2210
 4937DDP     C129617   5.664   5.097   8.564  0.0391 -0.3939 -0.2545
 4937DDP     P129618   5.787   5.508   8.342  0.0838  0.1022  0.1971
 4937DDP     P229619   5.984   4.769   8.483  0.0548  0.1133 -0.1474
 4937DDP     C229620   6.233   4.428   8.286  0.0756 -0.0215 -0.2161
 4937DDP     C329621   5.880   5.976   8.348 -0.1514  0.0892 -0.3067
 4937DDP     C429622   5.307   5.145   8.739  0.0460 -0.2326 -0.3200
 4938DDP     C129623   3.722  14.431  15.874 -0.0351  0.0096  0.1147
 4938DDP     P129624   3.336  14.275  15.683 -0.1425  0.0978  0.0162
 4938DDP     P229625   3.719  14.650  16.240  0.4422  0.0532 -0.0230
 4938DDP     C229626   3.577  14.629  16.684 -0.3441  0.1512 -0.1717
 4938DDP     C329627   3.230  14.223  15.310  0.0444 -0.3278 -0.2748
 4938DDP     C429628   4.093  14.378  15.658  0.0221  0.1430  0.1242
 4939DDP     C129629   7.516  15.259   9.828  0.0078  0.0193 -0.0464
 4939DDP     P129630   7.218  15.199  10.246  0.1136  0.1536  0.0514
 4939DDP     P229631   7.378  15.161   9.433  0.0995 -0.0263 -0.4301
 4939DDP     C229632   7.511  14.799   9.189 -0.2091 -0.4350  0.2043
 4939DDP     C329633   6.993  15.078  10.578  0.1761 -0.2144 -0.2153
 4939DDP     C429634   7.565  15.685   9.956 -0.2431  0.0154  0.3091
 4940DDP     C129635  26.853  20.889  13.350  0.1537  0.1134  0.1285
 4940DDP     P129636  26.586  21.108  13.714 -0.0454 -0.1382 -0.0164
 4940DDP     P229637  26.547  20.730  13.112  0.0685  0.2267 -0.1240
 4940DDP     C229638  26.233  20.386  13.012  0.0525 -0.0770 -0.0531
 4940DDP     C329639  26.619  20.936  14.164 -0.0064 -0.0642  0.3036
 4940DDP     C429640  27.291  20.722  13.555 -0.0997  0.1513  0.2553
 4941DDP     C129641  22.692  11.723   1.686 -0.3291 -0.2062 -0.0793
 4941DDP     P129642  22.358  11.930   1.480 -0.0504  0.0039  0.0894
 4941DDP     P229643  23.076  11.910   1.733 -0.1129 -0.0975 -0.1465
 4941DDP     C229644  23.262  12.143   1.988 -0.1437  0.2782  0.0715
 4941DDP     C329645  21.955  11.894   1.223 -0.2513 -0.0296 -0.0855
 4941DDP     C429646  22.607  11.293   1.816  0.3299 -0.0588 -0.0814
 4942DDP     C129647  19.495   7.541   3.785 -0.3115 -0.3247  0.5139
 4942DDP     P129648  19.789   7.350   3.569  0.2602 -0.1715  0.1762
 4942DDP     P229649  19.659   7.913   3.953 -0.4282  0.0469 -0.0169
 4942DDP     C229650  19.629   8.190   4.273  0.2791 -0.3495 -0.2377
 4942DDP     C329651  19.952   6.945   3.683 -0.0046  0.1331 -0.2584
 4942DDP     C429652  19.226   7.443   3.929 -0.1321  0.0565 -0.0193
 4943DDP     C129653  14.642   7.866  25.045  0.1077  0.1304 -0.0402
 4943DDP     P129654  14.358   7.770  25.362 -0.0398  0.2090 -0.1892
 4943DDP     P229655  14.529   7.646  24.656 -0.0005  0.1097  0.2970
 4943DDP     C229656  14.610   7.369  24.317  0.1875  0.3488  0.4414
 4943DDP     C329657  14.084   8.056  25.671 -0.1805 -0.0584  0.0283
 4943DDP     C429658  14.916   8.159  25.082 -0.1392 -0.1006  0.0192
 4944DDP     C129659  22.206  28.780  25.924 -0.4671  0.2572  0.3682
 4944DDP     P129660  22.354  28.422  25.674 -0.0034  0.0693 -0.1639
 4944DDP     P229661  22.188  28.655  26.456  0.0006 -0.1313 -0.1464
 4944DDP     C229662  22.258  28.405  26.847 -0.0830  0.0562  0.0076
 4944DDP     C329663  22.074  28.225  25.310  0.0656 -0.1559 -0.0720
 4944DDP     C429664  22.264  29.156  25.739  0.4688  0.0925 -0.1899
 4945DDP     C129665   8.189  27.360  19.199 -0.0890 -0.0825 -0.1543
 4945DDP     P129666   8.572  27.336  19.023  0.4259  0.2394  0.1413
 4945DDP     P229667   7.810  27.055  19.043  0.0133 -0.1557  0.2158
 4945DDP     C229668   7.577  26.721  18.883 -0.0851 -0.0707  0.0453
 4945DDP     C329669   8.823  27.041  18.831 -0.3304  0.0382  0.1632
 4945DDP     C429670   8.104  27.687  19.488 -0.1599 -0.0107  0.2427
 4946DDP     C129671  28.465  27.194   3.900  0.3808  0.2010 -0.2284
 4946DDP     P129672  28.745  26.906   4.182  0.1922 -0.2537 -0.1369
 4946DDP     P229673  28.022  27.122   3.962  0.0803 -0.0576 -0.1608
 4946DDP     C229674  27.562  27.211   4.129 -0.1526  0.0821  0.2002
 4946DDP     C329675  28.889  26.574   4.423 -0.1458 -0.0958  0.1486
 4946DDP     C429676  28.580  27.432   3.536  0.0991  0.0264 -0.3310
 4947DDP     C129677   5.811  11.555  11.563 -0.0147 -0.3446  0.1825
 4947DDP     P129678   5.713  11.533  12.003  0.1252 -0.0875 -0.1631
 4947DDP     P229679   5.818  12.027  11.643 -0.1245  0.2017 -0.1426
 4947DDP     C229680   6.063  12.395  11.772 -0.2324  0.1838  0.0555
 4947DDP     C329681   5.593  11.125  12.225  0.0329 -0.1651  0.3247
 4947DDP     C429682   6.010  11.229  11.293  0.3574  0.1905 -0.0536
 4948DDP     C129683  14.205  21.023   3.632 -0.1074 -0.0671  0.1235
 4948DDP     P129684  14.312  20.645   3.478  0.1818  0.1607 -0.0768
 4948DDP     P229685  14.495  21.365   3.798  0.0024 -0.0022 -0.0860
 4948DDP     C229686  14.549  21.732   3.587 -0.3558 -0.4525 -0.0420
 4948DDP     C329687  14.427  20.292   3.247  0.4191 -0.0435  0.1969
 4948DDP     C429688  13.864  21.266   3.479  0.0176  0.1645 -0.1101
 4949DDP     C129689  20.664  11.561  20.390  0.1126 -0.0108  0.4694
 4949DDP     P129690  20.848  11.954  20.355  0.1606  0.0529 -0.2016
 4949DDP     P229691  20.274  11.736  20.640  0.0113  0.1236 -0.2302
 4949DDP     C229692  19.882  11.610  20.627 -0.1809 -0.0288  0.1880
 4949DDP     C329693  20.947  12.304  20.017 -0.0742  0.2008  0.6508
 4949DDP     C429694  20.942  11.287  20.093 -0.2485  0.1576  0.2114
 4950DDP     C129695   1.323  17.896  26.156  0.0700 -0.2838 -0.1902
 4950DDP     P129696   1.563  17.646  25.983  0.1903 -0.0541  0.0853
 4950DDP     P229697   1.439  18.368  26.050  0.0412  0.1620 -0.0171
 4950DDP     C229698   1.672  18.679  25.653 -0.2495 -0.3931  0.0782
 4950DDP     C329699   1.462  17.156  25.876  0.1351  0.2706 -0.0596
 4950DDP     C429700   1.142  17.718  26.466 -0.2674 -0.1811  0.0352
 4951DDP     C129701   6.987   6.231  22.806  0.0506  0.0006  0.0074
 4951DDP     P129702   6.677   6.092  22.502  0.1892  0.1917  0.0116
 4951DDP     P229703   7.401   6.226  22.632  0.0034  0.0914 -0.1157
 4951DDP     C229704   7.641   6.328  22.325  0.0523  0.0143 -0.0757
 4951DDP     C329705   6.612   6.186  22.044 -0.2356 -0.2212 -0.1316
 4951DDP     C429706   7.068   6.537  23.020  0.0044  0.2785 -0.0056
 4952DDP     C129707   8.341  14.011  23.122 -0.0175  0.3013 -0.0104
 4952DDP     P129708   8.639  14.038  23.416  0.2577 -0.1782 -0.0678
 4952DDP     P229709   8.281  13.797  22.779  0.2110 -0.1903  0.2592
 4952DDP     C229710   8.401  13.550  22.629  0.0301 -0.0314 -0.2292
 4952DDP     C329711   8.869  14.280  23.665  0.0641 -0.0800  0.1060
 4952DDP     C429712   8.090  14.374  23.120 -0.1005 -0.1625  0.0954
 4953DDP     C129713   1.805   2.189  28.034 -0.1211  0.2265  0.2159
 4953DDP     P129714   2.126   2.483  28.047 -0.0927 -0.1690 -0.1614
 4953DDP     P229715   1.420   2.269  27.674 -0.2468  0.3058  0.0434
 4953DDP     C229716   1.010   2.357  27.852  0.3567  0.0622  0.1434
 4953DDP     C329717   2.281   2.927  28.186  0.0254 -0.0979 -0.0817
 4953DDP     C429718   1.762   1.767  28.230  0.1182 -0.1875  0.0858
 4954DDP     C129719  15.762  10.470   7.180 -0.1569 -0.2929  0.1297
 4954DDP     P129720  16.097  10.366   7.437  0.2348 -0.0618 -0.2608
 4954DDP     P229721  15.330  10.496   7.332  0.1087 -0.2207  0.0483
 4954DDP     C229722  15.037  10.537   7.708 -0.0728  0.1610  0.0930
 4954DDP     C329723  16.498  10.349   7.412  0.1165 -0.1667 -0.3842
 4954DDP     C429724  15.922  10.446   6.777  0.1340  0.0502 -0.1031
 4955DDP     C129725  29.219  21.838  21.877 -0.3381  0.1554 -0.0329
 4955DDP     P129726  28.895  22.131  21.860  0.1097  0.2705  0.0545
 4955DDP     P229727  29.510  21.608  21.453  0.1572  0.1187 -0.6038
 4955DDP     C229728  29.618  21.418  21.145 -0.1924  0.1367  0.0969
 4955DDP     C329729  28.715  22.527  22.088 -0.1673 -0.1690 -0.0327
 4955DDP     C429730  29.171  21.436  22.157 -0.0558 -0.0086 -0.0722
 4956DDP     C129731  18.695  19.050  15.304  0.1336 -0.1438  0.2766
 4956DDP     P129732  18.720  18.725  15.711  0.0591 -0.0810 -0.4289
 4956DDP     P229733  18.352  18.988  14.982 -0.0662  0.0434 -0.0569
 4956DDP     C229734  18.308  18.921  14.590  0.1305  0.1831 -0.0421
 4956DDP     C329735  19.108  18.565  16.059 -0.0618 -0.2741  0.2058
 4956DDP     C429736  19.009  19.372  15.153 -0.0959  0.0538  0.2457
 4957DDP     C129737  28.711   3.677   4.561  0.1341 -0.2620 -0.1309
 4957DDP     P129738  28.427   3.956   4.453  0.3564  0.0087 -0.3890
 4957DDP     P229739  28.756   3.404   4.875 -0.0980 -0.2662  0.0365
 4957DDP     C229740  28.723   3.194   5.356 -0.6272 -0.2260  0.2896
 4957DDP     C329741  28.046   3.982   4.290 -0.1030 -0.0140  0.2043
 4957DDP     C429742  29.100   3.793   4.491 -0.1551 -0.2513 -0.2685
 4958DDP     C129743   7.659  12.052  28.087 -0.0618  0.0127 -0.3434
 4958DDP     P129744   7.593  11.883  28.502 -0.5295  0.0261 -0.2388
 4958DDP     P229745   7.222  12.150  27.772 -0.1207 -0.0360 -0.1435
 4958DDP     C229746   6.961  12.330  27.610  0.0870 -0.1974 -0.2427
 4958DDP     C329747   7.942  11.662  28.654 -0.1085  0.3308 -0.4720
 4958DDP     C429748   8.056  11.966  27.878  0.0753  0.0141  0.2693
 4959DDP     C129749   3.778  20.333  13.263 -0.0174 -0.0712  0.0997
 4959DDP     P129750   4.123  20.072  13.523 -0.0451  0.4341 -0.1775
 4959DDP     P229751   3.601  19.932  13.098  0.0062  0.3450 -0.2073
 4959DDP     C229752   3.340  19.480  13.286 -0.0857  0.3547 -0.0635
 4959DDP     C329753   4.446  20.084  13.862  0.3148  0.0997  0.0163
 4959DDP     C429754   3.845  20.745  13.110  0.1297  0.0042  0.2015
 4960DDP     C129755  26.148  15.498  19.004  0.2694  0.1647  0.0339
 4960DDP     P129756  25.746  15.628  18.876  0.1988 -0.0898  0.0610
 4960DDP     P229757  26.197  15.141  19.216 -0.0654  0.1016 -0.1021
 4960DDP     C229758  26.407  14.757  19.136  0.2426  0.0091  0.2213
 4960DDP     C329759  25.346  15.673  18.621  0.0896  0.0695  0.3658
 4960DDP     C429760  26.506  15.542  18.791  0.2324 -0.1883  0.0182
 4961DDP     C129761  25.901  26.692   7.279  0.1100  0.3600  0.0195
 4961DDP     P129762  25.825  26.328   6.998 -0.3271  0.0275 -0.0577
 4961DDP     P229763  25.591  26.650   7.624  0.1193  0.0094  0.2227
 4961DDP     C229764  25.322  27.032   7.851  0.0450  0.1140  0.3130
 4961DDP     C329765  25.524  26.193   6.951 -0.0766  0.0650 -0.7289
 4961DDP     C429766  26.285  26.907   7.124 -0.2128  0.2182  0.0166
 4962DDP     C129767  23.671  22.395  17.738 -0.3278  0.0396 -0.4110
 4962DDP     P129768  23.425  22.727  17.927  0.2060  0.0553 -0.1540
 4962DDP     P229769  23.569  22.159  17.319  0.1721  0.0694  0.1792
 4962DDP     C229770  23.766  21.886  17.127  0.1825  0.0456  0.1351
 4962DDP     C329771  23.131  23.147  18.031 -0.1031 -0.0514 -0.0606
 4962DDP     C429772  24.129  22.276  17.781 -0.1127  0.3834  0.2985
 4963DDP     C129773  27.360  22.157  18.788 -0.1995 -0.2079 -0.2726
 4963DDP     P129774  27.514  22.254  18.409 -0.2833  0.1619  0.2985
 4963DDP     P229775  26.933  22.055  18.629  0.1703 -0.1368 -0.0938
 4963DDP     C229776  26.537  21.925  18.807  0.2454 -0.1711 -0.0021
 4963DDP     C329777  27.737  22.063  17.943 -0.1180 -0.4128 -0.0099
 4963DDP     C429778  27.538  21.832  19.062 -0.1095  0.0119 -0.0459
 4964DDP     C129779  13.615  14.783  16.722  0.1099  0.1512  0.1872
 4964DDP     P129780  13.437  14.706  16.257  0.0839 -0.1781 -0.2418
 4964DDP     P229781  13.419  15.132  16.900 -0.2549 -0.1440  0.1639
 4964DDP     C229782  13.632  15.505  17.081  0.1579  0.0645 -0.2119
 4964DDP     C329783  13.754  14.603  15.939  0.1359 -0.1201 -0.1983
 4964DDP     C429784  13.996  14.639  16.723 -0.1771  0.2062 -0.0389
 4965DDP     C129785  14.574  18.337  26.875  0.0454  0.1889 -0.1342
 4965DDP     P129786  14.243  18.210  27.040 -0.1645  0.4393  0.0155
 4965DDP     P229787  14.738  18.547  27.208 -0.0979 -0.0251  0.1372
 4965DDP     C229788  15.056  18.839  27.382  0.2252  0.3118 -0.2039
 4965DDP     C329789  13.887  18.596  27.147 -0.1835 -0.2861 -0.1079
 4965DDP     C429790  14.719  18.223  26.564  0.0692  0.1672 -0.3917
 4966DDP     C129791  14.998  20.920   0.014 -0.0450  0.0951 -0.2322
 4966DDP     P129792  15.243  21.235   0.175 -0.2079 -0.2301  0.0652
 4966DDP     P229793  14.963  20.569   0.105 -0.1435 -0.1835 -0.1845
 4966DDP     C229794  15.236  20.147   0.196 -0.0074  0.0368  0.0793
 4966DDP     C329795  15.747  21.382   0.234  0.1543  0.2240  0.1657
 4966DDP     C429796  14.732  21.193  30.073  0.1434 -0.1890  0.0065
 4967DDP     C129797  22.795   4.511  24.560 -0.0667 -0.1540  0.2775
 4967DDP     P129798  23.203   4.859  24.519  0.1306 -0.1536 -0.3678
 4967DDP     P229799  22.616   4.305  24.831 -0.1410 -0.0549 -0.3199
 4967DDP     C229800  22.434   4.109  25.233 -0.2308 -0.2057  0.1504
 4967DDP     C329801  23.058   5.297  24.252 -0.1319  0.0222 -0.2929
 4967DDP     C429802  22.877   4.383  24.080 -0.0904  0.2713 -0.1839
 4968DDP     C129803  23.350   1.801  11.067  0.0404  0.1056 -0.0713
 4968DDP     P129804  23.656   2.033  10.794  0.0558  0.1140  0.1197
 4968DDP     P229805  23.667   1.529  11.296  0.1283  0.0859  0.0106
 4968DDP     C229806  23.771   1.255  11.556  0.3021  0.0326  0.1988
 4968DDP     C329807  23.503   2.286  10.415 -0.3953 -0.1565 -0.2609
 4968DDP     C429808  22.826   1.680  11.339 -0.2267  0.1377 -0.1402
 4969DDP     C129809   7.867   3.687   3.470  0.0530  0.1906  0.0546
 4969DDP     P129810   7.957   3.764   3.930 -0.1383  0.0772  0.2710
 4969DDP     P229811   7.672   4.032   3.271 -0.3013 -0.3037  0.3082
 4969DDP     C229812   7.297   4.341   3.149  0.0089 -0.1910 -0.2054
 4969DDP     C329813   7.818   3.743   4.303 -0.2706  0.2400 -0.2868
 4969DDP     C429814   8.065   3.363   3.263  0.2281 -0.1043  0.1615
 4970DDP     C129815  15.352  25.366  21.149 -0.0016  0.1418  0.1427
 4970DDP     P129816  15.209  25.019  21.408  0.3248  0.1430 -0.0392
 4970DDP     P229817  15.100  25.405  20.800  0.2660  0.0321  0.2560
 4970DDP     C229818  14.949  25.419  20.405  0.2476  0.1438  0.4680
 4970DDP     C329819  15.114  24.738  21.794 -0.0117 -0.4022  0.2999
 4970DDP     C429820  15.704  25.637  21.312 -0.1322  0.3913  0.3844
 4971DDP     C129821  15.593   8.659  11.354  0.0137  0.0393  0.0656
 4971DDP     P129822  15.715   8.870  11.663  0.3146 -0.0354 -0.1074
 4971DDP     P229823  15.753   8.717  11.044 -0.2056  0.1239 -0.2167
 4971DDP     C229824  15.559   8.849  10.708  0.0119 -0.0694  0.1516
 4971DDP     C329825  15.852   9.169  11.969  0.0202  0.3514 -0.0478
 4971DDP     C429826  15.372   8.332  11.355 -0.2176  0.0146 -0.0388
 4972DDP     C129827  12.724   2.469  11.729 -0.0215 -0.1193  0.0961
 4972DDP     P129828  12.624   2.981  11.902 -0.0150 -0.3210 -0.0307
 4972DDP     P229829  12.419   2.346  11.521 -0.3173  0.1366 -0.1204
 4972DDP     C229830  12.399   2.168  11.217  0.0611 -0.0205 -0.0744
 4972DDP     C329831  12.687   3.218  12.326 -0.1697  0.0566  0.2200
 4972DDP     C429832  13.073   2.380  11.607  0.0416 -0.1686 -0.0171
 4973DDP     C129833  12.949   5.496   8.501  0.2995 -0.1141  0.0118
 4973DDP     P129834  13.281   5.245   8.385 -0.0686 -0.1637  0.1492
 4973DDP     P229835  12.834   5.726   8.902 -0.1587  0.1844 -0.0676
 4973DDP     C229836  12.725   5.933   9.288  0.1119  0.0214  0.2038
 4973DDP     C329837  13.544   4.871   8.499 -0.2329 -0.0141 -0.2508
 4973DDP     C429838  12.554   5.481   8.273 -0.0058  0.0139 -0.0068
 4974DDP     C129839   5.573   1.875  19.456 -0.0524 -0.0352 -0.1394
 4974DDP     P129840   5.701   2.145  19.183  0.1611  0.2087 -0.0770
 4974DDP     P229841   5.389   2.172  19.783  0.0279  0.2054  0.0795
 4974DDP     C229842   5.338   2.453  20.124 -0.0247  0.2804  0.0166
 4974DDP     C329843   5.449   2.415  18.950  0.0905  0.1644  0.1351
 4974DDP     C429844   5.673   1.462  19.420 -0.2671 -0.0412  0.0063
 4975DDP     C129845   8.645   3.006  21.809 -0.0550 -0.0606 -0.1182
 4975DDP     P129846   8.263   2.787  21.552  0.0059 -0.2955  0.2104
 4975DDP     P229847   9.024   2.809  21.745  0.2875 -0.2997 -0.1324
 4975DDP     C229848   9.351   3.043  21.939 -0.0719 -0.2743 -0.0681
 4975DDP     C329849   7.972   2.521  21.320 -0.2743 -0.0148  0.1588
 4975DDP     C429850   8.671   3.487  21.864 -0.0671 -0.0145 -0.0248
 4976DDP     C129851   3.793  16.017  27.999  0.0309  0.4592  0.0097
 4976DDP     P129852   3.599  15.634  28.012  0.1407 -0.0236 -0.1893
 4976DDP     P229853   3.672  16.347  28.169 -0.4012  0.0620  0.3291
 4976DDP     C229854   3.205  16.493  28.218  0.1417 -0.0884 -0.2452
 4976DDP     C329855   3.357  15.287  28.272  0.3503  0.0367  0.0098
 4976DDP     C429856   3.831  15.996  27.573 -0.0737 -0.0276  0.0018
 4977DDP     C129857   4.728  28.100  22.039 -0.1644 -0.0216 -0.1576
 4977DDP     P129858   4.317  28.251  21.802 -0.0962 -0.0786  0.1038
 4977DDP     P229859   4.526  27.714  22.137 -0.1478  0.0978 -0.0399
 4977DDP     C229860   4.228  27.423  22.276 -0.1956 -0.0760 -0.0115
 4977DDP     C329861   4.061  28.519  21.598 -0.2309  0.3600  0.0554
 4977DDP     C429862   5.111  28.134  22.195 -0.1376 -0.0984  0.0674
 4978DDP     C129863  21.683  19.045  15.637  0.1861  0.0083 -0.2286
 4978DDP     P129864  21.618  18.581  15.663  0.2439  0.3485 -0.0516
 4978DDP     P229865  21.336  19.175  15.850  0.2550 -0.0122  0.1555
 4978DDP     C229866  21.161  19.204  16.232 -0.2534  0.2561 -0.2062
 4978DDP     C329867  21.705  18.179  15.433 -0.3523  0.0962 -0.3924
 4978DDP     C429868  21.870  19.248  15.362  0.1837  0.1460  0.2744
 4979DDP     C129869  15.052  26.681   0.831  0.0840 -0.0068  0.0652
 4979DDP     P129870  15.021  26.327   0.524 -0.1511 -0.0171 -0.0439
 4979DDP     P229871  14.899  27.019   0.808  0.0072 -0.0786  0.2395
 4979DDP     C229872  14.885  27.488   0.509  0.1391 -0.0200 -0.7069
 4979DDP     C329873  15.085  26.376   0.059 -0.1488 -0.2304  0.0653
 4979DDP     C429874  14.860  26.671   1.228 -0.1320 -0.0452  0.1879
 4980DDP     C129875  20.812  21.003  26.271  0.2125 -0.2382  0.1291
 4980DDP     P129876  20.584  21.366  26.241  0.1277 -0.0886  0.3566
 4980DDP     P229877  21.177  21.061  26.471  0.3150  0.0231  0.3776
 4980DDP     C229878  21.240  21.224  26.838  0.0531  0.0049 -0.0170
 4980DDP     C329879  20.164  21.447  26.426 -0.1736  0.1833 -0.1109
 4980DDP     C429880  20.653  20.691  26.059 -0.0881  0.0746 -0.3794
 4981DDP     C129881  20.322   8.416  15.839  0.2701 -0.2144  0.2872
 4981DDP     P129882  19.951   8.278  15.610  0.2147  0.0598 -0.0951
 4981DDP     P229883  20.308   8.488  16.331 -0.0925  0.3892  0.0156
 4981DDP     C229884  20.036   8.826  16.535 -0.1202 -0.0899 -0.1369
 4981DDP     C329885  19.646   7.969  15.667  0.0382  0.0326 -0.1697
 4981DDP     C429886  20.553   8.624  15.619 -0.0765 -0.1445  0.2374
 4982DDP     C129887   4.733   1.427   0.149  0.1840  0.0133 -0.1687
 4982DDP     P129888   5.054   1.412   0.415  0.1139 -0.1494  0.0653
 4982DDP     P229889   4.815   1.774  30.285 -0.0156 -0.4753  0.2743
 4982DDP     C229890   5.117   1.993  29.927 -0.1735  0.1510 -0.2119
 4982DDP     C329891   5.203   1.859   0.522 -0.2608  0.1080 -0.0264
 4982DDP     C429892   4.414   1.298   0.294 -0.0660  0.0651 -0.1748
 4983DDP     C129893  14.930  28.706  20.633 -0.0922  0.2848 -0.1273
 4983DDP     P129894  14.562  28.384  20.394 -0.0743 -0.3251 -0.0210
 4983DDP     P229895  14.684  29.021  20.802 -0.0250  0.1303  0.0516
 4983DDP     C229896  14.306  29.168  21.112 -0.0325 -0.1440  0.2120
 4983DDP     C329897  14.226  28.188  20.719  0.0208 -0.0421 -0.1163
 4983DDP     C429898  15.345  28.608  20.441  0.0778  0.1666  0.3244
 4984DDP     C129899  20.177  24.658  15.063 -0.3011  0.2279  0.0261
 4984DDP     P129900  20.273  24.866  14.741  0.0170 -0.0249 -0.2118
 4984DDP     P229901  19.936  24.948  15.170 -0.1734  0.0082  0.0551
 4984DDP     C229902  19.512  24.972  15.046 -0.1523 -0.0983  0.2186
 4984DDP     C329903  20.329  25.154  14.471  0.3037  0.0660  0.0030
 4984DDP     C429904  20.109  24.283  15.291  0.1008 -0.0759  0.0789
 4985DDP     C129905  26.916  11.224   7.556  0.1644  0.2281 -0.2475
 4985DDP     P129906  26.446  11.370   7.380  0.1080  0.1131 -0.1185
 4985DDP     P229907  27.051  11.014   7.964  0.3839  0.0371  0.0836
 4985DDP     C229908  27.187  10.873   8.348  0.0599 -0.0363 -0.0166
 4985DDP     C329909  26.397  11.661   7.039  0.3109 -0.3885  0.0474
 4985DDP     C429910  27.275  11.394   7.332  0.0607  0.1406 -0.4702
 4986DDP     C129911  27.926   4.850  22.488 -0.0318 -0.2699 -0.3004
 4986DDP     P129912  28.227   5.196  22.493  0.0806  0.0204  0.0531
 4986DDP     P229913  27.537   4.957  22.477  0.0786 -0.0081  0.0555
 4986DDP     C229914  27.328   5.271  22.741 -0.1502  0.1083 -0.2849
 4986DDP     C329915  28.266   5.661  22.559 -0.1012 -0.1174 -0.0105
 4986DDP     C429916  28.235   4.586  22.382 -0.0864 -0.1220  0.0383
 4987DDP     C129917  11.720   8.155  28.535 -0.2697  0.1228 -0.2878
 4987DDP     P129918  11.942   8.450  28.562  0.0382 -0.1589  0.1838
 4987DDP     P229919  11.887   7.830  28.643 -0.2796  0.0340 -0.0499
 4987DDP     C229920  12.293   7.767  28.750 -0.1371  0.3578  0.0418
 4987DDP     C329921  12.206   8.777  28.410 -0.1273  0.0647  0.2825
 4987DDP     C429922  11.214   8.138  28.428 -0.0597  0.0240 -0.1119
 4988DDP     C129923  12.123   3.966  29.918 -0.1260  0.1444  0.1163
 4988DDP     P129924  11.956   4.320  29.760  0.0774  0.3297 -0.1111
 4988DDP     P229925  11.792   3.733  30.115  0.1929 -0.2659  0.0474
 4988DDP     C229926  11.376   3.561  30.084  0.2786 -0.2799  0.0210
 4988DDP     C329927  11.578   4.582  29.632  0.0716  0.0285 -0.0229
 4988DDP     C429928  12.467   3.770  29.769  0.3367 -0.1618 -0.2234
 4989DDP     C129929  16.892  11.281  14.844 -0.0993 -0.2452 -0.1160
 4989DDP     P129930  16.859  11.095  15.288  0.0333 -0.0959 -0.0305
 4989DDP     P229931  17.198  11.626  14.849 -0.1412 -0.0812 -0.0227
 4989DDP     C229932  17.552  11.575  14.567  0.0107 -0.1427 -0.1445
 4989DDP     C329933  16.938  11.042  15.732  0.1988  0.0207 -0.0168
 4989DDP     C429934  16.803  11.026  14.505 -0.0848 -0.0974  0.0726
 4990DDP     C129935  19.690   9.282  28.792 -0.1097 -0.1598  0.1860
 4990DDP     P129936  20.162   9.298  28.929 -0.0809 -0.1357  0.2363
 4990DDP     P229937  19.661   9.415  29.201  0.0887  0.0545  0.2005
 4990DDP     C229938  19.334   9.358  29.572 -0.1874 -0.1031  0.1087
 4990DDP     C329939  20.518   9.182  28.661  0.0424 -0.0593 -0.2632
 4990DDP     C429940  19.612   9.353  28.379 -0.1787  0.3728 -0.1356
 4991DDP     C129941   6.620  28.846  12.835  0.0427 -0.0096  0.2882
 4991DDP     P129942   6.572  28.883  13.300  0.0159 -0.0633  0.0351
 4991DDP     P229943   6.427  28.542  12.557  0.2458 -0.2144 -0.2624
 4991DDP     C229944   6.093  28.371  12.270  0.2894  0.4712 -0.2190
 4991DDP     C329945   6.424  29.016  13.769  0.1096  0.1653  0.0966
 4991DDP     C429946   6.914  29.086  12.623  0.0110  0.0476 -0.2039
 4992DDP     C129947   8.551  28.757  13.252  0.0102 -0.2217  0.3107
 4992DDP     P129948   8.705  28.511  13.486 -0.0128 -0.0279 -0.1840
 4992DDP     P229949   8.144  28.871  13.310  0.0091 -0.0015  0.0927
 4992DDP     C229950   7.719  28.927  13.232 -0.0187 -0.2023 -0.0456
 4992DDP     C329951   8.848  28.118  13.676  0.2525  0.1248 -0.0629
 4992DDP     C429952   8.853  28.793  12.922 -0.0001  0.2211  0.1000
 4993DDP     C129953   0.553  25.269   7.286  0.1221 -0.0172  0.2270
 4993DDP     P129954   0.189  25.034   7.461 -0.1882  0.3984  0.3988
 4993DDP     P229955   0.580  25.744   7.043 -0.3051  0.1006 -0.0529
 4993DDP     C229956   0.305  26.044   7.044  0.1575  0.0830 -0.1551
 4993DDP     C329957   0.026  24.613   7.265 -0.2347 -0.2067  0.2018
 4993DDP     C429958   0.914  24.927   7.293 -0.2034  0.1330  0.2875
 4994DDP     C129959  14.716  16.466   3.361 -0.0812  0.0722  0.0121
 4994DDP     P129960  14.987  16.795   3.263 -0.0340  0.2383  0.3287
 4994DDP     P229961  14.660  16.585   3.786  0.3031  0.0943 -0.0585
 4994DDP     C229962  14.439  16.995   3.953  0.4232 -0.2421  0.0384
 4994DDP     C329963  15.348  16.844   3.471 -0.1871  0.0752 -0.0203
 4994DDP     C429964  14.640  16.084   3.167 -0.3216  0.3656  0.2525
 4995DDP     C129965  16.559   0.912  29.915 -0.2890 -0.0911  0.2157
 4995DDP     P129966  16.354   0.627  30.239  0.1589 -0.0573 -0.1791
 4995DDP     P229967  16.507   1.158  29.563 -0.0255  0.3545 -0.3407
 4995DDP     C229968  16.393   1.447  29.213 -0.1391 -0.0712 -0.0591
 4995DDP     C329969  16.258   0.539   0.387  0.0834  0.1664 -0.0294
 4995DDP     C429970  17.006   1.055  30.093  0.1333  0.2443  0.1162
 4996DDP     C129971  12.095   0.991  27.548 -0.1391 -0.0416  0.1804
 4996DDP     P129972  12.112   0.568  27.718 -0.4472 -0.0451  0.0672
 4996DDP     P229973  11.792   1.210  27.781  0.2463  0.1103  0.1038
 4996DDP     C229974  11.660   0.837  28.024 -0.2439 -0.1940  0.0282
 4996DDP     C329975  12.206   0.331  27.955 -0.1892 -0.0444 -0.1937
 4996DDP     C429976  12.249   1.096  27.146  0.1379  0.0226 -0.1851
 4997DDP     C129977  17.800  15.111  27.592  0.1654 -0.2568 -0.1673
 4997DDP     P129978  17.668  15.602  27.681  0.0649 -0.2002 -0.0984
 4997DDP     P229979  17.456  14.904  27.417  0.3136  0.0281  0.0140
 4997DDP     C229980  17.295  14.553  27.466 -0.0617 -0.0630 -0.1799
 4997DDP     C329981  17.375  15.853  27.504  0.0030  0.0796 -0.0989
 4997DDP     C429982  18.309  14.967  27.786  0.2840 -0.3596  0.2590
 4998DDP     C129983   2.540  11.590  12.912  0.3636  0.0894  0.3899
 4998DDP     P129984   2.550  11.584  13.383  0.3554  0.0975  0.0445
 4998DDP     P229985   2.110  11.492  12.710 -0.3544  0.3059  0.4039
 4998DDP     C229986   1.891  11.684  12.466  0.0585 -0.0027 -0.3226
 4998DDP     C329987   2.417  11.744  13.815 -0.3180  0.0859  0.1724
 4998DDP     C429988   2.903  11.800  12.816 -0.0898  0.0515  0.1798
 4999DDP     C129989   0.695  17.046   0.674 -0.1258 -0.0106 -0.0083
 4999DDP     P129990   0.747  17.497   0.692  0.1854  0.1585  0.3367
 4999DDP     P229991   0.939  16.671   0.805  0.0908  0.1011 -0.0967
 4999DDP     C229992   0.982  16.450   1.183 -0.0005 -0.2627 -0.0057
 4999DDP     C329993   1.048  17.674   0.511 -0.3201 -0.1212 -0.2040
 4999DDP     C429994   0.492  16.733   0.293  0.2466  0.1155 -0.0488
 5000DDP     C129995  27.194  23.310  12.351  0.0840  0.1569 -0.1790
 5000DDP     P129996  27.530  23.305  12.090 -0.1422 -0.2387 -0.2001
 5000DDP     P229997  26.821  23.087  12.411  0.3461 -0.0442  0.0725
 5000DDP     C229998  26.450  23.195  12.239 -0.0398  0.2944  0.2051
 5000DDP     C329999  27.924  23.264  12.188 -0.3738 -0.2846 -0.3092
 5000DDP     C430000  27.279  23.547  12.644 -0.2608  0.0492 -0.0998
 5001DDP     C130001  26.822  24.512   5.181 -0.0076  0.0261  0.3282
 5001DDP     P130002  26.697  24.843   5.489  0.1947 -0.3843  0.0192
 5001DDP     P230003  26.988  24.107   5.267 -0.1041 -0.0997  0.0300
 5001DDP     C230004  27.285  23.754   5.174  0.1752 -0.5107  0.0986
 5001DDP     C330005  26.524  25.272   5.507  0.0911 -0.2909 -0.0796
 5001DDP     C430006  26.728  24.403   4.732 -0.3211  0.1664  0.2375
 5002DDP     C130007  27.149  29.891   5.987  0.0543  0.1818  0.0915
 5002DDP     P130008  27.055  30.205   5.742  0.2808  0.2289  0.0440
 5002DDP     P230009  27.595  29.786   5.952  0.0172  0.0462 -0.4370
 5002DDP     C230010  27.869  29.455   6.011  0.1692 -0.0056  0.0140
 5002DDP     C330011  26.793   0.136   5.551 -0.0510  0.1347 -0.0470
 5002DDP     C430012  26.799  29.795   6.268  0.1100 -0.1440  0.1256
 5003DDP     C130013  12.751  16.075  18.652 -0.1451  0.1444  0.0683
 5003DDP     P130014  12.705  16.271  18.259  0.0440 -0.1079  0.0171
 5003DDP     P230015  12.405  16.162  19.049  0.0043 -0.0568  0.2033
 5003DDP     C230016  11.923  16.104  19.210  0.4080  0.0343  0.0451
 5003DDP     C330017  12.289  16.558  18.231  0.0530  0.0842  0.0380
 5003DDP     C430018  13.095  15.779  18.828  0.1140  0.1433 -0.0730
 5004DDP     C130019  16.631  26.052   1.958  0.2347 -0.1148  0.3481
 5004DDP     P130020  16.480  26.109   2.408 -0.0915 -0.0950 -0.1769
 5004DDP     P230021  16.508  25.736   1.863 -0.2640  0.4062  0.1083
 5004DDP     C230022  16.315  25.442   1.592  0.0237 -0.0941 -0.0116
 5004DDP     C330023  16.324  26.473   2.641  0.1865 -0.0458  0.2165
 5004DDP     C430024  16.843  26.267   1.730  0.0522 -0.0803 -0.1196
 5005DDP     C130025  26.611   6.360   2.687 -0.1139 -0.0309 -0.0812
 5005DDP     P130026  26.400   6.077   2.968 -0.1978 -0.1884 -0.1534
 5005DDP     P230027  27.036   6.267   2.535 -0.1275 -0.1658  0.1634
 5005DDP     C230028  27.279   5.932   2.579  0.0606  0.1114  0.1856
 5005DDP     C330029  25.933   5.983   2.933 -0.0106  0.3363  0.0173
 5005DDP     C430030  26.395   6.655   2.394 -0.3207  0.1272 -0.1033
 5006DDP     C130031  -0.011  12.481   9.287  0.0542  0.0028  0.1179
 5006DDP     P130032   0.055  11.924   9.110  0.0132  0.3512 -0.2384
 5006DDP     P230033   0.414  12.713   9.333  0.0121  0.1222 -0.0468
 5006DDP     C230034   0.818  12.621   9.214 -0.1188  0.0947  0.3632
 5006DDP     C330035   0.154  11.538   9.007  0.1144  0.1183 -0.0449
 5006DDP     C430036  29.996  12.666   9.470 -0.1079 -0.1706  0.0001
 5007DDP     C130037  11.102  22.436  28.101 -0.0377  0.1295 -0.0928
 5007DDP     P130038  10.768  22.581  28.192 -0.0884 -0.1368 -0.1261
 5007DDP     P230039  11.183  22.506  27.669  0.0642 -0.0876 -0.1206
 5007DDP     C230040  11.066  22.352  27.322 -0.0058 -0.0734  0.2012
 5007DDP     C330041  10.424  22.553  28.432 -0.2081 -0.2633 -0.1290
 5007DDP     C430042  11.445  22.502  28.482  0.0948  0.0344 -0.0486
 5008DDP     C130043   5.869   1.475  18.767 -0.0432 -0.0982 -0.2397
 5008DDP     P130044   5.817   1.140  18.987 -0.0836 -0.2948 -0.3145
 5008DDP     P230045   5.592   1.503  18.364  0.0995 -0.0968  0.0796
 5008DDP     C230046   5.415   1.913  18.194 -0.1606  0.1418 -0.2346
 5008DDP     C330047   6.064   0.804  19.091  0.0109  0.0413  0.0568
 5008DDP     C430048   5.949   1.824  19.001  0.0898 -0.2293 -0.1481
 5009DDP     C130049  25.047  29.704  15.227 -0.1361 -0.1831 -0.0583
 5009DDP     P130050  24.957  29.376  15.126  0.2317  0.3050  0.3319
 5009DDP     P230051  25.062  30.075  14.976  0.0367  0.2340  0.1736
 5009DDP     C230052  25.536  30.018  14.659  0.0695 -0.0398 -0.1467
 5009DDP     C330053  24.903  29.077  14.802 -0.1354  0.0456 -0.1373
 5009DDP     C430054  25.317  29.733  15.622 -0.2546  0.5655  0.1975
 5010DDP     C130055  24.615  22.410  23.414  0.1386  0.0359 -0.1628
 5010DDP     P130056  24.314  22.124  23.464 -0.2847 -0.0638 -0.0834
 5010DDP     P230057  24.720  22.846  23.203 -0.2233 -0.2249 -0.1079
 5010DDP     C230058  24.621  23.312  23.079 -0.0717 -0.0419  0.0209
 5010DDP     C330059  24.024  21.835  23.376  0.1546  0.0188 -0.2825
 5010DDP     C430060  24.828  22.202  23.758  0.0899 -0.2278  0.1093
 5011DDP     C130061   3.662   2.295  18.096 -0.1658  0.3632  0.2327
 5011DDP     P130062   3.782   2.577  17.795  0.4039  0.1635  0.2212
 5011DDP     P230063   3.340   1.994  18.130 -0.0542 -0.0689 -0.0124
 5011DDP     C230064   3.088   1.816  17.762 -0.2135  0.0093 -0.0778
 5011DDP     C330065   3.534   2.703  17.501 -0.1873  0.0254 -0.1196
 5011DDP     C430066   3.867   2.085  18.441  0.0560  0.2597 -0.3240
 5012DDP     C130067  22.790  26.256   8.988  0.1052 -0.1548 -0.3250
 5012DDP     P130068  22.561  26.281   8.697 -0.0711 -0.0911 -0.2081
 5012DDP     P230069  22.791  26.567   9.356 -0.0931  0.0791  0.0074
 5012DDP     C230070  23.171  26.936   9.512  0.2652 -0.1006  0.4843
 5012DDP     C330071  22.469  26.479   8.263 -0.1369 -0.1558  0.0692
 5012DDP     C430072  23.102  26.001   8.879  0.0659  0.2045 -0.2810
 5013DDP     C130073  26.607  27.825  25.973 -0.0342  0.2966  0.0134
 5013DDP     P130074  26.951  27.837  26.237  0.4270 -0.0755 -0.0548
 5013DDP     P230075  26.478  27.607  25.542  0.2256  0.3214  0.2607
 5013DDP     C230076  26.400  27.416  25.098  0.1015  0.0919  0.1519
 5013DDP     C330077  27.273  27.731  26.225 -0.0012 -0.0065 -0.0124
 5013DDP     C430078  26.369  28.145  26.160 -0.0953  0.1808  0.0650
 5014DDP     C130079  10.876   2.795  27.045  0.1973  0.0144  0.4428
 5014DDP     P130080  10.669   3.263  26.856 -0.0551  0.2460  0.0411
 5014DDP     P230081  11.173   2.561  26.994 -0.3753 -0.1327 -0.1425
 5014DDP     C230082  11.333   2.175  27.002 -0.3314 -0.2204 -0.2035
 5014DDP     C330083  10.734   3.744  26.640  0.0088  0.3047 -0.0263
 5014DDP     C430084  10.803   2.816  27.485  0.0076 -0.3553 -0.1258
 5015DDP     C130085  24.944  22.865  17.537  0.1133 -0.1818 -0.0664
 5015DDP     P130086  25.066  22.877  18.018 -0.2536  0.4491 -0.2099
 5015DDP     P230087  24.698  23.121  17.327  0.1669  0.3368  0.2863
 5015DDP     C230088  24.307  23.086  17.143  0.0896  0.0545 -0.0072
 5015DDP     C330089  25.311  23.044  18.341 -0.0092 -0.0236  0.0724
 5015DDP     C430090  25.230  22.800  17.117 -0.0407 -0.0165 -0.3103
 5016DDP     C130091  25.401  29.235  11.564 -0.1654 -0.2736 -0.1092
 5016DDP     P130092  25.556  29.562  11.695  0.1550 -0.0118 -0.0663
 5016DDP     P230093  25.166  29.213  11.313  0.2131 -0.0195  0.1038
 5016DDP     C230094  24.863  29.320  10.921  0.1514 -0.0984 -0.1967
 5016DDP     C330095  25.877  29.825  11.953  0.1305  0.0947 -0.3147
 5016DDP     C430096  25.465  28.737  11.647  0.1316 -0.5075 -0.1353
 5017DDP     C130097   5.187  25.497   7.688 -0.0500 -0.0133  0.1415
 5017DDP     P130098   4.902  25.680   7.300 -0.0842  0.2346  0.1379
 5017DDP     P230099   4.924  25.311   7.956  0.3508 -0.1795 -0.2712
 5017DDP     C230100   4.602  25.104   8.037 -0.3086 -0.2320  0.1896
 5017DDP     C330101   4.712  25.576   6.887 -0.0057  0.1939  0.0563
 5017DDP     C430102   5.681  25.590   7.704  0.3194  0.4201  0.3680
 5018DDP     C130103  14.320   4.698   7.959 -0.3965 -0.0810  0.1675
 5018DDP     P130104  14.523   4.510   8.443 -0.1074 -0.1037 -0.1434
 5018DDP     P230105  14.369   4.547   7.566 -0.0598  0.0641  0.1025
 5018DDP     C230106  14.429   4.155   7.546 -0.2238 -0.0983  0.0683
 5018DDP     C330107  14.544   4.746   8.758 -0.3347 -0.0333  0.1127
 5018DDP     C430108  14.030   4.953   7.929 -0.4971  0.1146 -0.0259
 5019DDP     C130109   7.078   3.679  16.994 -0.3417  0.1261 -0.1287
 5019DDP     P130110   6.959   3.584  17.404 -0.0152  0.3616  0.2031
 5019DDP     P230111   7.423   3.422  16.864 -0.1965 -0.0747  0.1934
 5019DDP     C230112   7.685   3.165  16.679 -0.2921  0.1665 -0.1104
 5019DDP     C330113   7.063   3.281  17.699 -0.2222 -0.1679  0.1442
 5019DDP     C430114   6.883   3.984  16.734  0.0141  0.3099 -0.1319
 5020DDP     C130115   8.816  25.549  12.036 -0.2041  0.3329 -0.2206
 5020DDP     P130116   8.726  25.799  11.728 -0.1578  0.0911  0.0330
 5020DDP     P230117   8.484  25.281  12.248 -0.1527  0.2034 -0.0191
 5020DDP     C230118   8.298  24.915  12.201  0.1018 -0.0684  0.1118
 5020DDP     C330119   8.615  26.203  11.536  0.1271 -0.1743 -0.1290
 5020DDP     C430120   9.236  25.718  12.097 -0.0298 -0.3986 -0.3102
 5021DDP     C130121   4.112   6.208   5.840 -0.1541  0.0959 -0.0002
 5021DDP     P130122   4.522   6.144   5.990 -0.0315  0.1214 -0.0583
 5021DDP     P230123   3.911   6.412   5.974  0.0018 -0.2201 -0.0739
 5021DDP     C230124   3.441   6.561   6.106  0.0454  0.3040 -0.1331
 5021DDP     C330125   4.798   6.397   6.007 -0.2250 -0.1770  0.0305
 5021DDP     C430126   3.972   5.917   5.390  0.0318 -0.0136 -0.2891
 5022DDP     C130127  10.568  29.850  22.083  0.0066  0.1868 -0.0506
 5022DDP     P130128  10.618  29.745  21.672 -0.1153  0.0420  0.1980
 5022DDP     P230129  10.503  30.186  22.271 -0.0797 -0.0615 -0.4080
 5022DDP     C230130  10.826   0.156  22.399 -0.1156  0.3808 -0.0918
 5022DDP     C330131  10.691  29.359  21.468 -0.0731 -0.1640  0.1988
 5022DDP     C430132  10.210  29.623  22.243  0.2481 -0.0179  0.1107
 5023DDP     C130133  14.401   4.917  12.199  0.2068 -0.1306  0.1569
 5023DDP     P130134  14.175   4.511  12.031  0.1817 -0.2044  0.0873
 5023DDP     P230135  14.752   5.117  11.909  0.1379 -0.0308 -0.0162
 5023DDP     C230136  14.927   5.221  11.503 -0.0144 -0.0649 -0.0676
 5023DDP     C330137  14.267   4.250  11.795  0.0071  0.0418  0.0698
 5023DDP     C430138  14.373   5.031  12.692 -0.0894  0.1051 -0.0833
 5024DDP     C130139  13.751  26.559  22.463  0.1394 -0.0534 -0.3716
 5024DDP     P130140  13.501  26.800  22.103 -0.3154 -0.0114 -0.0712
 5024DDP     P230141  13.495  26.743  22.818 -0.0121  0.0194  0.1116
 5024DDP     C230142  13.264  27.085  23.133  0.3187 -0.0316  0.1788
 5024DDP     C330143  13.473  27.279  22.119 -0.0866  0.2884 -0.3363
 5024DDP     C430144  14.052  26.386  22.550 -0.1908  0.2427 -0.3709
 5025DDP     C130145  16.786  14.472   0.932 -0.0633  0.0156 -0.1237
 5025DDP     P130146  17.110  14.818   1.086  0.3299 -0.2362  0.0312
 5025DDP     P230147  16.986  14.113   0.893 -0.3350  0.4897  0.3229
 5025DDP     C230148  17.262  13.661   0.884  0.1070 -0.0058 -0.2341
 5025DDP     C330149  17.323  15.117   1.352  0.1433 -0.0214  0.3045
 5025DDP     C430150  16.345  14.636   0.930  0.2294  0.0395  0.0904
 5026DDP     C130151  12.814  20.658   7.383 -0.0768 -0.0498 -0.4519
 5026DDP     P130152  13.183  20.567   7.092  0.0868 -0.1468  0.0755
 5026DDP     P230153  12.688  21.029   7.367  0.0971 -0.2429  0.1525
 5026DDP     C230154  12.797  21.346   7.624  0.2889  0.0950 -0.0827
 5026DDP     C330155  13.561  20.697   7.175 -0.1044 -0.1006 -0.2528
 5026DDP     C430156  12.763  20.737   7.802 -0.0066  0.0435 -0.0738
 5027DDP     C130157  15.995  22.697   5.549  0.0647 -0.1276 -0.0567
 5027DDP     P130158  15.939  22.248   5.531 -0.0045 -0.0197  0.0843
 5027DDP     P230159  15.530  22.931   5.467 -0.2639  0.1105 -0.0958
 5027DDP     C230160  15.238  23.031   5.063  0.1252 -0.0304  0.3471
 5027DDP     C330161  15.787  21.903   5.265  0.0870 -0.0549  0.0152
 5027DDP     C430162  16.482  22.748   5.442 -0.2192  0.1638 -0.6454
 5028DDP     C130163   4.700   5.225   7.713 -0.0283  0.1980 -0.3023
 5028DDP     P130164   4.382   4.871   7.774 -0.3611 -0.3477 -0.0682
 5028DDP     P230165   4.869   5.467   8.094  0.2113 -0.1360 -0.0067
 5028DDP     C230166   5.100   5.940   8.045  0.0206  0.2123 -0.0536
 5028DDP     C330167   4.232   4.561   8.068 -0.0859 -0.1347  0.4448
 5028DDP     C430168   5.013   5.285   7.322 -0.0072  0.1651 -0.2019
 5029DDP     C130169  15.155  12.984  24.883  0.0356  0.1383 -0.2385
 5029DDP     P130170  14.870  13.185  25.097 -0.2883  0.0427 -0.0369
 5029DDP     P230171  14.828  12.712  24.719  0.0149 -0.0026  0.0488
 5029DDP     C230172  14.791  12.296  24.552 -0.2164 -0.1107 -0.1635
 5029DDP     C330173  14.495  13.300  25.190  0.0187  0.0012  0.0067
 5029DDP     C430174  15.576  12.830  24.998 -0.2354 -0.0056  0.2694
 5030DDP     C130175  21.787   0.325   3.693 -0.3461 -0.1176  0.1046
 5030DDP     P130176  21.560  30.221   3.695  0.2466  0.0904  0.0262
 5030DDP     P230177  21.849   0.489   4.144  0.0677 -0.1184  0.0697
 5030DDP     C230178  21.647   0.857   4.443 -0.1945  0.0869  0.1435
 5030DDP     C330179  21.316  29.819   3.563 -0.1358 -0.0594 -0.0747
 5030DDP     C430180  21.896   0.335   3.287 -0.0752 -0.0814  0.2657
 5031DDP     C130181   4.552   1.915  29.310 -0.1036  0.1423  0.1918
 5031DDP     P130182   4.044   1.742  29.388  0.0647  0.0374  0.2552
 5031DDP     P230183   4.932   1.713  29.431  0.0289  0.0891 -0.1872
 5031DDP     C230184   5.369   1.637  29.409 -0.0334  0.0771 -0.1898
 5031DDP     C330185   3.779   1.538  29.253  0.0179 -0.1939 -0.1287
 5031DDP     C430186   4.587   2.232  28.992  0.3206 -0.2183 -0.0580
 5032DDP     C130187   0.625  13.688  25.538  0.1656 -0.1598  0.1037
 5032DDP     P130188   0.935  14.005  25.519 -0.2360  0.2346  0.2842
 5032DDP     P230189   0.329  13.941  25.594  0.1766  0.0515 -0.0495
 5032DDP     C230190  30.300  14.058  25.808 -0.0828 -0.0107  0.0835
 5032DDP     C330191   1.401  14.238  25.689  0.1514  0.1467  0.0047
 5032DDP     C430192   0.552  13.271  25.473 -0.2804  0.0355 -0.0916
 5033DDP     C130193  13.966  16.586   9.494  0.1721  0.2210  0.3658
 5033DDP     P130194  13.979  16.790   9.193  0.1802 -0.0142 -0.1146
 5033DDP     P230195  13.874  16.837   9.860  0.0186  0.0348  0.2327
 5033DDP     C230196  13.637  17.029  10.104 -0.0554  0.0729 -0.0664
 5033DDP     C330197  14.100  16.856   8.721 -0.0444  0.0028  0.1250
 5033DDP     C430198  14.302  16.253   9.499  0.2034  0.1910  0.4778
 5034DDP     C130199  12.870   2.152  28.354 -0.2468 -0.2219 -0.1140
 5034DDP     P130200  12.851   2.533  28.571  0.1124  0.4377 -0.0545
 5034DDP     P230201  12.985   2.263  27.930  0.2569  0.2086  0.2569
 5034DDP     C230202  13.263   2.144  27.598  0.0317  0.3233  0.0247
 5034DDP     C330203  13.038   2.795  28.896 -0.0879 -0.0551 -0.2053
 5034DDP     C430204  12.691   1.718  28.548 -0.0813 -0.1470  0.1438
 5035DDP     C130205   4.491  10.723   0.802 -0.0046  0.0750  0.0709
 5035DDP     P130206   4.312  10.971   0.414 -0.1678 -0.2881  0.0995
 5035DDP     P230207   4.117  10.741   1.099  0.0480  0.1772 -0.0044
 5035DDP     C230208   3.789  10.716   1.467 -0.0008 -0.1155  0.1696
 5035DDP     C330209   4.043  11.035   0.146  0.0283  0.1630  0.3225
 5035DDP     C430210   4.660  10.311   0.967 -0.0157 -0.0660  0.2191
 5036DDP     C130211   7.746   3.170   1.306 -0.0405  0.0799  0.3310
 5036DDP     P130212   8.096   3.369   1.536  0.1937 -0.1203  0.3157
 5036DDP     P230213   7.446   2.925   1.595 -0.0530  0.1045 -0.1438
 5036DDP     C230214   7.085   2.758   1.751 -0.1605  0.0498  0.3942
 5036DDP     C330215   8.420   3.716   1.420 -0.0747  0.3333 -0.3061
 5036DDP     C430216   7.702   2.966   0.775  0.0101  0.1409 -0.3768
 5037DDP     C130217   3.829   0.438  29.998  0.4731 -0.0162 -0.1709
 5037DDP     P130218   3.714   0.743  29.652  0.1439  0.0306 -0.2359
 5037DDP     P230219   3.737   0.608   0.072 -0.4110 -0.1072  0.2088
 5037DDP     C230220   3.677   0.943   0.307 -0.0287  0.2992  0.0114
 5037DDP     C330221   4.004   1.049  29.486 -0.3619 -0.0436 -0.0001
 5037DDP     C430222   4.105   0.133  30.004  0.2463  0.0111 -0.1831
 5038DDP     C130223  19.511  10.348   9.600 -0.1732  0.0187  0.1658
 5038DDP     P130224  19.782  10.087   9.635  0.4094  0.2268  0.0906
 5038DDP     P230225  19.607  10.258   9.146  0.1126  0.0579 -0.0441
 5038DDP     C230226  19.840  10.239   8.804 -0.0615  0.2365 -0.1380
 5038DDP     C330227  20.046   9.695   9.665  0.0229 -0.1465  0.0191
 5038DDP     C430228  19.232  10.576   9.927  0.1776  0.2425  0.1831
 5039DDP     C130229  26.278   8.069  27.535  0.4133  0.0295  0.1788
 5039DDP     P130230  26.229   8.369  27.747 -0.3347  0.0777 -0.1251
 5039DDP     P230231  26.119   7.684  27.580  0.1248  0.2968  0.1854
 5039DDP     C230232  26.086   7.237  27.526 -0.2814  0.2911 -0.0816
 5039DDP     C330233  25.876   8.487  28.026 -0.1223  0.1324  0.0776
 5039DDP     C430234  26.688   8.226  27.397 -0.0616  0.0785 -0.1233
 5040DDP     C130235   9.477  16.059  11.789 -0.0458  0.1046 -0.0735
 5040DDP     P130236   9.222  15.826  11.360 -0.2328 -0.0475 -0.0597
 5040DDP     P230237   9.499  15.960  12.258  0.0334  0.1157 -0.2196
 5040DDP     C230238   9.356  16.070  12.740  0.1263  0.0123 -0.1107
 5040DDP     C330239   9.165  15.841  10.919 -0.1619  0.1926 -0.0990
 5040DDP     C430240   9.742  16.253  11.593 -0.2565  0.4222 -0.1325
 5041DDP     C130241  26.145  29.021   4.837 -0.0349  0.1852  0.0438
 5041DDP     P130242  26.058  29.403   5.033 -0.0466 -0.1348 -0.0341
 5041DDP     P230243  25.996  28.994   4.454  0.1795  0.0054  0.2161
 5041DDP     C230244  26.073  29.200   3.977 -0.1704 -0.0441  0.0425
 5041DDP     C330245  25.727  29.723   5.060 -0.1679  0.2618 -0.1474
 5041DDP     C430246  26.431  28.736   4.951 -0.0075  0.1655  0.1149
 5042DDP     C130247  19.547   3.854  30.191  0.0465 -0.1129  0.0294
 5042DDP     P130248  19.401   3.545  29.855 -0.2930 -0.0233  0.0004
 5042DDP     P230249  19.687   3.678   0.299 -0.1288  0.2037  0.1063
 5042DDP     C230250  19.804   3.260   0.539 -0.0709  0.0172 -0.1890
 5042DDP     C330251  19.360   3.279  29.564 -0.1317  0.1768  0.0167
 5042DDP     C430252  19.719   4.299  30.166  0.0217 -0.3624 -0.0435
 5043DDP     C130253   3.362  24.474  26.001 -0.4136 -0.0783  0.2378
 5043DDP     P130254   2.996  24.189  26.218 -0.1872  0.1255 -0.0810
 5043DDP     P230255   3.317  24.823  25.825 -0.0352 -0.2333 -0.0355
 5043DDP     C230256   3.274  25.141  25.684  0.0178 -0.0355 -0.0367
 5043DDP     C330257   3.055  23.783  26.535 -0.3177  0.1031  0.2262
 5043DDP     C430258   3.798  24.329  26.023  0.1201 -0.4602  0.0121
 5044DDP     C130259  16.560   5.156  11.542  0.1026 -0.0682  0.1225
 5044DDP     P130260  16.343   5.101  11.858  0.3892 -0.1361 -0.2816
 5044DDP     P230261  16.271   5.449  11.445  0.1616 -0.1647 -0.2538
 5044DDP     C230262  16.130   5.760  11.035 -0.2237  0.0458 -0.0613
 5044DDP     C330263  16.183   5.368  12.112  0.0794 -0.0235 -0.2351
 5044DDP     C430264  16.939   5.100  11.272 -0.1330 -0.1591  0.1834
 5045DDP     C130265   5.372  10.045  29.709 -0.0148 -0.1494 -0.1637
 5045DDP     P130266   5.250   9.806  30.076  0.2043 -0.1207 -0.2183
 5045DDP     P230267   5.758   9.977  29.517  0.1821  0.1895  0.3589
 5045DDP     C230268   5.867   9.796  29.045  0.0986 -0.0944 -0.0383
 5045DDP     C330269   5.107   9.433  30.320 -0.1611  0.1548  0.1702
 5045DDP     C430270   4.931   9.979  29.392  0.0263 -0.1179  0.2629
 5046DDP     C130271  24.305  16.278  22.308 -0.0899  0.1870  0.0014
 5046DDP     P130272  24.497  15.969  22.029  0.0392  0.0981  0.0310
 5046DDP     P230273  24.161  16.621  22.195  0.0143 -0.0069 -0.2692
 5046DDP     C230274  23.976  16.898  22.393 -0.2659  0.1844  0.3793
 5046DDP     C330275  24.410  15.698  21.692  0.3422 -0.0742  0.0683
 5046DDP     C430276  24.647  16.256  22.537  0.0759  0.0556  0.0544
 5047DDP     C130277  20.209  22.479  14.544  0.1573 -0.2284  0.3169
 5047DDP     P130278  19.850  22.332  14.323 -0.1694  0.0747  0.0687
 5047DDP     P230279  20.635  22.413  14.631 -0.0915 -0.0069  0.2622
 5047DDP     C230280  21.102  22.413  14.597 -0.0355  0.2696  0.0352
 5047DDP     C330281  19.454  22.232  14.169 -0.0012  0.0905  0.1580
 5047DDP     C430282  20.258  22.838  14.401 -0.0412  0.0556 -0.0279
 5048DDP     C130283   6.911   1.696   8.325 -0.1238  0.2186 -0.0655
 5048DDP     P130284   6.732   1.480   7.957 -0.2681 -0.0676 -0.1095
 5048DDP     P230285   6.764   2.084   8.509  0.2629  0.0937  0.0450
 5048DDP     C230286   6.494   2.439   8.520  0.0784 -0.0178  0.0087
 5048DDP     C330287   6.604   1.740   7.627 -0.2011  0.2030  0.2128
 5048DDP     C430288   7.412   1.627   8.398  0.0365  0.4609  0.1059
 5049DDP     C130289   8.402  27.222  11.676 -0.0118  0.3395  0.1313
 5049DDP     P130290   8.145  26.962  11.741  0.1099 -0.2517  0.1014
 5049DDP     P230291   8.229  27.424  11.298  0.2848 -0.0006 -0.3016
 5049DDP     C230292   8.159  27.560  10.875  0.0825 -0.1032  0.4559
 5049DDP     C330293   7.731  27.075  11.802  0.1456  0.1006  0.1016
 5049DDP     C430294   8.813  27.325  11.817 -0.3470  0.3310 -0.0304
 5050DDP     C130295  27.761   3.460   2.672  0.0904  0.0670  0.2738
 5050DDP     P130296  27.944   3.760   2.896 -0.2302 -0.2046  0.0181
 5050DDP     P230297  27.352   3.287   2.534  0.1170 -0.1929  0.0286
 5050DDP     C230298  26.936   3.333   2.363 -0.3065 -0.0177  0.0175
 5050DDP     C330299  28.238   3.843   3.220 -0.0234 -0.3338 -0.0756
 5050DDP     C430300  28.051   2.997   2.778  0.1096  0.0582  0.3380
 5051DDP     C130301  21.609  23.141  29.662  0.0776  0.1500  0.3779
 5051DDP     P130302  21.398  22.823  29.644  0.1898 -0.0259 -0.0516
 5051DDP     P230303  21.529  23.539  29.698  0.0385 -0.2363 -0.4731
 5051DDP     C230304  21.549  23.922  29.629 -0.0811 -0.1208  0.0468
 5051DDP     C330305  21.285  22.557  29.765 -0.2351 -0.0515 -0.0149
 5051DDP     C430306  21.925  22.993  29.432  0.1215 -0.1783 -0.0417
 5052DDP     C130307  26.502   4.957   3.127 -0.0366  0.1995  0.1268
 5052DDP     P130308  26.109   4.641   3.172  0.0279 -0.4494 -0.0579
 5052DDP     P230309  26.434   5.214   3.404 -0.0848  0.1514  0.0082
 5052DDP     C230310  26.119   5.567   3.364  0.1212  0.0864 -0.0117
 5052DDP     C330311  25.834   4.403   2.933  0.2341  0.0559 -0.0173
 5052DDP     C430312  26.686   5.190   2.741 -0.0221 -0.0011  0.1161
 5053DDP     C130313  27.982  12.628  13.984  0.0083 -0.2447  0.3671
 5053DDP     P130314  28.225  12.267  13.987  0.1634  0.1674  0.1863
 5053DDP     P230315  28.170  12.943  13.676  0.3686 -0.0819 -0.0110
 5053DDP     C230316  28.429  12.880  13.189 -0.1000 -0.1994 -0.0728
 5053DDP     C330317  28.484  11.872  14.178 -0.1706 -0.2115 -0.1675
 5053DDP     C430318  27.524  12.721  14.185  0.1037 -0.1198  0.1539
 5054DDP     C130319   5.179  26.840  15.166 -0.1414 -0.1285 -0.0654
 5054DDP     P130320   5.659  26.887  15.133  0.0563 -0.0889  0.2279
 5054DDP     P230321   4.921  27.171  15.347 -0.1829 -0.0315  0.0827
 5054DDP     C230322   5.024  27.533  15.610 -0.0271 -0.1094  0.1333
 5054DDP     C330323   5.800  27.123  14.844 -0.1922 -0.0451 -0.0418
 5054DDP     C430324   4.965  26.489  15.060  0.2648 -0.0311  0.1920
 5055DDP     C130325  20.788   8.226   0.622 -0.2565 -0.0791 -0.0799
 5055DDP     P130326  20.744   8.042   1.009 -0.2871  0.0576  0.1425
 5055DDP     P230327  21.133   8.491   0.640 -0.1803  0.0094 -0.2159
 5055DDP     C230328  20.918   8.983   0.709 -0.0900 -0.1404  0.0109
 5055DDP     C330329  20.809   8.088   1.442 -0.0214 -0.0880 -0.0269
 5055DDP     C430330  20.570   8.287   0.343  0.0634  0.0026 -0.0015
 5056DDP     C130331  25.813   4.152  20.617  0.0158  0.1586  0.2144
 5056DDP     P130332  26.039   3.812  20.741 -0.2856 -0.0447 -0.0095
 5056DDP     P230333  25.448   4.291  20.893  0.0346 -0.4501  0.1154
 5056DDP     C230334  25.204   4.077  21.209  0.2307  0.1149  0.2239
 5056DDP     C330335  26.422   3.498  20.939  0.2969 -0.0508 -0.2414
 5056DDP     C430336  25.899   4.380  20.247 -0.2500 -0.2140  0.0658
 5057DDP     C130337  11.499  12.558   8.480  0.0695  0.1870  0.1553
 5057DDP     P130338  11.562  12.287   8.685 -0.1309 -0.0201 -0.3130
 5057DDP     P230339  11.531  12.353   8.032  0.0532 -0.1714  0.1731
 5057DDP     C230340  11.514  12.208   7.588 -0.0505  0.2186  0.0125
 5057DDP     C330341  11.439  11.864   8.567  0.2345  0.2038  0.0764
 5057DDP     C430342  11.269  13.024   8.448  0.0052  0.0554 -0.1296
 5058DDP     C130343   4.752  25.084  16.294 -0.0959  0.0493  0.0937
 5058DDP     P130344   4.480  25.342  16.131 -0.0959 -0.4848 -0.4214
 5058DDP     P230345   5.048  24.822  16.100  0.2183 -0.0070  0.3949
 5058DDP     C230346   4.991  24.487  15.988 -0.1381 -0.2870  0.0859
 5058DDP     C330347   4.145  25.206  16.023  0.1152 -0.0583  0.3588
 5058DDP     C430348   4.955  25.453  16.475 -0.0111 -0.2454 -0.2447
 5059DDP     C130349  10.419  29.827   9.865 -0.0781  0.3473  0.1224
 5059DDP     P130350  10.338  29.306   9.917  0.1350  0.2089 -0.0944
 5059DDP     P230351  10.202  30.156  10.141 -0.1461  0.0087  0.0622
 5059DDP     C230352  10.342   0.185  10.087  0.1464 -0.1148  0.1236
 5059DDP     C330353  10.040  28.913   9.892  0.0696 -0.0138 -0.1265
 5059DDP     C430354  10.739  29.900   9.727  0.3644  0.1189 -0.1522
 5060DDP     C130355   5.899  12.994   7.269 -0.1689 -0.2939 -0.0168
 5060DDP     P130356   6.133  13.397   7.335 -0.2139 -0.1263 -0.1600
 5060DDP     P230357   5.501  12.948   7.431  0.1041  0.0276 -0.1580
 5060DDP     C230358   5.293  13.298   7.606  0.0459  0.2093 -0.3125
 5060DDP     C330359   6.410  13.844   7.342 -0.1111 -0.3275 -0.2070
 5060DDP     C430360   6.044  12.702   6.799 -0.0671  0.2271  0.2440
 5061DDP     C130361   6.170   6.792   6.500  0.1559  0.0176  0.0015
 5061DDP     P130362   6.009   6.529   6.872  0.0582 -0.1985  0.4003
 5061DDP     P230363   6.424   7.215   6.560 -0.0821  0.1772 -0.2967
 5061DDP     C230364   6.594   7.518   6.858  0.3965  0.1258 -0.1716
 5061DDP     C330365   5.680   6.231   6.941 -0.0390 -0.0919  0.1873
 5061DDP     C430366   5.878   6.678   6.213 -0.0777  0.0042  0.0299
 5062DDP     C130367  23.100   6.446   3.883  0.2036  0.0613 -0.1716
 5062DDP     P130368  22.959   6.393   4.311 -0.0790  0.1722 -0.2605
 5062DDP     P230369  23.032   6.159   3.571  0.1170  0.2566  0.1838
 5062DDP     C230370  22.942   5.804   3.254  0.1210 -0.2117 -0.3019
 5062DDP     C330371  23.159   6.177   4.661 -0.0103 -0.1735 -0.0978
 5062DDP     C430372  23.162   6.908   3.785  0.2528 -0.0323 -0.0900
 5063DDP     C130373   3.990   6.780  28.664  0.2179  0.1047 -0.4177
 5063DDP     P130374   3.715   6.493  28.508 -0.0028  0.0538 -0.0709
 5063DDP     P230375   4.041   7.176  28.624  0.4869 -0.1230 -0.2342
 5063DDP     C230376   4.519   7.236  28.532  0.0163 -0.2125 -0.4165
 5063DDP     C330377   3.609   6.139  28.703  0.2657 -0.3325 -0.1813
 5063DDP     C430378   4.283   6.542  28.674  0.3827  0.2048 -0.0458
 5064DDP     C130379  20.159   5.803   2.513  0.2126 -0.0578 -0.0394
 5064DDP     P130380  20.601   5.889   2.777 -0.0527  0.2059 -0.0087
 5064DDP     P230381  19.961   6.201   2.592 -0.0311 -0.2200  0.1060
 5064DDP     C230382  19.797   6.668   2.748  0.1115  0.3713 -0.0814
 5064DDP     C330383  20.740   5.976   3.221  0.2861 -0.1967 -0.1226
 5064DDP     C430384  20.060   5.351   2.520  0.1640  0.0545  0.0479
 5065DDP     C130385   3.365  23.695  15.788 -0.2323 -0.0106  0.1365
 5065DDP     P130386   3.483  23.343  15.951  0.2601  0.0629  0.1051
 5065DDP     P230387   3.344  23.918  16.144 -0.1717  0.0038 -0.0928
 5065DDP     C230388   3.027  24.167  16.290  0.1196 -0.2514 -0.2112
 5065DDP     C330389   3.742  22.879  16.094  0.0885  0.1224  0.2496
 5065DDP     C430390   3.185  23.821  15.389 -0.0384 -0.0663  0.1906
 5066DDP     C130391  22.755   9.676  29.702  0.2015  0.2850  0.2558
 5066DDP     P130392  22.795  10.100  29.585 -0.0251 -0.1022 -0.2564
 5066DDP     P230393  22.948   9.345  29.974  0.2890 -0.0764 -0.0723
 5066DDP     C230394  23.179   8.963  30.067  0.2088 -0.0113  0.2257
 5066DDP     C330395  22.771  10.489  29.563  0.2385  0.0278  0.1865
 5066DDP     C430396  22.376   9.290  29.587 -0.1253  0.2156  0.1059
 5067DDP     C130397   4.942  14.744   0.716  0.0943 -0.1136 -0.2854
 5067DDP     P130398   5.010  15.169   0.441  0.3363 -0.1788  0.0643
 5067DDP     P230399   5.030  14.431   0.403 -0.1937  0.2239 -0.2770
 5067DDP     C230400   4.979  14.003   0.508  0.1299 -0.0462  0.1284
 5067DDP     C330401   4.671  15.436   0.222 -0.1550  0.0736 -0.2337
 5067DDP     C430402   4.807  14.771   1.082 -0.3553  0.1986 -0.2560
 5068DDP     C130403   5.377  25.263  16.100 -0.0062  0.2613 -0.0365
 5068DDP     P130404   5.605  25.739  16.182 -0.0971  0.2437  0.2483
 5068DDP     P230405   5.552  24.842  16.146 -0.0688 -0.0311  0.2905
 5068DDP     C230406   5.470  24.427  15.966  0.0482  0.0774 -0.0570
 5068DDP     C330407   5.785  26.154  16.360  0.2335  0.1172  0.0544
 5068DDP     C430408   5.033  25.333  15.959 -0.3946  0.1913 -0.2115
 5069DDP     C130409  20.906   3.778  23.854  0.2142  0.1207  0.0463
 5069DDP     P130410  21.119   3.468  23.636 -0.1183 -0.1051 -0.0454
 5069DDP     P230411  20.842   3.850  24.279  0.1418  0.1222  0.0299
 5069DDP     C230412  20.590   3.877  24.659  0.1560  0.3464  0.0818
 5069DDP     C330413  21.133   3.265  23.154  0.1609  0.0112  0.0763
 5069DDP     C430414  20.564   3.982  23.588  0.0282  0.0771  0.0224
 5070DDP     C130415  10.731   7.504  15.738  0.3366 -0.0829  0.1097
 5070DDP     P130416  10.555   7.273  16.143 -0.0629  0.0450 -0.1977
 5070DDP     P230417  10.880   7.996  15.798 -0.0610 -0.0243 -0.0500
 5070DDP     C230418  10.915   8.434  15.720  0.1355  0.3366  0.2812
 5070DDP     C330419  10.806   7.226  16.488 -0.0240 -0.1410 -0.0534
 5070DDP     C430420  10.611   7.467  15.293 -0.1025  0.1483 -0.2670
 5071DDP     C130421  28.024  29.991  21.539 -0.1767 -0.0046  0.0515
 5071DDP     P130422  27.882  29.877  21.188 -0.3765  0.1454 -0.1178
 5071DDP     P230423  27.951  29.682  21.849  0.2080  0.0219  0.0885
 5071DDP     C230424  27.696  29.806  22.141 -0.2021  0.0646 -0.3862
 5071DDP     C330425  27.830  30.018  20.686  0.0079 -0.3042 -0.1006
 5071DDP     C430426  28.214   0.010  21.540  0.0485  0.1599 -0.2391
 5072DDP     C130427  27.631  21.066  27.157 -0.2189 -0.0552  0.2917
 5072DDP     P130428  28.052  20.940  27.077  0.2006  0.0220  0.0533
 5072DDP     P230429  27.461  20.786  27.557  0.1365 -0.2005  0.0821
 5072DDP     C230430  27.549  20.472  27.845 -0.0683  0.1021  0.2215
 5072DDP     C330431  28.495  20.777  27.025  0.0254  0.3374 -0.2339
 5072DDP     C430432  27.478  21.401  26.988  0.0955 -0.2501 -0.0319
 5073DDP     C130433   9.607   1.835  14.462 -0.0481  0.1836 -0.1666
 5073DDP     P130434   9.491   1.725  14.804 -0.0982 -0.0536  0.1807
 5073DDP     P230435   9.399   2.173  14.216  0.2216 -0.0660 -0.3137
 5073DDP     C230436   8.945   2.185  14.382 -0.2952  0.0966 -0.0762
 5073DDP     C330437   9.514   1.384  15.139  0.0110  0.1451 -0.1658
 5073DDP     C430438   9.917   1.671  14.202  0.1131 -0.1060  0.0215
 5074DDP     C130439   4.424   8.739  25.968  0.2473  0.1205 -0.2811
 5074DDP     P130440   4.681   8.702  26.339 -0.3157 -0.2136  0.0691
 5074DDP     P230441   4.029   8.561  26.169 -0.1647 -0.1481 -0.0723
 5074DDP     C230442   3.761   8.403  26.512 -0.3653 -0.1322 -0.0543
 5074DDP     C330443   4.783   8.629  26.824 -0.0476  0.4378  0.2949
 5074DDP     C430444   4.721   8.818  25.589  0.0114 -0.2744 -0.0147
 5075DDP     C130445  10.398   9.262  20.971  0.0583  0.0027  0.1616
 5075DDP     P130446  10.313   9.143  21.466  0.1452  0.2224  0.0470
 5075DDP     P230447  10.721   9.451  20.752  0.0685  0.1801 -0.0742
 5075DDP     C230448  11.028   9.634  20.589 -0.0583  0.0049  0.4560
 5075DDP     C330449   9.936   8.695  21.417 -0.2906  0.0356  0.2099
 5075DDP     C430450  10.133   9.177  20.631  0.0361  0.2287 -0.5385
 5076DDP     C130451   9.960  21.808   6.516 -0.1238 -0.0106 -0.0333
 5076DDP     P130452   9.841  22.153   6.808 -0.0766  0.3364 -0.0647
 5076DDP     P230453   9.570  21.880   6.266  0.3970 -0.0043 -0.1739
 5076DDP     C230454   9.398  22.089   5.887  0.0256 -0.2704 -0.0586
 5076DDP     C330455   9.810  22.147   7.287  0.3294  0.1389  0.0773
 5076DDP     C430456  10.204  21.362   6.632  0.2621 -0.1758 -0.3016
 5077DDP     C130457  19.762  17.023   5.674 -0.0399 -0.0261  0.1911
 5077DDP     P130458  19.471  17.453   5.585  0.1925 -0.2116 -0.2049
 5077DDP     P230459  20.130  16.928   5.665  0.0580 -0.0295 -0.0405
 5077DDP     C230460  20.111  16.951   5.168  0.3369  0.0713 -0.0185
 5077DDP     C330461  19.732  17.834   5.479 -0.2070  0.2911  0.2223
 5077DDP     C430462  19.607  16.617   5.709 -0.0424 -0.0674  0.0160
 5078DDP     C130463   5.910  19.294  15.950 -0.3408  0.2345  0.1115
 5078DDP     P130464   6.226  19.232  15.670 -0.1043 -0.1052 -0.0692
 5078DDP     P230465   5.753  18.904  16.130  0.1240  0.0430  0.4272
 5078DDP     C230466   5.488  18.488  16.009 -0.1340  0.1798 -0.0244
 5078DDP     C330467   6.490  19.289  15.317 -0.1621  0.0086 -0.0301
 5078DDP     C430468   5.728  19.713  16.051  0.3384 -0.1120  0.3494
 5079DDP     C130469  16.984  18.029   7.674 -0.0538  0.1630  0.1252
 5079DDP     P130470  17.181  18.468   7.870 -0.0346  0.0009 -0.1640
 5079DDP     P230471  16.594  17.869   7.948 -0.0655 -0.4555 -0.2042
 5079DDP     C230472  16.371  17.530   8.234 -0.1056  0.1094 -0.3089
 5079DDP     C330473  17.547  18.556   7.988  0.3553 -0.1701  0.0226
 5079DDP     C430474  17.317  17.854   7.317  0.5098 -0.3969 -0.1936
 5080DDP     C130475  16.156  28.202  21.740 -0.0248  0.0361 -0.0414
 5080DDP     P130476  16.005  28.067  21.316  0.0527 -0.1228 -0.3588
 5080DDP     P230477  15.928  27.914  22.029 -0.1744  0.1481  0.1371
 5080DDP     C230478  15.451  27.763  21.891  0.5037 -0.0103 -0.1920
 5080DDP     C330479  15.812  27.824  21.009  0.1173  0.1182 -0.0521
 5080DDP     C430480  16.434  28.482  21.772  0.1022 -0.0180 -0.1029
 5081DDP     C130481  20.892   3.866   9.914  0.1001  0.2782 -0.3985
 5081DDP     P130482  20.641   4.166  10.076  0.0032 -0.0057 -0.3532
 5081DDP     P230483  21.294   3.787   9.800 -0.0215  0.0378  0.0188
 5081DDP     C230484  21.540   3.571   9.626  0.0139 -0.1281 -0.0111
 5081DDP     C330485  20.588   4.603  10.287 -0.1705  0.0172  0.2128
 5081DDP     C430486  20.528   3.546  10.115  0.1030  0.0377 -0.1866
 5082DDP     C130487  12.319  14.710  14.511 -0.4119  0.2092  0.2523
 5082DDP     P130488  12.334  15.084  14.804  0.0000 -0.1360  0.0214
 5082DDP     P230489  12.509  14.359  14.569 -0.4279  0.0779 -0.2475
 5082DDP     C230490  12.532  13.931  14.677  0.0994 -0.1199 -0.1230
 5082DDP     C330491  12.694  15.400  14.972 -0.1205  0.0029  0.0861
 5082DDP     C430492  12.293  14.677  14.018  0.1558  0.0716 -0.0291
 5083DDP     C130493  26.946   1.993  17.832  0.1128  0.0428  0.2923
 5083DDP     P130494  26.707   1.663  17.788  0.0225 -0.1196 -0.1602
 5083DDP     P230495  27.243   2.024  17.560  0.2261 -0.4255 -0.1546
 5083DDP     C230496  27.308   1.965  17.094 -0.0779 -0.1788  0.0898
 5083DDP     C330497  26.313   1.488  17.971  0.0044 -0.1052 -0.0441
 5083DDP     C430498  26.810   2.344  18.021  0.3454 -0.1705 -0.1062
 5084DDP     C130499   1.444   8.400   4.184  0.1003 -0.3265 -0.1103
 5084DDP     P130500   1.117   8.560   4.056 -0.1500  0.0067  0.0194
 5084DDP     P230501   1.586   8.260   4.502 -0.2687  0.1363 -0.1719
 5084DDP     C230502   2.019   8.196   4.688 -0.1052 -0.1805  0.0264
 5084DDP     C330503   0.685   8.576   4.307  0.2322 -0.2892  0.1820
 5084DDP     C430504   1.714   8.422   3.918 -0.2284  0.2971 -0.1402
 5085DDP     C130505  13.317   6.589  15.217  0.1751  0.1956 -0.2623
 5085DDP     P130506  13.641   6.425  15.484  0.1447  0.2170  0.1491
 5085DDP     P230507  13.203   6.608  14.754 -0.1443  0.1808 -0.0665
 5085DDP     C230508  12.905   6.859  14.488 -0.2764 -0.2069  0.0403
 5085DDP     C330509  13.595   5.977  15.587 -0.2389 -0.0440  0.2131
 5085DDP     C430510  13.180   6.868  15.422  0.2065 -0.0433 -0.1998
 5086DDP     C130511  17.639  30.281  27.292 -0.1612  0.2630  0.1156
 5086DDP     P130512  17.239  30.151  27.494 -0.0822 -0.1592 -0.0416
 5086DDP     P230513  17.698   0.110  26.819 -0.0421  0.1366  0.2960
 5086DDP     C230514  17.627   0.294  26.414 -0.3420  0.2233  0.1707
 5086DDP     C330515  17.118  29.775  27.565 -0.1373  0.0498  0.2804
 5086DDP     C430516  17.985  30.189  27.529 -0.2218 -0.2222 -0.1135
 5087DDP     C130517  23.668  11.083  19.091  0.1534 -0.0567 -0.1248
 5087DDP     P130518  23.970  10.813  18.831  0.0289  0.1589 -0.3209
 5087DDP     P230519  23.471  11.362  18.847  0.0861  0.1558 -0.0797
 5087DDP     C230520  23.264  11.585  18.555  0.3723  0.0942  0.0792
 5087DDP     C330521  24.132  10.597  18.434  0.1007 -0.2079 -0.1379
 5087DDP     C430522  23.728  11.142  19.510  0.1811  0.1732 -0.1471
 5088DDP     C130523   2.877   0.563  17.312  0.1628 -0.1390  0.2515
 5088DDP     P130524   3.127   0.687  17.688  0.1034 -0.0368 -0.1293
 5088DDP     P230525   2.900   0.991  17.068 -0.1905 -0.6040 -0.0720
 5088DDP     C230526   3.091   1.260  16.952 -0.1382  0.1821  0.1414
 5088DDP     C330527   3.394   0.731  17.946  0.0650 -0.0719  0.2740
 5088DDP     C430528   2.688   0.076  17.159  0.2128  0.1736 -0.3830
 5089DDP     C130529  28.003  15.886  25.666  0.0867  0.0894  0.0790
 5089DDP     P130530  28.021  15.425  25.616  0.0222  0.0178  0.0188
 5089DDP     P230531  27.893  16.116  25.287  0.0417 -0.1297 -0.0040
 5089DDP     C230532  27.922  16.209  24.766 -0.1107  0.1944 -0.2555
 5089DDP     C330533  28.352  15.237  25.350 -0.2991 -0.0869  0.2095
 5089DDP     C430534  28.396  15.970  25.982  0.1524 -0.2515  0.0955
 5090DDP     C130535   5.877  20.893   0.472  0.0204  0.2016  0.6524
 5090DDP     P130536   5.589  20.605   0.219  0.0885  0.0832  0.0821
 5090DDP     P230537   5.661  21.267   0.508  0.2729 -0.3453  0.1827
 5090DDP     C230538   5.363  21.643   0.296 -0.1654 -0.0835  0.0023
 5090DDP     C330539   5.791  20.486  30.109 -0.2669 -0.2697 -0.2007
 5090DDP     C430540   6.292  20.753   0.388 -0.2954  0.1200  0.1112
 5091DDP     C130541   4.863  26.728  27.218 -0.0440  0.1096 -0.0086
 5091DDP     P130542   4.825  27.161  27.006  0.0138 -0.2418  0.1073
 5091DDP     P230543   4.404  26.593  27.248  0.0770  0.2347  0.0189
 5091DDP     C230544   3.959  26.479  27.410  0.0629 -0.3436  0.4316
 5091DDP     C330545   4.730  27.253  26.584  0.0007 -0.3014 -0.0468
 5091DDP     C430546   5.351  26.547  27.126  0.1248  0.0341 -0.1427
 5092DDP     C130547  17.767   0.392  24.615  0.3831  0.4540 -0.1900
 5092DDP     P130548  18.238   0.398  24.559  0.0656  0.3190  0.1027
 5092DDP     P230549  17.514   0.663  24.661 -0.2118 -0.0888 -0.1865
 5092DDP     C230550  17.138   0.636  24.502  0.1721  0.0176  0.0493
 5092DDP     C330551  18.590   0.147  24.787 -0.0455 -0.3301  0.3121
 5092DDP     C430552  17.480   0.000  24.525 -0.1405 -0.0923  0.4451
 5093DDP     C130553  26.888   0.530   1.853 -0.0767 -0.2406 -0.0629
 5093DDP     P130554  26.652   0.244   1.807 -0.2561  0.3198  0.1892
 5093DDP     P230555  27.215   0.598   2.223  0.0406  0.0389 -0.0857
 5093DDP     C230556  27.561   0.613   2.461  0.3448  0.0296 -0.0175
 5093DDP     C330557  26.400  30.126   1.844 -0.0389 -0.2520 -0.3518
 5093DDP     C430558  26.897   0.854   1.527 -0.0756  0.2286  0.1608
 5094DDP     C130559  19.416  27.866  13.477 -0.1307  0.4460  0.3624
 5094DDP     P130560  19.698  27.534  13.437  0.2298 -0.1751  0.0324
 5094DDP     P230561  19.385  28.164  13.187  0.2758 -0.2466  0.2823
 5094DDP     C230562  19.633  28.499  12.985  0.1678 -0.2976 -0.0875
 5094DDP     C330563  19.928  27.346  13.076  0.0570  0.4065  0.0237
 5094DDP     C430564  19.066  27.863  13.767 -0.1090 -0.0227  0.0429
 5095DDP     C130565   0.114   6.494  23.265  0.2085  0.1305 -0.0093
 5095DDP     P130566   0.054   6.944  23.286  0.0141 -0.0458  0.1760
 5095DDP     P230567   0.200   6.531  23.781  0.0257 -0.2044 -0.1346
 5095DDP     C230568   0.161   6.295  24.141  0.0473  0.0505 -0.2790
 5095DDP     C330569   0.116   7.328  23.298  0.0661  0.0281 -0.2759
 5095DDP     C430570   0.196   6.181  22.980 -0.1447 -0.0213 -0.3060
 5096DDP     C130571  12.760   1.105  27.207 -0.1171  0.0424  0.1538
 5096DDP     P130572  12.580   0.859  27.587 -0.0136 -0.1760  0.0945
 5096DDP     P230573  12.623   1.575  27.123 -0.1310  0.2956 -0.0795
 5096DDP     C230574  12.440   1.939  27.014 -0.0396 -0.2224 -0.1788
 5096DDP     C330575  12.598   0.879  27.973  0.0113  0.1388  0.0276
 5096DDP     C430576  12.870   0.770  26.891 -0.1337  0.3079 -0.0457
 5097DDP     C130577  21.348   0.661  19.525 -0.1249 -0.1552 -0.2111
 5097DDP     P130578  21.517   0.396  19.189 -0.1406  0.5206  0.0932
 5097DDP     P230579  21.453   1.108  19.564  0.1869  0.0343  0.0301
 5097DDP     C230580  21.665   1.447  19.794  0.1954 -0.2676 -0.0552
 5097DDP     C330581  21.539  30.347  18.937  0.1686  0.0411  0.1172
 5097DDP     C430582  21.081   0.488  19.692  0.3217  0.2447  0.1156
 5098DDP     C130583  20.365  19.234  13.985 -0.2287 -0.3145  0.0496
 5098DDP     P130584  20.492  18.996  13.645 -0.2401 -0.0026  0.1005
 5098DDP     P230585  20.066  19.081  14.209  0.1706  0.0482  0.1427
 5098DDP     C230586  19.792  18.915  14.422 -0.1371 -0.0621 -0.0333
 5098DDP     C330587  20.273  18.932  13.311  0.1028  0.2085  0.0140
 5098DDP     C430588  20.652  19.394  14.371  0.0052  0.0952  0.0040
 5099DDP     C130589   7.024  25.576  24.556 -0.0932 -0.1406 -0.2527
 5099DDP     P130590   7.120  25.649  24.993 -0.0802 -0.0297  0.1395
 5099DDP     P230591   6.873  25.206  24.322  0.1475  0.0199 -0.1653
 5099DDP     C230592   6.575  24.836  24.226 -0.2697  0.2550  0.0973
 5099DDP     C330593   7.211  25.401  25.299  0.2153  0.1671 -0.0216
 5099DDP     C430594   7.400  25.742  24.421 -0.0210 -0.1369 -0.1083
 5100DDP     C130595   7.429   3.540   9.660 -0.1443 -0.1980  0.3200
 5100DDP     P130596   7.152   3.189   9.676  0.1383  0.1664  0.1219
 5100DDP     P230597   7.501   3.697  10.034  0.1035  0.0014 -0.1865
 5100DDP     C230598   7.978   3.689  10.227 -0.0701  0.0177 -0.0730
 5100DDP     C330599   6.695   3.072   9.939  0.1555  0.0083 -0.0890
 5100DDP     C430600   7.612   3.742   9.194  0.0975 -0.0681 -0.1393
 5101DDP     C130601  27.989  24.685   7.426 -0.2082  0.0731 -0.0701
 5101DDP     P130602  27.592  24.857   7.314  0.1544  0.1257  0.0497
 5101DDP     P230603  28.323  25.083   7.437  0.0770 -0.0440 -0.0400
 5101DDP     C230604  28.569  25.486   7.343  0.1178  0.0988 -0.1723
 5101DDP     C330605  27.345  25.218   7.093 -0.0748 -0.1500  0.0724
 5101DDP     C430606  28.087  24.270   7.447 -0.0258 -0.0845  0.1915
 5102DDP     C130607  27.577   3.698  14.171 -0.1728 -0.1631 -0.2596
 5102DDP     P130608  27.634   4.104  14.023 -0.0353  0.0792  0.0187
 5102DDP     P230609  27.242   3.483  14.063 -0.1125  0.2562  0.0055
 5102DDP     C230610  27.179   3.019  14.009  0.1044 -0.0220 -0.1174
 5102DDP     C330611  27.667   4.583  13.944  0.1153  0.0848  0.3742
 5102DDP     C430612  27.593   3.500  14.669 -0.1066 -0.2369 -0.0942
 5103DDP     C130613   1.134   0.691   6.899  0.3711  0.2471 -0.0456
 5103DDP     P130614   1.457   0.968   6.996  0.2099  0.2440 -0.1030
 5103DDP     P230615   1.162   0.414   7.082 -0.2229  0.0769 -0.0350
 5103DDP     C230616   1.342   0.218   7.313 -0.2105  0.3141  0.0530
 5103DDP     C330617   1.985   0.838   6.860  0.3223  0.0209 -0.0818
 5103DDP     C430618   1.000   0.731   6.507  0.0274  0.1996 -0.1714
 5104DDP     C130619  26.155  29.976   1.413 -0.0618  0.1970 -0.0611
 5104DDP     P130620  26.577  29.702   1.304 -0.0968 -0.1175 -0.2526
 5104DDP     P230621  25.925  30.117   1.902  0.0504  0.2035  0.0752
 5104DDP     C230622  26.074  29.926   2.303 -0.3395  0.1559 -0.0516
 5104DDP     C330623  26.824  29.483   1.436  0.3417  0.0209 -0.0304
 5104DDP     C430624  25.886  29.979   0.954 -0.2370 -0.2373  0.1062
 5105DDP     C130625  22.811  20.344   9.171  0.0396 -0.0234 -0.0932
 5105DDP     P130626  22.854  20.718   9.348 -0.0616  0.4046  0.0802
 5105DDP     P230627  22.732  20.268   8.719 -0.1045  0.2207 -0.2204
 5105DDP     C230628  22.439  20.208   8.434  0.0478  0.1470 -0.3074
 5105DDP     C330629  22.934  20.866   9.768 -0.1189  0.2037  0.1192
 5105DDP     C430630  22.911  20.135   9.523  0.1618  0.0151  0.1530
 5106DDP     C130631  22.015  12.384   3.170  0.2947  0.1734  0.0707
 5106DDP     P130632  22.208  12.617   3.474 -0.0366  0.2782  0.1018
 5106DDP     P230633  21.654  12.257   3.496 -0.0242  0.2515 -0.0817
 5106DDP     C230634  21.247  12.112   3.743 -0.1989 -0.2460 -0.1721
 5106DDP     C330635  22.179  12.716   3.892  0.0242  0.3873 -0.1874
 5106DDP     C430636  21.983  12.445   2.717 -0.0187  0.1905  0.0209
 5107DDP     C130637   4.551  30.037  23.256 -0.1622  0.0122  0.3051
 5107DDP     P130638   5.020  30.009  23.226  0.2696  0.1868 -0.1526
 5107DDP     P230639   4.217  30.303  22.948 -0.3152  0.0480  0.1139
 5107DDP     C230640   4.151   0.293  22.664 -0.4347 -0.0331  0.0055
 5107DDP     C330641   5.393  30.210  23.250  0.3648  0.0121  0.2454
 5107DDP     C430642   4.172  30.164  23.610 -0.0748 -0.0895 -0.4052
 5108DDP     C130643   6.261  20.404  20.415 -0.1278  0.0258 -0.1372
 5108DDP     P130644   5.864  20.490  20.669  0.0493 -0.0802  0.0129
 5108DDP     P230645   6.075  20.096  20.112  0.1864  0.0791 -0.1145
 5108DDP     C230646   6.122  20.203  19.733 -0.1049 -0.1173  0.1941
 5108DDP     C330647   5.584  20.759  20.693  0.0274 -0.0716 -0.1356
 5108DDP     C430648   6.658  20.522  20.611  0.1796 -0.1882  0.2655
 5109DDP     C130649  15.414   6.102   5.500 -0.2819 -0.0690 -0.1374
 5109DDP     P130650  15.877   5.851   5.621  0.1638 -0.1826 -0.0312
 5109DDP     P230651  15.111   6.122   5.730  0.1755 -0.1285  0.0436
 5109DDP     C230652  14.850   5.970   6.154 -0.0738  0.1507  0.1381
 5109DDP     C330653  16.059   5.555   5.910 -0.0196 -0.0455 -0.0940
 5109DDP     C430654  15.248   6.458   5.233  0.1872 -0.4229 -0.0532
 5110DDP     C130655  18.123  15.913  11.869  0.1090 -0.0579  0.0277
 5110DDP     P130656  17.784  16.287  11.962  0.2313  0.0134  0.1440
 5110DDP     P230657  18.088  15.509  11.627  0.2766  0.0123  0.0741
 5110DDP     C230658  17.978  15.285  11.266 -0.1494 -0.1216 -0.0183
 5110DDP     C330659  17.516  16.428  11.598 -0.0762 -0.1571 -0.1993
 5110DDP     C430660  18.544  16.107  11.719  0.2033 -0.1484  0.1116
 5111DDP     C130661  12.209   5.352  26.014 -0.0227 -0.0755 -0.0958
 5111DDP     P130662  12.637   5.075  26.129  0.0088 -0.1214 -0.1144
 5111DDP     P230663  11.980   5.489  26.296 -0.0604  0.3850 -0.3497
 5111DDP     C230664  11.743   5.223  26.572  0.2355  0.2470  0.0593
 5111DDP     C330665  13.070   5.051  26.049 -0.1762 -0.3139  0.0367
 5111DDP     C430666  12.039   5.457  25.712  0.1656  0.3787  0.0380
 5112DDP     C130667  12.901  18.728  11.386 -0.0514  0.0746 -0.2244
 5112DDP     P130668  12.557  18.441  11.389  0.0824 -0.3284 -0.0747
 5112DDP     P230669  13.384  18.534  11.511 -0.1104  0.1979  0.0687
 5112DDP     C230670  13.750  18.561  11.289  0.0390 -0.3098  0.1678
 5112DDP     C330671  12.210  18.281  11.430 -0.1730 -0.1249  0.2123
 5112DDP     C430672  12.904  19.140  11.254 -0.2276  0.0870  0.0562
 5113DDP     C130673   7.054  29.665   0.553  0.2379  0.0298  0.2294
 5113DDP     P130674   6.688  29.744   0.882  0.0728 -0.0082 -0.3363
 5113DDP     P230675   7.351  29.964   0.796  0.0333 -0.0457 -0.0303
 5113DDP     C230676   7.811  29.957   1.033 -0.0846  0.1976  0.0855
 5113DDP     C330677   6.300  30.029   0.961  0.2104  0.0466  0.3018
 5113DDP     C430678   7.065  29.407   0.159 -0.0829 -0.1985  0.2258
 5114DDP     C130679  18.880  13.440  28.772  0.0766 -0.1438 -0.1052
 5114DDP     P130680  18.960  13.070  28.892  0.1043 -0.0895  0.0949
 5114DDP     P230681  18.942  13.846  28.981  0.1738 -0.0113  0.1135
 5114DDP     C230682  18.867  14.233  28.897  0.0443 -0.2148 -0.1796
 5114DDP     C330683  19.323  12.730  28.872  0.0581 -0.2167  0.0116
 5114DDP     C430684  18.889  13.449  28.250  0.3234  0.2489  0.3672
 5115DDP     C130685  29.860  21.553   8.752  0.1522  0.0208  0.1064
 5115DDP     P130686  29.748  21.727   9.177  0.0790  0.4290 -0.2769
 5115DDP     P230687  30.079  21.847   8.472 -0.1031  0.3050 -0.0114
 5115DDP     C230688  30.301  21.784   8.023  0.1643  0.1241  0.0842
 5115DDP     C330689  29.740  21.487   9.510 -0.3054  0.1230  0.0135
 5115DDP     C430690  29.678  21.175   8.562 -0.1202 -0.3220  0.1363
 5116DDP     C130691  28.853  28.073   0.508 -0.1767 -0.0239  0.0065
 5116DDP     P130692  29.129  28.280   0.829 -0.5415  0.0727 -0.1758
 5116DDP     P230693  29.183  27.821   0.247 -0.1156 -0.1822  0.1471
 5116DDP     C230694  29.208  27.376   0.317 -0.3325 -0.0369 -0.2854
 5116DDP     C330695  29.359  28.732   0.709 -0.0281  0.0417 -0.3656
 5116DDP     C430696  28.433  27.894   0.635 -0.2308  0.1569  0.1071
 5117DDP     C130697  27.547   5.054   0.221  0.1072  0.0635  0.0424
 5117DDP     P130698  27.379   4.554   0.388 -0.1036 -0.0473  0.0670
 5117DDP     P230699  27.721   5.370   0.520  0.1493  0.1429  0.0282
 5117DDP     C230700  28.134   5.478   0.546  0.0129 -0.2865 -0.2842
 5117DDP     C330701  27.054   4.256   0.421 -0.3606 -0.3606 -0.2612
 5117DDP     C430702  27.384   4.988  30.043 -0.0620 -0.2506  0.2203
 5118DDP     C130703  18.236   6.787  10.297  0.1573  0.0623  0.2717
 5118DDP     P130704  18.329   7.267  10.119 -0.0512  0.0155  0.1456
 5118DDP     P230705  17.961   6.504   9.968 -0.1547  0.0195  0.0288
 5118DDP     C230706  17.782   6.605   9.554 -0.1266 -0.1592  0.2729
 5118DDP     C330707  18.419   7.622  10.400 -0.1352 -0.0095 -0.1044
 5118DDP     C430708  18.608   6.551  10.473  0.1180  0.0413  0.3255
 5119DDP     C130709  19.895  24.293  22.717  0.1821  0.0987 -0.0470
 5119DDP     P130710  19.971  23.887  22.629  0.2068  0.1259  0.2316
 5119DDP     P230711  19.576  24.599  22.521 -0.2134 -0.3399 -0.1533
 5119DDP     C230712  19.247  25.006  22.529 -0.3846 -0.0221  0.1022
 5119DDP     C330713  20.170  23.479  22.713 -0.2274 -0.1039 -0.2525
 5119DDP     C430714  20.208  24.432  23.094  0.0246 -0.1450  0.0568
 5120DDP     C130715  11.180  18.175  18.006 -0.0923  0.1787 -0.0319
 5120DDP     P130716  11.567  17.879  18.079  0.1558  0.0003 -0.1027
 5120DDP     P230717  10.879  18.013  17.770  0.0370 -0.5138  0.0091
 5120DDP     C230718  10.394  17.896  17.730 -0.1444  0.2167  0.0778
 5120DDP     C330719  11.973  17.818  17.891  0.1802 -0.0147 -0.0748
 5120DDP     C430720  11.067  18.594  18.179 -0.1474  0.1093 -0.1736
 5121DDP     C130721   2.525  14.577   2.640  0.1899 -0.0491  0.0168
 5121DDP     P130722   2.170  14.836   2.790  0.1049  0.0218 -0.2029
 5121DDP     P230723   2.927  14.430   2.874 -0.1122 -0.0584 -0.0719
 5121DDP     C230724   3.152  14.303   3.298  0.0397  0.1366  0.1927
 5121DDP     C330725   2.074  14.983   3.150 -0.0740 -0.0684 -0.1064
 5121DDP     C430726   2.394  14.550   2.105  0.0707  0.0351 -0.1879
 5122DDP     C130727  24.283  18.588  22.337 -0.0678  0.0320 -0.2364
 5122DDP     P130728  24.323  18.129  22.225  0.0381  0.2889 -0.1280
 5122DDP     P230729  24.495  18.835  22.003  0.0950 -0.2494 -0.0696
 5122DDP     C230730  24.415  19.000  21.569  0.2320  0.1499 -0.0289
 5122DDP     C330731  24.700  17.769  22.389 -0.0544 -0.0814 -0.0220
 5122DDP     C430732  24.102  18.804  22.642 -0.0550  0.2319  0.1037
 5123DDP     C130733  14.359  21.158  11.747  0.3294  0.3264  0.0088
 5123DDP     P130734  14.344  21.489  12.079 -0.2435  0.0748 -0.3765
 5123DDP     P230735  14.000  20.995  11.576 -0.1581  0.2196 -0.1480
 5123DDP     C230736  13.826  20.966  11.182  0.0740  0.0465  0.4255
 5123DDP     C330737  14.434  21.856  12.301  0.2748 -0.2083  0.0191
 5123DDP     C430738  14.810  21.266  11.529  0.1254  0.0316 -0.1742
 5124DDP     C130739   3.682   4.639   2.649 -0.0361 -0.1916  0.3016
 5124DDP     P130740   3.513   4.303   2.860  0.1180 -0.2137 -0.1821
 5124DDP     P230741   3.701   5.071   2.692  0.0174 -0.0228  0.1159
 5124DDP     C230742   3.502   5.448   2.396 -0.1072  0.1386  0.3675
 5124DDP     C330743   3.075   4.303   3.041  0.0508 -0.1531 -0.2378
 5124DDP     C430744   4.019   4.517   2.431 -0.2932 -0.3556 -0.1685
 5125DDP     C130745  20.256   7.722   5.545  0.2288 -0.0578 -0.1951
 5125DDP     P130746  20.332   7.794   5.116  0.3877 -0.0416  0.0348
 5125DDP     P230747  19.867   7.511   5.801  0.0614 -0.2175  0.0174
 5125DDP     C230748  19.670   7.307   6.166 -0.1530  0.1513  0.0996
 5125DDP     C330749  20.212   7.570   4.796 -0.0706 -0.0375 -0.0873
 5125DDP     C430750  20.563   7.847   5.795 -0.0182 -0.1821  0.1819
 5126DDP     C130751  28.399   6.428   9.275 -0.0690  0.0154 -0.1916
 5126DDP     P130752  27.993   6.487   8.975  0.0930  0.2517  0.1293
 5126DDP     P230753  28.601   6.091   9.503 -0.2026 -0.1084 -0.1405
 5126DDP     C230754  28.660   5.918   9.883 -0.1426  0.1709  0.0125
 5126DDP     C330755  27.746   6.510   8.738  0.3755  0.3657 -0.0799
 5126DDP     C430756  28.373   6.865   9.488  0.1026 -0.0450 -0.1758
 5127DDP     C130757   6.240  27.199  12.765 -0.1930  0.0502  0.3056
 5127DDP     P130758   6.083  26.826  12.904 -0.0730 -0.1324  0.1259
 5127DDP     P230759   6.650  27.308  12.610  0.3645 -0.2922 -0.0341
 5127DDP     C230760   6.797  27.524  12.263  0.1079  0.2204 -0.2026
 5127DDP     C330761   5.704  26.611  12.798 -0.0060  0.0263 -0.0124
 5127DDP     C430762   6.001  27.554  12.836 -0.2310 -0.4161  0.2011
 5128DDP     C130763  10.160   7.391  12.553 -0.2335  0.0092  0.0614
 5128DDP     P130764  10.131   7.078  12.803  0.1555  0.2041  0.1262
 5128DDP     P230765   9.818   7.700  12.682 -0.2269 -0.1094  0.3415
 5128DDP     C230766   9.379   7.691  12.853  0.0902  0.1794 -0.0683
 5128DDP     C330767  10.219   6.815  13.059 -0.0573 -0.1791  0.0357
 5128DDP     C430768  10.565   7.491  12.293 -0.1141  0.2660  0.0151
 5129DDP     C130769  27.280   4.372   6.968  0.2304 -0.1497  0.2583
 5129DDP     P130770  27.433   4.508   7.384  0.1514  0.1296 -0.4778
 5129DDP     P230771  26.967   4.505   6.640 -0.2972 -0.2026 -0.2622
 5129DDP     C230772  26.473   4.665   6.581  0.1170  0.2011 -0.2121
 5129DDP     C330773  27.671   4.722   7.848  0.0475  0.1505 -0.1146
 5129DDP     C430774  27.500   3.909   6.895  0.0021 -0.0655  0.2890
 5130DDP     C130775  14.981  28.867  19.501 -0.0292 -0.0474  0.1184
 5130DDP     P130776  15.369  29.039  19.422 -0.2015 -0.1037 -0.1075
 5130DDP     P230777  14.862  28.490  19.310 -0.0401  0.1284  0.0018
 5130DDP     C230778  15.098  28.128  19.249 -0.0806 -0.0887 -0.1828
 5130DDP     C330779  15.816  29.025  19.433  0.4302 -0.1753 -0.2562
 5130DDP     C430780  14.826  28.978  19.814  0.0407  0.1272  0.1495
 5131DDP     C130781  16.364  28.979  13.459 -0.0142  0.0825 -0.2518
 5131DDP     P130782  16.298  29.037  13.924 -0.0576  0.2437 -0.1864
 5131DDP     P230783  16.526  28.536  13.303  0.1838  0.5282 -0.0962
 5131DDP     C230784  16.345  28.135  13.155  0.1931  0.0206  0.0849
 5131DDP     C330785  16.332  29.070  14.357  0.0656  0.1397  0.1303
 5131DDP     C430786  16.187  29.347  13.124  0.0168 -0.0181  0.2549
 5132DDP     C130787  22.498  13.485  19.051 -0.3393 -0.0913 -0.0494
 5132DDP     P130788  22.816  13.183  18.700  0.2800  0.1293 -0.3328
 5132DDP     P230789  22.057  13.473  18.886 -0.0747 -0.3933  0.2293
 5132DDP     C230790  21.881  13.084  18.687  0.1651  0.2256  0.1438
 5132DDP     C330791  23.063  12.918  18.920 -0.0997  0.1634  0.1128
 5132DDP     C430792  22.472  13.626  19.482 -0.0483  0.4150  0.0068
 5133DDP     C130793   0.767   9.693  17.530 -0.1451 -0.0269 -0.2808
 5133DDP     P130794   0.893   9.326  17.426  0.0838 -0.0760 -0.2496
 5133DDP     P230795   1.078   9.976  17.477  0.0281 -0.1232  0.0732
 5133DDP     C230796   1.512  10.060  17.675  0.1753 -0.1710  0.1564
 5133DDP     C330797   1.355   9.040  17.500 -0.1554 -0.4189 -0.1225
 5133DDP     C430798   0.529   9.847  17.864  0.1068  0.0293  0.1010
 5134DDP     C130799  25.868   8.139  26.138  0.2777  0.1371 -0.0826
 5134DDP     P130800  25.591   7.801  25.989  0.0666 -0.0353 -0.1122
 5134DDP     P230801  25.927   8.240  26.586 -0.0411  0.1170  0.0024
 5134DDP     C230802  26.158   8.447  26.858 -0.0990  0.3266 -0.1187
 5134DDP     C330803  25.309   7.784  25.617 -0.2886  0.3867 -0.0856
 5134DDP     C430804  26.278   8.306  25.868  0.1771 -0.1455  0.0452
 5135DDP     C130805   9.385  20.547  28.237  0.0213  0.0956 -0.1004
 5135DDP     P130806   8.945  20.531  28.304  0.1440 -0.0482 -0.0926
 5135DDP     P230807   9.517  20.512  27.786  0.0429  0.2004 -0.0130
 5135DDP     C230808   9.792  20.403  27.488  0.1477  0.1722  0.2717
 5135DDP     C330809   8.589  20.532  28.297 -0.0099  0.2110 -0.4142
 5135DDP     C430810   9.652  20.525  28.621 -0.0086  0.0475  0.3345
 5136DDP     C130811  20.988   0.787   0.660 -0.2756  0.0312 -0.1654
 5136DDP     P130812  21.184   1.067   0.410  0.0518 -0.0180 -0.0291
 5136DDP     P230813  20.960   0.383   0.634 -0.1588  0.1103  0.1187
 5136DDP     C230814  21.318   0.083   0.723 -0.0906 -0.1963  0.1322
 5136DDP     C330815  21.414   1.338   0.183 -0.1095 -0.2195 -0.0050
 5136DDP     C430816  20.947   0.983   0.990  0.0110  0.0193  0.0011
 5137DDP     C130817  21.379  23.887  12.170 -0.0929 -0.1722  0.0443
 5137DDP     P130818  21.092  23.573  12.123 -0.2479 -0.0121  0.2310
 5137DDP     P230819  21.380  24.384  11.930 -0.0252  0.3102 -0.4950
 5137DDP     C230820  21.662  24.661  11.684 -0.2729 -0.1838 -0.2226
 5137DDP     C330821  20.737  23.638  11.975  0.0453  0.3251  0.1160
 5137DDP     C430822  21.550  24.096  12.487 -0.0623  0.0154 -0.1031
 5138DDP     C130823   8.628  28.570  30.288  0.0973 -0.0904  0.0144
 5138DDP     P130824   8.784  28.264  30.032  0.3120  0.2516 -0.1548
 5138DDP     P230825   8.841  28.930  30.322  0.0395 -0.1924 -0.0677
 5138DDP     C230826   9.224  29.153   0.233  0.2262  0.1331 -0.0678
 5138DDP     C330827   8.758  27.883  29.966  0.2463  0.1565 -0.1921
 5138DDP     C430828   8.553  28.418   0.413  0.0862 -0.2175 -0.0006
 5139DDP     C130829  24.529   6.604  29.640 -0.0985 -0.0112 -0.1801
 5139DDP     P130830  24.650   6.650  30.042  0.2055 -0.0065  0.1541
 5139DDP     P230831  24.660   6.976  29.455 -0.1189 -0.1578 -0.2771
 5139DDP     C230832  24.592   7.356  29.578  0.0639 -0.3282 -0.0479
 5139DDP     C330833  25.064   6.839  30.294 -0.1197 -0.1422  0.0909
 5139DDP     C430834  24.115   6.545  29.528 -0.1676  0.0533 -0.2006
 5140DDP     C130835  26.181   0.705  18.183  0.1177  0.3338 -0.2316
 5140DDP     P130836  25.937   0.803  17.910  0.5490  0.0658  0.3544
 5140DDP     P230837  26.244   0.843  18.631  0.0024  0.2770 -0.1215
 5140DDP     C230838  26.503   0.976  18.899 -0.2351  0.1257 -0.1100
 5140DDP     C330839  25.471   0.825  17.714  0.0820  0.1772  0.4929
 5140DDP     C430840  26.493   0.669  17.873  0.1163 -0.2186 -0.4159
 5141DDP     C130841   3.593  21.215   8.714  0.0831 -0.2876  0.4662
 5141DDP     P130842   3.982  21.314   8.885 -0.2315 -0.0358 -0.0766
 5141DDP     P230843   3.216  21.602   8.715 -0.2551 -0.2470 -0.1189
 5141DDP     C230844   3.177  22.018   8.498 -0.0535  0.1579 -0.0673
 5141DDP     C330845   4.446  21.427   9.003  0.1147  0.0995  0.1612
 5141DDP     C430846   3.469  20.935   8.339  0.1049  0.0427  0.0599
 5142DDP     C130847  17.602   7.245   1.330 -0.1161  0.0818  0.0185
 5142DDP     P130848  17.248   7.256   1.046 -0.0124 -0.3497  0.5163
 5142DDP     P230849  17.687   7.600   1.665 -0.4027 -0.1011 -0.1620
 5142DDP     C230850  17.707   7.631   2.103 -0.1392  0.1517 -0.1107
 5142DDP     C330851  16.963   7.461   0.799  0.0284  0.0127  0.4205
 5142DDP     C430852  17.821   6.792   1.439 -0.2501  0.2072 -0.1138
 5143DDP     C130853  10.763  26.981   3.303 -0.3112  0.0863 -0.2962
 5143DDP     P130854  10.772  26.565   3.345  0.0166 -0.1337 -0.2238
 5143DDP     P230855  11.076  27.136   3.536  0.2770 -0.0664 -0.0393
 5143DDP     C230856  11.447  27.019   3.810  0.1170 -0.0573 -0.0673
 5143DDP     C330857  10.764  26.192   3.095  0.2079 -0.2522 -0.1626
 5143DDP     C430858  10.408  26.989   3.022 -0.0712  0.1298 -0.0358
 5144DDP     C130859  24.120  28.392  28.514 -0.3910 -0.2503  0.0466
 5144DDP     P130860  23.970  28.001  28.641 -0.1659  0.1767  0.0158
 5144DDP     P230861  24.562  28.452  28.520  0.0248  0.1075 -0.1116
 5144DDP     C230862  24.890  28.476  28.695 -0.1926 -0.1785  0.1220
 5144DDP     C330863  23.698  27.797  28.366 -0.0196  0.2834  0.0058
 5144DDP     C430864  23.951  28.665  28.231  0.1298  0.0853 -0.0681
 5145DDP     C130865  14.526  20.141   4.246  0.0793 -0.0427  0.1190
 5145DDP     P130866  14.868  20.060   4.609  0.0138 -0.1612  0.2811
 5145DDP     P230867  14.121  19.898   4.227 -0.2209 -0.3146  0.2118
 5145DDP     C230868  13.837  19.634   4.245  0.1164  0.2680 -0.0839
 5145DDP     C330869  15.250  20.107   4.592  0.0554  0.1853  0.0239
 5145DDP     C430870  14.798  20.307   3.869  0.0763  0.0959  0.0287
 5146DDP     C130871  14.816  29.141   3.777  0.0369  0.1743  0.0281
 5146DDP     P130872  14.773  28.804   3.536  0.0448 -0.6037 -0.1574
 5146DDP     P230873  14.909  29.494   3.486  0.0371  0.2250  0.0766
 5146DDP     C230874  15.253  29.719   3.179  0.1981 -0.4993 -0.0301
 5146DDP     C330875  14.878  28.467   3.139 -0.1359  0.2599 -0.0083
 5146DDP     C430876  14.772  29.306   4.205 -0.0921 -0.2371 -0.2760
 5147DDP     C130877  14.425   1.761  23.955 -0.1713  0.2903 -0.1553
 5147DDP     P130878  14.533   1.582  23.669 -0.1326  0.0443  0.0315
 5147DDP     P230879  14.397   2.177  23.717  0.3035  0.1454  0.0474
 5147DDP     C230880  14.394   2.652  23.676  0.0511  0.0610 -0.4398
 5147DDP     C330881  14.346   1.556  23.291  0.2988  0.0200  0.0108
 5147DDP     C430882  14.296   1.498  24.340  0.2262  0.2258  0.0483
 5148DDP     C130883   6.638  27.409  14.217  0.1688 -0.0856  0.0766
 5148DDP     P130884   6.598  26.887  14.020  0.0408 -0.3216  0.1444
 5148DDP     P230885   6.912  27.376  14.551  0.0639 -0.2056 -0.0703
 5148DDP     C230886   6.844  27.383  15.008  0.1485 -0.1321  0.3212
 5148DDP     C330887   6.546  26.534  13.854 -0.0384 -0.2806 -0.3509
 5148DDP     C430888   6.401  27.755  14.012  0.1065 -0.0339 -0.0716
 5149DDP     C130889  29.907  29.767  14.405 -0.0678 -0.1860 -0.0721
 5149DDP     P130890  29.972  29.946  13.999  0.1176  0.0728  0.0626
 5149DDP     P230891  29.527  30.014  14.476 -0.1228 -0.3173 -0.2398
 5149DDP     C230892  29.230  29.903  14.729  0.0169 -0.2338  0.3640
 5149DDP     C330893  30.017  29.984  13.497 -0.0290 -0.1738 -0.3240
 5149DDP     C430894  30.079  29.499  14.611 -0.2173 -0.0006  0.0057
 5150DDP     C130895   8.420   2.110  10.602  0.2899  0.2712 -0.3016
 5150DDP     P130896   8.087   2.373  10.515 -0.0793 -0.0829  0.1465
 5150DDP     P230897   8.246   1.844  10.905  0.0084 -0.3140  0.0453
 5150DDP     C230898   8.154   1.799  11.447 -0.2436 -0.3568 -0.0803
 5150DDP     C330899   7.780   2.390  10.094  0.0327  0.2838  0.0866
 5150DDP     C430900   8.891   2.050  10.460 -0.1753  0.2698 -0.2453
 5151DDP     C130901  19.456  29.959   0.585 -0.1427  0.0638 -0.0021
 5151DDP     P130902  19.824  30.170   0.741  0.0936  0.0282 -0.0182
 5151DDP     P230903  19.399  29.676   0.377 -0.1169 -0.0294 -0.0069
 5151DDP     C230904  19.251  29.362   0.049  0.0503  0.0684  0.0376
 5151DDP     C330905  19.969   0.249   0.715  0.0013 -0.0702 -0.0763
 5151DDP     C430906  19.239  30.251   0.773  0.1596 -0.1404  0.1817
 5152DDP     C130907   1.261  17.343  25.383  0.4451 -0.1072 -0.0867
 5152DDP     P130908   1.224  17.394  24.966 -0.1405  0.0369 -0.5061
 5152DDP     P230909   1.567  17.138  25.303  0.2023  0.2498 -0.3763
 5152DDP     C230910   1.713  16.690  25.087 -0.0129 -0.2147  0.0008
 5152DDP     C330911   1.145  17.474  24.597  0.1063  0.0458  0.2663
 5152DDP     C430912   1.021  17.380  25.698 -0.2614  0.2998 -0.0297
 5153DDP     C130913   1.492   6.901   4.747 -0.0387 -0.3189  0.0029
 5153DDP     P130914   1.577   6.991   4.423 -0.2432 -0.0318 -0.0081
 5153DDP     P230915   1.101   6.535   4.788 -0.2359  0.2839 -0.0703
 5153DDP     C230916   1.169   6.063   4.646  0.0565  0.0348 -0.4468
 5153DDP     C330917   1.932   7.208   4.377 -0.1161 -0.0183 -0.0586
 5153DDP     C430918   1.803   6.792   5.042 -0.0027 -0.1080 -0.2216
 5154DDP     C130919  10.007  13.666  11.522  0.4411 -0.0544 -0.0356
 5154DDP     P130920  10.337  13.424  11.612  0.0318 -0.0042 -0.2235
 5154DDP     P230921  10.300  13.863  11.394 -0.1969 -0.0960  0.5331
 5154DDP     C230922  10.689  14.175  11.429 -0.4401 -0.2545  0.1610
 5154DDP     C330923  10.782  13.360  11.732  0.1230  0.1263  0.1846
 5154DDP     C430924   9.690  13.645  11.832  0.1055 -0.1138  0.0923
 5155DDP     C130925  16.199   1.588   6.701 -0.0575  0.0227 -0.0073
 5155DDP     P130926  16.135   2.071   6.768  0.0482  0.4560 -0.1091
 5155DDP     P230927  16.375   1.374   6.269 -0.4070  0.0028  0.0847
 5155DDP     C230928  16.142   1.032   6.192  0.3424  0.0492 -0.1160
 5155DDP     C330929  16.390   2.342   6.606  0.2798 -0.0037 -0.0555
 5155DDP     C430930  16.091   1.289   6.958  0.2997  0.0222  0.2496
 5156DDP     C130931  27.178   4.088  15.541 -0.2497  0.0788 -0.1942
 5156DDP     P130932  26.851   4.133  15.460 -0.0323 -0.0945  0.1633
 5156DDP     P230933  27.182   4.035  15.898  0.0743 -0.2022 -0.4397
 5156DDP     C230934  27.321   4.305  16.224 -0.2007 -0.0775  0.2481
 5156DDP     C330935  26.408   3.974  15.431 -0.0905  0.0984 -0.2990
 5156DDP     C430936  27.441   4.107  15.239  0.0404 -0.1411 -0.0541
 5157DDP     C130937  12.415  16.849  21.147  0.2736 -0.2580 -0.0590
 5157DDP     P130938  12.843  16.910  21.324  0.1795  0.1192  0.0524
 5157DDP     P230939  12.126  17.179  21.097 -0.0703  0.0355 -0.0706
 5157DDP     C230940  12.111  17.623  21.127 -0.1410  0.0002 -0.1179
 5157DDP     C330941  13.203  16.855  21.450  0.0638 -0.2595  0.2786
 5157DDP     C430942  12.349  16.379  21.039 -0.0640  0.1975 -0.0432
 5158DDP     C130943   5.128  10.100  23.951 -0.1852 -0.1118  0.3554
 5158DDP     P130944   4.766  10.168  24.061 -0.2649 -0.0582 -0.1362
 5158DDP     P230945   5.319   9.750  23.736 -0.1146 -0.1150  0.1457
 5158DDP     C230946   5.552   9.723  23.327 -0.1929 -0.1013  0.3683
 5158DDP     C330947   4.493  10.519  23.972  0.0933 -0.4596 -0.1530
 5158DDP     C430948   5.469  10.417  24.060 -0.2854 -0.2371 -0.1875
 5159DDP     C130949  19.215  23.896  19.044 -0.0882  0.2844 -0.2464
 5159DDP     P130950  19.695  23.701  19.180  0.1193 -0.0660  0.3587
 5159DDP     P230951  18.843  23.684  19.089  0.1543 -0.0840  0.2274
 5159DDP     C230952  18.723  23.931  19.364  0.2720 -0.2666 -0.2252
 5159DDP     C330953  20.017  23.578  18.874  0.0343 -0.0092  0.0234
 5159DDP     C430954  19.191  24.324  18.934  0.1376  0.0712  0.0699
 5160DDP     C130955   3.945   9.744   6.838 -0.2456  0.2376  0.2518
 5160DDP     P130956   3.838  10.167   6.976  0.4774 -0.2436 -0.0908
 5160DDP     P230957   4.059   9.404   7.104 -0.1680 -0.1205 -0.0335
 5160DDP     C230958   4.254   9.071   7.016 -0.0672  0.3090  0.0524
 5160DDP     C330959   3.662  10.555   7.296 -0.0543  0.2579  0.3887
 5160DDP     C430960   3.759   9.706   6.414 -0.2121 -0.0785 -0.0423
 5161DDP     C130961   3.860   1.343  18.973  0.0498 -0.0398 -0.1719
 5161DDP     P130962   3.680   1.127  18.661 -0.0439 -0.2039 -0.0770
 5161DDP     P230963   3.616   1.348  19.275 -0.1109 -0.1378 -0.2042
 5161DDP     C230964   3.122   1.346  19.350  0.1697 -0.0986 -0.0425
 5161DDP     C330965   3.546   1.133  18.217 -0.2042  0.1205 -0.1269
 5161DDP     C430966   4.340   1.607  18.972  0.2430 -0.1628 -0.2994
 5162DDP     C130967   5.673  27.782   1.348 -0.1351 -0.2481 -0.0005
 5162DDP     P130968   5.312  27.969   1.518  0.2965  0.1916  0.0163
 5162DDP     P230969   5.733  27.689   0.910 -0.0116  0.0457  0.2009
 5162DDP     C230970   5.920  27.319   0.827  0.0154 -0.3414 -0.0008
 5162DDP     C330971   4.950  28.217   1.417  0.0189 -0.1852 -0.1675
 5162DDP     C430972   6.031  27.676   1.608  0.1722 -0.0991 -0.0156
 5163DDP     C130973   8.170  24.248   4.356  0.0274 -0.1382 -0.1053
 5163DDP     P130974   7.942  24.221   4.036 -0.1603 -0.0638  0.1693
 5163DDP     P230975   8.599  24.294   4.282 -0.2508 -0.0029  0.1436
 5163DDP     C230976   8.815  23.971   4.197  0.2104  0.0996  0.1159
 5163DDP     C330977   7.930  24.449   3.739  0.0174 -0.1430  0.1959
 5163DDP     C430978   8.067  24.199   4.743 -0.3796  0.0457  0.0176
 5164DDP     C130979   0.348   5.664  26.921 -0.1083 -0.0455  0.1680
 5164DDP     P130980  30.343   5.909  27.114  0.0641  0.0441 -0.1748
 5164DDP     P230981   0.178   5.490  26.504 -0.4155 -0.2935 -0.1248
 5164DDP     C230982  30.284   5.237  26.113  0.2887 -0.1071  0.2743
 5164DDP     C330983  29.995   6.159  27.402 -0.1517  0.3098 -0.0225
 5164DDP     C430984   0.693   5.616  27.076 -0.0448  0.0568  0.1830
 5165DDP     C130985  21.167  11.419   2.912 -0.4124 -0.3533  0.0889
 5165DDP     P130986  21.525  11.635   3.042  0.2632  0.2120  0.1687
 5165DDP     P230987  20.947  11.011   2.817 -0.1848  0.1074  0.1532
 5165DDP     C230988  20.693  10.758   2.821  0.2438 -0.3486 -0.0903
 5165DDP     C330989  21.476  12.100   3.054 -0.0386 -0.3074  0.0746
 5165DDP     C430990  20.907  11.652   2.738  0.0500  0.3849  0.0020
 5166DDP     C130991  17.807   4.029  18.989 -0.2691  0.0522  0.4356
 5166DDP     P130992  18.144   3.946  19.283 -0.1898 -0.2084 -0.1299
 5166DDP     P230993  17.762   3.870  18.481  0.0715  0.2914 -0.1195
 5166DDP     C230994  17.481   3.579  18.301  0.1321  0.0608 -0.1772
 5166DDP     C330995  18.315   3.890  19.683  0.2593 -0.2214 -0.3161
 5166DDP     C430996  17.482   3.977  19.318  0.0866  0.2170  0.1202
 5167DDP     C130997  14.864   0.959  12.793  0.1614  0.0580  0.2180
 5167DDP     P130998  15.176   1.028  12.904  0.0234  0.0498  0.0418
 5167DDP     P230999  14.840   0.757  12.427 -0.2296 -0.2188  0.2090
 5167DDP     C231000  14.697   0.478  12.078 -0.0786  0.0833 -0.0874
 5167DDP     C331001  15.493   1.337  12.779  0.0482  0.0774 -0.1317
 5167DDP     C431002  14.632   1.153  12.992 -0.0608 -0.2579  0.2250
 5168DDP     C131003   0.403  26.735  12.448 -0.0899 -0.0083 -0.0447
 5168DDP     P131004   0.683  26.543  12.552  0.2847 -0.1396 -0.3047
 5168DDP     P231005   0.513  26.932  12.056 -0.0272 -0.0758  0.0258
 5168DDP     C231006   0.329  27.007  11.680  0.0566 -0.1666  0.0613
 5168DDP     C331007   0.768  26.307  12.901 -0.0278 -0.2841  0.0202
 5168DDP     C431008  30.243  26.526  12.623  0.0330  0.0228 -0.3723
 5169DDP     C131009  27.532  26.475  15.823 -0.1331  0.2455 -0.1490
 5169DDP     P131010  27.171  26.298  15.860  0.1502 -0.0034 -0.0441
 5169DDP     P231011  27.846  26.799  16.094  0.1112  0.0282 -0.1421
 5169DDP     C231012  28.013  26.920  16.607 -0.0547  0.1783 -0.0786
 5169DDP     C331013  26.810  26.038  16.072  0.2047  0.0565  0.0649
 5169DDP     C431014  27.753  26.191  15.536  0.0096 -0.0615  0.0279
 5170DDP     C131015  18.901   0.060  11.583 -0.0281 -0.0453  0.1043
 5170DDP     P131016  18.882  30.060  11.324 -0.1536  0.0948  0.0429
 5170DDP     P231017  19.081   0.101  12.000  0.0627 -0.0555 -0.0010
 5170DDP     C231018  18.787   0.024  12.265  0.0508  0.1948  0.2763
 5170DDP     C331019  18.550  29.683  11.292 -0.1615 -0.2007  0.0288
 5170DDP     C431020  18.755   0.337  11.270 -0.0976  0.2917 -0.0480
 5171DDP     C131021  14.968  11.861   5.765  0.0113  0.1519 -0.2589
 5171DDP     P131022  15.043  12.040   5.317  0.1067 -0.1579 -0.0655
 5171DDP     P231023  15.040  12.128   6.162 -0.1836 -0.0509 -0.0079
 5171DDP     C231024  15.096  12.557   6.166  0.0956  0.2528 -0.2424
 5171DDP     C331025  15.417  12.109   5.060  0.2814 -0.1713  0.1315
 5171DDP     C431026  14.708  11.480   5.773  0.0995 -0.1289 -0.2081
 5172DDP     C131027  25.123  21.185  18.630  0.0210 -0.4054  0.0962
 5172DDP     P131028  25.070  21.399  18.195  0.2426  0.1488 -0.0596
 5172DDP     P231029  25.427  20.893  18.621  0.0908 -0.1930  0.0646
 5172DDP     C231030  25.679  20.577  18.607 -0.3021 -0.0044  0.0080
 5172DDP     C331031  24.787  21.737  18.146  0.0535 -0.1462  0.3176
 5172DDP     C431032  24.803  21.095  19.015 -0.1115 -0.0409 -0.1088
 5173DDP     C131033  11.981   9.177  28.818 -0.1475 -0.0550 -0.0639
 5173DDP     P131034  11.787   9.497  29.071 -0.1558 -0.2352  0.1897
 5173DDP     P231035  12.418   8.949  28.814 -0.3013 -0.0453 -0.1863
 5173DDP     C231036  12.801   8.697  28.696  0.1890 -0.1070  0.2916
 5173DDP     C331037  11.524   9.528  29.340 -0.0421  0.1539  0.0928
 5173DDP     C431038  11.766   9.102  28.493  0.0384 -0.2200  0.0175
 5174DDP     C131039  17.738   9.619   7.920 -0.0886  0.0321 -0.1546
 5174DDP     P131040  17.514   9.969   7.855  0.0221  0.0421 -0.0510
 5174DDP     P231041  17.822   9.415   8.272  0.2079 -0.1033  0.0074
 5174DDP     C231042  17.970   9.157   8.545 -0.0602  0.3480 -0.3686
 5174DDP     C331043  17.171  10.189   8.098  0.1786 -0.0992  0.0598
 5174DDP     C431044  18.101   9.376   7.545  0.0936 -0.1594 -0.0157
 5175DDP     C131045  18.682   6.429  11.003 -0.1063  0.0225 -0.1272
 5175DDP     P131046  19.128   6.511  10.723  0.2539 -0.0730 -0.1019
 5175DDP     P231047  18.490   6.851  10.979  0.0029  0.2693 -0.0524
 5175DDP     C231048  18.123   7.028  11.049 -0.2434 -0.0206  0.1324
 5175DDP     C331049  19.479   6.495  10.484 -0.1629  0.0759  0.0151
 5175DDP     C431050  18.433   6.023  10.995 -0.0066  0.3214  0.1256
 5176DDP     C131051  21.569  12.545  10.891  0.1793  0.0575 -0.1302
 5176DDP     P131052  21.395  12.152  10.878 -0.2632  0.2095 -0.0791
 5176DDP     P231053  21.297  12.739  10.636  0.1336 -0.2218  0.2022
 5176DDP     C231054  21.172  13.167  10.560  0.2255  0.1539  0.0885
 5176DDP     C331055  21.115  11.823  10.657  0.2024  0.1342 -0.3405
 5176DDP     C431056  21.743  12.789  11.319 -0.0547 -0.1835 -0.1220
 5177DDP     C131057  24.601   8.943   0.965 -0.1797 -0.2765  0.0031
 5177DDP     P131058  24.535   8.689   0.631 -0.3556 -0.0459  0.1987
 5177DDP     P231059  24.636   8.684   1.352  0.0481 -0.0989  0.1088
 5177DDP     C231060  24.658   8.239   1.514 -0.0313  0.2312  0.0405
 5177DDP     C331061  24.360   8.398   0.350  0.1718  0.2301  0.2390
 5177DDP     C431062  24.699   9.381   0.962  0.2080  0.0170 -0.0116
 5178DDP     C131063  28.208   1.944   4.776  0.1622 -0.0900 -0.0990
 5178DDP     P131064  28.315   2.420   4.712  0.1234 -0.2315  0.2090
 5178DDP     P231065  28.536   1.553   4.942 -0.2734  0.2147  0.3328
 5178DDP     C231066  28.868   1.297   4.702  0.1903 -0.0045  0.1272
 5178DDP     C331067  28.315   2.678   4.298 -0.1028  0.1880  0.1007
 5178DDP     C431068  27.760   1.787   4.615 -0.2334 -0.4197 -0.0191
 5179DDP     C131069  13.185   7.742  27.715  0.1338  0.1166 -0.5579
 5179DDP     P131070  13.035   7.780  27.255 -0.0504 -0.1840  0.1117
 5179DDP     P231071  13.552   7.587  27.943 -0.3014  0.3609  0.1526
 5179DDP     C231072  13.931   7.450  27.759  0.0966  0.1502 -0.1612
 5179DDP     C331073  12.660   7.876  26.969  0.1627 -0.1177  0.0420
 5179DDP     C431074  13.049   8.029  27.991 -0.1845  0.0391  0.1598
 5180DDP     C131075   1.660   3.232  27.884  0.2754  0.3252 -0.0698
 5180DDP     P131076   2.000   3.462  27.550 -0.0877 -0.1903  0.1832
 5180DDP     P231077   1.810   2.937  28.267  0.0167 -0.0650 -0.0861
 5180DDP     C231078   1.964   2.576  28.469  0.1178  0.0672 -0.0549
 5180DDP     C331079   2.111   3.855  27.310  0.0598 -0.0107 -0.0913
 5180DDP     C431080   1.205   3.521  27.836  0.0950 -0.1439 -0.1581
 5181DDP     C131081  13.851   0.904  13.446 -0.0931 -0.2211 -0.1242
 5181DDP     P131082  14.036   1.257  13.707  0.1324  0.3147 -0.0320
 5181DDP     P231083  13.905   0.495  13.535  0.2321 -0.2790  0.0702
 5181DDP     C231084  13.961   0.500  13.949 -0.0040 -0.2177 -0.0052
 5181DDP     C331085  14.514   1.585  13.858  0.1625  0.2196  0.0847
 5181DDP     C431086  13.635   1.210  13.062 -0.1374 -0.0771 -0.0229
 5182DDP     C131087   1.005  16.548   4.116  0.2201  0.1481 -0.3065
 5182DDP     P131088   1.428  16.686   4.095  0.0923 -0.0706  0.1563
 5182DDP     P231089   0.956  16.929   4.064 -0.0682  0.0423  0.2312
 5182DDP     C231090   0.851  17.444   4.003  0.0626 -0.0261  0.2901
 5182DDP     C331091   1.863  16.818   4.293 -0.0549 -0.1577 -0.0319
 5182DDP     C431092   0.615  16.242   3.943  0.0498 -0.1233  0.0271
 5183DDP     C131093   3.480   2.380  16.040  0.1170  0.0409  0.0229
 5183DDP     P131094   3.838   2.470  15.760 -0.0663  0.1331 -0.1682
 5183DDP     P231095   3.688   2.315  16.400  0.1031 -0.1815 -0.3725
 5183DDP     C231096   3.621   2.183  16.834  0.1315 -0.0430 -0.2597
 5183DDP     C331097   4.152   2.764  15.853 -0.2163  0.1897  0.1870
 5183DDP     C431098   2.990   2.372  15.873 -0.1807 -0.2642 -0.0350
 5184DDP     C131099   6.235  14.002  15.296  0.0381 -0.1385  0.1623
 5184DDP     P131100   6.484  13.759  15.549  0.1175  0.1169 -0.0820
 5184DDP     P231101   5.977  14.019  15.647 -0.1823  0.0872 -0.1359
 5184DDP     C231102   5.812  13.980  16.044  0.0150 -0.2660 -0.1799
 5184DDP     C331103   6.519  13.338  15.673  0.1083  0.1332 -0.0550
 5184DDP     C431104   6.348  14.125  14.894  0.0535 -0.1438  0.0330
 5185DDP     C131105   0.976   9.269  27.840  0.2919 -0.0869 -0.1412
 5185DDP     P131106   0.812   9.042  27.470 -0.3826 -0.0339 -0.2151
 5185DDP     P231107   0.705   9.387  28.202 -0.1590  0.0874  0.1097
 5185DDP     C231108   0.617   9.007  28.557  0.0415 -0.0624 -0.1990
 5185DDP     C331109   0.656   8.986  26.966  0.2132  0.0561  0.0123
 5185DDP     C431110   1.273   9.495  27.475  0.1544 -0.2396  0.0914
 5186DDP     C131111  -0.038  24.448  10.316 -0.3645 -0.2366 -0.0766
 5186DDP     P131112  30.270  24.149   9.875  0.1954 -0.0215  0.1039
 5186DDP     P231113  30.220  24.911  10.316 -0.1014 -0.0497 -0.1432
 5186DDP     C231114  29.828  25.124  10.366 -0.0731 -0.0904  0.0132
 5186DDP     C331115  30.325  23.868   9.499 -0.1790  0.2801  0.1410
 5186DDP     C431116  29.993  24.402  10.636 -0.0488 -0.0722 -0.0684
 5187DDP     C131117  13.141  12.429  20.007 -0.1336  0.0346  0.0270
 5187DDP     P131118  13.388  12.214  20.266  0.0406 -0.4485  0.1479
 5187DDP     P231119  13.133  12.360  19.552  0.3042  0.2161 -0.5087
 5187DDP     C231120  13.115  12.048  19.287  0.1450  0.1973 -0.0172
 5187DDP     C331121  13.568  11.958  20.467  0.0501 -0.0508  0.1323
 5187DDP     C431122  12.999  12.651  20.344 -0.1090  0.0949 -0.0967
 5188DDP     C131123  21.948  25.028  21.940 -0.0408  0.2285 -0.1777
 5188DDP     P131124  22.425  25.092  21.834 -0.0729  0.0739 -0.2260
 5188DDP     P231125  21.851  25.158  22.305  0.1424  0.0355 -0.3258
 5188DDP     C231126  21.521  25.429  22.379  0.0927  0.0470  0.1536
 5188DDP     C331127  22.802  24.936  21.486  0.0585  0.1851 -0.1355
 5188DDP     C431128  21.668  24.909  21.597  0.1227 -0.1799  0.1549
 5189DDP     C131129  24.080  16.378  30.276 -0.2010  0.2064 -0.1544
 5189DDP     P131130  23.639  16.272  30.064 -0.5139  0.3826 -0.0998
 5189DDP     P231131  24.125  16.431   0.398 -0.3997  0.0590 -0.2383
 5189DDP     C231132  24.133  16.754   0.610 -0.1568 -0.0894 -0.1343
 5189DDP     C331133  23.356  16.398  29.883  0.0764 -0.1761 -0.0085
 5189DDP     C431134  24.462  16.281  30.008  0.2569 -0.1732 -0.2522
 5190DDP     C131135  25.838  29.265   9.904  0.1402 -0.1968  0.0225
 5190DDP     P131136  26.068  29.018  10.026  0.0997 -0.0292 -0.1856
 5190DDP     P231137  26.012  29.567   9.745 -0.0004 -0.3444  0.1059
 5190DDP     C231138  26.151  29.989   9.683 -0.1500  0.1320 -0.0265
 5190DDP     C331139  26.446  28.812   9.936 -0.2730 -0.0850 -0.2067
 5190DDP     C431140  25.432  29.181   9.900  0.2315  0.0530 -0.0094
 5191DDP     C131141  15.601  14.000  29.101 -0.0482 -0.1777 -0.1843
 5191DDP     P131142  15.171  13.799  29.429 -0.1085 -0.3805  0.0722
 5191DDP     P231143  15.553  14.364  28.970 -0.3120 -0.0837  0.2275
 5191DDP     C231144  15.471  14.538  28.609 -0.2495  0.0476 -0.5184
 5191DDP     C331145  14.805  13.785  29.751 -0.2001  0.1254  0.3445
 5191DDP     C431146  16.032  14.139  29.221  0.0142 -0.0962 -0.2122
 5192DDP     C131147   6.913   1.186   2.651  0.1265 -0.1992 -0.1452
 5192DDP     P131148   7.284   1.255   2.593  0.0492 -0.0576  0.1639
 5192DDP     P231149   6.803   0.905   2.276  0.2014 -0.0001  0.0794
 5192DDP     C231150   6.857   0.559   1.984 -0.2563  0.2761 -0.0129
 5192DDP     C331151   7.635   1.249   2.816 -0.0933 -0.1022  0.2686
 5192DDP     C431152   6.526   1.377   2.901  0.0688 -0.1811  0.1752
 5193DDP     C131153  14.765   8.162  14.015 -0.3106 -0.0598  0.1207
 5193DDP     P131154  15.254   8.178  14.000 -0.1310  0.2083  0.0179
 5193DDP     P231155  14.682   7.995  14.469 -0.2907 -0.0034  0.1523
 5193DDP     C231156  14.559   8.197  14.835 -0.3545 -0.1250 -0.0600
 5193DDP     C331157  15.564   8.010  14.224 -0.0693 -0.1879 -0.0651
 5193DDP     C431158  14.509   8.204  13.628 -0.0105  0.3468 -0.0473
 5194DDP     C131159  24.611  16.918  22.728  0.2427 -0.0840 -0.0606
 5194DDP     P131160  24.279  16.633  22.697 -0.2345 -0.2879 -0.1207
 5194DDP     P231161  24.871  17.228  23.047 -0.3957 -0.2629  0.2271
 5194DDP     C231162  25.346  17.244  23.087  0.2382  0.0364  0.1468
 5194DDP     C331163  23.956  16.455  22.634  0.1963 -0.2874  0.1620
 5194DDP     C431164  24.825  16.721  22.455 -0.0714  0.0975 -0.0412
 5195DDP     C131165  26.877  29.022   1.582 -0.3943  0.0103  0.0919
 5195DDP     P131166  26.725  29.323   1.904 -0.1110 -0.0717  0.0161
 5195DDP     P231167  27.265  29.182   1.338 -0.0270 -0.1441 -0.0405
 5195DDP     C231168  27.606  29.385   1.490  0.2156  0.1321 -0.1010
 5195DDP     C331169  26.683  29.773   1.811  0.2260  0.2115 -0.0085
 5195DDP     C431170  26.691  28.604   1.422  0.2801  0.0496  0.0583
 5196DDP     C131171  13.654  29.045   4.760 -0.0174  0.2582  0.3066
 5196DDP     P131172  13.429  29.498   4.699  0.0923  0.2761 -0.0009
 5196DDP     P231173  13.301  28.730   4.920  0.1132  0.0583  0.2663
 5196DDP     C231174  13.260  28.261   4.866  0.3936 -0.0207 -0.1503
 5196DDP     C331175  13.084  29.653   4.490  0.1424 -0.2908 -0.2530
 5196DDP     C431176  14.029  28.847   4.537  0.0137  0.1596 -0.3644
 5197DDP     C131177  27.927  30.350  13.283  0.3887  0.2663  0.1805
 5197DDP     P131178  27.795   0.465  13.083  0.3507  0.0194 -0.1464
 5197DDP     P231179  27.519  30.152  13.374  0.2748  0.3572 -0.0891
 5197DDP     C231180  27.135  30.272  13.594 -0.2451  0.1244  0.2598
 5197DDP     C331181  28.033   0.771  12.850  0.0161  0.2700  0.1638
 5197DDP     C431182  28.255  30.174  13.558  0.0160  0.0026  0.4247
 5198DDP     C131183  14.615  14.635   1.720 -0.0286  0.0841 -0.0744
 5198DDP     P131184  15.025  14.396   1.732  0.0868 -0.1219 -0.0286
 5198DDP     P231185  14.622  14.979   2.063 -0.2087  0.1887  0.0572
 5198DDP     C231186  14.317  15.215   2.252 -0.3347  0.2354  0.0518
 5198DDP     C331187  15.176  13.901   1.696  0.3250  0.0527 -0.3054
 5198DDP     C431188  14.217  14.487   1.597 -0.0855 -0.2990  0.5125
 5199DDP     C131189   8.953  15.395  11.073  0.0039 -0.0729  0.1449
 5199DDP     P131190   9.190  15.159  11.433 -0.0171  0.0018  0.0323
 5199DDP     P231191   8.932  15.052  10.732 -0.0716 -0.1970  0.1390
 5199DDP     C231192   8.938  14.720  10.446 -0.4310  0.2530 -0.3305
 5199DDP     C331193   9.567  14.922  11.460  0.0463  0.0943  0.0017
 5199DDP     C431194   8.774  15.777  11.172  0.1060 -0.0961 -0.1341
 5200DDP     C131195  22.106  20.469  17.467  0.0327 -0.2079 -0.1292
 5200DDP     P131196  22.025  20.645  17.873 -0.1017 -0.2598 -0.0301
 5200DDP     P231197  21.774  20.654  17.211 -0.2285  0.0592 -0.0790
 5200DDP     C231198  21.708  21.005  16.962  0.0353 -0.0699 -0.0364
 5200DDP     C331199  22.350  20.768  18.227  0.1099  0.1358  0.2676
 5200DDP     C431200  22.382  20.559  17.214 -0.1108  0.1476  0.0934
 5201DDP     C131201  10.685  17.266  25.886 -0.0731 -0.1968 -0.0979
 5201DDP     P131202  11.011  17.215  25.557 -0.2211  0.0077 -0.1961
 5201DDP     P231203  10.543  17.636  25.965  0.0534 -0.1535  0.1465
 5201DDP     C231204  10.196  17.773  25.694 -0.2203  0.2719 -0.0826
 5201DDP     C331205  11.232  17.196  25.238  0.1165  0.0591  0.0590
 5201DDP     C431206  10.405  16.919  25.828 -0.2203  0.2049 -0.1051
 5202DDP     C131207  30.022   0.510  25.867  0.1193  0.1265 -0.0524
 5202DDP     P131208  30.231   0.616  25.514 -0.1026 -0.2597 -0.3557
 5202DDP     P231209  30.070   0.538  26.290  0.3201 -0.1154  0.0574
 5202DDP     C231210  30.164   0.663  26.685 -0.3201  0.1128  0.1303
 5202DDP     C331211   0.070   0.286  25.265  0.0408  0.0654  0.2141
 5202DDP     C431212  29.835   0.191  25.706 -0.2077 -0.0934  0.0714
 5203DDP     C131213  26.342  12.834  26.093 -0.1253 -0.3701 -0.1110
 5203DDP     P131214  26.280  12.752  26.516  0.0138 -0.0542 -0.4457
 5203DDP     P231215  26.577  13.172  25.979 -0.0059 -0.0147  0.3887
 5203DDP     C231216  26.628  13.515  25.773  0.1333  0.2103  0.2296
 5203DDP     C331217  26.110  12.712  26.992 -0.1062  0.2915  0.2046
 5203DDP     C431218  26.312  12.639  25.689 -0.0480 -0.0828 -0.2232
 5204DDP     C131219  14.038   2.068  14.611  0.0301 -0.0055  0.0949
 5204DDP     P131220  14.046   1.579  14.626 -0.0067  0.2796  0.0826
 5204DDP     P231221  14.157   2.333  14.982 -0.1213  0.0534 -0.4076
 5204DDP     C231222  14.360   2.596  15.347  0.2066  0.2443 -0.2429
 5204DDP     C331223  14.064   1.346  14.960  0.2833 -0.0611 -0.1767
 5204DDP     C431224  14.020   2.198  14.217 -0.1689  0.1688 -0.2305
 5205DDP     C131225  14.138  25.618  30.317  0.0921  0.3365  0.0670
 5205DDP     P131226  14.429  25.548  30.054 -0.0623 -0.0601 -0.0720
 5205DDP     P231227  14.294  25.776   0.333 -0.2342 -0.2802 -0.1131
 5205DDP     C231228  14.606  26.159   0.406  0.1530  0.2700  0.1630
 5205DDP     C331229  14.674  25.365  29.709  0.1122  0.3332 -0.0954
 5205DDP     C431230  13.734  25.418  30.189 -0.3971 -0.1431  0.0136
 5206DDP     C131231  16.008  10.894  12.249  0.1682  0.1410 -0.1533
 5206DDP     P131232  15.652  11.004  12.007 -0.0864 -0.1595 -0.1240
 5206DDP     P231233  16.163  10.805  11.817 -0.1113 -0.0706 -0.1188
 5206DDP     C231234  16.577  10.966  11.660  0.0160 -0.3592  0.0127
 5206DDP     C331235  15.288  10.916  12.119  0.2202  0.2131  0.0313
 5206DDP     C431236  16.203  11.150  12.655 -0.1151  0.1314  0.1961
 5207DDP     C131237  17.130  16.234  18.071  0.0949  0.0400  0.1185
 5207DDP     P131238  17.392  16.107  18.512  0.2287 -0.1431 -0.2460
 5207DDP     P231239  17.228  16.623  17.804  0.1107 -0.1250  0.1024
 5207DDP     C231240  17.072  16.811  17.466  0.0251  0.0400  0.0994
 5207DDP     C331241  17.587  16.244  18.891 -0.1211  0.1727  0.1527
 5207DDP     C431242  16.688  16.076  17.940 -0.0889 -0.0765  0.0565
 5208DDP     C131243  26.434  18.609  16.289 -0.1630 -0.1119  0.1790
 5208DDP     P131244  26.826  18.506  16.513  0.1228  0.2430  0.1326
 5208DDP     P231245  26.041  18.749  16.457 -0.2083 -0.0896  0.1508
 5208DDP     C231246  25.962  19.000  16.894 -0.0148 -0.0998  0.1790
 5208DDP     C331247  27.041  18.798  16.816 -0.0920  0.0494 -0.2187
 5208DDP     C431248  26.576  18.535  15.859  0.0539 -0.1070 -0.3146
 5209DDP     C131249  23.602  28.312  13.312 -0.0873 -0.2795 -0.2337
 5209DDP     P131250  23.548  27.843  13.400  0.2413 -0.0635 -0.0106
 5209DDP     P231251  23.696  28.719  13.519 -0.0508  0.1162 -0.0877
 5209DDP     C231252  23.463  29.159  13.608  0.0895  0.1453 -0.0770
 5209DDP     C331253  23.185  27.666  13.667  0.2676 -0.3875 -0.2099
 5209DDP     C431254  23.698  28.396  12.858  0.2322  0.1925 -0.0341
 5210DDP     C131255  10.817  27.092  18.011 -0.2581 -0.2475  0.0995
 5210DDP     P131256  10.459  27.380  18.067  0.0623 -0.0598 -0.0019
 5210DDP     P231257  10.929  26.916  18.386 -0.1790  0.0550 -0.1039
 5210DDP     C231258  10.738  26.943  18.888 -0.0890  0.0089  0.0401
 5210DDP     C331259  10.331  27.746  18.089 -0.0544  0.0148  0.0227
 5210DDP     C431260  11.031  26.830  17.776  0.2192 -0.0076  0.3945
 5211DDP     C131261  27.341  19.743   6.995 -0.1608  0.2145 -0.1826
 5211DDP     P131262  27.180  19.532   6.673  0.2194 -0.0429 -0.1357
 5211DDP     P231263  27.268  20.174   7.008 -0.3526  0.3413 -0.1069
 5211DDP     C231264  26.838  20.448   7.022 -0.0061  0.0177  0.2239
 5211DDP     C331265  27.030  19.572   6.292  0.0804  0.0751 -0.0036
 5211DDP     C431266  27.632  19.528   7.334 -0.1464  0.2477 -0.3758
 5212DDP     C131267  20.348  15.933  28.141  0.1262 -0.2864  0.4316
 5212DDP     P131268  20.364  15.641  27.934 -0.0183 -0.1453  0.2922
 5212DDP     P231269  20.024  16.079  27.938 -0.0654 -0.1182 -0.1307
 5212DDP     C231270  19.721  16.120  27.635 -0.0688  0.1316  0.1659
 5212DDP     C331271  20.611  15.541  27.604  0.1825 -0.2409 -0.2044
 5212DDP     C431272  20.585  15.915  28.546 -0.2580 -0.0287  0.3348
 5213DDP     C131273  17.939  25.156   3.745  0.0239  0.0922 -0.0952
 5213DDP     P131274  18.442  24.910   3.592  0.0861  0.0210 -0.1544
 5213DDP     P231275  17.894  25.627   3.665 -0.1642  0.1137  0.0337
 5213DDP     C231276  18.214  25.943   3.857  0.2072 -0.1475  0.1692
 5213DDP     C331277  18.631  24.796   3.179  0.0263 -0.3150 -0.1369
 5213DDP     C431278  17.639  24.826   3.717 -0.0784 -0.1474 -0.2279
 5214DDP     C131279   1.438  10.242  26.375  0.0530  0.0937  0.2345
 5214DDP     P131280   1.125   9.892  26.536  0.0558  0.0644 -0.0604
 5214DDP     P231281   1.246  10.655  26.152  0.2679 -0.0071  0.0002
 5214DDP     C231282   1.490  10.827  25.816  0.3282 -0.0628 -0.0292
 5214DDP     C331283   0.840   9.962  26.851  0.3339  0.0267  0.2517
 5214DDP     C431284   1.886  10.162  26.437  0.2885  0.1099  0.5892
 5215DDP     C131285  11.768  18.348   4.102  0.3502  0.1351 -0.3971
 5215DDP     P131286  11.869  18.016   4.291 -0.0219  0.0705  0.0333
 5215DDP     P231287  11.654  18.325   3.672  0.1062  0.0326  0.1769
 5215DDP     C231288  11.683  18.628   3.431  0.0141  0.1482  0.0984
 5215DDP     C331289  12.239  17.973   4.556 -0.2044 -0.0747  0.2569
 5215DDP     C431290  11.670  18.737   4.367  0.0373  0.0148 -0.0611
 5216DDP     C131291  17.826  28.909  14.745 -0.0570  0.1326 -0.1688
 5216DDP     P131292  18.225  28.732  14.882 -0.3544 -0.0582  0.2796
 5216DDP     P231293  17.468  28.779  14.335  0.1227  0.4160  0.0589
 5216DDP     C231294  17.074  28.557  14.284  0.0159  0.0668  0.0001
 5216DDP     C331295  18.484  28.597  15.176 -0.0460 -0.0534  0.1586
 5216DDP     C431296  17.627  29.234  15.060 -0.0593  0.1520 -0.1034
 5217DDP     C131297  13.707   2.672  18.345 -0.0529  0.3411 -0.0177
 5217DDP     P131298  13.462   2.567  18.028 -0.0044  0.0179 -0.1935
 5217DDP     P231299  13.867   2.264  18.549  0.4390 -0.1128 -0.0442
 5217DDP     C231300  13.921   1.808  18.451  0.0846  0.0638  0.2438
 5217DDP     C331301  13.053   2.813  17.841 -0.3545 -0.2083  0.1462
 5217DDP     C431302  13.848   3.146  18.313 -0.0373  0.2018 -0.2116
 5218DDP     C131303  27.090  26.864  16.770 -0.1024 -0.0081  0.0525
 5218DDP     P131304  27.457  26.560  16.647 -0.3397  0.0247  0.4246
 5218DDP     P231305  26.977  27.097  16.473 -0.1194  0.0549  0.3286
 5218DDP     C231306  26.696  27.273  16.093  0.0756  0.1513 -0.1735
 5218DDP     C331307  27.700  26.222  16.395  0.1048  0.0137 -0.0742
 5218DDP     C431308  26.715  26.779  17.019  0.2326  0.0005 -0.1236
 5219DDP     C131309  12.894  11.164   8.818  0.0047 -0.0086 -0.0882
 5219DDP     P131310  13.269  11.015   9.032 -0.0858  0.0751  0.0472
 5219DDP     P231311  12.595  11.498   8.927  0.4507 -0.3086  0.0618
 5219DDP     C231312  12.518  11.988   8.795 -0.0331  0.0027 -0.1915
 5219DDP     C331313  13.274  10.567   9.345  0.4174  0.2748 -0.0696
 5219DDP     C431314  12.990  11.032   8.404 -0.2743 -0.0925  0.3153
 5220DDP     C131315  22.516  25.932  20.998  0.0799  0.3088 -0.4190
 5220DDP     P131316  22.598  26.144  20.698  0.2109  0.1981 -0.2343
 5220DDP     P231317  22.916  25.785  21.044  0.1981 -0.1179  0.0106
 5220DDP     C231318  23.301  25.992  20.930 -0.1120 -0.0859 -0.1836
 5220DDP     C331319  22.360  26.440  20.426  0.1520  0.2310 -0.1159
 5220DDP     C431320  22.152  25.771  21.024  0.1693 -0.1381  0.1767
 5221DDP     C131321  10.712  14.716  17.293 -0.3581  0.1803  0.2019
 5221DDP     P131322  10.689  14.934  17.645 -0.2138  0.3313 -0.2339
 5221DDP     P231323  10.635  14.252  17.236  0.0534 -0.0214 -0.1459
 5221DDP     C231324  10.916  13.836  17.147  0.0317 -0.0375 -0.0446
 5221DDP     C331325  10.581  14.820  18.075 -0.1707  0.2369  0.1108
 5221DDP     C431326  11.008  14.907  17.005 -0.3065  0.1724  0.0482
 5222DDP     C131327  12.267   4.441   6.916  0.1341  0.1116 -0.0979
 5222DDP     P131328  12.460   4.391   7.326 -0.2413 -0.0381  0.2402
 5222DDP     P231329  11.972   4.704   6.874  0.3254 -0.4627 -0.0699
 5222DDP     C231330  11.509   4.697   6.706 -0.0361  0.1016 -0.0351
 5222DDP     C331331  12.779   4.345   7.704 -0.1832 -0.0971 -0.4673
 5222DDP     C431332  12.498   4.277   6.560  0.0220 -0.0605  0.2265
 5223DDP     C131333  25.091  26.030  21.988 -0.3191 -0.0852  0.0117
 5223DDP     P131334  24.698  26.224  22.100 -0.0965 -0.1476  0.0865
 5223DDP     P231335  25.471  26.213  22.134 -0.1262  0.1412 -0.1141
 5223DDP     C231336  25.807  26.492  22.411 -0.0045 -0.1899 -0.1079
 5223DDP     C331337  24.486  26.579  22.339  0.1424  0.0193  0.1260
 5223DDP     C431338  25.149  25.911  21.639 -0.1088  0.2030  0.3256
 5224DDP     C131339  19.736  23.681  19.714  0.1881  0.0609 -0.2768
 5224DDP     P131340  19.342  23.691  19.842  0.0180 -0.0718  0.1264
 5224DDP     P231341  20.006  23.976  19.454  0.1783 -0.0040 -0.0293
 5224DDP     C231342  20.170  24.217  19.182 -0.1495  0.0542  0.0009
 5224DDP     C331343  18.950  23.571  19.950  0.1315 -0.1822  0.2211
 5224DDP     C431344  20.026  23.577  20.017  0.2918  0.0577 -0.0519
 5225DDP     C131345  11.879   6.207  20.087  0.2982 -0.1595 -0.0233
 5225DDP     P131346  11.488   6.353  20.250  0.0913 -0.0033  0.0906
 5225DDP     P231347  12.087   6.326  19.752  0.2389  0.0402  0.0491
 5225DDP     C231348  12.419   6.108  19.422  0.1583  0.0006  0.1418
 5225DDP     C331349  11.000   6.135  20.313 -0.2791  0.0421 -0.0415
 5225DDP     C431350  12.130   6.277  20.398 -0.1277  0.5909  0.4898
 5226DDP     C131351  17.535   5.087  17.379 -0.1733 -0.0484 -0.1269
 5226DDP     P131352  17.600   4.985  16.974  0.0753 -0.1691  0.0660
 5226DDP     P231353  17.764   4.826  17.452  0.0370  0.0836  0.1678
 5226DDP     C231354  18.160   4.839  17.531 -0.1918  0.5793 -0.1757
 5226DDP     C331355  17.559   4.814  16.626  0.1160 -0.1961 -0.0760
 5226DDP     C431356  17.364   5.427  17.473 -0.3859  0.1805  0.1611
 5227DDP     C131357  21.803  30.207  15.056 -0.1372  0.2057 -0.1643
 5227DDP     P131358  22.016   0.324  15.006 -0.1280 -0.0436  0.2330
 5227DDP     P231359  21.467  30.173  14.804  0.1636  0.0611 -0.0667
 5227DDP     C231360  21.306   0.024  14.432  0.1497 -0.0996  0.3803
 5227DDP     C331361  22.175   0.500  15.325 -0.0189  0.2802  0.0886
 5227DDP     C431362  21.909  29.878  15.254 -0.2333 -0.0845  0.0338
 5228DDP     C131363  12.284  26.608  23.671  0.0527  0.2804  0.1572
 5228DDP     P131364  12.431  26.991  23.572  0.3621  0.1290 -0.3739
 5228DDP     P231365  12.082  26.604  24.038 -0.1172  0.0919 -0.1081
 5228DDP     C231366  11.830  26.199  24.230  0.0949  0.2709 -0.1590
 5228DDP     C331367  12.827  26.959  23.307  0.1407  0.2190  0.1269
 5228DDP     C431368  12.175  26.287  23.286  0.1830  0.0553 -0.1435
 5229DDP     C131369  11.857  28.994  21.699 -0.0547  0.0679 -0.3815
 5229DDP     P131370  11.622  29.150  22.080 -0.2845  0.1864  0.0225
 5229DDP     P231371  11.591  29.078  21.310 -0.1938 -0.2023 -0.1484
 5229DDP     C231372  11.593  29.486  21.002 -0.4059  0.0660  0.4397
 5229DDP     C331373  11.263  29.180  22.222  0.1620 -0.0508 -0.1666
 5229DDP     C431374  12.097  28.623  21.733 -0.0639 -0.0318 -0.0747
 5230DDP     C131375   3.263   0.823  30.323  0.3052  0.0275  0.0879
 5230DDP     P131376   3.597   1.020  30.109  0.1268 -0.0984 -0.0381
 5230DDP     P231377   3.063   0.958   0.169 -0.1495  0.0130  0.3086
 5230DDP     C231378   3.023   1.400   0.258  0.3560  0.2019 -0.2085
 5230DDP     C331379   4.063   0.904  29.974 -0.0470 -0.2937 -0.2308
 5230DDP     C431380   3.188   0.465   0.176 -0.0448 -0.0027  0.0225
 5231DDP     C131381   1.651  23.079  11.680  0.2211 -0.2595  0.2629
 5231DDP     P131382   1.234  22.941  11.884 -0.0083 -0.0199  0.0964
 5231DDP     P231383   1.979  23.286  11.869 -0.2616  0.1194 -0.0487
 5231DDP     C231384   2.040  23.589  12.140 -0.0722  0.0479  0.2581
 5231DDP     C331385   0.954  22.785  12.132  0.1933  0.0632 -0.1470
 5231DDP     C431386   1.664  23.057  11.211  0.1890 -0.1826  0.1236
 5232DDP     C131387  10.114  26.789  21.758 -0.0022  0.0290 -0.1080
 5232DDP     P131388   9.816  26.897  21.429  0.0177 -0.2202  0.1113
 5232DDP     P231389  10.297  26.992  22.130  0.1351 -0.1743 -0.1353
 5232DDP     C231390  10.090  26.694  22.455  0.0020  0.0275  0.0812
 5232DDP     C331391   9.436  26.787  21.217  0.3718 -0.0600 -0.0852
 5232DDP     C431392  10.356  26.503  21.636  0.1373  0.3488  0.0770
 5233DDP     C131393  25.798  27.717  17.316  0.2972 -0.3161 -0.1877
 5233DDP     P131394  26.129  27.448  17.384 -0.0369  0.1826  0.2255
 5233DDP     P231395  25.944  28.228  17.305 -0.0111  0.2130 -0.1124
 5233DDP     C231396  25.904  28.587  17.254 -0.3853  0.3186  0.2157
 5233DDP     C331397  26.081  27.062  17.584  0.0660  0.2446 -0.0347
 5233DDP     C431398  25.469  27.575  17.185 -0.0527  0.2477  0.0312
 5234DDP     C131399  17.036   5.076  12.038 -0.1005 -0.4792 -0.0958
 5234DDP     P131400  17.371   5.221  12.207 -0.1374  0.1113 -0.1156
 5234DDP     P231401  16.666   5.165  12.191  0.0947 -0.1504 -0.1266
 5234DDP     C231402  16.384   4.908  12.476 -0.2428 -0.0683  0.2264
 5234DDP     C331403  17.792   5.466  12.226  0.1321 -0.0843  0.0310
 5234DDP     C431404  17.018   4.843  11.687 -0.1444  0.0440 -0.1884
 5235DDP     C131405   6.791  26.596  25.470  0.1893 -0.1174  0.0822
 5235DDP     P131406   7.283  26.635  25.682  0.1150 -0.1338  0.1628
 5235DDP     P231407   6.608  26.975  25.519  0.2311  0.0361  0.0478
 5235DDP     C231408   6.539  27.339  25.268  0.1090  0.2670  0.0230
 5235DDP     C331409   7.445  27.034  25.807  0.1682  0.1718 -0.1120
 5235DDP     C431410   6.628  26.246  25.519  0.0419 -0.1350 -0.1819
 5236DDP     C131411  21.590   3.736   8.009 -0.0017  0.2155  0.3219
 5236DDP     P131412  21.574   3.502   8.411 -0.3713 -0.1600 -0.1684
 5236DDP     P231413  21.326   4.049   7.855  0.1165 -0.0970 -0.0907
 5236DDP     C231414  21.319   4.286   7.392  0.3211 -0.0810 -0.2732
 5236DDP     C331415  21.838   3.145   8.477  0.1207  0.2073  0.1841
 5236DDP     C431416  21.906   3.635   7.642 -0.2032 -0.0532 -0.0129
 5237DDP     C131417   6.150   2.149  11.467  0.2086  0.5232 -0.1095
 5237DDP     P131418   6.480   2.194  11.662  0.0628  0.1021 -0.2299
 5237DDP     P231419   5.891   1.884  11.346  0.0772 -0.0707 -0.1052
 5237DDP     C231420   5.706   1.451  11.394 -0.0473  0.1577 -0.1536
 5237DDP     C331421   6.780   1.967  12.038 -0.1953 -0.2253  0.3715
 5237DDP     C431422   5.809   2.443  11.512 -0.0853 -0.1429  0.0380
 5238DDP     C131423   2.755   5.828  13.180  0.0194  0.1934 -0.1752
 5238DDP     P131424   2.767   6.271  13.310  0.0013  0.2295  0.1384
 5238DDP     P231425   2.587   5.801  13.518  0.1977  0.1597 -0.2861
 5238DDP     C231426   2.256   6.145  13.471 -0.2848  0.0684  0.1237
 5238DDP     C331427   2.403   6.640  13.080 -0.0009 -0.1244 -0.0790
 5238DDP     C431428   3.000   5.608  12.893  0.0423 -0.0553 -0.2083
 5239DDP     C131429  10.060   8.368   5.632  0.1533  0.0949  0.1250
 5239DDP     P131430  10.395   8.603   5.834  0.0494 -0.0171  0.0202
 5239DDP     P231431   9.588   8.482   5.840  0.0645 -0.7311 -0.1263
 5239DDP     C231432   9.452   8.725   5.481  0.2251 -0.0618  0.2677
 5239DDP     C331433  10.686   8.715   5.694 -0.2376 -0.0671  0.1487
 5239DDP     C431434  10.082   8.290   5.152  0.2036 -0.4212  0.1898
 5240DDP     C131435   0.444   2.135  24.952  0.2269  0.0387 -0.0217
 5240DDP     P131436   0.565   2.605  24.844  0.2254  0.1677 -0.3061
 5240DDP     P231437   0.808   1.794  24.815  0.0797 -0.1200 -0.1481
 5240DDP     C231438   1.100   1.537  24.882 -0.0669 -0.1773  0.2147
 5240DDP     C331439   0.476   2.850  24.469 -0.0810  0.2360 -0.0091
 5240DDP     C431440   0.013   2.202  25.106 -0.0941 -0.1964 -0.0022
 5241DDP     C131441  21.351  20.893  18.947  0.0104 -0.1622  0.3181
 5241DDP     P131442  21.567  20.499  19.129  0.1380 -0.0137  0.3283
 5241DDP     P231443  21.402  21.246  19.170 -0.1432 -0.3335  0.0925
 5241DDP     C231444  21.371  21.622  19.257 -0.1162 -0.2974  0.0372
 5241DDP     C331445  21.530  20.215  19.486 -0.2007  0.0000 -0.1531
 5241DDP     C431446  20.874  20.825  18.770  0.0367 -0.1816 -0.0935
 5242DDP     C131447  22.245   5.716   6.679 -0.2526  0.2255 -0.0966
 5242DDP     P131448  22.225   5.311   6.604  0.0282 -0.0028 -0.2376
 5242DDP     P231449  22.176   5.928   7.079  0.1516 -0.3398  0.1326
 5242DDP     C231450  21.886   6.004   7.336  0.0013  0.1937  0.0057
 5242DDP     C331451  22.319   5.120   6.261 -0.1838  0.0732 -0.2232
 5242DDP     C431452  22.451   5.912   6.392  0.1893 -0.1462 -0.1999
 5243DDP     C131453  28.670  20.799   8.960  0.3712  0.0662  0.0168
 5243DDP     P131454  29.092  20.556   9.251 -0.1400 -0.0439  0.0937
 5243DDP     P231455  28.530  21.089   9.215 -0.1263 -0.1493 -0.1544
 5243DDP     C231456  28.189  21.406   9.319 -0.2500 -0.0897 -0.0536
 5243DDP     C331457  29.151  20.424   9.677 -0.1807 -0.0454 -0.1675
 5243DDP     C431458  28.351  20.623   8.614  0.2128  0.1654  0.1121
 5244DDP     C131459  25.217   0.697  15.119 -0.0836  0.0449  0.0379
 5244DDP     P131460  25.070   1.124  15.185 -0.0399 -0.0514 -0.1582
 5244DDP     P231461  25.027   0.214  15.234  0.2390  0.1922 -0.1518
 5244DDP     C231462  24.772  30.213  15.446  0.3132 -0.0446 -0.1214
 5244DDP     C331463  24.647   1.274  15.314 -0.1737  0.0962 -0.0812
 5244DDP     C431464  25.623   0.574  14.984  0.1051  0.2019  0.1584
 5245DDP     C131465  29.626   6.250  10.175 -0.0595  0.0814 -0.2023
 5245DDP     P131466  29.693   6.708  10.429  0.2513 -0.1453  0.1575
 5245DDP     P231467  29.308   6.030   9.969 -0.2207 -0.0508 -0.0566
 5245DDP     C231468  29.114   5.767   9.734  0.2723  0.2249  0.0051
 5245DDP     C331469  29.372   6.916  10.753  0.0532 -0.2189 -0.3295
 5245DDP     C431470  30.016   6.042  10.335 -0.1090 -0.1059  0.3389
 5246DDP     C131471  19.218   9.609  14.249 -0.2386 -0.1201 -0.0779
 5246DDP     P131472  19.515   9.656  13.911  0.0455 -0.0657  0.2947
 5246DDP     P231473  19.444   9.930  14.654 -0.0341 -0.0770  0.0358
 5246DDP     C231474  19.812  10.143  14.789 -0.1964  0.0819 -0.1771
 5246DDP     C331475  19.890   9.884  13.730  0.1056  0.0222  0.0804
 5246DDP     C431476  18.841   9.620  14.395 -0.1034  0.2210 -0.1460
 5247DDP     C131477  20.667  25.779  13.383 -0.0921  0.0999 -0.2175
 5247DDP     P131478  20.997  25.475  13.325 -0.0079  0.1419 -0.0465
 5247DDP     P231479  20.422  25.893  13.879  0.2103  0.3862 -0.0773
 5247DDP     C231480  20.051  26.039  14.072 -0.0321 -0.1772 -0.0130
 5247DDP     C331481  21.295  25.087  13.293 -0.4338  0.3328 -0.2442
 5247DDP     C431482  20.577  26.027  13.008 -0.4466  0.0459  0.2941
 5248DDP     C131483  24.819   7.282  22.098 -0.0354 -0.0852  0.0978
 5248DDP     P131484  25.051   7.419  21.855 -0.2725  0.0097  0.3456
 5248DDP     P231485  24.350   7.177  21.952  0.0014  0.0964  0.5086
 5248DDP     C231486  24.269   6.852  21.565  0.3134 -0.1294  0.0108
 5248DDP     C331487  25.473   7.211  21.821 -0.1818  0.0593 -0.2227
 5248DDP     C431488  24.978   7.025  22.470 -0.0666 -0.1594  0.1126
 5249DDP     C131489  21.613  13.386  19.014  0.2253  0.2698 -0.1457
 5249DDP     P131490  21.859  13.054  19.143  0.1996 -0.1760 -0.0693
 5249DDP     P231491  21.473  13.413  18.604 -0.2011 -0.0589  0.0122
 5249DDP     C231492  21.470  13.044  18.375  0.1359  0.2003 -0.1594
 5249DDP     C331493  22.008  12.973  19.499  0.1036  0.1300 -0.4543
 5249DDP     C431494  21.558  13.749  19.286 -0.1078  0.1351  0.1425
 5250DDP     C131495  10.609  21.736  28.049 -0.0623  0.3200 -0.0735
 5250DDP     P131496  10.846  22.077  28.424 -0.1640 -0.0363  0.0189
 5250DDP     P231497  10.435  21.951  27.624  0.0937  0.1602  0.1177
 5250DDP     C231498  10.545  22.238  27.279  0.0412 -0.2692  0.1299
 5250DDP     C331499  10.932  22.423  28.682  0.1523 -0.0460  0.0380
 5250DDP     C431500  10.231  21.374  28.127 -0.0268  0.0674 -0.1532
 5251DDP     C131501  14.459  21.103   9.721 -0.2180  0.0173  0.1986
 5251DDP     P131502  14.777  21.352   9.443 -0.2229  0.1904 -0.0306
 5251DDP     P231503  14.119  21.355   9.892  0.0896 -0.1237 -0.3719
 5251DDP     C231504  13.821  21.637   9.662  0.2036 -0.2719  0.3976
 5251DDP     C331505  15.101  21.493   9.072 -0.1975 -0.0885 -0.0671
 5251DDP     C431506  14.463  20.656   9.657 -0.0452 -0.0685  0.0090
 5252DDP     C131507  12.213   1.200  28.046 -0.0042 -0.0622  0.1229
 5252DDP     P131508  12.143   0.836  28.263 -0.1643  0.0117  0.1384
 5252DDP     P231509  12.567   1.367  27.694 -0.0130 -0.1601  0.2339
 5252DDP     C231510  12.926   1.684  27.570 -0.3204 -0.0487  0.0015
 5252DDP     C331511  12.148   0.426  28.432  0.0592 -0.0724 -0.3479
 5252DDP     C431512  11.855   1.506  28.205  0.2634 -0.0324  0.0282
 5253DDP     C131513  26.934  17.993   1.096  0.3370 -0.2853  0.1348
 5253DDP     P131514  27.113  18.179   0.715 -0.0120  0.1278 -0.3079
 5253DDP     P231515  26.975  18.165   1.599 -0.2603  0.0986  0.2808
 5253DDP     C231516  26.979  18.485   1.854  0.0291 -0.0884  0.2170
 5253DDP     C331517  27.469  18.243   0.385  0.0344  0.1698 -0.5473
 5253DDP     C431518  26.794  17.539   1.014 -0.1571  0.1383 -0.0061
 5254DDP     C131519  19.245  22.444  27.740 -0.0259 -0.2672 -0.0445
 5254DDP     P131520  18.930  22.622  27.867  0.1401 -0.1674 -0.0584
 5254DDP     P231521  19.678  22.539  27.839  0.0427 -0.0047  0.1815
 5254DDP     C231522  20.135  22.706  28.031 -0.0258 -0.2920  0.2993
 5254DDP     C331523  18.547  22.901  27.608  0.0099 -0.0043  0.0553
 5254DDP     C431524  19.146  22.194  27.487  0.0987 -0.2734  0.2794
 5255DDP     C131525  22.693  21.018  21.805 -0.1000 -0.3477  0.2349
 5255DDP     P131526  22.758  20.747  22.217 -0.3411 -0.1257  0.0701
 5255DDP     P231527  22.529  20.834  21.476 -0.0036 -0.1685 -0.2910
 5255DDP     C231528  22.446  20.696  21.112 -0.0908 -0.2336  0.1172
 5255DDP     C331529  23.062  20.382  22.295  0.0839  0.0438 -0.0376
 5255DDP     C431530  22.573  21.481  21.798 -0.2141 -0.0564 -0.0833
 5256DDP     C131531   6.266   0.026  24.661  0.0141 -0.0464 -0.0843
 5256DDP     P131532   5.973   0.495  24.709 -0.0505  0.0741 -0.1797
 5256DDP     P231533   6.172  29.977  24.368 -0.1039 -0.0021  0.1826
 5256DDP     C231534   5.731  29.798  24.388 -0.0009 -0.0661 -0.0806
 5256DDP     C331535   5.962   0.976  24.716 -0.0732 -0.2330  0.2085
 5256DDP     C431536   6.662   0.030  24.851 -0.0237  0.0169  0.2184
 5257DDP     C131537  29.055  26.963  12.311 -0.1927 -0.1027 -0.0401
 5257DDP     P131538  29.507  26.784  12.336  0.0455 -0.0328  0.2687
 5257DDP     P231539  28.885  26.597  12.096  0.1778  0.1042  0.2409
 5257DDP     C231540  28.643  26.376  12.326  0.1763 -0.2172  0.0519
 5257DDP     C331541  29.906  26.596  12.226  0.0985  0.0130 -0.0450
 5257DDP     C431542  28.969  27.398  12.455  0.2961  0.0352  0.1083
 5258DDP     C131543  17.610   4.480  20.055  0.1666  0.5895  0.1404
 5258DDP     P131544  17.602   4.060  20.232 -0.1873  0.2643  0.1690
 5258DDP     P231545  17.529   4.453  19.586  0.0705 -0.0246  0.1601
 5258DDP     C231546  17.212   4.759  19.367 -0.1913  0.0719 -0.0544
 5258DDP     C331547  17.468   3.695  20.070 -0.1864  0.0221  0.0591
 5258DDP     C431548  17.959   4.698  20.192  0.2214  0.0570 -0.1289
 5259DDP     C131549  28.095   5.644  15.849  0.3789  0.4360 -0.0899
 5259DDP     P131550  28.488   5.657  15.600 -0.0889  0.1112 -0.1974
 5259DDP     P231551  27.847   5.901  15.712 -0.2681 -0.1312  0.3083
 5259DDP     C231552  27.529   6.082  15.836  0.5547  0.0529 -0.0184
 5259DDP     C331553  28.852   5.814  15.606 -0.1301 -0.1594 -0.2330
 5259DDP     C431554  28.162   5.639  16.328 -0.2533  0.0463  0.1513
 5260DDP     C131555   5.551  13.732   0.159 -0.0840  0.0121 -0.1772
 5260DDP     P131556   5.325  14.034   0.181  0.2745  0.2095  0.1250
 5260DDP     P231557   5.511  13.434  30.154 -0.0404 -0.1550  0.0320
 5260DDP     C231558   5.219  13.151  30.184 -0.2021 -0.2443 -0.0140
 5260DDP     C331559   5.048  14.257  30.263 -0.3146 -0.1376  0.1036
 5260DDP     C431560   5.654  13.594   0.568  0.1786 -0.0756 -0.0237
 5261DDP     C131561  13.839   1.646  23.080 -0.3417 -0.3291  0.4939
 5261DDP     P131562  13.906   1.414  22.741  0.1777 -0.1144 -0.2736
 5261DDP     P231563  13.515   1.950  23.056 -0.1361 -0.2340  0.2156
 5261DDP     C231564  13.263   2.313  22.991  0.0816  0.4935 -0.2956
 5261DDP     C331565  14.085   1.506  22.350 -0.0325 -0.1528  0.0491
 5261DDP     C431566  13.906   1.338  23.451  0.0445 -0.0865  0.2246
 5262DDP     C131567   7.707  29.804   7.020 -0.0911 -0.3890 -0.1372
 5262DDP     P131568   7.762  30.276   6.968 -0.0509 -0.0049  0.2724
 5262DDP     P231569   7.261  29.633   6.945  0.1050  0.2667  0.1695
 5262DDP     C231570   7.088  29.416   7.328  0.3172  0.0038  0.5051
 5262DDP     C331571   7.392   0.245   6.903 -0.1199 -0.0198  0.1010
 5262DDP     C431572   7.977  29.582   7.201 -0.3248  0.2238 -0.0734
 5263DDP     C131573  10.026  17.332  23.853  0.0388 -0.1316 -0.2030
 5263DDP     P131574  10.349  17.187  23.539 -0.2581  0.0310 -0.0093
 5263DDP     P231575   9.824  16.973  23.938  0.0994  0.1188  0.0707
 5263DDP     C231576   9.708  16.619  23.630 -0.2158  0.1240  0.1488
 5263DDP     C331577  10.740  17.183  23.284  0.4956  0.0920 -0.2495
 5263DDP     C431578   9.888  17.750  24.103  0.1524  0.2328 -0.2560
 5264DDP     C131579   8.899  29.819   0.650  0.2339 -0.0804  0.2131
 5264DDP     P131580   8.690  30.221   0.645 -0.1577 -0.2071  0.1380
 5264DDP     P231581   8.744  29.367   0.554 -0.1005  0.3218 -0.1238
 5264DDP     C231582   8.560  28.948   0.378 -0.2521  0.1174  0.1035
 5264DDP     C331583   8.951   0.221   0.794  0.1898 -0.0751  0.0837
 5264DDP     C431584   9.188  29.968   0.998 -0.0100  0.0745 -0.2016
 5265DDP     C131585   7.236  13.663  15.646  0.2888  0.1226  0.1564
 5265DDP     P131586   6.907  13.947  15.837 -0.0380  0.1660  0.0583
 5265DDP     P231587   7.720  13.753  15.741 -0.2568  0.0603  0.1788
 5265DDP     C231588   8.057  13.721  15.527  0.2107 -0.2798  0.0324
 5265DDP     C331589   6.837  14.353  16.102 -0.2707 -0.1558 -0.1270
 5265DDP     C431590   7.049  13.282  15.506  0.0260  0.1126 -0.0599
 5266DDP     C131591  26.592  10.084   1.044  0.4627 -0.2416  0.2887
 5266DDP     P131592  26.505   9.725   0.869  0.0400  0.0248 -0.1245
 5266DDP     P231593  27.004  10.076   1.109 -0.2708  0.2834  0.1726
 5266DDP     C231594  27.185  10.185   1.472 -0.0846 -0.1408 -0.2419
 5266DDP     C331595  26.049   9.491   0.924 -0.0354  0.0567  0.2639
 5266DDP     C431596  26.279  10.386   1.206  0.1682 -0.2493  0.2642
 5267DDP     C131597   7.523  28.178  29.425  0.1034 -0.0492  0.2630
 5267DDP     P131598   7.707  28.570  29.388 -0.1318 -0.2050 -0.0275
 5267DDP     P231599   7.134  28.173  29.682 -0.0108 -0.0230  0.2682
 5267DDP     C231600   6.746  28.070  29.801  0.2091 -0.0389 -0.0933
 5267DDP     C331601   7.992  28.905  29.291  0.0847  0.1011  0.0845
 5267DDP     C431602   7.596  27.725  29.200 -0.0067 -0.2116  0.1873
 5268DDP     C131603   9.801   1.581  24.947 -0.2566  0.0715  0.1682
 5268DDP     P131604   9.548   1.806  25.238  0.0502  0.0505  0.0883
 5268DDP     P231605  10.127   1.574  24.883 -0.1568  0.0382 -0.2835
 5268DDP     C231606  10.500   1.447  25.092  0.1260 -0.2400  0.3633
 5268DDP     C331607   9.412   2.179  25.379 -0.0770 -0.1532  0.2765
 5268DDP     C431608   9.479   1.351  24.760 -0.0592 -0.0345 -0.3282
 5269DDP     C131609   3.839   3.600  27.729 -0.0197  0.2396  0.1898
 5269DDP     P131610   3.482   3.473  28.128 -0.0764  0.2031 -0.2441
 5269DDP     P231611   4.060   3.265  27.618 -0.2827  0.3018  0.0556
 5269DDP     C231612   4.318   2.951  27.341 -0.0653 -0.0376  0.1225
 5269DDP     C331613   3.059   3.587  28.055 -0.2395  0.1724  0.1160
 5269DDP     C431614   3.946   4.009  27.604  0.0758 -0.1157  0.0885
 5270DDP     C131615  10.299  23.763  17.395  0.0923 -0.0016  0.0577
 5270DDP     P131616   9.909  23.608  17.655  0.1260  0.0427 -0.1361
 5270DDP     P231617  10.250  24.173  17.513  0.2694 -0.0621 -0.0508
 5270DDP     C231618  10.133  24.566  17.760  0.2964  0.0283 -0.2431
 5270DDP     C331619   9.692  23.355  17.488 -0.2301 -0.0106 -0.1019
 5270DDP     C431620  10.370  23.759  16.974  0.2755  0.3813  0.1994
 5271DDP     C131621  18.752  17.939   8.896  0.0924  0.2480  0.1391
 5271DDP     P131622  19.055  18.121   8.932  0.1744  0.1120 -0.0239
 5271DDP     P231623  18.845  17.848   8.416  0.2360  0.4748 -0.1696
 5271DDP     C231624  18.896  17.664   7.900 -0.1056 -0.1177 -0.1048
 5271DDP     C331625  19.416  18.113   9.211 -0.0889 -0.1171 -0.1092
 5271DDP     C431626  18.408  17.815   9.203  0.2581  0.2943 -0.0683
 5272DDP     C131627  22.596   3.778   4.763 -0.1479  0.0864  0.0721
 5272DDP     P131628  22.651   4.221   4.667 -0.5554  0.1324  0.0704
 5272DDP     P231629  22.785   3.467   4.447  0.4340 -0.0051 -0.2425
 5272DDP     C231630  23.026   3.109   4.335 -0.0760 -0.0426  0.2110
 5272DDP     C331631  22.999   4.428   4.749 -0.3955 -0.3252  0.0874
 5272DDP     C431632  22.389   3.532   5.219 -0.2205 -0.1420  0.2523
 5273DDP     C131633   9.897   7.808  25.037 -0.3769 -0.4113 -0.1999
 5273DDP     P131634   9.605   7.746  24.703 -0.0651 -0.0681 -0.1715
 5273DDP     P231635   9.715   8.192  25.111  0.0648  0.0909  0.2444
 5273DDP     C231636   9.744   8.510  25.393  0.3406  0.0648 -0.3910
 5273DDP     C331637   9.726   7.491  24.329 -0.0451 -0.1473 -0.0415
 5273DDP     C431638  10.353   7.695  25.068 -0.0996 -0.2168  0.0073
 5274DDP     C131639  27.625  27.285  18.006  0.3701 -0.0145 -0.0302
 5274DDP     P131640  27.824  26.930  18.267  0.3372 -0.0775  0.1063
 5274DDP     P231641  27.889  27.381  17.663 -0.4065 -0.0776 -0.0449
 5274DDP     C231642  27.784  27.219  17.211  0.0538 -0.0142 -0.0318
 5274DDP     C331643  27.948  26.570  18.414 -0.1844  0.1247 -0.0629
 5274DDP     C431644  27.211  27.439  18.020  0.0049  0.0131  0.0335
 5275DDP     C131645   6.588   1.511  20.197 -0.1511 -0.1919  0.0151
 5275DDP     P131646   6.644   1.110  20.181 -0.1428  0.2753 -0.1148
 5275DDP     P231647   6.972   1.775  20.121 -0.0209  0.0255  0.3698
 5275DDP     C231648   7.187   2.200  19.899 -0.2444 -0.0949 -0.3228
 5275DDP     C331649   6.786   0.678  20.264 -0.3450  0.2891 -0.1019
 5275DDP     C431650   6.194   1.562  20.390 -0.0818  0.2373 -0.3199
 5276DDP     C131651  15.768  13.850  13.457  0.0221  0.0401 -0.1980
 5276DDP     P131652  15.430  13.979  13.887  0.0064 -0.2085 -0.0782
 5276DDP     P231653  15.570  13.811  13.123  0.2347 -0.0576  0.0518
 5276DDP     C231654  15.498  13.919  12.717 -0.0804  0.2242  0.0960
 5276DDP     C331655  15.199  13.687  13.973 -0.1771 -0.3456 -0.0828
 5276DDP     C431656  16.206  13.705  13.405 -0.0795  0.1370 -0.0520
 5277DDP     C131657   7.165   1.833  28.428  0.0925  0.0038 -0.0211
 5277DDP     P131658   6.786   1.994  28.650 -0.2217 -0.1170 -0.1247
 5277DDP     P231659   7.495   1.946  28.411 -0.0265  0.1880 -0.1773
 5277DDP     C231660   7.921   1.672  28.339 -0.2371 -0.0473  0.0074
 5277DDP     C331661   6.481   2.383  28.785  0.3287  0.2153  0.2820
 5277DDP     C431662   7.036   1.452  28.582  0.0775 -0.0577 -0.3985
 5278DDP     C131663  21.632  14.430   6.711  0.1845 -0.2066  0.0261
 5278DDP     P131664  21.794  14.750   6.513 -0.2063  0.1531  0.1470
 5278DDP     P231665  22.029  14.421   6.852 -0.0037 -0.2676  0.4114
 5278DDP     C231666  22.384  14.552   6.762 -0.1086  0.1822  0.3942
 5278DDP     C331667  21.765  15.152   6.544 -0.2292  0.2571 -0.1500
 5278DDP     C431668  21.267  14.249   6.633 -0.1940  0.2818 -0.2644
 5279DDP     C131669  16.518  19.117  27.671  0.0953  0.0534 -0.1093
 5279DDP     P131670  16.623  18.623  27.633 -0.0525  0.0861  0.2247
 5279DDP     P231671  16.557  19.274  28.182  0.1207  0.1678 -0.0804
 5279DDP     C231672  16.780  19.514  28.536 -0.3917 -0.1220  0.2510
 5279DDP     C331673  16.615  18.182  27.493 -0.3339 -0.1520  0.0656
 5279DDP     C431674  16.758  19.412  27.350  0.0099 -0.0142  0.1919
 5280DDP     C131675   4.732   4.927  24.514 -0.3507 -0.0312  0.0994
 5280DDP     P131676   4.341   4.816  24.324 -0.0890 -0.0812  0.1090
 5280DDP     P231677   4.801   5.403  24.506 -0.0514  0.2988  0.0075
 5280DDP     C231678   4.747   5.814  24.367  0.5046 -0.1563  0.3734
 5280DDP     C331679   3.896   4.801  24.061 -0.0722 -0.0173  0.0024
 5280DDP     C431680   4.734   4.958  24.990  0.2716  0.0585 -0.1589
 5281DDP     C131681   7.242  16.100  15.863  0.2147  0.1612  0.2065
 5281DDP     P131682   7.125  16.054  15.488 -0.1421  0.1096  0.0733
 5281DDP     P231683   7.318  16.460  16.117  0.2548  0.0051  0.5037
 5281DDP     C231684   7.355  16.890  16.300 -0.0292  0.2060  0.0275
 5281DDP     C331685   6.989  15.593  15.318  0.1737  0.1337 -0.2321
 5281DDP     C431686   7.336  15.733  16.085  0.0831  0.1322  0.1950
 5282DDP     C131687  15.192  28.692  27.940 -0.1458 -0.1544 -0.0600
 5282DDP     P131688  15.429  29.007  27.775  0.2908  0.1555 -0.2200
 5282DDP     P231689  15.137  28.609  28.421 -0.0995 -0.1335 -0.1511
 5282DDP     C231690  15.192  28.529  28.815 -0.0769 -0.2079  0.0551
 5282DDP     C331691  15.604  29.358  27.521  0.0998 -0.3030  0.1430
 5282DDP     C431692  14.965  28.354  27.651  0.3394  0.0281 -0.0649
 5283DDP     C131693  26.190   5.075  19.606 -0.3894  0.3444  0.1430
 5283DDP     P131694  25.739   4.985  19.493 -0.0678  0.0036  0.1112
 5283DDP     P231695  26.213   5.219  19.304 -0.2109  0.2866  0.1172
 5283DDP     C231696  26.011   5.168  18.960 -0.1176 -0.1460 -0.1004
 5283DDP     C331697  25.295   5.115  19.830 -0.0863  0.2259 -0.1424
 5283DDP     C431698  26.548   5.065  19.877 -0.0636  0.1191 -0.2132
 5284DDP     C131699  11.605  14.417   2.699 -0.0173  0.0473  0.1839
 5284DDP     P131700  11.955  14.737   2.827 -0.0094  0.1007 -0.1178
 5284DDP     P231701  11.418  14.102   2.988 -0.0571 -0.3948  0.2705
 5284DDP     C231702  11.603  13.829   3.238  0.0664  0.3935 -0.2935
 5284DDP     C331703  12.278  14.929   2.944  0.0599 -0.0305 -0.0653
 5284DDP     C431704  11.608  14.326   2.304 -0.1985 -0.0222 -0.4085
 5285DDP     C131705  15.112   5.084  12.747  0.2638  0.1792  0.2587
 5285DDP     P131706  15.326   4.812  13.033  0.2023  0.1688  0.3606
 5285DDP     P231707  14.870   4.900  12.492 -0.1304  0.1340  0.0403
 5285DDP     C231708  14.592   4.563  12.467 -0.1439 -0.1348 -0.0290
 5285DDP     C331709  15.376   4.653  13.477 -0.1049 -0.2481  0.3195
 5285DDP     C431710  15.327   5.358  12.770  0.1560  0.1306 -0.1160
 5286DDP     C131711  25.807  14.500   5.220 -0.1001 -0.2880 -0.0114
 5286DDP     P131712  25.835  14.484   4.786 -0.0447 -0.0414 -0.0829
 5286DDP     P231713  25.968  14.511   5.565  0.1175 -0.1446 -0.2175
 5286DDP     C231714  25.974  14.525   6.052 -0.3596  0.1097 -0.1511
 5286DDP     C331715  25.838  14.793   4.377  0.0073 -0.1785 -0.1710
 5286DDP     C431716  25.444  14.492   5.467  0.1927  0.1393  0.2685
 5287DDP     C131717  11.975  20.801   2.666 -0.3030  0.1562 -0.0616
 5287DDP     P131718  12.275  20.740   2.957  0.3229  0.1290 -0.0169
 5287DDP     P231719  12.044  21.129   2.395  0.1857  0.0142  0.0631
 5287DDP     C231720  11.843  21.550   2.444 -0.0386 -0.0592  0.1391
 5287DDP     C331721  12.570  20.923   2.912  0.0117  0.0353  0.0491
 5287DDP     C431722  11.695  20.459   2.714 -0.1299  0.0401  0.0965
 5288DDP     C131723   9.194  23.298  28.602  0.1907 -0.0068 -0.2200
 5288DDP     P131724   9.028  22.982  28.304  0.1082 -0.1386 -0.0746
 5288DDP     P231725   9.372  23.119  29.050 -0.0250  0.0384 -0.1338
 5288DDP     C231726   9.401  23.242  29.469  0.5832  0.1540  0.0747
 5288DDP     C331727   8.855  22.593  28.222  0.2666  0.1294 -0.2087
 5288DDP     C431728   9.443  23.773  28.472  0.1273 -0.0479 -0.1827
 5289DDP     C131729  11.925   5.245   7.454  0.4908  0.0647  0.1566
 5289DDP     P131730  11.806   4.805   7.403 -0.0422  0.2469  0.1521
 5289DDP     P231731  11.681   5.472   7.566 -0.1892  0.2527 -0.0271
 5289DDP     C231732  11.318   5.379   7.914 -0.1294 -0.1069  0.0685
 5289DDP     C331733  11.771   4.329   7.526 -0.1071 -0.1000 -0.1749
 5289DDP     C431734  12.301   5.403   7.347 -0.0950  0.1234  0.1145
 5290DDP     C131735  10.090   7.548  16.917  0.1369  0.1126 -0.1570
 5290DDP     P131736  10.428   7.739  17.259 -0.1232 -0.0471  0.2133
 5290DDP     P231737   9.771   7.887  16.643  0.0089  0.0660  0.1056
 5290DDP     C231738   9.360   7.750  16.500  0.0985 -0.0993 -0.1663
 5290DDP     C331739  10.432   7.720  17.572 -0.1947  0.2786 -0.3725
 5290DDP     C431740  10.109   7.091  16.788 -0.0373 -0.2688  0.1838
 5291DDP     C131741   9.729  26.194  18.172 -0.1195 -0.0428 -0.1323
 5291DDP     P131742   9.562  26.097  17.754 -0.0431  0.0332  0.0358
 5291DDP     P231743   9.500  26.437  18.499 -0.0173  0.0018  0.0039
 5291DDP     C231744   9.070  26.736  18.490 -0.0167  0.0540 -0.2478
 5291DDP     C331745   9.431  26.375  17.382  0.0182  0.2197  0.2352
 5291DDP     C431746   9.938  25.839  18.257 -0.0685 -0.4354 -0.3158
 5292DDP     C131747  10.401  16.717  17.948 -0.1419 -0.0028  0.3361
 5292DDP     P131748  10.502  17.009  18.208 -0.0655 -0.1961 -0.2393
 5292DDP     P231749  10.598  16.859  17.628  0.4129 -0.1226  0.1781
 5292DDP     C231750  10.819  17.147  17.303 -0.0378 -0.0287  0.2488
 5292DDP     C331751  10.130  17.308  18.415  0.0150  0.0504  0.4271
 5292DDP     C431752  10.227  16.376  17.997 -0.1890 -0.0685 -0.0027
 5293DDP     C131753  22.572   5.539   2.203 -0.1721 -0.1570  0.1669
 5293DDP     P131754  22.352   5.848   2.280  0.2018 -0.1998 -0.0492
 5293DDP     P231755  22.926   5.809   2.266  0.2184  0.0417  0.2476
 5293DDP     C231756  23.041   6.209   2.185  0.1883  0.0006 -0.2409
 5293DDP     C331757  22.052   5.969   2.675 -0.2142  0.0036  0.0640
 5293DDP     C431758  22.521   5.143   2.206 -0.2050 -0.3113  0.0958
 5294DDP     C131759  19.818  25.401  15.233  0.0079 -0.0781 -0.0608
 5294DDP     P131760  20.214  25.349  14.981 -0.1294 -0.1297  0.0182
 5294DDP     P231761  19.686  25.150  15.551  0.0515 -0.3006  0.0701
 5294DDP     C231762  19.759  25.080  16.048 -0.0522 -0.1579  0.0297
 5294DDP     C331763  20.602  25.536  14.768  0.1270 -0.2568 -0.0753
 5294DDP     C431764  19.508  25.597  15.165 -0.1450  0.0918 -0.0737
 5295DDP     C131765   4.473  27.829  10.408 -0.2964 -0.4096 -0.0576
 5295DDP     P131766   4.742  28.257  10.594 -0.1387  0.4021  0.0072
 5295DDP     P231767   4.164  27.542  10.615  0.0396  0.3867  0.0066
 5295DDP     C231768   3.967  27.265  10.989 -0.0130  0.0155 -0.0140
 5295DDP     C331769   4.779  28.394  10.998  0.0028 -0.1566  0.0942
 5295DDP     C431770   4.337  27.856  10.005  0.1205 -0.0999 -0.2291
 5296DDP     C131771  21.506  27.370  13.602 -0.0586  0.5295 -0.2074
 5296DDP     P131772  21.416  27.276  14.041 -0.2152  0.0414  0.3491
 5296DDP     P231773  21.888  27.679  13.618 -0.1980 -0.0434 -0.3245
 5296DDP     C231774  22.097  27.974  13.797  0.2501 -0.2001  0.1203
 5296DDP     C331775  21.050  27.029  14.290 -0.0642 -0.1848 -0.0186
 5296DDP     C431776  21.175  27.289  13.372  0.2299 -0.1568  0.0092
 5297DDP     C131777  29.450  11.144  29.992  0.2540  0.0067  0.0047
 5297DDP     P131778  29.889  11.096  30.266 -0.1553 -0.4817  0.1895
 5297DDP     P231779  29.205  11.478  29.813  0.2381 -0.0167  0.0733
 5297DDP     C231780  28.750  11.619  29.677  0.2093 -0.0490  0.3328
 5297DDP     C331781  30.013  11.297   0.470  0.3873  0.1637  0.0873
 5297DDP     C431782  29.125  10.848  30.013 -0.1778  0.1533  0.1722
 5298DDP     C131783  27.952   0.769   2.126 -0.1634  0.1004 -0.1597
 5298DDP     P131784  27.662   0.394   2.024 -0.1390  0.1915  0.3337
 5298DDP     P231785  27.741   1.106   2.334  0.2213  0.2036  0.2655
 5298DDP     C231786  27.887   1.248   2.613 -0.1705  0.1822  0.0513
 5298DDP     C331787  27.396   0.086   2.279  0.1723  0.1591 -0.0195
 5298DDP     C431788  28.377   0.779   2.056  0.0318  0.0309  0.0488
 5299DDP     C131789  16.267  28.859  24.099  0.0647 -0.1242  0.3649
 5299DDP     P131790  16.386  28.728  24.442 -0.2014  0.0634 -0.0221
 5299DDP     P231791  16.018  29.221  23.998 -0.0349 -0.1918 -0.0362
 5299DDP     C231792  15.787  29.204  23.659 -0.2060 -0.0140 -0.0843
 5299DDP     C331793  16.437  28.325  24.595 -0.1220  0.1605  0.4261
 5299DDP     C431794  16.238  28.625  23.713 -0.0007 -0.1219 -0.1579
 5300DDP     C131795  10.559  16.751  16.894 -0.0589  0.0833  0.0564
 5300DDP     P131796  10.248  16.931  17.163  0.0959 -0.2711  0.1246
 5300DDP     P231797  10.859  16.595  17.083  0.0737 -0.1099 -0.2371
 5300DDP     C231798  11.004  16.541  17.553 -0.1236 -0.1785  0.1307
 5300DDP     C331799  10.339  17.370  17.342  0.1406  0.1645 -0.0223
 5300DDP     C431800  10.406  16.519  16.573 -0.1296  0.2643  0.3644
 5301DDP     C131801  12.009  20.945  11.721  0.2711 -0.0386 -0.0248
 5301DDP     P131802  12.323  20.909  11.387  0.1363  0.2092  0.2294
 5301DDP     P231803  11.575  20.876  11.618  0.0515 -0.0944  0.2323
 5301DDP     C231804  11.160  20.895  11.429  0.0926  0.0022 -0.0044
 5301DDP     C331805  12.442  20.736  11.062 -0.2520  0.2694  0.4746
 5301DDP     C431806  12.108  21.066  12.142  0.0124  0.0440 -0.0574
 5302DDP     C131807  13.955  18.257  22.210  0.0640  0.0914  0.0685
 5302DDP     P131808  14.354  18.513  22.262  0.1605  0.0416  0.2464
 5302DDP     P231809  13.744  18.026  22.550  0.0144 -0.2201 -0.0403
 5302DDP     C231810  13.354  17.732  22.669 -0.1357  0.0105 -0.0061
 5302DDP     C331811  14.689  18.515  21.973 -0.1009  0.1306  0.1013
 5302DDP     C431812  13.649  18.451  21.829  0.0322  0.0196 -0.0472
 5303DDP     C131813   8.502  19.683  15.961 -0.0030 -0.0396 -0.0388
 5303DDP     P131814   8.238  19.466  15.775  0.1406 -0.0223 -0.1352
 5303DDP     P231815   8.552  20.109  15.774 -0.1192  0.4564  0.2416
 5303DDP     C231816   8.428  20.333  15.433  0.1716  0.3230  0.0405
 5303DDP     C331817   7.934  19.449  15.562  0.1474  0.0587 -0.1664
 5303DDP     C431818   8.483  19.594  16.452 -0.1419  0.0456  0.0102
 5304DDP     C131819  21.902  25.987  11.378  0.1500 -0.0474 -0.1594
 5304DDP     P131820  21.761  25.933  10.866 -0.0792 -0.3293 -0.4362
 5304DDP     P231821  21.790  26.356  11.662  0.2496 -0.1553  0.4395
 5304DDP     C231822  21.679  26.799  11.907 -0.3423  0.0701 -0.0379
 5304DDP     C331823  21.618  25.787  10.627 -0.1674  0.0349 -0.1934
 5304DDP     C431824  22.037  25.636  11.453 -0.0596  0.0287  0.1386
 5305DDP     C131825   8.618   0.202  12.201  0.0156  0.0014  0.1443
 5305DDP     P131826   8.328   0.316  11.960  0.1490 -0.1864  0.1064
 5305DDP     P231827   9.044   0.257  12.233 -0.2562  0.1115  0.0392
 5305DDP     C231828   9.446   0.217  12.545  0.2957 -0.0297 -0.0571
 5305DDP     C331829   8.081   0.603  11.602 -0.0311  0.0469  0.0745
 5305DDP     C431830   8.516   0.211  12.664 -0.0530 -0.2644  0.0211
 5306DDP     C131831  14.426  25.724   4.594  0.0698  0.2036 -0.2571
 5306DDP     P131832  14.325  26.160   4.703 -0.0572  0.1334  0.0562
 5306DDP     P231833  14.819  25.734   4.815 -0.0960  0.2730 -0.0888
 5306DDP     C231834  15.157  25.925   4.989  0.3894  0.2618  0.2454
 5306DDP     C331835  14.327  26.647   4.461 -0.1581 -0.0035  0.1387
 5306DDP     C431836  14.246  25.270   4.556 -0.1594  0.1388  0.1403
 5307DDP     C131837  30.308  29.949  29.542  0.0975 -0.2143 -0.2016
 5307DDP     P131838   0.140  30.182  29.235  0.2937  0.1591 -0.0001
 5307DDP     P231839  29.918  29.799  29.498 -0.1146  0.0286  0.1295
 5307DDP     C231840  29.784  29.376  29.562  0.1042  0.0826 -0.1321
 5307DDP     C331841   0.247   0.320  29.255  0.1167  0.1006 -0.0737
 5307DDP     C431842   0.321  29.859  29.791 -0.1311 -0.0192 -0.0755
 5308DDP     C131843   3.865  14.954  23.034 -0.1225 -0.0842  0.0759
 5308DDP     P131844   3.806  14.801  22.575  0.0305  0.0327  0.2193
 5308DDP     P231845   4.132  14.790  23.343  0.1242  0.2508 -0.3689
 5308DDP     C231846   4.569  14.558  23.448 -0.2103  0.2087 -0.0455
 5308DDP     C331847   3.543  14.888  22.243 -0.2091 -0.0529 -0.0880
 5308DDP     C431848   3.555  15.186  23.132 -0.1424 -0.0703 -0.0386
 5309DDP     C131849  20.450  26.575  28.885 -0.0434  0.1546  0.1266
 5309DDP     P131850  20.701  26.231  28.745  0.0222 -0.1689  0.0071
 5309DDP     P231851  20.307  26.577  29.275  0.0482  0.0155  0.1969
 5309DDP     C231852  20.681  26.372  29.574 -0.0387 -0.0267  0.0289
 5309DDP     C331853  20.912  25.916  29.001 -0.1919 -0.3622  0.0661
 5309DDP     C431854  20.262  26.604  28.459  0.2457  0.0271  0.0306
 5310DDP     C131855  14.230  16.253   9.040  0.3079  0.1062  0.0633
 5310DDP     P131856  14.045  16.307   8.678  0.2259 -0.2810 -0.2693
 5310DDP     P231857  14.463  16.638   9.067 -0.4910 -0.1965  0.2921
 5310DDP     C231858  14.392  17.049   9.094 -0.2527  0.0728 -0.1958
 5310DDP     C331859  13.991  16.442   8.192 -0.1304  0.3451 -0.2007
 5310DDP     C431860  14.316  15.802   9.273 -0.1271 -0.0256 -0.1933
 5311DDP     C131861  15.177  13.358   4.558  0.0004  0.3841 -0.1864
 5311DDP     P131862  15.457  12.997   4.772  0.1670  0.1546 -0.2488
 5311DDP     P231863  15.014  13.755   4.715  0.1930  0.0241 -0.0062
 5311DDP     C231864  15.068  14.077   4.916  0.2024  0.3731  0.1917
 5311DDP     C331865  15.811  13.039   5.074  0.1227 -0.0150  0.4862
 5311DDP     C431866  15.376  13.416   4.203  0.0555  0.1835  0.3147
 5312DDP     C131867  15.859  24.694  22.603 -0.2479 -0.1313  0.0116
 5312DDP     P131868  16.255  24.799  22.837  0.0840  0.1848  0.0546
 5312DDP     P231869  15.435  24.918  22.569 -0.0505  0.0939 -0.1573
 5312DDP     C231870  15.109  25.034  22.296  0.0697  0.0073  0.0405
 5312DDP     C331871  16.631  24.960  22.994 -0.3579  0.0076  0.0676
 5312DDP     C431872  15.884  24.271  22.539  0.3372 -0.3397 -0.0314
 5313DDP     C131873  14.215  18.998   1.874 -0.0764  0.0415  0.3195
 5313DDP     P131874  13.684  19.094   1.819 -0.0934  0.2092 -0.4056
 5313DDP     P231875  14.581  18.634   1.726  0.0243  0.3028  0.3553
 5313DDP     C231876  14.893  18.444   1.423 -0.1913 -0.0687  0.1900
 5313DDP     C331877  13.411  19.275   1.394 -0.0203  0.1771 -0.5117
 5313DDP     C431878  14.348  19.422   2.166 -0.0423 -0.2641  0.1547
 5314DDP     C131879   8.266  16.431   3.768 -0.0182  0.0372 -0.0300
 5314DDP     P131880   8.401  16.221   3.362  0.0385  0.1593  0.0650
 5314DDP     P231881   8.135  16.367   4.226  0.2736  0.2006  0.0363
 5314DDP     C231882   8.269  16.609   4.622  0.1561 -0.0256 -0.1830
 5314DDP     C331883   8.259  16.393   2.831  0.3608  0.3790 -0.1955
 5314DDP     C431884   8.384  16.838   3.713  0.0846 -0.1314 -0.0082
 5315DDP     C131885  21.627   0.514  10.218 -0.2319  0.0263  0.0834
 5315DDP     P131886  21.454   0.121  10.368  0.1371  0.0786 -0.0054
 5315DDP     P231887  21.966   0.844  10.480  0.0130 -0.2490 -0.0082
 5315DDP     C231888  21.838   1.138  10.679 -0.0215  0.1938  0.0020
 5315DDP     C331889  21.514  29.873  10.524 -0.1065 -0.0132 -0.1388
 5315DDP     C431890  21.347   0.696   9.955  0.1450  0.0305  0.1725
 5316DDP     C131891  26.435  21.521  16.516  0.1995 -0.1260  0.1005
 5316DDP     P131892  26.287  21.917  16.322  0.0035  0.1968 -0.0183
 5316DDP     P231893  26.706  21.371  16.106  0.3476 -0.1167  0.1278
 5316DDP     C231894  26.869  21.032  15.708  0.2860  0.0983  0.2749
 5316DDP     C331895  26.025  22.230  16.147 -0.0711 -0.0490 -0.0197
 5316DDP     C431896  26.706  21.234  16.734  0.2481  0.2161  0.0425
 5317DDP     C131897  10.664  25.296  24.035 -0.2364 -0.1270 -0.0234
 5317DDP     P131898  10.348  25.539  23.930 -0.0935  0.0463 -0.1128
 5317DDP     P231899  10.577  24.958  23.853  0.2829 -0.0059  0.3907
 5317DDP     C231900  10.737  24.483  23.883  0.2576  0.1480 -0.2200
 5317DDP     C331901  10.069  25.949  24.014  0.2881 -0.1136  0.0905
 5317DDP     C431902  11.082  25.226  24.163 -0.0887 -0.1378 -0.0929
 5318DDP     C131903   4.428   1.495   5.467  0.4849  0.0021  0.2256
 5318DDP     P131904   4.179   1.539   5.119  0.0501 -0.0996  0.0247
 5318DDP     P231905   4.781   1.885   5.332 -0.0961  0.1571 -0.1460
 5318DDP     C231906   5.082   1.912   4.943 -0.0174 -0.0589  0.0595
 5318DDP     C331907   3.912   1.794   4.745 -0.0331  0.2241 -0.3206
 5318DDP     C431908   4.553   1.181   5.706 -0.0232  0.2971 -0.0640
 5319DDP     C131909   0.432  15.252   6.348 -0.0614  0.1243  0.0985
 5319DDP     P131910   0.399  15.404   6.076 -0.1080 -0.0616  0.3428
 5319DDP     P231911   0.087  15.223   6.649  0.2547  0.1889  0.2207
 5319DDP     C231912  29.948  15.313   6.607 -0.0844  0.2650 -0.0056
 5319DDP     C331913   0.791  15.531   5.834 -0.0678 -0.4379 -0.0827
 5319DDP     C431914   0.791  15.260   6.370  0.3392 -0.1938 -0.0244
 5320DDP     C131915   7.057   1.048  29.410  0.2305  0.1273  0.0370
 5320DDP     P131916   6.977   1.054  28.951 -0.1432  0.1293  0.1387
 5320DDP     P231917   7.103   1.470  29.452  0.1319 -0.0817 -0.0485
 5320DDP     C231918   6.893   1.730  29.726  0.1609 -0.3965 -0.1905
 5320DDP     C331919   6.897   0.839  28.610  0.4422 -0.0407 -0.0717
 5320DDP     C431920   7.144   0.680  29.629  0.0739  0.1004 -0.1615
 5321DDP     C131921  23.338  10.813   5.488 -0.0589  0.0598  0.2357
 5321DDP     P131922  23.688  10.725   5.317 -0.3957  0.0640 -0.0758
 5321DDP     P231923  23.270  10.749   5.815 -0.2191  0.0730 -0.0559
 5321DDP     C231924  23.165  10.761   6.262 -0.3211  0.2735 -0.0643
 5321DDP     C331925  23.932  10.725   4.822  0.1614  0.0948  0.0736
 5321DDP     C431926  23.110  11.184   5.309 -0.0948  0.0483 -0.0413
 5322DDP     C131927   0.979   5.868  23.687 -0.1324 -0.1309 -0.0235
 5322DDP     P131928   0.893   5.430  23.795  0.1824  0.2092  0.2038
 5322DDP     P231929   1.264   5.820  23.309 -0.1369  0.1281  0.1103
 5322DDP     C231930   1.462   5.850  22.919  0.1446  0.2448  0.0438
 5322DDP     C331931   0.913   5.086  24.133 -0.2077  0.1400  0.1554
 5322DDP     C431932   0.813   6.272  23.854 -0.0822 -0.0268 -0.3294
 5323DDP     C131933  15.093  14.047  13.066 -0.1614 -0.0154  0.2827
 5323DDP     P131934  15.300  14.198  13.459 -0.1557 -0.1932  0.1065
 5323DDP     P231935  15.108  13.639  12.983  0.0416  0.1874  0.1134
 5323DDP     C231936  14.808  13.431  12.864  0.0629 -0.3483 -0.0414
 5323DDP     C331937  15.788  14.408  13.578 -0.1587 -0.1585 -0.0322
 5323DDP     C431938  14.695  14.334  12.972 -0.2473  0.2511  0.0106
 5324DDP     C131939  12.508  11.756  22.447 -0.0552  0.1170 -0.1197
 5324DDP     P131940  12.058  11.714  22.592  0.0185 -0.1393 -0.1213
 5324DDP     P231941  12.819  11.550  22.739  0.0205 -0.2588  0.1148
 5324DDP     C231942  13.107  11.164  22.695  0.0833 -0.2585 -0.0219
 5324DDP     C331943  11.669  11.787  22.733 -0.2799 -0.0837 -0.0404
 5324DDP     C431944  12.712  11.755  22.105 -0.2858  0.1660  0.1122
 5325DDP     C131945  21.158  23.221  15.842 -0.1859  0.1935 -0.3651
 5325DDP     P131946  20.756  23.099  15.715  0.0515 -0.2180 -0.1086
 5325DDP     P231947  21.634  22.992  15.659 -0.0372  0.0186 -0.1081
 5325DDP     C231948  21.661  22.803  15.264  0.0169 -0.2043  0.0346
 5325DDP     C331949  20.364  22.919  15.907  0.3396 -0.1513 -0.2368
 5325DDP     C431950  21.235  23.392  16.215  0.0580  0.1573  0.2086
 5326DDP     C131951  23.173   5.339   1.521 -0.1011  0.0559  0.0050
 5326DDP     P131952  23.000   5.703   1.270 -0.2079 -0.0235  0.3594
 5326DDP     P231953  23.574   5.238   1.528 -0.0720  0.2180 -0.2285
 5326DDP     C231954  23.933   5.446   1.586 -0.3416  0.3388 -0.1058
 5326DDP     C331955  22.868   6.144   1.242  0.1365 -0.0522 -0.0194
 5326DDP     C431956  23.046   5.250   1.957  0.1690 -0.0630 -0.0387
 5327DDP     C131957  23.904   6.387  19.614 -0.1515 -0.0864 -0.2216
 5327DDP     P131958  24.281   6.417  19.396  0.0334  0.1603 -0.0511
 5327DDP     P231959  23.991   6.232  19.997  0.0178 -0.0899 -0.2495
 5327DDP     C231960  23.836   6.106  20.302 -0.0729 -0.1171 -0.0178
 5327DDP     C331961  24.637   6.523  19.070 -0.0687  0.0625 -0.0247
 5327DDP     C431962  23.396   6.541  19.457  0.2933  0.0856  0.1204
 5328DDP     C131963  12.630  25.567  15.004 -0.1276  0.1284  0.2898
 5328DDP     P131964  13.005  25.623  14.845  0.1413  0.0696  0.1058
 5328DDP     P231965  12.435  25.945  14.745 -0.0834  0.2512 -0.3705
 5328DDP     C231966  12.198  26.378  14.650 -0.2925  0.2429  0.1296
 5328DDP     C331967  13.271  25.636  14.727 -0.2899  0.0966 -0.2670
 5328DDP     C431968  12.413  25.253  15.271  0.1182  0.1892 -0.0991
 5329DDP     C131969  14.324  27.716  25.686  0.2419 -0.1707  0.1182
 5329DDP     P131970  14.004  27.610  26.087 -0.3451  0.0962  0.0748
 5329DDP     P231971  14.208  27.371  25.359  0.2550  0.0355 -0.1240
 5329DDP     C231972  14.148  27.155  24.951  0.2612  0.4097 -0.4605
 5329DDP     C331973  13.913  27.350  26.380 -0.0221  0.0036 -0.1365
 5329DDP     C431974  14.684  27.991  25.639 -0.0887 -0.5092  0.2001
 5330DDP     C131975   4.894   3.930  30.021  0.2059 -0.0543  0.3103
 5330DDP     P131976   4.589   3.990  -0.024 -0.0867  0.0909 -0.1374
 5330DDP     P231977   4.735   3.870  29.602 -0.2422 -0.1444 -0.1048
 5330DDP     C231978   4.763   3.683  29.230 -0.2107  0.4577 -0.3836
 5330DDP     C331979   4.301   4.111   0.276  0.1531 -0.0668  0.0325
 5330DDP     C431980   5.100   4.237  -0.011  0.2102 -0.2031 -0.0640
 5331DDP     C131981   9.575  15.500  23.669 -0.3071  0.2623  0.0574
 5331DDP     P131982   9.950  15.552  23.390 -0.0377 -0.1244  0.0025
 5331DDP     P231983   9.083  15.595  23.739  0.3756  0.2747  0.0431
 5331DDP     C231984   8.722  15.520  23.929  0.0074 -0.0642  0.1306
 5331DDP     C331985  10.310  15.543  23.210 -0.2870 -0.2746 -0.0862
 5331DDP     C431986   9.843  15.203  23.981 -0.2595  0.0637 -0.1906
 5332DDP     C131987   9.652  26.697   9.215  0.0561 -0.0076 -0.1054
 5332DDP     P131988   9.366  26.724   9.569  0.3308  0.1606 -0.0638
 5332DDP     P231989   9.710  26.242   9.038  0.2791  0.4142  0.1329
 5332DDP     C231990   9.442  25.954   9.126  0.1812  0.3104  0.1600
 5332DDP     C331991   9.086  27.078   9.645 -0.0775  0.1266 -0.0491
 5332DDP     C431992  10.013  26.803   9.447 -0.3133 -0.1457 -0.1766
 5333DDP     C131993  30.100  14.031  18.657  0.2904  0.0410 -0.1114
 5333DDP     P131994   0.147  14.118  18.497  0.0729  0.0760 -0.2922
 5333DDP     P231995  30.004  14.156  19.157 -0.1157 -0.0280  0.2165
 5333DDP     C231996  29.927  14.069  19.618  0.1416 -0.1942 -0.0005
 5333DDP     C331997   0.419  14.487  18.421  0.1853  0.1042 -0.1625
 5333DDP     C431998  29.783  13.760  18.477 -0.2840  0.1909  0.2636
 5334DDP     C131999  12.728  14.308  15.069 -0.2772 -0.0739  0.2730
 5334DDP     P132000  12.387  14.649  15.044  0.0536  0.1964  0.0934
 5334DDP     P232001  12.900  14.204  15.405  0.1191 -0.0755  0.1269
 5334DDP     C232002  12.958  13.745  15.545 -0.1935  0.1978  0.0249
 5334DDP     C332003  12.225  14.898  15.254  0.2649  0.0304  0.0792
 5334DDP     C432004  12.947  14.206  14.676  0.0875  0.1248  0.0420
 5335DDP     C132005  21.531   2.615   8.337 -0.2517  0.1063  0.1029
 5335DDP     P132006  21.347   3.033   8.384 -0.1649  0.1717  0.1284
 5335DDP     P232007  21.597   2.716   7.861  0.3821 -0.0550 -0.0644
 5335DDP     C232008  21.672   2.848   7.508 -0.4073  0.0484 -0.1480
 5335DDP     C332009  21.061   3.279   8.512  0.0141 -0.1738  0.2027
 5335DDP     C432010  21.642   2.199   8.524  0.1309 -0.0526  0.0611
 5336DDP     C132011   1.667  26.937  11.109 -0.4820  0.1398  0.0464
 5336DDP     P132012   1.858  26.668  11.499 -0.0661  0.0528 -0.1605
 5336DDP     P232013   1.882  26.860  10.724  0.0286 -0.1011 -0.3600
 5336DDP     C232014   1.724  26.922  10.399  0.2384  0.1391 -0.2072
 5336DDP     C332015   2.005  26.264  11.650 -0.2453  0.0864 -0.0240
 5336DDP     C432016   1.385  27.291  11.017 -0.0857  0.1029  0.3487
 5337DDP     C132017  21.565  15.483   5.632  0.0796  0.1556  0.0185
 5337DDP     P132018  21.752  15.031   5.619 -0.0443  0.3040  0.0937
 5337DDP     P232019  21.753  15.799   5.759 -0.1484  0.0177 -0.2982
 5337DDP     C232020  22.150  15.999   5.713  0.0438  0.0019  0.3933
 5337DDP     C332021  22.012  14.757   5.928  0.2059  0.0228  0.0504
 5337DDP     C432022  21.130  15.371   5.746 -0.1719  0.0318 -0.3549
 5338DDP     C132023  12.851  11.520  28.766  0.0428  0.0836 -0.0063
 5338DDP     P132024  12.955  11.973  28.971  0.0879 -0.0219  0.1940
 5338DDP     P232025  13.037  11.163  28.912 -0.2040  0.0930 -0.1450
 5338DDP     C232026  12.969  10.804  29.221  0.1935 -0.0563 -0.0486
 5338DDP     C332027  13.384  12.117  29.056  0.0189  0.2431  0.1753
 5338DDP     C432028  12.732  11.357  28.437  0.0256 -0.0698 -0.2648
 5339DDP     C132029  13.119   3.768  12.314  0.0672 -0.1159  0.0111
 5339DDP     P132030  12.686   3.696  12.078  0.0836 -0.3631  0.2547
 5339DDP     P232031  13.538   3.810  12.196 -0.1873 -0.2634  0.1502
 5339DDP     C232032  13.869   4.107  12.247 -0.2388 -0.6054 -0.0604
 5339DDP     C332033  12.441   3.671  11.787 -0.2736 -0.0692 -0.1420
 5339DDP     C432034  12.909   3.865  12.777 -0.2458  0.1812  0.0383
 5340DDP     C132035  19.056  24.476   0.374 -0.1984  0.1894 -0.1383
 5340DDP     P132036  19.256  24.650  30.315  0.0443 -0.1155  0.2767
 5340DDP     P232037  19.089  24.568   0.750  0.1352  0.0132 -0.0841
 5340DDP     C232038  19.229  24.569   1.119  0.1424  0.0979 -0.0956
 5340DDP     C332039  19.284  25.109  30.041 -0.1838 -0.0450 -0.0079
 5340DDP     C432040  18.815  24.105   0.204  0.1403 -0.3723 -0.2989
 5341DDP     C132041  21.189  14.271  18.658 -0.0164 -0.2071 -0.2250
 5341DDP     P132042  20.839  14.306  18.860 -0.1367  0.0527 -0.0244
 5341DDP     P232043  21.591  14.441  18.689 -0.0732  0.0166 -0.2142
 5341DDP     C232044  21.790  14.808  18.731 -0.0766  0.1146  0.1619
 5341DDP     C332045  20.385  14.294  18.656  0.3423 -0.0481  0.1479
 5341DDP     C432046  21.250  13.862  18.355  0.0882  0.3005  0.0939
 5342DDP     C132047  23.915  24.048  21.219  0.2540  0.0305 -0.0392
 5342DDP     P132048  23.634  23.914  21.017  0.0813  0.2457  0.2159
 5342DDP     P232049  24.178  23.839  21.534 -0.1538  0.3581 -0.0716
 5342DDP     C232050  24.551  23.773  21.687  0.1633  0.1299  0.0325
 5342DDP     C332051  23.401  23.575  21.108 -0.0789  0.2310  0.3715
 5342DDP     C432052  24.100  24.457  21.106 -0.0848  0.0893  0.0710
 5343DDP     C132053  28.403  22.274   5.598  0.0148  0.3109  0.0764
 5343DDP     P132054  28.362  22.787   5.491  0.2322  0.1384  0.2855
 5343DDP     P232055  28.753  22.105   5.595 -0.1290 -0.0346  0.0038
 5343DDP     C232056  29.005  21.879   5.313 -0.1493  0.1744  0.0845
 5343DDP     C332057  28.350  23.057   5.155  0.1219 -0.0676  0.1363
 5343DDP     C432058  27.940  22.136   5.393 -0.0037  0.1554  0.3439
 5344DDP     C132059  18.931  29.259  17.788  0.1591  0.0141  0.2050
 5344DDP     P132060  18.539  29.081  17.901 -0.2582  0.2328 -0.0060
 5344DDP     P232061  19.103  29.607  17.912  0.2538  0.2870 -0.1929
 5344DDP     C232062  19.208  29.926  18.192  0.0813 -0.1258  0.1122
 5344DDP     C332063  18.437  28.760  17.735  0.2041  0.0619  0.0321
 5344DDP     C432064  19.265  28.922  17.775 -0.4253 -0.0213 -0.0188
 5345DDP     C132065   2.212   3.310  10.950  0.0079  0.0216 -0.0839
 5345DDP     P132066   2.008   3.584  11.203 -0.2310  0.1319 -0.2477
 5345DDP     P232067   2.122   2.844  10.959  0.1013  0.3118 -0.1730
 5345DDP     C232068   2.099   2.593  11.350 -0.2074  0.0913  0.1369
 5345DDP     C332069   1.771   3.850  11.298 -0.1686 -0.0574 -0.0888
 5345DDP     C432070   2.006   3.293  10.595  0.0728 -0.4468  0.1249
 5346DDP     C132071  12.599  27.521  25.591 -0.0391  0.1684  0.0702
 5346DDP     P132072  12.527  27.252  25.346 -0.0292  0.1280  0.0700
 5346DDP     P232073  12.253  27.605  25.753  0.0850 -0.1095  0.1266
 5346DDP     C232074  11.944  27.344  26.158  0.0426  0.3018 -0.0625
 5346DDP     C332075  12.231  26.968  25.113  0.3063 -0.1013 -0.0186
 5346DDP     C432076  12.905  27.661  25.861  0.2151  0.0438  0.0349
 5347DDP     C132077  22.167  23.904  29.429 -0.0772 -0.3231 -0.2520
 5347DDP     P132078  22.036  23.553  29.781  0.1293  0.2294  0.1461
 5347DDP     P232079  22.537  24.221  29.579 -0.1600 -0.1963 -0.2791
 5347DDP     C232080  22.718  24.660  29.630  0.2647  0.1006  0.2274
 5347DDP     C332081  22.112  23.654  30.255  0.0337 -0.2341 -0.0676
 5347DDP     C432082  21.920  23.990  29.181  0.1705  0.2561  0.0670
 5348DDP     C132083  27.388  16.596   8.498  0.0843  0.1667  0.0478
 5348DDP     P132084  27.685  16.817   8.687 -0.1610  0.1578  0.3286
 5348DDP     P232085  27.421  16.621   8.094 -0.1401  0.2159  0.0445
 5348DDP     C232086  27.767  16.755   7.805 -0.3043 -0.2487 -0.3749
 5348DDP     C332087  27.977  17.035   9.015  0.1202  0.4439  0.0031
 5348DDP     C432088  27.009  16.328   8.663 -0.0434  0.1799  0.0262
 5349DDP     C132089  10.614  27.650   7.007  0.0561  0.0757  0.0293
 5349DDP     P132090  10.742  27.622   6.608 -0.1283  0.3876 -0.3258
 5349DDP     P232091  10.959  27.643   7.384  0.1595  0.3445 -0.3083
 5349DDP     C232092  11.327  27.842   7.533  0.1455 -0.1730  0.2717
 5349DDP     C332093  10.520  27.539   6.171 -0.2452  0.3669  0.2280
 5349DDP     C432094  10.150  27.776   7.082 -0.0180  0.0295  0.0087
 5350DDP     C132095  16.660   5.640   0.875  0.1687 -0.1116 -0.0739
 5350DDP     P132096  16.248   5.596   0.865 -0.1253 -0.1290  0.2595
 5350DDP     P232097  16.919   5.269   1.081  0.0375 -0.0004  0.2804
 5350DDP     C232098  16.951   4.838   1.116 -0.1124  0.0507  0.1634
 5350DDP     C332099  16.052   5.716   0.548 -0.1029 -0.0702  0.1222
 5350DDP     C432100  16.778   6.096   1.001 -0.0527  0.1117  0.0122
 5351DDP     C132101  11.175   5.385  29.475 -0.1063  0.1178  0.1120
 5351DDP     P132102  11.580   5.343  29.400 -0.0746 -0.3080  0.2797
 5351DDP     P232103  10.832   5.701  29.525  0.3603 -0.1366  0.3587
 5351DDP     C232104  10.661   6.130  29.521 -0.2253 -0.1745 -0.0424
 5351DDP     C332105  11.895   5.112  29.348  0.2484 -0.0354 -0.3016
 5351DDP     C432106  11.314   5.102  29.807 -0.0148  0.3417 -0.0822
 5352DDP     C132107  16.032  18.085  11.724 -0.3547 -0.0200 -0.2595
 5352DDP     P132108  15.976  18.092  12.121  0.1583  0.4692  0.1792
 5352DDP     P232109  16.004  17.735  11.455 -0.2607  0.4006  0.1371
 5352DDP     C232110  15.784  17.725  10.976  0.1574 -0.0244  0.1588
 5352DDP     C332111  16.032  17.864  12.493  0.3407  0.0891 -0.3036
 5352DDP     C432112  16.203  18.381  11.506 -0.1938 -0.2636  0.1762
 5353DDP     C132113  20.852  27.127   1.975  0.0656 -0.2820  0.2524
 5353DDP     P132114  20.713  26.919   1.619 -0.1295 -0.0544  0.2845
 5353DDP     P232115  20.775  26.894   2.436 -0.2624  0.0843  0.1036
 5353DDP     C232116  20.746  26.926   2.887 -0.0007  0.1556  0.0418
 5353DDP     C332117  20.641  26.423   1.400  0.2420 -0.0369 -0.0537
 5353DDP     C432118  20.732  27.521   1.991  0.2219 -0.0513 -0.0497
 5354DDP     C132119  16.013  11.891  27.676 -0.0452  0.4226 -0.0832
 5354DDP     P132120  16.361  11.483  27.683  0.0783 -0.0112 -0.0169
 5354DDP     P232121  15.781  12.142  27.863  0.1714 -0.1142 -0.0125
 5354DDP     C232122  15.688  12.193  28.227 -0.1421  0.1359  0.2353
 5354DDP     C332123  16.384  11.066  27.826 -0.2750  0.0643  0.0163
 5354DDP     C432124  16.037  12.134  27.282 -0.0788 -0.2520  0.0547
 5355DDP     C132125  24.643   8.274  24.699 -0.0062 -0.2726  0.1356
 5355DDP     P132126  24.826   8.503  25.139 -0.1257  0.3695  0.3492
 5355DDP     P232127  24.300   8.324  24.444  0.1753 -0.3004  0.2865
 5355DDP     C232128  23.923   8.088  24.529  0.3045  0.0439  0.2851
 5355DDP     C332129  25.105   8.506  25.401  0.0047  0.2622 -0.2398
 5355DDP     C432130  24.767   7.839  24.710  0.1383  0.1819 -0.0210
 5356DDP     C132131  21.442   4.118  29.380 -0.0990 -0.0587 -0.0883
 5356DDP     P132132  21.086   4.023  29.201  0.0734 -0.1233 -0.1285
 5356DDP     P232133  21.719   4.507  29.494 -0.1565  0.0148 -0.0249
 5356DDP     C232134  21.942   4.928  29.329 -0.1100  0.0764 -0.0738
 5356DDP     C332135  20.808   3.917  28.871 -0.0264 -0.0040  0.1645
 5356DDP     C432136  21.646   3.716  29.552 -0.2422 -0.0411  0.0372
 5357DDP     C132137   8.729  27.676   2.942  0.3082 -0.0181  0.1932
 5357DDP     P132138   8.715  28.114   3.075  0.0211  0.0430 -0.1075
 5357DDP     P232139   8.341  27.361   3.006 -0.0109 -0.0815 -0.0997
 5357DDP     C232140   8.245  26.886   3.005 -0.1456 -0.0356  0.0525
 5357DDP     C332141   8.775  28.556   2.948  0.0547  0.1952 -0.0759
 5357DDP     C432142   9.164  27.578   2.823  0.2147  0.0800 -0.0810
 5358DDP     C132143  18.932  18.444  11.980 -0.2714 -0.2119 -0.0325
 5358DDP     P132144  19.329  18.598  12.089  0.4677 -0.3602 -0.1045
 5358DDP     P232145  18.655  18.070  12.216  0.0307 -0.0104 -0.0770
 5358DDP     C232146  18.561  17.705  12.499 -0.1184  0.1256  0.0330
 5358DDP     C332147  19.428  19.028  12.250  0.1584 -0.0040  0.2528
 5358DDP     C432148  18.723  18.801  11.782  0.1354 -0.3165  0.0076
 5359DDP     C132149  27.404  26.586  18.397  0.0286  0.3921  0.0106
 5359DDP     P132150  27.542  26.599  18.004  0.1383  0.3451 -0.0147
 5359DDP     P232151  27.511  26.272  18.678  0.0313  0.2271 -0.0124
 5359DDP     C232152  27.695  25.954  18.825 -0.3059  0.2247  0.0203
 5359DDP     C332153  27.892  26.492  17.817  0.0129  0.2056 -0.0648
 5359DDP     C432154  27.043  26.688  18.435  0.1736  0.0507 -0.0972
 5360DDP     C132155  24.336  11.684  11.100  0.0039  0.2014 -0.2644
 5360DDP     P132156  24.450  11.300  10.915  0.1636  0.0793  0.0742
 5360DDP     P232157  23.860  11.959  10.972  0.1814 -0.2170  0.0073
 5360DDP     C232158  23.461  12.244  11.090 -0.1031  0.0162  0.1613
 5360DDP     C332159  24.255  10.882  11.066  0.0107  0.1664 -0.3341
 5360DDP     C432160  24.697  11.818  11.309 -0.3226 -0.2728  0.1577
 5361DDP     C132161  18.464   8.722  16.841 -0.1495  0.2241 -0.1776
 5361DDP     P132162  18.376   8.253  16.766  0.2145 -0.0305 -0.4158
 5361DDP     P232163  18.391   9.136  16.699  0.0055 -0.0381  0.1575
 5361DDP     C232164  18.087   9.541  16.829 -0.1326 -0.1105 -0.2534
 5361DDP     C332165  18.159   7.807  16.759  0.1384 -0.0603  0.1667
 5361DDP     C432166  18.624   8.697  17.212  0.1259 -0.1479 -0.0943
 5362DDP     C132167  19.860  27.297   5.511  0.2236  0.1156 -0.0515
 5362DDP     P132168  19.794  27.724   5.421  0.0389 -0.1370 -0.2970
 5362DDP     P232169  19.959  27.385   5.887  0.1159  0.2199 -0.1521
 5362DDP     C232170  19.685  27.346   6.192  0.0712 -0.2383 -0.2552
 5362DDP     C332171  19.611  27.993   5.185 -0.3358  0.1442  0.1107
 5362DDP     C432172  19.859  26.830   5.265  0.3932  0.1914 -0.0150
 5363DDP     C132173  26.965  15.657  28.805  0.0338 -0.2604 -0.2280
 5363DDP     P132174  26.941  16.072  28.644  0.1638  0.0282  0.1225
 5363DDP     P232175  26.806  15.315  28.667 -0.1028 -0.0168 -0.1078
 5363DDP     C232176  26.769  14.895  28.918 -0.1283 -0.0526  0.1644
 5363DDP     C332177  27.124  16.299  28.318  0.0649 -0.2298 -0.1500
 5363DDP     C432178  27.431  15.680  28.833  0.0403 -0.3039 -0.1363
 5364DDP     C132179  23.202  12.221  26.290 -0.1289  0.0222  0.0154
 5364DDP     P132180  23.377  11.887  26.564  0.0604  0.2117  0.1874
 5364DDP     P232181  22.974  12.626  26.508  0.1795  0.2015 -0.2126
 5364DDP     C232182  22.673  12.783  26.786 -0.3456  0.1090 -0.2076
 5364DDP     C332183  23.219  11.406  26.456 -0.2209  0.1683 -0.1381
 5364DDP     C432184  23.411  12.243  25.871  0.1173 -0.0123 -0.3385
 5365DDP     C132185  10.495  19.905  27.879  0.1850 -0.0333  0.0906
 5365DDP     P132186  10.882  20.291  28.018 -0.1161  0.1125  0.1168
 5365DDP     P232187  10.005  19.883  27.879  0.0957 -0.0133  0.0004
 5365DDP     C232188   9.696  19.757  28.122  0.1502  0.1470 -0.0765
 5365DDP     C332189  11.212  20.671  27.999 -0.4011  0.2441  0.1079
 5365DDP     C432190  10.719  19.601  27.679 -0.3867  0.0960  0.0278
 5366DDP     C132191  24.647  16.230  15.955 -0.0894 -0.2751  0.0833
 5366DDP     P132192  24.423  15.926  15.686  0.0778 -0.1829  0.0903
 5366DDP     P232193  24.493  16.166  16.290 -0.0214 -0.2842  0.2212
 5366DDP     C232194  24.112  16.041  16.049  0.0101 -0.0380  0.0592
 5366DDP     C332195  24.076  15.664  15.739 -0.1510  0.2401  0.1560
 5366DDP     C432196  25.000  16.303  15.814  0.0437  0.0012  0.1962
 5367DDP     C132197  17.107   4.370   5.574  0.0378  0.0759 -0.1246
 5367DDP     P132198  17.485   4.577   5.452 -0.2080  0.2908 -0.0303
 5367DDP     P232199  17.139   4.096   5.933 -0.0803  0.1807  0.1279
 5367DDP     C232200  17.298   3.925   6.381 -0.0706 -0.0551  0.0093
 5367DDP     C332201  17.750   4.323   5.239  0.0251 -0.0759  0.5546
 5367DDP     C432202  16.832   4.415   5.245  0.0079 -0.2567 -0.1210
 5368DDP     C132203  22.442   6.236   9.622  0.2611 -0.0428  0.0566
 5368DDP     P132204  22.106   6.308   9.898  0.1861  0.1837 -0.1861
 5368DDP     P232205  22.755   6.245   9.976 -0.0732 -0.2411 -0.2790
 5368DDP     C232206  23.097   6.322  10.340 -0.0738  0.0483  0.1166
 5368DDP     C332207  21.780   6.526  10.069  0.1676  0.1953  0.1024
 5368DDP     C432208  22.485   6.281   9.183 -0.1971  0.0042  0.0362
 5369DDP     C132209  23.706  10.701  13.137 -0.1619  0.0167 -0.1283
 5369DDP     P132210  23.361  10.643  13.169 -0.1430 -0.1557 -0.0764
 5369DDP     P232211  23.920  10.583  12.764 -0.1210  0.1632  0.1020
 5369DDP     C232212  24.186  10.289  12.619  0.0478  0.0526 -0.0081
 5369DDP     C332213  22.978  10.886  13.055  0.0395 -0.1956  0.1861
 5369DDP     C432214  23.919  11.062  13.293 -0.1068  0.3622 -0.2136
 5370DDP     C132215   7.089  19.570  12.070  0.0350 -0.0795  0.1614
 5370DDP     P132216   7.249  19.770  11.722 -0.0641  0.0478 -0.0521
 5370DDP     P232217   6.667  19.629  12.140  0.1204  0.1345 -0.1716
 5370DDP     C232218   6.407  19.710  12.419  0.0269  0.0942 -0.1122
 5370DDP     C332219   7.441  19.909  11.284 -0.2134  0.0024 -0.2665
 5370DDP     C432220   7.105  19.436  12.383  0.2811  0.1890  0.1505
 5371DDP     C132221   8.892  15.577  26.670  0.0139 -0.4242 -0.0993
 5371DDP     P132222   8.588  15.569  26.433 -0.1774  0.1267  0.4148
 5371DDP     P232223   8.548  15.736  26.900  0.0239 -0.1848 -0.2179
 5371DDP     C232224   8.355  15.530  27.321 -0.2175 -0.0900 -0.3794
 5371DDP     C332225   8.387  15.580  26.061  0.2554 -0.1201  0.1494
 5371DDP     C432226   9.433  15.598  26.743 -0.0654  0.0098  0.0968
 5372DDP     C132227  29.916  14.157  -0.041 -0.1884 -0.2535 -0.3043
 5372DDP     P132228  29.799  14.033  29.893  0.0376  0.1602 -0.3178
 5372DDP     P232229  29.761  14.444   0.173  0.1099  0.0306 -0.1436
 5372DDP     C232230  29.645  14.813   0.226 -0.0078  0.0412 -0.0562
 5372DDP     C332231  29.748  13.967  29.492 -0.2691 -0.1046 -0.3895
 5372DDP     C432232  30.208  13.978   0.228  0.0469 -0.2347  0.0725
 5373DDP     C132233  12.528  11.673  21.407  0.0269  0.0793  0.1699
 5373DDP     P132234  12.883  11.720  21.537  0.2048  0.1403 -0.2178
 5373DDP     P232235  12.454  11.446  21.035 -0.3051 -0.3845  0.0671
 5373DDP     C232236  12.638  11.167  20.890  0.2779  0.1444  0.3886
 5373DDP     C332237  13.375  11.563  21.330  0.2800  0.2340 -0.1625
 5373DDP     C432238  12.167  11.960  21.640 -0.0951 -0.3157  0.2864
 5374DDP     C132239   4.209   2.700  22.315  0.0489 -0.2463 -0.0141
 5374DDP     P132240   4.182   2.563  21.874  0.2035 -0.1041  0.2717
 5374DDP     P232241   4.196   3.092  22.067  0.2282  0.0868  0.1748
 5374DDP     C232242   4.178   3.507  21.928 -0.1951  0.0102  0.1626
 5374DDP     C332243   4.363   2.640  21.469  0.1978  0.1241  0.0495
 5374DDP     C432244   4.375   2.734  22.717  0.2861 -0.1367 -0.0023
 5375DDP     C132245   1.587  17.751   9.591  0.0522  0.1361  0.1536
 5375DDP     P132246   1.651  17.673   9.998 -0.1213 -0.2696  0.1344
 5375DDP     P232247   1.650  18.173   9.368 -0.0514 -0.2189 -0.0541
 5375DDP     C232248   1.657  18.609   9.468 -0.2003  0.1899 -0.0139
 5375DDP     C332249   1.561  17.273  10.217 -0.2470  0.0009  0.0772
 5375DDP     C432250   1.382  17.498   9.364 -0.1502 -0.0328 -0.1965
 5376DDP     C132251   3.777  25.360  22.332  0.0350  0.1236 -0.1200
 5376DDP     P132252   4.186  25.010  22.363 -0.0176 -0.3616  0.2176
 5376DDP     P232253   3.656  25.571  22.009  0.2937  0.1563  0.0655
 5376DDP     C232254   3.430  25.834  21.929 -0.1817  0.1894  0.1841
 5376DDP     C332255   4.492  24.731  22.465  0.1245 -0.1807  0.0638
 5376DDP     C432256   3.469  25.278  22.630  0.0330 -0.1186  0.2748
 5377DDP     C132257  15.611   5.597   6.199  0.0450  0.3110 -0.2769
 5377DDP     P132258  15.496   5.618   6.541  0.0024  0.2181  0.1542
 5377DDP     P232259  15.944   5.954   6.130 -0.2206  0.1264 -0.1180
 5377DDP     C232260  16.286   6.149   6.294 -0.0762 -0.0860 -0.0643
 5377DDP     C332261  15.069   5.889   6.593  0.2690  0.0874 -0.0208
 5377DDP     C432262  15.300   5.203   5.986  0.2082  0.2078  0.2898
 5378DDP     C132263  28.698  17.271  14.032  0.0733  0.0365 -0.0036
 5378DDP     P132264  29.082  17.296  13.778  0.0560  0.0392 -0.2802
 5378DDP     P232265  28.919  17.046  14.352 -0.1093  0.2133  0.1128
 5378DDP     C232266  29.017  16.867  14.763  0.1462 -0.0531  0.0952
 5378DDP     C332267  29.418  17.449  13.535 -0.0837  0.1058 -0.1816
 5378DDP     C432268  28.318  17.224  14.076  0.2124  0.2041 -0.0640
 5379DDP     C132269  26.693  25.809  10.300  0.1417 -0.3638  0.1052
 5379DDP     P132270  26.460  25.428  10.302 -0.0783  0.0816 -0.1248
 5379DDP     P232271  26.903  25.944  10.683  0.0247 -0.2396  0.0354
 5379DDP     C232272  27.259  25.786  10.917  0.1201  0.0829 -0.4231
 5379DDP     C332273  26.182  25.259  10.087 -0.0779 -0.3997 -0.2144
 5379DDP     C432274  26.801  26.130   9.886 -0.2555  0.0162  0.0642
 5380DDP     C132275  22.607  22.163  13.449 -0.3974  0.1359 -0.0313
 5380DDP     P132276  22.497  22.606  13.601  0.0001 -0.1292  0.2500
 5380DDP     P232277  22.786  21.942  13.108  0.1986 -0.0198 -0.3531
 5380DDP     C232278  22.504  21.607  12.823 -0.2210 -0.0787 -0.2278
 5380DDP     C332279  22.378  23.014  13.395  0.0760  0.2279  0.2582
 5380DDP     C432280  22.518  21.813  13.646  0.1567  0.3312 -0.0075
 5381DDP     C132281   9.831  20.267   2.338  0.0398 -0.1357 -0.0512
 5381DDP     P132282   9.771  20.455   2.721  0.1460  0.0765  0.3611
 5381DDP     P232283   9.950  19.779   2.308 -0.2052 -0.1741  0.2374
 5381DDP     C232284   9.915  19.341   2.075  0.2819 -0.1315  0.1889
 5381DDP     C332285   9.790  20.745   3.040  0.4391 -0.0208  0.2099
 5381DDP     C432286   9.732  20.332   1.965  0.1061 -0.0461 -0.2859
 5382DDP     C132287  29.308  21.224  19.588  0.0089 -0.1027  0.1534
 5382DDP     P132288  29.462  20.919  19.856  0.0323  0.0667 -0.3752
 5382DDP     P232289  29.596  21.635  19.463 -0.1255  0.1238  0.1661
 5382DDP     C232290  29.802  22.041  19.268  0.5165 -0.1500  0.2491
 5382DDP     C332291  29.787  20.659  20.059 -0.1918 -0.0233 -0.1236
 5382DDP     C432292  28.872  21.312  19.467  0.1061  0.2372  0.1700
 5383DDP     C132293   3.385  15.220  23.644 -0.0133  0.0401 -0.0015
 5383DDP     P132294   3.396  15.250  24.060 -0.3142 -0.0395  0.1793
 5383DDP     P232295   3.219  15.448  23.368 -0.0234 -0.2328  0.2632
 5383DDP     C232296   3.233  15.767  22.980  0.0582  0.0038  0.0538
 5383DDP     C332297   3.459  15.705  24.184 -0.2016  0.2580 -0.0572
 5383DDP     C432298   3.662  14.823  23.514 -0.0284  0.1861 -0.0937
 5384DDP     C132299  26.992  10.480  29.712 -0.0796  0.2067  0.3377
 5384DDP     P132300  26.780  10.290  30.138 -0.1553  0.0291  0.3499
 5384DDP     P232301  27.276  10.643  29.930  0.0273  0.1469 -0.0404
 5384DDP     C232302  27.603  10.745  30.129 -0.2287 -0.1256 -0.0347
 5384DDP     C332303  26.608   9.891  30.076  0.0132  0.0012 -0.0705
 5384DDP     C432304  27.128  10.299  29.333  0.1038 -0.0733 -0.2136
 5385DDP     C132305  28.208   6.437  27.002 -0.0887 -0.2667 -0.3879
 5385DDP     P132306  28.478   6.434  26.719 -0.0754  0.0356  0.3189
 5385DDP     P232307  28.092   6.871  27.132 -0.1279 -0.1417  0.1671
 5385DDP     C232308  28.045   7.312  27.220  0.1872  0.1259 -0.1408
 5385DDP     C332309  28.763   6.182  26.594 -0.0311 -0.0644 -0.0814
 5385DDP     C432310  27.962   6.071  27.171  0.3870  0.2131 -0.1036
 5386DDP     C132311  13.889  15.768   7.443 -0.1503 -0.0487 -0.0888
 5386DDP     P132312  13.816  15.646   7.904  0.1096 -0.2757  0.1120
 5386DDP     P232313  14.382  15.688   7.302  0.4164  0.0234  0.0491
 5386DDP     C232314  14.630  15.705   7.759  0.3017  0.3800  0.2173
 5386DDP     C332315  14.119  15.345   8.038  0.1492  0.0192 -0.2817
 5386DDP     C432316  13.686  15.922   7.068 -0.0135 -0.2856  0.4166
 5387DDP     C132317  10.597  16.884   5.395  0.3012 -0.1031  0.2681
 5387DDP     P132318  10.621  16.885   5.950  0.0788 -0.1601 -0.3928
 5387DDP     P232319  10.807  16.547   5.209 -0.0307  0.1893  0.2874
 5387DDP     C232320  10.902  16.277   4.716  0.1611 -0.2009  0.0521
 5387DDP     C332321  10.222  17.063   6.163  0.1469  0.1236 -0.0943
 5387DDP     C432322  10.575  17.227   5.252  0.1608 -0.0782  0.1769
 5388DDP     C132323  15.784  13.822   8.443 -0.2209 -0.0750 -0.0624
 5388DDP     P132324  15.586  13.511   8.313 -0.0744 -0.1310  0.0841
 5388DDP     P232325  16.093  13.972   8.218 -0.0247  0.1779 -0.3023
 5388DDP     C232326  16.276  14.362   8.148 -0.1140 -0.0160 -0.0403
 5388DDP     C332327  15.121  13.644   8.076  0.0398  0.1534 -0.1639
 5388DDP     C432328  15.654  14.010   8.762 -0.1953  0.0726 -0.0898
 5389DDP     C132329  12.453   2.194  29.432 -0.2243  0.0001  0.0882
 5389DDP     P132330  12.561   1.899  29.621 -0.2776 -0.0499 -0.0607
 5389DDP     P232331  12.754   2.287  29.113  0.1887  0.3133  0.0199
 5389DDP     C232332  13.073   2.009  28.784  0.2438  0.0768  0.3273
 5389DDP     C332333  12.679   1.537  29.937 -0.2543 -0.3354 -0.0980
 5389DDP     C432334  12.046   2.329  29.595  0.0387  0.0028 -0.0366
 5390DDP     C132335  22.745  11.391  29.790 -0.2231  0.3433 -0.0512
 5390DDP     P132336  22.810  11.318  30.225  0.0835  0.0427 -0.0022
 5390DDP     P232337  22.664  11.056  29.684  0.0092 -0.0666  0.4222
 5390DDP     C232338  22.392  10.787  29.510 -0.3347  0.2709  0.1415
 5390DDP     C332339  22.844  10.991   0.320  0.0823 -0.3819  0.0459
 5390DDP     C432340  23.083  11.699  29.564  0.0957 -0.2235 -0.1306
 5391DDP     C132341   5.439  26.877   2.809  0.0432 -0.2185 -0.2674
 5391DDP     P132342   5.115  26.844   3.178 -0.0304 -0.3285 -0.4189
 5391DDP     P232343   5.222  26.610   2.538  0.2024 -0.2262  0.0383
 5391DDP     C232344   5.130  26.281   2.222 -0.1621 -0.1702 -0.2417
 5391DDP     C332345   4.978  27.048   3.574 -0.1650 -0.2336 -0.1747
 5391DDP     C432346   5.826  27.143   2.715  0.2198  0.0162  0.1634
 5392DDP     C132347  27.417   7.620  17.018 -0.1891  0.1791  0.1720
 5392DDP     P132348  27.700   7.800  17.276 -0.0538  0.2773  0.1545
 5392DDP     P232349  27.323   7.752  16.698  0.1666  0.2219  0.0302
 5392DDP     C232350  27.223   7.955  16.291 -0.0261 -0.1752  0.1566
 5392DDP     C332351  28.129   7.660  17.253  0.2156  0.1881 -0.0518
 5392DDP     C432352  27.401   7.380  17.316 -0.0409  0.0154  0.0198
 5393DDP     C132353   6.675  28.837   5.929  0.1144 -0.2201  0.0631
 5393DDP     P132354   6.716  28.409   5.827 -0.1377  0.1096 -0.0396
 5393DDP     P232355   6.864  29.226   5.659 -0.1962 -0.3694 -0.1386
 5393DDP     C232356   7.092  29.578   5.849  0.0376  0.2398  0.1501
 5393DDP     C332357   6.914  27.964   5.603 -0.0617  0.0800  0.0972
 5393DDP     C432358   6.327  28.875   6.141  0.1957  0.2953  0.0644
 5394DDP     C132359  22.078  20.471  12.572 -0.1884  0.4706  0.0138
 5394DDP     P132360  22.518  20.368  12.494 -0.2764  0.0201 -0.2592
 5394DDP     P232361  21.933  20.826  12.447 -0.1408 -0.1243  0.1711
 5394DDP     C232362  21.837  21.307  12.244 -0.2780  0.2198 -0.0290
 5394DDP     C332363  22.892  20.239  12.541  0.1096 -0.1504  0.1056
 5394DDP     C432364  21.796  20.145  12.831  0.3837 -0.1416  0.0727
 5395DDP     C132365   4.333  13.986  29.341 -0.1452  0.0165  0.0683
 5395DDP     P132366   4.501  14.276  29.020 -0.0228 -0.1105 -0.1516
 5395DDP     P232367   4.450  13.477  29.304 -0.1572  0.2919 -0.1362
 5395DDP     C232368   4.527  13.115  29.453 -0.1828 -0.0670  0.0312
 5395DDP     C332369   4.308  14.663  28.792  0.0994 -0.0987  0.1650
 5395DDP     C432370   4.163  14.190  29.713  0.1729 -0.2709  0.0477
 5396DDP     C132371  19.175   4.994   7.013  0.3560  0.0352  0.1375
 5396DDP     P132372  19.085   4.608   7.124 -0.3476  0.5040 -0.0386
 5396DDP     P232373  19.624   5.200   6.918  0.0835  0.1562  0.1912
 5396DDP     C232374  19.821   5.601   6.770  0.1390  0.0640 -0.1303
 5396DDP     C332375  19.407   4.553   7.437  0.2759  0.2278  0.1363
 5396DDP     C432376  18.905   5.252   6.907  0.3857 -0.2086 -0.0551
 5397DDP     C132377  17.138  13.451  17.581  0.1218 -0.2235  0.1508
 5397DDP     P132378  17.099  13.115  17.832 -0.1049 -0.1848  0.1232
 5397DDP     P232379  17.439  13.352  17.319  0.2171 -0.0671  0.1681
 5397DDP     C232380  17.863  13.502  17.113 -0.0857 -0.0204  0.0317
 5397DDP     C332381  17.290  12.909  18.200 -0.1706  0.0703  0.2130
 5397DDP     C432382  16.904  13.782  17.459 -0.0157  0.3522 -0.3742
 5398DDP     C132383  24.619   2.449  14.970 -0.1405 -0.1325 -0.0853
 5398DDP     P132384  24.727   2.211  14.605 -0.0631  0.4151  0.1764
 5398DDP     P232385  24.549   2.890  15.034  0.0474 -0.2600 -0.6013
 5398DDP     C232386  24.169   3.195  15.172  0.0221 -0.2307 -0.0202
 5398DDP     C332387  25.104   1.936  14.375  0.1222 -0.5202  0.1104
 5398DDP     C432388  24.649   2.271  15.464 -0.2901  0.0076  0.0965
 5399DDP     C132389  20.869  21.339   2.355  0.1162 -0.2121  0.0861
 5399DDP     P132390  20.780  21.579   2.005 -0.0887  0.1792  0.1210
 5399DDP     P232391  21.167  21.149   2.625 -0.0599 -0.1865  0.0338
 5399DDP     C232392  21.378  21.047   2.960  0.0962 -0.2708 -0.0194
 5399DDP     C332393  21.055  21.620   1.627  0.0128  0.3065  0.1023
 5399DDP     C432394  20.434  21.561   2.514 -0.0219  0.1674  0.0631
 5400DDP     C132395  26.266  16.358  10.465 -0.0064  0.2259  0.2192
 5400DDP     P132396  25.985  16.342  10.771 -0.1645 -0.1190  0.0921
 5400DDP     P232397  26.430  15.882  10.424  0.2295 -0.1033  0.5193
 5400DDP     C232398  26.277  15.640  10.795  0.2692 -0.0261  0.1793
 5400DDP     C332399  25.550  16.401  10.803  0.0368  0.1917  0.0956
 5400DDP     C432400  26.345  16.633  10.149  0.0718 -0.1164  0.3403
 5401DDP     C132401  21.561  19.749  21.635  0.1475 -0.0462 -0.0152
 5401DDP     P132402  21.417  19.941  22.070  0.0851  0.0345 -0.0372
 5401DDP     P232403  21.904  19.444  21.541 -0.1070 -0.2313 -0.0091
 5401DDP     C232404  21.977  19.113  21.750  0.0339  0.2628  0.2451
 5401DDP     C332405  21.231  20.332  22.159 -0.0072 -0.0030 -0.1817
 5401DDP     C432406  21.242  19.766  21.353 -0.3366  0.0772  0.1851
 5402DDP     C132407  26.019  12.307  12.023 -0.2424  0.2277  0.1992
 5402DDP     P132408  25.841  12.326  12.379  0.0103 -0.1352  0.1878
 5402DDP     P232409  25.897  12.076  11.688 -0.2097  0.1957 -0.0828
 5402DDP     C232410  25.814  11.751  11.388  0.2765  0.0205 -0.2362
 5402DDP     C332411  25.534  12.505  12.523 -0.0520 -0.3781  0.0342
 5402DDP     C432412  26.448  12.560  11.920 -0.1097 -0.1420  0.0854
 5403DDP     C132413  26.758  16.725  10.529  0.2895 -0.3903  0.3589
 5403DDP     P132414  26.616  17.131  10.287 -0.0766  0.1470  0.2600
 5403DDP     P232415  26.534  16.567  10.873 -0.2151 -0.2446 -0.1190
 5403DDP     C232416  26.294  16.649  11.252  0.3300  0.3650  0.1288
 5403DDP     C332417  26.192  17.110  10.188 -0.0649  0.1693  0.0405
 5403DDP     C432418  26.799  16.314  10.326  0.0332 -0.1056 -0.2048
 5404DDP     C132419   4.109  21.727   1.515  0.2114 -0.0903  0.1811
 5404DDP     P132420   3.817  21.532   1.825 -0.2349 -0.1869  0.2755
 5404DDP     P232421   4.355  21.693   1.145 -0.1410 -0.0825 -0.1558
 5404DDP     C232422   4.662  21.339   1.018 -0.1215  0.0457  0.0909
 5404DDP     C332423   3.365  21.556   1.814 -0.0324 -0.0631  0.2142
 5404DDP     C432424   4.031  22.137   1.612 -0.1354  0.3080  0.2379
 5405DDP     C132425  19.558   7.431   1.073  0.1203 -0.2087  0.0655
 5405DDP     P132426  19.581   7.521   1.526  0.0676 -0.3098 -0.0572
 5405DDP     P232427  19.532   7.634   0.718 -0.2278  0.0107 -0.1596
 5405DDP     C232428  19.651   7.885   0.299  0.0297 -0.1845 -0.3360
 5405DDP     C332429  19.938   7.726   1.620 -0.2022 -0.0197 -0.0193
 5405DDP     C432430  19.520   7.043   0.948  0.0113  0.2263 -0.0100
 5406DDP     C132431   3.907  27.912   0.535 -0.1940 -0.0764 -0.0559
 5406DDP     P132432   3.637  27.737   0.920  0.0636 -0.0436 -0.0552
 5406DDP     P232433   4.307  27.767   0.434  0.0535  0.1350  0.1050
 5406DDP     C232434   4.519  27.434   0.743  0.1874  0.3115 -0.1663
 5406DDP     C332435   3.695  27.406   1.278  0.3462 -0.5391 -0.1885
 5406DDP     C432436   3.755  28.099   0.182  0.1367 -0.4047 -0.2235
 5407DDP     C132437  17.491  18.847  14.987 -0.1839 -0.2853  0.0884
 5407DDP     P132438  17.123  18.932  14.797  0.3185  0.0569 -0.0709
 5407DDP     P232439  17.826  18.637  14.948  0.2263  0.0632  0.2885
 5407DDP     C232440  18.123  18.288  15.187 -0.2025 -0.0654 -0.0907
 5407DDP     C332441  16.879  18.714  14.632  0.1518  0.2281 -0.1011
 5407DDP     C432442  17.347  18.919  15.448 -0.0492  0.2354  0.2125
 5408DDP     C132443   5.129  11.798  18.196  0.0858  0.0186 -0.1573
 5408DDP     P132444   4.756  11.653  18.320  0.1669 -0.0718  0.0164
 5408DDP     P232445   5.421  11.595  17.940 -0.1540 -0.0159 -0.1041
 5408DDP     C232446   5.510  11.751  17.575  0.0924 -0.1434 -0.0204
 5408DDP     C332447   4.448  11.723  18.587 -0.1004 -0.1692  0.2488
 5408DDP     C432448   5.261  12.163  18.485  0.0267  0.1397  0.0327
 5409DDP     C132449  10.777  13.454  16.843  0.0222  0.2107  0.2380
 5409DDP     P132450  11.123  13.743  16.674  0.0306 -0.1338  0.0503
 5409DDP     P232451  10.503  13.598  17.199 -0.1611  0.1348  0.3714
 5409DDP     C232452  10.040  13.423  17.223  0.3038 -0.1197 -0.2479
 5409DDP     C332453  11.464  13.692  16.941 -0.2392  0.0807 -0.0079
 5409DDP     C432454  10.652  13.019  16.783 -0.1899  0.2023 -0.1621
 5410DDP     C132455  23.014  28.120   8.207 -0.3226  0.1509 -0.1743
 5410DDP     P132456  23.044  28.560   8.060  0.1461 -0.0738  0.0839
 5410DDP     P232457  22.523  27.947   8.332  0.1905 -0.1050  0.1901
 5410DDP     C232458  22.282  27.993   8.717  0.1023 -0.3632 -0.1336
 5410DDP     C332459  23.143  28.999   8.120 -0.1374  0.0038 -0.1647
 5410DDP     C432460  23.269  27.841   8.270  0.1927  0.3651 -0.1754
 5411DDP     C132461  27.415  12.163  14.411 -0.2408  0.0891 -0.0431
 5411DDP     P132462  27.488  11.764  14.409 -0.0592  0.0577  0.0520
 5411DDP     P232463  27.803  12.401  14.490 -0.0596  0.0276  0.0976
 5411DDP     C232464  28.180  12.574  14.525  0.0632 -0.2734  0.2430
 5411DDP     C332465  27.277  11.304  14.226 -0.1094  0.1608  0.0571
 5411DDP     C432466  27.083  12.477  14.399  0.1310  0.0229 -0.0762
 5412DDP     C132467  20.793  14.705   6.682  0.1470  0.0456  0.2359
 5412DDP     P132468  20.369  14.567   6.580 -0.3249  0.1991 -0.4520
 5412DDP     P232469  20.856  15.082   6.864  0.1308  0.0248  0.0366
 5412DDP     C232470  20.870  15.293   7.283 -0.0993  0.1556 -0.0663
 5412DDP     C332471  20.178  14.161   6.445 -0.0649 -0.0661 -0.0423
 5412DDP     C432472  21.251  14.774   6.490 -0.1391 -0.0313 -0.1504
 5413DDP     C132473   3.005   2.213   5.909  0.0555 -0.2346  0.0607
 5413DDP     P132474   2.944   2.169   5.457 -0.0664  0.2091 -0.0125
 5413DDP     P232475   2.656   2.277   6.054 -0.1032 -0.3709  0.0145
 5413DDP     C232476   2.513   2.643   6.132 -0.0013  0.0300  0.0589
 5413DDP     C332477   2.940   1.804   5.101  0.1424 -0.1146  0.1104
 5413DDP     C432478   3.257   1.950   6.128  0.2808 -0.2852 -0.2585
 5414DDP     C132479   7.734   6.007  12.951 -0.1124  0.2850 -0.1482
 5414DDP     P132480   7.860   6.343  12.617 -0.0298 -0.0177 -0.3211
 5414DDP     P232481   7.725   5.547  12.941  0.2947  0.0334 -0.0532
 5414DDP     C232482   7.876   5.239  13.135  0.2864 -0.2951  0.1333
 5414DDP     C332483   7.687   6.682  12.536 -0.4272  0.0495  0.0809
 5414DDP     C432484   7.445   6.005  13.219  0.0450 -0.2018  0.1434
 5415DDP     C132485   8.198   9.590   0.399 -0.2067 -0.0338 -0.0281
 5415DDP     P132486   8.499   9.775   0.182  0.3517  0.2023  0.0556
 5415DDP     P232487   8.361   9.479   0.767 -0.0711 -0.0812 -0.2083
 5415DDP     C232488   8.736   9.492   0.996  0.2188 -0.1918  0.0315
 5415DDP     C332489   8.830   9.904  30.349 -0.1002  0.1664  0.4357
 5415DDP     C432490   7.777   9.466   0.277  0.2112 -0.2008 -0.1460
 5416DDP     C132491  23.189   5.884  18.378  0.0792  0.1194 -0.0469
 5416DDP     P132492  23.467   6.036  18.675  0.1383  0.1386  0.0709
 5416DDP     P232493  22.932   5.524  18.425 -0.2314 -0.0085 -0.0507
 5416DDP     C232494  22.637   5.453  18.790  0.4173  0.1163 -0.1827
 5416DDP     C332495  23.295   6.147  19.126 -0.0381 -0.1299  0.0255
 5416DDP     C432496  23.465   6.034  17.997 -0.0760 -0.2671 -0.0529
 5417DDP     C132497   8.907   4.156  22.531 -0.0865 -0.2763  0.0924
 5417DDP     P132498   9.116   3.953  22.803 -0.0294 -0.2559  0.0210
 5417DDP     P232499   8.421   4.223  22.678 -0.1176  0.2887  0.1514
 5417DDP     C232500   8.015   3.997  22.817 -0.1195  0.0603 -0.0841
 5417DDP     C332501   9.101   3.869  23.219 -0.2289 -0.2093 -0.1597
 5417DDP     C432502   9.044   4.364  22.168  0.0505  0.2367  0.0776
 5418DDP     C132503  27.564   6.924   4.798 -0.2813 -0.2323 -0.2501
 5418DDP     P132504  27.736   6.552   4.813  0.2149 -0.2147  0.1421
 5418DDP     P232505  27.834   7.296   4.674  0.0459 -0.1166 -0.0315
 5418DDP     C232506  27.914   7.716   4.780 -0.1493 -0.0106  0.0948
 5418DDP     C332507  27.865   6.276   4.643 -0.0163  0.2353 -0.0926
 5418DDP     C432508  27.336   7.025   5.168  0.1424 -0.0667  0.0368
 5419DDP     C132509  19.170   8.943   6.728 -0.0745  0.0831  0.3167
 5419DDP     P132510  19.199   9.079   7.200  0.0190 -0.0693  0.0716
 5419DDP     P232511  19.404   8.676   6.453  0.2961  0.2463  0.1812
 5419DDP     C232512  19.879   8.626   6.326 -0.2888 -0.1672  0.0078
 5419DDP     C332513  19.401   9.385   7.398  0.1204 -0.1180 -0.1776
 5419DDP     C432514  18.695   8.853   6.515  0.0159 -0.0742  0.0498
 5420DDP     C132515   8.115  21.610  10.994  0.0130 -0.2954 -0.0350
 5420DDP     P132516   7.867  21.884  10.775 -0.0200  0.1327  0.1857
 5420DDP     P232517   8.290  21.750  11.415  0.0675  0.2121 -0.0683
 5420DDP     C232518   8.476  21.901  11.713 -0.3875 -0.3374 -0.0050
 5420DDP     C332519   7.638  21.949  10.333 -0.1627  0.2142  0.1386
 5420DDP     C432520   7.931  21.252  11.248 -0.2925  0.1324 -0.1541
 5421DDP     C132521  22.328  24.922  17.217 -0.0250  0.2517  0.2573
 5421DDP     P132522  22.021  25.123  17.194 -0.2663  0.1530  0.1226
 5421DDP     P232523  22.670  25.028  17.380  0.0996 -0.1364 -0.1190
 5421DDP     C232524  23.107  24.870  17.571 -0.2219  0.4420 -0.0102
 5421DDP     C332525  21.745  25.275  16.925  0.0965 -0.1701  0.1161
 5421DDP     C432526  22.347  24.631  16.936  0.0019 -0.0002  0.1476
 5422DDP     C132527   9.753  21.362  21.746  0.2180  0.2282 -0.3116
 5422DDP     P132528   9.837  20.939  21.507  0.0769  0.2026 -0.0742
 5422DDP     P232529   9.392  21.627  21.782 -0.0498  0.3239  0.1498
 5422DDP     C232530   9.091  21.448  22.020  0.0785  0.3703 -0.5190
 5422DDP     C332531   9.746  20.870  21.092 -0.2688 -0.0664 -0.1780
 5422DDP     C432532   9.993  21.213  22.104 -0.2557 -0.0274  0.0833
 5423DDP     C132533   6.572  29.199  28.823  0.0035  0.0291 -0.0822
 5423DDP     P132534   6.242  29.122  29.096 -0.2509 -0.2362 -0.0213
 5423DDP     P232535   6.646  29.172  28.400 -0.3604  0.0511  0.1012
 5423DDP     C232536   6.540  28.985  28.054  0.2817 -0.0327  0.1882
 5423DDP     C332537   6.060  28.737  28.909  0.1223  0.0545  0.2181
 5423DDP     C432538   6.942  29.270  29.053  0.0370  0.1486  0.0357
 5424DDP     C132539  19.296   0.659  22.410 -0.2353 -0.2437  0.0413
 5424DDP     P132540  18.854   0.452  22.382  0.2317 -0.0317 -0.1312
 5424DDP     P232541  19.342   1.119  22.404  0.2658 -0.2116 -0.3130
 5424DDP     C232542  19.246   1.488  21.990  0.1533 -0.0482  0.0484
 5424DDP     C332543  18.444   0.172  22.481 -0.0147  0.0312  0.1994
 5424DDP     C432544  19.850   0.605  22.387  0.2717 -0.1031 -0.1701
 5425DDP     C132545  15.025  26.682  10.826  0.0254 -0.0939 -0.0193
 5425DDP     P132546  14.665  26.601  10.566 -0.0929 -0.1777 -0.1103
 5425DDP     P232547  15.064  26.595  11.247  0.0162  0.0837 -0.2291
 5425DDP     C232548  15.450  26.639  11.447  0.1038  0.0498  0.4075
 5425DDP     C332549  14.285  26.610  10.615 -0.1559  0.4502  0.0639
 5425DDP     C432550  15.370  26.857  10.623 -0.2047  0.0738 -0.1242
 5426DDP     C132551  16.656   0.407   0.699 -0.0176  0.4588 -0.0233
 5426DDP     P132552  16.551   0.857   0.563  0.2390  0.0109 -0.0300
 5426DDP     P232553  16.537   0.302   1.177  0.1301 -0.0563 -0.0049
 5426DDP     C232554  16.620   0.001   1.538  0.0513 -0.0174  0.0948
 5426DDP     C332555  16.376   1.244   0.756 -0.0453  0.0265  0.1177
 5426DDP     C432556  16.826  30.261   0.606 -0.0205 -0.0399 -0.1016
 5427DDP     C132557  23.937   8.946  23.669  0.1923  0.1985  0.0421
 5427DDP     P132558  23.921   8.426  23.546 -0.0999 -0.2040  0.1347
 5427DDP     P232559  24.370   9.083  23.936 -0.0155  0.1420  0.0357
 5427DDP     C232560  24.614   9.060  24.339  0.0624 -0.0234  0.0219
 5427DDP     C332561  24.080   8.050  23.556  0.0503  0.0865  0.3746
 5427DDP     C432562  23.555   9.263  23.601  0.0954  0.2034  0.1080
 5428DDP     C132563  23.912  26.045   2.261 -0.0722  0.0195 -0.0940
 5428DDP     P132564  23.490  26.209   2.288 -0.0291  0.3046  0.2179
 5428DDP     P232565  24.103  26.022   1.828  0.1356 -0.1473  0.1920
 5428DDP     C232566  24.589  26.007   1.721  0.0705 -0.0849  0.1828
 5428DDP     C332567  23.197  26.362   2.659 -0.0870 -0.4491  0.0726
 5428DDP     C432568  23.986  25.765   2.599  0.0002  0.1871 -0.0748
 5429DDP     C132569   9.691  15.267  24.481  0.1700 -0.0569 -0.4083
 5429DDP     P132570   9.655  15.627  24.130  0.1444 -0.0334 -0.4117
 5429DDP     P232571   9.358  15.298  24.745  0.2041 -0.0071  0.0512
 5429DDP     C232572   9.337  15.169  25.212 -0.3699  0.2899 -0.4153
 5429DDP     C332573   9.761  15.973  23.895 -0.1713  0.2817 -0.0355
 5429DDP     C432574  10.053  15.022  24.454 -0.0234  0.0750 -0.1902
 5430DDP     C132575  14.640  24.989  18.913 -0.1637 -0.1083  0.0907
 5430DDP     P132576  14.615  25.500  18.812  0.3164  0.1048 -0.0239
 5430DDP     P232577  14.600  24.654  18.534  0.1493 -0.0630  0.0737
 5430DDP     C232578  14.758  24.579  18.093 -0.2320  0.2920 -0.2455
 5430DDP     C332579  14.828  25.980  18.770 -0.0295 -0.2073  0.0771
 5430DDP     C432580  14.688  24.863  19.370 -0.1819  0.1562 -0.0594
 5431DDP     C132581   7.800   7.751   4.041  0.1250 -0.2449  0.0729
 5431DDP     P132582   7.850   7.370   4.250  0.1269 -0.1343  0.1110
 5431DDP     P232583   7.723   7.553   3.643  0.1284  0.0630  0.2753
 5431DDP     C232584   7.676   7.158   3.462 -0.0569  0.3131 -0.1030
 5431DDP     C332585   8.109   7.173   4.549  0.0817  0.1854 -0.0001
 5431DDP     C432586   7.625   8.105   4.224  0.0736 -0.1382 -0.3579
 5432DDP     C132587  13.639   6.872  14.992 -0.1687 -0.2658 -0.1683
 5432DDP     P132588  13.661   7.002  15.398 -0.0564  0.0320 -0.0479
 5432DDP     P232589  13.528   7.034  14.682 -0.0299 -0.0517  0.2316
 5432DDP     C232590  13.565   7.126  14.254  0.2562  0.2903  0.4646
 5432DDP     C332591  13.760   7.167  15.764  0.2717 -0.0631  0.3703
 5432DDP     C432592  13.790   6.515  14.807  0.1303  0.2218 -0.0149
 5433DDP     C132593  10.596   7.580  27.218 -0.2274 -0.0974  0.0851
 5433DDP     P132594  10.992   7.523  26.944 -0.1009  0.2109  0.2302
 5433DDP     P232595  10.292   7.919  27.173  0.0154 -0.2419  0.1534
 5433DDP     C232596   9.918   7.872  27.237 -0.4293 -0.0924  0.1876
 5433DDP     C332597  11.438   7.649  26.726  0.0745 -0.1865  0.0579
 5433DDP     C432598  10.369   7.226  27.155  0.1220 -0.0489  0.0444
 5434DDP     C132599  26.512  10.570   8.039  0.0222 -0.0596  0.1266
 5434DDP     P132600  26.227  10.386   8.237 -0.0844  0.1392 -0.0171
 5434DDP     P232601  26.507  10.694   7.625  0.1286  0.1653 -0.1303
 5434DDP     C232602  26.763  10.636   7.152  0.3050  0.1416 -0.0949
 5434DDP     C332603  25.871  10.157   8.150 -0.2710 -0.1320 -0.1431
 5434DDP     C432604  26.640  10.858   8.286  0.3742 -0.0513  0.1561
 5435DDP     C132605  26.336  23.695  11.818  0.2935 -0.1523  0.3112
 5435DDP     P132606  26.660  23.666  11.506 -0.2560  0.2483  0.0186
 5435DDP     P232607  26.362  23.762  12.216  0.0725  0.0462 -0.2462
 5435DDP     C232608  26.786  23.701  12.529 -0.0136 -0.1638 -0.0347
 5435DDP     C332609  27.041  23.509  11.261 -0.1367  0.0825 -0.1040
 5435DDP     C432610  25.862  23.715  11.757 -0.1591  0.1281 -0.3327
 5436DDP     C132611  16.622   1.970  19.407  0.0178  0.1109  0.3901
 5436DDP     P132612  16.885   2.274  19.169 -0.0939 -0.0235 -0.3262
 5436DDP     P232613  16.259   1.767  19.148  0.0832  0.0906 -0.4162
 5436DDP     C232614  16.056   1.517  18.739 -0.2962 -0.0454  0.1435
 5436DDP     C332615  17.168   2.682  19.171 -0.0184 -0.2578 -0.1109
 5436DDP     C432616  16.695   1.680  19.738 -0.0293 -0.1003  0.1668
 5437DDP     C132617  25.656  17.768   4.438 -0.2772 -0.0491 -0.1339
 5437DDP     P132618  25.529  18.080   4.706 -0.0343  0.0807 -0.1155
 5437DDP     P232619  25.337  17.478   4.079 -0.2383 -0.1820 -0.1059
 5437DDP     C232620  25.153  17.060   4.204  0.0666 -0.1452  0.0841
 5437DDP     C332621  25.290  18.327   5.022 -0.0031 -0.0420 -0.1333
 5437DDP     C432622  25.939  17.449   4.505  0.1689  0.1881  0.1355
 5438DDP     C132623  14.986  22.839   6.347 -0.1886  0.3812  0.0658
 5438DDP     P132624  14.920  23.225   6.019 -0.3261 -0.4329  0.2031
 5438DDP     P232625  15.008  22.826   6.788 -0.1734  0.4993 -0.1956
 5438DDP     C232626  14.989  22.883   7.323  0.0362  0.0977  0.1150
 5438DDP     C332627  14.620  23.417   5.808  0.4108 -0.0653  0.0020
 5438DDP     C432628  15.011  22.485   6.117 -0.1170 -0.0886 -0.2959
 5439DDP     C132629  27.954  12.893   9.217 -0.0750  0.1226  0.3060
 5439DDP     P132630  27.920  12.519   8.899 -0.1267  0.0712 -0.2245
 5439DDP     P232631  28.027  13.369   9.036  0.3752 -0.1434  0.1289
 5439DDP     C232632  28.364  13.673   8.991 -0.0069 -0.0010  0.0246
 5439DDP     C332633  27.878  12.041   8.825 -0.1420  0.3257  0.0781
 5439DDP     C432634  27.865  12.992   9.538  0.1353  0.1179  0.0043
 5440DDP     C132635  12.425  30.137  26.641  0.2871  0.1281 -0.0985
 5440DDP     P132636  12.132  30.069  26.297  0.0401 -0.1850  0.0325
 5440DDP     P232637  12.564  29.860  26.945 -0.2202  0.1208  0.5354
 5440DDP     C232638  12.759  29.540  27.151 -0.1957 -0.1990  0.2272
 5440DDP     C332639  11.773  29.925  26.217  0.2123  0.0938 -0.1997
 5440DDP     C432640  12.606   0.223  26.807  0.0837  0.0375 -0.1464
 5441DDP     C132641   2.488   4.662  19.513 -0.1381 -0.1169 -0.0450
 5441DDP     P132642   2.829   4.793  19.777  0.0502  0.1905 -0.0474
 5441DDP     P232643   2.791   4.409  19.212 -0.0589 -0.2515  0.3133
 5441DDP     C232644   2.863   4.178  18.887  0.0179  0.0430  0.0244
 5441DDP     C332645   2.838   4.823  20.285 -0.1825 -0.3076 -0.0876
 5441DDP     C432646   2.057   4.781  19.422 -0.2604 -0.2390 -0.2479
 5442DDP     C132647  22.842  20.455  15.762  0.2631  0.1318  0.0907
 5442DDP     P132648  22.454  20.587  15.982  0.0037  0.1843  0.0419
 5442DDP     P232649  22.858  20.181  15.482 -0.1022  0.0008  0.3479
 5442DDP     C232650  22.978  19.879  15.310  0.1354 -0.2572 -0.1303
 5442DDP     C332651  22.185  20.664  16.235 -0.1874 -0.2773 -0.0894
 5442DDP     C432652  23.157  20.298  15.958 -0.0616  0.1438 -0.1879
 5443DDP     C132653   0.818  14.838   6.730  0.0861  0.0856 -0.0198
 5443DDP     P132654   0.858  15.268   6.854 -0.1839 -0.0704  0.3187
 5443DDP     P232655   0.904  14.410   6.565  0.2350 -0.0775  0.1198
 5443DDP     C232656   0.942  13.880   6.524 -0.0684 -0.1339  0.2177
 5443DDP     C332657   1.143  15.405   7.241 -0.1017 -0.0004 -0.1352
 5443DDP     C432658   0.492  14.744   6.915 -0.1246  0.2410 -0.1054
 5444DDP     C132659  27.679  22.745   2.376 -0.0974  0.2089 -0.3010
 5444DDP     P132660  27.347  22.942   2.606  0.1842 -0.0197 -0.1796
 5444DDP     P232661  27.792  23.082   2.006  0.2943 -0.1555 -0.2536
 5444DDP     C232662  27.521  23.331   1.713  0.1942 -0.0414 -0.0599
 5444DDP     C332663  27.413  23.134   2.840  0.1870 -0.1409  0.0097
 5444DDP     C432664  27.692  22.330   2.373 -0.2371  0.1765  0.0923
 5445DDP     C132665   5.520   5.793   0.152 -0.3168 -0.1720 -0.0784
 5445DDP     P132666   5.480   5.471   0.407  0.5048 -0.0336  0.1574
 5445DDP     P232667   5.231   6.089   0.352  0.1936  0.2322  0.0390
 5445DDP     C232668   5.075   6.287   0.679 -0.0466 -0.0308 -0.3522
 5445DDP     C332669   5.809   5.335   0.682 -0.0010 -0.1835 -0.1442
 5445DDP     C432670   5.476   5.645  30.019 -0.0450  0.0527 -0.3249
 5446DDP     C132671  24.956  23.669  10.298 -0.0523  0.1958 -0.2698
 5446DDP     P132672  24.652  23.657  10.704  0.1498  0.3357  0.1474
 5446DDP     P232673  24.743  23.493   9.899  0.0651 -0.1995 -0.1892
 5446DDP     C232674  24.518  23.606   9.623  0.0514 -0.1876 -0.0658
 5446DDP     C332675  24.608  23.485  11.125 -0.1164 -0.2496 -0.1973
 5446DDP     C432676  25.316  23.657  10.325 -0.0443 -0.0809 -0.0184
 5447DDP     C132677   8.984   3.484   7.809  0.0509 -0.1320 -0.1278
 5447DDP     P132678   9.079   3.272   8.224 -0.1866 -0.0291  0.0099
 5447DDP     P232679   9.272   3.360   7.369  0.2795  0.1516  0.1713
 5447DDP     C232680   9.250   3.562   6.896 -0.0301 -0.1736  0.0497
 5447DDP     C332681   9.036   3.259   8.647 -0.0680  0.0745 -0.0342
 5447DDP     C432682   8.735   3.810   7.872 -0.1115 -0.0429 -0.1378
 5448DDP     C132683   2.276  22.395   9.488 -0.0070  0.0655  0.1564
 5448DDP     P132684   2.154  21.989   9.477 -0.1031 -0.3277  0.0596
 5448DDP     P232685   2.207  22.754   9.774  0.2282 -0.1591  0.0514
 5448DDP     C232686   2.356  23.059   9.985 -0.1882  0.1241  0.0491
 5448DDP     C332687   2.254  21.581   9.541 -0.1087 -0.2798 -0.0973
 5448DDP     C432688   2.583  22.490   9.259 -0.1513 -0.0475 -0.1858
 5449DDP     C132689  16.729  19.579  13.685  0.1360 -0.0882 -0.5641
 5449DDP     P132690  16.868  19.109  13.723  0.1625  0.0460 -0.5226
 5449DDP     P232691  16.449  19.675  14.080 -0.0095 -0.0812  0.2334
 5449DDP     C232692  16.181  19.959  14.360  0.5083 -0.0289 -0.2662
 5449DDP     C332693  16.571  18.716  13.675 -0.3496 -0.0913  0.3099
 5449DDP     C432694  16.772  19.795  13.291 -0.3100  0.1780 -0.0890
 5450DDP     C132695   2.224   3.966   8.793  0.0036  0.1598 -0.1722
 5450DDP     P132696   2.170   4.408   8.562  0.3218 -0.0904 -0.1077
 5450DDP     P232697   1.869   3.726   8.852 -0.3732 -0.4065  0.1127
 5450DDP     C232698   1.659   3.379   9.080  0.1804 -0.1756 -0.0239
 5450DDP     C332699   2.395   4.832   8.304 -0.2231 -0.2840 -0.0236
 5450DDP     C432700   2.561   3.746   8.859 -0.0204 -0.1468  0.0291
 5451DDP     C132701  28.118   3.752  19.027  0.0659 -0.0528 -0.4116
 5451DDP     P132702  28.408   3.760  18.656  0.0875 -0.2644  0.4905
 5451DDP     P232703  27.806   4.106  19.095  0.2891  0.0678  0.1230
 5451DDP     C232704  27.273   4.106  19.055 -0.3095 -0.1514  0.1756
 5451DDP     C332705  28.677   3.522  18.433 -0.2719 -0.0302  0.0141
 5451DDP     C432706  28.149   3.350  19.149  0.0942  0.0224  0.0358
 5452DDP     C132707  16.184   8.314  24.357  0.0405 -0.0739  0.0656
 5452DDP     P132708  16.489   8.111  24.657  0.3605 -0.0646  0.1567
 5452DDP     P232709  16.348   8.455  24.031  0.0415 -0.1079 -0.1081
 5452DDP     C232710  16.744   8.333  23.750  0.2598  0.0377 -0.0372
 5452DDP     C332711  16.836   7.788  24.803  0.4763 -0.6601 -0.3949
 5452DDP     C432712  15.779   8.401  24.390  0.1250 -0.0781 -0.1502
 5453DDP     C132713  21.326  16.143   0.216 -0.2031  0.1405 -0.0427
 5453DDP     P132714  21.571  16.424   0.552 -0.4366 -0.0873  0.0259
 5453DDP     P232715  21.322  15.784   0.330 -0.0960 -0.0303 -0.2547
 5453DDP     C232716  21.320  15.437   0.442  0.0938 -0.2753 -0.3820
 5453DDP     C332717  21.646  16.836   0.688 -0.0888  0.0597  0.1358
 5453DDP     C432718  21.603  16.120  30.122  0.3092  0.2474 -0.1357
 5454DDP     C132719  10.289   5.633  13.575  0.0760 -0.0675  0.4495
 5454DDP     P132720   9.950   5.658  13.906 -0.0731 -0.4211 -0.0189
 5454DDP     P232721  10.348   5.256  13.487 -0.2860  0.0366 -0.3490
 5454DDP     C232722  10.033   4.932  13.323  0.0785 -0.1083  0.1043
 5454DDP     C332723   9.703   5.991  14.084  0.1265 -0.1435  0.2523
 5454DDP     C432724  10.490   5.917  13.385 -0.0399  0.0179 -0.0039
 5455DDP     C132725  15.032  16.763  24.313 -0.1699 -0.2238  0.0230
 5455DDP     P132726  14.965  17.249  24.436 -0.4638  0.0678  0.0277
 5455DDP     P232727  15.361  16.588  24.449 -0.2289  0.0466 -0.1593
 5455DDP     C232728  15.797  16.614  24.764 -0.0223 -0.0276  0.3400
 5455DDP     C332729  15.293  17.567  24.721  0.1788  0.0426 -0.0253
 5455DDP     C432730  14.870  16.552  24.024 -0.0344 -0.3998 -0.3916
 5456DDP     C132731  11.914   9.976  29.860 -0.0913 -0.0803 -0.1283
 5456DDP     P132732  12.176  10.265  29.757 -0.0866  0.2211 -0.0815
 5456DDP     P232733  11.628   9.678  29.760  0.1779  0.2334  0.1520
 5456DDP     C232734  11.427   9.370  29.957  0.1314 -0.1706 -0.3147
 5456DDP     C332735  12.518  10.630  29.914  0.0338  0.1920  0.1620
 5456DDP     C432736  12.032   9.921  30.260  0.1250 -0.0009 -0.0569
 5457DDP     C132737  26.980  24.466  18.808 -0.0340  0.0468 -0.0779
 5457DDP     P132738  26.979  24.142  18.523  0.2687 -0.2847 -0.0280
 5457DDP     P232739  27.088  24.393  19.222  0.0835 -0.1183  0.3233
 5457DDP     C232740  27.339  24.122  19.417  0.0996 -0.0450 -0.0395
 5457DDP     C332741  26.635  23.821  18.322 -0.1286  0.2017 -0.0039
 5457DDP     C432742  27.085  24.833  18.647  0.1943  0.1269 -0.0735
 5458DDP     C132743  19.265   2.920   3.425 -0.0148  0.0940 -0.1072
 5458DDP     P132744  19.339   2.925   3.841 -0.0346 -0.1584  0.2138
 5458DDP     P232745  19.228   3.306   3.149  0.2199  0.2914 -0.0865
 5458DDP     C232746  19.580   3.536   3.140 -0.2037 -0.0467 -0.0436
 5458DDP     C332747  19.307   2.705   4.249 -0.0699  0.5551  0.0599
 5458DDP     C432748  19.174   2.422   3.178  0.3668  0.0685 -0.0339
 5459DDP     C132749  10.968   4.244   0.084 -0.0230  0.1415 -0.1108
 5459DDP     P132750  10.632   4.169   0.367 -0.0828 -0.1773  0.5012
 5459DDP     P232751  11.217   4.474   0.109 -0.1613 -0.0588  0.0113
 5459DDP     C232752  11.543   4.732   0.355 -0.0895 -0.0311 -0.2452
 5459DDP     C332753  10.538   4.552   0.509 -0.2104 -0.0080 -0.0806
 5459DDP     C432754  10.943   3.949  30.115 -0.3556  0.1179 -0.1830
 5460DDP     C132755  23.961   3.803   2.237 -0.2425  0.1949  0.2132
 5460DDP     P132756  23.684   3.510   2.337  0.0034  0.0296  0.0280
 5460DDP     P232757  24.238   3.796   1.914 -0.0027 -0.2282 -0.4095
 5460DDP     C232758  24.234   3.277   1.687  0.1573  0.0819  0.0351
 5460DDP     C332759  23.526   3.080   2.508 -0.1122 -0.2865 -0.2475
 5460DDP     C432760  23.988   4.174   2.378  0.2106 -0.4829 -0.0954
 5461DDP     C132761  22.251  18.641  24.647  0.0242 -0.1506  0.0726
 5461DDP     P132762  22.329  18.875  24.281 -0.1110  0.0259  0.1137
 5461DDP     P232763  22.413  18.314  24.829 -0.1676 -0.2840 -0.1421
 5461DDP     C232764  22.525  17.940  24.549  0.3918  0.2679 -0.2516
 5461DDP     C332765  22.723  18.974  24.193 -0.2601 -0.2156  0.0699
 5461DDP     C432766  21.837  18.728  24.650  0.1735 -0.1102 -0.3361
 5462DDP     C132767  19.517   8.134  17.309  0.0344 -0.2127  0.2001
 5462DDP     P132768  19.446   8.005  16.939 -0.0597  0.2297  0.1672
 5462DDP     P232769  19.662   8.517  17.443 -0.4113 -0.0213  0.0082
 5462DDP     C232770  19.609   8.770  17.778  0.1011  0.2931  0.0589
 5462DDP     C332771  19.404   7.959  16.492 -0.0229 -0.0522 -0.0563
 5462DDP     C432772  19.336   7.964  17.553  0.1111 -0.2187 -0.0233
 5463DDP     C132773  30.109  22.122  27.112  0.0586  0.2272  0.1454
 5463DDP     P132774   0.054  22.335  27.290  0.0429  0.4006  0.1145
 5463DDP     P232775  30.144  21.778  26.737 -0.0535  0.0509 -0.0195
 5463DDP     C232776  29.855  21.387  26.599  0.2901  0.0578  0.1364
 5463DDP     C332777   0.067  22.631  27.686  0.2786  0.1739  0.1471
 5463DDP     C432778  29.656  22.285  27.125  0.1583  0.3572 -0.1111
 5464DDP     C132779  12.881  19.630   4.321 -0.0828 -0.1528 -0.0460
 5464DDP     P132780  12.575  19.706   3.955  0.1166 -0.0720 -0.0106
 5464DDP     P232781  12.802  19.763   4.706  0.0308 -0.2220 -0.0304
 5464DDP     C232782  12.819  19.568   5.027  0.1960 -0.0232  0.0456
 5464DDP     C332783  12.552  19.517   3.576 -0.1103 -0.0473 -0.1320
 5464DDP     C432784  13.247  19.410   4.210 -0.1653  0.1157 -0.0904
 5465DDP     C132785  19.749  17.431  27.438 -0.4578  0.1900 -0.1408
 5465DDP     P132786  20.069  17.800  27.388  0.0811  0.2080 -0.0411
 5465DDP     P232787  19.739  17.071  27.673 -0.3272 -0.2017  0.1656
 5465DDP     C232788  19.742  16.625  27.664  0.0536  0.0002 -0.0596
 5465DDP     C332789  20.255  18.227  27.295  0.0436  0.3246  0.0494
 5465DDP     C432790  19.508  17.121  27.151  0.1693 -0.0453  0.1024
 5466DDP     C132791  23.016   4.679  18.043  0.0980  0.1569  0.2274
 5466DDP     P132792  23.478   4.768  17.929  0.0817 -0.0106 -0.1139
 5466DDP     P232793  22.868   4.435  18.499  0.4416  0.0981 -0.0540
 5466DDP     C232794  22.993   4.379  18.948 -0.1026  0.0979 -0.0091
 5466DDP     C332795  23.886   4.845  17.847  0.1072 -0.1910  0.0071
 5466DDP     C432796  22.676   4.785  17.714 -0.1185  0.1049  0.1040
 5467DDP     C132797  24.780  10.757   9.132 -0.1155 -0.0294  0.3194
 5467DDP     P132798  24.879  11.043   8.886  0.0259  0.1136 -0.0776
 5467DDP     P232799  24.365  10.861   9.196 -0.4560 -0.2474  0.1460
 5467DDP     C232800  24.085  10.944   8.927 -0.2131  0.1398  0.0101
 5467DDP     C332801  25.011  11.306   8.574 -0.1626 -0.0599  0.3627
 5467DDP     C432802  24.860  10.300   9.345 -0.0484  0.3121 -0.1559
 5468DDP     C132803  15.783  20.385   4.474  0.1028 -0.1839  0.0484
 5468DDP     P132804  16.166  20.421   4.406  0.1576 -0.3033 -0.1020
 5468DDP     P232805  15.448  20.418   4.229  0.2550 -0.0482  0.0140
 5468DDP     C232806  15.261  20.467   3.804  0.0936 -0.0698 -0.4580
 5468DDP     C332807  16.560  20.473   4.310 -0.3140 -0.1549 -0.2185
 5468DDP     C432808  15.628  20.226   4.898  0.1704 -0.0971  0.0317
 5469DDP     C132809  29.256   2.010   1.382  0.4610 -0.3761  0.0786
 5469DDP     P132810  29.508   2.308   1.390 -0.1227  0.0107 -0.0252
 5469DDP     P232811  28.992   2.150   1.683 -0.1742 -0.2006 -0.3260
 5469DDP     C232812  29.015   2.492   2.042  0.2503 -0.1344  0.2748
 5469DDP     C332813  29.822   2.280   1.676 -0.1638  0.1682  0.2339
 5469DDP     C432814  29.381   1.545   1.373  0.0671 -0.3635 -0.1070
 5470DDP     C132815  15.144   8.336  23.638  0.3807 -0.0755  0.0296
 5470DDP     P132816  14.939   8.424  24.004 -0.2954  0.0258 -0.1580
 5470DDP     P232817  15.144   7.956  23.325 -0.1199 -0.1355  0.0547
 5470DDP     C232818  15.090   7.662  22.920  0.0408 -0.2573  0.0095
 5470DDP     C332819  14.621   8.861  24.170  0.3029 -0.2411 -0.0495
 5470DDP     C432820  15.522   8.668  23.563  0.2211 -0.1516  0.0253
 5471DDP     C132821  28.666  13.387  23.190  0.1413 -0.2242  0.2077
 5471DDP     P132822  28.899  13.228  23.621 -0.0981 -0.1570 -0.1531
 5471DDP     P232823  28.633  13.176  22.837 -0.2839  0.1780  0.1122
 5471DDP     C232824  28.719  12.821  22.494 -0.0159 -0.2578 -0.0321
 5471DDP     C332825  29.287  13.191  23.804  0.1361 -0.1283  0.2058
 5471DDP     C432826  28.558  13.782  23.299 -0.2974 -0.0982 -0.2038
 5472DDP     C132827   8.406   4.256  18.513 -0.0110 -0.0149  0.2145
 5472DDP     P132828   8.563   4.301  19.013 -0.0434  0.1775 -0.1110
 5472DDP     P232829   8.282   4.694  18.500  0.1465 -0.3681  0.2659
 5472DDP     C232830   8.186   5.219  18.585 -0.1809 -0.2540  0.1325
 5472DDP     C332831   8.442   4.183  19.395 -0.0299 -0.0011 -0.0700
 5472DDP     C432832   8.400   3.833  18.252  0.1473  0.0839 -0.0427
 5473DDP     C132833  28.669  28.801  25.702 -0.3134  0.0870 -0.3351
 5473DDP     P132834  28.773  28.444  25.983  0.1583 -0.2348 -0.0594
 5473DDP     P232835  28.982  28.792  25.285 -0.1410  0.0825 -0.0690
 5473DDP     C232836  29.396  29.015  25.298 -0.0056 -0.0324 -0.1346
 5473DDP     C332837  29.020  28.079  26.221  0.3006  0.0772  0.0865
 5473DDP     C432838  28.376  28.978  25.867  0.0304  0.0321  0.0939
 5474DDP     C132839   5.511  23.097  17.309  0.3199  0.0153 -0.0006
 5474DDP     P132840   5.524  23.522  17.482  0.0670  0.1376  0.0594
 5474DDP     P232841   5.242  22.955  17.028 -0.0605 -0.1860  0.0016
 5474DDP     C232842   5.123  23.204  16.666  0.1893  0.0730  0.0113
 5474DDP     C332843   5.335  23.692  17.785 -0.1883 -0.3602 -0.2308
 5474DDP     C432844   5.903  22.765  17.376  0.1017 -0.1457  0.1439
 5475DDP     C132845  16.932   8.406   4.230  0.1252 -0.0320 -0.3172
 5475DDP     P132846  16.818   8.138   4.438 -0.3141  0.5825  0.3588
 5475DDP     P232847  16.940   8.833   4.337 -0.0006 -0.2275  0.0495
 5475DDP     C232848  17.064   9.331   4.537 -0.0253 -0.1065  0.1529
 5475DDP     C332849  16.924   8.267   4.877 -0.0404 -0.3658 -0.0752
 5475DDP     C432850  16.941   8.432   3.784  0.2361 -0.0181  0.0030
 5476DDP     C132851   0.196  14.600   3.326 -0.0712  0.2316  0.1021
 5476DDP     P132852   0.540  14.483   3.592  0.0857  0.1454 -0.0697
 5476DDP     P232853   0.395  14.692   2.979  0.0994 -0.1058 -0.1454
 5476DDP     C232854   0.606  14.770   2.667  0.1878 -0.1942 -0.2890
 5476DDP     C332855   0.662  14.559   4.028 -0.3081  0.1727  0.2479
 5476DDP     C432856  30.080  14.287   3.339 -0.0753  0.1180 -0.0441
 5477DDP     C132857  17.349  20.683   9.463  0.4272 -0.2307  0.0249
 5477DDP     P132858  16.996  20.423   9.599 -0.0588 -0.0173  0.2032
 5477DDP     P232859  17.682  20.396   9.312 -0.1886 -0.3312 -0.0900
 5477DDP     C232860  17.833  20.330   8.888  0.3260 -0.0169  0.1324
 5477DDP     C332861  16.721  20.367   9.333  0.1382  0.1315 -0.0736
 5477DDP     C432862  17.340  21.105   9.673  0.1212  0.0482 -0.1831
 5478DDP     C132863  29.610   6.970  26.087 -0.0255 -0.0085 -0.3612
 5478DDP     P132864  29.837   6.975  25.702 -0.2572  0.0850  0.0052
 5478DDP     P232865  29.344   6.541  26.338  0.0380 -0.2179  0.4801
 5478DDP     C232866  29.383   6.231  26.663  0.0831 -0.2536  0.1464
 5478DDP     C332867  29.903   6.721  25.397  0.0752 -0.0045 -0.1590
 5478DDP     C432868  29.406   7.445  26.119 -0.1465  0.0670 -0.5044
 5479DDP     C132869  10.025   9.102  12.697  0.0123  0.2826 -0.2236
 5479DDP     P132870   9.873   8.921  12.397 -0.2246 -0.1567  0.0739
 5479DDP     P232871   9.805   9.535  12.551  0.1116 -0.3699 -0.1035
 5479DDP     C232872   9.676   9.892  12.457  0.0264  0.2479  0.0697
 5479DDP     C332873  10.123   8.875  11.996 -0.0240 -0.1832  0.1135
 5479DDP     C432874  10.323   9.051  13.051 -0.1402  0.1078 -0.0301
 5480DDP     C132875  17.317  21.368  22.789  0.0560  0.1480  0.2461
 5480DDP     P132876  16.845  21.487  22.851  0.2641 -0.3375  0.2034
 5480DDP     P232877  17.374  21.052  23.051 -0.5554  0.1291  0.0622
 5480DDP     C232878  17.367  20.667  23.111 -0.2918 -0.3458 -0.0577
 5480DDP     C332879  16.415  21.537  23.128  0.0227  0.1850 -0.0043
 5480DDP     C432880  17.656  21.478  22.690 -0.1054 -0.0928  0.1061
 5481DDP     C132881  12.770  22.776  19.265 -0.4329  0.0079 -0.3370
 5481DDP     P132882  12.900  22.589  19.015  0.0894  0.1782 -0.0417
 5481DDP     P232883  12.361  22.726  19.247  0.0573 -0.1074  0.1275
 5481DDP     C232884  11.986  22.782  19.140 -0.0880 -0.2522 -0.0711
 5481DDP     C332885  13.295  22.502  18.846  0.0471  0.1995 -0.2991
 5481DDP     C432886  12.974  23.136  19.515  0.2674 -0.4175  0.0701
 5482DDP     C132887   3.719  15.515  28.462 -0.3123  0.2430 -0.0418
 5482DDP     P132888   4.048  15.606  28.238  0.0187  0.0401  0.3245
 5482DDP     P232889   3.783  15.169  28.514 -0.0765  0.0557  0.2166
 5482DDP     C232890   3.879  14.744  28.385  0.1687 -0.1566  0.1536
 5482DDP     C332891   4.280  15.367  27.827 -0.1262  0.1341 -0.1983
 5482DDP     C432892   3.260  15.638  28.637 -0.0061  0.0288  0.1127
 5483DDP     C132893  11.942   6.639   6.227 -0.1895 -0.1561  0.2713
 5483DDP     P132894  12.012   6.438   5.841 -0.1139  0.2912 -0.0566
 5483DDP     P232895  11.801   7.071   6.279  0.2568 -0.1952 -0.0408
 5483DDP     C232896  11.456   7.213   6.559  0.1842 -0.0638  0.3466
 5483DDP     C332897  12.285   6.428   5.489  0.2536 -0.0013 -0.1586
 5483DDP     C432898  11.932   6.312   6.529 -0.2464  0.0542 -0.0142
 5484DDP     C132899  17.907  29.725  12.029  0.0263 -0.0429  0.1232
 5484DDP     P132900  17.818  29.281  12.119  0.0842 -0.1371 -0.0738
 5484DDP     P232901  17.809  29.626  11.608  0.1710 -0.1559 -0.1692
 5484DDP     C232902  17.495  29.440  11.433 -0.0238 -0.4579  0.0710
 5484DDP     C332903  17.632  29.048  11.830  0.0929 -0.2455 -0.1586
 5484DDP     C432904  17.813  30.080  12.165  0.1053  0.0180  0.0620
 5485DDP     C132905   1.560  21.336   0.452  0.0853 -0.0611  0.0438
 5485DDP     P132906   1.279  21.439   0.086 -0.2578 -0.1433  0.4875
 5485DDP     P232907   1.912  21.464   0.155  0.1189  0.0301 -0.2944
 5485DDP     C232908   2.090  21.503  30.091 -0.1584  0.1689  0.0133
 5485DDP     C332909   0.885  21.511  30.188 -0.0427  0.2412  0.0009
 5485DDP     C432910   1.365  21.404   0.861  0.0727  0.3253 -0.0219
 5486DDP     C132911  18.044  10.444  21.414 -0.1224  0.1419  0.0506
 5486DDP     P132912  18.102  10.978  21.457 -0.1115  0.0856 -0.0772
 5486DDP     P232913  18.302  10.154  21.269 -0.0052 -0.1355  0.0752
 5486DDP     C232914  18.185   9.737  21.011  0.0613 -0.1980 -0.3305
 5486DDP     C332915  18.264  11.399  21.585  0.0391 -0.1710 -0.1491
 5486DDP     C432916  17.577  10.324  21.529 -0.1976 -0.2157 -0.3013
 5487DDP     C132917  28.381  18.878  14.788 -0.1464  0.0352 -0.5441
 5487DDP     P132918  28.766  18.847  14.911  0.1975 -0.1018 -0.1830
 5487DDP     P232919  28.088  18.511  14.718 -0.0770  0.1030 -0.1960
 5487DDP     C232920  27.714  18.462  14.798 -0.0176  0.1736 -0.1709
 5487DDP     C332921  29.242  18.817  14.990  0.0635  0.0366 -0.2925
 5487DDP     C432922  28.323  19.287  14.654 -0.2061 -0.1998 -0.3043
 5488DDP     C132923  16.786  19.091   0.203  0.2633  0.1962 -0.3575
 5488DDP     P132924  16.966  19.476   0.365 -0.0682  0.0909 -0.3038
 5488DDP     P232925  16.964  18.865  30.232 -0.2058 -0.1631 -0.0730
 5488DDP     C232926  17.008  18.449  30.060 -0.1855 -0.3045  0.1084
 5488DDP     C332927  17.415  19.695   0.304  0.0728 -0.0502  0.1488
 5488DDP     C432928  16.357  19.143   0.327 -0.3789 -0.5363  0.0069
 5489DDP     C132929  29.498  29.337   1.391  0.0129  0.2523  0.2288
 5489DDP     P132930  29.657  29.369   1.700 -0.1076  0.2233  0.0815
 5489DDP     P232931  29.326  28.997   1.378 -0.0202  0.0870  0.1147
 5489DDP     C232932  29.156  28.612   1.707  0.2753 -0.0001 -0.0827
 5489DDP     C332933  29.863  29.209   2.047 -0.1434  0.2256  0.0620
 5489DDP     C432934  29.342  29.755   1.143  0.1217 -0.0339 -0.0453
 5490DDP     C132935   1.306   2.523   1.169 -0.2707 -0.2008  0.0730
 5490DDP     P132936   1.050   2.597   1.513  0.2431  0.4475 -0.0045
 5490DDP     P232937   1.806   2.517   1.197  0.1046  0.0043  0.0345
 5490DDP     C232938   2.180   2.650   0.897 -0.3059 -0.0741 -0.2786
 5490DDP     C332939   0.743   2.487   1.810  0.0164 -0.0965  0.0878
 5490DDP     C432940   1.243   2.168   0.749 -0.0211 -0.1920  0.1022
 5491DDP     C132941  10.082  13.586  23.031 -0.2229  0.1624  0.0019
 5491DDP     P132942  10.330  13.960  23.341  0.1327 -0.1016 -0.0117
 5491DDP     P232943  10.239  13.491  22.731 -0.0619 -0.0245 -0.0050
 5491DDP     C232944  10.167  13.502  22.347  0.1091 -0.2887 -0.0569
 5491DDP     C332945  10.530  14.189  23.701  0.1259 -0.1183 -0.1493
 5491DDP     C432946   9.690  13.398  23.136 -0.1275 -0.1955 -0.3755
 5492DDP     C132947  21.704  19.306  13.289  0.0120 -0.1612 -0.0985
 5492DDP     P132948  21.603  19.458  12.842 -0.1638 -0.0030 -0.1407
 5492DDP     P232949  21.876  19.580  13.568  0.0805 -0.2623 -0.2574
 5492DDP     C232950  21.714  19.821  13.857 -0.0318 -0.0057  0.0134
 5492DDP     C332951  21.384  19.677  12.588  0.2190 -0.4942  0.0320
 5492DDP     C432952  21.546  18.874  13.390  0.0813  0.3973  0.0335
 5493DDP     C132953  12.491   5.478   9.216  0.0453 -0.1968 -0.1791
 5493DDP     P132954  12.208   5.155   9.312  0.1676  0.0692  0.0096
 5493DDP     P232955  12.257   5.797   9.410  0.2145  0.2956 -0.4191
 5493DDP     C232956  11.888   5.972   9.468 -0.1360 -0.1063  0.2091
 5493DDP     C332957  12.065   4.776   9.320  0.2531 -0.2076 -0.1721
 5493DDP     C432958  12.976   5.453   9.308 -0.0655 -0.1457 -0.1452
 5494DDP     C132959  13.153  23.624  23.831 -0.2073 -0.2263 -0.2474
 5494DDP     P132960  12.852  23.500  23.650  0.0464 -0.0361  0.1774
 5494DDP     P232961  13.269  23.402  24.202 -0.1313  0.2868  0.0816
 5494DDP     C232962  13.323  23.073  24.575 -0.2153 -0.2433  0.1106
 5494DDP     C332963  12.447  23.233  23.648  0.3134  0.0613 -0.1671
 5494DDP     C432964  13.423  23.955  23.593 -0.0431 -0.1948  0.1023
 5495DDP     C132965  20.632   8.200   9.273 -0.2207  0.1461  0.0968
 5495DDP     P132966  20.381   7.740   9.311 -0.0800  0.4244  0.0716
 5495DDP     P232967  20.651   8.194   8.886 -0.4119 -0.0222  0.4233
 5495DDP     C232968  20.606   8.227   8.557  0.0400 -0.0807 -0.1914
 5495DDP     C332969  20.380   7.377   8.976  0.1105  0.0799 -0.1700
 5495DDP     C432970  20.908   8.378   9.585  0.0381 -0.1976  0.0742
 5496DDP     C132971   5.759  24.966   6.148 -0.3027  0.2356 -0.1920
 5496DDP     P132972   5.695  24.504   5.933 -0.0228  0.0352 -0.2929
 5496DDP     P232973   6.113  25.046   6.490 -0.2248  0.1258 -0.0308
 5496DDP     C232974   6.463  25.269   6.644  0.2584  0.0795 -0.0525
 5496DDP     C332975   5.697  24.099   5.767  0.0904 -0.2254  0.0012
 5496DDP     C432976   5.508  25.278   5.773  0.0184  0.1307 -0.1529
 5497DDP     C132977  27.421  20.901   7.603 -0.2182 -0.0629 -0.3274
 5497DDP     P132978  27.341  20.549   7.526  0.2009 -0.1915  0.0329
 5497DDP     P232979  27.119  21.070   7.974  0.2616 -0.1148 -0.0682
 5497DDP     C232980  27.157  21.429   8.406  0.2005 -0.0469  0.2924
 5497DDP     C332981  27.025  20.228   7.489 -0.0604  0.2385  0.1469
 5497DDP     C432982  27.855  21.086   7.418  0.0029  0.2507 -0.3472
 5498DDP     C132983   6.144  27.579   8.771 -0.0260  0.0304  0.0795
 5498DDP     P132984   6.344  27.671   9.118 -0.0537 -0.1446 -0.0301
 5498DDP     P232985   6.170  27.233   8.459  0.0196 -0.2515 -0.1964
 5498DDP     C232986   6.460  27.004   8.204 -0.0904 -0.2864 -0.1346
 5498DDP     C332987   6.246  27.660   9.579  0.2097  0.2224  0.0619
 5498DDP     C432988   5.662  27.756   8.749  0.2378  0.1168  0.0564
 5499DDP     C132989  12.298   2.468  27.307 -0.0041  0.4256 -0.0069
 5499DDP     P132990  12.207   1.893  27.421 -0.1132  0.1695  0.0312
 5499DDP     P232991  12.772   2.628  27.218  0.0174 -0.0861 -0.0239
 5499DDP     C232992  13.213   2.590  27.252 -0.0094 -0.3912 -0.1865
 5499DDP     C332993  12.130   1.473  27.495  0.1627 -0.2872  0.0203
 5499DDP     C432994  12.005   2.813  27.408 -0.1638  0.0238 -0.0757
 5500DDP     C132995  29.537  25.493  11.049  0.0154  0.0291  0.1807
 5500DDP     P132996  29.107  25.342  11.123  0.0215  0.1934 -0.4654
 5500DDP     P232997  29.953  25.507  11.257 -0.0227  0.0046  0.2303
 5500DDP     C232998  30.170  25.769  11.426  0.2308  0.2521  0.0735
 5500DDP     C332999  28.829  25.052  11.095 -0.2452  0.1773 -0.0089
 5500DDP     C433000  29.426  25.809  10.806 -0.0234  0.1485 -0.0773
 5501DDP     C133001   7.932  11.173  25.741 -0.0305 -0.1276  0.0677
 5501DDP     P133002   7.833  10.679  25.544 -0.1610  0.2107  0.1099
 5501DDP     P233003   8.287  11.426  25.599  0.0705  0.2586 -0.0350
 5501DDP     C233004   8.398  11.815  25.376  0.0273  0.0166 -0.1145
 5501DDP     C333005   7.542  10.458  25.482 -0.0854  0.0377 -0.1545
 5501DDP     C433006   7.557  11.394  25.925  0.0327 -0.1512 -0.0958
 5502DDP     C133007  17.638  21.458  23.186 -0.0553  0.1735  0.1081
 5502DDP     P133008  17.500  21.274  23.589  0.3406  0.0037 -0.1460
 5502DDP     P233009  17.955  21.159  23.125  0.1852  0.3089 -0.0126
 5502DDP     C233010  18.218  21.028  22.789  0.2501  0.3803  0.1589
 5502DDP     C333011  17.182  20.925  23.553  0.0457 -0.0047  0.1440
 5502DDP     C433012  17.496  21.791  23.044 -0.0286 -0.0381 -0.1092
 5503DDP     C133013  13.646  24.854   3.142 -0.0458  0.2939 -0.0505
 5503DDP     P133014  13.599  24.767   2.744  0.2586  0.0724 -0.2204
 5503DDP     P233015  13.703  24.580   3.466  0.0573 -0.1613  0.0556
 5503DDP     C233016  13.737  24.369   3.839  0.1258 -0.2363 -0.3152
 5503DDP     C333017  13.316  24.767   2.460  0.2522 -0.2593 -0.0510
 5503DDP     C433018  13.756  25.302   3.284  0.1471  0.1858 -0.1567
 5504DDP     C133019   0.978  19.696   1.979  0.0632 -0.0214 -0.1671
 5504DDP     P133020   0.909  19.540   2.359  0.0208 -0.6847  0.1027
 5504DDP     P233021   1.219  19.425   1.824 -0.2679 -0.0109  0.2682
 5504DDP     C233022   1.155  19.070   1.674 -0.0479  0.1157  0.0396
 5504DDP     C333023   0.653  19.306   2.488  0.1755 -0.0791 -0.0093
 5504DDP     C433024   0.767  20.110   1.940  0.1545  0.0440 -0.1137
 5505DDP     C133025  23.750   3.128  12.089  0.1536  0.1469  0.1439
 5505DDP     P133026  23.678   3.416  12.554  0.3102  0.2265 -0.1564
 5505DDP     P233027  23.691   2.740  12.113  0.0326  0.0337  0.3192
 5505DDP     C233028  23.713   2.403  12.429 -0.1817 -0.0790 -0.0487
 5505DDP     C333029  23.528   3.781  12.641  0.0177 -0.3807  0.0704
 5505DDP     C433030  24.020   3.181  11.716  0.0854 -0.1731  0.3093
 5506DDP     C133031   0.182  21.791  27.959 -0.2518 -0.0694 -0.3036
 5506DDP     P133032   0.057  21.587  28.412 -0.1489  0.2547  0.0064
 5506DDP     P233033   0.599  21.818  27.740 -0.2201  0.0945  0.1625
 5506DDP     C233034   0.999  21.683  27.875 -0.1421  0.0749  0.0156
 5506DDP     C333035   0.293  21.277  28.647 -0.0421 -0.1475  0.3179
 5506DDP     C433036  30.185  21.970  27.642 -0.0262 -0.2193  0.1200
 5507DDP     C133037  17.759  20.347  11.719 -0.1279  0.0423  0.0346
 5507DDP     P133038  17.746  20.375  11.244  0.0258 -0.0510  0.1961
 5507DDP     P233039  18.063  20.697  11.953  0.1651  0.0231 -0.2241
 5507DDP     C233040  18.249  21.092  12.084 -0.3664 -0.1459 -0.1674
 5507DDP     C333041  18.150  20.327  10.934 -0.3048 -0.0672  0.0353
 5507DDP     C433042  17.449  20.288  11.972 -0.2221  0.1284 -0.0825
 5508DDP     C133043  28.235  30.069  26.228  0.0466 -0.1376  0.0220
 5508DDP     P133044  27.958  29.750  26.060  0.1267  0.1274  0.0805
 5508DDP     P233045  28.386  30.030  26.700  0.1369  0.1503 -0.3192
 5508DDP     C233046  28.221  29.779  27.051 -0.0093  0.2541  0.0295
 5508DDP     C333047  27.450  29.687  26.055 -0.0710 -0.1513  0.0298
 5508DDP     C433048  28.357   0.007  26.046 -0.1520  0.2111 -0.2045
 5509DDP     C133049   8.174  10.558   3.165 -0.0372  0.0566 -0.1603
 5509DDP     P133050   8.509  10.262   3.465  0.4288  0.0087  0.0342
 5509DDP     P233051   7.858  10.342   2.973 -0.0530  0.1502  0.0436
 5509DDP     C233052   7.502  10.362   2.593  0.0048  0.3714  0.0761
 5509DDP     C333053   8.772   9.969   3.639  0.0122 -0.0109 -0.0084
 5509DDP     C433054   8.007  10.892   3.325  0.2540  0.2613  0.4377
 5510DDP     C133055  17.997  11.065   5.680 -0.1944 -0.2265 -0.0124
 5510DDP     P133056  18.160  10.750   5.864 -0.1131 -0.1068 -0.0100
 5510DDP     P233057  17.666  11.022   5.713 -0.1141  0.0758  0.0398
 5510DDP     C233058  17.218  10.845   5.787  0.0247 -0.0986  0.2891
 5510DDP     C333059  18.307  10.284   5.984  0.2223  0.0104  0.0100
 5510DDP     C433060  18.210  11.293   5.673  0.0752  0.0912 -0.1071
 5511DDP     C133061  14.813  24.791   3.520  0.1433  0.0455 -0.0752
 5511DDP     P133062  14.639  24.526   3.164  0.2242 -0.0582  0.0085
 5511DDP     P233063  15.200  25.104   3.392  0.1656 -0.0395  0.3018
 5511DDP     C233064  15.478  25.305   3.133  0.1548  0.4545 -0.0167
 5511DDP     C333065  14.389  24.548   2.771  0.0501  0.2871  0.1640
 5511DDP     C433066  14.603  24.831   3.818  0.0754  0.0473  0.0377
 5512DDP     C133067  29.530  15.026  24.834 -0.3548  0.2711  0.1881
 5512DDP     P133068  29.789  15.070  24.419  0.3521  0.0081  0.1333
 5512DDP     P233069  29.170  15.188  24.910 -0.0529  0.0793 -0.2388
 5512DDP     C233070  28.649  15.266  24.941 -0.1075 -0.3016  0.1274
 5512DDP     C333071  29.849  14.651  24.163 -0.1601 -0.1273  0.0338
 5512DDP     C433072  29.622  14.795  25.071  0.1072  0.0596  0.0985
 5513DDP     C133073  24.177   7.268  28.237 -0.2233 -0.1951  0.1687
 5513DDP     P133074  24.568   7.561  28.141  0.0725 -0.0921 -0.0402
 5513DDP     P233075  23.942   7.519  28.566 -0.1175 -0.2010  0.1894
 5513DDP     C233076  23.656   7.798  28.610  0.0731 -0.0117  0.0647
 5513DDP     C333077  24.984   7.798  28.100  0.0133  0.2397  0.1386
 5513DDP     C433078  24.141   6.810  28.176 -0.0526 -0.0222 -0.1117
 5514DDP     C133079  15.735  24.057  26.225 -0.1261 -0.2214 -0.2080
 5514DDP     P133080  15.399  24.364  26.025 -0.0887 -0.1299  0.1926
 5514DDP     P233081  15.563  23.821  26.391  0.0047 -0.4554 -0.0309
 5514DDP     C233082  15.585  23.399  26.527 -0.2799 -0.0715  0.1659
 5514DDP     C333083  15.451  24.221  25.590 -0.1407  0.1967 -0.0640
 5514DDP     C433084  16.185  24.101  26.297  0.1065  0.0043  0.1031
 5515DDP     C133085  29.137  23.981  11.896  0.1060 -0.0111 -0.2171
 5515DDP     P133086  29.262  23.656  11.610  0.1200  0.0247 -0.1075
 5515DDP     P233087  29.450  24.134  12.212  0.2576 -0.1793 -0.1062
 5515DDP     C233088  29.839  24.240  12.493  0.0189 -0.4068 -0.4577
 5515DDP     C333089  29.052  23.360  11.398 -0.0355  0.2987 -0.1243
 5515DDP     C433090  28.710  24.118  12.131 -0.0672  0.1646 -0.1727
 5516DDP     C133091  16.523  25.467   7.795  0.0987 -0.0066 -0.1176
 5516DDP     P133092  16.187  25.268   7.556 -0.1312  0.1997 -0.0396
 5516DDP     P233093  16.642  25.437   8.149 -0.0657 -0.1356 -0.1625
 5516DDP     C233094  16.555  25.616   8.576  0.0531  0.1679 -0.2821
 5516DDP     C333095  16.332  25.108   7.160  0.0555 -0.1488 -0.0579
 5516DDP     C433096  16.649  25.922   7.661 -0.0283 -0.0624  0.2735
 5517DDP     C133097   6.466  26.532  10.981 -0.5284 -0.0776 -0.0596
 5517DDP     P133098   6.734  26.701  11.255  0.0523 -0.4036 -0.0172
 5517DDP     P233099   6.225  26.298  11.115  0.1317  0.2120 -0.1140
 5517DDP     C233100   6.394  25.829  11.324 -0.2661  0.1978  0.1192
 5517DDP     C333101   6.815  27.161  11.385 -0.0958 -0.0190  0.3712
 5517DDP     C433102   6.370  26.708  10.574  0.2349  0.1471  0.0506
 5518DDP     C133103   2.014  14.086  28.197  0.0878 -0.0634 -0.1030
 5518DDP     P133104   1.792  13.795  28.005 -0.1583  0.2873  0.1092
 5518DDP     P233105   2.457  13.789  28.177 -0.1278 -0.1384 -0.3464
 5518DDP     C233106   2.761  13.609  28.480  0.2528  0.1741 -0.0124
 5518DDP     C333107   1.540  13.904  27.568 -0.0018 -0.2916 -0.0609
 5518DDP     C433108   1.934  14.358  28.523  0.0946  0.0817  0.1303
 5519DDP     C133109   6.239  11.743  11.899 -0.1362 -0.2190  0.1745
 5519DDP     P133110   6.298  11.721  11.404 -0.1578 -0.2334 -0.2578
 5519DDP     P233111   6.268  12.073  12.117 -0.1277 -0.1509  0.3361
 5519DDP     C233112   6.007  12.367  12.335  0.1285  0.0883  0.1700
 5519DDP     C333113   5.955  11.708  11.093 -0.1584  0.0531  0.0528
 5519DDP     C433114   6.152  11.330  12.036  0.2255  0.0564  0.2531
 5520DDP     C133115  25.278  22.828  10.632 -0.4026 -0.2580 -0.3877
 5520DDP     P133116  25.343  22.451  10.899 -0.2511 -0.2370 -0.2984
 5520DDP     P233117  25.473  22.985  11.128  0.1531  0.0118 -0.4078
 5520DDP     C233118  25.674  23.227  11.387 -0.4422 -0.0582 -0.0495
 5520DDP     C333119  25.449  22.434  11.258  0.1464  0.1400 -0.3571
 5520DDP     C433120  25.012  23.253  10.519 -0.0748 -0.1140  0.2567
 5521DDP     C133121  17.190  12.527  15.014 -0.0979  0.1314 -0.3255
 5521DDP     P133122  16.868  12.317  14.978  0.1190 -0.1068 -0.1866
 5521DDP     P233123  17.333  12.890  15.248  0.1247 -0.0727  0.3671
 5521DDP     C233124  17.633  13.172  15.424 -0.2919 -0.1808  0.1265
 5521DDP     C333125  16.428  12.166  15.045  0.3213 -0.2849 -0.0073
 5521DDP     C433126  17.525  12.329  14.778 -0.0717  0.2418  0.0542
 5522DDP     C133127  10.494   2.843   2.522 -0.0564 -0.1603 -0.1054
 5522DDP     P133128  10.221   3.122   2.835 -0.1445  0.0138 -0.0123
 5522DDP     P233129  10.871   2.572   2.636  0.1214 -0.3618  0.1367
 5522DDP     C233130  11.058   2.356   2.890  0.0137  0.2111  0.3338
 5522DDP     C333131   9.800   3.356   2.878 -0.1702  0.1472 -0.1184
 5522DDP     C433132  10.364   2.889   2.112  0.2107  0.0797 -0.0989
 5523DDP     C133133  21.679  10.249   3.033  0.1342 -0.0517  0.0513
 5523DDP     P133134  21.720  10.509   2.687 -0.0937  0.1006 -0.1405
 5523DDP     P233135  21.369  10.445   3.114 -0.0216 -0.3091 -0.1776
 5523DDP     C233136  21.157  10.781   3.226  0.3005  0.0834  0.3084
 5523DDP     C333137  21.889  10.707   2.378 -0.0351  0.2006 -0.1682
 5523DDP     C433138  21.654   9.760   3.215 -0.0081 -0.0934  0.0962
 5524DDP     C133139   1.796  19.111  14.767  0.1765  0.1580  0.0574
 5524DDP     P133140   1.379  19.041  14.962 -0.0535 -0.2316 -0.0984
 5524DDP     P233141   1.757  19.580  14.672 -0.1510 -0.2319 -0.2861
 5524DDP     C233142   1.769  19.965  14.877  0.0755 -0.2632  0.3331
 5524DDP     C333143   0.995  18.925  15.072 -0.0078  0.0110  0.2294
 5524DDP     C433144   2.153  18.989  15.004 -0.1321 -0.0406 -0.1560
 5525DDP     C133145   2.904   2.687  23.557  0.2098  0.1784  0.0480
 5525DDP     P133146   3.240   2.938  23.737 -0.3298  0.1161 -0.1054
 5525DDP     P233147   2.515   2.776  23.385  0.0608  0.1631  0.0410
 5525DDP     C233148   2.196   2.434  23.262  0.3164 -0.1752  0.4184
 5525DDP     C333149   3.319   3.356  23.693  0.1508 -0.0647 -0.2288
 5525DDP     C433150   2.770   2.262  23.551  0.1251  0.1461  0.0365
 5526DDP     C133151  25.345  11.663  15.340  0.3261  0.1278  0.1998
 5526DDP     P133152  25.321  11.923  14.973 -0.0460  0.0920 -0.3399
 5526DDP     P233153  25.288  11.630  15.792 -0.0673  0.2735  0.2023
 5526DDP     C233154  25.317  11.898  16.144 -0.4185  0.1384  0.0145
 5526DDP     C333155  25.266  12.026  14.497 -0.1283 -0.0493 -0.0606
 5526DDP     C433156  25.362  11.186  15.255  0.3394  0.0396  0.2941
 5527DDP     C133157  22.597   7.419  21.927  0.1471  0.0462 -0.1576
 5527DDP     P133158  22.197   7.311  21.599  0.2661  0.1598 -0.3494
 5527DDP     P233159  22.677   7.878  21.956 -0.2276  0.1248 -0.1813
 5527DDP     C233160  22.940   7.994  22.348 -0.0546  0.1818  0.0779
 5527DDP     C333161  22.000   7.431  21.253 -0.2022 -0.2054 -0.0647
 5527DDP     C433162  22.885   7.176  22.088 -0.2398 -0.2729 -0.0160
 5528DDP     C133163   2.590  16.193   9.206  0.1171  0.0497  0.1978
 5528DDP     P133164   2.610  16.227   8.771  0.0265  0.1033 -0.2368
 5528DDP     P233165   2.199  16.247   9.237 -0.0094 -0.4012 -0.2903
 5528DDP     C233166   1.755  16.175   9.364 -0.1273  0.1367 -0.2170
 5528DDP     C333167   2.363  16.512   8.506  0.1780  0.0538 -0.1861
 5528DDP     C433168   2.917  16.094   9.587 -0.2001  0.0338  0.0628
 5529DDP     C133169  16.747  10.824   4.408 -0.0600 -0.2436 -0.0801
 5529DDP     P133170  16.422  10.710   4.711  0.0691  0.2608  0.1857
 5529DDP     P233171  16.890  11.295   4.262  0.1942 -0.1582  0.1418
 5529DDP     C233172  17.155  11.342   3.959 -0.1751 -0.0257 -0.0605
 5529DDP     C333173  16.045  10.590   5.035  0.0656 -0.0227  0.0494
 5529DDP     C433174  16.927  10.487   4.075 -0.0811 -0.0868 -0.1201
 5530DDP     C133175  24.267   7.007  24.820 -0.0571  0.0072 -0.0006
 5530DDP     P133176  24.212   6.824  24.475  0.1393 -0.1660 -0.0717
 5530DDP     P233177  24.096   6.830  25.212  0.3109  0.1744 -0.1341
 5530DDP     C233178  23.919   7.147  25.494  0.1898  0.0202  0.0229
 5530DDP     C333179  24.414   6.700  24.088  0.3283  0.3615  0.0015
 5530DDP     C433180  24.045   7.347  25.067 -0.4173 -0.0040  0.2625
 5531DDP     C133181  28.776  10.154   8.818  0.0438 -0.1697 -0.3174
 5531DDP     P133182  28.558   9.902   9.175 -0.1150  0.2834 -0.1369
 5531DDP     P233183  28.592  10.504   8.777 -0.0759  0.0013  0.1048
 5531DDP     C233184  28.418  10.743   8.433 -0.0192 -0.0060 -0.2691
 5531DDP     C333185  28.576   9.533   9.551  0.5015 -0.1382  0.4155
 5531DDP     C433186  29.164  10.197   8.747 -0.1653  0.1903  0.0563
 5532DDP     C133187  28.258  18.121  18.047  0.1354  0.2038 -0.1302
 5532DDP     P133188  27.892  18.242  18.357 -0.2407  0.0815 -0.3654
 5532DDP     P233189  28.638  18.233  18.193 -0.0534  0.0595  0.0744
 5532DDP     C233190  28.850  18.116  18.616 -0.2234  0.0870  0.1769
 5532DDP     C333191  27.814  18.000  18.659 -0.1681 -0.0027  0.1770
 5532DDP     C433192  28.444  17.724  17.830  0.1967 -0.0800  0.0237
 5533DDP     C133193  21.948   0.192  23.427 -0.0393 -0.1901 -0.1653
 5533DDP     P133194  22.234  30.162  23.542 -0.0473  0.1708  0.1364
 5533DDP     P233195  22.009   0.065  23.031 -0.1515  0.2290 -0.1534
 5533DDP     C233196  21.721  30.255  22.860 -0.0026  0.0178 -0.2298
 5533DDP     C333197  22.265  29.744  23.753 -0.0637 -0.0562  0.0999
 5533DDP     C433198  21.713   0.166  23.693 -0.0985 -0.1298  0.1024
 5534DDP     C133199  20.281  26.682   7.765  0.2850  0.1773 -0.1330
 5534DDP     P133200  20.641  26.497   7.976 -0.0116  0.1267  0.0695
 5534DDP     P233201  20.649  26.731   7.557 -0.2245 -0.1125 -0.0714
 5534DDP     C233202  21.002  26.696   7.249  0.0678  0.2767  0.2309
 5534DDP     C333203  20.932  26.132   8.067 -0.1617  0.1222 -0.0104
 5534DDP     C433204  20.041  27.065   7.566 -0.1012 -0.1796 -0.1158
 5535DDP     C133205   7.074  26.946  29.152 -0.3658 -0.1375  0.3554
 5535DDP     P133206   6.725  27.115  28.899 -0.1345 -0.0447  0.1005
 5535DDP     P233207   7.369  27.067  28.952  0.0505  0.0878 -0.0872
 5535DDP     C233208   7.569  26.992  28.635  0.1661  0.1744 -0.3079
 5535DDP     C333209   6.530  27.469  28.887  0.0106 -0.0354  0.1068
 5535DDP     C433210   7.002  26.542  29.396 -0.0605 -0.0391  0.0459
 5536DDP     C133211  10.441  16.263  23.848  0.2354  0.1931  0.0608
 5536DDP     P133212  10.552  16.551  24.157  0.3120  0.1188 -0.0074
 5536DDP     P233213  10.511  15.860  23.905  0.0291  0.0641 -0.2304
 5536DDP     C233214  10.168  15.588  23.837  0.0126  0.0991  0.2744
 5536DDP     C333215  10.603  16.832  24.502 -0.0694  0.0744  0.2490
 5536DDP     C433216  10.086  16.267  23.627 -0.4027  0.1137  0.0683
 5537DDP     C133217  23.013   0.933  29.441  0.2075 -0.0051 -0.0832
 5537DDP     P133218  23.353   0.584  29.647 -0.1828 -0.0656  0.1764
 5537DDP     P233219  22.956   0.877  28.996 -0.2608 -0.2283 -0.0131
 5537DDP     C233220  22.524   0.793  28.725  0.0980 -0.0463  0.0670
 5537DDP     C333221  23.559   0.268  29.783  0.1828 -0.0237  0.0805
 5537DDP     C433222  22.922   1.442  29.435  0.1387 -0.0280  0.2649
 5538DDP     C133223  29.660  17.353  14.788  0.2738 -0.0077 -0.0714
 5538DDP     P133224  29.905  17.223  15.127 -0.0817  0.2994  0.0235
 5538DDP     P233225  29.201  17.346  14.726 -0.3430 -0.1706  0.1409
 5538DDP     C233226  28.786  17.437  14.887 -0.0590  0.2339 -0.2196
 5538DDP     C333227  29.944  17.130  15.572 -0.0808  0.0108  0.2288
 5538DDP     C433228  29.821  17.278  14.426  0.1888 -0.0252  0.0751
 5539DDP     C133229  16.386  10.806  16.384  0.0426 -0.0769 -0.1561
 5539DDP     P133230  15.935  10.831  16.522 -0.1176  0.2993 -0.0134
 5539DDP     P233231  16.488  10.846  15.986 -0.0652  0.1046  0.3271
 5539DDP     C233232  16.499  11.224  15.621 -0.0046 -0.1636  0.1996
 5539DDP     C333233  15.531  10.753  16.302  0.0284  0.1970  0.1702
 5539DDP     C433234  16.553  10.737  16.743 -0.2178  0.0111  0.0636
 5540DDP     C133235   0.305   1.205  29.077  0.3689  0.1194 -0.1353
 5540DDP     P133236   0.613   1.554  29.165 -0.2096 -0.0546 -0.1022
 5540DDP     P233237   0.480   0.761  29.150 -0.1645  0.0807  0.0480
 5540DDP     C233238   0.832   0.465  29.338  0.4761  0.0228 -0.3707
 5540DDP     C333239   0.680   1.880  29.561  0.3911  0.1182  0.0211
 5540DDP     C433240  30.200   1.309  28.898 -0.1409  0.1655 -0.0135
 5541DDP     C133241   1.267  26.597  21.624  0.3937 -0.2259 -0.1458
 5541DDP     P133242   1.556  26.631  21.909 -0.0980  0.0614  0.0024
 5541DDP     P233243   0.797  26.526  21.601 -0.0529  0.1301 -0.3033
 5541DDP     C233244   0.464  26.233  21.524 -0.0929  0.0465 -0.0567
 5541DDP     C333245   2.002  26.579  22.012 -0.5394 -0.0960 -0.0845
 5541DDP     C433246   1.538  26.640  21.235 -0.1912 -0.0888  0.2217
 5542DDP     C133247  18.566  26.126  12.707  0.1007 -0.3024 -0.0026
 5542DDP     P133248  18.724  26.061  12.308  0.1044 -0.0902 -0.1780
 5542DDP     P233249  18.294  25.812  12.797  0.1444  0.0349  0.0621
 5542DDP     C233250  18.291  25.406  12.891  0.0381 -0.2069  0.2112
 5542DDP     C333251  18.624  26.267  11.938 -0.1475  0.1545  0.1570
 5542DDP     C433252  18.621  26.527  12.962  0.4560  0.3670  0.1380
 5543DDP     C133253   0.794   7.320  25.866 -0.3030 -0.1538  0.1945
 5543DDP     P133254   0.428   7.253  25.592  0.0501 -0.4340 -0.1803
 5543DDP     P233255   1.223   7.295  25.739  0.1397 -0.2186 -0.0350
 5543DDP     C233256   1.660   7.313  25.666 -0.2037  0.0392 -0.0628
 5543DDP     C333257   0.030   7.547  25.470 -0.1961  0.0097 -0.3220
 5543DDP     C433258   0.704   7.431  26.407 -0.1631 -0.0159 -0.1849
 5544DDP     C133259  27.826  15.460  27.329 -0.0773 -0.0108  0.1707
 5544DDP     P133260  28.111  15.569  27.564 -0.2085 -0.0295 -0.4791
 5544DDP     P233261  27.649  15.739  27.017 -0.0266  0.1488 -0.0928
 5544DDP     C233262  27.428  15.945  26.659 -0.3046  0.3969  0.2571
 5544DDP     C333263  28.318  15.719  27.932 -0.3425 -0.0418  0.1482
 5544DDP     C433264  27.755  15.104  27.178 -0.3891 -0.1751 -0.2504
 5545DDP     C133265  13.736  19.991   7.006 -0.1765 -0.0568  0.0500
 5545DDP     P133266  13.503  20.294   6.846 -0.1433  0.0989  0.1524
 5545DDP     P233267  14.037  19.705   6.732 -0.0827 -0.0541  0.1263
 5545DDP     C233268  14.299  19.324   6.853 -0.1750 -0.1649  0.1470
 5545DDP     C333269  13.684  20.518   6.533 -0.2027 -0.1295 -0.0991
 5545DDP     C433270  13.521  19.753   7.327  0.2692  0.2983 -0.2619
 5546DDP     C133271   4.107   7.505  16.518 -0.2071  0.1635 -0.1038
 5546DDP     P133272   4.401   7.623  16.863 -0.2908 -0.0174  0.1714
 5546DDP     P233273   3.709   7.630  16.318  0.1671  0.0728  0.0765
 5546DDP     C233274   3.536   7.937  16.410  0.1689 -0.0602  0.1307
 5546DDP     C333275   4.746   7.934  17.038 -0.1282 -0.0487  0.1195
 5546DDP     C433276   4.099   7.348  16.143 -0.1241 -0.2986 -0.2597
 5547DDP     C133277  19.528   8.550   3.436 -0.0417 -0.0637  0.0147
 5547DDP     P133278  19.746   8.377   3.744 -0.1931 -0.2522 -0.1453
 5547DDP     P233279  19.789   8.789   3.198  0.0777 -0.0729 -0.0005
 5547DDP     C233280  20.194   8.959   3.155 -0.1183 -0.0355  0.0815
 5547DDP     C333281  20.040   8.182   3.692 -0.1216 -0.2877 -0.0940
 5547DDP     C433282  19.124   8.499   3.243 -0.0667 -0.0952  0.0986
 5548DDP     C133283  11.506   5.167   2.799  0.3947 -0.1003  0.0808
 5548DDP     P133284  11.737   5.354   3.057 -0.2956 -0.1700  0.0270
 5548DDP     P233285  11.765   5.061   2.440  0.0721 -0.0896 -0.1008
 5548DDP     C233286  12.053   5.142   2.162  0.2417 -0.0393  0.2475
 5548DDP     C333287  12.022   5.475   3.357 -0.1944 -0.2589  0.0775
 5548DDP     C433288  11.023   5.212   2.819 -0.2961  0.0799  0.3055
 5549DDP     C133289  15.711  20.029   0.163 -0.2263 -0.2558 -0.0112
 5549DDP     P133290  15.659  20.382  30.281  0.1887 -0.0572  0.1032
 5549DDP     P233291  16.193  19.799   0.002 -0.1206  0.1963 -0.0144
 5549DDP     C233292  16.551  19.967  30.194 -0.3219 -0.0414 -0.0739
 5549DDP     C333293  15.428  20.658  30.092  0.1237 -0.1459  0.0066
 5549DDP     C433294  15.535  19.927   0.620  0.1309  0.4071 -0.1092
 5550DDP     C133295  26.747   0.448   2.426 -0.1023 -0.0749 -0.0577
 5550DDP     P133296  26.726   0.466   2.816  0.0334 -0.0456  0.3969
 5550DDP     P233297  26.908   0.211   2.209  0.3544 -0.3137  0.0079
 5550DDP     C233298  27.014  30.240   1.821 -0.1048 -0.0586  0.0645
 5550DDP     C333299  26.512   0.136   3.092 -0.1176 -0.0716 -0.0044
 5550DDP     C433300  26.524   0.692   2.177 -0.2280  0.0651  0.0771
 5551DDP     C133301  23.675   8.263  10.892  0.1536  0.3362  0.0995
 5551DDP     P133302  23.179   8.108  10.951 -0.0703 -0.5897  0.0421
 5551DDP     P233303  24.081   8.072  10.751  0.2054 -0.0228  0.0713
 5551DDP     C233304  24.356   8.284  10.551 -0.1858 -0.0705 -0.1400
 5551DDP     C333305  22.835   7.876  10.903  0.3839 -0.1514 -0.1754
 5551DDP     C433306  23.401   8.691  10.859 -0.2696  0.1847  0.1680
 5552DDP     C133307  19.675  22.594  26.330  0.1695 -0.3145  0.1025
 5552DDP     P133308  19.609  22.655  26.804  0.0528 -0.1629 -0.0751
 5552DDP     P233309  20.026  22.449  26.232  0.2061  0.1435  0.0492
 5552DDP     C233310  20.320  22.548  26.005 -0.1963  0.2515  0.1673
 5552DDP     C333311  19.843  22.690  27.160 -0.0924  0.1972 -0.2085
 5552DDP     C433312  19.370  22.747  25.963 -0.4132 -0.0095 -0.1024
 5553DDP     C133313  15.570  21.557   9.023  0.2001  0.0255  0.2375
 5553DDP     P133314  15.444  21.050   8.904  0.0840 -0.2126  0.4783
 5553DDP     P233315  15.835  21.597   9.249  0.1007  0.0299  0.0385
 5553DDP     C233316  16.024  21.462   9.517 -0.0140  0.1127 -0.1161
 5553DDP     C333317  15.424  20.653   8.722  0.0198 -0.0473 -0.2576
 5553DDP     C433318  15.314  21.926   8.908  0.1182  0.2857  0.0872
 5554DDP     C133319   7.088  21.274   7.372  0.1679  0.1694 -0.4267
 5554DDP     P133320   6.957  21.706   7.509  0.1702  0.1742  0.0043
 5554DDP     P233321   7.096  20.962   7.663  0.1727 -0.0808 -0.3499
 5554DDP     C233322   7.216  20.941   8.074  0.1406  0.1305 -0.0697
 5554DDP     C333323   6.793  22.184   7.506  0.1344 -0.1959  0.1374
 5554DDP     C433324   7.207  21.263   6.960 -0.0669  0.1072  0.2256
 5555DDP     C133325  14.544  14.869  15.646 -0.0982 -0.3085  0.2231
 5555DDP     P133326  14.448  15.045  16.078  0.0495 -0.1967  0.1631
 5555DDP     P233327  14.698  14.468  15.614  0.1153 -0.0928 -0.1273
 5555DDP     C233328  14.953  14.152  15.708 -0.1264  0.1168  0.0079
 5555DDP     C333329  14.415  15.245  16.474  0.0198 -0.0992  0.2047
 5555DDP     C433330  14.527  15.022  15.208 -0.2237  0.0158 -0.1379
 5556DDP     C133331  28.058   0.490   1.116 -0.1584  0.1873  0.0085
 5556DDP     P133332  28.466   0.297   1.097 -0.2091  0.1360  0.1908
 5556DDP     P233333  27.775   0.262   0.845 -0.1214  0.0015 -0.1482
 5556DDP     C233334  27.474   0.124   0.659 -0.0737 -0.0271  0.0154
 5556DDP     C333335  28.921   0.521   1.206 -0.0860  0.0328  0.1157
 5556DDP     C433336  27.886   0.898   1.261 -0.1402  0.2500 -0.1061
 5557DDP     C133337  20.553  19.830  21.893 -0.0756  0.0591  0.0726
 5557DDP     P133338  20.801  20.005  22.270  0.2236 -0.0121 -0.0833
 5557DDP     P233339  20.723  19.799  21.512  0.0320  0.2793 -0.1670
 5557DDP     C233340  20.861  20.053  21.221  0.1439 -0.1228 -0.0742
 5557DDP     C333341  21.048  20.060  22.583 -0.1059  0.0436  0.2032
 5557DDP     C433342  20.064  19.656  21.979 -0.1433 -0.1448 -0.2184
 5558DDP     C133343   6.138  22.318   0.019 -0.1014 -0.1533  0.0277
 5558DDP     P133344   5.938  22.138   0.336  0.0601  0.0674 -0.0968
 5558DDP     P233345   6.538  22.229  30.254 -0.0501  0.1590 -0.1722
 5558DDP     C233346   6.799  22.519   0.121 -0.2684 -0.3179  0.0566
 5558DDP     C333347   5.653  21.839   0.611 -0.2437  0.0462  0.0976
 5558DDP     C433348   5.849  22.705  30.214 -0.3899  0.2107  0.2555
 5559DDP     C133349   4.093  18.240  10.883  0.1677  0.1843  0.1649
 5559DDP     P133350   4.228  18.335  11.351  0.2700  0.0228 -0.0876
 5559DDP     P233351   4.009  18.586  10.728  0.1459 -0.1652 -0.3448
 5559DDP     C233352   3.787  18.997  10.504  0.0362  0.4340 -0.1651
 5559DDP     C333353   4.421  18.075  11.735  0.0800 -0.1171 -0.1457
 5559DDP     C433354   4.297  17.904  10.687  0.1180  0.3264 -0.1880
 5560DDP     C133355  20.685  11.174   9.739 -0.0155  0.0120  0.1028
 5560DDP     P133356  20.810  11.647   9.896  0.3632  0.2733 -0.1584
 5560DDP     P233357  20.963  10.799   9.831 -0.0920  0.0269 -0.3928
 5560DDP     C233358  20.896  10.590  10.404 -0.1321  0.2119  0.1849
 5560DDP     C333359  20.698  12.009   9.691 -0.3074 -0.2727 -0.1501
 5560DDP     C433360  20.467  11.193   9.403  0.0264 -0.2690  0.2351
 5561DDP     C133361  21.868  23.837  11.933  0.0479  0.1582 -0.0108
 5561DDP     P133362  21.607  23.472  11.902  0.2455  0.2430 -0.2093
 5561DDP     P233363  21.907  24.182  11.945  0.0667 -0.1525  0.0329
 5561DDP     C233364  22.091  24.647  11.897 -0.1089  0.3022 -0.3661
 5561DDP     C333365  21.653  23.050  11.904  0.3514  0.1030  0.0517
 5561DDP     C433366  22.173  23.601  11.601  0.2879  0.0460  0.1554
 5562DDP     C133367  22.376  30.157  17.597  0.2687  0.0361  0.0383
 5562DDP     P133368  22.046   0.047  17.468  0.0557  0.1607 -0.0002
 5562DDP     P233369  22.559  29.760  17.378  0.0818 -0.0577 -0.1296
 5562DDP     C233370  22.762  29.407  17.315 -0.2564  0.0567 -0.1749
 5562DDP     C333371  22.030   0.345  17.116 -0.1478  0.1826 -0.0796
 5562DDP     C433372  22.511  30.302  18.020 -0.0750  0.1037  0.0217
 5563DDP     C133373   2.077  14.191  17.229 -0.0422 -0.1662 -0.0004
 5563DDP     P133374   2.426  14.092  17.522 -0.0889 -0.1254 -0.0840
 5563DDP     P233375   1.686  14.037  17.306 -0.1464 -0.3786  0.0364
 5563DDP     C233376   1.583  13.622  17.404 -0.2596  0.1334  0.0801
 5563DDP     C333377   2.862  13.897  17.726 -0.2557  0.1272  0.1503
 5563DDP     C433378   2.005  14.572  16.928 -0.0342  0.1602  0.2095
 5564DDP     C133379  22.247   4.318  23.992 -0.1293 -0.1319  0.3167
 5564DDP     P133380  22.340   4.180  23.605  0.0546  0.1039  0.1972
 5564DDP     P233381  22.231   4.643  24.113  0.0128 -0.0415 -0.0206
 5564DDP     C233382  22.648   4.847  24.237  0.1573  0.0982 -0.0704
 5564DDP     C333383  22.518   3.980  23.244 -0.0004  0.1564  0.2163
 5564DDP     C433384  21.886   4.063  24.062 -0.1204 -0.0536 -0.2060
 5565DDP     C133385   3.534  16.366  29.694  0.4747 -0.2451 -0.0514
 5565DDP     P133386   3.291  16.379  29.280 -0.2960 -0.2609  0.2918
 5565DDP     P233387   3.945  16.301  29.762  0.1279  0.1134  0.3000
 5565DDP     C233388   4.270  16.263  29.839  0.1990 -0.0392 -0.1228
 5565DDP     C333389   2.881  16.559  29.145 -0.2813  0.1691  0.2673
 5565DDP     C433390   3.213  16.281  30.107  0.4690  0.1258 -0.0827
 5566DDP     C133391  15.570   0.847  13.933  0.1573 -0.0429 -0.0543
 5566DDP     P133392  15.661   0.793  14.280  0.0857  0.0425 -0.0713
 5566DDP     P233393  15.586   0.484  13.735  0.1889 -0.2057  0.0343
 5566DDP     C233394  15.818   0.232  13.605 -0.0693  0.1228  0.2625
 5566DDP     C333395  15.464   0.712  14.666  0.2637  0.0732  0.0822
 5566DDP     C433396  15.293   1.030  13.941 -0.1316 -0.0402 -0.0547
 5567DDP     C133397   2.331  27.563  18.937  0.0818 -0.3923  0.3436
 5567DDP     P133398   2.107  27.939  18.616  0.1002  0.0462 -0.1822
 5567DDP     P233399   1.957  27.582  19.206  0.2131  0.1803 -0.1039
 5567DDP     C233400   1.688  27.591  19.544 -0.0982  0.0009  0.0699
 5567DDP     C333401   2.244  28.018  18.167  0.0923 -0.1253 -0.0916
 5567DDP     C433402   2.723  27.396  18.903  0.0134 -0.1237 -0.0090
 5568DDP     C133403   1.979  29.003   5.843  0.1435  0.1887 -0.1111
 5568DDP     P133404   2.142  28.704   5.678  0.2356 -0.1223 -0.2477
 5568DDP     P233405   1.630  29.016   5.624  0.2052 -0.1321  0.3385
 5568DDP     C233406   1.199  29.266   5.592 -0.1110 -0.1845 -0.0496
 5568DDP     C333407   2.295  28.831   5.287 -0.2594  0.2327  0.1675
 5568DDP     C433408   2.217  29.302   6.069 -0.0489 -0.3482 -0.1111
 5569DDP     C133409  16.526   7.158  12.877 -0.2770  0.2021  0.1231
 5569DDP     P133410  16.442   7.107  13.316  0.1304 -0.0934 -0.4193
 5569DDP     P233411  16.793   7.441  12.713  0.0292  0.0460  0.1362
 5569DDP     C233412  16.774   7.893  12.889 -0.1782 -0.4891  0.0990
 5569DDP     C333413  16.604   7.260  13.607  0.1068 -0.0609  0.0583
 5569DDP     C433414  16.180   7.019  12.713  0.2043  0.3291  0.0453
 5570DDP     C133415   1.065  28.351  30.051  0.0265 -0.0127  0.1288
 5570DDP     P133416   1.205  28.021  29.767 -0.1389 -0.0446 -0.2065
 5570DDP     P233417   1.321  28.460   0.145 -0.1555  0.0657 -0.0287
 5570DDP     C233418   1.262  28.442   0.587  0.0745  0.1852  0.0838
 5570DDP     C333419   1.596  27.895  29.890 -0.1824  0.0502 -0.0750
 5570DDP     C433420   0.706  28.420  29.926 -0.0088 -0.0824  0.2309
 5571DDP     C133421   6.325   4.848  14.812 -0.3257  0.0507  0.3059
 5571DDP     P133422   6.506   5.317  14.814 -0.2818 -0.0300 -0.0270
 5571DDP     P233423   6.126   5.014  15.249 -0.0610 -0.3190  0.2095
 5571DDP     C233424   5.960   5.020  15.692 -0.0267  0.0487 -0.0130
 5571DDP     C333425   6.868   5.495  14.685 -0.2339 -0.2755  0.1103
 5571DDP     C433426   6.137   4.695  14.425 -0.1539  0.1181 -0.3201
 5572DDP     C133427   4.682   7.569  21.432  0.0249 -0.1019 -0.1646
 5572DDP     P133428   4.820   7.960  21.662  0.1722 -0.3254 -0.1678
 5572DDP     P233429   4.336   7.603  21.269 -0.1474 -0.1936  0.3642
 5572DDP     C233430   3.917   7.608  21.327  0.1806 -0.0652  0.2732
 5572DDP     C333431   4.565   8.294  21.717 -0.1767 -0.0268 -0.0353
 5572DDP     C433432   4.955   7.198  21.507  0.1742  0.1942  0.0345
 5573DDP     C133433  17.852  17.371  23.917  0.1918  0.0393 -0.0681
 5573DDP     P133434  18.169  17.488  23.633 -0.0861  0.2144 -0.0075
 5573DDP     P233435  18.033  17.445  24.349  0.0324  0.0947  0.1309
 5573DDP     C233436  18.394  17.657  24.600 -0.1381 -0.0906 -0.0016
 5573DDP     C333437  18.387  17.389  23.240 -0.1499 -0.3460 -0.0993
 5573DDP     C433438  17.545  17.103  23.751  0.1175 -0.1327  0.0840
 5574DDP     C133439  10.708  19.719   6.968  0.0832 -0.2358 -0.1943
 5574DDP     P133440  10.329  19.900   6.861 -0.0466 -0.1656 -0.0679
 5574DDP     P233441  10.922  20.047   6.654 -0.0163 -0.1099  0.2177
 5574DDP     C233442  11.128  20.468   6.665 -0.1320  0.0200  0.0694
 5574DDP     C333443   9.997  20.166   6.633 -0.0623  0.0456 -0.2858
 5574DDP     C433444  10.862  19.516   7.282  0.0073 -0.2053  0.1930
 5575DDP     C133445  14.351  18.939  10.562 -0.0219  0.1303  0.2806
 5575DDP     P133446  14.203  19.198  10.150 -0.1189  0.0625 -0.2762
 5575DDP     P233447  14.206  18.560  10.652  0.1529  0.2034 -0.1561
 5575DDP     C233448  13.926  18.258  10.878 -0.3554  0.0553  0.2977
 5575DDP     C333449  14.360  19.583   9.894 -0.3580 -0.2466  0.3740
 5575DDP     C433450  14.337  19.243  10.886  0.1431 -0.1452 -0.2551
 5576DDP     C133451   0.866  22.347  11.790 -0.1504 -0.2103 -0.0282
 5576DDP     P133452   0.511  22.582  11.889  0.0547 -0.0113 -0.1056
 5576DDP     P233453   1.243  22.386  11.959 -0.3687  0.1664 -0.0385
 5576DDP     C233454   1.460  22.517  12.290 -0.2504  0.0189 -0.2370
 5576DDP     C333455   0.501  22.698  12.318  0.4649  0.1557 -0.1433
 5576DDP     C433456   0.735  21.972  11.642 -0.2488  0.2022 -0.1135
 5577DDP     C133457  19.900  19.598  17.906 -0.0236 -0.2324 -0.3894
 5577DDP     P133458  19.863  19.168  17.838 -0.2926  0.0598  0.3154
 5577DDP     P233459  19.650  19.739  17.696  0.1155  0.1845 -0.0418
 5577DDP     C233460  19.317  19.896  17.612 -0.2163  0.0367 -0.5257
 5577DDP     C333461  20.195  18.931  17.776 -0.2399  0.0377  0.1794
 5577DDP     C433462  20.218  19.792  18.141  0.1710 -0.2689  0.0166
 5578DDP     C133463   5.170  19.882  20.614 -0.0679  0.1400  0.0549
 5578DDP     P133464   5.280  20.289  20.701 -0.3311 -0.1857  0.4231
 5578DDP     P233465   4.937  19.763  20.203 -0.3183  0.0242 -0.2987
 5578DDP     C233466   4.746  19.722  19.732 -0.2486 -0.0985  0.2519
 5578DDP     C333467   5.058  20.529  20.874  0.0974 -0.0702  0.1564
 5578DDP     C433468   5.269  19.604  20.941 -0.2692  0.0306  0.2526
 5579DDP     C133469   5.540  23.483  11.426  0.2634  0.1687  0.0210
 5579DDP     P133470   5.309  23.419  11.072 -0.3649  0.3020  0.0339
 5579DDP     P233471   5.706  23.794  11.370  0.1376  0.0039  0.0982
 5579DDP     C233472   5.910  24.154  11.269  0.0554 -0.3125  0.0494
 5579DDP     C333473   5.045  23.326  10.734 -0.3698 -0.0591 -0.0113
 5579DDP     C433474   5.564  23.219  11.659 -0.1216 -0.0864 -0.2649
 5580DDP     C133475   5.137  13.335  28.162  0.0703  0.0139 -0.0421
 5580DDP     P133476   5.212  12.856  28.350  0.1056 -0.0223 -0.1277
 5580DDP     P233477   5.557  13.530  28.021  0.3111 -0.4433 -0.2043
 5580DDP     C233478   5.675  13.839  27.721  0.1310 -0.2229  0.1867
 5580DDP     C333479   5.020  12.520  28.742  0.0402 -0.0157  0.2742
 5580DDP     C433480   4.715  13.454  28.013 -0.0068 -0.1436 -0.0031
 5581DDP     C133481  10.756  13.505  22.691 -0.0436  0.1518  0.0894
 5581DDP     P133482  10.494  13.909  22.872 -0.1810  0.0548 -0.3676
 5581DDP     P233483  10.860  13.077  22.841 -0.2192 -0.2391  0.1040
 5581DDP     C233484  10.807  12.730  23.122 -0.0654  0.1493 -0.0785
 5581DDP     C333485  10.493  14.331  22.692  0.1689  0.0672  0.0034
 5581DDP     C433486  10.735  13.415  22.231 -0.2113 -0.0620 -0.0444
 5582DDP     C133487  11.840  17.555  27.360 -0.1478  0.0105 -0.2044
 5582DDP     P133488  11.396  17.495  27.613 -0.1921 -0.1191 -0.0812
 5582DDP     P233489  11.789  18.025  27.077 -0.0051  0.2708 -0.2355
 5582DDP     C233490  11.484  18.099  26.824  0.2008 -0.2170  0.4922
 5582DDP     C333491  11.077  17.767  27.790  0.1472 -0.1955 -0.4855
 5582DDP     C433492  12.275  17.368  27.435  0.3263  0.3001  0.2900
 5583DDP     C133493   9.324  27.307   8.445 -0.2248 -0.1934 -0.0982
 5583DDP     P133494   9.178  27.338   8.032  0.0643  0.1036  0.2010
 5583DDP     P233495   9.103  27.108   8.700  0.4267 -0.0594 -0.2109
 5583DDP     C233496   8.810  26.856   8.800 -0.1182 -0.3698  0.0800
 5583DDP     C333497   9.472  27.215   7.739  0.0650  0.2768 -0.2677
 5583DDP     C433498   9.657  27.685   8.486  0.2616  0.1089  0.0784
 5584DDP     C133499  25.445  13.486   9.908 -0.2460  0.2062  0.5095
 5584DDP     P133500  25.735  13.670   9.971 -0.1125 -0.0005  0.1152
 5584DDP     P233501  25.311  13.065  10.144  0.0172  0.2764 -0.0025
 5584DDP     C233502  24.966  12.740  10.272 -0.0527 -0.0945  0.0562
 5584DDP     C333503  26.092  13.863  10.119 -0.1382 -0.5381 -0.0189
 5584DDP     C433504  25.266  13.703   9.686 -0.1060  0.2173 -0.1692
 5585DDP     C133505  10.540  11.567  12.719 -0.1333  0.2547  0.0597
 5585DDP     P133506  10.701  11.233  13.040 -0.0788 -0.0527  0.1088
 5585DDP     P233507  10.791  11.840  12.497  0.0075  0.2542 -0.2239
 5585DDP     C233508  11.014  12.179  12.672  0.1561  0.3398 -0.2325
 5585DDP     C333509  10.784  11.219  13.507  0.1594 -0.1309  0.1689
 5585DDP     C433510  10.207  11.786  13.043 -0.2158 -0.1144 -0.0660
 5586DDP     C133511  11.812  12.491  25.166 -0.1650 -0.0385  0.0985
 5586DDP     P133512  11.728  12.183  25.068  0.1079  0.1679 -0.0990
 5586DDP     P233513  12.129  12.718  25.023 -0.1737 -0.0382 -0.0693
 5586DDP     C233514  12.585  12.710  24.975  0.0021  0.1441  0.0438
 5586DDP     C333515  11.618  11.757  25.092  0.0150  0.1747  0.2412
 5586DDP     C433516  11.558  12.654  25.566 -0.0407 -0.1602  0.0857
 5587DDP     C133517  11.042  28.619  26.912  0.3135 -0.1544  0.3812
 5587DDP     P133518  11.061  29.054  27.062  0.0346 -0.1228 -0.1005
 5587DDP     P233519  11.091  28.744  26.554  0.0606 -0.2769 -0.0209
 5587DDP     C233520  11.458  28.913  26.358 -0.2631 -0.1279 -0.2603
 5587DDP     C333521  10.791  29.153  27.403  0.2815  0.1562 -0.0733
 5587DDP     C433522  11.107  28.239  27.089 -0.0486  0.0213  0.0824
 5588DDP     C133523   8.409  29.175  12.900  0.1671  0.2879  0.2291
 5588DDP     P133524   8.329  28.718  12.816  0.0683  0.2733  0.1479
 5588DDP     P233525   8.298  29.415  13.351 -0.2316  0.0698  0.1193
 5588DDP     C233526   7.866  29.616  13.553  0.1952  0.0751  0.2293
 5588DDP     C333527   8.631  28.353  12.921 -0.1606  0.0838  0.0495
 5588DDP     C433528   8.745  29.380  12.711 -0.0267  0.0157  0.0576
 5589DDP     C133529   3.116  24.389  17.875 -0.3356  0.0699  0.0258
 5589DDP     P133530   2.929  23.943  18.021 -0.2399  0.0978  0.1707
 5589DDP     P233531   3.539  24.466  17.932  0.1126 -0.2053  0.0074
 5589DDP     C233532   3.894  24.648  17.700 -0.0520 -0.0472  0.0167
 5589DDP     C333533   2.972  23.491  18.046  0.1037 -0.0576  0.0006
 5589DDP     C433534   2.926  24.699  17.658  0.1883 -0.1740 -0.1906
 5590DDP     C133535  28.053  19.851   1.950 -0.1422  0.0660  0.3358
 5590DDP     P133536  27.650  19.759   1.733 -0.0458  0.1464 -0.1417
 5590DDP     P233537  28.385  19.712   1.724  0.2120 -0.0486  0.0587
 5590DDP     C233538  28.505  19.576   1.282  0.1302  0.3048 -0.0334
 5590DDP     C333539  27.385  19.497   1.772  0.3671 -0.1768 -0.1334
 5590DDP     C433540  28.228  20.184   2.307  0.2509  0.1778 -0.3131
 5591DDP     C133541  15.717   0.254   5.545  0.0513 -0.0746 -0.5216
 5591DDP     P133542  15.499   0.300   5.932  0.0127 -0.0786 -0.1352
 5591DDP     P233543  15.401   0.267   5.178  0.1072  0.0339  0.2638
 5591DDP     C233544  15.153  30.343   4.833 -0.2415  0.1784 -0.1488
 5591DDP     C333545  15.581   0.355   6.358  0.0863 -0.0347  0.0564
 5591DDP     C433546  16.197   0.384   5.527 -0.1678 -0.0219 -0.0530
 5592DDP     C133547  23.556  28.913   0.350 -0.1295  0.0956  0.1348
 5592DDP     P133548  23.323  29.050   0.789 -0.0992 -0.0698 -0.1670
 5592DDP     P233549  23.680  29.363   0.477 -0.0122 -0.2898  0.3180
 5592DDP     C233550  23.983  29.581   0.672 -0.2053 -0.1980 -0.1735
 5592DDP     C333551  23.158  29.165   1.142 -0.0083 -0.0670  0.0672
 5592DDP     C433552  23.375  28.512   0.141 -0.0286  0.2990  0.0019
 5593DDP     C133553   1.586  12.334   3.984  0.0926 -0.4157  0.1778
 5593DDP     P133554   1.635  12.308   4.352 -0.0064 -0.4107 -0.0183
 5593DDP     P233555   1.252  12.565   3.788 -0.2454  0.2410  0.2574
 5593DDP     C233556   0.881  12.837   3.580 -0.2218 -0.3741 -0.3930
 5593DDP     C333557   1.476  12.307   4.757  0.0259  0.3678  0.1140
 5593DDP     C433558   2.003  12.216   3.789 -0.0512 -0.1037  0.1640
 5594DDP     C133559  29.197  15.966   1.079  0.3198  0.2151  0.2800
 5594DDP     P133560  29.104  16.357   1.115  0.0099  0.0927 -0.1513
 5594DDP     P233561  28.910  15.597   1.238 -0.0698 -0.0044 -0.1262
 5594DDP     C233562  28.955  15.157   1.461 -0.3206  0.3757  0.0330
 5594DDP     C333563  28.818  16.590   1.342  0.0871 -0.0516 -0.0708
 5594DDP     C433564  29.538  15.954   0.724  0.0999 -0.3243  0.0218
 5595DDP     C133565  24.531  28.588  20.520 -0.1896  0.1354  0.1621
 5595DDP     P133566  24.361  28.339  20.792  0.1751 -0.0466  0.2897
 5595DDP     P233567  24.924  28.729  20.530  0.0693 -0.3261 -0.4738
 5595DDP     C233568  25.164  28.944  20.187 -0.1290 -0.1120 -0.1026
 5595DDP     C333569  24.063  28.310  21.055 -0.2864 -0.1314  0.1715
 5595DDP     C433570  24.421  28.681  20.116  0.1470 -0.0072  0.2502
 5596DDP     C133571   3.780  12.352  17.967  0.4519 -0.1734 -0.1123
 5596DDP     P133572   3.452  12.585  17.711 -0.0725  0.0098 -0.0155
 5596DDP     P233573   3.568  11.924  18.059  0.1001  0.1630 -0.2488
 5596DDP     C233574   3.633  11.673  18.402  0.2416  0.1072 -0.0312
 5596DDP     C333575   3.382  12.503  17.264 -0.0369 -0.1651  0.1179
 5596DDP     C433576   4.175  12.546  18.241 -0.0949  0.0336  0.0629
 5597DDP     C133577   5.179   3.580  28.817 -0.0812 -0.0874  0.2574
 5597DDP     P133578   4.998   3.311  29.094 -0.1295 -0.5567 -0.0009
 5597DDP     P233579   5.730   3.614  28.710  0.2100 -0.2490 -0.0148
 5597DDP     C233580   6.134   3.637  28.727  0.1205 -0.1740 -0.1919
 5597DDP     C333581   4.834   3.113  29.407 -0.3005 -0.0502  0.0842
 5597DDP     C433582   5.020   3.946  28.637 -0.0158  0.1651 -0.0102
 5598DDP     C133583  17.199  12.455   6.973 -0.0955  0.1759  0.0979
 5598DDP     P133584  16.913  12.533   6.684  0.0053  0.0225  0.2476
 5598DDP     P233585  17.566  12.595   7.141  0.2561  0.0384 -0.0760
 5598DDP     C233586  17.991  12.596   7.363  0.1808  0.0502 -0.2433
 5598DDP     C333587  16.654  12.439   6.366 -0.4281  0.1009  0.2235
 5598DDP     C433588  17.185  12.010   7.122 -0.1448  0.1845 -0.1993
 5599DDP     C133589   6.982  19.724  22.857  0.3590  0.1956  0.1235
 5599DDP     P133590   7.062  19.463  22.574 -0.0760 -0.1428  0.1878
 5599DDP     P233591   7.044  19.382  23.085 -0.1067 -0.0296  0.0846
 5599DDP     C233592   6.862  19.114  23.345 -0.2587  0.2650  0.3407
 5599DDP     C333593   6.716  19.265  22.309 -0.2449  0.1493 -0.1837
 5599DDP     C433594   6.894  20.150  22.981  0.2014 -0.2376  0.0398
 5600DDP     C133595  15.451  25.652  16.131 -0.0795 -0.1880 -0.3944
 5600DDP     P133596  15.522  25.325  15.865  0.1552  0.3090 -0.1386
 5600DDP     P233597  15.874  25.700  15.875 -0.0776  0.3455  0.0536
 5600DDP     C233598  16.207  25.447  15.652  0.0879 -0.1186 -0.0297
 5600DDP     C333599  15.570  25.016  15.577  0.2920 -0.1281 -0.0868
 5600DDP     C433600  15.461  25.757  16.580 -0.0431  0.0661  0.3523
 5601DDP     C133601  20.264   7.341  28.461  0.1909 -0.0235 -0.2073
 5601DDP     P133602  20.320   7.207  28.908  0.2280 -0.1801  0.0331
 5601DDP     P233603  20.295   7.661  28.356  0.1308  0.1746 -0.1109
 5601DDP     C233604  20.112   8.019  28.583  0.0584  0.1344 -0.2018
 5601DDP     C333605  20.387   6.926  29.267 -0.2497 -0.1214 -0.0825
 5601DDP     C433606  20.296   7.017  28.180  0.0888  0.0723  0.0753
 5602DDP     C133607  12.913  23.713   3.617  0.1310  0.2405  0.1711
 5602DDP     P133608  13.363  23.917   3.583 -0.1791  0.0170  0.1039
 5602DDP     P233609  12.736  23.555   3.333 -0.0402 -0.1291  0.2914
 5602DDP     C233610  12.830  23.234   3.099 -0.1970 -0.2537 -0.1952
 5602DDP     C333611  13.785  24.042   3.311 -0.2475 -0.3566 -0.2202
 5602DDP     C433612  12.801  23.573   4.100 -0.1260 -0.0480  0.1353
 5603DDP     C133613  11.013   0.858  18.132 -0.0701 -0.5411  0.0158
 5603DDP     P133614  10.796   0.953  17.687 -0.1270 -0.1934 -0.1420
 5603DDP     P233615  11.466   1.117  18.220  0.1399 -0.0406  0.1353
 5603DDP     C233616  11.782   1.227  17.920  0.0265  0.1510 -0.3064
 5603DDP     C333617  10.772   1.124  17.278 -0.1845 -0.1396 -0.0953
 5603DDP     C433618  10.891   0.428  18.315 -0.0401 -0.1056  0.3141
 5604DDP     C133619  19.238  11.371  29.642 -0.1020 -0.1685  0.0811
 5604DDP     P133620  18.822  11.142  29.503 -0.1155  0.0248 -0.4531
 5604DDP     P233621  19.539  11.302  30.025 -0.4641 -0.1352 -0.3771
 5604DDP     C233622  19.650  11.366   0.094  0.3544  0.1270 -0.3758
 5604DDP     C333623  18.388  11.160  29.482  0.1725  0.1383 -0.2631
 5604DDP     C433624  19.269  11.779  29.316  0.1911 -0.2453 -0.0301
 5605DDP     C133625  14.755   7.815  16.552  0.0214  0.0065 -0.1324
 5605DDP     P133626  14.512   7.601  16.928 -0.1264  0.0661  0.2209
 5605DDP     P233627  14.496   7.739  16.153 -0.4729  0.3560  0.0632
 5605DDP     C233628  14.434   7.885  15.680 -0.1710  0.2824  0.1847
 5605DDP     C333629  14.216   7.422  17.294 -0.1245 -0.0786  0.4027
 5605DDP     C433630  15.087   8.167  16.632 -0.0448 -0.0233 -0.1873
 5606DDP     C133631  25.560  29.064  30.235  0.1370  0.1261  0.0276
 5606DDP     P133632  25.585  29.480   0.234 -0.0403 -0.3355  0.0613
 5606DDP     P233633  25.525  28.664   0.197 -0.0811  0.2001 -0.1662
 5606DDP     C233634  25.664  28.488   0.549 -0.0228  0.1079  0.0255
 5606DDP     C333635  25.501  29.680   0.610 -0.4602 -0.1386 -0.0074
 5606DDP     C433636  25.438  29.186  29.797  0.0740 -0.0325  0.1036
 5607DDP     C133637  21.415  11.862   6.454  0.2238  0.1787  0.1220
 5607DDP     P133638  21.621  11.557   6.069  0.1215  0.1681 -0.0957
 5607DDP     P233639  21.181  12.272   6.562  0.0354  0.2172 -0.0182
 5607DDP     C233640  20.761  12.440   6.548  0.0425  0.2699 -0.3440
 5607DDP     C333641  21.659  11.158   5.854  0.2703 -0.2424  0.2160
 5607DDP     C433642  21.739  11.713   6.704  0.3352  0.1253  0.1755
 5608DDP     C133643   0.631  18.549  17.130 -0.5458 -0.1876  0.0371
 5608DDP     P133644   0.993  18.588  17.376  0.0042  0.1971 -0.0648
 5608DDP     P233645   0.517  18.949  16.849 -0.2740  0.0574 -0.0071
 5608DDP     C233646   0.593  19.393  16.694 -0.1126 -0.1789 -0.0901
 5608DDP     C333647   0.918  18.817  17.862  0.0707 -0.1025  0.2060
 5608DDP     C433648   0.311  18.130  17.256  0.1516  0.1053  0.1285
 5609DDP     C133649  23.796   2.802   8.337  0.1345 -0.0288 -0.1425
 5609DDP     P133650  24.182   2.982   8.364 -0.1187  0.0561  0.2233
 5609DDP     P233651  23.759   2.442   8.165  0.0008  0.0505 -0.2076
 5609DDP     C233652  24.017   2.153   8.012 -0.1177 -0.0519 -0.2334
 5609DDP     C333653  24.316   3.192   7.913 -0.2038 -0.1965 -0.2295
 5609DDP     C433654  23.425   2.851   8.692  0.1594  0.0894 -0.1310
 5610DDP     C133655  10.144   1.763   2.849  0.1827  0.1025 -0.0095
 5610DDP     P133656  10.312   1.486   3.081 -0.0916 -0.1686 -0.1845
 5610DDP     P233657  10.210   2.075   3.085  0.0799 -0.1491  0.2868
 5610DDP     C233658  10.173   2.218   3.572 -0.0574 -0.3008 -0.3731
 5610DDP     C333659  10.346   1.156   3.295 -0.0971  0.2101 -0.2109
 5610DDP     C433660   9.946   1.772   2.508  0.1255 -0.0613 -0.1366
 5611DDP     C133661   7.318  10.819  19.021  0.1709  0.2534 -0.2581
 5611DDP     P133662   7.311  10.679  18.606  0.0143  0.1359  0.1879
 5611DDP     P233663   7.214  11.220  19.329  0.1587 -0.0098 -0.1610
 5611DDP     C233664   7.401  11.246  19.742 -0.3217 -0.0513  0.2762
 5611DDP     C333665   7.147  10.529  18.193  0.0315  0.0142 -0.0029
 5611DDP     C433666   7.598  10.546  19.304 -0.2227  0.1934 -0.2778
 5612DDP     C133667   3.708  27.996   6.541  0.0256  0.1663 -0.0984
 5612DDP     P133668   3.486  27.645   6.355 -0.0407  0.2749  0.1629
 5612DDP     P233669   4.090  28.078   6.386 -0.1497 -0.4921 -0.0170
 5612DDP     C233670   4.539  28.129   6.390 -0.0003 -0.0082 -0.0139
 5612DDP     C333671   3.708  27.417   5.967  0.2816  0.0351  0.1374
 5612DDP     C433672   3.542  28.311   6.840  0.0427 -0.3929 -0.1466
 5613DDP     C133673   6.960   8.835  30.327  0.1300  0.1918  0.2388
 5613DDP     P133674   7.290   9.005  30.004 -0.2926 -0.0059  0.0951
 5613DDP     P233675   6.700   9.098   0.187  0.3228  0.1545  0.1464
 5613DDP     C233676   6.633   9.185   0.661  0.0661 -0.2458 -0.0127
 5613DDP     C333677   7.205   9.189  29.577  0.2771  0.1223 -0.2121
 5613DDP     C433678   6.920   8.422   0.150 -0.3213 -0.2338 -0.0556
 5614DDP     C133679  11.148   5.778   4.317 -0.2489  0.0794 -0.1897
 5614DDP     P133680  10.786   5.966   4.457  0.0982 -0.0123  0.0081
 5614DDP     P233681  11.634   5.668   4.490 -0.1984 -0.0520  0.0982
 5614DDP     C233682  12.034   5.736   4.699 -0.0240  0.0717 -0.1779
 5614DDP     C333683  10.280   5.909   4.497 -0.0026  0.2068  0.0286
 5614DDP     C433684  11.043   5.628   3.960  0.4572 -0.0740  0.0242
 5615DDP     C133685  23.609  20.563  20.561 -0.2338  0.0158  0.1182
 5615DDP     P133686  23.566  20.059  20.501 -0.0904 -0.1371 -0.1405
 5615DDP     P233687  23.522  20.859  20.275 -0.1310 -0.0301  0.0546
 5615DDP     C233688  23.274  21.037  19.915  0.0801  0.2674 -0.1560
 5615DDP     C333689  23.771  19.697  20.396  0.3561 -0.0602 -0.0639
 5615DDP     C433690  23.898  20.753  20.803  0.3462 -0.2210  0.0644
 5616DDP     C133691  17.905   3.289  24.347  0.1182 -0.2402  0.1904
 5616DDP     P133692  18.218   3.387  24.655 -0.0162  0.2439  0.2267
 5616DDP     P233693  17.332   3.314  24.278  0.0430  0.2600  0.0634
 5616DDP     C233694  16.966   3.509  24.348  0.0718  0.1333 -0.1679
 5616DDP     C333695  18.534   3.599  24.910  0.0921  0.1647  0.2297
 5616DDP     C433696  17.897   2.998  24.116 -0.0760  0.0919  0.0748
 5617DDP     C133697  25.967   1.179  23.748 -0.3994  0.0618  0.0659
 5617DDP     P133698  26.340   1.124  24.021  0.0938  0.0871 -0.6282
 5617DDP     P233699  26.211   1.060  23.454 -0.2220 -0.0388 -0.2750
 5617DDP     C233700  26.596   0.999  23.467 -0.0621 -0.0564  0.1857
 5617DDP     C333701  26.202   1.056  24.498  0.0125 -0.1880 -0.1736
 5617DDP     C433702  25.516   1.394  23.872 -0.2946 -0.1725 -0.2826
 5618DDP     C133703  21.893  14.206  10.898 -0.0142  0.1116 -0.1704
 5618DDP     P133704  22.269  14.122  11.023 -0.2677  0.4259  0.0533
 5618DDP     P233705  21.682  14.489  11.127 -0.0863  0.1325 -0.0307
 5618DDP     C233706  21.551  14.969  11.077  0.1968  0.1409 -0.1580
 5618DDP     C333707  22.657  14.081  11.295  0.0836  0.0862 -0.2545
 5618DDP     C433708  21.904  14.063  10.499 -0.0421 -0.1468 -0.0748
 5619DDP     C133709   6.533  12.870  27.023  0.3422 -0.2740  0.1186
 5619DDP     P133710   6.172  12.905  27.209 -0.1406  0.3048  0.2741
 5619DDP     P233711   6.440  12.973  26.543 -0.2249  0.0992  0.2062
 5619DDP     C233712   6.241  13.267  26.277 -0.2124  0.0514 -0.0254
 5619DDP     C333713   5.860  12.911  27.485 -0.0729 -0.0242 -0.0965
 5619DDP     C433714   6.745  12.505  27.182 -0.2374  0.0403  0.3945
 5620DDP     C133715  12.403  26.097  11.565 -0.0556  0.2457  0.3005
 5620DDP     P133716  12.349  26.457  11.818  0.3159 -0.2914  0.1393
 5620DDP     P233717  12.332  25.630  11.749  0.1134 -0.2892  0.2577
 5620DDP     C233718  12.455  25.171  11.762 -0.1041 -0.1499  0.1137
 5620DDP     C333719  12.085  26.607  12.232  0.1095  0.0069  0.0186
 5620DDP     C433720  12.535  26.182  11.065 -0.2362  0.1448  0.0411
 5621DDP     C133721   0.091   5.518  25.252  0.3113 -0.2330  0.1202
 5621DDP     P133722   0.242   5.175  25.213 -0.0741  0.0682  0.1343
 5621DDP     P233723  30.029   5.581  25.237 -0.0885  0.2426 -0.1781
 5621DDP     C233724  29.607   5.493  25.105 -0.1442 -0.2103 -0.0217
 5621DDP     C333725   0.403   4.821  25.138  0.3730  0.0341  0.2774
 5621DDP     C433726   0.389   5.828  25.475 -0.2916  0.1837  0.3022
 5622DDP     C133727   0.896   1.245   8.372  0.1064  0.0178 -0.0243
 5622DDP     P133728   0.702   1.422   8.120  0.3025  0.3708  0.0761
 5622DDP     P233729   1.077   0.859   8.149  0.0486 -0.0938  0.1304
 5622DDP     C233730   1.130   0.943   7.787 -0.0545 -0.1320  0.1313
 5622DDP     C333731   0.639   1.844   8.120 -0.2506 -0.0456 -0.1835
 5622DDP     C433732   0.750   1.224   8.764 -0.1980  0.6273 -0.3001
 5623DDP     C133733   0.758   8.695  22.694 -0.0558 -0.1339  0.2879
 5623DDP     P133734   0.740   8.269  22.887 -0.0419 -0.0276  0.1140
 5623DDP     P233735   0.925   8.940  23.087 -0.2000  0.1635  0.0418
 5623DDP     C233736   0.890   9.114  23.471 -0.0613  0.2907 -0.0870
 5623DDP     C333737   0.593   7.983  22.970  0.0204 -0.0182  0.1050
 5623DDP     C433738   0.569   9.012  22.373 -0.0295 -0.1777  0.1461
 5624DDP     C133739  17.330   1.565   7.540 -0.1044  0.0413 -0.1522
 5624DDP     P133740  17.658   1.403   7.392 -0.2027 -0.1970  0.1559
 5624DDP     P233741  17.399   2.019   7.528 -0.1868  0.0013  0.1310
 5624DDP     C233742  17.134   2.358   7.548  0.1784  0.2423  0.2684
 5624DDP     C333743  18.196   1.362   7.490 -0.2034  0.1094  0.0094
 5624DDP     C433744  17.018   1.358   7.774 -0.1459 -0.0754 -0.0376
 5625DDP     C133745   6.778  10.928  23.431 -0.0163 -0.0412  0.0395
 5625DDP     P133746   6.804  10.652  23.673 -0.2543  0.2634  0.0546
 5625DDP     P233747   6.360  10.804  23.445 -0.0422  0.0093  0.1562
 5625DDP     C233748   5.880  10.668  23.360  0.2847  0.1973 -0.2722
 5625DDP     C333749   6.881  10.241  23.825  0.0969 -0.0341 -0.0023
 5625DDP     C433750   7.198  11.090  23.420  0.3438 -0.0606 -0.1468
 5626DDP     C133751  15.509  21.788   0.442  0.0641  0.0953 -0.2536
 5626DDP     P133752  15.545  21.783   0.061  0.1963  0.1058 -0.0852
 5626DDP     P233753  15.343  21.413   0.638 -0.2322  0.0010 -0.1271
 5626DDP     C233754  15.382  20.978   0.819 -0.0432 -0.2689  0.0223
 5626DDP     C333755  15.706  21.671  30.019  0.1383  0.0330 -0.0281
 5626DDP     C433756  15.545  22.205   0.641 -0.1872  0.0461  0.4086
 5627DDP     C133757   1.075   6.328  23.429  0.0721  0.0073  0.2577
 5627DDP     P133758   0.794   6.042  23.256 -0.0453  0.1780  0.1137
 5627DDP     P233759   1.065   6.731  23.604  0.0224 -0.2923  0.1526
 5627DDP     C233760   0.706   6.745  23.912 -0.0774  0.0299  0.2122
 5627DDP     C333761   0.976   5.774  22.910  0.0084 -0.0103  0.1354
 5627DDP     C433762   1.382   6.254  23.160  0.3297 -0.2091 -0.1304
 5628DDP     C133763   4.052  15.471  23.150  0.0106  0.2234 -0.1040
 5628DDP     P133764   4.150  15.867  23.333  0.0792  0.1668  0.3126
 5628DDP     P233765   3.878  15.268  23.474  0.0010 -0.0803 -0.2453
 5628DDP     C233766   3.885  15.036  23.985 -0.2586 -0.3125 -0.2779
 5628DDP     C333767   3.922  16.238  23.680 -0.3711 -0.1085  0.0489
 5628DDP     C433768   3.903  15.323  22.720  0.0111 -0.1562 -0.2089
 5629DDP     C133769  24.420  16.361  20.164 -0.1700 -0.1749  0.3422
 5629DDP     P133770  24.275  16.157  19.839  0.0066  0.2709  0.0457
 5629DDP     P233771  24.543  16.324  20.657 -0.0268  0.2459  0.0227
 5629DDP     C233772  24.427  16.409  21.042 -0.2446  0.1017 -0.0341
 5629DDP     C333773  24.163  15.728  19.497 -0.1189 -0.1266 -0.2112
 5629DDP     C433774  24.513  16.833  20.016  0.0147 -0.1171  0.3074
 5630DDP     C133775  14.452   9.469  20.216  0.1878 -0.0939 -0.0330
 5630DDP     P133776  14.139   9.725  20.508  0.1507 -0.1548 -0.0158
 5630DDP     P233777  14.591   9.081  20.345 -0.1989  0.2766 -0.1924
 5630DDP     C233778  15.050   8.924  20.443 -0.1851  0.2164 -0.3297
 5630DDP     C333779  14.054  10.081  20.722  0.0680  0.0376  0.1212
 5630DDP     C433780  14.652   9.639  19.971 -0.1494  0.2613  0.0763
 5631DDP     C133781  13.387   3.172  14.854  0.3103 -0.1027 -0.1376
 5631DDP     P133782  13.570   2.790  14.563  0.0292 -0.1959 -0.0126
 5631DDP     P233783  13.229   3.263  15.257  0.2597 -0.4065 -0.0656
 5631DDP     C233784  13.155   3.249  15.713  0.1231 -0.1156 -0.0739
 5631DDP     C333785  13.937   2.651  14.709 -0.1413 -0.0144  0.1692
 5631DDP     C433786  13.227   3.433  14.529  0.3874  0.0504 -0.0682
 5632DDP     C133787   9.023  16.105  30.259  0.1795 -0.2389 -0.2568
 5632DDP     P133788   8.983  16.138   0.454  0.1038  0.0693  0.2103
 5632DDP     P233789   9.211  15.698  30.078  0.0730 -0.1078 -0.1223
 5632DDP     C233790   9.195  15.381  30.052  0.2231 -0.0281  0.0096
 5632DDP     C333791   8.686  16.281   0.824  0.0801 -0.2467 -0.0409
 5632DDP     C433792   9.105  16.469  30.097 -0.0003  0.1343  0.1600
 5633DDP     C133793  26.526   1.829   3.057  0.0468  0.0055 -0.0739
 5633DDP     P133794  26.152   1.505   3.065 -0.1428  0.0141  0.0705
 5633DDP     P233795  26.448   2.033   2.659 -0.2005 -0.0811 -0.1527
 5633DDP     C233796  26.493   1.887   2.268 -0.2662 -0.2224 -0.1543
 5633DDP     C333797  25.921   1.288   2.781  0.4248  0.0768  0.0549
 5633DDP     C433798  26.809   2.067   3.271 -0.0255 -0.1169  0.2365
 5634DDP     C133799  15.901   2.033  16.155 -0.1506 -0.1511  0.3337
 5634DDP     P133800  15.955   1.974  15.755 -0.2140  0.0555  0.1823
 5634DDP     P233801  16.200   2.297  16.395 -0.0601  0.0103 -0.0142
 5634DDP     C233802  16.335   2.517  16.846 -0.0979  0.1185 -0.1925
 5634DDP     C333803  15.976   1.693  15.378  0.1531  0.1292  0.1351
 5634DDP     C433804  15.751   1.584  16.358 -0.1062  0.0789  0.2709
 5635DDP     C133805  26.793   4.254   7.218 -0.1268 -0.1204 -0.2511
 5635DDP     P133806  27.064   4.049   7.383 -0.4223 -0.0376  0.1339
 5635DDP     P233807  26.909   4.709   7.186  0.1680  0.0186  0.1147
 5635DDP     C233808  27.158   4.862   6.900 -0.1820 -0.2609 -0.1839
 5635DDP     C333809  27.305   4.040   7.748  0.1590 -0.0119 -0.1543
 5635DDP     C433810  26.465   3.910   7.319  0.0080  0.1619 -0.0293
 5636DDP     C133811  29.627  14.178  10.833  0.0793  0.1455 -0.1074
 5636DDP     P133812  29.462  13.779  10.714 -0.0322 -0.0331 -0.3864
 5636DDP     P233813  29.953  14.205  11.262 -0.1289 -0.4125  0.1238
 5636DDP     C233814  30.244  13.967  11.403  0.1464 -0.1520  0.1419
 5636DDP     C333815  29.079  13.857  10.413  0.0030  0.0306  0.1365
 5636DDP     C433816  29.551  14.603  10.719 -0.4469  0.0098  0.0477
 5637DDP     C133817   4.515  28.853  26.198 -0.0136  0.1171  0.0507
 5637DDP     P133818   4.825  28.745  25.945 -0.1994  0.1450  0.1788
 5637DDP     P233819   4.094  28.597  26.197  0.1623 -0.1248  0.0090
 5637DDP     C233820   4.030  28.117  26.306 -0.1018 -0.1325  0.0232
 5637DDP     C333821   4.987  28.452  25.859 -0.1569  0.2278  0.1916
 5637DDP     C433822   4.649  28.936  26.470  0.3092 -0.2397 -0.1010
 5638DDP     C133823   0.714  10.317   8.295  0.2003  0.0491  0.1313
 5638DDP     P133824   0.719  10.062   8.637 -0.2178  0.0256  0.2653
 5638DDP     P233825   1.018  10.091   7.864  0.0951 -0.0198 -0.3512
 5638DDP     C233826   1.151   9.770   7.602  0.1938  0.1822  0.0879
 5638DDP     C333827   0.403   9.833   8.862  0.3333 -0.1417  0.1570
 5638DDP     C433828   0.327  10.586   8.248 -0.0931 -0.0583  0.1273
 5639DDP     C133829  25.898  15.686  20.645  0.0556  0.2279  0.1503
 5639DDP     P133830  26.085  15.278  20.666 -0.2764 -0.1500  0.0039
 5639DDP     P233831  25.531  15.741  20.760  0.0821 -0.0590  0.1549
 5639DDP     C233832  25.236  15.954  20.846  0.1249 -0.1498 -0.0681
 5639DDP     C333833  26.242  15.024  21.084  0.0256  0.1889 -0.1134
 5639DDP     C433834  25.846  16.009  20.417 -0.2138 -0.0184  0.0795
 5640DDP     C133835  11.917  14.868  26.911  0.1235 -0.0432 -0.1773
 5640DDP     P133836  12.051  14.567  26.626 -0.0410  0.1796  0.2245
 5640DDP     P233837  11.862  14.781  27.391  0.0276 -0.1195 -0.0840
 5640DDP     C233838  12.278  14.911  27.679  0.3463  0.0777 -0.1094
 5640DDP     C333839  12.540  14.408  26.521 -0.2175  0.0400 -0.0198
 5640DDP     C433840  11.686  15.218  26.750 -0.0405 -0.2170 -0.1929
 5641DDP     C133841  25.024  22.149  14.160 -0.0730 -0.1279 -0.0044
 5641DDP     P133842  24.679  22.230  14.342  0.0787 -0.2491  0.2003
 5641DDP     P233843  25.269  21.901  14.485  0.1126  0.1379  0.1945
 5641DDP     C233844  25.624  22.218  14.648  0.1733  0.0011  0.2401
 5641DDP     C333845  24.278  22.454  14.298  0.3664 -0.0351  0.3264
 5641DDP     C433846  25.182  22.413  13.885 -0.1470  0.0896 -0.0158
 5642DDP     C133847  28.904  22.984  29.584  0.1514 -0.0712  0.2751
 5642DDP     P133848  29.046  23.146  29.298  0.1195  0.0693 -0.0933
 5642DDP     P233849  28.526  23.200  29.687 -0.1700  0.3900 -0.3756
 5642DDP     C233850  28.278  23.467  29.919  0.0020  0.1314  0.1663
 5642DDP     C333851  28.970  23.399  28.886 -0.1692 -0.1809 -0.1210
 5642DDP     C433852  28.828  22.598  29.851 -0.0717  0.0173 -0.1089
 5643DDP     C133853   6.966  18.296   3.616 -0.2488  0.1383 -0.3938
 5643DDP     P133854   7.123  18.097   4.096  0.1406 -0.2950 -0.1755
 5643DDP     P233855   6.879  18.688   3.640 -0.0332 -0.0803 -0.3403
 5643DDP     C233856   6.756  19.008   3.427  0.0905  0.0155 -0.0927
 5643DDP     C333857   7.341  17.828   4.225  0.0379 -0.1140  0.2172
 5643DDP     C433858   7.087  17.993   3.280  0.1252 -0.2581 -0.2752
 5644DDP     C133859  16.418  19.580  25.075 -0.0449  0.0400 -0.0042
 5644DDP     P133860  16.640  19.105  25.133  0.0640  0.0596 -0.1081
 5644DDP     P233861  16.248  19.717  25.504  0.0264 -0.1037 -0.1836
 5644DDP     C233862  16.234  20.191  25.584  0.2259  0.2854  0.2001
 5644DDP     C333863  16.449  18.656  24.994 -0.0140 -0.2151  0.1850
 5644DDP     C433864  16.037  19.636  24.777  0.1330 -0.1648  0.1278
 5645DDP     C133865   9.740   4.168  20.660  0.1051  0.0052  0.2438
 5645DDP     P133866   9.613   3.934  20.954 -0.0413  0.2986  0.1020
 5645DDP     P233867   9.697   4.077  20.201  0.0873 -0.3175 -0.0937
 5645DDP     C233868   9.682   4.160  19.802 -0.3085 -0.0642  0.0499
 5645DDP     C333869   9.874   3.614  21.068  0.1622  0.0659 -0.0362
 5645DDP     C433870   9.853   4.604  20.859 -0.2882  0.0968 -0.0252
 5646DDP     C133871  17.168  11.716   4.349 -0.0219  0.0447 -0.0375
 5646DDP     P133872  16.799  11.790   4.631  0.0616  0.3065  0.0268
 5646DDP     P233873  17.168  11.816   3.939 -0.0219  0.1908  0.1417
 5646DDP     C233874  17.401  11.994   3.637 -0.0887  0.2163  0.4746
 5646DDP     C333875  16.502  12.017   4.849 -0.0542  0.1608 -0.0832
 5646DDP     C433876  17.620  11.693   4.639  0.0456  0.0426  0.3202
 5647DDP     C133877  12.246  30.104   5.977  0.0054 -0.0149 -0.0148
 5647DDP     P133878  12.453  29.663   5.853 -0.1662 -0.0670 -0.1521
 5647DDP     P233879  11.899  30.260   5.897 -0.0426  0.1381 -0.2008
 5647DDP     C233880  11.448   0.261   5.803 -0.1725  0.1704  0.1987
 5647DDP     C333881  12.485  29.346   6.189 -0.0184 -0.1201 -0.0475
 5647DDP     C433882  12.529  30.216   6.304  0.1669 -0.0522 -0.0674
 5648DDP     C133883  19.095   2.424   3.667 -0.1940  0.0569  0.1900
 5648DDP     P133884  18.876   2.708   3.952  0.1410 -0.1802  0.3268
 5648DDP     P233885  19.560   2.457   3.577 -0.0998 -0.2227 -0.3030
 5648DDP     C233886  19.720   2.660   3.293  0.1590  0.0328  0.1147
 5648DDP     C333887  18.841   2.872   4.342 -0.0732  0.0747  0.0888
 5648DDP     C433888  18.931   2.043   3.397  0.1948 -0.1289  0.1712
 5649DDP     C133889  18.391  20.987  25.580 -0.0761 -0.0386  0.1633
 5649DDP     P133890  18.631  20.760  25.975  0.2631  0.0715 -0.2266
 5649DDP     P233891  18.398  21.053  25.157 -0.0962  0.1928  0.0035
 5649DDP     C233892  18.248  21.077  24.824 -0.0645 -0.1294  0.1228
 5649DDP     C333893  18.709  20.718  26.393  0.0678 -0.0431  0.1931
 5649DDP     C433894  18.188  21.189  25.815  0.0309 -0.0563 -0.0399
 5650DDP     C133895  15.705  28.926  26.750 -0.0497 -0.1282  0.1567
 5650DDP     P133896  15.469  28.925  26.313 -0.1217 -0.1554 -0.1837
 5650DDP     P233897  16.158  29.012  26.761 -0.1152  0.3618 -0.0455
 5650DDP     C233898  16.487  29.154  27.035 -0.0281 -0.0710  0.1167
 5650DDP     C333899  15.507  28.679  25.823 -0.1824  0.0945 -0.0183
 5650DDP     C433900  15.479  28.982  27.204 -0.0442 -0.1843  0.0179
 5651DDP     C133901  28.742  15.310   0.178  0.1758 -0.0233 -0.1097
 5651DDP     P133902  28.635  14.957   0.151 -0.2916 -0.1020 -0.3119
 5651DDP     P233903  28.747  15.526   0.585  0.2547 -0.1518 -0.1678
 5651DDP     C233904  28.431  15.661   0.852  0.0451 -0.1280  0.5700
 5651DDP     C333905  28.353  14.637   0.082 -0.1500  0.0698  0.0474
 5651DDP     C433906  28.750  15.363  30.081 -0.2877 -0.0749  0.0466
 5652DDP     C133907   2.491  15.705   2.439 -0.2616 -0.1517 -0.1354
 5652DDP     P133908   2.069  15.813   2.336  0.1087 -0.0968 -0.2450
 5652DDP     P233909   2.830  15.428   2.293  0.1917 -0.1516 -0.3288
 5652DDP     C233910   3.132  15.200   2.234 -0.1832  0.1271 -0.1434
 5652DDP     C333911   1.860  15.994   2.024  0.3078 -0.2511  0.1855
 5652DDP     C433912   2.651  15.907   2.921 -0.1514  0.2820 -0.1131
 5653DDP     C133913  16.162  21.726   4.818 -0.0243 -0.2036  0.1711
 5653DDP     P133914  16.370  21.964   4.493  0.1148  0.1555 -0.0073
 5653DDP     P233915  16.188  22.110   5.019  0.0734  0.1940  0.1652
 5653DDP     C233916  16.228  22.545   5.110 -0.0194  0.0507 -0.0167
 5653DDP     C333917  16.449  22.409   4.649 -0.0876 -0.0376  0.1046
 5653DDP     C433918  15.840  21.427   4.794  0.0122 -0.1617  0.0849
 5654DDP     C133919  14.555   3.550   0.912 -0.0355  0.0082 -0.0952
 5654DDP     P133920  14.198   3.681   1.211  0.1265  0.0549 -0.2689
 5654DDP     P233921  14.681   3.667   0.571  0.0909  0.0171 -0.0102
 5654DDP     C233922  14.969   3.787   0.269  0.1032  0.0071 -0.0301
 5654DDP     C333923  13.794   3.894   1.226  0.1546 -0.3055 -0.1641
 5654DDP     C433924  14.741   3.132   1.106 -0.2079 -0.0915  0.0294
 5655DDP     C133925  24.447  18.598  16.994  0.0689  0.0735  0.0993
 5655DDP     P133926  24.423  18.197  16.896  0.2149  0.1822  0.1335
 5655DDP     P233927  24.773  18.873  16.776 -0.0121 -0.2413  0.3497
 5655DDP     C233928  25.069  19.184  16.801 -0.1969 -0.2154  0.7168
 5655DDP     C333929  24.490  17.760  16.623  0.0676 -0.1311  0.1838
 5655DDP     C433930  24.161  18.887  17.150  0.1195 -0.2814  0.2431
 5656DDP     C133931  17.139  12.443  23.555  0.0045 -0.0210 -0.0903
 5656DDP     P133932  17.521  12.665  23.447 -0.0078  0.2285 -0.1934
 5656DDP     P233933  17.031  12.042  23.564 -0.0248 -0.2147 -0.1128
 5656DDP     C233934  17.154  11.782  23.264 -0.0441  0.1870 -0.1274
 5656DDP     C333935  17.956  12.811  23.509 -0.1891 -0.0894  0.0340
 5656DDP     C433936  16.798  12.631  23.816 -0.4519 -0.5152  0.1164
 5657DDP     C133937   8.571  23.365  12.915 -0.2788 -0.0032 -0.1411
 5657DDP     P133938   8.938  23.202  13.108 -0.2011 -0.2074  0.1010
 5657DDP     P233939   8.533  23.851  12.917  0.0133 -0.1947  0.0063
 5657DDP     C233940   8.698  24.127  13.246  0.0712  0.2170  0.0822
 5657DDP     C333941   9.394  23.235  13.269  0.0762  0.1379  0.1772
 5657DDP     C433942   8.280  22.936  12.967 -0.2472  0.3809  0.0910
 5658DDP     C133943  24.414   5.972  19.229  0.0122 -0.0175  0.0709
 5658DDP     P133944  24.134   5.964  19.572  0.0569 -0.3767 -0.2672
 5658DDP     P233945  24.244   6.240  18.882 -0.0449  0.0581 -0.1297
 5658DDP     C233946  23.947   6.423  18.626  0.0805  0.1125  0.2778
 5658DDP     C333947  23.944   5.737  19.987 -0.0048 -0.0697  0.0569
 5658DDP     C433948  24.832   6.021  19.380  0.1672 -0.1946  0.1799
 5659DDP     C133949   5.470  24.891   7.307 -0.1788 -0.0015  0.0786
 5659DDP     P133950   5.108  24.634   7.218  0.0036  0.2801 -0.2291
 5659DDP     P233951   5.750  25.150   6.984 -0.1976  0.2017 -0.0522
 5659DDP     C233952   6.117  25.307   7.015 -0.1707 -0.2364  0.4313
 5659DDP     C333953   5.039  24.309   6.889  0.2024  0.1188 -0.0510
 5659DDP     C433954   5.426  25.109   7.646 -0.2430  0.2242  0.0665
 5660DDP     C133955  21.294  15.634  20.272  0.2172  0.0189  0.1044
 5660DDP     P133956  20.951  15.406  20.526  0.0669  0.1472  0.0229
 5660DDP     P233957  21.796  15.593  20.304  0.3957 -0.2072 -0.0596
 5660DDP     C233958  22.155  15.291  20.213  0.0933  0.4188  0.1335
 5660DDP     C333959  20.719  15.292  20.877  0.3186 -0.0393  0.3258
 5660DDP     C433960  21.197  15.856  19.884  0.3303 -0.1186  0.1956
 5661DDP     C133961  17.505  19.125   1.372 -0.1724 -0.0852 -0.0137
 5661DDP     P133962  17.166  19.196   1.649  0.2466 -0.0774  0.0996
 5661DDP     P233963  17.881  19.245   1.480 -0.0340 -0.1958  0.1367
 5661DDP     C233964  18.211  19.368   1.396 -0.3951  0.2986  0.0898
 5661DDP     C333965  16.765  19.264   1.606 -0.0675 -0.3483  0.2409
 5661DDP     C433966  17.546  18.742   1.177  0.0206  0.0304 -0.0119
 5662DDP     C133967  12.929  28.236   0.117  0.2300 -0.0652  0.0026
 5662DDP     P133968  12.712  28.384  30.147 -0.2134  0.2339 -0.1525
 5662DDP     P233969  12.897  27.857  30.273  0.1472 -0.0252 -0.2431
 5662DDP     C233970  13.042  27.550  29.970 -0.4648 -0.2371 -0.1077
 5662DDP     C333971  12.402  28.525  29.814 -0.1540 -0.0380  0.3971
 5662DDP     C433972  13.204  28.491   0.398  0.3948  0.1098 -0.1707
 5663DDP     C133973  14.406  21.350   2.821 -0.0323 -0.0850 -0.0255
 5663DDP     P133974  14.127  20.989   3.081 -0.0835  0.1742  0.0305
 5663DDP     P233975  14.451  21.162   2.426 -0.0236 -0.3697  0.1370
 5663DDP     C233976  14.242  20.989   2.158 -0.1240 -0.3380  0.2866
 5663DDP     C333977  13.905  20.653   3.045  0.0938  0.1151 -0.3406
 5663DDP     C433978  14.525  21.739   2.969 -0.1372  0.0191  0.0067
 5664DDP     C133979  23.278  26.161   1.817  0.1956 -0.3266 -0.1098
 5664DDP     P133980  23.666  26.111   1.581 -0.0153 -0.0585 -0.1137
 5664DDP     P233981  23.294  26.612   2.008 -0.0267 -0.0111  0.2804
 5664DDP     C233982  23.003  26.975   2.227 -0.0657 -0.0322  0.2269
 5664DDP     C333983  23.704  26.104   1.062 -0.0652  0.1639 -0.1249
 5664DDP     C433984  22.877  26.047   1.744  0.0655 -0.0731 -0.0000
 5665DDP     C133985  24.019  15.014  19.098  0.2403  0.4007 -0.3688
 5665DDP     P133986  24.266  15.387  19.131  0.1698  0.3347  0.1325
 5665DDP     P233987  23.682  14.699  19.075  0.3414  0.1721  0.0444
 5665DDP     C233988  23.632  14.234  19.061  0.0008 -0.2815 -0.1071
 5665DDP     C333989  24.194  15.781  19.003 -0.0863 -0.4669 -0.2950
 5665DDP     C433990  24.351  14.879  18.842 -0.0942  0.0484  0.3115
 5666DDP     C133991   1.199   1.503  11.315 -0.0016 -0.1993  0.2932
 5666DDP     P133992   0.827   1.431  11.181  0.2873  0.0441  0.0203
 5666DDP     P233993   1.480   1.197  11.430 -0.2456  0.3251 -0.0261
 5666DDP     C233994   1.890   1.153  11.361 -0.2105 -0.3564  0.1722
 5666DDP     C333995   0.685   0.961  11.045  0.0203  0.1247  0.3236
 5666DDP     C433996   1.364   1.863  11.156 -0.1919 -0.0076 -0.0464
 5667DDP     C133997   8.127  18.905   9.921 -0.2239 -0.1228  0.0324
 5667DDP     P133998   7.932  19.283   9.862  0.0924 -0.1514  0.1318
 5667DDP     P233999   7.986  18.613   9.531 -0.1893  0.0864  0.0020
 5667DDP     C234000   7.591  18.424   9.342  0.0600 -0.1078 -0.1883
 5667DDP     C334001   7.788  19.655  10.069 -0.0291 -0.3853  0.0864
 5667DDP     C434002   8.561  18.992  10.159 -0.2204  0.0946 -0.0027
 5668DDP     C134003   4.188  14.874  25.689 -0.3217 -0.0596 -0.4302
 5668DDP     P134004   4.361  15.046  26.069 -0.2630 -0.1917  0.0979
 5668DDP     P234005   3.796  14.708  25.820 -0.0276 -0.1449 -0.1028
 5668DDP     C234006   3.440  14.638  25.751 -0.3326  0.1573 -0.0013
 5668DDP     C334007   4.591  14.703  26.232  0.3792 -0.0335  0.0124
 5668DDP     C434008   4.144  15.123  25.250  0.1712 -0.1571 -0.1688
 5669DDP     C134009   6.741  24.982   1.333  0.0713 -0.0429 -0.3446
 5669DDP     P134010   6.899  25.368   1.278 -0.2897 -0.0576 -0.2515
 5669DDP     P234011   6.396  24.974   1.027 -0.2100  0.0418  0.1721
 5669DDP     C234012   6.181  24.834   0.681 -0.0970  0.0614  0.4499
 5669DDP     C334013   7.052  25.750   1.034 -0.3609  0.0869  0.1550
 5669DDP     C434014   6.838  24.651   1.723 -0.1441 -0.2221  0.0552
 5670DDP     C134015  25.871  10.026   3.924 -0.0340  0.1742 -0.2058
 5670DDP     P134016  25.983   9.828   4.405  0.4400  0.0507 -0.1756
 5670DDP     P234017  25.755   9.702   3.630  0.0018  0.0565  0.1241
 5670DDP     C234018  25.433   9.294   3.629 -0.0294  0.2065 -0.2174
 5670DDP     C334019  25.905   9.626   4.841 -0.0627  0.4051 -0.2824
 5670DDP     C434020  25.810  10.510   3.813 -0.0428 -0.1988  0.0747
 5671DDP     C134021  25.275  26.189   1.243 -0.0144  0.2893 -0.0814
 5671DDP     P134022  25.645  26.056   0.997  0.1367  0.1029 -0.1060
 5671DDP     P234023  25.383  26.635   1.018  0.0984  0.1465 -0.1306
 5671DDP     C234024  25.631  27.036   1.066 -0.0137 -0.2034 -0.1631
 5671DDP     C334025  25.937  26.052   0.697 -0.0182  0.0050  0.1349
 5671DDP     C434026  25.082  25.957   1.611 -0.0406  0.0506  0.0345
 5672DDP     C134027  25.819  29.038   1.867 -0.1684 -0.3231  0.2346
 5672DDP     P134028  25.444  28.934   1.763  0.1127 -0.2533  0.0430
 5672DDP     P234029  26.161  28.889   1.630 -0.1116  0.0930  0.4731
 5672DDP     C234030  26.258  28.775   1.222 -0.0930 -0.1707 -0.2837
 5672DDP     C334031  24.978  28.886   1.792 -0.1546  0.0725  0.1194
 5672DDP     C434032  25.852  29.260   2.270  0.2043  0.1211 -0.0872
 5673DDP     C134033  23.465  27.314  16.400 -0.0651 -0.2967 -0.2700
 5673DDP     P134034  23.023  27.346  16.257 -0.0263 -0.3143  0.2545
 5673DDP     P234035  23.596  27.134  16.852  0.1134  0.1313  0.0178
 5673DDP     C234036  23.575  27.243  17.339 -0.0833  0.1816  0.2060
 5673DDP     C334037  22.856  27.333  15.831  0.0743 -0.2136 -0.2347
 5673DDP     C434038  23.835  27.518  16.196 -0.0244 -0.1429  0.2320
 5674DDP     C134039   5.027  14.478  27.500 -0.2764  0.0270  0.0227
 5674DDP     P134040   5.230  14.818  27.699  0.0389  0.0191  0.1007
 5674DDP     P234041   4.637  14.610  27.396 -0.0513  0.0639  0.0387
 5674DDP     C234042   4.356  14.464  27.167  0.2094 -0.0788 -0.1622
 5674DDP     C334043   5.524  15.169  27.889  0.1864 -0.1466  0.1538
 5674DDP     C434044   5.217  14.043  27.349 -0.0025  0.3163 -0.1207
 5675DDP     C134045   2.749  23.611  16.927 -0.2254  0.1896  0.0364
 5675DDP     P134046   2.957  23.785  17.222 -0.4009 -0.1927 -0.0426
 5675DDP     P234047   2.625  23.343  17.241  0.2308  0.1532 -0.2743
 5675DDP     C234048   2.562  22.938  17.509  0.0405  0.1772 -0.1274
 5675DDP     C334049   3.411  23.648  17.338  0.1368 -0.0017 -0.5224
 5675DDP     C434050   2.752  23.659  16.533 -0.0811 -0.2299  0.3493
 5676DDP     C134051   1.446   2.612  28.095 -0.3236  0.1002 -0.2059
 5676DDP     P134052   1.353   2.134  28.197 -0.4764 -0.0128 -0.1998
 5676DDP     P234053   1.686   2.666  27.856 -0.1053 -0.0775  0.1837
 5676DDP     C234054   2.040   2.866  27.711 -0.0177 -0.0391  0.3031
 5676DDP     C334055   1.312   1.891  28.497  0.1659  0.1349 -0.0984
 5676DDP     C434056   1.156   3.015  28.152  0.0474 -0.0172 -0.4265
 5677DDP     C134057  11.426   5.787  27.010  0.2587 -0.1188 -0.1211
 5677DDP     P134058  11.092   5.952  26.743  0.0687 -0.3285  0.1688
 5677DDP     P234059  11.425   5.488  27.249  0.0947  0.0687 -0.1137
 5677DDP     C234060  11.555   5.373  27.664  0.1090 -0.0242  0.1149
 5677DDP     C334061  10.664   6.019  26.872  0.0668  0.1605 -0.0465
 5677DDP     C434062  11.795   6.040  26.984  0.1425  0.1795  0.0528
 5678DDP     C134063  14.642   5.606  26.288 -0.0449  0.0151 -0.0706
 5678DDP     P134064  14.528   5.396  25.826  0.2558 -0.2496  0.0242
 5678DDP     P234065  14.330   5.739  26.488 -0.0308 -0.2366  0.0502
 5678DDP     C234066  14.053   5.612  26.901  0.2232  0.3550  0.2832
 5678DDP     C334067  14.645   5.412  25.432 -0.1937 -0.1450 -0.1395
 5678DDP     C434068  15.023   5.804  26.550  0.2815  0.2745  0.0468
 5679DDP     C134069   1.754  25.732   7.658  0.3486  0.1206 -0.2298
 5679DDP     P134070   2.255  25.706   7.638 -0.1597 -0.0057  0.1563
 5679DDP     P234071   1.512  25.882   7.961 -0.0755  0.4724 -0.3252
 5679DDP     C234072   1.279  26.270   8.066  0.1136 -0.3496  0.3140
 5679DDP     C334073   2.694  25.604   7.661 -0.0155 -0.0211  0.1380
 5679DDP     C434074   1.488  25.800   7.240 -0.1787  0.2229  0.0003
 5680DDP     C134075   0.711  22.099  26.599  0.0032  0.3094 -0.2941
 5680DDP     P134076   0.480  21.698  26.650  0.1741 -0.2762  0.0914
 5680DDP     P234077   0.786  22.106  27.028 -0.1740  0.2303 -0.2919
 5680DDP     C234078   0.993  21.997  27.407  0.0474  0.0785  0.0182
 5680DDP     C334079   0.216  21.434  26.821  0.4067  0.1578  0.1313
 5680DDP     C434080   0.932  22.377  26.327 -0.0137  0.1438  0.0784
 5681DDP     C134081   5.558   2.252  28.033  0.1729 -0.3027 -0.3404
 5681DDP     P134082   5.920   2.330  27.756 -0.1063 -0.1877  0.1258
 5681DDP     P234083   5.412   2.347  28.430 -0.0929  0.1201 -0.1089
 5681DDP     C234084   5.504   2.024  28.684  0.2474  0.1533 -0.2331
 5681DDP     C334085   6.255   2.105  27.424  0.1004 -0.1328  0.1672
 5681DDP     C434086   5.164   2.061  27.794  0.2857  0.2116  0.0761
 5682DDP     C134087  11.527  16.616  20.544 -0.4177  0.0071 -0.0999
 5682DDP     P134088  11.220  16.226  20.696  0.3321  0.3604  0.0822
 5682DDP     P234089  11.661  16.965  20.827 -0.2391  0.1176 -0.1052
 5682DDP     C234090  11.663  17.332  21.256 -0.0446  0.3665  0.1475
 5682DDP     C334091  11.412  15.995  21.168 -0.0490 -0.0577  0.2496
 5682DDP     C434092  11.693  16.839  20.314 -0.2336  0.1341  0.0527
 5683DDP     C134093  11.385  27.512  24.526 -0.2199 -0.0357  0.0168
 5683DDP     P134094  11.428  27.786  24.170  0.2050  0.2770 -0.2174
 5683DDP     P234095  11.539  27.194  24.427  0.0042 -0.4627 -0.0562
 5683DDP     C234096  11.687  26.854  24.212  0.1396  0.0849 -0.1979
 5683DDP     C334097  11.125  27.906  23.855 -0.1145  0.4641 -0.0360
 5683DDP     C434098  11.257  27.470  24.890 -0.0646 -0.0077  0.1451
 5684DDP     C134099  21.708  11.675  17.040 -0.1214  0.0488 -0.1669
 5684DDP     P134100  22.086  11.438  17.246  0.3666  0.1323  0.2762
 5684DDP     P234101  21.497  11.496  16.644  0.0475  0.3728  0.0861
 5684DDP     C234102  21.079  11.584  16.390  0.1239  0.2147 -0.1360
 5684DDP     C334103  22.402  11.522  17.491 -0.0836  0.1380  0.0825
 5684DDP     C434104  21.594  12.120  17.091  0.0363  0.0253 -0.0766
 5685DDP     C134105  11.729  25.024   6.150  0.1366  0.3677 -0.1312
 5685DDP     P134106  11.533  24.913   5.715 -0.2096 -0.0298 -0.0181
 5685DDP     P234107  11.381  25.029   6.394  0.1990  0.3409  0.0149
 5685DDP     C234108  11.181  24.825   6.713 -0.1695 -0.3925 -0.0319
 5685DDP     C334109  11.221  24.777   5.306 -0.0948  0.1326  0.0311
 5685DDP     C434110  12.096  25.277   6.317  0.1010 -0.1669 -0.1046
 5686DDP     C134111   6.809  20.254  23.477  0.2904 -0.1553 -0.0103
 5686DDP     P134112   6.627  20.369  23.902 -0.1882 -0.4891  0.3156
 5686DDP     P234113   6.568  20.473  23.236  0.1176  0.1322  0.1876
 5686DDP     C234114   6.499  20.673  22.892  0.2446 -0.1083 -0.3045
 5686DDP     C334115   6.519  20.614  24.260  0.2131  0.0933 -0.1698
 5686DDP     C434116   7.208  20.066  23.410 -0.2210  0.0804 -0.0774
 5687DDP     C134117  27.563   4.502  22.838 -0.0041 -0.0999  0.1039
 5687DDP     P134118  27.245   4.835  22.940 -0.0420  0.0114 -0.3080
 5687DDP     P234119  27.329   4.085  22.548  0.0469  0.0444 -0.2213
 5687DDP     C234120  27.465   4.086  22.109 -0.2427 -0.0184 -0.0725
 5687DDP     C334121  26.912   5.019  22.677 -0.1958 -0.0179 -0.0977
 5687DDP     C434122  28.021   4.467  22.905  0.1226  0.2647 -0.0232
 5688DDP     C134123   7.875   3.835  14.116  0.0103 -0.2273  0.3159
 5688DDP     P134124   8.114   4.197  14.136  0.2676  0.2616 -0.1181
 5688DDP     P234125   8.081   3.446  14.152 -0.0358 -0.1267 -0.0162
 5688DDP     C234126   8.051   3.048  14.074 -0.0950 -0.0773  0.1042
 5688DDP     C334127   8.061   4.517  14.451  0.2281 -0.1414 -0.2950
 5688DDP     C434128   7.460   3.946  13.985 -0.0239  0.1616 -0.0820
 5689DDP     C134129   3.769  10.074   5.981 -0.2298 -0.1529 -0.1850
 5689DDP     P134130   3.770  10.238   6.464  0.0007  0.0027  0.0790
 5689DDP     P234131   3.471  10.233   5.540  0.0773 -0.0253 -0.0535
 5689DDP     C234132   2.989  10.126   5.430 -0.0478  0.1219 -0.0194
 5689DDP     C334133   3.782  10.588   6.762  0.1985  0.2868  0.1409
 5689DDP     C434134   4.053   9.643   5.979  0.1483  0.0620 -0.2149
 5690DDP     C134135   2.338   3.692  28.248  0.4469  0.0450  0.3988
 5690DDP     P134136   2.374   4.209  28.277 -0.2486  0.0328 -0.0969
 5690DDP     P234137   1.947   3.471  28.143  0.0151  0.0638 -0.2485
 5690DDP     C234138   1.596   3.336  28.445  0.0552  0.0787 -0.0795
 5690DDP     C334139   2.469   4.665  28.194  0.1952 -0.2684  0.1980
 5690DDP     C434140   2.557   3.410  28.053 -0.0873  0.2904  0.4956
 5691DDP     C134141   9.563   0.292   6.653  0.2164  0.2050 -0.1767
 5691DDP     P134142   9.605   0.670   6.922  0.2308  0.0177 -0.0097
 5691DDP     P234143   9.350  30.197   6.730 -0.1848 -0.0257 -0.2706
 5691DDP     C234144   8.979  30.243   7.087 -0.0017  0.2151  0.2503
 5691DDP     C334145   9.717   1.142   6.914 -0.1122 -0.4213  0.1801
 5691DDP     C434146   9.938   0.230   6.363  0.1650  0.0996  0.0597
 5692DDP     C134147  25.180  21.462   0.593 -0.0065 -0.2988 -0.0912
 5692DDP     P134148  25.172  21.060   0.838  0.0617 -0.0172  0.0307
 5692DDP     P234149  24.931  21.825   0.694 -0.2139  0.0507 -0.1512
 5692DDP     C234150  25.137  22.183   1.042  0.0117  0.1884  0.0885
 5692DDP     C334151  24.728  20.731   0.957  0.1774  0.3371 -0.2886
 5692DDP     C434152  25.399  21.528   0.275 -0.0110  0.4117 -0.0277
 5693DDP     C134153   6.715   4.142   4.263 -0.0173  0.1491  0.2398
 5693DDP     P134154   6.588   3.686   4.233  0.0485 -0.5360  0.1671
 5693DDP     P234155   7.191   4.209   4.304  0.0388  0.1556 -0.1847
 5693DDP     C234156   7.383   4.535   4.534  0.0731 -0.0301  0.0181
 5693DDP     C334157   6.589   3.336   4.002  0.1738 -0.2908 -0.0756
 5693DDP     C434158   6.505   4.477   4.160  0.1049 -0.1049  0.0504
 5694DDP     C134159  15.047  25.022  12.379 -0.0362  0.2546  0.0586
 5694DDP     P134160  14.945  24.817  12.720 -0.1098 -0.0061 -0.0966
 5694DDP     P234161  15.002  25.405  12.257  0.1753 -0.3270 -0.1023
 5694DDP     C234162  14.793  25.831  12.299  0.0070 -0.0556 -0.1216
 5694DDP     C334163  14.826  24.394  12.828  0.0952 -0.1643  0.0505
 5694DDP     C434164  15.045  24.825  12.005 -0.0355  0.2823  0.0054
 5695DDP     C134165   4.508  20.907   8.319  0.0974 -0.0656  0.1512
 5695DDP     P134166   4.778  21.294   8.556 -0.0724  0.0061 -0.0691
 5695DDP     P234167   4.314  21.139   7.993 -0.1677  0.1217  0.0337
 5695DDP     C234168   4.391  21.283   7.669  0.1376  0.0711 -0.0141
 5695DDP     C334169   4.872  21.718   8.812  0.2026 -0.1655  0.1856
 5695DDP     C434170   4.384  20.458   8.508 -0.0556 -0.0618  0.0872
 5696DDP     C134171   6.235  16.544  29.299 -0.1805  0.1012 -0.1003
 5696DDP     P134172   5.758  16.418  29.214 -0.1850 -0.1535 -0.1651
 5696DDP     P234173   6.410  16.752  28.930  0.0923 -0.1857 -0.4614
 5696DDP     C234174   6.882  16.823  28.790 -0.0479 -0.0369 -0.2288
 5696DDP     C334175   5.450  16.078  29.481 -0.2562 -0.0802 -0.0018
 5696DDP     C434176   6.463  16.446  29.747  0.2018 -0.2578 -0.0819
 5697DDP     C134177   4.613  25.791   5.299 -0.3647  0.0680 -0.1290
 5697DDP     P134178   4.336  25.928   4.996  0.0712 -0.0013  0.1640
 5697DDP     P234179   4.905  26.110   5.372 -0.2712 -0.0451 -0.2456
 5697DDP     C234180   5.188  26.530   5.529  0.2177  0.1899 -0.0540
 5697DDP     C334181   4.564  26.234   4.920  0.0996  0.1538  0.0735
 5697DDP     C434182   4.614  25.411   5.451 -0.1230  0.1430  0.2359
 5698DDP     C134183  15.635   2.414   3.419  0.2211 -0.0198 -0.0144
 5698DDP     P134184  15.430   2.521   3.085 -0.0457 -0.0744  0.3055
 5698DDP     P234185  15.651   1.976   3.678 -0.1948 -0.1318 -0.2348
 5698DDP     C234186  15.683   1.844   4.101  0.3210 -0.1152 -0.1166
 5698DDP     C334187  15.386   2.747   2.761  0.0789 -0.0157 -0.0651
 5698DDP     C434188  15.631   2.878   3.643  0.2277  0.0521  0.1701
 5699DDP     C134189  24.419   4.274  14.925  0.2000  0.1884 -0.1536
 5699DDP     P134190  24.551   4.068  15.353  0.0578  0.2626  0.0584
 5699DDP     P234191  24.642   4.671  14.994 -0.0227  0.1459  0.2949
 5699DDP     C234192  24.840   4.958  15.365 -0.1533  0.2660  0.3163
 5699DDP     C334193  24.411   4.128  15.763 -0.0187  0.1196  0.0171
 5699DDP     C434194  24.312   3.982  14.485 -0.3894 -0.2549  0.1298
 5700DDP     C134195  23.955   9.282  22.131 -0.0109  0.0521  0.2608
 5700DDP     P134196  24.173   8.956  22.334  0.0320  0.0425  0.0511
 5700DDP     P234197  24.002   9.316  21.743  0.0052 -0.1868 -0.0520
 5700DDP     C234198  23.997   9.636  21.461 -0.1010 -0.1941  0.0428
 5700DDP     C334199  24.470   8.924  22.734 -0.0199 -0.2182  0.0737
 5700DDP     C434200  23.745   9.545  22.430  0.1638 -0.0596  0.0108
 5701DDP     C134201  14.687  25.648   3.732 -0.0516  0.3552 -0.0498
 5701DDP     P134202  14.883  26.027   3.826 -0.0658  0.2098 -0.1904
 5701DDP     P234203  14.412  25.609   3.349 -0.0782  0.2595 -0.1047
 5701DDP     C234204  14.462  25.525   2.810  0.1643 -0.1365 -0.0868
 5701DDP     C334205  15.046  26.280   3.565  0.2009 -0.2628  0.2462
 5701DDP     C434206  14.850  25.241   3.724  0.1077 -0.1082 -0.0695
 5702DDP     C134207  22.661  18.882   9.375  0.1435 -0.1414  0.0974
 5702DDP     P134208  22.339  19.274   9.276  0.2954 -0.2114 -0.0314
 5702DDP     P234209  22.990  18.811   9.052 -0.1593  0.3590 -0.2621
 5702DDP     C234210  23.424  18.732   9.085 -0.3161 -0.3018  0.3187
 5702DDP     C334211  22.191  19.632   9.010 -0.0086 -0.2632 -0.0211
 5702DDP     C434212  22.611  18.645   9.772  0.0646  0.0326 -0.1378
 5703DDP     C134213  19.343   6.334   0.033  0.0693  0.0481 -0.1366
 5703DDP     P134214  19.526   6.742   0.270  0.0591  0.0101  0.0508
 5703DDP     P234215  19.675   6.132   0.083 -0.3813  0.0519 -0.2864
 5703DDP     C234216  19.754   6.007   0.511  0.1664  0.1211  0.0738
 5703DDP     C334217  19.575   7.168   0.489  0.0561  0.0434  0.1437
 5703DDP     C434218  19.004   6.330  30.175  0.3005  0.0431  0.0390
 5704DDP     C134219  24.046  16.039  14.735 -0.1561  0.1417  0.1533
 5704DDP     P134220  23.848  16.203  14.488  0.2991 -0.1300  0.2035
 5704DDP     P234221  23.865  16.174  15.101 -0.2494 -0.0042  0.0774
 5704DDP     C234222  23.957  16.172  15.582  0.1453 -0.2318 -0.1630
 5704DDP     C334223  23.709  16.455  14.083 -0.0903  0.1747 -0.0075
 5704DDP     C434224  24.425  15.819  14.776  0.0534 -0.0876 -0.1082
 5705DDP     C134225  29.874   7.292  23.484 -0.2032  0.0800  0.1887
 5705DDP     P134226  29.580   6.931  23.660 -0.2138  0.0112 -0.3466
 5705DDP     P234227  30.059   7.743  23.625  0.0655  0.1711 -0.3086
 5705DDP     C234228  30.001   8.161  23.433  0.2698  0.0928 -0.3121
 5705DDP     C334229  29.185   6.832  23.615  0.0529 -0.0064 -0.1077
 5705DDP     C434230  29.916   7.222  23.090  0.2073 -0.2588 -0.4052
 5706DDP     C134231  12.312   4.699  11.466 -0.0216 -0.1335 -0.1501
 5706DDP     P134232  12.692   4.513  11.226 -0.0972 -0.2170 -0.2237
 5706DDP     P234233  12.243   5.156  11.586 -0.0379 -0.0560  0.1597
 5706DDP     C234234  11.979   5.527  11.714  0.0324 -0.0037 -0.2169
 5706DDP     C334235  12.984   4.112  11.021 -0.1312 -0.1065  0.4169
 5706DDP     C434236  12.076   4.589  11.839 -0.1512 -0.0750 -0.1784
 5707DDP     C134237  24.631  28.508  21.862 -0.3679  0.0266 -0.2489
 5707DDP     P134238  24.693  28.072  21.676 -0.1161 -0.0168 -0.0199
 5707DDP     P234239  24.260  28.549  22.253  0.4856  0.1276  0.3609
 5707DDP     C234240  24.145  28.489  22.654  0.1637  0.0356  0.2189
 5707DDP     C334241  24.724  27.688  21.396 -0.0952  0.2164 -0.3135
 5707DDP     C434242  24.894  28.839  21.602  0.1936  0.0315 -0.3754
 5708DDP     C134243  12.420   6.943  27.245  0.1784  0.1084 -0.1674
 5708DDP     P134244  11.994   7.037  27.223  0.1237  0.1541 -0.4898
 5708DDP     P234245  12.556   6.851  27.640 -0.1528 -0.2044  0.1595
 5708DDP     C234246  12.719   6.712  27.990  0.1288  0.0088 -0.1785
 5708DDP     C334247  11.756   7.105  27.655  0.1644  0.2176 -0.2254
 5708DDP     C434248  12.612   6.759  26.927 -0.0845 -0.1049  0.1313
 5709DDP     C134249  13.565  26.619  12.475 -0.2276 -0.0670 -0.2883
 5709DDP     P134250  14.061  26.323  12.480 -0.0935 -0.2883 -0.0370
 5709DDP     P234251  13.140  26.297  12.534  0.1642  0.2859  0.1326
 5709DDP     C234252  13.067  25.832  12.556 -0.2513  0.2163  0.0659
 5709DDP     C334253  14.392  26.501  12.536 -0.2285  0.1584  0.2790
 5709DDP     C434254  13.523  27.119  12.441 -0.1674 -0.0410 -0.1450
 5710DDP     C134255  22.222  11.318  29.528 -0.2433 -0.0369  0.1208
 5710DDP     P134256  22.087  11.298  29.957 -0.0971  0.0817  0.2008
 5710DDP     P234257  22.121  11.054  29.198  0.0142 -0.2708 -0.0734
 5710DDP     C234258  22.161  10.606  29.021  0.0876 -0.0720 -0.1093
 5710DDP     C334259  21.853  11.115  30.316  0.0386  0.0467  0.0461
 5710DDP     C434260  22.450  11.700  29.408 -0.2822 -0.3936 -0.0345
 5711DDP     C134261   4.734   6.310  18.587 -0.2612 -0.0462 -0.2009
 5711DDP     P134262   4.552   5.962  18.879  0.2790  0.0224 -0.0431
 5711DDP     P234263   5.158   6.430  18.525 -0.1173  0.0853 -0.0426
 5711DDP     C234264   5.350   6.462  18.889  0.2011  0.3546 -0.0167
 5711DDP     C334265   4.398   6.123  19.282 -0.2145  0.0415  0.0805
 5711DDP     C434266   4.575   6.417  18.151 -0.2653  0.1433 -0.2104
 5712DDP     C134267  22.487  25.975  27.104  0.0891  0.1978 -0.1512
 5712DDP     P134268  22.765  26.252  27.109  0.1469  0.1326 -0.1660
 5712DDP     P234269  22.652  25.741  26.765  0.0778 -0.0397  0.2658
 5712DDP     C234270  22.778  25.949  26.515 -0.0563 -0.3395  0.2291
 5712DDP     C334271  23.278  26.261  27.235 -0.2947  0.0466  0.1483
 5712DDP     C434272  22.178  25.866  27.347 -0.5713  0.1022 -0.3456
 5713DDP     C134273   9.374  13.928  30.317  0.2518  0.1822 -0.0174
 5713DDP     P134274   9.424  13.630   0.195  0.3272  0.1977 -0.3013
 5713DDP     P234275   9.085  13.990  29.984 -0.1514 -0.0803 -0.1939
 5713DDP     C234276   8.978  14.034  29.525  0.1240 -0.0614  0.2558
 5713DDP     C334277   9.774  13.386   0.246  0.0863  0.3124  0.1785
 5713DDP     C434278   9.652  14.258  30.296  0.1803  0.1023  0.0034
 5714DDP     C134279  14.124   5.092  18.691  0.0250 -0.0338 -0.0290
 5714DDP     P134280  14.255   5.263  18.344  0.0687  0.0770  0.0040
 5714DDP     P234281  14.450   5.034  19.018 -0.0214  0.1284  0.0259
 5714DDP     C234282  14.870   5.080  19.188  0.2079 -0.0541 -0.2946
 5714DDP     C334283  14.618   5.283  18.185 -0.0306  0.0602  0.1904
 5714DDP     C434284  13.721   4.895  18.669  0.1111  0.1996 -0.0109
 5715DDP     C134285  10.589   3.963   5.079 -0.3489  0.1954 -0.1401
 5715DDP     P134286  10.875   4.347   5.019 -0.1857  0.0032  0.1480
 5715DDP     P234287  10.655   3.484   4.988 -0.2803 -0.1675  0.0823
 5715DDP     C234288  10.690   3.090   5.162 -0.0010 -0.1485  0.1008
 5715DDP     C334289  11.285   4.575   4.995  0.1580 -0.3667 -0.0201
 5715DDP     C434290  10.160   4.070   5.414  0.2038 -0.1848  0.1348
 5716DDP     C134291   5.220  19.321  18.039  0.3649 -0.2572 -0.2127
 5716DDP     P134292   5.620  19.304  17.796  0.2188  0.0414 -0.2002
 5716DDP     P234293   5.142  19.246  18.382  0.2208 -0.0163 -0.4253
 5716DDP     C234294   5.398  19.135  18.814  0.0547 -0.2443 -0.3950
 5716DDP     C334295   6.049  19.435  17.932  0.1778  0.2103  0.3014
 5716DDP     C434296   4.938  19.387  17.668 -0.1454  0.0189  0.1477
 5717DDP     C134297  15.907  17.621   5.660 -0.2924 -0.2842 -0.1338
 5717DDP     P134298  16.080  17.053   5.660  0.0131 -0.1381  0.0610
 5717DDP     P234299  15.920  17.861   6.006 -0.2297  0.1996  0.0606
 5717DDP     C234300  15.748  18.110   6.340 -0.4094 -0.1281 -0.1032
 5717DDP     C334301  16.008  16.712   5.878 -0.2273  0.0938 -0.4283
 5717DDP     C434302  15.548  17.684   5.288 -0.0996  0.0591  0.1656
 5718DDP     C134303  12.480   1.572   3.589 -0.1208  0.2609 -0.0834
 5718DDP     P134304  12.526   1.225   3.693  0.3442 -0.0163 -0.0906
 5718DDP     P234305  12.150   1.607   3.227 -0.0301 -0.2193 -0.0552
 5718DDP     C234306  11.626   1.726   3.235  0.0088  0.0828  0.1398
 5718DDP     C334307  12.799   0.974   3.971 -0.0180  0.0397 -0.1239
 5718DDP     C434308  12.686   1.943   3.788 -0.0870 -0.0202 -0.1886
 5719DDP     C134309  14.934  11.091  24.045 -0.1776  0.0756  0.0819
 5719DDP     P134310  14.917  11.429  23.755  0.1858 -0.0802 -0.1834
 5719DDP     P234311  15.280  10.971  24.450 -0.0849  0.1149  0.0493
 5719DDP     C234312  15.235  10.720  24.743  0.0186 -0.1941 -0.2327
 5719DDP     C334313  14.917  11.723  23.340  0.0896 -0.0988 -0.4698
 5719DDP     C434314  14.726  10.759  23.894 -0.1955  0.0013  0.0013
 5720DDP     C134315  23.663  16.409  26.549  0.1576  0.2940  0.1917
 5720DDP     P134316  23.359  16.414  26.821  0.0344  0.1236  0.1355
 5720DDP     P234317  23.933  16.761  26.607 -0.2179 -0.0206  0.1959
 5720DDP     C234318  23.751  17.255  26.793 -0.0078  0.1775  0.1143
 5720DDP     C334319  23.022  16.587  27.103 -0.1705 -0.1777 -0.1721
 5720DDP     C434320  23.692  16.113  26.133  0.1210  0.0507 -0.1239
 5721DDP     C134321  29.668  29.353  27.177  0.3324  0.0541  0.0629
 5721DDP     P134322  29.582  28.971  26.974  0.0842  0.2898 -0.0556
 5721DDP     P234323  29.527  29.339  27.577 -0.3031  0.1681  0.0451
 5721DDP     C234324  29.508  29.660  27.997  0.1683  0.1037 -0.2410
 5721DDP     C334325  29.345  28.661  26.966 -0.1029  0.0390 -0.1402
 5721DDP     C434326  30.132  29.539  27.139  0.0766 -0.0131  0.1501
 5722DDP     C134327  22.237   6.667   8.976  0.0527  0.0083 -0.1683
 5722DDP     P134328  22.547   6.744   9.332 -0.0528 -0.1374 -0.0836
 5722DDP     P234329  22.014   7.053   8.852  0.0719 -0.1748 -0.0244
 5722DDP     C234330  21.968   7.486   8.833 -0.1624 -0.2719 -0.2080
 5722DDP     C334331  22.589   6.734   9.794  0.1900  0.1706 -0.0750
 5722DDP     C434332  22.152   6.248   8.806  0.0601  0.0615  0.1164
 5723DDP     C134333  28.787  29.394  25.912  0.1265 -0.1652 -0.2464
 5723DDP     P134334  28.408  29.536  25.817  0.1239 -0.0323  0.0421
 5723DDP     P234335  29.067  29.132  25.740  0.0068 -0.3203 -0.1228
 5723DDP     C234336  29.573  28.987  25.791 -0.0806  0.1227  0.1949
 5723DDP     C334337  28.023  29.519  25.523 -0.2004 -0.0825 -0.0246
 5723DDP     C434338  29.098  29.531  26.309 -0.0242  0.3274 -0.1505
 5724DDP     C134339  11.112   5.057  25.158 -0.3492 -0.1596 -0.1876
 5724DDP     P134340  10.802   5.073  24.798 -0.3016 -0.1287  0.0575
 5724DDP     P234341  11.221   5.479  25.366 -0.0611  0.0171 -0.0662
 5724DDP     C234342  11.300   5.665  25.706  0.1922  0.2487  0.0701
 5724DDP     C334343  10.463   5.095  24.610 -0.0561  0.0800 -0.3349
 5724DDP     C434344  11.411   4.668  25.384 -0.1449 -0.1920  0.2485
 5725DDP     C134345  13.158  10.867  19.375 -0.0059 -0.3011 -0.1233
 5725DDP     P134346  13.227  11.246  19.645 -0.3689  0.1321 -0.0913
 5725DDP     P234347  13.343  10.953  19.019  0.0685  0.1481 -0.1755
 5725DDP     C234348  13.590  11.214  18.732  0.0413 -0.1651 -0.2214
 5725DDP     C334349  13.117  11.803  19.733 -0.0064 -0.1133 -0.1516
 5725DDP     C434350  12.965  10.560  19.230  0.0944 -0.1282 -0.1618
 5726DDP     C134351  24.977  28.349   9.020  0.0847 -0.0708  0.0796
 5726DDP     P134352  25.068  28.706   8.971  0.2242 -0.1025  0.2267
 5726DDP     P234353  24.676  28.154   8.803  0.0863 -0.0773  0.1917
 5726DDP     C234354  24.610  27.744   8.620 -0.1695 -0.1428 -0.1490
 5726DDP     C334355  24.975  29.189   9.041 -0.2395 -0.1177 -0.0033
 5726DDP     C434356  25.023  28.175   9.401  0.2263  0.1136  0.0153
 5727DDP     C134357  11.190   1.575   5.403 -0.1338 -0.0099 -0.1777
 5727DDP     P134358  11.515   1.160   5.418  0.1865 -0.0361 -0.1082
 5727DDP     P234359  11.017   1.884   5.676 -0.0618  0.1424  0.2750
 5727DDP     C234360  10.668   2.124   5.614 -0.3961  0.0756  0.0379
 5727DDP     C334361  11.574   0.654   5.519 -0.1344  0.1599 -0.0624
 5727DDP     C434362  11.039   1.736   5.002  0.1639 -0.0793  0.2759
 5728DDP     C134363  17.086  23.940  28.645 -0.1975  0.1929 -0.1116
 5728DDP     P134364  17.490  23.915  28.511 -0.1526  0.1160  0.0452
 5728DDP     P234365  17.117  24.180  29.084  0.0758 -0.2359 -0.0115
 5728DDP     C234366  16.885  24.520  29.300  0.1447 -0.0219  0.1054
 5728DDP     C334367  17.883  23.963  28.662 -0.0217 -0.1582  0.2108
 5728DDP     C434368  16.686  23.857  28.566  0.1299 -0.2780  0.1472
 5729DDP     C134369   2.267  15.406   1.388  0.0887  0.1736  0.0026
 5729DDP     P134370   2.304  15.342   1.879  0.0317  0.2492 -0.1037
 5729DDP     P234371   2.466  15.655   1.127 -0.1464  0.0650 -0.0486
 5729DDP     C234372   2.606  15.700   0.702 -0.2086 -0.0705 -0.2006
 5729DDP     C334373   2.006  15.306   2.176 -0.2445 -0.0747 -0.0045
 5729DDP     C434374   2.046  15.214   1.099  0.2701  0.0855 -0.2453
 5730DDP     C134375   9.920   1.021  21.680 -0.0921 -0.2413  0.1470
 5730DDP     P134376  10.042   0.614  21.913 -0.2357 -0.2223  0.1128
 5730DDP     P234377   9.780   1.482  21.751  0.2026  0.1350  0.4979
 5730DDP     C234378   9.638   1.872  21.464 -0.0073  0.0756  0.4952
 5730DDP     C334379  10.374   0.324  21.914  0.3325  0.0598  0.1565
 5730DDP     C434380  10.176   1.027  21.211 -0.2991  0.1141  0.1296
 5731DDP     C134381   6.981   2.095  13.035 -0.0285  0.0740 -0.4514
 5731DDP     P134382   7.346   1.857  12.925 -0.1006 -0.1058  0.0538
 5731DDP     P234383   7.197   2.232  13.401 -0.0233  0.0212 -0.0189
 5731DDP     C234384   7.491   2.665  13.369  0.0240 -0.0135  0.0099
 5731DDP     C334385   7.341   1.775  12.488  0.1045  0.3636 -0.0585
 5731DDP     C434386   6.611   2.320  12.830  0.0703  0.0587 -0.1356
 5732DDP     C134387  22.538   4.419  11.886 -0.1359 -0.2025 -0.0794
 5732DDP     P134388  22.539   4.700  12.198  0.1358  0.2680 -0.3763
 5732DDP     P234389  22.286   4.175  11.646 -0.0147 -0.0332  0.2312
 5732DDP     C234390  22.259   3.803  11.381 -0.1464  0.0260  0.1499
 5732DDP     C334391  22.777   4.602  12.607  0.0364  0.1927 -0.0956
 5732DDP     C434392  22.925   4.219  11.695  0.0813  0.0511 -0.1371
 5733DDP     C134393  13.784  24.258   2.816 -0.0284 -0.0451 -0.1399
 5733DDP     P134394  14.070  24.475   3.189  0.1639  0.2978 -0.0800
 5733DDP     P234395  13.343  24.264   3.037  0.0465 -0.1537  0.2639
 5733DDP     C234396  13.233  24.419   3.350 -0.0227  0.0456  0.0038
 5733DDP     C334397  14.171  24.892   3.258  0.2705  0.0692  0.0003
 5733DDP     C434398  13.887  24.065   2.490  0.0881 -0.0552 -0.2172
 5734DDP     C134399  21.379  12.595  15.641 -0.2927 -0.0935  0.0773
 5734DDP     P134400  21.111  12.931  15.377  0.1359 -0.2552  0.1111
 5734DDP     P234401  21.129  12.285  15.804  0.2775  0.1079 -0.2405
 5734DDP     C234402  21.128  12.037  16.256  0.2073 -0.2099  0.0131
 5734DDP     C334403  20.711  13.071  15.265  0.1800  0.3523 -0.4152
 5734DDP     C434404  21.713  12.529  15.563  0.0275  0.2619  0.0962
 5735DDP     C134405  26.152   9.806  11.250  0.1010  0.1166 -0.0267
 5735DDP     P134406  25.712   9.552  11.285  0.0573 -0.1966  0.2198
 5735DDP     P234407  26.244   9.786  11.726  0.0524 -0.1530  0.2302
 5735DDP     C234408  26.155   9.505  12.085  0.1614 -0.2731 -0.2990
 5735DDP     C334409  25.519   9.170  11.327 -0.1279 -0.1191  0.0701
 5735DDP     C434410  26.322  10.107  11.015 -0.2221 -0.0873 -0.0893
 5736DDP     C134411  28.673  19.585   8.629  0.0041  0.2879 -0.0342
 5736DDP     P134412  28.352  19.601   8.512 -0.1136 -0.0901  0.3247
 5736DDP     P234413  28.836  19.663   8.189 -0.3543 -0.1723 -0.0740
 5736DDP     C234414  29.090  19.863   7.838 -0.2864 -0.1800 -0.2903
 5736DDP     C334415  27.931  19.921   8.451 -0.0932  0.1269 -0.1612
 5736DDP     C434416  28.786  19.373   9.008  0.0895  0.1479  0.2263
 5737DDP     C134417  10.996  18.560  11.175 -0.2123  0.1474  0.3299
 5737DDP     P134418  10.941  18.577  10.765  0.0116 -0.3077  0.3036
 5737DDP     P234419  10.585  18.765  11.297  0.1315  0.4269 -0.1007
 5737DDP     C234420  10.176  18.598  11.378 -0.0184 -0.1670  0.1008
 5737DDP     C334421  10.710  18.371  10.427  0.2265  0.0059  0.0602
 5737DDP     C434422  11.320  18.392  11.374  0.0890 -0.2024 -0.0402
 5738DDP     C134423   7.273  19.405   6.263 -0.0106 -0.1652  0.2051
 5738DDP     P134424   6.809  19.489   6.403 -0.1861  0.1836  0.0927
 5738DDP     P234425   7.533  19.515   5.864  0.0619  0.0839 -0.1864
 5738DDP     C234426   7.463  19.738   5.479  0.1144 -0.0312 -0.0764
 5738DDP     C334427   6.439  19.776   6.602 -0.1101  0.1480 -0.2799
 5738DDP     C434428   7.380  19.012   6.468  0.3319 -0.1126 -0.1397
 5739DDP     C134429  26.688   4.382  22.025 -0.0594 -0.0902 -0.2873
 5739DDP     P134430  26.245   4.376  22.307 -0.0539  0.1190 -0.0251
 5739DDP     P234431  26.982   4.118  22.196  0.1260  0.1818  0.0544
 5739DDP     C234432  27.150   3.709  21.972  0.1355  0.0001 -0.1189
 5739DDP     C334433  25.908   4.216  22.438 -0.0529 -0.2479  0.0158
 5739DDP     C434434  26.735   4.639  21.661  0.0249  0.0385 -0.1489
 5740DDP     C134435  29.754   4.973   4.184 -0.0620 -0.2258  0.1028
 5740DDP     P134436  29.611   4.542   4.462  0.3345  0.1110 -0.0036
 5740DDP     P234437  29.623   5.135   3.801 -0.0891 -0.6070 -0.0919
 5740DDP     C234438  29.265   5.010   3.494 -0.1709 -0.0496 -0.0431
 5740DDP     C334439  29.469   4.439   4.964 -0.1698 -0.2611 -0.1572
 5740DDP     C434440  29.982   5.216   4.363 -0.0829  0.4276 -0.1599
 5741DDP     C134441   6.262  18.239  22.774 -0.0479 -0.0492 -0.1450
 5741DDP     P134442   6.522  18.227  22.480  0.3832 -0.0769  0.1706
 5741DDP     P234443   5.829  18.112  22.655 -0.0786 -0.0770 -0.0470
 5741DDP     C234444   5.495  18.023  22.887 -0.0813  0.1736  0.1222
 5741DDP     C334445   6.725  18.409  22.179  0.2304 -0.2079  0.0703
 5741DDP     C434446   6.343  18.283  23.199 -0.0614  0.0587  0.2491
 5742DDP     C134447  26.049   1.994  10.810  0.1511 -0.0613  0.1152
 5742DDP     P134448  25.633   2.092  10.588 -0.1978  0.0922 -0.2714
 5742DDP     P234449  25.893   1.591  10.718  0.1936  0.2191 -0.0732
 5742DDP     C234450  26.083   1.181  10.666 -0.0308  0.0355 -0.1444
 5742DDP     C334451  25.306   1.908  10.421 -0.1152 -0.0193 -0.0554
 5742DDP     C434452  26.296   2.435  11.037 -0.1056  0.1523  0.0348
 5743DDP     C134453   2.936  26.414   1.415  0.0301 -0.0983 -0.0534
 5743DDP     P134454   3.329  26.446   1.701  0.2405 -0.2708 -0.0321
 5743DDP     P234455   2.759  26.011   1.157  0.3978  0.0440  0.0537
 5743DDP     C234456   2.489  25.719   1.119 -0.0594 -0.0888 -0.2627
 5743DDP     C334457   3.415  26.561   2.077 -0.3457 -0.2363  0.0438
 5743DDP     C434458   2.741  26.651   1.167  0.0197 -0.0015  0.0566
 5744DDP     C134459   9.621   6.813  19.045  0.0452  0.2481 -0.1210
 5744DDP     P134460   9.944   6.982  18.701  0.0872  0.3037 -0.1796
 5744DDP     P234461   9.543   6.429  19.200  0.2448 -0.0369 -0.0015
 5744DDP     C234462   9.814   6.090  19.336 -0.0986 -0.1096 -0.1185
 5744DDP     C334463  10.238   7.253  18.629  0.0583 -0.1599  0.1108
 5744DDP     C434464   9.363   7.149  19.053 -0.0944  0.1139  0.3783
 5745DDP     C134465  12.742  13.500   4.822 -0.2740  0.3962  0.1553
 5745DDP     P134466  12.523  13.816   4.583  0.2203 -0.1776  0.4166
 5745DDP     P234467  12.412  13.618   5.212  0.0609 -0.1026 -0.1367
 5745DDP     C234468  12.276  14.046   5.374  0.0942 -0.2193  0.1568
 5745DDP     C334469  12.701  14.133   4.375  0.0574 -0.1760  0.1070
 5745DDP     C434470  13.160  13.404   4.629 -0.0139 -0.2107 -0.0824
 5746DDP     C134471   3.086  21.143   3.488 -0.1581 -0.0253 -0.2480
 5746DDP     P134472   2.820  20.806   3.625 -0.0635 -0.0420  0.0341
 5746DDP     P234473   3.529  21.221   3.642  0.1781 -0.2404  0.2945
 5746DDP     C234474   3.916  21.166   3.921  0.0809  0.2662  0.1055
 5746DDP     C334475   2.352  20.813   3.694  0.2089  0.0711 -0.0494
 5746DDP     C434476   2.906  21.546   3.281 -0.3607 -0.1236 -0.5254
 5747DDP     C134477  15.920  22.401   6.216  0.0900  0.1082  0.3040
 5747DDP     P134478  16.331  22.424   5.894  0.1997  0.0067  0.1258
 5747DDP     P234479  15.565  22.673   5.943  0.3175  0.2569  0.0399
 5747DDP     C234480  15.419  23.161   5.859 -0.3241 -0.0519  0.2144
 5747DDP     C334481  16.488  22.281   5.464 -0.0584  0.1880  0.0233
 5747DDP     C434482  15.799  22.374   6.648  0.0227  0.0526  0.0018
 5748DDP     C134483  12.454  16.497  11.204 -0.3657  0.0555 -0.1513
 5748DDP     P134484  12.298  16.683  11.491 -0.1379  0.7362  0.2592
 5748DDP     P234485  12.165  16.071  11.096 -0.2458 -0.1283  0.0529
 5748DDP     C234486  11.860  15.731  10.997 -0.1363 -0.0387 -0.3841
 5748DDP     C334487  12.122  16.936  11.804 -0.0581 -0.0964 -0.2004
 5748DDP     C434488  12.696  16.665  10.880  0.0700  0.2347  0.0449
 5749DDP     C134489   3.019  10.015  13.934  0.1964 -0.1707 -0.0220
 5749DDP     P134490   3.305   9.900  14.202 -0.0802 -0.1493  0.1455
 5749DDP     P234491   3.004  10.475  13.969 -0.0872 -0.0330  0.0634
 5749DDP     C234492   3.127  10.839  13.909  0.0215 -0.0237  0.0294
 5749DDP     C334493   3.647  10.163  14.395  0.0961  0.1635 -0.0071
 5749DDP     C434494   2.868   9.740  13.589  0.1785  0.2662 -0.0633
 5750DDP     C134495  27.260  20.703  26.085 -0.1098 -0.1205  0.1114
 5750DDP     P134496  27.551  20.678  25.799 -0.0962 -0.1479  0.0092
 5750DDP     P234497  26.935  20.420  25.924 -0.0334 -0.1197  0.0873
 5750DDP     C234498  26.710  20.181  25.627  0.0379 -0.2730  0.3140
 5750DDP     C334499  27.916  20.667  25.524 -0.0590 -0.0414 -0.1483
 5750DDP     C434500  27.337  21.013  26.484  0.3715 -0.1672 -0.1174
 5751DDP     C134501  17.422  21.621  16.042 -0.2858 -0.0312  0.0400
 5751DDP     P134502  17.307  21.984  16.362  0.2829  0.2434 -0.0413
 5751DDP     P234503  17.734  21.629  15.791 -0.2183  0.0369 -0.0743
 5751DDP     C234504  17.878  21.881  15.419 -0.1023 -0.1237 -0.1826
 5751DDP     C334505  17.182  22.169  16.797  0.2186 -0.1546 -0.0067
 5751DDP     C434506  17.201  21.211  16.010 -0.0508  0.0366 -0.1178
 5752DDP     C134507  12.476  21.328  28.646 -0.0802 -0.1658 -0.4547
 5752DDP     P134508  12.804  21.591  28.734  0.1187  0.3057  0.2747
 5752DDP     P234509  12.534  21.106  28.309 -0.0522 -0.1665  0.0754
 5752DDP     C234510  12.672  20.804  27.907  0.0740  0.1966 -0.2107
 5752DDP     C334511  13.017  21.898  28.569 -0.1417  0.1943 -0.0380
 5752DDP     C434512  12.049  21.279  28.814  0.1464 -0.3565 -0.0330
 5753DDP     C134513  22.978  18.978   6.726  0.1160  0.1906 -0.3645
 5753DDP     P134514  22.956  18.708   6.354  0.2586 -0.1531 -0.1000
 5753DDP     P234515  23.028  18.755   7.181  0.0049  0.3807  0.0487
 5753DDP     C234516  23.220  18.427   7.409  0.0169 -0.2098  0.5327
 5753DDP     C334517  22.997  18.389   6.145  0.0190 -0.1988  0.3685
 5753DDP     C434518  23.059  19.459   6.518  0.0566  0.0104 -0.1005
 5754DDP     C134519  29.566  29.778   5.748 -0.0652 -0.0091 -0.2598
 5754DDP     P134520  29.901  29.969   5.912 -0.0955 -0.0899 -0.0823
 5754DDP     P234521  29.123  29.999   5.680 -0.2292  0.0739 -0.1754
 5754DDP     C234522  28.627  30.025   5.903 -0.0877 -0.2266 -0.3065
 5754DDP     C334523   0.012  29.745   6.067 -0.1673 -0.0124 -0.0590
 5754DDP     C434524  29.702  29.679   5.346 -0.0239  0.1041 -0.1637
 5755DDP     C134525   4.511  10.790   4.602  0.0030 -0.2750  0.0955
 5755DDP     P134526   4.626  10.502   4.248  0.0921 -0.1338 -0.1123
 5755DDP     P234527   4.740  10.810   4.945  0.0470 -0.3586  0.0158
 5755DDP     C234528   5.191  10.810   5.009 -0.1032  0.0125  0.0995
 5755DDP     C334529   5.036  10.354   4.049  0.1200 -0.1803 -0.1406
 5755DDP     C434530   4.014  10.944   4.524 -0.2324 -0.0943  0.0934
 5756DDP     C134531   9.964  24.045   3.304  0.1954 -0.2319  0.0763
 5756DDP     P134532  10.137  24.373   2.998  0.1348 -0.0092 -0.0836
 5756DDP     P234533  10.213  23.822   3.517  0.1279 -0.1837  0.5123
 5756DDP     C234534  10.364  23.573   3.837 -0.1740 -0.0578 -0.1468
 5756DDP     C334535  10.303  24.642   2.641 -0.1818 -0.1345  0.0331
 5756DDP     C434536   9.568  24.115   3.058  0.1202  0.0655  0.0382
 5757DDP     C134537  11.411  29.475   4.302  0.0631  0.0028  0.0486
 5757DDP     P134538  11.395  29.701   3.949  0.1406  0.1576  0.0140
 5757DDP     P234539  11.165  29.273   4.512  0.1917  0.0323 -0.1060
 5757DDP     C234540  11.191  29.328   5.019  0.0480 -0.2802  0.0585
 5757DDP     C334541  11.487  30.096   3.684  0.1722  0.1279 -0.1976
 5757DDP     C434542  11.837  29.401   4.254 -0.1734 -0.1463  0.0130
 5758DDP     C134543  11.616  16.617  16.216  0.0685  0.0919 -0.2325
 5758DDP     P134544  11.339  16.406  16.523 -0.0034 -0.1210 -0.0029
 5758DDP     P234545  11.719  17.020  16.239 -0.0358  0.0235 -0.1572
 5758DDP     C234546  11.596  17.400  16.410 -0.1537  0.0711 -0.2025
 5758DDP     C334547  10.923  16.503  16.596  0.3353 -0.2776 -0.0960
 5758DDP     C434548  11.859  16.348  15.955  0.1208 -0.1093 -0.2292
 5759DDP     C134549  10.049  21.050  30.040 -0.0616 -0.3128 -0.0286
 5759DDP     P134550   9.664  21.245  29.997 -0.0648 -0.2716 -0.0376
 5759DDP     P234551  10.039  20.731   0.024  0.0309 -0.2068  0.0683
 5759DDP     C234552   9.916  20.400   0.098 -0.1067  0.0222 -0.0803
 5759DDP     C334553   9.403  21.278  29.711 -0.3572  0.1506  0.0450
 5759DDP     C434554  10.437  21.136  29.874 -0.2015 -0.0705 -0.0538
 5760DDP     C134555   5.428  21.999   4.411  0.1630 -0.0215 -0.0398
 5760DDP     P134556   5.472  21.662   4.241 -0.0922  0.1735 -0.1755
 5760DDP     P234557   5.197  22.098   4.668  0.2143 -0.3836 -0.1248
 5760DDP     C234558   5.022  22.457   4.953 -0.2148 -0.1560 -0.0829
 5760DDP     C334559   5.294  21.234   4.331  0.3827  0.2611  0.2048
 5760DDP     C434560   5.846  22.151   4.231  0.1086 -0.4415  0.0495
 5761DDP     C134561   9.396  25.557  17.925 -0.3323 -0.0290  0.1012
 5761DDP     P134562   9.058  25.610  18.135  0.0014  0.0067 -0.0534
 5761DDP     P234563   9.836  25.493  17.924  0.1888  0.0041 -0.1635
 5761DDP     C234564  10.284  25.626  17.989  0.3076 -0.0110 -0.1899
 5761DDP     C334565   9.010  25.709  18.639 -0.1649 -0.3805 -0.1843
 5761DDP     C434566   9.293  25.262  17.504 -0.0570  0.2064  0.0826
 5762DDP     C134567  17.269  12.249   4.021  0.0669  0.1291 -0.1110
 5762DDP     P134568  17.660  11.885   4.185  0.1365 -0.2048 -0.1389
 5762DDP     P234569  17.520  12.631   4.119 -0.0860  0.3110  0.0628
 5762DDP     C234570  17.471  13.095   4.261  0.0232 -0.0862  0.0007
 5762DDP     C334571  17.835  11.566   4.211 -0.0449 -0.0664 -0.0493
 5762DDP     C434572  16.962  12.241   3.685  0.1519 -0.2916 -0.3413
 5763DDP     C134573   6.734  10.516   1.830 -0.3352  0.1309  0.0139
 5763DDP     P134574   6.449  10.341   2.198 -0.3332  0.0309  0.1031
 5763DDP     P234575   7.122  10.297   1.891 -0.1119  0.0139 -0.1235
 5763DDP     C234576   7.342  10.071   2.141 -0.1898  0.0293 -0.2167
 5763DDP     C334577   6.131  10.026   2.380 -0.0785 -0.0926  0.0791
 5763DDP     C434578   6.735  10.876   1.701  0.0835 -0.0558  0.0008
 5764DDP     C134579  19.409  18.888   4.382 -0.1542 -0.1156  0.0896
 5764DDP     P134580  19.626  19.296   4.160  0.1108  0.0114 -0.1618
 5764DDP     P234581  19.600  18.752   4.711  0.0328 -0.0734 -0.1232
 5764DDP     C234582  19.845  18.376   4.852 -0.0148  0.1545 -0.1641
 5764DDP     C334583  19.588  19.641   3.823 -0.0569 -0.2125 -0.2489
 5764DDP     C434584  19.203  18.648   4.191  0.2133 -0.1151  0.1066
 5765DDP     C134585   2.719   7.564  17.603 -0.1768 -0.0487 -0.2090
 5765DDP     P134586   2.633   7.640  17.203 -0.0645  0.1841 -0.0155
 5765DDP     P234587   2.935   7.309  17.816 -0.1195  0.0992  0.1728
 5765DDP     C234588   3.248   7.356  18.195 -0.1803 -0.1557 -0.0156
 5765DDP     C334589   2.443   7.532  16.857  0.1178  0.0341 -0.1939
 5765DDP     C434590   2.407   7.846  17.931  0.3718 -0.2918  0.2081
 5766DDP     C134591  19.425  22.835  29.525  0.1021  0.2468  0.1291
 5766DDP     P134592  19.559  22.419  29.328 -0.0665  0.0835  0.1545
 5766DDP     P234593  18.990  23.006  29.401 -0.0849 -0.0196  0.2871
 5766DDP     C234594  18.595  23.121  29.404 -0.1241 -0.0318  0.2562
 5766DDP     C334595  19.973  22.144  29.234  0.2513  0.0158 -0.1250
 5766DDP     C434596  19.608  23.124  29.828  0.0832  0.3712  0.0052
 5767DDP     C134597  21.576   6.345  29.598 -0.1879  0.1582  0.1684
 5767DDP     P134598  21.701   6.155  29.256  0.1083  0.1762  0.1282
 5767DDP     P234599  21.266   6.509  29.498  0.2025 -0.1267  0.0058
 5767DDP     C234600  20.981   6.906  29.634 -0.0114 -0.0223  0.0758
 5767DDP     C334601  22.012   5.951  29.396 -0.0011  0.2917 -0.0947
 5767DDP     C434602  21.326   6.044  29.894  0.0148  0.0453 -0.2931
 5768DDP     C134603  29.455  24.675   4.760 -0.2788  0.2831 -0.2017
 5768DDP     P134604  29.362  24.604   5.154  0.1313 -0.1581 -0.4607
 5768DDP     P234605  29.808  24.526   4.662 -0.1368 -0.0319  0.0977
 5768DDP     C234606  30.099  24.365   4.285  0.0743 -0.1759 -0.2479
 5768DDP     C334607  29.051  24.528   5.529  0.3806 -0.2502  0.0160
 5768DDP     C434608  29.261  24.757   4.377 -0.0976 -0.1069 -0.0552
 5769DDP     C134609  29.007  16.439  25.913  0.0585  0.1927  0.3994
 5769DDP     P134610  29.079  16.369  25.571  0.1573 -0.3800  0.0101
 5769DDP     P234611  29.415  16.652  25.918  0.4109 -0.1863 -0.2972
 5769DDP     C234612  29.592  16.875  26.233  0.1163  0.0685 -0.0644
 5769DDP     C334613  29.339  16.602  25.296 -0.0931 -0.0910 -0.1179
 5769DDP     C434614  28.609  16.423  26.006 -0.0161  0.2611 -0.2084
 5770DDP     C134615   4.773  18.362  13.872  0.0449 -0.0104 -0.1689
 5770DDP     P134616   5.040  18.730  14.012  0.0763  0.0018 -0.0807
 5770DDP     P234617   4.887  17.920  13.764  0.0142  0.1109  0.0332
 5770DDP     C234618   4.785  17.499  13.426 -0.0798 -0.3040 -0.1160
 5770DDP     C334619   5.409  18.838  14.340 -0.0725  0.0053  0.1945
 5770DDP     C434620   4.354  18.435  13.685 -0.2372 -0.0767  0.4161
 5771DDP     C134621   8.825  21.290  28.515 -0.1476 -0.1249  0.2487
 5771DDP     P134622   8.419  21.455  28.550  0.0571  0.2015  0.0344
 5771DDP     P234623   8.722  20.932  28.556  0.0192  0.0973  0.1250
 5771DDP     C234624   8.578  20.564  28.812  0.2571 -0.1051 -0.2099
 5771DDP     C334625   8.025  21.429  28.634  0.0171  0.1804  0.0672
 5771DDP     C434626   9.252  21.542  28.402  0.0964 -0.0438  0.2208
 5772DDP     C134627   4.116   2.686  17.395 -0.0584  0.1501 -0.1384
 5772DDP     P134628   4.538   2.743  17.178  0.0374  0.4237 -0.1014
 5772DDP     P234629   3.895   2.296  17.330  0.1321 -0.1624 -0.1175
 5772DDP     C234630   3.678   2.073  17.617  0.0150 -0.0326  0.1762
 5772DDP     C334631   4.913   2.791  17.054 -0.0988  0.0118  0.0883
 5772DDP     C434632   3.811   3.102  17.388  0.0519 -0.2070  0.1224
 5773DDP     C134633  15.301  27.219  14.388  0.0196 -0.1628  0.1200
 5773DDP     P134634  15.424  27.493  14.041  0.1358  0.0206 -0.0122
 5773DDP     P234635  15.543  26.947  14.479  0.0311  0.1408  0.2317
 5773DDP     C234636  15.734  26.726  14.735  0.3445 -0.1281 -0.2986
 5773DDP     C334637  15.569  27.302  13.707  0.0934 -0.3421 -0.0963
 5773DDP     C434638  14.926  27.371  14.487  0.0270 -0.0430 -0.0308
 5774DDP     C134639  17.790   8.058   5.713  0.2233 -0.2326  0.5244
 5774DDP     P134640  17.641   8.108   6.050  0.0908  0.2383  0.0900
 5774DDP     P234641  17.785   7.665   5.544 -0.0041  0.1113 -0.2491
 5774DDP     C234642  18.197   7.478   5.509 -0.0710  0.0702  0.0745
 5774DDP     C334643  17.394   7.907   6.284 -0.0074 -0.0572 -0.3602
 5774DDP     C434644  17.752   8.313   5.427 -0.1258 -0.2132  0.2876
 5775DDP     C134645  23.831  28.520  20.365 -0.0662  0.1536 -0.1540
 5775DDP     P134646  24.043  28.695  20.668 -0.0606  0.0332 -0.1518
 5775DDP     P234647  23.898  28.831  20.097  0.0739  0.0850 -0.1805
 5775DDP     C234648  23.997  29.321  20.137  0.2825  0.3200  0.1931
 5775DDP     C334649  24.212  28.922  21.022  0.2933 -0.0692 -0.1978
 5775DDP     C434650  23.636  28.175  20.305 -0.1211  0.0222 -0.1296
 5776DDP     C134651  17.535  20.183   8.473 -0.1145 -0.1517 -0.2664
 5776DDP     P134652  17.892  20.112   8.338 -0.0166  0.0753 -0.0972
 5776DDP     P234653  17.472  20.056   8.840  0.1491 -0.1115  0.1219
 5776DDP     C234654  17.687  19.951   9.238  0.3137 -0.2304  0.2688
 5776DDP     C334655  18.197  19.766   8.306 -0.0934 -0.3039  0.0174
 5776DDP     C434656  17.375  20.595   8.155 -0.2168  0.1778  0.0621
 5777DDP     C134657   0.585  28.544  28.609  0.1090  0.0929  0.1570
 5777DDP     P134658   0.626  28.988  28.594 -0.1223  0.0450 -0.0100
 5777DDP     P234659   0.208  28.301  28.687  0.0817  0.0482  0.4601
 5777DDP     C234660  -0.000  28.010  29.006 -0.0791  0.1842 -0.1082
 5777DDP     C334661   0.543  29.380  28.504  0.2537 -0.3314  0.1036
 5777DDP     C434662   0.978  28.425  28.662 -0.1171 -0.0685 -0.0314
 5778DDP     C134663  12.227  17.830  29.517  0.0630  0.0439 -0.0137
 5778DDP     P134664  11.920  17.634  29.910  0.0000 -0.3714  0.0613
 5778DDP     P234665  12.659  17.819  29.660 -0.0330  0.1563  0.3002
 5778DDP     C234666  13.027  17.887  29.888 -0.0500  0.1055  0.0260
 5778DDP     C334667  12.014  17.269  29.961 -0.1618 -0.0044  0.0616
 5778DDP     C434668  11.985  17.816  29.128  0.0828  0.0477  0.4989
 5779DDP     C134669  22.444  17.129   9.040 -0.2970  0.0025  0.0595
 5779DDP     P134670  22.462  16.696   8.965  0.0644  0.1635 -0.1289
 5779DDP     P234671  22.552  17.501   9.369  0.0947 -0.1486 -0.3487
 5779DDP     C234672  22.292  17.896   9.666  0.4467  0.1124  0.3088
 5779DDP     C334673  22.228  16.292   8.967  0.0346 -0.0805 -0.1420
 5779DDP     C434674  22.438  17.113   8.541  0.1040  0.1711  0.0773
 5780DDP     C134675  18.895  22.356  17.079  0.0478 -0.1006 -0.1218
 5780DDP     P134676  19.349  22.352  17.003 -0.0399 -0.0459 -0.1259
 5780DDP     P234677  18.931  21.985  17.099  0.1124 -0.0232 -0.2076
 5780DDP     C234678  19.148  21.596  17.015  0.1471 -0.2124  0.1793
 5780DDP     C334679  19.710  22.645  17.274 -0.0716  0.0120  0.0289
 5780DDP     C434680  18.633  22.704  16.890  0.0195  0.0203  0.0941
 5781DDP     C134681  17.735  10.999   1.036  0.3557  0.4146 -0.2445
 5781DDP     P134682  17.635  11.271   0.695 -0.0251 -0.1145  0.1008
 5781DDP     P234683  17.563  10.571   1.135 -0.0477  0.0135  0.1011
 5781DDP     C234684  17.562  10.356   1.536  0.0921  0.1990  0.0536
 5781DDP     C334685  17.545  11.583   0.418  0.2767  0.3517  0.4713
 5781DDP     C434686  18.183  11.127   1.117  0.3209  0.4039 -0.0490
 5782DDP     C134687   9.527   4.145  10.805  0.0073 -0.0850 -0.0435
 5782DDP     P134688   9.171   3.967  10.967  0.1222  0.0936  0.0475
 5782DDP     P234689   9.600   3.949  10.340  0.1948 -0.4003 -0.2317
 5782DDP     C234690   9.620   3.559   9.992  0.2163  0.3059  0.0442
 5782DDP     C334691   8.684   3.744  10.860 -0.0786 -0.2764  0.2243
 5782DDP     C434692   9.802   4.415  10.922  0.0604 -0.3786 -0.3848
 5783DDP     C134693   3.098   0.243   8.758  0.1799 -0.3155  0.0470
 5783DDP     P134694   3.324   0.319   8.408  0.0404 -0.0024 -0.1780
 5783DDP     P234695   2.620   0.179   8.647  0.1512  0.2430 -0.3343
 5783DDP     C234696   2.350   0.398   8.893  0.2560  0.0017 -0.1596
 5783DDP     C334697   3.495   0.562   8.111 -0.0071  0.0174  0.2749
 5783DDP     C434698   3.255   0.397   9.203 -0.1286  0.1842  0.0340
 5784DDP     C134699  15.070  24.313  23.606  0.1792 -0.1384  0.0244
 5784DDP     P134700  14.957  24.437  23.157 -0.1478  0.0807  0.3443
 5784DDP     P234701  15.168  24.599  23.953  0.2592  0.2396  0.1536
 5784DDP     C234702  15.179  24.762  24.419 -0.0852  0.0104  0.2423
 5784DDP     C334703  14.503  24.553  23.152  0.0473  0.2016 -0.2232
 5784DDP     C434704  15.101  24.026  23.899  0.2710  0.0696 -0.2140
 5785DDP     C134705   4.301   5.633   6.891  0.0934  0.0755 -0.1121
 5785DDP     P134706   4.193   5.875   7.276  0.2152 -0.0285  0.0010
 5785DDP     P234707   4.605   5.835   6.618 -0.0860 -0.1660 -0.0039
 5785DDP     C234708   4.917   5.962   6.277  0.4958  0.0073 -0.0333
 5785DDP     C334709   4.294   6.088   7.641  0.2065 -0.1974 -0.0425
 5785DDP     C434710   4.030   5.233   6.709 -0.6279 -0.1319 -0.0703
 5786DDP     C134711   4.274  20.839   9.154 -0.1732  0.1876 -0.2303
 5786DDP     P134712   4.311  20.614   9.445  0.0553  0.3047  0.1808
 5786DDP     P234713   4.099  21.178   9.463  0.0537 -0.2441  0.0453
 5786DDP     C234714   3.814  21.392   9.715  0.1066 -0.2320 -0.2643
 5786DDP     C334715   4.560  20.576   9.870  0.0206 -0.1159  0.1183
 5786DDP     C434716   4.456  20.956   8.785  0.0230 -0.1845 -0.1708
 5787DDP     C134717  22.514   0.601   0.425  0.2660  0.4135  0.0291
 5787DDP     P134718  22.212   1.121   0.562 -0.1095  0.0618  0.0393
 5787DDP     P234719  22.740   0.796  30.322 -0.0661 -0.0229  0.1456
 5787DDP     C234720  22.900   0.630  29.932  0.0707 -0.4022  0.0260
 5787DDP     C334721  21.999   1.433   0.441  0.0244 -0.3363 -0.3122
 5787DDP     C434722  22.312   0.164   0.659  0.0953 -0.1666 -0.0902
 5788DDP     C134723  13.104  11.106   4.927 -0.1289 -0.0831 -0.0911
 5788DDP     P134724  12.764  11.202   4.608 -0.2094 -0.1163  0.1540
 5788DDP     P234725  13.048  10.645   5.111 -0.1686 -0.0435  0.2628
 5788DDP     C234726  12.793  10.297   5.349  0.3202  0.2041  0.1888
 5788DDP     C334727  12.436  11.546   4.461  0.1041  0.0225 -0.1899
 5788DDP     C434728  13.421  11.213   5.002  0.0111 -0.1508 -0.1121
 5789DDP     C134729   5.030   2.391  10.419  0.0188  0.2442 -0.2612
 5789DDP     P134730   5.035   2.742  10.657  0.1239 -0.3018  0.0630
 5789DDP     P234731   4.775   2.080  10.630 -0.0470 -0.0952 -0.0284
 5789DDP     C234732   4.576   1.724  10.502  0.1738 -0.0931  0.3350
 5789DDP     C334733   4.885   3.143  10.712  0.2744  0.0849  0.0067
 5789DDP     C434734   5.338   2.406  10.115  0.1426 -0.2124  0.0636
 5790DDP     C134735   6.384  20.227  17.620 -0.0806 -0.0325  0.0306
 5790DDP     P134736   6.352  19.763  17.555 -0.0683 -0.2119 -0.1459
 5790DDP     P234737   6.102  20.438  17.295  0.4403  0.3834 -0.1604
 5790DDP     C234738   5.728  20.474  17.093  0.1790  0.0562 -0.1537
 5790DDP     C334739   6.060  19.433  17.398 -0.4366  0.4272 -0.2152
 5790DDP     C434740   6.497  20.274  18.005 -0.0275  0.0021 -0.0399
 5791DDP     C134741  20.465  18.922  25.233 -0.0460 -0.2458  0.0995
 5791DDP     P134742  20.672  19.313  25.339  0.0685 -0.2689  0.0737
 5791DDP     P234743  20.069  18.720  25.360 -0.1470 -0.2266  0.0795
 5791DDP     C234744  19.997  18.376  25.507 -0.3137  0.0480 -0.0320
 5791DDP     C334745  20.588  19.633  25.051  0.0227 -0.2862  0.1961
 5791DDP     C434746  20.692  18.797  24.903 -0.0918  0.3049  0.3068
 5792DDP     C134747  21.699  22.615   0.412 -0.2002  0.0983  0.1815
 5792DDP     P134748  21.486  22.336   0.151 -0.0462 -0.1936 -0.0072
 5792DDP     P234749  21.576  22.531   0.878 -0.3368 -0.0322  0.1370
 5792DDP     C234750  21.501  22.308   1.250 -0.1261  0.2898  0.0167
 5792DDP     C334751  21.181  22.179  30.064 -0.1840  0.0693 -0.0918
 5792DDP     C434752  21.895  22.783   0.119  0.1698 -0.0316  0.2147
 5793DDP     C134753   1.683   9.194  17.894  0.0268 -0.3744 -0.0458
 5793DDP     P134754   1.534   9.658  18.050  0.2022  0.2117 -0.1112
 5793DDP     P234755   1.802   9.227  17.375 -0.2999 -0.2868 -0.2241
 5793DDP     C234756   1.755   9.412  16.937 -0.2311 -0.1052  0.0930
 5793DDP     C334757   1.067   9.887  18.102 -0.1585 -0.1206  0.4123
 5793DDP     C434758   1.899   8.876  18.147 -0.0635 -0.3018 -0.1319
 5794DDP     C134759  21.347   3.662  19.863 -0.2878 -0.1640 -0.1554
 5794DDP     P134760  21.005   3.516  19.597  0.0093 -0.1087  0.1030
 5794DDP     P234761  21.376   3.995  19.897 -0.3794  0.1313 -0.0135
 5794DDP     C234762  21.474   4.307  20.233 -0.1435 -0.3457 -0.0456
 5794DDP     C334763  20.592   3.599  19.481 -0.1242  0.1080  0.0329
 5794DDP     C434764  21.687   3.371  20.020 -0.2568 -0.1268  0.1516
 5795DDP     C134765   1.093  29.837  17.152 -0.0719  0.1055  0.0266
 5795DDP     P134766   1.248  29.973  16.740  0.0290 -0.2252  0.2281
 5795DDP     P234767   1.204  29.379  17.313  0.0895  0.1694  0.0138
 5795DDP     C234768   1.450  29.191  17.633 -0.0796 -0.1774 -0.1472
 5795DDP     C334769   1.272  30.140  16.297  0.1235 -0.0916 -0.1988
 5795DDP     C434770   1.091  30.261  17.330 -0.3512  0.1374 -0.0992
 5796DDP     C134771   9.121  23.313  21.004 -0.2459 -0.1095  0.3565
 5796DDP     P134772   8.832  23.640  21.141 -0.0954  0.1074  0.1087
 5796DDP     P234773   9.065  22.879  21.156 -0.4618 -0.1423 -0.1053
 5796DDP     C234774   8.765  22.762  21.529 -0.4406 -0.0464  0.1346
 5796DDP     C334775   8.580  23.684  21.423 -0.0230  0.1347  0.2435
 5796DDP     C434776   9.398  23.347  20.652  0.1364  0.0665 -0.1575
 5797DDP     C134777  30.228  12.507   2.606  0.0510 -0.1572 -0.3697
 5797DDP     P134778  30.276  12.932   2.348  0.1403 -0.1196 -0.0926
 5797DDP     P234779   0.267  12.194   2.510  0.1288 -0.2886 -0.1100
 5797DDP     C234780   0.498  11.945   2.184 -0.1539 -0.0553 -0.1380
 5797DDP     C334781  30.285  13.445   2.329  0.3193  0.3466 -0.3959
 5797DDP     C434782  29.798  12.442   2.817 -0.1432  0.0248  0.1648
 5798DDP     C134783  11.661  26.044  28.343 -0.2711 -0.3401 -0.0633
 5798DDP     P134784  11.823  26.399  28.197 -0.2021 -0.1410  0.1235
 5798DDP     P234785  11.838  25.851  28.069 -0.1243 -0.0715 -0.0542
 5798DDP     C234786  12.238  25.586  27.996 -0.0481 -0.0217 -0.3567
 5798DDP     C334787  11.945  26.804  28.299  0.0962  0.2604  0.1032
 5798DDP     C434788  11.470  26.080  28.740 -0.1487  0.0155 -0.4130
 5799DDP     C134789   0.878   3.554  25.056 -0.2406  0.1150  0.0553
 5799DDP     P134790   0.478   3.410  25.075 -0.0573 -0.1623  0.3749
 5799DDP     P234791   1.009   3.994  24.998  0.1357 -0.2626  0.0046
 5799DDP     C234792   0.930   4.199  25.358  0.2102  0.1806 -0.0282
 5799DDP     C334793   0.169   3.219  24.794  0.2705 -0.0804 -0.1040
 5799DDP     C434794   1.036   3.202  25.122 -0.1118  0.0851  0.0080
 5800DDP     C134795  29.808   4.244   3.177  0.1735 -0.2054 -0.0760
 5800DDP     P134796  29.890   3.804   3.218 -0.1640 -0.5032 -0.0573
 5800DDP     P234797  29.698   4.288   3.485 -0.2763  0.0307  0.0060
 5800DDP     C234798  29.835   4.084   3.949  0.2426  0.0692  0.1438
 5800DDP     C334799  29.943   3.344   3.067  0.0627 -0.0784  0.1037
 5800DDP     C434800  29.576   4.257   2.804  0.1059  0.0492  0.3227
 5801DDP     C134801   8.638   9.125  21.447 -0.0336 -0.2354 -0.1245
 5801DDP     P134802   8.727   8.980  21.019 -0.3027  0.0920 -0.2165
 5801DDP     P234803   8.834   8.924  21.725  0.0541  0.1178  0.0013
 5801DDP     C234804   8.883   8.536  21.867 -0.0237  0.1263 -0.3556
 5801DDP     C334805   9.125   8.983  20.766  0.1139  0.1639  0.2927
 5801DDP     C434806   8.170   9.384  21.459 -0.0046  0.2654  0.1213
 5802DDP     C134807  26.050  21.179  26.511  0.1144  0.2204 -0.0520
 5802DDP     P134808  26.417  21.043  26.585  0.2655 -0.0710  0.0842
 5802DDP     P234809  25.751  21.084  26.705 -0.0262  0.1790  0.2348
 5802DDP     C234810  25.643  20.743  27.092  0.0576 -0.0374 -0.1993
 5802DDP     C334811  26.886  20.953  26.748  0.2077 -0.0044  0.0026
 5802DDP     C434812  25.888  21.354  26.070 -0.0721 -0.2109  0.1599
 5803DDP     C134813   8.051  14.519  15.968  0.1238 -0.0726  0.0780
 5803DDP     P134814   8.447  14.786  15.785 -0.0814  0.0535  0.2028
 5803DDP     P234815   7.971  14.419  16.421 -0.1121 -0.0365  0.0971
 5803DDP     C234816   8.019  13.994  16.579  0.1684  0.0462  0.1009
 5803DDP     C334817   8.858  14.835  15.875  0.2712  0.0256 -0.0803
 5803DDP     C434818   7.739  14.315  15.638 -0.0614 -0.0886 -0.2722
 5804DDP     C134819  28.416  14.314  19.008 -0.0615 -0.0909 -0.1063
 5804DDP     P134820  28.460  14.221  18.617  0.2913  0.0082  0.0512
 5804DDP     P234821  28.150  14.601  19.249 -0.1204 -0.0015  0.2704
 5804DDP     C234822  28.296  14.896  19.631 -0.2369 -0.1207 -0.3320
 5804DDP     C334823  28.262  14.021  18.272  0.2381  0.0371 -0.1174
 5804DDP     C434824  28.504  13.996  19.356  0.1740 -0.0178 -0.1962
 5805DDP     C134825  11.266  24.533   9.788  0.0898 -0.0067  0.3265
 5805DDP     P134826  11.184  24.129   9.973 -0.4836  0.1300 -0.1931
 5805DDP     P234827  11.239  24.552   9.369 -0.2705 -0.0598 -0.1091
 5805DDP     C234828  11.198  24.878   9.088 -0.2712  0.1118 -0.0674
 5805DDP     C334829  11.195  23.672  10.233  0.0776  0.1404 -0.1593
 5805DDP     C434830  11.163  24.989   9.856  0.0780 -0.0851 -0.3968
 5806DDP     C134831  19.866   5.499  24.037  0.0113  0.3932 -0.1490
 5806DDP     P134832  20.172   5.631  23.747 -0.1597 -0.1956  0.0895
 5806DDP     P234833  20.041   5.111  24.320 -0.0304 -0.4912 -0.1533
 5806DDP     C234834  20.285   5.110  24.684 -0.0458  0.1645  0.2458
 5806DDP     C334835  20.147   5.881  23.406  0.2580  0.0286 -0.0223
 5806DDP     C434836  19.465   5.775  24.297  0.2986 -0.0432 -0.0475
 5807DDP     C134837   4.361  28.123  12.862 -0.2558 -0.0833  0.1265
 5807DDP     P134838   4.206  27.906  13.167  0.1415 -0.0638 -0.4462
 5807DDP     P234839   4.288  28.471  12.908 -0.0284 -0.0982  0.0918
 5807DDP     C234840   4.157  28.731  13.237 -0.0365 -0.3697  0.1872
 5807DDP     C334841   4.354  27.843  13.511  0.1187  0.1206  0.0713
 5807DDP     C434842   4.595  27.997  12.529  0.0159  0.2510  0.0939
 5808DDP     C134843  18.459   1.726  25.962  0.0407 -0.0950 -0.1516
 5808DDP     P134844  18.222   2.070  25.874  0.0199  0.0584  0.0736
 5808DDP     P234845  18.823   1.757  26.241 -0.0788 -0.0013 -0.1749
 5808DDP     C234846  19.233   1.909  26.408 -0.3246 -0.1850 -0.2571
 5808DDP     C334847  17.783   2.309  25.777  0.0718 -0.2816  0.1164
 5808DDP     C434848  18.250   1.384  25.700  0.0604  0.2274 -0.2610
 5809DDP     C134849  20.510  19.003  20.326 -0.3160  0.0531  0.0800
 5809DDP     P134850  20.398  18.730  19.907 -0.0661 -0.1768  0.0411
 5809DDP     P234851  20.412  19.447  20.360 -0.6540  0.0131  0.2664
 5809DDP     C234852  20.670  19.785  20.407 -0.1445 -0.4475 -0.1749
 5809DDP     C334853  20.548  18.898  19.558  0.3087 -0.0352 -0.3195
 5809DDP     C434854  20.890  18.779  20.569  0.2979 -0.0242 -0.2270
 5810DDP     C134855  27.894   9.453  25.748  0.4241 -0.1185 -0.2119
 5810DDP     P134856  28.124   9.132  25.860 -0.0917 -0.2088 -0.0627
 5810DDP     P234857  27.801   9.537  25.176  0.0901 -0.0816 -0.2698
 5810DDP     C234858  27.800   9.630  24.790  0.3170 -0.3223 -0.0234
 5810DDP     C334859  28.193   8.805  26.078  0.1949 -0.1015 -0.1346
 5810DDP     C434860  27.630   9.762  26.035  0.4396 -0.0731  0.1331
 5811DDP     C134861  12.778  18.894   3.769  0.2601  0.0460  0.0339
 5811DDP     P134862  12.895  19.311   3.869 -0.1111  0.0996  0.0182
 5811DDP     P234863  12.454  19.041   3.576 -0.0823 -0.3858 -0.0592
 5811DDP     C234864  12.144  18.816   3.381  0.1752 -0.1063  0.1201
 5811DDP     C334865  13.074  19.661   3.831 -0.1493  0.1421  0.4473
 5811DDP     C434866  13.127  18.504   3.677  0.3243  0.2874 -0.2054
 5812DDP     C134867  23.250   3.119  12.394 -0.0540  0.3580 -0.1452
 5812DDP     P134868  23.584   2.899  12.617  0.2537 -0.0869  0.2616
 5812DDP     P234869  23.229   3.541  12.242 -0.0163 -0.0420 -0.0592
 5812DDP     C234870  23.615   3.622  11.960  0.0164 -0.1119  0.2537
 5812DDP     C334871  24.051   2.793  12.504 -0.0485 -0.0024  0.2025
 5812DDP     C434872  22.900   2.822  12.248 -0.0719  0.1923 -0.2226
 5813DDP     C134873  24.187   0.478  22.888 -0.0686  0.1488  0.1414
 5813DDP     P134874  24.360   0.546  22.461 -0.1273  0.0825 -0.1835
 5813DDP     P234875  24.118   0.053  22.970 -0.0164  0.1076 -0.1365
 5813DDP     C234876  23.953  29.987  22.665  0.3319 -0.1307 -0.3712
 5813DDP     C334877  24.319   0.736  22.091 -0.3000 -0.3227 -0.3088
 5813DDP     C434878  24.168   0.809  23.182 -0.0978  0.2327  0.1759
 5814DDP     C134879   5.671  25.228  23.499 -0.2783  0.0513  0.1044
 5814DDP     P134880   5.460  25.444  23.203 -0.1015  0.1748 -0.0604
 5814DDP     P234881   5.661  25.191  23.947 -0.0537  0.3415  0.2192
 5814DDP     C234882   5.201  25.035  24.176  0.2386  0.0973 -0.1801
 5814DDP     C334883   5.071  25.549  23.357  0.2105 -0.1635 -0.0886
 5814DDP     C434884   5.975  24.904  23.423 -0.2607  0.1881  0.2823
 5815DDP     C134885  26.281   6.082   9.560  0.3603 -0.2364  0.0932
 5815DDP     P134886  26.361   6.476   9.754 -0.0128 -0.3669  0.0279
 5815DDP     P234887  26.469   5.912   9.226 -0.0547 -0.0636  0.2686
 5815DDP     C234888  26.557   5.471   9.117  0.0710 -0.1761  0.2756
 5815DDP     C334889  26.101   6.909   9.772  0.3032  0.0748 -0.1013
 5815DDP     C434890  26.026   5.687   9.609 -0.2356 -0.0346 -0.2254
 5816DDP     C134891   6.133  28.469  23.406  0.0296 -0.1438  0.1053
 5816DDP     P134892   6.382  28.739  23.083  0.0854  0.1295 -0.1399
 5816DDP     P234893   6.374  28.614  23.669  0.0565 -0.3519 -0.0543
 5816DDP     C234894   6.403  28.921  23.999  0.1425 -0.2021 -0.1881
 5816DDP     C334895   6.590  28.556  22.731  0.0329  0.0314  0.2056
 5816DDP     C434896   5.770  28.214  23.168 -0.0431 -0.1964  0.2332
 5817DDP     C134897  19.056   3.146  19.525 -0.0677 -0.0901  0.2435
 5817DDP     P134898  19.364   2.963  19.711 -0.3356 -0.2328 -0.0864
 5817DDP     P234899  19.141   3.528  19.298 -0.1143  0.0130 -0.1593
 5817DDP     C234900  19.305   3.766  19.051 -0.0570  0.0027  0.0201
 5817DDP     C334901  19.458   2.480  19.784  0.0290 -0.1760  0.3173
 5817DDP     C434902  18.678   2.911  19.457 -0.3996  0.0412 -0.2354
 5818DDP     C134903  26.451  18.999   4.618  0.1070 -0.1013  0.1370
 5818DDP     P134904  26.722  18.681   4.448  0.0619 -0.3244 -0.3288
 5818DDP     P234905  26.020  18.807   4.629 -0.1011  0.1813 -0.1154
 5818DDP     C234906  25.708  18.507   4.783 -0.2595 -0.2506  0.2775
 5818DDP     C334907  26.761  18.647   4.047 -0.1075  0.2764  0.0069
 5818DDP     C434908  26.550  19.338   4.921  0.1964  0.1473  0.0321
 5819DDP     C134909   7.472  28.073  25.948 -0.4098  0.1763 -0.1258
 5819DDP     P134910   7.647  27.611  26.163  0.2909  0.1383  0.0277
 5819DDP     P234911   7.088  28.249  25.722  0.1627 -0.1809 -0.0252
 5819DDP     C234912   6.582  28.209  25.684  0.0677 -0.1532 -0.1190
 5819DDP     C334913   7.834  27.239  25.988  0.1953  0.3765 -0.0682
 5819DDP     C434914   7.870  28.217  26.031  0.3395 -0.1107  0.1312
 5820DDP     C134915  18.747   2.419  18.811 -0.0607 -0.0370  0.2207
 5820DDP     P134916  19.040   2.210  18.618  0.0857 -0.1886 -0.1222
 5820DDP     P234917  18.719   2.386  19.256 -0.5472 -0.0263  0.0251
 5820DDP     C234918  19.016   2.190  19.622 -0.0488 -0.1844  0.1424
 5820DDP     C334919  18.947   1.874  18.354  0.1928 -0.0082  0.1763
 5820DDP     C434920  18.298   2.694  18.796 -0.1386 -0.0121  0.0495
 5821DDP     C134921  18.777   7.806  28.100 -0.1367  0.3028  0.0045
 5821DDP     P134922  18.458   7.526  28.130 -0.1711  0.1985 -0.0257
 5821DDP     P234923  18.808   7.941  28.523  0.2947 -0.1441 -0.0496
 5821DDP     C234924  18.610   8.215  28.943  0.1550 -0.2463  0.0674
 5821DDP     C334925  17.984   7.544  27.970  0.1108 -0.1894  0.0363
 5821DDP     C434926  19.065   7.964  27.845  0.0301  0.0586 -0.1840
 5822DDP     C134927  21.848  15.713  26.829  0.1546 -0.0624  0.2250
 5822DDP     P134928  21.736  16.081  26.893 -0.2506  0.0060 -0.2022
 5822DDP     P234929  22.160  15.476  27.065  0.3884 -0.3226  0.2806
 5822DDP     C234930  22.511  15.560  27.204  0.3380 -0.2518 -0.2936
 5822DDP     C334931  21.553  16.430  27.156  0.0998 -0.0942 -0.0207
 5822DDP     C434932  21.398  15.511  26.825  0.1636  0.2688 -0.1329
 5823DDP     C134933  12.950  22.718  24.679 -0.0210 -0.0681  0.0323
 5823DDP     P134934  12.872  22.516  24.272  0.0615  0.0546  0.3493
 5823DDP     P234935  12.853  23.163  24.740 -0.1862  0.2216 -0.0517
 5823DDP     C234936  12.722  23.484  25.009  0.1012  0.1124  0.2455
 5823DDP     C334937  13.097  22.430  23.876 -0.1879  0.2172  0.2183
 5823DDP     C434938  13.032  22.401  25.015  0.4487  0.2804  0.0438
 5824DDP     C134939  23.973   2.253  21.062 -0.2543  0.1773  0.1448
 5824DDP     P134940  23.804   2.212  21.495 -0.1836 -0.1586 -0.0678
 5824DDP     P234941  23.730   1.971  20.780  0.1513  0.2028 -0.2510
 5824DDP     C234942  23.894   1.539  20.788 -0.0166  0.1164  0.1451
 5824DDP     C334943  23.608   1.993  21.901 -0.1075  0.0764 -0.0369
 5824DDP     C434944  24.410   2.318  20.961 -0.1050  0.0215  0.0388
 5825DDP     C134945  10.602  12.823   1.214 -0.1752  0.1068 -0.3870
 5825DDP     P134946  10.203  13.054   1.212  0.0604  0.3146  0.3021
 5825DDP     P234947  10.741  12.344   1.187  0.5306 -0.1636  0.3060
 5825DDP     C234948  10.656  11.945   1.220 -0.2151  0.0265  0.1087
 5825DDP     C334949   9.949  13.332   1.429  0.2407  0.0020  0.1018
 5825DDP     C434950  10.859  13.133   1.245 -0.1625  0.0757  0.1539
 5826DDP     C134951   1.885  13.913  17.960  0.1940  0.0110  0.3085
 5826DDP     P134952   1.676  14.250  17.712  0.2161 -0.0885  0.0852
 5826DDP     P234953   2.309  13.698  17.915 -0.2587 -0.1335 -0.2609
 5826DDP     C234954   2.659  13.459  17.839 -0.0918  0.4378  0.1595
 5826DDP     C334955   1.807  14.590  17.442  0.1552 -0.4778  0.2123
 5826DDP     C434956   1.594  13.904  18.304 -0.2052  0.2835 -0.1157
 5827DDP     C134957   1.329   3.745  28.825  0.0502 -0.1825  0.1679
 5827DDP     P134958   1.063   4.107  28.710  0.1885 -0.0438 -0.0661
 5827DDP     P234959   1.656   3.797  28.506  0.0566  0.1275 -0.2834
 5827DDP     C234960   1.884   3.943  28.201 -0.3125  0.0415  0.1257
 5827DDP     C334961   1.166   4.431  28.310  0.1881  0.1065 -0.0816
 5827DDP     C434962   1.357   3.454  29.101  0.0116 -0.0857  0.0091
 5828DDP     C134963  30.185   6.620  24.350 -0.0915  0.0824  0.1821
 5828DDP     P134964  29.914   6.869  24.591  0.3590  0.1652  0.2551
 5828DDP     P234965   0.206   6.882  24.135 -0.0438 -0.2891  0.1852
 5828DDP     C234966   0.328   6.999  23.708  0.1142 -0.1689  0.1825
 5828DDP     C334967  29.558   7.197  24.509 -0.0580 -0.0655 -0.1569
 5828DDP     C434968  30.180   6.136  24.477 -0.2070 -0.1064  0.0046
 5829DDP     C134969   2.533   7.858   2.182 -0.2146 -0.0386 -0.0279
 5829DDP     P134970   2.846   8.137   2.130  0.1917  0.1638 -0.1199
 5829DDP     P234971   2.204   8.127   2.259 -0.0016 -0.0900 -0.1388
 5829DDP     C234972   1.785   8.278   2.294 -0.0316  0.1444  0.2064
 5829DDP     C334973   3.290   8.317   2.099  0.2945 -0.0341 -0.1116
 5829DDP     C434974   2.553   7.410   2.106  0.3512  0.4348  0.0577
 5830DDP     C134975   9.213   9.463  14.621 -0.1016 -0.0364  0.1392
 5830DDP     P134976   9.179   9.024  14.738 -0.2511 -0.1578  0.0003
 5830DDP     P234977   9.661   9.518  14.559 -0.1426 -0.0975  0.0027
 5830DDP     C234978   9.909   9.157  14.518 -0.0275  0.2959 -0.0183
 5830DDP     C334979   9.182   8.645  14.918 -0.2958  0.0075 -0.3427
 5830DDP     C434980   8.962   9.768  14.581  0.0214 -0.0767  0.2123
 5831DDP     C134981  11.157  30.243  14.623  0.1635 -0.0963  0.0942
 5831DDP     P134982  11.390  29.968  14.295 -0.0398 -0.0844 -0.0399
 5831DDP     P234983  10.896  29.840  14.701  0.3853 -0.0573 -0.1178
 5831DDP     C234984  11.072  29.460  14.707 -0.3284  0.0184  0.1916
 5831DDP     C334985  11.619  29.721  13.920  0.2536 -0.0639 -0.0476
 5831DDP     C434986  11.218   0.303  14.859 -0.0200 -0.1058  0.0809
 5832DDP     C134987  15.113  28.701   9.662  0.1339  0.1101  0.0540
 5832DDP     P134988  14.990  29.040   9.323 -0.0492 -0.2008 -0.0279
 5832DDP     P234989  15.250  28.942   9.951  0.1528  0.0227  0.0980
 5832DDP     C234990  15.491  29.255  10.160 -0.2605  0.1750  0.0454
 5832DDP     C334991  15.223  29.314   8.902  0.3534 -0.2622 -0.3449
 5832DDP     C434992  14.773  28.278   9.750  0.0292 -0.2885 -0.0135
 5833DDP     C134993   7.617  26.425   8.116 -0.0472 -0.3549 -0.1483
 5833DDP     P134994   7.281  26.556   7.866  0.0907  0.2080 -0.1842
 5833DDP     P234995   7.789  26.092   7.970  0.1927 -0.0322  0.3273
 5833DDP     C234996   7.908  25.709   7.984 -0.1866 -0.1215 -0.1439
 5833DDP     C334997   6.838  26.436   7.595  0.0784  0.0641 -0.0411
 5833DDP     C434998   7.927  26.727   8.266  0.1790  0.0417  0.1479
 5834DDP     C134999   2.892  16.121   6.781  0.0757  0.0343 -0.0857
 5834DDP     P135000   2.893  16.341   7.092  0.1382 -0.0924 -0.0577
 5834DDP     P235001   2.604  15.911   6.987 -0.3426  0.0547  0.3285
 5834DDP     C235002   2.811  15.524   7.233 -0.0308  0.1637 -0.1603
 5834DDP     C335003   2.881  16.455   7.586  0.0355  0.1316 -0.2104
 5834DDP     C435004   3.018  16.364   6.459 -0.3567  0.0998 -0.1161
 5835DDP     C135005   5.748   0.319  16.339 -0.3837 -0.0589 -0.0806
 5835DDP     P135006   5.732   0.714  16.660  0.0618 -0.1860  0.2076
 5835DDP     P235007   6.123   0.392  16.092 -0.0560 -0.0151 -0.0641
 5835DDP     C235008   6.563   0.181  15.868  0.0716  0.0865 -0.2429
 5835DDP     C335009   5.763   0.728  17.113 -0.0160 -0.0464 -0.1648
 5835DDP     C435010   5.429  -0.012  16.237  0.0498 -0.1453  0.1185
 5836DDP     C135011  21.025   9.206   4.154 -0.0237  0.2298  0.2618
 5836DDP     P135012  20.993   9.548   4.459  0.1108 -0.1219  0.4992
 5836DDP     P235013  21.461   9.030   4.027  0.1779  0.0535  0.1870
 5836DDP     C235014  21.690   8.642   4.083 -0.0753  0.0709  0.2090
 5836DDP     C335015  21.088   9.930   4.337  0.0012 -0.0048  0.0438
 5836DDP     C435016  20.650   9.041   3.921  0.1433  0.0061 -0.3465
 5837DDP     C135017  21.846  22.294   1.659 -0.4191 -0.1043 -0.0095
 5837DDP     P135018  21.775  21.955   1.481  0.0673  0.1346 -0.0433
 5837DDP     P235019  21.827  22.707   1.488 -0.1294  0.2253 -0.0962
 5837DDP     C235020  21.906  22.996   1.186 -0.3667  0.0176  0.0961
 5837DDP     C335021  21.747  21.645   1.187  0.0008  0.1139  0.1942
 5837DDP     C435022  21.789  22.119   2.052  0.0086  0.0065 -0.0281
 5838DDP     C135023  13.063   3.668   9.280 -0.1482  0.1439  0.4566
 5838DDP     P135024  12.584   3.555   9.315  0.1646  0.1608 -0.0416
 5838DDP     P235025  12.831   3.565   9.749  0.3476  0.1811 -0.2500
 5838DDP     C235026  12.880   3.271   9.983 -0.0061  0.0190  0.0721
 5838DDP     C335027  12.117   3.317   9.450 -0.0772  0.1543 -0.1669
 5838DDP     C435028  13.266   3.685   8.790  0.0855  0.0409  0.0250
 5839DDP     C135029  12.481   9.239  29.237 -0.1504 -0.1325  0.2841
 5839DDP     P135030  12.278   9.053  29.439  0.0211 -0.2341  0.1614
 5839DDP     P235031  12.770   8.961  29.165  0.2608  0.0227 -0.2753
 5839DDP     C235032  13.087   8.623  29.124 -0.1803 -0.2305 -0.0007
 5839DDP     C335033  12.245   9.041  29.891  0.1633 -0.3331 -0.1583
 5839DDP     C435034  12.305   9.523  28.965  0.0477 -0.0770  0.0383
 5840DDP     C135035  23.147  15.445  18.066 -0.1339 -0.1071 -0.0014
 5840DDP     P135036  23.268  15.444  17.719  0.1573  0.2270  0.1933
 5840DDP     P235037  23.550  15.184  18.294 -0.0106 -0.1959 -0.1177
 5840DDP     C235038  23.587  15.063  18.750 -0.0527  0.2102  0.1276
 5840DDP     C335039  23.264  15.114  17.467 -0.1030 -0.2523  0.0095
 5840DDP     C435040  22.829  15.663  18.166 -0.0271  0.0136  0.1194
 5841DDP     C135041  22.536  16.517   6.173 -0.0131  0.2171 -0.0915
 5841DDP     P135042  22.516  16.448   5.741  0.0087  0.0725  0.1996
 5841DDP     P235043  22.230  16.930   6.266 -0.1383  0.0643 -0.0643
 5841DDP     C235044  21.963  17.044   6.538  0.0155 -0.3744 -0.0424
 5841DDP     C335045  22.725  16.120   5.523 -0.1707  0.1909 -0.3565
 5841DDP     C435046  22.895  16.446   6.393 -0.1877  0.1345  0.3615
 5842DDP     C135047  24.707  26.282  11.087 -0.0865  0.1076  0.0836
 5842DDP     P135048  24.353  26.036  10.985  0.1746  0.3231  0.1317
 5842DDP     P235049  24.574  26.429  11.474  0.1440 -0.0476 -0.0164
 5842DDP     C235050  24.377  26.831  11.519  0.0117  0.0171 -0.1034
 5842DDP     C335051  24.051  25.845  11.245  0.3686 -0.0973 -0.2918
 5842DDP     C435052  25.140  26.267  10.895  0.0893  0.2609  0.1324
 5843DDP     C135053  28.699   8.665   2.472  0.1474  0.3264 -0.0608
 5843DDP     P135054  28.897   8.273   2.452  0.2043  0.2478 -0.1956
 5843DDP     P235055  28.429   8.721   2.827 -0.2089  0.0035 -0.2031
 5843DDP     C235056  28.162   8.443   3.123  0.1391  0.0138 -0.3065
 5843DDP     C335057  28.945   7.849   2.272  0.0184 -0.0791 -0.1407
 5843DDP     C435058  28.867   9.005   2.220 -0.0211  0.1444 -0.2330
 5844DDP     C135059  10.088  10.868  11.282  0.1421 -0.0524  0.2363
 5844DDP     P135060   9.910  11.330  11.409 -0.0111  0.1228 -0.3123
 5844DDP     P235061   9.821  10.505  11.364 -0.1341 -0.0001 -0.0827
 5844DDP     C235062   9.872  10.171  11.668  0.5251 -0.1191  0.0491
 5844DDP     C335063   9.731  11.679  11.551  0.0406  0.0482 -0.1579
 5844DDP     C435064  10.485  10.660  11.229 -0.2063  0.1091  0.0304
 5845DDP     C135065   9.390  17.057  23.092 -0.1851 -0.1384  0.0295
 5845DDP     P135066   9.423  17.459  23.318 -0.0661 -0.1044  0.4212
 5845DDP     P235067   9.733  16.816  23.177  0.1467 -0.1116 -0.4096
 5845DDP     C235068   9.824  16.349  23.159  0.0472 -0.1339  0.1456
 5845DDP     C335069   9.556  17.563  23.721  0.0020  0.1568  0.0909
 5845DDP     C435070   9.006  16.929  22.892  0.0727 -0.0641 -0.1269
 5846DDP     C135071  25.510   9.573   9.606 -0.1542  0.0734  0.1658
 5846DDP     P135072  25.881   9.462   9.397 -0.2783  0.1239  0.1283
 5846DDP     P235073  25.648   9.446   9.972 -0.0813  0.0106 -0.0436
 5846DDP     C235074  25.814   9.762  10.278 -0.3156 -0.0710  0.2809
 5846DDP     C335075  26.142   9.143   9.234 -0.3811 -0.2198 -0.0662
 5846DDP     C435076  25.212   9.908   9.445 -0.0491  0.1923 -0.2840
 5847DDP     C135077  19.632   0.285  21.764  0.2404  0.0523 -0.1849
 5847DDP     P135078  19.373   0.533  21.930  0.0973  0.0009  0.0160
 5847DDP     P235079  20.056   0.352  21.478  0.0686  0.0676 -0.3450
 5847DDP     C235080  20.380   0.570  21.519  0.3060 -0.1039 -0.0688
 5847DDP     C335081  19.000   0.721  21.972  0.1623 -0.0416 -0.0289
 5847DDP     C435082  19.480  30.250  21.417  0.2264  0.3972  0.0900
 5848DDP     C135083  28.625  10.807  29.351  0.1698  0.0976 -0.0484
 5848DDP     P135084  28.260  10.534  29.125  0.0646  0.1449  0.2290
 5848DDP     P235085  28.826  10.683  29.552  0.0719 -0.0233  0.1794
 5848DDP     C235086  29.100  10.393  29.773  0.0787  0.0396  0.0656
 5848DDP     C335087  27.795  10.461  29.072  0.2109  0.0703 -0.5427
 5848DDP     C435088  28.534  11.390  29.333 -0.0196  0.0270 -0.0182
 5849DDP     C135089  24.251   1.498  11.034  0.0591  0.2947 -0.1457
 5849DDP     P135090  24.408   1.463  11.375  0.0235 -0.1725  0.0231
 5849DDP     P235091  23.890   1.259  10.922  0.1572 -0.3350  0.1167
 5849DDP     C235092  23.598   1.103  10.632 -0.0665 -0.3034 -0.2385
 5849DDP     C335093  24.791   1.512  11.488 -0.0257  0.1979 -0.1149
 5849DDP     C435094  24.303   1.813  10.711 -0.0912 -0.0844  0.1302
 5850DDP     C135095  14.832  22.127   3.055 -0.1626 -0.0650 -0.0302
 5850DDP     P135096  15.128  21.919   2.653 -0.0501 -0.1736 -0.0120
 5850DDP     P235097  14.894  22.153   3.497  0.0537 -0.1006 -0.2943
 5850DDP     C235098  14.998  22.313   3.894  0.0281 -0.0859 -0.3801
 5850DDP     C335099  15.162  21.968   2.202  0.0331  0.0528 -0.0742
 5850DDP     C435100  14.449  22.296   2.671  0.0628  0.2286 -0.0193
 5851DDP     C135101   6.909  26.239   8.104  0.1456 -0.0222  0.1339
 5851DDP     P135102   7.143  26.549   8.379 -0.5014 -0.0755  0.0999
 5851DDP     P235103   6.494  26.284   7.983 -0.0388 -0.1130  0.0851
 5851DDP     C235104   6.309  26.641   7.916 -0.0567 -0.0935 -0.0899
 5851DDP     C335105   7.473  26.512   8.682 -0.2518  0.2046 -0.1167
 5851DDP     C435106   6.920  25.838   8.015 -0.0031  0.2282 -0.1968
 5852DDP     C135107   7.933  17.420   4.688 -0.0219 -0.1923 -0.0561
 5852DDP     P135108   8.436  17.587   4.666  0.1121 -0.0251 -0.3819
 5852DDP     P235109   7.609  17.804   4.664 -0.0811  0.4683 -0.0475
 5852DDP     C235110   7.571  18.178   4.670 -0.4371 -0.2023  0.2516
 5852DDP     C335111   8.706  17.578   5.054  0.0375 -0.0389 -0.0403
 5852DDP     C435112   7.749  17.246   4.262  0.2252 -0.2685 -0.2403
 5853DDP     C135113  29.903  29.681  20.003  0.0217 -0.2836  0.0307
 5853DDP     P135114  29.753  29.821  19.618 -0.2847 -0.1010 -0.0392
 5853DDP     P235115  30.117  29.925  20.231 -0.0253  0.2076  0.0178
 5853DDP     C235116  30.308  30.309  20.519 -0.1061  0.0680 -0.1496
 5853DDP     C335117  29.996  30.047  19.281 -0.0838  0.1457  0.0694
 5853DDP     C435118  29.570  29.482  20.164  0.3746 -0.6195 -0.2632
 5854DDP     C135119  25.392  20.622  12.805 -0.0332  0.0824  0.1240
 5854DDP     P135120  25.277  21.041  12.639 -0.0583 -0.1888 -0.0093
 5854DDP     P235121  25.096  20.382  13.151 -0.3643 -0.1102  0.1440
 5854DDP     C235122  24.866  20.352  13.519 -0.0244  0.3818 -0.0526
 5854DDP     C335123  24.907  21.341  12.579 -0.3167 -0.2644 -0.0472
 5854DDP     C435124  25.797  20.426  12.826 -0.0341  0.1323  0.0328
 5855DDP     C135125   9.472   3.402  17.264  0.0677  0.3948  0.2788
 5855DDP     P135126   9.781   2.969  17.404 -0.0622  0.0563 -0.0436
 5855DDP     P235127   9.667   3.542  16.881  0.4204  0.1031 -0.0208
 5855DDP     C235128  10.059   3.309  16.853  0.0108  0.1417 -0.0594
 5855DDP     C335129   9.896   2.651  17.572  0.2103  0.1090  0.3767
 5855DDP     C435130   9.023   3.552  17.539 -0.2987 -0.1666  0.1752
 5856DDP     C135131  17.210   3.612   2.108  0.3971 -0.0733  0.1500
 5856DDP     P135132  17.430   3.332   1.873  0.0013  0.0692 -0.0282
 5856DDP     P235133  17.443   3.743   2.411  0.1546 -0.0299  0.0878
 5856DDP     C235134  17.451   4.205   2.561 -0.1595  0.2630 -0.0882
 5856DDP     C335135  17.464   2.921   1.610 -0.1345  0.2341 -0.0293
 5856DDP     C435136  16.752   3.863   1.991 -0.2007 -0.3709  0.2209
 5857DDP     C135137  16.016   4.330  14.740 -0.1267  0.1177  0.1995
 5857DDP     P135138  15.880   4.557  14.278  0.2043  0.1472  0.0747
 5857DDP     P235139  16.175   3.935  14.723 -0.1527  0.1242 -0.0994
 5857DDP     C235140  16.418   3.514  14.626 -0.1188 -0.0936 -0.3934
 5857DDP     C335141  15.588   4.518  13.959  0.1041 -0.0154 -0.1092
 5857DDP     C435142  16.209   4.645  15.025  0.2776  0.2193 -0.1169
 5858DDP     C135143  11.226   6.904  30.168 -0.2707 -0.1463  0.1174
 5858DDP     P135144  10.879   6.834  29.953  0.0238  0.0660  0.0302
 5858DDP     P235145  11.358   7.348  30.088 -0.4005  0.1027 -0.3964
 5858DDP     C235146  11.230   7.629  29.756  0.4468  0.1958 -0.0245
 5858DDP     C335147  10.474   6.540  29.801 -0.3164  0.1299  0.1572
 5858DDP     C435148  11.141   6.745   0.252  0.2670 -0.0730  0.0694
 5859DDP     C135149  26.134   6.135   4.021  0.3243 -0.1160 -0.3858
 5859DDP     P135150  25.890   6.525   3.741 -0.2446  0.0145  0.3166
 5859DDP     P235151  26.145   5.742   3.876  0.3595  0.1794  0.3723
 5859DDP     C235152  26.065   5.308   3.907 -0.1182 -0.1592  0.2157
 5859DDP     C335153  26.026   6.934   3.687 -0.0587 -0.1378 -0.2383
 5859DDP     C435154  26.398   6.288   4.344  0.1784 -0.0147  0.0786
 5860DDP     C135155   6.740  13.145  11.476  0.1432  0.0920  0.0387
 5860DDP     P135156   6.992  13.500  11.322 -0.1630  0.1325 -0.3934
 5860DDP     P235157   6.501  13.112  11.128  0.2025  0.0497  0.0889
 5860DDP     C235158   6.121  12.932  11.048 -0.1815 -0.1221 -0.1339
 5860DDP     C335159   6.972  13.901  11.231  0.2082  0.1105 -0.1573
 5860DDP     C435160   6.495  13.042  11.933  0.2144 -0.0212  0.0011
 5861DDP     C135161   8.581  12.364  16.675  0.4411  0.0541 -0.3880
 5861DDP     P135162   8.944  12.166  16.645  0.0956  0.0259  0.1319
 5861DDP     P235163   8.509  12.747  16.471 -0.0299 -0.2275 -0.2511
 5861DDP     C235164   8.303  12.994  16.264 -0.2283 -0.2396 -0.0979
 5861DDP     C335165   9.176  11.832  16.513 -0.1109  0.3069 -0.0740
 5861DDP     C435166   8.315  12.216  16.784  0.1349  0.0313 -0.0189
 5862DDP     C135167  13.659   4.077   4.451 -0.2900  0.1474  0.1851
 5862DDP     P135168  13.338   4.260   4.098 -0.1415  0.0749  0.0516
 5862DDP     P235169  13.775   3.661   4.557  0.2691 -0.0278  0.2659
 5862DDP     C235170  13.609   3.327   4.760  0.2167 -0.3115 -0.0427
 5862DDP     C335171  13.294   4.670   3.893 -0.1698  0.1301  0.2250
 5862DDP     C435172  13.471   4.217   4.885  0.2207 -0.0179 -0.0066
 5863DDP     C135173  15.079  19.771  27.406 -0.1450 -0.0348  0.0093
 5863DDP     P135174  14.880  19.820  26.983  0.0736 -0.1930  0.2871
 5863DDP     P235175  15.155  19.380  27.468 -0.2917  0.1120  0.1584
 5863DDP     C235176  14.995  19.144  27.846  0.1491 -0.2190 -0.1695
 5863DDP     C335177  14.768  19.605  26.536  0.2505  0.0482  0.1177
 5863DDP     C435178  15.339  20.097  27.669 -0.1396 -0.0044 -0.0423
 5864DDP     C135179   4.136   3.704   2.990  0.1638  0.2278  0.0420
 5864DDP     P135180   4.610   3.604   2.917 -0.1566 -0.3948 -0.1747
 5864DDP     P235181   3.889   3.347   3.153 -0.1767 -0.0767 -0.0282
 5864DDP     C235182   3.736   3.174   3.574  0.1516 -0.3347 -0.0460
 5864DDP     C335183   4.942   3.341   2.782  0.0734 -0.0099  0.0261
 5864DDP     C435184   3.949   4.114   2.820 -0.1966  0.2467 -0.1643
 5865DDP     C135185  29.989  19.523   1.977  0.1414 -0.3023 -0.0121
 5865DDP     P135186  29.624  19.524   2.198  0.2963  0.2286 -0.1814
 5865DDP     P235187  30.335  19.854   2.040  0.1735  0.0552  0.0157
 5865DDP     C235188   0.251  20.284   2.043 -0.3928  0.2202  0.0313
 5865DDP     C335189  29.333  19.505   1.897 -0.0807  0.2080 -0.1056
 5865DDP     C435190  29.798  19.375   1.595  0.0297  0.0625  0.0565
 5866DDP     C135191  17.076  10.499   5.325 -0.0659 -0.0776  0.3368
 5866DDP     P135192  17.331  10.897   5.307  0.1917  0.0448  0.0131
 5866DDP     P235193  16.711  10.354   5.044 -0.0739 -0.0676 -0.0662
 5866DDP     C235194  16.544  10.065   4.826 -0.1205 -0.3459  0.2889
 5866DDP     C335195  17.514  11.139   5.037 -0.0610 -0.2213  0.0521
 5866DDP     C435196  17.410  10.219   5.437 -0.2009 -0.2292 -0.3848
 5867DDP     C135197   4.310  14.029  24.119 -0.1684  0.0124  0.0994
 5867DDP     P135198   4.531  13.829  24.443 -0.1069  0.0731 -0.2487
 5867DDP     P235199   4.000  14.269  24.303 -0.4102 -0.1447  0.0064
 5867DDP     C235200   4.025  14.529  24.754  0.1162  0.2086 -0.2445
 5867DDP     C335201   4.788  13.462  24.307  0.1907 -0.2431 -0.0214
 5867DDP     C435202   4.389  14.111  23.702 -0.2370  0.1166  0.0033
 5868DDP     C135203   5.357  10.267   7.439  0.1002  0.2542  0.3084
 5868DDP     P135204   5.158  10.418   7.150 -0.0406  0.2316 -0.1925
 5868DDP     P235205   5.238   9.995   7.810  0.1509 -0.0140 -0.0073
 5868DDP     C235206   5.371  10.045   8.214  0.2201  0.0033  0.0407
 5868DDP     C335207   5.106  10.676   6.829 -0.0476  0.1436  0.2676
 5868DDP     C435208   5.551  10.515   7.453 -0.2488  0.0148 -0.1057
 5869DDP     C135209  19.780   7.775  16.148 -0.0818  0.0161  0.0664
 5869DDP     P135210  19.708   8.267  16.148 -0.3164 -0.0191 -0.4638
 5869DDP     P235211  19.745   7.466  15.757 -0.4243 -0.1498 -0.0232
 5869DDP     C235212  19.466   7.047  15.728  0.2156  0.0628 -0.2063
 5869DDP     C335213  19.389   8.470  15.835  0.0868  0.0882  0.1675
 5869DDP     C435214  19.619   7.512  16.499  0.0107 -0.1446 -0.2066
 5870DDP     C135215  27.602  22.696  22.243 -0.0577 -0.0298  0.3786
 5870DDP     P135216  27.609  22.590  21.777  0.3629 -0.1606  0.0922
 5870DDP     P235217  27.725  23.101  22.501 -0.1263 -0.2388  0.0986
 5870DDP     C235218  27.544  23.397  22.820  0.1845 -0.1470  0.0355
 5870DDP     C335219  27.494  22.717  21.330  0.2523 -0.1149 -0.1558
 5870DDP     C435220  27.553  22.310  22.490 -0.1098 -0.3061 -0.6315
 5871DDP     C135221  11.456  21.775   0.138  0.1666 -0.1460 -0.0139
 5871DDP     P135222  11.035  21.732   0.016  0.0327  0.0518  0.1044
 5871DDP     P235223  11.699  21.331   0.204 -0.3347  0.2705 -0.2458
 5871DDP     C235224  12.029  21.043   0.155  0.0817 -0.0311 -0.1135
 5871DDP     C335225  10.716  21.496   0.250  0.1410 -0.0181  0.1923
 5871DDP     C435226  11.541  22.154   0.121 -0.1185  0.0080 -0.0425
 5872DDP     C135227   6.515   6.740   6.912 -0.0651 -0.1408 -0.0110
 5872DDP     P135228   6.821   6.954   6.867  0.2307 -0.0116 -0.4548
 5872DDP     P235229   6.280   6.810   7.261 -0.1976 -0.2819  0.0763
 5872DDP     C235230   6.420   6.776   7.638  0.2273  0.4010  0.1991
 5872DDP     C335231   7.278   6.762   6.872 -0.0543  0.4269  0.2464
 5872DDP     C435232   6.428   6.440   6.624  0.1024 -0.1816 -0.1178
 5873DDP     C135233  15.456   0.487  11.116  0.1778 -0.0349 -0.0852
 5873DDP     P135234  15.405   0.369  10.678 -0.1827  0.0842 -0.3435
 5873DDP     P235235  15.135   0.480  11.485 -0.2250  0.0393 -0.1137
 5873DDP     C235236  15.090   0.635  11.841  0.0246 -0.2673 -0.0207
 5873DDP     C335237  15.511  30.325  10.527 -0.1315  0.1697 -0.1436
 5873DDP     C435238  15.811   0.358  11.211 -0.1616 -0.3584 -0.2319
 5874DDP     C135239  23.134  22.615   9.721  0.1591  0.0280  0.0553
 5874DDP     P135240  22.780  22.432   9.543 -0.2064 -0.0628  0.1391
 5874DDP     P235241  22.993  22.883  10.136 -0.0643  0.2206 -0.0808
 5874DDP     C235242  23.156  23.170  10.399  0.2375  0.0815 -0.0249
 5874DDP     C335243  22.542  22.475   9.040 -0.1255  0.0053  0.2590
 5874DDP     C435244  23.395  22.759   9.503 -0.2343 -0.0695 -0.2550
 5875DDP     C135245  19.126   5.734  23.099  0.3873 -0.0593 -0.0685
 5875DDP     P135246  19.280   5.713  23.489 -0.0044 -0.0817 -0.1151
 5875DDP     P235247  18.695   5.743  23.087 -0.1217  0.1251 -0.2065
 5875DDP     C235248  18.354   5.589  23.261  0.0405 -0.0815  0.1234
 5875DDP     C335249  19.689   5.766  23.640 -0.0921 -0.1071 -0.2941
 5875DDP     C435250  19.128   5.240  22.940  0.1334  0.2437  0.2310
 5876DDP     C135251  27.050  15.625  28.281  0.0971  0.0507  0.0114
 5876DDP     P135252  26.897  15.237  28.185 -0.3524 -0.1342 -0.0544
 5876DDP     P235253  26.814  15.919  28.171 -0.1375 -0.1712 -0.0294
 5876DDP     C235254  26.431  16.236  28.266  0.1131 -0.2163  0.1298
 5876DDP     C335255  26.873  14.880  28.392  0.1041 -0.2217 -0.2300
 5876DDP     C435256  27.453  15.505  28.381  0.0565 -0.0809 -0.1652
 5877DDP     C135257   3.837  30.053   8.264  0.2798 -0.2479 -0.2206
 5877DDP     P135258   3.587  29.833   7.844  0.2017  0.1471 -0.3296
 5877DDP     P235259   3.556   0.077   8.027 -0.0259  0.2303 -0.0475
 5877DDP     C235260   3.126   0.295   7.921  0.0670  0.1419 -0.2575
 5877DDP     C335261   3.664  29.356   7.715  0.0074  0.0544  0.0189
 5877DDP     C435262   4.198  30.030   8.391  0.1772 -0.1159  0.2135
 5878DDP     C135263  28.335  14.326   4.322  0.0103 -0.0184  0.1775
 5878DDP     P135264  28.098  13.975   4.402 -0.1957 -0.1373 -0.2139
 5878DDP     P235265  28.651  14.249   4.688 -0.0915  0.1786  0.2259
 5878DDP     C235266  29.045  14.203   4.808  0.0250  0.1223 -0.3626
 5878DDP     C335267  27.894  13.608   4.551 -0.4898  0.1272  0.1993
 5878DDP     C435268  28.416  14.443   3.932 -0.0019 -0.0231 -0.3281
 5879DDP     C135269   9.110  25.098  14.627  0.2180  0.1272  0.1046
 5879DDP     P135270   9.536  25.303  14.698 -0.0753  0.2641  0.2431
 5879DDP     P235271   8.935  25.254  14.971 -0.0265 -0.0395  0.0437
 5879DDP     C235272   9.256  25.437  15.224 -0.0958 -0.1344 -0.0710
 5879DDP     C335273   9.949  25.355  14.491  0.1963 -0.0584 -0.0337
 5879DDP     C435274   9.037  24.818  14.232 -0.4116 -0.2115  0.0260
 5880DDP     C135275   1.322  24.518   9.602 -0.3085 -0.0102 -0.0347
 5880DDP     P135276   0.981  24.247   9.783 -0.0229 -0.1059  0.0999
 5880DDP     P235277   1.672  24.374   9.371 -0.3676  0.2509 -0.2931
 5880DDP     C235278   1.953  24.057   9.204 -0.0032  0.1202  0.0615
 5880DDP     C335279   0.844  23.909  10.009  0.3019 -0.1367 -0.1646
 5880DDP     C435280   1.060  24.871   9.614 -0.3015  0.2056  0.1285
 5881DDP     C135281  28.647  19.860  14.363 -0.3602 -0.0650  0.0194
 5881DDP     P135282  28.264  19.833  14.347 -0.3031  0.0324  0.0863
 5881DDP     P235283  28.893  19.617  14.673  0.1607  0.0515  0.0323
 5881DDP     C235284  28.816  19.308  14.962  0.0848 -0.0484  0.1050
 5881DDP     C335285  27.851  19.585  14.258  0.0976  0.0903 -0.2501
 5881DDP     C435286  28.741  20.207  14.469 -0.2199 -0.0711  0.0573
 5882DDP     C135287  18.527  16.148  13.353  0.0822  0.0404 -0.0340
 5882DDP     P135288  18.264  16.378  13.584 -0.1024  0.2049 -0.0529
 5882DDP     P235289  18.598  15.740  13.516  0.0756 -0.3179  0.0753
 5882DDP     C235290  18.910  15.504  13.351  0.1528  0.0149 -0.1107
 5882DDP     C335291  17.966  16.707  13.582 -0.1803  0.0869 -0.2779
 5882DDP     C435292  18.642  16.209  12.884  0.0374  0.2831 -0.1122
 5883DDP     C135293   0.681  15.336  14.846 -0.1224  0.0896 -0.2853
 5883DDP     P135294   0.857  15.145  14.481  0.0305 -0.2970  0.0568
 5883DDP     P235295   0.980  15.412  15.129 -0.0627  0.2452 -0.0316
 5883DDP     C235296   0.914  15.617  15.530 -0.0373  0.0632 -0.0734
 5883DDP     C335297   0.733  14.943  14.046 -0.1403 -0.3852 -0.1025
 5883DDP     C435298   0.362  15.647  14.912  0.0562  0.1349 -0.0242
 5884DDP     C135299  14.268   2.900  27.165 -0.1482 -0.1520  0.3009
 5884DDP     P135300  14.423   3.273  27.088 -0.1068 -0.2139 -0.0472
 5884DDP     P235301  13.812   2.787  27.115 -0.1958  0.2012  0.0660
 5884DDP     C235302  13.421   2.973  27.059 -0.0621 -0.3491  0.0592
 5884DDP     C335303  14.557   3.815  27.129  0.0895  0.0714 -0.1470
 5884DDP     C435304  14.585   2.763  27.627 -0.3151 -0.0297 -0.1193
 5885DDP     C135305  11.658  26.631  23.587  0.0263  0.0436  0.1859
 5885DDP     P135306  11.931  26.744  23.333  0.1908  0.0844 -0.0319
 5885DDP     P235307  11.294  26.789  23.709 -0.0025  0.1710  0.2378
 5885DDP     C235308  11.040  27.048  23.420 -0.3325 -0.1369  0.0953
 5885DDP     C335309  12.019  26.643  22.889  0.0492  0.1700 -0.2474
 5885DDP     C435310  11.861  26.296  23.738 -0.1161 -0.2563  0.0396
 5886DDP     C135311   6.992  20.435  27.522  0.0433 -0.0548 -0.2435
 5886DDP     P135312   7.336  20.648  27.181  0.0924 -0.1589  0.1259
 5886DDP     P235313   6.699  20.726  27.719  0.1597  0.0652 -0.0947
 5886DDP     C235314   6.403  20.915  27.999 -0.0165 -0.1085 -0.2044
 5886DDP     C335315   7.372  20.832  26.805  0.1642 -0.0008  0.3552
 5886DDP     C435316   6.857  20.175  27.807 -0.0046  0.3978 -0.0956
 5887DDP     C135317  11.989  12.656  17.665  0.0216  0.2644  0.0718
 5887DDP     P135318  11.629  13.001  17.874 -0.1465  0.0307 -0.1377
 5887DDP     P235319  12.338  12.675  17.473 -0.0070 -0.2159 -0.0825
 5887DDP     C235320  12.772  12.626  17.564  0.1227 -0.2345  0.1768
 5887DDP     C335321  11.418  13.235  18.189 -0.2551  0.1631  0.0880
 5887DDP     C435322  11.866  12.179  17.856 -0.0635 -0.2768 -0.0120
 5888DDP     C135323  22.427   7.352  16.361  0.2277  0.1130 -0.3494
 5888DDP     P135324  22.307   7.128  16.015 -0.1796 -0.1160 -0.1010
 5888DDP     P235325  22.269   7.138  16.722 -0.0340 -0.5907 -0.1811
 5888DDP     C235326  21.928   6.968  16.961 -0.1191 -0.0564  0.0398
 5888DDP     C335327  21.990   7.234  15.829  0.0734  0.0514 -0.0014
 5888DDP     C435328  22.885   7.500  16.395  0.0600 -0.0180 -0.0364
 5889DDP     C135329  17.398  16.228  17.607  0.3158  0.1004  0.3857
 5889DDP     P135330  17.592  16.332  18.073  0.2808 -0.0654  0.2573
 5889DDP     P235331  16.903  16.375  17.506 -0.2413  0.2581 -0.1542
 5889DDP     C235332  16.607  16.608  17.306 -0.1147  0.0410 -0.2533
 5889DDP     C335333  17.528  16.581  18.506 -0.0050 -0.1618 -0.0438
 5889DDP     C435334  17.539  15.844  17.489  0.0414  0.0349 -0.0930
 5890DDP     C135335  22.764  28.881   7.629  0.1105  0.2583 -0.1861
 5890DDP     P135336  23.115  28.541   7.571  0.2378  0.0401  0.0584
 5890DDP     P235337  22.556  29.056   7.299 -0.0331 -0.0235  0.0888
 5890DDP     C235338  22.533  28.973   6.792 -0.1892 -0.1748  0.2839
 5890DDP     C335339  23.439  28.394   7.322  0.1307 -0.4484 -0.0954
 5890DDP     C435340  22.704  29.173   8.096 -0.2200 -0.0316 -0.1606
 5891DDP     C135341  25.059   6.256   5.835 -0.0616  0.2311 -0.0748
 5891DDP     P135342  25.006   6.650   6.086  0.1554 -0.1155 -0.0531
 5891DDP     P235343  25.515   6.116   5.700 -0.0495  0.0318 -0.1664
 5891DDP     C235344  25.770   5.740   5.620 -0.1978  0.1743 -0.1003
 5891DDP     C335345  25.167   6.721   6.529  0.0680  0.0846  0.1518
 5891DDP     C435346  24.845   5.809   6.034  0.2536 -0.0962 -0.0265
 5892DDP     C135347  15.534  26.429  17.458 -0.1082 -0.0510 -0.0613
 5892DDP     P135348  15.889  26.604  17.625 -0.1699  0.0427  0.1218
 5892DDP     P235349  15.114  26.295  17.660 -0.1503 -0.0785  0.0939
 5892DDP     C235350  14.720  26.430  17.791 -0.1405  0.0401  0.0528
 5892DDP     C335351  15.809  27.041  17.893  0.3516  0.0104  0.1314
 5892DDP     C435352  15.501  26.323  17.029 -0.1312 -0.0832  0.3698
 5893DDP     C135353  20.249  29.806   8.758 -0.0963 -0.3727  0.0332
 5893DDP     P135354  20.401  30.040   9.072  0.2933 -0.1096 -0.0230
 5893DDP     P235355  20.032  30.082   8.513 -0.0801  0.0576  0.0657
 5893DDP     C235356  20.292  30.159   8.083 -0.1036 -0.1450 -0.0241
 5893DDP     C335357  20.409   0.132   9.203 -0.1787 -0.0358  0.0060
 5893DDP     C435358  20.357  29.445   8.699  0.2595 -0.0897 -0.0621
 5894DDP     C135359   6.145   2.060   3.538  0.0190  0.0618  0.2436
 5894DDP     P135360   6.181   2.264   3.894  0.1851 -0.2617 -0.2276
 5894DDP     P235361   5.895   2.208   3.208  0.1410 -0.0286  0.0704
 5894DDP     C235362   5.612   1.795   3.049 -0.3080 -0.1895  0.0900
 5894DDP     C335363   6.322   2.447   4.251  0.1855  0.2216  0.1951
 5894DDP     C435364   6.247   1.499   3.482 -0.1021  0.0620  0.1104
 5895DDP     C135365  10.909  29.439  17.072  0.2208 -0.1552 -0.2375
 5895DDP     P135366  10.984  29.821  17.300 -0.0814  0.0820 -0.0470
 5895DDP     P235367  10.779  29.263  16.710 -0.0778  0.0632 -0.2351
 5895DDP     C235368  10.861  29.238  16.284  0.0288 -0.2985  0.1340
 5895DDP     C335369  11.047  30.197  17.444 -0.0525  0.0553  0.0494
 5895DDP     C435370  11.016  29.173  17.272  0.3181 -0.1573  0.2282
 5896DDP     C135371  29.356  22.698  18.739  0.1831 -0.2754  0.1478
 5896DDP     P135372  29.393  22.945  19.145 -0.0004 -0.1089 -0.1280
 5896DDP     P235373  29.145  22.332  18.602  0.5548  0.0714 -0.1352
 5896DDP     C235374  28.972  21.904  18.795 -0.0094 -0.4269 -0.0084
 5896DDP     C335375  29.501  22.807  19.541  0.2867  0.1617  0.0328
 5896DDP     C435376  29.603  22.987  18.454 -0.2399 -0.1016 -0.1377
 5897DDP     C135377  27.333  11.210   4.874 -0.2379 -0.1048  0.0338
 5897DDP     P135378  27.405  11.200   5.299 -0.0016  0.2340  0.2441
 5897DDP     P235379  27.003  11.519   4.779  0.2611 -0.1530  0.2845
 5897DDP     C235380  26.698  11.752   4.956  0.0913 -0.0337  0.0259
 5897DDP     C335381  27.477  11.532   5.698  0.2543 -0.0515 -0.1971
 5897DDP     C435382  27.583  10.883   4.616 -0.0699 -0.1005 -0.1340
 5898DDP     C135383  21.702  26.876  19.281  0.1475 -0.3049  0.0747
 5898DDP     P135384  21.611  26.586  18.939 -0.0071  0.0367  0.0483
 5898DDP     P235385  21.481  27.220  19.237  0.1532  0.0570 -0.3170
 5898DDP     C235386  21.559  27.584  19.385  0.4538  0.0902 -0.3406
 5898DDP     C335387  21.455  26.287  18.727 -0.0544 -0.0814 -0.0880
 5898DDP     C435388  21.973  27.014  19.652 -0.1678 -0.0655 -0.0237
 5899DDP     C135389  26.041  30.008  26.112 -0.1353 -0.0967  0.0142
 5899DDP     P135390  26.045  30.112  26.579  0.1413  0.1160 -0.0870
 5899DDP     P235391  26.464  29.964  25.919 -0.1547 -0.1102 -0.0405
 5899DDP     C235392  26.659  30.163  25.559  0.2131  0.1672  0.0357
 5899DDP     C335393  25.701  29.970  26.835 -0.1256 -0.1252  0.0836
 5899DDP     C435394  25.653  29.965  25.817  0.1443  0.1837  0.1914
 5900DDP     C135395   3.622  30.156  21.005  0.2180  0.1834  0.2441
 5900DDP     P135396   3.193  30.206  20.807 -0.1718  0.1089 -0.0640
 5900DDP     P235397   4.013   0.140  20.980 -0.0918  0.0650 -0.0315
 5900DDP     C235398   4.086   0.593  20.968 -0.2072  0.2576  0.0265
 5900DDP     C335399   2.776  30.088  20.969 -0.0043 -0.1795  0.1650
 5900DDP     C435400   3.595  30.071  21.534  0.3631  0.0201  0.1112
 5901DDP     C135401   4.713  15.290  19.519  0.2728  0.1459 -0.2982
 5901DDP     P135402   4.438  15.251  19.798 -0.1976  0.0249 -0.0749
 5901DDP     P235403   4.610  15.541  19.147 -0.0992  0.1097  0.1190
 5901DDP     C235404   4.581  15.932  18.962 -0.1603 -0.1681  0.0178
 5901DDP     C335405   4.189  15.407  20.167 -0.0582 -0.1539 -0.0653
 5901DDP     C435406   5.047  14.949  19.658 -0.1697 -0.0160  0.1902
 5902DDP     C135407   7.745  24.285   9.291 -0.2705  0.1873 -0.2213
 5902DDP     P135408   8.029  24.674   9.176  0.2799  0.1624 -0.0258
 5902DDP     P235409   7.328  24.331   9.474 -0.2896  0.0932 -0.3203
 5902DDP     C235410   7.048  24.690   9.592 -0.1605 -0.1029 -0.0355
 5902DDP     C335411   8.113  25.049   9.056  0.4308  0.1773 -0.0750
 5902DDP     C435412   7.890  23.898   9.090 -0.1144 -0.1436 -0.1052
 5903DDP     C135413   6.881  19.298   8.450  0.0594  0.1202  0.1635
 5903DDP     P135414   6.998  18.981   8.781 -0.0116  0.2979  0.2131
 5903DDP     P235415   6.962  19.317   8.064  0.0009 -0.0767 -0.1478
 5903DDP     C235416   7.111  19.412   7.614 -0.0397 -0.0548 -0.1600
 5903DDP     C335417   7.208  18.749   9.121  0.2525  0.1296  0.2774
 5903DDP     C435418   6.797  19.627   8.724  0.3058 -0.2689  0.1733
 5904DDP     C135419  28.759   4.480  22.374  0.2647  0.3085 -0.0834
 5904DDP     P135420  29.155   4.435  22.154 -0.1568  0.2565  0.2164
 5904DDP     P235421  28.476   4.160  22.408  0.0241  0.0513  0.1276
 5904DDP     C235422  28.280   4.008  22.747 -0.1291 -0.3471 -0.3172
 5904DDP     C335423  29.618   4.539  21.886 -0.1051  0.0163 -0.0413
 5904DDP     C435424  28.631   4.757  22.710  0.3044  0.0359  0.1128
 5905DDP     C135425  28.787   8.469  16.520 -0.1910  0.0284  0.1878
 5905DDP     P135426  28.503   8.633  16.233  0.2477  0.2664  0.3017
 5905DDP     P235427  29.149   8.736  16.689 -0.2493  0.0848 -0.1122
 5905DDP     C235428  29.492   8.970  16.642 -0.2982 -0.0037  0.0023
 5905DDP     C335429  28.194   8.987  16.040 -0.0562 -0.2899 -0.0588
 5905DDP     C435430  28.886   8.063  16.458 -0.0830 -0.0819  0.0123
 5906DDP     C135431  21.203  26.267  21.549 -0.0510 -0.3048  0.1215
 5906DDP     P135432  21.528  26.500  21.717 -0.0441 -0.0894 -0.0692
 5906DDP     P235433  20.754  26.546  21.501 -0.0119  0.1168 -0.2932
 5906DDP     C235434  20.576  27.002  21.694 -0.2730  0.3051  0.1796
 5906DDP     C335435  22.023  26.654  21.783  0.0358 -0.1008  0.2442
 5906DDP     C435436  21.214  25.770  21.451 -0.0106  0.0663 -0.0387
 5907DDP     C135437  19.167   4.530  18.778 -0.0999  0.1261 -0.1033
 5907DDP     P135438  18.964   4.207  19.085 -0.0510 -0.1476 -0.2566
 5907DDP     P235439  19.543   4.737  18.760  0.1048 -0.2312  0.0575
 5907DDP     C235440  19.936   4.808  18.516  0.0267 -0.1625 -0.3456
 5907DDP     C335441  19.066   4.035  19.467  0.1432  0.1012  0.0186
 5907DDP     C435442  18.964   4.662  18.443 -0.1412  0.0807 -0.0578
 5908DDP     C135443   4.259  25.735  15.215  0.1779  0.2248  0.0215
 5908DDP     P135444   4.092  25.385  14.971 -0.1314  0.2244 -0.0701
 5908DDP     P235445   4.678  25.748  15.363 -0.4758  0.2377  0.0980
 5908DDP     C235446   4.843  25.780  15.731 -0.3642  0.2000 -0.3518
 5908DDP     C335447   4.013  24.969  14.946 -0.2081 -0.3756 -0.1665
 5908DDP     C435448   3.951  25.983  15.423  0.1041  0.0028  0.0687
 5909DDP     C135449   0.533  15.034   0.928 -0.0849  0.3676 -0.0342
 5909DDP     P135450   0.882  15.303   0.676 -0.3282  0.1276 -0.1411
 5909DDP     P235451   0.089  14.899   0.916 -0.1599 -0.0411 -0.2570
 5909DDP     C235452  30.076  14.626   0.914  0.2246 -0.2118 -0.0421
 5909DDP     C335453   1.102  15.375   0.351 -0.0594 -0.0023  0.4093
 5909DDP     C435454   0.815  14.767   1.227  0.2964 -0.0111  0.0934
 5910DDP     C135455  28.368  25.093  26.899 -0.1010  0.1848  0.1375
 5910DDP     P135456  27.987  25.250  26.957  0.0489  0.2580  0.2353
 5910DDP     P235457  28.252  24.744  26.754 -0.0338 -0.3658  0.1009
 5910DDP     C235458  28.153  24.443  26.535  0.0375  0.0213 -0.0282
 5910DDP     C335459  27.539  25.502  26.944 -0.0750  0.0044 -0.1269
 5910DDP     C435460  28.786  25.313  26.930  0.0200 -0.4806 -0.3235
 5911DDP     C135461  23.716  15.997  19.050  0.0052  0.1919  0.1210
 5911DDP     P135462  23.423  16.063  18.780  0.2073 -0.1488  0.0356
 5911DDP     P235463  24.004  16.225  19.206 -0.0926 -0.2194 -0.1967
 5911DDP     C235464  23.965  16.646  19.321 -0.2104  0.0498  0.2178
 5911DDP     C335465  23.014  15.908  19.011  0.0891 -0.1593  0.0703
 5911DDP     C435466  23.716  15.518  19.240  0.2055 -0.1062 -0.0617
 5912DDP     C135467  18.311   4.273  26.309  0.2935  0.3068 -0.0540
 5912DDP     P135468  18.433   4.426  26.717 -0.2765  0.1107 -0.2613
 5912DDP     P235469  18.274   4.595  26.032 -0.0491  0.0236 -0.0570
 5912DDP     C235470  18.496   4.904  25.779  0.2238  0.2558  0.0584
 5912DDP     C335471  18.847   4.474  26.762  0.1491  0.0110 -0.0162
 5912DDP     C435472  18.032   3.954  26.171 -0.4772 -0.1758 -0.0881
 5913DDP     C135473  26.717  22.789  24.652 -0.0931  0.0362  0.0539
 5913DDP     P135474  26.415  22.902  24.344  0.0620  0.0568 -0.0197
 5913DDP     P235475  27.025  23.111  24.604  0.1706 -0.2958 -0.0092
 5913DDP     C235476  27.349  23.296  24.462  0.0611  0.0188 -0.0866
 5913DDP     C335477  25.979  23.043  24.127 -0.0181 -0.1510 -0.0573
 5913DDP     C435478  26.883  22.268  24.738 -0.0859  0.1673 -0.1465
 5914DDP     C135479   9.564  20.616  19.863  0.1164 -0.0161 -0.0773
 5914DDP     P135480   9.667  20.400  19.588  0.1053  0.0898  0.0280
 5914DDP     P235481   9.199  20.821  19.634 -0.2270  0.1921  0.5211
 5914DDP     C235482   9.012  21.175  19.476 -0.0137  0.1928  0.0793
 5914DDP     C335483  10.021  20.165  19.342  0.2487 -0.2532 -0.1788
 5914DDP     C435484   9.743  20.642  20.298 -0.0864 -0.0368 -0.0726
 5915DDP     C135485  18.423  22.206   7.181  0.0437  0.4697  0.0970
 5915DDP     P135486  18.583  21.949   6.884  0.1972 -0.2018  0.1343
 5915DDP     P235487  17.979  22.324   7.362 -0.2502 -0.2882 -0.0207
 5915DDP     C235488  17.741  21.947   7.287 -0.3151  0.0863 -0.2648
 5915DDP     C335489  18.641  21.560   6.847 -0.1295  0.0829 -0.2397
 5915DDP     C435490  18.758  22.489   7.220  0.0948  0.1043 -0.0137
 5916DDP     C135491   2.432   7.640   7.946  0.1194 -0.1828  0.1047
 5916DDP     P135492   2.747   7.596   8.310  0.2477  0.3648  0.0547
 5916DDP     P235493   2.506   7.235   7.561 -0.2611 -0.1218 -0.0005
 5916DDP     C235494   2.763   6.783   7.360 -0.3050  0.2875 -0.0451
 5916DDP     C335495   2.892   7.387   8.709 -0.0335  0.1337 -0.0532
 5916DDP     C435496   2.269   8.065   7.935 -0.0769  0.2396 -0.2827
 5917DDP     C135497   7.659   3.526   1.736  0.0663  0.2470 -0.3791
 5917DDP     P135498   7.462   3.285   2.050 -0.3468 -0.1643  0.3565
 5917DDP     P235499   7.983   3.853   1.745  0.0449 -0.1415 -0.0524
 5917DDP     C235500   8.091   4.048   2.227  0.2735 -0.0728  0.2767
 5917DDP     C335501   7.054   3.186   2.283 -0.0870 -0.2157 -0.0601
 5917DDP     C435502   7.334   3.468   1.404 -0.0315 -0.1597  0.2579
 5918DDP     C135503  23.802  22.192  10.134  0.0017 -0.0472 -0.0412
 5918DDP     P135504  23.404  22.220  10.213  0.0887  0.0104 -0.1651
 5918DDP     P235505  23.899  22.173   9.770 -0.0926  0.2194  0.1796
 5918DDP     C235506  24.239  22.239   9.431 -0.0541  0.2123  0.0332
 5918DDP     C335507  23.110  22.494  10.456 -0.2276 -0.1272 -0.2939
 5918DDP     C435508  24.120  22.411  10.292  0.0270 -0.1179 -0.2060
 5919DDP     C135509   9.791  13.815  16.044  0.2574 -0.1251 -0.0087
 5919DDP     P135510   9.521  13.663  15.662 -0.1717 -0.4886 -0.0080
 5919DDP     P235511  10.256  13.840  16.169  0.0247 -0.1827  0.0285
 5919DDP     C235512  10.505  13.741  15.861  0.0683 -0.1646  0.0163
 5919DDP     C335513   9.484  13.260  15.401  0.2878 -0.1065  0.1522
 5919DDP     C435514   9.557  14.048  16.335  0.1184  0.0867  0.1459
 5920DDP     C135515  29.930   9.479  29.770 -0.3317  0.1013 -0.0419
 5920DDP     P135516  29.570   9.868  29.877 -0.1125  0.0810 -0.3623
 5920DDP     P235517  30.091   9.275  29.337 -0.0297  0.0110  0.4753
 5920DDP     C235518   0.117   9.289  29.010 -0.2833  0.1597  0.3039
 5920DDP     C335519  29.142   9.909  30.122 -0.1371 -0.1742 -0.1158
 5920DDP     C435520  30.027   9.402  30.228 -0.0199 -0.0800  0.3542
 5921DDP     C135521   3.367   5.458  24.093  0.2180 -0.1102 -0.0126
 5921DDP     P135522   3.017   5.533  23.848  0.2676 -0.0806  0.3677
 5921DDP     P235523   3.498   5.109  23.782 -0.1733 -0.0529  0.2921
 5921DDP     C235524   3.844   4.955  23.513 -0.1610 -0.1946  0.0453
 5921DDP     C335525   2.676   5.737  23.644 -0.4579  0.0975 -0.0042
 5921DDP     C435526   3.691   5.590  24.451 -0.0857 -0.1411  0.0198
 5922DDP     C135527   1.393  24.062  28.173 -0.2932  0.0570 -0.3221
 5922DDP     P135528   1.163  24.228  27.864  0.0897 -0.1514 -0.1531
 5922DDP     P235529   1.299  24.238  28.634 -0.5213  0.3665  0.0075
 5922DDP     C235530   1.255  24.469  29.031  0.2259  0.4655 -0.0368
 5922DDP     C335531   1.155  24.607  27.745 -0.0572 -0.2183  0.4558
 5922DDP     C435532   1.383  23.686  28.462  0.3638  0.2751 -0.1467
 5923DDP     C135533   6.507  14.599   9.952  0.3297  0.1961  0.0951
 5923DDP     P135534   6.753  14.387   9.692 -0.3483 -0.2090 -0.2703
 5923DDP     P235535   6.559  14.896  10.486  0.1048 -0.2703 -0.2008
 5923DDP     C235536   6.581  15.062  10.926 -0.1555 -0.2917 -0.5204
 5923DDP     C335537   6.782  14.070   9.399  0.0903  0.1791 -0.3369
 5923DDP     C435538   6.023  14.417   9.995  0.1640  0.2648 -0.3447
 5924DDP     C135539  29.330  18.032  18.839  0.2917  0.0770  0.0936
 5924DDP     P135540  29.800  18.204  18.615 -0.0461 -0.0478  0.2446
 5924DDP     P235541  29.053  18.382  19.031 -0.2251 -0.1893  0.0184
 5924DDP     C235542  29.095  18.788  19.172 -0.3103 -0.3177  0.2180
 5924DDP     C335543  30.090  17.877  18.186 -0.0719 -0.2834  0.0443
 5924DDP     C435544  29.220  17.589  18.915  0.1389  0.1385 -0.3955
 5925DDP     C135545   8.409   7.571  29.194  0.0403 -0.3959 -0.1422
 5925DDP     P135546   8.567   7.445  28.858 -0.1300  0.1834 -0.1513
 5925DDP     P235547   7.987   7.497  29.353  0.0478 -0.1253  0.2340
 5925DDP     C235548   7.632   7.323  29.430  0.2756 -0.2735  0.0895
 5925DDP     C335549   8.850   7.144  28.681 -0.0128  0.1994  0.1054
 5925DDP     C435550   8.501   8.065  29.470  0.1895  0.2779  0.1477
 5926DDP     C135551  28.626  14.968   0.691 -0.4117 -0.0338  0.1483
 5926DDP     P135552  28.332  15.219   0.468 -0.1016 -0.2551  0.0475
 5926DDP     P235553  28.992  15.183   0.985 -0.1253 -0.0272  0.1780
 5926DDP     C235554  29.321  14.948   1.228 -0.0626 -0.1982 -0.0211
 5926DDP     C335555  28.305  15.324  30.330 -0.1306 -0.0545  0.3439
 5926DDP     C435556  28.692  14.551   0.506  0.3084 -0.2821  0.0898
 5927DDP     C135557  26.794   3.064   9.352  0.0630  0.2746 -0.1161
 5927DDP     P135558  26.978   3.394   9.206 -0.1086 -0.1482 -0.0372
 5927DDP     P235559  26.843   2.706   9.268  0.0209 -0.0931 -0.0839
 5927DDP     C235560  26.692   2.341   9.067 -0.0033 -0.2624 -0.0473
 5927DDP     C335561  27.218   3.795   9.075  0.1178  0.1023  0.1294
 5927DDP     C435562  26.467   3.199   9.704  0.0478  0.2348 -0.2034
 5928DDP     C135563  10.343  12.411  22.819 -0.0281  0.0006  0.1178
 5928DDP     P135564  10.294  12.534  23.245  0.1136  0.0605 -0.1119
 5928DDP     P235565  10.482  12.755  22.650 -0.2217  0.0207  0.0319
 5928DDP     C235566  10.496  13.083  22.521 -0.0498 -0.0055  0.2225
 5928DDP     C335567  10.401  12.871  23.563  0.1214 -0.1975  0.1453
 5928DDP     C435568  10.294  12.044  22.608  0.1911  0.0300  0.0598
 5929DDP     C135569  14.032  11.612  17.272  0.0688 -0.0997  0.0960
 5929DDP     P135570  13.999  11.933  16.928 -0.0404  0.0112 -0.0485
 5929DDP     P235571  14.018  11.278  16.930  0.0656 -0.4593  0.1436
 5929DDP     C235572  13.779  11.202  16.610  0.1269 -0.0318 -0.1283
 5929DDP     C335573  13.796  12.323  16.677  0.1978 -0.0200 -0.2880
 5929DDP     C435574  14.146  11.555  17.754 -0.1432  0.2964 -0.1598
 5930DDP     C135575   3.013  26.909  12.046  0.1295  0.1543 -0.0088
 5930DDP     P135576   3.168  26.681  11.804 -0.0103 -0.1255 -0.2081
 5930DDP     P235577   3.403  27.076  12.372  0.1774  0.0763  0.0316
 5930DDP     C235578   3.755  27.015  12.124 -0.3431  0.1520 -0.0329
 5930DDP     C335579   3.520  26.574  11.495  0.1252  0.1525  0.4165
 5930DDP     C435580   2.576  26.791  12.294 -0.0846 -0.1693 -0.0371
 5931DDP     C135581  21.953  19.624   1.312 -0.0823  0.3212  0.1279
 5931DDP     P135582  22.085  19.273   1.564 -0.1907 -0.3252  0.0932
 5931DDP     P235583  21.595  19.723   1.561 -0.1725 -0.2054  0.1969
 5931DDP     C235584  21.478  19.795   1.998  0.1080  0.0249  0.0475
 5931DDP     C335585  22.338  19.284   1.790 -0.0589  0.2129 -0.1331
 5931DDP     C435586  22.322  19.913   0.909 -0.1638 -0.1126  0.2072
 5932DDP     C135587  28.445  18.062   2.794  0.0865 -0.2649 -0.0503
 5932DDP     P135588  28.665  18.217   2.460 -0.0213 -0.1600 -0.1674
 5932DDP     P235589  28.111  18.270   2.972  0.4124  0.0037  0.3979
 5932DDP     C235590  27.976  18.688   2.900  0.1683 -0.2399  0.2143
 5932DDP     C335591  28.969  18.431   2.198 -0.2956 -0.0567 -0.0604
 5932DDP     C435592  28.650  17.923   3.146 -0.2442  0.2389 -0.0896
 5933DDP     C135593  22.567   3.020  27.611 -0.1326 -0.2735  0.2626
 5933DDP     P135594  22.552   3.199  27.204  0.0615 -0.0559 -0.1379
 5933DDP     P235595  22.576   2.480  27.726 -0.1345 -0.2823 -0.1604
 5933DDP     C235596  22.419   2.155  27.954 -0.1015 -0.0361 -0.0197
 5933DDP     C335597  22.667   3.622  26.820  0.3228  0.0631 -0.0213
 5933DDP     C435598  22.486   3.233  27.992  0.0892  0.2555  0.1076
 5934DDP     C135599   7.109  17.610  16.905  0.0893  0.1596 -0.1519
 5934DDP     P135600   6.750  17.597  17.090  0.2344  0.1664  0.3730
 5934DDP     P235601   7.374  17.822  16.688  0.0459 -0.2671  0.1376
 5934DDP     C235602   7.526  17.752  16.217  0.0941  0.3083 -0.1502
 5934DDP     C335603   6.400  17.278  17.076 -0.1842  0.1782 -0.4322
 5934DDP     C435604   7.359  17.330  16.960 -0.2463 -0.2725 -0.1375
 5935DDP     C135605  11.432   8.037   0.627 -0.3150  0.0736 -0.0662
 5935DDP     P135606  11.822   7.825   0.500 -0.0050  0.1026  0.4719
 5935DDP     P235607  11.061   7.819   0.773 -0.0624  0.0080  0.3367
 5935DDP     C235608  10.669   7.917   0.872  0.0292  0.0717 -0.2160
 5935DDP     C335609  12.266   7.891   0.230  0.2252 -0.2691  0.1017
 5935DDP     C435610  11.440   8.488   0.542 -0.0291 -0.0011 -0.2664
 5936DDP     C135611  11.947  13.089   2.354  0.0474  0.0394  0.0108
 5936DDP     P135612  11.863  13.453   2.606  0.0843  0.0717 -0.1228
 5936DDP     P235613  11.615  12.915   2.234  0.1179  0.4083 -0.0912
 5936DDP     C235614  11.147  12.748   1.987  0.2207 -0.0395  0.0854
 5936DDP     C335615  11.908  13.567   2.964 -0.1129  0.1176 -0.0253
 5936DDP     C435616  12.429  12.873   2.112 -0.1859  0.3038  0.1034
 5937DDP     C135617   9.518  10.032  12.986  0.0312 -0.2126  0.0454
 5937DDP     P135618   9.257  10.108  13.306  0.7586  0.0113 -0.1895
 5937DDP     P235619   9.912   9.950  12.888  0.6513 -0.0716 -0.1666
 5937DDP     C235620  10.172  10.023  12.547 -0.3142 -0.2133  0.2600
 5937DDP     C335621   9.247  10.245  13.754 -0.1567  0.2520  0.2384
 5937DDP     C435622   9.226  10.045  12.711  0.0916 -0.1799  0.2499
 5938DDP     C135623  10.701   4.428   6.848  0.4364 -0.2243  0.1582
 5938DDP     P135624  11.101   4.396   6.978  0.1772  0.0279 -0.3557
 5938DDP     P235625  10.255   4.258   7.019 -0.1732  0.2456  0.0925
 5938DDP     C235626  10.110   4.546   7.387  0.2148 -0.0006 -0.2204
 5938DDP     C335627  11.352   4.692   7.187  0.1794  0.3548 -0.0618
 5938DDP     C435628  10.681   4.651   6.469  0.0725  0.2564 -0.2248
 5939DDP     C135629  17.062   0.143  12.436  0.0648  0.0438  0.0170
 5939DDP     P135630  17.205  30.153  12.072 -0.1088 -0.0894  0.1953
 5939DDP     P235631  16.942  30.219  12.652 -0.2778  0.2590 -0.0488
 5939DDP     C235632  16.498  30.173  12.943 -0.1800  0.2518 -0.1044
 5939DDP     C335633  17.425  29.723  12.007  0.3310 -0.3020  0.3269
 5939DDP     C435634  16.940   0.538  12.508 -0.1451  0.1346 -0.0733
 5940DDP     C135635  12.114   9.474  11.151  0.0334  0.0454  0.1923
 5940DDP     P135636  12.257   9.130  10.807 -0.0427 -0.0512 -0.2099
 5940DDP     P235637  12.169   9.327  11.612  0.2074  0.0072 -0.0111
 5940DDP     C235638  12.175   9.463  11.998  0.2228  0.3991 -0.4320
 5940DDP     C335639  11.991   8.711  10.651 -0.0939 -0.0533 -0.0791
 5940DDP     C435640  11.978   9.915  11.018 -0.0717 -0.1978  0.0622
 5941DDP     C135641   6.126  12.630  26.706 -0.1769  0.1655  0.1455
 5941DDP     P135642   5.926  13.019  26.622 -0.1390 -0.1472  0.0093
 5941DDP     P235643   6.482  12.299  26.723  0.0211  0.0635 -0.2825
 5941DDP     C235644   6.733  12.290  26.285 -0.2057  0.0109 -0.0373
 5941DDP     C335645   5.829  13.459  26.523  0.1344  0.0957 -0.2160
 5941DDP     C435646   5.716  12.447  26.837  0.0346  0.0644  0.0705
 5942DDP     C135647   6.804  27.566  15.798  0.0492 -0.1861  0.2703
 5942DDP     P135648   6.394  27.657  15.715 -0.4715 -0.3151 -0.1733
 5942DDP     P235649   6.630  27.278  16.088  0.1823  0.0052 -0.3376
 5942DDP     C235650   6.518  27.082  16.447 -0.0040 -0.2003 -0.1334
 5942DDP     C335651   6.069  27.915  15.719 -0.1739  0.2785 -0.3228
 5942DDP     C435652   7.151  27.826  15.951 -0.0362  0.2934  0.3721
 5943DDP     C135653  30.202  20.517  30.294  0.0193  0.1593  0.2202
 5943DDP     P135654  30.256  20.062   0.053  0.0780 -0.1839 -0.0925
 5943DDP     P235655  29.829  20.617  30.154  0.0338 -0.2719  0.0266
 5943DDP     C235656  29.441  20.813  30.116 -0.0179  0.0223 -0.3012
 5943DDP     C335657   0.060  19.729   0.160  0.3969  0.1928 -0.1625
 5943DDP     C435658   0.162  20.838  -0.009  0.2798 -0.0273 -0.1038
 5944DDP     C135659  23.008   9.529  15.427 -0.2296  0.0121  0.0532
 5944DDP     P135660  23.387   9.436  15.740  0.0592  0.0178  0.2380
 5944DDP     P235661  22.565   9.475  15.544 -0.2033 -0.1059 -0.2174
 5944DDP     C235662  22.554   9.800  15.894  0.0542  0.3654 -0.1750
 5944DDP     C335663  23.778   9.357  15.904  0.1583 -0.2403  0.0838
 5944DDP     C435664  23.149   9.701  15.065 -0.0169  0.2437 -0.1288
 5945DDP     C135665  17.984  10.281   3.336  0.0536 -0.1049 -0.3526
 5945DDP     P135666  17.858  10.664   3.224  0.1291  0.1493  0.0344
 5945DDP     P235667  17.647   9.974   3.437  0.1489  0.0536  0.1444
 5945DDP     C235668  17.235   9.912   3.249  0.2230 -0.1513  0.0742
 5945DDP     C335669  18.145  10.967   3.293 -0.2307 -0.4345  0.1703
 5945DDP     C435670  18.376  10.025   3.079 -0.0651 -0.0156  0.0784
 5946DDP     C135671   9.422  27.582   4.137  0.1974 -0.3577  0.1744
 5946DDP     P135672   9.682  27.602   3.719  0.0073  0.3088  0.3726
 5946DDP     P235673   9.014  27.826   4.176  0.0057 -0.2258  0.0409
 5946DDP     C235674   8.609  27.961   4.237  0.0510  0.1363  0.2747
 5946DDP     C335675   9.841  27.276   3.468 -0.1385  0.2126  0.3183
 5946DDP     C435676   9.454  27.222   4.455 -0.2265  0.0123  0.2184
 5947DDP     C135677  18.095  12.943  14.610 -0.1476 -0.5225  0.1159
 5947DDP     P135678  18.525  12.996  14.416 -0.1443  0.2813 -0.2679
 5947DDP     P235679  17.756  13.068  14.329 -0.1679 -0.0911  0.2485
 5947DDP     C235680  17.524  13.362  14.361 -0.0378  0.2064  0.2365
 5947DDP     C335681  18.666  12.608  14.156 -0.0010 -0.1466 -0.2764
 5947DDP     C435682  18.054  13.053  15.086 -0.0682 -0.2407 -0.2218
 5948DDP     C135683   7.888  19.870  12.736  0.0093  0.1970 -0.0219
 5948DDP     P135684   8.268  19.758  12.831 -0.1808  0.2081 -0.3654
 5948DDP     P235685   7.549  19.751  13.037  0.1326 -0.1295 -0.0994
 5948DDP     C235686   7.220  19.481  13.183 -0.2183 -0.0847  0.0279
 5948DDP     C335687   8.575  19.457  12.833 -0.0360 -0.1254  0.0027
 5948DDP     C435688   7.839  19.996  12.313  0.2000  0.1218  0.1991
 5949DDP     C135689  23.081  26.515   1.549 -0.2434  0.1115 -0.1264
 5949DDP     P135690  23.561  26.565   1.489  0.2016 -0.1368 -0.4233
 5949DDP     P235691  22.745  26.222   1.311  0.0962 -0.3993  0.0567
 5949DDP     C235692  22.327  26.070   1.192  0.1687 -0.1941 -0.1795
 5949DDP     C335693  24.020  26.529   1.376 -0.0872 -0.0807  0.0960
 5949DDP     C435694  22.832  26.692   1.880  0.1227  0.1544  0.3597
 5950DDP     C135695   6.495  27.205  25.994  0.0061 -0.2399 -0.1837
 5950DDP     P135696   6.624  27.105  26.388  0.0959 -0.3670 -0.2388
 5950DDP     P235697   6.794  27.469  25.706  0.2238  0.1388  0.5130
 5950DDP     C235698   6.903  27.841  25.458  0.1140 -0.1844 -0.2108
 5950DDP     C335699   6.339  27.010  26.638 -0.2456 -0.1374 -0.0076
 5950DDP     C435700   6.114  27.170  25.662  0.0986 -0.2076  0.0497
 5951DDP     C135701   8.618  26.131  16.922  0.1851 -0.0347 -0.1961
 5951DDP     P135702   8.542  26.100  16.461  0.0758  0.0162  0.2073
 5951DDP     P235703   8.765  26.374  17.304  0.1959 -0.2423 -0.0912
 5951DDP     C235704   9.011  26.247  17.630 -0.2453  0.0888 -0.1128
 5951DDP     C335705   8.501  25.929  16.066 -0.0135 -0.0314 -0.0319
 5951DDP     C435706   8.383  25.869  16.866  0.1176 -0.1274  0.5505
 5952DDP     C135707  15.600  11.527   0.769 -0.0866  0.4837  0.1133
 5952DDP     P135708  15.694  11.842   0.756  0.0400  0.1579 -0.2886
 5952DDP     P235709  15.809  11.246   1.075  0.0139  0.3827 -0.0555
 5952DDP     C235710  15.953  10.885   0.897 -0.0459  0.4654 -0.1696
 5952DDP     C335711  15.779  12.233   0.552  0.1611  0.2314 -0.0195
 5952DDP     C435712  15.263  11.531   0.559 -0.2016 -0.0975  0.1998
 5953DDP     C135713  23.087  27.080   3.513  0.0244  0.1926  0.1216
 5953DDP     P135714  23.303  27.496   3.477  0.1166 -0.1592  0.1484
 5953DDP     P235715  22.735  26.727   3.207  0.2283 -0.0678 -0.1943
 5953DDP     C235716  22.467  26.613   2.872  0.0089 -0.3229  0.2049
 5953DDP     C335717  23.121  27.775   3.197  0.2854 -0.3149  0.1367
 5953DDP     C435718  23.239  26.781   3.882 -0.0180 -0.1440  0.1895
 5954DDP     C135719  29.060   1.961  19.379 -0.1270 -0.0719  0.3812
 5954DDP     P135720  29.041   2.379  19.204  0.3781  0.2994 -0.0139
 5954DDP     P235721  29.321   1.739  19.026  0.0630  0.0921  0.4111
 5954DDP     C235722  29.800   1.596  18.900 -0.0587 -0.3532 -0.0006
 5954DDP     C335723  28.922   2.809  19.198  0.4325  0.2418 -0.1627
 5954DDP     C435724  28.710   1.724  19.504  0.0176  0.1468 -0.1743
 5955DDP     C135725  29.329   0.581  17.169  0.0352  0.0890 -0.0979
 5955DDP     P135726  29.296   1.054  17.239 -0.4654  0.0880  0.1343
 5955DDP     P235727  28.956   0.300  17.111 -0.0986  0.0159  0.3028
 5955DDP     C235728  28.914  30.202  16.841  0.1385 -0.2588 -0.2247
 5955DDP     C335729  29.025   1.393  17.265  0.2566 -0.0357 -0.3482
 5955DDP     C435730  29.656   0.321  17.265  0.2714 -0.0049  0.0982
 5956DDP     C135731   2.417  17.020   3.462 -0.1180 -0.1470 -0.1819
 5956DDP     P135732   2.532  16.642   3.551 -0.2434 -0.0886 -0.3037
 5956DDP     P235733   2.373  16.956   3.021 -0.2112 -0.0050  0.1765
 5956DDP     C235734   2.353  16.928   2.581  0.0902 -0.3336  0.0049
 5956DDP     C335735   2.330  16.228   3.636 -0.0661 -0.0556  0.0335
 5956DDP     C435736   2.483  17.349   3.755  0.1408  0.0764  0.1355
 5957DDP     C135737  21.237  24.163  18.522 -0.1536  0.2071  0.0402
 5957DDP     P135738  21.047  23.794  18.271  0.0518 -0.1640  0.2195
 5957DDP     P235739  21.488  24.392  18.813 -0.0167 -0.0981 -0.0098
 5957DDP     C235740  21.469  24.598  19.144 -0.1266  0.1365  0.0254
 5957DDP     C335741  20.629  23.532  17.937 -0.1860 -0.0801 -0.1728
 5957DDP     C435742  20.971  24.493  18.680 -0.0621 -0.3648  0.0573
 5958DDP     C135743  24.946  30.114   2.969  0.2690 -0.0705 -0.0826
 5958DDP     P135744  25.354  29.878   3.201  0.3785  0.2105 -0.3397
 5958DDP     P235745  24.771  29.835   2.636 -0.0338 -0.0937  0.2911
 5958DDP     C235746  24.676  29.341   2.535  0.0197 -0.1469 -0.0414
 5958DDP     C335747  25.524  29.486   3.099  0.0915 -0.2612 -0.1288
 5958DDP     C435748  24.724   0.131   2.964  0.1806  0.0379 -0.2474
 5959DDP     C135749  18.710  17.327  25.231  0.1738 -0.0244 -0.0532
 5959DDP     P135750  18.310  17.305  25.493 -0.1154  0.0941  0.1355
 5959DDP     P235751  18.950  17.049  25.342 -0.2131 -0.2836  0.0803
 5959DDP     C235752  19.042  16.582  25.316 -0.4422  0.3069 -0.1008
 5959DDP     C335753  17.863  17.226  25.693 -0.0850 -0.0004 -0.2097
 5959DDP     C435754  18.825  17.583  24.918 -0.0455 -0.1086 -0.1905
 5960DDP     C135755   8.899  24.320   3.658  0.0703 -0.1216  0.2395
 5960DDP     P135756   8.701  24.711   3.455  0.0414  0.1813 -0.0616
 5960DDP     P235757   9.171  24.327   3.945  0.1290  0.0459 -0.1207
 5960DDP     C235758   9.449  23.979   4.187 -0.0454 -0.2456 -0.1017
 5960DDP     C335759   8.806  25.170   3.353 -0.0168 -0.0979 -0.3223
 5960DDP     C435760   8.706  23.944   3.736 -0.0845 -0.3745 -0.2601
 5961DDP     C135761   4.258  29.927   4.343  0.0489  0.1126  0.0861
 5961DDP     P135762   3.979  30.210   4.420  0.2569 -0.1867  0.1226
 5961DDP     P235763   4.707  30.201   4.348  0.0834 -0.2260  0.1134
 5961DDP     C235764   4.892   0.214   4.131  0.1673 -0.0944  0.0386
 5961DDP     C335765   3.754   0.282   4.645 -0.1544 -0.3305 -0.2156
 5961DDP     C435766   4.394  29.679   4.538 -0.0170  0.2988  0.0307
 5962DDP     C135767   5.754  24.238   6.793  0.1248  0.0741 -0.1695
 5962DDP     P135768   5.591  24.693   6.747 -0.0126 -0.1444 -0.3258
 5962DDP     P235769   6.242  24.204   6.754  0.0342 -0.0004 -0.0644
 5962DDP     C235770   6.602  24.127   6.972 -0.2984  0.0692  0.0290
 5962DDP     C335771   5.224  24.940   6.781  0.0150  0.0942  0.0983
 5962DDP     C435772   5.631  23.919   7.172  0.3365  0.1866  0.2439
 5963DDP     C135773  19.735  28.616  27.244  0.0083 -0.0292 -0.2399
 5963DDP     P135774  19.435  28.318  27.438 -0.1435  0.0363 -0.2577
 5963DDP     P235775  19.714  28.725  26.819  0.2332 -0.3903  0.1608
 5963DDP     C235776  19.606  28.470  26.542 -0.2369  0.0249 -0.0991
 5963DDP     C335777  19.185  27.954  27.616 -0.0455  0.2573  0.0920
 5963DDP     C435778  20.185  28.654  27.282 -0.1112 -0.0580 -0.3162
 5964DDP     C135779  28.580  25.326   8.723 -0.2704  0.1331 -0.0947
 5964DDP     P135780  28.368  25.181   8.339  0.0309 -0.2369  0.0288
 5964DDP     P235781  28.297  25.055   8.945  0.2089  0.0677 -0.4142
 5964DDP     C235782  28.407  24.613   9.011 -0.4019 -0.1326  0.1481
 5964DDP     C335783  28.281  25.030   7.988 -0.0002 -0.1486  0.0832
 5964DDP     C435784  28.801  25.698   8.853  0.1126  0.0937  0.1775
 5965DDP     C135785  25.774  11.549  18.111 -0.0397 -0.1146  0.0251
 5965DDP     P135786  25.789  11.143  18.139 -0.2741  0.0007  0.1126
 5965DDP     P235787  26.064  11.787  17.880  0.0645  0.1663 -0.0923
 5965DDP     C235788  26.390  12.088  17.751  0.0685 -0.3408 -0.0374
 5965DDP     C335789  25.686  10.635  18.104  0.3443  0.2124 -0.2759
 5965DDP     C435790  25.364  11.741  18.118  0.1732 -0.0027 -0.0073
 5966DDP     C135791   3.436  19.897  15.338  0.0458  0.2149 -0.2152
 5966DDP     P135792   3.157  20.267  15.106  0.0967  0.1117  0.4592
 5966DDP     P235793   3.432  19.909  15.787 -0.0814 -0.1347 -0.0381
 5966DDP     C235794   3.543  19.685  16.124 -0.2888  0.1557 -0.2375
 5966DDP     C335795   2.992  20.497  14.856  0.1106 -0.1881 -0.2231
 5966DDP     C435796   3.671  19.493  15.054 -0.0232  0.0639  0.1683
 5967DDP     C135797  12.800  17.359  11.467 -0.2528  0.3308  0.0594
 5967DDP     P135798  12.557  17.624  11.351  0.0374 -0.0725  0.1085
 5967DDP     P235799  12.774  16.936  11.424 -0.1397 -0.2038 -0.1051
 5967DDP     C235800  13.040  16.621  11.554 -0.1739 -0.1999 -0.1446
 5967DDP     C335801  12.134  17.702  11.408 -0.1971 -0.0602 -0.0309
 5967DDP     C435802  13.088  17.645  11.524 -0.1434 -0.3827 -0.1716
 5968DDP     C135803  28.483  25.265  15.147  0.1182 -0.0266  0.1235
 5968DDP     P135804  28.684  25.130  14.731 -0.1293 -0.1557 -0.0774
 5968DDP     P235805  28.199  25.700  15.058  0.4132  0.0585  0.1699
 5968DDP     C235806  28.145  25.983  15.336  0.0225  0.0955  0.3114
 5968DDP     C335807  28.847  24.687  14.738  0.1532 -0.1605  0.0438
 5968DDP     C435808  28.428  25.008  15.461 -0.2658 -0.1708 -0.0555
 5969DDP     C135809  15.906   4.902  22.437  0.0550 -0.0421  0.1887
 5969DDP     P135810  15.592   4.721  22.256 -0.0774 -0.1631 -0.1201
 5969DDP     P235811  16.037   4.582  22.659  0.5470  0.0196 -0.1672
 5969DDP     C235812  16.438   4.375  22.863 -0.0828 -0.1922 -0.2820
 5969DDP     C335813  15.136   4.687  22.130 -0.0266 -0.0349  0.0025
 5969DDP     C435814  16.099   5.278  22.223  0.0499  0.3967 -0.0550
 5970DDP     C135815  12.087   2.863   6.105  0.2727 -0.0012  0.3640
 5970DDP     P135816  11.936   2.546   6.209  0.0356 -0.1452  0.0187
 5970DDP     P235817  12.081   2.967   5.678  0.0526 -0.0451 -0.2288
 5970DDP     C235818  11.749   3.011   5.361  0.0540 -0.0495  0.0339
 5970DDP     C335819  11.691   2.515   6.645 -0.0905  0.0458  0.0526
 5970DDP     C435820  12.130   3.156   6.356  0.0781  0.1547 -0.0209
 5971DDP     C135821  20.238   5.602   8.954  0.1291  0.2014 -0.0455
 5971DDP     P135822  20.281   5.986   8.922  0.1509  0.2018  0.0382
 5971DDP     P235823  19.980   5.635   8.611  0.0849 -0.0085  0.1981
 5971DDP     C235824  19.825   5.277   8.238 -0.0806 -0.3888 -0.2149
 5971DDP     C335825  20.156   6.396   9.239 -0.2077  0.1907 -0.0164
 5971DDP     C435826  20.306   5.432   9.339 -0.0836 -0.1209 -0.0137
 5972DDP     C135827  26.987  19.308  27.038  0.2142 -0.1613  0.0176
 5972DDP     P135828  26.868  18.913  26.742 -0.2638  0.2822 -0.2525
 5972DDP     P235829  27.423  19.466  26.896 -0.0181  0.0583 -0.0450
 5972DDP     C235830  27.913  19.474  26.974  0.0015 -0.0024  0.2329
 5972DDP     C335831  26.967  18.509  26.900  0.0421  0.0202  0.1103
 5972DDP     C435832  26.684  19.587  27.176 -0.3394  0.1601  0.4411
 5973DDP     C135833  14.242   4.995  15.227  0.1021  0.1545  0.0674
 5973DDP     P135834  14.374   4.676  14.917 -0.0802  0.0170  0.2585
 5973DDP     P235835  13.741   4.844  15.258 -0.0148  0.3065 -0.1434
 5973DDP     C235836  13.281   4.655  15.337 -0.0501  0.0243  0.2128
 5973DDP     C335837  14.646   4.558  14.725  0.0956  0.2028 -0.1084
 5973DDP     C435838  14.518   5.204  15.435  0.1939 -0.2815  0.4397
 5974DDP     C135839  26.292  25.523  20.702  0.5497  0.0007 -0.0291
 5974DDP     P135840  25.944  25.529  20.449 -0.1219  0.0302  0.0277
 5974DDP     P235841  26.191  25.393  21.046  0.1541  0.0310  0.2298
 5974DDP     C235842  26.109  25.513  21.421  0.1536  0.0432 -0.1809
 5974DDP     C335843  25.796  25.707  20.092 -0.1314  0.2083  0.0601
 5974DDP     C435844  26.621  25.831  20.711 -0.0398  0.0348  0.1804
 5975DDP     C135845   9.876   5.350  17.516  0.2037 -0.0715  0.2007
 5975DDP     P135846   9.777   4.872  17.593 -0.0778 -0.0027  0.1225
 5975DDP     P235847  10.100   5.515  17.146  0.0947 -0.0742 -0.0122
 5975DDP     C235848  10.614   5.498  17.215  0.0032 -0.1528 -0.2835
 5975DDP     C335849   9.616   4.592  17.908  0.1102  0.1077 -0.0476
 5975DDP     C435850  10.117   5.629  17.808  0.2534  0.0390 -0.0067
 5976DDP     C135851  11.226  19.880  29.099 -0.1068  0.1333 -0.0241
 5976DDP     P135852  11.313  19.522  29.340  0.0844 -0.4231 -0.1666
 5976DDP     P235853  11.215  19.775  28.664  0.0146 -0.2506  0.2141
 5976DDP     C235854  11.117  19.896  28.180  0.1446 -0.0260 -0.2515
 5976DDP     C335855  11.500  19.394  29.671 -0.2072 -0.3207 -0.0858
 5976DDP     C435856  11.202  20.351  29.007 -0.0899  0.1112 -0.0244
 5977DDP     C135857  16.963  22.316  29.529 -0.3447 -0.0167  0.2380
 5977DDP     P135858  16.904  22.032  29.204  0.0805 -0.0248  0.0399
 5977DDP     P235859  16.595  22.482  29.726 -0.0443 -0.0544  0.1851
 5977DDP     C235860  16.157  22.379  29.860  0.0419  0.1229 -0.0609
 5977DDP     C335861  16.510  21.937  29.115 -0.0104 -0.0542 -0.0399
 5977DDP     C435862  17.324  22.430  29.659  0.0441  0.2743  0.0272
 5978DDP     C135863   0.580  26.861   7.874  0.0003  0.2249 -0.0785
 5978DDP     P135864   0.635  27.218   8.015  0.0409 -0.1971 -0.2299
 5978DDP     P235865   0.534  26.611   7.531 -0.0358 -0.1064 -0.1862
 5978DDP     C235866   0.598  26.510   7.151 -0.0189 -0.0307  0.1875
 5978DDP     C335867   0.923  27.563   7.913  0.2666 -0.0844 -0.2309
 5978DDP     C435868   0.569  26.790   8.263  0.1161  0.0017 -0.0275
 5979DDP     C135869  20.013  27.789  24.906 -0.0248  0.0575 -0.0534
 5979DDP     P135870  20.387  27.751  25.177 -0.1861  0.0383 -0.0483
 5979DDP     P235871  19.829  27.696  24.557 -0.0342 -0.4205  0.2417
 5979DDP     C235872  19.532  27.504  24.382  0.0377  0.4542  0.4719
 5979DDP     C335873  20.625  27.757  25.559  0.0423  0.1606 -0.0811
 5979DDP     C435874  19.644  28.008  25.109 -0.0445  0.1685  0.0224
 5980DDP     C135875  29.223  23.792  15.068 -0.4078  0.5948  0.0337
 5980DDP     P135876  29.374  23.569  15.459 -0.1657  0.1034 -0.3884
 5980DDP     P235877  28.702  23.602  15.004 -0.1330  0.1708  0.2403
 5980DDP     C235878  28.323  23.814  15.062  0.1639 -0.2947  0.0861
 5980DDP     C335879  29.394  23.623  15.887  0.1848  0.0044 -0.0275
 5980DDP     C435880  29.493  24.042  14.706  0.1404 -0.0766 -0.1861
 5981DDP     C135881  10.597  16.354   6.821  0.1663  0.2004 -0.2350
 5981DDP     P135882  10.802  16.664   7.135  0.3043  0.2959 -0.0574
 5981DDP     P235883  10.804  16.073   6.627 -0.1079  0.1251 -0.0648
 5981DDP     C235884  10.759  15.667   6.516 -0.2095 -0.1130 -0.0397
 5981DDP     C335885  10.775  17.034   6.972  0.1728 -0.0254 -0.0765
 5981DDP     C435886  10.178  16.242   6.878 -0.0536 -0.0230 -0.2170
 5982DDP     C135887   8.649  24.324  27.291  0.0642 -0.2934  0.1434
 5982DDP     P135888   8.326  24.560  27.482 -0.2465 -0.1384  0.1557
 5982DDP     P235889   8.486  24.105  26.958 -0.2465 -0.0662 -0.0294
 5982DDP     C235890   8.432  23.764  26.588 -0.1214  0.0904 -0.0291
 5982DDP     C335891   7.980  24.744  27.287  0.1019 -0.1246  0.3891
 5982DDP     C435892   9.023  24.333  27.517 -0.2587 -0.1852 -0.0269
 5983DDP     C135893  19.182  25.029   0.310 -0.0555 -0.1467 -0.0875
 5983DDP     P135894  19.589  25.250   0.193 -0.0286  0.1386  0.4039
 5983DDP     P235895  19.486  24.816   0.391  0.1583 -0.1001  0.0745
 5983DDP     C235896  19.505  24.408   0.606  0.1142  0.1226  0.1555
 5983DDP     C335897  19.955  25.135  30.328 -0.2155 -0.0360  0.0707
 5983DDP     C435898  18.851  25.126   0.553 -0.1308 -0.3229  0.0517
 5984DDP     C135899   4.507  16.403   2.096  0.0348  0.0747  0.0612
 5984DDP     P135900   4.803  16.535   1.737  0.1543  0.1150  0.0690
 5984DDP     P235901   4.180  16.177   1.988  0.0106  0.0029  0.0139
 5984DDP     C235902   4.043  15.763   1.928  0.3390 -0.0744  0.0526
 5984DDP     C335903   5.166  16.379   1.524  0.0619 -0.0195  0.0475
 5984DDP     C435904   4.652  16.447   2.492 -0.0634 -0.0009 -0.1927
 5985DDP     C135905  30.177   0.149  13.588 -0.3648  0.1007 -0.2200
 5985DDP     P135906   0.158  30.223  13.340  0.0323  0.0097 -0.0919
 5985DDP     P235907   0.028   0.216  14.024 -0.0609 -0.0609 -0.1170
 5985DDP     C235908   0.276   0.540  14.195  0.0948 -0.0817  0.0467
 5985DDP     C335909   0.596  30.080  13.439 -0.0688  0.0934  0.2193
 5985DDP     C435910  29.776   0.091  13.430 -0.3085  0.0358 -0.2017
 5986DDP     C135911   6.927   8.279   3.525 -0.2126  0.0466 -0.0630
 5986DDP     P135912   6.896   8.533   3.770 -0.1433 -0.1577 -0.0679
 5986DDP     P235913   6.815   8.065   3.964 -0.0746 -0.0286 -0.0473
 5986DDP     C235914   7.006   8.160   4.422 -0.0983  0.2227  0.1206
 5986DDP     C335915   6.701   8.521   4.131 -0.0980  0.2084  0.2944
 5986DDP     C435916   7.209   8.184   3.117  0.0700  0.1238 -0.2227
 5987DDP     C135917   6.179  22.068  16.369  0.0354  0.0424  0.0381
 5987DDP     P135918   6.364  21.843  16.816  0.0071 -0.0794  0.2163
 5987DDP     P235919   6.099  22.457  16.264 -0.2113  0.0525 -0.2428
 5987DDP     C235920   5.703  22.694  16.243 -0.6209  0.2234  0.1229
 5987DDP     C335921   6.557  21.634  17.169  0.0219  0.1889 -0.1810
 5987DDP     C435922   5.746  21.919  16.183  0.2032 -0.0200  0.4143
 5988DDP     C135923  17.963  18.152  25.163  0.2231  0.0638  0.0706
 5988DDP     P135924  17.985  18.576  25.182  0.1152  0.0750  0.1618
 5988DDP     P235925  18.071  17.799  24.908 -0.3531  0.1303 -0.3393
 5988DDP     C235926  18.257  17.495  25.059 -0.0795 -0.2255  0.0723
 5988DDP     C335927  17.986  18.979  25.523  0.1324  0.1188 -0.1773
 5988DDP     C435928  17.543  17.989  25.270  0.1102  0.0497  0.0245
 5989DDP     C135929   1.133  30.193  21.958  0.1506  0.1011  0.2293
 5989DDP     P135930   0.823  30.053  21.631  0.2616  0.1145 -0.2358
 5989DDP     P235931   1.449  29.953  21.696 -0.4858  0.1902  0.1118
 5989DDP     C235932   1.672  30.060  21.315  0.2355  0.0356 -0.3395
 5989DDP     C335933   0.774  30.105  21.109 -0.0045 -0.0128  0.1234
 5989DDP     C435934   1.085   0.134  22.328 -0.2155 -0.1333 -0.1698
 5990DDP     C135935  14.363  23.854  20.219 -0.2632  0.2726  0.0777
 5990DDP     P135936  13.973  23.747  19.992  0.0097  0.1866 -0.0213
 5990DDP     P235937  14.473  24.336  20.311  0.2504 -0.2333 -0.2963
 5990DDP     C235938  14.766  24.548  20.261 -0.0729 -0.0957 -0.1134
 5990DDP     C335939  13.758  23.478  19.741 -0.1813 -0.1595 -0.1856
 5990DDP     C435940  14.762  23.736  20.337 -0.2712 -0.0622 -0.0667
 5991DDP     C135941   3.126   1.854  29.810 -0.2491 -0.1213  0.0737
 5991DDP     P135942   3.376   2.192  29.922 -0.0014 -0.0142 -0.3843
 5991DDP     P235943   2.819   2.148  29.918  0.0601 -0.1334 -0.3680
 5991DDP     C235944   2.875   2.489  29.773 -0.3841 -0.0425  0.0743
 5991DDP     C335945   3.283   2.537  30.195  0.0216  0.0179  0.3775
 5991DDP     C435946   3.143   1.382  29.536  0.1722 -0.0564 -0.0020
 5992DDP     C135947  18.841  15.714  26.211  0.1429 -0.1036 -0.1569
 5992DDP     P135948  19.086  16.143  26.351  0.2878 -0.0542  0.0430
 5992DDP     P235949  19.019  15.371  26.409 -0.2585 -0.0317 -0.0503
 5992DDP     C235950  18.911  14.944  26.181 -0.0564  0.0021 -0.0734
 5992DDP     C335951  19.459  16.490  26.555 -0.0184  0.1097 -0.1123
 5992DDP     C435952  18.490  15.714  25.935  0.3214 -0.0355 -0.1911
 5993DDP     C135953   2.610   1.924  13.634 -0.0914 -0.3107  0.1577
 5993DDP     P135954   3.096   1.945  13.772 -0.0804 -0.0827 -0.0608
 5993DDP     P235955   2.638   1.638  13.297  0.0129  0.0766  0.4249
 5993DDP     C235956   2.638   1.239  13.009 -0.1150  0.2093 -0.1932
 5993DDP     C335957   3.369   2.100  14.010  0.1523  0.1116  0.0342
 5993DDP     C435958   2.233   1.950  13.960  0.2665 -0.0795 -0.3786
 5994DDP     C135959  17.082   3.974  22.302  0.0211  0.3457 -0.1291
 5994DDP     P135960  17.541   3.906  22.365  0.1536  0.0780  0.1084
 5994DDP     P235961  17.085   4.305  21.969 -0.2836 -0.0938  0.0418
 5994DDP     C235962  16.934   4.448  21.519 -0.0086  0.0874 -0.1865
 5994DDP     C335963  17.809   3.554  22.250 -0.0159 -0.0917  0.1122
 5994DDP     C435964  16.787   3.891  22.614 -0.0762  0.1386  0.3133
 5995DDP     C135965  11.152  16.042  14.487 -0.0916 -0.0240 -0.0202
 5995DDP     P135966  10.961  16.322  14.638  0.1417 -0.1044  0.1149
 5995DDP     P235967  10.970  15.787  14.734  0.1469 -0.1239 -0.2048
 5995DDP     C235968  10.581  15.917  14.981  0.0698  0.0283 -0.0985
 5995DDP     C335969  10.607  16.439  14.808 -0.2050  0.1544  0.0131
 5995DDP     C435970  11.477  15.984  14.222  0.2007 -0.1377  0.0609
 5996DDP     C135971  24.974   1.477  16.882 -0.1148 -0.0822 -0.0433
 5996DDP     P135972  25.328   1.315  16.795  0.1824 -0.0062  0.1330
 5996DDP     P235973  25.099   1.929  17.033 -0.0932 -0.3565  0.0938
 5996DDP     C235974  25.054   2.248  16.811  0.0113 -0.1387 -0.0719
 5996DDP     C335975  25.494   1.433  16.386  0.2287 -0.1270 -0.4112
 5996DDP     C435976  24.511   1.384  16.740 -0.2433  0.2352 -0.3137
 5997DDP     C135977  14.980  29.418  12.829 -0.0568  0.0865 -0.0433
 5997DDP     P135978  14.635  29.400  13.217  0.0992  0.2757  0.1621
 5997DDP     P235979  15.107  29.098  12.528 -0.0990 -0.1760 -0.0426
 5997DDP     C235980  15.006  28.834  12.239 -0.1073  0.1454 -0.0101
 5997DDP     C335981  14.403  29.805  13.342 -0.3333  0.0547 -0.0271
 5997DDP     C435982  15.246  29.784  12.809 -0.2679  0.2640 -0.0366
 5998DDP     C135983  19.405  23.989  16.618  0.0519  0.3540 -0.3551
 5998DDP     P135984  19.293  23.943  16.988 -0.0644  0.0380  0.2266
 5998DDP     P235985  19.461  23.599  16.390  0.1229  0.1461 -0.0834
 5998DDP     C235986  19.820  23.409  16.382 -0.2195 -0.2043 -0.0417
 5998DDP     C335987  19.286  23.432  17.053 -0.2459 -0.1155 -0.0680
 5998DDP     C435988  19.571  24.356  16.437  0.1493 -0.1489  0.1679
 5999DDP     C135989   6.969  25.062   4.273 -0.0399 -0.1298  0.1249
 5999DDP     P135990   6.742  25.057   4.665 -0.2172  0.0336  0.1002
 5999DDP     P235991   7.382  25.324   4.348 -0.0570  0.2543  0.1439
 5999DDP     C235992   7.464  25.706   4.523 -0.2002  0.0585  0.1621
 5999DDP     C335993   6.586  25.098   5.097  0.0705 -0.1036 -0.3609
 5999DDP     C435994   6.858  24.742   4.196  0.0474 -0.2554  0.0918
 6000DDP     C135995   5.978  15.376  20.607 -0.1026  0.3273 -0.1023
 6000DDP     P135996   6.098  15.337  20.183 -0.2202  0.0930  0.0840
 6000DDP     P235997   6.071  15.800  20.860 -0.0002  0.3691 -0.0481
 6000DDP     C235998   6.329  16.049  20.990  0.3479 -0.0258 -0.1152
 6000DDP     C335999   5.753  15.573  19.926 -0.0430 -0.2853 -0.1641
 6000DDP     C436000   5.660  15.032  20.733 -0.0677 -0.0674 -0.0480
 6001DDP     C136001  24.697  23.404   1.429 -0.0620  0.2671  0.1262
 6001DDP     P136002  24.729  23.823   1.551  0.1280 -0.1230 -0.0011
 6001DDP     P236003  24.279  23.219   1.554  0.1446 -0.4572 -0.2650
 6001DDP     C236004  23.838  23.257   1.699  0.0274 -0.0367  0.1142
 6001DDP     C336005  24.643  24.270   1.709  0.0476 -0.1309  0.1254
 6001DDP     C436006  24.990  23.243   1.031  0.2264  0.0789 -0.2526
 6002DDP     C136007  11.699  21.633  18.779  0.1007 -0.1027 -0.1462
 6002DDP     P136008  11.879  21.367  19.130  0.0353  0.0388 -0.0185
 6002DDP     P236009  11.461  21.554  18.439  0.6221  0.1720 -0.0904
 6002DDP     C236010  11.396  21.294  18.032  0.0457  0.0234  0.0178
 6002DDP     C336011  12.036  21.052  19.388  0.2503  0.2076 -0.1428
 6002DDP     C436012  11.745  22.070  18.836 -0.0990 -0.2052 -0.1465
 6003DDP     C136013   6.143  15.486   7.212  0.1906  0.0055 -0.2523
 6003DDP     P136014   6.459  15.641   7.519 -0.0493  0.0013  0.1253
 6003DDP     P236015   6.334  15.352   6.844  0.1101  0.1584  0.0786
 6003DDP     C236016   6.544  15.275   6.428  0.0780  0.0691 -0.1765
 6003DDP     C336017   6.723  15.568   7.866  0.1075 -0.0100 -0.1987
 6003DDP     C436018   5.774  15.604   7.197 -0.0796 -0.1344  0.1019
 6004DDP     C136019  10.350  17.214  15.645 -0.1721  0.0092 -0.2309
 6004DDP     P136020  10.312  17.633  15.550 -0.0853  0.1698  0.1918
 6004DDP     P236021  10.256  17.224  16.070  0.2869  0.0186  0.1405
 6004DDP     C236022   9.843  17.194  16.269  0.1727  0.0583 -0.2295
 6004DDP     C336023  10.039  17.921  15.365 -0.1057 -0.0369 -0.0138
 6004DDP     C436024  10.251  16.908  15.270  0.0258 -0.0071 -0.2311
 6005DDP     C136025   6.249  18.866   2.101 -0.0130  0.1488 -0.1825
 6005DDP     P136026   6.413  18.731   2.478 -0.0651  0.2602  0.1027
 6005DDP     P236027   6.215  19.247   1.945 -0.2017  0.2105  0.3554
 6005DDP     C236028   6.168  19.651   2.125 -0.0704 -0.0483 -0.0466
 6005DDP     C336029   6.828  18.567   2.630 -0.2513 -0.3210  0.0175
 6005DDP     C436030   5.952  18.675   1.941  0.2475 -0.1565 -0.0291
 6006DDP     C136031  24.306  29.004   4.237  0.2968 -0.0736  0.1618
 6006DDP     P136032  23.912  29.143   4.271  0.0207  0.0206 -0.1950
 6006DDP     P236033  24.517  28.873   3.886  0.2194  0.1302 -0.0288
 6006DDP     C236034  24.593  28.576   3.515  0.0852  0.1626 -0.0654
 6006DDP     C336035  23.516  29.103   4.514  0.4132 -0.1023  0.0047
 6006DDP     C436036  24.453  29.036   4.636 -0.0892 -0.3041 -0.1588
 6007DDP     C136037   9.990   7.006  14.964  0.0808 -0.0093  0.0046
 6007DDP     P136038   9.842   6.667  15.252 -0.0048 -0.0733 -0.1801
 6007DDP     P236039  10.457   7.114  14.824 -0.0307 -0.2917 -0.1741
 6007DDP     C236040  10.586   7.483  14.791  0.0409 -0.0937  0.1906
 6007DDP     C336041  10.152   6.420  15.551 -0.0885 -0.1298 -0.0805
 6007DDP     C436042   9.707   7.369  14.802  0.1345  0.0288  0.1497
 6008DDP     C136043   5.771  13.794  29.802 -0.1328  0.0873 -0.1589
 6008DDP     P136044   5.833  13.900  29.421  0.1897 -0.0853  0.1141
 6008DDP     P236045   5.386  13.909  30.020 -0.0561  0.0023  0.0490
 6008DDP     C236046   5.209  14.261  29.803  0.0448 -0.0568 -0.0781
 6008DDP     C336047   5.668  14.214  29.192 -0.0429 -0.1581  0.2496
 6008DDP     C436048   6.049  13.556  30.006 -0.2465 -0.1995  0.1670
 6009DDP     C136049  10.623   5.333  28.754  0.1167  0.0449  0.1829
 6009DDP     P136050  10.938   5.647  28.924 -0.2908 -0.1922 -0.1434
 6009DDP     P236051  10.628   4.882  28.996 -0.1727  0.3185 -0.0715
 6009DDP     C236052  10.446   4.659  29.361  0.0404 -0.4491 -0.0794
 6009DDP     C336053  11.379   5.654  29.094 -0.1212  0.1406  0.0216
 6009DDP     C436054  10.311   5.394  28.400  0.2196 -0.1949  0.0395
 6010DDP     C136055  15.705   6.240   4.535 -0.1715 -0.1921 -0.0324
 6010DDP     P136056  16.099   6.038   4.624  0.0672  0.0487  0.1475
 6010DDP     P236057  15.474   6.529   4.730  0.0170  0.0680  0.0284
 6010DDP     C236058  14.945   6.680   4.894  0.2760 -0.2405  0.2590
 6010DDP     C336059  16.304   5.761   4.936 -0.2336  0.0525 -0.1171
 6010DDP     C436060  15.567   6.196   4.148  0.1724 -0.1666 -0.1359
 6011DDP     C136061   0.049   8.649  13.970  0.2364  0.2666 -0.2384
 6011DDP     P136062   0.169   8.956  14.346 -0.1205 -0.3749  0.1299
 6011DDP     P236063   0.236   8.573  13.658 -0.1563 -0.1249  0.0688
 6011DDP     C236064   0.596   8.206  13.563 -0.1192  0.0652  0.1778
 6011DDP     C336065   0.453   9.282  14.244 -0.1266  0.0022 -0.2596
 6011DDP     C436066  29.909   8.449  13.985  0.0156  0.1480 -0.1508
 6012DDP     C136067  17.291  17.340   2.397  0.0689  0.2472  0.3006
 6012DDP     P136068  17.265  17.265   2.021 -0.2902  0.2947  0.3084
 6012DDP     P236069  17.243  16.902   2.484  0.1586 -0.1934  0.2884
 6012DDP     C236070  16.793  16.721   2.615  0.1790  0.2488  0.0708
 6012DDP     C336071  17.146  17.019   1.747 -0.1699 -0.0578  0.4265
 6012DDP     C436072  17.035  17.613   2.537  0.1279  0.1009 -0.0378
 6013DDP     C136073   4.680  14.052  27.774  0.0719  0.1293 -0.1172
 6013DDP     P136074   4.894  13.779  27.565  0.2137  0.1897 -0.0680
 6013DDP     P236075   4.881  14.393  28.008 -0.0014  0.1457  0.0567
 6013DDP     C236076   5.115  14.532  28.421 -0.0793  0.4096 -0.2705
 6013DDP     C336077   4.997  13.610  27.227  0.0980 -0.1925 -0.6912
 6013DDP     C436078   4.333  14.248  27.634 -0.0561  0.0128  0.1814
 6014DDP     C136079   6.911  26.121   2.595 -0.0334 -0.1366  0.2785
 6014DDP     P136080   6.829  25.816   2.763 -0.1635 -0.1437 -0.0322
 6014DDP     P236081   7.284  26.038   2.731 -0.2997  0.0465  0.0389
 6014DDP     C236082   7.725  25.835   2.651 -0.2151 -0.0880  0.0384
 6014DDP     C336083   6.594  25.523   2.706 -0.0586 -0.0733 -0.1204
 6014DDP     C436084   6.649  26.376   2.364  0.0177 -0.0079  0.1742
 6015DDP     C136085  21.964   0.073  10.321 -0.1933  0.0371 -0.0790
 6015DDP     P136086  22.111   0.359  10.437  0.0661  0.0985  0.3195
 6015DDP     P236087  21.831  30.270  10.657 -0.0563 -0.1672  0.1315
 6015DDP     C236088  21.530   0.065  10.907 -0.0174 -0.1493  0.0176
 6015DDP     C336089  22.226   0.561  10.890 -0.0465  0.1381  0.1062
 6015DDP     C436090  22.111  30.210   9.874  0.0098  0.2031 -0.1086
 6016DDP     C136091   6.588   4.187  26.507  0.2852  0.1946  0.2636
 6016DDP     P136092   6.649   4.394  26.800  0.1494  0.1690  0.1333
 6016DDP     P236093   6.807   3.794  26.519 -0.1639 -0.0017  0.0743
 6016DDP     C236094   6.838   3.330  26.384 -0.2960 -0.1640  0.4633
 6016DDP     C336095   6.864   4.515  27.212  0.2639  0.3867 -0.0097
 6016DDP     C436096   6.266   4.368  26.174  0.0757  0.1087 -0.1297
 6017DDP     C136097   7.218  27.645  27.014 -0.0318 -0.0453  0.0956
 6017DDP     P136098   6.818  27.656  26.697  0.0171  0.1562  0.2648
 6017DDP     P236099   7.581  27.422  27.126 -0.2825 -0.0184 -0.3972
 6017DDP     C236100   7.892  27.183  27.011  0.0622  0.0774  0.0694
 6017DDP     C336101   6.549  27.665  26.316 -0.2147  0.1190  0.2194
 6017DDP     C436102   7.156  27.904  27.332 -0.1249  0.1506  0.2728
 6018DDP     C136103  15.719   7.610   3.187 -0.1890 -0.2145  0.2537
 6018DDP     P136104  15.518   7.377   2.784  0.0277 -0.1763 -0.1251
 6018DDP     P236105  16.098   7.747   3.138  0.0108 -0.2997 -0.1003
 6018DDP     C236106  16.333   7.852   2.772  0.2156  0.2551  0.2501
 6018DDP     C336107  15.424   6.995   2.588 -0.0944 -0.0399  0.3551
 6018DDP     C436108  15.399   7.551   3.406 -0.0323  0.2664  0.2317
 6019DDP     C136109   2.215  29.118   3.027 -0.0061 -0.1570 -0.0593
 6019DDP     P136110   2.262  29.550   3.173  0.0931  0.0816  0.2184
 6019DDP     P236111   1.916  29.045   3.330 -0.2314 -0.0336  0.1730
 6019DDP     C236112   2.086  28.972   3.725  0.3880 -0.0347  0.0827
 6019DDP     C336113   2.165  29.924   3.163  0.0841  0.2932 -0.1206
 6019DDP     C436114   2.444  28.682   3.029 -0.3980 -0.1717  0.0932
 6020DDP     C136115  21.623   3.161  26.275  0.1711  0.0828  0.2225
 6020DDP     P136116  21.839   3.421  26.261  0.0921  0.2303  0.2033
 6020DDP     P236117  21.216   3.137  26.022 -0.0769  0.2633  0.3415
 6020DDP     C236118  20.855   2.960  25.819 -0.2156  0.0562 -0.0103
 6020DDP     C336119  21.987   3.518  25.845 -0.1429 -0.1641 -0.2878
 6020DDP     C436120  21.697   2.804  26.527  0.0774 -0.0490 -0.2966
 6021DDP     C136121  19.524  27.556  27.702  0.0894  0.0690  0.1591
 6021DDP     P136122  19.861  27.137  27.648  0.2790 -0.0296  0.0426
 6021DDP     P236123  19.307  27.635  28.045 -0.0540 -0.1417  0.0568
 6021DDP     C236124  18.875  27.414  28.149  0.1043 -0.0005 -0.3279
 6021DDP     C336125  19.858  26.856  28.044 -0.3017  0.3731  0.0659
 6021DDP     C436126  19.558  27.757  27.296  0.1387  0.2695 -0.0211
 6022DDP     C136127  11.211  11.260  27.803  0.1166  0.1434  0.0019
 6022DDP     P136128  11.414  11.749  27.725 -0.1185 -0.1899 -0.1757
 6022DDP     P236129  11.359  10.909  27.577  0.1054  0.1559  0.0044
 6022DDP     C236130  11.691  10.795  27.407 -0.2496 -0.1538 -0.0525
 6022DDP     C336131  11.519  12.050  27.921  0.1227 -0.1739  0.0879
 6022DDP     C436132  10.889  11.152  27.994 -0.0489  0.1029  0.0480
 6023DDP     C136133  17.354  26.770   7.877 -0.1887 -0.2762 -0.0061
 6023DDP     P136134  17.475  26.830   8.325 -0.2743 -0.1289 -0.0326
 6023DDP     P236135  17.239  27.183   7.883  0.1384  0.2231 -0.0067
 6023DDP     C236136  17.072  27.557   7.945 -0.3022 -0.1163 -0.3713
 6023DDP     C336137  17.378  26.913   8.785  0.3322 -0.0003 -0.0948
 6023DDP     C436138  17.380  26.473   7.523  0.2172 -0.4705  0.0253
 6024DDP     C136139   1.670  20.879   9.534 -0.0292 -0.0565 -0.2952
 6024DDP     P136140   1.956  20.726   9.858 -0.1656 -0.0738  0.1646
 6024DDP     P236141   1.919  21.008   9.224 -0.0500 -0.1279  0.3194
 6024DDP     C236142   2.135  21.308   9.148 -0.3058  0.3432  0.0329
 6024DDP     C336143   2.087  20.436  10.143 -0.1234  0.0280 -0.1977
 6024DDP     C436144   1.316  20.709   9.575 -0.2621  0.0237  0.3604
 6025DDP     C136145  29.632  15.813  15.427 -0.0336 -0.2637  0.0069
 6025DDP     P136146  29.585  16.031  15.009 -0.0984 -0.0871  0.1336
 6025DDP     P236147  29.429  16.061  15.780  0.1132  0.0301 -0.0215
 6025DDP     C236148  29.183  15.890  16.207 -0.0430 -0.1071 -0.1426
 6025DDP     C336149  29.544  16.453  14.863  0.1136 -0.1711 -0.0575
 6025DDP     C436150  29.969  15.628  15.485  0.2312 -0.1052 -0.2016
 6026DDP     C136151  26.844   3.386  30.287 -0.0631  0.2757 -0.0376
 6026DDP     P136152  27.064   3.300  29.920  0.1303  0.0321  0.0847
 6026DDP     P236153  27.158   3.185   0.293  0.2427 -0.1879  0.3721
 6026DDP     C236154  27.547   2.856   0.226 -0.0569  0.0334  0.2254
 6026DDP     C336155  27.441   3.043  29.808 -0.0205 -0.3337 -0.0987
 6026DDP     C436156  26.412   3.562   0.100 -0.1025 -0.2245 -0.0238
 6027DDP     C136157  21.454  27.213   1.228  0.1806 -0.1474 -0.1174
 6027DDP     P136158  21.896  27.240   1.037 -0.2427 -0.0526  0.1772
 6027DDP     P236159  21.186  27.572   1.137  0.1170 -0.0064  0.3585
 6027DDP     C236160  21.001  27.725   0.704  0.0927  0.2562 -0.2709
 6027DDP     C336161  22.280  27.394   0.720  0.2301 -0.0294 -0.0995
 6027DDP     C436162  21.193  26.902   1.405 -0.0704  0.1288 -0.1973
 6028DDP     C136163   6.927  26.684   1.445 -0.1913  0.0443 -0.0663
 6028DDP     P136164   7.102  27.119   1.649 -0.0406  0.1223  0.2236
 6028DDP     P236165   6.507  26.648   1.549  0.0805  0.2065  0.2991
 6028DDP     C236166   6.017  26.640   1.492  0.1768  0.0896  0.2210
 6028DDP     C336167   7.096  27.467   1.462  0.0145  0.3715  0.1859
 6028DDP     C436168   7.192  26.545   1.109 -0.1086  0.1793  0.2318
 6029DDP     C136169   5.382  20.190  29.300 -0.0244 -0.1924 -0.1592
 6029DDP     P136170   5.453  20.167  28.880  0.2507  0.1595  0.1399
 6029DDP     P236171   5.260  19.860  29.550 -0.0800 -0.2809  0.2435
 6029DDP     C236172   4.952  19.495  29.673 -0.0017  0.0375  0.0257
 6029DDP     C336173   5.292  19.987  28.503 -0.0370  0.0301 -0.0446
 6029DDP     C436174   5.300  20.691  29.377 -0.4991  0.0644 -0.0461
 6030DDP     C136175   5.322  22.612   0.865 -0.1639  0.2893 -0.2214
 6030DDP     P136176   4.899  22.443   0.865 -0.0203 -0.2569 -0.3862
 6030DDP     P236177   5.473  22.725   1.227 -0.4254 -0.1453 -0.1161
 6030DDP     C236178   5.534  22.705   1.623  0.0578 -0.2007 -0.1640
 6030DDP     C336179   4.592  22.550   1.084 -0.0343  0.1583  0.3194
 6030DDP     C436180   5.612  22.397   0.784 -0.0469 -0.0039  0.1583
 6031DDP     C136181  13.350   1.499   6.513 -0.3259 -0.1865  0.1100
 6031DDP     P136182  12.950   1.407   6.281 -0.0969 -0.0620  0.0421
 6031DDP     P236183  13.390   1.893   6.793  0.0456  0.1439  0.0806
 6031DDP     C236184  13.432   2.299   6.776  0.2446 -0.2981 -0.1536
 6031DDP     C336185  12.711   1.609   5.880 -0.1300  0.0910 -0.0117
 6031DDP     C436186  13.458   1.129   6.522 -0.1430 -0.0095 -0.0854
 6032DDP     C136187  28.385  29.481  29.324 -0.0740 -0.0351  0.1640
 6032DDP     P136188  28.391  29.464  29.710 -0.3950  0.2098  0.2303
 6032DDP     P236189  28.682  29.642  29.024 -0.0719  0.0593 -0.0675
 6032DDP     C236190  29.140  29.736  28.914  0.0327  0.0129  0.1715
 6032DDP     C336191  28.054  29.526  30.018  0.0981  0.0371  0.0685
 6032DDP     C436192  27.912  29.439  29.258 -0.1440  0.0400  0.2591
 6033DDP     C136193  29.250   6.606  19.618  0.3537  0.1097  0.0508
 6033DDP     P136194  28.849   6.668  19.389 -0.1977 -0.0101  0.1960
 6033DDP     P236195  29.306   6.762  20.056  0.2659 -0.0308 -0.1564
 6033DDP     C236196  29.438   6.895  20.403 -0.0619 -0.1165  0.1303
 6033DDP     C336197  28.396   6.665  19.490 -0.1635 -0.0898  0.1300
 6033DDP     C436198  29.657   6.543  19.380 -0.0622 -0.3290 -0.0276
 6034DDP     C136199   2.065  11.377   0.710  0.3156 -0.2266 -0.5470
 6034DDP     P136200   1.920  11.074   0.492  0.0176 -0.2926 -0.2037
 6034DDP     P236201   2.053  11.679   0.449  0.0752 -0.0245 -0.0825
 6034DDP     C236202   1.854  11.649  30.306  0.2101  0.2030  0.1642
 6034DDP     C336203   1.606  10.853   0.640  0.2737  0.0559  0.2616
 6034DDP     C436204   2.162  11.405   1.114 -0.0848 -0.2179  0.1734
 6035DDP     C136205   6.417  18.320  29.652  0.0281  0.0975  0.3312
 6035DDP     P136206   6.168  18.527  29.881  0.0782 -0.0874  0.0140
 6035DDP     P236207   6.771  18.250  29.931 -0.0510  0.1007 -0.0379
 6035DDP     C236208   6.995  18.003  30.276 -0.0537 -0.2441  0.1453
 6035DDP     C336209   5.960  18.915  29.792 -0.2900 -0.0779  0.2850
 6035DDP     C436210   6.353  18.126  29.370 -0.0011  0.0846  0.3197
 6036DDP     C136211   2.182   4.370   0.209 -0.0664  0.2028 -0.1032
 6036DDP     P136212   1.938   4.437   0.576  0.3034 -0.2123  0.2498
 6036DDP     P236213   2.368   4.651   0.311 -0.4300  0.0670  0.1236
 6036DDP     C236214   2.513   5.032   0.532  0.0236 -0.1669 -0.0470
 6036DDP     C336215   1.892   4.341   1.032 -0.0052 -0.1658  0.2919
 6036DDP     C436216   2.232   4.003  30.298  0.0032  0.0134 -0.1416
 6037DDP     C136217  12.325   0.250  14.434 -0.1440 -0.1044  0.2516
 6037DDP     P136218  12.020  30.262  14.750  0.2731 -0.0176  0.1761
 6037DDP     P236219  12.538   0.034  14.141 -0.1635 -0.0733 -0.1268
 6037DDP     C236220  12.613  30.094  13.694 -0.2329 -0.2380  0.1663
 6037DDP     C336221  11.598  30.068  14.743 -0.0022 -0.0045  0.2490
 6037DDP     C436222  12.361   0.759  14.487 -0.0589  0.1166  0.0107
 6038DDP     C136223  11.690  25.436  17.023 -0.0797 -0.3098 -0.3526
 6038DDP     P136224  11.953  25.165  17.321 -0.0509 -0.0468  0.2429
 6038DDP     P236225  11.685  25.841  17.086  0.0590  0.0709 -0.2395
 6038DDP     C236226  12.097  26.079  17.065 -0.0724  0.1824  0.1508
 6038DDP     C336227  12.024  25.031  17.627  0.2008  0.0062 -0.2060
 6038DDP     C436228  11.403  25.230  16.859 -0.1579 -0.0381 -0.1226
 6039DDP     C136229  11.074   6.986   7.915 -0.1389  0.0747 -0.1194
 6039DDP     P136230  10.915   6.574   8.004  0.0231 -0.2674 -0.0785
 6039DDP     P236231  11.410   7.303   7.981  0.4033 -0.1552 -0.3617
 6039DDP     C236232  11.683   7.615   7.711 -0.0366 -0.0939 -0.0590
 6039DDP     C336233  10.938   6.344   8.388  0.1298  0.0100 -0.0254
 6039DDP     C436234  10.974   7.314   7.755 -0.0005 -0.1008 -0.1643
 6040DDP     C136235  25.247  12.550   2.878  0.2682  0.0209 -0.1004
 6040DDP     P136236  25.244  12.414   2.423 -0.0912 -0.2575  0.0413
 6040DDP     P236237  25.112  12.986   2.955 -0.2069  0.1373 -0.0942
 6040DDP     C236238  24.748  13.150   3.217  0.2085 -0.0632 -0.0395
 6040DDP     C336239  25.370  12.586   2.050 -0.0502 -0.2204  0.2468
 6040DDP     C436240  25.349  12.216   3.140 -0.1569 -0.0922  0.4119
 6041DDP     C136241  18.165  23.669   3.296  0.3702 -0.0321 -0.1658
 6041DDP     P136242  18.270  23.365   2.997  0.1549  0.0023 -0.2789
 6041DDP     P236243  18.109  24.077   3.087  0.0183  0.0543 -0.1373
 6041DDP     C236244  18.002  24.198   2.679 -0.1363 -0.0492 -0.0850
 6041DDP     C336245  18.112  23.393   2.531  0.1390 -0.1410  0.0739
 6041DDP     C436246  18.241  23.484   3.716 -0.2126  0.2231  0.0490
 6042DDP     C136247   0.757  30.104  27.297  0.1988  0.2641  0.0871
 6042DDP     P136248   1.148  30.010  27.329  0.4025 -0.1656  0.2020
 6042DDP     P236249   0.456  29.761  27.330  0.1860 -0.0846 -0.1248
 6042DDP     C236250   0.354  29.356  27.156  0.0898  0.0187  0.3153
 6042DDP     C336251   1.476  29.720  27.260 -0.0507 -0.3892  0.1852
 6042DDP     C436252   0.610   0.246  27.149  0.0749  0.2211 -0.1619
 6043DDP     C136253  16.685  22.411   8.868  0.2044 -0.1170  0.0247
 6043DDP     P136254  16.787  22.019   8.874 -0.1371  0.1131 -0.1105
 6043DDP     P236255  16.830  22.424   9.377 -0.0916  0.0900 -0.0442
 6043DDP     C236256  16.827  22.684   9.770 -0.2147 -0.2561  0.0134
 6043DDP     C336257  16.802  21.559   8.919 -0.1607  0.1136 -0.1183
 6043DDP     C436258  16.237  22.564   8.726 -0.0817  0.3528  0.1891
 6044DDP     C136259  24.103   1.880   2.343  0.2294 -0.2780 -0.0192
 6044DDP     P136260  24.193   1.737   2.061 -0.3711 -0.1703 -0.2339
 6044DDP     P236261  24.353   2.160   2.299  0.2669  0.1181  0.0832
 6044DDP     C236262  24.550   2.438   2.555  0.1933 -0.1590 -0.2243
 6044DDP     C336263  24.431   1.494   1.772 -0.0109  0.1863 -0.1623
 6044DDP     C436264  23.809   1.848   2.787  0.0842  0.0338 -0.0317
 6045DDP     C136265  21.027   4.758  15.380 -0.3650 -0.1648  0.1070
 6045DDP     P136266  21.221   4.380  15.335  0.0709 -0.0757  0.0522
 6045DDP     P236267  21.217   5.071  15.674 -0.0919  0.0197 -0.0381
 6045DDP     C236268  21.369   5.443  15.930 -0.3390 -0.0741 -0.2890
 6045DDP     C336269  21.606   4.088  15.499 -0.0818  0.0497 -0.2141
 6045DDP     C436270  20.659   4.937  15.058  0.1719  0.1896  0.1464
 6046DDP     C136271  11.085   6.343   4.460 -0.0333  0.1883  0.0273
 6046DDP     P136272  11.510   6.132   4.460  0.2839 -0.0066  0.0469
 6046DDP     P236273  10.774   6.383   4.763  0.0038 -0.0298 -0.1769
 6046DDP     C236274  10.540   6.067   4.991 -0.1043 -0.1904  0.1974
 6046DDP     C336275  11.904   6.162   4.331  0.0239 -0.2485  0.2162
 6046DDP     C436276  10.910   6.485   4.059 -0.0974 -0.1384 -0.0255
 6047DDP     C136277  21.070  18.998   2.197  0.5490  0.2388  0.1191
 6047DDP     P136278  20.815  18.747   2.522 -0.2152 -0.1516 -0.0083
 6047DDP     P236279  21.400  19.334   2.170 -0.0049 -0.1184 -0.2406
 6047DDP     C236280  21.821  19.476   2.019  0.0131  0.1337 -0.1145
 6047DDP     C336281  20.578  18.405   2.649  0.1727  0.1334 -0.0922
 6047DDP     C436282  20.955  19.325   1.908  0.0017  0.3044  0.1125
 6048DDP     C136283  22.041  27.268   2.148  0.3247 -0.1267  0.0542
 6048DDP     P136284  21.971  27.689   2.187 -0.0159 -0.0509 -0.1290
 6048DDP     P236285  22.494  27.139   2.071 -0.2787  0.3164  0.3661
 6048DDP     C236286  22.690  27.231   1.665 -0.1026  0.0504  0.0379
 6048DDP     C336287  21.991  27.987   2.451  0.3123  0.1893 -0.2366
 6048DDP     C436288  21.765  27.020   1.871 -0.0192 -0.1864 -0.0416
 6049DDP     C136289   4.953   8.933   1.786  0.1566  0.0789 -0.0370
 6049DDP     P136290   5.015   8.520   1.591  0.0461  0.5430  0.1358
 6049DDP     P236291   5.149   9.193   1.528  0.0971  0.1700 -0.0013
 6049DDP     C236292   5.508   9.414   1.353 -0.0007 -0.1786  0.3040
 6049DDP     C336293   5.392   8.405   1.387 -0.2823  0.2075 -0.1722
 6049DDP     C436294   4.692   8.919   2.207  0.0680 -0.0680  0.1500
 6050DDP     C136295  18.433  28.482  29.414 -0.0062 -0.2247  0.2450
 6050DDP     P136296  18.691  28.891  29.545  0.0694  0.2496 -0.0325
 6050DDP     P236297  18.582  28.209  29.030 -0.1555  0.0646  0.0078
 6050DDP     C236298  18.876  27.908  29.080 -0.2317 -0.0026 -0.1015
 6050DDP     C336299  18.885  29.338  29.301 -0.0472 -0.0354  0.1683
 6050DDP     C436300  18.238  28.335  29.771 -0.0668  0.0345 -0.0278
 6051DDP     C136301   5.307  18.129  18.320 -0.2742  0.0977 -0.2287
 6051DDP     P136302   5.652  17.956  18.401  0.1181 -0.0509 -0.3021
 6051DDP     P236303   5.432  18.367  17.810  0.1667 -0.3303  0.0207
 6051DDP     C236304   5.645  18.653  17.491  0.3201 -0.0122  0.1510
 6051DDP     C336305   6.128  17.935  18.374 -0.1492 -0.2580 -0.0639
 6051DDP     C436306   4.860  18.181  18.448 -0.2435  0.4387 -0.1895
 6052DDP     C136307  12.900   9.309  14.855 -0.0841 -0.1337 -0.1569
 6052DDP     P136308  13.184   9.069  15.043 -0.2814  0.1563 -0.4770
 6052DDP     P236309  12.974   9.773  14.722  0.1227  0.2823 -0.0814
 6052DDP     C236310  12.616  10.038  14.489  0.1236  0.0896 -0.1771
 6052DDP     C336311  13.536   8.891  15.351 -0.1182 -0.2729  0.0940
 6052DDP     C436312  12.484   9.020  14.686  0.1553 -0.1790  0.1033
 6053DDP     C136313  26.066   5.402  24.035 -0.1423  0.2601 -0.2848
 6053DDP     P136314  26.187   5.484  24.437  0.2001 -0.3192 -0.0986
 6053DDP     P236315  25.579   5.491  24.097  0.0490  0.3139  0.1159
 6053DDP     C236316  25.325   5.792  23.822 -0.1435 -0.0392  0.1037
 6053DDP     C336317  26.394   5.322  24.963  0.0552 -0.2444  0.1982
 6053DDP     C436318  26.217   5.160  23.686  0.2880  0.0553 -0.1251
 6054DDP     C136319   4.974  19.610  22.293 -0.0596 -0.1337  0.1701
 6054DDP     P136320   5.106  19.917  22.525 -0.0610 -0.2215 -0.1344
 6054DDP     P236321   5.166  19.212  22.426 -0.2656  0.1298  0.0255
 6054DDP     C236322   5.662  19.143  22.511  0.0927 -0.0166  0.1790
 6054DDP     C336323   4.834  20.044  22.848 -0.1884  0.0953 -0.1927
 6054DDP     C436324   5.027  19.784  21.858 -0.2661 -0.0423 -0.1508
 6055DDP     C136325  23.027   9.675   9.227 -0.0067  0.0825  0.0418
 6055DDP     P136326  23.240   9.856   9.070 -0.2570 -0.0458  0.2276
 6055DDP     P236327  23.161   9.251   9.330 -0.1834 -0.1187  0.1786
 6055DDP     C236328  23.398   8.895   9.355  0.2260  0.2146  0.0570
 6055DDP     C336329  23.255  10.233   8.812 -0.2044 -0.2261 -0.1415
 6055DDP     C436330  22.602   9.692   8.971  0.1425  0.0465 -0.1726
 6056DDP     C136331   8.560   2.235   2.746  0.0194 -0.0071 -0.1047
 6056DDP     P136332   8.698   2.370   3.122  0.1952 -0.0772  0.2213
 6056DDP     P236333   8.314   1.770   2.642 -0.1339 -0.0229  0.0495
 6056DDP     C236334   8.226   1.376   2.970 -0.0512 -0.1568 -0.2420
 6056DDP     C336335   8.803   2.406   3.537 -0.1883  0.0503  0.0843
 6056DDP     C436336   8.389   2.543   2.373 -0.2020 -0.1814 -0.1276
 6057DDP     C136337  16.018  27.212  19.104 -0.1688  0.1518 -0.0589
 6057DDP     P136338  16.258  26.883  19.290  0.0019  0.0406  0.2153
 6057DDP     P236339  16.298  27.597  19.225  0.1029  0.0409  0.2949
 6057DDP     C236340  16.644  27.713  19.398  0.0357  0.1168 -0.0342
 6057DDP     C336341  16.525  26.579  19.314 -0.1572 -0.3947  0.1161
 6057DDP     C436342  15.616  27.315  18.801  0.0281  0.3924  0.0760
 6058DDP     C136343   9.344  21.110   0.016  0.2539  0.0364 -0.0790
 6058DDP     P136344   9.321  21.254   0.386  0.2695  0.1568 -0.1046
 6058DDP     P236345   9.565  20.791  30.223  0.2716  0.1539 -0.3017
 6058DDP     C236346   9.850  20.467  29.950  0.1500 -0.0374 -0.1508
 6058DDP     C336347   9.022  21.120   0.705 -0.2207 -0.3083  0.0234
 6058DDP     C436348   9.206  21.549  30.170  0.0551  0.0640  0.3210
 6059DDP     C136349   4.200   8.744  20.802  0.0234 -0.0331  0.2228
 6059DDP     P136350   4.375   8.681  20.413  0.0173  0.0598  0.1550
 6059DDP     P236351   3.968   8.462  21.121  0.0788  0.0446 -0.1772
 6059DDP     C236352   4.062   8.193  21.517 -0.0172 -0.0266 -0.0950
 6059DDP     C336353   4.280   8.632  20.002 -0.3337 -0.0654 -0.3438
 6059DDP     C436354   4.173   9.105  21.013  0.1042  0.3019  0.4898
 6060DDP     C136355   4.298  25.237   2.061  0.0984  0.3067  0.0324
 6060DDP     P136356   4.167  25.140   1.662 -0.1191 -0.0423  0.0553
 6060DDP     P236357   4.367  25.662   2.207 -0.1570 -0.0659  0.1805
 6060DDP     C236358   4.340  25.973   2.460 -0.2716 -0.1527 -0.1283
 6060DDP     C336359   3.888  25.296   1.357  0.1998  0.2029 -0.0065
 6060DDP     C436360   4.262  24.896   2.409  0.1026 -0.2784  0.0614
 6061DDP     C136361  29.902  20.198   5.090  0.1638 -0.1016  0.0109
 6061DDP     P136362  29.702  19.947   5.354 -0.0678  0.1349 -0.1032
 6061DDP     P236363  29.934  19.921   4.716  0.1876  0.1100  0.1106
 6061DDP     C236364  30.029  19.965   4.269 -0.4331 -0.1671 -0.3217
 6061DDP     C336365  29.550  19.636   5.663  0.0293  0.1260 -0.0466
 6061DDP     C436366  29.980  20.575   4.882  0.4531  0.0794 -0.3066
 6062DDP     C136367  26.214   7.036  25.268  0.1301 -0.1055  0.0752
 6062DDP     P136368  26.390   7.280  25.660 -0.0432 -0.0431  0.1159
 6062DDP     P236369  25.928   7.444  25.239  0.2808 -0.0040  0.0127
 6062DDP     C236370  25.914   7.882  25.143  0.1027 -0.1578  0.1881
 6062DDP     C336371  26.797   7.468  25.550 -0.2262  0.3055 -0.0353
 6062DDP     C436372  26.434   6.694  24.970  0.1308  0.1380 -0.0093
 6063DDP     C136373   5.320   9.143  15.163 -0.1312  0.0103 -0.2438
 6063DDP     P136374   5.513   9.383  15.400  0.1771 -0.0787 -0.2135
 6063DDP     P236375   5.413   9.191  14.749  0.1454  0.2314 -0.3210
 6063DDP     C236376   5.798   9.256  14.665 -0.1494  0.0657  0.2659
 6063DDP     C336377   5.595   9.686  15.705 -0.0252 -0.4077  0.0155
 6063DDP     C436378   4.924   8.863  15.125 -0.1459 -0.0626 -0.2194
 6064DDP     C136379  16.502  12.752  21.205 -0.3253  0.3153 -0.0118
 6064DDP     P136380  16.676  13.122  21.526 -0.1542 -0.0612 -0.0903
 6064DDP     P236381  16.145  12.522  21.143  0.3631  0.0156  0.1249
 6064DDP     C236382  15.639  12.385  21.186  0.2570 -0.0073  0.2719
 6064DDP     C336383  16.902  13.318  21.929 -0.3400  0.5248 -0.1521
 6064DDP     C436384  16.856  12.608  20.793  0.0332 -0.1935 -0.0390
 6065DDP     C136385  26.683   9.974  25.713 -0.1897 -0.0147  0.4151
 6065DDP     P136386  26.662  10.224  26.063 -0.1868  0.2374  0.0057
 6065DDP     P236387  26.359   9.727  25.774  0.0085  0.0383  0.0329
 6065DDP     C236388  26.110   9.367  25.675  0.1794  0.0619  0.0966
 6065DDP     C336389  26.976  10.462  26.285 -0.2312  0.2119 -0.0313
 6065DDP     C436390  26.952   9.973  25.300  0.0794  0.2288  0.0347
 6066DDP     C136391  27.283   8.017   9.199  0.5523  0.1168 -0.3366
 6066DDP     P136392  27.469   8.388   9.287  0.2601 -0.0177 -0.3471
 6066DDP     P236393  26.815   7.998   9.277  0.1866  0.3421 -0.1121
 6066DDP     C236394  26.550   8.095   9.596  0.0733  0.0196 -0.1581
 6066DDP     C336395  27.713   8.723   9.156  0.2888  0.0956  0.2076
 6066DDP     C436396  27.568   7.620   9.149  0.0582 -0.0088 -0.2331
 6067DDP     C136397  19.063  18.157   9.947  0.1788 -0.0061 -0.0427
 6067DDP     P136398  19.115  18.238   9.584 -0.1062 -0.1483  0.1002
 6067DDP     P236399  19.438  18.009  10.063 -0.2393  0.0622 -0.0085
 6067DDP     C236400  19.698  17.989  10.459  0.1919 -0.0729 -0.0589
 6067DDP     C336401  18.904  18.429   9.333 -0.2103 -0.2583  0.2447
 6067DDP     C436402  18.617  18.073  10.134  0.1510  0.2137 -0.2764
 6068DDP     C136403  12.122  22.820  24.313  0.2239  0.1710 -0.2261
 6068DDP     P136404  12.582  22.900  24.367 -0.1476 -0.0423 -0.1338
 6068DDP     P236405  12.023  22.745  23.960  0.2444  0.0011  0.0150
 6068DDP     C236406  12.134  22.838  23.649  0.3797  0.0199  0.2972
 6068DDP     C336407  12.672  23.315  24.306 -0.1216  0.2254  0.1556
 6068DDP     C436408  11.881  22.543  24.583  0.2726  0.1203  0.2845
 6069DDP     C136409   8.165   7.049   5.022 -0.1333  0.0359  0.1311
 6069DDP     P136410   7.899   7.291   5.243  0.0697 -0.1775 -0.0829
 6069DDP     P236411   7.983   6.624   4.844 -0.0922  0.0321  0.3031
 6069DDP     C236412   8.343   6.338   4.607 -0.0317 -0.2039 -0.0018
 6069DDP     C336413   7.525   7.517   5.036  0.0287  0.2587 -0.0717
 6069DDP     C436414   8.628   7.056   5.124  0.1195 -0.0643  0.1588
 6070DDP     C136415   7.910  21.218   5.938 -0.2499 -0.0889  0.0564
 6070DDP     P136416   7.611  21.003   5.826  0.2037  0.0406 -0.0037
 6070DDP     P236417   7.723  21.473   6.169 -0.0285 -0.0511 -0.2426
 6070DDP     C236418   7.393  21.779   6.244 -0.2620 -0.0447 -0.0129
 6070DDP     C336419   7.119  21.019   5.982 -0.1689  0.0180 -0.0562
 6070DDP     C436420   8.383  21.270   5.878 -0.1248 -0.0713  0.0802
 6071DDP     C136421  23.925   9.360   3.489  0.1502  0.4332 -0.1833
 6071DDP     P136422  24.337   9.246   3.456 -0.0675 -0.2117  0.0684
 6071DDP     P236423  23.751   9.581   3.864 -0.2182 -0.1687 -0.0321
 6071DDP     C236424  23.410   9.709   4.016  0.1576 -0.1370  0.2359
 6071DDP     C336425  24.426   8.934   3.695 -0.0582 -0.3280 -0.0838
 6071DDP     C436426  23.706   9.355   3.056  0.1398 -0.0784 -0.0929
 6072DDP     C136427   1.338  19.449  22.867  0.0562 -0.1333  0.1261
 6072DDP     P136428   1.320  19.051  23.023  0.2051 -0.0578 -0.0214
 6072DDP     P236429   0.969  19.725  23.012  0.1301 -0.0066 -0.2030
 6072DDP     C236430   0.843  20.266  22.925 -0.2188 -0.0986 -0.0289
 6072DDP     C336431   1.112  18.714  23.102 -0.1002  0.0474  0.1044
 6072DDP     C436432   1.692  19.663  22.625 -0.1812  0.1967  0.0295
 6073DDP     C136433  14.318  30.194   7.352 -0.1226 -0.3296 -0.0716
 6073DDP     P136434  14.104  29.801   7.258  0.1182 -0.0261 -0.1582
 6073DDP     P236435  14.594  30.239   6.993  0.0950 -0.2152  0.0794
 6073DDP     C236436  14.840   0.140   6.764  0.1699  0.1284  0.1300
 6073DDP     C336437  13.981  29.462   7.489  0.1047  0.0811  0.1276
 6073DDP     C436438  14.027   0.103   7.610 -0.0261 -0.0267  0.2930
 6074DDP     C136439   1.840  13.817  21.455  0.0902 -0.0815 -0.1629
 6074DDP     P136440   2.176  14.110  21.370  0.0439 -0.3364  0.0462
 6074DDP     P236441   1.998  13.748  21.811 -0.3269  0.2861  0.1383
 6074DDP     C236442   2.256  13.440  22.026 -0.1631  0.0384  0.1841
 6074DDP     C336443   2.309  14.466  21.370  0.2140  0.1535  0.0270
 6074DDP     C436444   1.551  13.626  21.212 -0.3717  0.0619  0.0242
 6075DDP     C136445   6.402   9.228  22.962  0.2540  0.2739 -0.1873
 6075DDP     P136446   6.617   9.078  23.289  0.4496 -0.2146 -0.0908
 6075DDP     P236447   6.031   9.252  23.092  0.1200  0.0725  0.0404
 6075DDP     C236448   5.794   9.281  23.379  0.0566 -0.1828 -0.0335
 6075DDP     C336449   6.639   8.637  23.445 -0.0351 -0.0555 -0.1791
 6075DDP     C436450   6.592   9.221  22.569  0.1371 -0.0305  0.1541
 6076DDP     C136451  15.505  29.182  12.206  0.0066 -0.2461  0.0533
 6076DDP     P136452  15.292  29.525  12.350  0.1422  0.1480 -0.2013
 6076DDP     P236453  15.686  28.877  12.399  0.0109  0.1814 -0.1042
 6076DDP     C236454  15.626  28.625  12.863 -0.0789 -0.0623  0.2866
 6076DDP     C336455  14.909  29.753  12.458 -0.0280  0.1689  0.2691
 6076DDP     C436456  15.335  29.064  11.761  0.1594 -0.1418 -0.2766
 6077DDP     C136457  11.283  27.774  18.011 -0.1503  0.2686 -0.2236
 6077DDP     P136458  11.556  27.996  18.337  0.1156  0.1573 -0.4665
 6077DDP     P236459  11.414  27.678  17.657 -0.1134  0.0715 -0.3798
 6077DDP     C236460  11.712  27.892  17.336 -0.2469  0.0102 -0.0214
 6077DDP     C336461  11.544  28.297  18.650 -0.0472  0.0852 -0.2919
 6077DDP     C436462  10.859  27.766  18.043  0.0312 -0.0500  0.1618
 6078DDP     C136463  27.787   4.513   5.286 -0.0134 -0.0141  0.1047
 6078DDP     P136464  27.892   4.894   4.985  0.1716 -0.0392 -0.3010
 6078DDP     P236465  28.105   4.274   5.594  0.1019 -0.1741 -0.1101
 6078DDP     C236466  28.279   3.822   5.716  0.1794  0.1712 -0.1250
 6078DDP     C336467  27.636   5.160   4.726  0.0323 -0.2053 -0.1189
 6078DDP     C436468  27.417   4.457   5.496 -0.0282  0.2926 -0.0610
 6079DDP     C136469   8.070  25.192   1.743  0.2374 -0.3347 -0.0780
 6079DDP     P136470   8.125  24.715   1.928  0.1048  0.1888  0.1746
 6079DDP     P236471   7.863  25.412   1.502  0.0317  0.0179  0.0389
 6079DDP     C236472   8.088  25.456   1.074  0.0166 -0.1374 -0.2271
 6079DDP     C336473   8.327  24.369   1.864  0.5410 -0.2196  0.2157
 6079DDP     C436474   8.291  25.463   1.896 -0.1035  0.3045 -0.2482
 6080DDP     C136475   1.111   9.362  17.944 -0.0737  0.0937 -0.2389
 6080DDP     P136476   0.713   9.444  18.007 -0.0783 -0.3093 -0.0166
 6080DDP     P236477   1.147   8.956  17.922 -0.2655 -0.1012  0.0860
 6080DDP     C236478   0.811   8.908  18.198 -0.0282  0.2880  0.0145
 6080DDP     C336479   0.487   9.653  18.404 -0.1854  0.4163  0.3160
 6080DDP     C436480   1.449   9.556  17.567  0.1514  0.2039 -0.2228
 6081DDP     C136481  18.252  20.141  10.374  0.0782 -0.0463  0.1108
 6081DDP     P136482  18.209  19.870  10.658  0.2429 -0.0396 -0.3507
 6081DDP     P236483  18.632  20.059  10.080 -0.0149  0.1288 -0.4150
 6081DDP     C236484  19.027  19.692  10.042  0.0036  0.1603 -0.0431
 6081DDP     C336485  18.128  19.852  11.085 -0.2593 -0.1712  0.1258
 6081DDP     C436486  18.012  20.529  10.324 -0.2587  0.3446  0.1964
 6082DDP     C136487  18.737   2.416  21.855 -0.0787  0.4295 -0.0612
 6082DDP     P136488  18.619   2.787  22.037  0.1301  0.1009  0.1344
 6082DDP     P236489  18.516   2.474  21.405  0.0585 -0.0722 -0.3529
 6082DDP     C236490  18.362   2.237  21.028  0.3066 -0.1014 -0.0321
 6082DDP     C336491  18.330   3.122  22.147  0.0856 -0.0657  0.0138
 6082DDP     C436492  19.046   2.025  21.927  0.0696  0.0131  0.0487
 6083DDP     C136493  16.546  26.681   0.821 -0.0029 -0.1863 -0.0240
 6083DDP     P136494  16.549  26.815   1.388  0.3011 -0.0392  0.1370
 6083DDP     P236495  16.282  26.966   0.558 -0.3065  0.2457 -0.0129
 6083DDP     C236496  15.848  27.140   0.470 -0.1587 -0.0048 -0.1072
 6083DDP     C336497  16.733  27.151   1.530 -0.1633 -0.1921 -0.4337
 6083DDP     C436498  16.863  26.431   0.575 -0.0103  0.0471  0.0056
 6084DDP     C136499  27.648  15.148  25.808 -0.0081  0.0443  0.1663
 6084DDP     P136500  28.069  15.081  25.994 -0.1718  0.1570  0.0676
 6084DDP     P236501  27.650  15.633  25.867 -0.0860 -0.3086  0.0287
 6084DDP     C236502  27.704  15.819  26.208 -0.0129 -0.0591  0.0519
 6084DDP     C336503  28.565  15.126  26.103  0.3162  0.1787  0.3099
 6084DDP     C436504  27.317  14.990  25.521  0.0865 -0.2119  0.0126
 6085DDP     C136505  14.635   4.879  20.916  0.1559 -0.1673 -0.0668
 6085DDP     P136506  14.596   5.005  21.420  0.1340  0.3325 -0.1668
 6085DDP     P236507  14.372   4.549  20.634 -0.1190 -0.1821 -0.2384
 6085DDP     C236508  14.216   4.177  20.394  0.0920 -0.0932  0.0494
 6085DDP     C336509  14.333   5.069  21.830  0.0864  0.1270  0.2925
 6085DDP     C436510  14.720   5.257  20.704 -0.3260 -0.0247 -0.1609
 6086DDP     C136511  23.143   7.344  19.896  0.0518  0.1008  0.0848
 6086DDP     P136512  23.014   7.557  19.565  0.1095  0.0810  0.3163
 6086DDP     P236513  23.416   6.948  19.800 -0.0610  0.1243 -0.1988
 6086DDP     C236514  23.797   6.851  20.044 -0.1716  0.3040 -0.1535
 6086DDP     C336515  22.654   7.587  19.322  0.0666  0.3982 -0.1677
 6086DDP     C436516  22.832   7.381  20.203  0.4295  0.0058  0.3600
 6087DDP     C136517  13.346   2.588  17.083  0.3442 -0.2238  0.2263
 6087DDP     P136518  13.249   2.391  17.459  0.0445 -0.2165  0.0990
 6087DDP     P236519  13.661   2.904  17.036  0.0295  0.0760 -0.0182
 6087DDP     C236520  14.089   3.077  16.957 -0.0799  0.1158  0.1598
 6087DDP     C336521  13.049   2.303  17.814  0.1920 -0.2795  0.0258
 6087DDP     C436522  12.958   2.519  16.900  0.1602  0.2136  0.2365
 6088DDP     C136523  24.014  26.367   4.100  0.2311 -0.0831 -0.1424
 6088DDP     P136524  23.668  26.689   4.320 -0.2296 -0.0315 -0.1517
 6088DDP     P236525  24.214  26.134   4.349 -0.3596 -0.0498 -0.1755
 6088DDP     C236526  24.183  25.854   4.691 -0.1578 -0.3013  0.0645
 6088DDP     C336527  23.422  26.961   4.402  0.0974  0.1828  0.0510
 6088DDP     C436528  24.024  26.581   3.672  0.1978  0.0110 -0.3021
 6089DDP     C136529  15.964  25.686   4.418 -0.1126 -0.0158  0.0707
 6089DDP     P136530  16.120  26.070   4.618 -0.1583 -0.0091  0.1249
 6089DDP     P236531  15.795  25.636   3.947  0.2187  0.0490 -0.0970
 6089DDP     C236532  15.876  25.687   3.516 -0.0659 -0.1401  0.0288
 6089DDP     C336533  15.864  26.463   4.766  0.2606  0.1182  0.1403
 6089DDP     C436534  15.782  25.372   4.678 -0.0060  0.2831  0.0288
 6090DDP     C136535  29.987  26.489   0.451 -0.0284  0.0560 -0.3044
 6090DDP     P136536   0.043  26.153   0.675 -0.1885 -0.2768 -0.3756
 6090DDP     P236537  29.683  26.384   0.154  0.1543  0.2867 -0.1496
 6090DDP     C236538  29.320  26.174  30.298 -0.0446  0.0985  0.0067
 6090DDP     C336539   0.354  25.916   0.912  0.2213 -0.0857 -0.1628
 6090DDP     C436540  29.905  26.906   0.505  0.0794 -0.2418 -0.0878
 6091DDP     C136541  18.123  16.777   7.527 -0.1635 -0.1648 -0.1965
 6091DDP     P136542  18.085  16.774   7.971  0.0556  0.0560  0.0593
 6091DDP     P236543  17.989  17.214   7.458  0.0697  0.1635  0.1985
 6091DDP     C236544  17.583  17.386   7.546  0.1422 -0.2521 -0.1681
 6091DDP     C336545  17.998  16.776   8.445  0.1074  0.0834 -0.0667
 6091DDP     C436546  18.245  16.370   7.343 -0.4747  0.2526  0.2814
 6092DDP     C136547   8.009  12.510   4.235  0.3333  0.0957  0.0521
 6092DDP     P136548   7.854  12.748   4.048  0.1067  0.0076  0.2628
 6092DDP     P236549   8.355  12.474   3.962 -0.0514  0.1129  0.1732
 6092DDP     C236550   8.529  12.565   3.484  0.0116  0.2827  0.2104
 6092DDP     C336551   7.757  13.098   3.747  0.0091 -0.0562  0.1165
 6092DDP     C436552   7.982  12.414   4.622 -0.0075  0.4472  0.3548
 6093DDP     C136553   7.893   7.050   6.238  0.0127 -0.1825  0.0116
 6093DDP     P136554   8.201   6.914   6.075  0.1582 -0.2176 -0.0910
 6093DDP     P236555   7.660   7.326   6.049  0.2438 -0.1488  0.1892
 6093DDP     C236556   7.191   7.298   5.991  0.0482 -0.1025  0.0855
 6093DDP     C336557   8.457   6.662   5.827 -0.0179 -0.0984  0.2444
 6093DDP     C436558   7.565   6.826   6.487 -0.1716  0.0513 -0.2163
 6094DDP     C136559   1.983  16.980   9.261  0.3549  0.0593 -0.1223
 6094DDP     P136560   1.894  17.366   9.146 -0.1652  0.1597 -0.0214
 6094DDP     P236561   2.295  16.889   9.564 -0.2301 -0.0068  0.0528
 6094DDP     C236562   2.322  17.011   9.939 -0.1267  0.1617 -0.0713
 6094DDP     C336563   2.050  17.697   9.319 -0.2099 -0.3813 -0.2814
 6094DDP     C436564   1.849  16.631   9.034  0.2653  0.2472  0.0084
 6095DDP     C136565   3.752   6.872  16.144 -0.0426  0.2559  0.1029
 6095DDP     P136566   3.752   6.922  16.603  0.1742 -0.3458 -0.1929
 6095DDP     P236567   3.933   7.102  15.738 -0.1520 -0.0533 -0.0219
 6095DDP     C236568   3.812   7.479  15.563 -0.2822 -0.2062  0.2495
 6095DDP     C336569   3.836   6.665  16.981 -0.2326 -0.1225  0.2039
 6095DDP     C436570   3.699   6.414  15.999 -0.1484  0.2468 -0.1041
 6096DDP     C136571   4.444   6.569   3.482  0.1322  0.0125  0.1699
 6096DDP     P136572   4.821   6.428   3.274 -0.0780 -0.1070 -0.0417
 6096DDP     P236573   4.390   6.460   3.833 -0.2184 -0.1447 -0.0654
 6096DDP     C236574   4.343   6.495   4.202 -0.0403 -0.0880 -0.1059
 6096DDP     C336575   5.026   6.191   3.032  0.0818 -0.1162  0.6007
 6096DDP     C436576   4.175   6.947   3.549  0.1219 -0.0987 -0.2572
 6097DDP     C136577  13.065  22.528   2.142  0.0699  0.0710  0.0998
 6097DDP     P136578  13.435  22.692   2.227 -0.1043 -0.1646 -0.0022
 6097DDP     P236579  13.051  22.185   2.310 -0.0443 -0.1259 -0.2741
 6097DDP     C236580  12.712  21.916   2.434 -0.1254 -0.1325 -0.2172
 6097DDP     C336581  13.870  22.638   1.985 -0.1103  0.0101 -0.2522
 6097DDP     C436582  12.653  22.701   2.049  0.2429  0.0561 -0.0353
 6098DDP     C136583   5.857  26.976  26.487 -0.1667  0.1865 -0.2423
 6098DDP     P136584   5.960  27.176  26.882 -0.2614 -0.0876 -0.0056
 6098DDP     P236585   6.143  26.657  26.427 -0.0611  0.1791 -0.0892
 6098DDP     C236586   6.579  26.549  26.514 -0.0694 -0.0254  0.3173
 6098DDP     C336587   5.712  27.103  27.211 -0.0589  0.1292  0.1639
 6098DDP     C436588   5.633  27.114  26.294  0.0686  0.2020  0.1314
 6099DDP     C136589  27.347  19.996  28.091  0.2067  0.2501 -0.2176
 6099DDP     P136590  26.950  19.832  28.293  0.0439 -0.0221 -0.2957
 6099DDP     P236591  27.645  20.326  28.284  0.0917 -0.1821 -0.2436
 6099DDP     C236592  27.555  20.639  28.654  0.2204  0.1268 -0.1611
 6099DDP     C336593  26.586  19.767  28.100  0.2118  0.1990 -0.0916
 6099DDP     C436594  27.534  19.886  27.811  0.0868 -0.1353 -0.0208
 6100DDP     C136595  23.653  18.147   2.724 -0.0486  0.0230  0.0724
 6100DDP     P136596  23.964  17.943   2.854  0.1171  0.3542 -0.2221
 6100DDP     P236597  23.305  17.921   2.634 -0.2518 -0.1964  0.0166
 6100DDP     C236598  22.902  18.045   2.346  0.2177 -0.1483 -0.2847
 6100DDP     C336599  24.402  17.698   2.955 -0.0261  0.0768 -0.0799
 6100DDP     C436600  23.816  18.475   2.444  0.0889  0.1367 -0.0859
 6101DDP     C136601   6.207   9.344  30.013  0.1225  0.0107 -0.1553
 6101DDP     P136602   6.457   9.739  29.903  0.0016  0.0066  0.1078
 6101DDP     P236603   6.032   9.094   0.038 -0.1519  0.2475 -0.2170
 6101DDP     C236604   6.309   8.798   0.407  0.1326  0.0806 -0.0743
 6101DDP     C336605   6.804   9.842  29.646  0.1341 -0.1209  0.3268
 6101DDP     C436606   5.789   9.327  29.764  0.2367  0.1142 -0.0613
 6102DDP     C136607  15.076  20.804   3.102  0.2640  0.2562  0.2163
 6102DDP     P136608  15.360  20.443   3.124  0.2501  0.1827 -0.1155
 6102DDP     P236609  14.636  20.836   3.024 -0.1394 -0.4296 -0.4345
 6102DDP     C236610  14.442  20.781   2.732 -0.1841 -0.0068  0.1807
 6102DDP     C336611  15.395  20.105   2.863  0.1033 -0.2407 -0.0552
 6102DDP     C436612  15.447  21.020   3.045  0.0953 -0.0760 -0.0661
 6103DDP     C136613   5.184  15.640  16.083  0.1860 -0.2561  0.2037
 6103DDP     P136614   5.358  16.045  16.330  0.0170 -0.1126  0.0892
 6103DDP     P236615   5.348  15.284  16.255  0.0817 -0.0433  0.0907
 6103DDP     C236616   5.443  14.897  16.067  0.2296  0.0954  0.0942
 6103DDP     C336617   5.440  16.464  16.339  0.2650  0.0298 -0.0257
 6103DDP     C436618   5.241  15.646  15.685 -0.0920 -0.1467  0.1147
 6104DDP     C136619  19.245  11.118  12.474  0.0730 -0.2688  0.0555
 6104DDP     P136620  19.412  11.364  12.916  0.0476 -0.0856  0.0395
 6104DDP     P236621  19.048  10.835  12.557 -0.2608 -0.1163  0.1900
 6104DDP     C236622  18.648  10.727  12.708 -0.1691  0.0731  0.1471
 6104DDP     C336623  19.758  11.217  13.235 -0.1431 -0.3999  0.0542
 6104DDP     C436624  19.226  11.520  12.089  0.1383 -0.0297 -0.3682
 6105DDP     C136625   1.632  22.983   0.108  0.0687 -0.0566  0.1033
 6105DDP     P136626   1.319  22.866  30.086  0.0723  0.4109 -0.2029
 6105DDP     P236627   1.476  23.250   0.267 -0.1674  0.0424  0.0824
 6105DDP     C236628   1.152  23.157   0.566  0.1910 -0.1266 -0.1162
 6105DDP     C336629   1.303  22.944  29.676 -0.0674 -0.1515  0.3122
 6105DDP     C436630   1.765  22.524   0.174 -0.1583 -0.3913  0.2279
 6106DDP     C136631  17.325  20.152   6.517 -0.1416 -0.3043 -0.0079
 6106DDP     P136632  16.925  20.384   6.525 -0.3235  0.0208 -0.1103
 6106DDP     P236633  17.539  19.991   6.745 -0.2418 -0.1402 -0.0211
 6106DDP     C236634  17.890  19.768   6.801  0.1453  0.1104 -0.0220
 6106DDP     C336635  16.741  20.865   6.476  0.0151 -0.0328 -0.1876
 6106DDP     C436636  17.559  20.115   6.067  0.3681  0.3254 -0.0362
 6107DDP     C136637  11.138  23.307   0.541 -0.2373 -0.3724  0.1533
 6107DDP     P136638  11.028  23.549   0.804 -0.3383 -0.0801  0.5127
 6107DDP     P236639  11.126  23.531   0.179  0.2827 -0.2959 -0.0606
 6107DDP     C236640  11.369  23.511  30.087 -0.0468 -0.1928 -0.3157
 6107DDP     C336641  11.149  23.661   1.266 -0.2222 -0.0618  0.0642
 6107DDP     C436642  11.192  22.860   0.695 -0.1568 -0.0329  0.1755
 6108DDP     C136643  14.168   3.362  21.295  0.2761  0.3821  0.0168
 6108DDP     P136644  14.395   3.436  21.011 -0.1348  0.2113  0.0966
 6108DDP     P236645  13.926   3.623  21.382  0.0752  0.3760  0.0036
 6108DDP     C236646  13.491   3.840  21.417  0.1679 -0.1659 -0.2189
 6108DDP     C336647  14.819   3.427  20.859 -0.0878 -0.0878  0.0702
 6108DDP     C436648  13.811   2.923  21.264 -0.0364  0.1034  0.0944
 6109DDP     C136649   3.589  13.214  27.687  0.2416  0.2330  0.0201
 6109DDP     P136650   3.332  13.194  28.098 -0.0717  0.1854 -0.0829
 6109DDP     P236651   3.675  12.987  27.345 -0.1396 -0.1823  0.0017
 6109DDP     C236652   3.787  12.797  27.129 -0.0982  0.2575 -0.0455
 6109DDP     C336653   2.955  12.986  28.176  0.2181  0.3149  0.0681
 6109DDP     C436654   3.713  13.672  27.542  0.2246  0.2879 -0.0595
 6110DDP     C136655  23.692   6.404  10.311  0.0043  0.0484 -0.1967
 6110DDP     P136656  23.471   6.543  10.717  0.2115 -0.0545  0.0213
 6110DDP     P236657  24.096   6.391  10.343  0.2155 -0.3304  0.0870
 6110DDP     C236658  24.310   6.528  10.659  0.1479  0.1368 -0.1008
 6110DDP     C336659  23.058   6.195  10.817  0.0995  0.1850 -0.1537
 6110DDP     C436660  23.437   6.452   9.914  0.0172  0.1277  0.0074
 6111DDP     C136661  26.657  24.879   8.882  0.1281 -0.0195  0.0651
 6111DDP     P136662  26.202  24.734   8.833  0.1509 -0.4504  0.0586
 6111DDP     P236663  26.747  25.307   8.901 -0.0004  0.2636 -0.3144
 6111DDP     C236664  26.747  25.738   8.680  0.3069 -0.0150  0.1062
 6111DDP     C336665  25.859  24.930   8.885 -0.0280 -0.1681  0.5375
 6111DDP     C436666  27.035  24.663   8.608  0.0026  0.1097  0.1720
 6112DDP     C136667  16.401  25.829  11.689  0.1775  0.1495  0.1270
 6112DDP     P136668  16.682  25.461  11.413 -0.0747  0.2307 -0.4336
 6112DDP     P236669  16.086  26.089  11.539 -0.0648  0.0328 -0.2866
 6112DDP     C236670  15.745  26.185  11.320  0.1389  0.3078 -0.0658
 6112DDP     C336671  17.107  25.215  11.374 -0.1850 -0.0613 -0.0541
 6112DDP     C436672  16.598  25.964  12.124  0.1597  0.0934  0.0477
 6113DDP     C136673   5.648  16.812  12.370 -0.3381 -0.1747  0.3343
 6113DDP     P136674   5.349  16.634  12.210  0.3276 -0.2337 -0.0451
 6113DDP     P236675   5.972  16.959  12.053  0.1384  0.1275  0.0950
 6113DDP     C236676   6.341  16.631  12.176  0.2779  0.2436 -0.0325
 6113DDP     C336677   5.090  16.683  11.770  0.1353 -0.0873  0.1131
 6113DDP     C436678   5.665  16.961  12.797  0.0550  0.1595 -0.1664
 6114DDP     C136679  20.628   2.688  19.711 -0.0140  0.0087  0.1478
 6114DDP     P136680  20.787   2.326  19.567 -0.1146  0.0332  0.1174
 6114DDP     P236681  20.322   2.760  19.933 -0.1626 -0.0609 -0.0656
 6114DDP     C236682  20.215   3.061  20.262 -0.0924 -0.2401  0.0518
 6114DDP     C336683  20.890   1.969  19.847  0.0139 -0.0319  0.0253
 6114DDP     C436684  21.010   2.843  19.739  0.1310 -0.2867 -0.2332
 6115DDP     C136685  12.663  16.722  16.322 -0.0870  0.3725 -0.2902
 6115DDP     P136686  12.610  16.957  16.670 -0.0689 -0.1457  0.0654
 6115DDP     P236687  12.593  16.316  16.524 -0.0227  0.3725  0.6195
 6115DDP     C236688  12.322  15.859  16.525  0.2935 -0.1984 -0.1445
 6115DDP     C336689  12.192  17.156  16.701 -0.2117  0.1117 -0.2320
 6115DDP     C436690  13.027  16.707  16.012 -0.1639  0.0104 -0.0616
 6116DDP     C136691  16.659   5.915   0.394 -0.0616  0.0452 -0.0733
 6116DDP     P136692  16.471   5.498   0.327  0.0052 -0.0784 -0.1230
 6116DDP     P236693  16.395   6.134   0.565  0.1227  0.0425  0.0599
 6116DDP     C236694  16.120   6.236   0.763 -0.0950 -0.1448  0.0611
 6116DDP     C336695  16.262   5.208   0.511 -0.1398 -0.0824  0.1439
 6116DDP     C436696  17.140   5.956   0.544 -0.0786  0.2207  0.2328
 6117DDP     C136697   5.365  17.580  16.958 -0.0851 -0.1128  0.1057
 6117DDP     P136698   5.344  17.457  16.557  0.0692 -0.1295  0.1778
 6117DDP     P236699   5.037  17.614  17.150 -0.1185  0.0332 -0.4647
 6117DDP     C236700   4.608  17.838  17.071  0.1068 -0.1729  0.0846
 6117DDP     C336701   5.150  17.574  16.126  0.2418  0.1166 -0.0835
 6117DDP     C436702   5.835  17.350  17.068  0.0146 -0.3284 -0.0999
 6118DDP     C136703  11.878  25.328   0.732  0.0309  0.0166  0.0713
 6118DDP     P136704  11.962  25.695   0.554 -0.0758  0.1494 -0.0426
 6118DDP     P236705  12.221  25.193   0.866 -0.1942  0.2592  0.1712
 6118DDP     C236706  12.627  25.175   0.770  0.2438  0.1553  0.0939
 6118DDP     C336707  11.810  26.096   0.714 -0.0311 -0.1373  0.0759
 6118DDP     C436708  11.433  25.219   0.773  0.1960  0.0350 -0.1735
 6119DDP     C136709  24.322  22.027  13.750  0.1162  0.1835  0.1965
 6119DDP     P136710  23.965  21.757  13.581 -0.0286  0.1837 -0.0868
 6119DDP     P236711  24.437  22.305  13.449  0.0785 -0.3702  0.1923
 6119DDP     C236712  24.462  22.504  13.001 -0.4162 -0.0246 -0.0947
 6119DDP     C336713  24.008  21.403  13.329  0.0022 -0.0179  0.0613
 6119DDP     C436714  24.564  21.821  14.059 -0.1258  0.0480 -0.5195
 6120DDP     C136715  17.569  12.710  22.447 -0.1091 -0.0315  0.0663
 6120DDP     P136716  17.918  12.894  22.650 -0.1218  0.2529 -0.0030
 6120DDP     P236717  17.246  12.571  22.554 -0.0457  0.0206  0.0125
 6120DDP     C236718  16.772  12.489  22.689 -0.2932 -0.1161 -0.2591
 6120DDP     C336719  17.918  13.057  23.037 -0.2518 -0.0345 -0.0077
 6120DDP     C436720  17.544  12.629  21.909 -0.0283  0.2668 -0.1361
 6121DDP     C136721  22.747  12.576  22.553  0.1942  0.1543  0.0786
 6121DDP     P136722  22.588  12.799  22.745  0.1720 -0.0310 -0.1423
 6121DDP     P236723  22.671  12.164  22.672  0.2169 -0.1328 -0.1454
 6121DDP     C236724  22.452  11.799  22.762  0.0977  0.0493  0.0870
 6121DDP     C336725  22.117  12.715  22.914  0.0223 -0.0572 -0.0589
 6121DDP     C436726  22.782  12.849  22.141  0.2386 -0.1855 -0.1044
 6122DDP     C136727  19.587  18.618  29.358  0.0622  0.0587  0.0233
 6122DDP     P136728  19.641  18.905  29.707 -0.1777  0.0555  0.1559
 6122DDP     P236729  19.318  18.374  29.251 -0.1141  0.1911  0.0104
 6122DDP     C236730  19.039  18.090  29.209 -0.1862  0.3764  0.1036
 6122DDP     C336731  19.877  19.202  29.763  0.4898 -0.0723  0.1037
 6122DDP     C436732  19.969  18.500  29.232 -0.3889 -0.0713  0.0298
 6123DDP     C136733   7.728  17.944   7.526 -0.0334 -0.1396 -0.1683
 6123DDP     P136734   8.041  17.630   7.623 -0.1245  0.0741 -0.0812
 6123DDP     P236735   7.334  18.028   7.686 -0.0236 -0.0188 -0.2878
 6123DDP     C236736   7.035  17.719   7.847  0.1645 -0.1738 -0.1740
 6123DDP     C336737   8.613  17.662   7.631  0.1902  0.0449  0.3245
 6123DDP     C436738   7.780  18.239   7.300  0.0212  0.3677 -0.2188
 6124DDP     C136739  28.569  11.001  18.527 -0.1739  0.3714 -0.2750
 6124DDP     P136740  28.401  10.872  18.854 -0.2771  0.0750  0.0246
 6124DDP     P236741  28.559  10.737  18.172 -0.1511  0.0321  0.1048
 6124DDP     C236742  28.222  10.585  17.852 -0.2804 -0.4662  0.0555
 6124DDP     C336743  28.133  10.583  18.871 -0.0865 -0.1227 -0.0807
 6124DDP     C436744  28.941  11.210  18.578  0.1824  0.1473 -0.0395
 6125DDP     C136745   0.119  22.585  11.303 -0.0518 -0.0532 -0.0224
 6125DDP     P136746   0.490  22.414  11.403 -0.1322  0.0217  0.0340
 6125DDP     P236747  30.162  22.867  11.491 -0.1934 -0.0007 -0.0328
 6125DDP     C236748  30.017  23.235  11.328  0.0208 -0.0342 -0.0011
 6125DDP     C336749   0.937  22.255  11.321  0.1374 -0.0269 -0.0092
 6125DDP     C436750  30.158  22.520  11.033  0.1338  0.1506  0.0260
 6126DDP     C136751  15.602   1.637  21.168  0.2348  0.0726 -0.2182
 6126DDP     P136752  15.113   1.582  21.155  0.1361 -0.0223  0.2347
 6126DDP     P236753  15.639   2.100  21.111 -0.1419 -0.2066 -0.0449
 6126DDP     C236754  15.372   2.477  20.891 -0.0958  0.1485  0.0905
 6126DDP     C336755  14.661   1.543  21.125  0.1448  0.0090  0.3062
 6126DDP     C436756  15.656   1.164  21.272  0.1755 -0.0817 -0.0229
 6127DDP     C136757  27.844  23.447  17.538  0.1312  0.0229 -0.0784
 6127DDP     P136758  28.060  23.338  18.010 -0.0269  0.1146 -0.1568
 6127DDP     P236759  27.778  23.872  17.547  0.0632  0.0542 -0.3384
 6127DDP     C236760  27.589  24.274  17.391 -0.1144 -0.2518 -0.4000
 6127DDP     C336761  28.417  23.476  18.158  0.0749  0.1319  0.1835
 6127DDP     C436762  27.885  23.209  17.142  0.0310 -0.2628 -0.0340
 6128DDP     C136763  10.603   4.202  11.943 -0.2065  0.0396 -0.3130
 6128DDP     P136764  10.569   4.600  11.744  0.0163  0.2131  0.2737
 6128DDP     P236765  11.109   4.095  11.852 -0.2444 -0.2536 -0.2148
 6128DDP     C236766  11.465   3.930  12.065  0.2356 -0.0271  0.0298
 6128DDP     C336767  10.494   4.913  12.018 -0.1011 -0.0449 -0.2988
 6128DDP     C436768  10.237   3.963  12.119 -0.0781  0.1706 -0.2310
 6129DDP     C136769  27.120  18.430   7.642 -0.4908  0.0701 -0.0984
 6129DDP     P136770  27.323  18.748   7.476 -0.0961 -0.0374  0.0303
 6129DDP     P236771  26.859  18.096   7.529 -0.3843  0.0224  0.1442
 6129DDP     C236772  26.618  17.798   7.379 -0.1322  0.1656 -0.1270
 6129DDP     C336773  27.604  19.100   7.643 -0.0266 -0.2161 -0.0381
 6129DDP     C436774  27.214  18.331   7.986  0.0394  0.3593  0.0209
 6130DDP     C136775   0.453  19.717  18.595  0.2091 -0.3140  0.2572
 6130DDP     P136776   0.369  19.346  18.536 -0.0717  0.0211  0.0153
 6130DDP     P236777   0.227  19.866  18.992  0.1699  0.0211 -0.1419
 6130DDP     C236778   0.400  20.050  19.448  0.2135 -0.1623  0.3210
 6130DDP     C336779  -0.013  19.232  18.259 -0.1221 -0.0242  0.1023
 6130DDP     C436780   0.589  19.936  18.255 -0.1533 -0.0751 -0.0500
 6131DDP     C136781  21.003  18.669  23.570  0.1481 -0.1802 -0.1031
 6131DDP     P136782  20.976  18.218  23.768  0.2575  0.2795 -0.1405
 6131DDP     P236783  21.429  18.726  23.293  0.1759  0.1217 -0.0443
 6131DDP     C236784  21.275  18.887  22.886 -0.2721 -0.0383  0.2934
 6131DDP     C336785  21.018  17.982  24.065  0.2717 -0.0849 -0.2076
 6131DDP     C436786  20.738  18.900  23.692 -0.0631 -0.0071  0.2439
 6132DDP     C136787  13.561  21.903  28.552 -0.1550  0.0466  0.2113
 6132DDP     P136788  13.639  21.767  28.963  0.1116  0.2486  0.0944
 6132DDP     P236789  13.963  22.027  28.387  0.1838  0.2615  0.0740
 6132DDP     C236790  14.006  22.087  27.916  0.1087  0.1134  0.1909
 6132DDP     C336791  13.955  21.919  29.228 -0.0482 -0.0301 -0.1282
 6132DDP     C436792  13.330  21.869  28.234 -0.0470  0.1068  0.0091
 6133DDP     C136793  26.867   9.937  10.079 -0.1392 -0.0363  0.0578
 6133DDP     P136794  26.576  10.412  10.048 -0.0164  0.1985 -0.0184
 6133DDP     P236795  27.407   9.918  10.279 -0.0821  0.3605 -0.0437
 6133DDP     C236796  27.654  10.251  10.389  0.3019 -0.0459 -0.2622
 6133DDP     C336797  26.178  10.460  10.117  0.2395  0.2235  0.1373
 6133DDP     C436798  26.689   9.545  10.056 -0.0084 -0.0902 -0.2055
 6134DDP     C136799  28.235   3.978  28.407  0.2184 -0.1046  0.3560
 6134DDP     P136800  27.875   3.850  28.598  0.1697 -0.3060 -0.0142
 6134DDP     P236801  28.261   3.810  27.969 -0.1027 -0.0239 -0.0978
 6134DDP     C236802  28.437   3.395  27.861 -0.3036  0.1256  0.2487
 6134DDP     C336803  27.595   3.758  28.861  0.1028  0.3120 -0.1057
 6134DDP     C436804  28.606   4.288  28.412  0.2140  0.1872  0.1113
 6135DDP     C136805   9.930   6.845  25.006 -0.0493  0.0396 -0.1330
 6135DDP     P136806  10.415   6.770  25.092  0.0219  0.1223 -0.3804
 6135DDP     P236807   9.736   7.015  25.299 -0.1516  0.1198  0.0746
 6135DDP     C236808   9.442   7.307  25.510 -0.0017  0.0769  0.1790
 6135DDP     C336809  10.833   6.839  25.010 -0.0862  0.0380  0.1463
 6135DDP     C436810   9.838   6.811  24.670 -0.0448 -0.2110 -0.1547
 6136DDP     C136811  26.620   7.397  20.726  0.3272  0.1451 -0.0291
 6136DDP     P136812  26.202   7.369  20.445  0.0290  0.0104 -0.4522
 6136DDP     P236813  26.373   7.134  20.934 -0.1498 -0.1291  0.3851
 6136DDP     C236814  26.083   6.813  21.000 -0.1446 -0.1166 -0.0218
 6136DDP     C336815  26.025   7.336  20.073 -0.0921 -0.1558  0.2284
 6136DDP     C436816  26.989   7.622  20.760 -0.0778 -0.1095 -0.6277
 6137DDP     C136817  22.335  13.891  21.051 -0.1149  0.3385 -0.1766
 6137DDP     P136818  21.829  14.094  21.107 -0.3648 -0.0994  0.0598
 6137DDP     P236819  22.547  14.192  20.895 -0.2017  0.3616  0.0115
 6137DDP     C236820  22.584  14.452  20.529 -0.0672 -0.0505 -0.0180
 6137DDP     C336821  21.671  14.388  20.853  0.0751 -0.0911 -0.0248
 6137DDP     C436822  22.581  13.762  21.256  0.1973 -0.2418 -0.1404
 6138DDP     C136823  28.220  23.893  21.242 -0.0599 -0.0204 -0.0915
 6138DDP     P136824  28.434  23.604  21.567  0.4448  0.0100 -0.2070
 6138DDP     P236825  28.024  23.689  20.769 -0.1028 -0.0682  0.2035
 6138DDP     C236826  27.616  23.576  20.581  0.3202  0.0950 -0.0255
 6138DDP     C336827  28.894  23.381  21.666  0.1275 -0.0212  0.2311
 6138DDP     C436828  28.065  24.303  21.360 -0.0121 -0.0769 -0.1398
 6139DDP     C136829   6.686  14.427  30.087 -0.2291  0.0206  0.4107
 6139DDP     P136830   6.596  14.786  30.051  0.2841 -0.0162 -0.0682
 6139DDP     P236831   6.450  14.225  29.911 -0.1450 -0.0992  0.1946
 6139DDP     C236832   6.131  14.100  30.043 -0.0701  0.0959 -0.1949
 6139DDP     C336833   6.592  15.130  29.844  0.1988  0.1574  0.1471
 6139DDP     C436834   7.056  14.449   0.116 -0.1945 -0.0325 -0.0608
 6140DDP     C136835  14.645   3.036   0.608  0.0398 -0.2077  0.1948
 6140DDP     P136836  14.156   3.001   0.567  0.0175 -0.0242  0.1930
 6140DDP     P236837  15.013   3.317   0.740 -0.0285 -0.2519 -0.1248
 6140DDP     C236838  15.005   3.623   1.093 -0.1096  0.0311  0.0394
 6140DDP     C336839  13.874   2.658   0.784  0.1948 -0.1358  0.0400
 6140DDP     C436840  14.945   2.561   0.493 -0.1457 -0.1900  0.0256
 6141DDP     C136841  25.867  19.000   9.677  0.1141  0.2034 -0.2261
 6141DDP     P136842  25.651  18.598   9.586  0.1487 -0.3024  0.0808
 6141DDP     P236843  26.254  19.080   9.601  0.1444 -0.0116  0.1312
 6141DDP     C236844  26.685  19.015   9.429  0.0541  0.1788  0.3553
 6141DDP     C336845  25.844  18.183   9.612 -0.0250  0.0498 -0.0210
 6141DDP     C436846  25.727  19.389  10.040 -0.2829 -0.2265  0.1303
 6142DDP     C136847  11.622  11.826  17.546 -0.0185  0.0169  0.1067
 6142DDP     P136848  11.188  11.669  17.361 -0.1036 -0.0382  0.0999
 6142DDP     P236849  11.789  12.267  17.354 -0.0236  0.0812  0.1913
 6142DDP     C236850  11.726  12.640  17.112  0.0404 -0.0971  0.2000
 6142DDP     C336851  11.129  11.626  16.888  0.0343  0.1140 -0.2614
 6142DDP     C436852  11.861  11.658  17.888 -0.1827  0.3894  0.0794
 6143DDP     C136853  11.844  26.165  20.498  0.0420  0.0022 -0.1671
 6143DDP     P136854  11.751  25.862  20.144  0.2996 -0.0077 -0.1751
 6143DDP     P236855  11.702  26.583  20.473 -0.0897 -0.1490 -0.1042
 6143DDP     C236856  11.394  26.971  20.526  0.0072  0.0225  0.3744
 6143DDP     C336857  11.571  25.940  19.786 -0.2971  0.3514  0.0380
 6143DDP     C436858  12.225  26.273  20.717 -0.1536  0.1098  0.0275
 6144DDP     C136859  17.719  18.066  24.047 -0.2100  0.0977  0.1300
 6144DDP     P136860  18.109  17.830  24.028  0.0972 -0.1648 -0.3084
 6144DDP     P236861  17.797  18.468  24.131 -0.4270  0.4437 -0.2174
 6144DDP     C236862  18.180  18.721  24.285 -0.0009 -0.2822  0.4331
 6144DDP     C336863  18.411  17.585  24.052  0.1850  0.2980 -0.0677
 6144DDP     C436864  17.589  17.735  24.202 -0.0510  0.0382 -0.0553
 6145DDP     C136865  15.085  10.938   1.430  0.2421 -0.0415  0.4293
 6145DDP     P136866  15.370  10.948   1.088  0.2579 -0.2928  0.0320
 6145DDP     P236867  14.890  11.281   1.478  0.2370  0.5983 -0.0908
 6145DDP     C236868  14.942  11.708   1.516 -0.1444 -0.0246 -0.0551
 6145DDP     C336869  15.602  10.613   0.788  0.1204 -0.0683 -0.1358
 6145DDP     C436870  14.978  10.552   1.658  0.0948 -0.0476 -0.1079
 6146DDP     C136871  28.213  13.027  16.861  0.0526 -0.3297 -0.0237
 6146DDP     P136872  27.921  13.128  17.110 -0.1990  0.2942  0.1939
 6146DDP     P236873  28.575  12.860  17.017  0.3674  0.3867 -0.0817
 6146DDP     C236874  28.906  12.526  16.978  0.0112 -0.1278 -0.0803
 6146DDP     C336875  27.757  13.347  17.470  0.0494 -0.1918  0.1845
 6146DDP     C436876  28.152  13.193  16.468 -0.0903 -0.3244  0.0927
 6147DDP     C136877  16.413  11.303  29.347  0.1466  0.1029 -0.1518
 6147DDP     P136878  16.674  11.428  29.487  0.0503 -0.2794  0.3105
 6147DDP     P236879  16.405  11.036  28.995 -0.0793 -0.0935  0.0155
 6147DDP     C236880  16.127  10.772  28.849 -0.0903 -0.0952 -0.2139
 6147DDP     C336881  16.912  11.267  29.300 -0.2210 -0.4741  0.1863
 6147DDP     C436882  16.105  11.399  29.574 -0.0271  0.3441  0.0083
 6148DDP     C136883  23.112  17.082  22.680  0.0659  0.0796 -0.1408
 6148DDP     P136884  22.742  16.918  22.660  0.3111 -0.1832  0.1977
 6148DDP     P236885  23.219  17.095  22.315 -0.3938  0.0978 -0.1356
 6148DDP     C236886  22.894  17.072  21.947 -0.2802 -0.0601  0.0144
 6148DDP     C336887  22.484  16.869  22.308  0.0222  0.3277 -0.3551
 6148DDP     C436888  23.130  17.190  23.180 -0.2027 -0.2195 -0.2350
 6149DDP     C136889  16.595  14.075  16.930 -0.0217 -0.2478  0.1149
 6149DDP     P136890  16.593  13.813  16.570  0.2294 -0.2596 -0.2974
 6149DDP     P236891  16.221  14.290  17.117 -0.0564  0.0562 -0.0463
 6149DDP     C236892  15.744  14.364  17.286 -0.0183 -0.1096 -0.0842
 6149DDP     C336893  16.429  13.920  16.112  0.2190 -0.1043  0.1589
 6149DDP     C436894  17.053  14.121  17.093  0.2659  0.0758  0.0133
 6150DDP     C136895  26.907  25.719   7.666  0.1108  0.4770  0.1597
 6150DDP     P136896  26.981  25.277   7.832 -0.0490 -0.1646 -0.1461
 6150DDP     P236897  27.253  26.083   7.492  0.0390  0.1273 -0.2641
 6150DDP     C236898  27.280  26.461   7.722 -0.2567  0.0063 -0.3886
 6150DDP     C336899  27.181  24.989   8.107  0.1343 -0.0561 -0.1104
 6150DDP     C436900  26.605  25.749   7.283 -0.0288 -0.0457 -0.4544
 6151DDP     C136901  19.983   4.227   6.703  0.0257 -0.2921 -0.1601
 6151DDP     P136902  19.962   4.606   7.013 -0.1035  0.0850  0.0744
 6151DDP     P236903  19.730   4.236   6.371  0.3941  0.0426 -0.3152
 6151DDP     C236904  19.745   4.678   6.041  0.1684 -0.0844 -0.1259
 6151DDP     C336905  19.802   4.899   7.293 -0.2418  0.2311  0.2133
 6151DDP     C436906  20.204   3.846   6.661  0.0253 -0.0443 -0.1643
 6152DDP     C136907  10.034  27.013   5.787  0.1122 -0.4606 -0.4398
 6152DDP     P136908   9.854  26.668   6.040  0.0368 -0.3186  0.3562
 6152DDP     P236909  10.188  27.088   5.438 -0.0222 -0.2071  0.0318
 6152DDP     C236910  10.679  27.126   5.316  0.0338  0.1388 -0.0303
 6152DDP     C336911   9.722  26.495   6.357 -0.0796  0.0907  0.0659
 6152DDP     C436912  10.098  27.265   6.207 -0.1017 -0.2570  0.4236
 6153DDP     C136913  25.883  23.552   2.709 -0.0419 -0.1492  0.2036
 6153DDP     P136914  25.713  24.088   2.748 -0.0973  0.0600  0.0951
 6153DDP     P236915  25.528  23.352   2.630  0.0989 -0.1558  0.3885
 6153DDP     C236916  25.475  22.959   2.453  0.1586 -0.2598 -0.0223
 6153DDP     C336917  25.411  24.490   2.645  0.0082  0.1883  0.0244
 6153DDP     C436918  26.341  23.433   2.648 -0.1718  0.0962  0.1796
 6154DDP     C136919   4.974  29.153  22.220  0.0190  0.0272  0.1210
 6154DDP     P136920   4.850  29.346  22.610 -0.0075  0.0661 -0.4737
 6154DDP     P236921   4.730  29.356  21.925 -0.0664 -0.3092  0.0938
 6154DDP     C236922   4.369  29.410  21.555 -0.3453  0.0561  0.1674
 6154DDP     C336923   4.703  29.708  22.853 -0.1388  0.0174 -0.2036
 6154DDP     C436924   5.034  28.683  22.160 -0.1783 -0.2108 -0.0413
 6155DDP     C136925  25.978   8.144  14.827  0.2312 -0.4814  0.2821
 6155DDP     P136926  25.880   8.319  15.253  0.1466  0.0916  0.1102
 6155DDP     P236927  26.216   8.400  14.561  0.3215 -0.0005 -0.1331
 6155DDP     C236928  26.664   8.377  14.581 -0.0939  0.0234  0.1959
 6155DDP     C336929  25.979   8.152  15.635  0.0461 -0.1665 -0.2017
 6155DDP     C436930  25.840   7.811  14.725  0.0881  0.0117  0.0491
 6156DDP     C136931   3.728   3.342  21.761 -0.0668  0.0891 -0.0171
 6156DDP     P136932   3.364   3.262  21.969  0.0118  0.0356 -0.1122
 6156DDP     P236933   3.705   3.804  21.767 -0.0179 -0.0043  0.0962
 6156DDP     C236934   3.623   3.991  22.161  0.0525 -0.1728 -0.1434
 6156DDP     C336935   3.273   3.518  22.459  0.1601  0.0094 -0.2462
 6156DDP     C436936   4.044   3.040  21.628 -0.1576  0.0019  0.0049
 6157DDP     C136937  18.846  17.142   2.677 -0.1474  0.0715 -0.0563
 6157DDP     P136938  18.823  17.288   3.097  0.1453  0.0191 -0.4012
 6157DDP     P236939  19.249  16.944   2.587 -0.0163 -0.1073 -0.1723
 6157DDP     C236940  19.652  16.841   2.448 -0.0866  0.0879  0.2611
 6157DDP     C336941  18.571  17.465   3.407 -0.2057  0.2094 -0.1694
 6157DDP     C436942  18.480  17.069   2.397  0.2750 -0.3191  0.2049
 6158DDP     C136943  20.524   1.197  26.523 -0.0947  0.2384  0.0681
 6158DDP     P136944  20.320   0.871  26.766 -0.0890  0.0806 -0.1243
 6158DDP     P236945  20.465   1.458  26.858  0.0293 -0.0436  0.2209
 6158DDP     C236946  20.173   1.712  27.045  0.4000 -0.0843 -0.1081
 6158DDP     C336947  19.935   0.626  26.682 -0.0624  0.4837  0.2097
 6158DDP     C436948  20.760   1.194  26.058  0.1928 -0.2517  0.0356
 6159DDP     C136949   8.514  11.699  18.495  0.2210 -0.2438  0.0379
 6159DDP     P136950   8.277  11.824  18.880 -0.2113  0.2338 -0.2559
 6159DDP     P236951   8.606  12.101  18.211  0.0158 -0.1466 -0.1452
 6159DDP     C236952   8.250  12.301  18.043  0.1592 -0.1146  0.0915
 6159DDP     C336953   7.918  11.764  18.955 -0.1150 -0.1486 -0.1866
 6159DDP     C436954   8.659  11.246  18.472 -0.0934 -0.2127  0.0845
 6160DDP     C136955   0.185  16.711  26.089 -0.2350 -0.1196 -0.1445
 6160DDP     P136956   0.188  16.648  25.646  0.2850 -0.1243 -0.1156
 6160DDP     P236957  30.172  16.936  26.298  0.0955 -0.2378 -0.3102
 6160DDP     C236958  29.941  17.180  26.619 -0.2240 -0.3151 -0.2792
 6160DDP     C336959   0.223  16.165  25.523 -0.1246 -0.2006  0.0691
 6160DDP     C436960   0.414  16.423  26.309  0.0003  0.0062 -0.1353
 6161DDP     C136961  16.350  15.268   7.836 -0.0154  0.2365  0.0499
 6161DDP     P136962  16.748  15.391   7.684  0.3476  0.4456 -0.0861
 6161DDP     P236963  15.944  15.184   7.640  0.2530 -0.1293 -0.1595
 6161DDP     C236964  15.566  15.210   7.649  0.0508  0.1814 -0.3038
 6161DDP     C336965  17.104  15.208   7.374  0.4035 -0.1339 -0.1118
 6161DDP     C436966  16.190  15.335   8.159 -0.1046 -0.0574 -0.2122
 6162DDP     C136967  22.044   6.749  12.414  0.0258 -0.0086  0.2120
 6162DDP     P136968  22.266   6.746  12.849 -0.1970 -0.1160  0.2420
 6162DDP     P236969  21.992   7.076  12.240 -0.1418 -0.0913  0.2901
 6162DDP     C236970  21.995   7.459  12.226  0.3526  0.1374  0.0615
 6162DDP     C336971  22.283   7.088  13.177 -0.0636 -0.0491  0.1278
 6162DDP     C436972  21.848   6.371  12.209 -0.1823 -0.1941 -0.0653
 6163DDP     C136973   7.310   5.762  22.251 -0.1919 -0.3607 -0.0527
 6163DDP     P136974   7.137   6.181  22.200 -0.0958 -0.2363  0.0681
 6163DDP     P236975   6.984   5.363  22.326 -0.0025 -0.0758  0.0114
 6163DDP     C236976   6.871   5.183  22.670 -0.0112  0.2303  0.1966
 6163DDP     C336977   6.842   6.574  22.150 -0.1369 -0.0620 -0.1462
 6163DDP     C436978   7.721   5.644  22.345 -0.1036  0.1655 -0.1978
 6164DDP     C136979  14.980  29.478  19.528  0.1907  0.0096  0.1518
 6164DDP     P136980  15.023  29.882  19.230 -0.0176 -0.2842  0.1689
 6164DDP     P236981  14.678  29.129  19.225  0.1868  0.0983  0.0252
 6164DDP     C236982  14.911  28.820  18.949 -0.4415 -0.2561  0.3860
 6164DDP     C336983  14.692  30.142  19.023  0.0975  0.0666 -0.2935
 6164DDP     C436984  15.040  29.425  20.037 -0.0541 -0.2919 -0.1928
 6165DDP     C136985   8.065   6.748   8.794 -0.3831  0.1048 -0.1486
 6165DDP     P136986   8.371   6.429   8.667  0.0704  0.1302  0.0682
 6165DDP     P236987   7.643   6.610   8.964 -0.0904  0.3700 -0.1249
 6165DDP     C236988   7.426   6.806   9.226  0.0058  0.3119  0.0462
 6165DDP     C336989   8.771   6.471   8.453  0.0729  0.2469  0.2829
 6165DDP     C436990   8.061   7.195   8.527 -0.7380  0.1444 -0.1316
 6166DDP     C136991  27.596   9.017   5.277  0.0690  0.3706 -0.0237
 6166DDP     P136992  27.134   9.038   4.968 -0.2621 -0.0983 -0.0049
 6166DDP     P236993  27.750   8.620   5.367 -0.0161 -0.1774 -0.0091
 6166DDP     C236994  27.937   8.288   5.614 -0.2431 -0.2832 -0.0227
 6166DDP     C336995  26.785   8.860   5.235  0.0401  0.0891 -0.1302
 6166DDP     C436996  27.703   9.556   5.322  0.0637 -0.2003  0.0596
 6167DDP     C136997  24.659  13.934   4.604 -0.5559 -0.0297 -0.3280
 6167DDP     P136998  24.401  13.934   4.944  0.1846  0.0171 -0.2260
 6167DDP     P236999  25.005  14.255   4.634 -0.3001 -0.0735  0.3353
 6167DDP     C237000  25.313  14.623   4.490 -0.1815  0.2246 -0.2349
 6167DDP     C337001  24.327  13.753   5.343 -0.2897 -0.1194  0.1191
 6167DDP     C437002  24.663  13.635   4.211 -0.0012  0.4629  0.1528
 6168DDP     C137003  10.571  12.775   4.524  0.0264 -0.2074 -0.0744
 6168DDP     P137004  10.330  12.408   4.286 -0.2488  0.0176 -0.2278
 6168DDP     P237005  10.974  12.890   4.538 -0.3476 -0.1877 -0.0460
 6168DDP     C237006  11.327  12.848   4.499 -0.1735 -0.0099  0.0208
 6168DDP     C337007   9.872  12.258   4.279 -0.4181  0.3025 -0.1692
 6168DDP     C437008  10.360  12.802   4.829 -0.1687 -0.1405  0.0397
 6169DDP     C137009  18.093   7.301  14.907 -0.0003  0.1646 -0.2557
 6169DDP     P137010  17.962   7.446  14.530  0.0162 -0.0200 -0.1502
 6169DDP     P237011  18.334   6.945  14.982 -0.0296 -0.0237 -0.1033
 6169DDP     C237012  18.504   6.548  15.074 -0.3122  0.1382  0.1935
 6169DDP     C337013  17.779   7.328  14.164 -0.0827 -0.0497 -0.1393
 6169DDP     C437014  17.842   7.481  15.219 -0.0433 -0.0521  0.0310
 6170DDP     C137015   7.889  17.311  25.581 -0.1865 -0.0699 -0.2786
 6170DDP     P137016   7.711  17.501  25.982 -0.1303 -0.3446  0.0219
 6170DDP     P237017   8.205  17.160  25.645 -0.0551  0.1935 -0.1067
 6170DDP     C237018   8.492  16.875  25.706 -0.0073 -0.2151  0.3224
 6170DDP     C337019   7.803  17.911  26.103  0.1835  0.1922  0.2018
 6170DDP     C437020   7.590  17.304  25.308  0.1640 -0.0431  0.0346
 6171DDP     C137021  24.195  15.281  16.096  0.2629  0.1225  0.0338
 6171DDP     P137022  23.997  15.186  16.405 -0.1095  0.1281  0.2114
 6171DDP     P237023  24.286  15.024  15.668  0.0818 -0.0402 -0.1073
 6171DDP     C237024  24.421  14.832  15.260 -0.3382  0.0357 -0.0283
 6171DDP     C337025  24.008  15.166  16.869  0.4213 -0.3450  0.4580
 6171DDP     C437026  24.352  15.652  16.120 -0.0361  0.3195 -0.0396
 6172DDP     C137027   1.721   8.956  16.007 -0.0708 -0.1107 -0.0625
 6172DDP     P137028   1.911   9.240  15.704  0.2210  0.2691  0.2823
 6172DDP     P237029   1.848   9.147  16.415  0.0001  0.0280 -0.2436
 6172DDP     C237030   1.786   8.851  16.693 -0.3303 -0.3181  0.0245
 6172DDP     C337031   2.227   9.564  15.712 -0.1496  0.0961  0.0919
 6172DDP     C437032   1.359   8.848  15.709  0.1212  0.2219 -0.1367
 6173DDP     C137033   7.581  26.743  17.194  0.2303 -0.0298  0.2024
 6173DDP     P137034   7.599  27.252  17.149  0.2126  0.0976  0.3004
 6173DDP     P237035   7.563  26.447  16.884  0.2653  0.0385  0.1139
 6173DDP     C237036   7.430  25.947  16.805 -0.2639  0.1260  0.0119
 6173DDP     C337037   7.523  27.589  16.796 -0.2470  0.1173  0.1288
 6173DDP     C437038   7.752  26.584  17.622  0.1282  0.0639 -0.1195
 6174DDP     C137039  29.977  10.519   9.439 -0.1961 -0.2788 -0.1214
 6174DDP     P137040  29.910  10.087   9.593 -0.0199  0.1869 -0.0253
 6174DDP     P237041   0.010  10.530   9.133 -0.1625 -0.1560  0.1182
 6174DDP     C237042   0.390  10.414   9.182 -0.2049  0.2210 -0.0695
 6174DDP     C337043  29.959   9.822   9.862 -0.0965  0.0175 -0.0416
 6174DDP     C437044  29.794  10.822   9.764  0.0878 -0.0597 -0.2493
 6175DDP     C137045  15.058  18.623  10.944 -0.0835 -0.1144 -0.0965
 6175DDP     P137046  14.973  18.145  10.979  0.0495 -0.0776  0.1459
 6175DDP     P237047  14.941  18.822  10.578  0.2262  0.0881  0.2048
 6175DDP     C237048  15.179  19.150  10.284 -0.0032  0.2821  0.2134
 6175DDP     C337049  14.787  17.743  11.233 -0.0039 -0.0887  0.0158
 6175DDP     C437050  15.228  18.911  11.437  0.1056 -0.0070 -0.0272
 6176DDP     C137051   4.836  26.198  21.766 -0.0875  0.1016 -0.1489
 6176DDP     P137052   4.816  26.259  22.130  0.0995  0.3271 -0.1272
 6176DDP     P237053   5.036  26.537  21.715  0.0182  0.1219 -0.0834
 6176DDP     C237054   5.055  26.914  21.493  0.3762 -0.0103  0.1709
 6176DDP     C337055   4.782  26.524  22.578 -0.2145 -0.2326  0.0830
 6176DDP     C437056   4.478  26.182  21.589  0.2879 -0.0205 -0.3128
 6177DDP     C137057  15.065   7.002  19.842 -0.0880 -0.2130  0.0604
 6177DDP     P137058  14.985   6.952  20.167 -0.4980 -0.1583 -0.0411
 6177DDP     P237059  15.537   7.005  19.892 -0.0121  0.1426 -0.1287
 6177DDP     C237060  15.976   7.188  19.880 -0.1644  0.3543 -0.1877
 6177DDP     C337061  15.036   6.657  20.418  0.1649  0.0655  0.2481
 6177DDP     C437062  14.729   7.023  19.550 -0.1470  0.2308 -0.0514
 6178DDP     C137063  11.860  29.209   2.104  0.2863 -0.5985 -0.0468
 6178DDP     P137064  11.505  29.364   1.954  0.0604  0.0144 -0.0119
 6178DDP     P237065  12.001  29.396   2.369  0.1251  0.1627  0.0421
 6178DDP     C237066  12.115  29.778   2.413  0.0175 -0.1330 -0.1418
 6178DDP     C337067  11.548  29.528   1.597  0.1595 -0.2796  0.1082
 6178DDP     C437068  12.053  28.792   2.087  0.1062  0.0966  0.3190
 6179DDP     C137069   3.397  11.275  26.467 -0.4745 -0.3362 -0.0812
 6179DDP     P137070   3.695  11.138  26.743  0.0149  0.2250  0.1410
 6179DDP     P237071   3.155  11.503  26.715  0.0302  0.1465  0.0944
 6179DDP     C237072   2.811  11.739  27.033 -0.3849  0.2005  0.2272
 6179DDP     C337073   3.639  10.790  27.028 -0.0599  0.0887 -0.2775
 6179DDP     C437074   3.394  11.242  25.976 -0.3694 -0.1803  0.0923
 6180DDP     C137075  14.277   0.815  17.377 -0.0284 -0.0159 -0.4153
 6180DDP     P137076  13.914   0.866  17.608 -0.0902  0.4146  0.0715
 6180DDP     P237077  14.650   1.092  17.539  0.0561 -0.0136  0.1751
 6180DDP     C237078  14.896   1.153  17.385  0.0142  0.0741 -0.5193
 6180DDP     C337079  13.428   0.995  17.772 -0.2236 -0.0965  0.1323
 6180DDP     C437080  14.422   0.593  17.076  0.1219  0.0145  0.0541
 6181DDP     C137081  17.666  15.504   5.644 -0.2628  0.1936 -0.1354
 6181DDP     P137082  17.399  15.511   5.278 -0.3256  0.3402 -0.0830
 6181DDP     P237083  17.619  15.912   5.920  0.1298  0.0319  0.0986
 6181DDP     C237084  17.214  15.822   6.156 -0.2041 -0.1975 -0.3629
 6181DDP     C337085  16.977  15.476   5.211  0.3743  0.0575  0.3311
 6181DDP     C437086  17.650  15.009   5.785  0.1721 -0.0373 -0.2556
 6182DDP     C137087  16.448  20.287  11.725  0.3206 -0.0857  0.0001
 6182DDP     P137088  16.811  20.528  11.587  0.4804  0.2315 -0.0528
 6182DDP     P237089  16.434  20.229  12.193 -0.1755 -0.1062  0.3595
 6182DDP     C237090  16.189  20.535  12.511 -0.0884 -0.2842 -0.1721
 6182DDP     C337091  16.974  20.807  11.882 -0.1891  0.0957 -0.3176
 6182DDP     C437092  16.115  20.378  11.540 -0.0037  0.1401 -0.0149
 6183DDP     C137093  12.062   0.761  10.067  0.0110 -0.0104  0.0613
 6183DDP     P137094  11.642   0.721  10.136  0.1041 -0.0895 -0.1136
 6183DDP     P237095  12.080   0.817   9.621 -0.0897 -0.0469  0.0281
 6183DDP     C237096  11.999   0.690   9.153 -0.2247  0.1540 -0.2127
 6183DDP     C337097  11.151   0.761   9.988 -0.0598 -0.0545  0.0795
 6183DDP     C437098  12.376   0.799  10.345 -0.1365  0.0838  0.0282
 6184DDP     C137099  16.877   3.644   2.519 -0.0844 -0.0513  0.1565
 6184DDP     P137100  16.937   4.075   2.370 -0.1587 -0.0040 -0.0718
 6184DDP     P237101  16.734   3.530   2.878 -0.2499 -0.0071  0.3604
 6184DDP     C237102  16.823   3.414   3.130 -0.2720  0.0055  0.2675
 6184DDP     C337103  17.057   4.530   2.520  0.0865  0.2073  0.1727
 6184DDP     C437104  16.919   3.221   2.267 -0.3457 -0.0996  0.0297
 6185DDP     C137105   6.129  11.798  28.418 -0.0129  0.1274  0.1040
 6185DDP     P137106   6.004  12.186  28.189 -0.3662  0.0474 -0.3646
 6185DDP     P237107   5.971  11.811  28.889  0.2181  0.0461 -0.0628
 6185DDP     C237108   5.820  11.921  29.281 -0.2131  0.1587 -0.1309
 6185DDP     C337109   5.630  12.562  28.206 -0.0405  0.0731 -0.1157
 6185DDP     C437110   6.417  11.483  28.304 -0.0609  0.1009  0.0967
 6186DDP     C137111   1.617   3.789  15.071  0.0388  0.0006  0.1545
 6186DDP     P137112   1.624   3.803  14.610  0.0190  0.1578 -0.1615
 6186DDP     P237113   1.425   4.074  15.309 -0.0351 -0.3375 -0.0482
 6186DDP     C237114   1.153   4.367  15.640  0.0072  0.0495  0.0538
 6186DDP     C337115   1.468   3.518  14.293 -0.1257 -0.0004  0.0502
 6186DDP     C437116   1.922   3.485  15.169 -0.1482 -0.0474  0.3352
 6187DDP     C137117  20.720   8.183  22.875 -0.2632 -0.0935  0.1213
 6187DDP     P137118  20.417   8.034  22.467  0.0766 -0.0048 -0.0657
 6187DDP     P237119  21.013   7.836  23.097  0.3021  0.2724 -0.4160
 6187DDP     C237120  21.292   7.521  23.171 -0.0422  0.0775 -0.2430
 6187DDP     C337121  20.204   8.083  22.057 -0.1246  0.1855 -0.0436
 6187DDP     C437122  20.966   8.590  22.795  0.0256  0.3570  0.1270
 6188DDP     C137123  19.583  14.665  13.203 -0.0626  0.0687  0.0109
 6188DDP     P137124  19.248  14.902  13.342 -0.0472  0.0139 -0.0949
 6188DDP     P237125  19.676  14.694  12.819 -0.0720  0.0536  0.3167
 6188DDP     C237126  19.598  14.462  12.492  0.1966  0.3663  0.3374
 6188DDP     C337127  18.848  15.019  13.214  0.3928 -0.2191  0.3869
 6188DDP     C437128  19.588  14.284  13.464  0.1419  0.0000 -0.2329
 6189DDP     C137129   3.568   1.482  21.258 -0.0217 -0.0190  0.1946
 6189DDP     P137130   3.338   1.105  21.272 -0.1350  0.0282 -0.1203
 6189DDP     P237131   3.704   1.579  20.816  0.1368  0.3670  0.4541
 6189DDP     C237132   3.551   1.773  20.372  0.2165  0.0543 -0.3669
 6189DDP     C337133   3.168   0.756  21.160 -0.1644  0.2115 -0.1426
 6189DDP     C437134   3.362   1.716  21.508 -0.1847 -0.1422 -0.0844
 6190DDP     C137135  20.470  10.236   7.088 -0.0638 -0.0419  0.1375
 6190DDP     P137136  20.394   9.900   7.396  0.1506 -0.1227 -0.0550
 6190DDP     P237137  20.552   9.988   6.740 -0.1146  0.1726 -0.0577
 6190DDP     C237138  20.375   9.653   6.570  0.0744  0.0602 -0.1860
 6190DDP     C337139  20.375   9.552   7.604 -0.0362 -0.1603  0.0103
 6190DDP     C437140  20.502  10.700   7.154  0.4703 -0.2299  0.0389
 6191DDP     C137141  13.588   4.992  28.653  0.2306 -0.0148 -0.0864
 6191DDP     P137142  13.997   5.042  28.540  0.0636  0.2859 -0.1507
 6191DDP     P237143  13.329   5.046  28.397  0.0985 -0.1438  0.1431
 6191DDP     C237144  12.995   5.088  28.153 -0.3808 -0.0311 -0.0609
 6191DDP     C337145  14.279   5.482  28.456  0.1733  0.2702 -0.0741
 6191DDP     C437146  13.706   5.094  29.138  0.0216 -0.2894 -0.1349
 6192DDP     C137147  12.778  12.175  20.256  0.1412  0.2625 -0.1696
 6192DDP     P137148  12.721  12.190  19.793  0.0728 -0.1499 -0.1732
 6192DDP     P237149  13.079  11.793  20.228  0.2620 -0.1647  0.1751
 6192DDP     C237150  13.117  11.402  20.114 -0.1267  0.1353  0.0695
 6192DDP     C337151  12.583  12.188  19.406 -0.2717  0.1354 -0.1986
 6192DDP     C437152  12.470  12.258  20.742  0.2000 -0.0122  0.1779
 6193DDP     C137153  24.928  15.268  16.869  0.0032  0.1333  0.3394
 6193DDP     P137154  25.005  14.911  16.604  0.3529  0.0548 -0.1200
 6193DDP     P237155  25.145  15.693  16.780 -0.1482  0.0417  0.0017
 6193DDP     C237156  25.560  15.883  16.722  0.0322 -0.2891  0.0960
 6193DDP     C337157  25.145  14.735  16.109 -0.2465 -0.3454  0.0634
 6193DDP     C437158  24.535  15.393  17.124  0.0629 -0.2491  0.1437
 6194DDP     C137159  18.585  29.413   9.677  0.0797 -0.1070 -0.0377
 6194DDP     P137160  18.720  29.182   9.352 -0.1151  0.0546 -0.3222
 6194DDP     P237161  18.172  29.453   9.496 -0.0122  0.0584 -0.1328
 6194DDP     C237162  17.947  29.732   9.157 -0.1263 -0.1222 -0.2598
 6194DDP     C337163  18.929  29.175   9.009  0.3041 -0.2447 -0.1003
 6194DDP     C437164  18.897  29.600   9.971  0.2435  0.0629  0.1614
 6195DDP     C137165  11.415  22.091  23.619  0.1057  0.0679  0.0177
 6195DDP     P137166  11.537  21.786  23.950 -0.0235 -0.0021 -0.3628
 6195DDP     P237167  11.527  22.136  23.250  0.2755 -0.0957 -0.2123
 6195DDP     C237168  11.622  22.437  22.917 -0.1203  0.0858 -0.0830
 6195DDP     C337169  11.345  21.441  24.056 -0.3103 -0.3595 -0.1431
 6195DDP     C437170  11.051  21.864  23.539  0.0145 -0.0691  0.1484
 6196DDP     C137171  14.577   0.501   5.442 -0.0255  0.0665  0.1832
 6196DDP     P137172  15.042   0.420   5.450 -0.2709  0.1601 -0.1029
 6196DDP     P237173  14.329   0.557   5.177 -0.1975 -0.0757  0.0958
 6196DDP     C237174  13.939   0.304   5.064 -0.1426  0.1303 -0.0905
 6196DDP     C337175  15.392   0.675   5.647  0.2944 -0.3720  0.0297
 6196DDP     C437176  14.342   0.622   5.727  0.4470  0.1478 -0.0041
 6197DDP     C137177  13.856   8.920  28.342 -0.0035 -0.2317  0.3320
 6197DDP     P137178  13.917   9.206  28.130 -0.2330 -0.1947  0.0963
 6197DDP     P237179  13.428   8.801  28.502  0.0111 -0.0839  0.2189
 6197DDP     C237180  13.098   9.100  28.651 -0.1531  0.0773 -0.0213
 6197DDP     C337181  13.891   9.608  27.873 -0.0685 -0.1763  0.0362
 6197DDP     C437182  14.072   8.711  28.680  0.2294 -0.2840  0.0555
 6198DDP     C137183  24.089  27.160  21.883 -0.2891  0.1190  0.2520
 6198DDP     P137184  24.552  27.349  21.722 -0.1056  0.0434 -0.0868
 6198DDP     P237185  23.853  27.097  21.739  0.0381  0.0445 -0.0658
 6198DDP     C237186  23.843  27.114  21.279  0.0993  0.4688  0.3381
 6198DDP     C337187  24.930  27.228  21.595 -0.0131  0.0840  0.0118
 6198DDP     C437188  24.382  27.031  22.200  0.0110 -0.1849 -0.2138
 6199DDP     C137189   8.448  25.737  11.271 -0.2401  0.1013 -0.1043
 6199DDP     P137190   8.157  25.893  11.572 -0.1812  0.0835 -0.0648
 6199DDP     P237191   8.348  25.663  10.901  0.1852  0.1744 -0.0181
 6199DDP     C237192   8.008  25.643  10.543  0.0471  0.0771 -0.0067
 6199DDP     C337193   7.964  25.983  12.033 -0.1736  0.3680  0.1439
 6199DDP     C437194   8.849  25.822  11.237 -0.1262  0.1924  0.2720
 6200DDP     C137195   4.850  15.437  16.393 -0.1966  0.0267 -0.2908
 6200DDP     P137196   4.667  15.791  16.223 -0.3063 -0.2396  0.0065
 6200DDP     P237197   4.815  14.954  16.228 -0.0380 -0.1710 -0.3343
 6200DDP     C237198   4.908  14.573  15.986  0.1268  0.0189  0.1286
 6200DDP     C337199   4.325  16.082  16.324 -0.0883  0.0244  0.0784
 6200DDP     C437200   5.132  15.470  16.805  0.2230  0.3041 -0.0011
 6201DDP     C137201  27.352  21.758  29.938 -0.3078 -0.1949 -0.0555
 6201DDP     P137202  27.725  21.396  29.992 -0.1263  0.1566 -0.0167
 6201DDP     P237203  27.375  22.062  29.660 -0.0853 -0.0003 -0.0961
 6201DDP     C237204  27.286  22.468  29.631 -0.1389  0.0022 -0.0611
 6201DDP     C337205  28.082  21.242  30.178  0.0031  0.3655 -0.2056
 6201DDP     C437206  27.180  21.838  -0.018 -0.0689  0.1210 -0.1781
 6202DDP     C137207  24.916  28.483  15.555  0.2549 -0.0457  0.0846
 6202DDP     P137208  24.761  28.940  15.582 -0.0337  0.0929  0.1381
 6202DDP     P237209  25.227  28.058  15.731 -0.1680 -0.2751 -0.1407
 6202DDP     C237210  25.629  27.826  15.879  0.1525  0.3068  0.3316
 6202DDP     C337211  24.330  29.138  15.500  0.1422 -0.0782 -0.1731
 6202DDP     C437212  24.623  28.341  15.185 -0.4684 -0.0139  0.0959
 6203DDP     C137213  17.131   0.606   6.525 -0.2168 -0.1712  0.0728
 6203DDP     P137214  16.780   0.776   6.752 -0.1212 -0.4461  0.0056
 6203DDP     P237215  17.040   0.462   6.086  0.0571  0.3465 -0.2096
 6203DDP     C237216  16.785   0.437   5.678  0.2562 -0.0407  0.1398
 6203DDP     C337217  16.491   1.059   6.694  0.4276  0.0176  0.3122
 6203DDP     C437218  17.596   0.555   6.741  0.0269 -0.1770  0.3324
 6204DDP     C137219  19.702  24.103  26.432 -0.1603  0.0703 -0.1196
 6204DDP     P137220  19.586  24.372  26.805 -0.1025 -0.0066  0.0887
 6204DDP     P237221  19.686  24.339  26.073 -0.1843  0.0144  0.1106
 6204DDP     C237222  19.669  24.270  25.648 -0.0844  0.2113 -0.0249
 6204DDP     C337223  19.421  24.747  26.840 -0.2410  0.4108  0.1239
 6204DDP     C437224  19.852  23.803  26.678  0.4288 -0.2178 -0.2392
 6205DDP     C137225   1.211  18.393  10.127  0.1384 -0.1599 -0.1400
 6205DDP     P137226   0.802  18.516   9.873 -0.1630 -0.0272 -0.0671
 6205DDP     P237227   1.598  18.209   9.847  0.3236  0.1596 -0.1404
 6205DDP     C237228   2.090  18.165   9.743 -0.2990 -0.3412 -0.0998
 6205DDP     C337229   0.586  18.179   9.574 -0.1086  0.2169  0.4794
 6205DDP     C437230   1.190  18.212  10.416 -0.1206 -0.3352  0.3076
 6206DDP     C137231  10.724  10.475   8.748 -0.0440  0.0336  0.1692
 6206DDP     P137232  11.146  10.621   8.768  0.3793 -0.0731  0.3343
 6206DDP     P237233  10.564  10.106   9.043 -0.2805 -0.1415 -0.0176
 6206DDP     C237234  10.210   9.845   9.001 -0.0684  0.1639 -0.4461
 6206DDP     C337235  11.561  10.879   8.888  0.0641 -0.1262  0.1213
 6206DDP     C437236  10.486  10.580   8.387 -0.1407 -0.0559  0.1755
 6207DDP     C137237  24.810  10.945   1.649 -0.1606  0.4361 -0.1925
 6207DDP     P137238  25.105  10.559   1.708 -0.1166 -0.1331  0.1637
 6207DDP     P237239  24.980  11.397   1.739 -0.0613  0.1631 -0.2707
 6207DDP     C237240  25.298  11.525   1.935 -0.0182  0.0217  0.2356
 6207DDP     C337241  25.562  10.271   1.734  0.2244  0.1767  0.1376
 6207DDP     C437242  24.493  10.813   1.385  0.3465  0.1844 -0.0308
 6208DDP     C137243  29.881  26.773  19.164 -0.1042 -0.1606 -0.0565
 6208DDP     P137244  29.494  26.737  18.850 -0.0660 -0.1647  0.0423
 6208DDP     P237245  30.051  27.242  19.273  0.1690 -0.1997  0.3055
 6208DDP     C237246   0.068  27.483  19.305  0.0642  0.2400 -0.0689
 6208DDP     C337247  29.425  26.532  18.425  0.0386 -0.0572 -0.0266
 6208DDP     C437248  29.995  26.360  19.281 -0.0966 -0.0472  0.0456
 6209DDP     C137249  23.165  26.419  19.098 -0.3491  0.1702  0.0987
 6209DDP     P137250  23.223  26.838  18.982  0.0298  0.1905 -0.1590
 6209DDP     P237251  23.494  26.229  19.355  0.0251  0.1532  0.3136
 6209DDP     C237252  23.793  26.149  19.617  0.1929 -0.0822  0.1673
 6209DDP     C337253  23.402  27.205  18.980  0.4602 -0.1546  0.3058
 6209DDP     C437254  22.877  26.264  18.711  0.1779  0.0113 -0.0339
 6210DDP     C137255  25.734  23.014  20.500  0.2945  0.0840 -0.2479
 6210DDP     P137256  25.535  23.333  20.315 -0.4029 -0.3187 -0.0447
 6210DDP     P237257  25.638  22.795  20.879 -0.1235 -0.1075  0.3213
 6210DDP     C237258  25.374  22.536  21.151 -0.3143 -0.1670 -0.3165
 6210DDP     C337259  25.501  23.669  20.099 -0.1371  0.2373 -0.1140
 6210DDP     C437260  26.063  22.767  20.245  0.2899  0.0823  0.1394
 6211DDP     C137261  23.615   4.982   3.840  0.2577 -0.1984  0.0624
 6211DDP     P137262  23.735   5.005   4.219  0.1613  0.1418  0.0721
 6211DDP     P237263  23.751   5.383   3.554  0.0328  0.3184 -0.3473
 6211DDP     C237264  23.988   5.785   3.619  0.0537 -0.3364  0.1614
 6211DDP     C337265  23.856   4.915   4.663  0.1507 -0.2113 -0.1306
 6211DDP     C437266  23.308   4.722   3.576  0.1183 -0.1785 -0.3438
 6212DDP     C137267  12.779  23.668  14.031 -0.0795 -0.0576 -0.1913
 6212DDP     P137268  12.794  23.502  13.589 -0.1557  0.2441 -0.0191
 6212DDP     P237269  12.846  24.176  14.040 -0.0220 -0.3035  0.1508
 6212DDP     C237270  12.955  24.450  13.589 -0.0961  0.1685 -0.1987
 6212DDP     C337271  12.636  23.638  13.233  0.0156  0.2124 -0.2205
 6212DDP     C437272  12.845  23.485  14.374  0.1169 -0.1513  0.0286
 6213DDP     C137273  21.782   1.948  28.678 -0.0363  0.0486 -0.1265
 6213DDP     P137274  21.533   2.149  28.322 -0.1127 -0.1932  0.3735
 6213DDP     P237275  21.752   1.741  29.136 -0.0782  0.0264  0.0014
 6213DDP     C237276  21.661   1.528  29.559 -0.0656  0.2573  0.1046
 6213DDP     C337277  21.422   2.542  28.124 -0.1734 -0.3217 -0.0453
 6213DDP     C437278  22.169   1.940  28.441 -0.1297  0.1263 -0.0661
 6214DDP     C137279   2.459  18.948   0.309  0.1374  0.2102  0.1010
 6214DDP     P137280   2.937  18.877   0.278  0.2731 -0.0069  0.1207
 6214DDP     P237281   2.312  19.211   0.621 -0.4440 -0.2645 -0.0365
 6214DDP     C237282   2.175  19.356   0.999  0.1303 -0.0465  0.3547
 6214DDP     C337283   3.347  18.722   0.107 -0.0296 -0.1650  0.0499
 6214DDP     C437284   2.213  18.827  30.260 -0.1301  0.1318  0.3850
 6215DDP     C137285  11.330   1.735  19.077 -0.1532  0.2019 -0.1924
 6215DDP     P137286  11.107   1.412  18.915  0.1498  0.1129  0.0709
 6215DDP     P237287  11.245   1.994  19.345  0.0048 -0.2815  0.1504
 6215DDP     C237288  11.535   2.369  19.497 -0.3897  0.3734  0.0139
 6215DDP     C337289  11.065   1.101  18.625 -0.2195  0.0683  0.1930
 6215DDP     C437290  11.801   1.539  18.963 -0.1410 -0.0940 -0.2310
 6216DDP     C137291  22.959  26.810  30.237  0.1218 -0.0627 -0.1189
 6216DDP     P137292  23.342  26.759   0.249  0.2508  0.1221 -0.1087
 6216DDP     P237293  22.505  26.753   0.036 -0.2759  0.0509  0.0749
 6216DDP     C237294  22.247  26.970   0.386 -0.1687  0.2746  0.0023
 6216DDP     C337295  23.252  26.891   0.668  0.0152  0.2214  0.6451
 6216DDP     C437296  22.978  26.770  29.849 -0.3206  0.0584 -0.1451
 6217DDP     C137297   3.720  19.573  25.933  0.0652 -0.0702  0.1746
 6217DDP     P137298   4.003  19.661  26.252 -0.1602  0.0643  0.1121
 6217DDP     P237299   3.700  19.708  25.546 -0.1263 -0.1517 -0.0855
 6217DDP     C237300   3.612  19.754  25.027  0.4389 -0.0245  0.0394
 6217DDP     C337301   4.346  19.631  26.603  0.2399 -0.1533 -0.0203
 6217DDP     C437302   3.379  19.210  25.984 -0.0891 -0.1062 -0.0678
 6218DDP     C137303  17.704  20.685  18.725 -0.2815  0.1664 -0.1101
 6218DDP     P137304  17.327  20.553  18.693  0.1578 -0.0096  0.2635
 6218DDP     P237305  17.990  20.480  18.423 -0.0994  0.0461 -0.3320
 6218DDP     C237306  18.340  20.686  18.233 -0.2686  0.4082  0.0941
 6218DDP     C337307  16.985  20.654  18.504  0.0505 -0.0216 -0.2369
 6218DDP     C437308  17.654  21.020  19.004 -0.1687  0.0213 -0.3439
 6219DDP     C137309  11.236  19.314   1.319  0.0214  0.2642  0.0268
 6219DDP     P137310  10.879  19.227   1.475  0.1214  0.0782 -0.2268
 6219DDP     P237311  11.436  18.940   1.408  0.3510  0.0072 -0.2358
 6219DDP     C237312  11.822  18.819   1.523 -0.1518  0.0845 -0.3094
 6219DDP     C337313  10.740  18.983   1.208 -0.1879  0.1859  0.1275
 6219DDP     C437314  11.315  19.712   1.091 -0.1090 -0.2008  0.0840
 6220DDP     C137315  23.086  20.711  20.600  0.0178  0.0434 -0.0851
 6220DDP     P137316  23.070  20.344  20.385  0.0894 -0.0254 -0.3017
 6220DDP     P237317  23.355  20.849  20.989  0.0649  0.3573  0.0243
 6220DDP     C237318  23.738  20.928  21.270  0.0058  0.2292 -0.2374
 6220DDP     C337319  23.134  19.899  20.458 -0.1518  0.2637 -0.1311
 6220DDP     C437320  22.951  21.048  20.333 -0.2530  0.2516 -0.0950
 6221DDP     C137321   0.182  26.833  25.142 -0.0471  0.1082  0.0589
 6221DDP     P137322   0.024  26.416  25.132  0.0729  0.1007  0.0205
 6221DDP     P237323  30.208  27.072  24.823  0.2296 -0.0933 -0.0467
 6221DDP     C237324   0.102  27.290  24.431  0.3623  0.1723  0.1188
 6221DDP     C337325  29.917  26.186  25.006  0.1691 -0.2648  0.3773
 6221DDP     C437326   0.446  27.017  25.468 -0.0793 -0.2008 -0.3486
 6222DDP     C137327  19.491   3.350  11.890  0.3248  0.0225 -0.0850
 6222DDP     P137328  19.724   3.125  11.576  0.2038 -0.1232 -0.0362
 6222DDP     P237329  19.337   3.489  11.473  0.4298 -0.0867  0.1220
 6222DDP     C237330  19.269   3.794  11.130  0.0079 -0.1466 -0.2220
 6222DDP     C337331  20.009   2.855  11.532  0.0052 -0.0496  0.1233
 6222DDP     C437332  19.398   3.147  12.438  0.0139  0.2216  0.0025
 6223DDP     C137333  21.681  28.121  16.967 -0.1580 -0.4354  0.0428
 6223DDP     P137334  21.634  28.515  17.193 -0.2591  0.1084 -0.0233
 6223DDP     P237335  21.522  28.144  16.527  0.0552  0.1085  0.1175
 6223DDP     C237336  21.777  28.069  16.134  0.0112 -0.0232  0.2233
 6223DDP     C337337  21.813  28.651  17.490  0.0054  0.3066  0.1965
 6223DDP     C437338  21.732  27.715  17.162  0.0610  0.0649 -0.1525
 6224DDP     C137339  14.830   6.576   7.008 -0.0530  0.0875  0.0543
 6224DDP     P137340  15.185   6.234   6.953  0.3262  0.0423 -0.0138
 6224DDP     P237341  14.661   6.898   6.720  0.0635  0.0538  0.0746
 6224DDP     C237342  14.342   6.839   6.383  0.1397  0.2415 -0.3112
 6224DDP     C337343  15.330   5.761   7.044 -0.2036 -0.0742 -0.0192
 6224DDP     C437344  14.454   6.606   7.239 -0.1584 -0.1953  0.0281
 6225DDP     C137345   5.302  14.169  26.067  0.1573  0.1247  0.4296
 6225DDP     P137346   5.570  14.396  25.923  0.1056 -0.3043 -0.1249
 6225DDP     P237347   4.970  14.248  25.960  0.2632 -0.3837  0.0802
 6225DDP     C237348   4.598  14.168  26.295 -0.1417 -0.1868 -0.0402
 6225DDP     C337349   5.808  14.764  25.771 -0.0540 -0.1324 -0.3797
 6225DDP     C437350   5.376  13.793  26.289 -0.0511  0.0400 -0.1517
 6226DDP     C137351   5.453   9.533  24.274 -0.1174 -0.0017  0.1495
 6226DDP     P137352   5.717   9.199  24.224  0.3210  0.1556  0.0445
 6226DDP     P237353   5.073   9.644  24.179 -0.0461 -0.0873  0.0754
 6226DDP     C237354   4.651   9.727  24.343 -0.2768 -0.0185 -0.1702
 6226DDP     C337355   5.897   8.828  24.242 -0.1229  0.3072 -0.4682
 6226DDP     C437356   5.620   9.901  24.425  0.2683  0.3277 -0.0253
 6227DDP     C137357  16.578   3.019   8.907  0.2870  0.1352 -0.2759
 6227DDP     P137358  16.733   2.706   9.136 -0.0438  0.1547  0.0570
 6227DDP     P237359  16.183   2.787   8.615 -0.0529  0.1111 -0.0679
 6227DDP     C237360  15.862   2.539   8.794 -0.1291  0.1621  0.3721
 6227DDP     C337361  17.144   2.497   9.139  0.1278 -0.3298  0.1376
 6227DDP     C437362  16.764   3.362   8.837  0.2231 -0.1222  0.1728
 6228DDP     C137363  18.642  14.767  21.135  0.3917 -0.1217  0.0263
 6228DDP     P137364  18.316  14.563  20.934 -0.1529  0.0004  0.0455
 6228DDP     P237365  19.028  14.741  20.865  0.3185 -0.0831 -0.2099
 6228DDP     C237366  19.406  14.747  20.938 -0.1206  0.0019 -0.4330
 6228DDP     C337367  17.912  14.413  21.109  0.3175 -0.0839 -0.1421
 6228DDP     C437368  18.661  14.722  21.592  0.1766  0.0116 -0.3162
 6229DDP     C137369   8.747  24.767   4.754  0.2080  0.1346  0.1500
 6229DDP     P137370   8.936  25.235   4.707 -0.1282 -0.2877  0.0528
 6229DDP     P237371   8.972  24.379   5.042  0.0239  0.0105 -0.1878
 6229DDP     C237372   9.259  24.150   5.174  0.1662 -0.0925  0.1410
 6229DDP     C337373   8.971  25.641   4.518  0.0582 -0.1181  0.0595
 6229DDP     C437374   8.359  24.679   4.600  0.0825  0.0418  0.1709
 6230DDP     C137375   9.588  17.563   8.961  0.1502  0.1599  0.0681
 6230DDP     P137376   9.574  17.398   8.646 -0.0121  0.3091 -0.2904
 6230DDP     P237377   9.985  17.561   8.999  0.3320  0.2598  0.1333
 6230DDP     C237378  10.387  17.674   9.302  0.0720  0.4621  0.1439
 6230DDP     C337379   9.566  16.944   8.500  0.1579 -0.1622  0.1307
 6230DDP     C437380   9.342  17.802   9.194 -0.0281  0.2699  0.0513
 6231DDP     C137381  29.109   8.953  11.423 -0.0448 -0.0341  0.0807
 6231DDP     P137382  28.737   9.116  11.463  0.3384 -0.0989  0.0438
 6231DDP     P237383  29.302   8.890  11.096 -0.2162  0.1526 -0.3327
 6231DDP     C237384  29.191   8.941  10.678  0.1738  0.1398 -0.1598
 6231DDP     C337385  28.406   9.052  11.676 -0.0309  0.2744 -0.2028
 6231DDP     C437386  29.381   9.061  11.840 -0.0005  0.3493  0.1505
 6232DDP     C137387  24.820   5.828   3.571  0.0820  0.0278 -0.0683
 6232DDP     P137388  25.173   6.104   3.291  0.1616 -0.0625 -0.1140
 6232DDP     P237389  25.018   5.384   3.689  0.3199 -0.4306 -0.1042
 6232DDP     C237390  25.417   5.393   3.915 -0.0431 -0.1018 -0.2304
 6232DDP     C337391  25.415   5.991   2.914 -0.1948  0.3219  0.1412
 6232DDP     C437392  24.542   6.266   3.621 -0.2368 -0.2849  0.1403
 6233DDP     C137393  29.175  18.941   5.606 -0.2208  0.1649  0.0535
 6233DDP     P137394  29.195  19.340   5.472  0.1879 -0.1544 -0.0697
 6233DDP     P237395  29.426  18.446   5.474  0.1420  0.0661  0.0512
 6233DDP     C237396  29.849  18.229   5.330 -0.0312  0.0833 -0.0408
 6233DDP     C337397  29.096  19.755   5.331 -0.2019 -0.0071 -0.4282
 6233DDP     C437398  28.672  18.918   5.608 -0.0717  0.2395  0.1954
 6234DDP     C137399   2.122  15.342  26.572 -0.0616 -0.1055 -0.2644
 6234DDP     P137400   2.290  15.493  26.262  0.2795 -0.1187  0.2300
 6234DDP     P237401   1.989  15.656  26.928 -0.1001  0.4267 -0.1453
 6234DDP     C237402   2.156  16.087  27.045 -0.2677  0.1395  0.0556
 6234DDP     C337403   2.045  15.498  25.905 -0.3492  0.3157  0.2576
 6234DDP     C437404   1.948  14.941  26.524 -0.1193 -0.2003  0.0774
 6235DDP     C137405  21.786  27.249  17.717 -0.1361 -0.1508  0.0291
 6235DDP     P137406  21.942  26.843  17.918  0.1712 -0.1566 -0.0394
 6235DDP     P237407  21.362  27.410  17.402  0.2009  0.3520  0.0903
 6235DDP     C237408  21.382  27.347  16.973 -0.1560  0.1284  0.2973
 6235DDP     C337409  21.954  26.439  17.990  0.2710  0.0801  0.3482
 6235DDP     C437410  22.050  27.602  17.746  0.3140 -0.0576 -0.3641
 6236DDP     C137411  24.433  16.144  14.367  0.2681 -0.1370 -0.0998
 6236DDP     P137412  24.765  16.482  14.471  0.1610 -0.0078  0.1078
 6236DDP     P237413  24.554  15.717  14.305 -0.0408 -0.1348  0.0114
 6236DDP     C237414  24.536  15.272  14.501 -0.0878 -0.0751  0.2236
 6236DDP     C337415  24.856  16.481  14.894  0.2896  0.1844 -0.1642
 6236DDP     C437416  24.169  16.212  14.003  0.1475 -0.2271  0.1614
 6237DDP     C137417  20.522  21.248  27.741 -0.2682  0.0528 -0.0151
 6237DDP     P137418  20.662  20.759  27.890 -0.1588  0.2687  0.1325
 6237DDP     P237419  20.383  21.072  28.169  0.1852 -0.2779  0.2391
 6237DDP     C237420  20.273  20.924  28.676 -0.0404  0.0527  0.0071
 6237DDP     C337421  20.743  20.487  28.202 -0.1257  0.0660 -0.2948
 6237DDP     C437422  20.951  21.563  27.608  0.0302  0.3066 -0.1175
 6238DDP     C137423  12.216  12.886   8.918  0.1896  0.1898  0.0300
 6238DDP     P137424  12.069  13.388   8.705  0.1920 -0.0265 -0.0660
 6238DDP     P237425  11.930  12.771   9.274 -0.1884  0.1343  0.1337
 6238DDP     C237426  12.015  12.708   9.749 -0.1448  0.0165 -0.2408
 6238DDP     C337427  11.992  13.866   8.635  0.3121 -0.0248 -0.2091
 6238DDP     C437428  12.485  12.481   8.742 -0.2756 -0.5463 -0.0064
 6239DDP     C137429  15.777  11.038  29.717  0.3062  0.0332 -0.1686
 6239DDP     P137430  15.597  11.483  29.960 -0.0774 -0.2628 -0.0349
 6239DDP     P237431  16.124  10.832  29.425 -0.0583 -0.4118  0.3374
 6239DDP     C237432  16.288  10.444  29.219  0.0449  0.1532 -0.3138
 6239DDP     C337433  15.453  11.510   0.028 -0.1022  0.0493 -0.2853
 6239DDP     C437434  15.453  10.654  29.701  0.3755 -0.1641  0.0864
 6240DDP     C137435  10.702  29.383   9.533 -0.1811 -0.2351 -0.2127
 6240DDP     P137436  10.409  29.149   9.382 -0.0300 -0.1084  0.1681
 6240DDP     P237437  10.697  29.626   9.208  0.0878 -0.0442 -0.2639
 6240DDP     C237438  10.380  29.541   8.907 -0.0525  0.0116 -0.3456
 6240DDP     C337439  10.043  29.021   9.397  0.2045 -0.1903 -0.4312
 6240DDP     C437440  10.929  29.392   9.903  0.1695 -0.2959 -0.0664
 6241DDP     C137441  17.473   4.650  17.777 -0.1731 -0.3065  0.0852
 6241DDP     P137442  17.403   5.035  17.856 -0.1631 -0.0950 -0.1456
 6241DDP     P237443  17.214   4.694  17.418 -0.0211 -0.3154  0.3077
 6241DDP     C237444  16.725   4.648  17.229 -0.1008 -0.0608  0.2709
 6241DDP     C337445  17.561   5.385  17.949 -0.1726 -0.1318 -0.1885
 6241DDP     C437446  17.899   4.390  17.743  0.4985 -0.2699 -0.1080
 6242DDP     C137447  29.959   6.846   4.039 -0.0275 -0.0951 -0.0895
 6242DDP     P137448  29.907   6.884   3.662  0.0280  0.0675 -0.0894
 6242DDP     P237449  29.994   6.939   4.485  0.0283 -0.1104 -0.3154
 6242DDP     C237450  30.231   7.305   4.715  0.2747  0.0041 -0.0736
 6242DDP     C337451  29.826   6.551   3.391  0.0664 -0.0345 -0.2575
 6242DDP     C437452   0.075   6.595   4.064  0.2646 -0.0949  0.1385
 6243DDP     C137453  21.729   0.387  14.559  0.1718  0.2161  0.1058
 6243DDP     P137454  21.470   0.449  14.201  0.3495 -0.2590 -0.1027
 6243DDP     P237455  21.492   0.418  14.978  0.0714 -0.1581 -0.0134
 6243DDP     C237456  21.637   0.582  15.321 -0.3279 -0.0879  0.0279
 6243DDP     C337457  21.431   0.755  13.846 -0.0925 -0.1352 -0.2486
 6243DDP     C437458  22.181   0.474  14.563 -0.3718 -0.3136 -0.0115
 6244DDP     C137459   0.991   7.184  27.509  0.1244  0.1615 -0.0276
 6244DDP     P137460   1.185   7.503  27.629  0.0352 -0.0168 -0.0337
 6244DDP     P237461   1.249   7.069  27.116 -0.2533 -0.1122  0.4034
 6244DDP     C237462   0.995   7.001  26.672  0.0651  0.0592  0.0896
 6244DDP     C337463   1.555   7.375  27.411  0.1296  0.1193 -0.2767
 6244DDP     C437464   0.808   6.857  27.620 -0.3169 -0.0028  0.5370
 6245DDP     C137465   4.864  26.628  18.842  0.1112 -0.0126 -0.2170
 6245DDP     P137466   4.779  26.675  18.417  0.1280  0.1983 -0.1545
 6245DDP     P237467   5.004  26.208  18.856 -0.1378  0.2203  0.1116
 6245DDP     C237468   5.188  25.800  19.043  0.0648  0.0928 -0.2324
 6245DDP     C337469   4.355  26.588  18.259  0.0411 -0.2036  0.0288
 6245DDP     C437470   4.964  27.012  19.045 -0.0832  0.0202  0.1851
 6246DDP     C137471  24.209   8.489  23.186  0.3116 -0.0319 -0.0537
 6246DDP     P137472  24.100   8.999  23.047 -0.0263 -0.2036 -0.2049
 6246DDP     P237473  24.613   8.307  23.457 -0.0920  0.0086  0.0388
 6246DDP     C237474  24.915   7.946  23.535 -0.2189  0.0461 -0.0266
 6246DDP     C337475  24.043   9.330  23.383 -0.2632 -0.2186  0.1538
 6246DDP     C437476  24.103   8.096  22.949  0.3357 -0.0446  0.1001
 6247DDP     C137477   7.320   6.852   8.561  0.2675  0.0595  0.1184
 6247DDP     P137478   7.012   6.564   8.789 -0.1045  0.2290  0.0608
 6247DDP     P237479   7.134   7.028   8.263  0.1049 -0.0794  0.0750
 6247DDP     C237480   6.940   6.939   7.820  0.1966  0.0446  0.2953
 6247DDP     C337481   7.116   6.429   9.233 -0.1172  0.0816 -0.1041
 6247DDP     C437482   7.635   7.072   8.827  0.2222 -0.0181  0.1947
 6248DDP     C137483  22.285   3.230  18.812  0.1904 -0.1498 -0.0481
 6248DDP     P137484  22.432   3.331  19.247  0.1093  0.1367 -0.2661
 6248DDP     P237485  22.641   3.086  18.470 -0.1290 -0.0673  0.0297
 6248DDP     C237486  22.741   2.754  18.181 -0.0630 -0.1197  0.0732
 6248DDP     C337487  22.585   3.413  19.610  0.1668 -0.0977  0.1255
 6248DDP     C437488  21.872   3.411  18.654 -0.2772 -0.2092  0.0079
 6249DDP     C137489  19.902  17.862   7.527 -0.2438  0.1091  0.0054
 6249DDP     P137490  19.484  17.886   7.464  0.0868 -0.1362  0.1920
 6249DDP     P237491  20.147  18.140   7.686 -0.3068  0.1508 -0.1936
 6249DDP     C237492  20.360  18.342   8.032  0.2166  0.1383 -0.0296
 6249DDP     C337493  19.215  18.149   7.248  0.2680  0.0166 -0.1832
 6249DDP     C437494  20.085  17.396   7.415 -0.0825 -0.0389  0.0669
 6250DDP     C137495   2.762  22.100  15.078  0.0248  0.1161  0.0247
 6250DDP     P137496   2.662  21.672  15.080  0.0781 -0.1290 -0.1418
 6250DDP     P237497   3.154  22.091  15.105 -0.2099  0.0410 -0.2729
 6250DDP     C237498   3.343  21.596  15.354 -0.0626 -0.0137  0.1391
 6250DDP     C337499   2.382  21.350  14.786 -0.0627  0.3000 -0.1836
 6250DDP     C437500   2.558  22.465  15.167 -0.0002  0.0189  0.0418
 6251DDP     C137501  11.995  23.296   8.213  0.0281 -0.2195 -0.4433
 6251DDP     P137502  11.995  23.367   7.820  0.0320  0.0619  0.0838
 6251DDP     P237503  11.858  23.599   8.309  0.0788  0.0428 -0.2166
 6251DDP     C237504  11.476  23.846   8.184 -0.1475  0.0452 -0.1317
 6251DDP     C337505  12.068  23.621   7.539 -0.3797 -0.0495 -0.0946
 6251DDP     C437506  12.188  22.918   8.547  0.2984  0.1067 -0.0528
 6252DDP     C137507  16.683  12.710  15.294  0.3580  0.1576 -0.0770
 6252DDP     P137508  16.855  12.867  14.883 -0.1638  0.1737  0.0724
 6252DDP     P237509  16.970  12.502  15.591 -0.1343  0.1576  0.0060
 6252DDP     C237510  17.420  12.686  15.716  0.2392  0.0735 -0.1018
 6252DDP     C337511  16.701  12.963  14.506  0.0707 -0.1408  0.1386
 6252DDP     C437512  16.256  12.602  15.305  0.3203 -0.1167 -0.3177
 6253DDP     C137513  11.622  17.830  14.571 -0.0739  0.1429  0.1860
 6253DDP     P137514  11.836  18.145  14.288 -0.0853 -0.0906  0.0820
 6253DDP     P237515  11.281  17.911  14.537  0.1954  0.3885 -0.2006
 6253DDP     C237516  10.901  17.996  14.818  0.1180  0.1099  0.1688
 6253DDP     C337517  12.227  18.420  14.163 -0.0599  0.2708  0.1079
 6253DDP     C437518  11.755  17.552  15.026  0.1312  0.0434 -0.0026
 6254DDP     C137519  18.087  23.442  15.058 -0.1783  0.2830 -0.0295
 6254DDP     P137520  17.960  23.789  14.810  0.0164  0.2050 -0.1477
 6254DDP     P237521  18.581  23.495  15.240 -0.1962  0.0780 -0.0942
 6254DDP     C237522  18.963  23.568  14.932  0.1560  0.3561 -0.1240
 6254DDP     C337523  18.009  23.989  14.378 -0.1731  0.2022  0.1216
 6254DDP     C437524  17.808  23.366  15.399  0.2905 -0.0703  0.3348
 6255DDP     C137525   5.373  15.064  15.486  0.2267  0.2146 -0.1848
 6255DDP     P137526   5.830  14.913  15.726 -0.2310 -0.3030 -0.2271
 6255DDP     P237527   5.581  15.392  15.263  0.0844  0.0231 -0.0525
 6255DDP     C237528   5.479  15.851  15.078  0.0843 -0.0975  0.3307
 6255DDP     C337529   5.966  14.553  16.017 -0.2562 -0.2448  0.0216
 6255DDP     C437530   4.889  14.825  15.503  0.0494  0.0952  0.1025
 6256DDP     C137531  15.642  20.124   3.804  0.2634 -0.0716 -0.2123
 6256DDP     P137532  16.017  20.064   4.150  0.2130 -0.0345 -0.0060
 6256DDP     P237533  15.260  20.023   3.916  0.0277  0.2934 -0.0083
 6256DDP     C237534  15.006  19.734   4.285  0.1806 -0.1556 -0.2047
 6256DDP     C337535  16.412  19.954   4.378 -0.0799  0.3142  0.1583
 6256DDP     C437536  15.842  20.297   3.505 -0.0113  0.0428 -0.0955
 6257DDP     C137537  11.699  21.936  20.322  0.0145 -0.0210  0.1405
 6257DDP     P137538  11.598  22.178  20.662 -0.0653 -0.3100 -0.2756
 6257DDP     P237539  11.501  21.710  20.479 -0.1160  0.0489 -0.3400
 6257DDP     C237540  11.167  21.413  20.338 -0.1292 -0.0824  0.0320
 6257DDP     C337541  11.396  22.544  20.907 -0.0921 -0.0497 -0.0724
 6257DDP     C437542  11.919  21.684  20.060  0.0632 -0.0681  0.0202
 6258DDP     C137543  14.536   3.429   2.008  0.3086 -0.3429  0.3471
 6258DDP     P137544  14.577   3.940   2.024  0.2189  0.1978 -0.1044
 6258DDP     P237545  14.860   3.213   1.942 -0.1518 -0.1352  0.2008
 6258DDP     C237546  14.937   3.044   1.580  0.2550  0.0137 -0.1666
 6258DDP     C337547  14.783   4.344   1.869  0.0110 -0.0751  0.1841
 6258DDP     C437548  13.991   3.389   2.052 -0.1690  0.0329 -0.1532
 6259DDP     C137549  25.196  19.051  13.530  0.3697  0.2813 -0.0224
 6259DDP     P137550  24.911  18.797  13.226  0.2110 -0.0053 -0.1573
 6259DDP     P237551  24.883  19.147  13.811 -0.1276 -0.0738 -0.1356
 6259DDP     C237552  24.583  19.033  14.105 -0.0748  0.4432  0.2312
 6259DDP     C337553  24.664  18.759  12.772 -0.1377 -0.0800  0.1099
 6259DDP     C437554  25.479  19.265  13.307 -0.0849 -0.0155 -0.1164
 6260DDP     C137555  21.731  11.921  29.472  0.0113 -0.0456  0.1636
 6260DDP     P137556  21.389  11.784  29.827 -0.0676  0.0081  0.1840
 6260DDP     P237557  21.786  12.305  29.310  0.1621 -0.1263 -0.0574
 6260DDP     C237558  21.924  12.687  29.533  0.1615 -0.0181  0.1494
 6260DDP     C337559  21.306  12.171  29.981 -0.1692  0.1482  0.3337
 6260DDP     C437560  21.847  11.613  29.213 -0.2213 -0.3073  0.2962
 6261DDP     C137561   6.985  15.783  17.855  0.1385  0.0879 -0.1321
 6261DDP     P137562   7.272  15.756  17.498 -0.1311 -0.0790 -0.4163
 6261DDP     P237563   6.468  15.661  17.784  0.0149  0.0330  0.0278
 6261DDP     C237564   6.047  15.478  17.736 -0.1987 -0.1276 -0.1998
 6261DDP     C337565   7.081  15.885  17.018  0.0292 -0.3796 -0.3512
 6261DDP     C437566   7.112  16.065  18.249 -0.3549 -0.1104 -0.0058
 6262DDP     C137567  27.802  28.673  24.338 -0.3405 -0.1034  0.2320
 6262DDP     P137568  28.029  28.351  24.548 -0.1048 -0.1320  0.1035
 6262DDP     P237569  27.502  28.596  24.042  0.0727  0.1760 -0.2039
 6262DDP     C237570  27.378  28.709  23.651  0.0520 -0.0972 -0.3365
 6262DDP     C337571  28.373  28.201  24.869 -0.0989 -0.2611  0.2168
 6262DDP     C437572  27.772  29.093  24.272 -0.0149 -0.0091 -0.0367
 6263DDP     C137573  11.982  24.532  12.210 -0.0160  0.2015  0.2153
 6263DDP     P137574  11.803  24.093  12.352  0.0552 -0.0252 -0.0535
 6263DDP     P237575  11.554  24.833  12.206  0.0144  0.0920 -0.2468
 6263DDP     C237576  11.233  24.789  11.887  0.1918 -0.3706 -0.1922
 6263DDP     C337577  11.515  24.106  12.708 -0.1609  0.2018 -0.0440
 6263DDP     C437578  12.325  24.522  11.965 -0.3447 -0.0080 -0.2272
 6264DDP     C137579  15.317  27.706  12.968  0.1155 -0.2451  0.1816
 6264DDP     P137580  14.997  27.442  12.700 -0.0420 -0.1716  0.1733
 6264DDP     P237581  15.316  27.784  13.426  0.1700  0.0697 -0.0032
 6264DDP     C237582  15.276  28.167  13.574 -0.1015  0.0652  0.0844
 6264DDP     C337583  14.798  27.058  12.686  0.0036  0.0470 -0.1013
 6264DDP     C437584  15.625  27.765  12.701  0.2575  0.2125  0.1048
 6265DDP     C137585  21.484   6.589   0.303 -0.2054 -0.2810 -0.1642
 6265DDP     P137586  21.813   6.654   0.612 -0.0750 -0.0094 -0.1119
 6265DDP     P237587  21.247   6.942   0.277  0.0177  0.2518  0.0405
 6265DDP     C237588  20.932   7.259   0.166  0.3570 -0.0014  0.2183
 6265DDP     C337589  22.065   6.715   0.956 -0.2727  0.1773  0.2100
 6265DDP     C437590  21.276   6.233   0.101  0.1239 -0.1499  0.0125
 6266DDP     C137591   8.944   7.736  14.284  0.1080 -0.1788  0.0000
 6266DDP     P137592   8.743   7.578  14.702  0.0407 -0.1734 -0.1389
 6266DDP     P237593   8.814   7.683  13.881  0.0050 -0.0101  0.0379
 6266DDP     C237594   8.769   7.680  13.459  0.0960  0.1515 -0.2429
 6266DDP     C337595   8.335   7.399  14.957  0.1013  0.1872  0.0219
 6266DDP     C437596   9.278   7.905  14.136 -0.0922  0.0932 -0.1370
 6267DDP     C137597  15.204  26.539  29.365 -0.3606 -0.1784  0.0792
 6267DDP     P137598  15.682  26.626  29.531 -0.3279  0.1107  0.0285
 6267DDP     P237599  15.243  26.191  29.169  0.1203  0.1672  0.0925
 6267DDP     C237600  14.886  25.922  29.206 -0.1193 -0.1961 -0.1831
 6267DDP     C337601  16.060  26.617  29.337 -0.0669  0.2992 -0.1605
 6267DDP     C437602  14.732  26.575  29.555 -0.2300 -0.1152  0.0887
 6268DDP     C137603   9.238  26.017  16.960 -0.0624  0.0947 -0.1008
 6268DDP     P137604   9.174  25.880  17.408 -0.1843  0.1441  0.2548
 6268DDP     P237605   9.425  26.340  16.854 -0.1145  0.1411 -0.0257
 6268DDP     C237606   9.787  26.527  16.907 -0.4527 -0.0210 -0.0580
 6268DDP     C337607   8.995  25.643  17.653 -0.3360  0.1020  0.1228
 6268DDP     C437608   8.972  25.890  16.587  0.2353 -0.2661 -0.0881
 6269DDP     C137609   9.590  28.403  21.828 -0.1339 -0.0663 -0.1792
 6269DDP     P137610   9.134  28.585  21.591  0.1920  0.0562 -0.0343
 6269DDP     P237611  10.016  28.297  21.768  0.2440  0.0936  0.2784
 6269DDP     C237612  10.416  28.058  21.732  0.0789  0.1182 -0.0434
 6269DDP     C337613   8.672  28.748  21.607 -0.1763  0.0250  0.1851
 6269DDP     C437614   9.624  28.351  22.244 -0.0674 -0.0667 -0.0487
 6270DDP     C137615  25.235  29.047  16.157 -0.2955 -0.0554 -0.2105
 6270DDP     P137616  25.158  29.571  16.035 -0.1014  0.0618 -0.0476
 6270DDP     P237617  25.167  28.751  15.837 -0.2929 -0.3012  0.1519
 6270DDP     C237618  25.465  28.486  15.717  0.2887 -0.2903  0.1084
 6270DDP     C337619  25.204  30.102  15.966  0.1897  0.1055 -0.1535
 6270DDP     C437620  25.464  28.926  16.510 -0.1887  0.1593  0.1689
 6271DDP     C137621  20.697  28.352   1.553  0.0228 -0.3511  0.2632
 6271DDP     P137622  20.507  28.322   1.157 -0.0955 -0.1257  0.2203
 6271DDP     P237623  20.485  28.325   1.975 -0.1995  0.2793 -0.3762
 6271DDP     C237624  20.133  28.242   2.347  0.1480 -0.1773  0.1165
 6271DDP     C337625  20.504  28.056   0.730 -0.1363  0.1943 -0.0964
 6271DDP     C437626  20.932  28.494   1.435 -0.0655 -0.0125 -0.4027
 6272DDP     C137627  11.344   0.983   3.062 -0.1186  0.1493 -0.1679
 6272DDP     P137628  11.236   1.378   3.070 -0.2585 -0.0948  0.0239
 6272DDP     P237629  11.188   1.060   2.686  0.0870  0.2797  0.0323
 6272DDP     C237630  10.779   1.070   2.371 -0.3143  0.1877  0.1558
 6272DDP     C337631  11.161   1.770   2.898 -0.1144 -0.2551 -0.3399
 6272DDP     C437632  11.565   0.665   3.275  0.3411 -0.1963  0.0530
 6273DDP     C137633  15.804  21.386   8.149 -0.1679  0.0722 -0.0645
 6273DDP     P137634  15.561  21.725   8.010 -0.0844  0.4118  0.0309
 6273DDP     P237635  15.721  21.021   8.442  0.1077 -0.0551 -0.2951
 6273DDP     C237636  15.908  20.569   8.188 -0.2972 -0.1337 -0.2387
 6273DDP     C337637  15.295  22.074   7.937 -0.0320  0.2005  0.0795
 6273DDP     C437638  16.214  21.225   7.982  0.3438 -0.0271 -0.1102
 6274DDP     C137639  21.891   3.976  18.751 -0.0069  0.1607 -0.2288
 6274DDP     P137640  22.031   3.721  19.047 -0.1640  0.1998 -0.0345
 6274DDP     P237641  21.461   4.076  18.687 -0.3332  0.2777 -0.3337
 6274DDP     C237642  21.281   4.410  18.601 -0.1569  0.0022  0.3044
 6274DDP     C337643  21.893   3.203  19.221 -0.1417 -0.0946 -0.0254
 6274DDP     C437644  22.265   4.098  18.476  0.2909 -0.0529  0.0629
 6275DDP     C137645  10.271  13.189  26.037  0.2177  0.1194 -0.0424
 6275DDP     P137646  10.190  13.308  26.404 -0.3485 -0.0988 -0.1646
 6275DDP     P237647  10.068  13.360  25.777  0.0829 -0.3821 -0.1062
 6275DDP     C237648  10.052  13.339  25.321 -0.0445 -0.2841  0.1285
 6275DDP     C337649  10.245  13.201  26.853 -0.1869 -0.0007  0.2422
 6275DDP     C437650  10.466  12.823  26.048 -0.2550 -0.2686 -0.0782
 6276DDP     C137651   1.341   7.564  21.858 -0.1437 -0.1992 -0.3573
 6276DDP     P137652   1.242   7.594  21.468  0.2009  0.0459 -0.2465
 6276DDP     P237653   1.278   7.926  22.170 -0.0952  0.2028 -0.2087
 6276DDP     C237654   1.079   8.326  22.486 -0.0136  0.3014  0.2877
 6276DDP     C337655   1.056   7.913  21.099 -0.0300  0.0340 -0.0021
 6276DDP     C437656   1.638   7.282  22.050  0.0102  0.1013 -0.1359
 6277DDP     C137657  18.074  11.143  23.456 -0.0859 -0.0851  0.0965
 6277DDP     P137658  18.120  11.357  23.169  0.1624  0.2761  0.0203
 6277DDP     P237659  17.639  10.941  23.665 -0.1818 -0.1079 -0.0984
 6277DDP     C237660  17.640  10.868  24.125  0.0870  0.0384  0.0829
 6277DDP     C337661  18.392  11.531  22.820 -0.1958  0.2010 -0.0850
 6277DDP     C437662  18.465  11.166  23.648 -0.1643 -0.1350 -0.2207
 6278DDP     C137663  19.021  24.148  10.252  0.0892 -0.0617 -0.0885
 6278DDP     P137664  19.503  24.280  10.144  0.4282 -0.2045  0.0198
 6278DDP     P237665  18.685  23.972   9.893 -0.0018 -0.1094  0.2189
 6278DDP     C237666  18.209  24.036   9.712 -0.2822  0.2413  0.0462
 6278DDP     C337667  19.793  24.536   9.978 -0.0701  0.2778  0.1839
 6278DDP     C437668  18.850  23.958  10.551  0.2361 -0.0995 -0.1004
 6279DDP     C137669   0.386  22.681   0.143 -0.3365 -0.1553 -0.2009
 6279DDP     P137670   0.289  22.987  30.122  0.0777  0.0395  0.0552
 6279DDP     P237671   0.138  22.365   0.288  0.0418 -0.2974  0.1344
 6279DDP     C237672  30.045  22.404   0.304  0.0157  0.0253 -0.1102
 6279DDP     C337673   0.051  23.329  30.207  0.1251 -0.0991  0.2001
 6279DDP     C437674   0.738  22.790   0.447  0.1595 -0.0007  0.3528
 6280DDP     C137675  19.644  19.075  21.429 -0.1506  0.3021 -0.0212
 6280DDP     P137676  19.775  18.685  21.752  0.2506 -0.0662  0.0799
 6280DDP     P237677  19.777  19.426  21.586 -0.1476  0.2959 -0.0582
 6280DDP     C237678  19.870  19.882  21.543  0.2317 -0.2135 -0.0772
 6280DDP     C337679  19.384  18.397  21.794 -0.2762  0.0753  0.0952
 6280DDP     C437680  19.455  19.187  21.058  0.2018 -0.0536 -0.1951
 6281DDP     C137681   9.876  24.949   3.491  0.1428 -0.1065 -0.0143
 6281DDP     P137682  10.191  25.076   3.811 -0.0837 -0.0321  0.1931
 6281DDP     P237683   9.795  25.349   3.274 -0.1186 -0.2904 -0.1121
 6281DDP     C237684   9.993  25.576   2.955 -0.1823 -0.1103  0.3811
 6281DDP     C337685  10.431  25.353   4.112 -0.1645 -0.0123  0.0270
 6281DDP     C437686   9.737  24.478   3.461 -0.0146  0.0600  0.1018
 6282DDP     C137687   7.782   3.041  17.190  0.0157  0.1699 -0.0406
 6282DDP     P137688   7.493   2.687  17.048 -0.1633  0.2067  0.0586
 6282DDP     P237689   7.466   3.234  17.389  0.1609  0.1422  0.2474
 6282DDP     C237690   7.388   3.718  17.545 -0.0032  0.2917 -0.2358
 6282DDP     C337691   7.042   2.454  17.045 -0.1385 -0.0254 -0.1827
 6282DDP     C437692   8.193   3.054  17.125  0.2320  0.0171 -0.2196
 6283DDP     C137693  14.566   9.056  21.828  0.0531 -0.2510 -0.2807
 6283DDP     P137694  14.484   8.797  21.477  0.1099  0.4476  0.3855
 6283DDP     P237695  14.452   8.937  22.215  0.0449 -0.1063 -0.2445
 6283DDP     C237696  14.092   8.795  22.444 -0.1674 -0.1845 -0.3210
 6283DDP     C337697  14.630   8.527  21.069 -0.0688  0.0077 -0.2409
 6283DDP     C437698  14.781   9.502  21.809  0.2136 -0.5100 -0.1002
 6284DDP     C137699   2.508  25.452   9.154 -0.1249  0.0234 -0.1230
 6284DDP     P137700   2.431  25.623   8.701  0.1425  0.1938 -0.0639
 6284DDP     P237701   2.783  25.098   9.275 -0.0676 -0.1085 -0.2583
 6284DDP     C237702   3.207  24.962   9.360  0.0481  0.1179  0.0570
 6284DDP     C337703   2.256  25.957   8.394 -0.1132  0.0481  0.0090
 6284DDP     C437704   2.140  25.485   9.384  0.0961  0.3424 -0.0741
 6285DDP     C137705   4.673  23.072  19.794 -0.0689  0.2146  0.0320
 6285DDP     P137706   4.632  23.055  19.365 -0.1540  0.1585 -0.0719
 6285DDP     P237707   5.018  22.770  19.973  0.2554 -0.1060  0.4145
 6285DDP     C237708   5.200  22.744  20.354  0.0161  0.0935 -0.1917
 6285DDP     C337709   4.318  22.906  18.978  0.1880  0.4866 -0.1898
 6285DDP     C437710   4.351  23.030  20.111  0.2168 -0.0976 -0.2027
 6286DDP     C137711   4.026  12.315   0.796  0.2911 -0.2379 -0.3361
 6286DDP     P137712   4.167  12.476   0.369  0.0201 -0.1620  0.1966
 6286DDP     P237713   4.452  12.204   1.006  0.0688 -0.1310 -0.2221
 6286DDP     C237714   4.876  12.293   0.925  0.1936  0.4569  0.0998
 6286DDP     C337715   3.846  12.352   0.021 -0.0189 -0.2487 -0.2800
 6286DDP     C437716   3.709  12.152   0.915 -0.2686  0.0006  0.1997
 6287DDP     C137717  11.116  17.270   0.011 -0.2006  0.0503 -0.0383
 6287DDP     P137718  10.746  17.274  30.090  0.0857  0.0443 -0.2576
 6287DDP     P237719  11.148  17.009   0.333  0.2208 -0.3760 -0.1572
 6287DDP     C237720  11.254  16.532   0.402  0.0491  0.0860  0.1095
 6287DDP     C337721  10.510  17.664  29.922  0.1174 -0.0165  0.1779
 6287DDP     C437722  11.504  17.556  -0.084  0.1446  0.0594 -0.3244
 6288DDP     C137723   3.882  10.795  28.851 -0.0016 -0.1134  0.1456
 6288DDP     P137724   3.625  10.739  28.442 -0.1420 -0.2994  0.0916
 6288DDP     P237725   3.989  11.209  28.887 -0.0695  0.4835 -0.0649
 6288DDP     C237726   3.761  11.580  28.992  0.1463  0.2767 -0.3660
 6288DDP     C337727   3.520  10.275  28.285  0.0894  0.2201  0.2034
 6288DDP     C437728   3.951  10.433  29.049  0.1833 -0.2561  0.0556
 6289DDP     C137729  13.995  21.539  21.883  0.0092  0.1577 -0.1315
 6289DDP     P137730  14.350  21.519  21.570  0.1724 -0.0994  0.1610
 6289DDP     P237731  13.716  22.009  21.841 -0.2500  0.2617 -0.2040
 6289DDP     C237732  13.506  22.237  22.233 -0.2936  0.4680 -0.3643
 6289DDP     C337733  14.586  21.435  21.247  0.1697  0.1485  0.1340
 6289DDP     C437734  13.864  21.184  22.131  0.0594 -0.1823 -0.0581
 6290DDP     C137735  12.302  10.134   3.325  0.0124  0.4143  0.1389
 6290DDP     P137736  12.668  10.193   2.982 -0.1687  0.0564  0.0009
 6290DDP     P237737  12.133   9.696   3.313  0.1302  0.0159  0.2142
 6290DDP     C237738  12.091   9.382   3.605  0.1408  0.1868  0.1964
 6290DDP     C337739  13.107   9.930   2.890 -0.1616  0.1852 -0.1865
 6290DDP     C437740  12.048  10.584   3.414  0.0119  0.0556  0.0224
 6291DDP     C137741  13.006  12.743   6.296 -0.2007 -0.4691 -0.3103
 6291DDP     P137742  12.985  13.130   6.422  0.1249  0.0854 -0.0955
 6291DDP     P237743  13.423  12.530   6.318 -0.0798  0.0370  0.3101
 6291DDP     C237744  13.848  12.462   6.275  0.0072 -0.1460 -0.0310
 6291DDP     C337745  12.934  13.551   6.408 -0.2192  0.0575 -0.1030
 6291DDP     C437746  12.614  12.558   6.150 -0.0400 -0.0677 -0.0276
 6292DDP     C137747  15.538  16.198  11.853 -0.1821 -0.2391  0.2602
 6292DDP     P137748  15.648  16.564  11.853  0.0285  0.1962 -0.1719
 6292DDP     P237749  15.341  15.878  11.640  0.2625  0.2774 -0.1125
 6292DDP     C237750  15.408  15.871  11.221  0.0429 -0.3698  0.1724
 6292DDP     C337751  15.607  17.017  12.018 -0.0529  0.0224  0.0114
 6292DDP     C437752  15.694  16.031  12.184 -0.0043 -0.0825  0.0711
 6293DDP     C137753  29.210  18.369   4.490 -0.0255 -0.1526  0.1674
 6293DDP     P137754  29.293  17.916   4.652 -0.3694 -0.2874  0.3535
 6293DDP     P237755  28.935  18.523   4.805 -0.0518  0.3178 -0.0968
 6293DDP     C237756  28.721  18.640   5.198 -0.0969 -0.4329 -0.1415
 6293DDP     C337757  29.712  17.833   4.916 -0.0120  0.1006  0.1609
 6293DDP     C437758  29.470  18.622   4.204 -0.3817  0.2342  0.2882
 6294DDP     C137759  13.360   6.051  12.184 -0.0549 -0.0903 -0.0076
 6294DDP     P137760  13.108   5.713  12.012 -0.1984 -0.3392  0.0250
 6294DDP     P237761  13.187   6.391  12.462  0.0112 -0.3159 -0.0602
 6294DDP     C237762  12.913   6.706  12.713  0.1557  0.1700 -0.0923
 6294DDP     C337763  13.086   5.350  11.811 -0.1357  0.1574  0.1187
 6294DDP     C437764  13.783   6.019  12.154 -0.0077 -0.0903 -0.1469
 6295DDP     C137765   8.587   8.967  26.692  0.0377 -0.0249  0.0007
 6295DDP     P137766   9.038   8.957  26.644  0.0635 -0.1338  0.1947
 6295DDP     P237767   8.403   9.276  26.354  0.1410  0.2490  0.0768
 6295DDP     C237768   8.260   9.427  25.993  0.0479  0.1143  0.1556
 6295DDP     C337769   9.302   8.862  26.259  0.0389 -0.0920 -0.2116
 6295DDP     C437770   8.345   8.648  26.772  0.1132 -0.2492  0.1092
 6296DDP     C137771  11.528  26.342  22.934 -0.1669 -0.0314 -0.1216
 6296DDP     P137772  11.464  26.708  23.128  0.0106  0.0228 -0.0278
 6296DDP     P237773  11.864  26.094  23.003  0.0064 -0.0255 -0.0770
 6296DDP     C237774  12.164  25.782  23.214  0.1325  0.2260 -0.0433
 6296DDP     C337775  11.365  27.099  22.997  0.5330 -0.1470  0.0558
 6296DDP     C437776  11.399  26.009  22.635 -0.2368 -0.0088 -0.1207
 6297DDP     C137777  23.331   7.638  10.845 -0.0117  0.0639  0.2535
 6297DDP     P137778  23.495   7.465  11.252  0.0120 -0.0369 -0.2481
 6297DDP     P237779  23.620   7.902  10.537 -0.3050 -0.1192 -0.1661
 6297DDP     C237780  23.834   7.769  10.146 -0.1663  0.1845 -0.2462
 6297DDP     C337781  23.532   7.350  11.706  0.0065 -0.0672 -0.1501
 6297DDP     C437782  23.045   7.508  10.535  0.0099 -0.0142 -0.0228
 6298DDP     C137783   0.765   2.844   8.672 -0.2666 -0.1296  0.2972
 6298DDP     P137784   1.189   2.710   8.447 -0.0331  0.0443  0.0914
 6298DDP     P237785   0.414   2.567   8.732  0.2990 -0.0595  0.2830
 6298DDP     C237786   0.102   2.442   9.061 -0.3051  0.0728  0.4648
 6298DDP     C337787   1.612   2.630   8.206  0.0909 -0.0467 -0.2298
 6298DDP     C437788   0.812   3.181   8.905 -0.3390 -0.0891  0.0869
 6299DDP     C137789  29.817  28.849   1.712  0.1518  0.0931  0.2292
 6299DDP     P137790  30.032  28.650   1.976 -0.2733 -0.2101 -0.0270
 6299DDP     P237791  29.440  28.963   1.913  0.0267  0.1304  0.0938
 6299DDP     C237792  29.201  29.208   2.164 -0.0623  0.3308 -0.2251
 6299DDP     C337793  30.131  28.478   2.401 -0.0610  0.0013 -0.0316
 6299DDP     C437794  29.968  29.031   1.444 -0.1989 -0.1760  0.0860
 6300DDP     C137795   2.068   8.330  16.904 -0.2718  0.1839  0.0599
 6300DDP     P137796   2.156   8.537  16.540 -0.0201 -0.2165  0.3964
 6300DDP     P237797   2.463   8.163  17.225  0.1086 -0.2219  0.3152
 6300DDP     C237798   2.767   8.479  17.314 -0.0569  0.3626 -0.0197
 6300DDP     C337799   2.286   8.498  16.103 -0.0255 -0.2137 -0.2926
 6300DDP     C437800   1.721   8.071  16.773 -0.1118  0.2218 -0.0657
 6301DDP     C137801  25.144  14.507  20.915 -0.0355  0.0480 -0.1260
 6301DDP     P137802  24.978  14.205  21.240  0.3561 -0.3112  0.3123
 6301DDP     P237803  24.875  14.372  20.588  0.0258  0.0912 -0.0385
 6301DDP     C237804  24.442  14.431  20.417  0.0451  0.0806  0.0642
 6301DDP     C337805  24.731  13.953  21.508 -0.1167 -0.2566  0.0988
 6301DDP     C437806  25.425  14.737  20.822  0.0187  0.1148 -0.4064
 6302DDP     C137807  20.310  28.299   4.131  0.0502  0.2701 -0.1677
 6302DDP     P137808  20.492  28.314   4.500 -0.1018  0.1370  0.4182
 6302DDP     P237809  20.023  28.644   3.899  0.0691  0.0797 -0.1089
 6302DDP     C237810  19.877  28.776   3.563 -0.0485  0.0851 -0.2378
 6302DDP     C337811  20.686  28.569   4.713  0.0374  0.2100 -0.0750
 6302DDP     C437812  20.340  27.876   3.905  0.0147 -0.1017 -0.4089
 6303DDP     C137813   8.271  19.936  22.674 -0.0029 -0.0367 -0.5878
 6303DDP     P137814   8.075  19.490  22.540 -0.0201  0.2439 -0.1094
 6303DDP     P237815   8.477  19.664  22.947 -0.2818 -0.2811  0.5283
 6303DDP     C237816   8.646  19.368  23.242 -0.1312  0.1249  0.1879
 6303DDP     C337817   8.048  19.079  22.299 -0.0695  0.1308 -0.3323
 6303DDP     C437818   8.213  20.338  22.600  0.0882  0.0166  0.0412
 6304DDP     C137819   6.231   7.400   9.417  0.4330  0.4613  0.3588
 6304DDP     P137820   6.227   7.633   9.078 -0.1153 -0.1495  0.1159
 6304DDP     P237821   5.944   7.397   9.720 -0.0167 -0.2170 -0.3098
 6304DDP     C237822   5.558   7.311   9.712  0.3059  0.1298  0.3153
 6304DDP     C337823   6.397   7.934   8.776  0.0777 -0.1614  0.0205
 6304DDP     C437824   6.596   7.202   9.480 -0.0857 -0.0660  0.0321
 6305DDP     C137825   9.564  16.890   5.748  0.1264 -0.0616 -0.0705
 6305DDP     P137826   9.520  16.501   5.913  0.0469 -0.3814 -0.0597
 6305DDP     P237827   9.351  16.931   5.336  0.1845  0.1115 -0.1025
 6305DDP     C237828   9.124  17.079   4.942  0.0669 -0.2333  0.0433
 6305DDP     C337829   9.516  16.040   6.144  0.1178 -0.1714 -0.0415
 6305DDP     C437830   9.774  17.218   6.001  0.0086 -0.0433  0.1156
 6306DDP     C137831  29.116  11.873  13.719  0.2294  0.1402  0.0275
 6306DDP     P137832  29.350  11.977  13.301  0.0453 -0.2548  0.2864
 6306DDP     P237833  28.649  11.611  13.675  0.0562  0.1745  0.0156
 6306DDP     C237834  28.564  11.422  13.343  0.0453 -0.2410 -0.0579
 6306DDP     C337835  29.458  12.238  13.009 -0.1068  0.1950 -0.2590
 6306DDP     C437836  29.401  11.853  14.088  0.2616  0.0249 -0.0534
 6307DDP     C137837   5.445  12.967  14.950  0.3899 -0.1144 -0.2682
 6307DDP     P137838   5.316  12.467  14.998  0.2054 -0.2123  0.1267
 6307DDP     P237839   5.947  13.057  15.029  0.2076 -0.1197 -0.0981
 6307DDP     C237840   6.393  13.077  15.218 -0.1733 -0.0214 -0.0760
 6307DDP     C337841   5.543  12.059  15.162 -0.1033  0.0012  0.5232
 6307DDP     C437842   5.073  13.313  14.933 -0.1048 -0.1274  0.0378
 6308DDP     C137843  16.643   7.334   7.462 -0.0476  0.0231 -0.1997
 6308DDP     P137844  16.378   7.418   7.767  0.0892 -0.0374 -0.2190
 6308DDP     P237845  16.564   7.166   7.103  0.1721 -0.1651 -0.1450
 6308DDP     C237846  16.745   6.877   6.724 -0.2294  0.0172  0.1288
 6308DDP     C337847  16.092   7.805   7.784 -0.0995 -0.2161 -0.1062
 6308DDP     C437848  17.167   7.446   7.490  0.1827 -0.2703 -0.2949
 6309DDP     C137849  28.446   8.769  18.081  0.3550 -0.0420  0.0945
 6309DDP     P137850  27.907   8.734  18.118  0.0400  0.0096  0.0872
 6309DDP     P237851  28.613   8.451  18.340 -0.2206  0.0266 -0.0794
 6309DDP     C237852  28.593   8.443  18.772  0.0536 -0.1090 -0.1251
 6309DDP     C337853  27.540   8.865  18.105 -0.0152  0.0240 -0.1654
 6309DDP     C437854  28.580   8.781  17.687  0.1804 -0.0524  0.1085
 6310DDP     C137855  11.370   4.992   1.618  0.3253  0.0896  0.2005
 6310DDP     P137856  11.669   5.046   1.371 -0.0203 -0.0297  0.1236
 6310DDP     P237857  10.963   4.849   1.549 -0.0266  0.0055 -0.1236
 6310DDP     C237858  10.729   4.385   1.463  0.1330  0.1219 -0.0490
 6310DDP     C337859  12.065   5.182   1.059 -0.2846  0.2846  0.2827
 6310DDP     C437860  11.499   4.867   1.980 -0.0471  0.3116 -0.1031
 6311DDP     C137861   1.443  16.705  23.912  0.3138  0.1929  0.1894
 6311DDP     P137862   1.126  16.641  23.635 -0.0374  0.2952  0.1976
 6311DDP     P237863   1.412  16.832  24.369 -0.4109  0.0189  0.1093
 6311DDP     C237864   1.460  16.535  24.635  0.1322  0.2390 -0.0854
 6311DDP     C337865   0.728  16.387  23.513 -0.0257 -0.2197  0.1029
 6311DDP     C437866   1.910  16.648  23.786 -0.1378  0.0765 -0.0040
 6312DDP     C137867  18.720  23.760  11.619  0.0664 -0.0568 -0.0760
 6312DDP     P137868  19.010  24.114  11.650 -0.0764 -0.1198  0.2097
 6312DDP     P237869  18.399  23.934  11.343  0.1022 -0.3968 -0.3257
 6312DDP     C237870  18.502  24.066  10.921  0.0263  0.0151 -0.0821
 6312DDP     C337871  19.474  24.127  11.714 -0.2342  0.1643 -0.0020
 6312DDP     C437872  18.580  23.507  12.000 -0.2666  0.1880 -0.0624
 6313DDP     C137873  19.480   9.278  22.684  0.2270 -0.1094  0.0766
 6313DDP     P137874  19.626   9.419  23.078 -0.1764 -0.0254 -0.0602
 6313DDP     P237875  19.100   9.656  22.597  0.0535 -0.1455 -0.0305
 6313DDP     C237876  18.707   9.702  22.694 -0.0941  0.1008 -0.3107
 6313DDP     C337877  19.554   9.122  23.366  0.0919 -0.3727  0.2250
 6313DDP     C437878  19.718   8.957  22.406  0.2524  0.1146  0.0006
 6314DDP     C137879  22.695   8.133  15.795 -0.0461  0.2428  0.2610
 6314DDP     P137880  22.428   8.338  16.043  0.0493  0.0614  0.0170
 6314DDP     P237881  22.795   7.605  15.856  0.0933 -0.1117  0.0630
 6314DDP     C237882  23.157   7.436  15.904 -0.0649  0.0282  0.2819
 6314DDP     C337883  22.220   8.604  16.331 -0.3876  0.1729  0.1037
 6314DDP     C437884  22.873   8.483  15.469 -0.1138  0.2243 -0.3233
 6315DDP     C137885  18.160  17.377   9.147  0.1038 -0.1995  0.3065
 6315DDP     P137886  18.142  17.440   9.592  0.0329 -0.2384 -0.1792
 6315DDP     P237887  17.874  17.746   9.118 -0.0016 -0.1022 -0.0994
 6315DDP     C237888  17.894  18.150   9.121  0.0139 -0.1889 -0.2868
 6315DDP     C337889  17.853  17.452   9.769  0.0303  0.2329  0.1172
 6315DDP     C437890  18.331  17.032   9.059  0.4560 -0.2282  0.0099
 6316DDP     C137891  12.655   6.163  18.458 -0.0558  0.4557  0.1307
 6316DDP     P137892  13.117   6.130  18.557 -0.0649 -0.1239 -0.0187
 6316DDP     P237893  12.591   6.629  18.453  0.0528 -0.0292 -0.1491
 6316DDP     C237894  12.703   7.053  18.590 -0.0531 -0.1212 -0.3397
 6316DDP     C337895  13.504   6.314  18.737 -0.0937  0.0508  0.0171
 6316DDP     C437896  12.302   5.825  18.362  0.3582  0.2102 -0.0368
 6317DDP     C137897   1.616  21.194  11.942  0.1711  0.1283  0.0016
 6317DDP     P137898   1.816  21.041  11.527  0.3618  0.1837 -0.3345
 6317DDP     P237899   1.362  21.627  11.960  0.0046 -0.0059  0.0301
 6317DDP     C237900   1.116  21.883  12.062  0.1773  0.0013 -0.2613
 6317DDP     C337901   1.665  20.709  11.148 -0.1781 -0.0351 -0.0781
 6317DDP     C437902   1.617  20.846  12.235 -0.4065 -0.1063  0.3487
 6318DDP     C137903  19.123  22.133  26.139  0.2466 -0.0393 -0.0636
 6318DDP     P137904  19.651  22.143  26.045 -0.1754  0.0438 -0.0539
 6318DDP     P237905  18.846  21.730  26.102  0.0197  0.1498  0.1322
 6318DDP     C237906  18.613  21.407  25.890 -0.0458  0.1456  0.1120
 6318DDP     C337907  19.910  22.238  25.754  0.3172  0.2056 -0.1067
 6318DDP     C437908  18.905  22.523  26.225  0.1125  0.2019  0.0353
 6319DDP     C137909   8.320   7.004  10.159 -0.2185 -0.0920  0.1098
 6319DDP     P137910   8.508   6.551  10.028 -0.1949  0.2377 -0.2170
 6319DDP     P237911   7.777   7.071  10.304 -0.1981 -0.3350  0.3063
 6319DDP     C237912   7.332   6.848  10.279  0.2606 -0.1440  0.0167
 6319DDP     C337913   8.256   6.174  10.008  0.0604 -0.3286  0.0211
 6319DDP     C437914   8.591   7.365  10.107 -0.3221 -0.2083  0.0814
 6320DDP     C137915  28.260   9.618   5.985 -0.0101 -0.6039 -0.0987
 6320DDP     P137916  28.224  10.082   6.201  0.0625  0.2555 -0.0287
 6320DDP     P237917  28.742   9.481   6.021  0.2072  0.2837 -0.0438
 6320DDP     C237918  28.878   9.103   5.822 -0.2033 -0.1341  0.1660
 6320DDP     C337919  28.165  10.449   6.537  0.4145  0.1408 -0.1080
 6320DDP     C437920  28.065   9.751   5.622 -0.2149  0.2886  0.1318
 6321DDP     C137921  24.438   9.602  21.061  0.2472  0.0494  0.4547
 6321DDP     P137922  24.820   9.723  20.833  0.0111 -0.3838 -0.1029
 6321DDP     P237923  23.989   9.569  20.924  0.2236 -0.1132 -0.0607
 6321DDP     C237924  23.730   9.765  20.629 -0.1734  0.2036  0.1025
 6321DDP     C337925  25.293   9.880  20.840 -0.0434 -0.0834  0.1689
 6321DDP     C437926  24.533   9.674  21.491  0.0776 -0.0523 -0.1937
 6322DDP     C137927  27.649   4.686   9.625 -0.0629  0.0169  0.2197
 6322DDP     P137928  27.805   5.019   9.828  0.2345 -0.1523 -0.1007
 6322DDP     P237929  27.342   4.676   9.381  0.2195  0.2115  0.0440
 6322DDP     C237930  27.070   4.964   9.120 -0.1446  0.0174  0.1327
 6322DDP     C337931  27.636   5.361  10.130  0.1384 -0.0493  0.3563
 6322DDP     C437932  28.093   4.471   9.604  0.0703  0.2392 -0.4269
 6323DDP     C137933  24.707   8.984  26.998 -0.2011 -0.2335  0.0062
 6323DDP     P137934  24.684   9.080  26.653  0.1308  0.1409  0.2135
 6323DDP     P237935  24.588   9.313  27.291  0.0697 -0.2705 -0.0449
 6323DDP     C237936  24.528   9.580  27.653  0.0653  0.2731  0.3327
 6323DDP     C337937  24.684   9.510  26.543 -0.0962  0.0813 -0.1121
 6323DDP     C437938  24.664   8.546  27.007  0.0846 -0.0545  0.0552
 6324DDP     C137939  18.642  13.361   1.610 -0.0863  0.0404  0.1527
 6324DDP     P137940  18.894  13.142   1.447 -0.0902  0.1739  0.0085
 6324DDP     P237941  18.227  13.421   1.497  0.1725  0.0435  0.3264
 6324DDP     C237942  17.823  13.338   1.658  0.1941  0.1592  0.2516
 6324DDP     C337943  19.088  12.703   1.455  0.0485  0.1175  0.3472
 6324DDP     C437944  18.840  13.704   1.839 -0.1228  0.3236 -0.0199
 6325DDP     C137945  10.218  28.051   4.877  0.0177 -0.1858  0.0279
 6325DDP     P137946  10.389  28.328   5.136  0.2987 -0.0038 -0.0038
 6325DDP     P237947   9.806  27.980   4.829 -0.0396 -0.0410 -0.1684
 6325DDP     C237948   9.749  27.957   4.507  0.0147  0.1787 -0.2052
 6325DDP     C337949  10.630  28.664   4.946  0.0688 -0.1847 -0.0589
 6325DDP     C437950  10.358  27.653   4.639 -0.1482 -0.1949 -0.1771
 6326DDP     C137951   5.948  16.698  29.770 -0.3019  0.0950  0.0480
 6326DDP     P137952   5.966  16.236  29.622  0.3519 -0.0615 -0.1586
 6326DDP     P237953   6.255  16.961  29.748  0.1699  0.2203 -0.1875
 6326DDP     C237954   6.403  17.331  29.844  0.0678 -0.2922 -0.0918
 6326DDP     C337955   5.897  15.825  29.707 -0.1210 -0.0585 -0.1430
 6326DDP     C437956   5.600  16.662  30.142  0.0760 -0.1554 -0.0779
 6327DDP     C137957  10.866   1.080   5.870  0.0950  0.0149  0.1603
 6327DDP     P137958  10.913   1.384   5.820 -0.1049 -0.1614 -0.2527
 6327DDP     P237959  11.141   0.916   5.663  0.0322  0.2486 -0.4278
 6327DDP     C237960  11.105   0.473   5.560  0.2803 -0.0898 -0.0709
 6327DDP     C337961  10.702   1.770   6.078  0.0560  0.1757 -0.0110
 6327DDP     C437962  10.520   0.851   5.935 -0.0927  0.0930 -0.0515
 6328DDP     C137963  23.120   9.476   8.782  0.3045  0.2450 -0.1872
 6328DDP     P137964  22.883   9.840   8.600 -0.0133  0.0378 -0.2882
 6328DDP     P237965  23.510   9.364   8.862 -0.1893  0.1156 -0.1326
 6328DDP     C237966  23.740   9.179   9.164 -0.2965  0.1203  0.1957
 6328DDP     C337967  22.468  10.024   8.637 -0.3183 -0.1249  0.0534
 6328DDP     C437968  22.776   9.204   8.981 -0.1304  0.0538  0.0297
 6329DDP     C137969   1.519  16.087   1.573  0.1832  0.1792 -0.0411
 6329DDP     P137970   1.871  16.292   1.645  0.0162 -0.1887  0.2280
 6329DDP     P237971   1.252  15.965   1.801 -0.0691  0.2585  0.0689
 6329DDP     C237972   0.939  15.806   2.081  0.1796 -0.0090  0.0576
 6329DDP     C337973   2.332  16.318   1.664 -0.2328 -0.4305  0.0326
 6329DDP     C437974   1.299  16.051   1.184  0.2753 -0.2955  0.0105
 6330DDP     C137975  13.838  25.208   1.367  0.1131 -0.4022  0.0488
 6330DDP     P137976  14.147  25.326   1.614 -0.1522 -0.0725  0.1961
 6330DDP     P237977  13.862  24.803   1.434 -0.1152  0.2642  0.1026
 6330DDP     C237978  13.494  24.669   1.653  0.0068 -0.1973 -0.1502
 6330DDP     C337979  14.223  25.763   1.858  0.1510 -0.2214  0.2491
 6330DDP     C437980  13.502  25.504   1.277  0.1979 -0.2151 -0.0004
 6331DDP     C137981   3.987   9.616   9.251  0.0441  0.2945 -0.1576
 6331DDP     P137982   3.719   9.527   8.985  0.0438 -0.0817  0.1087
 6331DDP     P237983   3.891   9.696   9.577 -0.1583  0.0437  0.1040
 6331DDP     C237984   3.525   9.680   9.817  0.1249 -0.2531  0.2506
 6331DDP     C337985   3.489   9.176   8.860 -0.1658  0.2478  0.2525
 6331DDP     C437986   4.279   9.708   9.117  0.1005 -0.0868  0.0304
 6332DDP     C137987  30.217  13.850   7.566  0.1219 -0.0939  0.1975
 6332DDP     P137988   0.264  14.135   7.608  0.1335 -0.1648 -0.0961
 6332DDP     P237989  29.781  13.843   7.509 -0.3843  0.0910  0.0478
 6332DDP     C237990  29.421  13.780   7.223 -0.2100  0.1963 -0.2779
 6332DDP     C337991   0.716  14.327   7.796  0.1621  0.4303  0.1215
 6332DDP     C437992  30.166  13.412   7.568 -0.2611  0.4901  0.1939
 6333DDP     C137993  30.210  27.810   2.060  0.3307  0.4002  0.0446
 6333DDP     P137994  29.944  28.110   2.061 -0.3635 -0.0085  0.2792
 6333DDP     P237995   0.147  27.863   1.716 -0.0811 -0.2083  0.0463
 6333DDP     C237996   0.521  27.856   1.601  0.1056  0.3142  0.0833
 6333DDP     C337997  29.665  28.358   1.846 -0.0390  0.0086  0.0748
 6333DDP     C437998  30.076  27.372   2.162 -0.0147 -0.1309  0.0703
 6334DDP     C137999  12.789   3.053  10.510  0.0085  0.3227 -0.1918
 6334DDP     P138000  12.647   2.700  10.222 -0.0213  0.1259  0.5337
 6334DDP     P238001  13.126   3.297  10.372  0.2843 -0.0484 -0.0326
 6334DDP     C238002  13.301   3.650  10.539 -0.0170 -0.1008  0.2153
 6334DDP     C338003  12.500   2.562   9.874 -0.0221  0.1403 -0.4010
 6334DDP     C438004  12.619   2.986  10.927 -0.2150 -0.1902 -0.2396
 6335DDP     C138005   3.855  24.175   8.894  0.4234 -0.1724  0.0241
 6335DDP     P138006   3.942  24.441   9.217 -0.2398 -0.1734  0.1321
 6335DDP     P238007   3.961  24.277   8.420 -0.0287 -0.1181 -0.0764
 6335DDP     C238008   4.214  24.629   8.416  0.2521  0.2329 -0.2696
 6335DDP     C338009   4.097  24.284   9.575  0.3363  0.0127  0.2051
 6335DDP     C438010   3.589  23.779   9.036  0.3541  0.0564  0.1844
 6336DDP     C138011  22.653  23.078   3.136  0.1656  0.0329 -0.0666
 6336DDP     P138012  22.680  23.435   3.454 -0.0549 -0.1576 -0.3396
 6336DDP     P238013  23.026  22.917   3.112 -0.1519 -0.0242  0.2651
 6336DDP     C238014  23.347  23.009   2.849 -0.1533  0.1468  0.0446
 6336DDP     C338015  22.514  23.877   3.644  0.0101  0.2195 -0.1328
 6336DDP     C438016  22.418  22.995   2.715  0.4221 -0.0233 -0.0216
 6337DDP     C138017   3.075  24.495  17.095  0.0140  0.2789 -0.0453
 6337DDP     P138018   3.302  24.264  17.424 -0.3830 -0.2010  0.1681
 6337DDP     P238019   3.053  24.973  17.115 -0.0576 -0.0065  0.0891
 6337DDP     C238020   2.991  25.324  16.860  0.3604 -0.1866 -0.2627
 6337DDP     C338021   3.446  24.008  17.706 -0.3487  0.2431 -0.0571
 6337DDP     C438022   2.948  24.267  16.794 -0.2111 -0.2563  0.1918
 6338DDP     C138023  11.392  14.864  15.538  0.3570 -0.0523  0.1850
 6338DDP     P138024  11.766  15.014  15.823  0.1390  0.3029 -0.1494
 6338DDP     P238025  10.897  14.985  15.582 -0.2145  0.2306 -0.2571
 6338DDP     C238026  10.642  14.763  15.991  0.0262  0.0699  0.2670
 6338DDP     C338027  12.055  15.180  16.050 -0.0186 -0.2174  0.0552
 6338DDP     C438028  11.595  14.567  15.246  0.1737 -0.1176  0.2521
 6339DDP     C138029  10.272  25.218  11.737 -0.1892 -0.0463  0.0981
 6339DDP     P138030  10.318  24.794  11.632  0.1823  0.1500 -0.1622
 6339DDP     P238031  10.115  25.460  11.417  0.1004  0.1586 -0.1026
 6339DDP     C238032  10.145  25.435  11.007 -0.2941  0.3339  0.0005
 6339DDP     C338033  10.522  24.584  11.205 -0.0984 -0.1681 -0.1679
 6339DDP     C438034  10.226  25.273  12.225  0.0788 -0.2371 -0.2176
 6340DDP     C138035  12.695  22.955  18.679 -0.0040  0.2152 -0.3127
 6340DDP     P138036  12.743  23.148  18.314  0.2307 -0.1463  0.2557
 6340DDP     P238037  12.979  23.159  18.956  0.1251  0.1035  0.1892
 6340DDP     C238038  13.289  23.392  19.181 -0.2855 -0.0971  0.0705
 6340DDP     C338039  12.913  23.384  17.925  0.0500  0.3162 -0.0941
 6340DDP     C438040  12.573  22.547  18.580  0.2208 -0.0890  0.0987
 6341DDP     C138041  28.636  14.607  26.116  0.0178 -0.1998  0.3447
 6341DDP     P138042  28.818  14.700  25.737 -0.2033  0.4393 -0.0616
 6341DDP     P238043  28.242  14.511  26.334  0.2142  0.2265  0.0544
 6341DDP     C238044  27.752  14.555  26.326  0.1694  0.0345 -0.1718
 6341DDP     C338045  28.751  14.813  25.325 -0.2536  0.2171 -0.0777
 6341DDP     C438046  29.115  14.532  26.419 -0.1882  0.2183 -0.2038
 6342DDP     C138047  19.183   4.197  16.785 -0.1069  0.1655  0.0200
 6342DDP     P138048  19.404   4.541  17.025  0.0836 -0.1489  0.0395
 6342DDP     P238049  18.881   4.259  16.410  0.0993  0.0712  0.1207
 6342DDP     C238050  18.646   4.339  16.062  0.1024  0.1441  0.2538
 6342DDP     C338051  19.625   4.715  17.244 -0.0715  0.1435 -0.2008
 6342DDP     C438052  19.111   3.748  16.906  0.1213  0.1509 -0.2145
 6343DDP     C138053   9.875  27.605  29.279  0.0092 -0.0176  0.1652
 6343DDP     P138054  10.120  27.706  29.612 -0.2249 -0.1499  0.1626
 6343DDP     P238055   9.643  27.767  29.066 -0.0501  0.0057  0.2094
 6343DDP     C238056   9.235  28.032  29.030 -0.0511  0.0177 -0.3788
 6343DDP     C338057   9.874  27.943  29.824 -0.0618  0.0431  0.0726
 6343DDP     C438058   9.967  27.153  29.138 -0.1868 -0.0173 -0.0098
 6344DDP     C138059  25.032  26.375  20.322  0.2751  0.1086 -0.0708
 6344DDP     P138060  24.749  26.779  20.147  0.2154 -0.2737  0.1132
 6344DDP     P238061  25.002  26.443  20.862  0.0797 -0.2805  0.2382
 6344DDP     C238062  25.010  26.287  21.208 -0.1663 -0.1188  0.0786
 6344DDP     C338063  24.768  26.842  19.694  0.0571  0.3550 -0.1052
 6344DDP     C438064  25.420  26.167  20.201 -0.0208 -0.0848 -0.1540
 6345DDP     C138065   4.317   6.899   9.887  0.1048  0.2468 -0.1999
 6345DDP     P138066   4.001   6.586   9.717  0.2109  0.1178  0.0945
 6345DDP     P238067   4.142   7.362   9.819  0.0102  0.0349  0.0823
 6345DDP     C238068   3.831   7.600   9.566  0.2582  0.0004  0.0349
 6345DDP     C338069   3.857   6.403   9.324 -0.2507 -0.3946  0.3750
 6345DDP     C438070   4.504   6.775  10.304  0.0078  0.0039  0.0029
 6346DDP     C138071   6.490  29.660  15.515  0.0687 -0.6458  0.0029
 6346DDP     P138072   6.233  29.867  15.853 -0.2833 -0.0260 -0.0797
 6346DDP     P238073   6.905  29.832  15.511 -0.0265 -0.1332  0.1059
 6346DDP     C238074   6.884  30.260  15.516 -0.0215 -0.0515  0.1727
 6346DDP     C338075   6.010  29.771  16.228  0.1040 -0.0689  0.2812
 6346DDP     C438076   6.334  29.624  15.114  0.0177  0.1208 -0.0549
 6347DDP     C138077  11.395  22.042  18.432  0.1234 -0.1335 -0.1557
 6347DDP     P138078  11.787  22.109  18.379 -0.1495  0.2495  0.4093
 6347DDP     P238079  11.254  22.184  18.808  0.1633 -0.1743  0.3313
 6347DDP     C238080  11.337  22.464  19.219  0.1143  0.1437 -0.2392
 6347DDP     C338081  12.053  22.387  18.643  0.4515 -0.0656  0.1206
 6347DDP     C438082  11.118  21.793  18.137  0.0998  0.0745 -0.3272
 6348DDP     C138083  28.419  22.296  16.226  0.1767 -0.4376  0.3065
 6348DDP     P138084  28.066  22.198  16.343 -0.0782 -0.2063 -0.1784
 6348DDP     P238085  28.520  22.724  16.067 -0.0071 -0.0146 -0.1928
 6348DDP     C238086  28.499  23.124  16.366  0.2506 -0.1374  0.1607
 6348DDP     C338087  27.621  22.191  16.425 -0.1070 -0.1669 -0.2475
 6348DDP     C438088  28.841  22.020  16.348  0.6767  0.0844 -0.3400
 6349DDP     C138089  25.063   4.056   9.387 -0.0776 -0.1406  0.2959
 6349DDP     P138090  25.035   3.858   9.683 -0.2532 -0.0638  0.0080
 6349DDP     P238091  24.787   4.234   9.072  0.2987 -0.1203 -0.2935
 6349DDP     C238092  24.574   4.569   8.887 -0.0241 -0.0041 -0.2241
 6349DDP     C338093  24.743   3.824  10.038 -0.1234 -0.0922 -0.0683
 6349DDP     C438094  25.531   4.173   9.307  0.2548 -0.1786 -0.2089
 6350DDP     C138095   4.966  19.944   4.919 -0.0045  0.3772  0.0178
 6350DDP     P138096   5.373  20.123   5.081 -0.2670  0.0046 -0.0254
 6350DDP     P238097   4.827  19.856   4.433 -0.0681 -0.1804  0.0549
 6350DDP     C238098   4.844  19.774   4.080  0.5536 -0.1084 -0.4690
 6350DDP     C338099   5.417  20.549   5.381 -0.3877  0.0634  0.1642
 6350DDP     C438100   4.736  19.736   5.219 -0.1094 -0.2204  0.0734
 6351DDP     C138101  16.550   4.202  29.552  0.0140 -0.3766 -0.2023
 6351DDP     P138102  16.190   4.441  29.316  0.0894 -0.1449 -0.1327
 6351DDP     P238103  16.906   4.401  29.686 -0.0666 -0.1706 -0.2373
 6351DDP     C238104  17.055   4.811  29.817  0.1040  0.1610 -0.0428
 6351DDP     C338105  16.191   4.876  29.060  0.1880 -0.1413  0.2457
 6351DDP     C438106  16.685   3.792  29.558 -0.2056  0.4112 -0.2035
 6352DDP     C138107   8.724  12.983  14.984  0.2734 -0.0174  0.1415
 6352DDP     P138108   9.256  13.072  14.949  0.2399 -0.1836  0.1613
 6352DDP     P238109   8.611  13.375  14.755  0.1887 -0.1023  0.1379
 6352DDP     C238110   8.389  13.698  14.537 -0.0557  0.3501 -0.0532
 6352DDP     C338111   9.563  13.432  14.919 -0.1377 -0.0243  0.0693
 6352DDP     C438112   8.598  12.544  14.888 -0.1731  0.0295  0.3602
 6353DDP     C138113  29.546  21.890  28.876  0.2686  0.2887 -0.2333
 6353DDP     P138114  29.470  21.421  28.961  0.0753  0.0145 -0.0778
 6353DDP     P238115  29.189  22.098  28.858 -0.0210 -0.0241  0.2414
 6353DDP     C238116  29.072  22.503  28.667 -0.1011 -0.3072 -0.3050
 6353DDP     C338117  29.614  21.007  28.836  0.2360 -0.1071  0.4912
 6353DDP     C438118  29.807  21.954  28.547 -0.1728  0.2633 -0.1121
 6354DDP     C138119  12.022  28.026  19.422 -0.2054  0.0464 -0.1248
 6354DDP     P138120  12.500  28.209  19.396 -0.1673  0.2208 -0.1115
 6354DDP     P238121  12.114  27.775  19.739 -0.1121 -0.2243 -0.2430
 6354DDP     C238122  12.512  27.889  19.887  0.1748 -0.0210 -0.1809
 6354DDP     C338123  12.917  28.445  19.279 -0.0966 -0.1147  0.0218
 6354DDP     C438124  11.782  28.162  19.085  0.1773 -0.1417 -0.0193
 6355DDP     C138125  12.222   6.808  28.031 -0.1534  0.0216 -0.0365
 6355DDP     P138126  12.340   6.387  27.794 -0.0110  0.2012 -0.0455
 6355DDP     P238127  12.470   6.955  28.376  0.0793 -0.2491 -0.2767
 6355DDP     C238128  12.655   7.410  28.443  0.0948 -0.0152 -0.0354
 6355DDP     C338129  12.355   6.049  27.506 -0.0993 -0.0781 -0.0849
 6355DDP     C438130  11.740   6.872  28.103 -0.1212  0.2869  0.0103
 6356DDP     C138131  11.250  28.809   5.024 -0.0811 -0.0320 -0.0515
 6356DDP     P138132  11.479  29.137   5.354 -0.1378  0.0303  0.0882
 6356DDP     P238133  11.233  28.694   4.679 -0.1107 -0.0711 -0.0800
 6356DDP     C238134  11.480  28.563   4.497  0.3396  0.1022 -0.2675
 6356DDP     C338135  11.823  29.263   5.657 -0.1177  0.2260  0.2401
 6356DDP     C438136  11.058  28.374   5.153  0.0684 -0.0439  0.1710
 6357DDP     C138137  24.634   3.342  17.245  0.0984  0.0269  0.2198
 6357DDP     P138138  24.903   3.525  17.569 -0.1391  0.1140  0.2798
 6357DDP     P238139  24.689   3.110  16.844 -0.1165  0.2175 -0.0006
 6357DDP     C238140  24.997   2.808  16.676 -0.1408 -0.1689 -0.0276
 6357DDP     C338141  24.801   3.647  17.982 -0.2536 -0.2596 -0.3591
 6357DDP     C438142  24.175   3.221  17.304  0.2269 -0.2132 -0.2355
 6358DDP     C138143   6.196  23.944  12.676 -0.0151 -0.0259 -0.0153
 6358DDP     P138144   6.285  23.901  13.086 -0.1573  0.0033  0.2266
 6358DDP     P238145   6.464  23.827  12.402  0.3572 -0.0828  0.0485
 6358DDP     C238146   6.760  23.629  12.291  0.0245 -0.0957  0.1557
 6358DDP     C338147   5.935  23.735  13.314 -0.1881 -0.0565  0.0639
 6358DDP     C438148   5.901  24.163  12.507  0.2355  0.3386 -0.2363
 6359DDP     C138149  22.859   0.108  13.877 -0.1912  0.1072  0.0202
 6359DDP     P138150  22.698   0.405  13.526  0.1589 -0.2440 -0.1766
 6359DDP     P238151  23.298   0.042  13.918  0.0488  0.0077  0.1447
 6359DDP     C238152  23.642  30.187  14.088  0.1147  0.0695 -0.1132
 6359DDP     C338153  22.755   0.744  13.102 -0.0063 -0.2407 -0.2318
 6359DDP     C438154  22.412  30.220  13.831  0.0388  0.1461  0.1467
 6360DDP     C138155  18.383  20.910  19.473  0.1330  0.0606  0.3379
 6360DDP     P138156  18.766  20.997  19.845 -0.1920  0.2055 -0.0555
 6360DDP     P238157  18.320  20.511  19.572 -0.0828 -0.0204 -0.0699
 6360DDP     C238158  18.155  20.270  19.813  0.4480 -0.1782  0.4122
 6360DDP     C338159  18.779  21.288  20.211 -0.0059  0.0808  0.1242
 6360DDP     C438160  18.047  21.214  19.332  0.0428  0.0247 -0.1842
 6361DDP     C138161   3.052   0.964  21.878 -0.2342  0.2825  0.0197
 6361DDP     P138162   3.090   0.616  21.614  0.1811 -0.1128 -0.1682
 6361DDP     P238163   3.048   1.366  21.780 -0.0265  0.1081  0.0784
 6361DDP     C238164   3.250   1.737  21.983  0.1186  0.1908 -0.1243
 6361DDP     C338165   2.649   0.563  21.513 -0.1574  0.0086  0.1635
 6361DDP     C438166   3.046   0.882  22.377 -0.1483  0.0199 -0.3483
 6362DDP     C138167   3.819   1.847  18.901 -0.0568  0.1871 -0.2772
 6362DDP     P138168   3.521   2.154  18.771 -0.0616 -0.1070 -0.0506
 6362DDP     P238169   4.069   1.629  18.483  0.1761  0.1638 -0.1470
 6362DDP     C238170   4.005   1.334  18.210  0.0781  0.0368 -0.3305
 6362DDP     C338171   3.445   2.553  18.991  0.0031  0.0134  0.0282
 6362DDP     C438172   3.881   1.855  19.416  0.0572 -0.0440 -0.6111
 6363DDP     C138173   5.875   6.447  29.048 -0.0952  0.2221  0.0546
 6363DDP     P138174   5.893   6.821  29.037  0.2537  0.1492 -0.1359
 6363DDP     P238175   5.683   6.312  28.799  0.1573 -0.0174 -0.0688
 6363DDP     C238176   5.725   6.061  28.494 -0.2666  0.0366  0.0368
 6363DDP     C338177   5.825   7.225  29.280 -0.2247 -0.1906 -0.0951
 6363DDP     C438178   6.150   6.386  29.304  0.2381 -0.1431  0.0297
 6364DDP     C138179  15.160  11.177   8.344 -0.0308  0.1651 -0.0814
 6364DDP     P138180  15.345  11.498   8.375  0.0945 -0.1039  0.0185
 6364DDP     P238181  14.792  11.106   8.710  0.2702 -0.2246 -0.0437
 6364DDP     C238182  14.993  11.188   9.165  0.1825  0.0083  0.1388
 6364DDP     C338183  15.256  11.906   8.055  0.0239  0.2108  0.0433
 6364DDP     C438184  15.157  11.023   7.957  0.0226 -0.0895 -0.1683
 6365DDP     C138185  21.123  23.146  24.815  0.0034 -0.0488  0.1069
 6365DDP     P138186  21.379  23.000  25.020 -0.1756 -0.3340  0.0666
 6365DDP     P238187  21.048  23.352  24.380 -0.2112  0.0684 -0.1445
 6365DDP     C238188  20.834  23.786  24.222 -0.0474 -0.1981  0.1736
 6365DDP     C338189  21.688  23.053  24.811  0.1163  0.0604 -0.1497
 6365DDP     C438190  20.842  22.839  25.015 -0.0156  0.1060  0.1731
 6366DDP     C138191  21.221   5.342   0.187  0.0727 -0.1881  0.3905
 6366DDP     P138192  21.038   5.291   0.565 -0.1660 -0.3923  0.2479
 6366DDP     P238193  21.454   5.034  30.249  0.2388 -0.0866 -0.0637
 6366DDP     C238194  21.497   4.965  29.829 -0.0541 -0.2870  0.0631
 6366DDP     C338195  20.637   5.559   0.742 -0.1809  0.0582 -0.1509
 6366DDP     C438196  21.285   5.753  30.308 -0.0885  0.0912 -0.0902
 6367DDP     C138197  13.169  18.400  12.148 -0.3280  0.1151 -0.0474
 6367DDP     P138198  13.093  18.448  12.618 -0.0414  0.0252 -0.0756
 6367DDP     P238199  13.541  18.484  11.995  0.1281  0.1728 -0.0870
 6367DDP     C238200  13.841  18.393  11.839 -0.0717 -0.1295 -0.0040
 6367DDP     C338201  12.900  18.523  13.042  0.0273 -0.0176  0.1337
 6367DDP     C438202  12.866  18.419  11.833  0.1843  0.2391  0.0770
 6368DDP     C138203   6.030   4.452   3.487  0.1319  0.0468  0.0578
 6368DDP     P138204   6.417   4.605   3.208  0.2861 -0.0111 -0.0689
 6368DDP     P238205   5.733   4.218   3.212  0.1656  0.1194 -0.3127
 6368DDP     C238206   5.470   4.087   2.967 -0.0923 -0.2722 -0.1518
 6368DDP     C338207   6.807   4.568   3.035 -0.2361 -0.3116 -0.1465
 6368DDP     C438208   6.013   4.524   3.921 -0.3933  0.1434 -0.0240
 6369DDP     C138209  29.287  22.313  11.701  0.1208  0.5081 -0.0845
 6369DDP     P138210  29.583  22.271  11.420 -0.0102 -0.0142 -0.3716
 6369DDP     P238211  29.356  22.219  12.113 -0.2898 -0.0343 -0.0170
 6369DDP     C238212  29.602  22.346  12.413  0.0431  0.3315  0.1554
 6369DDP     C338213  29.612  22.188  11.005  0.0932 -0.1786  0.3397
 6369DDP     C438214  28.974  22.591  11.474  0.0810 -0.1292  0.2261
 6370DDP     C138215  21.281  14.792  13.649  0.0302  0.2439 -0.1445
 6370DDP     P138216  21.592  14.566  13.800  0.2768 -0.1414  0.0011
 6370DDP     P238217  21.274  15.159  13.441 -0.1569 -0.0982 -0.0940
 6370DDP     C238218  21.203  15.640  13.239 -0.1863  0.0622  0.1961
 6370DDP     C338219  21.804  14.172  13.934 -0.1824 -0.1714 -0.0406
 6370DDP     C438220  21.037  14.509  13.787 -0.1408  0.1496  0.3457
 6371DDP     C138221  23.915  30.277  24.764  0.1648 -0.0884  0.1725
 6371DDP     P138222  23.811   0.389  24.988 -0.0890 -0.1919 -0.1092
 6371DDP     P238223  23.690  29.907  24.857 -0.3213 -0.0915  0.0560
 6371DDP     C238224  23.384  29.679  25.189  0.0678  0.0542 -0.2641
 6371DDP     C338225  23.463   0.775  24.989 -0.1755 -0.2253 -0.3791
 6371DDP     C438226  24.130  30.149  24.272  0.1716 -0.0929  0.0204
 6372DDP     C138227  27.400  20.063   8.541 -0.0572 -0.1657 -0.1508
 6372DDP     P138228  27.554  19.568   8.534  0.1622 -0.1114  0.2301
 6372DDP     P238229  27.018  20.191   8.663  0.0239  0.2352 -0.1895
 6372DDP     C238230  26.607  20.388   8.677 -0.2147 -0.3923  0.1013
 6372DDP     C338231  27.878  19.575   8.771  0.2362  0.0942  0.1851
 6372DDP     C438232  27.657  20.315   8.381  0.2434 -0.0177 -0.2875
 6373DDP     C138233  13.777  16.245  14.418  0.0556 -0.0023  0.0854
 6373DDP     P138234  13.698  15.790  14.375 -0.1252  0.0834 -0.3853
 6373DDP     P238235  14.227  16.233  14.313  0.4144  0.0513  0.2173
 6373DDP     C238236  14.710  16.171  14.550  0.1714 -0.0154  0.1155
 6373DDP     C338237  13.344  15.526  14.378 -0.2506 -0.0121 -0.1334
 6373DDP     C438238  13.455  16.603  14.564  0.1938  0.1712  0.1102
 6374DDP     C138239  12.655  28.696   7.355  0.0734  0.0798  0.2498
 6374DDP     P138240  12.792  29.000   7.114  0.1189 -0.0559  0.0988
 6374DDP     P238241  12.374  28.854   7.743 -0.3004  0.0310 -0.1713
 6374DDP     C238242  12.474  29.314   7.985 -0.0847 -0.0780  0.0135
 6374DDP     C338243  13.146  29.009   6.716 -0.3126  0.0021  0.1627
 6374DDP     C438244  12.548  28.292   7.180 -0.4631  0.2537  0.0049
 6375DDP     C138245  17.194  22.301  23.411 -0.0052  0.3397  0.2063
 6375DDP     P138246  16.862  22.355  23.350  0.3200  0.1719  0.3841
 6375DDP     P238247  17.281  21.975  23.510 -0.0178 -0.1073 -0.2782
 6375DDP     C238248  17.667  21.789  23.599  0.1601 -0.0887 -0.0626
 6375DDP     C338249  16.554  22.594  23.287 -0.2328 -0.0970  0.2425
 6375DDP     C438250  17.232  22.448  23.714  0.2010 -0.0405  0.3345
 6376DDP     C138251  15.991  29.411  17.820  0.2995 -0.2715  0.3165
 6376DDP     P138252  15.531  29.423  17.655 -0.2455  0.0155 -0.3842
 6376DDP     P238253  16.245  29.723  17.992  0.0813  0.3437  0.0449
 6376DDP     C238254  16.261  30.181  18.025 -0.0355 -0.0964  0.0511
 6376DDP     C338255  15.325  29.738  17.393 -0.1170  0.1337 -0.2622
 6376DDP     C438256  16.020  28.940  17.867 -0.1204 -0.2113 -0.0314
 6377DDP     C138257  22.267  21.334  11.202 -0.2555  0.0704  0.1437
 6377DDP     P138258  21.915  20.987  11.344 -0.1355 -0.0521  0.0798
 6377DDP     P238259  22.428  21.042  10.953 -0.1969 -0.1055  0.1999
 6377DDP     C238260  22.395  20.742  10.672 -0.1575 -0.0336 -0.2860
 6377DDP     C338261  21.703  20.545  11.558  0.1752 -0.1070 -0.2465
 6377DDP     C438262  22.263  21.719  11.041  0.3262 -0.2210 -0.0312
 6378DDP     C138263  15.732  12.510  18.162 -0.2079  0.0575  0.1238
 6378DDP     P138264  16.028  12.883  18.414 -0.0245  0.1303 -0.2383
 6378DDP     P238265  15.879  12.106  18.067 -0.1022  0.0781  0.1486
 6378DDP     C238266  15.835  11.837  17.750 -0.1362 -0.1812 -0.1383
 6378DDP     C338267  16.041  13.076  18.766  0.1040  0.0809  0.3306
 6378DDP     C438268  15.371  12.574  17.954  0.3766 -0.0149 -0.2080
 6379DDP     C138269  12.166   7.671  29.485  0.1236 -0.0000 -0.0206
 6379DDP     P138270  12.275   7.272  29.368  0.1694  0.2445  0.2336
 6379DDP     P238271  11.954   8.012  29.257 -0.0816  0.2642  0.3589
 6379DDP     C238272  11.618   8.278  29.048 -0.0268 -0.2463 -0.2661
 6379DDP     C338273  12.059   6.815  29.181 -0.3787 -0.0647 -0.2183
 6379DDP     C438274  12.448   7.749  29.747 -0.2642 -0.0504 -0.1644
 6380DDP     C138275  11.491  25.537  28.215 -0.0078 -0.0010 -0.1257
 6380DDP     P138276  11.618  25.522  27.772  0.1250 -0.0255 -0.1222
 6380DDP     P238277  11.653  25.076  28.317  0.2423 -0.1114  0.0294
 6380DDP     C238278  11.671  24.580  28.272 -0.1238 -0.2303  0.2157
 6380DDP     C338279  11.824  25.513  27.306  0.0776  0.0298  0.1187
 6380DDP     C438280  11.190  25.802  28.325  0.1798  0.0496 -0.0501
 6381DDP     C138281  20.547  16.260  25.514  0.4637  0.1229 -0.2782
 6381DDP     P138282  20.442  15.963  25.271 -0.2030 -0.1915 -0.1598
 6381DDP     P238283  20.924  16.143  25.617  0.2452 -0.2464  0.0524
 6381DDP     C238284  21.393  16.091  25.732 -0.0293  0.0247  0.0746
 6381DDP     C338285  20.544  15.600  25.104  0.3054  0.3630 -0.1453
 6381DDP     C438286  20.288  16.557  25.654  0.1575  0.2520  0.2575
 6382DDP     C138287   2.175  28.694  13.920  0.2136 -0.0374 -0.4028
 6382DDP     P138288   2.172  29.048  14.062 -0.0318  0.0805 -0.1628
 6382DDP     P238289   1.936  28.801  13.565  0.0772  0.0032  0.3722
 6382DDP     C238290   1.551  28.510  13.453  0.0404 -0.0852 -0.0296
 6382DDP     C338291   2.215  29.449  13.774 -0.2688  0.1287 -0.1321
 6382DDP     C438292   2.387  28.243  14.082 -0.1059 -0.0124  0.1317
 6383DDP     C138293  15.335   2.871   1.952 -0.0830 -0.0036 -0.2472
 6383DDP     P138294  15.472   2.387   1.833  0.3968  0.2418  0.0931
 6383DDP     P238295  15.312   3.302   1.746  0.0828 -0.1802 -0.2204
 6383DDP     C238296  15.380   3.461   1.380  0.4573 -0.0330 -0.2001
 6383DDP     C338297  15.681   2.152   1.531 -0.1407 -0.3437  0.0334
 6383DDP     C438298  15.114   2.960   2.279  0.1600  0.1505 -0.3652
 6384DDP     C138299  13.461  11.737  13.747  0.0886 -0.0456 -0.0928
 6384DDP     P138300  13.609  11.397  13.968  0.0987 -0.0997 -0.1105
 6384DDP     P238301  13.093  11.788  13.442  0.3625  0.0562  0.2172
 6384DDP     C238302  12.760  12.024  13.409  0.1301 -0.1434 -0.0595
 6384DDP     C338303  13.814  11.101  14.285  0.1508 -0.2117 -0.0377
 6384DDP     C438304  13.475  12.028  14.085  0.1378 -0.0315 -0.1440
 6385DDP     C138305  17.464   4.951  25.084  0.0748 -0.1003 -0.0409
 6385DDP     P138306  17.152   5.185  25.266 -0.0584 -0.0463  0.0035
 6385DDP     P238307  17.639   4.711  25.355  0.0750 -0.0524  0.3336
 6385DDP     C238308  17.733   4.589  25.802 -0.0665  0.2227 -0.0205
 6385DDP     C338309  16.725   5.305  25.311 -0.1491 -0.2273  0.2766
 6385DDP     C438310  17.533   5.167  24.686 -0.0338  0.1134 -0.4123
 6386DDP     C138311  15.002   1.837   8.679  0.2222  0.2551 -0.3373
 6386DDP     P138312  14.948   1.361   8.702  0.3806 -0.5523 -0.2644
 6386DDP     P238313  15.220   2.018   9.069  0.0253  0.1685 -0.2080
 6386DDP     C238314  15.577   2.092   9.436 -0.2929  0.1134  0.2973
 6386DDP     C338315  15.138   1.157   8.375  0.0365  0.0024 -0.2363
 6386DDP     C438316  15.054   2.057   8.318 -0.0352 -0.0124 -0.2098
 6387DDP     C138317  24.729   8.527  26.148  0.1529  0.0701  0.0639
 6387DDP     P138318  24.530   8.604  26.495 -0.3288  0.1282  0.2673
 6387DDP     P238319  24.583   8.060  26.080 -0.0742 -0.1717  0.2009
 6387DDP     C238320  24.314   7.734  26.212  0.5225 -0.3023 -0.1988
 6387DDP     C338321  24.183   8.445  26.760  0.1686  0.0021 -0.3573
 6387DDP     C438322  24.893   8.776  25.778  0.1979 -0.0456  0.0092
 6388DDP     C138323   9.225  13.124  21.493  0.1429 -0.0026 -0.1031
 6388DDP     P138324   9.647  13.307  21.512  0.1131 -0.0198  0.1818
 6388DDP     P238325   9.075  12.782  21.248  0.1421 -0.5421 -0.0083
 6388DDP     C238326   9.115  12.335  21.262  0.3702  0.0440 -0.0271
 6388DDP     C338327   9.890  13.077  21.187 -0.5119 -0.1574  0.0681
 6388DDP     C438328   8.914  13.456  21.745  0.0596  0.4072 -0.0401
 6389DDP     C138329   7.519   8.993  12.257 -0.2100 -0.0480  0.0514
 6389DDP     P138330   7.076   9.105  12.289 -0.0101 -0.2508 -0.2689
 6389DDP     P238331   7.699   8.573  12.310 -0.1793 -0.0844 -0.1651
 6389DDP     C238332   7.950   8.258  12.239  0.1542  0.1158 -0.0608
 6389DDP     C338333   6.550   9.258  12.297 -0.0972  0.0336  0.0901
 6389DDP     C438334   7.743   9.310  12.067  0.1007  0.2087  0.1103
 6390DDP     C138335  10.638   6.690  15.514 -0.2159 -0.2077  0.0045
 6390DDP     P138336  10.684   6.275  15.639  0.2567  0.0098  0.2103
 6390DDP     P238337  10.456   7.071  15.626  0.2410  0.1034 -0.1372
 6390DDP     C238338  10.162   7.386  15.752  0.1538 -0.0367  0.1119
 6390DDP     C338339  10.438   6.020  15.496 -0.0445 -0.1606 -0.1319
 6390DDP     C438340  10.918   6.823  15.162 -0.0256 -0.0739  0.2671
 6391DDP     C138341  26.837   5.699   5.959  0.0103  0.1453 -0.0176
 6391DDP     P138342  26.849   5.335   5.966  0.2677  0.1292  0.1962
 6391DDP     P238343  26.599   5.879   6.363  0.0566 -0.2999 -0.1215
 6391DDP     C238344  26.488   6.264   6.578 -0.1677  0.0930  0.3641
 6391DDP     C338345  26.798   4.906   5.836  0.0922  0.0623 -0.0952
 6391DDP     C438346  27.008   5.837   5.654  0.0509 -0.2747  0.1294
 6392DDP     C138347  29.729  27.363  13.495 -0.1742  0.0297  0.1229
 6392DDP     P138348  29.800  26.933  13.702 -0.0165  0.3658 -0.3171
 6392DDP     P238349  29.877  27.757  13.619 -0.0005  0.1331  0.1227
 6392DDP     C238350  29.755  28.105  13.889  0.0553 -0.0612 -0.0317
 6392DDP     C338351  29.849  26.670  14.119 -0.1260  0.0066 -0.0983
 6392DDP     C438352  29.739  27.368  13.083  0.0782 -0.1598 -0.0490
 6393DDP     C138353   9.205   4.129  11.417 -0.0125  0.0441  0.1517
 6393DDP     P138354   9.208   4.451  11.109 -0.1124  0.1310  0.0392
 6393DDP     P238355   9.412   3.659  11.305 -0.0782  0.0857  0.1250
 6393DDP     C238356   9.717   3.362  11.554  0.0948  0.0148  0.0289
 6393DDP     C338357   9.252   4.734  10.775 -0.0266  0.0809  0.0114
 6393DDP     C438358   8.758   4.128  11.612 -0.1100 -0.0440  0.0305
 6394DDP     C138359  26.203  24.891   7.629 -0.1327  0.0065 -0.1987
 6394DDP     P138360  26.051  25.196   7.841 -0.0515  0.0221 -0.0530
 6394DDP     P238361  26.446  25.174   7.394 -0.1080 -0.1032 -0.1418
 6394DDP     C238362  26.793  25.258   7.276  0.3397 -0.1667  0.2330
 6394DDP     C338363  25.918  25.667   7.858  0.1564 -0.3529 -0.0730
 6394DDP     C438364  26.270  24.629   7.891 -0.1111  0.2886 -0.2593
 6395DDP     C138365   4.527  16.388  18.181 -0.0113  0.1505 -0.0422
 6395DDP     P138366   4.895  16.598  18.290  0.2303 -0.1510  0.2325
 6395DDP     P238367   4.832  16.240  17.907  0.1476  0.0961  0.2977
 6395DDP     C238368   4.983  15.959  17.618 -0.2099 -0.1566 -0.1371
 6395DDP     C338369   5.055  16.964  18.145  0.4300  0.1861  0.2187
 6395DDP     C438370   4.127  16.171  18.149  0.1890  0.1428 -0.0145
 6396DDP     C138371  20.272   2.995   7.537  0.1707  0.2151 -0.0734
 6396DDP     P138372  20.717   3.204   7.575 -0.3091  0.2097  0.0626
 6396DDP     P238373  20.198   2.547   7.420 -0.0558  0.0300 -0.1935
 6396DDP     C238374  20.343   2.161   7.270 -0.0086  0.0775  0.1216
 6396DDP     C338375  21.064   3.309   7.298  0.1050  0.3020 -0.1306
 6396DDP     C438376  19.912   3.392   7.597  0.1303 -0.0490  0.4048
 6397DDP     C138377  22.979   5.077  18.620 -0.1270  0.2719  0.3443
 6397DDP     P138378  23.350   5.318  18.719  0.1585  0.1771  0.1451
 6397DDP     P238379  23.249   4.659  18.552 -0.2882  0.0207 -0.0133
 6397DDP     C238380  23.439   4.381  18.837  0.2523  0.3832  0.1787
 6397DDP     C338381  23.495   5.596  19.009 -0.0913  0.2000  0.2371
 6397DDP     C438382  22.485   5.057  18.736  0.1471  0.2373 -0.0972
 6398DDP     C138383  14.738  29.301   9.016 -0.2275  0.5882 -0.0452
 6398DDP     P138384  14.716  28.935   8.895  0.1564  0.0063  0.4080
 6398DDP     P238385  14.966  29.523   9.324 -0.0620 -0.4292  0.1452
 6398DDP     C238386  15.421  29.659   9.293 -0.2982 -0.0145  0.0429
 6398DDP     C338387  14.451  28.864   8.531 -0.0247 -0.1856 -0.2700
 6398DDP     C438388  14.717  29.508   8.570 -0.1132 -0.2802  0.2093
 6399DDP     C138389  29.508   6.514  13.263  0.1017 -0.2494  0.2096
 6399DDP     P138390  29.574   6.169  13.507 -0.4813 -0.0235 -0.1600
 6399DDP     P238391  29.562   6.914  13.430  0.0125  0.0437  0.2514
 6399DDP     C238392  29.555   7.259  13.656 -0.0907 -0.0558  0.4011
 6399DDP     C338393  29.670   5.750  13.553  0.0469  0.3244  0.0941
 6399DDP     C438394  29.724   6.385  12.815  0.1056  0.1182 -0.0353
 6400DDP     C138395  12.207  18.029   5.442  0.2514 -0.0917  0.0637
 6400DDP     P138396  12.400  17.856   5.058  0.0001  0.2483  0.0635
 6400DDP     P238397  11.794  17.858   5.545  0.0433  0.1650  0.0397
 6400DDP     C238398  11.412  17.657   5.648 -0.1988 -0.0117 -0.0622
 6400DDP     C338399  12.600  18.075   4.825  0.0577 -0.3407  0.1507
 6400DDP     C438400  12.396  18.214   5.841  0.2376  0.1147  0.1407
 6401DDP     C138401  27.437  15.177  26.566 -0.2936  0.3023 -0.0260
 6401DDP     P138402  27.301  14.787  26.556  0.1954 -0.1320 -0.1052
 6401DDP     P238403  27.767  15.329  26.266  0.3128  0.0327  0.0946
 6401DDP     C238404  28.122  15.566  26.059 -0.0639  0.1548  0.0626
 6401DDP     C338405  27.313  14.411  26.564 -0.3280  0.0188  0.0533
 6401DDP     C438406  27.411  15.328  26.869  0.5499  0.2254 -0.0432
 6402DDP     C138407  27.430   4.231   9.133  0.0735 -0.2644  0.1718
 6402DDP     P138408  27.794   4.442   9.155 -0.1336  0.0369 -0.0531
 6402DDP     P238409  27.199   4.112   8.719 -0.0081 -0.0601 -0.1352
 6402DDP     C238410  26.774   4.119   8.685  0.1663 -0.0303  0.3191
 6402DDP     C338411  28.215   4.439   9.072 -0.1681 -0.1248 -0.1697
 6402DDP     C438412  27.209   4.080   9.548  0.0859  0.2536  0.0000
 6403DDP     C138413  13.974  14.333  29.800  0.0930  0.1107  0.0975
 6403DDP     P138414  13.838  14.705  29.530  0.2322  0.2068 -0.2396
 6403DDP     P238415  13.689  14.027  30.023 -0.1131  0.0776  0.1150
 6403DDP     C238416  13.834  13.707  30.311  0.1530 -0.1516 -0.0260
 6403DDP     C338417  13.649  14.927  29.158 -0.1426 -0.2110  0.1286
 6403DDP     C438418  14.275  13.999  29.674 -0.0439 -0.0141  0.0013
 6404DDP     C138419  29.043  13.370   0.466  0.3068  0.2525 -0.0221
 6404DDP     P138420  28.704  13.130   0.745  0.0777 -0.1000 -0.0785
 6404DDP     P238421  28.967  13.134  30.275 -0.1475  0.2636 -0.1492
 6404DDP     C238422  28.761  12.727  30.165 -0.1715 -0.1312  0.1932
 6404DDP     C338423  28.621  13.311   1.240 -0.3113 -0.0359  0.2137
 6404DDP     C438424  29.452  13.493   0.653  0.1529  0.0640  0.2760
 6405DDP     C138425  10.507  15.343   1.775 -0.1145  0.0587  0.1217
 6405DDP     P138426  10.834  15.027   1.973  0.2082  0.0107  0.1934
 6405DDP     P238427  10.306  15.300   1.492 -0.0261  0.2638  0.0485
 6405DDP     C238428  10.091  14.987   1.156  0.0222 -0.1338 -0.1703
 6405DDP     C338429  10.856  14.956   2.373  0.0432  0.1343  0.0653
 6405DDP     C438430  10.368  15.741   1.916 -0.0682 -0.1603 -0.0549
 6406DDP     C138431   0.082  21.523  22.501 -0.2050  0.1862 -0.0685
 6406DDP     P138432  30.225  21.649  22.112  0.1963 -0.2581 -0.3435
 6406DDP     P238433  30.145  21.222  22.646  0.1293 -0.2661  0.1058
 6406DDP     C238434  30.171  21.047  23.126  0.0668 -0.0364 -0.1263
 6406DDP     C338435  30.037  21.659  21.748  0.4498 -0.2228  0.0811
 6406DDP     C438436   0.172  21.886  22.670 -0.0596 -0.1637 -0.1081
 6407DDP     C138437   7.841  10.691  24.618 -0.2524 -0.0300  0.2430
 6407DDP     P138438   7.854  10.925  25.032  0.2015  0.1193  0.4434
 6407DDP     P238439   8.242  10.752  24.358 -0.5055 -0.1319  0.1918
 6407DDP     C238440   8.595  10.547  24.443 -0.0437 -0.0508  0.3112
 6407DDP     C338441   8.141  11.008  25.214  0.0315  0.0962 -0.1671
 6407DDP     C438442   7.515  10.423  24.471  0.2743 -0.1297 -0.0324
 6408DDP     C138443   7.020   4.874   6.598 -0.0506 -0.0157 -0.2828
 6408DDP     P138444   7.130   4.540   6.835 -0.0974 -0.1266  0.1716
 6408DDP     P238445   7.418   4.876   6.575  0.0457  0.1702  0.3006
 6408DDP     C238446   7.714   4.763   6.270  0.1051 -0.0543  0.3257
 6408DDP     C338447   7.401   4.316   7.088  0.0504 -0.2542 -0.0314
 6408DDP     C438448   6.803   5.086   6.223 -0.1542  0.1429  0.1414
 6409DDP     C138449  14.389  28.680   8.082 -0.1561 -0.0014  0.0681
 6409DDP     P138450  14.792  28.498   8.399 -0.0069  0.0374 -0.0127
 6409DDP     P238451  14.372  29.025   7.728 -0.0697 -0.3238  0.0251
 6409DDP     C238452  14.460  29.410   7.520  0.0919  0.1748 -0.0991
 6409DDP     C338453  14.867  28.328   8.767  0.0680 -0.1190  0.1322
 6409DDP     C438454  13.971  28.536   8.068 -0.0244  0.1595  0.3115
 6410DDP     C138455   0.320  13.175   7.679 -0.0017 -0.0146 -0.0734
 6410DDP     P138456   0.147  13.134   8.028  0.1519  0.1317 -0.2243
 6410DDP     P238457   0.456  13.600   7.652 -0.0245 -0.2440  0.2618
 6410DDP     C238458   0.715  13.840   7.841 -0.2455  0.0034 -0.1082
 6410DDP     C338459  30.200  12.962   8.388  0.2006 -0.0953 -0.0083
 6410DDP     C438460   0.384  12.889   7.336  0.3113 -0.0582  0.1137
 6411DDP     C138461  27.836  14.128   6.960 -0.2220  0.1010  0.2440
 6411DDP     P138462  27.481  14.204   7.096  0.1715  0.3301 -0.1981
 6411DDP     P238463  27.846  14.279   6.658 -0.1259  0.0418  0.1828
 6411DDP     C238464  27.619  14.638   6.603 -0.1911 -0.0103  0.0337
 6411DDP     C338465  27.048  14.195   7.230 -0.1956 -0.0855  0.1634
 6411DDP     C438466  28.060  13.884   7.241  0.0645  0.0056 -0.0845
 6412DDP     C138467   6.359  27.102  15.653 -0.1134  0.4335  0.1542
 6412DDP     P138468   6.800  27.101  15.518  0.0807  0.2506  0.0531
 6412DDP     P238469   6.191  27.070  16.079 -0.0895  0.0789 -0.1371
 6412DDP     C238470   6.048  26.925  16.462  0.1261 -0.0538  0.0673
 6412DDP     C338471   7.172  26.858  15.531 -0.1630  0.3198 -0.3700
 6412DDP     C438472   6.036  27.196  15.308 -0.0206  0.3342 -0.1287
 6413DDP     C138473  26.274  27.053  21.225  0.0941  0.1128 -0.0820
 6413DDP     P138474  25.816  26.966  21.347 -0.3100  0.1202  0.1918
 6413DDP     P238475  26.439  27.459  21.204 -0.0650  0.1664 -0.0965
 6413DDP     C238476  26.606  27.715  21.590 -0.3533 -0.0661  0.0545
 6413DDP     C338477  25.639  26.776  21.681 -0.2057 -0.2012  0.0228
 6413DDP     C438478  26.609  26.724  21.130  0.0739  0.0159 -0.2271
 6414DDP     C138479  20.921  16.346  25.066 -0.4925 -0.1177 -0.0897
 6414DDP     P138480  20.554  16.414  24.910  0.1616 -0.1918  0.1571
 6414DDP     P238481  20.930  15.898  25.140  0.0802 -0.0016 -0.0461
 6414DDP     C238482  21.110  15.470  24.991  0.2526  0.1075  0.1690
 6414DDP     C338483  20.292  16.459  24.615 -0.0029 -0.2979  0.0898
 6414DDP     C438484  21.291  16.616  24.943  0.2823 -0.0721  0.1069
 6415DDP     C138485  22.648  29.513  26.177  0.1622 -0.0745 -0.1149
 6415DDP     P138486  22.503  29.982  26.456  0.3860  0.0214  0.0183
 6415DDP     P238487  22.746  29.456  25.781  0.0072  0.4941 -0.0675
 6415DDP     C238488  23.181  29.167  25.583  0.2229  0.1190 -0.0099
 6415DDP     C338489  22.539  30.270  26.839 -0.0143  0.1980  0.2020
 6415DDP     C438490  22.748  29.220  26.510 -0.0165  0.0629 -0.0953
 6416DDP     C138491  12.440   8.615  10.939 -0.0349 -0.0484  0.0846
 6416DDP     P138492  12.598   8.826  10.596  0.1224  0.2817 -0.1389
 6416DDP     P238493  12.757   8.656  11.294  0.0367 -0.2005 -0.0687
 6416DDP     C238494  12.929   8.704  11.740 -0.0719  0.0665  0.0103
 6416DDP     C338495  12.768   9.116  10.477 -0.2393  0.0752  0.1404
 6416DDP     C438496  12.051   8.374  11.020 -0.1585 -0.1862  0.1109
 6417DDP     C138497  20.357   2.493   6.948 -0.1781  0.0789  0.1690
 6417DDP     P138498  20.016   2.745   6.966  0.0008 -0.0255  0.2005
 6417DDP     P238499  20.665   2.510   7.238 -0.0871  0.0111  0.0487
 6417DDP     C238500  20.904   2.178   7.405  0.1623 -0.1461 -0.1479
 6417DDP     C338501  19.791   2.871   7.304  0.1229 -0.1507  0.1899
 6417DDP     C438502  20.364   2.293   6.516 -0.0738 -0.2665  0.1287
 6418DDP     C138503  27.785  18.800  11.875  0.0779 -0.4165 -0.1565
 6418DDP     P138504  27.496  18.508  11.645  0.0273 -0.1386 -0.3919
 6418DDP     P238505  27.636  19.018  12.328 -0.4277  0.1757 -0.0490
 6418DDP     C238506  27.683  19.248  12.614 -0.2729 -0.1961 -0.1880
 6418DDP     C338507  27.476  17.989  11.720 -0.0007  0.0416  0.2273
 6418DDP     C438508  28.166  18.998  11.760 -0.1305 -0.3729  0.2310
 6419DDP     C138509  12.405  12.292   1.105  0.0424 -0.3371 -0.3006
 6419DDP     P138510  12.361  11.820   1.301 -0.3218 -0.0891  0.0145
 6419DDP     P238511  12.430  12.660   1.327  0.0771 -0.3231 -0.0294
 6419DDP     C238512  12.179  12.886   1.601  0.3343 -0.3279 -0.1606
 6419DDP     C338513  12.349  11.425   1.134 -0.2917  0.1022  0.1825
 6419DDP     C438514  12.610  12.349   0.722  0.0562 -0.1074  0.0851
 6420DDP     C138515  11.500   5.969  13.071 -0.1364 -0.1533 -0.2362
 6420DDP     P138516  11.710   5.560  12.983 -0.0180 -0.0073  0.0379
 6420DDP     P238517  11.845   6.083  13.062 -0.0090 -0.1098 -0.1476
 6420DDP     C238518  12.279   5.932  12.946 -0.1231 -0.0949  0.0213
 6420DDP     C338519  12.057   5.257  12.788 -0.0662 -0.1713 -0.2306
 6420DDP     C438520  11.017   5.982  13.115 -0.0420  0.1056 -0.1856
 6421DDP     C138521  30.133   6.553  25.805 -0.0242  0.0289  0.1749
 6421DDP     P138522  29.688   6.517  25.810 -0.2474  0.1457 -0.0801
 6421DDP     P238523   0.073   6.638  25.540 -0.2465  0.1436 -0.1312
 6421DDP     C238524   0.111   6.973  25.292 -0.0730 -0.0823 -0.1039
 6421DDP     C338525  29.201   6.653  25.734 -0.0763  0.2170  0.1756
 6421DDP     C438526  30.194   6.418  26.263  0.3025 -0.2687 -0.2480
 6422DDP     C138527  25.778  28.421  30.210  0.0844 -0.0940  0.1068
 6422DDP     P138528  26.049  28.596   0.215 -0.1334  0.1852 -0.1048
 6422DDP     P238529  25.816  27.965  29.977 -0.1258 -0.0235 -0.1417
 6422DDP     C238530  25.557  27.544  30.111  0.1270 -0.1040  0.0637
 6422DDP     C338531  26.394  28.635   0.394  0.1095 -0.0777 -0.0119
 6422DDP     C438532  25.594  28.625  29.970 -0.1895 -0.3117  0.1543
 6423DDP     C138533  23.617  28.512   3.739  0.1609  0.0558  0.1007
 6423DDP     P138534  23.828  28.608   4.206  0.2464  0.1233 -0.1519
 6423DDP     P238535  23.184  28.347   3.738  0.1938  0.2857 -0.2140
 6423DDP     C238536  22.703  28.349   3.679 -0.1498 -0.1258  0.0525
 6423DDP     C338537  24.042  28.354   4.417 -0.2992  0.2748  0.2807
 6423DDP     C438538  23.567  28.663   3.316  0.0201  0.0776 -0.2943
 6424DDP     C138539   1.629  23.520  21.519 -0.0310  0.0834 -0.1470
 6424DDP     P138540   1.462  23.895  21.587  0.2363 -0.0537  0.1190
 6424DDP     P238541   1.260  23.313  21.663  0.1100  0.4690 -0.3853
 6424DDP     C238542   0.944  23.163  21.546 -0.0773  0.2212 -0.0213
 6424DDP     C338543   1.548  24.223  21.301 -0.0498 -0.2145  0.1246
 6424DDP     C438544   2.027  23.596  21.583  0.0512 -0.0976 -0.0092
 6425DDP     C138545  16.611  25.660   4.158 -0.3588  0.0974 -0.0320
 6425DDP     P138546  17.021  25.590   3.967 -0.0825 -0.0623 -0.0258
 6425DDP     P238547  16.334  25.901   3.983 -0.0257  0.2398  0.3033
 6425DDP     C238548  15.989  26.100   4.059  0.0701 -0.0759 -0.0943
 6425DDP     C338549  17.294  25.850   3.745 -0.2206  0.0120  0.1003
 6425DDP     C438550  16.429  25.564   4.526  0.1586 -0.2540  0.0587
 6426DDP     C138551  28.917  22.754  16.341  0.3822  0.2460 -0.2275
 6426DDP     P138552  28.653  22.512  16.620 -0.3195 -0.0443  0.0558
 6426DDP     P238553  28.892  22.424  15.927 -0.3167  0.1853  0.2647
 6426DDP     C238554  28.711  22.161  15.777  0.2837  0.1586  0.1605
 6426DDP     C338555  28.244  22.492  16.706 -0.0890  0.1364 -0.1239
 6426DDP     C438556  28.984  23.109  16.498  0.0739  0.0277 -0.1450
 6427DDP     C138557   9.980  25.134   4.521 -0.0107 -0.0794 -0.0601
 6427DDP     P138558   9.511  25.034   4.718  0.1960 -0.0982 -0.2779
 6427DDP     P238559  10.160  24.915   4.267  0.0442 -0.0261 -0.0057
 6427DDP     C238560  10.436  24.572   4.229 -0.3187 -0.0470 -0.0211
 6427DDP     C338561   9.191  24.811   5.013 -0.0678  0.3158 -0.0176
 6427DDP     C438562  10.144  25.564   4.453 -0.0396  0.0960 -0.0403
 6428DDP     C138563   1.894  23.212   6.578  0.0696 -0.1769 -0.2694
 6428DDP     P138564   1.881  23.042   6.832 -0.1182  0.0305  0.3828
 6428DDP     P238565   2.160  23.572   6.689  0.1038 -0.4544  0.2362
 6428DDP     C238566   2.342  23.797   6.343  0.0676  0.0487  0.1451
 6428DDP     C338567   1.738  22.704   7.015 -0.3864  0.1033  0.3922
 6428DDP     C438568   1.642  23.125   6.338 -0.0992 -0.0939  0.1038
 6429DDP     C138569  20.816  16.222  29.216  0.2911  0.0330  0.1888
 6429DDP     P138570  20.439  16.468  28.992  0.0780 -0.1647 -0.0417
 6429DDP     P238571  21.073  16.536  29.389  0.3050 -0.1663 -0.0348
 6429DDP     C238572  21.367  16.873  29.511  0.0422  0.0318  0.0290
 6429DDP     C338573  20.031  16.673  29.041  0.1889 -0.2443 -0.0510
 6429DDP     C438574  20.803  15.883  29.343  0.0130  0.3005 -0.0783
 6430DDP     C138575  29.239  25.447  16.697  0.1096  0.2021 -0.2187
 6430DDP     P138576  28.849  25.213  16.818  0.2111  0.0210  0.0132
 6430DDP     P238577  29.575  25.175  16.852 -0.0615  0.0679  0.1229
 6430DDP     C238578  30.071  25.069  17.166  0.2499  0.1520  0.1227
 6430DDP     C338579  28.700  24.811  16.999 -0.0013  0.3513  0.0398
 6430DDP     C438580  29.265  25.824  16.565  0.0398 -0.6298  0.2187
 6431DDP     C138581  26.082  14.781   3.280  0.3400  0.0834 -0.0802
 6431DDP     P138582  26.346  15.089   3.424  0.0671 -0.0511 -0.0177
 6431DDP     P238583  26.027  14.594   2.970 -0.1079 -0.2210  0.0290
 6431DDP     C238584  26.162  14.146   2.965  0.2947  0.0130  0.1033
 6431DDP     C338585  26.485  15.444   3.577  0.1282  0.0087  0.4498
 6431DDP     C438586  25.785  14.592   3.499  0.0520 -0.0946  0.0465
 6432DDP     C138587  28.656  28.895  21.414 -0.0706  0.0505  0.1245
 6432DDP     P138588  28.693  29.352  21.343  0.0912  0.0520 -0.2567
 6432DDP     P238589  29.009  28.665  21.525  0.2057 -0.0818 -0.1268
 6432DDP     C238590  29.386  28.358  21.605  0.3770  0.0259 -0.1119
 6432DDP     C338591  28.902  29.773  21.307 -0.0191 -0.0086  0.1776
 6432DDP     C438592  28.279  28.741  21.519  0.0258  0.0481 -0.1311
 6433DDP     C138593   2.011   7.926  11.575  0.0173 -0.2755  0.0202
 6433DDP     P138594   2.314   7.784  12.020 -0.2950 -0.3436  0.0671
 6433DDP     P238595   1.541   8.201  11.594  0.0255 -0.0018  0.2950
 6433DDP     C238596   1.298   8.422  11.899 -0.1535  0.1071 -0.0480
 6433DDP     C338597   2.479   8.052  12.184 -0.1331 -0.0289  0.0839
 6433DDP     C438598   2.015   7.687  11.293 -0.0232 -0.0203  0.1154
 6434DDP     C138599  17.583  23.688   7.343 -0.0986  0.2880 -0.0700
 6434DDP     P138600  17.253  23.304   7.424 -0.0139 -0.1807  0.0469
 6434DDP     P238601  17.625  23.909   6.892  0.1538  0.1039 -0.2428
 6434DDP     C238602  17.779  24.205   6.595 -0.3018 -0.0416 -0.0518
 6434DDP     C338603  16.872  23.244   7.123 -0.0846  0.1435 -0.1864
 6434DDP     C438604  17.716  24.015   7.656 -0.0176  0.0380 -0.1145
 6435DDP     C138605  10.829  13.746  21.317  0.0337  0.0189  0.4593
 6435DDP     P138606  11.142  13.475  21.069 -0.0451 -0.2390  0.0327
 6435DDP     P238607  10.622  13.770  20.916 -0.2735 -0.5087  0.1010
 6435DDP     C238608  10.604  13.976  20.480 -0.0660 -0.0612 -0.0972
 6435DDP     C338609  11.445  13.316  21.106 -0.0121  0.0176  0.1058
 6435DDP     C438610  10.881  13.941  21.709 -0.2791 -0.2928 -0.1738
 6436DDP     C138611  23.598  19.510   8.602 -0.1283 -0.3175  0.3029
 6436DDP     P138612  23.271  19.672   8.716  0.2233  0.0338 -0.0961
 6436DDP     P238613  23.912  19.740   8.408 -0.3010 -0.2629 -0.1697
 6436DDP     C238614  24.265  19.823   8.264  0.1027 -0.1045  0.1642
 6436DDP     C338615  23.052  19.941   9.012 -0.1977 -0.0886 -0.0911
 6436DDP     C438616  23.782  19.193   8.605  0.1886 -0.1245  0.0794
 6437DDP     C138617  18.347  22.609  13.611  0.2147  0.2032  0.1340
 6437DDP     P138618  18.443  22.690  13.966 -0.1718 -0.0001  0.1708
 6437DDP     P238619  18.198  22.155  13.499 -0.3816 -0.1106  0.1977
 6437DDP     C238620  17.895  22.011  13.222 -0.2207 -0.0598 -0.1979
 6437DDP     C338621  18.512  22.427  14.303  0.0373 -0.0807 -0.1254
 6437DDP     C438622  18.298  22.888  13.225 -0.1304 -0.2140 -0.0054
 6438DDP     C138623  12.547   5.523  21.848  0.1637  0.0246 -0.0525
 6438DDP     P138624  12.818   5.814  22.071 -0.1236 -0.0587  0.5070
 6438DDP     P238625  12.328   5.242  22.120  0.2040  0.2338  0.1945
 6438DDP     C238626  12.173   4.860  22.144 -0.0898  0.1482  0.2492
 6438DDP     C338627  13.071   5.842  22.452  0.1361 -0.0899 -0.0012
 6438DDP     C438628  12.288   5.752  21.797  0.2521  0.3414 -0.0006
 6439DDP     C138629  21.363   7.130  25.465  0.1685 -0.2521  0.1498
 6439DDP     P138630  21.613   7.362  25.467 -0.1605  0.1808  0.1478
 6439DDP     P238631  21.354   6.737  25.309  0.4584  0.0320 -0.2088
 6439DDP     C238632  21.466   6.351  25.399 -0.2702 -0.2476 -0.0926
 6439DDP     C338633  21.679   7.701  25.254  0.3031  0.1152  0.0056
 6439DDP     C438634  21.071   7.231  25.789  0.0504  0.0299  0.1710
 6440DDP     C138635   0.378  13.977   8.354 -0.3291 -0.2243 -0.2415
 6440DDP     P138636  30.335  13.956   8.758  0.3564  0.1183 -0.0641
 6440DDP     P238637   0.624  13.662   8.340  0.0724  0.2338 -0.1063
 6440DDP     C238638   0.646  13.229   8.098 -0.0573 -0.1792 -0.2082
 6440DDP     C338639  30.025  14.164   9.001  0.3239 -0.1162  0.1009
 6440DDP     C438640   0.336  14.280   8.095  0.3045 -0.0270  0.1146
 6441DDP     C138641   3.362  25.179   1.830 -0.1297  0.0095 -0.3162
 6441DDP     P138642   3.309  25.240   1.368  0.0450 -0.4493 -0.1960
 6441DDP     P238643   3.659  25.178   2.076 -0.0883  0.1853  0.1325
 6441DDP     C238644   3.843  25.172   2.461 -0.1875 -0.0406 -0.0632
 6441DDP     C338645   3.032  25.122   0.909 -0.1421  0.0131  0.0348
 6441DDP     C438646   2.990  25.056   2.091  0.1793 -0.1505 -0.0406
 6442DDP     C138647   9.954   7.052  26.615 -0.3036 -0.0605 -0.2262
 6442DDP     P138648   9.997   7.262  26.230 -0.0034  0.1814 -0.0145
 6442DDP     P238649   9.883   6.655  26.855  0.0489 -0.3019  0.0115
 6442DDP     C238650   9.738   6.193  26.936 -0.0980 -0.0341  0.2427
 6442DDP     C338651   9.970   7.184  25.801 -0.0215  0.0546  0.0923
 6442DDP     C438652   9.910   7.453  26.889  0.1549  0.1112  0.2388
 6443DDP     C138653   9.575   2.771  13.537  0.0716  0.0644 -0.2366
 6443DDP     P138654   9.368   2.548  13.885  0.2418  0.0685  0.1162
 6443DDP     P238655   9.644   2.382  13.425  0.2180 -0.0019  0.1364
 6443DDP     C238656   9.472   2.134  13.135 -0.0460  0.0082  0.1202
 6443DDP     C338657   9.117   2.685  14.235  0.0951  0.1294 -0.2556
 6443DDP     C438658   9.700   3.178  13.271 -0.0978 -0.0903  0.0554
 6444DDP     C138659   4.644  30.175   6.803  0.0551 -0.0129  0.1610
 6444DDP     P138660   4.745  30.005   6.380  0.2451  0.1533 -0.3846
 6444DDP     P238661   4.728   0.229   6.774  0.0577  0.3098 -0.0379
 6444DDP     C238662   4.983   0.522   7.054  0.0182 -0.1031 -0.1221
 6444DDP     C338663   4.917  29.965   5.998  0.1174 -0.1016 -0.0998
 6444DDP     C438664   4.728  29.924   7.155 -0.0742  0.2981 -0.2700
 6445DDP     C138665   1.251  19.129  28.307  0.0704 -0.0583  0.1517
 6445DDP     P138666   0.827  18.863  28.218  0.1596  0.0599 -0.1949
 6445DDP     P238667   1.242  19.472  28.485 -0.1636 -0.0676 -0.1242
 6445DDP     C238668   1.227  19.809  28.645 -0.0637 -0.4174  0.1199
 6445DDP     C338669   0.434  19.180  27.988 -0.1436  0.1022 -0.2698
 6445DDP     C438670   1.550  18.900  28.236  0.0640 -0.1843 -0.2558
 6446DDP     C138671   4.883  15.584   5.593 -0.1539  0.1335 -0.4036
 6446DDP     P138672   4.893  15.332   5.304  0.2668  0.0502 -0.1847
 6446DDP     P238673   4.934  15.772   5.984  0.3629  0.0760  0.3652
 6446DDP     C238674   4.945  15.886   6.353  0.0168 -0.2326  0.1513
 6446DDP     C338675   4.970  15.119   4.864  0.0343  0.1584  0.3007
 6446DDP     C438676   5.149  15.836   5.268  0.1064 -0.0745  0.1914
 6447DDP     C138677  26.871  21.878  20.389  0.1778  0.1374 -0.0546
 6447DDP     P138678  26.850  22.262  20.098 -0.0594 -0.0612  0.0086
 6447DDP     P238679  26.688  21.583  20.140 -0.2551 -0.0580 -0.2807
 6447DDP     C238680  26.681  21.193  19.769  0.1278  0.1797  0.2557
 6447DDP     C338681  26.832  22.665  19.936  0.0528 -0.2730  0.1607
 6447DDP     C438682  26.891  21.852  20.821  0.4236  0.0606  0.0403
 6448DDP     C138683   8.411  15.326  23.599  0.0550  0.1375 -0.1458
 6448DDP     P138684   8.553  15.054  23.210  0.1204 -0.1365 -0.2754
 6448DDP     P238685   8.506  15.678  23.560 -0.0822  0.4221 -0.0330
 6448DDP     C238686   8.515  15.999  23.907 -0.1219  0.0846 -0.1876
 6448DDP     C338687   8.364  15.078  22.794 -0.0539  0.0303  0.1380
 6448DDP     C438688   8.172  15.094  23.870 -0.5895 -0.0199 -0.3485
 6449DDP     C138689  27.026  20.485  24.953 -0.1916  0.1987  0.0757
 6449DDP     P138690  26.814  20.548  25.346  0.1203  0.0123 -0.0936
 6449DDP     P238691  27.425  20.284  24.890 -0.1315  0.0134  0.2534
 6449DDP     C238692  27.613  19.796  24.910  0.2911  0.0805 -0.1399
 6449DDP     C338693  26.581  20.668  25.768  0.1200 -0.1020 -0.0145
 6449DDP     C438694  26.844  20.584  24.550  0.0676 -0.2180 -0.1840
 6450DDP     C138695   1.703   9.248  13.024  0.1340 -0.0871 -0.2365
 6450DDP     P138696   1.553   9.035  12.674 -0.2125  0.1272  0.2285
 6450DDP     P238697   1.610   9.687  12.906 -0.0728 -0.2525 -0.0458
 6450DDP     C238698   1.596  10.062  12.748 -0.1921 -0.1334 -0.0873
 6450DDP     C338699   1.472   8.757  12.281 -0.0703  0.3232  0.2181
 6450DDP     C438700   1.689   8.877  13.268 -0.0089  0.4146 -0.2673
 6451DDP     C138701  12.753  27.645  25.122  0.0962 -0.0874 -0.0887
 6451DDP     P138702  13.094  27.544  25.222 -0.0700 -0.0424  0.0706
 6451DDP     P238703  12.431  27.419  24.861  0.2873 -0.1571  0.0213
 6451DDP     C238704  12.443  27.403  24.436  0.2499  0.0328 -0.2098
 6451DDP     C338705  13.184  27.912  25.479 -0.0858 -0.2060  0.0245
 6451DDP     C438706  12.682  28.004  25.481 -0.2956  0.1564 -0.4352
 6452DDP     C138707  11.951  18.523   5.148  0.3568  0.1412 -0.0480
 6452DDP     P138708  11.996  18.583   5.600 -0.2376  0.2394 -0.0249
 6452DDP     P238709  11.860  18.045   5.025 -0.0750 -0.1210  0.0013
 6452DDP     C238710  11.663  17.860   4.702  0.0168  0.1438 -0.1366
 6452DDP     C338711  12.197  18.624   5.993 -0.1693  0.1287 -0.2378
 6452DDP     C438712  11.909  18.817   4.844  0.1691 -0.1001 -0.1267
 6453DDP     C138713  14.591  28.829  20.229 -0.3540  0.0050 -0.4013
 6453DDP     P138714  14.748  29.263  20.397  0.1648 -0.2139 -0.0353
 6453DDP     P238715  14.949  28.521  20.087  0.2868 -0.1122 -0.4470
 6453DDP     C238716  15.371  28.585  19.868  0.0735 -0.3095 -0.0616
 6453DDP     C338717  14.964  29.622  20.430  0.2474 -0.0772  0.2133
 6453DDP     C438718  14.268  28.752  20.042  0.0224 -0.2063 -0.2785
 6454DDP     C138719  25.506   0.699  13.117  0.1079 -0.0344 -0.0541
 6454DDP     P138720  25.449   1.065  13.450 -0.0565 -0.0340 -0.3166
 6454DDP     P238721  25.134   0.733  12.867  0.2511 -0.0335  0.4034
 6454DDP     C238722  25.056   1.083  12.607 -0.0590  0.1116 -0.0600
 6454DDP     C338723  25.446   1.442  13.586  0.0182  0.0994 -0.1971
 6454DDP     C438724  25.795   0.349  13.179 -0.2010 -0.1462 -0.0596
 6455DDP     C138725   7.070  29.814  27.655  0.2825 -0.1586 -0.0000
 6455DDP     P138726   6.993  29.734  27.291  0.0429  0.0518  0.0326
 6455DDP     P238727   6.969  29.440  27.722 -0.2352 -0.0508  0.0943
 6455DDP     C238728   7.072  29.111  27.609 -0.4501  0.0082 -0.0776
 6455DDP     C338729   6.787  29.793  26.934 -0.1771  0.1447  0.0051
 6455DDP     C438730   7.155  30.160  27.914  0.0544 -0.1909 -0.4641
 6456DDP     C138731  16.247  24.733  21.104 -0.4032  0.1436  0.1446
 6456DDP     P138732  16.582  25.111  21.197 -0.2481  0.0554 -0.1314
 6456DDP     P238733  15.840  24.511  20.887 -0.0548 -0.2113  0.0436
 6456DDP     C238734  15.471  24.289  20.974  0.0108 -0.1179  0.0484
 6456DDP     C338735  16.748  25.262  21.573 -0.2974  0.2078 -0.2188
 6456DDP     C438736  16.303  24.356  21.072 -0.1092  0.0424  0.0831
 6457DDP     C138737   3.803   6.484  22.015 -0.2395 -0.1693 -0.3850
 6457DDP     P138738   3.767   6.139  22.245  0.0184 -0.1288  0.1323
 6457DDP     P238739   3.627   6.726  22.327  0.2351 -0.0884  0.2171
 6457DDP     C238740   3.794   6.786  22.744  0.1883 -0.0785 -0.0161
 6457DDP     C338741   3.371   6.061  22.006 -0.0848  0.0870  0.0253
 6457DDP     C438742   4.071   6.672  21.829 -0.0144 -0.1997 -0.2862
 6458DDP     C138743  28.635  20.491  19.980 -0.0939  0.2882 -0.1924
 6458DDP     P138744  29.038  20.628  19.741  0.0469 -0.2478  0.1991
 6458DDP     P238745  28.271  20.184  19.692 -0.1555  0.4168  0.3357
 6458DDP     C238746  28.009  19.849  19.814  0.1719 -0.2541  0.2550
 6458DDP     C338747  29.477  20.434  19.758  0.1191  0.0252  0.2176
 6458DDP     C438748  28.675  20.443  20.437  0.0133  0.0332 -0.2378
 6459DDP     C138749  17.264  10.959  18.840  0.0772 -0.2221  0.2391
 6459DDP     P138750  17.618  11.059  18.495  0.2114  0.2783 -0.3314
 6459DDP     P238751  17.088  11.301  19.035 -0.1471 -0.2365 -0.1001
 6459DDP     C238752  17.201  11.719  19.222 -0.1192  0.1272  0.0564
 6459DDP     C338753  17.646  10.915  18.117 -0.2640  0.1494 -0.0138
 6459DDP     C438754  17.255  10.498  18.910 -0.0868  0.1309 -0.2783
 6460DDP     C138755  16.557  23.867   1.632 -0.0590  0.0233  0.1438
 6460DDP     P138756  16.788  24.119   1.881 -0.3314 -0.0556 -0.1107
 6460DDP     P238757  16.762  24.004   1.302  0.1343 -0.0406  0.2342
 6460DDP     C238758  17.010  24.166   0.955  0.2699  0.2732 -0.0192
 6460DDP     C338759  17.039  24.261   2.257  0.2727  0.0051  0.1267
 6460DDP     C438760  16.298  23.451   1.653 -0.0713  0.2330 -0.2486
 6461DDP     C138761  16.664   5.450   5.192  0.2456  0.0453  0.0013
 6461DDP     P138762  16.569   5.158   4.749  0.3502 -0.0228  0.0335
 6461DDP     P238763  16.312   5.643   5.458  0.0324 -0.1248 -0.2592
 6461DDP     C238764  16.415   5.954   5.842  0.0850 -0.0144 -0.2229
 6461DDP     C338765  16.479   4.806   4.383 -0.1191  0.3514 -0.1450
 6461DDP     C438766  17.111   5.471   5.240 -0.0440 -0.0023 -0.1344
 6462DDP     C138767  17.411  13.530  27.977 -0.1738 -0.0212  0.0841
 6462DDP     P138768  17.758  13.758  27.859 -0.2213 -0.0259  0.0669
 6462DDP     P238769  17.132  13.824  27.821  0.0593  0.3610  0.2656
 6462DDP     C238770  16.944  14.113  27.442  0.1010  0.1586  0.3604
 6462DDP     C338771  17.915  14.105  27.765 -0.4364  0.1918 -0.0542
 6462DDP     C438772  17.450  13.174  28.142 -0.1285 -0.2159 -0.1642
 6463DDP     C138773  26.553  17.484  14.603 -0.4616 -0.0535 -0.1705
 6463DDP     P138774  26.786  17.448  14.993  0.4056  0.1099 -0.1643
 6463DDP     P238775  26.640  17.044  14.443  0.1499  0.0429  0.1559
 6463DDP     C238776  26.669  16.755  14.068 -0.3189 -0.0701  0.0722
 6463DDP     C338777  26.719  17.218  15.387  0.0216 -0.0248 -0.0682
 6463DDP     C438778  26.334  17.770  14.367  0.1962 -0.3046 -0.1149
 6464DDP     C138779  16.510  29.720  11.217 -0.1891  0.0599 -0.1291
 6464DDP     P138780  16.812  30.003  11.306  0.0280  0.0133 -0.2444
 6464DDP     P238781  16.696  29.264  11.125 -0.1216 -0.2331  0.2607
 6464DDP     C238782  16.737  28.844  11.343  0.2414 -0.1683 -0.0328
 6464DDP     C338783  17.149   0.048  11.447 -0.3901  0.0480 -0.0919
 6464DDP     C438784  16.066  29.813  11.180  0.0532 -0.1842  0.1852
 6465DDP     C138785  17.960  28.078  17.386 -0.0114  0.1693  0.0626
 6465DDP     P138786  17.800  28.523  17.084  0.3183  0.2417 -0.1034
 6465DDP     P238787  17.839  28.013  17.797 -0.1690 -0.0412  0.0938
 6465DDP     C238788  17.439  27.895  18.094  0.1644 -0.1395  0.1793
 6465DDP     C338789  17.918  28.900  17.175  0.3063 -0.2142  0.6085
 6465DDP     C438790  17.816  27.730  17.055 -0.0093 -0.0804 -0.3425
 6466DDP     C138791  16.391   6.471  13.875  0.3722 -0.3245  0.1917
 6466DDP     P138792  15.951   6.555  13.951  0.2071 -0.0116 -0.2362
 6466DDP     P238793  16.563   6.745  13.740  0.0303 -0.1240 -0.3312
 6466DDP     C238794  16.891   6.914  13.747 -0.2090  0.2336 -0.2584
 6466DDP     C338795  15.543   6.534  14.042 -0.0721  0.2503  0.0321
 6466DDP     C438796  16.721   6.109  14.095  0.1927 -0.1012 -0.0233
 6467DDP     C138797  14.277   1.827  15.072 -0.0183  0.1635 -0.1420
 6467DDP     P138798  14.257   2.086  15.390  0.2501 -0.0766 -0.1976
 6467DDP     P238799  13.914   1.843  15.011  0.4493  0.1219  0.0235
 6467DDP     C238800  13.406   2.043  15.049 -0.1780 -0.1349  0.2251
 6467DDP     C338801  14.184   2.284  15.776  0.1650 -0.0978 -0.0313
 6467DDP     C438802  14.563   1.537  14.879 -0.3201  0.6275  0.0842
 6468DDP     C138803  18.038   4.375   3.502  0.0610  0.2572  0.1565
 6468DDP     P138804  17.891   4.340   3.133  0.0716  0.1335 -0.2676
 6468DDP     P238805  17.860   4.691   3.674 -0.0173  0.0048  0.1557
 6468DDP     C238806  17.634   5.094   3.620  0.1852 -0.1225 -0.3293
 6468DDP     C338807  17.906   4.421   2.694  0.1876  0.1076 -0.0135
 6468DDP     C438808  18.110   4.061   3.827  0.1289  0.3186 -0.0466
 6469DDP     C138809  11.057  29.817   4.602  0.0514  0.1033  0.1391
 6469DDP     P138810  10.775  29.480   4.746  0.1507  0.1344 -0.0029
 6469DDP     P238811  11.369  29.848   4.620  0.0455 -0.1472  0.0605
 6469DDP     C238812  11.620  29.916   4.324  0.2657  0.1209  0.3047
 6469DDP     C338813  10.609  29.104   4.718  0.3393 -0.1261 -0.1176
 6469DDP     C438814  10.795  30.136   4.455  0.4150  0.3656  0.2597
 6470DDP     C138815  11.178  29.099  28.618 -0.0737 -0.2042 -0.2535
 6470DDP     P138816  11.314  28.712  28.572 -0.0013  0.0170 -0.1088
 6470DDP     P238817  10.916  29.330  28.329  0.0306  0.3694 -0.0651
 6470DDP     C238818  10.541  29.220  28.030 -0.1166 -0.0255  0.3770
 6470DDP     C338819  11.516  28.303  28.531  0.1027 -0.1232  0.0111
 6470DDP     C438820  11.285  29.403  28.958 -0.1875  0.0451  0.0355
 6471DDP     C138821  11.571  29.033  22.731 -0.0283  0.2502 -0.0416
 6471DDP     P138822  11.477  28.899  23.103  0.0768 -0.0124  0.4043
 6471DDP     P238823  11.499  28.708  22.447  0.1258 -0.1060  0.1003
 6471DDP     C238824  11.452  28.489  22.038  0.0204 -0.2728 -0.1016
 6471DDP     C338825  11.103  28.860  23.276 -0.0034  0.0146  0.0603
 6471DDP     C438826  11.631  29.378  22.678  0.0055  0.1729 -0.0509
 6472DDP     C138827  13.355  20.074  25.966 -0.1304  0.3152  0.0080
 6472DDP     P138828  13.388  19.658  25.920 -0.1767  0.2042  0.1355
 6472DDP     P238829  13.674  20.361  25.795 -0.0111 -0.1987 -0.0421
 6472DDP     C238830  13.778  20.450  25.375 -0.0512  0.0479  0.0972
 6472DDP     C338831  13.111  19.429  25.649 -0.4123 -0.0258  0.1397
 6472DDP     C438832  12.939  20.300  26.104  0.1453 -0.0500  0.1615
 6473DDP     C138833  19.553   7.025  14.765 -0.0780  0.0609 -0.1839
 6473DDP     P138834  19.777   7.388  14.760  0.3110 -0.1699  0.3083
 6473DDP     P238835  19.334   6.999  14.508  0.3452 -0.1274 -0.0339
 6473DDP     C238836  19.201   6.698  14.172  0.4370 -0.1867  0.0876
 6473DDP     C338837  20.227   7.691  14.780  0.3267  0.0742  0.1456
 6473DDP     C438838  19.467   6.711  15.008 -0.3316 -0.0502  0.3550
 6474DDP     C138839   7.740   7.386  21.559  0.1063  0.1602  0.2252
 6474DDP     P138840   7.980   7.379  21.253  0.1323 -0.1838 -0.0447
 6474DDP     P238841   7.344   7.452  21.283  0.1014  0.0123  0.0612
 6474DDP     C238842   7.134   7.758  21.198  0.0281  0.0488 -0.0785
 6474DDP     C338843   8.337   7.290  21.001 -0.1609 -0.0629 -0.0832
 6474DDP     C438844   7.853   7.621  22.007  0.0939  0.2284 -0.1686
 6475DDP     C138845  25.237  14.683  17.564  0.0304 -0.0719 -0.0766
 6475DDP     P138846  25.314  14.966  17.113 -0.1977  0.0261 -0.1096
 6475DDP     P238847  25.521  14.772  17.918  0.1257  0.0832 -0.1921
 6475DDP     C238848  25.816  14.787  18.287 -0.1621 -0.3412 -0.1163
 6475DDP     C338849  25.488  15.365  17.025 -0.1382  0.0789  0.0324
 6475DDP     C438850  25.064  14.272  17.451  0.0695  0.3522  0.3065
 6476DDP     C138851   0.393  24.720  10.485 -0.0890  0.1139  0.0734
 6476DDP     P138852   0.518  24.374  10.226  0.3303 -0.2265  0.1253
 6476DDP     P238853   0.170  24.722  10.900 -0.0960  0.2243 -0.3186
 6476DDP     C238854   0.262  24.748  11.416 -0.0775 -0.1735 -0.3346
 6476DDP     C338855   0.328  24.026  10.217 -0.1880  0.3347 -0.0503
 6476DDP     C438856   0.375  25.166  10.365  0.2680 -0.0408  0.0472
 6477DDP     C138857   6.837  26.464  16.210  0.3003  0.3941 -0.4265
 6477DDP     P138858   7.055  26.448  16.695  0.4468 -0.0632 -0.0251
 6477DDP     P238859   6.649  26.147  16.006  0.0012  0.1961  0.1653
 6477DDP     C238860   6.505  25.675  15.867  0.0872 -0.1060 -0.2522
 6477DDP     C338861   7.047  26.554  17.166 -0.3298  0.0845 -0.3567
 6477DDP     C438862   6.947  26.936  16.052 -0.3654  0.0436 -0.0679
 6478DDP     C138863  26.180  10.850   4.593  0.0278 -0.0433  0.0102
 6478DDP     P138864  26.430  10.583   4.769  0.3029  0.1561  0.1515
 6478DDP     P238865  26.106  11.137   4.759 -0.2159 -0.2240 -0.1279
 6478DDP     C238866  26.129  11.490   5.166 -0.4083 -0.1973 -0.0492
 6478DDP     C338867  26.796  10.543   4.992 -0.2105  0.2135 -0.0805
 6478DDP     C438868  25.988  10.792   4.276  0.1417 -0.3762 -0.0212
 6479DDP     C138869  13.361  28.596  26.438 -0.1046  0.2152  0.1618
 6479DDP     P138870  13.142  28.776  26.142 -0.0254 -0.3111  0.0927
 6479DDP     P238871  13.477  28.182  26.268 -0.0573  0.2203 -0.0461
 6479DDP     C238872  13.504  27.814  26.048  0.2128 -0.0546 -0.0416
 6479DDP     C338873  13.138  29.105  25.802 -0.2555  0.2132 -0.3392
 6479DDP     C438874  13.391  28.760  26.834  0.1981 -0.0500 -0.1848
 6480DDP     C138875   7.129  15.756  24.529  0.1431  0.0186  0.0681
 6480DDP     P138876   7.018  15.474  24.191  0.0401  0.0141  0.2848
 6480DDP     P238877   7.452  15.624  24.790  0.1168 -0.0663 -0.1044
 6480DDP     C238878   7.748  15.218  24.854  0.1365  0.1348  0.0479
 6480DDP     C338879   7.091  15.454  23.749 -0.1887 -0.1002 -0.0119
 6480DDP     C438880   7.069  16.176  24.493 -0.1766  0.2115 -0.0018
 6481DDP     C138881  20.582  19.779  16.470  0.0282 -0.2051  0.2640
 6481DDP     P138882  20.958  19.726  16.256  0.0032 -0.0770 -0.2408
 6481DDP     P238883  20.238  19.446  16.344 -0.1747 -0.2259 -0.2471
 6481DDP     C238884  20.281  18.935  16.261 -0.1200  0.0228 -0.0946
 6481DDP     C338885  21.066  19.585  15.813  0.0891 -0.3165 -0.1937
 6481DDP     C438886  20.553  20.066  16.781 -0.1031  0.1046  0.6431
 6482DDP     C138887   7.486   6.954  29.731  0.2316 -0.1994  0.1644
 6482DDP     P138888   7.514   6.481  29.660 -0.3929  0.1162  0.0954
 6482DDP     P238889   7.114   7.260  29.666 -0.1461 -0.0481  0.1885
 6482DDP     C238890   6.765   7.141  29.936 -0.1176  0.0263  0.0165
 6482DDP     C338891   7.215   6.183  29.547  0.1965 -0.0175  0.1699
 6482DDP     C438892   7.745   7.148  29.996 -0.2916  0.4862 -0.1313
 6483DDP     C138893  23.052   5.213  25.193 -0.0796  0.2673  0.0794
 6483DDP     P138894  22.613   5.532  25.141  0.1464  0.2281  0.1430
 6483DDP     P238895  23.393   4.898  25.036 -0.1270  0.0327  0.3063
 6483DDP     C238896  23.747   5.018  24.835 -0.0477 -0.0611 -0.0556
 6483DDP     C338897  22.321   5.537  25.453  0.1429 -0.1374  0.0758
 6483DDP     C438898  23.276   5.351  25.556  0.0110  0.1053 -0.1790
 6484DDP     C138899  24.963   9.976  13.677 -0.3813  0.2747 -0.1292
 6484DDP     P138900  25.043  10.047  13.250  0.2949 -0.0716  0.2353
 6484DDP     P238901  24.808  10.247  14.029  0.1745  0.2591 -0.1682
 6484DDP     C238902  24.639  10.486  14.310 -0.1711 -0.1407 -0.2475
 6484DDP     C338903  25.233  10.091  12.762 -0.0036  0.0618 -0.1106
 6484DDP     C438904  25.412   9.703  13.912  0.1101 -0.0191 -0.1627
 6485DDP     C138905  21.367  20.017  23.908  0.3993  0.3703  0.1860
 6485DDP     P138906  21.074  20.453  23.830  0.0863 -0.0350 -0.1747
 6485DDP     P238907  21.708  19.960  24.257 -0.0715  0.0413 -0.0745
 6485DDP     C238908  21.662  19.946  24.785 -0.0856 -0.0492  0.0600
 6485DDP     C338909  20.840  20.773  23.572  0.1808 -0.0137 -0.1608
 6485DDP     C438910  21.558  19.826  23.538 -0.0461 -0.2246 -0.5303
 6486DDP     C138911  27.136   9.597  17.734  0.0014 -0.0902  0.0266
 6486DDP     P138912  26.967   9.772  17.342  0.0938  0.0258 -0.0665
 6486DDP     P238913  27.527   9.626  17.694  0.0107 -0.0195  0.2602
 6486DDP     C238914  27.775   9.293  17.651  0.0900  0.1907  0.0013
 6486DDP     C338915  27.075   9.944  16.972  0.0238 -0.0898 -0.2620
 6486DDP     C438916  26.936   9.686  18.218 -0.2922  0.0149  0.1517
 6487DDP     C138917  14.328  25.834   4.145 -0.2942  0.2769  0.1544
 6487DDP     P138918  14.039  26.196   4.159  0.0542  0.0248  0.0227
 6487DDP     P238919  14.791  25.782   4.259 -0.0398  0.2085  0.1498
 6487DDP     C238920  15.115  26.040   4.297 -0.2499  0.0274 -0.0969
 6487DDP     C338921  13.863  26.545   4.315 -0.2111  0.1291  0.1570
 6487DDP     C438922  13.968  25.403   4.196  0.0309 -0.0274  0.0200
 6488DDP     C138923  15.575  16.848  10.204 -0.0488 -0.2648  0.0335
 6488DDP     P138924  15.981  16.730  10.053  0.0058 -0.2531  0.2066
 6488DDP     P238925  15.643  16.856  10.625 -0.0685  0.2292 -0.3261
 6488DDP     C238926  15.496  16.936  11.026  0.1383  0.0298  0.0903
 6488DDP     C338927  16.141  17.116   9.991 -0.0220 -0.0211  0.1151
 6488DDP     C438928  15.230  17.125  10.034 -0.0837 -0.1478  0.2581
 6489DDP     C138929  10.947  20.238  11.180  0.2542  0.0803 -0.2721
 6489DDP     P138930  10.500  20.202  11.385 -0.3288  0.0135 -0.1811
 6489DDP     P238931  11.262  20.260  11.485  0.1675 -0.2109 -0.0679
 6489DDP     C238932  11.173  20.537  11.863  0.2805 -0.1635  0.2338
 6489DDP     C338933  10.107  20.101  11.438  0.2763  0.0836  0.0230
 6489DDP     C438934  11.100  19.923  10.816 -0.3175  0.0074 -0.0960
 6490DDP     C138935  20.866  10.326   3.654 -0.0259 -0.2070 -0.2053
 6490DDP     P138936  21.202   9.980   3.491 -0.2321 -0.2530 -0.0331
 6490DDP     P238937  20.851  10.469   4.167  0.0754  0.2385  0.0385
 6490DDP     C238938  21.242  10.694   4.347  0.0328  0.0193  0.1431
 6490DDP     C338939  21.216   9.581   3.321  0.0715 -0.1012  0.2197
 6490DDP     C438940  20.483  10.171   3.301  0.1668 -0.1107  0.0383
 6491DDP     C138941  28.285  11.311   9.434  0.0699  0.1886  0.1449
 6491DDP     P138942  28.453  11.507   9.759 -0.2906  0.2077  0.0099
 6491DDP     P238943  28.100  11.028   9.483  0.0721 -0.2992 -0.3607
 6491DDP     C238944  27.721  10.785   9.352 -0.3208  0.2246  0.1665
 6491DDP     C338945  28.429  11.886   9.937 -0.1087 -0.3978  0.1258
 6491DDP     C438946  28.206  11.542   9.169  0.0854  0.0668 -0.0489
 6492DDP     C138947  27.470  24.079  18.718 -0.2034 -0.0331  0.0365
 6492DDP     P138948  27.407  23.981  18.342  0.0763  0.0933 -0.3555
 6492DDP     P238949  27.222  23.890  18.994  0.2852  0.2824 -0.0836
 6492DDP     C238950  27.027  23.651  19.357 -0.1078  0.1789 -0.0291
 6492DDP     C338951  27.436  24.101  17.885 -0.2235  0.0665 -0.0133
 6492DDP     C438952  27.897  24.115  18.834  0.1625 -0.0033  0.0538
 6493DDP     C138953  23.623  28.477   2.109  0.2783 -0.1200 -0.0262
 6493DDP     P138954  23.219  28.621   2.168  0.1873 -0.4382  0.2047
 6493DDP     P238955  23.704  28.115   1.793  0.0708 -0.0348 -0.2269
 6493DDP     C238956  23.528  27.832   1.696 -0.2775 -0.0369 -0.0388
 6493DDP     C338957  22.801  28.670   2.122  0.2823  0.0822  0.0090
 6493DDP     C438958  23.997  28.582   2.351 -0.0132 -0.0030 -0.1282
 6494DDP     C138959  17.196   3.669  18.898 -0.1470 -0.0498 -0.0481
 6494DDP     P138960  17.207   3.550  19.309 -0.0451  0.1126  0.2144
 6494DDP     P238961  17.324   4.086  18.871  0.2505 -0.1816  0.1103
 6494DDP     C238962  17.625   4.429  18.671 -0.0867  0.0819  0.1740
 6494DDP     C338963  17.524   3.511  19.587  0.0005 -0.2294 -0.0513
 6494DDP     C438964  17.111   3.457  18.629  0.4147 -0.0452  0.1617
 6495DDP     C138965  13.267  13.613   0.833  0.0073 -0.0820 -0.1176
 6495DDP     P138966  13.119  13.674   1.398  0.1664  0.6552  0.2927
 6495DDP     P238967  13.313  13.925   0.538 -0.1567  0.0111 -0.0339
 6495DDP     C238968  13.696  13.891   0.477  0.2367 -0.2014 -0.3189
 6495DDP     C338969  12.952  13.842   1.765 -0.2468  0.4471 -0.4090
 6495DDP     C438970  13.143  13.260   0.672 -0.1413 -0.1596 -0.0541
 6496DDP     C138971  26.592  14.946  17.520  0.1788 -0.1818  0.3794
 6496DDP     P138972  26.239  14.803  17.277 -0.0622  0.3766  0.0377
 6496DDP     P238973  27.049  15.059  17.529  0.0607 -0.1278 -0.0112
 6496DDP     C238974  27.271  15.387  17.639  0.2139 -0.1108  0.0202
 6496DDP     C338975  25.960  14.912  16.956 -0.2609  0.0173 -0.0761
 6496DDP     C438976  26.488  15.037  17.898  0.0440  0.1036 -0.1608
 6497DDP     C138977  16.128  19.931  21.479  0.4268 -0.0547 -0.0920
 6497DDP     P138978  16.179  19.625  21.167  0.0241 -0.2959  0.0732
 6497DDP     P238979  15.905  20.417  21.322  0.0549 -0.2172 -0.2093
 6497DDP     C238980  15.633  20.372  20.927  0.1710 -0.1784 -0.1517
 6497DDP     C338981  15.995  19.414  20.807 -0.1178 -0.0727  0.2045
 6497DDP     C438982  16.229  20.056  21.905 -0.1271 -0.0498  0.0489
 6498DDP     C138983   3.767  17.051   1.349 -0.1730 -0.1783  0.3638
 6498DDP     P138984   3.994  16.903   1.002 -0.4409  0.0032  0.1596
 6498DDP     P238985   3.368  17.001   1.385 -0.0120  0.2755  0.0054
 6498DDP     C238986   2.956  17.132   1.564  0.0491  0.1783 -0.1881
 6498DDP     C338987   4.067  16.466   0.964 -0.0774 -0.0584  0.1480
 6498DDP     C438988   3.863  17.384   1.626  0.1083 -0.3421  0.1650
 6499DDP     C138989  20.431   5.374  27.336 -0.1814 -0.0962 -0.1659
 6499DDP     P138990  20.632   4.887  27.250 -0.2889 -0.0617 -0.1247
 6499DDP     P238991  20.649   5.685  27.468  0.2354 -0.0860  0.0967
 6499DDP     C238992  20.957   5.702  27.911 -0.0457 -0.1405 -0.4283
 6499DDP     C338993  20.493   4.493  27.407  0.1368 -0.1535  0.1707
 6499DDP     C438994  20.141   5.369  27.600  0.2379 -0.1052  0.0884
 6500DDP     C138995  29.761  17.293   8.848  0.1581  0.0968 -0.0081
 6500DDP     P138996  29.675  17.396   9.328 -0.1297 -0.2901  0.1356
 6500DDP     P238997  30.100  17.091   8.692 -0.1149  0.0149 -0.1557
 6500DDP     C238998   0.027  16.743   8.818 -0.0850 -0.0861  0.0580
 6500DDP     C338999  29.725  17.366   9.727  0.0380 -0.0334  0.1105
 6500DDP     C439000  29.496  17.614   8.631 -0.1246 -0.1572  0.1431
 6501DDP     C139001  27.833   1.130  12.460 -0.1829 -0.0235  0.0115
 6501DDP     P139002  27.394   1.231  12.707  0.0076  0.0481 -0.1354
 6501DDP     P239003  28.135   1.261  12.799 -0.1303 -0.1984 -0.1354
 6501DDP     C239004  28.434   1.336  13.017  0.1592 -0.2780 -0.1947
 6501DDP     C339005  27.126   1.164  13.172 -0.1457 -0.0269 -0.0215
 6501DDP     C439006  27.979   1.039  12.094  0.1443  0.1587 -0.2938
 6502DDP     C139007  23.916  20.431   6.889  0.3031 -0.2005  0.1431
 6502DDP     P139008  23.551  20.510   7.259 -0.0435 -0.0918  0.3521
 6502DDP     P239009  24.090  20.090   6.711  0.1331  0.0409 -0.0136
 6502DDP     C239010  24.492  19.813   6.628 -0.2293 -0.0189  0.0080
 6502DDP     C339011  23.282  20.208   7.438 -0.2947 -0.3317  0.2830
 6502DDP     C439012  24.043  20.738   6.679  0.3675 -0.3495 -0.0253
 6503DDP     C139013  29.471   5.351   9.736  0.1114 -0.2313 -0.3660
 6503DDP     P139014  29.471   5.311  10.181  0.3408  0.1113  0.1275
 6503DDP     P239015  29.584   5.817   9.505  0.1031  0.1384 -0.2335
 6503DDP     C239016  29.395   6.244   9.454  0.0705  0.0146 -0.1230
 6503DDP     C339017  29.729   5.104  10.494 -0.0566  0.2852  0.0582
 6503DDP     C439018  29.170   5.103   9.503  0.0897  0.0407  0.0486
 6504DDP     C139019  16.640  11.638  15.223 -0.1868 -0.2219 -0.1068
 6504DDP     P139020  16.882  11.599  15.567 -0.1144 -0.1169  0.1264
 6504DDP     P239021  16.336  11.322  15.177 -0.0823 -0.3101 -0.0355
 6504DDP     C239022  16.088  10.928  15.011 -0.2700  0.0931  0.0163
 6504DDP     C339023  16.745  11.506  16.011 -0.2270 -0.2796  0.0420
 6504DDP     C439024  16.725  11.862  14.706  0.0533 -0.1361 -0.1470
 6505DDP     C139025  11.696  27.599  23.308  0.0464 -0.1944 -0.1998
 6505DDP     P139026  11.902  27.783  23.687  0.2913 -0.0120 -0.2559
 6505DDP     P239027  12.072  27.686  23.064 -0.0492 -0.2115  0.0092
 6505DDP     C239028  12.344  27.900  23.378 -0.0469 -0.0084 -0.1020
 6505DDP     C339029  12.094  28.185  23.739 -0.1470 -0.1701  0.2104
 6505DDP     C439030  11.265  27.529  23.332  0.0550 -0.4105 -0.1890
 6506DDP     C139031  22.746  15.889   1.375  0.1908  0.0708 -0.0527
 6506DDP     P139032  23.052  15.831   1.638  0.0109  0.2240 -0.0392
 6506DDP     P239033  22.702  16.291   1.349  0.0529  0.2749 -0.0322
 6506DDP     C239034  22.466  16.611   1.219  0.0568  0.0017  0.1372
 6506DDP     C339035  23.449  15.637   1.674  0.1398 -0.1032 -0.1514
 6506DDP     C439036  22.707  15.670   1.058 -0.0899  0.0943  0.0007
 6507DDP     C139037  11.934  28.780   0.708 -0.3147  0.1038 -0.0105
 6507DDP     P139038  12.321  28.697   0.980 -0.0071  0.1347  0.0116
 6507DDP     P239039  12.004  28.831   0.298  0.2390  0.2894 -0.1408
 6507DDP     C239040  11.951  29.201  30.254  0.1808  0.0476  0.0590
 6507DDP     C339041  12.848  28.472   1.046 -0.2035 -0.0001 -0.0490
 6507DDP     C439042  11.559  28.988   0.822 -0.0678 -0.1540  0.0781
 6508DDP     C139043   7.980  29.191   7.510  0.1210 -0.2632  0.3609
 6508DDP     P139044   7.965  28.808   7.612 -0.1234  0.2362  0.1659
 6508DDP     P239045   7.585  29.538   7.487  0.1348  0.2357  0.0143
 6508DDP     C239046   7.314  29.898   7.425  0.0398  0.0325 -0.2167
 6508DDP     C339047   7.703  28.578   7.460  0.1253  0.0873 -0.1569
 6508DDP     C439048   8.298  29.137   7.162  0.0905  0.1231 -0.0116
 6509DDP     C139049  15.636  22.003   1.476 -0.1675  0.3366 -0.1747
 6509DDP     P139050  15.960  21.837   1.761  0.1392 -0.0541 -0.0349
 6509DDP     P239051  15.644  21.791   0.961 -0.3581  0.1043 -0.2696
 6509DDP     C239052  15.851  21.424   0.766 -0.1076 -0.0111 -0.0222
 6509DDP     C339053  16.359  21.686   1.992  0.1045 -0.0127  0.0425
 6509DDP     C439054  15.304  22.026   1.709 -0.0580  0.1322  0.1287
 6510DDP     C139055   9.424   2.682  10.811 -0.1197 -0.1633  0.0530
 6510DDP     P139056   9.601   3.095  10.630 -0.0472  0.1705 -0.0173
 6510DDP     P239057   9.127   2.465  10.607 -0.1672 -0.2855  0.2029
 6510DDP     C239058   8.979   2.473  10.185 -0.2439 -0.0942  0.1177
 6510DDP     C339059   9.438   3.428  10.455 -0.2684 -0.1469 -0.1623
 6510DDP     C439060   9.471   2.648  11.306  0.0548  0.3818 -0.1170
 6511DDP     C139061   7.242  25.557   2.624 -0.1118 -0.2894  0.0227
 6511DDP     P139062   7.304  25.651   3.058 -0.0551 -0.0245  0.2358
 6511DDP     P239063   7.051  25.700   2.183  0.2260 -0.0474 -0.1692
 6511DDP     C239064   6.934  25.562   1.724 -0.0590  0.2466  0.4505
 6511DDP     C339065   7.388  25.730   3.535  0.3033 -0.3288 -0.3342
 6511DDP     C439066   7.589  25.316   2.491 -0.3282 -0.2912 -0.0016
 6512DDP     C139067  21.116   0.132   5.723  0.2535 -0.0429  0.1788
 6512DDP     P139068  21.456   0.089   6.075  0.0967 -0.1492  0.2734
 6512DDP     P239069  20.719   0.437   5.764 -0.1046  0.0601 -0.0106
 6512DDP     C239070  20.400   0.318   5.478 -0.0132  0.0232 -0.1995
 6512DDP     C339071  21.586   0.345   6.440  0.0278 -0.1617 -0.1807
 6512DDP     C439072  21.126  30.115   5.506  0.0623  0.0068  0.1133
 6513DDP     C139073  21.416  10.107  13.462 -0.0807  0.4345  0.1495
 6513DDP     P139074  21.847  10.161  13.752 -0.1664  0.4198  0.0681
 6513DDP     P239075  21.557  10.552  13.128  0.0362 -0.0077  0.0305
 6513DDP     C239076  21.913  10.644  12.986  0.1783 -0.1003 -0.0774
 6513DDP     C339077  22.319  10.374  13.819  0.2102  0.1843 -0.1156
 6513DDP     C439078  21.154   9.853  13.523  0.2713 -0.2545 -0.3424
 6514DDP     C139079   8.198   9.292   5.426  0.0321 -0.0372 -0.0687
 6514DDP     P139080   8.244   9.217   4.960 -0.0982 -0.2877  0.0220
 6514DDP     P239081   7.773   9.281   5.674 -0.1946 -0.1754 -0.2332
 6514DDP     C239082   7.424   8.967   5.819 -0.2045 -0.1971 -0.2511
 6514DDP     C339083   8.457   9.332   4.601 -0.1297 -0.0925 -0.0651
 6514DDP     C439084   8.552   9.601   5.536  0.2676  0.1626 -0.0576
 6515DDP     C139085   5.815   8.700   4.538  0.1951 -0.0479 -0.0179
 6515DDP     P139086   5.388   8.833   4.693 -0.0214 -0.1213  0.1940
 6515DDP     P239087   6.048   8.874   4.905  0.0978 -0.2296 -0.2463
 6515DDP     C239088   6.406   8.854   5.123  0.1741 -0.1912 -0.3419
 6515DDP     C339089   5.337   8.968   5.029  0.3913  0.0058 -0.2455
 6515DDP     C439090   6.093   8.480   4.157 -0.1727  0.1733 -0.2315
 6516DDP     C139091  14.294   2.519   5.688 -0.1801  0.0912 -0.0122
 6516DDP     P139092  14.634   2.500   5.360  0.0327  0.1057 -0.0751
 6516DDP     P239093  14.325   2.059   6.016 -0.0875 -0.0717  0.1315
 6516DDP     C239094  14.257   1.844   6.355  0.2078  0.0696  0.4168
 6516DDP     C339095  14.821   2.373   4.983 -0.2275  0.2576  0.1260
 6516DDP     C439096  14.107   2.822   5.806  0.1725 -0.0154  0.1265
 6517DDP     C139097   8.378  22.576  11.942  0.2600 -0.2671 -0.2314
 6517DDP     P139098   8.253  22.350  11.597 -0.0689  0.1393  0.1294
 6517DDP     P239099   8.413  23.097  12.012  0.0513 -0.0639 -0.0968
 6517DDP     C239100   8.249  23.483  12.185 -0.0615  0.0388 -0.1821
 6517DDP     C339101   8.452  22.761  11.262  0.0875  0.2768  0.1494
 6517DDP     C439102   8.374  22.278  12.189 -0.1616 -0.0061  0.1976
 6518DDP     C139103   5.350  27.173  14.633 -0.0776  0.0899 -0.0071
 6518DDP     P139104   5.563  26.795  14.556 -0.0053 -0.1701 -0.2638
 6518DDP     P239105   5.618  27.483  14.376  0.0721  0.3248 -0.1551
 6518DDP     C239106   6.006  27.561  14.245  0.0179 -0.2181 -0.1725
 6518DDP     C339107   5.459  26.444  14.766 -0.0469  0.0455 -0.0027
 6518DDP     C439108   5.126  27.306  14.927  0.1349 -0.0968  0.1095
 6519DDP     C139109  15.352  27.381   4.155  0.0906  0.0616  0.3019
 6519DDP     P139110  15.843  27.397   4.083  0.2568 -0.1026 -0.1317
 6519DDP     P239111  15.210  27.157   4.483 -0.1377  0.0289  0.0824
 6519DDP     C239112  15.062  26.689   4.538  0.2051 -0.2330  0.0515
 6519DDP     C339113  16.003  27.185   3.722 -0.5820 -0.0328  0.1495
 6519DDP     C439114  15.180  27.511   3.793  0.1440 -0.0532 -0.3566
 6520DDP     C139115   9.193  25.559   4.982 -0.0902 -0.2164  0.3222
 6520DDP     P139116   8.836  25.634   4.986  0.3488 -0.0838 -0.1555
 6520DDP     P239117   9.499  25.638   4.598  0.2507 -0.3535  0.2297
 6520DDP     C239118   9.801  25.480   4.851  0.0212  0.1909  0.1016
 6520DDP     C339119   8.582  25.722   5.284  0.1533 -0.1190  0.1381
 6520DDP     C439120   9.528  25.702   5.330 -0.1380  0.1628  0.0958
 6521DDP     C139121  25.681  24.406  14.625 -0.0136  0.3423  0.1146
 6521DDP     P139122  26.056  24.186  14.830  0.1763  0.0889 -0.0657
 6521DDP     P239123  25.953  24.513  14.349 -0.1840 -0.1089  0.2660
 6521DDP     C239124  25.850  24.617  13.893  0.0408 -0.0925 -0.1408
 6521DDP     C339125  26.503  24.077  14.863 -0.0761  0.1073 -0.0538
 6521DDP     C439126  25.294  24.502  14.653  0.2117  0.3028  0.1820
 6522DDP     C139127  12.295  13.656  30.254  0.2324  0.2780 -0.1186
 6522DDP     P139128  12.002  13.750   0.170  0.0935  0.0876 -0.4981
 6522DDP     P239129  12.376  14.026  30.112 -0.4972 -0.1636 -0.0106
 6522DDP     C239130  12.438  14.048  29.642  0.2754 -0.0258  0.1443
 6522DDP     C339131  11.543  13.905   0.111  0.1257 -0.0166  0.0983
 6522DDP     C439132  12.417  13.318   0.188 -0.0063 -0.0274 -0.4272
 6523DDP     C139133  20.103   5.205   0.909 -0.0540 -0.1435 -0.1334
 6523DDP     P139134  19.867   5.021   0.601  0.0106 -0.0642 -0.1381
 6523DDP     P239135  19.758   5.393   1.072  0.0124 -0.0650  0.2064
 6523DDP     C239136  19.776   5.788   1.134 -0.0306 -0.0846 -0.2175
 6523DDP     C339137  19.623   4.756   0.849 -0.1144 -0.1168 -0.1543
 6523DDP     C439138  20.548   5.022   0.989 -0.1300  0.2205  0.0922
 6524DDP     C139139  25.910   7.403  22.014 -0.0418  0.1787  0.0322
 6524DDP     P139140  25.968   6.953  22.244 -0.1569 -0.2440 -0.0988
 6524DDP     P239141  26.039   7.563  21.640 -0.1254  0.2350 -0.6743
 6524DDP     C239142  26.258   7.292  21.370  0.3528 -0.0363  0.2430
 6524DDP     C339143  25.732   6.552  22.343 -0.0953  0.1913  0.1131
 6524DDP     C439144  25.517   7.583  22.196 -0.2091 -0.0068  0.2538
 6525DDP     C139145  13.703  19.099   4.071  0.0754  0.2261  0.0108
 6525DDP     P139146  14.162  19.078   3.932 -0.1226 -0.1971  0.1254
 6525DDP     P239147  13.486  19.067   4.481 -0.3620  0.1386  0.2302
 6525DDP     C239148  13.487  18.979   4.918 -0.0975  0.1579  0.2670
 6525DDP     C339149  14.610  19.180   3.817 -0.1842  0.0733  0.1750
 6525DDP     C439150  13.576  19.459   3.828 -0.0656  0.2711  0.3872
 6526DDP     C139151   1.692  24.942   0.303  0.1188  0.2873 -0.3430
 6526DDP     P139152   1.915  25.271   0.484  0.1336  0.0921  0.0915
 6526DDP     P239153   1.946  24.549   0.075 -0.0393 -0.0978  0.1232
 6526DDP     C239154   2.165  24.245  30.130  0.2392 -0.0361 -0.4610
 6526DDP     C339155   2.135  25.474   0.759 -0.1928  0.0942  0.2469
 6526DDP     C439156   1.299  24.994   0.162  0.0347  0.1888 -0.3177
 6527DDP     C139157  19.463  16.431  25.089 -0.3121  0.0990  0.2003
 6527DDP     P139158  19.582  16.435  25.478  0.3804 -0.1601  0.1743
 6527DDP     P239159  19.010  16.173  25.040 -0.1410 -0.0989 -0.2533
 6527DDP     C239160  18.569  16.188  25.073 -0.1294  0.1474  0.2165
 6527DDP     C339161  19.751  16.792  25.719  0.1959 -0.0080  0.0824
 6527DDP     C439162  19.697  16.457  24.751  0.0162  0.0376  0.0171
 6528DDP     C139163  19.209   2.896  11.356  0.2088 -0.0982  0.2374
 6528DDP     P139164  19.136   2.798  11.804  0.0211  0.0297  0.0295
 6528DDP     P239165  19.547   2.582  11.548 -0.0615 -0.3251 -0.0152
 6528DDP     C239166  19.884   2.279  11.564  0.2090  0.1042  0.0486
 6528DDP     C339167  19.408   2.762  12.163  0.0526  0.3191  0.2040
 6528DDP     C439168  19.009   3.196  10.998 -0.0340  0.2071  0.0250
 6529DDP     C139169  13.598  16.887  17.436  0.1760 -0.2982 -0.0966
 6529DDP     P139170  13.907  16.844  17.730 -0.0534 -0.0177 -0.1279
 6529DDP     P239171  13.057  17.072  17.506 -0.2382  0.3359  0.1013
 6529DDP     C239172  12.577  17.057  17.529 -0.0503 -0.2168 -0.0949
 6529DDP     C339173  14.127  16.525  18.010  0.0491  0.0937 -0.1672
 6529DDP     C439174  13.676  16.925  17.053 -0.0180  0.2423 -0.0789
 6530DDP     C139175  21.997  28.287  22.418 -0.0719 -0.0296 -0.1277
 6530DDP     P139176  21.737  28.448  22.705 -0.2169 -0.0659 -0.0164
 6530DDP     P239177  22.409  28.067  22.379  0.0663  0.1270 -0.1781
 6530DDP     C239178  22.745  28.057  22.666 -0.0357 -0.2369  0.1533
 6530DDP     C339179  21.336  28.386  22.833  0.3842  0.1254  0.2139
 6530DDP     C439180  21.888  28.596  22.069 -0.1239 -0.2170  0.0880
 6531DDP     C139181  19.389  22.146  17.448 -0.0216 -0.0853 -0.2205
 6531DDP     P139182  19.180  22.580  17.448 -0.3090  0.1732 -0.1103
 6531DDP     P239183  19.132  21.791  17.643 -0.0044 -0.1666  0.0390
 6531DDP     C239184  19.028  21.348  17.688 -0.1979 -0.1010 -0.2296
 6531DDP     C339185  19.394  23.002  17.493 -0.0819 -0.0220 -0.0454
 6531DDP     C439186  19.827  22.175  17.457  0.0239  0.2407 -0.0533
 6532DDP     C139187   2.664  15.514  24.074  0.0661  0.1937 -0.3219
 6532DDP     P139188   2.686  15.573  24.453 -0.0594  0.1065  0.2180
 6532DDP     P239189   2.892  15.107  24.009 -0.0125 -0.3479 -0.1306
 6532DDP     C239190   3.188  14.806  23.897 -0.2212 -0.2148  0.0216
 6532DDP     C339191   2.705  15.841  24.738  0.0263  0.0325 -0.0802
 6532DDP     C439192   2.499  15.782  23.733  0.1927  0.0312 -0.0104
 6533DDP     C139193   1.474  16.338   3.714 -0.0732  0.3804 -0.1558
 6533DDP     P139194   1.441  16.654   3.447 -0.1060 -0.2073  0.0008
 6533DDP     P239195   1.939  16.479   3.802 -0.2623  0.2251 -0.1225
 6533DDP     C239196   2.232  16.847   3.882  0.0169 -0.0547 -0.1384
 6533DDP     C339197   1.321  17.094   3.641 -0.0276  0.2150 -0.0371
 6533DDP     C439198   1.229  16.163   4.026  0.0522  0.1502 -0.1391
 6534DDP     C139199  19.157  11.080  29.060  0.2649 -0.0106  0.1794
 6534DDP     P139200  18.986  10.811  28.724  0.2127 -0.0939  0.2801
 6534DDP     P239201  19.428  10.933  29.413 -0.0216  0.0093  0.0239
 6534DDP     C239202  19.781  10.820  29.741  0.1937  0.1870  0.2086
 6534DDP     C339203  18.751  10.876  28.315 -0.1377 -0.0772  0.0299
 6534DDP     C439204  19.234  11.497  28.864  0.0418  0.0008  0.0098
 6535DDP     C139205  14.847  23.698  18.960 -0.1737 -0.2396  0.0009
 6535DDP     P139206  14.499  23.864  19.193  0.1981  0.1010 -0.1461
 6535DDP     P239207  15.141  23.443  19.273  0.0434  0.0690  0.1142
 6535DDP     C239208  15.520  23.597  19.426 -0.1746 -0.0313 -0.1389
 6535DDP     C339209  14.092  23.933  19.407  0.0145 -0.0808  0.1380
 6535DDP     C439210  15.064  23.770  18.509 -0.1271 -0.1265 -0.0439
 6536DDP     C139211  26.894   9.958  13.749  0.1917 -0.1090 -0.1301
 6536DDP     P139212  26.947   9.685  14.055  0.3206  0.0632  0.0409
 6536DDP     P239213  27.068  10.386  13.927 -0.1869  0.1550  0.0380
 6536DDP     C239214  27.326  10.514  13.613 -0.1303  0.0427 -0.0629
 6536DDP     C339215  27.114   9.552  14.360 -0.0032 -0.1410  0.1178
 6536DDP     C439216  26.630   9.841  13.414  0.1652  0.0614  0.1676
 6537DDP     C139217  16.875   5.016  18.200  0.0462 -0.2134 -0.1213
 6537DDP     P139218  17.074   5.422  18.014  0.2032  0.0634  0.3303
 6537DDP     P239219  16.801   4.841  18.492  0.1465  0.3054  0.2619
 6537DDP     C239220  16.640   4.481  18.685  0.0471  0.0027  0.0739
 6537DDP     C339221  16.990   5.782  17.689  0.1997 -0.1142  0.1083
 6537DDP     C439222  16.445   5.148  18.245 -0.1414 -0.1428 -0.2389
 6538DDP     C139223  10.826  14.242  15.147 -0.0430 -0.1713 -0.2638
 6538DDP     P139224  10.602  14.298  14.847 -0.2745 -0.1176  0.2988
 6538DDP     P239225  10.679  14.448  15.572  0.3176  0.0425 -0.1744
 6538DDP     C239226  10.845  14.237  15.880  0.0667  0.0495  0.1029
 6538DDP     C339227  10.190  14.241  14.750 -0.1899  0.0713  0.0166
 6538DDP     C439228  11.229  14.228  15.075 -0.0696 -0.1563  0.1255
 6539DDP     C139229  16.293  29.012   1.353 -0.0237  0.3121 -0.1632
 6539DDP     P139230  16.438  28.805   0.979  0.1506  0.1765 -0.0455
 6539DDP     P239231  16.514  29.079   1.709 -0.0533 -0.2265 -0.0370
 6539DDP     C239232  16.280  28.863   2.058 -0.3204  0.0642 -0.2036
 6539DDP     C339233  16.414  28.762   0.568  0.0133 -0.1446 -0.1906
 6539DDP     C439234  16.008  29.393   1.498  0.1568 -0.1128  0.1057
 6540DDP     C139235  10.501  25.753   3.235  0.1467  0.1132  0.0586
 6540DDP     P139236  10.281  25.440   3.488 -0.4178  0.0344  0.0836
 6540DDP     P239237  10.272  26.127   3.256 -0.0197 -0.0825 -0.1085
 6540DDP     C239238  10.349  26.459   3.221 -0.0977  0.3288  0.0334
 6540DDP     C339239  10.007  25.553   3.875  0.0995  0.1018  0.2716
 6540DDP     C439240  10.911  25.610   2.967 -0.1131  0.3318 -0.2182
 6541DDP     C139241  22.384  19.621  12.882 -0.1204  0.0980 -0.0339
 6541DDP     P139242  22.294  20.092  12.860 -0.1455 -0.0815 -0.0995
 6541DDP     P239243  22.219  19.394  13.192 -0.1391 -0.2653 -0.0274
 6541DDP     C239244  22.128  19.180  13.574  0.0490 -0.1035 -0.0690
 6541DDP     C339245  22.064  20.448  13.137  0.0498  0.3118 -0.2580
 6541DDP     C439246  22.717  19.373  12.520 -0.0131  0.0733  0.1493
 6542DDP     C139247  13.142  11.775  11.432 -0.1363  0.4400 -0.1174
 6542DDP     P139248  13.440  11.475  11.607 -0.0254 -0.1073 -0.1862
 6542DDP     P239249  12.730  11.791  11.326  0.0019 -0.0440  0.2737
 6542DDP     C239250  12.232  11.758  11.290  0.6255 -0.0077  0.1370
 6542DDP     C339251  13.722  11.569  11.941  0.1795  0.0310 -0.0024
 6542DDP     C439252  13.284  12.098  11.218 -0.1328 -0.1449 -0.0126
 6543DDP     C139253  12.108   9.549  29.642 -0.3559 -0.1573 -0.1059
 6543DDP     P139254  12.156   9.485  30.065 -0.2236 -0.4492  0.0911
 6543DDP     P239255  12.099   9.852  29.455  0.1378  0.1584 -0.3003
 6543DDP     C239256  12.302  10.100  29.328  0.0732  0.0372  0.0958
 6543DDP     C339257  12.127   9.418   0.196  0.0320  0.3148  0.1038
 6543DDP     C439258  11.817   9.262  29.626 -0.0871  0.0424  0.0247
 6544DDP     C139259  23.378  13.724   0.839  0.1158  0.0533  0.0260
 6544DDP     P139260  23.750  13.800   0.981  0.1725  0.0259 -0.1565
 6544DDP     P239261  23.058  13.323   1.069 -0.0384  0.2542 -0.0428
 6544DDP     C239262  22.628  13.040   1.096  0.1998  0.1627  0.1998
 6544DDP     C339263  23.984  13.681   1.350 -0.0133  0.0386  0.1448
 6544DDP     C439264  23.262  14.054   0.432  0.0579  0.1791 -0.3765
 6545DDP     C139265  27.919  22.534  11.835  0.1032  0.1991  0.0278
 6545DDP     P139266  28.058  22.988  11.814 -0.1398 -0.0575 -0.1931
 6545DDP     P239267  27.725  22.252  12.015  0.0207 -0.0665 -0.0929
 6545DDP     C239268  27.566  22.215  12.463  0.0259 -0.1601 -0.0858
 6545DDP     C339269  27.871  23.306  11.691  0.1221  0.2221 -0.1022
 6545DDP     C439270  27.938  22.380  11.441  0.0345  0.0739  0.1689
 6546DDP     C139271   4.541   9.369  15.838 -0.3206 -0.0082 -0.2789
 6546DDP     P139272   4.593   9.708  16.047  0.2210 -0.1209 -0.3486
 6546DDP     P239273   4.878   8.956  15.892 -0.2243 -0.1372 -0.0851
 6546DDP     C239274   5.290   8.721  16.022  0.1532 -0.1054 -0.3377
 6546DDP     C339275   4.744   9.901  16.430 -0.1190  0.1417 -0.3809
 6546DDP     C439276   4.182   9.340  15.749 -0.3625  0.2210 -0.0439
 6547DDP     C139277  28.904  17.194   1.044 -0.0544 -0.1441  0.0951
 6547DDP     P139278  29.020  16.800   0.878 -0.1241 -0.3728 -0.1320
 6547DDP     P239279  28.674  17.041   1.240  0.3244  0.2317  0.3933
 6547DDP     C239280  28.657  17.142   1.661  0.1601  0.0287 -0.1792
 6547DDP     C339281  28.690  16.532   0.877  0.0320 -0.1764 -0.1577
 6547DDP     C439282  28.896  17.551   0.890  0.0817 -0.0934 -0.0687
 6548DDP     C139283   8.849   2.026  13.724 -0.2899 -0.1024 -0.3217
 6548DDP     P139284   9.288   2.094  13.677 -0.2112 -0.0246  0.0589
 6548DDP     P239285   8.669   2.210  13.957 -0.1437  0.0755 -0.1645
 6548DDP     C239286   8.249   2.112  14.272 -0.1292 -0.0627  0.0398
 6548DDP     C339287   9.806   2.023  13.748 -0.0618 -0.0471 -0.2460
 6548DDP     C439288   8.649   1.782  13.381  0.1560 -0.1536  0.3755
 6549DDP     C139289   4.671  25.532  20.324 -0.0734 -0.1566  0.1691
 6549DDP     P139290   5.261  25.491  20.306 -0.0424  0.1843 -0.0308
 6549DDP     P239291   4.392  25.853  20.619 -0.0289 -0.2611 -0.2930
 6549DDP     C239292   4.494  26.230  20.919  0.3411 -0.1987  0.2237
 6549DDP     C339293   5.403  25.428  19.806 -0.0176 -0.0820 -0.2887
 6549DDP     C439294   4.476  25.263  20.286 -0.0519  0.0652  0.1699
 6550DDP     C139295   4.274  20.141  24.320 -0.0858  0.3606 -0.2080
 6550DDP     P139296   3.940  19.899  24.096  0.1145 -0.0494 -0.2305
 6550DDP     P239297   4.427  19.905  24.637  0.0282 -0.1342  0.1329
 6550DDP     C239298   4.466  19.892  25.149  0.3587 -0.0227 -0.0957
 6550DDP     C339299   3.774  19.898  23.720  0.0739  0.0593 -0.1488
 6550DDP     C439300   4.286  20.602  24.170 -0.3254 -0.2172  0.2238
 6551DDP     C139301   8.637   2.448   6.099 -0.0153 -0.0591 -0.2470
 6551DDP     P139302   9.065   2.518   6.019  0.1714  0.1969  0.0365
 6551DDP     P239303   8.572   2.273   6.515  0.2108 -0.0803 -0.1520
 6551DDP     C239304   8.378   2.508   6.811 -0.0830 -0.0231  0.1455
 6551DDP     C339305   9.342   2.788   6.258 -0.0877  0.4547 -0.1677
 6551DDP     C439306   8.263   2.418   5.858  0.0363  0.3254  0.0055
 6552DDP     C139307  12.435   4.164   3.035  0.0029 -0.1616 -0.0149
 6552DDP     P139308  12.632   3.731   3.081  0.4127  0.1474 -0.3399
 6552DDP     P239309  12.357   4.605   3.260 -0.1273 -0.2210  0.1190
 6552DDP     C239310  12.382   5.007   3.351 -0.2124 -0.0390  0.0891
 6552DDP     C339311  12.651   3.415   2.772 -0.0314 -0.0271  0.1342
 6552DDP     C439312  12.111   4.396   2.858  0.3800 -0.2849 -0.0363
 6553DDP     C139313   2.408  24.117  13.406  0.0322 -0.1328  0.1927
 6553DDP     P139314   2.489  23.676  13.381  0.1377  0.1247  0.0706
 6553DDP     P239315   2.689  24.461  13.433 -0.0402  0.1788 -0.3468
 6553DDP     C239316   2.877  24.727  13.844  0.2412 -0.0090 -0.0020
 6553DDP     C339317   2.659  23.286  13.379  0.0126  0.1089  0.4726
 6553DDP     C439318   1.957  24.337  13.290  0.3507  0.1357  0.1697
 6554DDP     C139319  23.787  18.212  17.842 -0.0650  0.0843 -0.0327
 6554DDP     P139320  23.926  18.061  17.435 -0.1795 -0.2043 -0.3041
 6554DDP     P239321  23.633  18.664  17.892 -0.3620 -0.1452 -0.1297
 6554DDP     C239322  23.776  18.996  18.129 -0.2391 -0.0036  0.1655
 6554DDP     C339323  23.951  18.151  17.065 -0.0410  0.0197 -0.0304
 6554DDP     C439324  24.098  18.159  18.127 -0.0004 -0.0016 -0.2730
 6555DDP     C139325  16.410  24.029  22.470  0.0377  0.1010  0.4002
 6555DDP     P139326  16.172  23.761  22.629 -0.2979 -0.0556 -0.0069
 6555DDP     P239327  16.330  24.449  22.394  0.2706 -0.3556 -0.1048
 6555DDP     C239328  16.500  24.803  22.285  0.0605 -0.1255  0.0124
 6555DDP     C339329  15.828  23.525  22.859 -0.0348  0.0855  0.0150
 6555DDP     C439330  16.765  23.780  22.360  0.0778 -0.2338  0.0649
 6556DDP     C139331  29.857   9.356   9.648 -0.2102  0.0321 -0.0406
 6556DDP     P139332  29.590   9.162   9.849  0.1784 -0.1124 -0.0192
 6556DDP     P239333  29.899   9.650   9.252 -0.2251 -0.1118  0.3565
 6556DDP     C239334  29.530   9.837   9.037 -0.0140 -0.0528 -0.1239
 6556DDP     C339335  29.342   9.203  10.278 -0.3887  0.2420 -0.1212
 6556DDP     C439336  30.202   9.176   9.596 -0.0394  0.0724  0.0947
 6557DDP     C139337  11.741  12.145  29.316 -0.0355 -0.4199  0.1151
 6557DDP     P139338  11.890  12.164  28.983 -0.2436 -0.2267 -0.1299
 6557DDP     P239339  11.869  12.498  29.573  0.1238  0.0459 -0.0312
 6557DDP     C239340  11.823  12.918  29.753 -0.0939 -0.0452  0.0893
 6557DDP     C339341  12.127  11.996  28.783 -0.0698  0.1564  0.0561
 6557DDP     C439342  11.505  11.819  29.404  0.1369 -0.1185 -0.1513
 6558DDP     C139343  22.888  11.341  10.933  0.1674 -0.0451  0.2312
 6558DDP     P139344  23.264  11.047  11.132 -0.3738  0.0460  0.0734
 6558DDP     P239345  22.604  11.382  11.229  0.1356 -0.1214  0.1017
 6558DDP     C239346  22.262  11.219  11.242  0.2121 -0.0254 -0.0976
 6558DDP     C339347  23.637  10.772  11.020 -0.2628  0.0332 -0.1428
 6558DDP     C439348  22.805  11.581  10.627  0.1500  0.0974 -0.2156
 6559DDP     C139349  26.058   6.564  26.016  0.0439 -0.0539 -0.0830
 6559DDP     P139350  26.427   6.516  26.105  0.0325  0.3130 -0.0645
 6559DDP     P239351  26.119   6.961  26.130  0.1363  0.1854 -0.0995
 6559DDP     C239352  26.315   7.346  26.279  0.0143  0.0359 -0.1104
 6559DDP     C339353  26.596   6.886  26.148 -0.0643  0.0965 -0.2885
 6559DDP     C439354  25.739   6.278  25.873  0.2106  0.2650 -0.3889
 6560DDP     C139355  12.045  11.836  22.095 -0.1025  0.1210 -0.1273
 6560DDP     P139356  12.163  12.123  22.257  0.0153 -0.0751 -0.0917
 6560DDP     P239357  12.317  11.566  21.932 -0.1682 -0.1717  0.2467
 6560DDP     C239358  12.532  11.301  21.742  0.0394 -0.2422 -0.0395
 6560DDP     C339359  11.996  12.472  22.434  0.0821 -0.2020 -0.2795
 6560DDP     C439360  11.697  11.674  22.189  0.0510  0.1701 -0.2050
 6561DDP     C139361  29.240  21.145   6.242  0.1017 -0.3659 -0.0399
 6561DDP     P139362  29.205  21.505   6.020  0.1005  0.0003 -0.2286
 6561DDP     P239363  28.848  21.208   6.147  0.1359  0.1639  0.2127
 6561DDP     C239364  28.486  21.069   6.084 -0.1416  0.1746  0.0402
 6561DDP     C339365  29.034  21.775   5.883 -0.2713  0.2561  0.1276
 6561DDP     C439366  29.441  20.792   6.491  0.0926 -0.0818 -0.2460
 6562DDP     C139367  19.353   7.980   3.469  0.1277  0.1013 -0.2358
 6562DDP     P139368  19.275   8.172   3.764 -0.1036 -0.0082  0.0184
 6562DDP     P239369  19.764   7.829   3.456 -0.0598 -0.0156 -0.1461
 6562DDP     C239370  20.222   7.668   3.519 -0.1376  0.0807  0.0362
 6562DDP     C339371  19.211   7.921   4.205  0.1372 -0.0562  0.1230
 6562DDP     C439372  19.142   7.839   3.083  0.2976  0.0539  0.0396
 6563DDP     C139373  19.477  12.215  18.480  0.0598 -0.0403 -0.0996
 6563DDP     P139374  19.226  12.027  18.032  0.3785 -0.0814 -0.2533
 6563DDP     P239375  19.892  12.312  18.385  0.1539 -0.0437 -0.3085
 6563DDP     C239376  20.209  12.068  18.349  0.1922  0.0910  0.1904
 6563DDP     C339377  19.083  11.824  17.644  0.1004  0.0685  0.0250
 6563DDP     C439378  19.367  12.546  18.773  0.1354  0.2002  0.2207
 6564DDP     C139379  15.345  17.412  24.130  0.0768  0.3798  0.0323
 6564DDP     P139380  15.587  17.743  24.373 -0.1372 -0.3050  0.0604
 6564DDP     P239381  14.945  17.417  23.928 -0.0236  0.0656  0.3202
 6564DDP     C239382  14.787  17.705  23.613  0.5862 -0.1108  0.1208
 6564DDP     C339383  15.759  17.732  24.829 -0.0546 -0.1880 -0.0416
 6564DDP     C439384  15.461  17.061  24.329  0.1960 -0.2584  0.0307
 6565DDP     C139385  11.653   4.983  24.782 -0.0892  0.0703  0.0973
 6565DDP     P139386  11.261   4.835  24.733  0.4998 -0.4531 -0.0045
 6565DDP     P239387  11.827   4.765  25.154  0.0207  0.0840  0.0959
 6565DDP     C239388  11.963   4.641  25.431  0.0229 -0.5619 -0.0129
 6565DDP     C339389  10.845   4.662  24.526 -0.0066 -0.1269  0.1747
 6565DDP     C439390  11.934   5.210  24.885 -0.0013  0.0716 -0.1169
 6566DDP     C139391  25.877   5.671  11.902  0.0349 -0.0839  0.0838
 6566DDP     P139392  25.996   6.048  12.144 -0.2144  0.3336 -0.2569
 6566DDP     P239393  25.507   5.492  11.774 -0.1949  0.1151  0.0033
 6566DDP     C239394  25.339   5.169  11.373  0.2756  0.1246 -0.0176
 6566DDP     C339395  26.096   6.518  11.981  0.1637 -0.1714  0.0113
 6566DDP     C439396  26.304   5.693  11.592 -0.0674 -0.0879 -0.0700
 6567DDP     C139397  30.096  17.203  16.259 -0.0655 -0.0543  0.1990
 6567DDP     P139398   0.086  16.871  16.358 -0.3072 -0.0375 -0.1298
 6567DDP     P239399  30.121  17.464  15.908 -0.0337 -0.0790 -0.1972
 6567DDP     C239400  30.064  17.694  15.474 -0.3367  0.1138 -0.0993
 6567DDP     C339401   0.378  17.037  16.358 -0.0560  0.2185  0.2813
 6567DDP     C439402  29.860  17.357  16.586 -0.1477 -0.1339  0.0384
 6568DDP     C139403  13.800   3.951  20.456  0.1296 -0.1440  0.3252
 6568DDP     P139404  13.943   4.071  20.828 -0.4428 -0.1307 -0.1862
 6568DDP     P239405  13.489   4.161  20.366  0.4097 -0.2220 -0.0363
 6568DDP     C239406  13.204   4.455  20.292  0.0531  0.0619  0.0408
 6568DDP     C339407  14.172   4.454  21.076  0.2456 -0.2479  0.3193
 6568DDP     C439408  13.989   3.528  20.244  0.2262 -0.3013 -0.2701
 6569DDP     C139409  10.384  25.267   0.186  0.1479 -0.1098 -0.2196
 6569DDP     P139410  10.126  25.087   0.472 -0.1216  0.1698  0.1093
 6569DDP     P239411  10.840  25.411   0.352 -0.2440  0.0481 -0.1440
 6569DDP     C239412  11.300  25.466   0.171  0.0593  0.3282 -0.0397
 6569DDP     C339413   9.731  24.838   0.581  0.2623  0.0084 -0.0066
 6569DDP     C439414  10.364  25.162  30.043  0.2248 -0.3759 -0.2050
 6570DDP     C139415   8.080  15.859  28.097 -0.3054  0.0810 -0.2594
 6570DDP     P139416   7.646  15.961  27.987 -0.1612 -0.0476  0.0239
 6570DDP     P239417   8.303  15.436  27.973  0.2073 -0.1043  0.0501
 6570DDP     C239418   8.206  14.953  28.122  0.1244 -0.2087  0.2260
 6570DDP     C339419   7.235  15.845  27.989  0.1261 -0.0742  0.2983
 6570DDP     C439420   8.377  16.293  28.141  0.1469 -0.2047  0.0160
 6571DDP     C139421   9.913   3.734  27.907  0.0993  0.2040  0.2964
 6571DDP     P139422  10.157   4.114  27.953  0.1409  0.1599 -0.3681
 6571DDP     P239423   9.933   3.490  28.174  0.1301  0.2858  0.0237
 6571DDP     C239424  10.023   3.548  28.669 -0.3167 -0.0730  0.2917
 6571DDP     C339425  10.203   4.564  28.103  0.1593 -0.3985 -0.0762
 6571DDP     C439426   9.769   3.581  27.485  0.0130  0.0716  0.0406
 6572DDP     C139427  14.210  22.206   1.115 -0.2512  0.1199  0.2003
 6572DDP     P139428  14.244  21.975   1.486 -0.1369  0.0210 -0.0913
 6572DDP     P239429  13.862  22.216   1.177  0.4450  0.1879  0.1517
 6572DDP     C239430  13.457  22.395   1.290  0.0176 -0.2729  0.0289
 6572DDP     C339431  13.873  21.730   1.336 -0.0076  0.3169 -0.0031
 6572DDP     C439432  14.594  22.506   1.226 -0.0047  0.0682 -0.2088
 6573DDP     C139433  28.311   4.023  30.219 -0.2944 -0.4143  0.1831
 6573DDP     P139434  28.775   4.244   0.023  0.1813  0.0510  0.0585
 6573DDP     P239435  28.293   3.605  29.968 -0.1355  0.1852  0.3440
 6573DDP     C239436  27.978   3.482  29.679 -0.2891 -0.0172 -0.1397
 6573DDP     C339437  28.771   4.152   0.430 -0.0385  0.0261 -0.0613
 6573DDP     C439438  28.284   4.274   0.194 -0.2458  0.3255 -0.2180
 6574DDP     C139439  12.561  26.918   2.844  0.0598 -0.0016  0.2011
 6574DDP     P139440  12.881  26.933   3.141  0.0067  0.0326 -0.0757
 6574DDP     P239441  12.199  26.743   2.616 -0.3526  0.1924  0.1703
 6574DDP     C239442  11.806  26.511   2.475  0.1487 -0.0694  0.1010
 6574DDP     C339443  12.912  27.101   3.669 -0.1431  0.1024 -0.1323
 6574DDP     C439444  12.504  27.385   2.866  0.0212 -0.1480  0.1634
 6575DDP     C139445  20.991  23.915  10.931 -0.2206  0.0433  0.3597
 6575DDP     P139446  21.286  23.921  11.210  0.1575 -0.2917  0.2097
 6575DDP     P239447  20.567  23.958  11.165 -0.1166  0.2034 -0.5751
 6575DDP     C239448  20.245  24.089  11.209 -0.1515 -0.3209 -0.1041
 6575DDP     C339449  21.633  24.210  11.283  0.2577 -0.0179  0.1888
 6575DDP     C439450  21.053  23.873  10.476  0.0921  0.2295  0.2223
 6576DDP     C139451   6.638  14.569  21.084  0.1298  0.0909  0.0596
 6576DDP     P139452   6.701  14.312  21.501 -0.2143 -0.2957  0.1493
 6576DDP     P239453   6.438  14.882  21.168  0.1315 -0.0146  0.1376
 6576DDP     C239454   6.189  14.641  21.470  0.2462 -0.0839  0.2219
 6576DDP     C339455   6.669  13.921  21.694 -0.1009  0.1169  0.0366
 6576DDP     C439456   6.585  14.454  20.643 -0.2531 -0.1341 -0.0931
 6577DDP     C139457   1.071  28.209  21.970 -0.2478 -0.2111 -0.3651
 6577DDP     P139458   1.386  28.033  21.875 -0.0757  0.2798  0.1132
 6577DDP     P239459   0.642  28.009  21.886  0.0383 -0.0674  0.1410
 6577DDP     C239460   0.262  28.100  21.676  0.1752  0.2682 -0.3367
 6577DDP     C339461   1.851  28.015  21.904 -0.1071 -0.0614  0.2213
 6577DDP     C439462   1.027  28.636  22.235  0.0984  0.0192  0.1654
 6578DDP     C139463   2.399   2.571  21.218 -0.5245  0.2130  0.0978
 6578DDP     P139464   2.632   2.744  20.890 -0.0520 -0.1040  0.0688
 6578DDP     P239465   2.075   2.591  20.939  0.2152  0.0530  0.0383
 6578DDP     C239466   1.574   2.480  20.968 -0.1152 -0.2474  0.3160
 6578DDP     C339467   2.382   2.683  20.535 -0.2086 -0.0983 -0.3900
 6578DDP     C439468   2.459   2.792  21.641  0.0334 -0.1940  0.0525
 6579DDP     C139469   4.580  22.870  18.437 -0.0613  0.1144 -0.4821
 6579DDP     P139470   4.252  22.592  18.550 -0.1451  0.1994 -0.0802
 6579DDP     P239471   4.891  22.719  18.253  0.3314 -0.0824  0.2772
 6579DDP     C239472   5.136  22.436  17.942  0.0516  0.0387 -0.1123
 6579DDP     C339473   4.000  22.515  18.826  0.0118 -0.0932 -0.0884
 6579DDP     C439474   4.530  23.350  18.261  0.1123 -0.1890  0.1859
 6580DDP     C139475  24.528  21.968  27.739 -0.1530  0.1812 -0.2256
 6580DDP     P139476  24.652  21.605  27.632  0.0441 -0.0864 -0.1175
 6580DDP     P239477  24.176  22.054  27.519 -0.0549 -0.1984 -0.0895
 6580DDP     C239478  23.812  22.160  27.643 -0.0847 -0.0155 -0.2842
 6580DDP     C339479  24.913  21.266  27.556  0.0755 -0.1984 -0.3098
 6580DDP     C439480  24.841  22.312  27.880 -0.5292 -0.1151  0.1632
 6581DDP     C139481   8.402  20.172  28.049  0.0459  0.4892 -0.0941
 6581DDP     P139482   8.729  20.328  27.865  0.0033  0.2737  0.0539
 6581DDP     P239483   8.168  20.337  28.395 -0.2822 -0.1345  0.0639
 6581DDP     C239484   7.850  20.348  28.759  0.0673 -0.1003 -0.2263
 6581DDP     C339485   9.138  20.118  27.929  0.0602  0.1846 -0.0775
 6581DDP     C439486   8.432  19.731  28.251  0.0619 -0.2919 -0.1049
 6582DDP     C139487  27.846  10.058   8.845 -0.1653 -0.1241 -0.3121
 6582DDP     P139488  27.724  10.467   8.911 -0.0833 -0.2439  0.0088
 6582DDP     P239489  28.084   9.734   9.136 -0.3574 -0.3838  0.1063
 6582DDP     C239490  28.190   9.266   9.149  0.0383 -0.0094  0.0305
 6582DDP     C339491  27.335  10.659   9.115  0.0183  0.0188  0.0619
 6582DDP     C439492  27.895   9.949   8.423 -0.1578  0.0145  0.3592
 6583DDP     C139493  17.456  16.330   2.719 -0.2459  0.2011 -0.2082
 6583DDP     P139494  17.746  16.541   3.111 -0.3101 -0.1269  0.3065
 6583DDP     P239495  17.452  16.387   2.324 -0.1326  0.0114  0.0676
 6583DDP     C239496  17.400  16.609   1.921  0.0162 -0.1095 -0.0564
 6583DDP     C339497  17.807  16.895   3.509  0.3491  0.2246 -0.2014
 6583DDP     C439498  17.096  16.352   2.986  0.0345  0.1110  0.0706
 6584DDP     C139499   6.135  25.249   2.934  0.1369 -0.1290  0.0772
 6584DDP     P139500   6.419  24.932   2.769  0.1356 -0.0899  0.5452
 6584DDP     P239501   6.097  25.662   2.899 -0.1009  0.0814  0.0508
 6584DDP     C239502   5.875  25.955   2.715  0.2477 -0.1964 -0.5499
 6584DDP     C339503   6.839  24.677   2.778  0.3424  0.0561  0.2842
 6584DDP     C439504   6.146  25.168   3.418  0.1738 -0.0566  0.0769
 6585DDP     C139505   7.564  27.908  10.392  0.0528  0.0374  0.0399
 6585DDP     P139506   7.914  27.687  10.459  0.1441  0.1638 -0.2768
 6585DDP     P239507   7.677  28.313  10.379  0.1582  0.1984 -0.0311
 6585DDP     C239508   7.943  28.717  10.366  0.2082  0.0969 -0.2277
 6585DDP     C339509   8.363  27.566  10.382  0.2513  0.0590 -0.0952
 6585DDP     C439510   7.162  27.656  10.485  0.3537 -0.1435 -0.3283
 6586DDP     C139511  29.449   2.306  11.568  0.2420  0.0436 -0.0367
 6586DDP     P139512  29.669   2.462  11.912 -0.0244 -0.0866 -0.1286
 6586DDP     P239513  29.321   1.993  11.295 -0.2794  0.1216 -0.1517
 6586DDP     C239514  29.328   1.672  10.964  0.0703 -0.1174  0.0431
 6586DDP     C339515  29.625   2.837  12.187  0.0402 -0.1536  0.2898
 6586DDP     C439516  29.659   2.689  11.395 -0.0978  0.1860 -0.0350
 6587DDP     C139517  18.409  14.077  19.440 -0.2636  0.1288 -0.1367
 6587DDP     P139518  18.030  14.148  19.536  0.0154  0.0196  0.1269
 6587DDP     P239519  18.652  14.100  19.766 -0.1678  0.1425 -0.0637
 6587DDP     C239520  19.006  14.385  19.805 -0.0088  0.0837  0.3769
 6587DDP     C339521  18.019  14.579  19.695 -0.1153  0.0942 -0.0595
 6587DDP     C439522  18.430  13.716  19.173 -0.1154 -0.0275 -0.1898
 6588DDP     C139523  11.916   2.001  26.969  0.0581 -0.0590  0.0648
 6588DDP     P139524  12.110   1.587  27.001  0.0590  0.1178 -0.0874
 6588DDP     P239525  11.661   2.205  26.554  0.0323  0.0811 -0.0989
 6588DDP     C239526  11.723   2.610  26.355  0.1511  0.0196 -0.0081
 6588DDP     C339527  11.955   1.226  26.706 -0.2826 -0.0711 -0.2253
 6588DDP     C439528  11.815   2.210  27.354 -0.0423 -0.1323 -0.0181
 6589DDP     C139529  12.145  18.940  26.064 -0.1305 -0.0448  0.1355
 6589DDP     P139530  11.710  18.787  26.073  0.2218  0.0401 -0.2599
 6589DDP     P239531  12.214  19.267  26.441  0.3978  0.2808  0.0036
 6589DDP     C239532  12.101  19.144  26.950 -0.3430  0.1155  0.0125
 6589DDP     C339533  11.608  18.462  26.426  0.0881 -0.0026  0.2555
 6589DDP     C439534  12.345  18.517  25.858 -0.2840  0.2753 -0.1868
 6590DDP     C139535  24.583   0.257  19.763  0.1067 -0.1593  0.0939
 6590DDP     P139536  24.757  30.243  19.764  0.2615  0.1392 -0.1439
 6590DDP     P239537  24.307   0.328  19.448  0.0786  0.1064  0.3503
 6590DDP     C239538  23.980   0.135  19.128  0.1970 -0.3801  0.0092
 6590DDP     C339539  24.661  29.776  19.868 -0.5307 -0.1431  0.2796
 6590DDP     C439540  24.570   0.396  20.159  0.0349 -0.2603  0.0782
 6591DDP     C139541  18.346  25.171   2.509  0.1478  0.0572  0.2846
 6591DDP     P139542  18.768  25.197   2.296  0.2446 -0.3653 -0.0358
 6591DDP     P239543  17.961  24.898   2.448  0.1795  0.1433  0.1179
 6591DDP     C239544  17.608  25.032   2.138 -0.2178 -0.2615 -0.0243
 6591DDP     C339545  19.143  24.949   2.429 -0.0531  0.0049  0.0290
 6591DDP     C439546  18.224  25.627   2.740 -0.0194 -0.2226  0.1044
 6592DDP     C139547  25.622   3.082  10.768  0.1321  0.3443  0.1810
 6592DDP     P139548  25.552   3.401  10.504 -0.1342 -0.2066 -0.1510
 6592DDP     P239549  25.507   3.094  11.224  0.0917 -0.0285  0.0859
 6592DDP     C239550  25.110   2.977  11.420 -0.0322 -0.4366  0.0909
 6592DDP     C339551  25.545   3.840  10.173 -0.2795 -0.1062 -0.1502
 6592DDP     C439552  25.750   2.621  10.670  0.1422 -0.1700 -0.0855
 6593DDP     C139553   4.525  12.656  26.617 -0.1018 -0.1380  0.0370
 6593DDP     P139554   4.333  12.641  26.299  0.1427  0.1157 -0.3124
 6593DDP     P239555   4.443  12.201  26.740 -0.1463 -0.0725  0.0128
 6593DDP     C239556   4.555  11.705  26.623 -0.0987  0.1334 -0.2503
 6593DDP     C339557   4.267  12.798  25.984 -0.1455  0.0335  0.1955
 6593DDP     C439558   4.501  13.009  26.887 -0.1727  0.2018  0.0015
 6594DDP     C139559  10.534  21.174  18.412 -0.1391 -0.1077 -0.3615
 6594DDP     P139560  10.087  21.448  18.460 -0.0559  0.2263 -0.0070
 6594DDP     P239561  10.438  20.727  18.187  0.1604  0.0241  0.0860
 6594DDP     C239562  10.096  20.458  18.352  0.0170  0.0996  0.2966
 6594DDP     C339563   9.687  21.549  18.739 -0.5266  0.0593 -0.0255
 6594DDP     C439564  10.908  21.416  18.269  0.3408 -0.4763 -0.1351
 6595DDP     C139565  25.283  29.815   1.437  0.2074 -0.2852 -0.0690
 6595DDP     P139566  25.082  29.467   1.772  0.1596  0.1515  0.1159
 6595DDP     P239567  24.925  30.109   1.316  0.0124  0.0618  0.0008
 6595DDP     C239568  24.656   0.084   0.951 -0.2652  0.1545  0.1337
 6595DDP     C339569  25.108  29.168   2.182 -0.2666  0.0788  0.0847
 6595DDP     C439570  25.717  29.992   1.509  0.3865 -0.2390  0.2725
 6596DDP     C139571  15.872  16.444   0.432  0.0233 -0.0762 -0.2999
 6596DDP     P139572  16.016  16.045   0.346  0.0515  0.3029  0.0407
 6596DDP     P239573  15.962  16.702   0.830 -0.2869  0.0080  0.0581
 6596DDP     C239574  15.784  16.977   1.166  0.2473 -0.2009  0.0429
 6596DDP     C339575  16.346  15.551   0.313  0.0698 -0.0532 -0.0803
 6596DDP     C439576  15.310  16.454   0.258 -0.2013 -0.1194 -0.0481
 6597DDP     C139577  24.149  10.866   3.927 -0.1450  0.2566  0.1186
 6597DDP     P139578  23.829  10.540   4.106  0.1097 -0.3983 -0.0215
 6597DDP     P239579  24.353  10.825   3.452  0.0993  0.1869  0.0255
 6597DDP     C239580  24.434  10.785   3.066  0.1259  0.2455 -0.0587
 6597DDP     C339581  23.769  10.395   4.507  0.3028 -0.0455  0.0049
 6597DDP     C439582  24.525  11.007   4.187 -0.0280 -0.0915 -0.0988
 6598DDP     C139583  18.290  15.090  10.447 -0.0300  0.0497  0.0687
 6598DDP     P139584  18.710  14.840  10.273 -0.0788 -0.0519  0.0321
 6598DDP     P239585  17.879  14.843  10.307  0.3153 -0.0096 -0.0160
 6598DDP     C239586  17.623  14.429  10.384 -0.0061 -0.0701  0.3547
 6598DDP     C339587  18.766  14.697   9.863  0.0121 -0.1614 -0.0714
 6598DDP     C439588  18.308  15.309  10.825 -0.1545  0.1575 -0.1613
 6599DDP     C139589  12.662  17.381  28.689 -0.5397  0.2536  0.1346
 6599DDP     P139590  12.648  16.988  29.008  0.1499 -0.1309  0.2438
 6599DDP     P239591  12.851  17.765  28.717 -0.0943  0.0351  0.2966
 6599DDP     C239592  12.896  18.051  28.337 -0.0968 -0.2451  0.2221
 6599DDP     C339593  12.498  16.822  29.445 -0.0564 -0.0104 -0.2697
 6599DDP     C439594  12.257  17.685  28.736  0.1883 -0.3173 -0.0945
 6600DDP     C139595   9.598  24.134   0.606  0.1472 -0.0542  0.1221
 6600DDP     P139596   9.186  24.113   0.852 -0.2330  0.2062  0.0541
 6600DDP     P239597   9.666  24.421   0.934 -0.0117  0.1917  0.0754
 6600DDP     C239598   9.737  24.763   1.189  0.3223  0.2001 -0.0955
 6600DDP     C339599   8.840  24.368   0.894  0.1299 -0.0712  0.1713
 6600DDP     C439600   9.883  23.957   0.328  0.3330 -0.0196  0.0081
 6601DDP     C139601   7.945  19.814   3.778  0.3074  0.1719  0.1960
 6601DDP     P139602   7.762  19.788   3.267 -0.0970  0.0522  0.0580
 6601DDP     P239603   8.306  19.661   3.766  0.1961  0.0151 -0.1994
 6601DDP     C239604   8.569  19.343   3.776  0.0551 -0.0380  0.0879
 6601DDP     C339605   7.748  19.508   2.894 -0.0205 -0.0940  0.2738
 6601DDP     C439606   7.772  20.214   4.029 -0.0213  0.1979 -0.1343
 6602DDP     C139607  29.019  11.332  13.972 -0.1257 -0.2670  0.2346
 6602DDP     P139608  28.635  11.443  14.151 -0.1234  0.0413  0.0206
 6602DDP     P239609  29.087  11.255  13.530  0.2096 -0.0332 -0.1018
 6602DDP     C239610  29.059  11.596  13.282  0.1805 -0.3037 -0.1618
 6602DDP     C339611  28.299  11.428  14.082  0.3080  0.1094  0.0579
 6602DDP     C439612  29.280  11.191  14.410  0.0664 -0.0679  0.0039
 6603DDP     C139613  24.820  15.669  16.077  0.3615 -0.1470 -0.4243
 6603DDP     P139614  24.676  15.693  16.440 -0.0615  0.2869 -0.1006
 6603DDP     P239615  25.152  15.913  16.098 -0.2114 -0.2930 -0.3170
 6603DDP     C239616  25.341  16.135  16.322 -0.0287  0.0115  0.4826
 6603DDP     C339617  24.393  15.458  16.622  0.2969  0.0390 -0.0685
 6603DDP     C439618  24.676  15.470  15.725  0.0833  0.1212 -0.1238
 6604DDP     C139619  23.761   2.322  19.967 -0.1508  0.0006 -0.0369
 6604DDP     P139620  23.968   2.131  20.313 -0.1025  0.0657  0.2120
 6604DDP     P239621  23.364   2.297  19.843  0.0808  0.3559  0.0976
 6604DDP     C239622  23.091   2.595  19.798 -0.0468  0.0690 -0.0591
 6604DDP     C339623  24.210   1.866  20.595  0.0316 -0.2286 -0.3130
 6604DDP     C439624  23.856   2.484  19.581 -0.1692  0.0113  0.3286
 6605DDP     C139625  29.329  24.893   8.276 -0.0235  0.1095 -0.2329
 6605DDP     P139626  29.730  25.101   8.239 -0.0223 -0.2100 -0.1491
 6605DDP     P239627  29.221  24.800   7.860 -0.0482  0.0405 -0.2645
 6605DDP     C239628  29.374  24.846   7.405  0.2711  0.1217  0.0095
 6605DDP     C339629  30.128  25.111   8.142 -0.2024 -0.4064 -0.2230
 6605DDP     C439630  29.208  24.741   8.673 -0.0200 -0.2215 -0.0930
 6606DDP     C139631   8.790  22.848  22.673 -0.1884 -0.0651  0.1270
 6606DDP     P139632   8.989  22.976  22.278 -0.0487  0.0586  0.2264
 6606DDP     P239633   8.598  22.399  22.422 -0.2082 -0.0058  0.0402
 6606DDP     C239634   8.196  22.266  22.359 -0.1799 -0.1732  0.1129
 6606DDP     C339635   8.879  23.105  21.918 -0.0151 -0.0049  0.2280
 6606DDP     C439636   8.581  23.119  22.898 -0.1249  0.0343  0.0207
 6607DDP     C139637  17.861   4.040  17.239  0.2286 -0.1288  0.0931
 6607DDP     P139638  18.236   4.253  17.315  0.1604  0.2793  0.1464
 6607DDP     P239639  17.822   3.693  16.938  0.1747 -0.2331  0.0627
 6607DDP     C239640  17.860   3.284  16.759  0.0855  0.1055  0.3785
 6607DDP     C339641  18.589   4.499  17.512  0.0302  0.1877 -0.0635
 6607DDP     C439642  17.461   4.193  17.454  0.0592 -0.0233 -0.2731
 6608DDP     C139643   0.951  30.249  15.190  0.0477  0.2286 -0.0951
 6608DDP     P139644   0.851   0.282  15.032  0.0646 -0.2738 -0.0051
 6608DDP     P239645   1.315  30.054  15.225 -0.2071  0.0691 -0.0836
 6608DDP     C239646   1.518  30.135  15.604 -0.0795  0.0637 -0.5019
 6608DDP     C339647   1.194   0.534  14.835  0.0153 -0.1443  0.1162
 6608DDP     C439648   0.607  30.005  15.336  0.0871  0.1853 -0.2039
 6609DDP     C139649   7.914  24.952   8.226  0.3424  0.0987 -0.0115
 6609DDP     P139650   7.661  25.270   8.430  0.3079  0.2407  0.1540
 6609DDP     P239651   8.021  24.881   7.807  0.1641 -0.0223 -0.0975
 6609DDP     C239652   7.953  25.345   7.630  0.1586 -0.0670 -0.1798
 6609DDP     C339653   7.347  25.572   8.536 -0.2100 -0.0797 -0.0235
 6609DDP     C439654   8.114  24.707   8.564 -0.2889  0.0382 -0.1340
 6610DDP     C139655   2.860  28.435   7.455  0.1797 -0.0473  0.0571
 6610DDP     P139656   2.729  28.545   7.783  0.0490 -0.0782  0.1052
 6610DDP     P239657   2.883  27.961   7.376  0.0085 -0.0157 -0.1148
 6610DDP     C239658   3.004  27.519   7.359  0.2457 -0.1158 -0.3280
 6610DDP     C339659   2.482  28.585   8.179  0.1034  0.4346  0.0303
 6610DDP     C439660   2.796  28.677   7.004  0.1548 -0.2072 -0.0630
 6611DDP     C139661   6.039   0.473   2.452  0.1519 -0.2814  0.0298
 6611DDP     P139662   6.252   0.284   2.808 -0.0148  0.1955 -0.3423
 6611DDP     P239663   6.185   0.963   2.228 -0.0903  0.0249 -0.0214
 6611DDP     C239664   6.487   1.280   2.375 -0.0348  0.1707  0.0877
 6611DDP     C339665   6.074   0.036   3.228  0.2564  0.1096  0.0866
 6611DDP     C439666   5.592   0.314   2.385 -0.1362 -0.0575  0.2496
 6612DDP     C139667  13.338   2.746   5.660  0.1330  0.1716 -0.1040
 6612DDP     P139668  13.008   2.993   5.725  0.0799 -0.2596 -0.1749
 6612DDP     P239669  13.409   2.394   5.430 -0.3846  0.1462 -0.2290
 6612DDP     C239670  13.507   2.262   5.050 -0.0400  0.0976  0.0928
 6612DDP     C339671  12.716   3.306   5.825 -0.1046 -0.0501  0.2763
 6612DDP     C439672  13.636   2.932   5.924 -0.0418 -0.2642  0.1062
 6613DDP     C139673   2.191   6.071  20.033  0.0294 -0.1528 -0.0529
 6613DDP     P139674   2.048   6.404  19.713 -0.2197  0.0301 -0.1687
 6613DDP     P239675   2.380   5.591  19.940  0.1348  0.2557  0.3211
 6613DDP     C239676   2.509   5.057  19.952  0.0922  0.1145 -0.1327
 6613DDP     C339677   1.973   6.838  19.536 -0.2714 -0.0019  0.0319
 6613DDP     C439678   2.162   6.203  20.414 -0.0172  0.3564 -0.1614
 6614DDP     C139679  10.045  19.658  18.380 -0.1124 -0.0526  0.1255
 6614DDP     P139680   9.966  19.194  18.220 -0.1512 -0.3462 -0.0320
 6614DDP     P239681  10.233  19.950  18.167 -0.0015 -0.2010 -0.1716
 6614DDP     C239682  10.093  20.291  17.846  0.1440 -0.0069 -0.1623
 6614DDP     C339683   9.929  19.086  17.872  0.0796 -0.0402  0.2852
 6614DDP     C439684   9.833  19.742  18.773 -0.1843 -0.3842  0.0712
 6615DDP     C139685  21.120  16.898   2.204  0.0906  0.3567  0.0419
 6615DDP     P139686  21.567  17.032   2.009  0.0322  0.0734  0.1604
 6615DDP     P239687  21.063  16.519   2.533 -0.0401 -0.0444  0.1447
 6615DDP     C239688  21.041  16.131   2.750 -0.0853 -0.1008 -0.3224
 6615DDP     C339689  21.832  17.280   1.841 -0.1012 -0.2925  0.2037
 6615DDP     C439690  20.792  17.223   2.240 -0.0267 -0.0473 -0.1881
 6616DDP     C139691   1.262   0.528  17.336  0.3499 -0.1574 -0.1375
 6616DDP     P139692   1.045   0.353  17.649  0.2519 -0.2848  0.1163
 6616DDP     P239693   1.242   0.445  16.864 -0.2658 -0.1817 -0.1585
 6616DDP     C239694   1.040   0.703  16.542  0.1542  0.0798  0.0723
 6616DDP     C339695   0.660   0.478  17.668 -0.1108 -0.1478  0.0863
 6616DDP     C439696   1.373   0.937  17.542  0.2513  0.3552 -0.1892
 6617DDP     C139697  18.318   4.919   1.257 -0.2638  0.3211 -0.0976
 6617DDP     P139698  18.723   4.881   1.447  0.2622  0.0430  0.0994
 6617DDP     P239699  17.904   4.776   1.458  0.0614 -0.0893  0.0077
 6617DDP     C239700  17.730   5.062   1.777  0.5672  0.0053  0.1425
 6617DDP     C339701  19.082   4.963   1.688  0.0169  0.1566  0.0785
 6617DDP     C439702  18.233   5.344   0.913  0.1417 -0.1158  0.0379
 6618DDP     C139703  23.548   8.907  22.223  0.1352  0.1407  0.1369
 6618DDP     P139704  23.802   8.752  22.041 -0.1976  0.0913  0.1192
 6618DDP     P239705  23.239   9.022  22.044  0.3473 -0.2288  0.1743
 6618DDP     C239706  22.959   9.361  22.005  0.1479  0.0843  0.0826
 6618DDP     C339707  23.854   8.427  21.829  0.2240 -0.0927 -0.3232
 6618DDP     C439708  23.769   9.103  22.590  0.0685  0.2109 -0.0703
 6619DDP     C139709   1.440  12.628  27.803 -0.1311 -0.0026  0.0246
 6619DDP     P139710   1.130  12.361  27.674  0.1428 -0.1630 -0.4103
 6619DDP     P239711   1.333  12.924  28.129 -0.0908 -0.5365  0.0208
 6619DDP     C239712   1.085  12.949  28.562 -0.0025  0.2793 -0.2695
 6619DDP     C339713   1.122  12.001  27.388 -0.2769 -0.0038 -0.2928
 6619DDP     C439714   1.705  12.738  27.521  0.1382 -0.0916  0.0225
 6620DDP     C139715   4.208   4.198   3.223  0.2653  0.5390  0.0380
 6620DDP     P139716   4.517   4.096   2.944 -0.0599 -0.1294 -0.3189
 6620DDP     P239717   4.277   4.468   3.517 -0.0894 -0.2146  0.0676
 6620DDP     C239718   4.138   4.917   3.604  0.1830  0.0574 -0.0548
 6620DDP     C339719   4.901   4.149   2.710 -0.1752 -0.0068 -0.1177
 6620DDP     C439720   3.781   3.976   3.248 -0.0472  0.1320 -0.1819
 6621DDP     C139721  27.818  24.407  20.134  0.0058 -0.1944  0.2296
 6621DDP     P139722  27.539  24.404  19.837 -0.0684 -0.2559 -0.0747
 6621DDP     P239723  28.081  24.617  20.407 -0.0105  0.1799  0.0238
 6621DDP     C239724  28.407  24.642  20.723 -0.1565 -0.0184 -0.0920
 6621DDP     C339725  27.528  24.625  19.356 -0.2560  0.2499  0.1281
 6621DDP     C439726  28.041  24.007  20.248  0.0014  0.1339 -0.0842
 6622DDP     C139727  11.467  15.939   8.770  0.1092 -0.0266  0.4188
 6622DDP     P139728  11.155  16.314   8.699 -0.0699 -0.5094  0.0326
 6622DDP     P239729  11.666  15.920   8.744  0.4315  0.0708  0.0271
 6622DDP     C239730  11.974  15.770   8.564  0.1453 -0.1284 -0.0165
 6622DDP     C339731  10.820  16.467   8.780  0.1050  0.2608  0.1414
 6622DDP     C439732  11.309  15.566   8.868 -0.2913  0.1936 -0.0198
 6623DDP     C139733   0.840  26.397  27.304  0.1069 -0.3794  0.2060
 6623DDP     P139734   0.612  26.379  26.952 -0.1274 -0.1974 -0.2054
 6623DDP     P239735   0.749  26.118  27.677 -0.1664 -0.0235 -0.1120
 6623DDP     C239736   0.804  25.701  27.887 -0.3740  0.0123  0.2651
 6623DDP     C339737   0.198  26.188  26.705 -0.1288 -0.0731 -0.1270
 6623DDP     C439738   1.138  26.768  27.308 -0.1609 -0.1879  0.1066
 6624DDP     C139739  12.864  10.607  23.086 -0.2255  0.3800  0.1741
 6624DDP     P139740  13.150  10.383  23.478  0.1377 -0.0946  0.0133
 6624DDP     P239741  12.851  11.061  23.127 -0.2055 -0.2986  0.1705
 6624DDP     C239742  12.997  11.555  23.182 -0.0287  0.2080 -0.1185
 6624DDP     C339743  13.491  10.208  23.697 -0.2065  0.3245  0.0809
 6624DDP     C439744  12.758  10.377  22.739  0.2406  0.1581 -0.0106
 6625DDP     C139745  28.949  12.274   0.220 -0.0004 -0.0350  0.2896
 6625DDP     P139746  28.469  12.550   0.182 -0.0069  0.1772  0.1087
 6625DDP     P239747  29.262  12.447   0.346  0.1744 -0.0226  0.0559
 6625DDP     C239748  29.602  12.707   0.184  0.0860 -0.0006 -0.2426
 6625DDP     C339749  27.955  12.712   0.139 -0.0919  0.1828 -0.2978
 6625DDP     C439750  29.114  11.809   0.269  0.1619 -0.0810 -0.2729
 6626DDP     C139751  28.263  23.039   6.066 -0.0643  0.0804  0.0905
 6626DDP     P139752  28.110  22.607   5.913  0.0710  0.0630  0.1610
 6626DDP     P239753  28.290  23.479   5.733  0.2939 -0.0945 -0.2457
 6626DDP     C239754  27.972  23.581   5.323 -0.1171 -0.0217  0.0149
 6626DDP     C339755  27.987  22.164   5.952  0.3167 -0.0402  0.3285
 6626DDP     C439756  28.281  23.126   6.542  0.3106 -0.0637 -0.0228
 6627DDP     C139757  12.166   9.017  20.131  0.1041  0.4506  0.0567
 6627DDP     P139758  11.918   9.024  19.864  0.2441 -0.0699 -0.0192
 6627DDP     P239759  12.094   9.308  20.508 -0.1829  0.0423 -0.0033
 6627DDP     C239760  12.149   9.598  20.830 -0.3370 -0.0390 -0.4729
 6627DDP     C339761  11.675   9.007  19.512 -0.1741  0.0078 -0.0502
 6627DDP     C439762  12.401   8.652  20.049  0.1837  0.3674 -0.0194
 6628DDP     C139763  12.233  16.423  10.705 -0.0304  0.2204 -0.4028
 6628DDP     P139764  11.846  16.268  10.559 -0.3790 -0.0478  0.0664
 6628DDP     P239765  12.296  16.896  10.922 -0.1610 -0.1836  0.1722
 6628DDP     C239766  12.376  17.156  11.295  0.0053  0.1960  0.1839
 6628DDP     C339767  11.641  16.128  10.270 -0.1246  0.0172  0.2684
 6628DDP     C439768  12.577  16.068  10.764 -0.2201 -0.1407 -0.0137
 6629DDP     C139769  22.920  29.376   6.879  0.1292  0.1438 -0.2941
 6629DDP     P139770  22.640  29.602   7.152 -0.2012  0.2143 -0.2031
 6629DDP     P239771  23.299  29.252   7.154  0.2001 -0.0727  0.0154
 6629DDP     C239772  23.664  29.456   7.158  0.1970 -0.1085  0.1011
 6629DDP     C339773  22.284  29.537   7.397 -0.1982 -0.4022 -0.0520
 6629DDP     C439774  22.862  29.288   6.406  0.2661  0.2234  0.0746
 6630DDP     C139775   4.125  14.576  13.207 -0.0668 -0.0106 -0.1946
 6630DDP     P139776   4.542  14.617  13.132  0.2108 -0.2139 -0.0326
 6630DDP     P239777   4.131  14.681  13.617  0.2121 -0.0346 -0.2016
 6630DDP     C239778   4.451  14.950  13.849  0.1789 -0.1261 -0.2080
 6630DDP     C339779   4.951  14.441  13.030 -0.1225  0.1180  0.0323
 6630DDP     C439780   3.783  14.535  13.085  0.0280  0.0216  0.3261
 6631DDP     C139781  28.070   8.427  18.862 -0.0906  0.0790 -0.2520
 6631DDP     P139782  27.726   8.152  18.935 -0.2441 -0.0929 -0.2276
 6631DDP     P239783  28.124   8.798  18.559  0.3211  0.0475  0.1736
 6631DDP     C239784  27.843   9.157  18.506  0.1429 -0.0491 -0.0951
 6631DDP     C339785  27.262   8.082  18.976 -0.2340  0.0442 -0.0299
 6631DDP     C439786  28.008   8.553  19.259 -0.1181 -0.1448  0.2066
 6632DDP     C139787  19.830  28.459   9.645 -0.2133 -0.1578 -0.0947
 6632DDP     P139788  20.198  28.540   9.389  0.1526 -0.1455 -0.0954
 6632DDP     P239789  19.810  28.585   9.981  0.0497 -0.4221  0.0031
 6632DDP     C239790  19.958  28.363  10.352  0.4029  0.2644 -0.2488
 6632DDP     C339791  20.477  28.796   9.531  0.1590 -0.1961 -0.2704
 6632DDP     C439792  19.643  28.626   9.365  0.0856  0.0520  0.0318
 6633DDP     C139793   7.805   3.970  17.593  0.3521  0.0583 -0.1640
 6633DDP     P139794   7.823   3.691  17.266  0.2406  0.0648  0.3009
 6633DDP     P239795   7.854   3.762  17.827 -0.1620 -0.0468 -0.2466
 6633DDP     C239796   7.910   3.548  18.187 -0.1458  0.0069  0.4267
 6633DDP     C339797   7.990   3.551  16.950 -0.0105  0.0116  0.2280
 6633DDP     C439798   7.680   4.410  17.576  0.1196 -0.0311 -0.2400
 6634DDP     C139799   7.397  29.129  25.960 -0.0420  0.0508  0.0766
 6634DDP     P139800   7.088  29.368  25.784 -0.0124  0.4216  0.0620
 6634DDP     P239801   7.866  28.941  25.807 -0.1925  0.1537  0.0955
 6634DDP     C239802   8.227  29.012  25.628  0.1124 -0.1788  0.2655
 6634DDP     C339803   6.674  29.192  25.529 -0.1481 -0.0191  0.0902
 6634DDP     C439804   7.395  29.298  26.407  0.0252 -0.0082 -0.1387
 6635DDP     C139805  12.508  27.314   7.670 -0.0475 -0.0865  0.0256
 6635DDP     P139806  12.632  27.226   7.267  0.0902  0.0939  0.0434
 6635DDP     P239807  12.876  27.235   7.985 -0.1558  0.3834  0.0301
 6635DDP     C239808  12.766  27.336   8.411 -0.0325  0.1651  0.2348
 6635DDP     C339809  12.801  27.307   6.805 -0.1683  0.2079  0.0582
 6635DDP     C439810  12.197  27.560   7.772  0.0244  0.2388  0.2451
 6636DDP     C139811  24.457   7.133   9.185  0.0094 -0.1901 -0.1317
 6636DDP     P139812  24.620   6.768   9.468 -0.0089 -0.5350 -0.2113
 6636DDP     P239813  24.037   7.157   9.099 -0.0331  0.1250  0.2401
 6636DDP     C239814  23.638   7.259   8.992  0.0207  0.1637  0.1177
 6636DDP     C339815  24.974   6.769   9.804  0.0842 -0.3821  0.1205
 6636DDP     C439816  24.784   7.440   9.135 -0.0214 -0.0819  0.6076
 6637DDP     C139817   8.719  27.025   4.500  0.0189  0.0450  0.0190
 6637DDP     P139818   8.497  26.736   4.307  0.1340 -0.0227  0.0661
 6637DDP     P239819   8.516  27.272   4.787 -0.0700  0.1315  0.1376
 6637DDP     C239820   8.472  27.725   4.802 -0.1652  0.0426 -0.1423
 6637DDP     C339821   8.500  26.360   4.099 -0.2312 -0.3190  0.0985
 6637DDP     C439822   9.116  26.877   4.509 -0.0797 -0.1599 -0.3674
 6638DDP     C139823   5.731   8.811  15.508 -0.0190  0.0346 -0.1137
 6638DDP     P139824   5.695   9.059  15.987 -0.0497 -0.2380 -0.0168
 6638DDP     P239825   5.315   8.592  15.518  0.3767  0.0030 -0.1175
 6638DDP     C239826   4.978   8.392  15.199 -0.1067  0.2544  0.0236
 6638DDP     C339827   5.727   9.182  16.459  0.0197  0.0850  0.0934
 6638DDP     C439828   6.069   8.608  15.348  0.2149 -0.0774  0.0477
 6639DDP     C139829  28.122  29.112  26.842  0.2031  0.0845  0.0226
 6639DDP     P139830  28.420  29.099  27.132  0.0551 -0.1061  0.0463
 6639DDP     P239831  27.749  29.400  26.894 -0.0567  0.0491 -0.1016
 6639DDP     C239832  27.398  29.132  27.069  0.2949  0.1462 -0.1241
 6639DDP     C339833  28.590  29.058  27.497  0.0429 -0.1684 -0.0369
 6639DDP     C439834  28.142  28.819  26.670  0.1434 -0.0453 -0.1024
 6640DDP     C139835  14.967   7.487  25.316 -0.2963  0.0468 -0.0088
 6640DDP     P139836  14.594   7.325  25.235 -0.0345 -0.3799  0.4115
 6640DDP     P239837  15.302   7.298  25.274 -0.0081  0.1408  0.1316
 6640DDP     C239838  15.647   7.052  25.130 -0.0343 -0.1330 -0.0694
 6640DDP     C339839  14.192   7.240  25.500  0.0340 -0.1214 -0.2224
 6640DDP     C439840  14.907   7.890  25.527  0.0636  0.1840  0.0382
 6641DDP     C139841  15.519   9.413  28.044  0.2725 -0.0040 -0.0484
 6641DDP     P139842  15.226   9.064  27.834 -0.0290  0.2045  0.1529
 6641DDP     P239843  16.007   9.245  27.969 -0.1188  0.4050  0.1136
 6641DDP     C239844  16.251   9.105  28.283  0.1254 -0.2544  0.1626
 6641DDP     C339845  15.114   9.086  27.365 -0.0524 -0.1382 -0.5441
 6641DDP     C439846  15.379   9.884  28.032 -0.0646  0.0228 -0.1583
 6642DDP     C139847  16.196  11.126  27.323  0.1784 -0.3455  0.1883
 6642DDP     P139848  16.566  11.350  27.234 -0.0948  0.1656 -0.2435
 6642DDP     P239849  15.873  11.339  27.639 -0.2036  0.1745 -0.0718
 6642DDP     C239850  15.586  11.574  27.883  0.1780 -0.0647 -0.2733
 6642DDP     C339851  16.985  11.666  27.156  0.1670  0.5075 -0.2570
 6642DDP     C439852  16.233  10.715  27.159  0.0800  0.0269 -0.2531
 6643DDP     C139853  22.791   7.495   4.986 -0.2644  0.0599  0.0582
 6643DDP     P139854  22.862   7.512   5.377 -0.3362  0.0120  0.1409
 6643DDP     P239855  22.402   7.756   4.838  0.0115  0.4137 -0.1312
 6643DDP     C239856  22.234   8.103   4.663  0.1705  0.1015  0.1739
 6643DDP     C339857  22.636   7.857   5.617 -0.3841  0.2493 -0.0712
 6643DDP     C439858  23.105   7.211   4.756 -0.0346 -0.1350 -0.0465
 6644DDP     C139859  30.150   0.420  17.331  0.0998  0.1047  0.2313
 6644DDP     P139860  30.235   0.768  16.974 -0.3584  0.3385 -0.1114
 6644DDP     P239861  30.274  -0.007  17.334  0.1572 -0.0352 -0.0332
 6644DDP     C239862  30.155  30.006  17.200 -0.1726  0.0769  0.1101
 6644DDP     C339863   0.159   1.133  16.933  0.1665 -0.4664  0.0879
 6644DDP     C439864  29.808   0.358  17.714 -0.3140  0.2097 -0.0039
 6645DDP     C139865   8.440  29.666  27.632  0.0936  0.0035 -0.0152
 6645DDP     P139866   8.728  29.932  27.514  0.0084  0.0394 -0.0674
 6645DDP     P239867   8.328  29.263  27.448  0.3543 -0.1552  0.1426
 6645DDP     C239868   8.051  29.109  27.067  0.1793 -0.0993 -0.0372
 6645DDP     C339869   9.068  30.008  27.293 -0.2918  0.1008  0.2483
 6645DDP     C439870   8.165  29.944  27.878 -0.0225 -0.1479  0.2486
 6646DDP     C139871  16.194   2.134   6.170  0.1593  0.1903 -0.0111
 6646DDP     P139872  15.902   2.461   6.386  0.2368 -0.1377  0.1872
 6646DDP     P239873  15.981   2.000   5.809 -0.0967  0.0188  0.2070
 6646DDP     C239874  16.000   2.230   5.358 -0.1911  0.2183  0.3106
 6646DDP     C339875  15.986   2.684   6.716 -0.0113  0.1545 -0.2162
 6646DDP     C439876  16.529   1.958   6.348  0.0965 -0.2912 -0.0166
 6647DDP     C139877  14.888  13.603   0.251  0.1210  0.5404 -0.1110
 6647DDP     P139878  14.980  13.893  30.220 -0.2452 -0.1787 -0.1224
 6647DDP     P239879  14.727  13.215   0.427 -0.0550  0.1639 -0.1349
 6647DDP     C239880  14.932  12.797   0.575 -0.1561 -0.2557 -0.2688
 6647DDP     C339881  15.234  14.011  29.899  0.2988  0.1006  0.1097
 6647DDP     C439882  15.305  13.672   0.490 -0.0675 -0.0416 -0.1175
 6648DDP     C139883  25.241  29.594  18.274 -0.2180 -0.1556 -0.0853
 6648DDP     P139884  25.210  29.712  18.820 -0.0241 -0.0379 -0.2008
 6648DDP     P239885  24.980  29.271  18.276 -0.2444  0.1263  0.1577
 6648DDP     C239886  25.149  28.869  18.360  0.2867 -0.2595 -0.0755
 6648DDP     C339887  25.238  29.955  19.268  0.0022 -0.1053  0.0702
 6648DDP     C439888  25.167  29.961  17.994 -0.0740 -0.0456 -0.1436
 6649DDP     C139889   8.179  23.642  18.399  0.2547  0.0139 -0.0534
 6649DDP     P139890   8.322  24.021  18.489 -0.2399 -0.2394 -0.0335
 6649DDP     P239891   7.808  23.605  18.046  0.0936  0.1360 -0.0192
 6649DDP     C239892   7.767  23.527  17.655  0.1751 -0.0651 -0.1918
 6649DDP     C339893   8.118  24.391  18.694  0.3308 -0.0630  0.0585
 6649DDP     C439894   8.386  23.330  18.508 -0.2732 -0.0782  0.0495
 6650DDP     C139895  28.068  20.784  19.325 -0.1932  0.0885 -0.1895
 6650DDP     P139896  27.834  20.747  19.120 -0.0193  0.1750 -0.0831
 6650DDP     P239897  28.228  21.126  19.255  0.2641  0.2441  0.0575
 6650DDP     C239898  28.482  21.520  19.095  0.2676 -0.0616 -0.0427
 6650DDP     C339899  27.422  20.890  19.076  0.2746  0.0014 -0.4284
 6650DDP     C439900  28.136  20.638  19.636 -0.1709 -0.2442  0.2843
 6651DDP     C139901  30.131  14.875  20.797  0.1735 -0.2012  0.0138
 6651DDP     P139902  29.700  14.924  20.635 -0.0619 -0.0175  0.0064
 6651DDP     P239903   0.137  15.097  20.717  0.2721 -0.0474  0.2506
 6651DDP     C239904   0.475  15.277  20.937  0.0650  0.2306  0.0149
 6651DDP     C339905  29.268  14.862  20.641 -0.1205  0.0201 -0.1303
 6651DDP     C439906  30.247  14.557  21.142 -0.1527 -0.0469  0.1299
 6652DDP     C139907   6.647   0.695  30.021  0.0424 -0.0489  0.2199
 6652DDP     P139908   6.476   0.269  30.135  0.1193 -0.1596  0.1204
 6652DDP     P239909   6.583   0.962  30.249  0.3125  0.4078 -0.2169
 6652DDP     C239910   6.695   1.387   0.218 -0.4240 -0.0953 -0.1007
 6652DDP     C339911   6.338   0.075   0.170 -0.0594  0.1267 -0.0980
 6652DDP     C439912   6.682   0.679  29.601  0.3084  0.0890  0.2630
 6653DDP     C139913  16.960  20.250   0.702 -0.2488  0.0938  0.0248
 6653DDP     P139914  16.559  20.259   0.824 -0.1898  0.0218  0.0318
 6653DDP     P239915  16.909  19.983   0.330 -0.3817  0.0830 -0.2478
 6653DDP     C239916  16.580  19.705   0.307  0.0888 -0.3110  0.0131
 6653DDP     C339917  16.201  20.508   0.766 -0.1880  0.1568 -0.0641
 6653DDP     C439918  17.316  20.518   0.845 -0.3384 -0.2044  0.1111
 6654DDP     C139919  29.726  21.142  28.264  0.0465 -0.0257 -0.2410
 6654DDP     P139920  30.131  21.129  28.107  0.0164 -0.2948 -0.3340
 6654DDP     P239921  29.925  21.388  28.614 -0.0216  0.2543  0.1748
 6654DDP     C239922  30.192  21.642  28.843  0.1644  0.0387  0.2184
 6654DDP     C339923   0.227  21.039  28.152  0.0141 -0.0604  0.4276
 6654DDP     C439924  29.421  20.878  28.073 -0.1061  0.1271  0.1186
 6655DDP     C139925   2.644  28.431  26.027  0.1202  0.4025 -0.0812
 6655DDP     P139926   2.243  28.447  26.056  0.1586 -0.0099 -0.1366
 6655DDP     P239927   2.631  28.333  25.657 -0.2365 -0.1698  0.5033
 6655DDP     C239928   2.744  28.590  25.204 -0.0046 -0.0779 -0.2511
 6655DDP     C339929   2.088  28.190  26.281  0.0518 -0.2576  0.1278
 6655DDP     C439930   2.807  28.768  26.204 -0.1572  0.1869  0.1774
 6656DDP     C139931  10.792  17.510  26.401 -0.0229 -0.0508  0.1195
 6656DDP     P139932  10.706  17.921  26.608  0.0502  0.0342 -0.1456
 6656DDP     P239933  11.057  17.486  26.089 -0.1741 -0.1302 -0.0852
 6656DDP     C239934  11.396  17.410  25.840 -0.1734  0.0673 -0.0364
 6656DDP     C339935  10.754  18.091  26.909  0.1179  0.1147  0.1797
 6656DDP     C439936  10.564  17.112  26.320 -0.0776  0.1855  0.0674
 6657DDP     C139937  17.371  19.131  20.604  0.0543 -0.0095 -0.0906
 6657DDP     P139938  17.722  19.302  20.523 -0.1361  0.0387  0.0157
 6657DDP     P239939  17.338  18.888  20.298  0.1121 -0.1746 -0.2904
 6657DDP     C239940  16.980  18.746  20.369  0.2605  0.0084 -0.2312
 6657DDP     C339941  17.966  19.567  20.830  0.0179 -0.3245 -0.0704
 6657DDP     C439942  17.068  19.398  20.829 -0.0786  0.2029  0.0982
 6658DDP     C139943  11.551   4.040  29.632  0.1452 -0.3425 -0.3088
 6658DDP     P139944  11.200   4.325  29.819 -0.3258 -0.0128 -0.4597
 6658DDP     P239945  11.654   4.275  29.291  0.1343 -0.2612 -0.3011
 6658DDP     C239946  11.707   4.426  28.878  0.3080 -0.0369  0.0064
 6658DDP     C339947  11.025   4.667  30.038  0.0988  0.0414  0.1111
 6658DDP     C439948  11.636   3.614  29.649  0.0593  0.1324 -0.0431
 6659DDP     C139949  16.526   4.646  10.425  0.1220  0.1112  0.3903
 6659DDP     P139950  16.648   4.213  10.552 -0.3140  0.1374 -0.2552
 6659DDP     P239951  16.320   4.987  10.613  0.0512 -0.1172 -0.4188
 6659DDP     C239952  16.153   5.458  10.616  0.0447 -0.1814  0.1292
 6659DDP     C339953  16.942   3.875  10.402 -0.1479 -0.3457 -0.2978
 6659DDP     C439954  16.499   4.499   9.900 -0.1182  0.0359  0.1766
 6660DDP     C139955   2.840  27.874  23.913 -0.0902 -0.1023 -0.0619
 6660DDP     P139956   2.519  28.039  23.641  0.0154  0.2026 -0.3520
 6660DDP     P239957   2.822  27.664  24.249 -0.0896  0.0708  0.0827
 6660DDP     C239958   2.576  27.738  24.509  0.1013 -0.1542 -0.1691
 6660DDP     C339959   2.070  28.262  23.722  0.0977  0.0553  0.2559
 6660DDP     C439960   3.236  28.012  23.764 -0.1921  0.0869 -0.2953
 6661DDP     C139961  10.652  28.280   2.779  0.0036  0.1583 -0.1772
 6661DDP     P139962  10.361  28.192   3.171  0.1577  0.0327 -0.0108
 6661DDP     P239963  10.766  28.053   2.448  0.2507 -0.2629 -0.1567
 6661DDP     C239964  11.125  27.809   2.221 -0.1357 -0.1118  0.3166
 6661DDP     C339965  10.151  28.051   3.605  0.0002 -0.0607  0.0309
 6661DDP     C439966  10.809  28.622   2.794 -0.0729  0.1969  0.0577
 6662DDP     C139967  26.415   2.314  25.098 -0.1155 -0.2198  0.1760
 6662DDP     P139968  26.749   2.297  24.958  0.1480 -0.1254 -0.1090
 6662DDP     P239969  26.048   2.143  24.897  0.2013  0.1122 -0.0175
 6662DDP     C239970  25.742   1.783  24.772  0.2180  0.1585  0.0079
 6662DDP     C339971  26.863   2.040  25.279  0.3016  0.0055  0.1889
 6662DDP     C439972  26.525   2.531  25.499 -0.0816 -0.1201 -0.0117
 6663DDP     C139973  23.437  28.406  24.504  0.0795 -0.3598 -0.0300
 6663DDP     P139974  23.155  28.112  24.480  0.0126 -0.0470  0.0992
 6663DDP     P239975  23.816  28.463  24.602  0.1977 -0.0410  0.1172
 6663DDP     C239976  24.191  28.268  24.392 -0.0499 -0.1010  0.2376
 6663DDP     C339977  22.763  27.948  24.553 -0.2053 -0.1542 -0.2532
 6663DDP     C439978  23.220  28.772  24.463 -0.5560 -0.1024 -0.0535
 6664DDP     C139979  27.571   4.794  29.629  0.2207  0.1212 -0.2271
 6664DDP     P139980  27.775   5.133  29.537  0.0342  0.3129  0.3525
 6664DDP     P239981  27.860   4.367  29.645 -0.3832 -0.3856 -0.2540
 6664DDP     C239982  28.102   3.970  29.734  0.0280 -0.0018  0.1524
 6664DDP     C339983  27.684   5.353  29.238 -0.1666  0.2260  0.1396
 6664DDP     C439984  27.151   4.674  29.734 -0.0617 -0.2002  0.2716
 6665DDP     C139985  12.064  25.711   7.338  0.1600  0.0944  0.0713
 6665DDP     P139986  12.342  26.048   7.611 -0.2058  0.2429 -0.0271
 6665DDP     P239987  12.234  25.451   7.157  0.0086  0.1425 -0.0901
 6665DDP     C239988  12.260  25.084   6.979 -0.4234 -0.3538 -0.1714
 6665DDP     C339989  12.744  26.243   7.595 -0.3226 -0.1965 -0.0786
 6665DDP     C439990  11.787  25.483   7.677 -0.0257 -0.0334 -0.1422
 6666DDP     C139991  21.155  21.774   4.315  0.1331  0.0396 -0.1815
 6666DDP     P139992  20.675  21.902   4.298  0.0038  0.0676 -0.3457
 6666DDP     P239993  21.461  21.628   4.509  0.2964  0.2886 -0.3326
 6666DDP     C239994  21.746  21.990   4.732  0.0181 -0.0403 -0.0755
 6666DDP     C339995  20.229  21.706   4.212 -0.2636 -0.1222 -0.4671
 6666DDP     C439996  21.205  21.833   3.799  0.2279 -0.0952  0.1550
 6667DDP     C139997  13.508  19.796  16.265  0.0822  0.0200 -0.1513
 6667DDP     P139998  13.332  20.064  16.059 -0.0732  0.1620 -0.1584
 6667DDP     P239999  13.285  19.793  16.668  0.1216  0.1920  0.1582
 6667DDP     C240000  13.184  19.777  17.052 -0.1672  0.1071 -0.0036
 6667DDP     C340001  12.979  20.065  15.785 -0.1608 -0.1116  0.4043
 6667DDP     C440002  13.874  19.591  16.076 -0.1732  0.0298  0.0480
 6668DDP     C140003   0.491  24.840  28.594 -0.2093  0.2403  0.3242
 6668DDP     P140004   0.950  24.778  28.661  0.0897  0.0340 -0.0978
 6668DDP     P240005   0.163  25.101  28.869  0.1822  0.2035  0.0181
 6668DDP     C240006   0.047  25.277  29.273 -0.2195 -0.0788 -0.0521
 6668DDP     C340007   1.289  24.959  28.893  0.3542  0.1094  0.1847
 6668DDP     C440008   0.335  24.557  28.229 -0.2408 -0.1439 -0.4676
 6669DDP     C140009  20.104  10.743  27.344 -0.6876  0.1050 -0.1680
 6669DDP     P140010  19.861  10.485  27.096  0.0929 -0.3094  0.1348
 6669DDP     P240011  20.384  10.888  27.055  0.2396  0.3670  0.0047
 6669DDP     C240012  20.751  11.177  26.908  0.2029 -0.0685 -0.0551
 6669DDP     C340013  19.508  10.315  26.890 -0.3232 -0.4801 -0.0745
 6669DDP     C440014  20.227  10.768  27.818 -0.2243 -0.0084 -0.4178
 6670DDP     C140015  17.435  21.332  12.721 -0.0481 -0.0191 -0.1437
 6670DDP     P140016  17.313  20.870  12.611 -0.0060 -0.5018  0.1761
 6670DDP     P240017  17.423  21.343  13.217 -0.0894  0.1030 -0.1226
 6670DDP     C240018  17.475  21.691  13.578 -0.2560  0.2011  0.2918
 6670DDP     C340019  17.231  20.672  12.418  0.0877  0.0313  0.1111
 6670DDP     C440020  17.706  21.767  12.650  0.0073  0.4649  0.0830
 6671DDP     C140021  17.744  12.249  22.253  0.2548 -0.0332 -0.0767
 6671DDP     P140022  17.919  12.587  22.190 -0.2660 -0.3220 -0.0829
 6671DDP     P240023  18.048  11.949  22.301  0.0295  0.2536 -0.0458
 6671DDP     C240024  18.280  11.582  22.236  0.0073  0.0623  0.1518
 6671DDP     C340025  18.077  12.735  21.751  0.2239  0.2044  0.3844
 6671DDP     C440026  17.339  12.129  22.224 -0.0024  0.0772  0.0939
 6672DDP     C140027   8.722  28.809  19.302 -0.1555 -0.1417  0.0137
 6672DDP     P140028   8.867  28.587  19.627  0.2714  0.1518 -0.4315
 6672DDP     P240029   8.498  29.127  19.466  0.1039  0.0622  0.0397
 6672DDP     C240030   8.120  29.269  19.471 -0.1967 -0.0479 -0.1170
 6672DDP     C340031   9.106  28.653  19.994  0.2355  0.0565 -0.3393
 6672DDP     C440032   8.546  28.747  18.881  0.2427  0.0321 -0.0957
 6673DDP     C140033   7.265  11.291  28.544 -0.2709  0.2113 -0.0354
 6673DDP     P140034   7.232  11.309  28.119  0.3823  0.0250 -0.0437
 6673DDP     P240035   7.427  11.008  28.866  0.1046  0.1763 -0.0821
 6673DDP     C240036   7.594  10.730  29.035  0.2048 -0.3379 -0.0305
 6673DDP     C340037   7.079  11.268  27.674 -0.1579 -0.1615  0.0927
 6673DDP     C440038   6.891  11.420  28.810  0.0082  0.0384  0.0686
 6674DDP     C140039   1.535  14.913  15.855  0.2367  0.0110  0.1693
 6674DDP     P140040   1.184  14.710  15.710 -0.1074 -0.0375 -0.4565
 6674DDP     P240041   1.347  15.335  15.737  0.3014 -0.4134  0.3096
 6674DDP     C240042   1.403  15.611  15.420 -0.0024  0.2496  0.1766
 6674DDP     C340043   0.802  14.646  15.582  0.1687  0.2236 -0.0782
 6674DDP     C440044   1.951  14.712  15.955  0.0195  0.1686 -0.3584
 6675DDP     C140045  17.538   9.869  29.958 -0.0349  0.1697 -0.5392
 6675DDP     P140046  17.189   9.616  30.009  0.1272  0.0001  0.0415
 6675DDP     P240047  17.629  10.035   0.117  0.1747  0.1210 -0.0582
 6675DDP     C240048  17.770  10.264   0.479  0.1362  0.0607  0.0639
 6675DDP     C340049  16.766   9.604  30.113  0.0241  0.1466  0.1378
 6675DDP     C440050  17.516  10.239  29.678 -0.0464  0.1321  0.3372
 6676DDP     C140051  29.835  22.435  20.789 -0.0242 -0.0306 -0.0341
 6676DDP     P140052  29.856  22.695  20.473  0.2268  0.1079 -0.0057
 6676DDP     P240053  30.184  22.154  20.878  0.0847  0.0901  0.0058
 6676DDP     C240054   0.198  22.058  21.302  0.1936  0.1195  0.0754
 6676DDP     C340055  29.735  22.992  20.171 -0.3475 -0.2045 -0.2241
 6676DDP     C440056  29.441  22.360  20.767 -0.0102 -0.0446  0.0804
 6677DDP     C140057   7.079  27.641   7.733  0.1029  0.1480  0.0947
 6677DDP     P140058   7.054  28.117   7.694  0.1670  0.2522  0.0090
 6677DDP     P240059   7.506  27.557   7.859  0.2045 -0.2661  0.3896
 6677DDP     C240060   7.941  27.418   7.664  0.3374  0.4389 -0.1329
 6677DDP     C340061   7.315  28.322   7.946 -0.3665 -0.1626 -0.0967
 6677DDP     C440062   6.683  27.506   7.569  0.2461 -0.3388  0.0963
 6678DDP     C140063   7.832  23.135  19.264 -0.1452  0.0758 -0.1325
 6678DDP     P140064   7.707  23.107  19.656  0.2160  0.1663 -0.1870
 6678DDP     P240065   8.083  22.732  19.184  0.0264  0.0124 -0.1592
 6678DDP     C240066   8.528  22.413  19.062  0.4228 -0.0294  0.0613
 6678DDP     C340067   7.359  23.086  20.063 -0.0845 -0.4039  0.0503
 6678DDP     C440068   7.829  23.492  19.041 -0.1458  0.1144 -0.4825
 6679DDP     C140069   0.362   3.709  18.827  0.2225 -0.0688  0.0618
 6679DDP     P140070   0.056   4.108  18.834  0.0029  0.0244  0.3325
 6679DDP     P240071   0.822   3.855  18.537 -0.2012 -0.2392  0.1212
 6679DDP     C240072   1.178   3.771  18.351 -0.1311 -0.1252  0.0674
 6679DDP     C340073  30.017   4.411  18.907  0.0849 -0.1458 -0.1275
 6679DDP     C440074   0.348   3.461  19.116 -0.1746 -0.0353 -0.1399
 6680DDP     C140075   7.331  29.822  25.295 -0.0200  0.1849  0.1186
 6680DDP     P140076   6.993  29.565  25.347 -0.3829 -0.4774 -0.1904
 6680DDP     P240077   7.489  30.029  25.668  0.0925  0.4066 -0.1075
 6680DDP     C240078   7.775  29.963  25.907 -0.0288  0.2052 -0.3197
 6680DDP     C340079   7.072  29.146  25.224  0.0666  0.1199  0.0109
 6680DDP     C440080   7.567  29.940  24.958 -0.2682 -0.0458  0.2629
 6681DDP     C140081  26.119   0.285   1.753 -0.2347  0.2342 -0.1474
 6681DDP     P140082  26.230   0.218   2.260 -0.1632  0.0262  0.0009
 6681DDP     P240083  26.220   0.125   1.345 -0.1492 -0.0893 -0.0352
 6681DDP     C240084  26.210   0.094   0.958 -0.0667 -0.3351  0.1124
 6681DDP     C340085  26.292   0.467   2.610 -0.4046  0.1223 -0.1227
 6681DDP     C440086  26.077   0.634   1.635  0.2055 -0.5037 -0.2155
 6682DDP     C140087  23.526  18.781  24.010  0.2327  0.2819  0.0135
 6682DDP     P140088  23.346  19.187  23.748 -0.0773 -0.0764  0.0880
 6682DDP     P240089  23.160  18.582  24.223  0.1274 -0.0427 -0.0613
 6682DDP     C240090  23.119  18.282  24.553 -0.0323 -0.3280 -0.3266
 6682DDP     C340091  23.244  19.082  23.373 -0.0893 -0.0716  0.0031
 6682DDP     C440092  23.831  18.359  23.823 -0.1254 -0.2849 -0.0090
 6683DDP     C140093  13.703  26.496  25.210  0.0600 -0.0559  0.0464
 6683DDP     P140094  13.924  26.533  24.875  0.1042 -0.2519  0.0316
 6683DDP     P240095  13.813  26.605  25.481  0.0640  0.0179  0.1002
 6683DDP     C240096  14.030  26.857  25.652 -0.0585 -0.0477  0.1178
 6683DDP     C340097  14.111  26.815  24.615  0.0199 -0.0972  0.0449
 6683DDP     C440098  13.324  26.307  25.062  0.0340 -0.0139  0.0601
 6684DDP     C140099   3.142  13.347   6.568 -0.0533  0.2813  0.1412
 6684DDP     P140100   3.136  13.406   6.979  0.1054 -0.1627 -0.0529
 6684DDP     P240101   3.442  13.400   6.267 -0.2116  0.0375 -0.0268
 6684DDP     C240102   3.827  13.031   6.183  0.1135 -0.1024 -0.0500
 6684DDP     C340103   2.839  13.306   7.320  0.0878 -0.1900  0.2214
 6684DDP     C440104   2.827  13.181   6.350  0.1976 -0.1056 -0.0112
 6685DDP     C140105  24.482  24.805  14.682 -0.1540 -0.3366  0.1797
 6685DDP     P140106  24.319  25.011  14.280 -0.1856 -0.3081  0.0512
 6685DDP     P240107  24.544  25.007  15.097  0.2226  0.1072 -0.1160
 6685DDP     C240108  24.645  25.303  15.347  0.0874  0.1863  0.1981
 6685DDP     C340109  24.333  25.401  14.261 -0.3287 -0.0631  0.1489
 6685DDP     C440110  24.707  24.405  14.635 -0.0891  0.1430  0.0111
 6686DDP     C140111  23.009  20.277   1.794  0.0467 -0.1241 -0.2835
 6686DDP     P140112  23.369  20.139   2.004  0.2663 -0.0469 -0.0561
 6686DDP     P240113  23.027  20.045   1.421  0.2371  0.3434  0.0563
 6686DDP     C240114  23.320  20.104   1.094 -0.1532 -0.2143 -0.2144
 6686DDP     C340115  23.799  19.934   2.032 -0.0121  0.2455 -0.1339
 6686DDP     C440116  22.801  20.604   2.003  0.0902  0.2092  0.0478
 6687DDP     C140117  10.211   0.619  19.625 -0.1446  0.1403 -0.0636
 6687DDP     P140118  10.017   0.737  19.233  0.2091  0.0494  0.0535
 6687DDP     P240119  10.197   0.165  19.781 -0.2059  0.2164  0.0533
 6687DDP     C240120  10.113  30.017  19.891  0.0744  0.1926 -0.2169
 6687DDP     C340121  10.140   1.042  18.908  0.0946  0.0311  0.1133
 6687DDP     C440122  10.327   0.980  19.800 -0.2721  0.0445  0.0877
 6688DDP     C140123  29.743  17.188   3.775  0.0542  0.0896  0.0547
 6688DDP     P140124  29.706  17.054   3.372 -0.1202  0.2865  0.0318
 6688DDP     P240125  29.462  17.258   4.089  0.0686  0.0621  0.0594
 6688DDP     C240126  29.164  17.617   4.246 -0.1227  0.1671 -0.2247
 6688DDP     C340127  29.870  17.257   2.969  0.2375 -0.2014  0.0854
 6688DDP     C440128  30.119  17.329   3.948 -0.2790 -0.1889  0.1901
 6689DDP     C140129  11.616  28.104   9.825  0.1059  0.2413 -0.0738
 6689DDP     P140130  11.443  28.205   9.373 -0.1369  0.0779 -0.3639
 6689DDP     P240131  11.386  27.868  10.105  0.2313  0.2202  0.1599
 6689DDP     C240132  11.261  27.550  10.444  0.0115 -0.2225 -0.3220
 6689DDP     C340133  11.265  28.443   9.054  0.3155 -0.2146 -0.3793
 6689DDP     C440134  12.172  28.119   9.913 -0.1378  0.1504 -0.0595
 6690DDP     C140135  25.310   8.594   4.960 -0.1682 -0.0467 -0.1992
 6690DDP     P140136  25.434   8.789   4.565 -0.0584 -0.3231 -0.0769
 6690DDP     P240137  25.717   8.594   5.080 -0.0864 -0.0159 -0.1347
 6690DDP     C240138  26.070   8.350   5.280 -0.1050 -0.0304  0.0647
 6690DDP     C340139  25.653   8.588   4.149  0.0969 -0.0991  0.0099
 6690DDP     C440140  24.876   8.625   5.079  0.0148  0.0681  0.0661
 6691DDP     C140141  20.444  13.773   0.409 -0.1408 -0.1494  0.1787
 6691DDP     P140142  20.437  14.064   0.615  0.2320 -0.0099 -0.1068
 6691DDP     P240143  20.172  13.488   0.617 -0.0577  0.2120 -0.0962
 6691DDP     C240144  20.188  13.145   0.940 -0.1974  0.0791 -0.2380
 6691DDP     C340145  20.481  14.508   0.722  0.0939  0.3580  0.2617
 6691DDP     C440146  20.733  13.719   0.139 -0.2959 -0.0878 -0.0032
 6692DDP     C140147  18.805   8.930  24.551 -0.1644 -0.1569 -0.3188
 6692DDP     P140148  18.820   9.193  24.197 -0.1339  0.0880  0.0702
 6692DDP     P240149  18.411   8.942  24.752 -0.0583  0.0706  0.1140
 6692DDP     C240150  17.957   8.921  24.725 -0.0311 -0.4077  0.0977
 6692DDP     C340151  18.594   9.408  23.902 -0.0296 -0.0825  0.0312
 6692DDP     C440152  19.146   8.587  24.595 -0.2034 -0.0767 -0.0497
 6693DDP     C140153  28.765   6.867  21.315 -0.1867 -0.1090 -0.0044
 6693DDP     P140154  28.684   6.958  20.961 -0.2937 -0.0876  0.0082
 6693DDP     P240155  28.509   6.468  21.500  0.0320  0.2323 -0.0145
 6693DDP     C240156  28.448   6.426  21.872  0.0964 -0.0001 -0.1375
 6693DDP     C340157  28.536   7.326  20.705 -0.1298  0.0012 -0.2201
 6693DDP     C440158  28.888   7.286  21.537  0.1228 -0.3539 -0.3531
 6694DDP     C140159   8.162   3.238  29.361  0.0207 -0.2248 -0.0768
 6694DDP     P140160   8.430   3.587  29.233  0.3523  0.1571 -0.0076
 6694DDP     P240161   8.216   3.053  29.834  0.0862  0.0065  0.1725
 6694DDP     C240162   8.254   2.717  30.190  0.3351  0.1392  0.0607
 6694DDP     C340163   8.172   3.966  29.209 -0.1054 -0.3027  0.2540
 6694DDP     C440164   7.771   3.508  29.181 -0.4393 -0.0223 -0.2475
 6695DDP     C140165  28.807  27.812   4.267 -0.3381 -0.0192 -0.0982
 6695DDP     P140166  28.505  27.816   3.926  0.2275 -0.0535 -0.0059
 6695DDP     P240167  29.074  27.409   4.299 -0.2449 -0.2362 -0.1754
 6695DDP     C240168  29.231  26.985   4.197  0.0028 -0.0195 -0.3578
 6695DDP     C340169  28.302  27.964   3.583 -0.1174  0.0806 -0.1566
 6695DDP     C440170  28.852  27.931   4.694 -0.1683  0.0648  0.1543
 6696DDP     C140171   4.185  26.783  29.064 -0.0836 -0.0240 -0.1016
 6696DDP     P140172   4.075  27.151  29.195  0.0023 -0.0725 -0.0800
 6696DDP     P240173   3.963  26.386  29.062 -0.3713 -0.1869  0.2382
 6696DDP     C240174   3.908  26.137  28.739 -0.4291  0.2645 -0.1217
 6696DDP     C340175   3.895  27.609  29.301 -0.2011  0.0266  0.1416
 6696DDP     C440176   4.437  26.970  28.746  0.1112  0.0806 -0.0310
 6697DDP     C140177   0.977  21.234  12.776  0.0461  0.0692  0.0112
 6697DDP     P140178   1.041  20.880  12.582  0.0834  0.2115  0.1172
 6697DDP     P240179   0.649  21.439  12.633 -0.0073 -0.0299 -0.0437
 6697DDP     C240180   0.225  21.343  12.693  0.2093 -0.0132 -0.1261
 6697DDP     C340181   1.401  20.650  12.632  0.1335  0.1875  0.0409
 6697DDP     C440182   1.065  21.371  13.216 -0.0964 -0.1947  0.2228
 6698DDP     C140183   9.605   3.852   4.991  0.0291 -0.0423 -0.2569
 6698DDP     P140184   9.243   3.749   5.273  0.0461  0.3553  0.0133
 6698DDP     P240185   9.598   3.707   4.465  0.2257  0.3485 -0.1640
 6698DDP     C240186  10.000   3.913   4.316  0.1741  0.0196  0.0440
 6698DDP     C340187   8.759   3.585   5.176 -0.2029  0.0919 -0.0061
 6698DDP     C440188   9.831   4.161   5.052  0.2909  0.1628  0.0221
 6699DDP     C140189  26.745  13.062   9.402 -0.4064 -0.0802  0.0701
 6699DDP     P140190  26.937  13.008   9.771 -0.0490  0.0751 -0.2235
 6699DDP     P240191  26.370  13.362   9.391 -0.2327  0.0069 -0.1564
 6699DDP     C240192  26.225  13.058   9.039 -0.1718  0.1188 -0.4579
 6699DDP     C340193  26.825  12.711  10.100  0.2726  0.1642  0.1062
 6699DDP     C440194  26.961  13.099   9.064 -0.1832  0.0642 -0.0424
 6700DDP     C140195  29.234  12.136   4.579 -0.0791 -0.1962  0.0616
 6700DDP     P140196  29.335  12.504   4.399 -0.0848 -0.2740 -0.1670
 6700DDP     P240197  28.819  12.186   4.847  0.1700  0.0182 -0.1952
 6700DDP     C240198  28.771  12.585   5.118  0.5224  0.0499  0.1597
 6700DDP     C340199  29.045  12.857   4.331 -0.2400  0.3607 -0.2127
 6700DDP     C440200  29.411  11.658   4.548  0.2747 -0.1141 -0.2592
 6701DDP     C140201  17.768   9.131   1.451  0.1658 -0.1246  0.1670
 6701DDP     P140202  17.808   9.463   1.457  0.0750 -0.0259  0.0880
 6701DDP     P240203  17.455   8.961   1.229  0.0657 -0.3506 -0.0745
 6701DDP     C240204  17.392   8.543   1.121  0.1393  0.5264  0.1808
 6701DDP     C340205  17.758   9.888   1.394  0.1189  0.1108  0.3120
 6701DDP     C440206  18.072   8.828   1.224  0.2461  0.0568 -0.1445
 6702DDP     C140207   5.190   5.704   7.531  0.1323  0.1998  0.0745
 6702DDP     P140208   5.526   5.428   7.821  0.2806 -0.0275  0.1338
 6702DDP     P240209   4.801   5.839   7.693  0.3234  0.2488  0.2389
 6702DDP     C240210   4.408   5.667   7.846  0.0857  0.0029 -0.0775
 6702DDP     C340211   5.655   5.002   8.069  0.1891  0.0138 -0.1146
 6702DDP     C440212   5.432   5.942   7.320 -0.3232  0.1208  0.1867
 6703DDP     C140213  19.014   5.668   6.357  0.1131 -0.2792 -0.1195
 6703DDP     P140214  18.609   5.640   6.344  0.3131  0.2533  0.2838
 6703DDP     P240215  19.084   5.995   6.271 -0.0320 -0.1833  0.1582
 6703DDP     C240216  18.981   6.399   6.346  0.0846 -0.2888  0.1829
 6703DDP     C340217  18.236   5.368   6.177  0.0627  0.5161  0.1618
 6703DDP     C440218  19.307   5.486   6.657  0.2673 -0.3205 -0.2874
 6704DDP     C140219  22.086  28.185   0.029  0.0821  0.2281  0.1346
 6704DDP     P140220  21.998  28.376  29.972 -0.0524 -0.1095 -0.2676
 6704DDP     P240221  21.957  28.286   0.449  0.0361 -0.0172 -0.1069
 6704DDP     C240222  21.595  28.517   0.698  0.0831 -0.0562  0.0096
 6704DDP     C340223  22.162  28.679  29.736 -0.1770 -0.0503 -0.1045
 6704DDP     C440224  22.235  27.781   0.109 -0.3304  0.0412 -0.3145
 6705DDP     C140225  17.452   5.152  26.863 -0.0600 -0.1369  0.2553
 6705DDP     P140226  17.691   4.916  27.319 -0.0032 -0.1799 -0.1624
 6705DDP     P240227  17.595   5.504  26.753 -0.2846  0.3771 -0.0907
 6705DDP     C240228  17.617   5.829  26.511 -0.0126 -0.1766 -0.0125
 6705DDP     C340229  17.955   4.680  27.564 -0.2071  0.3142 -0.0050
 6705DDP     C440230  17.140   4.861  26.613  0.1906 -0.1751 -0.0564
 6706DDP     C140231  19.856  19.138  26.054 -0.2133 -0.1694 -0.1813
 6706DDP     P140232  19.846  19.144  25.683  0.3378  0.1077  0.1593
 6706DDP     P240233  20.218  19.118  26.244 -0.2712  0.2400  0.2802
 6706DDP     C240234  20.303  18.972  26.779 -0.2228  0.1367 -0.1902
 6706DDP     C340235  20.000  19.414  25.335  0.1642 -0.0287 -0.1011
 6706DDP     C440236  19.462  18.800  26.220  0.0915 -0.1622 -0.0142
 6707DDP     C140237  15.852  13.798  27.954 -0.0685 -0.2718 -0.0124
 6707DDP     P140238  16.120  13.534  27.911  0.2079 -0.0513  0.2591
 6707DDP     P240239  15.770  13.971  27.527  0.3651 -0.1717 -0.2489
 6707DDP     C240240  15.970  14.098  27.052 -0.2964  0.0214 -0.0900
 6707DDP     C340241  16.433  13.167  27.924 -0.0569 -0.0896  0.0732
 6707DDP     C440242  15.519  13.794  28.284  0.0724  0.1674  0.3625
 6708DDP     C140243  13.520  29.390  23.162 -0.2707  0.0005 -0.0960
 6708DDP     P140244  13.392  29.711  22.927  0.4766  0.1804  0.0623
 6708DDP     P240245  13.567  29.136  22.903  0.2858  0.2401 -0.1593
 6708DDP     C240246  13.937  28.947  22.773  0.2124  0.0024  0.1469
 6708DDP     C340247  13.227  30.115  22.701  0.0669  0.2136  0.0322
 6708DDP     C440248  13.603  29.379  23.550 -0.1434 -0.1357  0.2413
 6709DDP     C140249  17.791  13.745  27.318  0.1235 -0.3487  0.0199
 6709DDP     P140250  18.155  13.817  27.134 -0.1015 -0.0472 -0.1893
 6709DDP     P240251  18.033  13.473  27.487 -0.0975 -0.1022 -0.3739
 6709DDP     C240252  18.501  13.293  27.492  0.1565  0.0397  0.0559
 6709DDP     C340253  18.475  14.080  26.808  0.2692 -0.3702  0.1993
 6709DDP     C440254  17.488  14.010  27.540  0.1060  0.0945 -0.0011
 6710DDP     C140255   9.767  14.320   5.926 -0.0683 -0.0164  0.1050
 6710DDP     P140256  10.155  14.128   6.114  0.1128 -0.4724  0.5725
 6710DDP     P240257   9.788  14.476   5.434 -0.1335 -0.0411 -0.0357
 6710DDP     C240258   9.664  14.319   4.974 -0.0187  0.1068 -0.3497
 6710DDP     C340259  10.544  14.279   6.204  0.1594  0.0343  0.3384
 6710DDP     C440260   9.260  14.352   6.169 -0.1503  0.2577  0.1512
 6711DDP     C140261   3.013   1.060  26.907  0.1024 -0.0315 -0.0106
 6711DDP     P140262   2.577   0.780  26.706 -0.1910  0.2868  0.0473
 6711DDP     P240263   2.994   1.405  26.828 -0.2278 -0.0298  0.1868
 6711DDP     C240264   3.000   1.796  26.597 -0.0477 -0.2074  0.0940
 6711DDP     C340265   2.361   0.722  26.301 -0.0815  0.1311 -0.2222
 6711DDP     C440266   3.127   0.967  27.319 -0.2714  0.3019  0.0569
 6712DDP     C140267  27.798  26.718   2.757  0.2540 -0.0042 -0.2016
 6712DDP     P140268  27.700  27.172   2.822 -0.0190 -0.2521 -0.0114
 6712DDP     P240269  28.103  26.491   3.025 -0.0885  0.0813 -0.3168
 6712DDP     C240270  28.555  26.460   3.335  0.1373 -0.1570 -0.1162
 6712DDP     C340271  27.358  27.388   2.860 -0.1114  0.1055 -0.0702
 6712DDP     C440272  27.506  26.538   2.499 -0.4253  0.1787  0.0424
 6713DDP     C140273   1.554   3.119   1.849  0.0160 -0.0652  0.0221
 6713DDP     P140274   1.912   3.088   1.571  0.0190 -0.1380 -0.1531
 6713DDP     P240275   1.670   3.090   2.278 -0.0786 -0.1105  0.2484
 6713DDP     C240276   1.899   2.859   2.531  0.0514 -0.1355  0.2064
 6713DDP     C340277   2.248   3.350   1.577 -0.0706  0.0088  0.0013
 6713DDP     C440278   1.247   3.340   1.640 -0.0918  0.0298  0.0683
 6714DDP     C140279  14.666   1.463   4.049 -0.2172 -0.1160 -0.4071
 6714DDP     P140280  14.566   1.541   4.498 -0.1900  0.1385  0.0697
 6714DDP     P240281  14.871   1.068   3.955  0.1684  0.1707  0.1037
 6714DDP     C240282  15.206   0.918   3.691 -0.0499 -0.0268 -0.2073
 6714DDP     C340283  14.281   1.680   4.801  0.3235 -0.1841  0.0103
 6714DDP     C440284  14.723   1.792   3.772 -0.0388  0.0069 -0.1953
 6715DDP     C140285   5.284  14.715  25.772 -0.0260 -0.2535  0.2764
 6715DDP     P140286   5.196  14.552  25.467  0.1147  0.0289  0.3150
 6715DDP     P240287   5.095  14.723  26.111  0.2605 -0.0099 -0.1829
 6715DDP     C240288   5.136  14.529  26.511 -0.3024  0.2118 -0.0189
 6715DDP     C340289   4.822  14.216  25.512 -0.2683 -0.2290  0.2353
 6715DDP     C440290   5.522  15.070  25.548 -0.3284 -0.1286 -0.3270
 6716DDP     C140291  13.231  24.459   6.492 -0.2247  0.1076 -0.1330
 6716DDP     P140292  13.673  24.445   6.321  0.1399 -0.3236  0.0705
 6716DDP     P240293  13.047  24.080   6.652 -0.4197 -0.0315 -0.3221
 6716DDP     C240294  12.725  23.960   6.818 -0.0329  0.1311 -0.1017
 6716DDP     C340295  14.027  24.649   6.167  0.4079  0.0736  0.0488
 6716DDP     C440296  13.089  24.763   6.699  0.2261  0.0023 -0.0374
 6717DDP     C140297  23.756  19.005   4.955  0.1850  0.2752 -0.2160
 6717DDP     P140298  24.167  18.725   4.917  0.0479  0.1994 -0.1945
 6717DDP     P240299  23.523  19.059   4.540 -0.0458  0.0625  0.4724
 6717DDP     C240300  23.415  18.825   4.146  0.1355 -0.1951  0.2834
 6717DDP     C340301  24.130  18.209   4.803 -0.0793 -0.2619 -0.1205
 6717DDP     C440302  23.534  19.085   5.269 -0.0825  0.1313  0.3197
 6718DDP     C140303  19.133  25.241  10.974  0.1400  0.0601  0.3902
 6718DDP     P140304  18.806  25.390  10.775 -0.1832 -0.0205  0.1469
 6718DDP     P240305  19.351  25.540  11.253  0.1053 -0.0649 -0.1059
 6718DDP     C240306  19.745  25.780  11.407  0.0661  0.0360 -0.2740
 6718DDP     C340307  18.490  25.697  10.604  0.5264  0.0148 -0.3010
 6718DDP     C440308  19.465  24.998  10.786  0.0368  0.1877 -0.1074
 6719DDP     C140309  26.003  12.215  18.543  0.1774  0.0904 -0.3738
 6719DDP     P140310  25.826  12.032  18.916 -0.0762 -0.0139  0.0993
 6719DDP     P240311  25.744  12.191  18.126 -0.1675  0.0959  0.1725
 6719DDP     C240312  25.955  12.270  17.812 -0.0890 -0.1268 -0.2265
 6719DDP     C340313  25.524  11.764  19.119  0.1938  0.2413  0.0404
 6719DDP     C440314  26.416  12.213  18.752  0.1386 -0.0172 -0.1051
 6720DDP     C140315  11.748  29.900  18.941 -0.0806  0.0316 -0.1200
 6720DDP     P140316  11.911  29.490  18.928  0.3314  0.1559 -0.3255
 6720DDP     P240317  12.093  30.222  18.919 -0.2909 -0.1529  0.0586
 6720DDP     C240318  12.314   0.218  19.034  0.0222 -0.2171 -0.2776
 6720DDP     C340319  11.967  29.256  18.527 -0.0510 -0.2526  0.2165
 6720DDP     C440320  11.379  29.946  19.147 -0.0806 -0.2099  0.2470
 6721DDP     C140321  19.181   8.653  14.032 -0.0166  0.0418  0.3080
 6721DDP     P140322  19.164   8.730  14.480 -0.0389  0.0893 -0.1545
 6721DDP     P240323  18.945   8.527  13.667 -0.0719  0.1049  0.1451
 6721DDP     C240324  18.598   8.388  13.753  0.0019 -0.1647  0.0757
 6721DDP     C340325  19.366   8.648  14.911  0.1629  0.2007 -0.0750
 6721DDP     C440326  19.651   8.541  13.946  0.2006 -0.4402 -0.3256
 6722DDP     C140327  21.074  30.056  18.747  0.0955  0.0253  0.0467
 6722DDP     P140328  21.022  29.926  19.225  0.0452  0.1453 -0.0252
 6722DDP     P240329  21.402  29.988  18.457  0.1775  0.1535  0.0284
 6722DDP     C240330  21.525  30.052  18.103  0.0987 -0.1366  0.1213
 6722DDP     C340331  21.164  30.120  19.648 -0.0539  0.0846  0.0063
 6722DDP     C440332  20.778  29.990  18.376 -0.0269  0.0145 -0.0272
 6723DDP     C140333  10.762  24.288  19.384 -0.3017 -0.1174  0.2225
 6723DDP     P140334  10.627  23.912  19.424  0.2514  0.0816  0.1324
 6723DDP     P240335  10.838  24.462  19.731 -0.0120 -0.2006  0.1551
 6723DDP     C240336  11.270  24.387  19.920  0.0513 -0.1090 -0.1581
 6723DDP     C340337  10.365  23.503  19.290 -0.1653  0.0408 -0.1343
 6723DDP     C440338  10.901  24.619  19.053  0.3975  0.4721  0.1546
 6724DDP     C140339  24.337   7.942  28.398  0.1243 -0.1876 -0.2790
 6724DDP     P140340  24.327   7.832  28.863  0.2904 -0.0650 -0.2043
 6724DDP     P240341  23.989   7.882  28.239 -0.1534  0.0395  0.0201
 6724DDP     C240342  23.737   7.452  28.053  0.0199  0.2111 -0.0582
 6724DDP     C340343  24.732   7.869  29.172 -0.2430 -0.2155 -0.0763
 6724DDP     C440344  24.637   8.207  28.224 -0.2334 -0.2529 -0.1327
 6725DDP     C140345  20.325   6.008  17.523 -0.0843 -0.1466 -0.0698
 6725DDP     P140346  20.588   5.877  17.920 -0.0022  0.1369  0.0097
 6725DDP     P240347  20.400   5.690  17.233 -0.2838  0.3673  0.1879
 6725DDP     C240348  20.159   5.298  17.210  0.1775 -0.0504  0.1441
 6725DDP     C340349  21.086   5.707  17.933  0.0257 -0.2077  0.3017
 6725DDP     C440350  19.928   6.220  17.699 -0.0051 -0.4789 -0.4520
 6726DDP     C140351   7.452  20.619   7.630 -0.0641 -0.4330 -0.1431
 6726DDP     P140352   7.833  20.419   7.736  0.2510 -0.0935  0.1182
 6726DDP     P240353   7.082  20.465   7.855 -0.2607 -0.0506  0.2648
 6726DDP     C240354   6.646  20.182   7.763  0.1075  0.0887  0.1635
 6726DDP     C340355   8.276  20.512   7.762  0.1018 -0.1296  0.1262
 6726DDP     C440356   7.591  21.085   7.742  0.0996  0.1317  0.1458
 6727DDP     C140357   0.177   0.166  12.037 -0.2230  0.0778 -0.0333
 6727DDP     P140358   0.614   0.068  12.137  0.0861  0.2787  0.0501
 6727DDP     P240359  30.264   0.607  12.155  0.0821  0.1422  0.1530
 6727DDP     C240360  30.158   1.035  12.294  0.0627  0.0486 -0.0646
 6727DDP     C340361   0.911  29.983  11.987 -0.1596  0.2579 -0.2016
 6727DDP     C440362  30.231  30.163  11.755 -0.0693  0.2568 -0.3981
 6728DDP     C140363  29.953  28.675  15.161 -0.0091  0.0654 -0.0571
 6728DDP     P140364  30.017  28.597  15.592  0.1205  0.3125 -0.2968
 6728DDP     P240365  29.510  28.840  15.052  0.2498  0.1006  0.2178
 6728DDP     C240366  29.257  29.134  15.023 -0.3372  0.1503 -0.2173
 6728DDP     C340367  29.948  28.273  15.896  0.4951 -0.0608  0.1084
 6728DDP     C440368  30.186  28.516  14.769 -0.1629 -0.1081 -0.0116
 6729DDP     C140369  27.161   2.111  26.408 -0.2673  0.4138  0.0775
 6729DDP     P140370  26.780   2.126  26.511 -0.0998 -0.1395  0.0767
 6729DDP     P240371  27.368   1.812  26.103  0.0380 -0.3278 -0.0297
 6729DDP     C240372  27.379   1.338  26.108 -0.5030  0.0695 -0.1507
 6729DDP     C340373  26.554   1.929  26.923 -0.0025  0.3216  0.0703
 6729DDP     C440374  27.460   2.469  26.611 -0.1214 -0.0499  0.2445
 6730DDP     C140375  28.563   6.776  18.601 -0.1409 -0.3299 -0.1635
 6730DDP     P140376  28.796   7.185  18.593 -0.0171  0.1385 -0.0268
 6730DDP     P240377  28.370   6.658  18.960  0.2944  0.0638 -0.2690
 6730DDP     C240378  28.123   6.304  19.107 -0.1138  0.2530  0.0526
 6730DDP     C340379  29.034   7.585  18.485  0.3542 -0.2628  0.1386
 6730DDP     C440380  28.456   6.472  18.234  0.3234  0.3826  0.1357
 6731DDP     C140381  16.054  21.763   5.729 -0.0393  0.2254 -0.0738
 6731DDP     P140382  16.277  22.000   6.160  0.0534  0.0467  0.1743
 6731DDP     P240383  15.551  21.858   5.656 -0.1186  0.0524  0.0263
 6731DDP     C240384  15.267  21.774   5.293  0.2881  0.2988  0.2001
 6731DDP     C340385  16.494  21.827   6.520 -0.0357 -0.1774  0.3172
 6731DDP     C440386  16.267  21.522   5.432  0.0320  0.1537 -0.3480
 6732DDP     C140387  28.345  11.192  25.125 -0.2114  0.2836 -0.1101
 6732DDP     P140388  28.678  11.229  24.940  0.1416 -0.3157 -0.0845
 6732DDP     P240389  28.131  10.895  25.558  0.1386  0.0145 -0.1143
 6732DDP     C240390  27.695  10.692  25.693  0.2348  0.1368 -0.0509
 6732DDP     C340391  28.877  11.487  24.668  0.2950 -0.0408  0.3902
 6732DDP     C440392  28.179  11.306  24.766 -0.2026  0.1948 -0.1220
 6733DDP     C140393   7.795   5.381   7.661  0.4137 -0.1561  0.0962
 6733DDP     P140394   7.931   5.130   8.006  0.3160 -0.2639 -0.2661
 6733DDP     P240395   7.959   5.804   7.554  0.0804  0.1636  0.0738
 6733DDP     C240396   8.282   6.006   7.352  0.3983 -0.3178  0.2037
 6733DDP     C340397   7.918   5.262   8.434  0.1042 -0.0382  0.0017
 6733DDP     C440398   7.493   5.284   7.465 -0.1135 -0.4076  0.1636
 6734DDP     C140399   3.617   2.586  29.618 -0.0348 -0.0991  0.1287
 6734DDP     P140400   3.721   2.388  29.142  0.0445 -0.2529 -0.4313
 6734DDP     P240401   3.882   2.374  29.973  0.0587  0.0295 -0.1043
 6734DDP     C240402   3.695   2.267   0.016  0.0171  0.0812 -0.0228
 6734DDP     C340403   3.688   1.956  28.985  0.0855 -0.0826  0.3848
 6734DDP     C440404   3.200   2.839  29.699  0.1678 -0.0604  0.1490
 6735DDP     C140405  21.550  11.065  29.298  0.1582  0.4357 -0.0975
 6735DDP     P140406  21.286  11.414  29.376  0.0631 -0.4677 -0.2180
 6735DDP     P240407  21.865  10.971  29.620 -0.1024 -0.0126 -0.1112
 6735DDP     C240408  21.751  10.750  29.937  0.1459 -0.0617  0.3189
 6735DDP     C340409  20.906  11.605  29.594 -0.1667 -0.0391 -0.0035
 6735DDP     C440410  21.434  10.656  29.151  0.1962  0.2259 -0.2983
 6736DDP     C140411  25.865   9.396  25.060  0.1740 -0.0285  0.1291
 6736DDP     P140412  25.819   9.465  24.692  0.0208 -0.0017 -0.2782
 6736DDP     P240413  26.186   9.774  25.069 -0.1434  0.0179 -0.2183
 6736DDP     C240414  26.439  10.157  25.189 -0.2172 -0.1204  0.2809
 6736DDP     C340415  25.942   9.547  24.305  0.3069  0.0563  0.1748
 6736DDP     C440416  25.814   8.998  25.362  0.0835 -0.0051  0.0727
 6737DDP     C140417  16.449  27.645   1.766 -0.1916  0.1715 -0.1189
 6737DDP     P140418  16.285  27.272   1.536  0.0865  0.0926  0.3326
 6737DDP     P240419  16.182  27.985   1.574 -0.1325  0.3235 -0.0552
 6737DDP     C240420  15.773  28.163   1.596  0.2215 -0.0841 -0.0459
 6737DDP     C340421  16.152  26.910   1.123  0.0345  0.0631  0.1813
 6737DDP     C440422  16.605  27.709   2.153  0.0216  0.0366 -0.1984
 6738DDP     C140423  19.968   8.652   7.575  0.1371  0.0864 -0.4093
 6738DDP     P140424  20.054   8.326   7.912  0.0443  0.1436 -0.0132
 6738DDP     P240425  20.039   8.613   7.228 -0.0335 -0.3398 -0.1178
 6738DDP     C240426  20.187   8.783   6.847 -0.2853 -0.0264  0.0172
 6738DDP     C340427  20.136   8.248   8.377  0.0961  0.2220 -0.2525
 6738DDP     C440428  19.703   8.942   7.912 -0.3101 -0.1400  0.2694
 6739DDP     C140429   7.877  13.767   3.312 -0.0712  0.0131  0.2102
 6739DDP     P140430   7.729  13.493   3.056 -0.0380 -0.2025  0.0675
 6739DDP     P240431   8.136  13.394   3.485 -0.1673 -0.1889  0.0682
 6739DDP     C240432   8.417  13.039   3.594 -0.2151 -0.1065 -0.1536
 6739DDP     C340433   7.507  13.499   2.688 -0.0461  0.1044  0.0479
 6739DDP     C440434   7.986  14.149   3.487 -0.0793 -0.0799 -0.2946
 6740DDP     C140435  25.350  13.279   1.184 -0.1290  0.3502  0.1743
 6740DDP     P140436  25.457  13.461   0.669 -0.0460 -0.2727  0.0111
 6740DDP     P240437  25.262  12.831   1.395 -0.1480  0.2583  0.0295
 6740DDP     C240438  24.932  12.772   1.821  0.1512 -0.0449 -0.3837
 6740DDP     C340439  25.919  13.379   0.625 -0.3470 -0.0961 -0.2610
 6740DDP     C440440  25.426  13.514   1.494 -0.0148  0.1285  0.0456
 6741DDP     C140441  17.151   4.742  15.487 -0.3340  0.1933  0.0590
 6741DDP     P140442  17.576   4.673  15.537 -0.1499 -0.1018 -0.1208
 6741DDP     P240443  16.987   5.085  15.108 -0.0469 -0.1347 -0.0132
 6741DDP     C240444  17.267   5.338  14.889  0.0852 -0.4064 -0.1375
 6741DDP     C340445  17.939   4.468  15.498 -0.0841  0.1794 -0.1946
 6741DDP     C440446  16.885   4.657  15.779 -0.1785 -0.2728 -0.1429
 6742DDP     C140447   9.504   8.267   0.284 -0.1359 -0.0863 -0.0416
 6742DDP     P140448   9.713   7.916   0.262  0.1122  0.3256  0.1905
 6742DDP     P240449   9.604   8.511   0.035 -0.0341 -0.0151 -0.0949
 6742DDP     C240450   9.800   8.613  29.936  0.0424 -0.2305  0.1964
 6742DDP     C340451   9.988   7.605   0.413  0.1026 -0.1028 -0.0720
 6742DDP     C440452   9.072   8.261   0.566 -0.2163 -0.0583 -0.0894
 6743DDP     C140453  27.459  20.988  29.068 -0.3160  0.2692  0.0974
 6743DDP     P140454  27.615  21.156  28.583  0.2369  0.3000 -0.1910
 6743DDP     P240455  27.712  20.732  29.339  0.2544  0.1772  0.1059
 6743DDP     C240456  27.963  20.746  29.649 -0.1074 -0.4811 -0.0727
 6743DDP     C340457  27.905  21.688  28.377  0.1418  0.0609  0.1080
 6743DDP     C440458  27.034  21.141  29.223  0.3474  0.2030 -0.0103
 6744DDP     C140459   8.694  27.709  17.376  0.1785  0.0138  0.1900
 6744DDP     P140460   9.071  27.893  17.162 -0.2518  0.0183  0.3243
 6744DDP     P240461   8.515  27.693  17.788  0.2861 -0.0045 -0.1492
 6744DDP     C240462   8.708  27.642  18.154 -0.1608  0.1441 -0.1489
 6744DDP     C340463   9.518  27.806  16.969 -0.0862  0.1198  0.2929
 6744DDP     C440464   8.614  27.354  17.036 -0.2181  0.1028 -0.1801
 6745DDP     C140465  28.621  25.949  19.242  0.0304  0.1301  0.0065
 6745DDP     P140466  28.357  25.828  18.862  0.0036  0.0262 -0.1341
 6745DDP     P240467  28.918  26.280  19.306  0.0300 -0.2157  0.3288
 6745DDP     C240468  29.001  26.715  19.543  0.0406 -0.0979 -0.2917
 6745DDP     C340469  28.105  25.653  18.492  0.0493  0.0877 -0.1057
 6745DDP     C440470  28.506  25.707  19.595 -0.0990  0.3693 -0.1908
 6746DDP     C140471  21.406  16.184  18.998  0.0013  0.6342  0.1793
 6746DDP     P140472  21.202  16.179  18.640  0.1652  0.0317  0.1794
 6746DDP     P240473  21.457  16.488  19.191  0.0007 -0.0273 -0.2812
 6746DDP     C240474  21.867  16.553  19.475 -0.2945  0.2907 -0.0745
 6746DDP     C340475  20.918  16.514  18.543 -0.0697  0.0759  0.2219
 6746DDP     C440476  21.648  15.899  19.321 -0.3528 -0.0006  0.2502
 6747DDP     C140477  29.678   0.047   6.523 -0.0701  0.2388  0.1087
 6747DDP     P140478  30.064   0.254   6.315  0.2457  0.0674 -0.0356
 6747DDP     P240479  29.512  29.921   6.436  0.0904  0.1550 -0.4325
 6747DDP     C240480  29.285  29.870   6.113 -0.0791 -0.0806 -0.4327
 6747DDP     C340481  30.320   0.366   6.116  0.3086 -0.1216 -0.1746
 6747DDP     C440482  29.428   0.238   6.864 -0.0239 -0.2530  0.0889
 6748DDP     C140483  27.285  25.258  29.418  0.1649 -0.0799  0.0705
 6748DDP     P140484  26.973  25.202  29.016 -0.0603 -0.6782  0.0073
 6748DDP     P240485  27.633  25.432  29.360  0.4312  0.0969 -0.3979
 6748DDP     C240486  27.986  25.517  29.705  0.0963  0.1617 -0.3702
 6748DDP     C340487  27.013  24.987  28.656  0.1097 -0.3423 -0.0216
 6748DDP     C440488  27.043  25.405  29.714  0.3286  0.1985  0.0614
 6749DDP     C140489  19.368   7.340   5.677  0.2826  0.0469 -0.3351
 6749DDP     P140490  18.892   7.484   5.716  0.1605  0.1470 -0.0352
 6749DDP     P240491  19.652   7.386   5.349 -0.1365  0.1078 -0.0931
 6749DDP     C240492  20.068   7.227   5.253 -0.0338 -0.0261  0.0026
 6749DDP     C340493  18.591   7.644   5.978  0.2052  0.1048  0.0906
 6749DDP     C440494  19.541   6.948   5.798  0.2262  0.1469 -0.0492
 6750DDP     C140495   2.817  26.067   8.231 -0.1730  0.0875 -0.2235
 6750DDP     P140496   3.201  26.229   8.096 -0.0970  0.1714  0.1287
 6750DDP     P240497   2.562  26.019   7.894 -0.0400  0.1503 -0.0745
 6750DDP     C240498   2.556  26.052   7.402 -0.2722  0.4912 -0.2021
 6750DDP     C340499   3.201  26.688   8.049 -0.3529 -0.1990 -0.0229
 6750DDP     C440500   2.644  26.258   8.655  0.2055  0.3276 -0.0503
 6751DDP     C140501  11.627  25.815  20.741 -0.1308  0.2609  0.0237
 6751DDP     P140502  11.789  25.434  20.492  0.2147 -0.0526 -0.2130
 6751DDP     P240503  11.260  25.951  20.703  0.1431 -0.2044 -0.4128
 6751DDP     C240504  10.913  25.839  20.572 -0.1566 -0.0578  0.1497
 6751DDP     C340505  11.531  25.033  20.390  0.3395  0.2023 -0.2803
 6751DDP     C440506  11.855  26.069  21.107  0.0233 -0.0384  0.2675
 6752DDP     C140507   9.837   3.362  17.644 -0.0112  0.1895 -0.0953
 6752DDP     P140508   9.973   3.605  17.281 -0.0249  0.0606  0.1023
 6752DDP     P240509   9.409   3.315  17.866 -0.1142  0.0883  0.0677
 6752DDP     C240510   9.159   2.973  17.674  0.0398  0.0088 -0.0525
 6752DDP     C340511  10.355   3.710  17.098 -0.3171 -0.0814 -0.0152
 6752DDP     C440512  10.060   3.060  17.805 -0.0525  0.0372  0.0634
 6753DDP     C140513   3.681   3.996  16.530 -0.1364  0.0350 -0.3167
 6753DDP     P140514   3.874   4.006  16.981 -0.0315  0.0491  0.0196
 6753DDP     P240515   3.667   3.614  16.234 -0.0027 -0.0065 -0.1530
 6753DDP     C240516   3.565   3.281  15.898 -0.1009  0.0193 -0.0369
 6753DDP     C340517   3.735   4.064  17.453  0.4567  0.0854  0.1815
 6753DDP     C440518   3.398   4.310  16.518 -0.2878  0.1971  0.2726
 6754DDP     C140519   8.411  27.962  12.542 -0.1066 -0.0400 -0.0944
 6754DDP     P140520   8.297  28.355  12.345  0.3516 -0.0583 -0.1797
 6754DDP     P240521   8.833  27.911  12.418 -0.1333  0.0601 -0.1780
 6754DDP     C240522   9.162  28.166  12.259  0.1709 -0.0099 -0.1959
 6754DDP     C340523   8.514  28.658  12.029  0.3134  0.0775  0.1829
 6754DDP     C440524   8.091  27.717  12.667 -0.2853  0.1095 -0.1390
 6755DDP     C140525  10.620   9.918  20.675 -0.0766 -0.1375 -0.0890
 6755DDP     P140526  10.734   9.900  20.208 -0.1280 -0.1205 -0.0094
 6755DDP     P240527  10.194   9.851  20.742 -0.0572 -0.0045 -0.0297
 6755DDP     C240528   9.962   9.525  20.996 -0.2784 -0.0064  0.0462
 6755DDP     C340529  10.706   9.548  19.893  0.1332 -0.0116  0.1172
 6755DDP     C440530  10.860   9.875  21.021  0.0200  0.1669 -0.0037
 6756DDP     C140531  14.020   3.515   0.195  0.1457 -0.1409 -0.0800
 6756DDP     P140532  13.963   3.174  30.234 -0.1257 -0.2657 -0.0795
 6756DDP     P240533  14.033   3.497   0.679  0.0549  0.0458 -0.0546
 6756DDP     C240534  14.204   3.198   1.023 -0.0148  0.3528 -0.1183
 6756DDP     C340535  14.073   3.001  29.801  0.2473  0.0958  0.2712
 6756DDP     C440536  14.059   3.956   0.114  0.0424  0.0415  0.2397
 6757DDP     C140537  13.238  27.839  12.285 -0.2159  0.0286 -0.4761
 6757DDP     P140538  12.923  27.738  12.627 -0.0323 -0.1470 -0.4753
 6757DDP     P240539  13.628  28.093  12.347 -0.0091 -0.1385  0.0973
 6757DDP     C240540  13.884  28.447  12.311  0.1819 -0.0654  0.2148
 6757DDP     C340541  12.479  27.722  12.656 -0.2622  0.1089  0.1520
 6757DDP     C440542  13.346  27.726  11.846 -0.1237  0.0787  0.2203
 6758DDP     C140543  25.228  24.034   9.228  0.0103  0.2933 -0.1517
 6758DDP     P140544  24.918  24.267   9.448  0.0142  0.1632 -0.2104
 6758DDP     P240545  25.197  24.049   8.841  0.2125 -0.2714 -0.1818
 6758DDP     C240546  24.826  24.072   8.552  0.2132 -0.2234  0.3953
 6758DDP     C340547  24.531  24.425   9.571 -0.1166  0.1300  0.0501
 6758DDP     C440548  25.574  23.868   9.414  0.2152  0.1455 -0.1644
 6759DDP     C140549   1.146  22.702   4.416  0.0919 -0.1784 -0.0809
 6759DDP     P140550   1.379  22.334   4.526 -0.0718  0.2705  0.0683
 6759DDP     P240551   1.236  22.998   4.608  0.1843 -0.1825 -0.2525
 6759DDP     C240552   1.524  23.141   4.935 -0.0347 -0.2088 -0.2120
 6759DDP     C340553   1.615  21.994   4.437  0.0311  0.2034 -0.2061
 6759DDP     C440554   1.057  22.646   3.924 -0.1486 -0.0771 -0.1148
 6760DDP     C140555  11.046   0.443   7.115 -0.0189  0.1167  0.0673
 6760DDP     P140556  10.671   0.274   7.057  0.3528  0.0849 -0.2024
 6760DDP     P240557  11.336   0.194   6.915 -0.0919 -0.1694  0.0108
 6760DDP     C240558  11.820   0.164   7.035  0.0725  0.2005 -0.0860
 6760DDP     C340559  10.390  30.195   7.136  0.1425 -0.0383 -0.0395
 6760DDP     C440560  11.124   0.523   7.539  0.0147 -0.1570 -0.0290
 6761DDP     C140561  24.721  19.887  10.560  0.3007 -0.0054  0.2608
 6761DDP     P140562  24.547  20.344  10.570 -0.1151 -0.1566  0.3283
 6761DDP     P240563  24.624  19.604  10.998 -0.2272  0.0929  0.1765
 6761DDP     C240564  24.437  19.224  11.069  0.2899 -0.1386 -0.0823
 6761DDP     C340565  24.658  20.725  10.906 -0.1938  0.1058  0.3150
 6761DDP     C440566  24.901  19.795  10.240 -0.0890 -0.1175  0.0001
 6762DDP     C140567  27.734  20.894   1.965 -0.1753  0.1258  0.1692
 6762DDP     P140568  27.469  21.195   1.692 -0.0458 -0.0841 -0.0874
 6762DDP     P240569  27.554  20.561   2.172  0.1610  0.1819 -0.1340
 6762DDP     C240570  27.482  20.194   1.875  0.3556  0.2424 -0.0045
 6762DDP     C340571  27.060  21.337   1.606  0.2280  0.4131  0.1534
 6762DDP     C440572  28.057  21.190   1.984 -0.4014  0.0151 -0.1817
 6763DDP     C140573   6.836  22.449  17.004  0.0946  0.2194  0.0898
 6763DDP     P140574   6.872  21.960  16.893 -0.0665 -0.0235 -0.0177
 6763DDP     P240575   6.959  22.741  17.305 -0.0574 -0.0291  0.1914
 6763DDP     C240576   6.955  22.990  17.535  0.0286 -0.1218 -0.0984
 6763DDP     C340577   6.817  21.564  16.730 -0.2020 -0.3049 -0.2530
 6763DDP     C440578   6.684  22.791  16.774 -0.4957 -0.1282  0.2405
 6764DDP     C140579   6.589   0.424   1.473 -0.3600  0.2671 -0.0038
 6764DDP     P140580   6.156   0.622   1.606 -0.1648 -0.1108  0.0690
 6764DDP     P240581   6.683   0.057   1.762  0.0312 -0.2118  0.0055
 6764DDP     C240582   6.778   0.003   2.088  0.2745 -0.0838 -0.2283
 6764DDP     C340583   5.857   0.534   1.976 -0.2256 -0.2394  0.0999
 6764DDP     C440584   6.709   0.573   1.081  0.1820 -0.1411 -0.0226
 6765DDP     C140585  17.502   3.070   3.385  0.1407  0.1649 -0.4052
 6765DDP     P140586  17.681   3.413   3.219 -0.1746 -0.0456  0.1018
 6765DDP     P240587  17.079   2.950   3.243 -0.1954 -0.1735 -0.0559
 6765DDP     C240588  16.873   2.801   2.829 -0.2124  0.0433  0.2706
 6765DDP     C340589  17.727   3.750   2.936  0.0551 -0.2818 -0.2530
 6765DDP     C440590  17.835   2.747   3.417 -0.1556 -0.1690  0.0108
 6766DDP     C140591   0.462  14.925  26.459 -0.2651  0.0470 -0.1350
 6766DDP     P140592   0.789  15.233  26.709 -0.2383  0.1711 -0.1033
 6766DDP     P240593   0.130  15.116  26.245  0.0768  0.4164 -0.1339
 6766DDP     C240594  30.018  15.304  26.054 -0.0221 -0.1328 -0.3229
 6766DDP     C340595   0.967  15.517  26.732 -0.1373 -0.2205  0.1716
 6766DDP     C440596   0.558  14.441  26.518  0.3972 -0.1972  0.1008
 6767DDP     C140597   0.142   8.154  19.994  0.0992  0.0163 -0.0818
 6767DDP     P140598   0.632   8.194  19.887  0.1200  0.1303 -0.3019
 6767DDP     P240599  30.159   7.909  19.799  0.1862 -0.2181  0.1103
 6767DDP     C240600  29.897   7.892  19.448  0.2870  0.2042  0.2756
 6767DDP     C340601   1.038   8.384  20.165 -0.0834  0.2113  0.2798
 6767DDP     C440602   0.010   8.467  20.279 -0.0388 -0.1533  0.0338
 6768DDP     C140603  22.574   5.808   5.908 -0.0213  0.1784  0.3028
 6768DDP     P140604  22.636   5.416   6.051  0.0897 -0.0882  0.1699
 6768DDP     P240605  22.878   6.013   5.630  0.2206  0.0027  0.1357
 6768DDP     C240606  23.239   5.936   5.413  0.0229 -0.1424 -0.1565
 6768DDP     C340607  22.734   5.362   6.558  0.4278  0.2206 -0.1327
 6768DDP     C440608  22.269   6.198   5.998 -0.2331 -0.1585 -0.0779
 6769DDP     C140609  10.794  14.717  11.769 -0.2020  0.0331  0.0195
 6769DDP     P140610  10.832  14.927  12.181 -0.0876 -0.0228  0.0704
 6769DDP     P240611  11.029  14.569  11.415 -0.1044 -0.2763 -0.2870
 6769DDP     C240612  10.946  14.334  11.056  0.0982 -0.1475 -0.2661
 6769DDP     C340613  11.239  15.193  12.296 -0.1381 -0.1283 -0.0371
 6769DDP     C440614  10.381  14.455  11.757 -0.2181 -0.0568 -0.1943
 6770DDP     C140615  11.187   3.855   3.567 -0.0250 -0.1672 -0.0971
 6770DDP     P140616  11.228   3.872   3.125  0.3113 -0.2715 -0.0747
 6770DDP     P240617  11.398   3.936   3.858  0.0572  0.0915 -0.2581
 6770DDP     C240618  11.336   3.904   4.307  0.0124 -0.0517  0.1422
 6770DDP     C340619  11.025   3.595   2.806  0.2938  0.0395  0.0703
 6770DDP     C440620  10.750   3.924   3.684  0.0498 -0.0549  0.2287
 6771DDP     C140621  20.406  11.240  10.592 -0.0630  0.0571  0.0536
 6771DDP     P140622  20.540  10.869  10.600  0.1019  0.2913 -0.0124
 6771DDP     P240623  20.104  11.366  10.901 -0.0277  0.0382 -0.0947
 6771DDP     C240624  19.750  11.631  10.833 -0.1203 -0.2091 -0.1389
 6771DDP     C340625  20.532  10.491  10.752 -0.1765 -0.3111  0.0583
 6771DDP     C440626  20.668  11.602  10.390  0.3639  0.1704 -0.0103
 6772DDP     C140627  17.796  12.790  20.845  0.1545 -0.0367  0.0088
 6772DDP     P140628  18.129  12.984  20.417  0.0516 -0.0936 -0.0620
 6772DDP     P240629  17.791  12.387  20.940 -0.0386  0.2508 -0.3457
 6772DDP     C240630  17.871  11.859  20.845 -0.1583 -0.1690 -0.0267
 6772DDP     C340631  18.624  13.007  20.443  0.2265 -0.3485  0.3041
 6772DDP     C440632  17.440  13.078  20.993 -0.1577  0.2726  0.0370
 6773DDP     C140633  24.659  29.422  25.168  0.0251 -0.1983  0.0986
 6773DDP     P140634  24.994  29.082  24.930  0.1143 -0.2690  0.2492
 6773DDP     P240635  24.447  29.179  25.493 -0.1268  0.1097  0.2806
 6773DDP     C240636  24.250  28.794  25.602 -0.0027 -0.0820  0.0179
 6773DDP     C340637  25.060  28.660  24.873  0.1689  0.4084 -0.3201
 6773DDP     C440638  24.591  29.783  24.963  0.0329 -0.2601 -0.0921
 6774DDP     C140639  15.476  15.167   1.300  0.3527  0.2031 -0.2987
 6774DDP     P140640  15.899  15.028   1.505  0.1565 -0.0389 -0.1154
 6774DDP     P240641  15.105  15.401   1.514  0.1934  0.2888 -0.1396
 6774DDP     C240642  15.041  15.792   1.818 -0.0394 -0.1254  0.0023
 6774DDP     C340643  16.325  14.896   1.645  0.2030 -0.3106  0.1775
 6774DDP     C440644  15.530  15.148   0.862 -0.4096  0.0671  0.2629
 6775DDP     C140645  26.689   2.324   7.792  0.0762 -0.0206  0.0203
 6775DDP     P140646  26.294   2.575   7.733  0.0476 -0.0070  0.2442
 6775DDP     P240647  26.653   2.368   8.220 -0.2623 -0.0141  0.0718
 6775DDP     C240648  26.956   2.407   8.583 -0.0396 -0.1863 -0.1877
 6775DDP     C340649  25.969   2.577   7.363  0.0262 -0.1319 -0.1584
 6775DDP     C440650  27.011   2.016   7.640  0.1373 -0.1073  0.0223
 6776DDP     C140651  24.026  14.573   9.130 -0.0257 -0.1292 -0.0417
 6776DDP     P140652  23.530  14.567   9.087  0.0089 -0.1432 -0.0583
 6776DDP     P240653  24.184  14.628   8.786  0.0385  0.0370 -0.0245
 6776DDP     C240654  24.322  14.563   8.318 -0.0042  0.1270 -0.2205
 6776DDP     C340655  23.174  14.392   9.242  0.0323  0.1891  0.1033
 6776DDP     C440656  24.327  14.489   9.538  0.2129  0.0077 -0.0159
 6777DDP     C140657  26.959  22.643  11.108 -0.1363 -0.4065 -0.4516
 6777DDP     P140658  27.314  22.555  10.957 -0.0613 -0.0175  0.1204
 6777DDP     P240659  26.711  22.410  11.363  0.5235 -0.2587 -0.0028
 6777DDP     C240660  26.783  21.977  11.421 -0.0969 -0.2167 -0.1185
 6777DDP     C340661  27.639  22.581  10.622  0.0126 -0.0604  0.1367
 6777DDP     C440662  26.943  22.969  11.337 -0.3610  0.2200 -0.0337
 6778DDP     C140663  18.954  13.296   2.410 -0.1585  0.1145 -0.1743
 6778DDP     P140664  19.075  13.749   2.394 -0.0404  0.2119  0.2454
 6778DDP     P240665  18.639  13.186   2.653  0.1150  0.2404  0.1478
 6778DDP     C240666  18.273  12.949   2.595  0.1945 -0.1759  0.1881
 6778DDP     C340667  19.068  14.143   2.519  0.1221  0.5146  0.0589
 6778DDP     C440668  19.398  13.095   2.422 -0.0809  0.2703  0.0797
 6779DDP     C140669  26.462  26.841  15.823 -0.0985 -0.0875 -0.1448
 6779DDP     P140670  26.730  27.029  15.418  0.2930  0.4090  0.1161
 6779DDP     P240671  26.722  26.514  15.995 -0.0300  0.0327  0.1297
 6779DDP     C240672  27.009  26.597  16.236  0.0384 -0.1495 -0.0745
 6779DDP     C340673  26.888  27.168  15.123  0.2129 -0.2248  0.0264
 6779DDP     C440674  26.127  26.999  16.031 -0.2604  0.2375 -0.4289
 6780DDP     C140675   6.625   3.633  21.624  0.0193 -0.0534 -0.2221
 6780DDP     P140676   6.681   3.903  21.965  0.3325 -0.1735  0.0500
 6780DDP     P240677   6.812   3.262  21.608  0.1377  0.0409  0.2213
 6780DDP     C240678   6.750   2.852  21.618 -0.0736 -0.1616 -0.0776
 6780DDP     C340679   6.627   4.259  22.287  0.0078 -0.0162  0.2308
 6780DDP     C440680   6.486   3.764  21.192 -0.1526 -0.2115 -0.0646
 6781DDP     C140681  28.964  24.203  15.867  0.1371  0.0626  0.1663
 6781DDP     P140682  28.885  24.411  16.147 -0.2128 -0.3551 -0.2361
 6781DDP     P240683  28.858  23.849  15.949 -0.1481  0.2155 -0.3531
 6781DDP     C240684  28.895  23.404  16.034 -0.0473 -0.1784 -0.1478
 6781DDP     C340685  28.712  24.632  16.473 -0.2737  0.1246 -0.2400
 6781DDP     C440686  29.112  24.439  15.521  0.1051  0.2654 -0.0134
 6782DDP     C140687  19.362  28.167   6.390  0.1314 -0.0413 -0.2564
 6782DDP     P140688  19.697  28.082   6.724  0.2575  0.0745 -0.2778
 6782DDP     P240689  19.105  28.025   6.057 -0.0244  0.0552 -0.0930
 6782DDP     C240690  18.650  27.884   6.228  0.0177 -0.0384  0.1634
 6782DDP     C340691  20.168  28.186   6.845 -0.2478  0.0408 -0.0148
 6782DDP     C440692  19.368  28.644   6.465 -0.0856 -0.0644 -0.2282
 6783DDP     C140693  20.204  15.097  15.933  0.0259  0.2231  0.1781
 6783DDP     P140694  20.466  14.847  15.688  0.0824  0.0878 -0.1946
 6783DDP     P240695  20.450  15.234  16.227 -0.0295 -0.1225 -0.0013
 6783DDP     C240696  20.638  15.567  16.243 -0.0330 -0.1535  0.2273
 6783DDP     C340697  20.326  14.429  15.492 -0.0742 -0.2492 -0.1233
 6783DDP     C440698  19.793  15.283  16.039  0.0379 -0.0443  0.2840
 6784DDP     C140699  15.524  13.270   9.350 -0.0795 -0.0261 -0.0692
 6784DDP     P140700  15.422  12.930   9.006 -0.0914  0.2363 -0.1608
 6784DDP     P240701  15.958  13.479   9.493 -0.1688 -0.0774  0.1509
 6784DDP     C240702  16.340  13.571   9.818  0.2532 -0.0429  0.1011
 6784DDP     C340703  15.130  12.888   8.722  0.1482 -0.0287 -0.1268
 6784DDP     C440704  15.207  13.582   9.546  0.0353  0.0400 -0.1175
 6785DDP     C140705  18.116  29.202   2.764 -0.0212  0.1934  0.0668
 6785DDP     P140706  18.419  29.188   2.356  0.1430  0.1609  0.0082
 6785DDP     P240707  17.720  28.985   2.665  0.1356  0.0315  0.1441
 6785DDP     C240708  17.311  28.879   2.874 -0.2861  0.1055 -0.1901
 6785DDP     C340709  18.491  29.086   1.935 -0.0227  0.0592  0.1772
 6785DDP     C440710  18.335  29.468   3.097  0.1758  0.1012  0.2344
 6786DDP     C140711  10.891  26.985  14.013 -0.0304 -0.2363 -0.1037
 6786DDP     P140712  11.014  26.693  13.903 -0.1146  0.0427  0.1610
 6786DDP     P240713  10.408  26.810  13.997  0.0421  0.2355 -0.2751
 6786DDP     C240714  10.059  26.952  14.330  0.1076 -0.0276  0.1048
 6786DDP     C340715  11.355  26.454  13.926 -0.1240 -0.1508 -0.0806
 6786DDP     C440716  11.031  27.350  14.354 -0.0490  0.0371  0.0313
 6787DDP     C140717  14.181  28.635  27.711  0.0629 -0.1218 -0.3490
 6787DDP     P140718  14.324  28.860  27.335  0.0437 -0.2072 -0.2538
 6787DDP     P240719  14.404  28.358  27.814  0.0465  0.1101  0.0697
 6787DDP     C240720  14.628  28.268  28.295  0.0602  0.0451  0.2374
 6787DDP     C340721  14.576  29.058  27.158  0.2372 -0.2087 -0.1116
 6787DDP     C440722  13.752  28.554  27.810  0.0424  0.1313  0.2547
 6788DDP     C140723  26.091  21.020  25.280  0.1739 -0.0124 -0.1093
 6788DDP     P140724  26.486  21.061  25.495 -0.1225  0.4458  0.3843
 6788DDP     P240725  26.001  20.687  24.947  0.3035 -0.0876  0.0363
 6788DDP     C240726  26.154  20.599  24.565 -0.0884  0.1629  0.0880
 6788DDP     C340727  26.842  21.348  25.702  0.1342 -0.0254  0.1417
 6788DDP     C440728  25.923  21.432  25.359 -0.2990 -0.0235  0.2861
 6789DDP     C140729   4.713   5.665  28.622  0.0275  0.1968 -0.0331
 6789DDP     P140730   4.402   5.376  28.851 -0.0689  0.3909  0.4084
 6789DDP     P240731   4.725   5.980  28.886 -0.0953  0.1188  0.3202
 6789DDP     C240732   4.615   6.400  29.039 -0.1676  0.0300  0.1721
 6789DDP     C340733   4.042   5.356  29.082  0.2580  0.1712 -0.1726
 6789DDP     C440734   5.044   5.661  28.256  0.2611  0.0197 -0.1143
 6790DDP     C140735   3.647   6.057  14.062 -0.1350  0.0840  0.0663
 6790DDP     P140736   3.840   6.074  13.677 -0.0424 -0.0820  0.2480
 6790DDP     P240737   3.428   5.691  14.030  0.0373  0.0495 -0.0379
 6790DDP     C240738   3.030   5.440  14.177 -0.3308 -0.1153  0.0524
 6790DDP     C340739   4.197   6.142  13.443  0.0551 -0.0216 -0.0590
 6790DDP     C440740   3.640   6.244  14.515  0.0835  0.2752 -0.1165
 6791DDP     C140741  24.919  10.724  26.516 -0.0575 -0.1714  0.1315
 6791DDP     P140742  25.359  10.808  26.507 -0.1081  0.1542 -0.1599
 6791DDP     P240743  24.765  10.505  26.747  0.1342  0.3459 -0.3715
 6791DDP     C240744  24.375  10.351  27.036  0.2085  0.1612  0.3568
 6791DDP     C340745  25.726  10.593  26.681 -0.0540 -0.1405 -0.0154
 6791DDP     C440746  24.565  11.016  26.424  0.0497 -0.1692  0.0250
 6792DDP     C140747   4.496  15.005   0.748 -0.0994 -0.0827  0.0877
 6792DDP     P140748   4.607  14.747   0.383  0.0015  0.2205  0.0183
 6792DDP     P240749   4.062  15.012   0.813  0.0924  0.3186  0.3175
 6792DDP     C240750   3.675  14.940   0.888  0.0886  0.1432  0.3209
 6792DDP     C340751   4.608  14.490  30.297 -0.1139 -0.2845 -0.0337
 6792DDP     C440752   4.683  15.273   1.061 -0.1052  0.1659 -0.0121
 6793DDP     C140753  22.692  28.278   1.234  0.0065  0.0992 -0.1363
 6793DDP     P140754  23.037  28.196   0.993 -0.2342 -0.2567  0.0110
 6793DDP     P240755  22.815  28.521   1.612  0.1995  0.0928 -0.1430
 6793DDP     C240756  23.052  28.794   1.721 -0.0665 -0.2535  0.0712
 6793DDP     C340757  23.113  27.977   0.686 -0.0519  0.0713 -0.3499
 6793DDP     C440758  22.305  28.118   1.239 -0.0577  0.2986  0.0954
 6794DDP     C140759  24.256  14.957   1.594 -0.4079  0.1875  0.4692
 6794DDP     P140760  24.357  14.719   1.856 -0.0604  0.2162 -0.4263
 6794DDP     P240761  24.577  15.206   1.540  0.0370 -0.0343 -0.1247
 6794DDP     C240762  24.725  15.545   1.386  0.2830  0.1733 -0.0742
 6794DDP     C340763  24.403  14.718   2.321 -0.0136 -0.0968 -0.0269
 6794DDP     C440764  23.870  15.059   1.413 -0.0382  0.0175  0.0007
 6795DDP     C140765  11.052   2.935  25.856  0.0513  0.2068 -0.0887
 6795DDP     P140766  11.101   2.664  25.478  0.0213 -0.2841 -0.2213
 6795DDP     P240767  11.295   2.748  26.268  0.0015 -0.0801  0.2460
 6795DDP     C240768  11.072   2.809  26.602  0.0974 -0.1045  0.0341
 6795DDP     C340769  11.201   2.499  24.973  0.0407 -0.0341  0.0168
 6795DDP     C440770  10.640   3.114  25.838 -0.1018 -0.2714 -0.4065
 6796DDP     C140771  13.973   1.958  11.168 -0.2399  0.0145 -0.1372
 6796DDP     P140772  13.509   1.870  11.019 -0.1611  0.0555 -0.2941
 6796DDP     P240773  14.358   1.776  10.937 -0.1202 -0.2175 -0.1364
 6796DDP     C240774  14.836   1.746  10.745 -0.0715  0.1275 -0.0734
 6796DDP     C340775  13.009   1.862  11.218 -0.0545  0.1320  0.2635
 6796DDP     C440776  13.994   1.920  11.604  0.1020  0.0116  0.1811
 6797DDP     C140777  18.236  23.469  28.679 -0.0033  0.1263  0.1974
 6797DDP     P140778  18.291  23.554  28.166  0.3063 -0.1012 -0.2121
 6797DDP     P240779  18.378  23.809  28.934  0.0323 -0.2652 -0.0921
 6797DDP     C240780  18.397  24.226  28.756 -0.0644  0.0893 -0.4180
 6797DDP     C340781  18.556  23.717  27.918 -0.1055  0.0617 -0.0700
 6797DDP     C440782  18.140  23.044  28.897 -0.2621 -0.3120 -0.0720
 6798DDP     C140783  20.746   9.834  29.409 -0.0689  0.1154 -0.3358
 6798DDP     P140784  20.413   9.506  29.431  0.0250  0.1700  0.2868
 6798DDP     P240785  21.085   9.455  29.411 -0.2764  0.0971  0.2426
 6798DDP     C240786  21.050   9.052  29.333  0.0753 -0.1480 -0.1118
 6798DDP     C340787  20.117   9.190  29.392  0.1719 -0.0845 -0.1656
 6798DDP     C440788  20.756  10.275  29.617 -0.2276  0.2437 -0.0764
 6799DDP     C140789  24.114  18.873  28.113  0.1354  0.2471 -0.0245
 6799DDP     P140790  24.514  19.173  27.920  0.1959  0.0403 -0.0614
 6799DDP     P240791  23.686  18.715  28.037 -0.3831  0.0275 -0.0226
 6799DDP     C240792  23.316  18.726  28.374  0.1250 -0.1656 -0.0950
 6799DDP     C340793  24.886  19.272  28.035 -0.1189  0.2477 -0.1261
 6799DDP     C440794  24.118  18.609  28.414 -0.1616  0.0270  0.1229
 6800DDP     C140795  21.349   1.371  17.767 -0.0574 -0.1821 -0.0983
 6800DDP     P140796  21.649   1.725  17.693  0.2984 -0.0433 -0.0115
 6800DDP     P240797  20.860   1.324  17.795 -0.1498 -0.1649  0.1231
 6800DDP     C240798  20.462   1.199  17.779 -0.2627 -0.1706  0.2066
 6800DDP     C340799  21.824   2.234  17.694  0.2951  0.0294 -0.0928
 6800DDP     C440800  21.551   1.142  18.068  0.0925  0.2616 -0.0029
 6801DDP     C140801   8.936   3.773  21.480  0.1467  0.0046  0.0018
 6801DDP     P140802   9.001   3.317  21.368  0.1413 -0.0465 -0.0460
 6801DDP     P240803   8.889   3.973  21.901  0.2507 -0.3992  0.0065
 6801DDP     C240804   8.548   4.042  22.205  0.1037  0.4216 -0.1079
 6801DDP     C340805   9.077   3.050  20.951  0.2458  0.0670  0.1206
 6801DDP     C440806   9.024   3.813  21.013  0.1357 -0.0741  0.3015
 6802DDP     C140807   7.133  29.131  20.898 -0.3408 -0.2383 -0.1725
 6802DDP     P140808   7.562  29.180  21.042 -0.0851 -0.2135 -0.2397
 6802DDP     P240809   6.852  28.910  20.560 -0.1728  0.1664 -0.0228
 6802DDP     C240810   6.877  28.400  20.467  0.2838 -0.0299  0.1397
 6802DDP     C340811   7.959  29.211  21.351 -0.0889 -0.0639 -0.0717
 6802DDP     C440812   7.134  29.174  21.398  0.3656 -0.1819 -0.2170
 6803DDP     C140813   2.640   8.139   2.578 -0.0643  0.2612  0.1371
 6803DDP     P140814   2.347   8.536   2.507 -0.2644 -0.1271 -0.2815
 6803DDP     P240815   2.267   7.981   2.748  0.3320 -0.2661 -0.3384
 6803DDP     C240816   1.792   7.925   2.707  0.0318 -0.2465  0.2170
 6803DDP     C340817   1.941   8.697   2.540 -0.1559 -0.0544 -0.0698
 6803DDP     C440818   3.055   8.104   2.562 -0.0933 -0.0606  0.1314
 6804DDP     C140819   0.993  17.916  24.770 -0.2255  0.0171  0.2664
 6804DDP     P140820   0.651  18.103  24.938  0.1627  0.1400 -0.1292
 6804DDP     P240821   1.404  17.851  24.950 -0.0029  0.0984 -0.0150
 6804DDP     C240822   1.842  18.116  25.114 -0.1727  0.4269  0.4213
 6804DDP     C340823   0.893  18.335  25.149 -0.4651  0.1094  0.0267
 6804DDP     C440824   1.004  18.030  24.356  0.0113  0.1181 -0.3785
 6805DDP     C140825  16.546  28.351   5.631 -0.2990 -0.2478  0.0932
 6805DDP     P140826  16.398  28.642   5.218  0.4078 -0.0419 -0.0283
 6805DDP     P240827  17.008  28.430   5.725  0.0849 -0.0174 -0.1718
 6805DDP     C240828  17.274  28.185   5.972 -0.0389 -0.2476  0.4759
 6805DDP     C340829  16.199  28.829   4.879  0.0704  0.1768  0.0205
 6805DDP     C440830  16.297  28.078   5.696 -0.0791  0.3024  0.2295
 6806DDP     C140831  16.138  24.467   4.244 -0.0215 -0.1445 -0.0109
 6806DDP     P140832  16.453  24.826   4.223  0.1959  0.0299  0.0923
 6806DDP     P240833  15.675  24.480   4.067 -0.0383  0.0324  0.0724
 6806DDP     C240834  15.465  24.025   3.959  0.0224  0.0579 -0.0406
 6806DDP     C340835  16.592  25.168   4.126 -0.1405  0.0801  0.0296
 6806DDP     C440836  16.238  24.146   4.425  0.1534  0.3990 -0.1103
 6807DDP     C140837  19.696  11.517   4.495  0.1183 -0.0426  0.0677
 6807DDP     P140838  19.389  11.419   4.183  0.1010 -0.1584 -0.0676
 6807DDP     P240839  19.723  11.236   4.846  0.1366 -0.0929 -0.2571
 6807DDP     C240840  19.607  10.885   4.954 -0.1170  0.0970  0.0165
 6807DDP     C340841  19.314  11.010   3.989  0.0337  0.0055 -0.1845
 6807DDP     C440842  19.964  11.924   4.445  0.4289 -0.2524 -0.3280
 6808DDP     C140843  18.677  22.712  17.777 -0.5626 -0.0836 -0.3014
 6808DDP     P140844  18.449  23.126  17.838  0.0553 -0.0780 -0.0295
 6808DDP     P240845  19.156  22.603  17.947  0.2034  0.0651  0.1177
 6808DDP     C240846  19.589  22.575  17.750  0.3664  0.2022 -0.0735
 6808DDP     C340847  18.076  23.113  17.927  0.0009  0.2062  0.2921
 6808DDP     C440848  18.528  22.651  17.408  0.1133 -0.2287 -0.0604
 6809DDP     C140849  18.817  15.160  23.339 -0.1820  0.3527 -0.2064
 6809DDP     P140850  18.988  15.119  22.907  0.1041 -0.1063  0.1112
 6809DDP     P240851  18.834  15.429  23.626  0.1943 -0.0460 -0.0148
 6809DDP     C240852  18.566  15.649  24.000 -0.1379 -0.2289 -0.2110
 6809DDP     C340853  19.286  14.877  22.583  0.3628  0.1618  0.1244
 6809DDP     C440854  18.463  15.067  23.255  0.1301 -0.0451 -0.0094
 6810DDP     C140855  27.612   5.637   2.017  0.0498 -0.0596  0.0865
 6810DDP     P140856  27.247   5.467   2.282  0.2291 -0.1035  0.0744
 6810DDP     P240857  27.691   5.443   1.590  0.0097  0.0282  0.0045
 6810DDP     C240858  27.683   4.994   1.446  0.0686  0.2587 -0.1126
 6810DDP     C340859  26.902   5.597   2.627 -0.0497  0.0145  0.0037
 6810DDP     C440860  28.002   5.765   2.344 -0.1812  0.2514  0.3675
 6811DDP     C140861   2.929  19.950  27.591 -0.0737 -0.0324  0.3366
 6811DDP     P140862   3.394  19.908  27.572  0.0677 -0.2299 -0.0216
 6811DDP     P240863   2.889  19.754  27.199 -0.0701  0.0868 -0.2673
 6811DDP     C240864   3.229  19.572  27.077 -0.1408 -0.0090 -0.2824
 6811DDP     C340865   3.692  19.685  27.353  0.0233  0.0757 -0.1240
 6811DDP     C440866   2.699  20.036  27.867  0.3040 -0.2144 -0.1572
 6812DDP     C140867  10.508   1.873  23.973 -0.2464  0.2036 -0.0036
 6812DDP     P140868  10.203   2.106  24.221  0.4679  0.0976  0.2603
 6812DDP     P240869  10.887   1.836  24.172 -0.0857 -0.0365  0.0825
 6812DDP     C240870  11.254   1.705  24.363  0.1490 -0.3121  0.0020
 6812DDP     C340871   9.672   2.107  24.275  0.1306 -0.2952  0.2693
 6812DDP     C440872  10.525   1.609  23.569 -0.3838 -0.0216 -0.0992
 6813DDP     C140873  25.367   7.887  28.528  0.1009  0.2972 -0.0599
 6813DDP     P140874  25.812   7.960  28.390  0.0605 -0.0427  0.0670
 6813DDP     P240875  25.166   8.208  28.380 -0.1115 -0.0059  0.0142
 6813DDP     C240876  25.193   8.281  28.011  0.2875 -0.0406 -0.3544
 6813DDP     C340877  26.189   8.048  28.186  0.0670  0.0956 -0.2128
 6813DDP     C440878  25.266   7.942  28.930  0.2680 -0.2490 -0.1564
 6814DDP     C140879  13.668  21.493   8.447 -0.1834  0.1471  0.0743
 6814DDP     P140880  14.098  21.292   8.428 -0.1262 -0.2717  0.1107
 6814DDP     P240881  13.480  21.839   8.345 -0.0906 -0.0563 -0.2784
 6814DDP     C240882  13.079  22.197   8.435  0.2691 -0.2987 -0.0933
 6814DDP     C340883  14.203  20.908   8.366  0.0937  0.0835  0.4792
 6814DDP     C440884  13.253  21.337   8.532  0.1929 -0.1033 -0.0155
 6815DDP     C140885  27.760   6.630   2.681  0.1306  0.1247 -0.1466
 6815DDP     P140886  27.769   6.467   3.154  0.0924 -0.1754  0.1856
 6815DDP     P240887  27.497   6.370   2.393 -0.1204 -0.0798  0.1140
 6815DDP     C240888  27.246   6.116   2.061 -0.1325 -0.1549 -0.3802
 6815DDP     C340889  27.689   6.495   3.672 -0.3383 -0.0081 -0.2769
 6815DDP     C440890  28.074   6.897   2.630  0.2623  0.2289  0.1880
 6816DDP     C140891   2.965   6.565   7.769 -0.4452 -0.3259  0.0259
 6816DDP     P140892   3.005   6.746   8.223 -0.2823 -0.2897 -0.1912
 6816DDP     P240893   2.971   6.132   7.697  0.1389  0.0707  0.0555
 6816DDP     C240894   3.382   5.911   7.712  0.1283  0.2121 -0.3314
 6816DDP     C340895   2.769   6.950   8.530  0.1532 -0.2383 -0.1733
 6816DDP     C440896   3.272   6.905   7.434 -0.3147 -0.3191  0.4788
 6817DDP     C140897  12.075  13.557   5.687 -0.0107 -0.0803  0.0058
 6817DDP     P140898  11.885  13.533   5.180 -0.0395 -0.1161  0.1824
 6817DDP     P240899  11.970  13.324   6.041 -0.1612 -0.1783 -0.5139
 6817DDP     C240900  12.114  12.828   6.132 -0.0234 -0.1472  0.0707
 6817DDP     C340901  12.029  13.697   4.856 -0.2518 -0.1869 -0.2643
 6817DDP     C440902  12.228  13.905   5.879 -0.1490  0.1562 -0.2201
 6818DDP     C140903  11.690  16.411  13.974  0.3854  0.0064  0.0722
 6818DDP     P140904  11.497  16.155  13.741  0.0744 -0.2775  0.1303
 6818DDP     P240905  11.293  16.515  14.212 -0.1425 -0.4099  0.2216
 6818DDP     C240906  10.832  16.610  14.127  0.1021 -0.3366 -0.1238
 6818DDP     C340907  11.067  16.095  13.979  0.1918  0.2418 -0.5096
 6818DDP     C440908  12.071  16.480  14.108  0.0151 -0.1847 -0.0299
 6819DDP     C140909  15.648  26.063  22.614  0.0973  0.1064  0.0180
 6819DDP     P140910  15.332  26.111  22.892 -0.0976  0.2197  0.2308
 6819DDP     P240911  15.596  25.906  22.209  0.1837  0.0904  0.3908
 6819DDP     C240912  15.466  25.933  21.722  0.1765  0.0559 -0.5858
 6819DDP     C340913  14.931  26.357  23.033  0.2989 -0.0086 -0.1214
 6819DDP     C440914  16.087  26.234  22.777 -0.0344 -0.0933 -0.1851
 6820DDP     C140915   1.403   6.578  19.578 -0.1194  0.2674  0.1082
 6820DDP     P140916   1.716   6.361  19.343  0.1299 -0.1030 -0.4040
 6820DDP     P240917   1.620   6.848  19.848 -0.2552  0.0230 -0.1420
 6820DDP     C240918   2.032   6.794  20.126  0.0362  0.0640 -0.3416
 6820DDP     C340919   2.108   6.099  19.192 -0.1429 -0.2342  0.2315
 6820DDP     C440920   0.964   6.560  19.421  0.1737 -0.1794  0.1527
 6821DDP     C140921   2.693   2.538   2.218 -0.0132 -0.0153  0.1626
 6821DDP     P140922   2.595   2.515   1.806 -0.0905  0.0735 -0.0392
 6821DDP     P240923   2.598   2.155   2.277 -0.1535 -0.0893 -0.0351
 6821DDP     C240924   2.375   1.749   2.451 -0.1857  0.1124  0.2135
 6821DDP     C340925   2.429   2.133   1.729  0.0815  0.0257  0.0574
 6821DDP     C440926   2.694   2.800   2.653 -0.0358  0.0407 -0.0077
 6822DDP     C140927  10.404  16.798   8.584 -0.4970 -0.0432 -0.2219
 6822DDP     P140928  10.777  16.949   8.864  0.0119  0.0591 -0.1428
 6822DDP     P240929  10.548  16.693   8.227 -0.1996  0.2277 -0.0723
 6822DDP     C240930  10.879  16.397   8.253 -0.2778  0.0202  0.1527
 6822DDP     C340931  10.902  16.905   9.308 -0.0656  0.1546 -0.1007
 6822DDP     C440932   9.946  16.639   8.713  0.0798 -0.0543 -0.4292
 6823DDP     C140933   6.052   9.872  22.671 -0.1250  0.0079 -0.0359
 6823DDP     P140934   5.723   9.620  22.852  0.1644 -0.0292  0.0901
 6823DDP     P240935   5.952  10.309  22.416 -0.1183 -0.3977 -0.0726
 6823DDP     C240936   5.876  10.585  22.074 -0.0625  0.3575 -0.0307
 6823DDP     C340937   5.573   9.224  22.877  0.2003  0.0193  0.1144
 6823DDP     C440938   6.351   9.671  22.504 -0.0856  0.0544  0.1069
 6824DDP     C140939   9.736   6.000   4.024 -0.0153 -0.6559  0.1412
 6824DDP     P140940  10.183   6.161   4.048 -0.0829  0.1111  0.0452
 6824DDP     P240941   9.535   5.662   3.811 -0.2124  0.0504 -0.0655
 6824DDP     C240942   9.520   5.305   3.619  0.1819 -0.0158 -0.2281
 6824DDP     C340943  10.490   6.321   4.276 -0.1102 -0.0396  0.1794
 6824DDP     C440944   9.568   6.404   4.082 -0.5635 -0.0203 -0.0698
 6825DDP     C140945  24.690   1.544   8.842  0.0619 -0.0745 -0.3318
 6825DDP     P140946  24.950   1.497   9.173  0.2764 -0.1707  0.2991
 6825DDP     P240947  24.895   1.904   8.645  0.1168  0.1139  0.1828
 6825DDP     C240948  24.973   2.377   8.595  0.0940  0.2376 -0.0309
 6825DDP     C340949  24.986   1.694   9.559 -0.0918 -0.0096 -0.1980
 6825DDP     C440950  24.374   1.470   8.923  0.0448 -0.2043  0.0618
 6826DDP     C140951  16.339  12.350  26.908 -0.3105 -0.2568 -0.1843
 6826DDP     P140952  15.872  12.389  26.873 -0.1376  0.0628  0.0824
 6826DDP     P240953  16.719  12.319  27.180  0.1035 -0.0338 -0.3191
 6826DDP     C240954  17.051  12.229  27.215 -0.3283  0.1635  0.2806
 6826DDP     C340955  15.405  12.199  27.076  0.0361  0.1518 -0.1969
 6826DDP     C440956  16.445  12.607  26.643 -0.3316  0.2825  0.0963
 6827DDP     C140957   9.158  19.878  17.047 -0.0232  0.1542  0.0018
 6827DDP     P140958   9.004  19.583  16.767 -0.2525 -0.0302 -0.1062
 6827DDP     P240959   9.114  19.677  17.403  0.1918  0.0325 -0.1511
 6827DDP     C240960   9.091  19.433  17.665 -0.1097  0.0910  0.3613
 6827DDP     C340961   8.904  19.360  16.391 -0.1757 -0.0488 -0.0781
 6827DDP     C440962   9.101  20.325  17.083  0.0726  0.0845 -0.0997
 6828DDP     C140963  29.790  25.516   8.589  0.4202  0.1359 -0.0486
 6828DDP     P140964  29.844  25.838   8.949 -0.1800  0.2438  0.0985
 6828DDP     P240965  29.440  25.514   8.322 -0.2652  0.5172 -0.0414
 6828DDP     C240966  29.129  25.390   8.338 -0.1523 -0.0854  0.2749
 6828DDP     C340967  30.010  26.235   9.127  0.1682 -0.1021  0.0816
 6828DDP     C440968  30.063  25.109   8.649  0.2741  0.0406 -0.2693
 6829DDP     C140969   6.864  20.109  20.903 -0.1321  0.2300 -0.1045
 6829DDP     P140970   6.474  19.861  20.771  0.1176 -0.1939  0.0862
 6829DDP     P240971   7.116  20.489  20.767  0.2367 -0.0012 -0.1470
 6829DDP     C240972   7.407  20.809  20.774 -0.0603 -0.2257  0.0533
 6829DDP     C340973   6.157  19.528  20.695  0.1299 -0.2794 -0.1466
 6829DDP     C440974   7.139  19.946  21.279  0.0243  0.0360 -0.1955
 6830DDP     C140975  10.160   6.393   1.115  0.1744  0.0547  0.1415
 6830DDP     P140976  10.342   6.116   0.713  0.0478  0.2644 -0.2545
 6830DDP     P240977  10.474   6.271   1.326 -0.1012 -0.1742  0.1775
 6830DDP     C240978  10.620   6.098   1.739 -0.2406 -0.0867  0.2233
 6830DDP     C340979  10.357   5.659   0.776  0.2270  0.0743 -0.2475
 6830DDP     C440980   9.839   6.642   1.282  0.2251 -0.0993  0.1729
 6831DDP     C140981  18.082   0.398  22.865 -0.0098  0.3497  0.3865
 6831DDP     P140982  17.836   0.216  22.548  0.1826 -0.1376 -0.1407
 6831DDP     P240983  18.235   0.900  22.851 -0.0556  0.1672 -0.0394
 6831DDP     C240984  18.596   1.170  22.730 -0.1049  0.1722  0.0438
 6831DDP     C340985  17.544   0.316  22.234  0.1782  0.1871  0.1849
 6831DDP     C440986  18.481   0.069  23.025 -0.0280  0.0230  0.1046
 6832DDP     C140987  23.880  20.402  19.779 -0.3616  0.1283  0.2041
 6832DDP     P140988  24.182  20.230  19.515 -0.1595 -0.4238 -0.0606
 6832DDP     P240989  23.690  20.841  19.729  0.2486  0.0042  0.0348
 6832DDP     C240990  23.740  21.257  19.828 -0.0368  0.3265  0.0621
 6832DDP     C340991  24.302  19.793  19.366 -0.2247 -0.1042  0.1716
 6832DDP     C440992  23.914  20.203  20.177 -0.0732 -0.0886 -0.4844
 6833DDP     C140993  27.640  14.550   1.956 -0.1841 -0.0889 -0.0791
 6833DDP     P140994  27.541  14.820   2.270  0.2068 -0.4187  0.0043
 6833DDP     P240995  27.349  14.706   1.534 -0.0941 -0.1514  0.0348
 6833DDP     C240996  27.058  14.581   1.152  0.1345  0.0474  0.1731
 6833DDP     C340997  27.633  15.222   2.351 -0.0750 -0.2464 -0.0910
 6833DDP     C440998  27.868  14.156   2.030  0.0992  0.0308  0.0301
 6834DDP     C140999  14.466  28.014  26.587  0.1103 -0.1251 -0.2869
 6834DDP     P141000  14.455  27.785  26.258 -0.1388 -0.1302  0.1236
 6834DDP     P241001  14.272  28.021  26.899 -0.0529 -0.0202  0.1436
 6834DDP     C241002  14.002  28.115  27.164  0.0449  0.1258  0.2455
 6834DDP     C341003  14.815  27.728  26.050 -0.2163  0.5663 -0.1790
 6834DDP     C441004  14.886  28.066  26.745  0.0286  0.2252 -0.0998
 6835DDP     C141005  18.570   1.579  30.089  0.0926  0.1791  0.1197
 6835DDP     P141006  19.012   1.509  30.219 -0.3669  0.0496  0.0544
 6835DDP     P241007  18.052   1.473  30.176  0.4608 -0.1716 -0.0866
 6835DDP     C241008  17.783   1.214  30.354  0.3488  0.1989  0.0888
 6835DDP     C341009  19.565   1.483  30.114 -0.0394  0.0927 -0.1390
 6835DDP     C441010  18.464   1.769  29.612  0.2313  0.0682  0.2348
 6836DDP     C141011  11.124  16.964  14.746  0.1275  0.3504  0.3620
 6836DDP     P141012  11.299  17.325  14.757  0.6760  0.0157 -0.2819
 6836DDP     P241013  11.359  16.562  14.864 -0.1759 -0.0277 -0.0561
 6836DDP     C241014  11.836  16.524  14.963  0.0636  0.0035  0.0973
 6836DDP     C341015  11.250  17.679  15.061  0.0538  0.0836 -0.0463
 6836DDP     C441016  10.611  16.954  14.961 -0.0007  0.3159 -0.1109
 6837DDP     C141017  28.841   7.126  23.875  0.0809 -0.0577  0.1282
 6837DDP     P141018  28.629   6.830  23.660 -0.0768 -0.0856 -0.2132
 6837DDP     P241019  29.134   7.428  23.628 -0.0511  0.1581  0.1476
 6837DDP     C241020  29.428   7.320  23.230  0.3620  0.2532 -0.2940
 6837DDP     C341021  28.484   6.354  23.691 -0.0838 -0.1019  0.2649
 6837DDP     C441022  28.609   7.360  24.298 -0.1833  0.0267 -0.0053
 6838DDP     C141023  15.911  21.355   1.531  0.0963  0.3507  0.2149
 6838DDP     P141024  16.177  21.020   1.576 -0.0003 -0.1609  0.0467
 6838DDP     P241025  15.506  21.451   1.774  0.3234  0.3434  0.1306
 6838DDP     C241026  15.577  21.753   2.058  0.3294 -0.0513  0.1589
 6838DDP     C341027  16.537  20.842   1.301  0.1981  0.0132 -0.0981
 6838DDP     C441028  16.036  21.684   1.239  0.1856 -0.2625  0.2918
 6839DDP     C141029  11.467  25.960  27.749 -0.1658 -0.1636 -0.0697
 6839DDP     P141030  11.098  25.646  27.808  0.0909 -0.1865  0.0050
 6839DDP     P241031  11.871  25.965  27.581  0.1596 -0.0335 -0.0014
 6839DDP     C241032  12.346  25.925  27.463 -0.1720  0.2706  0.0197
 6839DDP     C341033  11.119  25.185  27.689 -0.1512 -0.1268 -0.0769
 6839DDP     C441034  11.279  26.237  28.045  0.0487  0.3579 -0.0001
 6840DDP     C141035  16.149  24.530  25.631  0.2261  0.3767 -0.1172
 6840DDP     P141036  15.835  24.676  25.988  0.0423 -0.0371 -0.0048
 6840DDP     P241037  16.556  24.668  25.686  0.2807 -0.2085  0.1058
 6840DDP     C241038  16.950  24.464  25.684  0.0640 -0.0696 -0.1367
 6840DDP     C341039  15.827  25.078  26.267 -0.4207 -0.2870 -0.3551
 6840DDP     C441040  15.882  24.320  25.337  0.2493 -0.1726  0.2902
 6841DDP     C141041   2.032  14.784  18.529  0.1313 -0.0287  0.0388
 6841DDP     P141042   2.038  14.732  18.935  0.0376 -0.3322 -0.1621
 6841DDP     P241043   2.369  14.948  18.358  0.0995 -0.3968  0.0377
 6841DDP     C241044   2.850  14.862  18.364 -0.1026  0.0968 -0.0968
 6841DDP     C341045   1.715  14.459  19.183 -0.0082 -0.0374  0.0371
 6841DDP     C441046   1.603  14.895  18.313 -0.2835  0.0098 -0.2822
 6842DDP     C141047  27.471   8.286  12.922 -0.0580 -0.0622 -0.0435
 6842DDP     P141048  27.282   7.950  12.697  0.0149  0.0298 -0.1613
 6842DDP     P241049  27.606   8.557  12.704  0.2992  0.0168  0.0492
 6842DDP     C241050  27.823   8.905  12.594 -0.0555  0.0154 -0.0948
 6842DDP     C341051  27.161   7.857  12.334  0.1898  0.2139 -0.3153
 6842DDP     C441052  27.413   8.435  13.316  0.0488 -0.0775 -0.2214
 6843DDP     C141053   1.207  13.157  10.457  0.0980  0.1709  0.0572
 6843DDP     P141054   1.144  12.814  10.677 -0.3302 -0.1752  0.2999
 6843DDP     P241055   1.438  13.403  10.650 -0.3706 -0.0451 -0.2040
 6843DDP     C241056   1.828  13.444  10.913 -0.1140  0.0968  0.0365
 6843DDP     C341057   0.804  12.598  10.700  0.1099  0.3057  0.1222
 6843DDP     C441058   1.362  13.112  10.034  0.1086  0.0911  0.0779
 6844DDP     C141059   1.105  22.279   8.475 -0.0023  0.1957  0.0453
 6844DDP     P141060   1.075  22.328   8.937 -0.2312  0.1451 -0.0863
 6844DDP     P241061   0.762  22.084   8.343  0.2297  0.1039 -0.1221
 6844DDP     C241062   0.351  22.268   8.285 -0.4276  0.0248  0.2752
 6844DDP     C341063   1.232  22.386   9.313  0.0450  0.1162 -0.1663
 6844DDP     C441064   1.449  22.442   8.340  0.2883  0.2313 -0.0845
 6845DDP     C141065  11.819  29.266  25.533 -0.1081 -0.2181  0.0246
 6845DDP     P141066  11.559  29.636  25.395  0.0134  0.0413 -0.1690
 6845DDP     P241067  12.139  29.244  25.353 -0.0696  0.1599 -0.2932
 6845DDP     C241068  12.549  29.320  25.369  0.0014 -0.0841  0.0484
 6845DDP     C341069  11.399  29.837  25.056 -0.2216 -0.4035  0.1237
 6845DDP     C441070  11.813  29.146  25.998 -0.1282 -0.2173  0.1628
 6846DDP     C141071  10.266  22.855  27.486 -0.0957  0.0056  0.1084
 6846DDP     P141072   9.995  23.014  27.209 -0.2130 -0.0222 -0.1460
 6846DDP     P241073  10.600  22.733  27.345 -0.4723  0.4102 -0.3107
 6846DDP     C241074  10.756  22.620  27.016 -0.2670  0.1381  0.0041
 6846DDP     C341075   9.861  23.232  26.863  0.0257 -0.0235  0.0201
 6846DDP     C441076  10.089  22.716  27.918  0.0096  0.4289  0.0270
 6847DDP     C141077  22.588  20.445  13.074 -0.2791 -0.0030 -0.2126
 6847DDP     P141078  23.031  20.444  13.058  0.0940 -0.1334 -0.0185
 6847DDP     P241079  22.352  20.788  12.864 -0.1567  0.1930  0.0299
 6847DDP     C241080  22.086  21.178  12.729  0.0975 -0.1323 -0.0134
 6847DDP     C341081  23.414  20.394  13.304 -0.2137  0.3507 -0.0647
 6847DDP     C441082  22.390  20.166  13.354 -0.1488 -0.1986 -0.3637
 6848DDP     C141083  28.386   0.420  11.709  0.0383 -0.3491 -0.3471
 6848DDP     P141084  28.807   0.258  11.680 -0.1627  0.0356  0.2275
 6848DDP     P241085  28.174   0.401  11.336  0.0042  0.0077  0.0375
 6848DDP     C241086  27.891   0.046  11.263 -0.1548 -0.0077 -0.0348
 6848DDP     C341087  29.049  30.222  11.446 -0.1403 -0.1883  0.0463
 6848DDP     C441088  28.313   0.608  12.071 -0.1436  0.1010 -0.2640
 6849DDP     C141089   2.307   3.838  12.808  0.0842 -0.2013 -0.2263
 6849DDP     P141090   2.425   4.207  12.474 -0.1791 -0.2301  0.0954
 6849DDP     P241091   2.732   3.753  13.034 -0.3426 -0.2753  0.1118
 6849DDP     C241092   3.077   3.967  13.242  0.0236  0.3944 -0.3268
 6849DDP     C341093   2.038   4.319  12.114 -0.1567  0.3310 -0.1126
 6849DDP     C441094   2.031   3.546  12.730  0.2112 -0.0676 -0.2629
 6850DDP     C141095  20.782  14.690  11.917  0.0097  0.1849 -0.0955
 6850DDP     P141096  20.598  15.111  11.840 -0.1392  0.0724 -0.1913
 6850DDP     P241097  20.828  14.640  11.480 -0.0731  0.2246 -0.0328
 6850DDP     C241098  20.669  14.440  11.100 -0.0587  0.3063  0.0809
 6850DDP     C341099  20.308  15.211  12.089  0.0723 -0.1925 -0.1094
 6850DDP     C441100  20.932  14.703  12.380 -0.4878 -0.0227 -0.0775
 6851DDP     C141101  23.947   7.638  13.156  0.2453 -0.0789 -0.2506
 6851DDP     P141102  23.795   8.019  12.999 -0.1199  0.3449 -0.1335
 6851DDP     P241103  24.241   7.454  13.010  0.1181  0.2419  0.0475
 6851DDP     C241104  24.611   7.446  12.857 -0.3672 -0.1633  0.0484
 6851DDP     C341105  23.609   7.950  12.586  0.0281  0.0125  0.0885
 6851DDP     C441106  23.744   7.512  13.493  0.1896  0.1838  0.2261
 6852DDP     C141107   7.379  25.640  15.435  0.0468  0.3784 -0.1176
 6852DDP     P141108   7.673  25.713  15.164  0.1552 -0.0524  0.2043
 6852DDP     P241109   7.056  25.716  15.141 -0.1573  0.1216  0.1287
 6852DDP     C241110   6.609  25.666  15.154  0.1869 -0.2884 -0.3927
 6852DDP     C341111   7.981  25.499  14.864 -0.0908 -0.3582 -0.3210
 6852DDP     C441112   7.365  25.458  15.831 -0.0830 -0.0054  0.2517
 6853DDP     C141113  12.989  17.730  25.312 -0.0850  0.3471 -0.0694
 6853DDP     P141114  13.025  17.367  25.579 -0.1211  0.2502  0.1255
 6853DDP     P241115  13.026  17.842  24.832 -0.1381 -0.2352 -0.2521
 6853DDP     C241116  12.961  17.837  24.499 -0.0659 -0.0688 -0.2245
 6853DDP     C341117  12.738  17.223  25.898 -0.0108 -0.1242  0.0213
 6853DDP     C441118  12.652  18.006  25.357 -0.1717 -0.0543 -0.4395
 6854DDP     C141119  19.821  10.665  21.689 -0.2455 -0.0329  0.0537
 6854DDP     P141120  19.814  10.960  22.072  0.2013 -0.0299  0.0465
 6854DDP     P241121  20.115  10.756  21.357  0.0441 -0.0376  0.0005
 6854DDP     C241122  20.142  10.806  20.830  0.0525  0.1772 -0.1502
 6854DDP     C341123  19.612  11.266  22.346  0.0966 -0.1165 -0.0360
 6854DDP     C441124  19.644  10.342  21.889  0.0446  0.1251 -0.3147
 6855DDP     C141125  10.974  16.302  11.205  0.2100 -0.0583 -0.3845
 6855DDP     P141126  11.103  15.901  11.331 -0.2829 -0.0295 -0.2520
 6855DDP     P241127  10.507  16.349  11.428  0.1325 -0.0490  0.1203
 6855DDP     C241128  10.120  16.243  11.308  0.2456  0.0494 -0.1703
 6855DDP     C341129  11.355  15.524  11.171  0.1645 -0.0232 -0.0343
 6855DDP     C441130  11.054  16.431  10.816 -0.0573 -0.0572  0.2957
 6856DDP     C141131  12.300  24.686   0.115  0.1371  0.4987 -0.1433
 6856DDP     P141132  12.551  24.994   0.354  0.1019  0.3076  0.0541
 6856DDP     P241133  12.282  24.287   0.175  0.1236 -0.1292 -0.1972
 6856DDP     C241134  12.488  23.854   0.207  0.1949  0.1358 -0.0321
 6856DDP     C341135  12.295  25.384   0.330  0.2946 -0.0716 -0.0135
 6856DDP     C441136  12.117  24.796  30.100  0.0064  0.3178  0.4532
 6857DDP     C141137  17.457  21.632  15.296 -0.2023 -0.0454  0.1577
 6857DDP     P141138  17.817  21.381  15.276  0.0988  0.1276 -0.2862
 6857DDP     P241139  17.485  22.047  15.009 -0.1032  0.0701 -0.0376
 6857DDP     C241140  17.428  22.416  14.893 -0.1348 -0.2063 -0.0457
 6857DDP     C341141  18.160  21.239  15.308 -0.1886 -0.1621  0.0291
 6857DDP     C441142  17.118  21.560  15.519 -0.1440 -0.2163  0.1565
 6858DDP     C141143  16.620  13.228  17.405  0.0053  0.1373 -0.1833
 6858DDP     P141144  16.229  13.204  17.203  0.2825  0.0600  0.2908
 6858DDP     P241145  16.947  13.040  17.208  0.0034  0.0650 -0.0732
 6858DDP     C241146  17.295  12.687  17.194  0.0858  0.0427  0.0515
 6858DDP     C341147  15.834  13.475  17.132  0.2916  0.2149  0.0352
 6858DDP     C441148  16.663  13.490  17.783 -0.1574 -0.1645  0.0867
 6859DDP     C141149  28.681  22.957  16.843  0.1473 -0.0204 -0.2093
 6859DDP     P141150  29.032  22.792  16.904  0.0614 -0.0900 -0.1354
 6859DDP     P241151  28.332  22.786  17.105  0.0789 -0.2271  0.0430
 6859DDP     C241152  28.045  22.916  17.623  0.0689 -0.0763  0.1503
 6859DDP     C341153  29.391  22.721  17.042  0.1254  0.1092 -0.0996
 6859DDP     C441154  28.722  23.374  16.815  0.1243 -0.0315 -0.2018
 6860DDP     C141155  16.405  24.638  15.440 -0.1408  0.2101 -0.3826
 6860DDP     P141156  16.436  24.315  15.616  0.0737 -0.0482  0.1129
 6860DDP     P241157  16.561  25.016  15.546 -0.0817 -0.0159 -0.1873
 6860DDP     C241158  16.675  25.255  15.942 -0.1181 -0.3955  0.1433
 6860DDP     C341159  16.669  24.334  16.001  0.1777  0.1220  0.0459
 6860DDP     C441160  16.257  24.503  15.006 -0.0865  0.0162 -0.2680
 6861DDP     C141161  19.697   0.453  15.412  0.0300 -0.0370 -0.1030
 6861DDP     P141162  20.155   0.553  15.272 -0.1620  0.1146 -0.4659
 6861DDP     P241163  19.335   0.497  15.064  0.0214 -0.0559  0.0717
 6861DDP     C241164  19.265   0.468  14.626 -0.1076 -0.2178  0.0478
 6861DDP     C341165  20.458   0.401  15.051 -0.3201  0.1602 -0.0992
 6861DDP     C441166  19.593   0.404  15.816  0.1893  0.1477  0.0128
 6862DDP     C141167  28.737  25.859  23.632  0.0594 -0.1919  0.3904
 6862DDP     P141168  28.520  26.027  23.407 -0.3043  0.0320  0.0178
 6862DDP     P241169  28.974  25.611  23.452  0.1606  0.1368  0.2170
 6862DDP     C241170  29.068  25.306  23.081 -0.1220 -0.0815  0.0752
 6862DDP     C341171  28.210  26.119  23.108  0.1349  0.0201  0.0048
 6862DDP     C441172  28.608  25.947  24.023  0.0035  0.0220 -0.3396
 6863DDP     C141173   0.979   8.599  26.973 -0.4113  0.0803 -0.1853
 6863DDP     P141174   0.917   8.414  26.581  0.0903 -0.1814 -0.1121
 6863DDP     P241175   1.135   8.999  26.931 -0.0837  0.1996 -0.1177
 6863DDP     C241176   0.937   9.397  27.090  0.1027 -0.3006 -0.0593
 6863DDP     C341177   1.039   8.408  26.237  0.1342 -0.2722  0.0937
 6863DDP     C441178   0.809   8.403  27.368  0.0998 -0.0159  0.2264
 6864DDP     C141179   3.669  28.883  26.155  0.0171 -0.1387 -0.1497
 6864DDP     P141180   3.727  28.413  25.946 -0.0405  0.1353 -0.1520
 6864DDP     P241181   3.498  29.325  26.003 -0.4156 -0.1834  0.1201
 6864DDP     C241182   3.183  29.519  25.801  0.3260 -0.3645 -0.0589
 6864DDP     C341183   3.625  28.259  25.483 -0.0060  0.3414 -0.0879
 6864DDP     C441184   4.086  29.024  26.477 -0.0925  0.0153  0.2338
 6865DDP     C141185   4.052  14.421   2.316 -0.2381  0.1678 -0.1848
 6865DDP     P141186   3.954  13.934   2.551 -0.3097  0.0149  0.0005
 6865DDP     P241187   4.005  14.844   2.373  0.1152  0.1199 -0.1361
 6865DDP     C241188   3.959  15.300   2.506 -0.0542  0.3565  0.0540
 6865DDP     C341189   3.710  13.789   2.868 -0.2963  0.3019 -0.1794
 6865DDP     C441190   4.184  14.346   1.865 -0.0488 -0.1579  0.3102
 6866DDP     C141191  22.289  29.456  20.509  0.2657  0.1129  0.0716
 6866DDP     P141192  22.269  29.881  20.647  0.1558 -0.1244 -0.0277
 6866DDP     P241193  22.631  29.457  20.239  0.1293 -0.1274  0.0181
 6866DDP     C241194  23.146  29.377  20.312  0.0339  0.0826  0.2425
 6866DDP     C341195  22.344  30.107  21.069  0.1099  0.2170 -0.0885
 6866DDP     C441196  22.083  29.150  20.314  0.1865 -0.0747  0.0431
 6867DDP     C141197   6.795  10.113  29.001  0.2177 -0.1459  0.2436
 6867DDP     P141198   6.422   9.830  29.274  0.3383  0.0355 -0.1796
 6867DDP     P241199   7.266  10.046  29.109 -0.2147 -0.1226  0.0178
 6867DDP     C241200   7.668   9.802  29.298 -0.1773  0.2364 -0.2499
 6867DDP     C341201   6.152   9.542  29.529  0.1526  0.0495  0.0282
 6867DDP     C441202   6.666  10.464  28.724  0.1465 -0.3693 -0.0346
 6868DDP     C141203   7.707  28.363  15.253 -0.2088  0.0481 -0.1411
 6868DDP     P141204   7.621  28.471  15.687  0.3434 -0.0520  0.0014
 6868DDP     P241205   7.591  28.080  14.863 -0.3170 -0.0264  0.0098
 6868DDP     C241206   7.145  28.264  14.894 -0.1182  0.2069  0.0965
 6868DDP     C341207   7.384  28.295  16.062  0.1527 -0.0472 -0.1503
 6868DDP     C441208   7.811  28.733  15.089 -0.0960  0.3104 -0.2724
 6869DDP     C141209  13.769  25.709  29.339 -0.0897  0.0807  0.0504
 6869DDP     P141210  13.445  25.776  29.136  0.0187  0.0324  0.3119
 6869DDP     P241211  13.899  25.778  29.836  0.0661  0.0477  0.0986
 6869DDP     C241212  14.231  26.036  30.020 -0.1808  0.0239 -0.3057
 6869DDP     C341213  13.093  25.459  29.275  0.1650 -0.0242 -0.1628
 6869DDP     C441214  14.075  25.506  28.984 -0.2667 -0.2008  0.0049
 6870DDP     C141215  26.001   6.706  12.543  0.2304 -0.0422  0.1050
 6870DDP     P141216  25.563   6.607  12.693  0.0833  0.0214  0.0376
 6870DDP     P241217  26.151   7.131  12.438 -0.0059  0.0331 -0.1355
 6870DDP     C241218  26.263   7.558  12.242  0.1419  0.0311  0.3260
 6870DDP     C341219  25.309   6.264  12.808 -0.0332  0.0166 -0.0307
 6870DDP     C441220  26.012   6.373  12.443 -0.1983 -0.0758 -0.1019
 6871DDP     C141221  21.544   4.408  19.515  0.0034  0.0006 -0.1513
 6871DDP     P141222  21.132   4.402  19.532 -0.0513  0.1193  0.0768
 6871DDP     P241223  21.737   4.055  19.262  0.0490  0.1248  0.1906
 6871DDP     C241224  21.551   3.701  18.997 -0.2137  0.3506 -0.0666
 6871DDP     C341225  20.744   4.493  19.729 -0.1629 -0.0231 -0.0001
 6871DDP     C441226  21.776   4.528  19.873  0.0736 -0.0437  0.0110
 6872DDP     C141227  29.747  11.611  22.222 -0.1072  0.0981 -0.0082
 6872DDP     P141228  29.846  11.403  21.818  0.1952  0.0683  0.0065
 6872DDP     P241229  29.816  12.083  22.312  0.2072  0.0661  0.1638
 6872DDP     C241230  30.101  12.276  22.622  0.0917  0.0952 -0.0203
 6872DDP     C341231  29.543  11.178  21.560 -0.0407 -0.2212 -0.0032
 6872DDP     C441232  29.400  11.442  22.383  0.0194 -0.1008 -0.2824
 6873DDP     C141233  11.493  26.948  11.492  0.0661  0.0145 -0.1348
 6873DDP     P141234  11.113  27.269  11.449  0.0058 -0.2062 -0.0184
 6873DDP     P241235  11.719  26.817  11.165 -0.2658  0.1450  0.2084
 6873DDP     C241236  11.596  26.757  10.785 -0.0758 -0.1841  0.2519
 6873DDP     C341237  10.714  27.444  11.380 -0.1025 -0.2471  0.0807
 6873DDP     C441238  11.484  26.741  11.860 -0.1369 -0.2002 -0.1260
 6874DDP     C141239  27.047   8.761  12.386  0.0036  0.0968  0.1519
 6874DDP     P141240  26.776   8.837  12.682  0.0887  0.0959  0.3068
 6874DDP     P241241  27.296   8.448  12.334 -0.1849 -0.0119 -0.1221
 6874DDP     C241242  27.802   8.572  12.219 -0.1094 -0.1031 -0.0694
 6874DDP     C341243  26.537   8.975  12.902  0.0226  0.0502 -0.1865
 6874DDP     C441244  27.358   8.992  12.441  0.1982 -0.0187 -0.0423
 6875DDP     C141245  15.446  20.931  22.792  0.0447 -0.3292  0.1920
 6875DDP     P141246  15.168  20.866  22.504 -0.4639 -0.0654  0.2081
 6875DDP     P241247  15.564  20.607  23.056  0.2599  0.0813 -0.1162
 6875DDP     C241248  15.497  20.126  23.063 -0.2278 -0.1032  0.3016
 6875DDP     C341249  14.818  20.901  22.235 -0.1781  0.0740 -0.2531
 6875DDP     C441250  15.537  21.271  23.099 -0.0929 -0.1109 -0.1063
 6876DDP     C141251   2.195  28.529  13.032  0.3158  0.0602  0.2420
 6876DDP     P141252   1.876  28.933  12.994  0.1630  0.0348  0.1131
 6876DDP     P241253   2.339  28.582  13.423 -0.0527  0.1753  0.1929
 6876DDP     C241254   2.636  28.485  13.766  0.0915 -0.0566 -0.1722
 6876DDP     C341255   1.957  29.260  13.247  0.3274 -0.1469  0.1005
 6876DDP     C441256   2.195  28.239  12.669 -0.0749 -0.0077 -0.0001
 6877DDP     C141257  22.300  18.707   6.416 -0.0182 -0.0265  0.3555
 6877DDP     P141258  22.528  18.815   6.866 -0.0386  0.0626  0.1733
 6877DDP     P241259  21.860  18.686   6.483 -0.1788 -0.0142  0.1400
 6877DDP     C241260  21.675  18.311   6.588 -0.1066 -0.0416 -0.0262
 6877DDP     C341261  22.637  18.965   7.312 -0.1890 -0.0800  0.0591
 6877DDP     C441262  22.492  18.643   6.065 -0.3366  0.0127 -0.0409
 6878DDP     C141263  12.498  20.151  17.372  0.3414 -0.0332  0.1513
 6878DDP     P141264  12.450  19.671  17.492 -0.3059  0.0079 -0.1709
 6878DDP     P241265  12.094  20.168  17.492 -0.3237  0.0300 -0.0979
 6878DDP     C241266  11.826  20.086  17.751  0.0205  0.0465 -0.1173
 6878DDP     C341267  12.100  19.352  17.629  0.5198  0.1770  0.1701
 6878DDP     C441268  12.922  20.403  17.202 -0.0204 -0.1530  0.2099
 6879DDP     C141269   9.264  17.197  27.709 -0.1007  0.2411  0.2465
 6879DDP     P141270   9.186  17.566  27.601 -0.2267 -0.0232 -0.1387
 6879DDP     P241271   9.373  17.070  28.125  0.0593 -0.1714 -0.0289
 6879DDP     C241272   9.724  16.897  28.390 -0.2014  0.0340  0.2254
 6879DDP     C341273   9.167  17.735  27.172  0.0286 -0.0815  0.0368
 6879DDP     C441274   9.296  16.858  27.326  0.3702  0.0457 -0.1863
 6880DDP     C141275  24.645  12.896   3.567 -0.1141 -0.3704 -0.1785
 6880DDP     P141276  24.667  12.672   3.137  0.2575 -0.0112 -0.2845
 6880DDP     P241277  25.034  13.181   3.643  0.0630  0.2980 -0.1622
 6880DDP     C241278  25.137  13.444   4.076  0.0793  0.0821  0.1419
 6880DDP     C341279  24.734  12.851   2.770  0.1877 -0.0434 -0.2877
 6880DDP     C441280  24.646  12.651   3.982  0.1577  0.0865  0.1093
 6881DDP     C141281  27.231   2.896   9.472  0.0278 -0.0345 -0.1229
 6881DDP     P141282  27.219   3.020   9.073 -0.2858 -0.0641 -0.0810
 6881DDP     P241283  27.578   2.580   9.498  0.2932 -0.0865 -0.2122
 6881DDP     C241284  27.896   2.328   9.253 -0.1668  0.0669 -0.0004
 6881DDP     C341285  27.360   2.833   8.543 -0.2848  0.1644  0.1809
 6881DDP     C441286  26.948   3.184   9.818  0.0354 -0.0524 -0.1550
 6882DDP     C141287  25.941   2.693   0.338 -0.2719  0.1155 -0.3976
 6882DDP     P141288  25.631   2.921   0.343  0.1906  0.0221  0.0693
 6882DDP     P241289  25.925   2.382   0.055 -0.1398  0.1603  0.0399
 6882DDP     C241290  25.584   2.184  30.113 -0.0457 -0.0299 -0.1247
 6882DDP     C341291  25.383   3.074   0.570 -0.0185 -0.0858  0.0138
 6882DDP     C441292  26.258   2.791   0.593 -0.0200  0.0845 -0.1619
 6883DDP     C141293  11.113  17.718  24.823  0.2258  0.1408  0.5142
 6883DDP     P141294  10.928  18.089  25.032  0.1032  0.1561 -0.1859
 6883DDP     P241295  10.897  17.495  25.021  0.0875  0.1770  0.1107
 6883DDP     C241296  10.740  17.081  24.987 -0.0456  0.1124  0.3094
 6883DDP     C341297  10.933  18.255  25.487 -0.1910 -0.0091  0.3818
 6883DDP     C441298  11.415  17.576  24.519 -0.1626 -0.0879  0.0879
 6884DDP     C141299  22.077   3.381   4.780  0.1656 -0.1514  0.0912
 6884DDP     P141300  22.041   3.841   4.760  0.0152  0.2146  0.0267
 6884DDP     P241301  21.863   3.268   4.413  0.2120 -0.1700 -0.1918
 6884DDP     C241302  21.768   3.280   3.952 -0.2258  0.2301  0.0913
 6884DDP     C341303  21.642   4.083   4.965 -0.3668  0.1616  0.1136
 6884DDP     C441304  22.198   3.156   5.037 -0.0403  0.0535  0.0665
 6885DDP     C141305  11.054  10.152  19.928 -0.0912  0.2602 -0.1599
 6885DDP     P141306  11.266   9.802  19.945 -0.0475 -0.0630 -0.0211
 6885DDP     P241307  11.052  10.338  19.565 -0.0810 -0.0494  0.1716
 6885DDP     C241308  10.860  10.687  19.311  0.0179  0.0324  0.1218
 6885DDP     C341309  11.139   9.514  20.124 -0.0339  0.0012  0.1893
 6885DDP     C441310  11.167  10.422  20.307  0.0197  0.0942  0.1326
 6886DDP     C141311  10.412  10.495  18.569 -0.0864 -0.0079  0.0154
 6886DDP     P141312  10.536  10.740  18.808 -0.1734 -0.1122 -0.0032
 6886DDP     P241313   9.993  10.334  18.629 -0.4537 -0.0181 -0.1013
 6886DDP     C241314   9.796  10.009  18.288 -0.0868  0.1576 -0.1559
 6886DDP     C341315  10.682  11.208  19.044  0.4133 -0.0530 -0.2904
 6886DDP     C441316  10.595  10.477  18.153 -0.1864  0.1055  0.0223
 6887DDP     C141317  12.992  18.036  27.378  0.1854  0.0469 -0.3007
 6887DDP     P141318  13.038  18.432  27.618 -0.1594  0.0400  0.1163
 6887DDP     P241319  12.534  17.874  27.402  0.0068 -0.1101  0.1086
 6887DDP     C241320  12.152  18.130  27.400 -0.0901 -0.1894  0.0978
 6887DDP     C341321  13.189  18.842  27.661 -0.0412 -0.0240 -0.2608
 6887DDP     C441322  13.344  18.028  27.025 -0.0933  0.2637 -0.1796
 6888DDP     C141323   2.571  12.568  27.433 -0.1157 -0.0777 -0.0463
 6888DDP     P141324   2.093  12.498  27.238 -0.2694  0.1107  0.2567
 6888DDP     P241325   2.573  12.736  27.884  0.0573  0.2581  0.1745
 6888DDP     C241326   2.300  12.675  28.260 -0.1657 -0.0926 -0.0879
 6888DDP     C341327   1.816  12.205  26.996  0.1487  0.1647  0.3218
 6888DDP     C441328   2.907  12.313  27.280 -0.1376  0.3401  0.1186
 6889DDP     C141329   9.346  24.970   1.920 -0.2272  0.0382 -0.0288
 6889DDP     P141330   9.422  24.950   1.477  0.3068 -0.0698  0.0342
 6889DDP     P241331   9.679  25.291   1.957 -0.2139 -0.3183  0.0682
 6889DDP     C241332  10.115  25.473   1.978  0.0406 -0.0925  0.1407
 6889DDP     C341333   9.306  25.034   1.014 -0.1541 -0.0559  0.1759
 6889DDP     C441334   9.055  24.831   2.156 -0.3788 -0.0490  0.0317
 6890DDP     C141335   4.181   9.269  13.367  0.0283  0.0725  0.1556
 6890DDP     P141336   3.757   9.193  13.308 -0.0303 -0.1610  0.1041
 6890DDP     P241337   4.223   9.642  13.631 -0.1979  0.0959 -0.0581
 6890DDP     C241338   4.386   9.980  13.740  0.0589  0.1840  0.0571
 6890DDP     C341339   3.408   9.514  13.198  0.2076  0.1199  0.0309
 6890DDP     C441340   4.533   9.053  13.225 -0.0040  0.1200  0.0469
 6891DDP     C141341  23.071  27.528  28.720 -0.1832  0.0259  0.1347
 6891DDP     P141342  22.871  27.714  28.324  0.3206 -0.2910  0.2014
 6891DDP     P241343  22.910  27.201  29.003  0.0835  0.2229 -0.2506
 6891DDP     C241344  22.621  26.811  28.977  0.2778 -0.0346  0.2175
 6891DDP     C341345  22.855  27.643  27.806 -0.0982  0.1517 -0.0023
 6891DDP     C441346  23.419  27.766  28.884 -0.0049 -0.0869 -0.0130
 6892DDP     C141347   1.746  28.721  24.842  0.0029 -0.0922 -0.0639
 6892DDP     P141348   1.442  28.574  24.998 -0.1144 -0.2383  0.2960
 6892DDP     P241349   2.117  28.485  24.692  0.0059  0.0030  0.0484
 6892DDP     C241350   2.373  28.189  24.564  0.1279 -0.0232  0.0290
 6892DDP     C341351   1.346  28.106  25.045  0.1249 -0.0127 -0.0768
 6892DDP     C441352   1.775  29.138  24.822  0.2321 -0.0216  0.1055
 6893DDP     C141353  25.044  13.946  29.804  0.1065 -0.2528 -0.0885
 6893DDP     P141354  24.719  14.337  29.915  0.2199  0.3614 -0.1804
 6893DDP     P241355  24.966  13.575  29.880 -0.0929 -0.0352  0.0139
 6893DDP     C241356  24.631  13.161  30.021  0.0476  0.0420  0.1455
 6893DDP     C341357  24.521  14.765  29.797 -0.0007  0.0583  0.2319
 6893DDP     C441358  25.178  14.180  29.443 -0.0942 -0.0828 -0.0006
 6894DDP     C141359  27.921   6.322   6.981 -0.2319 -0.1175  0.2419
 6894DDP     P141360  28.239   6.156   6.921  0.3127  0.0074  0.0233
 6894DDP     P241361  27.663   6.264   6.667 -0.0013  0.1970 -0.0160
 6894DDP     C241362  27.261   6.349   6.462  0.0095 -0.0384  0.3116
 6894DDP     C341363  28.523   6.189   6.697 -0.3601  0.2978  0.0022
 6894DDP     C441364  27.866   6.666   7.229 -0.1144 -0.1510 -0.0765
 6895DDP     C141365   7.570   4.202  22.501 -0.0241  0.2178  0.0724
 6895DDP     P141366   7.890   4.461  22.669  0.1542  0.1972 -0.2661
 6895DDP     P241367   7.204   4.536  22.396  0.2562  0.0853  0.4851
 6895DDP     C241368   6.901   4.621  22.585  0.4039 -0.0279  0.0486
 6895DDP     C341369   8.238   4.697  22.689  0.1924  0.1007 -0.0523
 6895DDP     C441370   7.610   3.815  22.596  0.4483 -0.0791 -0.0319
 6896DDP     C141371  26.911   6.258  29.098  0.1083 -0.1915  0.2769
 6896DDP     P141372  26.730   6.428  29.384  0.0211 -0.2498  0.0961
 6896DDP     P241373  27.186   6.143  29.318 -0.0466  0.0660 -0.0040
 6896DDP     C241374  27.234   6.404  29.774 -0.0566 -0.3128 -0.1956
 6896DDP     C341375  26.437   6.505  29.595 -0.0082 -0.0486  0.1462
 6896DDP     C441376  26.699   6.158  28.706 -0.1076  0.1115  0.2905
 6897DDP     C141377   7.988   2.494  14.906  0.3123 -0.2834 -0.1236
 6897DDP     P141378   8.286   2.113  14.778  0.4111  0.1900 -0.1289
 6897DDP     P241379   8.365   2.497  15.256  0.2179 -0.1571 -0.0371
 6897DDP     C241380   8.484   2.746  15.644  0.1800  0.1327 -0.0979
 6897DDP     C341381   8.255   1.756  14.542  0.0358 -0.1529 -0.0721
 6897DDP     C441382   7.824   2.746  14.585 -0.1446 -0.2268 -0.2322
 6898DDP     C141383   1.464   4.590  29.511  0.2534  0.5659  0.1429
 6898DDP     P141384   1.788   4.308  29.461 -0.0524 -0.0015  0.4936
 6898DDP     P241385   1.073   4.362  29.780  0.2244 -0.0443 -0.1235
 6898DDP     C241386   0.704   4.226  29.981 -0.1266  0.2038 -0.0345
 6898DDP     C341387   2.108   3.919  29.494 -0.0707  0.0263 -0.0920
 6898DDP     C441388   1.514   4.767  29.093 -0.1208  0.1154  0.1556
 6899DDP     C141389  17.611  23.524   6.004 -0.3065 -0.1558 -0.0605
 6899DDP     P141390  17.968  23.221   6.033  0.3777 -0.0546  0.0470
 6899DDP     P241391  17.372  23.500   5.715  0.1858 -0.1332  0.1342
 6899DDP     C241392  17.232  23.334   5.316  0.2274 -0.2352 -0.0833
 6899DDP     C341393  18.105  22.765   6.236  0.0034 -0.3672  0.1213
 6899DDP     C441394  17.548  23.631   6.379  0.3239  0.1167  0.0086
 6900DDP     C141395   5.307   8.291  21.600 -0.0377 -0.2085  0.1798
 6900DDP     P141396   5.134   8.222  21.951 -0.1198  0.2672 -0.2565
 6900DDP     P241397   5.491   7.953  21.311  0.0471 -0.2317  0.0662
 6900DDP     C241398   5.812   7.721  21.029 -0.0472  0.3325  0.0355
 6900DDP     C341399   5.056   8.421  22.344  0.3099 -0.0994  0.0741
 6900DDP     C441400   5.355   8.828  21.523 -0.0245  0.1916  0.1949
 6901DDP     C141401  19.078  26.629  27.436 -0.0864  0.0032 -0.1482
 6901DDP     P141402  19.489  26.776  27.562  0.2553  0.0027  0.0350
 6901DDP     P241403  18.932  26.320  27.173  0.0981  0.1099  0.0319
 6901DDP     C241404  18.972  26.162  26.619  0.2265 -0.2475  0.1102
 6901DDP     C341405  19.939  26.602  27.537 -0.0851  0.1706 -0.0662
 6901DDP     C441406  18.748  26.924  27.686 -0.3370 -0.1878  0.1462
 6902DDP     C141407   0.328  16.259  14.955 -0.3789  0.2283 -0.1881
 6902DDP     P141408   0.529  16.696  14.937 -0.1393 -0.2655  0.2099
 6902DDP     P241409   0.207  15.993  14.549  0.0786  0.3230  0.2470
 6902DDP     C241410  30.341  15.534  14.597  0.1827  0.1038  0.3258
 6902DDP     C341411   0.884  16.763  14.879  0.3324  0.2285 -0.0299
 6902DDP     C441412   0.212  16.357  15.347 -0.0812 -0.2320  0.1779
 6903DDP     C141413   4.851  25.532  20.814 -0.2169  0.1414 -0.0354
 6903DDP     P141414   4.433  25.289  20.800 -0.0476  0.1776  0.0833
 6903DDP     P241415   4.907  25.942  20.739 -0.1442 -0.5297 -0.2916
 6903DDP     C241416   5.082  26.299  20.913 -0.1845  0.0248 -0.0846
 6903DDP     C341417   3.995  25.152  20.877 -0.0381 -0.2006  0.0665
 6903DDP     C441418   5.210  25.216  20.779  0.2970 -0.1300  0.1991
 6904DDP     C141419  19.823  11.110   2.464  0.0786 -0.1452  0.1884
 6904DDP     P141420  19.378  11.171   2.370  0.0720 -0.0114 -0.1342
 6904DDP     P241421  19.969  11.079   2.856 -0.4850 -0.0318  0.0032
 6904DDP     C241422  20.350  11.183   2.979  0.1600  0.0848  0.1488
 6904DDP     C341423  18.944  11.206   2.093  0.0031  0.2619 -0.1711
 6904DDP     C441424  20.128  11.301   2.162  0.0793 -0.1038 -0.1338
 6905DDP     C141425  26.567  15.305  20.797 -0.2381  0.2250  0.0249
 6905DDP     P141426  26.537  14.875  20.683 -0.1840  0.1045 -0.1640
 6905DDP     P241427  26.884  15.454  21.011 -0.5727  0.2724  0.0845
 6905DDP     C241428  27.260  15.558  20.759  0.0775 -0.0639  0.0150
 6905DDP     C341429  26.848  14.623  20.990 -0.1786 -0.0540  0.1338
 6905DDP     C441430  26.359  15.526  20.376  0.2176  0.2639 -0.2247
 6906DDP     C141431   1.370  16.740  26.191 -0.2445 -0.0614 -0.0078
 6906DDP     P141432   1.564  16.432  26.236 -0.1080  0.2170 -0.3326
 6906DDP     P241433   1.039  16.765  25.929 -0.2182  0.0604  0.1678
 6906DDP     C241434   0.654  16.577  25.930 -0.0947 -0.1077  0.0308
 6906DDP     C341435   1.857  16.242  26.147 -0.2243 -0.0656 -0.1063
 6906DDP     C441436   1.519  16.915  26.534 -0.0352  0.0128  0.4999
 6907DDP     C141437  16.990  17.428   5.463  0.0867  0.0627 -0.3017
 6907DDP     P141438  17.405  17.542   5.612  0.1118 -0.0550  0.0948
 6907DDP     P241439  16.780  17.191   5.853 -0.0269  0.3604  0.2225
 6907DDP     C241440  16.448  16.954   6.075  0.0127  0.2696 -0.2651
 6907DDP     C341441  17.626  17.572   5.996  0.4783 -0.3005 -0.2415
 6907DDP     C441442  16.717  17.754   5.200 -0.1077 -0.1796  0.1633
 6908DDP     C141443  28.040  11.786  26.474 -0.0182  0.1065  0.0518
 6908DDP     P141444  28.129  11.611  26.856  0.0258  0.0607  0.3659
 6908DDP     P241445  28.022  11.499  26.071  0.1283  0.0203 -0.1624
 6908DDP     C241446  28.134  11.393  25.659  0.1397 -0.1470  0.1742
 6908DDP     C341447  28.064  11.221  27.074  0.0996 -0.0181  0.1049
 6908DDP     C441448  28.005  12.219  26.364 -0.0859 -0.1135 -0.0278
 6909DDP     C141449  26.139  13.017   6.200 -0.2808  0.2918  0.0383
 6909DDP     P141450  25.889  13.322   6.025  0.0351 -0.5359 -0.1272
 6909DDP     P241451  26.235  12.617   6.020  0.1877  0.1099 -0.0777
 6909DDP     C241452  26.540  12.295   6.108  0.0801  0.1677 -0.0652
 6909DDP     C341453  25.759  13.479   5.678 -0.3948 -0.0049  0.2432
 6909DDP     C441454  26.330  13.167   6.563 -0.3376  0.0158 -0.1686
 6910DDP     C141455  30.097  10.536  19.610 -0.1599  0.1448 -0.2495
 6910DDP     P141456  29.740  10.366  19.539  0.1535 -0.0421  0.2209
 6910DDP     P241457  30.190  10.680  19.983 -0.0094  0.0806  0.1964
 6910DDP     C241458   0.146  10.527  20.330  0.3458 -0.1576  0.0593
 6910DDP     C341459  29.442  10.004  19.653  0.1532 -0.0447 -0.1770
 6910DDP     C441460   0.019  10.675  19.164 -0.1499 -0.0677 -0.5351
 6911DDP     C141461  14.392   1.687   0.160 -0.0186 -0.0413 -0.1031
 6911DDP     P141462  14.687   1.486  30.260  0.2125  0.0212  0.0518
 6911DDP     P241463  14.364   1.320   0.434 -0.1851  0.0635  0.0388
 6911DDP     C241464  14.502   0.931   0.647  0.2738  0.0169  0.2700
 6911DDP     C341465  14.813   1.608  29.855  0.0383 -0.1315 -0.0942
 6911DDP     C441466  14.080   1.992   0.292 -0.0769 -0.1575  0.1309
 6912DDP     C141467  23.206   7.093  10.891  0.0009 -0.0835 -0.0426
 6912DDP     P141468  23.523   6.958  11.153  0.0461 -0.3263  0.3560
 6912DDP     P241469  23.140   6.944  10.474  0.2039  0.0704 -0.0976
 6912DDP     C241470  22.946   6.838  10.074  0.0358  0.0700  0.3856
 6912DDP     C341471  23.589   6.871  11.599  0.0650  0.1140 -0.0436
 6912DDP     C441472  22.888   7.334  10.984  0.2102  0.0013 -0.0249
 6913DDP     C141473   0.590  25.744   6.450  0.0372 -0.0301 -0.2334
 6913DDP     P141474   0.687  25.961   6.180  0.0140  0.0567  0.3768
 6913DDP     P241475   0.236  25.942   6.534 -0.1116  0.0396  0.0607
 6913DDP     C241476   0.006  26.380   6.420 -0.2602  0.0895 -0.1082
 6913DDP     C341477   0.823  26.398   6.276  0.3867  0.0392 -0.4289
 6913DDP     C441478   0.714  25.352   6.708  0.1386  0.1936  0.0446
 6914DDP     C141479  21.732   5.334  19.982 -0.0729  0.1405  0.0120
 6914DDP     P141480  21.587   5.755  19.899  0.0452 -0.0929  0.4016
 6914DDP     P241481  21.769   5.368  20.433 -0.2138  0.3380  0.1498
 6914DDP     C241482  21.805   5.343  20.841 -0.1812 -0.3705  0.0776
 6914DDP     C341483  21.680   6.174  19.961  0.2922 -0.0325 -0.1951
 6914DDP     C441484  21.678   5.047  19.751 -0.0242 -0.3011 -0.0193
 6915DDP     C141485  25.694  12.681  18.100 -0.1386  0.0493 -0.0368
 6915DDP     P141486  26.131  12.563  18.182 -0.2769 -0.2390 -0.1276
 6915DDP     P241487  25.722  13.118  18.149 -0.0272  0.0461  0.0824
 6915DDP     C241488  25.695  13.590  18.232  0.0966  0.1638  0.1107
 6915DDP     C341489  26.282  12.055  18.253 -0.1455  0.3101  0.1666
 6915DDP     C441490  25.472  12.493  17.757  0.2106  0.0395  0.1853
 6916DDP     C141491  28.888  12.892  12.193  0.3731 -0.0989 -0.0898
 6916DDP     P141492  29.068  12.493  12.255  0.2282 -0.0279 -0.1012
 6916DDP     P241493  29.152  13.085  11.815  0.2314 -0.1784 -0.0908
 6916DDP     C241494  29.509  12.863  11.538  0.1271  0.0282 -0.4433
 6916DDP     C341495  29.473  12.359  12.460 -0.1202 -0.0328 -0.1293
 6916DDP     C441496  28.716  13.102  12.356  0.0555  0.2024 -0.2534
 6917DDP     C141497  25.510  10.619  19.548  0.1393 -0.2074 -0.3433
 6917DDP     P141498  25.049  10.650  19.726  0.2412 -0.0613 -0.1630
 6917DDP     P241499  25.642  11.026  19.472 -0.0168 -0.1960 -0.0093
 6917DDP     C241500  25.711  11.404  19.537  0.0214  0.3060 -0.3053
 6917DDP     C341501  24.664  10.784  19.497  0.0757  0.1904  0.0845
 6917DDP     C441502  25.856  10.335  19.627 -0.1618  0.0492 -0.4168
 6918DDP     C141503  24.035  29.533  24.967 -0.0308  0.1035  0.2788
 6918DDP     P141504  24.202  29.813  24.613  0.0531 -0.0224  0.3075
 6918DDP     P241505  23.990  29.063  24.998  0.1950  0.1860 -0.2167
 6918DDP     C241506  24.156  28.551  24.992  0.0300  0.2735  0.0254
 6918DDP     C341507  24.519  29.851  24.358 -0.2354 -0.0369 -0.1319
 6918DDP     C441508  23.949  29.787  25.270 -0.1587  0.1027 -0.1462
 6919DDP     C141509  12.282  21.870  26.062 -0.0240 -0.1558 -0.2585
 6919DDP     P141510  12.196  21.530  26.296 -0.0705  0.1214 -0.0669
 6919DDP     P241511  11.928  22.210  26.133  0.0700 -0.1823 -0.2281
 6919DDP     C241512  11.547  22.282  26.444 -0.2571 -0.1170  0.0028
 6919DDP     C341513  12.167  21.191  26.608  0.1002 -0.1013  0.1194
 6919DDP     C441514  12.748  21.983  26.056  0.3854  0.0659  0.2948
 6920DDP     C141515  24.346   4.444  17.894 -0.0804  0.0934 -0.1370
 6920DDP     P141516  24.584   4.364  17.626  0.2476 -0.3245 -0.2509
 6920DDP     P241517  23.925   4.363  17.905  0.1546  0.3890  0.0764
 6920DDP     C241518  23.574   4.104  17.804 -0.0687  0.3852 -0.0465
 6920DDP     C341519  24.893   4.025  17.614 -0.1183  0.0726 -0.1874
 6920DDP     C441520  24.501   4.481  18.324 -0.4364  0.3222 -0.0197
 6921DDP     C141521   6.564  18.514   0.697  0.3516 -0.0541  0.0806
 6921DDP     P141522   6.289  18.228   0.603 -0.1566  0.0924 -0.2173
 6921DDP     P241523   6.945  18.506   0.655 -0.1067 -0.1235  0.1734
 6921DDP     C241524   7.374  18.705   0.435  0.3540 -0.1404 -0.0516
 6921DDP     C341525   6.392  17.884   0.448 -0.1090 -0.1387 -0.4795
 6921DDP     C441526   6.338  18.917   0.780 -0.1371  0.0503  0.1626
 6922DDP     C141527   1.326  10.844  24.427  0.2153  0.1325 -0.3446
 6922DDP     P141528   1.359  10.929  24.866  0.1579 -0.0971 -0.0158
 6922DDP     P241529   1.746  10.825  24.175  0.2219 -0.1394  0.0466
 6922DDP     C241530   2.026  10.460  24.219 -0.0132  0.0315  0.1492
 6922DDP     C341531   1.353  11.002  25.331 -0.2896  0.1502 -0.0255
 6922DDP     C441532   0.951  10.696  24.217 -0.0670  0.1839 -0.1469
 6923DDP     C141533  11.122  24.864   8.595 -0.0852 -0.4753 -0.1523
 6923DDP     P141534  11.269  25.258   8.357 -0.1285 -0.0678 -0.3289
 6923DDP     P241535  11.523  24.729   8.675  0.0284  0.0029 -0.1610
 6923DDP     C241536  11.903  24.783   8.458  0.0229  0.1198  0.2198
 6923DDP     C341537  11.490  25.486   8.117  0.0693  0.4051 -0.0310
 6923DDP     C441538  10.782  24.750   8.841  0.0758  0.0676  0.0760
 6924DDP     C141539  20.317  19.559  21.365 -0.0883  0.0177 -0.0646
 6924DDP     P141540  19.884  19.506  21.089  0.0093 -0.0996  0.1499
 6924DDP     P241541  20.324  19.944  21.239 -0.1117 -0.0431  0.0426
 6924DDP     C241542  20.119  20.323  21.036 -0.1491 -0.1865  0.0500
 6924DDP     C341543  19.848  19.537  20.712  0.2470 -0.0362 -0.2271
 6924DDP     C441544  20.451  19.362  21.738  0.2553 -0.2634  0.2723
 6925DDP     C141545  23.293  13.375  16.239 -0.0104 -0.2165 -0.1307
 6925DDP     P141546  23.589  13.617  15.946  0.1502  0.4288  0.1454
 6925DDP     P241547  23.337  12.997  16.096  0.0122 -0.1800  0.0251
 6925DDP     C241548  23.654  12.645  15.993  0.0259 -0.0529  0.2587
 6925DDP     C341549  24.000  13.548  15.633 -0.1289 -0.0653 -0.1151
 6925DDP     C441550  23.091  13.568  16.547 -0.0329 -0.3298  0.1313
 6926DDP     C141551  24.033  17.726  22.232  0.3710 -0.0670  0.4128
 6926DDP     P141552  24.144  17.898  21.844  0.4604 -0.0326 -0.1471
 6926DDP     P241553  24.297  17.439  22.455  0.1991  0.1464  0.3120
 6926DDP     C241554  24.566  17.394  22.717 -0.0891 -0.0102 -0.0099
 6926DDP     C341555  24.212  17.915  21.463  0.0975 -0.0869 -0.2163
 6926DDP     C441556  23.760  18.029  22.371 -0.0033  0.0959 -0.0516
 6927DDP     C141557   7.956  27.670  11.722  0.1925 -0.3803 -0.1066
 6927DDP     P141558   8.382  27.764  11.621  0.2640  0.0927  0.1622
 6927DDP     P241559   7.555  27.552  11.659 -0.3444  0.1219 -0.0240
 6927DDP     C241560   7.215  27.264  11.748 -0.0357  0.0128 -0.1175
 6927DDP     C341561   8.743  27.642  11.429 -0.0093 -0.2138 -0.0987
 6927DDP     C441562   8.113  27.441  12.072  0.1742 -0.1073 -0.0243
 6928DDP     C141563   6.928  24.308  22.294 -0.0059  0.3365  0.2027
 6928DDP     P141564   7.219  24.010  22.109  0.2384 -0.2556 -0.4916
 6928DDP     P241565   7.018  24.585  22.698  0.1036 -0.1307 -0.0049
 6928DDP     C241566   7.038  24.899  22.943 -0.0313  0.0528  0.1804
 6928DDP     C341567   7.620  24.058  21.840  0.2365  0.4081 -0.2384
 6928DDP     C441568   6.476  24.362  22.217  0.1877 -0.0092 -0.2803
 6929DDP     C141569  17.949  29.465   6.784 -0.1279  0.1992 -0.1259
 6929DDP     P141570  18.332  29.384   6.519  0.0472 -0.0398 -0.0970
 6929DDP     P241571  17.758  29.040   6.899  0.0352 -0.1433  0.1596
 6929DDP     C241572  17.719  28.812   7.200  0.1648 -0.0434  0.2938
 6929DDP     C341573  18.741  29.709   6.406  0.1768  0.0888  0.1537
 6929DDP     C441574  17.927  29.772   7.061 -0.1478  0.2283 -0.0898
 6930DDP     C141575   6.306   8.093  29.705  0.0993  0.1879 -0.1086
 6930DDP     P141576   6.289   8.151  30.164  0.1151 -0.3036 -0.1681
 6930DDP     P241577   6.030   8.383  29.464 -0.0552 -0.1240 -0.0996
 6930DDP     C241578   5.778   8.380  29.180  0.1007 -0.0675  0.2213
 6930DDP     C341579   6.478   8.133   0.257  0.0943 -0.0042  0.1630
 6930DDP     C441580   6.360   7.614  29.612 -0.0785  0.2408  0.2725
 6931DDP     C141581  30.222  17.270  19.057  0.3102  0.0114  0.2031
 6931DDP     P141582  30.259  17.705  18.991 -0.1709  0.2793  0.0751
 6931DDP     P241583   0.203  17.177  19.266 -0.3295 -0.1057  0.0618
 6931DDP     C241584   0.516  17.419  19.528  0.1670  0.1592 -0.1488
 6931DDP     C341585   0.034  17.762  18.621 -0.3293 -0.2324 -0.0103
 6931DDP     C441586  29.949  16.912  18.953 -0.0784 -0.0901  0.3030
 6932DDP     C141587  19.486  28.208  13.834  0.2024  0.1732 -0.0375
 6932DDP     P141588  19.774  28.272  13.492 -0.1505 -0.4143  0.3201
 6932DDP     P241589  19.560  27.876  14.218 -0.0464  0.0637  0.3939
 6932DDP     C241590  19.539  27.464  14.386 -0.1255  0.3035 -0.0858
 6932DDP     C341591  20.241  28.249  13.443 -0.0227  0.1855  0.2656
 6932DDP     C441592  19.285  28.568  14.002 -0.2752  0.0764 -0.1598
 6933DDP     C141593  18.762   7.116  15.791  0.2409 -0.0287 -0.0610
 6933DDP     P141594  18.333   6.967  15.491 -0.4607 -0.1398  0.1722
 6933DDP     P241595  18.945   6.698  15.900  0.0574  0.0416 -0.0440
 6933DDP     C241596  19.279   6.583  16.145  0.0195 -0.0825 -0.1704
 6933DDP     C341597  17.917   6.958  15.328 -0.0885  0.1931 -0.4841
 6933DDP     C441598  19.071   7.397  15.640  0.0067 -0.3372  0.0347
 6934DDP     C141599   1.978  12.898   2.547  0.0090  0.1021  0.0501
 6934DDP     P141600   2.323  12.854   2.672 -0.0328 -0.1504  0.2877
 6934DDP     P241601   2.029  12.617   2.180  0.1154  0.2004  0.4999
 6934DDP     C241602   1.991  12.136   2.308  0.1605  0.1102 -0.1141
 6934DDP     C341603   2.570  12.555   2.895 -0.0174 -0.0597 -0.1468
 6934DDP     C441604   1.795  13.338   2.428  0.1477  0.1114 -0.0706
 6935DDP     C141605  19.602   4.253   3.657 -0.0636  0.0132  0.0201
 6935DDP     P141606  19.430   3.929   3.475 -0.4061 -0.2363 -0.1268
 6935DDP     P241607  20.088   4.161   3.584  0.1401  0.0404  0.0472
 6935DDP     C241608  20.297   4.166   3.310 -0.4491  0.1604 -0.1521
 6935DDP     C341609  19.172   3.817   3.228 -0.0189  0.3040  0.0135
 6935DDP     C441610  19.534   4.603   3.933  0.0324 -0.0533 -0.1561
 6936DDP     C141611   8.850  26.849  16.074  0.2735  0.0302  0.1377
 6936DDP     P141612   8.750  26.628  16.470 -0.0284  0.0550 -0.4611
 6936DDP     P241613   9.283  26.586  15.979  0.0073 -0.1876  0.2382
 6936DDP     C241614   9.450  26.090  15.932  0.0110 -0.1498 -0.0726
 6936DDP     C341615   8.965  26.443  16.747 -0.0076 -0.1163 -0.1594
 6936DDP     C441616   8.714  26.852  15.646  0.0942  0.1524  0.0096
 6937DDP     C141617  26.487   9.312  27.189  0.1214 -0.0921  0.1854
 6937DDP     P141618  26.208   9.469  26.832 -0.0583 -0.2181 -0.0025
 6937DDP     P241619  26.425   8.936  27.310 -0.1067  0.2643 -0.1465
 6937DDP     C241620  26.293   8.494  27.303  0.1816 -0.1194 -0.0795
 6937DDP     C341621  25.950   9.857  26.691  0.1472 -0.1095 -0.1629
 6937DDP     C441622  26.631   9.631  27.441 -0.0053 -0.0965 -0.2331
 6938DDP     C141623  10.533   9.758  17.762  0.0444  0.1399 -0.0013
 6938DDP     P141624  10.971   9.696  17.832  0.3657  0.0864 -0.0500
 6938DDP     P241625  10.334   9.976  17.386 -0.2278 -0.1059  0.2608
 6938DDP     C241626  10.312  10.069  16.836  0.0425  0.0760 -0.3258
 6938DDP     C341627  11.313   9.872  17.997 -0.0011  0.0740 -0.1136
 6938DDP     C441628  10.241   9.547  18.002  0.0674 -0.0077  0.2843
 6939DDP     C141629  22.115  14.927  29.294 -0.1357 -0.0087 -0.3057
 6939DDP     P141630  22.277  14.480  29.108  0.1236  0.1013  0.2271
 6939DDP     P241631  22.157  15.327  29.093 -0.3208  0.2678 -0.1845
 6939DDP     C241632  22.467  15.566  29.147 -0.1010  0.1491 -0.1356
 6939DDP     C341633  22.118  14.271  28.697 -0.1938  0.1480 -0.0303
 6939DDP     C441634  21.881  14.913  29.599  0.1223 -0.3890 -0.2489
 6940DDP     C141635   2.227  29.828  30.219  0.0005 -0.2295  0.0527
 6940DDP     P141636   1.984  29.674  30.038  0.0477 -0.0270  0.1088
 6940DDP     P241637   2.513  30.132  30.146 -0.2787  0.1821  0.1075
 6940DDP     C241638   2.790   0.125  30.017  0.2677  0.1457  0.4596
 6940DDP     C341639   1.767  29.777  29.706  0.2166  0.2585 -0.2176
 6940DDP     C441640   2.213  29.671   0.197  0.1950 -0.0137  0.0396
 6941DDP     C141641  21.622   8.887  14.155 -0.2315 -0.0004 -0.0738
 6941DDP     P141642  21.453   8.924  13.843  0.3022  0.1373  0.0745
 6941DDP     P241643  22.080   8.763  14.102 -0.0863 -0.2008  0.0452
 6941DDP     C241644  22.384   8.566  14.054  0.2149  0.4401 -0.1814
 6941DDP     C341645  21.196   8.767  13.480 -0.1741 -0.0932 -0.2305
 6941DDP     C441646  21.346   8.727  14.440  0.1957  0.2202 -0.0381
 6942DDP     C141647   9.482  15.585   4.699  0.0863  0.1459 -0.0848
 6942DDP     P141648   9.914  15.552   4.864 -0.2904  0.1306  0.0750
 6942DDP     P241649   9.168  15.485   5.050  0.0459  0.0617  0.1881
 6942DDP     C241650   8.837  15.531   5.418 -0.2690 -0.2471  0.2008
 6942DDP     C341651  10.164  15.886   4.705  0.0166 -0.3254 -0.0325
 6942DDP     C441652   9.311  15.562   4.345  0.2538  0.1477  0.1748
 6943DDP     C141653  16.964   7.712   6.115  0.0058 -0.2999 -0.2820
 6943DDP     P141654  17.232   7.426   6.248 -0.0509 -0.1515  0.0926
 6943DDP     P241655  17.266   7.937   5.820  0.2979  0.1249 -0.0547
 6943DDP     C241656  17.376   7.986   5.420 -0.2242 -0.0470  0.0252
 6943DDP     C341657  17.121   7.150   6.612  0.0395  0.0204 -0.2106
 6943DDP     C441658  16.487   7.753   6.223  0.1564  0.0176 -0.1130
 6944DDP     C141659   6.941  24.476  12.334 -0.0491 -0.0851  0.1259
 6944DDP     P141660   6.888  24.116  12.064  0.2323  0.1532 -0.3011
 6944DDP     P241661   6.690  24.752  12.399  0.3168 -0.4532 -0.1324
 6944DDP     C241662   6.390  24.880  12.556  0.1922  0.0363  0.3254
 6944DDP     C341663   6.985  23.790  11.705 -0.2036  0.0679 -0.0511
 6944DDP     C441664   7.204  24.366  12.719  0.0098 -0.2163 -0.0745
 6945DDP     C141665  26.714  20.076  24.434 -0.1039  0.3033  0.0407
 6945DDP     P141666  26.484  20.247  24.794  0.1667 -0.0457  0.1087
 6945DDP     P241667  26.841  19.586  24.479  0.0456 -0.3483  0.0196
 6945DDP     C241668  26.790  19.176  24.653 -0.0223 -0.3456 -0.1210
 6945DDP     C341669  26.151  20.155  25.030  0.1277  0.2895 -0.0130
 6945DDP     C441670  26.751  20.383  24.094  0.0345 -0.2678  0.0742
 6946DDP     C141671  22.567  24.845  11.925 -0.0279  0.3657  0.2119
 6946DDP     P141672  22.702  25.304  11.692 -0.0046  0.0137 -0.1902
 6946DDP     P241673  22.316  24.790  12.361 -0.2019 -0.0945  0.3353
 6946DDP     C241674  22.206  24.947  12.723  0.0550  0.1056 -0.0121
 6946DDP     C341675  22.787  25.820  11.764  0.2325 -0.1707  0.3106
 6946DDP     C441676  22.492  24.461  11.660 -0.0966 -0.0278 -0.2307
 6947DDP     C141677  16.505   0.226  10.154  0.1468  0.0626  0.2383
 6947DDP     P141678  16.806   0.153  10.591 -0.0612 -0.0349 -0.1512
 6947DDP     P241679  16.381  30.196   9.920 -0.3761 -0.2165 -0.1307
 6947DDP     C241680  16.069  29.911   9.787 -0.3241  0.0368  0.3228
 6947DDP     C341681  16.945   0.033  10.995 -0.0311 -0.1632  0.1037
 6947DDP     C441682  16.327   0.682  10.044 -0.0592  0.0017  0.1076
 6948DDP     C141683  21.281  10.070  24.319  0.1375 -0.1019 -0.2224
 6948DDP     P141684  21.270  10.213  24.855  0.2209 -0.1997  0.1833
 6948DDP     P241685  21.359  10.391  24.038  0.0176  0.2424 -0.3195
 6948DDP     C241686  21.811  10.387  23.813  0.1373 -0.0481  0.1734
 6948DDP     C341687  21.260  10.695  25.029 -0.1083  0.0100 -0.0342
 6948DDP     C441688  21.083   9.912  23.969 -0.1025 -0.1168 -0.2789
 6949DDP     C141689  17.228  21.273  11.793  0.0769 -0.0499 -0.1150
 6949DDP     P141690  17.480  21.650  11.755  0.0107  0.3137  0.1653
 6949DDP     P241691  16.745  21.243  11.731  0.4691 -0.0803  0.1857
 6949DDP     C241692  16.409  20.870  11.744 -0.1471 -0.0690 -0.1180
 6949DDP     C341693  17.777  21.958  11.708  0.1238  0.1551 -0.0534
 6949DDP     C441694  17.541  20.914  11.959  0.2309 -0.0742  0.1604
 6950DDP     C141695  23.259   1.863  20.176  0.2244 -0.2326  0.0668
 6950DDP     P141696  23.545   1.744  19.928  0.1219 -0.1205  0.1849
 6950DDP     P241697  23.498   2.252  20.433  0.4526  0.1438 -0.0130
 6950DDP     C241698  23.697   2.507  20.636  0.1037 -0.0020  0.1002
 6950DDP     C341699  23.960   1.521  19.777  0.0133 -0.1923  0.1228
 6950DDP     C441700  22.921   1.510  20.368  0.1200 -0.2198  0.2052
 6951DDP     C141701  28.170  29.130   2.473  0.1387 -0.0136 -0.2436
 6951DDP     P141702  27.807  28.831   2.552 -0.2737  0.2541  0.1473
 6951DDP     P241703  28.386  29.358   2.813  0.2145 -0.0147  0.1158
 6951DDP     C241704  28.425  29.363   3.210  0.1695 -0.3630  0.0115
 6951DDP     C341705  27.511  28.483   2.641 -0.1250 -0.0206  0.0719
 6951DDP     C441706  28.413  28.930   2.142 -0.0380 -0.2407  0.0333
 6952DDP     C141707   2.495   3.028   6.991 -0.1060 -0.1461 -0.3686
 6952DDP     P141708   2.887   2.886   7.006 -0.0229  0.0630 -0.3706
 6952DDP     P241709   2.552   3.389   7.251  0.1332 -0.1862 -0.3229
 6952DDP     C241710   2.473   3.752   7.289 -0.1475  0.1816 -0.1832
 6952DDP     C341711   3.291   2.717   6.777  0.1912 -0.1012 -0.0056
 6952DDP     C441712   2.224   2.843   6.736 -0.2137  0.1407  0.0213
 6953DDP     C141713   0.311  18.539  16.718 -0.0956 -0.1253 -0.1005
 6953DDP     P141714   0.319  18.721  16.383  0.0272 -0.0314 -0.2365
 6953DDP     P241715   0.519  18.262  16.622  0.0540 -0.4140 -0.2500
 6953DDP     C241716   0.960  18.034  16.486 -0.0893 -0.4831  0.0694
 6953DDP     C341717   0.290  19.161  16.215  0.2287 -0.0630 -0.2500
 6953DDP     C441718   0.081  18.598  17.095  0.1846  0.0432  0.1494
 6954DDP     C141719   1.086  22.819   8.597  0.1791  0.0309 -0.3036
 6954DDP     P141720   0.953  22.720   8.247  0.0193 -0.1217 -0.0809
 6954DDP     P241721   0.904  23.214   8.722  0.0171  0.0409 -0.0063
 6954DDP     C241722   1.085  23.497   9.101  0.0445  0.1157 -0.1707
 6954DDP     C341723   1.215  22.711   7.965  0.0052  0.3029  0.0164
 6954DDP     C441724   1.446  22.610   8.846 -0.1289  0.1199 -0.0243
 6955DDP     C141725  17.407  20.456  14.428  0.0859  0.0939  0.1993
 6955DDP     P141726  17.166  20.554  14.761 -0.0050 -0.2113  0.0790
 6955DDP     P241727  17.684  20.195  14.673  0.1793 -0.0057 -0.1279
 6955DDP     C241728  17.964  20.307  15.018  0.3123 -0.1394  0.1290
 6955DDP     C341729  17.207  20.707  15.195  0.2088 -0.1004  0.4125
 6955DDP     C441730  17.214  20.267  14.064  0.0710 -0.1460 -0.1051
 6956DDP     C141731  11.780  23.945   1.850  0.3872 -0.2122 -0.0176
 6956DDP     P141732  11.922  24.194   2.198  0.0453  0.1400 -0.1356
 6956DDP     P241733  11.750  24.146   1.424  0.1533  0.2843  0.0929
 6956DDP     C241734  11.899  24.471   1.302 -0.2023 -0.1338 -0.1828
 6956DDP     C341735  12.123  24.428   2.352 -0.0064 -0.2520  0.2342
 6956DDP     C441736  11.426  23.601   1.949  0.0333  0.2328  0.0829
 6957DDP     C141737  29.965  25.974   7.888  0.2216  0.1198 -0.1405
 6957DDP     P141738  30.275  25.977   7.480 -0.3537  0.1313  0.0679
 6957DDP     P241739  29.769  25.502   7.925 -0.0610  0.2528 -0.0604
 6957DDP     C241740  29.892  25.212   7.610  0.0041 -0.2887  0.0444
 6957DDP     C341741   0.169  25.591   7.282  0.1073  0.2206  0.0211
 6957DDP     C441742  29.547  26.305   7.974 -0.2292  0.3165 -0.0109
 6958DDP     C141743  24.258  24.905  28.382  0.1285 -0.0512  0.3228
 6958DDP     P141744  24.141  24.864  28.023 -0.0916  0.1201 -0.3390
 6958DDP     P241745  24.184  24.628  28.755  0.0701 -0.2654  0.1216
 6958DDP     C241746  24.115  24.809  29.164 -0.0233 -0.0374  0.3189
 6958DDP     C341747  24.380  24.962  27.752 -0.0430  0.0979 -0.0370
 6958DDP     C441748  24.632  25.050  28.493  0.1222 -0.0052  0.0910
 6959DDP     C141749  21.958   7.217   2.822  0.1900  0.3301 -0.0908
 6959DDP     P141750  21.869   6.858   3.060 -0.1652 -0.0125 -0.2471
 6959DDP     P241751  21.757   7.642   2.762  0.0413 -0.2532 -0.1342
 6959DDP     C241752  21.563   7.917   2.388  0.1364  0.2528 -0.3940
 6959DDP     C341753  22.142   6.538   3.172 -0.0075  0.4134 -0.3278
 6959DDP     C441754  22.382   7.143   2.753  0.1727 -0.1595 -0.0561
 6960DDP     C141755   7.120  28.169  25.116  0.0069  0.0375 -0.2351
 6960DDP     P141756   7.217  28.037  24.656 -0.1261 -0.1139 -0.1646
 6960DDP     P241757   7.391  27.953  25.443  0.1309 -0.3911 -0.2356
 6960DDP     C241758   7.794  27.742  25.670 -0.1313 -0.0213 -0.0123
 6960DDP     C341759   7.453  27.916  24.229 -0.2365  0.0366 -0.0468
 6960DDP     C441760   6.773  28.299  25.179  0.0088  0.2339 -0.1261
 6961DDP     C141761   1.449  17.857  24.411 -0.0254 -0.2482  0.0312
 6961DDP     P141762   1.623  17.446  24.466 -0.0717 -0.1178  0.0090
 6961DDP     P241763   1.695  18.090  24.612 -0.0055  0.2369 -0.1389
 6961DDP     C241764   1.739  18.490  24.825 -0.0077  0.2912 -0.0676
 6961DDP     C341765   1.934  17.066  24.578  0.0287 -0.1114  0.1653
 6961DDP     C441766   1.136  17.646  24.115  0.1708  0.2395 -0.0868
 6962DDP     C141767  18.751   5.205  15.892  0.1149 -0.0252  0.2646
 6962DDP     P141768  18.936   5.267  16.347  0.0931 -0.0472 -0.3315
 6962DDP     P241769  18.365   5.539  15.863  0.1698  0.2201 -0.2484
 6962DDP     C241770  18.235   5.874  15.726 -0.0756 -0.0299  0.0649
 6962DDP     C341771  19.101   5.397  16.627 -0.2714  0.3597  0.0904
 6962DDP     C441772  18.885   4.997  15.632 -0.1136  0.0094  0.2978
 6963DDP     C141773  29.455  22.703   6.716 -0.3248  0.0031 -0.1905
 6963DDP     P141774  29.845  22.783   6.926 -0.0883 -0.0593 -0.0006
 6963DDP     P241775  29.151  22.906   6.947  0.0085  0.0506 -0.2033
 6963DDP     C241776  28.893  23.093   7.284 -0.1413 -0.1080 -0.2425
 6963DDP     C341777  30.178  22.773   6.808 -0.2819  0.0773  0.0817
 6963DDP     C441778  29.414  22.477   6.349  0.2225 -0.2315 -0.3044
 6964DDP     C141779  10.959   8.572  13.942  0.0346  0.1242  0.1687
 6964DDP     P141780  11.061   8.898  13.738 -0.0432  0.0991 -0.0574
 6964DDP     P241781  10.874   8.675  14.427 -0.1084  0.0449 -0.0015
 6964DDP     C241782  10.888   8.350  14.775 -0.0801 -0.0064 -0.0287
 6964DDP     C341783  11.020   9.336  13.612 -0.0292  0.1312  0.2933
 6964DDP     C441784  10.876   8.169  13.868 -0.1251  0.1202  0.2051
 6965DDP     C141785  20.109  10.488  29.461 -0.1155 -0.0399 -0.0485
 6965DDP     P141786  20.423  10.838  29.366  0.0979  0.0085  0.0263
 6965DDP     P241787  20.439  10.158  29.238 -0.1217  0.0578  0.0174
 6965DDP     C241788  20.759  10.177  28.997 -0.3596 -0.0335  0.3722
 6965DDP     C341789  20.629  11.178  29.247  0.0327  0.0321 -0.0987
 6965DDP     C441790  19.704  10.460  29.452 -0.3066  0.0100 -0.0828
 6966DDP     C141791   7.449  26.488  15.384  0.0161 -0.1456  0.2123
 6966DDP     P141792   7.335  26.153  15.113  0.0375  0.1243 -0.0486
 6966DDP     P241793   7.423  26.529  15.883  0.0672 -0.0816  0.1220
 6966DDP     C241794   7.457  26.787  16.241  0.1737  0.1355  0.0296
 6966DDP     C341795   7.356  25.999  14.812 -0.1333  0.1218  0.1465
 6966DDP     C441796   7.472  26.687  15.114  0.0599 -0.0153 -0.2387
 6967DDP     C141797   2.184   9.469   3.769 -0.3321 -0.3237  0.1730
 6967DDP     P141798   2.284   9.538   4.180  0.2593  0.2823  0.0847
 6967DDP     P241799   1.792   9.620   3.783  0.4115  0.3336 -0.1054
 6967DDP     C241800   1.569   9.450   4.158  0.1091  0.2053  0.0090
 6967DDP     C341801   2.357   9.697   4.658  0.3966 -0.3147 -0.2800
 6967DDP     C441802   2.242   9.124   3.606  0.1065 -0.0933  0.4350
 6968DDP     C141803  14.665   6.408  29.697 -0.2643  0.1016 -0.2282
 6968DDP     P141804  15.002   6.424  29.420  0.0256  0.0769  0.1246
 6968DDP     P241805  14.402   6.185  29.942  0.1441 -0.1840 -0.1344
 6968DDP     C241806  14.079   5.863  29.923  0.1565 -0.1771 -0.3110
 6968DDP     C341807  15.494   6.549  29.182  0.2891 -0.0850 -0.1079
 6968DDP     C441808  14.518   6.746  29.555 -0.0628 -0.2186 -0.0684
 6969DDP     C141809   2.856  11.303  27.243  0.0186 -0.1035 -0.1767
 6969DDP     P141810   2.706  11.272  26.754 -0.0728  0.1838  0.1035
 6969DDP     P241811   3.281  11.447  27.288  0.0536  0.0073 -0.1576
 6969DDP     C241812   3.486  11.645  27.680 -0.0235 -0.1239 -0.0321
 6969DDP     C341813   2.392  10.995  26.557  0.1609  0.2508 -0.0694
 6969DDP     C441814   2.773  10.946  27.546  0.2542 -0.1404  0.3884
 6970DDP     C141815  18.784  28.447   2.073 -0.1088 -0.2050 -0.2952
 6970DDP     P141816  18.586  28.674   2.239  0.0877 -0.3485 -0.1913
 6970DDP     P241817  18.941  28.508   1.687 -0.0622  0.3481 -0.0228
 6970DDP     C241818  18.964  28.439   1.266 -0.0809 -0.0787 -0.1606
 6970DDP     C341819  18.571  28.811   2.684  0.2059  0.2241 -0.0322
 6970DDP     C441820  18.713  28.030   2.145 -0.2171  0.0415 -0.0203
 6971DDP     C141821  19.947  17.969  28.691 -0.2134 -0.0812 -0.3393
 6971DDP     P141822  19.955  17.807  28.240  0.0712  0.1662 -0.0370
 6971DDP     P241823  19.517  18.153  28.642 -0.2118 -0.1224 -0.2381
 6971DDP     C241824  19.102  18.174  28.665  0.0625 -0.2983  0.1566
 6971DDP     C341825  20.134  17.403  28.014  0.3976 -0.0382  0.1166
 6971DDP     C441826  20.303  18.079  29.128  0.0503 -0.2442 -0.1363
 6972DDP     C141827   6.371  25.875  13.359  0.2181 -0.1058  0.1764
 6972DDP     P141828   6.070  26.046  13.590 -0.0716  0.1434 -0.0206
 6972DDP     P241829   6.686  26.189  13.299 -0.1471 -0.2666  0.2901
 6972DDP     C241830   6.820  26.253  12.963  0.0471 -0.3378 -0.2202
 6972DDP     C341831   5.778  26.413  13.749 -0.2150 -0.0760 -0.1993
 6972DDP     C441832   6.375  25.389  13.379  0.1122  0.2631 -0.1390
 6973DDP     C141833  24.165   8.459  12.869 -0.1042 -0.3953 -0.1786
 6973DDP     P141834  23.699   8.518  12.745 -0.1876 -0.1699  0.4571
 6973DDP     P241835  24.226   8.152  13.106 -0.2304 -0.1033 -0.4299
 6973DDP     C241836  24.466   7.825  13.283  0.2723  0.0383 -0.0867
 6973DDP     C341837  23.288   8.469  12.850 -0.0026  0.0374 -0.0367
 6973DDP     C441838  24.457   8.642  12.614  0.1535 -0.0296  0.3481
 6974DDP     C141839  24.885   1.389  14.250 -0.1543 -0.0805  0.1629
 6974DDP     P141840  24.708   1.079  13.933  0.1482 -0.1598  0.0407
 6974DDP     P241841  25.298   1.479  14.087  0.0646 -0.1825 -0.0376
 6974DDP     C241842  25.700   1.388  14.110 -0.2037 -0.0738 -0.2715
 6974DDP     C341843  24.715   0.740  13.638 -0.0933 -0.1005  0.0617
 6974DDP     C441844  24.556   1.672  14.255 -0.0996 -0.0140  0.1191
 6975DDP     C141845  24.695  10.106  22.187  0.1436 -0.0741  0.4173
 6975DDP     P141846  24.398   9.723  22.052  0.1733  0.3033 -0.0396
 6975DDP     P241847  24.543  10.406  22.493  0.0994 -0.1251  0.1521
 6975DDP     C241848  24.236  10.527  22.822 -0.0615 -0.1597 -0.0209
 6975DDP     C341849  24.502   9.341  22.051  0.0022  0.1727 -0.1864
 6975DDP     C441850  25.169  10.157  22.135 -0.0038 -0.0006 -0.1014
 6976DDP     C141851  15.111  16.986  13.023  0.2280 -0.4164  0.2068
 6976DDP     P141852  15.299  16.694  12.742  0.3587 -0.1081  0.0420
 6976DDP     P241853  14.957  17.309  12.764  0.3015 -0.0549 -0.0943
 6976DDP     C241854  14.774  17.591  12.449 -0.0164 -0.2255  0.0291
 6976DDP     C341855  14.950  16.445  12.501  0.3129 -0.0020  0.0809
 6976DDP     C441856  14.989  16.882  13.469  0.3782  0.0168  0.0035
 6977DDP     C141857  15.458   6.787  11.653 -0.0034  0.0363 -0.2750
 6977DDP     P141858  15.777   6.399  11.651  0.1697 -0.2992  0.2401
 6977DDP     P241859  15.168   6.505  11.433 -0.1234  0.1339 -0.0137
 6977DDP     C241860  14.991   6.063  11.451 -0.3848 -0.2190  0.0501
 6977DDP     C341861  15.746   6.060  11.397 -0.1372  0.0163 -0.1855
 6977DDP     C441862  15.526   7.240  11.555 -0.1061  0.1618  0.1385
 6978DDP     C141863  11.878  17.048  25.966  0.1293 -0.1021  0.1179
 6978DDP     P141864  12.262  16.889  26.081  0.0813 -0.0525  0.1521
 6978DDP     P241865  11.484  17.076  26.271  0.3609 -0.1625 -0.0456
 6978DDP     C241866  11.401  17.358  26.496 -0.2124  0.2262 -0.1986
 6978DDP     C341867  12.675  16.854  26.306  0.0674  0.1197 -0.1584
 6978DDP     C441868  11.746  17.174  25.530  0.0030  0.0991 -0.1279
 6979DDP     C141869   3.149  15.605   4.919 -0.0126  0.0794  0.0927
 6979DDP     P141870   2.947  15.875   4.679 -0.0946 -0.1267  0.3505
 6979DDP     P241871   3.454  15.364   4.592 -0.0648 -0.1160 -0.5267
 6979DDP     C241872   3.285  14.891   4.532  0.3227  0.0040  0.3144
 6979DDP     C341873   2.585  16.108   4.565  0.2482  0.0745  0.2254
 6979DDP     C441874   3.205  15.786   5.270 -0.2186 -0.0108 -0.0501
 6980DDP     C141875  27.199   3.241  22.806  0.0031 -0.0908  0.0720
 6980DDP     P141876  27.407   3.615  22.632  0.0399  0.1677  0.1138
 6980DDP     P241877  26.961   3.271  23.203 -0.1335  0.0928 -0.3148
 6980DDP     C241878  26.745   3.213  23.652  0.1023  0.0640 -0.2729
 6980DDP     C341879  27.673   4.006  22.863  0.2708 -0.0806  0.3674
 6980DDP     C441880  27.373   2.942  22.582 -0.1374  0.0551 -0.3267
 6981DDP     C141881  27.233   4.517  18.725 -0.0727  0.0194  0.1504
 6981DDP     P141882  27.007   4.697  19.101  0.1648 -0.4361  0.1974
 6981DDP     P241883  27.428   4.850  18.599  0.3550  0.1914  0.2636
 6981DDP     C241884  27.371   5.314  18.663 -0.0529 -0.1266  0.1900
 6981DDP     C341885  27.001   4.939  19.547 -0.0271 -0.2289 -0.1368
 6981DDP     C441886  27.131   4.158  18.588  0.0397  0.2009  0.1973
 6982DDP     C141887   5.965  20.407   4.481  0.1436  0.0778  0.0805
 6982DDP     P141888   5.653  20.255   4.086 -0.1449  0.2266  0.0970
 6982DDP     P241889   6.299  20.580   4.385  0.1925  0.0797  0.0053
 6982DDP     C241890   6.413  20.953   4.082  0.2176  0.0271  0.1408
 6982DDP     C341891   5.514  20.155   3.693 -0.1888  0.1796 -0.1037
 6982DDP     C441892   5.920  20.098   4.855  0.0475 -0.1772  0.0251
 6983DDP     C141893  10.613  28.031  13.801  0.1875 -0.0616 -0.2131
 6983DDP     P141894  10.389  27.728  13.758  0.1832 -0.1428 -0.0499
 6983DDP     P241895  10.536  28.407  13.625  0.1491 -0.1103 -0.3080
 6983DDP     C241896  10.354  28.570  13.148 -0.1351 -0.0805 -0.1520
 6983DDP     C341897  10.101  27.464  13.818  0.0296  0.1219 -0.0440
 6983DDP     C441898  10.959  27.893  14.175 -0.0312  0.1378 -0.1057
 6984DDP     C141899  27.574  24.141  11.642 -0.3237 -0.1483  0.1080
 6984DDP     P141900  27.823  24.475  11.503 -0.1802  0.1289 -0.0457
 6984DDP     P241901  27.714  23.747  11.876 -0.0608  0.1614  0.0371
 6984DDP     C241902  28.084  23.702  12.008 -0.1775  0.1962  0.2856
 6984DDP     C341903  27.836  24.890  11.284  0.0513 -0.1260 -0.0723
 6984DDP     C441904  27.180  24.119  11.490 -0.3034  0.0927  0.0664
 6985DDP     C141905   9.295  24.810   2.576 -0.4053 -0.1502 -0.4992
 6985DDP     P141906   9.630  24.960   2.876 -0.1348 -0.2244  0.3214
 6985DDP     P241907   9.197  24.359   2.601 -0.1628  0.0025 -0.1009
 6985DDP     C241908   9.236  24.005   2.387 -0.0053 -0.3874 -0.0561
 6985DDP     C341909  10.172  25.043   3.052 -0.2077  0.0890 -0.0419
 6985DDP     C441910   8.972  25.228   2.452  0.0740  0.2754  0.2009
 6986DDP     C141911  18.722  23.637  15.857 -0.1752 -0.1496  0.3325
 6986DDP     P141912  19.209  23.832  16.026  0.1945  0.1553  0.0988
 6986DDP     P241913  18.473  23.899  15.627 -0.1252  0.1236  0.2524
 6986DDP     C241914  18.206  23.884  15.279  0.1192  0.4726  0.2347
 6986DDP     C341915  19.722  23.910  16.170 -0.0344  0.2492 -0.3060
 6986DDP     C441916  18.666  23.193  15.920  0.1406 -0.1014 -0.2702
 6987DDP     C141917   3.743  24.465  15.365  0.0186  0.4303 -0.0721
 6987DDP     P141918   3.951  24.573  15.804  0.0402  0.0647  0.2933
 6987DDP     P241919   3.295  24.319  15.266  0.0303  0.2095  0.0839
 6987DDP     C241920   2.902  24.453  15.529  0.2380 -0.0295 -0.0776
 6987DDP     C341921   4.220  24.705  16.100  0.1244  0.0615  0.1754
 6987DDP     C441922   4.033  24.513  15.074  0.3234 -0.5183 -0.0953
 6988DDP     C141923  28.663  14.803   1.729 -0.0535  0.3674 -0.3135
 6988DDP     P141924  28.440  15.322   1.721 -0.0730  0.1980  0.1528
 6988DDP     P241925  28.330  14.548   1.864  0.0729 -0.1870 -0.1002
 6988DDP     C241926  28.115  14.578   2.208  0.2482 -0.0679  0.1491
 6988DDP     C341927  28.467  15.386   1.315  0.1162  0.1203 -0.0867
 6988DDP     C441928  29.151  14.729   1.695 -0.1380 -0.0565 -0.3264
 6989DDP     C141929  12.739  25.567  20.576 -0.1225  0.3200  0.3147
 6989DDP     P141930  12.990  25.161  20.377 -0.3030 -0.3149 -0.3028
 6989DDP     P241931  12.521  25.348  20.899 -0.0486 -0.2766 -0.2431
 6989DDP     C241932  12.252  25.165  20.844  0.1482 -0.0334 -0.1249
 6989DDP     C341933  13.437  25.153  20.206 -0.1783  0.0605 -0.2303
 6989DDP     C441934  12.658  25.997  20.416 -0.0072 -0.1607 -0.0999
 6990DDP     C141935  20.673  28.314  28.621  0.1300 -0.1793 -0.1135
 6990DDP     P141936  20.258  28.296  28.574 -0.0151  0.0934  0.0080
 6990DDP     P241937  20.878  28.336  28.319 -0.0118 -0.0178  0.2193
 6990DDP     C241938  21.282  28.358  28.293 -0.0572 -0.2302 -0.0127
 6990DDP     C341939  19.894  28.031  28.427 -0.0942  0.2107 -0.0024
 6990DDP     C441940  20.743  28.229  29.013 -0.1179  0.0257  0.1140
 6991DDP     C141941   6.822  16.935   2.243  0.3271 -0.5469  0.1378
 6991DDP     P141942   6.398  17.010   2.457  0.1760 -0.0617 -0.1795
 6991DDP     P241943   7.130  16.750   2.346  0.3788  0.1224 -0.0596
 6991DDP     C241944   7.253  16.704   2.734 -0.0986 -0.2358  0.2235
 6991DDP     C341945   5.934  17.063   2.287 -0.1699 -0.0118 -0.3843
 6991DDP     C441946   6.825  17.236   1.888  0.0752 -0.1049 -0.1683
 6992DDP     C141947  16.310   1.944  16.750 -0.5396 -0.1074 -0.1891
 6992DDP     P141948  16.439   1.911  17.182 -0.1427 -0.2384 -0.1510
 6992DDP     P241949  15.938   1.963  16.681  0.2351  0.1401  0.1951
 6992DDP     C241950  15.462   1.975  16.532  0.1542 -0.0338 -0.2254
 6992DDP     C341951  16.355   1.670  17.566 -0.0615  0.0218  0.1108
 6992DDP     C441952  16.398   1.800  16.530 -0.2627  0.1250 -0.1712
 6993DDP     C141953  24.828  13.970  30.266 -0.0090  0.3123 -0.1202
 6993DDP     P141954  25.134  14.271  30.227  0.2039 -0.1361 -0.3409
 6993DDP     P241955  24.346  14.149  30.170  0.1557 -0.1868 -0.0935
 6993DDP     C241956  24.090  14.459  30.046  0.0616  0.1692  0.0349
 6993DDP     C341957  25.433  14.543  30.283 -0.0345  0.1185 -0.2280
 6993DDP     C441958  24.878  13.509   0.161  0.1484  0.3889  0.0821
 6994DDP     C141959  16.561   6.790  16.283 -0.1505 -0.2375 -0.0704
 6994DDP     P141960  16.633   7.246  16.501 -0.0199  0.0888 -0.2409
 6994DDP     P241961  16.981   6.439  16.145  0.2642  0.2155 -0.0308
 6994DDP     C241962  17.181   6.271  15.844  0.1534 -0.1288  0.1929
 6994DDP     C341963  16.677   7.547  16.749  0.0479 -0.2844  0.0832
 6994DDP     C441964  16.188   6.556  16.313  0.0024 -0.0657  0.2142
 6995DDP     C141965   3.471   2.057   5.615 -0.5031 -0.1615  0.0485
 6995DDP     P141966   3.740   1.686   5.708 -0.2300  0.2475  0.0486
 6995DDP     P241967   3.359   2.157   5.202  0.1905  0.2459  0.0109
 6995DDP     C241968   3.445   1.895   4.877 -0.3114  0.1803 -0.1068
 6995DDP     C341969   4.125   1.420   5.847  0.1600 -0.2346  0.1349
 6995DDP     C441970   3.493   2.361   5.953 -0.2323 -0.0670  0.1862
 6996DDP     C141971  17.526  24.380  11.375  0.0648 -0.2074 -0.0084
 6996DDP     P141972  17.623  24.723  11.359 -0.0067 -0.2139  0.2808
 6996DDP     P241973  17.402  24.134  11.697  0.2166 -0.2188 -0.1516
 6996DDP     C241974  17.270  23.939  12.038 -0.1250 -0.0341 -0.2498
 6996DDP     C341975  17.972  24.860  11.644 -0.0671 -0.3584 -0.1310
 6996DDP     C441976  17.545  24.204  11.022 -0.2993 -0.1207 -0.0145
 6997DDP     C141977  11.371  20.014   3.778  0.2760  0.2591 -0.0237
 6997DDP     P141978  11.286  19.684   3.540  0.2439  0.2123 -0.1195
 6997DDP     P241979  11.183  20.110   4.136  0.0431 -0.2531 -0.0696
 6997DDP     C241980  11.136  20.505   4.329  0.0778 -0.1304  0.1274
 6997DDP     C341981  11.151  19.577   3.234  0.2973 -0.2636 -0.0342
 6997DDP     C441982  11.745  20.168   3.977  0.0862 -0.1709  0.2781
 6998DDP     C141983   1.999   8.522  30.312  0.3388  0.0529  0.0205
 6998DDP     P141984   2.092   8.884   0.037  0.3485  0.3296  0.0481
 6998DDP     P241985   2.337   8.329  30.096  0.2697  0.1657  0.5084
 6998DDP     C241986   2.466   7.940  29.834  0.2490 -0.2834  0.0937
 6998DDP     C341987   2.307   9.241  30.155  0.0929 -0.2444  0.1825
 6998DDP     C441988   1.996   8.096   0.074 -0.1531  0.2549 -0.3936
 6999DDP     C141989   1.107  24.323   0.919  0.0317  0.4169 -0.2059
 6999DDP     P141990   1.216  24.700   1.039 -0.2048 -0.0903 -0.1935
 6999DDP     P241991   0.747  24.113   0.990  0.2612  0.1055  0.0377
 6999DDP     C241992   0.626  23.972   1.398  0.0314 -0.3102 -0.1372
 6999DDP     C341993   0.976  25.011   0.790 -0.0149 -0.1107  0.2670
 6999DDP     C441994   1.295  24.081   0.528  0.0632  0.2861  0.1035
 7000DDP     C141995  13.338  28.863  13.860 -0.0891  0.0336 -0.3132
 7000DDP     P141996  13.693  29.138  13.872 -0.3811  0.0350  0.0079
 7000DDP     P241997  13.133  28.924  13.486  0.1365 -0.0794  0.2204
 7000DDP     C241998  12.867  29.238  13.274 -0.4263  0.1345  0.1652
 7000DDP     C341999  14.072  29.076  13.998 -0.3329 -0.1811 -0.1535
 7000DDP     C442000  13.227  28.641  14.241  0.1625  0.4477 -0.2194
 7001DDP     C142001  24.018  10.427   9.687 -0.1637 -0.1386 -0.0778
 7001DDP     P142002  24.265  10.818   9.782 -0.1499 -0.0047 -0.0999
 7001DDP     P242003  23.741  10.590   9.378  0.0743  0.0652  0.2498
 7001DDP     C242004  23.621  10.603   8.932 -0.1682 -0.2071  0.0528
 7001DDP     C342005  24.338  11.318   9.719 -0.2766  0.0974  0.1381
 7001DDP     C442006  24.018  10.095   9.967  0.2521  0.3601  0.1079
 7002DDP     C142007   6.548   6.965  15.682  0.1266 -0.2664  0.2363
 7002DDP     P142008   6.352   7.125  16.165  0.1658 -0.2208 -0.0767
 7002DDP     P242009   6.849   7.271  15.496  0.2917 -0.0806  0.2923
 7002DDP     C242010   6.956   7.621  15.053  0.2031 -0.3492 -0.0701
 7002DDP     C342011   6.151   7.206  16.565 -0.0168 -0.0204 -0.0046
 7002DDP     C442012   6.529   6.562  15.463 -0.2715 -0.1311  0.1392
 7003DDP     C142013   4.497  15.311  21.760 -0.0953 -0.3048 -0.3159
 7003DDP     P142014   4.084  15.464  21.759  0.2268  0.1433 -0.0511
 7003DDP     P242015   4.698  14.882  22.068  0.3409 -0.4070  0.2421
 7003DDP     C242016   4.718  14.725  22.506  0.1700 -0.2914 -0.0325
 7003DDP     C342017   3.537  15.424  21.759  0.3569 -0.0464  0.1018
 7003DDP     C442018   4.855  15.510  21.670  0.3113  0.4266 -0.0955
 7004DDP     C142019   8.221  25.501  15.914  0.4920  0.2017 -0.2124
 7004DDP     P142020   8.322  25.743  15.650 -0.4342 -0.0764  0.3624
 7004DDP     P242021   7.862  25.182  15.723  0.1565  0.0735  0.0366
 7004DDP     C242022   7.457  25.024  15.634 -0.0570 -0.1890 -0.0856
 7004DDP     C342023   8.152  25.931  15.289  0.2754 -0.0677 -0.0703
 7004DDP     C442024   8.246  25.622  16.379  0.0002  0.0823 -0.0354
 7005DDP     C142025  15.710  18.414  19.193  0.2624 -0.1419 -0.0025
 7005DDP     P142026  16.057  18.489  19.231  0.1762 -0.1998 -0.0368
 7005DDP     P242027  15.408  18.609  19.030 -0.2119 -0.2498 -0.1406
 7005DDP     C242028  15.409  18.882  18.640 -0.0476  0.0697  0.0641
 7005DDP     C342029  16.492  18.256  19.363 -0.0345  0.0157 -0.0205
 7005DDP     C442030  15.592  18.003  19.059 -0.5914  0.0114  0.0957
 7006DDP     C142031  21.078   1.744   6.785 -0.1243  0.1764  0.0890
 7006DDP     P142032  20.755   2.092   6.888  0.0197 -0.0653  0.0012
 7006DDP     P242033  21.175   1.375   7.067 -0.1300 -0.0243 -0.2304
 7006DDP     C242034  21.472   0.985   7.083 -0.2216 -0.2548  0.3125
 7006DDP     C342035  20.244   1.962   6.850 -0.1918  0.2426  0.1874
 7006DDP     C442036  21.367   1.686   6.446  0.4333 -0.0536 -0.1199
 7007DDP     C142037   8.630  21.740  17.851  0.1375 -0.1339  0.2022
 7007DDP     P142038   8.632  22.126  18.088  0.2051 -0.3648  0.2402
 7007DDP     P242039   8.873  21.357  18.046 -0.0282 -0.0047  0.1783
 7007DDP     C242040   8.996  21.174  18.396 -0.0044 -0.1259 -0.1638
 7007DDP     C342041   8.691  22.539  18.045 -0.4073 -0.0120 -0.0989
 7007DDP     C442042   8.735  21.737  17.400  0.2797  0.0734  0.1096
 7008DDP     C142043   4.666  25.143   2.486  0.0363 -0.1093  0.0325
 7008DDP     P142044   4.951  25.002   2.786 -0.1441 -0.0066  0.2886
 7008DDP     P242045   4.830  25.342   2.135  0.0221 -0.0886  0.1230
 7008DDP     C242046   4.950  25.691   1.901  0.1477 -0.0055  0.0968
 7008DDP     C342047   5.410  24.937   2.820  0.0785 -0.1613 -0.2232
 7008DDP     C442048   4.310  25.337   2.616  0.0668 -0.0778 -0.1685
 7009DDP     C142049  20.048  10.817  11.796 -0.3335  0.1229  0.2077
 7009DDP     P142050  19.687  11.202  11.819  0.0260  0.1042 -0.1531
 7009DDP     P242051  19.941  10.437  12.069 -0.1975  0.0872  0.0119
 7009DDP     C242052  19.575  10.334  11.954 -0.0692 -0.0113 -0.0451
 7009DDP     C342053  19.590  11.713  11.805  0.0856 -0.0209 -0.0588
 7009DDP     C442054  20.410  10.816  11.551  0.0598  0.0751  0.0993
 7010DDP     C142055   1.766  25.119   7.706  0.0648 -0.0113  0.3172
 7010DDP     P142056   1.671  24.773   7.824 -0.2522  0.4541 -0.3224
 7010DDP     P242057   2.022  25.364   7.872  0.0099 -0.0011  0.2545
 7010DDP     C242058   2.351  25.523   8.184 -0.1261  0.1717 -0.0901
 7010DDP     C342059   1.823  24.488   8.168 -0.1152  0.0097 -0.0162
 7010DDP     C442060   1.898  25.348   7.262  0.1538 -0.0134 -0.1135
 7011DDP     C142061  25.566   6.226  19.927 -0.1178 -0.0108 -0.0420
 7011DDP     P142062  25.567   6.214  20.379  0.0850 -0.1427 -0.1305
 7011DDP     P242063  25.474   5.816  19.672  0.1420 -0.1411  0.2998
 7011DDP     C242064  25.237   5.470  19.509  0.2266 -0.1290  0.2082
 7011DDP     C342065  25.807   6.397  20.785  0.0448 -0.2702  0.1529
 7011DDP     C442066  25.497   6.682  19.829 -0.1077 -0.1658 -0.0590
 7012DDP     C142067   8.427  23.825   4.608  0.0316 -0.0344  0.1457
 7012DDP     P142068   8.570  24.192   4.779 -0.2872 -0.1115  0.1209
 7012DDP     P242069   8.743  23.480   4.473 -0.0502 -0.0609  0.1402
 7012DDP     C242070   9.073  23.201   4.192  0.2174 -0.1345 -0.0265
 7012DDP     C342071   8.330  24.471   5.114  0.3423 -0.0871  0.0827
 7012DDP     C442072   7.867  23.766   4.544  0.1217  0.2091  0.2963
 7013DDP     C142073  25.724   8.734  29.572  0.1190  0.0280  0.0510
 7013DDP     P142074  25.575   8.838  30.010  0.0271 -0.0165  0.0657
 7013DDP     P242075  25.767   8.287  29.590 -0.1344 -0.0781  0.0103
 7013DDP     C242076  26.013   8.011  29.817 -0.2885 -0.0617 -0.3699
 7013DDP     C342077  25.363   8.820   0.084  0.2465  0.1515  0.2920
 7013DDP     C442078  25.517   8.901  29.274 -0.3020  0.0336 -0.5677
 7014DDP     C142079  13.730   6.949  16.608  0.1416 -0.0398 -0.1028
 7014DDP     P142080  14.135   7.388  16.598 -0.3065  0.0602 -0.1588
 7014DDP     P242081  13.831   6.737  17.048  0.3144 -0.3753 -0.0356
 7014DDP     C242082  13.972   6.913  17.355  0.3520 -0.0101 -0.0463
 7014DDP     C342083  14.278   7.897  16.581 -0.0927 -0.0080  0.2891
 7014DDP     C442084  13.558   6.580  16.362  0.2175 -0.0332 -0.2895
 7015DDP     C142085  13.142  19.256   7.801 -0.1635  0.2583  0.2306
 7015DDP     P142086  13.474  19.267   7.528  0.0630 -0.1335  0.0562
 7015DDP     P242087  13.301  19.440   8.199 -0.1763  0.0525 -0.0430
 7015DDP     C242088  13.313  19.683   8.503 -0.0899  0.0182 -0.1002
 7015DDP     C342089  13.871  19.427   7.230  0.2668  0.0195 -0.1012
 7015DDP     C442090  12.782  18.964   7.743  0.0485 -0.2619 -0.1415
 7016DDP     C142091  12.621  18.205   3.149  0.4806  0.1323 -0.0611
 7016DDP     P142092  12.577  17.790   3.264  0.0253 -0.1199  0.0585
 7016DDP     P242093  12.363  18.264   2.908  0.3359 -0.0495 -0.1130
 7016DDP     C242094  11.976  18.460   2.962  0.0766 -0.0517 -0.0720
 7016DDP     C342095  12.186  17.641   3.402  0.0855 -0.1414 -0.1474
 7016DDP     C442096  12.716  18.566   3.369  0.0623 -0.1779 -0.1928
 7017DDP     C142097  13.165  21.453   9.686 -0.0566  0.1710 -0.1941
 7017DDP     P142098  13.354  21.836   9.768 -0.1552 -0.1276 -0.0570
 7017DDP     P242099  13.098  21.045   9.614 -0.0433  0.1261  0.2104
 7017DDP     C242100  13.454  20.643   9.530  0.0706  0.1428 -0.0440
 7017DDP     C342101  13.556  22.200   9.568 -0.1443 -0.1740  0.1844
 7017DDP     C442102  12.747  21.575   9.705 -0.0683 -0.2999  0.0786
 7018DDP     C142103   4.251  22.117  11.414  0.2348  0.2611 -0.1561
 7018DDP     P142104   3.838  21.915  11.335  0.2184  0.0936 -0.1093
 7018DDP     P242105   4.618  21.824  11.253 -0.2533  0.1360  0.0777
 7018DDP     C242106   5.087  21.951  11.257 -0.2643  0.2851  0.0618
 7018DDP     C342107   3.418  21.700  11.164  0.0346 -0.3158  0.1013
 7018DDP     C442108   4.463  22.401  11.837  0.0122 -0.2350  0.3678
 7019DDP     C142109  10.866   6.085   3.719 -0.0986  0.2919  0.1590
 7019DDP     P142110  10.559   5.825   4.006  0.1845 -0.0493 -0.2004
 7019DDP     P242111  11.233   5.949   3.525  0.1268  0.0356 -0.1220
 7019DDP     C242112  11.749   5.992   3.514  0.2851  0.0207 -0.2324
 7019DDP     C342113  10.523   5.358   4.125 -0.0247  0.0359 -0.0657
 7019DDP     C442114  10.878   6.524   3.476  0.2233  0.2088  0.3392
 7020DDP     C142115   9.421  12.140   1.696 -0.0676 -0.0947  0.0055
 7020DDP     P142116   9.810  12.036   1.789  0.3275 -0.1738 -0.1148
 7020DDP     P242117   9.442  12.607   1.635 -0.0067 -0.0281 -0.0525
 7020DDP     C242118   9.491  12.931   1.393 -0.0359 -0.2576 -0.0690
 7020DDP     C342119  10.048  11.636   1.867  0.1804 -0.1689 -0.2183
 7020DDP     C442120   9.090  11.813   1.480 -0.2886  0.0810 -0.1350
 7021DDP     C142121  27.490  27.629   2.334  0.1303 -0.2440 -0.2093
 7021DDP     P142122  27.160  27.766   2.596 -0.4659 -0.1582 -0.0528
 7021DDP     P242123  27.670  27.258   2.332 -0.0638  0.2420  0.2641
 7021DDP     C242124  27.925  26.895   2.330  0.2724  0.0401  0.2057
 7021DDP     C342125  26.639  27.649   2.591 -0.1259 -0.0224  0.3078
 7021DDP     C442126  27.613  27.832   1.935  0.0500  0.4465  0.0686
 7022DDP     C142127  16.262  26.274  24.765  0.0252  0.0476  0.2158
 7022DDP     P142128  15.871  26.444  24.988  0.1027 -0.0068  0.0185
 7022DDP     P242129  16.656  26.561  24.575  0.1045  0.0731 -0.1645
 7022DDP     C242130  16.873  26.719  24.189 -0.1295  0.2052  0.1304
 7022DDP     C342131  15.781  26.905  25.225  0.3228  0.1843  0.1385
 7022DDP     C442132  16.462  25.922  24.709 -0.0832  0.1319 -0.0909
 7023DDP     C142133   0.080   0.188   7.110  0.0281 -0.0494  0.2045
 7023DDP     P142134  30.192  30.230   6.882 -0.0873  0.0820 -0.1859
 7023DDP     P242135   0.309   0.416   6.983 -0.0182 -0.0509 -0.1540
 7023DDP     C242136   0.703   0.359   6.809  0.1238  0.2636  0.2474
 7023DDP     C342137   0.162  29.879   6.601  0.0425 -0.1754 -0.0483
 7023DDP     C442138   0.066   0.100   7.603  0.1158  0.2485 -0.2146
 7024DDP     C142139   0.264  21.173  22.097  0.0199 -0.0341 -0.1114
 7024DDP     P142140  30.258  21.078  21.877  0.0951  0.0224  0.0448
 7024DDP     P242141   0.428  21.571  22.100 -0.2641 -0.2913  0.0001
 7024DDP     C242142   0.213  21.881  21.759  0.0934  0.0986  0.1470
 7024DDP     C342143  29.946  20.747  21.709  0.2634  0.0525  0.1121
 7024DDP     C442144   0.598  20.921  22.205 -0.3614 -0.1442  0.3216
 7025DDP     C142145   1.277  15.115  10.175  0.0378 -0.1204  0.1153
 7025DDP     P142146   1.335  15.284  10.665  0.0201 -0.0760  0.0771
 7025DDP     P242147   0.774  15.125  10.100 -0.0376 -0.1532  0.0885
 7025DDP     C242148   0.469  15.523  10.212 -0.0053 -0.2358 -0.1313
 7025DDP     C342149   1.548  15.405  11.041 -0.0607  0.0220 -0.1419
 7025DDP     C442150   1.679  15.117  10.070 -0.1292 -0.1023 -0.0553
 7026DDP     C142151  11.155   3.920   1.319 -0.0058 -0.1336  0.2529
 7026DDP     P142152  10.941   3.625   1.055  0.1412 -0.2424  0.1352
 7026DDP     P242153  11.034   4.250   1.069 -0.4371  0.0907 -0.0617
 7026DDP     C242154  10.682   4.435   0.957 -0.1437  0.1322  0.0737
 7026DDP     C342155  10.639   3.239   0.989  0.2737  0.3374 -0.0415
 7026DDP     C442156  11.457   3.925   1.563  0.0614  0.0275 -0.2219
 7027DDP     C142157  25.271   5.425   4.656  0.2815 -0.0576 -0.0082
 7027DDP     P142158  25.367   5.141   4.930 -0.0504  0.1508  0.1043
 7027DDP     P242159  25.273   5.786   4.391  0.0553  0.1236  0.1415
 7027DDP     C242160  25.497   5.949   4.851  0.0258 -0.2748 -0.1265
 7027DDP     C342161  25.451   4.662   4.919  0.1297  0.0041  0.0594
 7027DDP     C442162  24.885   5.502   4.726 -0.0736  0.2304  0.0313
 7028DDP     C142163   3.548  28.325   8.860  0.1457 -0.2211  0.1985
 7028DDP     P142164   3.260  28.397   9.283  0.0478 -0.1308  0.0295
 7028DDP     P242165   3.387  27.986   8.626  0.1965  0.0360  0.2608
 7028DDP     C242166   3.141  27.749   8.440  0.0968 -0.1002 -0.1749
 7028DDP     C342167   3.254  28.661   9.716 -0.3227  0.1306 -0.0183
 7028DDP     C442168   3.761  28.722   8.642  0.2500  0.1446 -0.0805
 7029DDP     C142169  14.144   5.784  14.274 -0.1177  0.0338  0.3518
 7029DDP     P142170  14.334   5.490  14.244  0.3742 -0.1311 -0.0161
 7029DDP     P242171  13.734   5.866  14.081 -0.0110 -0.3098 -0.2359
 7029DDP     C242172  13.426   5.621  14.092 -0.1808 -0.2934 -0.2198
 7029DDP     C342173  14.690   5.249  14.358 -0.1031 -0.3572 -0.0706
 7029DDP     C442174  14.478   5.972  14.292  0.0801 -0.1080  0.0292
 7030DDP     C142175  11.586   6.700   6.575  0.2486  0.0906 -0.3193
 7030DDP     P142176  11.231   6.856   6.871  0.0625 -0.3384 -0.1694
 7030DDP     P242177  11.515   6.650   6.113 -0.1157  0.0412  0.0418
 7030DDP     C242178  11.278   6.777   5.646 -0.1781 -0.0906  0.1547
 7030DDP     C342179  11.126   7.049   7.286  0.0596  0.0409 -0.0710
 7030DDP     C442180  11.987   6.853   6.650 -0.0665  0.1380 -0.0526
 7031DDP     C142181  14.064   4.414   6.317  0.2450 -0.4044  0.0525
 7031DDP     P142182  13.673   4.163   6.399  0.0113  0.2397  0.0331
 7031DDP     P242183  14.046   4.612   6.648 -0.0015  0.2716 -0.0134
 7031DDP     C242184  13.833   4.783   6.847 -0.0130  0.4072  0.0561
 7031DDP     C342185  13.349   3.902   6.200 -0.3623  0.0340  0.2402
 7031DDP     C442186  14.483   4.208   6.285  0.0116  0.2363  0.2234
 7032DDP     C142187  17.925   5.072  22.196 -0.0517  0.0061 -0.0248
 7032DDP     P142188  18.142   5.371  22.125 -0.0002 -0.1559  0.0526
 7032DDP     P242189  17.667   5.213  22.577  0.0382 -0.1952 -0.0220
 7032DDP     C242190  17.515   5.629  22.668  0.0975  0.0130 -0.2664
 7032DDP     C342191  18.035   5.756  22.010  0.0835  0.0477  0.4152
 7032DDP     C442192  17.803   4.839  21.932  0.1768 -0.1343 -0.1780
 7033DDP     C142193  29.238   7.810  19.160  0.0399  0.1396 -0.0082
 7033DDP     P142194  28.805   7.750  18.958 -0.1125  0.1618  0.0932
 7033DDP     P242195  29.513   8.152  19.175 -0.0839  0.0325 -0.0159
 7033DDP     C242196  29.854   8.277  19.078  0.1493 -0.1086 -0.1172
 7033DDP     C342197  28.489   7.529  18.891  0.3687  0.0373 -0.3414
 7033DDP     C442198  29.537   7.423  19.230 -0.0652  0.0753  0.3625
 7034DDP     C142199  12.671   2.108  27.626 -0.1709 -0.0364 -0.3872
 7034DDP     P142200  12.679   1.861  28.006  0.0320  0.2014  0.2336
 7034DDP     P242201  12.175   2.239  27.817 -0.1054  0.2259  0.1494
 7034DDP     C242202  12.099   2.654  27.935 -0.1211  0.0806 -0.0622
 7034DDP     C342203  12.363   1.635  28.143  0.0921  0.3310 -0.0881
 7034DDP     C442204  12.956   2.050  27.189 -0.3187 -0.0778  0.0637
 7035DDP     C142205  23.998   2.228   8.526  0.0500  0.2108 -0.0805
 7035DDP     P142206  23.988   2.526   8.835  0.0180 -0.2024 -0.1254
 7035DDP     P242207  24.353   2.475   8.403 -0.1657 -0.1560  0.1004
 7035DDP     C242208  24.753   2.657   8.225 -0.3708  0.1744  0.1994
 7035DDP     C342209  24.117   2.585   9.236 -0.1111 -0.0069 -0.0674
 7035DDP     C442210  23.646   1.919   8.339 -0.0983 -0.0105 -0.1546
 7036DDP     C142211  10.131  11.721   1.288  0.0913  0.2144 -0.1410
 7036DDP     P142212  10.134  11.972   0.921  0.0527 -0.1566  0.1479
 7036DDP     P242213  10.302  11.942   1.584  0.0266  0.1105  0.0590
 7036DDP     C242214  10.393  12.418   1.681  0.0564  0.2287  0.2641
 7036DDP     C342215  10.530  12.165   0.743  0.1114 -0.0384  0.0388
 7036DDP     C442216   9.971  11.397   1.430 -0.0947 -0.0964 -0.0280
 7037DDP     C142217  11.331  28.342   7.182  0.0951 -0.0048 -0.3743
 7037DDP     P142218  11.371  28.394   7.663  0.2806 -0.0325 -0.3614
 7037DDP     P242219  11.528  28.094   6.859 -0.0001  0.1909 -0.1827
 7037DDP     C242220  11.524  27.936   6.487  0.0271 -0.0099  0.1250
 7037DDP     C342221  11.790  28.222   7.745 -0.2944 -0.0028  0.1403
 7037DDP     C442222  11.260  28.742   7.180  0.0389  0.3386 -0.1306
 7038DDP     C142223  22.754  22.972   9.732  0.4042  0.1039 -0.1392
 7038DDP     P142224  22.524  22.878   9.420  0.1337  0.2405 -0.4064
 7038DDP     P242225  22.495  22.632   9.936  0.0073  0.1675 -0.1185
 7038DDP     C242226  22.567  22.564  10.331  0.1518 -0.3073 -0.1595
 7038DDP     C342227  22.521  22.955   8.938  0.1668 -0.1306  0.2270
 7038DDP     C442228  22.811  23.317  10.013 -0.4125 -0.0731  0.1926
 7039DDP     C142229   3.022  16.521   5.416  0.0889 -0.2870  0.3470
 7039DDP     P142230   2.710  16.673   5.064  0.0273 -0.1460 -0.0911
 7039DDP     P242231   3.264  16.911   5.605  0.0149 -0.0981  0.0773
 7039DDP     C242232   3.399  17.248   5.407  0.1444  0.1492  0.0415
 7039DDP     C342233   2.575  17.057   4.805  0.1625  0.1153 -0.0951
 7039DDP     C442234   2.998  16.135   5.593  0.1455 -0.0535  0.1419
 7040DDP     C142235  22.395   2.361  24.121 -0.2788  0.0890  0.2479
 7040DDP     P142236  22.154   2.132  24.490 -0.0555 -0.1908  0.2037
 7040DDP     P242237  22.202   2.127  23.834 -0.2786 -0.2735 -0.1115
 7040DDP     C242238  22.274   1.715  23.627  0.1296  0.2629  0.1336
 7040DDP     C342239  22.294   1.719  24.648  0.3259 -0.3864  0.1073
 7040DDP     C442240  22.741   2.574  24.179 -0.2675  0.0618 -0.0357
 7041DDP     C142241  18.880  18.407  20.113 -0.3296  0.1841 -0.3189
 7041DDP     P142242  18.936  18.733  19.817  0.3685 -0.2455  0.0579
 7041DDP     P242243  19.059  18.057  19.970 -0.2609 -0.2142  0.4046
 7041DDP     C242244  19.263  17.653  19.979 -0.2531  0.2191  0.1232
 7041DDP     C342245  19.279  19.032  19.671 -0.1108 -0.0442  0.0192
 7041DDP     C442246  18.881  18.463  20.541 -0.0150 -0.0433  0.1248
 7042DDP     C142247   3.130   4.073   4.483 -0.0660  0.0019  0.4562
 7042DDP     P142248   2.880   3.953   4.744 -0.2059 -0.0724 -0.2826
 7042DDP     P242249   2.948   4.427   4.214 -0.3065 -0.2518  0.2093
 7042DDP     C242250   3.221   4.770   4.295 -0.0724 -0.0359 -0.0210
 7042DDP     C342251   2.646   3.932   5.151  0.2763  0.1784  0.2351
 7042DDP     C442252   3.448   3.833   4.378  0.0991  0.0517  0.1002
 7043DDP     C142253   1.574   6.456  18.637 -0.0374  0.2272 -0.1595
 7043DDP     P142254   1.695   6.124  18.927 -0.2187 -0.0551 -0.0603
 7043DDP     P242255   1.857   6.487  18.309 -0.0211 -0.2346  0.0569
 7043DDP     C242256   2.267   6.551  18.158  0.1883  0.0534 -0.2306
 7043DDP     C342257   1.287   5.814  18.963 -0.2112 -0.0906  0.1786
 7043DDP     C442258   1.203   6.695  18.776  0.3476  0.3866  0.1221
 7044DDP     C142259  29.460  24.476   0.587  0.1760 -0.2698  0.4338
 7044DDP     P142260  29.187  24.180   0.497 -0.1107  0.2548 -0.2362
 7044DDP     P242261  29.655  24.426   0.913 -0.1820 -0.0339  0.3106
 7044DDP     C242262  29.918  24.560   1.194  0.2892 -0.2604  0.0650
 7044DDP     C342263  29.230  23.805   0.439  0.2025  0.1131 -0.1133
 7044DDP     C442264  29.432  24.683   0.120  0.0766  0.0475 -0.1483
 7045DDP     C142265  29.827  16.163  13.091  0.1702  0.4317 -0.1314
 7045DDP     P142266  29.721  16.441  12.617  0.5078  0.0812  0.0362
 7045DDP     P242267  29.534  16.047  13.463  0.2378 -0.0412 -0.0065
 7045DDP     C242268  29.119  16.119  13.532 -0.1733  0.1321  0.2785
 7045DDP     C342269  29.457  16.737  12.333 -0.0167  0.1616 -0.1468
 7045DDP     C442270  30.225  15.901  13.205  0.0838  0.1135  0.2660
 7046DDP     C142271  14.738  23.652   4.721  0.3769  0.1299 -0.0282
 7046DDP     P142272  14.337  23.737   4.788  0.0981 -0.2201  0.0596
 7046DDP     P242273  14.943  23.618   4.311  0.2843  0.0871  0.1590
 7046DDP     C242274  14.918  23.796   3.897 -0.1201  0.0743 -0.0811
 7046DDP     C342275  13.903  23.901   4.698  0.2605 -0.3275  0.1865
 7046DDP     C442276  15.075  23.608   5.002 -0.1869  0.3166 -0.1210
 7047DDP     C142277  24.635  26.065  29.897 -0.1975  0.0044  0.1714
 7047DDP     P142278  24.394  26.056  29.478 -0.2568 -0.3219  0.4975
 7047DDP     P242279  24.322  26.163  30.225 -0.0603  0.0046  0.0595
 7047DDP     C242280  23.985  25.999   0.078 -0.0366 -0.0254  0.2981
 7047DDP     C342281  24.353  26.474  29.135  0.0676 -0.1849 -0.2298
 7047DDP     C442282  25.051  26.230  30.034 -0.1519 -0.0880 -0.3324
 7048DDP     C142283   2.437   5.718  20.460  0.4731  0.0467  0.3240
 7048DDP     P142284   2.800   5.958  20.265  0.0180 -0.2213 -0.1357
 7048DDP     P242285   2.101   5.681  20.342  0.2206 -0.0810 -0.1418
 7048DDP     C242286   1.787   5.581  20.518  0.0197 -0.0587 -0.1386
 7048DDP     C342287   2.913   6.341  20.347 -0.0956  0.1683 -0.2170
 7048DDP     C442288   2.567   5.460  20.899 -0.0116 -0.1007 -0.2511
 7049DDP     C142289  18.248  12.864   4.161  0.1000 -0.0741  0.1507
 7049DDP     P142290  17.856  12.825   4.503 -0.2595  0.0614  0.1659
 7049DDP     P242291  18.547  12.506   3.976 -0.4173 -0.1541  0.4124
 7049DDP     C242292  18.414  12.096   3.682 -0.0840 -0.2651 -0.4380
 7049DDP     C342293  17.650  12.904   4.952  0.0013 -0.2167  0.1289
 7049DDP     C442294  18.232  13.260   3.927  0.0739  0.1846  0.0945
 7050DDP     C142295   1.949   6.916   5.525  0.0512  0.0724  0.0299
 7050DDP     P142296   1.604   7.176   5.420  0.1217 -0.2442 -0.0055
 7050DDP     P242297   2.289   6.742   5.304 -0.1622  0.2503  0.1871
 7050DDP     C242298   2.764   6.730   5.388 -0.3444 -0.0971 -0.1728
 7050DDP     C342299   1.166   7.171   5.106  0.0004 -0.0480 -0.0304
 7050DDP     C442300   1.947   6.741   5.962  0.0716 -0.1537 -0.3601
 7051DDP     C142301   2.623  22.604  16.635 -0.0304 -0.2227 -0.0391
 7051DDP     P142302   2.306  22.580  16.965 -0.1943  0.1045  0.0535
 7051DDP     P242303   2.712  22.331  16.369 -0.0372  0.1247 -0.0779
 7051DDP     C242304   3.095  22.192  16.246 -0.1432 -0.1099  0.0540
 7051DDP     C342305   1.848  22.673  17.008 -0.2699 -0.4935 -0.1535
 7051DDP     C442306   3.044  22.855  16.604  0.2002 -0.0739  0.5239
 7052DDP     C142307  22.091   8.620  28.780 -0.1223  0.2386 -0.2587
 7052DDP     P142308  21.680   8.807  28.550  0.1753 -0.1531  0.0754
 7052DDP     P242309  22.020   8.151  28.890  0.0085  0.0204 -0.1859
 7052DDP     C242310  21.831   7.849  29.216  0.2034  0.0817  0.0019
 7052DDP     C342311  21.534   8.881  28.084  0.3496 -0.1500 -0.2462
 7052DDP     C442312  22.353   8.855  28.505 -0.2896 -0.0127  0.2358
 7053DDP     C142313  20.088  23.038  28.989 -0.1709 -0.1038 -0.2051
 7053DDP     P142314  19.818  23.328  28.796 -0.2918 -0.4322 -0.0551
 7053DDP     P242315  20.071  22.596  29.001  0.2012  0.0079 -0.2858
 7053DDP     C242316  20.261  22.311  28.817  0.0978 -0.0235  0.0626
 7053DDP     C342317  19.667  23.752  28.900 -0.0534  0.3854  0.0031
 7053DDP     C442318  20.519  23.098  29.201 -0.0365 -0.0504  0.0265
 7054DDP     C142319  19.229   6.159   5.381 -0.0198  0.4743  0.1275
 7054DDP     P142320  18.871   6.341   5.368 -0.3825 -0.0531  0.1968
 7054DDP     P242321  19.526   6.455   5.342  0.1548  0.0764 -0.1164
 7054DDP     C242322  19.773   6.805   5.374 -0.0264 -0.0919 -0.2574
 7054DDP     C342323  18.696   6.684   5.524 -0.0404  0.0805  0.0396
 7054DDP     C442324  19.439   5.794   5.496 -0.2600  0.2229 -0.2372
 7055DDP     C142325  11.230  28.817  23.864  0.0386  0.3842  0.1724
 7055DDP     P142326  11.018  28.363  23.987  0.0879  0.3281  0.1730
 7055DDP     P242327  11.515  28.664  23.572 -0.1104  0.0766  0.4944
 7055DDP     C242328  11.862  28.756  23.453  0.0533  0.1110 -0.2960
 7055DDP     C342329  10.769  27.957  24.233  0.1057 -0.1079  0.0607
 7055DDP     C442330  11.023  29.185  23.749  0.1867 -0.0367  0.0980
 7056DDP     C142331  11.395  28.743  25.306  0.2805  0.1190  0.0042
 7056DDP     P142332  11.893  28.560  25.273  0.1662  0.0673 -0.0138
 7056DDP     P242333  11.376  29.180  25.339 -0.2313 -0.0897  0.1007
 7056DDP     C242334  11.036  29.459  25.075  0.3114  0.1823 -0.1017
 7056DDP     C342335  12.202  28.238  25.419  0.0212  0.0430 -0.1217
 7056DDP     C442336  11.107  28.506  24.984 -0.0610 -0.0828 -0.0013
 7057DDP     C142337  28.960  17.719  14.113 -0.0812  0.1231  0.0677
 7057DDP     P142338  28.892  17.976  13.724 -0.1900 -0.2124 -0.0864
 7057DDP     P242339  29.297  17.364  14.217 -0.0916  0.2506 -0.1843
 7057DDP     C242340  29.403  16.952  14.466 -0.2426  0.0954 -0.3690
 7057DDP     C342341  28.988  18.158  13.393 -0.0859  0.0222  0.1788
 7057DDP     C442342  28.747  17.838  14.470  0.0029  0.3174  0.0158
 7058DDP     C142343  13.247  10.484  13.257 -0.1435 -0.1609 -0.0904
 7058DDP     P142344  13.249  10.364  12.891  0.3039  0.0566 -0.0359
 7058DDP     P242345  13.115  10.914  13.473 -0.2173 -0.0693 -0.0587
 7058DDP     C242346  13.093  11.341  13.764  0.1089 -0.0944  0.0056
 7058DDP     C342347  12.992  10.049  12.699 -0.2699  0.2104 -0.0640
 7058DDP     C442348  13.471  10.269  13.563  0.1138 -0.1242  0.1818
 7059DDP     C142349  26.741   3.280  14.633  0.2115 -0.3528 -0.0675
 7059DDP     P142350  27.063   3.117  14.440  0.1405 -0.2395 -0.1059
 7059DDP     P242351  27.042   3.674  14.534 -0.1030  0.2122  0.0358
 7059DDP     C242352  27.272   4.043  14.505 -0.3662  0.2203 -0.0131
 7059DDP     C342353  27.528   3.180  14.318  0.0696 -0.0563  0.0178
 7059DDP     C442354  26.424   3.116  14.920 -0.0192 -0.0931 -0.0486
 7060DDP     C142355  11.144   3.136   7.041 -0.1677 -0.2777 -0.0042
 7060DDP     P142356  10.916   3.338   6.830 -0.0805  0.1021 -0.3056
 7060DDP     P242357  11.101   2.854   7.409  0.3207 -0.0363  0.1670
 7060DDP     C242358  11.133   2.755   7.795  0.0100  0.2058 -0.2113
 7060DDP     C342359  10.636   3.462   6.571  0.1449  0.0719 -0.0062
 7060DDP     C442360  11.515   3.100   7.098  0.1431  0.3296  0.1341
 7061DDP     C142361   1.008  26.560   5.113 -0.1251 -0.3777  0.0495
 7061DDP     P142362   1.117  26.902   5.552 -0.1820 -0.1156  0.0198
 7061DDP     P242363   0.670  26.624   4.816  0.0721  0.3201  0.0132
 7061DDP     C242364   0.449  26.160   4.587 -0.2243 -0.2459 -0.0384
 7061DDP     C342365   1.365  26.926   5.775  0.1199  0.2215  0.0359
 7061DDP     C442366   1.256  26.341   4.966 -0.2261  0.1010 -0.1113
 7062DDP     C142367  21.101  23.563   3.489  0.0678 -0.0648 -0.3481
 7062DDP     P142368  21.124  23.584   3.920  0.0469 -0.2180  0.1742
 7062DDP     P242369  21.351  23.811   3.278 -0.0256  0.0173 -0.2125
 7062DDP     C242370  21.402  24.168   3.010 -0.4692  0.1309 -0.0796
 7062DDP     C342371  20.918  23.650   4.279 -0.1192  0.0304  0.1158
 7062DDP     C442372  20.878  23.117   3.232 -0.1573  0.0701  0.3451
 7063DDP     C142373  21.827  29.170   3.199  0.0742  0.5073  0.0737
 7063DDP     P142374  22.174  29.477   3.214  0.0753 -0.2585  0.1367
 7063DDP     P242375  21.581  28.977   2.775  0.0880  0.1321  0.2087
 7063DDP     C242376  21.141  29.000   2.542 -0.1881  0.0255 -0.0116
 7063DDP     C342377  22.536  29.674   3.378  0.4803  0.1470 -0.0935
 7063DDP     C442378  21.711  28.888   3.485 -0.1281  0.0171 -0.1446
 7064DDP     C142379   9.696   4.901  14.878  0.2419 -0.2204  0.1690
 7064DDP     P142380   9.661   5.379  14.796  0.0787 -0.5348  0.1841
 7064DDP     P242381   9.700   4.801  14.479  0.1876 -0.0163 -0.4872
 7064DDP     C242382   9.487   4.584  14.120 -0.1838 -0.0683  0.2324
 7064DDP     C342383   9.399   5.645  14.432 -0.0719  0.0338  0.2153
 7064DDP     C442384   9.881   4.682  15.264  0.1361  0.3618  0.2153
 7065DDP     C142385   4.651  11.492   8.293  0.0956  0.2139  0.0559
 7065DDP     P142386   4.196  11.512   8.311 -0.0355  0.0066 -0.1546
 7065DDP     P242387   4.810  11.551   7.910  0.0929  0.2970  0.1124
 7065DDP     C242388   5.111  11.348   7.622 -0.0616  0.2920  0.1438
 7065DDP     C342389   3.941  11.221   8.135  0.1827  0.0290 -0.3969
 7065DDP     C442390   4.853  11.719   8.727 -0.0447 -0.3546 -0.1936
 7066DDP     C142391  27.449  28.928  16.746  0.2053 -0.0183 -0.0259
 7066DDP     P142392  27.517  28.816  16.307 -0.0208 -0.1290  0.3309
 7066DDP     P242393  27.087  28.779  16.843  0.4098  0.0511 -0.0577
 7066DDP     C242394  26.723  28.539  16.576  0.0854  0.0854  0.1259
 7066DDP     C342395  27.883  28.627  16.081  0.0806  0.1288 -0.1443
 7066DDP     C442396  27.779  29.156  17.111 -0.1446  0.0517 -0.0074
 7067DDP     C142397  12.549  25.470  20.104 -0.1404  0.3626  0.1311
 7067DDP     P142398  12.206  25.317  20.209  0.2407  0.2231  0.0136
 7067DDP     P242399  12.621  25.034  19.953  0.3014  0.6095  0.1130
 7067DDP     C242400  12.611  24.630  20.166  0.1780 -0.2801  0.1128
 7067DDP     C342401  12.043  24.929  20.342  0.1992 -0.0587 -0.1698
 7067DDP     C442402  12.759  25.764  19.945  0.2371 -0.0322  0.0693
 7068DDP     C142403  25.974   4.633  21.155  0.0712 -0.0205 -0.1116
 7068DDP     P142404  25.742   4.772  21.499  0.2067  0.4368 -0.0648
 7068DDP     P242405  25.946   4.233  21.103 -0.3043  0.1552  0.0405
 7068DDP     C242406  26.070   3.893  21.244  0.1752 -0.0773 -0.1760
 7068DDP     C342407  25.597   4.903  21.955 -0.0523  0.2708  0.0878
 7068DDP     C442408  26.431   4.809  21.104  0.1203 -0.2146 -0.3804
 7069DDP     C142409   8.000  15.956   2.945 -0.3495 -0.0379 -0.1271
 7069DDP     P142410   7.627  15.991   2.686 -0.1810  0.1162  0.1618
 7069DDP     P242411   7.918  16.068   3.294 -0.0478  0.0041 -0.0474
 7069DDP     C242412   8.044  16.021   3.669 -0.0061 -0.0415 -0.6079
 7069DDP     C342413   7.388  15.852   2.389 -0.1477 -0.0344  0.0974
 7069DDP     C442414   8.445  15.931   2.893 -0.1070  0.0818  0.1804
 7070DDP     C142415  28.856   3.150  29.738  0.0350  0.1202  0.1407
 7070DDP     P142416  28.836   2.974  30.051  0.1265  0.0529 -0.2243
 7070DDP     P242417  28.746   3.440  29.558 -0.2217  0.2683  0.2362
 7070DDP     C242418  28.602   3.886  29.628 -0.1776 -0.1467 -0.1855
 7070DDP     C342419  29.086   2.734   0.060  0.2247  0.2922 -0.0138
 7070DDP     C442420  29.144   2.881  29.446  0.1926 -0.0989  0.0245
 7071DDP     C142421   8.086   1.497  16.908 -0.1623 -0.1220 -0.0354
 7071DDP     P142422   7.731   1.758  17.198  0.1197 -0.3350  0.0154
 7071DDP     P242423   8.523   1.733  16.827 -0.2900 -0.2304 -0.1760
 7071DDP     C242424   8.962   1.776  16.739 -0.1218  0.0251  0.2464
 7071DDP     C342425   7.561   2.220  17.270  0.1015  0.1425 -0.0902
 7071DDP     C442426   7.870   1.243  16.550  0.2687 -0.0758 -0.0839
 7072DDP     C142427  26.555   0.976   2.686  0.2578 -0.2294  0.2382
 7072DDP     P142428  26.980   0.887   2.587  0.0403  0.0503 -0.1308
 7072DDP     P242429  26.216   0.801   2.955 -0.2628  0.1175  0.0060
 7072DDP     C242430  26.180   0.727   3.392 -0.0159 -0.0018 -0.0320
 7072DDP     C342431  27.281   1.051   2.397  0.0478  0.0820  0.2337
 7072DDP     C442432  26.510   1.443   2.679  0.2890  0.1393  0.1434
 7073DDP     C142433  22.769  18.242  16.547  0.0056  0.0670 -0.0888
 7073DDP     P142434  22.387  17.917  16.631 -0.0157 -0.1606  0.1449
 7073DDP     P242435  22.898  18.221  16.084  0.3215 -0.3516  0.3719
 7073DDP     C242436  23.291  18.181  15.830  0.1148 -0.1658 -0.3686
 7073DDP     C342437  22.327  17.432  16.599  0.1653 -0.3268 -0.2029
 7073DDP     C442438  22.803  18.603  16.827 -0.0850 -0.0626  0.1422
 7074DDP     C142439  19.205  15.321   5.542  0.1105 -0.0866  0.0102
 7074DDP     P142440  19.046  15.405   5.178 -0.0634  0.0592  0.4051
 7074DDP     P242441  18.948  15.092   5.784 -0.0073 -0.0214  0.0230
 7074DDP     C242442  18.781  14.683   5.991 -0.1437 -0.0663  0.0013
 7074DDP     C342443  18.674  15.611   4.961 -0.1934  0.1773 -0.2538
 7074DDP     C442444  19.524  15.581   5.455  0.2997  0.1394 -0.1174
 7075DDP     C142445  13.004  19.641   0.818 -0.0286 -0.1868  0.0465
 7075DDP     P142446  12.580  19.446   0.804 -0.1725  0.1935  0.0952
 7075DDP     P242447  13.244  19.453   0.498 -0.0603 -0.0171 -0.0261
 7075DDP     C242448  13.194  19.306   0.119 -0.1206  0.2188 -0.1382
 7075DDP     C342449  12.136  19.340   0.855  0.0653  0.0013 -0.2402
 7075DDP     C442450  13.263  19.845   1.181  0.1756 -0.1025 -0.2806
 7076DDP     C142451  11.869   5.752  29.558 -0.2129  0.3143  0.4202
 7076DDP     P142452  11.926   5.710  29.092 -0.1215 -0.1218 -0.0015
 7076DDP     P242453  12.021   5.423  29.710 -0.1296  0.1317  0.0611
 7076DDP     C242454  12.349   5.105  29.693 -0.0905 -0.3487 -0.0747
 7076DDP     C342455  12.216   5.603  28.790  0.1283 -0.1818  0.1631
 7076DDP     C442456  11.957   6.078  29.837  0.0253 -0.2857 -0.0440
 7077DDP     C142457  11.800  26.910  15.985  0.1625 -0.0811 -0.1092
 7077DDP     P142458  12.071  27.038  15.608  0.1301 -0.0836 -0.2202
 7077DDP     P242459  11.441  27.035  16.188  0.2180 -0.2239 -0.0400
 7077DDP     C242460  10.965  27.047  16.176  0.0512 -0.0501 -0.1700
 7077DDP     C342461  12.392  27.370  15.510 -0.0963 -0.3342 -0.2014
 7077DDP     C442462  12.088  26.633  16.092 -0.0633  0.0992  0.3591
 7078DDP     C142463  24.881  27.930  27.687 -0.0010  0.0210 -0.3322
 7078DDP     P142464  24.848  28.145  27.287 -0.1978  0.1020  0.0235
 7078DDP     P242465  25.280  27.912  27.681 -0.1199 -0.0995  0.1876
 7078DDP     C242466  25.465  27.976  27.328  0.3104  0.1311 -0.1788
 7078DDP     C342467  24.470  28.050  26.961  0.0579  0.1484  0.3598
 7078DDP     C442468  24.474  27.968  27.931 -0.4083  0.0983  0.1973
 7079DDP     C142469  11.838   6.748  11.299 -0.3076 -0.0336  0.1403
 7079DDP     P142470  11.927   6.616  11.773  0.2230  0.1289 -0.0516
 7079DDP     P242471  11.442   6.643  11.156 -0.2341  0.1115 -0.0575
 7079DDP     C242472  10.993   6.572  11.194  0.0525 -0.0231  0.0368
 7079DDP     C342473  11.718   6.463  12.166  0.0008 -0.0945  0.1092
 7079DDP     C442474  12.241   6.783  10.937  0.0885  0.1105  0.0769
 7080DDP     C142475  23.483  11.508   0.955  0.2017  0.3944  0.1736
 7080DDP     P142476  23.629  11.672   1.267  0.0545  0.1278 -0.3115
 7080DDP     P242477  23.269  11.760   0.608 -0.2378 -0.2331  0.0213
 7080DDP     C242478  22.916  11.789   0.345  0.0548  0.1837  0.2973
 7080DDP     C342479  23.616  11.876   1.671  0.1633  0.3125  0.4034
 7080DDP     C442480  23.322  11.173   1.189 -0.1547 -0.0020 -0.3745
 7081DDP     C142481  21.445  23.678  19.285  0.3969  0.0445 -0.1847
 7081DDP     P142482  21.639  23.837  18.876 -0.0227  0.0884  0.0118
 7081DDP     P242483  21.100  23.434  19.234  0.1137  0.1206 -0.0942
 7081DDP     C242484  20.917  23.122  18.917  0.5556  0.1003 -0.1360
 7081DDP     C342485  21.721  24.146  18.454 -0.0894  0.1606  0.0107
 7081DDP     C442486  21.399  23.697  19.725 -0.0402  0.1895 -0.2235
 7082DDP     C142487  18.300  11.971   1.760 -0.0414  0.0196 -0.2963
 7082DDP     P142488  18.060  11.727   1.897  0.1029  0.0309 -0.0150
 7082DDP     P242489  18.386  12.405   1.985 -0.1523  0.2545  0.0824
 7082DDP     C242490  18.159  12.450   2.303 -0.1308 -0.0091  0.0181
 7082DDP     C342491  17.614  11.590   1.904  0.1359  0.1747  0.0228
 7082DDP     C442492  18.628  11.690   1.589 -0.1401  0.2434 -0.1597
 7083DDP     C142493  27.365  22.664  26.990  0.1737  0.1413  0.0143
 7083DDP     P142494  26.994  22.747  26.868  0.0595  0.1330 -0.0566
 7083DDP     P242495  27.624  22.956  26.764  0.0640  0.2258 -0.1972
 7083DDP     C242496  27.878  22.978  26.322  0.0891  0.0116  0.1883
 7083DDP     C342497  26.717  22.395  26.743 -0.0689  0.2072 -0.0480
 7083DDP     C442498  27.529  22.487  27.386 -0.0578  0.0439  0.0880
 7084DDP     C142499  13.440  10.927  27.409 -0.0929 -0.2032  0.1306
 7084DDP     P142500  13.183  11.205  27.461  0.1990 -0.4518 -0.1577
 7084DDP     P242501  13.790  10.992  27.733 -0.0417 -0.2659 -0.0575
 7084DDP     C242502  14.137  11.238  27.735 -0.1663  0.0129  0.1115
 7084DDP     C342503  12.841  11.497  27.402  0.1674 -0.0084 -0.0258
 7084DDP     C442504  13.599  10.721  27.037 -0.1052  0.2543  0.4277
 7085DDP     C142505  24.595  28.184  16.588  0.3726 -0.0927  0.2203
 7085DDP     P142506  24.897  27.742  16.603  0.0043  0.0769 -0.0640
 7085DDP     P242507  24.360  28.347  16.199  0.2624  0.1198 -0.0475
 7085DDP     C242508  23.956  28.556  16.124 -0.0133 -0.0880 -0.1021
 7085DDP     C342509  24.856  27.409  16.875  0.1683 -0.3269 -0.4521
 7085DDP     C442510  24.420  28.334  16.970  0.2547  0.0649 -0.2672
 7086DDP     C142511  13.661   6.608  27.968 -0.4388 -0.1510 -0.1561
 7086DDP     P142512  13.387   6.543  28.364  0.2269  0.0148  0.0053
 7086DDP     P242513  13.334   6.689  27.674  0.0980 -0.1060  0.0860
 7086DDP     C242514  13.410   6.666  27.243 -0.1093 -0.0035  0.0222
 7086DDP     C342515  12.890   6.595  28.436  0.3672 -0.0104  0.1099
 7086DDP     C442516  14.088   6.418  28.046 -0.0118 -0.1370 -0.1236
 7087DDP     C142517  27.557   0.862  20.912  0.2493  0.0530 -0.1960
 7087DDP     P142518  27.326   1.304  20.756  0.4674 -0.1153 -0.2879
 7087DDP     P242519  27.957   0.697  20.775  0.0752 -0.2989 -0.0935
 7087DDP     C242520  28.373   0.482  20.930  0.0482  0.1281  0.1421
 7087DDP     C342521  27.106   1.686  20.805 -0.0484 -0.2082 -0.0445
 7087DDP     C442522  27.422   0.506  21.188 -0.0267  0.2696  0.3065
 7088DDP     C142523  18.835  11.735   8.962 -0.0727  0.1182 -0.4168
 7088DDP     P142524  19.092  11.535   9.230  0.2900 -0.0605  0.0570
 7088DDP     P242525  18.749  11.498   8.558  0.0453  0.1313 -0.0762
 7088DDP     C242526  18.909  11.412   8.090 -0.0700 -0.0350  0.0053
 7088DDP     C342527  19.472  11.363   9.386  0.1777 -0.0633 -0.0810
 7088DDP     C442528  18.650  12.185   9.046 -0.1007  0.0131  0.3783
 7089DDP     C142529   1.571   8.238  20.156  0.0176 -0.0806  0.2078
 7089DDP     P142530   1.490   8.195  20.544  0.0845  0.1622 -0.1022
 7089DDP     P242531   1.298   8.175  19.815  0.0189 -0.1957  0.2201
 7089DDP     C242532   0.985   8.438  19.653  0.1318  0.0038 -0.0760
 7089DDP     C342533   1.578   7.949  20.927 -0.0357  0.0190  0.2007
 7089DDP     C442534   1.910   8.126  19.820 -0.4521 -0.0955 -0.5433
 7090DDP     C142535  10.499   1.475  26.103 -0.2930  0.1450 -0.1402
 7090DDP     P142536  10.284   1.525  26.597  0.0211 -0.0491 -0.0271
 7090DDP     P242537  10.311   1.662  25.862  0.0814 -0.3945 -0.1712
 7090DDP     C242538  10.145   1.630  25.472 -0.1069 -0.0810 -0.0768
 7090DDP     C342539  10.201   1.962  26.703 -0.4385 -0.1001 -0.0476
 7090DDP     C442540  10.812   1.199  26.005 -0.2269 -0.1565  0.0213
 7091DDP     C142541  28.658  22.910  23.310 -0.0443  0.2462 -0.1200
 7091DDP     P142542  28.610  22.858  23.735  0.1776 -0.0649  0.1190
 7091DDP     P242543  28.510  22.561  23.231 -0.0337  0.0923  0.2697
 7091DDP     C242544  28.237  22.279  23.107 -0.0161  0.1570 -0.0417
 7091DDP     C342545  28.391  22.678  24.136  0.1042  0.1563  0.0192
 7091DDP     C442546  28.849  23.310  23.245 -0.0810 -0.3005 -0.0082
 7092DDP     C142547  18.092  13.013  27.667  0.4455  0.0351 -0.1452
 7092DDP     P142548  18.167  13.027  27.208  0.2462 -0.1360 -0.2162
 7092DDP     P242549  18.337  12.776  27.836  0.0343 -0.2617 -0.1784
 7092DDP     C242550  18.215  12.590  28.211  0.1662 -0.4691 -0.1028
 7092DDP     C342551  18.435  13.154  26.904 -0.1232 -0.0034  0.3991
 7092DDP     C442552  17.698  13.218  27.701  0.2055 -0.0875  0.1986
 7093DDP     C142553   6.080  15.060   3.769  0.2000  0.2758 -0.1255
 7093DDP     P142554   6.314  14.664   3.730 -0.2578 -0.0609 -0.0481
 7093DDP     P242555   6.402  15.318   3.900 -0.0347  0.3373 -0.0171
 7093DDP     C242556   6.659  15.261   4.304 -0.0898 -0.0994  0.2794
 7093DDP     C342557   6.163  14.245   3.557 -0.2155 -0.0382 -0.0149
 7093DDP     C442558   5.734  15.281   3.558 -0.3042 -0.2108 -0.0885
 7094DDP     C142559  28.093   5.520  25.577 -0.0088 -0.1302 -0.0571
 7094DDP     P142560  28.400   5.785  25.801  0.0036 -0.1693 -0.3941
 7094DDP     P242561  28.415   5.166  25.311 -0.0441  0.1498  0.1539
 7094DDP     C242562  28.824   4.947  25.201 -0.0786 -0.0236 -0.0941
 7094DDP     C342563  28.359   5.930  26.322  0.0482 -0.3432 -0.2184
 7094DDP     C442564  27.686   5.404  25.665 -0.1064  0.1868 -0.3341
 7095DDP     C142565  21.997   7.554   5.552  0.0830  0.2301  0.1232
 7095DDP     P142566  22.393   7.505   5.901  0.1679  0.1397 -0.0498
 7095DDP     P242567  22.138   7.353   5.228  0.2420  0.2229 -0.1099
 7095DDP     C242568  22.312   7.285   4.818  0.0911 -0.0288  0.0169
 7095DDP     C342569  22.710   7.346   5.796 -0.0394  0.0010  0.1034
 7095DDP     C442570  21.572   7.528   5.510  0.2712  0.0064 -0.1873
 7096DDP     C142571  18.161  18.173  19.543  0.0991 -0.1861  0.0221
 7096DDP     P142572  18.456  18.302  19.139 -0.0761 -0.1294  0.1812
 7096DDP     P242573  17.775  18.183  19.595 -0.1877 -0.0543 -0.0250
 7096DDP     C242574  17.383  18.174  19.684 -0.1088  0.2323 -0.1219
 7096DDP     C342575  18.682  18.458  18.713 -0.1977  0.1633  0.1445
 7096DDP     C442576  18.426  18.130  19.934 -0.0614 -0.2011  0.1174
 7097DDP     C142577   0.993  17.861  27.393  0.0400 -0.2453  0.0889
 7097DDP     P142578   1.234  17.694  27.652  0.2565  0.0182  0.1320
 7097DDP     P242579   0.939  18.329  27.375  0.2330  0.1424  0.0929
 7097DDP     C242580   0.849  18.563  27.014  0.0377  0.1031  0.1482
 7097DDP     C342581   1.559  17.998  27.707 -0.1172  0.0729 -0.1132
 7097DDP     C442582   0.795  17.629  27.103 -0.1113 -0.0506  0.1915
 7098DDP     C142583  22.964  14.467   2.563 -0.2036  0.0768 -0.2118
 7098DDP     P142584  22.574  14.478   2.962  0.0611 -0.0233  0.1652
 7098DDP     P242585  22.857  14.567   2.222  0.0545  0.1032 -0.1697
 7098DDP     C242586  22.744  14.977   1.931  0.0683  0.0092  0.0019
 7098DDP     C342587  22.383  14.342   3.256  0.0612 -0.3141  0.1669
 7098DDP     C442588  23.255  14.128   2.716 -0.1338 -0.0576  0.3462
 7099DDP     C142589   7.862   2.197  15.384  0.3526  0.1266 -0.2100
 7099DDP     P142590   8.240   1.977  15.340  0.0956 -0.0195 -0.1767
 7099DDP     P242591   7.529   2.194  15.137 -0.0217  0.0724 -0.2118
 7099DDP     C242592   7.388   2.384  14.783  0.2031 -0.0664 -0.2071
 7099DDP     C342593   8.159   1.570  15.077 -0.0954 -0.0278 -0.1054
 7099DDP     C442594   7.979   2.685  15.455  0.2437 -0.0881  0.1592
 7100DDP     C142595   1.083  10.183  28.950 -0.1335  0.0879  0.3871
 7100DDP     P142596   0.998   9.785  29.015 -0.4116 -0.1483 -0.2896
 7100DDP     P242597   1.514  10.005  28.979  0.1416 -0.2639 -0.0237
 7100DDP     C242598   1.831   9.806  28.746 -0.3487  0.0741  0.0064
 7100DDP     C342599   0.926   9.317  28.959  0.3156 -0.3634 -0.3201
 7100DDP     C442600   1.143  10.354  28.503  0.3083 -0.0406  0.0927
 7101DDP     C142601  26.669  18.575  24.186  0.2163 -0.4832  0.2753
 7101DDP     P142602  26.996  18.575  24.569 -0.1663  0.1961 -0.0013
 7101DDP     P242603  26.940  18.721  23.857  0.0290 -0.1543 -0.1799
 7101DDP     C242604  27.334  18.858  23.652 -0.2023  0.1724  0.1485
 7101DDP     C342605  27.203  18.882  24.764  0.1639 -0.2999  0.1658
 7101DDP     C442606  26.224  18.454  24.178  0.2930  0.3350 -0.1034
 7102DDP     C142607  10.497  29.335  21.945 -0.0203 -0.2870  0.4063
 7102DDP     P142608  10.252  29.095  22.351  0.1405  0.2606 -0.1504
 7102DDP     P242609  10.118  29.624  21.774 -0.3455 -0.1690 -0.2280
 7102DDP     C242610   9.814  29.928  21.565  0.2223 -0.0624 -0.1773
 7102DDP     C342611  10.337  28.764  22.541 -0.0231 -0.1218 -0.0840
 7102DDP     C442612  10.850  29.322  21.887 -0.2680 -0.2923 -0.0060
 7103DDP     C142613  10.553   6.435  26.591  0.4253 -0.0773  0.1066
 7103DDP     P142614  10.219   6.226  26.820  0.0545 -0.1632 -0.2232
 7103DDP     P242615  10.549   6.521  26.184  0.0730 -0.1200 -0.1134
 7103DDP     C242616  10.446   6.787  25.794 -0.0454  0.0779 -0.2105
 7103DDP     C342617  10.124   6.070  27.202  0.2235  0.0395  0.0768
 7103DDP     C442618  10.875   6.553  26.879 -0.0681 -0.0842  0.1604
 7104DDP     C142619  20.248  20.573  16.084  0.0071  0.1377 -0.0512
 7104DDP     P142620  19.991  20.965  16.150  0.0642 -0.0310 -0.2499
 7104DDP     P242621  20.423  20.500  16.381  0.1376  0.1286  0.0243
 7104DDP     C242622  20.508  20.597  16.872  0.0403  0.1604  0.0462
 7104DDP     C342623  19.939  21.168  16.624  0.1722  0.2766  0.0995
 7104DDP     C442624  20.163  20.195  15.728  0.2599 -0.0904  0.1280
 7105DDP     C142625  22.428  29.137   9.197 -0.0804  0.0568  0.0020
 7105DDP     P142626  22.675  29.271   8.801 -0.3349 -0.0872 -0.1006
 7105DDP     P242627  22.103  29.488   9.365 -0.2178  0.0716 -0.1182
 7105DDP     C242628  21.947  29.784   9.616 -0.4171  0.0959 -0.0983
 7105DDP     C342629  23.058  29.413   8.580 -0.0056  0.1435 -0.0340
 7105DDP     C442630  22.318  28.796   9.486  0.1185 -0.1315  0.0029
 7106DDP     C142631   0.772  11.241  13.080 -0.2501 -0.0647  0.2654
 7106DDP     P142632   0.641  10.781  13.046  0.1765 -0.1853  0.0326
 7106DDP     P242633   1.135  11.053  13.377 -0.1121 -0.0963 -0.0145
 7106DDP     C242634   1.604  11.210  13.600  0.1989  0.0617  0.2919
 7106DDP     C342635   0.400  10.421  12.830  0.1533  0.2007  0.2060
 7106DDP     C442636   0.649  11.642  13.000  0.1962  0.3076 -0.0411
 7107DDP     C142637  25.187  21.185  28.060 -0.1680 -0.2908 -0.2520
 7107DDP     P142638  25.631  21.209  28.296  0.0892 -0.0164  0.0169
 7107DDP     P242639  25.407  20.982  27.770 -0.0904 -0.0268 -0.2741
 7107DDP     C242640  25.340  21.101  27.327 -0.3101  0.0815  0.1239
 7107DDP     C342641  25.980  21.193  28.597  0.0418  0.0512 -0.1990
 7107DDP     C442642  24.866  21.375  28.035  0.1885 -0.1847 -0.1772
 7108DDP     C142643  27.932  21.193  18.891 -0.2964 -0.2169  0.1009
 7108DDP     P142644  27.747  20.848  18.612  0.0032 -0.1048 -0.2300
 7108DDP     P242645  28.331  21.362  18.659  0.1927 -0.1783 -0.1315
 7108DDP     C242646  28.732  21.483  18.591  0.1088  0.0800 -0.3481
 7108DDP     C342647  27.306  20.729  18.470 -0.1294  0.2909 -0.1528
 7108DDP     C442648  27.775  21.391  19.318 -0.1023 -0.0147 -0.0547
 7109DDP     C142649  11.241   5.710   0.333 -0.1755 -0.0677 -0.0281
 7109DDP     P142650  11.278   5.554   0.759 -0.2886  0.0396  0.0631
 7109DDP     P242651  11.557   5.833   0.016 -0.2956  0.1105  0.0062
 7109DDP     C242652  11.502   6.096  30.022 -0.0655 -0.3292 -0.3352
 7109DDP     C342653  11.680   5.605   1.081  0.1639  0.0977 -0.1793
 7109DDP     C442654  10.829   5.869   0.149 -0.2121  0.3960 -0.1070
 7110DDP     C142655  24.674   3.076  16.003 -0.0191  0.2581  0.2034
 7110DDP     P142656  24.616   2.757  16.343  0.1371  0.1619  0.0407
 7110DDP     P242657  24.566   2.847  15.671  0.3889 -0.0210  0.4558
 7110DDP     C242658  24.226   2.617  15.511  0.1019 -0.1963 -0.2285
 7110DDP     C342659  24.520   2.511  16.724 -0.0867  0.1357  0.2882
 7110DDP     C442660  24.876   3.435  16.096  0.2391  0.0065 -0.2037
 7111DDP     C142661  28.205   8.042  17.685  0.0997 -0.0419 -0.0145
 7111DDP     P142662  27.877   7.963  17.772 -0.0462  0.1030 -0.0868
 7111DDP     P242663  28.612   7.784  17.677  0.0193  0.0132  0.1958
 7111DDP     C242664  28.964   7.948  17.532 -0.0949  0.0238 -0.0438
 7111DDP     C342665  27.857   7.779  18.073  0.0433 -0.0303 -0.2819
 7111DDP     C442666  28.180   8.433  17.788 -0.2181  0.2031  0.0289
 7112DDP     C142667  22.965  13.477   6.159 -0.1794  0.1561  0.1145
 7112DDP     P142668  22.706  13.760   5.968  0.1801  0.2895 -0.0060
 7112DDP     P242669  22.927  13.031   6.161 -0.2265 -0.1357  0.0502
 7112DDP     C242670  22.968  12.664   6.203  0.1102  0.1661 -0.2263
 7112DDP     C342671  22.404  14.053   6.045 -0.0954 -0.1383 -0.2172
 7112DDP     C442672  23.263  13.738   6.129 -0.0635 -0.0929  0.1702
 7113DDP     C142673   8.055  21.639  27.568  0.3654 -0.2680 -0.1069
 7113DDP     P142674   7.792  21.472  27.889  0.0495 -0.0744 -0.2087
 7113DDP     P242675   8.312  22.072  27.523 -0.0947 -0.2156 -0.1039
 7113DDP     C242676   8.515  22.414  27.638 -0.1734  0.0332 -0.3039
 7113DDP     C342677   7.755  21.205  28.279  0.3513  0.0998  0.1302
 7113DDP     C442678   8.153  21.346  27.181 -0.2828 -0.3042 -0.1926
 7114DDP     C142679  14.054  14.523  10.178  0.1793  0.1238 -0.0008
 7114DDP     P142680  14.048  14.798  10.457  0.0543  0.2644  0.0120
 7114DDP     P242681  14.516  14.420  10.082  0.1602 -0.0458 -0.0574
 7114DDP     C242682  14.879  14.677  10.003 -0.0355 -0.0886  0.0788
 7114DDP     C342683  14.425  14.784  10.839  0.0895 -0.4059 -0.0549
 7114DDP     C442684  13.784  14.252  10.258 -0.1332  0.1654 -0.0890
 7115DDP     C142685  30.248  12.577  15.662  0.1181 -0.1152 -0.2016
 7115DDP     P142686  30.282  12.111  15.765 -0.1463 -0.0994 -0.1871
 7115DDP     P242687  29.898  12.623  15.573 -0.4390  0.1436 -0.1199
 7115DDP     C242688  29.876  12.436  15.152  0.2203 -0.3153  0.0577
 7115DDP     C342689  30.142  11.711  15.656  0.3101 -0.0261  0.0242
 7115DDP     C442690   0.298  12.875  15.508  0.0227 -0.0950  0.1839
 7116DDP     C142691  11.797  25.348  19.777  0.0511  0.0446  0.0143
 7116DDP     P142692  11.433  25.421  20.038  0.0623  0.1698 -0.1343
 7116DDP     P242693  12.122  25.054  19.784  0.4754 -0.1453  0.0307
 7116DDP     C242694  12.372  24.907  19.491 -0.0894  0.4035 -0.1014
 7116DDP     C342695  11.313  25.515  20.532  0.5236 -0.2927  0.1291
 7116DDP     C442696  11.576  25.509  19.384  0.1027  0.1235  0.0659
 7117DDP     C142697  12.283  29.171   7.403  0.3016  0.1499  0.0637
 7117DDP     P142698  12.766  29.163   7.575  0.0935  0.2526  0.0961
 7117DDP     P242699  12.342  29.287   7.027 -0.0151  0.0425  0.1477
 7117DDP     C242700  12.058  29.437   6.597 -0.0198 -0.0319 -0.0789
 7117DDP     C342701  13.084  28.855   7.636 -0.0709 -0.2995  0.0676
 7117DDP     C442702  11.890  29.082   7.618  0.0343 -0.0536  0.1248
 7118DDP     C142703  13.539   1.952  14.494  0.3046  0.0138  0.1669
 7118DDP     P142704  13.366   2.280  14.586 -0.1633 -0.2693 -0.0337
 7118DDP     P242705  13.551   1.994  14.012  0.1205  0.3046  0.0940
 7118DDP     C242706  13.154   1.855  13.659  0.3050 -0.1454  0.2869
 7118DDP     C342707  13.256   2.585  14.851  0.0546  0.0199 -0.0500
 7118DDP     C442708  13.610   1.526  14.780  0.0231  0.2089 -0.1981
 7119DDP     C142709  17.145   2.974  22.172  0.0592  0.2747  0.0387
 7119DDP     P142710  17.347   3.025  22.513 -0.0793 -0.1421 -0.0703
 7119DDP     P242711  17.345   3.149  21.858 -0.1071 -0.0639 -0.1265
 7119DDP     C242712  17.784   3.288  21.807  0.2433 -0.2071 -0.0434
 7119DDP     C342713  17.612   3.336  22.717 -0.0117 -0.0804  0.0799
 7119DDP     C442714  16.768   2.741  21.991  0.3739 -0.2235  0.0698
 7120DDP     C142715  26.736  28.146  24.133 -0.0188 -0.2045 -0.0182
 7120DDP     P142716  26.309  28.177  24.204 -0.2952 -0.0821  0.1666
 7120DDP     P242717  27.071  28.398  24.311 -0.1270  0.0943  0.3382
 7120DDP     C242718  27.472  28.335  24.501 -0.0073 -0.2317  0.3106
 7120DDP     C342719  26.010  28.522  24.243 -0.1880  0.2812  0.3633
 7120DDP     C442720  26.871  27.811  23.724 -0.1897 -0.2503 -0.1227
 7121DDP     C142721   2.851  22.382  17.999 -0.0038 -0.0400  0.2085
 7121DDP     P142722   2.602  22.588  18.311 -0.2477 -0.0972 -0.0589
 7121DDP     P242723   2.755  22.200  17.712 -0.1291 -0.1553 -0.0971
 7121DDP     C242724   2.452  21.847  17.522 -0.1640 -0.0299  0.1437
 7121DDP     C342725   2.488  22.507  18.757  0.1354 -0.1457 -0.1971
 7121DDP     C442726   3.341  22.493  18.040  0.2402 -0.2695 -0.2250
 7122DDP     C142727  17.829  26.915  23.190 -0.0374 -0.2466  0.0733
 7122DDP     P142728  17.596  26.705  22.927 -0.2491  0.0531  0.1580
 7122DDP     P242729  17.874  27.312  23.095 -0.0336  0.0912 -0.3195
 7122DDP     C242730  17.942  27.608  22.755 -0.1188 -0.0453 -0.1492
 7122DDP     C342731  17.756  26.609  22.563 -0.0656  0.1747 -0.0696
 7122DDP     C442732  17.831  26.871  23.575 -0.2295 -0.0572 -0.0294
 7123DDP     C142733   7.857  29.578  22.977 -0.0319 -0.2380 -0.2687
 7123DDP     P142734   8.268  29.614  22.784  0.3411  0.2490  0.0479
 7123DDP     P242735   7.589  29.656  22.556  0.2110 -0.0270  0.1475
 7123DDP     C242736   7.537  30.040  22.185 -0.0435 -0.3591 -0.1452
 7123DDP     C342737   8.678  29.405  22.623 -0.2761 -0.0559  0.0790
 7123DDP     C442738   7.678  29.486  23.339  0.2048  0.1495  0.2906
 7124DDP     C142739  24.062  27.290   5.520 -0.0567  0.1256 -0.0887
 7124DDP     P142740  23.733  27.476   5.795  0.0710  0.2221  0.0910
 7124DDP     P242741  24.087  26.889   5.356  0.1089  0.1015 -0.0411
 7124DDP     C242742  23.962  26.790   4.972 -0.2004  0.2537  0.1423
 7124DDP     C342743  23.648  27.638   6.125  0.4149  0.1129  0.0027
 7124DDP     C442744  24.499  27.338   5.393 -0.2202  0.3194 -0.1347
 7125DDP     C142745   2.648  25.618   9.950 -0.1041 -0.2216  0.0271
 7125DDP     P142746   2.622  25.089  10.122 -0.0079 -0.0472  0.0825
 7125DDP     P242747   2.224  25.643   9.840  0.0413 -0.0358  0.0438
 7125DDP     C242748   1.917  25.265   9.891 -0.0624  0.2318 -0.2708
 7125DDP     C342749   3.034  24.814  10.257  0.0254  0.3713  0.1000
 7125DDP     C442750   3.053  25.879   9.853 -0.0140  0.4550 -0.1996
 7126DDP     C142751   9.360   7.760  11.952 -0.1511  0.1532  0.1746
 7126DDP     P142752   9.498   7.512  12.367 -0.1427 -0.2450  0.1748
 7126DDP     P242753   9.113   7.640  11.608 -0.0939  0.0088  0.0960
 7126DDP     C242754   9.021   7.438  11.343 -0.0035  0.1033 -0.2704
 7126DDP     C342755   9.623   7.223  12.685 -0.4026  0.4924 -0.0975
 7126DDP     C442756   9.519   8.172  11.776  0.0349 -0.2209  0.0765
 7127DDP     C142757   4.910  15.605  22.695 -0.2726  0.1568  0.0206
 7127DDP     P142758   5.272  15.341  22.827  0.1271  0.1061  0.2479
 7127DDP     P242759   4.629  15.533  22.388 -0.0810 -0.0741  0.3735
 7127DDP     C242760   4.360  15.243  22.263  0.2071 -0.2458  0.0783
 7127DDP     C342761   5.287  14.910  22.884 -0.1423 -0.0547 -0.2751
 7127DDP     C442762   4.702  15.963  22.867  0.0293 -0.0940 -0.0465
 7128DDP     C142763   1.692  27.949   4.726  0.0236  0.0789  0.0147
 7128DDP     P142764   1.367  27.854   4.513  0.0488  0.0548  0.3244
 7128DDP     P242765   2.062  27.633   4.832 -0.0344 -0.2355  0.1179
 7128DDP     C242766   2.490  27.688   4.845 -0.0637  0.0939 -0.5087
 7128DDP     C342767   0.997  28.014   4.397  0.2118  0.2851 -0.1989
 7128DDP     C442768   1.482  28.312   4.930  0.0753  0.0684  0.1752
 7129DDP     C142769   8.596   6.949   3.189 -0.1876 -0.0926  0.0114
 7129DDP     P142770   8.418   7.137   3.578  0.2555  0.1975  0.1458
 7129DDP     P242771   9.022   6.956   3.056  0.2877  0.1823  0.1611
 7129DDP     C242772   9.328   7.083   3.030 -0.0695  0.3289  0.1684
 7129DDP     C342773   8.300   7.618   3.549  0.1211 -0.0355 -0.0075
 7129DDP     C442774   8.384   6.640   2.890  0.1544 -0.1203  0.1782
 7130DDP     C142775   6.097  20.880   8.313 -0.2310  0.0638 -0.0348
 7130DDP     P142776   5.917  20.441   8.059  0.1135  0.2768  0.1212
 7130DDP     P242777   5.996  21.239   8.652  0.0484  0.0781 -0.0421
 7130DDP     C242778   5.757  21.129   8.959 -0.3732  0.0439  0.3010
 7130DDP     C342779   5.871  20.092   7.715 -0.1593  0.0157  0.0616
 7130DDP     C442780   6.598  20.928   8.246  0.1929 -0.1024 -0.0153
 7131DDP     C142781  25.182   7.823   8.455  0.0016  0.1191 -0.0534
 7131DDP     P142782  25.526   8.090   8.461 -0.0368 -0.1771  0.1661
 7131DDP     P242783  25.258   7.666   8.068  0.3043  0.0686  0.1328
 7131DDP     C242784  25.546   7.355   7.919  0.1211  0.0487  0.2233
 7131DDP     C342785  25.674   8.549   8.502 -0.2775  0.1656 -0.0395
 7131DDP     C442786  25.024   7.907   8.859  0.1615 -0.1664  0.2833
 7132DDP     C142787  26.124   2.864  24.462 -0.2174  0.0674  0.3359
 7132DDP     P142788  25.939   2.496  24.158 -0.1784 -0.0877 -0.1155
 7132DDP     P242789  26.063   3.018  24.806  0.0893 -0.0332 -0.2162
 7132DDP     C242790  26.247   3.239  25.177  0.0473 -0.2074  0.1361
 7132DDP     C342791  26.122   2.527  23.736  0.3385  0.0065  0.3383
 7132DDP     C442792  26.368   3.141  24.246  0.1275  0.1086 -0.0678
 7133DDP     C142793  17.965  11.990   9.391  0.0359 -0.1389 -0.2188
 7133DDP     P142794  17.549  12.065   9.434 -0.0950 -0.0007  0.2087
 7133DDP     P242795  18.016  11.746   9.746 -0.0037  0.0111  0.1145
 7133DDP     C242796  18.096  11.366   9.885 -0.2292 -0.0522  0.0611
 7133DDP     C342797  17.352  12.419   9.629  0.2612 -0.1626  0.0777
 7133DDP     C442798  18.246  12.272   9.299  0.0847  0.0234  0.0570
 7134DDP     C142799   3.387   5.118   4.884  0.0782 -0.3016 -0.0217
 7134DDP     P142800   3.208   5.441   5.181  0.1803 -0.0691  0.0868
 7134DDP     P242801   3.054   5.202   4.545 -0.0559  0.0736 -0.2087
 7134DDP     C242802   2.750   5.397   4.351 -0.1001 -0.0597  0.1292
 7134DDP     C342803   3.387   5.767   5.468  0.2775 -0.0954 -0.1119
 7134DDP     C442804   3.698   4.778   5.014 -0.0045  0.4028  0.2410
 7135DDP     C142805  26.879   9.531   5.753 -0.0012 -0.0183 -0.2395
 7135DDP     P142806  26.967   9.090   5.727  0.2160  0.3520 -0.1358
 7135DDP     P242807  26.663   9.789   5.528  0.0804  0.3101  0.2093
 7135DDP     C242808  26.342   9.730   5.262 -0.1022  0.1624  0.0308
 7135DDP     C342809  27.177   8.850   5.540  0.2071 -0.0417 -0.4176
 7135DDP     C442810  27.017   9.931   5.999 -0.0484 -0.0954  0.4345
 7136DDP     C142811  17.362   9.588  24.878 -0.3401 -0.0484  0.1443
 7136DDP     P142812  16.956   9.494  24.837 -0.0740  0.1962 -0.0827
 7136DDP     P242813  17.567   9.699  25.217  0.3578 -0.1583  0.3705
 7136DDP     C242814  17.554   9.653  25.740  0.1426  0.3015  0.0690
 7136DDP     C342815  16.551   9.676  24.662  0.2079  0.1817 -0.1814
 7136DDP     C442816  17.631   9.312  24.611  0.2238  0.1415 -0.2041
 7137DDP     C142817   9.781   6.610  12.848 -0.0189 -0.1668 -0.0277
 7137DDP     P142818   9.634   6.466  12.477  0.0309 -0.2268 -0.0300
 7137DDP     P242819   9.645   6.937  13.083  0.3869 -0.0133 -0.1861
 7137DDP     C242820   9.494   7.328  13.207 -0.0341  0.0180  0.0317
 7137DDP     C342821   9.562   6.233  12.132 -0.0161  0.2409  0.3431
 7137DDP     C442822  10.114   6.401  12.756  0.0386 -0.0656  0.0799
 7138DDP     C142823   2.898  28.557  14.883  0.1454  0.0184  0.0429
 7138DDP     P142824   2.495  28.367  14.864 -0.1607  0.0429 -0.2272
 7138DDP     P242825   3.247  28.259  14.927 -0.0154  0.2208  0.1105
 7138DDP     C242826   3.701  28.223  15.052 -0.0066 -0.0999  0.3463
 7138DDP     C342827   2.156  28.050  15.062  0.0096  0.1670  0.0574
 7138DDP     C442828   2.981  28.897  14.746  0.0124 -0.1869 -0.0571
 7139DDP     C142829  14.318  11.162  20.001  0.4396 -0.2005  0.2324
 7139DDP     P142830  14.556  10.961  20.334  0.2496 -0.0751  0.2294
 7139DDP     P242831  14.312  10.814  19.713  0.1079  0.4029  0.1062
 7139DDP     C242832  14.195  10.758  19.284 -0.1588 -0.0040 -0.0425
 7139DDP     C342833  14.506  10.580  20.628  0.0769  0.2084 -0.0964
 7139DDP     C442834  14.052  11.497  20.088  0.1665 -0.0515 -0.0663
 7140DDP     C142835   8.706  12.984   2.798 -0.0383 -0.2464 -0.1304
 7140DDP     P142836   9.032  13.250   2.986  0.2129  0.1803  0.0143
 7140DDP     P242837   8.331  12.765   3.056 -0.1236  0.1296  0.2453
 7140DDP     C242838   7.902  12.944   3.238 -0.2501 -0.2610  0.1851
 7140DDP     C342839   9.316  13.440   3.183 -0.0663 -0.1758 -0.2538
 7140DDP     C442840   8.460  13.218   2.513  0.1879 -0.2978 -0.4351
 7141DDP     C142841   9.173   0.163  14.983 -0.0390 -0.4444 -0.1181
 7141DDP     P142842   8.710   0.021  14.965  0.1916 -0.0979 -0.0331
 7141DDP     P242843   9.374   0.209  15.294 -0.0241 -0.0905 -0.1140
 7141DDP     C242844   9.437  30.338  15.749 -0.1897  0.0321  0.2041
 7141DDP     C342845   8.549  29.994  14.604 -0.1572 -0.3494  0.0250
 7141DDP     C442846   9.378   0.384  14.640  0.1649 -0.0367 -0.0881
 7142DDP     C142847  14.621   3.936  27.966  0.2358  0.1460  0.0258
 7142DDP     P142848  14.899   3.700  27.735 -0.1332  0.1433 -0.1201
 7142DDP     P242849  14.646   4.026  28.331 -0.2658 -0.0271 -0.1367
 7142DDP     C242850  14.918   4.349  28.438 -0.1211 -0.0219 -0.0383
 7142DDP     C342851  14.756   3.278  27.679 -0.0443  0.0617 -0.0839
 7142DDP     C442852  14.443   4.161  27.591 -0.0318  0.1867  0.1101
 7143DDP     C142853  16.314  11.576   9.989  0.0473  0.0695  0.0847
 7143DDP     P142854  16.081  11.334   9.827  0.0662 -0.3524 -0.0644
 7143DDP     P242855  16.289  11.740  10.389 -0.0510 -0.3875  0.0424
 7143DDP     C242856  16.259  12.191  10.628 -0.0899 -0.3891  0.0058
 7143DDP     C342857  15.878  11.055   9.570 -0.4061  0.1859  0.1544
 7143DDP     C442858  16.557  11.850   9.660 -0.1496 -0.3194 -0.3842
 7144DDP     C142859   1.417  26.003   9.957  0.0714  0.0503  0.1668
 7144DDP     P142860   1.240  25.681   9.742  0.1083  0.2400 -0.0593
 7144DDP     P242861   1.219  26.438   9.782 -0.1499  0.0827  0.0792
 7144DDP     C242862   1.429  26.901   9.887 -0.0723 -0.0470 -0.0696
 7144DDP     C342863   1.045  25.295   9.956  0.0136 -0.1327  0.0541
 7144DDP     C442864   1.770  25.999  10.154  0.3383 -0.1279  0.1955
 7145DDP     C142865  22.601  22.436  21.149  0.0707  0.1511 -0.0869
 7145DDP     P142866  22.651  22.013  21.133 -0.0051  0.1317  0.2597
 7145DDP     P242867  22.627  22.789  20.799 -0.1444 -0.0265  0.1257
 7145DDP     C242868  22.453  22.883  20.387  0.2338 -0.0986 -0.1192
 7145DDP     C342869  22.518  21.703  21.350 -0.1514 -0.0641  0.0577
 7145DDP     C442870  22.436  22.561  21.575  0.1108  0.1405 -0.0375
 7146DDP     C142871  12.723   7.203  11.221  0.0549 -0.2359  0.0107
 7146DDP     P142872  13.188   7.149  11.236 -0.1816  0.1687 -0.4112
 7146DDP     P242873  12.485   7.617  11.253 -0.1205  0.0464 -0.0863
 7146DDP     C242874  12.168   7.833  11.133 -0.1432  0.3498 -0.0713
 7146DDP     C342875  13.434   6.659  11.397 -0.1282 -0.1285  0.1843
 7146DDP     C442876  12.434   6.963  11.396 -0.1425  0.2198  0.1402
 7147DDP     C142877   2.179  15.676   7.064 -0.1933  0.0825 -0.0646
 7147DDP     P142878   2.358  15.719   7.525  0.4365 -0.1635  0.0401
 7147DDP     P242879   2.145  15.389   6.840  0.1291  0.0480  0.0253
 7147DDP     C242880   1.923  15.291   6.489 -0.3247  0.0566  0.3587
 7147DDP     C342881   2.683  15.551   7.705 -0.0961 -0.1649  0.3308
 7147DDP     C442882   1.924  15.963   6.898 -0.5002 -0.1108 -0.3595
 7148DDP     C142883   8.650   3.459   0.365 -0.1858 -0.2479 -0.0578
 7148DDP     P142884   8.756   3.135  -0.001  0.0799  0.0704 -0.3756
 7148DDP     P242885   8.902   3.703   0.546 -0.0228  0.2853 -0.4047
 7148DDP     C242886   9.178   3.839   0.911 -0.2172  0.1878 -0.0965
 7148DDP     C342887   8.951   2.890  29.913  0.0392  0.2823 -0.2067
 7148DDP     C442888   8.248   3.385   0.599  0.0471  0.0256  0.0088
 7149DDP     C142889  17.480   6.772  20.954  0.1455  0.1070 -0.1099
 7149DDP     P142890  17.706   7.031  20.703  0.4263 -0.1458  0.0090
 7149DDP     P242891  17.679   6.391  20.833  0.2689  0.1360  0.2181
 7149DDP     C242892  17.895   6.143  20.625  0.0722  0.2763 -0.1282
 7149DDP     C342893  17.969   7.391  20.793  0.0444  0.1936 -0.1675
 7149DDP     C442894  17.411   6.851  21.323  0.4637  0.0633 -0.1353
 7150DDP     C142895   1.973  10.061   1.937  0.0916  0.4160 -0.0479
 7150DDP     P142896   1.845   9.793   1.631  0.0961 -0.1998  0.2017
 7150DDP     P242897   1.653  10.100   2.301  0.1263  0.0340  0.3661
 7150DDP     C242898   1.272  10.023   2.564 -0.0436  0.1569  0.0883
 7150DDP     C342899   1.991   9.661   1.249 -0.2570  0.1094  0.0545
 7150DDP     C442900   2.367  10.224   1.913  0.3819  0.0726 -0.3295
 7151DDP     C142901   1.851  17.222  20.160  0.1021 -0.0422 -0.1980
 7151DDP     P142902   1.496  17.295  20.021  0.0893 -0.1879  0.1720
 7151DDP     P242903   2.107  16.947  19.835  0.0665  0.0611  0.3116
 7151DDP     C242904   1.949  16.737  19.483  0.0568 -0.0393 -0.1483
 7151DDP     C342905   1.244  17.542  19.744  0.3090 -0.0605 -0.2870
 7151DDP     C442906   1.965  17.272  20.565  0.0205  0.1819 -0.5042
 7152DDP     C142907  25.247  29.601  22.302  0.0085 -0.2114  0.1545
 7152DDP     P142908  25.555  29.536  22.034 -0.0237  0.0569 -0.2382
 7152DDP     P242909  24.923  29.351  22.367  0.1487  0.0295  0.1059
 7152DDP     C242910  24.538  29.385  22.209  0.1850 -0.0221  0.0610
 7152DDP     C342911  25.481  29.395  21.656  0.0683 -0.0733 -0.2585
 7152DDP     C442912  25.298  29.870  22.602  0.3030  0.1607 -0.2305
 7153DDP     C142913  16.020  26.979  12.160  0.2313  0.1809 -0.1113
 7153DDP     P142914  16.195  27.174  11.791  0.1195 -0.0809  0.1147
 7153DDP     P242915  15.670  27.086  12.323 -0.0798 -0.0020  0.1300
 7153DDP     C242916  15.376  27.473  12.315 -0.2053 -0.3308  0.1003
 7153DDP     C342917  16.314  27.467  11.549 -0.0569 -0.3309 -0.0816
 7153DDP     C442918  16.078  26.499  12.049  0.0343  0.2040  0.1857
 7154DDP     C142919   4.075   3.029   2.176 -0.1223 -0.0436 -0.3059
 7154DDP     P142920   3.760   3.321   2.031 -0.0221 -0.2150  0.1125
 7154DDP     P242921   4.331   2.957   1.896 -0.0087  0.1350 -0.2113
 7154DDP     C242922   4.678   2.720   1.699 -0.0807 -0.0607 -0.2713
 7154DDP     C342923   3.376   3.457   1.842 -0.2018 -0.4518  0.4491
 7154DDP     C442924   4.086   3.007   2.693 -0.0707 -0.2021 -0.0608
 7155DDP     C142925  17.448   0.703  24.110 -0.3094  0.1737 -0.0027
 7155DDP     P142926  17.081   0.890  24.089  0.2375  0.2639  0.0550
 7155DDP     P242927  17.817   0.966  24.034  0.0934 -0.0950  0.3564
 7155DDP     C242928  18.178   1.118  23.803  0.1695 -0.4175  0.2695
 7155DDP     C342929  16.696   0.881  23.968 -0.1878  0.1887  0.1946
 7155DDP     C442930  17.548   0.404  24.102  0.2015 -0.1462 -0.3358
 7156DDP     C142931   9.220  13.846  12.993  0.1604 -0.0756 -0.0636
 7156DDP     P142932   9.151  14.202  12.764  0.0247 -0.3343  0.1504
 7156DDP     P242933   9.667  13.937  13.369  0.3093  0.1160  0.0194
 7156DDP     C242934   9.704  14.043  13.776 -0.2723  0.1698  0.0732
 7156DDP     C342935   8.799  14.480  12.512 -0.1444  0.1808 -0.1608
 7156DDP     C442936   9.321  13.557  12.686  0.2438 -0.1897 -0.2182
 7157DDP     C142937  10.054  17.736  26.124  0.2635 -0.2508 -0.0796
 7157DDP     P142938   9.694  17.937  25.899  0.4360 -0.0318 -0.1770
 7157DDP     P242939  10.345  18.036  26.304  0.0798  0.2074  0.3109
 7157DDP     C242940  10.484  18.461  26.358  0.0598 -0.3325 -0.3440
 7157DDP     C342941   9.587  17.989  25.495  0.0293  0.0645  0.1517
 7157DDP     C442942  10.146  17.272  26.049 -0.2345  0.0068 -0.0854
 7158DDP     C142943  11.392   3.533   8.718  0.2346  0.1799  0.0985
 7158DDP     P142944  10.963   3.687   8.759 -0.0583 -0.3396  0.0695
 7158DDP     P242945  11.732   3.781   8.805 -0.2355  0.2225  0.1959
 7158DDP     C242946  12.157   3.906   8.683 -0.2601  0.0028 -0.0262
 7158DDP     C342947  10.678   4.048   8.769 -0.2348 -0.1927 -0.1184
 7158DDP     C442948  11.687   3.282   8.497 -0.0354  0.2428 -0.1965
 7159DDP     C142949   8.771   1.043  14.147 -0.0246 -0.1303  0.0963
 7159DDP     P142950   8.897   1.358  14.418  0.0480  0.3239  0.1210
 7159DDP     P242951   8.359   0.943  14.009  0.3071 -0.0461  0.3345
 7159DDP     C242952   8.095   0.646  13.764  0.1571 -0.1419 -0.0363
 7159DDP     C342953   9.097   1.751  14.524 -0.2136  0.2392  0.0508
 7159DDP     C442954   8.841   0.731  13.843  0.0743 -0.1576  0.1416
 7160DDP     C142955  26.571  11.418  12.045 -0.1967 -0.1147  0.2325
 7160DDP     P142956  26.701  10.965  11.929  0.3265 -0.2305 -0.3368
 7160DDP     P242957  26.143  11.453  12.194  0.1609  0.1291  0.3176
 7160DDP     C242958  25.815  11.857  12.135 -0.0408  0.1414  0.0435
 7160DDP     C342959  27.114  10.836  12.071  0.2173 -0.2174  0.1329
 7160DDP     C442960  26.836  11.754  11.929 -0.0771 -0.3983 -0.1793
 7161DDP     C142961   9.421   6.829   2.517  0.0734  0.0021 -0.3342
 7161DDP     P142962   9.110   7.199   2.570 -0.1650  0.0778 -0.3913
 7161DDP     P242963   9.822   6.908   2.199  0.1092 -0.1551  0.1046
 7161DDP     C242964  10.176   6.943   1.959 -0.2046 -0.1327  0.1257
 7161DDP     C342965   8.681   7.280   2.741 -0.0698  0.3912  0.0495
 7161DDP     C442966   9.455   6.510   2.788 -0.2387  0.0586  0.0973
 7162DDP     C142967  22.503  15.194  15.487  0.0771  0.1086  0.1242
 7162DDP     P142968  22.228  14.889  15.560 -0.1797  0.1566 -0.4168
 7162DDP     P242969  22.870  15.056  15.169 -0.2228 -0.3131  0.3871
 7162DDP     C242970  22.888  14.917  14.720  0.0019 -0.2283  0.3195
 7162DDP     C342971  21.828  14.793  15.478  0.0052 -0.2575  0.4686
 7162DDP     C442972  22.411  15.537  15.737 -0.1330 -0.0446 -0.0646
 7163DDP     C142973  28.904  14.401  18.759 -0.1164  0.1761  0.2655
 7163DDP     P142974  29.049  14.314  18.462 -0.1089  0.1668  0.1392
 7163DDP     P242975  29.077  14.765  18.921  0.1315 -0.0455  0.0832
 7163DDP     C242976  29.013  15.048  19.299 -0.4792 -0.1058 -0.4207
 7163DDP     C342977  29.232  14.274  18.121 -0.0675 -0.2070  0.4666
 7163DDP     C442978  28.872  14.134  19.066  0.2591  0.0690  0.0864
 7164DDP     C142979  19.253   5.157  24.199 -0.2817 -0.0647 -0.0595
 7164DDP     P142980  19.584   5.327  24.539  0.0953  0.2016 -0.1852
 7164DDP     P242981  19.017   4.811  24.222 -0.0464  0.1946 -0.0864
 7164DDP     C242982  18.778   4.697  24.499  0.0754  0.2746  0.0278
 7164DDP     C342983  19.801   5.573  24.745 -0.2190  0.0703  0.0870
 7164DDP     C442984  19.348   5.326  23.822 -0.0019 -0.0359 -0.1481
 7165DDP     C142985  11.221   7.507   0.303  0.0518 -0.0493 -0.0078
 7165DDP     P142986  11.405   7.789  30.288 -0.1862  0.1361  0.1371
 7165DDP     P242987  10.917   7.250   0.042 -0.1240 -0.0064  0.1254
 7165DDP     C242988  10.526   7.290  30.294  0.0104  0.3829  0.0220
 7165DDP     C342989  11.207   8.104  29.994 -0.4055 -0.1089  0.1704
 7165DDP     C442990  11.472   7.505   0.699  0.3090  0.0507 -0.0281
 7166DDP     C142991  18.362   4.449   1.409  0.0467 -0.1519 -0.0027
 7166DDP     P142992  18.311   4.702   1.752  0.2661  0.2314 -0.2239
 7166DDP     P242993  18.517   4.620   0.968  0.1428 -0.2541 -0.2172
 7166DDP     C242994  18.882   4.452   0.641 -0.0606 -0.1884 -0.2907
 7166DDP     C342995  18.385   5.068   1.790  0.0560 -0.4042 -0.0966
 7166DDP     C442996  18.540   3.980   1.456  0.0608 -0.0920  0.0118
 7167DDP     C142997  19.587  22.173  28.848  0.0592 -0.2503 -0.1943
 7167DDP     P142998  19.879  22.093  28.515  0.2005  0.0114  0.0301
 7167DDP     P242999  19.598  21.855  29.175 -0.2344 -0.0855 -0.0075
 7167DDP     C243000  19.413  21.538  29.384 -0.0353 -0.0112 -0.1046
 7167DDP     C343001  20.093  22.183  28.172 -0.1148 -0.1742 -0.1416
 7167DDP     C443002  19.369  22.506  28.831  0.0644 -0.1348  0.3470
 7168DDP     C143003  12.751  11.483   1.509 -0.0791  0.0796  0.0064
 7168DDP     P143004  13.053  11.771   1.587 -0.3130 -0.0240 -0.2670
 7168DDP     P243005  12.369  11.384   1.655  0.1563 -0.0125 -0.0061
 7168DDP     C243006  12.330  11.625   2.102  0.0209 -0.0320  0.3584
 7168DDP     C343007  13.437  11.871   1.698  0.0736 -0.1715  0.1482
 7168DDP     C443008  12.877  11.291   1.213 -0.1764 -0.2808  0.2985
 7169DDP     C143009  16.642  17.182  16.535 -0.0495 -0.0788 -0.2754
 7169DDP     P143010  16.754  17.569  16.355 -0.3334  0.3451  0.0997
 7169DDP     P243011  16.949  16.857  16.521  0.0631 -0.0584 -0.2222
 7169DDP     C243012  17.313  16.651  16.810 -0.0244  0.1761 -0.3451
 7169DDP     C343013  16.832  17.801  15.966  0.0092  0.2614  0.0884
 7169DDP     C443014  16.278  17.354  16.775  0.1317  0.2244  0.1128
 7170DDP     C143015  13.893   9.015  19.900  0.2623 -0.0599  0.1865
 7170DDP     P143016  13.553   8.897  20.334  0.1463 -0.1074  0.0715
 7170DDP     P243017  13.667   8.709  19.666 -0.0729 -0.0138 -0.0217
 7170DDP     C243018  13.370   8.397  19.700 -0.2800  0.1517  0.2276
 7170DDP     C343019  13.664   8.687  20.826 -0.0254 -0.0879  0.1684
 7170DDP     C443020  14.373   9.126  19.847 -0.1734  0.0552 -0.0803
 7171DDP     C143021   2.704  10.737  26.921 -0.4390 -0.0090 -0.2683
 7171DDP     P143022   3.115  10.969  26.810 -0.3240 -0.0687 -0.1142
 7171DDP     P243023   2.713  10.292  26.938  0.1793 -0.0515  0.0285
 7171DDP     C243024   2.748   9.810  26.851  0.1962 -0.0845  0.2696
 7171DDP     C343025   3.455  10.795  26.460  0.0974 -0.0700  0.0939
 7171DDP     C443026   2.375  11.014  27.070  0.2693  0.0032  0.1708
 7172DDP     C143027   2.317  27.192  25.328  0.0460  0.1033 -0.3064
 7172DDP     P143028   2.564  27.337  25.565  0.0722  0.1280 -0.1062
 7172DDP     P243029   1.955  27.311  25.504  0.3689  0.3325 -0.1923
 7172DDP     C243030   1.477  27.201  25.560  0.1550  0.0928  0.1220
 7172DDP     C343031   2.703  27.450  26.051 -0.3905  0.0571 -0.1084
 7172DDP     C443032   2.410  26.839  25.052 -0.0607  0.0235  0.1106
 7173DDP     C143033   2.655   4.382  12.870 -0.1784  0.0453 -0.0361
 7173DDP     P143034   2.542   4.164  13.263  0.3031  0.1686  0.2523
 7173DDP     P243035   2.890   4.107  12.632 -0.1482 -0.0998  0.0121
 7173DDP     C243036   3.016   4.093  12.235  0.2439 -0.0245 -0.0778
 7173DDP     C343037   2.504   3.801  13.527  0.0777  0.1862  0.1839
 7173DDP     C443038   2.249   4.516  12.784 -0.1064  0.1029 -0.0259
 7174DDP     C143039  14.170  23.223  26.088  0.0449  0.2510 -0.0595
 7174DDP     P143040  14.427  23.549  25.891  0.1388  0.2308 -0.0090
 7174DDP     P243041  14.400  22.943  26.260  0.0873  0.0835 -0.0282
 7174DDP     C243042  14.797  22.766  26.073 -0.1443  0.1884  0.1326
 7174DDP     C343043  14.855  23.801  25.817  0.2339 -0.0199  0.1430
 7174DDP     C443044  13.662  23.228  26.100  0.1087 -0.1508  0.2643
 7175DDP     C143045   2.436   5.564   4.697 -0.1564  0.0533 -0.1265
 7175DDP     P143046   2.839   5.638   4.860  0.1664  0.0199  0.1572
 7175DDP     P243047   2.205   5.934   4.523 -0.2120  0.0951 -0.2010
 7175DDP     C243048   2.136   6.161   4.094 -0.0444 -0.2936  0.1726
 7175DDP     C343049   3.150   5.941   4.983  0.3554 -0.2904  0.0809
 7175DDP     C443050   2.421   5.088   4.607 -0.0835 -0.0537  0.0538
 7176DDP     C143051  28.376   0.577  14.907 -0.1107  0.0353 -0.2041
 7176DDP     P143052  28.036   0.841  14.957 -0.0476  0.1688  0.2349
 7176DDP     P243053  28.406   0.266  14.596 -0.3855  0.2422 -0.3193
 7176DDP     C243054  28.243   0.339  14.093 -0.0743 -0.3321 -0.0010
 7176DDP     C343055  27.761   1.043  14.724 -0.1477  0.0515  0.1893
 7176DDP     C443056  28.623   0.735  15.241 -0.0761 -0.1511 -0.1077
 7177DDP     C143057   4.292  22.313   3.743 -0.1785  0.2053 -0.1677
 7177DDP     P143058   3.793  22.243   3.656  0.2544  0.2095 -0.0102
 7177DDP     P243059   4.571  22.643   3.665 -0.3140  0.2343 -0.1772
 7177DDP     C243060   4.720  23.039   3.603 -0.0173 -0.1223 -0.3131
 7177DDP     C343061   3.456  22.111   3.419  0.3418 -0.0688 -0.0575
 7177DDP     C443062   4.562  21.982   4.058  0.1621 -0.2855 -0.0833
 7178DDP     C143063   4.807   0.142  21.677  0.0469 -0.0055  0.0833
 7178DDP     P143064   4.819  30.242  22.100 -0.1327  0.0365  0.2148
 7178DDP     P243065   4.429   0.435  21.601  0.0776  0.0730 -0.1779
 7178DDP     C243066   4.040   0.547  21.424  0.1193  0.3962  0.1460
 7178DDP     C343067   4.726  29.816  22.253 -0.0634 -0.1709 -0.2031
 7178DDP     C443068   5.029   0.160  21.378  0.3622  0.0501  0.2071
 7179DDP     C143069  11.856  27.726   3.735  0.0337 -0.1548 -0.0004
 7179DDP     P143070  12.163  27.931   4.127 -0.0669  0.1353 -0.1097
 7179DDP     P243071  11.658  28.063   3.618 -0.2019 -0.2717  0.2559
 7179DDP     C243072  11.297  28.244   3.506 -0.0600  0.2028  0.2527
 7179DDP     C343073  12.430  28.315   4.243 -0.1206 -0.2106 -0.2636
 7179DDP     C443074  12.115  27.501   3.422  0.0657  0.4149  0.1864
 7180DDP     C143075  19.697  22.394   0.942  0.0706 -0.0652  0.0561
 7180DDP     P143076  19.642  22.160   0.556 -0.1181 -0.0786  0.0611
 7180DDP     P243077  19.954  22.145   1.096  0.1005 -0.1302  0.1810
 7180DDP     C243078  20.134  21.914   1.429  0.4558  0.1305  0.1576
 7180DDP     C343079  19.586  21.739   0.564 -0.2090  0.2197 -0.0721
 7180DDP     C443080  19.732  22.810   1.128 -0.3488  0.0188  0.1076
 7181DDP     C143081  27.749   2.635   4.825  0.1680 -0.0060 -0.1147
 7181DDP     P143082  27.431   2.638   5.017 -0.1602 -0.1039  0.2386
 7181DDP     P243083  27.799   2.695   4.441  0.0801  0.2546  0.0445
 7181DDP     C243084  27.913   3.001   4.211 -0.0083 -0.1578 -0.3478
 7181DDP     C343085  27.015   2.523   5.237  0.2862 -0.0978  0.1588
 7181DDP     C443086  28.042   2.604   5.043 -0.0621  0.1321  0.1585
 7182DDP     C143087   2.744   1.090  18.574 -0.0548 -0.3476  0.0002
 7182DDP     P143088   2.776   1.546  18.580 -0.0576  0.1737  0.1142
 7182DDP     P243089   2.342   0.910  18.796  0.3081 -0.0717 -0.1357
 7182DDP     C243090   2.059   0.798  19.095 -0.1656  0.2138 -0.4429
 7182DDP     C343091   3.095   1.877  18.627  0.0192 -0.1604  0.2932
 7182DDP     C443092   3.154   0.959  18.425  0.0400 -0.2062  0.3415
 7183DDP     C143093   9.146  13.852  22.668  0.0085 -0.2771  0.1696
 7183DDP     P143094   8.830  13.809  22.922 -0.0509  0.3025 -0.0139
 7183DDP     P243095   9.337  14.233  22.794  0.2386  0.1650  0.0132
 7183DDP     C243096   9.265  14.694  22.977 -0.0665 -0.1618 -0.3498
 7183DDP     C343097   8.828  13.584  23.328  0.2995  0.0070 -0.3277
 7183DDP     C443098   9.275  13.496  22.498 -0.0922 -0.2455  0.1210
 7184DDP     C143099  30.109  24.753  16.622 -0.1828 -0.1578 -0.0451
 7184DDP     P143100   0.145  24.767  16.906 -0.0205 -0.0863  0.0316
 7184DDP     P243101  30.292  24.946  16.257  0.1819 -0.1523 -0.0270
 7184DDP     C243102   0.004  25.187  15.851  0.0421 -0.0435  0.2069
 7184DDP     C343103   0.568  24.792  17.049 -0.1719  0.3199 -0.0000
 7184DDP     C443104  29.719  24.687  16.782 -0.1592  0.1138 -0.1769
 7185DDP     C143105  17.075  26.571  29.958  0.3910 -0.0086 -0.2778
 7185DDP     P143106  17.145  26.088  29.963  0.2179  0.3339 -0.0258
 7185DDP     P243107  17.278  26.759  29.626  0.0571 -0.0460  0.2438
 7185DDP     C243108  17.642  26.942  29.808 -0.2443  0.1119  0.1745
 7185DDP     C343109  16.854  25.725  30.001 -0.0012  0.3705 -0.0595
 7185DDP     C443110  16.835  26.784  30.189 -0.0747 -0.0406 -0.1761
 7186DDP     C143111  28.102  21.864   7.044 -0.0244  0.3439  0.0417
 7186DDP     P143112  28.311  21.452   6.994  0.0154 -0.1034  0.1327
 7186DDP     P243113  28.007  22.103   6.624 -0.0045  0.0922  0.4180
 7186DDP     C243114  28.035  22.369   6.357 -0.4162  0.1032 -0.0681
 7186DDP     C343115  28.238  21.162   6.818 -0.0787  0.3542 -0.0076
 7186DDP     C443116  28.278  22.082   7.392  0.0454  0.1094 -0.4014
 7187DDP     C143117   3.906  13.365  26.404  0.3550 -0.0976  0.0303
 7187DDP     P143118   3.899  12.960  26.320  0.2296  0.2047  0.3728
 7187DDP     P243119   3.742  13.495  26.791 -0.0800 -0.1470 -0.3808
 7187DDP     C243120   4.017  13.427  27.183  0.0722  0.2179  0.1277
 7187DDP     C343121   3.749  12.617  26.173 -0.4099  0.0499 -0.0645
 7187DDP     C443122   3.746  13.612  26.002 -0.0531 -0.2981 -0.3919
 7188DDP     C143123  10.240   7.209  28.698  0.0837 -0.2424  0.0479
 7188DDP     P143124  10.238   7.096  28.380  0.1061 -0.0608 -0.0183
 7188DDP     P243125  10.213   7.658  28.949 -0.1610 -0.1186 -0.1737
 7188DDP     C243126  10.168   8.172  29.015  0.1517 -0.0044  0.1303
 7188DDP     C343127  10.318   6.985  28.000  0.0576 -0.1078 -0.1265
 7188DDP     C443128  10.529   7.025  28.913  0.1255  0.0713 -0.1047
 7189DDP     C143129  14.646  26.949   4.766 -0.1277  0.0880  0.1609
 7189DDP     P143130  14.300  26.980   4.806 -0.0136 -0.0734  0.2954
 7189DDP     P243131  14.768  26.936   4.268 -0.2618 -0.0946 -0.1207
 7189DDP     C243132  14.972  27.045   3.917  0.2765 -0.0354 -0.2499
 7189DDP     C343133  13.944  27.294   4.890  0.0058 -0.1916  0.1785
 7189DDP     C443134  14.945  26.841   5.053  0.0392  0.0009 -0.1261
 7190DDP     C143135  10.229  19.610  28.320 -0.2158  0.2874 -0.1877
 7190DDP     P143136  10.265  19.989  28.315  0.0701 -0.3057  0.0535
 7190DDP     P243137  10.434  19.355  28.709  0.0522  0.0150 -0.3034
 7190DDP     C243138  10.660  19.007  28.764 -0.0810 -0.1963 -0.1625
 7190DDP     C343139   9.831  20.188  28.280  0.2888 -0.1549 -0.1045
 7190DDP     C443140   9.904  19.329  28.108 -0.0848 -0.1991  0.0189
 7191DDP     C143141   9.732  13.473  18.777  0.0790  0.1124 -0.2392
 7191DDP     P143142  10.009  13.218  19.105 -0.3022  0.2112 -0.4994
 7191DDP     P243143   9.733  13.691  19.168  0.1310 -0.1779 -0.0198
 7191DDP     C243144   9.931  13.875  19.529  0.2254  0.1979  0.2140
 7191DDP     C343145  10.113  12.923  19.608  0.1160  0.0409 -0.0328
 7191DDP     C443146   9.807  13.739  18.383  0.1839 -0.0465 -0.3518
 7192DDP     C143147   7.286  27.667  19.253  0.3690  0.1004 -0.2375
 7192DDP     P143148   7.538  27.539  19.480  0.0071  0.1347 -0.3164
 7192DDP     P243149   7.373  27.438  18.819  0.2501  0.0742  0.0280
 7192DDP     C243150   7.557  27.136  18.473  0.3152 -0.0098 -0.4137
 7192DDP     C343151   7.704  27.802  19.808 -0.0045  0.1486 -0.0663
 7192DDP     C443152   6.959  27.973  19.391  0.0414 -0.2014 -0.0088
 7193DDP     C143153  22.273   1.873  22.469 -0.2780  0.1529 -0.1291
 7193DDP     P143154  22.301   1.664  22.832  0.0862  0.0044 -0.2654
 7193DDP     P243155  22.221   1.573  22.153  0.0350  0.0151  0.1860
 7193DDP     C243156  22.311   1.302  21.792 -0.1742 -0.0495 -0.0562
 7193DDP     C343157  22.469   1.442  23.144 -0.0764 -0.1292 -0.1962
 7193DDP     C443158  22.414   2.427  22.366 -0.0253  0.0359 -0.1874
 7194DDP     C143159  25.726  19.112  28.886 -0.1039 -0.0241 -0.3275
 7194DDP     P143160  25.620  19.228  29.329  0.0793 -0.3970  0.1027
 7194DDP     P243161  25.510  19.085  28.517 -0.1085 -0.2043  0.0543
 7194DDP     C243162  25.361  18.660  28.256 -0.0854 -0.0011 -0.0816
 7194DDP     C343163  25.886  19.561  29.662 -0.0322  0.0976 -0.0378
 7194DDP     C443164  26.154  18.954  28.874  0.2228  0.1126  0.0078
 7195DDP     C143165   1.884  21.673  11.184  0.0741  0.0339  0.1034
 7195DDP     P143166   1.782  21.935  11.556 -0.3495 -0.0246  0.0566
 7195DDP     P243167   2.199  21.440  11.288 -0.2516  0.1308  0.2880
 7195DDP     C243168   2.253  21.093  11.308 -0.1142  0.0183 -0.0090
 7195DDP     C343169   1.804  21.734  12.014  0.0891  0.2972  0.1925
 7195DDP     C443170   1.584  21.676  10.895  0.3597 -0.1633 -0.2808
 7196DDP     C143171  19.688  27.144  20.954 -0.1341 -0.3638 -0.1922
 7196DDP     P143172  20.045  27.148  20.695 -0.1276  0.0573 -0.0766
 7196DDP     P243173  19.699  26.709  21.152  0.2608  0.0101  0.1126
 7196DDP     C243174  19.902  26.321  21.279  0.0931 -0.2225 -0.0723
 7196DDP     C343175  20.144  26.872  20.379 -0.1240 -0.1550 -0.1057
 7196DDP     C443176  19.369  27.399  21.020  0.2083  0.0342 -0.1073
 7197DDP     C143177  11.147  24.774  25.919  0.0228 -0.1165  0.4021
 7197DDP     P143178  11.338  25.050  26.174  0.3060  0.1342  0.0358
 7197DDP     P243179  11.155  24.824  25.448 -0.3403 -0.1759 -0.1334
 7197DDP     C243180  11.277  24.486  25.135 -0.0546  0.0662 -0.2867
 7197DDP     C343181  11.598  25.410  26.386 -0.1762  0.2872 -0.0817
 7197DDP     C443182  10.749  24.646  26.117  0.4597  0.0828 -0.2785
 7198DDP     C143183  19.663  15.078   9.350  0.1839 -0.1035 -0.0802
 7198DDP     P143184  20.004  15.045   9.242  0.0397  0.1391  0.3951
 7198DDP     P243185  19.570  15.149   9.745 -0.1935 -0.2607 -0.3359
 7198DDP     C243186  19.683  15.249  10.164  0.0799 -0.3255  0.0226
 7198DDP     C343187  20.320  14.901   8.958 -0.0703 -0.1387  0.0459
 7198DDP     C443188  19.251  14.959   9.065 -0.0861  0.0429 -0.0080
 7199DDP     C143189   7.386  24.000  16.656 -0.1880  0.1851  0.1614
 7199DDP     P143190   7.164  24.159  16.996 -0.0851  0.1864 -0.0738
 7199DDP     P243191   7.525  23.661  16.870  0.3830  0.0821  0.1001
 7199DDP     C243192   7.764  23.504  17.192 -0.0814 -0.1227  0.1549
 7199DDP     C343193   7.089  24.239  17.531  0.0211 -0.2028  0.0412
 7199DDP     C443194   7.511  24.113  16.246  0.3245 -0.0246 -0.0304
 7200DDP     C143195   8.416  19.931   1.575 -0.1977 -0.1282 -0.1615
 7200DDP     P143196   8.375  19.610   1.888  0.0569  0.2835 -0.5331
 7200DDP     P243197   8.033  20.159   1.533  0.0681  0.4269 -0.3529
 7200DDP     C243198   7.614  20.399   1.340  0.2102 -0.0137 -0.0879
 7200DDP     C343199   8.502  19.545   2.297 -0.1674 -0.2617 -0.1825
 7200DDP     C443200   8.821  20.123   1.336  0.2433 -0.2582  0.0204
 7201DDP     C143201   9.811  14.292   3.077 -0.0922 -0.0076 -0.1145
 7201DDP     P143202   9.794  14.341   3.552  0.1188  0.0298  0.1391
 7201DDP     P243203   9.626  14.619   2.913 -0.2501  0.3240 -0.1761
 7201DDP     C243204   9.268  14.954   3.070  0.4837  0.1656  0.1292
 7201DDP     C343205   9.517  14.276   3.809  0.2447 -0.3951 -0.0250
 7201DDP     C443206   9.964  13.792   3.023 -0.0496  0.1216 -0.2189
 7202DDP     C143207  24.358   6.359   6.594  0.2508  0.0404 -0.1553
 7202DDP     P143208  24.437   6.628   6.210  0.1132 -0.1886 -0.1662
 7202DDP     P243209  24.324   5.951   6.313 -0.2125 -0.3308 -0.0643
 7202DDP     C243210  24.384   5.722   5.861 -0.1088  0.2660 -0.1407
 7202DDP     C343211  24.217   6.661   5.808 -0.1919  0.0819  0.0238
 7202DDP     C443212  24.270   6.415   7.053 -0.1338  0.1930 -0.0891
 7203DDP     C143213  13.011  24.319   2.609 -0.1022 -0.1128  0.0482
 7203DDP     P143214  12.650  24.009   2.652  0.0530 -0.0438  0.1584
 7203DDP     P243215  13.364  24.186   2.422  0.1168  0.0603  0.0758
 7203DDP     C243216  13.502  23.989   2.131 -0.1329  0.0430 -0.1314
 7203DDP     C343217  12.683  23.637   2.794 -0.0790 -0.1484  0.2043
 7203DDP     C443218  13.016  24.638   2.867  0.3271  0.2529 -0.1725
 7204DDP     C143219  17.721  14.925   1.587 -0.2348  0.1755 -0.2163
 7204DDP     P143220  17.322  14.670   1.595  0.2448 -0.4770 -0.0941
 7204DDP     P243221  17.822  14.832   1.211 -0.2211 -0.0292 -0.1063
 7204DDP     C243222  18.026  14.590   0.958 -0.2334 -0.2722  0.4100
 7204DDP     C343223  17.277  14.279   1.644 -0.0337 -0.0704 -0.2556
 7204DDP     C443224  17.815  15.349   1.714  0.2743  0.1625  0.0428
 7205DDP     C143225  21.608  15.350  17.050  0.2083  0.2417 -0.1560
 7205DDP     P143226  21.468  15.316  16.714  0.1058  0.1034 -0.0880
 7205DDP     P243227  21.957  15.249  17.331  0.3595  0.1370 -0.0426
 7205DDP     C243228  22.348  15.161  17.462  0.0382 -0.1933  0.0345
 7205DDP     C343229  21.492  15.081  16.333 -0.2545 -0.4352  0.0983
 7205DDP     C443230  21.303  15.625  17.200 -0.0348  0.0137 -0.3112
 7206DDP     C143231  20.730   7.649  14.876  0.1216  0.1044  0.1470
 7206DDP     P143232  20.598   8.052  14.882 -0.1494 -0.1129  0.3062
 7206DDP     P243233  20.490   7.265  14.774  0.0268 -0.1308 -0.2098
 7206DDP     C243234  20.226   6.960  14.553 -0.0647  0.1454  0.1179
 7206DDP     C343235  20.304   8.417  15.147  0.0201  0.1743 -0.0073
 7206DDP     C443236  20.976   7.412  15.191  0.2056 -0.2666  0.3382
 7207DDP     C143237  28.560  23.470  12.821  0.0442 -0.0013 -0.2149
 7207DDP     P143238  28.726  23.326  12.523 -0.0483  0.1963 -0.0358
 7207DDP     P243239  28.923  23.718  12.860 -0.0657  0.0414  0.2578
 7207DDP     C243240  28.893  24.060  13.023  0.2114  0.1112  0.1533
 7207DDP     C343241  28.545  23.227  12.151  0.2382  0.0233 -0.1618
 7207DDP     C443242  28.218  23.376  13.089  0.1853  0.0295  0.0631
 7208DDP     C143243   1.562  28.372  10.687 -0.0359 -0.0993 -0.0108
 7208DDP     P143244   1.867  28.142  10.424 -0.0719  0.1032 -0.1452
 7208DDP     P243245   1.331  28.249  10.994  0.0131  0.1710  0.1727
 7208DDP     C243246   0.948  28.415  11.137 -0.0812  0.2744  0.0173
 7208DDP     C343247   1.722  27.865  10.179 -0.0407  0.1769 -0.0303
 7208DDP     C443248   1.524  28.658  10.499  0.0033  0.2068 -0.1521
 7209DDP     C143249   1.779  10.365   0.273 -0.0613  0.1742  0.0015
 7209DDP     P143250   1.504  10.374   0.475  0.0139  0.0817  0.0015
 7209DDP     P243251   2.066  10.123   0.432 -0.1409 -0.0358 -0.0158
 7209DDP     C243252   2.250   9.694   0.321 -0.1578 -0.0711 -0.2369
 7209DDP     C343253   1.347  10.356   0.901 -0.0115  0.0111 -0.3215
 7209DDP     C443254   1.999  10.673  30.340 -0.0047 -0.2231  0.2066
 7210DDP     C143255  22.630  19.285  17.671 -0.0814 -0.1747  0.0922
 7210DDP     P143256  22.965  19.148  17.753 -0.1509 -0.1166  0.0799
 7210DDP     P243257  22.432  19.646  17.780  0.0599 -0.0547 -0.0574
 7210DDP     C243258  22.337  19.732  18.090 -0.1208 -0.1260 -0.1653
 7210DDP     C343259  23.289  19.031  17.954  0.3262  0.2878  0.0497
 7210DDP     C443260  22.342  18.932  17.551  0.0949  0.1008  0.3803
 7211DDP     C143261   4.284   3.886  28.491  0.2511  0.0453 -0.2474
 7211DDP     P143262   4.562   4.246  28.431  0.2313  0.3326 -0.1258
 7211DDP     P243263   4.245   3.556  28.856  0.0695 -0.3248 -0.0013
 7211DDP     C243264   3.942   3.215  28.986  0.0742 -0.1350  0.3557
 7211DDP     C343265   4.909   4.423  28.137 -0.0931 -0.3568 -0.0923
 7211DDP     C443266   3.967   3.963  28.158  0.0570 -0.1318  0.2485
 7212DDP     C143267  29.025  26.866  18.611 -0.0342  0.0494  0.1369
 7212DDP     P143268  28.977  26.777  19.014 -0.0945  0.4660 -0.1397
 7212DDP     P243269  28.968  26.604  18.284 -0.0885  0.3424 -0.2345
 7212DDP     C243270  29.148  26.133  18.363 -0.3651 -0.0588  0.3571
 7212DDP     C343271  28.725  27.100  19.351 -0.1276 -0.3162 -0.0529
 7212DDP     C443272  29.080  27.353  18.464 -0.1892  0.0317 -0.1861
 7213DDP     C143273   4.199   3.064   3.568 -0.1943  0.1454  0.1018
 7213DDP     P143274   3.957   2.869   3.221 -0.0245  0.1881 -0.1146
 7213DDP     P243275   4.490   3.455   3.403 -0.1184 -0.0327 -0.0644
 7213DDP     C243276   4.521   3.847   3.523 -0.1008 -0.2064  0.0997
 7213DDP     C343277   3.714   2.707   2.878  0.1284 -0.0204  0.0548
 7213DDP     C443278   4.375   3.023   3.895  0.0638  0.0201 -0.2911
 7214DDP     C143279  19.831  20.809  18.143 -0.1423 -0.1253  0.3464
 7214DDP     P143280  19.640  21.298  18.125  0.0327 -0.3863 -0.1698
 7214DDP     P243281  20.135  20.600  17.995 -0.1397 -0.0158  0.0479
 7214DDP     C243282  19.857  20.661  17.600  0.1736  0.0022  0.3638
 7214DDP     C343283  19.313  21.558  18.122 -0.1093 -0.2329 -0.1177
 7214DDP     C443284  19.523  20.526  18.269  0.0537 -0.0333 -0.0039
 7215DDP     C143285  29.261   9.163   1.438  0.0688  0.0309 -0.3222
 7215DDP     P143286  29.353   9.014   0.995  0.0477 -0.0000 -0.2015
 7215DDP     P243287  29.688   9.285   1.631 -0.1176 -0.2567 -0.1108
 7215DDP     C243288  30.059   9.011   1.673  0.0466 -0.0325  0.4100
 7215DDP     C343289  29.683   9.071   0.760 -0.2365  0.0871 -0.0096
 7215DDP     C443290  28.942   9.459   1.257 -0.0552 -0.5104  0.2025
 7216DDP     C143291  24.717  14.857  20.939 -0.2727  0.0857 -0.0877
 7216DDP     P143292  24.986  14.938  20.653  0.1069  0.2203 -0.1265
 7216DDP     P243293  24.993  14.774  21.287  0.1024  0.1913 -0.1656
 7216DDP     C243294  25.418  14.473  21.368 -0.1601 -0.5393  0.1784
 7216DDP     C343295  25.103  15.114  20.330  0.0751  0.1007  0.2235
 7216DDP     C443296  24.318  14.687  20.841  0.0205 -0.2815 -0.1697
 7217DDP     C143297  25.519   3.206  13.045  0.1153  0.0415 -0.0751
 7217DDP     P143298  25.607   2.802  13.112 -0.0345 -0.1754  0.0858
 7217DDP     P243299  25.689   3.235  12.696 -0.3170 -0.0330  0.0139
 7217DDP     C243300  26.129   3.211  12.504  0.0736 -0.0009 -0.2506
 7217DDP     C343301  25.796   2.492  13.372  0.1218  0.0204  0.1694
 7217DDP     C443302  25.169   3.375  13.267 -0.1100 -0.1648  0.3317
 7218DDP     C143303  17.397  13.845  27.042  0.2214 -0.1547 -0.1894
 7218DDP     P143304  17.147  13.572  27.334  0.2666 -0.2257  0.0017
 7218DDP     P243305  17.234  14.197  27.038  0.0716 -0.4299 -0.0707
 7218DDP     C243306  16.955  14.472  27.086  0.0848 -0.0912 -0.1799
 7218DDP     C343307  16.911  13.329  27.783  0.1169  0.1325 -0.0237
 7218DDP     C443308  17.759  13.749  26.840  0.3674  0.2604  0.1704
 7219DDP     C143309   6.175   5.565  22.061  0.2401 -0.1496  0.0768
 7219DDP     P143310   6.459   5.219  21.990  0.3146  0.0234 -0.2751
 7219DDP     P243311   5.737   5.497  22.244  0.2032  0.0544  0.0149
 7219DDP     C243312   5.532   5.256  22.502 -0.1061 -0.3201 -0.0501
 7219DDP     C343313   6.629   4.788  22.152  0.2122  0.0085  0.0250
 7219DDP     C443314   6.319   5.930  21.759 -0.0202  0.2600  0.0216
 7220DDP     C143315  20.955  21.977  18.046  0.0944  0.2963  0.0414
 7220DDP     P143316  21.217  21.773  18.466 -0.0718  0.0890  0.0460
 7220DDP     P243317  21.115  22.192  17.734 -0.0429 -0.1690 -0.0992
 7220DDP     C243318  21.435  22.185  17.378 -0.2441 -0.1792  0.0599
 7220DDP     C343319  21.494  21.817  18.812  0.1248  0.3126  0.2468
 7220DDP     C443320  20.570  21.941  18.015 -0.0439 -0.3173 -0.1046
 7221DDP     C143321  12.100   3.895   2.706 -0.1650  0.0625  0.1618
 7221DDP     P143322  11.876   3.859   3.046  0.1711 -0.0519 -0.2723
 7221DDP     P243323  12.174   3.476   2.601  0.0994  0.0361 -0.2634
 7221DDP     C243324  12.291   3.104   2.927 -0.1961 -0.0041 -0.0392
 7221DDP     C343325  11.724   3.736   3.440  0.0790  0.1334  0.2968
 7221DDP     C443326  12.337   4.158   2.445  0.1170  0.0931 -0.4650
 7222DDP     C143327  27.054   9.204  10.279  0.1908 -0.0261  0.0330
 7222DDP     P143328  26.808   9.339  10.628 -0.1922  0.3853 -0.2902
 7222DDP     P243329  27.195   9.553  10.109  0.0881  0.2064  0.0050
 7222DDP     C243330  27.259   9.779   9.750  0.1249  0.4548 -0.0258
 7222DDP     C343331  26.521   9.314  11.018  0.0193 -0.2077  0.1216
 7222DDP     C443332  27.256   8.880  10.545  0.4534  0.1926  0.0102
 7223DDP     C143333  16.927   3.436  17.476  0.1710 -0.1314 -0.2915
 7223DDP     P143334  17.177   3.776  17.773 -0.2250  0.2225 -0.1064
 7223DDP     P243335  17.234   3.202  17.193  0.1863 -0.1934 -0.0526
 7223DDP     C243336  17.420   3.037  16.778 -0.0090  0.0080 -0.0876
 7223DDP     C343337  17.672   3.913  17.816 -0.1672 -0.0128 -0.3401
 7223DDP     C443338  16.517   3.211  17.588 -0.0384 -0.0505 -0.0049
 7224DDP     C143339   4.610  26.064   2.032 -0.0095  0.1819  0.4787
 7224DDP     P143340   4.850  25.938   2.325 -0.0549  0.0659  0.0767
 7224DDP     P243341   4.191  26.093   1.880 -0.3809  0.0065 -0.0994
 7224DDP     C243342   3.749  26.274   1.848  0.1462  0.3329 -0.0601
 7224DDP     C343343   5.099  26.080   2.773  0.0569  0.1159  0.0470
 7224DDP     C443344   4.911  26.166   1.697 -0.0351  0.1856 -0.1690
 7225DDP     C143345  29.936  19.251   5.830  0.2309  0.1313 -0.0788
 7225DDP     P143346  30.008  19.513   5.451 -0.2097  0.1721  0.1729
 7225DDP     P243347  29.619  19.137   6.072  0.1053  0.0794  0.1869
 7225DDP     C243348  29.164  19.072   6.321  0.1934 -0.2468  0.0801
 7225DDP     C343349  30.200  19.847   5.315  0.3133 -0.2572  0.2186
 7225DDP     C443350  30.270  19.018   5.695 -0.0468 -0.1233 -0.1448
 7226DDP     C143351  23.165   3.457  17.787 -0.1943 -0.3148 -0.0186
 7226DDP     P143352  23.373   3.671  18.153 -0.0431 -0.0362 -0.1734
 7226DDP     P243353  23.150   3.086  17.680 -0.1435 -0.1539  0.3507
 7226DDP     C243354  23.141   2.700  17.747  0.2965  0.3916  0.2589
 7226DDP     C343355  23.679   3.961  18.313 -0.0082  0.3419  0.0165
 7226DDP     C443356  23.254   3.683  17.499  0.1554  0.1670  0.3657
 7227DDP     C143357   0.427  26.299   5.945 -0.0586  0.2517 -0.0733
 7227DDP     P143358   0.801  25.967   5.632  0.0973 -0.0634  0.1812
 7227DDP     P243359   0.111  26.044   6.080  0.0857 -0.0307 -0.0834
 7227DDP     C243360  30.077  25.957   6.371 -0.1849 -0.2986  0.1219
 7227DDP     C343361   1.125  26.040   5.330  0.2700 -0.0518 -0.0998
 7227DDP     C443362   0.366  26.643   6.114 -0.1703  0.0327  0.1917
 7228DDP     C143363  19.691   1.958  22.601  0.0789 -0.2223 -0.0046
 7228DDP     P143364  19.281   1.782  22.355  0.2219  0.1532  0.2105
 7228DDP     P243365  19.683   2.372  22.612  0.4547  0.0643  0.1791
 7228DDP     C243366  19.675   2.704  22.388  0.3662  0.0494 -0.2077
 7228DDP     C343367  18.803   1.749  22.278  0.1507  0.0925 -0.1706
 7228DDP     C443368  19.965   1.655  22.764  0.1906 -0.0167  0.2239
 7229DDP     C143369   6.381  20.519  19.434  0.0133 -0.2635 -0.0582
 7229DDP     P143370   6.425  20.920  19.293 -0.0890  0.3083  0.2407
 7229DDP     P243371   6.823  20.333  19.411  0.2711  0.0954  0.0786
 7229DDP     C243372   6.967  19.826  19.383  0.0078 -0.0077 -0.0016
 7229DDP     C343373   6.528  21.167  18.935 -0.0124 -0.1887  0.1839
 7229DDP     C443374   5.928  20.446  19.256  0.4466 -0.1898  0.0476
 7230DDP     C143375  13.498  10.300   6.601 -0.0737 -0.1480  0.1301
 7230DDP     P143376  13.527  10.641   6.310 -0.1416  0.3108  0.0596
 7230DDP     P243377  13.325   9.900   6.325  0.0403  0.1071 -0.0208
 7230DDP     C243378  13.029   9.595   6.360  0.0975 -0.0370  0.0851
 7230DDP     C343379  13.551  10.589   5.830  0.1753 -0.0971 -0.1797
 7230DDP     C443380  13.548  10.278   7.104  0.0386  0.1427  0.1153
 7231DDP     C143381  15.800   2.001  26.193 -0.0064  0.3200 -0.2811
 7231DDP     P143382  15.601   1.772  26.591  0.0164 -0.0056  0.0207
 7231DDP     P243383  16.318   1.954  26.206  0.0423  0.2842 -0.0757
 7231DDP     C243384  16.800   1.969  26.409  0.0041  0.0730 -0.2179
 7231DDP     C343385  15.672   1.239  26.679  0.0080 -0.2341 -0.1211
 7231DDP     C443386  15.471   2.316  26.050 -0.0949 -0.2734  0.0160
 7232DDP     C143387  12.724  11.419   7.864 -0.0019 -0.0370  0.1516
 7232DDP     P143388  12.928  11.149   7.950  0.3965 -0.2092  0.2317
 7232DDP     P243389  12.790  11.828   7.982  0.0321 -0.0664 -0.1620
 7232DDP     C243390  12.435  12.090   8.360  0.0634 -0.0253 -0.1459
 7232DDP     C343391  13.128  10.782   7.919  0.0871 -0.0361  0.1755
 7232DDP     C443392  12.544  11.330   7.468 -0.1163 -0.0079  0.0674
 7233DDP     C143393  12.798  13.918  20.338 -0.1090 -0.0927 -0.1597
 7233DDP     P143394  12.634  14.164  20.659 -0.0286 -0.0718 -0.2321
 7233DDP     P243395  13.199  13.547  20.221 -0.3524 -0.0736  0.1040
 7233DDP     C243396  13.613  13.373  20.193 -0.0951  0.2711 -0.0458
 7233DDP     C343397  12.384  14.205  21.072  0.0363 -0.3860 -0.0783
 7233DDP     C443398  12.429  13.906  20.119 -0.0656 -0.1933 -0.0431
 7234DDP     C143399   4.419  13.521  19.118  0.2195  0.2992 -0.0604
 7234DDP     P143400   4.293  13.230  19.456  0.2992  0.0316 -0.0014
 7234DDP     P243401   4.577  13.895  19.013 -0.0048 -0.0882 -0.0822
 7234DDP     C243402   4.797  14.232  18.916  0.0452 -0.0293 -0.0349
 7234DDP     C343403   4.030  12.899  19.586  0.0837 -0.3270  0.0451
 7234DDP     C443404   4.320  13.337  18.812 -0.1551 -0.0452  0.2326
 7235DDP     C143405  13.598   0.535  12.453 -0.2902 -0.1765 -0.2282
 7235DDP     P143406  13.535   0.034  12.462 -0.1160  0.3236 -0.0662
 7235DDP     P243407  14.046   0.531  12.538 -0.1480  0.0533 -0.3511
 7235DDP     C243408  14.360   0.320  12.443  0.3296  0.0626 -0.1598
 7235DDP     C343409  13.206  30.106  12.272  0.0104  0.0170  0.2539
 7235DDP     C443410  13.428   0.933  12.677 -0.0085  0.2185 -0.2695
 7236DDP     C143411  10.880  14.540  16.388  0.3068  0.3003 -0.1499
 7236DDP     P143412  10.484  14.374  16.285  0.0495  0.1771  0.0807
 7236DDP     P243413  10.830  14.927  16.362 -0.1991  0.1758  0.1238
 7236DDP     C243414  10.442  15.123  16.280 -0.1512 -0.0264 -0.1154
 7236DDP     C343415  10.000  14.284  16.402  0.1127 -0.0000  0.3094
 7236DDP     C443416  11.213  14.228  16.596  0.3483 -0.1606 -0.0042
 7237DDP     C143417   7.064  11.219   3.496 -0.4331  0.2436  0.2242
 7237DDP     P143418   7.504  11.098   3.413  0.1670  0.3566  0.1081
 7237DDP     P243419   6.819  11.545   3.426 -0.2410  0.0268  0.2357
 7237DDP     C243420   6.418  11.751   3.154 -0.0934 -0.1186 -0.2277
 7237DDP     C343421   7.924  11.296   3.571  0.1251 -0.1319  0.1440
 7237DDP     C443422   7.056  11.024   3.908  0.1864 -0.1076 -0.0203
 7238DDP     C143423   9.502  25.015  24.429 -0.1788 -0.3782  0.2085
 7238DDP     P143424   9.471  25.351  24.194 -0.0503 -0.0391 -0.2364
 7238DDP     P243425   9.169  24.740  24.439 -0.0828  0.0310 -0.2214
 7238DDP     C243426   8.792  24.584  24.605 -0.0160 -0.0968 -0.0635
 7238DDP     C343427   9.367  25.717  23.963  0.0333  0.2784  0.1227
 7238DDP     C443428   9.941  24.964  24.562  0.4688 -0.1398 -0.1810
 7239DDP     C143429   1.884  10.766  28.080  0.2852 -0.1019  0.2097
 7239DDP     P143430   1.872  11.124  27.849 -0.0757  0.0005 -0.0553
 7239DDP     P243431   2.232  10.500  28.107  0.0891  0.2299  0.0164
 7239DDP     C243432   2.635  10.585  28.163  0.0336  0.0172 -0.1237
 7239DDP     C343433   1.638  11.226  27.397 -0.2592  0.4661  0.0546
 7239DDP     C443434   1.563  10.532  28.268  0.1040  0.2252 -0.0205
 7240DDP     C143435  18.201   6.181  15.209 -0.1932  0.2898 -0.0468
 7240DDP     P143436  18.575   6.182  15.446  0.1845 -0.3009 -0.1391
 7240DDP     P243437  17.987   6.523  15.095 -0.0959  0.2502  0.0522
 7240DDP     C243438  17.868   6.858  14.811 -0.0094  0.2107  0.1141
 7240DDP     C343439  18.526   6.599  15.743 -0.1602  0.0297  0.0536
 7240DDP     C443440  18.041   5.786  15.036  0.1904  0.0168 -0.2127
 7241DDP     C143441   8.212  16.739   5.436  0.1070  0.0845 -0.1314
 7241DDP     P143442   8.359  16.403   5.600 -0.2218 -0.1058 -0.2009
 7241DDP     P243443   8.362  17.112   5.346  0.2350  0.0447 -0.1467
 7241DDP     C243444   8.246  17.463   5.095 -0.1870  0.1772 -0.1928
 7241DDP     C343445   8.218  16.091   5.928 -0.3421 -0.2912  0.0874
 7241DDP     C443446   7.826  16.660   5.699  0.1285  0.2074 -0.0849
 7242DDP     C143447  25.761  27.269   6.941  0.0416 -0.1906 -0.1708
 7242DDP     P143448  25.939  27.378   7.308 -0.2004 -0.1602  0.0383
 7242DDP     P243449  26.017  27.151   6.686 -0.0264 -0.0062 -0.1366
 7242DDP     C243450  26.225  26.865   6.391  0.1843  0.2544  0.0468
 7242DDP     C343451  26.268  27.444   7.549  0.0455 -0.1681 -0.2058
 7242DDP     C443452  25.306  27.181   6.891  0.2146 -0.2471 -0.0026
 7243DDP     C143453  21.969  19.851  21.970 -0.0443 -0.0031  0.2074
 7243DDP     P143454  22.018  20.018  21.577 -0.0079  0.0144  0.1263
 7243DDP     P243455  21.809  19.532  22.229  0.0486 -0.0353 -0.2608
 7243DDP     C243456  21.550  19.168  22.170 -0.1754 -0.1747 -0.0432
 7243DDP     C343457  22.332  20.300  21.348  0.1157  0.3865  0.1346
 7243DDP     C443458  22.199  20.060  22.291 -0.1282 -0.1822  0.0563
 7244DDP     C143459   0.210  12.338   8.133 -0.0615  0.0799  0.2092
 7244DDP     P143460   0.400  12.016   8.321 -0.1173  0.2209 -0.1737
 7244DDP     P243461  30.286  12.142   7.828 -0.1999 -0.2519  0.1187
 7244DDP     C243462  30.026  11.705   7.726  0.1136 -0.2054 -0.0367
 7244DDP     C343463   0.366  11.600   8.543 -0.1808  0.3565 -0.1115
 7244DDP     C443464   0.348  12.770   8.221 -0.3486 -0.2551  0.2636
 7245DDP     C143465   9.232  20.877  28.714  0.1968 -0.2480 -0.1660
 7245DDP     P143466   9.258  20.469  28.914 -0.1318 -0.0492  0.0249
 7245DDP     P243467   9.248  21.029  28.391  0.1065  0.0835 -0.0582
 7245DDP     C243468   9.538  20.960  27.952  0.1162  0.0008 -0.0954
 7245DDP     C343469   8.976  20.380  29.137 -0.0818  0.0046 -0.2702
 7245DDP     C443470   9.075  21.188  28.928 -0.1123 -0.1299 -0.1886
 7246DDP     C143471   1.101   4.586   3.568  0.0556 -0.1348 -0.2370
 7246DDP     P143472   1.147   4.430   4.016  0.1468 -0.0215 -0.1455
 7246DDP     P243473   1.142   5.069   3.489 -0.0637  0.0286  0.0817
 7246DDP     C243474   1.144   5.180   2.978 -0.1101 -0.1346  0.0640
 7246DDP     C343475   1.294   4.604   4.483 -0.1882  0.2413 -0.3152
 7246DDP     C443476   0.809   4.418   3.289 -0.1007 -0.0525 -0.0986
 7247DDP     C143477  14.112   2.849   3.112  0.1148  0.3754  0.3413
 7247DDP     P143478  14.461   3.134   3.099 -0.0400 -0.0276  0.0084
 7247DDP     P243479  14.057   2.431   2.933 -0.0147  0.2164  0.0689
 7247DDP     C243480  14.179   2.113   2.553  0.0358  0.1182  0.1534
 7247DDP     C343481  14.657   3.501   3.020 -0.1910  0.3893 -0.0396
 7247DDP     C443482  13.765   2.950   3.328  0.1988  0.2032  0.1179
 7248DDP     C143483   3.012  23.987  28.662 -0.2811  0.3845  0.1820
 7248DDP     P143484   3.101  24.160  28.315  0.1267 -0.2195  0.1505
 7248DDP     P243485   3.317  23.860  28.980 -0.0328  0.2941 -0.2139
 7248DDP     C243486   3.290  23.780  29.338 -0.2170 -0.0662 -0.1171
 7248DDP     C343487   3.479  24.428  28.399  0.1452  0.0372 -0.0752
 7248DDP     C443488   2.691  23.724  28.633 -0.2590 -0.0518  0.1690
 7249DDP     C143489   9.588  25.317  11.150  0.2147  0.0571  0.0652
 7249DDP     P143490   9.292  25.033  11.214  0.2695  0.0243  0.0176
 7249DDP     P243491   9.772  25.469  10.730 -0.0668 -0.1365  0.0949
 7249DDP     C243492   9.844  25.339  10.239 -0.0088 -0.1847  0.0915
 7249DDP     C343493   9.070  24.716  11.170  0.3333  0.4650 -0.1493
 7249DDP     C443494   9.769  25.146  11.598 -0.2316  0.1413  0.1138
 7250DDP     C143495  14.952   0.132  22.107 -0.1626  0.2618  0.0824
 7250DDP     P143496  15.288   0.379  21.956  0.1801 -0.1138  0.2346
 7250DDP     P243497  15.164  30.160  22.315  0.0680  0.0771 -0.3863
 7250DDP     C243498  15.094  29.786  22.630 -0.3363 -0.1763 -0.0518
 7250DDP     C343499  15.712   0.607  22.098  0.1164 -0.1647 -0.1402
 7250DDP     C443500  14.537   0.380  22.077 -0.0739  0.1472 -0.2336
 7251DDP     C143501  17.276  28.676  16.429  0.1368  0.1553  0.1008
 7251DDP     P143502  16.879  28.441  16.366  0.0196  0.0505 -0.1424
 7251DDP     P243503  17.704  28.683  16.621  0.2251 -0.0746 -0.0280
 7251DDP     C243504  18.104  28.765  16.689 -0.0994  0.0408 -0.2123
 7251DDP     C343505  16.429  28.195  16.717 -0.1740 -0.1477  0.2116
 7251DDP     C443506  17.170  29.040  16.468 -0.1207  0.1545 -0.0593
 7252DDP     C143507  22.974  15.926   2.424  0.4064 -0.0340 -0.0475
 7252DDP     P143508  23.158  15.740   2.718 -0.3094  0.3070 -0.0143
 7252DDP     P243509  22.607  16.196   2.452 -0.1809  0.3723 -0.1404
 7252DDP     C243510  22.425  16.515   2.612 -0.0772 -0.0417  0.1886
 7252DDP     C343511  23.030  15.366   2.822  0.3424 -0.0251  0.2310
 7252DDP     C443512  23.180  15.726   2.108  0.0624 -0.0722 -0.2418
 7253DDP     C143513   9.556   8.093  14.625  0.1289 -0.1343 -0.2980
 7253DDP     P143514   9.163   8.138  14.658 -0.0250  0.2864 -0.4642
 7253DDP     P243515   9.815   7.837  14.887 -0.0361 -0.0664  0.2693
 7253DDP     C243516  10.163   7.612  15.137  0.1471 -0.0825 -0.0015
 7253DDP     C343517   8.916   8.289  14.321 -0.1031  0.0969  0.1949
 7253DDP     C443518   9.719   8.220  14.256 -0.2805 -0.0179  0.1200
 7254DDP     C143519   8.159   3.608   5.945 -0.0488  0.2031  0.2054
 7254DDP     P143520   8.463   3.997   6.048  0.2845 -0.0799  0.1321
 7254DDP     P243521   7.865   3.551   5.606  0.0218 -0.0649  0.0507
 7254DDP     C243522   7.865   3.177   5.319  0.0709 -0.0215  0.1162
 7254DDP     C343523   8.544   4.371   5.884 -0.0494  0.0226 -0.0874
 7254DDP     C443524   8.201   3.329   6.229  0.3290 -0.2667 -0.2100
 7255DDP     C143525  11.778   3.335   9.140 -0.0345  0.3421  0.1937
 7255DDP     P143526  11.715   2.931   9.311 -0.0438 -0.2639 -0.1126
 7255DDP     P243527  11.468   3.603   9.217  0.0663  0.1451  0.2395
 7255DDP     C243528  11.415   4.000   9.471 -0.1867  0.1311 -0.2334
 7255DDP     C343529  11.555   2.589   9.274 -0.1303  0.0234  0.1181
 7255DDP     C443530  12.165   3.601   9.047  0.1170  0.1083  0.0238
 7256DDP     C143531  30.193   1.536  16.679  0.0605  0.2137 -0.1755
 7256DDP     P143532  30.093   1.949  16.478  0.0416  0.2115 -0.1844
 7256DDP     P243533   0.068   1.705  17.062  0.0351  0.1449 -0.0532
 7256DDP     C243534   0.440   1.857  17.367 -0.3178  0.0220  0.0557
 7256DDP     C343535  29.933   2.349  16.296  0.0527 -0.0488  0.0693
 7256DDP     C443536  30.103   1.096  16.605  0.0929 -0.0099 -0.0276
 7257DDP     C143537  26.209  27.964   3.350 -0.2570  0.0926 -0.1715
 7257DDP     P143538  26.085  28.084   3.002  0.0121 -0.0059  0.0348
 7257DDP     P243539  26.359  27.559   3.563 -0.2207 -0.1226  0.0880
 7257DDP     C243540  26.568  27.204   3.589  0.1125 -0.0340  0.0681
 7257DDP     C343541  26.223  27.940   2.603  0.1848 -0.0186  0.1557
 7257DDP     C443542  26.238  28.261   3.680  0.1726 -0.1731 -0.3298
 7258DDP     C143543  25.200  16.488  30.050 -0.1410  0.0180  0.1976
 7258DDP     P143544  25.559  16.618  30.104 -0.0049  0.1117  0.0135
 7258DDP     P243545  24.842  16.565  30.281 -0.2260 -0.1327  0.2233
 7258DDP     C243546  24.498  16.594   0.174 -0.2883 -0.0858  0.0415
 7258DDP     C343547  25.942  16.660   0.070 -0.1713 -0.0151 -0.0291
 7258DDP     C443548  25.304  16.266  29.617  0.2281 -0.2426 -0.0514
 7259DDP     C143549  18.544  12.250   0.472 -0.0452 -0.1057  0.0012
 7259DDP     P143550  18.903  12.263   0.368  0.0045 -0.0329  0.1167
 7259DDP     P243551  18.471  11.925   0.713 -0.2643 -0.0500  0.0768
 7259DDP     C243552  18.483  11.519   1.025  0.1040 -0.1442 -0.1286
 7259DDP     C343553  19.200  12.285   0.043  0.0951  0.1997  0.1149
 7259DDP     C443554  18.318  12.596   0.638  0.1522  0.0040 -0.0101
 7260DDP     C143555   7.566  14.343  18.861 -0.0797  0.1344 -0.2165
 7260DDP     P143556   7.176  14.464  18.706  0.1136  0.1599  0.3656
 7260DDP     P243557   7.753  14.044  18.661  0.0296 -0.0949  0.0001
 7260DDP     C243558   8.003  13.875  18.215  0.0403 -0.0995  0.2416
 7260DDP     C343559   6.741  14.669  18.716  0.1754 -0.1343 -0.0401
 7260DDP     C443560   7.827  14.543  19.174  0.1048  0.1389  0.0742
 7261DDP     C143561  14.399  22.484  19.725 -0.0999  0.1349 -0.0066
 7261DDP     P143562  14.375  22.098  20.008 -0.1333 -0.1760 -0.2620
 7261DDP     P243563  14.097  22.687  19.833  0.1516  0.0368 -0.0362
 7261DDP     C243564  14.051  23.083  19.899 -0.0678 -0.0822  0.4651
 7261DDP     C343565  14.458  21.705  20.028  0.2672 -0.2688 -0.0728
 7261DDP     C443566  14.738  22.439  19.419 -0.0871 -0.0608 -0.2622
 7262DDP     C143567  24.270  23.302  14.243  0.2060 -0.3368  0.0032
 7262DDP     P143568  24.202  22.971  14.058  0.3546 -0.0336  0.1205
 7262DDP     P243569  24.419  23.649  14.048 -0.0622 -0.4355 -0.0301
 7262DDP     C243570  24.442  24.088  14.059  0.1877  0.0524  0.2403
 7262DDP     C343571  23.971  22.696  13.800 -0.0309 -0.1386  0.0670
 7262DDP     C443572  24.277  23.383  14.729 -0.0272 -0.1044  0.3630
 7263DDP     C143573   8.929  13.285  13.148 -0.0446  0.1173 -0.0973
 7263DDP     P143574   8.551  13.203  13.259  0.0612  0.0031 -0.0242
 7263DDP     P243575   8.828  13.501  12.769  0.0979 -0.1611  0.0049
 7263DDP     C243576   8.837  13.872  12.501  0.2908  0.1966  0.2345
 7263DDP     C343577   8.264  13.322  13.536 -0.0580 -0.0762  0.1191
 7263DDP     C443578   9.318  13.269  13.154 -0.1491 -0.1255  0.1465
 7264DDP     C143579  10.819  21.397  26.503  0.1444  0.0586 -0.0589
 7264DDP     P143580  10.483  21.621  26.275 -0.2367 -0.2150  0.0716
 7264DDP     P243581  10.718  21.388  26.946  0.0935 -0.1547 -0.2167
 7264DDP     C243582  10.490  21.668  27.221  0.1735 -0.1124 -0.4693
 7264DDP     C343583  10.233  21.603  25.878  0.3544  0.1694 -0.1296
 7264DDP     C443584  11.122  21.189  26.339 -0.1322  0.1413 -0.1389
 7265DDP     C143585  23.551   7.345   3.131  0.2846  0.0581  0.2241
 7265DDP     P143586  23.767   7.291   2.707  0.0397 -0.0051 -0.1656
 7265DDP     P243587  23.149   7.416   2.988 -0.2640 -0.1472 -0.0844
 7265DDP     C243588  22.755   7.520   2.956  0.1396  0.2321  0.2621
 7265DDP     C343589  24.101   6.979   2.689  0.1032 -0.1589 -0.1342
 7265DDP     C443590  23.581   7.032   3.425  0.1882 -0.0055 -0.0674
 7266DDP     C143591   2.028  19.793   6.222 -0.0373  0.2180 -0.1311
 7266DDP     P143592   2.267  19.796   5.730  0.0123  0.0355 -0.0719
 7266DDP     P243593   2.015  19.355   6.429  0.4016 -0.3367  0.2269
 7266DDP     C243594   2.112  19.023   6.694 -0.2467  0.1887 -0.0810
 7266DDP     C343595   2.504  19.769   5.376 -0.0634 -0.0159 -0.2494
 7266DDP     C443596   1.783  20.164   6.303 -0.1077 -0.0092 -0.0423
 7267DDP     C143597  15.450   9.357  10.721 -0.3200  0.1800 -0.0780
 7267DDP     P143598  15.356   9.172  11.051 -0.0484  0.1236 -0.0615
 7267DDP     P243599  15.106   9.193  10.459  0.1412  0.5317  0.1197
 7267DDP     C243600  14.878   8.801  10.279  0.3077  0.0524  0.3354
 7267DDP     C343601  15.209   9.002  11.419 -0.1269 -0.0504 -0.0277
 7267DDP     C443602  15.893   9.450  10.721  0.2632  0.3078  0.1376
 7268DDP     C143603  12.140   7.877   3.288  0.0906  0.2947  0.2759
 7268DDP     P143604  12.294   7.574   3.026  0.2132  0.2439  0.2116
 7268DDP     P243605  12.380   8.246   3.323  0.2186 -0.1484 -0.0305
 7268DDP     C243606  12.703   8.424   3.028 -0.0683  0.0601 -0.3552
 7268DDP     C343607  12.450   7.508   2.518  0.0297  0.2440 -0.1437
 7268DDP     C443608  11.795   7.908   3.551  0.1076  0.1042  0.0436
 7269DDP     C143609   2.444  21.971   8.018 -0.1113 -0.0746  0.3298
 7269DDP     P143610   2.306  22.385   7.870  0.0499 -0.3496 -0.2064
 7269DDP     P243611   2.615  21.620   7.652  0.0037 -0.1158  0.2366
 7269DDP     C243612   2.411  21.467   7.404 -0.2800 -0.0071 -0.3936
 7269DDP     C343613   1.906  22.627   7.801 -0.0918 -0.2454  0.1235
 7269DDP     C443614   2.455  21.787   8.395 -0.0534 -0.0293  0.2321
 7270DDP     C143615   3.535   4.482  13.169 -0.0413  0.3457  0.0400
 7270DDP     P143616   3.975   4.541  13.179  0.2257  0.1229 -0.0716
 7270DDP     P243617   3.089   4.537  12.839 -0.0525 -0.1188  0.0168
 7270DDP     C243618   3.167   4.885  12.492  0.1748  0.3497  0.2723
 7270DDP     C343619   4.379   4.233  13.098 -0.0697 -0.4234  0.1096
 7270DDP     C443620   3.477   4.242  13.472 -0.0427  0.2351 -0.1141
 7271DDP     C143621   7.321  10.714   4.249 -0.4103 -0.0191 -0.0974
 7271DDP     P143622   7.017  10.937   4.397 -0.0538  0.4556  0.1084
 7271DDP     P243623   7.260  10.350   3.876 -0.1387  0.3851 -0.0561
 7271DDP     C243624   6.848  10.355   3.608  0.0533  0.0277 -0.3794
 7271DDP     C343625   6.999  11.381   4.356 -0.1574 -0.1246 -0.2090
 7271DDP     C443626   7.641  10.695   4.495 -0.2108 -0.2536  0.0102
 7272DDP     C143627  29.288  12.137   9.051  0.2513  0.1812 -0.2175
 7272DDP     P143628  29.314  11.752   8.911 -0.0513  0.4742 -0.2499
 7272DDP     P243629  29.121  12.315   9.500 -0.2561 -0.0298 -0.1230
 7272DDP     C243630  29.116  12.173  10.013 -0.1666 -0.0506  0.1355
 7272DDP     C343631  29.441  11.305   8.836 -0.0393  0.0851  0.1743
 7272DDP     C443632  29.085  12.192   8.624  0.0648 -0.1769 -0.0672
 7273DDP     C143633  28.867   3.165  24.371  0.2325  0.2247 -0.0281
 7273DDP     P143634  29.089   3.351  24.762 -0.1936  0.0326 -0.3866
 7273DDP     P243635  29.067   3.027  23.971  0.0092 -0.0436  0.1557
 7273DDP     C243636  29.422   2.768  23.756  0.0722 -0.1800 -0.1356
 7273DDP     C343637  29.487   3.657  24.881  0.1582 -0.3155 -0.1377
 7273DDP     C443638  28.460   2.947  24.304  0.1760  0.1304  0.2335
 7274DDP     C143639  27.763  11.277  26.450 -0.1430 -0.1493 -0.1518
 7274DDP     P143640  27.455  10.998  26.184  0.1340 -0.0736  0.2763
 7274DDP     P243641  28.205  11.259  26.462  0.1946  0.1313 -0.0706
 7274DDP     C243642  28.515  11.266  26.778  0.2263  0.0768 -0.0406
 7274DDP     C343643  27.211  10.845  25.816 -0.1642 -0.0779  0.2002
 7274DDP     C443644  27.632  11.603  26.754 -0.2423  0.2873 -0.2249
 7275DDP     C143645  14.687  13.589  26.425 -0.1188 -0.0844  0.0575
 7275DDP     P143646  14.321  13.355  26.651 -0.1304 -0.1768  0.0182
 7275DDP     P243647  14.876  13.894  26.626  0.1929 -0.1382  0.0148
 7275DDP     C243648  14.670  14.218  27.011 -0.2402  0.1326  0.0514
 7275DDP     C343649  13.858  13.248  26.558 -0.1385  0.0005 -0.1175
 7275DDP     C443650  14.912  13.506  26.006  0.0965 -0.3963  0.1248
 7276DDP     C143651  10.103  27.544  18.524 -0.3035  0.2414 -0.1030
 7276DDP     P143652  10.459  27.731  18.554  0.0165  0.0219 -0.0283
 7276DDP     P243653  10.067  27.295  18.959  0.3448 -0.1613  0.0241
 7276DDP     C243654  10.358  26.996  19.206 -0.1041 -0.1831  0.1410
 7276DDP     C343655  10.620  28.137  18.288 -0.2262 -0.3390 -0.2911
 7276DDP     C443656   9.819  27.491  18.111 -0.0543 -0.2735 -0.0254
 7277DDP     C143657   2.024  12.643  20.652 -0.0495 -0.1581 -0.0613
 7277DDP     P143658   2.372  12.589  20.391  0.2876  0.1597  0.0487
 7277DDP     P243659   1.985  13.074  20.773  0.1101 -0.0621  0.1579
 7277DDP     C243660   1.940  13.589  20.848 -0.0275  0.0543  0.2070
 7277DDP     C343661   2.615  12.550  20.045  0.0007 -0.1100  0.2864
 7277DDP     C443662   1.829  12.196  20.695  0.1321 -0.0279  0.2978
 7278DDP     C143663  23.577  13.704  15.078 -0.0791  0.1610  0.2565
 7278DDP     P143664  23.244  13.674  14.727  0.3645 -0.3168 -0.2471
 7278DDP     P243665  23.466  13.519  15.485 -0.1455  0.0309 -0.0663
 7278DDP     C243666  23.362  13.256  15.665  0.0732  0.1193 -0.1629
 7278DDP     C343667  22.958  13.802  14.393  0.1745  0.0087 -0.4471
 7278DDP     C443668  24.024  13.777  14.972 -0.0544 -0.3030 -0.1936
 7279DDP     C143669  18.587  29.942   3.951  0.0268 -0.0501 -0.0562
 7279DDP     P143670  18.609  30.332   4.134 -0.0095  0.3952 -0.3500
 7279DDP     P243671  18.679  30.035   3.547  0.1373 -0.1578 -0.0289
 7279DDP     C243672  18.821  30.232   3.190 -0.0246 -0.1349 -0.0217
 7279DDP     C343673  18.830   0.363   4.239 -0.2036  0.1306 -0.2224
 7279DDP     C443674  18.268  29.597   4.036  0.2511 -0.0139 -0.0829
 7280DDP     C143675  15.210   5.660   4.867  0.0877 -0.0075 -0.0113
 7280DDP     P143676  15.429   5.288   4.765 -0.0635  0.3783  0.1430
 7280DDP     P243677  15.325   6.021   4.879 -0.2024 -0.0204 -0.1585
 7280DDP     C243678  15.692   6.074   5.066 -0.0099 -0.2376  0.0264
 7280DDP     C343679  15.723   5.236   4.330 -0.1043  0.0109  0.0657
 7280DDP     C443680  14.800   5.515   5.043 -0.3400  0.1359 -0.0637
 7281DDP     C143681  25.621   6.564   5.401 -0.2475 -0.4086 -0.0587
 7281DDP     P143682  25.977   6.819   5.215 -0.0078  0.0674  0.2770
 7281DDP     P243683  25.715   6.157   5.232  0.3183  0.1550 -0.0709
 7281DDP     C243684  26.092   5.933   5.102  0.0020 -0.2227 -0.3725
 7281DDP     C343685  26.120   7.194   4.951 -0.0880  0.0854  0.2193
 7281DDP     C443686  25.263   6.671   5.652  0.0883  0.0831 -0.0885
 7282DDP     C143687   2.077   4.767  16.829  0.4949  0.1890  0.1206
 7282DDP     P143688   2.271   5.102  16.685  0.3909  0.1337  0.0211
 7282DDP     P243689   2.251   4.356  16.819  0.1500 -0.0359 -0.1914
 7282DDP     C243690   2.618   4.114  16.647  0.0699  0.1950  0.1415
 7282DDP     C343691   2.259   5.220  16.256 -0.0721 -0.1914  0.1155
 7282DDP     C443692   1.721   5.023  16.956  0.1104 -0.1328  0.0955
 7283DDP     C143693  14.022  12.583   8.308 -0.1364 -0.4153 -0.2964
 7283DDP     P143694  14.311  12.555   7.967 -0.0588  0.0963  0.0605
 7283DDP     P243695  13.827  12.260   8.564  0.0395 -0.2692 -0.0215
 7283DDP     C243696  14.017  12.036   8.653  0.2259 -0.3042  0.1867
 7283DDP     C343697  14.427  12.158   7.809  0.1136 -0.1226 -0.0586
 7283DDP     C443698  13.737  12.964   8.247 -0.3009 -0.1606 -0.2786
 7284DDP     C143699   4.425  25.553  14.655  0.0966 -0.3161 -0.2743
 7284DDP     P143700   4.335  25.138  14.537 -0.1214  0.0240  0.1099
 7284DDP     P243701   4.715  25.417  14.980  0.2115  0.3153 -0.0605
 7284DDP     C243702   4.860  25.107  14.732  0.2883  0.1943 -0.1704
 7284DDP     C343703   4.306  24.661  14.586 -0.2475 -0.0898 -0.1052
 7284DDP     C443704   4.434  25.890  14.350  0.1305 -0.3580 -0.0362
 7285DDP     C143705   8.960   6.445  14.992 -0.4898  0.0234 -0.0240
 7285DDP     P143706   9.354   6.707  14.916 -0.1603  0.2956 -0.0453
 7285DDP     P243707   8.733   6.122  15.301  0.0267 -0.0913 -0.1132
 7285DDP     C243708   8.770   5.881  15.592  0.7732  0.0031 -0.0556
 7285DDP     C343709   9.318   7.102  14.739  0.0010 -0.0936  0.0518
 7285DDP     C443710   8.633   6.644  14.734 -0.1722 -0.0488  0.1098
 7286DDP     C143711  15.592   2.310   4.337 -0.3083  0.0173  0.0704
 7286DDP     P143712  15.840   2.462   3.966 -0.1455 -0.1290  0.2579
 7286DDP     P243713  15.213   2.030   4.427  0.0778 -0.0534  0.1227
 7286DDP     C243714  14.863   1.885   4.676  0.0520  0.0349  0.0430
 7286DDP     C343715  15.976   2.878   4.026 -0.1647  0.3827  0.0288
 7286DDP     C443716  15.749   2.568   4.689  0.0995  0.0400  0.1002
 7287DDP     C143717   0.325  10.781   9.461  0.2836  0.0325  0.2404
 7287DDP     P143718   0.507  10.890   9.163  0.0336 -0.1459  0.0498
 7287DDP     P243719  30.258  10.845   9.751 -0.0098 -0.2766  0.1761
 7287DDP     C243720  30.173  10.850  10.146  0.0775  0.3049  0.0664
 7287DDP     C343721   0.378  11.099   8.831  0.1538 -0.0223  0.0538
 7287DDP     C443722   0.633  10.483   9.716 -0.1677 -0.2681  0.1474
 7288DDP     C143723  17.034  17.495  28.019 -0.0483  0.0122  0.0707
 7288DDP     P143724  17.193  17.127  28.103 -0.1860 -0.1489  0.0225
 7288DDP     P243725  17.245  17.778  28.256  0.3626 -0.0822 -0.0935
 7288DDP     C243726  17.297  18.007  28.675 -0.3027  0.1014  0.1985
 7288DDP     C343727  17.143  16.694  28.056  0.1839  0.1706 -0.0193
 7288DDP     C443728  16.580  17.489  27.914 -0.4241 -0.2392 -0.1486
 7289DDP     C143729   0.400  22.988   8.956 -0.1786  0.1280  0.0456
 7289DDP     P143730   0.792  22.836   9.063  0.0805 -0.1123  0.1155
 7289DDP     P243731   0.118  22.865   8.762 -0.1531  0.0899 -0.0967
 7289DDP     C243732  30.135  22.586   8.478 -0.1905 -0.0257  0.2945
 7289DDP     C343733   0.838  22.763   9.556  0.1095  0.1076  0.0720
 7289DDP     C443734   0.078  23.357   9.232  0.2110 -0.1580 -0.1074
 7290DDP     C143735  12.413  20.468  28.240 -0.2519  0.0353  0.2188
 7290DDP     P143736  12.004  20.450  28.324  0.1892  0.0269  0.1497
 7290DDP     P243737  12.445  20.041  28.000  0.2497  0.0672  0.1998
 7290DDP     C243738  12.315  19.696  27.817  0.1507  0.0242  0.1049
 7290DDP     C343739  11.629  20.583  28.213 -0.1610 -0.1068  0.0915
 7290DDP     C443740  12.679  20.613  28.531 -0.0867  0.3036  0.1382
 7291DDP     C143741  28.846  20.771  21.466 -0.0184 -0.0572  0.4090
 7291DDP     P143742  28.312  20.702  21.403  0.1302 -0.0749 -0.2484
 7291DDP     P243743  29.098  20.823  21.124 -0.0089 -0.1848  0.1423
 7291DDP     C243744  29.423  21.023  20.861  0.2542  0.0437  0.1320
 7291DDP     C343745  27.990  20.694  21.220 -0.2304  0.0019 -0.1727
 7291DDP     C443746  28.997  20.716  21.852 -0.1178  0.1462 -0.0437
 7292DDP     C143747   7.543  13.708  29.269 -0.0510 -0.0998  0.1202
 7292DDP     P143748   7.480  13.267  29.131  0.0894 -0.0838 -0.0892
 7292DDP     P243749   7.314  13.667  29.612  0.2876 -0.1410  0.1869
 7292DDP     C243750   7.345  13.668  30.004 -0.0586 -0.0776 -0.0417
 7292DDP     C343751   7.470  12.798  29.083  0.0818  0.3991  0.1444
 7292DDP     C443752   7.812  13.997  29.113  0.1825  0.0985 -0.0543
 7293DDP     C143753  19.197  27.709   5.165  0.0872 -0.0291  0.0774
 7293DDP     P143754  19.278  27.310   5.324  0.0508 -0.0890 -0.1770
 7293DDP     P243755  18.958  27.858   5.410 -0.2526 -0.1052  0.0773
 7293DDP     C243756  18.644  27.826   5.693 -0.0526  0.2334  0.2574
 7293DDP     C343757  19.279  26.815   5.224 -0.5057 -0.1858  0.1744
 7293DDP     C443758  19.093  27.854   4.821 -0.0540  0.2973 -0.0196
 7294DDP     C143759   4.248  11.470   0.400  0.0604  0.2448  0.0888
 7294DDP     P143760   3.863  11.267   0.523 -0.0696 -0.1439  0.0747
 7294DDP     P243761   4.462  11.302   0.094 -0.2634 -0.0404  0.0456
 7294DDP     C243762   4.467  11.132  30.026  0.1411 -0.1916  0.2365
 7294DDP     C343763   3.439  11.257   0.600 -0.1057  0.3505 -0.0774
 7294DDP     C443764   4.236  11.775   0.725  0.0944 -0.1135 -0.0015
 7295DDP     C143765  14.534   4.383  15.345 -0.1077 -0.1976  0.1305
 7295DDP     P143766  14.796   4.021  15.399 -0.1520 -0.2636 -0.0733
 7295DDP     P243767  14.516   4.725  15.545 -0.1155 -0.2293  0.0959
 7295DDP     C243768  14.640   4.818  15.962  0.1983  0.0640 -0.0186
 7295DDP     C343769  15.262   3.898  15.539  0.1731  0.3076  0.0006
 7295DDP     C443770  14.566   4.071  14.898  0.1313  0.1031  0.0065
 7296DDP     C143771   3.743   9.521  16.516 -0.1320  0.0933  0.1946
 7296DDP     P143772   3.485   9.761  16.346  0.2374  0.1001  0.1090
 7296DDP     P243773   3.626   9.139  16.687 -0.1454 -0.1149  0.0366
 7296DDP     C243774   3.651   8.935  17.058 -0.0255 -0.3812  0.1102
 7296DDP     C343775   2.955   9.647  16.178 -0.1836 -0.0744  0.0884
 7296DDP     C443776   4.105   9.642  16.218  0.0935  0.0255 -0.0553
 7297DDP     C143777   8.005  22.747  19.840 -0.0664  0.1210 -0.0130
 7297DDP     P143778   7.712  22.600  19.523  0.1752 -0.0920 -0.0299
 7297DDP     P243779   8.007  23.022  20.142  0.0996  0.0558  0.2874
 7297DDP     C243780   7.752  23.154  20.455 -0.2866 -0.0653  0.0777
 7297DDP     C343781   7.653  22.534  19.143 -0.1174  0.3023 -0.1694
 7297DDP     C443782   8.479  22.675  19.856 -0.0716  0.0035 -0.2031
 7298DDP     C143783   7.203  26.498   9.868 -0.0866 -0.2030  0.1837
 7298DDP     P143784   7.215  26.478   9.382 -0.0326 -0.0498  0.5171
 7298DDP     P243785   7.016  26.247  10.174 -0.1674  0.0553 -0.0530
 7298DDP     C243786   6.801  26.285  10.604 -0.3236 -0.1387  0.0584
 7298DDP     C343787   7.581  26.179   9.252  0.2667  0.0153 -0.2637
 7298DDP     C443788   7.228  26.932   9.829 -0.0429  0.0697  0.1786
 7299DDP     C143789  10.402  23.360  27.042  0.1430  0.1202 -0.1193
 7299DDP     P143790  10.643  23.530  27.393 -0.0798 -0.0855  0.2693
 7299DDP     P243791  10.367  22.914  26.861 -0.1377 -0.2058  0.1783
 7299DDP     C243792  10.190  22.547  27.087 -0.1162  0.2592 -0.1557
 7299DDP     C343793  10.847  23.526  27.768 -0.1892 -0.0191  0.2796
 7299DDP     C443794  10.092  23.666  26.966 -0.1639 -0.2868 -0.0729
 7300DDP     C143795  22.951   6.779  17.701 -0.0858  0.0327 -0.2220
 7300DDP     P143796  22.857   6.872  17.298  0.1682  0.0143 -0.0888
 7300DDP     P243797  23.279   6.683  18.028  0.0278  0.1634 -0.3487
 7300DDP     C243798  23.501   6.464  18.254 -0.2423  0.1110 -0.1294
 7300DDP     C343799  22.799   6.640  16.941  0.2176  0.1256 -0.2641
 7300DDP     C443800  22.655   6.820  18.183 -0.4500  0.2454  0.0131
 7301DDP     C143801  17.749   9.090  18.467  0.2782  0.2630  0.0595
 7301DDP     P143802  17.954   8.978  18.778 -0.3354 -0.3066 -0.3532
 7301DDP     P243803  17.277   9.283  18.543 -0.2188 -0.0247  0.1198
 7301DDP     C243804  16.936   9.467  18.711  0.0305 -0.2545 -0.1299
 7301DDP     C343805  18.227   8.537  18.873 -0.3026 -0.0913 -0.0826
 7301DDP     C443806  17.946   9.134  18.079  0.0405  0.0507 -0.0360
 7302DDP     C143807  18.836  30.184   7.129  0.1432  0.1016 -0.2961
 7302DDP     P143808  18.568  30.157   6.689 -0.2411 -0.0996 -0.2141
 7302DDP     P243809  18.559  30.317   7.425 -0.0335  0.1397 -0.1484
 7302DDP     C243810  18.362   0.335   7.388 -0.1851 -0.1064  0.0135
 7302DDP     C343811  18.402   0.176   6.456  0.2387 -0.0084 -0.1771
 7302DDP     C443812  19.262  29.993   7.176  0.0092  0.0949 -0.0293
 7303DDP     C143813  10.758  18.255  27.765 -0.0577 -0.0838 -0.0651
 7303DDP     P143814  10.562  18.343  28.074  0.1867 -0.0467 -0.5679
 7303DDP     P243815  10.861  18.644  27.488 -0.1101  0.0343  0.2519
 7303DDP     C243816  10.858  19.078  27.752  0.0624 -0.0976  0.0790
 7303DDP     C343817  10.408  18.513  28.497 -0.0906  0.0429 -0.1647
 7303DDP     C443818  10.620  18.085  27.399 -0.3273 -0.2176  0.1506
 7304DDP     C143819   3.691  17.721  27.394  0.1170 -0.1079 -0.2938
 7304DDP     P143820   3.393  17.874  27.762  0.0563  0.0592  0.0873
 7304DDP     P243821   3.459  17.524  27.151 -0.1894 -0.1398  0.2249
 7304DDP     C243822   3.747  17.288  26.847  0.1756 -0.1120  0.2586
 7304DDP     C343823   3.037  18.187  27.720 -0.2924  0.2005  0.3013
 7304DDP     C443824   4.254  17.772  27.423  0.1388 -0.0799  0.0086
 7305DDP     C143825  19.476  10.836  28.365  0.0807 -0.0511  0.1506
 7305DDP     P143826  19.476  11.028  28.652 -0.0474  0.0650  0.0466
 7305DDP     P243827  19.238  10.573  28.091 -0.2069 -0.1139 -0.1069
 7305DDP     C243828  18.757  10.451  27.999  0.2597 -0.0599 -0.2272
 7305DDP     C343829  19.651  11.360  28.693  0.0036  0.1013 -0.1008
 7305DDP     C443830  19.566  10.965  27.933  0.0494  0.1778 -0.0997
 7306DDP     C143831   2.842   9.032  17.342  0.4835 -0.1076 -0.2667
 7306DDP     P143832   2.601   9.105  16.896 -0.1962 -0.2812 -0.0783
 7306DDP     P243833   2.540   8.826  17.631  0.0892  0.1180 -0.0400
 7306DDP     C243834   2.359   8.665  17.989  0.0151  0.1258 -0.0499
 7306DDP     C343835   2.573   8.827  16.512 -0.0520 -0.2226 -0.0011
 7306DDP     C443836   3.178   9.198  17.278  0.1279  0.4331  0.0518
 7307DDP     C143837  25.441  26.818  28.255  0.3504 -0.4332 -0.3547
 7307DDP     P143838  25.380  26.706  27.735 -0.1544 -0.0562  0.2002
 7307DDP     P243839  25.620  26.571  28.599 -0.1759 -0.2486 -0.1512
 7307DDP     C243840  25.950  26.386  28.677  0.0945  0.0178  0.2210
 7307DDP     C343841  25.008  26.724  27.458 -0.2917 -0.1513 -0.1417
 7307DDP     C443842  25.338  27.279  28.267 -0.3308 -0.0303  0.1332
 7308DDP     C143843  25.844   5.452  27.617  0.1592  0.2768 -0.1851
 7308DDP     P143844  26.262   5.242  27.746  0.0002 -0.1276 -0.1257
 7308DDP     P243845  25.542   5.330  27.436  0.0956 -0.0008  0.1271
 7308DDP     C243846  25.104   5.225  27.543 -0.0778 -0.1018 -0.0916
 7308DDP     C343847  26.692   5.308  27.934 -0.2743 -0.0390 -0.1661
 7308DDP     C443848  25.835   5.843  27.885  0.2495  0.4917 -0.2963
 7309DDP     C143849   7.557  29.878  17.692  0.0651  0.0774  0.0677
 7309DDP     P143850   7.634  29.473  17.720  0.2008 -0.3438  0.1151
 7309DDP     P243851   7.473  29.980  17.218 -0.0607  0.1352  0.2929
 7309DDP     C243852   7.583  30.124  16.847 -0.0453  0.0541  0.0265
 7309DDP     C343853   7.919  29.222  17.834  0.2384 -0.4623 -0.0034
 7309DDP     C443854   7.658  30.166  17.920 -0.2657 -0.1095 -0.0420
 7310DDP     C143855  30.334   6.889  26.468  0.1579 -0.1159 -0.0101
 7310DDP     P143856  30.150   7.092  26.139  0.1853  0.2551  0.0726
 7310DDP     P243857  29.967   6.766  26.667 -0.1773  0.0251 -0.1378
 7310DDP     C243858  29.597   6.725  26.717 -0.2150  0.1328 -0.0388
 7310DDP     C343859  30.276   7.155  25.782  0.0539 -0.0462 -0.3345
 7310DDP     C443860   0.485   6.850  26.660  0.2221  0.1230 -0.0530
 7311DDP     C143861  19.672  23.211  14.546 -0.0455  0.0431 -0.1579
 7311DDP     P143862  19.859  23.527  14.678 -0.1144  0.4561 -0.0186
 7311DDP     P243863  19.723  22.768  14.551 -0.3739  0.0067 -0.0399
 7311DDP     C243864  19.812  22.444  14.888 -0.3238  0.0706  0.0130
 7311DDP     C343865  20.265  23.508  14.955  0.2769  0.0963  0.1693
 7311DDP     C443866  19.235  23.477  14.507 -0.2234 -0.0652  0.0596
 7312DDP     C143867  25.808   1.362  14.600 -0.2187  0.0271 -0.0083
 7312DDP     P143868  26.106   1.207  14.328  0.2302  0.4461 -0.0188
 7312DDP     P243869  25.591   1.732  14.418  0.0085 -0.1720  0.2462
 7312DDP     C243870  25.522   1.857  13.983  0.0850  0.2835 -0.1562
 7312DDP     C343871  26.405   1.315  13.875  0.0113 -0.0526 -0.1365
 7312DDP     C443872  25.561   1.049  14.906 -0.0392 -0.3147  0.0655
 7313DDP     C143873   8.446  17.717  30.137 -0.0859  0.1667  0.0498
 7313DDP     P143874   8.812  17.461  29.953 -0.0159  0.0896  0.2556
 7313DDP     P243875   8.453  17.965   0.162 -0.0018  0.0477 -0.1438
 7313DDP     C243876   8.340  18.010   0.564 -0.2540  0.0427 -0.3391
 7313DDP     C343877   9.071  17.507  29.595  0.1376  0.0099  0.1144
 7313DDP     C443878   8.000  17.732  30.073 -0.1617 -0.0187 -0.0658
 7314DDP     C143879  21.662   5.770  17.800 -0.0823 -0.0164 -0.0606
 7314DDP     P143880  21.607   6.114  17.853 -0.1665  0.0298 -0.1582
 7314DDP     P243881  22.072   5.523  17.913  0.0445  0.1327 -0.0611
 7314DDP     C243882  22.308   5.137  17.785  0.0189  0.0012 -0.3501
 7314DDP     C343883  21.773   6.425  18.241 -0.3000 -0.2954  0.2085
 7314DDP     C443884  21.367   5.480  17.596  0.1753 -0.0695 -0.0619
 7315DDP     C143885   0.046  14.949  13.214 -0.0905  0.2786  0.2690
 7315DDP     P143886  30.119  15.266  13.263 -0.1826 -0.1808  0.0469
 7315DDP     P243887  30.089  14.649  13.279  0.1156 -0.0812  0.0070
 7315DDP     C243888  29.764  14.482  13.525  0.1127  0.0961  0.1479
 7315DDP     C343889  29.862  15.439  13.632 -0.1542  0.1992  0.4392
 7315DDP     C443890   0.429  14.939  13.049 -0.2171  0.1718 -0.2799
 7316DDP     C143891   3.607  13.565  23.529 -0.0518  0.1623 -0.0624
 7316DDP     P143892   3.553  13.396  23.990  0.3318  0.1617 -0.0840
 7316DDP     P243893   3.328  13.997  23.390 -0.0932 -0.1954 -0.2096
 7316DDP     C243894   3.724  14.320  23.313 -0.3915 -0.0653  0.0675
 7316DDP     C343895   3.275  13.368  24.261  0.0608  0.0760  0.1256
 7316DDP     C443896   3.902  13.256  23.264 -0.0316  0.4319 -0.0057
 7317DDP     C143897   4.346   5.444  27.779  0.0432 -0.0098  0.1776
 7317DDP     P143898   4.160   5.396  27.341 -0.2654 -0.0448 -0.1533
 7317DDP     P243899   4.711   5.100  27.900  0.0192 -0.0326 -0.4660
 7317DDP     C243900   4.874   4.748  27.700 -0.1504 -0.1045  0.0885
 7317DDP     C343901   4.035   5.545  26.950 -0.0705 -0.0605 -0.3765
 7317DDP     C443902   4.055   5.651  28.080  0.0103 -0.0416 -0.5017
 7318DDP     C143903   3.730  28.293  16.369  0.1431  0.3090 -0.0343
 7318DDP     P143904   3.896  28.456  15.962 -0.1690  0.0677  0.1767
 7318DDP     P243905   3.346  28.368  16.557  0.0595 -0.0274  0.0590
 7318DDP     C243906   2.922  28.329  16.392  0.0295 -0.0390  0.0416
 7318DDP     C343907   4.126  28.710  15.687  0.0687  0.1133  0.1255
 7318DDP     C443908   4.027  28.168  16.658 -0.2003  0.0607 -0.2380
 7319DDP     C143909  25.882  22.403  15.089  0.2294  0.0820 -0.1675
 7319DDP     P143910  26.042  22.591  14.757  0.0105 -0.1710  0.1479
 7319DDP     P243911  25.909  21.964  15.067  0.2758  0.1104 -0.1463
 7319DDP     C243912  26.057  21.545  15.364  0.0960  0.0455 -0.1339
 7319DDP     C343913  26.176  23.107  14.647 -0.2941  0.2435 -0.1987
 7319DDP     C443914  25.568  22.549  15.383  0.3437 -0.0053  0.2601
 7320DDP     C143915   6.759   9.871  12.415 -0.1004  0.1386  0.0665
 7320DDP     P143916   6.965  10.230  12.604  0.1751  0.2765  0.0567
 7320DDP     P243917   6.973   9.740  12.126  0.1842  0.2979 -0.2794
 7320DDP     C243918   7.316   9.580  11.969  0.0337 -0.1664  0.2199
 7320DDP     C343919   7.215  10.566  12.757  0.0343 -0.0974 -0.1371
 7320DDP     C443920   6.393   9.724  12.509 -0.2772 -0.0849  0.1955
 7321DDP     C143921   7.965   3.246  19.242 -0.0351 -0.0067 -0.0338
 7321DDP     P143922   7.738   3.028  18.831  0.2092  0.0057 -0.0680
 7321DDP     P243923   8.431   3.236  19.120 -0.0476  0.4227 -0.3627
 7321DDP     C243924   8.723   3.476  18.923  0.1721 -0.1632 -0.1364
 7321DDP     C343925   7.612   3.306  18.488 -0.1154  0.0220  0.0195
 7321DDP     C443926   7.786   3.637  19.512  0.0767  0.0633 -0.0033
 7322DDP     C143927  19.247  28.942   5.488 -0.2630 -0.0306 -0.0831
 7322DDP     P143928  19.049  29.148   5.780  0.2556  0.0163 -0.4381
 7322DDP     P243929  19.759  29.024   5.584 -0.1264 -0.0393  0.0129
 7322DDP     C243930  19.867  29.228   5.940 -0.1291 -0.0454  0.2966
 7322DDP     C343931  18.625  29.291   5.991 -0.1521  0.1601 -0.0416
 7322DDP     C443932  19.054  28.788   5.145  0.1444  0.0707 -0.1534
 7323DDP     C143933  22.901   7.140  21.511  0.1751 -0.1862 -0.1917
 7323DDP     P143934  23.017   7.589  21.655 -0.2010  0.0012 -0.0422
 7323DDP     P243935  22.619   7.117  21.103  0.0552 -0.1016 -0.1310
 7323DDP     C243936  22.299   7.109  20.864 -0.1826 -0.0074 -0.1130
 7323DDP     C343937  23.126   7.668  22.013 -0.0745  0.0139  0.0568
 7323DDP     C443938  22.917   6.756  21.780  0.2302  0.4202  0.2059
 7324DDP     C143939  19.205   2.791   0.063 -0.1633 -0.1336 -0.2596
 7324DDP     P143940  18.892   3.098   0.151 -0.0452  0.1557 -0.0734
 7324DDP     P243941  19.604   2.662   0.235  0.1055  0.0744  0.3059
 7324DDP     C243942  20.033   2.319   0.159  0.2194 -0.2444 -0.2928
 7324DDP     C343943  18.505   3.447   0.156 -0.0626 -0.4239  0.0621
 7324DDP     C443944  19.175   2.510  29.988  0.1432  0.1411  0.0380
 7325DDP     C143945   4.888  29.944  20.807 -0.0480 -0.1555  0.1686
 7325DDP     P143946   4.461  29.929  20.869  0.3915 -0.0336 -0.5481
 7325DDP     P243947   5.324  29.708  21.067 -0.0904 -0.0440  0.0548
 7325DDP     C243948   5.688  29.618  21.310  0.1117  0.4559 -0.1912
 7325DDP     C343949   4.280  29.847  21.277 -0.1029  0.0838  0.2694
 7325DDP     C443950   4.945   0.066  20.889  0.1396  0.2357 -0.1123
 7326DDP     C143951   9.028  14.304  25.903  0.1130 -0.0667 -0.2240
 7326DDP     P143952   8.867  14.035  25.618  0.0862  0.2419  0.2490
 7326DDP     P243953   8.915  14.781  26.037  0.0195 -0.0638  0.1150
 7326DDP     C243954   8.792  15.145  25.742  0.2408  0.3967 -0.3541
 7326DDP     C343955   8.933  13.811  25.253  0.0206 -0.2386 -0.0373
 7326DDP     C443956   9.563  14.370  25.859 -0.1974  0.0704 -0.0533
 7327DDP     C143957   7.228   2.755  17.486 -0.2580  0.0930  0.0685
 7327DDP     P143958   7.016   3.006  17.152 -0.2393 -0.1669  0.2048
 7327DDP     P243959   7.712   2.866  17.625  0.2091  0.1669 -0.0037
 7327DDP     C243960   7.801   3.026  18.070  0.0911 -0.1380  0.1003
 7327DDP     C343961   7.134   2.954  16.688  0.0718 -0.2131 -0.1386
 7327DDP     C443962   7.069   2.309  17.547  0.2854 -0.0276  0.2553
 7328DDP     C143963  24.593  20.983  12.612 -0.0205 -0.0442  0.1409
 7328DDP     P143964  24.391  21.420  12.420 -0.1612  0.1858 -0.0149
 7328DDP     P243965  24.912  20.911  12.961  0.1000 -0.1357 -0.0146
 7328DDP     C243966  24.987  20.823  13.381  0.2829  0.2739  0.1731
 7328DDP     C343967  24.094  21.714  12.402  0.4088  0.1841  0.2008
 7328DDP     C443968  24.290  20.632  12.551  0.4661  0.1089  0.0406
 7329DDP     C143969  26.869   0.608  13.137  0.4862  0.0787  0.0960
 7329DDP     P143970  27.307   0.700  12.938 -0.1779  0.1007  0.4252
 7329DDP     P243971  26.867   0.874  13.418  0.0144 -0.1730 -0.1862
 7329DDP     C243972  26.757   1.257  13.597  0.0352  0.1208 -0.2488
 7329DDP     C343973  27.712   1.090  13.034  0.1482 -0.1221 -0.3481
 7329DDP     C443974  26.733   0.109  13.224  0.3665 -0.1894  0.2498
 7330DDP     C143975  28.708  29.389  11.611 -0.1577  0.0078  0.1141
 7330DDP     P143976  28.516  29.486  11.253 -0.2057  0.1536  0.2156
 7330DDP     P243977  28.730  29.020  11.778 -0.0360  0.2007  0.3285
 7330DDP     C243978  29.041  28.921  11.973 -0.0219  0.1046  0.2548
 7330DDP     C343979  28.471  29.524  10.778 -0.1979  0.0619  0.0458
 7330DDP     C443980  28.769  29.781  11.878  0.0936  0.0744  0.1014
 7331DDP     C143981  20.521  14.613  18.245 -0.2249  0.0709  0.0966
 7331DDP     P143982  20.923  14.627  18.478 -0.0621  0.2731 -0.3197
 7331DDP     P243983  20.572  14.864  17.902  0.1033 -0.1122  0.1183
 7331DDP     C243984  20.420  14.576  17.515  0.1831  0.2405 -0.3372
 7331DDP     C343985  21.332  14.874  18.662  0.0783  0.0597 -0.2797
 7331DDP     C443986  20.257  14.194  18.196 -0.2886  0.3693  0.1385
 7332DDP     C143987  11.752   3.295  27.367  0.0319  0.0917 -0.3486
 7332DDP     P143988  11.508   3.616  27.482 -0.0625  0.0540 -0.1609
 7332DDP     P243989  11.946   3.177  26.995  0.1963  0.0135 -0.3320
 7332DDP     C243990  11.982   3.003  26.575  0.0158 -0.0035  0.0923
 7332DDP     C343991  11.213   3.771  27.172  0.1456  0.1491  0.0860
 7332DDP     C443992  11.494   3.004  27.384 -0.0195 -0.1370  0.0118
 7333DDP     C143993   4.959   6.054  19.174  0.2284  0.3415 -0.0224
 7333DDP     P143994   5.065   5.954  18.721 -0.1314 -0.3097 -0.1929
 7333DDP     P243995   4.795   5.709  19.342  0.0069  0.1303  0.1983
 7333DDP     C243996   4.538   5.661  19.830  0.3478  0.0092  0.3207
 7333DDP     C343997   4.904   5.848  18.285  0.1363  0.3046  0.2416
 7333DDP     C443998   5.235   6.322  19.438 -0.0683 -0.0723  0.1508
 7334DDP     C143999  12.206  25.934   9.721 -0.1445 -0.2544 -0.0374
 7334DDP     P144000  12.312  25.874   9.306  0.0454 -0.0598 -0.1929
 7334DDP     P244001  12.553  25.919  10.025 -0.0041  0.0643 -0.1068
 7334DDP     C244002  12.730  26.253  10.266 -0.0855  0.0102 -0.0782
 7334DDP     C344003  12.586  25.698   9.168  0.2997  0.4033 -0.2158
 7334DDP     C444004  11.935  25.655   9.853 -0.2754 -0.1120 -0.3990
 7335DDP     C144005   9.048  29.177  20.012  0.3548  0.0261 -0.1220
 7335DDP     P144006   9.501  28.930  20.091  0.0022 -0.1724 -0.3268
 7335DDP     P244007   8.608  28.962  20.000 -0.0461 -0.0138 -0.1008
 7335DDP     C244008   8.239  29.124  19.917  0.2224 -0.1403 -0.0393
 7335DDP     C344009   9.852  28.971  20.318 -0.0358  0.5729 -0.0121
 7335DDP     C444010   9.253  29.548  19.959 -0.2108  0.0634  0.0641
 7336DDP     C144011  27.911   9.282  29.896  0.0634 -0.2060 -0.0215
 7336DDP     P144012  28.068   9.523  30.259  0.0428  0.0772  0.0936
 7336DDP     P244013  27.808   8.901  30.039 -0.1086  0.1038 -0.1790
 7336DDP     C244014  28.041   8.528  29.994 -0.0472  0.0391 -0.1265
 7336DDP     C344015  28.170   9.964  30.229 -0.0155  0.0445 -0.0367
 7336DDP     C444016  27.833   9.483  29.484  0.1302 -0.2599 -0.0133
 7337DDP     C144017   2.712   7.941  16.238  0.0068  0.0725  0.0244
 7337DDP     P144018   2.750   8.277  16.366  0.2616 -0.2717  0.0621
 7337DDP     P244019   2.837   7.730  16.688 -0.0734  0.1220 -0.0784
 7337DDP     C244020   3.307   7.777  16.864 -0.0790 -0.4464  0.0857
 7337DDP     C344021   3.042   8.507  16.587 -0.1394 -0.0950 -0.2445
 7337DDP     C444022   2.881   7.732  15.846  0.2647  0.0591  0.2305
 7338DDP     C144023   2.499   0.219   1.209 -0.1493 -0.2415  0.0172
 7338DDP     P144024   2.476   0.562   0.810 -0.0419  0.2939  0.1497
 7338DDP     P244025   2.853  30.299   1.171  0.0932  0.2009 -0.0958
 7338DDP     C244026   3.107  29.987   1.300  0.1089 -0.1166 -0.0868
 7338DDP     C344027   2.535   0.942   0.837  0.1267  0.3618  0.1474
 7338DDP     C444028   2.309   0.356   1.608  0.0162  0.2402 -0.1864
 7339DDP     C144029   3.535   2.434  26.045 -0.1853  0.0845 -0.0682
 7339DDP     P144030   3.960   2.312  25.912 -0.0780  0.2216 -0.1581
 7339DDP     P244031   3.275   2.552  25.596 -0.1125 -0.1815 -0.5147
 7339DDP     C244032   2.896   2.541  25.422  0.0686  0.0091  0.3227
 7339DDP     C344033   4.430   2.191  25.998  0.0495 -0.4905  0.0366
 7339DDP     C444034   3.372   2.584  26.432 -0.2149  0.0991 -0.0734
 7340DDP     C144035  26.889  26.620  13.003  0.0891  0.0002  0.1560
 7340DDP     P144036  26.934  27.050  12.895 -0.0448 -0.1706 -0.0506
 7340DDP     P244037  26.728  26.492  13.435  0.0647  0.1438 -0.0743
 7340DDP     C244038  26.596  26.681  13.847  0.2718 -0.0212 -0.0630
 7340DDP     C344039  27.134  27.269  12.583 -0.0671 -0.1604 -0.2016
 7340DDP     C444040  27.197  26.391  12.814  0.4463  0.0370  0.1435
 7341DDP     C144041   1.587  14.907  27.318  0.0456  0.1165 -0.1198
 7341DDP     P144042   1.742  14.473  27.518  0.1089  0.1876  0.0893
 7341DDP     P244043   1.692  15.248  26.893  0.0942  0.2283 -0.0057
 7341DDP     C244044   1.472  15.594  26.826  0.0087 -0.0412  0.3549
 7341DDP     C344045   2.141  14.416  27.730  0.0587 -0.1501 -0.0978
 7341DDP     C444046   1.460  15.220  27.600 -0.1531  0.1372  0.2730
 7342DDP     C144047  26.002  20.383   0.973 -0.1591 -0.3255  0.1582
 7342DDP     P144048  26.190  20.664   1.031 -0.0831  0.0829 -0.1185
 7342DDP     P244049  25.714  20.420   0.596 -0.2292  0.1840  0.1162
 7342DDP     C244050  25.332  20.409   0.210 -0.0442 -0.1748 -0.0288
 7342DDP     C344051  26.456  20.899   0.755 -0.2785 -0.1111  0.0611
 7342DDP     C444052  26.079  20.075   1.218  0.2175 -0.2336  0.1334
 7343DDP     C144053   0.757   6.642  15.351 -0.1021 -0.1474 -0.2578
 7343DDP     P144054   0.643   6.176  15.324 -0.3362  0.1713  0.1109
 7343DDP     P244055   1.062   6.736  15.657 -0.2310  0.0041  0.0767
 7343DDP     C244056   1.111   6.390  15.965  0.2984  0.2866  0.0629
 7343DDP     C344057   0.646   5.689  15.119  0.0174 -0.0443  0.1766
 7343DDP     C444058   0.632   6.937  15.070 -0.1172 -0.1572  0.2711
 7344DDP     C144059  14.141   0.984  12.636  0.1243  0.0127  0.0455
 7344DDP     P144060  13.772   0.711  12.961  0.0713  0.2010 -0.3181
 7344DDP     P244061  14.373   0.844  12.333  0.1224 -0.1620  0.1552
 7344DDP     C244062  14.416   0.896  11.942 -0.0380  0.2636  0.1014
 7344DDP     C344063  13.578   0.336  12.924  0.3013 -0.2399 -0.4286
 7344DDP     C444064  14.024   1.329  12.718 -0.1817  0.4605  0.0669
 7345DDP     C144065   1.819  18.952   5.691  0.2121 -0.1508  0.0488
 7345DDP     P144066   2.005  19.261   5.859  0.0080 -0.0137  0.1921
 7345DDP     P244067   1.772  18.992   5.239  0.0025 -0.0529  0.0485
 7345DDP     C244068   2.170  18.934   4.909 -0.2473 -0.1246 -0.0605
 7345DDP     C344069   1.660  19.467   6.044 -0.3081  0.3848  0.1379
 7345DDP     C444070   1.798  18.551   5.928 -0.0069  0.1767 -0.0598
 7346DDP     C144071  26.523   5.556  18.205  0.0473  0.0002  0.0604
 7346DDP     P144072  26.096   5.427  17.949 -0.1704 -0.0185 -0.4006
 7346DDP     P244073  26.604   5.298  18.541 -0.3535  0.2478 -0.0270
 7346DDP     C244074  26.567   4.847  18.829  0.1090  0.3408  0.0051
 7346DDP     C344075  25.726   5.668  17.901 -0.0793  0.2406  0.0099
 7346DDP     C444076  26.632   5.879  18.354  0.1234  0.2446  0.0797
 7347DDP     C144077  22.028  23.013   3.892 -0.1313 -0.1084  0.3325
 7347DDP     P144078  21.512  22.989   3.718  0.0964  0.2709 -0.0007
 7347DDP     P244079  22.126  22.829   4.213 -0.1364  0.0559 -0.1126
 7347DDP     C244080  22.465  22.731   4.396  0.3557 -0.1720 -0.1182
 7347DDP     C344081  21.173  22.647   3.796 -0.0164  0.3268  0.1272
 7347DDP     C444082  22.132  23.276   3.490  0.0027  0.0227 -0.1497
 7348DDP     C144083  13.398   3.474   3.292  0.0586  0.1390 -0.1510
 7348DDP     P144084  13.081   3.830   3.181 -0.3317 -0.2884 -0.2789
 7348DDP     P244085  13.807   3.492   3.167 -0.0124  0.2571  0.0505
 7348DDP     C244086  14.175   3.508   2.991 -0.0461  0.0563 -0.0532
 7348DDP     C344087  12.922   4.197   3.129 -0.0049  0.0176  0.1274
 7348DDP     C444088  13.274   3.092   3.225  0.0430 -0.3496 -0.2029
 7349DDP     C144089  12.380  20.993  20.853  0.2031  0.1687  0.0408
 7349DDP     P144090  12.332  20.996  21.252 -0.1179 -0.1229  0.2116
 7349DDP     P244091  11.956  20.904  20.615  0.0938  0.0468 -0.1965
 7349DDP     C244092  12.015  20.885  20.199 -0.1603 -0.2740  0.2650
 7349DDP     C344093  12.184  20.891  21.729  0.2142 -0.0890 -0.2914
 7349DDP     C444094  12.730  21.052  20.660  0.1382  0.0044  0.1576
 7350DDP     C144095   3.345  24.204   7.992 -0.2970 -0.1063  0.1080
 7350DDP     P144096   2.958  23.986   7.921  0.3761  0.2817 -0.1681
 7350DDP     P244097   3.185  24.653   8.078 -0.3690 -0.0362 -0.3937
 7350DDP     C244098   3.204  25.020   8.340  0.0616 -0.0384  0.1042
 7350DDP     C344099   2.564  23.794   8.053 -0.2241  0.2356 -0.1582
 7350DDP     C444100   3.638  23.918   8.151  0.2261 -0.0372  0.0657
 7351DDP     C144101  14.545  11.848  24.873 -0.4184 -0.0834 -0.0779
 7351DDP     P144102  14.285  11.517  25.083  0.0720 -0.0095 -0.0778
 7351DDP     P244103  14.769  11.703  24.556 -0.3195 -0.0677 -0.0777
 7351DDP     C244104  15.071  11.406  24.385  0.0273 -0.0102  0.0660
 7351DDP     C344105  14.298  11.109  25.265  0.0874  0.0361  0.1621
 7351DDP     C444106  14.612  12.182  24.979  0.2216  0.4396  0.0890
 7352DDP     C144107  15.866  11.845  18.526 -0.1107 -0.0109  0.1916
 7352DDP     P144108  16.215  11.956  18.763  0.0463 -0.0157  0.0650
 7352DDP     P244109  15.833  11.600  18.217 -0.1431  0.3347  0.2039
 7352DDP     C244110  15.771  11.321  17.886  0.0933  0.0940  0.2093
 7352DDP     C344111  16.605  11.708  18.944 -0.1750  0.1359 -0.3224
 7352DDP     C444112  15.562  11.569  18.721 -0.2163  0.0032  0.0524
 7353DDP     C144113   2.254  19.010  20.240 -0.1480 -0.0719  0.0678
 7353DDP     P144114   2.619  19.353  20.144  0.0015  0.3392 -0.2459
 7353DDP     P244115   2.192  18.682  20.086  0.0463  0.1502 -0.0180
 7353DDP     C244116   2.057  18.524  19.646 -0.0943 -0.3391 -0.1132
 7353DDP     C344117   2.542  19.828  20.198 -0.0291  0.0602 -0.2163
 7353DDP     C444118   2.015  19.122  20.630 -0.3754 -0.0743 -0.0837
 7354DDP     C144119   0.434   6.819   3.032  0.3308 -0.3308  0.1110
 7354DDP     P144120   0.131   6.516   3.177  0.2752  0.1387  0.2083
 7354DDP     P244121   0.441   6.983   2.659 -0.2358  0.0859  0.2548
 7354DDP     C244122   0.739   7.150   2.406 -0.2958  0.0753  0.1402
 7354DDP     C344123  30.315   6.552   3.556  0.2032 -0.3078  0.1174
 7354DDP     C444124   0.821   6.912   3.128  0.1348  0.1154 -0.1596
 7355DDP     C144125  15.918  23.792   4.215  0.1469 -0.1687  0.0291
 7355DDP     P144126  15.662  24.152   4.515  0.1597 -0.1213  0.3000
 7355DDP     P244127  15.904  23.364   4.361  0.2939 -0.1066 -0.0831
 7355DDP     C244128  15.543  23.163   4.455 -0.2304 -0.0966 -0.0930
 7355DDP     C344129  15.384  24.397   4.685 -0.1937 -0.1454  0.1269
 7355DDP     C444130  15.950  24.098   3.856  0.2790 -0.0024  0.0039
 7356DDP     C144131  27.462  24.963   6.380 -0.2435 -0.2115 -0.1306
 7356DDP     P144132  27.680  25.331   6.523 -0.0258 -0.2170 -0.1888
 7356DDP     P244133  27.243  24.918   6.670 -0.2283  0.1079 -0.0635
 7356DDP     C244134  26.910  25.137   6.848 -0.5047 -0.0017 -0.0078
 7356DDP     C344135  28.058  25.472   6.712  0.0078  0.1811 -0.2378
 7356DDP     C444136  27.507  24.712   5.961  0.1574 -0.2838 -0.0711
 7357DDP     C144137  18.282  11.851  17.550 -0.2265  0.0053 -0.3450
 7357DDP     P144138  17.889  11.792  17.491  0.2092  0.1319 -0.0211
 7357DDP     P244139  18.576  12.004  17.294 -0.2875 -0.1295  0.0696
 7357DDP     C244140  18.824  12.414  17.252 -0.1218  0.1557 -0.1550
 7357DDP     C344141  17.525  11.640  17.694  0.0028 -0.1025  0.2478
 7357DDP     C444142  18.594  11.811  17.989 -0.0606 -0.1690 -0.0568
 7358DDP     C144143   2.459   7.900  18.785 -0.1290  0.1127  0.0652
 7358DDP     P144144   2.263   8.263  18.761 -0.1170 -0.0428 -0.0238
 7358DDP     P244145   2.780   7.738  18.560 -0.2300  0.0768 -0.0477
 7358DDP     C244146   3.224   7.695  18.610 -0.0445 -0.0597  0.0191
 7358DDP     C344147   1.877   8.514  18.693 -0.0525  0.0322 -0.2455
 7358DDP     C444148   2.523   7.605  19.113 -0.2609  0.3463 -0.2683
 7359DDP     C144149  29.849  22.767  15.595  0.0756 -0.3412  0.1129
 7359DDP     P144150  29.765  23.065  15.860 -0.3103  0.0517 -0.0007
 7359DDP     P244151  29.724  22.864  15.170 -0.1362  0.0434 -0.4024
 7359DDP     C244152  29.893  23.019  14.788 -0.4650 -0.2186  0.0481
 7359DDP     C344153  29.834  23.352  16.164 -0.1720  0.1988 -0.0748
 7359DDP     C444154  29.807  22.352  15.730 -0.2008 -0.1731  0.0671
 7360DDP     C144155   7.287  27.784  23.153 -0.0182  0.2267  0.0079
 7360DDP     P144156   7.506  27.794  22.737  0.0747  0.2981  0.1484
 7360DDP     P244157   7.284  28.137  23.356  0.0834  0.0190  0.0398
 7360DDP     C244158   7.400  28.572  23.379  0.0582  0.1280 -0.1206
 7360DDP     C344159   7.843  27.800  22.438 -0.1407  0.0077 -0.1000
 7360DDP     C444160   7.003  27.595  23.410  0.2707 -0.0061  0.1243
 7361DDP     C144161   5.101  17.170  14.035 -0.0576 -0.1241 -0.0458
 7361DDP     P144162   4.810  17.167  14.199 -0.0207  0.0794 -0.3998
 7361DDP     P244163   5.244  17.486  13.856  0.2017 -0.0437 -0.0961
 7361DDP     C244164   5.375  17.912  13.900 -0.0654  0.2685  0.3500
 7361DDP     C344165   4.603  17.064  14.624  0.1589 -0.2125  0.1124
 7361DDP     C444166   5.282  16.716  14.008 -0.2587  0.0147  0.0513
 7362DDP     C144167   6.447   1.665  24.081 -0.0820 -0.2864 -0.0154
 7362DDP     P144168   6.646   2.079  24.320 -0.2085 -0.0993  0.0687
 7362DDP     P244169   6.691   1.369  23.891  0.4797 -0.1522 -0.0797
 7362DDP     C244170   6.833   0.983  23.713  0.0668 -0.0595 -0.0318
 7362DDP     C344171   6.928   2.452  24.592  0.1544  0.0227  0.2314
 7362DDP     C444172   5.995   1.627  24.081 -0.0083  0.1663  0.1902
 7363DDP     C144173   9.028  22.241   3.384 -0.0855 -0.3934  0.1122
 7363DDP     P144174   9.121  21.870   3.749  0.1244  0.1068 -0.0811
 7363DDP     P244175   8.760  22.619   3.345 -0.0129  0.1500  0.1756
 7363DDP     C244176   8.315  22.621   3.565 -0.2245  0.1780 -0.0208
 7363DDP     C344177   8.859  21.674   4.128 -0.2614  0.2373  0.0753
 7363DDP     C444178   9.111  22.146   2.931 -0.1824  0.1415 -0.0374
 7364DDP     C144179   4.038  15.226   4.808 -0.2782 -0.1566  0.0758
 7364DDP     P144180   3.869  15.635   4.831 -0.1282 -0.0136 -0.0586
 7364DDP     P244181   4.398  15.157   5.062  0.0925  0.0820  0.1059
 7364DDP     C244182   4.688  14.859   5.253 -0.0218  0.0041  0.1389
 7364DDP     C344183   3.608  16.017   5.056 -0.0636  0.1622  0.0207
 7364DDP     C444184   3.742  14.905   4.911  0.2112 -0.0848  0.3960
 7365DDP     C144185  21.342   5.379  21.839 -0.1056  0.3151  0.1984
 7365DDP     P144186  21.133   5.766  21.647 -0.0422  0.2962 -0.0687
 7365DDP     P244187  21.548   5.079  21.611  0.2468 -0.2337  0.0447
 7365DDP     C244188  21.683   4.974  21.186  0.4118  0.0400  0.0108
 7365DDP     C344189  20.744   6.127  21.617 -0.1694 -0.1670  0.1592
 7365DDP     C444190  21.544   5.473  22.221  0.0597  0.0130  0.0875
 7366DDP     C144191  10.476  22.199  23.103 -0.1210 -0.2133 -0.2007
 7366DDP     P144192  10.716  22.366  23.298  0.2945  0.1785  0.2760
 7366DDP     P244193  10.281  22.448  22.790 -0.1157 -0.0082 -0.0962
 7366DDP     C244194  10.040  22.470  22.481  0.0345  0.2831  0.4211
 7366DDP     C344195  10.882  22.248  23.769 -0.0309  0.0738  0.0977
 7366DDP     C444196  10.265  21.832  23.124  0.0452 -0.0129  0.1205
 7367DDP     C144197   0.944  18.206  12.675  0.1054  0.0324  0.3551
 7367DDP     P144198   1.220  18.143  13.033  0.0492 -0.1944  0.1256
 7367DDP     P244199   0.620  17.909  12.637 -0.0393  0.0065 -0.0973
 7367DDP     C244200   0.376  17.550  12.666 -0.0112  0.1757 -0.3487
 7367DDP     C344201   1.329  18.116  13.431 -0.0217  0.2173  0.1972
 7367DDP     C444202   1.103  18.465  12.244 -0.1515  0.2680 -0.1931
 7368DDP     C144203  23.165  26.102   7.473 -0.0289  0.1949 -0.0688
 7368DDP     P144204  22.797  26.212   7.560 -0.2058 -0.2135  0.1894
 7368DDP     P244205  23.326  26.073   7.917  0.1590  0.0288  0.1825
 7368DDP     C244206  23.360  26.198   8.208  0.0020  0.1339  0.0375
 7368DDP     C344207  22.470  26.308   7.297  0.2677  0.0831 -0.2773
 7368DDP     C444208  23.480  26.070   7.139  0.1912  0.2351  0.0177
 7369DDP     C144209  28.566   5.687  29.371  0.1073  0.1357  0.1038
 7369DDP     P144210  28.486   5.626  29.847 -0.0593 -0.1066 -0.1553
 7369DDP     P244211  28.235   5.802  29.299 -0.1277 -0.2841 -0.0114
 7369DDP     C244212  28.154   6.208  29.191  0.2875 -0.1849  0.0738
 7369DDP     C344213  28.339   5.827  30.129 -0.0985 -0.2474 -0.1967
 7369DDP     C444214  28.873   5.516  29.080  0.1477  0.0978  0.0643
 7370DDP     C144215   6.891  19.515  14.247 -0.0447 -0.1622  0.0700
 7370DDP     P144216   7.118  19.235  14.563  0.1907  0.2281 -0.0312
 7370DDP     P244217   6.998  19.960  14.206 -0.2806 -0.2496 -0.2442
 7370DDP     C244218   7.142  20.197  14.625 -0.1140  0.0877 -0.2503
 7370DDP     C344219   7.551  19.004  14.371  0.2258  0.4948  0.1712
 7370DDP     C444220   6.710  19.306  13.896  0.0966 -0.0726  0.1077
 7371DDP     C144221   9.290  24.194  20.570  0.1860  0.2329  0.2167
 7371DDP     P144222   9.585  24.269  20.959 -0.1480 -0.1502 -0.0449
 7371DDP     P244223   9.292  24.239  20.145  0.0813 -0.1369  0.0827
 7371DDP     C244224   9.163  24.507  19.823 -0.1918  0.1101 -0.1598
 7371DDP     C344225   9.776  24.494  21.266 -0.0782  0.4276 -0.5181
 7371DDP     C444226   9.152  23.795  20.808 -0.0926  0.0751  0.2135
 7372DDP     C144227  20.374  15.985  22.075 -0.0705  0.3806 -0.2500
 7372DDP     P144228  19.913  16.114  22.153 -0.2559  0.2711 -0.0719
 7372DDP     P244229  20.607  16.343  21.891 -0.0629 -0.1318 -0.3437
 7372DDP     C244230  20.848  16.625  21.722 -0.0075  0.1230 -0.0988
 7372DDP     C344231  19.478  16.265  22.061 -0.1987 -0.0211  0.1124
 7372DDP     C444232  20.509  15.674  22.327  0.0450 -0.1021 -0.1911
 7373DDP     C144233  18.026  22.647   2.678  0.1206 -0.1380 -0.0588
 7373DDP     P144234  17.841  22.253   2.592 -0.3371  0.3304  0.2661
 7373DDP     P244235  18.035  22.940   2.992  0.3192 -0.0661  0.1944
 7373DDP     C244236  17.887  23.228   3.234  0.1643  0.0152  0.2024
 7373DDP     C344237  17.803  21.917   2.226 -0.2003  0.0298 -0.1605
 7373DDP     C444238  18.115  22.892   2.314 -0.1693  0.1634 -0.0921
 7374DDP     C144239  28.198   0.135   1.405 -0.1888 -0.0207 -0.1075
 7374DDP     P144240  27.766   0.033   1.339 -0.1001  0.0383 -0.1422
 7374DDP     P244241  28.434  30.083   1.332 -0.1937  0.2208  0.2208
 7374DDP     C244242  28.908  29.859   1.292  0.1149 -0.0540 -0.2861
 7374DDP     C344243  27.326   0.023   1.167 -0.3010 -0.3396  0.0665
 7374DDP     C444244  28.413   0.485   1.630 -0.0587  0.0889 -0.1546
 7375DDP     C144245   2.441  27.512   9.736 -0.2055 -0.0950 -0.0338
 7375DDP     P144246   2.066  27.288   9.546 -0.3758  0.0258 -0.1939
 7375DDP     P244247   2.722  27.571   9.529 -0.0369 -0.0776  0.0060
 7375DDP     C244248   3.122  27.691   9.575 -0.0677  0.0818 -0.1536
 7375DDP     C344249   1.567  27.102   9.440  0.3297 -0.0897  0.1689
 7375DDP     C444250   2.267  27.749  10.121  0.2305  0.0039 -0.1925
 7376DDP     C144251   5.219  30.134   3.832  0.2012  0.1055 -0.3963
 7376DDP     P144252   5.248  30.163   4.259 -0.1185 -0.0995 -0.1518
 7376DDP     P244253   5.474  29.963   3.601  0.3840 -0.4631  0.0214
 7376DDP     C244254   5.754  29.593   3.612 -0.3786 -0.1417 -0.0663
 7376DDP     C344255   5.439  29.964   4.537 -0.0019  0.2299  0.0688
 7376DDP     C444256   4.895  30.104   3.555  0.0245  0.0051 -0.5356
 7377DDP     C144257  21.320  21.452   0.812  0.1665  0.1416 -0.1159
 7377DDP     P144258  20.900  21.453   0.722 -0.2019 -0.1551  0.2401
 7377DDP     P244259  21.527  21.101   0.768 -0.1681 -0.3868 -0.1350
 7377DDP     C244260  21.446  20.765   0.619  0.0318 -0.1645  0.3115
 7377DDP     C344261  20.610  21.776   0.590  0.1535  0.2163  0.1818
 7377DDP     C444262  21.768  21.591   0.661 -0.2759 -0.0574  0.0839
 7378DDP     C144263  18.660   3.115  16.680  0.2860 -0.2172 -0.2373
 7378DDP     P144264  19.103   3.255  16.705  0.0513  0.2823 -0.0712
 7378DDP     P244265  18.318   3.118  16.993 -0.0784  0.3981  0.0009
 7378DDP     C244266  18.113   3.416  17.268 -0.1561  0.0130  0.1663
 7378DDP     C344267  19.380   3.375  16.386  0.2715 -0.2220 -0.0549
 7378DDP     C444268  18.331   3.212  16.342  0.1474 -0.4670 -0.0608
 7379DDP     C144269  27.558   1.971  28.819  0.2274  0.0705  0.0232
 7379DDP     P144270  27.951   1.612  28.860  0.1914 -0.0060  0.1031
 7379DDP     P244271  27.239   1.989  29.007  0.1774  0.2457 -0.1755
 7379DDP     C244272  27.299   1.639  29.289 -0.0570  0.0406 -0.2139
 7379DDP     C344273  28.238   1.240  28.778  0.0609  0.0420 -0.0449
 7379DDP     C444274  27.485   2.369  28.434 -0.1057 -0.0853 -0.2017
 7380DDP     C144275  12.325  20.815  13.902  0.4946 -0.2118 -0.0912
 7380DDP     P144276  12.072  21.109  14.057 -0.1573 -0.2902 -0.0220
 7380DDP     P244277  12.175  20.625  13.524  0.0779  0.0655 -0.2677
 7380DDP     C244278  12.372  20.562  13.044  0.3236 -0.0452  0.2209
 7380DDP     C344279  12.134  21.380  14.518 -0.2181  0.0404  0.0573
 7380DDP     C444280  12.614  20.598  14.151  0.1844  0.0044 -0.0250
 7381DDP     C144281  19.495  24.248  15.485  0.2698  0.2881 -0.1088
 7381DDP     P144282  19.720  24.221  15.807 -0.2606 -0.1089 -0.0541
 7381DDP     P244283  19.259  24.551  15.174 -0.0687  0.0671 -0.4160
 7381DDP     C244284  18.946  24.477  15.048  0.0376 -0.1949 -0.1054
 7381DDP     C344285  19.889  24.542  16.078  0.1903 -0.1793  0.1365
 7381DDP     C444286  19.315  23.763  15.475 -0.3286  0.2977 -0.0557
 7382DDP     C144287  10.755  23.617   2.188 -0.0394  0.2880 -0.3657
 7382DDP     P144288  10.589  23.858   1.859 -0.1141 -0.0012  0.1043
 7382DDP     P244289  11.100  23.604   2.400  0.1780 -0.0632 -0.0867
 7382DDP     C244290  11.188  23.308   2.652 -0.0062  0.0900 -0.1013
 7382DDP     C344291  10.310  24.193   1.739  0.0490 -0.0117 -0.1382
 7382DDP     C444292  10.338  23.433   2.517 -0.1149 -0.0521  0.1694
 7383DDP     C144293  24.988  22.960  13.723  0.1168  0.0625 -0.0510
 7383DDP     P144294  24.858  22.701  13.354 -0.1020 -0.0765  0.0602
 7383DDP     P244295  25.430  23.090  13.666  0.0271  0.0699  0.0845
 7383DDP     C244296  25.837  23.344  13.554  0.3217 -0.2452 -0.0291
 7383DDP     C344297  24.988  22.305  13.317 -0.1988 -0.0567  0.3046
 7383DDP     C444298  24.793  23.297  14.029  0.0763 -0.0864 -0.1150
 7384DDP     C144299   7.031  19.695  17.364  0.2670 -0.0810 -0.0934
 7384DDP     P144300   7.380  19.920  17.195 -0.0464 -0.0149  0.0954
 7384DDP     P244301   6.790  19.963  17.674 -0.1060 -0.3782 -0.1218
 7384DDP     C244302   7.006  20.396  17.945 -0.2058  0.1150  0.0361
 7384DDP     C344303   7.656  20.069  16.891  0.2948 -0.1471 -0.3340
 7384DDP     C444304   6.914  19.239  17.421 -0.0116 -0.0270  0.2808
 7385DDP     C144305   9.321   7.786  30.018 -0.0256  0.1161  0.0692
 7385DDP     P144306   9.005   7.892  29.754 -0.1004 -0.1639  0.0632
 7385DDP     P244307   9.759   7.631  30.024 -0.1755  0.0650 -0.0491
 7385DDP     C244308   9.891   7.323  -0.005 -0.1222 -0.0705 -0.0330
 7385DDP     C344309   8.842   7.620  29.512 -0.0220  0.0668 -0.0320
 7385DDP     C444310   9.220   7.938   0.068 -0.0757 -0.3434  0.1379
 7386DDP     C144311  28.015  17.758   7.080  0.1288  0.2635 -0.1043
 7386DDP     P144312  27.992  17.543   6.606 -0.2854  0.3209  0.1828
 7386DDP     P244313  27.877  17.388   7.096 -0.0336 -0.1610  0.3166
 7386DDP     C244314  27.690  17.198   6.742  0.2115  0.1220  0.0659
 7386DDP     C344315  27.896  17.474   6.107  0.2003 -0.1121 -0.2403
 7386DDP     C444316  27.988  18.052   7.355  0.1600  0.3194  0.0235
 7387DDP     C144317  17.522  23.094  28.324  0.3457  0.1042 -0.1970
 7387DDP     P144318  17.080  23.079  28.197 -0.0726 -0.0493  0.1914
 7387DDP     P244319  17.789  23.202  27.987  0.2869 -0.1903 -0.2794
 7387DDP     C244320  18.117  23.229  27.808  0.0113 -0.0919  0.1149
 7387DDP     C344321  16.969  22.986  27.816 -0.1223  0.1029  0.1249
 7387DDP     C444322  17.654  22.940  28.752 -0.2707  0.0050  0.0617
 7388DDP     C144323  16.644  12.804   3.183 -0.0469  0.1274  0.1785
 7388DDP     P144324  16.371  12.391   3.378  0.0878 -0.5320 -0.0509
 7388DDP     P244325  17.049  12.620   3.196 -0.2150 -0.1004  0.0612
 7388DDP     C244326  17.329  12.390   3.051  0.0996  0.0493  0.0008
 7388DDP     C344327  16.219  11.986   3.548 -0.3090  0.3165 -0.2273
 7388DDP     C444328  16.642  12.943   2.857  0.0316  0.0034 -0.0309
 7389DDP     C144329   9.174  24.374  13.098 -0.2538  0.3048  0.1792
 7389DDP     P144330   9.497  24.655  13.338 -0.0600 -0.0828 -0.1586
 7389DDP     P244331   8.828  24.552  12.987 -0.1961  0.1236 -0.0922
 7389DDP     C244332   8.628  25.027  12.999 -0.0921 -0.1851 -0.1569
 7389DDP     C344333   9.839  24.925  13.327 -0.2245 -0.0846 -0.0639
 7389DDP     C444334   9.131  23.849  13.152 -0.0501 -0.1853 -0.2839
 7390DDP     C144335  26.198   0.209  17.836 -0.1729  0.2119  0.2886
 7390DDP     P144336  26.106   0.522  17.461 -0.0822  0.1843  0.0887
 7390DDP     P244337  25.913   0.245  18.189 -0.0625 -0.0790  0.0994
 7390DDP     C244338  25.567   0.606  18.157  0.0703 -0.0051 -0.0173
 7390DDP     C344339  25.981   0.911  17.203  0.1380  0.2056  0.1567
 7390DDP     C444340  26.655   0.207  17.813  0.0035  0.0022 -0.3166
 7391DDP     C144341   5.654  24.862  13.276  0.3162  0.2682 -0.1036
 7391DDP     P144342   5.936  24.565  13.334 -0.2258 -0.0423  0.0768
 7391DDP     P244343   5.914  25.246  13.359 -0.3901 -0.0800  0.3361
 7391DDP     C244344   5.962  25.674  13.259 -0.1038  0.1051  0.2873
 7391DDP     C344345   6.152  24.165  13.469 -0.0198 -0.3138  0.1326
 7391DDP     C444346   5.332  24.808  13.585  0.0057 -0.2095 -0.0749
 7392DDP     C144347   0.915  26.317  25.654 -0.1100 -0.4397 -0.4067
 7392DDP     P144348   1.122  25.985  25.511  0.1993 -0.0828  0.0929
 7392DDP     P244349   0.543  26.419  25.838  0.1860 -0.0989 -0.1697
 7392DDP     C244350   0.268  26.800  26.130 -0.0851  0.3411 -0.2490
 7392DDP     C344351   1.289  25.625  25.754 -0.0509  0.1842 -0.1372
 7392DDP     C444352   1.160  26.591  25.446  0.0434 -0.2297 -0.1418
 7393DDP     C144353  -0.008  25.839   5.599  0.0260  0.1411  0.3010
 7393DDP     P144354   0.086  25.541   5.233 -0.0616 -0.0824 -0.0828
 7393DDP     P244355   0.257  26.193   5.544 -0.3096 -0.0501  0.0369
 7393DDP     C244356   0.335  26.673   5.579 -0.1659  0.0055 -0.0043
 7393DDP     C344357  30.154  25.379   5.081  0.0949 -0.0820 -0.0639
 7393DDP     C444358  30.051  25.743   5.905  0.1422  0.0346 -0.2360
 7394DDP     C144359  11.057   1.616  28.262 -0.1887 -0.0645 -0.1111
 7394DDP     P144360  11.025   1.828  27.809  0.0268  0.0343  0.1032
 7394DDP     P244361  11.346   1.549  28.519 -0.3775  0.1016 -0.0157
 7394DDP     C244362  11.531   1.237  28.922  0.0399 -0.1572  0.1413
 7394DDP     C344363  10.905   2.303  27.736 -0.1671  0.1322  0.0203
 7394DDP     C444364  10.639   1.445  28.403 -0.3088 -0.1113 -0.0814
 7395DDP     C144365  13.911  10.019  23.361  0.1177 -0.1951  0.0151
 7395DDP     P144366  13.501   9.812  23.332  0.2301 -0.0642 -0.1411
 7395DDP     P244367  13.911  10.419  23.374 -0.0398  0.0344  0.1701
 7395DDP     C244368  13.681  10.684  23.557  0.0598  0.0344 -0.1416
 7395DDP     C344369  13.116   9.527  23.233 -0.0616 -0.0657  0.0321
 7395DDP     C444370  14.242   9.713  23.283 -0.1637 -0.0767 -0.0779
 7396DDP     C144371   6.181  13.425   4.107 -0.1236  0.3062  0.0291
 7396DDP     P144372   5.819  13.205   4.055  0.0793 -0.0925  0.2108
 7396DDP     P244373   6.511  13.350   3.955 -0.3013  0.0418  0.1004
 7396DDP     C244374   6.950  13.425   4.110 -0.2019  0.0363 -0.2136
 7396DDP     C344375   5.673  13.059   3.719 -0.0345  0.1520  0.3018
 7396DDP     C444376   6.009  13.749   4.292 -0.0157  0.2227 -0.1598
 7397DDP     C144377   8.415  16.873  29.542  0.0723  0.1591 -0.0051
 7397DDP     P144378   7.973  16.930  29.703 -0.1879 -0.0310  0.2894
 7397DDP     P244379   8.641  17.261  29.327  0.2314 -0.3849 -0.2299
 7397DDP     C244380   8.873  17.538  29.135  0.0718 -0.1030  0.0519
 7397DDP     C344381   7.767  16.603  29.881  0.1037  0.0248 -0.0853
 7397DDP     C444382   8.783  16.553  29.585  0.2577  0.1244  0.1484
 7398DDP     C144383   6.029  16.448  27.054 -0.2808  0.1459  0.2295
 7398DDP     P144384   5.790  16.767  27.289 -0.0229  0.1735  0.0877
 7398DDP     P244385   6.073  16.599  26.571  0.0482 -0.0097 -0.4880
 7398DDP     C244386   6.022  16.300  26.288  0.0660 -0.0678 -0.0003
 7398DDP     C344387   5.324  16.695  27.319 -0.0870  0.0634 -0.0969
 7398DDP     C444388   6.366  16.099  27.150  0.0298  0.1255  0.0522
 7399DDP     C144389   9.544   3.636   4.029  0.2616  0.1765 -0.1256
 7399DDP     P144390   9.944   3.439   4.207  0.0970 -0.0085  0.1650
 7399DDP     P244391   9.119   3.515   4.033  0.1220 -0.1570 -0.0029
 7399DDP     C244392   8.704   3.502   3.903 -0.0131  0.1596 -0.1458
 7399DDP     C344393  10.110   3.105   4.273  0.1068  0.2319 -0.0289
 7399DDP     C444394   9.654   4.095   4.006  0.2316  0.1911  0.2486
 7400DDP     C144395  22.333   1.635  25.341  0.0348  0.1009 -0.1099
 7400DDP     P144396  22.800   1.906  25.408  0.0814  0.0367  0.0810
 7400DDP     P244397  22.361   1.341  25.136  0.1646  0.1735 -0.0029
 7400DDP     C244398  22.477   0.813  25.051  0.1514 -0.0765  0.0934
 7400DDP     C344399  23.062   2.071  25.723 -0.2726 -0.0875 -0.2183
 7400DDP     C444400  21.997   1.915  25.110 -0.2050  0.0624 -0.1529
 7401DDP     C144401  28.464  11.540  15.643 -0.0013 -0.2823 -0.0392
 7401DDP     P144402  28.229  11.237  15.492 -0.2578 -0.1443 -0.1944
 7401DDP     P244403  28.709  11.459  15.927 -0.0673 -0.2031 -0.4524
 7401DDP     C244404  29.058  11.281  16.105 -0.0030  0.0213 -0.0014
 7401DDP     C344405  28.149  10.828  15.361 -0.0756 -0.0017  0.2615
 7401DDP     C444406  28.433  12.052  15.569 -0.0949  0.0537 -0.1614
 7402DDP     C144407  13.502  29.269  16.021  0.2784 -0.0729 -0.1230
 7402DDP     P144408  13.154  29.355  15.779 -0.1405 -0.0738 -0.1537
 7402DDP     P244409  13.723  29.623  16.055 -0.0368 -0.0562 -0.1511
 7402DDP     C244410  14.027  29.772  16.381 -0.0466 -0.0321 -0.1362
 7402DDP     C344411  12.814  29.579  15.620 -0.3179  0.1275 -0.0517
 7402DDP     C444412  13.432  28.952  16.345  0.1105  0.3285 -0.0233
 7403DDP     C144413  11.861  26.674   9.894  0.1529 -0.1263  0.0179
 7403DDP     P144414  11.897  26.342   9.728  0.3333  0.2578 -0.1308
 7403DDP     P244415  11.698  26.915   9.598 -0.1912  0.2213  0.1946
 7403DDP     C244416  11.235  27.123   9.601  0.0669  0.1068  0.1045
 7403DDP     C344417  11.510  25.916   9.971 -0.1204 -0.4361 -0.0799
 7403DDP     C444418  12.082  26.726  10.309  0.0857  0.1935  0.1032
 7404DDP     C144419   2.119   0.612  25.162 -0.0642 -0.1727  0.2163
 7404DDP     P144420   2.497   0.640  24.916  0.0702  0.0312 -0.1854
 7404DDP     P244421   2.106   1.015  25.493 -0.0573 -0.2796  0.0956
 7404DDP     C244422   2.046   1.004  25.933 -0.1878 -0.0325  0.0915
 7404DDP     C344423   2.776   0.956  24.740  0.1731  0.0569  0.0587
 7404DDP     C444424   2.073   0.148  25.318 -0.1612 -0.1654 -0.1372
 7405DDP     C144425   7.790  14.723  18.124 -0.0322  0.4043  0.1178
 7405DDP     P144426   8.068  14.407  17.858 -0.1379  0.0596  0.0326
 7405DDP     P244427   7.568  14.434  18.376 -0.0886 -0.0079  0.0395
 7405DDP     C244428   7.419  14.006  18.259  0.3205 -0.0370 -0.0737
 7405DDP     C344429   7.801  14.117  17.630  0.2136 -0.2958  0.1777
 7405DDP     C444430   7.722  15.058  18.056 -0.2672 -0.0440 -0.3953
 7406DDP     C144431  27.425  29.020  19.421 -0.1194  0.0463  0.1212
 7406DDP     P144432  27.531  29.009  18.968  0.2514  0.1708  0.0745
 7406DDP     P244433  27.004  29.112  19.456  0.1064 -0.3700 -0.1455
 7406DDP     C244434  26.768  29.182  19.100 -0.0909  0.0479 -0.0311
 7406DDP     C344435  27.693  29.165  18.598  0.0230 -0.0944 -0.0322
 7406DDP     C444436  27.796  29.060  19.624  0.2232  0.0936 -0.2078
 7407DDP     C144437   0.925  21.356  12.252  0.0864 -0.3695  0.0240
 7407DDP     P144438   1.282  21.240  12.341  0.0921  0.1344  0.2952
 7407DDP     P244439   0.725  21.054  12.155  0.0965  0.2422  0.2916
 7407DDP     C244440   0.385  20.934  11.834 -0.1230  0.1775  0.0040
 7407DDP     C344441   1.784  21.389  12.378  0.1679  0.0147  0.2252
 7407DDP     C444442   0.667  21.654  12.097 -0.0221  0.0077 -0.2714
 7408DDP     C144443   8.679   2.577  16.654  0.1767  0.4785 -0.1066
 7408DDP     P144444   8.233   2.747  16.699 -0.0315  0.1785  0.1200
 7408DDP     P244445   9.160   2.826  16.806  0.0962 -0.0886 -0.3599
 7408DDP     C244446   9.491   3.084  16.744 -0.3328 -0.3673  0.1130
 7408DDP     C344447   7.952   2.486  16.929  0.0097 -0.2067  0.2160
 7408DDP     C444448   8.753   2.155  16.452 -0.2238  0.4120 -0.2492
 7409DDP     C144449  17.776  28.376  18.684  0.1659 -0.1940  0.3754
 7409DDP     P144450  17.829  28.270  18.348  0.1031 -0.1170 -0.2900
 7409DDP     P244451  17.717  28.777  18.687 -0.0613 -0.2182 -0.2042
 7409DDP     C244452  17.354  29.101  18.564  0.2229 -0.1830 -0.1752
 7409DDP     C344453  18.200  28.067  18.345 -0.0017  0.0228  0.1570
 7409DDP     C444454  17.780  28.210  19.118 -0.2251 -0.0860  0.0466
 7410DDP     C144455  19.299   5.024   5.880 -0.1752 -0.1205 -0.2184
 7410DDP     P144456  19.676   4.826   5.617  0.3675 -0.3156 -0.3302
 7410DDP     P244457  18.962   4.787   5.972 -0.0457 -0.1693  0.2296
 7410DDP     C244458  18.788   4.464   6.287 -0.1486 -0.3169 -0.0839
 7410DDP     C344459  20.085   4.714   5.570  0.1578 -0.1428  0.0167
 7410DDP     C444460  19.235   5.268   6.103 -0.1267 -0.0687 -0.1789
 7411DDP     C144461  29.375  30.253   0.690 -0.0194 -0.0735 -0.0252
 7411DDP     P144462  29.128   0.027   1.056  0.1055 -0.0678  0.1378
 7411DDP     P244463  29.170  30.035   0.304 -0.1686  0.5270  0.2083
 7411DDP     C244464  28.933  29.739   0.097  0.4555 -0.0969 -0.3571
 7411DDP     C344465  29.102   0.057   1.461  0.0887  0.0622 -0.2562
 7411DDP     C444466  29.839   0.076   0.662  0.2362 -0.0474  0.2277
 7412DDP     C144467   1.497  12.476  14.214  0.1884 -0.2090  0.3417
 7412DDP     P144468   1.147  12.776  14.021  0.1418  0.0597 -0.1303
 7412DDP     P244469   1.948  12.298  14.125 -0.1104 -0.1525  0.1603
 7412DDP     C244470   2.362  12.257  13.958  0.2552  0.2595 -0.1601
 7412DDP     C344471   0.823  13.027  13.679  0.2200 -0.0285  0.0661
 7412DDP     C444472   1.296  12.285  14.620  0.4396 -0.0799 -0.2743
 7413DDP     C144473  24.301  25.326  22.732 -0.0650  0.1841 -0.0828
 7413DDP     P144474  24.289  25.766  22.702 -0.3642 -0.0937 -0.4056
 7413DDP     P244475  24.319  25.098  22.398  0.0911  0.1510 -0.1899
 7413DDP     C244476  24.444  24.740  22.152  0.0958  0.1149  0.2576
 7413DDP     C344477  24.671  25.984  22.566  0.1070 -0.1526 -0.0099
 7413DDP     C444478  24.465  24.970  23.101  0.2027  0.0231 -0.1436
 7414DDP     C144479  11.391  28.322  20.237  0.1106 -0.2166  0.0332
 7414DDP     P144480  11.229  28.655  19.968  0.1965 -0.3131  0.1125
 7414DDP     P244481  11.704  28.490  20.526 -0.3315 -0.2405 -0.2543
 7414DDP     C244482  12.086  28.437  20.625  0.0147 -0.2070  0.1306
 7414DDP     C344483  10.823  28.823  20.029  0.2025 -0.1277  0.1316
 7414DDP     C444484  11.329  27.857  20.189 -0.4301 -0.0048  0.1135
 7415DDP     C144485  28.897  29.136  29.632  0.0513  0.1714  0.0026
 7415DDP     P144486  28.780  29.158  29.245 -0.1310 -0.1801  0.0472
 7415DDP     P244487  28.876  29.529  29.972  0.0084  0.0551  0.0836
 7415DDP     C244488  28.582  29.943  30.120 -0.1244 -0.3515  0.1324
 7415DDP     C344489  28.562  29.195  28.859 -0.2851  0.2646 -0.2933
 7415DDP     C444490  28.968  28.802  29.969  0.1503 -0.0944  0.0963
 7416DDP     C144491  26.300   4.361  18.967  0.2653 -0.2519 -0.0386
 7416DDP     P144492  26.461   3.899  19.082  0.0082 -0.1181 -0.0031
 7416DDP     P244493  26.227   4.544  18.531 -0.1671 -0.2831 -0.1388
 7416DDP     C244494  25.811   4.733  18.495  0.2605 -0.4681  0.2363
 7416DDP     C344495  26.842   3.685  18.876 -0.0462 -0.0497 -0.0430
 7416DDP     C444496  26.156   4.732  19.171 -0.0821 -0.0879  0.3192
 7417DDP     C144497  29.345  10.058   9.642 -0.2914  0.0348  0.0075
 7417DDP     P144498  29.378  10.465   9.844  0.1070 -0.1713 -0.1088
 7417DDP     P244499  29.079   9.964   9.319  0.1742  0.0563 -0.1091
 7417DDP     C244500  29.019   9.710   8.917 -0.1535 -0.0642 -0.1846
 7417DDP     C344501  29.310  10.900   9.919 -0.3072 -0.0226 -0.0367
 7417DDP     C444502  29.488   9.713   9.632 -0.3386 -0.2374  0.2229
 7418DDP     C144503   9.972  19.091  14.298  0.0324  0.0398 -0.0461
 7418DDP     P144504  10.326  19.131  14.314  0.0565  0.0259  0.0685
 7418DDP     P244505   9.742  19.008  13.869 -0.1040 -0.1278  0.5360
 7418DDP     C244506   9.826  18.729  13.478  0.5170  0.2442 -0.3572
 7418DDP     C344507  10.676  19.054  14.120  0.2440  0.1837  0.0385
 7418DDP     C444508   9.720  19.184  14.670  0.0801 -0.0489  0.0591
 7419DDP     C144509  18.541  26.371  24.089  0.0400 -0.3864  0.3857
 7419DDP     P144510  18.914  26.184  24.273  0.0688 -0.2289  0.1670
 7419DDP     P244511  18.367  26.450  23.749 -0.3498 -0.1173  0.0965
 7419DDP     C244512  18.464  26.830  23.543 -0.0711 -0.3129 -0.1272
 7419DDP     C344513  19.322  26.318  24.272  0.3391  0.5061  0.0960
 7419DDP     C444514  18.108  26.384  24.209  0.1331  0.1849  0.0129
 7420DDP     C144515  24.877  27.113  24.286 -0.1511 -0.0576 -0.1167
 7420DDP     P144516  25.054  26.982  24.734  0.1534  0.3448 -0.0824
 7420DDP     P244517  24.666  27.521  24.278 -0.0089 -0.0160 -0.2828
 7420DDP     C244518  24.515  27.871  24.518  0.0484 -0.0059  0.1980
 7420DDP     C344519  25.408  26.951  24.925  0.0675 -0.1336  0.0290
 7420DDP     C444520  25.106  26.971  23.858 -0.1612 -0.0277 -0.0732
 7421DDP     C144521   3.668   2.909  20.366  0.2537 -0.0845 -0.0340
 7421DDP     P144522   3.493   2.584  20.325 -0.0506  0.1109  0.1280
 7421DDP     P244523   3.462   3.217  20.568 -0.0626 -0.0439  0.0407
 7421DDP     C244524   3.340   3.679  20.782  0.0426  0.2060 -0.0061
 7421DDP     C344525   2.999   2.444  20.393 -0.1841  0.1291 -0.0248
 7421DDP     C444526   3.921   3.073  20.078 -0.2887  0.0164  0.1020
 7422DDP     C144527  13.583  14.555  10.666 -0.0946 -0.0242 -0.1874
 7422DDP     P144528  13.421  14.151  10.688  0.0401 -0.0417  0.0582
 7422DDP     P244529  13.890  14.755  10.970 -0.3340  0.1945 -0.0615
 7422DDP     C244530  13.937  14.780  11.405  0.0375 -0.1556  0.1635
 7422DDP     C344531  13.200  13.865  11.027  0.0704  0.3577  0.1314
 7422DDP     C444532  13.591  14.761  10.302  0.0097  0.0025  0.0608
 7423DDP     C144533  29.196   8.487  25.994 -0.2461  0.2726  0.0974
 7423DDP     P144534  29.342   8.919  26.166 -0.1988 -0.1050 -0.1953
 7423DDP     P244535  29.138   8.359  25.582  0.1500  0.0880 -0.0434
 7423DDP     C244536  28.733   8.508  25.429 -0.0695  0.0932 -0.4498
 7423DDP     C344537  29.700   9.130  26.179 -0.2842 -0.1054 -0.0994
 7423DDP     C444538  29.108   8.174  26.395 -0.1351  0.2047  0.2209
 7424DDP     C144539  12.209  29.526   8.446 -0.1061  0.0874 -0.2024
 7424DDP     P144540  12.013  29.196   8.706  0.0807  0.0434 -0.0364
 7424DDP     P244541  12.181  29.798   8.084 -0.1127  0.0811  0.0021
 7424DDP     C244542  11.869  30.085   7.921  0.1373  0.1189  0.1108
 7424DDP     C344543  11.655  28.914   8.833  0.1764  0.1611  0.1472
 7424DDP     C444544  12.614  29.627   8.711 -0.2943 -0.0157  0.1356
 7425DDP     C144545   6.647  14.632  14.700 -0.3605 -0.0976  0.2265
 7425DDP     P144546   6.341  14.974  14.776 -0.0689  0.1185  0.0572
 7425DDP     P244547   6.483  14.241  14.369 -0.1434 -0.4952  0.0801
 7425DDP     C244548   6.220  14.222  13.987  0.0686 -0.0576  0.0070
 7425DDP     C344549   5.882  15.124  14.714 -0.1242  0.2383 -0.1805
 7425DDP     C444550   6.937  14.438  14.936 -0.0018  0.0910  0.3102
 7426DDP     C144551  10.586  25.444  20.324 -0.0874  0.2843 -0.0561
 7426DDP     P144552  10.847  25.592  19.923 -0.0580 -0.0304 -0.0144
 7426DDP     P244553  10.742  25.282  20.775  0.0377 -0.1266 -0.1101
 7426DDP     C244554  10.767  24.962  21.087  0.0575 -0.0175 -0.2406
 7426DDP     C344555  11.137  25.898  19.535 -0.0304 -0.2155  0.4732
 7426DDP     C444556  10.323  25.160  20.274  0.1666 -0.3394  0.0405
 7427DDP     C144557  13.795   1.315   0.637  0.0420  0.1881 -0.2621
 7427DDP     P144558  13.919   1.416   0.246  0.3573  0.1202  0.0852
 7427DDP     P244559  13.580   1.542   0.952 -0.0945 -0.1065 -0.2191
 7427DDP     C244560  13.399   1.851   1.220 -0.0521 -0.0241 -0.0218
 7427DDP     C344561  14.189   1.237  30.237 -0.0316 -0.2441 -0.1834
 7427DDP     C444562  13.693   0.891   0.698  0.0148 -0.0033  0.0197
 7428DDP     C144563   9.290  28.146   4.638  0.1061  0.1683  0.2193
 7428DDP     P144564   9.498  28.353   4.930 -0.0371 -0.1829  0.2707
 7428DDP     P244565   9.397  28.250   4.204  0.2328 -0.0315 -0.2618
 7428DDP     C244566   9.436  28.626   4.105 -0.2787 -0.1311 -0.1750
 7428DDP     C344567   9.603  28.832   5.047 -0.2922  0.1353 -0.1372
 7428DDP     C444568   8.946  27.869   4.659  0.2293  0.0623  0.1288
 7429DDP     C144569  18.401  11.998  19.849  0.0342 -0.0767  0.1260
 7429DDP     P144570  18.530  11.656  20.125  0.0603  0.0080 -0.1296
 7429DDP     P244571  18.089  12.304  20.015 -0.3943  0.2937 -0.4057
 7429DDP     C244572  17.754  12.159  20.422  0.1637 -0.2196  0.0025
 7429DDP     C344573  18.293  11.346  20.453 -0.0187  0.1681 -0.3704
 7429DDP     C444574  18.761  12.175  19.744  0.0191  0.1432  0.2697
 7430DDP     C144575  26.997  29.999  13.230 -0.1030  0.0530  0.0995
 7430DDP     P144576  26.603  29.983  13.466  0.0303 -0.1090  0.2320
 7430DDP     P244577  27.042  30.262  12.875 -0.2548  0.3645  0.2547
 7430DDP     C244578  26.882   0.315  12.762  0.0363 -0.3451 -0.0119
 7430DDP     C344579  26.222  30.029  13.886  0.2460  0.1278  0.0811
 7430DDP     C444580  27.270  29.751  13.351  0.2379 -0.1903 -0.0208
 7431DDP     C144581  19.573  19.409  27.415 -0.2341 -0.4605  0.4429
 7431DDP     P144582  19.347  19.269  27.126  0.0706  0.0329 -0.3336
 7431DDP     P244583  19.570  19.354  27.865  0.0169  0.0695 -0.0567
 7431DDP     C244584  19.926  19.388  28.192 -0.0771 -0.0443  0.2358
 7431DDP     C344585  18.975  19.134  27.179  0.1739  0.0100  0.2012
 7431DDP     C444586  19.918  19.782  27.340  0.0082  0.1322 -0.1111
 7432DDP     C144587  20.312  23.334  14.439  0.1067  0.0362 -0.0938
 7432DDP     P144588  20.248  23.732  14.441  0.0018 -0.1812  0.1422
 7432DDP     P244589  20.070  23.180  14.033 -0.0553 -0.2043 -0.1110
 7432DDP     C244590  19.746  22.845  14.077 -0.2591 -0.1111  0.0048
 7432DDP     C344591  19.816  23.884  14.362 -0.1434  0.0486  0.1911
 7432DDP     C444592  20.515  23.123  14.841  0.1110  0.0292 -0.0943
 7433DDP     C144593   4.817   9.450  29.855 -0.0523  0.1296 -0.0262
 7433DDP     P144594   5.160   9.338  29.758  0.1975 -0.0739 -0.0050
 7433DDP     P244595   4.630   9.162  30.265  0.1278  0.0426 -0.0644
 7433DDP     C244596   4.480   8.721   0.073  0.3132 -0.0152  0.1285
 7433DDP     C344597   5.385   9.097  29.413 -0.0335  0.1324 -0.1623
 7433DDP     C444598   4.593   9.663  29.462 -0.1152 -0.0233 -0.1245
 7434DDP     C144599  25.122  16.977  28.426  0.2749  0.0902  0.0142
 7434DDP     P144600  24.668  16.993  28.523  0.0869  0.2012 -0.1876
 7434DDP     P244601  25.273  16.573  28.443  0.4355 -0.2399 -0.1465
 7434DDP     C244602  25.220  16.234  28.649 -0.0571  0.5109  0.4056
 7434DDP     C344603  24.248  16.892  28.744 -0.1966 -0.1283  0.2417
 7434DDP     C444604  25.409  17.278  28.225 -0.2534  0.2568  0.3053
 7435DDP     C144605  21.852  25.261  19.233  0.0033 -0.0179  0.0155
 7435DDP     P144606  22.147  25.365  19.446  0.1188 -0.2417  0.1050
 7435DDP     P244607  21.521  25.352  19.477  0.2393 -0.0982 -0.0343
 7435DDP     C244608  21.153  25.140  19.513  0.1837 -0.1569 -0.3261
 7435DDP     C344609  22.379  25.674  19.755 -0.1734  0.1852  0.4045
 7435DDP     C444610  21.823  24.999  18.884  0.2707  0.1090  0.1261
 7436DDP     C144611  26.852  27.591   5.034 -0.2124  0.0177  0.1807
 7436DDP     P144612  26.741  27.954   5.336 -0.1200  0.0875  0.1244
 7436DDP     P244613  26.841  27.203   5.230  0.2140 -0.0406  0.0357
 7436DDP     C244614  27.011  26.854   5.216  0.0790  0.1281  0.0886
 7436DDP     C344615  26.609  28.409   5.321 -0.0032  0.1576 -0.5177
 7436DDP     C444616  26.821  27.590   4.656  0.1984 -0.2866 -0.0235
 7437DDP     C144617   4.489  11.305   4.532 -0.0065  0.0618  0.2509
 7437DDP     P144618   4.092  11.405   4.433 -0.2896 -0.0779 -0.2208
 7437DDP     P244619   4.632  11.360   4.063  0.3680 -0.1622 -0.2236
 7437DDP     C244620   4.820  11.253   3.652 -0.0082 -0.0416 -0.0372
 7437DDP     C344621   3.725  11.577   4.065 -0.1923  0.1624 -0.1677
 7437DDP     C444622   4.372  11.232   4.969 -0.1255  0.1016 -0.1460
 7438DDP     C144623   4.349   7.206   5.958  0.0898  0.1970  0.0108
 7438DDP     P144624   3.953   6.913   6.109  0.3203 -0.0743  0.2913
 7438DDP     P244625   4.246   7.662   5.864 -0.0411 -0.0140 -0.2177
 7438DDP     C244626   4.438   8.053   6.049 -0.0401 -0.2466 -0.0534
 7438DDP     C344627   3.619   6.998   6.318 -0.0947 -0.0220  0.1214
 7438DDP     C444628   4.709   7.039   5.980  0.3539 -0.2365  0.1407
 7439DDP     C144629  18.937   8.318   8.141  0.0675  0.0679 -0.2284
 7439DDP     P144630  18.552   8.088   8.413 -0.2669  0.0469 -0.0716
 7439DDP     P244631  18.949   8.687   8.225 -0.0373 -0.1700  0.4240
 7439DDP     C244632  18.824   9.175   8.331  0.2218 -0.1970  0.0889
 7439DDP     C344633  18.193   8.363   8.531  0.0382 -0.0449 -0.1011
 7439DDP     C444634  19.006   8.336   7.784  0.1477 -0.0505 -0.3908
 7440DDP     C144635  10.500  23.232  19.686 -0.1352 -0.2796  0.0154
 7440DDP     P144636  10.977  23.135  19.552 -0.1424  0.0157 -0.1092
 7440DDP     P244637  10.356  23.619  19.840 -0.1773  0.0479 -0.0713
 7440DDP     C244638  10.469  23.936  19.961 -0.0111 -0.1046 -0.0568
 7440DDP     C344639  11.140  22.777  19.860  0.1123 -0.0271  0.0197
 7440DDP     C444640  10.291  22.898  19.745  0.2851  0.3979  0.1914
 7441DDP     C144641   9.468  20.861   3.398  0.0630 -0.2374  0.0380
 7441DDP     P144642   9.552  21.015   3.867 -0.0964  0.1712 -0.0572
 7441DDP     P244643   9.625  20.335   3.328  0.1326 -0.0070  0.0147
 7441DDP     C244644  10.000  20.233   3.144  0.1201 -0.1118  0.0473
 7441DDP     C344645   9.610  21.502   3.900  0.0826 -0.0017 -0.0310
 7441DDP     C444646   9.316  21.144   3.009 -0.0831  0.0131 -0.1539
 7442DDP     C144647  17.259  27.913  26.421  0.0017  0.0292  0.0416
 7442DDP     P144648  17.375  27.597  26.103  0.2217 -0.0837  0.0547
 7442DDP     P244649  17.017  27.770  26.704  0.0590 -0.1592 -0.1387
 7442DDP     C244650  16.672  27.418  26.647 -0.3589 -0.1263 -0.1439
 7442DDP     C344651  17.457  27.542  25.557  0.1032 -0.0468 -0.3546
 7442DDP     C444652  17.469  28.219  26.193 -0.1369  0.3478 -0.0894
 7443DDP     C144653   0.536  10.021  25.784  0.0095 -0.1810  0.0270
 7443DDP     P144654   0.411  10.087  25.322  0.1313 -0.0664  0.0739
 7443DDP     P244655   0.783   9.693  25.855 -0.1318 -0.1103  0.0260
 7443DDP     C244656   0.958   9.280  25.600 -0.1664 -0.0566  0.1566
 7443DDP     C344657   0.542  10.109  24.900  0.1261  0.0914 -0.1586
 7443DDP     C444658   0.267  10.396  26.007  0.1123 -0.1037 -0.1587
 7444DDP     C144659  11.575  19.816  28.264 -0.1085  0.0372 -0.1470
 7444DDP     P144660  11.769  19.961  28.587 -0.0809 -0.0641  0.1071
 7444DDP     P244661  11.477  20.125  27.969 -0.0713 -0.0468 -0.0480
 7444DDP     C244662  11.178  19.980  27.735  0.1714  0.2746 -0.0999
 7444DDP     C344663  11.722  20.082  28.985  0.0158 -0.0824 -0.4168
 7444DDP     C444664  11.564  19.375  28.127 -0.0189  0.1351  0.0755
 7445DDP     C144665  12.804   1.206   7.353 -0.2414 -0.1408  0.0328
 7445DDP     P144666  12.952   0.983   7.716  0.0507  0.3220 -0.1134
 7445DDP     P244667  12.982   1.568   7.156 -0.1825  0.2684 -0.0605
 7445DDP     C244668  13.452   1.530   7.049 -0.1657 -0.0991  0.0809
 7445DDP     C344669  12.891   1.091   8.124 -0.2389  0.2267  0.0299
 7445DDP     C444670  12.536   1.006   7.035 -0.2106 -0.0951 -0.2280
 7446DDP     C144671  21.074  16.149  28.711  0.2637 -0.1216  0.0387
 7446DDP     P144672  21.147  16.455  28.879  0.0392 -0.0519 -0.3460
 7446DDP     P244673  20.986  16.202  28.299  0.0875  0.2056  0.0178
 7446DDP     C244674  20.880  15.940  28.005  0.0245 -0.1237  0.1674
 7446DDP     C344675  21.012  16.810  28.927 -0.1210 -0.3985 -0.1245
 7446DDP     C444676  21.171  15.725  28.927  0.0597 -0.2294  0.3773
 7447DDP     C144677   3.480  22.309  29.513  0.0455  0.2025 -0.1659
 7447DDP     P144678   3.703  22.166  29.174 -0.0596  0.0456  0.0195
 7447DDP     P244679   3.250  22.599  29.423 -0.4355 -0.2221  0.1536
 7447DDP     C244680   3.133  22.967  29.180 -0.1245 -0.0546 -0.1578
 7447DDP     C344681   3.899  22.134  28.759 -0.1912  0.2490 -0.2067
 7447DDP     C444682   3.389  22.148  29.838 -0.0444 -0.1064 -0.2444
 7448DDP     C144683   5.644  29.637  17.493  0.0642 -0.2158  0.1167
 7448DDP     P144684   5.965  29.775  17.840 -0.0491  0.0763  0.1278
 7448DDP     P244685   5.254  29.783  17.728  0.1562  0.4196 -0.1998
 7448DDP     C244686   4.837  29.702  18.009 -0.0408  0.2485 -0.0992
 7448DDP     C344687   6.119  30.177  17.959  0.4604  0.1372 -0.0835
 7448DDP     C444688   5.812  29.370  17.068  0.1068 -0.1476  0.0563
 7449DDP     C144689  14.840  24.468   1.881 -0.1755  0.0379  0.2073
 7449DDP     P144690  14.497  24.141   1.795 -0.2505  0.1461 -0.1246
 7449DDP     P244691  14.962  24.912   1.714  0.2596 -0.2255 -0.2918
 7449DDP     C244692  14.709  25.203   1.350  0.0061  0.0936 -0.1192
 7449DDP     C344693  14.268  23.827   1.538 -0.0835 -0.4121  0.0622
 7449DDP     C444694  14.989  24.483   2.278 -0.0867 -0.1810  0.1220
 7450DDP     C144695   4.907  15.347   2.809 -0.0860 -0.1777  0.1069
 7450DDP     P144696   4.708  15.318   3.221  0.0716 -0.0116  0.0134
 7450DDP     P244697   5.117  15.666   2.742 -0.1273 -0.3080 -0.1495
 7450DDP     C244698   5.281  15.966   3.155 -0.2475  0.0486  0.1750
 7450DDP     C344699   4.392  15.014   3.198 -0.0424 -0.0067  0.2902
 7450DDP     C444700   4.864  15.009   2.476  0.0043 -0.0321 -0.0753
 7451DDP     C144701  26.977  21.559  15.398 -0.1193 -0.0546  0.0115
 7451DDP     P144702  26.965  21.066  15.221 -0.0468 -0.0458 -0.0943
 7451DDP     P244703  27.423  21.691  15.323  0.1274 -0.0627 -0.0824
 7451DDP     C244704  27.691  21.609  15.618 -0.0365  0.3882  0.3193
 7451DDP     C344705  26.619  20.839  15.042 -0.0159 -0.0443  0.1692
 7451DDP     C444706  26.823  21.816  15.647 -0.1924  0.0456 -0.2096
 7452DDP     C144707  20.005   2.437  28.601 -0.3147 -0.1910  0.0268
 7452DDP     P144708  20.406   2.227  28.746 -0.2580  0.1098 -0.0408
 7452DDP     P244709  20.181   2.789  28.370 -0.2670  0.1121  0.1124
 7452DDP     C244710  20.368   2.879  27.993  0.3360 -0.0085  0.1313
 7452DDP     C344711  20.562   2.051  29.090  0.2604 -0.1316 -0.1238
 7452DDP     C444712  19.550   2.350  28.569 -0.0585  0.2207 -0.1737
 7453DDP     C144713  28.043   0.786  14.421  0.0594 -0.1245 -0.0620
 7453DDP     P144714  28.441   0.776  14.424 -0.2632  0.0698  0.3953
 7453DDP     P244715  27.893   0.384  14.778  0.1598  0.1695 -0.1573
 7453DDP     C244716  27.581   0.127  14.795  0.3218 -0.1772 -0.0771
 7453DDP     C344717  28.819   0.537  14.541 -0.1393 -0.1774  0.0198
 7453DDP     C444718  27.858   1.177  14.226 -0.3949 -0.0437 -0.3152
 7454DDP     C144719  19.686   8.762  17.018  0.1792 -0.0173  0.0822
 7454DDP     P144720  19.309   8.506  17.015 -0.2388 -0.1426 -0.2487
 7454DDP     P244721  20.050   8.654  17.059  0.2634  0.3660  0.2703
 7454DDP     C244722  20.271   8.472  16.821  0.2399  0.0201 -0.0115
 7454DDP     C344723  18.957   8.502  16.752 -0.0691 -0.1363 -0.2404
 7454DDP     C444724  19.514   9.114  17.033 -0.1942 -0.0828  0.0439
 7455DDP     C144725   8.873  23.663   6.975 -0.0112 -0.1209 -0.1261
 7455DDP     P144726   9.139  23.688   6.587 -0.1925 -0.0078  0.0895
 7455DDP     P244727   8.374  23.658   6.866 -0.1611 -0.0301 -0.0698
 7455DDP     C244728   8.106  23.353   7.184  0.1164 -0.1747 -0.0901
 7455DDP     C344729   9.492  23.675   6.313  0.1177  0.0868 -0.2166
 7455DDP     C444730   8.978  23.360   7.343 -0.0555  0.5521  0.1174
 7456DDP     C144731  17.772  19.005  28.425 -0.2403  0.0736  0.3303
 7456DDP     P144732  17.781  18.608  28.100  0.1307  0.0311 -0.1035
 7456DDP     P244733  18.123  19.461  28.323 -0.0332 -0.0466  0.0571
 7456DDP     C244734  18.392  19.705  28.552 -0.0806 -0.0097 -0.0077
 7456DDP     C344735  17.847  18.190  28.010  0.0296 -0.2305 -0.1882
 7456DDP     C444736  17.614  18.828  28.867  0.0022 -0.0112  0.0464
 7457DDP     C144737  13.853   3.417   1.381  0.2188  0.3112 -0.0508
 7457DDP     P144738  14.236   3.218   1.544 -0.0328  0.2832 -0.1315
 7457DDP     P244739  13.674   3.307   0.953 -0.2085 -0.2319  0.0392
 7457DDP     C244740  13.544   3.058   0.590 -0.1289 -0.0596 -0.2677
 7457DDP     C344741  14.664   3.445   1.485  0.0432 -0.0351 -0.0734
 7457DDP     C444742  13.609   3.645   1.710  0.0250  0.1545 -0.0982
 7458DDP     C144743  26.149   5.181   7.297  0.0365  0.1477 -0.0627
 7458DDP     P144744  26.501   5.248   7.239 -0.0103 -0.1239 -0.0675
 7458DDP     P244745  26.263   5.213   7.733 -0.0367  0.0461 -0.2850
 7458DDP     C244746  26.149   5.269   8.174  0.3257 -0.0225  0.2351
 7458DDP     C344747  26.942   5.202   7.250 -0.2216 -0.1415  0.1042
 7458DDP     C444748  25.891   5.371   6.943  0.1283 -0.2677 -0.1147
 7459DDP     C144749  16.758  15.658  28.711  0.0348  0.1442 -0.3907
 7459DDP     P144750  16.953  15.527  28.435 -0.0854 -0.2382  0.3292
 7459DDP     P244751  16.802  15.268  29.104 -0.2376 -0.2065  0.1057
 7459DDP     C244752  16.932  14.907  29.181 -0.1546 -0.0785 -0.2106
 7459DDP     C344753  17.057  15.150  28.248  0.1195 -0.3638  0.4699
 7459DDP     C444754  16.591  16.071  28.805 -0.1839 -0.2224 -0.3318
 7460DDP     C144755  13.757  28.971   9.711  0.1447 -0.3721 -0.1010
 7460DDP     P144756  13.648  29.437   9.565  0.0517  0.1336  0.0002
 7460DDP     P244757  13.822  28.923  10.218  0.0170  0.1643  0.0801
 7460DDP     C244758  13.691  28.632  10.573  0.2177  0.0407  0.1539
 7460DDP     C344759  13.954  29.523   9.285  0.0787  0.0205 -0.0383
 7460DDP     C444760  13.486  28.558   9.558 -0.2094  0.0227 -0.0826
 7461DDP     C144761  30.088  16.813   7.875 -0.0361  0.4548  0.2866
 7461DDP     P144762  29.644  16.648   7.995 -0.1002  0.1766 -0.0521
 7461DDP     P244763   0.202  16.703   7.821  0.0106  0.1584  0.2069
 7461DDP     C244764   0.576  16.614   7.927 -0.3077  0.4164  0.1178
 7461DDP     C344765  29.226  16.539   7.976 -0.0749 -0.1376 -0.1578
 7461DDP     C444766  30.032  17.221   7.968  0.2102  0.1037 -0.0728
 7462DDP     C144767  28.078  17.343   1.349  0.0697 -0.2178  0.0230
 7462DDP     P144768  28.309  17.260   0.939  0.3870  0.0577  0.1424
 7462DDP     P244769  27.944  16.952   1.523  0.2360 -0.0072  0.1311
 7462DDP     C244770  27.797  16.762   1.894 -0.1325 -0.0891 -0.0402
 7462DDP     C344771  28.309  16.898   0.609 -0.0527 -0.0200 -0.1504
 7462DDP     C444772  27.998  17.733   1.394 -0.0086  0.0131  0.0638
 7463DDP     C144773   0.299   6.416  11.802 -0.0471 -0.1682  0.3049
 7463DDP     P144774   0.532   6.779  11.876 -0.3726  0.1310  0.1352
 7463DDP     P244775  30.138   6.496  11.661 -0.2918 -0.0415  0.2964
 7463DDP     C244776  29.854   6.358  11.390  0.0115  0.0477  0.2137
 7463DDP     C344777   0.427   7.296  12.157 -0.1305  0.2718  0.0162
 7463DDP     C444778   0.453   6.034  12.042 -0.0327  0.1570 -0.3347
 7464DDP     C144779   3.597   9.385  10.796  0.3382  0.3497 -0.1566
 7464DDP     P144780   3.641   9.192  11.211 -0.0298 -0.1024 -0.1088
 7464DDP     P244781   3.974   9.219  10.440  0.1762 -0.0418 -0.3297
 7464DDP     C244782   4.057   8.879  10.206  0.2673  0.0743  0.3037
 7464DDP     C344783   3.685   8.935  11.488 -0.0754 -0.0365 -0.0838
 7464DDP     C444784   3.254   9.653  10.695 -0.0755 -0.1005  0.0983
 7465DDP     C144785  28.547  26.419  22.646 -0.0798 -0.0015  0.1525
 7465DDP     P144786  28.675  26.300  22.965  0.0351  0.0676  0.2113
 7465DDP     P244787  28.288  26.736  22.483 -0.0287 -0.1681  0.1017
 7465DDP     C244788  28.114  26.984  22.225 -0.2728 -0.1686  0.2380
 7465DDP     C344789  29.048  26.127  23.302 -0.0628 -0.0019 -0.3263
 7465DDP     C444790  28.829  26.207  22.411 -0.0386 -0.2218  0.0850
 7466DDP     C144791  15.571   5.733  29.710 -0.0932 -0.1234  0.1692
 7466DDP     P144792  15.254   5.503  29.553  0.3828  0.1089 -0.0718
 7466DDP     P244793  15.492   5.980  30.039  0.2983 -0.1943 -0.0322
 7466DDP     C244794  15.366   6.420  30.062  0.0031 -0.1164 -0.2297
 7466DDP     C344795  14.858   5.191  29.727 -0.1338  0.1339 -0.0155
 7466DDP     C444796  15.990   5.630  29.508  0.2112 -0.1394  0.0014
 7467DDP     C144797   8.931  17.316   4.551  0.1993 -0.1233 -0.3140
 7467DDP     P144798   8.739  17.399   4.117 -0.0009  0.0644  0.0398
 7467DDP     P244799   8.608  17.098   4.806 -0.1174  0.0557 -0.1655
 7467DDP     C244800   8.171  17.047   4.891 -0.1098 -0.2439 -0.2958
 7467DDP     C344801   8.812  17.014   3.852  0.0769  0.0197  0.0227
 7467DDP     C444802   9.126  17.652   4.696  0.3252 -0.0402 -0.1071
 7468DDP     C144803  27.950   7.125  17.509 -0.2397  0.1991 -0.1543
 7468DDP     P144804  27.806   7.454  17.637 -0.1273 -0.0625  0.1901
 7468DDP     P244805  28.385   7.206  17.465 -0.1249  0.0401  0.1032
 7468DDP     C244806  28.817   7.045  17.515  0.0916 -0.0330  0.3250
 7468DDP     C344807  27.413   7.636  17.724 -0.3102 -0.0434 -0.0365
 7468DDP     C444808  27.626   6.817  17.329  0.0807 -0.2738  0.1292
 7469DDP     C144809   2.923  23.369  18.565  0.0464  0.1598  0.2968
 7469DDP     P144810   2.506  23.478  18.653  0.1858 -0.1215 -0.0820
 7469DDP     P244811   3.091  23.082  18.218  0.2481 -0.0139 -0.1037
 7469DDP     C244812   2.861  22.875  17.914  0.0787 -0.0145  0.0195
 7469DDP     C344813   2.226  23.237  18.907  0.1741 -0.0338 -0.0755
 7469DDP     C444814   3.251  23.438  18.813  0.1684  0.0609 -0.1496
 7470DDP     C144815  30.033  14.526   2.239  0.0658 -0.2637  0.1096
 7470DDP     P144816  29.863  14.763   2.487 -0.1108 -0.0852  0.0761
 7470DDP     P244817  29.767  14.410   1.865  0.2470 -0.0163 -0.0426
 7470DDP     C244818  29.618  13.967   1.771 -0.0487 -0.0130 -0.2334
 7470DDP     C344819  29.560  14.916   2.841 -0.0846  0.2083 -0.0536
 7470DDP     C444820  30.269  14.075   2.339  0.1522 -0.0642 -0.1034
 7471DDP     C144821  14.914   6.913   5.370  0.2598  0.0255  0.1768
 7471DDP     P144822  14.813   6.463   5.451  0.2914 -0.0181 -0.1451
 7471DDP     P244823  15.101   7.106   5.758  0.0152 -0.1355  0.0540
 7471DDP     C244824  15.447   7.020   6.054 -0.1166 -0.2169  0.1623
 7471DDP     C344825  14.585   6.195   5.716  0.1267  0.1291  0.0306
 7471DDP     C444826  14.720   7.117   5.030 -0.0850  0.0372 -0.1162
 7472DDP     C144827  23.028  26.961  28.639 -0.2125  0.2262  0.3799
 7472DDP     P144828  23.436  27.006  28.764 -0.0936 -0.2526 -0.1067
 7472DDP     P244829  22.748  27.250  28.426 -0.1233  0.2706 -0.0564
 7472DDP     C244830  22.614  27.245  28.004 -0.1289 -0.1726  0.1236
 7472DDP     C344831  23.684  27.305  28.871 -0.0258  0.1372  0.1083
 7472DDP     C444832  22.975  26.532  28.684 -0.1181 -0.2402 -0.0733
 7473DDP     C144833  10.810   6.540  10.525 -0.0089  0.2921 -0.1216
 7473DDP     P144834  10.434   6.860  10.369 -0.0825  0.1388  0.0916
 7473DDP     P244835  11.287   6.475  10.369  0.1224 -0.0299 -0.0608
 7473DDP     C244836  11.593   6.545  10.225 -0.3790  0.0403 -0.4362
 7473DDP     C344837  10.349   7.347  10.431  0.1592 -0.2391  0.2578
 7473DDP     C444838  10.595   6.136  10.708  0.0203  0.1101 -0.1648
 7474DDP     C144839   1.199  23.709  17.187  0.0861  0.0595  0.0234
 7474DDP     P144840   1.319  23.664  17.598 -0.2300  0.2092  0.2401
 7474DDP     P244841   1.461  23.604  17.067 -0.1453  0.1921  0.1534
 7474DDP     C244842   1.766  23.902  16.878 -0.0128 -0.1907 -0.0797
 7474DDP     C344843   1.671  23.451  17.666  0.1174  0.3352 -0.2027
 7474DDP     C444844   1.051  23.686  16.750  0.0985  0.2770  0.0906
 7475DDP     C144845   9.411   9.398  18.925  0.4813 -0.2327 -0.1027
 7475DDP     P144846   9.859   9.399  18.858  0.0281 -0.0632  0.1234
 7475DDP     P244847   9.075   9.177  18.641 -0.0638 -0.2206  0.1010
 7475DDP     C244848   8.768   9.349  18.412  0.0621  0.0104  0.0264
 7475DDP     C344849  10.179   9.729  18.755  0.0968 -0.0102  0.3402
 7475DDP     C444850   9.236   9.426  19.340 -0.3738  0.0303  0.1627
 7476DDP     C144851  22.070  14.902   1.883 -0.0638  0.1380 -0.4720
 7476DDP     P144852  22.379  14.738   2.188 -0.1133  0.1818 -0.1926
 7476DDP     P244853  21.944  15.257   1.735  0.1928  0.2833  0.1701
 7476DDP     C244854  21.489  15.427   1.690  0.0599  0.0406 -0.0919
 7476DDP     C344855  22.463  14.346   2.383  0.0451 -0.5425  0.1098
 7476DDP     C444856  22.096  14.838   1.426  0.2545  0.0782 -0.0291
 7477DDP     C144857  29.783  17.558  19.388  0.0949  0.1071 -0.0111
 7477DDP     P144858  29.467  17.698  19.659  0.2213 -0.0226 -0.3600
 7477DDP     P244859  29.706  17.381  19.076  0.0311  0.0253  0.1590
 7477DDP     C244860  29.625  17.218  18.637  0.3098  0.0023 -0.0695
 7477DDP     C344861  29.306  17.635  20.158 -0.1069 -0.1045 -0.2047
 7477DDP     C444862  30.210  17.516  19.554 -0.0565  0.0438 -0.0454
 7478DDP     C144863  20.988   5.439  14.631  0.0554 -0.1469 -0.0716
 7478DDP     P144864  20.854   5.460  15.052  0.0931  0.2623 -0.1329
 7478DDP     P244865  21.437   5.259  14.689 -0.2743  0.2429  0.1626
 7478DDP     C244866  21.696   4.914  14.914  0.3319 -0.0768  0.0542
 7478DDP     C344867  20.972   5.464  15.562  0.3215  0.0629  0.4522
 7478DDP     C444868  20.942   5.443  14.125 -0.1338 -0.1115 -0.1002
 7479DDP     C144869  12.781  17.209   2.048 -0.1021  0.0664  0.2006
 7479DDP     P144870  12.914  17.589   1.935  0.0458 -0.0454  0.2550
 7479DDP     P244871  12.631  17.355   2.415  0.3508 -0.1051 -0.0201
 7479DDP     C244872  12.520  17.230   2.759  0.0080 -0.1741  0.0368
 7479DDP     C344873  12.729  17.847   1.642  0.1159  0.1468  0.0255
 7479DDP     C444874  12.575  16.789   1.931  0.0163 -0.2051 -0.0257
 7480DDP     C144875   6.802   7.013  24.099 -0.0266 -0.2626  0.2429
 7480DDP     P144876   6.843   6.641  24.132  0.0895  0.1156 -0.0769
 7480DDP     P244877   6.602   7.379  24.295  0.1321 -0.1181  0.1988
 7480DDP     C244878   6.205   7.606  24.250 -0.2610 -0.2059  0.0040
 7480DDP     C344879   6.899   6.264  23.920  0.0539 -0.1032 -0.1274
 7480DDP     C444880   6.956   7.264  23.670  0.0793 -0.5195  0.0316
 7481DDP     C144881   7.599   3.693   2.670  0.3428 -0.0272  0.1666
 7481DDP     P144882   7.934   3.555   2.201 -0.2237  0.2007  0.1319
 7481DDP     P244883   7.329   4.103   2.753  0.2503  0.1343 -0.1016
 7481DDP     C244884   7.346   4.555   2.669 -0.1890 -0.0986  0.0227
 7481DDP     C344885   8.342   3.642   2.005 -0.2918  0.1057  0.2283
 7481DDP     C444886   7.616   3.508   3.069  0.2627 -0.3035  0.0769
 7482DDP     C144887   6.002   1.484  29.856 -0.0156  0.1843 -0.2822
 7482DDP     P144888   5.669   1.322  29.750  0.0034 -0.0234  0.0333
 7482DDP     P244889   6.024   1.666  30.199 -0.0247  0.0209 -0.0699
 7482DDP     C244890   6.289   1.803   0.251 -0.1746 -0.1860 -0.3477
 7482DDP     C344891   5.338   1.172  29.643  0.1348 -0.3792 -0.2698
 7482DDP     C444892   6.282   1.529  29.538 -0.3005 -0.0609  0.1186
 7483DDP     C144893  28.454  16.109  17.811  0.0444  0.2323 -0.1429
 7483DDP     P144894  28.876  16.102  17.775  0.0433  0.0052 -0.4152
 7483DDP     P244895  28.132  15.706  17.760 -0.0219 -0.2076  0.1714
 7483DDP     C244896  27.733  15.583  17.819  0.1017  0.0558 -0.3492
 7483DDP     C344897  29.130  15.797  17.790 -0.0567  0.1024  0.1793
 7483DDP     C444898  28.171  16.458  17.902 -0.1192  0.4046 -0.0557
 7484DDP     C144899  20.464  19.254   7.940 -0.0550  0.0897 -0.2627
 7484DDP     P144900  20.562  19.279   7.491  0.1314 -0.3220  0.2068
 7484DDP     P244901  20.252  19.546   8.159  0.1653 -0.1286 -0.0121
 7484DDP     C244902  19.885  19.820   8.050 -0.0959 -0.0092  0.1082
 7484DDP     C344903  20.977  19.112   7.458  0.0467 -0.0755 -0.0221
 7484DDP     C444904  20.375  18.849   8.203 -0.1831  0.0191 -0.2111
 7485DDP     C144905  27.517  14.846   2.796 -0.3353  0.0308  0.2887
 7485DDP     P144906  27.489  14.945   3.171  0.1025  0.3065 -0.0850
 7485DDP     P244907  27.161  14.855   2.602  0.1497 -0.1380 -0.1921
 7485DDP     C244908  26.730  15.141   2.500  0.1036 -0.1151  0.4077
 7485DDP     C344909  27.315  14.669   3.547 -0.0706 -0.2801  0.3430
 7485DDP     C444910  27.933  14.728   2.655 -0.0726  0.0192  0.2601
 7486DDP     C144911   5.457   9.643  16.287 -0.3904  0.0295 -0.0667
 7486DDP     P144912   5.136   9.365  16.117  0.1077 -0.2296  0.3310
 7486DDP     P244913   5.919   9.693  16.122 -0.0424 -0.3195  0.0122
 7486DDP     C244914   6.334   9.683  15.925  0.1428 -0.0160  0.2816
 7486DDP     C344915   4.630   9.294  16.375  0.2772 -0.1206  0.2891
 7486DDP     C444916   5.430   9.974  16.644 -0.2598  0.1707  0.1529
 7487DDP     C144917   1.049   9.805  30.021  0.2122 -0.0899  0.3298
 7487DDP     P144918   1.496   9.939  30.043  0.0974 -0.0327 -0.1491
 7487DDP     P244919   0.959   9.358  29.947  0.1574  0.0274 -0.0907
 7487DDP     C244920   1.063   9.066  30.188 -0.2229 -0.0750 -0.1076
 7487DDP     C344921   1.898  10.170  30.163 -0.0861  0.0673 -0.0589
 7487DDP     C444922   0.753  10.054  30.134 -0.0120 -0.0100 -0.0010
 7488DDP     C144923  24.243  12.349   9.981 -0.2439 -0.2295 -0.2099
 7488DDP     P144924  24.386  12.710   9.766  0.0568  0.0142 -0.2844
 7488DDP     P244925  24.620  12.084   9.804  0.1741  0.1522  0.1392
 7488DDP     C244926  24.787  11.662   9.593  0.2424 -0.2009  0.0165
 7488DDP     C344927  24.256  13.068   9.997 -0.0238  0.0112 -0.0536
 7488DDP     C444928  23.812  12.276  10.273 -0.0009  0.4196  0.2560
 7489DDP     C144929  27.214  19.961  17.553 -0.4081 -0.2129  0.0906
 7489DDP     P144930  27.161  20.369  17.292 -0.0838 -0.3299  0.0322
 7489DDP     P244931  27.518  19.691  17.484  0.3061 -0.1153 -0.1543
 7489DDP     C244932  27.867  19.517  17.421 -0.0418 -0.0601 -0.1779
 7489DDP     C344933  27.160  20.791  17.344 -0.1822  0.0600 -0.0563
 7489DDP     C444934  27.020  19.896  17.946  0.0922 -0.2420  0.1502
 7490DDP     C144935   8.479  24.077   8.382 -0.1547  0.5474 -0.2533
 7490DDP     P144936   8.203  23.757   8.211  0.0870 -0.0946 -0.0398
 7490DDP     P244937   8.761  24.052   8.035  0.1062 -0.1732 -0.3457
 7490DDP     C244938   9.040  24.073   8.002 -0.0101  0.0305  0.0248
 7490DDP     C344939   8.013  23.486   8.261  0.0571  0.0637  0.0023
 7490DDP     C444940   8.685  24.210   8.811  0.2458  0.1191 -0.3715
 7491DDP     C144941   0.298  28.019   9.725 -0.1965 -0.0627  0.0246
 7491DDP     P144942   0.121  28.080  10.104  0.0384  0.3015 -0.3894
 7491DDP     P244943   0.164  28.308   9.548  0.0903 -0.1038 -0.1797
 7491DDP     C244944   0.009  28.828   9.581 -0.2641  0.1736  0.1794
 7491DDP     C344945  30.139  27.965  10.364 -0.1101  0.1558  0.0691
 7491DDP     C444946   0.343  27.671   9.489 -0.1167  0.1821 -0.1120
 7492DDP     C144947   1.523  19.097   1.335 -0.0957  0.1140  0.0226
 7492DDP     P144948   1.426  18.609   1.557  0.1503 -0.0422 -0.1770
 7492DDP     P244949   1.395  19.249   0.904 -0.2431 -0.1339 -0.1210
 7492DDP     C244950   1.064  19.455   0.781  0.0452  0.1240  0.0330
 7492DDP     C344951   1.602  18.205   1.679 -0.1813  0.3969  0.4049
 7492DDP     C444952   2.018  19.018   1.464 -0.4563 -0.2904  0.1451
 7493DDP     C144953  23.317  16.915  20.981 -0.1228 -0.4003  0.1204
 7493DDP     P144954  23.599  17.235  21.287 -0.3699  0.2494  0.0496
 7493DDP     P244955  22.864  16.967  21.031 -0.3779 -0.0016 -0.1451
 7493DDP     C244956  22.467  16.980  20.777 -0.2155 -0.0448 -0.0472
 7493DDP     C344957  23.773  17.552  21.519 -0.1583  0.1357  0.1826
 7493DDP     C444958  23.438  16.532  20.963  0.3177 -0.2255 -0.2817
 7494DDP     C144959   1.060   0.357   9.249 -0.2236  0.2201  0.0648
 7494DDP     P144960   0.647   0.117   9.164  0.2275  0.1869  0.0928
 7494DDP     P244961   1.110   0.790   9.077  0.4627 -0.1860 -0.0210
 7494DDP     C244962   1.119   0.942   8.731 -0.0842  0.1173 -0.0451
 7494DDP     C344963   0.805  30.199   8.803 -0.0206 -0.0295 -0.1398
 7494DDP     C444964   1.425   0.291   9.461  0.0093  0.0264  0.1779
 7495DDP     C144965  22.152   5.961  20.106  0.1730 -0.0553  0.1810
 7495DDP     P144966  22.440   6.225  20.121  0.0831  0.0514  0.0998
 7495DDP     P244967  21.880   5.908  20.416 -0.0867 -0.2552  0.0536
 7495DDP     C244968  21.975   5.897  20.876  0.1225 -0.3882 -0.3087
 7495DDP     C344969  22.927   6.332  20.166 -0.0399 -0.1006 -0.0011
 7495DDP     C444970  22.075   5.774  19.722 -0.1078 -0.5385 -0.1777
 7496DDP     C144971  10.427  17.847   8.849 -0.0320 -0.3395  0.1064
 7496DDP     P144972  10.762  18.135   8.632 -0.1474  0.0357 -0.4553
 7496DDP     P244973  10.416  17.517   8.703 -0.0314  0.4304  0.1303
 7496DDP     C244974  10.671  17.207   8.451 -0.2512 -0.1877  0.0338
 7496DDP     C344975  10.930  18.062   8.185  0.1532  0.0287 -0.0630
 7496DDP     C444976  10.067  18.003   9.041 -0.2119 -0.0846  0.0685
 7497DDP     C144977  25.195   2.230  13.869  0.0994  0.1494  0.1833
 7497DDP     P144978  25.463   2.288  14.204 -0.0955  0.0054 -0.4775
 7497DDP     P244979  24.853   2.610  13.773  0.1146  0.1080  0.1361
 7497DDP     C244980  24.492   2.596  13.447 -0.1793  0.1107 -0.2343
 7497DDP     C344981  25.726   2.603  14.383 -0.0751 -0.5107 -0.0557
 7497DDP     C444982  25.195   1.884  13.568  0.0234  0.2830  0.1464
 7498DDP     C144983  18.294  11.089   9.556 -0.2774  0.3369 -0.1646
 7498DDP     P144984  18.739  11.058   9.446 -0.0375 -0.0363 -0.1289
 7498DDP     P244985  17.926  11.356   9.429 -0.1128  0.0352  0.0796
 7498DDP     C244986  17.648  11.627   9.249  0.2393 -0.0060 -0.1101
 7498DDP     C344987  19.084  11.257   9.728 -0.0100  0.0586  0.1515
 7498DDP     C444988  18.141  10.840   9.965  0.1209  0.3129  0.3838
 7499DDP     C144989   0.929   7.616  13.841  0.0513 -0.0070 -0.0909
 7499DDP     P144990   0.980   8.009  13.765  0.0316 -0.2218  0.2124
 7499DDP     P244991   0.569   7.378  13.793  0.0105  0.2028 -0.1747
 7499DDP     C244992   0.118   7.339  13.858  0.0756  0.1301  0.0911
 7499DDP     C344993   1.043   8.381  13.835  0.0750  0.0370  0.0226
 7499DDP     C444994   1.282   7.382  14.042  0.2176  0.0146  0.0072
 7500DDP     C144995  28.204   8.292  27.974 -0.2108 -0.1314 -0.0371
 7500DDP     P144996  28.295   7.920  27.870 -0.2449  0.2030  0.0842
 7500DDP     P244997  27.828   8.413  28.246 -0.1528  0.0389  0.0436
 7500DDP     C244998  27.470   8.177  28.516  0.2485  0.0255 -0.0248
 7500DDP     C344999  28.704   7.806  27.886 -0.1241  0.1077  0.0584
 7500DDP     C445000  28.461   8.604  27.860 -0.1635 -0.0908  0.3305
 7501DDP     C145001  28.939  24.991  22.289 -0.2412  0.1566  0.1852
 7501DDP     P145002  28.883  24.555  22.450 -0.0929 -0.1264 -0.0829
 7501DDP     P245003  28.855  25.452  22.382  0.1429 -0.3535  0.2482
 7501DDP     C245004  28.533  25.834  22.501 -0.0418 -0.2399  0.2874
 7501DDP     C345005  28.591  24.181  22.321  0.0872 -0.0363  0.1609
 7501DDP     C445006  28.976  25.030  21.916 -0.0234  0.2949  0.2083
 7502DDP     C145007  18.429  14.951   0.288 -0.0076 -0.0390 -0.2620
 7502DDP     P145008  18.711  14.677   0.113  0.1397 -0.2929  0.1335
 7502DDP     P245009  18.464  15.237   0.705 -0.0973 -0.3768  0.2158
 7502DDP     C245010  18.400  15.481   0.996 -0.0361  0.1874 -0.0724
 7502DDP     C345011  19.093  14.772  30.231 -0.2974 -0.1279  0.2554
 7502DDP     C445012  17.992  14.944   0.028  0.0042  0.1952 -0.1267
 7503DDP     C145013   8.520   8.705   5.837 -0.1254 -0.2374  0.2987
 7503DDP     P145014   8.220   8.512   5.607 -0.4762  0.3675 -0.4461
 7503DDP     P245015   8.152   8.985   5.970  0.2689  0.1016  0.0699
 7503DDP     C245016   7.813   9.211   6.152  0.0703  0.3066 -0.1018
 7503DDP     C345017   8.238   8.233   5.219 -0.1183 -0.1311  0.4839
 7503DDP     C445018   8.965   8.859   5.805 -0.0099 -0.0175  0.0277
 7504DDP     C145019   2.913   2.356  18.054  0.1165  0.0817 -0.0331
 7504DDP     P145020   2.803   1.929  18.178  0.3280 -0.3630 -0.4204
 7504DDP     P245021   2.670   2.804  18.285  0.1775  0.2823  0.4150
 7504DDP     C245022   2.212   2.967  18.154  0.2163 -0.2852 -0.2106
 7504DDP     C345023   2.706   1.446  18.121  0.3100  0.0431 -0.1023
 7504DDP     C445024   3.259   2.374  17.768 -0.0064 -0.1928  0.0517
 7505DDP     C145025   3.188   2.050  14.993 -0.3156  0.0297 -0.0752
 7505DDP     P145026   3.361   2.449  14.921  0.0693 -0.0069  0.0760
 7505DDP     P245027   2.878   2.189  14.716 -0.0578 -0.3309 -0.1718
 7505DDP     C245028   2.746   2.580  14.782  0.3061  0.0213 -0.5071
 7505DDP     C345029   3.112   2.895  14.951 -0.0811  0.1351  0.0347
 7505DDP     C445030   3.311   1.673  15.196  0.0295  0.3475 -0.2271
 7506DDP     C145031  17.864  26.853   8.902 -0.1530  0.0543  0.0626
 7506DDP     P145032  17.819  26.483   9.034 -0.1105  0.0131 -0.2209
 7506DDP     P245033  18.099  26.993   8.561 -0.1284 -0.1298 -0.0088
 7506DDP     C245034  18.470  26.790   8.346  0.1934  0.1242  0.1351
 7506DDP     C345035  17.709  25.996   8.966  0.2487  0.0836 -0.2318
 7506DDP     C445036  17.784  27.311   9.018  0.0825  0.1811  0.1460
 7507DDP     C145037  19.785  22.950  22.723 -0.0143 -0.0022 -0.1704
 7507DDP     P145038  20.227  22.950  22.554 -0.0723  0.0863 -0.3192
 7507DDP     P245039  19.408  22.967  22.485 -0.2765 -0.1286  0.1352
 7507DDP     C245040  19.305  23.268  22.098  0.0979  0.0211  0.1096
 7507DDP     C345041  20.578  23.087  22.599 -0.3883 -0.1554 -0.0789
 7507DDP     C445042  19.684  23.070  23.054 -0.1393 -0.3205  0.0117
 7508DDP     C145043   0.906  26.713   2.375 -0.1853 -0.1639  0.1025
 7508DDP     P145044   0.931  26.722   1.872  0.4096 -0.1217  0.0892
 7508DDP     P245045   1.147  26.914   2.777 -0.2766 -0.0741  0.1261
 7508DDP     C245046   1.454  27.245   2.927  0.1281  0.0371 -0.1786
 7508DDP     C345047   1.313  26.723   1.653 -0.1595 -0.0436  0.0218
 7508DDP     C445048   0.447  26.596   2.447 -0.2174  0.0190 -0.3294
 7509DDP     C145049   2.944   8.326  19.097  0.2286 -0.0792  0.2035
 7509DDP     P145050   3.225   8.611  19.288 -0.1059  0.0454  0.0056
 7509DDP     P245051   2.575   8.270  19.170 -0.0380  0.0624  0.1589
 7509DDP     C245052   2.550   7.963  19.488 -0.0215  0.2533  0.0969
 7509DDP     C345053   3.243   8.786  19.775 -0.1585 -0.1546  0.0894
 7509DDP     C445054   2.979   7.814  19.069 -0.0839  0.1036  0.2376
 7510DDP     C145055   8.664  19.250  18.404  0.0475 -0.2576 -0.0301
 7510DDP     P145056   8.971  19.378  18.143  0.0270 -0.0855 -0.1124
 7510DDP     P245057   8.266  19.393  18.473  0.0405  0.2058 -0.3341
 7510DDP     C245058   8.067  19.657  18.690 -0.0381  0.0229  0.0734
 7510DDP     C345059   9.399  19.302  18.063 -0.1391 -0.4162 -0.2799
 7510DDP     C445060   9.038  19.071  18.645 -0.0849  0.1471 -0.1477
 7511DDP     C145061  13.835  16.017  11.178  0.1029 -0.0719 -0.2845
 7511DDP     P145062  13.958  15.587  11.257  0.4540 -0.1498 -0.1219
 7511DDP     P245063  13.433  16.064  10.954 -0.0893 -0.4503  0.2161
 7511DDP     C245064  13.189  16.448  10.916  0.1239  0.1941 -0.1220
 7511DDP     C345065  14.146  15.212  11.082  0.1163  0.0941 -0.0768
 7511DDP     C445066  14.014  16.390  11.202  0.1223  0.1739  0.1226
 7512DDP     C145067  16.648  26.938  11.541 -0.2730  0.0508  0.0537
 7512DDP     P145068  16.398  27.095  11.110  0.0358 -0.1614  0.1751
 7512DDP     P245069  16.879  26.548  11.436  0.0431  0.2558  0.0320
 7512DDP     C245070  17.194  26.245  11.239 -0.0990 -0.3914 -0.0823
 7512DDP     C345071  16.351  26.840  10.730  0.0681  0.0497 -0.1910
 7512DDP     C445072  16.657  27.259  11.885 -0.0498  0.0311 -0.3928
 7513DDP     C145073  13.457  25.760  22.868 -0.2323 -0.1410  0.1760
 7513DDP     P145074  13.425  25.559  22.523  0.0693  0.1503 -0.0437
 7513DDP     P245075  13.526  26.240  23.070  0.0190 -0.0396 -0.0287
 7513DDP     C245076  13.606  26.302  23.392 -0.1887 -0.0805 -0.1425
 7513DDP     C345077  13.658  25.509  22.082 -0.3458 -0.0375  0.0848
 7513DDP     C445078  13.315  25.501  23.236 -0.0097 -0.1000 -0.0813
 7514DDP     C145079  11.307   5.667   4.910 -0.3270  0.1593  0.2389
 7514DDP     P145080  11.696   5.497   5.093  0.0790 -0.3945  0.1622
 7514DDP     P245081  11.256   6.068   4.887  0.0325  0.3828 -0.2791
 7514DDP     C245082  11.095   6.376   5.167 -0.2679 -0.0145 -0.1881
 7514DDP     C345083  12.136   5.358   5.031 -0.0040  0.0050  0.0922
 7514DDP     C445084  10.974   5.517   4.690 -0.0564 -0.3116  0.2870
 7515DDP     C145085   6.700  16.212  25.687  0.2066  0.0041 -0.1199
 7515DDP     P145086   6.588  15.810  25.442  0.0241  0.1802 -0.0594
 7515DDP     P245087   6.509  16.243  26.243 -0.1946 -0.2727  0.0540
 7515DDP     C245088   6.595  16.225  26.663 -0.0753 -0.0141  0.0857
 7515DDP     C345089   6.393  15.796  25.024  0.2815 -0.0100 -0.0681
 7515DDP     C445090   6.961  16.550  25.449 -0.0729 -0.1661 -0.0506
 7516DDP     C145091  28.623  18.862  13.857  0.1374  0.3686 -0.0171
 7516DDP     P145092  28.591  19.262  13.658 -0.1167 -0.3992  0.2201
 7516DDP     P245093  28.574  18.416  13.590 -0.0762  0.0807  0.1708
 7516DDP     C245094  28.353  18.014  13.499  0.1675  0.2457  0.0807
 7516DDP     C345095  28.560  19.708  13.877  0.0015  0.0399 -0.2263
 7516DDP     C445096  28.622  18.744  14.287  0.0740  0.2172 -0.1355
 7517DDP     C145097   4.488   5.024   7.200  0.0245 -0.2788  0.1980
 7517DDP     P145098   4.155   4.678   7.342 -0.0018 -0.0227 -0.3791
 7517DDP     P245099   4.788   4.765   7.431  0.0238  0.0676 -0.0216
 7517DDP     C245100   5.105   4.409   7.581 -0.0067 -0.0248 -0.3338
 7517DDP     C345101   3.902   4.559   7.710  0.0320 -0.0026  0.1467
 7517DDP     C445102   4.456   5.474   7.345 -0.3679 -0.1774 -0.1797
 7518DDP     C145103   0.376  17.930  23.840  0.0378  0.0644  0.0359
 7518DDP     P145104   0.218  17.608  24.124  0.1604  0.0133  0.0021
 7518DDP     P245105   0.254  17.864  23.420  0.0641  0.1725  0.0377
 7518DDP     C245106   0.296  17.702  23.010 -0.2492 -0.3498 -0.1515
 7518DDP     C345107  30.294  17.191  23.978  0.4255 -0.2756  0.0986
 7518DDP     C445108   0.784  18.034  23.897 -0.0693 -0.1197  0.2306
 7519DDP     C145109  24.332   6.423  23.681  0.1918 -0.2743 -0.0083
 7519DDP     P145110  24.082   6.784  23.619  0.1499  0.1214  0.1009
 7519DDP     P245111  24.724   6.599  23.750  0.1350 -0.1537  0.1873
 7519DDP     C245112  25.062   7.011  23.656 -0.0517 -0.1732  0.0464
 7519DDP     C345113  24.052   7.194  23.361  0.2144 -0.0483  0.1504
 7519DDP     C445114  24.399   5.910  23.731  0.1174 -0.0667 -0.1145
 7520DDP     C145115  21.246  13.222   0.533 -0.0419  0.0331  0.0596
 7520DDP     P145116  21.718  13.280   0.451  0.0136 -0.0224 -0.2087
 7520DDP     P245117  20.957  13.590   0.585 -0.0559 -0.1957 -0.1222
 7520DDP     C245118  20.899  14.023   0.782 -0.2415  0.0304  0.0659
 7520DDP     C345119  21.855  13.333  -0.004 -0.0543  0.0321 -0.0160
 7520DDP     C445120  20.933  12.870   0.260 -0.1636  0.2081  0.0160
 7521DDP     C145121  24.739   1.897   1.828  0.0120  0.1128  0.2507
 7521DDP     P145122  24.663   2.324   1.919 -0.0591  0.0331 -0.0313
 7521DDP     P245123  24.721   1.637   2.242 -0.3644  0.1158 -0.0119
 7521DDP     C245124  24.778   1.367   2.577  0.0205  0.0745  0.3614
 7521DDP     C345125  24.826   2.612   2.192 -0.0105  0.0862 -0.2686
 7521DDP     C445126  24.899   1.703   1.498 -0.0995 -0.1546  0.4244
 7522DDP     C145127  24.490  22.681  23.882  0.3171 -0.0398 -0.1646
 7522DDP     P145128  24.146  22.534  23.657  0.0436  0.1814 -0.0380
 7522DDP     P245129  24.667  23.093  23.737  0.1265 -0.2444 -0.0583
 7522DDP     C245130  25.174  23.148  23.871  0.0415 -0.0663  0.0814
 7522DDP     C345131  23.804  22.240  23.621  0.1076 -0.1451  0.3536
 7522DDP     C445132  24.630  22.472  24.270 -0.0553  0.0735 -0.0995
 7523DDP     C145133  22.642  29.522  22.322  0.3967  0.1625  0.2340
 7523DDP     P145134  22.767  29.801  22.542 -0.3236 -0.2513  0.0062
 7523DDP     P245135  22.296  29.385  22.530  0.0652  0.1407 -0.1895
 7523DDP     C245136  21.935  29.264  22.713 -0.0190  0.0414  0.0429
 7523DDP     C345137  22.837  30.198  22.754 -0.0104  0.1106  0.0038
 7523DDP     C445138  22.623  29.411  21.842 -0.1988 -0.0046 -0.0063
 7524DDP     C145139  23.190   8.224  19.717  0.1013 -0.1305 -0.2013
 7524DDP     P145140  22.857   8.500  19.356 -0.4447  0.1392 -0.0354
 7524DDP     P245141  23.398   7.868  19.547  0.0121 -0.1538 -0.0918
 7524DDP     C245142  23.503   7.521  19.429 -0.3088 -0.0440  0.2318
 7524DDP     C345143  22.690   8.783  19.605  0.0363 -0.0984  0.1947
 7524DDP     C445144  23.236   8.259  20.084  0.0386 -0.0020 -0.3516
 7525DDP     C145145   0.885  10.368  14.125  0.1194 -0.1632  0.2930
 7525DDP     P145146   1.314  10.335  14.088 -0.1553  0.0083 -0.0125
 7525DDP     P245147   0.673  10.428  13.707 -0.3557  0.1480  0.0315
 7525DDP     C245148   0.434  10.416  13.313 -0.0456  0.0904 -0.2943
 7525DDP     C345149   1.627  10.280  13.814 -0.0653  0.0433  0.0531
 7525DDP     C445150   0.789  10.521  14.544 -0.5327  0.3098 -0.1448
 7526DDP     C145151  13.591  22.282  29.767 -0.1832 -0.1207 -0.2673
 7526DDP     P145152  13.621  22.420  29.375 -0.0572  0.0484 -0.2272
 7526DDP     P245153  13.963  21.902  29.776 -0.1014  0.0720  0.0743
 7526DDP     C245154  14.218  21.697  30.097 -0.2467 -0.3022 -0.0508
 7526DDP     C345155  13.674  22.811  29.064 -0.0318  0.2105 -0.0123
 7526DDP     C445156  13.574  22.505  30.146 -0.1526  0.0116  0.0997
 7527DDP     C145157   1.886   1.974  26.672 -0.1617 -0.0438 -0.0814
 7527DDP     P145158   1.986   2.143  26.346  0.3309 -0.2160  0.1239
 7527DDP     P245159   1.588   2.096  26.983  0.0387  0.1036  0.1464
 7527DDP     C245160   1.586   2.046  27.241 -0.0367  0.0512 -0.3756
 7527DDP     C345161   2.314   2.404  26.280  0.1420  0.1901 -0.0895
 7527DDP     C445162   2.129   1.518  26.737 -0.2165 -0.1535 -0.1580
 7528DDP     C145163   6.974  29.499  22.606 -0.0209  0.0633 -0.2414
 7528DDP     P145164   7.033  29.280  23.058  0.1334  0.1079 -0.4216
 7528DDP     P245165   7.192  29.469  22.272 -0.2340 -0.0322 -0.1147
 7528DDP     C245166   7.214  29.164  21.976 -0.2050  0.0402  0.2625
 7528DDP     C345167   7.376  29.119  23.246 -0.0131  0.0554 -0.2074
 7528DDP     C445168   6.570  29.440  22.469 -0.1683 -0.3499 -0.0810
 7529DDP     C145169  13.178   6.107  14.010 -0.0565  0.2016 -0.1551
 7529DDP     P145170  13.138   6.466  13.768 -0.2772  0.3133  0.2014
 7529DDP     P245171  13.355   5.936  13.685 -0.1783 -0.4583  0.1893
 7529DDP     C245172  13.875   5.983  13.612  0.1008 -0.0069  0.0161
 7529DDP     C345173  13.394   6.589  13.444 -0.2429 -0.1275  0.1038
 7529DDP     C445174  13.129   5.868  14.424  0.0454  0.0176 -0.2016
 7530DDP     C145175  23.832  28.691  10.481 -0.1537  0.0888  0.1195
 7530DDP     P145176  24.227  28.690  10.532  0.2094  0.0560  0.2081
 7530DDP     P245177  23.501  28.633  10.781  0.3003 -0.0480 -0.0615
 7530DDP     C245178  23.173  28.527  11.180 -0.5704  0.2234 -0.2293
 7530DDP     C345179  24.634  28.618  10.253 -0.2523 -0.3420 -0.2138
 7530DDP     C445180  23.648  28.879  10.108 -0.0051 -0.1932  0.1078
 7531DDP     C145181   0.306   6.191   3.994 -0.1450 -0.0333 -0.0859
 7531DDP     P145182  30.287   6.070   3.640 -0.1022  0.0851 -0.2213
 7531DDP     P245183   0.504   5.975   3.657 -0.0211 -0.2060 -0.0275
 7531DDP     C245184   0.748   5.953   3.309 -0.2486  0.0125 -0.1961
 7531DDP     C345185  29.888   6.062   3.339  0.1714 -0.1797 -0.2403
 7531DDP     C445186   0.229   6.131   4.401  0.4082 -0.1470  0.2085
 7532DDP     C145187   2.724  17.430  20.772 -0.0481  0.0429 -0.3661
 7532DDP     P145188   2.694  17.722  20.564 -0.1353 -0.3939  0.3288
 7532DDP     P245189   2.630  17.019  20.521  0.3088  0.2182  0.1912
 7532DDP     C245190   2.294  16.870  20.297  0.1803 -0.2005  0.0453
 7532DDP     C345191   2.652  17.768  20.077 -0.3347 -0.0802  0.5043
 7532DDP     C445192   2.975  17.347  21.129  0.0082  0.3340  0.3186
 7533DDP     C145193   5.961   9.165  15.238  0.2798  0.1596  0.3456
 7533DDP     P145194   5.919   9.657  15.346 -0.0340  0.0639 -0.0413
 7533DDP     P245195   5.730   8.886  14.990 -0.1548 -0.4184 -0.1790
 7533DDP     C245196   5.323   8.636  14.946  0.0652 -0.3150 -0.1287
 7533DDP     C345197   5.997   9.911  15.598 -0.0100 -0.1456 -0.1469
 7533DDP     C445198   6.371   9.010  15.271  0.1945  0.1504 -0.0107
 7534DDP     C145199  20.458  30.021  16.201  0.0024 -0.0988  0.1373
 7534DDP     P145200  20.467  29.531  16.254  0.0795 -0.0098 -0.1005
 7534DDP     P245201  20.617  30.211  15.694  0.2232  0.0537 -0.0454
 7534DDP     C245202  20.881  30.121  15.316 -0.3071 -0.2794 -0.0707
 7534DDP     C345203  20.241  29.121  16.061 -0.2959 -0.0102 -0.1101
 7534DDP     C445204  20.631  30.265  16.579 -0.1846 -0.0475  0.1706
 7535DDP     C145205  29.934   1.444  21.929 -0.3830 -0.1137 -0.0353
 7535DDP     P145206  29.526   1.352  21.782  0.1203 -0.3545  0.0912
 7535DDP     P245207  30.194   1.256  21.646 -0.0621 -0.0451 -0.4266
 7535DDP     C245208   0.258   1.036  21.419 -0.1380 -0.1313 -0.1901
 7535DDP     C345209  29.169   1.165  21.607  0.1679 -0.4071 -0.0535
 7535DDP     C445210  29.911   1.639  22.291  0.1271 -0.1527  0.0947
 7536DDP     C145211  26.781   9.359  13.635  0.2040  0.0281 -0.3327
 7536DDP     P145212  27.052   9.102  13.885  0.1260  0.1692  0.0418
 7536DDP     P245213  26.932   9.494  13.236 -0.2058  0.1136 -0.1983
 7536DDP     C245214  26.996   9.327  12.900  0.0073  0.3136  0.2502
 7536DDP     C345215  27.388   8.884  14.140  0.1499  0.0394  0.0552
 7536DDP     C445216  26.363   9.192  13.764  0.0409 -0.0832  0.1834
 7537DDP     C145217   4.809  15.410  13.740  0.0426 -0.0148 -0.0315
 7537DDP     P145218   4.477  15.385  13.550 -0.3358 -0.3655 -0.2284
 7537DDP     P245219   5.037  15.778  14.017  0.0259 -0.2452  0.2236
 7537DDP     C245220   5.066  16.229  14.313 -0.1223  0.2397  0.1353
 7537DDP     C345221   4.277  15.026  13.282 -0.3028  0.0925 -0.0039
 7537DDP     C445222   4.982  15.031  13.880 -0.0903 -0.0438 -0.2443
 7538DDP     C145223   6.575  15.896  12.325 -0.0587  0.4143 -0.0776
 7538DDP     P145224   6.716  15.592  12.328  0.1395  0.1351 -0.2989
 7538DDP     P245225   6.673  16.002  11.913  0.0223 -0.0772 -0.1178
 7538DDP     C245226   6.985  15.824  11.687 -0.2444  0.0807 -0.2619
 7538DDP     C345227   6.866  15.465  11.980 -0.1848  0.0676  0.0193
 7538DDP     C445228   6.340  16.202  12.643 -0.0969 -0.3558 -0.2229
 7539DDP     C145229   6.491   0.635  15.552 -0.2813 -0.1689 -0.0739
 7539DDP     P145230   6.696   0.795  15.169 -0.0880  0.0246 -0.0958
 7539DDP     P245231   6.839   0.585  15.715  0.2100 -0.1234 -0.0360
 7539DDP     C245232   7.125   0.398  16.047 -0.2619  0.1930  0.1254
 7539DDP     C345233   6.546   0.888  14.698  0.1199  0.0192 -0.1215
 7539DDP     C445234   6.164   0.865  15.774  0.2238  0.1535  0.4030
 7540DDP     C145235  19.098  26.630   1.995 -0.1440 -0.1525  0.2560
 7540DDP     P145236  19.043  26.131   1.897  0.1439  0.2673 -0.2602
 7540DDP     P245237  19.427  26.862   2.082  0.3590  0.1597  0.1768
 7540DDP     C245238  19.475  27.237   2.197 -0.2358  0.3347  0.1511
 7540DDP     C345239  18.788  25.816   1.581 -0.3337  0.0764  0.1159
 7540DDP     C445240  18.725  26.730   2.191  0.1146  0.2067  0.1892
 7541DDP     C145241   4.470   0.786  23.728  0.0437  0.3471 -0.0321
 7541DDP     P145242   4.643   1.054  23.570  0.0793 -0.0697 -0.0729
 7541DDP     P245243   4.688   0.812  24.160 -0.1526  0.2064  0.0087
 7541DDP     C245244   4.957   0.987  24.342 -0.2884 -0.1039  0.0591
 7541DDP     C345245   4.702   1.254  23.293  0.0013 -0.1630 -0.2769
 7541DDP     C445246   4.147   0.525  23.627  0.2117 -0.1688 -0.4771
 7542DDP     C145247   5.720  22.757   9.177 -0.0567  0.1147  0.4356
 7542DDP     P145248   6.072  22.701   8.984 -0.0569 -0.2865 -0.3034
 7542DDP     P245249   5.615  22.495   9.427  0.1624  0.3130 -0.0923
 7542DDP     C245250   5.559  22.108   9.724 -0.1547 -0.3002 -0.1386
 7542DDP     C345251   6.449  22.834   8.951  0.1956 -0.0935  0.3414
 7542DDP     C445252   5.400  23.033   8.971 -0.0960  0.1081 -0.0865
 7543DDP     C145253  22.288  13.400  10.751 -0.1678  0.1007 -0.4740
 7543DDP     P145254  22.730  13.405  10.975  0.0339 -0.1550  0.2384
 7543DDP     P245255  22.319  13.056  10.409  0.0766  0.2334 -0.2178
 7543DDP     C245256  22.583  13.140  10.107  0.0682  0.1076 -0.0975
 7543DDP     C345257  23.012  13.794  11.147  0.0192 -0.1907 -0.0046
 7543DDP     C445258  21.940  13.692  10.814 -0.1735  0.0508  0.0296
 7544DDP     C145259   1.521   7.261  13.072 -0.0105  0.2225  0.0596
 7544DDP     P145260   1.423   7.264  12.637 -0.0815 -0.1247 -0.0416
 7544DDP     P245261   1.973   7.332  13.240  0.1254 -0.0924 -0.1462
 7544DDP     C245262   2.439   7.375  13.316 -0.0249 -0.2141  0.0475
 7544DDP     C345263   1.466   7.483  12.155  0.2391  0.1358 -0.4226
 7544DDP     C445264   1.304   7.434  13.504  0.0667  0.0434  0.1724
 7545DDP     C145265  23.484  15.452  27.924 -0.1902 -0.2366  0.1016
 7545DDP     P145266  23.570  15.621  28.376 -0.2444 -0.1450 -0.0473
 7545DDP     P245267  23.046  15.440  27.914  0.0364  0.1749  0.3719
 7545DDP     C245268  22.738  15.615  27.735 -0.0946 -0.1603  0.0340
 7545DDP     C345269  24.070  15.729  28.459  0.1611 -0.0721 -0.1133
 7545DDP     C445270  23.766  15.375  27.546 -0.0410  0.0801 -0.0767
 7546DDP     C145271  19.739   6.745  19.594 -0.0843  0.0780  0.0654
 7546DDP     P145272  19.576   7.079  19.526  0.0853  0.4128 -0.1961
 7546DDP     P245273  19.473   6.657  19.935  0.0370  0.2051  0.3341
 7546DDP     C245274  19.273   6.372  20.151  0.0085 -0.0439  0.2832
 7546DDP     C345275  19.531   7.419  19.740  0.0454  0.0047  0.1906
 7546DDP     C445276  19.928   6.581  19.190  0.1992 -0.2454 -0.3847
 7547DDP     C145277  17.566   7.867  28.039 -0.0363  0.1520 -0.1279
 7547DDP     P145278  17.277   8.250  27.921  0.2717 -0.0973 -0.1904
 7547DDP     P245279  17.495   7.577  27.749 -0.0600  0.4137 -0.1685
 7547DDP     C245280  17.849   7.571  27.453  0.0115 -0.3531  0.0947
 7547DDP     C345281  16.896   8.628  27.902 -0.1776 -0.1628 -0.1549
 7547DDP     C445282  17.843   7.859  28.395 -0.0225  0.3345 -0.0739
 7548DDP     C145283   8.469   6.775   0.111 -0.0784 -0.2089 -0.2212
 7548DDP     P145284   8.175   6.950  30.186 -0.4021 -0.2395  0.2410
 7548DDP     P245285   8.705   7.126   0.121 -0.3904 -0.0348 -0.1758
 7548DDP     C245286   9.130   7.473   0.225 -0.0795  0.0316  0.0570
 7548DDP     C345287   8.143   7.155  29.739  0.1401 -0.2871 -0.2149
 7548DDP     C445288   8.309   6.606   0.439 -0.1806 -0.0703  0.1007
 7549DDP     C145289  13.323  13.743  12.693 -0.0651  0.2512 -0.1775
 7549DDP     P145290  13.443  13.997  12.377 -0.2077  0.0039  0.1040
 7549DDP     P245291  12.911  13.710  12.771  0.3328  0.0635 -0.0002
 7549DDP     C245292  12.397  13.961  12.729 -0.0876  0.0319 -0.1086
 7549DDP     C345293  13.334  14.409  12.208  0.2338 -0.1036 -0.2499
 7549DDP     C445294  13.621  13.452  12.813  0.1689  0.1016 -0.2039
 7550DDP     C145295  29.125   6.988   9.269  0.1002  0.0066  0.1360
 7550DDP     P145296  29.294   6.709   9.590  0.1276 -0.3166 -0.1663
 7550DDP     P245297  29.159   7.436   9.402 -0.0479  0.0211 -0.0507
 7550DDP     C245298  29.379   7.729   9.681  0.2146  0.0154 -0.0350
 7550DDP     C345299  29.181   6.506  10.006 -0.1361 -0.1186  0.1377
 7550DDP     C445300  29.085   6.880   8.840 -0.2340 -0.1004 -0.1831
 7551DDP     C145301  24.882   2.161  10.265 -0.0078  0.0918  0.1157
 7551DDP     P145302  25.106   2.330  10.707  0.2362  0.0147  0.3528
 7551DDP     P245303  25.144   1.944   9.973  0.1746  0.1459 -0.0042
 7551DDP     C245304  25.299   2.169   9.634 -0.2420  0.1620  0.1058
 7551DDP     C345305  24.874   2.401  11.075 -0.1492  0.1354 -0.4819
 7551DDP     C445306  24.478   2.000  10.261 -0.0960  0.1846  0.1877
 7552DDP     C145307   5.195   8.153  14.287  0.0260  0.1513  0.0447
 7552DDP     P145308   5.363   7.782  14.605 -0.1450 -0.0336  0.2713
 7552DDP     P245309   5.466   8.297  14.036  0.1565 -0.0427 -0.0068
 7552DDP     C245310   5.838   8.442  14.011 -0.1408  0.0926 -0.1371
 7552DDP     C345311   5.334   7.404  14.824 -0.0448  0.3162 -0.1759
 7552DDP     C445312   4.778   8.351  14.355 -0.4778 -0.0789  0.1573
 7553DDP     C145313  21.898  25.266   8.270 -0.2214  0.3294  0.0454
 7553DDP     P145314  21.551  25.137   8.096  0.0349 -0.0559  0.2553
 7553DDP     P245315  22.046  25.575   8.659  0.0136 -0.1307 -0.2019
 7553DDP     C245316  21.889  25.662   9.153 -0.2374  0.2012  0.0800
 7553DDP     C345317  21.110  25.092   8.165 -0.2874  0.2585 -0.4808
 7553DDP     C445318  22.310  25.164   8.006 -0.1867 -0.0204 -0.0299
 7554DDP     C145319   4.880   0.317  13.736 -0.1107  0.0480 -0.0352
 7554DDP     P145320   5.276   0.399  13.544  0.0032 -0.4470  0.0100
 7554DDP     P245321   4.594   0.084  13.550  0.0490 -0.0979  0.0432
 7554DDP     C245322   4.358  29.994  13.559 -0.0522  0.1617 -0.0081
 7554DDP     C345323   5.447   0.263  13.120  0.0593 -0.1177  0.0249
 7554DDP     C445324   4.568   0.626  13.911  0.0882  0.1951 -0.0191
 7555DDP     C145325  24.456  23.267   3.877 -0.0817  0.1749  0.0822
 7555DDP     P145326  24.432  23.561   3.667  0.1635  0.1376  0.0882
 7555DDP     P245327  24.784  22.924   3.837 -0.0598  0.1477 -0.0667
 7555DDP     C245328  25.045  22.612   4.061 -0.3007 -0.2848  0.1241
 7555DDP     C345329  24.502  23.904   3.564 -0.1360  0.1206  0.0601
 7555DDP     C445330  23.982  23.322   4.078 -0.0676  0.0006 -0.0405
 7556DDP     C145331  23.635  13.124  17.195 -0.3875 -0.1737  0.0647
 7556DDP     P145332  23.570  12.710  17.046 -0.0728 -0.0556 -0.1363
 7556DDP     P245333  24.011  13.327  17.031 -0.2157 -0.2433  0.1530
 7556DDP     C245334  24.079  13.778  16.817 -0.1109 -0.1598 -0.2423
 7556DDP     C345335  23.732  12.239  16.966 -0.2309  0.1835  0.2096
 7556DDP     C445336  23.412  13.354  17.470  0.0059 -0.2248 -0.0633
 7557DDP     C145337   6.804  16.690  19.828 -0.3667  0.4315  0.2950
 7557DDP     P145338   6.795  16.548  20.301  0.1901  0.2004  0.1529
 7557DDP     P245339   6.992  16.604  19.387 -0.1646 -0.0008 -0.0414
 7557DDP     C245340   7.142  16.340  18.885  0.1382 -0.2408 -0.1952
 7557DDP     C345341   6.743  16.181  20.652 -0.1229 -0.2551  0.2251
 7557DDP     C445342   6.482  16.660  19.653  0.1045 -0.1145 -0.0413
 7558DDP     C145343   7.731  22.910  21.288 -0.0253 -0.1276  0.4575
 7558DDP     P145344   7.749  22.652  21.640  0.0228  0.1366 -0.2579
 7558DDP     P245345   7.921  22.824  20.843  0.1353  0.2054 -0.1190
 7558DDP     C245346   8.254  22.990  20.627 -0.2321  0.0698  0.3815
 7558DDP     C345347   8.054  22.587  21.946  0.0176 -0.2211  0.0189
 7558DDP     C445348   7.690  23.293  21.181  0.0936 -0.2316 -0.1168
 7559DDP     C145349   0.947  20.243   7.140 -0.6575  0.2511 -0.0418
 7559DDP     P145350   1.219  20.352   6.720  0.0649  0.0606 -0.0678
 7559DDP     P245351   0.646  19.855   7.074  0.4815  0.0402  0.0442
 7559DDP     C245352   0.200  19.833   6.956  0.1270  0.0269 -0.0768
 7559DDP     C345353   1.418  20.595   6.412  0.0756 -0.1191  0.4367
 7559DDP     C445354   0.834  20.355   7.512 -0.5342  0.0919  0.0020
 7560DDP     C145355  26.755  11.606   7.816 -0.3812  0.1103  0.1094
 7560DDP     P145356  26.561  11.990   7.610  0.0861 -0.2054  0.1249
 7560DDP     P245357  26.547  11.215   7.835  0.1286  0.0566  0.1058
 7560DDP     C245358  26.193  10.924   8.057  0.4062  0.0279  0.0657
 7560DDP     C345359  26.115  11.909   7.483  0.0535 -0.0562 -0.3942
 7560DDP     C445360  27.170  11.538   7.880  0.0874  0.2702 -0.1781
 7561DDP     C145361  26.847  11.537  20.468  0.0213 -0.3573  0.1833
 7561DDP     P145362  27.192  11.469  20.228 -0.0648  0.0314 -0.0411
 7561DDP     P245363  26.600  11.293  20.376  0.0838  0.3196 -0.2107
 7561DDP     C245364  26.280  11.320  20.104 -0.0265  0.0942 -0.2117
 7561DDP     C345365  27.373  11.191  19.929 -0.1755 -0.1229 -0.0077
 7561DDP     C445366  26.904  11.971  20.727 -0.2802  0.1050 -0.0747
 7562DDP     C145367  29.232  14.382   2.032  0.3096 -0.2632  0.1195
 7562DDP     P145368  29.372  14.381   1.543 -0.1872  0.2488  0.0184
 7562DDP     P245369  29.450  14.770   2.074  0.3570 -0.0336  0.2909
 7562DDP     C245370  29.779  15.139   1.977 -0.1875 -0.2130 -0.2872
 7562DDP     C345371  29.493  14.523   1.207  0.1902 -0.1229 -0.1552
 7562DDP     C445372  28.891  14.197   2.108  0.0983  0.1258  0.0593
 7563DDP     C145373  17.770   5.195  12.609  0.0960 -0.1259 -0.0854
 7563DDP     P145374  17.839   5.616  12.922  0.2406 -0.0625  0.0877
 7563DDP     P245375  17.976   4.987  12.351  0.1389  0.1832 -0.1554
 7563DDP     C245376  17.847   5.060  11.899  0.1244 -0.1202  0.0177
 7563DDP     C345377  17.869   6.010  12.723  0.0465 -0.1577 -0.1348
 7563DDP     C445378  17.467   4.884  12.573 -0.0746 -0.2724  0.1218
 7564DDP     C145379  28.423  13.474  29.010 -0.0645 -0.0027 -0.3087
 7564DDP     P145380  28.406  13.534  29.533  0.0993  0.1120  0.2304
 7564DDP     P245381  28.163  13.402  28.609  0.0670  0.0948 -0.0154
 7564DDP     C245382  28.001  13.342  28.159 -0.1161  0.0346 -0.1213
 7564DDP     C345383  28.159  13.416  29.811 -0.1327 -0.1817  0.0013
 7564DDP     C445384  28.898  13.490  28.939 -0.1071  0.0180  0.1602
 7565DDP     C145385  28.433   9.057  21.483  0.1816  0.0442 -0.0956
 7565DDP     P145386  28.357   9.412  21.840  0.1422 -0.1318  0.3652
 7565DDP     P245387  28.751   8.738  21.408 -0.1772 -0.0072  0.4342
 7565DDP     C245388  29.166   8.548  21.493 -0.0496  0.0798  0.0874
 7565DDP     C345389  28.448   9.744  22.116 -0.2575  0.0050  0.2895
 7565DDP     C445390  28.111   9.144  21.142 -0.2232  0.1471 -0.3085
 7566DDP     C145391  27.341  29.847  19.836 -0.1286  0.0248 -0.0915
 7566DDP     P145392  26.935  30.022  19.818  0.2474 -0.0022  0.0515
 7566DDP     P245393  27.465  29.592  19.539  0.0201  0.0884 -0.0944
 7566DDP     C245394  27.684  29.390  19.255 -0.0064  0.0434  0.1202
 7566DDP     C345395  26.617  30.064  19.745  0.4618 -0.0719 -0.2463
 7566DDP     C445396  27.593  29.883  20.212 -0.0955 -0.1662  0.1391
 7567DDP     C145397  25.501   8.135   0.873  0.1930 -0.2111 -0.1025
 7567DDP     P145398  25.096   8.421   1.017 -0.3263 -0.1496  0.1715
 7567DDP     P245399  25.798   8.441   0.973 -0.2053 -0.4382 -0.0907
 7567DDP     C245400  26.347   8.502   1.090  0.0963  0.0258 -0.0659
 7567DDP     C345401  25.092   8.813   1.122  0.1982 -0.0470 -0.1378
 7567DDP     C445402  25.736   7.711   0.706 -0.2763  0.0217 -0.2792
 7568DDP     C145403  27.843   3.613  17.162  0.0076  0.1675  0.1179
 7568DDP     P145404  27.912   3.526  17.676 -0.1117 -0.0186  0.0127
 7568DDP     P245405  27.642   3.368  16.847  0.4734  0.1241 -0.1623
 7568DDP     C245406  27.719   2.973  16.694 -0.0182 -0.2668  0.1652
 7568DDP     C345407  27.875   3.348  18.084  0.3063  0.0415  0.1136
 7568DDP     C445408  28.173   3.918  16.965 -0.1183 -0.0592 -0.0748
 7569DDP     C145409   7.809   6.494   6.131  0.0614 -0.0687  0.0099
 7569DDP     P145410   7.848   6.141   5.971 -0.0085  0.1217 -0.1546
 7569DDP     P245411   8.110   6.603   6.427  0.1205  0.0483  0.1202
 7569DDP     C245412   8.001   6.731   6.778  0.0086 -0.1370 -0.0727
 7569DDP     C345413   8.030   5.714   5.952  0.2327  0.1780 -0.3028
 7569DDP     C445414   7.600   6.838   5.925  0.1108 -0.1354 -0.0303
 7570DDP     C145415   7.613   3.478  24.532  0.3605  0.4807 -0.2145
 7570DDP     P145416   7.356   3.180  24.635  0.1144 -0.1255  0.1659
 7570DDP     P245417   7.938   3.240  24.635  0.0314  0.0595 -0.1120
 7570DDP     C245418   8.213   2.916  24.458  0.2012 -0.2708 -0.1086
 7570DDP     C345419   6.899   3.049  24.405 -0.0665  0.2052  0.4012
 7570DDP     C445420   7.455   3.885  24.252 -0.2284 -0.1645  0.0302
 7571DDP     C145421  24.197  26.595  24.377  0.1603  0.0525 -0.1965
 7571DDP     P145422  24.401  26.831  24.160  0.0604 -0.0199  0.3183
 7571DDP     P245423  24.116  26.712  24.766 -0.0447  0.0636 -0.1667
 7571DDP     C245424  23.799  26.640  25.029 -0.0592 -0.3705 -0.3093
 7571DDP     C345425  24.528  27.176  23.875 -0.5237 -0.2751 -0.0139
 7571DDP     C445426  24.090  26.171  24.262  0.1471 -0.1111 -0.0914
 7572DDP     C145427   7.012  18.003  29.523 -0.4255  0.1425  0.1718
 7572DDP     P145428   7.145  17.766  29.156 -0.0796  0.1992  0.1493
 7572DDP     P245429   6.872  18.335  29.398 -0.0716 -0.1608 -0.2421
 7572DDP     C245430   6.853  18.782  29.414 -0.1485 -0.1585  0.0704
 7572DDP     C345431   6.808  17.543  28.795 -0.0398 -0.0096  0.1232
 7572DDP     C445432   7.196  17.988  29.775 -0.1606 -0.1277 -0.0845
 7573DDP     C145433   5.749  11.434  30.023  0.3623  0.1371 -0.1015
 7573DDP     P145434   5.871  11.392  29.613  0.3473 -0.2245  0.0438
 7573DDP     P245435   5.972  11.582   0.010  0.0934  0.1219 -0.0120
 7573DDP     C245436   5.875  11.576   0.476  0.0828  0.1178 -0.1000
 7573DDP     C345437   6.076  11.103  29.357  0.2083  0.1502 -0.0951
 7573DDP     C445438   5.423  11.212  30.156  0.0250 -0.0303  0.0449
 7574DDP     C145439  12.553  19.468  27.354 -0.1771  0.0326  0.1981
 7574DDP     P145440  12.861  19.741  27.211  0.0661 -0.0185 -0.1140
 7574DDP     P245441  12.724  19.074  27.504 -0.0558 -0.0041  0.0084
 7574DDP     C245442  12.578  18.724  27.777 -0.1299 -0.0337 -0.0616
 7574DDP     C345443  12.953  20.161  27.128  0.0351  0.0318  0.2514
 7574DDP     C445444  12.061  19.594  27.373 -0.0160  0.1015  0.0201
 7575DDP     C145445  11.152   9.359  21.348 -0.1326  0.1874  0.0036
 7575DDP     P145446  10.775   9.438  21.265 -0.0816 -0.0919  0.1977
 7575DDP     P245447  11.169   8.914  21.500  0.0653 -0.0447  0.4651
 7575DDP     C245448  11.092   8.376  21.463 -0.0728 -0.0498 -0.2360
 7575DDP     C345449  10.402   9.731  21.129  0.1190 -0.0453 -0.0185
 7575DDP     C445450  11.424   9.558  21.200 -0.1927  0.0120  0.1753
 7576DDP     C145451  18.795  11.186   4.240  0.3698  0.0096  0.0721
 7576DDP     P145452  18.894  11.608   4.246  0.2566  0.0638  0.0168
 7576DDP     P245453  18.833  11.096   4.660  0.2864 -0.0873 -0.0878
 7576DDP     C245454  18.518  10.858   4.909 -0.2038 -0.0550  0.2260
 7576DDP     C345455  19.083  11.843   4.599  0.0775  0.2423 -0.0665
 7576DDP     C445456  18.552  10.846   3.993  0.3087 -0.1313  0.0061
 7577DDP     C145457  29.798  14.908  23.347 -0.0227 -0.0338  0.1970
 7577DDP     P145458  30.148  15.161  23.502  0.2585  0.3652  0.1164
 7577DDP     P245459  29.322  15.017  23.398 -0.0373  0.0979  0.0032
 7577DDP     C245460  28.952  15.319  23.501  0.0848 -0.0118 -0.2086
 7577DDP     C345461   0.200  15.330  23.632  0.0572 -0.1341  0.1736
 7577DDP     C445462  29.830  14.516  23.023 -0.1332  0.0175  0.0090
 7578DDP     C145463   7.949  27.387  16.597 -0.0753  0.0706  0.0867
 7578DDP     P145464   8.046  27.486  17.019 -0.3139  0.1516  0.0757
 7578DDP     P245465   7.647  27.105  16.669  0.0442 -0.0143  0.1597
 7578DDP     C245466   7.318  26.846  16.791  0.1108 -0.1434 -0.0264
 7578DDP     C345467   8.012  28.023  17.054  0.1969  0.0250  0.1439
 7578DDP     C445468   8.112  27.600  16.238 -0.2334  0.1342 -0.1362
 7579DDP     C145469  15.667  13.298  11.255 -0.0527 -0.4620 -0.0091
 7579DDP     P145470  15.194  13.252  11.269  0.0516  0.0168 -0.3121
 7579DDP     P245471  15.946  12.972  11.177  0.0484 -0.0570  0.0563
 7579DDP     C245472  16.117  12.645  10.945 -0.1667 -0.1898 -0.2612
 7579DDP     C345473  14.730  13.086  11.249 -0.1776 -0.1408  0.2175
 7579DDP     C445474  15.851  13.632  11.656  0.3432  0.0108 -0.2611
 7580DDP     C145475  16.293   3.151  13.184 -0.0543  0.2070  0.0634
 7580DDP     P145476  16.520   3.027  12.773  0.0714 -0.1255 -0.0646
 7580DDP     P245477  16.550   3.040  13.536 -0.2623 -0.0310  0.0064
 7580DDP     C245478  16.731   2.625  13.497 -0.0226 -0.5501 -0.1985
 7580DDP     C345479  16.758   3.135  12.334 -0.0357 -0.3064  0.4273
 7580DDP     C445480  15.910   3.174  13.143 -0.1518  0.3480 -0.0991
 7581DDP     C145481  22.531   9.007  18.909 -0.0546 -0.0272  0.1848
 7581DDP     P145482  22.848   9.340  18.736 -0.1059  0.0999  0.0586
 7581DDP     P245483  22.444   8.673  19.144 -0.1719  0.0757 -0.0306
 7581DDP     C245484  22.198   8.439  19.541 -0.3559 -0.0733 -0.2198
 7581DDP     C345485  23.272   9.342  18.773 -0.0367  0.0061  0.0058
 7581DDP     C445486  22.186   8.977  18.603 -0.0842  0.1869  0.0703
 7582DDP     C145487   2.497   0.795  28.998  0.2383  0.2708  0.0200
 7582DDP     P145488   2.095   0.547  28.886 -0.0457  0.1065  0.0817
 7582DDP     P245489   2.916   0.524  29.011  0.2563 -0.0557  0.2643
 7582DDP     C245490   3.023   0.094  28.958  0.0357  0.1022  0.1764
 7582DDP     C345491   1.685   0.299  28.921 -0.0331 -0.0896  0.0866
 7582DDP     C445492   2.436   1.084  29.220 -0.2474  0.1590 -0.1378
 7583DDP     C145493   8.506   5.778  21.371 -0.1379  0.0593  0.1071
 7583DDP     P145494   8.192   5.896  21.020 -0.0304 -0.2161 -0.0646
 7583DDP     P245495   8.449   5.893  21.740 -0.2905  0.1253  0.1714
 7583DDP     C245496   8.692   5.928  22.063  0.0730 -0.2211 -0.2854
 7583DDP     C345497   7.707   5.757  20.998 -0.2239 -0.5584  0.0286
 7583DDP     C445498   8.925   5.446  21.239  0.1319  0.0110 -0.2116
 7584DDP     C145499  13.478  25.659  10.190  0.0143  0.0297 -0.1677
 7584DDP     P145500  13.172  25.810   9.943  0.1224  0.0401 -0.0757
 7584DDP     P245501  13.897  25.383  10.148  0.0335 -0.1481 -0.1685
 7584DDP     C245502  14.098  25.173  10.390 -0.1242  0.0135  0.1878
 7584DDP     C345503  12.835  25.812   9.621  0.1992 -0.0681 -0.0012
 7584DDP     C445504  13.559  25.902  10.484 -0.0229 -0.2604 -0.4461
 7585DDP     C145505  27.596  21.951  26.140  0.0571  0.3334 -0.1002
 7585DDP     P145506  27.535  21.755  25.705 -0.2827 -0.1389  0.0994
 7585DDP     P245507  27.427  21.993  26.643  0.0748 -0.3194 -0.2182
 7585DDP     C245508  27.167  22.111  26.944 -0.0787 -0.2480 -0.2090
 7585DDP     C345509  27.170  21.853  25.555 -0.2017  0.0196  0.2744
 7585DDP     C445510  28.022  21.923  26.070  0.0750  0.1267 -0.0783
 7586DDP     C145511   3.054  27.997   8.064 -0.2562  0.0153  0.1279
 7586DDP     P145512   3.223  28.328   7.815 -0.1311  0.1704  0.0430
 7586DDP     P245513   2.891  28.227   8.334 -0.2442  0.1139 -0.0724
 7586DDP     C245514   2.585  28.337   8.730  0.4259 -0.0862 -0.0137
 7586DDP     C345515   3.320  27.989   7.559 -0.2706  0.0084  0.2839
 7586DDP     C445516   3.030  27.582   7.857 -0.0392  0.4451  0.1375
 7587DDP     C145517  10.334  14.802   5.473  0.0856  0.1314 -0.1152
 7587DDP     P145518  10.509  15.137   5.447  0.1764 -0.0532  0.3702
 7587DDP     P245519  10.115  14.803   5.842  0.2106 -0.1478  0.1843
 7587DDP     C245520  10.137  14.572   6.269  0.0511  0.1313  0.0657
 7587DDP     C345521  10.603  15.658   5.525  0.0116 -0.1888  0.1625
 7587DDP     C445522  10.564  14.439   5.204 -0.2576 -0.0390 -0.0771
 7588DDP     C145523   7.165   7.274  24.944 -0.2295 -0.1963  0.5471
 7588DDP     P145524   7.458   7.324  24.593  0.1796  0.3247 -0.0686
 7588DDP     P245525   6.766   7.347  24.778  0.0092  0.2553  0.0940
 7588DDP     C245526   6.381   7.282  24.704 -0.0390  0.0441  0.0817
 7588DDP     C345527   7.634   7.120  24.256 -0.2943  0.2014 -0.0798
 7588DDP     C445528   7.156   7.004  25.254  0.0768  0.0660  0.0333
 7589DDP     C145529   2.429  21.925  12.657  0.1465 -0.2080  0.0535
 7589DDP     P145530   2.198  21.638  12.347  0.2699 -0.2452  0.2170
 7589DDP     P245531   2.861  21.951  12.792  0.0440  0.0529 -0.0325
 7589DDP     C245532   2.954  21.960  13.167  0.0239 -0.1697 -0.1697
 7589DDP     C345533   2.223  21.167  12.241  0.1129 -0.3142 -0.0099
 7589DDP     C445534   2.313  22.214  12.891  0.1346  0.0583 -0.0432
 7590DDP     C145535  12.666  26.407  30.228  0.0226 -0.0974 -0.2237
 7590DDP     P145536  12.355  26.326   0.078 -0.1488 -0.0492 -0.1505
 7590DDP     P245537  12.846  26.795  30.264  0.0734  0.2522  0.1365
 7590DDP     C245538  12.766  27.236  30.256  0.2016  0.2122  0.0673
 7590DDP     C345539  12.244  26.235   0.456  0.2728 -0.0841 -0.2346
 7590DDP     C445540  12.873  26.122  30.056 -0.0211 -0.0347 -0.0707
 7591DDP     C145541   8.729  18.403   2.781 -0.1083  0.1882  0.0076
 7591DDP     P145542   8.953  18.596   2.479 -0.1587 -0.0219  0.0230
 7591DDP     P245543   8.716  18.381   3.278  0.3131  0.1452 -0.2092
 7591DDP     C245544   9.073  18.502   3.611 -0.1136 -0.0589  0.2727
 7591DDP     C345545   9.418  18.577   2.331  0.0435 -0.1167 -0.0312
 7591DDP     C445546   8.303  18.216   2.708  0.1197 -0.1401 -0.0371
 7592DDP     C145547  13.430  22.157  25.279 -0.1065 -0.3225  0.4377
 7592DDP     P145548  13.863  21.918  25.407  0.4677 -0.1700 -0.0361
 7592DDP     P245549  13.363  22.045  24.769 -0.0003  0.1664 -0.1782
 7592DDP     C245550  13.197  22.204  24.437  0.0853 -0.1541  0.3825
 7592DDP     C345551  14.190  22.090  25.196 -0.0400 -0.0760  0.1154
 7592DDP     C445552  13.365  22.525  25.467 -0.0818 -0.2357  0.0281
 7593DDP     C145553  27.777   7.826  23.385  0.1272  0.2121 -0.0357
 7593DDP     P145554  27.888   7.524  23.623  0.1290 -0.0518 -0.0523
 7593DDP     P245555  27.587   7.748  23.009 -0.2118  0.1039 -0.2230
 7593DDP     C245556  27.295   7.754  22.608  0.1544  0.0420 -0.1657
 7593DDP     C345557  27.698   7.121  23.755  0.0929  0.1456 -0.0481
 7593DDP     C445558  27.996   8.134  23.318 -0.1354  0.0115  0.4359
 7594DDP     C145559  25.661  10.607   3.094 -0.2404  0.2426  0.2142
 7594DDP     P145560  25.693  10.892   3.450  0.2046  0.0077  0.1261
 7594DDP     P245561  25.838  10.231   3.414  0.1616  0.1664  0.1599
 7594DDP     C245562  26.271   9.907   3.596 -0.0861 -0.2578 -0.0184
 7594DDP     C345563  25.335  11.041   3.616 -0.0826 -0.2685  0.0202
 7594DDP     C445564  25.396  10.513   2.733 -0.0673  0.0604 -0.2248
 7595DDP     C145565  10.456   5.057  16.946  0.3489 -0.1942  0.2186
 7595DDP     P145566  10.571   5.151  16.572 -0.0767  0.0906 -0.2880
 7595DDP     P245567  10.878   4.986  17.136 -0.4494  0.0160  0.3379
 7595DDP     C245568  11.225   5.136  17.438  0.1749 -0.1112 -0.2818
 7595DDP     C345569  10.908   5.381  16.254 -0.3119  0.1509  0.1063
 7595DDP     C445570  10.025   4.946  17.059  0.1297 -0.1081 -0.2527
 7596DDP     C145571  24.727  15.939   7.962 -0.1107  0.2514 -0.0598
 7596DDP     P145572  24.337  15.686   7.978 -0.2356  0.0702 -0.0018
 7596DDP     P245573  24.867  16.141   7.557 -0.2054 -0.3495  0.0599
 7596DDP     C245574  24.926  15.942   7.219 -0.1185 -0.1624 -0.1948
 7596DDP     C345575  24.044  15.439   7.782  0.0577  0.1403 -0.1826
 7596DDP     C445576  24.992  16.018   8.230 -0.7058  0.1152 -0.3151
 7597DDP     C145577   4.127  20.191   5.025  0.1329 -0.0437 -0.1893
 7597DDP     P145578   3.899  20.260   4.646 -0.1039 -0.0135 -0.1675
 7597DDP     P245579   4.321  20.430   5.223 -0.0832  0.2174  0.4577
 7597DDP     C245580   4.517  20.655   5.504 -0.1635 -0.0728 -0.1639
 7597DDP     C345581   4.010  20.113   4.214  0.2328  0.0681  0.2026
 7597DDP     C445582   3.903  19.702   5.067  0.0792  0.3303 -0.0648
 7598DDP     C145583   8.778  30.267   2.232  0.2564  0.2051 -0.0098
 7598DDP     P145584   8.900  29.998   1.879 -0.1358 -0.2750  0.3277
 7598DDP     P245585   8.794  30.050   2.565 -0.0844 -0.1028 -0.0159
 7598DDP     C245586   8.768  30.140   2.927  0.4561  0.3758  0.0578
 7598DDP     C345587   8.775  29.689   1.566 -0.2810 -0.2316 -0.1799
 7598DDP     C445588   8.629   0.337   2.175 -0.2454 -0.0861 -0.0525
 7599DDP     C145589  17.586  13.973  25.859 -0.0559  0.0012  0.0936
 7599DDP     P145590  17.446  13.763  26.203  0.3166 -0.2495  0.1516
 7599DDP     P245591  17.576  14.334  25.767  0.2055  0.0921 -0.2029
 7599DDP     C245592  17.336  14.797  25.788 -0.1031  0.1119 -0.1864
 7599DDP     C345593  17.459  13.329  26.438 -0.1604 -0.0804 -0.1928
 7599DDP     C445594  17.683  13.680  25.466  0.2294 -0.0425 -0.0531
 7600DDP     C145595  23.492  21.886   1.880  0.3030 -0.0843  0.1107
 7600DDP     P145596  23.694  21.840   1.610  0.0295  0.1022  0.0694
 7600DDP     P245597  23.104  21.957   1.663 -0.1166 -0.0205  0.0766
 7600DDP     C245598  22.683  21.926   1.445  0.2955 -0.1242 -0.2262
 7600DDP     C345599  24.153  21.752   1.452 -0.0069 -0.0736 -0.0326
 7600DDP     C445600  23.485  21.826   2.246  0.1121  0.2931 -0.1053
 7601DDP     C145601   1.976  18.889   0.463  0.0037 -0.0342  0.0235
 7601DDP     P145602   1.533  18.824   0.509 -0.1398 -0.1454  0.1491
 7601DDP     P245603   2.218  18.678   0.635  0.0602  0.0804 -0.0561
 7601DDP     C245604   2.295  18.845   0.977  0.2558 -0.1428  0.0208
 7601DDP     C345605   1.289  19.116   0.434  0.6451 -0.0064 -0.3864
 7601DDP     C445606   1.925  19.269   0.047  0.1383 -0.1218  0.2144
 7602DDP     C145607  28.550  22.518  11.102 -0.2417 -0.0237  0.0049
 7602DDP     P145608  28.454  22.534  11.556 -0.2839  0.4540  0.0096
 7602DDP     P245609  28.946  22.449  11.024  0.2198  0.1509  0.1718
 7602DDP     C245610  29.295  22.633  10.913  0.1582  0.0748 -0.3531
 7602DDP     C345611  28.545  22.708  11.888  0.0106  0.1283  0.0549
 7602DDP     C445612  28.208  22.538  10.741 -0.1872 -0.1980  0.0712
 7603DDP     C145613  21.680  11.329  28.398 -0.2934 -0.0084  0.2669
 7603DDP     P145614  21.311  11.088  28.554  0.2877  0.2749 -0.0181
 7603DDP     P245615  21.929  11.528  28.695 -0.0014  0.1958 -0.0655
 7603DDP     C245616  22.285  11.574  28.985  0.4485  0.6724  0.1652
 7603DDP     C345617  20.910  10.902  28.385 -0.0124 -0.4816 -0.0520
 7603DDP     C445618  21.589  11.586  27.967 -0.0199  0.0289  0.2395
 7604DDP     C145619   0.177  17.519  16.463 -0.0642  0.2306 -0.0783
 7604DDP     P145620   0.372  17.436  16.050 -0.0598  0.1216 -0.0108
 7604DDP     P245621  30.322  17.227  16.737  0.0995  0.1944  0.0942
 7604DDP     C245622  30.241  17.196  17.157  0.2652  0.1790  0.0641
 7604DDP     C345623   0.291  17.631  15.613 -0.0518  0.0387  0.0699
 7604DDP     C445624   0.247  17.846  16.778  0.2249 -0.0927 -0.3128
 7605DDP     C145625  17.913   9.302   5.833 -0.3965 -0.0995  0.1636
 7605DDP     P145626  18.281   9.407   5.604  0.0185 -0.1554  0.2514
 7605DDP     P245627  17.961   9.514   6.203  0.1141  0.1006 -0.1038
 7605DDP     C245628  18.178   9.664   6.543  0.0958 -0.2087  0.3534
 7605DDP     C345629  18.588   9.476   5.350 -0.4367 -0.1259 -0.2746
 7605DDP     C445630  17.673   9.126   5.625  0.0650 -0.1631  0.1471
 7606DDP     C145631  23.864   8.803   9.944 -0.0621  0.1974 -0.0857
 7606DDP     P145632  23.381   8.711   9.917  0.1223 -0.1986  0.0839
 7606DDP     P245633  24.185   8.710  10.145 -0.2837 -0.1788 -0.2543
 7606DDP     C245634  24.644   8.510  10.147  0.0997  0.1810  0.1540
 7606DDP     C345635  23.048   8.713   9.681  0.1106  0.2111  0.0124
 7606DDP     C445636  23.955   8.981   9.547 -0.0787 -0.0648 -0.3379
 7607DDP     C145637   4.913  15.555  10.331  0.3000  0.1496 -0.0973
 7607DDP     P145638   4.432  15.369  10.248  0.0221 -0.1471  0.2106
 7607DDP     P245639   5.040  16.013  10.409  0.0110 -0.1281 -0.2170
 7607DDP     C245640   5.068  16.390  10.354 -0.2008  0.1091 -0.0921
 7607DDP     C345641   4.344  15.013   9.895 -0.2127  0.0188  0.0437
 7607DDP     C445642   4.947  15.235  10.622  0.2216 -0.1032  0.3061
 7608DDP     C145643  16.168  29.916  28.621  0.0908  0.0436  0.0203
 7608DDP     P145644  15.801  30.175  28.809  0.0646 -0.2868  0.2748
 7608DDP     P245645  16.276  29.538  28.434 -0.1163 -0.1044 -0.3565
 7608DDP     C245646  16.504  29.221  28.135 -0.0806 -0.0263 -0.1949
 7608DDP     C345647  15.584  30.171  29.236  0.1977 -0.1893 -0.0252
 7608DDP     C445648  16.592  30.002  28.595  0.0967 -0.2048  0.2393
 7609DDP     C145649   6.727  12.786   0.431 -0.1198  0.3770 -0.0149
 7609DDP     P145650   6.928  13.060   0.627  0.2223 -0.1645 -0.1830
 7609DDP     P245651   6.409  12.445   0.522 -0.0336  0.0684 -0.2329
 7609DDP     C245652   6.371  12.018   0.630  0.3002 -0.0766  0.0896
 7609DDP     C345653   7.292  13.195   0.454 -0.0534 -0.1278 -0.1183
 7609DDP     C445654   7.041  12.790   0.114  0.0319 -0.0353 -0.1915
 7610DDP     C145655  26.030   9.336   2.399 -0.1225 -0.0048  0.2237
 7610DDP     P145656  25.865   9.730   2.375  0.0163  0.0765 -0.4523
 7610DDP     P245657  26.013   9.270   1.969  0.3388  0.1880  0.0044
 7610DDP     C245658  25.711   9.305   1.662  0.2334  0.3287  0.1104
 7610DDP     C345659  25.499   9.926   2.411 -0.2401  0.0678 -0.1536
 7610DDP     C445660  26.434   9.272   2.623  0.1827 -0.0104  0.0022
 7611DDP     C145661   4.741  15.165  22.919 -0.0007  0.0752 -0.4207
 7611DDP     P145662   4.947  14.976  23.243  0.3229 -0.0008 -0.0645
 7611DDP     P245663   4.951  15.158  22.485 -0.2115  0.1618 -0.0269
 7611DDP     C245664   5.316  14.937  22.386 -0.2066 -0.0216  0.0742
 7611DDP     C345665   4.959  14.814  23.626  0.5080 -0.0998 -0.0261
 7611DDP     C445666   4.521  15.444  23.088 -0.1426  0.3640  0.0481
 7612DDP     C145667  29.348  13.651   6.287 -0.1666 -0.1261  0.0200
 7612DDP     P145668  29.178  13.524   6.651  0.1265  0.0202  0.0331
 7612DDP     P245669  29.321  14.168   6.216  0.0531 -0.1062 -0.0806
 7612DDP     C245670  29.265  14.575   6.310  0.1315 -0.0035 -0.0348
 7612DDP     C345671  28.764  13.285   6.797  0.1992  0.0292  0.0401
 7612DDP     C445672  29.663  13.412   6.001  0.1613 -0.1654 -0.2173
 7613DDP     C145673  27.497  28.323  22.113 -0.1588  0.0467  0.1793
 7613DDP     P145674  27.475  28.707  22.360  0.0209  0.3087  0.1780
 7613DDP     P245675  27.388  28.317  21.694 -0.0107 -0.0728 -0.1682
 7613DDP     C245676  27.321  28.089  21.306 -0.1234 -0.0788  0.2628
 7613DDP     C345677  27.131  28.996  22.444  0.2225 -0.1149  0.1703
 7613DDP     C445678  27.666  27.854  22.218  0.2459 -0.2633  0.2670
 7614DDP     C145679   9.957  27.959   8.815 -0.2403 -0.0342  0.0290
 7614DDP     P145680  10.311  28.215   9.023  0.1081  0.0503 -0.2629
 7614DDP     P245681   9.516  28.014   8.846 -0.0130  0.1031  0.0001
 7614DDP     C245682   9.407  28.389   9.096  0.2262 -0.0621 -0.0171
 7614DDP     C345683  10.454  28.592   9.205  0.3530  0.0621 -0.2032
 7614DDP     C445684  10.137  27.659   8.461  0.2295 -0.0662 -0.1115
 7615DDP     C145685  14.696  24.916  21.937  0.0750  0.1267  0.0995
 7615DDP     P145686  14.566  24.546  21.879  0.1972 -0.2336 -0.0180
 7615DDP     P245687  14.592  24.814  22.336 -0.0480 -0.3790 -0.3998
 7615DDP     C245688  14.994  24.801  22.708 -0.0187  0.0593 -0.0795
 7615DDP     C345689  14.546  24.053  21.919 -0.2673  0.0357 -0.0440
 7615DDP     C445690  14.962  25.202  21.792 -0.0549  0.2645 -0.1351
 7616DDP     C145691  18.026   3.399  12.072 -0.4041  0.1639  0.0492
 7616DDP     P145692  18.180   3.817  12.072 -0.0533  0.3363  0.1291
 7616DDP     P245693  18.318   3.049  11.943 -0.2699  0.2810 -0.2518
 7616DDP     C245694  18.370   3.071  11.552  0.1013  0.2162  0.0217
 7616DDP     C345695  18.456   4.076  12.380  0.2654  0.4045  0.0851
 7616DDP     C445696  17.670   3.473  12.250  0.0795  0.2387 -0.2689
 7617DDP     C145697  23.462  29.825  10.834  0.1413 -0.2909  0.1103
 7617DDP     P145698  23.288  29.755  10.405  0.2043 -0.0015 -0.0719
 7617DDP     P245699  23.289  30.207  11.049 -0.0551 -0.3315  0.0843
 7617DDP     C245700  22.965  30.381  11.257  0.3712  0.3599  0.1083
 7617DDP     C345701  23.406  29.485  10.025 -0.1723  0.0634  0.4034
 7617DDP     C445702  23.776  29.477  11.008  0.0323 -0.4065  0.2123
 7618DDP     C145703   4.919  14.800   3.313  0.0042  0.1865  0.0562
 7618DDP     P145704   5.364  14.675   3.411 -0.0423  0.2083 -0.2839
 7618DDP     P245705   4.733  14.651   2.917 -0.0970  0.2523  0.2572
 7618DDP     C245706   4.333  14.475   2.827 -0.2957 -0.1195  0.0445
 7618DDP     C345707   5.679  14.703   3.667  0.2000 -0.1958  0.0911
 7618DDP     C445708   4.605  15.015   3.640 -0.0557 -0.4771  0.0501
 7619DDP     C145709   0.268  13.507   8.804  0.0192  0.1898 -0.0755
 7619DDP     P145710   0.495  13.804   8.912 -0.0239  0.1674  0.0422
 7619DDP     P245711  30.122  13.548   8.915  0.3520 -0.1790  0.0506
 7619DDP     C245712  29.772  13.773   8.956  0.0574 -0.1752  0.1691
 7619DDP     C345713   0.744  14.043   8.716 -0.1348  0.1315 -0.1461
 7619DDP     C445714   0.285  13.171   8.486 -0.1317 -0.0969 -0.3239
 7620DDP     C145715  18.334  27.520  16.895  0.2273 -0.1569  0.3543
 7620DDP     P145716  18.271  27.608  16.541 -0.2987  0.0545  0.3619
 7620DDP     P245717  18.020  27.282  17.193  0.1348  0.0196 -0.2070
 7620DDP     C245718  17.670  27.200  17.446 -0.0210 -0.1866  0.0123
 7620DDP     C345719  17.861  27.708  16.349  0.0229  0.2234 -0.0239
 7620DDP     C445720  18.514  27.865  17.143 -0.1039 -0.1046  0.1376
 7621DDP     C145721   6.341  22.644  29.202  0.0037 -0.0322 -0.0969
 7621DDP     P145722   6.599  22.790  29.590  0.0195 -0.2672  0.3178
 7621DDP     P245723   6.503  22.565  28.817 -0.2968 -0.0687  0.0582
 7621DDP     C245724   6.687  22.532  28.399  0.1049  0.0572  0.0472
 7621DDP     C345725   6.908  22.902  29.980  0.0340 -0.2457 -0.1553
 7621DDP     C445726   5.827  22.557  29.277 -0.0612 -0.2280  0.0915
 7622DDP     C145727  11.178  23.870   4.405  0.1584  0.0125 -0.2130
 7622DDP     P145728  11.089  24.275   4.208  0.2858 -0.1650 -0.3473
 7622DDP     P245729  11.275  23.498   4.163 -0.1248  0.0688 -0.1741
 7622DDP     C245730  11.349  23.091   4.181 -0.1303  0.0650 -0.0538
 7622DDP     C345731  11.229  24.703   4.155 -0.2263  0.0245  0.0322
 7622DDP     C445732  11.202  23.966   4.839 -0.0186  0.1601 -0.0388
 7623DDP     C145733  29.786  10.272   6.890 -0.1760  0.1755  0.0550
 7623DDP     P145734  29.412  10.004   6.794 -0.3869  0.0054 -0.2642
 7623DDP     P245735  29.689  10.725   6.793  0.3000 -0.1187 -0.0199
 7623DDP     C245736  29.758  10.958   7.167  0.1026  0.1846  0.2607
 7623DDP     C345737  29.019   9.836   6.772  0.1267  0.1285  0.1110
 7623DDP     C445738  30.159  10.113   7.168 -0.0430 -0.0388  0.0745
 7624DDP     C145739  24.356   9.690  16.840  0.1924 -0.1241  0.3354
 7624DDP     P145740  24.433   9.352  17.154 -0.0220  0.2863  0.0140
 7624DDP     P245741  24.671  10.084  17.009 -0.1843 -0.0828 -0.2182
 7624DDP     C245742  24.523  10.460  17.198  0.1390  0.3043  0.0445
 7624DDP     C345743  24.515   9.132  17.546 -0.1396 -0.0190  0.3602
 7624DDP     C445744  24.165   9.667  16.469 -0.2852 -0.1293  0.0784
 7625DDP     C145745  23.605   5.988  14.926  0.3421 -0.0119 -0.0674
 7625DDP     P145746  23.302   6.229  15.134  0.0770  0.3820 -0.0153
 7625DDP     P245747  23.440   5.498  14.840  0.0242 -0.1646  0.0881
 7625DDP     C245748  22.992   5.471  14.687 -0.0160  0.0758  0.1332
 7625DDP     C345749  23.378   6.682  15.144  0.2447 -0.3898 -0.0353
 7625DDP     C445750  24.078   6.037  14.954  0.1516 -0.0602 -0.2064
 7626DDP     C145751   5.499  22.574  12.634 -0.0184  0.0203 -0.1038
 7626DDP     P145752   4.991  22.607  12.761  0.0306  0.0842  0.3310
 7626DDP     P245753   5.538  22.165  12.579  0.0973 -0.0777  0.1072
 7626DDP     C245754   5.661  21.812  12.880 -0.1035  0.1584 -0.1284
 7626DDP     C345755   4.653  22.271  12.754  0.1028  0.0732  0.1207
 7626DDP     C445756   5.676  22.780  12.324  0.1872 -0.2881 -0.2462
 7627DDP     C145757  28.985   7.910  23.415  0.0421 -0.1369  0.2744
 7627DDP     P145758  28.810   8.103  23.776  0.0673 -0.2547 -0.0503
 7627DDP     P245759  28.965   8.339  23.334  0.1236 -0.2357 -0.0615
 7627DDP     C245760  28.939   8.795  23.529 -0.0050 -0.1818  0.1986
 7627DDP     C345761  28.491   8.260  23.986  0.2403 -0.0935  0.0255
 7627DDP     C445762  28.896   7.617  23.140 -0.2380 -0.1332  0.0346
 7628DDP     C145763  14.429  21.161   6.908  0.0765  0.1551 -0.2191
 7628DDP     P145764  14.714  21.416   6.791  0.0798 -0.0844  0.0431
 7628DDP     P245765  13.982  21.267   7.002 -0.1478  0.1455 -0.1027
 7628DDP     C245766  13.799  21.613   7.071  0.0468 -0.0305  0.0537
 7628DDP     C345767  15.220  21.421   6.683 -0.2972 -0.3881 -0.3034
 7628DDP     C445768  14.495  20.787   6.868 -0.0329 -0.0187 -0.2062
 7629DDP     C145769  10.767   8.126  11.084 -0.0677  0.2786  0.0601
 7629DDP     P145770  10.758   7.777  11.044  0.0307 -0.0145 -0.2454
 7629DDP     P245771  11.187   8.083  11.193 -0.0470  0.0205 -0.1662
 7629DDP     C245772  11.367   7.857  11.594  0.0464  0.1422  0.0450
 7629DDP     C345773  10.821   7.681  10.581  0.1248 -0.0784  0.1168
 7629DDP     C445774  10.572   8.411  11.265 -0.0031 -0.1030  0.0590
 7630DDP     C145775   5.632   2.693  13.303 -0.5275  0.0306 -0.0973
 7630DDP     P145776   5.723   3.016  12.963  0.1898  0.4338 -0.3663
 7630DDP     P245777   6.041   2.352  13.273  0.1025  0.1033 -0.0579
 7630DDP     C245778   6.423   2.183  13.333 -0.1790  0.2008  0.2117
 7630DDP     C345779   5.793   3.450  12.743 -0.4210  0.2076 -0.2155
 7630DDP     C445780   5.506   2.864  13.729 -0.0996  0.0118 -0.0887
 7631DDP     C145781  14.937  21.468   1.036  0.0090 -0.1402  0.0498
 7631DDP     P145782  15.158  21.847   0.824  0.0007 -0.1011  0.0132
 7631DDP     P245783  14.600  21.340   0.761  0.1945  0.3144  0.2448
 7631DDP     C245784  14.024  21.335   0.680 -0.3250 -0.2664  0.2817
 7631DDP     C345785  14.969  22.185   0.613 -0.4101 -0.0660 -0.1807
 7631DDP     C445786  15.032  21.192   1.407  0.0295 -0.2204 -0.2038
 7632DDP     C145787  19.742  26.600  19.326  0.1756 -0.5513 -0.3663
 7632DDP     P145788  19.485  26.228  19.323 -0.2676 -0.3240  0.0513
 7632DDP     P245789  19.659  26.959  19.380  0.0483 -0.0318  0.1760
 7632DDP     C245790  19.713  27.341  19.375  0.2488  0.0585 -0.1443
 7632DDP     C345791  19.185  26.037  19.592 -0.1357  0.1207 -0.0483
 7632DDP     C445792  20.008  26.593  19.086 -0.1083  0.0671  0.0922
 7633DDP     C145793  12.502  16.400  29.155 -0.2404  0.0086 -0.0990
 7633DDP     P145794  12.812  16.490  28.881  0.1660  0.1361 -0.1520
 7633DDP     P245795  12.170  16.748  29.021  0.1760 -0.0437 -0.1995
 7633DDP     C245796  11.822  17.004  28.890  0.0098 -0.1419 -0.1526
 7633DDP     C345797  13.238  16.454  28.706  0.0425  0.0104  0.4541
 7633DDP     C445798  12.519  16.083  29.435 -0.1864  0.0130 -0.0426
 7634DDP     C145799   4.824  23.144  12.619  0.0075  0.0226  0.0356
 7634DDP     P145800   4.621  22.879  13.084  0.4414  0.2974  0.1631
 7634DDP     P245801   5.305  23.130  12.653  0.0828 -0.0665  0.0070
 7634DDP     C245802   5.724  23.194  12.879 -0.1816 -0.3235  0.0749
 7634DDP     C345803   4.561  22.402  13.246 -0.0071  0.2531  0.0054
 7634DDP     C445804   4.729  23.081  12.160 -0.1880  0.0830  0.0192
 7635DDP     C145805  12.608  24.877   7.752  0.4622 -0.2319  0.2378
 7635DDP     P145806  12.467  25.156   8.146 -0.2377 -0.0887  0.2836
 7635DDP     P245807  12.599  25.164   7.349 -0.0520 -0.0391 -0.3064
 7635DDP     C245808  12.852  25.354   7.025 -0.0591  0.0118  0.1915
 7635DDP     C345809  12.307  25.171   8.551 -0.0853 -0.0130 -0.3215
 7635DDP     C445810  12.886  24.465   7.644 -0.0649  0.0389 -0.0438
 7636DDP     C145811  17.024   2.378   6.946 -0.1749  0.0262 -0.1585
 7636DDP     P145812  17.386   2.186   7.009 -0.1582 -0.2796 -0.0573
 7636DDP     P245813  16.868   2.407   6.548  0.3431 -0.1909  0.0318
 7636DDP     C245814  16.730   2.448   6.099  0.1490  0.0495  0.1315
 7636DDP     C345815  17.684   1.896   7.137 -0.1281  0.0462  0.1522
 7636DDP     C445816  16.982   2.799   6.956 -0.1392  0.2023 -0.0234
 7637DDP     C145817   2.191   6.039  18.359 -0.1081 -0.0200  0.0744
 7637DDP     P145818   2.129   6.323  18.708 -0.0447 -0.0297  0.0763
 7637DDP     P245819   2.081   5.634  18.369  0.2458  0.4108  0.2320
 7637DDP     C245820   2.341   5.344  18.569  0.1128  0.0590 -0.2116
 7637DDP     C345821   1.959   6.618  18.967  0.2472  0.1145  0.0875
 7637DDP     C445822   2.481   6.127  17.992  0.4584 -0.0532 -0.1209
 7638DDP     C145823  29.139   2.723  17.911 -0.3432 -0.2213  0.0520
 7638DDP     P145824  29.358   2.929  17.483  0.2336  0.0898 -0.2774
 7638DDP     P245825  28.807   3.075  17.980  0.4201 -0.0106  0.0090
 7638DDP     C245826  28.380   3.239  17.761  0.1826  0.1161  0.2054
 7638DDP     C345827  29.156   3.372  17.337 -0.1943  0.1287  0.1706
 7638DDP     C445828  29.243   2.364  18.193  0.0968  0.4593 -0.2959
 7639DDP     C145829  23.414  21.809   3.518 -0.2385 -0.1553  0.4413
 7639DDP     P145830  23.447  21.374   3.648 -0.0664  0.1104  0.0091
 7639DDP     P245831  23.261  22.105   3.212 -0.0405  0.0202  0.0210
 7639DDP     C245832  22.981  22.451   3.296 -0.1168 -0.0556 -0.2627
 7639DDP     C345833  23.246  20.987   3.681  0.3387  0.0060 -0.0095
 7639DDP     C445834  23.713  22.124   3.752  0.1043  0.2656 -0.2213
 7640DDP     C145835  19.242  19.872   2.564  0.0443 -0.0806 -0.3728
 7640DDP     P145836  18.977  19.538   2.528 -0.1565  0.1341 -0.3357
 7640DDP     P245837  19.408  19.926   2.138  0.0409 -0.1254  0.4757
 7640DDP     C245838  19.885  19.996   1.948  0.1777  0.1476  0.1109
 7640DDP     C345839  19.110  19.098   2.584  0.0729 -0.0942 -0.0031
 7640DDP     C445840  19.574  19.953   2.958  0.0383 -0.1396  0.1540
 7641DDP     C145841  15.515  23.549  27.333 -0.1093 -0.1903  0.0912
 7641DDP     P145842  15.346  23.925  27.421 -0.2004 -0.0994  0.4120
 7641DDP     P245843  15.896  23.417  27.149 -0.0958  0.0901  0.0372
 7641DDP     C245844  16.350  23.542  26.939  0.1521 -0.0335 -0.2763
 7641DDP     C345845  15.274  24.361  27.297 -0.3069 -0.0281 -0.2229
 7641DDP     C445846  15.378  23.188  27.500  0.1831 -0.2356  0.2779
 7642DDP     C145847  14.152   8.303   7.258 -0.2648 -0.0194  0.0890
 7642DDP     P145848  14.443   7.912   7.261 -0.3997  0.2822 -0.2123
 7642DDP     P245849  14.101   8.488   6.889 -0.0189  0.0446 -0.0696
 7642DDP     C245850  14.377   8.498   6.512  0.0173 -0.4118  0.2216
 7642DDP     C345851  14.616   7.510   7.499  0.1642  0.1051 -0.1655
 7642DDP     C445852  13.782   8.500   7.451  0.0266 -0.0159  0.2046
 7643DDP     C145853   0.830  21.333  26.847 -0.1716 -0.0973 -0.1577
 7643DDP     P145854   0.602  21.591  27.147 -0.1154 -0.0474 -0.0999
 7643DDP     P245855   1.139  21.112  27.052  0.0847  0.2352  0.3425
 7643DDP     C245856   1.286  20.837  27.223 -0.1214 -0.1322 -0.0266
 7643DDP     C345857   0.293  21.814  27.362  0.2579 -0.0608 -0.1159
 7643DDP     C445858   0.613  21.086  26.461 -0.2926 -0.1379  0.3421
 7644DDP     C145859  22.215   7.361   9.303  0.0417 -0.0755  0.1793
 7644DDP     P145860  21.742   7.275   9.218 -0.2991 -0.3805  0.0238
 7644DDP     P245861  22.480   7.201   9.586  0.0625  0.1775  0.0367
 7644DDP     C245862  22.923   7.080   9.616  0.1948 -0.0477  0.2076
 7644DDP     C345863  21.337   7.113   9.181  0.2524 -0.1733  0.0412
 7644DDP     C445864  22.380   7.640   9.050 -0.0532  0.2475  0.0186
 7645DDP     C145865  20.213   4.241  15.863 -0.0513  0.1972  0.2002
 7645DDP     P145866  20.530   4.254  15.694  0.0823  0.0488 -0.4195
 7645DDP     P245867  20.226   4.021  16.349  0.2284 -0.3275 -0.0312
 7645DDP     C245868  20.098   3.861  16.791 -0.0718  0.2530 -0.0734
 7645DDP     C345869  20.659   4.359  15.280  0.0312  0.0212 -0.2268
 7645DDP     C445870  19.872   4.527  15.694 -0.0010  0.1443  0.0601
 7646DDP     C145871  18.972  16.801  30.231 -0.4416 -0.0697  0.2623
 7646DDP     P145872  18.873  16.710   0.255 -0.1052 -0.1273  0.0617
 7646DDP     P245873  19.423  16.848  30.216  0.1147 -0.2204 -0.0869
 7646DDP     C245874  19.901  16.837  30.199 -0.1227 -0.1565 -0.2512
 7646DDP     C345875  18.840  16.870   0.780  0.2068 -0.3360  0.1359
 7646DDP     C445876  18.797  16.737  29.855  0.0446  0.1559 -0.2312
 7647DDP     C145877  20.008  22.583  16.591  0.0662 -0.1110  0.1542
 7647DDP     P145878  20.539  22.662  16.556  0.1732 -0.0254  0.2925
 7647DDP     P245879  19.841  22.296  16.878  0.0851  0.0057 -0.3160
 7647DDP     C245880  19.645  21.831  17.086  0.0831 -0.0564  0.0327
 7647DDP     C345881  21.009  22.573  16.540 -0.1438 -0.0492  0.1943
 7647DDP     C445882  19.817  22.767  16.191  0.5788  0.1071 -0.2692
 7648DDP     C145883  27.904  16.215  18.926  0.1243  0.0087 -0.3649
 7648DDP     P145884  27.487  15.964  18.984  0.0889  0.2750  0.0178
 7648DDP     P245885  28.273  16.047  18.854  0.0212  0.0090  0.1125
 7648DDP     C245886  28.654  15.946  18.774 -0.1590  0.1099 -0.1494
 7648DDP     C345887  27.142  16.091  18.937 -0.1138  0.0801  0.0154
 7648DDP     C445888  27.744  16.626  18.836 -0.1586 -0.0127  0.0945
 7649DDP     C145889   8.640  24.913  14.726  0.1316 -0.0917 -0.1199
 7649DDP     P145890   9.011  24.772  15.003 -0.1035  0.1648  0.0891
 7649DDP     P245891   8.555  24.817  14.324  0.2469 -0.0924  0.0726
 7649DDP     C245892   8.121  24.943  14.160 -0.1281 -0.1500 -0.2022
 7649DDP     C345893   9.350  24.912  15.228  0.0590  0.0840  0.0569
 7649DDP     C445894   8.337  25.135  14.902 -0.0142 -0.0321 -0.0185
 7650DDP     C145895   9.044  10.179  11.010 -0.0766  0.3622 -0.1552
 7650DDP     P145896   8.810  10.382  10.781  0.1417 -0.0820  0.1547
 7650DDP     P245897   8.994   9.823  11.231  0.2607 -0.0880  0.0314
 7650DDP     C245898   9.371   9.509  11.488 -0.1295 -0.0613 -0.0205
 7650DDP     C345899   8.343  10.427  10.703  0.0292 -0.0004 -0.0675
 7650DDP     C445900   9.386  10.399  11.136  0.1744 -0.2515 -0.1243
 7651DDP     C145901  27.099  10.680  17.877 -0.1840 -0.1032 -0.0665
 7651DDP     P145902  26.663  10.663  18.010 -0.0895 -0.2211 -0.0108
 7651DDP     P245903  27.133  10.254  18.113 -0.3520  0.0908  0.3626
 7651DDP     C245904  26.960  10.146  18.545  0.0766  0.0156  0.4084
 7651DDP     C345905  26.208  10.918  18.207  0.1910  0.0574  0.1005
 7651DDP     C445906  27.478  10.764  17.595 -0.0434 -0.2427  0.0374
 7652DDP     C145907  13.576  12.349   1.606 -0.0862 -0.2941  0.0663
 7652DDP     P145908  13.134  12.379   1.496 -0.1336  0.2291 -0.0309
 7652DDP     P245909  13.830  11.970   1.372 -0.0001  0.1106 -0.1631
 7652DDP     C245910  14.255  11.798   1.249 -0.0372 -0.0925  0.0333
 7652DDP     C345911  12.743  12.212   1.432  0.1407 -0.1627 -0.1471
 7652DDP     C445912  13.966  12.724   1.694 -0.1406  0.0470  0.0042
 7653DDP     C145913  14.451  28.015  12.347  0.1075  0.0669 -0.0389
 7653DDP     P145914  14.449  27.870  12.832  0.0461 -0.4541 -0.0265
 7653DDP     P245915  14.109  28.067  12.077 -0.1815 -0.0085  0.2339
 7653DDP     C245916  13.736  28.025  11.878 -0.2034 -0.3751 -0.2485
 7653DDP     C345917  14.202  28.075  13.212  0.2153 -0.1428  0.0405
 7653DDP     C445918  14.714  27.940  12.034  0.0587  0.2207  0.0005
 7654DDP     C145919  14.847  24.453  16.974 -0.2411 -0.0333  0.1313
 7654DDP     P145920  15.084  24.530  17.278 -0.1720  0.0634  0.1946
 7654DDP     P245921  14.476  24.608  16.826  0.0459  0.3367 -0.0862
 7654DDP     C245922  14.343  24.704  16.422 -0.2777  0.0176  0.2278
 7654DDP     C345923  15.072  24.567  17.689  0.0677  0.3122 -0.0183
 7654DDP     C445924  15.121  24.362  16.707 -0.1662 -0.2331  0.2600
 7655DDP     C145925   6.879  30.236  25.683  0.1231 -0.0658  0.2176
 7655DDP     P145926   7.133  -0.029  25.401  0.0293 -0.2924  0.0630
 7655DDP     P245927   7.007  29.839  25.790 -0.0979 -0.0133 -0.1183
 7655DDP     C245928   7.416  29.630  25.979  0.1950 -0.0302  0.2942
 7655DDP     C345929   7.193  -0.053  24.982  0.3414 -0.4050 -0.1240
 7655DDP     C445930   6.620   0.113  25.987 -0.1849 -0.0799 -0.2190
 7656DDP     C145931  16.721  27.427  27.182  0.1505 -0.1404  0.1618
 7656DDP     P145932  16.479  27.768  27.059  0.1081  0.0230 -0.0444
 7656DDP     P245933  17.145  27.505  27.221  0.1527  0.1436 -0.1214
 7656DDP     C245934  17.434  27.118  27.087 -0.0660  0.2141 -0.4775
 7656DDP     C345935  16.155  27.742  26.751  0.5094 -0.0788 -0.6189
 7656DDP     C445936  16.551  27.105  27.392 -0.3245  0.2894  0.0963
 7657DDP     C145937  26.263   3.644  16.122 -0.0273  0.0552 -0.1341
 7657DDP     P145938  26.251   4.112  16.370  0.4373 -0.2855  0.1717
 7657DDP     P245939  26.663   3.493  16.201  0.2108 -0.1315  0.3292
 7657DDP     C245940  27.085   3.545  16.098  0.1659 -0.3217 -0.2703
 7657DDP     C345941  26.356   4.408  16.690  0.2445  0.0152  0.3399
 7657DDP     C445942  26.062   3.669  15.624 -0.1643  0.0314  0.2114
 7658DDP     C145943   1.215   7.604  26.811 -0.2134  0.1036 -0.0991
 7658DDP     P145944   0.861   7.432  27.013  0.2294 -0.3840 -0.0013
 7658DDP     P245945   1.690   7.295  26.871  0.0353  0.0891 -0.0479
 7658DDP     C245946   1.749   6.952  26.647 -0.1189 -0.2651  0.0799
 7658DDP     C345947   0.752   6.990  27.121  0.1357  0.2574  0.0368
 7658DDP     C445948   1.069   7.914  26.502  0.1771 -0.1009 -0.0041
 7659DDP     C145949   6.201   5.781   4.423 -0.3379  0.2176  0.1610
 7659DDP     P145950   6.359   5.416   4.590  0.0865  0.1375  0.1983
 7659DDP     P245951   5.985   5.925   4.046 -0.1185  0.0570 -0.2084
 7659DDP     C245952   5.873   6.282   3.900 -0.0809 -0.0329 -0.2764
 7659DDP     C345953   6.186   5.214   5.025 -0.1372 -0.2716 -0.2622
 7659DDP     C445954   6.423   6.070   4.676 -0.1214  0.0380 -0.2462
 7660DDP     C145955  23.255  27.065  15.653 -0.0837 -0.0720  0.2316
 7660DDP     P145956  23.097  27.463  15.405 -0.0297  0.0485 -0.1046
 7660DDP     P245957  23.599  27.095  15.927 -0.0238 -0.1658  0.1321
 7660DDP     C245958  24.028  27.173  15.853  0.0103 -0.0077  0.3271
 7660DDP     C345959  22.946  27.770  15.201  0.0080  0.0229  0.0484
 7660DDP     C445960  23.185  26.591  15.556 -0.3380  0.1107 -0.1787
 7661DDP     C145961  20.839  12.342  29.497 -0.0678  0.2177  0.1279
 7661DDP     P145962  20.596  12.637  29.711 -0.0614  0.2139 -0.1231
 7661DDP     P245963  21.057  12.016  29.426 -0.1363  0.1376  0.3921
 7661DDP     C245964  21.318  11.950  29.147  0.0480  0.0805  0.2497
 7661DDP     C345965  20.165  12.882  29.637  0.0355  0.1678  0.1170
 7661DDP     C445966  20.756  12.283  29.032  0.1807  0.0061  0.0732
 7662DDP     C145967  24.991  20.561  21.175  0.0400  0.0627 -0.0085
 7662DDP     P145968  25.159  21.004  20.927 -0.1613 -0.0055 -0.3202
 7662DDP     P245969  25.289  20.378  21.418  0.1866  0.1598  0.1778
 7662DDP     C245970  25.678  20.231  21.527  0.4040  0.4070  0.2479
 7662DDP     C345971  25.590  21.047  20.910 -0.0439 -0.3265 -0.2022
 7662DDP     C445972  24.655  20.342  21.118 -0.0088  0.1301  0.1839
 7663DDP     C145973   0.347   2.758   7.319  0.1415  0.0989 -0.0245
 7663DDP     P145974   0.758   3.065   7.345 -0.0150 -0.1140  0.0162
 7663DDP     P245975   0.400   2.427   7.587 -0.1693 -0.4053 -0.5047
 7663DDP     C245976   0.407   1.952   7.578  0.0709  0.0810 -0.0839
 7663DDP     C345977   1.193   3.134   7.354 -0.2843  0.3344  0.0270
 7663DDP     C445978   0.144   2.600   6.913  0.3556  0.1265  0.0578
 7664DDP     C145979  25.842  24.831   2.873 -0.2148 -0.1922 -0.0084
 7664DDP     P145980  25.941  25.210   3.176  0.1531 -0.3189  0.0490
 7664DDP     P245981  25.843  24.476   3.098  0.2519 -0.1264 -0.0118
 7664DDP     C245982  25.430  24.297   3.226  0.1311 -0.1072 -0.2642
 7664DDP     C345983  25.995  25.501   3.501 -0.0498 -0.1018  0.1366
 7664DDP     C445984  25.764  24.833   2.436  0.1819 -0.0064  0.2585
 7665DDP     C145985  22.622  12.314  11.303  0.2960 -0.1848 -0.2953
 7665DDP     P145986  22.357  12.140  11.003 -0.0525 -0.2031 -0.0265
 7665DDP     P245987  22.427  12.142  11.788 -0.0451 -0.0805 -0.1376
 7665DDP     C245988  22.387  11.731  11.968 -0.0771  0.1239  0.1395
 7665DDP     C345989  22.420  12.018  10.544  0.0624 -0.3214 -0.0791
 7665DDP     C445990  23.046  12.498  11.251  0.2175  0.0179  0.4072
 7666DDP     C145991   7.289  13.273  23.770  0.2608 -0.1258 -0.0311
 7666DDP     P145992   7.212  13.067  23.420 -0.1755 -0.1228  0.1557
 7666DDP     P245993   7.322  13.740  23.707 -0.0694 -0.1908  0.1519
 7666DDP     C245994   7.248  14.180  23.597 -0.2127  0.1124 -0.1036
 7666DDP     C345995   6.858  13.107  23.113 -0.0343  0.3691  0.1426
 7666DDP     C445996   7.410  13.108  24.195 -0.1049 -0.0708 -0.0057
 7667DDP     C145997  29.251  18.613  17.726  0.2283  0.0920 -0.0197
 7667DDP     P145998  29.110  19.033  17.777 -0.1306 -0.0117  0.0232
 7667DDP     P245999  29.040  18.259  17.787  0.0511 -0.0300  0.0515
 7667DDP     C246000  28.816  17.942  17.572  0.2215  0.0252  0.0243
 7667DDP     C346001  28.807  19.369  17.768 -0.2737  0.0052 -0.1168
 7667DDP     C446002  29.683  18.580  17.461  0.0787  0.2100 -0.0278
 7668DDP     C146003  17.870   2.849  19.584 -0.0299 -0.1982  0.4344
 7668DDP     P146004  17.645   2.652  19.344 -0.0185 -0.2247 -0.0411
 7668DDP     P246005  17.657   3.204  19.964 -0.1851 -0.3296 -0.0092
 7668DDP     C246006  17.749   3.367  20.351 -0.0559 -0.2332  0.0633
 7668DDP     C346007  17.332   2.281  19.405 -0.3177 -0.1019 -0.2622
 7668DDP     C446008  18.278   2.693  19.645  0.0339  0.1032 -0.0927
 7669DDP     C146009  18.928  10.202  16.401  0.2260 -0.1261 -0.1834
 7669DDP     P146010  18.448  10.107  16.302  0.0086  0.1151  0.2343
 7669DDP     P246011  19.149  10.487  16.644 -0.1178  0.4459  0.3382
 7669DDP     C246012  19.033  10.872  16.855  0.0604 -0.0367 -0.0691
 7669DDP     C346013  18.097   9.755  16.162 -0.0032  0.2580 -0.1082
 7669DDP     C446014  19.152  10.136  16.063  0.0010  0.0882 -0.0475
 7670DDP     C146015   1.845  22.159  22.482 -0.3755 -0.0028  0.0241
 7670DDP     P146016   1.579  22.129  22.727  0.1078 -0.0332 -0.0307
 7670DDP     P246017   1.960  22.530  22.329 -0.0808 -0.0152 -0.2851
 7670DDP     C246018   2.116  22.973  22.461 -0.1451 -0.1943 -0.0325
 7670DDP     C346019   1.405  21.963  23.140  0.0854  0.3756 -0.0275
 7670DDP     C446020   2.024  21.722  22.318  0.2042 -0.4391  0.1123
 7671DDP     C146021  16.377  12.725  21.732 -0.2433  0.0913 -0.3259
 7671DDP     P146022  16.516  13.046  22.127  0.1828 -0.0456  0.2663
 7671DDP     P246023  16.724  12.428  21.633  0.1786  0.1176  0.1454
 7671DDP     C246024  16.828  12.119  21.835 -0.1368  0.1538 -0.2177
 7671DDP     C346025  16.303  13.364  22.287 -0.0195 -0.1009 -0.1330
 7671DDP     C446026  15.886  12.615  21.626  0.2024 -0.3284 -0.0258
 7672DDP     C146027   8.248   5.871  28.234 -0.0776  0.1708 -0.0895
 7672DDP     P146028   8.714   5.792  27.996 -0.0882  0.0850  0.0004
 7672DDP     P246029   8.083   5.475  28.474  0.2323  0.0418 -0.1635
 7672DDP     C246030   7.868   5.033  28.544  0.2396 -0.0724 -0.0840
 7672DDP     C346031   8.839   5.691  27.603 -0.3496  0.2044  0.1461
 7672DDP     C446032   8.050   6.199  28.521  0.0834 -0.2286  0.2438
 7673DDP     C146033   3.223   0.706   4.089 -0.0609 -0.0337  0.1172
 7673DDP     P146034   3.274   0.578   3.625  0.2265 -0.1342 -0.2284
 7673DDP     P246035   2.883   0.925   4.266 -0.0989  0.2106 -0.0775
 7673DDP     C246036   2.712   0.760   4.725 -0.0062  0.0280  0.2121
 7673DDP     C346037   3.298   0.470   3.203 -0.1718  0.2117 -0.3373
 7673DDP     C446038   3.592   0.737   4.301  0.1291  0.0324  0.1868
 7674DDP     C146039  16.057  14.232  21.681  0.1276 -0.0128  0.0515
 7674DDP     P146040  16.269  13.968  21.540  0.0242  0.1435 -0.0851
 7674DDP     P246041  15.949  14.042  22.124  0.0056  0.1697  0.1050
 7674DDP     C246042  16.153  13.817  22.508 -0.0914 -0.1272 -0.0053
 7674DDP     C346043  16.389  13.802  21.159  0.2661  0.2494 -0.1910
 7674DDP     C446044  15.821  14.496  21.330 -0.2884  0.0875  0.1827
 7675DDP     C146045  14.882  28.604  22.537  0.0360 -0.0264  0.0081
 7675DDP     P146046  14.651  28.496  22.144  0.1815  0.1195  0.0183
 7675DDP     P246047  15.035  29.045  22.760  0.0971 -0.1484  0.1271
 7675DDP     C246048  15.264  29.381  22.958 -0.1059 -0.1694  0.0884
 7675DDP     C346049  14.303  28.579  21.804 -0.1711 -0.3216 -0.0822
 7675DDP     C446050  14.874  28.229  22.867  0.3159 -0.3242 -0.5746
 7676DDP     C146051   9.132  19.868  27.105 -0.0664  0.1507 -0.0065
 7676DDP     P146052   8.856  19.753  27.465 -0.1105 -0.2224  0.0910
 7676DDP     P246053   9.167  20.278  26.772 -0.1441 -0.0775 -0.0828
 7676DDP     C246054   9.370  20.616  26.862 -0.5375  0.0436 -0.0317
 7676DDP     C346055   8.728  19.790  27.861 -0.1610  0.1504 -0.1913
 7676DDP     C446056   9.518  19.558  27.177 -0.0247 -0.0822  0.1467
 7677DDP     C146057  18.315   5.403  12.645  0.1550 -0.3334 -0.0705
 7677DDP     P146058  18.328   5.435  12.173 -0.1891 -0.1452  0.0150
 7677DDP     P246059  18.112   5.144  12.928 -0.2138  0.2759  0.3876
 7677DDP     C246060  18.337   5.058  13.392  0.0288 -0.2924  0.2424
 7677DDP     C346061  18.370   5.263  11.816 -0.3189  0.2128  0.2265
 7677DDP     C446062  18.698   5.587  12.849  0.1400  0.0460 -0.0499
 7678DDP     C146063  10.545  19.838  28.781 -0.2160  0.4011  0.0655
 7678DDP     P146064  10.237  19.973  29.099  0.3696  0.1075 -0.0084
 7678DDP     P246065  10.762  20.119  28.563  0.2684 -0.0933 -0.1054
 7678DDP     C246066  10.569  20.513  28.299  0.1341 -0.2422 -0.1195
 7678DDP     C346067  10.333  20.084  29.536  0.2507  0.2479  0.2369
 7678DDP     C446068  10.830  19.494  28.982 -0.5032  0.2898 -0.0796
 7679DDP     C146069   4.065  17.975  29.506 -0.0809 -0.0196  0.1356
 7679DDP     P146070   3.792  17.789  29.233  0.1473  0.1754  0.2656
 7679DDP     P246071   3.918  18.132  29.948  0.0211  0.0873  0.1915
 7679DDP     C246072   3.873  17.790  30.263 -0.1843  0.1200 -0.0625
 7679DDP     C346073   3.514  17.662  28.844  0.0089 -0.1888  0.1442
 7679DDP     C446074   4.496  18.065  29.575 -0.0747  0.0368  0.0089
 7680DDP     C146075  30.153  17.522  23.342 -0.1601 -0.0532  0.1472
 7680DDP     P146076  30.092  17.611  23.725  0.1668 -0.2558  0.3939
 7680DDP     P246077  30.192  17.872  23.134 -0.0170 -0.3443 -0.0574
 7680DDP     C246078  30.027  18.151  22.895  0.0215  0.2936 -0.0500
 7680DDP     C346079  30.224  18.008  23.928  0.1124  0.0049  0.1595
 7680DDP     C446080  29.958  17.235  23.258 -0.0349 -0.0697  0.0706
 7681DDP     C146081  11.649  28.933   3.502 -0.3993  0.1198  0.0684
 7681DDP     P146082  11.411  28.701   3.186 -0.0574  0.0396 -0.0233
 7681DDP     P246083  12.065  28.916   3.451 -0.1801  0.2165  0.0249
 7681DDP     C246084  12.397  29.017   3.277  0.0730  0.0353 -0.2249
 7681DDP     C346085  11.464  28.627   2.681 -0.2818 -0.2630  0.1454
 7681DDP     C446086  11.481  29.253   3.855 -0.1287 -0.1925  0.1302
 7682DDP     C146087   8.249   1.055  16.245  0.2465 -0.1905  0.0384
 7682DDP     P146088   8.497   1.421  16.323  0.0852 -0.2698 -0.0484
 7682DDP     P246089   7.864   0.934  16.163 -0.1208 -0.0721 -0.3648
 7682DDP     C246090   7.512   0.653  16.304  0.2339  0.2877  0.0799
 7682DDP     C346091   8.831   1.729  16.265 -0.3804  0.2343  0.0916
 7682DDP     C446092   8.522   0.722  16.265  0.2668 -0.0537 -0.0241
 7683DDP     C146093  25.401   6.262   4.508  0.0067 -0.0560  0.0926
 7683DDP     P146094  25.244   6.335   4.946  0.1212 -0.1617 -0.0664
 7683DDP     P246095  25.251   6.328   4.130  0.3163 -0.0644  0.1479
 7683DDP     C246096  24.997   6.403   3.676 -0.1515  0.0454  0.0092
 7683DDP     C346097  25.173   6.176   5.335  0.3381 -0.2061  0.1492
 7683DDP     C446098  25.919   6.159   4.503 -0.0250  0.2775  0.0483
 7684DDP     C146099  11.049  10.840  10.122 -0.0016 -0.0926 -0.0806
 7684DDP     P146100  10.688  10.808  10.417 -0.0699  0.2061 -0.0001
 7684DDP     P246101  10.872  10.567   9.801 -0.2063 -0.2162 -0.2859
 7684DDP     C246102  10.660  10.586   9.362 -0.2293 -0.1141 -0.1460
 7684DDP     C346103  10.389  10.953  10.796 -0.0546 -0.1981 -0.4354
 7684DDP     C446104  11.461  10.873  10.186  0.2023  0.0276  0.2355
 7685DDP     C146105   6.548  16.709  12.664  0.0120 -0.0614  0.0826
 7685DDP     P146106   6.529  16.499  13.039  0.0010 -0.0356  0.2506
 7685DDP     P246107   6.557  17.268  12.774  0.2306  0.1550  0.3480
 7685DDP     C246108   6.571  17.674  12.883  0.2980  0.1898 -0.0604
 7685DDP     C346109   6.657  16.162  13.254 -0.1954  0.2319 -0.0011
 7685DDP     C446110   6.808  16.429  12.283  0.1291  0.1499  0.2458
 7686DDP     C146111  22.504   3.873  19.229  0.1350 -0.3453  0.1021
 7686DDP     P146112  22.220   3.755  19.500 -0.3953 -0.0913 -0.0396
 7686DDP     P246113  22.483   3.688  18.803  0.2860 -0.2245  0.4001
 7686DDP     C246114  22.392   3.626  18.344  0.0173 -0.0462  0.0615
 7686DDP     C346115  21.742   3.617  19.494  0.0294  0.3052  0.1449
 7686DDP     C446116  22.760   4.316  19.357 -0.0037  0.2502  0.1467
 7687DDP     C146117  13.694   0.303  29.049 -0.0444 -0.0721  0.0432
 7687DDP     P146118  13.553   0.589  28.662 -0.3788 -0.0177 -0.1020
 7687DDP     P246119  13.362   0.412  29.363 -0.0062  0.1914 -0.0670
 7687DDP     C246120  13.138   0.391  29.787  0.0868  0.0042  0.1284
 7687DDP     C346121  13.205   0.547  28.385 -0.1930 -0.2770  0.4495
 7687DDP     C446122  14.064   0.069  29.208  0.0407  0.0297 -0.1557
 7688DDP     C146123  29.404   8.178  17.729  0.0244 -0.1124 -0.1355
 7688DDP     P146124  29.735   7.883  17.843  0.1382  0.1337  0.1961
 7688DDP     P246125  29.259   8.497  18.052 -0.2097  0.0342 -0.0280
 7688DDP     C246126  28.981   8.834  18.122 -0.1023 -0.4497 -0.1970
 7688DDP     C346127  30.003   7.731  18.147 -0.2235  0.1178 -0.0365
 7688DDP     C446128  29.448   7.994  17.301 -0.4107 -0.0454 -0.0448
 7689DDP     C146129  17.799  26.811  16.467  0.1464 -0.0403 -0.1418
 7689DDP     P146130  17.601  26.568  16.328 -0.1260  0.0715  0.2082
 7689DDP     P246131  17.965  26.914  16.876 -0.2271  0.2174 -0.1934
 7689DDP     C246132  18.310  26.938  17.063  0.0804 -0.1010 -0.3862
 7689DDP     C346133  17.178  26.538  16.147  0.0654 -0.1903 -0.0773
 7689DDP     C446134  17.773  27.251  16.177  0.3884  0.2672 -0.0046
 7690DDP     C146135   4.596   6.979   1.633 -0.0930  0.0773  0.2990
 7690DDP     P146136   4.608   6.560   1.975  0.3856 -0.0845  0.1912
 7690DDP     P246137   4.981   7.093   1.389  0.0363  0.1387  0.1495
 7690DDP     C246138   5.299   6.967   1.073  0.0524 -0.1952  0.0841
 7690DDP     C346139   4.652   6.317   2.189  0.0404 -0.1022 -0.1166
 7690DDP     C446140   4.265   7.245   1.496  0.1207 -0.0906 -0.0922
 7691DDP     C146141  27.457  11.658  11.633 -0.2230  0.2770 -0.2258
 7691DDP     P146142  27.112  11.767  11.377  0.2129 -0.1919 -0.0588
 7691DDP     P246143  27.796  11.296  11.491 -0.1439  0.2181  0.3842
 7691DDP     C246144  27.896  11.324  11.080  0.0325  0.1077 -0.1215
 7691DDP     C346145  27.142  12.103  11.141 -0.2457  0.1326 -0.0611
 7691DDP     C446146  27.371  11.715  12.103 -0.0026 -0.0518  0.1923
 7692DDP     C146147  13.570  24.534  19.958 -0.0544  0.0214  0.0304
 7692DDP     P146148  14.031  24.623  19.897  0.0193 -0.1929 -0.2216
 7692DDP     P246149  13.585  24.669  20.262  0.0887  0.0348  0.0626
 7692DDP     C246150  13.693  24.412  20.627 -0.2278  0.1394  0.0310
 7692DDP     C346151  14.451  24.830  19.892  0.1156 -0.0477 -0.1672
 7692DDP     C446152  13.296  24.485  19.580  0.1826  0.2442  0.2179
 7693DDP     C146153  20.415   9.532   9.259 -0.1241  0.0397  0.2528
 7693DDP     P146154  20.770   9.388   9.346 -0.0412  0.3665  0.0035
 7693DDP     P246155  20.543   9.872   9.447  0.2506 -0.1087 -0.1752
 7693DDP     C246156  20.722  10.270   9.376  0.0605 -0.1177  0.0773
 7693DDP     C346157  21.109   9.200   9.126 -0.0048  0.0807  0.1416
 7693DDP     C446158  20.221   9.498   8.919 -0.1337 -0.2980  0.1892
 7694DDP     C146159  15.854  29.395  21.095  0.1484 -0.1703 -0.1581
 7694DDP     P146160  15.759  29.636  21.424 -0.3025 -0.3808  0.0309
 7694DDP     P246161  16.093  28.971  21.175 -0.0650 -0.0617  0.1904
 7694DDP     C246162  16.145  28.603  21.311  0.1644  0.1871  0.0331
 7694DDP     C346163  15.642  30.054  21.460  0.2105 -0.0289 -0.1670
 7694DDP     C446164  15.691  29.631  20.793 -0.1104 -0.0143 -0.1115
 7695DDP     C146165   9.031  14.642  11.221  0.2663 -0.3687  0.0195
 7695DDP     P146166   8.700  14.957  11.278  0.2011 -0.4796 -0.1748
 7695DDP     P246167   9.402  14.478  11.395  0.0613 -0.1141 -0.1995
 7695DDP     C246168   9.787  14.412  11.537  0.0255 -0.1227 -0.1708
 7695DDP     C346169   8.324  14.856  11.398 -0.2763 -0.3041  0.0370
 7695DDP     C446170   8.842  14.397  10.893 -0.2003 -0.0315  0.0801
 7696DDP     C146171   4.315  21.655   9.742  0.2051  0.1146 -0.4158
 7696DDP     P146172   4.151  21.701   9.290 -0.1927 -0.0108  0.1436
 7696DDP     P246173   4.367  21.330   9.895 -0.3301 -0.1488  0.2451
 7696DDP     C246174   4.006  21.087  10.031 -0.1994  0.1849 -0.0855
 7696DDP     C346175   3.979  21.837   8.908  0.2582  0.1763  0.2553
 7696DDP     C446176   4.243  21.926  10.016 -0.0994  0.0757  0.4333
 7697DDP     C146177  28.938  17.847   9.589  0.1537  0.2403 -0.0205
 7697DDP     P146178  29.232  17.450   9.510 -0.2034 -0.1502 -0.3451
 7697DDP     P246179  28.560  17.873   9.886  0.1617  0.0672  0.0258
 7697DDP     C246180  28.403  17.492  10.235  0.0542  0.0898  0.1217
 7697DDP     C346181  29.144  17.030   9.668 -0.2058 -0.0654 -0.1308
 7697DDP     C446182  29.182  18.199   9.593 -0.3286  0.1592 -0.0955
 7698DDP     C146183   1.589  26.501   5.876  0.1530  0.3968 -0.1413
 7698DDP     P146184   1.976  26.773   5.854 -0.0927  0.1188 -0.0712
 7698DDP     P246185   1.453  26.359   6.296 -0.0577  0.0106 -0.0905
 7698DDP     C246186   1.154  26.072   6.449  0.2609  0.0499  0.2752
 7698DDP     C346187   2.049  27.157   5.806 -0.1381  0.1611 -0.2595
 7698DDP     C446188   1.317  26.494   5.489  0.2112  0.2720 -0.0652
 7699DDP     C146189   0.668  11.680   9.423  0.0905 -0.2415 -0.0901
 7699DDP     P146190   0.523  11.651   9.824 -0.1439  0.2672  0.1794
 7699DDP     P246191   0.741  11.494   9.067  0.1532  0.2935 -0.1475
 7699DDP     C246192   0.842  11.418   8.712 -0.1040 -0.1265  0.3361
 7699DDP     C346193   0.262  11.822  10.122  0.1727 -0.2099  0.0239
 7699DDP     C446194   0.911  12.083   9.107 -0.1522  0.0468  0.1327
 7700DDP     C146195  15.781  20.966  29.195  0.0119  0.2424  0.2726
 7700DDP     P146196  15.626  20.979  29.602  0.0956  0.0621 -0.0896
 7700DDP     P246197  15.982  20.564  29.011 -0.1733  0.4431  0.0872
 7700DDP     C246198  16.328  20.301  28.930 -0.2251 -0.1706 -0.1194
 7700DDP     C346199  15.489  21.203  30.063  0.0045  0.0043 -0.2828
 7700DDP     C446200  15.643  21.261  28.956  0.0612 -0.0948 -0.0487
 7701DDP     C146201   7.295  27.334   1.016 -0.1258  0.1087  0.1823
 7701DDP     P146202   7.478  27.581   0.747  0.1850  0.0973 -0.1152
 7701DDP     P246203   6.978  27.082   1.125 -0.0803 -0.1072  0.1673
 7701DDP     C246204   6.514  26.992   1.230 -0.0988 -0.1459  0.0269
 7701DDP     C346205   7.851  27.820   0.681  0.1199  0.0272 -0.1776
 7701DDP     C446206   7.486  27.215   1.313  0.3171  0.1641 -0.0290
 7702DDP     C146207  22.831  25.791   9.176  0.1615  0.1224  0.0806
 7702DDP     P146208  22.909  25.407   8.977 -0.1085 -0.0953 -0.1961
 7702DDP     P246209  23.114  26.002   9.375 -0.0896  0.2654 -0.0090
 7702DDP     C246210  23.329  25.945   9.752  0.1463 -0.2461  0.0210
 7702DDP     C346211  22.884  24.949   9.032 -0.0657  0.0374 -0.2885
 7702DDP     C446212  22.393  25.956   9.178 -0.2251  0.1020 -0.2033
 7703DDP     C146213   6.128  15.504  15.450 -0.0137  0.0100  0.0625
 7703DDP     P146214   6.488  15.765  15.351 -0.0559 -0.2516  0.2748
 7703DDP     P246215   6.171  15.069  15.354  0.1265 -0.3668  0.0829
 7703DDP     C246216   5.757  14.820  15.223  0.0755 -0.0552  0.4083
 7703DDP     C346217   6.760  16.100  15.103 -0.0986 -0.0227 -0.0975
 7703DDP     C446218   5.740  15.785  15.505  0.3298 -0.0937 -0.0394
 7704DDP     C146219   8.352  29.272  26.043  0.2372  0.1851  0.0887
 7704DDP     P146220   8.258  28.852  26.099 -0.1765 -0.2022 -0.0433
 7704DDP     P246221   8.720  29.461  26.081  0.0195  0.0459  0.3994
 7704DDP     C246222   9.048  29.539  26.238  0.1612  0.1143  0.0724
 7704DDP     C346223   8.005  28.524  26.413  0.0823 -0.0083  0.2158
 7704DDP     C446224   7.950  29.425  25.731 -0.0324 -0.1566  0.0685
 7705DDP     C146225  11.312  26.713  22.660 -0.2095 -0.3916  0.1777
 7705DDP     P146226  10.907  26.714  23.031  0.0930 -0.2961  0.1546
 7705DDP     P246227  11.651  26.966  22.666  0.1326  0.0606  0.2382
 7705DDP     C246228  11.572  27.485  22.837 -0.2017  0.0018 -0.1194
 7705DDP     C346229  10.584  26.854  23.348  0.0638 -0.0068  0.0933
 7705DDP     C446230  11.182  26.422  22.357 -0.1335  0.1932  0.3123
 7706DDP     C146231  20.346  25.113   9.563 -0.3503  0.2110 -0.0212
 7706DDP     P146232  20.555  25.107   9.165  0.1618  0.3532 -0.0941
 7706DDP     P246233  20.614  25.020   9.906  0.3584  0.0168 -0.2145
 7706DDP     C246234  20.980  25.194  10.111 -0.2338 -0.0166 -0.1348
 7706DDP     C346235  20.976  25.133   9.063 -0.2424 -0.2753 -0.2441
 7706DDP     C446236  19.988  25.434   9.693  0.0419 -0.2095  0.3703
 7707DDP     C146237  20.965  26.293   6.994  0.0892  0.2165  0.2674
 7707DDP     P146238  21.050  26.278   7.504  0.0071 -0.1249  0.0198
 7707DDP     P246239  20.477  26.453   7.028 -0.0196 -0.0089  0.0479
 7707DDP     C246240  20.224  26.748   7.232  0.1378 -0.0339 -0.1461
 7707DDP     C346241  21.239  26.565   7.713 -0.4065 -0.1057 -0.0446
 7707DDP     C446242  21.291  26.473   6.714 -0.0124 -0.0916  0.1301
 7708DDP     C146243   1.088  15.948   9.776 -0.1173  0.1014 -0.3473
 7708DDP     P146244   0.754  15.935  10.068 -0.1364  0.1306 -0.1899
 7708DDP     P246245   1.324  15.557   9.887  0.0093 -0.0185 -0.0960
 7708DDP     C246246   1.768  15.533   9.810  0.1945  0.0109  0.4520
 7708DDP     C346247   0.473  16.064  10.474 -0.2398  0.1890 -0.1331
 7708DDP     C446248   1.255  16.240   9.492 -0.0957 -0.2644 -0.1847
 7709DDP     C146249  28.637  12.275   0.589  0.1895 -0.2074 -0.1599
 7709DDP     P146250  29.043  12.477   0.827 -0.1736 -0.0621 -0.1779
 7709DDP     P246251  28.437  12.633   0.689 -0.0290 -0.0713 -0.0990
 7709DDP     C246252  27.996  12.782   0.661  0.0316 -0.1074  0.1786
 7709DDP     C346253  29.475  12.566   0.983 -0.1510  0.0265  0.0438
 7709DDP     C446254  28.516  11.981   0.375  0.2893  0.1735 -0.0603
 7710DDP     C146255  12.572  28.786  21.543 -0.0849  0.2595 -0.0351
 7710DDP     P146256  12.598  28.347  21.658  0.1353 -0.0806  0.1403
 7710DDP     P246257  13.015  28.933  21.344  0.3803 -0.1110 -0.0972
 7710DDP     C246258  13.454  28.884  21.473 -0.0106 -0.0558  0.0730
 7710DDP     C346259  12.260  28.007  21.571 -0.1449  0.1990  0.0449
 7710DDP     C446260  12.329  29.167  21.551 -0.1233 -0.1867 -0.1446
 7711DDP     C146261   1.587  29.240   0.333 -0.1339  0.2934  0.0042
 7711DDP     P146262   1.517  29.295   0.784  0.1664 -0.1045 -0.1433
 7711DDP     P246263   1.721  29.542   0.129  0.0618 -0.1113 -0.0884
 7711DDP     C246264   1.792  29.960   0.274 -0.0271 -0.0824 -0.0144
 7711DDP     C346265   1.704  29.572   1.187 -0.0475  0.0475 -0.2906
 7711DDP     C446266   1.357  29.047   0.058 -0.0425 -0.0491 -0.1562
 7712DDP     C146267  13.455  10.141  14.056  0.3093 -0.0104  0.0867
 7712DDP     P146268  13.099  10.364  14.182  0.0221  0.1225 -0.1519
 7712DDP     P246269  13.759  10.493  14.009  0.3041 -0.0439 -0.1504
 7712DDP     C246270  14.079  10.691  14.239  0.0358  0.1040  0.0455
 7712DDP     C346271  12.765  10.599  14.349  0.1151 -0.1548  0.0372
 7712DDP     C446272  13.527   9.762  14.012 -0.1016  0.0302 -0.1221
 7713DDP     C146273  13.782  24.206  22.348  0.0622 -0.1847 -0.0660
 7713DDP     P146274  13.830  24.584  22.543  0.2241  0.1965  0.0228
 7713DDP     P246275  13.587  24.243  21.905  0.1113 -0.0442  0.1490
 7713DDP     C246276  13.527  24.593  21.716 -0.1996 -0.0029  0.2195
 7713DDP     C346277  14.128  24.595  22.809  0.0981  0.1632  0.3201
 7713DDP     C446278  14.105  23.923  22.373 -0.2318 -0.1925 -0.3577
 7714DDP     C146279   3.944   0.254  24.977  0.0078  0.0589  0.0495
 7714DDP     P146280   3.966  30.228  24.857 -0.0584 -0.2671  0.1336
 7714DDP     P246281   3.788   0.204  25.492 -0.2553 -0.1024 -0.0314
 7714DDP     C246282   3.560   0.376  25.719 -0.0363  0.1397 -0.0355
 7714DDP     C346283   4.220  30.030  24.558  0.0000 -0.2875 -0.1435
 7714DDP     C446284   3.898   0.605  24.675 -0.0446 -0.2712 -0.0785
 7715DDP     C146285  23.922  14.646  28.214 -0.0839  0.1135 -0.0627
 7715DDP     P146286  23.805  14.771  28.657 -0.1206  0.0534 -0.0077
 7715DDP     P246287  23.669  14.621  27.951 -0.1656 -0.0236  0.1328
 7715DDP     C246288  23.393  14.961  27.817  0.2630  0.0420  0.0491
 7715DDP     C346289  23.948  14.632  29.079  0.1403  0.2794 -0.0401
 7715DDP     C446290  24.229  14.366  28.015 -0.2863 -0.0511  0.2857
 7716DDP     C146291  12.739  23.594   8.399 -0.0080 -0.3146 -0.0187
 7716DDP     P146292  13.025  23.553   8.028  0.1050 -0.3209 -0.0171
 7716DDP     P246293  12.825  23.781   8.761 -0.3913  0.1886 -0.1869
 7716DDP     C246294  12.577  24.151   9.017  0.2462 -0.1811  0.1332
 7716DDP     C346295  13.391  23.361   7.833  0.1569 -0.1156 -0.0353
 7716DDP     C446296  12.392  23.549   8.246 -0.0908 -0.3718  0.0056
 7717DDP     C146297  18.181   3.204  20.231  0.0537 -0.0178  0.1025
 7717DDP     P146298  17.957   3.596  19.909 -0.0493 -0.2909 -0.1593
 7717DDP     P246299  18.562   2.967  20.007  0.0352  0.1300  0.4559
 7717DDP     C246300  18.929   3.185  19.969  0.0256  0.2239 -0.0196
 7717DDP     C346301  17.756   3.887  19.749  0.0243  0.0651 -0.0304
 7717DDP     C446302  18.140   3.128  20.638 -0.0895 -0.1689  0.0602
 7718DDP     C146303   7.017   1.463   8.775 -0.2827 -0.1066 -0.1679
 7718DDP     P146304   7.200   1.885   8.753  0.0625 -0.2539 -0.0152
 7718DDP     P246305   6.540   1.592   8.673  0.0619 -0.0297  0.4309
 7718DDP     C246306   6.047   1.634   8.768 -0.1992 -0.4099  0.0210
 7718DDP     C346307   7.261   2.231   8.409 -0.0208  0.2541 -0.2279
 7718DDP     C446308   7.186   1.041   8.754 -0.1177  0.1331 -0.0490
 7719DDP     C146309  16.800   4.158   2.843 -0.0362  0.0444  0.0478
 7719DDP     P146310  17.152   3.862   2.874 -0.3739 -0.1823 -0.1684
 7719DDP     P246311  16.889   4.515   3.026 -0.0393 -0.1261  0.0228
 7719DDP     C246312  16.878   4.968   2.869  0.0697 -0.0564  0.1741
 7719DDP     C346313  17.341   3.443   2.868 -0.0805  0.2144  0.0719
 7719DDP     C446314  16.516   4.009   2.656 -0.1496 -0.0955 -0.3210
 7720DDP     C146315  11.297   8.930   3.717  0.0965  0.1206  0.1033
 7720DDP     P146316  11.187   9.173   3.353  0.0054 -0.4097 -0.4722
 7720DDP     P246317  11.009   8.961   4.032  0.1896  0.0757 -0.5381
 7720DDP     C246318  11.113   8.664   4.384 -0.0457  0.1765  0.2425
 7720DDP     C346319  11.040   9.166   3.060  0.5800  0.5615  0.1389
 7720DDP     C446320  11.399   8.557   3.490 -0.0612  0.0894 -0.1265
 7721DDP     C146321  24.410   8.801  15.395  0.1548 -0.0782  0.1828
 7721DDP     P146322  24.762   8.586  15.379 -0.2930  0.0181 -0.2806
 7721DDP     P246323  24.143   8.475  15.082  0.1918  0.0990  0.0818
 7721DDP     C246324  23.887   8.178  15.176  0.2755  0.1983  0.1451
 7721DDP     C346325  25.080   8.394  15.170  0.2120  0.0149  0.1503
 7721DDP     C446326  24.269   9.132  15.145  0.0335 -0.1171 -0.0552
 7722DDP     C146327  29.761  27.304   8.919 -0.1182 -0.0738  0.2161
 7722DDP     P146328  30.168  27.221   9.046  0.0069 -0.0906 -0.0821
 7722DDP     P246329  29.577  27.458   9.311 -0.0646  0.1020 -0.4358
 7722DDP     C246330  29.112  27.633   9.520  0.1937  0.3061  0.1177
 7722DDP     C346331   0.119  27.079   9.381 -0.2126 -0.1741 -0.1895
 7722DDP     C446332  29.538  27.152   8.536  0.1218  0.1592 -0.1171
 7723DDP     C146333  14.712  13.682  19.914  0.2098 -0.0888 -0.3149
 7723DDP     P146334  15.005  13.939  19.794 -0.2358  0.0549  0.2026
 7723DDP     P246335  14.499  13.418  19.714 -0.0582 -0.0340 -0.0680
 7723DDP     C246336  14.266  13.416  19.380 -0.3530  0.2141  0.3154
 7723DDP     C346337  15.423  13.924  19.606 -0.1637  0.0188 -0.2875
 7723DDP     C446338  14.763  13.726  20.310 -0.0816 -0.3335  0.0129
 7724DDP     C146339  27.352   0.293  19.743  0.0528  0.2085  0.1372
 7724DDP     P146340  27.645   0.488  19.552  0.0165 -0.1875 -0.0990
 7724DDP     P246341  27.090   0.494  19.549  0.2322  0.1915  0.0399
 7724DDP     C246342  26.964   0.716  19.202 -0.1745 -0.0253 -0.0100
 7724DDP     C346343  28.005   0.436  19.253 -0.1032 -0.0228 -0.0562
 7724DDP     C446344  27.320  30.313  19.989 -0.2553  0.1032  0.1064
 7725DDP     C146345  25.794  24.858  25.517 -0.2137  0.0178 -0.2308
 7725DDP     P146346  25.892  24.498  25.290  0.1088  0.0192 -0.2347
 7725DDP     P246347  26.218  25.084  25.618  0.1493  0.0434  0.0054
 7725DDP     C246348  26.469  25.335  25.437  0.3124 -0.0061  0.2285
 7725DDP     C346349  25.675  24.348  24.929 -0.7032 -0.0375 -0.3553
 7725DDP     C446350  25.501  24.914  25.825  0.0803  0.0614  0.0662
 7726DDP     C146351  24.482  29.262   3.136  0.1163  0.0999  0.0146
 7726DDP     P146352  24.354  29.629   2.863 -0.0595 -0.3243  0.0643
 7726DDP     P246353  24.863  29.189   3.319  0.0253  0.0381 -0.0359
 7726DDP     C246354  24.963  29.003   3.744 -0.0114  0.0635  0.2512
 7726DDP     C346355  24.227  29.655   2.473  0.0166 -0.1186  0.2272
 7726DDP     C446356  24.204  28.860   3.181  0.1801  0.4607  0.1209
 7727DDP     C146357  18.241   5.575   8.997 -0.0111 -0.0564 -0.2441
 7727DDP     P146358  17.979   5.223   8.916  0.2116  0.2646  0.1743
 7727DDP     P246359  18.137   5.660   9.353 -0.1974  0.2090 -0.0742
 7727DDP     C246360  17.639   5.728   9.337  0.0483  0.2308  0.1230
 7727DDP     C346361  17.644   4.970   8.764 -0.0532 -0.0291  0.1591
 7727DDP     C446362  18.569   5.797   8.982 -0.1864  0.1570 -0.0273
 7728DDP     C146363   2.163  10.929  28.844  0.2288  0.2199  0.0933
 7728DDP     P146364   2.183  10.865  28.413  0.1445 -0.1685  0.2178
 7728DDP     P246365   1.711  11.263  28.851  0.0798  0.1441  0.1889
 7728DDP     C246366   1.424  11.161  29.027 -0.0138 -0.0103 -0.1819
 7728DDP     C346367   2.303  11.001  28.013 -0.0741  0.1012 -0.2547
 7728DDP     C446368   2.501  10.849  29.106  0.2078 -0.1318  0.0506
 7729DDP     C146369   3.052  12.491   7.617 -0.0513  0.2328  0.1013
 7729DDP     P146370   3.495  12.581   7.490 -0.1487 -0.3865  0.1139
 7729DDP     P246371   2.705  12.369   7.436  0.2334 -0.2027  0.1472
 7729DDP     C246372   2.528  12.072   7.219 -0.0857 -0.4296 -0.1898
 7729DDP     C346373   3.784  12.637   7.168 -0.1329  0.0329 -0.0600
 7729DDP     C446374   3.142  12.513   8.062  0.0107  0.1504  0.2620
 7730DDP     C146375   6.000  12.235  26.382  0.1135  0.1176  0.0069
 7730DDP     P146376   6.281  12.502  26.194 -0.1499 -0.1862 -0.1996
 7730DDP     P246377   5.577  12.162  26.095 -0.0559  0.0088  0.2546
 7730DDP     C246378   5.197  12.399  25.959 -0.2014  0.1296 -0.0807
 7730DDP     C346379   6.647  12.780  26.090  0.0598  0.2973 -0.3260
 7730DDP     C446380   6.021  12.060  26.776  0.0477  0.1435  0.3141
 7731DDP     C146381  13.399  25.406  24.005 -0.2850  0.0053 -0.0943
 7731DDP     P146382  13.684  25.179  24.014  0.4450  0.0564 -0.1735
 7731DDP     P246383  13.329  25.553  24.458 -0.1671 -0.1049  0.2128
 7731DDP     C246384  12.972  25.801  24.687  0.0103  0.0608  0.2091
 7731DDP     C346385  13.900  24.852  24.176 -0.0079 -0.0036  0.4885
 7731DDP     C446386  13.118  25.367  23.658 -0.0751 -0.1739 -0.0461
 7732DDP     C146387  14.920  26.905  14.205  0.1583  0.2551 -0.0633
 7732DDP     P146388  15.320  26.811  13.921 -0.3700 -0.3338 -0.4095
 7732DDP     P246389  15.040  26.723  14.523 -0.1248 -0.0499  0.2036
 7732DDP     C246390  14.928  26.726  14.997 -0.1468 -0.3765  0.0452
 7732DDP     C346391  15.482  26.368  13.844 -0.2828  0.0504  0.0871
 7732DDP     C446392  14.535  27.138  14.057  0.1035  0.1511 -0.0828
 7733DDP     C146393  13.545  27.210   5.769 -0.2307 -0.0035  0.2740
 7733DDP     P146394  13.786  27.494   5.639 -0.2323  0.1604 -0.1527
 7733DDP     P246395  13.223  27.351   5.977  0.1060 -0.0183 -0.0944
 7733DDP     C246396  12.855  27.094   5.906  0.1206 -0.0761 -0.3357
 7733DDP     C346397  14.084  27.604   5.258  0.1497 -0.0352 -0.1357
 7733DDP     C446398  13.441  26.925   5.586 -0.0853  0.0269  0.2324
 7734DDP     C146399  10.155  10.824   0.296  0.2197 -0.1624 -0.1395
 7734DDP     P146400   9.950  11.194   0.472 -0.0128 -0.1337  0.0373
 7734DDP     P246401  10.383  10.636   0.590  0.0668 -0.2153  0.1493
 7734DDP     C246402  10.481  10.341   0.823  0.4846  0.2300  0.0269
 7734DDP     C346403   9.952  11.615   0.417  0.0198  0.1214  0.1077
 7734DDP     C446404   9.895  10.682  30.307  0.2922 -0.1485  0.1488
 7735DDP     C146405  13.222   6.100  23.627  0.0625 -0.1016  0.1995
 7735DDP     P146406  13.422   6.306  23.352  0.1195 -0.0012 -0.0281
 7735DDP     P246407  13.136   5.655  23.650  0.1078  0.3622 -0.0167
 7735DDP     C246408  13.115   5.363  23.948 -0.1355  0.1939  0.0718
 7735DDP     C346409  13.424   6.715  23.264 -0.1628 -0.1429  0.3768
 7735DDP     C446410  13.073   6.373  23.904 -0.0750 -0.0158 -0.2063
 7736DDP     C146411  28.020   4.681   0.108 -0.0826 -0.0338 -0.0138
 7736DDP     P146412  27.849   4.398   0.479 -0.2810 -0.0461  0.0027
 7736DDP     P246413  28.069   5.040   0.218 -0.0209  0.2987 -0.1117
 7736DDP     C246414  28.383   5.129   0.655  0.0182  0.2014 -0.1893
 7736DDP     C346415  27.858   4.305   0.925 -0.0791 -0.1928 -0.0423
 7736DDP     C446416  27.934   4.770  29.972  0.0190 -0.1900 -0.4557
 7737DDP     C146417  16.641   3.122   6.924 -0.1641  0.2519  0.3438
 7737DDP     P146418  16.526   2.798   6.627  0.0847 -0.1855 -0.0865
 7737DDP     P246419  16.695   3.292   7.332  0.1087  0.0372 -0.0229
 7737DDP     C246420  17.019   3.460   7.574  0.0589 -0.0628  0.1511
 7737DDP     C346421  16.291   2.692   6.230  0.0823  0.0151 -0.1716
 7737DDP     C446422  16.877   3.304   6.574  0.1377 -0.2125  0.0093
 7738DDP     C146423  18.536  18.284  26.296  0.1199 -0.3194  0.1226
 7738DDP     P146424  18.511  18.430  25.936  0.2361 -0.0824 -0.2103
 7738DDP     P246425  18.650  18.506  26.576  0.0569  0.1481 -0.0135
 7738DDP     C246426  18.791  18.360  26.861  0.3045  0.1619  0.3006
 7738DDP     C346427  18.315  18.650  25.615  0.0993 -0.1479  0.3281
 7738DDP     C446428  18.450  17.892  26.402 -0.1729 -0.1868  0.1074
 7739DDP     C146429  25.916  21.666  29.901  0.0099 -0.4137 -0.2768
 7739DDP     P146430  25.849  21.576  30.310  0.0187 -0.1526  0.2679
 7739DDP     P246431  26.086  22.046  29.766  0.0498 -0.0482 -0.0960
 7739DDP     C246432  26.439  22.218  29.896  0.1965 -0.1877 -0.1211
 7739DDP     C346433  25.849  21.212   0.250  0.0849  0.2333 -0.0509
 7739DDP     C446434  26.015  21.420  29.507  0.1277 -0.1285  0.0890
 7740DDP     C146435  21.819   7.928  23.898  0.1224 -0.2606  0.0874
 7740DDP     P146436  22.219   8.028  24.036 -0.0673 -0.1673 -0.0052
 7740DDP     P246437  21.601   8.162  23.549  0.1534 -0.2337 -0.0364
 7740DDP     C246438  21.430   8.100  23.182  0.0596 -0.3329 -0.2989
 7740DDP     C346439  22.522   8.156  24.368  0.1964 -0.0267  0.3206
 7740DDP     C446440  21.621   7.553  23.897 -0.1113  0.0889 -0.0518
 7741DDP     C146441  28.079   9.289  11.190 -0.1749  0.0074 -0.2536
 7741DDP     P146442  28.512   9.519  11.272  0.0657  0.1143  0.1617
 7741DDP     P246443  27.923   8.911  11.377 -0.0267  0.3280  0.0556
 7741DDP     C246444  28.333   8.635  11.478 -0.0190 -0.1968 -0.1057
 7741DDP     C346445  28.836   9.694  10.988  0.1324  0.0853 -0.0223
 7741DDP     C446446  27.959   9.321  10.716  0.0214 -0.0497  0.1814
 7742DDP     C146447  11.041  26.669   6.815  0.2930  0.0116  0.0186
 7742DDP     P146448  11.309  26.282   6.922  0.1911 -0.1491 -0.0558
 7742DDP     P246449  10.732  26.842   7.082  0.1901  0.2731 -0.1771
 7742DDP     C246450  10.525  27.200   7.270 -0.0157  0.2556 -0.1291
 7742DDP     C346451  11.762  26.155   6.927  0.1293 -0.1088 -0.2981
 7742DDP     C446452  11.111  26.740   6.305  0.2394  0.0448  0.1502
 7743DDP     C146453  23.679  18.050  21.489  0.2091 -0.3586 -0.1830
 7743DDP     P146454  23.720  17.941  21.149  0.0540 -0.1794  0.2447
 7743DDP     P246455  23.829  18.538  21.436 -0.0385 -0.0478  0.2584
 7743DDP     C246456  23.823  19.024  21.167  0.1205  0.0519 -0.1796
 7743DDP     C346457  24.094  18.209  21.068 -0.0672 -0.0597 -0.1115
 7743DDP     C446458  23.642  17.899  21.904 -0.3045 -0.0349 -0.0140
 7744DDP     C146459  16.899  23.649  27.965 -0.2698 -0.2436  0.0905
 7744DDP     P146460  16.679  23.361  28.291  0.0444  0.1507 -0.3378
 7744DDP     P246461  17.269  23.520  27.816 -0.2652 -0.0344 -0.0002
 7744DDP     C246462  17.635  23.685  27.635  0.2749  0.1736 -0.0131
 7744DDP     C346463  16.512  23.093  28.583 -0.2102 -0.0866 -0.1121
 7744DDP     C446464  16.964  24.068  28.209 -0.0056  0.1439 -0.3125
 7745DDP     C146465  30.041  29.136  18.630 -0.0026 -0.2615  0.1969
 7745DDP     P146466  30.199  29.427  18.468 -0.1135  0.0846 -0.0191
 7745DDP     P246467  30.110  28.776  18.315 -0.0963 -0.2272 -0.4309
 7745DDP     C246468  30.149  28.690  17.897  0.0655  0.0698 -0.2614
 7745DDP     C346469   0.361  29.633  18.485 -0.2836 -0.0547  0.1706
 7745DDP     C446470  29.995  29.146  19.096  0.0514  0.2528 -0.1838
 7746DDP     C146471  18.367  18.834  22.218 -0.1128 -0.1424  0.1399
 7746DDP     P146472  18.393  18.789  22.603  0.4603 -0.0366  0.1294
 7746DDP     P246473  18.543  19.211  21.982 -0.1360 -0.2387  0.3397
 7746DDP     C246474  18.611  19.650  21.896 -0.1165  0.1374  0.3358
 7746DDP     C346475  18.143  18.606  22.858 -0.0608  0.1867  0.3671
 7746DDP     C446476  18.431  18.397  22.043  0.1024 -0.2370  0.1364
 7747DDP     C146477  24.328   2.802   5.219  0.2316 -0.0124  0.1145
 7747DDP     P146478  24.500   3.028   4.998 -0.1908  0.4312  0.0258
 7747DDP     P246479  24.491   2.331   5.309  0.2253 -0.4752 -0.0861
 7747DDP     C246480  24.309   2.027   5.650  0.2898 -0.2656  0.1573
 7747DDP     C346481  24.683   3.438   4.850  0.2244 -0.3171  0.4447
 7747DDP     C446482  24.203   3.077   5.511 -0.2662  0.0338  0.0431
 7748DDP     C146483  14.688  26.066  27.407 -0.0226  0.0294 -0.0655
 7748DDP     P146484  15.036  25.824  27.158  0.2617  0.0543  0.0840
 7748DDP     P246485  14.254  26.175  27.192 -0.2601  0.0886  0.1570
 7748DDP     C246486  13.942  25.946  27.010 -0.4127  0.4876  0.1524
 7748DDP     C346487  15.283  25.978  26.683 -0.1489 -0.1369 -0.1185
 7748DDP     C446488  14.772  26.282  27.891 -0.2316 -0.0474 -0.1580
 7749DDP     C146489  29.352  18.634  22.270 -0.0008 -0.2646  0.0078
 7749DDP     P146490  29.413  18.774  21.752  0.1698  0.0691 -0.1266
 7749DDP     P246491  28.912  18.683  22.350 -0.2337  0.1698 -0.0565
 7749DDP     C246492  28.565  18.478  22.474  0.2236 -0.0086  0.1364
 7749DDP     C346493  29.407  18.477  21.530  0.0429  0.1101 -0.1305
 7749DDP     C446494  29.667  18.440  22.538  0.1193 -0.0272 -0.2583
 7750DDP     C146495  20.418   5.297  23.203 -0.5684 -0.0903 -0.5941
 7750DDP     P146496  20.547   4.874  23.154  0.1221  0.0926 -0.3599
 7750DDP     P246497  19.978   5.435  23.291  0.0410 -0.1740 -0.2686
 7750DDP     C246498  19.580   5.338  23.401  0.0220 -0.2316  0.1616
 7750DDP     C346499  21.050   4.813  23.131 -0.1065 -0.4359  0.0613
 7750DDP     C446500  20.799   5.529  23.113 -0.1440 -0.0099  0.1369
 7751DDP     C146501   5.355   7.802   5.959 -0.0488 -0.2559  0.0649
 7751DDP     P146502   5.518   7.421   6.029 -0.1246 -0.2007 -0.1813
 7751DDP     P246503   5.699   8.085   5.825  0.1061  0.0344 -0.1830
 7751DDP     C246504   5.793   8.289   5.498 -0.2498  0.0911  0.3227
 7751DDP     C346505   5.795   7.127   6.001 -0.1594 -0.1425  0.1866
 7751DDP     C446506   5.033   7.930   6.019 -0.0319  0.0531  0.1689
 7752DDP     C146507   1.203  17.535  15.048  0.0426  0.2250 -0.0051
 7752DDP     P146508   1.081  17.921  14.959  0.1008 -0.3023  0.0824
 7752DDP     P246509   1.135  17.180  14.792  0.0265 -0.1172  0.3637
 7752DDP     C246510   1.265  16.901  14.436  0.2127 -0.0957  0.2930
 7752DDP     C346511   1.423  18.248  14.743 -0.0036 -0.2913 -0.0275
 7752DDP     C446512   1.370  17.345  15.447  0.1493  0.3026  0.0241
 7753DDP     C146513   2.434  23.092  23.109 -0.0172  0.0056 -0.0228
 7753DDP     P146514   2.093  23.328  23.273  0.2900 -0.2013 -0.2177
 7753DDP     P246515   2.806  22.915  23.186  0.1988  0.3679  0.4370
 7753DDP     C246516   3.134  22.860  22.858 -0.0410 -0.2690 -0.0569
 7753DDP     C346517   1.885  23.645  23.431 -0.0187  0.1180 -0.0169
 7753DDP     C446518   2.234  22.900  22.984 -0.0265  0.1172  0.2812
 7754DDP     C146519   8.153  27.814  27.592 -0.1678  0.0558 -0.0021
 7754DDP     P146520   7.903  27.835  27.887  0.1107 -0.0135 -0.1575
 7754DDP     P246521   8.469  28.157  27.567  0.0609  0.1124  0.1200
 7754DDP     C246522   8.556  28.530  27.846 -0.2023 -0.3563 -0.0870
 7754DDP     C346523   7.825  27.999  28.261 -0.3369  0.1416  0.1883
 7754DDP     C446524   8.071  27.652  27.155 -0.1910  0.1947  0.1500
 7755DDP     C146525  26.549  19.996   1.418 -0.0729  0.1056  0.0842
 7755DDP     P146526  26.476  20.304   1.142 -0.0441  0.0383 -0.2122
 7755DDP     P246527  26.874  19.763   1.214  0.0560  0.3313 -0.2288
 7755DDP     C246528  27.052  19.693   0.822 -0.3585  0.2000 -0.0562
 7755DDP     C346529  26.444  20.388   0.689  0.3777  0.2792 -0.0630
 7755DDP     C446530  26.458  19.939   1.810 -0.1033  0.0795  0.2486
 7756DDP     C146531  22.089  30.152  17.035 -0.2249  0.0628 -0.2733
 7756DDP     P146532  22.438   0.153  17.031 -0.1241 -0.1491  0.1443
 7756DDP     P246533  22.044  29.880  17.312 -0.0363  0.1002  0.1230
 7756DDP     C246534  21.815  29.454  17.424 -0.0198  0.0411 -0.2945
 7756DDP     C346535  22.705   0.543  17.270  0.0962  0.0989  0.1166
 7756DDP     C446536  21.785  30.248  16.720 -0.0082 -0.0674  0.0534
 7757DDP     C146537   7.443   9.945  11.293  0.1743 -0.2858 -0.2151
 7757DDP     P146538   7.570   9.884  10.817  0.1141 -0.0880  0.1237
 7757DDP     P246539   7.059   9.653  11.495 -0.1725  0.0607 -0.1651
 7757DDP     C246540   6.632   9.822  11.523 -0.0727  0.1206 -0.1127
 7757DDP     C346541   7.983   9.960  10.669  0.3053 -0.0261  0.2775
 7757DDP     C446542   7.722  10.206  11.561 -0.0381 -0.1995 -0.5015
 7758DDP     C146543  18.502   4.723  10.089  0.3059 -0.0037 -0.0521
 7758DDP     P146544  18.163   4.904  10.358  0.3608  0.1099 -0.4138
 7758DDP     P246545  18.821   4.923   9.812 -0.0414  0.1597  0.1239
 7758DDP     C246546  19.016   5.252   9.692  0.1020 -0.3624 -0.0108
 7758DDP     C346547  17.810   4.708  10.619  0.2745  0.2196 -0.2515
 7758DDP     C446548  18.368   4.278  10.082 -0.1462  0.2512  0.1230
 7759DDP     C146549  22.599   3.072  28.946  0.1239 -0.4791 -0.1552
 7759DDP     P146550  22.580   3.342  29.244  0.0496 -0.0330 -0.2331
 7759DDP     P246551  22.335   2.800  28.995  0.3776  0.0357 -0.1366
 7759DDP     C246552  21.985   2.717  29.087 -0.2360 -0.3152 -0.0606
 7759DDP     C346553  22.360   3.623  29.453  0.3162 -0.1855 -0.0242
 7759DDP     C446554  22.779   3.067  28.589 -0.2272  0.4465 -0.0722
 7760DDP     C146555  14.992   4.378   2.979 -0.1953  0.3027 -0.1367
 7760DDP     P146556  15.376   4.556   2.942 -0.0077 -0.3033  0.2137
 7760DDP     P246557  14.949   3.966   3.040  0.2639 -0.3002  0.0365
 7760DDP     C246558  15.140   3.567   3.124  0.0512 -0.2123  0.3074
 7760DDP     C346559  15.561   4.905   2.836  0.0606  0.0276 -0.1287
 7760DDP     C446560  14.756   4.626   2.849 -0.0836  0.1564  0.0803
 7761DDP     C146561   9.639  18.509  28.172 -0.0125 -0.1301 -0.0239
 7761DDP     P146562   9.870  18.303  28.489  0.0119  0.1916  0.0584
 7761DDP     P246563   9.263  18.334  28.039 -0.1255  0.2026  0.1254
 7761DDP     C246564   9.070  17.900  28.062 -0.1048 -0.1574 -0.1533
 7761DDP     C346565  10.070  18.505  28.856  0.0982 -0.1773 -0.1785
 7761DDP     C446566   9.685  18.929  28.290  0.0306 -0.1311 -0.0674
 7762DDP     C146567  15.182  16.170  28.082  0.1621 -0.1075 -0.0634
 7762DDP     P146568  15.665  16.164  27.953  0.0863 -0.2499 -0.0578
 7762DDP     P246569  14.876  16.169  27.756  0.2380  0.0365  0.2609
 7762DDP     C246570  14.569  16.338  27.401  0.1669  0.1143 -0.0682
 7762DDP     C346571  15.939  15.823  27.960  0.0437  0.2875 -0.0299
 7762DDP     C446572  15.174  16.123  28.548  0.1259 -0.1126 -0.1780
 7763DDP     C146573   0.723  15.793   9.472 -0.0327 -0.0766 -0.2480
 7763DDP     P146574   0.648  16.124   9.529 -0.2566 -0.0731 -0.3367
 7763DDP     P246575   0.781  15.509   9.749 -0.2966  0.0875 -0.2578
 7763DDP     C246576   1.061  15.185   9.711  0.3378 -0.0806 -0.3305
 7763DDP     C346577   0.820  16.402   9.640  0.2286  0.2502 -0.5346
 7763DDP     C446578   0.840  15.753   9.079  0.0286  0.1617  0.0374
 7764DDP     C146579  24.502  23.358  28.791  0.1192 -0.1395 -0.1850
 7764DDP     P146580  24.105  23.603  28.942 -0.0671  0.2483 -0.1078
 7764DDP     P246581  24.410  23.352  28.402  0.1649  0.0070  0.0478
 7764DDP     C246582  24.574  23.403  27.943  0.0325  0.0870  0.0710
 7764DDP     C346583  23.766  23.859  28.907  0.1422 -0.2613 -0.0830
 7764DDP     C446584  24.838  23.223  29.109 -0.4929  0.0063 -0.0089
 7765DDP     C146585  11.466   9.927  12.820 -0.3749  0.1396 -0.0095
 7765DDP     P146586  11.740   9.651  12.553  0.1887 -0.0946  0.2149
 7765DDP     P246587  11.477   9.974  13.168  0.0895 -0.0151 -0.1890
 7765DDP     C246588  11.423  10.320  13.541 -0.1492 -0.0864 -0.0858
 7765DDP     C346589  12.009   9.353  12.484  0.0407 -0.1593  0.1994
 7765DDP     C446590  11.224  10.231  12.684 -0.2849  0.1954 -0.2116
 7766DDP     C146591   0.455   0.572  15.274  0.0243 -0.1346  0.1545
 7766DDP     P146592   0.722   0.359  15.634  0.0044  0.1158 -0.1213
 7766DDP     P246593   0.290   0.264  14.978  0.1628  0.0771 -0.2772
 7766DDP     C246594   0.075   0.059  14.642 -0.0978  0.0989  0.0221
 7766DDP     C346595   0.807  30.356  15.674  0.1580  0.1214 -0.0846
 7766DDP     C446596   0.396   1.059  15.393 -0.1114  0.1176 -0.0239
 7767DDP     C146597   7.811  16.119  14.595 -0.1228  0.0137  0.1391
 7767DDP     P146598   7.645  16.581  14.476 -0.0344  0.0081  0.2100
 7767DDP     P246599   8.197  15.995  14.914  0.2182  0.0687  0.2088
 7767DDP     C246600   8.452  15.952  15.233  0.0594 -0.3891 -0.0902
 7767DDP     C346601   7.466  16.718  14.773  0.3653 -0.0398 -0.1882
 7767DDP     C446602   7.523  15.835  14.645 -0.0436  0.2760  0.4437
 7768DDP     C146603   1.750   9.353   4.995  0.0500 -0.1586  0.0148
 7768DDP     P146604   1.758   9.595   5.409 -0.0319 -0.2162 -0.1142
 7768DDP     P246605   1.564   9.017   5.043  0.0724 -0.0181  0.0503
 7768DDP     C246606   1.223   8.914   4.993  0.0772 -0.0254 -0.3077
 7768DDP     C346607   1.488   9.861   5.658  0.1720  0.1398 -0.2703
 7768DDP     C446608   1.856   9.522   4.611  0.2542  0.0362  0.3633
 7769DDP     C146609  13.854   8.421   1.663  0.3174  0.1563 -0.0229
 7769DDP     P146610  13.612   8.022   1.794 -0.3770 -0.2135  0.1947
 7769DDP     P246611  14.221   8.221   1.865  0.0133 -0.3014 -0.3157
 7769DDP     C246612  14.626   8.347   2.040  0.1789 -0.2079  0.0675
 7769DDP     C346613  13.400   7.735   1.698  0.2720 -0.4027  0.1308
 7769DDP     C446614  13.775   8.900   1.602  0.2007  0.2951  0.0893
 7770DDP     C146615  28.445  26.802  26.365 -0.0626 -0.1762  0.1343
 7770DDP     P146616  28.239  26.784  25.912 -0.2034  0.2147  0.3658
 7770DDP     P246617  28.242  27.067  26.680 -0.0178 -0.3474  0.0779
 7770DDP     C246618  28.018  27.493  26.898  0.1145  0.5034 -0.1204
 7770DDP     C346619  28.025  26.714  25.514 -0.0255 -0.2252  0.1622
 7770DDP     C446620  28.769  26.463  26.622 -0.2079 -0.1109 -0.0015
 7771DDP     C146621   5.770  25.415  16.452  0.1844  0.0429  0.0032
 7771DDP     P146622   6.094  25.591  16.725  0.0265 -0.1980 -0.0150
 7771DDP     P246623   5.436  25.175  16.601  0.0937 -0.2049  0.1084
 7771DDP     C246624   5.027  24.954  16.668  0.1024  0.1982 -0.0513
 7771DDP     C346625   6.291  25.679  17.141 -0.0479 -0.0448  0.2317
 7771DDP     C446626   5.909  25.118  16.145 -0.1042 -0.0462 -0.0389
 7772DDP     C146627  27.162  10.724  20.050  0.0197  0.2243 -0.2751
 7772DDP     P146628  27.544  10.722  20.225 -0.0045  0.2201 -0.1127
 7772DDP     P246629  27.017  11.046  20.288 -0.0459 -0.2947 -0.1248
 7772DDP     C246630  26.834  11.058  20.743 -0.1777  0.2563 -0.1077
 7772DDP     C346631  27.716  10.882  20.600 -0.3141 -0.1319 -0.1937
 7772DDP     C446632  26.978  10.418  19.780 -0.1846 -0.1011 -0.2295
 7773DDP     C146633  26.753   9.172  11.461  0.2925  0.1055  0.1207
 7773DDP     P146634  26.510   8.892  11.249 -0.0519 -0.1031 -0.0762
 7773DDP     P246635  26.741   9.568  11.453 -0.0561  0.0917  0.2203
 7773DDP     C246636  26.579   9.972  11.494  0.3112  0.0765 -0.1618
 7773DDP     C346637  26.272   8.892  10.893 -0.1863 -0.1918 -0.2396
 7773DDP     C446638  27.091   8.989  11.516  0.2547 -0.1216 -0.2196
 7774DDP     C146639  28.823  13.588  21.222 -0.0230 -0.0848  0.1217
 7774DDP     P146640  28.721  13.941  20.946 -0.2582 -0.0764 -0.3642
 7774DDP     P246641  28.980  13.656  21.583 -0.0773  0.1125 -0.0769
 7774DDP     C246642  29.241  13.676  21.939  0.1920 -0.1386 -0.0739
 7774DDP     C346643  28.526  14.297  20.819  0.0034 -0.3753  0.0299
 7774DDP     C446644  28.571  13.228  21.185 -0.0224 -0.1207  0.0996
 7775DDP     C146645   2.070   9.696   9.467 -0.2219  0.1910  0.0514
 7775DDP     P146646   2.001   9.562   9.005 -0.0302  0.3426 -0.1464
 7775DDP     P246647   2.156  10.084   9.459 -0.0257  0.0635 -0.1133
 7775DDP     C246648   2.013  10.291   9.905 -0.1233  0.1753  0.0008
 7775DDP     C346649   1.880   9.281   8.664  0.0248  0.0500 -0.0592
 7775DDP     C446650   2.075   9.390   9.900  0.1441 -0.1401  0.0661
 7776DDP     C146651  17.070  25.748   1.074 -0.1307  0.1337 -0.2385
 7776DDP     P146652  16.926  25.522   1.490  0.0531 -0.0280 -0.0889
 7776DDP     P246653  17.244  25.426   0.725  0.1858  0.0003 -0.0222
 7776DDP     C246654  17.201  25.270   0.313 -0.0925 -0.2368  0.1876
 7776DDP     C346655  16.711  25.145   1.692  0.1548  0.4171  0.0466
 7776DDP     C446656  16.853  26.038   0.872 -0.1363 -0.0971  0.0366
 7777DDP     C146657   9.674  13.211  30.097 -0.0697 -0.1788  0.0142
 7777DDP     P146658   9.996  13.249  29.820  0.0261  0.3220 -0.1324
 7777DDP     P246659   9.235  13.385  30.099 -0.4079 -0.0871  0.0608
 7777DDP     C246660   9.048  13.536  29.755  0.0064  0.0880 -0.1165
 7777DDP     C346661  10.534  13.155  29.818 -0.2458 -0.1098 -0.0201
 7777DDP     C446662   9.857  12.894   0.088  0.2006 -0.2858 -0.0855
 7778DDP     C146663  29.064   9.674  19.817  0.1019  0.0774 -0.0252
 7778DDP     P146664  29.473   9.541  19.791 -0.0049  0.0247 -0.0835
 7778DDP     P246665  28.712   9.568  19.478 -0.1991 -0.0433  0.2352
 7778DDP     C246666  28.447   9.748  19.129 -0.0852  0.2567 -0.0593
 7778DDP     C346667  29.892   9.794  19.834  0.0999 -0.0525 -0.1104
 7778DDP     C446668  28.852  10.077  19.980 -0.0511  0.0899  0.0679
 7779DDP     C146669   2.370  17.478  23.423 -0.0408 -0.2797  0.1130
 7779DDP     P146670   2.818  17.695  23.271  0.0406  0.0914  0.1385
 7779DDP     P246671   1.987  17.631  23.212 -0.2095 -0.1961  0.1783
 7779DDP     C246672   1.618  17.856  23.330  0.0908  0.2405 -0.1548
 7779DDP     C346673   3.111  17.958  23.237  0.0558 -0.1205  0.1626
 7779DDP     C446674   2.285  17.267  23.833  0.2005 -0.0165  0.0887
 7780DDP     C146675  11.212  12.914  17.231 -0.0550  0.1062  0.3879
 7780DDP     P146676  11.277  12.443  17.163 -0.0043  0.1363 -0.2320
 7780DDP     P246677  11.568  13.074  17.323 -0.1005  0.1562  0.0161
 7780DDP     C246678  11.942  13.123  17.461  0.0929 -0.0376  0.0012
 7780DDP     C346679  10.999  12.071  16.985 -0.0888 -0.1039  0.2160
 7780DDP     C446680  10.860  13.279  17.320  0.2560 -0.3813  0.2268
 7781DDP     C146681  17.184   0.805  28.924  0.0572 -0.0751 -0.1194
 7781DDP     P146682  17.200   0.537  29.283 -0.2655  0.2222 -0.1270
 7781DDP     P246683  17.213   0.584  28.581 -0.2164  0.1604  0.0055
 7781DDP     C246684  16.996   0.579  28.155 -0.0608  0.0148 -0.1719
 7781DDP     C346685  17.343   0.136  29.372  0.1182 -0.6218  0.2785
 7781DDP     C446686  16.868   1.150  28.955  0.0321 -0.2583 -0.1119
 7782DDP     C146687   7.438   5.220  20.605  0.1360  0.0763 -0.2208
 7782DDP     P146688   7.830   5.361  20.641 -0.0901 -0.0977  0.1631
 7782DDP     P246689   7.184   5.497  20.266  0.1612  0.0220 -0.2273
 7782DDP     C246690   7.028   5.853  20.054  0.1189 -0.2028  0.1544
 7782DDP     C346691   8.228   5.580  20.628 -0.0342 -0.0955  0.0317
 7782DDP     C446692   7.296   4.900  20.854 -0.2712 -0.0721 -0.3066
 7783DDP     C146693  18.040  27.149  29.520 -0.1735  0.1505  0.1346
 7783DDP     P146694  17.984  27.493  29.736  0.1236  0.1056 -0.0218
 7783DDP     P246695  17.958  27.152  29.125  0.1462  0.2380  0.0078
 7783DDP     C246696  18.226  26.915  28.793 -0.0561  0.1671 -0.0715
 7783DDP     C346697  17.798  27.907  29.799  0.1691  0.1198 -0.2241
 7783DDP     C446698  18.126  26.833  29.777  0.2179 -0.0465 -0.1414
 7784DDP     C146699  15.937   4.219  20.094 -0.1766 -0.1224 -0.1107
 7784DDP     P146700  16.172   4.549  19.848 -0.3952  0.1124  0.0999
 7784DDP     P246701  15.664   4.120  19.804  0.0706  0.0298 -0.2909
 7784DDP     C246702  15.294   4.357  19.646 -0.5708  0.2412  0.0931
 7784DDP     C346703  16.419   4.853  19.599  0.1584 -0.2842 -0.2617
 7784DDP     C446704  16.214   4.042  20.472 -0.2649 -0.2210  0.0459
 7785DDP     C146705  23.817  23.436   3.654  0.1783 -0.1390  0.2136
 7785DDP     P146706  24.091  23.084   3.613 -0.0200  0.2936  0.2199
 7785DDP     P246707  23.454  23.206   3.722 -0.1538 -0.0963 -0.1089
 7785DDP     C246708  23.314  22.953   3.963  0.0998 -0.0917  0.3624
 7785DDP     C346709  24.356  22.652   3.608 -0.0513  0.2479 -0.0262
 7785DDP     C446710  23.980  23.880   3.673  0.2161 -0.1279 -0.0724
 7786DDP     C146711   9.236  25.690  24.491  0.0047 -0.0987  0.0674
 7786DDP     P146712   9.417  26.038  24.688  0.0685  0.0243  0.0366
 7786DDP     P246713   9.316  25.297  24.806  0.0206 -0.0185  0.0252
 7786DDP     C246714   9.307  24.887  24.912 -0.0429 -0.2574 -0.2104
 7786DDP     C346715   9.475  26.460  24.471  0.1688 -0.0093 -0.4319
 7786DDP     C446716   8.920  25.827  24.442  0.0146 -0.2743 -0.1894
 7787DDP     C146717   8.811   6.415  22.688  0.0863  0.1036 -0.2106
 7787DDP     P146718   9.207   6.530  22.859  0.0430 -0.0982 -0.0290
 7787DDP     P246719   8.514   6.623  22.683  0.0038  0.0979 -0.1488
 7787DDP     C246720   8.313   6.859  23.021  0.3185  0.1940 -0.0385
 7787DDP     C346721   9.586   6.218  23.011 -0.0526  0.0649  0.0582
 7787DDP     C446722   8.734   5.992  22.647 -0.3743  0.1018 -0.3124
 7788DDP     C146723  11.263  13.157  27.785  0.0634 -0.0964  0.2808
 7788DDP     P146724  11.316  13.590  27.731 -0.2429  0.1590  0.0689
 7788DDP     P246725  11.050  12.778  28.057  0.2321  0.2446  0.0378
 7788DDP     C246726  10.704  12.584  28.171 -0.1295 -0.4286 -0.1191
 7788DDP     C346727  11.152  13.901  28.067 -0.1827 -0.0276 -0.0734
 7788DDP     C446728  11.416  13.065  27.373 -0.2536 -0.2697  0.0386
 7789DDP     C146729  27.604  16.054  13.629  0.2196  0.0748 -0.0942
 7789DDP     P146730  27.175  16.331  13.391 -0.1211 -0.0542 -0.2630
 7789DDP     P246731  28.035  15.925  13.415  0.0367  0.1953 -0.0824
 7789DDP     C246732  28.361  15.771  13.118 -0.1168  0.0797 -0.0217
 7789DDP     C346733  26.857  16.566  13.612 -0.1720  0.2682 -0.3336
 7789DDP     C446734  27.533  16.110  14.059 -0.0486  0.0087  0.1708
 7790DDP     C146735  17.449  13.224   3.750 -0.1404  0.0725 -0.0846
 7790DDP     P146736  17.794  13.014   3.912  0.3409  0.3181  0.1523
 7790DDP     P246737  17.413  13.098   3.306 -0.1142 -0.0173 -0.0138
 7790DDP     C246738  17.642  12.854   2.933  0.2174 -0.1767 -0.2089
 7790DDP     C346739  17.999  12.626   3.760  0.1788 -0.1674  0.2764
 7790DDP     C446740  17.281  13.486   4.014  0.0546  0.1768 -0.1185
 7791DDP     C146741  23.626  27.056  25.958  0.1895 -0.2607  0.2049
 7791DDP     P146742  23.664  27.232  26.418 -0.0691  0.2048 -0.1500
 7791DDP     P246743  24.017  26.855  25.886  0.1746 -0.0370 -0.1735
 7791DDP     C246744  24.467  26.956  25.887  0.0624 -0.1879  0.2510
 7791DDP     C346745  23.828  27.527  26.845  0.1776 -0.0405 -0.0634
 7791DDP     C446746  23.239  27.029  25.711 -0.1853 -0.2587  0.3420
 7792DDP     C146747  16.385   4.384  19.141  0.3199  0.0241  0.0417
 7792DDP     P146748  16.303   4.191  18.725  0.2118 -0.2578 -0.4478
 7792DDP     P246749  16.012   4.350  19.371 -0.0441 -0.2563  0.1036
 7792DDP     C246750  15.749   4.639  19.606  0.0372  0.2096 -0.0453
 7792DDP     C346751  16.072   4.139  18.437 -0.0915  0.3222  0.0271
 7792DDP     C446752  16.765   4.629  19.183 -0.2000 -0.0620 -0.1801
 7793DDP     C146753  22.991   9.496  27.409 -0.0686  0.0047 -0.1302
 7793DDP     P146754  22.699   9.164  27.476  0.0218  0.0578 -0.1442
 7793DDP     P246755  23.250   9.617  27.702 -0.0541 -0.1623  0.1814
 7793DDP     C246756  23.397  10.034  27.804 -0.1285 -0.0232  0.1269
 7793DDP     C346757  22.432   8.768  27.672  0.0858  0.1355 -0.3024
 7793DDP     C446758  23.136   9.619  27.046  0.0916 -0.0616  0.1325
 7794DDP     C146759   3.079  24.488  25.446 -0.1976 -0.0997  0.0657
 7794DDP     P146760   3.483  24.309  25.398  0.1711  0.0788 -0.0304
 7794DDP     P246761   2.831  24.177  25.751  0.0362 -0.0417  0.0054
 7794DDP     C246762   2.506  24.011  25.944  0.0080 -0.0190 -0.2302
 7794DDP     C346763   3.840  24.021  25.580 -0.0498 -0.0754 -0.1346
 7794DDP     C446764   3.039  24.850  25.298 -0.1433  0.0771  0.0952
 7795DDP     C146765  27.435   1.741  28.361 -0.0308 -0.0635  0.0384
 7795DDP     P146766  27.534   1.347  28.141  0.1004  0.0182  0.1295
 7795DDP     P246767  27.862   1.979  28.311 -0.1316 -0.1917 -0.3912
 7795DDP     C246768  28.281   1.900  28.167 -0.1261 -0.0124 -0.0934
 7795DDP     C346769  27.708   1.051  27.789 -0.1120  0.2273  0.4169
 7795DDP     C446770  27.158   1.960  28.524  0.2754  0.1249 -0.2534
 7796DDP     C146771  21.970  28.689  16.908 -0.0786 -0.0183  0.0530
 7796DDP     P146772  21.635  28.626  16.565 -0.4513  0.2740  0.0305
 7796DDP     P246773  22.104  28.298  17.090 -0.1136 -0.0305 -0.1119
 7796DDP     C246774  22.251  27.975  17.335 -0.1013  0.0470  0.0452
 7796DDP     C346775  21.686  28.560  16.161 -0.2845 -0.1767 -0.0084
 7796DDP     C446776  21.947  29.035  17.162 -0.0301 -0.2461  0.0557
 7797DDP     C146777  16.989  19.482  12.367 -0.1717  0.1964 -0.2660
 7797DDP     P146778  17.301  19.724  12.657 -0.4642  0.0923  0.5086
 7797DDP     P246779  16.705  19.762  12.250 -0.1466 -0.0575  0.6054
 7797DDP     C246780  16.661  19.792  11.803 -0.2357  0.0238  0.1669
 7797DDP     C346781  17.688  19.585  12.480 -0.2782  0.1393  0.1446
 7797DDP     C446782  17.038  19.080  12.235 -0.1670  0.0848 -0.2052
 7798DDP     C146783   5.901  24.705  11.233 -0.1602 -0.5553 -0.0122
 7798DDP     P146784   6.324  24.527  11.030  0.1026 -0.2564 -0.1754
 7798DDP     P246785   5.682  24.547  11.463  0.3581 -0.2089  0.1304
 7798DDP     C246786   5.313  24.684  11.632 -0.1828 -0.0194  0.2219
 7798DDP     C346787   6.532  24.273  10.865 -0.1504  0.2745 -0.0631
 7798DDP     C446788   5.614  25.000  11.106 -0.2101 -0.5397  0.1850
 7799DDP     C146789  17.455  27.700  28.743  0.0183 -0.3442 -0.0489
 7799DDP     P146790  17.274  27.698  28.427 -0.2446 -0.1783  0.1239
 7799DDP     P246791  17.295  28.074  29.096  0.0975  0.0264  0.0298
 7799DDP     C246792  17.433  28.335  29.441  0.1568 -0.0085  0.0280
 7799DDP     C346793  16.819  27.659  28.196  0.1121  0.1743 -0.0631
 7799DDP     C446794  17.576  27.348  28.934  0.4021  0.5414 -0.0637
 7800DDP     C146795   3.532  28.066  13.176 -0.5584 -0.2770 -0.2660
 7800DDP     P146796   3.039  28.020  13.027 -0.2647 -0.1487  0.2763
 7800DDP     P246797   3.809  28.485  13.008  0.3399 -0.0260 -0.3257
 7800DDP     C246798   3.951  28.722  12.700  0.0121  0.0599 -0.0963
 7800DDP     C346799   2.692  27.741  13.162 -0.0370  0.2053  0.0367
 7800DDP     C446800   3.794  27.663  13.190 -0.0794 -0.0405 -0.0719
 7801DDP     C146801   1.170  18.595  20.993  0.1631 -0.0188  0.1571
 7801DDP     P146802   1.374  18.864  21.218 -0.1360  0.0858  0.2387
 7801DDP     P246803   0.794  18.472  21.137  0.1463 -0.1388  0.0662
 7801DDP     C246804   0.551  18.198  21.292  0.1864  0.1625  0.1335
 7801DDP     C346805   1.243  19.095  21.692  0.0853  0.0148 -0.0082
 7801DDP     C446806   1.563  18.366  20.902  0.1299 -0.2546  0.1067
 7802DDP     C146807   5.365  13.973  18.040  0.0593 -0.1414 -0.0353
 7802DDP     P146808   5.359  13.518  17.782 -0.0283  0.0808  0.1863
 7802DDP     P246809   4.970  14.005  18.153 -0.1095 -0.4008 -0.0764
 7802DDP     C246810   4.617  14.105  18.493  0.2295 -0.2731  0.1796
 7802DDP     C346811   5.467  13.104  17.571 -0.1437  0.1973 -0.1803
 7802DDP     C446812   5.643  14.298  18.203 -0.1440 -0.0602  0.1767
 7803DDP     C146813   8.423  25.292  11.727  0.0390  0.0542  0.3920
 7803DDP     P146814   8.204  25.177  11.311  0.2172  0.1759  0.0715
 7803DDP     P246815   8.246  25.606  11.994  0.0130 -0.3126 -0.2750
 7803DDP     C246816   8.287  25.809  12.442 -0.0849 -0.0567 -0.0946
 7803DDP     C346817   8.190  25.053  10.814  0.3129 -0.1453 -0.0103
 7803DDP     C446818   8.664  25.017  11.851 -0.1068 -0.0843 -0.2268
 7804DDP     C146819  27.272   2.335  13.422 -0.1052  0.1485  0.0237
 7804DDP     P146820  27.438   2.080  13.771  0.2858 -0.2499 -0.0027
 7804DDP     P246821  27.203   2.807  13.522  0.0268  0.2227 -0.0765
 7804DDP     C246822  27.288   3.303  13.547  0.0423  0.4647 -0.2485
 7804DDP     C346823  27.230   1.875  14.109 -0.5057  0.2263  0.0040
 7804DDP     C446824  27.090   2.197  12.989  0.0106 -0.0008 -0.0466
 7805DDP     C146825  18.709   6.653   4.155  0.1277 -0.2921 -0.1592
 7805DDP     P146826  18.413   6.691   3.772 -0.0981 -0.0021 -0.3077
 7805DDP     P246827  18.919   7.071   4.254  0.1581 -0.0353 -0.0592
 7805DDP     C246828  19.031   7.447   4.435 -0.0907  0.0651  0.0362
 7805DDP     C346829  18.099   6.469   3.482 -0.2478  0.1481  0.1429
 7805DDP     C446830  18.547   6.398   4.489 -0.0071 -0.0174  0.1296
 7806DDP     C146831   5.766   7.074  11.519 -0.3158  0.0617 -0.1735
 7806DDP     P146832   5.365   6.715  11.716  0.0883  0.0577 -0.0623
 7806DDP     P246833   6.077   6.884  11.327  0.1274 -0.0701 -0.0228
 7806DDP     C246834   6.215   6.990  10.885 -0.2654  0.1339 -0.3689
 7806DDP     C346835   5.098   6.745  12.040 -0.4551  0.3048  0.2555
 7806DDP     C446836   5.745   7.461  11.484  0.1227 -0.1125 -0.1774
 7807DDP     C146837   2.076   9.691   7.136 -0.2493  0.3284 -0.1178
 7807DDP     P146838   1.762   9.854   6.862 -0.3062 -0.1188 -0.1643
 7807DDP     P246839   2.260   9.968   7.399  0.0236 -0.0416 -0.1546
 7807DDP     C246840   2.236   9.951   7.828 -0.3059 -0.4566 -0.2865
 7807DDP     C346841   1.765   9.863   6.501  0.1203  0.1225  0.1206
 7807DDP     C446842   2.229   9.263   7.164 -0.0986 -0.2120  0.1702
 7808DDP     C146843  23.784  13.021  25.201  0.0994 -0.1569  0.0133
 7808DDP     P146844  24.160  13.247  25.461  0.2126 -0.1199  0.0716
 7808DDP     P246845  24.024  12.784  25.021  0.0699  0.2196 -0.4182
 7808DDP     C246846  24.236  12.427  25.188 -0.1593  0.0277  0.2055
 7808DDP     C346847  24.629  13.381  25.415 -0.3656 -0.1829  0.1786
 7808DDP     C446848  23.344  13.089  25.130 -0.4917  0.0533  0.0470
 7809DDP     C146849  26.831  24.595  14.977  0.0977 -0.1169 -0.2346
 7809DDP     P146850  26.773  24.680  14.551 -0.2262  0.3384  0.1372
 7809DDP     P246851  26.654  24.719  15.513 -0.0059 -0.3258 -0.0668
 7809DDP     C246852  26.575  24.810  15.967  0.4288 -0.2904 -0.0328
 7809DDP     C346853  26.631  24.733  14.085  0.0063 -0.0347 -0.1897
 7809DDP     C446854  27.069  24.266  14.955 -0.1193 -0.1376  0.1913
 7810DDP     C146855  15.949  25.644   2.000  0.1254 -0.2591  0.1618
 7810DDP     P146856  16.122  26.143   1.972 -0.0971  0.1038  0.1265
 7810DDP     P246857  15.595  25.506   2.011  0.2593 -0.0003  0.1881
 7810DDP     C246858  15.131  25.397   2.014 -0.0129 -0.1458 -0.0163
 7810DDP     C346859  16.262  26.498   2.165 -0.1985 -0.2094 -0.0679
 7810DDP     C446860  16.260  25.254   2.094  0.1022 -0.1061  0.1886
 7811DDP     C146861  29.958  10.105  15.847  0.2167  0.0127 -0.2206
 7811DDP     P146862  30.248   9.970  16.152  0.2294  0.0831  0.2978
 7811DDP     P246863  29.541  10.230  15.941  0.2020  0.2325  0.0762
 7811DDP     C246864  29.030  10.311  15.914 -0.1736  0.0536  0.1378
 7811DDP     C346865   0.305   9.919  16.155  0.0546  0.1699  0.2296
 7811DDP     C446866  30.118  10.051  15.427  0.0528  0.2345 -0.0402
 7812DDP     C146867   9.554  28.353  23.014  0.0816  0.0260  0.0949
 7812DDP     P146868   9.245  28.557  22.959 -0.3736  0.0218 -0.2102
 7812DDP     P246869   9.810  28.482  23.397 -0.0087 -0.5864 -0.0543
 7812DDP     C246870  10.254  28.334  23.399  0.0455  0.1238  0.0055
 7812DDP     C346871   8.765  28.521  23.175 -0.0368 -0.1471 -0.0665
 7812DDP     C446872   9.694  28.041  22.641 -0.2240 -0.1157  0.0224
 7813DDP     C146873   6.328   6.845  10.417 -0.0813 -0.0268 -0.2161
 7813DDP     P146874   6.238   6.488  10.785  0.0880  0.0495  0.0894
 7813DDP     P246875   5.975   6.791  10.152  0.3089  0.2761 -0.0096
 7813DDP     C246876   5.734   6.458  10.398 -0.0801  0.2147 -0.1018
 7813DDP     C346877   6.029   6.271  10.987 -0.2051 -0.1597  0.0854
 7813DDP     C446878   6.708   7.073  10.340  0.1092 -0.2592  0.2687
 7814DDP     C146879   9.429  24.963  29.757  0.0372  0.2245 -0.0913
 7814DDP     P146880   9.615  25.013  30.159  0.1521 -0.1699  0.3221
 7814DDP     P246881   9.055  24.765  29.828  0.1736  0.2546 -0.3001
 7814DDP     C246882   8.832  24.475  30.092  0.1790 -0.0485  0.0492
 7814DDP     C346883   9.888  25.339  30.252  0.0347  0.0988 -0.1836
 7814DDP     C446884   9.638  24.872  29.339  0.1710  0.0318  0.2147
 7815DDP     C146885   0.102  23.480  26.811 -0.0048  0.1252  0.1005
 7815DDP     P146886   0.488  23.463  26.859 -0.0086 -0.0567 -0.0792
 7815DDP     P246887  30.159  23.302  26.991  0.2245  0.0152  0.0776
 7815DDP     C246888  29.726  23.254  27.163 -0.0457 -0.1640  0.0708
 7815DDP     C346889   0.647  23.790  27.012  0.2550 -0.5800 -0.1626
 7815DDP     C446890  30.238  23.785  26.551 -0.0888 -0.2549 -0.1446
 7816DDP     C146891   6.962  19.862   4.362  0.0960  0.1606  0.0233
 7816DDP     P146892   6.503  19.726   4.356  0.2573  0.0069 -0.2949
 7816DDP     P246893   7.283  19.513   4.637  0.1494 -0.1374 -0.3727
 7816DDP     C246894   7.727  19.579   4.553 -0.0434 -0.0721  0.1471
 7816DDP     C346895   6.107  19.700   4.486  0.0108 -0.1642  0.0482
 7816DDP     C446896   7.085  20.204   4.071  0.2466  0.0068  0.3402
 7817DDP     C146897   2.080  12.832   1.680  0.0800  0.0311  0.4276
 7817DDP     P146898   2.497  12.589   1.748  0.2623  0.0383  0.3977
 7817DDP     P246899   1.800  13.141   1.968 -0.3076  0.1073  0.1541
 7817DDP     C246900   1.780  13.555   1.965 -0.0719 -0.1194  0.0267
 7817DDP     C346901   2.864  12.706   1.857  0.2167  0.3330  0.0468
 7817DDP     C446902   2.011  12.734   1.274 -0.0541 -0.1990 -0.4152
 7818DDP     C146903   7.812   1.542  15.645 -0.0729 -0.0671 -0.1213
 7818DDP     P146904   8.114   1.855  15.801  0.1022  0.3949 -0.3100
 7818DDP     P246905   7.589   1.572  15.196  0.1744  0.0738  0.0259
 7818DDP     C246906   7.726   1.305  14.885 -0.1063 -0.2422  0.1716
 7818DDP     C346907   8.407   1.917  16.151 -0.0127  0.5022 -0.1766
 7818DDP     C446908   7.608   1.234  15.846  0.0583 -0.1173  0.0622
 7819DDP     C146909   4.316  29.672  25.169 -0.1844 -0.0449  0.1127
 7819DDP     P146910   4.177  29.644  25.565 -0.1590  0.1827  0.2729
 7819DDP     P246911   4.036  29.717  24.942  0.1086 -0.2575 -0.0507
 7819DDP     C246912   3.674  29.702  24.937 -0.0809  0.1661  0.0619
 7819DDP     C346913   4.108  30.000  25.878 -0.1727  0.1693  0.3134
 7819DDP     C446914   4.545  29.334  24.928 -0.0536 -0.1317  0.1575
 7820DDP     C146915   2.306  17.417   8.779  0.2324 -0.0527 -0.1646
 7820DDP     P146916   2.222  17.772   8.875 -0.3674  0.1395  0.0350
 7820DDP     P246917   2.409  17.355   9.186 -0.0774  0.0807 -0.1343
 7820DDP     C246918   2.298  17.386   9.637  0.0784 -0.0910 -0.1937
 7820DDP     C346919   2.149  18.206   9.211 -0.1225  0.0315  0.0591
 7820DDP     C446920   2.289  17.110   8.461 -0.1870 -0.0612 -0.2311
 7821DDP     C146921   5.967  21.332   3.888  0.0481  0.0361  0.0744
 7821DDP     P146922   5.618  21.426   3.633  0.0605  0.0098  0.1336
 7821DDP     P246923   6.341  21.181   3.670  0.1341  0.2767  0.0639
 7821DDP     C246924   6.381  20.990   3.302  0.0921 -0.0754  0.2687
 7821DDP     C346925   5.265  21.495   3.327  0.1496  0.0236  0.1490
 7821DDP     C446926   6.025  21.712   4.117  0.0521  0.1292 -0.0528
 7822DDP     C146927  17.038   8.226  15.056 -0.5493  0.0081 -0.2290
 7822DDP     P146928  16.808   7.757  14.869  0.0565  0.1346 -0.1141
 7822DDP     P246929  17.283   8.540  14.736 -0.1650  0.1669  0.0873
 7822DDP     C246930  17.575   8.488  14.390  0.1694 -0.2037 -0.1904
 7822DDP     C346931  16.832   7.502  14.498 -0.0727 -0.2584 -0.0960
 7822DDP     C446932  17.166   8.295  15.588 -0.1563  0.0645 -0.0374
 7823DDP     C146933  23.880  13.959  12.724  0.1391 -0.1495  0.2507
 7823DDP     P146934  23.490  14.141  12.498  0.1024  0.0953 -0.3090
 7823DDP     P246935  24.048  13.570  12.635  0.1372 -0.1016  0.0862
 7823DDP     C246936  24.480  13.349  12.836 -0.2433  0.0498 -0.0036
 7823DDP     C346937  23.106  14.026  12.483  0.1983  0.1540  0.4425
 7823DDP     C446938  24.178  14.279  12.953  0.0583 -0.3390  0.0621
 7824DDP     C146939  15.426   7.010  29.307 -0.1314 -0.0400  0.0986
 7824DDP     P146940  15.845   7.141  29.294  0.0490 -0.3117 -0.6860
 7824DDP     P246941  15.403   6.864  29.710 -0.1054  0.1442  0.1061
 7824DDP     C246942  15.107   6.812  30.029  0.0164  0.0357 -0.1878
 7824DDP     C346943  16.192   7.277  29.019  0.1699 -0.2473  0.1927
 7824DDP     C446944  15.136   6.822  28.893  0.1601 -0.1159 -0.0493
 7825DDP     C146945  16.664   1.988   6.896  0.3832 -0.0031  0.1464
 7825DDP     P146946  16.484   2.495   7.047 -0.0207  0.5398 -0.1809
 7825DDP     P246947  16.512   1.709   7.140  0.2909  0.0219 -0.1754
 7825DDP     C246948  16.616   1.632   7.621  0.1154  0.3515 -0.0563
 7825DDP     C346949  16.154   2.713   7.223  0.1672 -0.1298 -0.1475
 7825DDP     C446950  17.041   1.924   6.789 -0.2098 -0.1151 -0.1356
 7826DDP     C146951  19.234  25.947  13.573 -0.2103  0.2553 -0.1486
 7826DDP     P146952  19.537  25.906  13.982 -0.1472  0.2557  0.0529
 7826DDP     P246953  18.983  26.312  13.679 -0.1179  0.1193 -0.0635
 7826DDP     C246954  18.733  26.540  13.443  0.1814 -0.0372  0.1311
 7826DDP     C346955  19.578  26.080  14.290 -0.2590 -0.0690  0.1135
 7826DDP     C446956  19.285  25.719  13.223 -0.0502  0.1666  0.2638
 7827DDP     C146957  19.296  15.992   9.265  0.1530 -0.2415 -0.0323
 7827DDP     P146958  19.240  16.269   9.608  0.0870 -0.2692  0.1481
 7827DDP     P246959  19.598  15.643   9.181 -0.2202  0.3679 -0.1378
 7827DDP     C246960  19.780  15.423   8.747 -0.0994  0.1565 -0.0631
 7827DDP     C346961  19.065  16.522   9.913  0.0934  0.1418  0.0581
 7827DDP     C446962  19.349  16.204   8.926 -0.1910  0.3657  0.0331
 7828DDP     C146963   0.523   6.987  19.909 -0.0892  0.0718 -0.2796
 7828DDP     P146964   0.497   7.176  20.248  0.0265  0.0863  0.1739
 7828DDP     P246965   0.720   7.099  19.541 -0.0281 -0.0879 -0.3230
 7828DDP     C246966   0.579   7.159  19.098 -0.0700  0.2571  0.0950
 7828DDP     C346967   0.322   7.348  20.630 -0.0935 -0.1330  0.0330
 7828DDP     C446968   0.550   6.545  19.911 -0.3331 -0.1732  0.1413
 7829DDP     C146969  20.599  26.082  22.755 -0.1781 -0.0194 -0.0805
 7829DDP     P146970  20.831  25.948  22.418  0.1998 -0.1477  0.4499
 7829DDP     P246971  20.740  26.573  22.870 -0.1663  0.0789  0.1835
 7829DDP     C246972  21.093  26.878  22.987 -0.1361  0.1066  0.0766
 7829DDP     C346973  21.159  25.773  22.468 -0.4885  0.0513 -0.1110
 7829DDP     C446974  20.229  25.997  22.947 -0.3281 -0.3091 -0.0062
 7830DDP     C146975   9.355  24.228   7.624 -0.3526 -0.0843  0.0715
 7830DDP     P146976   9.161  24.529   7.919 -0.0277 -0.3826  0.0174
 7830DDP     P246977   9.656  23.926   7.780  0.0355  0.0316 -0.1886
 7830DDP     C246978   9.813  23.461   7.876 -0.1762  0.3202  0.1246
 7830DDP     C346979   8.766  24.590   8.024 -0.0929  0.0769  0.0573
 7830DDP     C446980   9.365  24.454   7.288 -0.0365  0.0150  0.1490
 7831DDP     C146981   3.355  13.516  25.268  0.1620 -0.1025 -0.1150
 7831DDP     P146982   3.336  13.925  25.008 -0.2544  0.0189  0.0972
 7831DDP     P246983   3.191  13.167  25.126  0.1190  0.0461  0.2645
 7831DDP     C246984   3.154  13.032  24.658 -0.1747 -0.1137 -0.4192
 7831DDP     C346985   3.648  14.107  24.800  0.1693 -0.0438 -0.1400
 7831DDP     C446986   3.275  13.320  25.623  0.2092  0.0570 -0.2101
 7832DDP     C146987  20.151   0.961  14.207  0.3804  0.5169  0.0950
 7832DDP     P146988  20.133   0.695  14.580  0.1141  0.2596 -0.1555
 7832DDP     P246989  19.827   1.160  14.028  0.2379  0.2715  0.1870
 7832DDP     C246990  19.668   1.529  14.019  0.0901  0.3754  0.1365
 7832DDP     C346991  20.393   0.862  14.988  0.1496 -0.1486 -0.2370
 7832DDP     C446992  20.540   1.119  14.049 -0.2318  0.0589 -0.0587
 7833DDP     C146993  15.080  25.325  28.464  0.1232 -0.1052  0.0720
 7833DDP     P146994  15.214  25.491  28.059 -0.0920  0.0425  0.0778
 7833DDP     P246995  14.962  25.609  28.749 -0.0017  0.0432 -0.0871
 7833DDP     C246996  14.511  25.872  28.846 -0.2292 -0.0663 -0.1762
 7833DDP     C346997  15.631  25.705  27.963  0.1534 -0.1613  0.0554
 7833DDP     C446998  14.738  24.998  28.389 -0.2126 -0.2501  0.0972
 7834DDP     C146999   5.439   0.396  14.007  0.3421 -0.0649 -0.0212
 7834DDP     P147000   5.240   0.828  13.752 -0.1543 -0.1490 -0.3140
 7834DDP     P247001   5.908   0.384  14.145 -0.3115 -0.2277 -0.2789
 7834DDP     C247002   6.219   0.644  14.301 -0.1760  0.3507 -0.0854
 7834DDP     C347003   5.088   1.088  13.417  0.2204 -0.0191 -0.0785
 7834DDP     C447004   5.276   0.107  14.284 -0.2139 -0.2517  0.0005
 7835DDP     C147005  11.434  20.840  16.645 -0.1478 -0.0970 -0.0439
 7835DDP     P147006  11.481  20.510  16.967  0.1992 -0.1506  0.2805
 7835DDP     P247007  10.969  20.947  16.740 -0.0397  0.0696 -0.4050
 7835DDP     C247008  10.804  20.914  17.168 -0.0174  0.1540  0.0591
 7835DDP     C347009  11.734  20.608  17.472  0.0494 -0.0159  0.1776
 7835DDP     C447010  11.518  20.936  16.188  0.1711 -0.1427  0.1577
 7836DDP     C147011   2.618  15.135  10.816 -0.3936  0.0126  0.3657
 7836DDP     P147012   2.265  15.209  11.024 -0.1766  0.1986  0.1833
 7836DDP     P247013   2.944  15.178  10.622 -0.0145 -0.0528 -0.2765
 7836DDP     C247014   3.214  15.536  10.493 -0.2039  0.2456 -0.2589
 7836DDP     C347015   1.929  15.177  11.214 -0.1971 -0.1825  0.2748
 7836DDP     C447016   2.522  14.617  10.897  0.3093 -0.2273 -0.2982
 7837DDP     C147017   3.553   9.023  24.476  0.2245 -0.2317 -0.3222
 7837DDP     P147018   3.820   9.143  24.163 -0.2108 -0.0641  0.2628
 7837DDP     P247019   3.222   9.199  24.249 -0.0867  0.3988  0.1588
 7837DDP     C247020   2.936   9.334  23.804 -0.4304  0.1874  0.0275
 7837DDP     C347021   3.986   9.082  23.812  0.1518 -0.1115  0.0463
 7837DDP     C447022   3.553   8.688  24.866 -0.2033  0.0764  0.1165
 7838DDP     C147023   0.946  14.159   3.365 -0.0937 -0.0040  0.1450
 7838DDP     P147024   0.556  14.172   3.126  0.1027 -0.0311 -0.0003
 7838DDP     P247025   1.252  13.938   3.125 -0.0031 -0.2237  0.0794
 7838DDP     C247026   1.540  13.587   2.924 -0.1042 -0.1444 -0.0125
 7838DDP     C347027   0.198  13.993   3.311 -0.1400 -0.1298 -0.1664
 7838DDP     C447028   1.009  14.326   3.792  0.4495 -0.3165  0.2704
 7839DDP     C147029   1.184  28.571   6.736  0.1748  0.2956 -0.2240
 7839DDP     P147030   0.963  28.858   6.427 -0.0110  0.2180 -0.1043
 7839DDP     P247031   1.142  28.155   6.678 -0.0955 -0.0258  0.2935
 7839DDP     C247032   1.219  27.817   6.878 -0.3250 -0.1617 -0.0538
 7839DDP     C347033   0.816  29.320   6.508  0.0203 -0.1507 -0.0273
 7839DDP     C447034   1.580  28.833   6.894  0.0085 -0.0273 -0.2021
 7840DDP     C147035   5.439   3.453  27.238  0.1779 -0.0634  0.2599
 7840DDP     P147036   5.620   3.711  26.976 -0.0350  0.0701  0.1933
 7840DDP     P247037   5.272   3.082  27.054  0.4097 -0.2670 -0.0241
 7840DDP     C247038   5.163   2.788  27.229 -0.1490  0.0242 -0.0896
 7840DDP     C347039   5.625   4.110  26.799  0.0873  0.0517  0.0373
 7840DDP     C447040   5.598   3.485  27.627 -0.1561 -0.0987  0.2850
 7841DDP     C147041  26.541  29.632  29.517  0.1460  0.0766  0.0927
 7841DDP     P147042  26.666  29.969  29.723  0.2910 -0.1781  0.2708
 7841DDP     P247043  26.106  29.616  29.750  0.1079 -0.0986 -0.1368
 7841DDP     C247044  25.847  29.432  30.037 -0.1184 -0.1436 -0.2268
 7841DDP     C347045  26.624   0.138  29.809 -0.0116  0.0762  0.1485
 7841DDP     C447046  26.687  29.400  29.216  0.0889 -0.0635 -0.0791
 7842DDP     C147047  24.308  28.126  20.356 -0.0384 -0.2151  0.4333
 7842DDP     P147048  24.053  28.323  19.994  0.2868  0.0144  0.2238
 7842DDP     P247049  23.959  28.078  20.660  0.1486 -0.3840 -0.2813
 7842DDP     C247050  23.621  28.386  20.772  0.1952 -0.0804  0.1296
 7842DDP     C347051  23.724  28.459  19.802 -0.0615 -0.1491 -0.1740
 7842DDP     C447052  24.759  28.054  20.307 -0.1355 -0.1626  0.0358
 7843DDP     C147053  14.789   9.040  12.263 -0.0951 -0.2704 -0.1531
 7843DDP     P147054  15.108   9.310  12.555 -0.0203  0.2604  0.1271
 7843DDP     P247055  14.440   8.806  12.453 -0.2731 -0.0016 -0.2081
 7843DDP     C247056  14.160   8.607  12.735  0.2856  0.0012  0.1357
 7843DDP     C347057  15.265   9.126  12.948 -0.1223  0.2617  0.1303
 7843DDP     C447058  14.812   8.943  11.844 -0.3467  0.1263  0.0646
 7844DDP     C147059  10.066  15.602   5.385  0.1714  0.0805  0.0146
 7844DDP     P147060  10.420  15.526   5.053  0.0482 -0.2443 -0.1381
 7844DDP     P247061   9.610  15.463   5.243  0.0146 -0.2151  0.2186
 7844DDP     C247062   9.444  15.005   5.283 -0.0330 -0.0097  0.0795
 7844DDP     C347063  10.358  15.448   4.601 -0.2115  0.0792  0.1238
 7844DDP     C447064  10.074  15.764   5.827 -0.2517 -0.1591 -0.0258
 7845DDP     C147065  16.497  27.643  18.156 -0.0139 -0.0731  0.0087
 7845DDP     P147066  16.757  27.617  18.561  0.3695 -0.2699 -0.2770
 7845DDP     P247067  16.605  28.055  17.965 -0.0287 -0.0162 -0.1469
 7845DDP     C247068  16.778  28.386  18.065  0.1602  0.0127  0.1367
 7845DDP     C347069  16.895  27.753  18.946  0.2275 -0.1952  0.0488
 7845DDP     C447070  16.260  27.287  17.927  0.0577 -0.3934  0.0806
 7846DDP     C147071   5.228  19.402  20.465  0.0080  0.2723 -0.4242
 7846DDP     P147072   5.404  19.126  20.653 -0.2894 -0.0243 -0.1552
 7846DDP     P247073   4.761  19.347  20.521 -0.2510 -0.0370  0.1796
 7846DDP     C247074   4.544  19.479  20.101 -0.1444  0.0751  0.2725
 7846DDP     C347075   5.389  19.125  21.130 -0.1245 -0.0544  0.0834
 7846DDP     C447076   5.420  19.632  20.033  0.1140 -0.1727 -0.0247
 7847DDP     C147077   6.848  27.007  16.788  0.0027  0.0788  0.0205
 7847DDP     P147078   7.135  27.147  16.465  0.1812 -0.0467  0.2405
 7847DDP     P247079   7.140  27.031  17.265 -0.2742  0.1563  0.2433
 7847DDP     C247080   7.109  26.765  17.697 -0.2249  0.1311 -0.3834
 7847DDP     C347081   7.101  27.453  16.261  0.0341  0.0045  0.2646
 7847DDP     C447082   6.625  26.677  16.678  0.2030  0.0108  0.1142
 7848DDP     C147083  21.269   1.061  15.434 -0.2042 -0.2003 -0.2471
 7848DDP     P147084  21.227   1.369  15.563 -0.0350 -0.0827 -0.1160
 7848DDP     P247085  21.591   1.156  15.048 -0.0760  0.0311  0.1024
 7848DDP     C247086  21.687   1.620  14.899  0.3045  0.0478  0.3021
 7848DDP     C347087  21.272   1.680  15.998  0.0073 -0.0741  0.1858
 7848DDP     C447088  21.321   0.755  15.704 -0.1694 -0.1962 -0.0803
 7849DDP     C147089  21.543  16.540  12.839 -0.1122 -0.1390 -0.0085
 7849DDP     P147090  21.347  16.276  12.474  0.1508 -0.1484  0.0100
 7849DDP     P247091  21.828  16.293  13.180  0.1334 -0.4989  0.2042
 7849DDP     C247092  21.777  16.510  13.668  0.2160 -0.0787  0.2204
 7849DDP     C347093  21.238  16.387  12.017 -0.1712  0.0249 -0.0747
 7849DDP     C447094  21.331  16.869  12.912  0.0641 -0.0302 -0.0107
 7850DDP     C147095   6.156  20.901  20.673  0.0099 -0.1239  0.3386
 7850DDP     P147096   6.239  20.559  20.998  0.0144  0.0094 -0.1702
 7850DDP     P247097   5.794  21.207  20.705 -0.0546 -0.2117 -0.0829
 7850DDP     C247098   5.517  21.442  20.622 -0.1495 -0.1304 -0.0576
 7850DDP     C347099   6.516  20.253  21.172  0.0282 -0.0904 -0.1968
 7850DDP     C447100   6.463  20.949  20.384 -0.1479 -0.4007 -0.1470
 7851DDP     C147101   7.298   8.678  22.753  0.1132 -0.0594 -0.1753
 7851DDP     P147102   7.128   8.682  23.256  0.2950  0.0280  0.0332
 7851DDP     P247103   7.135   8.383  22.400  0.0390  0.1441 -0.0168
 7851DDP     C247104   7.123   8.183  22.064  0.1645 -0.1660 -0.4474
 7851DDP     C347105   7.167   8.901  23.642  0.1161 -0.0403  0.1470
 7851DDP     C447106   7.436   8.933  22.722 -0.0425 -0.0829  0.1411
 7852DDP     C147107   9.990  26.672   0.912  0.1146 -0.1252  0.0736
 7852DDP     P147108  10.190  26.274   1.093 -0.0328 -0.1354  0.1160
 7852DDP     P247109   9.878  26.642   0.540 -0.1307  0.6113 -0.0386
 7852DDP     C247110   9.789  26.744   0.117  0.0238  0.0347  0.0915
 7852DDP     C347111  10.609  26.220   1.343  0.0568 -0.1526  0.2406
 7852DDP     C447112   9.906  27.018   1.077 -0.3309  0.0089 -0.0688
 7853DDP     C147113  30.311   2.269  28.099 -0.0158  0.3291  0.1199
 7853DDP     P147114  29.957   2.107  27.892  0.1677 -0.1719  0.0029
 7853DDP     P247115  30.231   2.180  28.533  0.0754 -0.0653  0.0145
 7853DDP     C247116  29.864   2.335  28.895  0.0869  0.0415  0.2000
 7853DDP     C347117  29.911   1.877  27.566  0.1419  0.3243  0.0672
 7853DDP     C447118   0.218   2.575  27.877  0.0493 -0.0807  0.2818
 7854DDP     C147119   9.736  23.321  25.148  0.2290 -0.1445 -0.3967
 7854DDP     P147120   9.794  23.280  24.701  0.1521 -0.0375  0.1467
 7854DDP     P247121   9.962  23.091  25.377 -0.0620 -0.0955 -0.3124
 7854DDP     C247122  10.176  23.060  25.678  0.1724 -0.0972 -0.3394
 7854DDP     C347123   9.789  23.471  24.269  0.0467 -0.0925 -0.0349
 7854DDP     C447124   9.520  23.692  25.355 -0.0721 -0.0927  0.0543
 7855DDP     C147125   4.328   0.185  25.937 -0.1409 -0.0394  0.0144
 7855DDP     P147126   4.009   0.162  25.960 -0.0407 -0.1796 -0.1628
 7855DDP     P247127   4.549   0.110  25.567  0.2257  0.1203  0.0910
 7855DDP     C247128   4.615  29.950  25.530 -0.1246 -0.0925 -0.4881
 7855DDP     C347129   3.730  30.226  26.156 -0.0595 -0.3219 -0.0722
 7855DDP     C447130   4.509   0.217  26.327 -0.4738 -0.1267 -0.0545
 7856DDP     C147131   0.312  24.765   2.037 -0.0345 -0.3037 -0.0809
 7856DDP     P147132   0.199  25.200   1.826  0.0242  0.0216 -0.3003
 7856DDP     P247133   0.621  24.750   2.265  0.0015 -0.0320  0.2827
 7856DDP     C247134   0.908  24.626   2.201  0.1390  0.2646 -0.1007
 7856DDP     C347135  30.231  25.548   1.932 -0.1330 -0.0543  0.2023
 7856DDP     C447136  -0.004  24.408   2.075 -0.1908  0.0101  0.0058
 7857DDP     C147137   3.011  10.388   8.656 -0.1727  0.1684  0.3089
 7857DDP     P147138   3.254  10.111   8.966  0.0010  0.3004 -0.3557
 7857DDP     P247139   2.630  10.199   8.542 -0.2074  0.0048  0.0576
 7857DDP     C247140   2.259  10.117   8.333  0.1011  0.0178  0.3140
 7857DDP     C347141   3.097   9.820   9.190  0.0322 -0.0779  0.1662
 7857DDP     C447142   2.966  10.813   8.413 -0.1003 -0.2120 -0.1336
 7858DDP     C147143  28.014  20.450  20.681  0.3010 -0.1068 -0.1448
 7858DDP     P147144  28.250  20.796  20.632  0.0683 -0.0197 -0.1117
 7858DDP     P247145  28.210  20.043  20.604  0.0210  0.0755 -0.3962
 7858DDP     C247146  28.247  19.605  20.302 -0.4785 -0.2272  0.1315
 7858DDP     C347147  28.605  20.894  20.926  0.2323  0.1667 -0.0354
 7858DDP     C447148  27.535  20.410  20.851 -0.2813 -0.0335  0.0716
 7859DDP     C147149   9.756  22.880  14.291  0.0749 -0.0096 -0.0618
 7859DDP     P147150   9.826  22.569  14.488 -0.0491  0.1915  0.3920
 7859DDP     P247151  10.047  23.208  14.214 -0.3122  0.3506 -0.0877
 7859DDP     C247152  10.242  23.317  13.833  0.1333  0.3066  0.1516
 7859DDP     C347153  10.162  22.580  14.715 -0.3280  0.0278  0.0753
 7859DDP     C447154   9.500  22.981  14.156 -0.1460  0.3345  0.0358
 7860DDP     C147155  30.190   4.583   3.354 -0.2538 -0.1214 -0.0161
 7860DDP     P147156  29.804   4.771   3.388  0.2572  0.1327  0.3107
 7860DDP     P247157  -0.027   4.206   3.060 -0.1279 -0.4230 -0.4814
 7860DDP     C247158  30.275   3.738   2.899  0.2189  0.3971 -0.1924
 7860DDP     C347159  29.668   5.112   3.240 -0.0267 -0.0479  0.1310
 7860DDP     C447160   0.079   4.716   3.684  0.1482  0.0733 -0.2110
 7861DDP     C147161   1.739  14.047   1.888 -0.1961 -0.2160 -0.0457
 7861DDP     P147162   1.346  13.906   1.772 -0.0145  0.1225 -0.0635
 7861DDP     P247163   1.910  14.504   2.025  0.3458  0.3324 -0.0274
 7861DDP     C247164   1.827  14.797   2.428 -0.2024 -0.0088 -0.0977
 7861DDP     C347165   1.105  13.516   1.802 -0.2887  0.1051 -0.1867
 7861DDP     C447166   2.141  14.011   1.781 -0.3158  0.2902  0.0864
 7862DDP     C147167   5.659  10.569   0.330 -0.2895  0.1507  0.2703
 7862DDP     P147168   5.694  10.173   0.121  0.1070 -0.0089  0.1793
 7862DDP     P247169   5.673  10.813  30.305  0.1614 -0.0037 -0.0343
 7862DDP     C247170   5.874  10.895  29.866  0.2129  0.0276  0.1181
 7862DDP     C347171   5.524   9.723   0.134 -0.0247  0.2437  0.0085
 7862DDP     C447172   5.690  10.491   0.807 -0.2651 -0.2053 -0.1483
 7863DDP     C147173   2.537  19.971  16.084  0.0129  0.2811 -0.0776
 7863DDP     P147174   2.993  19.883  16.113  0.0377  0.1826  0.3513
 7863DDP     P247175   2.425  19.973  15.680  0.0363 -0.1139  0.0083
 7863DDP     C247176   1.986  19.964  15.650 -0.3272  0.2829  0.0679
 7863DDP     C347177   3.208  19.416  15.897 -0.0453  0.1390 -0.0542
 7863DDP     C447178   2.180  19.946  16.282  0.0521  0.0762  0.3627
 7864DDP     C147179   2.615  14.486  19.288  0.1280 -0.0377 -0.0927
 7864DDP     P147180   2.817  14.355  19.005 -0.0766  0.1284  0.0734
 7864DDP     P247181   2.668  14.505  19.669  0.2180 -0.2289 -0.0820
 7864DDP     C247182   2.402  14.541  20.094  0.4199 -0.2966 -0.0873
 7864DDP     C347183   3.038  14.058  18.806  0.1854  0.0278 -0.2163
 7864DDP     C447184   2.206  14.439  19.260  0.1794 -0.0013  0.1067
 7865DDP     C147185  23.421   7.432  18.792  0.0199  0.0713 -0.0080
 7865DDP     P147186  23.737   7.635  18.980  0.0515  0.0328  0.1380
 7865DDP     P247187  22.983   7.525  18.907 -0.0117  0.0109 -0.1743
 7865DDP     C247188  22.739   7.821  18.821 -0.1798  0.0785  0.0197
 7865DDP     C347189  23.940   7.367  19.234 -0.0973  0.2010 -0.0716
 7865DDP     C447190  23.568   7.012  18.551  0.0566  0.0509  0.0059
 7866DDP     C147191  23.874  18.623  27.551 -0.0524  0.2487  0.2806
 7866DDP     P147192  24.073  18.400  27.960  0.0490  0.0997  0.0589
 7866DDP     P247193  24.153  18.502  27.166  0.0418 -0.0545  0.0103
 7866DDP     C247194  24.371  18.487  26.806  0.1057  0.1672 -0.0428
 7866DDP     C347195  24.263  17.985  28.102  0.1902 -0.1983  0.2571
 7866DDP     C447196  23.546  18.847  27.580  0.1206 -0.5611  0.1176
 7867DDP     C147197  28.209   9.078  17.626 -0.1773  0.0097 -0.1039
 7867DDP     P147198  28.339   9.496  17.541  0.0770 -0.2313 -0.5051
 7867DDP     P247199  28.164   8.660  17.300  0.0704 -0.1817 -0.2631
 7867DDP     C247200  27.877   8.317  17.383  0.1149  0.0728 -0.0619
 7867DDP     C347201  28.466   9.892  17.266 -0.1162 -0.1875 -0.2595
 7867DDP     C447202  28.114   9.224  18.048  0.2192  0.0541 -0.2318
 7868DDP     C147203  26.443   3.539  12.803  0.1495 -0.1204 -0.1518
 7868DDP     P147204  26.024   3.639  12.844  0.0271 -0.1426  0.3133
 7868DDP     P247205  26.443   3.105  12.984  0.1557 -0.1029  0.3168
 7868DDP     C247206  26.055   2.960  13.005  0.1044 -0.0254 -0.1829
 7868DDP     C347207  25.671   3.644  13.174 -0.0009 -0.1806 -0.1170
 7868DDP     C447208  26.778   3.689  12.603 -0.2153  0.0505  0.0861
 7869DDP     C147209  29.729  14.082  25.545  0.0229  0.1378  0.1823
 7869DDP     P147210  29.541  14.478  25.448 -0.1478 -0.0463 -0.1169
 7869DDP     P247211  30.149  14.009  25.289  0.1283  0.1168 -0.1280
 7869DDP     C247212   0.232  13.929  25.072 -0.2041  0.2245 -0.0617
 7869DDP     C347213  29.272  14.954  25.431  0.0385 -0.1105 -0.2217
 7869DDP     C447214  29.486  13.793  25.885  0.0840 -0.1286 -0.2482
 7870DDP     C147215   3.301   1.764  15.675 -0.2358  0.0416  0.1554
 7870DDP     P147216   3.534   1.323  15.578 -0.2868 -0.1050  0.1497
 7870DDP     P247217   3.432   2.199  15.456 -0.1842 -0.2478 -0.2008
 7870DDP     C247218   3.696   2.489  15.269 -0.0240  0.1547 -0.0363
 7870DDP     C347219   3.753   0.911  15.399  0.0472 -0.0596 -0.1577
 7870DDP     C447220   2.867   1.766  15.861  0.1463  0.1916 -0.3486
 7871DDP     C147221  14.830  23.895  16.740  0.0114  0.0511 -0.2584
 7871DDP     P147222  14.778  23.420  16.683  0.0889 -0.2513  0.1409
 7871DDP     P247223  15.265  23.968  16.937  0.1048 -0.1380  0.0077
 7871DDP     C247224  15.637  23.917  17.245 -0.1603 -0.0247 -0.0893
 7871DDP     C347225  14.438  23.236  16.619 -0.1330  0.0704 -0.1612
 7871DDP     C447226  14.557  24.193  16.609  0.0440  0.0111  0.2419
 7872DDP     C147227  24.908  27.798  23.932  0.1208  0.2412 -0.0336
 7872DDP     P147228  24.978  27.459  23.678 -0.0797  0.1609 -0.0750
 7872DDP     P247229  24.497  28.027  23.865  0.0563 -0.1176 -0.1480
 7872DDP     C247230  24.365  28.253  23.627  0.1004 -0.1770  0.0640
 7872DDP     C347231  24.911  27.125  23.332  0.1185  0.0502 -0.2335
 7872DDP     C447232  25.245  28.057  24.183 -0.1806  0.1628  0.0792
 7873DDP     C147233  29.958  27.854   3.355 -0.1752 -0.2095 -0.0281
 7873DDP     P147234  29.538  27.811   3.096  0.0944  0.0119  0.3836
 7873DDP     P247235  30.220  27.769   3.051 -0.0566 -0.0332 -0.1139
 7873DDP     C247236   0.159  27.871   2.754  0.0619 -0.2090  0.0406
 7873DDP     C347237  29.464  28.071   2.885  0.1004 -0.0894 -0.1955
 7873DDP     C447238  30.071  27.843   3.782 -0.0541  0.0680  0.3440
 7874DDP     C147239   2.261  18.721  14.455 -0.1684  0.1542  0.1191
 7874DDP     P147240   1.835  18.472  14.521  0.1617 -0.1223  0.0000
 7874DDP     P247241   2.645  18.606  14.486 -0.1385  0.0853 -0.0059
 7874DDP     C247242   2.942  18.719  14.200 -0.2035 -0.0174 -0.1188
 7874DDP     C347243   1.357  18.734  14.614  0.4127  0.0404  0.1024
 7874DDP     C447244   2.361  19.095  14.485 -0.0085 -0.1691  0.0788
 7875DDP     C147245   0.060  18.244  18.777 -0.1136  0.0819 -0.1944
 7875DDP     P147246  30.060  18.362  19.063 -0.1242 -0.0975  0.3961
 7875DDP     P247247   0.303  18.109  19.096  0.2536  0.1574 -0.2083
 7875DDP     C247248   0.277  17.863  19.443  0.1722  0.2236 -0.1347
 7875DDP     C347249  29.856  18.648  19.406 -0.0502  0.0793  0.0761
 7875DDP     C447250   0.049  18.245  18.366 -0.0924 -0.0486  0.1155
 7876DDP     C147251  11.699  17.695  18.540 -0.0514  0.1584 -0.3227
 7876DDP     P147252  11.826  18.195  18.518 -0.1649 -0.2009  0.1690
 7876DDP     P247253  11.261  17.512  18.742  0.1834 -0.1098 -0.3466
 7876DDP     C247254  10.942  17.778  18.650 -0.0854  0.1099 -0.0603
 7876DDP     C347255  11.947  18.652  18.380 -0.2278 -0.2530  0.0060
 7876DDP     C447256  11.797  17.408  18.133 -0.4909  0.0203  0.0583
 7877DDP     C147257  11.589   2.968  15.597  0.0034 -0.3399 -0.5543
 7877DDP     P147258  11.214   2.971  15.928  0.0452  0.2380  0.1312
 7877DDP     P247259  11.714   3.374  15.602 -0.0636  0.3842 -0.1185
 7877DDP     C247260  11.582   3.676  15.403  0.0828 -0.0233  0.2519
 7877DDP     C347261  10.950   3.136  16.197 -0.0587 -0.6350 -0.1125
 7877DDP     C447262  11.783   2.519  15.659  0.2614  0.1725  0.0031
 7878DDP     C147263  12.967   1.022   5.825  0.1773  0.1884 -0.3745
 7878DDP     P147264  12.722   0.966   5.388 -0.1115 -0.0350 -0.1711
 7878DDP     P247265  13.271   1.295   5.921 -0.2269 -0.1772  0.2276
 7878DDP     C247266  13.378   1.574   5.902 -0.1485 -0.3022 -0.1650
 7878DDP     C347267  12.763   1.243   4.973 -0.2016  0.1442  0.2183
 7878DDP     C447268  12.913   0.842   6.179 -0.2704  0.1058 -0.0020
 7879DDP     C147269   3.015   2.037   2.118 -0.3749  0.0614  0.1065
 7879DDP     P147270   3.034   2.263   2.509  0.1258 -0.0137 -0.0582
 7879DDP     P247271   2.771   1.740   1.967  0.2604 -0.1701  0.2436
 7879DDP     C247272   2.293   1.720   1.957  0.0701 -0.0377  0.0368
 7879DDP     C347273   3.237   2.678   2.572 -0.2075 -0.1339 -0.0359
 7879DDP     C447274   3.199   2.147   1.716 -0.1265 -0.0323 -0.0873
 7880DDP     C147275  14.982   6.877  24.092  0.1903 -0.1114  0.0772
 7880DDP     P147276  15.080   7.121  24.500  0.0247 -0.0140 -0.1378
 7880DDP     P247277  14.941   6.407  24.254  0.0211  0.5274  0.0260
 7880DDP     C247278  14.882   5.956  24.170 -0.2575  0.1066  0.2093
 7880DDP     C347279  15.483   7.286  24.714  0.1633  0.2586  0.1333
 7880DDP     C447280  14.849   7.114  23.849 -0.2461  0.4514  0.3543
 7881DDP     C147281  14.114  21.455  11.382  0.0363 -0.1117 -0.0148
 7881DDP     P147282  13.874  21.567  11.717 -0.2447 -0.2308 -0.1685
 7881DDP     P247283  14.151  21.755  11.149 -0.1045  0.1257  0.2527
 7881DDP     C247284  14.392  21.795  10.778  0.2632  0.2780 -0.0873
 7881DDP     C347285  13.909  21.826  12.193  0.3259  0.2572 -0.1790
 7881DDP     C447286  14.286  21.157  11.227 -0.1623 -0.0661  0.1344
 7882DDP     C147287   6.285  11.777  24.993 -0.1772  0.0482  0.2952
 7882DDP     P147288   6.539  11.790  24.623 -0.1759 -0.4309  0.1198
 7882DDP     P247289   6.427  12.073  25.468 -0.0149  0.1930 -0.1482
 7882DDP     C247290   6.361  12.086  25.842  0.4896 -0.0972 -0.0429
 7882DDP     C347291   6.902  12.032  24.483  0.4130 -0.0720 -0.3073
 7882DDP     C447292   6.095  11.496  25.122  0.2563 -0.2638 -0.1797
 7883DDP     C147293  13.451   6.785  29.038  0.1522 -0.2758  0.1444
 7883DDP     P147294  13.356   6.331  28.853  0.0447 -0.0420 -0.0276
 7883DDP     P247295  13.753   7.008  29.168  0.1642  0.0974 -0.0854
 7883DDP     C247296  14.191   6.914  29.193 -0.1162 -0.0055  0.0348
 7883DDP     C347297  13.656   5.913  28.760  0.0717 -0.0839 -0.2045
 7883DDP     C447298  13.124   7.118  29.152 -0.1324  0.0998  0.0586
 7884DDP     C147299  25.670  16.921  15.915  0.2018 -0.1378 -0.1203
 7884DDP     P147300  26.031  17.218  15.783  0.0295  0.0412 -0.0075
 7884DDP     P247301  25.845  16.609  16.148 -0.0325  0.1870  0.1223
 7884DDP     C247302  26.214  16.342  16.175  0.2104 -0.2155  0.0585
 7884DDP     C347303  26.246  17.364  15.417  0.1992  0.0683 -0.0007
 7884DDP     C447304  25.301  17.064  15.897 -0.1006 -0.0625 -0.0488
 7885DDP     C147305   5.840  22.628  20.700 -0.1483 -0.1391  0.0915
 7885DDP     P147306   5.747  22.571  21.179 -0.0727  0.0199  0.0502
 7885DDP     P247307   5.580  22.396  20.357 -0.0327 -0.1520  0.2799
 7885DDP     C247308   5.558  21.959  20.227 -0.0205  0.4137  0.1155
 7885DDP     C347309   5.936  22.667  21.494  0.3376 -0.2307  0.0460
 7885DDP     C447310   6.136  22.974  20.600 -0.2127  0.0597 -0.2247
 7886DDP     C147311   1.242  17.627  18.349 -0.3209 -0.1893 -0.4285
 7886DDP     P147312   1.490  17.948  18.217  0.1216 -0.1732 -0.0565
 7886DDP     P247313   1.351  17.380  18.683  0.0747 -0.1381  0.0146
 7886DDP     C247314   1.670  17.297  19.012 -0.4122  0.2390 -0.2707
 7886DDP     C347315   1.790  18.088  17.806 -0.0923  0.2828  0.1408
 7886DDP     C447316   0.837  17.518  18.090 -0.2910  0.1178  0.2262
 7887DDP     C147317  15.069   4.809   3.558 -0.3114 -0.3224  0.1137
 7887DDP     P147318  15.102   4.392   3.729  0.0208  0.2191 -0.1001
 7887DDP     P247319  14.853   5.157   3.880  0.0089  0.1397 -0.1922
 7887DDP     C247320  14.471   5.463   3.812 -0.2243  0.0671  0.1038
 7887DDP     C347321  14.986   4.516   4.292  0.1811 -0.0132 -0.0519
 7887DDP     C447322  15.093   4.882   3.181 -0.0308  0.2133 -0.0931
 7888DDP     C147323  14.338  11.991   3.418 -0.0437  0.2235  0.1396
 7888DDP     P147324  14.571  12.241   3.717 -0.1899 -0.0894  0.1914
 7888DDP     P247325  14.604  11.728   3.165 -0.1675  0.1931  0.2358
 7888DDP     C247326  14.775  11.617   2.775  0.2665 -0.4763 -0.1352
 7888DDP     C347327  14.746  12.572   3.560 -0.1071 -0.3663 -0.1164
 7888DDP     C447328  13.871  12.047   3.283  0.2280  0.1357 -0.0676
 7889DDP     C147329   1.658  29.041  23.836 -0.0209 -0.1406  0.1249
 7889DDP     P147330   1.201  28.986  23.601 -0.1818 -0.1624  0.0199
 7889DDP     P247331   1.942  28.728  23.905 -0.1474 -0.1896  0.0642
 7889DDP     C247332   2.424  28.694  23.726 -0.3446 -0.3370 -0.0559
 7889DDP     C347333   0.814  29.047  23.361 -0.0772  0.0513  0.0424
 7889DDP     C447334   1.958  29.481  23.960  0.0575 -0.0959 -0.1105
 7890DDP     C147335  18.834   0.398   6.657  0.1056 -0.3027 -0.0295
 7890DDP     P147336  18.559   0.319   6.909  0.1342  0.0476 -0.1939
 7890DDP     P247337  18.808   0.126   6.255  0.2314 -0.2341  0.1531
 7890DDP     C247338  18.576  -0.018   5.907  0.2936 -0.3758  0.0507
 7890DDP     C347339  18.178   0.041   6.914  0.0288  0.0901  0.0569
 7890DDP     C447340  18.878   0.901   6.580 -0.1432 -0.0502  0.3044
 7891DDP     C147341  14.816  25.735  10.613 -0.2033 -0.2896  0.0553
 7891DDP     P147342  14.579  26.074  10.520 -0.3431 -0.1548  0.1124
 7891DDP     P247343  14.703  25.649  11.040 -0.3640 -0.3315  0.1944
 7891DDP     C247344  14.713  25.677  11.440  0.2628 -0.1418 -0.0654
 7891DDP     C347345  14.065  26.101  10.457 -0.4255 -0.1796 -0.0069
 7891DDP     C447346  15.192  25.424  10.369 -0.0528  0.0045  0.1407
 7892DDP     C147347   9.240  19.336  16.012  0.1899  0.0643 -0.0783
 7892DDP     P147348   9.001  19.249  15.701  0.1845 -0.1836  0.1475
 7892DDP     P247349   9.378  19.630  16.348  0.1235  0.0130  0.0151
 7892DDP     C247350   9.525  19.635  16.809  0.0880  0.3984 -0.4023
 7892DDP     C347351   9.099  19.261  15.250  0.0519 -0.0187 -0.0759
 7892DDP     C447352   9.480  19.018  16.126 -0.1592 -0.0512 -0.0827
 7893DDP     C147353  22.367   4.748   2.618  0.4292 -0.1300  0.0946
 7893DDP     P147354  22.045   4.721   2.835 -0.1862 -0.0470 -0.0685
 7893DDP     P247355  22.205   4.475   2.351 -0.0092  0.2799  0.2327
 7893DDP     C247356  22.049   4.003   2.163  0.1410 -0.2671 -0.0228
 7893DDP     C347357  21.760   4.985   3.120  0.1911  0.1926  0.3791
 7893DDP     C447358  22.638   5.102   2.699 -0.2607  0.3685 -0.0186
 7894DDP     C147359  11.564  20.914   3.672  0.1090  0.2463 -0.2420
 7894DDP     P147360  11.956  21.105   3.631  0.2754  0.1056  0.0678
 7894DDP     P247361  11.196  20.945   3.492  0.0740 -0.1327 -0.1344
 7894DDP     C247362  10.970  20.683   3.220 -0.0602 -0.3117  0.1266
 7894DDP     C347363  12.378  20.874   3.721 -0.0049 -0.1024 -0.0044
 7894DDP     C447364  11.473  20.880   4.071 -0.0499 -0.2348 -0.0815
 7895DDP     C147365   4.117  11.839  26.525 -0.0374  0.0926  0.1973
 7895DDP     P147366   4.455  12.108  26.255  0.1130  0.0551 -0.2630
 7895DDP     P247367   3.876  11.973  26.234 -0.2442  0.3059 -0.1583
 7895DDP     C247368   4.051  12.280  25.987 -0.3086 -0.0688  0.2854
 7895DDP     C347369   4.780  12.442  26.200 -0.2404 -0.0753  0.0982
 7895DDP     C447370   4.017  11.630  26.880 -0.0789  0.0592 -0.1233
 7896DDP     C147371  28.079   2.042  14.651  0.0021 -0.0776  0.2768
 7896DDP     P147372  28.162   1.581  14.486 -0.1421  0.0670  0.0130
 7896DDP     P247373  27.644   2.306  14.576  0.0997  0.2439 -0.1132
 7896DDP     C247374  27.257   2.203  14.559 -0.3744 -0.1021 -0.1475
 7896DDP     C347375  28.251   1.184  14.744 -0.1997  0.1071  0.0809
 7896DDP     C447376  28.448   2.159  14.909 -0.2723  0.1759  0.4682
 7897DDP     C147377  14.254  19.738  13.369  0.3877  0.3747  0.0952
 7897DDP     P147378  14.522  19.507  13.569 -0.0648 -0.0202 -0.1647
 7897DDP     P247379  13.844  19.875  13.484 -0.0697  0.3876  0.2243
 7897DDP     C247380  13.684  20.278  13.453 -0.1115  0.2589  0.0474
 7897DDP     C347381  14.794  19.153  13.518  0.0860 -0.0862  0.0200
 7897DDP     C447382  14.348  19.800  12.930 -0.0511 -0.2528  0.0103
 7898DDP     C147383   3.987   9.806  19.744 -0.3644 -0.1576 -0.0846
 7898DDP     P147384   4.298  10.063  19.564  0.3686 -0.1957  0.4695
 7898DDP     P247385   4.048   9.494  20.110  0.0934 -0.0778  0.1252
 7898DDP     C247386   4.188   9.124  19.857 -0.1348 -0.2133 -0.3007
 7898DDP     C347387   4.431  10.068  19.187  0.1805 -0.2662  0.1438
 7898DDP     C447388   3.645  10.013  19.499  0.2738  0.0276 -0.1473
 7899DDP     C147389  15.838   8.102  22.790  0.1852 -0.1798  0.0046
 7899DDP     P147390  15.474   8.159  22.856  0.0590  0.2476 -0.1562
 7899DDP     P247391  16.123   8.074  23.146  0.0160  0.1515  0.1490
 7899DDP     C247392  16.366   8.107  23.535  0.0229 -0.0043  0.1046
 7899DDP     C347393  15.275   8.466  23.116 -0.3362 -0.1999 -0.3452
 7899DDP     C447394  15.919   8.257  22.400  0.3141  0.0075 -0.2088
 7900DDP     C147395  23.503  17.784  25.887  0.4720  0.1046  0.1869
 7900DDP     P147396  23.918  17.791  26.131  0.1675 -0.0926  0.1262
 7900DDP     P247397  23.689  18.119  25.555 -0.0139  0.2727  0.1726
 7900DDP     C247398  23.617  18.232  25.078 -0.1547  0.0399 -0.1111
 7900DDP     C347399  24.179  18.093  26.507 -0.1148 -0.0983 -0.0114
 7900DDP     C447400  23.059  17.716  25.948 -0.6257 -0.1680  0.0360
 7901DDP     C147401  13.393  14.409  29.749 -0.3880 -0.2921 -0.1372
 7901DDP     P147402  13.588  14.668  30.023  0.2269 -0.1280  0.2222
 7901DDP     P247403  12.976  14.684  29.712 -0.2594  0.2492 -0.1904
 7901DDP     C247404  12.808  14.956  29.417 -0.4378 -0.0653  0.1610
 7901DDP     C347405  13.863  14.631   0.017 -0.0968  0.2474 -0.3646
 7901DDP     C447406  13.681  14.071  29.500  0.3206  0.1004 -0.0217
 7902DDP     C147407   2.248   8.375  17.637 -0.1480 -0.1002 -0.2244
 7902DDP     P147408   2.321   8.643  17.234  0.1538 -0.2556 -0.0626
 7902DDP     P247409   1.943   8.240  17.903  0.1245 -0.0706 -0.0911
 7902DDP     C247410   1.622   8.341  18.250  0.2084  0.1333 -0.0365
 7902DDP     C347411   2.153   9.030  16.989 -0.0428  0.2624 -0.0821
 7902DDP     C447412   2.705   8.155  17.682  0.1408  0.1257  0.1615
 7903DDP     C147413  25.171  23.799  26.656 -0.0705 -0.0758  0.1163
 7903DDP     P147414  24.970  23.433  26.592  0.1733 -0.0596 -0.1741
 7903DDP     P247415  25.552  23.729  26.780  0.0755  0.1039 -0.1308
 7903DDP     C247416  25.901  23.556  26.815 -0.1637  0.1749  0.4163
 7903DDP     C347417  24.911  23.015  26.482  0.1337  0.1351 -0.2797
 7903DDP     C447418  24.978  24.235  26.772  0.0757 -0.0223  0.1525
 7904DDP     C147419  16.596  20.020  20.066  0.1171  0.2225  0.0087
 7904DDP     P147420  17.033  19.836  20.018  0.0635 -0.1117 -0.1914
 7904DDP     P247421  16.359  20.209  19.691 -0.2282 -0.1707  0.0276
 7904DDP     C247422  16.076  20.444  19.393 -0.1015 -0.0338 -0.0123
 7904DDP     C347423  17.380  19.879  19.707  0.1420  0.0196 -0.3695
 7904DDP     C447424  16.431  20.179  20.429 -0.1812 -0.0729 -0.1986
 7905DDP     C147425  22.011   1.352  14.155  0.1512  0.1810 -0.0098
 7905DDP     P147426  21.937   1.245  14.593  0.0369  0.0714  0.3477
 7905DDP     P247427  22.452   1.200  13.945  0.0944  0.0005 -0.1307
 7905DDP     C247428  22.842   1.283  14.022  0.0579 -0.0583 -0.0012
 7905DDP     C347429  22.065   1.265  14.988 -0.0180  0.0597  0.1238
 7905DDP     C447430  21.733   1.631  13.842  0.1433 -0.1206 -0.2988
 7906DDP     C147431  22.409  28.384   1.881  0.0558  0.0590  0.1931
 7906DDP     P147432  22.643  28.037   1.631 -0.1233 -0.0093 -0.1705
 7906DDP     P247433  22.509  28.892   1.767 -0.0996  0.2615 -0.2546
 7906DDP     C247434  22.461  29.280   1.656 -0.1081  0.1204  0.2850
 7906DDP     C347435  22.616  27.657   1.407  0.0074  0.1844 -0.1633
 7906DDP     C447436  21.974  28.338   1.993 -0.0286 -0.1217 -0.0945
 7907DDP     C147437  26.270  27.680   5.422 -0.0276 -0.0419  0.1833
 7907DDP     P147438  26.618  27.520   5.635 -0.0644  0.1294 -0.1624
 7907DDP     P247439  25.940  27.779   5.696 -0.3426 -0.0164 -0.5235
 7907DDP     C247440  25.509  27.496   5.876 -0.1118 -0.1299  0.0153
 7907DDP     C347441  27.009  27.500   5.644 -0.2285 -0.1826  0.2238
 7907DDP     C447442  26.194  27.748   4.957 -0.1777  0.1999  0.0264
 7908DDP     C147443   4.198  22.983   3.573 -0.1160 -0.0140 -0.3181
 7908DDP     P147444   3.910  23.405   3.556  0.0796 -0.2293 -0.1113
 7908DDP     P247445   4.174  22.578   3.349 -0.2990 -0.3881 -0.2255
 7908DDP     C247446   4.213  22.402   2.886  0.0302 -0.0563  0.0265
 7908DDP     C347447   3.594  23.744   3.751 -0.0207  0.1862 -0.1543
 7908DDP     C447448   4.367  22.983   3.968 -0.0064  0.0112 -0.0972
 7909DDP     C147449  16.859  11.643  10.234  0.1142  0.1555  0.0518
 7909DDP     P147450  16.681  12.056  10.356 -0.2978  0.2151  0.1611
 7909DDP     P247451  16.740  11.262  10.301 -0.1277 -0.3979 -0.3033
 7909DDP     C247452  16.757  10.850  10.152  0.0506  0.0320 -0.1516
 7909DDP     C347453  16.431  12.268  10.142 -0.0965 -0.1118 -0.1241
 7909DDP     C447454  17.057  11.858  10.000 -0.3050  0.0227  0.2030
 7910DDP     C147455   7.571  17.945   8.114  0.2708  0.0513  0.3695
 7910DDP     P147456   7.551  17.600   7.893  0.1338  0.0737  0.0899
 7910DDP     P247457   7.393  18.344   8.137 -0.2177 -0.3154 -0.1060
 7910DDP     C247458   7.252  18.639   8.500 -0.2595  0.2011  0.3244
 7910DDP     C347459   7.633  17.343   7.742 -0.0033 -0.2122  0.2157
 7910DDP     C447460   7.921  17.713   8.268 -0.0159  0.1824  0.0421
 7911DDP     C147461   2.639   1.373  16.080 -0.1169  0.0327 -0.2434
 7911DDP     P147462   3.042   1.300  15.923 -0.1970  0.0659  0.2092
 7911DDP     P247463   2.525   1.750  16.272 -0.1071  0.1565  0.1044
 7911DDP     C247464   2.641   2.162  16.159  0.1994  0.1021  0.2760
 7911DDP     C347465   3.013   1.392  15.452  0.0015 -0.2148 -0.0692
 7911DDP     C447466   2.348   1.053  15.984  0.2309  0.2150 -0.1007
 7912DDP     C147467  11.860  29.384   3.290 -0.1233  0.0782  0.0360
 7912DDP     P147468  11.714  29.089   3.051  0.0380 -0.4812 -0.0473
 7912DDP     P247469  12.237  29.444   3.462  0.0929  0.1726  0.1728
 7912DDP     C247470  12.460  29.461   3.799 -0.1097  0.0636 -0.2291
 7912DDP     C347471  11.877  28.676   2.992  0.2144  0.0862  0.3240
 7912DDP     C447472  11.635  29.667   3.548 -0.0008 -0.3650  0.0645
 7913DDP     C147473   8.616  11.871   2.256  0.0368  0.0389 -0.0454
 7913DDP     P147474   8.679  11.821   1.782 -0.3125  0.1275  0.3298
 7913DDP     P247475   8.547  11.586   2.702 -0.4917 -0.0434  0.0990
 7913DDP     C247476   8.779  11.270   3.037 -0.1830 -0.0352  0.0611
 7913DDP     C347477   8.667  11.551   1.386 -0.1617 -0.2334  0.0490
 7913DDP     C447478   8.311  12.202   2.347  0.3023 -0.2688  0.3100
 7914DDP     C147479  17.417  28.504   8.981  0.2419 -0.0597  0.1808
 7914DDP     P147480  17.029  28.283   8.780  0.2539  0.0468 -0.0468
 7914DDP     P247481  17.627  28.911   8.955  0.2162 -0.1038  0.1232
 7914DDP     C247482  18.037  29.139   8.910 -0.0472 -0.0859  0.0255
 7914DDP     C347483  16.702  28.119   9.016  0.0454 -0.1369 -0.0223
 7914DDP     C447484  17.515  28.475   9.461 -0.3802 -0.1310  0.2444
 7915DDP     C147485   0.167  23.939   5.492 -0.0259  0.0674  0.0124
 7915DDP     P147486   0.118  23.859   5.941  0.0160 -0.1282 -0.2271
 7915DDP     P247487  30.031  23.945   5.385  0.0187 -0.1355  0.2265
 7915DDP     C247488  29.824  23.494   5.356 -0.0984  0.3114  0.0010
 7915DDP     C347489  30.116  23.919   6.164  0.3139 -0.0276 -0.2014
 7915DDP     C447490   0.655  24.069   5.390 -0.3777 -0.4822 -0.0832
 7916DDP     C147491  22.693   9.949  11.630 -0.0655  0.0515 -0.0744
 7916DDP     P147492  22.257  10.020  11.667  0.0783 -0.1106 -0.2553
 7916DDP     P247493  23.088  10.125  11.842 -0.0562 -0.0626 -0.0721
 7916DDP     C247494  23.512  10.091  12.062 -0.0772 -0.1328  0.1797
 7916DDP     C347495  21.924   9.746  11.577  0.1022  0.0623  0.2463
 7916DDP     C447496  22.761   9.684  11.281  0.4316 -0.1438 -0.3776
 7917DDP     C147497  18.661   7.892  24.280 -0.3822  0.0451  0.0017
 7917DDP     P147498  19.076   7.959  24.124 -0.3429 -0.1470 -0.0812
 7917DDP     P247499  18.871   7.763  24.740 -0.1230 -0.1006  0.0134
 7917DDP     C247500  19.178   7.589  25.061 -0.2604  0.1911  0.2720
 7917DDP     C347501  19.239   8.306  24.129  0.2964  0.1340 -0.2196
 7917DDP     C447502  18.282   7.956  24.066  0.0023  0.0596  0.2544
 7918DDP     C147503  27.193  17.664  16.209 -0.1388 -0.2210 -0.0406
 7918DDP     P147504  27.602  17.502  16.341 -0.0034  0.2246  0.3802
 7918DDP     P247505  26.964  17.896  16.470 -0.2575  0.1954 -0.0431
 7918DDP     C247506  26.819  18.168  16.820  0.2780  0.2314  0.3133
 7918DDP     C347507  27.854  17.818  16.469 -0.0434 -0.2071 -0.1722
 7918DDP     C447508  27.021  17.701  15.842 -0.0908  0.2028 -0.2719
 7919DDP     C147509  18.855  13.266   4.926  0.0867  0.1011 -0.0663
 7919DDP     P147510  18.976  13.360   4.568 -0.1472 -0.2802 -0.1059
 7919DDP     P247511  18.814  13.717   5.199 -0.0582  0.0414  0.1894
 7919DDP     C247512  18.774  14.013   5.615  0.0966  0.0569  0.0926
 7919DDP     C347513  19.186  13.079   4.382 -0.4187 -0.2873  0.1808
 7919DDP     C447514  18.922  12.833   5.175 -0.0070  0.0927  0.2021
 7920DDP     C147515   3.357  19.257  21.863  0.0627  0.0347 -0.0911
 7920DDP     P147516   3.432  18.851  21.785 -0.0436  0.2924 -0.1714
 7920DDP     P247517   3.588  19.658  21.969 -0.0631 -0.0062 -0.0849
 7920DDP     C247518   3.771  19.884  22.340  0.2870 -0.0166  0.3086
 7920DDP     C347519   3.470  18.389  21.766  0.1307  0.1278 -0.2444
 7920DDP     C447520   3.014  19.555  21.718  0.1076  0.0191 -0.3352
 7921DDP     C147521  26.919   5.294  18.957  0.1942  0.1293  0.1514
 7921DDP     P147522  26.973   5.012  18.595 -0.0663  0.0851 -0.0105
 7921DDP     P247523  26.690   5.091  19.239  0.1224  0.1746  0.0153
 7921DDP     C247524  26.619   4.718  19.353 -0.1550 -0.0091  0.1395
 7921DDP     C347525  26.718   4.851  18.245  0.0250 -0.2362 -0.0069
 7921DDP     C447526  27.078   5.655  19.019  0.2501 -0.0752 -0.1946
 7922DDP     C147527  14.270   2.698  30.291 -0.0895  0.1068  0.1531
 7922DDP     P147528  14.495   2.707  29.941  0.0981 -0.2212  0.0000
 7922DDP     P247529  14.399   2.563   0.371  0.0367 -0.2124 -0.1835
 7922DDP     C247530  14.602   2.531   0.853  0.0350 -0.2588  0.2511
 7922DDP     C347531  14.688   2.427  29.494  0.0390 -0.0259  0.3132
 7922DDP     C447532  13.844   2.685   0.170 -0.2155  0.0684 -0.1149
 7923DDP     C147533  14.370  26.124   3.217  0.1972 -0.1116 -0.0159
 7923DDP     P147534  14.729  25.979   3.226 -0.2775  0.0753 -0.1154
 7923DDP     P247535  14.227  26.490   2.957  0.2159 -0.0843  0.0839
 7923DDP     C247536  13.909  26.728   2.726  0.0225 -0.1351 -0.0508
 7923DDP     C347537  15.035  25.539   3.248 -0.0929 -0.3243 -0.0326
 7923DDP     C447538  13.884  25.833   3.230 -0.0694  0.2465  0.1364
 7924DDP     C147539  19.694  15.086  27.347  0.2528  0.3039  0.0725
 7924DDP     P147540  19.552  14.679  27.274  0.0325 -0.1570  0.3048
 7924DDP     P247541  19.789  15.097  27.767 -0.0860 -0.0235 -0.1062
 7924DDP     C247542  19.913  15.455  28.029  0.2445  0.0281  0.0430
 7924DDP     C347543  19.599  14.189  27.306  0.2189  0.0311 -0.0607
 7924DDP     C447544  19.891  15.205  27.007 -0.0498  0.0576  0.0591
 7925DDP     C147545  27.156  27.540  27.672  0.1999 -0.0861 -0.1105
 7925DDP     P147546  26.947  27.466  27.266  0.1658 -0.0567  0.0564
 7925DDP     P247547  27.372  27.147  27.863 -0.1194  0.1413 -0.1566
 7925DDP     C247548  27.778  27.094  27.998  0.2745  0.1414 -0.0354
 7925DDP     C347549  26.564  27.311  27.011  0.0272 -0.2547  0.0884
 7925DDP     C447550  27.094  28.033  27.868  0.0043 -0.0288 -0.1442
 7926DDP     C147551   4.393  21.842  27.973  0.2953 -0.0804 -0.0029
 7926DDP     P147552   4.251  22.259  27.918  0.0699  0.1074  0.1579
 7926DDP     P247553   3.957  21.608  27.804 -0.1804  0.0189  0.1880
 7926DDP     C247554   3.896  21.459  27.375 -0.0034  0.1608  0.0587
 7926DDP     C347555   3.954  22.608  27.807  0.1284  0.3058  0.0961
 7926DDP     C447556   4.717  21.566  27.815  0.0501 -0.2392 -0.0453
 7927DDP     C147557   7.738  24.493   6.808 -0.2308  0.1023 -0.0970
 7927DDP     P147558   7.577  24.077   6.855  0.3325  0.1719 -0.0366
 7927DDP     P247559   7.616  24.894   6.923  0.0785 -0.0120  0.0846
 7927DDP     C247560   7.317  25.283   6.811 -0.0444  0.6331 -0.2692
 7927DDP     C347561   7.308  23.732   6.677  0.1980  0.2507 -0.1605
 7927DDP     C447562   8.123  24.377   6.817 -0.0822 -0.0556  0.0287
 7928DDP     C147563  25.080   9.174   4.695  0.2645 -0.1025 -0.0756
 7928DDP     P147564  24.964   8.687   4.526 -0.1414  0.0513 -0.3654
 7928DDP     P247565  25.442   9.381   4.795  0.0706 -0.1208 -0.2495
 7928DDP     C247566  25.501   9.604   5.119  0.0989 -0.0808  0.2040
 7928DDP     C347567  24.734   8.420   4.310 -0.0524 -0.0969 -0.1564
 7928DDP     C447568  24.745   9.229   4.941  0.1568  0.1708  0.1030
 7929DDP     C147569  28.745  16.938  28.784 -0.1577  0.0956 -0.3467
 7929DDP     P147570  28.935  16.802  28.428  0.2697  0.2744 -0.1324
 7929DDP     P247571  28.922  17.355  28.847  0.2094 -0.0034  0.0391
 7929DDP     C247572  28.858  17.682  29.196  0.2639  0.3480 -0.3688
 7929DDP     C347573  28.953  16.818  28.059  0.0230  0.3343 -0.1518
 7929DDP     C447574  28.509  16.747  29.147 -0.0080  0.3362  0.1515
 7930DDP     C147575   4.569  20.763  19.129 -0.0830  0.0868 -0.2254
 7930DDP     P147576   4.618  21.105  19.127 -0.0146  0.1536  0.0448
 7930DDP     P247577   4.886  20.672  19.459 -0.1057 -0.1374  0.0124
 7930DDP     C247578   4.901  20.644  19.891  0.2346  0.0331 -0.5340
 7930DDP     C347579   4.672  21.608  19.161  0.1332  0.4708  0.1726
 7930DDP     C447580   4.303  20.422  18.815  0.0222  0.3668  0.0343
 7931DDP     C147581  10.398   3.750  27.593 -0.3792  0.2903 -0.1370
 7931DDP     P147582  10.417   3.673  28.074  0.1260  0.3350  0.2398
 7931DDP     P247583  10.874   3.674  27.636  0.1444  0.1025 -0.0698
 7931DDP     C247584  11.161   3.627  27.992 -0.2094 -0.2111 -0.0701
 7931DDP     C347585  10.462   3.272  28.226  0.2801 -0.0546  0.1688
 7931DDP     C447586  10.062   3.956  27.385  0.0829  0.2719 -0.0035
 7932DDP     C147587  23.889  22.811  29.974  0.0146  0.2511 -0.0083
 7932DDP     P147588  23.969  22.902   0.153 -0.0718  0.2191  0.2075
 7932DDP     P247589  23.617  22.333  29.751  0.0839 -0.1035 -0.3591
 7932DDP     C247590  23.180  22.144  29.760 -0.1257 -0.0173  0.1025
 7932DDP     C347591  24.010  22.648   0.506 -0.0426 -0.0431 -0.0662
 7932DDP     C447592  23.910  23.233  29.845  0.1493  0.3972  0.1707
 7933DDP     C147593  15.301  22.419  28.517  0.2006  0.4349  0.1910
 7933DDP     P147594  15.633  22.584  28.370  0.2407 -0.1171  0.0295
 7933DDP     P247595  15.290  22.009  28.771  0.0672 -0.0909  0.0241
 7933DDP     C247596  15.106  21.627  28.900  0.0874 -0.1210  0.0158
 7933DDP     C347597  15.682  22.983  28.068  0.0257 -0.3057 -0.0661
 7933DDP     C447598  14.919  22.631  28.310 -0.0691 -0.3298 -0.1806
 7934DDP     C147599  22.917  27.963   5.308 -0.1827  0.1069 -0.0789
 7934DDP     P147600  22.856  28.400   5.262 -0.1820  0.0220 -0.0069
 7934DDP     P247601  23.122  27.705   4.964 -0.0080  0.2493  0.2330
 7934DDP     C247602  23.264  27.776   4.573 -0.1682  0.0742  0.3280
 7934DDP     C347603  22.787  28.746   5.611  0.4491 -0.1588 -0.0469
 7934DDP     C447604  23.048  27.744   5.737  0.1431 -0.2330  0.0167
 7935DDP     C147605  21.217  21.345  18.745 -0.0263 -0.1071 -0.0266
 7935DDP     P147606  20.938  21.270  18.211 -0.3943 -0.0077 -0.1552
 7935DDP     P247607  20.891  21.202  19.085 -0.3481 -0.1804  0.4124
 7935DDP     C247608  20.869  21.550  19.362  0.1526  0.0022  0.2532
 7935DDP     C347609  20.783  21.415  17.883 -0.2206 -0.2955 -0.0031
 7935DDP     C447610  21.646  21.302  18.759  0.1839  0.2767 -0.0468
 7936DDP     C147611   2.291   7.792   1.692 -0.1187 -0.0448  0.2277
 7936DDP     P147612   2.380   7.360   1.636 -0.0525  0.0197  0.1742
 7936DDP     P247613   2.429   8.252   1.737  0.0583 -0.2202 -0.2053
 7936DDP     C247614   2.283   8.540   2.011  0.1363 -0.1601 -0.1679
 7936DDP     C347615   2.123   6.957   1.677 -0.1176  0.0439  0.0809
 7936DDP     C447616   2.090   7.583   1.968  0.2014  0.0415  0.0847
 7937DDP     C147617  24.878   9.493  13.661  0.3698  0.2638 -0.0210
 7937DDP     P147618  24.760   9.213  13.296 -0.1418  0.0020  0.0502
 7937DDP     P247619  25.151   9.585  13.484  0.1590  0.2845  0.2526
 7937DDP     C247620  25.283   9.655  13.060  0.0021  0.0234 -0.1115
 7937DDP     C347621  24.900   9.099  12.938 -0.1355  0.0500 -0.1781
 7937DDP     C447622  24.827   9.271  14.093  0.2902  0.0072 -0.0173
 7938DDP     C147623  10.866  30.201  13.916  0.0508  0.5164  0.1105
 7938DDP     P147624  10.598  30.011  13.630  0.1327  0.0267  0.1508
 7938DDP     P247625  11.328   0.044  13.935  0.3679 -0.4011 -0.1621
 7938DDP     C247626  11.694  30.272  13.745  0.1939  0.0343 -0.0062
 7938DDP     C347627  10.116  29.935  13.567 -0.1057 -0.2341  0.0933
 7938DDP     C447628  10.697  30.231  14.389  0.0252  0.1178 -0.2675
 7939DDP     C147629  23.450   7.436  27.406  0.5740  0.0869  0.0598
 7939DDP     P147630  23.372   7.094  27.798  0.2695  0.1322 -0.3401
 7939DDP     P247631  23.297   7.302  26.939 -0.0937 -0.2076 -0.1725
 7939DDP     C247632  23.059   7.164  26.574  0.0319 -0.2073 -0.1001
 7939DDP     C347633  23.160   6.931  28.279  0.3035  0.0084 -0.1170
 7939DDP     C447634  23.592   7.841  27.720  0.0691  0.1087  0.0804
 7940DDP     C147635  10.511  12.504   6.380  0.2918  0.0793 -0.5466
 7940DDP     P147636  10.529  12.994   6.262  0.1236  0.0873 -0.1172
 7940DDP     P247637  10.832  12.145   6.396  0.1107  0.0454 -0.0119
 7940DDP     C247638  10.771  11.617   6.497  0.2239 -0.1482  0.0275
 7940DDP     C347639  10.430  13.361   6.495 -0.0210  0.2025  0.2806
 7940DDP     C447640  10.073  12.414   6.421 -0.0985  0.0020 -0.4654
 7941DDP     C147641   1.488   5.199  18.054  0.0056 -0.1212  0.1288
 7941DDP     P147642   1.066   5.171  18.032 -0.1710 -0.1219 -0.0336
 7941DDP     P247643   1.559   4.778  18.231 -0.3077 -0.0433 -0.0281
 7941DDP     C247644   1.444   4.320  18.086  0.0222  0.0563  0.2038
 7941DDP     C347645   0.634   5.121  18.001 -0.1296 -0.1536 -0.0192
 7941DDP     C447646   1.776   5.519  18.028 -0.1061 -0.2208  0.2405
 7942DDP     C147647  12.435  16.583  22.090  0.0022 -0.3535 -0.1696
 7942DDP     P147648  12.343  16.236  22.374 -0.1695  0.0173 -0.2404
 7942DDP     P247649  12.709  16.952  22.368  0.0593  0.3659  0.2263
 7942DDP     C247650  12.916  17.391  22.258  0.0921  0.0460 -0.2557
 7942DDP     C347651  12.042  16.140  22.569 -0.0902 -0.1133  0.0592
 7942DDP     C447652  12.313  16.754  21.684 -0.2339  0.1151 -0.1975
 7943DDP     C147653  20.750   9.632  15.650 -0.2369  0.1470 -0.0282
 7943DDP     P147654  20.986   9.969  15.886  0.4019 -0.0300  0.0609
 7943DDP     P247655  21.014   9.312  15.429 -0.1890 -0.2437 -0.2086
 7943DDP     C247656  21.208   8.876  15.360  0.0437  0.2518 -0.0176
 7943DDP     C347657  21.254  10.251  15.756  0.2417  0.2753 -0.3395
 7943DDP     C447658  20.364   9.682  15.525  0.1388 -0.0950 -0.2111
 7944DDP     C147659   7.244   8.673  10.353 -0.2786  0.0926  0.1319
 7944DDP     P147660   7.464   8.619   9.924  0.0107  0.0986  0.1481
 7944DDP     P247661   7.201   8.216  10.177  0.3785  0.2419 -0.0810
 7944DDP     C247662   7.054   7.711  10.095 -0.0279 -0.1342  0.2714
 7944DDP     C347663   7.383   8.516   9.537  0.2163  0.1254  0.2483
 7944DDP     C447664   7.047   8.768  10.746 -0.2322 -0.2461  0.0168
 7945DDP     C147665  10.571  28.350  20.611  0.0965  0.2708 -0.1452
 7945DDP     P147666  10.367  27.854  20.721 -0.0258 -0.2384  0.1693
 7945DDP     P247667  10.516  28.679  20.909 -0.1605  0.1881  0.1004
 7945DDP     C247668  10.328  28.572  21.387  0.1830  0.1649 -0.0547
 7945DDP     C347669  10.006  27.835  20.972  0.1975 -0.4372 -0.1825
 7945DDP     C447670  10.911  28.371  20.330 -0.0264  0.2606  0.2981
 7946DDP     C147671   3.504  12.689  26.667 -0.1292  0.0079  0.0469
 7946DDP     P147672   3.412  13.036  26.434 -0.1388  0.4570 -0.2656
 7946DDP     P247673   3.920  12.578  26.686 -0.1457 -0.0677 -0.2355
 7946DDP     C247674   4.217  12.607  27.031  0.0752 -0.1048  0.3341
 7946DDP     C347675   3.299  13.357  26.449 -0.4999  0.2498 -0.1971
 7946DDP     C447676   3.080  12.615  26.915  0.0412  0.2140  0.1348
 7947DDP     C147677  17.047   9.215   1.442 -0.0700  0.2928  0.1277
 7947DDP     P147678  17.071   9.222   1.077  0.1353  0.1777 -0.0621
 7947DDP     P247679  16.918   8.914   1.739  0.4024 -0.1393 -0.0872
 7947DDP     C247680  16.649   9.029   2.063  0.0568 -0.3764 -0.4796
 7947DDP     C347681  17.333   9.333   0.724  0.0198  0.0723 -0.0450
 7947DDP     C447682  17.312   9.566   1.586 -0.1091  0.0157 -0.2062
 7948DDP     C147683  14.930  16.590   7.670 -0.0454 -0.0308  0.0114
 7948DDP     P147684  14.642  16.957   7.682 -0.1185  0.2053  0.2533
 7948DDP     P247685  14.895  16.130   7.559  0.0241 -0.2170 -0.0815
 7948DDP     C247686  15.153  15.665   7.579  0.2951  0.1408  0.1727
 7948DDP     C347687  14.369  17.250   7.876  0.1496 -0.0631  0.2942
 7948DDP     C447688  15.387  16.806   7.898 -0.2599 -0.0892 -0.1651
 7949DDP     C147689  13.146   5.441  20.072  0.0735 -0.2959  0.2141
 7949DDP     P147690  13.031   5.589  19.748 -0.0604 -0.0624 -0.0200
 7949DDP     P247691  13.213   5.571  20.525 -0.0335 -0.0204  0.0516
 7949DDP     C247692  13.027   5.647  20.988  0.0263  0.1817  0.1425
 7949DDP     C347693  13.243   5.599  19.320 -0.4867 -0.3201  0.2287
 7949DDP     C447694  13.157   4.961  20.046 -0.0298  0.0899  0.0998
 7950DDP     C147695  30.213   6.181  22.137 -0.1463 -0.0609  0.1614
 7950DDP     P147696  30.104   6.371  22.489  0.1054 -0.0244  0.1614
 7950DDP     P247697   0.253   5.873  21.993  0.0547  0.0063  0.1119
 7950DDP     C247698   0.355   5.479  21.908  0.0006  0.0707  0.1675
 7950DDP     C347699  30.265   6.691  22.852  0.0839 -0.0437  0.0583
 7950DDP     C447700  29.880   6.243  21.885 -0.0082  0.0453  0.1337
 7951DDP     C147701   4.425   8.229  16.822  0.1566  0.0835  0.0868
 7951DDP     P147702   4.239   8.050  17.086  0.2040  0.2343  0.0414
 7951DDP     P247703   4.573   7.960  16.549 -0.1525 -0.0488 -0.0375
 7951DDP     C247704   4.852   7.868  16.232 -0.0496  0.2333 -0.0276
 7951DDP     C347705   4.481   7.843  17.443 -0.3807  0.1750  0.1267
 7951DDP     C447706   4.552   8.649  16.870  0.1619  0.2973 -0.1349
 7952DDP     C147707  21.012  16.216   1.798 -0.0790 -0.2036  0.1632
 7952DDP     P147708  21.325  16.244   1.494  0.4287 -0.0446 -0.1724
 7952DDP     P247709  20.594  16.211   1.726  0.2430 -0.1410 -0.2287
 7952DDP     C247710  20.266  16.073   2.064 -0.0168  0.0544  0.1143
 7952DDP     C347711  21.496  16.039   1.204  0.1241 -0.0665 -0.3230
 7952DDP     C447712  21.188  16.162   2.168 -0.2999 -0.0954  0.4212
 7953DDP     C147713   4.330  16.480  25.684 -0.2087 -0.0618  0.0011
 7953DDP     P147714   4.309  16.907  25.440  0.2406  0.1970  0.0169
 7953DDP     P247715   4.711  16.261  25.581  0.0156 -0.0109  0.2021
 7953DDP     C247716   4.839  15.875  25.517 -0.0236 -0.4078 -0.2759
 7953DDP     C347717   4.581  17.222  25.558  0.1682 -0.3151 -0.1312
 7953DDP     C447718   4.089  16.590  26.084 -0.2084  0.0343 -0.0908
 7954DDP     C147719   7.655  15.169   8.487 -0.0050 -0.2000  0.0744
 7954DDP     P147720   7.912  15.546   8.199 -0.1529  0.2662 -0.0465
 7954DDP     P247721   7.878  14.750   8.578  0.1166 -0.1138 -0.0634
 7954DDP     C247722   8.151  14.723   8.818 -0.0464 -0.1188 -0.0092
 7954DDP     C347723   7.965  16.020   8.273 -0.0704  0.0940  0.0388
 7954DDP     C447724   7.329  15.191   8.745  0.0032 -0.1759 -0.1877
 7955DDP     C147725   5.234  14.920  25.104 -0.0423 -0.1554  0.3491
 7955DDP     P147726   4.812  14.560  24.886 -0.0311  0.0712 -0.0669
 7955DDP     P247727   5.151  15.343  25.205  0.4011  0.1125 -0.2586
 7955DDP     C247728   4.783  15.543  25.099 -0.2623 -0.0539 -0.0561
 7955DDP     C347729   4.541  14.277  24.625  0.0475  0.0952 -0.1781
 7955DDP     C447730   5.649  14.748  25.168  0.1997 -0.1175 -0.2097
 7956DDP     C147731   2.904  28.347  18.936  0.0500  0.0131 -0.0183
 7956DDP     P147732   2.648  27.910  18.786 -0.1231 -0.1101 -0.0545
 7956DDP     P247733   2.775  28.432  19.392 -0.0204  0.3120  0.0139
 7956DDP     C247734   2.974  28.388  19.798 -0.0904  0.0806 -0.3109
 7956DDP     C347735   2.507  27.651  18.469  0.0515 -0.0107 -0.5467
 7956DDP     C447736   3.241  28.366  18.747  0.0802 -0.2081 -0.1965
 7957DDP     C147737   6.992   0.423   3.843  0.0676 -0.2402  0.0877
 7957DDP     P147738   6.850  30.295   3.857  0.0290  0.2699 -0.0712
 7957DDP     P247739   7.311   0.582   3.922 -0.0718 -0.2419  0.0544
 7957DDP     C247740   7.794   0.710   3.948  0.2739  0.3554  0.1877
 7957DDP     C347741   6.717  29.855   3.634  0.3401 -0.0226 -0.1034
 7957DDP     C447742   6.691   0.656   3.691  0.1345 -0.2099 -0.1686
 7958DDP     C147743  24.712  20.697  27.431 -0.1367  0.2087  0.0418
 7958DDP     P147744  25.142  20.640  27.391 -0.0028  0.0415 -0.0714
 7958DDP     P247745  24.418  20.468  27.350 -0.3623  0.2127 -0.2126
 7958DDP     C247746  24.112  20.142  27.304 -0.1391  0.0449 -0.3150
 7958DDP     C347747  25.535  20.519  27.683  0.0691 -0.0321  0.2892
 7958DDP     C447748  24.516  21.074  27.443  0.0556  0.1368  0.1952
 7959DDP     C147749  19.626  19.921  16.763  0.1143 -0.1482  0.1567
 7959DDP     P147750  19.412  19.584  16.728 -0.1172 -0.2282 -0.0883
 7959DDP     P247751  20.124  19.813  16.674  0.0217 -0.1747  0.0376
 7959DDP     C247752  20.232  19.466  16.836 -0.1816 -0.0274 -0.3458
 7959DDP     C347753  19.093  19.271  16.671 -0.3416  0.1115  0.0387
 7959DDP     C447754  19.510  20.329  16.830 -0.0098  0.1847 -0.0694
 7960DDP     C147755  17.108  10.611  15.466 -0.2038  0.2567  0.0946
 7960DDP     P147756  17.069  10.271  15.092  0.0834  0.1343  0.0620
 7960DDP     P247757  16.914  10.582  15.929 -0.2299 -0.1527  0.0146
 7960DDP     C247758  16.704  10.397  16.252 -0.0439 -0.2270 -0.2194
 7960DDP     C347759  16.957  10.011  14.693 -0.3314 -0.1863 -0.1076
 7960DDP     C447760  17.401  10.877  15.526 -0.3997 -0.1861 -0.0444
 7961DDP     C147761  12.538  23.507   9.102 -0.0646  0.2176 -0.0997
 7961DDP     P147762  12.582  23.302   8.749 -0.0048  0.3756  0.0112
 7961DDP     P247763  12.915  23.695   9.287 -0.0347 -0.0622  0.1034
 7961DDP     C247764  13.056  23.677   9.744  0.1029 -0.3652  0.0305
 7961DDP     C347765  12.784  23.072   8.467  0.0013  0.0773 -0.0188
 7961DDP     C447766  12.161  23.509   9.427 -0.2683 -0.0201 -0.0088
 7962DDP     C147767   8.237   7.325  12.809  0.2415 -0.2288 -0.3214
 7962DDP     P147768   8.229   7.563  13.107 -0.1661  0.2702  0.2308
 7962DDP     P247769   8.577   7.194  12.732  0.0879 -0.1525 -0.3972
 7962DDP     C247770   8.732   6.882  12.923  0.1601  0.0499 -0.3454
 7962DDP     C347771   8.318   7.478  13.592 -0.1903  0.0489 -0.2287
 7962DDP     C447772   7.844   7.236  12.512  0.1621 -0.0769 -0.2597
 7963DDP     C147773  15.506  25.930   6.948 -0.1856 -0.0725  0.3000
 7963DDP     P147774  15.756  26.185   6.592  0.0758 -0.1925 -0.3234
 7963DDP     P247775  15.696  25.939   7.311  0.0531 -0.1528  0.2615
 7963DDP     C247776  15.775  26.033   7.759  0.1364  0.1831  0.3347
 7963DDP     C347777  15.740  26.339   6.185 -0.1879  0.1906  0.0344
 7963DDP     C447778  15.170  25.710   6.929  0.0897 -0.0168 -0.2321
 7964DDP     C147779   9.979  14.527   2.396 -0.0540 -0.3325 -0.0009
 7964DDP     P147780   9.931  14.180   2.570 -0.1733  0.0997  0.1706
 7964DDP     P247781   9.734  14.839   2.414  0.4431 -0.1094 -0.0157
 7964DDP     C247782   9.501  15.207   2.651  0.0403 -0.1643  0.2381
 7964DDP     C347783   9.968  13.783   2.554 -0.1492  0.1739  0.0393
 7964DDP     C447784  10.471  14.633   2.292  0.1968 -0.1158  0.0423
 7965DDP     C147785  19.158   8.231  22.994 -0.2492 -0.0749  0.0184
 7965DDP     P147786  19.008   7.852  22.750 -0.1474 -0.1442 -0.2047
 7965DDP     P247787  19.547   8.369  22.862 -0.3109  0.2397  0.0720
 7965DDP     C247788  19.976   8.194  22.576 -0.2344  0.0958 -0.2108
 7965DDP     C347789  19.192   7.462  22.505  0.0954  0.1155 -0.1431
 7965DDP     C447790  18.827   8.305  23.228 -0.1014  0.0890  0.1875
 7966DDP     C147791   9.908   9.272   1.195 -0.2477 -0.0322  0.0968
 7966DDP     P147792  10.147   8.956   1.388 -0.0587  0.0245 -0.1932
 7966DDP     P247793   9.492   9.327   1.173 -0.0781  0.2538  0.0204
 7966DDP     C247794   9.090   9.175   1.186  0.0346  0.1654 -0.0011
 7966DDP     C347795  10.633   8.798   1.504  0.0397  0.1312  0.0246
 7966DDP     C447796  10.221   9.368   0.841 -0.1748 -0.0626 -0.4005
 7967DDP     C147797  27.331  18.183   4.627 -0.0022 -0.0313 -0.0448
 7967DDP     P147798  27.358  17.749   4.590 -0.0194 -0.3785 -0.1330
 7967DDP     P247799  27.574  18.343   4.909 -0.1845 -0.1406  0.2528
 7967DDP     C247800  27.941  18.313   5.174 -0.1838  0.0341 -0.1746
 7967DDP     C347801  27.397  17.293   4.547 -0.2664 -0.0909 -0.1340
 7967DDP     C447802  27.100  18.351   4.317 -0.0478  0.0553 -0.1516
 7968DDP     C147803  28.843  25.922   6.887 -0.0097 -0.1849  0.2587
 7968DDP     P147804  29.138  25.596   6.994  0.0397 -0.0164  0.0030
 7968DDP     P247805  28.548  25.901   7.132 -0.2860  0.3335 -0.2626
 7968DDP     C247806  28.135  26.056   7.044  0.0162 -0.0247 -0.0365
 7968DDP     C347807  29.021  25.306   7.216 -0.1359 -0.0004  0.0784
 7968DDP     C447808  29.023  26.254   6.628  0.0935 -0.2513 -0.3965
 7969DDP     C147809  10.651   0.800  29.774  0.1301  0.0944  0.2118
 7969DDP     P147810  10.699   1.075  29.402 -0.3848  0.2163 -0.1014
 7969DDP     P247811  10.903   0.494  29.947  0.0430 -0.0927  0.2035
 7969DDP     C247812  11.350   0.474  29.947  0.0705  0.2072 -0.0021
 7969DDP     C347813  11.109   0.993  29.170 -0.0338  0.0244 -0.0056
 7969DDP     C447814  10.317   0.782  29.992  0.3466 -0.0327 -0.0965
 7970DDP     C147815  22.781   3.486  17.463 -0.1306 -0.2143 -0.0439
 7970DDP     P147816  22.777   3.785  17.628 -0.1033 -0.3049 -0.2649
 7970DDP     P247817  22.946   3.544  17.133  0.1957 -0.0126 -0.0992
 7970DDP     C247818  22.920   3.460  16.748 -0.0194  0.0378 -0.0154
 7970DDP     C347819  23.063   4.031  17.875 -0.1634  0.0922  0.1202
 7970DDP     C447820  22.606   3.078  17.621  0.1618  0.0699  0.1876
 7971DDP     C147821  26.272  16.613  21.615  0.0222 -0.0889 -0.0090
 7971DDP     P147822  25.927  17.022  21.848 -0.0580  0.2284 -0.2295
 7971DDP     P247823  26.155  16.429  21.248 -0.1352  0.0125  0.0084
 7971DDP     C247824  25.896  16.068  20.939 -0.0843 -0.1634 -0.0000
 7971DDP     C347825  26.117  17.335  22.171  0.2332  0.1194 -0.0251
 7971DDP     C447826  26.706  16.599  21.688 -0.2011 -0.0214 -0.0549
 7972DDP     C147827  18.003  14.205  26.881  0.0358 -0.3205  0.0113
 7972DDP     P147828  18.368  14.574  26.878 -0.1499  0.0296  0.2022
 7972DDP     P247829  18.067  13.872  26.526 -0.0430  0.1386  0.1676
 7972DDP     C247830  18.345  13.523  26.378  0.1370 -0.1114  0.1016
 7972DDP     C347831  18.691  14.568  26.902  0.1848  0.2040 -0.3483
 7972DDP     C447832  17.731  14.224  27.181  0.0310 -0.2050  0.1285
 7973DDP     C147833  24.050  22.963  24.999 -0.0828 -0.4536  0.1464
 7973DDP     P147834  24.379  22.783  25.394 -0.0405 -0.3981 -0.1706
 7973DDP     P247835  23.974  23.462  24.929 -0.0846  0.3462  0.0439
 7973DDP     C247836  23.771  23.849  24.864  0.0926 -0.0657 -0.4021
 7973DDP     C347837  24.660  23.031  25.628 -0.0032  0.2310  0.0021
 7973DDP     C447838  23.956  22.598  24.743 -0.3846  0.0728 -0.2319
 7974DDP     C147839   7.815  17.287   2.433  0.3528  0.1341  0.0902
 7974DDP     P147840   7.622  17.510   2.163 -0.2866  0.0475  0.0731
 7974DDP     P247841   8.210  17.207   2.515  0.1735  0.0024 -0.3112
 7974DDP     C247842   8.703  17.268   2.579  0.2925 -0.2186 -0.4165
 7974DDP     C347843   7.637  17.808   1.818 -0.0465  0.2067  0.1219
 7974DDP     C447844   7.680  16.873   2.433  0.1707 -0.0093 -0.1188
 7975DDP     C147845  18.707  22.644  22.353  0.1655  0.2195  0.0233
 7975DDP     P147846  18.648  22.590  22.782 -0.0142  0.2713  0.2688
 7975DDP     P247847  19.105  22.661  22.207 -0.0667 -0.1916  0.0493
 7975DDP     C247848  19.585  22.693  22.155 -0.0937 -0.2207  0.0715
 7975DDP     C347849  18.333  22.579  23.081 -0.5892 -0.3447  0.0015
 7975DDP     C447850  18.386  22.664  22.036  0.0090  0.3271 -0.0968
 7976DDP     C147851  16.536   6.827  12.172  0.1573 -0.0299 -0.1672
 7976DDP     P147852  16.254   7.221  12.268 -0.1358 -0.3006  0.0457
 7976DDP     P247853  16.543   6.556  12.451  0.2039  0.2706 -0.2081
 7976DDP     C247854  16.911   6.387  12.336 -0.2056 -0.0362  0.5105
 7976DDP     C347855  15.907   7.346  12.472  0.2156 -0.0037  0.3969
 7976DDP     C447856  16.867   6.839  11.842  0.2917  0.0452 -0.1041
 7977DDP     C147857  14.586   2.811  22.952  0.3679  0.1951  0.3674
 7977DDP     P147858  14.334   2.499  23.083 -0.1258  0.1635  0.2214
 7977DDP     P247859  14.516   3.189  22.697  0.1336 -0.3336 -0.0819
 7977DDP     C247860  14.391   3.539  22.350  0.0545  0.1361  0.2193
 7977DDP     C347861  13.997   2.198  22.882  0.1271 -0.0977  0.0855
 7977DDP     C447862  14.904   2.836  23.133  0.3229 -0.1724 -0.5397
 7978DDP     C147863  18.263   9.758   4.643 -0.0943 -0.0848 -0.0107
 7978DDP     P147864  18.530   9.486   4.412 -0.1172  0.1665 -0.0949
 7978DDP     P247865  18.308   9.813   5.118 -0.0981 -0.3084  0.0185
 7978DDP     C247866  18.384   9.956   5.553 -0.0811 -0.2346 -0.0933
 7978DDP     C347867  18.752   9.135   4.496 -0.0706 -0.0237  0.3834
 7978DDP     C447868  17.952  10.113   4.398  0.0318  0.0255 -0.1864
 7979DDP     C147869  13.989  30.210  17.219  0.0358 -0.0891  0.2274
 7979DDP     P147870  14.067  30.013  17.582  0.0804 -0.1782  0.2034
 7979DDP     P247871  13.541  -0.002  17.183 -0.0367 -0.1973  0.0349
 7979DDP     C247872  13.309   0.402  17.166  0.2230  0.0300  0.2750
 7979DDP     C347873  14.056  30.043  17.985  0.1387  0.3180  0.2288
 7979DDP     C447874  14.222   0.192  16.951 -0.1562  0.2509 -0.1922
 7980DDP     C147875   7.469   8.936   3.843  0.0388  0.2618 -0.1603
 7980DDP     P147876   7.910   9.133   3.813  0.0630  0.1505  0.0875
 7980DDP     P247877   6.993   9.116   4.014  0.0996  0.1064  0.0020
 7980DDP     C247878   6.527   8.987   4.001  0.0708 -0.0805 -0.2603
 7980DDP     C347879   8.166   9.333   4.109 -0.3353  0.0253 -0.2174
 7980DDP     C447880   7.431   8.616   3.552  0.1666  0.4290  0.0808
 7981DDP     C147881   0.324  16.128   7.486  0.0032 -0.1140  0.0069
 7981DDP     P147882  -0.030  16.419   7.460 -0.3525  0.2348  0.2524
 7981DDP     P247883   0.721  16.215   7.684 -0.2001  0.1749 -0.4708
 7981DDP     C247884   1.050  16.341   7.889 -0.1146 -0.1459 -0.0382
 7981DDP     C347885  30.149  16.358   7.070  0.1439  0.1610 -0.1418
 7981DDP     C447886   0.353  15.659   7.590  0.1931 -0.0204 -0.0726
 7982DDP     C147887  12.688  28.215  23.604  0.1921  0.3150 -0.0544
 7982DDP     P147888  12.584  28.385  23.110 -0.3079 -0.2765 -0.1831
 7982DDP     P247889  12.432  28.463  23.878 -0.2194 -0.0485  0.1515
 7982DDP     C247890  12.254  28.925  23.779 -0.2693 -0.4244 -0.2677
 7982DDP     C347891  12.337  28.594  22.720 -0.0038 -0.0379 -0.0229
 7982DDP     C447892  12.930  27.871  23.748 -0.0476  0.1405  0.1890
 7983DDP     C147893  15.225  21.672   1.362  0.1375  0.0688 -0.0983
 7983DDP     P147894  15.620  21.330   1.182  0.2399 -0.0987  0.0607
 7983DDP     P247895  15.194  22.154   1.222  0.0357 -0.3091 -0.0729
 7983DDP     C247896  15.081  22.534   0.996 -0.3785 -0.1344 -0.2519
 7983DDP     C347897  15.915  20.999   1.125 -0.0934  0.0777 -0.3760
 7983DDP     C447898  15.017  21.553   1.757  0.2291 -0.2959  0.1472
 7984DDP     C147899  15.658   3.225   7.308  0.1047  0.2195 -0.0002
 7984DDP     P147900  15.386   3.040   7.472 -0.1435  0.0204 -0.1525
 7984DDP     P247901  15.845   3.585   7.447 -0.0348 -0.0776  0.0499
 7984DDP     C247902  15.956   3.928   7.818  0.2743  0.0377  0.2091
 7984DDP     C347903  15.192   2.639   7.454  0.3634 -0.0872 -0.0118
 7984DDP     C447904  15.812   3.078   6.952 -0.3018  0.1343  0.1414
 7985DDP     C147905  25.534   6.170  21.994  0.1908 -0.0005  0.0175
 7985DDP     P147906  25.334   5.771  21.759 -0.0587  0.0427  0.0693
 7985DDP     P247907  25.798   6.527  21.883 -0.3841  0.1897  0.0667
 7985DDP     C247908  25.898   6.961  21.718  0.1330 -0.0412 -0.1184
 7985DDP     C347909  25.360   5.341  21.842 -0.1991 -0.1303  0.1716
 7985DDP     C447910  25.842   6.090  22.280 -0.0082  0.0002  0.1557
 7986DDP     C147911   0.822   6.116  25.584  0.0659  0.1897 -0.0528
 7986DDP     P147912   0.736   6.265  26.036  0.0614 -0.4034  0.0392
 7986DDP     P247913   1.019   6.330  25.271  0.0455  0.0141 -0.1812
 7986DDP     C247914   1.371   6.242  25.007 -0.1305 -0.1106 -0.0818
 7986DDP     C347915   0.872   6.591  26.350  0.0992  0.0381  0.2742
 7986DDP     C447916   0.813   5.566  25.576  0.0541 -0.0656 -0.0697
 7987DDP     C147917   0.137  10.756  23.681  0.1143 -0.2138  0.2845
 7987DDP     P147918   0.467  10.914  23.685 -0.0778  0.1139 -0.1544
 7987DDP     P247919  30.097  11.046  23.469  0.0364 -0.1258 -0.0286
 7987DDP     C247920  29.919  11.327  23.683 -0.0344 -0.1597  0.2275
 7987DDP     C347921   0.787  11.047  23.890  0.1232  0.2088 -0.0992
 7987DDP     C447922  30.244  10.438  23.736  0.0047  0.2058  0.3021
 7988DDP     C147923  14.629  18.096   4.423 -0.2908 -0.0697 -0.0453
 7988DDP     P147924  15.004  17.856   4.675  0.0594 -0.0507  0.0771
 7988DDP     P247925  14.724  18.033   4.014 -0.2135 -0.2349  0.1115
 7988DDP     C247926  15.083  18.330   3.832 -0.0499  0.0359  0.1724
 7988DDP     C347927  14.889  17.639   5.038 -0.1818  0.1370  0.0431
 7988DDP     C447928  14.406  18.473   4.603  0.0219  0.1800 -0.0972
 7989DDP     C147929  15.868   3.618  26.795 -0.0560  0.1151 -0.2101
 7989DDP     P147930  16.034   4.022  26.738  0.0065 -0.1559 -0.0780
 7989DDP     P247931  15.944   3.301  27.194  0.1098  0.0562  0.1215
 7989DDP     C247932  15.931   2.899  27.400 -0.0490 -0.2270  0.2286
 7989DDP     C347933  16.354   4.274  26.888 -0.0137 -0.2467  0.0141
 7989DDP     C447934  15.495   3.465  26.520 -0.2346 -0.1341 -0.2025
 7990DDP     C147935   5.755   8.667   5.904  0.1311 -0.2987 -0.1971
 7990DDP     P147936   6.114   8.541   5.841 -0.1537 -0.4778 -0.0470
 7990DDP     P247937   5.450   8.718   5.598  0.3553 -0.0069 -0.2853
 7990DDP     C247938   5.056   8.925   5.479  0.2721 -0.3429 -0.0124
 7990DDP     C347939   6.595   8.427   5.899 -0.2431  0.2811  0.0492
 7990DDP     C447940   5.554   8.713   6.323  0.1721  0.0764  0.1533
 7991DDP     C147941   8.004  26.334   3.689  0.0882 -0.2727  0.1865
 7991DDP     P147942   7.656  26.092   3.687 -0.2741 -0.0285  0.1712
 7991DDP     P247943   8.477  26.115   3.655  0.2199  0.0279  0.2544
 7991DDP     C247944   8.823  26.152   3.461 -0.5032 -0.0634  0.3764
 7991DDP     C347945   7.159  26.160   3.822  0.2486  0.1674  0.1329
 7991DDP     C447946   8.101  26.687   3.936  0.1028  0.3614 -0.3362
 7992DDP     C147947  20.665  20.470  25.005  0.1616 -0.0562  0.2193
 7992DDP     P147948  20.874  20.786  24.803 -0.4463  0.1477 -0.2233
 7992DDP     P247949  20.629  20.054  24.784 -0.1115 -0.2202 -0.0116
 7992DDP     C247950  20.754  19.908  24.378  0.0762  0.1109 -0.0151
 7992DDP     C347951  21.101  21.069  24.669 -0.0611  0.3099 -0.3837
 7992DDP     C447952  20.640  20.594  25.423  0.0244 -0.0769 -0.0609
 7993DDP     C147953  27.321  10.590  26.607  0.0470 -0.1346  0.1215
 7993DDP     P147954  27.427  10.489  26.109  0.2489  0.1402 -0.0033
 7993DDP     P247955  27.662  10.671  26.962  0.1747 -0.1093 -0.1790
 7993DDP     C247956  27.632  10.400  27.328  0.0642 -0.1199  0.0465
 7993DDP     C347957  27.649  10.250  25.845 -0.0342  0.1680  0.0189
 7993DDP     C447958  26.859  10.357  26.774  0.1537 -0.0699 -0.0213
 7994DDP     C147959   8.371  11.715  24.218  0.1365 -0.0094 -0.1801
 7994DDP     P147960   8.523  11.873  23.779 -0.0068  0.0941 -0.4368
 7994DDP     P247961   8.332  11.256  24.329 -0.2349 -0.3467 -0.0130
 7994DDP     C247962   8.288  11.046  24.761 -0.1871  0.1890  0.0413
 7994DDP     C347963   8.615  11.807  23.398  0.2174  0.1299  0.1463
 7994DDP     C447964   8.572  11.922  24.604  0.3123 -0.0450  0.0150
 7995DDP     C147965  19.345  18.858  18.403 -0.1960  0.0069 -0.0320
 7995DDP     P147966  18.977  18.783  18.469 -0.3561  0.1100  0.0613
 7995DDP     P247967  19.461  19.185  18.202  0.0661 -0.0448 -0.1126
 7995DDP     C247968  19.267  19.645  18.234  0.0742 -0.0169  0.3998
 7995DDP     C347969  18.630  18.948  18.765  0.2765 -0.0470 -0.2806
 7995DDP     C447970  19.646  18.540  18.629 -0.2437  0.0975  0.0712
 7996DDP     C147971  23.895  16.156  16.911 -0.0269  0.3159 -0.0286
 7996DDP     P147972  24.293  15.946  16.688  0.0468 -0.2678  0.0995
 7996DDP     P247973  24.004  16.447  17.339 -0.1250  0.2808  0.0053
 7996DDP     C247974  24.198  16.813  17.454  0.3154 -0.0731  0.0027
 7996DDP     C347975  24.629  15.887  16.909 -0.0980 -0.1254  0.2383
 7996DDP     C447976  23.560  15.917  16.842 -0.1566 -0.0413 -0.1291
 7997DDP     C147977  18.460  18.685  25.046 -0.0030 -0.0772 -0.2099
 7997DDP     P147978  18.645  18.418  25.306  0.0779 -0.0413  0.0774
 7997DDP     P247979  18.545  18.548  24.560 -0.1235 -0.2610  0.0318
 7997DDP     C247980  18.514  18.121  24.316  0.0222  0.1617  0.2176
 7997DDP     C347981  18.770  18.158  25.650 -0.0735  0.1895  0.2871
 7997DDP     C447982  18.154  19.063  25.086  0.2395  0.0560  0.2964
 7998DDP     C147983   1.305   8.664   7.729 -0.1030 -0.0344 -0.0372
 7998DDP     P147984   1.293   8.294   7.551 -0.1563  0.1490 -0.1657
 7998DDP     P247985   1.040   8.965   7.657  0.1593 -0.0501 -0.0348
 7998DDP     C247986   0.869   9.402   7.798 -0.0674 -0.1470 -0.2220
 7998DDP     C347987   1.535   8.035   7.180  0.0131 -0.3839  0.0538
 7998DDP     C447988   1.421   8.602   8.155  0.2035  0.0687  0.1040
 7999DDP     C147989  20.999  17.286  28.557 -0.0312  0.1178 -0.3467
 7999DDP     P147990  21.055  16.976  28.380  0.0768 -0.1805  0.1145
 7999DDP     P247991  21.360  17.444  28.800  0.1761  0.1228 -0.2660
 7999DDP     C247992  21.718  17.518  28.806 -0.2434 -0.0059  0.0856
 7999DDP     C347993  20.949  16.731  28.067  0.2435  0.0773  0.0485
 7999DDP     C447994  20.827  17.585  28.436 -0.3804  0.3352  0.1206
 8000DDP     C147995  10.211  21.038  14.564  0.3012 -0.2322  0.2560
 8000DDP     P147996   9.848  20.767  14.860  0.3001 -0.2643 -0.0406
 8000DDP     P247997  10.291  20.821  14.253  0.0573  0.1532  0.0039
 8000DDP     C247998  10.353  20.343  14.270  0.0171 -0.0282  0.3221
 8000DDP     C347999   9.619  20.419  14.787  0.0071 -0.0394  0.0513
 8000DDP     C448000  10.526  21.386  14.588  0.0662  0.0023 -0.0436
 8001DDP     C148001   6.514   4.869   0.346  0.2064  0.1265  0.0851
 8001DDP     P148002   6.178   5.112   0.395  0.0790 -0.1865 -0.1373
 8001DDP     P248003   6.326   4.477   0.414 -0.1699 -0.0152 -0.0109
 8001DDP     C248004   6.304   4.102   0.079  0.4057  0.0203 -0.0538
 8001DDP     C348005   5.718   5.010   0.355 -0.0798 -0.1224  0.0018
 8001DDP     C448006   7.003   4.926   0.327 -0.0424 -0.0757  0.1082
 8002DDP     C148007   6.706  10.468  14.506  0.1742  0.1771  0.0643
 8002DDP     P148008   6.601  10.841  14.206  0.0793 -0.0332  0.2166
 8002DDP     P248009   6.631  10.447  15.013  0.1331  0.0612 -0.1138
 8002DDP     C248010   6.447  10.698  15.361  0.1822  0.0795 -0.0106
 8002DDP     C348011   6.739  11.130  13.854 -0.1510  0.1153 -0.0619
 8002DDP     C448012   6.738  10.107  14.403  0.0429 -0.0838 -0.0531
 8003DDP     C148013   1.067  24.222  11.768  0.1234 -0.3391  0.1475
 8003DDP     P148014   0.867  24.416  11.449  0.0890 -0.1869  0.1528
 8003DDP     P248015   1.058  23.779  11.810 -0.1440 -0.0134  0.0437
 8003DDP     C248016   1.245  23.397  11.577  0.2730  0.0089 -0.2373
 8003DDP     C348017   0.816  24.734  11.179  0.2685  0.0275  0.1197
 8003DDP     C448018   1.272  24.471  12.034  0.1421  0.2312 -0.1006
 8004DDP     C148019  22.491  21.226   9.070  0.0161 -0.1696  0.1278
 8004DDP     P148020  22.559  20.843   8.891 -0.0377  0.1179  0.1518
 8004DDP     P248021  22.750  21.657   9.085  0.0083  0.0940 -0.2089
 8004DDP     C248022  22.625  22.051   9.301 -0.1267  0.2531 -0.0326
 8004DDP     C348023  22.890  20.686   8.558 -0.1906  0.3942 -0.2135
 8004DDP     C448024  21.995  21.278   9.186 -0.0931 -0.1024  0.2233
 8005DDP     C148025  14.513   3.708  26.215  0.0547 -0.0852 -0.0396
 8005DDP     P148026  14.071   3.778  26.028 -0.2193  0.2184  0.0192
 8005DDP     P248027  14.470   3.369  26.564 -0.0215 -0.1689  0.1860
 8005DDP     C248028  14.591   2.960  26.671 -0.0443  0.0898  0.1026
 8005DDP     C348029  13.759   3.568  25.884 -0.1711  0.0651 -0.0117
 8005DDP     C448030  14.823   3.820  25.970 -0.0709 -0.0953  0.2515
 8006DDP     C148031  27.081  15.666  15.360  0.1129  0.1040 -0.1225
 8006DDP     P148032  27.000  16.081  15.152  0.0925 -0.2413 -0.1428
 8006DDP     P248033  27.480  15.805  15.561 -0.0927 -0.1440 -0.0218
 8006DDP     C248034  27.738  15.593  15.783  0.2400 -0.1535  0.0043
 8006DDP     C348035  26.695  16.151  14.845  0.3255 -0.4202  0.0724
 8006DDP     C448036  26.912  15.299  15.493 -0.2327  0.0159 -0.2784
 8007DDP     C148037  12.279  22.999   1.512  0.3659  0.0907 -0.0842
 8007DDP     P148038  12.578  22.657   1.501 -0.1293  0.0861 -0.0119
 8007DDP     P248039  11.835  23.013   1.318 -0.0169  0.0304 -0.0688
 8007DDP     C248040  11.457  23.190   1.574 -0.1522  0.4262  0.0799
 8007DDP     C348041  12.936  22.482   1.660 -0.0678  0.1976 -0.2683
 8007DDP     C448042  12.479  23.362   1.606  0.0206  0.0517 -0.1021
 8008DDP     C148043  12.410  16.968  23.442 -0.1943 -0.1280  0.0426
 8008DDP     P148044  12.169  17.013  23.840  0.0644  0.0844 -0.1756
 8008DDP     P248045  12.447  16.686  23.163 -0.1980 -0.1234  0.1756
 8008DDP     C248046  12.585  16.573  22.775 -0.1038 -0.0471 -0.3751
 8008DDP     C348047  11.848  16.863  24.159 -0.0964 -0.1438  0.2554
 8008DDP     C448048  12.738  17.130  23.305 -0.0643  0.2427  0.1165
 8009DDP     C148049  23.537   5.547   1.925  0.1172  0.1862  0.3051
 8009DDP     P148050  23.339   5.472   2.286 -0.1456  0.2394  0.2122
 8009DDP     P248051  23.437   5.869   1.602 -0.3071  0.3294 -0.0522
 8009DDP     C248052  23.421   6.079   1.205 -0.1171  0.0404 -0.0971
 8009DDP     C348053  23.084   5.452   2.707 -0.0740  0.1670 -0.0104
 8009DDP     C448054  23.901   5.441   2.101 -0.1998 -0.1846  0.0056
 8010DDP     C148055   2.104   4.637  22.918  0.1444  0.3793  0.0611
 8010DDP     P148056   2.166   5.095  22.972  0.0702  0.1498 -0.1679
 8010DDP     P248057   2.501   4.444  22.830  0.2511  0.1164 -0.1496
 8010DDP     C248058   2.705   4.441  22.393  0.1909  0.5410 -0.0594
 8010DDP     C348059   2.184   5.519  23.195  0.2397 -0.2842  0.2967
 8010DDP     C448060   1.850   4.334  22.614 -0.2753  0.3641  0.3220
 8011DDP     C148061   4.070  19.577   3.284 -0.2156  0.2020 -0.2148
 8011DDP     P148062   4.448  19.340   3.179 -0.1307  0.1655 -0.0945
 8011DDP     P248063   4.024  19.717   3.787  0.2938 -0.3075 -0.1377
 8011DDP     C248064   4.326  19.705   4.138  0.2308  0.1720  0.1637
 8011DDP     C348065   4.816  19.045   3.020  0.0717  0.2387 -0.4001
 8011DDP     C448066   3.721  19.742   3.160 -0.0392  0.2904  0.1772
 8012DDP     C148067  26.286  11.442   3.523 -0.0673 -0.0511 -0.0883
 8012DDP     P148068  26.225  11.268   3.110  0.2232 -0.4512  0.1578
 8012DDP     P248069  26.055  11.781   3.431 -0.2685 -0.0221 -0.3767
 8012DDP     C248070  25.828  12.165   3.278  0.0950 -0.2185  0.0768
 8012DDP     C348071  25.939  11.249   2.695  0.0600  0.0593 -0.0771
 8012DDP     C448072  26.498  11.180   3.845 -0.0565  0.1927 -0.0447
 8013DDP     C148073  15.215  27.017   6.431  0.2636 -0.0057  0.1537
 8013DDP     P148074  15.175  26.726   6.824  0.1169  0.0812 -0.1693
 8013DDP     P248075  14.958  26.985   6.112  0.1310  0.0338 -0.0558
 8013DDP     C248076  14.648  27.031   5.806  0.0918 -0.2749  0.2442
 8013DDP     C348077  15.497  26.462   6.945  0.2449 -0.1034  0.0116
 8013DDP     C448078  15.612  27.157   6.265 -0.1203  0.0192 -0.1817
 8014DDP     C148079   3.059  12.912   9.259  0.0859  0.1476 -0.0635
 8014DDP     P148080   2.852  12.577   9.492  0.1767 -0.2790  0.0085
 8014DDP     P248081   3.012  13.260   9.309 -0.0461  0.2755  0.1333
 8014DDP     C248082   2.686  13.581   9.259  0.2430  0.1038 -0.2014
 8014DDP     C348083   2.562  12.292   9.791 -0.2472 -0.2784 -0.0561
 8014DDP     C448084   3.277  12.732   9.016 -0.0052 -0.1169  0.1791
 8015DDP     C148085  28.481  19.936   8.921 -0.0202  0.0079  0.1514
 8015DDP     P148086  28.084  20.024   8.978  0.0990 -0.1808 -0.2070
 8015DDP     P248087  28.384  20.119   8.566  0.0092  0.1474 -0.0200
 8015DDP     C248088  28.178  20.387   8.218 -0.3701  0.3271  0.3755
 8015DDP     C348089  27.851  20.281   8.886 -0.0786 -0.0515 -0.1622
 8015DDP     C448090  28.776  19.876   9.175  0.5136  0.1803 -0.1975
 8016DDP     C148091  21.601  28.670  20.409  0.2417  0.1011  0.1437
 8016DDP     P148092  21.552  28.280  20.170 -0.0588 -0.1467  0.0650
 8016DDP     P248093  21.241  28.929  20.592 -0.0472  0.0216 -0.3209
 8016DDP     C248094  20.806  28.950  20.779 -0.3033 -0.1170 -0.1070
 8016DDP     C348095  21.745  27.830  20.335  0.1144  0.0076  0.1537
 8016DDP     C448096  21.944  28.657  20.686 -0.0692  0.3506 -0.0629
 8017DDP     C148097  29.306  13.917  17.175 -0.2387 -0.2664 -0.1774
 8017DDP     P148098  29.014  13.711  17.246  0.2623  0.0367  0.0497
 8017DDP     P248099  29.322  14.289  16.843  0.0145  0.1459  0.1348
 8017DDP     C248100  28.995  14.721  16.803 -0.2411 -0.0525  0.0110
 8017DDP     C348101  28.598  13.803  17.425  0.0783 -0.2114 -0.6723
 8017DDP     C448102  29.590  13.812  17.500  0.3948  0.1017  0.1741
 8018DDP     C148103  23.602   0.498   2.491 -0.2644  0.0955 -0.0563
 8018DDP     P148104  23.560   0.390   2.069  0.3443 -0.1257  0.4019
 8018DDP     P248105  23.930   0.620   2.617  0.0788 -0.0142  0.0752
 8018DDP     C248106  24.309   0.694   2.537  0.3675 -0.0220 -0.2420
 8018DDP     C348107  23.556   0.361   1.679 -0.0214 -0.2899  0.4357
 8018DDP     C448108  23.258   0.470   2.772 -0.1775  0.0717 -0.0552
 8019DDP     C148109  13.229  11.722  20.850  0.1074  0.1734 -0.3069
 8019DDP     P148110  13.119  12.106  20.640  0.0248 -0.0234  0.1587
 8019DDP     P248111  13.630  11.558  20.902  0.0274  0.0161  0.1336
 8019DDP     C248112  13.792  11.195  21.044  0.1949  0.0749 -0.0740
 8019DDP     C348113  12.933  12.444  20.820 -0.0479 -0.3413 -0.2233
 8019DDP     C448114  12.945  11.566  21.068 -0.1406  0.1239  0.0578
 8020DDP     C148115  13.410   7.977  13.069 -0.0912 -0.3251  0.1147
 8020DDP     P148116  13.317   7.865  12.575  0.2539  0.1468  0.1692
 8020DDP     P248117  13.792   7.979  13.258 -0.0285 -0.0827  0.1808
 8020DDP     C248118  14.035   7.621  13.350 -0.0802 -0.1604 -0.2351
 8020DDP     C348119  13.351   7.808  12.138  0.3112  0.1372  0.2684
 8020DDP     C448120  13.038   8.241  13.288 -0.1072  0.0585 -0.0735
 8021DDP     C148121  16.936   8.358  18.338 -0.3392 -0.1138 -0.2835
 8021DDP     P148122  16.806   8.754  18.200  0.2542  0.0887 -0.0068
 8021DDP     P248123  17.249   7.998  18.116 -0.0966 -0.1978 -0.0268
 8021DDP     C248124  17.171   7.481  18.173  0.0749  0.1314  0.1266
 8021DDP     C348125  16.828   9.169  18.246 -0.0284 -0.2398 -0.2069
 8021DDP     C448126  16.647   8.072  18.282  0.0166 -0.2456 -0.3563
 8022DDP     C148127   6.073  18.950  19.297 -0.2197 -0.2110  0.2718
 8022DDP     P148128   6.352  18.659  19.072 -0.1461 -0.0136 -0.1895
 8022DDP     P248129   5.689  18.952  19.523 -0.0091  0.2064  0.1048
 8022DDP     C248130   5.435  19.117  19.971 -0.2693 -0.2811 -0.1092
 8022DDP     C348131   6.615  18.201  18.919  0.1286  0.1668 -0.0059
 8022DDP     C448132   6.204  19.433  19.232 -0.0435 -0.1039  0.0594
 8023DDP     C148133  23.769  27.585   9.560  0.1347 -0.2267 -0.0754
 8023DDP     P148134  23.424  27.546   9.781 -0.0982  0.0284 -0.0272
 8023DDP     P248135  23.834  27.949   9.413 -0.0869  0.0848  0.1159
 8023DDP     C248136  24.014  28.148   9.104  0.0106 -0.0507  0.0530
 8023DDP     C348137  23.067  27.444   9.670 -0.1139  0.1746 -0.1489
 8023DDP     C448138  24.116  27.266   9.593 -0.1703 -0.0269  0.0928
 8024DDP     C148139  14.927  24.324  25.698  0.1534 -0.1227  0.2457
 8024DDP     P148140  14.879  24.023  25.356  0.1593 -0.0230  0.1193
 8024DDP     P248141  14.875  24.181  26.145 -0.2456  0.1637 -0.2922
 8024DDP     C248142  14.856  24.522  26.505 -0.4145 -0.0000 -0.0998
 8024DDP     C348143  15.051  23.714  25.091  0.1637 -0.0300  0.2680
 8024DDP     C448144  15.109  24.750  25.531 -0.0146  0.0304  0.1881
 8025DDP     C148145   6.980  10.143   0.699  0.1339 -0.0137 -0.2085
 8025DDP     P148146   6.699  10.439   0.570  0.2941 -0.0501  0.1236
 8025DDP     P248147   7.116   9.899   0.401 -0.2134 -0.1030 -0.0869
 8025DDP     C248148   7.345   9.745   0.177  0.0842  0.0557  0.0562
 8025DDP     C348149   6.788  10.918   0.573  0.0850 -0.0556 -0.2672
 8025DDP     C448150   6.978  10.070   1.127  0.0574 -0.2027 -0.1077
 8026DDP     C148151  24.966  13.747   2.391 -0.2924 -0.1887 -0.0290
 8026DDP     P148152  24.871  14.117   2.634 -0.2774 -0.1624  0.0434
 8026DDP     P248153  24.720  13.922   2.078  0.0619 -0.0033 -0.0525
 8026DDP     C248154  24.404  14.206   1.983  0.2907  0.2716 -0.1709
 8026DDP     C348155  24.694  14.530   2.715 -0.1073 -0.1553 -0.0489
 8026DDP     C448156  25.301  13.508   2.355 -0.1564  0.0039 -0.1300
 8027DDP     C148157   0.747  21.250   5.280 -0.1648 -0.4636  0.0127
 8027DDP     P148158   0.986  21.532   5.259 -0.0242  0.0790 -0.1695
 8027DDP     P248159   0.302  21.253   5.339 -0.0208  0.4712  0.0635
 8027DDP     C248160  -0.012  21.547   5.478 -0.2823  0.0086  0.1817
 8027DDP     C348161   0.919  21.994   5.131  0.0602 -0.2208  0.0308
 8027DDP     C448162   0.960  20.938   5.341 -0.1802  0.0484 -0.0196
 8028DDP     C148163   3.738  28.284   4.273 -0.2529 -0.0960  0.0082
 8028DDP     P148164   3.571  27.964   4.091 -0.1925  0.3104  0.2191
 8028DDP     P248165   3.494  28.449   4.555  0.1740  0.0765 -0.4025
 8028DDP     C248166   3.514  28.782   4.906 -0.3627 -0.0181  0.2673
 8028DDP     C348167   3.412  27.620   4.169  0.1194  0.0089  0.0264
 8028DDP     C448168   4.142  28.563   4.139  0.0967  0.2942  0.0586
 8029DDP     C148169   2.071   1.746  13.475 -0.1945  0.0829 -0.2049
 8029DDP     P148170   2.139   2.156  13.545 -0.1246 -0.1612  0.0525
 8029DDP     P248171   1.905   1.506  13.701  0.0118 -0.2780  0.0437
 8029DDP     C248172   1.776   1.055  13.574  0.1339  0.2082  0.2328
 8029DDP     C348173   2.180   2.621  13.359  0.2000 -0.4094 -0.2372
 8029DDP     C448174   2.193   1.527  13.009  0.0078  0.1829 -0.1217
 8030DDP     C148175   0.843  22.062  16.735 -0.0857 -0.1231 -0.2979
 8030DDP     P148176   0.389  22.272  16.673 -0.0241  0.0014 -0.1125
 8030DDP     P248177   1.180  22.118  16.535 -0.1905  0.4908  0.0516
 8030DDP     C248178   1.588  22.079  16.625  0.0884  0.1111  0.2916
 8030DDP     C348179  -0.002  22.494  16.894 -0.2336  0.1251 -0.0439
 8030DDP     C448180   0.968  21.883  17.074  0.1380 -0.0244  0.0936
 8031DDP     C148181   0.175  18.171  10.549 -0.2504  0.0835 -0.1777
 8031DDP     P148182   0.506  18.211  10.212  0.2594 -0.1197 -0.2245
 8031DDP     P248183  30.047  18.007  10.358 -0.0289  0.0603 -0.1959
 8031DDP     C248184  29.745  17.750  10.114  0.1030 -0.1288  0.0658
 8031DDP     C348185   0.821  17.994  10.036  0.0465  0.0048 -0.0417
 8031DDP     C448186   0.233  18.304  10.946  0.4559 -0.2028  0.0575
 8032DDP     C148187  17.260  28.788  18.086  0.2081  0.0781 -0.2692
 8032DDP     P148188  17.530  28.912  17.656 -0.1389  0.0806 -0.1010
 8032DDP     P248189  16.912  29.077  18.216  0.1356  0.1468 -0.2910
 8032DDP     C248190  16.604  28.954  18.147 -0.0493 -0.0608  0.0143
 8032DDP     C348191  17.703  29.273  17.601  0.0762 -0.0799 -0.4418
 8032DDP     C448192  17.359  28.462  18.313  0.1599  0.3279  0.1239
 8033DDP     C148193  25.094  26.657   1.475 -0.0834 -0.0378 -0.0500
 8033DDP     P148194  25.147  27.055   1.271 -0.2629 -0.0028  0.3444
 8033DDP     P248195  25.367  26.426   1.692  0.1684  0.0021  0.0455
 8033DDP     C248196  25.543  26.003   1.593  0.0713  0.3016 -0.0804
 8033DDP     C348197  25.171  27.539   1.316 -0.1247 -0.0441 -0.0150
 8033DDP     C448198  24.800  26.281   1.306 -0.2536 -0.0500 -0.0314
 8034DDP     C148199   4.583   8.160  20.466 -0.0794 -0.1485 -0.2695
 8034DDP     P148200   4.549   8.387  20.843  0.0229 -0.2288  0.2721
 8034DDP     P248201   4.234   7.883  20.356  0.3369  0.1787  0.1634
 8034DDP     C248202   3.946   7.497  20.358 -0.0612  0.0189 -0.0930
 8034DDP     C348203   4.443   8.578  21.247 -0.0385 -0.0360 -0.1464
 8034DDP     C448204   4.802   8.383  20.267  0.0479 -0.0956  0.0024
 8035DDP     C148205  11.539   2.107  25.181 -0.0772 -0.0508 -0.3890
 8035DDP     P148206  11.977   2.010  24.998  0.1133  0.2777 -0.1723
 8035DDP     P248207  11.296   2.106  24.758  0.0269 -0.1581  0.2664
 8035DDP     C248208  11.301   2.181  24.325  0.1391 -0.0031 -0.1329
 8035DDP     C348209  12.358   1.662  25.060  0.0578 -0.0163 -0.0396
 8035DDP     C448210  11.505   1.990  25.587 -0.2955  0.1464 -0.1040
 8036DDP     C148211  20.075  28.155  18.467  0.2152 -0.0015  0.0596
 8036DDP     P148212  19.908  27.769  18.275 -0.0695 -0.1360 -0.0421
 8036DDP     P248213  19.987  28.548  18.341  0.0761  0.2701 -0.1530
 8036DDP     C248214  19.649  28.526  17.990  0.1468 -0.1598 -0.2028
 8036DDP     C348215  19.550  27.711  18.223 -0.0450 -0.2398  0.0247
 8036DDP     C448216  20.207  28.113  18.846 -0.0539 -0.2744 -0.1191
 8037DDP     C148217   4.952   9.123  19.557  0.1819  0.1412 -0.1347
 8037DDP     P148218   5.322   9.059  19.372 -0.1743  0.3693 -0.2716
 8037DDP     P248219   4.936   9.479  19.782  0.4946  0.1637 -0.2928
 8037DDP     C248220   4.909   9.815  20.110 -0.3983 -0.0720 -0.0107
 8037DDP     C348221   5.596   8.778  19.175 -0.1430 -0.2801  0.0429
 8037DDP     C448222   4.537   8.912  19.594  0.2851 -0.0655 -0.1442
 8038DDP     C148223  19.385  25.187  28.146  0.1591  0.0232  0.1755
 8038DDP     P148224  19.424  25.123  27.679  0.1796  0.1628 -0.1215
 8038DDP     P248225  19.623  24.895  28.385 -0.0961 -0.0137  0.0882
 8038DDP     C248226  19.443  24.694  28.601  0.1524  0.1598 -0.0211
 8038DDP     C348227  19.406  25.318  27.207 -0.1551 -0.0852 -0.0030
 8038DDP     C448228  19.568  25.423  28.236  0.0628  0.6341 -0.1370
 8039DDP     C148229  25.760  28.385  21.909  0.0503 -0.1446  0.2927
 8039DDP     P148230  25.575  28.110  21.456  0.2824  0.1800  0.1420
 8039DDP     P248231  25.435  28.782  21.954 -0.1303 -0.4510 -0.0182
 8039DDP     C248232  25.131  29.004  22.042 -0.2104 -0.3114 -0.0653
 8039DDP     C348233  25.206  27.843  21.335 -0.0978  0.0164  0.2941
 8039DDP     C448234  26.161  28.365  22.215 -0.0721 -0.0334  0.2562
 8040DDP     C148235   4.351  29.089  15.318 -0.1076 -0.0375  0.1922
 8040DDP     P148236   4.226  28.689  15.213 -0.2332  0.1876  0.0604
 8040DDP     P248237   4.229  29.192  15.693  0.1798 -0.0367 -0.2886
 8040DDP     C248238   3.999  29.285  16.034 -0.0511  0.0021  0.0836
 8040DDP     C348239   4.218  28.283  14.968 -0.0397 -0.1504 -0.0011
 8040DDP     C448240   4.464  29.368  15.005 -0.3469 -0.1933 -0.2467
 8041DDP     C148241  18.222  15.157   4.243  0.2159 -0.1179 -0.2875
 8041DDP     P148242  18.567  15.256   4.523 -0.0035 -0.0266  0.0355
 8041DDP     P248243  17.852  15.089   4.340 -0.0436  0.2445 -0.1475
 8041DDP     C248244  17.644  14.618   4.173  0.0500  0.1951  0.1895
 8041DDP     C348245  18.780  15.263   4.161 -0.0458 -0.1222 -0.2116
 8041DDP     C448246  18.378  15.022   3.787  0.1041 -0.2312  0.3429
 8042DDP     C148247  27.811   0.423   6.781  0.0236 -0.0339  0.4714
 8042DDP     P148248  28.255   0.458   6.618  0.1119 -0.1813  0.0329
 8042DDP     P248249  27.701  30.355   6.701 -0.2587  0.2973 -0.2231
 8042DDP     C248250  27.654  30.124   6.349 -0.1878  0.3041  0.2518
 8042DDP     C348251  28.422   0.598   6.230  0.2428 -0.0857 -0.3313
 8042DDP     C448252  27.864   0.930   6.976 -0.0809  0.2162  0.1569
 8043DDP     C148253  19.547  18.018  24.191  0.2610  0.2479 -0.3226
 8043DDP     P148254  19.090  17.849  24.178 -0.0871  0.1495 -0.0300
 8043DDP     P248255  20.004  17.860  24.406  0.0700  0.0433 -0.4795
 8043DDP     C248256  20.091  17.468  24.668 -0.2319  0.0176 -0.0395
 8043DDP     C348257  18.810  17.534  24.400 -0.1385  0.0741 -0.1489
 8043DDP     C448258  19.478  18.376  24.040 -0.0228 -0.0056  0.1070
 8044DDP     C148259  18.429  30.255  29.350 -0.0486  0.1745 -0.1072
 8044DDP     P148260  18.623  29.867  29.659  0.1201  0.0755 -0.0738
 8044DDP     P248261  18.296  30.137  29.004  0.2910 -0.0412 -0.4895
 8044DDP     C248262  18.327  30.028  28.546  0.0450  0.1395  0.1678
 8044DDP     C348263  18.968  29.750  29.622 -0.3500 -0.2967  0.1323
 8044DDP     C448264  18.457   0.309  29.646 -0.1713 -0.0629 -0.2847
 8045DDP     C148265   2.330  27.233  19.986 -0.0711  0.3401  0.0062
 8045DDP     P148266   2.686  26.892  20.119  0.1381 -0.0129 -0.1115
 8045DDP     P248267   2.529  27.628  19.938 -0.2069 -0.2012 -0.0232
 8045DDP     C248268   2.803  27.959  19.649 -0.1591 -0.1241  0.0181
 8045DDP     C348269   3.094  26.705  20.064 -0.0630  0.0086  0.1256
 8045DDP     C448270   1.897  27.198  19.946 -0.0403 -0.1995  0.2222
 8046DDP     C148271  14.159   6.783  14.927  0.0076 -0.4405 -0.0271
 8046DDP     P148272  14.091   7.204  15.095  0.2195  0.0927 -0.2217
 8046DDP     P248273  14.161   6.777  14.478 -0.0620  0.1964  0.0862
 8046DDP     C248274  13.963   6.740  14.116  0.2496  0.0978 -0.0617
 8046DDP     C348275  14.047   7.598  15.334 -0.2668 -0.0699 -0.1885
 8046DDP     C448276  14.027   6.528  15.240 -0.1897  0.2443  0.0374
 8047DDP     C148277  22.261  16.160   9.488  0.1278  0.0696  0.0590
 8047DDP     P148278  22.153  15.960   9.903  0.0630  0.0782  0.3082
 8047DDP     P248279  22.322  15.809   9.235  0.1627  0.1789  0.1081
 8047DDP     C248280  22.515  15.370   9.250 -0.1276  0.0459  0.2499
 8047DDP     C348281  22.147  15.702  10.232 -0.1746  0.4156 -0.1944
 8047DDP     C448282  22.454  16.485   9.408  0.0148 -0.0845  0.1214
 8048DDP     C148283   6.511   2.391  16.226  0.3188 -0.1309 -0.2104
 8048DDP     P148284   6.479   2.857  16.447  0.0804  0.1077  0.2455
 8048DDP     P248285   6.893   2.209  16.345  0.0380  0.1792  0.0571
 8048DDP     C248286   7.257   1.900  16.444 -0.3933 -0.1502 -0.0329
 8048DDP     C348287   6.570   2.975  16.818  0.1682  0.0303  0.0869
 8048DDP     C448288   6.283   2.339  15.876 -0.3027 -0.1463 -0.2287
 8049DDP     C148289  27.820  12.363  12.796  0.2455 -0.2191 -0.1171
 8049DDP     P148290  27.591  12.418  13.175  0.0962 -0.3387  0.3380
 8049DDP     P248291  27.579  12.276  12.450 -0.1680 -0.1294 -0.0205
 8049DDP     C248292  27.305  12.491  12.184  0.0686 -0.0483 -0.0117
 8049DDP     C348293  27.247  12.749  13.280  0.0013 -0.1289 -0.0036
 8049DDP     C448294  28.143  12.120  12.740  0.0205 -0.0591 -0.0041
 8050DDP     C148295  22.841  14.637  10.232 -0.0195 -0.2653 -0.0026
 8050DDP     P148296  23.079  14.987  10.184 -0.3152  0.1591 -0.3079
 8050DDP     P248297  22.657  14.697  10.582  0.2406  0.1768  0.1011
 8050DDP     C248298  22.533  15.094  10.853 -0.1348 -0.0893 -0.2440
 8050DDP     C348299  23.228  15.413  10.279  0.4772 -0.4825 -0.1866
 8050DDP     C448300  22.655  14.253  10.048  0.1354  0.1326 -0.0671
 8051DDP     C148301  28.957  28.643  23.692  0.2109 -0.0730 -0.1816
 8051DDP     P148302  28.817  28.644  24.088 -0.0202 -0.0610 -0.0027
 8051DDP     P248303  29.297  28.772  23.800 -0.1080  0.1814  0.1920
 8051DDP     C248304  29.730  28.988  23.710 -0.2908 -0.0101  0.1881
 8051DDP     C348305  28.372  28.695  24.197  0.0934 -0.2221  0.2748
 8051DDP     C448306  28.671  28.622  23.352 -0.0299  0.1358 -0.0986
 8052DDP     C148307  12.043  29.168  10.652 -0.1691 -0.1285  0.2296
 8052DDP     P148308  12.294  29.384  10.843 -0.2591 -0.1747 -0.1730
 8052DDP     P248309  11.573  29.270  10.708  0.0859  0.0031  0.0517
 8052DDP     C248310  11.422  29.577  10.644 -0.0571  0.1648  0.1798
 8052DDP     C348311  12.460  29.763  10.857 -0.0670 -0.4550  0.0600
 8052DDP     C448312  12.100  28.742  10.516 -0.0164  0.1808  0.2430
 8053DDP     C148313  11.234  21.177  13.658  0.3121  0.1242 -0.0363
 8053DDP     P148314  11.503  21.329  13.310 -0.1904  0.3143  0.0630
 8053DDP     P248315  11.109  20.666  13.777  0.0112  0.2414  0.1494
 8053DDP     C248316  11.112  20.225  13.939  0.1647  0.2844 -0.3904
 8053DDP     C348317  11.796  21.400  13.013 -0.1437 -0.0077 -0.0687
 8053DDP     C448318  10.921  21.407  13.783 -0.0604 -0.4222  0.1331
 8054DDP     C148319  13.524  25.801  27.205  0.0532 -0.4307 -0.0502
 8054DDP     P148320  13.260  25.462  27.334  0.2939 -0.1410 -0.2239
 8054DDP     P248321  13.787  25.561  27.259  0.1118  0.1697 -0.0585
 8054DDP     C248322  14.169  25.743  27.418 -0.4506  0.2025 -0.2682
 8054DDP     C348323  12.937  25.224  27.660 -0.1748 -0.4747  0.3022
 8054DDP     C448324  13.552  26.207  26.965 -0.3265 -0.1042  0.1813
 8055DDP     C148325  27.580   4.502  22.313 -0.0238  0.3145 -0.0365
 8055DDP     P148326  27.782   4.660  22.045 -0.0642  0.0985  0.0745
 8055DDP     P248327  27.110   4.541  22.541 -0.1958 -0.0173 -0.0749
 8055DDP     C248328  26.649   4.632  22.873  0.1317  0.1221 -0.1650
 8055DDP     C348329  27.902   4.941  21.683 -0.0883 -0.0184  0.0461
 8055DDP     C448330  27.801   4.233  22.478 -0.2808 -0.0988  0.0893
 8056DDP     C148331   1.482  15.976  10.586 -0.1088 -0.2172  0.1561
 8056DDP     P148332   1.245  15.866  10.881 -0.0593 -0.0651  0.1507
 8056DDP     P248333   1.346  16.063  10.159 -0.1205 -0.0783 -0.0771
 8056DDP     C248334   1.601  15.968   9.801 -0.1273 -0.0535  0.0107
 8056DDP     C348335   1.071  15.562  11.091 -0.0076  0.3977 -0.0127
 8056DDP     C448336   1.774  15.698  10.703 -0.1731 -0.1247  0.1629
 8057DDP     C148337   4.225  10.099  13.238 -0.0473  0.0473  0.1552
 8057DDP     P148338   4.368  10.153  12.806  0.2868  0.0497  0.1553
 8057DDP     P248339   3.858   9.840  13.365  0.1170  0.0578  0.1280
 8057DDP     C248340   3.418   9.899  13.624  0.0188  0.0564  0.3415
 8057DDP     C348341   4.341  10.391  12.429  0.0422  0.0917 -0.2266
 8057DDP     C448342   4.258  10.463  13.337 -0.1102 -0.1746  0.0398
 8058DDP     C148343   0.795  25.747   3.933 -0.1813 -0.0569  0.3609
 8058DDP     P148344   1.048  25.857   4.322  0.0909 -0.0923  0.0487
 8058DDP     P248345   0.996  25.726   3.461  0.2116 -0.1314  0.2414
 8058DDP     C248346   1.144  25.345   3.416 -0.2596  0.0755 -0.0780
 8058DDP     C348347   1.012  26.312   4.511 -0.0223  0.0710 -0.1402
 8058DDP     C448348   0.373  25.504   3.915 -0.2031 -0.0869 -0.3219
 8059DDP     C148349   7.633   8.640   7.994  0.1463  0.5834 -0.1506
 8059DDP     P148350   7.305   8.342   8.205 -0.0794  0.3932  0.3285
 8059DDP     P248351   7.806   8.537   7.643 -0.0907 -0.0095  0.3461
 8059DDP     C248352   8.078   8.410   7.395 -0.1402  0.1204 -0.3011
 8059DDP     C348353   7.097   8.437   8.507  0.3021  0.2196  0.0214
 8059DDP     C448354   8.002   8.998   8.177 -0.0507 -0.0740 -0.1559
 8060DDP     C148355  12.672  24.470   5.812  0.0430 -0.1063 -0.1008
 8060DDP     P148356  12.837  24.319   6.184  0.0613  0.0830 -0.0235
 8060DDP     P248357  12.925  24.793   5.701 -0.0408 -0.3039  0.3457
 8060DDP     C248358  13.035  25.035   5.360 -0.4793 -0.1767  0.1130
 8060DDP     C348359  12.677  24.442   6.550 -0.1013  0.1510  0.1502
 8060DDP     C448360  12.291  24.600   5.655  0.1327 -0.0583  0.1141
 8061DDP     C148361  18.835  24.124  28.085 -0.0574  0.1538 -0.1528
 8061DDP     P148362  18.736  23.974  28.515 -0.0111 -0.3861  0.0582
 8061DDP     P248363  18.373  24.254  27.884 -0.2790 -0.0571 -0.0829
 8061DDP     C248364  18.100  24.308  27.631  0.1388 -0.0702 -0.0989
 8061DDP     C348365  19.172  23.732  28.692  0.0122  0.0164 -0.0903
 8061DDP     C448366  19.217  24.210  27.875  0.0689  0.0943  0.1445
 8062DDP     C148367   0.781  27.531  21.959 -0.0404 -0.1045 -0.3404
 8062DDP     P148368   1.010  27.801  22.272  0.0058  0.1416  0.2720
 8062DDP     P248369   0.660  27.666  21.511  0.0326 -0.1166  0.0732
 8062DDP     C248370   0.695  27.776  21.165  0.1553  0.0801  0.1934
 8062DDP     C348371   1.459  27.874  22.388  0.0150  0.2264 -0.0392
 8062DDP     C448372   0.502  27.175  22.152  0.1555  0.1756  0.0279
 8063DDP     C148373   8.095   3.133   9.235  0.0290  0.0964  0.3503
 8063DDP     P148374   8.331   2.719   8.992 -0.0291  0.0866  0.3343
 8063DDP     P248375   8.149   3.554   9.047  0.2125  0.0382  0.2067
 8063DDP     C248376   8.063   3.959   9.287 -0.3439 -0.0375 -0.2907
 8063DDP     C348377   8.573   2.324   9.094  0.3589 -0.0401 -0.0139
 8063DDP     C448378   8.215   3.051   9.688 -0.0499  0.0053  0.0136
 8064DDP     C148379   9.030  14.339  27.274  0.1696  0.0323  0.0985
 8064DDP     P148380   9.248  14.308  26.860 -0.2809 -0.1728  0.0485
 8064DDP     P248381   8.595  14.307  27.335  0.1793  0.1090 -0.0843
 8064DDP     C248382   8.171  14.125  27.110 -0.3343  0.0362 -0.1839
 8064DDP     C348383   9.552  14.119  26.604  0.1263  0.4874 -0.1088
 8064DDP     C448384   9.188  14.578  27.592 -0.1113  0.1367 -0.1794
 8065DDP     C148385   2.830   9.943  19.580  0.1881 -0.0526 -0.0487
 8065DDP     P148386   2.541   9.774  19.716 -0.1321 -0.2518  0.2230
 8065DDP     P248387   3.227   9.746  19.608  0.0703 -0.2223  0.1920
 8065DDP     C248388   3.665   9.536  19.446 -0.1471 -0.1530 -0.4422
 8065DDP     C348389   2.322   9.901  20.169  0.0716  0.1048 -0.1224
 8065DDP     C448390   2.869  10.355  19.484  0.1920 -0.0566  0.0848
 8066DDP     C148391  11.158   3.835  14.741 -0.0053 -0.2005  0.3119
 8066DDP     P148392  10.816   3.795  15.152 -0.1124  0.0996 -0.0869
 8066DDP     P248393  11.175   3.486  14.404  0.0765  0.0526 -0.1120
 8066DDP     C248394  11.424   3.080  14.405 -0.1008  0.0386  0.1968
 8066DDP     C348395  11.005   3.730  15.429 -0.2343 -0.2248 -0.1127
 8066DDP     C448396  11.459   4.054  14.836  0.2465  0.3011  0.0856
 8067DDP     C148397  14.593  21.552   6.304 -0.4112 -0.1300 -0.0036
 8067DDP     P148398  14.787  21.041   6.416 -0.0878  0.0068 -0.1165
 8067DDP     P248399  14.585  21.578   5.925 -0.2082  0.3972 -0.0207
 8067DDP     C248400  14.493  21.458   5.517  0.1294 -0.1496 -0.0083
 8067DDP     C348401  15.042  20.836   6.713  0.1736  0.1250  0.1116
 8067DDP     C448402  14.251  21.706   6.577  0.2887  0.1775  0.0138
 8068DDP     C148403  29.950  26.763   5.730  0.2274 -0.0161  0.2095
 8068DDP     P148404  30.227  26.989   5.504 -0.0759  0.0348  0.0901
 8068DDP     P248405  29.430  26.785   5.806  0.2008  0.1757  0.0890
 8068DDP     C248406  28.974  26.563   5.681 -0.0114 -0.3973 -0.0203
 8068DDP     C348407   0.294  27.249   5.404  0.1182 -0.1959 -0.1379
 8068DDP     C448408  30.242  26.477   5.770  0.0777 -0.0859 -0.0421
 8069DDP     C148409  13.666  10.334  19.430 -0.1698  0.4117 -0.2201
 8069DDP     P148410  13.813  10.042  19.042 -0.1807 -0.0338  0.0588
 8069DDP     P248411  14.012  10.432  19.720  0.0244  0.3637 -0.0973
 8069DDP     C248412  14.249  10.364  20.180 -0.2298 -0.1053 -0.1945
 8069DDP     C348413  14.158  10.043  18.877 -0.2300 -0.1485 -0.1588
 8069DDP     C448414  13.229  10.399  19.630 -0.1457  0.4146  0.0966
 8070DDP     C148415  14.729  22.409   5.675 -0.0122  0.0874  0.1961
 8070DDP     P148416  14.541  22.331   5.281  0.0198  0.0555 -0.0582
 8070DDP     P248417  15.148  22.213   5.672 -0.0508  0.0920  0.0603
 8070DDP     C248418  15.444  22.274   5.257  0.0241 -0.3112 -0.2427
 8070DDP     C348419  14.202  22.191   5.117  0.2478 -0.3378  0.0140
 8070DDP     C448420  14.583  22.774   5.945  0.0848  0.1221  0.1269
 8071DDP     C148421   9.541  13.487  24.054  0.1188 -0.0677 -0.2471
 8071DDP     P148422   9.677  13.146  24.119  0.5127 -0.0470  0.3314
 8071DDP     P248423   9.733  13.757  24.043 -0.1817 -0.0381 -0.0988
 8071DDP     C248424  10.018  13.883  24.299  0.0566 -0.0552 -0.1499
 8071DDP     C348425   9.706  12.722  24.014 -0.2809  0.0661  0.0658
 8071DDP     C448426   9.120  13.651  24.250  0.1058  0.1470  0.4435
 8072DDP     C148427  28.220   5.743  14.884 -0.2870  0.0282  0.0547
 8072DDP     P148428  28.245   5.546  14.504  0.0637  0.1403 -0.0968
 8072DDP     P248429  28.331   6.130  14.730  0.0086  0.3290 -0.0764
 8072DDP     C248430  28.609   6.361  14.471 -0.1414 -0.0692 -0.3435
 8072DDP     C348431  28.275   5.101  14.236 -0.0188 -0.0781 -0.1291
 8072DDP     C448432  28.074   5.668  15.309  0.2067  0.1172  0.0307
 8073DDP     C148433  11.912  29.699   9.383  0.0335  0.1034 -0.0368
 8073DDP     P148434  12.109  29.650   8.932  0.0226  0.0173  0.1380
 8073DDP     P248435  11.855  30.150   9.498  0.1011 -0.1996 -0.3142
 8073DDP     C248436  11.994   0.208   9.300  0.2844  0.0392  0.0274
 8073DDP     C348437  11.960  29.926   8.592 -0.0187 -0.2195  0.1653
 8073DDP     C448438  11.723  29.364   9.651  0.2630 -0.3788  0.1816
 8074DDP     C148439  11.533  23.257  22.482  0.0775 -0.2067 -0.0158
 8074DDP     P148440  11.255  23.583  22.146  0.1103 -0.0106  0.0847
 8074DDP     P248441  11.968  23.314  22.364 -0.1113 -0.0272 -0.1067
 8074DDP     C248442  12.107  23.302  22.015  0.2805  0.1217 -0.0567
 8074DDP     C348443  10.861  23.563  22.082  0.0429 -0.1186 -0.1880
 8074DDP     C448444  11.437  22.777  22.624 -0.1296  0.0012 -0.1041
 8075DDP     C148445  20.309  20.960  20.434 -0.0343 -0.0281  0.2623
 8075DDP     P148446  20.086  20.575  20.500  0.0700 -0.1606  0.0956
 8075DDP     P248447  20.164  21.360  20.516 -0.0396  0.0020  0.2801
 8075DDP     C248448  20.222  21.716  20.504  0.0665 -0.0359  0.0409
 8075DDP     C348449  20.058  20.169  20.366  0.3085  0.0859  0.0199
 8075DDP     C448450  20.739  20.914  20.583 -0.2419  0.1542 -0.1649
 8076DDP     C148451  23.381  20.031   7.979  0.1492  0.1924  0.0773
 8076DDP     P148452  23.477  19.900   8.306  0.0733  0.0094  0.1669
 8076DDP     P248453  23.612  20.336   7.751  0.1416  0.1225  0.2561
 8076DDP     C248454  23.880  20.629   7.730 -0.2086 -0.0213  0.0093
 8076DDP     C348455  23.650  20.035   8.681  0.1380  0.0594 -0.2170
 8076DDP     C448456  22.871  19.978   7.821  0.0653 -0.1237  0.1331
 8077DDP     C148457  18.664  10.590   7.882  0.0597  0.2326  0.2795
 8077DDP     P148458  18.975  10.308   8.186  0.1174 -0.1093  0.2670
 8077DDP     P248459  18.226  10.563   7.922 -0.0015 -0.1538  0.0324
 8077DDP     C248460  18.021  10.802   7.526  0.0545 -0.0442 -0.1733
 8077DDP     C348461  19.416  10.379   8.201 -0.2052  0.3960 -0.0217
 8077DDP     C448462  18.740  11.028   7.696  0.1796  0.1014 -0.2748
 8078DDP     C148463  22.556  12.625  20.071 -0.0667 -0.2646 -0.1840
 8078DDP     P148464  22.680  12.807  20.467  0.0611 -0.2480  0.0010
 8078DDP     P248465  22.597  12.911  19.695  0.5528 -0.4011  0.0546
 8078DDP     C248466  22.632  13.192  19.394 -0.0320  0.3759 -0.3389
 8078DDP     C348467  22.563  13.021  20.729  0.1401 -0.1400 -0.3796
 8078DDP     C448468  22.230  12.311  20.084  0.0246 -0.1503 -0.0164
 8079DDP     C148469   3.358  17.537   0.944 -0.2828 -0.1220  0.1351
 8079DDP     P148470   3.714  17.727   0.799 -0.0624 -0.0689 -0.1574
 8079DDP     P248471   3.572  17.154   0.902  0.2903  0.1765 -0.1018
 8079DDP     C248472   3.788  16.871   0.561 -0.0491  0.0137 -0.1136
 8079DDP     C348473   3.673  17.985   0.463  0.0375  0.0744  0.1662
 8079DDP     C448474   3.139  17.556   1.349  0.2360 -0.2747  0.2230
 8080DDP     C148475  21.844  17.770   9.604  0.1862  0.1494  0.0399
 8080DDP     P148476  21.917  17.957   9.194 -0.2221  0.2114 -0.0879
 8080DDP     P248477  21.828  18.132   9.768  0.1629  0.0701 -0.1352
 8080DDP     C248478  22.187  18.374   9.839  0.1688 -0.1450  0.0423
 8080DDP     C348479  21.941  18.311   8.992  0.1741 -0.0781 -0.1234
 8080DDP     C448480  21.649  17.397   9.637  0.1142 -0.0972  0.0844
 8081DDP     C148481  20.385  25.318  29.481 -0.1930 -0.0292  0.2677
 8081DDP     P148482  20.065  25.527  29.479  0.1218  0.0749  0.1741
 8081DDP     P248483  20.513  25.176  29.839  0.0199  0.1241  0.0833
 8081DDP     C248484  20.512  24.771  30.161 -0.1062  0.0148  0.1194
 8081DDP     C348485  19.556  25.634  29.428 -0.1494  0.0570 -0.0278
 8081DDP     C448486  20.683  25.422  29.158 -0.0457 -0.1031 -0.3162
 8082DDP     C148487  11.281  23.259  13.768 -0.0816 -0.1026  0.1295
 8082DDP     P148488  11.695  23.474  13.770  0.0324 -0.2489  0.0425
 8082DDP     P248489  11.258  22.864  13.539 -0.0518  0.2326 -0.0154
 8082DDP     C248490  11.147  22.450  13.702  0.0858 -0.1460  0.1586
 8082DDP     C348491  12.013  23.639  14.087 -0.1599  0.3331  0.0453
 8082DDP     C448492  11.011  23.542  13.870 -0.0632 -0.2040  0.0964
 8083DDP     C148493  14.069  19.327  11.301 -0.2364 -0.3606  0.1128
 8083DDP     P148494  13.727  19.053  11.364 -0.2595 -0.3083 -0.4127
 8083DDP     P248495  14.511  19.218  11.434  0.0438 -0.0378  0.3921
 8083DDP     C248496  14.837  19.150  11.157  0.0367  0.1402 -0.3586
 8083DDP     C348497  13.410  18.930  11.072  0.1903  0.0888 -0.0441
 8083DDP     C448498  14.007  19.620  11.023 -0.0120  0.3502 -0.1619
 8084DDP     C148499  17.658  22.684   3.053  0.0682  0.0224  0.1217
 8084DDP     P148500  17.883  22.398   3.156 -0.1007  0.1147  0.1310
 8084DDP     P248501  17.407  22.580   2.751 -0.1473 -0.0160  0.1019
 8084DDP     C248502  17.407  22.268   2.406 -0.1218 -0.0474  0.2516
 8084DDP     C348503  17.891  21.973   3.353  0.1685  0.0412  0.0466
 8084DDP     C448504  17.471  22.955   3.250  0.1579 -0.0894  0.2396
 8085DDP     C148505   3.884   3.135  29.570  0.0642  0.0407  0.2738
 8085DDP     P148506   3.625   3.405  29.739  0.1693 -0.0431  0.3275
 8085DDP     P248507   3.601   2.947  29.261  0.1467 -0.1913 -0.1019
 8085DDP     C248508   3.309   2.676  29.025 -0.1534  0.0104 -0.3633
 8085DDP     C348509   3.364   3.402  30.071  0.0335  0.0793 -0.2185
 8085DDP     C448510   4.358   3.056  29.655 -0.0238  0.1838  0.1941
 8086DDP     C148511   2.619  23.950  20.556  0.2805  0.0063  0.2696
 8086DDP     P148512   2.834  23.662  20.860  0.0393  0.1340  0.1153
 8086DDP     P248513   2.832  23.918  20.104 -0.1267  0.3595 -0.1181
 8086DDP     C248514   2.686  23.668  19.713  0.0660 -0.0188  0.2984
 8086DDP     C348515   3.207  23.347  20.926  0.3736 -0.0997 -0.2111
 8086DDP     C448516   2.187  24.142  20.576  0.3672  0.1209  0.0860
 8087DDP     C148517   3.110  11.541  18.414 -0.5659  0.1081 -0.1082
 8087DDP     P148518   3.371  11.214  18.400  0.2212  0.1348  0.3294
 8087DDP     P248519   3.170  11.921  18.320 -0.1080 -0.1237  0.0589
 8087DDP     C248520   2.936  12.250  18.516 -0.0500 -0.0242  0.0650
 8087DDP     C348521   3.779  11.120  18.589 -0.2563  0.1322 -0.1039
 8087DDP     C448522   2.845  11.559  18.680  0.2896 -0.3808 -0.1926
 8088DDP     C148523   0.556  24.074   0.090 -0.1869 -0.2642  0.0385
 8088DDP     P148524   0.736  24.290   0.485 -0.1267  0.2230  0.2023
 8088DDP     P248525   0.503  24.395  30.089 -0.0608  0.1142  0.0265
 8088DDP     C248526   0.320  24.757  29.839 -0.1148 -0.2910 -0.1908
 8088DDP     C348527   0.993  24.601   0.481 -0.0693  0.2015 -0.0977
 8088DDP     C448528   0.664  23.572  30.270 -0.0357 -0.1174  0.1153
 8089DDP     C148529  11.075  24.882  17.525  0.1142 -0.2719  0.2000
 8089DDP     P148530  10.674  25.213  17.423  0.2516  0.0283  0.2204
 8089DDP     P248531  11.471  24.931  17.250 -0.1933  0.3356  0.1918
 8089DDP     C248532  11.861  24.987  16.915  0.2631 -0.4632 -0.3959
 8089DDP     C348533  10.515  25.593  17.552  0.1499  0.2041  0.0451
 8089DDP     C448534  11.292  24.500  17.699 -0.0689 -0.2430 -0.4395
 8090DDP     C148535  12.263  23.346  13.255 -0.0466 -0.0569  0.1000
 8090DDP     P148536  11.798  23.430  13.171  0.0323  0.0903  0.0648
 8090DDP     P248537  12.284  23.592  13.645 -0.4746 -0.1254  0.2109
 8090DDP     C248538  12.410  23.927  13.889  0.5329  0.0629 -0.1452
 8090DDP     C348539  11.576  23.439  12.729 -0.0368 -0.1688  0.0869
 8090DDP     C448540  12.607  23.106  13.303  0.1889 -0.1545 -0.2055
 8091DDP     C148541  22.145  10.113  10.320  0.0943  0.2015  0.2340
 8091DDP     P148542  22.171  10.452  10.114  0.2872 -0.1007  0.0188
 8091DDP     P248543  21.845   9.790  10.307  0.0561  0.1961  0.0606
 8091DDP     C248544  21.706   9.309  10.058  0.0286 -0.1252  0.1749
 8091DDP     C348545  22.105  10.742   9.736 -0.1719  0.0081  0.0106
 8091DDP     C448546  22.334  10.167  10.724  0.0416  0.2321 -0.1390
 8092DDP     C148547  30.156  12.151   5.989 -0.4132 -0.2472 -0.2391
 8092DDP     P148548   0.063  12.228   5.626  0.1131 -0.1352  0.0649
 8092DDP     P248549  29.735  12.166   5.845  0.1401 -0.0444 -0.1650
 8092DDP     C248550  29.468  12.127   5.491 -0.1345 -0.0021  0.0542
 8092DDP     C348551  30.199  12.311   5.215 -0.1845 -0.0969 -0.0411
 8092DDP     C448552   0.034  11.987   6.387  0.0350 -0.3009 -0.2109
 8093DDP     C148553   6.354   9.311   2.988 -0.0679  0.1287 -0.0601
 8093DDP     P148554   6.503   9.413   2.596  0.0092  0.1403 -0.2007
 8093DDP     P248555   6.228   9.777   2.994 -0.1356  0.1259 -0.0535
 8093DDP     C248556   5.913  10.146   2.975  0.0295 -0.0218 -0.3347
 8093DDP     C348557   6.459   9.313   2.264 -0.0371 -0.3582 -0.0956
 8093DDP     C448558   6.207   8.894   3.055 -0.2182  0.1803  0.2570
 8094DDP     C148559   2.989  12.448  17.691  0.3159  0.0802 -0.1666
 8094DDP     P148560   3.030  12.831  17.466 -0.0676  0.1806 -0.3112
 8094DDP     P248561   2.639  12.218  17.497 -0.1260  0.2171 -0.0752
 8094DDP     C248562   2.172  12.318  17.386  0.0883  0.2791 -0.0259
 8094DDP     C348563   3.353  13.004  17.281 -0.0285 -0.1894  0.2327
 8094DDP     C448564   3.231  12.253  17.955 -0.3115  0.0486  0.1292
 8095DDP     C148565  12.168   7.140  18.794 -0.0241  0.1589  0.1676
 8095DDP     P148566  12.385   7.406  18.693  0.1949 -0.1853  0.1727
 8095DDP     P248567  12.299   6.787  18.845  0.1161  0.1445 -0.2990
 8095DDP     C248568  12.260   6.381  18.762 -0.0498  0.3363 -0.2151
 8095DDP     C348569  12.599   7.524  18.352  0.2933  0.2177  0.0622
 8095DDP     C448570  11.752   7.202  18.899  0.4949  0.1775 -0.0166
 8096DDP     C148571  16.190  21.174   0.136 -0.1233 -0.1150  0.0331
 8096DDP     P148572  16.170  20.698   0.225  0.0425  0.0086  0.0161
 8096DDP     P248573  16.098  21.410  30.088 -0.3035  0.1162 -0.1900
 8096DDP     C248574  16.137  21.244  29.722  0.1327  0.0500 -0.0077
 8096DDP     C348575  16.149  20.286  30.253  0.3110  0.1558 -0.0451
 8096DDP     C448576  16.298  21.486   0.414 -0.0269  0.1646 -0.0907
 8097DDP     C148577  29.364  25.111   0.574 -0.2745 -0.3518  0.2409
 8097DDP     P148578  29.096  24.816   0.507  0.0176  0.3941 -0.0597
 8097DDP     P248579  29.355  25.390   0.884 -0.1795  0.3286  0.1339
 8097DDP     C248580  29.380  25.602   1.228 -0.2713  0.0935 -0.1568
 8097DDP     C348581  28.771  24.520   0.226  0.2602 -0.0715 -0.1488
 8097DDP     C448582  29.815  25.104   0.292  0.2352 -0.0421 -0.1079
 8098DDP     C148583  21.643   6.379  24.895 -0.1438  0.0384  0.0014
 8098DDP     P148584  21.717   6.048  24.997  0.0536 -0.0315  0.3730
 8098DDP     P248585  21.270   6.508  24.817  0.4629 -0.0257  0.2201
 8098DDP     C248586  20.839   6.605  24.879  0.1336  0.1135 -0.1145
 8098DDP     C348587  21.586   5.725  25.191 -0.2137  0.2136 -0.0455
 8098DDP     C448588  21.746   6.816  25.034  0.2025 -0.1914  0.1298
 8099DDP     C148589  25.559  21.905  29.711  0.0968  0.0566  0.2242
 8099DDP     P148590  25.689  22.185  29.443  0.1117  0.2088 -0.1572
 8099DDP     P248591  25.534  21.975  30.121  0.0565 -0.0774 -0.1395
 8099DDP     C248592  25.671  21.986   0.301  0.1917 -0.0281  0.3884
 8099DDP     C348593  25.537  22.494  29.426  0.1114 -0.0043  0.0350
 8099DDP     C448594  25.433  21.517  29.597 -0.2299  0.3485  0.2360
 8100DDP     C148595  19.576  20.875  24.010  0.0002 -0.0500 -0.1929
 8100DDP     P148596  19.596  21.279  23.878  0.1101  0.1568 -0.0178
 8100DDP     P248597  19.357  20.641  23.918  0.2782 -0.1048 -0.0411
 8100DDP     C248598  19.212  20.195  23.724 -0.1496  0.1878  0.0391
 8100DDP     C348599  19.835  21.522  23.639 -0.1342 -0.1606 -0.0049
 8100DDP     C448600  19.997  20.675  24.198  0.1804  0.1428  0.1710
 8101DDP     C148601  27.272   2.817   3.007 -0.0643 -0.2461  0.0113
 8101DDP     P148602  27.564   2.923   2.769 -0.0612  0.1984 -0.2402
 8101DDP     P248603  26.913   2.903   2.764  0.3051  0.3419 -0.0232
 8101DDP     C248604  26.750   2.858   2.344  0.1630 -0.0006  0.0587
 8101DDP     C348605  27.819   2.914   2.340 -0.0606  0.1736  0.0669
 8101DDP     C448606  27.351   2.673   3.416 -0.3054 -0.1558 -0.0314
 8102DDP     C148607  19.103   2.023   4.720  0.0536  0.0857  0.1124
 8102DDP     P148608  19.358   2.342   4.552  0.2711 -0.2226 -0.1091
 8102DDP     P248609  18.645   1.969   4.653  0.0286  0.0588  0.0892
 8102DDP     C248610  18.471   1.856   4.263 -0.0423  0.3728  0.4446
 8102DDP     C348611  19.722   2.611   4.493  0.1209  0.0836 -0.0861
 8102DDP     C448612  19.390   1.712   4.894  0.2134  0.2252 -0.2474
 8103DDP     C148613  25.504  24.270  24.458  0.0720  0.0673 -0.1696
 8103DDP     P148614  25.441  24.355  24.018  0.3544 -0.1325 -0.1703
 8103DDP     P248615  26.024  24.452  24.625 -0.0917 -0.2018  0.0523
 8103DDP     C248616  26.320  24.439  24.985  0.3347  0.0196 -0.1863
 8103DDP     C348617  25.591  24.390  23.571 -0.0933 -0.0401 -0.2191
 8103DDP     C448618  25.179  24.138  24.755 -0.4272  0.1745 -0.2062
 8104DDP     C148619  20.470  21.217   0.814  0.2309  0.0815  0.0280
 8104DDP     P148620  20.574  21.000   1.195  0.0291  0.3264  0.1857
 8104DDP     P248621  20.650  21.094   0.408  0.4134 -0.2793  0.0503
 8104DDP     C248622  21.116  21.176   0.413 -0.0453  0.1846 -0.0284
 8104DDP     C348623  20.685  20.639   1.383  0.3618  0.1436  0.2970
 8104DDP     C448624  20.290  21.657   0.973  0.0705 -0.0140  0.0803
 8105DDP     C148625  25.174  13.259   1.855 -0.0910  0.1752 -0.1087
 8105DDP     P148626  25.624  13.135   1.627 -0.0081 -0.2471  0.2270
 8105DDP     P248627  25.248  13.036   2.187  0.2044 -0.1347  0.1994
 8105DDP     C248628  25.391  13.006   2.517  0.0667 -0.2851 -0.0643
 8105DDP     C348629  25.768  13.035   1.164  0.0190  0.1309 -0.2010
 8105DDP     C448630  24.738  13.402   1.875  0.0559  0.0808  0.2713
 8106DDP     C148631  17.901   4.238   2.189 -0.3391 -0.2432 -0.0492
 8106DDP     P148632  18.209   4.544   2.336  0.0597  0.0975  0.0189
 8106DDP     P248633  17.948   3.824   2.457  0.0573  0.2588  0.1532
 8106DDP     C248634  17.901   3.430   2.625 -0.2905  0.3276 -0.1304
 8106DDP     C348635  18.627   4.832   2.228 -0.0771  0.0056 -0.1644
 8106DDP     C448636  17.824   4.389   1.783 -0.0370 -0.1394 -0.0529
 8107DDP     C148637   5.401   8.855  26.625 -0.0417  0.0998 -0.2654
 8107DDP     P148638   5.175   9.006  26.154 -0.0793 -0.2118 -0.1916
 8107DDP     P248639   5.308   8.500  26.802 -0.4137 -0.0779 -0.3971
 8107DDP     C248640   5.297   8.049  27.066  0.2727 -0.0571  0.0519
 8107DDP     C348641   5.302   8.915  25.698  0.3557 -0.0254 -0.1062
 8107DDP     C448642   5.441   9.193  26.917 -0.2041  0.0933  0.0762
 8108DDP     C148643  22.417   6.886   7.680  0.2301  0.0199  0.0887
 8108DDP     P148644  22.676   6.507   7.706  0.2615  0.0490 -0.1180
 8108DDP     P248645  22.080   6.756   7.867  0.0414  0.0079  0.0358
 8108DDP     C248646  21.626   6.869   7.897  0.1249 -0.0934 -0.0046
 8108DDP     C348647  22.931   6.281   7.964 -0.1849  0.0386  0.0623
 8108DDP     C448648  22.740   7.190   7.696  0.0959  0.1921  0.0186
 8109DDP     C148649  17.922  13.350  30.105  0.0881  0.2052 -0.2721
 8109DDP     P148650  17.922  13.833  30.055 -0.1482  0.1828 -0.0075
 8109DDP     P248651  18.023  13.270   0.249  0.3355 -0.0604  0.0908
 8109DDP     C248652  18.312  13.177   0.519  0.0519 -0.0331 -0.2609
 8109DDP     C348653  17.965  14.090   0.138 -0.0198  0.1389  0.0096
 8109DDP     C448654  18.141  13.061  29.824 -0.2464  0.0422  0.2026
 8110DDP     C148655  29.209   1.052  14.020  0.3267  0.1529 -0.0875
 8110DDP     P148656  29.248   0.640  14.170  0.4121  0.1956  0.1978
 8110DDP     P248657  29.438   0.894  13.732 -0.1477 -0.0458 -0.1106
 8110DDP     C248658  29.854   1.052  13.561 -0.0683 -0.0689 -0.2582
 8110DDP     C348659  29.295   0.510  14.592  0.1632  0.1890 -0.1190
 8110DDP     C448660  29.059   1.477  14.139 -0.0701 -0.2238 -0.0441
 8111DDP     C148661  15.897  18.806  29.752 -0.1478 -0.1747 -0.0061
 8111DDP     P148662  15.451  18.838  29.614 -0.1669 -0.0634 -0.3538
 8111DDP     P248663  15.678  18.907  30.054  0.0146  0.1891  0.3036
 8111DDP     C248664  15.244  18.831  30.136 -0.2649  0.1450  0.1382
 8111DDP     C348665  15.266  19.196  29.394  0.1886 -0.0467  0.2256
 8111DDP     C448666  16.283  18.582  29.475 -0.0507  0.0378 -0.1618
 8112DDP     C148667  11.926  29.535   7.771  0.1748  0.3213 -0.1095
 8112DDP     P148668  12.005  29.237   8.109  0.0344  0.2264  0.1899
 8112DDP     P248669  12.265  29.608   7.609 -0.2849 -0.1833  0.1756
 8112DDP     C248670  12.625  29.577   7.281 -0.0482  0.4093  0.1404
 8112DDP     C348671  12.276  28.896   8.211  0.1652 -0.0712 -0.3547
 8112DDP     C448672  11.682  29.888   7.520 -0.2914  0.0156  0.1257
 8113DDP     C148673  23.843  25.145   4.925  0.1110  0.0737  0.0701
 8113DDP     P148674  23.473  25.040   5.261  0.0854  0.0314 -0.0845
 8113DDP     P248675  23.863  25.576   5.033 -0.1296  0.2166 -0.2452
 8113DDP     C248676  23.707  25.981   5.012 -0.0689  0.0023  0.0910
 8113DDP     C348677  23.204  24.753   5.381  0.3339 -0.2216 -0.2505
 8113DDP     C448678  23.882  24.896   4.556 -0.0010 -0.2237  0.3545
 8114DDP     C148679  19.461   2.459  18.755 -0.1395 -0.0048 -0.0748
 8114DDP     P148680  19.137   2.593  18.941 -0.1170  0.0214 -0.2665
 8114DDP     P248681  19.590   2.875  18.616 -0.0664  0.2811 -0.0436
 8114DDP     C248682  20.010   3.015  18.441  0.1678  0.0276 -0.2270
 8114DDP     C348683  19.122   2.633  19.380 -0.0621 -0.2461 -0.2125
 8114DDP     C448684  19.452   2.130  18.341 -0.1401 -0.1777 -0.4686
 8115DDP     C148685   4.972  11.725   4.196  0.1374  0.0363 -0.4139
 8115DDP     P148686   5.011  11.426   4.425 -0.2424 -0.1442 -0.0413
 8115DDP     P248687   5.000  11.670   3.860 -0.1117 -0.0004  0.2213
 8115DDP     C248688   5.140  11.732   3.515 -0.0312 -0.0626 -0.0624
 8115DDP     C348689   5.049  11.039   4.489  0.1056 -0.0878  0.0433
 8115DDP     C448690   4.872  12.103   4.351  0.0286 -0.2785 -0.2194
 8116DDP     C148691  12.493  21.591  14.155  0.0214  0.1361 -0.1298
 8116DDP     P148692  12.304  21.968  14.012 -0.0515  0.1342  0.0328
 8116DDP     P248693  12.284  21.807  14.542 -0.0068 -0.1628  0.1350
 8116DDP     C248694  11.849  21.748  14.705 -0.0037 -0.0082 -0.0928
 8116DDP     C348695  12.121  22.263  13.677 -0.0084 -0.3063 -0.1132
 8116DDP     C448696  12.883  21.467  14.071  0.0083 -0.1150 -0.0087
 8117DDP     C148697  25.697   5.006   9.716  0.4052 -0.1490  0.0237
 8117DDP     P148698  26.071   4.659   9.640  0.0666  0.4141 -0.1752
 8117DDP     P248699  25.375   4.833   9.567  0.0712  0.1498 -0.0721
 8117DDP     C248700  25.118   4.524   9.593  0.1518 -0.0507 -0.0507
 8117DDP     C348701  26.349   4.230   9.633  0.1422 -0.0028  0.0328
 8117DDP     C448702  25.745   5.417   9.987 -0.1975  0.1966 -0.0066
 8118DDP     C148703   4.507  14.697   5.702  0.0224  0.1467  0.0007
 8118DDP     P148704   4.362  15.091   5.538  0.1871  0.1481 -0.1118
 8118DDP     P248705   4.147  14.457   5.738  0.0428  0.1358 -0.0056
 8118DDP     C248706   3.622  14.239   5.687  0.1026 -0.3629  0.0283
 8118DDP     C348707   3.977  15.163   5.340  0.2139 -0.1542  0.3783
 8118DDP     C448708   4.849  14.463   5.797 -0.0529  0.2949  0.1639
 8119DDP     C148709  24.193  28.555  15.301 -0.1069  0.0498 -0.1532
 8119DDP     P148710  24.123  28.106  15.182  0.0631  0.3007  0.1647
 8119DDP     P248711  24.117  28.918  15.046  0.0910  0.1182 -0.2336
 8119DDP     C248712  24.007  29.201  14.721 -0.0119  0.0308  0.1838
 8119DDP     C348713  23.768  27.888  15.036  0.0287  0.0732 -0.1850
 8119DDP     C448714  24.419  28.688  15.721  0.0953 -0.1138 -0.0733
 8120DDP     C148715   8.631  12.896  21.012  0.0015  0.0496  0.1111
 8120DDP     P148716   8.767  12.514  20.944  0.1538  0.2135 -0.2073
 8120DDP     P248717   8.155  13.038  21.118  0.0765 -0.0420  0.2384
 8120DDP     C248718   7.944  12.648  21.132 -0.1588  0.1277  0.1872
 8120DDP     C348719   8.706  12.061  20.829  0.0727 -0.3889  0.3881
 8120DDP     C448720   8.854  13.307  21.234  0.1186  0.0405  0.0296
 8121DDP     C148721   3.664  14.562  23.938  0.4418  0.1069 -0.0210
 8121DDP     P148722   4.130  14.597  23.853  0.1336  0.2165 -0.0433
 8121DDP     P248723   3.296  14.348  23.739 -0.0633 -0.2199 -0.1353
 8121DDP     C248724   2.904  14.470  23.590 -0.1979  0.0990 -0.1409
 8121DDP     C348725   4.434  14.951  23.949 -0.0630 -0.4681  0.1531
 8121DDP     C448726   3.668  14.763  24.321  0.0718 -0.1978 -0.0634
 8122DDP     C148727   1.759  14.892  24.804  0.2757 -0.0616  0.0610
 8122DDP     P148728   1.599  15.329  24.763 -0.0865  0.1595  0.3243
 8122DDP     P248729   1.579  14.545  24.489  0.0161  0.0766 -0.0511
 8122DDP     C248730   1.337  14.169  24.421 -0.1014 -0.0124 -0.0365
 8122DDP     C348731   1.484  15.648  25.012 -0.4004 -0.1802 -0.2132
 8122DDP     C448732   2.038  14.928  25.190  0.1360 -0.2126  0.1622
 8123DDP     C148733  15.112  14.349  24.792  0.0394  0.0801  0.2673
 8123DDP     P148734  15.329  13.891  24.847 -0.0307  0.2593  0.1039
 8123DDP     P248735  14.991  14.688  25.128  0.2705  0.1185 -0.2334
 8123DDP     C248736  15.018  14.825  25.568 -0.0741 -0.1274  0.1573
 8123DDP     C348737  15.355  13.804  25.352 -0.0661  0.1290  0.1233
 8123DDP     C448738  15.046  14.494  24.286  0.2509 -0.0100 -0.2088
 8124DDP     C148739  18.919  19.772   1.968 -0.2129  0.1313 -0.0127
 8124DDP     P148740  18.704  19.980   2.247  0.0777 -0.0310 -0.3433
 8124DDP     P248741  19.122  19.488   2.002 -0.1307  0.0992 -0.1816
 8124DDP     C248742  19.359  19.451   1.658  0.2588  0.3007  0.3378
 8124DDP     C348743  18.784  20.050   2.696 -0.0202  0.0082 -0.0066
 8124DDP     C448744  19.039  19.915   1.491 -0.0951 -0.2356 -0.0157
 8125DDP     C148745   2.009  17.506  18.105  0.0003  0.2337  0.0028
 8125DDP     P148746   1.967  17.903  18.265  0.3486  0.3764 -0.2960
 8125DDP     P248747   1.647  17.271  18.298  0.4740 -0.0662 -0.0683
 8125DDP     C248748   1.244  17.084  18.120 -0.1441 -0.0348  0.1288
 8125DDP     C348749   2.167  18.243  18.529 -0.1737 -0.1040  0.1595
 8125DDP     C448750   2.342  17.526  17.855 -0.2133  0.1472 -0.0990
 8126DDP     C148751  27.779  20.140  20.275  0.0611  0.2297  0.3832
 8126DDP     P148752  27.563  20.046  19.928 -0.0840  0.1551 -0.0157
 8126DDP     P248753  27.775  19.830  20.687 -0.0932 -0.0598  0.0094
 8126DDP     C248754  27.281  19.689  20.731  0.1506  0.3332 -0.3541
 8126DDP     C348755  27.192  20.006  19.803 -0.1240 -0.1780 -0.0427
 8126DDP     C448756  28.199  20.348  20.194 -0.1832 -0.3499 -0.4281
 8127DDP     C148757  20.893  18.188   3.859 -0.0548 -0.1723  0.0369
 8127DDP     P148758  21.091  18.323   4.165  0.0197  0.1936 -0.0816
 8127DDP     P248759  21.231  18.429   3.596  0.0129  0.1908  0.0320
 8127DDP     C248760  21.569  18.534   3.611 -0.0249 -0.1267 -0.2162
 8127DDP     C348761  21.391  18.737   4.156 -0.0584 -0.0351 -0.0667
 8127DDP     C448762  20.754  17.735   3.853  0.1416  0.1048 -0.1081
 8128DDP     C148763  20.480  24.147  12.023 -0.3109  0.0749  0.2324
 8128DDP     P148764  20.966  24.041  11.958  0.2178 -0.0102  0.0412
 8128DDP     P248765  20.344  23.829  11.672  0.2054 -0.5315 -0.1401
 8128DDP     C248766  20.039  23.598  11.434 -0.4062 -0.1740 -0.1710
 8128DDP     C348767  21.360  23.942  11.681  0.0533 -0.1067  0.1882
 8128DDP     C448768  20.281  24.514  11.964 -0.1960 -0.1608  0.0174
 8129DDP     C148769  11.946  15.113  22.211  0.2237  0.1403  0.3827
 8129DDP     P148770  11.710  15.564  22.099  0.2064  0.1986 -0.1791
 8129DDP     P248771  11.808  14.780  21.965  0.0136  0.0674 -0.0495
 8129DDP     C248772  11.710  14.617  21.667  0.0952  0.0298 -0.0674
 8129DDP     C348773  11.495  15.962  22.018 -0.1314 -0.1369 -0.0543
 8129DDP     C448774  12.187  15.186  22.565  0.0826 -0.2941  0.0798
 8130DDP     C148775  26.799  11.090  10.376  0.0058 -0.3257  0.3486
 8130DDP     P148776  26.944  11.489  10.400 -0.2216 -0.0418  0.0409
 8130DDP     P248777  27.063  10.728  10.408  0.2639  0.0223  0.1020
 8130DDP     C248778  27.109  10.356  10.395  0.2244 -0.0926 -0.4417
 8130DDP     C348779  26.855  11.903  10.590  0.0462  0.2445  0.1531
 8130DDP     C448780  26.390  11.085  10.409 -0.0431 -0.1443  0.1700
 8131DDP     C148781  29.396  13.953  14.185  0.1901  0.2523  0.1936
 8131DDP     P148782  29.038  14.100  14.394  0.3562 -0.1104  0.3259
 8131DDP     P248783  29.228  14.146  13.809  0.0736 -0.1012 -0.2835
 8131DDP     C248784  29.540  14.090  13.375 -0.0299  0.2118 -0.0799
 8131DDP     C348785  28.886  14.531  14.637  0.3588  0.1869 -0.0881
 8131DDP     C448786  29.527  13.561  14.496 -0.1559  0.1123  0.1865
 8132DDP     C148787  28.535  18.370  27.910  0.0393  0.2632 -0.0846
 8132DDP     P148788  28.254  18.513  27.704 -0.1761 -0.1695  0.4621
 8132DDP     P248789  28.563  18.509  28.336  0.1228  0.1409 -0.0952
 8132DDP     C248790  28.324  18.301  28.712  0.0529  0.2592 -0.1875
 8132DDP     C348791  28.054  18.528  27.363 -0.1749  0.2347 -0.0992
 8132DDP     C448792  28.923  18.213  27.705 -0.4738  0.1708  0.3448
 8133DDP     C148793   2.360  17.504  25.841  0.1129  0.2775 -0.2026
 8133DDP     P148794   2.252  17.860  26.104 -0.1361 -0.1565 -0.1820
 8133DDP     P248795   2.116  17.113  25.947 -0.2768  0.0223 -0.0552
 8133DDP     C248796   1.896  16.800  26.170 -0.2357  0.2591 -0.1356
 8133DDP     C348797   1.826  17.994  26.253  0.2248 -0.0581 -0.3480
 8133DDP     C448798   2.585  17.607  25.532 -0.1380 -0.1897 -0.2290
 8134DDP     C148799  28.310  14.333  11.704  0.3676  0.2471 -0.0815
 8134DDP     P148800  28.679  14.200  11.860  0.0341  0.1684 -0.1707
 8134DDP     P248801  28.279  14.349  11.233  0.0499  0.2866 -0.1076
 8134DDP     C248802  28.029  14.291  10.865  0.1142 -0.1339 -0.1288
 8134DDP     C348803  29.097  14.324  11.795  0.2912  0.2386  0.3601
 8134DDP     C448804  28.334  14.802  11.901  0.2141  0.0632 -0.1253
 8135DDP     C148805   2.651  22.203  11.501  0.1813  0.0291 -0.3658
 8135DDP     P148806   2.247  22.268  11.567  0.0549  0.0483 -0.0829
 8135DDP     P248807   2.992  22.479  11.305 -0.2195  0.1142 -0.1054
 8135DDP     C248808   3.320  22.789  11.257  0.0041  0.0437  0.3367
 8135DDP     C348809   1.897  22.435  11.385  0.1742  0.2587  0.2589
 8135DDP     C448810   2.733  21.939  11.854  0.0922  0.0892 -0.0950
 8136DDP     C148811   4.612   6.958   6.529 -0.0491 -0.0794 -0.1099
 8136DDP     P148812   4.396   6.638   6.193 -0.2291  0.0776 -0.0236
 8136DDP     P248813   4.401   7.352   6.447  0.3460 -0.4775  0.0217
 8136DDP     C248814   4.233   7.793   6.393 -0.0994 -0.2123  0.2625
 8136DDP     C348815   4.382   6.681   5.812 -0.0376 -0.1236 -0.1224
 8136DDP     C448816   5.056   6.973   6.674  0.0029 -0.1202  0.2682
 8137DDP     C148817   6.431  14.767  16.951 -0.0205  0.0813  0.0511
 8137DDP     P148818   6.274  14.602  16.626 -0.0929 -0.0029 -0.2423
 8137DDP     P248819   6.950  14.787  16.994  0.1844  0.0387 -0.0700
 8137DDP     C248820   7.383  14.858  17.132  0.0605  0.0038  0.0208
 8137DDP     C348821   6.220  14.254  16.295 -0.2107  0.1782  0.1070
 8137DDP     C448822   6.249  14.968  17.282  0.0142 -0.0637  0.2047
 8138DDP     C148823  20.073  23.109   5.941 -0.0016  0.1096  0.2007
 8138DDP     P148824  20.113  23.216   6.392  0.0389  0.2286 -0.0721
 8138DDP     P248825  20.375  23.226   5.826  0.1761  0.1621 -0.0267
 8138DDP     C248826  20.629  22.990   5.460 -0.0979  0.2937 -0.0656
 8138DDP     C348827  19.718  23.464   6.544  0.1559 -0.1680  0.3169
 8138DDP     C448828  19.752  23.155   5.719  0.1825 -0.0829  0.3688
 8139DDP     C148829  12.625   0.873  20.230  0.2002  0.4053 -0.1186
 8139DDP     P148830  12.954   1.087  20.433  0.1323 -0.0816  0.0668
 8139DDP     P248831  12.711   0.562  19.931  0.1321 -0.0965  0.0471
 8139DDP     C248832  13.066   0.270  19.658  0.1129 -0.0580 -0.0711
 8139DDP     C348833  13.236   1.191  20.822  0.1585 -0.1294  0.1624
 8139DDP     C448834  12.117   0.887  20.208 -0.0108  0.0331  0.0014
 8140DDP     C148835  11.161  22.548   7.020  0.1720 -0.2045  0.1343
 8140DDP     P148836  10.786  22.640   7.241  0.0857 -0.1904  0.0928
 8140DDP     P248837  11.289  22.249   7.334 -0.0578 -0.1695 -0.0676
 8140DDP     C248838  11.508  22.085   7.660 -0.1649  0.1179  0.4382
 8140DDP     C348839  10.446  22.791   7.448  0.2574  0.0174 -0.4317
 8140DDP     C448840  11.331  22.772   6.694  0.0354  0.0358 -0.4085
 8141DDP     C148841  23.764   6.659  20.473  0.3124 -0.0037  0.0109
 8141DDP     P148842  23.881   7.095  20.463 -0.0758  0.0643 -0.0378
 8141DDP     P248843  23.545   6.463  20.022  0.0091 -0.0789 -0.1877
 8141DDP     C248844  23.505   6.104  19.792 -0.1805 -0.0529  0.3674
 8141DDP     C348845  24.256   7.378  20.428  0.0473  0.1805 -0.2589
 8141DDP     C448846  23.792   6.379  20.759  0.0019  0.1586 -0.3094
 8142DDP     C148847   3.435  12.004  15.125  0.2294 -0.1897  0.2080
 8142DDP     P148848   3.355  12.364  14.936  0.0510  0.0528  0.0403
 8142DDP     P248849   3.831  11.760  15.061 -0.0891 -0.1935 -0.2290
 8142DDP     C248850   3.990  11.451  15.412 -0.3511  0.0157 -0.1609
 8142DDP     C348851   3.297  12.609  14.610  0.1832  0.1401  0.2458
 8142DDP     C448852   3.008  11.815  15.279 -0.0379  0.5125 -0.2297
 8143DDP     C148853   8.814  16.490  24.159  0.2265 -0.0882  0.0305
 8143DDP     P148854   8.922  16.240  23.854 -0.0211  0.1784 -0.2002
 8143DDP     P248855   8.494  16.270  24.332 -0.0458 -0.0850 -0.0135
 8143DDP     C248856   8.292  15.926  24.533 -0.1715 -0.1848 -0.0563
 8143DDP     C348857   9.315  16.307  23.668 -0.3686 -0.2295  0.0260
 8143DDP     C448858   8.951  16.937  24.235 -0.1114  0.2677  0.2186
 8144DDP     C148859   3.199   3.548  15.609 -0.0636 -0.0709  0.4629
 8144DDP     P148860   2.929   3.720  15.247  0.1043 -0.4463  0.0280
 8144DDP     P248861   3.559   3.866  15.748  0.1004  0.0663  0.0374
 8144DDP     C248862   3.623   4.253  15.595  0.0627 -0.1284  0.1045
 8144DDP     C348863   2.850   4.070  14.978  0.0735  0.2670 -0.2425
 8144DDP     C448864   3.152   3.103  15.555 -0.0275 -0.0384 -0.1155
 8145DDP     C148865  18.283  26.526   2.605 -0.3401 -0.1437 -0.1018
 8145DDP     P148866  18.836  26.471   2.666 -0.3625 -0.1107 -0.2458
 8145DDP     P248867  18.107  26.170   2.724  0.2549  0.2690  0.2581
 8145DDP     C248868  17.713  25.918   2.566  0.3429  0.1430  0.3667
 8145DDP     C348869  19.226  26.440   2.941 -0.2752  0.1659  0.0525
 8145DDP     C448870  17.982  26.826   2.761  0.4271  0.1572 -0.0421
 8146DDP     C148871  12.198   3.583  11.398  0.4155 -0.0077 -0.0704
 8146DDP     P148872  12.104   3.276  11.706  0.0171  0.1218  0.1831
 8146DDP     P248873  12.412   3.510  11.102  0.0855 -0.3174  0.0281
 8146DDP     C248874  12.744   3.529  10.672  0.3149 -0.0863  0.0141
 8146DDP     C348875  12.260   3.339  12.103 -0.0475 -0.0011 -0.1007
 8146DDP     C448876  11.856   3.936  11.416  0.2205 -0.3158 -0.1728
 8147DDP     C148877  19.225  17.500   0.575 -0.0478 -0.1069  0.0247
 8147DDP     P148878  19.388  17.760   0.224  0.2007 -0.1496  0.1314
 8147DDP     P248879  19.276  17.150   0.922  0.0668  0.1611 -0.0314
 8147DDP     C248880  19.105  17.104   1.358  0.0461 -0.0913 -0.1722
 8147DDP     C348881  19.390  18.191   0.029 -0.0574  0.3133 -0.2691
 8147DDP     C448882  18.899  17.432   0.531  0.0079 -0.1159  0.0720
 8148DDP     C148883  11.380   7.712  16.952  0.1441  0.0346 -0.2251
 8148DDP     P148884  11.395   8.129  16.991 -0.0922 -0.0537  0.2815
 8148DDP     P248885  11.050   7.696  16.749 -0.0944  0.0368 -0.0514
 8148DDP     C248886  10.819   7.881  16.328  0.2047 -0.1725 -0.4257
 8148DDP     C348887  11.098   8.530  17.127 -0.0231  0.0386 -0.0567
 8148DDP     C448888  11.355   7.403  17.210 -0.1265  0.2358  0.1456
 8149DDP     C148889  10.830  19.499  14.259 -0.4262  0.0138  0.0667
 8149DDP     P148890  11.111  19.304  13.933 -0.2171  0.3914  0.0150
 8149DDP     P248891  11.246  19.798  14.339  0.0088 -0.2722  0.0557
 8149DDP     C248892  11.573  20.127  14.186 -0.3700 -0.1082 -0.0170
 8149DDP     C348893  11.094  18.938  13.720  0.2330 -0.1618 -0.1768
 8149DDP     C448894  10.452  19.590  14.275 -0.0394  0.1435 -0.3120
 8150DDP     C148895   0.486  17.950  28.044  0.0180 -0.1577 -0.1557
 8150DDP     P148896   0.511  17.909  28.487  0.2545  0.1753  0.0815
 8150DDP     P248897   0.915  18.141  27.884  0.1127 -0.0125 -0.0143
 8150DDP     C248898   0.985  18.614  27.770 -0.1282 -0.3941 -0.0367
 8150DDP     C348899   0.454  17.491  28.638 -0.0677 -0.2329 -0.1768
 8150DDP     C448900   0.105  18.055  27.898 -0.0833 -0.0606 -0.1012
 8151DDP     C148901  28.717  14.838  14.006  0.2297  0.2756  0.2977
 8151DDP     P148902  28.746  14.501  13.693 -0.0589  0.0312  0.0970
 8151DDP     P248903  28.592  15.168  13.742  0.1431 -0.0237 -0.1474
 8151DDP     C248904  28.471  15.483  13.532  0.0210 -0.0636 -0.0937
 8151DDP     C348905  29.219  14.528  13.471 -0.2245 -0.2952  0.1711
 8151DDP     C448906  28.867  15.030  14.369  0.3841  0.2903  0.2390
 8152DDP     C148907  11.656   2.717  28.149 -0.1360  0.0549 -0.1679
 8152DDP     P148908  11.583   2.532  27.715  0.1705  0.1438 -0.0913
 8152DDP     P248909  11.332   2.613  28.346 -0.0979  0.3030 -0.0517
 8152DDP     C248910  11.026   2.241  28.216  0.2266  0.1135 -0.2922
 8152DDP     C348911  11.369   2.537  27.424  0.1235 -0.0589 -0.0368
 8152DDP     C448912  12.022   3.025  28.293  0.0572  0.0423 -0.0189
 8153DDP     C148913  15.760  13.402   4.734  0.0805  0.0713  0.3822
 8153DDP     P148914  15.443  13.512   4.996 -0.0855  0.0803 -0.0115
 8153DDP     P248915  15.839  12.908   4.461  0.2879 -0.1168  0.0317
 8153DDP     C248916  15.578  12.593   4.479 -0.2243  0.0465 -0.0305
 8153DDP     C348917  14.959  13.484   5.135  0.2331 -0.0451  0.1862
 8153DDP     C448918  15.926  13.758   4.539  0.4228 -0.0122  0.1678
 8154DDP     C148919  13.479  18.166   5.022 -0.1474 -0.0657  0.0489
 8154DDP     P148920  13.267  18.040   4.625 -0.0664 -0.1928  0.4309
 8154DDP     P248921  13.272  18.567   5.142  0.0673  0.0756  0.0419
 8154DDP     C248922  13.097  18.889   5.308  0.3108 -0.0817  0.3896
 8154DDP     C348923  13.118  18.336   4.233  0.0862 -0.1207  0.0616
 8154DDP     C448924  13.791  17.926   5.291 -0.0706 -0.0266  0.2109
 8155DDP     C148925  10.622  22.490  21.976 -0.1320  0.1985 -0.0083
 8155DDP     P148926  11.089  22.527  21.858  0.3101 -0.2472  0.1517
 8155DDP     P248927  10.300  22.646  21.758  0.2117  0.2364 -0.2799
 8155DDP     C248928   9.880  22.594  21.799  0.0717  0.0338 -0.0929
 8155DDP     C348929  11.452  22.605  21.695  0.1721 -0.0382  0.3534
 8155DDP     C448930  10.560  22.420  22.384 -0.2050  0.0595  0.3401
 8156DDP     C148931  21.534  11.925  28.741 -0.2868  0.1137 -0.3153
 8156DDP     P148932  21.298  12.342  28.788  0.0441  0.3454 -0.2924
 8156DDP     P248933  21.920  12.097  28.884 -0.0442 -0.2081 -0.1579
 8156DDP     C248934  22.177  12.396  28.728 -0.2320  0.2080 -0.2765
 8156DDP     C348935  21.235  12.482  29.188 -0.1653  0.1788  0.2186
 8156DDP     C448936  21.465  11.512  28.881 -0.1239  0.4077  0.0975
 8157DDP     C148937  12.929  16.897   0.347  0.1187 -0.1806 -0.2680
 8157DDP     P148938  13.273  17.193   0.161 -0.1795  0.0694  0.2124
 8157DDP     P248939  12.742  16.399   0.381  0.1037 -0.1801  0.0609
 8157DDP     C248940  12.413  16.070   0.662  0.1775 -0.0936 -0.1941
 8157DDP     C348941  13.696  17.259   0.022 -0.1951 -0.2390 -0.0410
 8157DDP     C448942  12.684  17.052   0.689  0.1540  0.0428 -0.1250
 8158DDP     C148943  23.535  28.381  23.317  0.3148 -0.2400 -0.1124
 8158DDP     P148944  23.683  28.644  23.058 -0.0905 -0.0155  0.2751
 8158DDP     P248945  23.906  28.266  23.465  0.1036  0.1344 -0.1325
 8158DDP     C248946  24.060  27.821  23.355 -0.2290 -0.2434  0.1359
 8158DDP     C348947  23.423  29.058  22.956  0.0316  0.2331 -0.3691
 8158DDP     C448948  23.144  28.211  23.444  0.2173  0.0935  0.0198
 8159DDP     C148949  22.462   8.424  21.496 -0.0790 -0.0373 -0.0881
 8159DDP     P148950  22.391   8.708  21.173 -0.0476  0.0356  0.1016
 8159DDP     P248951  22.569   7.957  21.475  0.0278 -0.1745 -0.0335
 8159DDP     C248952  22.566   7.530  21.439  0.2170 -0.1091  0.0314
 8159DDP     C348953  22.341   9.107  20.952  0.2309  0.0656 -0.0161
 8159DDP     C448954  22.237   8.580  21.885  0.1393 -0.1697  0.1471
 8160DDP     C148955  12.105  10.248  18.333 -0.2930  0.2104 -0.4629
 8160DDP     P148956  11.786   9.898  18.483  0.0467  0.2805 -0.1219
 8160DDP     P248957  12.520  10.167  18.175 -0.3197 -0.2039 -0.2766
 8160DDP     C248958  12.988  10.206  17.960 -0.1112  0.0857  0.1263
 8160DDP     C348959  11.338   9.691  18.500  0.0748 -0.0835  0.0568
 8160DDP     C448960  11.991  10.613  18.402  0.0133  0.0177  0.1100
 8161DDP     C148961  23.019   5.686   5.010 -0.0084  0.2091  0.2310
 8161DDP     P148962  23.111   5.609   4.536 -0.2383  0.1936  0.0388
 8161DDP     P248963  23.281   5.321   5.237 -0.1092 -0.1299  0.1044
 8161DDP     C248964  23.316   4.964   5.491  0.1151 -0.2394  0.1429
 8161DDP     C348965  23.333   5.406   4.256 -0.1238  0.2564  0.0843
 8161DDP     C448966  22.837   6.116   5.090  0.0556  0.1951  0.1111
 8162DDP     C148967  25.975   5.191  21.275 -0.0594  0.1476 -0.0112
 8162DDP     P148968  26.263   4.983  21.588  0.2427 -0.2526 -0.0753
 8162DDP     P248969  25.493   5.190  21.393  0.0830  0.1224  0.1744
 8162DDP     C248970  25.278   4.957  21.586  0.1399  0.3037 -0.1327
 8162DDP     C348971  26.348   4.954  22.007  0.0492 -0.0413 -0.1388
 8162DDP     C448972  25.970   5.509  20.915  0.1354  0.0298 -0.2772
 8163DDP     C148973  14.798   6.090  15.698  0.0531  0.1795 -0.0306
 8163DDP     P148974  14.488   6.182  16.045 -0.1256 -0.2959 -0.0852
 8163DDP     P248975  14.943   6.214  15.340  0.1516  0.2252  0.0575
 8163DDP     C248976  14.845   6.016  14.871  0.0127  0.0270  0.2038
 8163DDP     C348977  14.377   6.258  16.495 -0.0102  0.2874 -0.0533
 8163DDP     C448978  14.984   5.730  15.916 -0.2206 -0.0910  0.1158
 8164DDP     C148979  18.522  18.619  19.564 -0.0979 -0.0961  0.0670
 8164DDP     P148980  18.425  18.868  19.173 -0.0692  0.0183 -0.0643
 8164DDP     P248981  18.399  18.785  19.936  0.3039 -0.0884  0.2257
 8164DDP     C248982  18.364  19.197  19.899  0.0883 -0.1627  0.1612
 8164DDP     C348983  18.156  18.894  18.697 -0.2582 -0.1248 -0.1393
 8164DDP     C448984  18.701  18.247  19.564  0.0105  0.1744 -0.2542
 8165DDP     C148985  29.429  20.782  24.869  0.2296  0.2258  0.2751
 8165DDP     P148986  29.608  20.963  24.507  0.0805 -0.2079 -0.1579
 8165DDP     P248987  29.287  20.304  24.944  0.0322  0.0379  0.3116
 8165DDP     C248988  28.999  19.923  25.120 -0.0548  0.1033  0.0887
 8165DDP     C348989  29.623  21.008  24.071  0.1431  0.1283 -0.1978
 8165DDP     C448990  29.496  21.081  25.186  0.2273 -0.3240 -0.2180
 8166DDP     C148991  24.391  29.954  10.500  0.1188  0.0299 -0.3390
 8166DDP     P148992  24.791  29.817  10.397  0.0723  0.0026 -0.0492
 8166DDP     P248993  24.174  29.688  10.184 -0.0714  0.0918  0.2179
 8166DDP     C248994  23.846  29.367  10.022 -0.0834  0.3031 -0.1538
 8166DDP     C348995  25.185  29.486  10.533 -0.3904 -0.1874  0.0835
 8166DDP     C448996  24.215   0.032  10.634  0.0719  0.0952  0.2789
 8167DDP     C148997  29.697   0.224  14.598  0.2298 -0.3015  0.0188
 8167DDP     P148998  29.338   0.081  14.757  0.0081  0.3745 -0.1506
 8167DDP     P248999  29.998  30.290  14.420  0.0770 -0.1278 -0.4905
 8167DDP     C249000   0.053  30.009  14.315  0.0521  0.0796 -0.0153
 8167DDP     C349001  28.919   0.062  14.584  0.1717  0.0933 -0.0142
 8167DDP     C449002  29.749   0.647  14.737 -0.0026  0.1568 -0.0121
 8168DDP     C149003  17.545  20.050   4.802 -0.1301  0.0304 -0.1473
 8168DDP     P149004  17.270  20.162   4.593 -0.1254  0.0996  0.1467
 8168DDP     P249005  17.949  19.821   4.910 -0.0215 -0.1243 -0.2992
 8168DDP     C249006  18.326  19.611   5.016 -0.1251 -0.1746 -0.0541
 8168DDP     C349007  16.945  20.092   4.430  0.2598  0.1994 -0.2116
 8168DDP     C449008  17.495  20.477   4.947  0.0312  0.0455  0.1303
 8169DDP     C149009   5.058   9.848  10.380 -0.0494 -0.0649  0.5648
 8169DDP     P149010   5.189   9.799  10.795 -0.0093 -0.1684 -0.1236
 8169DDP     P249011   5.021   9.540   9.973 -0.0562 -0.0895  0.4425
 8169DDP     C249012   4.749   9.302   9.664 -0.0969  0.0088 -0.0993
 8169DDP     C349013   5.397   9.565  11.123  0.1149 -0.2895  0.1872
 8169DDP     C449014   5.295  10.114  10.156 -0.1716 -0.3752  0.1526
 8170DDP     C149015  22.914  24.496   1.734 -0.1246 -0.0978  0.3001
 8170DDP     P149016  23.231  24.455   1.538 -0.0432 -0.0279 -0.0292
 8170DDP     P249017  22.833  24.399   2.185 -0.0874  0.2300 -0.1012
 8170DDP     C249018  22.676  24.179   2.598  0.2871  0.2122 -0.1256
 8170DDP     C349019  23.684  24.460   1.352 -0.1231 -0.0732 -0.0125
 8170DDP     C449020  22.478  24.537   1.561  0.0425  0.1112 -0.2002
 8171DDP     C149021  18.909   4.616  17.029 -0.4209  0.0492  0.0417
 8171DDP     P149022  18.668   4.226  17.016 -0.0486  0.2314 -0.1156
 8171DDP     P249023  19.012   4.736  16.637 -0.1329  0.1651 -0.1789
 8171DDP     C249024  18.964   4.804  16.161  0.0029 -0.2073  0.1344
 8171DDP     C349025  18.259   3.967  16.921 -0.1354 -0.3248 -0.0690
 8171DDP     C449026  19.060   4.785  17.368 -0.2138  0.1744 -0.0149
 8172DDP     C149027  26.012   3.877   7.292  0.1743 -0.0168 -0.0354
 8172DDP     P149028  26.166   4.039   6.951 -0.0337  0.2456  0.0124
 8172DDP     P249029  26.258   3.485   7.459  0.1491  0.0612  0.1045
 8172DDP     C249030  26.645   3.434   7.627  0.1683 -0.2271  0.2050
 8172DDP     C349031  26.569   4.113   6.801  0.0334  0.0434 -0.1038
 8172DDP     C449032  25.710   3.909   7.624 -0.0420  0.0054  0.0195
 8173DDP     C149033  25.616   2.732  30.091 -0.3707 -0.0067 -0.0599
 8173DDP     P149034  25.307   2.701   0.034 -0.0491 -0.0857 -0.2683
 8173DDP     P249035  26.017   2.818  30.185  0.2081 -0.1103  0.0314
 8173DDP     C249036  26.110   3.070   0.093  0.2084 -0.5103  0.0170
 8173DDP     C349037  24.927   2.785   0.227  0.1015 -0.1167 -0.1727
 8173DDP     C449038  25.731   2.615  29.703  0.0516  0.0215  0.0083
 8174DDP     C149039  15.347   5.684  17.978  0.3403  0.0830 -0.3919
 8174DDP     P149040  15.746   5.548  18.003  0.1946  0.0325  0.0689
 8174DDP     P249041  15.378   5.894  17.584 -0.0605 -0.2576 -0.1029
 8174DDP     C249042  15.110   6.054  17.336  0.0335 -0.1053  0.0506
 8174DDP     C349043  16.060   5.467  18.146 -0.1477 -0.2736  0.3260
 8174DDP     C449044  15.057   5.519  18.350  0.1265 -0.2609 -0.0375
 8175DDP     C149045   1.792  24.223  17.313  0.1820 -0.0135  0.2416
 8175DDP     P149046   2.202  24.308  17.250  0.0524 -0.1513 -0.2384
 8175DDP     P249047   1.922  23.709  17.328  0.0278  0.0423  0.2090
 8175DDP     C249048   2.105  23.302  17.420  0.3934  0.2999  0.0921
 8175DDP     C349049   2.629  24.329  17.112 -0.0283 -0.1061  0.1434
 8175DDP     C449050   1.517  24.609  17.364 -0.0263 -0.1184 -0.0602
 8176DDP     C149051   9.027  11.540  17.661  0.0088  0.1327 -0.1550
 8176DDP     P149052   9.445  11.626  17.525 -0.0369 -0.1114  0.1329
 8176DDP     P249053   8.674  11.781  17.509  0.0536  0.1775  0.0306
 8176DDP     C249054   8.538  12.122  17.661  0.3412 -0.0290 -0.0105
 8176DDP     C349055   9.831  11.926  17.432  0.2794  0.2252 -0.1851
 8176DDP     C449056   9.071  11.083  17.607  0.3216  0.1339 -0.0114
 8177DDP     C149057  10.008  17.722   8.089  0.1481 -0.0691 -0.0200
 8177DDP     P149058  10.288  18.090   8.087  0.1540 -0.2500  0.0695
 8177DDP     P249059   9.837  17.580   7.777 -0.1945 -0.3755 -0.4174
 8177DDP     C249060   9.649  17.693   7.436  0.3228 -0.1907  0.2694
 8177DDP     C349061  10.421  18.473   8.238  0.1034  0.2151 -0.1359
 8177DDP     C449062   9.973  17.630   8.510  0.0953 -0.0490  0.1483
 8178DDP     C149063   0.821  16.910  23.909 -0.1105 -0.2188 -0.1639
 8178DDP     P149064   0.993  16.635  24.147 -0.3853  0.2483 -0.2069
 8178DDP     P249065   0.376  16.942  23.734 -0.2233 -0.0087  0.0752
 8178DDP     C249066  30.323  16.990  23.514 -0.0606  0.2429  0.1691
 8178DDP     C349067   0.865  16.385  24.591  0.1916  0.2574 -0.2604
 8178DDP     C449068   1.053  17.092  23.604 -0.0037 -0.1846 -0.0911
 8179DDP     C149069  24.317   3.541  16.081 -0.3423 -0.1482 -0.1731
 8179DDP     P149070  24.428   3.334  16.441 -0.3808  0.1570  0.2791
 8179DDP     P249071  24.601   3.552  15.728  0.0878 -0.1561  0.1204
 8179DDP     C249072  24.458   3.555  15.306 -0.0830  0.1632  0.1187
 8179DDP     C349073  24.253   2.955  16.686 -0.1231 -0.1168  0.0753
 8179DDP     C449074  24.095   3.883  16.178  0.2969 -0.1529 -0.3201
 8180DDP     C149075  18.833   6.086   1.870 -0.3950 -0.1800 -0.0570
 8180DDP     P149076  18.895   5.688   1.646  0.2400 -0.0127 -0.1239
 8180DDP     P249077  18.990   6.094   2.280  0.1206 -0.2773  0.0443
 8180DDP     C249078  18.923   6.045   2.621  0.1142  0.2107 -0.0895
 8180DDP     C349079  18.839   5.314   1.902  0.0239 -0.1879 -0.3228
 8180DDP     C449080  18.491   6.399   1.736  0.0967 -0.0727  0.0243
 8181DDP     C149081  24.287  21.090  21.075 -0.1234  0.0528 -0.1553
 8181DDP     P149082  24.237  20.782  21.369 -0.2139  0.3196  0.0900
 8181DDP     P249083  24.290  21.498  21.104  0.0042  0.1005  0.3822
 8181DDP     C249084  24.260  21.859  21.205 -0.0914 -0.0016 -0.1907
 8181DDP     C349085  24.107  20.693  21.768 -0.0546  0.0852 -0.2156
 8181DDP     C449086  24.214  21.110  20.660 -0.1320 -0.2398  0.0427
 8182DDP     C149087  10.246   5.371  20.941  0.2157 -0.2230 -0.0477
 8182DDP     P149088  10.405   5.716  20.759  0.0387  0.2459 -0.0121
 8182DDP     P249089  10.513   5.334  21.268 -0.0696  0.1850 -0.1064
 8182DDP     C249090  10.735   5.458  21.623 -0.1064  0.0944  0.0882
 8182DDP     C349091  10.577   5.835  20.425 -0.0170 -0.2037 -0.1821
 8182DDP     C449092   9.853   5.130  20.841  0.0746  0.0560 -0.1797
 8183DDP     C149093   6.907  28.749   1.747  0.2700  0.0599 -0.1016
 8183DDP     P149094   6.728  28.530   2.118 -0.3134 -0.0272 -0.1871
 8183DDP     P249095   6.584  28.854   1.408  0.1605 -0.3708 -0.1258
 8183DDP     C249096   6.304  28.573   1.254  0.0269  0.3136 -0.1830
 8183DDP     C349097   6.434  28.266   2.410  0.0183  0.1136 -0.2345
 8183DDP     C449098   7.161  29.036   1.921  0.1717 -0.0566  0.4466
 8184DDP     C149099  29.122  27.599   2.900 -0.2078  0.2150 -0.3959
 8184DDP     P149100  29.056  27.945   3.084 -0.0120  0.1665  0.2180
 8184DDP     P249101  29.536  27.243   3.059 -0.3355 -0.3365 -0.0091
 8184DDP     C249102  29.966  27.375   3.097  0.0374  0.0516  0.0884
 8184DDP     C349103  29.095  28.285   3.403  0.1908  0.1453  0.0476
 8184DDP     C449104  28.925  27.489   2.416 -0.1581 -0.2426  0.1490
 8185DDP     C149105   6.352   4.148  20.136 -0.2029 -0.0749  0.0707
 8185DDP     P149106   6.577   3.973  19.735  0.2967  0.1457  0.1385
 8185DDP     P249107   6.180   4.574  20.163  0.3005  0.0614  0.0609
 8185DDP     C249108   6.339   4.879  20.515 -0.1460  0.2510  0.2665
 8185DDP     C349109   6.961   4.168  19.576 -0.0121 -0.0152 -0.1007
 8185DDP     C449110   6.413   3.892  20.562 -0.1183 -0.0423  0.0294
 8186DDP     C149111  21.722  30.092   7.175  0.2583  0.2494  0.0317
 8186DDP     P149112  21.412  29.880   7.230  0.2706 -0.2314 -0.2317
 8186DDP     P249113  21.458  30.086   6.732 -0.3198 -0.0834 -0.1376
 8186DDP     C249114  21.361  30.019   6.401 -0.0956  0.2906 -0.0701
 8186DDP     C349115  20.965  29.794   7.179 -0.2278  0.0551 -0.1700
 8186DDP     C449116  22.104   0.082   7.281  0.1361 -0.2357  0.0477
 8187DDP     C149117   1.031  16.047   3.598  0.0964  0.0954 -0.0381
 8187DDP     P149118   1.346  16.143   3.309  0.1303 -0.1578 -0.1994
 8187DDP     P249119   0.989  15.694   3.898 -0.0340  0.0374  0.2413
 8187DDP     C249120   0.567  15.684   3.945  0.0175  0.3720 -0.0578
 8187DDP     C349121   1.516  16.418   2.985 -0.3351  0.1522  0.0801
 8187DDP     C449122   0.813  16.410   3.542 -0.3299 -0.0365 -0.1731
 8188DDP     C149123  25.121   6.471  17.096 -0.1517 -0.0310  0.1139
 8188DDP     P149124  24.991   6.896  17.263  0.2526 -0.1526 -0.0274
 8188DDP     P249125  25.599   6.319  17.120  0.2554 -0.0895 -0.1791
 8188DDP     C249126  25.952   6.134  17.007  0.1814  0.0944 -0.3856
 8188DDP     C349127  24.681   7.253  17.278  0.0486  0.1653  0.1516
 8188DDP     C449128  24.768   6.329  16.834 -0.3045 -0.2056  0.0402
 8189DDP     C149129  12.214   1.713  22.940 -0.2397 -0.0879  0.1510
 8189DDP     P149130  12.027   2.202  22.939  0.0402 -0.2434 -0.1131
 8189DDP     P249131  12.646   1.474  23.108  0.1132  0.0911 -0.0637
 8189DDP     C249132  12.844   1.144  23.238 -0.1240 -0.0190  0.0690
 8189DDP     C349133  11.829   2.566  23.043  0.2629  0.0291  0.0427
 8189DDP     C449134  11.863   1.407  22.879 -0.0010  0.0930 -0.2999
 8190DDP     C149135  19.501  22.573  22.903  0.0369 -0.1932  0.0064
 8190DDP     P149136  19.238  22.868  22.931  0.0268  0.0254 -0.0875
 8190DDP     P249137  19.760  22.480  22.636 -0.1043 -0.1295 -0.3120
 8190DDP     C249138  20.175  22.434  22.596  0.3122 -0.1382  0.4834
 8190DDP     C349139  18.753  22.922  23.153 -0.2667  0.2120  0.5047
 8190DDP     C449140  19.558  22.590  23.366 -0.0941 -0.1868 -0.3202
 8191DDP     C149141   8.561  16.870  16.436  0.2593  0.0774  0.1746
 8191DDP     P149142   8.292  17.230  16.349 -0.1166  0.2741 -0.0641
 8191DDP     P249143   8.487  16.841  16.900  0.1236 -0.1272 -0.2759
 8191DDP     C249144   8.658  16.604  17.231  0.2620  0.2370  0.2404
 8191DDP     C349145   8.310  17.628  16.500  0.1135  0.1910  0.3024
 8191DDP     C449146   9.005  16.774  16.276  0.0703 -0.0051  0.0045
 8192DDP     C149147  21.773  21.140   2.034  0.3232  0.0011 -0.2464
 8192DDP     P149148  21.994  20.973   1.689  0.1413 -0.1756 -0.1659
 8192DDP     P249149  22.197  21.408   2.104 -0.1732 -0.2343 -0.0214
 8192DDP     C249150  22.479  21.720   2.267 -0.2356 -0.0746 -0.2050
 8192DDP     C349151  22.126  20.726   1.460 -0.0813  0.4006  0.0298
 8192DDP     C449152  21.306  21.304   2.043  0.1619  0.0199 -0.0790
 8193DDP     C149153  25.586  20.729   9.612  0.2880 -0.0219 -0.0915
 8193DDP     P149154  25.535  20.365   9.563 -0.1295 -0.0273  0.0663
 8193DDP     P249155  25.634  20.884   9.255  0.3575  0.2653 -0.1466
 8193DDP     C249156  26.093  20.965   9.331  0.2277  0.1712  0.0564
 8193DDP     C349157  25.726  19.991   9.692 -0.4086  0.0051 -0.1476
 8193DDP     C449158  25.401  21.011   9.957  0.1208 -0.2034 -0.0219
 8194DDP     C149159  26.285  22.597   1.615  0.0982 -0.2223  0.3400
 8194DDP     P149160  26.636  22.255   1.449 -0.0057  0.0038 -0.0565
 8194DDP     P249161  26.182  22.380   2.027  0.1833  0.0051 -0.1564
 8194DDP     C249162  26.334  22.067   2.294 -0.2979 -0.0104  0.2345
 8194DDP     C349163  27.097  22.344   1.380 -0.0868 -0.1834  0.1011
 8194DDP     C449164  25.962  22.765   1.331 -0.3140 -0.0023 -0.1696
 8195DDP     C149165  24.247   7.923  18.694  0.2332 -0.2736 -0.2876
 8195DDP     P149166  24.058   7.764  18.343  0.2479 -0.0719  0.1471
 8195DDP     P249167  24.235   7.756  19.155  0.0721  0.1416  0.2937
 8195DDP     C249168  24.061   7.704  19.647 -0.1054 -0.0498 -0.0965
 8195DDP     C349169  24.021   7.909  17.960 -0.1880  0.0284 -0.2079
 8195DDP     C449170  24.562   8.182  18.666  0.0513 -0.0922  0.2016
 8196DDP     C149171   5.542  23.434  14.695  0.4337  0.0732 -0.3861
 8196DDP     P149172   5.621  22.951  14.587  0.0957 -0.0081  0.0175
 8196DDP     P249173   5.269  23.747  14.394 -0.2004  0.2060 -0.2082
 8196DDP     C249174   5.301  23.870  13.970  0.0267  0.0485  0.0907
 8196DDP     C349175   5.312  22.720  14.402 -0.1270 -0.0124 -0.1380
 8196DDP     C449176   5.552  23.581  15.024  0.2518 -0.2467  0.1507
 8197DDP     C149177  11.828  22.569   5.839  0.1257 -0.1214 -0.3744
 8197DDP     P149178  11.531  22.184   5.796  0.0467  0.0798 -0.0703
 8197DDP     P249179  11.572  22.975   5.789 -0.0123  0.0817 -0.2474
 8197DDP     C249180  11.455  23.222   5.451 -0.1061 -0.1688 -0.0890
 8197DDP     C349181  11.126  21.937   5.747 -0.0109  0.0978  0.0890
 8197DDP     C449182  12.149  22.494   6.214  0.1986  0.1960 -0.0360
 8198DDP     C149183  11.177  27.980  24.680 -0.1782  0.0226 -0.2258
 8198DDP     P149184  11.261  28.301  24.427 -0.2196 -0.1688 -0.0042
 8198DDP     P249185  10.946  27.645  24.562  0.0227 -0.1880  0.0330
 8198DDP     C249186  10.829  27.442  24.156 -0.3538 -0.0472  0.1637
 8198DDP     C349187  11.549  28.593  24.414 -0.1552  0.1392  0.0980
 8198DDP     C449188  11.161  28.113  25.254 -0.2676 -0.0598  0.2754
 8199DDP     C149189   4.799   2.322  16.475  0.2820  0.1765  0.0643
 8199DDP     P149190   4.417   2.392  16.701 -0.0141 -0.0311 -0.0685
 8199DDP     P249191   5.138   2.436  16.781 -0.2522 -0.0099  0.2319
 8199DDP     C249192   5.590   2.396  16.827  0.1324  0.2139  0.2033
 8199DDP     C349193   4.128   2.564  16.933  0.3123 -0.2927 -0.0166
 8199DDP     C449194   4.616   2.026  16.214 -0.3991  0.0394  0.0188
 8200DDP     C149195   2.325  14.616  12.313  0.3574 -0.0066 -0.1584
 8200DDP     P149196   1.891  14.355  12.207  0.0279 -0.0574 -0.3395
 8200DDP     P249197   2.647  14.742  12.080 -0.3104  0.1387  0.3345
 8200DDP     C249198   2.559  14.939  11.798  0.0757  0.0751 -0.0224
 8200DDP     C349199   1.579  14.164  11.992 -0.1895  0.1768  0.0487
 8200DDP     C449200   2.167  14.847  12.672 -0.0747 -0.1528 -0.1838
 8201DDP     C149201  13.701  24.336  23.794  0.1202 -0.1872  0.1633
 8201DDP     P149202  13.918  23.971  23.792  0.2330 -0.0093 -0.3263
 8201DDP     P249203  13.577  24.670  23.500 -0.1994 -0.0294  0.1110
 8201DDP     C249204  13.475  25.031  23.609 -0.1360  0.0833  0.4936
 8201DDP     C349205  14.253  23.807  23.563  0.2227 -0.0907 -0.1429
 8201DDP     C449206  13.572  24.409  24.185  0.1627  0.1510 -0.1990
 8202DDP     C149207  17.209   2.217  19.957 -0.0451  0.2802  0.2130
 8202DDP     P149208  17.135   1.825  20.196  0.0708  0.1496  0.1431
 8202DDP     P249209  17.525   2.545  19.975 -0.0116  0.1125 -0.3213
 8202DDP     C249210  17.517   2.847  20.244  0.1210  0.2094  0.0697
 8202DDP     C349211  16.753   1.632  20.195 -0.1621 -0.0710 -0.1975
 8202DDP     C449212  16.813   2.340  19.664  0.3343 -0.1007  0.1533
 8203DDP     C149213   1.192   4.810  13.218 -0.2530  0.0730 -0.0187
 8203DDP     P149214   0.963   5.075  12.843  0.1041 -0.1875 -0.0179
 8203DDP     P249215   1.107   4.357  13.259  0.0991 -0.1934  0.2114
 8203DDP     C249216   1.317   4.074  13.610  0.1045  0.0803  0.1150
 8203DDP     C349217   0.917   5.499  12.731 -0.0625  0.2933 -0.0831
 8203DDP     C449218   1.386   5.002  13.542  0.0073  0.2434  0.1391
 8204DDP     C149219   4.644   7.881   6.964  0.3500 -0.2300 -0.1577
 8204DDP     P149220   4.666   8.032   7.470  0.1352 -0.2251  0.3579
 8204DDP     P249221   4.669   8.239   6.916 -0.1553 -0.0068 -0.1850
 8204DDP     C249222   4.577   8.688   6.870 -0.2484  0.2448  0.1019
 8204DDP     C349223   4.892   8.316   7.760 -0.0189  0.2227 -0.2047
 8204DDP     C449224   4.799   7.492   6.766 -0.2062 -0.3675  0.4760
 8205DDP     C149225  12.460  25.761  22.416  0.1100  0.1369 -0.1045
 8205DDP     P149226  12.165  26.086  22.519  0.1051 -0.0787 -0.0885
 8205DDP     P249227  12.879  25.798  22.517  0.1842 -0.4537  0.0588
 8205DDP     C249228  12.980  25.591  22.858 -0.1268  0.2082 -0.0142
 8205DDP     C349229  11.905  26.294  22.561  0.0093  0.1652  0.0284
 8205DDP     C449230  12.339  25.474  22.097 -0.0890  0.4003 -0.1520
 8206DDP     C149231  23.630   4.584   5.935 -0.2501 -0.4987  0.0157
 8206DDP     P149232  23.746   4.492   6.294 -0.0114 -0.0927  0.0542
 8206DDP     P249233  23.529   4.999   6.086 -0.0184 -0.0331  0.0448
 8206DDP     C249234  23.504   5.413   5.962  0.1938  0.1629 -0.1849
 8206DDP     C349235  23.710   4.168   6.569 -0.1780  0.0055 -0.0778
 8206DDP     C449236  23.740   4.442   5.549  0.3302 -0.2370 -0.1330
 8207DDP     C149237   6.782  28.861   4.657 -0.2366  0.0435  0.5374
 8207DDP     P149238   6.639  29.264   4.640  0.0224 -0.1450  0.0454
 8207DDP     P249239   6.750  28.516   4.364  0.0285 -0.1374 -0.3558
 8207DDP     C249240   6.487  28.136   4.437 -0.1323 -0.1157  0.1099
 8207DDP     C349241   6.521  29.544   4.432  0.0401  0.0562 -0.1707
 8207DDP     C449242   6.967  28.656   5.012  0.2155  0.2376 -0.1385
 8208DDP     C149243   7.362  23.377  11.946 -0.1517 -0.0629 -0.3537
 8208DDP     P149244   7.263  23.690  12.162  0.1266  0.0621  0.0340
 8208DDP     P249245   7.371  23.002  12.258  0.0883 -0.2960  0.1057
 8208DDP     C249246   6.940  22.807  12.518 -0.0900 -0.0983 -0.0162
 8208DDP     C349247   7.192  23.807  12.553 -0.0570 -0.3038 -0.0771
 8208DDP     C449248   7.339  23.500  11.503 -0.6260 -0.0705  0.1076
 8209DDP     C149249  13.386  24.635   4.120  0.3454  0.3876  0.1277
 8209DDP     P149250  13.281  25.075   4.143 -0.0984  0.2790 -0.0578
 8209DDP     P249251  13.186  24.279   3.881  0.0332 -0.3001 -0.0007
 8209DDP     C249252  12.806  24.123   3.887  0.0769  0.0619 -0.3449
 8209DDP     C349253  12.851  25.290   4.403 -0.1326 -0.1135  0.0021
 8209DDP     C449254  13.783  24.571   4.292  0.0516 -0.1371  0.0768
 8210DDP     C149255   4.600  13.546  17.566  0.4865 -0.1274 -0.0230
 8210DDP     P149256   4.714  13.710  17.172 -0.2451 -0.0327  0.1167
 8210DDP     P249257   4.647  13.881  17.820  0.2686 -0.0749 -0.0227
 8210DDP     C249258   4.313  14.187  18.002  0.2318  0.1633  0.0966
 8210DDP     C349259   4.814  14.089  17.051  0.2334 -0.0198  0.0774
 8210DDP     C449260   4.460  13.107  17.720 -0.0760  0.3153 -0.1882
 8211DDP     C149261  11.191  21.267   1.601  0.1457  0.0053 -0.1035
 8211DDP     P149262  11.311  21.594   1.300 -0.0069  0.1824 -0.0153
 8211DDP     P249263  11.217  20.810   1.413  0.2855 -0.0894  0.1631
 8211DDP     C249264  11.559  20.635   1.279  0.0193  0.0972 -0.2844
 8211DDP     C349265  11.236  21.818   0.935  0.0242 -0.3073 -0.1125
 8211DDP     C449266  10.987  21.377   2.018 -0.3164 -0.2110 -0.2600
 8212DDP     C149267   8.692   6.189  29.305  0.0832  0.0989 -0.0347
 8212DDP     P149268   8.661   5.786  29.313  0.2446 -0.0247  0.1068
 8212DDP     P249269   8.521   6.281  28.896  0.1539  0.1660  0.0978
 8212DDP     C249270   8.651   6.363  28.360 -0.2332  0.2965  0.0235
 8212DDP     C349271   8.209   5.623  29.238 -0.0729  0.0623  0.2020
 8212DDP     C449272   8.843   6.499  29.537  0.2072 -0.4449 -0.0906
 8213DDP     C149273  18.277   7.561  10.847 -0.0249  0.1811 -0.1882
 8213DDP     P149274  17.961   7.203  10.570  0.0089  0.1655 -0.1690
 8213DDP     P249275  18.349   7.868  11.133  0.1842 -0.0082  0.3396
 8213DDP     C249276  18.631   8.271  11.300 -0.1031  0.0792  0.0310
 8213DDP     C349277  17.824   6.776  10.612 -0.1533  0.1916  0.0302
 8213DDP     C449278  18.605   7.324  11.014  0.0642 -0.0195 -0.0585
 8214DDP     C149279  30.095   4.424   7.910 -0.0750 -0.0676 -0.1947
 8214DDP     P149280  30.255   4.483   7.469 -0.0116 -0.3092  0.0485
 8214DDP     P249281  30.081   3.976   8.126 -0.0462  0.0862  0.1623
 8214DDP     C249282  30.044   3.514   8.290  0.0477 -0.0146 -0.1056
 8214DDP     C349283   0.096   4.354   7.030  0.0647 -0.4072  0.2858
 8214DDP     C449284  29.921   4.652   8.266 -0.2778 -0.0964  0.0967
 8215DDP     C149285  26.582  21.257  27.177 -0.1413  0.0713 -0.0609
 8215DDP     P149286  26.445  21.472  27.510  0.2016  0.0047  0.2182
 8215DDP     P249287  26.318  21.473  26.821  0.0476  0.1975 -0.0591
 8215DDP     C249288  26.039  21.670  26.579 -0.0830  0.0852 -0.2203
 8215DDP     C349289  26.487  21.474  27.939  0.1205  0.2153 -0.0838
 8215DDP     C449290  26.926  21.339  27.034  0.2184 -0.2149 -0.0121
 8216DDP     C149291   7.926  15.227  26.786 -0.1014  0.0035  0.1698
 8216DDP     P149292   8.342  15.169  26.543 -0.2454 -0.0163 -0.1104
 8216DDP     P249293   7.745  14.922  27.045  0.0675  0.2351  0.0224
 8216DDP     C249294   7.503  14.620  27.273  0.0379 -0.1212 -0.1938
 8216DDP     C349295   8.742  15.123  26.473 -0.0042 -0.0914 -0.1437
 8216DDP     C449296   7.691  15.594  26.667  0.1023  0.0047  0.3166
 8217DDP     C149297  28.709  13.818  22.002  0.0278  0.1699 -0.1506
 8217DDP     P149298  28.870  13.521  22.210  0.0365 -0.0041 -0.0250
 8217DDP     P249299  28.969  14.089  21.947  0.1811 -0.2665 -0.1206
 8217DDP     C249300  29.079  14.468  22.049  0.5466  0.1066  0.2532
 8217DDP     C349301  29.105  13.156  22.291  0.1770 -0.0122  0.0336
 8217DDP     C449302  28.276  13.669  21.899  0.0944 -0.0239  0.2238
 8218DDP     C149303  18.716  15.796  25.365 -0.0930 -0.1249 -0.0291
 8218DDP     P149304  18.796  15.345  25.351  0.0836  0.1201  0.1538
 8218DDP     P249305  18.288  15.937  25.441  0.2236  0.2191  0.0470
 8218DDP     C249306  18.070  16.200  25.628  0.0235  0.1947 -0.1045
 8218DDP     C349307  18.435  15.105  25.343  0.1574  0.1537  0.2102
 8218DDP     C449308  19.098  16.107  25.485 -0.1693  0.2821 -0.0741
 8219DDP     C149309  11.179  21.847  13.436  0.0172 -0.0276  0.0257
 8219DDP     P149310  10.990  21.425  13.279  0.2452 -0.0907  0.0316
 8219DDP     P249311  11.233  22.239  13.107 -0.2320 -0.4749 -0.0509
 8219DDP     C249312  11.237  22.498  12.751  0.1254  0.4029  0.0993
 8219DDP     C349313  10.688  21.233  13.049  0.0872  0.3058  0.3080
 8219DDP     C449314  11.029  21.928  13.901 -0.0114 -0.1029 -0.2722
 8220DDP     C149315  18.663   0.644   6.160  0.1569  0.1780 -0.0098
 8220DDP     P149316  18.659   0.560   5.636  0.4368 -0.2335  0.2553
 8220DDP     P249317  18.387   0.660   6.486 -0.1674  0.2327  0.2422
 8220DDP     C249318  18.203   0.740   6.768 -0.0275  0.4364 -0.0852
 8220DDP     C349319  18.808   0.255   5.337  0.2006 -0.3184  0.1607
 8220DDP     C449320  19.134   0.614   6.248  0.1148 -0.0929 -0.2843
 8221DDP     C149321  10.101  22.612   5.908  0.2636 -0.2934 -0.1787
 8221DDP     P149322  10.053  22.880   5.572 -0.2767 -0.0166 -0.0530
 8221DDP     P249323  10.292  22.264   5.777 -0.1794  0.0318  0.0149
 8221DDP     C249324  10.341  21.885   5.610 -0.1641  0.0328 -0.1034
 8221DDP     C349325  10.042  23.060   5.138 -0.5254 -0.0755  0.0755
 8221DDP     C449326   9.861  22.751   6.168  0.2745 -0.4530  0.0475
 8222DDP     C149327  15.092  13.246  18.523 -0.2033 -0.0196 -0.0367
 8222DDP     P149328  14.989  12.932  18.789  0.4091  0.2614 -0.0444
 8222DDP     P249329  15.113  13.047  18.166  0.0536  0.1596 -0.2698
 8222DDP     C249330  15.557  13.020  18.059 -0.1700  0.2866 -0.0300
 8222DDP     C349331  14.660  12.658  18.891  0.0981 -0.0127 -0.4729
 8222DDP     C449332  14.923  13.694  18.717  0.0600  0.0729  0.2580
 8223DDP     C149333  20.434  27.376  27.946 -0.1192 -0.0375  0.1896
 8223DDP     P149334  20.376  27.332  27.499  0.0852  0.0126 -0.1607
 8223DDP     P249335  20.659  27.053  28.188  0.0868 -0.3334 -0.1246
 8223DDP     C249336  21.105  26.953  28.118  0.2692  0.0676 -0.0271
 8223DDP     C349337  20.036  27.111  27.158  0.2752  0.0306  0.1120
 8223DDP     C449338  20.202  27.620  28.092 -0.2612 -0.0147  0.1445
 8224DDP     C149339  11.110  19.542  18.243 -0.2646  0.4453  0.0288
 8224DDP     P149340  11.558  19.381  18.424  0.1539 -0.3920 -0.1013
 8224DDP     P249341  10.882  19.739  17.927  0.2933 -0.0235 -0.0280
 8224DDP     C249342  10.527  19.843  17.816 -0.1207 -0.0011  0.0569
 8224DDP     C349343  11.949  19.627  18.544 -0.2818  0.0253  0.3332
 8224DDP     C449344  10.841  19.307  18.562  0.3656  0.0830 -0.1228
 8225DDP     C149345  24.177  20.783   7.317  0.0722  0.0264 -0.0458
 8225DDP     P149346  24.445  20.777   6.961  0.1303  0.2465 -0.2963
 8225DDP     P249347  24.006  20.314   7.372  0.1688  0.2593  0.2885
 8225DDP     C249348  24.179  19.850   7.538 -0.0917  0.1634 -0.1564
 8225DDP     C349349  24.757  20.721   6.747  0.1913  0.1912 -0.1927
 8225DDP     C449350  24.046  21.176   7.609  0.0679 -0.1075 -0.0906
 8226DDP     C149351   2.867   9.096  28.394 -0.0462 -0.0421  0.1353
 8226DDP     P149352   2.490   9.003  28.067  0.0271 -0.2354 -0.1746
 8226DDP     P249353   2.668   9.069  28.855  0.0152 -0.0451  0.2340
 8226DDP     C249354   2.869   9.122  29.267 -0.0591  0.0211  0.2149
 8226DDP     C349355   2.147   8.763  27.916 -0.1475 -0.2420 -0.0546
 8226DDP     C449356   3.286   9.260  28.292  0.1476 -0.0222  0.2213
 8227DDP     C149357  19.952  25.077  25.932 -0.1450 -0.1951 -0.2051
 8227DDP     P149358  19.805  25.301  26.076  0.1178  0.2939 -0.2258
 8227DDP     P249359  20.389  25.232  25.832  0.1726 -0.0080  0.0281
 8227DDP     C249360  20.612  25.575  25.902  0.0631  0.0025  0.0133
 8227DDP     C349361  19.773  25.670  26.304 -0.0669 -0.0675  0.0722
 8227DDP     C449362  19.722  24.784  25.844 -0.0424  0.0739 -0.0689
 8228DDP     C149363  17.906  23.353  24.743  0.1932 -0.2741 -0.1508
 8228DDP     P149364  18.372  23.165  24.643 -0.0372  0.3451  0.1187
 8228DDP     P249365  17.604  23.304  24.303 -0.0306  0.0222  0.1257
 8228DDP     C249366  17.109  23.367  24.160 -0.2482  0.2863 -0.0255
 8228DDP     C349367  18.806  23.177  24.769 -0.1431 -0.2887  0.4195
 8228DDP     C449368  17.789  23.623  25.061 -0.1240 -0.2196 -0.0183
 8229DDP     C149369   3.185  12.543  12.940 -0.0883 -0.2529 -0.1046
 8229DDP     P149370   3.024  13.057  13.019 -0.2372 -0.0897  0.0258
 8229DDP     P249371   2.942  12.200  13.093 -0.0808  0.0308 -0.0518
 8229DDP     C249372   3.017  11.841  13.312 -0.2461  0.1275 -0.0636
 8229DDP     C349373   2.854  13.450  13.135 -0.2400 -0.0552 -0.0003
 8229DDP     C449374   3.318  12.531  12.488 -0.1350  0.1119 -0.0268
 8230DDP     C149375  27.012  29.700  19.375 -0.2575  0.3117 -0.0528
 8230DDP     P149376  27.001  29.530  19.821 -0.0221  0.0923  0.0004
 8230DDP     P249377  27.177  29.428  19.109 -0.1705 -0.0131  0.0560
 8230DDP     C249378  27.497  29.658  18.728  0.1863  0.0338  0.3509
 8230DDP     C349379  27.163  29.623  20.227  0.0698 -0.1667  0.0481
 8230DDP     C449380  26.606  29.926  19.179 -0.0122  0.0120  0.1793
 8231DDP     C149381  11.263  22.882  28.800 -0.0449 -0.5478  0.2336
 8231DDP     P149382  11.133  22.898  28.323  0.0019 -0.1470  0.0627
 8231DDP     P249383  11.158  23.134  29.199  0.2828  0.0357  0.0325
 8231DDP     C249384  11.076  23.018  29.735 -0.0336  0.0514  0.0211
 8231DDP     C349385  11.370  22.892  27.944  0.3465 -0.0282  0.1044
 8231DDP     C449386  11.667  22.663  29.011  0.2105  0.0994 -0.2511
 8232DDP     C149387  19.300  16.237  19.230 -0.0110  0.1553  0.0725
 8232DDP     P149388  19.657  16.433  19.386  0.1411 -0.0395  0.0777
 8232DDP     P249389  19.393  16.187  18.819  0.0695  0.4229 -0.1804
 8232DDP     C249390  19.603  16.041  18.523  0.1145 -0.2257 -0.0037
 8232DDP     C349391  19.919  16.751  19.597  0.2798 -0.0213 -0.0726
 8232DDP     C449392  19.051  15.864  19.336 -0.0139  0.4271 -0.0042
 8233DDP     C149393  30.062  21.913  11.014  0.3253 -0.1248  0.1402
 8233DDP     P149394  30.023  22.257  10.651  0.0448 -0.1992 -0.1691
 8233DDP     P249395  30.229  22.094  11.382 -0.0762 -0.0222 -0.0365
 8233DDP     C249396  29.934  21.933  11.585  0.2882 -0.1668  0.1043
 8233DDP     C349397  30.182  22.170  10.184 -0.0474  0.0335  0.0622
 8233DDP     C449398  29.884  21.563  10.804  0.2404 -0.3572  0.1298
 8234DDP     C149399   9.621  23.711   9.795 -0.0969 -0.2275 -0.0937
 8234DDP     P149400   9.185  23.767   9.836  0.0280 -0.1638 -0.2820
 8234DDP     P249401   9.929  23.966   9.611  0.3550  0.0248  0.0782
 8234DDP     C249402  10.330  24.061   9.491 -0.1429  0.4612 -0.1266
 8234DDP     C349403   8.956  23.982  10.038 -0.1813  0.0987 -0.2105
 8234DDP     C449404   9.917  23.430  10.049  0.3117  0.0758 -0.2750
 8235DDP     C149405   0.689  13.920   0.621 -0.1277 -0.0731 -0.1019
 8235DDP     P149406   0.491  14.280   0.662 -0.0478 -0.2472  0.0834
 8235DDP     P249407   0.912  13.927   0.232  0.1349  0.1642 -0.2245
 8235DDP     C249408   1.045  13.754  30.106 -0.1563 -0.2729 -0.1177
 8235DDP     C349409   0.326  14.523   1.039  0.1168 -0.0949 -0.2152
 8235DDP     C449410   0.896  13.750   0.997  0.2150 -0.1102  0.0044
 8236DDP     C149411  14.336  10.139  28.539 -0.0667  0.0699  0.3330
 8236DDP     P149412  14.725  10.195  28.508 -0.0049  0.3056 -0.0112
 8236DDP     P249413  14.273  10.439  28.824  0.0816 -0.1888  0.0995
 8236DDP     C249414  14.448  10.526  29.183 -0.0717 -0.1058 -0.1860
 8236DDP     C349415  15.160  10.168  28.394  0.1080  0.0496  0.0754
 8236DDP     C449416  14.121   9.839  28.307  0.0598  0.0933  0.2347
 8237DDP     C149417  11.716  22.947   7.876 -0.2716 -0.0114  0.1234
 8237DDP     P149418  11.443  23.294   7.905  0.1960 -0.0692 -0.0351
 8237DDP     P249419  12.001  22.836   7.480  0.0342 -0.2730 -0.0633
 8237DDP     C249420  12.233  22.627   7.175  0.1356 -0.0231 -0.1441
 8237DDP     C349421  11.522  23.646   7.717  0.0345  0.0277  0.1897
 8237DDP     C449422  11.749  22.731   8.243 -0.2879  0.1490 -0.2390
 8238DDP     C149423  22.562   6.841   1.805  0.3815 -0.2512 -0.2915
 8238DDP     P149424  22.398   6.482   2.104  0.0119 -0.1093 -0.0676
 8238DDP     P249425  22.564   7.301   1.970 -0.0872 -0.2160 -0.0304
 8238DDP     C249426  22.685   7.462   2.394  0.0888  0.2006 -0.0711
 8238DDP     C349427  22.290   6.308   2.437  0.1808 -0.1320 -0.1814
 8238DDP     C449428  22.291   6.923   1.399  0.1848  0.0818 -0.1980
 8239DDP     C149429  15.913  21.536   7.633 -0.1757  0.0669 -0.2115
 8239DDP     P149430  16.247  21.362   7.503  0.1027  0.1082  0.0088
 8239DDP     P249431  15.944  22.003   7.759  0.1671  0.0363  0.0636
 8239DDP     C249432  15.936  22.555   7.735  0.2696 -0.0184 -0.0684
 8239DDP     C349433  16.719  21.361   7.450 -0.0369  0.0373  0.0661
 8239DDP     C449434  15.425  21.292   7.613  0.1664  0.1526 -0.0830
 8240DDP     C149435  30.135   6.298   7.642 -0.3232  0.2721 -0.0836
 8240DDP     P149436  30.026   5.872   7.761  0.4098  0.1949  0.0312
 8240DDP     P249437  30.242   6.643   7.886 -0.0283 -0.0917 -0.0583
 8240DDP     C249438  30.198   7.069   8.098 -0.0033 -0.3044  0.0206
 8240DDP     C349439  30.206   5.609   8.129  0.0433 -0.1929 -0.2657
 8240DDP     C449440  30.263   6.335   7.172 -0.0781 -0.1656 -0.0233
 8241DDP     C149441  23.217   9.065   1.272  0.0715 -0.0082 -0.1164
 8241DDP     P149442  22.792   9.081   1.519  0.1271  0.1058 -0.1318
 8241DDP     P249443  23.592   8.840   1.420 -0.3372 -0.2256 -0.0734
 8241DDP     C249444  23.506   8.465   1.663  0.1240  0.0413 -0.1726
 8241DDP     C349445  22.672   8.814   1.859  0.1753  0.0606  0.2821
 8241DDP     C449446  23.438   9.428   1.213  0.0807  0.1056  0.2868
 8242DDP     C149447  29.371  16.381  20.889  0.1581  0.2751 -0.4524
 8242DDP     P149448  29.694  16.211  21.006 -0.0562 -0.3715  0.4530
 8242DDP     P249449  29.059  16.192  21.042  0.2608 -0.2256 -0.0004
 8242DDP     C249450  28.795  15.992  20.796 -0.3460 -0.1602 -0.1560
 8242DDP     C349451  30.108  16.109  21.113 -0.1049  0.0233  0.1138
 8242DDP     C449452  29.440  16.698  20.581  0.0636  0.5397  0.0651
 8243DDP     C149453   3.191   7.834  27.840  0.1325  0.3778 -0.0624
 8243DDP     P149454   3.162   7.933  28.165  0.0861  0.0698  0.0362
 8243DDP     P249455   3.264   7.467  27.599  0.1878  0.0109  0.0472
 8243DDP     C249456   3.506   7.036  27.591  0.1685 -0.0047  0.0912
 8243DDP     C349457   3.174   8.024  28.618 -0.1488  0.1850 -0.2188
 8243DDP     C449458   3.018   8.276  27.664 -0.2738 -0.2087  0.1237
 8244DDP     C149459  25.397  13.191  29.072  0.0733 -0.2271  0.1041
 8244DDP     P149460  25.744  13.091  29.289 -0.2813  0.2417 -0.1408
 8244DDP     P249461  25.117  13.395  29.326 -0.1191 -0.1375 -0.0784
 8244DDP     C249462  24.812  13.199  29.558 -0.1358  0.3198  0.0354
 8244DDP     C349463  26.172  12.851  29.339  0.0106  0.0800  0.0507
 8244DDP     C449464  25.482  13.130  28.637  0.1261  0.1023  0.1762
 8245DDP     C149465  10.536   3.463  28.715  0.1028  0.2565 -0.0824
 8245DDP     P149466  10.554   3.565  29.115 -0.2085  0.0056  0.0043
 8245DDP     P249467  10.860   3.594  28.428 -0.1460  0.1567 -0.0857
 8245DDP     C249468  10.970   4.007  28.261  0.0269 -0.0737  0.2433
 8245DDP     C349469  10.352   3.512  29.572 -0.0604  0.0968 -0.1301
 8245DDP     C449470  10.283   3.039  28.693 -0.2957 -0.1009  0.0923
 8246DDP     C149471  15.204   3.672  28.305  0.1858 -0.1419  0.0222
 8246DDP     P149472  15.609   3.548  28.116  0.1995  0.0528 -0.0918
 8246DDP     P249473  15.112   3.527  28.754  0.0371  0.2095  0.1306
 8246DDP     C249474  14.957   3.722  29.084 -0.1000 -0.0221  0.1365
 8246DDP     C349475  15.628   3.131  28.160 -0.0437  0.0597 -0.1871
 8246DDP     C449476  15.107   3.989  28.098 -0.0365 -0.0053 -0.2749
 8247DDP     C149477  27.075  29.199  27.627  0.1125 -0.2415  0.2831
 8247DDP     P149478  27.493  29.000  27.545  0.1691  0.2734  0.0554
 8247DDP     P249479  26.806  28.897  27.406  0.0610 -0.1598 -0.2545
 8247DDP     C249480  26.757  28.514  27.630  0.0036 -0.2051  0.4010
 8247DDP     C349481  27.834  28.922  27.177 -0.0136  0.2861 -0.1252
 8247DDP     C449482  26.836  29.495  27.715  0.0328 -0.1272  0.0840
 8248DDP     C149483  25.071  11.163   9.344 -0.2057  0.1741  0.1281
 8248DDP     P149484  25.227  10.754   9.287 -0.2664  0.0830  0.2470
 8248DDP     P249485  24.650  11.290   9.351 -0.0798 -0.0845  0.1106
 8248DDP     C249486  24.238  11.438   9.246  0.2111  0.0942  0.1573
 8248DDP     C349487  25.246  10.308   8.991  0.3424  0.1154  0.0951
 8248DDP     C449488  25.341  11.182   9.670  0.0463  0.0002 -0.1206
 8249DDP     C149489   2.438  24.917  17.773 -0.0168  0.1589 -0.2490
 8249DDP     P149490   2.881  24.991  18.101  0.1704 -0.1548  0.2409
 8249DDP     P249491   2.541  24.806  17.321 -0.2085  0.3208 -0.1958
 8249DDP     C249492   2.546  25.115  16.983  0.1608  0.0183  0.0562
 8249DDP     C349493   3.117  25.272  18.375  0.3171  0.3258  0.0343
 8249DDP     C449494   2.189  25.273  17.704  0.2710  0.1904 -0.2194
 8250DDP     C149495  11.162  29.008   9.145 -0.1234  0.1098 -0.1722
 8250DDP     P149496  11.295  29.469   9.242  0.4098  0.2209  0.5935
 8250DDP     P249497  10.838  28.894   9.351 -0.1847  0.1462 -0.0621
 8250DDP     C249498  10.679  28.902   9.795 -0.4458 -0.0408  0.1087
 8250DDP     C349499  11.582  29.715   8.997 -0.1719  0.0261  0.2542
 8250DDP     C449500  11.181  28.877   8.713  0.0531  0.2020  0.1402
 8251DDP     C149501  27.874  17.249  23.201  0.0226 -0.2164 -0.1209
 8251DDP     P149502  27.914  16.806  23.230 -0.0331  0.0739 -0.0391
 8251DDP     P249503  27.528  17.296  23.415 -0.1295  0.0397 -0.2138
 8251DDP     C249504  27.179  17.367  23.770  0.1111 -0.0131 -0.1449
 8251DDP     C349505  27.935  16.391  23.031  0.1249 -0.0519 -0.3791
 8251DDP     C449506  28.017  17.390  22.791 -0.0048 -0.0514 -0.0089
 8252DDP     C149507  26.632   4.719  10.003 -0.1146 -0.0853 -0.1187
 8252DDP     P149508  26.750   5.185  10.077 -0.0510 -0.0856  0.0869
 8252DDP     P249509  26.891   4.449   9.596 -0.0075  0.2853 -0.2440
 8252DDP     C249510  26.963   4.467   9.143 -0.0055  0.0756 -0.1678
 8252DDP     C349511  27.106   5.460   9.934  0.1377  0.0033  0.1081
 8252DDP     C449512  26.323   4.525  10.156 -0.0353 -0.0250 -0.2167
 8253DDP     C149513  14.264  24.510   4.620 -0.0925  0.1351 -0.3196
 8253DDP     P149514  14.014  24.802   4.642 -0.0905 -0.1508 -0.2826
 8253DDP     P249515  14.267  24.251   5.046  0.0400  0.1844  0.1182
 8253DDP     C249516  14.081  24.144   5.463  0.0201  0.1529 -0.1735
 8253DDP     C349517  13.559  25.073   4.555  0.0937 -0.0575 -0.1124
 8253DDP     C449518  14.118  24.183   4.230 -0.2671 -0.0089 -0.3763
 8254DDP     C149519  28.550  16.163  10.152 -0.2167  0.1689 -0.0521
 8254DDP     P149520  28.704  15.771  10.314 -0.1677 -0.0654  0.0765
 8254DDP     P249521  28.910  16.191   9.888 -0.3297 -0.2881 -0.3760
 8254DDP     C249522  29.300  16.149   9.742 -0.0842  0.1877  0.0600
 8254DDP     C349523  28.854  15.477  10.495  0.4972  0.0419 -0.4917
 8254DDP     C449524  28.200  16.427  10.048  0.0432  0.0524  0.0648
 8255DDP     C149525  15.953  21.940  16.209  0.0940 -0.2261 -0.1042
 8255DDP     P149526  16.047  21.512  16.416 -0.0361  0.0163 -0.0750
 8255DDP     P249527  16.030  21.881  15.841  0.3074  0.2417  0.1578
 8255DDP     C249528  16.102  22.132  15.513 -0.0561  0.1064  0.1463
 8255DDP     C349529  16.208  21.045  16.304  0.0869  0.0960  0.0422
 8255DDP     C449530  15.803  22.236  16.387 -0.1002 -0.2493  0.2557
 8256DDP     C149531  21.220  16.152   0.759 -0.1274 -0.3668  0.1213
 8256DDP     P149532  21.032  15.764   0.911  0.1578 -0.1656  0.3061
 8256DDP     P249533  20.938  16.398   0.448 -0.0781  0.1294 -0.2551
 8256DDP     C249534  20.800  16.601   0.033 -0.0945 -0.2845  0.0402
 8256DDP     C349535  20.675  15.524   0.793  0.0457  0.2156  0.1168
 8256DDP     C449536  21.434  16.496   1.000 -0.1010 -0.4498 -0.0684
 8257DDP     C149537  16.623  23.829  29.929 -0.0619 -0.2554 -0.1919
 8257DDP     P149538  16.401  23.487  30.147  0.1355 -0.2982 -0.1794
 8257DDP     P249539  17.109  23.875  29.799 -0.1401  0.1742  0.0890
 8257DDP     C249540  17.427  24.154  29.562 -0.1659  0.0872 -0.0107
 8257DDP     C349541  16.278  23.126   0.117 -0.1827  0.3123 -0.3183
 8257DDP     C449542  16.263  24.033  29.690 -0.1674 -0.2259 -0.0413
 8258DDP     C149543   6.995  18.916  15.428  0.3040 -0.2718 -0.0868
 8258DDP     P149544   6.751  18.918  15.135  0.0906 -0.0333 -0.2159
 8258DDP     P249545   7.292  19.028  15.275 -0.2397 -0.1424 -0.3266
 8258DDP     C249546   7.742  18.899  15.493  0.2079 -0.2625  0.0860
 8258DDP     C349547   6.566  19.141  14.720  0.1061 -0.0038  0.0082
 8258DDP     C449548   6.752  18.935  15.818  0.2148 -0.4753 -0.1518
 8259DDP     C149549  19.653   3.791  27.409  0.0053  0.0050 -0.3772
 8259DDP     P149550  20.069   3.755  27.166 -0.3727 -0.0371  0.1966
 8259DDP     P249551  19.608   4.134  27.593  0.1725  0.1688 -0.1506
 8259DDP     C249552  19.579   4.532  27.735 -0.1052  0.1506  0.1021
 8259DDP     C349553  20.122   3.365  26.955 -0.0185  0.2524 -0.1458
 8259DDP     C449554  19.694   3.401  27.428 -0.2873  0.2756 -0.2526
 8260DDP     C149555   3.758  24.015   0.710  0.1885  0.1425 -0.2562
 8260DDP     P149556   3.688  23.621   0.768 -0.2856 -0.2177 -0.0577
 8260DDP     P249557   3.683  24.449   0.944 -0.0941 -0.0444  0.0390
 8260DDP     C249558   3.539  24.791   1.207 -0.2810 -0.2202 -0.0045
 8260DDP     C349559   3.977  23.263   0.890  0.1722 -0.0028 -0.1974
 8260DDP     C449560   3.468  23.992   0.326  0.1587 -0.1013 -0.1011
 8261DDP     C149561  29.486   6.033  25.788  0.1896  0.0228  0.2031
 8261DDP     P149562  29.744   5.604  25.649  0.0020 -0.1412 -0.0589
 8261DDP     P249563  29.175   6.176  25.525 -0.0489 -0.2005 -0.0267
 8261DDP     C249564  28.810   6.279  25.251 -0.0019 -0.0025  0.3273
 8261DDP     C349565  29.750   5.165  25.549  0.0205 -0.1234  0.1122
 8261DDP     C449566  29.746   6.131  26.178  0.0270  0.2829 -0.4268
 8262DDP     C149567  24.632  24.071  10.436  0.1035 -0.3043 -0.2232
 8262DDP     P149568  24.484  24.040  10.932  0.1209 -0.2017 -0.0674
 8262DDP     P249569  24.884  24.229  10.244  0.0469  0.1139  0.1660
 8262DDP     C249570  24.917  24.463   9.875 -0.0610  0.0614  0.1004
 8262DDP     C349571  24.069  23.737  11.175  0.2528 -0.0082  0.2915
 8262DDP     C449572  24.385  23.746  10.223  0.1353  0.2298  0.0176
 8263DDP     C149573  28.169  23.685  11.506 -0.0026 -0.0462  0.0635
 8263DDP     P149574  28.090  24.070  11.640  0.2384  0.1354 -0.1160
 8263DDP     P249575  28.125  23.294  11.247  0.0887 -0.1378 -0.1125
 8263DDP     C249576  28.242  22.898  11.218 -0.0774  0.0097  0.2392
 8263DDP     C349577  28.184  24.438  11.819 -0.3158  0.0533  0.2850
 8263DDP     C449578  28.600  23.761  11.739 -0.1665 -0.1608 -0.1923
 8264DDP     C149579  23.711   6.432  29.176  0.2112 -0.1901 -0.0189
 8264DDP     P149580  24.050   6.116  29.117 -0.1995 -0.0068 -0.0920
 8264DDP     P249581  23.489   6.490  29.493  0.2591 -0.0359 -0.1519
 8264DDP     C249582  23.219   6.660  29.821  0.0630 -0.2847  0.1059
 8264DDP     C349583  24.045   5.692  29.228 -0.1735 -0.0963  0.3785
 8264DDP     C449584  23.731   6.698  28.806  0.0548 -0.1521  0.0066
 8265DDP     C149585   8.448  25.168   7.930  0.0027  0.2013 -0.0706
 8265DDP     P149586   8.536  25.003   8.314  0.2014 -0.0320 -0.0299
 8265DDP     P249587   8.343  25.528   7.900 -0.2162 -0.2024 -0.0195
 8265DDP     C249588   8.185  25.928   7.638  0.0261 -0.0472  0.1589
 8265DDP     C349589   8.559  25.186   8.707 -0.0223  0.0635 -0.3233
 8265DDP     C449590   8.473  24.837   7.636 -0.0101 -0.1257  0.1140
 8266DDP     C149591  27.682  16.400  10.324  0.1822 -0.2831 -0.1264
 8266DDP     P149592  27.282  16.295  10.043  0.1068  0.0846 -0.0253
 8266DDP     P249593  27.884  16.801  10.217  0.0811  0.2830 -0.1232
 8266DDP     C249594  27.968  17.200   9.822 -0.2408 -0.3117  0.3897
 8266DDP     C349595  26.918  16.208   9.785  0.0085  0.0083  0.2556
 8266DDP     C449596  28.054  16.232  10.475  0.0241 -0.1428  0.2482
 8267DDP     C149597  24.814   4.633   3.733  0.4408  0.1937  0.1017
 8267DDP     P149598  25.156   4.928   4.046 -0.1450  0.2276 -0.0105
 8267DDP     P249599  24.495   4.757   3.417 -0.0867  0.0094  0.1149
 8267DDP     C249600  24.180   5.002   3.265  0.0820  0.1723 -0.0794
 8267DDP     C349601  25.362   4.949   4.461 -0.0467 -0.0616  0.0914
 8267DDP     C449602  24.594   4.140   4.011  0.0525  0.1250  0.3599
 8268DDP     C149603  25.950  13.745  13.660  0.2338 -0.0058  0.2935
 8268DDP     P149604  25.973  13.939  13.215 -0.1409  0.1249 -0.1708
 8268DDP     P249605  25.830  14.026  13.961  0.0605 -0.0945 -0.2065
 8268DDP     C249606  25.906  14.214  14.278  0.2059 -0.0467  0.1991
 8268DDP     C349607  26.054  14.392  12.926 -0.0496 -0.0228  0.1577
 8268DDP     C449608  25.856  13.325  13.741  0.2386  0.0751  0.1617
 8269DDP     C149609  27.827  12.392  12.016  0.1700 -0.1196 -0.0486
 8269DDP     P149610  27.585  12.102  11.953 -0.1328  0.0379  0.1147
 8269DDP     P249611  27.649  12.767  11.915  0.0282  0.3361  0.1370
 8269DDP     C249612  27.339  12.969  11.631 -0.0934  0.0956 -0.2235
 8269DDP     C349613  27.185  12.163  11.819  0.1369 -0.1984  0.2190
 8269DDP     C449614  28.078  12.418  12.328  0.0191 -0.1329 -0.1736
 8270DDP     C149615  29.010  10.957  24.774 -0.1533  0.1207  0.0694
 8270DDP     P149616  28.644  10.992  24.517 -0.2181  0.1782  0.0807
 8270DDP     P249617  29.005  11.043  25.218 -0.2603  0.0224  0.0984
 8270DDP     C249618  28.745  11.338  25.484  0.4309  0.1372  0.0173
 8270DDP     C349619  28.392  11.091  24.155  0.0216 -0.2786 -0.1451
 8270DDP     C449620  29.394  10.866  24.694  0.1014  0.0453  0.2314
 8271DDP     C149621  17.453  24.266  30.073 -0.0265 -0.0496 -0.0074
 8271DDP     P149622  17.108  24.426  29.807  0.4492 -0.3064  0.1101
 8271DDP     P249623  17.420  24.430   0.138  0.6575 -0.1153 -0.2674
 8271DDP     C249624  17.587  24.817   0.316  0.0357 -0.0923 -0.0575
 8271DDP     C349625  16.714  24.341  29.777  0.0755 -0.1353 -0.1308
 8271DDP     C449626  17.828  24.033  29.987 -0.0204 -0.2047 -0.0697
 8272DDP     C149627   1.113  29.080   6.986  0.0410  0.1314  0.1703
 8272DDP     P149628   1.321  29.171   6.658 -0.1073  0.0472 -0.0444
 8272DDP     P249629   0.769  29.286   6.997  0.3561  0.0658 -0.1224
 8272DDP     C249630   0.625  29.728   6.925 -0.1291 -0.1992 -0.0775
 8272DDP     C349631   1.795  29.174   6.520 -0.1123 -0.1211 -0.1452
 8272DDP     C449632   1.191  28.979   7.377  0.0607 -0.0296  0.0151
 8273DDP     C149633   6.192  13.410  19.909  0.1399 -0.0908 -0.1265
 8273DDP     P149634   5.849  13.087  19.967  0.0289  0.0228  0.1323
 8273DDP     P249635   6.516  13.288  19.608 -0.1620 -0.1510  0.1512
 8273DDP     C249636   6.866  13.081  19.332  0.2230 -0.2709 -0.1311
 8273DDP     C349637   5.563  12.735  20.073  0.3770  0.0072 -0.0968
 8273DDP     C449638   6.209  13.705  20.299  0.0770  0.2628 -0.2559
 8274DDP     C149639   8.540   0.367  17.931  0.1144 -0.0711  0.2507
 8274DDP     P149640   8.286   0.268  17.644  0.3752  0.0564  0.1730
 8274DDP     P249641   8.327   0.813  18.032 -0.3379  0.1660  0.1614
 8274DDP     C249642   8.371   1.227  18.236  0.1195 -0.4267  0.1722
 8274DDP     C349643   7.930  30.326  17.463 -0.0994  0.2894 -0.3728
 8274DDP     C449644   8.783   0.025  18.126 -0.1473 -0.3298 -0.1791
 8275DDP     C149645  22.171  14.034  17.713  0.0671 -0.0105 -0.0765
 8275DDP     P149646  22.355  13.743  17.849 -0.1231  0.2020 -0.0921
 8275DDP     P249647  22.009  13.897  17.342  0.1513  0.1149 -0.1620
 8275DDP     C249648  21.745  13.502  17.191 -0.1815 -0.0891 -0.0038
 8275DDP     C349649  22.773  13.796  17.855 -0.1117  0.0175 -0.1039
 8275DDP     C449650  22.124  14.404  17.890 -0.0493 -0.2498  0.0132
 8276DDP     C149651  13.294  11.193  11.144 -0.0411  0.0825  0.0482
 8276DDP     P149652  13.455  10.864  11.437  0.2560  0.2298 -0.2023
 8276DDP     P249653  12.999  11.339  11.403  0.2060  0.1862  0.1080
 8276DDP     C249654  12.944  11.303  11.826  0.1269 -0.0132 -0.0923
 8276DDP     C349655  13.469  11.048  11.903 -0.2049  0.1432 -0.0209
 8276DDP     C449656  13.356  11.396  10.766  0.0270 -0.0975 -0.2137
 8277DDP     C149657  17.186   6.073   6.065 -0.0057  0.0606  0.0654
 8277DDP     P149658  16.907   5.854   5.980 -0.0600  0.0592  0.4646
 8277DDP     P249659  17.413   6.110   6.404 -0.0369  0.3128  0.2230
 8277DDP     C249660  17.072   6.069   6.781  0.1149  0.2360 -0.0764
 8277DDP     C349661  16.732   5.587   5.722  0.0693  0.1044  0.0031
 8277DDP     C449662  17.430   6.239   5.648 -0.1492  0.0781 -0.0227
 8278DDP     C149663  27.002  22.658  15.376  0.3157  0.1184 -0.1323
 8278DDP     P149664  26.905  23.072  15.515  0.2605 -0.1775 -0.1787
 8278DDP     P249665  26.932  22.517  14.900  0.0322  0.1815 -0.0909
 8278DDP     C249666  26.658  22.529  14.553 -0.1208 -0.3817  0.1850
 8278DDP     C349667  27.171  23.428  15.454  0.1110 -0.0455  0.0091
 8278DDP     C449668  26.856  22.400  15.664 -0.2006  0.0823  0.2678
 8279DDP     C149669  29.690  25.653  19.209  0.0985  0.1394  0.2462
 8279DDP     P149670  30.045  25.480  19.554 -0.1202 -0.0414  0.3001
 8279DDP     P249671  29.752  25.546  18.857  0.0581 -0.1758  0.0769
 8279DDP     C249672  29.926  25.669  18.454  0.3290  0.0593 -0.2209
 8279DDP     C349673  29.998  25.602  20.044 -0.0216 -0.2912 -0.0641
 8279DDP     C449674  29.239  25.863  19.237 -0.0755  0.0335 -0.2945
 8280DDP     C149675  21.672   0.895  19.057 -0.0946  0.4024  0.0024
 8280DDP     P149676  21.828   0.714  19.403 -0.0014  0.2827 -0.0607
 8280DDP     P249677  22.033   0.814  18.709  0.2373  0.2245 -0.0017
 8280DDP     C249678  22.154   0.512  18.532 -0.0654  0.4526 -0.0994
 8280DDP     C349679  22.068   0.394  19.689 -0.4177  0.0061  0.0692
 8280DDP     C449680  21.197   0.826  18.981  0.0192  0.0316 -0.1002
 8281DDP     C149681  23.130  20.673  12.306  0.0461  0.0308 -0.1109
 8281DDP     P149682  22.844  20.773  12.688 -0.2169  0.0393 -0.1709
 8281DDP     P249683  23.374  21.087  12.112  0.0771 -0.0926  0.1262
 8281DDP     C249684  23.737  21.125  11.930 -0.1314  0.1376 -0.0751
 8281DDP     C349685  22.712  21.160  12.880  0.0152 -0.1320  0.0280
 8281DDP     C449686  22.861  20.325  12.056 -0.1097 -0.0731 -0.0667
 8282DDP     C149687  22.117   6.865   6.561  0.1020  0.4083  0.2527
 8282DDP     P149688  21.964   6.550   6.360  0.0370  0.0546 -0.0150
 8282DDP     P249689  22.469   7.042   6.278 -0.0825  0.0179 -0.0340
 8282DDP     C249690  23.009   7.061   6.326 -0.0488  0.2166  0.0413
 8282DDP     C349691  21.557   6.471   6.463  0.0616 -0.3222  0.0205
 8282DDP     C449692  22.001   6.727   6.843  0.0320  0.1093  0.1133
 8283DDP     C149693  13.661  29.650  26.343  0.1347  0.1204 -0.2751
 8283DDP     P149694  13.471  30.079  26.263  0.2996  0.1743  0.1111
 8283DDP     P249695  13.672  29.391  25.998  0.0395  0.2322  0.0204
 8283DDP     C249696  13.646  28.955  25.907  0.2515 -0.0689  0.2332
 8283DDP     C349697  13.572   0.106  25.969  0.0360  0.1529  0.1269
 8283DDP     C449698  13.554  29.338  26.747 -0.0752 -0.1823  0.0236
 8284DDP     C149699  21.606  18.238  10.688  0.1629 -0.0709  0.0939
 8284DDP     P149700  21.684  18.142  10.248 -0.2556 -0.2721  0.2057
 8284DDP     P249701  21.552  18.584  10.877 -0.1504 -0.1538  0.2307
 8284DDP     C249702  21.653  18.830  11.175 -0.2301 -0.0177 -0.0320
 8284DDP     C349703  21.769  17.601  10.079 -0.2432  0.0014 -0.2730
 8284DDP     C449704  21.695  18.014  11.038 -0.1911 -0.0202  0.0323
 8285DDP     C149705  29.876   2.775  23.539 -0.2848  0.0508  0.0282
 8285DDP     P149706  29.617   2.536  23.379  0.1807 -0.3147 -0.0585
 8285DDP     P249707  30.270   2.613  23.670 -0.2981 -0.0334  0.3282
 8285DDP     C249708  30.265   2.242  23.920 -0.2202  0.2044 -0.2066
 8285DDP     C349709  29.637   2.119  23.073  0.0211  0.4028  0.3472
 8285DDP     C449710  29.777   3.182  23.771 -0.3102  0.2923  0.0575
 8286DDP     C149711  27.646  22.707  14.033 -0.0468  0.0491  0.1363
 8286DDP     P149712  27.896  22.777  14.403  0.0183 -0.0759  0.1571
 8286DDP     P249713  27.235  22.788  13.873 -0.0580  0.2502  0.3385
 8286DDP     C249714  26.848  23.017  13.946  0.0965 -0.1476  0.0185
 8286DDP     C349715  28.083  22.798  14.779 -0.1614  0.2106 -0.3113
 8286DDP     C449716  27.944  22.428  13.844  0.2667  0.0491  0.2800
 8287DDP     C149717  29.162   3.938  22.201 -0.1140 -0.1687 -0.0292
 8287DDP     P149718  28.807   3.606  22.078  0.0633 -0.2461  0.1077
 8287DDP     P249719  29.524   4.009  22.000 -0.0392 -0.5375  0.0876
 8287DDP     C249720  29.601   3.896  21.574  0.0216 -0.1198 -0.4640
 8287DDP     C349721  28.542   3.178  21.988 -0.1299  0.0030 -0.2629
 8287DDP     C449722  29.175   4.195  22.558  0.1477  0.0704 -0.3058
 8288DDP     C149723  15.945  19.108   3.793  0.1325 -0.2857 -0.3438
 8288DDP     P149724  15.588  19.382   3.614  0.2015 -0.3395  0.2892
 8288DDP     P249725  16.173  18.814   3.533  0.2662 -0.0390 -0.0657
 8288DDP     C249726  15.997  18.429   3.420  0.0527  0.0471 -0.1236
 8288DDP     C349727  15.332  19.638   3.650 -0.0051 -0.1406 -0.1078
 8288DDP     C449728  16.048  19.245   4.277 -0.0594 -0.2118  0.0355
 8289DDP     C149729  15.945  29.077  20.551 -0.1183  0.1654  0.0282
 8289DDP     P149730  15.712  28.923  20.864  0.2578 -0.4220 -0.2515
 8289DDP     P249731  15.698  29.015  20.216  0.2569  0.1089  0.0360
 8289DDP     C249732  15.475  29.117  19.879 -0.3403  0.0991  0.0629
 8289DDP     C349733  15.662  28.627  21.233 -0.2225  0.1177 -0.1211
 8289DDP     C449734  16.263  29.438  20.523 -0.0286  0.4699  0.1878
 8290DDP     C149735  29.858   3.583  18.356 -0.0555  0.0907  0.0421
 8290DDP     P149736  29.611   3.759  18.617 -0.1914 -0.0660 -0.3224
 8290DDP     P249737  29.555   3.295  18.129  0.3540 -0.0699  0.1260
 8290DDP     C249738  29.218   3.252  17.794  0.2365 -0.1077 -0.0732
 8290DDP     C349739  29.549   3.956  19.004  0.3375 -0.1523 -0.3408
 8290DDP     C449740  30.229   3.788  18.415  0.1521  0.0344 -0.1449
 8291DDP     C149741  11.871  20.549  16.431 -0.1800  0.0939  0.3953
 8291DDP     P149742  11.852  20.186  16.739 -0.1892 -0.0910 -0.0638
 8291DDP     P249743  11.464  20.488  16.396  0.0097 -0.0892  0.1491
 8291DDP     C249744  11.010  20.665  16.349 -0.0275  0.0597 -0.0821
 8291DDP     C349745  12.127  19.907  16.948 -0.0687 -0.2583 -0.2673
 8291DDP     C449746  12.269  20.790  16.241  0.0380  0.2713 -0.1584
 8292DDP     C149747  11.160  18.286  30.094 -0.1189 -0.1060 -0.0561
 8292DDP     P149748  11.578  18.518  30.070  0.1695  0.3421 -0.2479
 8292DDP     P249749  11.029  17.909  29.823  0.0978 -0.2670 -0.0917
 8292DDP     C249750  11.146  17.706  29.429  0.0112 -0.0355 -0.1411
 8292DDP     C349751  11.968  18.638  29.960 -0.2311 -0.2569 -0.0396
 8292DDP     C449752  10.862  18.425   0.066  0.1805  0.0144  0.1545
 8293DDP     C149753   0.662  13.817  26.605  0.1545  0.2558 -0.0028
 8293DDP     P149754   0.942  13.524  26.786  0.1891  0.0678 -0.2120
 8293DDP     P249755   0.702  14.010  26.202 -0.3233  0.3085  0.0984
 8293DDP     C249756   0.435  14.266  26.003 -0.2636 -0.3686  0.1930
 8293DDP     C349757   1.031  13.045  26.687  0.0396 -0.0384 -0.2909
 8293DDP     C449758   0.352  14.049  26.720 -0.1941 -0.1725  0.0336
 8294DDP     C149759  20.508  15.793  24.593  0.0258  0.0876 -0.1751
 8294DDP     P149760  20.934  15.888  24.643  0.2112  0.0024 -0.5926
 8294DDP     P249761  20.212  15.976  24.843  0.2224 -0.0451 -0.1534
 8294DDP     C249762  19.849  15.918  24.782  0.1725 -0.2152  0.1385
 8294DDP     C349763  21.172  16.216  24.578 -0.2558  0.0370 -0.0901
 8294DDP     C449764  20.344  15.400  24.368 -0.0858  0.0638 -0.0021
 8295DDP     C149765   4.254   9.352   9.621  0.2686  0.1534  0.1126
 8295DDP     P149766   4.426   9.832   9.570  0.2211  0.0718  0.0344
 8295DDP     P249767   3.858   9.225   9.792  0.0265 -0.1068  0.2076
 8295DDP     C249768   3.380   9.244   9.962  0.0753  0.1608  0.3115
 8295DDP     C349769   4.178  10.192   9.438 -0.1241 -0.1836 -0.3148
 8295DDP     C449770   4.431   9.248   9.270  0.0161 -0.0288 -0.2017
 8296DDP     C149771  13.607  17.347  22.828  0.1024 -0.4685  0.2365
 8296DDP     P149772  13.746  17.047  23.082  0.0694  0.0955 -0.1270
 8296DDP     P249773  13.745  17.648  23.030 -0.1753  0.2240  0.3494
 8296DDP     C249774  14.193  17.809  23.128  0.0737  0.2563  0.0043
 8296DDP     C349775  14.083  16.869  23.392 -0.1335  0.1121 -0.1719
 8296DDP     C449776  13.398  17.184  22.515  0.4546  0.3377 -0.0699
 8297DDP     C149777  26.046  14.707  18.796  0.0466 -0.2192 -0.2770
 8297DDP     P149778  25.961  14.349  18.529 -0.1245  0.1237 -0.2785
 8297DDP     P249779  25.840  14.709  19.151  0.1117  0.2612  0.0388
 8297DDP     C249780  25.690  14.858  19.567  0.0954 -0.1093  0.2989
 8297DDP     C349781  25.634  14.188  18.182  0.0823 -0.2002  0.1310
 8297DDP     C449782  26.320  15.037  18.675 -0.2539  0.1144  0.2477
 8298DDP     C149783  27.907   7.594  26.136 -0.2671  0.1360  0.1194
 8298DDP     P149784  27.943   7.410  25.704 -0.0264 -0.1424 -0.2577
 8298DDP     P249785  28.127   7.384  26.469  0.3229  0.1712  0.2210
 8298DDP     C249786  27.849   7.167  26.769 -0.3033  0.4470 -0.0626
 8298DDP     C349787  27.895   6.990  25.565  0.2649  0.3203 -0.2445
 8298DDP     C449788  27.574   7.890  26.218 -0.0933 -0.2227 -0.2345
 8299DDP     C149789  12.855  27.359  28.080 -0.2281  0.1855 -0.1786
 8299DDP     P149790  13.124  26.947  28.104 -0.1719  0.0583 -0.0680
 8299DDP     P249791  12.908  27.813  28.148  0.0960  0.1226 -0.0923
 8299DDP     C249792  13.064  28.183  28.411  0.1456 -0.0360 -0.1284
 8299DDP     C349793  13.183  26.458  28.100 -0.0493 -0.0008 -0.0352
 8299DDP     C449794  12.340  27.288  27.953 -0.0650 -0.1178 -0.0177
 8300DDP     C149795   9.519  21.538  25.453 -0.1974 -0.2078  0.0314
 8300DDP     P149796   9.573  21.879  25.576  0.0572 -0.1304 -0.0306
 8300DDP     P249797   9.968  21.268  25.442  0.1090 -0.1039  0.0557
 8300DDP     C249798  10.458  21.408  25.483  0.5518 -0.0257  0.1047
 8300DDP     C349799   9.403  22.220  25.930  0.0738  0.4268  0.0878
 8300DDP     C449800   9.151  21.528  25.411 -0.2200  0.0612  0.0616
 8301DDP     C149801  16.619  19.853  26.849  0.0945  0.5406 -0.0714
 8301DDP     P149802  16.819  19.902  27.258 -0.4420  0.1749  0.0797
 8301DDP     P249803  16.964  19.938  26.554  0.1296  0.2028 -0.0817
 8301DDP     C249804  17.265  19.711  26.480 -0.0374 -0.1008 -0.3257
 8301DDP     C349805  17.088  19.792  27.588  0.3930  0.1002  0.1262
 8301DDP     C449806  16.336  20.067  26.657  0.0554 -0.0852 -0.0081
 8302DDP     C149807  12.621   7.561  27.588 -0.0979  0.1163 -0.0874
 8302DDP     P149808  12.529   7.720  28.013 -0.0399 -0.2780  0.1468
 8302DDP     P249809  12.756   7.328  27.216  0.1960 -0.0503  0.0230
 8302DDP     C249810  12.811   7.337  26.825  0.0639 -0.2797 -0.2790
 8302DDP     C349811  12.316   7.927  28.312  0.0409  0.0143  0.2904
 8302DDP     C449812  12.673   7.990  27.514 -0.0375 -0.1865  0.0177
 8303DDP     C149813   9.354  20.404  15.254  0.1801 -0.0076  0.0359
 8303DDP     P149814   9.388  20.042  15.458  0.0546  0.0789 -0.2580
 8303DDP     P249815   9.729  20.664  15.449  0.0975  0.1687 -0.0006
 8303DDP     C249816   9.938  20.322  15.220  0.0069  0.0936 -0.0227
 8303DDP     C349817   9.349  19.600  15.544  0.0343  0.1084 -0.0457
 8303DDP     C449818   9.100  20.554  14.937 -0.2356 -0.0154  0.0321
 8304DDP     C149819  15.194  25.986   7.704 -0.0961 -0.2519  0.0368
 8304DDP     P149820  14.846  26.098   7.913 -0.1000 -0.2100  0.2480
 8304DDP     P249821  15.488  25.646   7.853 -0.1949  0.0009 -0.0132
 8304DDP     C249822  15.652  25.253   7.664 -0.0628  0.2312 -0.2284
 8304DDP     C349823  14.447  26.335   8.156 -0.0705 -0.0107  0.3349
 8304DDP     C449824  15.228  26.170   7.322  0.0994 -0.4189 -0.1063
 8305DDP     C149825   1.562  24.769   3.972  0.0865 -0.4767  0.1955
 8305DDP     P149826   1.871  24.539   3.684 -0.4688 -0.0807  0.3231
 8305DDP     P249827   1.142  24.816   3.947  0.1301  0.0870 -0.2636
 8305DDP     C249828   0.760  24.791   3.931 -0.0574  0.2244  0.5020
 8305DDP     C349829   2.289  24.586   3.534 -0.2490 -0.1180 -0.0969
 8305DDP     C449830   1.810  25.189   4.049 -0.0329  0.0381  0.0003
 8306DDP     C149831  20.528  25.866  29.372  0.1842 -0.1820 -0.2392
 8306DDP     P149832  20.287  26.103  29.682  0.2270 -0.1188 -0.1185
 8306DDP     P249833  20.427  25.822  28.892  0.0663  0.0755  0.1189
 8306DDP     C249834  20.583  25.550  28.468  0.1935 -0.3373  0.1261
 8306DDP     C349835  20.226  26.524  29.835 -0.1892  0.1170 -0.0941
 8306DDP     C449836  20.889  25.708  29.560  0.1439 -0.0208  0.0366
 8307DDP     C149837  17.776  19.519  13.709  0.2332  0.1385  0.1403
 8307DDP     P149838  17.898  19.487  13.357 -0.3827 -0.0164 -0.0878
 8307DDP     P249839  17.787  19.228  14.074 -0.0706  0.1531  0.0364
 8307DDP     C249840  18.011  18.854  14.166 -0.2734  0.0407  0.0608
 8307DDP     C349841  18.241  19.777  13.161  0.1087  0.4060 -0.2171
 8307DDP     C449842  17.605  19.983  13.754 -0.1359  0.0505  0.0585
 8308DDP     C149843  20.500  21.391  28.661 -0.0266  0.3250 -0.0638
 8308DDP     P149844  20.074  21.349  28.505 -0.0807 -0.1971 -0.0185
 8308DDP     P249845  20.819  21.119  28.602 -0.0039 -0.1929  0.1526
 8308DDP     C249846  20.732  20.641  28.723 -0.1403  0.0394  0.0541
 8308DDP     C349847  19.658  21.215  28.452  0.2533 -0.3238 -0.3332
 8308DDP     C449848  20.685  21.737  28.909  0.1726 -0.1263 -0.0648
 8309DDP     C149849  28.378  26.501  17.196 -0.0333 -0.0886  0.0167
 8309DDP     P149850  28.625  26.544  17.489 -0.2339 -0.2886  0.0686
 8309DDP     P249851  28.045  26.324  17.391  0.1918  0.2788 -0.0784
 8309DDP     C249852  27.862  25.985  17.754  0.0120 -0.1618 -0.1118
 8309DDP     C349853  29.016  26.744  17.742 -0.1174  0.1510  0.3073
 8309DDP     C449854  28.371  26.727  16.927  0.0742 -0.1123  0.2599
 8310DDP     C149855   8.273  19.808  13.855 -0.2410  0.1063  0.4910
 8310DDP     P149856   8.067  19.627  13.523  0.0336  0.1123 -0.1583
 8310DDP     P249857   8.322  20.286  13.768 -0.2222 -0.1197  0.2238
 8310DDP     C249858   8.374  20.718  13.930  0.2645 -0.0397 -0.1052
 8310DDP     C349859   7.598  19.488  13.527 -0.1054 -0.0260  0.0471
 8310DDP     C449860   8.400  19.672  14.200 -0.3434  0.4406 -0.3921
 8311DDP     C149861  19.386  29.447   8.830 -0.1753  0.0996  0.1068
 8311DDP     P149862  19.378  29.234   9.257  0.1513  0.0064  0.1184
 8311DDP     P249863  19.649  29.832   8.773  0.1856  0.1526 -0.1498
 8311DDP     C249864  19.936  30.114   9.009  0.1931  0.2175  0.1945
 8311DDP     C349865  19.172  28.805   9.330  0.0430 -0.1488 -0.1932
 8311DDP     C449866  19.407  29.105   8.518 -0.0251  0.0763  0.3724
 8312DDP     C149867  28.909  22.577  23.962 -0.3200 -0.1026  0.1824
 8312DDP     P149868  28.941  22.509  23.488  0.1734  0.2207  0.0564
 8312DDP     P249869  28.604  22.245  24.089  0.0963 -0.0966  0.4625
 8312DDP     C249870  28.684  21.845  23.738  0.0513  0.1721 -0.3235
 8312DDP     C349871  28.992  22.441  22.978  0.1537 -0.2816 -0.1843
 8312DDP     C449872  28.746  23.114  24.113 -0.0166  0.1140  0.0114
 8313DDP     C149873  21.302  27.601  17.981  0.0814 -0.0171 -0.0474
 8313DDP     P149874  21.333  27.537  18.354 -0.2483  0.2567  0.1019
 8313DDP     P249875  21.394  27.853  17.659 -0.1937 -0.0164  0.1946
 8313DDP     C249876  21.342  28.101  17.327 -0.2521 -0.0604  0.3893
 8313DDP     C349877  21.503  27.614  18.837 -0.0163  0.2070 -0.3387
 8313DDP     C449878  20.979  27.331  17.677 -0.1118  0.1645  0.0033
 8314DDP     C149879   8.815  18.448  18.448  0.0983 -0.2651 -0.0419
 8314DDP     P149880   8.643  18.109  18.306  0.3666  0.2045  0.0459
 8314DDP     P249881   8.872  18.778  18.159  0.1124  0.2461 -0.0019
 8314DDP     C249882   9.108  18.938  17.785  0.0901 -0.0392 -0.1677
 8314DDP     C349883   8.293  18.093  18.041  0.1432  0.0922 -0.1807
 8314DDP     C449884   8.727  18.710  18.803  0.2792 -0.0278  0.0383
 8315DDP     C149885   0.856  11.989   8.628  0.2371 -0.0680 -0.0446
 8315DDP     P149886   0.518  11.877   8.893  0.0272  0.0275  0.2424
 8315DDP     P249887   1.091  11.644   8.327 -0.1684 -0.1941 -0.1753
 8315DDP     C249888   0.884  11.394   8.132  0.1495  0.0477 -0.0964
 8315DDP     C349889   0.468  12.291   9.080  0.1489 -0.0361 -0.0559
 8315DDP     C449890   1.115  12.481   8.664 -0.0444  0.0522 -0.0084
 8316DDP     C149891  11.242  14.661   0.185  0.2449 -0.0103 -0.1119
 8316DDP     P149892  11.229  14.717   0.530 -0.2161  0.0325  0.1989
 8316DDP     P249893  10.959  14.884  30.229  0.1087 -0.4481 -0.0260
 8316DDP     C249894  10.909  15.215  29.915  0.0263  0.3201 -0.2286
 8316DDP     C349895  10.957  14.585   0.846  0.2347  0.1061  0.0959
 8316DDP     C449896  11.559  14.528   0.157  0.2120  0.2038  0.0883
 8317DDP     C149897  10.161  18.301  13.615  0.1899 -0.1397 -0.0370
 8317DDP     P149898  10.556  18.378  13.975  0.1483  0.0455  0.3876
 8317DDP     P249899  10.113  18.476  13.183  0.0946 -0.2451 -0.0577
 8317DDP     C249900   9.938  18.599  12.714 -0.0471 -0.2199  0.0598
 8317DDP     C349901  10.590  18.120  14.390 -0.0556  0.3930 -0.2504
 8317DDP     C449902   9.948  17.974  13.776 -0.1915  0.2284  0.1741
 8318DDP     C149903  10.790  29.335  20.149  0.4235  0.0353 -0.1239
 8318DDP     P149904  11.088  29.086  20.359  0.0175 -0.3055  0.0193
 8318DDP     P249905  10.389  29.354  20.379 -0.0364  0.3248 -0.2056
 8318DDP     C249906  10.076  29.456  20.133  0.1399  0.1783  0.0262
 8318DDP     C349907  11.225  28.681  20.574  0.0289 -0.1636 -0.1892
 8318DDP     C449908  10.736  29.368  19.675  0.1435 -0.1221  0.0049
 8319DDP     C149909  22.078  15.330  11.253 -0.1021  0.2312  0.1844
 8319DDP     P149910  21.684  15.591  11.036  0.0922 -0.1827  0.0137
 8319DDP     P249911  22.101  14.889  11.124 -0.0033  0.3591 -0.0509
 8319DDP     C249912  22.175  14.600  10.758  0.1612  0.1318  0.1753
 8319DDP     C349913  21.352  15.850  10.710  0.1512  0.0309 -0.0366
 8319DDP     C449914  22.536  15.504  11.401 -0.1254  0.0855  0.0067
 8320DDP     C149915   1.177   0.733  20.853 -0.0609  0.0038 -0.1238
 8320DDP     P149916   1.124   1.153  21.148  0.2770 -0.0574 -0.1777
 8320DDP     P249917   1.174   0.863  20.402 -0.0911  0.2996  0.2466
 8320DDP     C249918   1.027   0.934  20.031 -0.2871 -0.1559  0.0496
 8320DDP     C349919   1.185   1.646  21.230  0.0936  0.2904 -0.1532
 8320DDP     C449920   1.287   0.265  20.997  0.2962  0.1972 -0.0711
 8321DDP     C149921  10.627  23.969  15.744  0.0838 -0.0812  0.2450
 8321DDP     P149922  10.656  24.332  15.660 -0.0073  0.0793 -0.0288
 8321DDP     P249923  10.338  23.990  15.363  0.2221  0.0258  0.1227
 8321DDP     C249924   9.964  24.071  15.032 -0.1930  0.2781  0.1976
 8321DDP     C349925  10.409  24.726  15.472 -0.2569 -0.0142  0.0496
 8321DDP     C449926  10.747  23.672  15.999  0.3221 -0.1663  0.2002
 8322DDP     C149927   8.416  16.784   3.228 -0.0116 -0.1243  0.2668
 8322DDP     P149928   8.031  16.587   3.294 -0.0773  0.1283 -0.1263
 8322DDP     P249929   8.544  17.272   3.070 -0.0745  0.1961  0.2709
 8322DDP     C249930   8.515  17.647   2.801  0.2178  0.6034  0.2608
 8322DDP     C349931   7.817  16.576   3.743  0.1867 -0.2564 -0.2334
 8322DDP     C449932   8.740  16.589   3.525 -0.1347 -0.0336 -0.1664
 8323DDP     C149933  13.493  13.112   3.577  0.2577  0.1316 -0.0093
 8323DDP     P149934  13.739  13.265   3.268  0.2718 -0.2491 -0.0863
 8323DDP     P249935  13.399  12.737   3.815  0.0326 -0.1326  0.0343
 8323DDP     C249936  13.073  12.350   3.995  0.0264 -0.0369 -0.0081
 8323DDP     C349937  13.977  13.211   2.836  0.0605 -0.0746  0.1972
 8323DDP     C449938  13.240  13.575   3.718 -0.1067 -0.0250  0.0701
 8324DDP     C149939  18.437  17.704  29.233  0.1782  0.0584  0.0452
 8324DDP     P149940  18.404  18.177  29.078 -0.2520 -0.0179  0.3887
 8324DDP     P249941  17.976  17.619  29.420  0.0852 -0.0417 -0.2088
 8324DDP     C249942  17.568  17.454  29.626 -0.2146 -0.0501 -0.0568
 8324DDP     C349943  18.785  18.443  28.937  0.0445  0.0197  0.1609
 8324DDP     C449944  18.642  17.300  29.061 -0.1465 -0.5011 -0.2144
 8325DDP     C149945   9.754  21.871  21.001  0.2197 -0.1051  0.2061
 8325DDP     P149946   9.441  21.695  20.937 -0.2756  0.1246  0.1550
 8325DDP     P249947  10.131  21.716  20.902 -0.2634 -0.2368  0.2121
 8325DDP     C249948  10.478  21.594  21.059  0.1622  0.1427  0.2375
 8325DDP     C349949   9.070  21.927  20.856 -0.3174  0.0420  0.0868
 8325DDP     C449950   9.828  22.282  21.189  0.2432  0.2252  0.0975
 8326DDP     C149951  22.828   8.740  29.715  0.0170 -0.1880 -0.0873
 8326DDP     P149952  22.422   8.810  29.553  0.1103  0.0356  0.1746
 8326DDP     P249953  23.067   9.101  29.596  0.4279 -0.0618 -0.0535
 8326DDP     C249954  23.384   9.326  29.694 -0.3233  0.1527  0.3418
 8326DDP     C349955  22.346   8.650  29.217  0.1774 -0.2453  0.0135
 8326DDP     C449956  22.890   8.342  29.899 -0.0584  0.1660  0.2124
 8327DDP     C149957   0.540  10.980  15.484 -0.2146 -0.0023 -0.3069
 8327DDP     P149958   0.425  10.648  15.321 -0.0497  0.0306  0.0340
 8327DDP     P249959   0.248  11.274  15.467 -0.0228 -0.0066  0.1160
 8327DDP     C249960  30.183  11.131  15.639 -0.2440  0.2225  0.1436
 8327DDP     C349961   0.120  10.392  15.686  0.0810 -0.2915  0.0558
 8327DDP     C449962   0.850  11.043  15.755  0.4664 -0.5846 -0.0995
 8328DDP     C149963   7.611   2.296  10.701 -0.1422  0.1838  0.1520
 8328DDP     P149964   7.702   1.988  10.459  0.0428  0.3003  0.1622
 8328DDP     P249965   7.580   2.746  10.456  0.3290 -0.0604  0.3599
 8328DDP     C249966   7.568   2.801   9.884  0.0106 -0.2818  0.2844
 8328DDP     C349967   7.669   1.658  10.342  0.1530  0.0260  0.3725
 8328DDP     C449968   7.569   2.372  11.241  0.2167 -0.0248  0.0535
 8329DDP     C149969   3.258  23.021   3.068 -0.0098  0.1272 -0.0558
 8329DDP     P149970   2.840  22.724   2.864  0.1797  0.2718 -0.1655
 8329DDP     P249971   3.443  23.249   3.470  0.3459 -0.1926 -0.1104
 8329DDP     C249972   3.460  23.323   3.990 -0.1243 -0.0167  0.0497
 8329DDP     C349973   2.314  22.835   2.691 -0.0245 -0.3374  0.2447
 8329DDP     C449974   3.583  23.039   2.807 -0.0269  0.1556  0.1619
 8330DDP     C149975  19.164  10.492  22.057 -0.1385 -0.2621 -0.1305
 8330DDP     P149976  18.926  10.647  21.671  0.0822  0.2075  0.0796
 8330DDP     P249977  19.489  10.746  22.332  0.0618  0.1183  0.1562
 8330DDP     C249978  19.647  10.895  22.812  0.0269  0.2830  0.3376
 8330DDP     C349979  19.252  11.004  21.511 -0.0446 -0.1699  0.1204
 8330DDP     C449980  18.875  10.148  21.960  0.2271 -0.0949 -0.2267
 8331DDP     C149981  18.027  15.613  13.548 -0.2028 -0.1322 -0.3088
 8331DDP     P149982  18.364  15.429  13.899 -0.0040 -0.0934 -0.1545
 8331DDP     P249983  17.979  15.964  13.400  0.0518  0.1889 -0.2998
 8331DDP     C249984  17.833  16.151  13.022  0.3100  0.3936 -0.0083
 8331DDP     C349985  18.597  15.170  14.174  0.1381 -0.2661  0.2013
 8331DDP     C449986  17.580  15.311  13.579 -0.2859  0.0625  0.1672
 8332DDP     C149987  16.333  15.246  18.950 -0.0152 -0.0758 -0.3545
 8332DDP     P149988  15.985  15.214  19.221  0.1230 -0.3182 -0.0583
 8332DDP     P249989  16.787  15.322  19.013  0.0039 -0.2011  0.2962
 8332DDP     C249990  17.160  15.269  18.826 -0.1277 -0.0080  0.0394
 8332DDP     C349991  15.965  15.241  19.643  0.0619 -0.3292 -0.0812
 8332DDP     C449992  16.365  15.039  18.513 -0.1118 -0.2541  0.0415
 8333DDP     C149993  14.422  17.659  24.568  0.1862 -0.0580  0.0527
 8333DDP     P149994  14.127  17.773  24.896 -0.0600 -0.0503 -0.1114
 8333DDP     P249995  14.299  17.475  24.201 -0.1013  0.0592  0.0332
 8333DDP     C249996  14.314  17.653  23.770  0.0553 -0.2430  0.2178
 8333DDP     C349997  13.828  17.976  24.783 -0.1936 -0.0874  0.0031
 8333DDP     C449998  14.822  17.837  24.701 -0.1748 -0.1828 -0.1546
 8334DDP     C149999  26.736  11.618  17.998 -0.4085  0.0704  0.2436
 8334DDP     P150000  26.779  11.210  18.157 -0.1062 -0.0871 -0.4105
 8334DDP     P250001  26.455  11.495  17.752  0.0663  0.1628  0.0371
 8334DDP     C250002  25.998  11.333  17.665 -0.0509 -0.0803 -0.1532
 8334DDP     C350003  26.940  10.871  18.468 -0.0088  0.0485  0.2285
 8334DDP     C450004  26.832  11.999  18.089 -0.0738  0.2836 -0.1365
 8335DDP     C150005   4.889   2.612  22.786 -0.1156 -0.0754 -0.2707
 8335DDP     P150006   4.731   2.994  22.972  0.0115 -0.1017  0.1008
 8335DDP     P250007   4.706   2.498  22.447 -0.0609  0.1256  0.2322
 8335DDP     C250008   4.630   2.627  22.080 -0.1355  0.0979 -0.2642
 8335DDP     C350009   4.511   3.270  22.819  0.0391  0.1638 -0.2484
 8335DDP     C450010   4.803   2.243  22.837 -0.0325 -0.2388  0.0093
 8336DDP     C150011  17.247   1.971  30.346  0.2896 -0.3139  0.2108
 8336DDP     P150012  17.212   2.213  29.982 -0.2206 -0.2122 -0.0878
 8336DDP     P250013  16.949   1.710   0.201 -0.1723  0.1548  0.3471
 8336DDP     C250014  16.739   1.275   0.363 -0.0306 -0.0632 -0.0830
 8336DDP     C350015  17.162   2.233  29.567 -0.0663 -0.0713  0.0701
 8336DDP     C450016  17.472   2.126   0.316 -0.2753  0.0416  0.1925
 8337DDP     C150017  27.714   9.647  16.681 -0.1619  0.0723 -0.0834
 8337DDP     P150018  27.832   9.942  16.941 -0.0417 -0.1223  0.1226
 8337DDP     P250019  27.750   9.163  16.706  0.3732 -0.1035 -0.1051
 8337DDP     C250020  28.097   8.832  16.613  0.1784  0.1307 -0.0969
 8337DDP     C350021  27.687  10.298  17.189 -0.0887 -0.2851  0.1227
 8337DDP     C450022  27.506   9.752  16.376  0.1116  0.2912  0.2228
 8338DDP     C150023   2.551  13.856  24.541  0.2435  0.2976  0.2013
 8338DDP     P150024   2.849  13.713  24.195 -0.1871  0.0680  0.1911
 8338DDP     P250025   2.684  14.162  24.851 -0.0741 -0.0386 -0.3072
 8338DDP     C250026   3.009  14.310  24.971  0.2137 -0.0690  0.1333
 8338DDP     C350027   2.666  13.459  23.948 -0.0444 -0.3025 -0.0275
 8338DDP     C450028   2.095  13.644  24.551 -0.0296 -0.1378 -0.0026
 8339DDP     C150029  24.752  11.736   8.603 -0.2307  0.1373 -0.1483
 8339DDP     P150030  25.085  11.699   8.221 -0.0463 -0.3163 -0.1820
 8339DDP     P250031  24.506  11.336   8.710 -0.1999  0.4441 -0.4460
 8339DDP     C250032  24.520  10.965   8.596  0.1707  0.1768 -0.0986
 8339DDP     C350033  25.058  11.622   7.788 -0.1307 -0.4544  0.3018
 8339DDP     C450034  24.668  12.118   8.800  0.1005  0.0115 -0.0010
 8340DDP     C150035  23.574   6.583  22.661 -0.0897  0.1495 -0.1291
 8340DDP     P150036  24.071   6.483  22.713 -0.0044  0.0151 -0.1467
 8340DDP     P250037  23.474   6.971  22.818  0.0901 -0.1533  0.0576
 8340DDP     C250038  23.665   7.421  22.768 -0.0825  0.0898  0.1396
 8340DDP     C350039  24.448   6.157  22.839  0.2091 -0.0272  0.0427
 8340DDP     C450040  23.184   6.298  22.534 -0.1545 -0.0196  0.1851
 8341DDP     C150041  29.795  10.372   8.896  0.0373  0.0726 -0.0822
 8341DDP     P150042  30.106  10.111   8.987  0.2720 -0.0041  0.2830
 8341DDP     P250043  29.611  10.462   8.504  0.0992 -0.0829  0.0244
 8341DDP     C250044  29.582  10.323   8.114 -0.3075  0.0058  0.4729
 8341DDP     C350045   0.041  10.066   9.309 -0.1230 -0.3253 -0.2023
 8341DDP     C450046  29.515  10.458   9.304  0.1419 -0.1905 -0.2183
 8342DDP     C150047  13.737  13.692  26.863 -0.1617  0.1798  0.2079
 8342DDP     P150048  13.388  13.810  26.988  0.2889 -0.1738  0.2502
 8342DDP     P250049  14.104  13.533  27.046 -0.1960  0.0150  0.0510
 8342DDP     C250050  14.393  13.215  27.153 -0.1939 -0.0413 -0.0037
 8342DDP     C350051  13.319  13.352  26.971  0.0115  0.2776 -0.0224
 8342DDP     C450052  13.893  13.756  26.414  0.0791  0.3673 -0.1605
 8343DDP     C150053  23.381  11.830   0.168 -0.0165 -0.3189  0.1459
 8343DDP     P150054  23.309  12.178  30.241  0.0635  0.0363  0.1095
 8343DDP     P250055  23.692  11.953   0.462 -0.1214  0.1470  0.1104
 8343DDP     C250056  23.744  11.963   0.926  0.0586 -0.0312  0.0518
 8343DDP     C350057  23.393  12.241  29.830 -0.1333  0.1584 -0.1395
 8343DDP     C450058  23.209  11.424   0.104 -0.1815  0.3311  0.1883
 8344DDP     C150059  11.155  11.645  10.566  0.1125 -0.0305 -0.0811
 8344DDP     P150060  11.310  11.781  10.971  0.0105  0.0281 -0.1797
 8344DDP     P250061  11.215  11.437  10.153 -0.0384 -0.0312 -0.1382
 8344DDP     C250062  11.529  11.221   9.893 -0.1354 -0.2087 -0.0713
 8344DDP     C350063  11.318  12.002  11.295  0.4531  0.1225  0.0904
 8344DDP     C450064  10.842  11.882  10.574 -0.0313 -0.2522 -0.2202
 8345DDP     C150065  12.138  17.987  12.146  0.2722  0.0152 -0.0352
 8345DDP     P150066  12.355  18.263  11.897 -0.2512 -0.2940  0.2234
 8345DDP     P250067  12.542  17.636  12.128  0.2983 -0.0110 -0.1000
 8345DDP     C250068  12.502  17.258  12.002  0.3500  0.1690 -0.0247
 8345DDP     C350069  12.581  17.954  11.728  0.1618  0.0783  0.3020
 8345DDP     C450070  11.686  18.121  12.304  0.0423 -0.1185  0.2423
 8346DDP     C150071  11.355  24.658  14.050 -0.0627  0.3100 -0.0476
 8346DDP     P150072  10.993  24.437  14.148  0.3173 -0.0698 -0.1407
 8346DDP     P250073  11.612  24.348  13.817  0.2634  0.0074 -0.2452
 8346DDP     C250074  11.749  24.009  13.649 -0.0213  0.0529 -0.1040
 8346DDP     C350075  10.718  24.205  13.896 -0.0959 -0.1411  0.1240
 8346DDP     C450076  11.397  25.092  14.220 -0.1532  0.0636  0.0228
 8347DDP     C150077  17.435  27.397  12.425  0.2250  0.3086 -0.0301
 8347DDP     P150078  17.468  27.121  12.804 -0.1802  0.1879 -0.0242
 8347DDP     P250079  17.306  27.706  12.320 -0.2397  0.0298 -0.1293
 8347DDP     C250080  17.467  27.992  12.054 -0.3246  0.2268 -0.2244
 8347DDP     C350081  17.148  26.821  12.972  0.4732 -0.2944  0.0981
 8347DDP     C450082  17.760  27.143  12.171 -0.2122 -0.0970 -0.0354
 8348DDP     C150083   3.032  22.512   3.332  0.2108 -0.1632 -0.0157
 8348DDP     P150084   3.453  22.599   3.316 -0.2731 -0.0490  0.1146
 8348DDP     P250085   2.945  22.223   3.034 -0.1216 -0.1697  0.2446
 8348DDP     C250086   2.535  21.956   2.851  0.0247  0.0659  0.2505
 8348DDP     C350087   3.765  22.886   3.253 -0.1125 -0.2935  0.0376
 8348DDP     C450088   2.740  22.784   3.580  0.2611 -0.0607  0.1396
 8349DDP     C150089   8.343  13.649  18.392 -0.1840 -0.2693  0.2805
 8349DDP     P150090   8.157  13.535  18.759 -0.1256  0.2081  0.4825
 8349DDP     P250091   8.099  13.399  18.063  0.1590  0.2121  0.0611
 8349DDP     C250092   8.041  13.186  17.731  0.3028  0.2543  0.1862
 8349DDP     C350093   7.986  13.502  19.258 -0.1868 -0.0494 -0.1566
 8349DDP     C450094   8.837  13.837  18.399 -0.0299  0.0579  0.2296
 8350DDP     C150095  29.537   8.529  27.382 -0.0239 -0.0494  0.2118
 8350DDP     P150096  29.632   8.625  27.675 -0.1807  0.1265 -0.1969
 8350DDP     P250097  29.799   8.524  27.073 -0.1004  0.1314 -0.2902
 8350DDP     C250098  30.251   8.567  27.028 -0.1310 -0.2173  0.0659
 8350DDP     C350099  29.896   8.941  27.760 -0.0530  0.0268 -0.0122
 8350DDP     C450100  29.227   8.367  27.258 -0.0171 -0.0063  0.6319
 8351DDP     C150101  18.961  20.236  11.935  0.2399 -0.1569 -0.0561
 8351DDP     P150102  18.497  20.293  11.754 -0.1156 -0.0188 -0.2721
 8351DDP     P250103  19.038  19.839  11.995 -0.3370 -0.1859  0.0270
 8351DDP     C250104  19.181  19.452  12.299  0.2325 -0.3465  0.3623
 8351DDP     C350105  18.136  20.108  11.560 -0.0035  0.0616  0.2553
 8351DDP     C450106  19.361  20.388  11.935  0.1031 -0.2029 -0.0426
 8352DDP     C150107   4.260  14.726  22.311 -0.1340 -0.1493 -0.0305
 8352DDP     P150108   4.155  14.896  21.884 -0.1357 -0.0884  0.0204
 8352DDP     P250109   4.209  14.392  22.474 -0.2155  0.1254 -0.1935
 8352DDP     C250110   4.015  14.310  22.871 -0.1285 -0.2823  0.2140
 8352DDP     C350111   3.721  14.940  21.707  0.3846 -0.1518 -0.1229
 8352DDP     C450112   4.322  15.046  22.718 -0.2446  0.2902 -0.0236
 8353DDP     C150113  12.836  12.557  14.649  0.1102  0.0889 -0.0741
 8353DDP     P150114  13.187  12.827  14.840 -0.0905  0.2112  0.0050
 8353DDP     P250115  12.540  12.606  14.371 -0.2153  0.1308 -0.1870
 8353DDP     C250116  12.439  12.505  13.935  0.3531  0.1479  0.2119
 8353DDP     C350117  13.534  13.051  15.070  0.1532  0.0174  0.0449
 8353DDP     C450118  12.838  12.255  14.899  0.3899 -0.2850  0.0593
 8354DDP     C150119  26.456   4.577  15.872  0.1542 -0.0927 -0.1420
 8354DDP     P150120  26.828   4.479  15.958  0.0316 -0.0570 -0.0026
 8354DDP     P250121  26.308   4.452  15.435 -0.1636 -0.0207 -0.1948
 8354DDP     C250122  26.166   4.618  15.002  0.1604 -0.1295  0.0587
 8354DDP     C350123  27.188   4.542  15.781 -0.0533 -0.1228 -0.0496
 8354DDP     C450124  26.190   4.619  16.260  0.1752 -0.0875  0.1130
 8355DDP     C150125  23.873   9.560  28.944  0.0669 -0.2055  0.0154
 8355DDP     P150126  24.228   9.342  28.882 -0.1082  0.0362  0.0414
 8355DDP     P250127  23.780   9.866  28.694 -0.0885  0.0350 -0.1429
 8355DDP     C250128  23.488  10.049  28.314  0.2905  0.0545  0.0930
 8355DDP     C350129  24.393   9.005  29.165  0.0846  0.1119  0.0785
 8355DDP     C450130  23.545   9.413  29.233  0.3420 -0.2902  0.0494
 8356DDP     C150131  15.162  25.426  19.852  0.1330  0.2420 -0.1580
 8356DDP     P150132  15.085  25.076  19.744 -0.0743  0.4548  0.1876
 8356DDP     P250133  15.466  25.418  20.233 -0.2371  0.2378  0.2341
 8356DDP     C250134  15.683  25.367  20.607  0.0285 -0.0076  0.1264
 8356DDP     C350135  15.043  24.625  19.603  0.3145 -0.0290 -0.0909
 8356DDP     C450136  14.803  25.730  19.903 -0.0347 -0.0440  0.0182
 8357DDP     C150137  17.306  13.839  21.587 -0.0655  0.3430 -0.0281
 8357DDP     P150138  17.432  13.501  21.769 -0.0011  0.1889 -0.3370
 8357DDP     P250139  16.971  14.005  21.675 -0.1959  0.3193  0.2008
 8357DDP     C250140  16.683  14.313  21.666 -0.0855 -0.1601  0.3244
 8357DDP     C350141  17.707  13.074  21.979 -0.0291 -0.1583 -0.0195
 8357DDP     C450142  17.453  13.922  21.130 -0.4259 -0.2887 -0.3653
 8358DDP     C150143   3.449  12.744  27.877  0.1474  0.0818  0.5272
 8358DDP     P150144   3.947  12.993  27.941  0.0810  0.1237  0.1116
 8358DDP     P250145   3.414  12.493  27.390 -0.2101  0.3039 -0.1339
 8358DDP     C250146   3.457  12.284  26.996  0.2072  0.0794 -0.0677
 8358DDP     C350147   4.254  13.298  27.838 -0.2372 -0.3319 -0.0362
 8358DDP     C450148   3.292  12.555  28.162 -0.0235 -0.1571  0.0769
 8359DDP     C150149  20.907  27.014  21.133  0.1742 -0.1271  0.5230
 8359DDP     P150150  21.197  26.667  21.129 -0.0013  0.3122  0.0174
 8359DDP     P250151  20.533  26.833  21.016 -0.0091 -0.0800  0.2425
 8359DDP     C250152  20.214  26.754  21.292  0.0960  0.1569 -0.2942
 8359DDP     C350153  21.463  26.513  20.864 -0.1995  0.0511  0.0987
 8359DDP     C450154  21.098  27.434  21.360 -0.0189  0.1918  0.1221
 8360DDP     C150155  22.881   6.025   0.254 -0.0092  0.0799  0.0145
 8360DDP     P150156  22.845   5.723  30.218  0.0029  0.0232 -0.0624
 8360DDP     P250157  23.271   6.186   0.322  0.0363  0.1947 -0.1053
 8360DDP     C250158  23.762   6.249   0.262 -0.1139  0.0211 -0.1152
 8360DDP     C350159  22.909   5.717  29.804  0.1687 -0.1480 -0.2827
 8360DDP     C450160  22.590   6.241   0.635  0.2754 -0.0466  0.1471
 8361DDP     C150161   9.313  18.185   8.029  0.0767 -0.2827  0.2638
 8361DDP     P150162   9.100  18.071   8.448 -0.0966 -0.1130 -0.1312
 8361DDP     P250163   8.993  18.389   7.767 -0.0312 -0.0236  0.0757
 8361DDP     C250164   8.689  18.600   7.899 -0.1590 -0.1459 -0.2633
 8361DDP     C350165   8.831  17.861   8.831 -0.0192  0.2257 -0.0715
 8361DDP     C450166   9.587  18.168   7.628 -0.1583  0.1952  0.3566
 8362DDP     C150167  24.157  22.416   7.609  0.0059  0.5113 -0.0906
 8362DDP     P150168  24.601  22.334   7.423 -0.4533 -0.3730  0.1529
 8362DDP     P250169  23.924  22.564   7.896 -0.1018  0.0965  0.0117
 8362DDP     C250170  23.975  22.353   8.193  0.0726 -0.2199  0.1886
 8362DDP     C350171  24.783  22.026   7.174  0.1328  0.0237  0.0491
 8362DDP     C450172  23.870  22.206   7.380 -0.1321  0.0918  0.3853
 8363DDP     C150173  15.128  23.720  12.579  0.3755 -0.0717  0.1515
 8363DDP     P150174  14.714  23.730  12.788  0.2484  0.1436 -0.1567
 8363DDP     P250175  15.478  23.677  12.940 -0.0241  0.1057 -0.0035
 8363DDP     C250176  15.878  23.402  13.071  0.0005 -0.0294  0.0464
 8363DDP     C350177  14.313  23.976  12.789 -0.4553 -0.0843  0.1985
 8363DDP     C450178  15.275  23.994  12.256 -0.1221  0.0077 -0.2925
 8364DDP     C150179  17.124  18.690  17.526  0.0001 -0.1865 -0.0450
 8364DDP     P150180  17.112  18.303  17.395  0.0176  0.0164 -0.1441
 8364DDP     P250181  17.444  18.975  17.527  0.2495 -0.1149 -0.2470
 8364DDP     C250182  17.825  19.010  17.414 -0.1472 -0.1095  0.0124
 8364DDP     C350183  17.148  18.024  17.261 -0.2815  0.0886 -0.0073
 8364DDP     C450184  16.807  18.952  17.744 -0.1282 -0.1784 -0.1797
 8365DDP     C150185  21.588  26.920  28.234 -0.0263 -0.0777 -0.0729
 8365DDP     P150186  21.380  27.296  28.310 -0.2749  0.2933  0.0847
 8365DDP     P250187  21.330  26.527  28.362 -0.1340  0.0320  0.1406
 8365DDP     C250188  21.227  26.307  28.750 -0.0060  0.1855 -0.1699
 8365DDP     C350189  21.011  27.371  28.504  0.0156  0.4335 -0.2996
 8365DDP     C450190  21.958  26.877  27.978 -0.1259 -0.1286 -0.0335
 8366DDP     C150191  30.365   0.930  28.036  0.3798  0.0642 -0.0289
 8366DDP     P150192   0.084   0.986  27.590 -0.0080  0.0146 -0.2713
 8366DDP     P250193  29.994   0.820  28.287 -0.0371  0.3627 -0.0826
 8366DDP     C250194  29.831   1.009  28.626  0.5921  0.0850 -0.2878
 8366DDP     C350195  30.272   1.085  27.191 -0.1101  0.0045 -0.0507
 8366DDP     C450196   0.366   0.686  28.187 -0.0917 -0.0221 -0.0119
 8367DDP     C150197  22.682   7.038  20.553  0.0386  0.1267 -0.2486
 8367DDP     P150198  22.471   6.670  20.781  0.2494  0.1534 -0.1627
 8367DDP     P250199  23.014   7.248  20.710 -0.0456 -0.2555 -0.0135
 8367DDP     C250200  22.968   7.484  21.076 -0.0781  0.1797 -0.0780
 8367DDP     C350201  22.330   6.329  21.011 -0.0690 -0.0546 -0.0892
 8367DDP     C450202  22.347   7.242  20.282 -0.0277  0.1542 -0.0277
 8368DDP     C150203   9.285   6.682  25.642 -0.0367 -0.1132 -0.1290
 8368DDP     P150204   9.613   6.701  25.691 -0.1928  0.2395 -0.0018
 8368DDP     P250205   9.156   6.588  26.038  0.0225  0.4810 -0.0271
 8368DDP     C250206   8.811   6.656  26.312  0.0352  0.1128  0.0744
 8368DDP     C350207   9.943   6.732  25.899  0.1451 -0.2578 -0.1672
 8368DDP     C450208   9.140   6.901  25.305 -0.0333  0.4111 -0.0285
 8369DDP     C150209  29.167  20.335   1.456 -0.1157  0.1281 -0.0518
 8369DDP     P150210  29.614  20.303   1.571  0.3610  0.2403 -0.0401
 8369DDP     P250211  29.148  20.585   1.234 -0.2579  0.1410 -0.0653
 8369DDP     C250212  29.271  20.813   0.855 -0.1987 -0.0139  0.1871
 8369DDP     C350213  29.893  20.364   1.296  0.0593  0.0051  0.2335
 8369DDP     C450214  28.827  20.114   1.628 -0.1123  0.4336 -0.1862
 8370DDP     C150215  12.330  19.291  18.335  0.2793 -0.2279 -0.0941
 8370DDP     P150216  11.969  19.203  18.172 -0.1446 -0.0516  0.2356
 8370DDP     P250217  12.578  19.422  18.045 -0.1312 -0.3196 -0.0608
 8370DDP     C250218  12.813  19.227  17.716  0.4358 -0.2535 -0.0371
 8370DDP     C350219  11.640  19.469  17.940  0.1142 -0.2193  0.0271
 8370DDP     C450220  12.458  19.390  18.763  0.2600 -0.0433 -0.1690
 8371DDP     C150221  21.963   9.712  21.764  0.0537 -0.0467 -0.0740
 8371DDP     P150222  22.243   9.932  21.897 -0.2259 -0.1146  0.0063
 8371DDP     P250223  21.739   9.921  21.514  0.0785  0.1633 -0.1180
 8371DDP     C250224  21.380   9.949  21.086 -0.2860  0.0253 -0.2554
 8371DDP     C350225  22.448  10.356  22.010 -0.1375 -0.0199 -0.0871
 8371DDP     C450226  21.859   9.386  22.182  0.4757 -0.0220 -0.4235
 8372DDP     C150227  20.636  16.229  19.382  0.2186 -0.1269  0.0223
 8372DDP     P150228  21.092  16.251  19.556 -0.1748 -0.3058 -0.0614
 8372DDP     P250229  20.378  16.613  19.320  0.0593 -0.1108 -0.0923
 8372DDP     C250230  20.051  16.842  19.134  0.0075  0.0968  0.0752
 8372DDP     C350231  21.544  16.204  19.733  0.0773 -0.0827  0.2671
 8372DDP     C450232  20.429  15.868  19.199 -0.1561  0.0668 -0.1805
 8373DDP     C150233  25.986  29.679   6.593  0.0220 -0.1090 -0.0542
 8373DDP     P150234  26.023  29.824   6.967  0.0215  0.0153 -0.1837
 8373DDP     P250235  26.265  29.556   6.335 -0.1487  0.2446 -0.1930
 8373DDP     C250236  26.733  29.364   6.128  0.2285  0.2579 -0.0841
 8373DDP     C350237  26.394  29.667   7.246 -0.0256  0.0710 -0.2063
 8373DDP     C450238  25.613  29.620   6.417  0.1860  0.0055  0.1812
 8374DDP     C150239  25.276  23.719  19.384  0.0825  0.0945 -0.2037
 8374DDP     P150240  25.613  23.925  19.125  0.0591  0.1548  0.4784
 8374DDP     P250241  25.277  23.479  19.730  0.0941  0.1033 -0.1217
 8374DDP     C250242  25.064  23.303  20.039  0.1641  0.1050 -0.3817
 8374DDP     C350243  25.958  24.143  18.922 -0.2236  0.0180  0.3160
 8374DDP     C450244  24.936  23.949  19.290  0.2091  0.0052  0.1767
 8375DDP     C150245  18.953  21.808  24.252  0.1197 -0.3318  0.1327
 8375DDP     P150246  19.138  21.467  24.046 -0.0205 -0.2217 -0.2465
 8375DDP     P250247  18.931  21.823  24.710  0.3037  0.2656  0.3011
 8375DDP     C250248  18.929  21.802  25.101  0.0506  0.1358 -0.0603
 8375DDP     C350249  19.393  21.209  24.278  0.0799 -0.1618  0.0993
 8375DDP     C450250  18.630  21.940  23.986 -0.0896 -0.0362  0.1161
 8376DDP     C150251  13.443   5.087  11.151 -0.1772 -0.2710  0.0780
 8376DDP     P150252  13.480   4.582  11.172 -0.2133 -0.0691  0.0534
 8376DDP     P250253  13.703   5.327  10.870  0.0288 -0.2231 -0.0771
 8376DDP     C250254  14.161   5.287  10.996 -0.1702 -0.0162 -0.1671
 8376DDP     C350255  13.837   4.423  11.254  0.0713 -0.1356 -0.0904
 8376DDP     C450256  13.071   5.328  11.316 -0.1683  0.0481 -0.2308
 8377DDP     C150257  20.963  18.589  17.670  0.0410  0.0974 -0.0010
 8377DDP     P150258  21.296  18.511  17.338  0.2231 -0.0834  0.0471
 8377DDP     P250259  20.724  18.239  17.779  0.0595  0.1170  0.0453
 8377DDP     C250260  20.274  18.119  17.774 -0.2589 -0.1135 -0.2311
 8377DDP     C350261  21.459  18.694  17.011  0.0084 -0.0686  0.0288
 8377DDP     C450262  20.770  19.071  17.675 -0.0194 -0.0975  0.3898
 8378DDP     C150263  13.367  26.932   1.776  0.1037 -0.2850  0.0728
 8378DDP     P150264  13.631  26.732   1.613  0.1849  0.0933  0.1180
 8378DDP     P250265  13.183  27.164   1.470 -0.1155 -0.1924 -0.0904
 8378DDP     C250266  13.228  27.504   1.179  0.1898  0.4039  0.2669
 8378DDP     C350267  13.702  26.361   1.546  0.0473 -0.0223 -0.2168
 8378DDP     C450268  13.191  26.694   2.200  0.2133 -0.2260 -0.1476
 8379DDP     C150269   4.758  20.020   5.941 -0.2134 -0.2361  0.0969
 8379DDP     P150270   4.354  20.127   5.829 -0.2806  0.0096  0.0210
 8379DDP     P250271   4.981  19.798   5.638  0.1206  0.1002  0.2783
 8379DDP     C250272   5.181  19.661   5.303  0.0718  0.3049 -0.0230
 8379DDP     C350273   4.063  20.412   6.159 -0.1512  0.0663 -0.0626
 8379DDP     C450274   4.723  19.974   6.286  0.1428 -0.1748 -0.0004
 8380DDP     C150275   3.712  15.173  16.442  0.0455 -0.0418  0.3091
 8380DDP     P150276   4.043  14.897  16.678  0.1746 -0.0451  0.5361
 8380DDP     P250277   3.408  15.579  16.606 -0.2213 -0.0821 -0.2271
 8380DDP     C250278   3.326  15.983  16.656  0.0604  0.3071  0.0476
 8380DDP     C350279   4.202  14.509  16.553  0.0588 -0.0190 -0.0880
 8380DDP     C450280   3.837  15.178  16.039 -0.2553 -0.4233  0.0869
 8381DDP     C150281  19.425   6.229  23.441 -0.3435  0.3593 -0.0074
 8381DDP     P150282  19.006   6.191  23.389  0.1328  0.1613  0.4566
 8381DDP     P250283  19.588   6.000  23.175  0.0785 -0.2485  0.1206
 8381DDP     C250284  19.745   5.694  22.915 -0.3523 -0.0492  0.1641
 8381DDP     C350285  18.750   6.102  23.740  0.2551  0.4529 -0.1811
 8381DDP     C450286  19.383   6.234  23.913  0.0864  0.0364  0.1376
 8382DDP     C150287  18.168  30.149  18.198  0.0217  0.1029  0.2736
 8382DDP     P150288  18.563  30.202  18.234  0.0944 -0.1817 -0.0549
 8382DDP     P250289  18.020  29.812  18.022 -0.1240  0.0543 -0.1332
 8382DDP     C250290  17.739  29.534  18.151  0.0926  0.0604  0.0467
 8382DDP     C350291  18.800   0.015  17.863  0.1963 -0.1987 -0.0075
 8382DDP     C450292  17.941  30.303  18.602 -0.2123  0.0876  0.0019
 8383DDP     C150293   5.875  15.942  27.296  0.3336  0.0411  0.0044
 8383DDP     P150294   5.544  16.286  27.123 -0.1305 -0.0587  0.3179
 8383DDP     P250295   6.163  16.077  27.628  0.0331 -0.1822  0.1150
 8383DDP     C250296   6.564  16.146  27.640 -0.1559  0.1845 -0.4253
 8383DDP     C350297   5.148  16.139  27.020 -0.0074 -0.3217 -0.0615
 8383DDP     C450298   5.988  15.527  27.175 -0.0420  0.1391 -0.1972
 8384DDP     C150299   7.974   6.581   0.110 -0.1900 -0.0672  0.1589
 8384DDP     P150300   7.657   6.747  30.184  0.1090  0.1969  0.2384
 8384DDP     P250301   8.240   6.235  -0.008 -0.0517  0.1219 -0.1356
 8384DDP     C250302   8.516   5.824  30.236  0.0476 -0.0008  0.4404
 8384DDP     C350303   7.278   6.886  30.238 -0.2307 -0.1059  0.4428
 8384DDP     C450304   7.784   6.477   0.474  0.0412  0.0204 -0.1902
 8385DDP     C150305   2.299  13.410  28.778 -0.1318 -0.1274 -0.0746
 8385DDP     P150306   1.830  13.335  28.862  0.4178 -0.0313 -0.0763
 8385DDP     P250307   2.554  13.501  29.124  0.1375  0.0231 -0.1016
 8385DDP     C250308   2.510  13.760  29.498  0.0135 -0.0447  0.0860
 8385DDP     C350309   1.492  13.196  28.939 -0.3327 -0.1522 -0.1079
 8385DDP     C450310   2.300  13.257  28.348  0.0973  0.0331  0.1681
 8386DDP     C150311  12.594   1.574  12.603 -0.0637  0.1048  0.1439
 8386DDP     P150312  12.937   1.460  12.782  0.1393  0.2771 -0.1015
 8386DDP     P250313  12.314   1.323  12.190  0.0636 -0.0578  0.0714
 8386DDP     C250314  12.212   1.415  11.709  0.0612 -0.0241  0.3944
 8386DDP     C350315  12.922   1.114  13.085 -0.1655  0.3250 -0.0371
 8386DDP     C450316  12.296   1.868  12.832  0.0136 -0.2364  0.1561
 8387DDP     C150317  19.794  28.660  24.520  0.1683 -0.0282 -0.0973
 8387DDP     P150318  20.094  28.850  24.179 -0.0535  0.0419  0.0223
 8387DDP     P250319  19.945  28.313  24.777  0.3405 -0.2746  0.0590
 8387DDP     C250320  20.135  28.261  25.118  0.1740 -0.3096  0.1987
 8387DDP     C350321  20.344  28.584  23.854  0.0725 -0.1023 -0.1425
 8387DDP     C450322  19.525  28.957  24.608 -0.0454 -0.5684  0.2032
 8388DDP     C150323  21.408  26.728  20.121  0.0772 -0.0385  0.0449
 8388DDP     P150324  21.172  26.342  19.907 -0.0111  0.0652  0.0751
 8388DDP     P250325  21.593  26.919  20.543 -0.0042 -0.4383  0.0623
 8388DDP     C250326  21.970  26.779  20.828 -0.2076 -0.2701  0.0434
 8388DDP     C350327  21.075  25.852  20.030 -0.0174 -0.1743  0.0552
 8388DDP     C450328  21.386  26.929  19.720  0.1433 -0.1270 -0.3783
 8389DDP     C150329   4.312  12.890  15.388  0.1125 -0.2553  0.0312
 8389DDP     P150330   3.892  12.751  15.263 -0.0600  0.1399 -0.0584
 8389DDP     P250331   4.067  13.252  15.586  0.3618  0.3573  0.0422
 8389DDP     C250332   3.985  13.465  15.948  0.0797 -0.2894 -0.1341
 8389DDP     C350333   3.838  12.408  15.093  0.1170  0.2438 -0.0487
 8389DDP     C450334   4.644  12.602  15.486 -0.0463 -0.0286  0.0658
 8390DDP     C150335  20.729  26.758  27.814  0.2356 -0.1656  0.0576
 8390DDP     P150336  20.798  26.587  28.275 -0.2700  0.1306 -0.0974
 8390DDP     P250337  20.971  26.685  27.577  0.3416  0.1691  0.0220
 8390DDP     C250338  20.865  26.519  27.141  0.1986  0.2058 -0.5821
 8390DDP     C350339  20.957  26.763  28.687 -0.0836 -0.1892 -0.0466
 8390DDP     C450340  20.279  26.825  27.793  0.2226 -0.2980 -0.1130
 8391DDP     C150341  13.616  13.270  14.188 -0.0822  0.0663 -0.0100
 8391DDP     P150342  13.569  13.469  13.886 -0.0533 -0.2113 -0.0956
 8391DDP     P250343  13.573  13.474  14.660  0.0158  0.1172  0.0934
 8391DDP     C250344  13.651  13.808  14.951 -0.4254  0.0776 -0.1367
 8391DDP     C350345  13.628  13.711  13.439  0.0959  0.2268 -0.2747
 8391DDP     C450346  13.771  12.897  14.137 -0.1359 -0.0983 -0.2786
 8392DDP     C150347  28.924   6.352  27.258  0.0378 -0.0977  0.1591
 8392DDP     P150348  28.541   6.546  27.422  0.1543  0.1908 -0.0604
 8392DDP     P250349  29.069   6.020  27.465  0.0918  0.2141 -0.2430
 8392DDP     C250350  29.551   5.946  27.506  0.1978 -0.4614  0.1754
 8392DDP     C350351  28.125   6.455  27.625  0.1801  0.0434 -0.2755
 8392DDP     C450352  29.042   6.544  26.918 -0.1140  0.1110 -0.0646
 8393DDP     C150353  24.689  28.927  29.439 -0.0444 -0.2340 -0.2113
 8393DDP     P150354  24.937  28.547  29.268  0.2646  0.2241  0.0968
 8393DDP     P250355  24.777  29.274  29.266 -0.1825 -0.4200 -0.3783
 8393DDP     C250356  24.977  29.482  28.939 -0.2460  0.0580  0.1529
 8393DDP     C350357  25.208  28.248  29.064 -0.2072 -0.0789  0.0092
 8393DDP     C450358  24.373  28.932  29.780  0.1969 -0.3401  0.1221
 8394DDP     C150359   1.843  21.856   9.926 -0.1349  0.4110 -0.1646
 8394DDP     P150360   2.139  21.623  10.150 -0.0081  0.0845 -0.0323
 8394DDP     P250361   1.969  22.264   9.970 -0.2510 -0.1087  0.2756
 8394DDP     C250362   1.979  22.711  10.197  0.0443 -0.1251 -0.2947
 8394DDP     C350363   2.488  21.558  10.391 -0.1860 -0.0468 -0.1693
 8394DDP     C450364   1.419  21.676   9.855  0.1399  0.0013  0.0431
 8395DDP     C150365  26.350   0.228  21.850  0.4476  0.1224  0.0028
 8395DDP     P150366  26.348   0.624  21.793  0.2157  0.1384 -0.0360
 8395DDP     P250367  26.307  30.152  21.584  0.3720 -0.0096 -0.2474
 8395DDP     C250368  26.095  29.781  21.701  0.0421  0.2256  0.2589
 8395DDP     C350369  26.288   1.165  21.758  0.2140 -0.3559  0.2493
 8395DDP     C450370  26.705   0.196  22.240 -0.2091 -0.0026 -0.2251
 8396DDP     C150371   6.418  20.481  16.826 -0.4259 -0.4147 -0.1184
 8396DDP     P150372   6.528  20.834  17.073 -0.2050  0.0605 -0.1085
 8396DDP     P250373   6.765  20.133  16.699 -0.2592  0.1408 -0.1930
 8396DDP     C250374   7.183  19.970  16.737  0.1780 -0.1686 -0.0790
 8396DDP     C350375   6.613  21.183  17.355 -0.2316  0.2067  0.1361
 8396DDP     C450376   5.947  20.583  16.656 -0.1313 -0.2124  0.0746
 8397DDP     C150377  20.205  28.406  11.588 -0.0322  0.2834  0.0746
 8397DDP     P150378  20.183  28.407  11.179 -0.1380 -0.0345  0.1920
 8397DDP     P250379  20.483  28.124  11.591 -0.2984  0.1168  0.1234
 8397DDP     C250380  20.603  27.774  11.820  0.0799 -0.1878 -0.0336
 8397DDP     C350381  19.938  28.197  10.834  0.1119 -0.1060  0.0420
 8397DDP     C450382  20.104  28.857  11.765 -0.2214  0.3111  0.1960
 8398DDP     C150383  10.736  19.628  23.337  0.1386 -0.1612  0.2460
 8398DDP     P150384  10.620  19.932  23.729 -0.0683 -0.1706 -0.1038
 8398DDP     P250385  10.971  19.792  22.943  0.0973  0.1507 -0.0846
 8398DDP     C250386  11.160  19.681  22.686 -0.0953  0.0361  0.1480
 8398DDP     C350387  10.791  20.112  24.073  0.1390 -0.2699 -0.1112
 8398DDP     C450388  10.791  19.161  23.425 -0.0715 -0.2830 -0.0019
 8399DDP     C150389  19.462  24.109  21.631 -0.0194 -0.1158  0.1707
 8399DDP     P150390  19.138  24.464  21.737  0.0908 -0.0342  0.0845
 8399DDP     P250391  19.233  23.822  21.401  0.1555 -0.0197 -0.0893
 8399DDP     C250392  19.045  23.532  21.111  0.3229  0.4498 -0.0893
 8399DDP     C350393  18.888  24.803  21.618 -0.0837  0.3528 -0.1518
 8399DDP     C450394  19.846  23.968  21.879 -0.0096 -0.0414  0.0823
 8400DDP     C150395  27.120   5.924  10.204 -0.1194 -0.1111  0.3629
 8400DDP     P150396  27.065   6.308  10.349 -0.3299  0.0598 -0.1148
 8400DDP     P250397  27.103   5.509  10.405 -0.3234 -0.1698  0.1433
 8400DDP     C250398  27.209   5.124  10.424 -0.1546 -0.0940  0.1615
 8400DDP     C350399  26.959   6.441  10.725  0.1419  0.0938 -0.1585
 8400DDP     C450400  27.363   5.910   9.724  0.0221  0.0329  0.0368
 8401DDP     C150401  22.746   5.983  26.098 -0.0062 -0.0229 -0.1110
 8401DDP     P150402  22.513   6.213  25.848  0.1251 -0.1458 -0.1886
 8401DDP     P250403  22.964   6.071  26.453 -0.0641  0.3199 -0.1133
 8401DDP     C250404  23.323   6.060  26.727  0.1027 -0.1886 -0.2347
 8401DDP     C350405  22.378   6.536  25.585  0.1476  0.0829  0.4248
 8401DDP     C450406  22.608   5.518  26.086  0.2591  0.0191 -0.2181
 8402DDP     C150407  24.608  19.777  11.624  0.0184  0.1233 -0.3162
 8402DDP     P150408  24.617  19.289  11.542 -0.1453  0.1995  0.1193
 8402DDP     P250409  24.794  20.133  11.454  0.0992  0.1735  0.0524
 8402DDP     C250410  24.916  20.329  11.004 -0.0092  0.0708 -0.0358
 8402DDP     C350411  24.564  18.904  11.834 -0.3981  0.1719 -0.0833
 8402DDP     C450412  24.208  19.899  11.818 -0.2156  0.0999 -0.0580
 8403DDP     C150413  17.564   7.328  21.180  0.2487  0.1896  0.0834
 8403DDP     P150414  17.438   7.657  21.419 -0.1534  0.0978 -0.1455
 8403DDP     P250415  17.457   7.566  20.717 -0.0784 -0.1067 -0.0359
 8403DDP     C250416  17.226   7.463  20.309  0.1167 -0.2832  0.1770
 8403DDP     C350417  17.194   7.980  21.714  0.2057  0.0095 -0.0629
 8403DDP     C450418  17.875   6.995  21.288 -0.1265 -0.0747 -0.3660
 8404DDP     C150419  15.598   1.857   6.639 -0.1937 -0.1068  0.0618
 8404DDP     P150420  15.848   1.788   7.028 -0.0887  0.1292 -0.2114
 8404DDP     P250421  15.553   2.360   6.756 -0.0700  0.3663 -0.0005
 8404DDP     C250422  15.574   2.652   7.110 -0.1752 -0.1895 -0.0226
 8404DDP     C350423  16.185   2.045   7.281  0.1987 -0.2804 -0.2967
 8404DDP     C450424  15.679   1.632   6.296  0.0891  0.1477  0.2011
 8405DDP     C150425  18.466  15.227   5.788 -0.2318 -0.0079  0.0435
 8405DDP     P150426  18.680  15.514   5.524 -0.0257  0.2024  0.3238
 8405DDP     P250427  18.138  14.900   5.758 -0.0946  0.0604  0.0296
 8405DDP     C250428  18.043  14.609   6.053 -0.0066  0.2017 -0.0989
 8405DDP     C350429  18.494  15.783   5.374  0.1645 -0.1050 -0.1097
 8405DDP     C450430  18.587  15.289   6.255 -0.1064  0.0728  0.3390
 8406DDP     C150431   3.798  28.350  14.570 -0.1211  0.2230  0.2849
 8406DDP     P150432   3.572  27.969  14.592  0.1361  0.1165  0.3781
 8406DDP     P250433   3.754  28.700  14.898 -0.0624  0.2785  0.3156
 8406DDP     C250434   3.403  28.854  15.137 -0.2125 -0.2752 -0.3610
 8406DDP     C350435   3.553  27.465  14.681 -0.1781  0.0719 -0.2199
 8406DDP     C450436   4.069  28.383  14.256 -0.2922  0.0434  0.1098
 8407DDP     C150437  10.235   2.671  20.926  0.1919  0.0221  0.0836
 8407DDP     P150438  10.428   2.810  20.619  0.1523  0.1227  0.1338
 8407DDP     P250439   9.835   2.637  21.073  0.0230 -0.0690  0.1260
 8407DDP     C250440   9.580   2.275  21.187 -0.1712  0.2909 -0.0196
 8407DDP     C350441  10.363   2.790  20.073 -0.0759  0.0326 -0.3244
 8407DDP     C450442  10.529   2.304  21.091  0.0677 -0.5387  0.3152
 8408DDP     C150443  17.045   3.562  29.958  0.1017  0.0182  0.1959
 8408DDP     P150444  16.585   3.377  30.074  0.1005  0.0296  0.1348
 8408DDP     P250445  17.174   3.975  29.681  0.0584  0.2436  0.2190
 8408DDP     C250446  17.216   4.208  29.227 -0.1115  0.2545  0.0317
 8408DDP     C350447  16.163   3.340  30.202 -0.3617  0.1770  0.3367
 8408DDP     C450448  17.216   3.187  29.849  0.1824  0.1249 -0.0223
 8409DDP     C150449  17.771   1.449   6.729  0.0015 -0.1284 -0.3447
 8409DDP     P150450  17.408   1.502   6.943 -0.0154 -0.3034  0.1620
 8409DDP     P250451  17.891   1.542   6.311  0.1007 -0.4023 -0.1562
 8409DDP     C250452  18.202   1.475   6.038 -0.0659  0.3314  0.3879
 8409DDP     C350453  17.235   1.171   7.291 -0.0149 -0.0671  0.2034
 8409DDP     C450454  18.014   1.488   6.980 -0.2570 -0.0255  0.1830
 8410DDP     C150455  23.579  23.714  14.346 -0.0610 -0.0632 -0.0900
 8410DDP     P150456  23.983  23.779  14.272  0.0839 -0.0898 -0.0626
 8410DDP     P250457  23.559  23.636  14.733 -0.3557  0.2341 -0.1546
 8410DDP     C250458  23.906  23.513  15.027  0.2698 -0.0103  0.0473
 8410DDP     C350459  24.416  23.886  14.575  0.2375 -0.0940 -0.4078
 8410DDP     C450460  23.181  23.774  14.140 -0.2177  0.0016  0.1686
 8411DDP     C150461  24.601  13.117  14.070 -0.2986  0.3602  0.0790
 8411DDP     P150462  24.283  13.104  14.271 -0.2489  0.1877  0.1101
 8411DDP     P250463  24.603  13.414  14.009 -0.1465  0.0604 -0.2381
 8411DDP     C250464  24.285  13.731  13.821  0.1113  0.2296  0.0907
 8411DDP     C350465  23.890  12.910  14.384 -0.3395  0.1369  0.1720
 8411DDP     C450466  24.886  12.969  13.783  0.0166  0.4187 -0.1036
 8412DDP     C150467  10.205  27.285  15.161  0.1856 -0.0842  0.0709
 8412DDP     P150468  10.179  27.023  15.480  0.1810  0.3271 -0.0692
 8412DDP     P250469   9.871  27.657  15.127  0.1133 -0.0728  0.0784
 8412DDP     C250470   9.674  27.968  15.137  0.1199 -0.0137 -0.0360
 8412DDP     C350471  10.084  26.682  15.629  0.0429 -0.3094  0.0029
 8412DDP     C450472  10.521  27.343  14.854 -0.2924  0.1178 -0.0496
 8413DDP     C150473  20.581   5.049   6.824  0.0124 -0.1398 -0.3186
 8413DDP     P150474  20.835   5.429   7.129 -0.2170 -0.0178 -0.2174
 8413DDP     P250475  20.202   4.981   6.848  0.1561 -0.0237  0.2536
 8413DDP     C250476  19.909   5.099   6.490  0.2404 -0.1181  0.1537
 8413DDP     C350477  21.025   5.578   7.417  0.2393 -0.1044  0.0398
 8413DDP     C450478  20.749   4.591   6.777 -0.1918  0.2581  0.0677
 8414DDP     C150479   5.562   6.294  10.867 -0.1842  0.0182  0.2141
 8414DDP     P150480   5.651   6.776  10.822 -0.3103 -0.0437 -0.0465
 8414DDP     P250481   5.167   6.486  10.692  0.0137  0.1496  0.0023
 8414DDP     C250482   5.147   6.844  10.425  0.1428 -0.0542 -0.2430
 8414DDP     C350483   5.747   7.168  10.981  0.3714 -0.0357  0.1095
 8414DDP     C450484   5.715   5.914  11.039 -0.1640  0.0087  0.2678
 8415DDP     C150485  22.870   1.604  24.568  0.1874 -0.1116 -0.2223
 8415DDP     P150486  22.590   1.473  24.303  0.0885 -0.1096  0.0587
 8415DDP     P250487  23.192   1.270  24.682  0.0423  0.0264 -0.3619
 8415DDP     C250488  23.574   1.059  24.607  0.0183  0.1968  0.2459
 8415DDP     C350489  22.159   1.664  24.167  0.1159 -0.1014 -0.2045
 8415DDP     C450490  22.622   1.737  24.962  0.1343 -0.1423  0.0478
 8416DDP     C150491  10.804   1.944  18.921  0.1955 -0.1712 -0.0446
 8416DDP     P150492  10.827   1.629  19.265  0.1046  0.0245 -0.2012
 8416DDP     P250493  11.020   1.842  18.679 -0.1280  0.0936  0.3599
 8416DDP     C250494  11.046   1.501  18.355 -0.0925  0.0878  0.1149
 8416DDP     C350495  10.962   1.743  19.668  0.2534 -0.1472 -0.2211
 8416DDP     C450496  10.366   2.045  18.971  0.1399 -0.0491  0.0908
 8417DDP     C150497   3.938  10.315   5.296 -0.0904  0.1284  0.0219
 8417DDP     P150498   4.100  10.498   5.594  0.0377  0.1953 -0.1442
 8417DDP     P250499   3.642  10.593   5.166  0.1876 -0.0598 -0.2636
 8417DDP     C250500   3.505  11.000   5.000 -0.0305 -0.3455  0.3644
 8417DDP     C350501   4.526  10.511   5.728 -0.1200 -0.2046  0.4404
 8417DDP     C450502   4.155   9.970   4.960 -0.2621  0.0402 -0.1673
 8418DDP     C150503  24.793  21.207  20.061 -0.1285  0.0821 -0.0892
 8418DDP     P150504  24.593  21.361  20.428  0.1728 -0.0938 -0.4162
 8418DDP     P250505  24.664  20.906  19.787  0.4954  0.0091 -0.1689
 8418DDP     C250506  24.547  20.657  19.560  0.0605  0.1664 -0.0971
 8418DDP     C350507  24.748  21.333  20.886 -0.4232  0.1296  0.0958
 8418DDP     C450508  24.828  21.480  19.780 -0.1082  0.3548  0.1385
 8419DDP     C150509  13.831  15.514   4.584  0.0308  0.0676 -0.3918
 8419DDP     P150510  13.559  15.314   4.309  0.0540 -0.1760 -0.1227
 8419DDP     P250511  13.884  15.283   4.979 -0.2316  0.0387  0.3294
 8419DDP     C250512  13.840  15.004   5.385 -0.3282 -0.1050 -0.3781
 8419DDP     C350513  13.627  14.982   3.997 -0.2013  0.1487  0.0422
 8419DDP     C450514  13.898  15.966   4.459  0.2376 -0.0161 -0.1565
 8420DDP     C150515  27.276  30.221   3.103  0.1458  0.0549 -0.2719
 8420DDP     P150516  27.577  30.224   2.768  0.0589  0.0737 -0.2250
 8420DDP     P250517  27.052   0.287   3.171  0.2395  0.0518 -0.2515
 8420DDP     C250518  27.027   0.719   3.069  0.0548 -0.1892  0.0619
 8420DDP     C350519  27.841  30.078   2.370 -0.0656 -0.0515  0.2491
 8420DDP     C450520  27.208  29.797   3.311  0.0165 -0.1350  0.0424
 8421DDP     C150521   7.000  23.756  14.595  0.2400 -0.0209 -0.0047
 8421DDP     P150522   6.945  23.920  14.929 -0.0667  0.0269 -0.2622
 8421DDP     P250523   6.705  23.421  14.565  0.5977 -0.1557  0.1416
 8421DDP     C250524   6.279  23.259  14.596 -0.3985 -0.0632 -0.0374
 8421DDP     C350525   6.927  24.317  15.120  0.0422 -0.2942 -0.3306
 8421DDP     C450526   7.050  24.019  14.269 -0.0481  0.5127 -0.0612
 8422DDP     C150527  26.942  29.153  26.823  0.1797 -0.2686 -0.0854
 8422DDP     P150528  27.319  29.252  26.551  0.0575  0.3481 -0.1111
 8422DDP     P250529  26.863  29.460  27.168 -0.0903 -0.1335 -0.1517
 8422DDP     C250530  26.844  29.939  27.223  0.0843  0.0793  0.1458
 8422DDP     C350531  27.467  29.146  26.080  0.1561  0.0750  0.0185
 8422DDP     C450532  26.751  28.827  26.593 -0.3087 -0.0206  0.1515
 8423DDP     C150533  20.191  14.697  10.125  0.0498 -0.0189  0.2669
 8423DDP     P150534  20.049  14.885   9.788 -0.3229  0.0909  0.0498
 8423DDP     P250535  20.553  14.415  10.099 -0.0353 -0.0548  0.0458
 8423DDP     C250536  20.719  14.150   9.721  0.0938  0.3173  0.0380
 8423DDP     C350537  20.417  15.096   9.487 -0.1047 -0.1855 -0.0806
 8423DDP     C450538  19.982  14.595  10.535 -0.1020  0.2502 -0.3664
 8424DDP     C150539  10.158  17.817   6.134 -0.0597 -0.2150 -0.1842
 8424DDP     P150540  10.503  18.090   6.111 -0.1646 -0.3499  0.0897
 8424DDP     P250541   9.921  17.587   6.451 -0.3710  0.1667  0.1394
 8424DDP     C250542   9.574  17.365   6.452 -0.1743  0.1099 -0.0892
 8424DDP     C350543  10.536  18.508   6.117  0.0767  0.2031 -0.2064
 8424DDP     C450544  10.013  17.614   5.789  0.0828 -0.0905 -0.0501
 8425DDP     C150545   6.241  21.211  18.008  0.1355  0.1819  0.0950
 8425DDP     P150546   5.763  21.234  18.218  0.3494  0.0956  0.1403
 8425DDP     P250547   6.125  21.123  17.547 -0.2186 -0.2010  0.2755
 8425DDP     C250548   5.980  21.360  17.162  0.1703  0.1750 -0.0631
 8425DDP     C350549   5.301  21.156  18.353 -0.2011  0.0001 -0.0485
 8425DDP     C450550   6.691  21.218  18.005  0.2532 -0.1930  0.1668
 8426DDP     C150551  25.895  16.018   8.572  0.0113  0.1192  0.0084
 8426DDP     P150552  26.125  16.335   8.250 -0.0658  0.2083 -0.2152
 8426DDP     P250553  25.731  15.662   8.466  0.0373  0.0149 -0.3861
 8426DDP     C250554  25.668  15.214   8.280  0.2205 -0.2048 -0.0168
 8426DDP     C350555  26.084  16.450   7.837  0.3047 -0.2248  0.1337
 8426DDP     C450556  26.021  16.182   8.929  0.0671  0.0496 -0.0388
 8427DDP     C150557  -0.007  19.057  13.177 -0.1724 -0.1791  0.2596
 8427DDP     P150558   0.088  18.733  12.995 -0.1084 -0.0472 -0.1169
 8427DDP     P250559  29.959  19.119  13.384  0.2936  0.3009 -0.0921
 8427DDP     C250560  29.692  18.938  13.696  0.2433  0.0018 -0.0537
 8427DDP     C350561   0.281  18.279  12.841 -0.2385  0.0487 -0.1490
 8427DDP     C450562   0.343  19.320  13.294  0.1310  0.1379 -0.1776
 8428DDP     C150563  29.522  24.490  19.511 -0.3391 -0.0801  0.2102
 8428DDP     P150564  29.426  25.063  19.554 -0.0970 -0.3108 -0.1860
 8428DDP     P250565  29.407  24.290  19.093 -0.0595  0.0691  0.0159
 8428DDP     C250566  29.423  23.799  18.969  0.1564  0.0471 -0.1145
 8428DDP     C350567  29.015  25.339  19.513  0.0219  0.0759  0.0443
 8428DDP     C450568  29.434  24.328  19.948  0.2754 -0.1012  0.1186
 8429DDP     C150569   9.171  15.133  26.788 -0.1300  0.0033  0.0751
 8429DDP     P150570   9.236  15.289  26.439  0.1661 -0.0638  0.3901
 8429DDP     P250571   9.494  14.751  26.771  0.1914 -0.2135  0.1106
 8429DDP     C250572   9.895  14.644  26.925  0.0347  0.1214  0.0888
 8429DDP     C350573   8.970  15.481  26.102  0.1188  0.2292  0.2347
 8429DDP     C450574   8.705  15.239  27.056 -0.0512  0.0025  0.1273
 8430DDP     C150575   2.434  24.997  16.468 -0.1673  0.1876  0.1651
 8430DDP     P150576   2.876  24.927  16.277 -0.0339 -0.0952  0.0305
 8430DDP     P250577   2.212  24.864  16.754  0.3123  0.0646  0.0406
 8430DDP     C250578   1.749  24.857  16.910 -0.1362 -0.1193  0.3107
 8430DDP     C350579   3.376  25.024  16.308 -0.1475  0.2233 -0.1504
 8430DDP     C450580   2.515  25.465  16.574 -0.3163  0.0080  0.1768
 8431DDP     C150581  12.163  20.035   6.536 -0.1011 -0.0113 -0.1223
 8431DDP     P150582  11.848  20.075   6.354  0.1578  0.0835  0.1567
 8431DDP     P250583  12.454  19.882   6.556  0.0186  0.0520 -0.0464
 8431DDP     C250584  12.809  19.950   6.212  0.2237 -0.1642  0.3803
 8431DDP     C350585  11.394  20.175   6.340  0.1644  0.0226  0.1507
 8431DDP     C450586  12.002  20.219   6.809  0.0608  0.3777  0.0899
 8432DDP     C150587  24.605  10.338  13.476  0.4113  0.1157 -0.1435
 8432DDP     P150588  25.021  10.464  13.508 -0.1293  0.1452 -0.1907
 8432DDP     P250589  24.456  10.099  13.727 -0.0423 -0.0374  0.1171
 8432DDP     C250590  24.267  10.156  14.104  0.0834 -0.0100  0.0984
 8432DDP     C350591  25.424  10.412  13.246 -0.1638  0.1988 -0.1175
 8432DDP     C450592  24.201  10.563  13.200 -0.1482  0.0078  0.0916
 8433DDP     C150593  22.425   8.222  20.930  0.0366 -0.0316  0.2926
 8433DDP     P150594  22.799   7.949  20.938  0.2147  0.1062  0.0726
 8433DDP     P250595  22.155   8.161  21.238  0.0476 -0.1006  0.1083
 8433DDP     C250596  21.767   8.180  21.540 -0.1005  0.2221 -0.1016
 8433DDP     C350597  22.932   7.934  20.503 -0.0173 -0.0462 -0.1379
 8433DDP     C450598  22.599   8.667  20.694 -0.1610  0.0077 -0.0289
 8434DDP     C150599  22.134   7.306   7.880 -0.0597  0.2132  0.0550
 8434DDP     P150600  22.301   7.085   8.227 -0.0220  0.0777  0.1116
 8434DDP     P250601  22.408   7.583   7.638  0.0965  0.1658  0.4369
 8434DDP     C250602  22.553   7.862   7.281  0.2070 -0.0254 -0.2397
 8434DDP     C350603  22.200   6.702   8.471 -0.0584 -0.0747  0.1076
 8434DDP     C450604  21.735   7.357   7.886 -0.0641 -0.2790 -0.0733
 8435DDP     C150605  26.858  18.498  10.813 -0.3868  0.1160  0.0629
 8435DDP     P150606  26.409  18.475  10.944 -0.1661  0.3376  0.0461
 8435DDP     P250607  27.145  18.891  10.712  0.0773 -0.1331  0.1135
 8435DDP     C250608  26.941  19.287  10.814  0.0436  0.3697 -0.0172
 8435DDP     C350609  25.956  18.390  10.883  0.1903 -0.0186 -0.0897
 8435DDP     C450610  27.149  18.009  10.765 -0.1453  0.1136  0.2252
 8436DDP     C150611  17.354  15.340  22.044  0.0780 -0.0434 -0.0871
 8436DDP     P150612  17.381  15.145  21.664  0.2272  0.1475  0.1511
 8436DDP     P250613  17.609  15.143  22.392  0.0884 -0.2240 -0.3357
 8436DDP     C250614  17.799  14.972  22.833  0.2093  0.0318  0.3437
 8436DDP     C350615  17.462  14.790  21.354  0.2808 -0.1832 -0.0767
 8436DDP     C450616  17.096  15.604  22.333 -0.1919 -0.2984 -0.2773
 8437DDP     C150617   4.761   7.396   7.702  0.4764  0.1447 -0.1692
 8437DDP     P150618   4.617   7.693   7.939  0.2344  0.0335  0.2304
 8437DDP     P250619   5.224   7.365   7.637 -0.1426  0.0598 -0.0391
 8437DDP     C250620   5.589   7.579   7.793 -0.0057 -0.2253 -0.3758
 8437DDP     C350621   4.760   7.553   8.442 -0.1159 -0.0753  0.2470
 8437DDP     C450622   4.553   6.994   7.448  0.1305 -0.0001 -0.1503
 8438DDP     C150623  22.559   8.024  26.618 -0.4162  0.2230 -0.1454
 8438DDP     P150624  22.386   7.814  26.200  0.0658 -0.2661 -0.3178
 8438DDP     P250625  22.668   7.811  26.973 -0.0463  0.0807 -0.0259
 8438DDP     C250626  22.637   7.706  27.377  0.0549 -0.0996 -0.0421
 8438DDP     C350627  22.077   7.722  25.958 -0.1908  0.1716  0.3328
 8438DDP     C450628  22.248   8.412  26.722  0.0195  0.0137 -0.0001
 8439DDP     C150629  26.655   5.749  22.188  0.0552  0.0211 -0.3211
 8439DDP     P150630  26.826   6.077  22.507 -0.3219  0.1280  0.1272
 8439DDP     P250631  26.378   5.902  21.867 -0.1851 -0.0822  0.2252
 8439DDP     C250632  26.019   6.093  21.763  0.1770  0.1409 -0.2917
 8439DDP     C350633  26.722   6.162  22.891 -0.1188 -0.1256  0.0258
 8439DDP     C450634  26.631   5.307  22.353  0.2669  0.1344  0.0477
 8440DDP     C150635  16.157  28.659   7.879 -0.2443 -0.0352 -0.1052
 8440DDP     P150636  15.736  28.620   7.788  0.0363 -0.1460 -0.0104
 8440DDP     P250637  16.337  28.281   7.976 -0.0812 -0.0669 -0.0631
 8440DDP     C250638  16.703  28.151   7.866 -0.0440  0.1554 -0.0190
 8440DDP     C350639  15.325  28.918   7.809 -0.2628  0.2711  0.0333
 8440DDP     C450640  16.377  29.037   7.722 -0.2281 -0.0694 -0.0967
 8441DDP     C150641   4.768   3.058   4.190  0.1237 -0.0041 -0.1311
 8441DDP     P150642   5.002   2.770   4.472 -0.0767 -0.1588 -0.0380
 8441DDP     P250643   4.827   3.237   3.756  0.0759  0.1459  0.1526
 8441DDP     C250644   4.946   3.310   3.286 -0.1654 -0.2212  0.1215
 8441DDP     C350645   5.468   2.640   4.536 -0.1710  0.2885  0.1305
 8441DDP     C450646   4.483   3.407   4.345  0.0846 -0.2771  0.0447
 8442DDP     C150647  12.441  28.483   3.580  0.1204 -0.1566  0.1094
 8442DDP     P150648  12.017  28.314   3.856 -0.1631 -0.0437  0.4484
 8442DDP     P250649  12.534  28.885   3.814  0.0151 -0.0629 -0.2538
 8442DDP     C250650  12.346  29.119   4.135  0.0877  0.0615  0.2486
 8442DDP     C350651  11.903  28.334   4.296  0.3634  0.3229 -0.1841
 8442DDP     C450652  12.449  28.430   3.056  0.1896 -0.3486  0.3092
 8443DDP     C150653  29.310  13.903  25.211  0.1844 -0.0033  0.3192
 8443DDP     P150654  29.389  14.271  24.940  0.0807 -0.2979  0.0815
 8443DDP     P250655  29.097  13.520  24.986  0.1691  0.2169 -0.0008
 8443DDP     C250656  28.990  13.109  24.736  0.2306 -0.1483  0.2719
 8443DDP     C350657  29.610  14.549  24.632  0.0862  0.0729  0.0391
 8443DDP     C450658  29.583  13.613  25.425  0.2819 -0.2363 -0.3251
 8444DDP     C150659   7.213  20.497  24.364 -0.0967 -0.1088 -0.0897
 8444DDP     P150660   7.311  20.670  24.750 -0.1567 -0.0758 -0.0028
 8444DDP     P250661   7.012  20.670  24.105  0.1264  0.0872  0.0014
 8444DDP     C250662   6.869  20.800  23.552 -0.1418  0.1127  0.0087
 8444DDP     C350663   7.538  21.130  24.780  0.1788  0.1604 -0.0176
 8444DDP     C450664   7.594  20.265  24.126 -0.0818 -0.1158  0.1306
 8445DDP     C150665   2.482  18.788   6.942  0.1220  0.5264 -0.0579
 8445DDP     P150666   2.320  18.546   6.575  0.1459  0.3318  0.2330
 8445DDP     P250667   2.437  18.487   7.403  0.4028 -0.1950 -0.2772
 8445DDP     C250668   2.335  18.247   7.690 -0.3927  0.1507 -0.3822
 8445DDP     C350669   2.123  18.354   6.226  0.0407  0.0622 -0.0366
 8445DDP     C450670   2.707  19.136   6.958 -0.0556  0.1356  0.1436
 8446DDP     C150671  16.339  28.045  10.896  0.1090 -0.2246  0.3445
 8446DDP     P150672  16.542  27.830  11.226 -0.1408 -0.1374 -0.1420
 8446DDP     P250673  16.267  28.497  10.777  0.0285  0.0732 -0.1501
 8446DDP     C250674  16.517  28.624  10.357 -0.1520  0.1245 -0.2628
 8446DDP     C350675  16.669  27.845  11.641  0.0534 -0.2299 -0.0315
 8446DDP     C450676  15.832  27.893  10.770  0.0548  0.2171  0.3503
 8447DDP     C150677  24.606  13.503  24.456  0.2112 -0.1467 -0.1847
 8447DDP     P150678  24.260  13.748  24.698  0.2154 -0.2198  0.0257
 8447DDP     P250679  24.781  13.608  24.880 -0.1528  0.3511 -0.2330
 8447DDP     C250680  25.071  13.815  25.299 -0.0387  0.1782 -0.1900
 8447DDP     C350681  24.160  14.133  24.901  0.0058 -0.2646 -0.2323
 8447DDP     C450682  24.708  13.630  24.048 -0.0247 -0.1734  0.1020
 8448DDP     C150683  20.293   6.002  22.131 -0.1026 -0.2523  0.1164
 8448DDP     P150684  20.020   6.428  21.931 -0.1975 -0.1992  0.4990
 8448DDP     P250685  20.345   5.901  21.768 -0.1959 -0.0375 -0.1364
 8448DDP     C250686  20.544   5.691  21.313 -0.1358 -0.4870 -0.0851
 8448DDP     C350687  20.071   6.900  21.709  0.0853 -0.1612 -0.1382
 8448DDP     C450688  20.558   5.916  22.473  0.1143 -0.0369  0.0632
 8449DDP     C150689   5.254  29.630  17.017 -0.2416 -0.1978 -0.0059
 8449DDP     P150690   5.247  29.981  17.265  0.2167 -0.1778 -0.1918
 8449DDP     P250691   5.180  29.378  17.377 -0.0050 -0.1232 -0.1423
 8449DDP     C250692   5.014  28.988  17.452  0.1308  0.1361  0.0309
 8449DDP     C350693   5.303  -0.002  17.523  0.2255  0.0323  0.0875
 8449DDP     C450694   5.605  29.583  16.686 -0.0206 -0.1797  0.0005
 8450DDP     C150695  23.977  25.554  14.576  0.0390  0.1947  0.1106
 8450DDP     P150696  23.600  25.530  14.816  0.2657 -0.0460 -0.0481
 8450DDP     P250697  23.974  25.612  14.030  0.2551 -0.1049  0.0793
 8450DDP     C250698  23.650  25.751  13.736  0.3083  0.1093 -0.3876
 8450DDP     C350699  23.466  25.861  15.198 -0.0025 -0.1704  0.0721
 8450DDP     C450700  24.160  25.196  14.730 -0.2485 -0.1476 -0.0700
 8451DDP     C150701  22.316  20.061  15.220 -0.0243  0.0922  0.1247
 8451DDP     P150702  22.638  20.219  14.972  0.0176 -0.5648  0.2223
 8451DDP     P250703  22.480  19.834  15.508  0.0806  0.3346  0.1413
 8451DDP     C250704  22.540  19.677  15.848 -0.1383  0.0137 -0.1269
 8451DDP     C350705  23.054  20.216  14.909 -0.1939 -0.2434  0.0497
 8451DDP     C450706  21.904  20.171  15.029  0.0587 -0.0115 -0.1071
 8452DDP     C150707  21.513  14.755   2.363 -0.1296 -0.1763 -0.1336
 8452DDP     P150708  21.594  14.319   2.159 -0.0570 -0.0436  0.2138
 8452DDP     P250709  21.805  15.058   2.327 -0.0329  0.0898  0.1473
 8452DDP     C250710  21.791  15.504   2.138  0.1349  0.0117 -0.0290
 8452DDP     C350711  21.338  14.021   1.997  0.0303 -0.2359  0.0325
 8452DDP     C450712  21.053  14.783   2.547 -0.1200  0.0953 -0.0922
 8453DDP     C150713  24.844  14.917   5.115  0.1846 -0.0370 -0.0189
 8453DDP     P150714  24.456  14.747   5.348 -0.1053  0.4056  0.1297
 8453DDP     P250715  24.868  14.732   4.736  0.0790  0.0384 -0.1871
 8453DDP     C250716  24.507  14.833   4.483  0.2029 -0.0626  0.1304
 8453DDP     C350717  24.497  14.807   5.793 -0.0767 -0.1379 -0.1116
 8453DDP     C450718  25.210  15.018   5.402  0.2554 -0.0108 -0.1799
 8454DDP     C150719  14.822  15.236  25.477  0.1698  0.1631 -0.2155
 8454DDP     P150720  14.712  15.235  25.031 -0.2196 -0.3310 -0.1469
 8454DDP     P250721  14.401  15.360  25.645  0.0108  0.3451  0.1780
 8454DDP     C250722  14.078  15.261  25.997 -0.1553 -0.0495  0.2557
 8454DDP     C350723  14.829  14.960  24.726 -0.2212 -0.0230  0.2568
 8454DDP     C450724  15.206  15.272  25.749  0.2644  0.0392  0.0746
 8455DDP     C150725   1.736  20.669   0.519  0.2441 -0.0412 -0.0286
 8455DDP     P150726   1.919  20.730   0.972  0.3463  0.1736 -0.0210
 8455DDP     P250727   1.617  20.925   0.161  0.0566 -0.3812  0.0005
 8455DDP     C250728   1.617  21.201  30.113  0.0978 -0.0715  0.2180
 8455DDP     C350729   2.059  20.990   1.292  0.3878 -0.0941 -0.0184
 8455DDP     C450730   1.833  20.301   0.322  0.0271 -0.1502 -0.1888
 8456DDP     C150731  12.980  27.401   4.248  0.0452  0.0390  0.0979
 8456DDP     P150732  12.665  27.220   4.420 -0.2594  0.0310 -0.0229
 8456DDP     P250733  13.285  27.215   4.056  0.0286  0.0311  0.0383
 8456DDP     C250734  13.327  26.691   4.000  0.1329  0.0746 -0.0090
 8456DDP     C350735  12.708  26.971   4.821  0.0592  0.0911 -0.0468
 8456DDP     C450736  12.842  27.799   4.231  0.2791  0.2155 -0.1830
 8457DDP     C150737  18.621   9.887  20.869  0.1321 -0.0837 -0.0300
 8457DDP     P150738  18.754  10.258  21.086 -0.0287  0.0148 -0.3046
 8457DDP     P250739  18.796   9.466  21.035 -0.0183 -0.1221 -0.0673
 8457DDP     C250740  18.708   9.229  21.366  0.0581 -0.1581  0.2145
 8457DDP     C350741  18.774  10.260  21.484  0.1074  0.3876  0.1654
 8457DDP     C450742  18.510   9.967  20.489  0.2561  0.1442 -0.1226
 8458DDP     C150743   2.825  13.821   7.642 -0.1939 -0.1115 -0.1161
 8458DDP     P150744   2.744  14.216   7.883  0.1363 -0.0672 -0.0962
 8458DDP     P250745   2.786  13.773   7.173 -0.3411  0.0371  0.3740
 8458DDP     C250746   2.720  13.565   6.798 -0.1484  0.0660 -0.1309
 8458DDP     C350747   2.626  14.613   8.039 -0.0055 -0.2709  0.0112
 8458DDP     C450748   3.131  13.528   7.762  0.1640  0.0530  0.6558
 8459DDP     C150749   2.921  26.914   4.693  0.2337 -0.0582  0.2629
 8459DDP     P150750   3.412  27.021   4.689 -0.0229 -0.1562  0.0516
 8459DDP     P250751   2.710  26.973   5.022  0.3593  0.0603 -0.1434
 8459DDP     C250752   2.674  27.338   5.175  0.3328 -0.0089 -0.1770
 8459DDP     C350753   3.868  26.910   4.850 -0.1499  0.0226  0.0242
 8459DDP     C450754   2.799  26.695   4.313  0.0541  0.0434 -0.2058
 8460DDP     C150755   9.587  15.849  22.702 -0.1632  0.0745  0.2513
 8460DDP     P150756   9.833  15.839  22.343 -0.1505  0.1563  0.0215
 8460DDP     P250757   9.502  15.385  22.833 -0.0374  0.2376  0.2301
 8460DDP     C250758   9.479  15.031  22.761 -0.0167 -0.0717 -0.0207
 8460DDP     C350759  10.182  15.615  22.245  0.0167  0.3556 -0.0705
 8460DDP     C450760   9.457  16.125  22.910 -0.1938 -0.1962 -0.0354
 8461DDP     C150761   6.483  21.775   6.795 -0.1035  0.1348  0.3878
 8461DDP     P150762   6.465  22.202   6.565 -0.2118 -0.1802 -0.3130
 8461DDP     P250763   6.530  21.778   7.263  0.1825 -0.0683 -0.5599
 8461DDP     C250764   6.241  22.001   7.300 -0.1653 -0.1635 -0.1528
 8461DDP     C350765   6.549  22.355   6.154  0.0369  0.2331  0.0244
 8461DDP     C450766   6.395  21.350   6.558 -0.0522  0.0856  0.1482
 8462DDP     C150767   5.411  20.737  19.362  0.0524  0.1829 -0.0798
 8462DDP     P150768   5.583  20.585  18.946 -0.1783 -0.0973 -0.2959
 8462DDP     P250769   5.310  20.575  19.710  0.0076  0.0100 -0.0607
 8462DDP     C250770   5.328  20.610  20.205 -0.2069  0.2287  0.0016
 8462DDP     C350771   5.224  20.127  18.826 -0.0259  0.4988  0.4037
 8462DDP     C450772   5.135  21.087  19.328 -0.1153  0.1789 -0.3763
 8463DDP     C150773  23.433  21.023  24.433 -0.1612 -0.1736  0.1120
 8463DDP     P150774  23.395  21.492  24.496 -0.0015  0.1710 -0.2765
 8463DDP     P250775  23.544  20.708  24.022  0.1384  0.1855 -0.1507
 8463DDP     C250776  23.800  20.404  24.080 -0.1635  0.2759  0.2077
 8463DDP     C350777  23.567  21.902  24.275  0.0865  0.0468 -0.0536
 8463DDP     C450778  23.317  20.740  24.784 -0.1228  0.1518 -0.2643
 8464DDP     C150779  17.554   0.070  11.181 -0.0520 -0.0383  0.0385
 8464DDP     P150780  17.748   0.336  11.482  0.2817 -0.1963 -0.0190
 8464DDP     P250781  17.353   0.196  10.805 -0.1923  0.0279  0.0378
 8464DDP     C250782  17.268   0.265  10.428 -0.1576  0.2385  0.3946
 8464DDP     C350783  17.893   0.335  11.902  0.2779  0.0964 -0.1351
 8464DDP     C450784  17.665  29.951  11.213 -0.2069 -0.0986  0.0752
 8465DDP     C150785  25.965  17.323  17.640  0.1812 -0.1252 -0.4628
 8465DDP     P150786  25.975  17.655  17.521  0.2959 -0.3410  0.0980
 8465DDP     P250787  25.539  17.262  17.723 -0.3971  0.1301 -0.0140
 8465DDP     C250788  25.175  17.491  17.924  0.1913 -0.1406  0.0403
 8465DDP     C350789  25.817  18.121  17.364 -0.0572 -0.0467  0.1606
 8465DDP     C450790  26.158  16.968  17.590  0.1956  0.3600 -0.1483
 8466DDP     C150791   6.997  26.949  14.296 -0.0810 -0.0987  0.1611
 8466DDP     P150792   6.651  26.907  14.569 -0.2377  0.0592  0.1390
 8466DDP     P250793   7.300  27.310  14.200 -0.0982 -0.1441 -0.0730
 8466DDP     C250794   7.743  27.440  14.132  0.2446 -0.1243  0.0657
 8466DDP     C350795   6.269  26.978  14.455  0.1207  0.0197  0.3378
 8466DDP     C450796   7.053  26.544  14.018  0.0180  0.0991 -0.3506
 8467DDP     C150797  24.939  22.212  26.926 -0.2502  0.1085 -0.1463
 8467DDP     P150798  24.931  21.750  27.060  0.0433  0.1415 -0.1006
 8467DDP     P250799  24.789  22.578  27.073 -0.1468 -0.2092 -0.0501
 8467DDP     C250800  24.392  22.786  27.078  0.1008 -0.0770 -0.0342
 8467DDP     C350801  24.772  21.282  27.012  0.0960 -0.2563  0.2322
 8467DDP     C450802  25.192  22.463  26.649  0.3163 -0.0660  0.1023
 8468DDP     C150803  19.004  20.540  10.330 -0.0562  0.2079  0.0800
 8468DDP     P150804  19.430  20.652  10.322 -0.0799  0.2498 -0.0301
 8468DDP     P250805  18.730  20.334  10.685 -0.4756 -0.0981  0.0400
 8468DDP     C250806  18.612  19.960  10.969  0.0014  0.0894 -0.2678
 8468DDP     C350807  19.704  20.824  10.589 -0.2814 -0.0298  0.1137
 8468DDP     C450808  18.679  20.567   9.994 -0.0193  0.0738 -0.3257
 8469DDP     C150809  26.673   3.511  15.194  0.0432  0.2170  0.1266
 8469DDP     P150810  27.040   3.751  15.146  0.0121  0.0721  0.0374
 8469DDP     P250811  26.798   3.096  15.269  0.0259  0.0131  0.0143
 8469DDP     C250812  26.826   2.612  15.172 -0.1635  0.0921 -0.0436
 8469DDP     C350813  27.495   3.658  15.167  0.2759 -0.0567  0.0375
 8469DDP     C450814  26.264   3.575  15.118 -0.0331 -0.0643  0.0051
 8470DDP     C150815   5.667  21.842  28.908 -0.2002 -0.2400  0.1412
 8470DDP     P150816   5.596  21.534  29.296 -0.1020 -0.0636 -0.0231
 8470DDP     P250817   5.367  21.889  28.607  0.0112  0.1319 -0.0026
 8470DDP     C250818   5.290  22.124  28.238  0.2949 -0.0032  0.2681
 8470DDP     C350819   5.476  21.276  29.505 -0.5354  0.0174  0.1181
 8470DDP     C450820   6.145  22.171  29.038  0.1905 -0.0902  0.0695
 8471DDP     C150821   6.219  15.845  22.408  0.0883  0.0051  0.3140
 8471DDP     P150822   5.872  15.622  22.151 -0.0344 -0.2331 -0.0067
 8471DDP     P250823   6.308  15.884  22.751  0.1393 -0.2712 -0.0749
 8471DDP     C250824   6.723  15.808  23.017  0.0630 -0.1122  0.3806
 8471DDP     C350825   5.528  15.329  22.091 -0.1335  0.0470  0.0808
 8471DDP     C450826   6.497  16.015  22.090  0.3489 -0.1177  0.0657
 8472DDP     C150827  15.964  24.808  28.770 -0.2404 -0.1292 -0.1515
 8472DDP     P150828  16.260  24.514  28.630 -0.0578  0.0714  0.1966
 8472DDP     P250829  16.194  25.136  28.598 -0.0914 -0.0876 -0.0695
 8472DDP     C250830  16.573  25.401  28.546  0.0583 -0.0179  0.0076
 8472DDP     C350831  16.733  24.340  28.611 -0.1291 -0.0055 -0.3325
 8472DDP     C450832  15.784  24.772  29.106 -0.0254 -0.4059 -0.1129
 8473DDP     C150833  10.060   0.107  11.017  0.1414  0.0729  0.1429
 8473DDP     P150834  10.202   0.231  10.566 -0.3499 -0.0085  0.0474
 8473DDP     P250835   9.721  30.234  11.142  0.2757 -0.4290 -0.3113
 8473DDP     C250836   9.240   0.075  11.217 -0.1444  0.1962  0.3513
 8473DDP     C350837  10.236   0.693  10.505  0.1999  0.1376 -0.2348
 8473DDP     C450838  10.001   0.449  11.431 -0.4811  0.0704 -0.0461
 8474DDP     C150839  29.004   7.914  27.024 -0.0173 -0.0417 -0.1212
 8474DDP     P150840  28.966   7.435  26.863 -0.1337  0.0936 -0.2860
 8474DDP     P250841  28.883   8.307  26.785 -0.1751  0.0779  0.3057
 8474DDP     C250842  28.573   8.288  26.446 -0.1252 -0.5527  0.1809
 8474DDP     C350843  29.439   7.226  26.787  0.3309 -0.1440 -0.1532
 8474DDP     C450844  29.090   7.901  27.493 -0.2113 -0.0736  0.1800
 8475DDP     C150845   5.785  20.292  29.675 -0.0119  0.3321 -0.0460
 8475DDP     P150846   6.062  20.027  30.053  0.2209  0.1326  0.0179
 8475DDP     P250847   5.875  20.316  29.277 -0.1835 -0.1310  0.2164
 8475DDP     C250848   5.770  20.535  28.872  0.0321 -0.3909  0.0640
 8475DDP     C350849   6.452  19.885  30.121  0.0928  0.1175  0.2228
 8475DDP     C450850   5.372  20.406  29.800 -0.0903 -0.1008 -0.0893
 8476DDP     C150851  30.224  17.864  24.566 -0.0455 -0.3800 -0.2331
 8476DDP     P150852   0.304  17.652  24.700 -0.4816  0.1667 -0.1016
 8476DDP     P250853  30.008  17.680  24.214  0.0258 -0.0651 -0.0454
 8476DDP     C250854  29.602  17.814  23.874  0.2361  0.0193  0.1178
 8476DDP     C350855   0.677  17.501  24.828 -0.0452 -0.2488 -0.0707
 8476DDP     C450856  30.025  18.197  24.766  0.2354 -0.0819  0.0409
 8477DDP     C150857   1.032  25.881   7.925  0.0419  0.2501  0.1450
 8477DDP     P150858   1.198  25.727   8.266 -0.1449  0.1683  0.1181
 8477DDP     P250859   1.258  26.116   7.593 -0.0223  0.1257  0.2752
 8477DDP     C250860   1.647  26.200   7.518  0.0419 -0.1610  0.2886
 8477DDP     C350861   1.358  26.001   8.508  0.1615  0.2970  0.2168
 8477DDP     C450862   0.542  25.706   7.946  0.0826 -0.0082  0.0799
 8478DDP     C150863  21.764  22.590   3.903 -0.1787 -0.1524 -0.0216
 8478DDP     P150864  21.459  22.824   4.227 -0.2823  0.3449  0.0383
 8478DDP     P250865  22.007  22.375   4.089  0.1537 -0.1544  0.0556
 8478DDP     C250866  22.240  22.013   4.300  0.0001 -0.2509 -0.1202
 8478DDP     C350867  21.023  22.650   4.322  0.0012 -0.1892 -0.1406
 8478DDP     C450868  21.564  22.484   3.487  0.0487  0.0245  0.3711
 8479DDP     C150869  23.262  25.812  20.245 -0.0559  0.1238  0.0932
 8479DDP     P150870  23.693  25.917  20.114  0.0351 -0.0229  0.2170
 8479DDP     P250871  22.864  26.143  20.131 -0.0055  0.4103 -0.1796
 8479DDP     C250872  22.526  26.011  20.132 -0.0539  0.0727 -0.0435
 8479DDP     C350873  23.838  26.377  20.036 -0.1297 -0.0090  0.1069
 8479DDP     C450874  23.109  25.690  20.615  0.0959  0.0313  0.0988
 8480DDP     C150875  15.975  13.860  25.209  0.4450 -0.1843 -0.2107
 8480DDP     P150876  16.190  13.812  25.565 -0.1838  0.1337  0.1014
 8480DDP     P250877  15.748  13.712  25.000 -0.1468  0.0888  0.0351
 8480DDP     C250878  15.976  13.292  24.777  0.0075 -0.2234 -0.1715
 8480DDP     C350879  16.090  13.634  25.926 -0.0099  0.1198  0.0953
 8480DDP     C450880  16.154  14.201  25.052 -0.1091  0.1765  0.2000
 8481DDP     C150881  11.684  15.921  26.310  0.2106  0.2999  0.0988
 8481DDP     P150882  12.039  15.992  25.982 -0.0732 -0.1802 -0.1700
 8481DDP     P250883  11.689  15.704  26.647 -0.2371 -0.1243 -0.1391
 8481DDP     C250884  11.541  15.542  27.086 -0.0194 -0.0364 -0.2569
 8481DDP     C350885  12.203  15.820  25.614  0.1140  0.0058  0.0436
 8481DDP     C450886  11.475  16.209  26.493 -0.0391 -0.1699 -0.1298
 8482DDP     C150887  26.631  10.674   4.033 -0.2496 -0.0969  0.2810
 8482DDP     P150888  26.596  10.996   4.282  0.0147 -0.0283  0.2051
 8482DDP     P250889  27.059  10.609   3.959  0.0300 -0.3388 -0.1203
 8482DDP     C250890  27.458  10.514   4.235  0.1427  0.2083 -0.0609
 8482DDP     C350891  26.660  11.430   4.281 -0.0263 -0.1580  0.2324
 8482DDP     C450892  26.175  10.374   4.137  0.3542 -0.1998  0.1185
 8483DDP     C150893  13.248  20.543  16.306  0.4498 -0.1063 -0.3135
 8483DDP     P150894  13.014  20.894  16.316 -0.3122  0.1422 -0.0141
 8483DDP     P250895  13.517  20.263  16.592  0.0104  0.3121  0.1417
 8483DDP     C250896  13.680  19.917  16.862  0.0352 -0.3970 -0.0270
 8483DDP     C350897  12.886  21.261  16.149 -0.1406 -0.2738  0.2329
 8483DDP     C450898  13.263  20.557  15.859  0.0244  0.3250  0.0235
 8484DDP     C150899  30.004   1.037  14.247 -0.0868  0.1303 -0.0443
 8484DDP     P150900  30.032   1.118  14.711 -0.1960 -0.0607  0.1436
 8484DDP     P250901  30.230   0.960  13.978 -0.2425  0.2769 -0.1396
 8484DDP     C250902   0.094   0.968  13.570  0.0283 -0.0284 -0.1706
 8484DDP     C350903  30.110   1.131  15.071 -0.0128  0.3992 -0.0251
 8484DDP     C450904  29.693   1.219  14.105  0.0285  0.0324 -0.1340
 8485DDP     C150905  24.061  27.927   2.945 -0.1251 -0.2112  0.1083
 8485DDP     P150906  24.206  27.975   2.494  0.0586 -0.2557 -0.0357
 8485DDP     P250907  24.070  27.447   2.815 -0.0068  0.1375  0.3344
 8485DDP     C250908  24.428  27.177   3.040 -0.1435  0.1474  0.2515
 8485DDP     C350909  24.180  28.186   2.071  0.1348 -0.0999 -0.1170
 8485DDP     C450910  24.354  28.202   3.228  0.0271 -0.0912  0.0919
 8486DDP     C150911   7.911   5.467  30.116 -0.3490  0.0833  0.0088
 8486DDP     P150912   7.500   5.445  29.999 -0.2566 -0.2788  0.0911
 8486DDP     P250913   8.028   5.923  30.017  0.0964  0.1970  0.1182
 8486DDP     C250914   7.868   6.359  29.943  0.1692 -0.0242 -0.4011
 8486DDP     C350915   7.082   5.459  29.759  0.3088  0.0605 -0.3385
 8486DDP     C450916   8.089   5.170   0.145 -0.0721  0.2204 -0.2243
 8487DDP     C150917  19.477   9.312  13.439 -0.1293 -0.2151 -0.1217
 8487DDP     P150918  19.709   8.996  13.423 -0.4831 -0.1808 -0.0809
 8487DDP     P250919  19.063   9.220  13.552 -0.2522  0.0040 -0.3607
 8487DDP     C250920  18.641   9.028  13.555 -0.2748  0.1192 -0.4860
 8487DDP     C350921  19.692   8.527  13.160 -0.1176 -0.0335  0.1038
 8487DDP     C450922  19.619   9.661  13.255 -0.0244  0.1097  0.0989
 8488DDP     C150923  30.194   0.672   7.082  0.1796  0.1680  0.1210
 8488DDP     P150924   0.142   0.773   7.318 -0.2164  0.0504  0.0408
 8488DDP     P250925  30.239   0.696   6.699  0.1873 -0.1428  0.0193
 8488DDP     C250926  29.896   0.770   6.349 -0.0768 -0.1593 -0.1499
 8488DDP     C350927   0.378   0.562   7.554 -0.0264  0.3238  0.1841
 8488DDP     C450928  29.768   0.630   7.130 -0.0132 -0.0842  0.0963
 8489DDP     C150929   5.953  22.506   8.514  0.0208 -0.0472  0.0588
 8489DDP     P150930   5.628  22.643   8.670 -0.0161 -0.0515 -0.1483
 8489DDP     P250931   6.171  22.891   8.392  0.2784  0.0919 -0.0389
 8489DDP     C250932   6.275  23.309   8.593 -0.0261  0.3754 -0.3402
 8489DDP     C350933   5.447  22.909   8.481 -0.1059 -0.0382  0.0600
 8489DDP     C450934   5.968  22.146   8.269  0.1962  0.0577 -0.0985
 8490DDP     C150935  17.654  18.158  26.516  0.1460  0.2031 -0.2241
 8490DDP     P150936  17.185  17.976  26.349  0.2173 -0.0470  0.0983
 8490DDP     P250937  17.998  17.791  26.628 -0.0145  0.1408  0.0235
 8490DDP     C250938  18.005  17.363  26.660 -0.1304 -0.1687  0.1516
 8490DDP     C350939  17.078  17.611  26.277 -0.3840 -0.0306  0.0990
 8490DDP     C450940  17.796  18.534  26.457  0.0841  0.0881 -0.0816
 8491DDP     C150941  20.186  24.294  25.401  0.1831  0.0087 -0.2641
 8491DDP     P150942  19.992  23.921  25.605  0.1066  0.1433 -0.3568
 8491DDP     P250943  20.545  24.388  25.292  0.0108 -0.0353  0.0609
 8491DDP     C250944  20.864  24.133  25.086 -0.7407 -0.0804 -0.2400
 8491DDP     C350945  19.843  23.896  25.986  0.2603  0.1285 -0.3867
 8491DDP     C450946  19.954  24.704  25.370  0.2797 -0.1903 -0.0348
 8492DDP     C150947   6.193   7.588  12.677 -0.0113 -0.0849 -0.2369
 8492DDP     P150948   5.795   7.498  12.874  0.1971 -0.0117  0.3412
 8492DDP     P250949   6.324   7.180  12.561 -0.1469  0.0328  0.2024
 8492DDP     C250950   6.365   6.689  12.634 -0.2205 -0.1370 -0.2113
 8492DDP     C350951   5.541   7.444  13.180 -0.3260  0.0061  0.2901
 8492DDP     C450952   6.246   8.070  12.507 -0.1511 -0.0786 -0.0736
 8493DDP     C150953  12.634  13.601   0.968  0.1126  0.0223 -0.4675
 8493DDP     P150954  12.850  13.927   0.775 -0.1019  0.2179 -0.0213
 8493DDP     P250955  12.626  13.267   0.746  0.1551  0.0956  0.3344
 8493DDP     C250956  12.656  12.796   0.863 -0.0007  0.0651  0.1486
 8493DDP     C350957  12.850  14.213   0.499 -0.1829 -0.2231 -0.0459
 8493DDP     C450958  12.576  13.693   1.397  0.2008  0.1286 -0.2153
 8494DDP     C150959  14.607  17.747  15.105  0.0344  0.0030  0.1579
 8494DDP     P150960  14.241  17.885  14.836 -0.1119  0.0722 -0.1777
 8494DDP     P250961  15.049  17.834  14.941  0.1935 -0.0809 -0.0336
 8494DDP     C250962  15.335  18.159  14.717  0.0962 -0.1404 -0.0024
 8494DDP     C350963  14.226  18.029  14.434 -0.0338 -0.0786 -0.1674
 8494DDP     C450964  14.539  17.619  15.552 -0.0106 -0.0157  0.1351
 8495DDP     C150965  18.150  15.180   7.120 -0.1139 -0.0222  0.1020
 8495DDP     P150966  17.901  15.017   7.437 -0.4820 -0.0976 -0.0964
 8495DDP     P250967  18.640  15.250   7.094 -0.0269 -0.1346  0.1983
 8495DDP     C250968  18.813  15.670   7.000 -0.1732 -0.4782  0.0330
 8495DDP     C350969  17.742  15.054   7.824  0.4237  0.0568  0.3081
 8495DDP     C450970  17.906  15.177   6.781  0.0604 -0.0333 -0.3419
 8496DDP     C150971  15.703  13.096  10.076 -0.3172 -0.0331 -0.3269
 8496DDP     P150972  15.572  12.969  10.475  0.2925 -0.0631  0.1393
 8496DDP     P250973  15.567  13.501   9.807  0.1142 -0.0221  0.1452
 8496DDP     C250974  15.762  13.939   9.831 -0.0020  0.0239 -0.0481
 8496DDP     C350975  15.728  12.554  10.606  0.2325  0.2712  0.2125
 8496DDP     C450976  16.055  13.103   9.842 -0.0183 -0.1232 -0.1734
 8497DDP     C150977  29.556  27.369  19.659 -0.2429 -0.2516  0.2092
 8497DDP     P150978  29.720  27.694  19.566  0.0170 -0.0928 -0.2947
 8497DDP     P250979  29.869  27.003  19.680 -0.0921  0.1699 -0.2008
 8497DDP     C250980  29.941  26.591  19.734 -0.0427 -0.1240 -0.0084
 8497DDP     C350981  29.772  28.053  19.341  0.1178  0.0942  0.0565
 8497DDP     C450982  29.109  27.219  19.638 -0.2104 -0.2469 -0.2123
 8498DDP     C150983  17.346   3.171   4.536  0.0117 -0.2189 -0.1029
 8498DDP     P150984  16.944   3.222   4.674  0.2212 -0.0253  0.2072
 8498DDP     P250985  17.383   2.806   4.263 -0.0606  0.1436 -0.1517
 8498DDP     C250986  17.441   2.436   4.080  0.0829 -0.1105  0.0690
 8498DDP     C350987  16.461   3.178   4.461 -0.0231 -0.2758  0.0631
 8498DDP     C450988  17.669   3.562   4.503  0.3551  0.1622 -0.2686
 8499DDP     C150989  20.705  24.745   7.210  0.2896  0.0583  0.1688
 8499DDP     P150990  20.380  24.836   7.333 -0.0948  0.0725  0.0543
 8499DDP     P250991  21.047  24.402   7.478  0.0114  0.0284  0.0008
 8499DDP     C250992  21.233  23.933   7.518  0.1173  0.0669  0.0774
 8499DDP     C350993  19.893  24.674   7.269 -0.0090  0.0476  0.0207
 8499DDP     C450994  20.868  24.751   6.872  0.0042  0.1076  0.1173
 8500DDP     C150995  16.279   4.664   5.472 -0.0019  0.2214 -0.4395
 8500DDP     P150996  16.140   4.880   5.936  0.0444  0.2639  0.0008
 8500DDP     P250997  16.216   4.755   5.008 -0.0256 -0.0626 -0.0384
 8500DDP     C250998  15.944   4.886   4.568 -0.0710  0.2539 -0.2182
 8500DDP     C350999  15.795   5.141   6.087 -0.0974 -0.0218 -0.1613
 8500DDP     C451000  16.573   4.330   5.686  0.1007 -0.1979  0.0234
 8501DDP     C151001  25.384  28.179   2.411  0.0077  0.0586  0.0477
 8501DDP     P151002  25.416  28.193   1.985  0.1691 -0.1432 -0.1396
 8501DDP     P251003  25.632  28.009   2.698  0.0642  0.2349 -0.0483
 8501DDP     C251004  25.888  27.564   2.858  0.0481  0.1586 -0.2361
 8501DDP     C351005  25.812  28.074   1.641  0.0818  0.1624  0.1171
 8501DDP     C451006  25.022  28.229   2.638  0.1718  0.0356 -0.4419
 8502DDP     C151007   9.552  19.286  23.180 -0.5233  0.3859 -0.0058
 8502DDP     P151008   9.263  19.391  22.947 -0.2603  0.3107  0.1196
 8502DDP     P251009   9.936  19.541  23.100  0.0250 -0.1760 -0.0819
 8502DDP     C251010  10.352  19.653  22.880 -0.0625 -0.0108  0.0782
 8502DDP     C351011   9.265  19.656  22.577  0.1052 -0.1295  0.0786
 8502DDP     C451012   9.495  18.882  23.372  0.0893 -0.3269  0.0208
 8503DDP     C151013  14.172   1.911  17.383 -0.0161  0.2442  0.0133
 8503DDP     P151014  14.171   2.318  17.497 -0.1999 -0.1035  0.1499
 8503DDP     P251015  14.063   1.763  16.981 -0.2149 -0.1605  0.0794
 8503DDP     C251016  13.950   1.500  16.627  0.2068  0.1540  0.1016
 8503DDP     C351017  13.732   2.449  17.579 -0.0494  0.1763  0.2201
 8503DDP     C451018  14.271   1.483  17.563  0.1322 -0.1900 -0.3598
 8504DDP     C151019  24.547  10.207   2.879  0.4216  0.2829  0.1028
 8504DDP     P151020  24.059  10.316   2.862 -0.1352  0.0672  0.1022
 8504DDP     P251021  24.608  10.384   3.337 -0.0980  0.0984 -0.1400
 8504DDP     C251022  24.919  10.309   3.638 -0.2892 -0.1892 -0.0448
 8504DDP     C351023  23.611  10.126   2.757  0.2162 -0.0809  0.1823
 8504DDP     C451024  24.747   9.854   2.498 -0.1828 -0.1958 -0.0422
 8505DDP     C151025   1.209  26.620  26.636 -0.0137 -0.2088  0.1122
 8505DDP     P151026   1.361  26.140  26.564 -0.1380  0.0968  0.1107
 8505DDP     P251027   1.527  26.955  26.489 -0.1313 -0.0463 -0.0938
 8505DDP     C251028   1.477  27.352  26.466  0.1935 -0.0159  0.0867
 8505DDP     C351029   1.446  25.886  26.174  0.0522  0.3192 -0.0308
 8505DDP     C451030   0.837  26.748  26.802  0.1778  0.0603 -0.3095
 8506DDP     C151031   1.164  14.804  17.623 -0.3156  0.1768  0.0357
 8506DDP     P151032   1.142  14.261  17.632  0.1191  0.0757 -0.1084
 8506DDP     P251033   1.586  14.860  17.789 -0.0658  0.2384  0.1312
 8506DDP     C251034   2.032  14.865  17.972 -0.1361 -0.0610 -0.1563
 8506DDP     C351035   1.327  13.772  17.854  0.1992  0.0176  0.1163
 8506DDP     C451036   0.835  14.992  17.897  0.4002 -0.0148  0.2891
 8507DDP     C151037  26.192  28.785  10.460 -0.3414  0.2487  0.2599
 8507DDP     P151038  26.107  28.453  10.201 -0.1275 -0.0932  0.1470
 8507DDP     P251039  26.508  28.916  10.402  0.1635 -0.0265  0.1992
 8507DDP     C251040  26.995  28.838  10.616  0.2317 -0.1795  0.1189
 8507DDP     C351041  26.095  27.937  10.203 -0.0513 -0.1832  0.2714
 8507DDP     C451042  25.938  28.898  10.772  0.2879 -0.1831 -0.2581
 8508DDP     C151043   0.035  10.776   8.664 -0.0530  0.1317  0.0801
 8508DDP     P151044   0.113  10.350   8.670  0.2065 -0.0706 -0.2178
 8508DDP     P251045  -0.053  11.044   9.127 -0.2840 -0.0855  0.0400
 8508DDP     C251046  30.066  11.345   9.369  0.0391 -0.1903  0.0386
 8508DDP     C351047   0.201  10.097   8.371 -0.0701 -0.1740  0.1163
 8508DDP     C451048   0.016  11.013   8.231 -0.2955 -0.1509 -0.1096
 8509DDP     C151049  13.724   9.396   6.996 -0.0781  0.2280 -0.1992
 8509DDP     P151050  13.432   9.764   6.827 -0.0891  0.3363 -0.0255
 8509DDP     P251051  13.697   9.315   7.509  0.0215  0.0779  0.0170
 8509DDP     C251052  13.746   9.083   7.799 -0.2075 -0.3340 -0.1307
 8509DDP     C351053  13.032   9.993   6.930 -0.1156 -0.2234  0.3364
 8509DDP     C451054  14.001   9.034   6.800 -0.0081  0.0419 -0.1880
 8510DDP     C151055  13.236  21.008  21.110 -0.2808 -0.2382 -0.1894
 8510DDP     P151056  13.514  21.343  21.218 -0.0969 -0.1174  0.1203
 8510DDP     P251057  13.265  21.107  20.698 -0.4143 -0.1311  0.2014
 8510DDP     C251058  13.539  21.211  20.319  0.0576  0.1541  0.0199
 8510DDP     C351059  13.886  21.740  21.334 -0.2039  0.1233 -0.0259
 8510DDP     C451060  13.324  20.590  21.280 -0.1166 -0.2304 -0.0635
 8511DDP     C151061   7.132  24.949  16.610 -0.0636 -0.2063  0.0450
 8511DDP     P151062   7.082  24.648  16.894 -0.0170 -0.1009  0.1181
 8511DDP     P251063   7.285  25.365  16.509 -0.1221  0.4736 -0.0357
 8511DDP     C251064   7.462  25.741  16.227  0.0103 -0.0592  0.1789
 8511DDP     C351065   7.169  24.742  17.273 -0.0074 -0.0119  0.1990
 8511DDP     C451066   6.880  25.019  16.175 -0.2000  0.1328  0.1313
 8512DDP     C151067   6.872  26.127   4.679  0.3602 -0.4054 -0.0451
 8512DDP     P151068   6.707  26.474   4.423  0.0327 -0.3723  0.0370
 8512DDP     P251069   6.591  25.768   4.916  0.0352  0.0973 -0.0624
 8512DDP     C251070   6.314  25.586   4.913 -0.2275 -0.0959 -0.2040
 8512DDP     C351071   6.818  26.576   3.961  0.1280  0.4043 -0.0234
 8512DDP     C451072   7.276  26.125   4.701 -0.0017 -0.6295  0.1587
 8513DDP     C151073  17.568  12.718   5.392 -0.0664  0.0817 -0.2918
 8513DDP     P151074  17.752  12.723   5.800 -0.0694 -0.1592 -0.0772
 8513DDP     P251075  17.242  12.999   5.319 -0.1855 -0.2309 -0.2223
 8513DDP     C251076  16.919  13.185   5.580  0.1138 -0.1372  0.0395
 8513DDP     C351077  18.075  12.794   6.179  0.0997 -0.0908 -0.3722
 8513DDP     C451078  17.901  12.481   5.032 -0.0836  0.0614  0.0035
 8514DDP     C151079  15.687  28.887  29.754  0.0526 -0.0492 -0.1829
 8514DDP     P151080  15.974  29.128  29.452 -0.1601  0.0824 -0.2627
 8514DDP     P251081  15.451  28.691  29.590  0.0067  0.0474  0.3437
 8514DDP     C251082  15.527  28.403  29.285 -0.1607  0.3056  0.0107
 8514DDP     C351083  16.456  29.321  29.476  0.1195  0.0384 -0.3478
 8514DDP     C451084  15.695  28.771  30.203  0.1181 -0.0691 -0.0405
 8515DDP     C151085  12.887   7.494  19.683 -0.0315  0.1146 -0.0917
 8515DDP     P151086  13.009   7.347  19.274  0.1145 -0.0981  0.1139
 8515DDP     P251087  12.489   7.564  19.916 -0.0786  0.2659 -0.1330
 8515DDP     C251088  12.076   7.539  19.698  0.1089  0.2011 -0.1941
 8515DDP     C351089  13.082   6.989  19.044 -0.0207  0.0771  0.0684
 8515DDP     C451090  13.281   7.362  19.964  0.0756 -0.1149  0.3539
 8516DDP     C151091  11.400   8.056   6.111  0.1778  0.0747  0.0743
 8516DDP     P151092  11.026   7.911   5.975  0.3009  0.5556  0.1498
 8516DDP     P251093  11.551   7.873   6.456 -0.1940 -0.0998  0.0554
 8516DDP     C251094  11.441   7.785   6.803 -0.0110 -0.0990 -0.1449
 8516DDP     C351095  10.625   7.936   5.773 -0.0822  0.0879 -0.0493
 8516DDP     C451096  11.549   8.467   5.982 -0.1826  0.1869  0.2640
 8517DDP     C151097  28.094  20.011  17.575 -0.3632 -0.2612  0.1295
 8517DDP     P151098  28.276  19.820  17.182  0.3427  0.1015 -0.3131
 8517DDP     P251099  28.414  20.349  17.603 -0.1136 -0.1985  0.1130
 8517DDP     C251100  28.709  20.652  17.424 -0.1026  0.2313 -0.1627
 8517DDP     C351101  28.598  19.821  16.764 -0.0231  0.0838  0.1509
 8517DDP     C451102  27.673  19.965  17.875 -0.1744 -0.0285  0.6005
 8518DDP     C151103  21.412   6.437  26.241  0.0657  0.0729  0.1581
 8518DDP     P151104  21.252   6.137  25.859  0.3015 -0.0609  0.0088
 8518DDP     P251105  21.259   6.700  26.656 -0.1653 -0.4097 -0.2018
 8518DDP     C251106  20.876   7.030  26.796 -0.4869 -0.1095  0.0393
 8518DDP     C351107  21.030   5.760  25.774 -0.2132  0.1179  0.2294
 8518DDP     C451108  21.837   6.592  26.251 -0.4005 -0.3906  0.0620
 8519DDP     C151109  15.567   4.307  21.612  0.2115 -0.0387 -0.0822
 8519DDP     P151110  15.769   3.954  21.735  0.2954 -0.4400  0.1148
 8519DDP     P251111  15.163   4.488  21.637  0.1085 -0.3930  0.1204
 8519DDP     C251112  14.808   4.414  21.321  0.1917 -0.0320  0.0202
 8519DDP     C351113  16.236   4.060  21.694 -0.1654  0.0213  0.1700
 8519DDP     C451114  15.942   4.475  21.351  0.1255  0.1825  0.1798
 8520DDP     C151115  29.663  22.153   9.434  0.4392 -0.3426 -0.3661
 8520DDP     P151116  29.659  22.409   9.061 -0.1042  0.1151  0.1207
 8520DDP     P251117  29.387  21.887   9.579  0.1778 -0.5176  0.1005
 8520DDP     C251118  29.341  21.676   9.923 -0.2166  0.0180 -0.0592
 8520DDP     C351119  29.733  22.127   8.702 -0.1051  0.1857 -0.0505
 8520DDP     C451120  29.987  22.267   9.662 -0.2253 -0.0386  0.3104
 8521DDP     C151121  17.418  15.426  19.293 -0.0114  0.0325  0.0117
 8521DDP     P151122  17.924  15.674  19.429 -0.0103 -0.1829 -0.1030
 8521DDP     P251123  17.092  15.646  19.351  0.0540 -0.0291  0.0102
 8521DDP     C251124  16.928  16.069  19.147  0.0811 -0.2464 -0.0300
 8521DDP     C351125  18.078  15.982  19.714 -0.0100 -0.0527  0.0536
 8521DDP     C451126  17.311  14.984  19.170 -0.0527 -0.1300  0.1527
 8522DDP     C151127   7.443   6.305   7.091  0.0819  0.4467  0.2815
 8522DDP     P151128   7.129   6.019   7.067 -0.2306  0.0047  0.0184
 8522DDP     P251129   7.737   6.290   7.401 -0.2258  0.1695 -0.1178
 8522DDP     C251130   8.071   6.478   7.696 -0.1634 -0.2162 -0.0505
 8522DDP     C351131   7.193   5.583   7.105  0.1398  0.0110  0.2438
 8522DDP     C451132   7.674   6.344   6.672  0.0657  0.0445  0.0787
 8523DDP     C151133  27.038  23.776  25.484  0.4119  0.1163  0.0472
 8523DDP     P151134  27.408  23.868  25.747  0.1522 -0.0019  0.1654
 8523DDP     P251135  26.864  23.367  25.492 -0.0599  0.1780  0.2753
 8523DDP     C251136  26.973  23.021  25.426 -0.2890 -0.3859 -0.0786
 8523DDP     C351137  27.713  24.248  25.736  0.1100 -0.0385 -0.1543
 8523DDP     C451138  27.107  24.090  25.182  0.2362 -0.0508 -0.0796
 8524DDP     C151139  17.732  12.647  15.254 -0.0333  0.0985  0.1321
 8524DDP     P151140  17.664  12.812  14.836 -0.1840  0.1234  0.1992
 8524DDP     P251141  17.520  12.332  15.366 -0.3488  0.0388  0.0802
 8524DDP     C251142  17.287  11.992  15.657  0.3053  0.1421 -0.1539
 8524DDP     C351143  17.297  12.999  14.601  0.3670 -0.1652 -0.4339
 8524DDP     C451144  17.983  12.845  15.550  0.0480  0.1867  0.0894
 8525DDP     C151145   7.926   3.420  11.523  0.0294  0.0766  0.2027
 8525DDP     P151146   8.195   3.080  11.385 -0.0638  0.0633 -0.1316
 8525DDP     P251147   7.519   3.269  11.745 -0.1031 -0.0527 -0.0102
 8525DDP     C251148   7.133   3.055  11.773 -0.2092 -0.0515 -0.1762
 8525DDP     C351149   8.133   2.680  11.410  0.1294  0.4629  0.3429
 8525DDP     C451150   7.975   3.852  11.546  0.5084 -0.0113 -0.0818
 8526DDP     C151151  15.807   3.024  29.771 -0.1854 -0.1621 -0.0591
 8526DDP     P151152  16.251   2.922  29.805 -0.2673 -0.0583  0.3196
 8526DDP     P251153  15.652   3.397  29.690 -0.0643  0.2996  0.2625
 8526DDP     C251154  15.814   3.766  29.517 -0.0967  0.1486 -0.0074
 8526DDP     C351155  16.279   2.619  29.536 -0.0630 -0.0149  0.2304
 8526DDP     C451156  15.497   2.804  29.805  0.0538  0.1382 -0.0377
 8527DDP     C151157   0.394  27.848   3.532  0.1065 -0.0852 -0.2078
 8527DDP     P151158   0.111  28.129   3.526  0.0345  0.0150 -0.3700
 8527DDP     P251159   0.786  27.907   3.741 -0.1286 -0.1426 -0.1580
 8527DDP     C251160   0.995  28.324   3.995  0.2679 -0.2152 -0.3329
 8527DDP     C351161  30.001  28.403   3.637 -0.0924  0.1779  0.0463
 8527DDP     C451162   0.433  27.647   3.138  0.2497 -0.3022 -0.1008
 8528DDP     C151163   1.021   9.150   9.707 -0.1391 -0.2113 -0.0907
 8528DDP     P151164   0.872   9.376   9.425 -0.0803  0.2343  0.1109
 8528DDP     P251165   1.006   9.447  10.128 -0.0190 -0.0186 -0.0602
 8528DDP     C251166   0.674   9.399  10.391  0.1341 -0.0511 -0.2604
 8528DDP     C351167   0.420   9.367   9.393 -0.0368 -0.0153 -0.1761
 8528DDP     C451168   1.174   8.803   9.609 -0.1752  0.0305 -0.0249
 8529DDP     C151169  11.901  15.986  27.044 -0.2043  0.1298 -0.1473
 8529DDP     P151170  11.933  16.219  27.459  0.1849 -0.1089 -0.1038
 8529DDP     P251171  11.963  16.274  26.639  0.1234  0.0596  0.0230
 8529DDP     C251172  12.489  16.467  26.570  0.1889 -0.1148 -0.1274
 8529DDP     C351173  11.992  16.597  27.633 -0.2909  0.0491 -0.4429
 8529DDP     C451174  12.040  15.560  26.968 -0.2800 -0.0126 -0.0176
 8530DDP     C151175  12.680   6.907   4.249  0.1716 -0.0319 -0.0428
 8530DDP     P151176  13.056   7.221   4.353 -0.2141 -0.3666 -0.2341
 8530DDP     P251177  12.569   6.722   3.945  0.0430  0.3343  0.0050
 8530DDP     C251178  12.750   6.475   3.663  0.1243 -0.0072  0.2373
 8530DDP     C351179  13.333   7.535   4.097  0.1795  0.2810 -0.2063
 8530DDP     C451180  12.424   6.825   4.739  0.0068 -0.1180 -0.3063
 8531DDP     C151181   2.193  18.900   6.207  0.0802  0.1195 -0.2217
 8531DDP     P151182   2.315  18.785   5.904  0.3624  0.3681 -0.0164
 8531DDP     P251183   2.540  19.138   6.437 -0.0742  0.0197 -0.0458
 8531DDP     C251184   2.865  19.368   6.373  0.1277 -0.1023 -0.0257
 8531DDP     C351185   2.446  18.417   5.742 -0.0150  0.1639  0.1095
 8531DDP     C451186   1.803  18.916   6.300  0.0280  0.0992  0.1358
 8532DDP     C151187  23.959  28.555   1.343  0.0676 -0.1622  0.0704
 8532DDP     P151188  24.081  28.203   1.057  0.0266  0.1834 -0.4318
 8532DDP     P251189  24.129  28.459   1.704  0.2947  0.0474  0.0511
 8532DDP     C251190  24.463  28.610   2.040 -0.0196  0.0801  0.1100
 8532DDP     C351191  24.199  27.878   0.867 -0.0493 -0.0965  0.0763
 8532DDP     C451192  23.723  28.986   1.224  0.0089  0.0116 -0.1027
 8533DDP     C151193  23.758   9.360  17.254  0.0942  0.0524 -0.1581
 8533DDP     P151194  23.628   9.752  17.365 -0.0676  0.1479  0.0868
 8533DDP     P251195  23.893   9.453  16.916 -0.2075  0.0615 -0.0388
 8533DDP     C251196  23.754   9.806  16.861  0.0845  0.3557 -0.2122
 8533DDP     C351197  23.453  10.065  17.472 -0.0882  0.2215 -0.3295
 8533DDP     C451198  23.783   8.968  17.575 -0.1439 -0.0571 -0.1561
 8534DDP     C151199  19.780  10.067  20.068  0.1950 -0.0100 -0.0422
 8534DDP     P151200  20.151  10.183  20.105  0.0853 -0.0385  0.3095
 8534DDP     P251201  19.572  10.454  20.163 -0.2427  0.0638  0.1530
 8534DDP     C251202  19.140  10.589  20.175  0.2111 -0.0538  0.2859
 8534DDP     C351203  20.543   9.925  20.215  0.0689 -0.0202  0.0574
 8534DDP     C451204  19.542   9.659  19.847  0.3748 -0.2309  0.0259
 8535DDP     C151205  21.100   1.095  22.526 -0.0690 -0.2860  0.3521
 8535DDP     P151206  20.690   1.101  22.490 -0.0674  0.1974 -0.1142
 8535DDP     P251207  21.409   1.005  22.234  0.0371  0.1144 -0.2920
 8535DDP     C251208  21.445   0.793  21.833 -0.1671 -0.0800  0.2853
 8535DDP     C351209  20.445   1.384  22.721 -0.0347 -0.1460  0.0279
 8535DDP     C451210  21.248   1.187  22.857  0.0725 -0.0104  0.0708
 8536DDP     C151211  11.296  13.942  29.985  0.2811 -0.0008  0.1142
 8536DDP     P151212  11.089  13.625  29.760 -0.2127 -0.1832  0.1656
 8536DDP     P251213  11.062  13.984   0.065 -0.4006 -0.1715 -0.0707
 8536DDP     C251214  11.091  13.688   0.378 -0.0815 -0.0992 -0.1520
 8536DDP     C351215  10.784  13.725  29.717 -0.3014  0.3666 -0.0660
 8536DDP     C451216  11.557  14.310  29.965  0.2714  0.1455 -0.0737
 8537DDP     C151217  13.092   8.385  12.455  0.2291 -0.0422  0.0771
 8537DDP     P151218  13.201   8.619  12.172  0.0813  0.1932  0.1259
 8537DDP     P251219  13.218   8.677  12.740 -0.1195 -0.0590 -0.1963
 8537DDP     C251220  13.316   8.674  13.166  0.0265  0.2565 -0.1428
 8537DDP     C351221  13.484   9.026  12.215 -0.0177 -0.2519 -0.0629
 8537DDP     C451222  12.701   8.183  12.550  0.1899 -0.1616 -0.2030
 8538DDP     C151223  27.059  18.557  19.017  0.0222  0.2967 -0.2066
 8538DDP     P151224  26.792  18.326  19.312 -0.1440  0.0074  0.0533
 8538DDP     P251225  26.966  18.865  18.629 -0.1624 -0.2257 -0.1405
 8538DDP     C251226  26.648  18.935  18.390 -0.0539 -0.0401  0.3212
 8538DDP     C351227  26.478  18.241  19.060 -0.0345 -0.0390  0.1451
 8538DDP     C451228  27.526  18.355  18.896 -0.6237 -0.2074  0.2970
 8539DDP     C151229  17.369  28.113  26.819  0.2885  0.1084  0.0998
 8539DDP     P151230  17.491  27.711  26.838  0.0353 -0.0247  0.0200
 8539DDP     P251231  16.902  28.266  26.596  0.0377  0.0466 -0.1770
 8539DDP     C251232  16.644  28.580  26.334  0.3295  0.0775 -0.0571
 8539DDP     C351233  17.254  27.351  26.616 -0.3009 -0.0417 -0.2667
 8539DDP     C451234  17.495  28.472  26.976  0.1359 -0.1339  0.0290
 8540DDP     C151235   4.580   6.973  27.669  0.0205  0.1023 -0.0336
 8540DDP     P151236   4.668   6.589  27.376 -0.1400 -0.0929  0.1015
 8540DDP     P251237   4.909   7.329  27.680 -0.1664  0.0758  0.2030
 8540DDP     C251238   4.809   7.696  27.904  0.3702  0.2920 -0.1349
 8540DDP     C351239   4.852   6.265  27.155 -0.1148  0.2543 -0.0858
 8540DDP     C451240   4.075   6.900  27.738 -0.0226 -0.4343 -0.1575
 8541DDP     C151241  16.060  27.078   5.031 -0.2619 -0.1751  0.0002
 8541DDP     P151242  16.197  26.916   4.621 -0.0059  0.0187 -0.1229
 8541DDP     P251243  15.866  27.484   5.007  0.0829  0.2382  0.0565
 8541DDP     C251244  15.776  27.963   4.970  0.1049 -0.0393 -0.0439
 8541DDP     C351245  15.870  26.935   4.204  0.1504 -0.0968 -0.5577
 8541DDP     C451246  16.275  26.878   5.337  0.0265  0.0588  0.3694
 8542DDP     C151247  17.508  11.325  19.473 -0.1380  0.2106  0.0028
 8542DDP     P151248  16.995  11.260  19.520 -0.0838  0.1347 -0.4043
 8542DDP     P251249  17.676  11.070  19.581 -0.0071  0.2343  0.0410
 8542DDP     C251250  17.813  10.816  20.011  0.1582 -0.3285 -0.0707
 8542DDP     C351251  16.741  11.580  19.545  0.1321  0.0381  0.0592
 8542DDP     C451252  17.775  11.705  19.361  0.1646 -0.1499 -0.0642
 8543DDP     C151253   0.759  11.762  14.869  0.0062  0.0141 -0.2807
 8543DDP     P151254   0.816  11.386  14.669 -0.0756  0.0897 -0.0285
 8543DDP     P251255   0.698  12.087  14.555  0.3299  0.1712 -0.0866
 8543DDP     C251256   0.534  12.151  14.164  0.0994 -0.0517 -0.0546
 8543DDP     C351257   0.947  11.288  14.255  0.1035  0.2489  0.0513
 8543DDP     C451258   0.678  11.859  15.285 -0.1909  0.2697  0.1749
 8544DDP     C151259   5.387  29.987  20.631  0.1286  0.2382 -0.1490
 8544DDP     P151260   5.713  29.969  20.943 -0.0951  0.1157  0.1837
 8544DDP     P251261   5.254  -0.018  20.547 -0.1908 -0.3772  0.2062
 8544DDP     C251262   5.084   0.378  20.557  0.1560 -0.2102 -0.0911
 8544DDP     C351263   5.846  30.287  21.127 -0.1721 -0.2795  0.1278
 8544DDP     C451264   5.095  29.593  20.541 -0.0215  0.3325  0.0352
 8545DDP     C151265  28.254   2.295  27.842 -0.0510 -0.4740 -0.0437
 8545DDP     P151266  28.663   2.358  27.990 -0.3067 -0.2123 -0.1153
 8545DDP     P251267  28.091   1.941  27.685  0.0428 -0.1120 -0.1019
 8545DDP     C251268  27.804   1.700  27.973 -0.1435  0.1543  0.1954
 8545DDP     C351269  29.035   2.493  28.222  0.1092 -0.0216  0.3631
 8545DDP     C451270  27.971   2.445  28.203 -0.1296 -0.0545 -0.0841
 8546DDP     C151271   5.564   4.422  28.819 -0.1269  0.0420  0.2915
 8546DDP     P151272   5.487   4.216  28.517  0.0424  0.1162 -0.3386
 8546DDP     P251273   5.806   4.899  28.845 -0.0545 -0.1237 -0.0378
 8546DDP     C251274   5.760   5.003  28.420  0.1065  0.1467  0.2137
 8546DDP     C351275   5.466   3.823  28.325  0.1231 -0.1645  0.1119
 8546DDP     C451276   5.525   4.292  29.319  0.0003 -0.2058  0.1084
 8547DDP     C151277  13.006  25.218   0.082  0.0117  0.2480  0.0270
 8547DDP     P151278  13.242  25.470  30.104  0.0023 -0.2735  0.3557
 8547DDP     P251279  12.735  24.870  30.118 -0.0291  0.1544  0.2807
 8547DDP     C251280  12.577  24.740  29.778 -0.3008 -0.1566  0.2190
 8547DDP     C351281  13.321  25.652  29.708  0.0710 -0.0390 -0.0969
 8547DDP     C451282  13.104  25.107   0.479  0.1353 -0.3789 -0.0438
 8548DDP     C151283  26.523  23.531   9.411 -0.0552  0.2415 -0.0913
 8548DDP     P151284  26.112  23.493   9.633  0.3118  0.1053 -0.0764
 8548DDP     P251285  26.711  23.926   9.311 -0.0887  0.2053 -0.2540
 8548DDP     C251286  27.158  23.998   9.224 -0.0408  0.3347 -0.2110
 8548DDP     C351287  25.829  23.410  10.144  0.0595 -0.0236  0.3562
 8548DDP     C451288  26.839  23.292   9.108 -0.2562 -0.2011  0.0543
 8549DDP     C151289   8.197  26.121   5.737  0.3353 -0.3168  0.2325
 8549DDP     P151290   8.141  26.134   6.126 -0.0743  0.0333  0.0802
 8549DDP     P251291   8.564  26.279   5.753 -0.0307 -0.2024  0.3056
 8549DDP     C251292   8.987  26.240   5.747  0.1934 -0.0585 -0.1843
 8549DDP     C351293   8.107  26.452   6.428 -0.1547 -0.0898 -0.2180
 8549DDP     C451294   7.930  26.318   5.459  0.4303 -0.1329 -0.2001
 8550DDP     C151295   3.741   8.590  25.333  0.0963  0.2939 -0.1139
 8550DDP     P151296   3.812   8.188  25.066 -0.0002 -0.0739 -0.1547
 8550DDP     P251297   3.541   8.437  25.646  0.1833  0.0350 -0.0930
 8550DDP     C251298   3.285   8.077  25.676  0.2022  0.0036  0.0431
 8550DDP     C351299   4.093   7.869  25.291  0.1065 -0.0389 -0.0492
 8550DDP     C451300   3.674   9.032  25.361  0.1812  0.0094  0.1189
 8551DDP     C151301   6.928  25.498  26.599 -0.1571  0.3085  0.0633
 8551DDP     P151302   6.939  25.370  27.027 -0.0668 -0.0102  0.0771
 8551DDP     P251303   6.536  25.562  26.434  0.1526 -0.2643  0.3493
 8551DDP     C251304   6.118  25.336  26.644  0.0489  0.0878  0.0309
 8551DDP     C351305   6.766  25.259  27.480 -0.1249 -0.2494 -0.1034
 8551DDP     C451306   7.246  25.483  26.429 -0.3126  0.0699  0.0527
 8552DDP     C151307  16.158  29.535  26.793  0.0601  0.0635  0.1721
 8552DDP     P151308  16.429  29.313  26.485 -0.2330 -0.0350 -0.1112
 8552DDP     P251309  15.795  29.712  26.648  0.0323 -0.1100 -0.1516
 8552DDP     C251310  15.425  29.751  27.041 -0.3633 -0.1414 -0.1918
 8552DDP     C351311  16.518  29.048  26.144  0.0510  0.1768 -0.0148
 8552DDP     C451312  16.445  29.691  27.007  0.1736  0.0812  0.0168
 8553DDP     C151313   8.549  13.235  24.834  0.1311 -0.0121  0.1285
 8553DDP     P151314   8.681  13.596  24.920 -0.2110  0.1933  0.0113
 8553DDP     P251315   8.167  13.193  24.750 -0.1159  0.1324  0.2746
 8553DDP     C251316   8.221  13.348  24.410  0.1817 -0.0206  0.0846
 8553DDP     C351317   8.578  13.977  25.017  0.1180 -0.3411  0.0982
 8553DDP     C451318   8.638  12.830  24.956 -0.3030 -0.2329  0.1458
 8554DDP     C151319   3.759  16.602  17.661 -0.0495 -0.0544 -0.1263
 8554DDP     P151320   3.984  16.531  17.300  0.2408  0.0124  0.0485
 8554DDP     P251321   3.762  17.072  17.779 -0.0799 -0.1108 -0.2133
 8554DDP     C251322   3.632  17.566  17.607  0.0569 -0.0556  0.1876
 8554DDP     C351323   4.220  16.846  17.058 -0.1392 -0.0094  0.3532
 8554DDP     C451324   3.451  16.330  17.527 -0.0753  0.4777  0.0799
 8555DDP     C151325   3.298  29.870  25.395  0.2117 -0.1195 -0.1415
 8555DDP     P151326   3.684  30.066  25.289 -0.3289 -0.2995  0.1139
 8555DDP     P251327   3.185  29.926  24.937 -0.3715  0.1678 -0.0540
 8555DDP     C251328   2.820  30.078  24.669 -0.0542  0.1256  0.1735
 8555DDP     C351329   4.167  30.109  25.368 -0.2313  0.2261  0.1112
 8555DDP     C451330   2.972  29.940  25.766 -0.2714  0.0987  0.0985
 8556DDP     C151331  12.688  26.319  19.867  0.1358 -0.0334 -0.2355
 8556DDP     P151332  12.494  26.515  20.213  0.0365 -0.1909 -0.0141
 8556DDP     P251333  12.349  26.058  19.743 -0.1016  0.1225 -0.0966
 8556DDP     C251334  12.150  25.694  19.845 -0.0714  0.2288 -0.0775
 8556DDP     C351335  12.285  26.731  20.445 -0.0882  0.2959  0.0054
 8556DDP     C451336  13.106  26.332  19.745 -0.2482  0.0428  0.0352
 8557DDP     C151337   5.043  26.855   9.497  0.0800  0.4198  0.0809
 8557DDP     P151338   4.957  26.537   9.732  0.3167 -0.3292  0.2054
 8557DDP     P251339   5.040  26.553   9.233  0.0500  0.0224  0.2709
 8557DDP     C251340   4.917  26.194   9.255  0.0257 -0.2695 -0.1586
 8557DDP     C351341   4.937  26.307  10.062  0.3986  0.1973 -0.2135
 8557DDP     C451342   4.992  27.230   9.495 -0.0526 -0.0304 -0.2264
 8558DDP     C151343   1.701  23.522  16.610  0.0552 -0.0634  0.0898
 8558DDP     P151344   1.872  23.263  16.968  0.1847  0.1141 -0.2384
 8558DDP     P251345   2.005  23.791  16.386 -0.0478 -0.1136  0.1666
 8558DDP     C251346   2.336  23.929  16.251  0.0883 -0.3659  0.0810
 8558DDP     C351347   2.257  23.025  17.046 -0.2796 -0.3777 -0.2839
 8558DDP     C451348   1.338  23.401  16.377  0.3461 -0.1526  0.0563
 8559DDP     C151349  22.652  19.627  21.803 -0.1476  0.0531 -0.3210
 8559DDP     P151350  22.345  19.360  22.051  0.2627 -0.1155  0.1354
 8559DDP     P251351  22.511  19.756  21.452  0.0444  0.0495  0.1903
 8559DDP     C251352  22.538  19.921  21.129  0.2521 -0.0273  0.0149
 8559DDP     C351353  22.034  19.045  22.305 -0.1713 -0.1748 -0.0071
 8559DDP     C451354  23.060  19.532  21.889 -0.2431  0.0064  0.0864
 8560DDP     C151355  14.003  18.207   1.532 -0.0117 -0.2343  0.0900
 8560DDP     P151356  14.231  17.976   1.243 -0.1060 -0.2371  0.1029
 8560DDP     P251357  13.617  18.240   1.653 -0.2358 -0.0320 -0.1086
 8560DDP     C251358  13.219  18.130   1.821 -0.0714 -0.1983  0.0357
 8560DDP     C351359  14.309  18.055   0.867 -0.0605 -0.2334 -0.2544
 8560DDP     C451360  14.268  18.540   1.398  0.0561 -0.2634 -0.1387
 8561DDP     C151361  12.433  12.411  25.379 -0.0013  0.0305 -0.2265
 8561DDP     P151362  12.152  11.980  25.297  0.2930 -0.0897  0.1431
 8561DDP     P251363  12.456  12.671  25.765 -0.1839  0.0932 -0.4070
 8561DDP     C251364  12.125  12.790  26.014  0.2141  0.0800  0.0526
 8561DDP     C351365  12.318  11.550  25.258  0.0369 -0.4278 -0.4034
 8561DDP     C451366  12.877  12.376  25.218  0.0266 -0.0395 -0.2357
 8562DDP     C151367  28.847   9.008  27.361 -0.3216 -0.1948 -0.2247
 8562DDP     P151368  28.714   9.429  27.423  0.1664  0.1486 -0.0580
 8562DDP     P251369  28.745   8.865  26.904 -0.0468  0.1245 -0.0929
 8562DDP     C251370  29.005   8.704  26.537  0.0212  0.3176  0.0802
 8562DDP     C351371  28.411   9.693  27.395 -0.1797  0.0760 -0.1519
 8562DDP     C451372  29.281   8.920  27.425  0.0136 -0.0280 -0.4134
 8563DDP     C151373   5.414  25.970  19.568 -0.2714  0.3191  0.1225
 8563DDP     P151374   5.442  25.965  20.051 -0.0473 -0.1067  0.0981
 8563DDP     P251375   5.318  26.375  19.302 -0.0298 -0.0011 -0.0623
 8563DDP     C251376   5.358  26.705  19.099 -0.1825 -0.1236 -0.3310
 8563DDP     C351377   5.796  25.513  20.175 -0.1395 -0.1066  0.0408
 8563DDP     C451378   5.499  25.577  19.362 -0.2153 -0.0438  0.4920
 8564DDP     C151379  24.256   2.344  21.777  0.1754 -0.0892  0.0306
 8564DDP     P151380  24.081   1.912  21.768 -0.2196 -0.2853  0.2214
 8564DDP     P251381  24.300   2.501  21.396  0.1541 -0.0188  0.2475
 8564DDP     C251382  24.313   2.766  21.103 -0.3118  0.1462 -0.0905
 8564DDP     C351383  24.053   1.489  21.594 -0.3655 -0.0318 -0.3232
 8564DDP     C451384  24.171   2.580  22.144 -0.0679  0.2391 -0.1743
 8565DDP     C151385  28.212   6.778  25.301 -0.1859 -0.1245 -0.1046
 8565DDP     P151386  28.410   6.467  25.044  0.0288 -0.0582 -0.0012
 8565DDP     P251387  27.775   6.763  25.104 -0.1501 -0.2438 -0.2235
 8565DDP     C251388  27.421   6.654  25.226  0.3214  0.2137  0.1626
 8565DDP     C351389  28.443   5.988  24.888  0.0940  0.0203 -0.1489
 8565DDP     C451390  28.364   7.178  25.496 -0.0395  0.1760  0.1451
 8566DDP     C151391  11.435   1.251  28.142 -0.1410  0.0900 -0.1255
 8566DDP     P151392  11.714   1.086  28.463  0.0302 -0.2726 -0.0181
 8566DDP     P251393  11.500   1.590  27.894  0.1728  0.0915  0.2294
 8566DDP     C251394  11.833   1.839  27.783 -0.1759  0.1911  0.1985
 8566DDP     C351395  12.143   1.290  28.535 -0.2838 -0.1625 -0.0647
 8566DDP     C451396  11.039   1.039  28.173  0.1378  0.1253  0.0808
 8567DDP     C151397   4.904   3.439  23.206 -0.2370  0.0049  0.0625
 8567DDP     P151398   4.941   3.448  22.756  0.2912 -0.3335 -0.2516
 8567DDP     P251399   5.128   3.240  23.312 -0.0794 -0.1254 -0.2768
 8567DDP     C251400   5.549   3.217  23.288 -0.0077 -0.0815  0.1356
 8567DDP     C351401   4.979   3.679  22.356 -0.2835 -0.2391  0.0498
 8567DDP     C451402   4.592   3.698  23.428 -0.2056 -0.2592  0.0877
 8568DDP     C151403  22.005  11.926  16.546  0.2238  0.0907 -0.0813
 8568DDP     P151404  21.654  11.974  16.511 -0.0836 -0.0460  0.0053
 8568DDP     P251405  22.100  11.480  16.662  0.1392 -0.3196 -0.1848
 8568DDP     C251406  22.256  11.082  16.562 -0.2988  0.0092  0.2551
 8568DDP     C351407  21.230  11.914  16.693 -0.2581 -0.3136 -0.0730
 8568DDP     C451408  22.335  12.283  16.574  0.0589 -0.0163 -0.0224
 8569DDP     C151409  18.747   2.443   0.346 -0.0745 -0.1061  0.0288
 8569DDP     P151410  18.351   2.189   0.445 -0.3003  0.1428  0.3028
 8569DDP     P251411  19.151   2.331   0.268 -0.0253  0.0598 -0.3403
 8569DDP     C251412  19.547   2.248   0.014 -0.0617 -0.1068 -0.0719
 8569DDP     C351413  18.029   2.020   0.675 -0.1031 -0.1792  0.0622
 8569DDP     C451414  18.655   2.880   0.513 -0.0791 -0.3658 -0.2279
 8570DDP     C151415  11.118   9.346  19.236 -0.1017  0.0607 -0.0870
 8570DDP     P151416  11.078   9.665  18.976 -0.0481  0.2086 -0.0635
 8570DDP     P251417  10.633   9.358  19.447 -0.3079  0.0699 -0.2180
 8570DDP     C251418  10.474   8.938  19.520 -0.3460  0.0346  0.2121
 8570DDP     C351419  11.150   9.990  18.917 -0.0733 -0.2111  0.1092
 8570DDP     C451420  11.244   8.993  19.226  0.1856  0.2833  0.2730
 8571DDP     C151421   7.647  27.464  24.697  0.1858  0.4274  0.1549
 8571DDP     P151422   7.496  27.327  24.366  0.1172 -0.2075 -0.0500
 8571DDP     P251423   7.581  27.164  24.878 -0.2767 -0.1052  0.0378
 8571DDP     C251424   7.953  26.918  25.074  0.2092  0.0971  0.2318
 8571DDP     C351425   7.301  26.900  24.119 -0.1280 -0.1396 -0.1133
 8571DDP     C451426   7.707  27.806  24.962  0.2010  0.1379  0.0230
 8572DDP     C151427  12.512  13.697  12.226  0.0535  0.2314 -0.0515
 8572DDP     P151428  13.039  13.648  12.246 -0.0920  0.0299  0.2520
 8572DDP     P251429  12.201  14.044  12.193 -0.0371 -0.1799 -0.3044
 8572DDP     C251430  11.869  14.337  11.987  0.4393 -0.0537 -0.1973
 8572DDP     C351431  13.247  13.301  12.527  0.1033 -0.3740 -0.1335
 8572DDP     C451432  12.355  13.203  12.135 -0.1171 -0.1831 -0.0384
 8573DDP     C151433   5.032  23.800   2.592  0.2963 -0.0793 -0.0484
 8573DDP     P151434   5.455  23.613   2.416 -0.0364  0.2173 -0.0562
 8573DDP     P251435   4.853  23.531   2.933 -0.0288 -0.0594  0.2455
 8573DDP     C251436   4.427  23.363   2.850  0.0877 -0.2340  0.1084
 8573DDP     C351437   5.955  23.653   2.604  0.0051  0.0451 -0.0559
 8573DDP     C451438   4.700  24.058   2.400 -0.2025  0.3000  0.2558
 8574DDP     C151439   8.566  18.354  25.982 -0.0900 -0.0001  0.1409
 8574DDP     P151440   8.593  18.709  25.635 -0.2220  0.1730  0.0416
 8574DDP     P251441   8.254  18.116  26.152  0.2072  0.0384  0.0936
 8574DDP     C251442   8.266  17.751  26.332  0.2232 -0.0841 -0.1571
 8574DDP     C351443   8.566  19.052  25.349  0.0482  0.1174  0.3630
 8574DDP     C451444   8.936  18.336  26.226  0.2765 -0.1321  0.1033
 8575DDP     C151445  10.098   6.493  19.467 -0.0760 -0.0101 -0.0375
 8575DDP     P151446  10.224   6.540  19.007 -0.0404  0.0465 -0.0771
 8575DDP     P251447  10.117   6.216  19.799 -0.0742 -0.4102  0.1588
 8575DDP     C251448  10.125   6.197  20.233 -0.3281 -0.0421 -0.1485
 8575DDP     C351449  10.448   6.815  18.799 -0.0808  0.2729 -0.4734
 8575DDP     C451450   9.761   6.684  19.538  0.2579 -0.3937  0.1360
 8576DDP     C151451  25.671  22.442  23.156 -0.1106  0.0293 -0.2013
 8576DDP     P151452  25.550  21.999  22.923 -0.3896  0.0106  0.0885
 8576DDP     P251453  25.604  22.511  23.598 -0.2485  0.4576 -0.0025
 8576DDP     C251454  25.540  22.812  23.906 -0.1643  0.2459  0.4259
 8576DDP     C351455  25.312  21.668  22.607 -0.2993 -0.0257  0.1047
 8576DDP     C451456  25.920  22.744  22.999 -0.2360 -0.2183 -0.3367
 8577DDP     C151457  24.397  25.679   0.085 -0.0127 -0.1552  0.1133
 8577DDP     P151458  24.782  25.595  30.113  0.0492 -0.0798  0.2540
 8577DDP     P251459  24.007  25.523  30.205 -0.2798  0.1963 -0.1189
 8577DDP     C251460  23.986  25.198  29.887 -0.1433  0.0481  0.3629
 8577DDP     C351461  25.125  25.240  30.009 -0.1486  0.0351  0.0066
 8577DDP     C451462  24.400  25.821   0.504  0.1751 -0.1350 -0.4079
 8578DDP     C151463  24.050  18.531  20.565  0.2782  0.1229  0.3983
 8578DDP     P151464  23.699  18.398  20.456 -0.1946 -0.1119  0.3499
 8578DDP     P251465  24.336  18.236  20.434 -0.1082 -0.0822 -0.2241
 8578DDP     C251466  24.574  17.791  20.497 -0.2413  0.0692 -0.2309
 8578DDP     C351467  23.533  18.322  20.030 -0.5130  0.0437 -0.0410
 8578DDP     C451468  24.081  18.978  20.733  0.1190 -0.3874 -0.4893
 8579DDP     C151469  22.253   4.415  13.041 -0.1687 -0.0303 -0.0832
 8579DDP     P151470  22.043   4.544  13.284 -0.1084  0.0448  0.2633
 8579DDP     P251471  22.270   3.915  13.079  0.2255  0.0345 -0.2646
 8579DDP     C251472  21.869   3.635  13.057  0.1330 -0.0165 -0.0391
 8579DDP     C351473  22.155   4.843  13.517 -0.2851  0.1179  0.0542
 8579DDP     C451474  22.294   4.624  12.665  0.1790 -0.1776 -0.2070
 8580DDP     C151475  27.603   6.332   6.061 -0.2559  0.2720  0.1051
 8580DDP     P151476  27.797   5.894   6.110  0.1345  0.1714 -0.2061
 8580DDP     P251477  28.030   6.564   6.021  0.0398  0.1347 -0.2037
 8580DDP     C251478  28.090   6.951   5.726  0.3804  0.1813  0.1513
 8580DDP     C351479  27.838   5.472   6.302  0.0067 -0.1123 -0.1734
 8580DDP     C451480  27.272   6.460   5.923 -0.2531  0.1344 -0.2503
 8581DDP     C151481  18.066  10.794  20.966 -0.1581 -0.0738  0.1439
 8581DDP     P151482  18.459  10.657  21.253 -0.2151 -0.4485  0.1363
 8581DDP     P251483  18.096  10.893  20.563 -0.2152 -0.0427  0.0426
 8581DDP     C251484  17.827  11.201  20.306 -0.1987 -0.1177  0.1507
 8581DDP     C351485  18.864  10.719  21.241 -0.0785  0.1990 -0.2813
 8581DDP     C451486  17.680  10.800  21.135  0.1638  0.0956  0.1214
 8582DDP     C151487   5.268  14.371  22.297 -0.0415  0.0079  0.1063
 8582DDP     P151488   5.527  14.598  22.109  0.1956 -0.1472 -0.1631
 8582DDP     P251489   5.120  14.131  22.037 -0.1415  0.1537 -0.0294
 8582DDP     C251490   4.895  13.757  21.968 -0.1813 -0.3337  0.2402
 8582DDP     C351491   5.864  14.637  21.842  0.1736  0.1359  0.0902
 8582DDP     C451492   5.130  14.408  22.642 -0.1991 -0.1751  0.0064
 8583DDP     C151493   4.349   0.766   6.346 -0.4270  0.1359 -0.0118
 8583DDP     P151494   4.446   0.644   6.729 -0.0448 -0.2564 -0.2574
 8583DDP     P251495   4.354   0.540   6.010  0.1061  0.0940  0.0290
 8583DDP     C251496   4.668   0.467   5.662  0.0190  0.2576 -0.3838
 8583DDP     C351497   4.469   0.589   7.096 -0.3706  0.2257 -0.2220
 8583DDP     C451498   4.147   1.039   6.179  0.1096 -0.1051 -0.0594
 8584DDP     C151499  25.282  13.698  16.720  0.1347 -0.1457 -0.1366
 8584DDP     P151500  25.771  13.741  16.514 -0.4646 -0.2407  0.2264
 8584DDP     P251501  24.915  13.562  16.549 -0.0024 -0.3971 -0.0095
 8584DDP     C251502  24.891  13.216  16.594  0.0202 -0.0268  0.2268
 8584DDP     C351503  26.171  13.526  16.449  0.0466 -0.4441  0.1199
 8584DDP     C451504  25.166  13.845  17.186 -0.2181 -0.2044 -0.1425
 8585DDP     C151505  23.525   8.269  25.648 -0.1430  0.0882 -0.0065
 8585DDP     P151506  23.313   8.130  25.208 -0.0656 -0.2745 -0.0240
 8585DDP     P251507  23.254   8.281  25.979  0.1713 -0.4096  0.1890
 8585DDP     C251508  23.101   8.143  26.343  0.3224  0.1749 -0.2337
 8585DDP     C351509  23.452   7.962  24.799  0.0349  0.2295  0.0592
 8585DDP     C451510  23.933   8.405  25.715 -0.2476  0.3261  0.0085
 8586DDP     C151511  21.706  21.643   1.990  0.0746  0.2692 -0.3853
 8586DDP     P151512  21.928  21.803   2.411  0.2023  0.2047 -0.0915
 8586DDP     P251513  21.406  21.811   1.939 -0.2341 -0.0838 -0.0131
 8586DDP     C251514  21.313  22.053   1.655 -0.1326  0.0148  0.1020
 8586DDP     C351515  21.917  21.735   2.876 -0.1443  0.3132 -0.2274
 8586DDP     C451516  21.983  21.489   1.619  0.3198  0.1803 -0.3144
 8587DDP     C151517  16.627   5.380  24.781 -0.3579 -0.1129 -0.0367
 8587DDP     P151518  16.610   5.767  25.044 -0.2817 -0.3076 -0.0439
 8587DDP     P251519  16.552   4.922  24.701  0.0261 -0.2967  0.0980
 8587DDP     C251520  16.359   4.552  24.429 -0.1395  0.0885  0.0056
 8587DDP     C351521  16.553   6.095  25.360  0.1798 -0.0091  0.0034
 8587DDP     C451522  17.042   5.134  24.795  0.1548  0.2657  0.2061
 8588DDP     C151523  23.646  15.134  28.337  0.2020 -0.1401  0.0785
 8588DDP     P151524  23.347  14.812  28.315  0.1784 -0.1999  0.0074
 8588DDP     P251525  23.898  15.085  28.005 -0.6057 -0.0027  0.2181
 8588DDP     C251526  24.081  14.774  27.749  0.0238  0.1101  0.2920
 8588DDP     C351527  23.149  14.445  28.002  0.1153 -0.1266  0.2847
 8588DDP     C451528  23.892  15.301  28.769 -0.1378 -0.1783  0.2877
 8589DDP     C151529  11.890  10.083  17.473  0.0253  0.2797 -0.2463
 8589DDP     P151530  12.374  10.004  17.721  0.0996 -0.0126 -0.4325
 8589DDP     P251531  11.549   9.930  17.334  0.0058 -0.0761 -0.2585
 8589DDP     C251532  11.113   9.629  17.303  0.2169 -0.0179  0.2459
 8589DDP     C351533  12.711   9.747  17.940 -0.5360 -0.1606  0.4181
 8589DDP     C451534  11.866  10.469  17.262  0.0538 -0.0689  0.0820
 8590DDP     C151535  13.265  18.105  17.930  0.0771 -0.1034  0.1094
 8590DDP     P151536  13.536  18.195  18.310 -0.2478 -0.1417  0.0704
 8590DDP     P251537  13.066  17.749  17.983 -0.0697 -0.0359 -0.1458
 8590DDP     C251538  12.696  17.874  18.171  0.1102 -0.0130 -0.1296
 8590DDP     C351539  13.827  18.468  18.509  0.0858 -0.0493  0.1591
 8590DDP     C451540  13.111  18.375  17.639 -0.1356  0.2501 -0.4740
 8591DDP     C151541   2.722  12.226   0.855 -0.1747 -0.1754  0.0754
 8591DDP     P151542   2.582  11.780   0.601  0.2074  0.1285 -0.0978
 8591DDP     P251543   2.730  12.543   0.602 -0.0733  0.0502 -0.1942
 8591DDP     C251544   2.897  12.895   0.361 -0.1945  0.1449  0.3021
 8591DDP     C351545   2.533  11.443   0.875 -0.0559  0.0251 -0.0611
 8591DDP     C451546   2.696  12.292   1.341 -0.1842 -0.1344  0.0782
 8592DDP     C151547  25.617   3.508   9.128 -0.0077  0.0421  0.1423
 8592DDP     P151548  25.772   3.252   8.913 -0.1363  0.2051  0.1267
 8592DDP     P251549  25.731   3.818   9.000 -0.0211 -0.1419  0.0700
 8592DDP     C251550  25.756   4.019   8.525 -0.1236 -0.0848 -0.0541
 8592DDP     C351551  25.738   3.071   8.528 -0.1715 -0.2104  0.0465
 8592DDP     C451552  25.191   3.519   9.317  0.2485 -0.1840 -0.1076
 8593DDP     C151553  12.202  18.908  29.018  0.4272  0.0739  0.2142
 8593DDP     P151554  12.241  18.790  29.472 -0.2151  0.1934  0.0873
 8593DDP     P251555  12.208  18.633  28.649 -0.2018 -0.0812  0.1874
 8593DDP     C251556  11.889  18.505  28.334 -0.2142 -0.0888 -0.0421
 8593DDP     C351557  12.599  18.810  29.644  0.1058 -0.0199  0.0685
 8593DDP     C451558  12.138  19.329  28.878  0.2099 -0.2443  0.2809
 8594DDP     C151559  12.982  28.321  12.434 -0.1258 -0.1297  0.0138
 8594DDP     P151560  13.201  28.185  12.774 -0.0794 -0.0057 -0.1524
 8594DDP     P251561  12.759  28.640  12.649 -0.0478  0.0616  0.1743
 8594DDP     C251562  12.649  28.842  12.948 -0.0198 -0.0564 -0.1128
 8594DDP     C351563  13.127  27.854  13.062  0.1693  0.1872 -0.0468
 8594DDP     C451564  12.735  28.057  12.275  0.2626 -0.1462  0.0908
 8595DDP     C151565   5.719  24.371   5.141 -0.0340 -0.1958  0.1191
 8595DDP     P151566   5.869  23.984   5.295 -0.1285 -0.0552 -0.0964
 8595DDP     P251567   5.436  24.517   5.409 -0.0506 -0.0013 -0.1066
 8595DDP     C251568   5.210  24.704   5.768  0.2280 -0.1422  0.4350
 8595DDP     C351569   6.185  23.807   5.553  0.0703 -0.3057  0.1948
 8595DDP     C451570   5.660  24.529   4.745  0.0429 -0.0841 -0.1158
 8596DDP     C151571  17.170   4.697  25.498  0.4217  0.2536  0.0399
 8596DDP     P151572  17.306   5.052  25.754 -0.1665 -0.2227 -0.3433
 8596DDP     P251573  16.928   4.762  25.154  0.0301 -0.0008 -0.2458
 8596DDP     C251574  16.608   4.396  24.980 -0.3572 -0.1749  0.1774
 8596DDP     C351575  17.564   5.349  25.986  0.2593  0.0173  0.1772
 8596DDP     C451576  17.317   4.336  25.163 -0.0798 -0.1937  0.0062
 8597DDP     C151577  26.251   7.687  15.005 -0.2376  0.2718  0.1759
 8597DDP     P151578  26.405   7.933  14.626  0.0486 -0.0633  0.0100
 8597DDP     P251579  26.296   7.218  14.800 -0.1133 -0.1867 -0.1849
 8597DDP     C251580  26.359   6.842  14.602 -0.1166  0.0233 -0.1282
 8597DDP     C351581  26.093   8.056  14.212  0.2936  0.0429 -0.0939
 8597DDP     C451582  26.323   8.015  15.232  0.1471 -0.3516  0.0528
 8598DDP     C151583  11.003   1.406  24.953 -0.0989 -0.0269 -0.1607
 8598DDP     P151584  11.397   1.645  25.066  0.0248  0.1742  0.2262
 8598DDP     P251585  10.819   1.021  25.185 -0.0894  0.3218 -0.0064
 8598DDP     C251586  10.473   0.604  25.146 -0.0482  0.3066 -0.1050
 8598DDP     C351587  11.815   1.557  24.841  0.1722  0.2286  0.0178
 8598DDP     C451588  10.832   1.376  24.523 -0.2521 -0.1465 -0.3140
 8599DDP     C151589  11.621   0.982   9.196  0.1062  0.0731 -0.2503
 8599DDP     P151590  11.213   1.104   9.346 -0.0627 -0.1566  0.1829
 8599DDP     P251591  11.656   0.816   8.806  0.1115  0.0603 -0.1792
 8599DDP     C251592  11.733   0.979   8.440  0.5026 -0.0287 -0.0183
 8599DDP     C351593  11.021   1.494   9.491 -0.1173  0.0293  0.1194
 8599DDP     C451594  11.927   1.261   9.422  0.3615  0.2437  0.0081
 8600DDP     C151595  19.310   6.419   2.528 -0.0908 -0.1019  0.1613
 8600DDP     P151596  19.501   6.046   2.560  0.3057  0.3340 -0.2213
 8600DDP     P251597  19.580   6.680   2.331 -0.1345  0.1426 -0.1669
 8600DDP     C251598  19.645   7.126   2.644 -0.1047 -0.0633 -0.1916
 8600DDP     C351599  19.752   5.790   2.265  0.2785 -0.2032 -0.2954
 8600DDP     C451600  18.876   6.600   2.527 -0.2666  0.1130  0.0147
 8601DDP     C151601  10.130  24.960   1.704  0.1467  0.1551 -0.5482
 8601DDP     P151602   9.990  25.430   1.451  0.1469 -0.0726  0.1505
 8601DDP     P251603  10.088  25.002   2.171  0.1052  0.2313  0.0476
 8601DDP     C251604   9.781  24.799   2.379 -0.3457 -0.0628  0.2638
 8601DDP     C351605   9.791  25.825   1.573  0.0803  0.0477 -0.0109
 8601DDP     C451606  10.161  24.617   1.525  0.0268 -0.0395  0.1296
 8602DDP     C151607   3.552  26.043   5.268  0.0558 -0.2702 -0.1289
 8602DDP     P151608   4.037  26.041   5.405 -0.1259 -0.0175  0.2538
 8602DDP     P251609   3.301  26.024   5.642  0.1684  0.2185 -0.2807
 8602DDP     C251610   3.052  26.040   5.928  0.1740 -0.0990 -0.0340
 8602DDP     C351611   4.433  26.286   5.384  0.1363 -0.1363 -0.3932
 8602DDP     C451612   3.487  26.018   4.834  0.1714 -0.0077  0.0353
 8603DDP     C151613  10.919  14.184   4.450 -0.2728  0.2943 -0.1440
 8603DDP     P151614  10.653  14.032   4.828  0.1586  0.1831  0.1091
 8603DDP     P251615  11.294  14.020   4.603  0.0439 -0.1591  0.4882
 8603DDP     C251616  11.694  14.225   4.863 -0.1432 -0.0640  0.2848
 8603DDP     C351617  10.622  13.942   5.284  0.1613 -0.0881 -0.1365
 8603DDP     C451618  11.013  14.459   4.224 -0.1629 -0.2398  0.0532
 8604DDP     C151619   8.049  17.130  28.435  0.1387  0.1025 -0.3628
 8604DDP     P151620   8.035  16.800  28.139  0.2816 -0.2965 -0.1937
 8604DDP     P251621   8.388  17.373  28.458 -0.0230  0.0473 -0.1929
 8604DDP     C251622   8.665  17.711  28.288  0.0175 -0.2255  0.2734
 8604DDP     C351623   7.917  16.358  27.994  0.0820  0.1657  0.3680
 8604DDP     C451624   7.734  17.116  28.722  0.1286 -0.0595  0.0252
 8605DDP     C151625   8.455   9.276  11.416 -0.4285 -0.3944  0.1694
 8605DDP     P151626   8.880   9.277  11.289  0.4116 -0.2114  0.1828
 8605DDP     P251627   8.420   9.729  11.441  0.2682  0.0357 -0.0031
 8605DDP     C251628   8.265  10.172  11.653 -0.2167  0.3185 -0.1549
 8605DDP     C351629   9.227   9.046  11.260  0.4116 -0.5232  0.1308
 8605DDP     C451630   8.147   9.074  11.717  0.1114  0.1109  0.1298
 8606DDP     C151631   3.957  26.357  24.856 -0.1610  0.3157 -0.2867
 8606DDP     P151632   3.792  26.785  24.952 -0.0427 -0.0158  0.2883
 8606DDP     P251633   4.165  26.090  25.229  0.0823 -0.4051  0.1223
 8606DDP     C251634   4.269  25.754  25.303 -0.1330 -0.0242 -0.0683
 8606DDP     C351635   3.757  27.190  24.733  0.0283 -0.3185 -0.3479
 8606DDP     C451636   3.886  26.107  24.441 -0.0696  0.0911  0.3306
 8607DDP     C151637   8.514   2.662  17.291  0.0691 -0.0187  0.2193
 8607DDP     P151638   8.608   2.926  17.040 -0.0953 -0.0787 -0.1510
 8607DDP     P251639   8.903   2.333  17.137  0.0235  0.0494  0.1828
 8607DDP     C251640   9.177   2.009  17.320  0.0364 -0.0442  0.2134
 8607DDP     C351641   8.561   3.337  16.896  0.2994 -0.0922 -0.1914
 8607DDP     C451642   8.062   2.578  17.360  0.2204 -0.2074  0.0132
 8608DDP     C151643  13.452  20.834  25.664  0.0579 -0.2466  0.1570
 8608DDP     P151644  13.829  20.933  25.324  0.2315  0.0647 -0.0311
 8608DDP     P251645  13.098  20.475  25.648 -0.1988  0.1696  0.0025
 8608DDP     C251646  12.632  20.519  25.670  0.0359  0.0004 -0.2334
 8608DDP     C351647  13.884  20.683  24.895 -0.4449 -0.1515 -0.2997
 8608DDP     C451648  13.669  21.052  26.032 -0.1555  0.0132 -0.3078
 8609DDP     C151649   7.757  21.146  10.344 -0.0153 -0.0316 -0.0355
 8609DDP     P151650   7.771  21.497  10.196 -0.5514 -0.1862 -0.2008
 8609DDP     P251651   8.140  20.896  10.252  0.1819  0.1110  0.5129
 8609DDP     C251652   8.413  20.892  10.513  0.1243  0.0726  0.1854
 8609DDP     C351653   7.757  21.934   9.865  0.1189 -0.2277 -0.2197
 8609DDP     C451654   7.384  21.126  10.467 -0.0161 -0.0424  0.1689
 8610DDP     C151655  21.616  15.754  10.243 -0.1451  0.0182  0.0094
 8610DDP     P151656  21.159  15.753  10.102  0.0217  0.2061  0.1855
 8610DDP     P251657  21.763  15.403  10.441 -0.1047  0.3977  0.1513
 8610DDP     C251658  22.003  15.253  10.776 -0.0435  0.1083  0.0581
 8610DDP     C351659  20.910  15.637   9.753 -0.0994 -0.1621 -0.1940
 8610DDP     C451660  21.830  16.121  10.297 -0.3085 -0.0621 -0.1760
 8611DDP     C151661   6.787   8.321  11.819 -0.0439 -0.1034 -0.0223
 8611DDP     P151662   6.830   8.151  11.405  0.1165  0.1135  0.1030
 8611DDP     P251663   7.016   8.332  12.163 -0.1512 -0.0306  0.0095
 8611DDP     C251664   7.309   8.404  12.438 -0.0184  0.1517  0.4845
 8611DDP     C351665   6.757   8.133  10.992 -0.0506 -0.0999 -0.0224
 8611DDP     C451666   6.481   8.642  11.823  0.0213 -0.0138 -0.1666
 8612DDP     C151667   3.077   4.842   3.667  0.0844 -0.0795 -0.1053
 8612DDP     P151668   3.377   4.603   3.863 -0.0121  0.2141 -0.0858
 8612DDP     P251669   2.883   5.051   3.319 -0.0434  0.2584  0.0617
 8612DDP     C251670   2.697   5.435   3.328  0.1145  0.3911  0.0070
 8612DDP     C351671   3.800   4.747   3.926 -0.1115  0.0757 -0.0743
 8612DDP     C451672   2.831   5.063   3.965  0.1692  0.3109 -0.4034
 8613DDP     C151673  15.309  12.972   4.019 -0.0924 -0.1955 -0.0362
 8613DDP     P151674  15.088  12.907   4.411 -0.0410 -0.2010 -0.0560
 8613DDP     P251675  15.702  12.770   3.939 -0.1637 -0.2145 -0.0682
 8613DDP     C251676  16.092  12.806   3.762 -0.1022 -0.4685 -0.1874
 8613DDP     C351677  14.817  12.993   4.873 -0.1747 -0.0776  0.0778
 8613DDP     C451678  15.099  13.293   3.746  0.0298  0.1432 -0.1602
 8614DDP     C151679  14.792  18.800  22.904 -0.1752 -0.0319 -0.2804
 8614DDP     P151680  14.965  18.341  23.019  0.0496 -0.2431 -0.0226
 8614DDP     P251681  14.616  18.466  22.688 -0.0440  0.1369 -0.3529
 8614DDP     C251682  14.458  18.075  22.729 -0.0829 -0.2634  0.2487
 8614DDP     C351683  14.705  17.949  23.159 -0.0496  0.0136 -0.1716
 8614DDP     C451684  14.758  19.188  22.909  0.3800  0.1539  0.1639
 8615DDP     C151685  16.873  25.825   5.565  0.1822  0.1353  0.1319
 8615DDP     P151686  17.162  26.016   5.607 -0.2000  0.1711 -0.0007
 8615DDP     P251687  16.583  26.074   5.709  0.0819  0.1336  0.1471
 8615DDP     C251688  16.267  26.238   5.911  0.1175  0.0440 -0.0058
 8615DDP     C351689  17.632  25.929   5.470 -0.1064  0.0838 -0.1136
 8615DDP     C451690  17.052  25.511   5.310  0.1215 -0.2298 -0.0086
 8616DDP     C151691  27.870  25.664   7.227 -0.1819 -0.1472 -0.1581
 8616DDP     P151692  27.580  25.637   6.857 -0.0578 -0.3325  0.1506
 8616DDP     P251693  27.867  25.312   7.439  0.1172  0.2245 -0.0477
 8616DDP     C251694  27.559  25.205   7.683 -0.1327 -0.0140 -0.3045
 8616DDP     C351695  27.226  25.528   6.645  0.0962 -0.1349  0.0393
 8616DDP     C451696  28.146  25.819   7.460 -0.3352 -0.1462 -0.2991
 8617DDP     C151697  12.085  12.248   5.122 -0.0413  0.0939  0.0920
 8617DDP     P151698  12.102  11.887   5.181  0.3284  0.0136  0.0527
 8617DDP     P251699  12.287  12.294   5.442  0.1905  0.1332  0.2907
 8617DDP     C251700  12.234  12.692   5.680  0.3865  0.2200 -0.0992
 8617DDP     C351701  12.244  11.620   4.930  0.1253 -0.0139 -0.1972
 8617DDP     C451702  12.081  12.456   4.801 -0.0564 -0.0023 -0.0571
 8618DDP     C151703  11.550  13.921  19.318  0.1620 -0.1907 -0.2455
 8618DDP     P151704  11.885  13.817  19.476 -0.5078  0.2389  0.1428
 8618DDP     P251705  11.475  14.246  19.682  0.3594 -0.0228 -0.2694
 8618DDP     C251706  11.529  14.251  20.043  0.0053 -0.2522  0.2786
 8618DDP     C351707  11.981  13.744  19.874 -0.1811 -0.0304 -0.1785
 8618DDP     C451708  11.199  13.691  19.176 -0.1480  0.0538 -0.1544
 8619DDP     C151709   3.741  28.181  12.096 -0.2708 -0.0748  0.0553
 8619DDP     P151710   3.477  27.966  12.362  0.0372  0.0008 -0.1642
 8619DDP     P251711   4.111  28.441  12.153  0.0953  0.3110  0.0728
 8619DDP     C251712   4.425  28.483  12.431 -0.0284  0.1066 -0.3924
 8619DDP     C351713   3.031  27.811  12.467  0.1561 -0.0543 -0.0238
 8619DDP     C451714   3.829  28.001  11.682  0.1715 -0.3904  0.3272
 8620DDP     C151715  21.099   7.184   4.800 -0.0340 -0.0823 -0.0092
 8620DDP     P151716  20.979   7.417   4.529 -0.0578 -0.1145  0.2208
 8620DDP     P251717  20.835   6.764   4.753 -0.1499  0.1011 -0.0453
 8620DDP     C251718  20.401   6.537   4.653 -0.0048 -0.0548 -0.1225
 8620DDP     C351719  20.831   7.231   4.112  0.0895  0.4613  0.4421
 8620DDP     C451720  21.375   7.313   5.006  0.0925  0.1481 -0.1312
 8621DDP     C151721   1.927  15.046  13.097  0.2391 -0.0997  0.0012
 8621DDP     P151722   1.709  14.827  12.860 -0.2393  0.2774 -0.3592
 8621DDP     P251723   1.878  14.581  13.257  0.0679 -0.1044  0.2197
 8621DDP     C251724   1.937  14.347  13.547 -0.0802  0.0252 -0.2736
 8621DDP     C351725   1.537  14.471  12.536  0.3958 -0.0623  0.2086
 8621DDP     C451726   2.237  15.309  12.997  0.1534 -0.0711  0.2946
 8622DDP     C151727  18.805  19.759   8.857 -0.3507 -0.3146  0.1884
 8622DDP     P151728  18.770  20.206   9.145 -0.0053 -0.0903  0.0129
 8622DDP     P251729  18.446  19.653   8.660 -0.2107 -0.0006  0.1510
 8622DDP     C251730  18.092  19.325   8.797  0.1209 -0.0355  0.2163
 8622DDP     C351731  18.719  20.191   9.564 -0.1884 -0.1458 -0.1179
 8622DDP     C451732  19.286  19.519   8.704  0.0548  0.0010 -0.3820
 8623DDP     C151733  14.155  15.503  14.586  0.1716 -0.0243  0.1898
 8623DDP     P151734  13.770  15.629  14.886  0.1093 -0.1411 -0.1000
 8623DDP     P251735  14.288  15.761  14.261 -0.2162 -0.0442  0.1712
 8623DDP     C251736  14.298  15.761  13.880  0.0367  0.0875 -0.1744
 8623DDP     C351737  13.290  15.609  14.876 -0.1152 -0.2353 -0.0482
 8623DDP     C451738  14.311  15.037  14.702 -0.0638  0.1192 -0.1009
 8624DDP     C151739  22.354  13.527   5.393 -0.1729  0.0179  0.0321
 8624DDP     P151740  22.258  13.842   5.657  0.4793  0.0466  0.1722
 8624DDP     P251741  22.633  13.765   5.084 -0.1184 -0.0594 -0.0245
 8624DDP     C251742  22.956  13.919   4.975 -0.4116 -0.4032 -0.0344
 8624DDP     C351743  22.028  14.242   5.507  0.1713 -0.0255  0.0064
 8624DDP     C451744  22.155  13.119   5.505  0.1509  0.0261 -0.2496
 8625DDP     C151745  14.248  25.620  27.931 -0.1722  0.0768 -0.0108
 8625DDP     P151746  13.970  25.393  27.760 -0.0323  0.2154  0.1063
 8625DDP     P251747  14.268  26.112  27.838 -0.2671 -0.2485 -0.0873
 8625DDP     C251748  14.348  26.516  27.697 -0.1411  0.0794 -0.0873
 8625DDP     C351749  13.599  25.340  27.860  0.1532 -0.2544 -0.3132
 8625DDP     C451750  14.669  25.502  28.190 -0.0682 -0.1980 -0.2790
 8626DDP     C151751   5.520   8.143   6.341  0.0524 -0.1184  0.2298
 8626DDP     P151752   5.488   8.352   6.721  0.0586 -0.0008 -0.3411
 8626DDP     P251753   5.313   8.394   5.981  0.0786  0.1532 -0.0520
 8626DDP     C251754   5.071   8.927   6.023 -0.2031  0.1955  0.0675
 8626DDP     C351755   5.302   8.798   6.962 -0.1975 -0.1909 -0.1254
 8626DDP     C451756   5.794   7.759   6.264  0.0682 -0.0317  0.2538
 8627DDP     C151757   8.087  23.357  24.241  0.0226  0.1408  0.0874
 8627DDP     P151758   7.945  23.154  24.687 -0.0972 -0.0579  0.3234
 8627DDP     P251759   8.128  23.811  24.194 -0.3440  0.1514 -0.3617
 8627DDP     C251760   8.217  24.108  23.941 -0.1223 -0.0630  0.3290
 8627DDP     C351761   8.090  22.961  25.033  0.2857 -0.1449  0.0161
 8627DDP     C451762   8.127  23.097  23.956  0.5200 -0.1943 -0.1193
 8628DDP     C151763   4.049  15.114   3.604 -0.0756  0.1026  0.0827
 8628DDP     P151764   4.037  14.655   3.490 -0.0225 -0.1487 -0.1009
 8628DDP     P251765   3.817  15.173   3.975 -0.1461 -0.0419 -0.1040
 8628DDP     C251766   3.791  15.059   4.417 -0.0239  0.0050  0.0549
 8628DDP     C351767   3.825  14.276   3.514  0.1388  0.2642  0.0293
 8628DDP     C451768   4.154  15.425   3.266 -0.0174  0.1781  0.2780
 8629DDP     C151769  21.065  15.465  26.382 -0.1464 -0.0239 -0.0991
 8629DDP     P151770  20.934  15.583  26.706 -0.1752 -0.3308 -0.3562
 8629DDP     P251771  21.190  15.039  26.357  0.1372 -0.2949  0.1703
 8629DDP     C251772  21.471  14.735  26.123 -0.1226  0.0967  0.4920
 8629DDP     C351773  20.664  15.532  27.096  0.2349 -0.0584  0.0677
 8629DDP     C451774  21.080  15.732  26.078  0.3299  0.1174  0.1499
 8630DDP     C151775   6.659  25.948  27.408  0.2888 -0.0544  0.2854
 8630DDP     P151776   6.727  25.890  26.982  0.3646 -0.0156  0.2170
 8630DDP     P251777   6.821  25.642  27.741  0.1167 -0.0195  0.1827
 8630DDP     C251778   6.663  25.478  28.200 -0.0761  0.0688 -0.0325
 8630DDP     C351779   6.624  26.092  26.580 -0.0091  0.0169 -0.1329
 8630DDP     C451780   6.329  26.125  27.614  0.2503 -0.3012 -0.1364
 8631DDP     C151781   3.733  10.657   9.821 -0.1530  0.2210  0.3428
 8631DDP     P151782   4.178  10.516   9.890 -0.0403 -0.0344  0.0771
 8631DDP     P251783   3.612  10.545   9.387  0.2270 -0.0600 -0.0742
 8631DDP     C251784   3.340  10.606   9.053  0.1500 -0.0074  0.0628
 8631DDP     C351785   4.559  10.320   9.730  0.2868  0.0535  0.0717
 8631DDP     C451786   3.610  10.867  10.178 -0.0756  0.1795  0.1396
 8632DDP     C151787   5.702  18.167  16.405 -0.3344 -0.2021  0.1599
 8632DDP     P151788   5.355  17.983  16.529  0.2375 -0.1352 -0.1454
 8632DDP     P251789   5.647  18.540  16.558  0.1547  0.2221  0.3365
 8632DDP     C251790   5.774  18.989  16.630 -0.0846 -0.0950  0.0225
 8632DDP     C351791   4.993  17.848  16.686  0.0051 -0.3876  0.1437
 8632DDP     C451792   6.048  18.074  16.324  0.1723  0.1260  0.0798
 8633DDP     C151793  19.436   6.307   3.871  0.1095 -0.1945  0.0774
 8633DDP     P151794  19.327   5.934   4.080 -0.0283 -0.0947 -0.1673
 8633DDP     P251795  19.582   6.709   3.938 -0.2438 -0.1268 -0.0897
 8633DDP     C251796  19.889   7.046   4.161 -0.2060 -0.2537  0.1236
 8633DDP     C351797  19.163   5.614   4.496  0.1797 -0.1390  0.1390
 8633DDP     C451798  19.264   6.386   3.525  0.0812 -0.0137 -0.2041
 8634DDP     C151799  21.408  27.809  27.423 -0.0802  0.0808  0.0295
 8634DDP     P151800  21.423  28.344  27.474 -0.1162 -0.0191 -0.0267
 8634DDP     P251801  21.045  27.688  27.463 -0.0589  0.1600 -0.0069
 8634DDP     C251802  20.751  27.596  27.212 -0.1588 -0.2586 -0.1673
 8634DDP     C351803  21.207  28.798  27.419  0.3305 -0.3699  0.1210
 8634DDP     C451804  21.550  27.549  27.087  0.1362  0.2791  0.0324
 8635DDP     C151805  26.235  14.379  28.218 -0.0840  0.2101  0.3124
 8635DDP     P151806  25.931  14.716  28.123 -0.1904 -0.1094 -0.0295
 8635DDP     P251807  26.097  13.968  28.083  0.1769  0.1781  0.1497
 8635DDP     C251808  25.879  13.567  27.865  0.0369 -0.0536 -0.0650
 8635DDP     C351809  25.520  14.742  28.004  0.0379  0.4160  0.1125
 8635DDP     C451810  26.634  14.481  28.435  0.1013  0.1975  0.0276
 8636DDP     C151811   6.515  22.576   4.824 -0.0064 -0.1902 -0.0351
 8636DDP     P151812   6.107  22.440   5.017  0.0965  0.0575  0.2680
 8636DDP     P251813   6.551  22.832   4.583 -0.0869 -0.0165 -0.1369
 8636DDP     C251814   6.210  23.126   4.396 -0.1861 -0.1702 -0.0304
 8636DDP     C351815   5.959  22.126   5.272  0.2698 -0.0793  0.3662
 8636DDP     C451816   6.806  22.255   4.877 -0.2391 -0.2853 -0.1158
 8637DDP     C151817  19.733   3.219   3.566 -0.1754 -0.2591 -0.1240
 8637DDP     P151818  19.842   2.987   3.840  0.3135 -0.0012  0.1693
 8637DDP     P251819  19.361   3.384   3.623 -0.2429 -0.2691 -0.2150
 8637DDP     C251820  19.055   3.660   3.675  0.0334  0.0973 -0.2016
 8637DDP     C351821  19.836   2.520   3.967  0.0511 -0.1584 -0.1000
 8637DDP     C451822  20.024   3.299   3.196  0.2389 -0.2772 -0.0288
 8638DDP     C151823  10.651   0.297   7.562 -0.3835  0.0368  0.0207
 8638DDP     P151824  10.254   0.595   7.297 -0.0223 -0.0182  0.0020
 8638DDP     P251825  11.054   0.036   7.448  0.0048  0.0657  0.1794
 8638DDP     C251826  11.297  30.064   7.133  0.0234 -0.2133 -0.1490
 8638DDP     C351827   9.861   0.988   7.364  0.0038 -0.0736 -0.1511
 8638DDP     C451828  10.625   0.236   8.032  0.3786 -0.0180  0.0459
 8639DDP     C151829  21.638  23.890   5.121  0.1166 -0.0136 -0.1215
 8639DDP     P151830  21.537  24.178   5.461 -0.0135  0.2113  0.2768
 8639DDP     P251831  21.774  23.388   5.242  0.1865 -0.2557 -0.2167
 8639DDP     C251832  22.131  23.279   5.117  0.1105  0.4256  0.0152
 8639DDP     C351833  21.799  24.172   5.758  0.0659 -0.3646  0.0661
 8639DDP     C451834  21.718  24.027   4.739  0.2612  0.0422 -0.1242
 8640DDP     C151835  20.918  15.934  18.914  0.1301  0.0137 -0.1876
 8640DDP     P151836  21.140  15.810  19.200  0.1612  0.0126 -0.1548
 8640DDP     P251837  20.560  15.902  18.645 -0.2194 -0.0077 -0.1840
 8640DDP     C251838  20.448  15.797  18.157 -0.0041 -0.0773  0.1470
 8640DDP     C351839  21.349  15.420  19.434  0.3155 -0.0799 -0.0071
 8640DDP     C451840  20.890  16.339  18.985  0.0443  0.0837  0.1577
 8641DDP     C151841  25.185   3.199   8.784 -0.1916 -0.0564  0.0873
 8641DDP     P151842  25.374   3.039   9.207  0.2478  0.0830 -0.2941
 8641DDP     P251843  24.782   2.978   8.607  0.0837 -0.1849 -0.1997
 8641DDP     C251844  24.362   2.858   8.827  0.4501  0.1279  0.1360
 8641DDP     C351845  25.601   3.219   9.560 -0.0817 -0.1924 -0.1974
 8641DDP     C451846  25.409   3.615   8.703 -0.3849  0.2216  0.0165
 8642DDP     C151847   5.024   0.864  25.390  0.1176 -0.3684 -0.0632
 8642DDP     P151848   5.338   1.226  25.210 -0.1029  0.1253 -0.0120
 8642DDP     P251849   5.039   0.886  25.829 -0.2505 -0.2023 -0.0413
 8642DDP     C251850   4.794   1.098  26.151  0.0484  0.1515 -0.0316
 8642DDP     C351851   5.728   1.310  25.056 -0.0345 -0.1645 -0.1545
 8642DDP     C451852   4.878   0.588  25.252 -0.3846 -0.1543 -0.4335
 8643DDP     C151853   9.499  13.827  26.988  0.0194  0.0832 -0.3616
 8643DDP     P151854   9.414  13.708  27.327  0.3540 -0.0416  0.1233
 8643DDP     P251855   9.185  13.777  26.573  0.0815 -0.2450  0.2761
 8643DDP     C251856   9.083  14.041  26.357 -0.0948 -0.1042  0.0123
 8643DDP     C351857   9.223  13.822  27.831 -0.0007  0.1949  0.1457
 8643DDP     C451858   9.707  14.195  27.074  0.0291 -0.0868  0.0329
 8644DDP     C151859  17.428   2.996  23.815 -0.0107  0.0103 -0.1548
 8644DDP     P151860  17.097   2.982  23.456  0.2755  0.3022  0.1696
 8644DDP     P251861  17.528   2.665  24.083 -0.2425 -0.1712 -0.0811
 8644DDP     C251862  17.668   2.477  24.278  0.2169 -0.0894 -0.2169
 8644DDP     C351863  16.719   3.156  23.260  0.0989  0.0395 -0.4182
 8644DDP     C451864  17.569   3.468  23.904  0.0037 -0.0968 -0.1168
 8645DDP     C151865   1.232  14.297  25.156 -0.0840  0.2943 -0.2085
 8645DDP     P151866   1.087  13.800  25.079 -0.0823 -0.0280 -0.0435
 8645DDP     P251867   1.678  14.440  25.110  0.0139  0.1393  0.3890
 8645DDP     C251868   2.158  14.479  24.957  0.0194 -0.1377  0.0285
 8645DDP     C351869   1.084  13.335  24.981 -0.0920 -0.4588  0.1075
 8645DDP     C451870   1.013  14.630  25.304 -0.1692  0.2324  0.4041
 8646DDP     C151871  27.218  14.118   9.524 -0.1210 -0.2451 -0.0137
 8646DDP     P151872  27.464  14.449   9.681  0.3693  0.0761  0.2685
 8646DDP     P251873  26.990  13.804   9.792 -0.1408 -0.0821  0.0347
 8646DDP     C251874  26.612  13.377   9.844 -0.1157  0.0234  0.1728
 8646DDP     C351875  27.369  14.948   9.614  0.0916 -0.0246 -0.2253
 8646DDP     C451876  27.261  13.945   9.165  0.0310  0.1112 -0.0658
 8647DDP     C151877   5.892   9.826  20.221  0.0315 -0.0662  0.0031
 8647DDP     P151878   6.110  10.119  20.323  0.3201 -0.2165  0.3766
 8647DDP     P251879   5.615   9.740  20.570 -0.0707  0.4515 -0.0036
 8647DDP     C251880   5.254   9.827  20.804  0.0410 -0.1725 -0.1671
 8647DDP     C351881   6.290  10.288  20.716  0.1633 -0.3769 -0.2192
 8647DDP     C451882   6.037   9.478  19.920 -0.4359  0.2278 -0.1549
 8648DDP     C151883  29.646   9.734  14.152 -0.0194 -0.0188 -0.1177
 8648DDP     P151884  29.913  10.011  14.494 -0.2446 -0.1104 -0.1275
 8648DDP     P251885  29.344   9.966  13.886 -0.0725 -0.2271  0.0705
 8648DDP     C251886  29.420  10.119  13.457 -0.0165  0.0373 -0.0260
 8648DDP     C351887  -0.018  10.301  14.468  0.0436 -0.3424  0.0303
 8648DDP     C451888  29.719   9.263  14.396 -0.0157  0.0358 -0.1162
 8649DDP     C151889  24.856  28.445  29.913 -0.4434 -0.0429 -0.0854
 8649DDP     P151890  24.557  28.353  29.659 -0.0714  0.1143 -0.2703
 8649DDP     P251891  24.628  28.628  30.079 -0.2196 -0.1351  0.0908
 8649DDP     C251892  24.743  28.698   0.111  0.0886 -0.2138  0.0201
 8649DDP     C351893  24.101  28.411  29.476 -0.0060 -0.1971  0.3622
 8649DDP     C451894  25.205  28.242  30.069 -0.0990  0.0029 -0.1362
 8650DDP     C151895  19.229  15.260   3.846  0.0993 -0.1244  0.0025
 8650DDP     P151896  18.952  14.863   3.915 -0.0352 -0.0330  0.1962
 8650DDP     P251897  19.682  15.261   3.844 -0.1435 -0.0217 -0.0073
 8650DDP     C251898  20.068  15.484   3.730 -0.0321  0.2144 -0.0314
 8650DDP     C351899  19.044  14.569   3.490 -0.1349 -0.1273 -0.1073
 8650DDP     C451900  18.893  15.639   3.884 -0.0769 -0.4228 -0.0029
 8651DDP     C151901  23.780  14.164  10.083 -0.0691  0.2839 -0.1508
 8651DDP     P151902  24.057  14.038   9.767  0.0857 -0.0372  0.0106
 8651DDP     P251903  23.468  13.967  10.373 -0.0897  0.0655  0.0705
 8651DDP     C251904  23.395  13.488  10.359 -0.0140  0.0618 -0.1363
 8651DDP     C351905  23.993  14.109   9.299  0.1347 -0.1686  0.1209
 8651DDP     C451906  23.704  14.554  10.263  0.1250 -0.0169 -0.2167
 8652DDP     C151907  17.173  18.296   0.400  0.2594 -0.0142  0.0693
 8652DDP     P151908  17.065  18.114   0.107 -0.1897  0.0833 -0.2447
 8652DDP     P251909  17.601  18.437   0.404 -0.0462  0.2274 -0.0454
 8652DDP     C251910  17.863  18.169   0.159  0.0721  0.0010  0.0509
 8652DDP     C351911  17.023  17.781  30.302 -0.0378 -0.0656 -0.1507
 8652DDP     C451912  16.686  18.405   0.509  0.2187  0.0709  0.0062
 8653DDP     C151913  21.234  16.173  18.093 -0.0305  0.0198 -0.0068
 8653DDP     P151914  21.349  16.661  18.342 -0.1072  0.1252 -0.4166
 8653DDP     P251915  20.791  16.158  18.257 -0.1330  0.2780  0.0937
 8653DDP     C251916  20.940  15.708  18.447 -0.1708 -0.4130 -0.2083
 8653DDP     C351917  21.242  16.757  18.842  0.1328  0.0947 -0.1264
 8653DDP     C451918  21.414  15.865  17.700 -0.1906 -0.0056  0.0757
 8654DDP     C151919   1.181  11.102  13.823  0.0623  0.0218  0.0766
 8654DDP     P151920   1.554  11.262  14.129 -0.3183  0.4389 -0.2212
 8654DDP     P251921   1.175  10.705  13.707  0.1261  0.1821  0.2333
 8654DDP     C251922   1.146  10.234  13.638  0.1803 -0.1462  0.2476
 8654DDP     C351923   1.929  11.275  14.340 -0.0990 -0.1811 -0.0411
 8654DDP     C451924   0.904  11.420  13.690  0.2088  0.3080  0.1542
 8655DDP     C151925  25.483  22.503   8.814  0.1927 -0.3636 -0.2142
 8655DDP     P151926  25.108  22.388   8.718 -0.0631  0.1171 -0.1512
 8655DDP     P251927  25.801  22.096   8.798  0.2027  0.0271  0.2805
 8655DDP     C251928  25.793  21.632   8.604 -0.1245  0.0103 -0.0774
 8655DDP     C351929  24.790  22.708   8.542 -0.0859 -0.0739 -0.1652
 8655DDP     C451930  25.649  22.833   9.077  0.0382 -0.2798  0.0142
 8656DDP     C151931   0.037   7.754   8.878  0.0281  0.1495  0.1676
 8656DDP     P151932  30.227   7.833   9.246  0.4431 -0.0289 -0.4702
 8656DDP     P251933  30.093   7.915   8.590 -0.0840  0.3618 -0.1207
 8656DDP     C251934  29.788   8.089   8.440  0.0459 -0.0706 -0.0807
 8656DDP     C351935  30.171   8.132   9.602  0.1086  0.2171 -0.1667
 8656DDP     C451936   0.300   7.438   8.966  0.1504  0.0157  0.1447
 8657DDP     C151937   9.296   8.183  29.280  0.0705  0.1510  0.0473
 8657DDP     P151938   9.004   8.358  29.557  0.0589 -0.1094 -0.2053
 8657DDP     P251939   9.176   7.895  29.114 -0.0294  0.1458  0.1567
 8657DDP     C251940   8.870   7.805  28.994  0.2280 -0.1643 -0.0104
 8657DDP     C351941   8.566   8.576  29.449 -0.2153  0.0770  0.0859
 8657DDP     C451942   9.713   8.353  29.171  0.1446  0.0134  0.0224
 8658DDP     C151943  28.557  21.974  25.239  0.1863 -0.1471  0.1497
 8658DDP     P151944  28.531  22.095  25.764 -0.0553 -0.0654  0.1189
 8658DDP     P251945  28.184  22.088  25.010  0.1956  0.0064 -0.0653
 8658DDP     C251946  27.859  22.172  24.791  0.1074  0.1215 -0.0506
 8658DDP     C351947  28.596  22.388  26.097 -0.1173  0.2507 -0.1431
 8658DDP     C451948  28.751  21.649  25.067 -0.2790  0.0590 -0.0639
 8659DDP     C151949  22.121  18.101  27.257  0.2076  0.3353 -0.0610
 8659DDP     P151950  22.240  18.244  26.844  0.1095 -0.0011  0.2344
 8659DDP     P251951  21.959  17.740  27.210 -0.1366  0.0467 -0.1395
 8659DDP     C251952  21.779  17.281  27.244  0.3738 -0.1174  0.2047
 8659DDP     C351953  22.160  18.362  26.390 -0.0593 -0.3209  0.2030
 8659DDP     C451954  22.244  18.418  27.582 -0.1113 -0.1173  0.4406
 8660DDP     C151955   5.011   1.936  22.524 -0.0830  0.4169 -0.0377
 8660DDP     P151956   4.634   1.820  22.436 -0.1581 -0.2378 -0.1536
 8660DDP     P251957   5.217   2.334  22.528  0.1944 -0.1416  0.3219
 8660DDP     C251958   5.066   2.725  22.252 -0.0911  0.0582  0.3203
 8660DDP     C351959   4.259   1.680  22.638 -0.1752  0.1899 -0.2265
 8660DDP     C451960   5.118   1.488  22.559 -0.0315  0.0845  0.1035
 8661DDP     C151961   3.120   0.165  18.908  0.3680  0.2328  0.0457
 8661DDP     P151962   3.132  30.027  19.009  0.1745 -0.2285 -0.1353
 8661DDP     P251963   2.915   0.043  18.533 -0.0490 -0.0402 -0.0678
 8661DDP     C251964   2.587   0.289  18.330 -0.2083 -0.0741  0.1976
 8661DDP     C351965   3.413  29.603  19.105 -0.2674 -0.6022  0.0464
 8661DDP     C451966   2.987   0.460  19.105 -0.1934 -0.0336 -0.1804
 8662DDP     C151967  24.390  24.420  16.293 -0.0128  0.1327 -0.0854
 8662DDP     P151968  24.722  24.443  16.503  0.0466 -0.2085 -0.0270
 8662DDP     P251969  24.462  24.850  16.038  0.3153  0.3545 -0.2317
 8662DDP     C251970  24.466  25.173  15.757 -0.0044  0.0257 -0.0019
 8662DDP     C351971  24.948  24.617  16.832  0.0537  0.2520  0.1419
 8662DDP     C451972  24.010  24.202  16.303  0.5307 -0.0878  0.2381
 8663DDP     C151973  14.158  24.512   1.834  0.3406 -0.0215 -0.0622
 8663DDP     P151974  14.280  24.373   1.412 -0.0439 -0.2859 -0.1744
 8663DDP     P251975  14.058  24.891   1.945 -0.1554 -0.2360  0.2830
 8663DDP     C251976  13.742  25.067   2.282 -0.0839  0.0202 -0.1089
 8663DDP     C351977  14.469  24.128   1.020 -0.1166 -0.2246 -0.0481
 8663DDP     C451978  14.410  24.381   2.208 -0.3659  0.2631  0.4123
 8664DDP     C151979  25.684  10.967  13.421  0.1439 -0.0827 -0.1924
 8664DDP     P151980  25.878  10.500  13.317 -0.0626 -0.1290 -0.3280
 8664DDP     P251981  25.344  10.895  13.226  0.1845  0.2218  0.1115
 8664DDP     C251982  24.902  10.883  12.960  0.1563 -0.1403 -0.1870
 8664DDP     C351983  26.118  10.094  13.463  0.0809 -0.1344  0.1560
 8664DDP     C451984  25.923  11.307  13.534  0.1698  0.0891  0.0567
 8665DDP     C151985  23.520  21.292  30.206  0.2587  0.0622 -0.0731
 8665DDP     P151986  23.752  21.576  29.970 -0.2432  0.2793 -0.0257
 8665DDP     P251987  23.069  21.152  30.250 -0.0537 -0.2498  0.1093
 8665DDP     C251988  22.815  21.533  30.311 -0.0624  0.0938 -0.0101
 8665DDP     C351989  23.904  21.815  29.597  0.3149  0.2158 -0.2227
 8665DDP     C451990  23.666  20.858  30.202  0.0376 -0.0196  0.0617
 8666DDP     C151991  11.602   6.903  10.690  0.0907 -0.0545  0.0117
 8666DDP     P151992  11.779   7.147  10.995  0.0458  0.0173  0.1848
 8666DDP     P251993  11.204   6.873  10.648  0.2124 -0.0272  0.0618
 8666DDP     C251994  10.872   7.147  10.386  0.1839  0.1751  0.0840
 8666DDP     C351995  12.012   7.311  11.258  0.1963 -0.2107 -0.0440
 8666DDP     C451996  12.056   6.791  10.514 -0.1210  0.2797  0.2760
 8667DDP     C151997  27.011  19.166   4.671 -0.0026 -0.0203 -0.0707
 8667DDP     P151998  27.358  19.390   4.650 -0.1022  0.1141 -0.2452
 8667DDP     P251999  26.779  19.181   4.302  0.0070  0.1594 -0.2486
 8667DDP     C252000  26.491  19.126   3.976  0.4036  0.2262 -0.0709
 8667DDP     C352001  27.833  19.477   4.671  0.2370  0.1567 -0.2066
 8667DDP     C452002  26.905  18.959   4.936  0.0117 -0.2212  0.1973
 8668DDP     C152003  19.833   8.416   9.529 -0.0002  0.2776  0.3071
 8668DDP     P152004  20.163   8.364   9.129  0.0145  0.1249 -0.2816
 8668DDP     P252005  19.517   8.200   9.603  0.2386  0.0349 -0.4715
 8668DDP     C252006  19.192   7.893   9.318  0.2016  0.0700 -0.2496
 8668DDP     C352007  20.283   8.546   8.744 -0.2243  0.2469 -0.1964
 8668DDP     C452008  20.042   8.576   9.956 -0.0388 -0.0065 -0.1436
 8669DDP     C152009   7.107  29.070   7.684 -0.0612 -0.3167 -0.0367
 8669DDP     P152010   7.480  29.047   7.391  0.1143  0.1827 -0.0570
 8669DDP     P252011   6.967  28.741   7.989 -0.1297 -0.0378 -0.2381
 8669DDP     C252012   6.864  28.443   8.165  0.0574  0.3389 -0.1450
 8669DDP     C352013   7.793  28.901   7.082 -0.4019  0.1683 -0.0287
 8669DDP     C452014   6.797  29.381   7.741 -0.1097 -0.0564  0.0047
 8670DDP     C152015  23.656   7.998   0.469 -0.2628 -0.1102  0.0121
 8670DDP     P152016  23.680   8.429   0.602  0.0314 -0.0450  0.0229
 8670DDP     P252017  23.469   7.841   0.820 -0.1250  0.1017 -0.3207
 8670DDP     C252018  23.271   7.648   1.220 -0.2579 -0.0545 -0.3650
 8670DDP     C352019  23.639   8.647   1.012  0.0117  0.1208  0.0987
 8670DDP     C452020  23.825   7.717   0.174 -0.2720 -0.2214 -0.1629
 8671DDP     C152021  26.726  29.751  22.791  0.1552 -0.3026 -0.1283
 8671DDP     P152022  26.514  30.148  22.610 -0.1405  0.2437  0.1663
 8671DDP     P252023  27.065  29.627  22.948  0.0974 -0.0949  0.4014
 8671DDP     C252024  27.467  29.562  23.115 -0.0966 -0.0983 -0.0132
 8671DDP     C352025  26.181   0.083  22.423 -0.2660  0.0755 -0.4417
 8671DDP     C452026  26.557  29.449  22.852 -0.1637 -0.0330  0.2862
 8672DDP     C152027  11.575  16.572  13.455  0.1338  0.0448 -0.0498
 8672DDP     P152028  11.597  16.847  13.790  0.0325  0.2317 -0.3417
 8672DDP     P252029  11.109  16.338  13.423 -0.0630  0.0052  0.0396
 8672DDP     C252030  10.711  16.122  13.458  0.0485 -0.1034 -0.0304
 8672DDP     C352031  11.609  17.247  13.907 -0.2653  0.1189 -0.0267
 8672DDP     C452032  11.860  16.530  13.190 -0.1445 -0.2575 -0.3535
 8673DDP     C152033  26.084  26.485  14.983  0.1205 -0.0071  0.1915
 8673DDP     P152034  26.007  26.224  14.688  0.1463 -0.0454 -0.0506
 8673DDP     P252035  25.742  26.706  15.169 -0.2032  0.2400 -0.1888
 8673DDP     C252036  25.265  26.913  15.213  0.1276 -0.0873 -0.0076
 8673DDP     C352037  25.942  25.911  14.392  0.0699 -0.0170  0.0584
 8673DDP     C452038  26.486  26.586  15.059  0.0185 -0.1544 -0.1398
 8674DDP     C152039  22.993  18.251  27.770 -0.0253 -0.0712  0.1375
 8674DDP     P152040  23.013  17.932  27.530 -0.4986 -0.1185 -0.0117
 8674DDP     P252041  23.283  18.254  28.161  0.0813 -0.3008  0.2641
 8674DDP     C252042  23.761  18.222  28.327 -0.2527 -0.3534 -0.0042
 8674DDP     C352043  22.800  17.602  27.314 -0.1338  0.2305 -0.1760
 8674DDP     C452044  22.719  18.509  27.727  0.1030  0.0766  0.1626
 8675DDP     C152045   3.021  16.678   1.368  0.0582 -0.1573  0.1295
 8675DDP     P152046   3.297  16.333   1.602 -0.0236  0.3597  0.1439
 8675DDP     P252047   3.199  16.834   0.880 -0.0004  0.0247 -0.0949
 8675DDP     C252048   3.469  16.488   0.606 -0.1227  0.0874  0.2278
 8675DDP     C352049   3.709  16.041   1.533  0.2135  0.1074 -0.1649
 8675DDP     C452050   2.582  16.798   1.370  0.0628  0.3975 -0.1206
 8676DDP     C152051   8.599  22.290  16.500  0.1198 -0.0626  0.1143
 8676DDP     P152052   8.350  22.585  16.677  0.2047  0.1503 -0.2765
 8676DDP     P252053   8.615  22.522  16.137  0.0021 -0.0882 -0.0149
 8676DDP     C252054   8.727  22.601  15.681  0.2256 -0.1094  0.0875
 8676DDP     C352055   8.363  22.700  17.120  0.0564  0.1806 -0.2145
 8676DDP     C452056   8.710  21.851  16.657 -0.4142 -0.0345 -0.0611
 8677DDP     C152057  13.180  26.882   8.172  0.0501 -0.0184 -0.1282
 8677DDP     P152058  13.298  27.332   8.297  0.1627  0.0618  0.0583
 8677DDP     P252059  12.767  26.667   8.005 -0.2101 -0.0044 -0.3027
 8677DDP     C252060  12.374  26.973   8.001 -0.0132  0.0829 -0.3357
 8677DDP     C352061  13.497  27.699   8.432 -0.2838 -0.0027  0.2113
 8677DDP     C452062  13.565  26.533   8.122 -0.0253 -0.2524  0.2516
 8678DDP     C152063  15.585   7.920   7.529 -0.0551 -0.1587  0.1689
 8678DDP     P152064  15.986   8.019   7.301  0.1249  0.1373 -0.0240
 8678DDP     P252065  15.330   8.121   7.699  0.0369 -0.0528 -0.0858
 8678DDP     C252066  14.924   8.249   7.770  0.1998  0.0435 -0.1958
 8678DDP     C352067  16.263   8.169   7.098 -0.1086 -0.1689  0.0334
 8678DDP     C452068  15.439   7.398   7.641 -0.1118  0.0426 -0.0657
 8679DDP     C152069  28.819  25.503   4.848  0.0487  0.0973 -0.1761
 8679DDP     P152070  29.236  25.654   5.077 -0.0920 -0.2928 -0.1109
 8679DDP     P252071  28.841  25.528   4.395  0.1607 -0.1609  0.0068
 8679DDP     C252072  28.941  25.169   4.087  0.1514 -0.0299  0.0182
 8679DDP     C352073  29.644  25.481   5.304 -0.2294 -0.2031 -0.0046
 8679DDP     C452074  28.347  25.496   4.988 -0.0042 -0.2186 -0.0094
 8680DDP     C152075  29.154   2.950  23.369 -0.0019  0.0396 -0.2032
 8680DDP     P152076  28.819   2.744  23.192 -0.0232  0.1117 -0.4771
 8680DDP     P252077  29.571   3.075  23.286  0.0320 -0.1737 -0.0333
 8680DDP     C252078  29.941   3.141  23.036 -0.0618 -0.3551 -0.3079
 8680DDP     C352079  28.379   2.507  23.109 -0.4136  0.1067  0.0388
 8680DDP     C452080  28.866   3.292  23.538  0.0573 -0.2309  0.0152
 8681DDP     C152081  25.575  14.115  19.274 -0.1855 -0.0242  0.2791
 8681DDP     P152082  25.419  13.699  19.047 -0.1347 -0.0839  0.0843
 8681DDP     P252083  25.349  14.541  19.291  0.1728 -0.1439  0.1301
 8681DDP     C252084  25.137  14.744  18.960  0.2877  0.0048  0.0956
 8681DDP     C352085  25.325  13.562  18.606  0.2460  0.0835 -0.3227
 8681DDP     C452086  26.044  14.267  19.150  0.0508 -0.0963 -0.3253
 8682DDP     C152087  15.535   2.283  14.250 -0.1244  0.2804  0.0709
 8682DDP     P152088  15.958   2.043  14.367  0.4258 -0.2885  0.3548
 8682DDP     P252089  15.597   2.787  13.976  0.1812 -0.0498  0.0046
 8682DDP     C252090  15.836   3.156  13.994 -0.0027  0.2165  0.1541
 8682DDP     C352091  16.071   1.574  14.411  0.0053 -0.1202  0.1803
 8682DDP     C452092  15.147   2.214  14.456 -0.1612  0.0516  0.0758
 8683DDP     C152093   0.598   0.814   9.153  0.1320 -0.0939  0.1518
 8683DDP     P152094   0.727   0.605   8.753  0.1337 -0.1482  0.1534
 8683DDP     P252095   0.328   1.079   8.982  0.1976  0.0465  0.0733
 8683DDP     C252096   0.142   1.498   8.896  0.0532 -0.3135  0.2059
 8683DDP     C352097   0.917   0.429   8.345  0.2101  0.0589 -0.0946
 8683DDP     C452098   0.658   0.629   9.546  0.0539 -0.1167 -0.1113
 8684DDP     C152099  29.166   8.785   3.919 -0.1950  0.0036  0.2243
 8684DDP     P152100  28.965   8.460   4.093  0.1472 -0.3187  0.2961
 8684DDP     P252101  29.445   8.639   3.647 -0.1497 -0.1081  0.0125
 8684DDP     C252102  29.720   8.244   3.706  0.1070 -0.1718  0.1242
 8684DDP     C352103  29.054   8.099   4.190  0.2500 -0.0621  0.1446
 8684DDP     C452104  29.280   9.156   4.279  0.0861  0.2964  0.0037
 8685DDP     C152105  27.173  17.468  28.523  0.2547  0.2031 -0.1246
 8685DDP     P152106  27.477  17.502  28.230  0.2396  0.0975  0.1586
 8685DDP     P252107  27.054  17.731  28.790 -0.0755  0.2246 -0.1269
 8685DDP     C252108  26.917  17.868  29.162 -0.0252 -0.1961  0.0434
 8685DDP     C352109  27.831  17.639  28.307  0.2432  0.1847  0.3043
 8685DDP     C452110  26.888  17.200  28.502 -0.3296  0.1449  0.3261
 8686DDP     C152111  21.895  29.823  10.894  0.0936  0.0467  0.1518
 8686DDP     P152112  21.908  30.043  11.275  0.1890  0.3094 -0.0287
 8686DDP     P252113  21.572  29.450  10.779  0.0335 -0.0504  0.0459
 8686DDP     C252114  21.192  29.393  10.663 -0.1148  0.2151  0.4347
 8686DDP     C352115  22.234  29.959  11.699 -0.0857 -0.1956  0.0333
 8686DDP     C452116  22.357  29.864  10.744  0.0083  0.2174 -0.0188
 8687DDP     C152117  26.129   0.609  13.576  0.1948  0.1163  0.2099
 8687DDP     P152118  26.302   0.822  13.962 -0.2245 -0.1712 -0.0926
 8687DDP     P252119  25.645   0.533  13.622  0.0912 -0.0496 -0.0910
 8687DDP     C252120  25.184   0.570  13.446 -0.1274 -0.1531 -0.1373
 8687DDP     C352121  26.363   0.682  14.383 -0.0968  0.1658 -0.2397
 8687DDP     C452122  26.304   0.445  13.232  0.2962 -0.0171  0.0300
 8688DDP     C152123  30.169   7.321  23.943  0.1489  0.2668 -0.1542
 8688DDP     P152124  30.045   7.478  24.268  0.1068  0.0488  0.3035
 8688DDP     P252125  30.157   6.890  23.705 -0.1205  0.4401 -0.2050
 8688DDP     C252126  29.890   6.716  23.286  0.2691  0.1771  0.0959
 8688DDP     C352127  29.986   7.395  24.619 -0.2528 -0.3051  0.1840
 8688DDP     C452128   0.219   7.518  23.796 -0.0618  0.0569  0.2220
 8689DDP     C152129  14.801  24.780  15.020  0.0270 -0.3230  0.0361
 8689DDP     P152130  14.955  24.852  15.372 -0.1034 -0.0282 -0.0320
 8689DDP     P252131  14.988  24.916  14.696  0.2565 -0.1298  0.0284
 8689DDP     C252132  14.880  24.939  14.311 -0.0027  0.1399 -0.0737
 8689DDP     C352133  15.210  24.795  15.793  0.0557 -0.2816 -0.0922
 8689DDP     C452134  14.366  24.992  15.169  0.2242  0.2671  0.1058
 8690DDP     C152135  14.850  14.499  19.356  0.2003  0.4979  0.2092
 8690DDP     P152136  14.409  14.498  19.534 -0.4743 -0.0165 -0.1138
 8690DDP     P252137  15.013  14.102  19.270  0.1062 -0.2610 -0.2970
 8690DDP     C252138  14.925  13.608  19.478 -0.0424  0.0828  0.0351
 8690DDP     C352139  14.114  14.883  19.604  0.4272  0.3696 -0.3298
 8690DDP     C452140  15.064  14.813  19.309 -0.0479 -0.2022 -0.2116
 8691DDP     C152141  24.929   2.307  28.357 -0.3407  0.0717  0.1677
 8691DDP     P152142  24.860   2.641  28.054  0.0922 -0.0136  0.2490
 8691DDP     P252143  25.343   2.246  28.345  0.1737 -0.0155 -0.1816
 8691DDP     C252144  25.698   2.401  28.306  0.3762 -0.1706 -0.0481
 8691DDP     C352145  24.883   3.171  27.985  0.2500 -0.0870  0.0422
 8691DDP     C452146  24.602   2.332  28.637 -0.1623 -0.1692  0.1560
 8692DDP     C152147  20.282  10.153  20.569 -0.1015 -0.1105 -0.1765
 8692DDP     P152148  20.713  10.150  20.628  0.0318  0.0852  0.0787
 8692DDP     P252149  20.243   9.899  20.928  0.2032 -0.0429 -0.0119
 8692DDP     C252150  20.384   9.754  21.278 -0.0594  0.1568  0.1025
 8692DDP     C352151  21.116   9.928  20.678  0.0883  0.1737  0.0638
 8692DDP     C452152  19.970  10.462  20.438 -0.0473  0.0198 -0.0770
 8693DDP     C152153  29.042  23.779   0.957 -0.0669  0.0790  0.2564
 8693DDP     P152154  29.398  24.012   1.000  0.1043  0.1289  0.2091
 8693DDP     P252155  28.672  23.936   0.649 -0.2601  0.3483 -0.1315
 8693DDP     C252156  28.351  24.224   0.278  0.0764  0.3121 -0.1667
 8693DDP     C352157  29.617  24.199   1.413 -0.3592  0.0262 -0.1656
 8693DDP     C452158  29.041  23.327   1.161  0.2145  0.3777 -0.0991
 8694DDP     C152159  15.794   7.631  30.245  0.0742 -0.1592  0.2714
 8694DDP     P152160  15.646   7.182   0.163 -0.0284 -0.1495 -0.0715
 8694DDP     P252161  16.098   7.610  29.975 -0.1562  0.2183 -0.1647
 8694DDP     C252162  16.374   7.650  29.681  0.0598 -0.1664  0.1456
 8694DDP     C352163  15.499   6.826   0.172 -0.2999  0.0761 -0.0066
 8694DDP     C452164  15.607   8.033  30.331 -0.0016  0.0753  0.0841
 8695DDP     C152165  11.290  28.306   4.134 -0.0005 -0.2016 -0.0245
 8695DDP     P152166  11.315  27.918   3.895 -0.3238  0.3266 -0.0144
 8695DDP     P252167  11.020  28.315   4.457 -0.0741 -0.1268 -0.0144
 8695DDP     C252168  10.508  28.225   4.521  0.5781  0.0831 -0.3209
 8695DDP     C352169  11.351  27.513   3.720  0.1126  0.2594  0.1295
 8695DDP     C452170  11.563  28.616   3.962 -0.1962 -0.0393  0.1321
 8696DDP     C152171   9.986  25.774   1.034  0.0686  0.1937 -0.2071
 8696DDP     P152172  10.263  25.837   1.342  0.0345  0.0270 -0.0123
 8696DDP     P252173   9.689  26.148   0.952  0.0757  0.2780 -0.2609
 8696DDP     C252174   9.483  26.518   0.874 -0.3769  0.0064 -0.0445
 8696DDP     C352175  10.363  25.926   1.641  0.1298 -0.0630  0.2002
 8696DDP     C452176  10.177  25.541   0.686  0.0912 -0.3086  0.1799
 8697DDP     C152177  26.677  17.955  18.181  0.3036  0.1535  0.2677
 8697DDP     P152178  27.126  17.978  18.188 -0.2796  0.3812 -0.0666
 8697DDP     P252179  26.375  17.499  18.225 -0.1489 -0.1276  0.0091
 8697DDP     C252180  26.071  17.256  18.489 -0.1229  0.1234 -0.2488
 8697DDP     C352181  27.401  18.082  18.431 -0.0719  0.0098 -0.2363
 8697DDP     C452182  26.431  18.303  18.155 -0.0362  0.0941 -0.1360
 8698DDP     C152183  12.409  27.520  28.482 -0.4887  0.0536  0.0978
 8698DDP     P152184  12.384  27.075  28.420 -0.1800  0.2252  0.1609
 8698DDP     P252185  12.340  27.767  28.071  0.1158  0.0067 -0.0755
 8698DDP     C252186  12.191  28.068  27.635 -0.1695 -0.1487 -0.1563
 8698DDP     C352187  12.350  26.561  28.243 -0.0516 -0.0930 -0.0522
 8698DDP     C452188  12.458  27.668  28.938 -0.1927 -0.3912  0.1056
 8699DDP     C152189   6.851  25.093  26.268  0.1540 -0.2874 -0.1515
 8699DDP     P152190   6.589  25.104  26.692 -0.1328  0.2346  0.4069
 8699DDP     P252191   6.429  25.137  26.070 -0.0725 -0.0552  0.0238
 8699DDP     C252192   6.263  24.791  25.928  0.1151 -0.0008  0.2788
 8699DDP     C352193   6.457  25.450  27.049  0.0029 -0.2180  0.0013
 8699DDP     C452194   7.338  25.142  26.090 -0.2371  0.1241  0.1263
 8700DDP     C152195   3.287  29.074   1.691  0.2466  0.2902  0.0117
 8700DDP     P152196   3.287  29.488   1.764  0.2541 -0.1927 -0.0719
 8700DDP     P252197   3.577  28.776   2.019 -0.1151 -0.0808 -0.0283
 8700DDP     C252198   3.865  28.467   2.079 -0.0289 -0.1843 -0.1663
 8700DDP     C352199   2.880  29.686   1.982  0.1579  0.2592  0.4069
 8700DDP     C452200   2.914  28.973   1.449 -0.1732  0.2303  0.0416
 8701DDP     C152201   2.174  28.758   4.208 -0.0523  0.2245  0.0222
 8701DDP     P152202   1.865  29.065   4.456 -0.0733 -0.0934 -0.0384
 8701DDP     P252203   2.632  28.833   4.038 -0.2658 -0.1443  0.1419
 8701DDP     C252204   3.001  28.628   3.783  0.1328  0.1298 -0.0708
 8701DDP     C352205   1.936  29.515   4.597  0.4586 -0.1333  0.2023
 8701DDP     C452206   2.113  28.249   4.080  0.0203 -0.3091 -0.2072
 8702DDP     C152207  28.630   8.894  17.203 -0.1172  0.1094 -0.6879
 8702DDP     P152208  28.528   8.517  16.959 -0.0745 -0.0203 -0.2720
 8702DDP     P252209  28.256   9.154  17.094  0.1034  0.1452  0.0564
 8702DDP     C252210  27.861   9.397  17.162 -0.0039 -0.0123 -0.0018
 8702DDP     C352211  28.814   8.075  16.984  0.1026  0.0967 -0.1450
 8702DDP     C452212  28.932   8.999  17.384 -0.1735  0.3897  0.0562
 8703DDP     C152213   4.352   6.043  20.232 -0.0782  0.2451 -0.1751
 8703DDP     P152214   4.555   5.679  20.449  0.0952 -0.0659  0.1214
 8703DDP     P252215   4.356   6.167  19.812 -0.5998  0.1799 -0.0854
 8703DDP     C252216   4.719   6.434  19.595 -0.0166  0.3154  0.2505
 8703DDP     C352217   4.443   5.496  20.809  0.1130 -0.1595  0.0145
 8703DDP     C452218   4.205   6.302  20.498 -0.0706 -0.1793  0.1787
 8704DDP     C152219   1.532  20.115  28.217  0.2160 -0.2396 -0.2458
 8704DDP     P152220   1.161  19.886  28.175  0.3174 -0.0510 -0.0715
 8704DDP     P252221   1.633  20.491  27.990 -0.1056 -0.1044  0.2252
 8704DDP     C252222   1.763  20.936  28.175  0.0985 -0.1167 -0.2025
 8704DDP     C352223   0.928  19.499  28.157 -0.1558  0.2332  0.0842
 8704DDP     C452224   1.822  19.823  28.368  0.0867 -0.1454 -0.1543
 8705DDP     C152225   1.399   0.969  26.814  0.3489 -0.0348  0.0330
 8705DDP     P152226   1.652   1.345  26.717 -0.0593  0.0611 -0.1507
 8705DDP     P252227   1.087   1.099  27.192  0.2677  0.0930 -0.0829
 8705DDP     C252228   0.664   0.900  27.188 -0.0210  0.3237 -0.1549
 8705DDP     C352229   1.730   1.626  26.354  0.1333  0.2466  0.1467
 8705DDP     C452230   1.329   0.533  26.673  0.1419 -0.1184 -0.1536
 8706DDP     C152231  29.871   8.862  20.271 -0.4453  0.1579  0.0493
 8706DDP     P152232  29.538   9.223  20.154  0.0450 -0.2610  0.0939
 8706DDP     P252233  30.189   8.785  19.928 -0.0267  0.0502 -0.0286
 8706DDP     C252234   0.096   8.937  19.536  0.0680 -0.2513  0.0832
 8706DDP     C352235  29.141   9.362  20.156  0.0035 -0.0602 -0.3494
 8706DDP     C452236  29.889   8.600  20.574  0.0608  0.1959  0.0164
 8707DDP     C152237  25.944  16.661  27.091 -0.1366  0.0176  0.2763
 8707DDP     P152238  25.649  16.972  26.975  0.2793 -0.0766 -0.0552
 8707DDP     P252239  26.073  16.464  26.610  0.0157 -0.0276 -0.0693
 8707DDP     C252240  26.551  16.455  26.448 -0.2024 -0.0074 -0.1740
 8707DDP     C352241  25.727  17.425  27.015  0.0577 -0.0518 -0.0018
 8707DDP     C452242  26.209  16.659  27.494 -0.0644 -0.1191  0.1227
 8708DDP     C152243  27.411  26.565  27.794 -0.0021 -0.0180  0.4289
 8708DDP     P152244  27.056  26.778  27.693 -0.1439 -0.0171  0.2305
 8708DDP     P252245  27.432  26.135  27.958 -0.3248 -0.1718 -0.0469
 8708DDP     C252246  27.549  25.797  27.799  0.1552 -0.2064  0.1794
 8708DDP     C352247  26.855  27.113  27.751  0.0554 -0.1631  0.1469
 8708DDP     C452248  27.590  26.737  27.313  0.0639 -0.0981  0.1280
 8709DDP     C152249   9.459  29.007  15.976 -0.2084  0.2899  0.0014
 8709DDP     P152250   9.097  28.953  15.675  0.0260 -0.0632  0.1347
 8709DDP     P252251   9.777  28.697  15.939 -0.1452 -0.2427  0.2217
 8709DDP     C252252  10.137  28.549  15.748  0.1746  0.4077  0.0674
 8709DDP     C352253   9.059  28.567  15.427 -0.0103 -0.2142  0.0186
 8709DDP     C452254   9.529  29.229  16.343 -0.0949  0.1412 -0.2086
 8710DDP     C152255  21.140  26.787  22.338 -0.1000 -0.0034  0.1462
 8710DDP     P152256  21.143  26.786  21.856 -0.0550  0.1797  0.1643
 8710DDP     P252257  21.455  26.718  22.703  0.0575 -0.3012  0.0767
 8710DDP     C252258  21.619  26.723  23.115 -0.0378  0.0261  0.0334
 8710DDP     C352259  21.328  26.960  21.516 -0.0164  0.1317 -0.2793
 8710DDP     C452260  20.641  26.839  22.467 -0.0455 -0.1857  0.0648
 8711DDP     C152261   3.962  15.377  18.793  0.1031  0.3240 -0.1044
 8711DDP     P152262   3.443  15.346  18.664 -0.0406 -0.1422 -0.1778
 8711DDP     P252263   4.208  15.020  18.774  0.0692  0.0721 -0.2216
 8711DDP     C252264   4.353  15.144  18.375  0.2695  0.5036  0.1416
 8711DDP     C352265   3.038  15.436  18.505  0.1551 -0.1699  0.5895
 8711DDP     C452266   4.205  15.669  18.995  0.0128 -0.1125 -0.0369
 8712DDP     C152267   0.004   2.105  11.562 -0.4257  0.1800 -0.1526
 8712DDP     P152268  30.151   1.716  11.361 -0.0189  0.1923 -0.3278
 8712DDP     P252269   0.090   1.906  11.885 -0.0868 -0.0687  0.0614
 8712DDP     C252270   0.107   1.487  12.127 -0.1382 -0.3349 -0.0951
 8712DDP     C352271  29.677   1.458  11.391 -0.3650  0.1885  0.2487
 8712DDP     C452272  30.115   2.415  11.652 -0.1157 -0.4322 -0.1408
 8713DDP     C152273   9.584   8.290  15.773 -0.1860  0.0496 -0.2246
 8713DDP     P152274  10.006   8.349  15.859 -0.2673 -0.0971 -0.4992
 8713DDP     P252275   9.310   8.658  15.621 -0.0753  0.0204 -0.2221
 8713DDP     C252276   9.079   9.019  15.783  0.1380 -0.0911  0.1180
 8713DDP     C352277  10.422   8.286  15.781  0.3974  0.3881 -0.2164
 8713DDP     C452278   9.419   7.806  15.702  0.0184 -0.1736 -0.0919
 8714DDP     C152279  11.392  29.319  17.461 -0.1243 -0.1598 -0.1271
 8714DDP     P152280  11.260  29.393  17.721  0.0267  0.1192  0.1314
 8714DDP     P252281  11.546  28.930  17.304 -0.1502 -0.0525 -0.1003
 8714DDP     C252282  11.666  28.499  17.256 -0.1436 -0.3321 -0.0046
 8714DDP     C352283  11.219  29.569  18.167  0.1362 -0.1285  0.0245
 8714DDP     C452284  11.459  29.603  17.155  0.0241 -0.2253 -0.1744
 8715DDP     C152285  28.474   5.344   4.592  0.1547 -0.2211 -0.0172
 8715DDP     P152286  28.672   5.790   4.465 -0.0296  0.1063  0.0965
 8715DDP     P252287  28.816   5.025   4.464  0.3774 -0.2297  0.3104
 8715DDP     C252288  29.117   4.713   4.254  0.1540  0.2830 -0.1006
 8715DDP     C352289  28.487   6.106   4.311  0.2550  0.0201 -0.0912
 8715DDP     C452290  28.139   5.324   4.860  0.0660  0.2310  0.0806
 8716DDP     C152291  20.817  19.692  17.290  0.2985 -0.2938  0.1742
 8716DDP     P152292  21.209  19.803  17.563 -0.0599  0.1990  0.0868
 8716DDP     P252293  20.595  19.455  17.488 -0.1725 -0.3490  0.1002
 8716DDP     C252294  20.101  19.441  17.457 -0.3824  0.3210  0.1398
 8716DDP     C352295  21.310  20.116  17.827 -0.1649  0.2445 -0.1406
 8716DDP     C452296  20.806  19.683  16.890  0.3086 -0.0987  0.0820
 8717DDP     C152297  23.108   5.601  10.688 -0.1922 -0.0832 -0.0223
 8717DDP     P152298  23.262   5.501  10.340 -0.0806 -0.3263  0.1182
 8717DDP     P252299  22.789   5.276  10.842 -0.0675 -0.0644  0.0321
 8717DDP     C252300  22.483   5.041  11.066 -0.0887  0.0478 -0.4087
 8717DDP     C352301  23.397   5.505   9.944  0.0745 -0.0558 -0.0758
 8717DDP     C452302  23.236   5.889  11.122 -0.2747 -0.0191 -0.2357
 8718DDP     C152303   6.944   1.441  16.131  0.0883 -0.0561 -0.0977
 8718DDP     P152304   7.069   1.508  15.730 -0.0129  0.0824  0.2951
 8718DDP     P252305   6.745   0.990  16.083 -0.1697 -0.2215  0.0794
 8718DDP     C252306   6.551   0.614  16.149 -0.1407  0.3718 -0.1623
 8718DDP     C352307   7.256   1.774  15.474  0.2381 -0.0715 -0.1642
 8718DDP     C452308   6.763   1.729  16.369 -0.1937  0.0102 -0.2064
 8719DDP     C152309   8.721  24.291   7.627 -0.4494 -0.0410 -0.0972
 8719DDP     P152310   8.924  24.688   7.513  0.2287 -0.3303  0.2226
 8719DDP     P252311   8.209  24.211   7.722  0.0516 -0.0389 -0.1684
 8719DDP     C252312   7.842  23.991   7.979  0.0889  0.1477 -0.0020
 8719DDP     C352313   8.939  25.122   7.638 -0.0944 -0.0714  0.1168
 8719DDP     C452314   8.974  24.069   7.316 -0.0932 -0.0903  0.0524
 8720DDP     C152315   8.956   6.987  19.845  0.0749 -0.3653  0.2769
 8720DDP     P152316   8.953   7.386  19.632  0.0411 -0.0701 -0.2766
 8720DDP     P252317   9.492   6.882  19.907 -0.0198  0.0098 -0.0923
 8720DDP     C252318   9.925   7.114  19.994  0.1164 -0.1870 -0.1657
 8720DDP     C352319   8.712   7.809  19.481  0.2151  0.0789 -0.1295
 8720DDP     C452320   8.487   6.829  20.001  0.0012 -0.0812  0.1983
 8721DDP     C152321  15.533  22.811  18.907  0.1732 -0.0615  0.0004
 8721DDP     P152322  15.909  22.839  18.646  0.0774 -0.1625  0.1755
 8721DDP     P252323  15.612  22.843  19.278 -0.1872  0.0711  0.1511
 8721DDP     C252324  15.813  23.213  19.506  0.0595  0.0467 -0.0399
 8721DDP     C352325  16.162  23.103  18.394  0.3041 -0.1543  0.2288
 8721DDP     C452326  15.153  22.661  19.121  0.0855 -0.1681  0.0607
 8722DDP     C152327  14.991   1.521   9.851 -0.3755 -0.4391  0.1325
 8722DDP     P152328  15.177   1.555  10.295  0.0771 -0.0742  0.0337
 8722DDP     P252329  14.504   1.492   9.758  0.0071 -0.0211 -0.1124
 8722DDP     C252330  14.196   1.678   9.731  0.1953 -0.1960  0.1347
 8722DDP     C352331  15.593   1.849  10.291 -0.1653 -0.1496 -0.1218
 8722DDP     C452332  15.151   1.886   9.513  0.1956 -0.1605 -0.0203
 8723DDP     C152333  10.044  26.882  18.585  0.0127 -0.0988 -0.1359
 8723DDP     P152334  10.427  27.163  18.557  0.3464  0.1162  0.1907
 8723DDP     P252335   9.819  26.852  18.887 -0.0578 -0.0609  0.0134
 8723DDP     C252336   9.349  26.937  18.987 -0.0241  0.0325  0.0590
 8723DDP     C352337  10.601  27.413  19.029 -0.1876 -0.0065  0.1510
 8723DDP     C452338   9.989  26.638  18.245 -0.1076 -0.0198  0.1916
 8724DDP     C152339  10.351  16.430  25.290 -0.5628  0.5085  0.2451
 8724DDP     P152340  10.259  16.036  25.462 -0.3470  0.0270 -0.0385
 8724DDP     P252341  10.642  16.517  24.971 -0.4119  0.0228 -0.1370
 8724DDP     C252342  10.988  16.386  24.748  0.0336 -0.0275  0.2718
 8724DDP     C352343  10.314  15.884  25.844  0.2356  0.0443 -0.2614
 8724DDP     C452344  10.111  16.718  25.469  0.2200 -0.0367 -0.2523
 8725DDP     C152345  13.133  17.577   9.117  0.1713  0.1174  0.2981
 8725DDP     P152346  13.400  17.222   8.971 -0.1275  0.1471 -0.0879
 8725DDP     P252347  13.421  17.826   9.378  0.1773  0.0615 -0.0599
 8725DDP     C252348  13.480  18.298   9.350 -0.0834  0.0177  0.1771
 8725DDP     C352349  13.572  17.014   8.682 -0.1043 -0.0165 -0.2501
 8725DDP     C452350  12.825  17.884   9.006 -0.2638 -0.0816 -0.1334
 8726DDP     C152351  30.048   7.870   1.596  0.1512 -0.1472 -0.1374
 8726DDP     P152352  30.268   7.448   1.647  0.1971 -0.1692  0.1098
 8726DDP     P252353  30.257   8.265   1.702 -0.1061 -0.2669  0.1749
 8726DDP     C252354  30.087   8.610   2.023  0.0190  0.1192  0.3338
 8726DDP     C352355   0.345   7.308   1.442  0.1056  0.0640  0.0142
 8726DDP     C452356  29.545   7.937   1.470  0.2657 -0.0335  0.0983
 8727DDP     C152357   2.091  28.005  19.473  0.1000  0.0267 -0.2135
 8727DDP     P152358   1.880  28.189  19.228 -0.0722 -0.1130 -0.4610
 8727DDP     P252359   1.999  27.844  19.903  0.1700  0.0296  0.0208
 8727DDP     C252360   1.714  27.615  20.069 -0.1497 -0.3217  0.1914
 8727DDP     C352361   1.569  28.287  18.975  0.0430 -0.2792  0.0037
 8727DDP     C452362   2.490  27.932  19.286  0.1268  0.0589 -0.0071
 8728DDP     C152363  19.151   2.803   4.797 -0.0479 -0.0364  0.3959
 8728DDP     P152364  19.166   3.240   4.675 -0.0088  0.2408 -0.1585
 8728DDP     P252365  18.877   2.482   4.638 -0.0569 -0.1242  0.3741
 8728DDP     C252366  18.484   2.509   4.464  0.2568  0.3055  0.2089
 8728DDP     C352367  19.468   3.542   4.585  0.0253  0.1478  0.5289
 8728DDP     C452368  19.341   2.670   5.143  0.0388 -0.0018  0.0031
 8729DDP     C152369   5.797  10.618  13.027 -0.3267 -0.0413 -0.1399
 8729DDP     P152370   5.554  10.545  12.717 -0.1567  0.0008 -0.0211
 8729DDP     P252371   5.864  11.003  13.299  0.3314  0.1187 -0.0328
 8729DDP     C252372   6.220  11.191  13.524 -0.1852 -0.1493 -0.1778
 8729DDP     C352373   5.208  10.613  12.464 -0.2702  0.1091 -0.1309
 8729DDP     C452374   6.189  10.411  13.030  0.0140 -0.1596 -0.1154
 8730DDP     C152375  24.481  16.455  29.016  0.0241 -0.2036 -0.2867
 8730DDP     P152376  24.663  16.863  29.059 -0.1250 -0.1079 -0.3225
 8730DDP     P252377  24.300  16.216  29.399 -0.1955  0.3277  0.2171
 8730DDP     C252378  24.061  16.315  29.734 -0.1650  0.0642  0.2286
 8730DDP     C352379  24.656  17.267  28.978 -0.0438 -0.3080 -0.2262
 8730DDP     C452380  24.557  16.141  28.661  0.0417 -0.1200  0.0478
 8731DDP     C152381  16.647  17.127  18.093 -0.0145  0.0372  0.0010
 8731DDP     P152382  17.049  17.220  18.071 -0.2994 -0.3529 -0.2115
 8731DDP     P252383  16.639  16.806  17.837  0.0606  0.0418  0.2717
 8731DDP     C252384  16.422  16.466  17.776  0.4351 -0.1564  0.1084
 8731DDP     C352385  17.255  17.471  18.148  0.0282  0.0532  0.0700
 8731DDP     C452386  16.221  17.176  18.353  0.0178  0.3226 -0.0286
 8732DDP     C152387   1.248  16.413  10.946  0.2767  0.0534 -0.2762
 8732DDP     P152388   1.501  16.170  11.199  0.1093 -0.0758  0.0967
 8732DDP     P252389   0.793  16.378  10.912 -0.0405 -0.0988 -0.1034
 8732DDP     C252390   0.316  16.453  10.872 -0.0269  0.1206 -0.1854
 8732DDP     C352391   1.508  15.752  11.371  0.1429  0.3367  0.0452
 8732DDP     C452392   1.310  16.594  10.534 -0.2331 -0.2820  0.2003
 8733DDP     C152393  28.412  15.962  27.332  0.0762 -0.0445 -0.0984
 8733DDP     P152394  28.177  15.714  27.106 -0.0634 -0.1377 -0.1478
 8733DDP     P252395  28.172  16.188  27.620 -0.2408  0.2442  0.0074
 8733DDP     C252396  28.255  16.198  27.999  0.0439 -0.4529 -0.0696
 8733DDP     C352397  27.948  15.463  26.753  0.2945  0.1189 -0.0970
 8733DDP     C452398  28.672  16.176  27.253 -0.2838  0.0065  0.4259
 8734DDP     C152399  29.911  24.788  18.553  0.3910  0.3206 -0.0470
 8734DDP     P152400  29.535  25.118  18.411  0.1437 -0.1120 -0.4374
 8734DDP     P252401  30.116  24.664  18.969  0.3212 -0.3023 -0.0233
 8734DDP     C252402  30.183  24.465  19.341  0.2890  0.1870  0.1674
 8734DDP     C352403  29.070  25.297  18.262 -0.0507  0.2283  0.1488
 8734DDP     C452404  30.195  24.669  18.183 -0.0557 -0.1588 -0.0305
 8735DDP     C152405   2.222  12.536   9.555  0.0187  0.3485 -0.1435
 8735DDP     P152406   2.218  12.388   9.117  0.0475 -0.1528 -0.4239
 8735DDP     P252407   2.109  12.305   9.948  0.0218  0.1636  0.4136
 8735DDP     C252408   2.286  11.923  10.104  0.0455  0.0874  0.2406
 8735DDP     C352409   2.201  12.109   8.854 -0.0888 -0.1306  0.0610
 8735DDP     C452410   2.468  12.783   9.874  0.2866  0.1323  0.1497
 8736DDP     C152411  29.873  14.568  19.872  0.1826  0.0623  0.2487
 8736DDP     P152412  29.788  14.882  19.644  0.1039  0.1471  0.0972
 8736DDP     P252413  29.666  14.576  20.226  0.0322 -0.2661 -0.2291
 8736DDP     C252414  29.519  14.135  20.577  0.1070 -0.0811 -0.0443
 8736DDP     C352415  29.476  15.199  19.536  0.0502  0.2855 -0.3908
 8736DDP     C452416   0.008  14.460  19.909 -0.0383  0.0335 -0.1243
 8737DDP     C152417   8.617  17.558  24.645 -0.2318  0.3068 -0.0568
 8737DDP     P152418   8.842  17.891  24.902  0.0052 -0.3605  0.2596
 8737DDP     P252419   8.373  17.883  24.445 -0.1122  0.0874  0.0719
 8737DDP     C252420   7.993  18.137  24.170 -0.0061  0.1643  0.1559
 8737DDP     C352421   8.994  18.305  24.805  0.0973 -0.0908  0.1613
 8737DDP     C452422   8.645  17.143  24.638  0.0199  0.2243 -0.1031
 8738DDP     C152423  11.098  17.237  27.254  0.1846 -0.2211 -0.1664
 8738DDP     P152424  11.235  17.073  27.679 -0.1960 -0.0681 -0.0037
 8738DDP     P252425  11.500  17.474  27.041  0.1405 -0.0873 -0.2499
 8738DDP     C252426  11.784  17.678  26.768  0.0207 -0.0207  0.1589
 8738DDP     C352427  11.584  16.832  27.822 -0.2835 -0.2288  0.1086
 8738DDP     C452428  11.342  16.987  27.037  0.0570  0.1281 -0.1396
 8739DDP     C152429  27.804  12.484  16.112  0.0577  0.1812 -0.1014
 8739DDP     P152430  27.847  12.124  16.192  0.2740  0.2271  0.0450
 8739DDP     P252431  27.578  12.698  15.724 -0.2119  0.1410  0.1553
 8739DDP     C252432  27.501  12.733  15.263  0.1345  0.0150 -0.0261
 8739DDP     C352433  28.212  11.810  16.052  0.3373 -0.2725  0.0615
 8739DDP     C452434  28.081  12.743  16.289  0.1910 -0.1031  0.1677
 8740DDP     C152435  20.236   4.667  12.325 -0.2022 -0.0171 -0.1271
 8740DDP     P152436  20.652   4.577  12.115  0.1863 -0.1702 -0.0551
 8740DDP     P252437  20.291   4.561  12.790 -0.1456  0.1931 -0.0463
 8740DDP     C252438  20.372   4.829  13.090 -0.1227 -0.1838  0.2332
 8740DDP     C352439  21.055   4.349  12.029  0.0183 -0.1673  0.1369
 8740DDP     C452440  20.026   5.031  12.276 -0.0564  0.1673  0.4821
 8741DDP     C152441  14.606   5.174  13.371 -0.3743  0.1079 -0.0142
 8741DDP     P152442  14.214   5.097  13.158  0.2316 -0.1640 -0.0495
 8741DDP     P252443  14.487   5.414  13.792 -0.4580 -0.3829  0.1697
 8741DDP     C252444  14.328   5.791  13.810  0.2126 -0.2359 -0.2802
 8741DDP     C352445  13.742   5.077  13.276 -0.2034 -0.1850  0.0239
 8741DDP     C452446  15.018   5.011  13.349  0.3032 -0.1684  0.0478
 8742DDP     C152447  21.129  11.637   3.556 -0.3429  0.0269  0.1719
 8742DDP     P152448  20.994  11.810   3.178 -0.0040  0.1151  0.0340
 8742DDP     P252449  21.553  11.761   3.495 -0.1175  0.1930 -0.0125
 8742DDP     C252450  21.973  11.829   3.641  0.5623  0.1387  0.5187
 8742DDP     C352451  20.752  12.152   2.979  0.3499  0.0294 -0.2489
 8742DDP     C452452  20.998  11.283   3.858  0.0347  0.0540 -0.1364
 8743DDP     C152453  22.597  11.545   1.243  0.2251 -0.3381  0.0668
 8743DDP     P152454  22.328  11.277   0.987  0.0279  0.0533 -0.0858
 8743DDP     P252455  22.754  11.991   1.123  0.0177  0.2017 -0.0776
 8743DDP     C252456  23.007  12.297   1.451 -0.1813  0.1049  0.3244
 8743DDP     C352457  22.307  10.932   0.653 -0.1174 -0.1678  0.0248
 8743DDP     C452458  22.797  11.164   1.346 -0.1613 -0.0823 -0.0646
 8744DDP     C152459  11.310  21.968  30.008  0.0019  0.2053 -0.1335
 8744DDP     P152460  11.766  22.211  29.977 -0.0558  0.0024 -0.2170
 8744DDP     P252461  11.136  22.291  30.173 -0.3091  0.2419  0.0588
 8744DDP     C252462  10.781  22.402   0.057  0.0682  0.0493  0.0677
 8744DDP     C352463  12.149  22.415  29.818 -0.5288 -0.0680  0.1785
 8744DDP     C452464  11.087  21.541  29.845  0.0413  0.2318 -0.2184
 8745DDP     C152465  16.567   7.302  21.794  0.3100 -0.2988 -0.0914
 8745DDP     P152466  16.652   7.531  21.441  0.3764  0.0397 -0.4615
 8745DDP     P252467  16.241   6.973  21.842 -0.1677  0.0127 -0.0769
 8745DDP     C252468  16.070   6.750  21.420  0.2859  0.0290 -0.0103
 8745DDP     C352469  16.770   7.916  21.396 -0.0426  0.0403  0.3260
 8745DDP     C452470  16.955   7.176  22.170  0.1348 -0.3109  0.0979
 8746DDP     C152471  16.930  29.964   9.910 -0.0501 -0.1233 -0.0243
 8746DDP     P152472  16.793  30.061  10.321 -0.2508 -0.1336 -0.4886
 8746DDP     P252473  16.755  30.147   9.547 -0.0921  0.1726  0.0006
 8746DDP     C252474  16.311  30.272   9.378 -0.0380  0.0554  0.1601
 8746DDP     C352475  16.676  29.993  10.797 -0.2029  0.1830  0.1216
 8746DDP     C452476  17.306  29.834   9.758  0.1073  0.0721 -0.1962
 8747DDP     C152477  27.834  21.752  18.381  0.2401 -0.2125 -0.4785
 8747DDP     P152478  27.773  21.561  18.704 -0.4263  0.0115  0.1742
 8747DDP     P252479  27.866  21.570  17.919  0.1012 -0.0826 -0.0803
 8747DDP     C252480  27.914  21.421  17.455  0.1307  0.0143  0.0400
 8747DDP     C352481  27.452  21.220  18.723  0.2446 -0.2968  0.1871
 8747DDP     C452482  28.207  22.040  18.284  0.1799  0.3719  0.2448
 8748DDP     C152483   5.498  19.886  10.602 -0.1297  0.2533 -0.3532
 8748DDP     P152484   5.328  19.581  10.921 -0.2573 -0.1570 -0.2813
 8748DDP     P252485   5.274  19.942  10.160  0.0421 -0.0580 -0.1767
 8748DDP     C252486   5.049  19.946   9.713  0.2731 -0.0276 -0.0551
 8748DDP     C352487   5.195  19.344  11.353  0.1135  0.0038 -0.0439
 8748DDP     C452488   5.780  20.122  10.707 -0.0843  0.0578  0.0838
 8749DDP     C152489   9.307  26.749  27.264  0.2891 -0.1686  0.1960
 8749DDP     P152490   9.769  26.584  27.548 -0.2425 -0.2402  0.0522
 8749DDP     P252491   9.163  26.945  26.888 -0.0677 -0.0907  0.2436
 8749DDP     C252492   9.087  27.334  26.666 -0.0261 -0.1261 -0.1424
 8749DDP     C352493  10.112  26.234  27.491  0.3086 -0.0362 -0.0307
 8749DDP     C452494   8.864  26.618  27.340  0.6172 -0.3186 -0.0984
 8750DDP     C152495   5.571  28.596  25.605 -0.1485  0.0924 -0.1001
 8750DDP     P152496   5.162  28.805  25.457 -0.0797 -0.0639  0.0409
 8750DDP     P252497   5.662  28.587  26.110 -0.1934  0.1408  0.3255
 8750DDP     C252498   5.537  28.496  26.397 -0.1727  0.1071 -0.1591
 8750DDP     C352499   4.800  28.640  25.404 -0.2534  0.2810  0.2820
 8750DDP     C452500   5.794  28.653  25.322  0.0319 -0.3296  0.0148
 8751DDP     C152501  22.437  18.195  22.221  0.0567 -0.0469  0.2877
 8751DDP     P152502  22.749  18.225  21.988 -0.0148 -0.5594  0.2191
 8751DDP     P252503  22.384  18.167  22.644 -0.0281  0.1010 -0.1992
 8751DDP     C252504  22.627  18.276  22.990 -0.4145 -0.1395  0.0855
 8751DDP     C352505  23.129  18.521  22.152 -0.0996  0.0853 -0.0490
 8751DDP     C452506  21.991  18.136  22.018 -0.2206 -0.2318  0.1710
 8752DDP     C152507  27.093  19.956  11.933 -0.1564  0.2585  0.0048
 8752DDP     P152508  27.425  19.916  12.100  0.1480 -0.1815  0.1340
 8752DDP     P252509  26.668  19.857  12.149  0.0559 -0.0107 -0.0571
 8752DDP     C252510  26.607  19.460  12.368 -0.0583  0.1464  0.1430
 8752DDP     C352511  27.726  20.111  12.338  0.1591  0.0881 -0.2338
 8752DDP     C452512  27.239  20.170  11.611  0.1909 -0.2166 -0.2423
 8753DDP     C152513  13.806  18.279   0.318 -0.0503 -0.1483  0.0060
 8753DDP     P152514  14.144  18.448  30.391 -0.0023 -0.0295  0.3429
 8753DDP     P252515  13.455  18.463   0.128 -0.1000  0.0558 -0.0039
 8753DDP     C252516  13.394  18.905  30.204 -0.2482 -0.3314 -0.2028
 8753DDP     C352517  14.184  18.179  29.964  0.3768  0.4715 -0.1598
 8753DDP     C452518  13.770  18.055   0.713  0.1704 -0.4421 -0.4875
 8754DDP     C152519  12.629   6.894   5.676 -0.3273  0.0596  0.0253
 8754DDP     P152520  12.250   6.923   5.830  0.0991  0.0342 -0.0024
 8754DDP     P252521  12.915   6.660   5.819 -0.2596  0.1064  0.2950
 8754DDP     C252522  13.174   6.242   5.814 -0.3474  0.0531 -0.1562
 8754DDP     C352523  11.749   6.911   5.727 -0.2376 -0.1296 -0.4728
 8754DDP     C452524  12.830   7.316   5.508 -0.0013 -0.0887  0.0849
 8755DDP     C152525  25.183   8.980  18.521  0.1981  0.1151  0.2314
 8755DDP     P152526  25.329   9.351  18.310  0.2429 -0.0396  0.0084
 8755DDP     P252527  24.965   8.836  18.083 -0.0708 -0.2144 -0.1511
 8755DDP     C252528  24.642   8.798  17.838 -0.0497  0.0984 -0.0732
 8755DDP     C352529  25.559   9.623  18.033  0.2713  0.1197  0.2753
 8755DDP     C452530  25.404   8.644  18.837  0.2309 -0.0446  0.2760
 8756DDP     C152531   6.319  26.718  11.566  0.2454 -0.0639  0.0598
 8756DDP     P152532   6.193  26.848  11.258 -0.1586  0.3125 -0.2027
 8756DDP     P252533   6.533  26.274  11.510 -0.0902  0.0416  0.0844
 8756DDP     C252534   6.839  26.171  11.141  0.3597 -0.2126  0.0462
 8756DDP     C352535   6.420  27.060  10.933  0.0383  0.2554  0.1308
 8756DDP     C452536   6.332  27.004  11.893 -0.1076  0.3179  0.1748
 8757DDP     C152537  27.971   6.632   6.500  0.0176  0.4397 -0.1914
 8757DDP     P152538  27.507   6.760   6.628 -0.1818  0.0265  0.3329
 8757DDP     P252539  28.291   6.918   6.428 -0.2978 -0.1651  0.1308
 8757DDP     C252540  28.559   7.333   6.502 -0.2884  0.1696  0.1390
 8757DDP     C352541  27.101   6.802   6.351 -0.0159  0.1183  0.3158
 8757DDP     C452542  28.052   6.274   6.394  0.0780  0.3007 -0.0192
 8758DDP     C152543   9.970  29.914  19.448 -0.0115 -0.0137 -0.2779
 8758DDP     P152544  10.145  29.639  19.030  0.0166  0.1689 -0.1383
 8758DDP     P252545  10.091  30.277  19.256  0.1683  0.2058  0.1111
 8758DDP     C252546   9.838   0.307  19.040  0.3435  0.0425  0.2197
 8758DDP     C352547  10.493  29.523  19.245 -0.3878 -0.0894  0.0013
 8758DDP     C452548   9.722  29.718  19.804  0.2573  0.3483 -0.0549
 8759DDP     C152549  25.155  14.768   0.648 -0.0719 -0.2436  0.0070
 8759DDP     P152550  25.460  14.972   0.920 -0.1103 -0.1093 -0.1214
 8759DDP     P252551  25.106  14.744   0.256 -0.0544  0.1030 -0.0177
 8759DDP     C252552  25.030  14.869  30.092 -0.1434  0.3806 -0.2322
 8759DDP     C352553  25.757  15.229   0.856  0.0685  0.1738 -0.1662
 8759DDP     C452554  24.963  14.644   0.975  0.2347  0.1026  0.1336
 8760DDP     C152555  17.827  10.877  11.126  0.0352  0.2440 -0.1631
 8760DDP     P152556  17.718  10.639  10.810 -0.2303 -0.1546  0.1109
 8760DDP     P252557  18.059  11.197  11.075  0.2551 -0.2310  0.2522
 8760DDP     C252558  18.479  11.494  11.109  0.2928  0.0557  0.2671
 8760DDP     C352559  17.731  10.678  10.275  0.0096  0.0137  0.0056
 8760DDP     C452560  17.714  10.799  11.562 -0.3213 -0.3178  0.0672
 8761DDP     C152561  28.405  25.342  14.034  0.1183  0.2374 -0.0550
 8761DDP     P152562  28.399  24.965  14.336 -0.0848 -0.0526  0.2059
 8761DDP     P252563  28.479  25.344  13.615 -0.0446 -0.0005 -0.0573
 8761DDP     C252564  28.395  25.320  13.276 -0.2559 -0.2903  0.0553
 8761DDP     C352565  28.279  24.504  14.541  0.0606  0.2941  0.2322
 8761DDP     C452566  28.520  25.812  14.232 -0.1244 -0.0592 -0.1568
 8762DDP     C152567  14.530   5.451  26.959  0.0345  0.1652 -0.0330
 8762DDP     P152568  14.709   5.371  27.326  0.0805 -0.1698  0.3165
 8762DDP     P252569  14.309   5.266  26.633 -0.1814  0.4336  0.1301
 8762DDP     C252570  14.137   4.846  26.480 -0.2632 -0.0980  0.1240
 8762DDP     C352571  14.859   5.040  27.593 -0.1440 -0.0580 -0.0160
 8762DDP     C452572  14.663   5.868  26.868 -0.0047  0.2333  0.1681
 8763DDP     C152573  15.793  12.692  19.754 -0.0052 -0.1291  0.2989
 8763DDP     P152574  16.234  12.586  19.813  0.1186  0.0459  0.1300
 8763DDP     P252575  15.593  12.362  19.676 -0.0474 -0.1324 -0.0245
 8763DDP     C252576  15.362  12.141  19.370 -0.1807 -0.2551  0.0203
 8763DDP     C352577  16.338  12.252  19.979 -0.0953 -0.0124  0.0623
 8763DDP     C452578  15.512  12.999  19.719 -0.0352 -0.1292 -0.2099
 8764DDP     C152579   3.063   6.245  11.231  0.0880  0.2748 -0.2273
 8764DDP     P152580   3.342   5.998  10.997  0.0485 -0.2202 -0.1322
 8764DDP     P252581   2.695   6.052  11.327  0.2439 -0.1576 -0.0756
 8764DDP     C252582   2.615   5.931  11.653  0.0794 -0.0588 -0.0467
 8764DDP     C352583   3.549   5.538  10.928 -0.0680  0.1405  0.0036
 8764DDP     C452584   2.970   6.578  11.386 -0.0547  0.0938  0.0745
 8765DDP     C152585  21.246   8.007  20.931  0.1404 -0.0750 -0.2139
 8765DDP     P152586  21.484   7.884  20.599  0.3261 -0.0425  0.3361
 8765DDP     P252587  21.311   8.255  21.273  0.1527  0.4094 -0.0909
 8765DDP     C252588  21.197   8.250  21.743  0.1260  0.3440  0.0153
 8765DDP     C352589  21.761   7.462  20.405 -0.0906 -0.0862 -0.0117
 8765DDP     C452590  20.789   8.057  20.896 -0.2702 -0.1392 -0.2188
 8766DDP     C152591  29.905  29.159  18.055  0.1814  0.0299 -0.1512
 8766DDP     P152592   0.019  29.229  17.926  0.1544 -0.1154  0.0121
 8766DDP     P252593  29.627  28.823  17.929 -0.2011 -0.0039  0.0701
 8766DDP     C252594  29.368  28.423  17.821 -0.3296  0.4172  0.0843
 8766DDP     C352595   0.284  29.592  17.990  0.2197 -0.2118 -0.1328
 8766DDP     C452596  29.727  29.536  18.293  0.1248 -0.0433  0.1797
 8767DDP     C152597  14.731   9.986  13.434 -0.2426  0.1220  0.1840
 8767DDP     P152598  14.411  10.238  13.411 -0.1819 -0.1368 -0.1667
 8767DDP     P252599  14.621   9.552  13.369  0.2166  0.0620  0.2254
 8767DDP     C252600  14.222   9.348  13.427  0.0837 -0.1736  0.1867
 8767DDP     C352601  14.137  10.608  13.371 -0.2020 -0.1826  0.2341
 8767DDP     C452602  15.197  10.115  13.631  0.0656 -0.2804 -0.2380
 8768DDP     C152603   0.593   8.394   8.871  0.1032  0.0543 -0.1188
 8768DDP     P152604   0.256   8.217   9.052  0.0716  0.2910  0.1851
 8768DDP     P252605   0.973   8.104   8.887 -0.0491 -0.1364  0.1341
 8768DDP     C252606   1.149   7.908   8.570  0.2850  0.0926  0.4199
 8768DDP     C352607  30.177   8.311   8.941 -0.0535 -0.3985 -0.1665
 8768DDP     C452608   0.711   8.913   8.714 -0.1250  0.1591 -0.2178
 8769DDP     C152609  13.257   9.167  27.875 -0.2200 -0.0338  0.2429
 8769DDP     P152610  12.974   8.969  28.135 -0.1561  0.0589  0.1965
 8769DDP     P252611  13.449   9.480  28.014 -0.0521  0.3459  0.0984
 8769DDP     C252612  13.534   9.745  28.351  0.0006 -0.1312  0.2419
 8769DDP     C352613  12.682   8.711  28.173  0.0447  0.0537  0.0000
 8769DDP     C452614  13.269   9.171  27.307  0.3652  0.0370  0.1062
 8770DDP     C152615   8.515  10.574  11.724  0.0806 -0.3619  0.0415
 8770DDP     P152616   8.802  10.356  11.681  0.0658  0.0743  0.1001
 8770DDP     P252617   8.259  10.506  12.084  0.0276 -0.2918 -0.0029
 8770DDP     C252618   8.313  10.363  12.473  0.1788 -0.3559 -0.1155
 8770DDP     C352619   9.338  10.515  11.788 -0.3064  0.0964  0.2115
 8770DDP     C452620   8.414  10.981  11.487  0.1943  0.0773  0.0602
 8771DDP     C152621  17.297  24.687   9.171 -0.2031  0.0677  0.1519
 8771DDP     P152622  17.125  24.430   8.855  0.0052 -0.0380 -0.1027
 8771DDP     P252623  17.642  24.464   9.449  0.1512  0.2263  0.2236
 8771DDP     C252624  17.680  24.200   9.682 -0.1597 -0.2091  0.1954
 8771DDP     C352625  17.039  24.376   8.440  0.4353 -0.2384  0.2677
 8771DDP     C452626  17.336  25.024   9.028  0.1675  0.0796 -0.0482
 8772DDP     C152627  12.740  22.382   9.192  0.0661  0.0120  0.1301
 8772DDP     P152628  13.037  22.186   9.012 -0.2716  0.1200  0.2012
 8772DDP     P252629  12.725  22.844   9.236 -0.4324 -0.1407 -0.2249
 8772DDP     C252630  12.942  23.152   9.060 -0.3327 -0.0631  0.1677
 8772DDP     C352631  13.026  21.782   8.735  0.0183 -0.0916 -0.2639
 8772DDP     C452632  12.390  22.211   9.218 -0.1268 -0.2662  0.1130
 8773DDP     C152633  25.042   5.137  19.186  0.1423  0.2812 -0.1331
 8773DDP     P152634  25.523   5.299  19.151  0.3526 -0.1483  0.0220
 8773DDP     P252635  24.897   4.840  18.977  0.0580 -0.1393  0.0151
 8773DDP     C252636  24.846   4.419  18.843  0.0790  0.3900  0.1540
 8773DDP     C352637  25.820   5.662  19.048  0.1600  0.1571  0.3535
 8773DDP     C452638  24.741   5.541  19.276 -0.1115 -0.2042 -0.1192
 8774DDP     C152639  24.414  26.222   8.049 -0.1395 -0.1747 -0.0738
 8774DDP     P152640  24.494  25.888   8.236 -0.1109 -0.0608  0.1395
 8774DDP     P252641  24.424  26.327   7.673  0.0973  0.3315  0.1264
 8774DDP     C252642  24.430  26.219   7.253  0.0673  0.0395 -0.0002
 8774DDP     C352643  24.556  25.411   8.122 -0.3150 -0.1893 -0.1709
 8774DDP     C452644  24.130  26.562   8.231  0.0523 -0.2086 -0.0432
 8775DDP     C152645   2.671  19.548  15.951  0.0978  0.0841  0.1035
 8775DDP     P152646   2.177  19.605  15.928  0.1866 -0.1353 -0.1185
 8775DDP     P252647   2.939  19.367  16.335 -0.0901 -0.0359  0.0861
 8775DDP     C252648   2.983  19.016  16.692  0.0957  0.2842  0.2493
 8775DDP     C352649   1.885  19.502  16.277 -0.3302 -0.2338  0.1498
 8775DDP     C452650   3.005  19.736  15.603 -0.2056  0.0035  0.0601
 8776DDP     C152651  11.927  25.018  12.451  0.0009 -0.3639 -0.3396
 8776DDP     P152652  12.178  24.900  12.788 -0.1106  0.1941  0.0461
 8776DDP     P252653  11.756  25.298  12.635 -0.5474 -0.1876 -0.0057
 8776DDP     C252654  11.860  25.685  12.788  0.0292 -0.1912  0.0023
 8776DDP     C352655  12.421  24.575  13.026  0.2503  0.1536  0.0157
 8776DDP     C452656  12.038  24.996  11.980 -0.1026  0.0650  0.1637
 8777DDP     C152657  23.122   2.148  15.081  0.1794  0.0182  0.1048
 8777DDP     P152658  23.523   2.112  15.335 -0.0326  0.2154 -0.2180
 8777DDP     P252659  22.835   2.397  14.900 -0.2768 -0.1294 -0.1267
 8777DDP     C252660  22.336   2.422  14.686 -0.3245  0.0425  0.2108
 8777DDP     C352661  23.723   2.269  15.715  0.3660 -0.2653 -0.0178
 8777DDP     C452662  23.089   1.697  15.042  0.2239 -0.0994  0.6212
 8778DDP     C152663  23.381  14.709   2.299  0.1667 -0.1498  0.0566
 8778DDP     P152664  23.039  14.951   2.521  0.0588 -0.0518 -0.1148
 8778DDP     P252665  23.331  14.967   1.865 -0.1782  0.0055  0.1883
 8778DDP     C252666  23.356  15.169   1.451 -0.1526 -0.0432  0.0614
 8778DDP     C352667  22.677  14.931   2.643  0.0455 -0.0353  0.2302
 8778DDP     C452668  23.670  14.498   2.416  0.0077  0.1308  0.2225
 8779DDP     C152669   3.369   1.430   0.661  0.0899  0.1440  0.0290
 8779DDP     P152670   3.495   1.403   0.196  0.1800  0.2062  0.0640
 8779DDP     P252671   3.686   1.697   0.725 -0.0116  0.3293  0.2697
 8779DDP     C252672   3.919   2.039   0.638 -0.3414  0.0438 -0.1025
 8779DDP     C352673   3.301   1.515  30.209 -0.1804  0.4337  0.0210
 8779DDP     C452674   2.975   1.378   0.848 -0.5198 -0.0363 -0.2105
 8780DDP     C152675  25.887  22.909  23.465 -0.1517 -0.1807  0.2245
 8780DDP     P152676  25.462  23.015  23.469  0.0032  0.1767  0.0678
 8780DDP     P252677  26.042  22.591  23.449 -0.1891 -0.0106 -0.0966
 8780DDP     C252678  26.213  22.180  23.665  0.1596 -0.0412 -0.1887
 8780DDP     C352679  25.075  23.178  23.380 -0.2497 -0.0843  0.2710
 8780DDP     C452680  26.033  23.296  23.247 -0.3168  0.1152  0.1778
 8781DDP     C152681  20.790   3.867  13.010 -0.0189 -0.3007  0.3367
 8781DDP     P152682  20.432   4.045  12.734  0.0282 -0.0928 -0.1542
 8781DDP     P252683  20.819   3.450  13.104  0.2172  0.2637 -0.0870
 8781DDP     C252684  20.559   3.119  13.415  0.0667 -0.0034  0.0803
 8781DDP     C352685  20.382   4.205  12.281  0.1646 -0.2175 -0.0341
 8781DDP     C452686  21.102   4.190  12.960  0.1634  0.4422  0.0812
 8782DDP     C152687  29.986  26.974  18.127  0.3180  0.3401  0.0002
 8782DDP     P152688   0.014  27.147  18.172 -0.2851  0.1082 -0.1748
 8782DDP     P252689  29.928  26.670  18.345  0.1481 -0.2619  0.0673
 8782DDP     C252690  29.999  26.391  18.763  0.2434  0.1189  0.2683
 8782DDP     C352691   0.369  27.419  18.014  0.0812  0.0606  0.0910
 8782DDP     C452692  29.684  27.259  17.836  0.0715 -0.1444 -0.1850
 8783DDP     C152693  19.140  30.194  10.779  0.1183 -0.0970  0.0049
 8783DDP     P152694  19.336  30.029  11.024 -0.0687  0.0732 -0.1451
 8783DDP     P252695  18.996   0.313  10.833  0.2282  0.0755 -0.0149
 8783DDP     C252696  18.705   0.512  10.494  0.2412  0.0568  0.0162
 8783DDP     C352697  19.720  29.942  10.806 -0.1545 -0.0863 -0.0260
 8783DDP     C452698  18.947  30.028  10.396 -0.1045  0.0364 -0.2409
 8784DDP     C152699  10.354   5.757   1.367  0.3230 -0.2876 -0.2419
 8784DDP     P152700  10.219   5.574   1.754 -0.0092  0.0089 -0.1532
 8784DDP     P252701   9.969   5.921   1.071  0.1821 -0.3487  0.1375
 8784DDP     C252702   9.673   6.259   0.966  0.0216 -0.1845 -0.2616
 8784DDP     C352703  10.131   5.121   1.850  0.0415 -0.0547  0.2252
 8784DDP     C452704  10.717   5.894   1.166  0.0657  0.0002  0.3164
 8785DDP     C152705  21.614  10.434  23.151  0.2505  0.0601  0.0895
 8785DDP     P152706  21.975  10.173  23.389  0.2414 -0.0288  0.0879
 8785DDP     P252707  21.418  10.381  22.781 -0.0928 -0.1164  0.1537
 8785DDP     C252708  21.479  10.357  22.318  0.0288  0.1342 -0.3182
 8785DDP     C352709  22.228   9.957  23.690 -0.0810 -0.1935 -0.2180
 8785DDP     C452710  21.576  10.710  23.468  0.1983  0.0460 -0.1556
 8786DDP     C152711   7.269  19.691   3.534 -0.2533  0.3517  0.1795
 8786DDP     P152712   7.518  19.753   3.975  0.2125  0.1176  0.1806
 8786DDP     P252713   7.345  19.653   3.080  0.1083 -0.0753 -0.2854
 8786DDP     C252714   7.299  19.371   2.714 -0.4370 -0.1502 -0.0977
 8786DDP     C352715   7.454  19.980   4.433  0.2298 -0.0687  0.1074
 8786DDP     C452716   6.924  19.700   3.876  0.1374 -0.0488 -0.0337
 8787DDP     C152717  16.626   6.406  27.514  0.1414 -0.0214  0.2779
 8787DDP     P152718  16.971   6.253  27.760  0.0970  0.1338 -0.3164
 8787DDP     P252719  16.644   6.598  27.128 -0.0490 -0.0083  0.2936
 8787DDP     C252720  16.554   7.001  26.905  0.0041  0.1104 -0.1129
 8787DDP     C352721  17.335   6.436  27.924 -0.1180  0.0178  0.0484
 8787DDP     C452722  16.426   6.696  27.662  0.1364 -0.2380  0.1887
 8788DDP     C152723  19.001  17.917  26.759 -0.0445  0.0924 -0.2075
 8788DDP     P152724  18.842  17.467  26.496 -0.0105 -0.1802 -0.0911
 8788DDP     P252725  19.164  18.216  26.413  0.2796  0.3640  0.3240
 8788DDP     C252726  19.040  18.394  26.048  0.0064  0.0389 -0.1041
 8788DDP     C352727  18.857  17.308  26.018 -0.0407 -0.1479  0.2633
 8788DDP     C452728  18.950  17.945  27.252 -0.1588  0.0217 -0.1704
 8789DDP     C152729  14.910  29.519  15.038  0.4190  0.2379  0.0055
 8789DDP     P152730  14.921  29.587  15.433  0.2134 -0.0605  0.1566
 8789DDP     P252731  15.123  29.280  14.775 -0.1256  0.0912  0.1621
 8789DDP     C252732  15.617  29.148  14.687 -0.3292 -0.1694  0.2398
 8789DDP     C352733  15.184  29.364  15.649  0.1019 -0.0017  0.0881
 8789DDP     C452734  14.924  29.963  15.027  0.1099 -0.0581  0.4227
 8790DDP     C152735  14.103  25.245  19.949  0.0251 -0.2909 -0.0358
 8790DDP     P152736  13.695  25.005  19.813  0.0459  0.2700 -0.1884
 8790DDP     P252737  13.975  25.273  20.416 -0.2850  0.0050  0.0682
 8790DDP     C252738  14.107  25.240  20.765 -0.0182  0.0972 -0.1298
 8790DDP     C352739  13.423  24.963  19.500  0.0137 -0.0760 -0.0973
 8790DDP     C452740  14.236  25.656  19.701 -0.3741 -0.1719 -0.2116
 8791DDP     C152741   9.010  29.951  18.338 -0.2753 -0.3092 -0.1455
 8791DDP     P152742   9.267  29.704  18.625  0.2655 -0.0941  0.2078
 8791DDP     P252743   8.583  29.772  18.134 -0.0430  0.0607 -0.0107
 8791DDP     C252744   8.345  29.371  18.144  0.3147 -0.0930 -0.2843
 8791DDP     C352745   9.428  29.257  18.781  0.0369 -0.1683  0.4192
 8791DDP     C452746   9.330  30.217  18.174  0.0404 -0.2876  0.2545
 8792DDP     C152747  11.446   1.354  25.601  0.0378 -0.0057  0.3991
 8792DDP     P152748  11.290   1.137  25.887 -0.5184  0.2636  0.1922
 8792DDP     P252749  11.776   1.622  25.709  0.1165  0.0478  0.0910
 8792DDP     C252750  12.042   1.878  25.491 -0.0025  0.0765 -0.0867
 8792DDP     C352751  11.115   0.791  26.252 -0.1953 -0.4199  0.0042
 8792DDP     C452752  11.408   1.170  25.146  0.0075  0.1902  0.2214
 8793DDP     C152753  20.816  26.033  14.113  0.3720 -0.0355  0.1167
 8793DDP     P152754  21.008  26.041  13.654  0.0857 -0.0859  0.1831
 8793DDP     P252755  20.428  26.397  14.149  0.1571 -0.0088 -0.0727
 8793DDP     C252756  20.260  26.677  14.413  0.0855 -0.2736 -0.3784
 8793DDP     C352757  20.918  26.283  13.228 -0.0482 -0.1328 -0.2908
 8793DDP     C452758  20.913  25.894  14.577 -0.1030 -0.2395  0.2494
 8794DDP     C152759   6.514  17.999  25.504  0.0802 -0.2294 -0.1076
 8794DDP     P152760   6.859  17.684  25.745  0.0629 -0.1165  0.1363
 8794DDP     P252761   6.530  18.044  24.979  0.1166  0.0495 -0.0461
 8794DDP     C252762   6.732  18.081  24.584 -0.2553 -0.0344  0.0539
 8794DDP     C352763   7.209  17.352  25.682 -0.0753 -0.1590  0.2507
 8794DDP     C452764   6.155  18.151  25.778 -0.1370  0.2590  0.3589
 8795DDP     C152765  15.847   5.694  30.217  0.2309 -0.0062 -0.2235
 8795DDP     P152766  15.601   5.709   0.207  0.1878 -0.1869  0.0419
 8795DDP     P252767  15.953   5.994  29.817 -0.1144  0.0041 -0.0949
 8795DDP     C252768  16.238   5.987  29.394  0.2154 -0.3550  0.0480
 8795DDP     C352769  15.594   5.349   0.572  0.2517 -0.2241  0.2193
 8795DDP     C452770  15.977   5.350   0.083 -0.0589 -0.1595  0.1199
 8796DDP     C152771  19.112  14.119  12.143 -0.2597  0.0390 -0.2862
 8796DDP     P152772  19.313  13.791  11.957 -0.2601  0.0834 -0.1644
 8796DDP     P252773  19.162  14.193  12.612  0.2530  0.3864  0.2299
 8796DDP     C252774  18.931  14.023  13.001 -0.4004  0.3354  0.0355
 8796DDP     C352775  19.808  13.682  11.905  0.2362 -0.0160  0.2424
 8796DDP     C452776  18.979  14.524  11.922 -0.2037 -0.2747 -0.1053
 8797DDP     C152777  27.625   4.412   4.833 -0.1947  0.0836 -0.2811
 8797DDP     P152778  27.378   4.729   4.626  0.0098 -0.1880  0.1228
 8797DDP     P252779  28.070   4.425   4.746  0.1162  0.2032 -0.1206
 8797DDP     C252780  28.603   4.457   4.714  0.0545  0.5556 -0.0391
 8797DDP     C352781  27.259   4.747   4.145  0.0666 -0.0333  0.2615
 8797DDP     C452782  27.536   4.072   5.089 -0.1228  0.0678  0.0433
 8798DDP     C152783  17.723   0.016  12.572 -0.3715  0.0037  0.0167
 8798DDP     P152784  17.894   0.460  12.580 -0.1567 -0.1040  0.0735
 8798DDP     P252785  17.417  30.050  12.538  0.0064 -0.0952 -0.2147
 8798DDP     C252786  17.112  29.801  12.805  0.0043 -0.1231 -0.3109
 8798DDP     C352787  18.217   0.724  12.684  0.1515  0.1422 -0.1143
 8798DDP     C452788  18.051  30.166  12.719  0.4520  0.2851  0.1747
 8799DDP     C152789  22.419  16.111  14.276 -0.0212 -0.0058  0.0450
 8799DDP     P152790  22.145  16.498  14.385 -0.0733  0.3134  0.0615
 8799DDP     P252791  22.616  15.726  14.511  0.1050  0.0770 -0.0159
 8799DDP     C252792  22.757  15.276  14.399 -0.1374 -0.0981  0.1908
 8799DDP     C352793  22.161  16.933  14.272 -0.0883 -0.0720 -0.3402
 8799DDP     C452794  22.327  16.173  13.812 -0.0524  0.0893 -0.6203
 8800DDP     C152795  13.541  18.941  26.365 -0.2167  0.0874  0.1481
 8800DDP     P152796  13.596  18.681  25.967  0.1595 -0.2369 -0.0754
 8800DDP     P252797  13.264  19.366  26.335 -0.0734 -0.1096  0.0534
 8800DDP     C252798  13.022  19.727  26.298 -0.2367 -0.0230  0.3678
 8800DDP     C352799  13.502  18.509  25.503 -0.2195  0.0743  0.3196
 8800DDP     C452800  13.727  18.763  26.722 -0.1153  0.0051 -0.1426
 8801DDP     C152801   0.081  24.637   1.525 -0.2958  0.1297  0.0084
 8801DDP     P152802  30.283  24.271   1.376  0.1876  0.2820  0.2435
 8801DDP     P252803   0.462  24.827   1.520  0.2825 -0.0908  0.0969
 8801DDP     C252804   0.948  24.922   1.461  0.0623 -0.1029  0.0132
 8801DDP     C352805  30.077  24.129   0.989 -0.1895 -0.1374 -0.1384
 8801DDP     C452806  30.038  24.926   1.559 -0.0913  0.0958  0.1589
 8802DDP     C152807  17.331  16.506  19.674  0.4566  0.0207 -0.2643
 8802DDP     P152808  17.618  16.172  19.925  0.1963 -0.0084 -0.0109
 8802DDP     P252809  17.087  16.781  19.869  0.0044  0.3579  0.1325
 8802DDP     C252810  16.902  17.077  19.774  0.0981 -0.0811 -0.0164
 8802DDP     C352811  18.015  16.235  20.118 -0.0958 -0.0916  0.1263
 8802DDP     C452812  17.340  16.406  19.274 -0.0371 -0.2540  0.0864
 8803DDP     C152813   1.086  27.382   5.215 -0.0847  0.0842  0.1710
 8803DDP     P152814   1.065  27.641   4.931 -0.3685 -0.1986  0.1172
 8803DDP     P252815   1.224  26.986   5.030 -0.2280  0.0778  0.0525
 8803DDP     C252816   1.540  26.810   4.959 -0.4025 -0.1894  0.0085
 8803DDP     C352817   1.020  28.103   4.860 -0.0854  0.0880 -0.3463
 8803DDP     C452818   0.805  27.384   5.568  0.1847  0.3742  0.0317
 8804DDP     C152819  17.852  14.613  25.411  0.1990  0.0341  0.0970
 8804DDP     P152820  18.165  14.256  25.146 -0.1757 -0.0489 -0.1481
 8804DDP     P252821  17.389  14.645  25.307  0.0340  0.4194 -0.0714
 8804DDP     C252822  17.138  14.567  24.994 -0.0315 -0.0135 -0.0197
 8804DDP     C352823  18.604  14.227  24.964  0.0718  0.1593 -0.0308
 8804DDP     C452824  18.077  14.956  25.674 -0.3407 -0.0666  0.1209
 8805DDP     C152825  28.347  24.524  19.990 -0.0543 -0.3858 -0.2815
 8805DDP     P152826  28.325  24.140  19.844  0.0418 -0.1915  0.0109
 8805DDP     P252827  28.630  24.602  20.282  0.0941  0.0269 -0.1018
 8805DDP     C252828  29.159  24.593  20.256  0.1384 -0.3632 -0.0844
 8805DDP     C352829  28.225  23.702  19.904 -0.0710 -0.1546  0.2491
 8805DDP     C452830  28.177  24.876  19.850  0.0013  0.0111  0.0602
 8806DDP     C152831  18.623   3.565  17.084 -0.1896 -0.2356 -0.1245
 8806DDP     P152832  18.471   3.789  17.388  0.2432  0.0210 -0.1209
 8806DDP     P252833  18.357   3.522  16.764  0.2972 -0.0175 -0.3763
 8806DDP     C252834  18.126   3.754  16.429 -0.1806 -0.0556 -0.1171
 8806DDP     C352835  18.151   3.809  17.585 -0.1469  0.0119 -0.1231
 8806DDP     C452836  18.858   3.222  17.153  0.0290 -0.1788 -0.1176
 8807DDP     C152837   3.962  10.573  15.041  0.4728 -0.1192  0.1464
 8807DDP     P152838   4.142  11.049  14.992 -0.1258 -0.0506  0.4087
 8807DDP     P252839   3.842  10.521  14.704  0.3795  0.1484  0.2205
 8807DDP     C252840   3.412  10.672  14.504  0.0143  0.1299 -0.0527
 8807DDP     C352841   4.541  11.048  14.702  0.2591  0.0306 -0.0493
 8807DDP     C452842   3.865  10.571  15.414  0.0715  0.2272 -0.0548
 8808DDP     C152843  24.587  20.391  15.561  0.0612 -0.1166 -0.0473
 8808DDP     P152844  24.626  20.250  15.928 -0.2109 -0.2105  0.2859
 8808DDP     P252845  24.167  20.444  15.348 -0.0388  0.0758  0.3323
 8808DDP     C252846  23.760  20.282  15.251 -0.0867 -0.1636 -0.0031
 8808DDP     C352847  24.787  20.455  16.324 -0.0660  0.1719 -0.0167
 8808DDP     C452848  24.978  20.642  15.307  0.2504 -0.4658  0.0126
 8809DDP     C152849  22.376  15.706   2.368 -0.1185  0.2038  0.2135
 8809DDP     P152850  22.158  16.101   2.252 -0.0581  0.0413 -0.0072
 8809DDP     P252851  22.640  15.672   2.773 -0.3218  0.0914  0.1795
 8809DDP     C252852  22.907  15.630   3.183  0.0832 -0.0559 -0.1459
 8809DDP     C352853  22.237  16.536   2.176 -0.1998  0.2916 -0.0530
 8809DDP     C452854  22.303  15.283   2.139 -0.0496 -0.0704 -0.0966
 8810DDP     C152855  14.422  19.931  27.308  0.1970 -0.1944  0.3118
 8810DDP     P152856  14.116  19.890  27.052 -0.2562  0.0793 -0.1308
 8810DDP     P252857  14.603  19.609  27.349  0.0606 -0.2081  0.1499
 8810DDP     C252858  14.647  19.203  27.503  0.3931 -0.0751  0.0980
 8810DDP     C352859  13.771  19.633  27.003 -0.2665 -0.1386 -0.0952
 8810DDP     C452860  14.347  20.224  27.693  0.0979 -0.2681 -0.0562
 8811DDP     C152861   2.371  21.556  14.247 -0.0768 -0.0680 -0.0060
 8811DDP     P152862   2.061  21.284  14.355 -0.0257 -0.1047 -0.3409
 8811DDP     P252863   2.277  21.830  13.901 -0.1579  0.1021 -0.1138
 8811DDP     C252864   2.303  22.060  13.523  0.1748  0.2688 -0.2688
 8811DDP     C352865   1.915  20.841  14.618 -0.0365  0.1046  0.3050
 8811DDP     C452866   2.768  21.445  14.528  0.1359 -0.0815  0.1262
 8812DDP     C152867   7.848   6.299  11.386  0.2126 -0.2042 -0.2221
 8812DDP     P152868   7.637   6.547  11.037 -0.0509 -0.2140 -0.0463
 8812DDP     P252869   8.243   6.409  11.300 -0.0373  0.2329 -0.4492
 8812DDP     C252870   8.589   6.610  10.979 -0.0576 -0.0711  0.0687
 8812DDP     C352871   7.325   6.416  10.705 -0.1257  0.1164 -0.0864
 8812DDP     C452872   7.696   6.008  11.685  0.3092 -0.0088  0.0763
 8813DDP     C152873  25.065   4.358   4.163 -0.0180 -0.2315  0.0463
 8813DDP     P152874  25.472   4.529   4.227  0.0432  0.1805  0.1527
 8813DDP     P252875  24.751   4.650   4.278  0.1024  0.3051  0.1958
 8813DDP     C252876  24.370   4.648   4.124  0.0085 -0.0956 -0.1504
 8813DDP     C352877  25.969   4.554   4.095 -0.2509 -0.0055  0.2132
 8813DDP     C452878  24.968   4.145   3.727 -0.2874 -0.0036  0.2950
 8814DDP     C152879   1.160  10.417  19.419 -0.1144 -0.0982 -0.0815
 8814DDP     P152880   1.221  10.022  19.323 -0.4863  0.0738 -0.0523
 8814DDP     P252881   1.260  10.634  19.774  0.0288 -0.2631  0.1010
 8814DDP     C252882   1.155  10.730  20.287 -0.2771  0.1884 -0.1044
 8814DDP     C352883   1.279   9.609  19.058  0.0180  0.1887 -0.0118
 8814DDP     C452884   0.964  10.665  19.135 -0.0186  0.0235  0.3364
 8815DDP     C152885   1.834   6.630   3.953 -0.2383  0.1664  0.0770
 8815DDP     P152886   1.858   6.291   3.720  0.2058 -0.2517 -0.2893
 8815DDP     P252887   2.007   6.697   4.392  0.0325  0.1146  0.0350
 8815DDP     C252888   2.208   6.962   4.777  0.3684  0.0895 -0.1447
 8815DDP     C352889   2.028   5.773   3.737 -0.4291 -0.3825  0.1304
 8815DDP     C452890   1.471   6.930   3.977  0.1621  0.2728  0.0020
 8816DDP     C152891  23.204   1.255  23.105  0.2429  0.1305  0.1104
 8816DDP     P152892  23.256   1.047  23.468 -0.1189 -0.0122  0.3579
 8816DDP     P252893  23.669   1.414  22.929  0.1133 -0.2445  0.0759
 8816DDP     C252894  23.997   1.853  22.934  0.0648 -0.0008  0.0402
 8816DDP     C352895  23.364   0.979  23.794 -0.2001  0.0592 -0.2431
 8816DDP     C452896  22.918   1.517  22.920 -0.0566  0.0615  0.4029
 8817DDP     C152897   6.992   0.933  18.813 -0.1572 -0.0162  0.0465
 8817DDP     P152898   7.343   0.948  19.033  0.0385  0.2173 -0.1641
 8817DDP     P252899   7.097   1.150  18.403  0.1435  0.2876  0.3073
 8817DDP     C252900   7.002   1.036  17.886  0.1740  0.2620 -0.1264
 8817DDP     C352901   7.814   1.104  19.229 -0.0647 -0.5719  0.2270
 8817DDP     C452902   6.629   0.747  18.881 -0.2517  0.2987  0.0469
 8818DDP     C152903  22.661   5.691  20.295  0.1497  0.0044  0.2719
 8818DDP     P152904  22.645   5.361  20.591 -0.2596  0.0354  0.1465
 8818DDP     P252905  22.598   5.716  19.811  0.0040 -0.1129 -0.0169
 8818DDP     C252906  22.541   5.750  19.381 -0.0922  0.1258  0.0551
 8818DDP     C352907  22.734   5.068  20.781  0.2430  0.1986  0.1291
 8818DDP     C452908  22.911   5.861  20.482 -0.1002  0.0097 -0.1577
 8819DDP     C152909   4.190   6.278  26.711 -0.1752  0.2428  0.1044
 8819DDP     P152910   3.868   5.962  26.746 -0.0434 -0.2293  0.0313
 8819DDP     P252911   4.465   5.826  26.539 -0.0816  0.0273 -0.1394
 8819DDP     C252912   4.669   5.518  26.403  0.2004 -0.0626 -0.0367
 8819DDP     C352913   3.433   5.788  26.759 -0.1483  0.2206  0.1556
 8819DDP     C452914   4.285   6.643  26.952 -0.0595 -0.0518 -0.1425
 8820DDP     C152915  29.447  22.767   2.585  0.0868  0.4888 -0.0660
 8820DDP     P152916  29.853  22.479   2.649  0.0412  0.0019 -0.0866
 8820DDP     P252917  29.251  22.854   2.986  0.0442 -0.0852 -0.4217
 8820DDP     C252918  28.812  22.993   3.169  0.0523  0.0862  0.2297
 8820DDP     C352919  30.235  22.291   2.523 -0.1534 -0.3294 -0.1919
 8820DDP     C452920  29.197  22.927   2.345  0.2648  0.0025 -0.2121
 8821DDP     C152921  23.127   4.715   6.041 -0.0215  0.0299 -0.4277
 8821DDP     P152922  23.329   4.716   6.481 -0.2451 -0.0044  0.3944
 8821DDP     P252923  23.081   5.195   5.873  0.2455  0.2088  0.0895
 8821DDP     C252924  23.121   5.579   5.669 -0.0715  0.3145  0.1119
 8821DDP     C352925  23.703   4.757   6.734 -0.0912 -0.1120  0.2055
 8821DDP     C452926  23.218   4.483   5.680  0.1506  0.1617 -0.0978
 8822DDP     C152927   4.323  12.146  17.430  0.2386  0.2532 -0.2122
 8822DDP     P152928   4.778  12.451  17.563  0.1208 -0.0345  0.1546
 8822DDP     P252929   4.309  11.802  17.350 -0.1915 -0.0883  0.0260
 8822DDP     C252930   4.597  11.357  17.283  0.0618  0.1866 -0.0015
 8822DDP     C352931   4.865  12.815  17.942  0.2737  0.4956 -0.0394
 8822DDP     C452932   3.885  12.323  17.431 -0.4204 -0.1550 -0.2115
 8823DDP     C152933   7.155  29.562  28.215 -0.1251 -0.1486  0.1581
 8823DDP     P152934   7.044  29.972  28.395 -0.0881 -0.0371 -0.0460
 8823DDP     P252935   7.033  29.168  28.110 -0.0532 -0.0627 -0.2199
 8823DDP     C252936   6.942  28.801  28.359  0.2896 -0.1474  0.0004
 8823DDP     C352937   7.031  30.152  28.782  0.3255  0.2657  0.1115
 8823DDP     C452938   7.446  29.763  27.985 -0.1864 -0.2166 -0.0327
 8824DDP     C152939   7.254   4.108   6.561  0.0049  0.2185 -0.2059
 8824DDP     P152940   7.123   3.613   6.581  0.0143  0.1133  0.2307
 8824DDP     P252941   7.650   3.970   6.755 -0.2943 -0.1078  0.2012
 8824DDP     C252942   8.053   3.976   6.606 -0.1063  0.2747  0.0406
 8824DDP     C352943   6.938   3.261   6.798 -0.0045  0.1523  0.1139
 8824DDP     C452944   7.248   4.162   6.123 -0.0849  0.1990 -0.2302
 8825DDP     C152945  27.961  19.181  26.463 -0.0913 -0.1324  0.0376
 8825DDP     P152946  27.688  18.893  26.474  0.0245  0.0093 -0.3073
 8825DDP     P252947  27.994  19.616  26.480  0.0766 -0.0691 -0.0452
 8825DDP     C252948  28.117  19.930  26.210  0.2530  0.1164 -0.0129
 8825DDP     C352949  27.521  18.464  26.218 -0.2533  0.0066  0.3159
 8825DDP     C452950  28.313  19.040  26.070 -0.1147 -0.0113  0.1235
 8826DDP     C152951   5.739   1.277  22.014 -0.1969 -0.1641 -0.1090
 8826DDP     P152952   5.624   0.873  22.231  0.1376  0.0862 -0.0819
 8826DDP     P252953   5.553   1.665  21.849  0.2713  0.0259 -0.0831
 8826DDP     C252954   5.194   1.986  21.695  0.0883  0.2958  0.0993
 8826DDP     C352955   5.549   0.516  22.413  0.0116 -0.0434 -0.4126
 8826DDP     C452956   6.177   1.301  21.712  0.2498  0.0515  0.1006
 8827DDP     C152957  22.738   0.483  25.324  0.3466  0.0154  0.0532
 8827DDP     P152958  22.781  30.313  25.247  0.4184  0.0833  0.1628
 8827DDP     P252959  22.325   0.346  25.204 -0.1889  0.3049 -0.1593
 8827DDP     C252960  22.082   0.169  24.843  0.0946  0.1370  0.0105
 8827DDP     C352961  23.059  30.042  25.002  0.0215  0.2314 -0.3409
 8827DDP     C452962  23.042   0.750  25.223 -0.0058  0.1524 -0.2448
 8828DDP     C152963  11.740  14.061  10.778 -0.0725 -0.4816  0.0017
 8828DDP     P152964  11.964  14.270  11.018 -0.0091 -0.1828  0.0309
 8828DDP     P252965  11.535  14.203  10.395  0.0539 -0.2523  0.1134
 8828DDP     C252966  11.201  14.213  10.270 -0.1484 -0.4386 -0.0015
 8828DDP     C352967  12.357  14.163  11.006 -0.4347 -0.0094 -0.1193
 8828DDP     C452968  11.506  13.735  10.885 -0.1324 -0.1729  0.1814
 8829DDP     C152969   6.375  15.134  13.659 -0.0823 -0.0015 -0.1368
 8829DDP     P152970   6.242  15.376  13.953  0.1434 -0.0275 -0.3016
 8829DDP     P252971   6.822  15.039  13.670 -0.3386 -0.0087 -0.2187
 8829DDP     C252972   6.997  14.637  13.788 -0.1759 -0.1361  0.0060
 8829DDP     C352973   6.242  15.832  14.272 -0.0314  0.2989  0.2383
 8829DDP     C452974   6.091  15.042  13.288 -0.2110 -0.3167 -0.0645
 8830DDP     C152975  16.745  25.713   9.335 -0.0860  0.2503  0.2213
 8830DDP     P152976  16.757  25.513   9.013 -0.0261  0.0869  0.3239
 8830DDP     P252977  16.275  25.660   9.374 -0.2169 -0.0586 -0.2295
 8830DDP     C252978  15.871  25.771   9.103  0.1199  0.0737 -0.0461
 8830DDP     C352979  17.044  25.446   8.728 -0.0292  0.0739 -0.0975
 8830DDP     C452980  17.146  26.027   9.523 -0.0655  0.0227  0.2088
 8831DDP     C152981  17.014   3.767  27.700  0.2421  0.2564  0.1847
 8831DDP     P152982  17.175   3.786  28.166 -0.0931  0.0318  0.1091
 8831DDP     P252983  17.159   4.240  27.605 -0.0937 -0.2894 -0.0380
 8831DDP     C252984  17.184   4.651  27.570 -0.0039 -0.0712 -0.0584
 8831DDP     C352985  17.200   3.558  28.597 -0.3672 -0.1828  0.3385
 8831DDP     C452986  16.744   3.453  27.673  0.2226  0.1678 -0.0130
 8832DDP     C152987  15.330  14.974  10.079  0.0037 -0.2640 -0.0505
 8832DDP     P152988  14.910  15.066  10.267  0.0921 -0.1454 -0.0855
 8832DDP     P252989  15.359  14.808   9.643  0.0050  0.2636 -0.0638
 8832DDP     C252990  14.992  14.469   9.380  0.1139 -0.1040  0.1411
 8832DDP     C352991  14.536  14.908  10.307  0.4340 -0.2495  0.2296
 8832DDP     C452992  15.553  15.150  10.444 -0.3517  0.2815  0.0876
 8833DDP     C152993  26.176   6.751  10.840  0.0097  0.0759  0.1330
 8833DDP     P152994  26.437   6.453  10.651 -0.0708 -0.0521 -0.3613
 8833DDP     P252995  26.270   6.799  11.280 -0.0993 -0.2065 -0.1611
 8833DDP     C252996  26.450   6.743  11.636 -0.0435  0.1934  0.1177
 8833DDP     C352997  26.562   6.268  10.314 -0.0211 -0.2082 -0.0942
 8833DDP     C452998  25.834   6.593  10.591 -0.0734  0.3029  0.3405
 8834DDP     C152999   8.385  14.891  13.313  0.1887 -0.0666 -0.3527
 8834DDP     P153000   8.133  14.591  13.055  0.2109 -0.1135 -0.0148
 8834DDP     P253001   8.199  14.897  13.707  0.0761  0.1414  0.0036
 8834DDP     C253002   8.179  14.653  14.037 -0.0493 -0.2891  0.0230
 8834DDP     C353003   7.729  14.603  12.972  0.2123  0.1547  0.2839
 8834DDP     C453004   8.605  15.306  13.213 -0.1741 -0.0407 -0.0450
 8835DDP     C153005  28.327   4.478  17.540 -0.1257 -0.0231  0.2071
 8835DDP     P153006  28.721   4.663  17.673  0.0471 -0.1029  0.0253
 8835DDP     P253007  27.988   4.523  17.758  0.1298 -0.0975 -0.0034
 8835DDP     C253008  27.545   4.327  17.644 -0.3629  0.1179  0.4109
 8835DDP     C353009  28.796   5.081  17.781  0.3565  0.1833 -0.0419
 8835DDP     C453010  28.289   4.407  17.115 -0.2718  0.0091 -0.1703
 8836DDP     C153011   7.965  28.040  10.861 -0.0584  0.2454 -0.1202
 8836DDP     P153012   8.456  27.950  11.014  0.1602 -0.1720  0.1448
 8836DDP     P253013   7.695  27.715  10.968 -0.1273  0.0325  0.4636
 8836DDP     C253014   7.494  27.400  10.723 -0.0651  0.2031  0.3568
 8836DDP     C353015   8.721  27.884  10.609  0.1167 -0.3957  0.0332
 8836DDP     C453016   7.944  28.464  10.773 -0.2408 -0.0980  0.0474
 8837DDP     C153017  18.631  27.704  13.651 -0.2578 -0.1200  0.2119
 8837DDP     P153018  18.878  27.915  13.313  0.0311  0.0722  0.1743
 8837DDP     P253019  18.305  27.563  13.605  0.2085  0.1084 -0.0959
 8837DDP     C253020  18.065  27.208  13.522 -0.1364  0.0704  0.0813
 8837DDP     C353021  18.835  28.207  13.089 -0.0620  0.0470 -0.0988
 8837DDP     C453022  18.714  27.802  14.074  0.1696  0.0730  0.3078
 8838DDP     C153023  13.892   6.113  23.494 -0.1042  0.0321  0.0922
 8838DDP     P153024  14.274   6.076  23.556  0.1786 -0.0112 -0.1178
 8838DDP     P253025  13.823   6.530  23.543 -0.0816 -0.0408  0.0760
 8838DDP     C253026  13.826   6.959  23.793  0.0043 -0.0655 -0.0165
 8838DDP     C353027  14.519   5.831  23.791 -0.1303  0.0260 -0.1350
 8838DDP     C453028  13.563   5.795  23.404  0.2358  0.1475 -0.2293
 8839DDP     C153029  13.148  29.526  10.380 -0.2494 -0.1537 -0.0560
 8839DDP     P153030  12.845  29.438  10.707  0.1459  0.0412  0.0919
 8839DDP     P253031  12.999  29.850  10.150 -0.1247  0.0352 -0.1651
 8839DDP     C253032  12.649  29.989  10.023 -0.1489  0.1401 -0.2064
 8839DDP     C353033  12.956  29.176  11.104  0.1627 -0.2040 -0.0960
 8839DDP     C453034  13.391  29.293  10.161 -0.3254 -0.3012  0.0199
 8840DDP     C153035   9.310  13.044   0.135 -0.0698 -0.2279 -0.0239
 8840DDP     P153036   9.475  12.582   0.135 -0.0462  0.0708  0.0477
 8840DDP     P253037   9.341  13.219   0.475 -0.0487  0.0187 -0.0546
 8840DDP     C253038   9.326  13.634   0.666 -0.1415  0.0341 -0.0165
 8840DDP     C353039   9.827  12.354   0.148  0.1155  0.0967  0.0980
 8840DDP     C453040   8.874  13.042  30.308  0.2370  0.2303  0.1128
 8841DDP     C153041  19.251   2.064   7.779  0.3602 -0.1562  0.0622
 8841DDP     P153042  19.357   1.871   8.203  0.0669 -0.0168 -0.1106
 8841DDP     P253043  19.088   2.540   7.766 -0.1320 -0.0586 -0.1939
 8841DDP     C253044  18.842   2.887   7.758  0.2439 -0.0068  0.1070
 8841DDP     C353045  19.640   1.893   8.458  0.2127  0.1864 -0.0514
 8841DDP     C453046  19.385   1.768   7.423 -0.0238  0.0953 -0.0082
 8842DDP     C153047  27.799   6.790  24.601  0.0452 -0.2508  0.1654
 8842DDP     P153048  28.126   6.822  24.795 -0.3391 -0.1327  0.3886
 8842DDP     P253049  27.904   6.823  24.101 -0.1075 -0.0154 -0.0346
 8842DDP     C253050  28.248   7.153  23.873  0.0810 -0.0662 -0.2685
 8842DDP     C353051  28.555   6.996  24.616  0.2552  0.2318  0.1036
 8842DDP     C453052  27.476   6.552  24.775  0.1662  0.0575  0.2455
 8843DDP     C153053  19.573   9.361   6.490 -0.2514 -0.0958  0.1834
 8843DDP     P153054  19.745   9.013   6.597  0.3253  0.1685  0.2302
 8843DDP     P253055  19.184   9.258   6.181 -0.2296 -0.0178 -0.1431
 8843DDP     C253056  18.926   9.428   5.882 -0.0778  0.0543 -0.1764
 8843DDP     C353057  19.651   8.704   6.905 -0.0545 -0.2397 -0.0932
 8843DDP     C453058  19.852   9.642   6.592  0.3342 -0.1311  0.1007
 8844DDP     C153059  10.573   3.681   8.401  0.2452  0.1277 -0.0687
 8844DDP     P153060  10.463   3.230   8.679 -0.0319 -0.0506 -0.3266
 8844DDP     P253061  10.963   3.732   8.224 -0.1272  0.1288  0.1137
 8844DDP     C253062  11.505   3.813   8.308 -0.3436 -0.0792  0.0130
 8844DDP     C353063  10.719   2.807   8.728  0.3008 -0.0816  0.1572
 8844DDP     C453064  10.339   4.041   8.394 -0.0997  0.4757  0.0868
 8845DDP     C153065  12.434  20.681   4.652  0.0744  0.0802  0.0633
 8845DDP     P153066  12.764  20.567   4.381  0.1756  0.4767  0.3140
 8845DDP     P253067  12.535  20.518   5.142  0.0311 -0.2066  0.1258
 8845DDP     C253068  12.709  20.644   5.482 -0.1158 -0.0223 -0.3572
 8845DDP     C353069  12.688  20.522   3.974 -0.0444 -0.2035  0.0112
 8845DDP     C453070  12.264  21.002   4.295 -0.0233  0.1243 -0.0414
 8846DDP     C153071  28.936  22.879   9.108 -0.1854 -0.0163 -0.2425
 8846DDP     P153072  29.034  23.036   9.502 -0.2363 -0.0683  0.0553
 8846DDP     P253073  28.814  22.421   9.053  0.2176 -0.0119  0.1787
 8846DDP     C253074  28.799  22.049   9.325 -0.1269 -0.2790 -0.1075
 8846DDP     C353075  29.012  23.401   9.907  0.0279 -0.3873 -0.1997
 8846DDP     C453076  29.155  22.943   8.751  0.1352 -0.2638  0.2563
 8847DDP     C153077  29.763  23.997  15.429 -0.3783 -0.1718 -0.0929
 8847DDP     P153078  29.797  23.674  15.080 -0.2161 -0.1272 -0.0185
 8847DDP     P253079  29.733  24.467  15.330 -0.1210 -0.2184 -0.0115
 8847DDP     C253080  29.571  24.753  15.437 -0.1821  0.0624 -0.3496
 8847DDP     C353081  29.942  23.247  15.291  0.1634 -0.3280 -0.2238
 8847DDP     C453082  30.098  24.181  15.783  0.0690  0.3306  0.0903
 8848DDP     C153083  25.213  14.233  16.323  0.3099 -0.1019 -0.1033
 8848DDP     P153084  25.361  13.783  16.238  0.1484 -0.0377  0.0053
 8848DDP     P253085  25.465  14.675  16.511 -0.1079 -0.0138  0.1095
 8848DDP     C253086  25.529  15.103  16.569  0.0399 -0.1707 -0.0122
 8848DDP     C353087  25.237  13.405  16.165 -0.5092  0.0688 -0.1112
 8848DDP     C453088  24.813  14.215  16.409 -0.0694 -0.1010  0.2354
 8849DDP     C153089  11.637  22.589  17.079  0.0253 -0.1997 -0.2104
 8849DDP     P153090  12.005  22.651  16.949 -0.0406 -0.0074 -0.0109
 8849DDP     P253091  11.861  22.558  17.443  0.0091  0.1316  0.0524
 8849DDP     C253092  12.113  22.586  17.774  0.0819 -0.0557 -0.1998
 8849DDP     C353093  12.429  22.845  16.612  0.0601  0.4382  0.0813
 8849DDP     C453094  11.174  22.524  17.020 -0.3349 -0.1899  0.0768
 8850DDP     C153095   9.054   6.657  19.047 -0.0601 -0.1653 -0.1033
 8850DDP     P153096   9.317   6.574  18.627 -0.0810 -0.0275 -0.0389
 8850DDP     P253097   8.743   6.769  18.919  0.1513 -0.2341  0.1513
 8850DDP     C253098   8.275   6.650  19.160  0.3287 -0.1962  0.1328
 8850DDP     C353099   9.768   6.458  18.617  0.0659  0.3474 -0.0223
 8850DDP     C453100   9.161   6.644  19.521  0.0282 -0.0992 -0.1532
 8851DDP     C153101   5.004   6.338  12.360  0.2463 -0.3580 -0.3154
 8851DDP     P153102   5.208   6.168  12.809 -0.3055  0.0137  0.0307
 8851DDP     P253103   4.793   6.715  12.526 -0.2165  0.2209  0.0245
 8851DDP     C253104   4.445   7.020  12.407  0.5238  0.0570  0.0463
 8851DDP     C353105   5.429   6.459  13.074 -0.2224 -0.1875  0.0464
 8851DDP     C453106   4.859   5.946  11.944 -0.0964  0.1845  0.0167
 8852DDP     C153107  17.985  20.008  24.327  0.1670 -0.2739  0.2630
 8852DDP     P153108  18.011  19.542  24.285  0.0699  0.0564 -0.1010
 8852DDP     P253109  17.743  20.161  24.678  0.1762  0.0773  0.1202
 8852DDP     C253110  17.674  20.190  25.124 -0.1886  0.3463 -0.0435
 8852DDP     C353111  17.953  19.220  24.618 -0.0137  0.1574  0.0754
 8852DDP     C453112  17.769  20.311  24.021  0.0397 -0.2603 -0.2175
 8853DDP     C153113  15.883  14.443   4.018  0.1160 -0.1546  0.0452
 8853DDP     P153114  15.574  14.838   3.978 -0.1791 -0.1519 -0.1343
 8853DDP     P253115  15.806  14.228   3.615  0.0985  0.1229 -0.0773
 8853DDP     C253116  15.999  14.102   3.193  0.0651 -0.2297  0.1306
 8853DDP     C353117  15.588  15.216   4.017  0.2218 -0.1346 -0.3408
 8853DDP     C453118  16.266  14.415   4.144  0.1007 -0.1341 -0.4245
 8854DDP     C153119  22.011  24.452  22.399  0.0639 -0.2326  0.0511
 8854DDP     P153120  21.872  24.556  22.020  0.0858 -0.1559  0.0058
 8854DDP     P253121  21.739  24.409  22.711  0.5284  0.0396 -0.4510
 8854DDP     C253122  21.379  24.229  22.870 -0.0799  0.1385 -0.0259
 8854DDP     C353123  22.054  24.515  21.615 -0.1593 -0.2693 -0.0033
 8854DDP     C453124  22.414  24.228  22.363 -0.2034  0.0718 -0.1483
 8855DDP     C153125   6.275  24.874   7.792  0.1344  0.0564  0.0392
 8855DDP     P153126   6.545  24.784   8.177  0.0036 -0.1592  0.1380
 8855DDP     P253127   6.461  25.165   7.491  0.0061  0.0231 -0.0479
 8855DDP     C253128   6.604  25.559   7.263 -0.1770  0.0563 -0.0047
 8855DDP     C353129   6.944  24.531   8.234 -0.1520  0.0828  0.1940
 8855DDP     C453130   6.027  24.590   7.529  0.1302 -0.2441  0.0443
 8856DDP     C153131   2.047  12.009   7.443  0.1128  0.1903  0.1892
 8856DDP     P153132   2.335  12.078   7.688 -0.3138 -0.1252  0.0251
 8856DDP     P253133   1.933  11.591   7.529  0.0451 -0.0574 -0.1517
 8856DDP     C253134   1.930  11.385   7.901  0.0621  0.2383 -0.0433
 8856DDP     C353135   2.723  11.926   7.783 -0.0721 -0.0358  0.1457
 8856DDP     C453136   2.024  12.273   7.042  0.1676 -0.0779 -0.1567
 8857DDP     C153137  15.909   1.378   2.187  0.1713  0.0870 -0.1215
 8857DDP     P153138  16.097   1.603   2.539 -0.2478  0.1775 -0.1208
 8857DDP     P253139  15.619   0.993   2.387  0.1185 -0.2893 -0.3231
 8857DDP     C253140  15.374   0.661   2.566 -0.0218 -0.1640  0.1051
 8857DDP     C353141  16.419   1.633   2.900 -0.1251 -0.2711 -0.0461
 8857DDP     C453142  15.771   1.530   1.662 -0.0697  0.1435  0.0343
 8858DDP     C153143   0.471   6.799  22.938 -0.1677 -0.0446 -0.0222
 8858DDP     P153144   0.361   7.319  22.856 -0.1602 -0.0012  0.0392
 8858DDP     P253145   0.553   6.604  23.418 -0.1673 -0.2010  0.0830
 8858DDP     C253146   0.454   6.139  23.564 -0.0323  0.1781 -0.0712
 8858DDP     C353147   0.333   7.666  22.486 -0.0647  0.0786 -0.1623
 8858DDP     C453148   0.839   6.720  22.607 -0.0219  0.0708 -0.0061
 8859DDP     C153149  27.676   8.849  26.227 -0.1025 -0.0260  0.3373
 8859DDP     P153150  27.667   8.843  25.811 -0.0066 -0.1272 -0.0553
 8859DDP     P253151  27.861   9.049  26.457  0.0079 -0.2279  0.0199
 8859DDP     C253152  28.119   9.437  26.450 -0.0267  0.2151  0.0389
 8859DDP     C353153  27.814   8.634  25.370  0.2025 -0.1418 -0.0481
 8859DDP     C453154  27.758   8.541  26.645  0.2345 -0.0918  0.0814
 8860DDP     C153155  28.293  24.487   3.568 -0.1872 -0.3886  0.1068
 8860DDP     P153156  28.293  24.600   3.949  0.2033  0.3514  0.0765
 8860DDP     P253157  27.934  24.556   3.353 -0.2604 -0.3665 -0.0066
 8860DDP     C253158  27.554  24.493   3.438  0.3295 -0.0612 -0.0092
 8860DDP     C353159  28.209  24.787   4.306  0.0416 -0.2141 -0.2424
 8860DDP     C453160  28.699  24.362   3.340 -0.3154  0.0646 -0.0103
 8861DDP     C153161  24.931  28.027  16.136 -0.2026  0.0515 -0.0496
 8861DDP     P153162  25.328  27.927  16.297 -0.0083 -0.1482  0.0082
 8861DDP     P253163  24.827  28.526  16.145 -0.3691 -0.2364  0.0480
 8861DDP     C253164  24.819  28.776  16.423  0.0571  0.0328 -0.0853
 8861DDP     C353165  25.729  27.896  16.378  0.1453 -0.1915  0.0200
 8861DDP     C453166  24.865  27.778  15.747  0.0968  0.2994  0.1489
 8862DDP     C153167  16.136   0.636  27.160  0.1451  0.2743  0.0610
 8862DDP     P153168  16.376   0.484  27.554  0.2048  0.0270 -0.1090
 8862DDP     P253169  16.071   1.044  27.289  0.0029  0.2512  0.3306
 8862DDP     C253170  16.369   1.438  27.288 -0.1465 -0.2382 -0.0730
 8862DDP     C353171  16.524   0.637  27.920  0.2218  0.0078  0.0603
 8862DDP     C453172  16.048   0.249  26.874 -0.2293 -0.1241 -0.2967
 8863DDP     C153173  20.267  26.475  27.025 -0.1163  0.1323 -0.0229
 8863DDP     P153174  19.914  26.429  26.721  0.1118  0.3630  0.0693
 8863DDP     P253175  20.586  26.916  27.305 -0.1569 -0.3799  0.1321
 8863DDP     C253176  20.813  27.247  27.627 -0.1116 -0.2015 -0.0471
 8863DDP     C353177  19.987  26.332  26.212 -0.4226  0.1336  0.1074
 8863DDP     C453178  20.418  26.165  27.075  0.0071  0.0710  0.2557
 8864DDP     C153179   6.384   4.996   2.941  0.1993  0.3049 -0.0903
 8864DDP     P153180   6.110   5.011   2.686  0.2101 -0.0500  0.2093
 8864DDP     P253181   6.778   4.993   2.807 -0.3439  0.2135  0.0338
 8864DDP     C253182   7.145   4.889   2.969  0.1206  0.0175  0.0695
 8864DDP     C353183   6.024   5.060   2.269 -0.2790  0.1316  0.2617
 8864DDP     C453184   6.445   5.138   3.359  0.1254 -0.0284  0.1721
 8865DDP     C153185  14.587  13.923  15.365 -0.2931 -0.3563 -0.0995
 8865DDP     P153186  14.339  14.163  15.577  0.1757  0.0259  0.2467
 8865DDP     P253187  14.922  14.264  15.190 -0.1997 -0.2392  0.0475
 8865DDP     C253188  15.109  14.380  14.831  0.0746  0.0637 -0.0013
 8865DDP     C353189  13.897  14.081  15.764  0.3298  0.1903 -0.0040
 8865DDP     C453190  14.590  13.474  15.449  0.0859 -0.1069  0.1050
 8866DDP     C153191  18.588  13.752   2.387 -0.3628 -0.1084 -0.0342
 8866DDP     P153192  18.545  13.427   2.141 -0.1477 -0.0502 -0.1183
 8866DDP     P253193  18.747  13.694   2.756  0.4365  0.1602 -0.0889
 8866DDP     C253194  18.551  13.761   3.183  0.0821  0.0375  0.1904
 8866DDP     C353195  18.259  13.137   1.955 -0.3067 -0.2271 -0.1720
 8866DDP     C453196  18.404  14.149   2.267  0.1003 -0.1444 -0.0398
 8867DDP     C153197  23.520  20.173  19.196 -0.0196 -0.2482 -0.2203
 8867DDP     P153198  23.330  20.359  19.559 -0.1527  0.0662 -0.4162
 8867DDP     P253199  24.033  20.294  19.079 -0.0992 -0.2258  0.1086
 8867DDP     C253200  24.487  20.219  18.886 -0.3190  0.2538  0.1246
 8867DDP     C353201  23.426  20.422  19.987  0.1655 -0.1122  0.2100
 8867DDP     C453202  23.299  19.810  19.053 -0.1717  0.1457 -0.0116
 8868DDP     C153203  23.655  16.211  20.632 -0.1892  0.0654 -0.1246
 8868DDP     P153204  23.663  15.773  20.519 -0.0151 -0.1220 -0.1080
 8868DDP     P253205  23.920  16.421  21.010 -0.0785 -0.0867  0.0814
 8868DDP     C253206  23.745  16.723  21.246 -0.5611 -0.0366  0.6563
 8868DDP     C353207  23.575  15.408  20.209  0.0880  0.0835  0.1128
 8868DDP     C453208  23.542  16.555  20.343 -0.0889  0.1029  0.1058
 8869DDP     C153209  20.917  28.880  27.863  0.0200 -0.1404  0.2660
 8869DDP     P153210  21.016  28.488  27.825  0.1173  0.1597  0.0484
 8869DDP     P253211  20.585  28.948  28.093 -0.1892  0.2457 -0.0935
 8869DDP     C253212  20.238  28.708  28.061  0.0659  0.2299 -0.0969
 8869DDP     C353213  20.998  28.051  27.847  0.3211 -0.2359 -0.0030
 8869DDP     C453214  21.021  29.214  27.637 -0.0729 -0.1038 -0.2103
 8870DDP     C153215  20.751  10.800   3.753 -0.0538  0.0766  0.5602
 8870DDP     P153216  20.581  10.692   3.314  0.2717  0.1062  0.1090
 8870DDP     P253217  20.556  10.926   4.070  0.0406 -0.2948  0.0742
 8870DDP     C253218  20.683  10.938   4.502  0.0990  0.0894  0.0116
 8870DDP     C353219  20.319  10.699   3.131  0.0975  0.1298 -0.0069
 8870DDP     C453220  21.162  10.684   3.830  0.1387 -0.0517  0.1685
 8871DDP     C153221  23.361  13.927   5.263  0.1505  0.0667  0.0326
 8871DDP     P153222  23.373  13.701   4.881  0.3598 -0.0280  0.0778
 8871DDP     P253223  23.356  13.648   5.630  0.1473 -0.3058  0.1155
 8871DDP     C253224  23.223  13.237   5.741  0.3158  0.3763 -0.1277
 8871DDP     C353225  22.996  13.533   4.693  0.1859  0.0514  0.0481
 8871DDP     C453226  23.158  14.285   5.358  0.1865 -0.1822  0.2316
 8872DDP     C153227   7.621   8.962   4.789 -0.0690 -0.1731 -0.1944
 8872DDP     P153228   7.375   8.567   4.758 -0.1836 -0.2198  0.2599
 8872DDP     P253229   7.813   9.255   4.510  0.0388 -0.2023 -0.1557
 8872DDP     C253230   7.671   9.528   4.298 -0.3588  0.1757 -0.2198
 8872DDP     C353231   7.046   8.346   4.867 -0.1098  0.2998  0.3766
 8872DDP     C453232   7.768   9.144   5.158  0.0482  0.1074 -0.2333
 8873DDP     C153233  16.216  26.704   9.733  0.0492 -0.0233 -0.1537
 8873DDP     P153234  16.508  27.003   9.752  0.0460  0.1805 -0.2048
 8873DDP     P253235  16.334  26.347   9.941 -0.4246 -0.0257  0.1790
 8873DDP     C253236  16.711  26.193   9.836  0.2424  0.2187  0.0270
 8873DDP     C353237  16.808  27.249   9.866 -0.0339 -0.2679  0.0376
 8873DDP     C453238  15.807  26.671   9.658 -0.0404  0.0113 -0.0845
 8874DDP     C153239   4.233  15.850  23.825  0.0789 -0.0027 -0.3034
 8874DDP     P153240   4.447  16.189  23.553 -0.0553  0.1369  0.2918
 8874DDP     P253241   4.314  15.453  23.637  0.0363 -0.0929  0.1058
 8874DDP     C253242   4.421  15.172  23.466  0.0681 -0.2407 -0.3046
 8874DDP     C353243   4.513  16.372  23.124 -0.1128  0.2994 -0.0975
 8874DDP     C453244   3.875  15.971  24.130 -0.0442 -0.1052  0.1836
 8875DDP     C153245   2.046  29.527   5.602 -0.0187 -0.2364 -0.0248
 8875DDP     P153246   1.742  29.443   5.920  0.0870 -0.2941  0.3245
 8875DDP     P253247   2.068  29.258   5.403  0.0801  0.1384 -0.0873
 8875DDP     C253248   2.025  29.159   4.972 -0.0551 -0.1771  0.0925
 8875DDP     C353249   1.410  29.434   6.259  0.0017  0.3582 -0.3051
 8875DDP     C453250   2.538  29.627   5.648  0.1356  0.0758  0.2517
 8876DDP     C153251  27.557   9.267   4.447 -0.1875 -0.1523 -0.2017
 8876DDP     P153252  27.186   8.959   4.481 -0.0657 -0.2971  0.2681
 8876DDP     P253253  27.675   9.409   4.014 -0.0318  0.0204 -0.1469
 8876DDP     C253254  27.668   9.661   3.680 -0.0046 -0.1811 -0.0395
 8876DDP     C353255  27.221   8.570   4.502  0.2146  0.0986 -0.0311
 8876DDP     C453256  27.663   9.338   4.893 -0.4275 -0.0083 -0.0387
 8877DDP     C153257  22.804  14.207   5.706 -0.0064  0.2594 -0.2982
 8877DDP     P153258  22.503  14.264   5.366  0.0743 -0.0576 -0.0743
 8877DDP     P253259  22.910  13.831   5.479  0.1858 -0.2541 -0.0908
 8877DDP     C253260  22.992  13.415   5.273 -0.1809  0.3545 -0.0752
 8877DDP     C353261  22.341  14.596   5.116 -0.0207  0.4368  0.0066
 8877DDP     C453262  23.004  14.342   6.115  0.0314  0.1814 -0.0831
 8878DDP     C153263  12.684  13.121   5.170 -0.0625 -0.1739  0.1768
 8878DDP     P153264  12.605  12.797   5.408  0.5997  0.1761 -0.0852
 8878DDP     P253265  12.281  13.270   4.873 -0.0986 -0.1082 -0.0749
 8878DDP     C253266  12.324  13.395   4.371 -0.1292 -0.0953 -0.0767
 8878DDP     C353267  12.707  12.382   5.581  0.1120 -0.0567 -0.0101
 8878DDP     C453268  13.221  13.156   5.117  0.0452  0.0283 -0.0939
 8879DDP     C153269  24.889   4.011   7.216  0.0358 -0.1122  0.1258
 8879DDP     P153270  24.961   4.195   6.792  0.2034  0.0467  0.0303
 8879DDP     P253271  24.526   3.840   7.291  0.1213  0.1887  0.0740
 8879DDP     C253272  24.272   3.467   7.438 -0.1243 -0.0568  0.4666
 8879DDP     C353273  25.233   4.572   6.821 -0.0264 -0.1054 -0.1286
 8879DDP     C453274  25.213   3.773   7.439 -0.2371 -0.1262  0.0198
 8880DDP     C153275  27.277  13.514   1.749  0.2365  0.2053 -0.1186
 8880DDP     P153276  27.063  13.770   1.425 -0.0061  0.2677 -0.0734
 8880DDP     P253277  27.595  13.608   2.018  0.0200 -0.3743  0.1761
 8880DDP     C253278  27.691  13.807   2.476  0.1145  0.0850  0.1688
 8880DDP     C353279  26.828  14.120   1.095  0.0061 -0.1758  0.0269
 8880DDP     C453280  27.031  13.159   1.707 -0.0324 -0.1301 -0.1063
 8881DDP     C153281  17.195   7.388  28.760  0.0780 -0.1128 -0.1027
 8881DDP     P153282  17.083   7.129  29.058  0.1464 -0.1385 -0.5238
 8881DDP     P253283  17.032   7.338  28.379  0.0556  0.2996  0.0578
 8881DDP     C253284  17.064   7.336  27.953 -0.0262 -0.1152 -0.1818
 8881DDP     C353285  16.982   6.885  29.386  0.0554  0.3618  0.0565
 8881DDP     C453286  17.514   7.685  28.758  0.2764  0.1800 -0.2282
 8882DDP     C153287  28.187  17.178  22.199 -0.2038 -0.2608 -0.0470
 8882DDP     P153288  28.601  17.363  22.349  0.0268 -0.0138  0.0435
 8882DDP     P253289  28.205  17.118  21.683 -0.2903  0.1637 -0.3008
 8882DDP     C253290  28.056  16.920  21.336  0.3897 -0.3816  0.0122
 8882DDP     C353291  28.922  17.686  22.517  0.1337  0.1503 -0.1089
 8882DDP     C453292  27.721  17.358  22.308  0.2901  0.0885 -0.2862
 8883DDP     C153293   0.149  24.200  11.963  0.3666 -0.2053  0.1605
 8883DDP     P153294   0.192  23.876  12.272  0.0340  0.0306 -0.0147
 8883DDP     P253295   0.409  24.287  11.585 -0.2136  0.2682  0.0257
 8883DDP     C253296   0.407  24.331  11.235  0.1179  0.2384  0.0300
 8883DDP     C353297   0.265  23.451  12.325  0.3673  0.1890 -0.0986
 8883DDP     C453298  30.163  24.427  12.063  0.2738 -0.3169 -0.1154
 8884DDP     C153299  26.245  16.639  12.280 -0.1910 -0.0691  0.2063
 8884DDP     P153300  26.558  16.380  12.103  0.2902 -0.4736  0.0491
 8884DDP     P253301  25.896  16.949  12.057 -0.3488  0.2555  0.0416
 8884DDP     C253302  25.694  17.294  11.816 -0.1519  0.0663 -0.1988
 8884DDP     C353303  26.710  15.990  12.192  0.1334 -0.0666 -0.1418
 8884DDP     C453304  26.209  16.735  12.766  0.0518  0.1597  0.2346
 8885DDP     C153305  21.744  26.017  13.892  0.0388 -0.0636 -0.2370
 8885DDP     P153306  21.668  25.970  13.472 -0.0321 -0.2723  0.0332
 8885DDP     P253307  21.764  26.369  14.158  0.1509 -0.3302  0.1624
 8885DDP     C253308  21.533  26.492  14.558 -0.1490  0.0722 -0.0041
 8885DDP     C353309  21.408  25.850  13.140  0.1177 -0.1093 -0.2125
 8885DDP     C453310  21.621  25.629  14.169  0.0197  0.1264  0.0109
 8886DDP     C153311   3.239  21.341  11.413  0.0272  0.0681 -0.1358
 8886DDP     P153312   3.732  21.452  11.554  0.2563  0.0852 -0.0248
 8886DDP     P253313   2.951  21.452  11.058 -0.2097 -0.1799  0.0247
 8886DDP     C253314   2.898  21.458  10.603 -0.3606 -0.5124  0.0539
 8886DDP     C353315   4.037  21.453  11.870 -0.0555 -0.2513  0.3670
 8886DDP     C453316   3.050  21.088  11.754  0.1522 -0.1249  0.3306
 8887DDP     C153317   9.424  28.329   3.644  0.0069  0.2159  0.1260
 8887DDP     P153318   9.077  28.522   3.773 -0.1163  0.2939  0.3121
 8887DDP     P253319   9.298  27.903   3.721 -0.0304  0.3812 -0.3164
 8887DDP     C253320   9.195  27.510   3.564  0.4914  0.5058  0.0798
 8887DDP     C353321   8.917  28.891   4.062  0.3852  0.4304 -0.1352
 8887DDP     C453322   9.861  28.436   3.347 -0.2313 -0.3719  0.1449
 8888DDP     C153323   8.852  11.012  27.139  0.2754  0.2920  0.2486
 8888DDP     P153324   8.880  11.356  26.732  0.2109 -0.1946  0.4131
 8888DDP     P253325   8.620  10.658  27.080 -0.0691 -0.2751  0.1085
 8888DDP     C253326   8.485  10.293  27.259  0.1325 -0.0696 -0.0895
 8888DDP     C353327   9.135  11.616  26.474 -0.2122  0.1630 -0.2856
 8888DDP     C453328   9.172  11.173  27.570 -0.0007  0.2390 -0.3350
 8889DDP     C153329  15.818  11.551  23.403  0.2240 -0.0372 -0.0163
 8889DDP     P153330  15.764  11.767  23.035  0.0456 -0.0038 -0.2155
 8889DDP     P253331  15.385  11.609  23.536  0.0539 -0.0676  0.0084
 8889DDP     C253332  15.139  11.865  23.814  0.0963  0.0493  0.5175
 8889DDP     C353333  15.826  12.159  22.882  0.2391 -0.0411 -0.0676
 8889DDP     C453334  15.973  11.464  23.855 -0.3214  0.1711  0.2341
 8890DDP     C153335  14.626  26.493  18.356 -0.1313 -0.0147 -0.1069
 8890DDP     P153336  14.570  26.459  18.860  0.2372  0.1706  0.0609
 8890DDP     P253337  14.238  26.554  18.059 -0.0326 -0.1277  0.0285
 8890DDP     C253338  14.083  26.439  17.724 -0.0329 -0.0301  0.0901
 8890DDP     C353339  14.352  26.568  19.021  0.3083  0.0413 -0.0832
 8890DDP     C453340  14.910  26.156  18.210 -0.4499 -0.2907 -0.2503
 8891DDP     C153341  28.574  21.636  17.692  0.0297  0.1416 -0.3278
 8891DDP     P153342  28.271  21.349  17.718 -0.2005  0.1659 -0.0155
 8891DDP     P253343  28.672  22.153  17.579  0.0954  0.0192  0.1638
 8891DDP     C253344  28.467  22.589  17.519 -0.3575  0.1252 -0.3968
 8891DDP     C353345  27.896  21.072  17.814  0.0725 -0.2580 -0.1292
 8891DDP     C453346  28.964  21.545  17.709 -0.2805 -0.0213 -0.2618
 8892DDP     C153347  16.116   5.303   8.308 -0.0535 -0.3132 -0.0155
 8892DDP     P153348  16.618   5.339   8.201  0.2274 -0.3901  0.1806
 8892DDP     P253349  16.090   5.349   8.717  0.1872 -0.2162 -0.1451
 8892DDP     C253350  15.777   5.635   8.953  0.0267  0.2926  0.0964
 8892DDP     C353351  16.918   5.125   8.317  0.0644 -0.2288  0.0223
 8892DDP     C453352  15.699   5.377   8.074  0.2208  0.0107  0.2542
 8893DDP     C153353  11.624  15.163   6.378 -0.4048 -0.1474  0.0025
 8893DDP     P153354  11.692  14.796   6.644  0.0931 -0.6097 -0.0034
 8893DDP     P253355  11.701  15.567   6.516 -0.0752 -0.0161 -0.2071
 8893DDP     C253356  11.773  15.941   6.527  0.0422 -0.4591 -0.2780
 8893DDP     C353357  11.369  14.489   6.621  0.0724  0.0459  0.0252
 8893DDP     C453358  11.493  15.066   6.001  0.1511  0.1443 -0.0857
 8894DDP     C153359   0.395   3.694   9.337  0.0730  0.0727  0.1292
 8894DDP     P153360   0.107   4.017   9.395 -0.2475  0.1801  0.2923
 8894DDP     P253361   0.476   3.523   8.996 -0.1557 -0.2973 -0.2103
 8894DDP     C253362   0.672   3.583   8.570 -0.0903 -0.0433 -0.1790
 8894DDP     C353363  30.112   4.116   9.657 -0.0537  0.0973 -0.0181
 8894DDP     C453364   0.590   3.507   9.651 -0.1588  0.0487  0.1173
 8895DDP     C153365   8.511   2.960  10.194 -0.0904  0.0718 -0.1001
 8895DDP     P153366   8.190   2.900  10.552  0.1889  0.1652 -0.2479
 8895DDP     P253367   8.855   3.054  10.453 -0.1314 -0.0068 -0.2141
 8895DDP     C253368   9.073   3.393  10.759 -0.0610  0.0967  0.0267
 8895DDP     C353369   7.867   2.734  10.953  0.0549 -0.1261 -0.1897
 8895DDP     C453370   8.637   2.739   9.836  0.2226  0.0852 -0.1331
 8896DDP     C153371  27.158  20.888   8.588  0.3413 -0.0240 -0.3418
 8896DDP     P153372  26.701  20.822   8.795  0.1649  0.0783 -0.1631
 8896DDP     P253373  27.462  21.033   8.453 -0.1448 -0.1890  0.1118
 8896DDP     C253374  27.781  21.255   8.390  0.1031  0.0841 -0.0513
 8896DDP     C353375  26.457  20.621   9.177 -0.1442 -0.0100 -0.0483
 8896DDP     C453376  27.378  20.560   8.671 -0.1544  0.3254  0.1992
 8897DDP     C153377  11.288  14.036  21.269  0.2344 -0.3528  0.1299
 8897DDP     P153378  11.485  13.682  21.410 -0.0470  0.1523 -0.0797
 8897DDP     P253379  11.182  13.985  20.824  0.1275 -0.3653 -0.2926
 8897DDP     C253380  11.365  14.274  20.514  0.0218  0.1263  0.1081
 8897DDP     C353381  11.772  13.548  21.501 -0.3313  0.1348  0.0407
 8897DDP     C453382  11.297  14.358  21.458  0.2148  0.0553  0.0841
 8898DDP     C153383  17.981  18.118  19.087 -0.0371 -0.1086 -0.3270
 8898DDP     P153384  17.775  17.692  19.192 -0.0848  0.2768 -0.1690
 8898DDP     P253385  18.229  17.938  18.858  0.2605 -0.0239  0.3517
 8898DDP     C253386  18.564  17.969  18.602 -0.1622 -0.0616  0.0650
 8898DDP     C353387  17.729  17.190  19.018 -0.1023  0.0433  0.1302
 8898DDP     C453388  17.980  18.615  19.313  0.0123 -0.0799 -0.2879
 8899DDP     C153389  28.341  24.768  18.477  0.1692  0.2029 -0.1611
 8899DDP     P153390  28.034  24.957  18.737  0.0629 -0.1787 -0.0596
 8899DDP     P253391  28.792  24.826  18.551 -0.1439 -0.1034 -0.0497
 8899DDP     C253392  29.157  24.944  18.807 -0.0957  0.1500 -0.0249
 8899DDP     C353393  27.685  25.058  19.044  0.0946  0.3460  0.1218
 8899DDP     C453394  28.167  24.744  17.972  0.2252  0.2430  0.1045
 8900DDP     C153395   7.911  25.819  20.232  0.0740  0.2699 -0.0680
 8900DDP     P153396   8.219  25.678  20.469  0.0927  0.1028 -0.2032
 8900DDP     P253397   7.719  26.030  20.522 -0.0587  0.0203  0.1968
 8900DDP     C253398   7.521  26.330  20.344 -0.0562 -0.0383  0.0185
 8900DDP     C353399   8.343  25.385  20.724 -0.2421 -0.1292  0.3414
 8900DDP     C453400   7.814  25.601  19.793 -0.2393  0.0802 -0.3674
 8901DDP     C153401  26.746  14.581   9.745  0.0474 -0.1891  0.4826
 8901DDP     P153402  26.509  14.956   9.912 -0.2181  0.2206  0.2576
 8901DDP     P253403  26.958  14.295   9.888  0.0043  0.0921  0.3222
 8901DDP     C253404  27.293  14.218  10.105 -0.4213 -0.2009  0.2948
 8901DDP     C353405  26.173  14.759   9.727 -0.3251 -0.1160 -0.3105
 8901DDP     C453406  26.489  14.556   9.338  0.1453 -0.0126  0.2282
 8902DDP     C153407   9.731  12.193   2.505 -0.1725  0.3003 -0.0059
 8902DDP     P153408  10.264  12.221   2.590  0.1164  0.0054 -0.2248
 8902DDP     P253409   9.363  12.147   2.189 -0.1166 -0.1420  0.0469
 8902DDP     C253410   9.089  11.877   2.007 -0.1159 -0.1891 -0.2003
 8902DDP     C353411  10.652  12.123   2.370 -0.0596  0.2304 -0.0980
 8902DDP     C453412   9.611  11.884   2.749 -0.1147 -0.1060 -0.1032
 8903DDP     C153413   7.594  16.695  15.275  0.0239 -0.1232  0.1242
 8903DDP     P153414   7.731  16.420  14.970 -0.1674  0.0109 -0.2098
 8903DDP     P253415   7.678  16.729  15.801 -0.2737 -0.0547  0.0721
 8903DDP     C253416   7.788  16.633  16.257  0.0666 -0.1520  0.0591
 8903DDP     C353417   7.733  15.904  15.160  0.4392  0.1073  0.1256
 8903DDP     C453418   7.204  16.879  15.167  0.1342 -0.0629  0.1879
 8904DDP     C153419  20.779   6.410  16.017  0.0666  0.1365  0.0118
 8904DDP     P153420  21.083   6.237  15.989 -0.3717  0.0785 -0.2490
 8904DDP     P253421  20.694   6.726  16.262 -0.2324  0.2201 -0.1683
 8904DDP     C253422  20.911   6.882  16.568 -0.0738  0.0554  0.1793
 8904DDP     C353423  21.509   5.936  15.884  0.1692  0.2677 -0.1500
 8904DDP     C453424  20.291   6.369  16.024 -0.2186 -0.0290  0.1532
 8905DDP     C153425  14.471   8.734  23.221 -0.2433 -0.3199 -0.1864
 8905DDP     P153426  14.583   9.107  23.532 -0.2274 -0.0577 -0.4905
 8905DDP     P253427  14.761   8.325  23.154 -0.0806 -0.2095 -0.0918
 8905DDP     C253428  15.039   8.222  22.793  0.2596 -0.0109 -0.0324
 8905DDP     C353429  14.609   9.550  23.607  0.3757  0.3033  0.2943
 8905DDP     C453430  14.174   8.741  22.913  0.1349 -0.0938 -0.0321
 8906DDP     C153431  27.084  21.683   8.826  0.0936 -0.0451  0.0810
 8906DDP     P153432  27.305  21.571   9.212  0.1232 -0.0917 -0.1391
 8906DDP     P253433  27.134  21.926   8.462 -0.1159 -0.0491 -0.2520
 8906DDP     C253434  27.109  22.435   8.484  0.0358 -0.0778 -0.2195
 8906DDP     C353435  27.053  21.321   9.459 -0.1713  0.0957  0.0518
 8906DDP     C453436  26.899  21.273   8.946 -0.1791 -0.0100 -0.1220
 8907DDP     C153437  18.639   9.847  27.671 -0.1188  0.3523 -0.0763
 8907DDP     P153438  18.785   9.914  27.202  0.1576  0.0347 -0.1746
 8907DDP     P253439  18.550   9.446  28.005  0.0133  0.0452 -0.2272
 8907DDP     C253440  18.647   9.116  28.321  0.0478  0.2747 -0.3579
 8907DDP     C353441  19.040   9.977  26.799 -0.2218  0.0043 -0.1980
 8907DDP     C453442  18.319  10.106  27.847 -0.0164  0.1089  0.0861
 8908DDP     C153443   8.183  10.228  25.602  0.2151 -0.2939 -0.0317
 8908DDP     P153444   8.305  10.550  25.352 -0.0158 -0.0523 -0.1173
 8908DDP     P253445   7.817   9.988  25.526 -0.1480 -0.1318  0.1052
 8908DDP     C253446   7.593   9.654  25.689 -0.1241 -0.0034 -0.2210
 8908DDP     C353447   8.347  10.579  24.969  0.1534 -0.2809  0.1693
 8908DDP     C453448   8.513   9.982  25.885 -0.3164 -0.0019  0.2039
 8909DDP     C153449  28.710  19.142   7.243 -0.1327  0.0366 -0.1878
 8909DDP     P153450  29.166  19.230   7.114  0.1454  0.0893 -0.1709
 8909DDP     P253451  28.481  19.032   6.935  0.0378 -0.1239  0.0186
 8909DDP     C253452  28.227  18.757   6.962 -0.2967 -0.1791  0.1167
 8909DDP     C353453  29.473  19.308   6.723  0.0875 -0.0143  0.0044
 8909DDP     C453454  28.506  19.245   7.610 -0.1574 -0.1838  0.1023
 8910DDP     C153455  27.002   4.353  24.600  0.1883  0.0038 -0.1856
 8910DDP     P153456  26.631   4.012  24.643 -0.0099  0.4203  0.0306
 8910DDP     P253457  27.014   4.686  24.886 -0.0207  0.0164 -0.1943
 8910DDP     C253458  26.941   4.930  25.345  0.2307 -0.0025  0.3528
 8910DDP     C353459  26.547   3.679  24.938  0.0592  0.0119  0.0639
 8910DDP     C453460  27.262   4.163  24.278 -0.1465 -0.1224 -0.3238
 8911DDP     C153461  23.748  29.000  24.529 -0.0218  0.0906  0.1622
 8911DDP     P153462  23.545  28.823  24.816 -0.4374 -0.1669  0.0506
 8911DDP     P253463  24.188  29.240  24.498  0.3104  0.0366 -0.0550
 8911DDP     C253464  24.618  29.333  24.188 -0.1061  0.2039 -0.1132
 8911DDP     C353465  23.434  28.527  25.067 -0.2135  0.0778  0.2531
 8911DDP     C453466  23.481  29.204  24.254 -0.0352  0.4399 -0.3324
 8912DDP     C153467  14.890  20.482  11.263  0.2367  0.1670 -0.0454
 8912DDP     P153468  14.789  20.424  10.868 -0.0004 -0.0209  0.0220
 8912DDP     P253469  15.318  20.444  11.471 -0.1584 -0.2695 -0.1297
 8912DDP     C253470  15.662  20.492  11.701  0.1917  0.0218 -0.0366
 8912DDP     C353471  14.562  20.362  10.525  0.0935 -0.4019 -0.0248
 8912DDP     C453472  14.459  20.695  11.546 -0.1284  0.3480 -0.0095
 8913DDP     C153473  14.714   5.397  29.270 -0.1272 -0.1836 -0.0334
 8913DDP     P153474  15.023   5.528  29.087  0.2507 -0.2505  0.1017
 8913DDP     P253475  14.483   5.601  29.041 -0.2539 -0.1771 -0.0462
 8913DDP     C253476  14.025   5.539  28.962 -0.0428 -0.1525 -0.0626
 8913DDP     C353477  15.509   5.637  29.136  0.0300 -0.0771  0.2706
 8913DDP     C453478  14.697   5.007  29.274 -0.0079  0.0873 -0.2799
 8914DDP     C153479   0.322   7.867   2.614 -0.3387 -0.1644 -0.0008
 8914DDP     P153480  30.236   7.793   2.632 -0.1939  0.3909  0.0190
 8914DDP     P253481   0.529   7.760   2.208 -0.2026  0.1815 -0.1436
 8914DDP     C253482   0.700   7.495   1.869  0.1361  0.0314  0.0462
 8914DDP     C353483  29.777   7.880   2.519  0.1560  0.1717 -0.0895
 8914DDP     C453484   0.553   7.946   3.016  0.2354  0.0671 -0.0080
 8915DDP     C153485  16.729  10.455   0.828 -0.0273 -0.0096 -0.3195
 8915DDP     P153486  16.605  10.674   0.989 -0.2645 -0.1026 -0.5569
 8915DDP     P253487  16.900  10.650   0.549 -0.5030 -0.0414  0.1681
 8915DDP     C253488  16.901  10.497   0.178  0.2566  0.3079 -0.1250
 8915DDP     C353489  16.524  10.767   1.520  0.0765  0.1191 -0.1327
 8915DDP     C453490  16.897  10.094   0.957  0.0679 -0.0445 -0.0426
 8916DDP     C153491   5.813   4.425   4.878  0.0244  0.3067 -0.1282
 8916DDP     P153492   5.989   4.781   4.745 -0.0017 -0.2229  0.0056
 8916DDP     P253493   5.528   4.369   4.561  0.0744  0.1121 -0.0496
 8916DDP     C253494   5.176   4.252   4.453  0.1999 -0.2694  0.3295
 8916DDP     C353495   6.318   4.880   4.510  0.2176  0.1117 -0.0649
 8916DDP     C453496   5.972   4.162   5.181 -0.1120 -0.1151 -0.2533
 8917DDP     C153497  12.107  27.314  17.192 -0.0776  0.0270  0.2582
 8917DDP     P153498  12.170  26.955  17.044  0.0240 -0.0209  0.0854
 8917DDP     P253499  11.734  27.285  17.556 -0.1643 -0.0554  0.1734
 8917DDP     C253500  11.311  27.236  17.415 -0.1487 -0.1537  0.0111
 8917DDP     C353501  12.297  26.518  16.927 -0.1523 -0.1320  0.0324
 8917DDP     C453502  12.180  27.760  17.019 -0.5608  0.0765 -0.1966
 8918DDP     C153503  17.856  21.106   1.285  0.0909  0.1065  0.3098
 8918DDP     P153504  17.400  21.339   1.381  0.0957  0.0883 -0.1587
 8918DDP     P253505  17.709  20.927   0.857  0.1038 -0.0725 -0.0347
 8918DDP     C253506  17.519  20.807   0.461 -0.1365 -0.0625  0.0105
 8918DDP     C353507  17.140  21.517   1.734 -0.0396  0.0039  0.4459
 8918DDP     C453508  18.045  20.715   1.500  0.1548  0.1338  0.0187
 8919DDP     C153509  24.547  20.352   7.484  0.0746 -0.1964  0.2440
 8919DDP     P153510  24.319  20.464   7.889  0.1316  0.1173 -0.0445
 8919DDP     P253511  24.707  20.637   7.433  0.1481 -0.0753 -0.0111
 8919DDP     C253512  24.649  21.111   7.373 -0.1800  0.1540 -0.0406
 8919DDP     C353513  24.242  20.699   8.166 -0.1051 -0.4161  0.0771
 8919DDP     C453514  24.351  20.144   7.075 -0.2636 -0.2372  0.2089
 8920DDP     C153515  21.503  17.379   5.653 -0.6110  0.1170 -0.3387
 8920DDP     P153516  21.557  16.918   5.554  0.0315  0.1817  0.4292
 8920DDP     P253517  21.580  17.536   6.086  0.1186 -0.0299 -0.1081
 8920DDP     C253518  21.808  17.851   6.339 -0.1601 -0.0109 -0.0182
 8920DDP     C353519  21.419  16.621   5.305 -0.0400  0.1454  0.0247
 8920DDP     C453520  21.405  17.740   5.480 -0.0118 -0.3273  0.0961
 8921DDP     C153521  14.609  24.262  22.360  0.1489  0.1560  0.2921
 8921DDP     P153522  14.260  24.378  22.322  0.2181 -0.2069 -0.0489
 8921DDP     P253523  14.857  23.859  22.254  0.0811 -0.2520 -0.1282
 8921DDP     C253524  15.160  23.616  22.230 -0.2029 -0.1420  0.2092
 8921DDP     C353525  14.085  24.334  21.884 -0.0521  0.3529  0.1991
 8921DDP     C453526  14.667  24.463  22.691  0.1593  0.2090 -0.2394
 8922DDP     C153527  29.191  27.936  15.792 -0.2519  0.2048 -0.1311
 8922DDP     P153528  28.785  28.119  16.049 -0.0292 -0.0134 -0.1325
 8922DDP     P253529  28.945  27.591  15.674 -0.2411 -0.2133  0.2673
 8922DDP     C253530  28.524  27.339  15.519 -0.2292 -0.0940 -0.2010
 8922DDP     C353531  28.744  28.533  16.320  0.1702  0.2769  0.1725
 8922DDP     C453532  29.615  28.089  15.596  0.2567 -0.0812  0.1121
 8923DDP     C153533  29.212   9.537  19.377 -0.1503 -0.0406  0.0383
 8923DDP     P153534  29.089   9.203  19.680  0.0998  0.3504  0.1729
 8923DDP     P253535  29.657   9.467  19.342 -0.0161  0.0465 -0.0633
 8923DDP     C253536  30.073   9.273  19.364  0.4262  0.2583 -0.1151
 8923DDP     C353537  28.764   9.050  20.038 -0.1260  0.3396 -0.0627
 8923DDP     C453538  28.989   9.902  19.317 -0.2129 -0.2848  0.0902
 8924DDP     C153539   6.499   3.222  27.773  0.0510  0.0252 -0.1412
 8924DDP     P153540   6.696   3.622  27.869 -0.1265  0.2349 -0.0515
 8924DDP     P253541   6.274   3.210  27.429 -0.1958 -0.3660 -0.0371
 8924DDP     C253542   6.138   2.985  27.209  0.0169  0.2903  0.2517
 8924DDP     C353543   6.813   4.079  27.966 -0.7023  0.2977  0.3901
 8924DDP     C453544   6.322   2.961  28.003 -0.1582  0.0990  0.0387
 8925DDP     C153545  12.982  14.993  17.222  0.0333 -0.0158  0.0308
 8925DDP     P153546  13.231  15.232  17.390  0.2663  0.0660  0.1767
 8925DDP     P253547  13.128  14.708  17.013 -0.0334  0.1799 -0.3202
 8925DDP     C253548  13.516  14.424  17.111  0.0064 -0.0199  0.1754
 8925DDP     C353549  13.585  15.286  17.515  0.1455  0.3884 -0.1300
 8925DDP     C453550  12.515  15.027  17.172 -0.2541  0.1937 -0.0295
 8926DDP     C153551  15.618  19.792   1.383 -0.1229 -0.3365  0.1640
 8926DDP     P153552  15.838  19.987   1.830 -0.0381 -0.1424 -0.0860
 8926DDP     P253553  15.493  19.407   1.386  0.1551  0.0119 -0.2822
 8926DDP     C253554  15.228  19.001   1.297  0.1327  0.0709  0.0407
 8926DDP     C353555  15.776  20.168   2.151 -0.1432 -0.1901 -0.1763
 8926DDP     C453556  15.328  20.151   1.132 -0.0040 -0.2920 -0.1998
 8927DDP     C153557   8.590  16.318  16.860  0.3048 -0.1722  0.1271
 8927DDP     P153558   8.253  16.281  16.987 -0.0170 -0.0385 -0.2091
 8927DDP     P253559   8.818  16.552  16.665  0.1092  0.0637 -0.1650
 8927DDP     C253560   8.932  16.995  16.766 -0.1200  0.1315 -0.1215
 8927DDP     C353561   7.789  16.215  16.920 -0.0870 -0.1895  0.2282
 8927DDP     C453562   8.775  16.122  17.168 -0.0849  0.3252  0.1291
 8928DDP     C153563   6.892  13.924  18.400  0.1716  0.1452 -0.2283
 8928DDP     P153564   6.514  13.816  18.591  0.2574  0.1004 -0.0240
 8928DDP     P253565   7.227  13.960  18.708 -0.0586  0.0645 -0.0976
 8928DDP     C253566   7.339  13.934  19.086 -0.0055  0.2771 -0.2574
 8928DDP     C353567   6.175  13.503  18.520  0.0743  0.1836  0.0153
 8928DDP     C453568   7.041  13.937  17.980 -0.3431  0.1451 -0.0997
 8929DDP     C153569   6.150   0.736  22.625  0.0014  0.0707 -0.1583
 8929DDP     P153570   5.715   0.861  22.753 -0.3251 -0.0482 -0.0603
 8929DDP     P253571   6.100   0.444  22.346  0.0076  0.0918 -0.2334
 8929DDP     C253572   6.325   0.072  22.196  0.1524  0.0822 -0.2730
 8929DDP     C353573   5.386   0.734  22.976  0.0951 -0.0690 -0.1937
 8929DDP     C453574   6.532   0.822  22.909 -0.3051  0.0343  0.0264
 8930DDP     C153575  10.522  25.256   7.819  0.0170  0.1744 -0.2043
 8930DDP     P153576  10.638  24.878   8.020 -0.0319  0.1840  0.1300
 8930DDP     P253577  10.200  25.491   7.899 -0.1562  0.0352 -0.3123
 8930DDP     C253578   9.963  25.757   7.573  0.0459  0.1330  0.0110
 8930DDP     C353579  10.778  24.625   8.331 -0.0832 -0.2485  0.1031
 8930DDP     C453580  10.656  25.158   7.427 -0.1825 -0.0338  0.0776
 8931DDP     C153581  15.621  10.338  19.485 -0.0361 -0.0127 -0.0221
 8931DDP     P153582  15.752  10.065  19.227 -0.2821 -0.0310 -0.2569
 8931DDP     P253583  15.915  10.567  19.604  0.3445 -0.0816  0.1447
 8931DDP     C253584  16.227  10.768  19.296  0.0488 -0.1777  0.0350
 8931DDP     C353585  16.025   9.674  19.361 -0.1317  0.3021 -0.0585
 8931DDP     C453586  15.119  10.457  19.530  0.1029 -0.4309  0.3591
 8932DDP     C153587   0.292  16.367   6.972  0.1449  0.1748  0.2470
 8932DDP     P153588   0.187  16.737   7.062 -0.2256 -0.0181 -0.0856
 8932DDP     P253589   0.228  15.901   6.998 -0.2435  0.0523  0.0734
 8932DDP     C253590   0.442  15.617   6.726 -0.3924 -0.1638 -0.3188
 8932DDP     C353591  30.195  17.074   7.025 -0.0651 -0.0589 -0.2783
 8932DDP     C453592  30.304  16.523   6.621  0.2498  0.3251  0.2138
 8933DDP     C153593  20.236   6.570   3.283 -0.1550  0.0832  0.3268
 8933DDP     P153594  20.080   6.972   3.148 -0.0558  0.0504 -0.2763
 8933DDP     P253595  19.922   6.381   3.619 -0.3693 -0.0176  0.0387
 8933DDP     C253596  19.870   6.129   3.997 -0.1719  0.1265  0.0858
 8933DDP     C353597  19.620   7.032   3.121 -0.0800  0.2148 -0.0826
 8933DDP     C453598  20.345   6.194   3.049 -0.1239 -0.0499  0.0013
 8934DDP     C153599   3.745  28.844  18.865 -0.3206 -0.2030 -0.1590
 8934DDP     P153600   3.945  28.428  18.751 -0.2429 -0.2659 -0.0762
 8934DDP     P253601   3.867  29.367  18.771 -0.1738  0.1649  0.1627
 8934DDP     C253602   3.848  29.781  18.886 -0.1398 -0.0600 -0.0282
 8934DDP     C353603   3.742  28.078  18.527 -0.0637 -0.1235  0.0650
 8934DDP     C453604   3.372  28.800  19.064  0.0614  0.2340  0.1104
 8935DDP     C153605   1.844  19.828   5.453 -0.0688 -0.2273 -0.2257
 8935DDP     P153606   1.821  20.149   5.810 -0.0846  0.2276  0.0858
 8935DDP     P253607   1.616  19.395   5.545 -0.0722 -0.0464 -0.0685
 8935DDP     C253608   1.194  19.285   5.339 -0.1224  0.1737  0.4269
 8935DDP     C353609   1.735  20.515   5.896  0.0213  0.2146 -0.0616
 8935DDP     C453610   2.080  20.077   5.133 -0.1158 -0.0711 -0.2254
 8936DDP     C153611  10.671  17.962  24.624 -0.0999 -0.1916 -0.3195
 8936DDP     P153612  10.580  18.436  24.633  0.1846 -0.1397 -0.3461
 8936DDP     P253613  10.432  17.805  24.947 -0.2600  0.1531  0.0263
 8936DDP     C253614  10.231  17.452  25.106 -0.2948  0.0502  0.1431
 8936DDP     C353615  10.399  18.814  24.514 -0.1655 -0.1047  0.2066
 8936DDP     C453616  10.961  17.644  24.378  0.1540  0.0150 -0.0758
 8937DDP     C153617   1.463  28.186  26.298 -0.0486  0.0279  0.3843
 8937DDP     P153618   1.693  28.445  26.721  0.1744  0.1360  0.0852
 8937DDP     P253619   1.327  28.416  25.884  0.1613 -0.1500 -0.3477
 8937DDP     C253620   1.295  28.255  25.507 -0.0564 -0.0330 -0.1804
 8937DDP     C353621   2.030  28.401  26.828  0.1405 -0.2006  0.0272
 8937DDP     C453622   1.766  27.837  26.251  0.2101  0.1763 -0.0918
 8938DDP     C153623  17.191  27.753  11.616  0.0880  0.1527 -0.1184
 8938DDP     P153624  17.048  27.580  11.947  0.3739  0.3585  0.0771
 8938DDP     P253625  17.324  27.590  11.252 -0.1337  0.1074  0.2355
 8938DDP     C253626  17.756  27.354  11.198 -0.3286 -0.0291 -0.1119
 8938DDP     C353627  16.935  27.384  12.301  0.2468 -0.0400 -0.0971
 8938DDP     C453628  17.098  28.260  11.637  0.2405  0.3272  0.0948
 8939DDP     C153629  23.728   3.872  26.528  0.0041  0.0835  0.0693
 8939DDP     P153630  23.947   3.945  26.860  0.0892  0.0338 -0.3698
 8939DDP     P253631  23.729   3.483  26.497 -0.1395 -0.4248 -0.0274
 8939DDP     C253632  23.516   3.085  26.513 -0.1746 -0.2624  0.2514
 8939DDP     C353633  24.379   3.839  27.061 -0.0386 -0.1039 -0.3286
 8939DDP     C453634  23.517   4.020  26.170  0.2224 -0.4512  0.1169
 8940DDP     C153635  11.686  11.987  28.553 -0.1704 -0.0104 -0.2229
 8940DDP     P153636  12.000  12.266  28.432 -0.0898  0.3073  0.3254
 8940DDP     P253637  11.386  11.818  28.931 -0.1075 -0.2281 -0.0765
 8940DDP     C253638  11.038  11.489  28.896  0.0953  0.1154 -0.3414
 8940DDP     C353639  12.380  12.220  28.278 -0.0228  0.0928 -0.1978
 8940DDP     C453640  11.630  11.701  28.254 -0.4646  0.2112 -0.1302
 8941DDP     C153641  19.127   4.329   9.978 -0.0603 -0.0845 -0.0031
 8941DDP     P153642  18.877   4.420  10.353  0.0460  0.0638 -0.1482
 8941DDP     P253643  18.955   4.406   9.639  0.0419  0.3596 -0.0536
 8941DDP     C253644  19.041   4.565   9.206 -0.1018  0.0016  0.0212
 8941DDP     C353645  18.717   4.195  10.587 -0.2852  0.1675  0.0826
 8941DDP     C453646  19.572   4.445  10.182 -0.1640  0.0869 -0.0660
 8942DDP     C153647  15.271  27.804   5.397  0.0301  0.0674 -0.0366
 8942DDP     P153648  15.413  27.372   5.525  0.2769  0.1452 -0.0600
 8942DDP     P253649  15.014  28.004   5.149  0.1874 -0.2065 -0.2720
 8942DDP     C253650  14.820  28.192   4.826  0.0063 -0.0258 -0.3440
 8942DDP     C353651  15.908  27.148   5.590  0.6328 -0.1088 -0.0927
 8942DDP     C453652  15.494  28.081   5.536  0.0851 -0.1398 -0.0813
 8943DDP     C153653  24.877  15.213   5.808 -0.1608  0.0672  0.0686
 8943DDP     P153654  24.601  15.140   6.161 -0.4824 -0.0477  0.0118
 8943DDP     P253655  24.707  15.170   5.498 -0.0097  0.2052  0.0889
 8943DDP     C253656  24.463  15.312   5.295  0.0534 -0.1690 -0.4775
 8943DDP     C353657  24.159  15.254   6.288 -0.1189 -0.3316 -0.0950
 8943DDP     C453658  25.206  15.603   5.869 -0.0688 -0.1478 -0.0448
 8944DDP     C153659  16.508  10.567  19.672 -0.0359 -0.0537  0.1722
 8944DDP     P153660  16.657  10.411  19.408  0.1191  0.3080  0.0836
 8944DDP     P253661  16.316  10.505  20.028  0.1809  0.2979  0.0207
 8944DDP     C253662  16.340  10.834  20.335 -0.0474  0.3974 -0.2411
 8944DDP     C353663  17.087  10.300  19.379 -0.0724  0.2624 -0.0270
 8944DDP     C453664  16.676  10.858  19.727 -0.1389 -0.0019 -0.1148
 8945DDP     C153665  10.762  19.069  13.355  0.1586 -0.0810 -0.2755
 8945DDP     P153666  10.572  18.847  13.655 -0.0325  0.0086  0.1744
 8945DDP     P253667  10.595  19.027  12.914 -0.1664  0.1016 -0.0273
 8945DDP     C253668  10.425  18.675  12.536  0.0518  0.3317 -0.0434
 8945DDP     C353669  10.178  18.756  13.911 -0.2222 -0.1254  0.1765
 8945DDP     C453670  11.095  19.399  13.418 -0.1252  0.1523  0.2675
 8946DDP     C153671  15.356  29.274  21.003  0.0253  0.0775  0.0146
 8946DDP     P153672  15.216  29.169  20.667 -0.0476  0.1741 -0.0534
 8946DDP     P253673  14.977  29.596  20.993  0.1018 -0.2138 -0.0079
 8946DDP     C253674  14.529  29.631  20.850  0.2596  0.2346 -0.1797
 8946DDP     C353675  15.144  28.990  20.217 -0.2558 -0.3226  0.0088
 8946DDP     C453676  15.536  29.220  21.418 -0.1566 -0.0691 -0.0186
 8947DDP     C153677   8.454  25.293  15.366 -0.1433  0.3461 -0.2651
 8947DDP     P153678   8.562  24.794  15.209 -0.4702  0.1583  0.0657
 8947DDP     P253679   8.637  25.297  15.783  0.2576  0.4165 -0.1426
 8947DDP     C253680   8.347  25.066  16.101  0.4875 -0.0086 -0.3532
 8947DDP     C353681   8.854  24.539  15.461 -0.1929 -0.0934  0.0486
 8947DDP     C453682   8.071  25.419  15.333  0.0084 -0.1369 -0.2309
 8948DDP     C153683  16.680   7.769   3.134  0.1103  0.1749  0.0617
 8948DDP     P153684  16.545   7.756   3.552  0.1933  0.2244  0.0202
 8948DDP     P253685  16.839   8.088   2.765 -0.2059 -0.1301 -0.2326
 8948DDP     C253686  17.075   8.389   2.976 -0.1611 -0.3077 -0.0192
 8948DDP     C353687  16.114   7.574   3.795 -0.3141  0.1246 -0.0580
 8948DDP     C453688  16.897   7.310   2.937 -0.1559 -0.1172  0.2268
 8949DDP     C153689  25.117   6.996  17.785  0.0437  0.4759 -0.0406
 8949DDP     P153690  25.005   6.634  17.683 -0.1811  0.1037 -0.0494
 8949DDP     P253691  25.470   7.133  17.825  0.2218  0.0530 -0.2460
 8949DDP     C253692  25.788   7.350  18.066  0.2338  0.0290 -0.0427
 8949DDP     C353693  25.040   6.180  17.636 -0.2526 -0.0172 -0.0274
 8949DDP     C453694  24.698   7.305  17.783 -0.3262  0.2361  0.1743
 8950DDP     C153695  11.655  26.813  18.983 -0.1210 -0.0874 -0.0772
 8950DDP     P153696  12.116  26.686  19.186  0.1811  0.1893  0.1937
 8950DDP     P253697  11.467  27.122  19.335 -0.2643  0.2563 -0.1165
 8950DDP     C253698  11.428  27.633  19.420 -0.0561 -0.2555  0.1004
 8950DDP     C353699  12.436  26.962  19.306  0.0071 -0.1471  0.2999
 8950DDP     C453700  11.422  26.524  18.665  0.2525  0.0283  0.1392
 8951DDP     C153701  28.533  19.615  13.182 -0.1109 -0.1905  0.1306
 8951DDP     P153702  28.509  19.206  13.125 -0.0881 -0.1871 -0.1931
 8951DDP     P253703  28.888  19.818  13.195 -0.0687  0.1487 -0.0505
 8951DDP     C253704  29.266  19.775  13.300 -0.0660 -0.2147  0.0527
 8951DDP     C353705  28.661  18.839  13.286 -0.1430 -0.1273 -0.1459
 8951DDP     C453706  28.363  19.969  12.938 -0.0566  0.0030  0.5692
 8952DDP     C153707  17.050  26.353  29.364 -0.1332  0.2001 -0.0870
 8952DDP     P153708  16.728  26.648  29.512  0.0301 -0.2581 -0.0595
 8952DDP     P253709  17.425  26.302  29.537  0.1890  0.1245  0.2797
 8952DDP     C253710  17.766  26.378  29.790 -0.0879  0.2359  0.0464
 8952DDP     C353711  16.326  26.622  29.839  0.1569 -0.3846  0.1378
 8952DDP     C453712  16.932  26.245  28.904  0.2773  0.1584  0.2037
 8953DDP     C153713   9.929  22.921  22.282  0.1352 -0.3032  0.2428
 8953DDP     P153714   9.545  22.835  22.041 -0.0561 -0.1355 -0.2447
 8953DDP     P253715  10.354  22.853  22.244 -0.0917 -0.1215  0.0790
 8953DDP     C253716  10.791  22.953  22.220 -0.1257  0.0677  0.1624
 8953DDP     C353717   9.188  22.532  22.116  0.0981 -0.2016  0.0121
 8953DDP     C453718  10.169  23.270  22.551 -0.1390  0.0436  0.0021
 8954DDP     C153719  12.387  11.265  19.885  0.0535 -0.1839 -0.1561
 8954DDP     P153720  12.130  11.554  20.042 -0.1895  0.1598  0.1208
 8954DDP     P253721  12.683  10.960  20.119 -0.2519 -0.0621 -0.0489
 8954DDP     C253722  12.866  10.853  20.440 -0.4024  0.0095  0.1619
 8954DDP     C353723  11.799  11.439  20.279  0.0904 -0.1907  0.3725
 8954DDP     C453724  12.588  11.195  19.421  0.2332 -0.3530  0.0067
 8955DDP     C153725  17.476  28.855   7.963  0.1257 -0.1017  0.1415
 8955DDP     P153726  17.749  29.140   7.990 -0.0706  0.1316  0.2875
 8955DDP     P253727  17.623  28.769   7.677  0.0623 -0.0263  0.0586
 8955DDP     C253728  18.084  28.882   7.654  0.0625  0.1859 -0.1795
 8955DDP     C353729  17.782  29.547   8.240 -0.0303 -0.0695  0.0838
 8955DDP     C453730  17.082  28.951   8.202  0.1251 -0.0046  0.0935
 8956DDP     C153731  19.919  25.203  26.653 -0.0177 -0.0391 -0.0614
 8956DDP     P153732  20.259  25.268  26.360  0.0998  0.1629 -0.1999
 8956DDP     P253733  19.584  25.411  26.677 -0.1158  0.0517 -0.1201
 8956DDP     C253734  19.209  25.584  26.710 -0.0604  0.2150 -0.0804
 8956DDP     C353735  20.623  25.566  26.374 -0.0799 -0.2200  0.1985
 8956DDP     C453736  19.895  24.834  26.903  0.0337 -0.0393 -0.1890
 8957DDP     C153737  26.859  16.126   2.375 -0.0992 -0.0625  0.0804
 8957DDP     P153738  26.555  16.090   2.747  0.0047 -0.0642  0.0272
 8957DDP     P253739  26.893  16.427   2.157  0.0970  0.1529  0.0529
 8957DDP     C253740  27.126  16.593   1.827 -0.1324  0.0390 -0.0526
 8957DDP     C353741  26.328  16.279   3.085 -0.1781  0.2294 -0.1305
 8957DDP     C453742  27.027  15.752   2.268 -0.1865  0.0555 -0.1482
 8958DDP     C153743  29.504  25.194   2.481  0.1327  0.1561  0.1085
 8958DDP     P153744  29.624  25.361   2.859 -0.0846 -0.1769  0.0151
 8958DDP     P253745  29.209  25.389   2.171  0.1064  0.1117 -0.0387
 8958DDP     C253746  29.234  25.730   1.829 -0.0548 -0.1019 -0.2386
 8958DDP     C353747  29.452  25.700   3.077 -0.0946 -0.0265  0.1339
 8958DDP     C453748  29.802  24.940   2.367 -0.0675  0.1092 -0.3022
 8959DDP     C153749  26.540   3.278  19.629  0.2635  0.2729  0.0394
 8959DDP     P153750  26.761   3.392  19.297 -0.4645 -0.0706  0.0009
 8959DDP     P253751  26.142   3.103  19.553 -0.1338  0.0498  0.0762
 8959DDP     C253752  25.904   2.719  19.544 -0.1897  0.2244 -0.2655
 8959DDP     C353753  27.051   3.209  18.953  0.1680 -0.1404  0.2629
 8959DDP     C453754  26.760   3.128  20.017 -0.3011  0.2372  0.0207
 8960DDP     C153755  11.767   3.964  28.017  0.2123 -0.0498  0.0414
 8960DDP     P153756  11.775   4.376  27.851  0.3025  0.0551  0.4888
 8960DDP     P253757  11.779   3.489  27.876 -0.1611 -0.1969 -0.1296
 8960DDP     C253758  11.745   3.017  27.805 -0.0605 -0.1626  0.2624
 8960DDP     C353759  11.641   4.845  27.586 -0.3973 -0.2386  0.0196
 8960DDP     C453760  11.668   4.005  28.476  0.2493  0.0829 -0.2261
 8961DDP     C153761   7.305   7.996  29.189 -0.0672  0.0470 -0.1033
 8961DDP     P153762   7.054   7.729  29.412  0.1174 -0.1141  0.2034
 8961DDP     P253763   7.568   8.005  28.855  0.3082  0.0550 -0.1101
 8961DDP     C253764   7.612   7.698  28.564  0.2727  0.1091 -0.0284
 8961DDP     C353765   6.869   7.736  29.879 -0.2019 -0.2843  0.4072
 8961DDP     C453766   7.371   8.311  29.576 -0.4779  0.1126  0.1607
 8962DDP     C153767  21.840   7.816   5.968  0.1077 -0.2314  0.0154
 8962DDP     P153768  21.909   8.196   6.216 -0.1759 -0.3130  0.0787
 8962DDP     P253769  21.492   7.440   6.009 -0.0041  0.1224  0.4191
 8962DDP     C253770  21.703   7.098   5.795  0.0930  0.0191 -0.1173
 8962DDP     C353771  21.747   8.275   6.584  0.0383 -0.2080  0.1204
 8962DDP     C453772  21.805   7.994   5.547  0.1100  0.1035  0.0077
 8963DDP     C153773  23.226  29.384  11.542 -0.0825  0.0016  0.1059
 8963DDP     P153774  23.393  29.659  11.858  0.0402 -0.3624 -0.2336
 8963DDP     P253775  23.615  29.146  11.382 -0.0811  0.2073 -0.0920
 8963DDP     C253776  23.666  29.006  10.964 -0.1922  0.3851 -0.0520
 8963DDP     C353777  23.507  29.777  12.267 -0.2115  0.0340 -0.0051
 8963DDP     C453778  22.782  29.404  11.357  0.3375  0.0365  0.2278
 8964DDP     C153779   6.499  20.244   4.006 -0.2751 -0.0454  0.1524
 8964DDP     P153780   6.118  20.045   4.121 -0.2737  0.0630 -0.0249
 8964DDP     P253781   6.677  20.253   4.471 -0.0787 -0.2581  0.2627
 8964DDP     C253782   6.373  20.134   4.712 -0.1688 -0.2073 -0.0539
 8964DDP     C353783   5.792  19.769   4.067  0.0482 -0.0582 -0.1499
 8964DDP     C453784   6.354  20.509   3.671  0.2541  0.1839  0.0114
 8965DDP     C153785   4.754  10.357  23.543 -0.1482 -0.0365  0.0990
 8965DDP     P153786   5.070  10.630  23.823 -0.0179  0.0462 -0.0623
 8965DDP     P253787   4.520   9.969  23.697  0.2267 -0.0948 -0.3970
 8965DDP     C253788   4.304   9.522  23.942 -0.0226  0.1604 -0.1348
 8965DDP     C353789   5.408  10.748  23.628  0.0414  0.1532  0.0108
 8965DDP     C453790   4.417  10.376  23.235 -0.0464  0.0693  0.5901
 8966DDP     C153791  20.371  21.000  16.581  0.0779 -0.1817  0.1374
 8966DDP     P153792  20.067  20.711  16.638  0.0254  0.3969 -0.0765
 8966DDP     P253793  20.470  21.167  16.198 -0.0224  0.1154 -0.0591
 8966DDP     C253794  20.500  21.393  15.946  0.0919 -0.0848  0.0838
 8966DDP     C353795  20.087  20.764  17.100  0.1157  0.0839  0.0695
 8966DDP     C453796  20.438  21.102  17.001 -0.0596  0.3773  0.0089
 8967DDP     C153797   3.753   5.158  13.865 -0.0011 -0.0379 -0.0027
 8967DDP     P153798   3.391   5.304  13.645 -0.1004  0.1108  0.0702
 8967DDP     P253799   3.791   4.777  14.108  0.1820  0.0004 -0.0794
 8967DDP     C253800   4.092   4.448  14.131  0.1982  0.1719  0.1735
 8967DDP     C353801   3.085   5.416  13.354 -0.3159  0.1903  0.2588
 8967DDP     C453802   4.131   5.305  13.914  0.0754  0.2007  0.2034
 8968DDP     C153803  15.498  26.690   8.138 -0.1063 -0.2887 -0.0189
 8968DDP     P153804  15.417  26.490   8.564 -0.2517 -0.0670 -0.1820
 8968DDP     P253805  15.359  26.468   7.785  0.1957 -0.1411 -0.1222
 8968DDP     C253806  15.588  26.464   7.434  0.2980  0.0959 -0.1080
 8968DDP     C353807  15.205  26.225   8.783  0.2805 -0.0200 -0.2313
 8968DDP     C453808  15.578  27.129   8.160 -0.0755 -0.0354 -0.3413
 8969DDP     C153809  18.850  17.707  28.206 -0.1060 -0.0099  0.1594
 8969DDP     P153810  18.940  18.199  28.232 -0.0354  0.1412 -0.0987
 8969DDP     P253811  18.527  17.583  28.390 -0.3383  0.0879 -0.1170
 8969DDP     C253812  18.322  17.339  28.523 -0.5250 -0.0777  0.1569
 8969DDP     C353813  19.144  18.592  28.294 -0.1373 -0.1118  0.0994
 8969DDP     C453814  19.183  17.524  28.041 -0.0204 -0.1294  0.0199
 8970DDP     C153815   5.662   9.142   7.518  0.1116 -0.0267  0.1940
 8970DDP     P153816   5.383   9.273   7.239 -0.1293  0.2225 -0.1343
 8970DDP     P253817   5.841   9.490   7.747 -0.0410  0.2839  0.0059
 8970DDP     C253818   5.728   9.945   7.773  0.1100  0.1418  0.0119
 8970DDP     C353819   5.196   9.261   6.750  0.1789 -0.1256  0.2340
 8970DDP     C453820   5.849   8.754   7.433  0.0140  0.2607 -0.1193
 8971DDP     C153821  25.504  12.784   5.738 -0.2851 -0.0230  0.0388
 8971DDP     P153822  25.505  12.473   5.498 -0.1072 -0.3859  0.1825
 8971DDP     P253823  25.441  13.143   5.529  0.0087  0.0287  0.1439
 8971DDP     C253824  25.432  13.265   5.023 -0.0851  0.2415  0.0813
 8971DDP     C353825  25.229  12.259   5.399  0.1543 -0.3016  0.0037
 8971DDP     C453826  25.688  12.841   6.197  0.1321  0.0059 -0.1297
 8972DDP     C153827  15.420  27.682   8.925 -0.0581 -0.2006  0.0011
 8972DDP     P153828  15.405  28.081   8.939 -0.1177  0.0927  0.0685
 8972DDP     P253829  15.711  27.523   8.709 -0.0573  0.2368  0.1790
 8972DDP     C253830  16.128  27.588   8.511  0.0242  0.1370 -0.1484
 8972DDP     C353831  15.722  28.317   8.981  0.0705  0.2891 -0.1537
 8972DDP     C453832  14.998  27.425   8.981 -0.0518  0.2676 -0.1934
 8973DDP     C153833   0.717  22.258   7.857  0.0182 -0.2438 -0.0012
 8973DDP     P153834   0.513  22.024   7.516  0.1223  0.0232  0.0365
 8973DDP     P253835   0.536  22.622   7.972 -0.0344  0.3279  0.1048
 8973DDP     C253836   0.136  22.775   8.146  0.0222  0.3613 -0.1900
 8973DDP     C353837   0.096  21.760   7.207 -0.2895  0.2183 -0.0434
 8973DDP     C453838   1.087  22.191   7.954 -0.2552 -0.0918  0.1522
 8974DDP     C153839  15.901  10.819   5.520  0.0705 -0.1337 -0.3266
 8974DDP     P153840  16.113  11.245   5.537 -0.3222  0.1832 -0.2333
 8974DDP     P253841  16.204  10.519   5.462 -0.1753  0.2832  0.4946
 8974DDP     C253842  16.624  10.396   5.582  0.0399  0.1250  0.0489
 8974DDP     C353843  16.108  11.659   5.350  0.3170  0.0357 -0.0813
 8974DDP     C453844  15.472  10.930   5.624 -0.4427  0.1769 -0.1011
 8975DDP     C153845  28.451  11.090  25.928 -0.1070  0.2909  0.0589
 8975DDP     P153846  28.521  11.498  25.987 -0.2353 -0.0284 -0.0978
 8975DDP     P253847  28.678  10.800  25.572  0.3434 -0.0835  0.1601
 8975DDP     C253848  28.993  10.503  25.275 -0.2689 -0.3271  0.0019
 8975DDP     C353849  28.727  11.842  26.185 -0.3243  0.0390 -0.1016
 8975DDP     C453850  28.433  10.788  26.348  0.1721 -0.2309  0.1268
 8976DDP     C153851   2.093  27.152  22.242 -0.1224  0.3006 -0.1004
 8976DDP     P153852   1.759  26.995  22.168 -0.2985  0.0544  0.3556
 8976DDP     P253853   2.276  27.156  21.896  0.0857 -0.1368 -0.4028
 8976DDP     C253854   2.123  27.306  21.414  0.1364 -0.0841  0.2055
 8976DDP     C353855   1.391  26.936  22.269  0.0972 -0.2030  0.0283
 8976DDP     C453856   2.211  27.214  22.742 -0.0077 -0.0790 -0.0810
 8977DDP     C153857  14.208  25.967  13.168  0.0543  0.1632 -0.0893
 8977DDP     P153858  14.096  26.357  13.014 -0.0065  0.1862  0.1569
 8977DDP     P253859  14.605  25.661  13.077  0.1237  0.0717 -0.1798
 8977DDP     C253860  14.842  25.320  12.996 -0.2757  0.0305  0.2572
 8977DDP     C353861  13.944  26.618  13.245  0.1775  0.2555 -0.0387
 8977DDP     C453862  14.134  25.898  13.547 -0.1554  0.0758 -0.1543
 8978DDP     C153863  10.937   4.800  14.194 -0.0593  0.1150 -0.3391
 8978DDP     P153864  10.851   4.415  13.985 -0.3522 -0.0207 -0.1107
 8978DDP     P253865  11.142   4.674  14.632  0.0436  0.1987  0.1061
 8978DDP     C253866  11.141   5.048  14.985 -0.0141  0.2368  0.1309
 8978DDP     C353867  10.581   4.170  13.920  0.0263 -0.0554 -0.3526
 8978DDP     C453868  11.136   5.138  13.988  0.0863  0.1210  0.2097
 8979DDP     C153869  24.059  15.356  22.316  0.0387 -0.0719  0.1483
 8979DDP     P153870  24.486  15.470  22.159 -0.0434  0.1793  0.5036
 8979DDP     P253871  23.907  15.387  22.670 -0.1777  0.2275  0.3539
 8979DDP     C253872  23.685  15.424  23.071  0.0433  0.2145  0.2963
 8979DDP     C353873  24.837  15.479  21.893  0.3212 -0.1798  0.1940
 8979DDP     C453874  23.718  15.348  21.987  0.1409 -0.0090  0.0878
 8980DDP     C153875  12.387   7.699   4.721 -0.2225  0.0444  0.0838
 8980DDP     P153876  11.944   7.908   4.967 -0.2997 -0.4051 -0.1655
 8980DDP     P253877  12.658   8.013   4.688 -0.4048  0.2774 -0.2600
 8980DDP     C253878  12.699   8.403   4.898  0.2128 -0.0623 -0.3887
 8980DDP     C353879  11.532   8.094   5.049 -0.1661  0.0076  0.1356
 8980DDP     C453880  12.389   7.297   4.500 -0.3019 -0.3611 -0.0210
 8981DDP     C153881  14.747  16.457  11.967  0.1010  0.0504 -0.1169
 8981DDP     P153882  14.462  16.487  12.352 -0.0278 -0.1099 -0.0961
 8981DDP     P253883  15.084  16.206  11.959  0.1117  0.0120 -0.3430
 8981DDP     C253884  15.211  15.887  12.221 -0.0049  0.1933  0.0874
 8981DDP     C353885  14.116  16.336  12.409 -0.1855  0.2140  0.1906
 8981DDP     C453886  14.688  16.803  11.754 -0.1692  0.1297  0.0145
 8982DDP     C153887  10.632   4.698  21.363  0.1292 -0.2777 -0.2639
 8982DDP     P153888  10.625   4.972  20.948 -0.2246 -0.3148  0.1234
 8982DDP     P253889  10.859   4.266  21.470  0.0887  0.2848  0.2450
 8982DDP     C253890  11.085   3.838  21.575  0.2141  0.3778  0.1178
 8982DDP     C353891  10.759   5.376  20.868 -0.2414 -0.1028 -0.3005
 8982DDP     C453892  10.795   4.959  21.801 -0.1671 -0.0069  0.1396
 8983DDP     C153893  15.454  26.788  18.824  0.1367  0.1173  0.0209
 8983DDP     P153894  15.388  26.523  18.531 -0.2238 -0.2728  0.2829
 8983DDP     P253895  15.198  26.750  19.216  0.0424 -0.1519  0.1285
 8983DDP     C253896  15.396  26.647  19.591  0.2156 -0.1070 -0.0647
 8983DDP     C353897  15.373  26.056  18.571 -0.2237 -0.1553 -0.0826
 8983DDP     C453898  15.855  26.853  18.732  0.1384 -0.2517 -0.4516
 8984DDP     C153899   8.600  18.160  29.753 -0.0224 -0.0608  0.0426
 8984DDP     P153900   8.195  17.979  29.690  0.2135  0.1078  0.0272
 8984DDP     P253901   8.738  18.192  30.169  0.3256  0.2788  0.2411
 8984DDP     C253902   8.797  18.213   0.394  0.2651  0.0506  0.3326
 8984DDP     C353903   8.162  17.708  29.376  0.1669  0.1224  0.1442
 8984DDP     C453904   8.950  18.311  29.463  0.0885  0.0479  0.2897
 8985DDP     C153905   0.082  13.900  10.936  0.0153 -0.1218  0.0008
 8985DDP     P153906  30.003  13.819  10.929 -0.0087 -0.0155  0.1381
 8985DDP     P253907   0.290  14.280  11.022  0.1451 -0.3692  0.1292
 8985DDP     C253908   0.221  14.449  11.422  0.0775  0.1742 -0.2490
 8985DDP     C353909  29.681  13.800  11.232  0.0421 -0.1798 -0.3540
 8985DDP     C453910   0.270  13.621  10.609  0.0031  0.1938 -0.0014
 8986DDP     C153911  27.940   2.638  14.319  0.0993 -0.2574  0.0415
 8986DDP     P153912  27.626   2.799  14.632  0.3851  0.0016 -0.2444
 8986DDP     P253913  28.294   2.224  14.275  0.3054 -0.3112 -0.1163
 8986DDP     C253914  28.412   1.772  14.082  0.3157  0.2900 -0.3203
 8986DDP     C353915  27.210   2.727  14.841  0.0399 -0.0936 -0.1820
 8986DDP     C453916  27.889   2.917  14.050 -0.0518 -0.0662 -0.0098
 8987DDP     C153917  27.738   2.533  21.486  0.0274 -0.1008 -0.3675
 8987DDP     P153918  27.544   2.930  21.332 -0.0495  0.0107  0.0779
 8987DDP     P253919  28.219   2.418  21.427  0.0203  0.0619 -0.2766
 8987DDP     C253920  28.599   2.260  21.338 -0.1028 -0.0774 -0.0574
 8987DDP     C353921  27.531   3.331  21.565  0.3027  0.2308  0.0358
 8987DDP     C453922  27.494   2.453  21.777 -0.2176  0.1633  0.0634
 8988DDP     C153923  13.439  13.010   2.831  0.0687 -0.0890  0.3303
 8988DDP     P153924  13.527  13.409   2.671  0.1209 -0.2766 -0.1771
 8988DDP     P253925  13.093  12.753   3.104 -0.2125  0.2090  0.0687
 8988DDP     C253926  12.976  12.836   3.521  0.1161 -0.2727 -0.4154
 8988DDP     C353927  13.340  13.726   2.430  0.3257 -0.4510 -0.0700
 8988DDP     C453928  13.591  12.552   2.696 -0.1932 -0.2315  0.4791
 8989DDP     C153929  22.984   9.060   8.126 -0.1693 -0.1894 -0.1323
 8989DDP     P153930  22.925   9.020   8.531  0.0340  0.0811  0.0078
 8989DDP     P253931  22.884   9.504   8.177  0.1734  0.0550  0.0004
 8989DDP     C253932  22.553   9.922   8.087 -0.0006 -0.3923 -0.3121
 8989DDP     C353933  22.983   8.754   8.900 -0.1221  0.3094 -0.2261
 8989DDP     C453934  23.346   8.893   8.106 -0.0113  0.0858  0.1579
 8990DDP     C153935  25.537  11.839   2.920  0.1319 -0.1911  0.0309
 8990DDP     P153936  25.395  11.472   2.656 -0.0051  0.2747 -0.0715
 8990DDP     P253937  25.471  11.789   3.372  0.0722  0.0737 -0.2155
 8990DDP     C253938  25.260  11.532   3.808  0.0193 -0.1764 -0.0136
 8990DDP     C353939  25.472  11.034   2.470  0.0303 -0.1446  0.1817
 8990DDP     C453940  25.762  12.209   2.687  0.0969 -0.0130  0.1352
 8991DDP     C153941  29.100   8.613  28.853 -0.1630  0.0288  0.3039
 8991DDP     P153942  28.993   8.889  29.140  0.2301 -0.0939 -0.4193
 8991DDP     P253943  29.563   8.392  28.608 -0.1179  0.0187  0.0571
 8991DDP     C253944  29.985   8.346  28.484 -0.2374 -0.1051 -0.3171
 8991DDP     C353945  29.005   9.163  29.409 -0.2329 -0.1755  0.3247
 8991DDP     C453946  28.838   8.624  28.516 -0.1170  0.2175  0.2004
 8992DDP     C153947  10.973  10.225  27.879  0.0354  0.3470  0.0866
 8992DDP     P153948  11.324  10.429  27.660  0.2429 -0.0488  0.1882
 8992DDP     P253949  10.706  10.554  27.804  0.0313  0.2049 -0.1702
 8992DDP     C253950  10.283  10.680  27.709 -0.2495  0.3434  0.1369
 8992DDP     C353951  11.218  10.487  27.133  0.1274 -0.1218 -0.1455
 8992DDP     C453952  10.829   9.808  27.953 -0.3819  0.0268 -0.1401
 8993DDP     C153953  23.871  23.076   2.194  0.0953 -0.1289  0.1405
 8993DDP     P153954  24.006  22.838   1.878 -0.2537 -0.2177  0.0719
 8993DDP     P253955  23.963  23.446   2.484 -0.0473  0.0658 -0.0031
 8993DDP     C253956  23.708  23.398   2.919  0.0464 -0.1201 -0.1160
 8993DDP     C353957  23.832  22.690   1.444 -0.1316  0.0794  0.2990
 8993DDP     C453958  23.514  22.791   2.320  0.1046  0.0326  0.0403
 8994DDP     C153959  16.005  15.687  29.507  0.0175 -0.4732  0.1868
 8994DDP     P153960  16.065  15.357  29.801 -0.0098 -0.0232  0.1879
 8994DDP     P253961  15.546  15.541  29.215  0.1494 -0.0724  0.0120
 8994DDP     C253962  15.290  15.414  28.978 -0.1442 -0.0808 -0.3950
 8994DDP     C353963  16.423  15.128  29.942  0.0529  0.0565 -0.0031
 8994DDP     C453964  16.229  16.000  29.511 -0.1949 -0.2079  0.1254
 8995DDP     C153965  26.307   9.846   2.001 -0.1173  0.1603 -0.1716
 8995DDP     P153966  26.478   9.932   2.344 -0.1025 -0.1502 -0.0899
 8995DDP     P253967  25.914   9.750   1.882  0.2479 -0.1144  0.1051
 8995DDP     C253968  25.546   9.699   1.908  0.2292 -0.2536 -0.2923
 8995DDP     C353969  26.363  10.382   2.557 -0.0847 -0.0217 -0.0519
 8995DDP     C453970  26.541  10.186   1.571  0.3935  0.0795 -0.0435
 8996DDP     C153971  26.892  30.300   2.660  0.0952  0.0223 -0.2821
 8996DDP     P153972  27.198   0.332   2.652 -0.2791  0.3659 -0.2592
 8996DDP     P253973  27.147  29.983   2.610 -0.2000  0.8117 -0.0662
 8996DDP     C253974  27.381  29.695   2.863 -0.1222  0.0738  0.0143
 8996DDP     C353975  27.494   0.567   2.992 -0.0271 -0.1524  0.0818
 8996DDP     C453976  26.504  30.175   2.683  0.0774  0.3440 -0.1009
 8997DDP     C153977  22.062  17.705  17.432  0.0124  0.3575 -0.1659
 8997DDP     P153978  22.051  17.700  16.958 -0.2071 -0.1401 -0.1138
 8997DDP     P253979  22.453  17.923  17.535 -0.0288 -0.3675  0.0501
 8997DDP     C253980  22.813  17.986  17.695  0.2650 -0.0066 -0.0539
 8997DDP     C353981  21.856  17.529  16.563 -0.0067  0.0627  0.2707
 8997DDP     C453982  21.829  17.320  17.607 -0.3932  0.0347  0.2045
 8998DDP     C153983   9.706   6.615  21.333  0.0540  0.1852  0.0934
 8998DDP     P153984   9.663   6.710  21.761 -0.0649 -0.1418  0.1149
 8998DDP     P253985  10.081   6.377  21.132 -0.1079  0.2552 -0.1751
 8998DDP     C253986  10.517   6.617  21.002  0.3033  0.2214  0.0122
 8998DDP     C353987   9.318   6.895  21.942 -0.2309 -0.0771  0.0460
 8998DDP     C453988   9.583   7.012  21.215 -0.1710 -0.1032  0.1284
 8999DDP     C153989  15.983  30.127   8.961  0.2190 -0.1491  0.0962
 8999DDP     P153990  15.806  30.065   9.343 -0.3583 -0.1925 -0.0311
 8999DDP     P253991  15.634  29.985   8.585 -0.0321 -0.3835 -0.0433
 8999DDP     C253992  15.334  30.157   8.356 -0.0438  0.1065 -0.1316
 8999DDP     C353993  15.898   0.008   9.623  0.4285 -0.0645 -0.1163
 8999DDP     C453994  16.335   0.173   8.908  0.2124  0.1084 -0.0907
 9000DDP     C153995  29.333   8.908  17.781 -0.0503  0.3138  0.3116
 9000DDP     P153996  29.092   8.593  17.579  0.2574 -0.0511  0.1401
 9000DDP     P253997  29.561   9.140  17.497 -0.4980  0.3280 -0.0264
 9000DDP     C253998  29.809   9.168  17.231  0.1352 -0.1198 -0.1651
 9000DDP     C353999  29.141   8.403  17.243 -0.3206 -0.1299  0.2948
 9000DDP     C454000  29.555   8.888  18.207  0.1306 -0.1219 -0.0433
 9001DDP     C154001   1.711  29.329   3.706  0.0245 -0.0333  0.0927
 9001DDP     P154002   1.562  28.992   3.624  0.2008  0.1631 -0.1757
 9001DDP     P254003   1.994  29.403   4.058  0.2703 -0.0823  0.3107
 9001DDP     C254004   2.368  29.384   3.877 -0.1155  0.0919 -0.0187
 9001DDP     C354005   1.211  28.772   3.853 -0.1517 -0.0505 -0.2415
 9001DDP     C454006   1.901  29.632   3.493  0.1070  0.1128 -0.1617
 9002DDP     C154007   8.132   3.272  26.193 -0.3464 -0.0367 -0.2180
 9002DDP     P154008   8.520   3.225  26.212 -0.3162  0.3681 -0.1280
 9002DDP     P254009   7.637   3.395  26.303  0.0351  0.1998  0.1203
 9002DDP     C254010   7.319   3.228  26.513 -0.0211 -0.0439 -0.3630
 9002DDP     C354011   8.778   3.522  26.447  0.0882  0.1170 -0.1997
 9002DDP     C454012   8.173   2.990  25.896 -0.4341  0.0530 -0.0493
 9003DDP     C154013  28.047  24.322  10.440  0.2107 -0.0944  0.1424
 9003DDP     P154014  28.141  23.967  10.247 -0.0544  0.1681  0.2015
 9003DDP     P254015  27.974  24.303  10.868  0.0302  0.0577 -0.0231
 9003DDP     C254016  27.873  24.000  11.170  0.5264  0.0324 -0.1670
 9003DDP     C354017  27.756  23.923   9.950 -0.1551  0.0892 -0.1510
 9003DDP     C454018  28.228  24.706  10.254  0.2777 -0.1810 -0.1542
 9004DDP     C154019   2.716  17.097  24.000  0.1031 -0.0800 -0.0157
 9004DDP     P154020   2.962  17.231  23.671  0.2836 -0.0661 -0.2420
 9004DDP     P254021   2.595  17.399  24.278  0.0317  0.3309  0.0892
 9004DDP     C254022   2.547  17.890  24.340  0.0205  0.0698 -0.1582
 9004DDP     C354023   3.002  17.179  23.194  0.0978 -0.0875 -0.2804
 9004DDP     C454024   2.586  16.648  23.963  0.0516 -0.3034  0.2527
 9005DDP     C154025  22.253   1.866   1.122 -0.0351 -0.2240  0.1696
 9005DDP     P154026  22.243   2.094   0.764 -0.1093  0.0073  0.0340
 9005DDP     P254027  22.124   1.435   1.013  0.2755 -0.2805  0.1556
 9005DDP     C254028  21.978   1.017   0.999 -0.0009  0.1316 -0.2139
 9005DDP     C354029  22.368   2.283   0.436 -0.2165  0.1111  0.0491
 9005DDP     C454030  22.526   2.068   1.499  0.0034 -0.0769 -0.0568
 9006DDP     C154031  27.502  12.944  11.037  0.2295  0.3291 -0.0871
 9006DDP     P154032  27.759  12.815  11.377  0.0222 -0.1095 -0.1365
 9006DDP     P254033  27.617  13.302  10.870 -0.0438  0.1881  0.0719
 9006DDP     C254034  27.784  13.801  10.835 -0.2607 -0.0953 -0.0293
 9006DDP     C354035  28.089  12.652  11.580 -0.0259 -0.0073 -0.2253
 9006DDP     C454036  27.045  12.762  10.846 -0.1831 -0.0380  0.1404
 9007DDP     C154037   9.120  20.907  23.519  0.1651 -0.1189 -0.4839
 9007DDP     P154038   8.916  21.154  23.116 -0.1774 -0.0980  0.0415
 9007DDP     P254039   8.912  20.644  23.750  0.0795 -0.0648 -0.2066
 9007DDP     C254040   9.019  20.345  23.993 -0.1751 -0.3077 -0.0741
 9007DDP     C354041   8.704  21.447  22.900  0.3394  0.1318  0.0182
 9007DDP     C454042   9.542  20.863  23.366  0.1686  0.1887  0.0841
 9008DDP     C154043  10.072  18.251  14.162 -0.0795 -0.0571  0.3042
 9008DDP     P154044   9.669  18.355  13.896 -0.1043 -0.4789  0.0079
 9008DDP     P254045  10.227  18.516  14.490  0.0398 -0.0006 -0.1108
 9008DDP     C254046  10.126  18.824  14.753 -0.2600  0.0151  0.2031
 9008DDP     C354047   9.399  18.084  13.669 -0.0510 -0.0694 -0.3872
 9008DDP     C454048  10.415  17.903  13.995  0.1498  0.0962  0.1079
 9009DDP     C154049   6.898  28.863  14.947  0.3463  0.3311  0.1416
 9009DDP     P154050   7.340  28.734  14.930 -0.0629 -0.0403  0.1233
 9009DDP     P254051   6.676  28.496  14.875 -0.0600 -0.0854  0.4050
 9009DDP     C254052   6.205  28.451  14.928  0.1947 -0.1183  0.0482
 9009DDP     C354053   7.592  28.617  14.501  0.0003 -0.0451  0.1000
 9009DDP     C454054   6.768  29.224  14.791 -0.3097  0.1556 -0.3501
 9010DDP     C154055  11.720  16.657  23.043  0.0176  0.0988  0.1067
 9010DDP     P154056  11.381  16.491  22.798  0.0013  0.2195  0.1194
 9010DDP     P254057  12.054  16.597  22.836 -0.0003  0.1435  0.1993
 9010DDP     C254058  12.193  16.746  22.482  0.0759  0.0301 -0.0053
 9010DDP     C354059  11.053  16.598  22.609 -0.0804  0.1852  0.2522
 9010DDP     C454060  11.853  16.781  23.540  0.1843  0.1304 -0.0222
 9011DDP     C154061  15.594   1.743  23.473  0.1022 -0.0910 -0.0862
 9011DDP     P154062  15.812   1.401  23.410 -0.1040 -0.0098  0.1534
 9011DDP     P254063  15.201   1.697  23.640  0.0101 -0.0958  0.1477
 9011DDP     C254064  14.832   2.002  23.785  0.2747  0.0083  0.2022
 9011DDP     C354065  15.980   0.906  23.455 -0.0896  0.0524 -0.1979
 9011DDP     C454066  15.650   2.204  23.424  0.3074  0.0568 -0.1333
 9012DDP     C154067   4.944  11.223  17.796 -0.0048  0.1543  0.0832
 9012DDP     P154068   4.997  11.588  17.524 -0.0270  0.0623 -0.0089
 9012DDP     P254069   5.383  11.014  17.627  0.0996  0.1863  0.3087
 9012DDP     C254070   5.570  10.956  17.159 -0.0886 -0.2779  0.1735
 9012DDP     C354071   5.298  11.761  17.108  0.1783  0.1378  0.0037
 9012DDP     C454072   4.785  11.092  18.122  0.0797  0.1444  0.0157
 9013DDP     C154073  19.728  16.826  18.717 -0.1439 -0.0672  0.1664
 9013DDP     P154074  19.688  17.045  18.349  0.0072  0.0130 -0.0139
 9013DDP     P254075  19.303  16.676  18.769 -0.1065  0.0172  0.0555
 9013DDP     C254076  18.896  16.547  18.644 -0.1897  0.1463  0.1668
 9013DDP     C354077  19.212  17.252  18.199 -0.0060  0.1899 -0.1164
 9013DDP     C454078  20.140  16.752  18.600 -0.3034  0.1874 -0.0562
 9014DDP     C154079  12.719  28.864   6.282  0.1644  0.3890  0.1057
 9014DDP     P154080  12.475  28.987   6.611 -0.1399 -0.0777 -0.1264
 9014DDP     P254081  13.220  28.684   6.332 -0.0858  0.1356 -0.1763
 9014DDP     C254082  13.645  28.618   6.255  0.2095 -0.0929  0.1602
 9014DDP     C354083  12.108  28.901   6.658  0.2404 -0.0435 -0.1037
 9014DDP     C454084  12.599  28.845   5.926  0.2239 -0.0403 -0.1577
 9015DDP     C154085  14.514  16.502  11.242 -0.0186 -0.2545 -0.2744
 9015DDP     P154086  14.378  16.270  10.863  0.0156 -0.1652  0.1709
 9015DDP     P254087  14.470  16.261  11.597  0.1497  0.1533 -0.3450
 9015DDP     C254088  14.224  16.466  11.905  0.0449  0.2479 -0.0042
 9015DDP     C354089  14.648  16.054  10.608  0.3143  0.0057 -0.0494
 9015DDP     C454090  14.871  16.898  11.249 -0.4549  0.1464  0.0060
 9016DDP     C154091  11.931   5.914  19.316  0.2230  0.0745  0.2130
 9016DDP     P154092  11.992   6.291  19.227 -0.0113 -0.2970  0.0383
 9016DDP     P254093  11.585   6.007  19.573 -0.2317 -0.0558 -0.3632
 9016DDP     C254094  11.430   5.914  20.048  0.1365  0.2573 -0.2936
 9016DDP     C354095  11.832   6.623  18.869  0.3032  0.0203  0.1053
 9016DDP     C454096  12.211   5.652  19.355 -0.3544 -0.3608  0.0704
 9017DDP     C154097   3.724  24.760  29.831  0.1725 -0.1774 -0.2298
 9017DDP     P154098   3.246  24.719  29.766 -0.1152 -0.1490 -0.0806
 9017DDP     P254099   3.860  25.099  29.600  0.0410 -0.2191  0.0453
 9017DDP     C254100   3.549  25.402  29.416  0.0591  0.0081  0.0418
 9017DDP     C354101   3.172  25.107  29.628 -0.0328 -0.2190 -0.3169
 9017DDP     C454102   4.034  24.498  30.017 -0.1192 -0.0445  0.1995
 9018DDP     C154103  29.658  15.350   0.367  0.1359  0.0153 -0.2819
 9018DDP     P154104  29.567  15.089   0.717  0.0160 -0.0804  0.0218
 9018DDP     P254105  29.482  15.823   0.252 -0.0718 -0.0015 -0.3086
 9018DDP     C254106  29.049  16.050   0.444 -0.0920  0.1098  0.0539
 9018DDP     C354107  29.797  14.990   1.063 -0.3971  0.1827  0.3016
 9018DDP     C454108  30.082  15.504   0.257  0.0631  0.1214  0.1722
 9019DDP     C154109  11.341  16.573   7.141  0.1635 -0.0571  0.2111
 9019DDP     P154110  11.143  16.764   7.474  0.1492 -0.2210 -0.0087
 9019DDP     P254111  11.086  16.556   6.652 -0.1047 -0.2834  0.0178
 9019DDP     C254112  10.910  16.594   6.223  0.0127 -0.0309 -0.1257
 9019DDP     C354113  10.826  17.110   7.496 -0.0220 -0.2857 -0.2357
 9019DDP     C454114  11.704  16.389   6.793 -0.1122 -0.3746  0.1890
 9020DDP     C154115  16.911  24.134   6.298  0.0771 -0.1492 -0.2345
 9020DDP     P154116  17.143  23.793   6.554  0.1251 -0.2924  0.4192
 9020DDP     P254117  16.590  23.944   6.227  0.1190 -0.1649 -0.3402
 9020DDP     C254118  16.218  23.736   6.171  0.0020 -0.1289 -0.3256
 9020DDP     C354119  17.162  23.752   6.999  0.1268  0.0177 -0.2533
 9020DDP     C454120  17.061  24.369   5.974 -0.1824 -0.1206 -0.0091
 9021DDP     C154121  29.116  28.760   9.813  0.0779  0.1667  0.1695
 9021DDP     P154122  29.266  28.974  10.242 -0.0028 -0.0729 -0.1631
 9021DDP     P254123  28.812  28.465   9.785  0.0706 -0.2942  0.2610
 9021DDP     C254124  28.927  28.012   9.686  0.2198  0.1613  0.1184
 9021DDP     C354125  29.464  29.167  10.577 -0.1883  0.3391  0.2033
 9021DDP     C454126  29.326  28.912   9.496  0.0225  0.1565  0.0106
 9022DDP     C154127  13.280   8.561   4.228  0.2098 -0.1996 -0.3424
 9022DDP     P154128  13.181   8.322   4.535  0.0227  0.0926 -0.0889
 9022DDP     P254129  13.189   8.488   3.815 -0.1038  0.2267  0.2262
 9022DDP     C254130  12.873   8.259   3.500 -0.1670  0.0856 -0.0415
 9022DDP     C354131  13.132   7.924   4.512  0.0948 -0.1203 -0.0605
 9022DDP     C454132  13.599   9.027   4.368  0.1277  0.2135  0.0822
 9023DDP     C154133  20.415  17.255  16.932 -0.1597 -0.0881  0.1817
 9023DDP     P154134  20.111  17.336  16.657 -0.2973  0.1529  0.0407
 9023DDP     P254135  20.625  17.471  17.055  0.1086  0.3808  0.1698
 9023DDP     C254136  20.803  17.876  16.925 -0.0512 -0.1326  0.0508
 9023DDP     C354137  19.921  17.531  16.326 -0.0136 -0.0340 -0.2147
 9023DDP     C454138  20.492  16.924  17.137 -0.3016  0.1594  0.0992
 9024DDP     C154139   6.750  15.405  20.618  0.1225 -0.0679  0.1337
 9024DDP     P154140   6.527  15.066  20.527  0.0697 -0.0269  0.1489
 9024DDP     P254141   6.459  15.755  20.596 -0.2446  0.5068  0.2119
 9024DDP     C254142   6.080  15.841  20.358 -0.0591 -0.0205  0.1537
 9024DDP     C354143   6.148  14.934  20.553  0.1492  0.1529  0.0136
 9024DDP     C454144   7.166  15.402  20.532  0.2955 -0.1650 -0.1368
 9025DDP     C154145  12.844  22.205   5.436  0.0700  0.1098 -0.1435
 9025DDP     P154146  12.456  22.262   5.169  0.4195  0.0185 -0.4943
 9025DDP     P254147  12.991  21.770   5.460  0.0455  0.0605 -0.1866
 9025DDP     C254148  12.774  21.409   5.405 -0.2469 -0.2930 -0.0243
 9025DDP     C354149  11.922  22.384   5.299  0.3740 -0.0367 -0.0640
 9025DDP     C454150  13.054  22.507   5.584 -0.0952 -0.0719 -0.0902
 9026DDP     C154151  25.671  22.610  27.556  0.0890  0.0346  0.3401
 9026DDP     P154152  25.602  22.856  27.206 -0.1756 -0.3111 -0.2157
 9026DDP     P254153  25.354  22.440  27.697 -0.3931  0.1288  0.2829
 9026DDP     C254154  25.274  22.221  28.109 -0.0845  0.1158 -0.1003
 9026DDP     C354155  25.999  23.105  27.038 -0.1094 -0.0799 -0.1091
 9026DDP     C454156  26.079  22.687  27.698 -0.1385  0.0699  0.2081
 9027DDP     C154157   7.211  13.010   3.999 -0.1002  0.1331  0.2774
 9027DDP     P154158   7.385  12.771   4.312  0.2330 -0.2873  0.1041
 9027DDP     P254159   6.795  12.932   3.822  0.0807 -0.1468 -0.4643
 9027DDP     C254160   6.586  12.709   3.355  0.2222  0.0699  0.0260
 9027DDP     C354161   7.748  12.833   4.622  0.2511 -0.1866  0.1079
 9027DDP     C454162   7.407  13.418   3.931 -0.0302  0.2904 -0.1548
 9028DDP     C154163  11.637   6.838  13.291  0.0641  0.0029 -0.0435
 9028DDP     P154164  11.965   6.811  13.601  0.0469  0.0374 -0.0478
 9028DDP     P254165  11.356   6.429  13.116 -0.0237 -0.0807  0.1623
 9028DDP     C254166  11.038   6.461  12.832 -0.0212  0.0451 -0.0574
 9028DDP     C354167  12.373   6.871  13.638  0.2274  0.0917  0.1588
 9028DDP     C454168  11.741   7.120  12.947  0.0868  0.0202 -0.1492
 9029DDP     C154169   2.044  17.771  24.544 -0.0590  0.0253  0.0322
 9029DDP     P154170   1.827  17.504  25.020  0.1043 -0.2128  0.0217
 9029DDP     P254171   2.178  18.212  24.335 -0.1770  0.2402 -0.1851
 9029DDP     C254172   2.325  18.388  24.034 -0.5734  0.2296 -0.0303
 9029DDP     C354173   2.076  17.200  25.153 -0.0808 -0.1525 -0.0184
 9029DDP     C454174   2.108  17.530  24.176 -0.2659  0.0891 -0.0582
 9030DDP     C154175  18.919  19.698  16.570  0.1206  0.0237 -0.0550
 9030DDP     P154176  19.107  19.501  16.251 -0.2550  0.3187 -0.2551
 9030DDP     P254177  18.623  19.373  16.926  0.0824 -0.2834  0.1357
 9030DDP     C254178  18.375  19.284  17.276  0.0046 -0.0290 -0.2123
 9030DDP     C354179  19.404  19.541  15.818 -0.0025  0.2148  0.1498
 9030DDP     C454180  19.117  20.049  16.646 -0.1761 -0.3747 -0.1768
 9031DDP     C154181   1.259  23.578   5.303  0.0801  0.0644 -0.1290
 9031DDP     P154182   1.537  23.738   5.669  0.0286 -0.0642  0.1546
 9031DDP     P254183   1.117  23.307   5.468  0.2088  0.1321 -0.1136
 9031DDP     C254184   1.418  23.202   5.846  0.3008 -0.1582 -0.1789
 9031DDP     C354185   1.923  23.724   6.096 -0.0238 -0.1888  0.0405
 9031DDP     C454186   1.365  23.632   4.848  0.2023  0.5390  0.1698
 9032DDP     C154187   3.428  28.941  21.184  0.0993  0.1145 -0.3051
 9032DDP     P154188   3.532  29.276  21.513 -0.0508 -0.1532 -0.2677
 9032DDP     P254189   2.968  29.052  21.031 -0.2625 -0.0133 -0.1339
 9032DDP     C254190   2.533  29.133  21.012  0.0906 -0.0998 -0.1027
 9032DDP     C354191   3.435  29.627  21.820  0.0194  0.1960 -0.0482
 9032DDP     C454192   3.783  28.602  21.169 -0.1297 -0.0589 -0.1973
 9033DDP     C154193  29.288   8.268   9.579 -0.1994 -0.0370  0.1670
 9033DDP     P154194  29.274   8.009   9.262  0.1101  0.0526 -0.1807
 9033DDP     P254195  29.347   8.147  10.019  0.1523  0.0767  0.0162
 9033DDP     C254196  29.762   8.207  10.391  0.2398  0.2314  0.1753
 9033DDP     C354197  29.217   7.798   8.932 -0.3291  0.0539 -0.2597
 9033DDP     C454198  29.368   8.638   9.949 -0.2275  0.1221 -0.0079
 9034DDP     C154199  12.234  24.170   7.533  0.1104 -0.3534 -0.1039
 9034DDP     P154200  11.919  24.043   7.323  0.2585 -0.0661 -0.0188
 9034DDP     P254201  12.227  24.556   7.519  0.3301 -0.2197 -0.0975
 9034DDP     C254202  12.058  24.750   7.846 -0.0465  0.1354  0.1458
 9034DDP     C354203  11.681  24.196   7.064 -0.1365 -0.1822  0.3266
 9034DDP     C454204  12.394  23.880   7.842 -0.2376 -0.3606  0.1224
 9035DDP     C154205  12.609  26.749  17.160 -0.0443 -0.3545  0.0580
 9035DDP     P154206  12.483  27.001  17.444 -0.3689 -0.0238  0.1353
 9035DDP     P254207  12.643  26.954  16.756 -0.0457 -0.1131 -0.0437
 9035DDP     C254208  12.929  27.325  16.562 -0.0224  0.4586 -0.1185
 9035DDP     C354209  12.216  27.241  17.749  0.0220 -0.0482  0.0872
 9035DDP     C454210  12.721  26.330  17.152 -0.1710  0.2920 -0.1546
 9036DDP     C154211  12.739   0.113  18.461 -0.2563  0.0998  0.0332
 9036DDP     P154212  12.542  30.201  18.736 -0.0681  0.0681 -0.3619
 9036DDP     P254213  12.624   0.195  18.016  0.2560 -0.0142 -0.0526
 9036DDP     C254214  12.334   0.059  17.545 -0.2375 -0.3341  0.0486
 9036DDP     C354215  12.365  29.781  18.907  0.0014  0.3269  0.3003
 9036DDP     C454216  13.180   0.311  18.573  0.0071  0.4467  0.0842
 9037DDP     C154217  29.845  29.012  10.254  0.3003 -0.1642 -0.1731
 9037DDP     P154218  30.284  28.939  10.121  0.0940 -0.0999  0.1890
 9037DDP     P254219  29.749  29.450  10.245 -0.0756 -0.0144  0.2234
 9037DDP     C254220  29.490  29.713  10.017  0.1120  0.1802 -0.0566
 9037DDP     C354221   0.301  29.134   9.928  0.0348 -0.1132  0.1940
 9037DDP     C454222  29.662  28.731  10.459 -0.0829  0.0153 -0.0041
 9038DDP     C154223  19.266   5.259  13.666  0.5277  0.0016  0.2008
 9038DDP     P154224  19.029   5.389  13.951 -0.0433 -0.2180 -0.1460
 9038DDP     P254225  19.693   5.255  13.837 -0.0842 -0.0179 -0.1649
 9038DDP     C254226  19.904   5.571  13.705 -0.1965  0.0547 -0.0954
 9038DDP     C354227  18.850   5.266  14.312 -0.2974  0.0752 -0.1746
 9038DDP     C454228  18.921   5.044  13.505 -0.0047 -0.2052 -0.2810
 9039DDP     C154229   6.576   4.143  27.198  0.3939  0.4919  0.1245
 9039DDP     P154230   6.366   4.480  27.293  0.1804  0.2956  0.0919
 9039DDP     P254231   6.424   3.921  26.878  0.2701  0.0912 -0.1506
 9039DDP     C254232   6.091   3.672  26.792  0.1107  0.0812  0.1682
 9039DDP     C354233   5.989   4.736  27.225 -0.1788 -0.3677 -0.3764
 9039DDP     C454234   6.935   3.985  27.475 -0.0144 -0.2098  0.0428
 9040DDP     C154235  30.044   6.824  21.751  0.0042 -0.1263 -0.0189
 9040DDP     P154236   0.003   7.142  21.513 -0.3939  0.1311 -0.3237
 9040DDP     P254237  29.864   6.762  22.111  0.0202 -0.3390 -0.1735
 9040DDP     C254238  29.611   6.365  22.290  0.2346 -0.1104 -0.0632
 9040DDP     C354239   0.349   7.186  21.257 -0.1724 -0.3042  0.1504
 9040DDP     C454240  30.162   6.500  21.559  0.0265  0.0151 -0.0537
 9041DDP     C154241  26.077  29.504  22.145  0.1378 -0.1509 -0.3676
 9041DDP     P154242  26.184  29.334  22.477  0.0386 -0.0643  0.1563
 9041DDP     P254243  25.921  29.957  22.153 -0.0250 -0.3024 -0.1923
 9041DDP     C254244  25.891  -0.008  21.919 -0.2682 -0.0826 -0.1289
 9041DDP     C354245  26.063  29.239  22.880 -0.0995  0.0070  0.1256
 9041DDP     C454246  25.927  29.238  21.814 -0.2230  0.0368  0.0185
 9042DDP     C154247  30.020  28.449  10.215  0.1580 -0.0155 -0.0154
 9042DDP     P154248   0.221  28.546  10.048 -0.0617  0.1406 -0.2080
 9042DDP     P254249  29.971  28.283   9.790  0.1948 -0.4488 -0.1299
 9042DDP     C254250  29.995  27.872   9.818  0.1353 -0.0964  0.2931
 9042DDP     C354251   0.562  28.840  10.207 -0.2555  0.1334 -0.3532
 9042DDP     C454252  29.764  28.227  10.511 -0.5189  0.0826  0.0702
 9043DDP     C154253  15.640   2.658  11.672 -0.3754 -0.1875 -0.0367
 9043DDP     P154254  15.976   2.962  11.540 -0.1770  0.2467 -0.1744
 9043DDP     P254255  15.306   2.953  11.490  0.0642  0.0510  0.2317
 9043DDP     C254256  14.963   3.052  11.147  0.2363 -0.2124 -0.0712
 9043DDP     C354257  16.134   3.217  11.847 -0.2173  0.2099 -0.1050
 9043DDP     C454258  15.666   2.342  11.901 -0.1719 -0.1458  0.2029
 9044DDP     C154259  20.763   2.783  20.193  0.0189  0.0622  0.3904
 9044DDP     P154260  21.012   2.424  20.056  0.0383  0.0513 -0.3566
 9044DDP     P254261  20.463   2.557  20.391 -0.1425 -0.3503 -0.3849
 9044DDP     C254262  20.027   2.497  20.287 -0.2421 -0.2664  0.0695
 9044DDP     C354263  21.257   2.384  19.684  0.1144 -0.1982  0.0960
 9044DDP     C454264  20.701   3.130  20.026  0.1026  0.2766  0.0038
 9045DDP     C154265  28.212  28.375  26.953 -0.4015  0.1026  0.3053
 9045DDP     P154266  28.663  28.603  26.949  0.4889 -0.3570 -0.1982
 9045DDP     P254267  28.225  27.970  26.705  0.0625 -0.1017 -0.0169
 9045DDP     C254268  28.095  27.858  26.333 -0.0549 -0.0375 -0.2126
 9045DDP     C354269  28.826  29.064  26.752  0.0477  0.1214  0.0477
 9045DDP     C454270  27.839  28.390  27.315 -0.1666  0.2076 -0.2273
 9046DDP     C154271   7.665  24.079   9.852 -0.0769 -0.1137  0.1366
 9046DDP     P154272   7.991  23.832  10.095  0.0699 -0.0450 -0.4004
 9046DDP     P254273   7.461  24.504   9.911 -0.1057  0.0022 -0.2807
 9046DDP     C254274   7.124  24.713  10.082  0.0327 -0.0284 -0.0026
 9046DDP     C354275   8.447  23.958  10.091  0.4111  0.0529  0.1638
 9046DDP     C454276   7.546  23.844   9.571  0.1385  0.4734  0.0469
 9047DDP     C154277  17.229  13.548   3.168  0.0801 -0.0877  0.3586
 9047DDP     P154278  17.249  13.784   3.590 -0.1409  0.2814 -0.2655
 9047DDP     P254279  17.579  13.347   2.886  0.4768 -0.1925 -0.1134
 9047DDP     C254280  17.714  13.058   2.502  0.0670 -0.0313  0.0330
 9047DDP     C354281  17.538  13.941   3.942  0.2424  0.0600 -0.0338
 9047DDP     C454282  16.973  13.551   2.769  0.1324  0.0007  0.1671
 9048DDP     C154283   0.243  20.366  11.657  0.1460  0.2475 -0.0244
 9048DDP     P154284  -0.029  20.657  11.245 -0.3413  0.0785  0.0345
 9048DDP     P254285  30.289  19.996  11.842  0.1398  0.3081 -0.5571
 9048DDP     C254286  29.882  19.589  11.895 -0.3227 -0.5726 -0.0583
 9048DDP     C354287  29.971  20.888  11.301  0.1888 -0.0882  0.0232
 9048DDP     C454288   0.627  20.382  11.826 -0.3338 -0.1751  0.0500
 9049DDP     C154289  22.325   8.569  15.594 -0.2944  0.0011 -0.2255
 9049DDP     P154290  22.512   8.385  15.182  0.0332  0.0078 -0.0888
 9049DDP     P254291  22.496   8.871  15.821 -0.1763 -0.0142 -0.0855
 9049DDP     C254292  22.846   8.962  15.594  0.0389 -0.1436  0.3156
 9049DDP     C354293  22.855   8.382  14.814  0.0851  0.0278 -0.0982
 9049DDP     C454294  21.940   8.446  15.768 -0.2382 -0.1707 -0.0330
 9050DDP     C154295  24.001   2.649   2.306  0.1078  0.0712 -0.0915
 9050DDP     P154296  24.350   2.713   2.116 -0.3055  0.1482  0.1728
 9050DDP     P254297  23.821   2.312   2.332 -0.2322  0.0914 -0.0756
 9050DDP     C254298  23.752   1.931   1.972  0.0307 -0.1658  0.1179
 9050DDP     C354299  24.351   2.641   1.721  0.0951 -0.2212 -0.1348
 9050DDP     C454300  23.999   2.744   2.707  0.1590 -0.2605  0.1080
 9051DDP     C154301  11.687  22.984  14.010  0.2141 -0.3202  0.3150
 9051DDP     P154302  11.717  22.877  13.629  0.0339 -0.2567  0.2666
 9051DDP     P254303  11.319  22.876  14.098 -0.2881 -0.1525  0.1627
 9051DDP     C254304  11.240  22.461  14.243 -0.2636  0.0549  0.1706
 9051DDP     C354305  11.893  22.982  13.258  0.2137  0.0672  0.0824
 9051DDP     C454306  12.061  23.093  14.248  0.4012 -0.1379 -0.1110
 9052DDP     C154307  13.526   1.511  29.490  0.4921  0.0548 -0.0388
 9052DDP     P154308  13.536   1.979  29.810  0.3386 -0.0101 -0.0291
 9052DDP     P254309  13.957   1.648  29.584 -0.2940  0.0267  0.2872
 9052DDP     C254310  14.325   2.037  29.634 -0.0194 -0.2484  0.1842
 9052DDP     C354311  13.448   2.338  29.844  0.0951 -0.2305 -0.1100
 9052DDP     C454312  13.227   1.246  29.451 -0.1180 -0.1623 -0.1240
 9053DDP     C154313  24.918   7.379  24.517  0.0170 -0.0602  0.2540
 9053DDP     P154314  24.577   7.416  24.334  0.0008  0.1039  0.1446
 9053DDP     P254315  24.940   7.102  24.672 -0.1155  0.0099 -0.2567
 9053DDP     C254316  25.264   7.121  25.133  0.1657 -0.0747 -0.0542
 9053DDP     C354317  24.360   7.823  24.376  0.1231  0.0117  0.0826
 9053DDP     C454318  25.278   7.563  24.381  0.0987  0.1358 -0.1360
 9054DDP     C154319  29.683  23.180  11.689 -0.2272 -0.0529 -0.4138
 9054DDP     P154320  29.872  23.594  11.662  0.0520  0.1295  0.0010
 9054DDP     P254321  29.990  22.979  11.939 -0.2668  0.0131 -0.2773
 9054DDP     C254322  30.073  22.620  12.271  0.0875 -0.1319  0.3361
 9054DDP     C354323  29.838  24.059  11.456 -0.0809 -0.0938  0.1373
 9054DDP     C454324  29.216  23.031  11.707  0.0645  0.1687  0.2821
 9055DDP     C154325  14.063  17.448  15.642 -0.0098 -0.4631  0.1561
 9055DDP     P154326  13.661  17.344  15.853  0.0864  0.1623 -0.1742
 9055DDP     P254327  14.048  17.808  15.359  0.2376  0.1039 -0.4568
 9055DDP     C254328  14.035  18.324  15.197  0.0214  0.0477 -0.2325
 9055DDP     C354329  13.573  17.050  16.132  0.1586  0.0936 -0.1123
 9055DDP     C454330  14.345  17.372  15.966  0.0187 -0.0423  0.0047
 9056DDP     C154331   2.596  26.186  24.445 -0.2134 -0.1021 -0.0768
 9056DDP     P154332   2.189  26.387  24.208 -0.0195  0.1072  0.0242
 9056DDP     P254333   2.949  26.204  24.025  0.4224  0.1754 -0.2282
 9056DDP     C254334   3.239  26.077  23.749  0.1483  0.3093 -0.0395
 9056DDP     C354335   1.843  26.703  24.225 -0.0043 -0.0135 -0.2248
 9056DDP     C454336   2.486  25.681  24.703 -0.1565 -0.3440  0.1088
 9057DDP     C154337   3.679  20.125  24.463  0.2441 -0.1501  0.1853
 9057DDP     P154338   3.968  19.697  24.539 -0.1203 -0.3624 -0.0683
 9057DDP     P254339   3.603  20.270  24.092 -0.0944 -0.0810  0.1612
 9057DDP     C254340   3.801  20.425  23.699  0.3729 -0.1247 -0.1794
 9057DDP     C354341   4.338  19.444  24.777  0.0996 -0.0848  0.3764
 9057DDP     C454342   3.439  20.188  24.795  0.3315 -0.1563 -0.0503
 9058DDP     C154343  17.773  21.071  26.160 -0.1762  0.2633 -0.0051
 9058DDP     P154344  17.809  20.915  26.541 -0.0856  0.0813  0.1611
 9058DDP     P254345  18.018  21.433  26.145  0.2592 -0.1422 -0.0279
 9058DDP     C254346  18.299  21.652  26.309 -0.1643  0.0355  0.1775
 9058DDP     C354347  17.913  20.874  27.002  0.3744 -0.0115 -0.2186
 9058DDP     C454348  17.445  20.925  25.891  0.1374  0.1833 -0.1649
 9059DDP     C154349  13.182   0.788  26.157 -0.0690  0.1428 -0.0762
 9059DDP     P154350  13.281   0.719  26.521  0.3026  0.2767  0.0857
 9059DDP     P254351  13.101   1.114  25.955  0.1419  0.1059  0.1229
 9059DDP     C254352  12.637   1.098  25.955 -0.0945 -0.1955  0.3451
 9059DDP     C354353  13.729   0.741  26.707  0.2122  0.0612  0.2221
 9059DDP     C454354  13.121   0.362  26.042  0.1173 -0.1948 -0.1061
 9060DDP     C154355   1.198  14.921  15.239  0.1348  0.0534  0.2954
 9060DDP     P154356   0.883  14.907  14.967 -0.0067 -0.1500 -0.0541
 9060DDP     P254357   1.670  14.759  15.400 -0.1651  0.0251  0.2849
 9060DDP     C254358   2.132  14.936  15.397  0.0701  0.0176 -0.2236
 9060DDP     C354359   0.609  14.570  15.048  0.0285  0.1385  0.1789
 9060DDP     C454360   0.961  15.120  15.566 -0.0384  0.2612  0.0673
 9061DDP     C154361   8.119  13.609   4.420 -0.0626 -0.3319 -0.2140
 9061DDP     P154362   7.973  13.400   4.820  0.0107  0.0321 -0.0521
 9061DDP     P254363   8.504  13.461   4.500  0.3758 -0.1072 -0.0392
 9061DDP     C254364   8.876  13.780   4.399  0.2956  0.2749 -0.2705
 9061DDP     C354365   8.040  13.095   4.992  0.2526 -0.2535  0.0766
 9061DDP     C454366   7.927  13.964   4.164  0.1472  0.0852  0.2595
 9062DDP     C154367   4.570  14.478  21.660 -0.1952  0.1632  0.1260
 9062DDP     P154368   4.598  14.793  21.515  0.1013 -0.2905  0.2255
 9062DDP     P254369   4.170  14.469  21.445  0.5267  0.0295  0.0259
 9062DDP     C254370   3.708  14.468  21.573  0.1948 -0.1104 -0.1271
 9062DDP     C354371   4.779  15.075  21.318 -0.0331  0.0229 -0.2384
 9062DDP     C454372   4.676  14.321  22.158  0.0384  0.1383 -0.1341
 9063DDP     C154373   4.348   2.139  20.069 -0.1705 -0.2121  0.0592
 9063DDP     P154374   4.288   1.782  20.457  0.0115 -0.0484 -0.1604
 9063DDP     P254375   4.733   2.247  19.915 -0.2070 -0.1915 -0.0372
 9063DDP     C254376   4.982   1.943  19.724  0.2887 -0.2131  0.1603
 9063DDP     C354377   4.032   1.443  20.383 -0.0544  0.4295 -0.1633
 9063DDP     C454378   4.038   2.235  19.745 -0.1154  0.2346  0.2235
 9064DDP     C154379  28.895   0.582  18.425  0.0818 -0.2780 -0.1773
 9064DDP     P154380  29.123   0.934  18.412 -0.1071  0.0802  0.1547
 9064DDP     P254381  28.886   0.326  17.989 -0.0511  0.1229 -0.0521
 9064DDP     C254382  29.114   0.408  17.620  0.1603  0.0264 -0.2339
 9064DDP     C354383  29.082   1.234  18.757  0.1450 -0.5947  0.0080
 9064DDP     C454384  28.882   0.369  18.826 -0.0742  0.0264  0.1244
 9065DDP     C154385  21.292   6.068  23.567 -0.1499 -0.0370  0.0209
 9065DDP     P154386  21.043   6.040  23.891 -0.0917 -0.1264  0.0242
 9065DDP     P254387  21.180   5.914  23.261 -0.0579 -0.1198  0.3003
 9065DDP     C254388  21.150   5.777  22.861 -0.2650  0.2048  0.0124
 9065DDP     C354389  21.017   5.990  24.366 -0.1900  0.0016  0.1923
 9065DDP     C454390  21.682   6.285  23.323 -0.0653  0.0375 -0.0906
 9066DDP     C154391   4.946  13.483  29.801 -0.1014  0.1085  0.0642
 9066DDP     P154392   4.933  13.752  29.537 -0.2295  0.1519 -0.0757
 9066DDP     P254393   4.683  13.224  30.072  0.2586 -0.2987  0.0490
 9066DDP     C254394   4.754  12.889  30.233  0.1185 -0.2676  0.0121
 9066DDP     C354395   5.348  13.891  29.403 -0.0680 -0.1451 -0.3850
 9066DDP     C454396   5.345  13.457  29.676 -0.0813  0.0033 -0.0115
 9067DDP     C154397   8.588  19.882  16.837  0.0792  0.2011  0.1354
 9067DDP     P154398   8.679  19.564  17.172 -0.0680 -0.0828  0.2498
 9067DDP     P254399   8.919  20.034  16.468  0.0210 -0.0295 -0.2580
 9067DDP     C254400   9.008  19.804  16.041 -0.0512 -0.0858 -0.1044
 9067DDP     C354401   8.662  19.367  17.493  0.1598 -0.0001 -0.0593
 9067DDP     C454402   8.217  19.972  16.681  0.2329  0.1413  0.1010
 9068DDP     C154403  12.748  30.137  17.684  0.0160  0.1873 -0.1437
 9068DDP     P154404  13.091   0.111  17.522 -0.1225 -0.2160 -0.0813
 9068DDP     P254405  12.685  30.028  18.186 -0.0139  0.1138 -0.1699
 9068DDP     C254406  12.907  29.884  18.487 -0.1051  0.1549  0.1923
 9068DDP     C354407  13.378   0.493  17.658  0.1671  0.1505 -0.0291
 9068DDP     C454408  12.718  29.805  17.429 -0.3236 -0.2663 -0.2653
 9069DDP     C154409   6.473  24.250  14.901 -0.0071 -0.1559  0.1697
 9069DDP     P154410   6.486  23.896  14.533  0.0205  0.1797 -0.4624
 9069DDP     P254411   6.292  24.227  15.259  0.1593  0.0447  0.0847
 9069DDP     C254412   6.454  24.078  15.729 -0.1287  0.3735  0.0468
 9069DDP     C354413   6.132  23.821  14.259 -0.0465 -0.0665 -0.0023
 9069DDP     C454414   6.568  24.735  14.655  0.0101 -0.0139 -0.0727
 9070DDP     C154415  12.627  25.060  22.222 -0.4199  0.1797 -0.0195
 9070DDP     P154416  12.258  24.774  22.106 -0.1471  0.2998  0.0531
 9070DDP     P254417  13.034  24.873  22.040  0.0665  0.1923 -0.1944
 9070DDP     C254418  13.247  25.022  21.643  0.1112  0.1762  0.2281
 9070DDP     C354419  12.260  24.347  22.054 -0.0817  0.0332  0.1359
 9070DDP     C454420  12.650  25.290  22.526  0.5003 -0.2780 -0.0984
 9071DDP     C154421  11.904   0.552  19.179 -0.1614  0.0795 -0.0590
 9071DDP     P154422  11.848   0.456  18.692 -0.0665 -0.0791  0.1714
 9071DDP     P254423  12.070   0.188  19.479  0.1521  0.0366 -0.1522
 9071DDP     C254424  12.279  30.134  19.352  0.1304  0.4659 -0.0301
 9071DDP     C354425  12.186   0.377  18.326  0.1143  0.0047 -0.0497
 9071DDP     C454426  11.680   0.935  19.341  0.1280 -0.1052  0.0987
 9072DDP     C154427   3.206   8.532   4.957  0.1804  0.0349  0.0445
 9072DDP     P154428   3.229   8.182   4.677 -0.2985  0.0161  0.2045
 9072DDP     P254429   3.315   8.611   5.422 -0.2106 -0.2747 -0.1240
 9072DDP     C254430   3.534   8.941   5.615  0.4937  0.1253  0.0505
 9072DDP     C354431   2.985   7.851   4.755 -0.2066  0.0391  0.1227
 9072DDP     C454432   2.888   8.640   4.678 -0.1215 -0.1840 -0.2119
 9073DDP     C154433   2.022  21.489  27.572 -0.2821 -0.1101 -0.3537
 9073DDP     P154434   2.138  21.939  27.511 -0.2532  0.1339 -0.1840
 9073DDP     P254435   2.324  21.252  27.731 -0.2202 -0.1490 -0.0453
 9073DDP     C254436   2.653  20.812  27.674  0.1097 -0.1535  0.0043
 9073DDP     C354437   2.289  22.391  27.433  0.1438 -0.0839  0.0735
 9073DDP     C454438   1.695  21.272  27.393  0.1015 -0.1191 -0.2616
 9074DDP     C154439  17.540  19.712   1.156  0.0595  0.0189  0.0820
 9074DDP     P154440  17.406  19.996   0.816  0.0048 -0.0177 -0.0606
 9074DDP     P254441  17.508  19.611   1.653  0.2234  0.3138 -0.0695
 9074DDP     C254442  17.432  19.714   2.137 -0.1413  0.0598  0.1076
 9074DDP     C354443  17.436  20.205   0.447 -0.1889 -0.0375  0.1272
 9074DDP     C454444  17.786  19.384   1.010  0.5002  0.1013 -0.4345
 9075DDP     C154445  21.990   3.185  23.228 -0.1223  0.0349  0.2216
 9075DDP     P154446  22.088   3.490  23.117  0.2249  0.0994 -0.2123
 9075DDP     P254447  22.267   2.994  23.486  0.0971  0.1409 -0.2656
 9075DDP     C254448  22.257   2.667  23.537  0.0015  0.4226  0.2349
 9075DDP     C354449  21.819   3.714  22.838 -0.2160  0.1005 -0.0504
 9075DDP     C454450  21.654   3.030  23.098 -0.0260 -0.1365  0.0431
 9076DDP     C154451   9.643   8.689  15.236 -0.0006 -0.2039  0.2770
 9076DDP     P154452   9.774   8.405  15.028  0.3223  0.1956 -0.0739
 9076DDP     P254453   9.620   9.096  14.933  0.0125 -0.1606 -0.2543
 9076DDP     C254454   9.416   9.511  15.068  0.1605  0.0412  0.1126
 9076DDP     C354455   9.978   8.292  14.677  0.2322 -0.0064 -0.0145
 9076DDP     C454456   9.764   8.791  15.686 -0.0657 -0.2132  0.0857
 9077DDP     C154457  12.248  18.215   2.003 -0.0321 -0.1253  0.0055
 9077DDP     P154458  12.472  18.120   2.429  0.2310 -0.2693 -0.0357
 9077DDP     P254459  12.308  18.492   1.700 -0.1174  0.3270 -0.0729
 9077DDP     C254460  12.605  18.483   1.521 -0.0639 -0.0771  0.1462
 9077DDP     C354461  12.759  18.398   2.682  0.4417  0.1110 -0.0696
 9077DDP     C454462  11.730  18.218   2.090 -0.0630  0.1582 -0.0113
 9078DDP     C154463  28.381  24.612  15.761 -0.2396  0.0335  0.1248
 9078DDP     P154464  28.322  24.475  16.121  0.2434 -0.1400 -0.0193
 9078DDP     P254465  28.203  24.537  15.442 -0.2407 -0.1852  0.0001
 9078DDP     C254466  28.268  24.282  15.063 -0.1036  0.1553  0.1550
 9078DDP     C354467  27.929  24.350  16.236 -0.1742 -0.0176  0.1130
 9078DDP     C454468  28.768  24.772  15.696 -0.1238  0.3087 -0.2662
 9079DDP     C154469  26.914  22.197  22.056 -0.0714 -0.2088 -0.2876
 9079DDP     P154470  26.664  22.331  22.297 -0.0701  0.1767 -0.1593
 9079DDP     P254471  26.792  22.080  21.665 -0.1296  0.0303 -0.1280
 9079DDP     C254472  26.668  21.644  21.580 -0.1039  0.1275  0.1045
 9079DDP     C354473  26.244  22.246  22.457 -0.2169  0.0577 -0.2328
 9079DDP     C454474  27.280  22.012  22.198 -0.1935 -0.0131  0.0164
 9080DDP     C154475  25.894   1.878  26.114 -0.0686 -0.2832 -0.0040
 9080DDP     P154476  26.138   2.176  25.888  0.4674  0.0733  0.2326
 9080DDP     P254477  26.108   1.768  26.553  0.1328 -0.1553 -0.0974
 9080DDP     C254478  26.078   1.812  26.986 -0.1024 -0.1376  0.2198
 9080DDP     C354479  26.390   2.072  25.533  0.1539  0.1336 -0.2267
 9080DDP     C454480  25.503   1.672  26.125 -0.0458 -0.4337 -0.0029
 9081DDP     C154481   3.583   6.785  20.106  0.1843 -0.3677  0.2223
 9081DDP     P154482   3.131   6.800  20.173  0.0784 -0.2601 -0.0627
 9081DDP     P254483   3.760   6.863  19.769 -0.1693 -0.1113  0.2400
 9081DDP     C254484   3.964   6.866  19.432 -0.1622  0.3270  0.0463
 9081DDP     C354485   2.796   7.047  20.450 -0.0688  0.3492 -0.0493
 9081DDP     C454486   3.827   6.609  20.410 -0.0768 -0.4291  0.1529
 9082DDP     C154487  14.892  28.174  12.845 -0.0221 -0.0494  0.1356
 9082DDP     P154488  15.311  28.220  12.978 -0.0613 -0.1155 -0.1981
 9082DDP     P254489  14.620  28.466  13.014 -0.1523 -0.0541  0.0023
 9082DDP     C254490  14.364  28.824  12.950 -0.2548  0.0582 -0.0870
 9082DDP     C354491  15.666  28.054  13.269  0.2386 -0.1836 -0.3036
 9082DDP     C454492  14.937  27.874  12.463 -0.1974  0.2067  0.2539
 9083DDP     C154493  24.309  28.949  18.078  0.1530 -0.4114 -0.1520
 9083DDP     P154494  24.514  29.289  18.243 -0.0608 -0.4604  0.0693
 9083DDP     P254495  24.366  28.503  18.115 -0.0483  0.1185  0.1582
 9083DDP     C254496  24.719  28.191  18.074  0.0435  0.1403  0.3339
 9083DDP     C354497  24.725  29.664  18.080 -0.3924  0.0144 -0.0812
 9083DDP     C454498  23.997  29.066  17.900  0.0026  0.0238 -0.0611
 9084DDP     C154499   8.565   0.207   5.944  0.0423 -0.1084  0.1035
 9084DDP     P154500   8.446   0.170   6.387 -0.3204 -0.4904 -0.0335
 9084DDP     P254501   8.966   0.230   5.904 -0.1486 -0.6030 -0.1064
 9084DDP     C254502   9.274   0.275   5.572  0.0327 -0.4615 -0.3430
 9084DDP     C354503   8.135   0.055   6.662 -0.4600 -0.2519  0.1902
 9084DDP     C454504   8.256   0.438   5.557 -0.4510 -0.1300 -0.2350
 9085DDP     C154505  26.600  29.708  16.111  0.2477  0.0921  0.0450
 9085DDP     P154506  26.257  29.948  16.081 -0.0794  0.1765  0.1010
 9085DDP     P254507  26.774  29.592  16.461  0.0596  0.2846 -0.1198
 9085DDP     C254508  26.588  29.528  16.822  0.2340 -0.2195  0.0693
 9085DDP     C354509  26.063  30.229  16.225  0.2633  0.3331  0.2635
 9085DDP     C454510  26.646  29.467  15.671 -0.0467  0.0184  0.2299
 9086DDP     C154511  26.807   1.740   4.198 -0.3110 -0.0372 -0.2128
 9086DDP     P154512  26.751   1.630   4.528  0.0554  0.2887 -0.3724
 9086DDP     P254513  26.610   1.447   3.828 -0.2165  0.0165 -0.1229
 9086DDP     C254514  26.673   1.594   3.439  0.1316 -0.1143  0.2529
 9086DDP     C354515  26.551   1.344   4.850  0.2861  0.0426 -0.1491
 9086DDP     C454516  27.084   2.008   4.127 -0.1178  0.0229  0.2913
 9087DDP     C154517   7.764  12.440   9.391  0.1137  0.0140  0.0694
 9087DDP     P154518   7.438  12.526   9.708  0.0043  0.3817  0.0987
 9087DDP     P254519   7.872  12.573   8.875 -0.1632  0.0825  0.1724
 9087DDP     C254520   7.831  12.804   8.521  0.2249 -0.0574  0.1076
 9087DDP     C354521   7.152  12.541  10.142  0.0571  0.3114 -0.0433
 9087DDP     C454522   7.889  12.140   9.603 -0.1241 -0.1100 -0.0794
 9088DDP     C154523  24.979   7.927  21.016  0.0853  0.2123  0.2644
 9088DDP     P154524  25.375   8.120  21.293  0.0565 -0.0560  0.0563
 9088DDP     P254525  24.786   7.753  21.381  0.0842  0.2782  0.1196
 9088DDP     C254526  24.527   7.652  21.737  0.1163  0.4263 -0.3986
 9088DDP     C354527  25.767   8.215  21.480  0.1525 -0.3865  0.2127
 9088DDP     C454528  24.950   7.851  20.459  0.0092  0.3533  0.3031
 9089DDP     C154529  12.153  13.394   1.663  0.1546 -0.2987 -0.1969
 9089DDP     P154530  11.878  13.180   1.830 -0.2517  0.0751 -0.2014
 9089DDP     P254531  11.846  13.483   1.383  0.1254 -0.3014  0.0740
 9089DDP     C254532  11.840  13.407   0.899  0.1388  0.0260  0.0138
 9089DDP     C354533  11.433  13.139   1.783  0.1445 -0.0045  0.1904
 9089DDP     C454534  12.556  13.264   1.625 -0.0772  0.0898  0.0587
 9090DDP     C154535  27.939  29.757  27.475  0.3020  0.2311 -0.2161
 9090DDP     P154536  27.944  29.789  27.929  0.0989 -0.2339 -0.2260
 9090DDP     P254537  28.054  29.408  27.399 -0.2527  0.2557  0.0772
 9090DDP     C254538  27.972  29.129  27.678  0.0178 -0.0433 -0.0806
 9090DDP     C354539  28.045  29.905  28.343 -0.1163 -0.1936  0.0776
 9090DDP     C454540  27.712  29.864  27.102 -0.0765  0.1703  0.1113
 9091DDP     C154541   7.312   3.841  19.788 -0.2201  0.0275 -0.0311
 9091DDP     P154542   7.545   3.791  20.272 -0.3122  0.3840  0.0818
 9091DDP     P254543   6.915   3.560  19.711  0.0237  0.0541  0.1123
 9091DDP     C254544   6.480   3.320  19.614  0.1168 -0.0310  0.1616
 9091DDP     C354545   7.442   3.570  20.657  0.0758  0.3758  0.0898
 9091DDP     C454546   7.467   4.028  19.432  0.1881  0.0232  0.1043
 9092DDP     C154547   0.673  27.129   2.755 -0.3273 -0.1204  0.1270
 9092DDP     P154548   0.699  26.692   2.893  0.2180 -0.3200  0.0503
 9092DDP     P254549   0.534  27.532   2.464 -0.1544  0.1667  0.2249
 9092DDP     C254550   0.255  27.493   2.106  0.1367  0.1283  0.3163
 9092DDP     C354551   0.764  26.382   3.202  0.0325  0.1225  0.2146
 9092DDP     C454552   0.914  27.256   3.073  0.1292  0.0987  0.0950
 9093DDP     C154553  12.094  11.743   2.570  0.1277 -0.1229 -0.0748
 9093DDP     P154554  11.969  12.058   2.911  0.2428  0.0834 -0.1023
 9093DDP     P254555  11.910  11.499   2.299  0.0068  0.0900 -0.1576
 9093DDP     C254556  11.677  11.640   2.011 -0.0952  0.0100 -0.0602
 9093DDP     C354557  11.751  12.290   3.236 -0.1320  0.2404  0.2171
 9093DDP     C454558  12.593  11.646   2.623 -0.0075  0.1602 -0.1585
 9094DDP     C154559  10.741  27.123  24.708  0.0711 -0.2965  0.1231
 9094DDP     P154560  10.683  27.295  25.134 -0.0005 -0.1191 -0.1230
 9094DDP     P254561  11.041  27.123  24.417  0.0153 -0.0080 -0.0664
 9094DDP     C254562  11.150  26.928  24.135  0.2709 -0.2062 -0.0795
 9094DDP     C354563  10.581  27.214  25.466 -0.0548  0.2035  0.0587
 9094DDP     C454564  10.421  27.368  24.530  0.0854 -0.0039  0.0970
 9095DDP     C154565  28.801   2.709  12.178  0.1058  0.1475  0.0946
 9095DDP     P154566  28.732   2.486  11.860 -0.3227 -0.1204 -0.1259
 9095DDP     P254567  28.940   3.129  12.184 -0.1431  0.0930 -0.2004
 9095DDP     C254568  29.327   3.233  12.472  0.0652  0.0123 -0.0504
 9095DDP     C354569  28.917   2.149  11.595 -0.1560 -0.1871  0.3027
 9095DDP     C454570  28.651   2.513  12.602  0.2086  0.0033  0.0976
 9096DDP     C154571   1.639   9.774  13.857 -0.1964  0.0969  0.0841
 9096DDP     P154572   1.892  10.011  13.526  0.0147 -0.0747  0.1320
 9096DDP     P254573   1.206   9.792  13.963 -0.1140  0.0564  0.1446
 9096DDP     C254574   0.779   9.824  13.975  0.0695  0.0641 -0.1423
 9096DDP     C354575   2.125  10.383  13.674  0.0828  0.1931  0.0803
 9096DDP     C454576   1.892   9.448  14.010 -0.1343 -0.0642  0.1245
 9097DDP     C154577  19.648  21.095  12.437  0.3043  0.1029 -0.0706
 9097DDP     P154578  19.902  20.767  12.430 -0.1439  0.1119 -0.0058
 9097DDP     P254579  19.469  20.998  12.755 -0.3543 -0.0982  0.0975
 9097DDP     C254580  19.523  20.742  13.212  0.1643 -0.0547 -0.0203
 9097DDP     C354581  20.215  20.653  12.220  0.3476 -0.3668 -0.0876
 9097DDP     C454582  19.670  21.490  12.189 -0.1215  0.1407  0.0061
 9098DDP     C154583  29.071  14.426   7.400  0.0332  0.1799  0.0124
 9098DDP     P154584  29.071  14.667   7.798  0.1225 -0.3075 -0.0455
 9098DDP     P254585  29.564  14.283   7.218  0.1884 -0.0725 -0.1189
 9098DDP     C254586  29.965  14.076   7.098  0.2632 -0.0362  0.1151
 9098DDP     C354587  28.964  14.767   8.079 -0.1865 -0.2871 -0.0061
 9098DDP     C454588  28.740  14.335   7.243 -0.1993  0.0467  0.1056
 9099DDP     C154589   8.360   1.359  10.520  0.0921  0.0565  0.0516
 9099DDP     P154590   8.334   0.925  10.686  0.0597  0.3157 -0.2963
 9099DDP     P254591   8.215   1.589  10.285  0.2291 -0.4049 -0.0529
 9099DDP     C254592   8.121   1.973  10.164 -0.0489 -0.0433  0.3298
 9099DDP     C354593   8.362   0.591  10.507 -0.1248  0.1047  0.1859
 9099DDP     C454594   8.657   1.622  10.677  0.0627  0.1194 -0.0332
 9100DDP     C154595  16.933   2.193  20.538 -0.0374  0.0656 -0.0984
 9100DDP     P154596  17.393   2.272  20.396 -0.0075 -0.0522 -0.2419
 9100DDP     P254597  16.532   2.171  20.594  0.0522  0.2260  0.1456
 9100DDP     C254598  16.093   2.151  20.828  0.2579 -0.0653  0.1321
 9100DDP     C354599  17.889   2.370  20.265  0.2211 -0.0211  0.0050
 9100DDP     C454600  16.947   1.955  20.852  0.2435  0.4251 -0.1904
 9101DDP     C154601   8.805  23.723   0.448  0.2247 -0.0761  0.0051
 9101DDP     P154602   9.199  23.684   0.513 -0.1095 -0.2431 -0.1102
 9101DDP     P254603   8.855  23.528   0.828 -0.1926 -0.0181  0.2269
 9101DDP     C254604   8.422  23.459   0.877  0.0319  0.0429  0.0111
 9101DDP     C354605   9.505  23.621   0.275 -0.1732 -0.2938 -0.3893
 9101DDP     C454606   8.595  24.082   0.345  0.0909  0.1508  0.0851
 9102DDP     C154607  15.940  10.979  25.665  0.2385 -0.1305 -0.1688
 9102DDP     P154608  15.796  10.504  25.475  0.1548 -0.3061  0.0747
 9102DDP     P254609  15.686  11.307  25.905 -0.0117 -0.2610  0.0772
 9102DDP     C254610  15.326  11.270  26.202 -0.0918 -0.1980  0.1048
 9102DDP     C354611  15.685  10.111  25.372  0.1672 -0.1437 -0.1545
 9102DDP     C454612  16.378  11.077  25.574 -0.4479  0.0565  0.0161
 9103DDP     C154613  18.248  27.460  14.811 -0.1283 -0.2942 -0.1535
 9103DDP     P154614  18.224  27.868  14.878  0.0625  0.3140  0.1875
 9103DDP     P254615  18.700  27.285  14.623  0.0629 -0.1650  0.1827
 9103DDP     C254616  18.998  27.510  14.334  0.0566  0.0096  0.0534
 9103DDP     C354617  18.109  28.211  14.742 -0.2123 -0.0207  0.0359
 9103DDP     C454618  17.938  27.169  15.029  0.1161 -0.0335  0.1463
 9104DDP     C154619  19.287  17.167   4.458 -0.1706 -0.1655 -0.0132
 9104DDP     P154620  19.672  17.419   4.456 -0.0307 -0.0665  0.2160
 9104DDP     P254621  19.152  17.198   4.002 -0.0492  0.2777 -0.0496
 9104DDP     C254622  19.021  17.315   3.597  0.0406 -0.0074  0.3121
 9104DDP     C354623  20.039  17.675   4.366 -0.1279  0.0633  0.0753
 9104DDP     C454624  19.010  16.833   4.565 -0.0094  0.0902 -0.1515
 9105DDP     C154625   5.534   0.766  23.461 -0.0379  0.3699 -0.0762
 9105DDP     P154626   5.690   1.137  23.274  0.0652  0.3317 -0.2574
 9105DDP     P254627   5.638   0.800  23.911  0.0765 -0.0618  0.0722
 9105DDP     C254628   6.027   0.707  24.150 -0.2533  0.1295  0.1613
 9105DDP     C354629   5.870   1.503  23.304  0.1935  0.1256 -0.0217
 9105DDP     C454630   5.427   0.360  23.322  0.1120  0.1887 -0.2142
 9106DDP     C154631  27.938  27.017   1.830  0.3876 -0.2580 -0.2262
 9106DDP     P154632  28.311  27.102   1.717 -0.2146  0.1009  0.1321
 9106DDP     P254633  27.694  27.377   1.848  0.0387 -0.1309  0.0516
 9106DDP     C254634  27.292  27.302   1.850 -0.0275 -0.1493  0.0543
 9106DDP     C354635  28.734  27.189   1.943  0.3539  0.1733  0.1649
 9106DDP     C454636  27.781  26.531   1.925  0.0589 -0.0256 -0.0401
 9107DDP     C154637  29.633  16.613   7.136  0.0544  0.2466 -0.2781
 9107DDP     P154638  29.781  16.230   7.421  0.2140 -0.0518 -0.0463
 9107DDP     P254639  29.465  16.850   7.530 -0.0724 -0.0740  0.1568
 9107DDP     C254640  29.502  17.201   7.870 -0.2324 -0.0798 -0.0765
 9107DDP     C354641  29.949  16.171   7.754  0.1660  0.0208 -0.2618
 9107DDP     C454642  29.841  16.833   6.809 -0.0391  0.0907  0.4113
 9108DDP     C154643  12.854  27.906  28.871 -0.3469 -0.1756  0.3070
 9108DDP     P154644  13.036  28.329  29.005  0.0484 -0.0232  0.2240
 9108DDP     P254645  12.539  28.012  28.542  0.0306 -0.0320  0.0873
 9108DDP     C254646  12.031  27.869  28.571 -0.0142  0.3006  0.2947
 9108DDP     C354647  12.797  28.715  29.125  0.1498 -0.1359 -0.0693
 9108DDP     C454648  12.990  27.584  29.105 -0.2231 -0.0643 -0.3803
 9109DDP     C154649  26.895  17.560  18.397 -0.0950  0.1778 -0.0501
 9109DDP     P154650  26.434  17.728  18.660 -0.1047 -0.0728 -0.1115
 9109DDP     P254651  27.239  17.616  18.673  0.3925 -0.2766 -0.0594
 9109DDP     C254652  27.461  17.786  18.978 -0.0812 -0.0040 -0.1409
 9109DDP     C354653  26.057  17.687  18.905  0.2150  0.0738  0.2031
 9109DDP     C454654  26.835  17.487  18.020 -0.1671  0.2592  0.1298
 9110DDP     C154655  10.466   8.384  12.550  0.3143 -0.2099 -0.0293
 9110DDP     P154656  10.354   8.784  12.502 -0.2390  0.0064 -0.3290
 9110DDP     P254657  10.291   7.967  12.498 -0.2971  0.1797  0.0206
 9110DDP     C254658   9.920   7.892  12.224  0.2890  0.2431  0.0744
 9110DDP     C354659  10.349   9.263  12.401  0.0008 -0.0426 -0.1141
 9110DDP     C454660  10.887   8.261  12.589 -0.0604 -0.0439 -0.0495
 9111DDP     C154661   4.267   5.217  12.119  0.1793  0.0533  0.1107
 9111DDP     P154662   4.224   5.370  12.602  0.3376 -0.1388 -0.1842
 9111DDP     P254663   4.104   4.835  11.891 -0.1254  0.0500 -0.0187
 9111DDP     C254664   3.858   4.874  11.520 -0.1129 -0.0080  0.6239
 9111DDP     C354665   4.244   5.418  13.114  0.0623  0.1033 -0.0426
 9111DDP     C454666   4.680   5.405  11.849  0.2816  0.0589  0.2035
 9112DDP     C154667  24.912  27.097  15.702 -0.2471 -0.0234  0.0494
 9112DDP     P154668  25.254  27.330  15.742 -0.1626  0.1439 -0.1922
 9112DDP     P254669  25.029  26.617  15.639 -0.1277 -0.1680 -0.1634
 9112DDP     C254670  25.318  26.321  15.400 -0.0475  0.0017  0.0603
 9112DDP     C354671  25.491  27.575  15.435  0.0780 -0.1795  0.1087
 9112DDP     C454672  24.525  27.387  15.906 -0.1710 -0.0587 -0.0467
 9113DDP     C154673  12.382   9.851  27.089 -0.0854 -0.2870 -0.3244
 9113DDP     P154674  12.378   9.538  27.377  0.1197  0.2159 -0.3244
 9113DDP     P254675  11.969  10.059  26.809 -0.0841 -0.1088 -0.0512
 9113DDP     C254676  11.716   9.913  26.490 -0.3296  0.0742 -0.4080
 9113DDP     C354677  12.121   9.276  27.702 -0.1090 -0.2640  0.1069
 9113DDP     C454678  12.822   9.899  26.966  0.0066  0.0206  0.0845
 9114DDP     C154679   2.957   1.009   3.190 -0.0138  0.3653  0.2328
 9114DDP     P154680   2.692   1.358   3.246 -0.1791  0.3321 -0.1059
 9114DDP     P254681   2.768   0.574   3.171  0.0284  0.0433  0.1371
 9114DDP     C254682   2.495   0.228   3.391  0.1632 -0.0671  0.2473
 9114DDP     C354683   2.264   1.386   3.349  0.1711  0.0801  0.2971
 9114DDP     C454684   3.454   1.054   3.199  0.2732  0.1897 -0.0559
 9115DDP     C154685   2.501  22.545  29.430 -0.1071  0.2458 -0.0285
 9115DDP     P154686   2.178  22.604  29.594  0.0131  0.1508  0.2412
 9115DDP     P254687   2.655  22.084  29.204  0.1804 -0.2658 -0.0371
 9115DDP     C254688   2.793  21.720  29.433  0.0322  0.1217 -0.4131
 9115DDP     C354689   1.943  22.518  29.212  0.0991 -0.0726 -0.1156
 9115DDP     C454690   2.857  22.783  29.573  0.0601  0.2156  0.3071
 9116DDP     C154691  11.385   1.991  27.542  0.0870 -0.0573 -0.0574
 9116DDP     P154692  11.683   1.665  27.336 -0.2348  0.1401  0.6036
 9116DDP     P254693  11.462   2.137  27.983  0.0430 -0.0063  0.1525
 9116DDP     C254694  11.549   1.929  28.321  0.3868  0.1330  0.1511
 9116DDP     C354695  11.765   1.257  27.255  0.1988  0.1361 -0.0987
 9116DDP     C454696  11.062   2.031  27.356  0.2161  0.0800 -0.1878
 9117DDP     C154697   0.164   8.682  22.386  0.3466 -0.2226  0.3495
 9117DDP     P154698   0.101   9.154  22.379 -0.1851 -0.1616  0.3312
 9117DDP     P254699  30.182   8.396  22.618 -0.1947 -0.0157 -0.2063
 9117DDP     C254700  29.944   8.036  22.697 -0.0166 -0.0614  0.0424
 9117DDP     C354701   0.304   9.460  22.612 -0.0415 -0.0115 -0.2321
 9117DDP     C454702   0.549   8.519  22.141 -0.0948 -0.4645  0.0233
 9118DDP     C154703  30.255  30.129   2.799  0.0871  0.2659  0.0253
 9118DDP     P154704   0.294  30.044   3.087  0.1872  0.1312  0.1331
 9118DDP     P254705  30.067  29.834   2.463 -0.1808  0.0946  0.1247
 9118DDP     C254706  29.903  29.875   1.993  0.1637  0.4203  0.0046
 9118DDP     C354707   0.613  30.122   3.406  0.0874 -0.1615  0.3100
 9118DDP     C454708  29.894  30.290   2.980 -0.1059  0.3730  0.2598
 9119DDP     C154709  13.781   9.696  23.820  0.0737 -0.0191 -0.2284
 9119DDP     P154710  13.287   9.633  23.870 -0.3098  0.0045 -0.0775
 9119DDP     P254711  14.066   9.329  23.626  0.0586 -0.0205 -0.2873
 9119DDP     C254712  14.055   8.910  23.424  0.1262 -0.1321 -0.2615
 9119DDP     C354713  12.828   9.672  23.948  0.0326 -0.0744 -0.2246
 9119DDP     C454714  13.940  10.106  23.953  0.0433  0.2036  0.3474
 9120DDP     C154715   7.169  12.636   0.694 -0.1105  0.3783 -0.0422
 9120DDP     P154716   6.701  12.723   0.933 -0.0590 -0.1894 -0.0270
 9120DDP     P254717   7.179  12.376   0.374 -0.0377  0.0204  0.4502
 9120DDP     C254718   6.769  12.294   0.178 -0.1581 -0.3033 -0.4482
 9120DDP     C354719   6.309  12.247   1.057  0.1267 -0.2516 -0.0605
 9120DDP     C454720   7.465  12.994   0.830  0.3358 -0.0806 -0.3283
 9121DDP     C154721  22.678  17.066  10.126 -0.2456  0.0229  0.0194
 9121DDP     P154722  23.068  16.925  10.316  0.0674 -0.0305 -0.2100
 9121DDP     P254723  22.375  16.889  10.452 -0.0926 -0.3119 -0.0263
 9121DDP     C254724  21.972  17.067  10.678 -0.1088  0.0480 -0.1478
 9121DDP     C354725  23.239  16.771  10.630  0.0846  0.3246 -0.0505
 9121DDP     C454726  22.652  17.005   9.650 -0.0842 -0.0742 -0.2157
 9122DDP     C154727  28.543  19.446  25.879  0.1253  0.2530  0.0690
 9122DDP     P154728  28.136  19.499  25.896  0.1492  0.1291  0.1190
 9122DDP     P254729  28.787  19.298  25.559 -0.3739  0.0909  0.2157
 9122DDP     C254730  29.109  18.976  25.493  0.1605 -0.2572 -0.0581
 9122DDP     C354731  27.733  19.667  26.000 -0.0866 -0.0396 -0.2063
 9122DDP     C454732  28.907  19.574  26.204  0.2011  0.1852  0.0885
 9123DDP     C154733  19.090   7.620  29.270  0.0274  0.1318  0.0594
 9123DDP     P154734  18.675   7.663  28.994  0.1127  0.2207  0.1448
 9123DDP     P254735  19.084   7.638  29.663  0.0766 -0.0456 -0.0252
 9123DDP     C254736  19.002   7.650  30.097  0.0619 -0.4929  0.0616
 9123DDP     C354737  18.299   7.620  29.162 -0.1125 -0.0443  0.0402
 9123DDP     C454738  19.581   7.678  29.194 -0.4324 -0.0964  0.3638
 9124DDP     C154739  19.150  26.578  20.505 -0.0970 -0.0079 -0.2300
 9124DDP     P154740  18.983  26.656  20.086  0.3183 -0.2252  0.0063
 9124DDP     P254741  19.251  26.881  20.793  0.0987 -0.0889  0.0081
 9124DDP     C254742  18.940  27.038  20.983 -0.1804 -0.1355  0.1047
 9124DDP     C354743  19.076  26.465  19.720  0.1662 -0.0955  0.1534
 9124DDP     C454744  19.178  26.116  20.562 -0.0232 -0.2274 -0.1457
 9125DDP     C154745   3.393  18.868  15.690 -0.2430  0.1606 -0.2441
 9125DDP     P154746   3.163  18.455  15.894 -0.1542 -0.1690  0.1080
 9125DDP     P254747   3.576  19.143  16.057  0.0026 -0.3558 -0.3158
 9125DDP     C254748   3.420  19.287  16.438 -0.2507  0.3384 -0.0770
 9125DDP     C354749   3.124  18.247  16.289 -0.0934 -0.0206 -0.3969
 9125DDP     C454750   3.600  18.990  15.281  0.0473 -0.4217 -0.2545
 9126DDP     C154751  11.009   6.998  21.880 -0.4171 -0.2089 -0.0760
 9126DDP     P154752  11.055   7.286  21.546 -0.1359  0.3964  0.1601
 9126DDP     P254753  10.745   6.684  21.855  0.1599  0.2220  0.0956
 9126DDP     C254754  10.721   6.315  22.119 -0.2427 -0.0809  0.1157
 9126DDP     C354755  11.291   7.388  21.142  0.3397 -0.0049 -0.0044
 9126DDP     C454756  11.450   6.976  22.154 -0.3853 -0.0682 -0.0253
 9127DDP     C154757  16.691   3.847  13.525 -0.0639 -0.2843 -0.0201
 9127DDP     P154758  17.083   3.654  13.417 -0.2857  0.1580  0.3634
 9127DDP     P254759  16.649   4.009  13.963  0.3838  0.0217  0.0715
 9127DDP     C254760  16.163   4.122  14.206  0.0057 -0.0228 -0.0269
 9127DDP     C354761  17.290   3.397  13.147  0.1149 -0.0770  0.1431
 9127DDP     C454762  16.206   3.778  13.525  0.1254  0.1050 -0.0254
 9128DDP     C154763  24.098   5.437  16.857 -0.0907  0.1804 -0.1644
 9128DDP     P154764  23.950   5.353  16.546 -0.2484 -0.0357 -0.1264
 9128DDP     P254765  24.040   5.694  17.154 -0.1379  0.2055 -0.0588
 9128DDP     C254766  24.238   6.065  17.275  0.2419  0.1438  0.1056
 9128DDP     C354767  23.858   5.141  16.079 -0.2643  0.0927 -0.1965
 9128DDP     C454768  24.435   5.168  16.841 -0.0131  0.0737  0.0934
 9129DDP     C154769   1.887  25.048  12.650  0.1905 -0.0663  0.2858
 9129DDP     P154770   2.082  25.225  12.304  0.1114 -0.0951 -0.0700
 9129DDP     P254771   1.510  25.055  12.484 -0.1517 -0.0521  0.1045
 9129DDP     C254772   1.087  25.000  12.237 -0.1406 -0.0574  0.3159
 9129DDP     C354773   1.990  25.323  11.883  0.2465  0.2825 -0.1246
 9129DDP     C454774   1.882  24.670  12.891 -0.0938 -0.2164  0.0140
 9130DDP     C154775   7.825  18.764  26.519  0.0516 -0.1236  0.0248
 9130DDP     P154776   8.171  18.728  26.815  0.2063  0.0461  0.0182
 9130DDP     P254777   7.874  18.904  26.113  0.0520  0.1574 -0.0052
 9130DDP     C254778   7.687  19.048  25.893 -0.4451  0.0670 -0.0079
 9130DDP     C354779   8.433  18.585  27.204  0.0822  0.0782 -0.1497
 9130DDP     C454780   7.381  18.723  26.551 -0.0631  0.0727 -0.2621
 9131DDP     C154781  29.882  20.907   1.328 -0.0671 -0.4506  0.4201
 9131DDP     P154782  29.831  21.326   1.289 -0.1277  0.2128 -0.2174
 9131DDP     P254783  29.765  20.724   0.991  0.1717 -0.2414  0.3294
 9131DDP     C254784  29.727  20.428   0.740 -0.0452  0.0809 -0.0076
 9131DDP     C354785  29.524  21.722   1.335 -0.3035 -0.1324 -0.2085
 9131DDP     C454786  30.025  20.709   1.677  0.1065  0.1886 -0.1225
 9132DDP     C154787  12.434   5.069  27.346 -0.5481  0.0531 -0.1174
 9132DDP     P154788  12.702   4.857  26.991  0.0320  0.1905 -0.1287
 9132DDP     P254789  12.625   5.127  27.667 -0.0266 -0.0803 -0.1293
 9132DDP     C254790  12.684   4.802  27.928 -0.0823 -0.3450  0.0774
 9132DDP     C354791  12.943   5.141  26.550  0.5431  0.2854 -0.1885
 9132DDP     C454792  12.018   5.118  27.298  0.0467 -0.0461 -0.0734
 9133DDP     C154793  25.465  28.479  13.338  0.4167 -0.1744  0.0690
 9133DDP     P154794  25.744  28.221  13.643  0.0098  0.0783 -0.1732
 9133DDP     P254795  25.432  28.462  12.952 -0.0694 -0.3269 -0.2398
 9133DDP     C254796  25.545  28.325  12.603 -0.1886  0.3821 -0.0575
 9133DDP     C354797  26.089  28.047  13.949 -0.0427 -0.0740  0.1164
 9133DDP     C454798  25.240  28.753  13.507  0.0056 -0.0090  0.1487
 9134DDP     C154799  17.315  28.886   6.756 -0.0155  0.0735  0.2573
 9134DDP     P154800  17.387  29.093   6.381  0.1965  0.1452  0.0158
 9134DDP     P254801  17.272  28.997   7.152 -0.1279 -0.0153 -0.0134
 9134DDP     C254802  17.338  29.158   7.559  0.1839 -0.2305  0.2481
 9134DDP     C354803  17.000  29.267   6.195  0.1703 -0.1165  0.1170
 9134DDP     C454804  16.894  28.593   6.822  0.1187  0.0710  0.2094
 9135DDP     C154805  23.144   4.461  24.977 -0.0068  0.0697 -0.1431
 9135DDP     P154806  23.199   4.236  24.516  0.0699 -0.0604  0.1154
 9135DDP     P254807  23.489   4.318  25.191 -0.3372 -0.3405 -0.0220
 9135DDP     C254808  23.856   4.120  25.277 -0.0879 -0.2805  0.1539
 9135DDP     C354809  23.171   3.969  24.127  0.3075 -0.0371  0.0401
 9135DDP     C454810  22.880   4.770  25.001 -0.1955 -0.1352  0.1682
 9136DDP     C154811  11.821   7.306  21.110  0.1796 -0.0533 -0.1260
 9136DDP     P154812  12.079   7.048  20.759  0.1034 -0.0528  0.0537
 9136DDP     P254813  11.562   7.014  21.449 -0.2343 -0.0764 -0.2557
 9136DDP     C254814  11.730   6.706  21.805 -0.1157  0.1423 -0.0969
 9136DDP     C354815  12.259   6.725  20.509  0.1430  0.1326  0.1195
 9136DDP     C454816  11.685   7.694  21.140  0.2064  0.1676 -0.3894
 9137DDP     C154817  24.641   8.294  25.650  0.2148  0.1648  0.0078
 9137DDP     P154818  24.989   8.148  25.796  0.1905 -0.1741  0.0025
 9137DDP     P254819  24.312   8.746  25.696  0.1182  0.2443  0.1138
 9137DDP     C254820  24.307   9.187  25.671 -0.2956 -0.2108 -0.3414
 9137DDP     C354821  25.430   8.246  25.747  0.0183  0.1269  0.1541
 9137DDP     C454822  24.256   8.168  25.385 -0.0471  0.0125 -0.2406
 9138DDP     C154823  24.683   2.614  21.806 -0.0164  0.3641  0.2871
 9138DDP     P154824  25.112   2.779  21.905  0.0780  0.1713  0.2475
 9138DDP     P254825  24.665   2.179  21.580  0.0360  0.0270  0.0032
 9138DDP     C254826  24.879   1.943  21.332 -0.3130 -0.1202  0.1955
 9138DDP     C354827  25.621   2.730  21.835 -0.0858  0.1521 -0.1396
 9138DDP     C454828  24.215   2.893  21.754 -0.1175  0.1467 -0.1083
 9139DDP     C154829  27.966   9.065   4.237  0.1159 -0.1031  0.1236
 9139DDP     P154830  27.619   8.773   4.200 -0.2073 -0.0403 -0.3549
 9139DDP     P254831  28.105   9.079   3.825 -0.2646 -0.2079 -0.1573
 9139DDP     C254832  28.118   9.491   3.624 -0.2078  0.2198 -0.2685
 9139DDP     C354833  27.314   8.832   3.969  0.1077 -0.1272  0.0573
 9139DDP     C454834  28.122   9.315   4.678  0.1088 -0.1134  0.4007
 9140DDP     C154835  25.723   2.879  28.347  0.0353 -0.0547 -0.0588
 9140DDP     P154836  25.538   3.370  28.231 -0.1173  0.0340 -0.0085
 9140DDP     P254837  26.007   2.704  28.113 -0.0788  0.0964 -0.2436
 9140DDP     C254838  26.257   2.315  28.169 -0.4903 -0.0119 -0.2612
 9140DDP     C354839  25.557   3.824  28.288  0.0546 -0.1213  0.0280
 9140DDP     C454840  25.586   2.662  28.687 -0.0934  0.1450  0.0013
 9141DDP     C154841   2.509  12.650   7.021 -0.1575  0.2212 -0.0190
 9141DDP     P154842   2.706  12.289   6.842  0.3099 -0.3300 -0.0666
 9141DDP     P254843   2.043  12.752   6.985 -0.0056  0.2216  0.3613
 9141DDP     C254844   1.578  12.812   6.988 -0.2963 -0.0283 -0.0921
 9141DDP     C354845   2.756  11.859   6.813 -0.1992  0.1143 -0.1914
 9141DDP     C454846   2.741  12.849   7.379  0.2763  0.0997 -0.0257
 9142DDP     C154847   8.816   1.093  12.161  0.1279 -0.2310 -0.1145
 9142DDP     P154848   8.472   0.937  11.917 -0.1098  0.1811  0.1200
 9142DDP     P254849   8.976   1.496  11.969  0.2010  0.2806 -0.0163
 9142DDP     C254850   9.107   1.856  11.979 -0.0161 -0.0164 -0.1338
 9142DDP     C354851   8.542   0.570  11.620  0.0954 -0.1683 -0.0872
 9142DDP     C454852   8.881   1.153  12.522  0.1350  0.0561  0.2915
 9143DDP     C154853   2.787   4.500   2.668  0.0553  0.3173 -0.0363
 9143DDP     P154854   3.192   4.407   2.469 -0.0039  0.1733 -0.0826
 9143DDP     P254855   2.652   4.776   2.899  0.2550 -0.0464  0.0981
 9143DDP     C254856   2.396   4.939   3.246 -0.0229  0.1016 -0.0652
 9143DDP     C354857   3.417   4.082   2.405 -0.0898  0.2297  0.1434
 9143DDP     C454858   2.475   4.243   2.488  0.0318  0.1663  0.2722
 9144DDP     C154859  23.315   4.258  21.217  0.1088  0.3133 -0.3578
 9144DDP     P154860  23.192   3.799  21.367  0.1571  0.1977 -0.2480
 9144DDP     P254861  23.435   4.365  21.673  0.1395  0.1882  0.0048
 9144DDP     C254862  23.405   4.697  21.833  0.1191 -0.0883 -0.1613
 9144DDP     C354863  23.128   3.462  21.767  0.2299 -0.0300 -0.2588
 9144DDP     C454864  23.702   4.559  20.958  0.2718  0.1553  0.1671
 9145DDP     C154865  18.377  25.438   3.814  0.3453 -0.2886  0.1283
 9145DDP     P154866  18.231  25.353   3.395  0.3148 -0.2737  0.0671
 9145DDP     P254867  18.708  25.782   3.827  0.0725  0.0640 -0.0860
 9145DDP     C254868  19.058  26.070   3.652 -0.0587  0.0072  0.2082
 9145DDP     C354869  18.180  25.085   2.961 -0.1293 -0.0512 -0.1954
 9145DDP     C454870  18.058  25.479   4.185 -0.1151 -0.0794 -0.0620
 9146DDP     C154871  22.939  21.939   8.103 -0.1591  0.0791  0.1903
 9146DDP     P154872  22.921  22.318   8.332 -0.1045 -0.1180  0.0626
 9146DDP     P254873  23.285  21.657   8.006  0.1277 -0.1138  0.1535
 9146DDP     C254874  23.520  21.336   8.221 -0.0795 -0.4760  0.0685
 9146DDP     C354875  22.697  22.628   8.572  0.2023  0.1063  0.0574
 9146DDP     C454876  22.664  21.633   7.791  0.1412 -0.0263  0.1704
 9147DDP     C154877  27.205  19.637  18.768  0.3440 -0.2856  0.3886
 9147DDP     P154878  27.254  19.214  18.774  0.0332  0.0273  0.0409
 9147DDP     P254879  27.573  19.852  18.785 -0.0645  0.1336  0.0548
 9147DDP     C254880  27.717  20.345  18.870  0.1293  0.2493 -0.0271
 9147DDP     C354881  27.459  18.833  18.935 -0.0184 -0.0049  0.0527
 9147DDP     C454882  26.789  19.772  18.516  0.3624  0.0991 -0.0419
 9148DDP     C154883   3.946   6.203   1.807  0.0353 -0.1448 -0.1664
 9148DDP     P154884   3.996   6.227   1.320  0.2090 -0.0509  0.3399
 9148DDP     P254885   3.577   5.979   1.886 -0.2577  0.3049  0.1108
 9148DDP     C254886   3.174   6.113   1.880  0.2286  0.1324 -0.1452
 9148DDP     C354887   4.325   6.197   1.046 -0.1810  0.2943 -0.0103
 9148DDP     C454888   4.197   6.297   2.086  0.3243 -0.2739 -0.0050
 9149DDP     C154889   6.352   3.209  16.178  0.0070  0.3715  0.1568
 9149DDP     P154890   6.761   3.515  15.893  0.2162  0.1502 -0.2951
 9149DDP     P254891   6.177   2.820  16.000  0.2512  0.2326 -0.0511
 9149DDP     C254892   5.919   2.586  16.260 -0.0157 -0.1621  0.2363
 9149DDP     C354893   6.885   3.811  15.556  0.1129 -0.4464  0.0327
 9149DDP     C454894   6.237   3.299  16.675  0.0442  0.0741 -0.0440
 9150DDP     C154895  18.710  24.530  16.768  0.0357  0.0016  0.0677
 9150DDP     P154896  18.997  24.734  16.448 -0.0063  0.0582  0.1776
 9150DDP     P254897  18.883  24.272  17.210 -0.0422  0.0690  0.1494
 9150DDP     C254898  18.979  24.305  17.620 -0.0299 -0.0709  0.1526
 9150DDP     C354899  18.988  24.869  16.062 -0.0019  0.0065  0.0960
 9150DDP     C454900  18.236  24.688  16.785 -0.0784 -0.0932  0.0061
 9151DDP     C154901  11.631  23.592   8.765  0.0285  0.0788  0.2442
 9151DDP     P154902  11.612  23.981   8.699  0.2473 -0.0206  0.2198
 9151DDP     P254903  11.794  23.378   9.170  0.1130  0.0502  0.1907
 9151DDP     C254904  11.732  23.425   9.642 -0.2568  0.0194 -0.3083
 9151DDP     C354905  11.891  24.245   8.602  0.0362 -0.1248  0.0573
 9151DDP     C454906  11.434  23.350   8.482 -0.0475 -0.0592 -0.0921
 9152DDP     C154907   2.841  12.250   4.956  0.2136 -0.1055 -0.0003
 9152DDP     P154908   2.992  12.356   5.235 -0.2154  0.0435 -0.1064
 9152DDP     P254909   2.679  11.900   5.214  0.1453  0.0630  0.1394
 9152DDP     C254910   2.222  11.781   5.199  0.4235 -0.3210 -0.1231
 9152DDP     C354911   3.044  12.304   5.675 -0.0373 -0.3033 -0.0721
 9152DDP     C454912   2.919  12.123   4.450 -0.2156 -0.2174  0.1713
 9153DDP     C154913   3.647  15.951   0.539 -0.2296 -0.2197 -0.4173
 9153DDP     P154914   3.325  16.038   0.244  0.3095 -0.0523 -0.0811
 9153DDP     P254915   4.072  15.979   0.431  0.2053  0.0439 -0.0554
 9153DDP     C254916   4.338  15.777   0.074 -0.1721  0.1119 -0.2829
 9153DDP     C354917   2.850  16.118   0.185  0.2089  0.0786 -0.2737
 9153DDP     C454918   3.481  15.679   0.941 -0.0511  0.1009 -0.0895
 9154DDP     C154919  10.976  17.988  23.120 -0.2879  0.0507 -0.0809
 9154DDP     P154920  11.235  18.281  23.015  0.2179 -0.0788 -0.1346
 9154DDP     P254921  10.579  18.141  23.174 -0.1096 -0.3485 -0.0739
 9154DDP     C254922  10.412  18.308  22.844 -0.1756 -0.1985 -0.0327
 9154DDP     C354923  11.343  18.582  22.745  0.0427 -0.0422  0.0729
 9154DDP     C454924  11.098  17.509  23.155 -0.2450 -0.0835  0.0476
 9155DDP     C154925  24.512  30.166  14.713 -0.1242 -0.2391  0.0025
 9155DDP     P154926  24.912   0.156  14.718  0.0879  0.0441  0.1881
 9155DDP     P254927  24.435  29.993  15.157 -0.0157 -0.3405  0.1930
 9155DDP     C254928  24.275  30.064  15.632 -0.2007  0.0170  0.0410
 9155DDP     C354929  25.346   0.138  14.850  0.1078 -0.0587  0.1252
 9155DDP     C454930  24.117  30.106  14.454  0.2531  0.0809  0.1496
 9156DDP     C154931   4.681  13.008  21.458 -0.1197  0.0474 -0.0052
 9156DDP     P154932   4.811  13.376  21.406 -0.0280 -0.3577  0.0058
 9156DDP     P254933   4.557  12.891  21.883 -0.1894  0.1260  0.0910
 9156DDP     C254934   4.751  12.981  22.205 -0.1694  0.3428 -0.0028
 9156DDP     C354935   4.977  13.720  21.240 -0.0419  0.2611  0.0766
 9156DDP     C454936   4.829  12.658  21.125  0.0881  0.0118  0.1415
 9157DDP     C154937  15.588   0.418  30.080 -0.3967  0.2280  0.3140
 9157DDP     P154938  15.969   0.669  29.926 -0.0916 -0.0499  0.0048
 9157DDP     P254939  15.554  30.256  30.292 -0.0956 -0.0919  0.0508
 9157DDP     C254940  15.448  29.859  -0.011  0.4207 -0.0628 -0.1254
 9157DDP     C354941  16.112   1.105  30.010 -0.2861  0.1420  0.0748
 9157DDP     C454942  15.273   0.571  29.911 -0.0049  0.0056 -0.0573
 9158DDP     C154943   9.449  23.032  16.249  0.1932  0.1847  0.4058
 9158DDP     P154944   9.671  23.123  16.534 -0.0881 -0.2162 -0.0436
 9158DDP     P254945   9.461  22.581  15.989  0.0864 -0.0533  0.0535
 9158DDP     C254946   9.829  22.563  16.031 -0.1525 -0.4302  0.0740
 9158DDP     C354947  10.067  23.050  16.592  0.2499  0.0381  0.0855
 9158DDP     C454948   9.210  23.386  15.985 -0.1267 -0.6014 -0.2143
 9159DDP     C154949  15.533  16.961  17.916  0.2648  0.1747 -0.0565
 9159DDP     P154950  15.752  17.189  18.266  0.0711  0.2120  0.1110
 9159DDP     P254951  15.314  16.666  18.059 -0.2402 -0.0896  0.2167
 9159DDP     C254952  15.400  16.334  18.309 -0.1112  0.0663  0.0029
 9159DDP     C354953  15.930  17.523  18.494  0.0133 -0.1146  0.0853
 9159DDP     C454954  15.471  17.212  17.556  0.1442 -0.2879  0.0726
 9160DDP     C154955   5.460  23.265  18.576 -0.2800  0.0541 -0.1263
 9160DDP     P154956   5.748  23.373  18.933 -0.2846 -0.1346 -0.1086
 9160DDP     P254957   5.112  23.069  18.638  0.0935  0.0083 -0.1127
 9160DDP     C254958   4.893  22.973  18.940  0.0148 -0.0320 -0.2777
 9160DDP     C354959   6.121  23.587  19.117  0.1157  0.0685  0.2479
 9160DDP     C454960   5.624  23.256  18.104  0.1198  0.1196 -0.0330
 9161DDP     C154961   1.160  21.956  14.216 -0.3878  0.0594  0.0291
 9161DDP     P154962   1.515  21.929  14.110  0.1994  0.0752  0.1564
 9161DDP     P254963   0.724  21.932  14.124 -0.0597 -0.0090  0.3504
 9161DDP     C254964   0.330  21.720  13.995  0.2716  0.1154  0.3861
 9161DDP     C354965   1.869  21.727  14.176 -0.2501  0.2749  0.1860
 9161DDP     C454966   1.185  22.272  14.547  0.0242  0.0549  0.3775
 9162DDP     C154967  14.357   2.311  18.458  0.0871 -0.1835 -0.1050
 9162DDP     P154968  14.742   2.154  18.619 -0.1305  0.0789  0.1372
 9162DDP     P254969  14.187   2.702  18.599  0.1848  0.0201  0.0779
 9162DDP     C254970  14.090   3.007  18.981  0.1162 -0.2866 -0.1640
 9162DDP     C354971  14.886   1.742  18.707 -0.0697  0.3705 -0.3030
 9162DDP     C454972  14.157   2.088  18.139 -0.0187  0.0222 -0.2695
 9163DDP     C154973   4.713  22.354  17.643 -0.3703  0.1460 -0.1341
 9163DDP     P154974   4.577  22.381  18.036  0.1250 -0.0963 -0.0068
 9163DDP     P254975   4.645  22.711  17.505  0.0970 -0.1740  0.5056
 9163DDP     C254976   4.405  23.112  17.304 -0.2075 -0.0211  0.2741
 9163DDP     C354977   4.668  22.325  18.509 -0.0136 -0.0803  0.0334
 9163DDP     C454978   5.033  22.136  17.413  0.4228 -0.0669 -0.2444
 9164DDP     C154979  24.050  15.536   6.682  0.3343  0.0768  0.0112
 9164DDP     P154980  24.448  15.517   6.666  0.0515  0.3222 -0.0818
 9164DDP     P254981  23.882  15.879   7.029  0.3933  0.2219  0.0791
 9164DDP     C254982  23.544  16.202   6.968  0.0252 -0.0486 -0.0185
 9164DDP     C354983  24.778  15.234   6.632  0.2382  0.1365 -0.5537
 9164DDP     C454984  23.663  15.288   6.503  0.0382 -0.2174  0.0199
 9165DDP     C154985  29.326  26.761   1.758 -0.1676 -0.1968 -0.2997
 9165DDP     P154986  29.124  27.162   1.616  0.4160 -0.2596 -0.1628
 9165DDP     P254987  29.707  26.759   1.802 -0.0859 -0.0755  0.0732
 9165DDP     C254988  29.942  26.458   1.955 -0.2425 -0.0549 -0.0019
 9165DDP     C354989  29.002  27.262   1.221 -0.1426 -0.1398  0.0711
 9165DDP     C454990  28.983  26.409   1.717 -0.2740 -0.4437  0.2689
 9166DDP     C154991  19.331  23.072  27.030 -0.2039 -0.1488 -0.1717
 9166DDP     P154992  19.020  22.878  26.835 -0.1971 -0.1470 -0.2632
 9166DDP     P254993  19.815  23.140  26.944  0.0977 -0.1787 -0.0997
 9166DDP     C254994  20.126  23.396  26.630 -0.2155 -0.2142  0.2484
 9166DDP     C354995  19.201  22.839  26.411  0.0838  0.1625  0.0900
 9166DDP     C454996  19.147  22.908  27.471 -0.2453  0.2010  0.0208
 9167DDP     C154997  14.602  10.194  26.980  0.1251  0.2231 -0.0443
 9167DDP     P154998  14.404   9.817  27.140 -0.0711  0.2734  0.1578
 9167DDP     P254999  14.980  10.213  26.979  0.1019 -0.1645 -0.4604
 9167DDP     C255000  15.401  10.058  26.969  0.0921 -0.0486 -0.2826
 9167DDP     C355001  14.101   9.534  27.009 -0.2061  0.1109 -0.0871
 9167DDP     C455002  14.393  10.376  26.543 -0.0227 -0.0335 -0.2785
 9168DDP     C155003  13.540   8.239   2.535  0.0391 -0.1253  0.3196
 9168DDP     P155004  13.422   8.128   2.973  0.2214 -0.1087 -0.0103
 9168DDP     P255005  13.259   8.102   2.108  0.0778 -0.0853 -0.0091
 9168DDP     C255006  12.832   8.156   2.021  0.1798 -0.4011  0.2173
 9168DDP     C355007  13.331   8.429   3.272 -0.1050  0.1828  0.0231
 9168DDP     C455008  13.756   8.656   2.542 -0.1260  0.1498 -0.4024
 9169DDP     C155009  29.176  15.211  12.278  0.0739  0.1737  0.0650
 9169DDP     P155010  29.567  15.185  11.970 -0.0706 -0.2765 -0.0589
 9169DDP     P255011  29.052  14.917  12.590 -0.0872 -0.0209  0.2196
 9169DDP     C255012  28.558  14.846  12.830  0.1871  0.1515  0.0033
 9169DDP     C355013  29.843  14.889  11.856 -0.0032 -0.2227 -0.2020
 9169DDP     C455014  29.125  15.647  12.435  0.1379 -0.1589 -0.1050
 9170DDP     C155015  19.047  25.451  28.944  0.1794 -0.1068  0.1319
 9170DDP     P155016  19.321  25.153  29.137 -0.1822  0.0457  0.0003
 9170DDP     P255017  19.312  25.763  28.743 -0.0622 -0.3256  0.0593
 9170DDP     C255018  19.667  25.860  28.463  0.1717  0.1950  0.1207
 9170DDP     C355019  19.402  24.743  29.131 -0.0246 -0.1033 -0.0771
 9170DDP     C455020  18.555  25.568  29.079  0.1394 -0.1819  0.0825
 9171DDP     C155021   8.260  15.748   1.354 -0.1594  0.4541  0.1091
 9171DDP     P155022   8.315  15.303   1.491 -0.0932  0.1643 -0.1115
 9171DDP     P255023   8.398  15.808   0.887  0.2948 -0.1067  0.0338
 9171DDP     C255024   8.800  15.791   0.716 -0.1325  0.0748 -0.1103
 9171DDP     C355025   8.257  14.888   1.441  0.2514 -0.0722  0.2530
 9171DDP     C455026   8.226  16.192   1.543  0.0754  0.1046  0.0411
 9172DDP     C155027  19.111   5.149  19.915  0.3135  0.2114 -0.2697
 9172DDP     P155028  18.712   5.050  19.993 -0.0918 -0.1284  0.1300
 9172DDP     P255029  19.376   4.931  19.543 -0.0635 -0.0049 -0.1958
 9172DDP     C255030  19.296   4.999  19.104  0.2902 -0.2018  0.2360
 9172DDP     C355031  18.443   4.867  19.664 -0.0447  0.1545 -0.1620
 9172DDP     C455032  19.292   5.487  20.162  0.0274  0.1153  0.1248
 9173DDP     C155033  29.655  29.972  16.636 -0.1642 -0.1027 -0.2237
 9173DDP     P155034  29.471  29.831  16.958  0.0509  0.1012  0.2455
 9173DDP     P255035  29.491  30.298  16.393 -0.1129 -0.1712 -0.3025
 9173DDP     C255036  29.615   0.315  16.260  0.5056 -0.1621 -0.2355
 9173DDP     C355037  29.054  29.767  17.219  0.1570 -0.2183 -0.1149
 9173DDP     C455038  30.040  29.837  16.534  0.4578  0.0361  0.0485
 9174DDP     C155039   5.787  10.729  13.763  0.0709 -0.1405  0.0040
 9174DDP     P155040   5.904  10.428  13.482 -0.3399  0.1314  0.0301
 9174DDP     P255041   5.691  11.217  13.722  0.1231  0.3404 -0.0331
 9174DDP     C255042   5.472  11.588  13.673 -0.1910  0.1404 -0.1421
 9174DDP     C355043   5.997   9.962  13.399  0.1812  0.1790 -0.1124
 9174DDP     C455044   5.600  10.582  14.148 -0.0427 -0.0448  0.2469
 9175DDP     C155045  17.698   3.861  21.657 -0.0440  0.1083 -0.0055
 9175DDP     P155046  17.713   3.958  21.186  0.2445  0.0656  0.0621
 9175DDP     P255047  17.233   3.692  21.818  0.1586  0.1650  0.0327
 9175DDP     C255048  16.922   3.381  21.884  0.0324  0.1072  0.2148
 9175DDP     C355049  17.675   3.929  20.824  0.1899 -0.1152  0.3693
 9175DDP     C455050  18.020   4.126  21.863 -0.2479 -0.1784 -0.1962
 9176DDP     C155051  14.604   2.658   3.306 -0.1277 -0.0821 -0.0798
 9176DDP     P155052  14.901   2.724   3.076 -0.1037  0.1276  0.0957
 9176DDP     P255053  14.456   2.933   3.574  0.0638 -0.1202 -0.3182
 9176DDP     C255054  14.086   3.264   3.541 -0.1941 -0.0645 -0.2996
 9176DDP     C355055  14.944   3.161   2.841 -0.3134 -0.2835 -0.0146
 9176DDP     C455056  14.244   2.365   3.342 -0.1306 -0.1973  0.2581
 9177DDP     C155057  28.758  29.547  19.826 -0.2881 -0.0392  0.1215
 9177DDP     P155058  29.197  29.789  19.811 -0.1502 -0.0783 -0.1524
 9177DDP     P255059  28.541  29.697  19.619  0.1724 -0.1397 -0.0187
 9177DDP     C255060  28.526  30.035  19.143  0.0791 -0.1529 -0.2107
 9177DDP     C355061  29.490  29.969  20.128  0.1687 -0.3017 -0.1487
 9177DDP     C455062  28.634  29.417  20.167  0.0017 -0.1334 -0.0844
 9178DDP     C155063  27.136  22.849  24.161 -0.0744  0.1564 -0.3798
 9178DDP     P155064  26.868  22.519  24.223 -0.3367  0.3093  0.2472
 9178DDP     P255065  26.879  23.163  24.105  0.2288 -0.0929  0.2371
 9178DDP     C255066  26.615  23.450  23.786  0.0808  0.0512  0.1822
 9178DDP     C355067  26.429  22.465  24.032  0.1518 -0.1887 -0.0529
 9178DDP     C455068  27.400  22.568  24.054 -0.0923  0.5156  0.0695
 9179DDP     C155069   9.298   1.238  10.674 -0.1294 -0.3064  0.0349
 9179DDP     P155070   9.121   1.531  10.975 -0.0875  0.2205  0.2933
 9179DDP     P255071   9.114   0.868  10.878  0.0252  0.2239 -0.0431
 9179DDP     C255072   8.686   0.656  10.889  0.3266 -0.1483 -0.0401
 9179DDP     C355073   8.800   1.882  11.155  0.0457 -0.3700  0.2351
 9179DDP     C455074   9.522   1.275  10.225  0.0501 -0.1918 -0.3718
 9180DDP     C155075  12.163  26.335  16.513 -0.0581  0.0853 -0.2821
 9180DDP     P155076  12.060  26.812  16.575  0.0652 -0.0506  0.0913
 9180DDP     P255077  12.512  26.100  16.635 -0.0647  0.2785 -0.0635
 9180DDP     C255078  12.830  25.978  16.411  0.1442 -0.0089 -0.2391
 9180DDP     C355079  11.854  27.149  16.443  0.2020 -0.2066  0.1727
 9180DDP     C455080  11.847  26.153  16.201  0.0457  0.0459  0.0061
 9181DDP     C155081  22.319  13.681   7.416  0.2201 -0.3443  0.2104
 9181DDP     P155082  22.007  13.926   7.570  0.2577 -0.0389 -0.0408
 9181DDP     P255083  22.171  13.208   7.470  0.2075  0.3434 -0.2699
 9181DDP     C255084  21.935  12.893   7.229  0.2897  0.1495  0.2009
 9181DDP     C355085  21.467  13.962   7.550 -0.1423 -0.3654  0.0304
 9181DDP     C455086  22.717  13.877   7.379 -0.1629 -0.1398  0.2802
 9182DDP     C155087   2.576   0.296   0.144 -0.0302  0.0715 -0.0244
 9182DDP     P155088   2.652   0.729   0.401  0.0451  0.0232 -0.0157
 9182DDP     P255089   2.198   0.261  30.227 -0.1174  0.0540  0.1072
 9182DDP     C255090   2.035   0.437  29.774 -0.1388  0.1033  0.0234
 9182DDP     C355091   3.013   0.804   0.707 -0.1611 -0.1764 -0.1370
 9182DDP     C455092   2.771  30.318   0.269 -0.0065  0.0911 -0.1199
 9183DDP     C155093  16.124   0.920   1.084  0.2505  0.0189  0.4466
 9183DDP     P155094  16.058   0.937   0.644  0.0645  0.2315 -0.0291
 9183DDP     P255095  16.495   0.788   1.176  0.1829  0.1167  0.1215
 9183DDP     C255096  16.836   0.781   1.381  0.0107 -0.0744 -0.2108
 9183DDP     C355097  15.763   1.198   0.405  0.0591 -0.0244 -0.0304
 9183DDP     C455098  15.992   1.256   1.311 -0.0929  0.5990 -0.2200
 9184DDP     C155099  18.012  25.557  22.944  0.1338  0.3944 -0.1512
 9184DDP     P155100  18.039  25.932  23.209  0.3957 -0.3117  0.2341
 9184DDP     P255101  18.095  25.157  23.190  0.0948 -0.0929 -0.0051
 9184DDP     C255102  18.468  25.065  23.317  0.0300  0.2252 -0.2994
 9184DDP     C355103  18.193  26.082  23.488  0.3384 -0.1192 -0.0588
 9184DDP     C455104  18.076  25.618  22.618 -0.2590 -0.0170 -0.1000
 9185DDP     C155105  23.538   1.102  11.997  0.1357  0.1709  0.2656
 9185DDP     P155106  23.454   0.919  12.371  0.1281 -0.0552  0.1141
 9185DDP     P255107  23.362   0.959  11.526  0.0502  0.3068  0.1366
 9185DDP     C255108  23.083   0.667  11.309 -0.1665 -0.2757 -0.2877
 9185DDP     C355109  23.618   0.784  12.785  0.0950 -0.0757 -0.0506
 9185DDP     C455110  23.732   1.543  12.050  0.2839  0.3625  0.0931
 9186DDP     C155111  21.544  11.643  27.368 -0.2152  0.0452 -0.1741
 9186DDP     P155112  21.473  12.080  27.544 -0.0448 -0.4035 -0.1822
 9186DDP     P255113  21.401  11.516  27.032 -0.0650  0.1028  0.0489
 9186DDP     C255114  21.063  11.568  26.797 -0.0035 -0.0349  0.1327
 9186DDP     C355115  21.053  12.254  27.763 -0.2867 -0.3207 -0.3018
 9186DDP     C455116  21.826  11.325  27.406  0.2515 -0.0896  0.0432
 9187DDP     C155117   9.134   9.774   1.209 -0.1978 -0.2088 -0.2841
 9187DDP     P155118   8.698   9.823   1.323 -0.3676 -0.0376 -0.1913
 9187DDP     P255119   9.183   9.517   1.580 -0.1968 -0.0299  0.0658
 9187DDP     C255120   9.287   9.584   2.028  0.1563 -0.0538  0.2224
 9187DDP     C355121   8.281   9.847   1.197 -0.1701  0.0130  0.2512
 9187DDP     C455122   9.149   9.974   0.793 -0.0978 -0.1987 -0.0310
 9188DDP     C155123  29.609  19.258  27.744  0.2462  0.2185  0.1173
 9188DDP     P155124  29.346  19.300  27.376 -0.0736 -0.1489 -0.0167
 9188DDP     P255125  29.787  19.600  28.017  0.1415 -0.0116  0.0162
 9188DDP     C255126  29.662  19.930  28.345  0.0418 -0.1247  0.0715
 9188DDP     C355127  29.174  19.468  27.017  0.1742  0.0813 -0.2292
 9188DDP     C455128  29.603  18.924  27.959 -0.3386  0.3416 -0.1328
 9189DDP     C155129   5.220  21.592   6.912  0.3410 -0.0723  0.1032
 9189DDP     P155130   5.524  21.898   6.983 -0.3733 -0.2621  0.1234
 9189DDP     P255131   4.921  21.827   6.851 -0.0172  0.0738  0.1564
 9189DDP     C255132   4.471  21.845   6.800 -0.0461  0.0637 -0.1141
 9189DDP     C355133   5.669  22.193   7.273  0.4731 -0.1339 -0.0886
 9189DDP     C455134   5.039  21.247   6.841 -0.1791  0.0130 -0.1206
 9190DDP     C155135  14.581   6.256  19.382 -0.1575  0.2531 -0.2371
 9190DDP     P155136  15.011   6.264  19.380  0.2813  0.3854 -0.0490
 9190DDP     P255137  14.396   6.579  19.663  0.0937 -0.0882 -0.1587
 9190DDP     C255138  14.279   6.985  19.887  0.1089  0.1199 -0.1153
 9190DDP     C355139  15.352   6.587  19.583 -0.0573  0.0772  0.2182
 9190DDP     C455140  14.269   6.022  19.099  0.1202  0.0785  0.3174
 9191DDP     C155141  29.192  21.757   0.461  0.0283  0.1937 -0.1036
 9191DDP     P155142  29.607  21.627   0.677 -0.3140  0.2773  0.3444
 9191DDP     P255143  28.997  21.477   0.366  0.1564 -0.1688 -0.3445
 9191DDP     C255144  29.068  21.297   0.667  0.1664  0.1423  0.0809
 9191DDP     C355145  30.018  21.650   0.813 -0.1707  0.1230  0.2125
 9191DDP     C455146  29.175  22.104   0.229 -0.1116 -0.1010 -0.3357
 9192DDP     C155147   2.012  12.657   3.723 -0.1240  0.0551 -0.2426
 9192DDP     P155148   1.678  12.791   4.116 -0.0864  0.2998  0.2696
 9192DDP     P255149   2.463  12.882   3.776  0.2118 -0.0812 -0.1574
 9192DDP     C255150   2.680  13.200   3.581 -0.0011 -0.1272  0.0201
 9192DDP     C355151   1.343  12.691   4.312 -0.0015  0.0404  0.1624
 9192DDP     C455152   1.597  12.678   3.462  0.2908 -0.2327 -0.2675
 9193DDP     C155153  17.698  19.537  30.071  0.1810 -0.3299 -0.0656
 9193DDP     P155154  17.769  19.711  29.677  0.3790  0.3697  0.0852
 9193DDP     P255155  17.841  19.291   0.090 -0.1443  0.1711 -0.1914
 9193DDP     C255156  18.082  18.989   0.287  0.0533 -0.1747 -0.1671
 9193DDP     C355157  17.894  19.727  29.206 -0.0831 -0.2620 -0.0893
 9193DDP     C455158  17.277  19.770  30.123 -0.0402 -0.1632  0.0378
 9194DDP     C155159  13.433  23.637   6.443 -0.1849  0.1761 -0.0768
 9194DDP     P155160  13.500  23.546   6.101 -0.3165 -0.0892 -0.0324
 9194DDP     P255161  13.563  24.026   6.632 -0.0601  0.1130 -0.1798
 9194DDP     C255162  13.865  24.307   6.774  0.1491 -0.2670 -0.2261
 9194DDP     C355163  13.606  23.836   5.763 -0.3353  0.0752 -0.0714
 9194DDP     C455164  13.357  23.137   6.692  0.3089  0.0686  0.0049
 9195DDP     C155165  12.910  28.444   2.067 -0.0045 -0.3836  0.1627
 9195DDP     P155166  12.727  28.169   2.263  0.1251  0.0684  0.1361
 9195DDP     P255167  13.243  28.559   1.797 -0.1612 -0.0421 -0.2316
 9195DDP     C255168  13.497  28.852   1.595 -0.0184  0.1673  0.0197
 9195DDP     C355169  12.442  28.199   2.605  0.0788 -0.0347 -0.0150
 9195DDP     C455170  12.653  28.904   2.125 -0.2565 -0.0914 -0.1736
 9196DDP     C155171  11.772  19.254  15.581  0.2954  0.3384  0.2931
 9196DDP     P155172  12.232  19.302  15.705 -0.4016  0.1136 -0.0106
 9196DDP     P255173  11.615  19.670  15.601  0.3022  0.0550 -0.1762
 9196DDP     C255174  11.282  19.943  15.610 -0.2346 -0.0720 -0.1151
 9196DDP     C355175  12.460  19.067  15.902  0.0549 -0.1822 -0.0150
 9196DDP     C455176  11.508  18.940  15.660  0.1393  0.1274 -0.1141
 9197DDP     C155177   2.569   2.913  27.776 -0.2220 -0.1489 -0.0622
 9197DDP     P155178   2.425   2.563  27.588  0.0420 -0.0043 -0.2283
 9197DDP     P255179   2.731   2.949  28.042 -0.1721 -0.0505 -0.2524
 9197DDP     C255180   3.122   2.655  28.165 -0.2849 -0.0219 -0.0091
 9197DDP     C355181   2.050   2.406  27.421  0.1082 -0.4714  0.0431
 9197DDP     C455182   2.411   3.213  27.571  0.1134  0.0444  0.0699
 9198DDP     C155183  18.986  12.545   6.163  0.0112 -0.0887 -0.1535
 9198DDP     P155184  18.873  12.540   5.690 -0.0008 -0.1359 -0.1621
 9198DDP     P255185  18.669  12.467   6.526  0.2295  0.1383 -0.1497
 9198DDP     C255186  18.251  12.549   6.678  0.2004 -0.1110  0.3393
 9198DDP     C355187  19.262  12.374   5.343 -0.1254  0.1440 -0.3025
 9198DDP     C455188  19.473  12.386   6.091  0.1946  0.0455  0.2798
 9199DDP     C155189   9.281  29.713   2.298 -0.1037  0.2023  0.4987
 9199DDP     P155190   9.276  29.335   2.511 -0.3196 -0.1791  0.0963
 9199DDP     P255191   8.905  29.641   2.251  0.0336 -0.0851  0.0152
 9199DDP     C255192   8.702  29.311   1.977  0.0925 -0.1239 -0.0931
 9199DDP     C355193   8.812  29.172   2.495  0.0058  0.0676 -0.1116
 9199DDP     C455194   9.725  29.905   2.279  0.0497 -0.1413 -0.2533
 9200DDP     C155195   3.137   1.960  10.911 -0.0786  0.0066 -0.0763
 9200DDP     P155196   3.511   1.821  11.100 -0.1807 -0.0025 -0.0590
 9200DDP     P255197   3.061   1.575  10.580 -0.1217 -0.0462 -0.1317
 9200DDP     C255198   3.370   1.531  10.088 -0.0475  0.0740 -0.2322
 9200DDP     C355199   3.875   2.031  11.246 -0.1265  0.1018 -0.0953
 9200DDP     C455200   2.910   2.307  11.113 -0.1783 -0.2758 -0.0192
 9201DDP     C155201  13.953  25.556   6.784  0.3016  0.1743 -0.3296
 9201DDP     P155202  13.763  25.138   6.786 -0.0566  0.0228 -0.0165
 9201DDP     P255203  13.721  25.799   6.548  0.0134 -0.0702 -0.1837
 9201DDP     C255204  13.486  26.056   6.241  0.0522  0.3650 -0.1195
 9201DDP     C355205  13.549  24.844   6.564 -0.0706 -0.0784  0.0997
 9201DDP     C455206  14.293  25.677   6.998  0.1952 -0.1959 -0.0132
 9202DDP     C155207  27.739  11.938   6.065 -0.2636  0.1628 -0.0408
 9202DDP     P155208  27.689  12.391   6.263 -0.0068  0.0353  0.4613
 9202DDP     P255209  27.868  11.894   5.593 -0.2316  0.3119 -0.3237
 9202DDP     C255210  28.222  11.626   5.419  0.1569  0.2920  0.3220
 9202DDP     C355211  27.289  12.724   6.297 -0.0842  0.3699  0.0808
 9202DDP     C455212  27.845  11.677   6.368  0.4043  0.0641 -0.3122
 9203DDP     C155213  17.196  25.570  23.139  0.0846 -0.2386 -0.2451
 9203DDP     P155214  17.620  25.582  23.389 -0.0308  0.1480 -0.3484
 9203DDP     P255215  16.868  25.744  23.327  0.1335 -0.1102 -0.0125
 9203DDP     C255216  16.701  26.059  23.492  0.1505 -0.2004 -0.0590
 9203DDP     C355217  17.985  25.491  23.596  0.0336  0.0912 -0.3266
 9203DDP     C455218  17.128  25.125  22.927 -0.1472  0.0967 -0.2706
 9204DDP     C155219   9.483  15.472   1.311 -0.1437 -0.4455 -0.2354
 9204DDP     P155220   9.787  15.195   1.586 -0.0958  0.0505  0.2609
 9204DDP     P255221   9.116  15.320   1.359  0.2194 -0.1850  0.0084
 9204DDP     C255222   8.823  15.534   1.590  0.2896  0.1055  0.1223
 9204DDP     C355223   9.755  14.789   1.620 -0.2459 -0.0885 -0.1483
 9204DDP     C455224   9.598  15.874   1.126 -0.1989 -0.0003  0.0561
 9205DDP     C155225  24.282   1.731  17.136 -0.3748 -0.3015 -0.1453
 9205DDP     P155226  24.049   2.172  17.029 -0.3464 -0.3579 -0.0278
 9205DDP     P255227  24.618   1.591  17.254  0.2372  0.3755 -0.0978
 9205DDP     C255228  24.822   1.260  17.325  0.0863 -0.1113 -0.1448
 9205DDP     C355229  23.672   2.477  16.934  0.0641  0.0557 -0.3128
 9205DDP     C455230  24.035   1.380  16.895 -0.0755  0.1740 -0.0274
 9206DDP     C155231  13.175  25.659   8.653  0.1828 -0.0315  0.3309
 9206DDP     P155232  12.873  25.434   8.863 -0.0612  0.2351 -0.3122
 9206DDP     P255233  13.250  26.022   8.720 -0.0217  0.2519  0.1191
 9206DDP     C255234  13.216  26.458   8.534  0.1391 -0.0865  0.0513
 9206DDP     C355235  12.398  25.268   9.087 -0.1159 -0.1816  0.1584
 9206DDP     C455236  13.322  25.558   8.250 -0.0159 -0.2028 -0.0992
 9207DDP     C155237  26.765  23.123  10.219 -0.0307  0.1090 -0.1045
 9207DDP     P155238  26.577  22.729  10.278  0.0795  0.0539  0.3829
 9207DDP     P255239  26.514  23.414   9.986  0.0134  0.2246  0.1427
 9207DDP     C255240  26.459  23.844   9.803  0.0210 -0.1591  0.1719
 9207DDP     C355241  26.588  22.496   9.984  0.2617  0.2141 -0.3156
 9207DDP     C455242  27.087  23.160  10.379  0.1200  0.3606  0.0700
 9208DDP     C155243   1.691  13.894  19.386 -0.0657  0.1108  0.0043
 9208DDP     P155244   1.531  13.511  19.243 -0.0237 -0.3949  0.4620
 9208DDP     P255245   1.862  13.975  19.028 -0.4695 -0.1049 -0.0231
 9208DDP     C255246   1.788  14.075  18.727  0.1781  0.2349 -0.0401
 9208DDP     C355247   1.157  13.419  19.067  0.0958 -0.1746  0.1761
 9208DDP     C455248   1.556  13.948  19.736  0.1279 -0.0891 -0.0633
 9209DDP     C155249  13.943   4.379  17.793  0.0226 -0.0938 -0.0613
 9209DDP     P155250  14.368   4.359  17.987  0.4773 -0.0987 -0.1692
 9209DDP     P255251  13.875   4.858  17.776  0.1582 -0.0632 -0.0896
 9209DDP     C255252  13.926   5.242  17.684 -0.0174 -0.3154 -0.3247
 9209DDP     C355253  14.663   4.623  17.996 -0.0269 -0.0671  0.0507
 9209DDP     C455254  13.737   4.195  17.528 -0.0731 -0.1734  0.1340
 9210DDP     C155255  24.047  25.975  20.512  0.1206  0.0197 -0.1236
 9210DDP     P155256  24.194  25.828  20.821 -0.0197  0.0806  0.0646
 9210DDP     P255257  23.643  26.208  20.636 -0.2911 -0.1613 -0.0606
 9210DDP     C255258  23.185  26.275  20.465 -0.0649 -0.1442  0.1569
 9210DDP     C355259  24.360  25.627  21.240  0.2167 -0.3008  0.2699
 9210DDP     C455260  24.221  25.986  20.101  0.0220 -0.2199  0.1064
 9211DDP     C155261  14.288  29.192  11.827  0.1576  0.1597 -0.2116
 9211DDP     P155262  14.117  29.423  11.451 -0.2440  0.0892 -0.0167
 9211DDP     P255263  14.174  29.243  12.189  0.0956 -0.2173 -0.1490
 9211DDP     C255264  13.821  29.425  12.378  0.2245 -0.1627 -0.1560
 9211DDP     C355265  13.801  29.235  11.169 -0.0029 -0.0362 -0.0820
 9211DDP     C455266  14.640  28.993  11.877  0.0020 -0.1312 -0.0522
 9212DDP     C155267   9.414  23.938  23.791 -0.1745  0.2313  0.2004
 9212DDP     P155268   9.271  24.381  23.866  0.2423 -0.0859  0.0619
 9212DDP     P255269   9.437  23.783  24.145 -0.0548  0.0487 -0.2368
 9212DDP     C255270   9.461  23.769  24.531  0.1623  0.0178  0.0787
 9212DDP     C355271   9.348  24.871  23.994  0.1696  0.0343 -0.4129
 9212DDP     C455272   9.325  23.849  23.296  0.1905 -0.1213  0.0945
 9213DDP     C155273  16.422   7.797   1.473 -0.2985  0.0750  0.0828
 9213DDP     P155274  16.064   7.936   1.437 -0.2546  0.1451  0.0065
 9213DDP     P255275  16.528   7.879   0.990  0.1544 -0.3533 -0.0753
 9213DDP     C255276  16.349   7.694   0.595  0.1437  0.0018  0.0983
 9213DDP     C355277  15.810   8.056   1.642 -0.1631 -0.2739  0.1556
 9213DDP     C455278  16.673   7.609   1.809  0.0422 -0.1366 -0.0178
 9214DDP     C155279  26.752   5.239  15.015 -0.0237  0.2495  0.2650
 9214DDP     P155280  27.084   5.255  14.807 -0.3181  0.1332 -0.0166
 9214DDP     P255281  26.603   5.466  15.253 -0.0482  0.1665 -0.3285
 9214DDP     C255282  26.369   5.409  15.660  0.1234  0.1344  0.1430
 9214DDP     C355283  27.296   5.225  14.387  0.3567  0.1529 -0.2059
 9214DDP     C455284  26.560   4.894  14.901  0.1088  0.0763  0.1473
 9215DDP     C155285  29.041  18.527  13.785  0.0098  0.0978 -0.2231
 9215DDP     P155286  28.715  18.301  14.040 -0.1528 -0.1329 -0.0329
 9215DDP     P255287  29.062  18.943  13.673  0.1809 -0.1998 -0.1935
 9215DDP     C255288  29.382  19.161  14.008  0.0852  0.1278 -0.0947
 9215DDP     C355289  28.466  18.246  14.466  0.1299 -0.0772  0.1909
 9215DDP     C455290  29.453  18.459  13.722 -0.0050 -0.0889 -0.1671
 9216DDP     C155291   2.840   4.468  20.946  0.0258  0.1577 -0.1530
 9216DDP     P155292   2.435   4.261  20.974  0.0124 -0.1851 -0.2133
 9216DDP     P255293   2.873   4.552  21.453 -0.1719  0.3030 -0.0855
 9216DDP     C255294   3.017   4.595  21.880 -0.2154  0.0351  0.0364
 9216DDP     C355295   2.145   3.939  20.839  0.2213 -0.1079 -0.1996
 9216DDP     C455296   3.112   4.442  20.561 -0.0605  0.0621  0.1325
 9217DDP     C155297  22.619  20.492   0.193 -0.2725 -0.0389 -0.0818
 9217DDP     P155298  22.284  20.795   0.104 -0.0262  0.2515 -0.3040
 9217DDP     P255299  22.702  20.399   0.637  0.0806 -0.0370 -0.0232
 9217DDP     C255300  22.842  19.947   0.725 -0.1378  0.5056  0.2840
 9217DDP     C355301  22.247  21.196   0.301 -0.1527  0.1930  0.0394
 9217DDP     C455302  22.708  20.060   0.119 -0.0201 -0.0162 -0.1185
 9218DDP     C155303  16.222  11.309  18.059 -0.1206  0.1782 -0.0342
 9218DDP     P155304  16.698  11.224  18.253  0.2098 -0.1249  0.1671
 9218DDP     P255305  16.221  11.434  17.623 -0.1633  0.2367  0.2145
 9218DDP     C255306  16.235  11.349  17.194  0.0142  0.1780  0.1199
 9218DDP     C355307  17.171  11.129  18.366 -0.0500  0.1028  0.1695
 9218DDP     C455308  15.911  11.082  18.278  0.0117 -0.2308 -0.1519
 9219DDP     C155309  23.906  26.319   2.764  0.1796 -0.1007  0.0858
 9219DDP     P155310  23.566  26.024   2.755 -0.2280 -0.2253  0.0081
 9219DDP     P255311  23.773  26.296   3.179  0.1698 -0.1797  0.2249
 9219DDP     C255312  23.950  26.089   3.654  0.2361 -0.1489  0.0459
 9219DDP     C355313  23.171  25.854   2.669  0.2345 -0.0296  0.0093
 9219DDP     C455314  23.995  26.614   2.490 -0.1374  0.1050 -0.0153
 9220DDP     C155315  30.019  19.948   7.350 -0.0029 -0.0372  0.2247
 9220DDP     P155316  29.811  19.644   7.688 -0.0155  0.2401 -0.1188
 9220DDP     P255317   0.007  20.237   7.399  0.1134  0.0056 -0.1887
 9220DDP     C255318   0.379  20.308   7.235  0.0423 -0.1363 -0.3388
 9220DDP     C355319  29.515  19.480   8.038 -0.1531  0.1310 -0.2878
 9220DDP     C455320  30.100  20.097   6.924 -0.0136  0.2322 -0.0331
 9221DDP     C155321  17.596   9.262  26.778  0.1007 -0.0144  0.1455
 9221DDP     P155322  17.297   9.465  26.513  0.0038  0.0056  0.1708
 9221DDP     P255323  17.704   9.411  27.184  0.3440 -0.2495 -0.1314
 9221DDP     C255324  17.733   9.685  27.471  0.1232  0.2887  0.1295
 9221DDP     C355325  17.290   9.897  26.561 -0.0856 -0.3497  0.1943
 9221DDP     C455326  17.453   8.893  26.621  0.0581  0.3151 -0.0818
 9222DDP     C155327   6.528   9.716   1.122 -0.0677 -0.0830  0.2517
 9222DDP     P155328   6.408   9.398   1.054 -0.0436 -0.0715 -0.1543
 9222DDP     P255329   6.832   9.648   1.253 -0.2112  0.0121  0.0011
 9222DDP     C255330   7.272   9.626   1.145  0.2442 -0.2653  0.0935
 9222DDP     C355331   6.290   8.974   0.961 -0.0600 -0.0332 -0.0291
 9222DDP     C455332   6.449  10.090   0.869  0.2513  0.0061 -0.2190
 9223DDP     C155333   1.309  22.506  22.985  0.0740 -0.0220  0.1337
 9223DDP     P155334   1.775  22.629  22.852 -0.2270  0.2226  0.1865
 9223DDP     P255335   1.073  22.277  22.598 -0.3801  0.0690 -0.0280
 9223DDP     C255336   0.753  22.432  22.301 -0.3998 -0.0441 -0.2688
 9223DDP     C355337   2.171  22.438  22.763 -0.0935  0.1519 -0.3346
 9223DDP     C455338   1.231  22.367  23.411  0.1684 -0.4015  0.1242
 9224DDP     C155339  22.869  10.218  10.518  0.2479  0.0185  0.1067
 9224DDP     P155340  23.173  10.474  10.212 -0.1223  0.3184 -0.0548
 9224DDP     P255341  22.870   9.754  10.737 -0.1229  0.1686 -0.2902
 9224DDP     C255342  23.088   9.424  11.022 -0.3335  0.0013 -0.0499
 9224DDP     C355343  23.027  10.811   9.993 -0.2609  0.2041 -0.1898
 9224DDP     C455344  22.674  10.502  10.785 -0.2378  0.2415 -0.0987
 9225DDP     C155345  13.049   6.755   4.685  0.0392 -0.0216  0.2964
 9225DDP     P155346  12.871   7.104   4.855 -0.1732 -0.1178 -0.0687
 9225DDP     P255347  13.251   6.626   4.945  0.2246  0.0475  0.0837
 9225DDP     C255348  13.546   6.812   5.164  0.0449  0.1177 -0.1754
 9225DDP     C355349  12.587   7.283   5.023  0.1603 -0.1033  0.1290
 9225DDP     C455350  13.173   6.695   4.164  0.1568 -0.1125 -0.0600
 9226DDP     C155351   0.494  16.144  24.386  0.0925 -0.1250 -0.0589
 9226DDP     P155352   0.176  16.247  24.710  0.3213 -0.0800 -0.0258
 9226DDP     P255353   0.812  15.901  24.605 -0.1339 -0.0122 -0.2302
 9226DDP     C255354   1.161  15.504  24.668 -0.0014 -0.1842 -0.1058
 9226DDP     C355355  30.295  16.183  25.089  0.2193  0.1545 -0.0164
 9226DDP     C455356   0.507  16.498  23.998 -0.0237 -0.3925 -0.2072
 9227DDP     C155357  26.583  16.924  25.236  0.1225 -0.0865 -0.0670
 9227DDP     P155358  26.864  17.085  25.481  0.1026 -0.0509 -0.1211
 9227DDP     P255359  26.814  16.876  24.841 -0.1251  0.1348  0.0796
 9227DDP     C255360  27.167  16.720  24.527  0.2489 -0.1459  0.0104
 9227DDP     C355361  27.292  17.229  25.428 -0.0283  0.2877  0.3498
 9227DDP     C455362  26.135  16.709  25.329 -0.2068  0.0862  0.0753
 9228DDP     C155363   4.678  11.111  11.630  0.0418 -0.1102 -0.2384
 9228DDP     P155364   4.666  10.760  11.253 -0.1661 -0.0049  0.1943
 9228DDP     P255365   4.850  11.505  11.663 -0.2862  0.1101 -0.0590
 9228DDP     C255366   4.820  11.952  11.672  0.0033  0.1040 -0.0606
 9228DDP     C355367   4.971  10.537  10.947  0.0034  0.1153 -0.1178
 9228DDP     C455368   4.418  10.939  11.967  0.1277  0.3012 -0.1603
 9229DDP     C155369  13.096  28.223  14.727 -0.0283 -0.0061 -0.0355
 9229DDP     P155370  13.358  28.489  15.082 -0.0009  0.2044  0.0047
 9229DDP     P255371  12.726  28.176  14.892 -0.3308  0.0321  0.0010
 9229DDP     C255372  12.334  28.192  14.741  0.0696 -0.1703 -0.3530
 9229DDP     C355373  13.651  28.422  15.435  0.2860  0.0376 -0.2764
 9229DDP     C455374  13.268  28.155  14.327 -0.0403 -0.0660  0.1982
 9230DDP     C155375  22.299  11.014  17.069  0.1475 -0.2962 -0.0703
 9230DDP     P155376  21.956  10.752  16.895 -0.0589  0.6088 -0.0070
 9230DDP     P255377  22.581  11.339  17.040 -0.0264 -0.2037 -0.1779
 9230DDP     C255378  22.832  11.573  16.855  0.0671  0.4366 -0.2745
 9230DDP     C355379  21.721  10.404  16.664 -0.1641 -0.0486  0.1646
 9230DDP     C455380  22.235  11.002  17.558  0.2129 -0.1800 -0.0502
 9231DDP     C155381  21.737   1.126   8.432 -0.2343  0.1890 -0.0722
 9231DDP     P155382  21.548   1.110   7.997 -0.2147 -0.2669  0.0362
 9231DDP     P255383  21.649   0.807   8.681  0.4205  0.1814 -0.1145
 9231DDP     C255384  21.791   0.449   8.714 -0.0279  0.3964 -0.1347
 9231DDP     C355385  21.754   0.948   7.638  0.0638  0.1987 -0.0204
 9231DDP     C455386  21.975   1.600   8.470  0.1603 -0.0729 -0.2056
 9232DDP     C155387  12.637  30.277  27.808  0.0932 -0.0650  0.2127
 9232DDP     P155388  12.949  30.110  28.009  0.2275 -0.3176 -0.0112
 9232DDP     P255389  12.397  30.257  28.235  0.1125  0.0507 -0.1855
 9232DDP     C255390  11.936  30.295  28.262 -0.0800  0.1394  0.0679
 9232DDP     C355391  13.254  30.164  28.298  0.2656 -0.1446  0.0857
 9232DDP     C455392  12.575   0.385  27.655 -0.2590 -0.0644  0.1270
 9233DDP     C155393   0.326  20.477  24.320 -0.0617  0.2446  0.0761
 9233DDP     P155394   0.603  20.218  24.274  0.0516  0.0067  0.3090
 9233DDP     P255395  30.306  20.570  24.135  0.2019  0.1259  0.1222
 9233DDP     C255396  29.866  20.601  23.975  0.1773  0.0738  0.3145
 9233DDP     C355397   0.801  19.969  24.013  0.1715  0.6411  0.0392
 9233DDP     C455398   0.494  20.692  24.695  0.3198  0.0122  0.1600
 9234DDP     C155399  29.554  15.106  19.038  0.2148  0.4173  0.4267
 9234DDP     P155400  29.465  15.530  18.917  0.0347 -0.1005 -0.1196
 9234DDP     P255401  29.695  14.930  18.650  0.1198 -0.2149 -0.1508
 9234DDP     C255402  29.925  15.022  18.209  0.0983  0.0622  0.1303
 9234DDP     C355403  29.135  15.683  18.685  0.3059 -0.2148 -0.3749
 9234DDP     C455404  29.444  14.738  19.265  0.1054 -0.4331 -0.0166
 9235DDP     C155405  15.230  30.277   5.643 -0.0077 -0.0830 -0.3413
 9235DDP     P155406  14.939   0.125   5.886 -0.1155  0.1621  0.3029
 9235DDP     P255407  14.976  30.158   5.340  0.0471 -0.0226 -0.0370
 9235DDP     C255408  15.116  29.862   5.162 -0.0128 -0.0492 -0.2001
 9235DDP     C355409  14.691   0.280   6.169 -0.1630 -0.0360 -0.1941
 9235DDP     C455410  15.705  30.108   5.728 -0.0711  0.1082 -0.1142
 9236DDP     C155411  14.494  10.622   9.669 -0.4138  0.1674  0.0861
 9236DDP     P155412  14.143  10.307   9.724 -0.0513  0.1158  0.1192
 9236DDP     P255413  14.635  10.847   9.315  0.0962  0.1880 -0.2062
 9236DDP     C255414  14.504  10.722   8.890 -0.3059  0.2356  0.1714
 9236DDP     C355415  13.637  10.267   9.607 -0.2041  0.1395 -0.1918
 9236DDP     C455416  14.918  10.538   9.885  0.0635  0.0165  0.2412
 9237DDP     C155417   2.056  21.875  24.391  0.0153  0.0445 -0.0043
 9237DDP     P155418   1.826  22.271  24.581  0.2143  0.2609  0.1647
 9237DDP     P255419   2.067  21.481  24.521 -0.2359  0.0087 -0.0253
 9237DDP     C255420   1.848  21.112  24.546 -0.1408 -0.1583 -0.1439
 9237DDP     C355421   1.532  22.465  24.302  0.0318  0.0436 -0.0958
 9237DDP     C455422   2.383  22.055  24.212 -0.0331 -0.2778  0.3420
 9238DDP     C155423   6.278  25.640   3.538 -0.2890  0.1895 -0.4121
 9238DDP     P155424   5.824  25.586   3.367 -0.0896  0.0906 -0.0602
 9238DDP     P255425   6.662  25.486   3.283 -0.2176  0.0022 -0.0662
 9238DDP     C255426   7.019  25.205   3.080 -0.1303  0.0460 -0.3513
 9238DDP     C355427   5.554  25.497   3.006 -0.0444 -0.1424 -0.2660
 9238DDP     C455428   6.387  25.783   3.964 -0.0144  0.0233  0.0601
 9239DDP     C155429   6.499   5.588  22.399  0.1412  0.1218  0.1383
 9239DDP     P155430   6.308   5.891  22.697  0.2916 -0.1118  0.2343
 9239DDP     P255431   6.357   5.115  22.456 -0.1329 -0.0506 -0.2001
 9239DDP     C255432   6.324   4.641  22.618 -0.1980  0.2897  0.1951
 9239DDP     C355433   6.317   6.324  22.826  0.0576  0.2263  0.1500
 9239DDP     C455434   6.704   5.690  21.976 -0.2866 -0.1738 -0.3527
 9240DDP     C155435  19.228  28.719  29.219  0.0856  0.0788  0.2239
 9240DDP     P155436  19.215  29.044  29.515  0.0688  0.0362 -0.0891
 9240DDP     P255437  18.870  28.789  29.072 -0.2449 -0.2067  0.0667
 9240DDP     C255438  18.507  28.881  29.059 -0.1659  0.3125 -0.0023
 9240DDP     C355439  19.097  29.302  29.881 -0.0501  0.3476 -0.0617
 9240DDP     C455440  19.636  28.525  29.113  0.1067  0.3770 -0.0019
 9241DDP     C155441   8.124   8.840  30.308  0.1630 -0.0497  0.0393
 9241DDP     P155442   8.068   8.592   0.305 -0.0521  0.1814  0.1849
 9241DDP     P255443   8.469   9.162   0.033  0.2031 -0.0397  0.0463
 9241DDP     C255444   8.748   9.323   0.183 -0.3692 -0.1419  0.3053
 9241DDP     C355445   7.967   8.210   0.610  0.0166 -0.0580  0.0270
 9241DDP     C455446   7.916   8.729  29.974  0.0327 -0.0652 -0.0922
 9242DDP     C155447   1.188  16.794  20.071 -0.0114  0.2439  0.0998
 9242DDP     P155448   1.565  16.778  19.987  0.0986 -0.0108  0.1095
 9242DDP     P255449   1.123  17.060  19.721 -0.2468 -0.0435  0.0125
 9242DDP     C255450   0.901  17.180  19.371  0.0110 -0.0899 -0.0530
 9242DDP     C355451   1.947  16.580  19.980  0.0603  0.0059 -0.0754
 9242DDP     C455452   1.035  16.509  20.283  0.2490  0.0288 -0.1618
 9243DDP     C155453  17.795  27.658   6.536  0.1422 -0.2619 -0.0802
 9243DDP     P155454  17.611  27.846   6.873  0.0903 -0.0873 -0.1823
 9243DDP     P255455  17.589  27.332   6.350 -0.1504  0.0649 -0.2545
 9243DDP     C255456  17.169  27.278   6.314  0.2551  0.1675  0.0845
 9243DDP     C355457  17.369  27.888   7.197 -0.0294  0.1758  0.2253
 9243DDP     C455458  18.276  27.599   6.542 -0.0373 -0.1011  0.2765
 9244DDP     C155459  21.627   1.767  25.879 -0.0450  0.1064 -0.3152
 9244DDP     P155460  21.361   2.048  26.174 -0.0977 -0.1146 -0.3408
 9244DDP     P255461  21.489   1.388  25.675 -0.0553 -0.2717 -0.2886
 9244DDP     C255462  21.328   0.966  25.797 -0.0854 -0.1024 -0.0777
 9244DDP     C355463  20.948   2.223  26.299  0.0436 -0.1419  0.1724
 9244DDP     C455464  21.913   1.863  25.592  0.2294 -0.0726  0.0312
 9245DDP     C155465  21.796  25.999  27.910  0.0470 -0.0876 -0.1556
 9245DDP     P155466  21.641  25.943  28.380 -0.1767  0.0767  0.0037
 9245DDP     P255467  21.900  26.453  27.681 -0.2629 -0.0737 -0.0369
 9245DDP     C255468  21.673  26.710  27.368  0.1154 -0.0095 -0.1806
 9245DDP     C355469  21.300  25.757  28.570  0.0972  0.1976 -0.1315
 9245DDP     C455470  21.788  25.676  27.617  0.2647 -0.2427  0.0074
 9246DDP     C155471  12.217  16.571  25.119  0.1697 -0.0539 -0.1320
 9246DDP     P155472  11.799  16.314  24.969  0.0334 -0.1385  0.1329
 9246DDP     P255473  12.091  16.291  25.459  0.0380 -0.1427 -0.1268
 9246DDP     C255474  11.633  16.052  25.574  0.0659  0.2524  0.1755
 9246DDP     C355475  11.574  15.885  24.828  0.0361  0.2836 -0.2865
 9246DDP     C455476  12.433  16.941  24.943 -0.0407 -0.1630 -0.0394
 9247DDP     C155477   3.865  29.295   2.208  0.2149 -0.0589 -0.0693
 9247DDP     P155478   3.488  29.473   2.240 -0.2249  0.1347  0.1361
 9247DDP     P255479   3.923  28.866   2.379  0.1785  0.0557  0.1604
 9247DDP     C255480   4.009  28.515   2.686 -0.0497 -0.0426 -0.2554
 9247DDP     C355481   3.163  29.074   2.170 -0.1368  0.1238  0.0444
 9247DDP     C455482   4.193  29.544   1.966  0.3260 -0.0952 -0.1371
 9248DDP     C155483   1.203  15.988  22.665  0.0445  0.1729  0.0841
 9248DDP     P155484   1.380  15.990  22.204 -0.0058  0.1889  0.3114
 9248DDP     P255485   0.719  15.918  22.485  0.0001  0.1108 -0.0492
 9248DDP     C255486   0.262  15.839  22.404  0.0735  0.3812 -0.1801
 9248DDP     C355487   1.269  16.102  21.752  0.1299 -0.2116 -0.0996
 9248DDP     C455488   1.310  15.766  22.988  0.0461 -0.0539 -0.2179
 9249DDP     C155489   5.031   9.405  24.718  0.2652 -0.1188  0.2093
 9249DDP     P155490   5.037   9.187  25.091 -0.0621 -0.1831  0.4321
 9249DDP     P255491   4.763   9.255  24.376 -0.1440 -0.4958 -0.1020
 9249DDP     C255492   4.815   9.405  23.925  0.3224 -0.1420  0.3405
 9249DDP     C355493   5.009   8.692  25.138 -0.0942  0.2493  0.1282
 9249DDP     C455494   5.235   9.742  24.720 -0.0448 -0.0433  0.1299
 9250DDP     C155495  16.987  21.692  11.625  0.0719  0.1187  0.0258
 9250DDP     P155496  17.213  21.502  11.319  0.0170  0.3768 -0.1358
 9250DDP     P255497  16.806  22.102  11.471 -0.0204 -0.0600  0.3682
 9250DDP     C255498  16.683  22.425  11.205 -0.1661  0.0167 -0.0758
 9250DDP     C355499  17.388  21.288  10.981  0.0442  0.0905 -0.0313
 9250DDP     C455500  16.972  21.594  12.019 -0.2187 -0.1585 -0.1300
 9251DDP     C155501  16.939   2.269  27.356 -0.1002  0.3575 -0.0276
 9251DDP     P155502  16.559   2.058  27.380  0.2477  0.1374  0.1000
 9251DDP     P255503  16.987   2.636  27.492 -0.0070  0.1507 -0.0529
 9251DDP     C255504  16.946   3.009  27.602  0.1450  0.0013 -0.1074
 9251DDP     C355505  16.269   1.876  27.166  0.0885  0.0739 -0.1177
 9251DDP     C455506  17.288   1.992  27.280  0.1556  0.0833 -0.0513
 9252DDP     C155507  18.553   8.432  17.734  0.0935  0.0650  0.0955
 9252DDP     P155508  18.452   8.283  17.282  0.4155 -0.1555 -0.5015
 9252DDP     P255509  18.831   8.778  17.826  0.0244  0.0386  0.1160
 9252DDP     C255510  19.147   8.917  17.819  0.1148  0.0666  0.1914
 9252DDP     C355511  18.425   7.938  17.246  0.2286  0.0483 -0.0684
 9252DDP     C455512  18.299   8.318  18.113  0.1497  0.1754  0.1024
 9253DDP     C155513  23.407  10.626   2.865  0.1182  0.0719  0.2624
 9253DDP     P155514  23.643  10.613   3.190 -0.1953 -0.1292  0.1801
 9253DDP     P255515  23.098  10.730   3.132 -0.2044 -0.1581  0.3231
 9253DDP     C255516  22.879  11.163   3.310 -0.0853  0.4921 -0.0941
 9253DDP     C355517  23.906  10.639   3.558  0.0572 -0.4331 -0.1891
 9253DDP     C455518  23.551  10.674   2.467  0.1248  0.4265 -0.4306
 9254DDP     C155519  17.249  20.812  13.381  0.3845  0.0557 -0.0390
 9254DDP     P155520  17.074  20.407  13.600 -0.0782  0.2796 -0.2787
 9254DDP     P255521  17.450  20.681  13.099  0.2175 -0.0122  0.0911
 9254DDP     C255522  17.772  20.665  12.833  0.0755  0.1466  0.0309
 9254DDP     C355523  17.102  19.922  13.658 -0.1153  0.0654  0.0536
 9254DDP     C455524  17.001  21.219  13.447 -0.2122  0.0884 -0.2885
 9255DDP     C155525  25.020  20.231  11.870  0.0191  0.1719 -0.3148
 9255DDP     P155526  24.766  20.609  11.790 -0.1051 -0.1946 -0.4239
 9255DDP     P255527  25.370  20.112  11.530  0.1847 -0.0915 -0.0506
 9255DDP     C255528  25.383  20.313  11.162 -0.2018 -0.0226  0.1606
 9255DDP     C355529  24.779  20.965  11.755 -0.1008  0.1757 -0.3620
 9255DDP     C455530  25.135  20.009  12.309  0.0048 -0.2775  0.1499
 9256DDP     C155531  16.831  21.916   1.833  0.2346  0.0602 -0.0634
 9256DDP     P155532  16.470  22.101   1.743 -0.0242  0.0215  0.0339
 9256DDP     P255533  16.901  21.822   1.420 -0.1099  0.1161  0.0406
 9256DDP     C255534  16.866  21.670   0.982  0.2146 -0.0888 -0.3179
 9256DDP     C355535  16.149  22.419   1.882  0.1785 -0.0899  0.0964
 9256DDP     C455536  16.999  21.786   2.247 -0.1609  0.2351 -0.0222
 9257DDP     C155537  12.719   0.814  10.974  0.0280 -0.0868  0.1874
 9257DDP     P155538  12.981   0.904  10.678  0.1442 -0.1238  0.2810
 9257DDP     P255539  12.444   1.098  11.105  0.2452 -0.1118  0.2606
 9257DDP     C255540  12.137   1.405  10.812 -0.2551  0.0645 -0.2804
 9257DDP     C355541  13.427   1.043  10.543 -0.0674  0.2957 -0.2012
 9257DDP     C455542  12.971   0.447  11.159 -0.1201  0.1435  0.1790
 9258DDP     C155543  11.276  20.292   0.140 -0.0238  0.1945 -0.3928
 9258DDP     P155544  10.885  20.209  30.167  0.2819 -0.0896 -0.1971
 9258DDP     P255545  11.138  20.545   0.447  0.0009  0.0988  0.0322
 9258DDP     C255546  10.751  20.667   0.564 -0.1133 -0.1296 -0.1084
 9258DDP     C355547  10.403  20.173  30.078  0.0337  0.1158 -0.2075
 9258DDP     C455548  11.657  20.159   0.324 -0.1006 -0.1167  0.0286
 9259DDP     C155549   5.894  29.376   5.083 -0.1939  0.2478  0.0595
 9259DDP     P155550   6.281  29.529   4.983 -0.0853 -0.0551 -0.2145
 9259DDP     P255551   5.570  29.546   5.436 -0.1070  0.1038  0.2528
 9259DDP     C255552   5.279  29.627   5.774 -0.0537  0.0214 -0.2078
 9259DDP     C355553   6.392  29.979   5.112  0.2215  0.1123 -0.1687
 9259DDP     C455554   5.778  28.977   4.911 -0.2533 -0.3408 -0.2477
 9260DDP     C155555  29.406  26.221  11.167 -0.0430 -0.1142 -0.0456
 9260DDP     P155556  29.658  26.598  11.176  0.1210  0.0104 -0.1431
 9260DDP     P255557  29.562  25.881  11.332 -0.1707  0.1985  0.0316
 9260DDP     C255558  29.531  25.501  11.539 -0.0492 -0.0535  0.0538
 9260DDP     C355559  29.914  26.880  11.200  0.0322 -0.0624 -0.2037
 9260DDP     C455560  28.892  26.249  10.973 -0.1681 -0.1002  0.0844
 9261DDP     C155561   0.628  14.059  18.388 -0.0024 -0.2297 -0.1929
 9261DDP     P155562   0.452  14.180  18.008  0.0234  0.0012  0.2344
 9261DDP     P255563   0.620  14.206  18.768 -0.0397 -0.2601  0.0091
 9261DDP     C255564   0.752  14.263  19.173 -0.1682  0.0595  0.2777
 9261DDP     C355565   0.453  14.633  17.892  0.1550 -0.2272  0.2500
 9261DDP     C455566   0.799  13.666  18.446  0.0976 -0.0248 -0.2598
 9262DDP     C155567  27.673  26.057  13.049 -0.0439  0.1024 -0.1811
 9262DDP     P155568  27.280  25.956  13.110  0.4504 -0.1265  0.3590
 9262DDP     P255569  27.714  25.987  13.523 -0.3257 -0.0133 -0.0109
 9262DDP     C255570  27.720  26.260  13.870 -0.1773  0.2223 -0.1009
 9262DDP     C355571  26.855  25.978  13.262  0.0668 -0.2553  0.0302
 9262DDP     C455572  27.850  26.248  12.604  0.1344 -0.0081 -0.0637
 9263DDP     C155573  10.727  12.664   0.731 -0.0727  0.0821 -0.0273
 9263DDP     P155574  10.771  12.828   0.372  0.2204 -0.0009  0.0198
 9263DDP     P255575  11.042  12.685   0.933 -0.2098 -0.1478 -0.1957
 9263DDP     C255576  11.246  12.818   1.300  0.1093 -0.1712 -0.2658
 9263DDP     C355577  10.760  13.303   0.225  0.0106 -0.3192  0.0363
 9263DDP     C455578  10.272  12.714   0.808 -0.0124 -0.0730  0.1374
 9264DDP     C155579  27.893  10.345   4.462 -0.1852  0.0576  0.2839
 9264DDP     P155580  27.861  10.796   4.252  0.0573 -0.1259 -0.0896
 9264DDP     P255581  27.628  10.231   4.654  0.2799  0.0263  0.0918
 9264DDP     C255582  27.480   9.922   4.875  0.2058  0.0132  0.2725
 9264DDP     C355583  27.896  11.233   4.396  0.0504 -0.0970 -0.3381
 9264DDP     C455584  28.216  10.091   4.339  0.0339  0.0093 -0.0458
 9265DDP     C155585  19.108  15.094   4.776  0.0827 -0.0541 -0.0263
 9265DDP     P155586  19.453  15.047   5.053 -0.2182 -0.0557  0.3959
 9265DDP     P255587  19.013  15.536   4.574  0.2774  0.0644  0.1973
 9265DDP     C255588  18.751  16.031   4.645 -0.2782 -0.4044  0.3452
 9265DDP     C355589  19.546  14.966   5.529 -0.0562  0.1351  0.1457
 9265DDP     C455590  18.801  14.841   4.657  0.5125 -0.1749 -0.1340
 9266DDP     C155591  27.189   2.593  27.056 -0.0565  0.0286  0.1989
 9266DDP     P155592  26.989   2.626  27.427  0.1369  0.1235  0.0758
 9266DDP     P255593  27.040   2.734  26.665  0.2066 -0.2390  0.5474
 9266DDP     C255594  27.381   3.028  26.438  0.0890 -0.0092  0.1769
 9266DDP     C355595  26.696   2.815  27.623 -0.3062 -0.0747 -0.0054
 9266DDP     C455596  27.490   2.343  27.077 -0.2893 -0.1172  0.0173
 9267DDP     C155597   9.775   8.171   1.183  0.3029 -0.1407 -0.1053
 9267DDP     P155598   9.452   8.142   1.504 -0.1885 -0.0505 -0.1013
 9267DDP     P255599  10.151   8.519   1.162  0.1441  0.2339  0.0689
 9267DDP     C255600  10.616   8.720   0.951 -0.0063  0.0256  0.0571
 9267DDP     C355601   9.096   8.135   1.798  0.2693  0.2079  0.0570
 9267DDP     C455602   9.703   8.004   0.739  0.0390 -0.0867 -0.3165
 9268DDP     C155603  17.939  20.623  25.888  0.0902  0.4150  0.1168
 9268DDP     P155604  17.956  20.267  25.549 -0.2014 -0.0218  0.0998
 9268DDP     P255605  17.490  20.480  26.097  0.3862 -0.0223  0.0599
 9268DDP     C255606  17.336  20.182  26.358  0.1666 -0.0047 -0.1302
 9268DDP     C355607  18.143  20.023  25.267  0.3440  0.1235  0.0880
 9268DDP     C455608  18.180  20.718  26.144 -0.1353  0.0473 -0.0543
 9269DDP     C155609  18.696   8.533   3.852 -0.0362  0.1369 -0.0238
 9269DDP     P155610  18.999   8.707   3.704 -0.0001 -0.1399  0.1233
 9269DDP     P255611  18.232   8.744   3.970  0.2765 -0.0020  0.0526
 9269DDP     C255612  17.786   8.834   4.025  0.1324 -0.0622 -0.4396
 9269DDP     C355613  19.217   8.966   3.456 -0.0078  0.1050 -0.1182
 9269DDP     C455614  18.750   8.094   4.002  0.0855  0.0956  0.0909
 9270DDP     C155615  18.568   1.493  20.184 -0.1960  0.1619 -0.0695
 9270DDP     P155616  18.600   1.865  20.316 -0.0437  0.0091  0.2219
 9270DDP     P255617  18.202   1.603  19.890  0.0273 -0.0798  0.0093
 9270DDP     C255618  18.111   1.609  19.514  0.0213 -0.1757 -0.2288
 9270DDP     C355619  18.614   1.815  20.766  0.0791  0.1251 -0.2513
 9270DDP     C455620  18.839   1.186  20.023  0.0838 -0.2324 -0.1240
 9271DDP     C155621   8.310   5.002  23.568  0.1646  0.1068 -0.1270
 9271DDP     P155622   8.256   4.841  23.231 -0.1374  0.0897 -0.0528
 9271DDP     P255623   8.181   4.902  23.940  0.0537  0.3533 -0.2679
 9271DDP     C255624   8.008   4.889  24.323  0.3564  0.3367 -0.0896
 9271DDP     C355625   8.092   4.493  23.141 -0.0204  0.0147  0.0242
 9271DDP     C455626   8.438   5.416  23.668 -0.0635 -0.1616  0.0076
 9272DDP     C155627  25.609  11.458  21.744 -0.1568 -0.0366 -0.2578
 9272DDP     P155628  25.837  11.172  21.296  0.0280 -0.2141 -0.0004
 9272DDP     P255629  25.220  11.533  21.540 -0.0417 -0.1535  0.3862
 9272DDP     C255630  24.846  11.244  21.476  0.0960  0.0578 -0.2955
 9272DDP     C355631  25.913  11.343  20.959  0.1094 -0.2762  0.0509
 9272DDP     C455632  25.519  11.462  22.195  0.1643 -0.2976  0.0452
 9273DDP     C155633  13.160  25.915  21.902 -0.1213 -0.0817  0.0524
 9273DDP     P155634  12.720  25.855  21.970  0.0596 -0.2500  0.0390
 9273DDP     P255635  13.427  25.975  22.241 -0.3296  0.0074 -0.2036
 9273DDP     C255636  13.676  26.104  22.616  0.2330  0.4244 -0.2115
 9273DDP     C355637  12.388  26.047  22.056 -0.1549 -0.0339 -0.0371
 9273DDP     C455638  13.355  26.225  21.719  0.1420  0.1437  0.0124
 9274DDP     C155639   9.928  18.709  20.461 -0.0262  0.2207 -0.1075
 9274DDP     P155640  10.229  18.789  20.075  0.0504  0.1310 -0.0180
 9274DDP     P255641   9.637  18.844  20.800 -0.0622 -0.0430  0.0806
 9274DDP     C255642   9.261  18.778  21.010  0.0330  0.1812  0.2981
 9274DDP     C355643  10.599  18.493  19.926 -0.1013  0.3795 -0.4415
 9274DDP     C455644  10.351  18.605  20.713 -0.1607 -0.2361  0.1269
 9275DDP     C155645  20.992  10.417  17.844 -0.2054 -0.3987 -0.3195
 9275DDP     P155646  20.848  10.704  18.114 -0.1204  0.2121  0.3164
 9275DDP     P255647  20.659  10.311  17.575  0.0592 -0.2481  0.0122
 9275DDP     C255648  20.307  10.106  17.536 -0.1208  0.2590 -0.0619
 9275DDP     C355649  20.877  11.105  18.183 -0.0723  0.1676  0.0243
 9275DDP     C455650  21.416  10.367  17.632  0.3997  0.2445 -0.1856
 9276DDP     C155651   8.856  14.397   1.470  0.1745 -0.3064 -0.1022
 9276DDP     P155652   8.841  14.124   1.230  0.0635  0.2041  0.3675
 9276DDP     P255653   8.772  14.886   1.318  0.2477  0.1055  0.4059
 9276DDP     C255654   8.935  14.971   0.964 -0.1007  0.2018 -0.2262
 9276DDP     C355655   8.905  13.889   0.821 -0.1402 -0.4208 -0.0743
 9276DDP     C455656   8.954  14.306   1.900 -0.0750 -0.1443 -0.0037
 9277DDP     C155657  11.091  20.066  16.076 -0.0320  0.1341 -0.1577
 9277DDP     P155658  11.389  19.657  16.075  0.0788 -0.0145 -0.1684
 9277DDP     P255659  11.152  20.417  15.807  0.2735  0.0430  0.1344
 9277DDP     C255660  11.321  20.765  15.515  0.0222 -0.0455  0.2649
 9277DDP     C355661  11.342  19.188  16.106 -0.0446  0.0639  0.2152
 9277DDP     C455662  10.858  20.172  16.395 -0.3480 -0.3532 -0.1804
 9278DDP     C155663  26.777  10.509  11.435 -0.1669 -0.0365 -0.2775
 9278DDP     P155664  27.049  10.946  11.539  0.0188 -0.0566  0.2145
 9278DDP     P255665  27.032  10.109  11.550 -0.1344 -0.1317  0.2341
 9278DDP     C255666  27.379  10.049  11.662  0.0116 -0.1740  0.0674
 9278DDP     C355667  27.011  11.333  11.787  0.0057 -0.0699  0.0465
 9278DDP     C455668  26.482  10.563  11.181 -0.0293 -0.2278  0.1922
 9279DDP     C155669  30.118  24.311  26.919 -0.1761 -0.2382  0.2088
 9279DDP     P155670  30.164  24.328  27.323 -0.3047 -0.2716  0.0869
 9279DDP     P255671  30.337  24.350  26.553  0.2653  0.1080  0.2806
 9279DDP     C255672   0.249  24.289  26.273  0.1660  0.1708  0.0537
 9279DDP     C355673  29.897  24.267  27.705 -0.0178  0.0902  0.2816
 9279DDP     C455674  29.817  24.142  26.669  0.0480  0.1145 -0.2977
 9280DDP     C155675  17.975  15.811  10.923  0.0334  0.0430 -0.4711
 9280DDP     P155676  18.340  15.640  11.155 -0.2625  0.0136 -0.1469
 9280DDP     P255677  17.705  15.678  11.009  0.0049  0.3261  0.4710
 9280DDP     C255678  17.356  15.728  10.846  0.1557 -0.0270  0.0021
 9280DDP     C355679  18.752  15.457  11.101 -0.2985 -0.0219  0.1147
 9280DDP     C455680  18.007  16.051  10.650  0.0644 -0.0777  0.3669
 9281DDP     C155681   5.290   4.421   4.984  0.0258  0.0905 -0.2734
 9281DDP     P155682   5.486   4.786   4.816  0.1578  0.1285 -0.0539
 9281DDP     P255683   5.541   4.069   5.059 -0.1422 -0.1752  0.0859
 9281DDP     C255684   5.752   3.777   5.356 -0.1082 -0.1878  0.4021
 9281DDP     C355685   5.321   5.049   4.429  0.0401  0.1241  0.0206
 9281DDP     C455686   4.891   4.213   4.857 -0.3167  0.0554  0.0162
 9282DDP     C155687   1.733  17.306  23.669  0.0091 -0.1779 -0.0021
 9282DDP     P155688   2.009  16.963  23.416  0.0898 -0.3284 -0.3332
 9282DDP     P255689   1.421  17.403  23.476  0.1968 -0.2998 -0.0310
 9282DDP     C255690   1.060  17.170  23.079 -0.0734  0.2707 -0.0611
 9282DDP     C355691   2.058  16.543  23.289  0.3207 -0.0333  0.0622
 9282DDP     C455692   1.643  17.596  23.974  0.0416 -0.0699 -0.0053
 9283DDP     C155693  23.498  20.925  18.840  0.0437 -0.0418 -0.3420
 9283DDP     P155694  23.941  21.104  18.627  0.0951 -0.2138 -0.0249
 9283DDP     P255695  23.142  20.917  18.546  0.0398  0.2215  0.1430
 9283DDP     C255696  22.945  20.614  18.258  0.1789 -0.1727  0.2299
 9283DDP     C355697  24.272  21.206  18.895  0.0326 -0.2285 -0.2626
 9283DDP     C455698  23.447  20.711  19.219 -0.0393  0.0363  0.1983
 9284DDP     C155699   1.292   8.402  15.300 -0.1470 -0.3473  0.4347
 9284DDP     P155700   1.335   8.891  15.146  0.2536  0.0988  0.0221
 9284DDP     P255701   1.527   8.279  15.643  0.0308  0.0038  0.3062
 9284DDP     C255702   1.857   8.478  15.935  0.1461  0.1501  0.0032
 9284DDP     C355703   1.475   9.260  15.275  0.0571  0.0331 -0.0532
 9284DDP     C455704   0.983   8.319  15.059  0.1479 -0.1240 -0.0728
 9285DDP     C155705   9.856   2.344   0.555  0.1110 -0.0392  0.1349
 9285DDP     P155706   9.640   2.132   0.858  0.1486  0.0861  0.0784
 9285DDP     P255707  10.282   2.557   0.613  0.1251  0.0064  0.0201
 9285DDP     C255708  10.661   2.463   0.651 -0.4037  0.3910  0.4036
 9285DDP     C355709   9.311   2.171   1.181 -0.2317  0.3504  0.0936
 9285DDP     C455710   9.547   2.188   0.285 -0.0919 -0.2135 -0.0015
 9286DDP     C155711  22.544   0.987  10.146 -0.4007 -0.2559 -0.0156
 9286DDP     P155712  22.156   0.908   9.994 -0.0374 -0.0232  0.0057
 9286DDP     P255713  22.568   1.152  10.576  0.2496 -0.0004 -0.0202
 9286DDP     C255714  22.716   1.567  10.833  0.1770 -0.3261  0.4056
 9286DDP     C355715  21.780   0.900   9.678  0.2239 -0.1317 -0.0649
 9286DDP     C455716  22.881   0.787   9.973 -0.0504 -0.0480 -0.2790
 9287DDP     C155717   3.371  10.988   1.172 -0.1031 -0.3364  0.0963
 9287DDP     P155718   3.739  11.046   1.002 -0.0454  0.0121 -0.1429
 9287DDP     P255719   3.148  11.368   0.996 -0.0450  0.0239  0.0145
 9287DDP     C255720   2.952  11.758   0.888  0.1058  0.0363  0.2052
 9287DDP     C355721   3.862  10.778   0.563 -0.3130 -0.1774 -0.1134
 9287DDP     C455722   3.175  10.672   1.340 -0.1467  0.1845  0.0478
 9288DDP     C155723  26.871  26.407  10.569 -0.0295  0.1033  0.0699
 9288DDP     P155724  27.362  26.332  10.624 -0.1208  0.0725  0.0980
 9288DDP     P255725  26.705  26.488  10.216  0.0484 -0.3935 -0.3170
 9288DDP     C255726  26.695  26.814   9.857  0.0736 -0.0807  0.2211
 9288DDP     C355727  27.810  26.468  10.747 -0.0081 -0.2798  0.4421
 9288DDP     C455728  26.585  26.272  10.881 -0.1413  0.4508  0.0116
 9289DDP     C155729  24.691  14.697   9.871 -0.2178 -0.1032 -0.0802
 9289DDP     P155730  24.974  14.518  10.212  0.1235 -0.2318 -0.2249
 9289DDP     P255731  24.741  14.711   9.389 -0.2678  0.0575  0.1144
 9289DDP     C255732  24.503  14.418   9.056  0.2826  0.1023  0.1070
 9289DDP     C355733  25.148  14.671  10.598 -0.1209 -0.0269 -0.1021
 9289DDP     C455734  24.258  14.734   9.977  0.1398 -0.3916 -0.3815
 9290DDP     C155735   5.418  13.066  16.689  0.2743 -0.1798  0.1439
 9290DDP     P155736   5.599  13.218  17.047  0.2184  0.3556  0.0916
 9290DDP     P255737   5.169  12.705  16.657 -0.0767  0.0591 -0.3489
 9290DDP     C255738   5.177  12.256  16.794 -0.1738 -0.0840  0.3003
 9290DDP     C355739   5.667  13.526  17.400  0.1106  0.3159 -0.0062
 9290DDP     C455740   5.137  13.404  16.604 -0.1945 -0.1192 -0.1144
 9291DDP     C155741   1.775  23.470  20.452  0.0652 -0.4659  0.2230
 9291DDP     P155742   1.468  23.473  20.673 -0.0317 -0.0396  0.3248
 9291DDP     P255743   2.158  23.732  20.308  0.1582  0.0735 -0.1008
 9291DDP     C255744   2.386  24.025  20.094  0.0225  0.1171  0.0535
 9291DDP     C355745   1.389  23.657  21.092 -0.3324 -0.0600  0.0460
 9291DDP     C455746   1.932  23.083  20.390 -0.2270 -0.0138 -0.0420
 9292DDP     C155747  30.128  13.703  30.036  0.1110  0.2062 -0.1730
 9292DDP     P155748  30.148  13.615  29.548  0.0764 -0.1658  0.2284
 9292DDP     P255749  29.834  13.669   0.029  0.2688 -0.2925 -0.0622
 9292DDP     C255750  29.707  13.906   0.417  0.1556 -0.1610 -0.1692
 9292DDP     C355751  30.048  13.665  29.191  0.0405  0.0323 -0.1620
 9292DDP     C455752   0.243  13.714  30.289 -0.3102 -0.2457 -0.1751
 9293DDP     C155753   8.340  19.164  26.272  0.2645 -0.0001  0.2383
 9293DDP     P155754   8.318  18.712  26.327  0.0687  0.0798  0.0025
 9293DDP     P255755   8.390  19.454  26.611  0.4157  0.1933  0.0127
 9293DDP     C255756   8.767  19.640  26.709 -0.2159  0.0543  0.1562
 9293DDP     C355757   8.716  18.588  26.565  0.2184  0.0501  0.2032
 9293DDP     C455758   8.659  19.042  25.981  0.2024  0.0209 -0.0701
 9294DDP     C155759  14.496  15.641   0.407 -0.3877  0.0847  0.0499
 9294DDP     P155760  14.697  15.540   0.055 -0.0155 -0.2086 -0.2119
 9294DDP     P255761  14.742  15.772   0.808 -0.1070 -0.0269 -0.0817
 9294DDP     C255762  14.946  15.757   1.213 -0.1896 -0.3058  0.0813
 9294DDP     C355763  14.748  15.464  29.904  0.1580  0.1259  0.0144
 9294DDP     C455764  14.144  15.911   0.377 -0.1617  0.0077  0.2780
 9295DDP     C155765   6.557   5.268  16.529  0.0846  0.2862 -0.0991
 9295DDP     P155766   6.877   5.282  16.209  0.1418  0.0796  0.1427
 9295DDP     P255767   6.077   5.196  16.508 -0.1916  0.0285  0.0698
 9295DDP     C255768   5.800   4.865  16.296  0.1662  0.0564 -0.0477
 9295DDP     C355769   7.320   5.562  16.091 -0.3883  0.0927  0.1082
 9295DDP     C455770   6.460   4.906  16.724  0.0790  0.0261 -0.3673
 9296DDP     C155771   4.693   6.375   6.564  0.0537 -0.0717  0.0074
 9296DDP     P155772   5.092   6.371   6.405  0.2183 -0.0728  0.0789
 9296DDP     P255773   4.193   6.197   6.324 -0.3177  0.2089 -0.2213
 9296DDP     C255774   4.110   5.806   6.472  0.1740  0.2814 -0.0057
 9296DDP     C355775   5.530   6.557   6.517 -0.0322  0.3496  0.0408
 9296DDP     C455776   4.797   6.577   6.871 -0.3850 -0.1779 -0.0121
 9297DDP     C155777   3.857  10.694  25.201 -0.4405  0.1586  0.0658
 9297DDP     P155778   4.155  10.737  25.636  0.0923  0.1167  0.2080
 9297DDP     P255779   3.476  10.828  25.438  0.1271 -0.0002  0.1421
 9297DDP     C255780   3.005  10.949  25.592 -0.0819 -0.0377 -0.2566
 9297DDP     C355781   4.352  11.059  25.835 -0.0696 -0.1219 -0.0775
 9297DDP     C455782   4.055  10.650  24.780 -0.1428  0.0110 -0.1557
 9298DDP     C155783   1.905  21.984  26.359 -0.0754  0.0434 -0.1410
 9298DDP     P155784   1.879  21.651  26.585 -0.1687 -0.0368 -0.0170
 9298DDP     P255785   1.894  21.884  25.871 -0.0772 -0.1071 -0.0388
 9298DDP     C255786   1.750  22.175  25.624  0.1808 -0.0523  0.3621
 9298DDP     C355787   1.939  21.233  26.521 -0.0804 -0.1016 -0.0350
 9298DDP     C455788   1.946  22.429  26.514  0.2099 -0.0964 -0.2731
 9299DDP     C155789  28.689   5.580  14.991 -0.0280 -0.1745 -0.2082
 9299DDP     P155790  28.586   6.050  15.220 -0.0235  0.1354 -0.0594
 9299DDP     P255791  28.420   5.266  15.023  0.1388  0.1935 -0.0684
 9299DDP     C255792  28.276   4.913  15.248 -0.1224  0.0403 -0.3574
 9299DDP     C355793  28.259   6.157  15.599  0.0308  0.0439  0.1124
 9299DDP     C455794  29.057   5.548  14.908 -0.3357  0.1528  0.0473
 9300DDP     C155795  12.680  22.633  22.451 -0.2109  0.0361 -0.0985
 9300DDP     P155796  12.943  22.632  22.083 -0.0792  0.0887 -0.0668
 9300DDP     P255797  12.483  22.255  22.271  0.0878  0.0302 -0.0806
 9300DDP     C255798  12.151  21.987  22.208 -0.3245  0.0141 -0.0339
 9300DDP     C355799  13.114  22.977  21.853  0.2667 -0.0854  0.0964
 9300DDP     C455800  12.628  23.043  22.718 -0.3285  0.3450  0.0738
 9301DDP     C155801  20.686   8.628   7.059 -0.1062 -0.1529 -0.0304
 9301DDP     P155802  20.535   9.030   7.233  0.2046 -0.1036 -0.0146
 9301DDP     P255803  20.349   8.324   6.907  0.0868  0.0152 -0.4084
 9301DDP     C255804  20.249   8.321   6.533  0.1892  0.1073 -0.1935
 9301DDP     C355805  20.205   9.119   7.490  0.2511  0.0522 -0.0649
 9301DDP     C455806  21.062   8.315   7.052  0.1301 -0.1568 -0.0867
 9302DDP     C155807  10.009  21.126   4.237  0.4046  0.0393 -0.2712
 9302DDP     P155808   9.798  20.714   4.153 -0.0138  0.1371  0.1084
 9302DDP     P255809  10.238  21.207   4.695 -0.0408 -0.0963  0.0750
 9302DDP     C255810  10.356  21.330   5.137  0.1613 -0.0410 -0.0359
 9302DDP     C355811   9.876  20.249   4.255  0.2792  0.1990 -0.0750
 9302DDP     C455812  10.123  21.567   4.036 -0.1186 -0.2584 -0.0168
 9303DDP     C155813  21.734  27.612  12.067 -0.2817  0.0252 -0.1451
 9303DDP     P155814  21.468  27.865  12.354 -0.0121 -0.0749  0.1978
 9303DDP     P255815  22.102  27.570  12.361  0.1500  0.1593  0.1851
 9303DDP     C255816  22.346  27.677  12.706 -0.0864  0.0988  0.1056
 9303DDP     C355817  21.343  27.939  12.803 -0.2420 -0.0540  0.1462
 9303DDP     C455818  21.701  27.279  11.721  0.4320 -0.0106  0.0345
 9304DDP     C155819  24.484  11.554  23.436  0.0250  0.2928 -0.1922
 9304DDP     P155820  24.715  11.483  23.727 -0.3886 -0.1696 -0.2184
 9304DDP     P255821  24.367  11.250  23.015 -0.0505  0.1610  0.0382
 9304DDP     C255822  24.188  10.991  22.664  0.3786  0.0842 -0.1817
 9304DDP     C355823  25.087  11.640  24.032 -0.1022 -0.1388 -0.1519
 9304DDP     C455824  24.224  11.869  23.488 -0.5331  0.3758 -0.1533
 9305DDP     C155825  28.685  18.326  17.163 -0.4313  0.1063 -0.0005
 9305DDP     P155826  28.953  18.592  16.905 -0.0827 -0.0914  0.0563
 9305DDP     P255827  28.468  17.967  17.202  0.0461 -0.0506  0.0572
 9305DDP     C255828  28.085  17.709  17.076  0.0445  0.0139 -0.3560
 9305DDP     C355829  29.039  18.856  16.649  0.2859 -0.2309 -0.3099
 9305DDP     C455830  28.850  18.674  17.422 -0.1108 -0.0470  0.0158
 9306DDP     C155831  14.597  22.762  26.871 -0.2124 -0.3889  0.0036
 9306DDP     P155832  14.828  22.387  26.879 -0.0455 -0.2338 -0.0062
 9306DDP     P255833  14.588  23.120  26.668  0.1735 -0.0403  0.0507
 9306DDP     C255834  14.399  23.487  26.459 -0.2276 -0.3914  0.0952
 9306DDP     C355835  15.025  21.970  26.722  0.1202  0.3046  0.2648
 9306DDP     C455836  14.486  22.751  27.339  0.0095 -0.0161  0.0057
 9307DDP     C155837  27.875   4.260  30.159 -0.0467  0.0037  0.1492
 9307DDP     P155838  28.274   4.417  30.010 -0.0197  0.1938  0.1800
 9307DDP     P255839  27.577   4.539  30.257  0.3694 -0.0268 -0.4389
 9307DDP     C255840  27.099   4.349  30.206 -0.0777  0.1852 -0.3791
 9307DDP     C355841  28.656   4.384  29.885  0.0491  0.2604  0.0065
 9307DDP     C455842  27.836   3.834  30.102  0.0720  0.4859 -0.0262
 9308DDP     C155843  28.745  20.965   0.584 -0.1829 -0.0617 -0.1645
 9308DDP     P155844  28.653  21.154   0.283  0.0949 -0.1102 -0.0102
 9308DDP     P255845  28.667  20.640   0.440  0.1042 -0.1599 -0.1403
 9308DDP     C255846  28.379  20.326   0.308  0.2404  0.2088 -0.0127
 9308DDP     C355847  28.738  21.244  30.189 -0.1708 -0.2221 -0.1507
 9308DDP     C455848  28.808  20.950   1.062 -0.1961  0.0857 -0.1039
 9309DDP     C155849   9.688  15.446   8.760 -0.0552 -0.1261  0.0064
 9309DDP     P155850   9.654  15.579   8.373 -0.1664  0.1828  0.1067
 9309DDP     P255851   9.471  15.097   8.957 -0.0190 -0.0182  0.0115
 9309DDP     C255852   9.419  14.660   8.818  0.3392  0.0657  0.1593
 9309DDP     C355853   9.733  15.684   7.975 -0.3077 -0.1411 -0.0805
 9309DDP     C455854   9.819  15.721   8.928  0.5944  0.0392  0.1121
 9310DDP     C155855  17.252  26.913  19.148 -0.1508  0.1993 -0.0805
 9310DDP     P155856  17.587  27.221  19.248  0.0707 -0.1606 -0.2677
 9310DDP     P255857  16.852  26.910  19.233 -0.0152 -0.0319  0.0333
 9310DDP     C255858  16.649  27.002  19.635  0.0395  0.0361 -0.2267
 9310DDP     C355859  17.664  27.676  19.141  0.1883  0.1207  0.0244
 9310DDP     C455860  17.392  26.487  19.215  0.0778  0.0423  0.1842
 9311DDP     C155861  25.530  26.199   0.092  0.1550  0.0338  0.2215
 9311DDP     P155862  25.816  26.385   0.314  0.0059 -0.0300 -0.0042
 9311DDP     P255863  25.601  26.145  29.962 -0.0183 -0.0742  0.2530
 9311DDP     C255864  25.801  26.558  29.723 -0.0550 -0.1046  0.1024
 9311DDP     C355865  26.255  26.414   0.383  0.0059 -0.1650  0.2092
 9311DDP     C455866  25.186  25.992   0.163 -0.2294  0.2028  0.1847
 9312DDP     C155867   4.758  24.421  14.151 -0.1562  0.4120 -0.2480
 9312DDP     P155868   4.837  23.923  14.152  0.1271 -0.2205 -0.1274
 9312DDP     P255869   4.771  24.573  13.748 -0.2175 -0.1734  0.0495
 9312DDP     C255870   4.730  24.370  13.322  0.2219  0.3063  0.1700
 9312DDP     C355871   4.818  23.568  13.953 -0.2469 -0.1753  0.2461
 9312DDP     C455872   4.791  24.540  14.551  0.1576  0.5225  0.2733
 9313DDP     C155873   2.954  17.589  28.306  0.0715  0.0275 -0.1825
 9313DDP     P155874   2.804  17.768  28.615  0.0647  0.1400  0.0016
 9313DDP     P255875   3.156  17.228  28.543  0.3033 -0.0706  0.2971
 9313DDP     C255876   3.258  17.093  28.970 -0.0219 -0.2460  0.0119
 9313DDP     C355877   2.511  17.852  28.964  0.0174  0.0051 -0.0724
 9313DDP     C455878   2.894  17.698  27.939  0.0066 -0.0978 -0.0510
 9314DDP     C155879  14.874  12.997  26.387 -0.0071  0.1249  0.2889
 9314DDP     P155880  14.614  12.946  26.781  0.3395 -0.1319  0.0946
 9314DDP     P255881  15.334  12.904  26.485  0.0363  0.1803 -0.0257
 9314DDP     C255882  15.484  12.589  26.664 -0.0934  0.1638 -0.0689
 9314DDP     C355883  14.549  12.725  27.276  0.1687 -0.0074  0.1454
 9314DDP     C455884  14.551  13.167  26.090  0.0550 -0.0244  0.0298
 9315DDP     C155885   4.881  24.455   0.735 -0.0373  0.1866 -0.1238
 9315DDP     P155886   5.195  24.120   0.890  0.1602 -0.0808  0.0913
 9315DDP     P255887   4.728  24.826   0.959  0.0319  0.4416 -0.1496
 9315DDP     C255888   4.554  24.802   1.319  0.0016 -0.1324 -0.2228
 9315DDP     C355889   5.225  23.678   0.998  0.0299 -0.3295  0.1449
 9315DDP     C455890   4.792  24.295   0.318 -0.3559 -0.0479 -0.0011
 9316DDP     C155891   8.215  29.725  19.944  0.0969  0.3217 -0.0026
 9316DDP     P155892   7.933  29.675  19.719 -0.0362 -0.0362 -0.1223
 9316DDP     P255893   8.462  29.582  19.686 -0.1372 -0.0217  0.1789
 9316DDP     C255894   8.900  29.487  19.624  0.1192 -0.2782 -0.2227
 9316DDP     C355895   7.556  29.668  19.905  0.1312 -0.2962 -0.3512
 9316DDP     C455896   8.291  30.169  20.118 -0.1780  0.0217 -0.0671
 9317DDP     C155897  27.384  16.947  27.706 -0.1422 -0.0759 -0.0984
 9317DDP     P155898  27.557  17.084  28.051 -0.0306 -0.0290 -0.0592
 9317DDP     P255899  27.029  16.749  27.675 -0.2011 -0.2213 -0.1529
 9317DDP     C255900  26.713  16.473  27.424  0.0684  0.0722 -0.2169
 9317DDP     C355901  27.844  17.068  28.406  0.0296 -0.4569  0.0171
 9317DDP     C455902  27.602  17.083  27.445  0.0348 -0.1919  0.0755
 9318DDP     C155903  19.097   1.319  16.365 -0.1182  0.2369 -0.1532
 9318DDP     P155904  19.311   1.673  16.372 -0.0828 -0.0928 -0.1153
 9318DDP     P255905  19.198   1.070  16.762  0.1580 -0.0241 -0.1185
 9318DDP     C255906  19.327   1.323  17.061 -0.2331 -0.0544  0.2603
 9318DDP     C355907  19.647   1.915  16.619  0.0413 -0.1243 -0.0096
 9318DDP     C455908  19.016   1.202  15.977  0.4373 -0.2607  0.0100
 9319DDP     C155909  28.332  18.431  25.784 -0.3374 -0.0146  0.3062
 9319DDP     P155910  28.008  18.160  26.000  0.1049 -0.2450 -0.2074
 9319DDP     P255911  28.671  18.600  26.000  0.2412 -0.0995 -0.0512
 9319DDP     C255912  28.866  19.070  26.106  0.0548  0.0201 -0.0608
 9319DDP     C355913  27.690  18.039  26.374  0.0995 -0.2448  0.0486
 9319DDP     C455914  28.324  18.485  25.366 -0.3030  0.0481 -0.3412
 9320DDP     C155915  28.962  25.165  13.662  0.3203  0.0657  0.0137
 9320DDP     P155916  28.902  25.368  14.094 -0.0547  0.0489  0.1425
 9320DDP     P255917  28.924  24.738  13.541  0.1339  0.0997 -0.0572
 9320DDP     C255918  29.035  24.303  13.452 -0.2188 -0.3017 -0.3386
 9320DDP     C355919  29.011  25.527  14.499  0.0903  0.1930 -0.0488
 9320DDP     C455920  28.864  25.516  13.333 -0.0547  0.1409 -0.0047
 9321DDP     C155921  17.194   5.300  19.936 -0.1951 -0.0957 -0.0191
 9321DDP     P155922  16.785   5.145  19.860  0.1093 -0.1493  0.1746
 9321DDP     P255923  17.710   5.358  19.939  0.1576 -0.2119  0.2399
 9321DDP     C255924  18.079   5.193  20.222  0.1680  0.0030 -0.1669
 9321DDP     C355925  16.423   5.034  20.044 -0.0055 -0.6197  0.0244
 9321DDP     C455926  17.294   5.580  20.234 -0.1931 -0.1682 -0.2349
 9322DDP     C155927  27.198  16.095  10.473 -0.2019 -0.0457  0.1167
 9322DDP     P155928  27.240  15.812  10.893 -0.0423 -0.3212 -0.0802
 9322DDP     P255929  26.898  15.868  10.151 -0.1862 -0.2613  0.0897
 9322DDP     C255930  26.516  15.886   9.921 -0.1447  0.0002 -0.4709
 9322DDP     C355931  27.518  15.607  11.042 -0.0195  0.1771 -0.2493
 9322DDP     C455932  27.210  16.630  10.462 -0.0841 -0.1854 -0.2322
 9323DDP     C155933   4.045  27.863   9.172 -0.2657 -0.0055 -0.1779
 9323DDP     P155934   3.901  28.150   9.195  0.1255 -0.1059 -0.1792
 9323DDP     P255935   4.317  27.951   8.978 -0.3280 -0.0915  0.0163
 9323DDP     C255936   4.570  28.117   8.661  0.1051 -0.1568 -0.1440
 9323DDP     C355937   3.682  28.424   9.421  0.1360  0.2279  0.1416
 9323DDP     C455938   4.041  27.418   9.413  0.0979 -0.2741  0.0747
 9324DDP     C155939   9.266   0.653  13.391  0.1891  0.3084  0.1417
 9324DDP     P155940   9.487   0.790  13.795 -0.0830 -0.0901  0.0438
 9324DDP     P255941   9.143   1.036  13.070 -0.0984  0.0157 -0.1172
 9324DDP     C255942   9.236   1.444  12.971 -0.0790 -0.2454 -0.1923
 9324DDP     C355943   9.394   0.533  14.142  0.1211 -0.0789 -0.0075
 9324DDP     C455944   8.939   0.224  13.461  0.1842 -0.1880  0.4365
 9325DDP     C155945  10.623  16.279  28.792 -0.0575 -0.4207  0.1698
 9325DDP     P155946  10.656  16.281  29.322  0.0680 -0.1283 -0.0671
 9325DDP     P255947  10.354  16.128  28.443 -0.0598  0.0011 -0.0165
 9325DDP     C255948  10.063  15.824  28.099 -0.2001 -0.1861  0.0850
 9325DDP     C355949  11.020  16.084  29.505  0.1478  0.3082 -0.0791
 9325DDP     C455950  11.051  16.511  28.667  0.1121 -0.1747 -0.1032
 9326DDP     C155951   1.927   8.737   8.940 -0.2838  0.1592  0.1002
 9326DDP     P155952   2.044   8.338   9.018  0.1116 -0.1905  0.0472
 9326DDP     P255953   1.580   8.845   8.978  0.2716 -0.0331 -0.2500
 9326DDP     C255954   1.190   8.729   9.074  0.0513 -0.1145  0.2170
 9326DDP     C355955   1.858   8.041   8.953  0.0928 -0.2611  0.2412
 9326DDP     C455956   2.250   8.854   8.655  0.2213 -0.4410 -0.1511
 9327DDP     C155957  12.687  13.604   8.570 -0.1832 -0.0921 -0.2004
 9327DDP     P155958  12.639  13.455   8.171 -0.0088  0.1303  0.0898
 9327DDP     P255959  12.687  13.336   8.776 -0.2669 -0.0631 -0.1396
 9327DDP     C255960  12.747  12.897   8.846  0.2163 -0.1509 -0.0311
 9327DDP     C355961  12.805  13.426   7.814  0.0045  0.1374  0.1352
 9327DDP     C455962  12.491  14.013   8.696 -0.2810 -0.2798 -0.3436
 9328DDP     C155963  22.223  19.984   1.737  0.1553 -0.0384  0.1207
 9328DDP     P155964  22.203  19.724   2.186  0.1779 -0.0750 -0.0972
 9328DDP     P255965  22.468  19.865   1.414 -0.2609  0.0557  0.3912
 9328DDP     C255966  22.562  19.463   1.418  0.1258  0.0558 -0.0450
 9328DDP     C355967  22.154  19.259   2.339 -0.3283 -0.2529  0.0411
 9328DDP     C455968  21.963  20.177   1.591 -0.1491 -0.5474 -0.0557
 9329DDP     C155969   4.899  18.510  16.030 -0.0889  0.3837  0.0414
 9329DDP     P155970   4.678  18.367  16.434  0.1059  0.0077  0.1030
 9329DDP     P255971   4.965  18.940  15.958  0.1218 -0.3355  0.1071
 9329DDP     C255972   4.822  19.266  15.848  0.1654 -0.0212  0.0318
 9329DDP     C355973   4.360  18.114  16.713  0.0968 -0.1171  0.2697
 9329DDP     C455974   5.109  18.254  15.720 -0.0143  0.0404 -0.2296
 9330DDP     C155975  23.369   1.483  12.903 -0.1094  0.4200 -0.1586
 9330DDP     P155976  23.810   1.746  12.840 -0.0235 -0.0517 -0.2267
 9330DDP     P255977  23.020   1.701  13.178 -0.0309  0.1973 -0.0110
 9330DDP     C255978  23.010   2.034  13.446  0.2070 -0.1158  0.0173
 9330DDP     C355979  24.265   1.470  12.899  0.2025 -0.2122  0.2269
 9330DDP     C455980  23.185   1.323  12.486  0.4593  0.0922  0.1563
 9331DDP     C155981  13.533  16.092  26.273 -0.2104  0.1114  0.1492
 9331DDP     P155982  13.257  16.267  26.499  0.0294  0.2997  0.0030
 9331DDP     P255983  13.730  16.312  26.030 -0.0260 -0.0869  0.1667
 9331DDP     C255984  13.890  16.264  25.500  0.1428 -0.1560 -0.0563
 9331DDP     C355985  13.287  16.651  26.749  0.1991  0.2406 -0.1314
 9331DDP     C455986  13.398  15.645  26.134 -0.0683  0.1242 -0.3066
 9332DDP     C155987   3.437  10.533   0.469  0.0230 -0.0178 -0.1289
 9332DDP     P155988   3.305  10.189   0.133 -0.0820  0.2501  0.1854
 9332DDP     P255989   3.106  10.850   0.810 -0.1020 -0.0205  0.0115
 9332DDP     C255990   2.760  10.975   1.173 -0.0165  0.2676 -0.0346
 9332DDP     C355991   3.353  10.096  30.092  0.1085 -0.2885  0.1532
 9332DDP     C455992   3.538  10.958   0.168 -0.1321 -0.1351  0.1452
 9333DDP     C155993  25.385   9.740  27.333 -0.1407 -0.1042 -0.1444
 9333DDP     P155994  25.628   9.659  27.709 -0.3291 -0.1597  0.0545
 9333DDP     P255995  25.242  10.061  27.181 -0.2967  0.0129  0.4212
 9333DDP     C255996  24.853  10.269  27.244  0.0394  0.0863  0.0752
 9333DDP     C355997  25.856   9.852  27.876  0.1654 -0.1396 -0.2643
 9333DDP     C455998  25.141   9.361  27.047  0.1805 -0.3896  0.0691
 9334DDP     C155999  25.753  29.282  15.754  0.2626  0.1324  0.0073
 9334DDP     P156000  25.684  29.483  16.159 -0.0255  0.1405  0.1012
 9334DDP     P256001  25.765  29.558  15.352  0.0784 -0.0820 -0.0602
 9334DDP     C256002  25.472  29.511  15.096 -0.0780  0.1865  0.0406
 9334DDP     C356003  25.385  29.848  16.331 -0.1419  0.2781  0.0963
 9334DDP     C456004  25.778  28.835  15.964  0.3323 -0.0163  0.0585
 9335DDP     C156005  27.402  10.334   2.851 -0.2949  0.1438  0.0155
 9335DDP     P156006  27.703  10.048   2.602 -0.3741  0.0051 -0.1104
 9335DDP     P256007  27.182  10.118   3.181 -0.0272 -0.5476  0.3012
 9335DDP     C256008  27.260   9.876   3.495  0.2564 -0.1181 -0.0280
 9335DDP     C356009  27.796   9.676   2.690 -0.0523 -0.0899 -0.4333
 9335DDP     C456010  27.542  10.681   2.941 -0.0511  0.0287 -0.1431
 9336DDP     C156011  26.535  11.890  15.021 -0.0532 -0.1566 -0.1148
 9336DDP     P156012  26.207  12.269  15.112  0.4143 -0.1878  0.0031
 9336DDP     P256013  26.869  11.983  15.253  0.3904 -0.2693 -0.1475
 9336DDP     C256014  27.267  11.844  15.314  0.1269  0.1274  0.3686
 9336DDP     C356015  25.974  12.691  14.892  0.0797  0.1209 -0.1001
 9336DDP     C456016  26.612  11.623  14.610 -0.0799  0.0904 -0.2136
 9337DDP     C156017   5.507  14.073   4.230 -0.1099 -0.0300  0.1992
 9337DDP     P156018   4.989  14.166   4.220 -0.0561  0.0432  0.0399
 9337DDP     P256019   5.724  14.276   4.591  0.1555  0.0407  0.1652
 9337DDP     C256020   5.912  14.318   4.907  0.0928  0.1579  0.2098
 9337DDP     C356021   4.577  14.106   4.438 -0.0524 -0.0734 -0.2225
 9337DDP     C456022   5.558  13.685   4.009  0.3192 -0.3876  0.2260
 9338DDP     C156023  30.341  25.893  17.959  0.2691  0.1997 -0.0875
 9338DDP     P156024  29.810  25.915  17.957  0.2732 -0.0635  0.0761
 9338DDP     P256025   0.182  25.489  17.744 -0.1463  0.1870 -0.3238
 9338DDP     C256026   0.591  25.346  17.711  0.1156 -0.0552 -0.2455
 9338DDP     C356027  29.413  26.150  17.917 -0.1350  0.1362 -0.0807
 9338DDP     C456028  30.120  26.325  18.124 -0.1119  0.1961  0.0167
 9339DDP     C156029  15.369  23.498  12.097  0.3294 -0.1374  0.0022
 9339DDP     P156030  15.629  23.274  11.896  0.0111  0.0893 -0.0869
 9339DDP     P256031  14.935  23.502  12.188 -0.2289 -0.1791 -0.0450
 9339DDP     C256032  14.592  23.316  12.461  0.3092  0.3586 -0.1348
 9339DDP     C356033  16.035  22.979  11.845 -0.0466 -0.2203 -0.1691
 9339DDP     C456034  15.646  23.754  12.492 -0.1078 -0.1284 -0.0453
 9340DDP     C156035  22.326   8.624   7.759  0.3430 -0.1634  0.1446
 9340DDP     P156036  22.646   8.859   7.816 -0.2043  0.2382 -0.0915
 9340DDP     P256037  21.877   8.777   7.984 -0.0234 -0.1428 -0.3167
 9340DDP     C256038  21.478   8.622   8.169 -0.0582  0.1522  0.1474
 9340DDP     C356039  23.024   8.942   7.651  0.1926 -0.2209 -0.1792
 9340DDP     C456040  22.234   8.252   7.628 -0.1015  0.1855  0.0711
 9341DDP     C156041  19.114  23.653   0.400  0.0205  0.0478  0.2343
 9341DDP     P156042  18.736  23.501   0.096 -0.1492 -0.0230 -0.1059
 9341DDP     P256043  19.134  24.041   0.637 -0.3029  0.2172 -0.0446
 9341DDP     C256044  19.545  24.102   1.057 -0.0408  0.6254 -0.0126
 9341DDP     C356045  18.705  23.045  30.250  0.0357 -0.1486  0.0905
 9341DDP     C456046  19.447  23.344   0.414 -0.1320 -0.0110  0.1582
 9342DDP     C156047  14.745  28.503  12.484  0.2040 -0.0760 -0.2393
 9342DDP     P156048  14.421  28.409  12.610 -0.0134  0.2061  0.1696
 9342DDP     P256049  15.183  28.549  12.603  0.1140  0.1487 -0.0543
 9342DDP     C256050  15.546  28.257  12.465 -0.0396 -0.0577 -0.1205
 9342DDP     C356051  14.115  28.139  12.728  0.1502  0.1259  0.3160
 9342DDP     C456052  14.641  28.433  11.995 -0.1234  0.3165 -0.4892
 9343DDP     C156053  10.512  15.975   2.423 -0.2802  0.0855 -0.1491
 9343DDP     P156054  10.535  16.188   2.129 -0.0201 -0.1351  0.2186
 9343DDP     P256055  10.060  15.844   2.375 -0.0549  0.0194 -0.1569
 9343DDP     C256056   9.617  15.926   2.367  0.3095  0.1926  0.2601
 9343DDP     C356057  10.675  16.452   1.881 -0.1395 -0.0371  0.1102
 9343DDP     C456058  10.664  15.742   2.887  0.0957 -0.0701  0.0268
 9344DDP     C156059  10.899   3.074  24.959  0.1147 -0.1246 -0.0181
 9344DDP     P156060  10.729   3.472  25.002  0.3989  0.1322  0.1243
 9344DDP     P256061  11.312   3.010  25.139 -0.0453  0.1906 -0.0372
 9344DDP     C256062  11.797   3.097  25.058  0.1574 -0.0453  0.0252
 9344DDP     C356063  10.599   3.708  24.654 -0.2674  0.0589 -0.1366
 9344DDP     C456064  10.690   2.715  24.690 -0.0318 -0.0097  0.2961
 9345DDP     C156065  27.463  22.677   8.881  0.1939 -0.1042  0.1944
 9345DDP     P156066  27.679  22.559   9.249  0.0993 -0.0094 -0.1265
 9345DDP     P256067  27.579  22.578   8.464 -0.0042  0.3104 -0.1632
 9345DDP     C256068  27.853  22.357   8.391  0.0194  0.0707 -0.2172
 9345DDP     C356069  27.862  22.449   9.574  0.2979 -0.1214 -0.1610
 9345DDP     C456070  27.197  22.968   8.819 -0.0079 -0.0609 -0.1878
 9346DDP     C156071  28.678  12.596   4.130  0.0243 -0.1918  0.0683
 9346DDP     P156072  29.039  12.468   3.934 -0.2007  0.1301 -0.1849
 9346DDP     P256073  28.427  13.000   3.973  0.0686 -0.0926 -0.6772
 9346DDP     C256074  28.184  13.257   3.692 -0.1134 -0.0895 -0.0571
 9346DDP     C356075  29.236  12.081   3.716  0.0917  0.1749 -0.0913
 9346DDP     C456076  28.680  12.539   4.566  0.0617  0.2510  0.2394
 9347DDP     C156077  29.262   6.999  24.114 -0.1374 -0.4112  0.2239
 9347DDP     P156078  29.396   6.596  23.980  0.1587  0.0430 -0.2680
 9347DDP     P256079  29.585   7.418  23.957  0.1720  0.5748 -0.2274
 9347DDP     C256080  29.544   7.699  23.588  0.2615 -0.2585  0.1413
 9347DDP     C356081  29.368   6.201  23.884  0.2789 -0.0907  0.0706
 9347DDP     C456082  29.054   7.054  24.461 -0.0179 -0.0140 -0.3215
 9348DDP     C156083  19.523  25.029  19.502  0.2367  0.0951 -0.1220
 9348DDP     P156084  19.267  25.094  19.138  0.0725 -0.4270  0.0515
 9348DDP     P256085  19.368  25.228  19.751 -0.1727  0.1004 -0.1060
 9348DDP     C256086  19.079  25.617  19.790 -0.1381 -0.0197 -0.0426
 9348DDP     C356087  18.844  24.770  18.975 -0.3235 -0.0167  0.4330
 9348DDP     C456088  19.952  24.952  19.454  0.1050  0.0770  0.0056
 9349DDP     C156089  27.754  20.175  26.583  0.1978 -0.1273 -0.0749
 9349DDP     P156090  27.838  20.489  26.220  0.0336 -0.1617 -0.0085
 9349DDP     P256091  27.399  20.070  26.793 -0.0385  0.0561 -0.1234
 9349DDP     C256092  27.006  19.782  26.794 -0.1549  0.0943 -0.3396
 9349DDP     C356093  27.787  20.916  26.128  0.1542 -0.1208 -0.0156
 9349DDP     C456094  28.187  19.973  26.788 -0.0247 -0.0448 -0.1376
 9350DDP     C156095   6.018   5.489   2.510 -0.1044 -0.0077  0.0237
 9350DDP     P156096   5.620   5.564   2.531  0.0119  0.0990  0.0829
 9350DDP     P256097   6.286   5.486   2.151  0.0068  0.0473 -0.0583
 9350DDP     C256098   6.445   5.350   1.754  0.0092  0.0111  0.3204
 9350DDP     C356099   5.211   5.731   2.738 -0.0686  0.1257  0.0400
 9350DDP     C456100   6.227   5.485   2.898 -0.0435  0.1506  0.2299
 9351DDP     C156101  15.970  22.081  10.931 -0.2520 -0.1113 -0.1078
 9351DDP     P156102  15.892  22.156  11.295  0.2960 -0.1199  0.0513
 9351DDP     P256103  16.132  21.787  10.852  0.3252 -0.0702 -0.0389
 9351DDP     C256104  16.028  21.359  10.765  0.1208  0.0176  0.2948
 9351DDP     C356105  15.691  21.917  11.605  0.1398 -0.1737 -0.0425
 9351DDP     C456106  15.935  22.177  10.555 -0.0925  0.1127  0.1638
 9352DDP     C156107   7.641  12.755  25.646  0.0258  0.1373  0.1790
 9352DDP     P156108   7.335  13.057  25.900  0.1933  0.2742 -0.2225
 9352DDP     P256109   8.051  12.901  25.649  0.2914 -0.4296 -0.2534
 9352DDP     C256110   8.310  13.219  25.819  0.4021  0.1467 -0.4483
 9352DDP     C356111   7.023  13.168  26.088 -0.0776 -0.3120  0.1271
 9352DDP     C456112   7.339  12.552  25.308  0.1531 -0.1966  0.2084
 9353DDP     C156113  20.596  10.779  19.738 -0.5996 -0.1655  0.1229
 9353DDP     P156114  20.599  11.018  19.368 -0.2395 -0.2084 -0.1961
 9353DDP     P256115  20.243  10.656  20.045  0.3350  0.0103 -0.0385
 9353DDP     C256116  19.953  10.956  20.336 -0.0605  0.1886 -0.0633
 9353DDP     C356117  20.607  11.029  18.908  0.1357 -0.1777 -0.1372
 9353DDP     C456118  20.980  10.795  20.061  0.1765 -0.0329 -0.0084
 9354DDP     C156119   2.802  27.453  19.502 -0.1966 -0.4773 -0.0835
 9354DDP     P156120   3.116  27.525  19.125  0.0974  0.3218 -0.0663
 9354DDP     P256121   2.310  27.461  19.500 -0.2098 -0.0324 -0.0595
 9354DDP     C256122   2.040  27.126  19.460  0.1021 -0.0317 -0.1437
 9354DDP     C356123   3.314  27.857  18.759 -0.0122 -0.1149 -0.0124
 9354DDP     C456124   2.942  27.263  19.910 -0.1142  0.1756  0.0094
 9355DDP     C156125   5.692   7.185  10.397  0.0318 -0.1591 -0.4144
 9355DDP     P156126   5.519   6.909  10.075 -0.0770 -0.0204 -0.2233
 9355DDP     P256127   6.108   7.352  10.625  0.1928  0.2664 -0.0362
 9355DDP     C256128   6.506   7.478  10.792 -0.0317  0.0929 -0.3468
 9355DDP     C356129   5.520   6.463   9.909 -0.0672 -0.1001  0.0429
 9355DDP     C456130   5.325   7.277  10.713  0.0350 -0.1185  0.0178
 9356DDP     C156131   4.135  12.549   8.339 -0.2541  0.0983 -0.1166
 9356DDP     P156132   3.955  12.806   8.122 -0.0089  0.0809 -0.0058
 9356DDP     P256133   4.050  12.185   8.524  0.1953 -0.4400 -0.2520
 9356DDP     C256134   4.324  11.886   8.638  0.0561 -0.3102 -0.1819
 9356DDP     C356135   3.506  13.017   7.972  0.2079 -0.1606 -0.0236
 9356DDP     C456136   4.589  12.529   8.235  0.0262  0.2799  0.3698
 9357DDP     C156137  13.153  10.262   9.746 -0.0182  0.2679 -0.0748
 9357DDP     P156138  13.354  10.594   9.981 -0.1912  0.1260 -0.0500
 9357DDP     P256139  12.797  10.393   9.551  0.0220  0.0004  0.2448
 9357DDP     C256140  12.744  10.653   9.208 -0.2212  0.0162 -0.3458
 9357DDP     C356141  13.599  10.819  10.061 -0.2292 -0.1669 -0.3043
 9357DDP     C456142  13.363   9.891   9.858  0.0171 -0.0244 -0.4322
 9358DDP     C156143  29.196  21.644   2.262 -0.0574  0.0231  0.1818
 9358DDP     P156144  28.703  21.793   2.187 -0.0690 -0.2311  0.3734
 9358DDP     P256145  29.555  21.755   1.938 -0.2678  0.0356 -0.0251
 9358DDP     C256146  29.859  22.040   1.746  0.1582  0.3544 -0.1018
 9358DDP     C356147  28.250  21.651   2.135  0.1962  0.0631  0.0573
 9358DDP     C456148  29.338  21.636   2.646 -0.1502  0.0424  0.1464
 9359DDP     C156149  18.119  19.655  12.709  0.4199  0.0095 -0.2126
 9359DDP     P156150  17.743  19.847  12.926 -0.0335 -0.0330  0.0611
 9359DDP     P256151  18.163  19.883  12.378  0.4137 -0.0657 -0.0775
 9359DDP     C256152  18.050  20.220  12.129 -0.3201  0.1784 -0.0140
 9359DDP     C356153  17.428  19.830  13.274  0.1085 -0.2047 -0.2716
 9359DDP     C456154  18.383  19.309  12.971 -0.1910 -0.2856 -0.1672
 9360DDP     C156155  23.505  23.573  10.673 -0.0508  0.0323 -0.0917
 9360DDP     P156156  23.658  24.069  10.531 -0.0216  0.1427  0.3580
 9360DDP     P256157  23.507  23.359  11.009  0.0756  0.1042  0.3354
 9360DDP     C256158  23.895  23.265  11.209  0.1124 -0.0958 -0.0445
 9360DDP     C356159  23.568  24.343  10.289  0.0690  0.0648  0.0116
 9360DDP     C456160  23.318  23.596  10.198  0.0391  0.1267 -0.3261
 9361DDP     C156161  12.369  26.476   9.914 -0.0276  0.1299  0.4897
 9361DDP     P156162  12.122  26.189  10.212  0.1263 -0.1453  0.2358
 9361DDP     P256163  12.434  26.931   9.873  0.1360  0.0115  0.0281
 9361DDP     C256164  12.720  27.374   9.736 -0.0445  0.0945 -0.1388
 9361DDP     C356165  11.897  25.776  10.365  0.0602  0.3609  0.0550
 9361DDP     C456166  12.425  26.340   9.498 -0.0863 -0.0403  0.0436
 9362DDP     C156167  25.550  27.996  24.779 -0.0049 -0.0880  0.1658
 9362DDP     P156168  25.464  28.424  24.883  0.0192  0.0626 -0.0616
 9362DDP     P256169  25.756  27.884  25.124  0.1821 -0.0786  0.1013
 9362DDP     C256170  26.006  27.594  25.390  0.5141  0.1764  0.4028
 9362DDP     C356171  25.433  28.918  24.778  0.1914 -0.2868 -0.2789
 9362DDP     C456172  25.531  27.690  24.332 -0.1081  0.0764 -0.0137
 9363DDP     C156173  17.066  15.880  17.525  0.2215  0.1943 -0.2983
 9363DDP     P156174  16.728  15.998  17.207  0.1329  0.1090  0.0146
 9363DDP     P256175  17.434  15.854  17.944  0.0906  0.3964 -0.0705
 9363DDP     C256176  17.737  15.906  18.290  0.3048  0.0719  0.1673
 9363DDP     C356177  16.319  16.001  17.314 -0.1768 -0.0803 -0.3368
 9363DDP     C456178  17.275  15.442  17.271  0.0156 -0.0847 -0.0438
 9364DDP     C156179  29.274  28.825  26.212 -0.0014 -0.0146 -0.0325
 9364DDP     P156180  29.241  28.621  25.814  0.0677 -0.1393 -0.2541
 9364DDP     P256181  28.814  29.053  26.250  0.1043  0.0893  0.0764
 9364DDP     C256182  28.350  29.205  26.280 -0.4732 -0.2736 -0.0815
 9364DDP     C356183  29.069  28.227  25.673 -0.0629 -0.0793  0.0505
 9364DDP     C456184  29.502  28.844  26.498 -0.0276 -0.1679  0.0236
 9365DDP     C156185  10.028  26.160   3.779  0.3626 -0.3528  0.1099
 9365DDP     P156186   9.851  25.851   3.400  0.1127 -0.2011  0.1544
 9365DDP     P256187  10.425  26.468   3.693 -0.3582 -0.0956 -0.1118
 9365DDP     C256188  10.575  26.885   3.749 -0.0601 -0.1194 -0.2871
 9365DDP     C356189   9.424  25.651   3.198 -0.1443  0.1904  0.1951
 9365DDP     C456190  10.038  26.324   4.219  0.0486 -0.2674  0.3930
 9366DDP     C156191  19.920   0.646  11.665  0.1110  0.0091  0.0004
 9366DDP     P156192  20.048   0.196  11.700 -0.0946 -0.2595 -0.2520
 9366DDP     P256193  19.513   0.725  11.671 -0.1857  0.3346 -0.1342
 9366DDP     C256194  19.090   0.522  11.672  0.2975  0.1900  0.1573
 9366DDP     C356195  19.877  30.122  11.645 -0.3543 -0.0604  0.0928
 9366DDP     C456196  20.271   0.835  11.444  0.0290 -0.0712 -0.2165
 9367DDP     C156197   2.344  17.405   6.678 -0.0152  0.2397 -0.0004
 9367DDP     P156198   2.625  17.128   7.012  0.2066  0.3110 -0.4639
 9367DDP     P256199   2.494  17.587   6.295 -0.0265 -0.0311 -0.1103
 9367DDP     C256200   2.690  17.715   5.990 -0.1311  0.0476  0.0023
 9367DDP     C356201   2.775  16.731   6.755  0.3239 -0.2849  0.1338
 9367DDP     C456202   1.809  17.505   6.724 -0.0006  0.1826  0.1302
 9368DDP     C156203  25.953  11.308  28.381 -0.1843  0.0022  0.0866
 9368DDP     P156204  25.786  11.105  28.724 -0.1079  0.0123  0.1570
 9368DDP     P256205  26.142  11.785  28.629  0.0223 -0.1473  0.0101
 9368DDP     C256206  26.025  12.244  28.847 -0.1092  0.1700 -0.0198
 9368DDP     C356207  25.733  10.651  28.965 -0.2321  0.1176 -0.0213
 9368DDP     C456208  25.963  11.379  27.904  0.1430 -0.0244 -0.1253
 9369DDP     C156209  24.137   4.244   7.301 -0.1537 -0.1710 -0.2471
 9369DDP     P156210  24.128   3.909   7.616 -0.0121 -0.0273  0.0045
 9369DDP     P256211  24.447   4.356   7.114  0.2341 -0.2194 -0.0431
 9369DDP     C256212  24.791   4.649   7.083 -0.1839 -0.2877  0.1282
 9369DDP     C356213  24.017   3.612   7.914 -0.0572  0.0927 -0.1079
 9369DDP     C456214  23.797   4.329   7.138 -0.0447  0.1362  0.1291
 9370DDP     C156215   7.343   6.955  22.971 -0.0802  0.1543 -0.1498
 9370DDP     P156216   7.593   6.596  22.916  0.2433  0.1706 -0.2061
 9370DDP     P256217   7.128   7.142  22.663  0.1233  0.0072  0.0305
 9370DDP     C256218   6.882   7.425  22.377  0.1491  0.1398 -0.1093
 9370DDP     C356219   7.853   6.305  22.783  0.2195  0.1374 -0.4316
 9370DDP     C456220   7.316   7.029  23.413  0.0347  0.1588 -0.1574
 9371DDP     C156221  26.591  17.188   8.480  0.3084  0.0645  0.1077
 9371DDP     P156222  26.515  17.282   8.038 -0.1279  0.0042 -0.1097
 9371DDP     P256223  26.987  17.289   8.667 -0.0627  0.0562  0.1786
 9371DDP     C256224  27.344  17.529   8.692 -0.2974  0.3762 -0.1557
 9371DDP     C356225  26.696  17.587   7.849  0.2805  0.2471 -0.1341
 9371DDP     C456226  26.359  17.123   8.861 -0.3715  0.2379 -0.2439
 9372DDP     C156227   3.186  27.265  21.296 -0.1981  0.5959 -0.2405
 9372DDP     P156228   2.914  27.214  20.994 -0.1475 -0.0047 -0.1016
 9372DDP     P256229   3.163  27.517  21.596  0.0439  0.0388  0.0847
 9372DDP     C256230   3.341  27.575  22.009 -0.0679 -0.1308 -0.1391
 9372DDP     C356231   2.415  27.283  20.886 -0.1803 -0.2736 -0.0613
 9372DDP     C456232   3.531  27.086  21.424 -0.0479 -0.2106 -0.2050
 9373DDP     C156233  10.344  27.445  22.892  0.1967  0.0181  0.3367
 9373DDP     P156234  10.451  27.073  22.665 -0.2193  0.2770 -0.2280
 9373DDP     P256235  10.709  27.707  23.017  0.2886  0.0108 -0.2843
 9373DDP     C256236  10.992  27.945  23.326  0.0304 -0.1939  0.1209
 9373DDP     C356237  10.596  26.532  22.648 -0.3083  0.1280 -0.1135
 9373DDP     C456238   9.886  27.633  22.891  0.2265  0.1660 -0.1744
 9374DDP     C156239  23.136   8.909  12.632  0.2226 -0.0012 -0.4718
 9374DDP     P156240  23.546   9.038  12.515 -0.0359  0.1593 -0.0168
 9374DDP     P256241  22.830   8.973  12.233  0.0322  0.2632 -0.3160
 9374DDP     C256242  22.385   8.817  12.119 -0.2407  0.2647  0.1979
 9374DDP     C356243  23.780   9.329  12.298 -0.1139 -0.0050 -0.2729
 9374DDP     C456244  22.960   8.824  13.045 -0.1280  0.0689 -0.0139
 9375DDP     C156245  28.112  12.600  17.163  0.1827  0.1515  0.1069
 9375DDP     P156246  28.305  12.813  17.488 -0.2291  0.1827 -0.2540
 9375DDP     P256247  27.643  12.606  17.175 -0.2112 -0.0908 -0.0185
 9375DDP     C256248  27.274  12.672  17.385 -0.1755  0.1626 -0.1423
 9375DDP     C356249  28.531  12.960  17.838  0.0183  0.0222  0.1650
 9375DDP     C456250  28.345  12.280  16.984  0.1742  0.1124 -0.0321
 9376DDP     C156251  29.888   8.554  25.920 -0.0648 -0.1188 -0.0204
 9376DDP     P156252  30.041   8.711  26.319  0.1678 -0.2401 -0.1800
 9376DDP     P256253  29.653   8.252  25.849 -0.2774  0.1298 -0.1208
 9376DDP     C256254  29.753   7.835  25.976  0.0942  0.2419 -0.1342
 9376DDP     C356255  29.916   8.752  26.715  0.0645 -0.2470  0.1685
 9376DDP     C456256  29.809   8.938  25.707 -0.0699  0.1187  0.3353
 9377DDP     C156257  22.946  24.183  14.313 -0.0103 -0.0209  0.1361
 9377DDP     P156258  22.984  24.261  14.801 -0.3405  0.5098  0.1791
 9377DDP     P256259  22.539  24.217  14.177  0.2369  0.1990  0.1477
 9377DDP     C256260  22.174  24.360  13.989 -0.0123 -0.3352 -0.0282
 9377DDP     C356261  22.894  24.249  15.276  0.2047  0.1146  0.2114
 9377DDP     C456262  23.301  24.347  13.999  0.0296  0.2366 -0.0490
 9378DDP     C156263  27.349   5.989  23.355  0.1006 -0.3075  0.1503
 9378DDP     P156264  27.547   5.822  23.692 -0.0779  0.0203  0.0729
 9378DDP     P256265  27.551   6.467  23.317 -0.0687  0.0317 -0.1144
 9378DDP     C256266  27.702   6.808  23.125 -0.1298  0.0685 -0.0181
 9378DDP     C356267  27.509   5.469  23.955 -0.0498  0.2841 -0.1091
 9378DDP     C456268  26.984   5.836  23.198  0.0880  0.0883  0.0589
 9379DDP     C156269   6.458  26.526   8.922 -0.1052  0.0059  0.1985
 9379DDP     P156270   6.282  26.587   8.501 -0.0039  0.2870  0.0186
 9379DDP     P256271   6.204  26.799   9.206  0.2763  0.0325  0.1393
 9379DDP     C256272   5.874  26.903   9.560  0.1559  0.2933 -0.0390
 9379DDP     C356273   6.012  26.822   8.285 -0.1416  0.3508  0.1237
 9379DDP     C456274   6.910  26.533   8.954 -0.1515 -0.1718 -0.0496
 9380DDP     C156275  27.528  24.814   4.091  0.0852  0.1632  0.0512
 9380DDP     P156276  27.711  24.892   3.709 -0.1324  0.3306  0.0406
 9380DDP     P256277  27.327  25.080   4.217  0.2351  0.1427  0.1038
 9380DDP     C256278  27.077  25.465   3.989 -0.0510  0.1256 -0.0185
 9380DDP     C356279  27.733  24.950   3.185  0.3697 -0.0443 -0.0078
 9380DDP     C456280  27.502  24.366   4.361 -0.1823  0.2690  0.0745
 9381DDP     C156281  24.472  12.469  19.158 -0.0094  0.1589  0.0650
 9381DDP     P156282  24.378  12.099  18.953  0.1101 -0.1452 -0.0274
 9381DDP     P256283  24.336  12.416  19.545 -0.1365 -0.1807 -0.1919
 9381DDP     C256284  24.116  12.564  19.939  0.3652 -0.0570 -0.1894
 9381DDP     C356285  24.186  11.876  18.663  0.2439  0.0863  0.1154
 9381DDP     C456286  24.679  12.913  19.283  0.0651 -0.0569 -0.0975
 9382DDP     C156287  10.147  24.750  22.118  0.0177 -0.2385  0.3549
 9382DDP     P156288   9.979  24.414  22.351 -0.2054  0.2853  0.3434
 9382DDP     P256289  10.270  24.647  21.643  0.4101 -0.2436 -0.4518
 9382DDP     C256290  10.484  24.484  21.209 -0.2254  0.0301  0.3892
 9382DDP     C356291  10.196  24.101  22.565  0.3607  0.0687 -0.1883
 9382DDP     C456292  10.507  24.987  22.222 -0.0919  0.0797  0.3739
 9383DDP     C156293  12.714  11.319   2.021  0.1511  0.0518  0.0504
 9383DDP     P156294  12.793  11.731   2.050  0.5025 -0.3288  0.4002
 9383DDP     P256295  12.247  11.104   2.033 -0.1196 -0.0540  0.0733
 9383DDP     C256296  12.026  10.715   1.943 -0.1666  0.4251 -0.4563
 9383DDP     C356297  12.994  12.126   1.939  0.0095 -0.0045 -0.4751
 9383DDP     C456298  13.035  11.091   1.946 -0.0011  0.3140 -0.0279
 9384DDP     C156299  29.659   7.467   1.148  0.0492  0.0863  0.0724
 9384DDP     P156300  29.880   7.580   0.759  0.0044 -0.1389  0.2863
 9384DDP     P256301  29.280   7.554   1.336 -0.0756  0.0457 -0.4682
 9384DDP     C256302  29.002   7.778   1.686  0.4219  0.2202  0.1070
 9384DDP     C356303  29.876   7.415   0.378  0.1061  0.2314  0.5614
 9384DDP     C456304  29.749   7.468   1.514 -0.0204 -0.1433  0.0057
 9385DDP     C156305  11.053  28.199  22.837  0.0443  0.2382  0.1188
 9385DDP     P156306  10.946  27.981  22.462 -0.0957 -0.0634 -0.2744
 9385DDP     P256307  11.432  28.386  22.924 -0.0473 -0.0887 -0.4785
 9385DDP     C256308  11.882  28.594  22.872 -0.3248 -0.0845  0.1923
 9385DDP     C356309  11.019  28.084  22.028  0.0688 -0.0495 -0.0321
 9385DDP     C456310  10.760  28.274  23.091 -0.2197  0.4004  0.6316
 9386DDP     C156311  16.763   3.045  24.738  0.0959 -0.1119  0.0195
 9386DDP     P156312  17.213   3.173  24.770  0.0550  0.0292  0.0164
 9386DDP     P256313  16.542   3.327  24.364  0.1793  0.0822 -0.2202
 9386DDP     C256314  16.526   3.313  23.857 -0.3997  0.1853 -0.0613
 9386DDP     C356315  17.275   3.631  24.729 -0.3450 -0.0170 -0.2568
 9386DDP     C456316  16.589   2.667  24.786 -0.0570 -0.2816 -0.2808
 9387DDP     C156317  24.903  15.636   8.663  0.2221 -0.1688  0.1794
 9387DDP     P156318  25.216  15.304   8.771  0.1225 -0.2137  0.1046
 9387DDP     P256319  24.700  15.576   8.324  0.3115 -0.2501  0.0240
 9387DDP     C256320  24.458  15.148   8.087  0.2965 -0.1180  0.1595
 9387DDP     C356321  25.141  14.919   9.108 -0.0456 -0.2427 -0.2383
 9387DDP     C456322  24.558  15.763   8.896 -0.1231  0.1051  0.0635
 9388DDP     C156323   7.288  12.155  13.564  0.1802 -0.0336 -0.1774
 9388DDP     P156324   7.314  12.414  13.238  0.0328  0.2564 -0.2379
 9388DDP     P256325   7.039  12.247  13.899 -0.1905  0.2521 -0.2928
 9388DDP     C256326   6.823  11.804  14.121  0.0955  0.1289 -0.0278
 9388DDP     C356327   7.021  12.362  12.867 -0.1084  0.0825 -0.0602
 9388DDP     C456328   7.330  11.854  13.295  0.1440  0.0424  0.1036
 9389DDP     C156329  20.110   0.560   9.147 -0.1273 -0.1886 -0.0927
 9389DDP     P156330  19.837   0.480   9.569  0.0757  0.1491  0.1137
 9389DDP     P256331  20.170   0.190   8.792 -0.0260  0.0276  0.2440
 9389DDP     C256332  20.265   0.234   8.356 -0.0709  0.0514 -0.0613
 9389DDP     C356333  19.782   0.593   9.940  0.1071 -0.0281 -0.2698
 9389DDP     C456334  20.497   0.681   9.202  0.2018 -0.0985  0.2044
 9390DDP     C156335  13.140  13.724   9.883 -0.2790  0.2971  0.0027
 9390DDP     P156336  13.293  13.428  10.148  0.2137 -0.1555  0.1652
 9390DDP     P256337  13.390  14.002   9.749 -0.1166 -0.0051  0.0844
 9390DDP     C256338  13.263  14.411   9.603 -0.1285  0.0095 -0.3426
 9390DDP     C356339  13.283  13.060  10.314 -0.2649 -0.2164  0.1921
 9390DDP     C456340  12.772  13.571   9.672  0.1619  0.0924  0.1034
 9391DDP     C156341   1.358  11.270   7.634  0.0088 -0.3064  0.1897
 9391DDP     P156342   1.464  11.315   7.225 -0.3471 -0.1178  0.1437
 9391DDP     P256343   1.484  11.625   7.906 -0.0083  0.2031  0.3275
 9391DDP     C256344   1.786  11.878   7.944 -0.2441 -0.2477 -0.1327
 9391DDP     C356345   1.551  11.042   6.920  0.0122  0.0669  0.1259
 9391DDP     C456346   1.047  10.976   7.680 -0.0952  0.3754 -0.0286
 9392DDP     C156347  15.258   0.223  29.181  0.1767  0.4814 -0.0554
 9392DDP     P156348  15.391   0.190  29.559 -0.0941  0.1658 -0.0858
 9392DDP     P256349  15.217  30.295  28.793  0.2408  0.3764  0.0683
 9392DDP     C256350  14.885   0.031  28.430  0.4711 -0.1241  0.0520
 9392DDP     C356351  15.305   0.032  29.896 -0.3176 -0.1914  0.0706
 9392DDP     C456352  14.858   0.382  29.151  0.2368 -0.3474  0.1932
 9393DDP     C156353   4.239  29.166   9.641  0.1281 -0.1577  0.1514
 9393DDP     P156354   4.229  28.760   9.468  0.3152  0.3421 -0.0801
 9393DDP     P256355   3.904  29.364   9.840 -0.0601 -0.1747  0.0004
 9393DDP     C256356   3.578  29.271  10.058 -0.1725 -0.2729 -0.2197
 9393DDP     C356357   4.216  28.561   9.019 -0.2432  0.2108 -0.0952
 9393DDP     C456358   4.640  29.389   9.570 -0.0134  0.1409 -0.1569
 9394DDP     C156359  28.012  14.966   1.711  0.0070 -0.1634 -0.0317
 9394DDP     P156360  28.155  14.811   1.286  0.0130  0.1805 -0.1317
 9394DDP     P256361  27.496  15.126   1.865  0.0554  0.2162 -0.1909
 9394DDP     C256362  27.148  15.211   2.193 -0.0424 -0.0470  0.1117
 9394DDP     C356363  28.625  14.822   1.257 -0.0970 -0.0321  0.1389
 9394DDP     C456364  28.395  14.981   2.078  0.0203 -0.1612 -0.1417
 9395DDP     C156365  20.873  21.946  25.532  0.0842  0.0686  0.1946
 9395DDP     P156366  20.709  22.369  25.489 -0.0211 -0.0294  0.0547
 9395DDP     P256367  20.732  21.594  25.369 -0.2703 -0.2815 -0.1415
 9395DDP     C256368  20.650  21.122  25.234  0.1559 -0.0079  0.1676
 9395DDP     C356369  20.258  22.557  25.544 -0.0218 -0.2455  0.3255
 9395DDP     C456370  21.300  21.961  25.655  0.1756 -0.0200 -0.2072
 9396DDP     C156371   0.489  -0.009  17.371 -0.0145  0.0811  0.0782
 9396DDP     P156372   0.570   0.003  17.732  0.3330  0.0615 -0.0041
 9396DDP     P256373   0.296   0.345  17.158  0.2011 -0.2225  0.1475
 9396DDP     C256374   0.039   0.365  16.730  0.1976 -0.4500  0.0515
 9396DDP     C356375   0.713   0.154  18.178  0.3146  0.2211  0.0208
 9396DDP     C456376   0.604  29.988  17.230  0.1921 -0.1384 -0.0988
 9397DDP     C156377  16.152   9.261  15.959 -0.0602  0.2368 -0.0546
 9397DDP     P156378  15.754   9.176  15.936  0.0177 -0.2770  0.1009
 9397DDP     P256379  16.312   9.667  15.730  0.1497 -0.4141  0.1233
 9397DDP     C256380  16.215   9.958  15.430  0.2076  0.1560 -0.2932
 9397DDP     C356381  15.574   8.946  16.322 -0.2022  0.0050  0.1295
 9397DDP     C456382  16.364   9.001  16.315 -0.0041  0.1500  0.1969
 9398DDP     C156383  10.605  17.386  17.760  0.1629  0.1574  0.0477
 9398DDP     P156384  10.889  17.247  18.005  0.1037  0.5893 -0.2222
 9398DDP     P256385  10.192  17.277  17.914  0.0277 -0.2388 -0.2011
 9398DDP     C256386   9.697  17.180  17.983  0.0987  0.0914  0.2021
 9398DDP     C356387  11.298  17.500  18.264  0.2615  0.0138  0.3278
 9398DDP     C456388  10.794  17.667  17.423  0.0259 -0.0219  0.3194
 9399DDP     C156389  26.357  27.859   8.802  0.1556  0.1381  0.0325
 9399DDP     P156390  26.555  27.880   9.210 -0.1299  0.2321 -0.1362
 9399DDP     P256391  26.576  27.858   8.397  0.0057 -0.3432  0.1262
 9399DDP     C256392  26.526  27.790   7.946 -0.0041  0.4536 -0.0389
 9399DDP     C356393  26.694  27.569   9.372 -0.1019 -0.3485 -0.1418
 9399DDP     C456394  25.925  27.731   8.744  0.1804  0.1826 -0.1193
 9400DDP     C156395  30.243  20.105   8.301 -0.0915  0.0854  0.2563
 9400DDP     P156396  30.234  20.528   8.367 -0.1321 -0.0459 -0.0055
 9400DDP     P256397  29.885  19.955   8.137  0.1873 -0.4522 -0.0803
 9400DDP     C256398  29.583  20.042   7.825  0.1004 -0.2100 -0.1996
 9400DDP     C356399  30.022  20.771   8.386 -0.0851  0.1430 -0.1237
 9400DDP     C456400   0.273  19.834   8.238 -0.2866 -0.0847 -0.0081
 9401DDP     C156401  24.919  23.701  12.755  0.2121  0.0759  0.1906
 9401DDP     P156402  25.266  23.629  12.925  0.1955 -0.3150  0.3263
 9401DDP     P256403  24.601  24.079  12.808 -0.0843 -0.1564  0.0017
 9401DDP     C256404  24.433  24.468  12.843 -0.1138 -0.0187  0.1249
 9401DDP     C356405  25.431  23.427  13.264 -0.0776 -0.3324  0.0803
 9401DDP     C456406  24.940  23.676  12.267  0.0653  0.4008 -0.1918
 9402DDP     C156407  12.574  11.383  20.386  0.0247 -0.2139  0.1268
 9402DDP     P156408  12.359  10.970  20.517  0.1662 -0.0374 -0.2570
 9402DDP     P256409  12.619  11.697  19.990 -0.1105  0.1840  0.2688
 9402DDP     C256410  12.679  11.697  19.493  0.0336 -0.2005  0.1237
 9402DDP     C356411  12.224  10.543  20.341  0.2418 -0.2096  0.0916
 9402DDP     C456412  12.950  11.447  20.593  0.2450  0.3031  0.1453
 9403DDP     C156413  21.565  13.384   8.000  0.3260  0.0545  0.0577
 9403DDP     P156414  21.996  13.360   7.895  0.0787  0.2534  0.5345
 9403DDP     P256415  21.334  13.272   7.784  0.3425 -0.1369  0.2159
 9403DDP     C256416  21.155  13.548   7.593 -0.2063  0.0923 -0.3101
 9403DDP     C356417  22.502  13.447   7.788  0.0271 -0.1649 -0.0585
 9403DDP     C456418  21.611  13.564   8.362  0.0077  0.0380  0.0688
 9404DDP     C156419   1.896   8.543   7.919  0.1332  0.0109 -0.4909
 9404DDP     P156420   2.001   8.861   7.684  0.0915  0.0603 -0.1746
 9404DDP     P256421   1.669   8.225   7.912 -0.2388  0.0346 -0.2012
 9404DDP     C256422   1.493   7.899   7.795  0.0253  0.1953 -0.3647
 9404DDP     C356423   1.875   9.186   7.470 -0.1946 -0.1633  0.2233
 9404DDP     C456424   2.068   8.332   8.295 -0.2642 -0.0254  0.0578
 9405DDP     C156425  16.726  20.031  22.703  0.2208  0.1535  0.2593
 9405DDP     P156426  16.472  20.310  22.672  0.2446  0.1857 -0.0999
 9405DDP     P256427  17.144  19.970  22.561 -0.2984  0.0575 -0.2831
 9405DDP     C256428  17.641  20.071  22.515 -0.1236 -0.1468  0.2455
 9405DDP     C356429  16.153  20.398  22.320  0.0178 -0.1404 -0.1495
 9405DDP     C456430  16.603  19.589  22.662  0.3170 -0.4052 -0.3226
 9406DDP     C156431  24.054  27.182  19.607 -0.0097 -0.0855 -0.1641
 9406DDP     P156432  24.412  27.206  19.880 -0.0186 -0.0131 -0.0584
 9406DDP     P256433  23.669  26.995  19.480 -0.1736  0.1117  0.0069
 9406DDP     C256434  23.310  26.673  19.503  0.1530  0.3126  0.3897
 9406DDP     C356435  24.888  27.268  20.027  0.3571  0.0276 -0.2329
 9406DDP     C456436  23.898  27.560  19.555 -0.1606  0.0270  0.0707
 9407DDP     C156437  14.844   0.661   2.272 -0.2606  0.0750 -0.3688
 9407DDP     P156438  15.216   0.753   2.012  0.0978 -0.2451  0.0483
 9407DDP     P256439  14.335   0.765   2.112 -0.1073 -0.4478 -0.2861
 9407DDP     C256440  14.014   1.055   2.006  0.0887 -0.1433 -0.1437
 9407DDP     C356441  15.587   1.042   1.832  0.0342 -0.0872  0.1717
 9407DDP     C456442  15.079   0.291   2.407  0.0972 -0.3533 -0.1926
 9408DDP     C156443   3.057  10.041  20.903 -0.0627  0.0751  0.2701
 9408DDP     P156444   2.707  10.374  21.186  0.0280 -0.1181  0.0093
 9408DDP     P256445   2.824   9.606  20.873  0.1566 -0.0184  0.2625
 9408DDP     C256446   2.613   9.186  20.820  0.0649  0.1424 -0.2645
 9408DDP     C356447   2.626  10.620  21.447  0.2726  0.0962  0.2039
 9408DDP     C456448   3.510  10.070  20.910  0.0885 -0.1007  0.3504
 9409DDP     C156449  26.108  13.245  25.782  0.1780 -0.7065 -0.0115
 9409DDP     P156450  25.737  13.267  25.790 -0.1231 -0.0924 -0.2884
 9409DDP     P256451  26.401  13.138  25.447  0.1063 -0.1483  0.3154
 9409DDP     C256452  26.433  12.970  25.084 -0.1230 -0.1978 -0.0539
 9409DDP     C356453  25.355  13.009  25.983  0.1254  0.1745 -0.0626
 9409DDP     C456454  26.197  13.600  25.976  0.0434  0.3204 -0.1199
 9410DDP     C156455  22.705   6.978   5.455 -0.1467 -0.0497 -0.0446
 9410DDP     P156456  22.360   7.040   5.628 -0.0620  0.0583 -0.3108
 9410DDP     P256457  22.733   6.988   5.041 -0.0399 -0.0094 -0.0805
 9410DDP     C256458  22.621   6.910   4.665  0.0785 -0.1625 -0.2259
 9410DDP     C356459  22.101   6.847   6.025  0.0642 -0.1827  0.2149
 9410DDP     C456460  23.048   6.933   5.763 -0.1967  0.1372 -0.0619
 9411DDP     C156461  26.588  16.068  12.821  0.1128  0.1592 -0.0823
 9411DDP     P156462  26.617  15.670  12.639  0.5333  0.2929  0.2314
 9411DDP     P256463  26.696  16.074  13.309  0.0524  0.4999 -0.0439
 9411DDP     C256464  26.857  16.090  13.737 -0.1114  0.0403 -0.1462
 9411DDP     C356465  26.686  15.292  12.733 -0.2002  0.0961  0.0319
 9411DDP     C456466  26.658  16.499  12.651  0.1564 -0.0271 -0.0606
 9412DDP     C156467   9.701  13.403  23.624 -0.1060 -0.0622  0.1199
 9412DDP     P156468   9.955  12.938  23.717 -0.1498 -0.0230 -0.0090
 9412DDP     P256469   9.947  13.768  23.573 -0.2352 -0.0383 -0.1255
 9412DDP     C256470   9.884  14.180  23.671  0.3642  0.0059  0.0096
 9412DDP     C356471   9.943  12.460  23.648  0.2039  0.1371  0.2698
 9412DDP     C456472   9.270  13.433  23.570  0.0815 -0.0893 -0.0762
 9413DDP     C156473  10.872  11.135  10.836 -0.0365  0.1286 -0.0752
 9413DDP     P156474  10.787  10.751  10.929 -0.1332  0.1139 -0.1876
 9413DDP     P256475  10.853  11.481  10.938 -0.2974 -0.0807  0.1030
 9413DDP     C256476  10.742  11.938  11.081 -0.0768  0.0497  0.1494
 9413DDP     C356477  10.615  10.351  10.751 -0.0707  0.0910 -0.3549
 9413DDP     C456478  11.169  11.090  10.539  0.0776 -0.2201 -0.3052
 9414DDP     C156479  12.106  18.735   7.103  0.1333  0.0340 -0.0966
 9414DDP     P156480  12.123  19.179   7.275 -0.0477 -0.0277 -0.0069
 9414DDP     P256481  11.777  18.472   6.895  0.0196 -0.0426 -0.0197
 9414DDP     C256482  11.692  18.131   6.490  0.0695  0.0482  0.1214
 9414DDP     C356483  12.059  19.577   7.465 -0.2633  0.0292  0.2411
 9414DDP     C456484  12.324  18.434   6.944  0.1103 -0.3427  0.0983
 9415DDP     C156485  12.456   6.736  12.356  0.1979  0.2313  0.0292
 9415DDP     P156486  12.661   6.419  12.338  0.2085 -0.0026  0.0230
 9415DDP     P256487  12.035   6.751  12.516 -0.1550  0.0475 -0.1905
 9415DDP     C256488  11.829   6.500  12.736  0.0155  0.0250 -0.2525
 9415DDP     C356489  12.850   6.047  12.312 -0.0843  0.0436 -0.0823
 9415DDP     C456490  12.557   7.199  12.204  0.2358  0.0541  0.1912
 9416DDP     C156491   0.964   0.642   7.457  0.3114 -0.4039 -0.1418
 9416DDP     P156492   0.807   0.538   7.797  0.1338 -0.0900  0.1164
 9416DDP     P256493   1.410   0.729   7.404  0.0732  0.1210 -0.0402
 9416DDP     C256494   1.776   0.468   7.438  0.3064 -0.2473  0.0289
 9416DDP     C356495   0.571   0.185   8.012 -0.2004  0.2084 -0.0760
 9416DDP     C456496   0.642   0.730   7.147 -0.1096  0.0784  0.0439
 9417DDP     C156497  16.554  17.246  24.451 -0.3434 -0.2388 -0.1690
 9417DDP     P156498  16.276  17.656  24.506  0.1322  0.2335 -0.1868
 9417DDP     P256499  16.331  16.926  24.601  0.1960 -0.3110  0.3267
 9417DDP     C256500  16.296  16.729  24.998 -0.3929 -0.1784  0.1029
 9417DDP     C356501  16.213  17.973  24.278  0.1251 -0.0294  0.1490
 9417DDP     C456502  16.946  16.938  24.239  0.2387 -0.2447 -0.0211
 9418DDP     C156503   9.079  24.334  13.919 -0.1680  0.1966 -0.0181
 9418DDP     P156504   8.944  24.174  14.257 -0.0280  0.1995  0.0025
 9418DDP     P256505   9.285  24.682  13.803 -0.0632 -0.1204 -0.1838
 9418DDP     C256506   9.787  24.690  13.745 -0.0348 -0.0117 -0.1472
 9418DDP     C356507   8.494  23.851  14.426 -0.0593  0.0952  0.0751
 9418DDP     C456508   9.219  24.120  13.545  0.2181 -0.3114  0.1088
 9419DDP     C156509  19.054   9.403  27.805  0.1277  0.5565 -0.0359
 9419DDP     P156510  19.235   9.046  27.608 -0.1572 -0.0140  0.2458
 9419DDP     P256511  19.128   9.866  27.609 -0.3171  0.4280  0.0626
 9419DDP     C256512  19.206  10.141  27.957 -0.2696  0.6167 -0.4356
 9419DDP     C356513  19.494   8.870  27.317 -0.0106  0.0007 -0.3034
 9419DDP     C456514  19.012   9.461  28.255  0.1106  0.0207 -0.2121
 9420DDP     C156515   0.725  28.855  24.786 -0.1519 -0.1802 -0.0512
 9420DDP     P156516   0.574  28.995  25.186 -0.3249 -0.2810  0.1466
 9420DDP     P256517   0.426  28.538  24.690  0.0031 -0.2187 -0.0302
 9420DDP     C256518   0.131  28.529  24.275  0.1779  0.0830 -0.1667
 9420DDP     C356519   0.533  28.935  25.648  0.0637 -0.0620 -0.2643
 9420DDP     C456520   1.166  28.873  24.680  0.0598 -0.1452 -0.0204
 9421DDP     C156521   9.821  21.830  18.301 -0.1303 -0.1040 -0.1426
 9421DDP     P156522   9.521  21.567  18.052 -0.0273  0.1316  0.1769
 9421DDP     P256523  10.023  21.645  17.968  0.0100  0.1150  0.1770
 9421DDP     C256524  10.217  21.216  17.740  0.1751  0.4052 -0.0312
 9421DDP     C356525   9.141  21.618  17.705 -0.0651 -0.1796 -0.0098
 9421DDP     C456526   9.823  22.317  18.533  0.0450  0.1494 -0.2317
 9422DDP     C156527   4.204  10.216  25.755  0.0264  0.0782 -0.0213
 9422DDP     P156528   3.929  10.001  26.043  0.2391  0.1134  0.1160
 9422DDP     P256529   4.130  10.176  25.317  0.2259 -0.2097  0.0460
 9422DDP     C256530   4.400  10.331  24.900 -0.1567  0.0684 -0.4074
 9422DDP     C356531   3.780   9.845  26.357 -0.0893  0.2313  0.1657
 9422DDP     C456532   4.354  10.522  26.033 -0.1622 -0.1076 -0.1725
 9423DDP     C156533  29.755  10.705  25.326  0.1316  0.0487  0.1202
 9423DDP     P156534  30.029  11.088  25.414 -0.2438  0.1075  0.1044
 9423DDP     P256535  29.923  10.568  24.897 -0.0240 -0.3768 -0.0380
 9423DDP     C256536  29.947  10.867  24.561 -0.2838 -0.0833  0.0999
 9423DDP     C356537  30.247  11.283  25.782 -0.0787 -0.2217  0.3690
 9423DDP     C456538  29.371  10.657  25.560 -0.0481 -0.3517  0.1317
 9424DDP     C156539   5.047   0.706  29.358 -0.0759 -0.0628  0.2421
 9424DDP     P156540   4.859   0.449  29.074 -0.0490  0.0056 -0.2749
 9424DDP     P256541   5.408   0.640  29.445  0.2266  0.0908 -0.0777
 9424DDP     C256542   5.649   0.803  29.808  0.0512  0.0542  0.1875
 9424DDP     C356543   4.706   0.489  28.687 -0.2377  0.4210  0.1038
 9424DDP     C456544   4.682   0.840  29.539 -0.0019  0.0074  0.1776
 9425DDP     C156545  20.185  20.833  25.322  0.1020  0.2289  0.1042
 9425DDP     P156546  19.822  20.979  25.099  0.0304 -0.1844 -0.0037
 9425DDP     P256547  20.333  20.829  24.936 -0.0296  0.1134 -0.1558
 9425DDP     C256548  19.940  20.692  24.670 -0.0980  0.3010 -0.1543
 9425DDP     C356549  19.608  21.079  24.680  0.2564  0.0375  0.0307
 9425DDP     C456550  20.217  20.633  25.761  0.0968 -0.1680  0.0768
 9426DDP     C156551   8.799   6.194  30.037 -0.2209 -0.0401 -0.0000
 9426DDP     P156552   8.701   6.218   0.160 -0.3018  0.0216  0.1372
 9426DDP     P256553   8.495   6.128  29.788  0.0084 -0.5604 -0.3349
 9426DDP     C256554   8.179   6.280  29.539  0.1711  0.0500  0.2332
 9426DDP     C356555   8.479   6.107   0.453  0.0035 -0.1364  0.1145
 9426DDP     C456556   9.244   6.412  29.794  0.0740  0.1878  0.3196
 9427DDP     C156557  19.460   2.914  23.864  0.1720  0.0277  0.1179
 9427DDP     P156558  19.127   2.538  23.972  0.1204 -0.0322 -0.0672
 9427DDP     P256559  19.357   3.212  23.522  0.0445  0.0548 -0.2578
 9427DDP     C256560  19.017   3.222  23.213 -0.1035  0.0886 -0.0743
 9427DDP     C356561  19.121   2.060  23.878  0.1133  0.0845  0.0529
 9427DDP     C456562  19.872   2.832  23.827 -0.1313 -0.3277  0.0459
 9428DDP     C156563  17.416  11.960  27.480 -0.1989 -0.2218 -0.0724
 9428DDP     P156564  17.593  12.269  27.197  0.0261  0.1249 -0.1335
 9428DDP     P256565  17.297  11.502  27.725 -0.1881  0.2955  0.1778
 9428DDP     C256566  17.230  11.180  28.073  0.1823  0.2974  0.1530
 9428DDP     C356567  18.012  12.039  27.113  0.0624  0.2983 -0.1528
 9428DDP     C456568  17.367  12.300  27.735  0.0793 -0.1480 -0.0908
 9429DDP     C156569  19.244  28.286   6.912  0.0744  0.0370 -0.1322
 9429DDP     P156570  19.419  27.947   7.130 -0.0807  0.2102  0.2361
 9429DDP     P256571  18.917  28.209   6.536 -0.1885  0.0509  0.1161
 9429DDP     C256572  18.560  28.318   6.489 -0.2840 -0.2205 -0.3513
 9429DDP     C356573  19.510  27.573   7.016 -0.1971 -0.0336 -0.0258
 9429DDP     C456574  19.403  28.728   7.080 -0.2966  0.1180  0.0777
 9430DDP     C156575  18.231  24.798   1.196  0.0267  0.2741 -0.1878
 9430DDP     P156576  18.213  24.813   1.642  0.2300  0.0866 -0.2234
 9430DDP     P256577  18.135  24.416   0.894 -0.0985  0.2432  0.2534
 9430DDP     C256578  17.749  24.298   0.527 -0.1879  0.1504  0.0255
 9430DDP     C356579  18.056  24.659   2.028  0.1419 -0.0554  0.0285
 9430DDP     C456580  18.246  25.247   1.029  0.1704 -0.0342  0.2587
 9431DDP     C156581  15.672  20.490  29.374  0.1841  0.1329  0.0633
 9431DDP     P156582  15.684  20.192  29.137  0.1093 -0.1010 -0.1482
 9431DDP     P256583  15.292  20.795  29.272 -0.1089 -0.0064  0.0295
 9431DDP     C256584  15.096  21.180  29.203 -0.1695  0.2317 -0.1452
 9431DDP     C356585  15.880  19.930  28.847  0.1124  0.0998 -0.0084
 9431DDP     C456586  15.840  20.383  29.838  0.2407 -0.0001  0.0023
 9432DDP     C156587   9.735   5.544  25.636  0.0617 -0.2478  0.0933
 9432DDP     P156588   9.920   5.701  25.967  0.0641  0.1905 -0.1396
 9432DDP     P256589   9.943   5.470  25.245 -0.1380 -0.0682 -0.4177
 9432DDP     C256590  10.364   5.434  25.095 -0.0492  0.0776 -0.0671
 9432DDP     C356591   9.754   5.965  26.340 -0.1334 -0.0740 -0.2744
 9432DDP     C456592   9.375   5.354  25.659 -0.1037 -0.2212 -0.1306
 9433DDP     C156593  24.672   9.909  26.907 -0.2988  0.0364 -0.1707
 9433DDP     P156594  25.002  10.043  26.744 -0.1621 -0.0140 -0.2436
 9433DDP     P256595  24.291   9.875  26.709 -0.3500 -0.0810  0.0686
 9433DDP     C256596  24.108   9.876  26.242 -0.1298 -0.0801  0.0419
 9433DDP     C356597  25.209  10.487  26.941  0.0390 -0.0994  0.1116
 9433DDP     C456598  24.868   9.720  27.242 -0.1231  0.0418  0.2010
 9434DDP     C156599  17.536  27.908  14.008 -0.0765 -0.1274 -0.1342
 9434DDP     P156600  17.513  27.606  14.080 -0.2164 -0.1644 -0.1408
 9434DDP     P256601  17.897  28.161  14.251  0.2622 -0.0231 -0.2905
 9434DDP     C256602  17.897  28.591  14.377 -0.0560  0.1544 -0.1060
 9434DDP     C356603  17.490  27.147  14.142 -0.0074 -0.2916 -0.0666
 9434DDP     C456604  17.506  28.237  13.679  0.2250  0.0604 -0.0284
 9435DDP     C156605  10.954  23.199   7.854  0.1832  0.0720  0.3040
 9435DDP     P156606  11.045  23.450   8.193 -0.1733 -0.0325 -0.0226
 9435DDP     P256607  11.222  23.446   7.408 -0.1930 -0.2209  0.0150
 9435DDP     C256608  11.341  23.897   7.375  0.1625  0.1484 -0.1821
 9435DDP     C356609  11.114  23.760   8.553 -0.0248  0.2002  0.0994
 9435DDP     C456610  10.563  22.978   7.941  0.1027 -0.3578  0.1729
 9436DDP     C156611  28.514   9.160   0.798 -0.1234  0.2543  0.2348
 9436DDP     P156612  28.800   9.350   0.695 -0.1651  0.2820 -0.1242
 9436DDP     P256613  28.283   9.134   1.252  0.1532  0.1318 -0.1842
 9436DDP     C256614  28.100   9.069   1.617  0.0064  0.2140  0.0684
 9436DDP     C356615  28.895   9.564   0.325 -0.1559  0.1392 -0.3390
 9436DDP     C456616  28.437   8.771   0.891 -0.1272 -0.3789  0.0326
 9437DDP     C156617  22.969   6.231  23.468 -0.0378  0.2869 -0.1901
 9437DDP     P156618  23.310   6.050  23.297 -0.4587  0.1034  0.1348
 9437DDP     P256619  22.981   6.606  23.508  0.0242 -0.2336  0.0217
 9437DDP     C256620  22.738   6.955  23.682  0.1099 -0.2131  0.0872
 9437DDP     C356621  23.587   6.138  22.953 -0.1334 -0.0796  0.2012
 9437DDP     C456622  22.644   5.928  23.598 -0.0518  0.1601 -0.1211
 9438DDP     C156623  29.144  12.607  12.781 -0.0182  0.1752  0.0993
 9438DDP     P156624  28.966  12.205  12.617 -0.0890  0.0583 -0.0840
 9438DDP     P256625  29.552  12.724  12.845 -0.2408 -0.0804  0.1941
 9438DDP     C256626  29.692  13.126  12.697 -0.0669  0.0640 -0.4682
 9438DDP     C356627  29.004  11.923  12.344 -0.3755 -0.3266  0.2539
 9438DDP     C456628  28.817  12.964  12.818 -0.0399  0.0537 -0.0546
 9439DDP     C156629  16.246  20.519  21.752 -0.3780  0.0521 -0.0069
 9439DDP     P156630  15.842  20.315  21.821 -0.1190  0.0574  0.1087
 9439DDP     P256631  16.219  20.809  21.495  0.0504 -0.5247  0.0538
 9439DDP     C256632  16.076  21.160  21.275  0.1147 -0.3328  0.0539
 9439DDP     C356633  15.475  20.477  21.629 -0.3011 -0.0133  0.3402
 9439DDP     C456634  16.582  20.320  22.125 -0.0262  0.0304  0.0588
 9440DDP     C156635   0.120  11.467   7.431  0.2581 -0.2021 -0.0988
 9440DDP     P156636   0.026  11.899   7.373  0.1506  0.1017  0.1304
 9440DDP     P256637  30.233  11.194   7.147  0.2372 -0.1259 -0.0330
 9440DDP     C256638  29.980  11.192   6.810  0.3729 -0.0414 -0.0598
 9440DDP     C356639   0.025  12.128   6.947  0.1319  0.1032 -0.0515
 9440DDP     C456640  30.322  11.242   7.808 -0.0789 -0.1756  0.0937
 9441DDP     C156641   3.455  21.618  29.575 -0.0234 -0.0608 -0.3213
 9441DDP     P156642   3.101  21.716  29.806  0.0029  0.0160  0.0043
 9441DDP     P256643   3.509  21.539  29.062  0.0206  0.3661  0.2145
 9441DDP     C256644   3.819  21.398  28.721  0.3949 -0.1301 -0.2058
 9441DDP     C356645   2.711  21.653  30.109 -0.2283  0.0285  0.0729
 9441DDP     C456646   3.875  21.501  29.753  0.1653  0.2039  0.2540
 9442DDP     C156647  12.867  25.265  17.742 -0.0285 -0.2044 -0.4945
 9442DDP     P156648  12.847  24.797  17.525 -0.1832  0.1139 -0.0200
 9442DDP     P256649  12.579  25.187  18.046 -0.0372  0.0616 -0.1272
 9442DDP     C256650  12.163  25.006  18.090 -0.1918  0.0571 -0.1635
 9442DDP     C356651  12.861  24.317  17.723 -0.0326  0.0962  0.1313
 9442DDP     C456652  13.171  25.527  17.771  0.3375 -0.0589  0.0042
 9443DDP     C156653   5.385  21.372  25.884 -0.1762 -0.4696  0.2202
 9443DDP     P156654   5.468  21.772  26.165  0.0021 -0.1319  0.1619
 9443DDP     P256655   5.207  21.113  26.112  0.0108  0.0720  0.1519
 9443DDP     C256656   4.828  21.040  26.171 -0.1183 -0.0937  0.1016
 9443DDP     C356657   5.568  21.892  26.461 -0.1430  0.2394 -0.1991
 9443DDP     C456658   5.359  21.403  25.349  0.2839 -0.0789 -0.1365
 9444DDP     C156659   3.422  27.100  23.718  0.3792 -0.2153 -0.1914
 9444DDP     P156660   3.329  27.042  23.336 -0.0220  0.0776 -0.1100
 9444DDP     P256661   3.744  27.009  23.941  0.1725 -0.1437 -0.0106
 9444DDP     C256662   4.056  27.134  24.261 -0.1294  0.1738 -0.3270
 9444DDP     C356663   3.035  27.309  23.044  0.1021 -0.2300 -0.0659
 9444DDP     C456664   3.171  27.455  23.948  0.4165 -0.0935  0.0497
 9445DDP     C156665   0.289  18.180   8.955 -0.0063 -0.2102  0.0985
 9445DDP     P156666   0.255  18.589   9.250  0.1097  0.0689 -0.1403
 9445DDP     P256667  30.243  17.978   8.929  0.2242 -0.1098 -0.0050
 9445DDP     C256668  30.176  17.546   8.934 -0.1428 -0.0391 -0.1588
 9445DDP     C356669   0.459  18.878   9.473  0.2530 -0.0490  0.2805
 9445DDP     C456670   0.551  18.262   8.616 -0.2172  0.0201 -0.1304
 9446DDP     C156671  12.027   2.083   6.019 -0.2861  0.1813  0.3289
 9446DDP     P156672  12.186   1.726   5.786  0.1419  0.0385 -0.0143
 9446DDP     P256673  12.176   2.446   5.744  0.3370 -0.1787 -0.1296
 9446DDP     C256674  12.210   2.542   5.286  0.0986 -0.1516 -0.2006
 9446DDP     C356675  11.876   1.429   5.597  0.2051  0.3910 -0.1699
 9446DDP     C456676  11.732   2.117   6.343  0.3138 -0.0847  0.1053
 9447DDP     C156677  13.369  15.877  10.493 -0.1382 -0.0154 -0.4360
 9447DDP     P156678  13.082  15.770  10.810  0.1304 -0.1391  0.1595
 9447DDP     P256679  13.161  16.267  10.445  0.0409  0.1813 -0.0739
 9447DDP     C256680  12.704  16.472  10.411  0.1343  0.0966  0.0207
 9447DDP     C356681  13.077  15.464  11.158  0.0508 -0.0475 -0.0006
 9447DDP     C456682  13.727  15.705  10.433  0.0878 -0.0606  0.0776
 9448DDP     C156683   8.508  25.191   5.005  0.2406 -0.3414  0.1190
 9448DDP     P156684   8.210  25.039   4.964 -0.2791  0.2948  0.0349
 9448DDP     P256685   8.292  25.593   4.836 -0.2193  0.0283  0.4456
 9448DDP     C256686   8.048  25.576   4.368  0.0988  0.0161 -0.0781
 9448DDP     C356687   7.920  24.661   4.850 -0.0754  0.3493  0.2483
 9448DDP     C456688   8.891  25.273   5.314 -0.0116 -0.0463 -0.1541
 9449DDP     C156689   3.348  11.705  28.170  0.1198 -0.0710 -0.0076
 9449DDP     P156690   3.584  11.297  28.023  0.4330 -0.2962  0.0761
 9449DDP     P256691   3.131  12.042  27.910 -0.1101  0.2207 -0.2618
 9449DDP     C256692   2.927  12.494  27.741 -0.1595  0.0884  0.0089
 9449DDP     C356693   4.034  11.087  28.151  0.1334  0.0494 -0.2600
 9449DDP     C456694   3.442  11.821  28.599  0.2446 -0.0642 -0.2410
 9450DDP     C156695  30.076  21.603  20.809  0.1554  0.1029  0.1890
 9450DDP     P156696  30.125  21.791  20.470  0.2554 -0.1220 -0.1863
 9450DDP     P256697  29.949  21.267  20.835  0.2379  0.0825  0.1071
 9450DDP     C256698  29.802  20.878  21.132  0.2913  0.0303  0.2094
 9450DDP     C356699  30.050  22.184  20.339  0.0732  0.0075  0.1066
 9450DDP     C456700  30.013  21.780  21.275 -0.3082 -0.0336  0.1681
 9451DDP     C156701   9.666  23.422  27.308  0.1885  0.1884  0.0594
 9451DDP     P156702  10.053  23.412  27.452 -0.1822  0.1562  0.0567
 9451DDP     P256703   9.532  23.667  26.955 -0.2372 -0.1610  0.2951
 9451DDP     C256704   9.445  23.997  26.549  0.0022 -0.1496  0.0915
 9451DDP     C356705  10.331  23.228  27.797 -0.2069 -0.1284 -0.0914
 9451DDP     C456706   9.303  23.411  27.572  0.0232  0.1779 -0.0197
 9452DDP     C156707  15.175  28.456  18.521  0.0300  0.2175  0.0620
 9452DDP     P156708  14.997  28.783  18.438  0.0279  0.4889  0.1931
 9452DDP     P256709  14.895  28.276  18.850  0.2657  0.1212  0.0135
 9452DDP     C256710  14.492  28.162  18.934  0.0652 -0.0549 -0.2117
 9452DDP     C356711  15.088  29.193  18.362 -0.0465 -0.1288  0.1403
 9452DDP     C456712  15.583  28.169  18.303  0.0039 -0.3350 -0.4180
 9453DDP     C156713  12.383  12.784  29.693 -0.1257 -0.1854  0.1944
 9453DDP     P156714  12.174  12.979  29.354  0.0930 -0.0154 -0.1935
 9453DDP     P256715  12.155  12.542  29.968 -0.0930 -0.2077  0.3099
 9453DDP     C256716  12.261  12.359   0.036 -0.0800 -0.1396 -0.1052
 9453DDP     C356717  11.919  13.128  29.184 -0.0896  0.2565  0.0596
 9453DDP     C456718  12.897  12.884  29.802  0.2021 -0.5243 -0.1567
 9454DDP     C156719  28.840  29.641  22.600 -0.0470 -0.3624 -0.4793
 9454DDP     P156720  29.221  29.366  22.423  0.2263  0.2743  0.1881
 9454DDP     P256721  28.581  29.825  22.321  0.2395 -0.1070  0.0646
 9454DDP     C256722  28.283  30.032  21.959  0.1715  0.2066  0.1270
 9454DDP     C356723  29.487  29.039  22.268 -0.2686  0.0459 -0.0335
 9454DDP     C456724  28.806  29.830  23.024  0.2635  0.0107  0.0137
 9455DDP     C156725  19.993   9.141  23.169 -0.0680  0.2772 -0.2108
 9455DDP     P156726  20.205   8.793  23.434 -0.1720  0.1304  0.3167
 9455DDP     P256727  20.010   9.095  22.806  0.1384 -0.0621 -0.1658
 9455DDP     C256728  20.052   9.562  22.817 -0.1895  0.0192 -0.1761
 9455DDP     C356729  20.674   8.712  23.604  0.0018 -0.0467 -0.1117
 9455DDP     C456730  20.106   9.514  23.392 -0.0358 -0.0557  0.1789
 9456DDP     C156731  21.629  14.950  29.175  0.0921 -0.1396  0.0711
 9456DDP     P156732  21.886  14.751  28.892 -0.0177  0.0991  0.1697
 9456DDP     P256733  21.273  14.757  29.193  0.2971  0.1536  0.1517
 9456DDP     C256734  20.988  14.603  28.896  0.0139 -0.1112  0.0318
 9456DDP     C356735  22.297  14.866  28.766  0.0344  0.1510 -0.1325
 9456DDP     C456736  21.689  15.364  29.372 -0.3787  0.1254  0.1985
 9457DDP     C156737   0.846  15.760   0.563 -0.0862 -0.0847 -0.1746
 9457DDP     P156738   1.000  15.962   0.220  0.0095 -0.2165 -0.0920
 9457DDP     P256739   0.496  15.614   0.628 -0.2749 -0.0114 -0.0122
 9457DDP     C256740   0.116  15.513   0.697  0.2134  0.0253 -0.2071
 9457DDP     C356741   0.888  16.107  30.075 -0.1115  0.2044 -0.1296
 9457DDP     C456742   1.151  15.647   0.953 -0.2354 -0.0445  0.0091
 9458DDP     C156743  20.087  12.475   9.137  0.0999 -0.2030 -0.0140
 9458DDP     P156744  19.831  12.614   8.899  0.0064  0.0844  0.1213
 9458DDP     P256745  20.460  12.584   9.382  0.3513 -0.0078 -0.0403
 9458DDP     C256746  20.758  12.613   9.741 -0.0637  0.3395  0.2980
 9458DDP     C356747  19.452  12.775   8.735 -0.1934  0.4204 -0.0056
 9458DDP     C456748  20.199  11.956   8.990 -0.1796  0.0860 -0.1125
 9459DDP     C156749   2.109  23.373   1.169 -0.0065 -0.1367 -0.1796
 9459DDP     P156750   2.291  23.509   0.873 -0.0156  0.3124  0.1004
 9459DDP     P256751   1.683  23.259   1.124  0.0244  0.0037  0.2116
 9459DDP     C256752   1.357  23.060   1.183  0.1944  0.0939 -0.0289
 9459DDP     C356753   2.588  23.717   0.738  0.2614 -0.0245 -0.3033
 9459DDP     C456754   2.355  23.359   1.472 -0.1568  0.3030 -0.0191
 9460DDP     C156755   1.270  20.440  10.519  0.0829  0.1619 -0.0557
 9460DDP     P156756   1.436  20.252  10.864 -0.2156  0.1519 -0.0047
 9460DDP     P256757   1.285  20.934  10.554 -0.2348 -0.0285  0.0452
 9460DDP     C256758   1.278  21.283  10.311 -0.1536 -0.2793  0.1150
 9460DDP     C356759   1.655  20.243  11.231  0.0803  0.0512  0.0221
 9460DDP     C456760   1.167  20.134  10.271 -0.1416  0.2486  0.1107
 9461DDP     C156761  15.947   6.934   0.509 -0.1638 -0.2384  0.1191
 9461DDP     P156762  16.039   6.842   0.130 -0.1356 -0.1630  0.1606
 9461DDP     P256763  16.164   6.696   0.749  0.5200 -0.0308 -0.2189
 9461DDP     C256764  16.586   6.579   0.732  0.3200  0.0522  0.1949
 9461DDP     C356765  15.755   6.799  30.035  0.0070 -0.1817  0.0575
 9461DDP     C456766  15.937   7.381   0.623 -0.0705  0.0140 -0.0020
 9462DDP     C156767  12.617  22.445  23.561  0.0936  0.0006 -0.0703
 9462DDP     P156768  12.652  22.780  23.850 -0.0562 -0.0384  0.0157
 9462DDP     P256769  12.254  22.446  23.328 -0.1052 -0.1669  0.1121
 9462DDP     C256770  12.023  22.136  23.154  0.0955  0.0831  0.4294
 9462DDP     C356771  13.046  22.925  24.102  0.4522  0.1991  0.0545
 9462DDP     C456772  12.922  22.143  23.414 -0.1118 -0.1340  0.0711
 9463DDP     C156773   9.922   3.970  28.978 -0.2374 -0.0267 -0.0391
 9463DDP     P156774   9.556   3.818  28.760 -0.2727 -0.2830  0.1029
 9463DDP     P256775  10.291   3.926  28.866  0.3053  0.0466 -0.1498
 9463DDP     C256776  10.444   3.897  28.546 -0.0051  0.0821  0.2105
 9463DDP     C356777   9.530   3.451  28.536 -0.0541  0.0821  0.2593
 9463DDP     C456778   9.860   4.330  29.212 -0.0153  0.0644 -0.0961
 9464DDP     C156779   5.693   1.942  25.845  0.1054  0.0492 -0.1212
 9464DDP     P156780   5.959   2.248  25.942  0.2465  0.0355 -0.2114
 9464DDP     P256781   5.221   1.863  25.929  0.1121 -0.2841  0.2680
 9464DDP     C256782   4.777   1.898  25.728  0.0938 -0.2326  0.1777
 9464DDP     C356783   6.342   2.453  25.887  0.0369  0.1894 -0.1413
 9464DDP     C456784   5.753   1.539  25.661  0.0453 -0.0238 -0.2200
 9465DDP     C156785   3.083  22.156  28.819 -0.1019  0.1744  0.0895
 9465DDP     P156786   3.289  22.606  28.799 -0.0607 -0.2644 -0.0486
 9465DDP     P256787   2.875  21.906  28.651 -0.0503 -0.1389  0.1985
 9465DDP     C256788   2.596  21.550  28.419 -0.0054 -0.0882  0.0350
 9465DDP     C356789   3.464  22.974  28.852 -0.2479  0.0862  0.2740
 9465DDP     C456790   3.246  21.981  29.232  0.4108  0.0614 -0.0937
 9466DDP     C156791   5.082  26.335  30.269  0.2264 -0.0408 -0.0907
 9466DDP     P156792   5.410  26.340  29.973 -0.0620 -0.3197 -0.2500
 9466DDP     P256793   5.002  25.990   0.236  0.0853 -0.3559 -0.0067
 9466DDP     C256794   5.076  25.759   0.584 -0.0727 -0.1431  0.2990
 9466DDP     C356795   5.582  25.989  29.621 -0.0030 -0.1114  0.2042
 9466DDP     C456796   4.602  26.531  30.209 -0.2671  0.2419 -0.2055
 9467DDP     C156797  28.824  14.390  10.482 -0.0936 -0.2280 -0.1063
 9467DDP     P156798  28.740  14.728  10.189  0.1276  0.1894 -0.0728
 9467DDP     P256799  29.155  14.426  10.828  0.1228 -0.3710  0.1778
 9467DDP     C256800  29.234  14.081  11.101  0.0635 -0.0943 -0.0927
 9467DDP     C356801  28.463  15.028  10.122  0.1417  0.0851 -0.0202
 9467DDP     C456802  28.562  14.048  10.347 -0.1978  0.1114 -0.2358
 9468DDP     C156803  27.080  25.540   8.313 -0.0610 -0.2067  0.2129
 9468DDP     P156804  27.416  25.406   8.089  0.1925  0.0185 -0.2096
 9468DDP     P256805  26.646  25.503   8.209 -0.2651 -0.0711  0.1964
 9468DDP     C256806  26.421  25.527   7.833  0.1205  0.3852 -0.0216
 9468DDP     C356807  27.679  24.966   8.194  0.0225  0.0384  0.0591
 9468DDP     C456808  27.276  25.493   8.697 -0.2133  0.1984  0.0397
 9469DDP     C156809   9.165  19.941  13.902  0.0473  0.1344  0.0160
 9469DDP     P156810   9.162  19.621  14.180  0.0504  0.0168  0.1228
 9469DDP     P256811   9.364  20.297  13.867  0.0072 -0.2528  0.0850
 9469DDP     C256812   9.715  20.344  14.055  0.1329  0.2603  0.3513
 9469DDP     C356813   8.895  19.575  14.436 -0.3432 -0.3585  0.1628
 9469DDP     C456814   8.855  19.775  13.732 -0.3907  0.0708 -0.0161
 9470DDP     C156815  16.290   5.526   2.705  0.3071  0.2380  0.2104
 9470DDP     P156816  16.030   5.049   2.670 -0.0752  0.1724 -0.3775
 9470DDP     P256817  16.715   5.511   2.873  0.2193 -0.2315 -0.2126
 9470DDP     C256818  17.050   5.722   3.072  0.1853  0.1145 -0.0906
 9470DDP     C356819  16.007   4.803   2.969  0.2938 -0.0448 -0.1290
 9470DDP     C456820  16.032   5.772   2.930 -0.0700 -0.0416 -0.4384
 9471DDP     C156821  23.067  28.129  21.607  0.2111  0.2636  0.0355
 9471DDP     P156822  23.323  27.802  21.507  0.2673 -0.0491 -0.0491
 9471DDP     P256823  22.916  28.509  21.345  0.2986  0.2491 -0.2538
 9471DDP     C256824  22.844  28.881  21.144  0.0780 -0.0071 -0.1596
 9471DDP     C356825  23.457  27.508  21.332  0.4143  0.0666 -0.1050
 9471DDP     C456826  22.842  28.101  22.021 -0.2444  0.1000 -0.0099
 9472DDP     C156827   4.666  19.858   8.901 -0.2737  0.0645 -0.0743
 9472DDP     P156828   4.870  20.125   9.226 -0.0872  0.1699 -0.0941
 9472DDP     P256829   4.236  19.885   8.619  0.0231 -0.0964 -0.0496
 9472DDP     C256830   4.088  20.169   8.243 -0.1626  0.1277  0.4234
 9472DDP     C356831   5.032  20.445   9.559 -0.0370 -0.2456 -0.1157
 9472DDP     C456832   4.740  19.396   8.863 -0.0151  0.0716 -0.0727
 9473DDP     C156833  28.842   3.698  17.989 -0.1858 -0.0609  0.0465
 9473DDP     P156834  28.633   3.990  18.151  0.1427 -0.2028 -0.1615
 9473DDP     P256835  29.169   3.716  18.171  0.0763  0.3277  0.0679
 9473DDP     C256836  29.593   3.852  18.089 -0.0866 -0.0098 -0.1237
 9473DDP     C356837  28.763   4.191  18.542 -0.0023 -0.0998  0.0404
 9473DDP     C456838  28.765   3.578  17.612 -0.2305 -0.0149  0.2171
 9474DDP     C156839   5.559   0.273  17.145 -0.2712  0.1578 -0.3081
 9474DDP     P156840   5.913   0.143  16.855 -0.1483 -0.0015  0.1892
 9474DDP     P256841   5.685   0.321  17.620 -0.0495 -0.2182 -0.1818
 9474DDP     C256842   5.739   0.346  18.030  0.3381 -0.4287  0.0209
 9474DDP     C356843   5.843  30.143  16.529 -0.1660  0.1007  0.3003
 9474DDP     C456844   5.283   0.634  16.945 -0.1850 -0.1374 -0.1135
 9475DDP     C156845   5.969  16.575  11.688  0.0231 -0.1643  0.0251
 9475DDP     P156846   6.134  16.254  11.856  0.0505  0.0376  0.1651
 9475DDP     P256847   5.518  16.379  11.848 -0.1033  0.2706 -0.5649
 9475DDP     C256848   5.661  16.255  12.152 -0.1125  0.1663 -0.1580
 9475DDP     C356849   6.126  16.019  12.223 -0.0029  0.1428  0.1423
 9475DDP     C456850   5.949  16.957  11.547  0.5589  0.1947  0.5698
 9476DDP     C156851  26.531  21.554   0.786 -0.1423 -0.0617  0.0805
 9476DDP     P156852  26.206  21.280   0.995 -0.0271 -0.3642 -0.1974
 9476DDP     P256853  27.011  21.558   0.908 -0.0666 -0.0489 -0.0349
 9476DDP     C256854  27.353  21.616   1.108  0.0963  0.2610 -0.0274
 9476DDP     C356855  25.958  21.033   1.309 -0.0914 -0.1773  0.1064
 9476DDP     C456856  26.334  21.866   0.773  0.0579  0.0524 -0.3383
 9477DDP     C156857  10.380   6.173  25.770  0.4082 -0.3436  0.1127
 9477DDP     P156858  10.459   5.756  26.022  0.1835  0.0854  0.0181
 9477DDP     P256859   9.933   6.250  25.860  0.0002  0.3660  0.0759
 9477DDP     C256860   9.622   6.368  26.080 -0.1200  0.0374  0.0157
 9477DDP     C356861  10.223   5.370  26.152 -0.1772 -0.2856 -0.0922
 9477DDP     C456862  10.636   6.425  25.386  0.0670  0.2550 -0.0259
 9478DDP     C156863   9.842   2.486   3.017  0.1565  0.0453 -0.0788
 9478DDP     P156864  10.196   2.270   2.643 -0.2305 -0.1129  0.1113
 9478DDP     P256865   9.763   2.155   3.428 -0.2852  0.3404 -0.0622
 9478DDP     C256866   9.547   1.969   3.705 -0.3600 -0.1949 -0.0567
 9478DDP     C356867  10.406   1.981   2.507 -0.0741  0.1765  0.4379
 9478DDP     C456868   9.633   2.717   3.135  0.1531 -0.3152 -0.0704
 9479DDP     C156869  19.183  29.564  10.594 -0.2831  0.0520 -0.4866
 9479DDP     P156870  19.579  29.505  10.427  0.2223  0.0956  0.0902
 9479DDP     P256871  19.355  29.535  10.964 -0.1215  0.0219  0.1753
 9479DDP     C256872  19.123  29.618  11.284  0.0153 -0.0627 -0.1051
 9479DDP     C356873  19.911  29.642  10.449 -0.1416  0.0126  0.0911
 9479DDP     C456874  18.743  29.523  10.455  0.0172  0.0314 -0.0957
 9480DDP     C156875  12.522  10.454   5.834 -0.2385  0.0261  0.0478
 9480DDP     P156876  12.794  10.708   5.654 -0.0105  0.1403  0.1937
 9480DDP     P256877  12.454  10.448   6.274 -0.0240  0.1319 -0.0317
 9480DDP     C256878  12.355  10.472   6.778  0.0657 -0.2090  0.1546
 9480DDP     C356879  13.157  10.527   5.567 -0.2434  0.0820  0.0716
 9480DDP     C456880  12.147  10.425   5.635  0.2541 -0.1591 -0.0230
 9481DDP     C156881  26.252  15.391   2.573 -0.0983 -0.0489  0.1807
 9481DDP     P156882  26.159  15.336   2.154 -0.0143 -0.0442 -0.1261
 9481DDP     P256883  25.990  15.159   2.844  0.0343  0.0128 -0.1559
 9481DDP     C256884  25.717  14.859   2.666 -0.1395 -0.0794  0.1670
 9481DDP     C356885  25.798  15.344   1.816 -0.0333  0.0799  0.2440
 9481DDP     C456886  26.640  15.596   2.680  0.4207 -0.0721 -0.2284
 9482DDP     C156887  24.358  14.660  12.365 -0.1405 -0.0940  0.0075
 9482DDP     P156888  24.243  14.798  12.777 -0.1319  0.2528 -0.1458
 9482DDP     P256889  24.015  14.787  12.072 -0.0603  0.3740  0.3245
 9482DDP     C256890  23.871  14.712  11.697  0.1086  0.0505  0.1621
 9482DDP     C356891  24.314  15.282  12.824 -0.0250 -0.2109  0.4626
 9482DDP     C456892  24.757  14.381  12.232  0.0246 -0.1798  0.0641
 9483DDP     C156893  24.980  28.366   7.231  0.1170  0.0084 -0.0858
 9483DDP     P156894  24.835  28.737   6.978  0.2883  0.0101 -0.1625
 9483DDP     P256895  25.297  28.343   7.449 -0.1862 -0.2477  0.2077
 9483DDP     C256896  25.632  28.112   7.519 -0.3238  0.0998 -0.0200
 9483DDP     C356897  24.929  29.062   6.730 -0.3928  0.1157 -0.2759
 9483DDP     C456898  24.623  28.029   7.244 -0.0879  0.1422  0.0859
 9484DDP     C156899  25.321  17.225  18.467 -0.2591 -0.3052  0.1716
 9484DDP     P156900  24.907  17.036  18.529 -0.1582  0.0925 -0.2130
 9484DDP     P256901  25.670  16.995  18.255 -0.0931 -0.3048  0.0389
 9484DDP     C256902  25.975  16.947  18.049  0.1806  0.0092  0.2013
 9484DDP     C356903  24.574  17.054  18.850  0.1231  0.0519  0.1324
 9484DDP     C456904  25.620  17.517  18.716 -0.4982  0.1277  0.1477
 9485DDP     C156905  15.664   8.625   4.675 -0.1477 -0.1911  0.1853
 9485DDP     P156906  16.154   8.595   4.721 -0.0357 -0.1020  0.3597
 9485DDP     P256907  15.408   8.975   4.796  0.0593  0.1146 -0.1842
 9485DDP     C256908  15.399   9.223   5.232 -0.0090  0.2379  0.1889
 9485DDP     C356909  16.622   8.572   4.620  0.0320  0.0409 -0.0241
 9485DDP     C456910  15.403   8.472   4.299  0.1485  0.1367 -0.3105
 9486DDP     C156911   9.104  28.563  13.832 -0.1395 -0.0677 -0.3515
 9486DDP     P156912   9.166  28.909  13.618  0.1449  0.1504 -0.0088
 9486DDP     P256913   8.744  28.490  14.066  0.1245 -0.0542 -0.3550
 9486DDP     C256914   8.459  28.133  14.148 -0.0836  0.2165 -0.0337
 9486DDP     C356915   9.175  29.320  13.682 -0.0862  0.0446 -0.0751
 9486DDP     C456916   9.415  28.232  13.749  0.0231 -0.0451  0.1948
 9487DDP     C156917  17.450  29.102   2.054  0.1150 -0.2162  0.2298
 9487DDP     P156918  17.576  28.784   2.264  0.0654 -0.1130 -0.2289
 9487DDP     P256919  16.997  29.099   1.827 -0.4400  0.1558 -0.0880
 9487DDP     C256920  16.909  28.839   1.490  0.1413 -0.0523  0.0946
 9487DDP     C356921  17.651  28.339   2.128  0.0703 -0.2872 -0.0947
 9487DDP     C456922  17.793  29.516   1.874  0.2520  0.1593 -0.0051
 9488DDP     C156923  29.690  10.460   1.911  0.2365  0.0830 -0.0431
 9488DDP     P156924  29.398  10.671   1.706 -0.3171  0.1263  0.2859
 9488DDP     P256925  29.523  10.640   2.308  0.1256 -0.2184  0.0900
 9488DDP     C256926  29.584  11.122   2.435  0.2660 -0.0579 -0.2711
 9488DDP     C356927  29.349  11.078   1.547 -0.1813  0.0052 -0.1118
 9488DDP     C456928  30.087  10.359   1.829  0.2132 -0.3001  0.0820
 9489DDP     C156929   4.517  10.315   4.825  0.1688  0.0913 -0.2115
 9489DDP     P156930   4.365  10.654   5.180  0.2511 -0.2094  0.1512
 9489DDP     P256931   4.287  10.177   4.528 -0.0794 -0.1065 -0.0645
 9489DDP     C256932   3.803  10.179   4.354 -0.0061  0.2339  0.1691
 9489DDP     C356933   4.454  11.048   5.456  0.1442 -0.1087  0.3643
 9489DDP     C456934   4.926  10.303   4.931  0.3566  0.0119 -0.1479
 9490DDP     C156935  23.679  13.518  25.057 -0.0477 -0.1460  0.0773
 9490DDP     P156936  23.306  13.597  25.303 -0.0270  0.3442 -0.1720
 9490DDP     P256937  24.081  13.725  25.172  0.2018  0.0044  0.0561
 9490DDP     C256938  24.446  13.781  25.202 -0.2269 -0.0395  0.1217
 9490DDP     C356939  23.220  13.803  25.675  0.1539  0.0584  0.0006
 9490DDP     C456940  23.361  13.586  24.685 -0.1514 -0.2583  0.0503
 9491DDP     C156941  29.211  14.609   0.797 -0.0022 -0.0356  0.0130
 9491DDP     P156942  28.992  14.395   1.196 -0.4823 -0.0162 -0.2006
 9491DDP     P256943  29.121  14.986   0.449 -0.1372  0.0044  0.1544
 9491DDP     C256944  29.204  14.959  30.338  0.1794 -0.1933  0.1524
 9491DDP     C356945  28.723  14.366   1.543 -0.1158  0.0973 -0.2781
 9491DDP     C456946  29.630  14.617   0.698  0.0370  0.0804  0.0903
 9492DDP     C156947  16.834  26.591  28.091  0.2217  0.2620 -0.0441
 9492DDP     P156948  17.021  26.223  28.258  0.0645  0.1631 -0.1206
 9492DDP     P256949  17.112  26.771  27.648  0.1133 -0.1121  0.1731
 9492DDP     C256950  17.508  26.674  27.252  0.0723 -0.1050 -0.2705
 9492DDP     C356951  17.258  26.038  28.583  0.0401  0.1627 -0.2062
 9492DDP     C456952  16.437  26.799  28.068  0.0569 -0.3198  0.0808
 9493DDP     C156953  21.119  27.298  18.764 -0.0625  0.0603 -0.1466
 9493DDP     P156954  20.908  27.293  18.383  0.3190 -0.0503  0.0718
 9493DDP     P256955  21.044  27.458  19.169  0.1929 -0.1500 -0.1354
 9493DDP     C256956  21.025  27.348  19.568  0.1177 -0.1163  0.1640
 9493DDP     C356957  20.818  27.701  18.066  0.1573 -0.3570 -0.1025
 9493DDP     C456958  21.462  27.066  18.726 -0.0619 -0.3797  0.1022
 9494DDP     C156959   0.645  25.789   0.497 -0.2029 -0.2395  0.1154
 9494DDP     P156960   0.584  25.399   0.819 -0.1344  0.1479 -0.0398
 9494DDP     P256961   0.660  26.212   0.593 -0.1419 -0.0393  0.0486
 9494DDP     C256962   0.704  26.706   0.425 -0.1044  0.0586  0.1498
 9494DDP     C356963   0.638  25.122   1.145  0.0601  0.3619  0.1573
 9494DDP     C456964   0.874  25.828   0.126 -0.0822  0.2365 -0.2989
 9495DDP     C156965  19.729   4.093   1.963 -0.0153  0.1849 -0.3319
 9495DDP     P156966  19.672   4.183   1.624 -0.0853  0.1039  0.0493
 9495DDP     P256967  20.204   4.045   2.005 -0.0826 -0.0004 -0.2353
 9495DDP     C256968  20.566   4.066   1.672  0.2594 -0.0617 -0.0557
 9495DDP     C356969  19.686   4.453   1.330 -0.0863 -0.2596  0.3722
 9495DDP     C456970  19.279   3.896   2.149  0.1146 -0.0855 -0.0415
 9496DDP     C156971  20.547   6.110   2.020 -0.3708 -0.0585  0.1188
 9496DDP     P156972  20.442   5.730   2.025  0.0605  0.2803  0.1457
 9496DDP     P256973  20.530   6.335   2.478  0.2310  0.2011 -0.3140
 9496DDP     C256974  20.364   6.657   2.777 -0.0937  0.2775 -0.0350
 9496DDP     C356975  20.476   5.368   2.254  0.1428  0.0691 -0.1184
 9496DDP     C456976  20.479   6.392   1.620  0.0789  0.0003  0.1906
 9497DDP     C156977  19.553   6.783  30.097  0.2553  0.4716  0.0968
 9497DDP     P156978  19.966   6.540  30.244  0.0851 -0.1521  0.1098
 9497DDP     P256979  19.090   6.807  30.336 -0.2338  0.0218  0.0881
 9497DDP     C256980  18.744   6.891   0.236 -0.1431  0.1825  0.0537
 9497DDP     C356981  20.245   6.273  30.281 -0.1484 -0.0222  0.2902
 9497DDP     C456982  19.568   6.883  29.660 -0.0871 -0.0654  0.0211
 9498DDP     C156983   0.486   1.769  22.234  0.1839  0.1237 -0.2136
 9498DDP     P156984   0.843   1.887  22.343 -0.0265 -0.1135  0.0755
 9498DDP     P256985   0.444   1.441  22.419 -0.0149  0.0265 -0.0766
 9498DDP     C256986   0.674   1.119  22.184  0.3136  0.2166  0.1012
 9498DDP     C356987   0.851   2.016  22.838 -0.1872  0.0158 -0.1073
 9498DDP     C456988   0.325   2.058  21.956  0.1092  0.0400 -0.1744
 9499DDP     C156989   8.539  18.257  14.350  0.1318  0.1334  0.2045
 9499DDP     P156990   8.595  18.604  14.565 -0.1079 -0.2582 -0.1129
 9499DDP     P256991   8.286  17.921  14.561  0.0934 -0.1764  0.2858
 9499DDP     C256992   7.865  17.796  14.744 -0.0429  0.0492  0.0547
 9499DDP     C356993   8.271  18.911  14.736 -0.1319 -0.1237  0.0394
 9499DDP     C456994   8.937  18.251  14.055 -0.2781 -0.0906 -0.2814
 9500DDP     C156995  25.787  13.960  29.170  0.2291 -0.3583 -0.0980
 9500DDP     P156996  25.618  13.559  29.380  0.1449 -0.1160 -0.0588
 9500DDP     P256997  25.550  14.398  29.189  0.0894  0.0127 -0.0305
 9500DDP     C256998  25.498  14.573  29.581 -0.1410 -0.0600 -0.1228
 9500DDP     C356999  25.492  13.585  29.757 -0.0321  0.2332  0.2698
 9500DDP     C457000  26.245  14.123  29.140  0.1905  0.0500 -0.1303
 9501DDP     C157001   7.997  29.237  15.217 -0.0666 -0.1812 -0.3108
 9501DDP     P157002   8.219  29.167  15.638 -0.0349 -0.2791 -0.0866
 9501DDP     P257003   7.585  29.242  15.240  0.4845  0.1244 -0.2304
 9501DDP     C257004   7.251  29.207  15.042  0.1714  0.3616  0.2237
 9501DDP     C357005   8.611  29.233  15.818 -0.1321 -0.2155 -0.1697
 9501DDP     C457006   8.268  29.382  14.916 -0.2229  0.0908  0.0165
 9502DDP     C157007  10.984   0.890   8.185  0.1508 -0.0973 -0.0463
 9502DDP     P157008  10.890   0.954   8.641 -0.1254 -0.1362 -0.0210
 9502DDP     P257009  10.667   0.737   7.920 -0.0108 -0.0401 -0.1205
 9502DDP     C257010  10.298   0.527   7.763 -0.1649 -0.3057 -0.3019
 9502DDP     C357011  10.786   1.070   9.118  0.1810 -0.1028  0.0604
 9502DDP     C457012  11.387   0.805   8.011  0.2322  0.1565 -0.0059
 9503DDP     C157013   5.452   8.905  12.809 -0.0517 -0.0125 -0.1848
 9503DDP     P157014   5.110   8.700  12.908  0.0463  0.0198  0.0815
 9503DDP     P257015   5.380   8.796  12.433 -0.1220  0.0527 -0.0176
 9503DDP     C257016   5.412   8.665  12.117  0.2177  0.1316  0.0171
 9503DDP     C357017   4.846   8.390  12.790  0.6178  0.0136 -0.2101
 9503DDP     C457018   5.728   9.214  12.942 -0.3082 -0.0138  0.1998
 9504DDP     C157019   2.413  17.696   1.213  0.0500  0.3621 -0.2887
 9504DDP     P157020   2.259  17.766   0.812  0.3085  0.0954 -0.1493
 9504DDP     P257021   2.127  17.766   1.572 -0.0537 -0.1192  0.0242
 9504DDP     C257022   2.209  17.880   2.084  0.2925 -0.2459  0.0428
 9504DDP     C357023   2.321  17.953   0.377  0.2833  0.0978  0.1557
 9504DDP     C457024   2.587  17.412   1.392  0.0822  0.2961  0.1483
 9505DDP     C157025   3.241  11.773  14.118 -0.1543 -0.2830 -0.1366
 9505DDP     P157026   3.373  11.896  13.677 -0.0650  0.1538 -0.1571
 9505DDP     P257027   2.800  11.676  14.179 -0.3521 -0.2357 -0.1028
 9505DDP     C257028   2.404  11.560  14.449  0.1625 -0.1351  0.3196
 9505DDP     C357029   3.785  11.734  13.562  0.1427  0.1074  0.0970
 9505DDP     C457030   3.417  11.515  14.403  0.0600  0.0272 -0.0725
 9506DDP     C157031   8.506  16.775   2.583  0.1160 -0.1708 -0.0233
 9506DDP     P157032   8.615  16.605   2.213  0.1721  0.0807  0.1766
 9506DDP     P257033   8.914  16.888   2.877  0.2337 -0.0281 -0.1889
 9506DDP     C257034   9.320  17.012   3.152 -0.1126  0.1162 -0.2930
 9506DDP     C357035   9.075  16.637   1.842  0.4315 -0.1887 -0.2358
 9506DDP     C457036   8.026  16.870   2.865  0.0298  0.1423 -0.0167
 9507DDP     C157037  26.204   2.798  12.120  0.0622  0.1311 -0.0523
 9507DDP     P157038  25.961   2.445  11.963  0.0300  0.3097 -0.0894
 9507DDP     P257039  26.044   3.187  11.913 -0.2780 -0.2146 -0.1249
 9507DDP     C257040  25.778   3.289  11.588  0.2113 -0.2311 -0.3036
 9507DDP     C357041  25.742   2.358  11.708  0.3142  0.1240  0.0399
 9507DDP     C457042  26.615   2.749  12.200 -0.2212  0.2167 -0.1868
 9508DDP     C157043  -0.010  15.266   9.163 -0.4649 -0.2382 -0.0992
 9508DDP     P157044   0.281  15.146   9.397 -0.2490 -0.2820  0.0045
 9508DDP     P257045  30.083  15.340   8.813  0.0056  0.2965  0.2911
 9508DDP     C257046  30.108  15.399   8.389 -0.0448  0.0834 -0.2743
 9508DDP     C357047   0.583  14.836   9.345 -0.0920  0.1018 -0.1722
 9508DDP     C457048  30.133  15.349   9.520 -0.2036 -0.1019  0.2470
 9509DDP     C157049  13.900  12.502   4.303  0.2072  0.3621  0.1447
 9509DDP     P157050  13.993  12.930   4.008 -0.0362 -0.3381 -0.0171
 9509DDP     P257051  13.531  12.233   4.240  0.0029 -0.1261 -0.1214
 9509DDP     C257052  13.350  11.819   4.062  0.2467  0.2003 -0.0428
 9509DDP     C357053  13.933  13.366   3.772 -0.0090  0.0231  0.0771
 9509DDP     C457054  14.247  12.373   4.539  0.1355  0.0683  0.1689
 9510DDP     C157055  18.151  17.625  19.621  0.2643 -0.3670 -0.1601
 9510DDP     P157056  18.012  17.891  20.057  0.0885 -0.0547  0.1137
 9510DDP     P257057  18.409  17.829  19.352  0.1030 -0.0888 -0.0334
 9510DDP     C257058  18.717  17.790  19.133  0.0452 -0.0618 -0.1819
 9510DDP     C357059  18.227  18.125  20.380  0.1454  0.2597  0.1473
 9510DDP     C457060  17.977  17.239  19.645  0.1752 -0.0122  0.2172
 9511DDP     C157061  13.567   6.319  11.744  0.1862 -0.0171  0.2614
 9511DDP     P157062  13.179   6.512  11.818 -0.1260  0.1517  0.1344
 9511DDP     P257063  13.902   6.378  11.777  0.0438 -0.2733 -0.0624
 9511DDP     C257064  14.121   6.391  11.398  0.1252  0.0608  0.0695
 9511DDP     C357065  12.784   6.646  11.584 -0.2033  0.2103 -0.2786
 9511DDP     C457066  13.487   5.824  11.732 -0.2213  0.3263  0.3256
 9512DDP     C157067  26.946   0.971  21.814  0.3032  0.0335 -0.0802
 9512DDP     P157068  26.784   1.146  21.619 -0.0380 -0.1072  0.1089
 9512DDP     P257069  27.261   0.691  21.670 -0.1342 -0.0203 -0.2465
 9512DDP     C257070  27.202   0.270  21.590  0.4827 -0.1177 -0.1540
 9512DDP     C357071  26.919   1.400  21.229 -0.1808  0.1018 -0.2190
 9512DDP     C457072  26.679   1.109  22.201 -0.2537  0.3668 -0.0142
 9513DDP     C157073  25.902  15.992   9.529 -0.0791  0.1244 -0.0326
 9513DDP     P157074  25.809  15.803   9.129 -0.2104 -0.0841 -0.1251
 9513DDP     P257075  25.891  16.415   9.490  0.0985  0.0017 -0.1791
 9513DDP     C257076  25.698  16.816   9.385 -0.0560 -0.0639 -0.1629
 9513DDP     C357077  26.185  15.660   8.835  0.5006 -0.0362  0.1242
 9513DDP     C457078  26.030  15.832   9.888 -0.0606  0.0180  0.1101
 9514DDP     C157079  24.261   4.139  21.555 -0.0564  0.1644  0.0280
 9514DDP     P157080  24.260   4.556  21.384 -0.0224  0.0944  0.0252
 9514DDP     P257081  23.869   4.017  21.474  0.0036 -0.0264  0.1373
 9514DDP     C257082  23.765   3.918  21.187 -0.1337  0.2392  0.1484
 9514DDP     C357083  24.195   4.984  21.286 -0.0375 -0.1454 -0.1815
 9514DDP     C457084  24.648   3.972  21.531  0.0312  0.1813  0.2970
 9515DDP     C157085  14.487  21.658   7.950 -0.0408  0.0859 -0.1787
 9515DDP     P157086  14.764  21.620   8.239  0.2370 -0.0468  0.0540
 9515DDP     P257087  14.302  21.204   7.914  0.1846  0.2609  0.1062
 9515DDP     C257088  14.363  20.804   7.915  0.3933 -0.1394 -0.0889
 9515DDP     C357089  14.812  21.672   8.661  0.1871 -0.2012 -0.1025
 9515DDP     C457090  14.358  22.028   7.807 -0.0096 -0.0155 -0.3902
 9516DDP     C157091  20.241   9.169  13.821 -0.2740 -0.1227  0.1150
 9516DDP     P157092  20.655   9.290  13.603 -0.2163 -0.1064  0.0184
 9516DDP     P257093  19.986   9.471  13.972 -0.1320 -0.0866  0.0292
 9516DDP     C257094  19.723   9.603  14.326  0.1122 -0.0610  0.1673
 9516DDP     C357095  20.666   9.709  13.602  0.0056  0.0909  0.0526
 9516DDP     C457096  20.089   8.785  13.680 -0.0356  0.2616  0.2603
 9517DDP     C157097   9.722   7.117  29.835  0.1373 -0.0200  0.1610
 9517DDP     P157098   9.166   6.963  29.913 -0.1111  0.2114  0.1405
 9517DDP     P257099   9.863   7.242  29.468 -0.1029 -0.2734 -0.0298
 9517DDP     C257100  10.224   7.219  29.334  0.1239 -0.1527 -0.1182
 9517DDP     C357101   8.819   6.687  30.100 -0.0905  0.0043  0.1480
 9517DDP     C457102  10.104   6.976  30.083 -0.1488  0.1673 -0.0514
 9518DDP     C157103   0.281   7.185   8.478  0.1333  0.0324  0.0724
 9518DDP     P157104  30.216   7.326   8.562  0.0988  0.1286 -0.3477
 9518DDP     P257105   0.607   7.445   8.484 -0.3111 -0.3468  0.3324
 9518DDP     C257106   0.913   7.549   8.834  0.1922  0.0761 -0.3017
 9518DDP     C357107  29.832   7.163   8.457  0.4593  0.2449  0.1843
 9518DDP     C457108   0.318   6.779   8.195 -0.0354  0.4373  0.0333
 9519DDP     C157109  17.025  18.657   0.852 -0.0378  0.0439  0.1182
 9519DDP     P157110  17.258  18.889   0.459  0.1724 -0.0448  0.1162
 9519DDP     P257111  16.705  18.518   1.068  0.4410 -0.3172 -0.2821
 9519DDP     C257112  16.447  18.431   1.347  0.1831  0.0785 -0.2338
 9519DDP     C357113  17.554  18.841   0.133 -0.0158 -0.0866 -0.0336
 9519DDP     C457114  17.367  18.400   0.848  0.0254  0.0143  0.0308
 9520DDP     C157115   9.228   0.039  24.809  0.3704  0.0194 -0.1734
 9520DDP     P157116   9.014   0.217  24.470  0.1414  0.4321 -0.1806
 9520DDP     P257117   9.097  29.823  24.898  0.1684 -0.2715  0.0359
 9520DDP     C257118   8.946  29.470  25.028 -0.2411 -0.1557  0.0862
 9520DDP     C357119   8.973  30.304  24.057 -0.2476  0.0951  0.2351
 9520DDP     C457120   9.442   0.203  25.113 -0.2250  0.1012  0.0536
 9521DDP     C157121  10.371  29.509   5.496 -0.1470 -0.0038 -0.0379
 9521DDP     P157122  10.691  29.213   5.203  0.0106  0.0642  0.3262
 9521DDP     P257123  10.372  29.186   5.908  0.2556  0.3657 -0.1540
 9521DDP     C257124  10.264  28.851   6.196  0.0215 -0.3071  0.0325
 9521DDP     C357125  10.895  28.939   5.440 -0.3579 -0.0412  0.0380
 9521DDP     C457126  10.199  30.006   5.397  0.0023  0.2956  0.2467
 9522DDP     C157127  15.730  26.681   1.252  0.2192 -0.2772  0.1763
 9522DDP     P157128  16.019  26.789   1.662  0.0841  0.0761  0.4580
 9522DDP     P257129  15.290  26.582   1.463 -0.1773  0.0981 -0.0771
 9522DDP     C257130  15.149  26.349   1.777  0.0644  0.3054  0.0501
 9522DDP     C357131  16.046  26.988   2.065  0.0082 -0.0702 -0.0195
 9522DDP     C457132  15.880  26.719   0.768 -0.0287 -0.0712 -0.0776
 9523DDP     C157133   5.810  20.536   3.608  0.0724 -0.2589  0.0099
 9523DDP     P157134   5.994  20.595   4.010 -0.2157 -0.0501 -0.0102
 9523DDP     P257135   5.446  20.834   3.543  0.2132 -0.1506 -0.0976
 9523DDP     C257136   5.169  20.925   3.254 -0.1099 -0.0897  0.0425
 9523DDP     C357137   5.873  20.918   4.207  0.0444 -0.0833 -0.0379
 9523DDP     C457138   5.959  20.131   3.348  0.1903  0.0451  0.2738
 9524DDP     C157139   8.241   2.671   7.237  0.0333 -0.1995 -0.2235
 9524DDP     P157140   8.183   2.233   7.246  0.3197  0.3472  0.6682
 9524DDP     P257141   8.063   2.894   7.524  0.1406 -0.0680  0.1310
 9524DDP     C257142   7.598   2.761   7.506 -0.0821  0.2306 -0.2525
 9524DDP     C357143   7.847   1.932   7.218  0.0158  0.1453  0.2109
 9524DDP     C457144   8.707   2.778   7.102  0.0282 -0.2374 -0.1541
 9525DDP     C157145  22.136  29.429  24.969  0.0199 -0.1026 -0.1369
 9525DDP     P157146  22.200  29.765  25.198 -0.0641 -0.1978  0.1325
 9525DDP     P257147  21.759  29.515  24.832  0.0447  0.0639 -0.1810
 9525DDP     C257148  21.365  29.786  24.631  0.0025 -0.3594  0.0086
 9525DDP     C357149  22.277  30.116  25.139 -0.0304 -0.4024 -0.1724
 9525DDP     C457150  22.430  29.049  24.937 -0.2507 -0.3289 -0.3224
 9526DDP     C157151  14.580   0.751   3.655  0.0699 -0.0387 -0.0891
 9526DDP     P157152  14.250   0.560   3.447  0.0580  0.0641 -0.1621
 9526DDP     P257153  14.603   1.243   3.517  0.0559  0.1434 -0.1152
 9526DDP     C257154  14.402   1.714   3.398 -0.0354 -0.1086 -0.2274
 9526DDP     C357155  13.788   0.399   3.311  0.0366  0.3179  0.1607
 9526DDP     C457156  14.949   0.509   3.754  0.0535 -0.0641 -0.1388
 9527DDP     C157157  29.780   5.981  24.957  0.0888 -0.1635  0.4569
 9527DDP     P157158  29.640   5.859  24.561 -0.0672  0.1494 -0.2011
 9527DDP     P257159  29.985   6.251  24.954  0.1767  0.0877 -0.0958
 9527DDP     C257160  30.104   6.623  24.972  0.2508 -0.2914 -0.2614
 9527DDP     C357161  29.885   5.943  24.109  0.0632 -0.0252 -0.1230
 9527DDP     C457162  29.669   5.988  25.328 -0.4089 -0.0922  0.1774
 9528DDP     C157163   2.088   7.237  11.546  0.1430 -0.3212 -0.0488
 9528DDP     P157164   2.091   6.758  11.768  0.0220  0.0903 -0.1238
 9528DDP     P257165   1.877   7.483  11.810 -0.0917 -0.1484 -0.0106
 9528DDP     C257166   1.781   7.869  12.041  0.1408 -0.1643  0.0387
 9528DDP     C357167   1.872   6.317  11.777  0.2322  0.2345 -0.3548
 9528DDP     C457168   2.265   7.339  11.107  0.3136  0.1116 -0.0558
 9529DDP     C157169  14.570  23.709  13.735 -0.2577 -0.0252  0.1969
 9529DDP     P157170  14.144  23.913  13.663 -0.2709  0.1020  0.1243
 9529DDP     P257171  14.801  23.608  13.337 -0.0869  0.0719  0.0091
 9529DDP     C257172  15.026  23.477  13.107 -0.0471 -0.2483  0.2050
 9529DDP     C357173  13.948  24.087  13.253 -0.1110 -0.2137 -0.0036
 9529DDP     C457174  14.748  23.706  14.112 -0.2004 -0.2136 -0.2694
 9530DDP     C157175  18.078  10.620   1.160 -0.0149  0.1598 -0.1718
 9530DDP     P157176  18.151  10.185   1.317 -0.1102 -0.0199 -0.2411
 9530DDP     P257177  17.933  10.859   1.486  0.2126 -0.0132 -0.0446
 9530DDP     C257178  17.881  11.123   1.841 -0.0968  0.4143 -0.3256
 9530DDP     C357179  18.130   9.811   1.119  0.1344 -0.2139 -0.0484
 9530DDP     C457180  17.913  10.683   0.733  0.0183 -0.0865  0.1585
 9531DDP     C157181   0.471   1.403  20.776 -0.2618 -0.0500 -0.1041
 9531DDP     P157182   0.412   1.096  20.453 -0.1938  0.1216 -0.2307
 9531DDP     P257183   0.053   1.269  21.060  0.0163 -0.0787 -0.0233
 9531DDP     C257184  30.046   0.909  21.089  0.1922  0.0921 -0.1447
 9531DDP     C357185   0.577   0.717  20.160  0.0179 -0.2391  0.2564
 9531DDP     C457186   0.837   1.570  20.874 -0.1796  0.0939 -0.0555
 9532DDP     C157187  16.179   2.603   9.578 -0.0387 -0.1344  0.3184
 9532DDP     P157188  16.217   2.738   9.182  0.2398  0.2380 -0.1232
 9532DDP     P257189  16.430   2.622   9.863  0.0619  0.0935  0.0294
 9532DDP     C257190  16.454   2.875  10.282  0.0805 -0.0899 -0.6067
 9532DDP     C357191  16.072   3.052   9.085 -0.1433  0.2317 -0.2038
 9532DDP     C457192  15.744   2.650   9.584 -0.1716  0.3910  0.0108
 9533DDP     C157193  22.954  14.103  18.996  0.1638  0.0615  0.1142
 9533DDP     P157194  22.614  14.166  19.319 -0.0271  0.0443 -0.0904
 9533DDP     P257195  23.187  14.475  18.880  0.0052 -0.2597  0.1126
 9533DDP     C257196  23.135  14.884  18.962 -0.2296  0.0630  0.0863
 9533DDP     C357197  22.436  14.551  19.494  0.0277  0.0190 -0.0801
 9533DDP     C457198  22.863  13.732  18.730 -0.2371  0.2410  0.3085
 9534DDP     C157199  15.157  14.329   2.574 -0.4345 -0.0608  0.3338
 9534DDP     P157200  15.560  14.665   2.607  0.1202 -0.0406  0.1624
 9534DDP     P257201  15.385  13.868   2.719 -0.2463  0.0550 -0.2458
 9534DDP     C257202  15.721  13.666   2.591  0.2553 -0.0588 -0.1303
 9534DDP     C357203  15.908  14.702   2.837  0.2792  0.0239  0.1134
 9534DDP     C457204  14.888  14.345   2.226 -0.1553  0.0198  0.0419
 9535DDP     C157205   5.336   3.723  29.422  0.3194  0.1197 -0.1824
 9535DDP     P157206   5.329   3.339  29.480 -0.3044  0.0036 -0.0293
 9535DDP     P257207   5.182   4.105  29.693  0.0271 -0.0724 -0.1321
 9535DDP     C257208   5.225   4.497  29.926  0.1048  0.0756 -0.2816
 9535DDP     C357209   5.222   3.107  29.843  0.0151 -0.4207 -0.0913
 9535DDP     C457210   5.426   3.943  28.966  0.1522  0.0875  0.0431
 9536DDP     C157211  15.163   0.406  22.575 -0.0853 -0.0432  0.0666
 9536DDP     P157212  15.543   0.200  22.440  0.1628 -0.1889 -0.0746
 9536DDP     P257213  15.010   0.247  23.021 -0.1466  0.0753 -0.1788
 9536DDP     C257214  15.173  30.294  23.283  0.1216 -0.2048  0.2747
 9536DDP     C357215  15.911   0.055  22.248  0.3119  0.0698  0.0956
 9536DDP     C457216  14.960   0.586  22.291 -0.0254 -0.2053 -0.1270
 9537DDP     C157217  25.949   1.334  29.405 -0.1434 -0.0516  0.1536
 9537DDP     P157218  25.944   1.132  29.072  0.2837  0.0350  0.2062
 9537DDP     P257219  26.400   1.373  29.507 -0.4335  0.0206 -0.0706
 9537DDP     C257220  26.818   1.356  29.531  0.0400 -0.1401 -0.0075
 9537DDP     C357221  25.738   0.838  28.841 -0.0915  0.1378 -0.1063
 9537DDP     C457222  25.716   1.533  29.593 -0.0498  0.4417 -0.2812
 9538DDP     C157223  10.861   4.315  18.823 -0.2003  0.2030 -0.0026
 9538DDP     P157224  10.541   3.886  18.744 -0.0683  0.1246  0.0387
 9538DDP     P257225  11.054   4.635  18.469 -0.0052  0.1635  0.0844
 9538DDP     C257226  11.218   5.005  18.158  0.0600 -0.1304 -0.0443
 9538DDP     C357227  10.080   3.791  18.577 -0.1112  0.0451 -0.0287
 9538DDP     C457228  11.066   4.268  19.294 -0.2734  0.0726  0.0035
 9539DDP     C157229   1.007  10.509  15.668 -0.1064  0.1608  0.1410
 9539DDP     P157230   1.192  10.074  15.655 -0.0817 -0.0459  0.0775
 9539DDP     P257231   0.940  10.660  15.229 -0.0388  0.1674  0.2380
 9539DDP     C257232   0.669  10.367  14.957 -0.1355  0.1976 -0.1664
 9539DDP     C357233   1.091   9.701  15.406 -0.0385 -0.0384 -0.2141
 9539DDP     C457234   0.652  10.607  15.884  0.0462  0.0626  0.0926
 9540DDP     C157235  25.484  15.300  14.853 -0.1013 -0.0631  0.0980
 9540DDP     P157236  25.387  15.612  14.549 -0.1737  0.1769 -0.2006
 9540DDP     P257237  25.970  15.482  15.057 -0.0131  0.3626 -0.0117
 9540DDP     C257238  26.178  15.359  15.422 -0.1112 -0.2101 -0.0535
 9540DDP     C357239  25.480  15.902  14.223 -0.0523 -0.0710  0.0948
 9540DDP     C457240  25.520  14.888  14.829  0.1889  0.3957 -0.4312
 9541DDP     C157241  14.066   8.688   3.704  0.1674  0.1013  0.2424
 9541DDP     P157242  14.312   8.944   3.956  0.4301  0.0957  0.0009
 9541DDP     P257243  13.675   8.754   3.546  0.1452  0.1254 -0.1045
 9541DDP     C257244  13.276   8.887   3.358  0.3636 -0.1307 -0.2587
 9541DDP     C357245  14.628   9.192   3.981 -0.0267 -0.1007 -0.1359
 9541DDP     C457246  14.116   8.285   3.803  0.2566  0.2021  0.1379
 9542DDP     C157247   5.390  18.864  18.203 -0.1589  0.1127  0.0401
 9542DDP     P157248   5.334  18.711  18.572  0.0598 -0.2731 -0.0318
 9542DDP     P257249   5.291  18.845  17.789 -0.2026 -0.1528  0.1706
 9542DDP     C257250   5.182  18.526  17.446  0.1242 -0.1701  0.1337
 9542DDP     C357251   5.560  18.436  18.630  0.0904 -0.0327  0.1273
 9542DDP     C457252   5.722  19.170  18.286 -0.0337  0.2129 -0.1692
 9543DDP     C157253   0.065   2.911  29.781 -0.0026  0.2021 -0.0602
 9543DDP     P157254  30.158   2.721  30.055  0.2737 -0.1480  0.1225
 9543DDP     P257255   0.238   2.776  29.266  0.1687  0.8663 -0.1534
 9543DDP     C257256   0.399   2.891  28.966 -0.0685 -0.0652 -0.4665
 9543DDP     C357257  29.882   2.434  30.149 -0.0424 -0.1312  0.2036
 9543DDP     C457258   0.199   3.269  29.940 -0.2572 -0.0441  0.1396
 9544DDP     C157259  16.291   7.431   1.000 -0.1295 -0.3025 -0.1914
 9544DDP     P157260  15.988   7.764   0.956  0.0511  0.0139  0.4014
 9544DDP     P257261  16.445   7.271   0.708  0.1705  0.0589  0.0476
 9544DDP     C257262  16.702   7.390   0.393  0.0408  0.3197  0.1956
 9544DDP     C357263  16.048   8.105   0.795  0.0158  0.1728  0.0671
 9544DDP     C457264  16.356   7.341   1.494  0.2418 -0.3657 -0.1502
 9545DDP     C157265   2.569  24.493  12.304  0.3651 -0.2020  0.0163
 9545DDP     P157266   2.720  24.541  11.927  0.2528 -0.1896 -0.1264
 9545DDP     P257267   2.772  24.177  12.600 -0.1938 -0.1109 -0.1535
 9545DDP     C257268   2.624  23.844  12.925 -0.2864 -0.1790  0.2212
 9545DDP     C357269   2.545  24.712  11.552  0.1160 -0.0405 -0.0313
 9545DDP     C457270   2.387  24.829  12.556  0.1257 -0.0707  0.3116
 9546DDP     C157271  24.127   0.502   4.060  0.0952 -0.0049  0.1113
 9546DDP     P157272  23.970   0.900   4.214 -0.0484  0.2590 -0.0243
 9546DDP     P257273  23.959   0.305   4.455 -0.0696  0.1875  0.4179
 9546DDP     C257274  23.727   0.374   4.837  0.0854 -0.0041 -0.1631
 9546DDP     C357275  24.032   1.136   4.495  0.1988  0.2153  0.2004
 9546DDP     C457276  24.161   0.349   3.573  0.1639 -0.2109  0.1743
 9547DDP     C157277  12.597  16.490   9.443  0.1876  0.2841  0.0206
 9547DDP     P157278  12.760  16.023   9.279 -0.0629  0.0576 -0.2054
 9547DDP     P257279  12.612  16.807   9.110 -0.2762 -0.1351  0.0173
 9547DDP     C257280  12.284  17.029   8.867  0.3275  0.1600  0.0316
 9547DDP     C357281  12.659  15.522   9.191 -0.1327 -0.3045 -0.0922
 9547DDP     C457282  12.563  16.515   9.895  0.5332  0.0706  0.1716
 9548DDP     C157283  15.209  27.958  14.033  0.0356  0.1506 -0.1804
 9548DDP     P157284  15.654  27.907  13.803 -0.1352 -0.1443 -0.0749
 9548DDP     P257285  14.943  27.798  13.761 -0.2356 -0.1735 -0.2040
 9548DDP     C257286  14.516  27.847  13.834  0.0233 -0.0635  0.1000
 9548DDP     C357287  15.960  27.587  13.962  0.2353  0.2550 -0.4080
 9548DDP     C457288  15.204  27.835  14.435 -0.0783 -0.2031  0.0282
 9549DDP     C157289  26.412  27.534  24.411  0.0268 -0.4522  0.3200
 9549DDP     P157290  26.080  27.685  24.760 -0.0252 -0.0666 -0.0120
 9549DDP     P257291  26.856  27.685  24.302 -0.1885 -0.2021  0.1476
 9549DDP     C257292  27.226  27.901  24.158  0.2439  0.1052  0.0799
 9549DDP     C357293  25.608  27.512  24.806  0.2370  0.1368 -0.3182
 9549DDP     C457294  26.238  27.348  24.136 -0.0427  0.1447  0.0375
 9550DDP     C157295  28.430   2.502  22.565 -0.0522  0.1530  0.0911
 9550DDP     P157296  28.764   2.381  22.702 -0.0397 -0.1483 -0.0509
 9550DDP     P257297  28.088   2.255  22.393  0.0721  0.0746 -0.2144
 9550DDP     C257298  27.741   2.449  22.265 -0.1408 -0.0196 -0.1025
 9550DDP     C357299  29.236   2.420  22.652 -0.0504 -0.0327  0.1845
 9550DDP     C457300  28.528   2.938  22.471 -0.0268  0.1793 -0.2298
 9551DDP     C157301  11.812  20.645   5.520 -0.1498  0.2253 -0.0505
 9551DDP     P157302  12.014  20.760   5.212 -0.0205  0.1439  0.1083
 9551DDP     P257303  11.911  20.155   5.683  0.0668  0.1547  0.1541
 9551DDP     C257304  11.745  19.840   5.908 -0.1231  0.1668 -0.1739
 9551DDP     C357305  12.143  21.013   4.857 -0.2935  0.1330 -0.1114
 9551DDP     C457306  11.386  20.871   5.402 -0.0882  0.0464 -0.1479
 9552DDP     C157307  20.062  20.733  15.626  0.1316  0.1344 -0.1972
 9552DDP     P157308  20.428  20.907  15.795 -0.0185  0.1077 -0.0170
 9552DDP     P257309  19.792  20.536  15.936  0.4216  0.0408  0.3035
 9552DDP     C257310  19.735  20.182  15.910 -0.0224  0.1574 -0.1652
 9552DDP     C357311  20.810  20.900  15.776  0.0529  0.2366 -0.1452
 9552DDP     C457312  20.046  20.763  15.344  0.2032 -0.2461  0.0044
 9553DDP     C157313  13.285  13.842   6.766 -0.0016  0.1057 -0.0247
 9553DDP     P157314  13.049  13.994   6.393  0.0039  0.0029 -0.0912
 9553DDP     P257315  13.372  13.535   7.032  0.1545 -0.0141  0.0330
 9553DDP     C257316  13.679  13.290   7.042  0.1066 -0.0109  0.1186
 9553DDP     C357317  12.894  13.845   5.955  0.0052  0.0382 -0.1284
 9553DDP     C457318  13.266  14.117   7.015 -0.1388  0.1971  0.1736
 9554DDP     C157319  18.312   9.522   8.465 -0.3628 -0.1258 -0.2044
 9554DDP     P157320  18.115   9.874   8.472 -0.0718 -0.1777  0.1346
 9554DDP     P257321  18.250   9.163   8.127 -0.0648 -0.1798 -0.0653
 9554DDP     C257322  18.082   8.839   7.891  0.1189  0.2771 -0.2719
 9554DDP     C357323  17.950  10.112   8.129  0.2630  0.3577 -0.0506
 9554DDP     C457324  18.283   9.574   8.941 -0.1774  0.2150 -0.2616
 9555DDP     C157325  16.537   4.008  28.515 -0.0665 -0.3274  0.3723
 9555DDP     P157326  16.222   3.812  28.167  0.0464  0.0391  0.0081
 9555DDP     P257327  16.984   3.998  28.557  0.3058 -0.0377 -0.3862
 9555DDP     C257328  17.331   4.208  28.659 -0.2542  0.0322  0.2062
 9555DDP     C357329  16.296   3.639  27.717  0.3358 -0.2095  0.1435
 9555DDP     C457330  16.248   4.206  28.791  0.1626  0.0871 -0.1962
 9556DDP     C157331  21.289   2.430  25.288 -0.0430 -0.1196 -0.1473
 9556DDP     P157332  21.351   2.256  24.820 -0.2744 -0.0232 -0.0670
 9556DDP     P257333  20.994   2.708  25.360  0.1848  0.0087  0.1097
 9556DDP     C257334  20.577   2.805  25.413  0.2508 -0.0244 -0.0717
 9556DDP     C357335  21.106   2.147  24.413  0.0092 -0.0187  0.0675
 9556DDP     C457336  21.297   2.106  25.658  0.0644  0.1389  0.0771
 9557DDP     C157337  19.823  26.147  20.703 -0.0857 -0.1578  0.0002
 9557DDP     P157338  19.866  26.458  20.308 -0.2428 -0.1783 -0.0635
 9557DDP     P257339  20.305  25.890  20.791 -0.0302 -0.1946  0.1675
 9557DDP     C257340  20.374  25.517  21.048 -0.2144  0.3388 -0.1133
 9557DDP     C357341  19.919  26.588  19.871 -0.0560  0.2677  0.0511
 9557DDP     C457342  19.438  26.186  20.975 -0.1676  0.1241  0.1032
 9558DDP     C157343  16.063  26.166   8.852 -0.0956  0.1836  0.0968
 9558DDP     P157344  15.941  26.540   8.802 -0.1802  0.0095  0.2459
 9558DDP     P257345  16.382  25.904   8.913  0.0239 -0.5542  0.0257
 9558DDP     C257346  16.802  26.017   8.765 -0.1377 -0.1551  0.2786
 9558DDP     C357347  15.724  26.969   8.629  0.0047 -0.0309 -0.2003
 9558DDP     C457348  15.666  25.988   8.707 -0.3978 -0.1913  0.1459
 9559DDP     C157349  11.533  23.832  25.761 -0.0937 -0.0531 -0.0548
 9559DDP     P157350  11.891  23.999  25.713  0.1531 -0.2826  0.2674
 9559DDP     P257351  11.422  24.036  25.409  0.0710 -0.2235  0.4093
 9559DDP     C257352  11.228  24.037  24.876  0.4217 -0.2829  0.0387
 9559DDP     C357353  12.293  23.935  25.478  0.2323  0.1538 -0.0379
 9559DDP     C457354  11.182  23.499  25.891  0.1365 -0.0888 -0.1352
 9560DDP     C157355   5.187  22.280  16.946  0.2373  0.2344  0.1117
 9560DDP     P157356   4.911  22.517  17.053  0.1653 -0.0889  0.0262
 9560DDP     P257357   5.004  22.300  16.609 -0.0838 -0.0638 -0.1794
 9560DDP     C257358   4.765  22.095  16.335  0.0107 -0.0321 -0.2317
 9560DDP     C357359   4.708  22.917  16.974 -0.3138  0.1555  0.1785
 9560DDP     C457360   5.503  21.933  17.079  0.0059 -0.0557 -0.1138
 9561DDP     C157361  13.434  11.455  27.818 -0.1377 -0.1586 -0.0551
 9561DDP     P157362  13.206  11.853  27.698  0.1441  0.2555 -0.1061
 9561DDP     P257363  13.307  11.041  27.923  0.0939 -0.0798 -0.0559
 9561DDP     C257364  13.463  10.653  27.948  0.0836 -0.3154  0.2083
 9561DDP     C357365  13.199  12.209  27.528 -0.0827 -0.3755  0.1278
 9561DDP     C457366  13.760  11.478  27.566  0.0764  0.0393  0.1248
 9562DDP     C157367   7.654  13.829  10.644  0.1984 -0.0215  0.0782
 9562DDP     P157368   7.395  14.060  10.932  0.0628  0.0350 -0.1528
 9562DDP     P257369   7.670  13.911  10.199  0.0716  0.1271  0.3140
 9562DDP     C257370   7.606  13.906   9.771  0.1392 -0.1712  0.0379
 9562DDP     C357371   7.120  14.278  10.904  0.2585 -0.1723 -0.3094
 9562DDP     C457372   8.040  13.728  10.890 -0.1708 -0.0259 -0.0187
 9563DDP     C157373   4.358  28.793  24.894  0.1052 -0.1226  0.0948
 9563DDP     P157374   3.923  28.556  24.971 -0.1351 -0.0018  0.0552
 9563DDP     P257375   4.359  29.078  24.573  0.1042  0.1177 -0.2333
 9563DDP     C257376   4.789  29.132  24.447 -0.0011  0.1810  0.0397
 9563DDP     C357377   3.607  28.786  24.697 -0.2446  0.0403  0.0984
 9563DDP     C457378   4.639  28.596  24.942 -0.0201 -0.2700 -0.1129
 9564DDP     C157379  26.121   1.931  14.228 -0.1567 -0.1111  0.0037
 9564DDP     P157380  26.365   1.582  14.389 -0.0907 -0.1332 -0.4969
 9564DDP     P257381  25.894   2.149  14.543  0.3086  0.4298 -0.0755
 9564DDP     C257382  25.498   1.991  14.841 -0.0376  0.2816  0.0202
 9564DDP     C357383  26.630   1.232  14.366  0.1480 -0.1287 -0.0436
 9564DDP     C457384  26.023   2.208  13.883  0.2127  0.1086 -0.0543
 9565DDP     C157385   0.965  18.896  15.591 -0.3233  0.1274 -0.0785
 9565DDP     P157386   1.282  19.239  15.504 -0.1126  0.1716  0.1493
 9565DDP     P257387   1.120  18.464  15.647  0.1471  0.1577 -0.1229
 9565DDP     C257388   0.995  18.062  15.849  0.3472 -0.1466 -0.2518
 9565DDP     C357389   1.680  19.583  15.688  0.2094  0.0354  0.0660
 9565DDP     C457390   0.738  19.276  15.754  0.4033  0.0571 -0.2348
 9566DDP     C157391  16.119  25.220  14.508 -0.0038 -0.0097 -0.0044
 9566DDP     P157392  15.810  25.134  14.761 -0.0190 -0.3662 -0.0615
 9566DDP     P257393  16.224  25.598  14.596 -0.1880 -0.1209 -0.1400
 9566DDP     C257394  16.104  25.768  14.314 -0.1134 -0.3791  0.0810
 9566DDP     C357395  15.463  25.006  15.027 -0.0226  0.1669  0.1135
 9566DDP     C457396  16.388  24.972  14.764 -0.0556  0.2363  0.0564
 9567DDP     C157397   5.527  24.782  20.716  0.1714 -0.1129  0.1093
 9567DDP     P157398   5.583  25.106  21.074  0.0421  0.3311 -0.3819
 9567DDP     P257399   5.746  24.371  20.688  0.1454  0.0882  0.0584
 9567DDP     C257400   5.624  24.168  20.232 -0.1534  0.2885  0.0080
 9567DDP     C357401   5.463  25.331  21.508 -0.2144  0.0461 -0.1088
 9567DDP     C457402   5.159  24.620  20.576  0.1467 -0.0289 -0.3173
 9568DDP     C157403  11.300  30.149  27.345 -0.3476  0.1602 -0.1113
 9568DDP     P157404  11.544  30.078  27.663 -0.1523  0.0846  0.6352
 9568DDP     P257405  11.656  30.175  27.102  0.1313  0.0202  0.0304
 9568DDP     C257406  11.897  29.868  26.730 -0.3407 -0.1877  0.1177
 9568DDP     C357407  11.592  29.904  28.041  0.1261 -0.4607 -0.1651
 9568DDP     C457408  10.901  29.952  27.378  0.0395 -0.1880 -0.3275
 9569DDP     C157409  18.127   2.160   5.901 -0.2187 -0.0755  0.0346
 9569DDP     P157410  18.414   2.235   5.640  0.0409 -0.2217  0.2965
 9569DDP     P257411  18.185   1.984   6.240 -0.1351  0.0463  0.2612
 9569DDP     C257412  18.272   1.713   6.577 -0.0752  0.4814  0.2178
 9569DDP     C357413  18.751   1.956   5.590 -0.0945  0.0726 -0.0302
 9569DDP     C457414  17.876   2.528   6.103 -0.1040  0.2036  0.0734
 9570DDP     C157415  26.765   8.869  26.191  0.0754  0.2323 -0.0406
 9570DDP     P157416  27.063   9.156  26.018 -0.2113  0.0658 -0.1191
 9570DDP     P257417  26.390   8.698  26.123  0.0247  0.0923  0.0654
 9570DDP     C257418  26.055   8.582  26.251  0.2829  0.1541  0.0394
 9570DDP     C357419  27.522   9.287  25.973 -0.1097  0.0201  0.0984
 9570DDP     C457420  26.864   8.497  26.516 -0.0273 -0.1847  0.2010
 9571DDP     C157421   9.677  26.605  21.954  0.2950  0.0964 -0.1698
 9571DDP     P157422   9.748  27.026  22.179 -0.0420  0.0589  0.2544
 9571DDP     P257423   9.971  26.340  22.030  0.3374  0.2320  0.0246
 9571DDP     C257424  10.332  26.041  21.969  0.0829 -0.2647 -0.1335
 9571DDP     C357425   9.698  27.469  22.427 -0.0588 -0.0688 -0.2847
 9571DDP     C457426   9.555  26.518  21.632  0.0396 -0.0309  0.4722
 9572DDP     C157427   6.036   9.827  23.646 -0.2895  0.0068 -0.0223
 9572DDP     P157428   6.101   9.898  23.154 -0.0513 -0.1803 -0.2720
 9572DDP     P257429   6.334  10.060  24.041  0.0255 -0.0031  0.6652
 9572DDP     C257430   6.547   9.909  24.402  0.2310  0.2544  0.1868
 9572DDP     C357431   6.061  10.277  23.004 -0.3393  0.3477 -0.1319
 9572DDP     C457432   5.767   9.555  23.790 -0.2616  0.2011 -0.1177
 9573DDP     C157433  25.558  15.719  12.435  0.0350 -0.1284  0.1671
 9573DDP     P157434  25.918  15.875  12.411  0.5636  0.1600 -0.0940
 9573DDP     P257435  25.299  15.752  12.795  0.1144  0.3043 -0.0753
 9573DDP     C257436  25.289  16.076  13.060 -0.2827 -0.2546 -0.2541
 9573DDP     C357437  26.199  16.070  12.344 -0.0358  0.1906  0.0979
 9573DDP     C457438  25.582  15.281  12.411  0.0933 -0.2175  0.2156
 9574DDP     C157439   0.711   7.005   5.615 -0.0303 -0.1074  0.0624
 9574DDP     P157440   0.832   6.845   5.208 -0.3218  0.2270 -0.2147
 9574DDP     P257441   0.396   6.718   5.846  0.1462 -0.3854 -0.0262
 9574DDP     C257442   0.227   6.244   5.725  0.2430 -0.0162 -0.1507
 9574DDP     C357443   0.929   7.002   4.718  0.1301 -0.2064 -0.1565
 9574DDP     C457444   0.721   7.520   5.600 -0.1531  0.1147  0.1656
 9575DDP     C157445   3.341  24.976  17.839  0.0013 -0.0067 -0.1969
 9575DDP     P157446   3.302  25.383  17.678 -0.0173 -0.0427  0.0974
 9575DDP     P257447   3.464  24.789  17.456 -0.1283 -0.0558  0.1402
 9575DDP     C257448   3.572  24.751  17.081 -0.3279 -0.3540 -0.2257
 9575DDP     C357449   3.430  25.818  17.459 -0.0589 -0.0040  0.0126
 9575DDP     C457450   3.439  24.795  18.272 -0.0202 -0.1377 -0.0629
 9576DDP     C157451   2.622  22.946   1.989 -0.2932 -0.3617 -0.4136
 9576DDP     P157452   2.793  22.686   2.305 -0.0064 -0.0720 -0.2432
 9576DDP     P257453   2.189  23.138   1.885  0.0036  0.1938 -0.2284
 9576DDP     C257454   1.765  23.037   1.737  0.2275 -0.1245 -0.0543
 9576DDP     C357455   2.911  22.331   2.558 -0.3632  0.0840  0.0469
 9576DDP     C457456   2.969  23.159   2.085 -0.5407 -0.4149 -0.0355
 9577DDP     C157457   0.547   9.915  28.079 -0.1088 -0.2976 -0.1412
 9577DDP     P157458   0.284   9.830  28.353  0.0080  0.0841  0.1439
 9577DDP     P257459   0.404   9.702  27.727 -0.2511 -0.0437  0.3002
 9577DDP     C257460   0.343   9.430  27.251 -0.0591 -0.1101 -0.2110
 9577DDP     C357461  30.198   9.657  28.560  0.2820  0.0611 -0.0142
 9577DDP     C457462   0.896  10.168  28.081  0.3707  0.0418 -0.2582
 9578DDP     C157463  24.555  22.356   3.941 -0.1999 -0.1638 -0.0071
 9578DDP     P157464  24.382  22.749   4.150 -0.0200 -0.0172  0.1810
 9578DDP     P257465  24.831  22.186   4.225  0.0291 -0.0664 -0.1859
 9578DDP     C257466  25.077  22.445   4.563  0.0792  0.0497 -0.0106
 9578DDP     C357467  24.513  23.107   4.403 -0.0079  0.1799 -0.0323
 9578DDP     C457468  24.247  22.124   3.649  0.1008  0.0954 -0.3037
 9579DDP     C157469  11.227  23.829  17.172 -0.1086 -0.0497  0.1564
 9579DDP     P157470  11.113  23.426  17.403  0.2582 -0.1270 -0.0989
 9579DDP     P257471  11.228  23.784  16.722 -0.0928 -0.1840 -0.0111
 9579DDP     C257472  11.228  23.691  16.223  0.4167 -0.0220 -0.2513
 9579DDP     C357473  11.101  23.179  17.851  0.1710 -0.0172  0.0192
 9579DDP     C457474  11.379  24.187  17.366  0.0850  0.0722 -0.0352
 9580DDP     C157475  14.134   1.924   7.441 -0.0102 -0.1013 -0.2205
 9580DDP     P157476  13.874   1.647   7.679  0.0280 -0.1390  0.2133
 9580DDP     P257477  14.096   1.829   6.998 -0.2000  0.1111  0.0774
 9580DDP     C257478  13.924   1.531   6.721  0.2207  0.0738  0.1577
 9580DDP     C357479  13.898   1.201   7.869 -0.0053  0.0471  0.3494
 9580DDP     C457480  14.204   2.282   7.575 -0.3717  0.1157 -0.1483
 9581DDP     C157481  17.337   2.518   3.574  0.0114 -0.4619  0.0000
 9581DDP     P157482  17.277   2.973   3.805 -0.2801 -0.1597  0.1004
 9581DDP     P257483  17.208   2.135   3.674 -0.0838 -0.0210  0.0855
 9581DDP     C257484  16.940   1.830   3.488  0.2669 -0.0247 -0.0163
 9581DDP     C357485  17.663   3.085   4.053 -0.1808 -0.0636 -0.0182
 9581DDP     C457486  17.434   2.548   3.164  0.0258  0.0955 -0.1064
 9582DDP     C157487  14.945   0.830  28.873  0.2884 -0.0944  0.1542
 9582DDP     P157488  14.929   1.254  28.702 -0.0208 -0.1641  0.2405
 9582DDP     P257489  15.124   0.505  28.685 -0.0569 -0.0519 -0.0896
 9582DDP     C257490  15.274   0.558  28.339 -0.0148 -0.1119  0.0856
 9582DDP     C357491  14.521   1.465  28.399 -0.2860 -0.2259 -0.1667
 9582DDP     C457492  14.588   0.805  29.239 -0.3240 -0.2363 -0.3485
 9583DDP     C157493  12.224  15.363  16.436  0.2785 -0.0022  0.3315
 9583DDP     P157494  11.838  15.644  16.318 -0.1063 -0.0957 -0.1312
 9583DDP     P257495  12.628  15.369  16.383 -0.1181  0.2953 -0.0922
 9583DDP     C257496  12.948  15.487  16.150 -0.2196  0.3710 -0.0409
 9583DDP     C357497  11.643  15.969  16.128  0.0419 -0.2308 -0.0725
 9583DDP     C457498  12.188  15.035  16.807  0.2466  0.0911 -0.2057
 9584DDP     C157499  22.826   3.714  18.183  0.0447 -0.2867 -0.1892
 9584DDP     P157500  22.586   3.318  18.022 -0.0135 -0.0640  0.2408
 9584DDP     P257501  22.949   3.515  18.557  0.0034  0.1714  0.2408
 9584DDP     C257502  23.266   3.539  18.784  0.1957 -0.2142  0.1628
 9584DDP     C357503  22.213   3.397  17.811  0.2647  0.2080 -0.2489
 9584DDP     C457504  22.704   4.048  18.222  0.0558 -0.1461  0.0381
 9585DDP     C157505  22.301  28.443  22.840 -0.4167  0.3180 -0.1098
 9585DDP     P157506  22.766  28.503  22.958 -0.2351  0.2183  0.1310
 9585DDP     P257507  22.104  28.815  22.558 -0.2271 -0.2111 -0.1135
 9585DDP     C257508  21.737  29.026  22.266 -0.1463 -0.4319 -0.2015
 9585DDP     C357509  23.156  28.316  22.895 -0.1266 -0.3765 -0.1596
 9585DDP     C457510  22.246  27.980  22.889 -0.0401 -0.0387  0.1435
 9586DDP     C157511  28.220  14.243  29.642  0.1299 -0.1470 -0.1502
 9586DDP     P157512  28.369  14.018  29.363  0.0260  0.2804 -0.0474
 9586DDP     P257513  28.508  14.510  29.894  0.1711 -0.1767  0.1256
 9586DDP     C257514  28.862  14.468  30.164 -0.1035  0.1724 -0.0595
 9586DDP     C357515  28.649  14.009  28.969 -0.0238 -0.2516  0.1622
 9586DDP     C457516  27.846  14.076  29.709 -0.0228  0.2687 -0.1862
 9587DDP     C157517   2.613  23.073   8.639 -0.1948  0.3098 -0.2726
 9587DDP     P157518   2.981  22.971   8.444  0.3329 -0.2283  0.2366
 9587DDP     P257519   2.188  23.212   8.526  0.0610  0.3459  0.0056
 9587DDP     C257520   1.768  23.317   8.426 -0.2888  0.0009 -0.1848
 9587DDP     C357521   3.333  23.043   8.253 -0.4285 -0.2962  0.3568
 9587DDP     C457522   2.745  22.950   9.044  0.1568  0.2355  0.0177
 9588DDP     C157523  23.436  13.625  10.952 -0.0226 -0.1263 -0.5376
 9588DDP     P157524  23.006  13.654  10.643 -0.2326  0.3756  0.0730
 9588DDP     P257525  23.480  13.730  11.456 -0.0286 -0.0947  0.2247
 9588DDP     C257526  23.877  14.043  11.728  0.1202  0.0823 -0.2633
 9588DDP     C357527  22.691  13.890  10.786  0.3435  0.0657  0.0742
 9588DDP     C457528  23.792  13.622  10.648 -0.0427  0.1431  0.0306
 9589DDP     C157529   7.920  23.340   5.316  0.2414  0.0206  0.2379
 9589DDP     P157530   7.673  23.636   5.103  0.3230 -0.1019  0.0583
 9589DDP     P257531   8.011  22.869   5.273 -0.2408  0.0409  0.0919
 9589DDP     C257532   7.897  22.519   4.935  0.1161 -0.1358  0.2658
 9589DDP     C357533   7.176  23.622   5.146  0.0002 -0.0335  0.1169
 9589DDP     C457534   8.069  23.463   5.753 -0.0774 -0.4629 -0.0532
 9590DDP     C157535  17.794  12.665  20.330  0.2828 -0.5457 -0.1180
 9590DDP     P157536  17.941  12.785  20.015  0.2047  0.1171  0.4395
 9590DDP     P257537  18.102  12.523  20.538  0.2276 -0.1076 -0.1365
 9590DDP     C257538  18.489  12.528  20.488  0.2179  0.2885 -0.0419
 9590DDP     C357539  18.115  12.613  19.640  0.1175 -0.1996 -0.0204
 9590DDP     C457540  17.340  12.562  20.453  0.2519  0.2714 -0.0282
 9591DDP     C157541  27.877   9.993  27.086  0.1477 -0.1477 -0.0494
 9591DDP     P157542  28.012   9.492  27.011  0.1342  0.2030  0.3145
 9591DDP     P257543  27.658  10.196  26.810 -0.2860 -0.0181 -0.1559
 9591DDP     C257544  27.623  10.122  26.412  0.1544  0.1352  0.0018
 9591DDP     C357545  28.204   9.001  26.857  0.4434 -0.0706  0.1811
 9591DDP     C457546  28.090  10.187  27.495  0.0949 -0.1675 -0.0273
 9592DDP     C157547  19.803  10.022  10.655  0.1949  0.1413 -0.2521
 9592DDP     P157548  19.501   9.693  10.482  0.1871 -0.0322 -0.1865
 9592DDP     P257549  19.899  10.143  10.196  0.2591  0.0293  0.3827
 9592DDP     C257550  19.877  10.518   9.847  0.1638 -0.0978 -0.1398
 9592DDP     C357551  19.323   9.242  10.552 -0.2866 -0.0945 -0.0043
 9592DDP     C457552  19.740  10.346  10.923  0.3008  0.0977  0.2745
 9593DDP     C157553  28.787  20.746  28.376  0.0285  0.0298 -0.2827
 9593DDP     P157554  28.909  20.372  28.632  0.2126 -0.0025 -0.1228
 9593DDP     P257555  28.751  21.174  28.558 -0.2011 -0.0756  0.0587
 9593DDP     C257556  28.577  21.504  28.659 -0.0929  0.0795 -0.1137
 9593DDP     C357557  28.936  20.096  28.937 -0.2924 -0.0541  0.1845
 9593DDP     C457558  28.758  20.721  27.992 -0.0473  0.0472 -0.0414
 9594DDP     C157559   0.860   7.172  18.660  0.2356  0.0365  0.5043
 9594DDP     P157560   1.226   7.128  18.501  0.0861  0.3182 -0.0945
 9594DDP     P257561   0.734   6.807  18.718  0.0314  0.2902 -0.1987
 9594DDP     C257562   0.630   6.360  19.070  0.2444  0.0362 -0.2124
 9594DDP     C357563   1.607   6.897  18.477 -0.0836  0.0751 -0.0133
 9594DDP     C457564   0.748   7.646  18.645  0.0435  0.0767  0.1744
 9595DDP     C157565  25.039   3.687  10.354 -0.2491 -0.0512 -0.3702
 9595DDP     P157566  25.265   3.479   9.910 -0.0933  0.1199  0.0099
 9595DDP     P257567  25.104   3.375  10.747  0.1102 -0.0461  0.1078
 9595DDP     C257568  25.150   2.907  10.921 -0.0980 -0.4050  0.0700
 9595DDP     C357569  25.492   3.675   9.640  0.0609  0.2123  0.0705
 9595DDP     C457570  24.793   4.051  10.467  0.1167  0.1313 -0.1960
 9596DDP     C157571  15.350  15.061  23.661  0.2421  0.1365  0.2086
 9596DDP     P157572  15.460  15.484  23.750 -0.1656  0.2002 -0.0693
 9596DDP     P257573  15.517  14.750  24.023  0.0377 -0.0691 -0.0805
 9596DDP     C257574  15.591  14.465  24.343  0.4534 -0.0464 -0.4028
 9596DDP     C357575  15.969  15.639  23.725 -0.2095  0.1747  0.0490
 9596DDP     C457576  15.067  14.884  23.297  0.0928  0.0721  0.0177
 9597DDP     C157577   0.796   5.102  27.383 -0.0437 -0.0930 -0.0019
 9597DDP     P157578   0.280   5.243  27.289  0.2177 -0.1184  0.2444
 9597DDP     P257579   0.885   4.835  27.677  0.2544 -0.2364  0.2314
 9597DDP     C257580   1.306   4.671  27.845  0.0084 -0.2900  0.1158
 9597DDP     C357581  30.242   5.549  27.472  0.0532  0.1644  0.1247
 9597DDP     C457582   1.121   5.289  26.971  0.0213 -0.0825  0.1330
 9598DDP     C157583  18.299   4.534  18.763  0.2457  0.4988 -0.2016
 9598DDP     P157584  18.509   4.048  18.944 -0.3613  0.0189 -0.1835
 9598DDP     P257585  18.437   4.708  18.424  0.0196 -0.0361 -0.2719
 9598DDP     C257586  18.301   4.609  18.074 -0.1573  0.0703  0.2608
 9598DDP     C357587  18.667   3.917  19.309 -0.0871  0.0083 -0.1485
 9598DDP     C457588  18.210   4.846  19.147 -0.0660 -0.0064 -0.1058
 9599DDP     C157589   4.441  22.374  15.871  0.3639 -0.1032  0.1535
 9599DDP     P157590   4.417  21.966  15.917 -0.1200  0.2331 -0.0468
 9599DDP     P257591   4.630  22.624  16.142 -0.1471 -0.2284  0.0103
 9599DDP     C257592   4.791  22.836  16.399 -0.0177  0.3567 -0.2027
 9599DDP     C357593   4.636  21.663  16.073  0.0710 -0.1559 -0.1446
 9599DDP     C457594   3.997  22.407  15.718 -0.1556 -0.0261  0.2893
 9600DDP     C157595  21.637   6.734  19.129 -0.2737 -0.0483 -0.1536
 9600DDP     P157596  21.490   6.380  19.165 -0.0845  0.1685 -0.3240
 9600DDP     P257597  21.549   7.006  19.486 -0.0050 -0.0154  0.4275
 9600DDP     C257598  21.599   7.495  19.711  0.1209  0.0953  0.2733
 9600DDP     C357599  21.305   6.098  18.908 -0.0539 -0.0716 -0.0112
 9600DDP     C457600  21.972   6.839  18.792  0.1381 -0.1119 -0.0196
 9601DDP     C157601   6.367  17.420  27.899  0.3608 -0.0163 -0.0802
 9601DDP     P157602   6.129  17.611  27.689  0.1860  0.5807  0.1574
 9601DDP     P257603   6.358  16.922  27.859  0.0984  0.2855 -0.1829
 9601DDP     C257604   6.256  16.616  27.493 -0.1580  0.2345  0.2772
 9601DDP     C357605   5.749  17.930  27.698 -0.0386 -0.1876 -0.0396
 9601DDP     C457606   6.601  17.647  28.236  0.0166 -0.1351 -0.2295
 9602DDP     C157607  24.623  27.149   1.167 -0.0297  0.1471  0.0055
 9602DDP     P157608  24.720  27.175   1.440  0.0277 -0.1166 -0.1229
 9602DDP     P257609  24.405  27.361   0.925 -0.0889 -0.0981 -0.2154
 9602DDP     C257610  24.000  27.369   0.818  0.1594 -0.0391 -0.1779
 9602DDP     C357611  24.890  27.448   1.679  0.0172  0.2567 -0.0606
 9602DDP     C457612  24.516  26.654   1.203  0.0115  0.3717  0.2265
 9603DDP     C157613  22.009  25.605  23.374 -0.0636 -0.2156 -0.3342
 9603DDP     P157614  21.873  25.892  23.679 -0.1903 -0.0815  0.0063
 9603DDP     P257615  22.173  25.163  23.303 -0.0992  0.0722  0.1957
 9603DDP     C257616  22.081  24.818  22.944 -0.0208 -0.1930  0.3303
 9603DDP     C357617  21.590  25.895  24.016 -0.1325 -0.0719 -0.0306
 9603DDP     C457618  22.236  25.737  22.991 -0.0922 -0.0341  0.1134
 9604DDP     C157619  12.619  10.855  16.620 -0.2018  0.1266 -0.0594
 9604DDP     P157620  12.644  10.410  16.493  0.0510 -0.3100  0.2030
 9604DDP     P257621  12.809  11.194  16.496 -0.0091  0.1013 -0.2478
 9604DDP     C257622  13.043  11.291  16.206  0.2448  0.1679 -0.1124
 9604DDP     C357623  12.781  10.310  16.089 -0.2767  0.0344 -0.1000
 9604DDP     C457624  12.436  10.859  17.005  0.2120  0.0254 -0.2386
 9605DDP     C157625   8.305  18.486   3.874  0.3582 -0.2885  0.1052
 9605DDP     P157626   7.921  18.235   4.073 -0.0176  0.1718  0.0308
 9605DDP     P257627   8.001  18.783   3.453 -0.1201 -0.0130 -0.1746
 9605DDP     C257628   7.637  19.024   3.320 -0.0457  0.2524 -0.0205
 9605DDP     C357629   7.843  17.847   4.191 -0.1146 -0.1658 -0.1492
 9605DDP     C457630   8.726  18.226   3.906 -0.0378 -0.1101  0.0552
 9606DDP     C157631   2.434   2.467   1.323 -0.3498  0.0757  0.2622
 9606DDP     P157632   2.120   2.559   1.608  0.3052 -0.0175  0.1876
 9606DDP     P257633   2.310   2.205   0.942  0.2784  0.0138  0.1284
 9606DDP     C257634   2.229   1.880   0.550 -0.3537  0.2757  0.0282
 9606DDP     C357635   1.853   2.322   1.720 -0.0403 -0.1927  0.0033
 9606DDP     C457636   2.888   2.595   1.355  0.2119 -0.2169 -0.0552
 9607DDP     C157637  25.429  21.982  12.927  0.0467  0.1577  0.2205
 9607DDP     P157638  25.765  21.677  12.683 -0.1172 -0.1722 -0.0651
 9607DDP     P257639  25.368  22.421  12.866  0.0579  0.0530 -0.0844
 9607DDP     C257640  24.976  22.710  12.881  0.0001  0.0575 -0.1049
 9607DDP     C357641  26.145  21.674  12.481 -0.0841  0.1064 -0.0617
 9607DDP     C457642  25.141  21.876  13.218  0.0285 -0.0188  0.0162
 9608DDP     C157643   9.598   7.683  22.294 -0.1556  0.2065 -0.1939
 9608DDP     P157644   9.629   7.876  21.977 -0.3156 -0.1494 -0.0129
 9608DDP     P257645   9.704   7.871  22.683 -0.0771 -0.0962  0.2138
 9608DDP     C257646   9.590   8.119  22.913  0.0213  0.1408 -0.0205
 9608DDP     C357647   9.690   7.920  21.545 -0.1878 -0.2566  0.0426
 9608DDP     C457648   9.717   7.287  22.188 -0.0016 -0.0221  0.0828
 9609DDP     C157649   9.900  24.086   3.837  0.0932  0.0114 -0.1197
 9609DDP     P157650   9.436  24.065   3.575 -0.3525 -0.2815  0.0616
 9609DDP     P257651  10.151  24.437   3.791 -0.0515  0.1652 -0.0400
 9609DDP     C257652  10.278  24.638   3.413  0.0384 -0.1668 -0.2139
 9609DDP     C357653   9.092  24.171   3.217 -0.0335  0.0774  0.0874
 9609DDP     C457654   9.945  23.794   4.089 -0.0384 -0.0103 -0.2208
 9610DDP     C157655   5.846  18.363  15.451 -0.1425 -0.3702 -0.3834
 9610DDP     P157656   6.191  18.233  15.207 -0.4426  0.0173  0.0677
 9610DDP     P257657   5.583  18.151  15.628  0.0678 -0.1267  0.0085
 9610DDP     C257658   5.563  17.917  16.045 -0.1326 -0.0622  0.0122
 9610DDP     C357659   6.353  17.836  15.070  0.1326 -0.1295 -0.1434
 9610DDP     C457660   5.899  18.740  15.606 -0.0608 -0.2316 -0.0520
 9611DDP     C157661  11.427  27.107   6.676 -0.2441 -0.0966 -0.0413
 9611DDP     P157662  11.238  27.541   6.621  0.2382 -0.0427 -0.1309
 9611DDP     P257663  11.307  27.001   7.108 -0.1383 -0.1389 -0.2459
 9611DDP     C257664  10.989  27.304   7.004  0.2264 -0.0318  0.1746
 9611DDP     C357665  11.013  28.032   6.498 -0.0525 -0.0689  0.0092
 9611DDP     C457666  11.852  27.055   6.405 -0.0518 -0.0031  0.0502
 9612DDP     C157667  13.984  17.231  16.257  0.2607  0.1615 -0.1023
 9612DDP     P157668  13.743  17.601  16.333 -0.1124  0.1763  0.0658
 9612DDP     P257669  14.009  16.960  15.880 -0.1287 -0.0808  0.0209
 9612DDP     C257670  13.642  16.654  15.769  0.0334 -0.1740 -0.1087
 9612DDP     C357671  13.396  17.625  16.224  0.3505 -0.1313  0.2177
 9612DDP     C457672  14.350  17.354  16.589  0.2417 -0.1139  0.1461
 9613DDP     C157673  18.934   4.911   0.473  0.0579  0.1896 -0.3056
 9613DDP     P157674  19.359   5.134   0.472 -0.1010  0.2314  0.1075
 9613DDP     P257675  18.714   4.773   0.196  0.0291 -0.0689  0.2562
 9613DDP     C257676  18.311   4.844   0.047 -0.0872 -0.0968 -0.1454
 9613DDP     C357677  19.682   5.466   0.515  0.0814 -0.5238  0.1175
 9613DDP     C457678  18.772   5.064   0.829  0.1523  0.2168 -0.3249
 9614DDP     C157679  12.505  15.268   6.361 -0.0830 -0.1517 -0.2280
 9614DDP     P157680  12.678  14.837   6.296 -0.4285 -0.3140 -0.0550
 9614DDP     P257681  12.163  15.102   6.274 -0.0622  0.4145  0.1170
 9614DDP     C257682  11.996  14.741   6.141 -0.3972  0.1841 -0.2496
 9614DDP     C357683  12.801  14.376   6.285  0.0854  0.0196  0.2320
 9614DDP     C457684  12.645  15.638   6.240  0.2525  0.0062  0.3277
 9615DDP     C157685  19.502  28.992  28.445  0.0147 -0.2950 -0.0689
 9615DDP     P157686  19.832  29.059  28.122  0.1204 -0.1495 -0.0248
 9615DDP     P257687  19.322  29.326  28.163 -0.2211 -0.1027 -0.0716
 9615DDP     C257688  18.943  29.494  28.019  0.2836 -0.0327  0.2769
 9615DDP     C357689  19.964  28.888  27.732 -0.0496 -0.2071 -0.0668
 9615DDP     C457690  19.313  28.834  28.760  0.0028 -0.0008  0.0644
 9616DDP     C157691   5.410  24.412  15.446  0.3046  0.0829 -0.1075
 9616DDP     P157692   5.788  24.432  15.274 -0.0238  0.0144  0.1681
 9616DDP     P257693   5.013  24.178  15.192 -0.2203 -0.2118  0.1454
 9616DDP     C257694   4.657  23.932  15.161 -0.0014 -0.1919  0.0268
 9616DDP     C357695   5.890  24.025  15.050  0.1887 -0.0932  0.1041
 9616DDP     C457696   5.310  24.838  15.713 -0.0512 -0.1115  0.0078
 9617DDP     C157697   4.692   5.763  29.750  0.0466  0.0396  0.4038
 9617DDP     P157698   4.586   6.078  29.444  0.0244  0.1608  0.1489
 9617DDP     P257699   4.302   5.658  30.066  0.0605  0.3779  0.2644
 9617DDP     C257700   4.231   5.665   0.142 -0.0470 -0.0750  0.0483
 9617DDP     C357701   4.200   6.260  29.295  0.0730  0.0164 -0.0083
 9617DDP     C457702   5.019   5.623  29.867 -0.1151 -0.1487  0.1430
 9618DDP     C157703  14.231  22.382  26.124 -0.0602  0.1313 -0.1816
 9618DDP     P157704  14.333  22.734  25.845  0.0392  0.0250 -0.2472
 9618DDP     P257705  14.083  21.967  26.053 -0.1443 -0.2453  0.1858
 9618DDP     C257706  13.873  21.645  26.014  0.0461  0.0563  0.1372
 9618DDP     C357707  14.544  23.042  25.716 -0.0398  0.1404  0.1197
 9618DDP     C457708  14.261  22.552  26.555 -0.1253  0.0208 -0.1631
 9619DDP     C157709  26.016   2.072   7.872  0.0651 -0.3223  0.2206
 9619DDP     P157710  26.451   1.946   8.030 -0.0718 -0.1005  0.1094
 9619DDP     P257711  25.809   2.553   7.877 -0.0489  0.1206 -0.0659
 9619DDP     C257712  25.956   2.934   8.110 -0.2285  0.0351 -0.3008
 9619DDP     C357713  26.789   1.845   8.275  0.2171  0.1802 -0.0740
 9619DDP     C457714  25.691   1.772   7.680  0.1096 -0.0389 -0.0950
 9620DDP     C157715  10.386   5.368   0.165  0.1747  0.1220 -0.0155
 9620DDP     P157716  10.218   5.218   0.549  0.1692 -0.1246  0.0811
 9620DDP     P257717  10.762   5.430   0.206  0.1460  0.1694 -0.0012
 9620DDP     C257718  11.218   5.451  30.214  0.0063  0.1786 -0.1376
 9620DDP     C357719  10.142   4.885   0.861  0.1279 -0.2550 -0.0429
 9620DDP     C457720  10.239   5.543  30.109 -0.1559  0.0205 -0.0547
 9621DDP     C157721   6.727   1.307  14.873 -0.0558 -0.0198 -0.0417
 9621DDP     P157722   6.831   1.236  14.428 -0.3016  0.0763  0.2538
 9621DDP     P257723   7.111   1.343  15.160  0.1455 -0.1096  0.0346
 9621DDP     C257724   7.484   1.164  15.346  0.2814  0.0238 -0.0173
 9621DDP     C357725   6.594   1.004  14.165 -0.0118 -0.1625  0.0083
 9621DDP     C457726   6.358   1.470  15.008 -0.0289  0.1634  0.0722
 9622DDP     C157727  30.028   2.709  29.494 -0.1114 -0.0524 -0.2837
 9622DDP     P157728   0.024   2.426  29.708 -0.1236  0.0531  0.0965
 9622DDP     P257729  30.186   3.161  29.368  0.0008  0.0514  0.2717
 9622DDP     C257730  30.190   3.580  29.525  0.0235  0.1504 -0.2033
 9622DDP     C357731   0.181   2.430  30.240 -0.1450  0.0084 -0.0869
 9622DDP     C457732  29.535   2.625  29.486  0.0542  0.0785  0.2226
 9623DDP     C157733  16.150   3.992   3.516  0.2009 -0.0753 -0.0738
 9623DDP     P157734  16.058   4.405   3.675 -0.2293  0.1694 -0.2657
 9623DDP     P257735  16.467   3.659   3.735  0.4157 -0.2279 -0.1463
 9623DDP     C257736  16.701   3.497   4.045 -0.1292 -0.0136  0.0018
 9623DDP     C357737  16.014   4.910   3.507 -0.0617  0.0148  0.0748
 9623DDP     C457738  15.804   3.850   3.290  0.0197  0.1422 -0.2271
 9624DDP     C157739  28.411   4.157  21.113  0.1879  0.0911  0.1299
 9624DDP     P157740  28.310   4.114  21.491 -0.2302  0.0077 -0.0235
 9624DDP     P257741  28.564   3.875  20.827 -0.0713 -0.0832  0.0179
 9624DDP     C257742  28.991   3.704  20.831 -0.1515 -0.0257 -0.3607
 9624DDP     C357743  28.267   4.420  21.848  0.0495 -0.0781 -0.1118
 9624DDP     C457744  28.253   4.496  20.923 -0.2016  0.0189 -0.1404
 9625DDP     C157745  12.638  13.882  18.019  0.1607  0.0768 -0.1208
 9625DDP     P157746  12.384  13.492  18.107 -0.0791  0.2838  0.1736
 9625DDP     P257747  12.530  14.025  17.569  0.0035 -0.1074  0.1619
 9625DDP     C257748  12.422  14.003  17.045 -0.0405 -0.0829  0.1543
 9625DDP     C357749  12.143  13.095  17.910 -0.0010 -0.1828 -0.3051
 9625DDP     C457750  12.859  13.928  18.317  0.0909  0.2747 -0.1264
 9626DDP     C157751   6.553   0.111  11.191 -0.1173  0.1999 -0.1108
 9626DDP     P157752   6.230   0.060  11.422 -0.0382 -0.1222 -0.1441
 9626DDP     P257753   6.486   0.193  10.829 -0.1414 -0.2450 -0.3248
 9626DDP     C257754   6.329   0.392  10.479  0.2195 -0.4821  0.2936
 9626DDP     C357755   5.940  30.107  11.605 -0.3776 -0.2562 -0.0099
 9626DDP     C457756   6.720   0.417  11.475  0.1871 -0.1217  0.0428
 9627DDP     C157757  14.327   0.846   4.139  0.0529 -0.1177 -0.0959
 9627DDP     P157758  14.653   0.737   4.475 -0.0250 -0.2518 -0.0583
 9627DDP     P257759  14.261   1.266   4.217  0.0809  0.0126  0.0684
 9627DDP     C257760  13.908   1.488   4.447  0.3440  0.0304 -0.3741
 9627DDP     C357761  15.015   0.566   4.567 -0.1599 -0.0808 -0.1415
 9627DDP     C457762  14.093   0.618   3.911  0.2424 -0.0516 -0.0170
 9628DDP     C157763  12.909  15.128   5.177 -0.0221  0.0668 -0.2645
 9628DDP     P157764  12.996  15.612   5.175 -0.0192 -0.1184 -0.2666
 9628DDP     P257765  13.016  14.936   4.790  0.0240 -0.3876 -0.0457
 9628DDP     C257766  13.117  15.116   4.367  0.1661 -0.0469 -0.2596
 9628DDP     C357767  13.140  15.973   5.021 -0.0684  0.2188 -0.0605
 9628DDP     C457768  12.718  14.891   5.418 -0.1279  0.2222  0.2968
 9629DDP     C157769   1.647  23.304  29.975  0.1204  0.2582 -0.1585
 9629DDP     P157770   1.208  23.373  29.974 -0.1348  0.2097 -0.3678
 9629DDP     P257771   1.940  23.383  30.349  0.3040 -0.0459  0.2484
 9629DDP     C257772   2.146  22.957   0.272 -0.3778 -0.0120 -0.0808
 9629DDP     C357773   1.000  23.614  29.761 -0.0077 -0.1323  0.3293
 9629DDP     C457774   1.835  22.998  29.632  0.2049 -0.0721 -0.1900
 9630DDP     C157775   6.688  18.441   7.096  0.0157 -0.0042 -0.1383
 9630DDP     P157776   6.613  18.613   7.410  0.1675 -0.2541  0.0218
 9630DDP     P257777   6.746  18.815   6.934  0.1678  0.0611 -0.1349
 9630DDP     C257778   6.905  18.997   6.608 -0.3018  0.0905  0.1074
 9630DDP     C357779   6.510  18.513   7.891 -0.0119 -0.0589  0.1631
 9630DDP     C457780   7.018  18.153   6.939 -0.1417 -0.1770 -0.1665
 9631DDP     C157781  11.104   5.337  26.302  0.0092  0.1340  0.0573
 9631DDP     P157782  11.078   5.678  26.157  0.1777  0.4524  0.0028
 9631DDP     P257783  11.007   4.862  26.201  0.1143  0.0505  0.2829
 9631DDP     C257784  10.683   4.494  26.152 -0.1473 -0.0906  0.0979
 9631DDP     C357785  10.735   6.037  26.359 -0.3465 -0.1277 -0.1481
 9631DDP     C457786  11.239   5.302  26.776 -0.0271 -0.0253  0.1166
 9632DDP     C157787  26.170   9.300   4.481  0.0315  0.1512  0.1481
 9632DDP     P157788  26.404   9.569   4.646 -0.4498 -0.3922 -0.2150
 9632DDP     P257789  26.399   8.929   4.586 -0.1005 -0.3251 -0.2399
 9632DDP     C257790  26.746   8.765   4.720  0.1746 -0.2480 -0.3426
 9632DDP     C357791  26.715   9.704   4.925  0.0911 -0.2837 -0.0830
 9632DDP     C457792  25.981   9.477   4.054  0.0625  0.1226  0.0728
 9633DDP     C157793   2.010  18.915   9.089  0.0355  0.2209 -0.4903
 9633DDP     P157794   1.927  19.316   9.266  0.0242 -0.0333 -0.1838
 9633DDP     P257795   2.449  18.951   9.179  0.2331  0.1273  0.3522
 9633DDP     C257796   2.859  19.228   9.180  0.1372  0.1735 -0.0968
 9633DDP     C357797   1.442  19.323   9.404 -0.0262  0.2265  0.0949
 9633DDP     C457798   1.735  18.552   8.990  0.4017  0.1424  0.1225
 9634DDP     C157799  20.469   9.696   0.344 -0.5179  0.1223 -0.0267
 9634DDP     P157800  20.139   9.537   0.192 -0.1178  0.2843  0.0699
 9634DDP     P257801  20.786   9.480   0.389  0.0506 -0.0210 -0.2833
 9634DDP     C257802  21.157   9.340   0.518 -0.2411 -0.4076 -0.1931
 9634DDP     C357803  19.792   9.229   0.306  0.2371  0.2188  0.2087
 9634DDP     C457804  20.713  10.106   0.338  0.0943  0.1863 -0.1820
 9635DDP     C157805  19.645   9.208  11.137 -0.1815  0.0321  0.0242
 9635DDP     P157806  19.389   9.447  10.990 -0.4269 -0.0809  0.0036
 9635DDP     P257807  19.644   9.177  11.513  0.2856 -0.0759  0.1767
 9635DDP     C257808  19.461   9.383  11.812 -0.2123  0.3337 -0.1539
 9635DDP     C357809  19.118   9.715  10.974  0.1514  0.2628  0.1395
 9635DDP     C457810  19.827   8.804  11.007 -0.0939 -0.0389 -0.1935
 9636DDP     C157811  20.976  11.471  28.735  0.1200 -0.2164  0.0589
 9636DDP     P157812  20.775  10.963  28.865 -0.2978  0.1227 -0.1524
 9636DDP     P257813  20.906  11.759  29.045  0.4312  0.3933  0.1132
 9636DDP     C257814  20.553  11.917  29.339 -0.0109 -0.1580 -0.0409
 9636DDP     C357815  20.457  10.565  28.859 -0.1389  0.1314  0.1466
 9636DDP     C457816  21.262  11.583  28.482  0.1261  0.2533 -0.1366
 9637DDP     C157817   0.823  21.171  10.121  0.1660 -0.0393  0.2799
 9637DDP     P157818   0.491  20.854  10.109 -0.0243  0.1552 -0.3381
 9637DDP     P257819   1.055  21.071   9.860  0.4000  0.0820  0.2512
 9637DDP     C257820   1.360  21.234   9.649  0.1219 -0.0523 -0.1695
 9637DDP     C357821   0.278  20.608  10.354 -0.1642  0.0817  0.0143
 9637DDP     C457822   0.667  21.491  10.261 -0.1145  0.0913  0.1335
 9638DDP     C157823  20.592  21.879  23.251  0.2353  0.1065  0.0317
 9638DDP     P157824  20.690  21.840  22.753  0.2144  0.1069 -0.0679
 9638DDP     P257825  20.237  21.785  23.552  0.5912 -0.3735  0.2573
 9638DDP     C257826  20.291  21.969  23.993 -0.1503  0.0697 -0.0055
 9638DDP     C357827  20.954  21.778  22.459 -0.0049  0.0148 -0.0662
 9638DDP     C457828  20.953  21.770  23.477 -0.1679 -0.2370 -0.1229
 9639DDP     C157829   3.439   6.453  10.873 -0.1818 -0.2219 -0.1697
 9639DDP     P157830   3.376   6.199  10.536 -0.1111  0.1267  0.0086
 9639DDP     P257831   3.738   6.382  11.253 -0.0717  0.0962 -0.0185
 9639DDP     C257832   4.051   6.061  11.462  0.2631  0.0109  0.2050
 9639DDP     C357833   3.149   6.119  10.050 -0.0028  0.3664 -0.4013
 9639DDP     C457834   3.047   6.763  10.900  0.0425  0.0976  0.1709
 9640DDP     C157835  10.015  26.966  17.347  0.1542 -0.2365 -0.1398
 9640DDP     P157836   9.698  26.792  17.314  0.0450 -0.0894 -0.4607
 9640DDP     P257837   9.840  27.362  17.300  0.2558 -0.1843 -0.0226
 9640DDP     C257838   9.615  27.673  17.678  0.0767 -0.0188  0.2704
 9640DDP     C357839   9.312  26.775  17.136 -0.0792  0.0942 -0.0327
 9640DDP     C457840  10.396  27.018  17.479 -0.0823 -0.0332 -0.0439
 9641DDP     C157841  20.239   0.395   2.990 -0.3591 -0.0379  0.0264
 9641DDP     P157842  20.136   0.203   2.578  0.3760 -0.0656 -0.1125
 9641DDP     P257843  20.502   0.244   3.349 -0.0645  0.0303  0.1743
 9641DDP     C257844  20.639  30.315   3.617  0.3268  0.1813 -0.4395
 9641DDP     C357845  19.791  -0.011   2.628 -0.1316 -0.1725 -0.0587
 9641DDP     C457846  20.095   0.795   3.129 -0.1285  0.3907 -0.2141
 9642DDP     C157847  23.710  11.405   3.833  0.0651  0.3735  0.2576
 9642DDP     P157848  23.425  10.995   3.957 -0.4942 -0.3635 -0.2469
 9642DDP     P257849  24.004  11.171   3.609  0.1580  0.0870 -0.0387
 9642DDP     C257850  24.545  11.192   3.745  0.3436  0.3513  0.1320
 9642DDP     C357851  23.414  10.574   3.814  0.1851  0.1910 -0.1434
 9642DDP     C457852  23.803  11.832   4.026  0.3616 -0.1006  0.0763
 9643DDP     C157853   5.984  11.238  10.595 -0.1055  0.0131  0.0336
 9643DDP     P157854   6.086  10.952  10.312  0.1272  0.2527  0.0068
 9643DDP     P257855   5.752  11.540  10.734  0.0488 -0.1151  0.1996
 9643DDP     C257856   5.532  11.903  10.585  0.0250 -0.0439 -0.0520
 9643DDP     C357857   6.128  10.612  10.157 -0.1931  0.0591  0.1125
 9643DDP     C457858   5.986  10.902  10.908  0.0290  0.1028  0.1518
 9644DDP     C157859   5.630  12.494  14.551 -0.2864  0.0994  0.0545
 9644DDP     P157860   5.309  12.754  14.456 -0.1443 -0.0732 -0.1505
 9644DDP     P257861   5.617  12.080  14.704  0.2377 -0.0090  0.1962
 9644DDP     C257862   5.563  11.585  14.608  0.0815 -0.0120  0.3320
 9644DDP     C357863   4.957  12.958  14.567 -0.1575 -0.2431  0.0389
 9644DDP     C457864   5.914  12.671  14.678 -0.0297  0.1502  0.0330
 9645DDP     C157865   0.509  28.224  21.284  0.0075 -0.0307  0.0047
 9645DDP     P157866   0.257  27.991  21.096 -0.0643  0.1994 -0.1659
 9645DDP     P257867   0.388  28.679  21.412 -0.1804  0.0115  0.1480
 9645DDP     C257868   0.360  29.162  21.532  0.1219  0.2297 -0.1721
 9645DDP     C357869   0.036  27.622  21.031 -0.3121 -0.5558  0.0387
 9645DDP     C457870   0.940  28.117  21.434  0.2364  0.0316 -0.1015
 9646DDP     C157871  22.118  18.436  16.186  0.0986  0.1090 -0.0761
 9646DDP     P157872  21.956  17.999  16.390  0.1492 -0.1389 -0.2974
 9646DDP     P257873  22.540  18.534  16.012 -0.1147  0.4462 -0.1955
 9646DDP     C257874  22.986  18.680  16.366  0.3550  0.1993 -0.1298
 9646DDP     C357875  22.204  17.623  16.133 -0.1804  0.1849 -0.0199
 9646DDP     C457876  21.890  18.714  16.027  0.0316  0.1190 -0.0037
 9647DDP     C157877  29.077   6.794  11.121  0.1331 -0.0333  0.1353
 9647DDP     P157878  29.102   7.135  11.111 -0.0227 -0.1056  0.1264
 9647DDP     P257879  29.438   6.523  11.056 -0.2808 -0.1342 -0.1493
 9647DDP     C257880  29.678   6.271  10.681 -0.1892 -0.0460 -0.0237
 9647DDP     C357881  29.013   7.361  11.404  0.3047 -0.0284  0.3236
 9647DDP     C457882  28.732   6.558  10.977 -0.2324  0.1570 -0.1360
 9648DDP     C157883  21.246  29.200  25.482  0.1522  0.0381 -0.0976
 9648DDP     P157884  20.886  29.125  25.528 -0.1936 -0.1384 -0.2770
 9648DDP     P257885  21.523  28.875  25.333 -0.0090  0.2981  0.1111
 9648DDP     C257886  21.809  28.584  25.095  0.3995 -0.2673  0.0342
 9648DDP     C357887  20.545  29.425  25.688 -0.2708  0.0154 -0.1118
 9648DDP     C457888  21.435  29.566  25.741  0.0096 -0.1635 -0.2741
 9649DDP     C157889   1.399  23.031  27.624  0.1753  0.0064  0.1937
 9649DDP     P157890   1.057  23.015  27.251 -0.0279 -0.0466 -0.3784
 9649DDP     P257891   1.713  23.322  27.515  0.1285  0.1311  0.3315
 9649DDP     C257892   1.940  23.695  27.570  0.3800 -0.1672 -0.3116
 9649DDP     C357893   0.780  23.082  26.896  0.1089 -0.0349 -0.1194
 9649DDP     C457894   1.427  22.599  27.882  0.4111 -0.0092  0.0033
 9650DDP     C157895  13.312  11.743  28.694 -0.1212  0.0871 -0.0269
 9650DDP     P157896  13.257  11.583  29.131  0.1577  0.0865  0.2200
 9650DDP     P257897  13.687  11.546  28.552  0.0595  0.0554 -0.2063
 9650DDP     C257898  13.897  11.517  28.092  0.2594 -0.2149 -0.0814
 9650DDP     C357899  13.656  11.610  29.411  0.2184  0.1506  0.1361
 9650DDP     C457900  13.233  12.081  28.569  0.0373 -0.4524 -0.2974
 9651DDP     C157901  17.518  30.108   2.517  0.2138  0.0944 -0.0832
 9651DDP     P157902  17.574  29.754   2.790  0.0002 -0.2003  0.2583
 9651DDP     P257903  17.828   0.156   2.577  0.0246 -0.2646 -0.0387
 9651DDP     C257904  18.200   0.269   2.301  0.0687 -0.1897  0.0085
 9651DDP     C357905  17.525  29.411   2.912  0.1694 -0.1488 -0.0453
 9651DDP     C457906  17.167  30.175   2.156 -0.1748 -0.0670  0.0261
 9652DDP     C157907   1.731  21.153  10.513 -0.1758  0.3192 -0.1858
 9652DDP     P157908   1.779  21.197  10.035  0.1196  0.1059 -0.0185
 9652DDP     P257909   2.090  21.382  10.690  0.0518  0.0564  0.3345
 9652DDP     C257910   2.482  21.354  10.877  0.1125 -0.0012 -0.0786
 9652DDP     C357911   1.803  21.412   9.558  0.0046 -0.1192  0.0066
 9652DDP     C457912   1.348  21.258  10.861  0.0423  0.2516  0.1356
 9653DDP     C157913  25.799  23.216  21.639  0.1709  0.2052  0.2790
 9653DDP     P157914  25.816  23.433  21.345  0.0147 -0.0995  0.0237
 9653DDP     P257915  25.874  23.285  22.101  0.1967 -0.0751  0.0229
 9653DDP     C257916  25.639  23.623  22.300 -0.2255  0.1363 -0.2336
 9653DDP     C357917  25.876  23.264  20.898  0.2020  0.1355 -0.0278
 9653DDP     C457918  25.689  22.720  21.590 -0.1872  0.4213  0.0131
 9654DDP     C157919  22.074  29.950   3.129 -0.1782  0.0144 -0.1759
 9654DDP     P157920  22.114  30.180   3.508  0.3577  0.3846 -0.1042
 9654DDP     P257921  21.675  29.843   3.226  0.1781  0.3467  0.4143
 9654DDP     C257922  21.243  29.938   2.949 -0.0760 -0.3511  0.0788
 9654DDP     C357923  22.182  30.189   3.872  0.0148 -0.0790 -0.3131
 9654DDP     C457924  22.250  30.027   2.736 -0.5317 -0.0270  0.0035
 9655DDP     C157925   3.205  24.968  30.199 -0.1043  0.0585 -0.1600
 9655DDP     P157926   2.934  25.359   0.150 -0.1138  0.0126 -0.4028
 9655DDP     P257927   3.579  25.219  30.026 -0.3824  0.1374  0.1250
 9655DDP     C257928   3.979  25.185  30.061 -0.1719  0.2576 -0.0227
 9655DDP     C357929   2.455  25.338   0.324 -0.1131  0.0932 -0.0976
 9655DDP     C457930   3.114  24.537  30.224  0.5054 -0.1472 -0.3598
 9656DDP     C157931  28.956   6.327  15.498  0.0071  0.0438 -0.1665
 9656DDP     P157932  28.673   6.164  15.918  0.3831 -0.0140 -0.0772
 9656DDP     P257933  28.992   6.806  15.399  0.2483  0.1622 -0.0710
 9656DDP     C257934  28.995   7.086  15.740 -0.3486 -0.3994  0.1716
 9656DDP     C357935  28.561   5.857  16.057 -0.2509  0.2735  0.2381
 9656DDP     C457936  29.146   6.034  15.277  0.0058 -0.1262 -0.3382
 9657DDP     C157937  14.388   7.554  29.882  0.0704 -0.3590  0.0114
 9657DDP     P157938  14.098   7.768  29.649  0.1347  0.0376  0.1502
 9657DDP     P257939  14.189   7.207  29.698 -0.0030  0.0553 -0.0037
 9657DDP     C257940  13.944   6.886  29.635 -0.0236 -0.1418  0.3128
 9657DDP     C357941  13.733   7.811  29.880 -0.1160  0.0822 -0.2426
 9657DDP     C457942  14.640   7.587  30.249  0.0030 -0.3264  0.1956
 9658DDP     C157943  10.791   7.825  14.364 -0.1528  0.1655  0.3232
 9658DDP     P157944  11.054   8.108  14.313  0.1522  0.0417  0.1137
 9658DDP     P257945  10.703   7.730  13.944 -0.1041 -0.0786 -0.1896
 9658DDP     C257946  10.860   7.749  13.574 -0.0528  0.0052  0.0764
 9658DDP     C357947  11.320   8.489  14.295 -0.2718 -0.4053  0.4075
 9658DDP     C457948  10.318   7.776  14.575 -0.2130  0.0156 -0.0131
 9659DDP     C157949  14.681  22.273   9.338  0.2940  0.0534  0.1189
 9659DDP     P157950  15.057  22.017   9.353  0.0242 -0.0462  0.0334
 9659DDP     P257951  14.525  22.484   9.008 -0.2831 -0.2599 -0.1377
 9659DDP     C257952  14.661  22.902   8.899  0.1165 -0.0638  0.0599
 9659DDP     C357953  15.113  21.689   9.670 -0.2993 -0.1111  0.1546
 9659DDP     C457954  14.529  22.341   9.795  0.1887  0.2503 -0.0415
 9660DDP     C157955  14.859  21.904   7.738 -0.0147 -0.0340 -0.0273
 9660DDP     P157956  15.017  21.576   7.820  0.1015  0.2429  0.0557
 9660DDP     P257957  14.511  21.935   7.356  0.3193 -0.0290  0.2657
 9660DDP     C257958  14.312  21.637   7.139 -0.2209 -0.1872  0.0876
 9660DDP     C357959  15.224  21.229   8.037  0.0161  0.0115 -0.0388
 9660DDP     C457960  14.873  22.231   8.125 -0.0536  0.0957 -0.4607
 9661DDP     C157961   0.868   1.390  25.871 -0.0678  0.0492  0.1209
 9661DDP     P157962   0.623   1.065  25.992 -0.1159  0.2535  0.1328
 9661DDP     P257963   0.716   1.710  25.909  0.2488 -0.0216 -0.1750
 9661DDP     C257964   1.038   2.109  25.698  0.2263 -0.1541 -0.4661
 9661DDP     C357965   0.427   0.788  26.348 -0.0796 -0.2126 -0.0489
 9661DDP     C457966   1.184   1.303  25.670  0.0788  0.0560  0.2011
 9662DDP     C157967   6.719  25.886  21.772  0.2653 -0.1609 -0.1988
 9662DDP     P157968   7.083  26.113  21.941 -0.2862  0.3501 -0.0228
 9662DDP     P257969   6.685  25.608  22.138 -0.3591  0.1431 -0.1740
 9662DDP     C257970   6.956  25.224  22.093 -0.1668  0.4775 -0.1887
 9662DDP     C357971   7.489  25.952  22.009  0.7943  0.2024 -0.1216
 9662DDP     C457972   6.774  25.753  21.378 -0.0874  0.0979 -0.0267
 9663DDP     C157973   0.962  28.420  24.724  0.1279 -0.2140 -0.3719
 9663DDP     P157974   0.608  28.103  24.497  0.1276 -0.1199  0.1488
 9663DDP     P257975   0.672  28.457  25.116 -0.1103  0.3718 -0.0862
 9663DDP     C257976   0.380  28.520  25.357  0.2439 -0.0179 -0.2378
 9663DDP     C357977   0.335  27.762  24.638 -0.0394 -0.1394 -0.0273
 9663DDP     C457978   1.292  28.275  24.538 -0.1856 -0.1929  0.0376
 9664DDP     C157979   8.774  25.476  10.820 -0.0195 -0.1422  0.1655
 9664DDP     P157980   8.463  25.296  10.523 -0.0774 -0.1334 -0.0466
 9664DDP     P257981   8.768  25.885  10.736 -0.1962 -0.0726  0.0384
 9664DDP     C257982   8.889  26.256  10.878  0.2909  0.2231  0.0025
 9664DDP     C357983   8.437  25.431  10.083 -0.2199 -0.1287  0.4091
 9664DDP     C457984   9.136  25.463  10.984  0.0315 -0.1137  0.1402
 9665DDP     C157985  12.035  27.939   1.614  0.0863  0.0948 -0.1880
 9665DDP     P157986  11.769  27.619   1.636  0.0821  0.0206  0.4437
 9665DDP     P257987  11.902  28.474   1.637  0.0392  0.1301  0.1258
 9665DDP     C257988  11.799  28.930   1.617  0.1860  0.0762 -0.1523
 9665DDP     C357989  11.559  27.227   1.419 -0.3326 -0.1087  0.0841
 9665DDP     C457990  12.441  27.903   1.642 -0.3065 -0.2042  0.2522
 9666DDP     C157991  28.821  24.027  18.474  0.2402  0.0624  0.0100
 9666DDP     P157992  28.745  24.377  18.268 -0.0776 -0.1935 -0.0625
 9666DDP     P257993  28.522  23.831  18.802 -0.1155  0.0070  0.2476
 9666DDP     C257994  28.633  23.577  19.110  0.2243  0.0212 -0.0018
 9666DDP     C357995  28.515  24.240  17.846  0.1188  0.2543  0.0080
 9666DDP     C457996  29.196  23.963  18.341  0.1703  0.2017 -0.1257
 9667DDP     C157997  30.157  30.171  10.766  0.3039 -0.0630  0.1113
 9667DDP     P157998   0.215  -0.047  10.827  0.1971 -0.0691 -0.1091
 9667DDP     P257999  30.025   0.144  10.503 -0.0259 -0.0011 -0.2355
 9667DDP     C258000  29.954   0.259  10.063 -0.0287 -0.2611  0.0048
 9667DDP     C358001   0.537   0.286  10.576  0.0517 -0.0925  0.1104
 9667DDP     C458002  29.927  29.824  10.615 -0.1016 -0.1369 -0.0881
 9668DDP     C158003  27.910  26.691   1.402  0.0593 -0.1028 -0.1882
 9668DDP     P158004  28.364  26.726   1.333 -0.0430  0.1144  0.2307
 9668DDP     P258005  27.674  27.144   1.436 -0.1451 -0.2265  0.1803
 9668DDP     C258006  27.624  27.534   1.380  0.1011  0.0555 -0.0464
 9668DDP     C358007  28.690  26.619   1.022 -0.2269 -0.2369 -0.1342
 9668DDP     C458008  27.531  26.380   1.512 -0.1249 -0.0319  0.1899
 9669DDP     C158009   9.394   2.772  17.192 -0.1115 -0.3039  0.0303
 9669DDP     P158010   9.847   2.767  16.932 -0.0862  0.2335  0.1104
 9669DDP     P258011   9.395   2.438  17.394  0.1392  0.0500  0.1291
 9669DDP     C258012   9.611   2.073  17.609  0.0031  0.2442 -0.2209
 9669DDP     C358013  10.174   2.595  17.135 -0.1198  0.3472 -0.0679
 9669DDP     C458014   9.061   3.252  17.176 -0.0039 -0.0340  0.1456
 9670DDP     C158015   8.027  12.645   0.010  0.1205  0.2820  0.0820
 9670DDP     P158016   8.221  12.224   0.077  0.1697  0.0961 -0.1778
 9670DDP     P258017   7.609  12.365  30.250 -0.1112 -0.0265  0.1045
 9670DDP     C258018   7.164  12.332  30.193 -0.0548 -0.3262 -0.0570
 9670DDP     C358019   8.428  11.702   0.129 -0.1117  0.1014  0.2760
 9670DDP     C458020   7.989  12.958   0.175  0.2429  0.1201 -0.2971
 9671DDP     C158021  13.810  15.666  22.357 -0.0653 -0.0114 -0.1916
 9671DDP     P158022  13.857  15.256  22.211  0.3018 -0.0750 -0.0196
 9671DDP     P258023  13.976  15.752  22.786 -0.0428  0.0289 -0.0151
 9671DDP     C258024  14.088  15.754  23.098 -0.0365 -0.0890  0.2030
 9671DDP     C358025  14.170  15.096  21.952 -0.0446  0.2120 -0.0788
 9671DDP     C458026  13.653  15.969  22.181  0.0129  0.0528  0.0475
 9672DDP     C158027   5.274  26.561  16.114 -0.1151 -0.1117  0.1274
 9672DDP     P158028   4.985  26.520  16.439 -0.0732  0.1670 -0.2209
 9672DDP     P258029   5.241  27.067  15.936  0.0025  0.0180 -0.0968
 9672DDP     C258030   5.440  27.209  15.520  0.3227  0.0056  0.1986
 9672DDP     C358031   4.660  26.406  16.796  0.0234 -0.0308 -0.0679
 9672DDP     C458032   5.180  26.226  15.795 -0.3086 -0.0808  0.0674
 9673DDP     C158033  26.910  10.589   4.495 -0.2141 -0.1018 -0.3382
 9673DDP     P158034  27.005  11.027   4.514 -0.3240  0.0287 -0.2530
 9673DDP     P258035  26.581  10.273   4.366 -0.3377  0.4143 -0.0619
 9673DDP     C258036  26.404   9.892   4.088 -0.0071  0.1460  0.1884
 9673DDP     C358037  27.367  11.313   4.387  0.0373 -0.0924 -0.1478
 9673DDP     C458038  27.250  10.469   4.748 -0.2739 -0.1202  0.0255
 9674DDP     C158039  15.747   8.526  17.834 -0.1223 -0.0954  0.2688
 9674DDP     P158040  15.390   8.721  17.921 -0.2064 -0.2524  0.2235
 9674DDP     P258041  16.032   8.298  18.188 -0.2795  0.0669  0.0374
 9674DDP     C258042  16.190   8.093  18.465 -0.4566  0.1286 -0.0251
 9674DDP     C358043  15.304   9.115  18.140  0.5348  0.0628  0.1204
 9674DDP     C458044  15.922   8.528  17.331 -0.0141  0.3287 -0.2310
 9675DDP     C158045  21.315  12.320  12.601  0.1159  0.3032  0.0000
 9675DDP     P158046  21.332  12.549  12.173  0.0981  0.3118 -0.1874
 9675DDP     P258047  21.177  11.887  12.596  0.1883  0.0337  0.1333
 9675DDP     C258048  20.999  11.667  12.215 -0.0235 -0.4063  0.0670
 9675DDP     C358049  21.150  12.452  11.782  0.1719 -0.0296  0.1754
 9675DDP     C458050  21.551  12.498  12.909  0.0525  0.0357  0.1769
 9676DDP     C158051   6.826   8.428  10.412 -0.1171  0.2103  0.0493
 9676DDP     P158052   6.465   8.224  10.291  0.0245 -0.2768 -0.1972
 9676DDP     P258053   7.294   8.316  10.665 -0.1522  0.0017 -0.0970
 9676DDP     C258054   7.786   8.251  10.761 -0.1662 -0.0499 -0.2918
 9676DDP     C358055   6.028   8.283  10.215 -0.0199 -0.1481  0.0553
 9676DDP     C458056   6.806   8.976  10.278 -0.2530  0.2629  0.1137
 9677DDP     C158057   9.474  23.440  17.988 -0.0363 -0.2314  0.1333
 9677DDP     P158058   9.812  23.102  17.923  0.3721  0.1172  0.1154
 9677DDP     P258059   9.212  23.370  17.591 -0.0163 -0.0485 -0.1100
 9677DDP     C258060   9.273  23.034  17.236  0.2198 -0.0246 -0.0849
 9677DDP     C358061   9.802  22.682  18.205  0.4113 -0.2986  0.2350
 9677DDP     C458062   9.552  23.801  18.271 -0.0811 -0.1516 -0.2031
 9678DDP     C158063  13.048  25.168  10.311  0.0016  0.0206 -0.0025
 9678DDP     P158064  12.872  25.424   9.936 -0.1141  0.3742 -0.2836
 9678DDP     P258065  13.505  25.158  10.387 -0.1464  0.0866 -0.0204
 9678DDP     C258066  13.776  25.466  10.615 -0.2251  0.1559 -0.0347
 9678DDP     C358067  12.460  25.424   9.652 -0.0929  0.1077  0.0014
 9678DDP     C458068  12.809  24.774  10.410  0.3530 -0.2537 -0.1635
 9679DDP     C158069  26.102  13.520  26.897 -0.0262 -0.0280 -0.0166
 9679DDP     P158070  26.331  13.216  26.996  0.0298  0.0602 -0.1471
 9679DDP     P258071  26.479  13.822  26.839  0.0363 -0.0687 -0.1858
 9679DDP     C258072  26.939  13.823  26.581  0.0253 -0.1055  0.3973
 9679DDP     C358073  26.660  12.939  26.900 -0.1264 -0.0047  0.2944
 9679DDP     C458074  25.760  13.691  26.726 -0.0318 -0.0703  0.1140
 9680DDP     C158075  29.806   5.173   2.013 -0.0417 -0.1497  0.1439
 9680DDP     P158076  29.837   4.831   2.257  0.0159  0.0441  0.1690
 9680DDP     P258077  29.902   5.588   2.022  0.2717 -0.2192 -0.1201
 9680DDP     C258078  29.812   5.938   1.790  0.0997  0.1117  0.3561
 9680DDP     C358079  29.550   4.458   2.288 -0.2298 -0.2872 -0.0235
 9680DDP     C458080  29.494   5.026   1.797 -0.1219 -0.1659  0.3487
 9681DDP     C158081   6.032   1.121   1.713  0.0471  0.0257  0.0649
 9681DDP     P158082   5.962   1.563   1.608 -0.4005  0.0775  0.1284
 9681DDP     P258083   5.649   0.938   1.903  0.2172 -0.0678 -0.1742
 9681DDP     C258084   5.598   0.792   2.372 -0.2423  0.4957  0.1382
 9681DDP     C358085   6.155   1.991   1.659  0.1437  0.0115 -0.1291
 9681DDP     C458086   6.513   0.958   1.884 -0.0129  0.1658  0.1880
 9682DDP     C158087  21.557  13.431  12.543  0.3559  0.1071  0.0769
 9682DDP     P158088  21.350  12.935  12.523  0.0586  0.1072  0.2907
 9682DDP     P258089  21.807  13.412  12.867 -0.0967 -0.1802 -0.0057
 9682DDP     C258090  21.879  13.437  13.372 -0.1750  0.0821  0.3161
 9682DDP     C358091  20.837  12.765  12.427  0.1372  0.2565  0.1386
 9682DDP     C458092  21.494  13.782  12.305  0.0279 -0.2729  0.1476
 9683DDP     C158093   4.499   2.328  17.363  0.0160 -0.2793  0.0772
 9683DDP     P158094   4.233   2.012  16.970  0.0206 -0.4346  0.1634
 9683DDP     P258095   4.923   2.373  17.241 -0.1562  0.1088  0.2211
 9683DDP     C258096   5.210   1.955  17.235 -0.0838  0.1653 -0.0009
 9683DDP     C358097   4.202   1.956  16.551  0.1934  0.0017 -0.1129
 9683DDP     C458098   4.228   2.318  17.696  0.0516  0.0547  0.2351
 9684DDP     C158099   9.808  28.979   1.957 -0.1767  0.0833  0.0916
 9684DDP     P158100   9.435  28.844   1.733 -0.3676 -0.1846 -0.0311
 9684DDP     P258101   9.729  28.995   2.317 -0.0079 -0.3181  0.1292
 9684DDP     C258102   9.778  29.044   2.767  0.0134  0.4562  0.1782
 9684DDP     C358103   8.959  28.874   1.769  0.1601 -0.0553  0.2833
 9684DDP     C458104  10.249  29.107   1.715  0.0024 -0.0798  0.0660
 9685DDP     C158105  15.476  11.049   7.462 -0.0418  0.2035 -0.1417
 9685DDP     P158106  15.618  10.718   7.733 -0.2718 -0.0613  0.1349
 9685DDP     P258107  14.992  10.969   7.468  0.3241  0.2128  0.1721
 9685DDP     C258108  14.607  10.734   7.370 -0.2247  0.0347  0.1779
 9685DDP     C358109  15.433  10.343   7.952  0.2599 -0.4209  0.1149
 9685DDP     C458110  15.584  11.448   7.364  0.0325  0.2816 -0.1976
 9686DDP     C158111   2.388   1.976  28.295  0.0766 -0.1315  0.3336
 9686DDP     P158112   2.308   2.104  27.836  0.0162 -0.0199  0.1067
 9686DDP     P258113   2.053   2.099  28.588 -0.2116  0.0314  0.1604
 9686DDP     C258114   1.841   1.777  28.722 -0.2537 -0.0921  0.1266
 9686DDP     C358115   1.899   1.899  27.608 -0.0754  0.0273 -0.0247
 9686DDP     C458116   2.657   1.746  28.412 -0.3783 -0.1570 -0.1047
 9687DDP     C158117   0.978  22.074   4.442 -0.1639 -0.0104  0.1618
 9687DDP     P158118   1.192  21.874   4.775 -0.1483  0.1107  0.1816
 9687DDP     P258119   1.007  21.987   4.062  0.1012 -0.1240 -0.0184
 9687DDP     C258120   1.002  21.705   3.678 -0.1986 -0.0744 -0.1152
 9687DDP     C358121   1.575  21.632   5.057  0.1145  0.2651  0.2100
 9687DDP     C458122   0.704  22.431   4.457 -0.1759  0.2722  0.2100
 9688DDP     C158123  15.071  11.900  24.959  0.0090 -0.1064 -0.2232
 9688DDP     P158124  14.857  11.557  25.084 -0.3296  0.2089 -0.0107
 9688DDP     P258125  15.193  11.993  24.527  0.2374  0.1380  0.3834
 9688DDP     C258126  15.289  12.284  24.192  0.1827  0.1187  0.0646
 9688DDP     C358127  14.839  11.235  25.312 -0.1071 -0.0171  0.2381
 9688DDP     C458128  15.366  12.083  25.294  0.3139  0.0179 -0.0269
 9689DDP     C158129   0.486  10.446   7.295  0.2071 -0.0004  0.1676
 9689DDP     P158130   0.872  10.629   7.330  0.0878 -0.2384 -0.0017
 9689DDP     P258131   0.250  10.771   7.239  0.1735  0.1518  0.0609
 9689DDP     C258132   0.623  11.090   7.359 -0.1586 -0.0521  0.1099
 9689DDP     C358133   1.149  10.932   7.190  0.1103 -0.0482 -0.2718
 9689DDP     C458134   0.344  10.028   7.310  0.1508  0.1625  0.2428
 9690DDP     C158135  29.344  25.867   0.387  0.1820 -0.0255  0.1821
 9690DDP     P158136  29.089  25.502   0.500  0.2158 -0.0752  0.3726
 9690DDP     P258137  29.846  25.903   0.171  0.1037  0.1309  0.3025
 9690DDP     C258138  30.171  26.158  30.235 -0.1451  0.0980 -0.0655
 9690DDP     C358139  29.127  25.224   0.148 -0.1670  0.0300  0.0399
 9690DDP     C458140  29.245  26.386   0.402  0.0599  0.3063 -0.0447
 9691DDP     C158141   0.458  13.314   6.377  0.1593 -0.2773 -0.0150
 9691DDP     P158142   0.254  13.436   6.752 -0.1036 -0.1235  0.3382
 9691DDP     P258143   0.268  12.960   6.072 -0.1940 -0.3228 -0.0430
 9691DDP     C258144   0.134  12.776   5.680  0.2212 -0.0432 -0.1168
 9691DDP     C358145   0.277  13.448   7.202  0.1788 -0.2148  0.3784
 9691DDP     C458146   0.828  13.475   6.222 -0.0477 -0.0946  0.0258
 9692DDP     C158147  23.593  12.323   4.678 -0.0966  0.2358  0.1246
 9692DDP     P158148  23.861  12.157   4.387  0.0434 -0.0456 -0.0034
 9692DDP     P258149  23.313  12.023   4.936  0.1287  0.0214  0.1530
 9692DDP     C258150  23.409  11.566   5.104  0.5538 -0.0469 -0.5343
 9692DDP     C358151  24.305  12.017   4.328  0.0104 -0.2054 -0.1676
 9692DDP     C458152  23.578  12.852   4.800  0.1650  0.0916  0.0804
 9693DDP     C158153   0.981  23.273  10.422 -0.1446  0.1233  0.1209
 9693DDP     P158154   0.767  23.089  10.826 -0.2158 -0.1137 -0.1450
 9693DDP     P258155   1.087  22.996  10.042 -0.0022 -0.0159  0.0636
 9693DDP     C258156   1.278  22.734   9.716 -0.0465  0.2278 -0.0342
 9693DDP     C358157   0.489  22.635  10.875 -0.0703  0.1226  0.0936
 9693DDP     C458158   1.114  23.642  10.390  0.2335 -0.0754 -0.1676
 9694DDP     C158159   5.405  12.489  19.295 -0.0294  0.0533  0.0208
 9694DDP     P158160   5.319  12.071  19.458 -0.1189 -0.2678  0.1580
 9694DDP     P258161   5.549  12.885  19.464 -0.3429  0.1470  0.3002
 9694DDP     C258162   5.596  13.226  19.258  0.1810  0.2917  0.2166
 9694DDP     C358163   5.495  11.921  19.804  0.3262  0.0135 -0.2962
 9694DDP     C458164   5.204  12.412  18.883  0.2565 -0.1870  0.1450
 9695DDP     C158165  24.537  29.759  29.066 -0.2651 -0.1011 -0.0882
 9695DDP     P158166  24.725  29.743  29.367 -0.3551  0.2076  0.3028
 9695DDP     P258167  24.079  29.702  29.043 -0.2222  0.0791  0.0762
 9695DDP     C258168  23.723  29.895  29.257 -0.0558 -0.1701  0.2015
 9695DDP     C358169  25.191  29.887  29.710 -0.1197  0.1934 -0.3085
 9695DDP     C458170  24.601  29.569  28.616 -0.0905  0.1447 -0.0496
 9696DDP     C158171   1.880   9.549  12.410 -0.0921  0.0484  0.5390
 9696DDP     P158172   1.850   9.127  12.196 -0.0495 -0.0107  0.2407
 9696DDP     P258173   1.687   9.848  12.277 -0.4301  0.1253 -0.0188
 9696DDP     C258174   1.702  10.228  12.244 -0.0469  0.0295 -0.3157
 9696DDP     C358175   2.012   8.727  12.223  0.0622 -0.2215 -0.1685
 9696DDP     C458176   2.161   9.587  12.769  0.0161 -0.0305 -0.1144
 9697DDP     C158177   9.837  12.181   3.205  0.3148  0.0942  0.0433
 9697DDP     P158178   9.550  12.406   2.976  0.2999  0.1777 -0.1196
 9697DDP     P258179  10.166  12.417   3.411 -0.2594 -0.1474  0.0012
 9697DDP     C258180  10.238  12.781   3.439 -0.0528  0.0157  0.3474
 9697DDP     C358181   9.536  12.720   2.585 -0.0775  0.2498  0.1528
 9697DDP     C458182   9.909  11.863   3.153  0.0836  0.3188  0.1212
 9698DDP     C158183  12.927  28.351   4.175 -0.2093 -0.1095 -0.0936
 9698DDP     P158184  12.718  28.688   4.340 -0.0212 -0.2722 -0.0846
 9698DDP     P258185  13.202  28.165   4.385 -0.0800 -0.1817  0.3206
 9698DDP     C258186  13.629  28.021   4.471  0.0736 -0.0969  0.0859
 9698DDP     C358187  12.369  28.684   4.541  0.0902 -0.1583 -0.2782
 9698DDP     C458188  12.873  28.441   3.825 -0.0067  0.0476 -0.0682
 9699DDP     C158189  23.573  30.129  11.766 -0.3258 -0.0186 -0.1597
 9699DDP     P158190  23.145  30.083  11.765 -0.0541 -0.2907  0.1345
 9699DDP     P258191  23.416   0.175  11.957  0.1266 -0.3701  0.0131
 9699DDP     C258192  23.376   0.432  12.292 -0.4876 -0.1110  0.1299
 9699DDP     C358193  22.728  30.034  11.643  0.0841 -0.1285 -0.0491
 9699DDP     C458194  24.031  30.119  11.804 -0.0346 -0.0541  0.0143
 9700DDP     C158195   5.726   9.332   6.636  0.0694 -0.2740  0.1842
 9700DDP     P158196   5.912   9.344   6.158  0.3115  0.0804 -0.1160
 9700DDP     P258197   5.491   9.665   6.881  0.1233 -0.2875  0.0813
 9700DDP     C258198   5.177   9.817   7.211 -0.1052  0.2184 -0.0350
 9700DDP     C358199   5.976   9.126   5.772  0.0078  0.1026 -0.0618
 9700DDP     C458200   5.746   9.050   6.974 -0.2690 -0.0220  0.0475
 9701DDP     C158201  20.132  14.947  23.509  0.0471 -0.3901 -0.0154
 9701DDP     P158202  19.815  15.228  23.265 -0.0349 -0.0647  0.0068
 9701DDP     P258203  20.343  15.060  23.974  0.1357 -0.3840 -0.0890
 9701DDP     C258204  20.529  14.894  24.384 -0.2420 -0.4136 -0.0077
 9701DDP     C358205  19.786  15.522  22.869  0.3186  0.1157  0.2331
 9701DDP     C458206  20.186  14.494  23.562 -0.1392  0.0311  0.1350
 9702DDP     C158207  16.578  24.888  28.362 -0.2174  0.1267 -0.1024
 9702DDP     P158208  16.851  25.223  28.168  0.2228  0.0508 -0.1279
 9702DDP     P258209  16.245  24.647  28.085 -0.1938  0.1716 -0.3589
 9702DDP     C258210  15.980  24.331  27.947 -0.0930  0.2761 -0.0022
 9702DDP     C358211  17.009  25.381  27.838 -0.0581 -0.0903  0.1304
 9702DDP     C458212  16.585  24.861  28.786 -0.3918  0.1725 -0.0362
 9703DDP     C158213  13.678  25.930  24.996  0.1037 -0.3462 -0.1255
 9703DDP     P158214  13.714  26.048  25.406 -0.1709  0.4223  0.1204
 9703DDP     P258215  13.899  26.090  24.705 -0.3220 -0.0802 -0.2365
 9703DDP     C258216  13.962  26.378  24.401 -0.2560  0.3597 -0.1732
 9703DDP     C358217  13.915  25.731  25.592 -0.1222 -0.1112  0.1142
 9703DDP     C458218  13.453  25.523  24.895 -0.1881  0.1009 -0.0441
 9704DDP     C158219   9.370  17.566   1.520  0.0750 -0.0077 -0.1046
 9704DDP     P158220   9.530  17.164   1.480 -0.2312 -0.2110 -0.0218
 9704DDP     P258221   9.704  17.859   1.728 -0.1539 -0.1837  0.2910
 9704DDP     C258222  10.094  18.122   1.706  0.2807  0.1001  0.0042
 9704DDP     C358223   9.524  16.674   1.588 -0.0602  0.0220  0.0081
 9704DDP     C458224   8.986  17.712   1.408  0.1546 -0.2233  0.1159
 9705DDP     C158225  19.824  19.381  18.980  0.0222 -0.1027  0.2954
 9705DDP     P158226  19.627  19.681  18.661  0.3426 -0.2101 -0.0099
 9705DDP     P258227  19.675  19.241  19.324 -0.0346 -0.4566  0.0238
 9705DDP     C258228  19.763  19.264  19.770  0.3176 -0.2449  0.1978
 9705DDP     C358229  19.389  20.126  18.680  0.1411 -0.0447 -0.3164
 9705DDP     C458230  20.199  19.337  18.872 -0.0248  0.5399 -0.0884
 9706DDP     C158231   6.297  19.706  23.613 -0.0933 -0.1612 -0.0758
 9706DDP     P158232   6.468  19.355  23.353 -0.0219  0.2520  0.1514
 9706DDP     P258233   5.940  19.804  23.366 -0.0113 -0.0474 -0.2995
 9706DDP     C258234   5.595  19.560  23.256 -0.0341 -0.0935  0.0706
 9706DDP     C358235   6.392  19.008  23.118 -0.1438 -0.1478 -0.1571
 9706DDP     C458236   6.567  19.935  23.833 -0.0238 -0.2786  0.2241
 9707DDP     C158237  15.707  13.766  15.018 -0.0847 -0.0494 -0.0088
 9707DDP     P158238  15.929  13.353  14.910 -0.0405  0.0071 -0.3496
 9707DDP     P258239  15.749  14.157  14.741 -0.2704 -0.2020  0.0278
 9707DDP     C258240  15.554  14.430  14.374 -0.0534  0.2633 -0.2525
 9707DDP     C358241  16.250  13.163  14.650  0.1868 -0.0501 -0.3791
 9707DDP     C458242  15.566  13.714  15.440 -0.2797 -0.1211  0.1229
 9708DDP     C158243  10.416  15.094   6.567  0.2629 -0.0924 -0.1145
 9708DDP     P158244  10.404  15.454   6.747 -0.2091 -0.0184 -0.0153
 9708DDP     P258245  10.057  15.061   6.336  0.0103  0.1093 -0.0519
 9708DDP     C258246   9.710  15.191   6.251  0.1117 -0.0213  0.4573
 9708DDP     C358247  10.014  15.703   6.859 -0.1724 -0.2222 -0.0212
 9708DDP     C458248  10.586  14.684   6.537  0.2012  0.1067 -0.2556
 9709DDP     C158249  11.069  25.390   4.120  0.2781 -0.1157 -0.1284
 9709DDP     P158250  11.003  25.774   4.065 -0.0458  0.4397  0.0111
 9709DDP     P258251  11.288  25.116   3.998 -0.1761 -0.0946 -0.2747
 9709DDP     C258252  11.539  25.163   3.564 -0.0996  0.3548  0.0154
 9709DDP     C358253  11.115  26.101   4.004  0.2569  0.1960  0.1173
 9709DDP     C458254  11.047  25.365   4.622 -0.0271  0.3064  0.0459
 9710DDP     C158255  14.840  26.735  29.042  0.0884  0.2023  0.1058
 9710DDP     P158256  14.985  26.973  29.482  0.1715 -0.0808 -0.2090
 9710DDP     P258257  14.888  26.358  28.879 -0.1487 -0.0734 -0.1599
 9710DDP     C258258  14.856  26.152  28.581  0.2020 -0.0503 -0.5243
 9710DDP     C358259  15.042  27.010  29.965 -0.0860 -0.1130  0.0044
 9710DDP     C458260  14.425  26.912  28.838  0.0793 -0.1796 -0.1298
 9711DDP     C158261   3.737  26.980   3.614 -0.0728 -0.1828 -0.3070
 9711DDP     P158262   3.976  27.205   3.918  0.1335 -0.4866 -0.1102
 9711DDP     P258263   3.517  26.725   3.868 -0.1316 -0.1421  0.2249
 9711DDP     C258264   3.132  26.723   3.901 -0.1012 -0.3801  0.1940
 9711DDP     C358265   3.959  27.573   4.097  0.1069 -0.1508  0.5262
 9711DDP     C458266   3.699  26.896   3.136 -0.1360  0.1152 -0.0227
 9712DDP     C158267   4.478  10.372  10.975 -0.1635 -0.2563  0.1618
 9712DDP     P158268   4.441  10.732  10.698 -0.1542  0.1363  0.1393
 9712DDP     P258269   4.300  10.406  11.460  0.1444 -0.2610  0.1641
 9712DDP     C258270   4.427  10.272  11.931  0.0464 -0.0893  0.1153
 9712DDP     C358271   4.561  11.140  10.580  0.2683  0.1123 -0.0893
 9712DDP     C458272   4.806  10.065  10.821 -0.1616 -0.4022  0.0649
 9713DDP     C158273  12.267  23.173   5.690  0.3850 -0.1188 -0.2428
 9713DDP     P158274  12.634  23.366   5.806 -0.0808  0.2719 -0.1875
 9713DDP     P258275  11.983  23.357   5.446  0.0323  0.3321 -0.1953
 9713DDP     C258276  11.744  23.329   5.042  0.0200 -0.1886 -0.4714
 9713DDP     C358277  13.084  23.432   5.981 -0.2403 -0.0406  0.0284
 9713DDP     C458278  12.125  22.934   5.935 -0.1145  0.0089  0.0760
 9714DDP     C158279   8.349  16.738  25.162  0.5187  0.2201 -0.0681
 9714DDP     P158280   8.591  17.041  25.223 -0.0751 -0.0426 -0.2466
 9714DDP     P258281   7.983  16.783  25.411  0.3012  0.1440 -0.0620
 9714DDP     C258282   7.636  16.447  25.587  0.1158  0.2506 -0.3776
 9714DDP     C358283   8.688  17.542  25.162 -0.1793  0.0795 -0.1444
 9714DDP     C458284   8.341  16.292  24.974  0.2565 -0.0086  0.0041
 9715DDP     C158285  15.344  10.626  28.523 -0.1878 -0.2019 -0.0194
 9715DDP     P158286  15.590  10.689  28.914  0.0022  0.1401 -0.2721
 9715DDP     P258287  15.461  10.478  28.058 -0.0601 -0.0683 -0.0959
 9715DDP     C258288  15.558  10.252  27.679 -0.2517  0.0693  0.1552
 9715DDP     C358289  15.679  10.841  29.280  0.2588 -0.1546  0.0460
 9715DDP     C458290  15.056  10.994  28.555  0.3758 -0.2959  0.1878
 9716DDP     C158291  14.874  25.383  26.982 -0.0858  0.1656  0.0645
 9716DDP     P158292  14.880  25.626  26.649  0.0358 -0.1461  0.1972
 9716DDP     P258293  15.205  25.145  27.075 -0.3923 -0.0131  0.0586
 9716DDP     C258294  15.629  25.075  26.886  0.2667  0.2484 -0.1752
 9716DDP     C358295  14.842  26.078  26.459 -0.2240  0.1751  0.2514
 9716DDP     C458296  14.595  25.504  27.284  0.0171  0.0825  0.1282
 9717DDP     C158297  12.034   9.564  12.932  0.0938 -0.0155  0.1427
 9717DDP     P158298  12.387   9.403  12.766  0.2112  0.0583 -0.1564
 9717DDP     P258299  11.671   9.406  13.055 -0.0286  0.0076 -0.1422
 9717DDP     C258300  11.305   9.516  13.166 -0.0288  0.0417  0.1033
 9717DDP     C358301  12.482   9.216  12.416  0.0694  0.1943  0.0597
 9717DDP     C458302  11.968  10.084  12.923  0.1066  0.1096 -0.0653
 9718DDP     C158303   6.231  13.567  14.968 -0.1035  0.0496 -0.2326
 9718DDP     P158304   6.100  13.464  15.276  0.3164 -0.1933 -0.2023
 9718DDP     P258305   6.643  13.573  15.061 -0.0303  0.2834  0.3527
 9718DDP     C258306   6.876  13.938  15.257  0.0206  0.1737 -0.2216
 9718DDP     C358307   5.986  13.515  15.763  0.1230  0.0286 -0.0245
 9718DDP     C458308   6.132  13.669  14.621 -0.2451  0.2080 -0.1037
 9719DDP     C158309   9.858   3.565   8.594  0.2985 -0.1443  0.2195
 9719DDP     P158310   9.935   3.944   8.554  0.2716 -0.1307 -0.0355
 9719DDP     P258311   9.402   3.607   8.599 -0.2137 -0.1124  0.0077
 9719DDP     C258312   9.061   3.763   8.318 -0.0279  0.1084  0.0079
 9719DDP     C358313   9.906   4.412   8.518  0.0396 -0.0770 -0.0320
 9719DDP     C458314  10.050   3.248   8.916  0.1452  0.2355  0.2577
 9720DDP     C158315   6.792  15.101   1.225 -0.1869  0.0235  0.0418
 9720DDP     P158316   6.676  15.456   1.292 -0.3863  0.2561 -0.0741
 9720DDP     P258317   7.258  15.159   1.248 -0.2314  0.0097 -0.0714
 9720DDP     C258318   7.405  15.138   1.653 -0.3150  0.1153  0.1236
 9720DDP     C358319   6.342  15.756   1.165 -0.4527 -0.0181 -0.0780
 9720DDP     C458320   6.746  14.757   1.126 -0.1981 -0.0428 -0.0864
 9721DDP     C158321  20.902  11.982   0.011  0.0215  0.2027 -0.0221
 9721DDP     P158322  21.280  12.003   0.111  0.0445  0.2284 -0.0961
 9721DDP     P258323  20.646  12.019   0.332 -0.1062 -0.2674 -0.1613
 9721DDP     C258324  20.274  11.769   0.540  0.1626  0.1251  0.1451
 9721DDP     C358325  21.699  12.050  30.299 -0.0395  0.1855  0.2998
 9721DDP     C458326  20.791  12.092  29.918 -0.1004 -0.2114 -0.1514
 9722DDP     C158327   0.075  27.951   8.182 -0.4840 -0.4083  0.1422
 9722DDP     P158328   0.105  28.311   7.871  0.1742 -0.1036  0.0399
 9722DDP     P258329  30.040  27.846   8.296  0.0520 -0.2570  0.0706
 9722DDP     C258330  29.738  27.596   8.442 -0.0206  0.0489 -0.0326
 9722DDP     C358331   0.433  28.729   7.865  0.4269 -0.0939 -0.2143
 9722DDP     C458332   0.426  27.754   8.181 -0.1555  0.1354 -0.0652
 9723DDP     C158333   9.334  23.164  27.001  0.2173 -0.1061 -0.0104
 9723DDP     P158334   9.106  23.525  27.037  0.1023 -0.0548 -0.0510
 9723DDP     P258335   9.409  22.921  26.539 -0.2558  0.0990 -0.0119
 9723DDP     C258336   9.413  22.578  26.423  0.1888  0.1532 -0.1514
 9723DDP     C358337   8.717  23.663  26.960  0.1658 -0.3741  0.0254
 9723DDP     C458338   9.506  22.973  27.280 -0.0437  0.2036  0.1663
 9724DDP     C158339  23.600   8.294  14.533 -0.1853  0.0620 -0.4372
 9724DDP     P158340  23.656   8.551  14.833 -0.0866  0.1807 -0.2221
 9724DDP     P258341  23.713   8.339  14.157 -0.0930  0.3671  0.3495
 9724DDP     C258342  23.618   8.431  13.715 -0.0029  0.4144 -0.0148
 9724DDP     C358343  23.883   8.864  15.079 -0.1545  0.1538 -0.2179
 9724DDP     C458344  23.623   7.919  14.827  0.0343  0.0715  0.1231
 9725DDP     C158345  22.807  16.366   8.655 -0.1312 -0.3182 -0.1182
 9725DDP     P158346  22.960  16.682   8.805  0.1436 -0.1047 -0.1532
 9725DDP     P258347  22.365  16.505   8.454  0.2738 -0.0334 -0.1599
 9725DDP     C258348  22.293  16.735   8.145  0.2008  0.1710  0.0759
 9725DDP     C358349  22.860  16.711   9.227 -0.0816 -0.0738 -0.5323
 9725DDP     C458350  23.071  15.972   8.743 -0.0598 -0.0970 -0.2493
 9726DDP     C158351  27.940  28.876  26.227  0.0401 -0.1156  0.0318
 9726DDP     P158352  27.640  28.858  26.564  0.0758 -0.0463 -0.3443
 9726DDP     P258353  27.893  29.090  25.844  0.2580 -0.1030 -0.0488
 9726DDP     C258354  27.543  29.245  25.567  0.0860 -0.4295  0.1173
 9726DDP     C358355  27.705  28.605  26.804  0.1801  0.1788 -0.0241
 9726DDP     C458356  28.453  28.596  26.325 -0.0969 -0.0049  0.2705
 9727DDP     C158357  16.248   3.483  19.589  0.1603 -0.3445 -0.2534
 9727DDP     P158358  15.855   3.672  19.537  0.0381 -0.1885  0.1269
 9727DDP     P258359  16.525   3.403  19.962  0.0627 -0.1588  0.2857
 9727DDP     C258360  16.643   3.378  20.357 -0.0362 -0.1888 -0.3993
 9727DDP     C358361  15.452   3.303  19.460  0.0839 -0.0460  0.0846
 9727DDP     C458362  16.441   3.115  19.248  0.4244  0.3148  0.0297
 9728DDP     C158363  14.548  16.802   8.180  0.0654 -0.2715  0.3576
 9728DDP     P158364  14.307  16.571   7.783 -0.1152  0.0166  0.0645
 9728DDP     P258365  14.542  16.501   8.546 -0.5150 -0.2222 -0.0918
 9728DDP     C258366  14.818  16.188   8.742 -0.1620 -0.0500  0.0723
 9728DDP     C358367  14.392  16.165   7.527 -0.2813  0.0028  0.0444
 9728DDP     C458368  14.884  17.222   8.115  0.4620 -0.0766  0.4167
 9729DDP     C158369  24.317  22.655   6.104 -0.2056 -0.1567  0.0083
 9729DDP     P158370  24.626  22.782   5.835 -0.2899 -0.0109  0.0603
 9729DDP     P258371  23.955  22.874   6.186  0.3874  0.1417 -0.0290
 9729DDP     C258372  23.683  23.047   6.086 -0.0340  0.0951  0.0482
 9729DDP     C358373  25.065  22.810   5.779 -0.2383 -0.0972 -0.0907
 9729DDP     C458374  24.474  22.478   6.453 -0.4887 -0.0822 -0.0122
 9730DDP     C158375  10.325  13.454   4.014 -0.3027  0.0074  0.0071
 9730DDP     P158376  10.294  13.867   4.049  0.2760 -0.2465  0.1494
 9730DDP     P258377  10.578  13.210   4.298 -0.0375 -0.0334  0.1617
 9730DDP     C258378  10.704  13.267   4.704 -0.0339  0.0361  0.0549
 9730DDP     C358379   9.968  14.254   4.082 -0.4355 -0.1424  0.1577
 9730DDP     C458380  10.208  13.299   3.599  0.1664 -0.0548 -0.1362
 9731DDP     C158381  26.152  10.913  26.583  0.1212 -0.3216 -0.0993
 9731DDP     P158382  25.894  10.727  26.253  0.2342 -0.1482  0.2367
 9731DDP     P258383  26.064  10.823  26.994  0.0140 -0.0006 -0.1633
 9731DDP     C258384  26.371  10.944  27.253  0.1035  0.1087  0.4044
 9731DDP     C358385  25.752  10.803  25.929  0.1908 -0.1667  0.1571
 9731DDP     C458386  26.535  11.217  26.491  0.0129  0.0197 -0.0781
 9732DDP     C158387  24.282   7.445   8.721 -0.1346 -0.2069  0.3804
 9732DDP     P158388  24.296   7.639   9.031 -0.1009 -0.2698 -0.0300
 9732DDP     P258389  23.941   7.344   8.504  0.1105  0.1418 -0.1978
 9732DDP     C258390  23.446   7.358   8.508 -0.2481  0.1953  0.1345
 9732DDP     C358391  24.297   7.826   9.468  0.2444  0.0586 -0.4133
 9732DDP     C458392  24.668   7.667   8.593 -0.1211 -0.0698  0.1474
 9733DDP     C158393  12.854   2.691  12.930  0.1779 -0.0173  0.0034
 9733DDP     P158394  12.446   2.860  12.811 -0.0046 -0.1420  0.0816
 9733DDP     P258395  12.782   2.724  13.356  0.2639 -0.2077  0.2749
 9733DDP     C258396  12.931   2.892  13.706 -0.2502 -0.3049  0.0745
 9733DDP     C358397  12.090   3.153  12.576  0.0533  0.0594  0.1418
 9733DDP     C458398  13.218   2.876  12.760 -0.1346 -0.0419  0.0930
 9734DDP     C158399  20.166   7.399  16.075  0.1613 -0.1711  0.1952
 9734DDP     P158400  19.758   7.162  16.145 -0.0841 -0.1266  0.0085
 9734DDP     P258401  20.342   7.291  15.639 -0.1445 -0.4300  0.0861
 9734DDP     C258402  20.456   7.225  15.280  0.3789 -0.0549  0.4366
 9734DDP     C358403  19.479   6.960  16.444  0.2690  0.3272 -0.0817
 9734DDP     C458404  20.272   7.468  16.538 -0.1279 -0.0950  0.0142
 9735DDP     C158405   0.181  11.877  16.139 -0.2030 -0.1946 -0.1737
 9735DDP     P158406  30.110  11.804  16.226 -0.2502  0.3381  0.1361
 9735DDP     P258407   0.313  11.665  15.798 -0.3929  0.1304 -0.3123
 9735DDP     C258408   0.237  11.854  15.412 -0.1361 -0.0231  0.2643
 9735DDP     C358409  29.706  11.815  15.969  0.2389  0.0605 -0.1734
 9735DDP     C458410   0.507  12.158  16.131  0.2244  0.0233  0.1895
 9736DDP     C158411  27.200  10.990  13.471 -0.1702 -0.3298 -0.1090
 9736DDP     P158412  27.218  10.920  13.952  0.0758 -0.2423 -0.3149
 9736DDP     P258413  27.638  11.144  13.282  0.2991  0.0190  0.0390
 9736DDP     C258414  27.889  10.967  13.067 -0.2075 -0.1160  0.0004
 9736DDP     C358415  27.058  10.804  14.317  0.3313 -0.1859  0.2994
 9736DDP     C458416  26.899  11.097  13.302 -0.0386 -0.1216  0.4086
 9737DDP     C158417   4.446  19.584   5.780  0.1091 -0.0279 -0.0862
 9737DDP     P158418   4.804  19.275   5.686 -0.0569 -0.2032  0.1511
 9737DDP     P258419   4.178  19.702   6.107  0.2058 -0.2247  0.1092
 9737DDP     C258420   3.791  19.582   6.294 -0.6933 -0.1111 -0.0118
 9737DDP     C358421   5.238  19.127   5.498  0.2419  0.0458 -0.0240
 9737DDP     C458422   4.335  19.936   5.399 -0.1083  0.2638  0.3134
 9738DDP     C158423  25.734  25.206  20.972  0.1892 -0.1023  0.2185
 9738DDP     P158424  25.689  25.236  21.462 -0.2351  0.2456 -0.2382
 9738DDP     P258425  25.524  25.556  20.758 -0.0341 -0.5056  0.0846
 9738DDP     C258426  25.659  25.894  20.526  0.2238  0.0710 -0.1852
 9738DDP     C358427  25.775  25.327  21.803 -0.1702  0.3511  0.1158
 9738DDP     C458428  25.872  24.902  20.765 -0.0562 -0.1493  0.0900
 9739DDP     C158429   8.143   0.154   0.016 -0.0949  0.5362 -0.0314
 9739DDP     P158430   7.829   0.403  30.172 -0.0395 -0.1545  0.0372
 9739DDP     P258431   8.313   0.403  29.947 -0.1622 -0.1233  0.0009
 9739DDP     C258432   8.095   0.253  29.581  0.2179 -0.0785 -0.2799
 9739DDP     C358433   7.442   0.749  30.228 -0.2696  0.0804 -0.0582
 9739DDP     C458434   8.282  30.168   0.424 -0.0258 -0.0319  0.2069
 9740DDP     C158435  15.206   8.610  29.912  0.2542 -0.0603 -0.0969
 9740DDP     P158436  14.837   8.402  29.786 -0.0191 -0.2367  0.2899
 9740DDP     P258437  15.575   8.389  29.947  0.2086  0.3156  0.3444
 9740DDP     C258438  15.998   8.589  29.929 -0.2853  0.0867  0.0767
 9740DDP     C358439  14.663   8.026  29.686  0.3440  0.1211  0.1532
 9740DDP     C458440  15.005   8.805  30.198  0.0509  0.0727 -0.0137
 9741DDP     C158441  11.915  13.831  29.554 -0.0915  0.0344 -0.2341
 9741DDP     P158442  11.954  14.162  29.305  0.0576 -0.1344  0.0858
 9741DDP     P258443  11.874  13.855  30.043  0.0540 -0.0019  0.2843
 9741DDP     C258444  11.984  14.326   0.049  0.0608  0.2584  0.0910
 9741DDP     C358445  11.892  14.588  29.145 -0.1125  0.0797 -0.2268
 9741DDP     C458446  11.971  13.588  29.293  0.0035  0.1483  0.0058
 9742DDP     C158447   7.413  13.044  25.375 -0.1356 -0.1674 -0.1393
 9742DDP     P158448   7.473  13.067  24.981 -0.5517  0.1523 -0.0990
 9742DDP     P258449   7.673  13.258  25.627 -0.0245 -0.0369  0.0548
 9742DDP     C258450   7.935  13.646  25.710 -0.1672 -0.1095  0.4157
 9742DDP     C358451   7.708  12.993  24.562  0.0828 -0.1015 -0.2352
 9742DDP     C458452   7.093  12.727  25.636 -0.1654  0.0688 -0.3053
 9743DDP     C158453  11.288   3.447  15.897  0.0279  0.1372  0.3071
 9743DDP     P158454  11.245   3.238  15.484 -0.0392  0.0489 -0.0441
 9743DDP     P258455  11.637   3.797  15.963  0.0155 -0.1075 -0.2640
 9743DDP     C258456  11.871   4.207  16.044 -0.0678  0.0137  0.2189
 9743DDP     C358457  11.493   3.212  15.148 -0.0403  0.3623  0.0034
 9743DDP     C458458  11.012   3.666  15.982 -0.1037  0.0049  0.1232
 9744DDP     C158459  29.578  22.453  21.466 -0.0162  0.1339 -0.1622
 9744DDP     P158460  29.380  22.416  21.870 -0.3292  0.1745 -0.1468
 9744DDP     P258461  29.423  22.813  21.092  0.0691 -0.1998 -0.1735
 9744DDP     C258462  29.564  23.258  21.168 -0.1711  0.1654 -0.0243
 9744DDP     C358463  29.416  22.338  22.190  0.2535  0.1897  0.0196
 9744DDP     C458464  29.605  22.108  21.152 -0.3061 -0.0102 -0.2880
 9745DDP     C158465   1.880  27.880   7.006  0.3704  0.1389 -0.2506
 9745DDP     P158466   1.733  27.540   7.066  0.2691 -0.3619  0.0219
 9745DDP     P258467   2.286  27.956   7.029  0.0885 -0.1311 -0.2949
 9745DDP     C258468   2.427  28.414   7.197 -0.1842 -0.1621  0.0607
 9745DDP     C358469   1.438  27.106   6.943 -0.0435 -0.2209 -0.2674
 9745DDP     C458470   1.565  28.257   6.960 -0.0807  0.1427  0.4397
 9746DDP     C158471  21.429  18.120  14.721 -0.1936  0.0045 -0.0925
 9746DDP     P158472  21.358  17.860  15.063  0.1051 -0.1764 -0.2375
 9746DDP     P258473  21.698  18.055  14.461  0.0703  0.2890 -0.2402
 9746DDP     C258474  21.648  18.269  14.135  0.1131 -0.2372  0.1604
 9746DDP     C358475  21.655  17.576  15.322 -0.2093 -0.1257  0.2014
 9746DDP     C458476  21.501  18.555  14.735  0.0622 -0.3959  0.0641
 9747DDP     C158477   3.573  11.086  23.690  0.2558 -0.0040 -0.0666
 9747DDP     P158478   3.466  10.917  24.083 -0.3399 -0.1028 -0.0373
 9747DDP     P258479   3.204  11.196  23.408 -0.2184  0.2691 -0.0312
 9747DDP     C258480   2.942  11.429  23.094  0.0113  0.1300 -0.1230
 9747DDP     C358481   3.228  10.685  24.384 -0.0408  0.2200 -0.2061
 9747DDP     C458482   3.886  11.259  23.654  0.1144  0.0485 -0.0404
 9748DDP     C158483  11.812   1.387  23.532  0.0796 -0.3228 -0.1618
 9748DDP     P158484  11.512   1.479  23.363  0.4845  0.0294 -0.4659
 9748DDP     P258485  11.989   1.105  23.256 -0.1331 -0.1435 -0.1458
 9748DDP     C258486  11.889   0.836  22.927  0.0305 -0.6012  0.0799
 9748DDP     C358487  11.185   1.771  23.256  0.0640 -0.0581 -0.2993
 9748DDP     C458488  12.129   1.534  23.836  0.1378  0.3252  0.4358
 9749DDP     C158489  27.734   6.306  20.390 -0.0520  0.0160  0.0349
 9749DDP     P158490  27.898   6.673  20.142 -0.0132 -0.1779 -0.2254
 9749DDP     P258491  27.348   6.579  20.545  0.1315  0.0200  0.0955
 9749DDP     C258492  27.096   6.920  20.443 -0.1185 -0.0109 -0.2235
 9749DDP     C358493  27.980   6.884  19.733 -0.0453  0.2351 -0.1967
 9749DDP     C458494  27.892   5.957  20.630 -0.1345  0.1972 -0.0229
 9750DDP     C158495   9.919  19.977  22.645 -0.1744 -0.0065 -0.0303
 9750DDP     P158496   9.541  20.052  22.393 -0.2189 -0.3207 -0.0053
 9750DDP     P258497  10.193  20.145  22.949  0.1320 -0.1070  0.0126
 9750DDP     C258498  10.551  20.321  23.201 -0.4648  0.1344  0.4619
 9750DDP     C358499   9.478  20.289  22.035  0.0613  0.1329  0.1358
 9750DDP     C458500  10.107  19.522  22.506  0.0995  0.1154  0.4499
 9751DDP     C158501  23.759  13.310  14.718  0.1031 -0.2121  0.0437
 9751DDP     P158502  23.407  13.006  14.541  0.0935  0.1889  0.1558
 9751DDP     P258503  23.605  13.505  14.361 -0.1234 -0.0957 -0.0670
 9751DDP     C258504  23.472  13.525  13.944 -0.2044 -0.2295  0.5020
 9751DDP     C358505  23.101  12.828  14.377  0.2038  0.3305 -0.3493
 9751DDP     C458506  23.860  13.298  15.066 -0.0700 -0.1123 -0.0292
 9752DDP     C158507  13.702  28.128  14.594 -0.1223 -0.1673  0.1106
 9752DDP     P158508  13.399  27.872  14.691 -0.0379  0.2169 -0.1325
 9752DDP     P258509  13.516  28.489  14.621  0.0583  0.0621  0.0011
 9752DDP     C258510  13.238  28.847  14.707  0.0158  0.0519 -0.0343
 9752DDP     C358511  13.232  27.574  14.965 -0.0292 -0.3679 -0.0190
 9752DDP     C458512  14.120  27.918  14.253  0.3971 -0.1615  0.0483
 9753DDP     C158513   9.149  12.740  23.000  0.1178 -0.1462 -0.4173
 9753DDP     P158514   8.959  13.038  22.714 -0.0059  0.1655  0.0390
 9753DDP     P258515   9.363  12.450  22.785 -0.2487  0.0791  0.1674
 9753DDP     C258516   9.419  12.226  22.473 -0.0435 -0.0142  0.0412
 9753DDP     C358517   8.804  13.331  22.470  0.0097 -0.0472 -0.0735
 9753DDP     C458518   9.364  12.970  23.379 -0.1222  0.1245  0.0887
 9754DDP     C158519   9.449  24.570  21.749  0.4506  0.2911 -0.3553
 9754DDP     P158520   9.810  24.398  21.798 -0.0878 -0.0025  0.3163
 9754DDP     P258521   9.071  24.330  21.745 -0.1610  0.1381  0.3656
 9754DDP     C258522   8.567  24.530  21.797  0.2192  0.0296 -0.1154
 9754DDP     C358523   9.956  23.990  21.928 -0.1700  0.1031 -0.2033
 9754DDP     C458524   9.508  25.036  21.674 -0.1576 -0.0454  0.2510
 9755DDP     C158525  16.713  15.408  14.821  0.2678  0.2339 -0.2716
 9755DDP     P158526  16.882  15.085  14.810  0.3724  0.0789  0.0268
 9755DDP     P258527  16.276  15.356  14.882 -0.0498  0.1554  0.0636
 9755DDP     C258528  15.890  15.095  15.152 -0.0069  0.1195 -0.0113
 9755DDP     C358529  16.987  14.719  14.539  0.0252 -0.0782 -0.0286
 9755DDP     C458530  16.784  15.719  14.739  0.3573 -0.3026  0.0174
 9756DDP     C158531  22.125   1.784  17.605 -0.0276  0.3179  0.0601
 9756DDP     P158532  21.881   1.762  17.244 -0.0279  0.3669 -0.1286
 9756DDP     P258533  21.918   1.983  18.106 -0.1853  0.1715 -0.2379
 9756DDP     C258534  21.685   1.802  18.434  0.1165  0.1245 -0.0159
 9756DDP     C358535  21.550   1.742  17.010  0.0328 -0.1243 -0.0158
 9756DDP     C458536  22.606   1.857  17.579  0.0250  0.2211 -0.0741
 9757DDP     C158537  15.697   2.712   2.301 -0.0592 -0.1651  0.3019
 9757DDP     P158538  15.385   2.435   2.413 -0.0730  0.2330 -0.2419
 9757DDP     P258539  16.033   2.816   2.577  0.2483 -0.0937 -0.1158
 9757DDP     C258540  16.485   3.060   2.515 -0.0488 -0.1335 -0.0546
 9757DDP     C358541  15.187   1.999   2.482 -0.1446  0.2050 -0.3026
 9757DDP     C458542  15.800   2.746   1.867 -0.3262  0.1253  0.1442
 9758DDP     C158543  12.748  25.910   8.695  0.0540 -0.1010  0.0114
 9758DDP     P158544  12.889  26.061   8.314  0.0803 -0.0732 -0.2098
 9758DDP     P258545  13.054  25.871   9.110 -0.0919 -0.1739  0.0479
 9758DDP     C258546  13.313  26.082   9.558 -0.0186  0.0364 -0.0409
 9758DDP     C358547  13.101  26.277   7.966 -0.1441 -0.0496  0.0278
 9758DDP     C458548  12.389  25.752   8.705 -0.3599  0.3198  0.1805
 9759DDP     C158549   7.507   9.304  11.642  0.3719 -0.1059  0.1296
 9759DDP     P158550   7.113   9.208  11.763  0.1373  0.4852 -0.2775
 9759DDP     P258551   7.703   9.730  11.775  0.0012  0.0134 -0.2671
 9759DDP     C258552   8.160   9.583  11.889 -0.0918  0.1389 -0.1694
 9759DDP     C358553   6.668   9.106  11.729 -0.0270  0.1164  0.3537
 9759DDP     C458554   7.667   8.932  11.701 -0.0168 -0.1304 -0.1036
 9760DDP     C158555   0.094  16.922  14.058  0.0674  0.0805  0.1769
 9760DDP     P158556  30.200  17.247  13.768  0.1335 -0.0697 -0.3584
 9760DDP     P258557  30.022  16.783  14.239  0.0477  0.0773 -0.0516
 9760DDP     C258558  29.708  16.574  14.388  0.3170 -0.0107 -0.0427
 9760DDP     C358559  30.210  17.714  13.636  0.2308  0.2561 -0.0143
 9760DDP     C458560   0.547  17.023  14.038  0.2758  0.0400  0.3667
 9761DDP     C158561  11.631   0.767  11.613  0.0107  0.0483  0.0577
 9761DDP     P158562  11.638   1.205  11.668  0.1254 -0.0906  0.0388
 9761DDP     P258563  11.454   0.747  11.915 -0.1194  0.0148  0.0157
 9761DDP     C258564  11.279   0.660  12.231  0.0146  0.2573 -0.1678
 9761DDP     C358565  11.738   1.643  11.462  0.2335  0.0992  0.3727
 9761DDP     C458566  11.898   0.450  11.308  0.0339  0.1503 -0.3324
 9762DDP     C158567  15.081   9.229   5.985 -0.1110  0.1465 -0.2290
 9762DDP     P158568  14.971   8.810   6.256  0.0012 -0.2793  0.1034
 9762DDP     P258569  15.363   9.463   5.759  0.1554  0.1134  0.0153
 9762DDP     C258570  15.553   9.827   5.560 -0.0692  0.1134  0.1045
 9762DDP     C358571  14.901   8.546   6.583  0.0282 -0.4746 -0.4514
 9762DDP     C458572  14.734   9.211   5.751  0.2611 -0.1037  0.0286
 9763DDP     C158573  10.007  22.035   9.010 -0.0469  0.1450 -0.1525
 9763DDP     P158574   9.575  22.189   8.911 -0.0201 -0.0064  0.1434
 9763DDP     P258575  10.134  21.599   8.979  0.1458  0.1278  0.1938
 9763DDP     C258576  10.080  21.276   9.282 -0.1605 -0.2104  0.0905
 9763DDP     C358577   9.434  22.654   8.815  0.1147 -0.0509  0.0463
 9763DDP     C458578  10.427  22.215   9.161 -0.4057 -0.0218  0.0061
 9764DDP     C158579  11.623  21.650   1.663  0.1044  0.0999 -0.0799
 9764DDP     P158580  11.909  21.734   1.963  0.2282  0.2022  0.0950
 9764DDP     P258581  11.848  21.508   1.420 -0.3244 -0.1555  0.0638
 9764DDP     C258582  11.725  21.606   1.019  0.1318 -0.0045  0.1249
 9764DDP     C358583  12.323  21.786   1.989  0.3453 -0.0001 -0.0410
 9764DDP     C458584  11.099  21.785   1.683  0.2321 -0.1126 -0.0129
 9765DDP     C158585  12.402   0.582  16.801  0.4281 -0.2686 -0.2595
 9765DDP     P158586  12.187   0.837  17.281  0.0038 -0.1516 -0.4233
 9765DDP     P258587  12.264   0.786  16.365  0.0929 -0.0734  0.0656
 9765DDP     C258588  12.001   0.746  15.994  0.1948 -0.1430 -0.2463
 9765DDP     C358589  12.349   1.027  17.699 -0.1993  0.1894 -0.2323
 9765DDP     C458590  12.542   0.148  16.746  0.0384 -0.4271  0.1323
 9766DDP     C158591   1.275   1.797   4.446  0.2466  0.1342  0.0093
 9766DDP     P158592   1.235   1.959   4.113 -0.2505  0.2190  0.2911
 9766DDP     P258593   1.635   1.854   4.799  0.4082 -0.0922  0.1956
 9766DDP     C258594   1.984   1.782   5.047  0.0163 -0.0539 -0.2408
 9766DDP     C358595   1.301   2.046   3.613  0.2632  0.1165 -0.1834
 9766DDP     C458596   1.056   1.408   4.471 -0.0305 -0.2237 -0.0025
 9767DDP     C158597   5.339   5.114   6.182  0.0477 -0.3859  0.2203
 9767DDP     P158598   5.535   4.885   5.805 -0.2492  0.2104 -0.0679
 9767DDP     P258599   5.475   5.529   6.260  0.0977  0.1232 -0.2695
 9767DDP     C258600   5.461   6.067   6.452  0.0903  0.3876  0.0097
 9767DDP     C358601   5.962   5.080   5.590  0.2038 -0.1419  0.0726
 9767DDP     C458602   4.883   4.975   6.368 -0.1248 -0.0752  0.2537
 9768DDP     C158603  29.693  19.934   1.143  0.0274  0.2852 -0.2043
 9768DDP     P158604  29.725  19.781   0.798  0.1020 -0.0522 -0.0262
 9768DDP     P258605  30.068  19.843   1.491  0.0641  0.0417  0.0486
 9768DDP     C258606  30.302  19.498   1.629  0.0362  0.2291  0.1981
 9768DDP     C358607  29.778  19.361   0.604 -0.1478 -0.4081  0.0825
 9768DDP     C458608  29.425  20.208   1.078  0.3073  0.1115  0.2384
 9769DDP     C158609   1.409  10.772   1.517 -0.1023  0.3728 -0.1627
 9769DDP     P158610   1.512  10.827   2.011  0.1282 -0.0840  0.0972
 9769DDP     P258611   1.425  11.100   1.327 -0.0413 -0.1398 -0.1091
 9769DDP     C258612   1.285  11.549   1.263 -0.3634  0.0604 -0.0913
 9769DDP     C358613   1.795  10.516   2.142 -0.1046 -0.0645 -0.0962
 9769DDP     C458614   1.601  10.489   1.335  0.3080 -0.0368  0.1218
 9770DDP     C158615  10.363  30.118   2.887  0.0512 -0.0547  0.1649
 9770DDP     P158616  10.649  30.292   2.532  0.0993 -0.0338  0.1721
 9770DDP     P258617   9.950  30.196   2.883 -0.1306  0.1244  0.3790
 9770DDP     C258618   9.636   0.139   3.008 -0.2069  0.1179  0.0281
 9770DDP     C358619  10.967  30.228   2.269 -0.2072 -0.2691 -0.0444
 9770DDP     C458620  10.362  29.724   3.166  0.0164 -0.0961  0.2214
 9771DDP     C158621   2.055  18.571  14.021  0.3396  0.0352  0.0204
 9771DDP     P158622   1.854  18.923  14.318  0.0750 -0.0452 -0.0430
 9771DDP     P258623   2.215  18.279  14.241  0.1554 -0.2352  0.1426
 9771DDP     C258624   2.374  18.180  14.571  0.0221 -0.2479  0.0723
 9771DDP     C358625   1.440  19.256  14.488 -0.0922  0.1168  0.2318
 9771DDP     C458626   2.336  18.592  13.657  0.3436  0.4277 -0.0841
 9772DDP     C158627   7.813  11.029  18.551 -0.1901  0.0300  0.1042
 9772DDP     P158628   7.876  10.860  18.964 -0.0160 -0.2616  0.0226
 9772DDP     P258629   7.479  11.040  18.331  0.1987 -0.0654  0.2917
 9772DDP     C258630   7.048  10.975  18.248  0.0401  0.0079 -0.1262
 9772DDP     C358631   7.681  11.033  19.362 -0.0059 -0.1180  0.0614
 9772DDP     C458632   8.138  11.381  18.302 -0.1638 -0.2513  0.0956
 9773DDP     C158633  23.371  28.840  12.866 -0.1326 -0.1555 -0.0448
 9773DDP     P158634  23.790  28.833  13.055 -0.1434 -0.1564  0.0864
 9773DDP     P258635  23.055  28.694  13.187 -0.3010  0.1470 -0.2722
 9773DDP     C258636  22.798  28.442  13.226 -0.0453 -0.1515  0.3003
 9773DDP     C358637  24.224  28.833  12.802 -0.0877  0.0179  0.1858
 9773DDP     C458638  23.067  29.026  12.374  0.1874 -0.0152 -0.1540
 9774DDP     C158639   3.082  17.101  24.311  0.1773 -0.0263  0.0447
 9774DDP     P158640   3.133  17.440  24.078 -0.1588  0.0600 -0.3928
 9774DDP     P258641   2.938  17.157  24.752 -0.0653 -0.0048  0.4133
 9774DDP     C258642   2.598  17.294  25.094  0.4338  0.3295  0.0663
 9774DDP     C358643   3.120  17.674  23.716 -0.2066  0.0204 -0.1566
 9774DDP     C458644   3.369  16.766  24.227 -0.2598  0.0893 -0.0492
 9775DDP     C158645   8.683   8.757  13.379 -0.1752  0.2553 -0.4082
 9775DDP     P158646   9.155   8.539  13.451  0.3558  0.0579  0.3759
 9775DDP     P258647   8.608   8.751  13.018 -0.2425 -0.4043  0.0477
 9775DDP     C258648   8.398   8.656  12.547 -0.0468  0.1072 -0.1713
 9775DDP     C358649   9.251   8.105  13.624  0.2615 -0.2666  0.2230
 9775DDP     C458650   8.538   8.988  13.707 -0.0068 -0.2086  0.1099
 9776DDP     C158651   3.924  24.911  19.870  0.1387  0.0003  0.1675
 9776DDP     P158652   3.955  24.514  19.824  0.0252  0.0542 -0.1400
 9776DDP     P258653   3.633  25.081  19.629 -0.0420  0.0950 -0.1289
 9776DDP     C258654   3.275  25.085  19.457  0.1254  0.0243 -0.0137
 9776DDP     C358655   4.264  24.228  19.860 -0.1388  0.0477  0.1960
 9776DDP     C458656   4.074  24.946  20.316  0.0795  0.2183 -0.4766
 9777DDP     C158657  13.228  27.482   1.922  0.2184 -0.4440  0.2039
 9777DDP     P158658  12.866  27.083   1.862 -0.2162  0.1265 -0.1308
 9777DDP     P258659  13.196  27.688   2.418  0.0566 -0.0810 -0.2055
 9777DDP     C258660  13.176  28.081   2.683  0.1100  0.1630  0.0270
 9777DDP     C358661  12.778  26.726   1.516 -0.0453  0.1170  0.1616
 9777DDP     C458662  13.575  27.618   1.680  0.0789 -0.5628  0.0010
 9778DDP     C158663   8.154  18.597  25.808  0.2159 -0.1048  0.0544
 9778DDP     P158664   8.263  18.209  25.564 -0.1393 -0.0296 -0.1590
 9778DDP     P258665   8.177  19.014  25.722  0.2038  0.0016  0.0441
 9778DDP     C258666   8.232  19.403  25.504 -0.3092 -0.1635 -0.0422
 9778DDP     C358667   8.418  18.042  25.171  0.3820 -0.1456  0.1072
 9778DDP     C458668   7.908  18.405  26.136  0.0724 -0.0109  0.3934
 9779DDP     C158669  16.843   5.927   2.096 -0.3300 -0.3776  0.3251
 9779DDP     P158670  16.909   5.685   1.834 -0.1508 -0.3853  0.4100
 9779DDP     P258671  16.508   6.267   2.036 -0.1441 -0.1170 -0.0220
 9779DDP     C258672  16.427   6.592   1.694  0.0833  0.0629  0.0721
 9779DDP     C358673  16.911   5.782   1.342  0.3007 -0.0116 -0.0728
 9779DDP     C458674  17.114   5.886   2.489  0.0543 -0.0855 -0.0287
 9780DDP     C158675   0.083  22.938  26.384  0.0503  0.0036 -0.1941
 9780DDP     P158676   0.290  23.031  26.702  0.0537  0.0381  0.1129
 9780DDP     P258677  30.038  22.812  26.379  0.1043  0.1763  0.0208
 9780DDP     C258678  29.693  22.817  26.182  0.1614  0.1696 -0.2749
 9780DDP     C358679   0.103  22.901  27.092 -0.3300  0.2677  0.0312
 9780DDP     C458680   0.200  22.620  26.229 -0.3076 -0.1032 -0.0720
 9781DDP     C158681  11.736  15.516  19.821  0.0771  0.1333  0.0633
 9781DDP     P158682  11.995  15.093  19.805  0.1672 -0.0409  0.1004
 9781DDP     P258683  11.875  15.905  19.730 -0.2180  0.0251  0.0709
 9781DDP     C258684  12.009  16.362  19.677 -0.0814 -0.0551 -0.3434
 9781DDP     C358685  12.351  15.051  19.524 -0.0672 -0.0321  0.0035
 9781DDP     C458686  11.400  15.571  20.014  0.2997 -0.0705  0.0686
 9782DDP     C158687   8.057  18.164  24.795  0.2667  0.0599 -0.1690
 9782DDP     P158688   8.081  17.767  24.899  0.1331  0.1104 -0.1151
 9782DDP     P258689   7.749  18.414  24.484 -0.0778 -0.1603  0.1132
 9782DDP     C258690   7.850  18.631  24.101  0.0275  0.0100 -0.1677
 9782DDP     C358691   8.185  17.591  25.339 -0.1280  0.1340 -0.1892
 9782DDP     C458692   8.501  18.294  24.745 -0.0551  0.1561  0.0379
 9783DDP     C158693   6.317  18.117   7.212 -0.2382 -0.1066 -0.1179
 9783DDP     P158694   6.583  17.957   6.916  0.2503  0.0629 -0.2376
 9783DDP     P258695   6.203  18.507   7.139 -0.1562  0.1430 -0.1825
 9783DDP     C258696   6.222  18.949   7.186 -0.2161  0.0663  0.2039
 9783DDP     C358697   6.879  17.607   6.783  0.0817 -0.1056 -0.3119
 9783DDP     C458698   6.326  17.877   7.539  0.0643 -0.0202 -0.0743
 9784DDP     C158699  11.307   7.151  16.642 -0.0035 -0.1477  0.0203
 9784DDP     P158700  11.758   7.028  16.505  0.0951  0.0686  0.2604
 9784DDP     P258701  10.997   7.132  17.008  0.0984 -0.0722 -0.2523
 9784DDP     C258702  10.612   7.339  17.094 -0.0423  0.1862  0.0448
 9784DDP     C358703  11.937   6.571  16.570  0.1164 -0.0493  0.0759
 9784DDP     C458704  11.223   7.429  16.380 -0.1214 -0.4152  0.5966
 9785DDP     C158705  19.540  28.200  10.570  0.0113 -0.1217 -0.2083
 9785DDP     P158706  19.533  28.519  10.960  0.2220  0.2083  0.2350
 9785DDP     P258707  19.846  27.857  10.461 -0.3341  0.1706 -0.1731
 9785DDP     C258708  20.010  27.678  10.118 -0.2522  0.0330  0.1251
 9785DDP     C358709  19.308  28.899  11.087  0.0383  0.0905 -0.0763
 9785DDP     C458710  19.340  28.345  10.211  0.1517  0.3048  0.2211
 9786DDP     C158711   9.298  25.406   1.552 -0.1189 -0.2414  0.0157
 9786DDP     P158712   8.926  25.051   1.613 -0.1046  0.1608  0.1125
 9786DDP     P258713   9.487  25.544   1.184 -0.0269 -0.1123 -0.0105
 9786DDP     C258714   9.616  25.626   0.745  0.0172 -0.4261  0.1454
 9786DDP     C358715   8.457  25.221   1.430 -0.0488  0.2381 -0.0936
 9786DDP     C458716   9.252  25.788   1.595  0.0295 -0.0406  0.0857
 9787DDP     C158717  27.304   6.177  24.284 -0.2156  0.0436 -0.0249
 9787DDP     P158718  27.078   6.308  24.706  0.0277  0.0183 -0.0779
 9787DDP     P258719  27.131   5.868  24.014 -0.2329 -0.0644  0.1273
 9787DDP     C258720  27.107   5.580  23.673 -0.5384 -0.0583 -0.2764
 9787DDP     C358721  26.868   6.363  25.122 -0.1384 -0.0187 -0.0903
 9787DDP     C458722  27.553   6.437  24.232  0.3121  0.1185  0.2655
 9788DDP     C158723  27.518   7.413   7.026  0.1775  0.0006  0.1483
 9788DDP     P158724  27.578   7.620   6.677 -0.0067 -0.0480 -0.0330
 9788DDP     P258725  27.546   7.629   7.457 -0.2041  0.1409  0.0872
 9788DDP     C258726  27.648   8.045   7.584 -0.0048  0.0584 -0.0190
 9788DDP     C358727  27.708   7.630   6.353 -0.2291  0.3702  0.0760
 9788DDP     C458728  27.422   6.995   7.068 -0.3192  0.1704 -0.0170
 9789DDP     C158729  30.074  12.877  30.196  0.1681 -0.2413 -0.6555
 9789DDP     P158730  29.757  12.563  29.983  0.0016  0.1953  0.0431
 9789DDP     P258731  29.825  13.174   0.005 -0.0043 -0.0142 -0.3849
 9789DDP     C258732  29.786  13.052   0.511 -0.0737  0.1684  0.0275
 9789DDP     C358733  29.519  12.255  29.683 -0.2082 -0.2653 -0.2142
 9789DDP     C458734   0.208  12.782  30.085  0.4564 -0.1118  0.0356
 9790DDP     C158735   4.842   1.761  28.017  0.3149  0.2062 -0.1649
 9790DDP     P158736   4.698   1.420  28.258 -0.2251  0.3503 -0.1314
 9790DDP     P258737   4.808   1.713  27.533 -0.3712  0.3639 -0.2802
 9790DDP     C258738   4.594   1.921  27.227  0.0196  0.1054  0.2675
 9790DDP     C358739   4.491   1.326  28.581 -0.0185 -0.0320 -0.1615
 9790DDP     C458740   5.222   1.782  28.227  0.0414 -0.0726 -0.1031
 9791DDP     C158741  19.849  24.258   5.252  0.0400  0.3574  0.3901
 9791DDP     P158742  20.171  24.493   5.371 -0.3685  0.0644 -0.1041
 9791DDP     P258743  19.460  24.113   5.490 -0.0678 -0.3832 -0.1530
 9791DDP     C258744  19.094  24.276   5.222  0.4104  0.2414 -0.0669
 9791DDP     C358745  20.336  24.875   5.559  0.1988 -0.2643  0.0584
 9791DDP     C458746  19.885  24.152   4.817  0.1890  0.1114  0.1176
 9792DDP     C158747  24.605   7.411   9.584 -0.1305 -0.3486  0.4453
 9792DDP     P158748  24.162   7.344   9.515 -0.2062 -0.1971 -0.2581
 9792DDP     P258749  24.818   7.217   9.922  0.1385  0.0533  0.3457
 9792DDP     C258750  24.904   7.167  10.264 -0.2249 -0.0246  0.1061
 9792DDP     C358751  23.857   7.614   9.243  0.1571 -0.0594  0.0007
 9792DDP     C458752  24.892   7.741   9.510 -0.3912  0.0068 -0.1307
 9793DDP     C158753  23.709  22.398  16.810 -0.2518  0.0852  0.0790
 9793DDP     P158754  23.891  22.590  16.499  0.1726 -0.3215 -0.1916
 9793DDP     P258755  23.919  22.518  17.235  0.1588 -0.2262 -0.1604
 9793DDP     C258756  24.137  22.847  17.532 -0.2093 -0.1017 -0.1745
 9793DDP     C358757  24.143  22.679  16.118 -0.0098  0.2784  0.2740
 9793DDP     C458758  23.300  22.264  16.920 -0.0708 -0.2605  0.1716
 9794DDP     C158759   6.184   0.345   4.270  0.1745 -0.2449  0.1334
 9794DDP     P158760   6.528   0.560   4.221  0.0098 -0.0187  0.2151
 9794DDP     P258761   6.126  30.174   4.112 -0.1289  0.2516 -0.0470
 9794DDP     C258762   6.182  29.732   4.115 -0.0069 -0.0755  0.1583
 9794DDP     C358763   6.770   0.959   4.314  0.0931  0.1776 -0.1503
 9794DDP     C458764   5.938   0.445   4.654  0.1067 -0.2272 -0.2337
 9795DDP     C158765  21.030  23.796  26.885  0.1533 -0.3978 -0.1791
 9795DDP     P158766  21.326  23.948  26.652  0.0271 -0.1540  0.0262
 9795DDP     P258767  20.882  23.384  27.022  0.3016  0.1212  0.1150
 9795DDP     C258768  20.525  23.108  26.840  0.1064  0.1288 -0.0129
 9795DDP     C358769  21.519  23.698  26.381 -0.0233  0.1922  0.2820
 9795DDP     C458770  20.679  24.093  27.057  0.1690 -0.0209  0.0882
 9796DDP     C158771   0.673   3.340  24.530 -0.1188 -0.0175  0.1811
 9796DDP     P158772   0.970   3.055  24.455  0.3998  0.0134  0.4538
 9796DDP     P258773   0.299   3.448  24.380  0.0628  0.0557  0.1128
 9796DDP     C258774  30.239   3.573  24.535  0.0134  0.0143  0.0733
 9796DDP     C358775   1.117   2.688  24.208  0.1879 -0.1916  0.2395
 9796DDP     C458776   0.857   3.718  24.614  0.0108  0.2013  0.0877
 9797DDP     C158777   2.272  23.449   0.392  0.3620 -0.3508 -0.3180
 9797DDP     P158778   1.900  23.339   0.556  0.3424  0.0105 -0.1926
 9797DDP     P258779   2.164  23.906   0.458  0.1267  0.3103  0.3727
 9797DDP     C258780   2.263  24.156   0.828 -0.0401  0.2999  0.2669
 9797DDP     C358781   1.467  23.482   0.711 -0.3539  0.0558  0.2595
 9797DDP     C458782   2.648  23.220   0.580  0.1487  0.0527  0.3435
 9798DDP     C158783   4.049   8.428  27.459  0.1073  0.0980 -0.0171
 9798DDP     P158784   4.407   8.591  27.191 -0.0405  0.0303 -0.0793
 9798DDP     P258785   3.641   8.686  27.512  0.0487  0.0664 -0.0477
 9798DDP     C258786   3.173   8.740  27.511  0.0195 -0.1392 -0.1841
 9798DDP     C358787   4.603   8.995  27.135 -0.1018  0.0566  0.1062
 9798DDP     C458788   4.004   7.882  27.524 -0.0606 -0.1723 -0.1909
 9799DDP     C158789  12.552  11.436   3.943 -0.1202  0.0065 -0.0023
 9799DDP     P158790  12.660  11.448   3.520  0.0839 -0.0901  0.1753
 9799DDP     P258791  12.813  11.181   4.103  0.0955  0.1604 -0.3081
 9799DDP     C258792  13.284  11.040   4.071  0.0117  0.1341 -0.0313
 9799DDP     C358793  12.628  11.129   3.211 -0.0005  0.1717  0.0439
 9799DDP     C458794  12.051  11.474   4.041 -0.1496  0.0620  0.2346
 9800DDP     C158795  17.075  18.585  23.882  0.0275  0.0915 -0.0922
 9800DDP     P158796  16.769  18.396  24.152 -0.0852  0.1609  0.0750
 9800DDP     P258797  17.007  18.859  23.680 -0.0239  0.0311 -0.1223
 9800DDP     C258798  16.971  18.949  23.222 -0.0059  0.1252  0.0349
 9800DDP     C358799  16.447  18.569  24.498  0.0625  0.0095 -0.0893
 9800DDP     C458800  17.354  18.250  23.802  0.0022 -0.1911  0.0081
 9801DDP     C158801   0.990  18.132  19.186 -0.2335  0.1646 -0.1971
 9801DDP     P158802   0.619  18.309  19.406  0.0734 -0.0577 -0.2454
 9801DDP     P258803   0.974  17.909  18.787 -0.1764 -0.2238  0.0983
 9801DDP     C258804   0.879  18.020  18.314 -0.0507  0.0859 -0.0595
 9801DDP     C358805   0.357  18.649  19.400  0.0295 -0.0526  0.3772
 9801DDP     C458806   1.296  18.463  19.185  0.2418 -0.0311  0.1429
 9802DDP     C158807  24.936  13.190  24.655  0.0841  0.0801  0.0170
 9802DDP     P158808  25.105  13.594  24.484  0.0613  0.0507 -0.0683
 9802DDP     P258809  24.526  13.174  24.895 -0.2396 -0.1897 -0.0521
 9802DDP     C258810  24.077  13.265  24.806  0.1437 -0.2703  0.2365
 9802DDP     C358811  25.256  13.618  24.083  0.1782  0.2795 -0.0569
 9802DDP     C458812  25.233  12.816  24.674  0.1728  0.0088  0.1229
 9803DDP     C158813   5.550   1.471  27.879  0.0455  0.0486  0.1213
 9803DDP     P158814   5.302   1.384  27.544 -0.2339  0.1431  0.1424
 9803DDP     P258815   5.414   1.347  28.361 -0.2922  0.1275  0.0693
 9803DDP     C258816   5.422   1.022  28.675 -0.1683 -0.1100 -0.0496
 9803DDP     C358817   5.375   1.307  27.115  0.0182  0.3228  0.1882
 9803DDP     C458818   6.016   1.450  27.806 -0.0935 -0.2191 -0.1592
 9804DDP     C158819  10.927   3.722  13.669 -0.3231 -0.1137 -0.1747
 9804DDP     P158820  11.071   3.384  13.516 -0.1892  0.2945 -0.1587
 9804DDP     P258821  10.960   3.816  14.081  0.1317  0.1559 -0.2971
 9804DDP     C258822  10.683   3.879  14.400  0.1890  0.2627 -0.1355
 9804DDP     C358823  11.127   3.434  13.187  0.2268 -0.2202  0.1763
 9804DDP     C458824  10.866   4.061  13.451  0.0604  0.0020 -0.0473
 9805DDP     C158825   9.903   5.982   3.495 -0.1668 -0.2371  0.4551
 9805DDP     P158826  10.143   6.135   3.085 -0.4856 -0.4045 -0.1582
 9805DDP     P258827  10.068   5.690   3.805  0.0471 -0.0306  0.3296
 9805DDP     C258828   9.948   5.556   4.218  0.0958  0.2066 -0.0507
 9805DDP     C358829  10.364   6.039   2.728 -0.0818 -0.1565  0.0862
 9805DDP     C458830   9.560   6.119   3.566  0.0943  0.0165  0.3055
 9806DDP     C158831   6.406   2.033  23.454 -0.3117  0.3579 -0.0384
 9806DDP     P158832   6.331   1.639  23.586  0.2876 -0.1143  0.3128
 9806DDP     P258833   6.260   2.407  23.168 -0.0776  0.2774  0.0873
 9806DDP     C258834   6.535   2.684  22.746 -0.0455 -0.0894  0.0644
 9806DDP     C358835   6.595   1.284  23.351 -0.0144 -0.2234 -0.3651
 9806DDP     C458836   6.862   1.822  23.184 -0.0059 -0.3072 -0.2307
 9807DDP     C158837   9.016  11.380  30.217  0.0894 -0.0429  0.2562
 9807DDP     P158838   8.639  11.554  30.004  0.0206  0.1132 -0.3223
 9807DDP     P258839   9.117  11.248  29.839  0.2082 -0.0321  0.0115
 9807DDP     C258840   9.447  11.007  29.461 -0.1229  0.3584 -0.0546
 9807DDP     C358841   8.228  11.743  30.003  0.1628 -0.0278  0.0081
 9807DDP     C458842   9.389  11.430   0.124  0.1283 -0.0703 -0.0328
 9808DDP     C158843  21.730   8.564  21.077  0.0290  0.1450  0.0202
 9808DDP     P158844  21.532   8.993  20.693 -0.1875  0.1993  0.0667
 9808DDP     P258845  21.686   8.199  20.958  0.0247  0.2233 -0.3749
 9808DDP     C258846  21.637   7.670  21.082 -0.0513 -0.0812  0.3266
 9808DDP     C358847  21.226   8.887  20.262 -0.3634 -0.1831  0.5224
 9808DDP     C458848  21.974   8.706  21.435 -0.0458 -0.2967  0.2721
 9809DDP     C158849  13.175  19.638  14.525  0.0570 -0.0467 -0.3212
 9809DDP     P158850  13.471  19.945  14.488 -0.2859 -0.0129 -0.0712
 9809DDP     P258851  12.853  19.822  14.849 -0.1122  0.3071  0.1761
 9809DDP     C258852  12.860  20.046  15.218 -0.1685  0.1319 -0.1309
 9809DDP     C358853  13.591  20.373  14.508  0.0867  0.0566 -0.1335
 9809DDP     C458854  13.146  19.501  14.113 -0.4129 -0.0294 -0.0646
 9810DDP     C158855  17.765   0.571  29.342 -0.2424 -0.1209 -0.0340
 9810DDP     P158856  17.614   0.619  28.984  0.2868 -0.4753  0.3461
 9810DDP     P258857  17.916   0.145  29.575  0.1245 -0.1136 -0.0955
 9810DDP     C258858  17.887  30.096  29.472  0.1966  0.0286  0.0161
 9810DDP     C358859  17.570   0.933  28.652  0.1276 -0.2270 -0.0608
 9810DDP     C458860  17.576   0.928  29.516 -0.0839 -0.0322 -0.1511
 9811DDP     C158861   4.462  26.551   0.906 -0.2811  0.1972  0.1008
 9811DDP     P158862   4.268  26.767   1.227  0.1047 -0.2437 -0.2629
 9811DDP     P258863   4.896  26.497   0.850  0.3579  0.0283  0.0775
 9811DDP     C258864   5.186  26.162   0.840  0.4195 -0.0648  0.1468
 9811DDP     C358865   4.089  27.015   1.534 -0.1414  0.0082 -0.1628
 9811DDP     C458866   4.227  26.218   0.714  0.2472  0.2030 -0.1501
 9812DDP     C158867   6.666  26.618  27.017 -0.0555 -0.0283 -0.1473
 9812DDP     P158868   7.028  26.622  26.700 -0.0949  0.0988 -0.2332
 9812DDP     P258869   6.471  26.300  27.056  0.0086  0.1486 -0.0603
 9812DDP     C258870   6.222  25.843  27.180 -0.0275  0.0663  0.1380
 9812DDP     C358871   7.486  26.510  26.848  0.0051 -0.2764  0.3219
 9812DDP     C458872   6.686  26.951  27.347 -0.1931  0.1815 -0.0631
 9813DDP     C158873   3.802   0.486  19.605  0.1822  0.0426  0.2467
 9813DDP     P158874   4.065   0.365  19.252 -0.0966  0.0758 -0.2273
 9813DDP     P258875   3.975   0.640  20.056  0.0554  0.0088 -0.1323
 9813DDP     C258876   4.115   0.447  20.466 -0.2238 -0.1167  0.1966
 9813DDP     C358877   4.037  -0.032  19.030  0.0489 -0.3258  0.0535
 9813DDP     C458878   3.301   0.484  19.449  0.2236  0.0004  0.1008
 9814DDP     C158879   0.135   1.368   2.138  0.2198  0.3113 -0.0579
 9814DDP     P158880   0.037   1.737   2.202  0.0124 -0.2562  0.0449
 9814DDP     P258881   0.551   1.145   2.326  0.0461  0.2303  0.1001
 9814DDP     C258882   0.976   1.189   2.372  0.2365 -0.0483  0.1393
 9814DDP     C358883   0.229   2.155   2.353  0.1272 -0.0145 -0.3151
 9814DDP     C458884  30.154   1.269   1.836  0.0323  0.0993  0.0999
 9815DDP     C158885  22.233   1.286  19.652 -0.0454  0.0509 -0.0336
 9815DDP     P158886  21.905   1.049  19.779 -0.0406 -0.1152 -0.3120
 9815DDP     P258887  22.242   1.627  19.488  0.1661 -0.0122  0.1842
 9815DDP     C258888  22.207   2.051  19.381 -0.0813  0.0817  0.2769
 9815DDP     C358889  21.909   0.776  20.189  0.1425  0.0749  0.1567
 9815DDP     C458890  22.653   1.206  19.557 -0.0647 -0.1788 -0.0272
 9816DDP     C158891  29.367  18.612  25.958 -0.0427  0.0396  0.0414
 9816DDP     P158892  29.122  18.724  26.286 -0.2732  0.1315  0.1672
 9816DDP     P258893  29.291  18.453  25.667 -0.0869  0.2831 -0.2843
 9816DDP     C258894  28.909  18.477  25.547 -0.2225  0.1608  0.1674
 9816DDP     C358895  28.941  18.909  26.665  0.3650  0.0627  0.0245
 9816DDP     C458896  29.606  18.867  25.889  0.1558  0.0576  0.1729
 9817DDP     C158897   6.794  12.475  22.101  0.0525 -0.0356  0.0173
 9817DDP     P158898   6.783  12.748  21.768  0.1627 -0.1182 -0.1179
 9817DDP     P258899   6.799  12.052  21.889 -0.0064 -0.0154  0.1756
 9817DDP     C258900   7.035  11.643  22.071  0.0258  0.0263 -0.2679
 9817DDP     C358901   6.330  12.816  21.611 -0.1599 -0.0483 -0.0789
 9817DDP     C458902   6.787  12.578  22.631 -0.1097 -0.2201  0.3198
 9818DDP     C158903  23.771  28.045  21.768  0.1145  0.0620 -0.0643
 9818DDP     P158904  23.848  27.654  21.535 -0.0220  0.0385  0.3279
 9818DDP     P258905  24.149  28.274  21.788  0.2102 -0.0635 -0.0401
 9818DDP     C258906  24.412  28.473  21.374 -0.0840 -0.1044 -0.0537
 9818DDP     C358907  23.801  27.584  21.025 -0.1383  0.0415  0.2149
 9818DDP     C458908  23.399  27.939  21.978  0.0392 -0.1127 -0.2224
 9819DDP     C158909  23.080  26.158  17.130  0.3561 -0.2181 -0.1505
 9819DDP     P158910  23.136  25.772  16.888  0.0454 -0.0768 -0.3662
 9819DDP     P258911  23.390  26.353  17.297 -0.0526  0.0806 -0.0106
 9819DDP     C258912  23.643  26.696  17.362  0.0970  0.1415  0.1788
 9819DDP     C358913  22.964  25.336  17.043 -0.0085 -0.0826  0.0168
 9819DDP     C458914  22.807  26.506  17.338  0.2303 -0.0530 -0.2313
 9820DDP     C158915  23.973   3.078  13.683 -0.1454  0.1632 -0.1751
 9820DDP     P158916  24.321   3.122  13.253 -0.0670 -0.0103  0.0261
 9820DDP     P258917  23.619   3.062  13.565  0.1284 -0.0218  0.0682
 9820DDP     C258918  23.178   2.942  13.607  0.4284  0.0036 -0.1328
 9820DDP     C358919  24.624   3.424  13.138 -0.1817  0.2568  0.0451
 9820DDP     C458920  23.998   3.121  14.167  0.2613 -0.1388  0.1590
 9821DDP     C158921   9.796  18.183   8.147  0.1183 -0.2267  0.4154
 9821DDP     P158922   9.952  18.570   8.312  0.0643  0.2171 -0.0379
 9821DDP     P258923  10.058  18.045   7.675  0.2606 -0.4165 -0.0049
 9821DDP     C258924  10.430  17.889   7.445  0.1034 -0.1899  0.3006
 9821DDP     C358925   9.684  18.980   8.337 -0.0955 -0.0683 -0.0477
 9821DDP     C458926   9.527  17.800   8.320  0.1274  0.0293 -0.0280
 9822DDP     C158927  16.231  19.420  14.690  0.0247 -0.2352 -0.0763
 9822DDP     P158928  16.592  19.674  14.601 -0.0735  0.0691  0.0220
 9822DDP     P258929  16.029  19.463  14.270 -0.2960  0.1452  0.1746
 9822DDP     C258930  15.624  19.523  14.014  0.0011  0.2415  0.2544
 9822DDP     C358931  17.064  19.489  14.620 -0.1712  0.0271  0.0479
 9822DDP     C458932  15.973  19.293  15.108 -0.0417  0.0608 -0.0731
 9823DDP     C158933  25.047  23.469  27.933  0.1100  0.2500 -0.2164
 9823DDP     P158934  25.020  23.934  27.856 -0.2411  0.0698 -0.0612
 9823DDP     P258935  24.856  23.072  28.206 -0.0769 -0.2126  0.1301
 9823DDP     C258936  24.616  22.763  28.197 -0.0531 -0.2841  0.2168
 9823DDP     C358937  24.640  24.155  27.672  0.2073  0.3941 -0.1942
 9823DDP     C458938  25.210  23.241  27.515 -0.0271  0.1463 -0.0277
 9824DDP     C158939   1.372  21.334   2.328 -0.1203  0.3237 -0.2872
 9824DDP     P158940   1.050  21.278   2.497 -0.0852  0.1616  0.0240
 9824DDP     P258941   1.600  20.997   2.212 -0.3146  0.1404 -0.0676
 9824DDP     C258942   1.971  20.991   1.935  0.2482 -0.0509 -0.4631
 9824DDP     C358943   1.025  21.066   2.870 -0.2319 -0.1239  0.0018
 9824DDP     C458944   1.624  21.674   2.287  0.0197 -0.1560 -0.1936
 9825DDP     C158945   2.175  14.188  15.889  0.2774  0.2553  0.0411
 9825DDP     P158946   2.224  14.174  16.308 -0.2362 -0.1497 -0.1270
 9825DDP     P258947   2.413  14.601  15.680  0.2184  0.1358  0.2731
 9825DDP     C258948   2.491  15.011  15.717  0.1803 -0.0619 -0.1284
 9825DDP     C358949   2.541  14.178  16.648  0.2150  0.1694  0.2371
 9825DDP     C458950   1.848  13.817  15.725  0.1361 -0.1009 -0.1665
 9826DDP     C158951  12.490  21.623   2.897 -0.0107 -0.0793 -0.0107
 9826DDP     P158952  12.172  21.363   2.898  0.0388  0.3034 -0.0017
 9826DDP     P258953  12.837  21.439   2.631 -0.1235  0.1823 -0.1884
 9826DDP     C258954  13.294  21.481   2.853  0.1129  0.3371 -0.1674
 9826DDP     C358955  11.960  21.107   3.088  0.4594  0.2135 -0.1584
 9826DDP     C458956  12.550  21.931   3.117  0.0137  0.0604 -0.0036
 9827DDP     C158957  26.560  18.713   3.130  0.3035  0.0472 -0.2811
 9827DDP     P158958  26.920  18.423   3.180  0.0497  0.0071  0.1558
 9827DDP     P258959  26.185  18.450   2.927  0.2058  0.2797 -0.1124
 9827DDP     C258960  26.029  18.218   2.675 -0.0115  0.0841  0.0888
 9827DDP     C358961  27.230  18.280   3.212  0.0336 -0.0175  0.1896
 9827DDP     C458962  26.732  19.207   3.099  0.1884 -0.0998 -0.2206
 9828DDP     C158963   3.015   3.750   3.648 -0.2423 -0.1087 -0.1075
 9828DDP     P158964   3.183   4.002   3.959  0.4102  0.0440  0.1848
 9828DDP     P258965   2.698   3.972   3.412 -0.1969  0.0698 -0.0814
 9828DDP     C258966   2.188   3.970   3.428  0.0464  0.0086 -0.0655
 9828DDP     C358967   3.441   4.307   4.224 -0.0037  0.1964  0.0171
 9828DDP     C458968   2.809   3.373   3.862 -0.2584 -0.0625 -0.0627
 9829DDP     C158969  20.928   7.151  19.695 -0.2365  0.2735 -0.1157
 9829DDP     P158970  21.257   7.046  19.894 -0.1457  0.0595  0.1353
 9829DDP     P258971  21.169   7.344  19.374  0.2610  0.0621 -0.1982
 9829DDP     C258972  21.589   7.534  19.094 -0.0646  0.1266  0.1689
 9829DDP     C358973  21.392   7.158  20.294 -0.0326  0.2842 -0.2322
 9829DDP     C458974  20.468   6.918  19.882 -0.0677  0.1368  0.0937
 9830DDP     C158975   3.048  11.643   2.594 -0.2073  0.1798  0.0327
 9830DDP     P158976   2.891  11.300   2.334  0.1415 -0.2902 -0.0141
 9830DDP     P258977   3.331  11.955   2.848  0.1077  0.1025 -0.3302
 9830DDP     C258978   3.417  12.367   2.787  0.3010 -0.3557 -0.1924
 9830DDP     C358979   2.487  11.280   2.116  0.0529  0.2154 -0.1428
 9830DDP     C458980   2.767  11.821   2.763  0.0700  0.3579 -0.2015
 9831DDP     C158981  20.395   6.468  29.100 -0.1853  0.1381 -0.3283
 9831DDP     P158982  20.746   6.667  28.968  0.0225  0.1000 -0.4355
 9831DDP     P258983  20.561   6.450  29.409  0.0620  0.1494  0.1251
 9831DDP     C258984  20.786   6.420  29.811 -0.1118  0.1519 -0.0045
 9831DDP     C358985  21.090   6.846  28.777 -0.1803 -0.3580  0.0141
 9831DDP     C458986  19.980   6.520  28.994 -0.1579 -0.3103  0.0231
 9832DDP     C158987  14.278  22.759   4.673  0.0336 -0.0217  0.2183
 9832DDP     P158988  14.415  22.773   5.089  0.0879 -0.1445 -0.0844
 9832DDP     P258989  14.509  22.940   4.265 -0.0104 -0.1795  0.3234
 9832DDP     C258990  14.528  23.353   4.153  0.0590 -0.2131  0.4302
 9832DDP     C358991  14.479  23.014   5.521 -0.1420 -0.0808 -0.1808
 9832DDP     C458992  13.927  22.383   4.752 -0.0506 -0.1899 -0.0057
 9833DDP     C158993  22.766  14.816  27.944 -0.1489  0.1123 -0.0971
 9833DDP     P158994  22.814  14.606  28.286 -0.2618 -0.1498 -0.0150
 9833DDP     P258995  22.758  15.117  28.153  0.2584 -0.1556 -0.0784
 9833DDP     C258996  22.645  15.157  28.510  0.0319 -0.2075  0.3308
 9833DDP     C358997  22.673  14.517  28.789 -0.0278  0.0562 -0.0028
 9833DDP     C458998  22.925  14.928  27.612  0.0405  0.2015 -0.2309
 9834DDP     C158999  27.842  25.641   3.097 -0.1900  0.1272 -0.3061
 9834DDP     P159000  27.875  26.025   3.232 -0.4108 -0.0971  0.2756
 9834DDP     P259001  28.003  25.395   3.435  0.5297 -0.1245  0.3122
 9834DDP     C259002  28.159  25.026   3.520  0.0793  0.1511  0.0144
 9834DDP     C359003  27.605  26.425   3.218  0.0428 -0.0246  0.0850
 9834DDP     C459004  27.778  25.631   2.627  0.3065  0.1445  0.3061
 9835DDP     C159005   5.044  15.538  22.129 -0.0849  0.0244  0.1653
 9835DDP     P159006   5.127  15.112  21.861 -0.0682  0.0671 -0.2742
 9835DDP     P259007   5.311  15.658  22.454 -0.0463 -0.2219 -0.1142
 9835DDP     C259008   5.697  15.881  22.659 -0.1097 -0.2749 -0.1915
 9835DDP     C359009   5.043  14.622  21.883  0.0642  0.1720  0.0400
 9835DDP     C459010   4.857  15.968  21.959 -0.0213 -0.1027 -0.1950
 9836DDP     C159011  11.097  19.777  20.596  0.0770 -0.0202  0.1614
 9836DDP     P159012  10.948  20.210  20.580 -0.0430 -0.0784  0.0376
 9836DDP     P259013  10.786  19.543  20.825  0.1527 -0.1215 -0.0485
 9836DDP     C259014  10.390  19.647  21.100  0.0730  0.0820  0.2323
 9836DDP     C359015  11.001  20.474  20.968  0.0814  0.2234 -0.1247
 9836DDP     C459016  11.538  19.603  20.626 -0.0071 -0.2114  0.1485
 9837DDP     C159017  20.767  23.111  13.194 -0.0726 -0.1554 -0.4330
 9837DDP     P159018  20.807  23.475  12.971  0.1442  0.0634  0.0251
 9837DDP     P259019  20.393  23.118  13.458 -0.0522  0.3134 -0.0967
 9837DDP     C259020  19.999  23.282  13.588  0.0807  0.3892  0.0478
 9837DDP     C359021  20.922  23.414  12.560 -0.2304  0.2181 -0.1045
 9837DDP     C459022  20.991  22.724  13.039 -0.0513  0.0330 -0.0331
 9838DDP     C159023  15.438  26.151  29.726  0.0588 -0.0619  0.0332
 9838DDP     P159024  15.567  25.715  29.843 -0.1294 -0.1389  0.2366
 9838DDP     P259025  15.726  26.128  29.379 -0.2884  0.2188  0.0855
 9838DDP     C259026  16.043  25.827  29.295  0.1411  0.0470 -0.3751
 9838DDP     C359027  15.660  25.299  29.836  0.0852  0.1639  0.0021
 9838DDP     C459028  15.203  26.492  29.897  0.0310  0.2301  0.3556
 9839DDP     C159029  -0.017   4.583   9.396 -0.0447 -0.0147  0.1332
 9839DDP     P159030  30.115   4.993   9.352 -0.0204  0.0821 -0.1887
 9839DDP     P259031  30.105   4.241   9.121  0.0890 -0.1848 -0.3089
 9839DDP     C259032  29.777   4.039   8.998 -0.1035 -0.1973 -0.1574
 9839DDP     C359033  29.553   4.965   9.293 -0.3144  0.1926 -0.1623
 9839DDP     C459034   0.394   4.451   9.676  0.0753 -0.1287  0.0572
 9840DDP     C159035  20.995   8.516   4.935  0.0748 -0.1963  0.2615
 9840DDP     P159036  21.260   8.824   4.948  0.2010 -0.0978  0.0268
 9840DDP     P259037  21.036   8.253   5.267 -0.1661  0.1511  0.2485
 9840DDP     C259038  21.346   8.283   5.702  0.3353  0.4306 -0.0260
 9840DDP     C359039  21.408   9.236   5.083  0.1775  0.1193 -0.3942
 9840DDP     C459040  20.681   8.812   4.873 -0.0372  0.3661  0.1974
 9841DDP     C159041  13.513  26.530   5.114 -0.0145 -0.0508 -0.2864
 9841DDP     P159042  13.254  26.861   4.974 -0.1883 -0.1536 -0.3409
 9841DDP     P259043  13.555  26.316   4.712 -0.0640 -0.0951  0.1948
 9841DDP     C259044  13.464  26.320   4.262 -0.3061  0.1556 -0.1425
 9841DDP     C359045  13.179  26.880   4.493  0.4416  0.3653  0.2309
 9841DDP     C459046  13.783  26.435   5.447  0.2457  0.1184  0.1165
 9842DDP     C159047  28.915  16.173  18.372  0.0788 -0.0828 -0.4471
 9842DDP     P159048  28.463  16.265  18.346 -0.1457 -0.2519 -0.2001
 9842DDP     P259049  29.028  15.782  18.240  0.1787  0.0758 -0.1865
 9842DDP     C259050  28.944  15.336  18.158 -0.0657  0.2130  0.0241
 9842DDP     C359051  28.026  16.038  18.156 -0.1899 -0.0328  0.1376
 9842DDP     C459052  29.266  16.364  18.555 -0.5006 -0.0774 -0.2197
 9843DDP     C159053   6.287  10.662  19.751  0.0713  0.0219  0.0492
 9843DDP     P159054   6.251  10.956  19.406  0.0262  0.2450 -0.1644
 9843DDP     P259055   6.377  10.208  19.883  0.0981  0.2193  0.2780
 9843DDP     C259056   6.533   9.786  19.895  0.0879 -0.1870 -0.1418
 9843DDP     C359057   5.825  10.919  19.170  0.0007  0.1762  0.1775
 9843DDP     C459058   6.327  11.038  20.045  0.1520  0.2538  0.1185
 9844DDP     C159059   5.310   3.997   9.957 -0.2520  0.0033 -0.1451
 9844DDP     P159060   5.194   3.721   9.588 -0.0718  0.0609  0.4206
 9844DDP     P259061   5.732   3.910  10.023  0.2393 -0.1050  0.1023
 9844DDP     C259062   6.108   4.097  10.307  0.0559  0.1872 -0.1267
 9844DDP     C359063   5.245   3.368   9.392 -0.2020 -0.3789  0.3256
 9844DDP     C459064   4.927   4.029  10.165 -0.1569  0.0335 -0.0392
 9845DDP     C159065  23.205  14.863   9.480 -0.2206 -0.1174 -0.0366
 9845DDP     P159066  23.388  14.644   9.819 -0.2325 -0.1118 -0.2380
 9845DDP     P259067  23.449  15.202   9.320 -0.1108 -0.1291  0.0365
 9845DDP     C259068  23.393  15.491   8.815  0.0279 -0.2056 -0.0535
 9845DDP     C359069  23.232  14.347  10.019 -0.2221  0.1575 -0.0708
 9845DDP     C459070  22.782  14.863   9.309  0.0026  0.0798  0.1316
 9846DDP     C159071  20.868  19.064  25.683 -0.1106  0.1051 -0.0508
 9846DDP     P159072  21.168  19.334  25.526  0.3601 -0.2479  0.3185
 9846DDP     P259073  20.385  19.181  25.720 -0.1314 -0.0542 -0.1011
 9846DDP     C259074  20.061  19.561  25.901 -0.2665 -0.1357  0.0550
 9846DDP     C359075  21.514  19.238  25.407  0.1528 -0.1787 -0.0876
 9846DDP     C459076  20.947  18.697  25.836 -0.1222  0.1037 -0.0379
 9847DDP     C159077  12.709  27.474   5.676  0.0374  0.3468  0.0433
 9847DDP     P159078  12.575  27.336   5.265 -0.3140  0.0265 -0.0118
 9847DDP     P259079  13.174  27.534   5.534  0.0247  0.2494 -0.1226
 9847DDP     C259080  13.433  27.783   5.211 -0.1611 -0.3523 -0.0669
 9847DDP     C359081  12.552  27.424   4.868 -0.0946  0.0151 -0.0421
 9847DDP     C459082  12.522  27.549   6.075  0.2298  0.1682 -0.3935
 9848DDP     C159083  21.486   1.294  27.230 -0.1638  0.0319 -0.1163
 9848DDP     P159084  21.869   1.184  27.449 -0.0902  0.3033  0.1214
 9848DDP     P259085  21.503   1.602  26.958 -0.0209  0.1762 -0.2288
 9848DDP     C259086  21.288   1.837  26.690 -0.0029  0.3559  0.3413
 9848DDP     C359087  22.119   1.074  27.757  0.1682 -0.1515  0.0971
 9848DDP     C459088  21.208   1.065  27.456 -0.1082  0.3074  0.0601
 9849DDP     C159089  25.880  26.279  21.741 -0.1209  0.0229  0.0971
 9849DDP     P159090  25.945  26.419  21.359  0.1145  0.4153  0.1166
 9849DDP     P259091  25.706  25.899  21.731 -0.0727  0.1684 -0.2607
 9849DDP     C259092  25.478  25.685  21.983 -0.2676  0.1677  0.1577
 9849DDP     C359093  26.247  26.340  21.050  0.0995 -0.1200  0.1775
 9849DDP     C459094  26.147  26.445  22.022  0.2020  0.1508 -0.3875
 9850DDP     C159095  11.888  19.203   3.572 -0.0043 -0.0378  0.0520
 9850DDP     P159096  12.081  18.962   3.903 -0.3837  0.3942 -0.2963
 9850DDP     P259097  12.170  19.337   3.236 -0.0002  0.1785 -0.3341
 9850DDP     C259098  12.602  19.375   2.989 -0.0982 -0.0967  0.1155
 9850DDP     C359099  12.454  18.766   4.199  0.1084  0.0916  0.2323
 9850DDP     C459100  11.478  19.079   3.425 -0.1903  0.0984 -0.2284
 9851DDP     C159101  27.208  26.463  28.539 -0.2021 -0.0722  0.1156
 9851DDP     P159102  27.458  26.787  28.259  0.1971  0.2387 -0.2273
 9851DDP     P259103  27.031  26.013  28.546 -0.0135  0.2909  0.0118
 9851DDP     C259104  26.889  25.579  28.663  0.0752 -0.0521  0.1019
 9851DDP     C359105  27.465  27.176  28.402 -0.0856  0.4335  0.1045
 9851DDP     C459106  27.205  26.648  29.043 -0.0292 -0.0482  0.2032
 9852DDP     C159107  12.776  22.488   9.828 -0.1699  0.0543  0.1437
 9852DDP     P159108  12.672  22.142  10.160 -0.0978 -0.0319  0.1166
 9852DDP     P259109  13.114  22.499   9.551  0.0784  0.1568 -0.1936
 9852DDP     C259110  13.376  22.555   9.243  0.1408 -0.1005 -0.0729
 9852DDP     C359111  12.253  21.980  10.303 -0.0948 -0.2868 -0.0764
 9852DDP     C459112  12.441  22.840   9.959  0.1125 -0.2079  0.2199
 9853DDP     C159113  10.219   5.831  26.499 -0.2167 -0.0751  0.2370
 9853DDP     P159114  10.568   5.578  26.458 -0.0519  0.3537 -0.1416
 9853DDP     P259115  10.239   6.141  26.280 -0.0939  0.2017 -0.1214
 9853DDP     C259116  10.072   6.537  26.356 -0.1452 -0.3765 -0.0439
 9853DDP     C359117  10.785   5.487  26.773 -0.2387  0.0604 -0.2011
 9853DDP     C459118   9.993   5.752  26.827  0.0459  0.0160  0.0717
 9854DDP     C159119   2.917  18.191  15.589  0.0320 -0.0523 -0.0232
 9854DDP     P159120   2.782  18.516  15.322 -0.3137  0.1280 -0.0809
 9854DDP     P259121   3.338  18.287  15.475 -0.1429 -0.1282 -0.1651
 9854DDP     C259122   3.723  18.543  15.546 -0.0280  0.3344 -0.3315
 9854DDP     C359123   2.918  18.979  15.301 -0.0080 -0.1710 -0.2007
 9854DDP     C459124   2.656  18.126  15.946 -0.0750  0.1353 -0.2809
 9855DDP     C159125  24.784  23.745   2.712  0.4371  0.0010 -0.0625
 9855DDP     P159126  24.889  24.258   2.641 -0.0640  0.1880 -0.1305
 9855DDP     P259127  24.318  23.658   2.789 -0.0867  0.2834  0.1251
 9855DDP     C259128  24.209  23.251   3.008  0.2034 -0.0610  0.1086
 9855DDP     C359129  24.915  24.562   2.287 -0.2768 -0.1843  0.2084
 9855DDP     C459130  25.032  23.390   2.492 -0.1609  0.1975  0.2668
 9856DDP     C159131  12.497   0.896   7.584 -0.1168  0.1235  0.1567
 9856DDP     P159132  12.471   0.838   7.971  0.3937 -0.0725 -0.2762
 9856DDP     P259133  12.273   1.228   7.371  0.2023 -0.2236 -0.1412
 9856DDP     C259134  11.857   1.438   7.360 -0.0509 -0.2854 -0.3451
 9856DDP     C359135  12.063   0.803   8.092 -0.0524 -0.2254 -0.1681
 9856DDP     C459136  12.843   0.638   7.380  0.1638  0.2302 -0.1234
 9857DDP     C159137  16.387  11.433  26.355 -0.0284 -0.0381 -0.0882
 9857DDP     P159138  16.693  11.523  26.725 -0.0409 -0.0791 -0.0818
 9857DDP     P259139  16.009  11.149  26.258 -0.0243 -0.1862  0.1189
 9857DDP     C259140  15.574  10.884  26.281  0.1564 -0.1046  0.2635
 9857DDP     C359141  16.930  11.072  26.958  0.2482  0.0369  0.0392
 9857DDP     C459142  16.638  11.372  25.971  0.1203  0.2159  0.2071
 9858DDP     C159143   5.911  10.280  23.773 -0.0150 -0.2356  0.0296
 9858DDP     P159144   6.245  10.329  23.426 -0.1028  0.1827  0.3016
 9858DDP     P259145   5.580  10.172  23.415 -0.0778 -0.0360 -0.1057
 9858DDP     C259146   5.193  10.247  23.361 -0.2553 -0.2130  0.4388
 9858DDP     C359147   6.652  10.312  23.368 -0.2945 -0.0252 -0.0317
 9858DDP     C459148   5.786  10.032  24.004  0.4765  0.1355 -0.3489
 9859DDP     C159149   2.393   0.891  21.190  0.0190 -0.2137  0.2653
 9859DDP     P159150   2.425   1.368  21.374  0.0022  0.0058 -0.0472
 9859DDP     P259151   2.138   0.563  21.460 -0.1990  0.2796 -0.1168
 9859DDP     C259152   1.879   0.284  21.643 -0.1815 -0.1132 -0.0224
 9859DDP     C359153   2.321   1.744  21.565  0.5033  0.0188 -0.1818
 9859DDP     C459154   2.741   0.718  20.907 -0.1610  0.1325  0.3664
 9860DDP     C159155  20.777   0.679  15.386 -0.0448  0.0321  0.0371
 9860DDP     P159156  20.509   0.373  15.594  0.1380  0.1318 -0.2311
 9860DDP     P259157  20.750   1.161  15.370  0.0461 -0.0946  0.0698
 9860DDP     C259158  20.652   1.598  15.328 -0.1488  0.1303 -0.0115
 9860DDP     C359159  20.477   0.312  16.092  0.2396 -0.1125 -0.0314
 9860DDP     C459160  21.104   0.600  15.243 -0.0555 -0.3807  0.0761
 9861DDP     C159161   9.945  13.965  24.799 -0.0285 -0.1221  0.1105
 9861DDP     P159162   9.673  13.616  25.139 -0.1793 -0.0240  0.0461
 9861DDP     P259163  10.395  13.883  24.641  0.1033 -0.0623 -0.3335
 9861DDP     C259164  10.736  14.133  24.757  0.2530  0.4074  0.1275
 9861DDP     C359165   9.305  13.477  25.275  0.4002  0.1824  0.3894
 9861DDP     C459166   9.584  14.067  24.549 -0.0397  0.0539 -0.0638
 9862DDP     C159167   8.162   2.041  28.112 -0.2508  0.0344  0.2162
 9862DDP     P159168   7.904   2.218  27.867  0.1459  0.0057 -0.0401
 9862DDP     P259169   8.434   2.329  28.451 -0.2472 -0.1753 -0.2095
 9862DDP     C259170   8.819   2.289  28.850 -0.0817  0.3133 -0.1233
 9862DDP     C359171   7.946   2.449  27.534  0.1122  0.2230  0.0319
 9862DDP     C459172   8.461   1.689  28.023 -0.1087 -0.1026 -0.0610
 9863DDP     C159173  27.276  29.133  20.340  0.2357 -0.1972 -0.0766
 9863DDP     P159174  26.888  29.292  20.373  0.0869 -0.1643 -0.1242
 9863DDP     P259175  27.414  28.722  20.423 -0.2806  0.1735 -0.0851
 9863DDP     C259176  27.858  28.443  20.360 -0.0835  0.4091 -0.0451
 9863DDP     C359177  26.821  29.656  20.622 -0.0014  0.1064 -0.2138
 9863DDP     C459178  27.614  29.445  20.443  0.1352  0.1924  0.1120
 9864DDP     C159179   4.476  21.568  10.869 -0.0409  0.1604 -0.0353
 9864DDP     P159180   4.166  21.993  10.922 -0.0764 -0.0969 -0.2274
 9864DDP     P259181   4.290  21.220  10.939  0.0877  0.4262 -0.3037
 9864DDP     C259182   4.102  20.871  10.996 -0.1230 -0.0570 -0.0127
 9864DDP     C359183   3.787  22.182  10.830  0.0556 -0.1195 -0.2088
 9864DDP     C459184   4.925  21.601  10.922  0.1245  0.1843  0.0901
 9865DDP     C159185   6.118  12.912  13.473  0.0462 -0.0309 -0.2986
 9865DDP     P159186   6.028  12.689  13.117  0.0371 -0.1316  0.1199
 9865DDP     P259187   6.272  12.915  13.833 -0.2733 -0.3182 -0.3385
 9865DDP     C259188   5.967  12.780  14.111 -0.3850 -0.4337  0.0352
 9865DDP     C359189   6.080  12.281  12.849 -0.2512  0.3284  0.0004
 9865DDP     C459190   5.826  13.189  13.598 -0.0902 -0.1235 -0.0833
 9866DDP     C159191  24.845   2.451  25.259  0.0945  0.1899  0.0935
 9866DDP     P159192  25.125   2.185  25.326  0.0465  0.1690  0.4712
 9866DDP     P259193  24.835   2.693  24.893 -0.1890 -0.0894  0.1739
 9866DDP     C259194  24.718   3.051  24.709  0.0556 -0.1436 -0.3337
 9866DDP     C359195  25.155   1.912  25.111 -0.1684 -0.4010  0.2712
 9866DDP     C459196  24.597   2.485  25.577 -0.1992  0.2756 -0.3064
 9867DDP     C159197  23.119  14.507  12.379  0.0323 -0.3433 -0.0459
 9867DDP     P159198  23.270  14.811  12.619 -0.1052 -0.1551  0.0196
 9867DDP     P259199  22.994  14.620  11.984 -0.1150  0.2841  0.0486
 9867DDP     C259200  22.825  14.573  11.582  0.0273 -0.1248 -0.1647
 9867DDP     C359201  23.024  14.772  13.097  0.1826 -0.1114  0.1720
 9867DDP     C459202  22.804  14.401  12.614  0.0667 -0.2385  0.1707
 9868DDP     C159203  14.211  12.988   6.919  0.0840 -0.1648  0.0124
 9868DDP     P159204  14.137  13.278   7.141 -0.0900  0.0401 -0.1955
 9868DDP     P259205  14.216  12.596   7.079  0.1176  0.1261  0.1976
 9868DDP     C259206  14.127  12.198   6.935  0.0979 -0.0034  0.0806
 9868DDP     C359207  13.983  13.537   7.418 -0.0829 -0.2968 -0.1657
 9868DDP     C459208  14.394  13.080   6.554  0.1387  0.0607  0.1397
 9869DDP     C159209  27.371  23.513  18.285  0.0121 -0.0230  0.1850
 9869DDP     P159210  27.485  23.075  18.292 -0.0726  0.0934 -0.3299
 9869DDP     P259211  27.039  23.612  18.550  0.1012  0.0834 -0.0443
 9869DDP     C259212  26.724  23.750  18.789  0.2153 -0.1171 -0.0121
 9869DDP     C359213  27.243  22.677  18.423  0.1592 -0.2619 -0.2693
 9869DDP     C459214  27.584  23.665  18.014  0.0631  0.1803  0.0849
 9870DDP     C159215  12.622  13.622  17.346 -0.0032  0.1464 -0.2776
 9870DDP     P159216  12.220  13.538  17.537  0.0114  0.1248 -0.4106
 9870DDP     P259217  13.010  13.804  17.468  0.2650 -0.2551  0.2926
 9870DDP     C259218  13.139  13.895  17.927  0.2127  0.0464 -0.1012
 9870DDP     C359219  12.009  13.900  17.618  0.0880  0.0534 -0.4580
 9870DDP     C459220  12.529  13.444  16.912  0.1498  0.2833  0.0215
 9871DDP     C159221  10.452  19.077  24.095 -0.1960 -0.1662  0.2278
 9871DDP     P159222  10.531  19.425  23.744 -0.2139 -0.1145  0.1296
 9871DDP     P259223  10.735  18.902  23.977  0.4524  0.1147  0.2297
 9871DDP     C259224  10.982  18.549  23.889  0.0588  0.2486 -0.4226
 9871DDP     C359225  10.316  19.330  23.402 -0.0497  0.2421 -0.4421
 9871DDP     C459226  10.055  18.895  24.201  0.1035  0.2002  0.1409
 9872DDP     C159227  21.946  28.874   6.837  0.0776  0.0457  0.3112
 9872DDP     P159228  22.155  29.169   7.066  0.2513  0.0449  0.0449
 9872DDP     P259229  21.508  28.921   6.795  0.0559  0.0245 -0.0135
 9872DDP     C259230  21.078  28.841   6.929  0.1984  0.2409 -0.0745
 9872DDP     C359231  22.081  29.658   6.960 -0.1797  0.0917  0.3738
 9872DDP     C459232  22.147  28.549   6.642 -0.0013  0.1910 -0.2348
 9873DDP     C159233  18.192  13.015  21.384  0.2110 -0.0921 -0.0114
 9873DDP     P159234  18.167  12.595  21.212  0.2098 -0.1060 -0.0848
 9873DDP     P259235  18.113  13.411  21.547  0.0511 -0.0100 -0.3090
 9873DDP     C259236  18.086  13.469  21.957 -0.1942 -0.1427 -0.2077
 9873DDP     C359237  17.995  12.197  21.348  0.0572 -0.0237  0.0107
 9873DDP     C459238  18.609  13.046  21.278  0.0151 -0.0561  0.0456
 9874DDP     C159239   9.805   9.830  14.186 -0.0421  0.0157 -0.4543
 9874DDP     P159240  10.044  10.039  14.530 -0.0806  0.4562  0.1800
 9874DDP     P259241  10.109   9.706  13.940  0.0760  0.0177 -0.0472
 9874DDP     C259242  10.442  10.001  13.768  0.0286 -0.2930  0.1495
 9874DDP     C359243  10.104  10.077  14.894 -0.1182 -0.0532 -0.1215
 9874DDP     C459244   9.325   9.867  14.285  0.2032 -0.3389 -0.0830
 9875DDP     C159245  21.584  14.414  19.882  0.4347 -0.2514  0.0065
 9875DDP     P159246  22.014  14.356  19.776 -0.0085  0.2413 -0.1676
 9875DDP     P259247  21.322  14.693  19.677 -0.0839  0.2328  0.2268
 9875DDP     C259248  21.063  15.002  19.477  0.0553 -0.0003  0.0894
 9875DDP     C359249  22.098  13.858  19.955 -0.2790 -0.1716  0.1160
 9875DDP     C459250  21.656  14.277  20.311 -0.0111  0.1947 -0.0743
 9876DDP     C159251  22.986  16.658   3.919 -0.1185  0.3212 -0.0013
 9876DDP     P159252  23.406  16.723   3.816 -0.1682  0.2044 -0.1898
 9876DDP     P259253  22.705  16.671   4.291  0.1779  0.1905  0.0234
 9876DDP     C259254  22.753  16.757   4.642 -0.0476  0.1030  0.3539
 9876DDP     C359255  23.492  16.444   3.624  0.0769 -0.1813 -0.1171
 9876DDP     C459256  22.815  16.643   3.568 -0.1845 -0.2399 -0.0189
 9877DDP     C159257  20.506  21.396  27.286  0.2947  0.0362 -0.0140
 9877DDP     P159258  20.149  21.304  26.979 -0.2359  0.0997 -0.0378
 9877DDP     P259259  20.482  21.801  27.586 -0.0282 -0.1245 -0.1893
 9877DDP     C259260  20.585  22.226  27.346 -0.0690  0.0696  0.0751
 9877DDP     C359261  19.758  21.241  26.677  0.1929 -0.0057 -0.0465
 9877DDP     C459262  20.824  21.239  27.233  0.1815 -0.1067  0.4398
 9878DDP     C159263   9.037  26.027  19.237 -0.1642  0.0174 -0.3920
 9878DDP     P159264   8.623  26.164  19.356 -0.1949  0.0159 -0.6851
 9878DDP     P259265   9.092  25.808  19.469 -0.1165  0.1046  0.0688
 9878DDP     C259266   9.180  25.404  19.697  0.1559  0.1412 -0.1206
 9878DDP     C359267   8.471  26.519  19.456 -0.1522  0.0019 -0.0101
 9878DDP     C459268   9.245  26.161  18.902 -0.0262 -0.2389 -0.2235
 9879DDP     C159269  20.976  24.843  24.908 -0.0075 -0.0923 -0.1671
 9879DDP     P159270  21.300  24.896  24.554 -0.0610 -0.2019  0.0008
 9879DDP     P259271  20.649  24.561  24.855  0.1435 -0.0393  0.2314
 9879DDP     C259272  20.614  24.206  24.520 -0.2160  0.1822 -0.1704
 9879DDP     C359273  21.595  24.795  24.283  0.0568  0.2907  0.2842
 9879DDP     C459274  20.935  24.996  25.354 -0.0065 -0.2757  0.2244
 9880DDP     C159275  10.877  29.909  18.182 -0.0956 -0.2630 -0.1585
 9880DDP     P159276  11.229  29.979  17.915 -0.2296  0.3430  0.0163
 9880DDP     P259277  10.657  30.258  18.480 -0.2248  0.0644 -0.1220
 9880DDP     C259278  10.657   0.151  18.814  0.0741  0.0470 -0.0977
 9880DDP     C359279  11.525  -0.022  17.829  0.2452 -0.0636 -0.2264
 9880DDP     C459280  10.775  29.606  18.451  0.2050  0.1814  0.0872
 9881DDP     C159281  23.063   0.598  15.374 -0.0223 -0.2323 -0.0280
 9881DDP     P159282  22.683   0.709  15.416  0.0133 -0.1357  0.0311
 9881DDP     P259283  23.162   1.033  15.366 -0.2604  0.1784 -0.0270
 9881DDP     C259284  23.309   1.488  15.479 -0.1944 -0.2995 -0.3990
 9881DDP     C359285  22.328   0.833  15.757  0.2322  0.0468  0.0888
 9881DDP     C459286  23.271   0.393  15.135  0.2548  0.1037  0.1217
 9882DDP     C159287  28.385  24.883  13.782 -0.0458  0.1482  0.1084
 9882DDP     P159288  28.302  24.821  13.384 -0.0850  0.1942 -0.0293
 9882DDP     P259289  28.703  24.888  13.963 -0.1192 -0.1794  0.1801
 9882DDP     C259290  29.035  24.913  14.321  0.1179 -0.0700  0.0006
 9882DDP     C359291  28.389  24.784  12.908  0.4049 -0.0043 -0.3071
 9882DDP     C459292  28.062  24.744  14.047  0.0210  0.3258 -0.1921
 9883DDP     C159293  21.363  14.658  21.694 -0.1898  0.2801  0.0627
 9883DDP     P159294  21.707  14.804  21.886  0.0000 -0.2577  0.0092
 9883DDP     P259295  21.379  14.397  21.291  0.0228  0.0014 -0.0375
 9883DDP     C259296  21.377  14.057  21.150 -0.1947  0.0715  0.0811
 9883DDP     C359297  21.889  14.751  22.257  0.1330  0.3386  0.1357
 9883DDP     C459298  21.037  14.657  21.947 -0.1253  0.1705 -0.1878
 9884DDP     C159299   2.445  22.247   6.979 -0.2779 -0.1505  0.2979
 9884DDP     P159300   2.222  22.398   7.337  0.0168  0.1579  0.0422
 9884DDP     P259301   2.379  22.391   6.519  0.0303  0.1273 -0.1262
 9884DDP     C259302   2.417  22.286   6.062  0.1458 -0.2458  0.0112
 9884DDP     C359303   1.835  22.230   7.477  0.1061  0.1366 -0.0290
 9884DDP     C459304   2.635  21.826   6.979 -0.0950 -0.1933 -0.2622
 9885DDP     C159305  12.496  17.266  21.911  0.1067 -0.2976  0.0197
 9885DDP     P159306  12.438  17.710  21.793  0.0374  0.1453  0.0656
 9885DDP     P259307  12.859  17.162  21.776 -0.5742  0.0927 -0.1190
 9885DDP     C259308  13.062  17.409  21.412 -0.1250 -0.0310  0.0898
 9885DDP     C359309  12.358  18.161  21.835  0.0696 -0.0342  0.0714
 9885DDP     C459310  12.224  17.053  22.116 -0.4861 -0.0097 -0.0387
 9886DDP     C159311  14.184   1.855  20.019 -0.1925  0.0646 -0.0712
 9886DDP     P159312  14.208   1.471  19.819  0.1570  0.3490 -0.1072
 9886DDP     P259313  13.781   1.896  20.196  0.3348  0.2659 -0.5036
 9886DDP     C259314  13.423   2.118  20.249 -0.1655  0.3366  0.2388
 9886DDP     C359315  14.445   1.093  19.904  0.1949  0.1081  0.1282
 9886DDP     C459316  14.366   2.242  20.006 -0.3115  0.1591  0.5155
 9887DDP     C159317  19.139  29.946   8.596 -0.2532 -0.0450 -0.0937
 9887DDP     P159318  18.902  30.262   8.614 -0.1112  0.0194 -0.0003
 9887DDP     P259319  19.502  30.015   8.341 -0.1446 -0.3558 -0.0176
 9887DDP     C259320  19.849  29.886   8.057 -0.0658  0.1548  0.2179
 9887DDP     C359321  18.706   0.262   8.870  0.1921 -0.1089 -0.2710
 9887DDP     C459322  18.957  29.662   8.929 -0.0471 -0.0287 -0.1850
 9888DDP     C159323  18.819  17.310  21.668 -0.1849 -0.0244  0.1068
 9888DDP     P159324  19.147  17.578  21.889 -0.1327  0.0570 -0.0030
 9888DDP     P259325  18.394  17.503  21.827  0.3720  0.0613 -0.0366
 9888DDP     C259326  18.088  17.399  22.022  0.0419  0.7338 -0.0434
 9888DDP     C359327  19.308  17.992  22.073  0.2614 -0.1160 -0.0291
 9888DDP     C459328  19.111  17.008  21.494  0.0813  0.1277  0.0274
 9889DDP     C159329  13.365  19.722  30.240  0.2786 -0.2477  0.4401
 9889DDP     P159330  12.990  19.658  30.147 -0.0313  0.1342  0.0618
 9889DDP     P259331  13.658  19.810  29.876  0.1743  0.0009 -0.2236
 9889DDP     C259332  13.674  20.229  29.650 -0.0134 -0.2652  0.0200
 9889DDP     C359333  12.684  19.826  29.918 -0.0132 -0.0884  0.1056
 9889DDP     C459334  13.556  19.815   0.266  0.0928 -0.0195  0.2648
 9890DDP     C159335   5.205  17.497  27.268  0.0833 -0.0123  0.1368
 9890DDP     P159336   5.448  17.788  27.160  0.0880 -0.0406 -0.3274
 9890DDP     P259337   5.413  17.210  27.447 -0.2288 -0.1091 -0.0206
 9890DDP     C259338   5.456  16.795  27.785  0.5607  0.0489  0.0662
 9890DDP     C359339   5.874  17.673  27.256  0.0801 -0.3891 -0.0460
 9890DDP     C459340   4.783  17.520  27.298 -0.0976 -0.1648  0.1707
 9891DDP     C159341   7.047  18.613   1.484  0.1391  0.0137 -0.2163
 9891DDP     P159342   6.756  18.641   1.216 -0.0336 -0.0524  0.1840
 9891DDP     P259343   7.396  18.490   1.393 -0.5041 -0.1150 -0.2141
 9891DDP     C259344   7.825  18.503   1.301 -0.1762 -0.1615 -0.2089
 9891DDP     C359345   6.308  18.618   1.214 -0.3699 -0.1812 -0.4234
 9891DDP     C459346   7.188  18.957   1.790 -0.0546  0.1872  0.1665
 9892DDP     C159347  23.639  25.100  30.238 -0.0330  0.2399 -0.1353
 9892DDP     P159348  23.463  25.439  30.124  0.1060 -0.2873  0.0177
 9892DDP     P259349  23.715  24.746  30.003 -0.1246  0.1511  0.3517
 9892DDP     C259350  23.938  24.672  29.676 -0.3538  0.0616 -0.0920
 9892DDP     C359351  23.549  25.842  30.095 -0.1917  0.0552  0.2159
 9892DDP     C459352  24.081  25.128   0.149  0.1398 -0.0399 -0.1239
 9893DDP     C159353  18.759  22.204   8.328 -0.0559  0.0857 -0.3435
 9893DDP     P159354  18.477  21.908   8.530 -0.0319  0.1055  0.0988
 9893DDP     P259355  19.032  22.629   8.443  0.3599  0.4992  0.0020
 9893DDP     C259356  18.799  22.974   8.407  0.0607  0.0536 -0.0310
 9893DDP     C359357  18.102  21.577   8.715  0.2193 -0.2887  0.0533
 9893DDP     C459358  18.857  22.022   8.011  0.2514  0.1728 -0.0307
 9894DDP     C159359   4.578   7.369  16.025  0.0145 -0.0543 -0.0476
 9894DDP     P159360   4.633   7.313  16.417  0.2066 -0.0294 -0.0027
 9894DDP     P259361   4.474   7.057  15.712  0.3245  0.0395 -0.2383
 9894DDP     C259362   4.279   6.829  15.391  0.2138 -0.0046  0.1196
 9894DDP     C359363   4.811   7.379  16.812  0.2610 -0.1520 -0.0314
 9894DDP     C459364   4.330   7.738  15.948 -0.1475  0.0937  0.1755
 9895DDP     C159365  19.390   8.597   7.765 -0.3973 -0.0199  0.1706
 9895DDP     P159366  19.528   8.407   7.485  0.0975  0.3735 -0.0836
 9895DDP     P259367  19.040   8.726   7.486  0.1466  0.2125  0.0986
 9895DDP     C259368  18.763   9.161   7.427 -0.0221 -0.1777 -0.0353
 9895DDP     C359369  19.932   8.133   7.392  0.0726  0.1536 -0.2236
 9895DDP     C459370  19.562   8.523   8.172 -0.0208 -0.0643  0.0467
 9896DDP     C159371   7.856  25.801   3.194  0.0058 -0.1540  0.3098
 9896DDP     P159372   8.020  25.817   3.605 -0.2599 -0.0166 -0.0059
 9896DDP     P259373   7.785  26.191   3.075 -0.0585 -0.0143  0.2931
 9896DDP     C259374   8.129  26.442   2.927 -0.2696  0.1119 -0.2106
 9896DDP     C359375   8.156  26.043   4.081 -0.2431  0.1263 -0.0676
 9896DDP     C459376   7.742  25.481   2.948  0.3685  0.2194 -0.0339
 9897DDP     C159377  25.520   8.812  26.146 -0.1097 -0.3086  0.0094
 9897DDP     P159378  25.685   8.697  25.758  0.0890  0.2653  0.1768
 9897DDP     P259379  25.594   8.730  26.553 -0.2575  0.3393  0.0458
 9897DDP     C259380  25.551   8.443  26.865 -0.0444  0.1576  0.0941
 9897DDP     C359381  25.928   8.396  25.575 -0.0534  0.0061 -0.2399
 9897DDP     C459382  25.102   8.877  26.262 -0.2287  0.2422 -0.2175
 9898DDP     C159383  27.441  24.730  15.077  0.3286 -0.1767 -0.0966
 9898DDP     P159384  27.136  24.887  15.167 -0.1225 -0.0951 -0.2391
 9898DDP     P259385  27.565  24.826  15.450  0.0608 -0.5265 -0.1220
 9898DDP     C259386  27.162  24.790  15.706  0.2553 -0.2297  0.0784
 9898DDP     C359387  26.755  25.161  15.059  0.2191 -0.0410  0.1893
 9898DDP     C459388  27.744  24.715  14.786  0.1228 -0.0321 -0.0645
 9899DDP     C159389   9.369   4.166   8.693  0.0886 -0.0514  0.0629
 9899DDP     P159390   9.525   4.081   8.282  0.2803  0.1899 -0.1716
 9899DDP     P259391   8.966   4.024   8.852 -0.1539 -0.0982  0.3426
 9899DDP     C259392   8.755   3.664   8.653  0.0332  0.2538  0.1528
 9899DDP     C359393   9.327   3.848   7.807 -0.1379 -0.3181  0.2389
 9899DDP     C459394   9.402   4.538   8.796 -0.0331 -0.2310  0.0485
 9900DDP     C159395  12.065   2.202  26.113 -0.1320 -0.0308 -0.2193
 9900DDP     P159396  11.626   2.094  26.040  0.0140  0.0129  0.1049
 9900DDP     P259397  12.189   1.876  25.945  0.3458  0.0461 -0.0389
 9900DDP     C259398  12.233   1.395  25.930  0.1733  0.2741  0.2376
 9900DDP     C359399  11.249   1.974  26.173  0.2279 -0.1548 -0.3356
 9900DDP     C459400  12.188   2.622  26.271 -0.1534 -0.1537  0.1916
 9901DDP     C159401   9.873  13.127   3.179  0.2095 -0.2069  0.1469
 9901DDP     P159402  10.055  13.273   2.783 -0.3187 -0.1562 -0.0257
 9901DDP     P259403   9.694  12.643   3.433 -0.4903 -0.3624 -0.0087
 9901DDP     C259404   9.359  12.362   3.462 -0.0822  0.2384  0.0700
 9901DDP     C359405   9.796  13.113   2.419  0.2203 -0.0628  0.0080
 9901DDP     C459406   9.762  13.494   3.383 -0.0534 -0.1540  0.0423
 9902DDP     C159407  26.802  29.986  12.163  0.1566  0.0714 -0.0281
 9902DDP     P159408  27.136  30.029  11.800  0.5283  0.0030  0.0822
 9902DDP     P259409  26.467  29.858  12.024 -0.0503  0.0493  0.0554
 9902DDP     C259410  26.219  29.491  11.910 -0.1634  0.4444  0.0178
 9902DDP     C359411  27.663  30.093  11.748  0.0531 -0.1713 -0.1591
 9902DDP     C459412  26.651  30.279  12.453 -0.4056  0.0364 -0.3592
 9903DDP     C159413  19.075  16.620  25.825  0.0857 -0.1983 -0.1461
 9903DDP     P159414  19.380  16.333  25.987  0.0632  0.2408 -0.2735
 9903DDP     P259415  19.286  17.016  25.716  0.0266  0.0491  0.0430
 9903DDP     C259416  19.520  17.486  25.847 -0.0750 -0.0467  0.1883
 9903DDP     C359417  19.812  16.318  26.029  0.3211 -0.0243  0.0596
 9903DDP     C459418  18.645  16.701  25.958  0.0362 -0.0083  0.2124
 9904DDP     C159419  11.896  24.875  14.213 -0.0998 -0.1056 -0.2718
 9904DDP     P159420  11.604  24.753  14.575  0.0912  0.0627  0.0136
 9904DDP     P259421  11.821  24.826  13.852  0.1023  0.1102 -0.0737
 9904DDP     C259422  11.703  25.105  13.597  0.0130 -0.0319 -0.0975
 9904DDP     C359423  11.981  24.554  14.856  0.0725 -0.1314 -0.0558
 9904DDP     C459424  12.260  24.705  14.415  0.0057  0.0942  0.0027
 9905DDP     C159425  20.960  10.551  17.216 -0.4209 -0.0067 -0.2892
 9905DDP     P159426  21.202  10.173  17.053  0.0165 -0.0962 -0.2543
 9905DDP     P259427  20.761  10.845  16.928 -0.1496  0.0647  0.5553
 9905DDP     C259428  20.912  11.235  16.784  0.1934 -0.0096  0.0431
 9905DDP     C359429  21.324   9.636  17.098 -0.2303 -0.1663  0.0683
 9905DDP     C459430  21.163  10.809  17.572 -0.1587  0.2582  0.1237
 9906DDP     C159431  22.925   3.093  19.011  0.1129  0.0357 -0.0918
 9906DDP     P159432  22.587   2.873  19.091  0.2339  0.0887 -0.0219
 9906DDP     P259433  22.916   3.534  19.213 -0.2435 -0.1224  0.2023
 9906DDP     C259434  22.918   3.905  19.492 -0.0596  0.0955 -0.2408
 9906DDP     C359435  22.225   2.862  19.312 -0.3022 -0.0803 -0.1785
 9906DDP     C459436  23.216   3.069  18.686  0.0063  0.0745 -0.1649
 9907DDP     C159437  10.688  20.960  16.069  0.2957  0.2048 -0.0532
 9907DDP     P159438  10.600  21.357  15.916 -0.0943 -0.1134  0.0015
 9907DDP     P259439  10.496  20.713  16.455  0.1850  0.2081 -0.2583
 9907DDP     C259440  10.514  20.615  16.903  0.1689  0.1402  0.2506
 9907DDP     C359441  10.815  21.650  15.686  0.1670  0.0426  0.2148
 9907DDP     C459442  11.116  21.027  15.864  0.3591  0.0324 -0.0107
 9908DDP     C159443  20.749   4.602  29.236 -0.0403 -0.0214 -0.1616
 9908DDP     P159444  21.080   4.367  29.585 -0.0802  0.1113 -0.5071
 9908DDP     P259445  20.292   4.511  29.245 -0.0782 -0.1873  0.3437
 9908DDP     C259446  20.064   4.458  28.959  0.0253  0.0551  0.3225
 9908DDP     C359447  21.100   3.927  29.687 -0.0919 -0.1759  0.0046
 9908DDP     C459448  20.875   4.977  28.994 -0.1269  0.0837  0.2123
 9909DDP     C159449   0.574  14.130  30.202 -0.0999 -0.1692 -0.1164
 9909DDP     P159450   0.595  13.663  29.973  0.0242  0.2235  0.2146
 9909DDP     P259451   0.271  14.365   0.194 -0.2740  0.1185  0.1604
 9909DDP     C259452  30.147  14.617   0.324 -0.2251  0.1939  0.2534
 9909DDP     C359453   0.268  13.322  29.972 -0.0616  0.0622 -0.1523
 9909DDP     C459454   0.995  14.323  30.116  0.0098 -0.0659  0.0351
 9910DDP     C159455  26.401   6.226  24.701  0.0921  0.1787 -0.2551
 9910DDP     P159456  26.478   6.081  25.074  0.0175  0.3843 -0.1758
 9910DDP     P259457  26.652   6.600  24.557 -0.1926  0.0474  0.0825
 9910DDP     C259458  26.580   6.981  24.522 -0.2063 -0.0331  0.2925
 9910DDP     C359459  26.592   5.823  25.442  0.2048  0.0218 -0.0054
 9910DDP     C459460  26.175   5.994  24.405  0.0063 -0.0810 -0.0491
 9911DDP     C159461  29.867  11.906  13.811 -0.0424 -0.0899  0.0695
 9911DDP     P159462  30.041  11.735  13.457  0.1963  0.0632  0.0140
 9911DDP     P259463  29.557  12.181  13.766  0.0750 -0.1245  0.1927
 9911DDP     C259464  29.218  12.385  13.582  0.1688  0.0397 -0.0360
 9911DDP     C359465   0.038  11.736  13.204 -0.0099  0.1915  0.0907
 9911DDP     C459466  30.179  11.759  14.137  0.2911  0.2512 -0.0076
 9912DDP     C159467  26.003  12.501  13.269 -0.1944  0.0842 -0.1391
 9912DDP     P159468  26.294  12.494  13.672  0.1623 -0.0289  0.1697
 9912DDP     P259469  25.896  12.894  13.410 -0.0261  0.0051 -0.3431
 9912DDP     C259470  25.962  13.402  13.267  0.1248  0.0785  0.1776
 9912DDP     C359471  26.720  12.285  13.697 -0.1361 -0.3671  0.3338
 9912DDP     C459472  25.998  12.180  12.896 -0.2045  0.2064 -0.0514
 9913DDP     C159473   7.203   2.780  27.778 -0.1012 -0.1513 -0.0973
 9913DDP     P159474   7.437   3.181  27.765  0.1462  0.0309 -0.1607
 9913DDP     P259475   7.441   2.405  27.643  0.0508  0.0891 -0.0257
 9913DDP     C259476   7.412   2.034  27.907 -0.1559 -0.1109 -0.2207
 9913DDP     C359477   7.591   3.450  28.083  0.0606  0.0748 -0.0435
 9913DDP     C459478   6.727   2.777  27.796 -0.0901  0.0630  0.0458
 9914DDP     C159479  18.095  23.735  19.230  0.0951 -0.1520 -0.1605
 9914DDP     P159480  18.195  23.966  19.539 -0.2641 -0.0009  0.1756
 9914DDP     P259481  18.366  23.512  18.956  0.0176 -0.1416 -0.1988
 9914DDP     C259482  18.122  23.232  18.669 -0.2394  0.0121  0.0959
 9914DDP     C359483  18.470  24.301  19.701 -0.1718 -0.2296 -0.2845
 9914DDP     C459484  17.650  23.550  19.286 -0.0726  0.0882  0.2044
 9915DDP     C159485  15.883  18.277  29.471  0.0459  0.4541 -0.0988
 9915DDP     P159486  15.818  18.701  29.261 -0.0864 -0.0970 -0.1063
 9915DDP     P259487  16.187  18.111  29.187 -0.2553 -0.1538 -0.2690
 9915DDP     C259488  16.358  18.237  28.750 -0.0387  0.0618 -0.4458
 9915DDP     C359489  15.733  18.979  28.913 -0.0829 -0.2469  0.0753
 9915DDP     C459490  15.716  17.941  29.754 -0.0642  0.1533 -0.3616
 9916DDP     C159491  11.599  12.863  30.262 -0.1317 -0.1267  0.1296
 9916DDP     P159492  11.236  12.757   0.165  0.3030 -0.2054 -0.0778
 9916DDP     P259493  11.719  12.479  30.185  0.6778 -0.0804  0.0619
 9916DDP     C259494  11.560  12.101  29.815 -0.1561  0.1455 -0.3101
 9916DDP     C359495  11.251  12.678   0.477  0.1490  0.2762  0.1699
 9916DDP     C459496  11.769  13.286   0.086 -0.0921  0.1964 -0.1464
 9917DDP     C159497  23.968   7.162  19.761  0.0462  0.0727  0.0625
 9917DDP     P159498  24.350   7.153  20.001 -0.1962 -0.0117 -0.0856
 9917DDP     P259499  23.731   6.998  19.382  0.5284  0.0797 -0.1129
 9917DDP     C259500  23.415   6.990  19.145 -0.1057  0.1175 -0.0434
 9917DDP     C359501  24.728   6.878  20.133 -0.3117 -0.0400  0.2071
 9917DDP     C459502  23.712   7.482  19.939  0.2168 -0.1177 -0.1394
 9918DDP     C159503  20.694  27.270  24.244 -0.3269 -0.1900  0.0815
 9918DDP     P159504  20.659  26.859  24.007  0.2085  0.1239 -0.1200
 9918DDP     P259505  21.016  27.375  24.626  0.1102 -0.4538  0.0531
 9918DDP     C259506  21.308  27.781  24.637 -0.2903 -0.1035  0.2218
 9918DDP     C359507  20.357  26.761  23.685 -0.2751 -0.0943 -0.0148
 9918DDP     C459508  20.546  27.549  23.895  0.0549  0.1400  0.0461
 9919DDP     C159509  25.780  11.410  23.889 -0.0817  0.0592 -0.0315
 9919DDP     P159510  26.201  11.354  23.823  0.2166  0.0835  0.3555
 9919DDP     P259511  25.416  11.452  23.593 -0.1134 -0.0698 -0.1523
 9919DDP     C259512  25.053  11.693  23.456  0.1132 -0.2293  0.1580
 9919DDP     C359513  26.526  11.485  23.588 -0.0970 -0.0944  0.2603
 9919DDP     C459514  25.742  11.708  24.323 -0.0177 -0.0159  0.2165
 9920DDP     C159515  18.812  20.627  13.238  0.1373 -0.0977 -0.0051
 9920DDP     P159516  18.551  20.373  13.090 -0.0572 -0.1153 -0.1307
 9920DDP     P259517  19.135  20.557  13.563 -0.0488  0.2056  0.2890
 9920DDP     C259518  19.121  20.096  13.826  0.1153 -0.2301  0.2979
 9920DDP     C359519  18.048  20.268  13.094  0.1620 -0.0230 -0.3212
 9920DDP     C459520  18.924  20.998  12.998 -0.1737 -0.2720 -0.3223
 9921DDP     C159521  20.029  17.959   5.863 -0.0871 -0.0898 -0.0875
 9921DDP     P159522  19.907  17.484   5.955  0.1625  0.2056 -0.2779
 9921DDP     P259523  19.888  18.241   6.229 -0.0209  0.1481  0.2134
 9921DDP     C259524  20.302  18.356   6.454  0.0442 -0.0431  0.0975
 9921DDP     C359525  19.579  17.261   6.198 -0.5408 -0.0055  0.0701
 9921DDP     C459526  20.376  18.088   5.595  0.2032 -0.0586  0.1046
 9922DDP     C159527  27.362  17.111   8.979  0.1371  0.3146  0.0416
 9922DDP     P159528  27.085  17.262   9.138  0.1276  0.2940 -0.1059
 9922DDP     P259529  27.781  17.285   8.671 -0.1388 -0.2883  0.0882
 9922DDP     C259530  28.027  17.635   8.568  0.0641  0.0674 -0.2697
 9922DDP     C359531  26.671  17.099   9.276 -0.2727  0.1130  0.1627
 9922DDP     C459532  27.295  16.596   8.973 -0.0215  0.1400 -0.2780
 9923DDP     C159533  19.709  28.613   1.846 -0.1141  0.0920  0.2331
 9923DDP     P159534  19.667  28.305   2.065 -0.2363 -0.3509  0.0562
 9923DDP     P259535  20.002  28.995   1.828  0.1177 -0.0009 -0.0491
 9923DDP     C259536  20.380  29.314   1.896  0.1675 -0.5072  0.0549
 9923DDP     C359537  19.633  27.976   2.386 -0.2271  0.2237  0.0873
 9923DDP     C459538  19.390  28.465   1.553 -0.0811  0.1743  0.3574
 9924DDP     C159539  12.084  10.729   6.054 -0.0676  0.1709 -0.1257
 9924DDP     P159540  12.588  10.915   6.087  0.2511  0.1722 -0.6415
 9924DDP     P259541  11.988  10.337   6.103  0.1390 -0.1460  0.2134
 9924DDP     C259542  11.826   9.953   6.095  0.0778 -0.1137  0.0634
 9924DDP     C359543  12.971  10.941   6.326  0.1622  0.1024  0.0447
 9924DDP     C459544  11.728  10.832   6.099 -0.1741  0.2147 -0.3171
 9925DDP     C159545   9.253  13.608  10.291 -0.3061 -0.0285 -0.1176
 9925DDP     P159546   9.419  13.335  10.642 -0.3537 -0.1701 -0.0113
 9925DDP     P259547   8.885  13.451  10.080 -0.2944  0.1112  0.1425
 9925DDP     C259548   8.913  13.421   9.725 -0.0129  0.2140  0.0751
 9925DDP     C359549   9.728  13.192  10.857 -0.0454  0.0664  0.1819
 9925DDP     C459550   9.381  13.968  10.150  0.1603  0.0632 -0.0371
 9926DDP     C159551  25.640  11.562  13.914  0.3052  0.1976  0.0595
 9926DDP     P159552  25.389  11.241  13.665 -0.1341  0.2230 -0.1663
 9926DDP     P259553  25.919  11.526  14.031  0.0973 -0.1363 -0.1682
 9926DDP     C259554  26.370  11.637  14.220 -0.0988 -0.1260 -0.0315
 9926DDP     C359555  25.058  11.252  13.308  0.1286  0.1176  0.0904
 9926DDP     C459556  25.334  11.651  14.145  0.3178  0.2217 -0.0683
 9927DDP     C159557  20.828  17.974   1.267 -0.2852 -0.1169 -0.0035
 9927DDP     P159558  20.460  18.192   1.135 -0.2030 -0.0506  0.1505
 9927DDP     P259559  21.110  18.149   1.576 -0.1754 -0.0926  0.0628
 9927DDP     C259560  21.191  18.051   2.040 -0.1450 -0.0729  0.1153
 9927DDP     C359561  20.121  18.562   1.145 -0.1152 -0.0090  0.1728
 9927DDP     C459562  20.856  17.628   0.941  0.0117 -0.2995  0.1785
 9928DDP     C159563  10.551   8.653  20.241  0.1094 -0.1621 -0.0812
 9928DDP     P159564  10.182   8.658  20.465  0.1947  0.2207 -0.1209
 9928DDP     P259565  10.979   8.570  20.320 -0.4941 -0.0703 -0.4228
 9928DDP     C259566  11.434   8.402  20.408  0.1688 -0.3187 -0.4491
 9928DDP     C359567   9.783   8.483  20.685  0.3159 -0.2164 -0.1351
 9928DDP     C459568  10.652   8.494  19.701 -0.4268 -0.2025  0.0511
 9929DDP     C159569   6.858  22.603  25.780 -0.0754 -0.0389 -0.2926
 9929DDP     P159570   6.492  22.932  25.822  0.0393 -0.1332  0.0809
 9929DDP     P259571   6.763  22.118  25.755 -0.2424  0.1013  0.1787
 9929DDP     C259572   6.879  21.825  25.480 -0.2245 -0.2229 -0.3213
 9929DDP     C359573   6.192  23.145  26.024  0.2323  0.1209 -0.1345
 9929DDP     C459574   7.252  22.768  25.788  0.2058 -0.1720 -0.2793
 9930DDP     C159575   9.041  24.901   3.764  0.2443  0.1339 -0.0368
 9930DDP     P159576   8.647  25.138   3.810 -0.0065 -0.1023 -0.1646
 9930DDP     P259577   9.300  24.881   4.232 -0.1005  0.0139  0.1281
 9930DDP     C259578   9.738  24.731   4.406 -0.0976  0.0464 -0.0874
 9930DDP     C359579   8.464  25.607   3.715 -0.0542  0.1273  0.3882
 9930DDP     C459580   9.256  24.694   3.539  0.1525 -0.1836 -0.1766
 9931DDP     C159581   0.795  13.239   2.776 -0.0251  0.0101  0.3599
 9931DDP     P159582   0.689  12.794   2.908  0.0571 -0.0132 -0.0424
 9931DDP     P259583   0.519  13.372   2.457  0.1132  0.1575 -0.2671
 9931DDP     C259584   0.389  13.711   2.300  0.0893 -0.0870 -0.1954
 9931DDP     C359585   0.465  12.721   3.359 -0.0432  0.1127  0.0524
 9931DDP     C459586   1.058  13.456   3.015  0.1647  0.0063  0.0047
 9932DDP     C159587   9.946   6.718   5.066 -0.4207 -0.0134  0.1861
 9932DDP     P159588   9.629   6.812   5.343 -0.3890  0.1012  0.1058
 9932DDP     P259589  10.338   6.688   5.122 -0.0064  0.0042  0.3099
 9932DDP     C259590  10.661   6.482   5.322  0.1613  0.3234  0.1594
 9932DDP     C359591   9.630   7.052   5.553 -0.0791  0.1995  0.0071
 9932DDP     C459592   9.727   6.496   4.850 -0.1631  0.4842  0.1895
 9933DDP     C159593   7.619  24.891  17.053  0.3052 -0.0784 -0.0476
 9933DDP     P159594   7.601  25.054  16.718  0.0080 -0.1798  0.0946
 9933DDP     P259595   7.621  24.407  17.079  0.1337  0.0257  0.1547
 9933DDP     C259596   7.727  24.004  17.131 -0.0848 -0.0998  0.1982
 9933DDP     C359597   7.856  24.940  16.370 -0.1386 -0.0062 -0.0401
 9933DDP     C459598   7.542  25.064  17.497 -0.0614 -0.0658 -0.0473
 9934DDP     C159599  16.023   7.452  14.815 -0.0116 -0.0378  0.0529
 9934DDP     P159600  16.106   7.027  14.911 -0.1133  0.0962 -0.0529
 9934DDP     P259601  16.236   7.792  14.882  0.1508 -0.3108 -0.0499
 9934DDP     C259602  16.199   8.133  14.790  0.1528  0.0687 -0.1416
 9934DDP     C359603  16.241   6.600  14.696 -0.2579 -0.1856 -0.3022
 9934DDP     C459604  15.589   7.510  14.592 -0.0051  0.4511  0.3190
 9935DDP     C159605  28.298  21.222  18.210 -0.0273  0.1468 -0.0911
 9935DDP     P159606  27.937  21.269  18.356  0.2053  0.3663  0.1241
 9935DDP     P259607  28.503  21.628  18.207 -0.3611  0.0838  0.0880
 9935DDP     C259608  28.762  21.999  18.266 -0.1105  0.1561 -0.3996
 9935DDP     C359609  27.502  21.262  18.211 -0.3578 -0.2688 -0.2002
 9935DDP     C459610  28.405  20.871  17.923  0.0917  0.1103 -0.2850
 9936DDP     C159611  18.235   0.033   1.236  0.0920  0.1001 -0.0839
 9936DDP     P159612  17.973  30.027   0.975  0.1267  0.0990 -0.3781
 9936DDP     P259613  18.031   0.354   1.501 -0.0343  0.1842  0.1010
 9936DDP     C259614  17.999   0.834   1.474  0.2390 -0.0509 -0.1433
 9936DDP     C359615  17.824  29.850   0.530  0.0505 -0.0958 -0.1531
 9936DDP     C459616  18.684  30.224   1.347 -0.2797 -0.0713 -0.2732
 9937DDP     C159617  20.146   5.323  13.205 -0.3343 -0.0119 -0.1497
 9937DDP     P159618  20.302   5.705  13.333 -0.2014 -0.1130 -0.3465
 9937DDP     P259619  20.365   5.115  13.550  0.0213 -0.1514 -0.0573
 9937DDP     C259620  20.148   5.056  13.867  0.0047  0.0137 -0.0329
 9937DDP     C359621  20.632   5.786  13.090 -0.0112 -0.1025 -0.1896
 9937DDP     C459622  19.992   5.360  12.814  0.2154 -0.1904  0.0257
 9938DDP     C159623  12.617   1.821   6.356 -0.0435  0.0591 -0.1151
 9938DDP     P159624  12.854   1.833   6.551  0.0295 -0.0835  0.0142
 9938DDP     P259625  12.534   2.104   6.079 -0.2662  0.1100 -0.1061
 9938DDP     C259626  12.748   2.353   6.245 -0.0316  0.2498  0.1489
 9938DDP     C359627  12.946   2.023   6.936 -0.0402  0.0044 -0.1809
 9938DDP     C459628  12.416   1.350   6.292 -0.2225  0.1173 -0.0639
 9939DDP     C159629  19.059  15.237  12.714  0.0520 -0.0908  0.0728
 9939DDP     P159630  18.695  15.543  12.828  0.1423 -0.1689  0.3044
 9939DDP     P259631  19.171  14.880  12.812  0.2451  0.1676  0.0372
 9939DDP     C259632  19.136  14.482  13.116 -0.2633 -0.0919  0.1677
 9939DDP     C359633  18.222  15.754  12.920  0.0905  0.1376  0.0219
 9939DDP     C459634  19.282  15.473  12.292 -0.1823 -0.1682 -0.2452
 9940DDP     C159635   6.246  10.133   7.120 -0.0932 -0.0748 -0.1540
 9940DDP     P159636   6.242  10.042   6.696  0.0662 -0.0176 -0.2527
 9940DDP     P259637   6.414  10.532   7.164  0.1505  0.3541  0.0042
 9940DDP     C259638   6.778  10.960   7.295 -0.3237  0.2082 -0.0092
 9940DDP     C359639   5.900   9.778   6.465 -0.0682  0.0563  0.0644
 9940DDP     C459640   6.157   9.823   7.440 -0.1593  0.0955  0.0595
 9941DDP     C159641  23.444  28.628  29.055  0.0293  0.4988 -0.0137
 9941DDP     P159642  23.213  28.468  28.740 -0.0130 -0.2992 -0.0984
 9941DDP     P259643  23.507  28.959  29.113 -0.2943 -0.3154 -0.3089
 9941DDP     C259644  23.717  29.314  29.268  0.0758  0.0174  0.2176
 9941DDP     C359645  23.102  28.060  28.588 -0.1435 -0.0245  0.2248
 9941DDP     C459646  23.552  28.464  29.467 -0.0406  0.3252  0.1355
 9942DDP     C159647   2.661  25.781  23.805  0.2019 -0.0805 -0.1549
 9942DDP     P159648   2.242  25.607  23.683 -0.1175  0.1896  0.0029
 9942DDP     P259649   2.784  25.961  23.463  0.0177  0.1783 -0.1060
 9942DDP     C259650   3.041  26.245  23.293 -0.2675  0.0414  0.3071
 9942DDP     C359651   1.819  25.457  23.593 -0.2279 -0.0605 -0.2760
 9942DDP     C459652   2.895  25.658  24.178  0.0190  0.2095  0.0842
 9943DDP     C159653  17.702   6.579  17.882 -0.0075  0.2613  0.0948
 9943DDP     P159654  17.637   6.448  18.281 -0.5133  0.0886 -0.0012
 9943DDP     P259655  18.007   6.200  17.614 -0.1439 -0.2586  0.0418
 9943DDP     C259656  18.256   6.278  17.228  0.0691 -0.0860 -0.0035
 9943DDP     C359657  17.926   6.534  18.670 -0.1265 -0.1707 -0.3172
 9943DDP     C459658  17.582   6.906  17.511 -0.1938  0.2177 -0.1463
 9944DDP     C159659  29.376  27.856  28.086  0.0643  0.1908  0.0273
 9944DDP     P159660  29.027  28.032  28.183 -0.3443 -0.0498  0.1392
 9944DDP     P259661  29.661  27.552  28.157 -0.0059 -0.0913  0.2954
 9944DDP     C259662  29.614  27.196  27.960  0.0707 -0.0432  0.0136
 9944DDP     C359663  28.565  27.962  28.329  0.1240 -0.0860  0.1541
 9944DDP     C459664  29.210  27.549  27.797 -0.1041  0.3106  0.0560
 9945DDP     C159665  29.886  27.101   8.144 -0.2841  0.2009  0.0429
 9945DDP     P159666  30.033  27.167   7.778 -0.0882  0.0241 -0.0983
 9945DDP     P259667  30.093  27.135   8.493 -0.0023 -0.2819 -0.1040
 9945DDP     C259668  30.186  27.510   8.693 -0.1399 -0.3201  0.3411
 9945DDP     C359669  30.074  27.323   7.383  0.2177 -0.0534  0.1153
 9945DDP     C459670  29.489  27.060   8.043  0.0958  0.0893  0.3359
 9946DDP     C159671   0.766  24.235  26.597  0.1233  0.0647 -0.1657
 9946DDP     P159672   0.843  24.637  26.312  0.0879 -0.2059  0.1307
 9946DDP     P259673   0.481  23.894  26.545 -0.1265  0.2700  0.1587
 9946DDP     C259674   0.372  23.514  26.319  0.1074 -0.1172  0.2227
 9946DDP     C359675   1.030  25.014  26.174 -0.3241 -0.0407 -0.2577
 9946DDP     C459676   0.721  24.489  26.883 -0.0526 -0.0759 -0.0108
 9947DDP     C159677   3.887  16.749  28.454 -0.1588 -0.3030  0.1227
 9947DDP     P159678   3.940  16.363  28.590  0.1025  0.2765 -0.0923
 9947DDP     P259679   3.395  16.818  28.547  0.0410  0.0329  0.0689
 9947DDP     C259680   3.192  16.602  28.762 -0.1041  0.0813 -0.0506
 9947DDP     C359681   3.990  15.821  28.712 -0.2600 -0.1679 -0.2908
 9947DDP     C459682   3.945  17.105  28.160  0.0167  0.1682  0.1329
 9948DDP     C159683  17.920  15.434   8.137 -0.0180 -0.1129  0.0355
 9948DDP     P159684  18.081  15.867   7.999 -0.2383  0.0653 -0.2188
 9948DDP     P259685  18.208  15.068   8.086  0.0288 -0.0572 -0.0859
 9948DDP     C259686  18.601  14.810   7.902 -0.1748  0.1756  0.0648
 9948DDP     C359687  17.958  16.272   7.761 -0.1030 -0.3136  0.1918
 9948DDP     C459688  17.593  15.370   8.415 -0.0264 -0.1781 -0.1137
 9949DDP     C159689  26.194  20.384  27.090  0.1161  0.1988 -0.1010
 9949DDP     P159690  26.534  20.507  26.703  0.0112 -0.2332 -0.1371
 9949DDP     P259691  25.951  20.111  27.019 -0.0488 -0.2377  0.1838
 9949DDP     C259692  25.715  19.876  26.719 -0.0210  0.1271 -0.1572
 9949DDP     C359693  26.783  20.624  26.351  0.3735 -0.0201 -0.4655
 9949DDP     C459694  26.045  20.499  27.512 -0.3607  0.0257 -0.1760
 9950DDP     C159695  23.045  11.675  13.790 -0.1191 -0.1503  0.0501
 9950DDP     P159696  23.202  11.247  13.888 -0.1719 -0.3168  0.0936
 9950DDP     P259697  23.079  12.051  14.006 -0.3143 -0.0053 -0.0601
 9950DDP     C259698  23.000  12.279  14.383 -0.3186  0.1598  0.0287
 9950DDP     C359699  23.368  10.912  14.146 -0.1299  0.0130  0.2516
 9950DDP     C459700  22.904  11.866  13.356 -0.0779  0.1180 -0.0171
 9951DDP     C159701  22.922   9.520  10.185  0.1710 -0.4427  0.1939
 9951DDP     P159702  23.135   9.259   9.842 -0.0100  0.3988 -0.1968
 9951DDP     P259703  22.859   9.320  10.496 -0.3309  0.0383  0.0814
 9951DDP     C259704  23.081   9.007  10.710  0.0369  0.2673 -0.0617
 9951DDP     C359705  23.578   9.225   9.756  0.1096  0.1663 -0.0413
 9951DDP     C459706  23.037   9.941  10.090  0.0352  0.0151 -0.0830
 9952DDP     C159707   6.248  15.686  12.581 -0.1128  0.0408 -0.0313
 9952DDP     P159708   6.262  15.536  12.145  0.1781 -0.0774 -0.4083
 9952DDP     P259709   6.617  15.688  12.841 -0.1407 -0.1365  0.1935
 9952DDP     C259710   7.029  15.646  13.136  0.2152 -0.0321 -0.0727
 9952DDP     C359711   6.298  15.741  11.814 -0.0571  0.0296  0.2897
 9952DDP     C459712   5.976  15.467  12.923 -0.2554  0.1354 -0.1538
 9953DDP     C159713  15.334  20.829   8.304  0.0063 -0.0756 -0.2147
 9953DDP     P159714  15.625  20.923   7.942 -0.2035 -0.0905  0.2464
 9953DDP     P259715  14.985  21.224   8.439  0.1395  0.0333 -0.0651
 9953DDP     C259716  14.571  21.180   8.339 -0.1931 -0.0261 -0.1285
 9953DDP     C359717  15.783  20.943   7.535 -0.2126  0.1174 -0.3082
 9953DDP     C459718  15.134  20.344   8.403  0.0492  0.0511 -0.0861
 9954DDP     C159719  25.408  15.295   9.833 -0.0658 -0.0127 -0.1366
 9954DDP     P159720  25.795  15.251  10.073  0.0676  0.0719  0.2086
 9954DDP     P259721  25.286  15.397   9.370  0.0556  0.0948 -0.1296
 9954DDP     C259722  25.162  15.638   9.152 -0.1600  0.2008  0.1522
 9954DDP     C359723  26.050  15.526  10.273  0.0411  0.2358  0.2185
 9954DDP     C459724  25.170  15.382  10.154 -0.3250  0.0403 -0.0266
 9955DDP     C159725  29.250   5.342   8.388  0.3669 -0.0585 -0.0224
 9955DDP     P159726  29.565   5.403   8.707 -0.2249  0.0381 -0.1160
 9955DDP     P259727  29.250   5.840   8.444  0.0627  0.3347 -0.1385
 9955DDP     C259728  29.314   6.349   8.264  0.2999 -0.0965  0.0006
 9955DDP     C359729  29.859   5.822   8.982  0.1394  0.3027 -0.2730
 9955DDP     C459730  28.909   5.072   8.148  0.2062 -0.0691 -0.3351
 9956DDP     C159731   1.010  18.510  28.600 -0.0187  0.0464 -0.0069
 9956DDP     P159732   0.684  18.339  28.325  0.4412  0.0423  0.0770
 9956DDP     P259733   1.415  18.562  28.529  0.0623  0.0036 -0.1423
 9956DDP     C259734   1.640  18.352  28.911 -0.0731  0.1788  0.2065
 9956DDP     C359735   0.200  18.271  28.327  0.3080  0.1076  0.1398
 9956DDP     C459736   0.838  18.452  29.117  0.0409  0.1542  0.0470
 9957DDP     C159737  26.788  26.666  30.144 -0.0255  0.3601  0.2140
 9957DDP     P159738  26.811  26.264  30.010 -0.2848  0.0182  0.1302
 9957DDP     P259739  26.708  26.520   0.175  0.0578 -0.2172 -0.0552
 9957DDP     C259740  26.859  26.594   0.544  0.0456 -0.0495 -0.1614
 9957DDP     C359741  26.961  25.965  29.726  0.1493  0.2993  0.0449
 9957DDP     C459742  26.780  27.018  30.110  0.4114  0.0434 -0.1124
 9958DDP     C159743  20.887   7.012  27.940  0.0043 -0.2291  0.0253
 9958DDP     P159744  20.542   7.326  27.934  0.1953  0.2147 -0.4076
 9958DDP     P259745  21.210   7.024  27.771 -0.1661  0.1744  0.1072
 9958DDP     C259746  21.579   6.998  27.533  0.0323  0.0740 -0.2184
 9958DDP     C359747  20.112   7.497  27.893 -0.0787 -0.1029 -0.2901
 9958DDP     C459748  20.813   6.769  28.277 -0.3000  0.0453 -0.0498
 9959DDP     C159749  22.284  13.095  18.104 -0.1659  0.1259 -0.0740
 9959DDP     P159750  21.848  12.876  18.133  0.1271  0.0760 -0.0031
 9959DDP     P259751  22.419  12.941  18.486  0.0733 -0.1014 -0.1906
 9959DDP     C259752  22.309  13.039  18.900 -0.0858 -0.0426 -0.2033
 9959DDP     C359753  21.487  12.955  17.890 -0.4027 -0.2233  0.0810
 9959DDP     C459754  22.594  13.279  17.821 -0.0030  0.1254  0.1728
 9960DDP     C159755   2.343   6.491  11.403 -0.2193  0.1455 -0.2437
 9960DDP     P159756   2.381   6.324  11.816 -0.3047  0.0542 -0.1076
 9960DDP     P259757   1.885   6.604  11.347  0.0432 -0.0167  0.0386
 9960DDP     C259758   1.657   6.263  11.380 -0.2126  0.1331 -0.0350
 9960DDP     C359759   2.564   6.043  12.152 -0.1309 -0.3042 -0.0739
 9960DDP     C459760   2.603   6.543  11.020 -0.2973  0.0765 -0.6602
 9961DDP     C159761  13.098  11.377   2.395 -0.0433  0.0740 -0.0704
 9961DDP     P159762  13.250  11.814   2.199  0.0730  0.1308  0.4453
 9961DDP     P259763  12.748  11.188   2.588  0.0199 -0.2342 -0.0511
 9961DDP     C259764  12.283  11.259   2.515  0.0134  0.3247  0.0192
 9961DDP     C359765  13.496  12.149   2.079 -0.0845  0.3655  0.3082
 9961DDP     C459766  13.416  11.175   2.319  0.0714  0.0062  0.2085
 9962DDP     C159767   7.106  20.026   0.074  0.2793  0.0294 -0.0101
 9962DDP     P159768   6.855  20.243  30.051  0.0281 -0.0069 -0.3095
 9962DDP     P259769   7.358  19.628   0.080  0.0836  0.0085  0.1948
 9962DDP     C259770   7.450  19.250  30.134  0.0592 -0.1592 -0.0186
 9962DDP     C359771   6.496  20.260  29.733 -0.0384 -0.0806  0.1322
 9962DDP     C459772   7.084  20.178   0.460  0.1086  0.3164 -0.0667
 9963DDP     C159773  11.407   3.202   7.582  0.2570 -0.1248  0.0397
 9963DDP     P159774  10.910   3.256   7.797  0.1030 -0.3357 -0.0965
 9963DDP     P259775  11.589   2.791   7.568 -0.2743 -0.0776  0.0623
 9963DDP     C259776  11.613   2.616   7.228 -0.0297  0.0181  0.1132
 9963DDP     C359777  10.455   3.303   7.825 -0.1036 -0.2652 -0.0485
 9963DDP     C459778  11.729   3.391   7.487 -0.1746  0.1524 -0.2451
 9964DDP     C159779  26.663  14.804  10.384 -0.0229  0.1372 -0.0947
 9964DDP     P159780  27.011  14.880  10.692  0.0134  0.1511  0.1980
 9964DDP     P259781  26.573  14.503  10.169  0.3592  0.2184  0.3000
 9964DDP     C259782  26.247  14.302   9.902  0.1388 -0.0985  0.2363
 9964DDP     C359783  27.526  14.912  10.729 -0.1890 -0.2051  0.2266
 9964DDP     C459784  26.449  15.195  10.490  0.2150  0.0334  0.0144
 9965DDP     C159785   4.003   0.266  26.484  0.0707  0.3552 -0.1278
 9965DDP     P159786   3.672   0.387  26.313 -0.0952 -0.0627  0.1581
 9965DDP     P259787   4.195  30.227  26.351  0.2989 -0.0185 -0.1169
 9965DDP     C259788   4.419  29.935  26.498 -0.2499  0.3258 -0.0469
 9965DDP     C359789   3.336   0.426  26.173  0.1223 -0.2196 -0.2507
 9965DDP     C459790   4.261   0.539  26.742 -0.0897 -0.0473 -0.2087
 9966DDP     C159791   1.462   7.023  21.660 -0.0079 -0.2453  0.3670
 9966DDP     P159792   1.756   6.759  22.024 -0.0499 -0.1723  0.2553
 9966DDP     P259793   1.552   7.167  21.309  0.0296  0.0592  0.1046
 9966DDP     C259794   1.424   7.529  21.053  0.5150  0.0567  0.2322
 9966DDP     C359795   2.064   6.867  22.369 -0.1661 -0.0368 -0.0681
 9966DDP     C459796   1.059   7.140  21.931  0.0456  0.0749 -0.2168
 9967DDP     C159797   5.568   2.481  26.545  0.0018  0.1957  0.1434
 9967DDP     P159798   5.802   2.027  26.480  0.0199  0.2527 -0.1239
 9967DDP     P259799   5.152   2.629  26.334 -0.0699 -0.0498  0.2579
 9967DDP     C259800   4.791   2.612  26.197 -0.0957 -0.0519  0.0997
 9967DDP     C359801   5.996   1.608  26.583  0.3817 -0.0251  0.2514
 9967DDP     C459802   5.540   2.629  26.888  0.1513 -0.2737 -0.1804
 9968DDP     C159803   4.093  11.710   6.225  0.0218 -0.1679  0.3760
 9968DDP     P159804   4.110  12.091   6.350 -0.1113 -0.1982  0.1201
 9968DDP     P259805   3.877  11.536   5.881  0.0852  0.0883  0.0475
 9968DDP     C259806   3.525  11.639   5.738  0.1410 -0.0351 -0.0363
 9968DDP     C359807   4.350  12.165   6.634 -0.1794  0.0504 -0.0196
 9968DDP     C459808   4.088  11.227   6.251  0.0922 -0.1221 -0.3433
 9969DDP     C159809  29.914  10.681  22.579 -0.0981  0.2625  0.1953
 9969DDP     P159810  29.472  10.717  22.749  0.1107  0.0781 -0.1458
 9969DDP     P259811  30.210  10.429  22.789 -0.0304  0.5803  0.0816
 9969DDP     C259812   0.278  10.402  22.875  0.0209 -0.2826 -0.1248
 9969DDP     C359813  29.038  10.559  22.711  0.0979 -0.1213  0.1859
 9969DDP     C459814  30.018  10.727  22.166 -0.0235 -0.2545 -0.1394
 9970DDP     C159815  10.279  12.926  20.943  0.1220  0.2777  0.3714
 9970DDP     P159816  10.451  13.111  20.541 -0.1026  0.2938  0.3346
 9970DDP     P259817  10.033  12.694  20.913 -0.0264  0.2048  0.1300
 9970DDP     C259818  10.024  12.490  20.525  0.0443  0.0930  0.0688
 9970DDP     C359819  10.741  13.414  20.589 -0.2308 -0.0581  0.1610
 9970DDP     C459820  10.390  13.001  21.429  0.1428  0.3994  0.0034
 9971DDP     C159821  14.888   6.251  22.754 -0.2262 -0.3341  0.0098
 9971DDP     P159822  14.497   6.202  22.705 -0.2594  0.2250 -0.1319
 9971DDP     P259823  15.047   6.310  23.246 -0.0339  0.2668  0.1029
 9971DDP     C259824  14.899   6.650  23.593 -0.0807  0.0110  0.0717
 9971DDP     C359825  14.347   5.749  22.726  0.2192 -0.1298 -0.2067
 9971DDP     C459826  15.230   6.056  22.448  0.1399 -0.1602 -0.0188
 9972DDP     C159827  17.061   8.806   8.711 -0.1698 -0.1670  0.0246
 9972DDP     P159828  16.824   8.844   9.065 -0.1216  0.1011 -0.1642
 9972DDP     P259829  16.887   8.785   8.291  0.2728 -0.1267 -0.0179
 9972DDP     C259830  16.551   8.744   7.899 -0.1936 -0.1289  0.0398
 9972DDP     C359831  16.461   8.711   9.186 -0.0407 -0.2072 -0.0772
 9972DDP     C459832  17.477   8.856   8.663  0.2199  0.0170  0.3618
 9973DDP     C159833  17.803   5.128  15.436  0.1347 -0.1129 -0.0228
 9973DDP     P159834  18.026   4.902  15.670  0.0220  0.4038  0.3280
 9973DDP     P259835  17.500   4.937  15.114  0.2065  0.0357  0.0412
 9973DDP     C259836  17.216   4.841  14.770  0.2412  0.1349  0.0668
 9973DDP     C359837  18.436   4.717  15.595 -0.1007  0.0919  0.0304
 9973DDP     C459838  17.727   5.469  15.723 -0.1898  0.2947 -0.0743
 9974DDP     C159839   3.430  21.480   2.278 -0.1422 -0.2671  0.0331
 9974DDP     P159840   3.479  21.863   2.392  0.1214 -0.0107  0.1617
 9974DDP     P259841   3.751  21.193   2.250  0.1782  0.2687  0.3196
 9974DDP     C259842   4.018  20.858   2.139 -0.0418 -0.3302 -0.1952
 9974DDP     C359843   3.355  22.355   2.299 -0.1652 -0.0459 -0.0156
 9974DDP     C459844   3.128  21.251   2.527 -0.1157  0.3799 -0.1152
 9975DDP     C159845  13.818  19.628   9.673  0.0922 -0.2879 -0.2827
 9975DDP     P159846  13.974  20.028   9.773 -0.1401 -0.0347  0.1712
 9975DDP     P259847  13.729  19.753   9.275  0.1207 -0.1688  0.0154
 9975DDP     C259848  13.545  19.600   8.967  0.0934  0.2126 -0.0629
 9975DDP     C359849  14.188  20.262   9.755  0.0562  0.1144 -0.3137
 9975DDP     C459850  13.728  19.337   9.864 -0.0523 -0.2017  0.2888
 9976DDP     C159851  10.158  24.475  10.457 -0.0569 -0.3154 -0.0197
 9976DDP     P159852  10.159  24.876  10.325 -0.0269  0.1700 -0.0694
 9976DDP     P259853   9.757  24.340  10.517  0.0087 -0.0322  0.2584
 9976DDP     C259854   9.325  24.286  10.657 -0.0238  0.1023 -0.0666
 9976DDP     C359855  10.247  25.334  10.526  0.2945 -0.3854  0.1442
 9976DDP     C459856  10.527  24.333  10.652 -0.1936 -0.1433  0.0471
 9977DDP     C159857   6.658  13.469  16.728  0.4186 -0.2743  0.0586
 9977DDP     P159858   6.881  13.102  16.579  0.0671  0.0627 -0.0120
 9977DDP     P259859   6.649  13.889  16.492  0.0123  0.0321  0.0784
 9977DDP     C259860   6.706  14.315  16.615  0.2212 -0.1273 -0.2140
 9977DDP     C359861   6.979  12.813  16.266 -0.0981  0.1261  0.0500
 9977DDP     C459862   6.476  13.522  17.216 -0.2175  0.0792 -0.0185
 9978DDP     C159863  13.398   0.354   8.815  0.0723 -0.1680 -0.1787
 9978DDP     P159864  13.645   0.478   8.418  0.1716  0.1722  0.2984
 9978DDP     P259865  12.945   0.360   8.910  0.0619  0.0270  0.4475
 9978DDP     C259866  12.646   0.169   9.090  0.2010 -0.0582  0.2159
 9978DDP     C359867  13.927   0.959   8.380 -0.1371  0.1378  0.2002
 9978DDP     C459868  13.784   0.236   9.055  0.0506  0.1199 -0.0086
 9979DDP     C159869   0.575  29.429   0.347 -0.2516  0.1348  0.1860
 9979DDP     P159870   0.907  29.740   0.154  0.4109 -0.1846  0.0838
 9979DDP     P259871   0.589  29.035   0.597  0.4070  0.0970 -0.2560
 9979DDP     C259872   0.264  28.764   0.856  0.1190 -0.2255  0.1090
 9979DDP     C359873   1.258  29.568  30.323 -0.1980 -0.0922  0.1386
 9979DDP     C459874   0.265  29.756   0.454 -0.1673  0.0939 -0.0766
 9980DDP     C159875   6.687  28.547   8.789 -0.1212 -0.0204  0.2211
 9980DDP     P159876   6.753  28.509   9.156 -0.3412  0.2813 -0.2510
 9980DDP     P259877   6.380  28.399   8.455  0.1288  0.0713 -0.1520
 9980DDP     C259878   6.261  27.994   8.286  0.0441  0.0386 -0.0460
 9980DDP     C359879   6.605  28.631   9.622 -0.0299 -0.0029 -0.1732
 9980DDP     C459880   7.004  28.826   8.492  0.0370  0.2710 -0.0238
 9981DDP     C159881   5.009  27.800  10.506  0.4895  0.1588 -0.0853
 9981DDP     P159882   4.731  27.504  10.686 -0.1296  0.1016 -0.0668
 9981DDP     P259883   4.911  27.704  10.134  0.0873 -0.1498  0.0189
 9981DDP     C259884   4.798  27.675   9.778  0.2572 -0.0032 -0.3134
 9981DDP     C359885   4.456  27.392  11.054 -0.0237 -0.5515  0.1640
 9981DDP     C459886   5.530  27.884  10.489  0.3627  0.1513 -0.1847
 9982DDP     C159887  29.076   3.592   8.382  0.0613  0.0638 -0.3022
 9982DDP     P159888  29.059   3.190   8.655  0.2540 -0.0577  0.1298
 9982DDP     P259889  29.564   3.762   8.395 -0.3113  0.0365  0.0579
 9982DDP     C259890  29.968   3.871   8.601  0.1124 -0.0821  0.0553
 9982DDP     C359891  28.708   2.871   8.380 -0.1748  0.1316  0.3852
 9982DDP     C459892  28.649   3.744   8.194  0.0111  0.1054 -0.0265
 9983DDP     C159893  14.475   2.883  25.164 -0.0772  0.1826 -0.0345
 9983DDP     P159894  14.150   2.784  25.524  0.1817 -0.0417  0.1175
 9983DDP     P259895  14.853   2.652  25.237  0.0827 -0.0598  0.2370
 9983DDP     C259896  15.186   2.516  25.521 -0.0482  0.1811  0.0234
 9983DDP     C359897  14.018   2.739  25.971 -0.1465 -0.0943  0.1313
 9983DDP     C459898  14.564   3.087  24.777  0.3686  0.1678  0.0523
 9984DDP     C159899  20.306  24.278  26.488 -0.3144 -0.0957  0.0115
 9984DDP     P159900  20.700  24.392  26.250  0.0298  0.4221  0.2843
 9984DDP     P259901  20.036  24.485  26.593 -0.1293 -0.3452  0.6737
 9984DDP     C259902  19.772  24.676  26.406 -0.2033  0.0706  0.0481
 9984DDP     C359903  20.686  24.249  25.755 -0.0642  0.0865 -0.0679
 9984DDP     C459904  20.201  23.887  26.361  0.0951  0.2936  0.1463
 9985DDP     C159905   7.696  10.360  12.038 -0.2400  0.0666 -0.1318
 9985DDP     P159906   7.821  10.262  12.498  0.0655 -0.1516 -0.2063
 9985DDP     P259907   7.327  10.074  11.826  0.1800  0.3115  0.1674
 9985DDP     C259908   6.850  10.180  11.903  0.2126  0.2326 -0.1512
 9985DDP     C359909   7.689  10.188  12.822 -0.0494  0.2876 -0.2100
 9985DDP     C459910   7.943  10.643  11.671 -0.2306  0.0413  0.0738
 9986DDP     C159911   0.606   3.456  28.764  0.2056  0.2831  0.0590
 9986DDP     P159912   0.396   3.472  29.103  0.0819 -0.2203 -0.1133
 9986DDP     P259913   0.416   3.819  28.658 -0.3015  0.1338  0.3400
 9986DDP     C259914   0.701   3.997  28.320 -0.2117 -0.1467 -0.0599
 9986DDP     C359915   0.315   3.364  29.448 -0.2754 -0.0219  0.1797
 9986DDP     C459916   0.606   2.979  28.539 -0.2472 -0.1592  0.2525
 9987DDP     C159917   5.275  25.974  28.711 -0.0417  0.1849  0.4120
 9987DDP     P159918   5.374  25.597  28.933 -0.2668 -0.2060 -0.1098
 9987DDP     P259919   5.123  25.871  28.276  0.2186  0.2483 -0.1653
 9987DDP     C259920   4.818  25.727  27.909  0.1275 -0.1288 -0.3415
 9987DDP     C359921   5.390  25.522  29.342  0.0019  0.1561 -0.0980
 9987DDP     C459922   5.324  26.451  28.941  0.0795  0.2272 -0.0131
 9988DDP     C159923  20.384  10.406  21.655  0.0658 -0.1322  0.1378
 9988DDP     P159924  20.023  10.237  21.466 -0.0257  0.2726 -0.1302
 9988DDP     P259925  20.315  10.699  21.977  0.2454 -0.2124  0.3584
 9988DDP     C259926  20.628  10.930  22.293  0.1816 -0.3153  0.1678
 9988DDP     C359927  19.687  10.075  21.173 -0.3847 -0.1152  0.0952
 9988DDP     C459928  20.764  10.286  21.499  0.1656 -0.0970  0.0884
 9989DDP     C159929   0.508  29.299  24.631  0.0045  0.0532  0.0274
 9989DDP     P159930   0.141  29.600  24.583  0.3409  0.1895  0.1472
 9989DDP     P259931   0.543  28.949  24.345  0.1137 -0.2456  0.1949
 9989DDP     C259932   0.720  28.572  24.285  0.2901  0.4198 -0.2756
 9989DDP     C359933  30.166  29.679  24.287  0.0992  0.0769  0.0304
 9989DDP     C459934   0.875  29.403  24.878  0.1630  0.1171  0.1114
 9990DDP     C159935   7.577  25.238  11.397  0.2576 -0.2775  0.2202
 9990DDP     P159936   7.846  25.367  10.995  0.1104 -0.0750 -0.0212
 9990DDP     P259937   7.826  25.409  11.739 -0.1826  0.3142 -0.1262
 9990DDP     C259938   7.780  25.494  12.190  0.3854  0.0280  0.3151
 9990DDP     C359939   7.613  25.180  10.562  0.0465 -0.0276  0.1065
 9990DDP     C459940   7.179  24.868  11.321 -0.4244 -0.1509  0.0468
 9991DDP     C159941  16.624  30.303   2.947  0.1479  0.0724 -0.0942
 9991DDP     P159942  16.640  29.844   2.788 -0.0141 -0.3737 -0.0364
 9991DDP     P259943  16.804   0.273   3.285 -0.0046  0.0571 -0.0110
 9991DDP     C259944  16.957   0.429   3.617 -0.3139 -0.3535 -0.0045
 9991DDP     C359945  16.608  29.317   2.692  0.0381 -0.1894  0.1308
 9991DDP     C459946  16.364   0.162   2.616 -0.0635  0.2003  0.0734
 9992DDP     C159947  12.710  12.806  10.711 -0.1909 -0.4285 -0.1319
 9992DDP     P159948  12.490  12.591  10.939  0.1721  0.4312  0.0193
 9992DDP     P259949  13.029  12.987  10.912 -0.1517  0.1541 -0.1516
 9992DDP     C259950  13.427  13.015  10.981  0.0264  0.0385 -0.1388
 9992DDP     C359951  12.154  12.304  11.150 -0.4013 -0.1769  0.3946
 9992DDP     C459952  12.932  12.690  10.326  0.0742  0.1046 -0.2339
 9993DDP     C159953  14.387   6.765  21.349 -0.0471 -0.0152  0.2478
 9993DDP     P159954  14.496   7.144  21.082  0.0491  0.0391 -0.2610
 9993DDP     P259955  14.126   6.425  21.266  0.3178  0.1081 -0.0173
 9993DDP     C259956  14.426   6.074  21.442  0.1297 -0.2464  0.1905
 9993DDP     C359957  14.647   7.599  21.064 -0.2506  0.0166 -0.0790
 9993DDP     C459958  14.718   6.771  21.669 -0.0526  0.0922 -0.2045
 9994DDP     C159959  29.959  10.116  24.557  0.3350 -0.1751 -0.1038
 9994DDP     P159960  29.599  10.319  24.603 -0.0843  0.1899 -0.0304
 9994DDP     P259961  30.036   9.968  24.935 -0.0430  0.1316 -0.2679
 9994DDP     C259962  30.018   9.546  25.074  0.0587 -0.1427  0.1400
 9994DDP     C359963  29.180  10.431  24.846  0.2020  0.0332 -0.2280
 9994DDP     C459964  30.183   9.976  24.187 -0.0820  0.1156  0.2325
 9995DDP     C159965  27.566  22.107  23.968 -0.2250  0.2539 -0.1092
 9995DDP     P159966  27.436  22.173  24.362 -0.3189 -0.1451  0.3667
 9995DDP     P259967  27.742  22.384  23.759 -0.3631  0.3040 -0.0313
 9995DDP     C259968  27.826  22.528  23.391  0.0448  0.0359  0.1424
 9995DDP     C359969  27.229  22.519  24.534  0.2715  0.2468  0.3030
 9995DDP     C459970  27.329  21.760  23.745 -0.2514  0.1722  0.3752
 9996DDP     C159971  16.927   7.576  29.196 -0.1475  0.4403 -0.1415
 9996DDP     P159972  17.246   7.310  29.523 -0.1561  0.2618 -0.2091
 9996DDP     P259973  16.697   7.394  28.818 -0.1397  0.1304 -0.0141
 9996DDP     C259974  16.526   7.164  28.396  0.1218 -0.0579 -0.3425
 9996DDP     C359975  17.192   6.993  29.828 -0.2189 -0.0776  0.0465
 9996DDP     C459976  16.791   7.963  29.382  0.3006 -0.0345  0.0988
 9997DDP     C159977   0.415  21.597  19.320  0.1384 -0.0733 -0.2024
 9997DDP     P159978   0.229  21.360  19.506  0.2730  0.3737 -0.1308
 9997DDP     P259979   0.765  21.675  19.093 -0.0330 -0.0085  0.0611
 9997DDP     C259980   0.898  21.906  18.820 -0.0571 -0.0548 -0.0039
 9997DDP     C359981  30.349  20.928  19.582  0.3766 -0.1627  0.0971
 9997DDP     C459982   0.104  21.850  19.120  0.2504 -0.2559  0.2828
 9998DDP     C159983  19.134  11.377  26.884 -0.0638  0.1227 -0.1209
 9998DDP     P159984  18.881  11.202  26.676  0.2104 -0.1643  0.3440
 9998DDP     P259985  19.686  11.404  26.768 -0.0090 -0.3419 -0.0244
 9998DDP     C259986  20.178  11.316  26.815  0.1884 -0.0449 -0.1072
 9998DDP     C359987  18.707  10.813  26.723 -0.0473 -0.0180  0.1582
 9998DDP     C459988  19.052  11.494  27.296 -0.1473  0.1937 -0.1805
 9999DDP     C159989  15.240   0.028  11.378  0.1407 -0.2265 -0.0334
 9999DDP     P159990  14.745   0.135  11.383  0.2287  0.1489  0.1125
 9999DDP     P259991  15.052  30.004  11.629  0.1312 -0.0175 -0.1173
 9999DDP     C259992  14.897  29.903  12.002 -0.0377 -0.0189 -0.0981
 9999DDP     C359993  14.315   0.040  11.472  0.0447  0.1007 -0.0785
 9999DDP     C459994  15.499  -0.023  11.012 -0.2598 -0.3647  0.3737
10000DDP     C159995  22.645   9.988   4.693 -0.1152 -0.2441 -0.1138
10000DDP     P159996  22.852  10.214   4.995  0.0399 -0.2217  0.3779
10000DDP     P259997  22.667   9.605   4.772  0.0786 -0.1449 -0.0457
10000DDP     C259998  22.678   9.224   4.576  0.0178  0.0453  0.0067
10000DDP     C359999  23.159  10.321   5.307 -0.0468  0.0117 -0.1555
10000DDP     C460000  22.678  10.165   4.324 -0.2424  0.1575 -0.3050
10001DDP     C160001  25.931   5.581   7.768 -0.2402 -0.1293  0.2084
10001DDP     P160002  26.218   5.631   7.486  0.0795  0.0052 -0.0250
10001DDP     P260003  26.179   5.733   8.143 -0.0571  0.1454  0.0159
10001DDP     C260004  26.059   5.681   8.555 -0.2719  0.0284 -0.2674
10001DDP     C360005  26.205   5.783   7.155 -0.0381 -0.2411 -0.0888
10001DDP     C460006  25.465   5.570   7.759  0.1752 -0.0209  0.0016
10002DDP     C160007  15.872  17.434   1.467 -0.2809 -0.3012 -0.0454
10002DDP     P160008  15.954  17.548   1.952  0.2527  0.0531  0.2569
10002DDP     P260009  16.173  17.640   1.166 -0.2789 -0.0977 -0.0126
10002DDP     C260010  16.469  17.555   1.208  0.1460 -0.2954 -0.1128
10002DDP     C360011  16.327  17.625   2.287 -0.1688 -0.3225 -0.0187
10002DDP     C460012  15.434  17.300   1.391  0.0480  0.0849  0.1341
10003DDP     C160013  16.203  27.634  20.733  0.0700  0.1105  0.0486
10003DDP     P160014  16.391  27.367  20.395  0.0937 -0.0832 -0.0646
10003DDP     P260015  15.969  27.828  20.461  0.2542  0.1349 -0.0616
10003DDP     C260016  15.554  27.963  20.319 -0.1728 -0.3658  0.1105
10003DDP     C360017  16.775  27.014  20.137 -0.0340 -0.1493  0.0511
10003DDP     C460018  16.405  27.956  20.996  0.2978 -0.2170 -0.1828
10004DDP     C160019  14.099   7.512  13.875  0.3018  0.1560 -0.1701
10004DDP     P160020  13.806   7.744  13.776 -0.2894  0.2126 -0.0452
10004DDP     P260021  14.056   7.318  14.299  0.0005 -0.2465 -0.0588
10004DDP     C260022  13.966   7.193  14.634  0.1217 -0.3327 -0.0332
10004DDP     C360023  13.420   7.795  13.526 -0.0538  0.2908  0.0275
10004DDP     C460024  14.499   7.491  13.643  0.0591 -0.1773  0.0870
10005DDP     C160025  23.615  25.385   2.788  0.1293 -0.1108  0.0378
10005DDP     P160026  23.589  25.052   2.509 -0.1719 -0.1703  0.2765
10005DDP     P260027  23.511  25.653   2.334 -0.1344 -0.3200  0.2420
10005DDP     C260028  23.164  25.863   2.184 -0.1401 -0.0279  0.0109
10005DDP     C360029  23.739  24.906   2.217 -0.3237 -0.2119  0.0878
10005DDP     C460030  23.343  25.312   3.126  0.3440 -0.1654  0.1704
10006DDP     C160031  25.384  14.064   9.213 -0.1130  0.0773 -0.0033
10006DDP     P160032  25.009  13.762   9.128 -0.3494  0.2462 -0.0725
10006DDP     P260033  25.547  14.104   9.525 -0.4727  0.1244  0.2171
10006DDP     C260034  25.782  14.448   9.656 -0.0287  0.0867 -0.1503
10006DDP     C360035  24.698  13.416   9.186 -0.0076 -0.2651 -0.1124
10006DDP     C460036  25.587  14.222   8.926 -0.2552  0.1406  0.0029
10007DDP     C160037  21.284   2.177  15.945 -0.0645 -0.0059  0.0758
10007DDP     P160038  21.427   2.506  15.645  0.2200 -0.0216  0.1129
10007DDP     P260039  21.719   2.148  16.021 -0.0014 -0.1634  0.0837
10007DDP     C260040  21.934   1.789  15.854 -0.3149  0.0397  0.0005
10007DDP     C360041  21.210   2.841  15.469 -0.2516 -0.2467  0.0910
10007DDP     C460042  21.009   2.109  16.269  0.0865  0.0761 -0.0528
10008DDP     C160043  11.014  27.728   2.710 -0.2914 -0.1655 -0.2382
10008DDP     P160044  11.180  27.349   2.535  0.0151  0.0063  0.2743
10008DDP     P260045  11.249  27.967   2.740 -0.0029 -0.1073 -0.0049
10008DDP     C260046  11.575  28.242   2.968  0.2636 -0.1446 -0.0254
10008DDP     C360047  10.957  26.965   2.413  0.1823 -0.3911  0.2811
10008DDP     C460048  10.534  27.786   2.850  0.2321 -0.0201  0.1183
10009DDP     C160049   9.001   9.402  16.938  0.0595 -0.2022  0.0942
10009DDP     P160050   8.698   9.191  17.217  0.2514  0.2356 -0.3110
10009DDP     P260051   9.035   9.844  16.830 -0.1088  0.0170  0.2355
10009DDP     C260052   9.163  10.140  16.525 -0.1373  0.3903 -0.1399
10009DDP     C360053   8.403   9.063  17.049 -0.1181  0.0438 -0.1588
10009DDP     C460054   9.222   9.138  16.740 -0.1883 -0.1672  0.0676
10010DDP     C160055  27.362  24.941  10.412  0.0474  0.0582 -0.1530
10010DDP     P160056  27.874  24.987  10.495 -0.0811 -0.1923  0.0484
10010DDP     P260057  26.994  25.296  10.229  0.2650  0.0693  0.0522
10010DDP     C260058  27.083  25.685   9.923  0.0265 -0.1374  0.1601
10010DDP     C360059  28.056  24.788  10.853 -0.1364 -0.1633  0.0693
10010DDP     C460060  27.214  24.510  10.391  0.0295  0.2005 -0.1230
10011DDP     C160061  19.246   0.042  25.992  0.1939 -0.2245  0.0692
10011DDP     P160062  18.998   0.155  26.439 -0.0853 -0.0228 -0.0381
10011DDP     P260063  19.591  30.282  26.133 -0.1440 -0.0349 -0.0217
10011DDP     C260064  19.856   0.339  26.163  0.0842  0.2407 -0.4839
10011DDP     C360065  18.593   0.245  26.483  0.2240  0.0461 -0.0434
10011DDP     C460066  19.147   0.263  25.616  0.2595 -0.1447  0.1075
10012DDP     C160067   6.612  29.919  24.295 -0.1637  0.0225  0.1910
10012DDP     P160068   6.368  29.901  23.872 -0.2665 -0.1874  0.0061
10012DDP     P260069   6.744  29.730  24.729  0.2343 -0.1200  0.0768
10012DDP     C260070   6.672  29.335  25.030  0.1432  0.2076 -0.0256
10012DDP     C360071   6.029  29.998  23.450  0.0140 -0.0249 -0.2155
10012DDP     C460072   6.584  30.299  24.259 -0.0534  0.4403 -0.1005
10013DDP     C160073  12.366  30.026  20.502  0.2611  0.0319  0.1307
10013DDP     P160074  12.016  30.168  20.382 -0.0399 -0.1830  0.0833
10013DDP     P260075  12.692  29.997  20.164 -0.1105 -0.2681 -0.0932
10013DDP     C260076  12.941  30.199  19.913 -0.2941 -0.1809 -0.1879
10013DDP     C360077  11.722  29.977  20.237  0.5096  0.1930 -0.4106
10013DDP     C460078  12.448  29.963  20.932  0.1126 -0.2674  0.3785
10014DDP     C160079   7.658  21.621   7.928 -0.1001  0.1069 -0.0351
10014DDP     P160080   8.037  21.356   7.962  0.0018  0.2774  0.0029
10014DDP     P260081   7.765  22.123   7.855 -0.0439 -0.1271 -0.2177
10014DDP     C260082   7.770  22.597   7.632  0.1762 -0.0505 -0.0361
10014DDP     C360083   8.437  21.079   7.938  0.0351 -0.1711 -0.0964
10014DDP     C460084   7.201  21.445   7.883  0.4302  0.0984  0.1877
10015DDP     C160085   8.674   7.947   8.660  0.2457  0.5330 -0.1434
10015DDP     P160086   8.397   7.605   8.620 -0.2207  0.1210  0.1553
10015DDP     P260087   8.478   8.228   8.233 -0.2433  0.0419 -0.0937
10015DDP     C260088   8.503   8.099   7.728 -0.1312 -0.0282 -0.0634
10015DDP     C360089   8.600   7.194   8.622 -0.0266 -0.0462 -0.0053
10015DDP     C460090   8.840   8.060   9.016  0.1268 -0.0753 -0.1664
10016DDP     C160091  21.426   8.383  16.749 -0.0615  0.3750 -0.0492
10016DDP     P160092  21.269   8.025  17.061  0.0011  0.1221 -0.0337
10016DDP     P260093  21.875   8.591  16.784 -0.2690  0.3666  0.3364
10016DDP     C260094  22.246   8.626  16.822 -0.4745 -0.0578  0.1929
10016DDP     C360095  21.170   7.657  17.107 -0.1869  0.0739  0.2841
10016DDP     C460096  21.193   8.467  16.379  0.0346  0.2232  0.2708
10017DDP     C160097  11.457   1.847   6.669  0.0111  0.0914 -0.1589
10017DDP     P160098  11.748   1.661   6.972 -0.2782 -0.0283 -0.1982
10017DDP     P260099  11.340   1.536   6.337 -0.3094  0.1025  0.0797
10017DDP     C260100  11.178   1.099   6.326  0.0839  0.3941  0.0838
10017DDP     C360101  11.988   1.930   7.306 -0.2190 -0.1523 -0.3679
10017DDP     C460102  11.289   2.266   6.569  0.0249  0.0621  0.0354
10018DDP     C160103  11.909  17.439   9.939 -0.0863  0.0701 -0.0900
10018DDP     P160104  12.327  17.517   9.863 -0.1244 -0.0135 -0.0896
10018DDP     P260105  11.651  17.396  10.308  0.2138  0.0988 -0.0470
10018DDP     C260106  11.398  17.033  10.428  0.2769  0.3730 -0.4558
10018DDP     C360107  12.749  17.578   9.946  0.4769 -0.2787  0.1504
10018DDP     C460108  11.849  17.167   9.429 -0.2270  0.1092  0.1523
10019DDP     C160109  21.860  23.628  12.385 -0.2653  0.1106 -0.0814
10019DDP     P160110  21.364  23.593  12.568  0.0757  0.0001 -0.0745
10019DDP     P260111  22.071  23.370  12.153  0.0143 -0.0517  0.0969
10019DDP     C260112  22.345  23.126  11.938  0.3808 -0.1202 -0.0658
10019DDP     C360113  21.091  23.894  12.861 -0.0761 -0.5249 -0.0231
10019DDP     C460114  22.246  23.893  12.488  0.2237 -0.2127  0.3314
10020DDP     C160115  27.709  22.456  14.938  0.2119 -0.2854 -0.2780
10020DDP     P160116  28.098  22.220  14.847 -0.1000 -0.0484  0.1499
10020DDP     P260117  27.417  22.381  14.557 -0.1943  0.3563 -0.1667
10020DDP     C260118  27.217  22.097  14.424  0.1011 -0.0812  0.1921
10020DDP     C360119  28.263  21.804  15.174 -0.0593 -0.0477 -0.1237
10020DDP     C460120  27.478  22.705  15.186  0.3382 -0.0724  0.3720
10021DDP     C160121  15.153   3.742   7.655 -0.2052 -0.3127  0.1564
10021DDP     P160122  14.801   3.800   7.739  0.0950  0.4484  0.1512
10021DDP     P260123  15.282   3.514   7.324  0.3160  0.1603 -0.1609
10021DDP     C260124  15.055   3.146   7.132  0.2557 -0.1415 -0.1710
10021DDP     C360125  14.591   3.983   8.146 -0.0347 -0.1096 -0.2302
10021DDP     C460126  15.299   4.042   8.052 -0.1017 -0.0632 -0.1580
10022DDP     C160127   7.208   5.502   0.280 -0.3934 -0.0967  0.0120
10022DDP     P160128   7.541   5.751   0.085  0.0674 -0.1534  0.3153
10022DDP     P260129   7.146   5.321   0.625  0.0023 -0.0387  0.1181
10022DDP     C260130   7.350   5.173   0.982  0.2755  0.0184  0.4849
10022DDP     C360131   7.557   6.179  30.294 -0.0742 -0.5070  0.2665
10022DDP     C460132   7.095   5.369  30.263  0.0486 -0.1194  0.0013
10023DDP     C160133  21.640   7.522   7.412  0.1730 -0.0630 -0.0924
10023DDP     P160134  21.983   7.784   7.597  0.1831  0.1589  0.0612
10023DDP     P260135  21.788   7.037   7.488  0.1193 -0.0734 -0.0576
10023DDP     C260136  21.772   6.597   7.320  0.1509  0.1820  0.0798
10023DDP     C360137  22.270   7.876   8.021 -0.2039 -0.0418 -0.0025
10023DDP     C460138  21.189   7.676   7.303 -0.2977 -0.4152 -0.0534
10024DDP     C160139  23.118  28.639  25.769  0.0841 -0.0616  0.1087
10024DDP     P160140  22.834  28.206  25.837 -0.2192 -0.1752  0.1211
10024DDP     P260141  23.317  28.946  25.986 -0.0610  0.1560 -0.1015
10024DDP     C260142  23.665  29.012  26.256 -0.3058  0.2190 -0.5348
10024DDP     C360143  22.509  27.847  25.863 -0.1092  0.0135 -0.2057
10024DDP     C460144  23.063  28.791  25.335  0.0485 -0.2216  0.3295
10025DDP     C160145  22.688   3.070  14.413 -0.0062  0.1009  0.0602
10025DDP     P160146  22.782   3.325  14.112  0.1423 -0.3166 -0.2044
10025DDP     P260147  22.961   2.933  14.689 -0.2098  0.1552  0.0045
10025DDP     C260148  23.199   2.532  14.588 -0.0063 -0.0954  0.0066
10025DDP     C360149  22.850   3.403  13.629 -0.0218  0.1830 -0.1446
10025DDP     C460150  22.305   2.813  14.356 -0.1541  0.3653  0.0904
10026DDP     C160151  10.187  15.261   0.701 -0.0216 -0.1327 -0.1026
10026DDP     P160152  10.339  15.154   0.225 -0.0500  0.0763 -0.1025
10026DDP     P260153  10.392  15.402   1.014 -0.2901  0.0503 -0.2145
10026DDP     C260154  10.677  15.420   1.231  0.0641 -0.0407  0.0518
10026DDP     C360155  10.458  15.040  30.132  0.1073 -0.1338 -0.1425
10026DDP     C460156   9.952  14.927   0.694 -0.0309 -0.0829 -0.1173
10027DDP     C160157  18.102  14.681  29.240 -0.0250 -0.0445 -0.2636
10027DDP     P160158  17.754  14.355  29.180  0.0294 -0.1264  0.0792
10027DDP     P260159  18.124  15.115  29.068 -0.0472 -0.0470 -0.0866
10027DDP     C260160  17.897  15.529  29.171  0.1450  0.1332  0.0359
10027DDP     C360161  17.650  13.979  29.243 -0.1830 -0.0844 -0.1418
10027DDP     C460162  18.349  14.431  29.571  0.0970 -0.1109  0.3173
10028DDP     C160163  20.668  21.952  24.320  0.2731 -0.0795 -0.3003
10028DDP     P160164  20.520  22.129  24.645  0.0041 -0.0458  0.1693
10028DDP     P260165  20.480  21.538  24.329  0.0302 -0.2783 -0.0859
10028DDP     C260166  20.088  21.207  24.423  0.2446  0.1915 -0.1561
10028DDP     C360167  20.115  22.214  24.753  0.0407  0.0320  0.3767
10028DDP     C460168  21.036  22.007  23.963  0.3304 -0.2851  0.0784
10029DDP     C160169  21.027  21.259  23.493 -0.0478  0.1057 -0.0622
10029DDP     P160170  20.595  21.418  23.326  0.1046 -0.0062  0.0749
10029DDP     P260171  21.149  20.963  23.965 -0.0807 -0.1952  0.1547
10029DDP     C260172  21.067  20.719  24.230 -0.0891 -0.2081 -0.2030
10029DDP     C360173  20.228  21.555  23.142 -0.2375 -0.3233  0.0435
10029DDP     C460174  21.430  21.341  23.290  0.3936 -0.2535  0.3572
10030DDP     C160175  28.604   7.788  15.952 -0.4221  0.1427 -0.3032
10030DDP     P160176  28.419   7.791  15.599 -0.0684  0.1810 -0.0690
10030DDP     P260177  28.446   7.998  16.331 -0.2060 -0.2501 -0.0674
10030DDP     C260178  28.249   8.321  16.610  0.3296  0.2196  0.0745
10030DDP     C360179  27.940   7.821  15.511 -0.1154  0.2418  0.1086
10030DDP     C460180  29.109   7.723  16.011 -0.0641 -0.5404  0.1589
10031DDP     C160181  28.742   7.228  19.815 -0.0920 -0.1365  0.0466
10031DDP     P160182  29.107   7.190  19.626  0.0022  0.1385 -0.0048
10031DDP     P260183  28.496   7.146  19.557 -0.0151 -0.0549 -0.1042
10031DDP     C260184  28.127   7.435  19.395  0.1897 -0.1055  0.1257
10031DDP     C360185  29.542   7.054  19.655  0.3997 -0.0816 -0.5264
10031DDP     C460186  28.643   7.414  20.232  0.0203 -0.3027  0.5630
10032DDP     C160187   8.533  14.760  23.647 -0.0879  0.0667 -0.4636
10032DDP     P160188   8.145  14.817  23.443  0.1003 -0.1643 -0.0100
10032DDP     P260189   8.686  15.032  24.028 -0.0153 -0.1828  0.1254
10032DDP     C260190   8.629  15.394  24.381 -0.1483  0.3733 -0.2207
10032DDP     C360191   7.846  14.874  23.060 -0.1646  0.0686 -0.2089
10032DDP     C460192   8.587  14.554  23.269  0.1396 -0.2545  0.0055
10033DDP     C160193  18.980  13.948  24.408 -0.0377 -0.0301  0.0964
10033DDP     P160194  19.056  13.796  24.796 -0.0517 -0.0460 -0.1109
10033DDP     P260195  19.046  14.341  24.296 -0.0095  0.0196 -0.1016
10033DDP     C260196  19.431  14.621  24.265  0.1767 -0.1070  0.0476
10033DDP     C360197  18.900  13.486  25.221  0.0947 -0.2833  0.0225
10033DDP     C460198  18.886  13.649  24.114  0.1462 -0.2510 -0.0355
10034DDP     C160199  11.606  13.858  20.349 -0.1329  0.0005  0.3251
10034DDP     P160200  11.262  13.858  20.105 -0.0828  0.1356 -0.0211
10034DDP     P260201  11.932  14.091  20.222  0.0920  0.1615 -0.0383
10034DDP     C260202  12.067  14.220  19.767  0.5033  0.0620 -0.1270
10034DDP     C360203  11.433  13.738  19.727  0.1050  0.1203  0.0575
10034DDP     C460204  11.601  13.696  20.760 -0.1836 -0.0975  0.1423
10035DDP     C160205  22.896   2.142   1.928 -0.0555  0.0696 -0.1806
10035DDP     P160206  22.772   1.730   1.823  0.1198  0.0619 -0.1761
10035DDP     P260207  22.564   2.382   2.142 -0.0345 -0.5257 -0.0303
10035DDP     C260208  22.246   2.225   2.226 -0.2215  0.3080 -0.0387
10035DDP     C360209  22.557   1.542   1.442 -0.0841 -0.2220 -0.0838
10035DDP     C460210  23.307   2.183   2.062 -0.0021 -0.0783  0.1739
10036DDP     C160211  20.791  23.914  26.383  0.1122 -0.1925 -0.0002
10036DDP     P160212  20.824  23.893  26.035 -0.1432 -0.1386  0.0906
10036DDP     P260213  20.929  24.206  26.625  0.0597  0.0745  0.0273
10036DDP     C260214  20.852  24.598  26.902 -0.0420  0.1126  0.0008
10036DDP     C360215  21.020  23.565  25.813 -0.1468  0.1833 -0.2163
10036DDP     C460216  20.575  23.672  26.628  0.1121  0.0051 -0.0936
10037DDP     C160217   6.722   2.033   9.003 -0.3058  0.0813 -0.0043
10037DDP     P160218   6.942   2.386   8.825  0.0665  0.2347  0.1868
10037DDP     P260219   6.718   1.585   9.176 -0.0986  0.1092  0.0681
10037DDP     C260220   7.001   1.181   9.186 -0.1568 -0.3080 -0.0431
10037DDP     C360221   6.924   2.814   8.633 -0.0089  0.1527  0.2388
10037DDP     C460222   6.343   2.029   8.820 -0.0284 -0.2490  0.1586
10038DDP     C160223   0.485   1.326  13.708 -0.4019 -0.1278 -0.0201
10038DDP     P160224   0.887   1.434  13.381  0.0115 -0.0404 -0.0273
10038DDP     P260225   0.141   1.481  13.627  0.0114 -0.1706  0.0207
10038DDP     C260226  30.138   1.393  13.375 -0.4244  0.0989 -0.0732
10038DDP     C360227   1.120   1.585  12.982  0.4059  0.1349 -0.0335
10038DDP     C460228   0.464   0.876  13.913  0.2754  0.0969  0.4004
10039DDP     C160229  29.327  11.975  16.357  0.2839  0.0100 -0.1750
10039DDP     P160230  29.737  11.995  16.493  0.3468 -0.0290 -0.2011
10039DDP     P260231  29.219  11.715  15.914  0.0884  0.0217  0.0245
10039DDP     C260232  29.122  11.424  15.633  0.1472  0.1765 -0.1395
10039DDP     C360233  29.915  12.262  16.801 -0.0972 -0.3557 -0.2148
10039DDP     C460234  29.186  12.207  16.627 -0.3458  0.3205 -0.2304
10040DDP     C160235  21.754  14.361  29.360 -0.1677  0.3179  0.1628
10040DDP     P160236  21.780  14.113  28.982 -0.1869  0.0496 -0.1097
10040DDP     P260237  22.151  14.465  29.563  0.1771 -0.1262 -0.2779
10040DDP     C260238  22.361  14.836  29.727 -0.0284  0.0302  0.0583
10040DDP     C360239  21.570  14.176  28.498 -0.1463  0.0698 -0.0362
10040DDP     C460240  21.469  14.637  29.604 -0.0192  0.3098  0.1041
10041DDP     C160241  22.444  15.633   5.456 -0.3363 -0.0576  0.0571
10041DDP     P160242  22.831  15.704   5.248 -0.1099  0.1645 -0.0595
10041DDP     P260243  22.570  15.675   5.741 -0.1245 -0.0699 -0.2153
10041DDP     C260244  23.009  15.769   5.791 -0.0573  0.0331  0.0404
10041DDP     C360245  22.956  15.936   4.833  0.2269 -0.1981 -0.0569
10041DDP     C460246  22.055  15.528   5.356  0.1295 -0.0690 -0.1274
10042DDP     C160247  16.971   5.846  10.886 -0.0471 -0.2423 -0.1679
10042DDP     P160248  16.552   5.983  10.883 -0.0995 -0.2176  0.1052
10042DDP     P260249  17.357   6.113  11.054 -0.2165  0.2647  0.1125
10042DDP     C260250  17.565   6.584  11.041 -0.0746  0.0132  0.1369
10042DDP     C360251  16.285   6.161  11.240  0.1719  0.0129  0.2745
10042DDP     C460252  16.665   5.513  10.604  0.0188  0.1649 -0.0698
10043DDP     C160253  17.140   6.803  28.674 -0.1560  0.1472  0.1476
10043DDP     P160254  17.218   6.340  28.526  0.0604  0.0576 -0.0683
10043DDP     P260255  17.530   7.034  28.691  0.0754  0.0139  0.0765
10043DDP     C260256  17.923   6.924  28.803 -0.1908 -0.0407  0.2285
10043DDP     C360257  17.253   6.024  28.198 -0.0056  0.3174  0.0093
10043DDP     C460258  16.875   6.937  28.646  0.1327  0.2101 -0.2408
10044DDP     C160259   1.585   3.245  17.212 -0.1641  0.0732 -0.1415
10044DDP     P160260   1.445   2.796  17.360 -0.1602 -0.1004 -0.2612
10044DDP     P260261   2.064   3.476  17.391  0.0212  0.0100 -0.0648
10044DDP     C260262   2.302   3.651  17.245  0.0436 -0.0698 -0.0577
10044DDP     C360263   1.199   2.529  17.393 -0.2470 -0.0470  0.3156
10044DDP     C460264   1.385   3.493  16.966 -0.1188  0.0082 -0.0082
10045DDP     C160265  10.800  28.218   8.827  0.0315 -0.1680 -0.2421
10045DDP     P160266  10.880  27.944   8.405 -0.0125 -0.1248  0.1514
10045DDP     P260267  10.822  28.214   9.309  0.2696 -0.0143  0.0093
10045DDP     C260268  10.950  28.033   9.752 -0.0248  0.0066  0.0138
10045DDP     C360269  10.498  27.763   8.202  0.0188 -0.1626 -0.2252
10045DDP     C460270  10.689  28.684   8.761 -0.0166 -0.2465 -0.0619
10046DDP     C160271  27.742  10.085   7.903  0.2351 -0.0888  0.2754
10046DDP     P160272  27.995   9.753   7.950  0.0426 -0.0407 -0.0175
10046DDP     P260273  28.041  10.301   8.141 -0.0354 -0.1210 -0.2301
10046DDP     C260274  28.138  10.361   8.586 -0.0581 -0.2605 -0.1580
10046DDP     C360275  28.435   9.695   8.125 -0.1362  0.1359  0.2320
10046DDP     C460276  27.292   9.998   7.946  0.0970 -0.1344  0.0984
10047DDP     C160277  23.682  29.183  15.397  0.0020  0.0352 -0.1528
10047DDP     P160278  23.440  28.724  15.407 -0.0146 -0.2485  0.1998
10047DDP     P260279  23.698  29.403  15.016  0.0484 -0.0609  0.2975
10047DDP     C260280  23.664  29.812  14.812  0.0007 -0.1242  0.0565
10047DDP     C360281  22.995  28.589  15.556  0.1910  0.2056  0.1509
10047DDP     C460282  23.802  29.342  15.822  0.0310 -0.1503  0.0103
10048DDP     C160283   5.416   6.980   2.030  0.3268 -0.2134  0.0395
10048DDP     P160284   5.233   6.628   2.283  0.1569 -0.0394  0.2098
10048DDP     P260285   5.411   7.085   1.591 -0.2174 -0.1192 -0.0574
10048DDP     C260286   5.421   7.482   1.334 -0.0890 -0.1756 -0.1088
10048DDP     C360287   5.048   6.202   2.479  0.1516 -0.2751  0.0560
10048DDP     C460288   5.790   7.184   2.288 -0.0718  0.1075  0.1986
10049DDP     C160289  28.808  14.456  13.160 -0.1402  0.4404 -0.5212
10049DDP     P160290  28.673  14.840  13.336 -0.0384  0.2809  0.1301
10049DDP     P260291  28.917  14.122  13.408 -0.0428  0.0066  0.0553
10049DDP     C260292  28.924  13.750  13.370 -0.1659  0.0309  0.0421
10049DDP     C360293  28.316  15.057  13.344  0.1891 -0.0058 -0.0560
10049DDP     C460294  28.783  14.415  12.777  0.3368  0.1157  0.0290
10050DDP     C160295  29.300  25.144   5.330 -0.1491 -0.0562 -0.0670
10050DDP     P160296  29.021  25.420   5.433 -0.1289 -0.0363 -0.0112
10050DDP     P260297  29.633  24.893   5.538 -0.1303 -0.1284  0.1710
10050DDP     C260298  29.854  24.872   5.911  0.2823  0.0723  0.0567
10050DDP     C360299  28.579  25.437   5.421  0.0692  0.0019 -0.0729
10050DDP     C460300  29.230  25.153   4.898  0.1216 -0.0263 -0.3791
10051DDP     C160301  29.406  23.078   3.604 -0.1364  0.0021  0.0034
10051DDP     P160302  29.710  23.144   3.286 -0.0508 -0.1642 -0.2218
10051DDP     P260303  29.371  23.175   3.983 -0.0322 -0.1672 -0.1685
10051DDP     C260304  29.652  23.074   4.360  0.2892  0.1149 -0.0422
10051DDP     C360305  29.831  22.855   2.992  0.0200  0.2015  0.0792
10051DDP     C460306  29.308  22.742   3.417 -0.0782 -0.2196 -0.3198
10052DDP     C160307  24.372  28.213   3.933 -0.0416 -0.1245  0.3659
10052DDP     P160308  23.946  28.098   3.923  0.1051  0.0178 -0.4457
10052DDP     P260309  24.706  28.119   3.594  0.0685  0.2060 -0.3583
10052DDP     C260310  24.807  28.096   3.146  0.0320 -0.2931 -0.1456
10052DDP     C360311  23.494  27.908   3.884 -0.0605  0.1179 -0.4076
10052DDP     C460312  24.492  28.475   4.232 -0.0512  0.4620  0.0729
10053DDP     C160313   5.301  27.932   9.864  0.2267  0.0096 -0.1309
10053DDP     P160314   5.227  28.238  10.262  0.3809  0.3002  0.1971
10053DDP     P260315   5.323  28.123   9.526  0.1366  0.1107 -0.0564
10053DDP     C260316   5.396  28.156   9.020 -0.0033  0.3787  0.1772
10053DDP     C360317   5.048  28.720  10.286  0.3919 -0.2277  0.2488
10053DDP     C460318   5.346  27.458   9.913 -0.1224  0.0896  0.0831
10054DDP     C160319   8.737  19.979   9.227 -0.0638 -0.0544  0.0388
10054DDP     P160320   9.113  20.111   9.396 -0.0619  0.0035  0.1484
10054DDP     P260321   8.506  20.322   9.001 -0.0485  0.2560  0.1516
10054DDP     C260322   8.269  20.616   8.672 -0.1749 -0.0059 -0.1209
10054DDP     C360323   9.428  19.889   9.548  0.1762 -0.0588  0.2551
10054DDP     C460324   8.563  19.592   9.397 -0.1806  0.0020  0.0821
10055DDP     C160325   3.255  26.832   9.883  0.1190  0.1423  0.1962
10055DDP     P160326   3.166  27.207   9.608  0.1844  0.0289 -0.0015
10055DDP     P260327   3.241  26.748  10.354  0.2777  0.2471  0.0498
10055DDP     C260328   3.004  26.531  10.657 -0.0117 -0.0103  0.0775
10055DDP     C360329   3.070  27.256   9.205  0.3212  0.3494 -0.2287
10055DDP     C460330   3.455  26.405   9.686  0.0446 -0.2919 -0.3505
10056DDP     C160331  12.487   2.058   5.533  0.0741 -0.0586 -0.0245
10056DDP     P160332  12.732   2.420   5.787  0.1023 -0.2219 -0.1605
10056DDP     P260333  12.694   1.696   5.402 -0.0287  0.0417  0.0887
10056DDP     C260334  12.741   1.799   4.867 -0.0914  0.1102 -0.2037
10056DDP     C360335  13.143   2.433   5.964  0.1744 -0.0301  0.1818
10056DDP     C460336  11.960   2.011   5.456  0.1576  0.1523  0.2658
10057DDP     C160337   2.880  27.385  22.022 -0.0326  0.0212  0.1005
10057DDP     P160338   2.916  27.821  21.945  0.1699 -0.1052  0.1190
10057DDP     P260339   2.561  27.339  22.374 -0.0866 -0.0864 -0.1981
10057DDP     C260340   2.684  27.034  22.646  0.1763 -0.0551 -0.2107
10057DDP     C360341   3.166  28.116  21.866 -0.1498  0.0042 -0.1513
10057DDP     C460342   3.283  27.052  21.821 -0.0941  0.1311  0.2787
10058DDP     C160343  27.483  15.139  28.025 -0.0804 -0.1536 -0.1902
10058DDP     P160344  27.459  14.704  27.973 -0.2674  0.0329 -0.4359
10058DDP     P260345  27.319  15.545  27.876  0.0045 -0.2112  0.1200
10058DDP     C260346  27.359  15.929  28.070 -0.0567  0.0326  0.0132
10058DDP     C360347  27.298  14.462  27.731 -0.1156  0.0572 -0.0732
10058DDP     C460348  27.366  15.002  28.438 -0.1797 -0.0149 -0.2555
10059DDP     C160349  29.552  13.821  10.151  0.0812  0.1687  0.0954
10059DDP     P160350  29.346  13.425  10.330 -0.0370 -0.2683  0.1204
10059DDP     P260351  29.507  14.154  10.279 -0.1124 -0.1694  0.2029
10059DDP     C260352  29.224  14.491  10.251  0.4496 -0.5833  0.3965
10059DDP     C360353  29.189  13.044  10.143  0.2735 -0.1385 -0.0433
10059DDP     C460354  29.622  13.786   9.713 -0.2360  0.1259 -0.0339
10060DDP     C160355   1.724  13.365  20.377  0.0059 -0.0111 -0.1348
10060DDP     P160356   2.058  13.306  20.166 -0.0655 -0.1937  0.0323
10060DDP     P260357   1.596  13.714  20.510  0.3082 -0.1907 -0.0281
10060DDP     C260358   1.612  14.026  20.252 -0.2594 -0.4464 -0.4205
10060DDP     C360359   2.335  13.102  20.372  0.0863 -0.2552  0.2127
10060DDP     C460360   1.474  12.963  20.532 -0.1769 -0.0574  0.4273
10061DDP     C160361   5.312  28.796  21.678 -0.0955  0.5005  0.3380
10061DDP     P160362   5.671  29.089  21.711 -0.1387 -0.0457  0.4028
10061DDP     P260363   4.872  28.852  21.714  0.0920 -0.3356 -0.4337
10061DDP     C260364   4.415  28.948  21.776  0.0176  0.3028 -0.0007
10061DDP     C360365   5.878  29.416  21.845  0.0031  0.0059  0.0194
10061DDP     C460366   5.441  28.441  21.450 -0.2226  0.1540  0.2021
10062DDP     C160367   9.954   8.728  26.628 -0.0600  0.2583 -0.0657
10062DDP     P160368   9.982   8.975  27.023 -0.2635 -0.0596  0.0616
10062DDP     P260369   9.782   8.378  26.481 -0.0859 -0.0238 -0.0902
10062DDP     C260370   9.600   7.947  26.282 -0.1751  0.0744  0.0580
10062DDP     C360371   9.938   9.346  27.224  0.1345  0.0602 -0.0967
10062DDP     C460372   9.874   8.909  26.279  0.2297  0.1404  0.4173
10063DDP     C160373   2.628  29.106   5.784 -0.0021 -0.1280 -0.0004
10063DDP     P160374   2.652  29.239   5.378  0.0676  0.3896 -0.0350
10063DDP     P260375   2.733  29.365   6.115  0.0005  0.3668 -0.0324
10063DDP     C260376   2.868  29.557   6.536  0.0224  0.0816 -0.0754
10063DDP     C360377   2.650  29.052   4.870  0.0618 -0.2216  0.2454
10063DDP     C460378   2.710  28.697   5.596 -0.1594 -0.0374 -0.2266
10064DDP     C160379   1.638  29.403  12.243  0.4128 -0.0511  0.0467
10064DDP     P160380   1.989  29.545  12.623  0.0167  0.1811 -0.1490
10064DDP     P260381   1.563  29.533  11.758 -0.1084 -0.0647 -0.0261
10064DDP     C260382   1.551  29.382  11.352 -0.1800  0.2059 -0.2948
10064DDP     C360383   2.349  29.774  12.664  0.0176 -0.3843  0.1044
10064DDP     C460384   1.454  28.977  12.286 -0.0269  0.1107  0.3269
10065DDP     C160385  13.464  14.456   3.981 -0.2974 -0.0073 -0.1824
10065DDP     P160386  13.554  14.684   3.602  0.3464  0.2959  0.0286
10065DDP     P260387  13.347  14.679   4.340  0.1159  0.2327  0.1916
10065DDP     C260388  13.521  14.965   4.679  0.3551 -0.1987  0.2841
10065DDP     C360389  13.627  15.182   3.534  0.0528 -0.1798  0.2112
10065DDP     C460390  13.526  13.947   4.013  0.1291  0.3015  0.2863
10066DDP     C160391   4.031  22.067  26.325 -0.3437 -0.2366  0.0230
10066DDP     P160392   4.341  21.954  26.596  0.0474 -0.0741 -0.2081
10066DDP     P260393   3.639  21.982  26.534 -0.2545  0.0260  0.0082
10066DDP     C260394   3.543  21.606  26.335  0.1653  0.0130 -0.3805
10066DDP     C360395   4.833  21.805  26.637  0.0919 -0.0046  0.0025
10066DDP     C460396   4.162  22.074  25.935  0.0920 -0.2955  0.1417
10067DDP     C160397   7.406   3.997   1.830  0.0283 -0.1628  0.0182
10067DDP     P160398   7.055   3.852   1.546  0.0754  0.0382  0.0710
10067DDP     P260399   7.775   4.357   1.891  0.1240 -0.0837 -0.2921
10067DDP     C260400   8.264   4.544   2.011 -0.2447  0.1571  0.4440
10067DDP     C360401   6.777   3.922   1.186 -0.0929 -0.0152 -0.2529
10067DDP     C460402   7.612   3.918   2.213  0.1326  0.2152  0.0261
10068DDP     C160403  14.081   2.265  19.387 -0.1348  0.0158  0.1356
10068DDP     P160404  14.349   1.782  19.422 -0.0890 -0.0677  0.0816
10068DDP     P260405  13.842   2.378  19.034 -0.1931  0.0518 -0.0970
10068DDP     C260406  13.617   2.821  18.917 -0.0526  0.1896 -0.3979
10068DDP     C360407  14.618   1.415  19.507 -0.2241 -0.0928  0.2250
10068DDP     C460408  14.066   2.531  19.708  0.5455  0.0708  0.1511
10069DDP     C160409  12.704  24.359   8.606 -0.3374  0.1546  0.0170
10069DDP     P160410  13.236  24.528   8.602  0.2207 -0.0595  0.0429
10069DDP     P260411  12.353  23.897   8.674  0.1162 -0.0397 -0.0670
10069DDP     C260412  12.124  23.501   8.684  0.3843 -0.2495  0.1768
10069DDP     C360413  13.584  24.691   8.766  0.1727 -0.2526  0.2726
10069DDP     C460414  12.449  24.694   8.421 -0.1227  0.1499 -0.1410
10070DDP     C160415  26.382  16.204  11.499  0.0695 -0.2606 -0.0296
10070DDP     P160416  26.784  16.459  11.363  0.0962 -0.2418  0.0309
10070DDP     P260417  25.975  16.247  11.323 -0.0530  0.0559  0.2992
10070DDP     C260418  25.630  16.259  11.309 -0.0809  0.0606  0.0799
10070DDP     C360419  27.018  16.644  11.635  0.3952  0.4110  0.2948
10070DDP     C460420  26.403  15.872  11.795 -0.2209 -0.1386 -0.0773
10071DDP     C160421  17.454   8.738  25.103  0.0422  0.0606 -0.0821
10071DDP     P160422  17.440   8.555  25.522 -0.3155 -0.2593 -0.2501
10071DDP     P260423  17.218   8.560  25.020  0.0591  0.0299 -0.0376
10071DDP     C260424  16.835   8.443  25.263  0.1564 -0.0011  0.0553
10071DDP     C360425  17.243   8.290  25.902  0.1382  0.0968 -0.0983
10071DDP     C460426  17.279   9.116  24.948  0.1579 -0.1038  0.1168
10072DDP     C160427  26.540  11.666  13.083 -0.1208  0.3315  0.0308
10072DDP     P160428  26.439  11.933  12.866 -0.2555 -0.2163 -0.0057
10072DDP     P260429  26.500  11.570  13.504 -0.1463 -0.1269  0.1453
10072DDP     C260430  26.391  11.283  13.791  0.3386  0.0291 -0.0995
10072DDP     C360431  26.392  12.302  12.603  0.2047  0.1847 -0.2342
10072DDP     C460432  26.628  11.255  12.931  0.1376 -0.2565  0.3020
10073DDP     C160433   6.247  17.486  26.924  0.1656  0.0274  0.3145
10073DDP     P160434   6.607  17.265  26.909 -0.3485 -0.1376 -0.0558
10073DDP     P260435   5.818  17.244  27.028  0.1326 -0.1219  0.3277
10073DDP     C260436   5.661  16.841  26.800  0.2133  0.0211 -0.0022
10073DDP     C360437   6.987  17.461  27.088  0.1070  0.0692  0.2390
10073DDP     C460438   6.262  17.924  26.967  0.1122 -0.2458  0.3485
10074DDP     C160439  18.400   8.693   7.016 -0.1839  0.0305  0.4182
10074DDP     P160440  17.950   8.544   6.744  0.3380  0.1429  0.0162
10074DDP     P260441  18.898   8.588   7.032  0.0475  0.0098 -0.3307
10074DDP     C260442  19.110   8.403   6.768 -0.0043 -0.0056 -0.0324
10074DDP     C360443  17.426   8.430   6.891  0.1481  0.0142  0.0614
10074DDP     C460444  18.338   8.971   7.375  0.1018  0.4087  0.0396
10075DDP     C160445   7.874  16.310  28.475 -0.0683 -0.0447  0.0600
10075DDP     P160446   7.661  16.654  28.457  0.1868 -0.3889 -0.0198
10075DDP     P260447   7.718  15.934  28.609  0.2457  0.3014 -0.2286
10075DDP     C260448   7.560  15.604  28.343  0.2170 -0.0902  0.2384
10075DDP     C360449   7.308  16.891  28.466 -0.2090 -0.0650  0.1789
10075DDP     C460450   8.333  16.297  28.733  0.0707 -0.0868  0.2536
10076DDP     C160451   6.907  17.629  16.335  0.4528  0.0966  0.1827
10076DDP     P160452   6.560  17.552  16.495 -0.0357 -0.1687  0.1049
10076DDP     P260453   7.215  17.369  16.451 -0.3833  0.2926 -0.0127
10076DDP     C260454   7.718  17.254  16.368  0.2051  0.0112  0.0287
10076DDP     C360455   6.290  17.734  16.793 -0.3011  0.0382 -0.0075
10076DDP     C460456   7.093  18.027  16.363  0.0678  0.2857  0.2532
10077DDP     C160457   7.644  30.112   1.528  0.1726  0.1521 -0.0977
10077DDP     P160458   8.017  30.255   1.692  0.0487  0.0161  0.3341
10077DDP     P260459   7.520  29.691   1.533  0.0721 -0.4768  0.0409
10077DDP     C260460   7.160  29.481   1.618 -0.2760  0.1436  0.2769
10077DDP     C360461   8.485  30.154   1.627  0.2758 -0.0697 -0.0709
10077DDP     C460462   7.430  -0.011   1.165  0.2139 -0.3820 -0.3242
10078DDP     C160463  26.598  17.885   1.440 -0.1897  0.0176 -0.3400
10078DDP     P160464  26.426  17.968   1.031 -0.3542 -0.0378 -0.1018
10078DDP     P260465  26.435  18.092   1.769  0.0716  0.0807  0.1591
10078DDP     C260466  26.547  18.571   2.013 -0.0182 -0.1288  0.0171
10078DDP     C360467  26.618  18.069   0.660  0.2179  0.1483 -0.2337
10078DDP     C460468  26.945  17.582   1.488  0.0892 -0.0320  0.0508
10079DDP     C160469  15.698  11.342  27.125  0.0789  0.0888  0.1806
10079DDP     P160470  16.039  11.585  27.241 -0.0036  0.1142 -0.0747
10079DDP     P260471  15.370  11.306  27.484 -0.0952  0.1624  0.1285
10079DDP     C260472  14.889  11.125  27.449  0.1780 -0.1541 -0.4846
10079DDP     C360473  16.305  11.865  27.030 -0.0316 -0.0714  0.3536
10079DDP     C460474  15.545  11.351  26.691  0.3028  0.0122 -0.1317
10080DDP     C160475  26.970   4.043  26.665 -0.2241 -0.2892  0.0742
10080DDP     P160476  27.347   3.968  26.899  0.3665  0.0132  0.0080
10080DDP     P260477  26.800   4.470  26.749  0.1835 -0.0450 -0.2667
10080DDP     C260478  26.645   4.622  27.176 -0.0631  0.1163 -0.1535
10080DDP     C360479  27.615   3.506  26.823 -0.4354  0.2130 -0.3278
10080DDP     C460480  26.762   3.749  26.429 -0.3228 -0.4342  0.1832
10081DDP     C160481  11.133  25.554  15.645 -0.0649 -0.2621  0.2520
10081DDP     P160482  10.759  25.697  15.620 -0.1723  0.2162  0.0664
10081DDP     P260483  11.161  25.583  16.076  0.0648 -0.3385  0.2796
10081DDP     C260484  11.326  25.212  16.358  0.1780  0.0843 -0.0282
10081DDP     C360485  10.596  26.021  15.374  0.0755 -0.2884  0.2419
10081DDP     C460486  11.557  25.267  15.501 -0.1107 -0.0676 -0.2590
10082DDP     C160487   4.588  20.588  18.113 -0.1731 -0.0191  0.1163
10082DDP     P160488   4.818  20.228  18.252  0.3744 -0.2603  0.1258
10082DDP     P260489   4.264  20.603  18.011 -0.0659 -0.2518  0.0086
10082DDP     C260490   3.946  20.305  18.067  0.1594 -0.0916 -0.0120
10082DDP     C360491   5.096  19.787  18.358  0.1342 -0.2899 -0.0801
10082DDP     C460492   4.622  21.051  18.118 -0.1653 -0.1720 -0.0999
10083DDP     C160493  20.045  18.998  12.019  0.0472 -0.1049  0.0013
10083DDP     P160494  20.514  18.981  12.121  0.2764 -0.0591  0.1027
10083DDP     P260495  19.851  18.781  12.182  0.0716  0.0382 -0.3200
10083DDP     C260496  19.632  18.698  12.478  0.0009 -0.0306 -0.0124
10083DDP     C360497  20.902  19.010  12.046 -0.0118 -0.1141 -0.2360
10083DDP     C460498  19.968  19.182  11.639  0.1903 -0.1914 -0.0815
10084DDP     C160499  14.413   6.723   5.627  0.0589 -0.0195 -0.0060
10084DDP     P160500  14.636   6.988   5.907 -0.3056 -0.3152  0.0216
10084DDP     P260501  14.452   6.774   5.180 -0.1317 -0.2802 -0.0179
10084DDP     C260502  14.495   6.563   4.820 -0.0312  0.1758 -0.0330
10084DDP     C360503  14.950   7.008   6.262 -0.2377  0.1926 -0.2116
10084DDP     C460504  14.030   6.921   5.861  0.1438 -0.0190  0.3333
10085DDP     C160505  13.339  12.403  14.654 -0.0137  0.0094 -0.5168
10085DDP     P160506  13.264  12.412  15.103 -0.4279  0.2044 -0.1560
10085DDP     P260507  13.340  12.782  14.320 -0.1645  0.2082 -0.0801
10085DDP     C260508  13.144  13.036  13.959  0.0802  0.1086  0.1369
10085DDP     C360509  13.017  12.182  15.389 -0.1643  0.3057  0.2760
10085DDP     C460510  13.695  12.040  14.522  0.2279  0.0718 -0.0327
10086DDP     C160511  13.649   7.291  19.041 -0.0948 -0.0694 -0.1338
10086DDP     P160512  13.608   6.783  18.996 -0.0814 -0.1770 -0.1854
10086DDP     P260513  13.345   7.593  18.892 -0.0481 -0.1205  0.1240
10086DDP     C260514  12.831   7.555  18.872 -0.3662  0.3332  0.0169
10086DDP     C360515  13.295   6.582  19.127 -0.0644  0.1588 -0.0208
10086DDP     C460516  14.105   7.413  19.120  0.5193  0.0266  0.1672
10087DDP     C160517  16.825   8.652  13.938 -0.2439  0.2485  0.0806
10087DDP     P160518  16.469   8.919  13.737  0.4178 -0.2781  0.2203
10087DDP     P260519  17.098   8.534  13.575 -0.0396 -0.2032 -0.0207
10087DDP     C260520  17.542   8.241  13.462  0.3603 -0.0862  0.0999
10087DDP     C360521  16.375   9.332  14.038 -0.0152  0.1124 -0.0720
10087DDP     C460522  16.905   8.657  14.370  0.0810 -0.0088 -0.3254
10088DDP     C160523  14.575   7.240  16.145  0.3068  0.0661 -0.0327
10088DDP     P160524  14.691   7.326  16.521 -0.0271  0.1458  0.2057
10088DDP     P260525  14.861   7.227  15.749  0.3479  0.0611  0.0620
10088DDP     C260526  15.071   7.293  15.356 -0.1366  0.3409 -0.0837
10088DDP     C360527  15.206   7.432  16.388  0.2623 -0.1554 -0.0021
10088DDP     C460528  14.166   7.329  16.087  0.1234  0.1641 -0.1787
10089DDP     C160529  20.816   3.356  10.725 -0.3493 -0.0059 -0.0048
10089DDP     P160530  20.604   3.135  10.407 -0.2228  0.3220 -0.0389
10089DDP     P260531  20.699   3.216  11.148 -0.0956  0.1724 -0.1423
10089DDP     C260532  20.782   3.130  11.550 -0.1956  0.2904  0.2749
10089DDP     C360533  20.745   3.000  10.041  0.2969  0.5714 -0.2054
10089DDP     C460534  21.290   3.562  10.623 -0.1600 -0.1565  0.0618
10090DDP     C160535  24.573  26.132  13.309  0.1920  0.2313  0.0456
10090DDP     P160536  24.162  26.215  13.415 -0.2977  0.0050  0.2984
10090DDP     P260537  24.955  26.182  13.514 -0.2016 -0.1892 -0.1735
10090DDP     C260538  25.353  25.951  13.570  0.2043  0.1523 -0.0561
10090DDP     C360539  23.962  26.465  13.659  0.1755 -0.1883  0.0933
10090DDP     C460540  24.648  25.918  12.952  0.2638  0.1524 -0.2036
10091DDP     C160541   9.040   9.955   3.204 -0.1526  0.0274 -0.3563
10091DDP     P160542   9.301   9.817   2.978 -0.3688 -0.1220 -0.0258
10091DDP     P260543   8.726   9.647   3.284  0.0349  0.0352 -0.1786
10091DDP     C260544   8.684   9.171   3.155  0.0172  0.1690 -0.2158
10091DDP     C360545   9.559   9.463   2.776  0.1017  0.0386 -0.0572
10091DDP     C460546   9.020  10.425   3.219 -0.1855 -0.0006  0.0619
10092DDP     C160547  18.145  16.840  26.962  0.0750  0.0346  0.0936
10092DDP     P160548  18.483  17.183  27.084 -0.1040  0.1152  0.0084
10092DDP     P260549  18.164  16.663  26.582  0.1655 -0.1414  0.1214
10092DDP     C260550  18.617  16.522  26.370  0.1813  0.0356 -0.1044
10092DDP     C360551  18.481  17.593  26.788  0.1028  0.1848  0.0097
10092DDP     C460552  17.986  16.384  27.145 -0.2838  0.1523  0.2473
10093DDP     C160553  15.796   5.360  19.423 -0.1274  0.1890 -0.0372
10093DDP     P160554  15.689   5.806  19.569 -0.1156  0.0587  0.0013
10093DDP     P260555  15.753   5.107  18.957 -0.2021  0.2551 -0.0653
10093DDP     C260556  15.906   5.155  18.531  0.3645 -0.0174  0.1368
10093DDP     C360557  15.470   6.064  19.656  0.2802  0.0585 -0.0398
10093DDP     C460558  15.946   5.033  19.838  0.2385  0.2453 -0.1457
10094DDP     C160559  28.597  15.655  12.601 -0.3459  0.0525  0.1581
10094DDP     P160560  28.671  15.294  12.474 -0.2759 -0.0939  0.0832
10094DDP     P260561  28.887  15.684  12.890 -0.3330 -0.2005 -0.0823
10094DDP     C260562  29.225  15.857  13.116 -0.1641  0.1256 -0.0839
10094DDP     C360563  28.416  14.981  12.385 -0.0266 -0.0569  0.1263
10094DDP     C460564  28.249  15.980  12.617 -0.3490 -0.1505 -0.2630
10095DDP     C160565   0.159   3.980   1.810  0.0521 -0.1996 -0.0534
10095DDP     P160566   0.199   4.094   2.201 -0.3106 -0.0126  0.4345
10095DDP     P260567   0.360   3.737   1.523 -0.2375  0.1678  0.0012
10095DDP     C260568   0.283   3.613   1.126 -0.0750 -0.0033 -0.0016
10095DDP     C360569   0.552   4.320   2.349 -0.0533  0.1973  0.3040
10095DDP     C460570  30.147   4.259   1.699  0.0535  0.1088 -0.0934
10096DDP     C160571   2.299  26.951  20.429 -0.1283  0.0779 -0.2098
10096DDP     P160572   2.639  26.869  20.631 -0.1181 -0.1548  0.0970
10096DDP     P260573   2.005  27.302  20.449 -0.0191 -0.3673 -0.1226
10096DDP     C260574   1.866  27.754  20.488  0.1097 -0.2185 -0.0890
10096DDP     C360575   2.877  26.637  20.839 -0.2019 -0.0945  0.0186
10096DDP     C460576   2.067  26.770  20.050  0.0786 -0.1956  0.0276
10097DDP     C160577  18.080   4.105   1.138  0.3760 -0.0937 -0.0842
10097DDP     P160578  18.051   4.063   1.532  0.2873  0.1638 -0.0485
10097DDP     P260579  17.752   3.895   1.025  0.1048 -0.0801  0.0147
10097DDP     C260580  17.451   3.578   0.893 -0.0086 -0.2190 -0.1495
10097DDP     C360581  18.139   3.785   1.892  0.0289 -0.0471  0.1569
10097DDP     C460582  18.358   4.199   0.689 -0.1035  0.0341  0.2266
10098DDP     C160583  17.960  15.489  17.682  0.1634 -0.2872  0.0742
10098DDP     P160584  17.954  15.988  17.676  0.0835 -0.2239 -0.1352
10098DDP     P260585  17.619  15.316  17.708  0.0290 -0.0407  0.1320
10098DDP     C260586  17.200  15.170  17.774  0.2352  0.0671 -0.0566
10098DDP     C360587  18.090  16.203  18.063 -0.0559  0.0878 -0.4313
10098DDP     C460588  18.216  15.170  17.685  0.2941  0.0420 -0.2082
10099DDP     C160589  24.464  29.254  11.606 -0.0095  0.1852 -0.1746
10099DDP     P160590  24.022  29.308  11.667 -0.1552 -0.0479  0.1703
10099DDP     P260591  24.611  29.056  11.278 -0.3151 -0.1068  0.0032
10099DDP     C260592  24.683  28.875  10.840  0.0093 -0.2174  0.0491
10099DDP     C360593  23.878  29.636  11.941  0.0705 -0.0691  0.2825
10099DDP     C460594  24.810  29.290  11.856 -0.2957  0.1840 -0.2003
10100DDP     C160595   3.423  15.340  17.469 -0.1788 -0.0014 -0.1902
10100DDP     P160596   3.789  15.450  17.695  0.0082  0.1488 -0.1360
10100DDP     P260597   3.140  15.705  17.558  0.0781  0.1363  0.1539
10100DDP     C260598   3.159  16.001  17.869 -0.1383 -0.2917 -0.0199
10100DDP     C360599   4.018  15.798  17.860  0.0444 -0.0181 -0.4917
10100DDP     C460600   3.324  14.954  17.273 -0.4321  0.4161  0.1596
10101DDP     C160601   2.529   4.148  21.564 -0.0655  0.2872  0.0911
10101DDP     P160602   2.944   3.979  21.463  0.0680  0.0096 -0.2010
10101DDP     P260603   2.177   4.064  21.351 -0.1309 -0.0329 -0.2783
10101DDP     C260604   1.737   4.225  21.366  0.0065 -0.0520 -0.3220
10101DDP     C360605   3.409   3.735  21.311  0.1845 -0.2070 -0.1386
10101DDP     C460606   2.545   4.504  21.885 -0.0081  0.1738 -0.3043
10102DDP     C160607  10.212   7.347   9.337 -0.0607 -0.0596  0.0949
10102DDP     P160608  10.592   7.185   9.213  0.0057 -0.0532 -0.1714
10102DDP     P260609  10.140   7.641   9.673 -0.0099  0.0124  0.0124
10102DDP     C260610  10.002   7.505  10.033  0.0172  0.0602 -0.1730
10102DDP     C360611  10.891   6.884   9.024 -0.1153  0.1770  0.1737
10102DDP     C460612  10.016   7.181   8.975  0.1170  0.1010  0.4369
10103DDP     C160613   4.770  12.020  22.014 -0.2877  0.3166 -0.3618
10103DDP     P160614   5.033  11.693  21.971 -0.0144  0.2732  0.0433
10103DDP     P260615   4.447  11.969  22.336 -0.3584  0.0299 -0.3642
10103DDP     C260616   4.206  11.816  22.593 -0.1295  0.0078 -0.2749
10103DDP     C360617   5.310  11.376  21.791  0.1811 -0.2834 -0.0763
10103DDP     C460618   5.031  12.382  22.027 -0.0919  0.0681 -0.0233
10104DDP     C160619  22.732  30.298  12.156  0.2822  0.4038 -0.0961
10104DDP     P160620  22.906   0.321  12.225  0.1332 -0.0998 -0.1661
10104DDP     P260621  22.977  29.926  12.222 -0.1116 -0.4356 -0.0931
10104DDP     C260622  22.982  29.736  12.689  0.1892  0.0223  0.0510
10104DDP     C360623  22.914   0.630  12.545 -0.0549 -0.0806  0.1679
10104DDP     C460624  22.283  30.262  12.064  0.0229  0.4548 -0.0704
10105DDP     C160625  21.467  28.584   5.793 -0.0739  0.2277  0.2673
10105DDP     P160626  21.764  28.846   5.827 -0.0147  0.1016 -0.0213
10105DDP     P260627  21.147  28.872   5.621  0.0226 -0.0651 -0.2373
10105DDP     C260628  20.874  29.174   5.708 -0.3673  0.2280 -0.1195
10105DDP     C360629  22.089  28.987   6.004  0.0371  0.3510  0.0793
10105DDP     C460630  21.120  28.297   5.879  0.3174 -0.0943 -0.1094
10106DDP     C160631   2.556   2.535  27.093 -0.0641  0.0285  0.1735
10106DDP     P160632   2.398   2.833  27.199  0.0937  0.1398 -0.2496
10106DDP     P260633   2.960   2.442  26.994 -0.1591  0.1315  0.2532
10106DDP     C260634   3.441   2.279  26.892 -0.0382  0.1605  0.0674
10106DDP     C360635   2.097   3.132  27.092 -0.1498 -0.1166 -0.0978
10106DDP     C460636   2.319   2.309  26.789 -0.0496 -0.1019 -0.0751
10107DDP     C160637   5.088  12.885  18.672  0.6414  0.0106 -0.0844
10107DDP     P160638   4.712  13.123  18.538 -0.1568 -0.3213 -0.2529
10107DDP     P260639   5.244  12.901  19.052 -0.0827 -0.0067 -0.0816
10107DDP     C260640   5.143  13.155  19.335 -0.2852  0.3539 -0.0746
10107DDP     C360641   4.514  13.169  18.205 -0.1665  0.2800  0.1725
10107DDP     C460642   5.277  12.659  18.383  0.1720 -0.0969  0.0330
10108DDP     C160643  10.801   3.182  21.603 -0.2951 -0.1531 -0.1549
10108DDP     P160644  10.598   2.951  21.798 -0.3457  0.0732 -0.0269
10108DDP     P260645  11.141   3.073  21.748 -0.3612 -0.2762 -0.1365
10108DDP     C260646  11.530   3.112  21.757 -0.0162  0.0718  0.0955
10108DDP     C360647  10.314   2.598  21.905  0.0649 -0.0041 -0.1433
10108DDP     C460648  10.829   3.445  21.404 -0.1603 -0.0750 -0.2241
10109DDP     C160649  21.192  22.775  17.584  0.0492 -0.1919 -0.0922
10109DDP     P160650  21.596  22.499  17.740  0.0272 -0.1011 -0.2079
10109DDP     P260651  20.791  22.825  17.606 -0.0435 -0.0874 -0.2494
10109DDP     C260652  20.438  23.045  17.692  0.0529  0.0629  0.1889
10109DDP     C360653  21.863  22.205  17.826  0.0318  0.1906  0.0581
10109DDP     C460654  21.406  23.123  17.529 -0.3146  0.0173  0.1448
10110DDP     C160655   1.025  22.475  30.009 -0.1238  0.1871 -0.1548
10110DDP     P160656   0.898  22.478   0.055  0.6413  0.3627 -0.0067
10110DDP     P260657   1.448  22.402  30.006 -0.2177  0.1557 -0.3166
10110DDP     C260658   1.674  22.537  29.713 -0.0558  0.0510  0.0328
10110DDP     C360659   1.080  22.286   0.447  0.0203  0.1298  0.0737
10110DDP     C460660   0.953  22.557  29.581 -0.3687 -0.0589  0.2727
10111DDP     C160661  27.350  18.432   2.796 -0.1048 -0.0026  0.1560
10111DDP     P160662  27.663  18.144   2.735 -0.2306  0.2000  0.0458
10111DDP     P260663  26.979  18.223   2.715 -0.1027 -0.1479  0.1717
10111DDP     C260664  26.578  18.118   2.905 -0.1012  0.1646 -0.0536
10111DDP     C360665  27.980  17.834   2.792 -0.2251  0.0543  0.1115
10111DDP     C460666  27.557  18.660   3.093 -0.3436  0.3507  0.1266
10112DDP     C160667  14.483   0.042  18.511 -0.1098 -0.1806  0.1871
10112DDP     P160668  14.896  30.260  18.394 -0.2009 -0.0777 -0.3014
10112DDP     P260669  14.347   0.118  18.123  0.0347 -0.2884 -0.3366
10112DDP     C260670  14.329   0.076  17.689 -0.1323  0.1976 -0.1786
10112DDP     C360671  15.351  30.107  18.329  0.0375  0.2565 -0.0571
10112DDP     C460672  14.310   0.177  18.847  0.2327 -0.3741 -0.1429
10113DDP     C160673  19.706  18.689  24.945  0.1176  0.2678 -0.2569
10113DDP     P160674  19.347  18.630  25.133  0.2139 -0.1466  0.1993
10113DDP     P260675  19.795  18.408  24.624 -0.2359  0.1048  0.1183
10113DDP     C260676  20.033  18.305  24.239  0.1798 -0.1364 -0.0321
10113DDP     C360677  19.122  18.508  25.568  0.0744  0.4094 -0.3075
10113DDP     C460678  19.923  19.074  24.955  0.3760 -0.4385 -0.1138
10114DDP     C160679  18.312  14.179  12.123  0.3453 -0.0974 -0.0186
10114DDP     P160680  18.037  14.002  12.483  0.2553 -0.1179 -0.2468
10114DDP     P260681  18.574  14.417  12.247 -0.0606  0.3070 -0.1319
10114DDP     C260682  18.626  14.883  12.175 -0.2055 -0.0947  0.0754
10114DDP     C360683  18.050  13.547  12.657  0.3389 -0.2321  0.0489
10114DDP     C460684  18.043  14.265  11.693 -0.1639 -0.0198  0.1251
10115DDP     C160685  18.390  29.887   1.665  0.3811  0.0043 -0.0939
10115DDP     P160686  18.376  29.431   1.550 -0.1233  0.0592 -0.1834
10115DDP     P260687  18.095  29.934   1.416 -0.0921  0.1192  0.2846
10115DDP     C260688  17.739  30.256   1.462 -0.1132  0.0563  0.1298
10115DDP     C360689  18.173  29.041   1.531 -0.0744  0.0509  0.1384
10115DDP     C460690  18.455   0.027   1.791 -0.3479 -0.0627  0.2530
10116DDP     C160691   7.938  13.105   2.304  0.3330  0.2824  0.3470
10116DDP     P160692   7.999  13.338   2.643  0.1458 -0.1911  0.0349
10116DDP     P260693   8.306  12.962   1.996  0.0208 -0.0687 -0.0779
10116DDP     C260694   8.501  12.747   1.686  0.2084  0.1013  0.1224
10116DDP     C360695   8.092  13.803   2.735  0.2765 -0.2539 -0.0322
10116DDP     C460696   7.492  12.905   2.227  0.0002  0.2872 -0.2106
10117DDP     C160697  27.827  12.321  24.522  0.1501 -0.1809  0.1718
10117DDP     P160698  27.993  12.094  24.146 -0.1900  0.1311  0.0002
10117DDP     P260699  27.832  12.811  24.557  0.0170  0.4576 -0.0122
10117DDP     C260700  28.175  12.918  24.460 -0.3578  0.0046 -0.1199
10117DDP     C360701  27.911  11.985  23.683  0.0778 -0.1056 -0.0117
10117DDP     C460702  27.558  12.096  24.642  0.0111  0.1192 -0.3327
10118DDP     C160703  28.861  12.023  20.022 -0.0702  0.0313 -0.1347
10118DDP     P160704  28.454  12.025  19.647  0.0992 -0.0174 -0.0638
10118DDP     P260705  29.102  12.119  20.352 -0.1634  0.2429 -0.1853
10118DDP     C260706  29.265  12.130  20.772 -0.1254 -0.0995 -0.1496
10118DDP     C360707  28.185  11.734  19.461  0.1055 -0.0085 -0.0962
10118DDP     C460708  28.932  11.608  19.978 -0.1643 -0.0694 -0.2218
10119DDP     C160709  17.431   2.112  10.882 -0.2474 -0.0655  0.0794
10119DDP     P160710  17.184   2.492  10.927 -0.0740 -0.0877  0.0489
10119DDP     P260711  17.122   1.741  10.922 -0.2763  0.0016 -0.3694
10119DDP     C260712  17.304   1.455  11.121 -0.0757 -0.1904 -0.2430
10119DDP     C360713  17.428   2.841  10.974 -0.2565 -0.0012  0.1048
10119DDP     C460714  17.877   2.245  10.698  0.2991  0.1001 -0.1349
10120DDP     C160715  11.517  10.340  19.281  0.0140 -0.3290  0.1113
10120DDP     P160716  11.445  10.761  19.380 -0.2011 -0.1400 -0.0426
10120DDP     P260717  11.154  10.479  18.988  0.4753 -0.0730 -0.1065
10120DDP     C260718  11.010  10.675  18.491 -0.0474  0.0493  0.1652
10120DDP     C360719  11.205  11.146  19.574 -0.0539 -0.0776 -0.4430
10120DDP     C460720  11.855  10.031  19.531 -0.3668 -0.0139 -0.0864
10121DDP     C160721  26.520  24.768  25.919  0.0643 -0.0564  0.1745
10121DDP     P160722  26.718  24.522  26.253 -0.0148  0.1145  0.0429
10121DDP     P260723  26.454  25.209  26.042  0.3083 -0.1404 -0.1225
10121DDP     C260724  26.545  25.616  26.074  0.2262  0.0705 -0.0578
10121DDP     C360725  26.694  24.055  26.331 -0.0094 -0.2730 -0.1410
10121DDP     C460726  26.378  24.631  25.521  0.2094  0.0683  0.4324
10122DDP     C160727  22.857  11.392  28.559 -0.3215 -0.0142 -0.1594
10122DDP     P160728  22.615  11.240  28.777  0.3193  0.1014 -0.1005
10122DDP     P260729  22.779  11.447  28.120  0.1749  0.2442  0.2919
10122DDP     C260730  22.430  11.777  28.059  0.1001 -0.0276  0.3873
10122DDP     C360731  22.209  11.072  28.713 -0.0912 -0.0357  0.1705
10122DDP     C460732  23.239  11.480  28.676 -0.1160 -0.2357 -0.2292
10123DDP     C160733  25.726  20.312  28.230  0.0235 -0.4243 -0.1892
10123DDP     P160734  25.398  20.249  28.474  0.2506  0.0084 -0.0422
10123DDP     P260735  25.960  19.947  28.188  0.2059 -0.1062 -0.0326
10123DDP     C260736  26.154  19.672  27.903  0.2336 -0.0360  0.0842
10123DDP     C360737  24.931  20.129  28.479 -0.0448  0.2102  0.2717
10123DDP     C460738  25.774  20.728  28.088 -0.0215 -0.1776  0.3543
10124DDP     C160739  25.165  25.572  14.631 -0.3166  0.3310  0.2537
10124DDP     P160740  25.069  25.222  14.295  0.1289  0.1978  0.1817
10124DDP     P260741  25.274  25.931  14.459  0.2354  0.1061 -0.1708
10124DDP     C260742  25.428  26.366  14.419 -0.0242 -0.3036  0.0528
10124DDP     C360743  24.856  24.803  14.288 -0.0518  0.2473 -0.0424
10124DDP     C460744  24.975  25.531  15.075  0.1852  0.3213  0.1624
10125DDP     C160745  12.343  12.126  20.075  0.3808 -0.1339 -0.1577
10125DDP     P160746  12.396  11.807  20.400 -0.0425 -0.3566 -0.0704
10125DDP     P260747  12.221  11.941  19.757  0.0574  0.1146 -0.1083
10125DDP     C260748  12.163  11.521  19.486 -0.1150  0.1609  0.0175
10125DDP     C360749  12.643  11.816  20.753  0.2976  0.0412  0.0998
10125DDP     C460750  12.426  12.547  20.064 -0.0787 -0.0530  0.0263
10126DDP     C160751   9.883  18.891   7.616 -0.1700 -0.0415 -0.1323
10126DDP     P160752  10.072  19.282   7.489  0.7131 -0.1532 -0.0109
10126DDP     P260753   9.525  18.916   7.405 -0.0874 -0.2589  0.0751
10126DDP     C260754   9.301  18.838   6.944 -0.1382  0.0105  0.1208
10126DDP     C360755  10.263  19.521   7.163  0.0409  0.0045  0.1699
10126DDP     C460756  10.109  18.547   7.790  0.1777 -0.3710  0.2650
10127DDP     C160757  18.266  26.844  22.959  0.1189 -0.0571 -0.2212
10127DDP     P160758  17.950  27.078  22.671  0.1332  0.3622  0.1434
10127DDP     P260759  18.622  26.922  23.095  0.0150 -0.1615 -0.1436
10127DDP     C260760  19.030  26.747  23.153 -0.0633 -0.2682 -0.0883
10127DDP     C360761  17.645  27.323  22.417 -0.1181  0.2092  0.1149
10127DDP     C460762  18.175  26.556  23.186 -0.0711  0.1041 -0.1347
10128DDP     C160763  23.053  24.279  29.760  0.0941  0.2380  0.1616
10128DDP     P160764  23.137  23.833  29.770  0.1232  0.0227 -0.0190
10128DDP     P260765  22.844  24.084  30.090  0.2097  0.1915 -0.1946
10128DDP     C260766  22.768  24.030   0.205  0.0630 -0.3203 -0.0601
10128DDP     C360767  23.546  23.619  29.714 -0.3298  0.0846 -0.0391
10128DDP     C460768  23.479  24.447  29.499 -0.2742 -0.0123  0.1160
10129DDP     C160769   7.591  17.883  28.874 -0.1883  0.0422  0.0404
10129DDP     P160770   7.357  18.170  29.255  0.2346 -0.0457 -0.1547
10129DDP     P260771   7.253  17.841  28.565  0.0332 -0.0775  0.1086
10129DDP     C260772   7.201  17.770  28.128 -0.1787 -0.1290  0.1150
10129DDP     C360773   7.355  18.596  29.390  0.0312  0.0327  0.4166
10129DDP     C460774   7.950  17.588  28.873 -0.0670  0.2400 -0.0571
10130DDP     C160775  13.301  14.645  29.352  0.1134  0.0408  0.0437
10130DDP     P160776  13.652  14.424  29.175  0.3528 -0.2703  0.1110
10130DDP     P260777  13.372  15.036  29.621  0.3128 -0.0854 -0.4131
10130DDP     C260778  13.135  15.415  29.768  0.1476  0.0113  0.0948
10130DDP     C360779  14.072  14.232  29.210  0.0461 -0.0347  0.0440
10130DDP     C460780  12.985  14.682  29.023  0.0741  0.1410 -0.1503
10131DDP     C160781  14.359  23.250   5.066  0.2472  0.1405 -0.0447
10131DDP     P160782  14.476  23.187   4.689 -0.0528 -0.1324 -0.0779
10131DDP     P260783  14.787  23.207   5.118 -0.1065 -0.0252  0.0575
10131DDP     C260784  15.049  23.333   5.491 -0.0792  0.0338  0.1103
10131DDP     C360785  15.002  23.210   4.591  0.3232  0.0955  0.0813
10131DDP     C460786  14.028  23.189   5.378  0.0643 -0.0263 -0.2940
10132DDP     C160787  10.319  23.586  28.163  0.0712  0.0130 -0.0203
10132DDP     P160788  10.339  23.736  27.750  0.3056 -0.2267  0.1208
10132DDP     P260789  10.057  23.700  28.421 -0.0645  0.1077  0.0250
10132DDP     C260790  10.416  24.035  28.584  0.3974  0.1823  0.2222
10132DDP     C360791  10.358  24.022  27.269 -0.2490 -0.1799 -0.0005
10132DDP     C460792  10.711  23.398  28.201  0.1435 -0.0662 -0.1803
10133DDP     C160793   4.037  23.222  23.820 -0.0498  0.1640 -0.0475
10133DDP     P160794   4.180  22.919  23.582 -0.2502  0.1331 -0.1625
10133DDP     P260795   4.201  23.656  23.610 -0.2392 -0.0249 -0.0592
10133DDP     C260796   4.035  23.988  23.381  0.0023  0.0059  0.2442
10133DDP     C360797   4.178  22.664  23.169 -0.0467 -0.1922 -0.0587
10133DDP     C460798   3.750  23.285  24.199  0.2416  0.0497  0.1183
10134DDP     C160799   1.706  18.506  27.048  0.1483 -0.1977 -0.1258
10134DDP     P160800   1.631  18.479  27.484  0.1298  0.0865 -0.1376
10134DDP     P260801   1.744  18.880  26.800  0.0722  0.2505  0.3287
10134DDP     C260802   1.648  19.343  26.686  0.3762  0.1229 -0.1921
10134DDP     C360803   1.816  18.565  27.912  0.1791 -0.1318  0.0105
10134DDP     C460804   1.831  18.079  26.914  0.1513 -0.1869 -0.2864
10135DDP     C160805   4.070  16.996  29.172  0.2012 -0.0848 -0.1917
10135DDP     P160806   3.883  16.467  29.282  0.0127  0.0138 -0.3290
10135DDP     P260807   4.476  17.113  29.166  0.4442 -0.0352 -0.0855
10135DDP     C260808   4.796  17.244  28.922  0.2017 -0.1024  0.2571
10135DDP     C360809   3.736  16.049  29.369 -0.4053  0.0746 -0.0496
10135DDP     C460810   3.709  17.239  29.177  0.0071 -0.0201  0.2975
10136DDP     C160811   8.417   9.884  28.615 -0.2445  0.1978 -0.1344
10136DDP     P160812   8.741   9.785  28.874  0.1580 -0.1214 -0.0305
10136DDP     P260813   8.149   9.648  28.383 -0.0866  0.0466 -0.7204
10136DDP     C260814   7.958   9.246  28.436 -0.3045 -0.4661 -0.0359
10136DDP     C360815   9.019   9.445  29.113 -0.1689 -0.0850 -0.1829
10136DDP     C460816   8.351  10.301  28.551  0.0455 -0.0023  0.0612
10137DDP     C160817   0.886  29.106  16.979  0.4117  0.1697  0.1081
10137DDP     P160818   1.178  29.441  16.773  0.0626  0.0532  0.0214
10137DDP     P260819   0.850  29.105  17.531 -0.0567  0.1364  0.4302
10137DDP     C260820   0.679  29.190  17.902 -0.1930 -0.0518  0.2255
10137DDP     C360821   1.331  29.558  16.360 -0.0431 -0.1675 -0.1468
10137DDP     C460822   0.754  28.781  16.708 -0.1444 -0.1076 -0.0873
10138DDP     C160823  23.858   9.420  26.574 -0.1333 -0.0410  0.2653
10138DDP     P160824  24.228   9.361  26.351 -0.0468  0.0444  0.1382
10138DDP     P260825  23.827   9.659  26.907  0.3049  0.1016 -0.1652
10138DDP     C260826  23.597   9.755  27.274  0.0481  0.2178  0.0713
10138DDP     C360827  24.400   9.580  25.946 -0.1033  0.0593  0.2028
10138DDP     C460828  23.567   9.073  26.404  0.0844  0.0165 -0.2169
10139DDP     C160829  10.083  19.535   8.717 -0.1386  0.0981  0.0794
10139DDP     P160830  10.408  19.317   8.918  0.0334  0.0928  0.1656
10139DDP     P260831  10.034  19.923   8.898  0.4001 -0.1719  0.0989
10139DDP     C260832  10.111  20.202   9.117  0.1290 -0.0432 -0.0458
10139DDP     C360833  10.704  19.016   8.894 -0.1739  0.4215  0.1440
10139DDP     C460834  10.028  19.379   8.347 -0.2035 -0.3413 -0.1788
10140DDP     C160835   7.983   3.678   7.207 -0.1598  0.2333  0.0323
10140DDP     P160836   8.115   3.471   7.575  0.1176  0.2526 -0.2421
10140DDP     P260837   7.690   3.903   7.286  0.1916 -0.1031  0.2087
10140DDP     C260838   7.262   3.854   7.462 -0.2779 -0.0981  0.2029
10140DDP     C360839   8.053   3.364   8.004 -0.0937  0.5101 -0.0006
10140DDP     C460840   8.125   3.522   6.787  0.1583  0.0064 -0.0745
10141DDP     C160841  12.730  19.287   2.469  0.1716  0.0173 -0.1202
10141DDP     P160842  12.865  19.044   2.288  0.1389  0.4104 -0.1415
10141DDP     P260843  12.964  19.647   2.599  0.1630  0.1221 -0.1576
10141DDP     C260844  13.160  20.052   2.786  0.2018 -0.0416 -0.1129
10141DDP     C360845  12.699  18.601   2.093 -0.2709 -0.1695  0.1422
10141DDP     C460846  12.262  19.326   2.422 -0.2292  0.3139  0.2738
10142DDP     C160847   4.435  13.497  16.160  0.0066  0.2998  0.1041
10142DDP     P160848   4.246  13.064  16.056  0.0609  0.3561 -0.2668
10142DDP     P260849   4.303  13.882  16.210 -0.1326 -0.0829 -0.0339
10142DDP     C260850   4.320  14.375  16.097 -0.4154  0.1094  0.0389
10142DDP     C360851   4.339  12.642  15.855 -0.0258 -0.0840 -0.3778
10142DDP     C460852   4.840  13.555  16.108 -0.0590  0.1091 -0.0055
10143DDP     C160853   8.185   2.291  27.050  0.2506  0.3138 -0.1829
10143DDP     P160854   7.891   2.540  26.747 -0.0552  0.0600  0.0754
10143DDP     P260855   8.411   2.297  27.499  0.1438  0.2467  0.0004
10143DDP     C260856   8.667   2.161  27.840  0.2178  0.0303  0.0868
10143DDP     C360857   7.459   2.346  26.666 -0.1409 -0.1444 -0.1421
10143DDP     C460858   8.089   1.853  26.987  0.1239  0.0711  0.0573
10144DDP     C160859  26.459  28.333  15.386 -0.0235  0.0348 -0.1754
10144DDP     P160860  26.098  28.250  15.323  0.0487 -0.0001  0.0669
10144DDP     P260861  26.679  28.676  15.532  0.1477 -0.1935 -0.0440
10144DDP     C260862  26.662  28.942  15.830 -0.0423 -0.1708  0.0516
10144DDP     C360863  25.666  28.163  15.396  0.0242  0.0216  0.2500
10144DDP     C460864  26.812  28.069  15.213 -0.1295 -0.2314 -0.2756
10145DDP     C160865  16.793  22.915  29.872 -0.0485 -0.1754 -0.1428
10145DDP     P160866  17.039  23.236  30.097  0.1822 -0.1046 -0.0576
10145DDP     P260867  16.414  22.865  30.003 -0.0716 -0.3943 -0.0938
10145DDP     C260868  16.120  22.746  30.161 -0.0629  0.2663 -0.0425
10145DDP     C360869  17.449  23.251  30.084  0.1609  0.2485  0.1551
10145DDP     C460870  16.909  22.829  29.440  0.1585  0.0845 -0.2472
10146DDP     C160871  19.549   5.680   4.769 -0.1688  0.0628  0.0883
10146DDP     P160872  19.091   5.876   4.950  0.2355 -0.1459 -0.5849
10146DDP     P260873  19.797   5.804   4.396  0.0765  0.3175  0.2034
10146DDP     C260874  20.101   6.162   4.477  0.0530 -0.2683 -0.2874
10146DDP     C360875  18.795   6.169   4.913  0.1464  0.1805  0.0113
10146DDP     C460876  19.761   5.551   5.182 -0.1707 -0.3608  0.2833
10147DDP     C160877  28.369   7.128  18.241 -0.0451  0.2069  0.2974
10147DDP     P160878  28.183   7.126  18.715 -0.3037  0.3665 -0.0756
10147DDP     P260879  28.784   6.900  18.076 -0.1212  0.1545 -0.3643
10147DDP     C260880  29.161   6.757  17.820 -0.0454 -0.1153  0.0735
10147DDP     C360881  28.129   7.043  19.169 -0.0760 -0.1070 -0.0330
10147DDP     C460882  28.209   7.459  17.927 -0.0179 -0.2743  0.3540
10148DDP     C160883  22.127   0.183  20.911 -0.1003 -0.2364  0.0320
10148DDP     P160884  21.839  30.242  21.139  0.1322  0.1967  0.0015
10148DDP     P260885  22.457   0.015  20.542 -0.0443 -0.5036  0.1202
10148DDP     C260886  22.897  30.223  20.375 -0.1052 -0.1540  0.0077
10148DDP     C360887  21.586  30.261  21.533  0.2783 -0.0390 -0.2795
10148DDP     C460888  22.325   0.481  21.206  0.2204  0.0132  0.0808
10149DDP     C160889   1.603  25.358   8.100 -0.0145 -0.3783 -0.0772
10149DDP     P160890   1.329  25.434   7.789  0.2797  0.1343 -0.0258
10149DDP     P260891   1.798  25.670   8.370 -0.1353 -0.1963  0.1937
10149DDP     C260892   1.951  25.717   8.794  0.1754  0.1484  0.1182
10149DDP     C360893   1.347  25.328   7.397 -0.5067 -0.1266 -0.1512
10149DDP     C460894   1.556  24.971   8.243 -0.0552  0.3450  0.1169
10150DDP     C160895  27.633   5.755   6.975  0.2622 -0.2796  0.0069
10150DDP     P160896  27.323   6.105   7.046  0.1987  0.3216  0.1176
10150DDP     P260897  27.937   5.535   7.364  0.0548 -0.0117  0.3726
10150DDP     C260898  28.029   5.779   7.748 -0.0194 -0.0282  0.0518
10150DDP     C360899  27.433   6.515   7.134 -0.0991  0.1555 -0.2142
10150DDP     C460900  27.827   5.778   6.694 -0.2933  0.3839  0.0296
10151DDP     C160901   7.497  12.544  16.263  0.1407 -0.1092 -0.1691
10151DDP     P160902   7.169  12.330  16.422 -0.1463 -0.0469  0.0360
10151DDP     P260903   7.303  12.450  15.807 -0.1359 -0.0227  0.4731
10151DDP     C260904   6.919  12.312  15.507 -0.1419 -0.0371  0.1029
10151DDP     C360905   6.740  12.161  16.375  0.2628  0.0573 -0.2648
10151DDP     C460906   7.810  12.843  16.382  0.0163 -0.0264 -0.1333
10152DDP     C160907   2.177  25.615  26.439 -0.2495  0.1124 -0.0670
10152DDP     P160908   1.919  25.956  26.583 -0.0514  0.3617  0.3116
10152DDP     P260909   2.537  25.869  26.486 -0.0076  0.1451 -0.2683
10152DDP     C260910   2.537  26.245  26.601 -0.0322 -0.0377 -0.0661
10152DDP     C360911   1.571  25.820  26.904 -0.0100  0.1557  0.3674
10152DDP     C460912   2.054  25.216  26.216  0.0855 -0.2583 -0.0577
10153DDP     C160913  10.532   8.839  14.071 -0.2032 -0.0619  0.0384
10153DDP     P160914  10.489   8.966  14.494  0.1484 -0.4138 -0.0224
10153DDP     P260915  10.536   9.111  13.699  0.1065  0.0896  0.0841
10153DDP     C260916  10.591   9.532  13.813  0.3690 -0.1986  0.1875
10153DDP     C360917  10.293   9.195  14.880 -0.0673  0.3086  0.1640
10153DDP     C460918  10.411   8.453  13.954  0.0959 -0.2396  0.2697
10154DDP     C160919  13.061   8.801  25.245 -0.0617  0.0578  0.2166
10154DDP     P160920  12.972   8.769  25.724  0.5435  0.0074 -0.0595
10154DDP     P260921  13.231   9.238  25.031  0.0984 -0.0998  0.2722
10154DDP     C260922  13.294   9.402  24.654  0.1817 -0.3017 -0.1622
10154DDP     C360923  13.201   8.755  26.201  0.0384  0.2245 -0.0045
10154DDP     C460924  12.925   8.360  25.281 -0.0868  0.2189  0.0815
10155DDP     C160925   5.255  18.976  16.697 -0.1259  0.0034 -0.2056
10155DDP     P160926   5.375  19.395  16.880  0.2139 -0.0718 -0.0909
10155DDP     P260927   5.419  18.693  16.965  0.2119 -0.0408  0.1297
10155DDP     C260928   5.545  18.263  16.981  0.2802 -0.0016  0.1140
10155DDP     C360929   5.084  19.599  17.147 -0.3611 -0.1403 -0.0751
10155DDP     C460930   5.256  18.856  16.304  0.2934 -0.1079 -0.4700
10156DDP     C160931  16.829  25.243  23.692  0.0376  0.0064 -0.0909
10156DDP     P160932  17.022  24.861  23.909  0.0392  0.1562  0.0085
10156DDP     P260933  17.220  25.417  23.738  0.3261 -0.1852  0.2428
10156DDP     C260934  17.600  25.652  23.931 -0.1640 -0.1581 -0.0636
10156DDP     C360935  17.130  24.697  24.335 -0.0786 -0.2815  0.0577
10156DDP     C460936  16.472  25.314  23.282 -0.0939  0.0649  0.0675
10157DDP     C160937   9.115   1.528  23.245  0.5468  0.0545  0.1566
10157DDP     P160938   9.307   1.576  23.595 -0.0820 -0.0193  0.0235
10157DDP     P260939   9.246   1.184  23.105  0.0795  0.5787 -0.0732
10157DDP     C260940   9.220   0.850  23.087  0.2258  0.3161 -0.1299
10157DDP     C360941   9.111   1.714  23.938  0.1155 -0.1284 -0.0756
10157DDP     C460942   8.802   1.765  22.985  0.0167  0.1328 -0.1509
10158DDP     C160943  12.708  19.672  11.758 -0.0142 -0.1365 -0.0388
10158DDP     P160944  12.413  19.708  12.097 -0.1732  0.3022  0.1040
10158DDP     P260945  13.082  20.020  11.598 -0.1711 -0.2169 -0.1137
10158DDP     C260946  13.274  20.262  11.223 -0.1424  0.1784 -0.2974
10158DDP     C360947  12.090  19.625  12.366 -0.1247 -0.3237 -0.3015
10158DDP     C460948  12.909  19.299  11.755 -0.1670  0.1273  0.2304
10159DDP     C160949  13.925  21.747  19.888  0.0462  0.0827 -0.0427
10159DDP     P160950  13.738  22.139  20.106  0.0848 -0.2589 -0.0535
10159DDP     P260951  13.987  21.417  20.087  0.1011  0.1639 -0.3317
10159DDP     C260952  14.117  20.984  20.251  0.3410 -0.2366 -0.1852
10159DDP     C360953  13.370  22.443  20.460  0.0212 -0.0917  0.1304
10159DDP     C460954  14.167  21.650  19.548  0.0724 -0.2721 -0.4721
10160DDP     C160955   8.886  28.006  29.383  0.1284  0.1267 -0.1869
10160DDP     P160956   9.216  27.773  29.462  0.2507 -0.2846  0.0240
10160DDP     P260957   8.845  28.342  29.123 -0.0382  0.1206 -0.0744
10160DDP     C260958   8.741  28.350  28.676 -0.0735 -0.4254 -0.0395
10160DDP     C360959   9.424  27.569  29.856  0.0959  0.5067  0.0922
10160DDP     C460960   8.472  27.862  29.546  0.0269  0.0398  0.3298
10161DDP     C160961  22.262   6.134  13.585 -0.1109 -0.1896 -0.1370
10161DDP     P160962  22.651   6.369  13.664 -0.0847  0.1209 -0.1749
10161DDP     P260963  21.988   6.002  14.003 -0.0597  0.0971 -0.1788
10161DDP     C260964  21.869   5.776  14.381  0.0808 -0.3069  0.2485
10161DDP     C360965  22.713   6.720  13.503 -0.0321 -0.2164 -0.1874
10161DDP     C460966  22.196   5.869  13.261 -0.2027 -0.2458 -0.2133
10162DDP     C160967  11.523  13.011  28.188  0.0777  0.1267 -0.2655
10162DDP     P160968  11.538  12.797  27.822  0.1321 -0.3297  0.0789
10162DDP     P260969  11.373  12.886  28.653 -0.1214 -0.3329  0.1105
10162DDP     C260970  11.306  13.211  28.995 -0.1908 -0.2044 -0.2399
10162DDP     C360971  11.248  12.536  27.594 -0.3939 -0.0034 -0.0610
10162DDP     C460972  11.531  13.538  28.185  0.1204  0.1891  0.2203
10163DDP     C160973  15.115  26.240  12.109 -0.0178  0.1201  0.1148
10163DDP     P160974  15.260  25.811  11.929 -0.0743  0.1158 -0.1197
10163DDP     P260975  15.021  26.557  11.755 -0.1183  0.1645 -0.1884
10163DDP     C260976  15.052  26.984  11.599 -0.0474  0.2344  0.0592
10163DDP     C360977  15.648  25.760  11.675  0.1789 -0.0789  0.0493
10163DDP     C460978  14.922  26.333  12.520  0.2107 -0.0168  0.0083
10164DDP     C160979  14.746   5.810  19.169 -0.1342 -0.4624 -0.2524
10164DDP     P160980  14.333   5.494  19.191 -0.0478  0.3364  0.0283
10164DDP     P260981  14.917   5.878  18.849  0.0738  0.1860 -0.2376
10164DDP     C260982  15.359   5.764  18.669 -0.0758  0.1264  0.0826
10164DDP     C360983  13.941   5.406  19.039  0.1896 -0.0426  0.1596
10164DDP     C460984  14.781   5.867  19.616  0.0503 -0.0201 -0.0737
10165DDP     C160985  26.536  22.849  10.784 -0.4155 -0.3530 -0.2164
10165DDP     P160986  26.180  22.979  10.553 -0.5055  0.1359 -0.0130
10165DDP     P260987  26.429  22.426  10.918 -0.1581  0.3196  0.1941
10165DDP     C260988  26.407  21.966  11.094  0.0469  0.1448 -0.1670
10165DDP     C360989  25.837  22.930  10.291  0.1605 -0.1326 -0.1752
10165DDP     C460990  26.882  23.141  10.866  0.0720  0.3405 -0.1856
10166DDP     C160991   1.711   2.083  25.408  0.0186  0.1514  0.1245
10166DDP     P160992   2.162   2.108  25.378  0.0251 -0.1557 -0.1415
10166DDP     P260993   1.509   2.279  25.676  0.0547 -0.0252 -0.0480
10166DDP     C260994   1.435   2.442  26.045  0.0958 -0.4374 -0.5529
10166DDP     C360995   2.508   2.301  25.030  0.4109 -0.2688 -0.0976
10166DDP     C460996   1.540   1.732  25.143  0.1578 -0.3139  0.1961
10167DDP     C160997  19.114  11.174  25.918  0.0418 -0.1403 -0.0583
10167DDP     P160998  19.626  11.088  25.884  0.2628 -0.0723 -0.1607
10167DDP     P260999  19.017  10.896  26.167 -0.3017 -0.0907  0.1761
10167DDP     C261000  19.217  10.659  26.617  0.1406  0.1329  0.0246
10167DDP     C361001  19.750  11.062  25.493  0.0089  0.2467 -0.0007
10167DDP     C461002  19.071  11.544  25.918 -0.1826 -0.2286  0.0668
10168DDP     C161003   1.984  28.651  25.625  0.0353  0.1052  0.2123
10168DDP     P161004   2.161  28.188  25.575  0.3293 -0.0510 -0.1198
10168DDP     P261005   1.906  28.979  25.933  0.2219 -0.1389 -0.0982
10168DDP     C261006   2.108  29.394  26.167  0.2468  0.1555 -0.2284
10168DDP     C361007   2.338  27.912  25.876  0.1770 -0.1653  0.0873
10168DDP     C461008   1.763  28.486  25.304 -0.0588  0.2096  0.0678
10169DDP     C161009   1.878   9.013   4.641 -0.1518  0.1749 -0.0291
10169DDP     P161010   2.075   8.639   4.551 -0.0252 -0.2964  0.0995
10169DDP     P261011   1.420   9.235   4.597 -0.0254  0.1262 -0.0097
10169DDP     C261012   1.110   9.496   4.742  0.0329 -0.0437  0.0624
10169DDP     C361013   2.471   8.401   4.491 -0.1672  0.0487 -0.2302
10169DDP     C461014   2.225   9.215   4.697 -0.2669 -0.2071 -0.0292
10170DDP     C161015  13.270  25.559   4.592 -0.4708  0.4706 -0.0033
10170DDP     P161016  13.235  25.589   4.193  0.2207  0.0719  0.0160
10170DDP     P261017  13.135  25.206   4.847  0.1887 -0.0690 -0.0040
10170DDP     C261018  12.727  25.123   4.931  0.1505  0.0013 -0.0487
10170DDP     C361019  13.229  25.817   3.780  0.0897  0.0541 -0.0811
10170DDP     C461020  13.371  25.923   4.837 -0.2458 -0.1825  0.0196
10171DDP     C161021  25.666  27.583   1.146 -0.0894  0.1932  0.0518
10171DDP     P161022  25.585  27.659   1.669 -0.0875 -0.0486 -0.2107
10171DDP     P261023  25.449  27.708   0.774  0.2014  0.3305  0.0769
10171DDP     C261024  25.350  28.077   0.630 -0.1043 -0.3154 -0.0221
10171DDP     C361025  25.699  27.772   2.069  0.1178 -0.0122  0.2911
10171DDP     C461026  26.061  27.454   1.002  0.0855 -0.0237  0.2705
10172DDP     C161027  27.906   7.839   7.209 -0.0763  0.0565 -0.2576
10172DDP     P161028  27.769   8.119   7.054 -0.1594  0.1510  0.1416
10172DDP     P261029  28.184   7.953   7.535 -0.2488  0.4446  0.2631
10172DDP     C261030  28.058   8.148   7.915 -0.1197  0.0431  0.0288
10172DDP     C361031  27.900   8.082   6.707  0.1262  0.1486  0.1650
10172DDP     C461032  27.984   7.334   7.273 -0.1170  0.2288  0.0873
10173DDP     C161033   2.742  28.644  22.077 -0.1646 -0.4911  0.1448
10173DDP     P161034   2.860  28.523  21.666 -0.2737 -0.0651 -0.2677
10173DDP     P261035   3.028  28.670  22.456 -0.2005 -0.0856 -0.1891
10173DDP     C261036   3.367  28.639  22.796  0.2069 -0.0911 -0.2698
10173DDP     C361037   2.761  28.233  21.284 -0.3371  0.0051 -0.1959
10173DDP     C461038   2.212  28.527  22.099  0.0671  0.4381  0.0860
10174DDP     C161039  21.166  28.834  16.891  0.0019  0.0687 -0.2155
10174DDP     P161040  21.496  29.159  16.951 -0.1708  0.0259 -0.0354
10174DDP     P261041  21.211  28.403  16.928 -0.2903  0.1939 -0.0965
10174DDP     C261042  21.247  27.918  16.854 -0.1052 -0.0320  0.0637
10174DDP     C361043  21.629  29.559  16.984 -0.4212  0.2145 -0.2050
10174DDP     C461044  20.810  29.071  16.768 -0.0194  0.0916  0.0971
10175DDP     C161045  12.360  18.124  17.930 -0.1703 -0.1941  0.4095
10175DDP     P161046  11.934  18.278  18.062  0.0067  0.0497 -0.3373
10175DDP     P261047  12.403  17.654  17.825 -0.1047  0.0580 -0.0709
10175DDP     C261048  12.824  17.510  17.516  0.0584  0.0315  0.1440
10175DDP     C361049  11.594  18.352  18.051  0.1799 -0.1512 -0.1618
10175DDP     C461050  12.622  18.432  17.997 -0.0796  0.1394  0.1039
10176DDP     C161051  27.176   0.755  27.390 -0.0278  0.2959  0.2076
10176DDP     P161052  27.213   0.333  27.805  0.0395 -0.0954 -0.2134
10176DDP     P261053  27.215   0.670  27.014 -0.0787 -0.0541 -0.0564
10176DDP     C261054  27.280   0.526  26.544  0.1077 -0.3397 -0.1947
10176DDP     C361055  27.162  30.327  28.175 -0.1903  0.0978 -0.0632
10176DDP     C461056  27.263   1.198  27.567 -0.0680  0.3138  0.2589
10177DDP     C161057  23.804   8.103   1.249 -0.2892  0.1590  0.1003
10177DDP     P161058  23.449   8.239   1.158 -0.0324 -0.0233  0.0976
10177DDP     P261059  24.141   8.321   1.166  0.0974  0.2069 -0.0757
10177DDP     C261060  24.575   8.302   1.026 -0.0243 -0.2292 -0.0394
10177DDP     C361061  23.228   8.242   0.804  0.0085 -0.1705 -0.2372
10177DDP     C461062  23.907   7.668   1.414  0.0234  0.0976  0.1466
10178DDP     C161063   8.713  13.296  15.620  0.1023 -0.1117 -0.0501
10178DDP     P161064   8.451  13.325  15.749  0.1691 -0.0422 -0.1672
10178DDP     P261065   8.833  12.968  15.847  0.0866 -0.3830  0.2207
10178DDP     C261066   8.574  12.589  15.922 -0.0151  0.1362  0.1787
10178DDP     C361067   8.160  13.440  16.074  0.0490 -0.4855  0.1415
10178DDP     C461068   8.897  13.416  15.213 -0.0435  0.2570 -0.2137
10179DDP     C161069   5.425   1.161  25.776 -0.1253  0.1001 -0.0359
10179DDP     P161070   5.490   0.786  25.536  0.2414 -0.1625 -0.1083
10179DDP     P261071   4.927   1.361  25.777  0.0272 -0.1390  0.2641
10179DDP     C261072   4.530   1.524  25.901 -0.1500  0.0731  0.2011
10179DDP     C361073   5.383   0.422  25.258  0.0703 -0.1309 -0.4809
10179DDP     C461074   5.709   1.071  26.010 -0.2033  0.0244 -0.0722
10180DDP     C161075   7.387  11.675  27.697  0.0952 -0.0472  0.0653
10180DDP     P161076   7.689  11.846  27.420  0.0892  0.2218 -0.1272
10180DDP     P261077   7.573  11.271  27.700  0.0757 -0.2029  0.0017
10180DDP     C261078   7.624  10.826  27.637 -0.0268  0.0817 -0.0343
10180DDP     C361079   7.708  12.013  26.978 -0.1871 -0.2861 -0.1509
10180DDP     C461080   7.054  11.740  27.947 -0.0494 -0.4505  0.1508
10181DDP     C161081  15.642   5.127  16.949 -0.0559 -0.4297 -0.1066
10181DDP     P161082  15.898   5.279  17.262  0.3033 -0.3941  0.1519
10181DDP     P261083  15.297   5.329  16.876 -0.1914 -0.1548  0.0086
10181DDP     C261084  15.136   5.775  16.836 -0.0763 -0.1667  0.2107
10181DDP     C361085  15.914   5.685  17.550 -0.0441 -0.0147  0.1519
10181DDP     C461086  15.838   4.839  16.497 -0.0169  0.3115  0.0318
10182DDP     C161087  27.308  14.396  21.775 -0.1387 -0.1129 -0.2727
10182DDP     P161088  27.333  14.182  22.193  0.0822 -0.3253  0.1024
10182DDP     P261089  27.124  14.668  21.611 -0.1494  0.1769 -0.2276
10182DDP     C261090  26.633  14.697  21.560 -0.3704  0.3436 -0.0405
10182DDP     C361091  27.428  14.340  22.668 -0.1097  0.0630  0.0454
10182DDP     C461092  27.644  14.329  21.539  0.0776  0.1768 -0.1694
10183DDP     C161093  23.954  17.834  23.888  0.0154 -0.0546 -0.1539
10183DDP     P161094  24.165  18.032  23.556  0.1726 -0.1694 -0.3334
10183DDP     P261095  23.518  17.804  23.900 -0.2749 -0.1468  0.1721
10183DDP     C261096  23.013  17.980  24.024  0.0730  0.0493  0.1814
10183DDP     C361097  24.279  18.023  23.113 -0.0058 -0.1730 -0.0329
10183DDP     C461098  24.231  17.730  24.297 -0.0769  0.0069  0.1002
10184DDP     C161099  28.618  23.377  27.011  0.1005 -0.0135  0.0850
10184DDP     P161100  28.855  23.302  26.625 -0.2427 -0.1179 -0.2921
10184DDP     P261101  28.659  23.214  27.472 -0.2925 -0.1878  0.3414
10184DDP     C261102  28.827  23.030  27.822  0.1086 -0.0597  0.0688
10184DDP     C361103  28.800  23.511  26.147  0.2454  0.0584  0.1540
10184DDP     C461104  28.607  23.751  27.045 -0.1893 -0.3488 -0.0191
10185DDP     C161105   2.821   7.946  21.058  0.0869 -0.0842  0.0899
10185DDP     P161106   2.435   7.632  21.155 -0.1549  0.0262 -0.2725
10185DDP     P261107   2.661   8.336  21.072  0.0420 -0.1838  0.0027
10185DDP     C261108   2.605   8.773  21.139  0.2226  0.1169 -0.2344
10185DDP     C361109   2.332   7.537  21.533 -0.1003 -0.1775 -0.0148
10185DDP     C461110   3.273   7.900  20.788 -0.0590  0.1473 -0.0283
10186DDP     C161111  17.236  15.837  30.034 -0.1109  0.0311  0.1009
10186DDP     P161112  16.737  15.890  29.949 -0.1764  0.0704  0.3644
10186DDP     P261113  17.324  15.930   0.070 -0.1838  0.1600 -0.1890
10186DDP     C261114  17.100  16.141   0.413  0.1175 -0.1610  0.1724
10186DDP     C361115  16.503  16.182  29.937  0.2288  0.0983  0.0847
10186DDP     C461116  17.571  15.662  29.862  0.1278 -0.0922 -0.3203
10187DDP     C161117  29.619   2.784  18.078  0.1021  0.1697  0.0645
10187DDP     P161118  29.809   2.811  17.643 -0.1905  0.0120 -0.0525
10187DDP     P261119  29.206   2.897  18.310  0.1902  0.0076 -0.1438
10187DDP     C261120  29.166   3.321  18.452 -0.2802  0.0674 -0.1383
10187DDP     C361121  29.783   3.062  17.279  0.0411 -0.0138 -0.0374
10187DDP     C461122  29.965   3.080  18.315  0.2863  0.1347  0.0660
10188DDP     C161123  16.304  22.317   8.134  0.0541  0.1697 -0.1845
10188DDP     P161124  16.643  22.192   8.450  0.2774  0.0868  0.1505
10188DDP     P261125  15.916  22.355   8.359  0.1828  0.0322  0.1663
10188DDP     C261126  15.630  22.112   8.292 -0.1160 -0.0154  0.0554
10188DDP     C361127  16.295  22.056   8.653 -0.0249  0.0516 -0.0701
10188DDP     C461128  16.417  22.632   7.907  0.1881 -0.1626  0.4055
10189DDP     C161129   8.162  20.450   6.178 -0.0791  0.0363  0.1726
10189DDP     P161130   7.874  20.849   6.205  0.0594  0.1194  0.1346
10189DDP     P261131   8.037  20.110   5.916 -0.2238  0.2144  0.0147
10189DDP     C261132   7.886  19.823   5.720  0.0011 -0.1491  0.0009
10189DDP     C361133   7.705  21.140   6.523 -0.1119 -0.1115  0.0850
10189DDP     C461134   8.602  20.524   6.448 -0.0765  0.1547  0.2416
10190DDP     C161135  25.686  14.047  22.947  0.0744  0.1508 -0.1974
10190DDP     P161136  25.878  14.486  23.173 -0.0755  0.1125 -0.1454
10190DDP     P261137  25.583  14.046  22.336  0.2978 -0.1066  0.2544
10190DDP     C261138  25.819  13.935  22.037 -0.1967 -0.0370 -0.0218
10190DDP     C361139  26.046  14.876  23.194  0.0215 -0.1190  0.0738
10190DDP     C461140  25.462  13.645  23.207 -0.3291  0.1031  0.1702
10191DDP     C161141  23.900  13.538  25.803  0.0044 -0.0766 -0.1085
10191DDP     P161142  23.598  13.293  25.629  0.1577  0.1112 -0.1536
10191DDP     P261143  23.721  13.805  25.551 -0.0295 -0.3897 -0.2329
10191DDP     C261144  23.524  14.252  25.618  0.0922  0.0699 -0.1503
10191DDP     C361145  23.113  13.279  25.645 -0.0004  0.3046  0.0148
10191DDP     C461146  24.100  13.620  26.252  0.4645  0.5192 -0.1097
10192DDP     C161147  25.946   9.633   7.631  0.0197  0.0398 -0.2585
10192DDP     P161148  25.846  10.100   7.642 -0.0932 -0.4105 -0.0022
10192DDP     P261149  26.105   9.424   7.380 -0.0349 -0.3165  0.0235
10192DDP     C261150  26.546   9.268   7.241  0.0025  0.2263 -0.0255
10192DDP     C361151  26.062  10.517   7.752  0.2017 -0.0311 -0.0420
10192DDP     C461152  25.486   9.479   7.800  0.0850  0.0257 -0.1762
10193DDP     C161153   9.273  12.645  18.997  0.1180 -0.0731  0.1308
10193DDP     P161154   9.283  12.235  19.139  0.0531  0.0461  0.0117
10193DDP     P261155   9.496  12.980  19.270 -0.2268  0.4810 -0.1310
10193DDP     C261156   9.549  12.882  19.735 -0.4453  0.2424  0.1018
10193DDP     C361157   9.679  11.990  19.261  0.2212  0.1487 -0.0564
10193DDP     C461158   9.133  12.522  18.605 -0.2890  0.2649  0.0339
10194DDP     C161159  19.466  17.429   2.592 -0.1543  0.1251 -0.2257
10194DDP     P161160  19.264  17.434   2.960  0.1388  0.0131 -0.1292
10194DDP     P261161  19.434  17.279   2.197 -0.0212 -0.3000  0.1199
10194DDP     C261162  19.469  16.993   1.868  0.1288  0.3035 -0.0078
10194DDP     C361163  19.101  17.778   3.228  0.1275 -0.0575 -0.1954
10194DDP     C461164  19.778  17.719   2.625 -0.2774 -0.0388 -0.0351
10195DDP     C161165  16.533   0.742  23.519 -0.0620  0.2382  0.1653
10195DDP     P161166  16.460   1.229  23.472  0.1628  0.0387  0.1554
10195DDP     P261167  16.171   0.552  23.741  0.1267 -0.0220 -0.0430
10195DDP     C261168  15.915   0.312  23.978 -0.1493 -0.1999 -0.2198
10195DDP     C361169  16.294   1.475  23.134  0.0054  0.0128  0.0983
10195DDP     C461170  16.786   0.439  23.413  0.2067  0.1664  0.0707
10196DDP     C161171  20.575  21.156  15.412  0.0417 -0.1568 -0.2220
10196DDP     P161172  20.116  21.283  15.642  0.0411  0.1585  0.0338
10196DDP     P261173  20.538  20.747  15.324 -0.1275  0.1049 -0.0081
10196DDP     C261174  20.565  20.425  15.689  0.0260  0.3068 -0.1432
10196DDP     C361175  19.681  21.093  15.559 -0.0265 -0.0320 -0.1911
10196DDP     C461176  20.947  21.337  15.305  0.3393  0.3339  0.2700
10197DDP     C161177   6.150  17.480  22.706 -0.0678  0.1879 -0.0255
10197DDP     P161178   5.959  17.229  22.432 -0.0765  0.1376 -0.0059
10197DDP     P261179   5.824  17.672  22.902  0.5847 -0.0479  0.0653
10197DDP     C261180   5.568  17.783  23.353  0.1607 -0.1090  0.0455
10197DDP     C361181   5.627  17.220  22.128 -0.0563  0.3578 -0.0386
10197DDP     C461182   6.457  17.748  22.883 -0.1154  0.0334 -0.2570
10198DDP     C161183   3.084   9.547  16.723  0.0503  0.1645 -0.2932
10198DDP     P161184   3.386   9.946  16.792  0.0470  0.2331  0.0824
10198DDP     P261185   3.142   9.062  16.772  0.0124  0.0638  0.0600
10198DDP     C261186   3.188   8.695  17.035  0.0403  0.1428 -0.2428
10198DDP     C361187   3.605  10.421  16.751 -0.1591  0.0032 -0.1084
10198DDP     C461188   2.617   9.608  16.644  0.3449 -0.2143 -0.1799
10199DDP     C161189  13.742  25.060   9.412 -0.4462  0.2784  0.1300
10199DDP     P161190  13.391  24.892   9.582 -0.0191 -0.0176 -0.2202
10199DDP     P261191  13.858  25.465   9.635 -0.0848  0.0245  0.0801
10199DDP     C261192  13.912  25.847   9.905 -0.0093  0.0363 -0.1697
10199DDP     C361193  12.984  24.761   9.583  0.1031 -0.1156 -0.3171
10199DDP     C461194  13.931  25.056   8.944 -0.0389  0.2297 -0.2396
10200DDP     C161195  13.617  29.366  12.966 -0.0265  0.0174 -0.2253
10200DDP     P161196  13.498  29.009  12.869 -0.2135 -0.1383  0.3213
10200DDP     P261197  13.535  29.395  13.448 -0.2724  0.1807 -0.1715
10200DDP     C261198  13.370  29.596  13.828 -0.0022  0.0358  0.1898
10200DDP     C361199  13.113  28.780  13.016  0.3352  0.0650  0.4875
10200DDP     C461200  13.504  29.729  12.717 -0.3192 -0.1209  0.0655
10201DDP     C161201  15.304  17.412  14.889 -0.0047  0.2412 -0.1042
10201DDP     P161202  14.889  17.277  14.613  0.2521 -0.2521  0.1672
10201DDP     P261203  15.464  17.699  15.199 -0.0963 -0.0365  0.1689
10201DDP     C261204  15.806  17.855  15.054 -0.3326 -0.0120 -0.4433
10201DDP     C361205  14.516  17.176  14.730  0.0535  0.0852  0.1822
10201DDP     C461206  15.499  17.053  14.933  0.3467 -0.0598  0.2028
10202DDP     C161207  22.529   5.739   4.204 -0.1782  0.1432  0.0152
10202DDP     P161208  22.712   5.986   4.555  0.0828 -0.1338  0.2454
10202DDP     P261209  22.172   5.657   4.194  0.2769 -0.0249  0.1923
10202DDP     C261210  21.759   5.406   4.238  0.0996  0.1310 -0.1604
10202DDP     C361211  22.741   6.427   4.742 -0.1341  0.3139  0.0464
10202DDP     C461212  22.748   5.717   3.786  0.1004  0.1137  0.2133
10203DDP     C161213  28.969  10.460   0.463 -0.2211 -0.0753  0.1909
10203DDP     P161214  28.802  10.007   0.656 -0.4206  0.0560  0.1906
10203DDP     P261215  29.516  10.515   0.448 -0.1813 -0.1103  0.4517
10203DDP     C261216  29.971  10.773   0.328  0.3166  0.1616  0.1677
10203DDP     C361217  28.534   9.771   0.797  0.0075 -0.0460 -0.0962
10203DDP     C461218  28.822  10.858   0.273 -0.0391  0.0182 -0.1250
10204DDP     C161219  17.671  15.741  18.950  0.1781  0.3969  0.1156
10204DDP     P161220  17.715  15.276  18.866  0.0485 -0.0192  0.0328
10204DDP     P261221  18.049  15.981  19.084 -0.1745  0.1808  0.1420
10204DDP     C261222  18.260  16.367  19.143 -0.0176  0.0350  0.1656
10204DDP     C361223  17.982  14.930  18.896 -0.0256 -0.0141  0.2448
10204DDP     C461224  17.294  15.806  18.925  0.2238 -0.0006 -0.2581
10205DDP     C161225   6.028  12.758  27.940  0.0087 -0.0702  0.1897
10205DDP     P161226   5.939  12.371  27.727  0.0003 -0.1489 -0.0971
10205DDP     P261227   5.529  12.922  27.919  0.2022 -0.3120  0.1242
10205DDP     C261228   5.273  12.823  27.554 -0.1408  0.0925 -0.0002
10205DDP     C361229   5.689  12.444  27.381 -0.0554  0.1801 -0.0733
10205DDP     C461230   6.174  12.671  28.342 -0.0265 -0.0422 -0.1985
10206DDP     C161231  12.217  25.560  17.803 -0.0961  0.1236 -0.0743
10206DDP     P161232  12.480  25.271  17.502  0.2174  0.0742  0.1357
10206DDP     P261233  11.937  25.485  17.953  0.0960 -0.1789  0.0026
10206DDP     C261234  11.596  25.198  18.108  0.1657 -0.0507 -0.1161
10206DDP     C361235  12.688  25.160  17.182 -0.0562 -0.2189  0.2769
10206DDP     C461236  12.258  26.029  17.715  0.3083 -0.0082 -0.0697
10207DDP     C161237  14.729  16.696  16.521  0.0005 -0.3572  0.1533
10207DDP     P161238  14.365  16.822  16.716  0.4864  0.4009 -0.2660
10207DDP     P261239  15.094  16.856  16.801 -0.2119 -0.1418 -0.0760
10207DDP     C261240  15.125  16.930  17.259  0.0968  0.1059  0.2920
10207DDP     C361241  14.160  17.135  17.064 -0.0633 -0.0524 -0.0708
10207DDP     C461242  15.047  16.429  16.059 -0.1664  0.2522 -0.1048
10208DDP     C161243  25.864  10.453   8.563 -0.0324  0.0738 -0.0019
10208DDP     P161244  26.135  10.108   8.673  0.0434  0.0280  0.0579
10208DDP     P261245  25.657  10.636   8.996 -0.3322 -0.0196 -0.0803
10208DDP     C261246  25.722  10.844   9.462 -0.0662 -0.0299  0.0452
10208DDP     C361247  26.127   9.798   8.322  0.1768 -0.0847  0.1507
10208DDP     C461248  25.763  10.681   8.174 -0.3765  0.1976  0.0457
10209DDP     C161249  24.940  11.992  10.467  0.1131 -0.2322 -0.2149
10209DDP     P161250  24.630  12.309  10.272 -0.0447 -0.1404 -0.0200
10209DDP     P261251  24.998  11.822  10.076  0.2222 -0.1239  0.4317
10209DDP     C261252  25.301  11.842   9.852  0.0558 -0.0404 -0.3109
10209DDP     C361253  24.493  12.782  10.291 -0.0735 -0.0335 -0.0948
10209DDP     C461254  24.930  11.698  10.893  0.1358 -0.1322 -0.2337
10210DDP     C161255  22.921  27.977  16.889 -0.2402 -0.1358 -0.0905
10210DDP     P161256  22.673  28.279  16.992  0.3476 -0.0765 -0.1039
10210DDP     P261257  22.751  27.709  16.627 -0.0963 -0.0968 -0.1215
10210DDP     C261258  22.600  27.382  16.720 -0.1573 -0.0969  0.3078
10210DDP     C361259  22.404  28.552  16.768 -0.2477  0.0990 -0.0026
10210DDP     C461260  23.343  28.124  16.856 -0.0645  0.2227 -0.0190
10211DDP     C161261   1.332   2.742  11.937  0.1190 -0.0237 -0.0029
10211DDP     P161262   1.053   2.849  12.280 -0.1160 -0.1109  0.1258
10211DDP     P261263   1.582   3.126  12.016 -0.3084  0.0566  0.0438
10211DDP     C261264   1.940   3.064  12.365  0.0360 -0.3603 -0.2377
10211DDP     C361265   0.799   3.156  12.269  0.1220  0.3332 -0.1610
10211DDP     C461266   1.405   2.392  11.882  0.3771  0.0312 -0.1955
10212DDP     C161267   9.755  18.112  22.341 -0.1191 -0.0720 -0.1704
10212DDP     P161268  10.066  17.847  22.145  0.2817  0.1030  0.2395
10212DDP     P261269   9.389  17.809  22.553 -0.2218  0.0201 -0.2317
10212DDP     C261270   9.256  17.379  22.767 -0.0156 -0.4930 -0.0565
10212DDP     C361271  10.493  17.761  22.240 -0.3580 -0.0750 -0.1170
10212DDP     C461272   9.837  18.448  22.381 -0.1208 -0.0097 -0.0153
10213DDP     C161273   5.735   7.698  24.076  0.0206  0.1040  0.1010
10213DDP     P161274   5.962   7.886  23.786  0.0983 -0.1228 -0.0103
10213DDP     P261275   5.577   7.294  24.142 -0.0542  0.0641 -0.0584
10213DDP     C261276   5.497   6.821  24.051  0.0312 -0.0265 -0.0365
10213DDP     C361277   5.919   7.943  23.438  0.0339  0.0849  0.2896
10213DDP     C461278   5.587   8.131  24.094 -0.0298 -0.0249 -0.2209
10214DDP     C161279  24.905  20.837  10.208 -0.0156 -0.3089 -0.0815
10214DDP     P161280  24.535  20.632  10.130 -0.0474 -0.4850  0.0176
10214DDP     P261281  24.836  21.247   9.988  0.2127 -0.1127  0.3512
10214DDP     C261282  24.917  21.393   9.647 -0.0402 -0.4302  0.0422
10214DDP     C361283  24.223  20.509   9.873  0.2564 -0.2519  0.2315
10214DDP     C461284  25.290  20.691  10.356  0.2502  0.0904  0.1092
10215DDP     C161285  18.377  20.608  21.094  0.1777 -0.2959 -0.0885
10215DDP     P161286  18.102  21.028  21.039 -0.1405 -0.3891 -0.0925
10215DDP     P261287  18.399  20.348  20.677 -0.1721 -0.1394 -0.0490
10215DDP     C261288  18.195  20.153  20.344 -0.1298  0.1772  0.1188
10215DDP     C361289  18.021  21.307  20.701  0.1311 -0.0729  0.1146
10215DDP     C461290  18.735  20.482  21.503 -0.0151 -0.0980 -0.0351
10216DDP     C161291  14.209  15.121  12.071  0.0600 -0.2097 -0.2453
10216DDP     P161292  14.204  15.559  12.033 -0.1491  0.4288 -0.1533
10216DDP     P261293  14.377  14.938  11.823 -0.0572  0.4134 -0.3083
10216DDP     C261294  14.789  15.180  11.741  0.1742  0.1278  0.1608
10216DDP     C361295  13.902  15.958  12.127  0.2549  0.1031  0.2211
10216DDP     C461296  13.899  15.028  12.169 -0.1434  0.0087  0.0497
10217DDP     C161297  26.430   3.449  13.651  0.1265 -0.0577 -0.3107
10217DDP     P161298  26.817   3.722  13.722 -0.1116  0.1564  0.1684
10217DDP     P261299  26.224   3.781  13.741 -0.0355  0.0426  0.2043
10217DDP     C261300  25.991   3.694  14.154  0.1198  0.4424 -0.2736
10217DDP     C361301  26.931   4.103  13.473 -0.1890 -0.1698 -0.1780
10217DDP     C461302  26.258   2.974  13.522 -0.0584 -0.3161 -0.0156
10218DDP     C161303  25.587  17.016  16.481  0.1900  0.0727  0.2548
10218DDP     P161304  25.178  17.122  16.363  0.2343  0.2053 -0.2262
10218DDP     P261305  25.942  17.135  16.267  0.3157 -0.0936 -0.0083
10218DDP     C261306  26.324  17.209  16.123  0.0513 -0.3575  0.0036
10218DDP     C361307  24.933  17.444  16.484  0.1299 -0.0916 -0.3497
10218DDP     C461308  25.750  16.817  16.828 -0.0666 -0.1497 -0.0135
10219DDP     C161309  13.542   1.271   1.578  0.0921  0.2546  0.0303
10219DDP     P161310  13.520   1.545   1.814 -0.3003  0.0141  0.2462
10219DDP     P261311  13.907   1.047   1.272  0.0817 -0.1734 -0.3491
10219DDP     C261312  14.206   0.984   1.004 -0.1948 -0.2564  0.0592
10219DDP     C361313  13.535   1.904   2.068  0.4381 -0.0528  0.0510
10219DDP     C461314  13.098   1.021   1.630 -0.0172 -0.2059  0.1251
10220DDP     C161315   5.700  12.378  10.636  0.2741 -0.1002 -0.0820
10220DDP     P161316   6.095  12.557  10.715 -0.2189  0.6205  0.1643
10220DDP     P261317   5.488  12.286  10.981 -0.2368 -0.0293  0.2792
10220DDP     C261318   5.499  11.910  11.175 -0.2921  0.1274 -0.2440
10220DDP     C361319   6.453  12.890  10.677 -0.0407  0.3405  0.2330
10220DDP     C461320   5.601  12.209  10.169 -0.0328 -0.0046  0.0043
10221DDP     C161321   4.679  16.193  -0.014  0.3587  0.1211 -0.1944
10221DDP     P161322   4.324  16.373   0.197 -0.0973  0.3124 -0.1275
10221DDP     P261323   4.632  15.953  29.949 -0.2356 -0.2454 -0.0476
10221DDP     C261324   4.461  15.837  29.453  0.1357  0.2315  0.0412
10221DDP     C361325   4.007  16.435   0.453 -0.0555  0.0719 -0.2601
10221DDP     C461326   5.171  16.226   0.049  0.2171  0.1264  0.3953
10222DDP     C161327  22.345  29.076   7.797 -0.0841  0.1673  0.1604
10222DDP     P161328  21.912  29.165   7.584  0.2585  0.2344  0.1835
10222DDP     P261329  22.468  28.675   8.041  0.1027 -0.1337  0.0333
10222DDP     C261330  22.269  28.420   8.311 -0.0614  0.1189  0.0677
10222DDP     C361331  21.769  29.486   7.323  0.0387  0.0875  0.0556
10222DDP     C461332  22.576  29.546   7.825 -0.1950  0.1478 -0.1430
10223DDP     C161333  30.263   9.589  13.245  0.2393  0.0834 -0.0816
10223DDP     P161334   0.408   9.773  13.151 -0.2601 -0.0226 -0.1750
10223DDP     P261335  30.000   9.923  13.348  0.0997  0.0389 -0.0330
10223DDP     C261336  29.924  10.334  13.195  0.2386  0.1422  0.2538
10223DDP     C361337   0.805  10.008  13.303 -0.1933 -0.1312  0.0734
10223DDP     C461338  30.271   9.139  13.347 -0.0551 -0.1027  0.1930
10224DDP     C161339  25.546   7.120  18.480  0.0294  0.3619 -0.0890
10224DDP     P161340  25.299   7.386  18.230 -0.3522  0.2323 -0.0574
10224DDP     P261341  25.637   6.736  18.326 -0.2216 -0.2785 -0.0746
10224DDP     C261342  25.925   6.583  17.970 -0.2116 -0.1069 -0.0235
10224DDP     C361343  25.003   7.639  18.074 -0.4082 -0.1559  0.1545
10224DDP     C461344  25.725   7.233  18.807 -0.1849 -0.2841 -0.0548
10225DDP     C161345  29.348   3.022  19.836  0.0755  0.2515  0.0932
10225DDP     P161346  29.466   2.974  20.181 -0.2058 -0.2098 -0.2998
10225DDP     P261347  28.973   3.087  20.062  0.2148 -0.2103  0.0772
10225DDP     C261348  28.649   2.891  20.212 -0.0406 -0.1135 -0.3615
10225DDP     C361349  29.715   2.864  20.373 -0.2160 -0.2391 -0.0566
10225DDP     C461350  29.362   2.584  19.584  0.0464 -0.0881  0.0722
10226DDP     C161351  11.632  25.176  26.981  0.1617 -0.1309  0.0093
10226DDP     P161352  11.569  25.575  26.945  0.0486 -0.0580  0.0730
10226DDP     P261353  11.570  25.030  27.352 -0.1563  0.0682 -0.0558
10226DDP     C261354  11.254  24.735  27.537 -0.1552  0.0262  0.1547
10226DDP     C361355  11.463  25.856  26.603  0.0434 -0.1134 -0.2251
10226DDP     C461356  11.530  24.907  26.595 -0.0942 -0.1426 -0.2538
10227DDP     C161357  18.517  15.738  19.109 -0.0419  0.1032  0.1383
10227DDP     P161358  18.482  15.301  19.033  0.2656  0.1025  0.1541
10227DDP     P261359  18.447  15.943  18.779 -0.0905  0.1924 -0.0739
10227DDP     C261360  18.469  16.236  18.569 -0.1372  0.1557 -0.0665
10227DDP     C361361  18.498  14.923  18.789 -0.0480 -0.1528 -0.3298
10227DDP     C461362  18.615  15.925  19.545  0.1722  0.0753 -0.0335
10228DDP     C161363  22.313  27.050  17.038  0.1284  0.3890  0.1788
10228DDP     P161364  22.735  26.966  16.941 -0.0960  0.0022 -0.0156
10228DDP     P261365  22.199  26.980  16.649  0.2391 -0.0291  0.1240
10228DDP     C261366  21.905  27.267  16.404  0.1309 -0.1240  0.0742
10228DDP     C361367  23.054  27.074  16.645 -0.2218 -0.4458  0.0059
10228DDP     C461368  22.138  27.160  17.393 -0.1434 -0.0318  0.3068
10229DDP     C161369   2.888  29.404  23.022  0.1943 -0.1969 -0.1120
10229DDP     P161370   2.823  29.310  23.370 -0.2800 -0.1938  0.1868
10229DDP     P261371   2.666  29.772  23.104  0.1098 -0.1417 -0.0548
10229DDP     C261372   2.417  30.042  23.287  0.0161  0.0193 -0.1844
10229DDP     C361373   2.505  29.601  23.551 -0.0249 -0.2245  0.0322
10229DDP     C461374   3.281  29.497  22.800 -0.1717  0.3089 -0.0510
10230DDP     C161375  12.716   1.997  18.202 -0.0542 -0.2751 -0.1575
10230DDP     P161376  12.954   2.351  18.333  0.0359 -0.0304  0.0839
10230DDP     P261377  12.560   1.734  18.313  0.0047 -0.1281 -0.3115
10230DDP     C261378  12.724   1.325  18.284  0.1332  0.0971  0.2277
10230DDP     C361379  13.126   2.797  18.385 -0.4489  0.2141  0.0874
10230DDP     C461380  12.623   2.054  17.730 -0.0023  0.0695  0.0287
10231DDP     C161381  21.834  11.785  11.489 -0.1345 -0.0256 -0.1856
10231DDP     P161382  22.307  11.849  11.407  0.1212  0.0318 -0.1695
10231DDP     P261383  21.752  11.734  11.954  0.2894  0.1030 -0.1075
10231DDP     C261384  21.519  11.582  12.324 -0.1783 -0.0215 -0.2108
10231DDP     C361385  22.763  11.865  11.196 -0.1406 -0.1161  0.0140
10231DDP     C461386  21.398  11.796  11.209 -0.4180 -0.1867  0.2347
10232DDP     C161387  23.976  26.875  20.033  0.2372  0.1059 -0.1556
10232DDP     P161388  23.479  26.686  19.949 -0.1034 -0.0472  0.0964
10232DDP     P261389  24.282  26.595  19.892 -0.0888 -0.1667 -0.0138
10232DDP     C261390  24.595  26.253  19.928 -0.0258 -0.3260  0.0252
10232DDP     C361391  23.001  26.637  20.100 -0.1655  0.0605 -0.0143
10232DDP     C461392  24.058  27.266  20.283  0.2408 -0.2698 -0.4077
10233DDP     C161393  26.366  25.076   2.945  0.3217  0.3591 -0.3003
10233DDP     P161394  26.097  25.347   2.696  0.2133 -0.0617  0.2865
10233DDP     P261395  26.294  24.624   2.856  0.0094  0.1100 -0.0170
10233DDP     C261396  26.624  24.302   2.808  0.1217  0.0498  0.2211
10233DDP     C361397  25.914  25.724   2.495 -0.0087  0.1301 -0.0243
10233DDP     C461398  26.586  25.235   3.267  0.0243 -0.0356 -0.2824
10234DDP     C161399  22.711   8.384   8.740 -0.3270  0.0292 -0.0459
10234DDP     P161400  22.377   8.209   8.932  0.2114 -0.0256 -0.1673
10234DDP     P261401  22.745   8.577   8.363 -0.1049  0.0253 -0.0503
10234DDP     C261402  22.951   8.532   7.990 -0.1140  0.2760  0.0809
10234DDP     C361403  21.961   7.984   9.063  0.1297  0.1815 -0.0224
10234DDP     C461404  23.086   8.325   9.022  0.1018  0.2236 -0.2973
10235DDP     C161405   7.086  20.193  23.957  0.0744 -0.0345  0.1980
10235DDP     P161406   7.101  19.783  23.825  0.0519  0.2723  0.1390
10235DDP     P261407   6.615  20.056  24.290 -0.1078  0.0578  0.0871
10235DDP     C261408   6.556  19.910  24.749 -0.2650  0.0825 -0.2939
10235DDP     C361409   7.254  19.420  23.656  0.0416  0.3811  0.1539
10235DDP     C461410   7.298  20.456  23.697  0.0400  0.5629 -0.1059
10236DDP     C161411  16.350  18.373  14.701 -0.2491 -0.2111  0.0409
10236DDP     P161412  15.970  18.657  14.535  0.2068 -0.2138 -0.3566
10236DDP     P261413  16.687  18.063  14.621 -0.0978 -0.3355  0.1328
10236DDP     C261414  16.679  17.567  14.612  0.1092  0.0189  0.0112
10236DDP     C361415  15.882  18.979  14.240  0.1534  0.0519  0.1936
10236DDP     C461416  16.096  18.296  15.136 -0.1742 -0.1788  0.0576
10237DDP     C161417  13.075  11.438  12.690  0.0837  0.0072  0.2563
10237DDP     P161418  12.798  11.153  12.736  0.0217 -0.0990 -0.1239
10237DDP     P261419  13.351  11.667  12.955 -0.1217  0.2399  0.2233
10237DDP     C261420  13.597  11.968  13.257 -0.1348 -0.1755  0.0513
10237DDP     C361421  12.687  10.715  12.579  0.2626 -0.0491  0.0783
10237DDP     C461422  12.924  11.517  12.293  0.2426  0.0613  0.0226
10238DDP     C161423   6.752  10.317  24.874  0.5151  0.1364 -0.0175
10238DDP     P161424   6.910   9.929  24.748  0.2446  0.1722 -0.1477
10238DDP     P261425   6.928  10.708  24.672 -0.1555  0.0384  0.0389
10238DDP     C261426   6.785  10.936  24.295 -0.0698 -0.0803  0.1349
10238DDP     C361427   6.956   9.508  24.467 -0.1593 -0.0681  0.1720
10238DDP     C461428   6.292  10.364  24.959 -0.2136 -0.0938  0.1497
10239DDP     C161429  29.373  12.856  30.052 -0.1441  0.2597  0.1719
10239DDP     P161430  29.587  13.064  29.723 -0.2340  0.1335 -0.0252
10239DDP     P261431  29.286  12.474  30.167  0.0299 -0.0021  0.0480
10239DDP     C261432  29.029  12.137  30.019 -0.0684  0.1303  0.0775
10239DDP     C361433  29.972  13.224  29.752  0.0908  0.0704  0.0718
10239DDP     C461434  29.375  13.213   0.158  0.0291  0.1064 -0.1028
10240DDP     C161435  15.556  20.449   6.410 -0.0015  0.0185 -0.2218
10240DDP     P161436  15.443  20.056   6.590  0.0635 -0.0736  0.1802
10240DDP     P261437  15.522  20.686   6.701 -0.6090 -0.0653 -0.0658
10240DDP     C261438  15.831  20.807   7.008 -0.0260  0.0383  0.0904
10240DDP     C361439  15.357  19.727   6.939 -0.2509 -0.0295 -0.0381
10240DDP     C461440  15.526  20.581   6.044  0.4661  0.2042 -0.2756
10241DDP     C161441  12.741  29.360   0.515  0.1128 -0.2193 -0.0467
10241DDP     P161442  12.798  29.162   0.966  0.4268  0.1376 -0.0538
10241DDP     P261443  12.381  29.272   0.303  0.0507 -0.0730 -0.2647
10241DDP     C261444  12.040  29.597   0.238  0.0288  0.3132  0.0066
10241DDP     C361445  12.903  29.489   1.333  0.0357 -0.0897 -0.1684
10241DDP     C461446  13.156  29.526   0.387 -0.0208 -0.1917  0.1128
10242DDP     C161447  29.713  24.025  19.383 -0.2184  0.1916 -0.2694
10242DDP     P161448  29.907  24.252  19.775  0.5045 -0.4144 -0.0617
10242DDP     P261449  29.217  23.866  19.446 -0.0090 -0.0302  0.1676
10242DDP     C261450  28.879  23.981  19.600  0.0617  0.1722  0.0151
10242DDP     C361451  30.290  24.099  20.061  0.0493  0.1948 -0.0467
10242DDP     C461452  29.876  24.057  18.942 -0.0206 -0.1201  0.0019
10243DDP     C161453  20.502  26.025   9.906  0.0448 -0.2951 -0.5433
10243DDP     P161454  20.592  25.924  10.345  0.1178 -0.2525  0.1836
10243DDP     P261455  20.610  26.386   9.835  0.0409  0.1502  0.1008
10243DDP     C261456  20.558  26.744  10.103  0.2592  0.0647 -0.2355
10243DDP     C361457  20.936  25.814  10.554  0.2310 -0.4155 -0.1708
10243DDP     C461458  20.212  25.928   9.591 -0.0730 -0.0849  0.1674
10244DDP     C161459   7.159  22.901  29.228  0.3562  0.3373 -0.0160
10244DDP     P161460   7.295  23.030  29.662 -0.1684 -0.2889  0.3113
10244DDP     P261461   7.467  22.822  29.015  0.1047 -0.0240 -0.4381
10244DDP     C261462   7.770  22.504  28.954 -0.0242 -0.1498  0.1633
10244DDP     C361463   7.397  22.952  30.055  0.2764  0.1722 -0.5501
10244DDP     C461464   6.758  23.009  28.948 -0.0768  0.1691 -0.0552
10245DDP     C161465   5.773  23.655  12.633  0.0264 -0.1969  0.1864
10245DDP     P161466   5.917  23.788  12.175  0.0299  0.2049  0.0483
10245DDP     P261467   6.128  23.458  12.688  0.2098 -0.3757  0.2222
10245DDP     C261468   6.099  23.035  12.519  0.0065 -0.0708  0.4196
10245DDP     C361469   6.038  24.060  11.816 -0.4309 -0.1651 -0.3178
10245DDP     C461470   5.460  23.651  12.991  0.1125  0.0498 -0.0358
10246DDP     C161471   6.668  17.356   9.338 -0.4486 -0.3191 -0.0733
10246DDP     P161472   6.332  17.686   9.510  0.2171 -0.2276 -0.0010
10246DDP     P261473   6.537  16.857   9.146 -0.2572  0.0046 -0.0163
10246DDP     C261474   6.695  16.395   8.978  0.3085 -0.1670  0.0249
10246DDP     C361475   5.852  17.716   9.262 -0.1123 -0.0044 -0.1524
10246DDP     C461476   7.089  17.453   9.491 -0.0544 -0.4259  0.2495
10247DDP     C161477  18.026  29.386   1.154 -0.0599  0.1310 -0.2181
10247DDP     P161478  18.001  29.222   0.785  0.1834 -0.0873 -0.0082
10247DDP     P261479  17.799  29.423   1.421 -0.1667 -0.2385  0.3414
10247DDP     C261480  17.574  29.820   1.305 -0.0388  0.0998  0.2238
10247DDP     C361481  18.278  29.071   0.402  0.2176 -0.6355 -0.0052
10247DDP     C461482  18.350  29.686   1.093 -0.2330  0.1251  0.2355
10248DDP     C161483  17.827   7.711   6.458 -0.0114  0.1437  0.2007
10248DDP     P161484  17.668   7.499   6.078  0.2646 -0.0243  0.0787
10248DDP     P261485  17.750   8.145   6.562 -0.1748  0.0070  0.1428
10248DDP     C261486  17.864   8.460   6.308 -0.1031 -0.2425 -0.1282
10248DDP     C361487  17.419   7.485   5.783  0.2663  0.2567 -0.0223
10248DDP     C461488  17.961   7.523   6.891  0.1078 -0.0395 -0.2528
10249DDP     C161489   5.146  21.636  22.610  0.0627  0.1065  0.0622
10249DDP     P161490   5.403  22.008  22.527 -0.1104  0.0941  0.1525
10249DDP     P261491   5.319  21.154  22.368  0.5169  0.0084 -0.1796
10249DDP     C261492   5.520  20.961  22.057  0.3757  0.2380  0.2097
10249DDP     C361493   5.477  22.153  22.070  0.0317 -0.2166  0.2389
10249DDP     C461494   4.886  21.554  22.970  0.1281 -0.2322  0.4828
10250DDP     C161495  24.091   4.945   0.661 -0.2759  0.0986 -0.1114
10250DDP     P161496  24.443   4.566   0.653 -0.4080 -0.0787  0.0269
10250DDP     P261497  24.325   5.182   0.786  0.2519 -0.2698 -0.0481
10250DDP     C261498  24.191   5.545   1.126  0.3876 -0.0723 -0.0863
10250DDP     C361499  24.861   4.546   0.549 -0.4644 -0.3673 -0.1080
10250DDP     C461500  23.745   4.934   0.586  0.0636  0.2086  0.0406
10251DDP     C161501  11.358   6.689   3.321 -0.2346 -0.1773 -0.2600
10251DDP     P161502  11.692   6.899   3.417  0.0981  0.1835  0.0019
10251DDP     P261503  10.973   6.997   3.321 -0.0514 -0.1827  0.0247
10251DDP     C261504  10.647   7.320   3.283  0.0208  0.0940  0.0319
10251DDP     C361505  12.160   7.003   3.592 -0.0712 -0.1770 -0.0605
10251DDP     C461506  11.486   6.413   3.480 -0.3573 -0.0276 -0.2461
10252DDP     C161507   3.154  27.913   6.783  0.0429  0.0312  0.1452
10252DDP     P161508   3.410  27.823   7.057  0.2549 -0.0036 -0.0040
10252DDP     P261509   2.910  27.673   6.502  0.2597  0.1372 -0.0557
10252DDP     C261510   2.800  27.447   6.150 -0.1192 -0.0302  0.2085
10252DDP     C361511   3.517  27.575   7.391  0.0448  0.0452  0.1208
10252DDP     C461512   3.010  28.335   6.567  0.3046 -0.1755 -0.0398
10253DDP     C161513   8.961   2.053   5.725  0.0395  0.0243 -0.0924
10253DDP     P161514   8.755   2.511   5.567  0.0178 -0.0589 -0.0348
10253DDP     P261515   8.876   1.576   5.858 -0.1908 -0.1611 -0.1348
10253DDP     C261516   8.976   1.133   5.897  0.0422 -0.0660  0.0138
10253DDP     C361517   8.748   2.757   5.197 -0.1645  0.1019 -0.1758
10253DDP     C461518   9.394   2.171   5.801 -0.0676 -0.0477  0.2037
10254DDP     C161519   1.573  21.561  24.391 -0.1311  0.0737 -0.0550
10254DDP     P161520   1.582  21.938  24.238 -0.2251  0.2497  0.2857
10254DDP     P261521   1.729  21.376  24.098 -0.0476 -0.0677  0.1462
10254DDP     C261522   1.607  20.955  24.126 -0.1927  0.1776  0.2596
10254DDP     C361523   1.895  22.211  24.096 -0.2566  0.2987  0.2678
10254DDP     C461524   1.583  21.448  24.862  0.2802 -0.1941  0.0903
10255DDP     C161525  29.301   6.871  20.981 -0.0589  0.3175  0.3422
10255DDP     P161526  29.254   6.898  21.473  0.3298 -0.1353 -0.2127
10255DDP     P261527  28.996   6.690  20.694  0.5541  0.0199  0.1547
10255DDP     C261528  28.671   6.364  20.406  0.3175 -0.1444 -0.0373
10255DDP     C361529  29.629   7.033  21.684 -0.1782  0.2011  0.1370
10255DDP     C461530  29.648   7.161  20.809 -0.2429 -0.0543 -0.2643
10256DDP     C161531   9.133  24.937  23.465  0.0245  0.2030 -0.0297
10256DDP     P161532   9.197  24.504  23.363 -0.0899 -0.0586 -0.0611
10256DDP     P261533   9.456  25.252  23.719 -0.1855  0.0894 -0.2725
10256DDP     C261534   9.785  25.578  23.821  0.0773  0.1473 -0.1834
10256DDP     C361535   8.955  24.042  23.539  0.0263  0.0382 -0.3140
10256DDP     C461536   8.860  25.180  23.253  0.0045 -0.2623  0.4362
10257DDP     C161537   8.339  13.282  10.083  0.5070 -0.2283  0.2080
10257DDP     P161538   8.457  13.608   9.826 -0.0169  0.1205 -0.0087
10257DDP     P261539   8.264  13.150   9.634  0.0065  0.0726  0.3287
10257DDP     C261540   8.435  13.154   9.095  0.1236 -0.2137 -0.1856
10257DDP     C361541   8.551  13.998   9.727 -0.0189  0.0328 -0.1179
10257DDP     C461542   8.383  13.224  10.564 -0.0076 -0.2887  0.0525
10258DDP     C161543  20.240   5.471  29.512 -0.3339 -0.0113  0.1551
10258DDP     P161544  20.422   5.107  29.245  0.0645  0.1506  0.2166
10258DDP     P261545  19.782   5.771  29.451  0.1924  0.0334  0.2030
10258DDP     C261546  19.476   5.996  29.467  0.0497 -0.0033 -0.1048
10258DDP     C361547  20.373   4.874  28.853  0.0104  0.0315  0.1737
10258DDP     C461548  20.216   5.272  29.859  0.1410 -0.0066  0.1240
10259DDP     C161549  29.572  15.523  24.706  0.6279  0.1895  0.3343
10259DDP     P161550  29.294  15.613  25.088  0.1211  0.2103 -0.0624
10259DDP     P261551  29.304  15.203  24.357 -0.3250  0.2494 -0.2374
10259DDP     C261552  29.205  15.128  23.922 -0.0128 -0.1554 -0.2119
10259DDP     C361553  29.342  15.514  25.545  0.0688 -0.2892  0.0605
10259DDP     C461554  29.976  15.343  24.757  0.1030  0.0960  0.1731
10260DDP     C161555  23.973   5.855  19.036  0.0526  0.1585 -0.2427
10260DDP     P161556  24.275   5.499  19.031 -0.0735  0.0982  0.0131
10260DDP     P261557  24.029   5.866  18.554 -0.2354 -0.0562 -0.0085
10260DDP     C261558  23.885   6.048  18.256  0.2737 -0.2183 -0.0513
10260DDP     C361559  24.663   5.308  18.789 -0.1413  0.0316 -0.2076
10260DDP     C461560  23.690   5.972  19.338  0.1748 -0.3247  0.0252
10261DDP     C161561   0.533   8.159   1.825  0.1116 -0.2677  0.0001
10261DDP     P161562   0.330   8.553   1.782  0.1172 -0.6461  0.1037
10261DDP     P261563   0.256   7.878   1.828  0.1460  0.3472 -0.0285
10261DDP     C261564  30.220   7.680   2.127 -0.0268  0.1326  0.2049
10261DDP     C361565   0.170   8.966   1.998 -0.3490  0.1875  0.3999
10261DDP     C461566   0.954   8.003   1.564  0.3465 -0.0483 -0.2169
10262DDP     C161567  30.288   4.898  12.283 -0.0508  0.0012 -0.0368
10262DDP     P161568  30.241   5.250  12.048  0.2711  0.1418 -0.0079
10262DDP     P261569  29.958   4.751  12.601 -0.1215  0.0131  0.0085
10262DDP     C261570  29.760   4.859  12.994  0.2032  0.0931  0.3803
10262DDP     C361571  29.880   5.512  11.885 -0.1365 -0.4454 -0.2477
10262DDP     C461572   0.316   4.631  12.329 -0.1655 -0.0311 -0.0866
10263DDP     C161573  14.056   2.354  25.275  0.3476 -0.3013  0.0488
10263DDP     P161574  13.741   2.641  25.271  0.0943  0.1445 -0.1514
10263DDP     P261575  14.473   2.170  25.389 -0.4397  0.0297  0.0221
10263DDP     C261576  14.830   2.078  25.296 -0.0920  0.0551  0.1328
10263DDP     C361577  13.491   2.996  24.996  0.1039  0.3789  0.1013
10263DDP     C461578  13.921   2.129  24.908  0.1395 -0.3291  0.2122
10264DDP     C161579  24.248   0.199   2.408 -0.1961  0.2690 -0.0514
10264DDP     P161580  24.030   0.144   2.180 -0.4211  0.2653  0.0368
10264DDP     P261581  24.702   0.443   2.347  0.0134  0.1298  0.0739
10264DDP     C261582  24.971   0.742   2.244  0.0621  0.0907  0.0623
10264DDP     C361583  23.862  30.032   2.035  0.0132 -0.1005  0.2468
10264DDP     C461584  24.351  30.118   2.660 -0.1343  0.0767 -0.0512
10265DDP     C161585  10.045  26.856  22.905 -0.2825  0.0647  0.3306
10265DDP     P161586   9.745  26.478  23.068 -0.1050  0.0255 -0.0379
10265DDP     P261587  10.209  27.117  23.243  0.0874 -0.5858 -0.4472
10265DDP     C261588  10.570  27.351  23.428 -0.0945  0.0680 -0.1546
10265DDP     C361589   9.668  26.370  23.415 -0.0543  0.1841 -0.1462
10265DDP     C461590   9.995  27.150  22.692 -0.1143  0.3803 -0.2182
10266DDP     C161591   7.442  28.648  25.987  0.0496 -0.0966  0.0544
10266DDP     P161592   7.435  28.911  25.515 -0.0489  0.1341 -0.1049
10266DDP     P261593   7.133  28.404  26.204 -0.0157 -0.4713  0.0495
10266DDP     C261594   6.709  28.389  26.094 -0.1919  0.3133 -0.3260
10266DDP     C361595   7.658  29.058  25.160  0.0965  0.0035 -0.0054
10266DDP     C461596   7.719  28.874  26.288 -0.2496 -0.0851 -0.1532
10267DDP     C161597   9.126   3.985  29.049  0.0827 -0.0861  0.0011
10267DDP     P161598   8.992   3.721  29.447  0.3246 -0.2831  0.0616
10267DDP     P261599   8.839   3.681  28.903 -0.0437  0.1827  0.1620
10267DDP     C261600   8.610   3.283  28.918  0.2715  0.0369  0.2200
10267DDP     C361601   8.949   3.382  29.761  0.0799  0.0871  0.0518
10267DDP     C461602   9.422   4.299  29.035  0.0863  0.0346 -0.1263
10268DDP     C161603  13.920  26.504  10.181 -0.1952  0.2394 -0.0955
10268DDP     P161604  13.685  26.460  10.467 -0.0809  0.2012 -0.1500
10268DDP     P261605  14.229  26.284  10.015 -0.0111 -0.0280 -0.2427
10268DDP     C261606  14.460  25.881  10.011  0.1214  0.0648  0.1223
10268DDP     C361607  13.186  26.573  10.479 -0.0320  0.2921 -0.1537
10268DDP     C461608  13.772  26.703   9.846  0.0211 -0.1843  0.2475
10269DDP     C161609  29.789  13.710   6.588 -0.0587  0.0388  0.0326
10269DDP     P161610  29.503  14.044   6.711  0.3272 -0.1371  0.2058
10269DDP     P261611  30.117  13.971   6.434  0.0346 -0.2451 -0.0049
10269DDP     C261612  30.225  14.458   6.334  0.1299  0.1055  0.2951
10269DDP     C361613  29.015  14.017   6.640  0.1143  0.0413  0.2770
10269DDP     C461614  29.664  13.292   6.541  0.1919  0.0826 -0.3446
10270DDP     C161615   3.599  24.952  11.473  0.0697 -0.0112  0.0636
10270DDP     P161616   3.636  25.379  11.288 -0.3140  0.3441  0.3168
10270DDP     P261617   3.681  24.953  11.885 -0.1494 -0.1163 -0.0172
10270DDP     C261618   3.890  24.553  11.851 -0.2469 -0.0672  0.1017
10270DDP     C361619   3.820  25.486  10.966  0.0658 -0.1926 -0.0148
10270DDP     C461620   3.385  24.604  11.348  0.1668  0.0505  0.5922
10271DDP     C161621  26.300  22.083  14.817 -0.0292  0.0158  0.3961
10271DDP     P161622  26.428  22.389  15.070  0.2447  0.1211 -0.1330
10271DDP     P261623  25.967  21.762  14.580  0.1064  0.0366  0.5060
10271DDP     C261624  25.876  21.438  14.837  0.0554 -0.2536  0.0449
10271DDP     C361625  26.412  22.540  15.441  0.1190  0.0062 -0.0004
10271DDP     C461626  26.734  21.979  14.542 -0.3299  0.0483  0.1139
10272DDP     C161627  26.910  24.646   5.896 -0.0029 -0.1389 -0.0039
10272DDP     P161628  27.216  24.417   5.629 -0.2103  0.1221  0.0525
10272DDP     P261629  27.045  24.885   6.186 -0.2573 -0.1832  0.0657
10272DDP     C261630  26.973  25.244   6.339  0.3031  0.2161 -0.0714
10272DDP     C361631  27.595  24.491   5.483 -0.0102  0.1152 -0.5367
10272DDP     C461632  26.446  24.551   5.892  0.1290  0.0347 -0.0767
10273DDP     C161633   7.827  15.454  23.956 -0.1254 -0.3191 -0.0718
10273DDP     P161634   7.902  15.318  23.516 -0.0662 -0.0843 -0.4065
10273DDP     P261635   7.525  15.707  23.971  0.2121  0.3247 -0.4026
10273DDP     C261636   7.105  15.966  23.988  0.0598 -0.2735  0.2491
10273DDP     C361637   7.830  15.371  23.128 -0.0300 -0.0659 -0.0683
10273DDP     C461638   8.204  15.611  24.129  0.0605  0.2185 -0.2363
10274DDP     C161639   9.793   5.145  21.809 -0.0179 -0.2490  0.0130
10274DDP     P161640   9.959   5.251  21.393 -0.1505 -0.0087  0.0801
10274DDP     P261641   9.960   5.321  22.170  0.0048  0.1349  0.0748
10274DDP     C261642  10.236   5.123  22.556 -0.0394  0.0629  0.1838
10274DDP     C361643  10.159   4.874  21.197  0.4787  0.4579  0.1407
10274DDP     C461644   9.372   4.921  21.957  0.1347  0.0014 -0.1019
10275DDP     C161645  14.153  29.486   9.788 -0.2018 -0.0541 -0.0511
10275DDP     P161646  13.853  29.596   9.966  0.0011  0.0383 -0.2604
10275DDP     P261647  14.370  29.084   9.960 -0.0256 -0.3044  0.0141
10275DDP     C261648  14.662  28.741   9.969  0.5927 -0.2220  0.1448
10275DDP     C361649  13.480  29.826  10.101 -0.0066  0.0018 -0.0345
10275DDP     C461650  14.366  29.725   9.524 -0.0845  0.0289 -0.0292
10276DDP     C161651  22.864  13.806  11.674  0.1070 -0.0122 -0.1950
10276DDP     P161652  23.046  13.448  11.497  0.0272  0.1796  0.1226
10276DDP     P261653  23.154  14.214  11.592  0.3482 -0.0810  0.1273
10276DDP     C261654  23.579  14.346  11.422  0.0685 -0.1578  0.1160
10276DDP     C361655  22.979  13.034  11.260 -0.1640  0.1960  0.0798
10276DDP     C461656  22.470  13.729  11.740 -0.0232  0.2546  0.2530
10277DDP     C161657  14.443  15.040   4.644  0.0968  0.0183 -0.3332
10277DDP     P161658  14.081  14.901   4.593 -0.2153 -0.3021  0.3826
10277DDP     P261659  14.463  15.449   4.915  0.1570 -0.2899  0.1361
10277DDP     C261660  14.501  15.666   5.340  0.1370 -0.2741 -0.0475
10277DDP     C361661  13.913  14.701   4.279 -0.1722 -0.0821 -0.0519
10277DDP     C461662  14.712  15.023   4.272  0.0467 -0.0440  0.2853
10278DDP     C161663  21.700   1.412  28.709 -0.4406  0.0247 -0.0841
10278DDP     P161664  21.390   1.675  28.810  0.1410 -0.0050  0.3163
10278DDP     P261665  22.161   1.534  28.830 -0.0464 -0.1115  0.1172
10278DDP     C261666  22.688   1.330  28.780  0.1321 -0.0258 -0.0195
10278DDP     C361667  20.957   1.829  28.835  0.0036  0.2154 -0.0672
10278DDP     C461668  21.478   1.012  28.643  0.0190 -0.0694  0.0343
10279DDP     C161669  13.361   4.408  27.569 -0.2160  0.1761 -0.0648
10279DDP     P161670  13.157   4.595  27.227  0.2421 -0.1294  0.2897
10279DDP     P261671  13.444   3.914  27.396 -0.0619  0.3511  0.1675
10279DDP     C261672  13.548   3.743  26.931  0.1401 -0.0388  0.1636
10279DDP     C361673  13.150   5.019  27.039 -0.0312 -0.2719 -0.0904
10279DDP     C461674  13.602   4.580  27.861  0.1257 -0.0088 -0.0244
10280DDP     C161675   5.119  16.531   1.034 -0.2101 -0.1750  0.0804
10280DDP     P161676   4.766  16.228   1.201 -0.2958 -0.1076  0.2752
10280DDP     P261677   4.938  16.628   0.729 -0.0453 -0.1195 -0.2024
10280DDP     C261678   4.734  16.647   0.290  0.2911  0.0859 -0.2485
10280DDP     C361679   4.578  16.149   1.622  0.2771  0.2445  0.1406
10280DDP     C461680   5.568  16.843   0.970  0.1197  0.0933  0.0458
10281DDP     C161681  26.906  20.075  29.446 -0.3310 -0.1929 -0.2283
10281DDP     P161682  27.010  19.716  29.661  0.3697 -0.0996 -0.1512
10281DDP     P261683  27.098  20.122  28.960 -0.2205 -0.1120 -0.0776
10281DDP     C261684  27.209  20.237  28.594  0.0294  0.2337  0.1300
10281DDP     C361685  27.344  19.482  29.688 -0.1385  0.0733  0.0085
10281DDP     C461686  26.899  20.315  29.743 -0.2002  0.1823 -0.2655
10282DDP     C161687  15.307   1.207  14.433  0.2918 -0.0618 -0.0284
10282DDP     P161688  15.662   1.219  14.632  0.0007  0.1724  0.2230
10282DDP     P261689  15.086   1.454  14.137 -0.0100  0.0060  0.1194
10282DDP     C261690  14.976   1.501  13.699 -0.0875  0.0148 -0.0131
10282DDP     C361691  16.042   1.385  14.868  0.4345 -0.0545 -0.0317
10282DDP     C461692  14.947   1.044  14.680 -0.1631 -0.2401 -0.0933
10283DDP     C161693  20.099  23.259   7.856  0.0142  0.2401 -0.0845
10283DDP     P161694  20.185  23.120   7.456  0.1839  0.4831  0.4507
10283DDP     P261695  19.670  23.076   8.044 -0.2932 -0.0195  0.3193
10283DDP     C261696  19.231  22.938   8.041 -0.0929  0.2014 -0.3669
10283DDP     C361697  20.150  22.876   7.065 -0.1554 -0.1689 -0.1141
10283DDP     C461698  20.179  23.666   8.015  0.2036 -0.1299 -0.2257
10284DDP     C161699  30.161  24.863   2.820 -0.3565 -0.0222 -0.1254
10284DDP     P161700   0.103  25.139   3.039 -0.0140  0.2195 -0.2660
10284DDP     P261701  29.708  24.881   2.892 -0.2125  0.0059 -0.0356
10284DDP     C261702  29.326  24.552   2.899 -0.0979  0.1471  0.3626
10284DDP     C361703   0.235  25.424   3.389  0.1746  0.1901  0.0309
10284DDP     C461704  30.270  24.693   2.492  0.0016 -0.2054  0.0524
10285DDP     C161705  10.652  19.794  24.470 -0.0341  0.1054 -0.1781
10285DDP     P161706  10.402  20.154  24.352 -0.1654 -0.2066 -0.1126
10285DDP     P261707  10.896  19.492  24.141  0.0958  0.0311  0.0784
10285DDP     C261708  11.046  19.293  23.837 -0.0441  0.0899 -0.0202
10285DDP     C361709  10.250  20.516  24.256 -0.1219  0.3451  0.0621
10285DDP     C461710  10.913  19.736  24.757 -0.0597  0.1703 -0.1448
10286DDP     C161711   3.026  19.897  25.630  0.2026  0.1888 -0.0206
10286DDP     P161712   3.395  20.067  25.859  0.1247  0.1145  0.0048
10286DDP     P261713   3.229  19.636  25.330 -0.5004  0.0323 -0.0104
10286DDP     C261714   3.016  19.276  24.972 -0.0801  0.1525 -0.0110
10286DDP     C361715   3.704  20.054  26.194  0.1299  0.2925 -0.0165
10286DDP     C461716   2.613  20.045  25.533  0.2041  0.1403  0.0970
10287DDP     C161717  27.602  21.984   8.875  0.3035 -0.2014 -0.0217
10287DDP     P161718  27.873  22.304   8.896 -0.3059 -0.1422 -0.2344
10287DDP     P261719  27.295  22.212   8.942  0.1312  0.1882  0.0125
10287DDP     C261720  27.019  22.066   9.166  0.3687 -0.1247  0.1550
10287DDP     C361721  28.263  22.498   8.742  0.3572  0.0283  0.1870
10287DDP     C461722  27.526  21.527   8.734 -0.3430  0.0827  0.0155
10288DDP     C161723   6.042   8.313  14.409  0.1208 -0.0462 -0.2024
10288DDP     P161724   5.601   8.274  14.683  0.1322  0.0614  0.3529
10288DDP     P261725   6.190   7.918  14.478 -0.0470  0.2687  0.0342
10288DDP     C261726   6.346   7.477  14.507  0.1524 -0.0134  0.1364
10288DDP     C361727   5.147   8.164  14.798 -0.0603  0.1426 -0.3963
10288DDP     C461728   6.343   8.686  14.367 -0.0985  0.1695  0.0708
10289DDP     C161729  26.093  17.999  15.306  0.3945  0.1199  0.3565
10289DDP     P161730  26.299  17.796  15.683 -0.0887 -0.0861  0.0223
10289DDP     P261731  26.303  18.209  15.008  0.0488 -0.0938  0.1028
10289DDP     C261732  26.335  18.217  14.576 -0.0962 -0.1779  0.0081
10289DDP     C361733  26.599  17.490  15.782 -0.0821  0.2910  0.2138
10289DDP     C461734  25.733  18.020  15.271  0.0048 -0.0234  0.4189
10290DDP     C161735  22.404  12.762   0.255 -0.0146  0.0925 -0.3199
10290DDP     P161736  22.372  12.672  30.200 -0.2441  0.2730 -0.0526
10290DDP     P261737  22.576  12.464   0.489  0.0371 -0.1578 -0.0139
10290DDP     C261738  22.767  12.171   0.669  0.2308 -0.0622 -0.2713
10290DDP     C361739  22.424  12.612  29.737  0.1816 -0.0601  0.0780
10290DDP     C461740  22.330  13.190   0.345  0.0862  0.0537 -0.1928
10291DDP     C161741   6.180  25.533   2.434  0.3162 -0.0250  0.0842
10291DDP     P161742   6.360  25.945   2.626  0.1327 -0.0290 -0.0473
10291DDP     P261743   5.699  25.617   2.389 -0.0531  0.0054 -0.2129
10291DDP     C261744   5.366  25.797   2.395 -0.4583 -0.1338 -0.0824
10291DDP     C361745   6.179  26.389   2.618 -0.1446  0.1924  0.1348
10291DDP     C461746   6.210  25.096   2.252 -0.0962 -0.1046  0.1187
10292DDP     C161747  25.068   9.904   8.254 -0.0224  0.0054  0.2587
10292DDP     P161748  24.744  10.026   7.946 -0.2957  0.1033  0.1204
10292DDP     P261749  24.846   9.964   8.627  0.0368 -0.1474 -0.0473
10292DDP     C261750  24.432  10.001   8.766  0.0914  0.1895 -0.2745
10292DDP     C361751  24.650  10.417   7.745  0.1188 -0.1987  0.0585
10292DDP     C461752  25.499   9.834   8.110 -0.1725  0.3911 -0.0660
10293DDP     C161753  19.157   8.367  28.550 -0.1858  0.1215  0.2969
10293DDP     P161754  18.909   8.319  28.174  0.4919 -0.1345 -0.1498
10293DDP     P261755  19.548   8.410  28.481 -0.0683  0.1700  0.1587
10293DDP     C261756  20.041   8.437  28.321 -0.0461  0.1214  0.3263
10293DDP     C361757  18.624   8.377  27.798  0.0446 -0.2760 -0.1757
10293DDP     C461758  19.075   8.546  28.912 -0.0602  0.1028  0.0659
10294DDP     C161759  28.472  21.990   6.645 -0.2246  0.1169  0.0643
10294DDP     P161760  28.425  22.370   6.800 -0.2386 -0.0810  0.1194
10294DDP     P261761  28.135  21.771   6.246 -0.0168 -0.1964  0.0290
10294DDP     C261762  27.743  21.686   6.091 -0.5211 -0.0864  0.0051
10294DDP     C361763  28.383  22.588   7.242  0.1211  0.0198 -0.0725
10294DDP     C461764  28.710  21.764   7.005  0.1298  0.0026 -0.1409
10295DDP     C161765  23.142   5.256   6.371  0.2354 -0.0782 -0.0068
10295DDP     P161766  23.061   5.620   6.258 -0.1129 -0.2955 -0.4324
10295DDP     P261767  23.553   5.226   6.589  0.6039 -0.0341 -0.3118
10295DDP     C261768  23.769   5.308   6.889 -0.0670  0.1022  0.3789
10295DDP     C361769  22.928   6.026   6.269  0.1233 -0.2787  0.3044
10295DDP     C461770  22.783   4.956   6.262 -0.3982 -0.0242  0.1441
10296DDP     C161771   7.690  18.601  18.428 -0.0376  0.1340 -0.2913
10296DDP     P161772   8.070  18.670  18.744 -0.0021  0.0787  0.0744
10296DDP     P261773   7.359  18.775  18.692 -0.1287  0.0312  0.0450
10296DDP     C261774   6.947  18.796  19.010 -0.0884  0.0999 -0.1400
10296DDP     C361775   8.262  18.643  19.181 -0.0579  0.3594  0.2374
10296DDP     C461776   7.604  18.203  18.108 -0.0566  0.0074 -0.1232
10297DDP     C161777  10.025  22.542  30.149  0.0071  0.0798  0.0983
10297DDP     P161778  10.078  22.960  30.270 -0.0515 -0.0639  0.0253
10297DDP     P261779  10.413  22.439  30.020  0.0786 -0.3412 -0.0740
10297DDP     C261780  10.664  22.064  29.987 -0.2038  0.1504  0.2803
10297DDP     C361781  10.377  23.256   0.084 -0.1168 -0.2112 -0.2533
10297DDP     C461782   9.651  22.281  30.085 -0.3307  0.5299 -0.0914
10298DDP     C161783  23.731  28.047  25.921  0.0150  0.1125 -0.0920
10298DDP     P161784  23.788  27.704  25.556 -0.0042 -0.1556 -0.1984
10298DDP     P261785  23.292  28.084  26.164  0.0127 -0.1306 -0.0189
10298DDP     C261786  22.903  27.824  26.174 -0.3047 -0.2000  0.1750
10298DDP     C361787  23.624  27.376  25.448 -0.3013 -0.1703 -0.0594
10298DDP     C461788  24.095  28.452  25.996 -0.3738  0.1558  0.2274
10299DDP     C161789   0.769  21.962  22.096  0.1310 -0.3144 -0.2712
10299DDP     P161790   0.976  21.663  22.068  0.2579  0.1987  0.0713
10299DDP     P261791   0.379  22.090  22.248 -0.1088 -0.1105  0.0819
10299DDP     C261792  30.250  22.150  22.131  0.3136  0.1173  0.0448
10299DDP     C361793   1.183  21.242  22.193 -0.0416 -0.0827 -0.0378
10299DDP     C461794   1.042  22.224  21.958 -0.0218  0.0812 -0.3950
10300DDP     C161795  25.687   0.972  12.709 -0.0821  0.1948 -0.0235
10300DDP     P161796  25.352   1.280  12.947  0.0345  0.1414 -0.0555
10300DDP     P261797  25.470   0.701  12.457  0.1629 -0.0535 -0.0200
10300DDP     C261798  25.156   0.343  12.350 -0.2325 -0.0905 -0.2778
10300DDP     C361799  25.060   1.517  13.203  0.2009 -0.1500  0.0011
10300DDP     C461800  26.112   1.079  12.797 -0.2017  0.1747 -0.0113
10301DDP     C161801  29.210  10.999  17.610  0.1578 -0.0218 -0.1458
10301DDP     P161802  29.270  10.604  17.300 -0.2702 -0.1538 -0.0329
10301DDP     P261803  29.063  10.936  17.966  0.0722 -0.0058 -0.0739
10301DDP     C261804  28.676  11.173  18.112  0.2515 -0.1329  0.2316
10301DDP     C361805  29.335  10.159  17.271 -0.3466 -0.0352 -0.2851
10301DDP     C461806  29.238  11.492  17.424  0.2705  0.1172  0.0592
10302DDP     C161807  15.529  22.435   9.331 -0.0059 -0.2191  0.3653
10302DDP     P161808  15.598  22.056   9.292 -0.0193 -0.2176  0.2778
10302DDP     P261809  15.895  22.686   9.144  0.1976  0.3077 -0.3387
10302DDP     C261810  15.814  22.884   8.719 -0.1399 -0.2533  0.0887
10302DDP     C361811  15.738  21.911   9.664 -0.1204 -0.0331 -0.0220
10302DDP     C461812  15.226  22.579   9.615  0.1882  0.4182 -0.0771
10303DDP     C161813   4.224  17.830   1.672  0.2805 -0.0364 -0.2687
10303DDP     P161814   4.066  18.258   1.537 -0.1024  0.0533  0.0299
10303DDP     P261815   4.492  17.640   1.311 -0.0672 -0.0456  0.2319
10303DDP     C261816   4.795  17.420   1.012 -0.0991  0.0120  0.3447
10303DDP     C361817   4.250  18.687   1.507  0.0546  0.0267  0.0384
10303DDP     C461818   4.317  17.837   2.035 -0.0892 -0.0156 -0.0816
10304DDP     C161819  11.478   5.052   6.298 -0.2616 -0.0738 -0.0827
10304DDP     P161820  11.577   5.156   6.682 -0.1302 -0.0179  0.1614
10304DDP     P261821  11.526   4.739   5.966  0.1490 -0.1983 -0.1591
10304DDP     C261822  11.812   4.472   5.867 -0.0655  0.0075 -0.0743
10304DDP     C361823  11.897   5.349   6.917  0.0173 -0.2073  0.0728
10304DDP     C461824  11.201   5.401   6.066 -0.1712  0.1121 -0.0534
10305DDP     C161825  28.281   5.489  18.493 -0.1512 -0.1789  0.0444
10305DDP     P161826  28.346   5.906  18.749  0.2470 -0.2879  0.2040
10305DDP     P261827  28.178   5.471  18.198 -0.1807 -0.3719 -0.0098
10305DDP     C261828  28.310   5.480  17.743  0.3507  0.1043 -0.1001
10305DDP     C361829  28.638   6.295  18.660 -0.0302 -0.0601  0.1673
10305DDP     C461830  28.684   5.367  18.594  0.2229 -0.1050 -0.1103
10306DDP     C161831  17.342   0.900   7.738 -0.0991  0.2161  0.1679
10306DDP     P161832  16.966   0.644   7.885  0.0354  0.0392  0.1222
10306DDP     P261833  17.637   0.674   7.500 -0.1834 -0.0272  0.0078
10306DDP     C261834  17.847   0.436   7.174  0.2155  0.1060  0.1147
10306DDP     C361835  16.784   0.492   8.299 -0.0749 -0.1305  0.2106
10306DDP     C461836  17.523   1.315   7.949 -0.1029  0.2947  0.2073
10307DDP     C161837  16.202   9.708  26.767 -0.2126 -0.0461 -0.1344
10307DDP     P161838  16.681   9.801  26.719 -0.0518  0.1433 -0.0915
10307DDP     P261839  16.156   9.740  27.160  0.0673 -0.1202  0.0541
10307DDP     C261840  16.365   9.996  27.483  0.0217  0.3885 -0.0178
10307DDP     C361841  16.861  10.101  26.502 -0.1483  0.0058  0.1844
10307DDP     C461842  16.010   9.654  26.290  0.1253  0.1112  0.0841
10308DDP     C161843   1.176  29.391  12.028 -0.0644 -0.4322 -0.0892
10308DDP     P161844   1.063  29.196  12.469 -0.0521  0.1687  0.1529
10308DDP     P261845   1.342  29.772  12.113 -0.3520 -0.0574  0.1375
10308DDP     C261846   1.648  30.150  12.034 -0.0614  0.0331  0.2278
10308DDP     C361847   1.106  28.853  12.652  0.2361  0.0480  0.2381
10308DDP     C461848   1.046  29.266  11.574 -0.0845 -0.0434 -0.3026
10309DDP     C161849   4.710   7.708  25.523 -0.1364 -0.0899 -0.1085
10309DDP     P161850   4.969   7.600  25.754 -0.1358 -0.1175  0.1342
10309DDP     P261851   4.714   8.158  25.224 -0.0550 -0.0440 -0.1744
10309DDP     C261852   4.298   8.357  25.242 -0.2967  0.1314  0.3038
10309DDP     C361853   5.138   7.491  26.116 -0.2137 -0.0056 -0.2504
10309DDP     C461854   4.448   7.412  25.602 -0.1119 -0.1638  0.0677
10310DDP     C161855   9.980  30.142   8.143 -0.0627  0.0100 -0.0622
10310DDP     P161856  10.018   0.226   8.260  0.1586 -0.1519  0.0681
10310DDP     P261857   9.766  29.993   8.489 -0.1400  0.2468  0.1773
10310DDP     C261858   9.275  29.979   8.621 -0.0788  0.2136 -0.1112
10310DDP     C361859   9.751   0.531   8.537  0.1141 -0.1532  0.1372
10310DDP     C461860  10.222  29.847   7.848 -0.4017 -0.1020 -0.1615
10311DDP     C161861  17.425  26.034  16.119  0.0209  0.0365  0.1644
10311DDP     P161862  17.117  25.754  16.255  0.3109 -0.2574 -0.1169
10311DDP     P261863  17.564  26.342  15.805  0.1151 -0.1867 -0.1030
10311DDP     C261864  17.512  26.327  15.296  0.0007 -0.1391 -0.1137
10311DDP     C361865  16.947  25.451  16.453 -0.2347 -0.0454  0.3568
10311DDP     C461866  17.818  26.101  16.387  0.0629 -0.0942 -0.0832
10312DDP     C161867  15.707   1.723  23.008  0.0363  0.1526 -0.2492
10312DDP     P161868  16.044   1.855  23.342 -0.3368 -0.0225 -0.1617
10312DDP     P261869  15.889   1.421  22.801 -0.1269  0.3102 -0.3669
10312DDP     C261870  15.852   1.068  22.479 -0.0341  0.2258 -0.1642
10312DDP     C361871  16.279   2.149  23.593  0.4220 -0.0135  0.3844
10312DDP     C461872  15.336   1.923  22.985 -0.0149 -0.2257 -0.4383
10313DDP     C161873   1.244  26.655  20.781  0.0843 -0.1083 -0.0617
10313DDP     P161874   1.204  26.237  20.469 -0.0365  0.1297 -0.2919
10313DDP     P261875   1.524  26.866  20.687 -0.0183  0.1890  0.1889
10313DDP     C261876   1.802  26.898  20.460  0.3384  0.1414 -0.1766
10313DDP     C361877   1.090  25.746  20.411 -0.0088  0.1509 -0.0660
10313DDP     C461878   1.076  26.506  21.131 -0.3297  0.1171  0.0608
10314DDP     C161879  13.390  24.362  12.196 -0.0116 -0.0324 -0.0622
10314DDP     P161880  13.317  24.799  12.157 -0.0248  0.0073 -0.1994
10314DDP     P261881  13.118  24.153  12.553  0.0953 -0.2210  0.0729
10314DDP     C261882  13.001  24.097  13.045  0.1323 -0.1821 -0.1629
10314DDP     C361883  13.551  25.134  12.472 -0.1854  0.3252 -0.4155
10314DDP     C461884  13.688  24.252  11.893 -0.0411 -0.0915 -0.1959
10315DDP     C161885  19.264  19.107  10.746 -0.0069  0.0355  0.1323
10315DDP     P161886  19.090  19.087  11.156 -0.1455  0.1520  0.0833
10315DDP     P261887  19.723  19.205  10.686  0.0437  0.2849  0.0555
10315DDP     C261888  20.087  19.432  10.885  0.0586  0.0852 -0.2689
10315DDP     C361889  18.588  19.004  11.169 -0.2220 -0.2464  0.1389
10315DDP     C461890  19.178  18.745  10.539 -0.0624  0.0040 -0.2313
10316DDP     C161891  18.091  10.490   6.579  0.1336  0.1486 -0.1055
10316DDP     P161892  18.356  10.664   6.358 -0.2829  0.3994  0.1634
10316DDP     P261893  17.974  10.105   6.276 -0.0894 -0.2764  0.1175
10316DDP     C261894  17.947   9.834   5.841  0.3017  0.0283  0.1025
10316DDP     C361895  18.653  10.647   6.135  0.1092 -0.3332  0.3173
10316DDP     C461896  18.017  10.828   6.848  0.1186 -0.1625 -0.3540
10317DDP     C161897  15.725   1.456  26.192 -0.0259 -0.2592 -0.0425
10317DDP     P161898  16.082   1.503  26.434 -0.1591  0.1954 -0.0315
10317DDP     P261899  15.338   1.746  26.112 -0.1806 -0.0877 -0.1154
10317DDP     C261900  15.154   2.028  25.773 -0.3176  0.2258 -0.2325
10317DDP     C361901  16.367   1.793  26.667  0.1255  0.0976 -0.0252
10317DDP     C461902  15.416   1.062  26.113  0.1436 -0.0719 -0.0022
10318DDP     C161903  11.242   3.679  18.909  0.3545  0.5969 -0.1220
10318DDP     P161904  11.055   3.846  18.649  0.2283  0.1308  0.1774
10318DDP     P261905  11.086   3.714  19.362  0.1180  0.0847 -0.1720
10318DDP     C261906  10.831   3.828  19.743  0.0009  0.0620 -0.4504
10318DDP     C361907  10.866   4.061  18.342 -0.3408 -0.1733  0.1460
10318DDP     C461908  11.562   3.303  18.950  0.3081  0.0556 -0.3847
10319DDP     C161909  23.761  15.363   7.056 -0.0948 -0.1307 -0.0741
10319DDP     P161910  24.056  15.505   7.293  0.1765 -0.1236 -0.1784
10319DDP     P261911  23.768  15.026   6.890 -0.0056 -0.3479 -0.2185
10319DDP     C261912  23.933  14.832   6.470 -0.1864 -0.1724 -0.0423
10319DDP     C361913  24.503  15.437   7.150 -0.0321  0.1350 -0.0127
10319DDP     C461914  23.407  15.676   6.924  0.0140  0.1172 -0.1237
10320DDP     C161915  12.852  16.133  20.404 -0.1937 -0.0804  0.0298
10320DDP     P161916  13.132  15.771  20.597  0.0560 -0.0435  0.2058
10320DDP     P261917  13.023  16.062  20.122  0.1087  0.1665 -0.0116
10320DDP     C261918  13.246  15.911  19.737  0.4066  0.1190  0.0785
10320DDP     C361919  13.465  15.606  20.783  0.0079  0.0131 -0.0021
10320DDP     C461920  12.483  16.346  20.527 -0.0034  0.2025 -0.1195
10321DDP     C161921  23.847  15.838  23.784  0.1651 -0.2092 -0.0928
10321DDP     P161922  23.796  15.385  23.506 -0.0706  0.0689 -0.2440
10321DDP     P261923  23.709  15.776  24.141 -0.0732  0.0292 -0.2512
10321DDP     C261924  23.585  15.302  24.251  0.0168 -0.0819 -0.0154
10321DDP     C361925  23.730  15.020  23.710 -0.3977  0.1556 -0.2237
10321DDP     C461926  23.906  16.250  23.834 -0.1265  0.0061  0.1235
10322DDP     C161927   4.953  15.343  23.655  0.0089  0.1401 -0.1530
10322DDP     P161928   4.753  15.706  23.514  0.2297  0.0591 -0.1822
10322DDP     P261929   4.876  15.214  24.082  0.0823 -0.0883 -0.0736
10322DDP     C261930   4.559  15.082  24.391  0.2588  0.1400 -0.2399
10322DDP     C361931   4.869  16.050  23.343 -0.1200  0.0307 -0.1728
10322DDP     C461932   5.373  15.213  23.361  0.0875 -0.0848  0.1956
10323DDP     C161933  23.265   4.970  27.696  0.1110  0.1733  0.1970
10323DDP     P161934  22.912   4.752  27.556  0.1031  0.0362  0.0306
10323DDP     P261935  23.280   5.333  27.437 -0.0465  0.0343  0.4222
10323DDP     C261936  23.483   5.561  27.029 -0.0681 -0.1690  0.0373
10323DDP     C361937  22.677   4.389  27.537  0.0424  0.0708  0.2066
10323DDP     C461938  23.498   4.771  28.027 -0.2121 -0.1429  0.2556
10324DDP     C161939  23.543  22.822   0.443  0.4646  0.0987 -0.1543
10324DDP     P161940  23.459  22.909  -0.006  0.0080  0.0014 -0.3579
10324DDP     P261941  23.678  23.132   0.489 -0.1971  0.0088 -0.2052
10324DDP     C261942  23.500  23.381   0.754  0.1040 -0.0520  0.0796
10324DDP     C361943  23.486  23.271  30.041  0.2479 -0.2296  0.1977
10324DDP     C461944  23.360  22.464   0.757 -0.0997 -0.0830  0.1439
10325DDP     C161945   6.743   6.692   8.208  0.0266 -0.1614 -0.1981
10325DDP     P161946   7.127   6.462   8.248  0.0510  0.2230  0.0878
10325DDP     P261947   6.650   7.172   8.147  0.1440  0.1900  0.1822
10325DDP     C261948   6.887   7.534   8.441 -0.1868  0.2274  0.1602
10325DDP     C361949   7.455   6.319   8.625 -0.0811  0.1053 -0.0639
10325DDP     C461950   6.433   6.446   8.130  0.0825 -0.0821 -0.1357
10326DDP     C161951   6.415  24.370  12.489 -0.0586 -0.0442 -0.0135
10326DDP     P161952   6.444  24.418  12.064 -0.0758  0.0194 -0.0346
10326DDP     P261953   6.175  24.388  12.884  0.2690 -0.0938 -0.0670
10326DDP     C261954   5.745  24.116  13.048 -0.2753 -0.1453  0.1104
10326DDP     C361955   6.226  24.540  11.632 -0.0064 -0.1268  0.0738
10326DDP     C461956   6.809  24.096  12.639  0.2641  0.2019 -0.1489
10327DDP     C161957   1.179  11.231  11.742  0.0333 -0.1506 -0.1091
10327DDP     P161958   1.462  11.199  11.585 -0.0652 -0.1153 -0.0349
10327DDP     P261959   0.977  10.754  11.586 -0.0216  0.0746 -0.3181
10327DDP     C261960   0.840  10.398  11.694 -0.0036 -0.0720  0.2508
10327DDP     C361961   1.794  11.241  11.463  0.2704 -0.0985 -0.1813
10327DDP     C461962   1.113  11.726  11.766  0.0244  0.0133 -0.3021
10328DDP     C161963   8.633   9.067  27.715 -0.2918 -0.0583 -0.2246
10328DDP     P161964   8.639   9.468  27.779  0.4025 -0.0617  0.0950
10328DDP     P261965   8.493   8.662  27.528 -0.2665  0.1376  0.1310
10328DDP     C261966   8.576   8.308  27.204  0.0165  0.2197  0.0197
10328DDP     C361967   9.041   9.737  27.892  0.0197  0.0534 -0.1640
10328DDP     C461968   9.058   9.160  27.851  0.2529  0.3201 -0.3427
10329DDP     C161969  23.291   3.212  20.560 -0.2085 -0.1404 -0.0383
10329DDP     P161970  23.379   2.845  20.754 -0.0353 -0.0692  0.2069
10329DDP     P261971  23.321   3.286  20.130 -0.0767  0.0427 -0.0436
10329DDP     C261972  23.508   2.958  19.757 -0.1003 -0.4319 -0.1882
10329DDP     C361973  23.160   2.507  20.729  0.2611 -0.1266  0.1388
10329DDP     C461974  23.158   3.493  20.902  0.0634 -0.5459 -0.3561
10330DDP     C161975  20.165  20.396  26.743  0.0039 -0.2840  0.0334
10330DDP     P161976  20.480  20.672  27.063 -0.1296 -0.1276 -0.2458
10330DDP     P261977  20.098  20.493  26.303  0.1358  0.2100  0.0313
10330DDP     C261978  19.816  20.836  26.058 -0.1400 -0.0620 -0.1247
10330DDP     C361979  20.783  20.785  27.384  0.1843  0.1482 -0.1390
10330DDP     C461980  19.871  20.162  27.026  0.0084  0.1313  0.0829
10331DDP     C161981   0.216  20.686   4.744  0.1830  0.0983 -0.1775
10331DDP     P161982   0.458  20.430   4.910 -0.2230 -0.0224  0.1818
10331DDP     P261983  30.338  20.925   5.072  0.2062  0.2560  0.0505
10331DDP     C261984  29.857  21.045   5.231  0.2717  0.3260 -0.0973
10331DDP     C361985   0.580  20.045   5.051  0.2842 -0.0245 -0.1900
10331DDP     C461986   0.356  20.792   4.371  0.0424 -0.0284 -0.0708
10332DDP     C161987  14.266  26.008  18.953 -0.0981 -0.3030 -0.2970
10332DDP     P161988  14.361  26.130  18.545 -0.0235 -0.1344  0.0300
10332DDP     P261989  14.104  25.630  18.904  0.2337 -0.0537  0.1897
10332DDP     C261990  14.164  25.199  18.959 -0.3188  0.1651  0.0057
10332DDP     C361991  14.330  26.097  18.168  0.0306  0.1602  0.0894
10332DDP     C461992  14.243  26.143  19.353 -0.2683 -0.3830  0.3422
10333DDP     C161993   6.662   8.168   7.427  0.3815  0.1527  0.2647
10333DDP     P161994   6.633   7.991   7.081 -0.2240  0.0835  0.0292
10333DDP     P261995   6.520   7.898   7.758 -0.0132 -0.2132  0.1379
10333DDP     C261996   6.476   7.752   8.175  0.0170 -0.0408  0.1299
10333DDP     C361997   6.698   7.911   6.634 -0.0663  0.1313  0.0321
10333DDP     C461998   6.773   8.510   7.372 -0.1830  0.0042 -0.1678
10334DDP     C161999  14.237   2.102  12.178 -0.1517  0.0442  0.3486
10334DDP     P162000  14.272   2.526  12.338  0.3421 -0.1716  0.1396
10334DDP     P262001  13.903   1.857  12.049 -0.0264 -0.0170 -0.1718
10334DDP     C262002  13.694   1.633  12.320 -0.1178 -0.1836  0.3556
10334DDP     C362003  14.566   2.860  12.494 -0.2372  0.1101 -0.0760
10334DDP     C462004  14.535   1.769  12.176  0.2057 -0.3609  0.0794
10335DDP     C162005  21.131  26.443   5.904 -0.2120  0.1650 -0.1344
10335DDP     P162006  20.927  26.211   5.633  0.0255 -0.0062  0.3508
10335DDP     P262007  21.508  26.641   5.765 -0.1562  0.0378  0.0713
10335DDP     C262008  21.854  26.604   5.479  0.2427  0.0852  0.0470
10335DDP     C362009  20.560  26.325   5.364 -0.1179 -0.1860  0.1655
10335DDP     C462010  20.910  26.584   6.338  0.1679  0.1524  0.4071
10336DDP     C162011   7.357   4.590   3.616  0.3892 -0.1347  0.1924
10336DDP     P162012   7.544   4.439   4.068 -0.1157 -0.1931 -0.1833
10336DDP     P262013   6.932   4.517   3.724  0.1268  0.1735 -0.2689
10336DDP     C262014   6.462   4.697   3.703 -0.1051 -0.0528 -0.2363
10336DDP     C362015   7.867   4.303   4.296 -0.0560 -0.0994 -0.0207
10336DDP     C462016   7.459   4.901   3.357 -0.2654 -0.1390 -0.0421
10337DDP     C162017   8.206   3.711  13.116 -0.0652  0.1569  0.0584
10337DDP     P162018   8.051   3.925  13.298  0.3154 -0.0244 -0.2017
10337DDP     P262019   8.203   3.219  13.323  0.1590 -0.3635 -0.1955
10337DDP     C262020   7.831   2.919  13.134  0.2149  0.0515  0.1283
10337DDP     C362021   7.702   3.804  13.560  0.1141 -0.1371  0.4869
10337DDP     C462022   8.553   3.824  12.915  0.3494  0.3870  0.0335
10338DDP     C162023  26.069  12.820  11.794  0.0262  0.0938 -0.2053
10338DDP     P162024  26.117  12.523  11.501  0.1973 -0.0897  0.1255
10338DDP     P262025  26.024  13.203  11.724  0.1588 -0.0358 -0.3217
10338DDP     C262026  25.917  13.486  12.066  0.0855  0.1481  0.3016
10338DDP     C362027  26.043  12.483  11.074 -0.0903  0.3431  0.0433
10338DDP     C462028  25.856  12.799  12.146 -0.2223  0.1588  0.2122
10339DDP     C162029  10.979  16.908   8.055  0.1431  0.3271 -0.1352
10339DDP     P162030  11.232  17.192   7.702 -0.1372  0.2386 -0.0246
10339DDP     P262031  11.117  16.856   8.492  0.0872 -0.0549  0.0601
10339DDP     C262032  11.378  16.736   8.911  0.0743 -0.1977  0.0049
10339DDP     C362033  11.527  17.537   7.454 -0.2501  0.2207  0.0259
10339DDP     C462034  10.513  17.084   7.922 -0.0872  0.1364 -0.1564
10340DDP     C162035  14.497  29.698  17.119  0.0092  0.1060 -0.0515
10340DDP     P162036  14.484  29.534  16.748 -0.4340 -0.0178  0.1962
10340DDP     P262037  14.447  30.106  17.193  0.0261 -0.1268  0.1713
10340DDP     C262038  14.661   0.228  17.309  0.0957  0.3462 -0.0895
10340DDP     C362039  14.895  29.284  16.503 -0.2887  0.0035  0.0536
10340DDP     C462040  14.602  29.455  17.395  0.1091  0.3244  0.2377
10341DDP     C162041  27.729  13.108  23.019  0.1008  0.2063 -0.1027
10341DDP     P162042  27.654  12.705  23.274  0.1733 -0.2692  0.0497
10341DDP     P262043  27.627  13.211  22.658 -0.0934 -0.0292 -0.1258
10341DDP     C262044  27.874  13.313  22.332 -0.3025 -0.0700 -0.1163
10341DDP     C362045  27.886  12.623  23.553 -0.2302  0.0048 -0.2276
10341DDP     C462046  27.627  13.513  23.249 -0.0544  0.1181 -0.2197
10342DDP     C162047   4.966  17.982   1.346  0.0368 -0.1803 -0.1000
10342DDP     P162048   5.481  18.159   1.237 -0.2727  0.2266 -0.0265
10342DDP     P262049   4.738  17.932   0.945  0.1569 -0.1454  0.2137
10342DDP     C262050   4.883  17.727   0.634  0.0918 -0.1067 -0.1088
10342DDP     C362051   5.916  18.181   1.308  0.0713 -0.0091 -0.0798
10342DDP     C462052   4.806  17.896   1.846 -0.0703  0.0165 -0.0521
10343DDP     C162053   9.593   7.334  11.796 -0.1039 -0.1446 -0.2478
10343DDP     P162054   9.193   7.196  11.744 -0.0414  0.1585  0.2384
10343DDP     P262055   9.736   6.939  11.752 -0.0978 -0.0460  0.0291
10343DDP     C262056   9.854   6.639  12.059  0.2142 -0.2549 -0.3655
10343DDP     C362057   8.872   6.928  11.540  0.1517  0.1406 -0.2584
10343DDP     C462058   9.851   7.716  11.646 -0.2654  0.1006 -0.1217
10344DDP     C162059   2.561  15.521  22.586 -0.3399 -0.0869  0.2787
10344DDP     P162060   2.530  15.883  22.328  0.0218  0.2638 -0.1376
10344DDP     P262061   2.498  15.177  22.213 -0.0280 -0.0747 -0.1155
10344DDP     C262062   2.646  15.142  21.698  0.0195 -0.3129  0.3026
10344DDP     C362063   2.735  16.295  22.230 -0.1651  0.2681  0.0180
10344DDP     C462064   2.763  15.502  22.905  0.0739  0.0998 -0.1533
10345DDP     C162065   4.468  13.805  28.340  0.1964 -0.0551 -0.1862
10345DDP     P162066   4.314  13.378  28.368  0.0959 -0.0584  0.1473
10345DDP     P262067   4.942  13.881  28.173  0.0630 -0.0466  0.1831
10345DDP     C262068   5.236  13.999  27.870  0.1629  0.0450 -0.1119
10345DDP     C362069   4.304  12.929  28.293  0.1455 -0.1009 -0.1421
10345DDP     C462070   4.192  14.197  28.531 -0.2731 -0.1251  0.0544
10346DDP     C162071   4.612   9.691  15.490  0.3097  0.3362  0.3239
10346DDP     P162072   4.663  10.152  15.734 -0.1323 -0.0457 -0.0220
10346DDP     P262073   4.234   9.617  15.358  0.1787 -0.0091 -0.3661
10346DDP     C262074   3.803   9.573  15.090 -0.0596  0.0002 -0.0256
10346DDP     C362075   4.794  10.512  15.722 -0.1276 -0.0655 -0.0003
10346DDP     C462076   4.909   9.293  15.512 -0.0055 -0.0049 -0.1239
10347DDP     C162077  16.972   4.856   7.533  0.0459  0.0021 -0.2654
10347DDP     P162078  16.811   5.015   7.813 -0.1210  0.2792 -0.2586
10347DDP     P262079  17.021   4.351   7.461 -0.4209 -0.2204  0.2246
10347DDP     C262080  17.035   3.927   7.296  0.0932 -0.0532 -0.2394
10347DDP     C362081  16.488   4.806   7.988  0.2020  0.1107  0.0306
10347DDP     C462082  17.022   5.203   7.280 -0.2391  0.0971 -0.0406
10348DDP     C162083  13.581   5.993  18.417 -0.0735 -0.1267  0.0162
10348DDP     P162084  13.381   6.372  18.251 -0.0675 -0.0581  0.1058
10348DDP     P262085  13.354   5.626  18.389 -0.0784 -0.1227  0.3411
10348DDP     C262086  13.129   5.408  18.113 -0.0853 -0.1770 -0.1635
10348DDP     C362087  13.220   6.573  17.804 -0.0023 -0.5327  0.2536
10348DDP     C462088  13.928   6.056  18.715 -0.1445  0.2015  0.1118
10349DDP     C162089  26.234  23.448  10.832 -0.0661 -0.0032 -0.0557
10349DDP     P162090  26.590  23.464  10.533 -0.1112 -0.1137  0.2611
10349DDP     P262091  26.219  23.100  11.083 -0.0421 -0.0632  0.1067
10349DDP     C262092  26.461  22.808  11.295 -0.0088  0.0088 -0.0273
10349DDP     C362093  26.893  23.600  10.257 -0.3240 -0.1798  0.1886
10349DDP     C462094  26.013  23.703  10.699  0.2240  0.1589 -0.0344
10350DDP     C162095  25.191   8.226   1.472 -0.0681  0.1548 -0.0110
10350DDP     P162096  25.087   8.662   1.627 -0.1592 -0.0056 -0.3037
10350DDP     P262097  25.591   8.221   1.426  0.0774  0.0967 -0.0223
10350DDP     C262098  25.890   8.416   1.655 -0.2149  0.0630  0.1744
10350DDP     C362099  24.834   8.775   1.969 -0.1832  0.0583 -0.1674
10350DDP     C462100  24.981   7.954   1.183  0.0651  0.0171  0.2298
10351DDP     C162101  28.227  13.819  28.446  0.0090 -0.4637  0.0817
10351DDP     P162102  28.056  14.001  28.920 -0.3482 -0.3018  0.2208
10351DDP     P262103  28.669  13.727  28.530 -0.0898  0.0307 -0.1998
10351DDP     C262104  29.083  13.905  28.726 -0.3150 -0.0003 -0.0318
10351DDP     C362105  27.695  13.935  29.203 -0.0892 -0.0073  0.0651
10351DDP     C462106  27.892  13.881  28.092  0.2273 -0.2020 -0.0669
10352DDP     C162107   3.829  27.367  27.572  0.0953  0.0356  0.3132
10352DDP     P162108   3.852  27.731  27.439  0.0227 -0.2454 -0.0854
10352DDP     P262109   3.714  26.979  27.779  0.2140  0.1912 -0.3908
10352DDP     C262110   3.957  26.541  27.900  0.2400 -0.4420  0.0277
10352DDP     C362111   3.735  28.063  27.517  0.1530 -0.3151 -0.1391
10352DDP     C462112   4.226  27.399  27.737 -0.2943 -0.2060  0.1272
10353DDP     C162113  11.160  12.343  28.223  0.4576  0.1788 -0.1069
10353DDP     P162114  11.544  12.436  28.256 -0.1254  0.2541 -0.1694
10353DDP     P262115  11.000  12.501  28.569  0.0950 -0.3438  0.3404
10353DDP     C262116  10.964  12.737  28.892 -0.1293 -0.2286  0.1880
10353DDP     C362117  11.774  12.697  28.480  0.3120  0.0718  0.2433
10353DDP     C462118  10.933  12.016  27.990  0.1879  0.1280 -0.0492
10354DDP     C162119   6.073   8.287   1.072  0.1781  0.0239 -0.0531
10354DDP     P162120   5.802   8.057   1.223  0.1998 -0.1608  0.0003
10354DDP     P262121   5.947   8.647   1.051  0.1170  0.1512 -0.1006
10354DDP     C262122   5.807   9.111   0.913  0.1859  0.1361  0.2934
10354DDP     C362123   5.574   7.935   1.592  0.3228  0.0840  0.1987
10354DDP     C462124   6.447   8.256   1.216 -0.0453 -0.1906 -0.0587
10355DDP     C162125   6.437   5.945  24.889  0.2995 -0.2597  0.0648
10355DDP     P162126   6.283   5.533  24.794 -0.1380  0.0288  0.0475
10355DDP     P262127   6.133   6.205  25.076 -0.0017  0.1236  0.3882
10355DDP     C262128   5.905   6.404  25.142 -0.1636 -0.1159 -0.3411
10355DDP     C362129   6.492   5.178  24.578 -0.0031 -0.0318  0.0090
10355DDP     C462130   6.896   5.968  25.021 -0.1938 -0.4170  0.3702
10356DDP     C162131  26.737  12.390  15.521  0.0919 -0.1867  0.0031
10356DDP     P162132  26.759  12.353  15.975 -0.0501  0.1469 -0.0739
10356DDP     P262133  26.484  12.651  15.297 -0.1338 -0.1273 -0.1765
10356DDP     C262134  26.437  12.889  14.907 -0.0563 -0.0507 -0.0800
10356DDP     C362135  26.567  12.163  16.320  0.1814 -0.1229 -0.0328
10356DDP     C462136  27.195  12.374  15.391  0.0296 -0.0144  0.0147
10357DDP     C162137  18.026  22.520  17.687  0.3542  0.2826 -0.0165
10357DDP     P162138  18.247  22.687  18.022  0.2314  0.1925 -0.0378
10357DDP     P262139  17.835  22.146  17.856  0.0692  0.1213  0.2995
10357DDP     C262140  17.640  21.772  18.006  0.0678  0.0428  0.2368
10357DDP     C362141  18.497  22.599  18.356  0.1659  0.0353 -0.1026
10357DDP     C462142  17.981  22.877  17.473  0.0692 -0.0364  0.1140
10358DDP     C162143   4.291  20.452  21.295 -0.2216 -0.1655 -0.1777
10358DDP     P162144   4.277  20.121  21.419  0.0014 -0.0301  0.1521
10358DDP     P262145   3.891  20.518  21.486  0.0040 -0.2333 -0.2007
10358DDP     C262146   3.491  20.511  21.558 -0.0410  0.0389 -0.0196
10358DDP     C362147   4.025  19.750  21.376  0.0760  0.1180  0.2566
10358DDP     C462148   4.504  20.588  20.916 -0.0328 -0.2194 -0.0675
10359DDP     C162149  10.351   7.929  28.586  0.1904 -0.0063  0.0896
10359DDP     P162150  10.606   7.901  28.195 -0.0834  0.3327  0.2614
10359DDP     P262151   9.886   7.894  28.592 -0.0766 -0.1522 -0.0073
10359DDP     C262152   9.591   7.669  28.155  0.0090  0.0219 -0.1149
10359DDP     C362153  10.965   7.678  28.113  0.1207  0.2867 -0.1195
10359DDP     C462154  10.628   7.984  29.054  0.2598 -0.3530 -0.1679
10360DDP     C162155  12.361  22.388   5.666  0.2571 -0.2839 -0.1040
10360DDP     P162156  12.258  22.760   5.439  0.0447 -0.3070  0.0715
10360DDP     P262157  12.650  22.477   5.910  0.0803 -0.1263 -0.2637
10360DDP     C262158  12.900  22.841   6.079  0.1899 -0.1649 -0.1442
10360DDP     C362159  11.867  22.890   5.411  0.1678 -0.1666  0.2547
10360DDP     C462160  12.067  22.071   5.777 -0.0802 -0.2207  0.2243
10361DDP     C162161  23.567   9.007  16.189 -0.0240 -0.2955 -0.3766
10361DDP     P162162  23.896   8.720  16.173  0.0504  0.1163  0.4340
10361DDP     P262163  23.177   9.011  16.036  0.0819 -0.0542 -0.2309
10361DDP     C262164  22.800   9.254  16.009  0.0077  0.0146 -0.1264
10361DDP     C362165  23.962   8.328  16.150  0.2709  0.2832 -0.1158
10361DDP     C462166  23.652   9.457  16.433  0.1099 -0.0278 -0.0962
10362DDP     C162167  15.752  15.980   1.488 -0.3240  0.1577 -0.4430
10362DDP     P162168  15.645  16.027   1.948 -0.0449  0.0868  0.2340
10362DDP     P262169  16.131  16.152   1.268  0.3528  0.0329 -0.1754
10362DDP     C262170  16.620  16.054   1.108 -0.0718 -0.0450  0.4776
10362DDP     C362171  15.527  16.425   2.153 -0.1418 -0.1227 -0.1795
10362DDP     C462172  15.468  15.713   1.302 -0.0384 -0.0672 -0.0644
10363DDP     C162173  19.199  12.413  15.044  0.1571 -0.0743 -0.2251
10363DDP     P162174  19.308  12.820  14.899  0.0797 -0.0155 -0.1390
10363DDP     P262175  18.812  12.446  15.230  0.2696  0.2036 -0.2467
10363DDP     C262176  18.730  12.316  15.661 -0.0084 -0.1284 -0.2690
10363DDP     C362177  19.600  13.165  14.812 -0.0998  0.0564 -0.2873
10363DDP     C462178  19.412  12.108  15.076 -0.0938  0.1943  0.1289
10364DDP     C162179  12.658   5.834  17.945  0.2385  0.1309  0.0306
10364DDP     P162180  12.857   5.743  18.379 -0.1960  0.2528 -0.3578
10364DDP     P262181  12.969   5.610  17.676 -0.0566 -0.1046  0.5024
10364DDP     C262182  13.273   5.775  17.344 -0.1750 -0.0001  0.0098
10364DDP     C362183  13.060   5.718  18.785 -0.1288  0.0948  0.3580
10364DDP     C462184  12.387   6.234  17.855 -0.0595  0.2088  0.0657
10365DDP     C162185  26.330   9.013   3.994  0.3582  0.0951  0.4111
10365DDP     P162186  26.539   8.668   3.743  0.2179 -0.1971 -0.3967
10365DDP     P262187  26.555   9.453   4.053  0.2130 -0.0732  0.0328
10365DDP     C262188  26.873   9.699   3.827  0.2845  0.1479 -0.0889
10365DDP     C362189  26.626   8.504   3.385  0.1623 -0.4784  0.0679
10365DDP     C462190  26.008   8.862   4.303  0.0731 -0.1539 -0.0394
10366DDP     C162191  16.673  18.886  29.396  0.1823 -0.0405  0.1771
10366DDP     P162192  16.635  18.679  28.855  0.2077 -0.0164 -0.1321
10366DDP     P262193  16.510  19.413  29.392 -0.1385  0.2715 -0.1185
10366DDP     C262194  16.639  19.905  29.559  0.1366  0.1546 -0.2361
10366DDP     C362195  16.798  18.935  28.474 -0.0802 -0.0036  0.1965
10366DDP     C462196  16.662  18.673  29.842 -0.0112 -0.0106  0.1401
10367DDP     C162197  11.123   6.125  27.295 -0.1031  0.1556  0.0990
10367DDP     P162198  11.308   6.297  27.035  0.0133 -0.0088  0.1186
10367DDP     P262199  11.038   6.262  27.734 -0.0855  0.3633 -0.0395
10367DDP     C262200  10.862   6.243  28.296  0.1852 -0.0084  0.0786
10367DDP     C362201  11.522   6.297  26.656  0.0744 -0.0464 -0.4158
10367DDP     C462202  10.948   5.717  27.217  0.1257  0.2198  0.0801
10368DDP     C162203  29.000  18.215  23.145 -0.0825 -0.1057  0.2375
10368DDP     P162204  29.141  17.751  23.250  0.0772  0.2576  0.0031
10368DDP     P262205  29.045  18.333  22.701  0.1346  0.4676 -0.1564
10368DDP     C262206  29.087  18.113  22.358  0.2938  0.0555 -0.0658
10368DDP     C362207  29.307  17.435  22.941 -0.0957  0.0280  0.1384
10368DDP     C462208  29.039  18.645  23.439  0.0274  0.1075 -0.0771
10369DDP     C162209  28.821  29.360  20.637 -0.1210 -0.0847  0.0890
10369DDP     P162210  29.152  29.319  20.976  0.1016  0.0004 -0.2006
10369DDP     P262211  29.050  29.209  20.311 -0.1320  0.2635 -0.1898
10369DDP     C262212  29.243  28.889  19.940  0.2423  0.0289  0.0411
10369DDP     C362213  29.397  29.442  21.289 -0.0196 -0.1911 -0.2918
10369DDP     C462214  28.596  29.729  20.574  0.1006 -0.2315 -0.1798
10370DDP     C162215  22.517  30.229   2.032  0.1522 -0.0946  0.0999
10370DDP     P162216  22.133  30.230   1.774 -0.0500 -0.2481 -0.0188
10370DDP     P262217  22.660  29.924   2.348  0.0326 -0.0323  0.0219
10370DDP     C262218  22.839  29.972   2.695 -0.1831 -0.3516  0.0073
10370DDP     C362219  21.871  29.962   1.845  0.4013  0.2013  0.0586
10370DDP     C462220  22.758   0.264   1.982  0.0508  0.3168  0.4250
10371DDP     C162221  17.485   2.586  11.804 -0.0153  0.0357  0.1116
10371DDP     P162222  17.816   2.232  11.661 -0.0143  0.1577  0.0293
10371DDP     P262223  17.238   2.745  11.517  0.0755 -0.4905 -0.1702
10371DDP     C262224  17.304   3.202  11.383  0.1521  0.1087  0.1315
10371DDP     C362225  18.037   1.960  12.019  0.3124  0.0459  0.1122
10371DDP     C462226  17.505   2.638  12.232  0.1976  0.0862  0.0839
10372DDP     C162227   9.478  16.294  24.820 -0.1236 -0.1331 -0.1445
10372DDP     P162228   9.680  15.996  25.001 -0.1527  0.0586  0.1080
10372DDP     P262229   9.651  16.721  25.135 -0.0611 -0.0922  0.0869
10372DDP     C262230   9.579  16.921  25.520  0.0031  0.0713 -0.0311
10372DDP     C362231   9.747  15.604  24.927 -0.0064 -0.1799  0.0343
10372DDP     C462232   9.121  16.241  24.532  0.1014  0.1336  0.0396
10373DDP     C162233   6.019  22.898  11.504 -0.1419  0.1820  0.1124
10373DDP     P162234   5.703  23.094  11.213  0.2530  0.1132  0.3331
10373DDP     P262235   6.414  23.133  11.623  0.1340  0.2988  0.2193
10373DDP     C262236   6.712  23.358  11.782 -0.0773  0.0228  0.2036
10373DDP     C362237   5.385  22.893  10.903 -0.3664 -0.0502 -0.2291
10373DDP     C462238   5.772  22.575  11.829 -0.0097  0.1011  0.1090
10374DDP     C162239   1.107   7.767  25.701 -0.1207  0.1050 -0.0098
10374DDP     P162240   0.648   7.822  25.631 -0.1065  0.0669 -0.0762
10374DDP     P262241   1.358   7.588  25.326  0.0438 -0.0573 -0.0540
10374DDP     C262242   1.477   7.948  25.080 -0.1219 -0.2173  0.3122
10374DDP     C362243   0.454   7.821  25.237  0.0218  0.2163 -0.2422
10374DDP     C462244   1.229   7.637  26.122  0.1320  0.1135 -0.5244
10375DDP     C162245  18.237  29.054   7.018  0.0059  0.3331  0.0092
10375DDP     P162246  18.635  29.355   7.028 -0.2124 -0.2222 -0.1244
10375DDP     P262247  18.246  28.629   6.865 -0.0217  0.1406  0.3514
10375DDP     C262248  18.572  28.246   6.982  0.1668 -0.0786 -0.2368
10375DDP     C362249  18.887  29.697   6.921  0.0333 -0.0435  0.2792
10375DDP     C462250  18.087  29.283   7.357 -0.0738 -0.0431 -0.0227
10376DDP     C162251  11.894  29.555  20.518  0.0905 -0.1254  0.3825
10376DDP     P162252  12.261  29.295  20.378  0.2659 -0.2243 -0.2682
10376DDP     P262253  11.865  29.988  20.828  0.2209  0.0788 -0.0870
10376DDP     C262254  11.649   0.106  20.927 -0.0071  0.1554  0.0560
10376DDP     C362255  12.545  29.232  20.164  0.1160 -0.1759  0.3275
10376DDP     C462256  11.422  29.495  20.283 -0.0287  0.1200 -0.0927
10377DDP     C162257  18.966   8.910  12.687  0.0982  0.0275  0.0366
10377DDP     P162258  19.145   8.986  13.046 -0.0887  0.0725 -0.0083
10377DDP     P262259  18.750   8.583  12.589 -0.0882 -0.2642 -0.2727
10377DDP     C262260  18.675   8.202  12.381  0.1031 -0.3542 -0.0684
10377DDP     C362261  19.296   8.752  13.470 -0.1943  0.0730 -0.0785
10377DDP     C462262  19.158   9.181  12.521 -0.0996  0.0307  0.3105
10378DDP     C162263  12.501   3.549  10.258 -0.1226 -0.1473  0.2029
10378DDP     P162264  12.408   3.142  10.242  0.0797 -0.0453 -0.1938
10378DDP     P262265  12.177   3.753  10.507 -0.0248  0.0720  0.1068
10378DDP     C262266  11.997   3.786  10.896  0.0763  0.0936 -0.2130
10378DDP     C362267  12.193   2.819  10.298  0.0462 -0.1150  0.2243
10378DDP     C462268  12.938   3.790  10.139 -0.2389 -0.0890 -0.0508
10379DDP     C162269  27.676  24.612   1.885  0.2913  0.3045 -0.0923
10379DDP     P162270  28.011  24.263   1.781  0.0466  0.1367 -0.2274
10379DDP     P262271  27.437  24.638   2.296 -0.0570  0.0930 -0.1621
10379DDP     C262272  27.016  24.459   2.421 -0.2587 -0.3248  0.1272
10379DDP     C362273  28.290  23.953   2.048 -0.0710 -0.0441  0.1404
10379DDP     C462274  27.606  24.743   1.629  0.1265 -0.0886 -0.2511
10380DDP     C162275  27.722  29.811   6.871  0.1731  0.1509 -0.0317
10380DDP     P162276  27.932  30.033   7.087  0.0159 -0.1289  0.2075
10380DDP     P262277  27.929  29.726   6.476 -0.0896 -0.1153 -0.2191
10380DDP     C262278  28.221  29.402   6.333 -0.2865 -0.0755  0.2436
10380DDP     C362279  28.300  30.288   6.948 -0.0783  0.0210 -0.1623
10380DDP     C462280  27.196  29.721   7.021  0.1054  0.0312  0.0582
10381DDP     C162281  26.924  11.555  12.520 -0.3233 -0.0434 -0.0423
10381DDP     P162282  26.540  11.703  12.410 -0.1478 -0.4685  0.0566
10381DDP     P262283  26.973  11.818  12.868  0.1575  0.3979  0.0418
10381DDP     C262284  27.257  12.185  12.853 -0.3322 -0.0230  0.2181
10381DDP     C362285  26.109  11.890  12.462 -0.6646  0.0668  0.0503
10381DDP     C462286  27.223  11.298  12.318  0.0933  0.1911  0.2610
10382DDP     C162287  17.151  13.910  25.430 -0.0227 -0.0524  0.0702
10382DDP     P162288  17.053  14.325  25.576  0.0112  0.0524  0.1353
10382DDP     P262289  17.276  13.559  25.732 -0.0548  0.0587 -0.0075
10382DDP     C262290  17.587  13.359  25.914  0.1657  0.0754  0.3022
10382DDP     C362291  16.681  14.382  25.879  0.2078  0.1315  0.1741
10382DDP     C462292  17.253  13.711  25.030  0.0712 -0.1560 -0.2864
10383DDP     C162293  11.002  17.959  15.974  0.0761 -0.0298 -0.0158
10383DDP     P162294  10.600  18.031  15.646  0.3042 -0.0334  0.2635
10383DDP     P262295  11.117  17.487  15.998 -0.1526  0.1231  0.5067
10383DDP     C262296  10.776  17.190  15.955 -0.1543 -0.1888  0.1952
10383DDP     C362297  10.518  17.829  15.185  0.0526 -0.0488  0.5191
10383DDP     C462298  11.087  18.335  16.296  0.1861 -0.0426  0.4603
10384DDP     C162299  14.296  13.112   9.721 -0.0138 -0.2396 -0.1238
10384DDP     P162300  14.252  12.707   9.754  0.1211 -0.0386 -0.1555
10384DDP     P262301  14.295  13.233  10.081  0.3179  0.1033 -0.1419
10384DDP     C262302  14.165  13.347  10.449  0.1948 -0.0115  0.0119
10384DDP     C362303  14.175  12.320   9.777 -0.1437 -0.1026  0.0054
10384DDP     C462304  14.132  13.409   9.524 -0.1590  0.1720  0.0574
10385DDP     C162305   8.028   3.294  12.318  0.1110  0.1361 -0.0760
10385DDP     P162306   7.925   3.594  11.999 -0.0630 -0.1729  0.1782
10385DDP     P262307   7.684   2.936  12.243 -0.0005 -0.1004  0.0698
10385DDP     C262308   7.695   2.600  11.949 -0.2504 -0.3361 -0.0650
10385DDP     C362309   7.582   3.797  11.836  0.0602  0.0587  0.4478
10385DDP     C462310   8.471   3.292  12.336 -0.1608 -0.1766 -0.4874
10386DDP     C162311  29.406  10.693  26.381 -0.1701 -0.0161 -0.2889
10386DDP     P162312  29.407  11.077  26.385  0.1205 -0.2627  0.1121
10386DDP     P262313  29.356  10.348  26.039  0.0924 -0.2301 -0.2989
10386DDP     C262314  29.438   9.841  25.928  0.0126 -0.0079  0.0261
10386DDP     C362315  29.630  11.372  26.724  0.2403 -0.0287  0.3945
10386DDP     C462316  29.300  10.733  26.808 -0.1350 -0.2353  0.3379
10387DDP     C162317  27.425  22.084  21.631 -0.0721 -0.0814 -0.1761
10387DDP     P162318  27.814  22.032  21.850 -0.3394  0.3818 -0.2382
10387DDP     P262319  27.167  22.460  21.561  0.3254  0.3405 -0.1963
10387DDP     C262320  27.035  22.702  21.192  0.2104  0.0191  0.0653
10387DDP     C362321  27.899  22.014  22.272 -0.1588 -0.1140 -0.0692
10387DDP     C462322  27.295  21.703  21.708  0.2335 -0.1882 -0.0385
10388DDP     C162323   7.740  26.665  28.160  0.2186 -0.1800 -0.1254
10388DDP     P162324   7.753  26.774  27.760  0.1499  0.0309  0.2835
10388DDP     P262325   8.022  26.824  28.504  0.1763 -0.3153  0.1027
10388DDP     C262326   8.090  27.241  28.610  0.1691 -0.2359 -0.2887
10388DDP     C362327   7.404  26.968  27.579 -0.0390  0.0504 -0.0654
10388DDP     C462328   7.313  26.539  28.289  0.1040  0.0411  0.0636
10389DDP     C162329  16.261  21.044  15.666 -0.0978  0.0412 -0.0043
10389DDP     P162330  15.881  21.291  15.948  0.1217 -0.1524  0.0160
10389DDP     P262331  16.455  21.199  15.327 -0.3162 -0.0101 -0.0376
10389DDP     C262332  16.670  21.591  15.192 -0.1359 -0.1014  0.3641
10389DDP     C362333  15.492  21.374  15.758 -0.0836  0.1279  0.0128
10389DDP     C462334  16.224  20.627  15.871 -0.1580  0.1064  0.2686
10390DDP     C162335  21.606  29.636  20.254  0.2081  0.0438  0.1350
10390DDP     P162336  21.814  29.676  20.711 -0.0939  0.0096  0.0391
10390DDP     P262337  21.341  30.005  20.207 -0.1955  0.3110 -0.0425
10390DDP     C262338  20.948  29.865  19.972  0.0450 -0.1170 -0.1997
10390DDP     C362339  21.749  29.780  21.083 -0.0734  0.0639 -0.1732
10390DDP     C462340  21.732  29.266  19.995 -0.5754  0.1123 -0.1866
10391DDP     C162341   6.355  19.820   9.911 -0.1849 -0.1431 -0.1561
10391DDP     P162342   6.168  19.492  10.216  0.1110  0.1286 -0.0234
10391DDP     P262343   6.394  20.294   9.998  0.1955  0.2832  0.1574
10391DDP     C262344   6.109  20.677   9.797  0.2450 -0.0928 -0.0331
10391DDP     C362345   6.177  19.557  10.689 -0.0990 -0.1040 -0.0044
10391DDP     C462346   6.558  19.605   9.683  0.0956  0.2784 -0.0996
10392DDP     C162347   2.886  15.215   1.809 -0.0878 -0.0601  0.0076
10392DDP     P162348   3.171  15.531   1.891  0.0413  0.2361 -0.2622
10392DDP     P262349   2.725  15.225   1.506 -0.1595 -0.0851 -0.1679
10392DDP     C262350   2.693  15.155   1.009 -0.2312  0.1090 -0.0068
10392DDP     C362351   3.599  15.550   1.721 -0.3515  0.1634  0.0027
10392DDP     C462352   2.821  14.837   2.119 -0.3263  0.2985 -0.0577
10393DDP     C162353   4.221   9.425   4.535 -0.0261 -0.0687  0.0582
10393DDP     P162354   3.891   9.591   4.661 -0.2577 -0.3813 -0.1540
10393DDP     P262355   4.260   9.309   4.154  0.0851 -0.1780 -0.1142
10393DDP     C262356   4.631   9.244   3.801  0.1022 -0.0788  0.2258
10393DDP     C362357   3.524   9.786   4.735 -0.3546  0.0235 -0.0992
10393DDP     C462358   4.559   9.406   4.803  0.0798  0.1605 -0.2064
10394DDP     C162359   4.637  29.177   6.771 -0.2584  0.0157  0.2317
10394DDP     P162360   4.312  28.868   6.556  0.1546  0.2686 -0.1313
10394DDP     P262361   4.518  29.645   6.810 -0.1571 -0.3310  0.1643
10394DDP     C262362   4.271  29.911   6.533  0.3359 -0.0004  0.1077
10394DDP     C362363   4.208  28.519   6.262  0.0994  0.3163 -0.0413
10394DDP     C462364   5.023  28.937   6.972  0.0148 -0.2914  0.2757
10395DDP     C162365  19.255  16.631   0.741  0.0338  0.0369 -0.1327
10395DDP     P162366  19.258  17.015   0.373  0.0049 -0.1346 -0.1627
10395DDP     P262367  18.817  16.374   0.752 -0.0533 -0.0006  0.1263
10395DDP     C262368  18.380  16.612   0.660  0.0241 -0.0142  0.2040
10395DDP     C362369  19.118  17.284   0.094 -0.2192  0.1578  0.1494
10395DDP     C462370  19.728  16.739   0.757  0.1997  0.0525 -0.2795
10396DDP     C162371   4.742  28.055  16.153  0.2038 -0.0449 -0.2704
10396DDP     P162372   4.962  27.683  16.129 -0.3257  0.4037 -0.2629
10396DDP     P262373   4.994  28.444  16.293 -0.2424  0.0638 -0.0252
10396DDP     C262374   5.478  28.355  16.436 -0.1222  0.0377 -0.0808
10396DDP     C362375   4.916  27.492  16.477 -0.1555  0.0437  0.1209
10396DDP     C462376   4.457  28.026  16.348  0.2125 -0.1241 -0.3317
10397DDP     C162377   0.075   5.317  30.237  0.1344  0.0817 -0.2022
10397DDP     P162378  29.904   5.269   0.078 -0.0393 -0.2070 -0.1140
10397DDP     P262379   0.334   5.276   0.289  0.1204 -0.0721 -0.2328
10397DDP     C262380   0.796   5.309   0.467 -0.1920  0.2113  0.1823
10397DDP     C362381  29.564   5.046  30.143  0.1455 -0.0946 -0.2147
10397DDP     C462382   0.198   5.335  29.817  0.1396  0.3410  0.0611
10398DDP     C162383  18.904  23.788  12.244  0.0223  0.0422  0.0461
10398DDP     P162384  19.107  24.227  12.220  0.1670  0.0379 -0.0718
10398DDP     P262385  19.005  23.218  12.203  0.2448 -0.1258 -0.2752
10398DDP     C262386  18.972  22.756  12.355  0.3192 -0.2226 -0.1650
10398DDP     C362387  19.410  24.516  12.037  0.0746 -0.2289 -0.1171
10398DDP     C462388  18.440  23.884  12.481  0.0419 -0.1300 -0.2858
10399DDP     C162389   5.097  20.436  24.091 -0.0014 -0.0881  0.2221
10399DDP     P162390   5.108  20.858  24.303 -0.1690  0.0382  0.1098
10399DDP     P262391   4.761  20.401  23.906  0.1207 -0.0118 -0.1129
10399DDP     C262392   4.628  20.490  23.425 -0.3255 -0.1880 -0.0844
10399DDP     C362393   5.046  21.219  24.645  0.0702 -0.1181  0.1788
10399DDP     C462394   5.477  20.119  24.097 -0.0845  0.0696 -0.2971
10400DDP     C162395  29.183   2.343  24.334  0.1743 -0.1126 -0.1420
10400DDP     P162396  29.093   2.430  23.924  0.1294 -0.0904 -0.1480
10400DDP     P262397  29.412   2.198  24.690 -0.0132  0.0189 -0.1907
10400DDP     C262398  29.783   2.233  24.943  0.1064  0.2411  0.0561
10400DDP     C362399  29.130   2.428  23.447  0.1793  0.0953  0.1629
10400DDP     C462400  29.132   2.782  24.576 -0.1750 -0.0406 -0.2132
10401DDP     C162401  13.862  26.903  16.406 -0.2037  0.1296  0.2631
10401DDP     P162402  13.740  27.211  16.045 -0.1191  0.1322 -0.0844
10401DDP     P262403  13.763  26.438  16.469  0.0970  0.0752  0.2006
10401DDP     C262404  13.984  25.979  16.585  0.0258  0.0218 -0.0507
10401DDP     C362405  13.501  27.438  15.771  0.2454 -0.0972 -0.2137
10401DDP     C462406  14.119  27.216  16.656 -0.1089  0.0299  0.1308
10402DDP     C162407  14.461  12.521   7.483 -0.0784  0.3054 -0.1556
10402DDP     P162408  14.797  12.599   7.734 -0.1084 -0.0710 -0.3226
10402DDP     P262409  14.170  12.857   7.499 -0.1130 -0.2777  0.0700
10402DDP     C262410  14.106  13.012   7.979  0.0677  0.2443 -0.1078
10402DDP     C362411  15.168  12.299   7.719  0.0430 -0.1642 -0.1268
10402DDP     C462412  14.409  12.135   7.312 -0.0523 -0.1037  0.0817
10403DDP     C162413  19.825  28.916   6.309 -0.0312  0.0362 -0.0112
10403DDP     P162414  19.814  28.595   6.675  0.0564 -0.0091  0.1156
10403DDP     P262415  20.022  29.254   6.423  0.0516  0.1601 -0.1394
10403DDP     C262416  20.323  29.453   6.525  0.0012 -0.2650 -0.0663
10403DDP     C362417  19.759  28.321   7.116  0.3386  0.0377 -0.3542
10403DDP     C462418  19.477  28.931   6.020 -0.0568  0.4788  0.0170
10404DDP     C162419  15.586   6.814  13.626 -0.3083  0.1309 -0.0053
10404DDP     P162420  15.160   6.747  13.453  0.1223  0.0279  0.1485
10404DDP     P262421  15.740   6.714  13.269  0.1990 -0.2155  0.0942
10404DDP     C262422  16.029   6.383  13.453  0.1621 -0.0053 -0.0533
10404DDP     C362423  14.764   6.684  13.525  0.1803  0.1310  0.1608
10404DDP     C462424  15.660   7.075  13.923 -0.1112  0.1325  0.4695
10405DDP     C162425   8.231   7.503   0.347  0.1154 -0.0500  0.3151
10405DDP     P162426   8.355   7.448  30.202 -0.0432  0.0933 -0.0092
10405DDP     P262427   7.987   7.731   0.495  0.1826  0.0311 -0.1153
10405DDP     C262428   7.607   7.650   0.664  0.1793 -0.0107  0.0812
10405DDP     C362429   8.352   7.587  29.687 -0.0012 -0.2559  0.1143
10405DDP     C462430   8.368   7.176   0.606 -0.0649 -0.1685  0.0257
10406DDP     C162431   4.964  26.249   7.333 -0.1817  0.0753 -0.1841
10406DDP     P162432   5.083  25.980   7.732  0.0795 -0.0356 -0.1761
10406DDP     P262433   5.127  26.694   7.420 -0.0017 -0.0248 -0.2286
10406DDP     C262434   5.461  26.991   7.424 -0.1166 -0.3966  0.3036
10406DDP     C362435   5.060  25.779   8.124 -0.0775 -0.0944 -0.2386
10406DDP     C462436   5.160  26.002   6.975  0.0620 -0.0348 -0.3265
10407DDP     C162437  28.585  22.871  14.653  0.1669  0.2081  0.3074
10407DDP     P162438  28.810  23.018  14.944 -0.2105 -0.0330  0.0209
10407DDP     P262439  28.235  23.141  14.365  0.0571 -0.1291  0.0104
10407DDP     C262440  27.825  23.368  14.409  0.0908  0.3586  0.3395
10407DDP     C362441  29.175  22.835  15.104 -0.1104  0.3732 -0.1479
10407DDP     C462442  28.287  22.489  14.448  0.1616 -0.0326  0.1637
10408DDP     C162443  17.144  12.220   7.903  0.0710 -0.0269  0.0757
10408DDP     P162444  17.045  12.518   7.471 -0.1649 -0.0049  0.0179
10408DDP     P262445  17.386  12.438   8.187  0.0610  0.0373  0.1070
10408DDP     C262446  17.784  12.302   8.343  0.0783  0.1931  0.1092
10408DDP     C362447  17.172  12.865   7.228 -0.1611  0.1352  0.3031
10408DDP     C462448  16.792  11.993   8.129 -0.2428  0.3679 -0.1745
10409DDP     C162449   0.508  22.271   8.774  0.0704  0.2226  0.1100
10409DDP     P162450   0.591  22.655   8.656  0.1764 -0.0956 -0.1041
10409DDP     P262451   0.057  22.270   8.790 -0.4032  0.1820  0.2244
10409DDP     C262452  30.122  22.026   9.015  0.1692  0.1382  0.0052
10409DDP     C362453   0.516  23.003   8.395 -0.1871 -0.0013  0.0466
10409DDP     C462454   0.742  21.839   8.969  0.2673  0.2540 -0.2962
10410DDP     C162455  22.665   5.297  19.330 -0.1456  0.0926  0.2291
10410DDP     P162456  22.258   5.380  19.129  0.0262 -0.0193  0.2591
10410DDP     P262457  22.684   5.196  19.728  0.0439  0.0371  0.1082
10410DDP     C262458  22.727   4.981  20.108  0.0789  0.1149  0.3393
10410DDP     C362459  22.021   5.535  18.733 -0.1085  0.2094  0.1218
10410DDP     C462460  23.044   5.267  19.140 -0.2181 -0.0092 -0.4235
10411DDP     C162461  23.450  10.919  24.025 -0.0742 -0.0225  0.0409
10411DDP     P162462  23.177  11.174  23.770  0.1788 -0.2100 -0.0920
10411DDP     P262463  23.589  11.164  24.388  0.2165  0.1715 -0.0701
10411DDP     C262464  23.647  11.441  24.626  0.1699 -0.1875 -0.0762
10411DDP     C362465  22.711  11.226  23.853  0.0859 -0.1112 -0.2488
10411DDP     C462466  23.411  10.492  23.947 -0.2149 -0.2104  0.0904
10412DDP     C162467   8.999   8.632  28.850 -0.0951  0.1958  0.2754
10412DDP     P162468   9.242   8.704  29.164 -0.2180  0.0226  0.2320
10412DDP     P262469   9.192   8.691  28.411 -0.2094 -0.2676  0.1054
10412DDP     C262470   9.569   9.008  28.392 -0.5040 -0.0130 -0.1411
10412DDP     C362471   9.472   8.623  29.550  0.3070 -0.1399  0.0270
10412DDP     C462472   8.819   8.313  28.998 -0.1601  0.0835 -0.1590
10413DDP     C162473   8.084  14.700  15.342  0.0281 -0.3020  0.2419
10413DDP     P162474   8.609  14.835  15.281  0.1648  0.1991  0.0272
10413DDP     P262475   7.845  14.877  15.702  0.0091  0.1132  0.0469
10413DDP     C262476   7.544  14.639  15.947  0.0394  0.0455  0.1291
10413DDP     C362477   8.913  15.171  15.053 -0.0284 -0.2268 -0.0990
10413DDP     C462478   7.914  14.365  15.164 -0.2200  0.1578  0.1981
10414DDP     C162479   9.911  13.855   1.607 -0.1903 -0.1742  0.0576
10414DDP     P162480  10.340  13.853   1.488  0.3406 -0.1902  0.2998
10414DDP     P262481   9.634  14.187   1.601  0.0755 -0.1524  0.0020
10414DDP     C262482   9.457  14.546   2.019 -0.1872  0.2093 -0.4036
10414DDP     C362483  10.493  13.783   1.073  0.2763  0.0188  0.3200
10414DDP     C462484   9.981  13.546   1.965 -0.0224 -0.1364 -0.0899
10415DDP     C162485  15.397  16.979   4.643 -0.0261 -0.0637 -0.2011
10415DDP     P162486  15.311  17.414   4.545  0.0282 -0.0896 -0.0415
10415DDP     P262487  15.754  16.782   4.693  0.3563 -0.1707  0.0878
10415DDP     C262488  16.100  16.745   4.558 -0.1802 -0.3254 -0.1831
10415DDP     C362489  15.091  17.343   4.051  0.1143 -0.2527 -0.1676
10415DDP     C462490  14.999  16.867   4.963  0.0294 -0.3293 -0.0517
10416DDP     C162491   5.354  29.802   8.941 -0.0965  0.0620  0.3558
10416DDP     P162492   5.680  29.587   8.866  0.0836 -0.0536  0.1607
10416DDP     P262493   5.320  30.206   9.016 -0.2916  0.1438  0.2271
10416DDP     C262494   5.222   0.217   9.143  0.1707 -0.1435 -0.0990
10416DDP     C362495   5.716  29.215   8.668  0.1575 -0.1054  0.1923
10416DDP     C462496   4.958  29.749   8.809 -0.0079  0.1931 -0.3259
10417DDP     C162497  13.096  17.793  18.514  0.0091  0.0047 -0.0304
10417DDP     P162498  12.963  18.285  18.365 -0.0966  0.2378 -0.1371
10417DDP     P262499  13.420  17.753  18.788  0.1464  0.0521 -0.1376
10417DDP     C262500  13.504  17.885  19.238 -0.0336  0.2668 -0.3867
10417DDP     C362501  13.140  18.603  18.300 -0.2927 -0.2468  0.2656
10417DDP     C462502  12.761  17.421  18.504  0.1811  0.0960 -0.0494
10418DDP     C162503   3.602  21.163  12.195 -0.1693 -0.0199  0.0203
10418DDP     P162504   3.306  20.864  12.163 -0.0705  0.0473  0.0783
10418DDP     P262505   3.522  21.547  12.087 -0.1120  0.0533  0.0715
10418DDP     C262506   3.267  21.810  12.256 -0.0369  0.1162  0.0710
10418DDP     C362507   3.137  20.514  12.011 -0.1251  0.0900  0.0639
10418DDP     C462508   4.018  21.075  12.273 -0.1049 -0.3120  0.1231
10419DDP     C162509  24.004  16.750  14.956  0.0725 -0.4225  0.1038
10419DDP     P162510  23.993  17.209  14.764  0.0569 -0.1179 -0.1050
10419DDP     P262511  23.664  16.584  14.798  0.0471 -0.1855  0.0717
10419DDP     C262512  23.372  16.441  14.465  0.3255 -0.2114 -0.0533
10419DDP     C362513  24.205  17.662  14.750 -0.2732  0.1144  0.2842
10419DDP     C462514  24.172  16.578  15.242  0.2936  0.2117  0.1045
10420DDP     C162515  12.921  24.707   3.685  0.1275  0.0735  0.0392
10420DDP     P162516  12.777  24.678   4.116  0.1293 -0.0524  0.1322
10420DDP     P262517  13.411  24.910   3.659  0.3743 -0.0322  0.1214
10420DDP     C262518  13.877  24.963   3.678 -0.0263 -0.3167 -0.1270
10420DDP     C362519  12.979  24.826   4.512 -0.0597 -0.0667  0.0494
10420DDP     C462520  12.688  24.596   3.277  0.1668 -0.3497 -0.0071
10421DDP     C162521  10.497  20.940  19.230 -0.0273 -0.1100  0.2108
10421DDP     P162522  10.209  21.040  19.528  0.0163  0.0769 -0.2807
10421DDP     P262523  10.847  21.262  19.044 -0.2408  0.5003 -0.1675
10421DDP     C262524  11.073  21.713  18.806 -0.0209  0.3324 -0.1764
10421DDP     C362525   9.804  20.892  19.617 -0.0410 -0.0575 -0.1145
10421DDP     C462526  10.826  20.543  19.178 -0.1331  0.0823 -0.1392
10422DDP     C162527  23.159  29.309  17.683  0.1593  0.1326 -0.0438
10422DDP     P162528  22.958  29.648  17.824  0.0140 -0.0501 -0.3194
10422DDP     P262529  23.416  29.106  17.837 -0.3315 -0.0980 -0.2995
10422DDP     C262530  23.551  28.699  17.994  0.1095 -0.0458  0.1950
10422DDP     C362531  22.686  29.846  18.049 -0.1415  0.0737 -0.0449
10422DDP     C462532  23.293  29.451  17.263  0.1864  0.0787  0.0537
10423DDP     C162533  29.227  22.425   2.302 -0.2080  0.3031 -0.1467
10423DDP     P162534  29.642  22.640   2.133 -0.0261 -0.0328 -0.1981
10423DDP     P262535  28.818  22.398   2.195 -0.0571 -0.1846 -0.3325
10423DDP     C262536  28.467  22.471   2.383 -0.1435  0.1796  0.1304
10423DDP     C362537  29.996  22.793   2.077 -0.0446 -0.3332  0.0320
10423DDP     C462538  29.420  22.196   2.684  0.1212  0.2653  0.2083
10424DDP     C162539  13.201  17.326  18.239 -0.1576  0.0160  0.2516
10424DDP     P162540  13.202  17.259  18.611 -0.0262  0.0696 -0.1850
10424DDP     P262541  13.478  17.672  18.267 -0.0396  0.1024  0.0134
10424DDP     C262542  13.857  17.789  18.423  0.0990  0.1061 -0.2043
10424DDP     C362543  12.932  17.375  18.953 -0.1630 -0.1045  0.0917
10424DDP     C462544  12.838  17.269  17.983  0.0605  0.0284 -0.1838
10425DDP     C162545   3.925  24.380  25.068 -0.1131  0.0820  0.1361
10425DDP     P162546   3.508  24.169  24.903 -0.1597 -0.1224 -0.3620
10425DDP     P262547   3.906  24.608  25.464 -0.3951  0.2848  0.2051
10425DDP     C262548   4.257  24.776  25.727  0.0420  0.0250  0.3122
10425DDP     C362549   3.060  24.121  24.705 -0.0104  0.0778  0.2003
10425DDP     C462550   4.204  24.377  24.730  0.1906  0.3607  0.0252
10426DDP     C162551  18.076  21.789  24.760  0.0636  0.1991 -0.1689
10426DDP     P162552  18.480  21.581  24.817  0.0895  0.1236  0.1118
10426DDP     P262553  18.014  22.035  24.448 -0.0726  0.1060  0.3343
10426DDP     C262554  17.944  22.381  24.674  0.1972  0.1920 -0.0098
10426DDP     C362555  18.709  21.267  24.552  0.1756 -0.1756 -0.0493
10426DDP     C462556  17.711  21.855  25.159 -0.0989 -0.1338 -0.0224
10427DDP     C162557  23.596  20.199  29.296  0.1949 -0.2592  0.1328
10427DDP     P162558  23.945  20.462  29.270 -0.1513 -0.3652 -0.1698
10427DDP     P262559  23.312  20.371  28.950 -0.2143  0.2363  0.0574
10427DDP     C262560  22.887  20.286  28.741  0.0377 -0.3618  0.1731
10427DDP     C362561  24.239  20.566  29.080  0.0540  0.1024 -0.0032
10427DDP     C462562  23.466  20.040  29.751  0.3638  0.1001  0.2331
10428DDP     C162563   5.944  23.279  17.053  0.1298 -0.1958 -0.0905
10428DDP     P162564   6.291  23.309  16.774  0.1276  0.0234  0.1751
10428DDP     P262565   5.444  23.429  16.929 -0.1920 -0.2623 -0.0642
10428DDP     C262566   5.285  23.812  16.946 -0.0160  0.0910 -0.1778
10428DDP     C362567   6.707  23.326  16.689 -0.0224 -0.2305 -0.0931
10428DDP     C462568   5.971  23.292  17.508 -0.0379  0.1865 -0.3780
10429DDP     C162569   3.394  11.649  16.701  0.0319 -0.1669 -0.1093
10429DDP     P162570   3.230  12.019  16.412 -0.0045  0.0204  0.0230
10429DDP     P262571   3.864  11.528  16.694  0.0415  0.1768  0.0721
10429DDP     C262572   4.203  11.547  16.911 -0.0202 -0.1010  0.0809
10429DDP     C362573   3.043  12.368  16.178  0.2690  0.0381  0.0813
10429DDP     C462574   3.110  11.604  17.066 -0.0481 -0.1531 -0.0265
10430DDP     C162575  16.670   0.196  17.506  0.0931  0.1017 -0.5118
10430DDP     P162576  16.521   0.362  17.913 -0.0717 -0.0074  0.1121
10430DDP     P262577  16.409   0.277  17.187 -0.1068  0.0913 -0.0495
10430DDP     C262578  16.032  30.273  16.949  0.0668  0.1227  0.0330
10430DDP     C362579  16.274   0.471  18.235  0.2358  0.0294  0.2566
10430DDP     C462580  16.969  30.226  17.518  0.0735 -0.0786 -0.2211
10431DDP     C162581   4.929  28.688  18.081  0.0358  0.1204 -0.1844
10431DDP     P162582   4.734  29.096  18.314 -0.0939 -0.1004  0.2025
10431DDP     P262583   5.288  28.753  17.802 -0.1203 -0.0537 -0.0990
10431DDP     C262584   5.714  28.745  17.668 -0.1659 -0.1924 -0.0218
10431DDP     C362585   4.840  29.549  18.534  0.3761  0.1170  0.0696
10431DDP     C462586   4.877  28.298  18.256  0.0272  0.1961  0.3055
10432DDP     C162587  27.021  28.047   8.743  0.0851 -0.0661 -0.0915
10432DDP     P162588  27.465  27.990   8.539  0.0335  0.2444 -0.0366
10432DDP     P262589  26.848  27.707   8.866 -0.0090 -0.0542 -0.0811
10432DDP     C262590  26.909  27.422   8.517 -0.0982 -0.0166 -0.4554
10432DDP     C362591  27.786  27.665   8.337 -0.1660 -0.0573  0.0276
10432DDP     C462592  26.665  28.292   8.618  0.0902  0.0650 -0.0025
10433DDP     C162593   5.182  19.000  23.875 -0.0503  0.0821  0.0890
10433DDP     P162594   5.524  19.210  23.907 -0.0825 -0.4877  0.1591
10433DDP     P262595   4.849  19.142  23.594  0.0029  0.0168 -0.2266
10433DDP     C262596   4.967  19.091  23.139  0.1253 -0.1316 -0.1267
10433DDP     C362597   5.664  19.613  23.735  0.0674 -0.0306 -0.0281
10433DDP     C462598   4.980  18.672  24.185  0.1783 -0.0169 -0.1466
10434DDP     C162599   3.285  29.825  17.144  0.0170  0.2363 -0.1097
10434DDP     P162600   3.393  29.882  17.652  0.0387 -0.0664  0.2440
10434DDP     P262601   3.496  29.469  16.903  0.1786  0.0291 -0.0987
10434DDP     C262602   3.788  29.140  16.789  0.2576 -0.1313 -0.0743
10434DDP     C362603   3.479  29.758  18.042 -0.1416 -0.0837  0.0929
10434DDP     C462604   3.102  30.183  16.808 -0.1675 -0.1291 -0.0455
10435DDP     C162605  27.756  30.352   5.299  0.3616  0.0359  0.0468
10435DDP     P162606  27.583  30.233   4.858  0.1341 -0.0832 -0.3051
10435DDP     P262607  28.023   0.278   5.458  0.0485  0.2326  0.1953
10435DDP     C262608  28.109   0.724   5.328 -0.0834 -0.2602 -0.0565
10435DDP     C362609  27.371  30.026   4.610  0.2211 -0.2425 -0.0699
10435DDP     C462610  27.444  29.931   5.334  0.1977  0.0914  0.1872
10436DDP     C162611  12.507  11.817  24.592 -0.0914  0.0624 -0.4243
10436DDP     P162612  12.318  12.110  24.318  0.0618 -0.0645  0.0244
10436DDP     P262613  12.629  11.945  25.071 -0.0147  0.5142  0.0182
10436DDP     C262614  12.933  11.843  25.392 -0.1463 -0.2878  0.4960
10436DDP     C362615  12.333  12.280  23.856 -0.4001  0.0931  0.2294
10436DDP     C462616  12.246  11.372  24.728 -0.0847 -0.0052 -0.1778
10437DDP     C162617  28.210  17.753  18.315  0.1745  0.0076 -0.1143
10437DDP     P162618  28.342  18.106  18.622  0.1930 -0.0866  0.0128
10437DDP     P262619  27.963  17.734  17.988 -0.0064 -0.0440  0.0569
10437DDP     C262620  27.632  17.899  17.946  0.0370 -0.1431 -0.1715
10437DDP     C362621  28.489  18.154  19.018 -0.2784 -0.0272 -0.0699
10437DDP     C462622  28.441  17.370  18.541  0.0895 -0.0379  0.0971
10438DDP     C162623   8.354  10.084  11.046  0.0974  0.0804 -0.0112
10438DDP     P162624   7.900  10.223  11.091 -0.0583  0.1026 -0.1195
10438DDP     P262625   8.479   9.948  10.663  0.1952 -0.0451  0.0579
10438DDP     C262626   8.403   9.920  10.212  0.1685 -0.2603  0.0721
10438DDP     C362627   7.640  10.504  11.087  0.0434  0.0316  0.2514
10438DDP     C462628   8.657  10.113  11.327  0.1753 -0.1740  0.0551
10439DDP     C162629   2.879   0.697  18.114 -0.0506 -0.0178 -0.2846
10439DDP     P162630   3.058   0.380  18.182  0.1142 -0.2948  0.0270
10439DDP     P262631   3.092   1.193  17.968  0.0939  0.3966  0.1201
10439DDP     C262632   3.178   1.542  18.248  0.0748 -0.0846 -0.1057
10439DDP     C362633   3.324   0.348  18.460  0.0332 -0.3012 -0.1591
10439DDP     C462634   2.485   0.844  18.269  0.3163  0.1677  0.1077
10440DDP     C162635   7.636  25.479  17.034 -0.2927 -0.0610  0.1556
10440DDP     P162636   7.775  25.570  16.581  0.0460  0.0028  0.0885
10440DDP     P262637   7.241  25.242  17.126  0.0324  0.0804 -0.0980
10440DDP     C262638   6.828  25.077  17.111 -0.1099  0.2162  0.0303
10440DDP     C362639   7.782  25.387  16.171  0.0865  0.0298  0.2204
10440DDP     C462640   7.830  25.727  17.436 -0.0845  0.1756 -0.1152
10441DDP     C162641  23.921  11.571   8.283 -0.0016 -0.1487  0.5419
10441DDP     P162642  23.733  11.954   8.351  0.2982 -0.2068  0.1380
10441DDP     P262643  23.845  11.328   8.582  0.2100 -0.1893  0.3923
10441DDP     C262644  23.956  10.920   8.450  0.1084 -0.3329 -0.2555
10441DDP     C362645  23.864  12.393   8.228 -0.2209 -0.1183 -0.2089
10441DDP     C462646  23.901  11.469   7.840 -0.2883  0.2379  0.2422
10442DDP     C162647  28.709  25.582   8.316  0.3919  0.2504 -0.4336
10442DDP     P162648  28.739  25.196   8.058 -0.2569  0.3196 -0.1229
10442DDP     P262649  29.051  25.897   8.286 -0.7355  0.1706  0.0034
10442DDP     C262650  29.216  26.377   8.382 -0.0669  0.1706  0.1652
10442DDP     C362651  28.815  25.060   7.618 -0.1268  0.0769  0.1962
10442DDP     C462652  28.378  25.727   8.570  0.1642  0.0828 -0.2011
10443DDP     C162653  22.875   7.518  23.085 -0.1006 -0.0779 -0.0534
10443DDP     P162654  23.264   7.752  22.823  0.0169 -0.1117 -0.3843
10443DDP     P262655  22.700   7.210  22.789  0.0462  0.5938  0.0725
10443DDP     C262656  22.551   7.120  22.439  0.1849  0.0832  0.0243
10443DDP     C362657  23.414   7.913  22.365 -0.1527  0.4264  0.1292
10443DDP     C462658  22.518   7.212  23.332  0.0627 -0.1068  0.3811
10444DDP     C162659  26.514  27.157  28.472 -0.0190  0.0922 -0.0502
10444DDP     P162660  26.594  26.764  28.520 -0.0079 -0.1981  0.3729
10444DDP     P262661  26.439  27.265  28.071 -0.1403  0.0135  0.2113
10444DDP     C262662  26.377  27.197  27.639  0.0169 -0.2591 -0.2137
10444DDP     C362663  26.629  26.267  28.423  0.0914 -0.0880  0.2078
10444DDP     C462664  26.412  27.284  28.786 -0.0531  0.3751 -0.0264
10445DDP     C162665   5.416   8.514  27.826 -0.0092  0.2030 -0.2032
10445DDP     P162666   5.447   8.486  27.339  0.0835 -0.0392  0.1047
10445DDP     P262667   5.738   8.627  28.052 -0.0165  0.1748  0.1154
10445DDP     C262668   6.162   8.752  28.031 -0.0007 -0.0279 -0.1825
10445DDP     C362669   5.671   8.753  27.014 -0.2062 -0.3326  0.1404
10445DDP     C462670   5.054   8.195  27.994  0.0095 -0.1056 -0.2128
10446DDP     C162671  17.257  21.294   0.926  0.0371  0.2367 -0.2617
10446DDP     P162672  17.724  21.501   0.882  0.0849 -0.1404 -0.1731
10446DDP     P262673  16.924  21.296   1.276  0.1264 -0.0528  0.1193
10446DDP     C262674  16.710  21.277   1.740  0.0131 -0.2278 -0.0462
10446DDP     C362675  18.150  21.723   0.850  0.1115  0.1091  0.2421
10446DDP     C462676  17.105  21.035   0.661  0.3232 -0.2354  0.0030
10447DDP     C162677   4.825  17.400  29.825  0.3368 -0.2456 -0.2275
10447DDP     P162678   4.925  17.837  29.828 -0.1353 -0.0148 -0.1561
10447DDP     P262679   4.495  17.182  30.248 -0.1788 -0.3692 -0.2612
10447DDP     C262680   4.294  16.696  30.210  0.2052 -0.1529  0.1955
10447DDP     C362681   4.789  18.149  30.088  0.0379 -0.1410  0.1372
10447DDP     C462682   4.923  17.151  29.481  0.2370  0.2104 -0.1306
10448DDP     C162683   8.051  27.455  18.687 -0.3209 -0.0808 -0.1856
10448DDP     P162684   8.082  27.071  18.665 -0.1041 -0.0623  0.1727
10448DDP     P262685   7.745  27.594  18.368  0.3419 -0.0278  0.2069
10448DDP     C262686   7.401  27.462  18.143 -0.1972  0.0146  0.1196
10448DDP     C362687   7.953  26.696  18.397  0.3289 -0.0557 -0.0693
10448DDP     C462688   8.324  27.812  18.914 -0.2169  0.1751 -0.2020
10449DDP     C162689   9.658  19.039  27.424 -0.1242  0.0476 -0.1127
10449DDP     P162690   9.338  19.025  27.122 -0.0980 -0.1151  0.1277
10449DDP     P262691   9.876  18.587  27.373  0.1135  0.2157  0.3233
10449DDP     C262692   9.988  18.206  27.352  0.0305 -0.2534 -0.0032
10449DDP     C362693   9.135  19.355  26.946 -0.1020  0.0482 -0.0422
10449DDP     C462694   9.804  19.492  27.622  0.1217  0.1120 -0.0908
10450DDP     C162695  25.223  25.020   5.838 -0.1127 -0.0475 -0.1177
10450DDP     P162696  25.217  25.366   6.186  0.2714 -0.1429 -0.2680
10450DDP     P262697  25.057  24.672   5.893 -0.3626 -0.2432 -0.0519
10450DDP     C262698  24.808  24.400   6.085  0.2992 -0.0711 -0.1629
10450DDP     C362699  24.931  25.666   6.511  0.2414 -0.2662 -0.0302
10450DDP     C462700  25.320  25.133   5.407 -0.0017 -0.0559  0.1232
10451DDP     C162701   8.116  13.837  24.327 -0.2018 -0.0232 -0.0019
10451DDP     P162702   7.719  13.574  24.608 -0.2615  0.0479 -0.1874
10451DDP     P262703   8.136  14.247  24.212 -0.0383 -0.1795 -0.1561
10451DDP     C262704   7.972  14.605  23.998  0.3512  0.1330  0.1332
10451DDP     C362705   7.324  13.411  24.618  0.3857  0.1897  0.3206
10451DDP     C462706   8.289  13.574  24.016  0.0261  0.1839 -0.1000
10452DDP     C162707  25.808   0.692  14.448 -0.0747  0.3189  0.4611
10452DDP     P162708  25.837   0.883  13.965  0.2607  0.2639  0.0489
10452DDP     P262709  25.735   0.273  14.534  0.1308 -0.2330  0.0255
10452DDP     C262710  25.946  30.239  14.762  0.0248  0.1270  0.3656
10452DDP     C362711  25.906   1.205  13.688  0.0927  0.0206 -0.2662
10452DDP     C462712  26.023   0.878  14.755 -0.5443  0.1408  0.4018
10453DDP     C162713  28.961  20.820   0.061 -0.0292 -0.0154 -0.0463
10453DDP     P162714  28.813  20.845  29.957 -0.1644 -0.0290  0.0629
10453DDP     P262715  29.214  21.084   0.120  0.0089  0.0736  0.3370
10453DDP     C262716  29.461  21.276   0.368  0.2697 -0.0003  0.3568
10453DDP     C362717  28.400  20.940  29.839  0.3783 -0.1718 -0.2434
10453DDP     C462718  29.025  20.338   0.158  0.1536 -0.3272  0.1291
10454DDP     C162719   0.307  19.591  15.919  0.1165 -0.1135  0.1722
10454DDP     P162720  -0.002  19.683  16.232  0.0596  0.3474  0.3094
10454DDP     P262721   0.260  19.273  15.685 -0.0191 -0.0437  0.2159
10454DDP     C262722   0.529  19.082  15.290  0.0077  0.0664  0.1635
10454DDP     C362723  30.028  19.425  16.318 -0.0226 -0.0434 -0.2328
10454DDP     C462724   0.572  19.730  15.781  0.0053  0.1003 -0.0017
10455DDP     C162725   9.459  22.951   9.396  0.2054  0.2044 -0.0362
10455DDP     P162726   9.408  22.432   9.456 -0.2604 -0.0208 -0.1585
10455DDP     P262727   9.558  23.237   9.819 -0.0945  0.3000  0.3230
10455DDP     C262728   9.515  23.418  10.359 -0.1598  0.1395  0.0817
10455DDP     C362729   9.683  22.092   9.436 -0.0512 -0.2243  0.0347
10455DDP     C462730   9.554  23.140   9.090  0.3308 -0.2029 -0.2335
10456DDP     C162731  22.072   2.176   1.400  0.0550  0.1169 -0.0915
10456DDP     P162732  22.200   1.970   1.855 -0.0318 -0.2614 -0.0427
10456DDP     P262733  21.796   1.833   1.077 -0.0003 -0.1536  0.1579
10456DDP     C262734  21.597   1.833   0.655 -0.1273 -0.0371  0.1010
10456DDP     C362735  22.323   1.752   2.308 -0.0304  0.0437  0.0556
10456DDP     C462736  22.323   2.439   1.125 -0.0628 -0.0397 -0.1210
10457DDP     C162737  15.476  24.811  23.051  0.0231  0.1393  0.1659
10457DDP     P162738  15.728  25.173  22.896 -0.3200  0.0289  0.1961
10457DDP     P262739  15.228  24.829  23.409  0.0566  0.1937  0.1296
10457DDP     C262740  15.031  25.168  23.573  0.0080  0.2130  0.1981
10457DDP     C362741  16.225  25.325  22.855 -0.0302 -0.0838  0.1261
10457DDP     C462742  15.457  24.400  22.847  0.0790  0.1034  0.1950
10458DDP     C162743   7.304   7.947   1.178 -0.0145  0.0430 -0.0415
10458DDP     P162744   7.645   8.083   0.931  0.0698 -0.1006 -0.0489
10458DDP     P262745   7.150   8.303   1.409  0.1872 -0.2571  0.1279
10458DDP     C262746   7.179   8.493   1.818 -0.2818 -0.3534  0.0020
10458DDP     C362747   8.108   7.950   0.986 -0.0767  0.2074 -0.1341
10458DDP     C462748   7.145   7.559   1.071  0.0955 -0.1591  0.1970
10459DDP     C162749  23.280  11.784   4.008  0.0194  0.0582 -0.0395
10459DDP     P162750  23.518  11.860   3.612  0.0434 -0.3084  0.0179
10459DDP     P262751  23.497  11.765   4.426 -0.0782 -0.2168 -0.0945
10459DDP     C262752  23.914  11.563   4.467  0.2400 -0.0870  0.1190
10459DDP     C362753  23.627  11.731   3.226 -0.1313 -0.0845 -0.2216
10459DDP     C462754  22.835  11.863   4.070  0.0975  0.0546 -0.0068
10460DDP     C162755   1.304   8.953  13.529 -0.2518  0.1177  0.0804
10460DDP     P162756   1.345   9.313  13.887  0.0311 -0.3178 -0.1688
10460DDP     P262757   1.297   9.261  13.308  0.0822 -0.0860  0.2892
10460DDP     C262758   1.406   9.685  13.382  0.0616  0.1984 -0.0526
10460DDP     C362759   1.481   9.451  14.276 -0.2095  0.1995  0.0643
10460DDP     C462760   1.297   8.585  13.481 -0.0741  0.0623 -0.0630
10461DDP     C162761  27.463   9.321  24.688  0.0497  0.4546 -0.1168
10461DDP     P162762  27.725   9.342  24.411  0.0663 -0.2799 -0.2717
10461DDP     P262763  27.333   8.815  24.617  0.0813 -0.0994  0.2228
10461DDP     C262764  27.490   8.413  24.529 -0.0927  0.2572 -0.0467
10461DDP     C362765  27.969   9.712  24.280  0.0984  0.0368  0.0253
10461DDP     C462766  27.325   9.512  25.103 -0.0798 -0.0059  0.4866
10462DDP     C162767   5.178  12.080  17.705 -0.1268 -0.1347 -0.1514
10462DDP     P162768   4.792  11.953  17.838 -0.1801  0.2222 -0.0341
10462DDP     P262769   5.019  12.096  17.312 -0.1539 -0.1015 -0.2073
10462DDP     C262770   4.728  12.110  17.052 -0.0834 -0.0083  0.1099
10462DDP     C362771   4.526  12.246  17.973  0.2546 -0.0363 -0.0108
10462DDP     C462772   5.543  12.203  17.984 -0.0561  0.4211 -0.1703
10463DDP     C162773  15.699   9.863  10.838  0.0911  0.2258  0.0795
10463DDP     P162774  15.906   9.689  11.197  0.1534 -0.0435  0.2709
10463DDP     P262775  15.488  10.128  11.098  0.1959  0.2230 -0.2074
10463DDP     C262776  15.166  10.510  11.204  0.1522 -0.1605 -0.0767
10463DDP     C362777  15.984   9.714  11.735 -0.0597  0.0019 -0.2743
10463DDP     C462778  15.839   9.832  10.331  0.0885 -0.0940  0.1752
10464DDP     C162779  21.181   4.248  19.052  0.0452 -0.3250 -0.0376
10464DDP     P162780  20.947   4.047  18.737 -0.1928  0.1038 -0.3056
10464DDP     P262781  21.256   3.960  19.418  0.0145  0.0658  0.0605
10464DDP     C262782  20.888   3.979  19.736 -0.0368 -0.0013  0.2188
10464DDP     C362783  20.867   3.720  18.484 -0.0837 -0.0461 -0.1841
10464DDP     C462784  21.476   4.635  19.039  0.0702  0.0858  0.2675
10465DDP     C162785  28.865  24.378   4.514  0.0199 -0.2258  0.0682
10465DDP     P162786  28.715  24.692   4.182 -0.0230 -0.1669 -0.1116
10465DDP     P262787  28.780  23.947   4.222  0.1384 -0.1375 -0.2246
10465DDP     C262788  28.555  23.581   4.019  0.0261 -0.1148  0.0114
10465DDP     C362789  28.513  25.045   3.900 -0.0178  0.0082 -0.0014
10465DDP     C462790  28.930  24.627   4.872  0.1968 -0.0139 -0.3141
10466DDP     C162791  22.416  10.883  30.218  0.0286 -0.2923  0.0712
10466DDP     P162792  22.371  11.214   0.199 -0.2163  0.3748 -0.0899
10466DDP     P262793  22.884  10.823  30.047  0.1116  0.1235 -0.1634
10466DDP     C262794  23.128  10.817  30.268  0.2024 -0.0675  0.1102
10466DDP     C362795  22.022  11.346   0.418 -0.4048  0.3104 -0.2253
10466DDP     C462796  22.205  10.723  30.025 -0.1141  0.0476 -0.3890
10467DDP     C162797  15.268  16.366  10.926  0.5402  0.1551 -0.0177
10467DDP     P162798  15.529  16.357  10.589  0.3553 -0.3414 -0.3044
10467DDP     P262799  15.461  16.434  11.390 -0.2662  0.2061  0.0750
10467DDP     C262800  15.488  16.880  11.548  0.0277 -0.1958  0.2911
10467DDP     C362801  16.028  16.331  10.474 -0.3161  0.3174 -0.1153
10467DDP     C462802  14.840  16.565  10.843  0.1101 -0.1285 -0.1871
10468DDP     C162803  22.656   5.960  25.509 -0.0550 -0.0142 -0.1199
10468DDP     P162804  22.939   6.217  25.525 -0.1751  0.0745  0.1357
10468DDP     P262805  22.256   6.068  25.425  0.0140  0.0973 -0.2979
10468DDP     C262806  22.007   6.437  25.282 -0.0454 -0.0564  0.3058
10468DDP     C362807  23.269   6.344  25.652  0.0144  0.0644  0.0106
10468DDP     C462808  22.844   5.594  25.541 -0.3563 -0.1097 -0.0916
10469DDP     C162809  19.038  17.197  27.604  0.1320 -0.3705  0.2292
10469DDP     P162810  19.276  16.855  27.538 -0.1434  0.2927  0.1356
10469DDP     P262811  18.808  17.163  28.015 -0.2818 -0.0835  0.2156
10469DDP     C262812  18.437  17.037  28.157 -0.0709 -0.0723  0.1752
10469DDP     C362813  19.265  16.385  27.449  0.1775  0.1679  0.0909
10469DDP     C462814  18.962  17.445  27.257  0.0117  0.0097 -0.2684
10470DDP     C162815  10.383  13.738  15.362  0.0337  0.2624 -0.1304
10470DDP     P162816  10.813  13.822  15.435  0.0744 -0.2135  0.1614
10470DDP     P262817  10.417  13.775  14.905  0.0862  0.2510  0.0809
10470DDP     C262818  10.323  13.863  14.470  0.3185  0.1136  0.3120
10470DDP     C362819  11.248  13.826  15.689 -0.1329 -0.1133  0.1837
10470DDP     C462820  10.011  13.707  15.654  0.3388  0.0262  0.1406
10471DDP     C162821  20.561   0.809   5.535  0.0611  0.1380 -0.2431
10471DDP     P162822  20.480   0.691   5.117  0.0864 -0.0881  0.1244
10471DDP     P262823  20.151   1.093   5.544 -0.1151  0.0404  0.3340
10471DDP     C262824  20.005   1.376   5.868  0.0135  0.0455 -0.1090
10471DDP     C362825  20.432   0.803   4.628  0.1383 -0.0741 -0.0598
10471DDP     C462826  20.803   0.943   5.991  0.0057  0.0619  0.0822
10472DDP     C162827   3.331  15.709  19.570  0.1503  0.2215  0.1429
10472DDP     P162828   3.427  15.806  19.954  0.1198 -0.3829 -0.0049
10472DDP     P262829   3.497  15.340  19.488 -0.0711  0.0933  0.3507
10472DDP     C262830   3.792  15.063  19.236 -0.0584  0.2511  0.0929
10472DDP     C362831   3.703  15.713  20.315  0.0960 -0.2194  0.3836
10472DDP     C462832   2.945  15.891  19.407  0.0675 -0.0983 -0.2814
10473DDP     C162833   7.944   5.538  21.855  0.1305 -0.0461 -0.0990
10473DDP     P162834   8.215   5.643  22.170 -0.1531 -0.0326  0.1904
10473DDP     P262835   8.161   5.486  21.582  0.0652  0.0098 -0.0122
10473DDP     C262836   8.128   5.457  21.155  0.0457  0.0150 -0.1478
10473DDP     C362837   8.571   5.586  22.419 -0.6477  0.1412  0.3334
10473DDP     C462838   7.569   5.286  22.006  0.4140  0.2072  0.2108
10474DDP     C162839  16.017   3.673  28.811  0.2711 -0.1719  0.1401
10474DDP     P162840  15.857   3.943  28.562  0.1498  0.0968  0.2908
10474DDP     P262841  16.425   3.533  28.658 -0.1265 -0.0548  0.4187
10474DDP     C262842  16.561   3.165  28.569 -0.1871  0.0164 -0.0221
10474DDP     C362843  15.523   4.227  28.568  0.0763 -0.2411 -0.0229
10474DDP     C462844  15.775   3.437  29.131 -0.0699 -0.1483 -0.1974
10475DDP     C162845  25.725   0.297  23.843 -0.0588 -0.0981 -0.1517
10475DDP     P162846  25.438  30.317  23.893  0.1968  0.1467 -0.0962
10475DDP     P262847  26.013   0.139  24.172  0.1354 -0.1461  0.0472
10475DDP     C262848  26.341  30.229  24.348  0.1070 -0.2697 -0.2206
10475DDP     C362849  25.164  30.314  24.236  0.1989  0.1870  0.1696
10475DDP     C462850  25.692   0.710  23.662 -0.2255  0.0399 -0.0796
10476DDP     C162851  12.883   6.658  13.297  0.0218 -0.0787 -0.3242
10476DDP     P162852  12.939   7.067  13.500 -0.1254 -0.3022 -0.0066
10476DDP     P262853  12.477   6.626  13.077 -0.1925 -0.0244 -0.0746
10476DDP     C262854  12.062   6.657  13.169  0.1442 -0.0985  0.3542
10476DDP     C362855  13.268   7.275  13.506  0.3022 -0.0153 -0.0622
10476DDP     C462856  13.047   6.228  13.347 -0.0660  0.4044  0.0473
10477DDP     C162857  29.232  19.210  22.915  0.1727  0.0391  0.2024
10477DDP     P162858  29.570  19.326  22.719  0.1275  0.1973 -0.1618
10477DDP     P262859  29.253  18.796  22.760 -0.0315  0.3443  0.2609
10477DDP     C262860  29.412  18.560  23.140  0.1532  0.0735 -0.0396
10477DDP     C362861  29.736  19.490  22.353  0.3680  0.2128 -0.0961
10477DDP     C462862  28.791  19.223  23.167  0.2097 -0.1124  0.1501
10478DDP     C162863   7.772  28.728  12.407  0.2185 -0.3905 -0.0686
10478DDP     P162864   7.782  28.690  12.722 -0.0407  0.0208  0.1796
10478DDP     P262865   7.588  28.395  12.098 -0.2416  0.0797  0.2416
10478DDP     C262866   7.738  27.910  12.163 -0.0176 -0.0086 -0.1924
10478DDP     C362867   7.667  28.350  13.035 -0.0960  0.0277  0.4198
10478DDP     C462868   7.757  29.182  12.296 -0.2410 -0.2817  0.1646
10479DDP     C162869   9.224   6.253  12.707 -0.3764  0.2501  0.1418
10479DDP     P162870   9.617   6.025  12.759  0.1663 -0.0786  0.0765
10479DDP     P262871   9.137   5.995  12.249 -0.2630  0.0136 -0.0719
10479DDP     C262872   9.013   5.531  12.294  0.0410  0.2625  0.4356
10479DDP     C362873   9.951   5.759  12.577 -0.0989 -0.0886 -0.0543
10479DDP     C462874   8.837   6.277  12.952  0.0755 -0.1524 -0.0997
10480DDP     C162875  28.412  14.170   3.451  0.2601  0.3457 -0.2558
10480DDP     P162876  28.327  14.058   3.098  0.1038 -0.0331 -0.1027
10480DDP     P262877  28.152  14.383   3.532  0.0908 -0.0649 -0.1372
10480DDP     C262878  27.955  14.803   3.556 -0.1020 -0.1466 -0.2645
10480DDP     C362879  28.172  13.932   2.753 -0.0285 -0.1213  0.2308
10480DDP     C462880  28.812  14.150   3.661  0.0720  0.3368 -0.1969
10481DDP     C162881  17.312  19.695  29.471  0.2327 -0.1210 -0.1221
10481DDP     P162882  17.450  19.314  29.621  0.0719  0.2532 -0.0709
10481DDP     P262883  17.437  19.946  29.106  0.2782 -0.0533 -0.1009
10481DDP     C262884  17.321  20.388  28.966  0.1461 -0.2175 -0.3924
10481DDP     C362885  17.589  19.061  29.910 -0.3306 -0.0548 -0.4543
10481DDP     C462886  17.011  19.630  29.733  0.1242 -0.0778  0.1488
10482DDP     C162887   9.215   6.375  10.250  0.2364  0.0884  0.0407
10482DDP     P162888   9.390   6.005   9.866  0.0960 -0.0095  0.1554
10482DDP     P262889   8.764   6.370  10.496  0.3283  0.1452  0.0957
10482DDP     C262890   8.351   6.571  10.562 -0.1192 -0.0745  0.0226
10482DDP     C362891   9.747   5.612  10.065  0.2514  0.1056 -0.1815
10482DDP     C462892   9.366   6.798  10.426 -0.1685  0.4203  0.0655
10483DDP     C162893  18.982  17.700  18.630  0.1208 -0.0983  0.1116
10483DDP     P162894  19.364  17.709  18.268 -0.0845 -0.2452 -0.1269
10483DDP     P262895  19.050  18.063  18.861 -0.1909 -0.1984 -0.1551
10483DDP     C262896  19.406  18.254  19.016 -0.1691 -0.3769  0.1906
10483DDP     C362897  19.648  17.469  18.039 -0.3247 -0.0228 -0.1714
10483DDP     C462898  18.710  17.410  18.855  0.1057 -0.0377 -0.4236
10484DDP     C162899  23.749  25.141  13.688  0.0663 -0.1800 -0.1821
10484DDP     P162900  24.113  25.213  13.777 -0.0615  0.2226 -0.1899
10484DDP     P262901  23.537  25.343  13.996 -0.0016 -0.2301  0.0394
10484DDP     C262902  23.652  25.246  14.346  0.0360  0.1208 -0.1185
10484DDP     C362903  24.472  24.925  13.651  0.1671  0.2887  0.1653
10484DDP     C462904  23.421  24.793  13.580  0.0245  0.1755 -0.1170
10485DDP     C162905  11.456   9.985  15.846  0.0340  0.2966 -0.3577
10485DDP     P162906  11.363  10.515  15.846 -0.0838  0.0755 -0.2082
10485DDP     P262907  11.241   9.747  15.575  0.1396  0.1344  0.0817
10485DDP     C262908  11.030   9.423  15.591 -0.0200 -0.1514  0.2138
10485DDP     C362909  11.239  10.766  15.590  0.1910  0.2693 -0.2401
10485DDP     C462910  11.845   9.891  15.823  0.0780 -0.0530  0.0512
10486DDP     C162911   4.573  26.897  15.085 -0.4230  0.1291 -0.1950
10486DDP     P162912   4.540  26.838  15.471  0.3186 -0.2719 -0.0290
10486DDP     P262913   4.566  26.422  14.786 -0.1205  0.1626  0.0715
10486DDP     C262914   4.717  25.933  14.912  0.0626  0.3540 -0.4197
10486DDP     C362915   4.343  26.527  15.756  0.1568  0.0869 -0.0956
10486DDP     C462916   4.616  27.150  14.801  0.0740  0.2429  0.0235
10487DDP     C162917  23.701   6.379  11.285 -0.0239  0.1841 -0.0350
10487DDP     P162918  23.925   6.540  11.648  0.1293 -0.0904  0.1333
10487DDP     P262919  23.241   6.506  11.270 -0.0309 -0.1047 -0.0193
10487DDP     C262920  22.823   6.330  11.316  0.0151  0.1222  0.1686
10487DDP     C362921  24.193   6.671  11.974  0.2425 -0.3044 -0.0145
10487DDP     C462922  23.899   6.110  10.951 -0.1625 -0.0676  0.1100
10488DDP     C162923  21.227  26.119  22.054 -0.1043  0.1090  0.3644
10488DDP     P162924  21.502  26.404  22.278  0.0851 -0.3760  0.1046
10488DDP     P262925  20.842  26.373  22.028 -0.1493  0.4079  0.2159
10488DDP     C262926  20.500  26.351  22.312  0.0514  0.0124  0.1973
10488DDP     C362927  21.769  26.764  22.268  0.1479 -0.0738  0.2185
10488DDP     C462928  21.333  25.671  21.980 -0.1278 -0.2082  0.1877
10489DDP     C162929   9.709   8.980  19.218  0.0451 -0.0279 -0.1408
10489DDP     P162930   9.665   8.941  18.789 -0.0231 -0.0116  0.0376
10489DDP     P262931   9.799   9.133  19.550 -0.0099  0.2649 -0.0329
10489DDP     C262932   9.760   9.213  20.006 -0.4771  0.1416 -0.0684
10489DDP     C362933   9.515   9.124  18.403  0.0051 -0.1554  0.0864
10489DDP     C462934   9.623   8.495  19.347  0.1152 -0.2742  0.3843
10490DDP     C162935  23.990   0.960  12.309  0.1097  0.3636  0.3912
10490DDP     P162936  24.178   0.614  12.512 -0.1788 -0.0888 -0.1470
10490DDP     P262937  24.109   1.007  11.917  0.4121  0.4784  0.2909
10490DDP     C262938  24.499   1.069  11.665  0.0508 -0.1635 -0.1081
10490DDP     C362939  24.547   0.508  12.630 -0.2186 -0.1605  0.2480
10490DDP     C462940  23.895   1.319  12.540  0.1763 -0.1338 -0.1899
10491DDP     C162941  20.201   7.704   7.387  0.0632  0.0140  0.0676
10491DDP     P162942  20.395   7.377   7.433 -0.3725  0.1737 -0.3687
10491DDP     P262943  20.240   7.861   7.042 -0.1955 -0.1457  0.3796
10491DDP     C262944  20.508   7.879   6.708 -0.1270  0.2213 -0.0536
10491DDP     C362945  20.795   7.356   7.628  0.0620  0.3046  0.0945
10491DDP     C462946  19.871   7.730   7.640  0.1280 -0.0488  0.0353
10492DDP     C162947  19.609  24.033   6.371  0.1670 -0.0412 -0.1889
10492DDP     P162948  19.942  23.808   6.208 -0.1371 -0.0440 -0.2381
10492DDP     P262949  19.495  24.317   5.983 -0.0130  0.1615  0.0660
10492DDP     C262950  19.683  24.553   5.651  0.1398  0.2854  0.1859
10492DDP     C362951  20.022  23.599   5.917  0.0552  0.0714 -0.1824
10492DDP     C462952  19.467  23.980   6.804  0.2811  0.1178 -0.0197
10493DDP     C162953  16.176  21.074  17.081 -0.1408 -0.1458 -0.2729
10493DDP     P162954  16.387  20.877  17.444 -0.1071  0.0103 -0.3355
10493DDP     P262955  15.721  21.077  17.212  0.1633  0.2146  0.2203
10493DDP     C262956  15.448  20.818  17.563  0.2822 -0.0306  0.1391
10493DDP     C362957  16.445  21.035  17.857  0.2828  0.0422  0.2471
10493DDP     C462958  16.412  21.421  16.799  0.1529 -0.0560  0.0238
10494DDP     C162959   1.214  16.392   7.421  0.0674  0.2448  0.2777
10494DDP     P162960   1.205  15.951   7.615 -0.0707  0.0152  0.3490
10494DDP     P262961   0.998  16.480   7.019  0.0673  0.0034 -0.1269
10494DDP     C262962   0.744  16.814   6.961  0.1636 -0.0642 -0.1014
10494DDP     C362963   0.894  15.621   7.684  0.3853 -0.5195  0.1732
10494DDP     C462964   1.293  16.741   7.706  0.1342  0.0162 -0.1124
10495DDP     C162965  22.716  18.078   1.687  0.3356 -0.0552 -0.0983
10495DDP     P162966  22.454  18.121   1.333 -0.2072  0.2545 -0.0846
10495DDP     P262967  22.627  18.410   1.923  0.1788 -0.2909  0.2299
10495DDP     C262968  22.826  18.626   2.334  0.0188  0.0853 -0.0885
10495DDP     C362969  22.285  18.149   0.887  0.0562  0.0395 -0.4552
10495DDP     C462970  22.842  17.679   1.855  0.0992  0.2665 -0.1099
10496DDP     C162971   9.458   7.266  27.076  0.3284  0.1307  0.3719
10496DDP     P162972   9.476   6.926  26.771  0.1890 -0.2179  0.0287
10496DDP     P262973   9.419   7.751  27.150 -0.1599 -0.0611  0.0018
10496DDP     C262974   9.117   8.005  27.243 -0.0739 -0.1648 -0.2654
10496DDP     C362975   9.448   6.545  26.570  0.0197 -0.3932  0.1289
10496DDP     C462976   9.932   7.021  27.209  0.1196 -0.0798 -0.0155
10497DDP     C162977  25.418  13.143  14.506  0.1046 -0.1798  0.0546
10497DDP     P162978  25.686  13.026  14.216 -0.1691 -0.1518 -0.0571
10497DDP     P262979  25.368  13.608  14.514  0.1415 -0.3231 -0.3721
10497DDP     C262980  25.070  13.823  14.232  0.0124  0.1717  0.0277
10497DDP     C362981  26.093  12.874  13.953  0.3067 -0.1318 -0.0776
10497DDP     C462982  25.120  12.875  14.699  0.3556  0.1954 -0.1687
10498DDP     C162983  12.112   5.722   1.546 -0.1267  0.0640  0.4494
10498DDP     P162984  12.350   5.866   1.289 -0.0102  0.0445  0.1416
10498DDP     P262985  11.663   5.848   1.604  0.0495 -0.1070 -0.0942
10498DDP     C262986  11.476   6.313   1.626  0.0652 -0.3842 -0.0192
10498DDP     C362987  12.595   5.862   0.968 -0.1851 -0.3485  0.1195
10498DDP     C462988  12.290   5.367   1.768  0.0354 -0.4428 -0.2655
10499DDP     C162989  27.095   1.919  18.745 -0.0455 -0.0632 -0.0872
10499DDP     P162990  27.207   2.343  18.942  0.1870  0.1390 -0.1582
10499DDP     P262991  27.249   1.869  18.266 -0.1865 -0.0695  0.4199
10499DDP     C262992  27.590   1.848  17.927  0.3742 -0.0418 -0.1403
10499DDP     C362993  27.086   2.711  18.746  0.2748  0.2267 -0.0743
10499DDP     C462994  26.794   1.665  18.911 -0.1468 -0.1243 -0.0405
10500DDP     C162995   1.915   0.580   8.610 -0.3995 -0.0244  0.1770
10500DDP     P162996   2.072   0.155   8.585  0.2730  0.0711  0.3249
10500DDP     P262997   1.445   0.572   8.379  0.4327  0.0034 -0.1300
10500DDP     C262998   1.202   0.378   8.742 -0.0161 -0.1679 -0.2348
10500DDP     C362999   2.193  30.035   8.774  0.0820  0.2842  0.1370
10500DDP     C463000   1.994   0.864   8.252 -0.1874 -0.2342  0.1359
10501DDP     C163001  26.876   0.255   5.012  0.0617 -0.1147 -0.0335
10501DDP     P163002  26.645   0.515   5.126  0.0919 -0.0854  0.1864
10501DDP     P263003  26.989   0.168   4.703  0.0108  0.0500 -0.2078
10501DDP     C263004  27.322   0.220   4.542 -0.0888  0.2644  0.0614
10501DDP     C363005  26.288   0.654   5.386  0.0675  0.1836 -0.0332
10501DDP     C463006  27.248   0.148   5.195 -0.2374 -0.0333 -0.1465
10502DDP     C163007  16.575   6.785   7.856 -0.2011 -0.0512 -0.0880
10502DDP     P163008  16.346   6.929   7.517 -0.0459  0.1226 -0.2002
10502DDP     P263009  16.656   6.401   8.014 -0.3822 -0.4048 -0.0881
10502DDP     C263010  16.632   5.908   8.154 -0.2050  0.0946 -0.2096
10502DDP     C363011  16.145   6.664   7.141  0.1245 -0.0362  0.0685
10502DDP     C463012  16.694   6.933   8.269  0.2572  0.0505 -0.1545
10503DDP     C163013   0.960   9.568  13.130 -0.1057 -0.0192 -0.0447
10503DDP     P163014   0.757   9.395  12.845 -0.3036  0.2065  0.2278
10503DDP     P263015   0.862   9.475  13.564  0.1826  0.0463  0.2612
10503DDP     C263016   0.793   9.118  13.881 -0.1301 -0.2475 -0.2638
10503DDP     C363017   0.352   9.257  12.733  0.0082  0.3873 -0.1943
10503DDP     C463018   1.226   9.958  13.025 -0.0383  0.1445  0.3053
10504DDP     C163019  27.235  26.555  14.169  0.0804  0.0099 -0.0240
10504DDP     P163020  27.332  26.924  14.444  0.1261 -0.1406 -0.2206
10504DDP     P263021  27.348  26.104  14.148 -0.0513 -0.0595 -0.0727
10504DDP     C263022  27.468  25.830  13.928 -0.0468 -0.0419 -0.0190
10504DDP     C363023  27.339  27.346  14.376  0.2606 -0.0293  0.0509
10504DDP     C463024  27.256  26.702  13.732  0.2493  0.0389 -0.1955
10505DDP     C163025  24.629  13.429  19.578  0.3624 -0.0211  0.2127
10505DDP     P163026  24.963  13.514  19.228 -0.1134  0.3182 -0.0691
10505DDP     P263027  24.472  13.777  19.786  0.1390  0.1422 -0.2453
10505DDP     C263028  24.173  13.913  20.089 -0.2701 -0.0467 -0.2026
10505DDP     C363029  25.109  13.160  18.991 -0.1416 -0.0872 -0.0248
10505DDP     C463030  24.322  12.974  19.691 -0.1308 -0.1435  0.0249
10506DDP     C163031  17.225   1.215   8.573  0.2219 -0.1374  0.0595
10506DDP     P163032  16.862   1.090   8.344 -0.1876  0.1488 -0.1917
10506DDP     P263033  17.357   1.052   8.944 -0.0613  0.4525  0.0870
10506DDP     C263034  17.716   0.782   9.255  0.1641  0.1494  0.0182
10506DDP     C363035  16.667   1.070   7.965  0.1073  0.0267 -0.1382
10506DDP     C463036  17.654   1.244   8.492 -0.1222 -0.1381 -0.1561
10507DDP     C163037  24.309  28.240  23.078 -0.0684  0.0962 -0.3076
10507DDP     P163038  24.285  28.617  23.217  0.0314  0.2089 -0.0223
10507DDP     P263039  23.840  28.116  22.949 -0.0464  0.0112  0.1452
10507DDP     C263040  23.469  27.911  23.094  0.3061 -0.1194  0.0738
10507DDP     C363041  24.043  28.732  23.604  0.1333  0.1617  0.1152
10507DDP     C463042  24.683  28.066  22.944 -0.0681  0.4870 -0.3320
10508DDP     C163043  23.822  26.902   0.070  0.1634  0.0076 -0.3537
10508DDP     P163044  23.834  26.732   0.508  0.0244 -0.0248  0.2751
10508DDP     P263045  24.138  27.224  30.278 -0.1197 -0.2397  0.1564
10508DDP     C263046  23.870  27.549   0.172 -0.1501  0.2248  0.0621
10508DDP     C363047  24.039  26.441   0.771  0.1364  0.3069  0.0566
10508DDP     C463048  23.537  26.774  30.057 -0.2060 -0.0881 -0.1775
10509DDP     C163049  23.897  22.702  21.612  0.2012 -0.0739 -0.2892
10509DDP     P163050  24.174  22.949  21.378 -0.0771 -0.1992 -0.3247
10509DDP     P263051  23.612  22.523  21.313  0.2374  0.1005 -0.1906
10509DDP     C263052  23.627  22.605  20.897 -0.1114 -0.0734  0.0653
10509DDP     C363053  24.541  22.900  21.190  0.4689 -0.2859 -0.1212
10509DDP     C463054  23.901  22.282  21.923  0.1037 -0.1424  0.3671
10510DDP     C163055   6.715  19.178  13.352  0.1104  0.3507 -0.1322
10510DDP     P163056   6.772  19.657  13.508 -0.2121 -0.1234  0.1413
10510DDP     P263057   6.382  18.943  13.686 -0.1172 -0.1083 -0.2492
10510DDP     C263058   6.257  18.649  13.984  0.1173  0.0976 -0.0152
10510DDP     C363059   7.048  19.678  13.763  0.0645  0.0195 -0.0337
10510DDP     C463060   6.938  18.844  13.076 -0.5668  0.1759  0.2480
10511DDP     C163061  10.835  10.271   4.815 -0.2824  0.0392 -0.1252
10511DDP     P163062  10.796  10.701   4.960 -0.0746 -0.1711 -0.1362
10511DDP     P263063  11.107  10.262   4.432  0.0252  0.0402  0.4340
10511DDP     C263064  11.580  10.175   4.097 -0.1484 -0.0677  0.0147
10511DDP     C363065  10.596  10.989   5.139 -0.2086 -0.0220 -0.3366
10511DDP     C463066  10.631   9.922   4.921 -0.0356 -0.2629  0.0618
10512DDP     C163067   5.199  24.238   1.590 -0.0383 -0.1420 -0.1559
10512DDP     P163068   5.212  24.006   1.960 -0.0481  0.2088  0.0062
10512DDP     P263069   5.415  24.027   1.299 -0.2649 -0.1023 -0.1151
10512DDP     C263070   5.759  24.072   0.935  0.2457  0.1385 -0.2719
10512DDP     C363071   4.905  23.712   2.089 -0.0214  0.2465  0.0352
10512DDP     C463072   5.013  24.630   1.704 -0.2815  0.1157  0.0266
10513DDP     C163073   8.734  11.327  24.044 -0.1137 -0.1375  0.2013
10513DDP     P163074   8.833  10.933  24.176 -0.2593  0.0952  0.0372
10513DDP     P263075   8.556  11.328  23.681  0.0839 -0.0685  0.1755
10513DDP     C263076   8.331  11.088  23.404  0.3340  0.0198 -0.2833
10513DDP     C363077   9.109  10.495  24.244  0.1840 -0.1462  0.0408
10513DDP     C463078   8.858  11.711  24.144  0.1518 -0.0333  0.1051
10514DDP     C163079  10.299  24.182   2.245  0.1483 -0.0143  0.2001
10514DDP     P163080  10.028  23.767   2.227  0.1310 -0.0932 -0.0963
10514DDP     P263081  10.023  24.549   2.017  0.0131 -0.4720  0.2355
10514DDP     C263082   9.704  24.636   1.743  0.1055  0.0467  0.0196
10514DDP     C363083   9.584  23.498   2.013  0.2904 -0.4084  0.1174
10514DDP     C463084  10.692  24.284   2.307  0.1739 -0.1379  0.1942
10515DDP     C163085  15.726  10.507  14.963  0.2611  0.0445  0.1941
10515DDP     P163086  15.678  10.788  14.679  0.1371 -0.1225 -0.0831
10515DDP     P263087  15.353  10.263  15.064  0.1508  0.0415  0.1582
10515DDP     C263088  15.113  10.180  15.521  0.2162 -0.0004  0.1455
10515DDP     C363089  15.582  11.087  14.333  0.0572  0.2188  0.1860
10515DDP     C463090  16.090  10.416  15.112 -0.0494 -0.0686 -0.0118
10516DDP     C163091  25.765   2.334  16.302 -0.0276  0.4469 -0.2440
10516DDP     P163092  26.282   2.216  16.407  0.0034  0.1955 -0.2175
10516DDP     P263093  25.459   2.088  16.493  0.2250  0.0789 -0.3122
10516DDP     C263094  25.154   1.874  16.514  0.0402 -0.0573  0.0492
10516DDP     C363095  26.664   2.468  16.450 -0.0956 -0.0845  0.1474
10516DDP     C463096  25.628   2.631  15.953 -0.1390 -0.0720  0.1020
10517DDP     C163097   6.636  22.902   8.264 -0.2211  0.2101 -0.0041
10517DDP     P163098   6.593  22.513   8.463 -0.2765 -0.1250  0.3376
10517DDP     P263099   6.811  23.133   8.610  0.2882  0.3040 -0.0203
10517DDP     C263100   7.191  23.169   8.620 -0.3741  0.3653 -0.0580
10517DDP     C363101   6.430  22.088   8.411  0.1711  0.4508  0.1392
10517DDP     C463102   6.553  23.153   8.013  0.0392 -0.2161  0.0869
10518DDP     C163103  10.013   0.889  23.927 -0.2077  0.3201 -0.1459
10518DDP     P163104   9.750   0.679  24.266  0.1084 -0.1938 -0.2402
10518DDP     P263105  10.016   1.374  23.829  0.0412  0.0454 -0.4305
10518DDP     C263106  10.053   1.677  23.980  0.0580 -0.0802  0.4324
10518DDP     C363107   9.411   0.390  24.247  0.0103 -0.4333  0.0460
10518DDP     C463108  10.235   0.569  23.703 -0.0168  0.2019 -0.1693
10519DDP     C163109   5.238   5.618  25.274 -0.0731 -0.0998  0.2600
10519DDP     P163110   4.805   5.459  25.207  0.1139  0.3265  0.2273
10519DDP     P263111   5.591   5.481  25.483 -0.0321 -0.1094 -0.1037
10519DDP     C263112   5.799   5.446  25.894 -0.0415  0.0021  0.0835
10519DDP     C363113   4.596   5.646  24.886  0.0023 -0.2629 -0.1706
10519DDP     C463114   5.114   5.996  25.551  0.0379  0.0091  0.0521
10520DDP     C163115  26.695   5.424  13.465  0.2002  0.1140  0.0464
10520DDP     P163116  26.880   5.770  13.690 -0.1250 -0.1985  0.2133
10520DDP     P263117  26.940   5.418  13.011  0.1150  0.0386 -0.1087
10520DDP     C263118  27.214   5.201  12.686  0.3095  0.1047 -0.2502
10520DDP     C363119  27.241   5.842  13.974 -0.0739  0.0470  0.2391
10520DDP     C463120  26.374   5.060  13.618  0.2692  0.0553 -0.1517
10521DDP     C163121  15.039  12.311   8.946 -0.1284 -0.2115 -0.0132
10521DDP     P163122  14.745  12.485   8.744  0.0822 -0.2941  0.0090
10521DDP     P263123  15.520  12.479   8.838  0.0690  0.1806 -0.3159
10521DDP     C263124  15.809  12.239   8.884  0.2907  0.1034 -0.0223
10521DDP     C363125  14.262  12.493   8.724 -0.0243 -0.0299  0.0366
10521DDP     C463126  14.920  12.093   9.355 -0.2215  0.0745  0.0786
10522DDP     C163127  23.151   2.854  28.329 -0.0157 -0.2031  0.2190
10522DDP     P163128  22.890   3.334  28.156  0.0550  0.2207  0.0429
10522DDP     P263129  22.978   2.408  28.179 -0.0565 -0.2115  0.0879
10522DDP     C263130  22.839   1.984  28.072 -0.2667 -0.2515 -0.2162
10522DDP     C363131  22.916   3.815  28.164 -0.2045 -0.0619 -0.0034
10522DDP     C463132  23.457   2.757  28.739  0.1590  0.1082 -0.0064
10523DDP     C163133  27.593  15.531   2.880 -0.0613  0.0792 -0.0354
10523DDP     P163134  27.424  15.539   3.259  0.3298  0.2539  0.1297
10523DDP     P263135  27.484  15.698   2.498 -0.1719  0.0979  0.0978
10523DDP     C263136  27.529  15.692   2.053 -0.0739  0.1191  0.1267
10523DDP     C363137  27.255  15.641   3.758  0.1953  0.0039 -0.2784
10523DDP     C463138  27.849  15.228   2.880  0.2101 -0.0883 -0.0766
10524DDP     C163139  24.175  29.248   3.738  0.1564 -0.0297  0.0762
10524DDP     P163140  24.044  28.851   3.772  0.0568  0.0586 -0.0987
10524DDP     P263141  23.781  29.482   3.822 -0.0538  0.2798  0.3120
10524DDP     C263142  23.424  29.592   3.621 -0.1491 -0.3082 -0.2562
10524DDP     C363143  24.095  28.473   3.555 -0.0133  0.2788 -0.1274
10524DDP     C463144  24.611  29.421   3.671 -0.1520 -0.1167  0.1225
10525DDP     C163145  17.742   2.428   6.539  0.1530 -0.0307 -0.1093
10525DDP     P163146  18.045   2.544   6.577 -0.1652  0.0651  0.0575
10525DDP     P263147  17.427   2.635   6.653 -0.2853 -0.2057  0.0039
10525DDP     C263148  17.270   2.994   6.597 -0.1832  0.1169  0.0211
10525DDP     C363149  18.398   2.701   6.693 -0.0833  0.5150  0.2764
10525DDP     C463150  17.760   1.935   6.652 -0.0960 -0.3011 -0.1671
10526DDP     C163151   7.790   7.659  23.996  0.2346  0.0386  0.4375
10526DDP     P163152   7.957   7.763  23.668 -0.0255  0.0723 -0.2130
10526DDP     P263153   7.428   7.810  23.983  0.0582  0.2056 -0.1749
10526DDP     C263154   6.964   7.764  24.046 -0.2241 -0.0841 -0.0005
10526DDP     C363155   7.968   7.850  23.209  0.0189  0.3358  0.4501
10526DDP     C463156   7.964   7.420  24.422  0.2541 -0.2927 -0.0042
10527DDP     C163157   5.092   6.789   7.406  0.0708 -0.3565 -0.1082
10527DDP     P163158   5.310   7.152   7.172 -0.1088 -0.2602  0.2163
10527DDP     P263159   5.038   6.275   7.198  0.0033 -0.2340 -0.4384
10527DDP     C263160   5.021   6.101   6.831  0.0773 -0.0868  0.1991
10527DDP     C363161   5.464   7.409   6.799  0.0080  0.4681  0.1381
10527DDP     C463162   4.870   6.824   7.746 -0.1141 -0.1779  0.0999
10528DDP     C163163  18.773  27.583  27.639 -0.3573  0.1647  0.1485
10528DDP     P163164  18.284  27.513  27.648 -0.0003 -0.0385 -0.1423
10528DDP     P263165  18.883  27.907  28.016  0.0165 -0.3155 -0.1883
10528DDP     C263166  19.022  28.370  27.937 -0.1673  0.0655  0.0902
10528DDP     C363167  17.944  27.384  27.321 -0.2059  0.2572  0.0474
10528DDP     C463168  18.988  27.522  27.323 -0.1538 -0.0874 -0.2073
10529DDP     C163169  16.378  11.434  10.933  0.3242  0.0333 -0.1624
10529DDP     P163170  16.446  11.123  11.200  0.0329 -0.5443 -0.3342
10529DDP     P263171  16.134  11.771  10.897 -0.0882 -0.0605 -0.2295
10529DDP     C263172  15.947  12.087  10.980  0.2648  0.0852  0.0630
10529DDP     C363173  16.799  10.827  11.152 -0.1418 -0.1545 -0.0348
10529DDP     C463174  16.703  11.582  10.699  0.1699 -0.2401 -0.0774
10530DDP     C163175   5.815   5.182   4.528 -0.0124 -0.1749  0.0530
10530DDP     P163176   5.751   4.723   4.294 -0.1055 -0.1357  0.2073
10530DDP     P263177   5.831   5.395   4.154  0.0725  0.0697  0.0159
10530DDP     C263178   5.884   5.368   3.767 -0.1454 -0.1379 -0.6885
10530DDP     C363179   5.573   4.343   4.108  0.0094 -0.1224 -0.1032
10530DDP     C463180   5.696   5.257   4.944  0.2872 -0.3781 -0.3152
10531DDP     C163181  19.443  26.132  16.304 -0.3718  0.0713  0.3748
10531DDP     P163182  19.404  26.499  16.581  0.1310 -0.1755 -0.0393
10531DDP     P263183  19.038  26.116  16.051 -0.0432  0.3453 -0.0951
10531DDP     C263184  18.845  26.038  15.599 -0.0064 -0.1755  0.0717
10531DDP     C363185  19.148  26.993  16.482  0.2809 -0.1966 -0.3649
10531DDP     C463186  19.637  25.794  16.233  0.1338 -0.1035 -0.3388
10532DDP     C163187  14.476   3.852  21.545 -0.0500 -0.0149 -0.0949
10532DDP     P163188  14.288   3.552  21.852 -0.0896  0.0704 -0.0026
10532DDP     P263189  14.337   4.032  21.220  0.1269 -0.1718 -0.0243
10532DDP     C263190  14.487   4.080  20.792 -0.3344 -0.1417 -0.4013
10532DDP     C363191  14.487   3.113  21.809  0.1762  0.1448  0.1059
10532DDP     C463192  14.851   3.983  21.676 -0.3027  0.0329  0.1289
10533DDP     C163193   0.045   7.834  28.799 -0.0912 -0.1352 -0.0992
10533DDP     P163194   0.407   7.957  28.677 -0.1156 -0.0079  0.0729
10533DDP     P263195  30.016   7.729  28.467 -0.1807 -0.0964 -0.2693
10533DDP     C263196  29.870   7.462  28.213 -0.0324 -0.0377 -0.2743
10533DDP     C363197   0.928   7.929  28.581  0.0451 -0.3530 -0.0167
10533DDP     C463198  30.250   7.893  29.299  0.0539 -0.2294  0.4293
10534DDP     C163199  13.702  15.748  16.583 -0.0061 -0.0431  0.3281
10534DDP     P163200  13.196  15.583  16.510 -0.1561 -0.0676 -0.3471
10534DDP     P263201  14.082  15.621  16.300  0.0001 -0.2412  0.0111
10534DDP     C263202  14.453  15.568  16.002 -0.2626  0.1444 -0.0660
10534DDP     C363203  12.803  15.851  16.586  0.2189 -0.0948  0.1906
10534DDP     C463204  13.756  16.008  16.908 -0.1202  0.0747 -0.1406
10535DDP     C163205  10.867  20.794   4.709 -0.1654  0.0548  0.0054
10535DDP     P163206  11.229  21.036   4.562  0.1878  0.2465 -0.1623
10535DDP     P263207  10.719  20.394   4.526  0.1783  0.0787  0.1989
10535DDP     C263208  10.374  19.962   4.493 -0.1846  0.1532  0.0772
10535DDP     C363209  11.367  21.333   4.325 -0.0862 -0.1973 -0.3182
10535DDP     C463210  10.969  20.717   5.159  0.2598  0.1370  0.1844
10536DDP     C163211   8.105  13.447  22.228  0.0281 -0.1215 -0.0982
10536DDP     P163212   8.093  13.885  22.338  0.4293 -0.0343 -0.0673
10536DDP     P263213   8.236  13.095  22.498  0.2101 -0.1424  0.3558
10536DDP     C263214   8.257  12.937  22.832  0.2710  0.2011 -0.1565
10536DDP     C363215   7.929  14.056  22.692 -0.0821 -0.0648 -0.1230
10536DDP     C463216   7.974  13.279  21.825 -0.1039  0.0967 -0.1679
10537DDP     C163217  15.822   6.895   1.100 -0.1838  0.3747 -0.1087
10537DDP     P163218  15.376   7.050   1.102 -0.1162  0.1096  0.0922
10537DDP     P263219  15.697   6.520   0.889  0.0001  0.1807 -0.0443
10537DDP     C263220  15.795   6.468   0.457 -0.0044  0.2904  0.4090
10537DDP     C363221  15.092   7.285   1.424  0.1078 -0.1816 -0.0568
10537DDP     C463222  16.274   6.898   1.291 -0.1733  0.0417  0.1607
10538DDP     C163223  19.870   9.653  29.755 -0.2737  0.0631 -0.3836
10538DDP     P163224  19.963   9.832  29.311  0.3167  0.3759 -0.1177
10538DDP     P263225  20.291   9.501  29.926  0.2611  0.0435 -0.0660
10538DDP     C263226  20.589   9.516  30.226  0.0964  0.2886  0.2257
10538DDP     C363227  19.804   9.853  28.851 -0.2674  0.0770 -0.1614
10538DDP     C463228  19.479   9.743  29.941 -0.0650  0.0309 -0.2327
10539DDP     C163229  29.149  25.476  17.214  0.0099  0.1134  0.0131
10539DDP     P163230  29.398  25.796  17.046  0.0463 -0.2691 -0.2066
10539DDP     P263231  29.273  24.984  17.144  0.1864 -0.0031  0.0102
10539DDP     C263232  29.610  24.788  17.262 -0.0501  0.1941 -0.1384
10539DDP     C363233  29.359  26.280  16.890  0.0299 -0.2434  0.1117
10539DDP     C463234  29.021  25.805  17.486  0.2306  0.0675  0.3093
10540DDP     C163235  15.566  14.349  10.064  0.2125 -0.0732 -0.1247
10540DDP     P163236  15.487  14.417  10.446 -0.1268  0.1106  0.1338
10540DDP     P263237  16.002  14.343   9.894 -0.1770 -0.1276  0.4373
10540DDP     C263238  16.262  14.066   9.641 -0.2460 -0.0083 -0.2837
10540DDP     C363239  15.423  14.532  10.866  0.2191 -0.0745  0.0123
10540DDP     C463240  15.332  14.245   9.700  0.0166 -0.3064 -0.1570
10541DDP     C163241  10.198  24.340   4.783 -0.2742  0.2098  0.0117
10541DDP     P163242  10.306  24.009   5.133  0.1315  0.1369  0.3125
10541DDP     P263243  10.468  24.679   4.759 -0.0463 -0.0027 -0.1809
10541DDP     C263244  10.885  24.869   4.738 -0.1815 -0.1587  0.4114
10541DDP     C363245  10.448  23.747   5.529  0.1547  0.2292  0.2559
10541DDP     C463246   9.867  24.228   4.466 -0.3388 -0.0558 -0.3437
10542DDP     C163247   1.936   8.766  17.578  0.1074 -0.2789  0.0644
10542DDP     P163248   2.125   9.089  17.743 -0.2350 -0.2368  0.1196
10542DDP     P263249   1.835   8.373  17.358 -0.2859  0.1728  0.2001
10542DDP     C263250   1.648   7.963  17.261  0.4106  0.0825  0.0832
10542DDP     C363251   2.125   9.474  17.948 -0.0947  0.1648 -0.0075
10542DDP     C463252   1.537   8.625  17.856  0.0583  0.0153  0.0857
10543DDP     C163253  23.852  19.644   7.915 -0.1163 -0.1674  0.1409
10543DDP     P163254  23.950  20.015   7.915  0.1111  0.3813 -0.2453
10543DDP     P263255  23.465  19.535   7.650 -0.1241 -0.3158 -0.1019
10543DDP     C263256  23.094  19.730   7.480 -0.0306  0.1096  0.2796
10543DDP     C363257  23.871  20.238   8.257  0.2877 -0.1443  0.0677
10543DDP     C463258  24.304  19.440   7.844 -0.0447  0.2858  0.1885
10544DDP     C163259  22.053   8.979  25.918  0.0556  0.0533 -0.1082
10544DDP     P163260  22.279   9.193  26.315 -0.2122 -0.0989  0.1086
10544DDP     P263261  22.186   8.551  25.905 -0.1131 -0.1220  0.0311
10544DDP     C263262  22.170   8.272  26.213 -0.1253 -0.0519 -0.0003
10544DDP     C363263  22.334   9.509  26.670  0.2417  0.2069  0.0063
10544DDP     C463264  21.641   9.106  25.791  0.0275  0.1628 -0.2714
10545DDP     C163265  16.100   9.814   2.332  0.0454  0.1414  0.0238
10545DDP     P163266  15.879   9.847   2.718 -0.1040 -0.0054  0.2440
10545DDP     P263267  15.965   9.363   2.107  0.1721 -0.0581 -0.1146
10545DDP     C263268  15.947   9.168   1.707  0.0324  0.0660 -0.1668
10545DDP     C363269  15.678  10.251   3.039  0.0604 -0.1937  0.1530
10545DDP     C463270  16.294  10.156   2.243 -0.4546 -0.1423  0.0170
10546DDP     C163271   3.613  28.808  21.622 -0.1487 -0.2232 -0.1686
10546DDP     P163272   3.150  29.007  21.647 -0.1010  0.0748 -0.1153
10546DDP     P263273   3.623  28.376  21.742  0.0867 -0.0781  0.1974
10546DDP     C263274   3.620  27.917  21.739  0.3112  0.0297 -0.0282
10546DDP     C363275   2.829  29.073  21.792 -0.2301 -0.0332 -0.0027
10546DDP     C463276   4.002  29.034  21.433  0.1016  0.3954  0.2131
10547DDP     C163277   2.804  12.725   2.466  0.0369  0.1036  0.2948
10547DDP     P163278   2.935  13.064   2.131 -0.3618 -0.2379 -0.1581
10547DDP     P263279   2.467  12.489   2.373  0.2579 -0.0254 -0.2408
10547DDP     C263280   2.112  12.383   2.727 -0.3638 -0.0510 -0.0034
10547DDP     C363281   2.981  13.228   1.671  0.2137  0.1223 -0.0664
10547DDP     C463282   3.030  12.687   2.872  0.1591  0.1207 -0.1072
10548DDP     C163283  18.412  12.042  27.480  0.0297 -0.0279  0.0146
10548DDP     P163284  18.339  12.191  27.882 -0.1754 -0.0858  0.1967
10548DDP     P263285  18.655  12.409  27.429 -0.0134  0.1622 -0.1377
10548DDP     C263286  18.725  12.858  27.469 -0.1847  0.2435 -0.0418
10548DDP     C363287  18.384  12.042  28.315  0.0744  0.1920 -0.2315
10548DDP     C463288  18.519  11.567  27.328  0.0326  0.0652  0.1208
10549DDP     C163289   2.225  23.723  29.513  0.1694  0.1323 -0.2169
10549DDP     P163290   2.506  23.456  29.489  0.0593 -0.0175 -0.0129
10549DDP     P263291   1.930  23.523  29.331 -0.1586  0.0378 -0.1258
10549DDP     C263292   1.516  23.518  29.489  0.1089 -0.1906  0.0792
10549DDP     C363293   2.697  23.117  29.291  0.0553 -0.0667  0.1147
10549DDP     C463294   2.268  24.078  29.650  0.1893 -0.0675 -0.1295
10550DDP     C163295  13.193   5.515  28.709  0.3076  0.0243  0.2501
10550DDP     P163296  13.676   5.481  28.529 -0.0095  0.0471  0.1218
10550DDP     P263297  13.150   5.870  28.964  0.2581 -0.0222  0.1583
10550DDP     C263298  13.487   6.048  29.236  0.0044  0.3080  0.3887
10550DDP     C363299  13.926   5.731  28.270 -0.0735  0.2228 -0.0349
10550DDP     C463300  12.822   5.465  28.476  0.2098 -0.2125  0.0742
10551DDP     C163301  21.320  21.059  22.732  0.2029 -0.0139 -0.0737
10551DDP     P163302  21.276  20.835  22.241  0.1642 -0.2433 -0.2827
10551DDP     P263303  20.904  20.832  22.914 -0.1984  0.1741  0.0574
10551DDP     C263304  20.473  20.966  23.104  0.2626  0.1082  0.0140
10551DDP     C363305  21.114  20.659  21.823 -0.1417  0.0334 -0.0760
10551DDP     C463306  21.729  21.190  22.888 -0.1545  0.2855  0.1075
10552DDP     C163307  10.645   1.893  22.556  0.2395 -0.2928 -0.2337
10552DDP     P163308  10.781   2.065  23.043 -0.2751  0.1439 -0.0232
10552DDP     P263309  10.961   1.647  22.259  0.3185 -0.2061 -0.0372
10552DDP     C263310  11.321   1.478  22.352 -0.1299 -0.0241 -0.0257
10552DDP     C363311  11.036   2.301  23.263 -0.0622 -0.1808 -0.0654
10552DDP     C463312  10.210   2.022  22.531 -0.0786 -0.0727 -0.2935
10553DDP     C163313   7.060  17.993   2.704 -0.1228 -0.0129 -0.2491
10553DDP     P163314   7.270  17.616   2.541  0.0806 -0.3474 -0.1989
10553DDP     P263315   6.616  18.054   2.907 -0.0591 -0.2050 -0.0437
10553DDP     C263316   6.342  18.408   2.874  0.3892 -0.1315 -0.0134
10553DDP     C363317   7.293  17.203   2.326  0.2234  0.4447  0.1522
10553DDP     C463318   7.352  18.258   2.853  0.2273  0.1543  0.0433
10554DDP     C163319   7.117  22.060  12.985  0.0340 -0.0913  0.3267
10554DDP     P163320   7.331  21.681  13.153 -0.0249  0.0033 -0.0362
10554DDP     P263321   6.648  21.939  13.025  0.0700  0.3259 -0.2705
10554DDP     C263322   6.149  21.821  13.086 -0.0661  0.3012 -0.1689
10554DDP     C363323   7.445  21.575  13.523  0.2222 -0.2629  0.1357
10554DDP     C463324   7.375  22.490  12.821  0.2366 -0.3999 -0.1529
10555DDP     C163325  17.690  18.264  20.343 -0.1489  0.1723 -0.1293
10555DDP     P163326  17.992  18.433  20.108  0.0186  0.3303  0.1362
10555DDP     P263327  17.503  17.919  20.147  0.0397 -0.3085 -0.1820
10555DDP     C263328  17.582  17.675  19.894  0.1975 -0.1948 -0.0198
10555DDP     C363329  17.989  18.584  19.788  0.0614 -0.2406 -0.3940
10555DDP     C463330  17.753  18.287  20.701  0.0740 -0.1596 -0.0650
10556DDP     C163331   6.284   8.390  28.928  0.2047  0.1581 -0.1613
10556DDP     P163332   6.225   8.030  28.742  0.0557  0.0941  0.0181
10556DDP     P263333   6.040   8.826  29.109  0.2775  0.1037 -0.0527
10556DDP     C263334   5.786   9.276  29.209 -0.2127 -0.0860 -0.0308
10556DDP     C363335   6.470   7.625  28.663  0.3071 -0.0238  0.1801
10556DDP     C463336   6.756   8.662  28.801 -0.0107  0.2707  0.3436
10557DDP     C163337  22.566  16.503  16.205  0.1989 -0.0153 -0.0641
10557DDP     P163338  22.238  16.643  16.300 -0.0138 -0.0191  0.1978
10557DDP     P263339  22.850  16.744  15.906 -0.1614 -0.2771  0.0227
10557DDP     C263340  22.786  17.113  15.532  0.0349 -0.1003  0.2344
10557DDP     C363341  21.987  17.033  16.539  0.0140  0.0684 -0.2197
10557DDP     C463342  22.597  16.111  16.356 -0.0733 -0.0935  0.0031
10558DDP     C163343  19.388  18.493   6.086  0.2760 -0.0554  0.1254
10558DDP     P163344  19.024  18.725   6.199 -0.3044 -0.0554  0.3677
10558DDP     P263345  19.339  18.229   6.370 -0.0455  0.3444  0.3088
10558DDP     C263346  19.449  17.776   6.198  0.3148  0.3945  0.3650
10558DDP     C363347  18.874  18.965   6.619 -0.2216 -0.3352  0.4161
10558DDP     C463348  19.536  18.362   5.733 -0.3287 -0.3082 -0.3636
10559DDP     C163349  26.136  28.157   0.589 -0.5251  0.0509 -0.1378
10559DDP     P163350  25.874  28.125   0.235  0.2404  0.1355  0.2150
10559DDP     P263351  26.383  27.783   0.501  0.2213 -0.2841 -0.2898
10559DDP     C263352  26.553  27.542   0.190 -0.0946  0.2924 -0.1768
10559DDP     C363353  25.506  28.018   0.175 -0.3547  0.0682 -0.1573
10559DDP     C463354  26.111  28.559   0.795  0.0215 -0.0398  0.0145
10560DDP     C163355  25.407   2.837   3.488  0.1689  0.0643  0.1427
10560DDP     P163356  25.340   2.681   3.076  0.0075 -0.2006 -0.3663
10560DDP     P263357  25.117   2.748   3.807  0.0057 -0.1072 -0.1234
10560DDP     C263358  24.938   2.423   4.097 -0.0811  0.1416  0.2388
10560DDP     C363359  25.002   2.414   2.880 -0.0487  0.0781 -0.1005
10560DDP     C463360  25.792   3.163   3.596  0.1339 -0.0778 -0.0425
10561DDP     C163361  12.920  17.166  16.968 -0.3155 -0.0065  0.2823
10561DDP     P163362  13.301  17.343  17.161 -0.1252  0.1216  0.1030
10561DDP     P263363  13.037  17.239  16.458  0.3047  0.3596 -0.0825
10561DDP     C263364  13.098  17.208  16.003 -0.0005 -0.2363  0.0277
10561DDP     C363365  13.711  17.359  17.221 -0.2879  0.2282 -0.0535
10561DDP     C463366  12.772  16.744  17.101 -0.1832  0.1105  0.3109
10562DDP     C163367  28.222   4.128  20.557  0.0176  0.4509  0.0964
10562DDP     P163368  28.284   3.659  20.477  0.0459 -0.1304  0.3947
10562DDP     P263369  28.654   4.293  20.582 -0.1571 -0.1338  0.0653
10562DDP     C263370  28.962   4.524  20.305  0.0812  0.1872  0.0792
10562DDP     C363371  28.446   3.311  20.133  0.0748  0.0703  0.0431
10562DDP     C463372  27.833   4.401  20.584  0.2838 -0.1482 -0.2443
10563DDP     C163373  18.269  10.841   2.551  0.2541  0.0157  0.1220
10563DDP     P163374  17.948  10.607   2.567  0.0771 -0.3827  0.0731
10563DDP     P263375  18.579  10.883   2.421  0.2162 -0.2601  0.0563
10563DDP     C263376  18.954  10.931   2.582  0.1483  0.1841 -0.0631
10563DDP     C363377  17.448  10.690   2.510 -0.3323 -0.1781  0.0986
10563DDP     C463378  18.252  11.220   2.802 -0.2822 -0.2557  0.2837
10564DDP     C163379  10.487   6.466   7.353  0.0939  0.0507  0.2120
10564DDP     P163380  10.706   6.734   6.993 -0.2743  0.0873  0.2725
10564DDP     P263381  10.022   6.302   7.367 -0.0139  0.0737  0.1488
10564DDP     C263382   9.921   5.922   7.656  0.0953 -0.2715 -0.0890
10564DDP     C363383  10.566   6.769   6.649  0.0409 -0.3021  0.0956
10564DDP     C463384  10.869   6.661   7.487  0.0640  0.3018 -0.3204
10565DDP     C163385  24.307   7.419  10.052  0.1597  0.1046 -0.0552
10565DDP     P163386  24.421   7.812   9.918  0.0922 -0.1622 -0.0607
10565DDP     P263387  24.125   7.406  10.464  0.0274 -0.0026  0.3671
10565DDP     C263388  23.804   7.303  10.851 -0.0871 -0.1530  0.2712
10565DDP     C363389  24.722   8.134   9.723 -0.0181 -0.1920 -0.0571
10565DDP     C463390  24.352   7.038   9.798  0.0508  0.0068  0.1011
10566DDP     C163391  25.248  19.739  15.632  0.1951  0.2034 -0.1177
10566DDP     P163392  25.588  19.808  15.303 -0.3803 -0.0597 -0.1613
10566DDP     P263393  25.364  19.527  16.053 -0.1353  0.3685 -0.1715
10566DDP     C263394  25.275  19.207  16.308  0.1673 -0.1048  0.0206
10566DDP     C363395  25.894  20.043  15.422 -0.1743 -0.0248 -0.1093
10566DDP     C463396  24.736  19.764  15.765 -0.0162  0.0202 -0.3942
10567DDP     C163397  17.121   4.652  20.683  0.0615  0.0070 -0.0530
10567DDP     P163398  17.231   5.087  20.647 -0.0395 -0.2664 -0.1778
10567DDP     P263399  17.269   4.450  20.373  0.0658 -0.1247  0.1328
10567DDP     C263400  17.057   4.046  20.248 -0.2224  0.0386  0.0905
10567DDP     C363401  17.135   5.530  20.657 -0.0888 -0.0755  0.0095
10567DDP     C463402  16.857   4.562  21.070 -0.0742 -0.3484  0.3311
10568DDP     C163403   2.544   2.329  17.280  0.4021 -0.0539 -0.3432
10568DDP     P163404   2.668   2.744  17.208 -0.0079  0.0821 -0.2483
10568DDP     P263405   2.099   2.208  17.091 -0.1165  0.1660  0.1028
10568DDP     C263406   1.810   2.412  16.867  0.1827  0.0435 -0.2054
10568DDP     C363407   2.288   3.081  17.422 -0.2412  0.1261 -0.1373
10568DDP     C463408   2.826   2.160  17.563  0.1652  0.1459  0.1853
10569DDP     C163409   9.414   9.325  26.437  0.0771  0.4204  0.3716
10569DDP     P163410   9.515   8.919  26.730  0.3437 -0.2215 -0.0120
10569DDP     P263411   9.003   9.350  26.294 -0.2454 -0.1934 -0.0659
10569DDP     C263412   8.803   9.490  25.828  0.1073 -0.0722  0.0179
10569DDP     C363413   9.565   8.680  27.092  0.2801 -0.0897 -0.3502
10569DDP     C463414   9.672   9.352  26.082 -0.0942  0.3594 -0.2020
10570DDP     C163415  16.155  27.540   9.781 -0.1025 -0.0099  0.1105
10570DDP     P163416  16.427  27.320  10.158 -0.0884  0.0016 -0.0781
10570DDP     P263417  16.037  27.185   9.527 -0.2534  0.3629  0.0770
10570DDP     C263418  15.882  26.945   9.187 -0.0570 -0.0102  0.1758
10570DDP     C363419  16.816  27.070  10.403  0.0152 -0.1104  0.1919
10570DDP     C463420  16.128  27.942   9.736 -0.0365 -0.2092 -0.0188
10571DDP     C163421   6.363  19.298   8.559  0.0134 -0.3280  0.0792
10571DDP     P163422   5.996  19.564   8.538 -0.0124  0.0579  0.0736
10571DDP     P263423   6.482  19.090   8.180  0.3557  0.1545 -0.0813
10571DDP     C263424   6.451  19.229   7.780 -0.0503  0.1040 -0.1660
10571DDP     C363425   5.650  19.564   8.729  0.0047  0.1787  0.1054
10571DDP     C463426   6.605  19.169   8.940 -0.2870  0.0357  0.1337
10572DDP     C163427  13.840  12.878   6.578 -0.0418  0.2269  0.1511
10572DDP     P163428  13.508  13.057   6.609 -0.1337 -0.0243  0.1395
10572DDP     P263429  13.760  12.462   6.803  0.2154 -0.1450 -0.1488
10572DDP     C263430  13.382  12.373   7.158 -0.0135 -0.1259  0.0026
10572DDP     C363431  13.424  13.430   6.426  0.2109  0.0569  0.1059
10572DDP     C463432  14.073  12.959   6.130 -0.3073 -0.3918 -0.1779
10573DDP     C163433   7.184  25.191   9.386  0.1178 -0.0021  0.0720
10573DDP     P163434   6.901  24.883   9.063 -0.1515  0.0238  0.2203
10573DDP     P263435   7.427  25.035   9.835 -0.0504  0.1245  0.1763
10573DDP     C263436   7.834  24.828  10.088 -0.0967  0.3368 -0.0313
10573DDP     C363437   6.784  24.966   8.565  0.0049  0.0192 -0.0624
10573DDP     C463438   7.359  25.620   9.250  0.1217 -0.1693  0.4578
10574DDP     C163439   0.235  24.497   9.747 -0.0969 -0.2169  0.1243
10574DDP     P163440   0.441  24.061   9.665  0.3354  0.0591 -0.2521
10574DDP     P263441  30.103  24.665   9.842 -0.1347  0.1131 -0.0924
10574DDP     C263442  29.776  24.547  10.203 -0.0422  0.4039 -0.1546
10574DDP     C363443   0.438  23.617   9.870 -0.0314 -0.1703  0.0292
10574DDP     C463444   0.620  24.632   9.814 -0.2046  0.2462 -0.0477
10575DDP     C163445   9.450  29.277  24.789 -0.0890  0.0077 -0.0964
10575DDP     P163446   9.091  28.990  24.903  0.1263 -0.1470  0.1874
10575DDP     P263447   9.636  29.641  24.971  0.0432  0.0922  0.0454
10575DDP     C263448   9.679  30.124  24.894 -0.2883  0.1004 -0.3378
10575DDP     C363449   8.998  28.568  24.745  0.2408  0.1845 -0.1258
10575DDP     C463450   9.818  29.145  24.460  0.2199 -0.0304  0.0534
10576DDP     C163451  26.915  28.403   9.261 -0.0090  0.2212  0.0917
10576DDP     P163452  27.199  28.018   9.219  0.0036 -0.1194  0.0548
10576DDP     P263453  26.555  28.235   9.510 -0.2014  0.0603  0.1606
10576DDP     C263454  26.396  28.213   9.889 -0.2087 -0.0387 -0.1943
10576DDP     C363455  27.334  27.609   8.886  0.1504  0.0178  0.1206
10576DDP     C463456  27.044  28.820   9.219  0.1207 -0.3387  0.2845
10577DDP     C163457   5.522  26.321   9.288  0.2760 -0.1957  0.2334
10577DDP     P163458   5.981  26.339   9.386 -0.1737 -0.0822 -0.0833
10577DDP     P263459   5.452  26.572   9.549 -0.3478  0.1448  0.2109
10577DDP     C263460   5.421  26.379   9.880  0.1484  0.0959  0.2139
10577DDP     C363461   6.329  26.582   9.662  0.0159  0.1899 -0.1307
10577DDP     C463462   5.270  26.151   8.959 -0.1915 -0.0334 -0.0122
10578DDP     C163463  16.337   5.993  13.311  0.1955  0.1169 -0.1218
10578DDP     P163464  16.512   6.385  13.306 -0.2057  0.0316 -0.2059
10578DDP     P263465  16.210   5.672  12.912  0.0946  0.0408 -0.2479
10578DDP     C263466  16.623   5.606  12.674  0.2050  0.1886  0.2051
10578DDP     C363467  16.812   6.830  13.195  0.2621  0.1101 -0.0522
10578DDP     C463468  16.143   6.066  13.844 -0.2445  0.0769 -0.1314
10579DDP     C163469  17.131   5.732  26.785  0.0020  0.1662  0.3782
10579DDP     P163470  16.748   5.901  26.760 -0.2344  0.2731  0.0971
10579DDP     P263471  17.453   6.073  26.914  0.1255 -0.1102 -0.0980
10579DDP     C263472  17.835   6.388  26.990  0.1236 -0.1230  0.0640
10579DDP     C363473  16.337   6.023  26.571 -0.0749 -0.0986 -0.0085
10579DDP     C463474  17.230   5.503  26.420 -0.1279  0.3367  0.2783
10580DDP     C163475   9.726  16.082   6.710 -0.3707 -0.0394 -0.0006
10580DDP     P163476   9.823  15.980   7.199  0.0746 -0.2879  0.0277
10580DDP     P263477   9.590  16.436   6.482  0.0003  0.1488 -0.1506
10580DDP     C263478   9.601  16.836   6.258  0.0176 -0.0879  0.1800
10580DDP     C363479  10.131  15.789   7.556 -0.0519  0.2093  0.1393
10580DDP     C463480   9.233  15.992   6.601  0.0320  0.1195  0.0071
10581DDP     C163481   5.122  10.323  16.937 -0.2946 -0.0515 -0.2297
10581DDP     P163482   5.127  10.344  16.489  0.1704  0.0436  0.1233
10581DDP     P263483   5.124  10.675  17.256 -0.2099 -0.0384 -0.0630
10581DDP     C263484   4.818  10.924  17.418  0.0560 -0.0211  0.4365
10581DDP     C363485   5.543  10.496  16.332 -0.2810  0.0563  0.1988
10581DDP     C463486   5.254   9.933  17.109 -0.1372 -0.2419  0.1556
10582DDP     C163487  15.767   2.739  16.367 -0.3930  0.0188 -0.2131
10582DDP     P163488  15.666   2.370  16.718  0.0673 -0.2817 -0.0946
10582DDP     P263489  15.567   2.996  16.086 -0.0108  0.1198 -0.0180
10582DDP     C263490  15.275   2.702  15.828 -0.1901 -0.2695 -0.0050
10582DDP     C363491  15.580   2.091  17.043  0.0414  0.0544  0.0928
10582DDP     C463492  16.230   2.834  16.356 -0.0415  0.2798 -0.2310
10583DDP     C163493  27.054   7.527   3.635 -0.2061 -0.1667 -0.2302
10583DDP     P163494  27.057   7.563   3.133  0.1731  0.1223 -0.0493
10583DDP     P263495  27.368   7.304   3.813  0.1671  0.0803  0.0195
10583DDP     C263496  27.657   7.074   3.502 -0.0357  0.1610  0.0773
10583DDP     C363497  27.188   7.298   2.841  0.1906 -0.0371 -0.0149
10583DDP     C463498  26.724   7.592   3.824  0.2458 -0.1885  0.0706
10584DDP     C163499   9.160  28.109  22.062  0.1201 -0.1920  0.2319
10584DDP     P163500   8.828  28.005  21.730  0.3538 -0.0437 -0.0123
10584DDP     P263501   9.177  28.514  22.180  0.0339  0.0651 -0.0884
10584DDP     C263502   9.263  28.840  22.556 -0.0248 -0.1504  0.0658
10584DDP     C363503   8.636  27.743  21.709  0.2069  0.2183  0.3807
10584DDP     C463504   9.477  27.810  22.168  0.3055 -0.2126  0.1817
10585DDP     C163505  16.498  18.528  21.884  0.1770 -0.1493 -0.0403
10585DDP     P163506  16.666  18.170  21.810 -0.0317 -0.0939  0.3831
10585DDP     P263507  16.610  19.000  21.885 -0.3518 -0.1544  0.0129
10585DDP     C263508  16.911  19.357  21.815 -0.5042  0.1600  0.0293
10585DDP     C363509  16.882  17.994  21.346  0.0767  0.1569 -0.0162
10585DDP     C463510  16.124  18.542  21.787 -0.1791 -0.0159  0.2734
10586DDP     C163511   9.182  27.892  28.120 -0.2174  0.3648  0.1996
10586DDP     P163512   9.124  27.413  28.021 -0.1419  0.0464  0.2083
10586DDP     P263513   9.564  28.014  28.072 -0.3105 -0.0313 -0.2625
10586DDP     C263514   9.912  27.740  27.973 -0.1539  0.0621 -0.1050
10586DDP     C363515   8.898  27.097  28.232  0.0563  0.0086 -0.4022
10586DDP     C463516   8.799  28.097  28.235  0.0004 -0.3233  0.2160
10587DDP     C163517  19.199  12.497  18.152 -0.0018 -0.4127 -0.1116
10587DDP     P163518  18.981  12.841  18.318  0.1519  0.1102  0.3694
10587DDP     P263519  19.593  12.648  18.274  0.0496  0.1941  0.4460
10587DDP     C263520  20.085  12.671  18.105 -0.0375  0.0677  0.0878
10587DDP     C363521  18.508  12.911  18.589 -0.1862  0.1808 -0.0212
10587DDP     C463522  18.948  12.331  17.765 -0.2603  0.0366 -0.1794
10588DDP     C163523   8.899  20.304   2.834 -0.0047  0.0980  0.1936
10588DDP     P163524   8.975  19.948   2.587 -0.0461 -0.0201 -0.0258
10588DDP     P263525   8.961  20.664   2.569 -0.0615 -0.2695 -0.4455
10588DDP     C263526   9.012  21.057   2.289 -0.1343 -0.2408  0.0204
10588DDP     C363527   9.126  19.523   2.529  0.1131 -0.1614 -0.0320
10588DDP     C463528   8.775  20.353   3.232 -0.0606 -0.2447 -0.0915
10589DDP     C163529  14.254  10.156   1.120  0.2447  0.0300  0.0770
10589DDP     P163530  14.665   9.987   0.926  0.0306  0.2271  0.0283
10589DDP     P263531  13.911   9.887   1.041 -0.1388  0.0593  0.0309
10589DDP     C263532  13.774   9.384   0.940  0.0326  0.1407  0.0523
10589DDP     C363533  14.812   9.841   0.513  0.0092  0.0151 -0.0280
10589DDP     C463534  14.149  10.564   1.245 -0.1262 -0.4190  0.2513
10590DDP     C163535  28.695   1.722  20.555 -0.2204 -0.3165  0.3235
10590DDP     P163536  28.956   1.484  20.769 -0.2681 -0.3117 -0.2600
10590DDP     P263537  28.734   1.994  20.324 -0.2237 -0.1549  0.0689
10590DDP     C263538  28.804   2.306  20.257  0.0203  0.1823 -0.0758
10590DDP     C363539  28.978   1.155  21.084  0.0795  0.0949 -0.2386
10590DDP     C463540  28.181   1.691  20.638  0.1435 -0.0037  0.2014
10591DDP     C163541  29.536  28.564  30.034 -0.2412 -0.1365 -0.0350
10591DDP     P163542  29.842  28.603   0.069 -0.1466 -0.0398 -0.0269
10591DDP     P263543  29.248  28.523   0.032  0.0012 -0.3238 -0.0871
10591DDP     C263544  29.034  28.716   0.350 -0.0295 -0.1696 -0.1395
10591DDP     C363545  30.129  28.354   0.329 -0.0002  0.1714 -0.0155
10591DDP     C463546  29.297  28.411  29.645  0.3366  0.0297 -0.2715
10592DDP     C163547  29.187   3.621  16.870 -0.3122 -0.1583  0.3619
10592DDP     P163548  29.622   3.871  16.800 -0.2783 -0.2285  0.4986
10592DDP     P263549  28.843   3.892  17.125  0.1393  0.0660  0.3254
10592DDP     C263550  28.501   3.926  17.340 -0.2827 -0.1783 -0.2114
10592DDP     C363551  29.951   3.991  17.036  0.2794 -0.2421  0.0375
10592DDP     C463552  29.143   3.242  16.675 -0.0628 -0.0251  0.0062
10593DDP     C163553  10.013  13.543  13.303 -0.1218 -0.0332 -0.0331
10593DDP     P163554   9.735  13.164  13.492  0.2828  0.1900  0.1142
10593DDP     P263555  10.434  13.770  13.389 -0.0329  0.1333 -0.0403
10593DDP     C263556  10.718  13.658  13.475 -0.1188 -0.0027  0.0674
10593DDP     C363557   9.733  12.737  13.526 -0.2139 -0.0203 -0.0490
10593DDP     C463558   9.774  13.625  12.960 -0.0084 -0.3010 -0.0020
10594DDP     C163559  11.079   1.362  17.695  0.0210  0.0790  0.0193
10594DDP     P163560  11.226   1.704  17.963  0.1836  0.1444  0.3480
10594DDP     P263561  11.278   0.917  17.705 -0.0721 -0.0161 -0.2972
10594DDP     C263562  11.674   0.788  17.436  0.0976  0.0669 -0.2688
10594DDP     C363563  11.580   1.661  18.255  0.2456  0.0913  0.1295
10594DDP     C463564  10.714   1.586  17.723  0.0732  0.1219 -0.0994
10595DDP     C163565  29.581  11.212  25.849 -0.1978 -0.0772 -0.1945
10595DDP     P163566  29.746  11.510  25.831  0.1555  0.0938  0.0405
10595DDP     P263567  29.254  11.390  25.691  0.0311 -0.1984  0.0993
10595DDP     C263568  29.145  11.573  25.296 -0.2463  0.0106  0.2561
10595DDP     C363569  30.075  11.819  25.803  0.0194 -0.0508 -0.3080
10595DDP     C463570  29.636  10.831  25.988  0.1277 -0.0738  0.1314
10596DDP     C163571   0.758   7.369  28.448 -0.0417  0.3630  0.0390
10596DDP     P163572   0.944   7.495  28.776  0.2864 -0.1524 -0.1738
10596DDP     P263573   0.682   6.946  28.453  0.4236  0.1050 -0.2069
10596DDP     C263574   0.512   6.581  28.536  0.1633  0.2688 -0.0476
10596DDP     C363575   0.673   7.766  29.013  0.2579  0.2411  0.2373
10596DDP     C463576   1.047   7.565  28.157  0.0475  0.0285 -0.0831
10597DDP     C163577  15.741  24.935   3.389  0.0286  0.1572 -0.3243
10597DDP     P163578  15.496  24.664   3.607 -0.0302 -0.2255 -0.2062
10597DDP     P263579  15.860  24.903   2.880  0.0501 -0.1238 -0.0759
10597DDP     C263580  16.164  24.818   2.577 -0.0086  0.2286  0.0692
10597DDP     C363581  15.101  24.429   3.774 -0.0466 -0.1453 -0.1287
10597DDP     C463582  15.616  25.244   3.655  0.0083  0.0263  0.4548
10598DDP     C163583   7.148  20.610   0.029 -0.0887  0.1137  0.0002
10598DDP     P163584   7.297  20.395  29.948  0.0569  0.1159 -0.2435
10598DDP     P263585   6.810  20.508   0.168  0.0749  0.1054  0.0970
10598DDP     C263586   6.484  20.130   0.364  0.2503 -0.0195  0.1590
10598DDP     C363587   7.150  20.122  29.521 -0.0502 -0.0008  0.3015
10598DDP     C463588   7.238  21.068   0.147 -0.2786 -0.0576 -0.0360
10599DDP     C163589  15.854   6.492  14.428 -0.0021 -0.4542  0.0197
10599DDP     P163590  15.692   6.079  14.166  0.1430  0.3256 -0.4695
10599DDP     P263591  15.910   6.263  14.828 -0.1198  0.0857 -0.0058
10599DDP     C263592  15.694   6.322  15.267  0.2483  0.4713  0.1160
10599DDP     C363593  15.351   5.765  14.149  0.0311  0.1894 -0.0991
10599DDP     C463594  15.755   7.001  14.520 -0.0962 -0.1420  0.1426
10600DDP     C163595   3.533  18.837  28.804  0.1208 -0.0303  0.1475
10600DDP     P163596   3.908  18.791  29.077  0.0897  0.5109  0.2203
10600DDP     P263597   3.561  19.275  28.727 -0.2325  0.2497 -0.3871
10600DDP     C263598   3.742  19.469  29.059  0.0045 -0.0848  0.1126
10600DDP     C363599   3.866  19.014  29.564  0.1264 -0.2441 -0.2433
10600DDP     C463600   3.196  18.582  28.568 -0.2206  0.0883 -0.0902
10601DDP     C163601  21.936  22.266   2.593 -0.0231 -0.1455  0.1002
10601DDP     P163602  21.551  22.110   2.640 -0.0596  0.4613  0.0522
10601DDP     P263603  22.280  22.070   2.723  0.0451  0.1000 -0.2368
10601DDP     C263604  22.728  22.095   2.902  0.1163 -0.2200  0.0804
10601DDP     C363605  21.096  22.254   2.624 -0.1935  0.0297  0.0366
10601DDP     C463606  21.932  22.775   2.644  0.3184  0.1205  0.2293
10602DDP     C163607   1.554  19.705  14.258 -0.0247 -0.3379 -0.1303
10602DDP     P163608   1.351  19.886  14.574  0.0317 -0.2952  0.1039
10602DDP     P263609   1.891  19.981  14.279  0.2828 -0.1052 -0.4593
10602DDP     C263610   1.866  20.334  14.484 -0.0799  0.1687  0.2730
10602DDP     C363611   1.072  19.924  14.897 -0.0042  0.2415  0.0916
10602DDP     C463612   1.567  19.346  13.980 -0.3632 -0.0170 -0.1394
10603DDP     C163613  13.077  15.527   1.278  0.0803  0.0751  0.2466
10603DDP     P163614  13.089  15.097   1.507 -0.1617  0.2820 -0.1507
10603DDP     P263615  12.867  15.526   0.865  0.0437  0.1882  0.3237
10603DDP     C263616  13.010  15.787   0.451 -0.1634  0.2927 -0.0177
10603DDP     C363617  13.137  14.793   1.834  0.2459  0.2601  0.5284
10603DDP     C463618  13.457  15.675   1.512 -0.1264  0.0116 -0.0408
10604DDP     C163619   2.778  26.307  11.802  0.1312 -0.1233  0.1351
10604DDP     P163620   2.914  26.489  11.414 -0.0993 -0.0143  0.0288
10604DDP     P263621   2.386  26.468  11.945  0.0011  0.1723 -0.0106
10604DDP     C263622   2.102  26.285  12.209  0.0617  0.1367  0.0570
10604DDP     C363623   3.184  26.609  11.092  0.1223  0.0628  0.0469
10604DDP     C463624   3.060  26.001  12.062 -0.1285  0.1214 -0.1394
10605DDP     C163625  25.595   0.913   8.431  0.0147 -0.0500  0.2761
10605DDP     P163626  25.593   0.696   8.091 -0.1086 -0.1856  0.1369
10605DDP     P263627  25.438   1.230   8.309  0.2075 -0.1650 -0.0534
10605DDP     C263628  25.581   1.629   8.105  0.0917  0.1657 -0.1579
10605DDP     C363629  25.685   0.333   8.010  0.1766  0.0728  0.0562
10605DDP     C463630  25.935   0.814   8.755  0.4394 -0.1343  0.0956
10606DDP     C163631  15.945   5.323  10.076  0.0012 -0.2478 -0.1609
10606DDP     P163632  15.609   5.463  10.351  0.0250 -0.2604 -0.0511
10606DDP     P263633  16.368   5.209  10.204  0.0104  0.0894  0.3207
10606DDP     C263634  16.733   4.901  10.018 -0.2038 -0.1798  0.1157
10606DDP     C363635  15.302   5.717  10.241  0.1859 -0.0590  0.0921
10606DDP     C463636  15.862   5.094   9.670 -0.2479  0.0018  0.0240
10607DDP     C163637   3.774  30.186   5.569 -0.0871  0.1092  0.2469
10607DDP     P163638   3.853  29.774   5.387 -0.0700 -0.0840  0.2877
10607DDP     P263639   4.115  30.189   5.669  0.0309  0.1610  0.0230
10607DDP     C263640   4.489  30.291   5.759 -0.0375 -0.0880 -0.1094
10607DDP     C363641   3.989  29.499   5.049 -0.0864  0.0103  0.2417
10607DDP     C463642   3.549   0.130   5.668 -0.0111  0.0437  0.2464
10608DDP     C163643  23.121  10.918   4.305  0.1871 -0.0086 -0.0419
10608DDP     P163644  23.024  10.582   4.096 -0.0804 -0.1748 -0.1648
10608DDP     P263645  23.505  10.804   4.526  0.0789 -0.0380 -0.1673
10608DDP     C263646  23.959  10.962   4.389  0.0176  0.2444  0.0169
10608DDP     C363647  22.865  10.536   3.830  0.0451  0.0627 -0.1665
10608DDP     C463648  22.916  11.363   4.173 -0.3257 -0.0986  0.1674
10609DDP     C163649  24.169   5.849  29.956 -0.3036  0.1146  0.0261
10609DDP     P163650  23.794   6.029  30.148 -0.1525 -0.1797  0.1044
10609DDP     P263651  24.290   6.021  29.635  0.2519  0.0114 -0.0906
10609DDP     C263652  24.538   6.233  29.335  0.0023 -0.1869  0.0148
10609DDP     C363653  23.311   5.954  30.195  0.1200  0.2075 -0.0632
10609DDP     C463654  23.973   5.488  30.183  0.2605  0.3441  0.1420
10610DDP     C163655   5.302   6.616   2.863 -0.1952 -0.0089 -0.0830
10610DDP     P163656   5.345   6.581   3.264  0.2579 -0.1025  0.1969
10610DDP     P263657   4.883   6.568   2.760 -0.1254  0.1261  0.1977
10610DDP     C263658   4.597   6.274   2.782  0.1077  0.2441 -0.0599
10610DDP     C363659   5.470   6.433   3.652 -0.0040  0.1921  0.0459
10610DDP     C463660   5.546   6.848   2.583  0.2432 -0.1483  0.0961
10611DDP     C163661   6.015   1.228   0.809  0.1878 -0.3773  0.2849
10611DDP     P163662   5.803   1.479   0.984  0.0490 -0.0263  0.1440
10611DDP     P263663   5.874   0.858   0.455 -0.0740 -0.2630  0.0162
10611DDP     C263664   5.806   0.844  30.321 -0.1783  0.2950  0.4007
10611DDP     C363665   5.676   1.869   0.825  0.0246 -0.2573  0.0212
10611DDP     C463666   6.422   1.488   0.717  0.3353 -0.2271  0.1188
10612DDP     C163667   0.755  19.885   1.092  0.1355 -0.2730  0.3543
10612DDP     P163668   1.213  19.852   0.988  0.1200 -0.3381 -0.0867
10612DDP     P263669   0.616  20.013   1.442 -0.2399 -0.0784  0.1392
10612DDP     C263670   0.175  20.017   1.584 -0.3358  0.1011  0.0347
10612DDP     C363671   1.570  19.873   0.791  0.0049 -0.1507  0.2057
10612DDP     C463672   0.524  19.447   0.777  0.1599  0.0035 -0.1983
10613DDP     C163673  22.618   5.868   9.354 -0.2856  0.1471  0.1027
10613DDP     P163674  22.638   5.537   9.134  0.3837 -0.1742 -0.2168
10613DDP     P263675  23.007   6.178   9.486 -0.1634 -0.1082  0.0239
10613DDP     C263676  23.071   6.559   9.607 -0.1836  0.0232  0.0394
10613DDP     C363677  22.930   5.425   8.812 -0.0608 -0.0917 -0.0057
10613DDP     C463678  22.226   5.746   9.516  0.1462 -0.2425  0.1278
10614DDP     C163679  12.387   2.834  21.208  0.0864  0.1976  0.0540
10614DDP     P163680  12.781   3.030  21.103  0.1103 -0.0464  0.2091
10614DDP     P263681  12.073   2.768  20.826 -0.2437 -0.1725 -0.0377
10614DDP     C263682  12.038   2.804  20.344 -0.4555  0.1112  0.0066
10614DDP     C363683  13.193   3.308  21.165 -0.1569  0.1790  0.0627
10614DDP     C463684  12.274   2.656  21.499 -0.0993  0.1395  0.1025
10615DDP     C163685  10.980  24.521  23.421 -0.1853  0.0062  0.0832
10615DDP     P163686  10.806  24.136  23.499 -0.1663 -0.0597  0.0027
10615DDP     P263687  10.640  24.839  23.204 -0.0215  0.3265  0.0773
10615DDP     C263688  10.793  25.181  22.941 -0.0108 -0.0229 -0.2740
10615DDP     C363689  10.698  23.867  23.839  0.1568 -0.0070 -0.0344
10615DDP     C463690  11.378  24.626  23.535  0.0835 -0.0343 -0.3290
10616DDP     C163691  18.298  30.244  29.924  0.1306 -0.0100  0.0013
10616DDP     P163692  17.880   0.224  30.136  0.3800 -0.0285 -0.3134
10616DDP     P263693  18.193  29.938  29.874 -0.2421  0.1843 -0.2322
10616DDP     C263694  17.897  29.663  29.977 -0.4820 -0.0414  0.0562
10616DDP     C363695  17.852   0.630  30.308 -0.2036  0.2596  0.4734
10616DDP     C463696  18.740  30.291  29.834  0.0506  0.2113 -0.0599
10617DDP     C163697  30.235   7.984  25.934 -0.0142 -0.2503  0.0821
10617DDP     P163698  30.071   7.974  25.521 -0.2158 -0.2846  0.2424
10617DDP     P263699  29.966   8.193  26.273  0.0339 -0.4460  0.1878
10617DDP     C263700  29.907   8.235  26.690  0.1865 -0.1152  0.0901
10617DDP     C363701  29.697   7.928  25.397  0.1391 -0.1346  0.0068
10617DDP     C463702   0.293   7.599  26.035 -0.0027 -0.1279  0.0274
10618DDP     C163703  28.693   6.639  29.273  0.0447 -0.1287 -0.1033
10618DDP     P163704  28.760   6.878  28.969 -0.1922 -0.0233  0.1852
10618DDP     P263705  28.677   6.246  29.239  0.0921 -0.0907  0.1364
10618DDP     C263706  28.549   5.930  28.920 -0.0330 -0.1810  0.0985
10618DDP     C363707  28.940   6.942  28.575  0.0749 -0.0488 -0.1132
10618DDP     C463708  28.580   6.903  29.658  0.2792 -0.2107  0.1698
10619DDP     C163709  27.649  29.595   3.586 -0.1710 -0.0575 -0.1533
10619DDP     P163710  27.776  29.273   3.364 -0.1842  0.1058 -0.0197
10619DDP     P263711  27.673  30.005   3.436  0.1490  0.2182  0.2194
10619DDP     C263712  27.884  30.247   3.239  0.0927  0.0904  0.0147
10619DDP     C363713  28.116  28.956   3.442 -0.0074  0.0603  0.0815
10619DDP     C463714  27.485  29.432   3.940  0.1795 -0.2432  0.2561
10620DDP     C163715   6.376   8.760  24.320  0.0738  0.4549 -0.0310
10620DDP     P163716   6.676   8.371  24.496 -0.0482 -0.1837 -0.0589
10620DDP     P263717   6.236   8.667  23.931 -0.0443 -0.1610  0.2033
10620DDP     C263718   6.094   8.713  23.437 -0.1926  0.3104 -0.1830
10620DDP     C363719   6.937   8.119  24.455 -0.2901 -0.3828  0.1266
10620DDP     C463720   6.225   9.086  24.597 -0.2583  0.0236  0.0339
10621DDP     C163721   1.703  17.285  26.845 -0.0200 -0.0659 -0.0879
10621DDP     P163722   1.756  16.709  26.920 -0.3079 -0.1018  0.1728
10621DDP     P263723   2.031  17.539  26.519 -0.2249 -0.0371 -0.0721
10621DDP     C263724   2.161  18.014  26.613 -0.1775  0.1037  0.0371
10621DDP     C363725   1.806  16.407  26.744  0.1062 -0.1163 -0.1312
10621DDP     C463726   1.237  17.319  26.801 -0.1483  0.1212 -0.1928
10622DDP     C163727  19.145  23.268  24.386  0.0727 -0.0804  0.0552
10622DDP     P163728  19.344  23.154  24.762  0.1675  0.3563 -0.0412
10622DDP     P263729  18.767  22.852  24.359  0.2318 -0.3831  0.2820
10622DDP     C263730  18.370  22.587  24.318 -0.0493  0.1869 -0.0120
10622DDP     C363731  19.484  22.978  25.165 -0.1105  0.1648  0.2277
10622DDP     C463732  19.183  23.499  23.838  0.3154 -0.0089 -0.0241
10623DDP     C163733  12.978  11.448  10.476 -0.1065  0.1581 -0.1339
10623DDP     P163734  12.766  11.122  10.156 -0.0082 -0.0507 -0.0740
10623DDP     P263735  13.302  11.790  10.313 -0.0276  0.0755  0.1319
10623DDP     C263736  13.215  11.945   9.961  0.0998  0.0133  0.2740
10623DDP     C363737  12.326  10.905  10.239  0.0730 -0.0117 -0.0882
10623DDP     C463738  12.818  11.387  10.956 -0.2948  0.3083  0.0697
10624DDP     C163739   7.122  14.295  15.545  0.1428 -0.0045 -0.1533
10624DDP     P163740   6.676  14.315  15.542 -0.0624 -0.2374  0.1406
10624DDP     P263741   7.304  14.194  15.916  0.1660 -0.1087 -0.0624
10624DDP     C263742   7.662  14.182  16.197  0.1540  0.0658 -0.0487
10624DDP     C363743   6.358  14.228  15.848 -0.1029  0.2131 -0.4148
10624DDP     C463744   7.346  14.099  15.190 -0.0291  0.1259 -0.3420
10625DDP     C163745  18.543  10.443   8.346  0.0025 -0.3360  0.1059
10625DDP     P163746  18.475  10.152   8.066  0.1342 -0.0160 -0.3630
10625DDP     P263747  18.854  10.861   8.243 -0.1042 -0.1610 -0.0099
10625DDP     C263748  19.289  10.919   8.247 -0.2853 -0.0165 -0.1584
10625DDP     C363749  18.798   9.988   7.844 -0.2812  0.0095 -0.2196
10625DDP     C463750  18.231  10.374   8.768  0.0548  0.2818  0.2705
10626DDP     C163751  29.144  10.319   2.113  0.1956 -0.0259  0.1134
10626DDP     P163752  29.357  10.068   1.880  0.1780 -0.1708  0.0584
10626DDP     P263753  28.810  10.566   1.905  0.0657 -0.1239 -0.0966
10626DDP     C263754  28.665  10.809   1.568 -0.0589  0.1211 -0.0902
10626DDP     C363755  29.354   9.663   2.119 -0.3129 -0.0362  0.0788
10626DDP     C463756  29.138  10.443   2.499  0.0845  0.1675  0.1696
10627DDP     C163757  13.611   8.693   6.847 -0.0134  0.1389 -0.2289
10627DDP     P163758  13.925   8.932   7.277 -0.1042  0.0389 -0.0723
10627DDP     P263759  13.642   8.295   6.866  0.2122  0.0645 -0.0690
10627DDP     C263760  13.741   8.029   7.217  0.0205 -0.0745 -0.1920
10627DDP     C363761  14.186   9.056   7.589  0.5708 -0.0141  0.2880
10627DDP     C463762  13.377   9.092   6.820 -0.0567  0.2480  0.1229
10628DDP     C163763   9.499  23.789   4.836  0.1984 -0.0201  0.1821
10628DDP     P163764   9.868  23.712   4.609 -0.0115  0.1780  0.1357
10628DDP     P263765   9.433  23.624   5.252  0.1170 -0.1829 -0.2768
10628DDP     C263766   9.774  23.391   5.535  0.1508  0.0914 -0.3654
10628DDP     C363767  10.254  23.781   4.488  0.0306  0.2655 -0.1382
10628DDP     C463768   9.061  23.992   4.677 -0.0852 -0.0846  0.0967
10629DDP     C163769  10.258  15.393   8.200  0.1280  0.0415 -0.3361
10629DDP     P163770  10.703  15.404   8.041 -0.5043  0.2706 -0.1321
10629DDP     P263771  10.133  15.503   8.594 -0.0374 -0.1437 -0.0775
10629DDP     C263772  10.298  15.705   9.024 -0.2839 -0.2916 -0.0432
10629DDP     C363773  11.175  15.427   7.990 -0.1581 -0.0593  0.1504
10629DDP     C463774   9.886  15.181   8.159  0.0688  0.1885 -0.0244
10630DDP     C163775  16.164  19.415  12.655 -0.0642  0.1663  0.0652
10630DDP     P163776  15.848  19.643  12.908 -0.0870  0.4999  0.0190
10630DDP     P263777  16.583  19.432  12.695 -0.3862  0.0035 -0.0884
10630DDP     C263778  16.844  19.710  12.771  0.0208 -0.1474  0.1196
10630DDP     C363779  15.351  19.533  12.967 -0.2825 -0.2414  0.0645
10630DDP     C463780  15.888  19.188  12.473 -0.0021  0.1053  0.2643
10631DDP     C163781   5.504  15.024  -0.021 -0.0957 -0.0490 -0.2756
10631DDP     P163782   5.034  14.798   0.062 -0.1403  0.0504  0.1262
10631DDP     P263783   5.434  15.399   0.049  0.0092 -0.0560  0.0602
10631DDP     C263784   5.147  15.762   0.271 -0.1800  0.3062  0.2043
10631DDP     C363785   4.594  14.989  30.258 -0.1915  0.0767  0.0477
10631DDP     C463786   5.767  14.819  30.236  0.0310  0.2481 -0.2282
10632DDP     C163787   2.999  12.679  18.261 -0.0010  0.3662  0.0137
10632DDP     P163788   3.183  12.953  18.028 -0.3040 -0.3606  0.2221
10632DDP     P263789   2.990  12.745  18.734  0.0709  0.0097  0.1901
10632DDP     C263790   2.638  12.863  18.996 -0.0952 -0.2815  0.1759
10632DDP     C363791   3.592  13.228  18.101 -0.0703 -0.1689 -0.2754
10632DDP     C463792   2.666  12.443  18.051  0.1960  0.1988  0.0279
10633DDP     C163793   0.448  30.129  22.438  0.2245  0.0944 -0.1995
10633DDP     P163794   0.040  30.102  22.496 -0.0160  0.0376 -0.0462
10633DDP     P263795   0.754  29.814  22.222 -0.2670  0.0678 -0.0639
10633DDP     C263796   1.144  29.645  21.962 -0.0404 -0.2077 -0.1291
10633DDP     C363797  30.170  29.814  22.699  0.2203  0.1846 -0.0724
10633DDP     C463798   0.642   0.186  22.564  0.1644  0.1566  0.0294
10634DDP     C163799  24.664  21.361  14.906  0.1057 -0.0800 -0.0627
10634DDP     P163800  24.349  21.347  15.182 -0.0827 -0.0275 -0.0691
10634DDP     P263801  24.900  21.754  15.055 -0.0047  0.2261  0.1140
10634DDP     C263802  25.364  21.985  15.068  0.2599  0.1678 -0.0207
10634DDP     C363803  23.913  21.521  15.139  0.2460 -0.0531  0.1269
10634DDP     C463804  24.654  20.962  14.655  0.1032 -0.0314  0.1156
10635DDP     C163805  25.579   4.934   3.596  0.3418 -0.2066  0.2071
10635DDP     P163806  25.481   5.247   3.354 -0.1685 -0.1278 -0.3399
10635DDP     P263807  25.358   4.612   3.741  0.2147  0.2290 -0.0858
10635DDP     C263808  25.520   4.201   3.850  0.0295  0.1995  0.0144
10635DDP     C363809  25.701   5.596   3.108  0.1014 -0.1540 -0.2001
10635DDP     C463810  25.946   4.878   3.638 -0.2480 -0.3488  0.1694
10636DDP     C163811  27.371  11.182  12.858  0.2962  0.1854  0.0819
10636DDP     P163812  27.214  11.427  13.157 -0.1052  0.1338 -0.1379
10636DDP     P263813  27.734  11.239  12.643  0.0783  0.2041  0.2412
10636DDP     C263814  28.021  11.422  12.435 -0.0887 -0.0858 -0.0025
10636DDP     C363815  26.948  11.713  13.392 -0.0764 -0.2593  0.1724
10636DDP     C463816  26.997  11.010  12.760 -0.2816  0.2182 -0.2088
10637DDP     C163817  11.780  25.632  17.500 -0.2137 -0.0908  0.1488
10637DDP     P163818  11.390  25.879  17.462 -0.1397 -0.2609 -0.0461
10637DDP     P263819  11.522  25.232  17.661 -0.0997 -0.1903  0.0023
10637DDP     C263820  11.619  24.801  17.824 -0.1906 -0.0057  0.3507
10637DDP     C363821  11.029  25.743  17.159 -0.0442  0.2116  0.5280
10637DDP     C463822  12.159  25.677  17.318  0.1249  0.0530  0.0556
10638DDP     C163823   3.210  22.457  16.853 -0.3980 -0.0814 -0.1724
10638DDP     P163824   3.389  22.531  16.416  0.1201 -0.2878  0.4519
10638DDP     P263825   2.911  22.214  16.828 -0.0567  0.2725  0.1354
10638DDP     C263826   2.568  22.169  17.106  0.0149  0.0033 -0.2972
10638DDP     C363827   3.501  22.452  15.972  0.0745 -0.1019  0.0368
10638DDP     C463828   3.395  22.614  17.209 -0.2113 -0.0301 -0.1788
10639DDP     C163829  12.938  13.193  15.148  0.1708 -0.0005 -0.0441
10639DDP     P163830  13.165  13.403  14.864 -0.2231 -0.0503  0.0206
10639DDP     P263831  12.513  13.179  15.170  0.1419  0.3159  0.0669
10639DDP     C263832  12.473  13.361  15.518 -0.1028 -0.0927  0.2192
10639DDP     C363833  13.034  13.687  14.553 -0.4001  0.1778  0.0571
10639DDP     C463834  12.962  13.241  15.539  0.1239  0.0063 -0.1807
10640DDP     C163835  17.799  11.963  29.306 -0.0114 -0.3037  0.3413
10640DDP     P163836  17.428  12.241  29.193  0.3586  0.0679 -0.2052
10640DDP     P263837  17.831  11.627  29.550  0.0696 -0.0935  0.2329
10640DDP     C263838  17.986  11.374  29.711  0.1168  0.2738 -0.1660
10640DDP     C363839  17.197  12.176  28.766  0.0326 -0.1221 -0.0288
10640DDP     C463840  18.092  12.309  29.227  0.0269 -0.0473 -0.2865
10641DDP     C163841   7.867   8.044   5.600  0.1201 -0.0280  0.2743
10641DDP     P163842   7.730   7.880   5.254 -0.1951  0.0285 -0.2727
10641DDP     P263843   7.592   8.236   5.677 -0.3116 -0.1457  0.2067
10641DDP     C263844   7.378   8.497   6.032 -0.0392  0.2892 -0.1457
10641DDP     C363845   7.530   8.042   4.964 -0.1689  0.3060 -0.1562
10641DDP     C463846   8.274   8.042   5.701 -0.0726  0.1196  0.2588
10642DDP     C163847   3.558   2.506  20.994  0.0056  0.1307  0.0623
10642DDP     P163848   3.393   2.253  20.664 -0.0011 -0.0085  0.0161
10642DDP     P263849   3.824   2.883  20.815  0.0360 -0.5965  0.3246
10642DDP     C263850   3.966   3.295  20.688  0.0151 -0.0926  0.2341
10642DDP     C363851   3.027   1.945  20.463  0.1257 -0.2700 -0.0008
10642DDP     C463852   3.342   2.434  21.429 -0.1390 -0.1063 -0.3851
10643DDP     C163853   6.931  22.191  11.514 -0.3469 -0.2185 -0.2916
10643DDP     P163854   6.684  21.893  11.754 -0.0570  0.3954 -0.2702
10643DDP     P263855   7.303  22.087  11.457  0.2193 -0.0905  0.0903
10643DDP     C263856   7.559  21.683  11.671 -0.3885  0.1669 -0.0280
10643DDP     C363857   6.389  22.166  12.096 -0.0556  0.1435  0.0020
10643DDP     C463858   6.798  22.536  11.408 -0.1619  0.0389 -0.1488
10644DDP     C163859   9.760   5.618  21.176  0.5659 -0.0723 -0.1636
10644DDP     P163860  10.135   5.791  21.165 -0.1281 -0.0622 -0.0702
10644DDP     P263861   9.715   5.585  21.656  0.2396  0.2242  0.0654
10644DDP     C263862   9.488   5.422  22.089  0.2170 -0.0370 -0.1353
10644DDP     C363863  10.695   5.773  21.196 -0.0768 -0.0716  0.0039
10644DDP     C463864   9.496   5.449  20.813 -0.0506 -0.1644  0.0757
10645DDP     C163865  19.110   3.487   0.694 -0.0010  0.0778 -0.0464
10645DDP     P163866  18.672   3.341   0.685 -0.1724  0.0594  0.1878
10645DDP     P263867  19.228   3.042   0.526 -0.1785 -0.2004  0.1236
10645DDP     C263868  19.092   2.642   0.675 -0.2281 -0.1217 -0.3308
10645DDP     C363869  18.268   3.143   0.582  0.0050 -0.1959 -0.0331
10645DDP     C463870  19.388   3.832   0.623  0.1393  0.3534  0.0221
10646DDP     C163871  20.677  25.547  22.236  0.0119  0.0290  0.1555
10646DDP     P163872  20.540  25.066  22.076  0.1865 -0.0233 -0.0636
10646DDP     P263873  20.857  25.839  21.915  0.0936  0.0634  0.0104
10646DDP     C263874  20.713  26.095  21.640 -0.0370 -0.0110  0.0634
10646DDP     C363875  20.466  24.760  21.705  0.2661  0.0565  0.1251
10646DDP     C463876  20.478  25.585  22.639 -0.0898  0.1001  0.1024
10647DDP     C163877  19.064  26.752  28.729 -0.1699  0.0726  0.1552
10647DDP     P163878  18.783  26.673  28.916 -0.2178  0.1322 -0.0123
10647DDP     P263879  19.023  26.449  28.492 -0.1374  0.0135  0.0164
10647DDP     C263880  19.230  26.120  28.281 -0.0247  0.1506 -0.3800
10647DDP     C363881  18.472  26.505  28.845 -0.0882  0.1677  0.1245
10647DDP     C463882  19.257  27.180  28.560  0.1011 -0.0889 -0.0517
10648DDP     C163883  10.332   6.045  24.456  0.1127  0.2315  0.2823
10648DDP     P163884   9.960   6.065  24.153 -0.3561  0.1398 -0.2549
10648DDP     P263885  10.604   6.389  24.470 -0.0639 -0.0093 -0.0445
10648DDP     C263886  10.511   6.810  24.582 -0.2080 -0.1056 -0.0205
10648DDP     C363887   9.901   5.883  23.824 -0.3449  0.1865  0.1837
10648DDP     C463888  10.087   5.877  24.845  0.0555 -0.0349  0.0824
10649DDP     C163889  23.471  29.109  28.651 -0.0331  0.0854 -0.0026
10649DDP     P163890  23.684  28.723  28.640  0.0731  0.0928  0.0957
10649DDP     P263891  23.138  28.988  28.751  0.0070 -0.1047 -0.2678
10649DDP     C263892  22.980  28.721  29.067  0.1538  0.1215 -0.1450
10649DDP     C363893  23.598  28.323  28.536  0.0732  0.1381  0.0292
10649DDP     C463894  23.574  29.485  28.706 -0.1334  0.0815  0.0147
10650DDP     C163895  30.269  13.438  28.731  0.3264 -0.0885 -0.2617
10650DDP     P163896  30.178  13.001  28.600  0.1828 -0.3412 -0.0417
10650DDP     P263897   0.157  13.718  29.006  0.0258  0.2689 -0.0898
10650DDP     C263898   0.602  13.919  28.963 -0.2363  0.4982  0.1672
10650DDP     C363899  29.895  12.583  28.646 -0.3002 -0.0326 -0.1555
10650DDP     C463900   0.052  13.539  28.372 -0.2773 -0.2869  0.1331
10651DDP     C163901   5.674   3.505  21.653 -0.3955  0.1915 -0.2215
10651DDP     P163902   5.485   3.479  21.316 -0.1034 -0.2854 -0.3871
10651DDP     P263903   6.064   3.317  21.684  0.2155  0.1646  0.1868
10651DDP     C263904   6.408   3.141  21.884  0.0078 -0.1425  0.1178
10651DDP     C363905   5.622   3.663  20.886  0.0484 -0.2812  0.2345
10651DDP     C463906   5.714   3.820  21.903  0.2357  0.1897 -0.1105
10652DDP     C163907  16.592  12.904   9.674 -0.0125 -0.2932 -0.1133
10652DDP     P163908  16.872  12.752   9.414  0.0324 -0.0990  0.1057
10652DDP     P263909  16.431  13.213   9.498  0.0265  0.6197  0.0700
10652DDP     C263910  16.464  13.632   9.308  0.1564 -0.2107 -0.0694
10652DDP     C363911  17.297  12.616   9.134 -0.1759 -0.3468  0.1898
10652DDP     C463912  16.435  12.821  10.012 -0.1950 -0.0330 -0.0436
10653DDP     C163913  28.319  14.785  21.619 -0.0633 -0.2141  0.0230
10653DDP     P163914  27.989  15.013  21.763  0.1584  0.2291  0.0566
10653DDP     P263915  28.543  14.471  21.872 -0.0434  0.0283 -0.0834
10653DDP     C263916  28.298  14.151  22.068 -0.1026 -0.4689  0.1017
10653DDP     C363917  27.917  15.159  22.161  0.3088  0.2133 -0.0253
10653DDP     C463918  28.279  14.978  21.159  0.0586  0.0781 -0.4022
10654DDP     C163919   1.597   0.093   8.190 -0.0478  0.1385  0.3438
10654DDP     P163920   1.568  30.096   7.955 -0.2576  0.0564 -0.1099
10654DDP     P263921   1.552  30.336   8.641 -0.0625  0.2082  0.1687
10654DDP     C263922   1.338  30.283   9.052  0.0496 -0.2834  0.0962
10654DDP     C363923   1.750  29.802   8.083  0.2017 -0.0984  0.1404
10654DDP     C463924   1.891   0.417   8.083 -0.0424 -0.2516  0.0507
10655DDP     C163925   8.317   5.056   9.272 -0.0186 -0.0083 -0.0854
10655DDP     P163926   8.736   4.916   9.238  0.1607  0.1147  0.3087
10655DDP     P263927   8.517   5.448   9.177  0.1569 -0.0270  0.2191
10655DDP     C263928   8.921   5.404   9.285  0.0913  0.3370  0.2334
10655DDP     C363929   9.067   4.908   8.902 -0.1962 -0.0696  0.1616
10655DDP     C463930   8.076   4.665   9.338 -0.2070 -0.0428  0.0866
10656DDP     C163931   6.165   0.685   3.884  0.0051  0.1146 -0.0463
10656DDP     P163932   6.391   0.241   3.823  0.0399  0.1013  0.0275
10656DDP     P263933   6.263   0.989   3.611 -0.0247 -0.0863 -0.0508
10656DDP     C263934   6.147   1.048   3.182  0.0099 -0.2106 -0.1976
10656DDP     C363935   6.420  30.191   3.545  0.1110  0.0821 -0.4776
10656DDP     C463936   5.852   0.718   4.168  0.1261  0.2140  0.0184
10657DDP     C163937  13.553  18.961  18.305 -0.3270 -0.1669 -0.0875
10657DDP     P163938  13.367  18.799  18.720  0.0994  0.0841 -0.0413
10657DDP     P263939  13.265  19.131  17.941 -0.0603  0.1354 -0.0656
10657DDP     C263940  13.193  18.963  17.567 -0.0210  0.4025 -0.1235
10657DDP     C363941  13.000  18.686  18.969  0.0978  0.2407 -0.1272
10657DDP     C463942  13.934  19.054  18.316 -0.1125 -0.0724  0.3423
10658DDP     C163943  13.597  19.219  18.848  0.0279 -0.1584 -0.0783
10658DDP     P163944  13.403  19.071  19.208 -0.1043 -0.0825  0.3760
10658DDP     P263945  13.264  19.284  18.485 -0.0644  0.0062 -0.2371
10658DDP     C263946  12.845  19.140  18.476 -0.1350 -0.1248  0.2425
10658DDP     C363947  13.098  18.951  19.381 -0.2950  0.0428  0.1592
10658DDP     C463948  13.957  19.422  18.622  0.0450 -0.0313 -0.0663
10659DDP     C163949   2.108   4.263  10.883 -0.1928  0.0925 -0.1369
10659DDP     P163950   1.816   4.181  10.506 -0.0515  0.1439  0.1078
10659DDP     P263951   1.959   4.452  11.311 -0.1788 -0.2352 -0.1158
10659DDP     C263952   1.866   4.636  11.710  0.1762 -0.1123  0.2909
10659DDP     C363953   1.776   4.301  10.007  0.1397  0.0705 -0.3768
10659DDP     C463954   2.576   4.326  10.747  0.0276  0.0135 -0.0320
10660DDP     C163955  28.229  18.721  23.840  0.2111  0.1539  0.2801
10660DDP     P163956  28.505  18.884  23.943 -0.1831 -0.2371 -0.4498
10660DDP     P263957  28.133  18.288  23.647  0.2040 -0.2240  0.2125
10660DDP     C263958  27.872  18.004  23.657  0.1207 -0.1059  0.4107
10660DDP     C363959  28.643  19.240  24.128 -0.0968 -0.2123  0.1329
10660DDP     C463960  27.800  18.849  23.871 -0.3586 -0.0189  0.0623
10661DDP     C163961  12.321   7.646   0.732  0.1638 -0.0615 -0.0130
10661DDP     P163962  12.582   7.484   0.354 -0.3286  0.2489  0.3145
10661DDP     P263963  12.048   7.369   0.969 -0.2381 -0.1765  0.0546
10661DDP     C263964  11.641   7.108   1.024  0.1427 -0.2480 -0.1765
10661DDP     C363965  12.828   7.254   0.271  0.5189  0.1492  0.0531
10661DDP     C463966  12.314   8.091   0.707  0.0554 -0.0652 -0.0064
10662DDP     C163967  16.176  18.240  15.662  0.0667  0.0807 -0.0712
10662DDP     P163968  16.432  18.035  15.345 -0.1197 -0.0405 -0.0856
10662DDP     P263969  16.296  18.452  15.987  0.0108  0.0220  0.1483
10662DDP     C263970  16.662  18.512  16.190 -0.2536  0.0803 -0.1368
10662DDP     C363971  16.720  18.350  15.057 -0.0850  0.0028  0.3458
10662DDP     C463972  15.683  18.356  15.671  0.2278  0.1175 -0.0533
10663DDP     C163973   9.784  11.097  12.548 -0.2351  0.1376  0.1767
10663DDP     P163974  10.101  11.180  12.250 -0.1070  0.1207  0.0262
10663DDP     P263975   9.892  10.811  12.930 -0.1647 -0.0131 -0.1888
10663DDP     C263976   9.744  10.427  13.274 -0.1595 -0.1100  0.2173
10663DDP     C363977  10.456  10.904  12.183  0.0106 -0.0208 -0.0420
10663DDP     C463978   9.489  11.440  12.553 -0.0777  0.0197  0.0919
10664DDP     C163979  23.884  22.298   1.735  0.1010  0.0565 -0.2005
10664DDP     P163980  24.042  22.285   1.233  0.1052  0.3621 -0.3576
10664DDP     P263981  24.018  22.022   2.066  0.0671  0.2236  0.0937
10664DDP     C263982  24.029  21.695   2.277  0.1323 -0.0743  0.0255
10664DDP     C363983  24.004  22.118   0.844  0.1462 -0.0901 -0.1681
10664DDP     C463984  23.521  22.654   1.809  0.1445 -0.1715 -0.2087
10665DDP     C163985  17.813  18.514  14.494  0.0268 -0.1374 -0.0750
10665DDP     P163986  17.662  18.276  14.218  0.2765  0.1218 -0.0505
10665DDP     P263987  17.820  19.039  14.609  0.0027 -0.3021  0.1287
10665DDP     C263988  17.571  19.350  14.799  0.2355 -0.1536  0.1266
10665DDP     C363989  17.643  17.930  14.148 -0.0545  0.0594  0.0525
10665DDP     C463990  18.261  18.431  14.647  0.0111  0.1309  0.0980
10666DDP     C163991   1.384   6.625  26.746 -0.1311  0.1782  0.2384
10666DDP     P163992   1.396   6.791  26.356 -0.1619 -0.0995 -0.1171
10666DDP     P263993   1.044   6.574  26.889 -0.1471  0.0518 -0.0014
10666DDP     C263994   0.715   6.528  27.249 -0.2365  0.1265  0.2370
10666DDP     C363995   1.476   6.869  25.852  0.0413  0.0496  0.1483
10666DDP     C463996   1.772   6.664  27.057  0.0525  0.1518  0.2027
10667DDP     C163997  16.195   1.673   4.452 -0.2003  0.1661 -0.0561
10667DDP     P163998  16.111   2.116   4.310  0.2209  0.3399 -0.0648
10667DDP     P263999  16.695   1.595   4.444  0.1188 -0.1142  0.1804
10667DDP     C264000  17.132   1.635   4.322 -0.1497  0.2872 -0.3148
10667DDP     C364001  16.225   2.540   4.396  0.1136 -0.1617 -0.0756
10667DDP     C464002  15.868   1.375   4.350 -0.1448  0.1567 -0.2777
10668DDP     C164003   0.696  11.022  16.258  0.1162  0.2685 -0.2202
10668DDP     P164004   0.425  11.185  15.939  0.1913  0.0704  0.1882
10668DDP     P264005   0.575  10.705  16.616 -0.0659 -0.2768  0.0013
10668DDP     C264006   0.656  10.493  16.957 -0.0863 -0.4270  0.2256
10668DDP     C364007   0.026  11.373  16.091 -0.0599  0.0686 -0.1997
10668DDP     C464008   1.049  11.175  16.206 -0.0916 -0.0302  0.2571
10669DDP     C164009  15.349  22.371  27.992 -0.0100  0.3232 -0.0403
10669DDP     P164010  15.080  22.136  28.136 -0.0302  0.0625 -0.0508
10669DDP     P264011  15.774  22.370  27.915 -0.1921 -0.0217 -0.4470
10669DDP     C264012  15.942  21.960  27.931  0.1574 -0.1768  0.2804
10669DDP     C364013  14.581  22.135  28.079  0.3100  0.0992 -0.0561
10669DDP     C464014  15.260  22.784  27.974 -0.3524  0.1789  0.0796
10670DDP     C164015  23.576  21.476  18.877  0.1050  0.1215  0.1854
10670DDP     P164016  23.955  21.632  18.873  0.0415  0.0086 -0.1445
10670DDP     P264017  23.224  21.620  19.069 -0.2583  0.2054  0.1172
10670DDP     C264018  22.788  21.561  18.951 -0.0301  0.2110 -0.1604
10670DDP     C364019  24.260  21.747  19.190  0.1742  0.0914  0.0777
10670DDP     C464020  23.550  21.246  18.423  0.3929 -0.0646  0.0360
10671DDP     C164021   7.227  12.311  21.741 -0.2139  0.0470 -0.3009
10671DDP     P164022   7.110  11.788  21.600  0.3720 -0.1594 -0.0411
10671DDP     P264023   7.292  12.374  22.127 -0.2520 -0.2546 -0.0532
10671DDP     C264024   7.392  12.654  22.463  0.1206 -0.0492 -0.0257
10671DDP     C364025   7.083  11.466  21.318  0.3159 -0.1117  0.0920
10671DDP     C464026   7.204  12.606  21.449  0.1450 -0.0998 -0.0276
10672DDP     C164027  25.415  24.699  21.977  0.0484  0.0178  0.2302
10672DDP     P164028  25.323  24.275  22.059 -0.0521  0.2405 -0.1312
10672DDP     P264029  25.353  24.827  21.520 -0.1724  0.0381 -0.4546
10672DDP     C264030  24.927  24.865  21.430  0.1461 -0.1675  0.0789
10672DDP     C364031  25.438  24.035  22.510 -0.1253 -0.1369 -0.0074
10672DDP     C464032  25.668  24.914  22.291 -0.3562 -0.2855 -0.2638
10673DDP     C164033  24.979  13.621  15.307 -0.1317 -0.0365 -0.2847
10673DDP     P164034  24.702  13.557  14.913  0.0049 -0.1622 -0.1681
10673DDP     P264035  24.939  13.952  15.595 -0.2391  0.1790  0.0606
10673DDP     C264036  24.872  13.855  15.994 -0.0016 -0.0006  0.0779
10673DDP     C364037  24.349  13.396  14.829  0.0845  0.3095 -0.1560
10673DDP     C464038  25.312  13.341  15.344  0.2320 -0.0448  0.1406
10674DDP     C164039   1.666   7.855  19.475 -0.1748  0.1192  0.0421
10674DDP     P164040   2.106   7.749  19.567 -0.0849  0.2872  0.1196
10674DDP     P264041   1.456   7.687  19.807 -0.4698 -0.1246 -0.2190
10674DDP     C264042   1.120   7.863  20.125  0.0359 -0.2663  0.1553
10674DDP     C364043   2.442   7.481  19.675  0.0360 -0.1978 -0.0661
10674DDP     C464044   1.472   7.888  19.050 -0.0280  0.1582 -0.0495
10675DDP     C164045  25.960  11.407   6.886  0.1029  0.0603 -0.0190
10675DDP     P164046  25.854  11.415   7.354  0.0199  0.1595  0.0616
10675DDP     P264047  26.041  11.078   6.547 -0.0816 -0.0143  0.1338
10675DDP     C264048  26.172  10.743   6.366  0.1297 -0.0811  0.1794
10675DDP     C364049  25.560  11.507   7.607 -0.1328  0.0491 -0.0691
10675DDP     C464050  25.998  11.793   6.721  0.4320 -0.0505 -0.0336
10676DDP     C164051  13.308  22.044  29.209 -0.0844 -0.2556 -0.0975
10676DDP     P164052  13.360  22.321  28.903  0.2020  0.2213  0.3154
10676DDP     P264053  13.560  21.834  29.467 -0.2401 -0.1618  0.0688
10676DDP     C264054  13.920  21.495  29.542  0.1636  0.1248  0.0808
10676DDP     C364055  13.273  22.673  28.761  0.0258 -0.1100  0.2566
10676DDP     C464056  13.141  22.171  29.554  0.0913  0.0648 -0.0959
10677DDP     C164057  13.792  23.590   2.027  0.4322  0.0029  0.1253
10677DDP     P164058  13.709  23.708   1.582 -0.2550 -0.1790 -0.1624
10677DDP     P264059  13.693  23.169   2.025  0.0202 -0.1277  0.0222
10677DDP     C264060  13.442  23.186   1.858 -0.0788  0.0095  0.0460
10677DDP     C364061  13.364  23.987   1.383 -0.0872  0.2378 -0.0546
10677DDP     C464062  14.027  23.602   2.422 -0.0117 -0.0188 -0.1709
10678DDP     C164063  22.004  16.764  27.119 -0.0771 -0.0945 -0.0023
10678DDP     P164064  22.261  16.908  27.434 -0.0804 -0.0537  0.4446
10678DDP     P264065  22.080  16.347  27.196  0.0965  0.0929  0.2763
10678DDP     C264066  22.325  16.050  27.137  0.1960 -0.0803  0.2235
10678DDP     C364067  22.562  17.097  27.614  0.3480  0.1055 -0.0571
10678DDP     C464068  21.646  16.940  26.809 -0.1482 -0.0023  0.0383
10679DDP     C164069   3.447  11.409   8.787  0.3516 -0.1377 -0.1165
10679DDP     P164070   3.783  11.730   8.424  0.1910  0.1375 -0.3410
10679DDP     P264071   3.121  11.339   8.568  0.0391 -0.1117 -0.1478
10679DDP     C264072   2.724  11.558   8.283  0.0073 -0.2734  0.1247
10679DDP     C364073   3.841  12.012   8.069  0.2096 -0.0804  0.0118
10679DDP     C464074   3.434  11.283   9.216  0.3129 -0.0525  0.1494
10680DDP     C164075  15.168  12.563   5.261  0.0941  0.0740 -0.2026
10680DDP     P164076  15.165  12.995   5.242 -0.2453  0.1106 -0.1009
10680DDP     P264077  15.153  12.407   4.738 -0.0660 -0.4188  0.2675
10680DDP     C264078  15.199  12.229   4.453 -0.0356  0.1559 -0.1108
10680DDP     C364079  15.302  13.383   5.474 -0.0851  0.0348  0.0848
10680DDP     C464080  15.005  12.413   5.653  0.1144 -0.0935 -0.0182
10681DDP     C164081  10.823  17.377  10.761 -0.3834 -0.2604  0.0212
10681DDP     P164082  11.210  17.504  10.697 -0.1218  0.0173  0.0854
10681DDP     P264083  10.629  17.551  10.484 -0.3564 -0.2914  0.2901
10681DDP     C264084  10.403  17.940  10.437  0.0119 -0.0356 -0.1680
10681DDP     C364085  11.421  17.814  10.449 -0.2939  0.0462  0.0300
10681DDP     C464086  10.614  17.269  11.089 -0.1399  0.2083  0.1647
10682DDP     C164087   4.590  25.652  19.811 -0.1694  0.1972 -0.1655
10682DDP     P164088   4.224  25.805  20.151 -0.0964  0.2733  0.1042
10682DDP     P264089   4.514  25.259  19.694 -0.2011  0.3236 -0.4415
10682DDP     C264090   4.575  25.105  19.222 -0.0615  0.0025  0.2345
10682DDP     C364091   3.934  25.980  20.542  0.2762 -0.0101  0.0804
10682DDP     C464092   4.960  25.736  19.878  0.1036  0.0273 -0.1107
10683DDP     C164093  24.027  10.833   0.509 -0.1281 -0.0255  0.0398
10683DDP     P164094  24.367  10.886   0.897  0.1263 -0.1923  0.1595
10683DDP     P264095  23.575  11.002   0.739 -0.1664 -0.0450  0.1990
10683DDP     C264096  23.224  11.198   0.614  0.0292 -0.0847  0.0866
10683DDP     C364097  24.644  11.186   0.999 -0.0403  0.0042 -0.5180
10683DDP     C464098  24.071  10.688   0.033  0.3453 -0.0079  0.3116
10684DDP     C164099   5.026   7.405  21.079 -0.1833  0.0737  0.1369
10684DDP     P164100   4.862   6.946  21.048 -0.1051 -0.1870 -0.0427
10684DDP     P264101   5.449   7.478  21.176 -0.0100  0.0316 -0.2398
10684DDP     C264102   5.694   7.430  21.562 -0.1027 -0.1529  0.0532
10684DDP     C364103   4.709   6.620  21.356  0.5685 -0.1564 -0.2081
10684DDP     C464104   4.701   7.687  20.937 -0.0747 -0.2703 -0.2258
10685DDP     C164105  26.275  23.803   3.124  0.2205 -0.2345 -0.0474
10685DDP     P164106  26.240  24.207   3.284  0.0319 -0.1950  0.0631
10685DDP     P264107  26.235  23.963   2.786 -0.0473  0.3834 -0.2100
10685DDP     C264108  26.290  23.820   2.351 -0.1982  0.2133  0.0522
10685DDP     C364109  26.183  24.682   3.410 -0.0049 -0.1238  0.0728
10685DDP     C464110  26.299  23.359   3.205 -0.2064 -0.2036 -0.0751
10686DDP     C164111  23.032   6.753  20.825  0.2498  0.0877  0.0706
10686DDP     P164112  23.132   7.013  21.146 -0.0565  0.1689 -0.0459
10686DDP     P264113  23.236   6.711  20.454  0.3851  0.1263 -0.1710
10686DDP     C264114  22.938   6.841  20.183 -0.0533  0.1911  0.0248
10686DDP     C364115  23.340   7.329  21.392  0.1051  0.0653 -0.1444
10686DDP     C464116  22.765   6.352  20.647  0.1442 -0.0341 -0.3003
10687DDP     C164117  12.357   6.764   3.211  0.1934  0.0733 -0.1231
10687DDP     P164118  12.120   7.118   3.059 -0.0130  0.3690 -0.2620
10687DDP     P264119  12.032   6.440   3.416  0.0329 -0.2650 -0.2228
10687DDP     C264120  11.826   6.377   3.853  0.1602  0.1132 -0.1157
10687DDP     C364121  12.050   7.210   2.614 -0.0973 -0.3898 -0.0822
10687DDP     C464122  12.682   6.508   3.069  0.2851 -0.3248 -0.2155
10688DDP     C164123   7.643  22.977  12.955  0.1655 -0.2381 -0.2568
10688DDP     P164124   7.300  23.011  13.071 -0.0323  0.2195  0.0021
10688DDP     P264125   7.825  22.971  12.610 -0.2326 -0.1940  0.1309
10688DDP     C264126   8.092  22.718  12.350 -0.0394 -0.1042  0.0712
10688DDP     C364127   6.880  23.132  13.010 -0.1797 -0.1084  0.1866
10688DDP     C464128   7.951  22.905  13.346 -0.0019 -0.2456 -0.3188
10689DDP     C164129   5.177  21.994  20.571 -0.0807 -0.3139  0.2173
10689DDP     P164130   5.131  22.250  20.242 -0.2595  0.1798  0.4298
10689DDP     P264131   4.909  21.621  20.651  0.0623 -0.1390 -0.0835
10689DDP     C264132   4.589  21.339  20.575 -0.0684 -0.1501 -0.1063
10689DDP     C364133   4.790  22.289  19.952 -0.0332 -0.2821  0.0275
10689DDP     C464134   5.514  22.145  20.769 -0.1108 -0.1951 -0.1459
10690DDP     C164135  29.744  27.126  24.894  0.2720 -0.1729 -0.1538
10690DDP     P164136  29.947  27.027  24.398 -0.2501  0.0622  0.3434
10690DDP     P264137  30.101  27.246  25.251  0.1744  0.0854 -0.1963
10690DDP     C264138  30.025  27.627  25.608 -0.1149 -0.1185 -0.0632
10690DDP     C364139  30.150  26.907  23.940  0.1379 -0.2148  0.0907
10690DDP     C464140  29.327  27.159  24.998  0.2733  0.4455 -0.1813
10691DDP     C164141  19.035  27.390  26.808  0.1842 -0.1176 -0.3986
10691DDP     P164142  19.303  27.052  26.564  0.0521 -0.1197  0.2437
10691DDP     P264143  18.594  27.300  27.089 -0.4277  0.0621  0.2135
10691DDP     C264144  18.323  27.004  27.423  0.2619 -0.1153  0.1949
10691DDP     C364145  19.410  27.001  26.193  0.1125 -0.1019 -0.0253
10691DDP     C464146  19.130  27.784  26.890  0.5596 -0.0014 -0.0820
10692DDP     C164147   9.532  14.740  10.521 -0.2410 -0.3392 -0.1593
10692DDP     P164148   9.819  15.058  10.699 -0.2821  0.0634 -0.1109
10692DDP     P264149   9.395  14.852  10.025 -0.0718 -0.1426  0.1141
10692DDP     C264150   8.961  14.903   9.794 -0.0473  0.0855  0.1994
10692DDP     C364151  10.248  15.229  10.467 -0.0935  0.1144 -0.0240
10692DDP     C464152   9.381  14.381  10.871  0.1185  0.0119  0.0577
10693DDP     C164153   4.396   1.982   0.348 -0.0149 -0.2929 -0.0122
10693DDP     P164154   4.631   1.723   0.544 -0.0622  0.0130 -0.1487
10693DDP     P264155   4.340   1.676  30.241  0.0552 -0.1407  0.2059
10693DDP     C264156   4.109   1.469  29.976 -0.0785  0.0130 -0.0429
10693DDP     C364157   4.671   1.407   0.836 -0.0736 -0.1521  0.3622
10693DDP     C464158   4.429   2.336   0.601 -0.0409 -0.0181 -0.0902
10694DDP     C164159   1.452  29.344  26.390  0.2133  0.0745 -0.0686
10694DDP     P164160   1.637  29.004  26.633 -0.1209  0.1784  0.1296
10694DDP     P264161   1.464  29.059  26.078 -0.1339 -0.0493  0.1586
10694DDP     C264162   1.511  28.751  25.653  0.2133 -0.0882 -0.3152
10694DDP     C364163   1.933  28.972  27.025  0.1087  0.1161 -0.2695
10694DDP     C464164   1.440  29.761  26.341 -0.0183 -0.3615 -0.0660
10695DDP     C164165  22.496  14.409   0.091  0.0920 -0.0038 -0.3636
10695DDP     P164166  22.329  14.181  30.057  0.0744  0.0740 -0.0931
10695DDP     P264167  22.515  14.256   0.564  0.0261 -0.2906  0.1341
10695DDP     C264168  22.353  13.936   0.943  0.0412  0.0475 -0.4201
10695DDP     C364169  22.041  13.955  29.762 -0.2068  0.0443 -0.2058
10695DDP     C464170  22.466  14.855  30.314  0.0794  0.0629  0.1556
10696DDP     C164171   6.659   4.530  27.735  0.0901  0.1999  0.0267
10696DDP     P164172   6.405   4.179  27.690 -0.0812 -0.1314  0.2486
10696DDP     P264173   6.494   4.883  27.569  0.0613 -0.0964  0.1672
10696DDP     C264174   6.251   5.350  27.607  0.0036 -0.3261  0.0808
10696DDP     C364175   6.300   3.984  28.164 -0.2275  0.2746  0.4741
10696DDP     C464176   7.025   4.518  28.038 -0.0293  0.1685  0.0987
10697DDP     C164177  12.629   7.837   3.400 -0.2058  0.1880 -0.2776
10697DDP     P164178  12.595   7.310   3.460 -0.0755 -0.2547  0.2753
10697DDP     P264179  12.356   7.898   3.844 -0.1467 -0.0881  0.0674
10697DDP     C264180  12.203   7.781   4.217 -0.1499 -0.0832 -0.3020
10697DDP     C364181  12.799   6.930   3.339  0.1119 -0.1580 -0.1016
10697DDP     C464182  12.591   7.943   2.844 -0.0068 -0.3210  0.0436
10698DDP     C164183   0.508  23.474  11.707 -0.1126  0.1824  0.1826
10698DDP     P164184   0.698  23.447  11.313 -0.1323  0.0120 -0.0100
10698DDP     P264185   0.551  23.917  11.908 -0.1764  0.3398 -0.0986
10698DDP     C264186   0.585  24.187  12.222 -0.1970 -0.0410 -0.1274
10698DDP     C364187   0.798  23.565  10.976 -0.1668 -0.0097 -0.3637
10698DDP     C464188   0.523  23.109  12.048 -0.0012  0.0639  0.1420
10699DDP     C164189  23.200  17.278   0.164 -0.0403  0.2265 -0.3031
10699DDP     P164190  23.615  17.428   0.102 -0.2431  0.0921  0.0588
10699DDP     P264191  22.859  17.358   0.081  0.0858 -0.0048  0.0211
10699DDP     C264192  22.563  17.211   0.228  0.0087 -0.1611  0.1068
10699DDP     C364193  23.830  17.788  30.329 -0.4177  0.2696  0.3544
10699DDP     C464194  23.226  16.895   0.399 -0.3994 -0.2511  0.1327
10700DDP     C164195  17.622  15.433   0.998  0.2473  0.0824 -0.1825
10700DDP     P164196  17.931  15.316   1.188 -0.0822  0.2288 -0.0601
10700DDP     P264197  17.534  15.164   0.822 -0.0155 -0.2034 -0.2328
10700DDP     C264198  17.608  14.845   0.582  0.1985  0.0159 -0.1558
10700DDP     C364199  18.328  14.988   1.128  0.4033  0.0697  0.1616
10700DDP     C464200  17.349  15.638   1.290 -0.4044  0.3768 -0.3159
10701DDP     C164201  18.197   5.490  16.654 -0.0923  0.1236 -0.4978
10701DDP     P164202  18.456   5.464  17.041  0.1769  0.0885  0.2516
10701DDP     P264203  18.287   5.191  16.305  0.3635 -0.1162 -0.0347
10701DDP     C264204  18.482   4.890  16.081 -0.1352 -0.0460  0.0771
10701DDP     C364205  18.859   5.461  17.112 -0.3908 -0.0357 -0.1935
10701DDP     C464206  17.845   5.789  16.580  0.0893 -0.0092  0.3043
10702DDP     C164207   5.309  21.020   5.128  0.2758  0.1141  0.1605
10702DDP     P164208   4.894  20.815   5.193 -0.1371 -0.1472 -0.1564
10702DDP     P264209   5.453  21.174   5.465  0.0380 -0.1532 -0.0267
10702DDP     C264210   5.740  21.654   5.581 -0.2301  0.0544  0.2825
10702DDP     C364211   4.617  20.782   4.928 -0.3062 -0.3017 -0.0075
10702DDP     C464212   5.647  20.910   4.780 -0.0095  0.1705 -0.2406
10703DDP     C164213  19.873   0.106  28.450 -0.2929 -0.2801  0.0878
10703DDP     P164214  19.710   0.395  28.766 -0.0603  0.0630  0.4494
10703DDP     P264215  19.884  30.039  28.468 -0.0198 -0.0644 -0.0900
10703DDP     C264216  20.042  29.858  28.928 -0.0037  0.0132 -0.1098
10703DDP     C364217  19.432   0.752  28.793  0.2515  0.1336 -0.1174
10703DDP     C464218  20.057   0.225  28.053 -0.0603  0.2971  0.3624
10704DDP     C164219   2.946  10.648  23.167  0.0834 -0.2315 -0.0681
10704DDP     P164220   2.691  10.959  23.389  0.1912  0.0421 -0.1750
10704DDP     P264221   3.285  10.716  23.220  0.0121  0.2631  0.0287
10704DDP     C264222   3.697  10.838  23.253  0.1912 -0.2506 -0.0010
10704DDP     C364223   2.434  11.229  23.574  0.1423  0.3003  0.2302
10704DDP     C464224   2.734  10.347  22.862  0.1035 -0.2367  0.1679
10705DDP     C164225  27.189  29.991  21.496 -0.0055 -0.1590 -0.3782
10705DDP     P164226  26.780  29.821  21.734 -0.2749 -0.1251  0.2209
10705DDP     P264227  27.140   0.007  21.172 -0.0144 -0.0468 -0.0878
10705DDP     C264228  27.214   0.123  20.772 -0.2128  0.2435  0.1459
10705DDP     C364229  26.503  29.485  21.938  0.1122  0.1659  0.0517
10705DDP     C464230  27.564  29.983  21.594 -0.0570 -0.0772  0.0397
10706DDP     C164231  10.960   8.987  15.902  0.1448  0.2783  0.2310
10706DDP     P164232  11.132   8.812  16.331 -0.0866 -0.0535  0.0225
10706DDP     P264233  11.007   8.901  15.419  0.1979 -0.2741 -0.0882
10706DDP     C264234  11.217   8.673  15.159 -0.0139  0.1655  0.0781
10706DDP     C364235  11.293   8.645  16.642 -0.0940 -0.1687 -0.1537
10706DDP     C464236  10.628   9.195  15.904  0.0279  0.0935 -0.2754
10707DDP     C164237   4.048  12.536   4.913 -0.2578  0.0977  0.1554
10707DDP     P164238   3.927  12.194   5.165 -0.1566  0.1716  0.2992
10707DDP     P264239   3.719  12.648   4.835 -0.0504 -0.2372  0.0993
10707DDP     C264240   3.714  12.948   4.564  0.3982 -0.2407 -0.3636
10707DDP     C364241   3.828  11.855   5.203 -0.0420  0.4232 -0.1722
10707DDP     C464242   4.321  12.785   5.068 -0.3619 -0.0462 -0.0162
10708DDP     C164243  27.435  26.990   9.300  0.0289 -0.1031  0.0747
10708DDP     P164244  27.405  27.030   8.865  0.1692  0.3986  0.0958
10708DDP     P264245  27.479  27.433   9.502  0.2509  0.0541  0.0300
10708DDP     C264246  27.137  27.757   9.631 -0.0298  0.0805 -0.0339
10708DDP     C364247  27.039  26.890   8.632 -0.0687 -0.0631  0.2960
10708DDP     C464248  27.473  26.670   9.540 -0.0472 -0.3857  0.0238
10709DDP     C164249  14.358  14.071  12.274  0.0668  0.0368  0.0097
10709DDP     P164250  14.620  13.714  12.189  0.1022 -0.0094  0.3343
10709DDP     P264251  13.989  14.123  11.965  0.0321 -0.1851  0.2749
10709DDP     C264252  13.602  14.118  11.726 -0.0174  0.0443  0.0763
10709DDP     C364253  14.965  13.484  12.022 -0.1008 -0.0590  0.3460
10709DDP     C464254  14.573  14.405  12.486  0.0226 -0.1058 -0.1765
10710DDP     C164255  28.516  18.928   3.791  0.0715 -0.3957 -0.0715
10710DDP     P164256  28.670  19.092   4.206 -0.2969 -0.1850  0.0788
10710DDP     P264257  28.203  18.750   3.669 -0.2500 -0.2091 -0.0280
10710DDP     C264258  27.863  18.688   3.485 -0.2980 -0.1249 -0.2209
10710DDP     C364259  28.984  19.398   4.243 -0.0086  0.0788  0.2766
10710DDP     C464260  28.875  18.821   3.499 -0.0714  0.1595 -0.2182
10711DDP     C164261  27.256  22.307  25.124  0.0644  0.0123  0.1311
10711DDP     P164262  27.569  22.562  24.872 -0.0102 -0.1407 -0.0581
10711DDP     P264263  26.764  22.232  25.306 -0.0692 -0.0930 -0.1342
10711DDP     C264264  26.360  22.252  25.543 -0.1902  0.3011 -0.2572
10711DDP     C364265  27.593  22.858  24.482  0.1640 -0.0932 -0.1892
10711DDP     C464266  27.525  21.971  25.198 -0.0864  0.1326  0.1003
10712DDP     C164267   5.650  20.188  22.650 -0.0222  0.2887  0.0436
10712DDP     P164268   5.817  19.942  22.315 -0.0651 -0.0081  0.2548
10712DDP     P264269   5.485  19.993  22.942  0.1955 -0.3297  0.2729
10712DDP     C264270   5.197  19.826  23.281  0.0966 -0.1209  0.0888
10712DDP     C364271   6.025  19.673  21.982 -0.1202 -0.0389  0.1721
10712DDP     C464272   5.617  20.694  22.484  0.0632 -0.3468 -0.1074
10713DDP     C164273   3.998   0.948  19.443  0.1690 -0.1876 -0.1125
10713DDP     P164274   4.322   0.842  19.730  0.0990 -0.0655 -0.1728
10713DDP     P264275   3.846   0.775  19.025  0.0763  0.0093  0.2693
10713DDP     C264276   4.027   0.699  18.680 -0.0444  0.2347 -0.0368
10713DDP     C364277   4.728   0.974  19.738  0.2504 -0.1813 -0.1512
10713DDP     C464278   4.123   1.391  19.406 -0.1086  0.0733 -0.1695
10714DDP     C164279  22.833  17.553  21.681 -0.0440  0.3065  0.1467
10714DDP     P164280  23.282  17.407  21.878 -0.0122 -0.1585  0.3346
10714DDP     P264281  22.675  17.732  22.122  0.3175  0.1887  0.0040
10714DDP     C264282  22.841  18.040  22.452  0.1202 -0.4585  0.2977
10714DDP     C364283  23.708  17.405  22.020  0.0062 -0.0026 -0.3141
10714DDP     C464284  22.659  17.671  21.337  0.1969 -0.2131  0.1101
10715DDP     C164285  27.117  28.088  20.237 -0.5685  0.0434  0.2547
10715DDP     P164286  27.085  28.330  19.907  0.3633 -0.0385  0.1378
10715DDP     P264287  27.542  28.053  20.454  0.0060 -0.2280 -0.1083
10715DDP     C264288  27.938  27.955  20.252  0.1936  0.0948  0.1597
10715DDP     C364289  26.848  28.682  19.721  0.1543  0.1456  0.0959
10715DDP     C464290  26.751  27.919  20.398  0.0021 -0.4040  0.0076
10716DDP     C164291  27.649  30.231  17.500  0.0199 -0.0168 -0.0728
10716DDP     P164292  27.575   0.223  17.780  0.1751 -0.0004  0.2908
10716DDP     P264293  27.505  30.197  17.048  0.2236  0.2465  0.2069
10716DDP     C264294  27.324  29.791  16.838  0.0693 -0.0260  0.0718
10716DDP     C364295  27.425   0.514  18.026  0.2762 -0.3516  0.1356
10716DDP     C464296  27.932  29.947  17.689 -0.2332  0.2035  0.2126
10717DDP     C164297  18.650   8.543  28.547 -0.1528  0.2773  0.0467
10717DDP     P164298  18.962   8.797  28.349  0.1007  0.1363 -0.0064
10717DDP     P264299  18.406   8.300  28.267 -0.1569  0.0880 -0.0676
10717DDP     C264300  18.343   7.931  28.366 -0.1101 -0.1516 -0.3324
10717DDP     C364301  18.968   8.765  27.914  0.4451  0.2389  0.0010
10717DDP     C464302  18.506   8.717  28.993 -0.3469  0.0556  0.0532
10718DDP     C164303   7.769  16.955  20.106 -0.0216 -0.0690 -0.1412
10718DDP     P164304   7.772  16.535  20.109  0.3641  0.3353  0.2253
10718DDP     P264305   7.505  17.059  20.443 -0.2352  0.2522 -0.1006
10718DDP     C264306   7.125  16.925  20.716 -0.1300 -0.2220 -0.0947
10718DDP     C364307   8.110  16.039  20.215 -0.2310  0.1266 -0.0002
10718DDP     C464308   7.938  17.307  19.820 -0.0455 -0.1864  0.0833
10719DDP     C164309   0.749  20.278  28.355  0.1326  0.1626 -0.0759
10719DDP     P164310   1.134  20.326  28.498  0.0848 -0.1362 -0.0807
10719DDP     P264311   0.618  19.803  28.438  0.0109 -0.0147 -0.2339
10719DDP     C264312   0.470  19.477  28.405 -0.2032  0.2961  0.1512
10719DDP     C364313   1.436  20.269  28.817  0.2509  0.1559  0.0356
10719DDP     C464314   0.676  20.572  28.046 -0.0962  0.0499  0.2659
10720DDP     C164315  27.237  25.898   5.477 -0.0268  0.2440  0.1093
10720DDP     P164316  26.859  26.116   5.452 -0.2510  0.1696 -0.1245
10720DDP     P264317  27.447  26.175   5.337  0.2092  0.1696  0.0988
10720DDP     C264318  27.437  26.604   5.386 -0.1615 -0.0066  0.0902
10720DDP     C364319  26.661  26.452   5.301  0.3189 -0.0738 -0.0871
10720DDP     C464320  27.352  25.514   5.610  0.0991 -0.2270  0.0704
10721DDP     C164321  15.883  13.135  14.256  0.0239 -0.1787 -0.2159
10721DDP     P164322  15.854  13.426  14.389 -0.1271  0.2564  0.2115
10721DDP     P264323  15.850  12.898  14.658 -0.0199 -0.2540  0.1069
10721DDP     C264324  15.941  12.496  14.904 -0.1318  0.0291  0.2653
10721DDP     C364325  16.031  13.780  14.520 -0.3229 -0.1438  0.0793
10721DDP     C464326  15.987  12.854  13.854 -0.0295  0.1997 -0.0035
10722DDP     C164327   8.075  24.080  28.338 -0.1439 -0.1090  0.0229
10722DDP     P164328   8.064  23.589  28.448 -0.0138  0.1002  0.0129
10722DDP     P264329   7.635  24.149  28.299 -0.1270 -0.1039 -0.0688
10722DDP     C264330   7.415  24.344  27.977  0.0446 -0.0816  0.1709
10722DDP     C364331   8.179  23.048  28.382  0.1027  0.2621 -0.2293
10722DDP     C464332   8.415  24.288  28.061  0.3834 -0.0511  0.1012
10723DDP     C164333  22.427   1.274  16.884 -0.0536 -0.1670  0.2431
10723DDP     P164334  22.120   1.063  16.619  0.0208  0.0728  0.1364
10723DDP     P264335  22.576   1.056  17.245  0.0888 -0.2940 -0.1693
10723DDP     C264336  22.417   1.019  17.664 -0.2117  0.4836 -0.0669
10723DDP     C364337  21.684   1.085  16.680 -0.0225 -0.1535 -0.0556
10723DDP     C464338  22.540   1.407  16.672 -0.0303 -0.2727  0.2962
10724DDP     C164339  29.882  27.918  24.152 -0.0436  0.1736 -0.1112
10724DDP     P164340  30.034  28.069  23.887 -0.4251  0.0079  0.3094
10724DDP     P264341  30.179  27.739  24.433  0.0465  0.0356 -0.1621
10724DDP     C264342  30.243  27.536  24.869 -0.1684  0.1340  0.2455
10724DDP     C364343  30.107  28.416  23.912 -0.0715 -0.1384 -0.0470
10724DDP     C464344  29.450  27.750  24.202 -0.3654 -0.4419 -0.1305
10725DDP     C164345  24.112  16.722   6.151  0.0714 -0.3118  0.2672
10725DDP     P164346  23.735  16.376   6.090 -0.1430  0.0617  0.0650
10725DDP     P264347  23.901  17.006   6.420 -0.0351  0.1466  0.2208
10725DDP     C264348  23.859  16.988   6.780  0.0746  0.0959  0.0550
10725DDP     C364349  23.771  16.026   5.659  0.1767  0.0152 -0.2579
10725DDP     C464350  24.437  16.460   6.177 -0.1517 -0.3113 -0.0992
10726DDP     C164351  12.058  29.361  16.047 -0.0873  0.2482 -0.2332
10726DDP     P164352  11.770  29.373  15.829 -0.2982 -0.1561 -0.0147
10726DDP     P264353  12.107  29.671  16.434  0.0573 -0.0155  0.0628
10726DDP     C264354  12.247  30.077  16.621  0.1639 -0.4404  0.1242
10726DDP     C364355  11.390  29.306  16.017 -0.3213  0.0879 -0.3841
10726DDP     C464356  12.494  29.236  15.933  0.1098  0.1341  0.1451
10727DDP     C164357   6.057  17.468  26.324  0.2780 -0.1015 -0.0837
10727DDP     P164358   6.401  17.358  26.417  0.3090 -0.3320  0.1369
10727DDP     P264359   5.855  17.286  25.965  0.0020  0.2275  0.0806
10727DDP     C264360   5.928  17.154  25.583 -0.1955  0.0026 -0.1260
10727DDP     C364361   6.704  17.573  26.228  0.0391  0.0916  0.1083
10727DDP     C464362   6.029  17.730  26.568 -0.1004 -0.1350  0.1422
10728DDP     C164363  19.057  10.711  14.501  0.1958  0.0899 -0.3303
10728DDP     P164364  18.982  11.000  14.810  0.0395 -0.0401  0.1309
10728DDP     P264365  19.456  10.471  14.546 -0.2495  0.0533 -0.2354
10728DDP     C264366  19.738  10.626  14.837 -0.3199 -0.1327 -0.0667
10728DDP     C364367  18.689  10.939  15.250 -0.1184 -0.0601  0.1675
10728DDP     C464368  18.999  10.734  13.993  0.1715 -0.3332 -0.1609
10729DDP     C164369  15.484   3.853  28.876  0.0549 -0.0154 -0.0854
10729DDP     P164370  15.827   4.040  29.077 -0.0646  0.1144  0.4224
10729DDP     P264371  15.100   4.000  28.708 -0.1012 -0.1811  0.1329
10729DDP     C264372  14.701   4.141  28.833 -0.2408 -0.0147  0.1403
10729DDP     C364373  16.240   3.968  29.242 -0.3142 -0.0414  0.2063
10729DDP     C464374  15.606   3.465  28.683  0.0025 -0.3250 -0.2532
10730DDP     C164375  21.917   5.222   0.478  0.2755  0.0042 -0.2824
10730DDP     P164376  21.952   5.188   0.158 -0.0803 -0.2257  0.1757
10730DDP     P264377  21.479   5.098   0.537  0.0995 -0.2079  0.0971
10730DDP     C264378  21.103   4.735   0.583 -0.1641 -0.0104  0.2080
10730DDP     C364379  22.303   5.177   0.029  0.1228 -0.0343 -0.1697
10730DDP     C464380  22.001   5.561   0.852  0.0486  0.0095  0.1875
10731DDP     C164381  23.210  29.830  23.723  0.2714 -0.3149  0.0652
10731DDP     P164382  22.758  30.043  23.557 -0.6168  0.0692 -0.1121
10731DDP     P264383  23.512  30.117  23.427 -0.0300  0.1438 -0.3936
10731DDP     C264384  23.789  30.014  23.192  0.1674  0.2200 -0.1209
10731DDP     C364385  22.445  30.079  23.115 -0.0728  0.5736 -0.1267
10731DDP     C464386  23.216  29.632  24.143 -0.1321 -0.0308  0.0095
10732DDP     C164387  28.714  23.139  14.094 -0.2280  0.2112  0.0077
10732DDP     P164388  28.543  23.610  14.050  0.0860 -0.2878 -0.0319
10732DDP     P264389  28.998  23.047  14.402  0.0237 -0.1500  0.0878
10732DDP     C264390  29.273  22.765  14.637 -0.0018 -0.2177  0.2242
10732DDP     C364391  28.608  23.960  13.779 -0.0604  0.1678  0.1100
10732DDP     C464392  28.280  22.838  14.042  0.0514 -0.0930 -0.1181
10733DDP     C164393   5.608   0.149  25.629 -0.0342  0.0460  0.1574
10733DDP     P164394   5.441  30.225  25.327 -0.0285 -0.0628 -0.2245
10733DDP     P264395   5.616  30.082  25.826  0.2151 -0.1551 -0.0772
10733DDP     C264396   5.688  29.805  26.117  0.0727 -0.4939  0.1682
10733DDP     C364397   4.990  30.190  25.241  0.0630 -0.1547  0.1944
10733DDP     C464398   5.841   0.450  25.773  0.0465  0.0347  0.0234
10734DDP     C164399  10.680  13.105  28.046  0.1710 -0.3176  0.2058
10734DDP     P164400  10.406  12.776  27.761 -0.2259  0.0683  0.0155
10734DDP     P264401  10.783  13.359  27.826 -0.0479  0.0481 -0.1126
10734DDP     C264402  10.597  13.665  27.736 -0.0340 -0.0329 -0.2922
10734DDP     C364403  10.685  12.448  27.692  0.3038 -0.1862  0.0517
10734DDP     C464404  10.362  13.238  28.293  0.3692  0.2302  0.0186
10735DDP     C164405   9.411   5.131   5.761 -0.1963  0.1015  0.0137
10735DDP     P164406   9.285   5.309   5.342 -0.1584 -0.0094 -0.1333
10735DDP     P264407   9.119   5.276   6.139  0.1677 -0.1709 -0.1074
10735DDP     C264408   8.757   5.224   6.307  0.0052 -0.0302  0.2808
10735DDP     C364409   9.102   5.562   5.005  0.1397 -0.4521 -0.2389
10735DDP     C464410   9.475   4.661   5.734 -0.0907  0.1852 -0.0540
10736DDP     C164411  20.704   6.950  24.108 -0.0699  0.3154 -0.1301
10736DDP     P164412  20.397   7.127  23.811 -0.1832 -0.0000  0.0879
10736DDP     P264413  20.647   6.653  24.426 -0.0503  0.0138 -0.1261
10736DDP     C264414  20.400   6.349  24.603 -0.1256 -0.3513  0.1411
10736DDP     C364415  20.088   6.955  23.508 -0.0212 -0.1735  0.0022
10736DDP     C464416  21.120   6.990  24.183  0.1926 -0.1537  0.0617
10737DDP     C164417  10.288   7.105  25.424 -0.0086  0.3562 -0.2887
10737DDP     P164418  10.711   7.169  25.487  0.0277 -0.0108 -0.2292
10737DDP     P264419  10.104   6.586  25.439 -0.1262 -0.2670  0.1406
10737DDP     C264420   9.958   6.240  25.307  0.1237  0.0979 -0.0190
10737DDP     C364421  11.190   6.921  25.414 -0.2062 -0.1555  0.1658
10737DDP     C464422  10.018   7.456  25.382 -0.0343  0.1064  0.1654
10738DDP     C164423   7.920  11.342  23.475 -0.2023  0.0661 -0.2619
10738DDP     P164424   8.115  11.471  23.128 -0.3550 -0.3771  0.2346
10738DDP     P264425   8.094  11.553  23.873  0.2208  0.2358 -0.0907
10738DDP     C264426   7.879  11.650  24.246 -0.2278  0.1177 -0.2027
10738DDP     C364427   8.394  11.211  22.970  0.0635 -0.0285  0.3912
10738DDP     C464428   7.605  11.064  23.706  0.1189 -0.0686  0.0690
10739DDP     C164429   6.039  30.037  28.450  0.1090  0.1437  0.0740
10739DDP     P164430   6.079  29.809  28.065  0.1064  0.1418  0.1857
10739DDP     P264431   5.973  29.763  28.813 -0.0011  0.0391 -0.0534
10739DDP     C264432   5.572  29.813  29.072  0.0553 -0.0674  0.0394
10739DDP     C364433   5.992  29.711  27.649 -0.1002  0.0233 -0.0434
10739DDP     C464434   6.034   0.156  28.617  0.1241  0.2800  0.2438
10740DDP     C164435  13.841  29.701  25.585 -0.3424  0.1203  0.1729
10740DDP     P164436  14.183  29.514  25.339 -0.4144 -0.1447 -0.0173
10740DDP     P264437  13.794  29.968  25.896  0.4146  0.0622  0.2173
10740DDP     C264438  13.963  30.056  26.299 -0.0076  0.0347 -0.2061
10740DDP     C364439  14.461  29.455  24.870 -0.1090  0.0640  0.1798
10740DDP     C464440  13.663  29.732  25.227  0.0908  0.0921  0.1407
10741DDP     C164441  17.756  15.201  11.847 -0.0028 -0.2573  0.0007
10741DDP     P164442  18.184  15.048  11.839 -0.0852 -0.1311  0.0631
10741DDP     P264443  17.531  15.437  11.419 -0.3130 -0.1527 -0.0666
10741DDP     C264444  17.523  15.199  11.035  0.2504  0.2843  0.2552
10741DDP     C364445  18.661  14.912  11.687  0.0111 -0.1817 -0.0755
10741DDP     C464446  17.450  15.244  12.210  0.0695  0.1501 -0.2767
10742DDP     C164447  18.962  28.910  26.523 -0.2804  0.0323  0.2953
10742DDP     P164448  19.019  28.398  26.522 -0.3056 -0.0138 -0.0153
10742DDP     P264449  19.213  29.098  26.877  0.1369 -0.2254 -0.0601
10742DDP     C264450  19.324  29.577  26.765  0.1030 -0.0590 -0.1135
10742DDP     C364451  18.761  28.119  26.688 -0.0749 -0.2512  0.2854
10742DDP     C464452  18.754  29.228  26.399 -0.0818  0.3265 -0.2501
10743DDP     C164453   8.730  16.618  28.220  0.0704 -0.0866 -0.1203
10743DDP     P164454   9.092  16.813  28.470  0.1512 -0.0542  0.4452
10743DDP     P264455   8.399  16.764  28.498  0.1972 -0.0681  0.2406
10743DDP     C264456   8.043  16.683  28.802 -0.0236  0.0902 -0.1949
10743DDP     C364457   9.307  17.034  28.830  0.1967  0.1239  0.2591
10743DDP     C464458   8.815  16.280  27.867 -0.0521 -0.0308  0.1837
10744DDP     C164459  24.877  27.440   2.208 -0.1904  0.0585  0.0345
10744DDP     P164460  25.190  27.143   2.384 -0.0143  0.1866 -0.2249
10744DDP     P264461  24.486  27.216   2.050  0.2777 -0.1185 -0.1376
10744DDP     C264462  24.177  26.830   2.117  0.1385  0.0696 -0.0945
10744DDP     C364463  25.092  26.693   2.339 -0.1810 -0.2848  0.2851
10744DDP     C464464  25.020  27.926   2.125  0.2494 -0.0255 -0.1687
10745DDP     C164465  21.126   4.108  22.916 -0.0620 -0.2467  0.2633
10745DDP     P164466  21.369   4.364  23.284  0.3450 -0.2903 -0.0858
10745DDP     P264467  20.754   4.228  22.683 -0.0243 -0.1244 -0.0868
10745DDP     C264468  20.501   4.402  22.330  0.0688 -0.2513  0.2109
10745DDP     C364469  21.593   4.744  23.479 -0.0195  0.2258  0.2663
10745DDP     C464470  21.335   3.764  22.779 -0.1650 -0.2328  0.3893
10746DDP     C164471   7.915  12.087  18.425 -0.2828 -0.0815 -0.2404
10746DDP     P164472   7.941  11.766  18.103  0.0375  0.0560  0.1053
10746DDP     P264473   8.276  12.202  18.572 -0.1571  0.2179  0.0446
10746DDP     C264474   8.625  12.272  18.672  0.1710  0.0611  0.0216
10746DDP     C364475   7.708  11.517  17.993 -0.0651 -0.0117  0.1620
10746DDP     C464476   7.605  12.143  18.733 -0.0529  0.0817  0.1999
10747DDP     C164477  26.669  28.164   3.364 -0.2123  0.1407 -0.0327
10747DDP     P164478  26.682  27.904   2.991 -0.1096  0.0343 -0.3093
10747DDP     P264479  26.711  27.949   3.737  0.0084  0.0512  0.3081
10747DDP     C264480  26.780  27.897   4.191 -0.0092 -0.0593 -0.0904
10747DDP     C364481  26.854  27.447   2.926 -0.1047  0.1263  0.3476
10747DDP     C464482  26.433  28.540   3.225  0.5179  0.1823  0.0977
10748DDP     C164483   7.586   9.002   8.445 -0.2040  0.1019 -0.0544
10748DDP     P164484   7.688   9.312   8.420  0.0405 -0.5141 -0.0066
10748DDP     P264485   7.885   8.870   8.680  0.2787 -0.3009 -0.2381
10748DDP     C264486   8.126   9.208   8.796  0.0718 -0.2048 -0.0790
10748DDP     C364487   7.732   9.719   8.652  0.0119 -0.1284 -0.1358
10748DDP     C464488   7.257   8.895   8.273 -0.1259  0.0390  0.2359
10749DDP     C164489  21.918  26.110  22.937 -0.0855 -0.0516 -0.3434
10749DDP     P164490  21.965  26.234  22.444 -0.0516  0.4266 -0.2196
10749DDP     P264491  21.577  25.743  23.249  0.1610  0.4029 -0.0568
10749DDP     C264492  21.158  25.637  23.407  0.1705  0.3176 -0.0319
10749DDP     C364493  21.871  26.266  21.956  0.1049 -0.2915 -0.1432
10749DDP     C464494  22.224  26.401  23.028 -0.0029  0.1405  0.0710
10750DDP     C164495  14.725  19.589   4.948  0.3163  0.0935  0.4177
10750DDP     P164496  15.059  19.908   5.043 -0.0969 -0.2396  0.1199
10750DDP     P264497  14.492  19.732   4.556 -0.0093 -0.1829 -0.1261
10750DDP     C264498  14.317  19.489   4.182  0.0229 -0.1350 -0.3064
10750DDP     C364499  15.141  20.377   5.157 -0.1196 -0.0454  0.0860
10750DDP     C464500  14.340  19.400   5.264 -0.0877  0.0502 -0.0114
10751DDP     C164501   3.659   1.772  29.804 -0.1522 -0.1979 -0.0231
10751DDP     P164502   3.776   1.798  30.172  0.1781 -0.2017  0.4989
10751DDP     P264503   3.592   1.350  29.716  0.2226 -0.1292  0.1577
10751DDP     C264504   3.507   1.123  29.386 -0.2671 -0.1335  0.0231
10751DDP     C364505   3.595   1.886   0.305 -0.0860 -0.2333 -0.0642
10751DDP     C464506   3.692   2.104  29.557 -0.0592  0.0939 -0.1083
10752DDP     C164507  26.710   7.720   9.860  0.0380  0.5606  0.0530
10752DDP     P164508  26.668   7.619  10.358 -0.1734  0.0223 -0.0925
10752DDP     P264509  27.079   7.649   9.564  0.0048  0.1284  0.0281
10752DDP     C264510  27.045   7.457   9.159  0.1189  0.1251 -0.1507
10752DDP     C364511  26.506   7.222  10.479 -0.0791  0.0019 -0.1301
10752DDP     C464512  26.227   7.723   9.544 -0.3956 -0.1506  0.3262
10753DDP     C164513  11.549  24.586  26.123  0.0371 -0.0803  0.0765
10753DDP     P164514  11.128  24.396  26.387  0.0644 -0.2282 -0.2335
10753DDP     P264515  11.558  24.401  25.755 -0.0996  0.2043  0.3210
10753DDP     C264516  11.777  24.347  25.311  0.2998  0.2667  0.2760
10753DDP     C364517  11.022  24.171  26.730 -0.2241  0.4393  0.1916
10753DDP     C464518  11.818  24.891  26.228  0.0141 -0.0568  0.2843
10754DDP     C164519   1.172   1.196   6.602  0.2619 -0.3700  0.0323
10754DDP     P164520   0.722   1.233   6.424  0.0899  0.3322 -0.0111
10754DDP     P264521   1.278   1.467   6.849  0.0192  0.0385  0.2989
10754DDP     C264522   1.260   1.272   7.298 -0.1584 -0.2423 -0.0679
10754DDP     C364523   0.446   1.097   6.063  0.2164 -0.2141 -0.0429
10754DDP     C464524   1.497   0.999   6.437  0.1621  0.2572  0.2536
10755DDP     C164525   8.709  17.459  27.853 -0.0557 -0.0807  0.2752
10755DDP     P164526   8.899  17.287  28.222 -0.0402 -0.0218 -0.3820
10755DDP     P264527   8.836  17.242  27.432 -0.0333 -0.0929  0.1069
10755DDP     C264528   8.769  17.335  27.030 -0.0537 -0.0900  0.3367
10755DDP     C364529   8.830  17.292  28.724 -0.0594  0.0100 -0.1655
10755DDP     C464530   8.533  17.818  27.749  0.2322 -0.2293  0.2372
10756DDP     C164531  15.021  12.685  27.113 -0.0280  0.0596 -0.0700
10756DDP     P164532  14.886  12.509  26.863  0.0511  0.1364 -0.2380
10756DDP     P264533  15.324  12.560  27.405  0.1369 -0.1393 -0.0879
10756DDP     C264534  15.704  12.466  27.411 -0.0661 -0.0224 -0.0990
10756DDP     C364535  14.598  12.476  26.524  0.1944  0.0654 -0.0171
10756DDP     C464536  14.867  13.070  27.217 -0.1508 -0.2201 -0.4332
10757DDP     C164537  21.268  11.068  24.454  0.1201  0.0002  0.1017
10757DDP     P164538  21.433  11.450  24.664  0.1134 -0.0475 -0.1628
10757DDP     P264539  21.489  10.695  24.461  0.2573  0.0096 -0.0139
10757DDP     C264540  21.713  10.286  24.341 -0.2112  0.0420 -0.0959
10757DDP     C364541  21.551  11.869  24.880 -0.0394  0.0224 -0.1386
10757DDP     C464542  20.981  11.189  24.183  0.3152  0.1444  0.2508
10758DDP     C164543  29.163  25.139  23.680 -0.2375  0.1029  0.2234
10758DDP     P164544  28.810  25.167  23.568 -0.0473 -0.1975  0.2101
10758DDP     P264545  29.231  24.659  23.827 -0.0929 -0.3354 -0.1720
10758DDP     C264546  29.140  24.337  24.124  0.2720 -0.1110 -0.0660
10758DDP     C364547  28.454  25.489  23.563  0.1139 -0.1721 -0.3864
10758DDP     C464548  29.396  25.453  23.505 -0.1644 -0.1788  0.0418
10759DDP     C164549  14.606  12.540  11.344  0.2229 -0.1860 -0.0332
10759DDP     P164550  14.771  12.753  11.646 -0.1610  0.2561  0.0286
10759DDP     P264551  14.843  12.707  10.927  0.1306  0.1177  0.2303
10759DDP     C264552  15.150  12.682  10.642 -0.0421 -0.2915  0.0087
10759DDP     C364553  14.699  13.005  11.995 -0.1922  0.0773 -0.2110
10759DDP     C464554  14.523  12.089  11.263 -0.1118  0.4815 -0.2015
10760DDP     C164555  11.432  14.218   1.644 -0.0676  0.0200  0.1830
10760DDP     P164556  11.440  13.949   1.241  0.0551  0.0891 -0.1192
10760DDP     P264557  11.234  14.015   2.074  0.2228  0.2716 -0.1622
10760DDP     C264558  10.828  13.814   2.149  0.1857  0.1595  0.3667
10760DDP     C364559  11.654  13.897   0.928 -0.0544 -0.1052 -0.1141
10760DDP     C464560  11.598  14.696   1.662 -0.0064  0.0883 -0.0854
10761DDP     C164561  17.768   7.689  29.536  0.0219  0.2118  0.1179
10761DDP     P164562  17.698   7.216  29.732  0.3073  0.0274 -0.1203
10761DDP     P264563  18.152   7.960  29.522 -0.0505  0.1269 -0.2379
10761DDP     C264564  18.051   8.307  29.332  0.2025 -0.0816 -0.0940
10761DDP     C364565  17.782   6.744  29.691 -0.0088 -0.0588 -0.0262
10761DDP     C464566  17.413   7.718  29.265 -0.1759 -0.0056 -0.6424
10762DDP     C164567  28.759  16.854  22.331 -0.0906  0.1474  0.0666
10762DDP     P164568  28.986  17.109  22.692  0.0980 -0.1056 -0.1854
10762DDP     P264569  28.695  16.489  22.292  0.1873  0.1804  0.1640
10762DDP     C264570  28.779  16.080  22.037 -0.1499 -0.2497 -0.0394
10762DDP     C364571  28.837  17.443  22.959  0.0128 -0.1473  0.2928
10762DDP     C464572  28.637  17.120  21.897  0.0411 -0.1796  0.2383
10763DDP     C164573  15.478  28.195   8.084  0.1921 -0.0348 -0.0481
10763DDP     P164574  15.244  28.055   8.405 -0.0779  0.0086 -0.0577
10763DDP     P264575  15.774  28.459   8.318  0.4066  0.1313 -0.0913
10763DDP     C264576  15.726  28.713   8.691 -0.1404  0.2207 -0.0890
10763DDP     C364577  15.032  27.828   8.648  0.1093  0.2795 -0.2208
10763DDP     C464578  15.419  28.238   7.643 -0.0496  0.3843  0.1611
10764DDP     C164579   8.659  27.794  16.757 -0.1868  0.0914  0.1322
10764DDP     P164580   8.571  28.129  17.072  0.0211 -0.2566  0.1198
10764DDP     P264581   9.096  27.621  16.753  0.0499  0.0767 -0.2018
10764DDP     C264582   9.419  27.338  16.488 -0.0004  0.0213  0.0207
10764DDP     C364583   8.615  28.649  17.110 -0.1788 -0.1311 -0.1944
10764DDP     C464584   8.419  27.515  16.615  0.0956 -0.3232  0.2279
10765DDP     C164585   7.967   8.277  19.074  0.0387 -0.2719  0.0645
10765DDP     P164586   8.319   8.069  18.932 -0.2995  0.0998 -0.0193
10765DDP     P264587   7.777   8.356  18.725 -0.1467  0.2296 -0.0433
10765DDP     C264588   7.612   8.478  18.307 -0.0427 -0.2500  0.0427
10765DDP     C364589   8.756   8.080  19.128 -0.3981 -0.0658 -0.1132
10765DDP     C464590   7.835   8.659  19.436 -0.3772  0.1033  0.0338
10766DDP     C164591  22.445  21.546  16.981 -0.0273  0.1187  0.1332
10766DDP     P164592  22.495  21.948  17.075 -0.2028 -0.2757 -0.1112
10766DDP     P264593  22.786  21.308  16.982 -0.0035  0.1865  0.1168
10766DDP     C264594  23.184  21.230  16.704 -0.0056  0.2501 -0.0973
10766DDP     C364595  22.717  22.246  16.965 -0.0527  0.0948 -0.1300
10766DDP     C464596  21.927  21.454  16.943 -0.4360  0.1212  0.0306
10767DDP     C164597   7.222  28.201   7.224  0.2883  0.1209 -0.2447
10767DDP     P164598   7.003  27.778   7.285 -0.3452  0.1551 -0.0485
10767DDP     P264599   7.667  28.205   7.054  0.1934 -0.1426 -0.0010
10767DDP     C264600   7.877  28.481   6.915 -0.1549 -0.0145  0.1562
10767DDP     C364601   7.050  27.312   7.299  0.2392  0.1494 -0.1704
10767DDP     C464602   7.174  28.563   7.534  0.1236  0.0255 -0.1319
10768DDP     C164603  28.499   4.617   6.104  0.0817  0.0498  0.1212
10768DDP     P164604  28.365   4.974   6.415  0.1114  0.0706  0.1376
10768DDP     P264605  28.116   4.791   5.862 -0.0211  0.0356 -0.4370
10768DDP     C264606  27.688   4.894   5.653 -0.1624  0.0291  0.1266
10768DDP     C364607  28.439   5.249   6.714  0.3847  0.1138 -0.0422
10768DDP     C464608  28.914   4.399   6.204 -0.0921  0.2318 -0.0146
10769DDP     C164609  14.201  26.683   9.663 -0.1161  0.0072 -0.2356
10769DDP     P164610  14.415  26.723  10.099 -0.0302  0.0745  0.4637
10769DDP     P264611  14.279  26.220   9.510  0.2493 -0.0079  0.3073
10769DDP     C264612  14.327  25.788   9.373  0.0389 -0.1852 -0.2613
10769DDP     C364613  14.426  27.019  10.415 -0.1564  0.0394  0.1431
10769DDP     C464614  13.924  26.969   9.372 -0.2224  0.1751 -0.1950
10770DDP     C164615  30.155  25.119   9.575 -0.1169 -0.1632 -0.0535
10770DDP     P164616   0.115  24.847   9.291 -0.1057 -0.1351 -0.0764
10770DDP     P264617  29.809  25.056   9.510  0.4408 -0.2163 -0.1168
10770DDP     C264618  29.622  25.311   9.152  0.0096  0.0375 -0.2647
10770DDP     C364619   0.551  24.941   9.385  0.0135  0.0488 -0.0206
10770DDP     C464620  30.071  25.332   9.971  0.3256 -0.0708  0.0115
10771DDP     C164621   2.025   8.342   0.525  0.1589 -0.0296  0.0600
10771DDP     P164622   2.116   7.905   0.750  0.0215  0.2106  0.0689
10771DDP     P264623   2.254   8.796   0.614  0.0596 -0.1497 -0.0514
10771DDP     C264624   2.350   9.189   0.343 -0.3047  0.1138  0.1737
10771DDP     C364625   2.287   7.425   0.756 -0.0166 -0.2910 -0.1543
10771DDP     C464626   1.689   8.384   0.345  0.2171 -0.0276 -0.3510
10772DDP     C164627  28.627  11.483   6.552 -0.1258  0.0459 -0.3867
10772DDP     P164628  28.512  11.954   6.633 -0.0852  0.0657  0.1650
10772DDP     P264629  28.725  11.540   6.116  0.0777 -0.0180 -0.1018
10772DDP     C264630  28.691  11.547   5.652 -0.0169 -0.0621 -0.0661
10772DDP     C364631  28.659  12.311   6.414 -0.1447  0.0371 -0.0690
10772DDP     C464632  28.512  11.148   6.904 -0.1746  0.0722 -0.0754
10773DDP     C164633  10.579  17.018  12.180 -0.0085 -0.1242  0.0681
10773DDP     P164634  10.520  16.859  11.718  0.2074 -0.1006 -0.1498
10773DDP     P264635  10.087  16.941  12.313  0.1592 -0.0049 -0.0793
10773DDP     C264636   9.779  16.980  12.809 -0.1016  0.0937  0.0966
10773DDP     C364637  10.319  16.845  11.305  0.2474 -0.0575  0.1574
10773DDP     C464638  10.809  17.203  12.512 -0.1356 -0.0902 -0.0128
10774DDP     C164639  26.275  27.694   6.062 -0.3437  0.0306  0.2909
10774DDP     P164640  26.157  27.333   5.826 -0.2888  0.1769 -0.1171
10774DDP     P264641  26.071  28.154   6.070  0.1041  0.0073 -0.0477
10774DDP     C264642  25.915  28.436   6.463  0.1271  0.1318 -0.1257
10774DDP     C364643  25.831  27.083   5.638  0.1767 -0.1354  0.0530
10774DDP     C464644  26.761  27.684   6.336  0.0092  0.1016  0.0393
10775DDP     C164645   1.977   6.801  21.570  0.0084 -0.1241  0.1700
10775DDP     P164646   2.374   6.453  21.519  0.0983  0.0236 -0.2596
10775DDP     P264647   1.518   6.662  21.314  0.0820  0.0303  0.1659
10775DDP     C264648   1.085   6.817  21.316  0.0210 -0.3003  0.1550
10775DDP     C364649   2.613   6.298  21.251 -0.5691  0.0208  0.1678
10775DDP     C464650   2.014   7.223  21.683 -0.1944  0.1679 -0.0838
10776DDP     C164651  12.322   1.908  30.204  0.0402  0.0085 -0.3397
10776DDP     P164652  12.063   2.172   0.151  0.3087 -0.2689  0.3111
10776DDP     P264653  12.757   1.831  -0.035 -0.1030 -0.4006 -0.1583
10776DDP     C264654  13.000   1.507  -0.007 -0.3512 -0.3153  0.1375
10776DDP     C364655  12.087   2.491   0.551  0.3690 -0.0537 -0.3421
10776DDP     C464656  12.143   1.644  29.870 -0.1022 -0.0536 -0.0059
10777DDP     C164657  16.631  18.876  19.983 -0.1268 -0.1819 -0.2058
10777DDP     P164658  16.578  18.345  19.958 -0.1318 -0.3831  0.2560
10777DDP     P264659  16.454  19.187  19.662 -0.1438 -0.1246  0.1971
10777DDP     C264660  16.647  19.390  19.265 -0.1466  0.1848  0.0404
10777DDP     C364661  16.854  18.068  19.730  0.1435  0.1671  0.2529
10777DDP     C464662  16.657  19.090  20.380 -0.1867 -0.0186  0.0893
10778DDP     C164663  28.702  26.399  18.890  0.0107  0.0130 -0.1337
10778DDP     P164664  28.563  26.243  18.554 -0.1635  0.0211  0.0664
10778DDP     P264665  28.465  26.539  19.348  0.1181 -0.0201  0.1104
10778DDP     C264666  28.488  26.551  19.785 -0.0698 -0.0770 -0.0566
10778DDP     C364667  28.403  25.999  18.196 -0.1388 -0.0183  0.2312
10778DDP     C464668  29.188  26.340  18.830 -0.3047  0.0752 -0.2618
10779DDP     C164669  29.993  25.484   6.378  0.0483 -0.2619 -0.3609
10779DDP     P164670  30.039  25.247   6.665  0.0196  0.4362 -0.1796
10779DDP     P264671   0.100  25.537   6.205  0.1747  0.0056 -0.0700
10779DDP     C264672   0.428  25.677   5.909  0.0175  0.3057 -0.2486
10779DDP     C364673  29.762  24.941   6.751  0.0415  0.1709 -0.0339
10779DDP     C464674  29.636  25.735   6.159  0.2192 -0.2699 -0.1914
10780DDP     C164675  28.952  27.668   1.544  0.2280 -0.0883  0.0392
10780DDP     P164676  29.201  27.610   1.982 -0.1112 -0.0419  0.3778
10780DDP     P264677  28.968  27.835   1.191 -0.0290  0.3075 -0.2298
10780DDP     C264678  28.593  27.573   1.003  0.0816  0.1396  0.1258
10780DDP     C364679  29.703  27.667   2.146  0.0434 -0.0401  0.1802
10780DDP     C464680  28.545  27.496   1.503  0.0737 -0.0801 -0.0084
10781DDP     C164681  29.291  29.535  25.542 -0.0095 -0.3676  0.1503
10781DDP     P164682  29.391  29.425  25.927  0.0130 -0.2838  0.1854
10781DDP     P264683  28.816  29.614  25.505 -0.1356 -0.0668  0.1613
10781DDP     C264684  28.452  29.610  25.255  0.0397 -0.1127 -0.0172
10781DDP     C364685  29.552  29.233  26.260 -0.0577 -0.3069 -0.0395
10781DDP     C464686  29.608  29.530  25.279  0.2399  0.1945 -0.0430
10782DDP     C164687  15.101   9.143  28.720  0.1066 -0.0192 -0.2220
10782DDP     P164688  14.820   8.863  29.015 -0.2284 -0.3387 -0.0092
10782DDP     P264689  15.139   9.589  28.973  0.0960 -0.0039  0.1721
10782DDP     C264690  15.273   9.959  29.089  0.1345  0.1670 -0.0302
10782DDP     C364691  14.563   8.581  29.241  0.0728 -0.1245 -0.0496
10782DDP     C464692  15.197   9.186  28.321  0.1838  0.0409  0.1116
10783DDP     C164693   0.817  22.281  19.099  0.0879 -0.1335  0.0575
10783DDP     P164694   0.785  22.364  18.702 -0.0059  0.0742  0.0040
10783DDP     P264695   0.494  22.078  19.361 -0.0329 -0.2234  0.3015
10783DDP     C264696   0.256  21.890  19.671 -0.0575  0.0538  0.1033
10783DDP     C364697   0.640  22.564  18.374  0.0441 -0.1654  0.2548
10783DDP     C464698   1.167  22.299  19.281 -0.1048 -0.2063  0.0602
10784DDP     C164699  20.409   3.706  11.524 -0.2326  0.4920  0.0592
10784DDP     P164700  20.851   3.651  11.478  0.0467 -0.1120 -0.0233
10784DDP     P264701  20.328   3.649  11.148  0.2148 -0.0531  0.1092
10784DDP     C264702  20.073   3.765  10.857 -0.0570 -0.0354 -0.0108
10784DDP     C364703  21.094   3.457  11.103 -0.0648  0.0364 -0.0733
10784DDP     C464704  20.233   3.877  11.919  0.0156 -0.0176  0.3402
10785DDP     C164705  30.213  13.008   4.589  0.0926  0.1307  0.2224
10785DDP     P164706  29.794  12.889   4.436 -0.0839  0.1756 -0.0711
10785DDP     P264707  30.101  13.309   4.945 -0.0078 -0.2023 -0.2421
10785DDP     C264708  29.787  13.418   5.144  0.1099  0.0884 -0.1298
10785DDP     C364709  29.526  13.049   4.081  0.2616  0.0950  0.0000
10785DDP     C464710   0.271  12.886   4.346 -0.0890 -0.0418  0.1705
10786DDP     C164711   1.152   7.581  23.050 -0.0303 -0.0092  0.0492
10786DDP     P164712   1.118   7.793  22.735 -0.0971 -0.0281  0.1683
10786DDP     P264713   0.848   7.603  23.313 -0.2492 -0.0331  0.1077
10786DDP     C264714   0.563   7.723  23.480 -0.1702  0.0654 -0.1995
10786DDP     C364715   0.869   7.893  22.418 -0.0843  0.0033 -0.1570
10786DDP     C464716   1.515   7.508  23.422  0.1083  0.0436 -0.0254
10787DDP     C164717  23.114  18.491  15.253 -0.2256 -0.1045  0.0349
10787DDP     P164718  23.405  18.789  15.057  0.1567 -0.0290  0.3334
10787DDP     P264719  23.219  18.063  15.341 -0.2591  0.0548  0.1414
10787DDP     C264720  23.543  17.981  15.490  0.1996 -0.1290 -0.1003
10787DDP     C364721  23.401  19.115  14.674  0.0599  0.0235 -0.0441
10787DDP     C464722  22.620  18.607  15.252 -0.0932  0.0447 -0.0160
10788DDP     C164723  19.384  13.689  27.269 -0.1862  0.0211  0.0860
10788DDP     P164724  19.663  13.706  26.993  0.2746  0.2226 -0.0688
10788DDP     P264725  19.440  13.284  27.548 -0.0803 -0.0420 -0.1431
10788DDP     C264726  19.564  12.931  27.698 -0.0818 -0.2905 -0.2270
10788DDP     C364727  19.819  13.520  26.608 -0.0699  0.1120  0.1253
10788DDP     C464728  19.180  13.999  27.506 -0.2791 -0.0184  0.1987
10789DDP     C164729  14.947   4.638  18.683  0.2238  0.0480  0.2687
10789DDP     P164730  15.010   5.061  18.505  0.2163  0.0646 -0.0467
10789DDP     P264731  15.022   4.370  18.393  0.0686  0.2210 -0.0864
10789DDP     C264732  14.641   3.993  18.416  0.0236  0.1416 -0.1422
10789DDP     C364733  15.461   5.187  18.397  0.0136  0.0937  0.3237
10789DDP     C464734  15.107   4.665  19.104  0.1252 -0.3671 -0.0787
10790DDP     C164735   6.670   2.459  28.280 -0.0633  0.0302 -0.0545
10790DDP     P164736   7.084   2.375  28.403 -0.5313  0.2114 -0.2770
10790DDP     P264737   6.440   2.351  27.885  0.3190  0.1079 -0.3045
10790DDP     C264738   6.223   1.924  27.864 -0.0774 -0.1879 -0.0213
10790DDP     C364739   7.406   2.493  28.137 -0.0598  0.2771 -0.0204
10790DDP     C464740   6.357   2.802  28.461 -0.1861 -0.0088  0.2821
10791DDP     C164741  12.624  19.402  28.583 -0.1740 -0.1053 -0.1286
10791DDP     P164742  12.662  19.609  28.193  0.0234 -0.1099 -0.2912
10791DDP     P264743  12.442  19.068  28.535 -0.1230 -0.4802 -0.4406
10791DDP     C264744  12.446  18.751  28.238  0.0543 -0.0438  0.1046
10791DDP     C364745  12.831  19.826  27.804  0.0355 -0.2588  0.2878
10791DDP     C464746  12.668  19.456  28.990 -0.0716  0.0539 -0.0816
10792DDP     C164747  11.659   9.701   4.933 -0.0245  0.0867 -0.0545
10792DDP     P164748  11.372   9.358   5.096 -0.1851 -0.3260 -0.0587
10792DDP     P264749  11.785   9.618   4.590 -0.2625  0.2876 -0.0998
10792DDP     C264750  11.794   9.744   4.112 -0.1991  0.2844 -0.0065
10792DDP     C364751  10.991   9.433   5.092  0.2703 -0.0763  0.3385
10792DDP     C464752  11.866  10.026   5.055 -0.1250 -0.1666  0.0013
10793DDP     C164753  14.088  14.016  11.392 -0.0484 -0.3021  0.0728
10793DDP     P164754  14.239  14.077  10.907 -0.5038  0.2801  0.1868
10793DDP     P264755  14.214  14.425  11.598 -0.0081  0.1012 -0.0100
10793DDP     C264756  14.151  14.602  12.099 -0.0252  0.0417 -0.1781
10793DDP     C364757  14.275  14.274  10.522  0.1468  0.0253  0.0501
10793DDP     C464758  13.980  13.638  11.549 -0.2392  0.0028 -0.0227
10794DDP     C164759  29.550   7.173  15.078 -0.0204  0.2260 -0.0029
10794DDP     P164760  29.187   7.258  15.282 -0.1741 -0.1690 -0.2689
10794DDP     P264761  29.865   6.975  15.327 -0.0027 -0.0957  0.0289
10794DDP     C264762  30.055   6.747  15.750  0.0374  0.1048  0.0154
10794DDP     C364763  28.939   7.539  15.577  0.0049 -0.2346  0.0864
10794DDP     C464764  29.542   7.135  14.587  0.2208 -0.0905  0.1252
10795DDP     C164765   5.280  17.140  15.295 -0.2796  0.0977 -0.0886
10795DDP     P164766   5.363  16.729  15.122 -0.0302 -0.0036  0.0480
10795DDP     P264767   5.341  17.106  15.773 -0.1560 -0.0751  0.1673
10795DDP     C264768   5.492  17.003  16.193  0.0302  0.1208  0.0985
10795DDP     C364769   5.385  16.358  15.320  0.1961 -0.3427 -0.3050
10795DDP     C464770   5.212  17.545  15.009 -0.3118  0.0225  0.0571
10796DDP     C164771  12.883  17.584   0.062 -0.1436  0.1098  0.0244
10796DDP     P164772  12.894  17.406   0.411  0.2072  0.0745 -0.1735
10796DDP     P264773  13.338  17.643  30.288  0.0781  0.2543  0.2123
10796DDP     C264774  13.558  18.039  30.142 -0.1893  0.1374 -0.1923
10796DDP     C364775  12.729  17.524   0.834 -0.3818  0.0025 -0.0276
10796DDP     C464776  12.447  17.679  30.062  0.0514 -0.2812 -0.1685
10797DDP     C164777  14.025   8.785  24.827  0.0117 -0.2147 -0.1683
10797DDP     P164778  13.935   8.399  24.834  0.1329  0.1501  0.0092
10797DDP     P264779  14.373   8.801  24.751 -0.0016  0.0821 -0.2891
10797DDP     C264780  14.676   9.097  24.701 -0.0883 -0.2569  0.0303
10797DDP     C364781  14.030   8.007  25.083 -0.2200  0.0565 -0.2365
10797DDP     C464782  13.674   9.099  24.765  0.1285  0.0455  0.0615
10798DDP     C164783   4.774  27.920   4.248  0.0971 -0.1053 -0.1236
10798DDP     P164784   4.881  27.853   3.809  0.0637  0.1597  0.0607
10798DDP     P264785   4.779  27.954   4.653 -0.2024  0.1097  0.4419
10798DDP     C264786   4.806  27.908   5.081  0.3376  0.0170  0.3018
10798DDP     C364787   4.775  27.674   3.347  0.0380 -0.1305  0.3227
10798DDP     C464788   4.585  28.305   4.139  0.1527  0.1086  0.0133
10799DDP     C164789  13.733  19.995   4.632 -0.4525 -0.1022  0.1072
10799DDP     P164790  13.878  20.248   5.001 -0.0988 -0.1843  0.0887
10799DDP     P264791  13.652  19.521   4.673  0.3561 -0.1898 -0.0266
10799DDP     C264792  13.222  19.423   4.795  0.2089 -0.0697 -0.0454
10799DDP     C364793  14.205  20.387   5.287 -0.1355  0.0026 -0.1389
10799DDP     C464794  13.723  20.196   4.339  0.1022  0.1773 -0.0674
10800DDP     C164795   8.152  29.943  30.193  0.0966 -0.5257  0.0194
10800DDP     P164796   8.301  29.942  29.748  0.1799  0.0973 -0.2480
10800DDP     P264797   8.531  29.729   0.032  0.1163 -0.2468 -0.3140
10800DDP     C264798   8.833  29.608   0.149 -0.0491  0.1885  0.2882
10800DDP     C364799   8.424  29.677  29.451 -0.2594  0.0503  0.4078
10800DDP     C464800   7.777  29.946  -0.028 -0.2548 -0.3183 -0.1902
10801DDP     C164801  13.801   7.753  14.766 -0.0861 -0.1014  0.1959
10801DDP     P164802  13.641   7.469  15.045  0.0884 -0.2164 -0.3540
10801DDP     P264803  14.272   7.685  14.604  0.0211  0.0907  0.2205
10801DDP     C264804  14.491   7.197  14.524  0.1090 -0.1138  0.0810
10801DDP     C364805  13.307   7.282  15.155 -0.2696  0.1623  0.0178
10801DDP     C464806  13.541   8.040  14.657  0.0095  0.2346  0.0742
10802DDP     C164807  22.768  11.877  27.173  0.0146 -0.1580 -0.2614
10802DDP     P164808  23.087  11.949  27.427 -0.0121  0.1053  0.0038
10802DDP     P264809  22.855  11.775  26.744  0.2351  0.0914  0.0403
10802DDP     C264810  22.745  11.875  26.294 -0.1694 -0.2904 -0.0817
10802DDP     C364811  23.417  12.017  27.811  0.4051  0.2025 -0.0922
10802DDP     C464812  22.361  12.023  27.331  0.0096 -0.0668  0.2890
10803DDP     C164813   0.078  23.426  10.242  0.1195  0.0156  0.0640
10803DDP     P164814   0.069  22.962  10.200  0.1604 -0.0461  0.0279
10803DDP     P264815   0.198  23.475  10.780 -0.0275  0.0518 -0.1740
10803DDP     C264816   0.176  23.389  11.326  0.1872  0.1908 -0.3257
10803DDP     C364817  30.258  22.659  10.545  0.1692  0.2527  0.0015
10803DDP     C464818  30.307  23.709  10.031 -0.1996  0.3319 -0.3571
10804DDP     C164819   2.828  29.718  14.591 -0.3195  0.0090 -0.2901
10804DDP     P164820   3.059  30.042  14.335  0.0340 -0.0725 -0.1894
10804DDP     P264821   2.378  29.882  14.415 -0.3693  0.0008 -0.0269
10804DDP     C264822   2.176  29.776  14.176 -0.2271 -0.1897 -0.0935
10804DDP     C364823   3.292   0.016  14.105  0.0067 -0.0744  0.0075
10804DDP     C464824   2.962  29.382  14.524  0.0095  0.1931 -0.2389
10805DDP     C164825   6.083   3.982  27.183 -0.1719 -0.1494 -0.0908
10805DDP     P164826   5.901   3.998  27.497  0.0543 -0.2391 -0.1684
10805DDP     P264827   6.078   4.345  26.871 -0.0164 -0.0179  0.1565
10805DDP     C264828   6.241   4.823  26.770  0.0085  0.1522  0.0745
10805DDP     C364829   5.819   3.934  27.977 -0.0695  0.3038 -0.1079
10805DDP     C464830   6.381   3.677  27.356 -0.0116 -0.1209  0.0685
10806DDP     C164831  28.854   9.854  25.583 -0.3010  0.2675  0.0549
10806DDP     P164832  28.513  10.183  25.545  0.1373  0.2680 -0.0350
10806DDP     P264833  28.736   9.517  25.890  0.0915 -0.0959  0.5655
10806DDP     C264834  28.503   9.385  26.112  0.0782 -0.0427  0.0579
10806DDP     C364835  28.335  10.493  25.361  0.0769  0.4424  0.2393
10806DDP     C464836  29.027   9.970  25.162  0.0034 -0.0680  0.0147
10807DDP     C164837  12.073  26.697   6.812  0.0591 -0.0220  0.0208
10807DDP     P164838  11.712  26.681   7.089 -0.2447  0.2303 -0.0362
10807DDP     P264839  12.052  26.613   6.393  0.0835 -0.0530 -0.1795
10807DDP     C264840  12.490  26.695   6.128  0.0352  0.3774 -0.2689
10807DDP     C364841  11.633  26.529   7.476  0.1256 -0.3997 -0.0977
10807DDP     C464842  12.502  26.836   6.911  0.1236 -0.1607  0.0061
10808DDP     C164843  27.972  29.922  24.562 -0.0260 -0.0473  0.0351
10808DDP     P164844  28.105   0.023  24.449  0.1855  0.1253 -0.1228
10808DDP     P264845  28.376  29.864  24.765  0.0837 -0.0533  0.0379
10808DDP     C264846  28.662  30.267  24.813 -0.0327  0.1071  0.0096
10808DDP     C364847  27.922   0.457  24.479  0.3139 -0.2595  0.0043
10808DDP     C464848  27.605  29.573  24.561 -0.1457 -0.1866  0.0619
10809DDP     C164849   1.675   5.546  22.132  0.2003  0.0763  0.0803
10809DDP     P164850   1.889   5.829  22.444  0.1270  0.4485  0.1457
10809DDP     P264851   1.743   5.800  21.697 -0.3724 -0.0772 -0.0605
10809DDP     C264852   1.814   5.885  21.237  0.0857 -0.2041 -0.0660
10809DDP     C364853   2.347   5.854  22.539  0.2955  0.1515  0.0730
10809DDP     C464854   1.567   5.191  22.224  0.0936  0.0265 -0.0286
10810DDP     C164855  18.424  26.513  18.599  0.0726 -0.0144 -0.1570
10810DDP     P164856  18.812  26.592  18.860  0.0742  0.0346  0.3744
10810DDP     P264857  18.162  26.444  18.263 -0.1491 -0.1146  0.0143
10810DDP     C264858  18.162  26.551  17.911  0.0762  0.0760 -0.1830
10810DDP     C364859  18.944  27.078  18.930  0.2829 -0.2284  0.2033
10810DDP     C464860  18.227  26.293  18.998  0.2830  0.0362 -0.3761
10811DDP     C164861  18.810  18.394  27.465 -0.3476  0.0034  0.0798
10811DDP     P164862  18.718  18.387  27.836  0.1643  0.1788  0.3101
10811DDP     P264863  18.558  18.217  27.322  0.0551 -0.3718  0.0246
10811DDP     C264864  18.160  18.262  27.434  0.1843 -0.1611  0.1973
10811DDP     C364865  18.690  18.796  28.061  0.0807  0.0559  0.0673
10811DDP     C464866  19.021  18.643  27.262  0.1187 -0.0786  0.0076
10812DDP     C164867  10.198  24.927  28.827 -0.2643 -0.0126 -0.0637
10812DDP     P164868  10.244  24.525  28.606 -0.0704  0.2143 -0.3677
10812DDP     P264869  10.543  25.137  29.103 -0.0092 -0.0334 -0.1698
10812DDP     C264870  11.027  25.003  29.097 -0.0200  0.1282 -0.1460
10812DDP     C364871  10.671  24.375  28.416 -0.1520  0.0854  0.2849
10812DDP     C464872   9.827  25.205  28.836 -0.0485  0.2648 -0.0324
10813DDP     C164873   5.967  12.621  19.290 -0.0256 -0.2034 -0.3398
10813DDP     P164874   6.063  12.611  19.707  0.5017  0.1059 -0.0838
10813DDP     P264875   6.346  12.370  19.270 -0.0812  0.1430  0.3337
10813DDP     C264876   6.606  12.200  18.918  0.0904  0.0764  0.1056
10813DDP     C364877   6.353  12.311  19.917  0.1391 -0.0655  0.1821
10813DDP     C464878   5.686  12.692  18.928 -0.1363 -0.0376 -0.1371
10814DDP     C164879   8.977  12.777   0.435  0.0526  0.1740  0.1550
10814DDP     P164880   9.373  12.749   0.648 -0.0560 -0.1630  0.1514
10814DDP     P264881   8.908  12.615  -0.030 -0.0813  0.1487 -0.0889
10814DDP     C264882   9.107  12.283  30.155  0.1942 -0.0243  0.0588
10814DDP     C364883   9.862  12.568   0.580  0.1153  0.1362 -0.1095
10814DDP     C464884   8.768  12.904   0.753 -0.0563  0.0053 -0.0539
10815DDP     C164885  28.069   9.965  16.460 -0.2113 -0.0866  0.3354
10815DDP     P164886  28.087  10.398  16.612 -0.1753 -0.0193 -0.0104
10815DDP     P264887  28.231   9.517  16.649  0.0448 -0.0943  0.1435
10815DDP     C264888  28.581   9.300  16.446  0.0682 -0.4397 -0.0752
10815DDP     C364889  27.793  10.610  16.827  0.0919 -0.1057 -0.1832
10815DDP     C464890  28.069   9.871  16.052 -0.2077  0.0631  0.0711
10816DDP     C164891  13.984  25.520   3.657 -0.0289 -0.0585 -0.1655
10816DDP     P164892  13.521  25.345   3.823 -0.0497  0.0086  0.1344
10816DDP     P264893  14.139  25.945   3.666 -0.0943  0.1917  0.1067
10816DDP     C264894  14.482  26.323   3.747  0.2769 -0.3149  0.1886
10816DDP     C364895  12.994  25.327   3.853 -0.1329  0.1183 -0.0503
10816DDP     C464896  14.340  25.241   3.629 -0.1021  0.2547  0.1828
10817DDP     C164897  11.898  12.222  14.697 -0.0436  0.1856 -0.0265
10817DDP     P164898  11.887  12.458  14.202  0.0860 -0.0649  0.0947
10817DDP     P264899  11.891  12.467  15.060 -0.3490 -0.2358 -0.0536
10817DDP     C264900  12.174  12.832  15.223 -0.0512  0.0724 -0.2005
10817DDP     C364901  12.011  12.343  13.721 -0.1043  0.0887  0.0211
10817DDP     C464902  11.850  11.782  14.869  0.0689 -0.0393 -0.1758
10818DDP     C164903  16.235   2.265  21.390  0.0512  0.2383 -0.1046
10818DDP     P164904  15.885   1.824  21.529  0.2640  0.1272  0.1657
10818DDP     P264905  16.589   2.194  21.171  0.0780  0.2925  0.2123
10818DDP     C264906  16.992   2.177  21.334  0.3611 -0.0087  0.1874
10818DDP     C364907  15.687   1.600  21.780 -0.3928 -0.0072  0.1997
10818DDP     C464908  16.175   2.661  21.600 -0.3644 -0.1114  0.2163
10819DDP     C164909  -0.015  19.472   7.887 -0.1713  0.0762 -0.0221
10819DDP     P164910   0.396  19.333   8.009  0.2756  0.1626 -0.1012
10819DDP     P264911  30.251  19.876   7.818 -0.3779 -0.0964  0.2433
10819DDP     C264912  30.041  20.311   7.782 -0.1843  0.2589 -0.1322
10819DDP     C364913   0.805  19.414   8.160  0.1174  0.0160 -0.4411
10819DDP     C464914  29.925  19.156   7.897  0.1546 -0.0688 -0.0042
10820DDP     C164915   0.820  26.741   9.075 -0.0677  0.0767 -0.1422
10820DDP     P164916   1.088  26.671   8.794 -0.0962  0.2163  0.0659
10820DDP     P264917   0.870  26.358   9.367  0.0424 -0.0713 -0.0354
10820DDP     C264918   0.888  26.089   9.709 -0.0191 -0.0481 -0.2444
10820DDP     C364919   1.484  26.511   8.586 -0.3569  0.1345 -0.0037
10820DDP     C464920   0.498  27.123   9.082  0.2568 -0.0301 -0.1448
10821DDP     C164921  27.481  13.300  14.132 -0.0472 -0.0939 -0.4882
10821DDP     P164922  27.105  13.519  14.005  0.0132  0.1305 -0.3842
10821DDP     P264923  27.697  12.970  13.811 -0.0334  0.1687 -0.1321
10821DDP     C264924  27.736  12.825  13.392  0.0026 -0.3068 -0.3502
10821DDP     C364925  26.686  13.513  14.056 -0.1284  0.0489  0.1574
10821DDP     C464926  27.777  13.593  14.320 -0.1816 -0.1716  0.3166
10822DDP     C164927   2.874  29.729  19.333  0.2353 -0.1841  0.1070
10822DDP     P164928   2.876  30.050  19.514  0.0244 -0.1553 -0.1241
10822DDP     P264929   2.507  29.713  19.039 -0.1716 -0.0545  0.0890
10822DDP     C264930   2.330  29.521  18.644 -0.3108  0.0538 -0.0043
10822DDP     C364931   2.984   0.062  19.456  0.2102  0.2800  0.1099
10822DDP     C464932   2.949  29.387  19.602  0.2679  0.3052 -0.1097
10823DDP     C164933  19.832  15.462  12.899  0.3265  0.1482 -0.2578
10823DDP     P164934  19.593  15.181  12.789  0.1563 -0.0201  0.0210
10823DDP     P264935  19.946  15.632  12.566 -0.0239  0.1021  0.0955
10823DDP     C264936  20.175  15.674  12.175  0.1073 -0.1106  0.1192
10823DDP     C364937  19.421  14.983  12.419  0.3793  0.2028 -0.0952
10823DDP     C464938  20.100  15.533  13.309  0.1093 -0.2894  0.0289
10824DDP     C164939  13.264  11.085  14.379  0.1770 -0.1660  0.0608
10824DDP     P164940  12.828  11.030  14.541 -0.1308  0.1167 -0.0434
10824DDP     P264941  13.431  10.727  14.412 -0.3828  0.1620  0.0877
10824DDP     C264942  13.897  10.786  14.687  0.0405 -0.1183  0.2047
10824DDP     C364943  12.543  11.259  14.871  0.0881  0.1924 -0.2189
10824DDP     C464944  13.474  11.544  14.425 -0.0714 -0.1728  0.2388
10825DDP     C164945  15.692  25.832   9.704 -0.0914  0.0612 -0.0537
10825DDP     P164946  15.925  25.474   9.865  0.2630  0.1942  0.0697
10825DDP     P264947  15.980  26.089   9.576  0.1075  0.3765  0.0961
10825DDP     C264948  16.050  26.420   9.300  0.2406  0.0154  0.1235
10825DDP     C364949  16.060  25.162  10.229  0.0428  0.1261  0.1796
10825DDP     C464950  15.245  25.724   9.542 -0.0634  0.1601 -0.1199
10826DDP     C164951   8.976   3.286  19.660  0.0337  0.2519  0.1769
10826DDP     P164952   8.831   3.621  19.889  0.3654 -0.2981  0.0371
10826DDP     P264953   8.882   3.047  19.293 -0.0774  0.1746  0.0541
10826DDP     C264954   8.661   2.607  19.164 -0.0375  0.1897  0.0045
10826DDP     C364955   8.465   3.666  20.208  0.1014  0.1836 -0.0836
10826DDP     C464956   9.392   3.100  19.712 -0.0209  0.0389 -0.4663
10827DDP     C164957   1.176  11.655   9.980  0.4098  0.0967  0.2091
10827DDP     P164958   1.431  11.649  10.306 -0.0242  0.0344  0.2421
10827DDP     P264959   0.907  11.326   9.921  0.0963  0.2481 -0.1682
10827DDP     C264960   0.717  11.166   9.580 -0.0141  0.0706 -0.2350
10827DDP     C364961   1.353  11.385  10.604 -0.1569  0.0009 -0.1684
10827DDP     C464962   1.159  12.127   9.956 -0.3028  0.2641 -0.1575
10828DDP     C164963  24.539  13.728  10.433 -0.0550 -0.1322  0.2120
10828DDP     P164964  24.103  13.812  10.253 -0.3310  0.2274 -0.2269
10828DDP     P264965  24.685  13.995  10.227  0.0376 -0.3927 -0.0466
10828DDP     C264966  24.443  14.246   9.936  0.0417  0.0478 -0.1502
10828DDP     C364967  23.855  13.607   9.896 -0.2615 -0.1605  0.1950
10828DDP     C464968  24.621  13.631  10.887  0.0702  0.0418 -0.2341
10829DDP     C164969  26.623  11.056  29.928 -0.1551 -0.3400 -0.0602
10829DDP     P164970  26.948  11.217  30.011  0.0558  0.1652  0.0004
10829DDP     P264971  26.412  10.723  30.225 -0.2243 -0.3464 -0.0982
10829DDP     C264972  26.284  10.636   0.322 -0.0867  0.0623  0.1376
10829DDP     C364973  26.926  11.584  -0.000 -0.1746 -0.1905 -0.2022
10829DDP     C464974  26.430  11.078  29.393 -0.0097 -0.0928  0.0595
10830DDP     C164975  26.348   2.891  20.784 -0.1022  0.2203  0.0329
10830DDP     P164976  26.182   3.132  20.420  0.3190 -0.1943  0.0316
10830DDP     P264977  26.795   2.756  20.747  0.1215  0.0405  0.0940
10830DDP     C264978  26.951   2.450  21.092 -0.0397  0.0054 -0.0313
10830DDP     C364979  25.945   3.117  19.999 -0.0599 -0.3888 -0.0199
10830DDP     C464980  25.956   2.860  21.055 -0.1865 -0.1885 -0.1148
10831DDP     C164981   0.978  15.206   8.913  0.0127  0.1373  0.3187
10831DDP     P164982   1.102  15.396   9.320  0.1765 -0.1504  0.3361
10831DDP     P264983   0.639  14.872   8.892  0.1030 -0.2133 -0.2766
10831DDP     C264984   0.415  14.488   8.706  0.2498  0.2053  0.2481
10831DDP     C364985   1.300  15.751   9.442 -0.0929  0.0079  0.2123
10831DDP     C464986   1.251  15.340   8.579  0.0229 -0.3250 -0.2920
10832DDP     C164987  26.483  16.881  19.291 -0.1837 -0.0970  0.0262
10832DDP     P164988  26.915  17.011  19.188 -0.1331 -0.1533  0.1207
10832DDP     P264989  26.226  17.070  18.899 -0.2330 -0.0590  0.1685
10832DDP     C264990  25.795  16.932  18.760 -0.1308 -0.0908  0.1199
10832DDP     C364991  27.214  17.360  19.102 -0.1552  0.0413 -0.1636
10832DDP     C464992  26.218  16.576  19.648  0.0549 -0.1326  0.0947
10833DDP     C164993  19.575  11.722  19.668 -0.2486 -0.1323 -0.2487
10833DDP     P164994  19.401  11.505  20.084 -0.1345  0.0025 -0.1672
10833DDP     P264995  20.028  11.584  19.619  0.1003 -0.0858 -0.1578
10833DDP     C264996  20.387  11.834  19.618  0.4026  0.2041  0.0939
10833DDP     C364997  19.048  11.252  20.121  0.1654 -0.0408  0.0753
10833DDP     C464998  19.234  11.952  19.427  0.1542  0.1327  0.1794
10834DDP     C164999  12.469   0.110   1.218  0.0950 -0.0749  0.2107
10834DDP     P165000  12.052   0.185   1.313 -0.0114 -0.0665  0.1838
10834DDP     P265001  12.740   0.429   1.461 -0.1829  0.0735  0.1749
10834DDP     C265002  12.942   0.744   1.259 -0.3885 -0.2071 -0.1447
10834DDP     C365003  11.666  30.232   1.503  0.2370  0.0879  0.1112
10834DDP     C465004  12.554  30.183   0.813  0.1280 -0.3693  0.1578
10835DDP     C165005  22.707  22.015   0.527 -0.1029  0.3438  0.0074
10835DDP     P165006  23.080  22.061   0.658  0.3463  0.1300 -0.1038
10835DDP     P265007  22.553  21.489   0.620 -0.1452 -0.0032  0.0737
10835DDP     C265008  22.762  21.085   0.941  0.1641  0.0091 -0.1057
10835DDP     C365009  23.493  21.971   0.773 -0.0177  0.0310  0.0646
10835DDP     C465010  22.294  22.366   0.474  0.2048 -0.1286  0.2806
10836DDP     C165011  16.947   0.497  30.051 -0.4165 -0.0561 -0.0204
10836DDP     P165012  16.618   0.292  29.951  0.2270 -0.2948  0.1069
10836DDP     P265013  16.862   0.745   0.122 -0.0808  0.1600  0.1360
10836DDP     C265014  17.058   0.841   0.515 -0.3860  0.2124 -0.1872
10836DDP     C365015  16.433  30.111  30.090  0.2337 -0.0969 -0.0840
10836DDP     C465016  17.398   0.462  29.878 -0.1455  0.0966 -0.0632
10837DDP     C165017  18.514  17.554  15.290  0.0214  0.2379 -0.0973
10837DDP     P165018  18.890  17.332  15.305  0.0588  0.2301  0.0665
10837DDP     P265019  18.548  17.885  15.459  0.0406 -0.1458 -0.1063
10837DDP     C265020  18.442  18.275  15.671  0.2120 -0.0154 -0.2855
10837DDP     C365021  19.330  17.390  15.262  0.1934 -0.0330  0.2201
10837DDP     C465022  18.296  17.225  15.473  0.2468 -0.1005  0.1312
10838DDP     C165023  24.633  26.686   5.250  0.2796  0.1716  0.2794
10838DDP     P165024  24.646  26.521   5.720 -0.0674  0.0605 -0.0143
10838DDP     P265025  24.960  27.025   5.407 -0.1821 -0.0609  0.2064
10838DDP     C265026  24.933  27.356   5.776  0.1552 -0.0498  0.0121
10838DDP     C365027  24.553  26.507   6.161  0.1987  0.4377  0.5193
10838DDP     C465028  24.723  26.717   4.769 -0.0273  0.0808  0.1829
10839DDP     C165029  14.701  21.342   0.309  0.2018  0.1123  0.0462
10839DDP     P165030  14.953  21.028   0.519 -0.1051  0.0997  0.1068
10839DDP     P265031  14.290  21.306   0.105 -0.0018  0.0619  0.1275
10839DDP     C265032  14.149  20.951  30.102  0.2790 -0.1477  0.0285
10839DDP     C365033  14.817  20.864   0.849  0.2709 -0.3562  0.1697
10839DDP     C465034  14.988  21.722   0.367  0.1586  0.2382 -0.2431
10840DDP     C165035  26.794  29.458   0.004 -0.0454  0.2715  0.0222
10840DDP     P165036  26.741  29.701   0.286  0.1811 -0.2058 -0.0639
10840DDP     P265037  26.834  29.518  29.852 -0.1554  0.2390  0.0945
10840DDP     C265038  27.029  29.627  29.480  0.1880 -0.2810  0.1221
10840DDP     C365039  26.650  30.087   0.336 -0.1234  0.0233  0.0703
10840DDP     C465040  26.678  29.011   0.196  0.0896 -0.3968 -0.0661
10841DDP     C165041  14.689  14.196   1.380 -0.3002  0.0662 -0.2939
10841DDP     P165042  14.903  13.937   1.227 -0.2457  0.1390 -0.0469
10841DDP     P265043  14.447  14.415   1.149  0.0264 -0.0172  0.2573
10841DDP     C265044  14.387  14.575   0.836 -0.1646 -0.2210 -0.1044
10841DDP     C365045  15.280  13.717   1.225  0.1056  0.2790  0.1884
10841DDP     C465046  14.539  14.196   1.883  0.3320  0.1691  0.1152
10842DDP     C165047   7.167  11.503   2.135  0.3660  0.0923 -0.1782
10842DDP     P165048   6.917  11.334   1.740 -0.0971  0.0696  0.2338
10842DDP     P265049   7.291  11.254   2.490 -0.0841  0.2169 -0.1812
10842DDP     C265050   7.327  10.811   2.527 -0.1037  0.0376  0.1049
10842DDP     C365051   6.627  11.348   1.344 -0.1126  0.0464 -0.1087
10842DDP     C465052   7.548  11.740   2.232  0.2401 -0.3832 -0.0903
10843DDP     C165053   9.205  30.004   6.307 -0.0915  0.3388 -0.0393
10843DDP     P165054   9.370  29.717   6.545 -0.0751  0.0562 -0.3932
10843DDP     P265055   9.550  30.295   6.190  0.0441  0.0233 -0.2687
10843DDP     C265056   9.663   0.216   5.895  0.1317 -0.1607  0.0863
10843DDP     C365057   9.335  29.375   6.720  0.0381 -0.0821 -0.0373
10843DDP     C465058   8.961  29.728   5.936 -0.2622 -0.1300  0.2168
10844DDP     C165059  22.578  20.831  14.976 -0.0765 -0.0925 -0.0556
10844DDP     P165060  22.890  20.628  15.192 -0.0784  0.0937 -0.1385
10844DDP     P265061  22.325  21.237  15.055 -0.1182 -0.3400  0.1601
10844DDP     C265062  22.257  21.540  15.431 -0.1358  0.1847 -0.1978
10844DDP     C365063  23.185  20.899  15.499  0.2279  0.2818  0.0692
10844DDP     C465064  22.508  20.640  14.475 -0.0342  0.0136  0.1458
10845DDP     C165065  11.532   1.682  17.236  0.1927  0.1865 -0.3824
10845DDP     P165066  11.230   1.637  16.842  0.2703  0.0218  0.2020
10845DDP     P265067  11.397   2.153  17.201  0.1143  0.1303 -0.0305
10845DDP     C265068  11.210   2.600  17.237 -0.1235  0.1529 -0.2065
10845DDP     C365069  11.104   1.203  16.756  0.0366 -0.1756  0.2541
10845DDP     C465070  11.575   1.519  17.545  0.1508  0.1097 -0.0973
10846DDP     C165071  24.828  24.069  15.802 -0.0981 -0.0108  0.4073
10846DDP     P165072  24.524  23.759  15.607 -0.2573 -0.0741 -0.0724
10846DDP     P265073  25.203  23.984  15.991  0.1980  0.5238 -0.0032
10846DDP     C265074  25.690  23.992  16.072  0.3361 -0.0484 -0.1545
10846DDP     C365075  24.296  23.443  15.423  0.0154 -0.1561 -0.0415
10846DDP     C465076  24.460  24.331  15.710  0.1457  0.1151 -0.1165
10847DDP     C165077   0.988  17.353  10.284 -0.0199 -0.2179 -0.1261
10847DDP     P165078   0.556  17.546  10.554 -0.0209  0.0654  0.0316
10847DDP     P265079   1.153  16.989  10.156  0.1513 -0.0358  0.0226
10847DDP     C265080   1.387  16.550   9.993  0.0478 -0.2217  0.0907
10847DDP     C365081   0.136  17.641  10.511  0.0783 -0.0707 -0.2467
10847DDP     C465082   1.291  17.733  10.299  0.5130  0.2137  0.1553
10848DDP     C165083  24.325  11.557   5.974  0.0965  0.0926 -0.3697
10848DDP     P165084  24.075  11.704   6.370  0.1709 -0.1292 -0.1775
10848DDP     P265085  24.662  11.360   5.736 -0.0780  0.0559  0.5004
10848DDP     C265086  24.621  11.184   5.213  0.3348 -0.0465 -0.1555
10848DDP     C365087  23.937  11.759   6.797 -0.1743 -0.2816 -0.0557
10848DDP     C465088  24.251  11.852   5.670 -0.0559  0.0577  0.1133
10849DDP     C165089  14.908  12.667   7.170  0.1918 -0.0525 -0.1408
10849DDP     P165090  15.168  12.786   7.476  0.1451 -0.1896 -0.3206
10849DDP     P265091  14.609  12.746   6.779 -0.0212  0.0730  0.1675
10849DDP     C265092  14.220  12.554   6.557 -0.0098  0.1408  0.2525
10849DDP     C365093  15.206  13.155   7.770  0.0210 -0.0363  0.5305
10849DDP     C465094  15.134  12.263   7.168 -0.0783 -0.4380 -0.3491
10850DDP     C165095  18.676   6.413  22.347 -0.2081  0.1781  0.0581
10850DDP     P165096  18.962   6.276  22.059 -0.0785 -0.1428 -0.2042
10850DDP     P265097  18.305   6.651  22.262 -0.2198 -0.0685 -0.0890
10850DDP     C265098  18.025   6.877  22.054 -0.0572 -0.2343 -0.0712
10850DDP     C365099  19.128   5.845  22.158 -0.0659  0.2541  0.2576
10850DDP     C465100  18.922   6.498  22.576  0.0032  0.0036  0.2611
10851DDP     C165101  12.428   0.838   6.423  0.0148 -0.0840 -0.2066
10851DDP     P165102  12.469   0.891   5.994 -0.0804  0.2199  0.0982
10851DDP     P265103  12.726   0.738   6.726 -0.0946 -0.0709  0.0784
10851DDP     C265104  12.862   0.392   6.949 -0.0279  0.1827 -0.1833
10851DDP     C365105  12.330   1.190   5.631 -0.3342  0.1438  0.0772
10851DDP     C465106  12.093   1.174   6.654  0.1001 -0.2894  0.0049
10852DDP     C165107   3.388   2.274  11.358  0.1820 -0.0870  0.0421
10852DDP     P165108   3.594   2.260  10.907 -0.1947 -0.1362 -0.1564
10852DDP     P265109   3.678   2.597  11.316  0.2243  0.0896  0.0680
10852DDP     C265110   4.058   2.377  11.495  0.0540 -0.0345 -0.2142
10852DDP     C365111   3.770   2.017  10.670 -0.0563 -0.0182  0.2280
10852DDP     C465112   3.223   1.911  11.629  0.2778  0.0758  0.3455
10853DDP     C165113   1.068   7.338  14.974 -0.1421 -0.0016 -0.1459
10853DDP     P165114   1.018   7.131  14.664 -0.0981  0.2686 -0.1924
10853DDP     P265115   1.066   7.081  15.305  0.0119  0.0640 -0.5282
10853DDP     C265116   1.160   7.202  15.710  0.0304  0.0109  0.1697
10853DDP     C365117   0.655   6.848  14.559  0.0270 -0.1517 -0.3062
10853DDP     C465118   1.082   7.784  15.037 -0.0888 -0.4025  0.2152
10854DDP     C165119   8.886  14.661  26.855  0.1051 -0.2634  0.1292
10854DDP     P165120   9.044  14.628  26.506 -0.0633  0.1079  0.3389
10854DDP     P265121   9.175  14.752  27.119  0.0350  0.0106  0.0653
10854DDP     C265122   9.611  14.683  27.306 -0.0882  0.1065  0.1421
10854DDP     C365123   9.275  14.564  26.344 -0.3878  0.2816  0.2147
10854DDP     C465124   8.495  14.549  26.911 -0.0320 -0.1468  0.2068
10855DDP     C165125  10.978  10.104  15.902  0.2075  0.1348 -0.0179
10855DDP     P165126  11.145  10.249  15.511  0.1906 -0.2609  0.0649
10855DDP     P265127  11.098   9.888  16.261  0.1947  0.0172 -0.0619
10855DDP     C265128  11.520   9.717  16.373 -0.0658 -0.1073 -0.0011
10855DDP     C365129  11.256  10.445  15.182  0.2521 -0.1304 -0.1321
10855DDP     C465130  10.526  10.188  15.886 -0.2450 -0.3392  0.3891
10856DDP     C165131  24.769   9.840  26.146  0.2085 -0.0197 -0.1111
10856DDP     P165132  25.163   9.769  26.312 -0.1019 -0.0910  0.0699
10856DDP     P265133  24.518  10.203  26.346 -0.0115  0.0768  0.5968
10856DDP     C265134  24.483  10.602  26.074  0.0372  0.0118  0.2156
10856DDP     C365135  25.397   9.765  26.706 -0.2676 -0.1715  0.1042
10856DDP     C465136  24.869   9.736  25.674 -0.0555  0.0837  0.1125
10857DDP     C165137   7.651   3.651  12.449 -0.2375 -0.0020  0.0173
10857DDP     P165138   7.696   3.425  12.842 -0.0061 -0.0417 -0.1385
10857DDP     P265139   7.337   3.559  12.167  0.1318  0.1893  0.1283
10857DDP     C265140   6.913   3.694  12.258  0.0507  0.1962 -0.0310
10857DDP     C365141   7.761   3.399  13.280  0.2167  0.0540  0.3885
10857DDP     C465142   7.928   3.987  12.280 -0.3605 -0.1822  0.1884
10858DDP     C165143  10.807   4.895   7.203 -0.2011  0.0325  0.0979
10858DDP     P165144  10.593   4.533   7.379 -0.3236  0.2394 -0.2251
10858DDP     P265145  10.976   4.851   6.863  0.1467 -0.3286 -0.0238
10858DDP     C265146  10.975   5.097   6.484  0.3207  0.1566 -0.0147
10858DDP     C365147  10.685   4.063   7.376  0.2141  0.3830 -0.2600
10858DDP     C465148  10.909   5.149   7.447  0.0896  0.2119  0.1979
10859DDP     C165149   3.124  17.146   7.978  0.2856  0.0321  0.2222
10859DDP     P165150   3.003  16.696   8.055 -0.2771 -0.0913  0.0759
10859DDP     P265151   3.523  17.279   7.911 -0.1400 -0.1788  0.0197
10859DDP     C265152   3.825  17.130   7.697 -0.2758 -0.0457  0.2308
10859DDP     C365153   2.702  16.439   8.106  0.0662  0.2759 -0.1078
10859DDP     C465154   2.797  17.472   7.904 -0.0284  0.1537 -0.2204
10860DDP     C165155  26.882   5.115   4.029 -0.0349  0.0767 -0.0546
10860DDP     P165156  27.240   4.892   3.675 -0.0176 -0.1256 -0.0820
10860DDP     P265157  27.019   5.441   4.129  0.1222 -0.0213  0.1300
10860DDP     C265158  27.139   5.659   4.554 -0.1101 -0.0761  0.3757
10860DDP     C365159  27.652   4.690   3.713  0.0401  0.1637 -0.0170
10860DDP     C465160  26.765   4.753   4.284 -0.1779 -0.1137 -0.1169
10861DDP     C165161   7.136   1.881   9.608 -0.1582 -0.3072 -0.0082
10861DDP     P165162   7.310   1.729   9.238 -0.1128 -0.1207  0.2860
10861DDP     P265163   7.227   1.774  10.010 -0.0831 -0.1685  0.0591
10861DDP     C265164   7.138   2.048  10.342  0.1713  0.0184 -0.2430
10861DDP     C365165   7.503   1.386   8.950  0.0507 -0.3873 -0.0307
10861DDP     C465166   6.693   1.937   9.534  0.0794 -0.1064  0.0492
10862DDP     C165167  12.207  14.498  27.156  0.2074  0.1651  0.1806
10862DDP     P165168  12.289  14.428  27.545 -0.1706  0.0211  0.0706
10862DDP     P265169  11.815  14.330  26.983  0.1644 -0.0921  0.0787
10862DDP     C265170  11.440  14.078  27.027  0.0020 -0.0251  0.1866
10862DDP     C365171  12.369  14.153  27.868  0.0081  0.3227 -0.0492
10862DDP     C465172  12.512  14.769  26.875 -0.0869 -0.4472  0.1171
10863DDP     C165173  23.698  25.262  18.644  0.0783 -0.0945  0.0911
10863DDP     P165174  24.092  25.335  18.575 -0.3137  0.2770  0.0467
10863DDP     P265175  23.437  25.431  18.922  0.0196  0.0204 -0.0188
10863DDP     C265176  23.283  25.074  19.189 -0.0900  0.1106 -0.0674
10863DDP     C365177  24.560  25.324  18.664 -0.1486 -0.1439  0.5158
10863DDP     C465178  23.419  24.833  18.396 -0.2275  0.0631 -0.3130
10864DDP     C165179  26.479  20.539   4.777  0.1111 -0.1706  0.1099
10864DDP     P165180  26.401  20.911   4.352  0.2644 -0.3493 -0.1794
10864DDP     P265181  26.698  20.173   4.531  0.1441  0.0043 -0.0827
10864DDP     C265182  27.115  20.063   4.248  0.0051  0.3125 -0.0837
10864DDP     C365183  26.646  21.223   4.157  0.0860  0.1492  0.0387
10864DDP     C465184  26.204  20.384   5.123 -0.3415  0.1849  0.1169
10865DDP     C165185  10.178  13.722  17.977 -0.2312 -0.2441 -0.3335
10865DDP     P165186  10.302  13.391  17.620 -0.1416  0.2633  0.1260
10865DDP     P265187  10.531  13.823  18.243 -0.0031 -0.0878 -0.3683
10865DDP     C265188  10.611  14.057  18.524  0.3563 -0.0818 -0.1309
10865DDP     C365189  10.374  13.084  17.256 -0.0401  0.0449  0.0733
10865DDP     C465190   9.959  14.088  18.050 -0.0238 -0.0755 -0.2939
10866DDP     C165191  22.291  27.780  20.983 -0.1578 -0.0987 -0.0516
10866DDP     P165192  22.557  27.522  20.953 -0.2621 -0.1722  0.1115
10866DDP     P265193  22.535  28.129  21.072  0.1029  0.0660 -0.2605
10866DDP     C265194  22.507  28.222  21.483  0.2341  0.3449  0.1350
10866DDP     C365195  22.727  27.368  20.651  0.1071 -0.0886  0.0893
10866DDP     C465196  21.886  27.744  20.902 -0.1711  0.4025 -0.0701
10867DDP     C165197  10.090   2.453  20.278 -0.1629  0.1416  0.1939
10867DDP     P165198   9.755   2.288  19.975 -0.0009 -0.0689 -0.4936
10867DDP     P265199   9.862   2.803  20.584  0.1115  0.0761 -0.3725
10867DDP     C265200   9.640   3.120  20.530  0.0056  0.0240 -0.0417
10867DDP     C365201   9.503   2.223  19.589  0.3987 -0.0240 -0.1240
10867DDP     C465202  10.405   2.286  20.537  0.2038  0.2059 -0.2064
10868DDP     C165203  16.319   3.774  29.884  0.2173 -0.0174 -0.1015
10868DDP     P165204  16.576   4.228  30.023  0.3884 -0.0869  0.0373
10868DDP     P265205  16.229   3.504  29.577 -0.0071 -0.2711  0.1233
10868DDP     C265206  16.385   3.434  29.181  0.1867 -0.1241  0.0540
10868DDP     C365207  16.541   4.707  29.845  0.1670 -0.0320 -0.1345
10868DDP     C465208  15.853   3.732  30.107  0.0772  0.0475 -0.1083
10869DDP     C165209   4.934  22.137  24.237 -0.0787  0.1762 -0.2885
10869DDP     P165210   4.995  22.472  23.908  0.1082 -0.3433  0.0407
10869DDP     P265211   4.888  22.103  24.712 -0.0012 -0.4246  0.0885
10869DDP     C265212   4.568  22.335  24.952 -0.1176  0.1732  0.0527
10869DDP     C365213   4.735  22.731  23.603 -0.0379 -0.1319 -0.0658
10869DDP     C465214   5.274  21.872  24.034 -0.0703  0.2187 -0.0914
10870DDP     C165215   5.536  16.420  26.530 -0.3035 -0.0084 -0.1192
10870DDP     P165216   5.826  16.075  26.715 -0.1854 -0.3421  0.0346
10870DDP     P265217   5.160  16.639  26.818 -0.0438 -0.1621 -0.0190
10870DDP     C265218   4.725  16.624  26.642  0.0047 -0.0390  0.1168
10870DDP     C365219   6.197  15.835  26.732 -0.0452  0.3068 -0.4356
10870DDP     C465220   5.651  16.512  26.051 -0.2880  0.2283  0.0428
10871DDP     C165221   6.174  11.007   2.934  0.2130  0.4411  0.1605
10871DDP     P165222   6.342  11.271   3.299  0.0575  0.2175 -0.1759
10871DDP     P265223   6.269  10.582   2.900 -0.0232  0.0598  0.0603
10871DDP     C265224   6.474  10.212   2.751  0.2756 -0.0267 -0.2221
10871DDP     C365225   6.166  11.611   3.668 -0.2049 -0.0600 -0.1445
10871DDP     C465226   5.915  10.982   2.591 -0.0014 -0.0165  0.1566
10872DDP     C165227   2.094  25.948  24.542  0.0169  0.2543 -0.3082
10872DDP     P165228   1.947  26.363  24.668  0.1053  0.3497 -0.1935
10872DDP     P265229   2.393  25.929  24.166  0.2440 -0.1452 -0.0644
10872DDP     C265230   2.313  26.161  23.753 -0.1740  0.3707  0.3997
10872DDP     C365231   1.599  26.569  24.827  0.2445  0.2176 -0.0220
10872DDP     C465232   2.032  25.566  24.905  0.0183 -0.0631  0.2339
10873DDP     C165233  16.951  17.340   4.457  0.0820  0.0302 -0.0458
10873DDP     P165234  16.812  17.018   4.102 -0.1067 -0.1353 -0.0015
10873DDP     P265235  17.367  17.278   4.697  0.0880  0.1387  0.0052
10873DDP     C265236  17.569  16.917   4.813 -0.1795  0.2477 -0.1773
10873DDP     C365237  17.049  16.920   3.713 -0.1323 -0.0666  0.2817
10873DDP     C465238  16.626  17.562   4.676  0.1391 -0.1203  0.0875
10874DDP     C165239  13.199   1.333   1.211 -0.0491 -0.0230 -0.2917
10874DDP     P165240  12.926   1.511   0.849 -0.1681  0.0709 -0.1417
10874DDP     P265241  13.466   0.897   1.142  0.2765 -0.0541 -0.1312
10874DDP     C265242  13.363   0.514   1.342 -0.3191  0.0562  0.1781
10874DDP     C365243  12.587   1.817   0.841 -0.1755 -0.0373 -0.0496
10874DDP     C465244  13.055   1.639   1.549 -0.1936 -0.0479 -0.2195
10875DDP     C165245   1.781  16.133   8.174 -0.1902  0.1095 -0.0408
10875DDP     P165246   2.184  16.104   8.178 -0.2556  0.1099 -0.0685
10875DDP     P265247   1.481  15.811   8.088  0.2193  0.0217  0.0930
10875DDP     C265248   1.141  15.474   8.078 -0.0280 -0.4097  0.1149
10875DDP     C365249   2.486  16.055   8.369  0.2296  0.0571 -0.0603
10875DDP     C465250   1.409  16.429   8.306 -0.1246 -0.0135  0.0961
10876DDP     C165251   4.292  15.311   4.347 -0.1078 -0.0698  0.1372
10876DDP     P165252   4.267  14.931   4.017  0.1225 -0.0390 -0.1518
10876DDP     P265253   4.582  15.494   4.681 -0.3207 -0.0828 -0.0360
10876DDP     C265254   4.612  15.885   5.003  0.1646  0.1762 -0.0062
10876DDP     C365255   4.439  14.585   3.776 -0.0897 -0.0252  0.0510
10876DDP     C465256   3.886  15.580   4.306  0.1344  0.0376 -0.0229
10877DDP     C165257  12.162  27.479  21.303  0.1184  0.0153 -0.2107
10877DDP     P165258  12.169  27.153  21.028  0.2241  0.0309 -0.1099
10877DDP     P265259  12.404  27.503  21.555 -0.1003  0.0097  0.2342
10877DDP     C265260  12.430  27.450  22.005 -0.0297 -0.0910  0.1792
10877DDP     C365261  12.096  26.733  20.997 -0.0460 -0.0570  0.0120
10877DDP     C465262  11.773  27.819  21.384  0.3202 -0.1097 -0.0360
10878DDP     C165263   4.553  17.942  20.695  0.0352 -0.0396  0.0808
10878DDP     P165264   4.883  17.967  20.343 -0.1140  0.1166 -0.2183
10878DDP     P265265   4.345  18.288  20.569  0.0490 -0.2502  0.2137
10878DDP     C265266   4.065  18.594  20.394 -0.1835 -0.6091 -0.2668
10878DDP     C365267   5.051  18.173  19.979 -0.0773 -0.3720  0.2890
10878DDP     C465268   4.520  17.680  21.057  0.3041 -0.0659  0.1758
10879DDP     C165269  28.805   4.464  10.859 -0.0719 -0.2586  0.2026
10879DDP     P165270  29.009   4.274  11.173 -0.0474  0.1454 -0.1286
10879DDP     P265271  28.653   4.232  10.569 -0.1041 -0.2659 -0.1752
10879DDP     C265272  28.699   4.137  10.085  0.3259 -0.0675 -0.5149
10879DDP     C365273  29.280   4.043  11.181 -0.0862 -0.2217  0.0811
10879DDP     C465274  28.962   4.905  10.789 -0.0619 -0.4899 -0.0457
10880DDP     C165275   9.634  18.011   2.773 -0.2363 -0.1603 -0.1385
10880DDP     P165276   9.373  17.816   3.051  0.1175 -0.0391  0.2543
10880DDP     P265277   9.578  18.550   2.783 -0.3092  0.1083  0.1790
10880DDP     C265278   9.508  18.853   3.035  0.1389 -0.4886 -0.0395
10880DDP     C365279   9.181  18.034   3.489 -0.0140  0.2063 -0.2618
10880DDP     C465280  10.054  17.890   2.678  0.0930 -0.0865  0.0183
10881DDP     C165281  18.766   4.297  12.003  0.1307  0.1163 -0.0421
10881DDP     P165282  18.751   3.876  12.011 -0.2620 -0.1418 -0.0123
10881DDP     P265283  18.795   4.508  11.604  0.3119 -0.1788  0.0705
10881DDP     C265284  18.569   4.567  11.197  0.0135 -0.0790 -0.0015
10881DDP     C365285  18.522   3.443  11.938 -0.1994 -0.2065  0.1796
10881DDP     C465286  18.475   4.638  12.239  0.2532  0.1059 -0.1608
10882DDP     C165287  25.937   1.860  15.360  0.0606  0.0011 -0.0563
10882DDP     P165288  26.066   1.918  15.837 -0.1811  0.0646 -0.2695
10882DDP     P265289  25.818   1.483  15.296  0.1166  0.1644 -0.1600
10882DDP     C265290  25.443   1.523  15.120 -0.1875  0.2160  0.1968
10882DDP     C365291  25.833   1.822  16.280 -0.2524  0.1473  0.0966
10882DDP     C465292  25.847   2.254  15.072  0.1164 -0.1770 -0.1420
10883DDP     C165293   0.223  10.894  22.699  0.0893  0.1912  0.0239
10883DDP     P165294  30.257  11.154  22.919  0.1117  0.1965 -0.1418
10883DDP     P265295   0.124  10.700  22.441 -0.1742 -0.3139  0.0014
10883DDP     C265296   0.142  10.732  21.970  0.1198 -0.0929 -0.1435
10883DDP     C365297  30.172  11.543  23.150  0.2555  0.2457  0.1406
10883DDP     C465298   0.709  10.962  22.741 -0.3292  0.0117 -0.2756
10884DDP     C165299   8.508  26.258  27.550 -0.0072 -0.0833  0.3032
10884DDP     P165300   8.193  26.629  27.506 -0.0417  0.1379  0.1899
10884DDP     P265301   8.603  26.138  27.091 -0.1342 -0.0020 -0.0610
10884DDP     C265302   8.566  26.230  26.687  0.0751 -0.1053  0.2205
10884DDP     C365303   7.808  26.705  27.203 -0.0245  0.0844  0.0622
10884DDP     C465304   8.598  25.956  27.862 -0.0887  0.0550 -0.1318
10885DDP     C165305   0.545  10.051   5.826  0.1018  0.0556  0.1547
10885DDP     P165306   0.367  10.425   5.737  0.0153  0.0450  0.2978
10885DDP     P265307   0.560   9.650   5.523 -0.1742  0.0328 -0.2728
10885DDP     C265308   0.435   9.271   5.340  0.4067  0.0956  0.1110
10885DDP     C365309   0.297  10.884   5.680 -0.3711  0.2091  0.3622
10885DDP     C465310   0.965  10.092   5.925  0.3136 -0.0004 -0.1333
10886DDP     C165311  10.626   4.537  17.483  0.0594 -0.0233  0.2402
10886DDP     P165312  11.000   4.430  17.148  0.4441 -0.1377 -0.0809
10886DDP     P265313  10.529   4.212  17.857  0.1150 -0.1414  0.0660
10886DDP     C265314  10.464   3.890  18.167 -0.0832 -0.0317  0.0341
10886DDP     C365315  11.377   4.332  16.942 -0.0595  0.1481 -0.1467
10886DDP     C465316  10.451   4.996  17.418  0.0218  0.2284  0.3426
10887DDP     C165317   9.951  22.234  23.503  0.2545 -0.2229  0.0612
10887DDP     P165318   9.611  22.061  23.414 -0.3762 -0.0900 -0.2474
10887DDP     P265319  10.202  22.010  23.635  0.6004  0.1077 -0.2825
10887DDP     C265320  10.547  21.874  23.589 -0.0245  0.1275  0.1994
10887DDP     C365321   9.311  21.734  23.348  0.2555 -0.1586 -0.1566
10887DDP     C465322   9.911  22.676  23.469  0.0947 -0.1954  0.2913
10888DDP     C165323  16.242   9.545   1.656  0.0381  0.0237 -0.2489
10888DDP     P165324  16.407   9.208   1.616 -0.0653 -0.1404  0.0208
10888DDP     P265325  15.788   9.584   1.672  0.0224 -0.2266  0.1969
10888DDP     C265326  15.351   9.763   1.830 -0.0434  0.2008  0.1435
10888DDP     C365327  16.500   8.724   1.625  0.0757 -0.0359 -0.0665
10888DDP     C465328  16.488   9.884   1.690 -0.0046 -0.1752  0.0189
10889DDP     C165329  17.386  27.481   3.530  0.4199 -0.3672  0.4504
10889DDP     P165330  17.073  27.592   3.178 -0.3650 -0.0214 -0.0194
10889DDP     P265331  17.272  27.296   3.883  0.1545  0.0102 -0.1980
10889DDP     C265332  17.307  27.340   4.309  0.5112  0.0969  0.3164
10889DDP     C365333  16.599  27.801   3.024 -0.1309 -0.2114  0.1817
10889DDP     C465334  17.703  27.802   3.613  0.0430  0.1038  0.1322
10890DDP     C165335   7.907  20.551  16.925  0.0300 -0.0234  0.2094
10890DDP     P165336   7.948  20.282  17.230  0.0139 -0.0634 -0.1298
10890DDP     P265337   8.268  20.418  16.634  0.3171 -0.0014  0.0555
10890DDP     C265338   8.479  20.738  16.336  0.0617 -0.1376 -0.3028
10890DDP     C365339   8.323  20.272  17.526 -0.3329  0.2609  0.0002
10890DDP     C465340   7.765  21.024  16.862  0.3232 -0.1857 -0.0448
10891DDP     C165341  16.545  29.698   7.805  0.4061  0.3864 -0.1240
10891DDP     P165342  16.895  29.531   7.761  0.0131  0.1687  0.2113
10891DDP     P265343  16.468  30.087   7.933 -0.1354  0.2390 -0.3195
10891DDP     C265344  16.698   0.162   7.936 -0.1823 -0.3639 -0.0313
10891DDP     C365345  17.252  29.363   8.005 -0.0675  0.0547 -0.2114
10891DDP     C465346  16.207  29.484   7.620  0.1248 -0.0433  0.2000
10892DDP     C165347  16.963   3.160   1.755 -0.0111 -0.0225 -0.4100
10892DDP     P165348  16.900   2.873   1.486 -0.1190  0.4333  0.0165
10892DDP     P265349  17.090   3.579   1.539  0.1598 -0.1158  0.2001
10892DDP     C265350  17.279   3.905   1.235  0.2538 -0.0325  0.2199
10892DDP     C365351  16.958   2.760   1.035 -0.3379 -0.3298  0.0484
10892DDP     C465352  16.634   2.966   2.007 -0.0972  0.0859  0.1392
10893DDP     C165353  17.421  20.343  19.384  0.0286  0.2340 -0.0143
10893DDP     P165354  16.997  20.129  19.425 -0.0697  0.1094  0.2338
10893DDP     P265355  17.386  20.665  19.224 -0.2182  0.0604  0.0664
10893DDP     C265356  17.206  21.110  19.302  0.0748 -0.0843 -0.3476
10893DDP     C365357  16.781  19.838  19.617 -0.0050 -0.2004 -0.0602
10893DDP     C465358  17.755  20.103  19.514 -0.2472  0.0560 -0.1811
10894DDP     C165359  13.157  12.789  27.260 -0.1358  0.0597  0.3124
10894DDP     P165360  12.742  12.540  27.301  0.2233 -0.1423  0.3911
10894DDP     P265361  13.233  13.280  27.440  0.1537  0.2521  0.2165
10894DDP     C265362  13.358  13.663  27.519  0.0681 -0.0971  0.1596
10894DDP     C365363  12.364  12.745  27.508  0.1606  0.1260 -0.0049
10894DDP     C465364  13.670  12.652  27.181  0.1651  0.3051 -0.1239
10895DDP     C165365   9.140   7.772  22.556 -0.0004 -0.0538  0.1348
10895DDP     P165366   9.382   8.135  22.330 -0.0925  0.0791 -0.1810
10895DDP     P265367   9.377   7.689  22.982  0.0434 -0.0794 -0.3227
10895DDP     C265368   9.476   7.843  23.406 -0.2219  0.1859 -0.0013
10895DDP     C365369   9.712   8.336  22.310 -0.4103 -0.0828 -0.0001
10895DDP     C465370   8.619   7.677  22.548 -0.0574 -0.0618  0.5296
10896DDP     C165371  18.152   7.278   6.010 -0.0121 -0.3950  0.1599
10896DDP     P165372  17.826   7.123   5.682  0.0961  0.1518 -0.2458
10896DDP     P265373  18.062   7.767   6.015  0.0900  0.0564 -0.2833
10896DDP     C265374  18.220   8.189   6.066  0.0262  0.1747 -0.1572
10896DDP     C365375  17.845   7.318   5.196  0.0408  0.1240  0.1057
10896DDP     C465376  18.577   7.131   5.958  0.1044 -0.0737  0.3934
10897DDP     C165377  10.168   6.612  28.749  0.2251  0.0632 -0.0005
10897DDP     P165378  10.005   6.651  28.340 -0.1403  0.1642 -0.1290
10897DDP     P265379   9.921   6.522  29.113  0.0436 -0.1925  0.0842
10897DDP     C265380   9.644   6.642  29.436 -0.2202 -0.1964  0.0189
10897DDP     C365381   9.969   6.577  27.971  0.1872 -0.0249  0.3163
10897DDP     C465382  10.640   6.583  28.749 -0.1788  0.2062  0.0714
10898DDP     C165383  21.277  28.876  22.445 -0.0427  0.0474 -0.0101
10898DDP     P165384  21.410  28.459  22.345 -0.0799 -0.0267  0.0428
10898DDP     P265385  21.617  28.885  22.842  0.0996 -0.0265 -0.0939
10898DDP     C265386  21.950  28.748  23.161 -0.1645 -0.1559  0.0325
10898DDP     C365387  21.667  28.140  21.973  0.0655 -0.1697  0.0177
10898DDP     C465388  21.157  29.203  22.146  0.1869 -0.2502 -0.0742
10899DDP     C165389  19.404  20.920  22.923  0.1922  0.0322 -0.0805
10899DDP     P165390  19.055  20.742  23.001 -0.0892 -0.0608  0.3149
10899DDP     P265391  19.189  21.180  22.595  0.0513 -0.2889  0.0117
10899DDP     C265392  18.932  21.564  22.607 -0.2147 -0.0414  0.3456
10899DDP     C365393  18.687  20.592  22.815 -0.1334 -0.2851 -0.0340
10899DDP     C465394  19.975  20.795  23.101  0.0640 -0.0443  0.4165
10900DDP     C165395  23.813  22.690  27.768 -0.0601 -0.0283 -0.0353
10900DDP     P165396  24.191  22.465  27.765 -0.1525 -0.0613 -0.2753
10900DDP     P265397  23.534  22.815  27.404  0.3108  0.2459  0.1176
10900DDP     C265398  23.131  22.851  27.225 -0.0466  0.0645  0.2730
10900DDP     C365399  24.591  22.556  27.529 -0.1156  0.1006  0.0620
10900DDP     C465400  23.632  22.905  28.131 -0.0319 -0.1310  0.0254
10901DDP     C165401  22.964  11.531   2.586 -0.3116 -0.0302 -0.1536
10901DDP     P165402  22.842  11.813   2.721 -0.0836 -0.2129  0.1641
10901DDP     P265403  22.758  11.088   2.602  0.4095  0.1591 -0.0261
10901DDP     C265404  22.481  10.847   2.800  0.1219 -0.0288  0.3157
10901DDP     C365405  22.845  12.239   2.443 -0.0561 -0.1111  0.0830
10901DDP     C465406  23.344  11.677   2.427  0.3341 -0.0587  0.0378
10902DDP     C165407  16.333  13.463  19.762  0.2066 -0.1100 -0.3339
10902DDP     P165408  16.179  13.511  20.198  0.2678  0.0757 -0.0895
10902DDP     P265409  16.564  13.915  19.515 -0.0493  0.3343  0.1920
10902DDP     C265410  16.741  14.270  19.748  0.1492  0.0030  0.0361
10902DDP     C365411  15.832  13.762  20.339  0.1504  0.1605 -0.2054
10902DDP     C465412  16.466  13.047  19.681 -0.1291 -0.3543 -0.4013
10903DDP     C165413  14.155  23.321  16.216 -0.1039 -0.0876 -0.0442
10903DDP     P165414  14.178  23.735  16.067  0.2259 -0.1813 -0.3216
10903DDP     P265415  14.517  23.044  16.111  0.2309  0.1064 -0.1245
10903DDP     C265416  14.724  22.974  15.773 -0.2842  0.1400 -0.2532
10903DDP     C365417  14.228  24.163  16.174 -0.2201  0.0578  0.0303
10903DDP     C465418  13.908  23.439  16.551  0.1671  0.0118  0.0413
10904DDP     C165419  14.372  17.521  25.942  0.1076 -0.1941  0.0346
10904DDP     P165420  14.207  17.582  26.328 -0.0856 -0.0724 -0.1540
10904DDP     P265421  14.166  17.551  25.581 -0.1479 -0.0049 -0.1006
10904DDP     C265422  13.885  17.593  25.361 -0.0213  0.1205  0.3326
10904DDP     C365423  13.962  17.347  26.570 -0.0809 -0.0427 -0.3831
10904DDP     C465424  14.823  17.673  25.959  0.0442 -0.0256  0.2706
10905DDP     C165425   3.826  24.388  16.712  0.0256 -0.2998 -0.2400
10905DDP     P165426   3.505  24.206  16.507  0.0887  0.0032 -0.0565
10905DDP     P265427   3.799  24.853  16.696  0.0917  0.2023 -0.1925
10905DDP     C265428   3.449  25.168  16.781  0.1160  0.1407  0.0769
10905DDP     C365429   3.227  23.852  16.691 -0.0493 -0.2430  0.1574
10905DDP     C465430   4.173  24.204  16.906  0.1655 -0.0274  0.1568
10906DDP     C165431   4.266   4.995  24.768 -0.1477  0.2181  0.3137
10906DDP     P165432   4.305   5.399  24.567  0.2706  0.0129  0.0461
10906DDP     P265433   4.043   4.544  24.564 -0.1614 -0.3660  0.0350
10906DDP     C265434   3.844   4.209  24.815 -0.2013  0.1585  0.1156
10906DDP     C365435   4.189   5.686  24.242 -0.0028 -0.4473  0.2195
10906DDP     C465436   4.219   4.950  25.161  0.1323  0.1307 -0.0496
10907DDP     C165437   5.715  11.520   1.374 -0.0432 -0.0397 -0.1893
10907DDP     P165438   5.551  11.950   1.464  0.2209 -0.1540  0.1597
10907DDP     P265439   5.530  11.368   1.031  0.1242  0.1349 -0.2733
10907DDP     C265440   5.468  11.095   0.894 -0.1730  0.1559 -0.0046
10907DDP     C365441   5.622  12.499   1.385  0.0079 -0.0624  0.4164
10907DDP     C465442   5.886  11.140   1.652 -0.0820 -0.0652  0.0972
10908DDP     C165443   6.237  17.266   0.570  0.1827  0.1387  0.0244
10908DDP     P165444   6.567  17.076   0.615 -0.0629  0.4017 -0.1282
10908DDP     P265445   6.068  17.021   0.864 -0.1170 -0.2169  0.2644
10908DDP     C265446   5.999  16.642   1.092 -0.1997 -0.2146 -0.1646
10908DDP     C365447   6.865  16.746   0.574 -0.0137 -0.0097  0.2412
10908DDP     C465448   5.994  17.289   0.108  0.1168  0.1487  0.2177
10909DDP     C165449  14.822  22.760   9.868  0.1233  0.0600 -0.0571
10909DDP     P165450  15.152  23.016   9.749  0.1341  0.0023  0.1966
10909DDP     P265451  14.747  22.498  10.221  0.1333  0.0260  0.2597
10909DDP     C265452  14.544  22.159  10.261 -0.0140  0.2087  0.1437
10909DDP     C365453  15.363  23.200  10.091 -0.0354  0.2597 -0.1247
10909DDP     C465454  14.643  22.738   9.506  0.1077  0.0823 -0.2702
10910DDP     C165455  28.401   6.557  16.031  0.1197 -0.1385  0.0444
10910DDP     P165456  28.555   6.777  15.738  0.1978 -0.1023 -0.0218
10910DDP     P265457  28.170   6.137  16.134  0.1250 -0.0716  0.0871
10910DDP     C265458  27.827   6.034  16.264  0.1488 -0.0456 -0.0951
10910DDP     C365459  28.537   7.208  15.600 -0.0800  0.5555 -0.0269
10910DDP     C465460  28.418   6.932  16.169 -0.1132  0.0412 -0.4761
10911DDP     C165461  22.369   1.791   0.336 -0.0556  0.1261  0.2781
10911DDP     P165462  22.017   1.970   0.315 -0.0424  0.1957 -0.0509
10911DDP     P265463  22.523   1.652   0.719 -0.0495 -0.1293  0.1354
10911DDP     C265464  22.752   1.953   1.056  0.1071  0.0959  0.0938
10911DDP     C365465  21.644   1.817   0.093  0.2536 -0.1994 -0.2537
10911DDP     C465466  22.453   1.392   0.060  0.0757  0.2364 -0.5093
10912DDP     C165467  25.716  12.807  24.558  0.0045 -0.0869 -0.1521
10912DDP     P165468  25.606  12.392  24.333 -0.0762  0.0363  0.1122
10912DDP     P265469  26.011  12.699  24.873 -0.0256  0.2008 -0.0930
10912DDP     C265470  26.210  12.426  25.075 -0.1623  0.1024  0.1098
10912DDP     C365471  25.344  11.997  24.394 -0.0720  0.1710 -0.1576
10912DDP     C465472  25.460  13.193  24.417  0.3133 -0.0067  0.3666
10913DDP     C165473  11.958  18.918  27.974 -0.4548  0.0079 -0.2031
10913DDP     P165474  11.729  19.034  27.501  0.4324 -0.0922  0.0502
10913DDP     P265475  11.970  19.024  28.406  0.2561 -0.3055 -0.0340
10913DDP     C265476  11.766  19.022  28.734  0.2323 -0.0764 -0.1526
10913DDP     C365477  11.637  19.007  27.048 -0.0302 -0.4946  0.1490
10913DDP     C465478  12.127  18.527  27.877 -0.1160  0.4332  0.0598
10914DDP     C165479   0.342   5.813  21.168  0.0844  0.0167  0.3157
10914DDP     P165480   0.742   5.910  21.132  0.1002  0.0001  0.0939
10914DDP     P265481   0.136   5.617  21.485  0.0248 -0.3763 -0.0542
10914DDP     C265482  30.157   5.752  21.807  0.0504  0.2526  0.0274
10914DDP     C365483   0.965   6.262  21.194  0.2012 -0.3219 -0.2201
10914DDP     C465484   0.034   5.806  20.790 -0.2149  0.2455  0.0482
10915DDP     C165485   0.670   2.604  28.207 -0.0910 -0.1695 -0.1040
10915DDP     P165486   0.782   2.943  27.840  0.1703  0.0892  0.0211
10915DDP     P265487   0.882   2.234  28.402 -0.1160 -0.4806  0.0083
10915DDP     C265488   0.761   1.838  28.699  0.0832 -0.1374  0.0212
10915DDP     C365489   1.153   2.827  27.649  0.0665 -0.0951  0.2583
10915DDP     C465490   0.234   2.606  28.411 -0.2257  0.1057 -0.1439
10916DDP     C165491   4.193  22.952   2.926  0.1580 -0.1758  0.0025
10916DDP     P165492   3.932  23.322   3.012 -0.2380  0.1203 -0.2215
10916DDP     P265493   4.587  22.694   3.076 -0.2725  0.1267  0.0468
10916DDP     C265494   4.860  22.520   3.262 -0.0086  0.0889 -0.1686
10916DDP     C365495   3.675  23.609   2.885  0.5104 -0.0222  0.2254
10916DDP     C465496   4.004  22.802   2.573  0.0810  0.0970  0.0207
10917DDP     C165497  29.372  11.636   5.566  0.2595  0.0415 -0.0117
10917DDP     P165498  29.826  11.686   5.612 -0.0362  0.1409  0.0324
10917DDP     P265499  29.212  11.809   5.948  0.0770 -0.1731 -0.5237
10917DDP     C265500  29.085  12.237   6.060 -0.2560  0.1889  0.2691
10917DDP     C365501  30.123  11.800   5.301  0.0511  0.0015  0.0825
10917DDP     C465502  29.267  11.220   5.331 -0.2389  0.0191  0.0948
10918DDP     C165503  30.182  25.718  15.925 -0.0531 -0.2217  0.1309
10918DDP     P165504  30.251  25.495  16.265  0.0677 -0.1107  0.1782
10918DDP     P265505  29.710  25.697  15.701  0.1265 -0.1230 -0.2454
10918DDP     C265506  29.265  25.670  15.508  0.1018 -0.1644  0.3614
10918DDP     C365507  30.167  25.376  16.761  0.0046 -0.1655 -0.2261
10918DDP     C465508   0.255  25.851  15.818  0.3713  0.0809  0.1718
10919DDP     C165509  13.604   0.943  13.918  0.3042  0.3390 -0.2019
10919DDP     P165510  13.716   1.298  14.209  0.1205  0.2470 -0.0624
10919DDP     P265511  13.340   0.960  13.466  0.2617 -0.1963 -0.0385
10919DDP     C265512  13.360   0.839  13.140  0.0232 -0.0862 -0.2447
10919DDP     C365513  13.762   1.063  14.547  0.4008 -0.2711  0.1105
10919DDP     C465514  13.586   0.655  14.258  0.0700  0.1481 -0.1780
10920DDP     C165515  21.105  17.498   9.526  0.0474 -0.4559  0.1322
10920DDP     P165516  21.269  17.054   9.600  0.0078 -0.0739 -0.0358
10920DDP     P265517  21.388  17.812   9.861  0.0974 -0.0275 -0.0039
10920DDP     C265518  21.141  18.161  10.096 -0.2299  0.0826 -0.2368
10920DDP     C365519  21.605  16.895   9.391  0.0688 -0.0520 -0.2684
10920DDP     C465520  20.758  17.769   9.347 -0.1263 -0.0439  0.1717
10921DDP     C165521   1.229  25.545  27.139  0.2423  0.1760 -0.0409
10921DDP     P165522   1.203  25.493  26.623  0.1928  0.1429 -0.0115
10921DDP     P265523   1.376  26.011  27.233 -0.1193 -0.1027 -0.1272
10921DDP     C265524   1.456  26.383  27.195  0.0627  0.0185 -0.0734
10921DDP     C365525   1.164  25.480  26.204  0.2690 -0.0979 -0.0122
10921DDP     C465526   1.146  25.331  27.572  0.3347  0.2208  0.0411
10922DDP     C165527  14.696  24.822   5.641 -0.0772  0.2463 -0.1426
10922DDP     P165528  14.374  25.174   5.749  0.0094 -0.3253 -0.1957
10922DDP     P265529  14.649  24.608   5.258  0.2257  0.0269 -0.1951
10922DDP     C265530  14.542  24.961   4.876 -0.0731 -0.1665  0.1974
10922DDP     C365531  14.121  25.438   6.011  0.1293 -0.2394 -0.0701
10922DDP     C465532  15.073  24.734   5.862 -0.2523  0.2622  0.1954
10923DDP     C165533  15.468  30.057   7.071  0.1373  0.1710 -0.2191
10923DDP     P165534  15.656  29.790   7.470 -0.0327 -0.0234 -0.2181
10923DDP     P265535  15.661  30.220   6.695  0.1756 -0.0423  0.0721
10923DDP     C265536  15.864  30.186   6.280 -0.0833  0.0527 -0.0335
10923DDP     C365537  15.962  29.917   7.669 -0.0392  0.1865  0.1520
10923DDP     C465538  15.034  30.046   7.024 -0.2870  0.3290  0.0801
10924DDP     C165539  19.179  11.871   7.583  0.4280 -0.1446 -0.1309
10924DDP     P165540  19.069  11.856   8.054 -0.1187 -0.0893  0.0740
10924DDP     P265541  19.085  11.566   7.231  0.1088  0.0835 -0.5078
10924DDP     C265542  19.110  11.290   6.905 -0.0720 -0.3231  0.0828
10924DDP     C365543  19.352  11.765   8.407  0.3745 -0.3589 -0.0072
10924DDP     C465544  19.407  12.267   7.447  0.0726 -0.0429 -0.1552
10925DDP     C165545  10.604   7.924  16.864 -0.2310  0.0553  0.0695
10925DDP     P165546  10.169   8.108  17.001 -0.1710 -0.2070  0.0729
10925DDP     P265547  10.512   7.646  16.677 -0.2134  0.0252 -0.2547
10925DDP     C265548  10.068   7.567  16.419  0.1509  0.1945  0.1986
10925DDP     C365549   9.807   8.371  16.899 -0.1311  0.0725 -0.0867
10925DDP     C465550  10.929   8.051  17.128 -0.0119 -0.2834 -0.1778
10926DDP     C165551   6.381  19.503   3.911 -0.0271 -0.0305 -0.1571
10926DDP     P165552   5.997  19.254   4.021 -0.0408  0.1770 -0.1724
10926DDP     P265553   6.342  19.906   3.672  0.1053  0.1857 -0.1994
10926DDP     C265554   6.770  20.146   3.603  0.0867 -0.0238 -0.0383
10926DDP     C365555   5.766  18.939   4.207  0.0733 -0.0086  0.1802
10926DDP     C465556   6.811  19.209   3.878 -0.0886  0.1418  0.0109
10927DDP     C165557   8.921   1.696  25.577  0.1304  0.1883 -0.0756
10927DDP     P165558   8.599   1.918  25.340 -0.0157 -0.1749 -0.0014
10927DDP     P265559   9.211   1.940  25.718 -0.0178 -0.1525 -0.1916
10927DDP     C265560   9.693   2.190  25.765 -0.1535 -0.1313 -0.3282
10927DDP     C365561   8.486   2.321  25.301  0.0054 -0.3009 -0.0158
10927DDP     C465562   8.737   1.378  25.881 -0.2518  0.1838 -0.0387
10928DDP     C165563  15.002  21.871   7.040  0.1477  0.0170  0.1583
10928DDP     P165564  15.042  21.418   7.209 -0.2481 -0.1599 -0.4012
10928DDP     P265565  14.556  22.007   6.857 -0.0295  0.0990 -0.0785
10928DDP     C265566  14.401  22.288   6.509 -0.0717 -0.1758 -0.0519
10928DDP     C365567  14.883  21.003   7.178 -0.0200  0.0220 -0.0965
10928DDP     C465568  15.310  21.972   6.933  0.0018  0.0415 -0.4056
10929DDP     C165569  28.212  13.531   5.038 -0.0030 -0.0591  0.2720
10929DDP     P165570  28.617  13.511   4.943 -0.0057  0.0386  0.0773
10929DDP     P265571  27.943  13.157   5.244  0.0813 -0.1713 -0.0368
10929DDP     C265572  27.740  13.082   5.673  0.0832 -0.0198  0.0786
10929DDP     C365573  28.948  13.613   4.648  0.1099  0.0545  0.0901
10929DDP     C465574  27.916  13.869   5.013 -0.0900 -0.1895  0.0370
10930DDP     C165575  14.045  13.080  27.933 -0.1334  0.1040  0.0638
10930DDP     P165576  14.333  13.164  28.242 -0.0241 -0.0641  0.0723
10930DDP     P265577  13.700  12.852  28.071  0.0610 -0.2839 -0.1537
10930DDP     C265578  13.213  12.872  28.138  0.0552  0.0478  0.1197
10930DDP     C365579  14.511  13.134  28.629  0.2865 -0.3656  0.1092
10930DDP     C465580  14.087  12.920  27.461  0.0200  0.3229  0.1743
10931DDP     C165581  23.221  27.114  23.571 -0.1207 -0.2198 -0.0523
10931DDP     P165582  23.286  27.538  23.530  0.2001 -0.1732  0.2907
10931DDP     P265583  23.562  26.886  23.791 -0.0601 -0.4499 -0.1590
10931DDP     C265584  23.789  26.519  23.971 -0.2398  0.0902 -0.0953
10931DDP     C365585  23.583  27.933  23.573 -0.1938 -0.2443  0.0833
10931DDP     C465586  22.797  26.882  23.519  0.0438 -0.2058  0.1304
10932DDP     C165587  28.558  10.497  15.759 -0.0004  0.1263 -0.0249
10932DDP     P165588  28.203  10.824  15.859 -0.1274  0.0284  0.2074
10932DDP     P265589  28.889  10.537  15.428 -0.0439 -0.1240 -0.3408
10932DDP     C265590  29.191  10.647  15.146 -0.2663 -0.0547 -0.0283
10932DDP     C365591  28.168  11.282  16.048 -0.2413 -0.2781 -0.2696
10932DDP     C465592  28.538  10.034  15.935  0.1179  0.1516  0.3185
10933DDP     C165593  28.542  16.208  19.440  0.3376 -0.1242 -0.0693
10933DDP     P165594  28.127  16.261  19.443 -0.2307  0.3013 -0.0188
10933DDP     P265595  28.814  16.497  19.448  0.0463 -0.0343  0.0706
10933DDP     C265596  29.075  16.852  19.474  0.2858 -0.3242  0.1229
10933DDP     C365597  27.586  16.349  19.291 -0.3261  0.1520  0.2518
10933DDP     C465598  28.719  15.894  19.608  0.1223  0.0155 -0.0177
10934DDP     C165599  16.119  25.975  26.390 -0.1822  0.0014 -0.1052
10934DDP     P165600  15.685  26.056  26.304  0.1727 -0.0893  0.3501
10934DDP     P265601  15.945  25.797  26.755 -0.3319 -0.0520 -0.1049
10934DDP     C265602  15.654  25.889  27.064  0.0109 -0.1129  0.0283
10934DDP     C365603  15.265  26.248  26.269  0.0657  0.2607 -0.0105
10934DDP     C465604  16.512  26.154  26.229 -0.2352  0.0348  0.2365
10935DDP     C165605  22.521   7.653  25.355 -0.1309  0.0764 -0.3628
10935DDP     P165606  22.635   7.215  25.401 -0.1597 -0.0389 -0.2045
10935DDP     P265607  22.768   7.771  25.641 -0.0744  0.1756  0.1326
10935DDP     C265608  23.033   8.128  25.561  0.0127 -0.0326 -0.2583
10935DDP     C365609  22.748   6.804  25.662 -0.4050  0.3771 -0.0650
10935DDP     C465610  22.194   7.843  25.275  0.1089 -0.1761  0.2199
10936DDP     C165611  11.468  27.562  25.329 -0.3041 -0.1438  0.1892
10936DDP     P165612  11.635  27.883  24.995 -0.0381  0.0973 -0.3216
10936DDP     P265613  11.046  27.636  25.302  0.0031  0.0729 -0.0495
10936DDP     C265614  10.614  27.732  25.473  0.1256  0.4307  0.2115
10936DDP     C365615  11.558  28.278  24.963  0.0270  0.3520 -0.2990
10936DDP     C465616  11.599  27.157  25.328  0.0722  0.0159  0.0370
10937DDP     C165617   1.605  24.150  10.814 -0.1134  0.1585  0.0129
10937DDP     P165618   1.542  24.142  11.228  0.0031 -0.1633  0.0111
10937DDP     P265619   1.453  24.073  10.482  0.1824 -0.1313  0.2576
10937DDP     C265620   1.299  23.985  10.080 -0.1442  0.3577 -0.0341
10937DDP     C365621   1.257  23.971  11.392  0.0706 -0.1451 -0.0591
10937DDP     C465622   1.912  24.466  10.623  0.0354  0.0998 -0.1102
10938DDP     C165623   1.844  19.578   5.051  0.3235 -0.0973  0.0201
10938DDP     P165624   2.114  19.410   5.392  0.0919  0.4512 -0.0767
10938DDP     P265625   1.683  19.255   4.749 -0.2032  0.0856  0.1960
10938DDP     C265626   1.469  19.022   4.440  0.1231  0.0760  0.1047
10938DDP     C365627   2.433  19.229   5.318 -0.0313  0.0849 -0.1969
10938DDP     C465628   1.530  19.992   5.040  0.0524  0.2431  0.0620
10939DDP     C165629  17.119  20.819   2.374  0.0201  0.0777 -0.2676
10939DDP     P165630  17.283  20.535   2.184  0.2055 -0.1123  0.0623
10939DDP     P265631  17.010  20.794   2.724 -0.0209  0.0969 -0.1732
10939DDP     C265632  16.960  21.052   3.005  0.2074  0.3541  0.0164
10939DDP     C365633  17.721  20.530   2.238 -0.0854 -0.0050 -0.0977
10939DDP     C465634  17.140  21.214   2.242 -0.0589 -0.1248 -0.1222
10940DDP     C165635  13.771  22.371  24.934 -0.0084  0.0404  0.2425
10940DDP     P165636  13.923  22.469  25.354  0.0704 -0.0147  0.1772
10940DDP     P265637  13.472  22.551  24.737 -0.0059  0.1114  0.0215
10940DDP     C265638  13.380  22.636  24.289 -0.1272  0.2168  0.0655
10940DDP     C365639  13.825  22.380  25.764  0.0065 -0.2885  0.1853
10940DDP     C465640  13.838  21.979  24.842  0.0036  0.0950  0.0221
10941DDP     C165641   0.105   8.667  24.370  0.1861 -0.1204  0.1453
10941DDP     P165642  30.036   8.332  24.147 -0.1595 -0.0561  0.0460
10941DDP     P265643   0.197   8.647  24.772  0.0492 -0.3444  0.0067
10941DDP     C265644   0.170   8.649  25.155 -0.0288  0.1573  0.0733
10941DDP     C365645  29.756   8.034  23.921 -0.2041 -0.1970 -0.0331
10941DDP     C465646   0.519   8.795  24.175  0.2330  0.0410 -0.2451
10942DDP     C165647  20.409  11.366   4.468 -0.1227 -0.3507  0.1900
10942DDP     P165648  20.183  11.606   4.842 -0.0441 -0.3043 -0.0779
10942DDP     P265649  20.084  11.221   4.304 -0.1218  0.0564 -0.0645
10942DDP     C265650  19.847  11.285   3.833 -0.0977  0.0334 -0.1287
10942DDP     C365651  20.249  11.894   5.178 -0.0530  0.2060  0.2000
10942DDP     C465652  20.735  11.411   4.268 -0.1856  0.0713 -0.0865
10943DDP     C165653  18.124  11.345  18.703 -0.0294  0.2162  0.0403
10943DDP     P165654  18.496  11.437  19.027  0.1126 -0.1233 -0.2533
10943DDP     P265655  18.102  10.946  18.430 -0.1752 -0.3070  0.2878
10943DDP     C265656  18.051  10.584  18.159  0.1107  0.0039 -0.0472
10943DDP     C365657  18.688  11.686  19.262  0.0208  0.0750  0.1355
10943DDP     C465658  18.045  11.720  18.511 -0.0254 -0.0403 -0.1633
10944DDP     C165659   6.923  10.569  19.377 -0.1572 -0.1376 -0.0068
10944DDP     P165660   7.225  10.359  19.052  0.4549  0.2029 -0.4096
10944DDP     P265661   6.801  10.960  19.173  0.2042 -0.0357  0.2548
10944DDP     C265662   6.685  11.307  19.331  0.2631  0.2050 -0.1141
10944DDP     C365663   7.251  10.174  18.630  0.1235 -0.0779  0.3468
10944DDP     C465664   6.843  10.421  19.784 -0.0698  0.3732 -0.0105
10945DDP     C165665  29.040   3.667  16.090  0.1827  0.0856  0.0848
10945DDP     P165666  28.875   3.653  15.655 -0.1383  0.2235 -0.0536
10945DDP     P265667  28.773   4.061  16.278 -0.0830  0.2419  0.0606
10945DDP     C265668  28.599   4.140  16.708 -0.2892  0.0587 -0.1571
10945DDP     C365669  28.838   3.814  15.271  0.0978 -0.1634 -0.4155
10945DDP     C465670  29.368   3.584  16.417  0.0761  0.2595 -0.2233
10946DDP     C165671   7.862  16.199   0.554  0.2846 -0.0337 -0.0170
10946DDP     P165672   7.380  16.070   0.771  0.2468 -0.1442  0.2289
10946DDP     P265673   8.215  16.466   0.645 -0.1995  0.2301 -0.3312
10946DDP     C265674   8.608  16.711   0.610 -0.2215  0.2164  0.1538
10946DDP     C365675   6.960  15.813   0.632  0.0521 -0.0443 -0.1063
10946DDP     C465676   7.919  15.910   0.186  0.1488  0.0896  0.3080
10947DDP     C165677  16.028  12.782  25.865 -0.1160  0.1232 -0.0600
10947DDP     P165678  16.192  12.618  25.555  0.0754  0.0267  0.1545
10947DDP     P265679  16.163  12.497  26.162  0.4736  0.2984 -0.2796
10947DDP     C265680  16.550  12.280  26.265  0.1552 -0.1288 -0.0398
10947DDP     C365681  16.334  12.875  25.268 -0.0926 -0.2233  0.3537
10947DDP     C465682  15.937  13.175  26.068  0.0258  0.1700 -0.0263
10948DDP     C165683  27.948   7.133  14.913 -0.1468  0.3375  0.0387
10948DDP     P165684  28.059   7.133  14.496 -0.0959  0.1852 -0.1505
10948DDP     P265685  27.429   6.941  14.929  0.0757 -0.1263 -0.3192
10948DDP     C265686  27.006   7.280  14.911  0.0005  0.2190 -0.0384
10948DDP     C365687  28.396   6.971  14.276  0.1623  0.2225  0.4573
10948DDP     C465688  28.150   7.366  15.315 -0.2944 -0.1661  0.0562
10949DDP     C165689  21.204   7.027  23.217 -0.0313 -0.3022  0.2513
10949DDP     P165690  21.061   7.244  22.859 -0.0440 -0.2488  0.1606
10949DDP     P265691  21.034   7.030  23.616 -0.1631  0.1235  0.2059
10949DDP     C265692  20.799   7.357  23.858 -0.1932  0.1350  0.2338
10949DDP     C365693  21.475   7.207  22.694  0.1706 -0.1347  0.2244
10949DDP     C465694  21.584   6.766  23.149  0.1357  0.2318  0.1442
10950DDP     C165695  26.647  29.655  11.404 -0.3497 -0.0200 -0.3217
10950DDP     P165696  26.989  29.932  11.273  0.0412 -0.1695  0.2164
10950DDP     P265697  26.763  29.484  11.815  0.1759 -0.0737 -0.2087
10950DDP     C265698  26.929  29.500  12.152  0.0499 -0.0494 -0.0219
10950DDP     C365699  27.397  30.225  11.295  0.2004  0.1640 -0.2910
10950DDP     C465700  26.304  29.516  11.196 -0.0654 -0.0471 -0.1195
10951DDP     C165701  24.323  21.722   0.907  0.1050 -0.1455 -0.2747
10951DDP     P165702  24.428  22.048   0.693 -0.1653  0.1216  0.0073
10951DDP     P265703  24.626  21.448   0.748 -0.0416 -0.0593  0.2255
10951DDP     C265704  24.820  21.157   0.495  0.0995 -0.0643 -0.0088
10951DDP     C365705  24.772  22.388   0.715 -0.2102 -0.0658  0.1490
10951DDP     C465706  23.822  21.679   1.091 -0.0085 -0.1002  0.0147
10952DDP     C165707  13.633   8.583  19.176 -0.0302 -0.1846 -0.1583
10952DDP     P165708  13.891   8.313  19.428  0.0261 -0.1984  0.2464
10952DDP     P265709  13.771   8.914  18.911  0.1787  0.0766  0.2223
10952DDP     C265710  13.775   9.320  19.018 -0.1399  0.2245 -0.0833
10952DDP     C365711  14.162   7.862  19.423 -0.0741 -0.2451 -0.1968
10952DDP     C465712  13.125   8.555  19.074  0.1386 -0.0006 -0.2886
10953DDP     C165713   7.347  16.024  19.365  0.0171 -0.0408  0.2098
10953DDP     P165714   7.599  15.870  19.055  0.1077  0.0177  0.1185
10953DDP     P265715   7.099  15.658  19.407 -0.4452 -0.0093 -0.0109
10953DDP     C265716   6.777  15.534  19.674  0.2457 -0.0402  0.0493
10953DDP     C365717   7.974  16.078  18.876 -0.0649  0.0125  0.0397
10953DDP     C465718   7.533  16.358  19.663  0.2675 -0.0005 -0.2543
10954DDP     C165719   8.366   6.496  21.695 -0.0192 -0.0231  0.0840
10954DDP     P165720   8.780   6.271  21.496 -0.1163  0.2492  0.1776
10954DDP     P265721   8.495   6.795  22.004 -0.1715 -0.3272  0.2520
10954DDP     C265722   8.896   6.839  22.319  0.0585  0.0398  0.0072
10954DDP     C365723   8.983   5.979  21.658 -0.0679  0.3608  0.2141
10954DDP     C465724   7.981   6.489  21.563  0.2044 -0.0603  0.1810
10955DDP     C165725  27.854  11.749  29.388 -0.3296  0.3940 -0.0408
10955DDP     P165726  27.851  12.089  29.683  0.1301 -0.0369  0.1916
10955DDP     P265727  27.732  11.911  28.984 -0.0819 -0.2167 -0.2157
10955DDP     C265728  27.390  12.005  28.640 -0.1322 -0.1054 -0.1557
10955DDP     C365729  27.827  12.408  30.011  0.1698 -0.0978 -0.1307
10955DDP     C465730  27.879  11.292  29.458  0.0043  0.1394  0.1367
10956DDP     C165731  14.279  18.352   9.609 -0.1773 -0.1600  0.0349
10956DDP     P165732  14.633  18.607   9.793 -0.1945 -0.1078  0.5119
10956DDP     P265733  14.521  18.007   9.407 -0.1359  0.1582 -0.1232
10956DDP     C265734  14.754  17.986   8.918 -0.0364 -0.2204 -0.0540
10956DDP     C365735  14.869  18.788   9.630  0.0664  0.2606 -0.1608
10956DDP     C465736  13.937  18.582   9.357  0.2308 -0.1233  0.0978
10957DDP     C165737  13.304  23.091  18.198 -0.1659 -0.0947  0.1728
10957DDP     P165738  13.326  23.561  17.971 -0.1829 -0.0861  0.1709
10957DDP     P265739  13.040  22.780  18.074  0.0875  0.2958 -0.1572
10957DDP     C265740  13.065  22.563  18.443  0.2353  0.2667  0.0337
10957DDP     C365741  13.099  23.816  17.710 -0.1709 -0.0390  0.1893
10957DDP     C465742  13.606  22.788  18.492 -0.2102  0.3663  0.1246
10958DDP     C165743  13.140   9.234  10.885  0.0081  0.2683 -0.3657
10958DDP     P165744  12.792   9.030  10.996 -0.0483 -0.3686  0.0159
10958DDP     P265745  13.233   9.676  11.006  0.2897 -0.2953  0.0389
10958DDP     C265746  13.107  10.183  11.019  0.2615 -0.1765 -0.3217
10958DDP     C365747  12.473   9.081  11.363 -0.0244 -0.2302  0.3226
10958DDP     C465748  13.498   9.112  10.608 -0.0238 -0.0164 -0.3006
10959DDP     C165749  16.952  12.564   9.934  0.0977  0.4005 -0.2497
10959DDP     P165750  17.044  13.057   9.866  0.0213 -0.1318  0.1513
10959DDP     P265751  16.552  12.358   9.685  0.1107  0.1794  0.1351
10959DDP     C265752  16.674  12.312   9.226  0.2025  0.4054  0.0856
10959DDP     C365753  16.883  13.358   9.622 -0.1294 -0.3653  0.0560
10959DDP     C465754  17.033  12.371  10.288 -0.0044  0.0772 -0.0640
10960DDP     C165755  25.659   9.018  15.610 -0.0151  0.1662  0.2638
10960DDP     P165756  25.403   9.351  15.622  0.0897 -0.0889 -0.1890
10960DDP     P265757  25.908   8.901  15.208 -0.2972 -0.0275  0.1904
10960DDP     C265758  26.279   8.574  15.077  0.0951  0.0854 -0.0588
10960DDP     C365759  25.049   9.498  15.490 -0.2131 -0.0562  0.0599
10960DDP     C465760  25.841   8.913  16.087 -0.1349 -0.1804  0.0110
10961DDP     C165761   2.933  17.185  10.738  0.0680 -0.0726 -0.2507
10961DDP     P165762   2.775  17.423  11.005 -0.2125  0.0971  0.0126
10961DDP     P265763   3.036  16.708  10.743  0.0815 -0.3009 -0.2432
10961DDP     C265764   3.108  16.367  10.517  0.1923 -0.1208 -0.1410
10961DDP     C365765   2.341  17.648  11.112  0.0640  0.0694 -0.3685
10961DDP     C465766   3.197  17.439  10.674  0.1087  0.2775 -0.1226
10962DDP     C165767  17.646   2.397   8.988  0.0952 -0.2555  0.1482
10962DDP     P165768  17.437   2.804   8.887 -0.2522  0.0811  0.0004
10962DDP     P265769  17.976   2.541   8.811  0.1587  0.2880  0.1240
10962DDP     C265770  18.219   2.414   8.587 -0.0078 -0.1572  0.1852
10962DDP     C365771  17.037   2.910   8.755 -0.0416 -0.2483  0.1301
10962DDP     C465772  17.344   2.016   8.980  0.0890 -0.1965 -0.4107
10963DDP     C165773   7.471  28.499   6.659 -0.1574  0.0730 -0.0907
10963DDP     P165774   7.295  28.233   6.678  0.0505  0.0026  0.0215
10963DDP     P265775   7.572  28.517   6.296  0.1636 -0.3528  0.1172
10963DDP     C265776   7.836  28.402   5.859 -0.0727 -0.2837 -0.0706
10963DDP     C365777   6.840  28.141   6.780  0.0114 -0.0056 -0.1574
10963DDP     C465778   7.355  28.708   7.053 -0.1051  0.1203 -0.0696
10964DDP     C165779  29.652  29.476  23.251 -0.0124 -0.2035  0.1004
10964DDP     P165780  29.767  29.880  22.984  0.2530 -0.0578  0.1135
10964DDP     P265781  29.457  29.485  23.601  0.4891  0.0720 -0.0087
10964DDP     C265782  29.659  29.711  23.966  0.0495  0.0924  0.2643
10964DDP     C365783  29.933  30.246  22.795  0.0862 -0.2224 -0.0730
10964DDP     C465784  29.961  29.065  23.164 -0.3219  0.0237 -0.0317
10965DDP     C165785   0.456  21.040   6.877 -0.0952  0.1527  0.0235
10965DDP     P165786   0.275  21.051   7.225 -0.0214 -0.1583  0.1492
10965DDP     P265787   0.493  20.732   6.568 -0.0063  0.2669  0.2229
10965DDP     C265788   0.661  20.314   6.577 -0.3236  0.2110  0.0627
10965DDP     C365789  30.249  21.233   7.446  0.2248 -0.0945  0.0910
10965DDP     C465790   0.685  21.365   6.751 -0.0956  0.2155  0.0162
10966DDP     C165791  25.476   2.982   7.943  0.2396 -0.1661  0.0307
10966DDP     P165792  25.268   2.927   8.367 -0.0794  0.0863  0.0553
10966DDP     P265793  25.446   2.755   7.567  0.0826 -0.0836  0.2568
10966DDP     C265794  25.521   2.593   7.068 -0.0320  0.1390 -0.0067
10966DDP     C365795  25.284   2.678   8.778  0.1803  0.0037  0.2329
10966DDP     C465796  25.758   3.404   7.948  0.0571  0.0663  0.0377
10967DDP     C165797  14.805  30.103  22.869  0.1417 -0.3960  0.0705
10967DDP     P165798  14.584   0.117  23.167 -0.2083  0.3806  0.1609
10967DDP     P265799  14.560  29.712  22.773  0.2016 -0.2828 -0.0930
10967DDP     C265800  14.716  29.386  22.478 -0.2172 -0.1123  0.0598
10967DDP     C365801  14.601   0.247  23.554  0.3469 -0.1622  0.1825
10967DDP     C465802  15.292  30.239  22.776  0.0602  0.0072 -0.0346
10968DDP     C165803  25.969   4.613   1.095 -0.0585 -0.3727 -0.1421
10968DDP     P165804  26.090   5.025   0.988 -0.1042  0.0580 -0.1621
10968DDP     P265805  25.580   4.451   0.938 -0.3536 -0.1502 -0.0500
10968DDP     C265806  25.072   4.511   1.076 -0.1351  0.1090 -0.0139
10968DDP     C365807  25.962   5.464   0.961  0.0824 -0.1997  0.1493
10968DDP     C465808  26.324   4.422   1.231  0.0967  0.1379  0.1514
10969DDP     C165809  17.905  24.679  23.193  0.1438 -0.0260  0.2449
10969DDP     P165810  17.724  24.628  23.516 -0.0019  0.0354 -0.0712
10969DDP     P265811  17.928  24.794  22.813  0.0726  0.0149 -0.3527
10969DDP     C265812  18.049  24.695  22.411  0.3033 -0.0887  0.1433
10969DDP     C365813  17.847  24.512  23.845  0.0457  0.0716  0.0585
10969DDP     C465814  18.186  24.620  23.438 -0.3737  0.0304  0.1667
10970DDP     C165815  17.349   6.451  29.483 -0.1071 -0.2083 -0.0096
10970DDP     P165816  16.906   6.245  29.451 -0.1036 -0.0296  0.1991
10970DDP     P265817  17.474   6.896  29.286 -0.4424  0.0763 -0.0580
10970DDP     C265818  17.651   7.297  29.130  0.0293  0.0231 -0.0160
10970DDP     C365819  16.523   6.170  29.798  0.1945 -0.0833  0.0964
10970DDP     C465820  17.426   6.450  29.966 -0.1454  0.0463 -0.1165
10971DDP     C165821  18.304   6.346  20.797 -0.1358  0.0381 -0.0239
10971DDP     P165822  18.556   6.213  21.130  0.2810 -0.1567  0.2855
10971DDP     P265823  18.464   6.237  20.362 -0.0306  0.0878  0.1725
10971DDP     C265824  18.745   6.056  20.070  0.0032  0.0581  0.1930
10971DDP     C365825  18.803   6.259  21.426 -0.1891  0.0740  0.0282
10971DDP     C465826  18.084   6.652  20.941 -0.0683  0.2925 -0.2027
10972DDP     C165827   0.290   6.245  26.444 -0.0575 -0.1447  0.0466
10972DDP     P165828   0.091   6.412  26.793 -0.1840  0.0700  0.0627
10972DDP     P265829   0.307   6.658  26.134 -0.3414  0.1595 -0.0609
10972DDP     C265830   0.672   6.848  25.882 -0.0951  0.0006  0.3072
10972DDP     C365831   0.190   6.393  27.204 -0.1855 -0.1452  0.0518
10972DDP     C465832   0.486   5.904  26.475  0.0386  0.2187 -0.4331
10973DDP     C165833   7.272  26.439  23.567 -0.0641  0.1721  0.2698
10973DDP     P165834   7.142  26.450  23.873  0.0207 -0.0607  0.0963
10973DDP     P265835   7.382  26.830  23.604  0.1112 -0.3231 -0.0808
10973DDP     C265836   7.575  27.106  23.762  0.2962  0.2357  0.0803
10973DDP     C365837   6.905  26.764  23.838 -0.1463  0.0162  0.0779
10973DDP     C465838   7.174  26.140  23.280 -0.0519 -0.0971  0.2810
10974DDP     C165839   2.693   7.098   4.689 -0.1334 -0.0464 -0.2001
10974DDP     P165840   2.521   6.956   4.304  0.2125  0.1557  0.1439
10974DDP     P265841   2.466   7.188   5.087 -0.1957  0.1574  0.0526
10974DDP     C265842   2.596   7.316   5.540  0.0537  0.0644 -0.1209
10974DDP     C365843   2.196   7.121   3.989 -0.0320  0.1089  0.2125
10974DDP     C465844   2.924   7.408   4.529  0.2967 -0.2750  0.2118
10975DDP     C165845   3.147  12.194   2.337  0.1098  0.1237  0.0816
10975DDP     P165846   2.874  12.313   2.122  0.0068  0.0252 -0.0926
10975DDP     P265847   2.889  12.247   2.599 -0.1424 -0.3242 -0.1443
10975DDP     C265848   2.974  12.244   3.085  0.1808 -0.3035  0.0985
10975DDP     C365849   2.582  12.151   1.867 -0.0466 -0.0562  0.2035
10975DDP     C465850   3.540  12.287   2.349  0.0810  0.2904  0.0197
10976DDP     C165851  16.502  16.366  19.337 -0.0889  0.1285  0.0937
10976DDP     P165852  16.761  16.711  19.415 -0.1553 -0.2015  0.0230
10976DDP     P265853  16.207  16.440  19.118  0.0866  0.2168 -0.2514
10976DDP     C265854  15.827  16.144  18.976 -0.2107 -0.1346  0.2062
10976DDP     C365855  16.941  17.224  19.259  0.1058  0.2125  0.1895
10976DDP     C465856  16.634  15.972  19.529  0.3386  0.3487 -0.0608
10977DDP     C165857   1.515   6.770   1.839  0.1156 -0.1357  0.0270
10977DDP     P165858   1.259   6.405   1.889  0.0017  0.1591 -0.3094
10977DDP     P265859   1.422   6.930   1.544 -0.1021  0.0677 -0.0814
10977DDP     C265860   1.679   7.417   1.291 -0.0041 -0.0039  0.4217
10977DDP     C365861   1.199   6.009   1.715 -0.1853  0.2214  0.0368
10977DDP     C465862   1.779   6.829   2.149 -0.6671 -0.0283  0.0843
10978DDP     C165863   2.318   2.336  29.008  0.4331 -0.0317  0.0289
10978DDP     P165864   2.484   1.907  28.819 -0.0442  0.0013 -0.1493
10978DDP     P265865   2.013   2.261  29.308 -0.0834 -0.0385 -0.0725
10978DDP     C265866   2.068   2.303  29.812 -0.0816 -0.1783 -0.0852
10978DDP     C365867   2.590   1.381  28.737  0.0298  0.3463  0.0780
10978DDP     C465868   2.388   2.697  28.897 -0.1986  0.0405 -0.1086
10979DDP     C165869   1.451   5.308  11.506 -0.3469  0.1534 -0.0991
10979DDP     P165870   1.364   5.806  11.231  0.0189 -0.0507 -0.1063
10979DDP     P265871   1.250   4.943  11.252 -0.2023 -0.0616 -0.0017
10979DDP     C265872   1.013   4.599  11.331  0.2080  0.1757  0.2056
10979DDP     C365873   1.596   5.839  10.845  0.2964 -0.1665 -0.2385
10979DDP     C465874   1.829   5.255  11.752  0.1145 -0.1974  0.0215
10980DDP     C165875  25.573   9.616   2.809  0.1998  0.1431 -0.2210
10980DDP     P165876  25.063   9.358   2.764  0.0775  0.0478 -0.3194
10980DDP     P265877  25.887   9.411   2.827 -0.0694  0.2133 -0.1378
10980DDP     C265878  26.006   9.052   2.972 -0.0623 -0.0189  0.1468
10980DDP     C365879  24.608   9.433   2.638 -0.3943 -0.0833 -0.1284
10980DDP     C465880  25.592  10.083   2.953 -0.0971  0.3485  0.1356
10981DDP     C165881  15.875  26.737  11.020 -0.2429 -0.0439 -0.1226
10981DDP     P165882  16.108  26.408  10.955 -0.1137 -0.1769  0.3330
10981DDP     P265883  15.871  27.107  11.004  0.2273  0.0458 -0.1975
10981DDP     C265884  15.792  27.373  11.376  0.0867  0.1802  0.1741
10981DDP     C365885  16.073  26.045  10.871  0.0329 -0.1800 -0.0358
10981DDP     C465886  15.586  26.514  10.962 -0.1833 -0.2620  0.1249
10982DDP     C165887  10.807  25.658   2.343 -0.2772 -0.0447  0.0857
10982DDP     P165888  10.964  25.327   2.560  0.0289  0.1473 -0.0396
10982DDP     P265889  10.636  25.553   1.984  0.0207  0.0429 -0.0791
10982DDP     C265890  10.488  25.317   1.657  0.0511  0.2283 -0.0311
10982DDP     C365891  10.901  24.872   2.663  0.1847  0.0691 -0.0265
10982DDP     C465892  10.716  26.063   2.600  0.0899  0.1972  0.0954
10983DDP     C165893  16.864  28.097  21.081 -0.2601  0.2360  0.0294
10983DDP     P165894  16.813  27.608  20.926  0.0109 -0.0384 -0.0495
10983DDP     P265895  17.142  28.424  20.674  0.0524 -0.2435 -0.4128
10983DDP     C265896  17.295  28.611  20.299  0.3318  0.2341 -0.0670
10983DDP     C365897  16.879  27.260  20.578  0.1202  0.2494 -0.2802
10983DDP     C465898  16.697  28.146  21.481 -0.0519 -0.0912 -0.0492
10984DDP     C165899  27.299  23.306  11.629  0.1785  0.0935 -0.1296
10984DDP     P165900  27.149  22.972  11.891 -0.0519  0.1495 -0.0605
10984DDP     P265901  27.450  23.164  11.219 -0.2746 -0.0449  0.1259
10984DDP     C265902  27.378  23.044  10.777  0.2023  0.1030 -0.0353
10984DDP     C365903  26.876  22.662  11.739 -0.1105 -0.3181 -0.0084
10984DDP     C465904  27.162  23.708  11.692 -0.1863 -0.2285 -0.0019
10985DDP     C165905   2.222   3.213   7.670  0.1092  0.2493  0.1384
10985DDP     P165906   2.177   3.218   8.102  0.1016  0.0476 -0.1367
10985DDP     P265907   2.087   3.583   7.493 -0.0788  0.3984 -0.1419
10985DDP     C265908   1.929   4.012   7.484 -0.0323 -0.2185  0.1896
10985DDP     C365909   2.136   2.878   8.353 -0.0986  0.1042  0.1821
10985DDP     C465910   2.368   2.861   7.478  0.0833  0.2061  0.0054
10986DDP     C165911  29.107   4.870  12.222 -0.3544  0.0082 -0.1055
10986DDP     P165912  28.836   4.950  11.746 -0.1359 -0.1242 -0.2724
10986DDP     P265913  29.642   4.700  12.194 -0.0445 -0.0477  0.0422
10986DDP     C265914  29.920   4.812  11.881 -0.1645  0.0509  0.0475
10986DDP     C365915  28.469   5.172  11.573 -0.0208 -0.0522  0.1694
10986DDP     C465916  28.952   4.997  12.537  0.1841 -0.1672  0.1732
10987DDP     C165917  13.889  28.714   1.206 -0.0325  0.0459  0.3238
10987DDP     P165918  13.684  28.228   1.004 -0.0532 -0.1535  0.3558
10987DDP     P265919  13.792  29.123   1.361  0.0998  0.0724 -0.0101
10987DDP     C265920  13.842  29.553   1.395 -0.2156 -0.2206  0.0014
10987DDP     C365921  13.408  27.897   0.827  0.1821 -0.0940 -0.0802
10987DDP     C465922  14.215  28.651   0.911  0.1261 -0.3311  0.0693
10988DDP     C165923  22.417  29.176   2.680  0.0718  0.0045 -0.2804
10988DDP     P165924  22.515  29.148   3.109 -0.1438  0.2687  0.3938
10988DDP     P265925  22.100  28.915   2.873 -0.3103  0.0834  0.0834
10988DDP     C265926  21.796  28.490   3.041  0.1734 -0.0859 -0.1592
10988DDP     C365927  22.802  28.930   3.294  0.2329  0.2376  0.0201
10988DDP     C465928  22.584  29.136   2.310  0.2074 -0.0831 -0.1625
10989DDP     C165929  21.234  29.685  14.235 -0.5693  0.1595 -0.1835
10989DDP     P165930  21.601  30.008  14.053 -0.2080 -0.3389  0.0884
10989DDP     P265931  21.317  29.321  14.307  0.1309 -0.0005 -0.0141
10989DDP     C265932  21.127  28.920  14.188 -0.1619 -0.1295 -0.0435
10989DDP     C365933  21.756  30.014  13.621 -0.0721  0.1104  0.1906
10989DDP     C465934  20.940  29.853  14.589 -0.0680 -0.0014  0.2622
10990DDP     C165935  21.858   9.354   1.689 -0.2628  0.2807  0.0628
10990DDP     P165936  22.249   9.222   1.608  0.0194 -0.3079  0.0169
10990DDP     P265937  21.487   9.260   1.423  0.2999  0.0954  0.0960
10990DDP     C265938  21.246   9.356   1.030  0.0802 -0.4677 -0.0542
10990DDP     C365939  22.422   8.779   1.411  0.0356  0.2850  0.2025
10990DDP     C465940  21.759   9.620   2.045  0.1544  0.0068  0.2220
10991DDP     C165941  24.350  29.090  18.778  0.1079 -0.4492 -0.0129
10991DDP     P165942  24.573  28.900  18.514  0.2154  0.0610  0.0207
10991DDP     P265943  24.158  28.773  18.910 -0.0034 -0.0976  0.0265
10991DDP     C265944  24.003  28.373  18.949  0.0117  0.1773 -0.1646
10991DDP     C365945  24.763  28.741  18.083 -0.2579 -0.2570  0.2854
10991DDP     C465946  24.324  29.462  19.036 -0.1285  0.0064 -0.1551
10992DDP     C165947   1.789   5.559  11.283  0.2601  0.3111  0.0076
10992DDP     P165948   1.534   5.294  11.036  0.1176 -0.0524  0.1713
10992DDP     P265949   1.695   5.847  11.614  0.3903 -0.1085 -0.0536
10992DDP     C265950   1.622   6.003  12.055  0.1277  0.2586  0.0670
10992DDP     C365951   1.491   5.036  10.724 -0.1621 -0.1547  0.1804
10992DDP     C465952   2.136   5.359  11.172 -0.1316  0.2452 -0.0572
10993DDP     C165953   6.278  21.440   5.805 -0.1420  0.0499  0.0377
10993DDP     P165954   6.168  21.637   6.247  0.2690  0.1410  0.1344
10993DDP     P265955   6.136  21.547   5.346 -0.1383 -0.0554 -0.2952
10993DDP     C265956   5.775  21.405   5.020 -0.1709 -0.2147 -0.3428
10993DDP     C365957   5.982  21.601   6.693  0.3737  0.1531  0.0519
10993DDP     C465958   6.295  20.959   5.791 -0.0949 -0.1875 -0.0620
10994DDP     C165959   4.062  29.068  18.376 -0.1466  0.1933  0.0695
10994DDP     P165960   4.222  28.955  18.837 -0.1637  0.1471  0.0193
10994DDP     P265961   4.204  29.405  18.063 -0.0953  0.0638 -0.0871
10994DDP     C265962   4.221  29.410  17.702 -0.1859 -0.0588  0.0415
10994DDP     C365963   4.544  28.699  19.090  0.0484  0.2854 -0.0688
10994DDP     C465964   3.709  28.981  18.177 -0.2409  0.2681  0.1308
10995DDP     C165965   5.892   1.336   4.385  0.1103 -0.0858 -0.0936
10995DDP     P165966   6.079   1.634   4.560  0.1252  0.1781  0.1362
10995DDP     P265967   5.797   1.005   4.555 -0.3428  0.3442 -0.0899
10995DDP     C265968   5.575   0.758   4.833 -0.0896 -0.1316  0.3405
10995DDP     C365969   6.254   1.916   4.320  0.0686 -0.3090 -0.0988
10995DDP     C465970   5.604   1.289   4.162 -0.0427  0.1103  0.1246
10996DDP     C165971  16.387   1.840  15.541 -0.0823 -0.0877  0.0240
10996DDP     P165972  16.510   1.506  15.494 -0.2565  0.0302  0.2826
10996DDP     P265973  16.353   2.167  15.222  0.1478  0.1697  0.0790
10996DDP     C265974  16.515   2.685  15.101  0.3226 -0.3106  0.4141
10996DDP     C365975  16.797   1.173  15.363  0.3089 -0.2744 -0.0692
10996DDP     C465976  16.287   1.699  15.996 -0.1303 -0.2024 -0.0476
10997DDP     C165977  14.870   7.242  29.870  0.0412 -0.3008 -0.6542
10997DDP     P165978  14.667   7.089  30.194 -0.2112  0.0506  0.0081
10997DDP     P265979  14.936   6.968  29.496  0.0341 -0.1229  0.2004
10997DDP     C265980  14.689   7.001  29.130 -0.3940 -0.0212 -0.3521
10997DDP     C365981  14.368   6.899   0.202  0.0649 -0.1091 -0.0830
10997DDP     C465982  14.974   7.687  29.803 -0.3933 -0.1299  0.0310
10998DDP     C165983  30.021   3.473   7.794  0.0968 -0.0061 -0.0355
10998DDP     P165984  29.860   3.621   7.477 -0.1022  0.0121 -0.2417
10998DDP     P265985  29.890   3.061   7.973 -0.0125 -0.0824  0.3394
10998DDP     C265986  29.652   3.122   8.293 -0.1280  0.0798 -0.0277
10998DDP     C365987  29.501   3.751   7.243  0.3214  0.2456 -0.2362
10998DDP     C465988   0.061   3.533   7.892 -0.1789  0.0536 -0.0229
10999DDP     C165989   6.062  17.891   1.691  0.4430 -0.0528 -0.1476
10999DDP     P165990   6.192  18.284   1.750 -0.5463 -0.1250  0.0109
10999DDP     P265991   6.280  17.766   1.370 -0.1486 -0.0210  0.1373
10999DDP     C265992   6.666  17.780   1.350  0.5276  0.0375  0.1064
10999DDP     C365993   6.483  18.422   2.072  0.0843  0.0971 -0.3987
10999DDP     C465994   5.753  17.510   1.805  0.1605 -0.2307 -0.1460
11000DDP     C165995  15.219  26.118  19.300  0.1541  0.1438 -0.0036
11000DDP     P165996  15.634  26.220  19.413  0.0213 -0.0102  0.1872
11000DDP     P265997  15.075  25.738  19.453  0.0282 -0.3628  0.1967
11000DDP     C265998  15.002  25.357  19.301 -0.0526 -0.1342  0.1985
11000DDP     C365999  16.109  26.354  19.553  0.1172 -0.3408 -0.0137
11000DDP     C466000  15.059  26.429  18.903 -0.0546  0.2955 -0.0203
11001DDP     C166001  17.772  27.190   7.717 -0.0566  0.1755 -0.1617
11001DDP     P166002  17.608  26.977   7.452  0.1359  0.3800  0.2715
11001DDP     P266003  17.592  27.363   8.169 -0.4497 -0.0537  0.1341
11001DDP     C266004  17.498  27.314   8.584  0.3359 -0.1669  0.0845
11001DDP     C366005  17.387  27.147   7.044 -0.1004 -0.0935 -0.2156
11001DDP     C466006  18.091  27.442   7.699  0.2027  0.0311 -0.1335
11002DDP     C166007  10.091   3.292  20.748 -0.0161 -0.0580  0.0387
11002DDP     P166008   9.727   3.148  20.973  0.0193 -0.0033  0.1035
11002DDP     P266009  10.068   3.145  20.333 -0.0190  0.0801  0.0277
11002DDP     C266010   9.845   3.169  19.967 -0.1987 -0.1640  0.0465
11002DDP     C366011   9.475   3.085  21.404  0.1987 -0.0034 -0.1132
11002DDP     C466012  10.237   3.743  20.751  0.2086  0.1741 -0.1480
11003DDP     C166013  20.069  12.091  29.055  0.2479  0.0226  0.0524
11003DDP     P166014  19.725  11.756  29.091 -0.1813 -0.0102  0.1953
11003DDP     P266015  20.337  12.049  28.758  0.1062 -0.1865  0.1470
11003DDP     C266016  20.515  11.670  28.770 -0.0804 -0.1413 -0.1388
11003DDP     C366017  19.562  11.384  29.200 -0.1754 -0.0771 -0.3357
11003DDP     C466018  20.109  12.392  29.325 -0.0243  0.4784 -0.1036
11004DDP     C166019   1.497  27.422   3.918 -0.0922 -0.0948 -0.2902
11004DDP     P166020   1.909  27.125   3.927  0.0026  0.0918 -0.0903
11004DDP     P266021   1.303  27.786   3.915  0.2748 -0.3768 -0.0312
11004DDP     C266022   1.418  28.209   3.840  0.1176 -0.2072 -0.3551
11004DDP     C366023   2.232  26.936   3.628  0.0828 -0.0760 -0.0360
11004DDP     C466024   1.145  27.171   3.649  0.0278  0.0583 -0.0080
11005DDP     C166025   6.084  10.034  29.975 -0.0674  0.2590 -0.0353
11005DDP     P166026   6.157  10.217  29.639  0.2855 -0.2662 -0.1164
11005DDP     P266027   6.311  10.119   0.016  0.0391 -0.2010 -0.4736
11005DDP     C266028   6.604  10.070   0.320  0.1798 -0.1337  0.1102
11005DDP     C366029   6.569  10.320  29.452 -0.0159 -0.0649  0.0792
11005DDP     C466030   5.743   9.764  29.983 -0.2180  0.0623 -0.1882
11006DDP     C166031  26.411   8.323   2.347 -0.0778 -0.1850 -0.0021
11006DDP     P166032  26.512   8.035   2.597 -0.0536 -0.0615  0.1019
11006DDP     P266033  26.074   8.491   2.237  0.0807 -0.1608 -0.1091
11006DDP     C266034  25.647   8.430   2.233  0.2410 -0.0467 -0.2460
11006DDP     C366035  26.638   7.836   2.972 -0.1140 -0.2485 -0.1530
11006DDP     C466036  26.558   8.343   1.995  0.1796 -0.0287  0.0896
11007DDP     C166037   0.463   4.122  15.241 -0.1443 -0.1456 -0.0953
11007DDP     P166038   0.695   4.474  15.264  0.2902  0.1855  0.1795
11007DDP     P266039   0.451   4.295  14.812 -0.2201 -0.1139  0.2944
11007DDP     C266040   0.090   4.535  14.607 -0.0890 -0.1620 -0.0378
11007DDP     C366041   0.845   4.723  15.547 -0.0002  0.0995  0.1260
11007DDP     C466042   0.081   3.983  15.424 -0.0857 -0.2994 -0.0330
11008DDP     C166043   5.835  29.959   7.498 -0.1160 -0.1195  0.1517
11008DDP     P166044   5.717  30.042   7.920  0.2723 -0.0025 -0.0238
11008DDP     P266045   5.829  -0.005   7.322 -0.0047 -0.1517  0.2175
11008DDP     C266046   5.577   0.306   7.295 -0.0430 -0.0772  0.0585
11008DDP     C366047   5.508  30.285   8.262 -0.2053  0.0190 -0.1737
11008DDP     C466048   5.830  29.568   7.367  0.2671 -0.2834  0.2638
11009DDP     C166049  15.660  14.479  18.042 -0.0255  0.2499  0.1118
11009DDP     P166050  15.646  14.741  17.730 -0.0377 -0.1046  0.4884
11009DDP     P266051  15.826  14.828  18.294  0.0805 -0.0050  0.2040
11009DDP     C266052  15.879  15.297  18.433  0.1505  0.1853 -0.0575
11009DDP     C366053  15.307  14.916  17.428 -0.2610  0.0231  0.0198
11009DDP     C466054  15.696  14.125  18.324 -0.1717 -0.2595 -0.0064
11010DDP     C166055  23.933  19.387  28.694  0.0618  0.1230 -0.0769
11010DDP     P166056  23.696  19.657  28.449  0.1936 -0.0370  0.0424
11010DDP     P266057  24.083  18.958  28.783 -0.0617  0.2136 -0.1755
11010DDP     C266058  24.521  18.609  28.785 -0.0964 -0.1536  0.0595
11010DDP     C366059  23.592  19.958  28.059 -0.1842  0.1566 -0.1652
11010DDP     C466060  23.579  19.299  28.946  0.0983  0.0385 -0.0133
11011DDP     C166061  10.518  11.596  19.986  0.0268  0.1319  0.0019
11011DDP     P166062  10.531  11.929  19.680 -0.1175 -0.3735  0.1975
11011DDP     P266063  10.889  11.629  20.210  0.1274  0.3419 -0.1287
11011DDP     C266064  11.216  11.365  20.461  0.3903 -0.0352 -0.3114
11011DDP     C366065  10.197  11.977  19.509 -0.3882 -0.2116  0.2457
11011DDP     C466066  10.386  11.148  20.026  0.1399  0.0310  0.2142
11012DDP     C166067   3.335   4.865  24.168 -0.0794 -0.0648  0.0144
11012DDP     P166068   2.985   5.033  24.026  0.0332 -0.1558 -0.1059
11012DDP     P266069   3.454   4.841  24.612  0.1962  0.1144 -0.0050
11012DDP     C266070   3.779   4.788  24.936 -0.1310 -0.0457  0.1680
11012DDP     C366071   2.556   5.344  24.048 -0.0100  0.2854 -0.1597
11012DDP     C466072   3.539   4.616  23.795 -0.3753 -0.0783 -0.2410
11013DDP     C166073   7.911   9.404   0.989 -0.0500 -0.1834  0.2364
11013DDP     P166074   7.986   9.080   0.774  0.0387  0.0386 -0.1619
11013DDP     P266075   7.875   9.905   0.723  0.1371 -0.0564 -0.0882
11013DDP     C266076   8.165  10.204   0.459 -0.0154 -0.0668 -0.0478
11013DDP     C366077   8.119   9.083   0.406 -0.3685 -0.3541 -0.2212
11013DDP     C466078   7.877   9.292   1.380 -0.0324  0.0986 -0.0776
11014DDP     C166079  15.693  21.100   9.358  0.1332 -0.0178 -0.0980
11014DDP     P166080  15.999  21.199   9.040  0.0302  0.3402  0.1683
11014DDP     P266081  15.832  20.740   9.600  0.3914 -0.0527 -0.4017
11014DDP     C266082  16.131  20.434   9.656 -0.2621 -0.0814 -0.1515
11014DDP     C366083  16.425  21.144   8.838  0.0800  0.1472  0.0546
11014DDP     C466084  15.374  21.266   9.448 -0.0598  0.1606  0.0429
11015DDP     C166085   7.224  20.914  27.610 -0.0976  0.1260 -0.0785
11015DDP     P166086   6.891  20.826  27.264  0.0529 -0.2644  0.0580
11015DDP     P266087   7.620  21.123  27.559 -0.1267 -0.0759  0.0943
11015DDP     C266088   8.027  21.076  27.568  0.1856  0.0655 -0.1937
11015DDP     C366089   6.429  20.937  27.216  0.0609 -0.2884 -0.0843
11015DDP     C466090   7.082  20.670  28.015 -0.0558 -0.0566 -0.4095
11016DDP     C166091  10.295  24.764  18.356 -0.2773  0.0181 -0.1422
11016DDP     P166092  10.404  25.087  18.139 -0.0946 -0.0405  0.1451
11016DDP     P266093   9.854  24.602  18.195 -0.0550  0.1540 -0.0695
11016DDP     C266094   9.602  24.543  17.915  0.3179  0.2882 -0.1671
11016DDP     C366095  10.258  25.153  17.785  0.1203  0.0724  0.1982
11016DDP     C466096  10.776  24.597  18.472 -0.3446  0.0963 -0.1597
11017DDP     C166097  22.094   5.285   2.472 -0.0241  0.0050  0.1414
11017DDP     P166098  22.294   5.499   2.774  0.0845  0.2707  0.2803
11017DDP     P266099  21.867   4.948   2.338 -0.0434  0.2148 -0.3661
11017DDP     C266100  21.608   4.821   1.989 -0.1159 -0.0596  0.3157
11017DDP     C366101  22.388   5.786   3.110  0.1963 -0.0817 -0.1483
11017DDP     C466102  21.781   5.668   2.383 -0.0135  0.4022  0.3268
11018DDP     C166103  23.080   3.654   9.109  0.1803 -0.0329 -0.0520
11018DDP     P166104  22.851   3.685   9.463 -0.1743  0.0119  0.0635
11018DDP     P266105  22.877   3.614   8.650 -0.1418  0.0734 -0.1656
11018DDP     C266106  22.946   3.881   8.235 -0.0473  0.0279  0.1861
11018DDP     C366107  22.722   3.552   9.903  0.0547  0.2842  0.2275
11018DDP     C466108  23.449   3.795   9.272 -0.1731  0.1166 -0.0296
11019DDP     C166109  15.761  20.194  16.041  0.1743  0.4336  0.0721
11019DDP     P166110  15.715  20.351  16.503 -0.0253  0.4168 -0.0137
11019DDP     P266111  15.755  20.468  15.764  0.0107  0.0173  0.1389
11019DDP     C266112  15.965  20.734  15.398 -0.0357 -0.0144 -0.1581
11019DDP     C366113  15.603  20.088  16.852  0.0182  0.2159 -0.0818
11019DDP     C466114  15.795  19.713  15.960 -0.1178  0.2946  0.2102
11020DDP     C166115   8.900  18.059  25.518 -0.1077 -0.0227 -0.1491
11020DDP     P166116   8.591  17.850  25.644  0.1600 -0.1899  0.4908
11020DDP     P266117   8.678  18.409  25.239 -0.3649  0.0168 -0.3138
11020DDP     C266118   8.224  18.601  25.143 -0.1833 -0.0546  0.1165
11020DDP     C366119   8.202  17.694  25.842 -0.0805  0.0343 -0.2468
11020DDP     C466120   9.222  18.140  25.853 -0.2600  0.2876  0.3864
11021DDP     C166121  16.261  15.770   6.172 -0.6136 -0.1604  0.1091
11021DDP     P166122  16.308  15.294   6.243  0.0433  0.1450 -0.0247
11021DDP     P266123  15.927  16.033   6.087  0.4801 -0.1513  0.0277
11021DDP     C266124  15.730  16.394   6.286 -0.2157 -0.0326  0.0845
11021DDP     C366125  16.669  15.144   6.495 -0.2442 -0.1464  0.1024
11021DDP     C466126  16.665  15.944   6.024 -0.1411 -0.2403 -0.1138
11022DDP     C166127  22.657   7.814   6.178  0.3002  0.2402 -0.3281
11022DDP     P166128  22.707   7.491   6.422 -0.1846 -0.1020 -0.0847
11022DDP     P266129  22.342   8.005   5.966 -0.2073 -0.0425  0.1381
11022DDP     C266130  22.256   8.313   5.666 -0.3988  0.2095 -0.0041
11022DDP     C366131  22.902   7.275   6.752  0.0140 -0.2368  0.0689
11022DDP     C466132  22.984   7.980   6.016  0.3217  0.0183  0.0218
11023DDP     C166133   2.497   8.132   0.416  0.0787  0.2247  0.1643
11023DDP     P166134   2.497   8.327   0.720  0.0634  0.1179  0.1993
11023DDP     P266135   2.525   8.439   0.187 -0.1445 -0.0369  0.2278
11023DDP     C266136   2.730   8.837   0.177  0.1229  0.1343 -0.2177
11023DDP     C366137   2.856   8.413   0.958 -0.0704  0.1089 -0.0404
11023DDP     C466138   2.283   7.739   0.327 -0.1751  0.0322 -0.2489
11024DDP     C166139  17.006  19.330   3.473 -0.0832 -0.1108 -0.0080
11024DDP     P166140  16.989  19.339   3.859  0.2184 -0.3320 -0.0629
11024DDP     P266141  16.680  19.107   3.354 -0.1577  0.1925 -0.0879
11024DDP     C266142  16.295  19.317   3.398 -0.2728 -0.1549  0.0256
11024DDP     C366143  16.839  19.582   4.292  0.1113  0.2810  0.1457
11024DDP     C466144  17.149  19.482   3.124  0.1411 -0.1688 -0.0268
11025DDP     C166145  19.825   6.696   7.966 -0.4359  0.2526 -0.1912
11025DDP     P166146  19.478   6.422   7.697  0.1808 -0.2791 -0.3111
11025DDP     P266147  20.130   7.062   7.843 -0.1176 -0.3242  0.2213
11025DDP     C266148  20.313   7.490   7.925  0.3437 -0.3881  0.0232
11025DDP     C366149  19.021   6.492   7.429  0.0077 -0.0143  0.0875
11025DDP     C466150  19.831   6.803   8.391  0.1685 -0.0141 -0.1649
11026DDP     C166151  26.843  22.093   8.113  0.2217 -0.0688  0.2941
11026DDP     P166152  26.620  22.271   8.476 -0.1413 -0.0334 -0.0886
11026DDP     P266153  26.921  21.636   8.036 -0.0021  0.0853  0.1546
11026DDP     C266154  27.150  21.378   7.637  0.0228  0.0506 -0.4301
11026DDP     C366155  26.173  22.411   8.484 -0.0718 -0.2507  0.1455
11026DDP     C466156  27.017  22.381   7.806 -0.0723 -0.1568  0.2395
11027DDP     C166157  19.656  12.471   8.270  0.0567  0.2403  0.1812
11027DDP     P166158  19.223  12.290   8.363 -0.0519  0.0786 -0.2646
11027DDP     P266159  19.906  12.049   8.275 -0.1689 -0.1329  0.3514
11027DDP     C266160  20.282  11.794   8.276 -0.0634  0.0241  0.1138
11027DDP     C366161  18.761  11.967   8.451 -0.0984  0.3558  0.0131
11027DDP     C466162  19.864  12.910   8.145 -0.1293  0.2193  0.1969
11028DDP     C166163  25.242  17.465  13.319  0.0928 -0.1940 -0.0696
11028DDP     P166164  25.329  17.838  13.498 -0.1282  0.0250 -0.2088
11028DDP     P266165  24.891  17.294  13.329  0.0303 -0.2517 -0.0213
11028DDP     C266166  24.447  17.273  13.398  0.0839  0.0170  0.0573
11028DDP     C366167  25.284  18.304  13.397  0.3386  0.2695  0.1506
11028DDP     C466168  25.464  17.350  13.144  0.1326  0.0734  0.0396
11029DDP     C166169  17.991  12.053  10.356  0.0291 -0.1029  0.0501
11029DDP     P166170  17.840  11.615  10.210  0.2815 -0.2265  0.0854
11029DDP     P266171  18.501  12.262  10.295  0.1924 -0.1040 -0.0245
11029DDP     C266172  18.827  12.472  10.035 -0.1010 -0.3996  0.1962
11029DDP     C366173  17.749  11.202  10.191  0.0930 -0.1618  0.1025
11029DDP     C466174  17.652  12.375  10.513 -0.0982  0.2771  0.0265
11030DDP     C166175  25.680  27.164   8.279  0.3477 -0.1585 -0.0303
11030DDP     P166176  25.873  27.393   8.295 -0.0375 -0.2592  0.4211
11030DDP     P266177  25.305  27.097   8.287 -0.2129  0.0985  0.2461
11030DDP     C266178  25.064  27.079   8.623 -0.1832  0.2185  0.0448
11030DDP     C366179  26.105  27.789   8.306  0.4576 -0.0002  0.1707
11030DDP     C466180  25.671  26.843   8.549 -0.2988  0.0704 -0.0994
11031DDP     C166181   5.119   8.893  30.091  0.0057  0.0176 -0.2392
11031DDP     P166182   4.955   8.614  30.184 -0.0156 -0.0106 -0.1371
11031DDP     P266183   5.047   8.795  29.697  0.0369 -0.1274  0.0030
11031DDP     C266184   4.783   8.515  29.493 -0.3199 -0.0351  0.3332
11031DDP     C366185   4.699   8.258   0.057 -0.2413  0.3427  0.2147
11031DDP     C466186   5.410   9.090  30.329 -0.2002  0.1307  0.4533
11032DDP     C166187   5.220  11.845  25.901 -0.1350 -0.0805  0.0674
11032DDP     P166188   5.116  11.583  25.864  0.0723  0.0119 -0.0900
11032DDP     P266189   5.139  12.003  26.282 -0.1871 -0.0436 -0.0826
11032DDP     C266190   4.854  12.106  26.571  0.0184 -0.1298  0.0160
11032DDP     C366191   4.712  11.601  25.704  0.2164  0.0292  0.3139
11032DDP     C466192   5.429  12.061  25.590  0.1659  0.2174 -0.0748
11033DDP     C166193  25.048  23.053   8.874 -0.4696 -0.1947  0.1271
11033DDP     P166194  25.279  22.846   8.539 -0.1818  0.1252 -0.0852
11033DDP     P266195  24.628  22.845   9.029  0.0962  0.0300  0.1020
11033DDP     C266196  24.217  22.943   8.896  0.4363  0.2049 -0.0744
11033DDP     C366197  25.445  22.429   8.362  0.1047  0.1337  0.2909
11033DDP     C466198  25.164  23.344   9.148 -0.2668  0.0551 -0.0546
11034DDP     C166199   9.970   9.225  27.737  0.0477  0.0304  0.0720
11034DDP     P166200   9.516   9.486  27.482  0.1883  0.0095  0.1869
11034DDP     P266201  10.264   9.005  27.500  0.2032  0.0615 -0.3117
11034DDP     C266202  10.506   8.633  27.342 -0.0924  0.4537 -0.0938
11034DDP     C366203   9.108   9.578  27.245 -0.2580 -0.3891  0.4246
11034DDP     C466204  10.049   9.140  28.155 -0.1656  0.0406  0.0217
11035DDP     C166205  10.239   2.020  20.109  0.1978  0.3641 -0.2499
11035DDP     P166206   9.952   1.743  20.308 -0.0768  0.0851  0.0080
11035DDP     P266207  10.632   1.874  20.131 -0.2093  0.0821  0.3744
11035DDP     C266208  11.106   1.870  20.154  0.1418 -0.3049  0.3521
11035DDP     C366209   9.682   1.335  20.547 -0.0832  0.3501  0.2166
11035DDP     C466210  10.426   2.280  19.982 -0.0033 -0.0735  0.1991
11036DDP     C166211   7.745   0.044  27.386  0.0848 -0.3227  0.2313
11036DDP     P166212   8.006  30.101  27.456  0.1545 -0.1275  0.1860
11036DDP     P266213   7.361  30.301  27.471 -0.2554  0.0852  0.0833
11036DDP     C266214   7.022   0.333  27.515 -0.0365  0.1165  0.0796
11036DDP     C366215   8.391   0.015  27.556  0.1003 -0.0667 -0.2242
11036DDP     C466216   7.923   0.488  27.266 -0.0349 -0.0063 -0.0950
11037DDP     C166217  27.226  18.171  24.680  0.3998  0.1170 -0.1320
11037DDP     P166218  27.554  18.539  24.702  0.1053  0.0660  0.2322
11037DDP     P266219  27.245  17.876  25.012  0.0413  0.1276 -0.1668
11037DDP     C266220  27.387  17.686  25.416  0.0167 -0.2068  0.2468
11037DDP     C366221  27.781  18.427  25.043  0.0842  0.2616  0.0619
11037DDP     C466222  26.958  18.166  24.332 -0.1800  0.3635 -0.0122
11038DDP     C166223   8.291  23.479   3.052 -0.1720 -0.2191 -0.1377
11038DDP     P166224   7.783  23.618   3.036 -0.3226 -0.0094  0.0543
11038DDP     P266225   8.532  23.869   3.226 -0.1794 -0.3562  0.0249
11038DDP     C266226   8.525  24.285   3.338  0.0759 -0.2786  0.0712
11038DDP     C366227   7.391  23.593   2.961 -0.0606  0.3930 -0.2127
11038DDP     C466228   8.686  23.188   2.917 -0.1259  0.0429 -0.2069
11039DDP     C166229  15.056   3.560   8.210 -0.1642  0.0810  0.1154
11039DDP     P166230  14.998   3.288   7.832  0.1481 -0.0693  0.1026
11039DDP     P266231  14.776   3.641   8.422  0.1767  0.3558 -0.1693
11039DDP     C266232  14.614   3.991   8.657  0.0424  0.3664 -0.0018
11039DDP     C366233  14.771   2.997   7.678  0.0590 -0.1889  0.3446
11039DDP     C466234  15.477   3.548   8.386 -0.0461  0.0130 -0.1967
11040DDP     C166235   5.373  16.857  26.193 -0.2579  0.0391 -0.1492
11040DDP     P166236   5.274  17.187  25.893  0.0037  0.0822  0.0474
11040DDP     P266237   5.778  16.951  26.334 -0.2432  0.2690  0.1310
11040DDP     C266238   6.140  17.045  26.637  0.1499  0.1066 -0.1423
11040DDP     C366239   5.436  17.602  25.763 -0.1423  0.0391 -0.1452
11040DDP     C466240   5.112  16.549  26.209  0.1156 -0.0965  0.2053
11041DDP     C166241  18.532  11.740  18.510  0.1358 -0.1951 -0.2173
11041DDP     P166242  18.361  11.435  18.231 -0.1134  0.1059  0.2704
11041DDP     P266243  18.878  11.532  18.753  0.2310  0.0388 -0.0573
11041DDP     C266244  19.349  11.550  19.047 -0.0559 -0.1953 -0.2755
11041DDP     C366245  18.081  11.314  17.842 -0.1401  0.2354  0.0033
11041DDP     C466246  18.261  12.139  18.258  0.1200  0.1798 -0.0538
11042DDP     C166247  15.936  15.709  15.015 -0.3029  0.2680  0.1877
11042DDP     P166248  16.084  15.482  15.399 -0.1766  0.0937 -0.1592
11042DDP     P266249  15.696  15.419  14.715 -0.0381  0.0506 -0.3034
11042DDP     C266250  15.653  15.184  14.347  0.2807  0.3691 -0.0085
11042DDP     C366251  16.381  15.553  15.797 -0.0604  0.0075  0.2879
11042DDP     C466252  16.257  15.910  14.979  0.0824  0.1026  0.0145
11043DDP     C166253  13.118   2.072  26.251  0.2584  0.3136  0.1057
11043DDP     P166254  13.299   2.457  26.344 -0.1853  0.0353 -0.1260
11043DDP     P266255  13.462   2.012  25.974 -0.3360  0.0976  0.1334
11043DDP     C266256  13.698   1.803  25.791 -0.1933  0.0538  0.0262
11043DDP     C366257  13.621   2.489  26.235  0.2638  0.3637  0.4334
11043DDP     C466258  12.649   2.042  26.173 -0.0250  0.0316  0.1278
11044DDP     C166259   6.504   7.991  24.150 -0.0649 -0.0775 -0.2057
11044DDP     P166260   6.501   7.595  23.826  0.0155 -0.4439  0.1227
11044DDP     P266261   6.599   7.796  24.563 -0.1035  0.0126  0.0392
11044DDP     C266262   6.545   7.652  25.010 -0.0225  0.0178 -0.2584
11044DDP     C366263   6.496   7.258  23.462  0.2595  0.0021 -0.1633
11044DDP     C466264   6.092   8.196  24.191 -0.1454 -0.0796  0.0599
11045DDP     C166265  17.022  19.231  29.374 -0.0283  0.2659 -0.3845
11045DDP     P166266  17.110  18.872  29.108 -0.0623  0.0618 -0.0134
11045DDP     P266267  16.887  19.643  29.209 -0.2413 -0.0854 -0.1105
11045DDP     C266268  16.912  20.116  28.994  0.2303 -0.0128  0.3607
11045DDP     C366269  17.062  18.425  29.303  0.0806 -0.1618  0.0061
11045DDP     C466270  16.852  19.157  29.804  0.3192  0.0109  0.1282
11046DDP     C166271  25.376  20.622  29.450  0.2525  0.1729  0.1013
11046DDP     P166272  25.024  20.634  29.497  0.2275 -0.2948  0.2026
11046DDP     P266273  25.456  20.300  29.208 -0.2294 -0.3608 -0.3568
11046DDP     C266274  25.677  20.257  28.948 -0.2683 -0.1842 -0.0578
11046DDP     C366275  24.566  20.526  29.652  0.0382  0.3476 -0.0910
11046DDP     C466276  25.545  21.014  29.517  0.0516 -0.0800  0.1706
11047DDP     C166277   5.402   3.872  26.060  0.0834 -0.1353 -0.1694
11047DDP     P166278   5.046   3.926  25.939 -0.2250  0.0809  0.0457
11047DDP     P266279   5.751   3.779  25.886 -0.0662 -0.3263 -0.3333
11047DDP     C266280   6.035   4.054  25.846 -0.0340  0.0738  0.2002
11047DDP     C366281   4.794   4.309  25.659  0.1487  0.1279 -0.2251
11047DDP     C466282   5.333   3.713  26.563  0.0152  0.0680 -0.0694
11048DDP     C166283  27.496   4.167  18.254  0.0152 -0.3008 -0.1827
11048DDP     P166284  27.697   4.501  18.227  0.1247 -0.0537  0.0349
11048DDP     P266285  27.605   3.999  18.621  0.3970 -0.2230  0.1696
11048DDP     C266286  27.495   3.666  18.847  0.0844  0.1110 -0.0894
11048DDP     C366287  28.070   4.646  18.416 -0.2785  0.1671 -0.1054
11048DDP     C466288  27.277   3.996  17.904 -0.3039 -0.1679 -0.0129
11049DDP     C166289   5.168   6.245  23.599 -0.4953  0.0204 -0.2092
11049DDP     P166290   5.258   6.123  24.012 -0.1392  0.1926  0.0321
11049DDP     P266291   4.887   6.016  23.362  0.3027  0.2172  0.0500
11049DDP     C266292   4.858   5.578  23.602 -0.0751  0.1442  0.0051
11049DDP     C366293   5.585   5.941  24.281 -0.0065 -0.1931 -0.1304
11049DDP     C466294   5.344   6.652  23.584  0.1670  0.0964 -0.0265
11050DDP     C166295  22.932  18.584  24.951  0.0390  0.2746 -0.2065
11050DDP     P166296  22.747  18.679  24.593  0.1321  0.6005  0.0944
11050DDP     P266297  22.895  18.218  25.085  0.0308  0.2270  0.1536
11050DDP     C266298  22.860  17.892  25.430 -0.2100 -0.2642  0.1838
11050DDP     C366299  22.710  18.357  24.292 -0.0432 -0.0122 -0.0563
11050DDP     C466300  23.292  18.845  25.161  0.1654 -0.1758 -0.2704
11051DDP     C166301  17.731  14.564  29.621  0.0301  0.2102  0.1808
11051DDP     P166302  17.627  14.854  29.285 -0.1306  0.3443  0.0875
11051DDP     P266303  17.619  14.926  29.979 -0.1051  0.1588  0.2297
11051DDP     C266304  17.890  15.363  29.941 -0.2884 -0.1415  0.4373
11051DDP     C366305  17.630  15.137  28.904  0.0877 -0.0625  0.1135
11051DDP     C466306  17.868  14.167  29.696  0.0399  0.0585  0.6239
11052DDP     C166307  22.504  10.584  24.925 -0.1812  0.1436  0.0956
11052DDP     P166308  22.468  10.882  24.569  0.1489 -0.0521 -0.3193
11052DDP     P266309  22.152  10.597  25.104  0.3194  0.1053  0.4264
11052DDP     C266310  21.794  10.792  24.848 -0.4104  0.0236  0.3881
11052DDP     C366311  22.324  10.986  24.142  0.2335  0.1169 -0.2622
11052DDP     C466312  22.641  10.171  24.995 -0.0255  0.0841  0.1448
11053DDP     C166313  13.596  26.608  21.001  0.4095  0.0098 -0.1112
11053DDP     P166314  13.411  26.351  21.264 -0.0187 -0.2888  0.2000
11053DDP     P266315  13.579  27.024  21.207  0.0011  0.0667  0.0918
11053DDP     C266316  13.196  27.091  21.093  0.0158  0.0031  0.1627
11053DDP     C366317  13.437  25.913  21.331  0.0549 -0.1084  0.0227
11053DDP     C466318  13.723  26.437  20.555 -0.0283  0.1544  0.0509
11054DDP     C166319  12.124   6.786  21.243 -0.1046 -0.1512 -0.0191
11054DDP     P166320  12.500   6.876  21.007 -0.3077  0.1282 -0.0608
11054DDP     P266321  12.092   7.137  21.484  0.3288  0.0461  0.3470
11054DDP     C266322  12.008   7.155  21.931  0.0501 -0.1162 -0.1166
11054DDP     C366323  12.865   6.641  21.051 -0.1278  0.1045 -0.3176
11054DDP     C466324  11.811   6.517  21.107 -0.3666 -0.2734 -0.0807
11055DDP     C166325  10.832   5.581  10.924 -0.3075  0.1599 -0.0487
11055DDP     P166326  10.929   6.035  11.043 -0.2417  0.0004 -0.1141
11055DDP     P266327  10.723   5.359  11.248 -0.3610 -0.0783 -0.1559
11055DDP     C266328  10.669   4.983  11.454 -0.2348  0.0934  0.3490
11055DDP     C366329  11.236   6.337  10.845  0.0504 -0.0105 -0.1127
11055DDP     C466330  10.947   5.504  10.658  0.2728  0.0930 -0.3863
11056DDP     C166331  16.349  23.616  18.291  0.1362  0.2901 -0.0382
11056DDP     P166332  16.201  23.983  18.494 -0.3159  0.2160  0.0730
11056DDP     P266333  15.906  23.539  18.147  0.1154 -0.2108  0.0654
11056DDP     C266334  15.407  23.493  18.165 -0.2816 -0.2122  0.0229
11056DDP     C366335  16.029  24.364  18.610 -0.2706 -0.2729  0.3990
11056DDP     C466336  16.666  23.340  18.214  0.0311  0.3950 -0.0619
11057DDP     C166337  24.313  12.158   8.372  0.2881 -0.1061  0.2410
11057DDP     P166338  24.543  12.620   8.374  0.1616 -0.0359  0.2590
11057DDP     P266339  24.489  11.715   8.186  0.3337 -0.0544  0.0683
11057DDP     C266340  24.441  11.668   7.718 -0.0304 -0.0793 -0.1426
11057DDP     C366341  24.606  13.096   8.396  0.1077 -0.1477 -0.0157
11057DDP     C466342  24.034  12.304   8.730  0.0560 -0.0226 -0.0328
11058DDP     C166343  29.860  22.367  27.632 -0.2316 -0.2125 -0.3128
11058DDP     P166344  29.703  21.978  27.562 -0.0256 -0.1439  0.0488
11058DDP     P266345  30.005  22.603  28.051  0.2404  0.1745 -0.0526
11058DDP     C266346  30.300  22.958  28.130  0.0969 -0.0232 -0.2527
11058DDP     C366347  29.433  21.688  27.403  0.1484  0.2825  0.0022
11058DDP     C466348  29.789  22.759  27.350  0.1072  0.3208 -0.4456
11059DDP     C166349  20.542   7.787  21.251  0.0679 -0.0423  0.1220
11059DDP     P166350  20.614   7.454  21.061 -0.1733 -0.0984  0.0720
11059DDP     P266351  20.253   8.117  21.239  0.1340  0.0051  0.1947
11059DDP     C266352  20.179   8.328  21.563 -0.3066 -0.2014  0.2951
11059DDP     C366353  20.663   7.349  20.602 -0.1780  0.1366  0.2940
11059DDP     C466354  20.932   7.941  21.401  0.2222  0.0809 -0.0618
11060DDP     C166355   5.641  12.299  17.004  0.0117  0.1709  0.4139
11060DDP     P166356   5.682  11.914  16.739 -0.0588  0.0619 -0.2698
11060DDP     P266357   5.538  12.262  17.433 -0.0667  0.0832 -0.0738
11060DDP     C266358   5.421  12.577  17.636 -0.1175 -0.1112  0.0913
11060DDP     C366359   5.792  11.739  16.359 -0.2263 -0.0838  0.0188
11060DDP     C466360   5.643  12.594  16.767 -0.0003 -0.1492  0.0556
11061DDP     C166361  24.800   2.604  22.745  0.0069  0.2451 -0.1272
11061DDP     P166362  24.351   2.613  22.852  0.0103 -0.2397  0.0860
11061DDP     P266363  24.912   2.817  22.416 -0.1834 -0.1100 -0.2505
11061DDP     C266364  24.810   3.144  22.024  0.1586 -0.2543 -0.2529
11061DDP     C366365  24.017   2.812  22.711  0.0487 -0.0526 -0.1583
11061DDP     C466366  25.012   2.418  23.067 -0.2317  0.3736  0.1059
11062DDP     C166367  26.222  29.475  17.702 -0.0729  0.0733 -0.0002
11062DDP     P166368  26.191  29.732  17.428  0.0057  0.0253 -0.0215
11062DDP     P266369  25.872  29.379  17.850 -0.1372  0.6060 -0.4500
11062DDP     C266370  25.502  29.648  17.818 -0.0488 -0.0067  0.1498
11062DDP     C366371  26.396  29.883  17.125  0.3042  0.0156  0.1535
11062DDP     C466372  26.546  29.447  17.962  0.2271  0.2199  0.0706
11063DDP     C166373   5.545  13.291   6.280 -0.0014 -0.2559  0.1787
11063DDP     P166374   5.644  13.585   5.906 -0.1736  0.1080 -0.0271
11063DDP     P266375   5.569  12.935   6.419  0.4202  0.0870 -0.0130
11063DDP     C266376   5.740  12.435   6.427  0.0377 -0.1116 -0.0444
11063DDP     C366377   5.934  13.858   5.641  0.2776  0.3132 -0.0243
11063DDP     C466378   5.306  13.438   6.624  0.1627 -0.1870  0.2244
11064DDP     C166379   7.836   2.671   1.131 -0.1867 -0.1822  0.0900
11064DDP     P166380   7.409   2.770   1.137  0.0004 -0.2772  0.1982
11064DDP     P266381   8.171   2.826   1.476 -0.3036 -0.0184  0.3640
11064DDP     C266382   8.444   3.107   1.685 -0.0331  0.1645  0.4861
11064DDP     C366383   7.050   2.688   0.904  0.2693  0.0986 -0.1543
11064DDP     C466384   8.032   2.432   0.811  0.0267  0.3330 -0.1742
11065DDP     C166385   5.782  29.009   6.441 -0.0405 -0.0999  0.2657
11065DDP     P166386   5.671  29.466   6.356  0.0749  0.1909 -0.1800
11065DDP     P266387   5.848  28.771   6.054 -0.0339 -0.0137 -0.1734
11065DDP     C266388   6.182  28.669   5.735 -0.2138  0.1339 -0.0661
11065DDP     C366389   5.323  29.697   6.265  0.0045  0.0617 -0.4227
11065DDP     C466390   5.803  28.892   6.812  0.2079 -0.0590  0.1180
11066DDP     C166391  10.788   4.969   0.473 -0.1016 -0.0553 -0.0960
11066DDP     P166392  11.074   4.653   0.638  0.3362 -0.0587  0.1371
11066DDP     P266393  10.797   5.380   0.686  0.0166  0.1117 -0.0722
11066DDP     C266394  10.847   5.855   0.706 -0.1046 -0.0464  0.3369
11066DDP     C366395  11.323   4.351   0.693  0.3413  0.0624  0.3698
11066DDP     C466396  10.630   4.904  -0.009 -0.0939 -0.0796  0.0172
11067DDP     C166397  25.164   6.970   2.084  0.1404 -0.1004 -0.1421
11067DDP     P166398  24.726   7.076   2.170  0.0338 -0.1777 -0.3914
11067DDP     P266399  25.244   7.101   1.634  0.2269  0.3733 -0.3230
11067DDP     C266400  25.358   7.182   1.286  0.1688 -0.0393 -0.0309
11067DDP     C366401  24.419   6.845   2.346 -0.0522  0.0285 -0.0735
11067DDP     C466402  25.383   6.722   2.385 -0.2190  0.1034 -0.2733
11068DDP     C166403  23.776  14.859  30.314 -0.1127  0.0694 -0.1235
11068DDP     P166404  24.016  15.013  29.907 -0.0082  0.0404  0.1325
11068DDP     P266405  23.455  14.515  30.249  0.1876  0.2280 -0.1177
11068DDP     C266406  23.278  14.217   0.007 -0.0237 -0.0164  0.0023
11068DDP     C366407  24.326  15.259  29.676  0.1735  0.4668 -0.2488
11068DDP     C466408  23.790  15.035   0.385 -0.2828  0.0297  0.1613
11069DDP     C166409   5.677   5.854  14.201  0.3030  0.0987  0.1050
11069DDP     P166410   5.909   5.784  14.587 -0.0139  0.0725 -0.1509
11069DDP     P266411   5.287   6.067  14.160 -0.6069 -0.0916  0.1303
11069DDP     C266412   4.907   6.403  14.326 -0.0766 -0.0161 -0.0463
11069DDP     C366413   6.048   5.515  14.841 -0.0047 -0.0532 -0.1145
11069DDP     C466414   5.625   5.573  13.875 -0.2058 -0.0486  0.0722
11070DDP     C166415   8.977  12.737   1.202  0.1101 -0.0123 -0.3410
11070DDP     P166416   9.275  12.531   1.088 -0.0139  0.2958 -0.2029
11070DDP     P266417   8.609  12.582   1.254 -0.1067 -0.4132 -0.2430
11070DDP     C266418   8.145  12.631   1.299 -0.0180  0.1515  0.1121
11070DDP     C366419   9.620  12.317   0.936 -0.1300 -0.2583  0.0558
11070DDP     C466420   9.016  13.200   1.460  0.2045 -0.1666  0.0583
11071DDP     C166421  26.681   7.495  30.232 -0.1983 -0.0181 -0.0126
11071DDP     P166422  26.957   7.830  30.021 -0.0341  0.1758  0.2901
11071DDP     P266423  26.428   7.324  29.915 -0.0986  0.1415 -0.0633
11071DDP     C266424  26.209   6.959  29.972 -0.1369 -0.1289 -0.0360
11071DDP     C366425  27.316   8.049  29.732  0.2134  0.2305  0.1406
11071DDP     C466426  26.596   7.480   0.310 -0.1957 -0.0336 -0.0020
11072DDP     C166427   9.423   8.511  27.809 -0.1317  0.1166  0.0434
11072DDP     P166428   9.014   8.362  28.072  0.0908  0.2606 -0.1664
11072DDP     P266429   9.417   8.959  27.539 -0.0682 -0.1839 -0.0193
11072DDP     C266430   9.116   9.122  27.150  0.0728 -0.1685 -0.1120
11072DDP     C366431   8.648   8.092  28.108 -0.1765 -0.0846 -0.2159
11072DDP     C466432   9.773   8.099  27.800  0.0421  0.1044 -0.0269
11073DDP     C166433   1.899  28.508   3.637  0.1347  0.1051 -0.3301
11073DDP     P166434   2.385  28.511   3.522 -0.0459  0.3333  0.4178
11073DDP     P266435   1.536  28.314   3.429  0.2660  0.2770  0.0484
11073DDP     C266436   1.062  28.363   3.444  0.0681 -0.2034  0.0401
11073DDP     C366437   2.651  28.898   3.509  0.2686  0.0594  0.2101
11073DDP     C466438   1.657  28.607   4.037  0.1421 -0.2025 -0.0443
11074DDP     C166439  27.633  23.256  25.036 -0.4054 -0.3525 -0.0913
11074DDP     P166440  27.412  22.935  25.194 -0.1440  0.0129  0.0233
11074DDP     P266441  27.507  23.701  24.840 -0.0922 -0.1195 -0.0823
11074DDP     C266442  27.396  24.015  24.757  0.0650  0.0223 -0.1690
11074DDP     C366443  27.003  22.796  25.029  0.0256  0.2518 -0.2681
11074DDP     C466444  28.005  23.175  24.986 -0.1174 -0.1231 -0.0387
11075DDP     C166445   9.155  16.977   8.057 -0.0952  0.2126  0.0966
11075DDP     P166446   9.594  16.767   7.968 -0.0830  0.0837  0.1224
11075DDP     P266447   9.032  16.807   8.481 -0.1997  0.0581  0.0675
11075DDP     C266448   8.841  17.030   8.860 -0.0721  0.3373  0.0026
11075DDP     C366449   9.987  16.778   8.197 -0.2035 -0.0985  0.0357
11075DDP     C466450   8.937  17.339   8.002  0.1521  0.0443 -0.2325
11076DDP     C166451   3.575  17.298   2.454  0.1408  0.2501  0.0362
11076DDP     P166452   3.206  17.049   2.425 -0.3015 -0.0965 -0.1773
11076DDP     P266453   3.855  17.346   2.673  0.1240 -0.1327  0.1929
11076DDP     C266454   4.239  17.482   2.539  0.0026 -0.0013 -0.0763
11076DDP     C366455   2.880  17.056   2.739 -0.0246 -0.0117 -0.0983
11076DDP     C466456   3.471  17.737   2.219  0.1156  0.0837 -0.1613
11077DDP     C166457  11.950   1.343  18.503  0.1037 -0.1973 -0.0125
11077DDP     P166458  11.528   1.169  18.727 -0.1034 -0.0245 -0.0345
11077DDP     P266459  12.035   1.788  18.539  0.3939 -0.0185  0.1898
11077DDP     C266460  12.115   2.023  18.158  0.3750 -0.2326 -0.0688
11077DDP     C366461  11.512   0.709  18.923 -0.2683 -0.0367  0.2689
11077DDP     C466462  12.410   1.081  18.583 -0.0751  0.0034 -0.0228
11078DDP     C166463   6.545   8.484  29.493  0.1118  0.0550  0.0061
11078DDP     P166464   6.397   8.618  29.896  0.2275  0.0065  0.1390
11078DDP     P266465   6.478   8.774  29.226 -0.2766  0.0081 -0.1854
11078DDP     C266466   6.413   9.271  29.113 -0.0772 -0.2679  0.3997
11078DDP     C366467   6.483   8.605  30.336  0.0098 -0.1489  0.3879
11078DDP     C466468   6.861   8.145  29.510 -0.1518  0.0433  0.1486
11079DDP     C166469  24.703  14.534  16.796  0.0930  0.1483  0.0665
11079DDP     P166470  24.629  14.916  17.100 -0.1731  0.1874  0.1174
11079DDP     P266471  25.129  14.380  16.823  0.2653 -0.2892 -0.0108
11079DDP     C266472  25.541  14.129  16.845  0.0169  0.1687  0.2816
11079DDP     C366473  24.275  15.018  17.399  0.0650 -0.2042 -0.0434
11079DDP     C466474  24.324  14.366  16.575  0.1469 -0.1353  0.2517
11080DDP     C166475  21.515  13.104  14.511  0.2407  0.2394 -0.0722
11080DDP     P166476  21.248  13.425  14.515 -0.1680  0.0621  0.0161
11080DDP     P266477  21.916  13.187  14.820  0.3002 -0.1880  0.1894
11080DDP     C266478  22.113  13.591  14.937 -0.4837 -0.1847 -0.1575
11080DDP     C366479  21.198  13.801  14.767 -0.1613 -0.0951  0.1363
11080DDP     C466480  21.340  12.717  14.355  0.0546 -0.1081 -0.0990
11081DDP     C166481   6.906  23.433  15.154 -0.1352  0.0683  0.0356
11081DDP     P166482   7.055  23.110  14.967  0.1705 -0.2596 -0.0926
11081DDP     P266483   6.485  23.599  14.972  0.1212 -0.1390 -0.1158
11081DDP     C266484   6.055  23.640  14.711  0.2609 -0.0218  0.1629
11081DDP     C366485   7.074  22.769  14.723 -0.0105  0.0543  0.1016
11081DDP     C466486   6.903  23.738  15.464  0.0296  0.1040 -0.0336
11082DDP     C166487  18.828  25.995  28.795  0.6104 -0.2278  0.2635
11082DDP     P166488  18.840  25.767  28.423  0.1066  0.3581 -0.1764
11082DDP     P266489  19.070  26.114  29.019 -0.0269  0.3245  0.0294
11082DDP     C266490  19.238  26.432  29.242 -0.2180  0.1237 -0.0938
11082DDP     C366491  19.122  25.643  28.073  0.1293  0.0283 -0.2172
11082DDP     C466492  18.380  26.036  28.675 -0.2526 -0.3261 -0.2208
11083DDP     C166493  28.494  19.617  29.386  0.1340  0.1140  0.0844
11083DDP     P166494  28.715  19.745  29.679 -0.0420 -0.3855  0.2446
11083DDP     P266495  28.356  19.771  29.062 -0.0168 -0.1303  0.1475
11083DDP     C266496  28.168  19.791  28.703  0.2544  0.0230 -0.0066
11083DDP     C366497  28.864  20.114  29.883  0.0447  0.0837  0.3119
11083DDP     C466498  28.164  19.533  29.557  0.1042 -0.0952  0.0598
11084DDP     C166499  18.273  19.368  11.429  0.0481  0.0067  0.0485
11084DDP     P166500  18.639  19.537  11.265  0.0712  0.2854 -0.1434
11084DDP     P266501  17.918  19.567  11.516 -0.3554  0.0833 -0.0968
11084DDP     C266502  17.595  19.894  11.537 -0.1354 -0.1629  0.0892
11084DDP     C366503  18.722  19.366  10.859 -0.0006 -0.0292 -0.1021
11084DDP     C466504  18.200  18.914  11.614 -0.1270 -0.0380 -0.2556
11085DDP     C166505  12.890   7.189   6.540  0.0839  0.0086  0.3315
11085DDP     P166506  12.766   7.607   6.591  0.2057 -0.0003 -0.2028
11085DDP     P266507  13.181   7.039   6.727  0.1823 -0.0935 -0.1455
11085DDP     C266508  13.483   6.766   6.610 -0.0227 -0.1450 -0.1174
11085DDP     C366509  12.768   7.984   6.835  0.1859  0.0881 -0.0152
11085DDP     C466510  12.615   7.021   6.204  0.1559 -0.1797  0.5089
11086DDP     C166511   3.717  12.881  21.434  0.1377 -0.2196  0.2873
11086DDP     P166512   3.521  13.028  21.129 -0.2023 -0.0174 -0.2136
11086DDP     P266513   3.563  12.603  21.647 -0.2389  0.0162  0.1109
11086DDP     C266514   3.683  12.184  21.828  0.0726 -0.1150 -0.4797
11086DDP     C366515   3.244  13.312  20.924  0.0067  0.0307 -0.0731
11086DDP     C466516   4.224  12.933  21.398  0.0657 -0.0304 -0.1842
11087DDP     C166517  27.736   4.605   6.918 -0.1309  0.2331 -0.1675
11087DDP     P166518  27.812   4.200   7.109 -0.0055  0.3871  0.0644
11087DDP     P266519  27.499   4.932   7.229  0.2634 -0.3826  0.0369
11087DDP     C266520  27.493   5.314   7.225  0.0314 -0.0232  0.2696
11087DDP     C366521  28.070   4.038   7.377 -0.1215 -0.4414  0.0083
11087DDP     C466522  27.961   4.702   6.578  0.4737 -0.1278  0.1348
11088DDP     C166523   1.796  25.876  12.049 -0.1510 -0.2838  0.1612
11088DDP     P166524   1.698  25.601  12.323  0.4158 -0.0778  0.0395
11088DDP     P266525   1.574  26.254  12.211 -0.5220 -0.0964  0.1013
11088DDP     C266526   1.516  26.562  12.469  0.2865  0.0652  0.0096
11088DDP     C366527   1.787  25.587  12.713  0.1495  0.0504 -0.0552
11088DDP     C466528   1.756  25.781  11.549 -0.0465  0.1460 -0.1453
11089DDP     C166529  12.328  27.074  19.850 -0.1056 -0.4639  0.1060
11089DDP     P166530  11.922  26.886  19.616  0.1851 -0.0729  0.3080
11089DDP     P266531  12.688  26.825  19.748  0.0940  0.2533 -0.3767
11089DDP     C266532  13.031  26.823  19.859  0.3369 -0.3588  0.1515
11089DDP     C366533  11.543  26.644  19.461  0.2765  0.1607  0.0368
11089DDP     C466534  12.358  27.463  20.175 -0.4334 -0.0321 -0.3891
11090DDP     C166535  13.936  26.574   0.452  0.1707  0.1742  0.0928
11090DDP     P166536  13.667  26.634   0.254 -0.0457  0.1407 -0.0603
11090DDP     P266537  14.155  26.939   0.428  0.1559  0.1548 -0.3522
11090DDP     C266538  14.493  27.172   0.559 -0.0441  0.2336 -0.1441
11090DDP     C366539  13.364  26.819   0.073  0.0233 -0.2187  0.0252
11090DDP     C466540  14.043  26.305   0.651  0.1783  0.0110 -0.2017
11091DDP     C166541  28.123   1.186  10.876 -0.2457  0.0969  0.1159
11091DDP     P166542  27.950   1.547  11.077  0.0010 -0.4165 -0.0600
11091DDP     P266543  28.452   1.014  10.856  0.3295 -0.2471 -0.3278
11091DDP     C266544  28.459   0.540  10.706  0.1462 -0.0396  0.1907
11091DDP     C366545  28.005   1.710  11.470  0.0045  0.3609 -0.0362
11091DDP     C466546  27.690   1.094  10.739 -0.0153 -0.0057  0.2440
11092DDP     C166547  17.921   6.744  19.990 -0.0680 -0.2052  0.1353
11092DDP     P166548  18.344   6.736  20.035 -0.1808  0.3803 -0.0806
11092DDP     P266549  17.867   7.202  20.186  0.1466  0.0362  0.4036
11092DDP     C266550  17.624   7.695  20.162  0.1083  0.0528 -0.2188
11092DDP     C366551  18.714   7.067  20.157  0.1554  0.0083 -0.2829
11092DDP     C466552  17.622   6.556  19.845  0.0371 -0.2795 -0.0974
11093DDP     C166553  23.513  19.791  22.322 -0.0113  0.2515 -0.3042
11093DDP     P166554  23.607  20.185  22.112 -0.2705 -0.1717  0.0439
11093DDP     P266555  23.828  19.635  22.418  0.1403 -0.0366 -0.1753
11093DDP     C266556  23.885  19.265  22.645  0.0561  0.0021 -0.0970
11093DDP     C366557  23.876  20.603  22.277 -0.2404  0.1601  0.1417
11093DDP     C466558  23.164  19.667  22.583 -0.1133 -0.1847  0.0238
11094DDP     C166559  14.440   8.480  26.967 -0.0989 -0.3674  0.0420
11094DDP     P166560  14.121   8.271  27.041  0.1350 -0.1769 -0.3373
11094DDP     P266561  14.256   8.890  27.066 -0.2323 -0.0008  0.0489
11094DDP     C266562  13.980   9.139  27.327 -0.2216  0.0281 -0.0153
11094DDP     C366563  14.058   8.242  27.509 -0.0119 -0.0585  0.0708
11094DDP     C466564  14.815   8.646  26.574 -0.4453  0.2239 -0.1793
11095DDP     C166565  22.948   2.843  27.816 -0.3107 -0.3837 -0.1287
11095DDP     P166566  22.671   2.799  28.197 -0.1161  0.0522  0.0858
11095DDP     P266567  23.054   2.426  27.581 -0.1962  0.1296  0.1723
11095DDP     C266568  22.912   2.020  27.445 -0.0507  0.1275 -0.0445
11095DDP     C366569  22.344   2.897  28.392  0.3150 -0.2127 -0.1451
11095DDP     C466570  23.211   3.057  27.871  0.0336  0.0980  0.1595
11096DDP     C166571   0.445  14.946   2.065  0.1139 -0.0023  0.3880
11096DDP     P166572   0.753  15.076   1.723  0.0591 -0.1840 -0.1354
11096DDP     P266573   0.055  15.203   2.204  0.3145  0.1507 -0.2566
11096DDP     C266574  29.987  15.514   2.206 -0.0008  0.3209 -0.1951
11096DDP     C366575   1.223  15.054   1.710 -0.0762 -0.1078  0.0995
11096DDP     C466576   0.578  14.568   2.173  0.1202  0.1832  0.0557
11097DDP     C166577  28.785  23.736  20.604  0.2170  0.0137  0.0893
11097DDP     P166578  28.461  23.593  20.508 -0.1324 -0.0616 -0.2307
11097DDP     P266579  29.054  23.519  20.819 -0.2211  0.1092  0.0195
11097DDP     C266580  29.402  23.297  20.701  0.2545  0.0587  0.0617
11097DDP     C366581  28.054  23.407  20.260  0.0590  0.0979 -0.0357
11097DDP     C466582  29.060  24.168  20.496 -0.0336  0.4424  0.2073
11098DDP     C166583  15.797  10.692   2.407 -0.0537 -0.1547 -0.0221
11098DDP     P166584  15.765  11.015   2.125  0.0101  0.2570 -0.3182
11098DDP     P266585  15.800  10.209   2.271  0.0676  0.0075  0.0132
11098DDP     C266586  15.996   9.990   1.858 -0.0549  0.1922  0.0176
11098DDP     C366587  15.402  11.087   1.900 -0.1099 -0.2474  0.0863
11098DDP     C466588  15.903  10.693   2.871  0.0889 -0.3696  0.1710
11099DDP     C166589  11.213   1.797  11.136  0.1291 -0.0393  0.0666
11099DDP     P166590  11.480   2.106  11.161 -0.0585  0.1272  0.3502
11099DDP     P266591  11.226   1.329  11.298 -0.1817  0.1774 -0.1922
11099DDP     C266592  11.202   0.921  11.430  0.0686 -0.1672  0.0128
11099DDP     C366593  11.923   1.900  11.083 -0.3186 -0.1418  0.0072
11099DDP     C466594  10.684   1.723  10.917  0.1569 -0.4222 -0.1747
11100DDP     C166595   4.623  20.742  10.478  0.1361  0.1021 -0.2650
11100DDP     P166596   4.743  21.102  10.198  0.1273  0.3574 -0.1498
11100DDP     P266597   4.468  20.421  10.317 -0.1846 -0.1135  0.2561
11100DDP     C266598   4.124  20.365  10.019 -0.1787  0.2758  0.0491
11100DDP     C366599   4.824  21.409   9.870  0.1358 -0.1864 -0.3949
11100DDP     C466600   4.896  20.583  10.815  0.1538  0.1226 -0.2026
11101DDP     C166601  15.725   9.046  22.382 -0.3548 -0.0985  0.1666
11101DDP     P166602  15.858   8.720  22.180 -0.0659  0.0166 -0.3271
11101DDP     P266603  15.332   9.115  22.600  0.2293  0.3494  0.0939
11101DDP     C266604  14.956   9.212  22.933  0.3798 -0.2432  0.1600
11101DDP     C366605  16.086   8.708  21.762  0.1208 -0.0321  0.1666
11101DDP     C466606  15.939   9.380  22.351 -0.3907  0.0191  0.1494
11102DDP     C166607   8.550  14.290  24.561 -0.0400 -0.2819 -0.0211
11102DDP     P166608   8.773  14.624  24.547  0.0882 -0.0687  0.0721
11102DDP     P266609   8.605  13.813  24.444  0.0447  0.1192  0.1810
11102DDP     C266610   8.692  13.330  24.381  0.0455 -0.2966 -0.2373
11102DDP     C366611   9.087  14.940  24.407  0.0645 -0.0343 -0.1456
11102DDP     C466612   8.096  14.180  24.753 -0.1751 -0.3181  0.1645
11103DDP     C166613   8.147  15.591  15.205  0.0321 -0.1814  0.1659
11103DDP     P166614   8.659  15.471  15.353  0.0111  0.0792  0.2375
11103DDP     P266615   7.954  15.820  15.625 -0.2683  0.1187 -0.2294
11103DDP     C266616   8.047  15.807  16.050  0.0203 -0.3534  0.1701
11103DDP     C366617   8.875  15.263  15.552  0.0141  0.0089  0.0171
11103DDP     C466618   7.972  15.614  14.782  0.1921 -0.0882 -0.0022
11104DDP     C166619  19.586  25.110  25.492 -0.1355 -0.0509  0.1581
11104DDP     P166620  19.430  25.162  25.855 -0.1701  0.1236  0.2499
11104DDP     P266621  19.604  25.391  25.202  0.3477 -0.0815 -0.0934
11104DDP     C266622  19.757  25.850  25.259 -0.1131  0.0886 -0.0836
11104DDP     C366623  19.128  25.065  26.014  0.2051  0.1850  0.2907
11104DDP     C466624  19.472  24.833  25.311 -0.0085  0.1868 -0.2046
11105DDP     C166625  15.624   0.497  15.520 -0.2185 -0.0970  0.1732
11105DDP     P166626  15.934   0.332  15.764 -0.1951 -0.0850 -0.0355
11105DDP     P266627  15.435   0.577  15.216 -0.1112 -0.1402  0.0688
11105DDP     C266628  15.026   0.582  15.027  0.0510 -0.4029 -0.1401
11105DDP     C366629  16.281   0.093  15.906  0.2194 -0.2434 -0.0468
11105DDP     C466630  15.298   0.609  15.814  0.0798  0.0069  0.0043
11106DDP     C166631  28.267  21.508  26.644 -0.2037  0.1629  0.1165
11106DDP     P166632  28.580  21.499  26.496 -0.0202 -0.3093  0.1766
11106DDP     P266633  28.176  21.876  26.945 -0.1867 -0.1192 -0.0022
11106DDP     C266634  28.344  22.316  26.899 -0.1514  0.0420  0.4428
11106DDP     C366635  28.895  21.142  26.365 -0.0752 -0.1237 -0.0117
11106DDP     C466636  27.887  21.223  26.660 -0.1731 -0.2705  0.2566
11107DDP     C166637  23.698  13.548  18.277  0.2112  0.0655  0.0901
11107DDP     P166638  23.735  13.697  17.814  0.0575 -0.0202  0.2140
11107DDP     P266639  23.377  13.794  18.278 -0.0067  0.0123  0.0200
11107DDP     C266640  22.967  14.012  18.255 -0.2553 -0.0891  0.0141
11107DDP     C366641  23.856  13.439  17.520 -0.2083 -0.0559  0.2294
11107DDP     C466642  23.721  13.152  18.481  0.2935  0.0386  0.3624
11108DDP     C166643  26.095  26.161  30.279 -0.0388 -0.0433  0.3425
11108DDP     P166644  26.032  26.556  30.177 -0.0534 -0.0768 -0.0986
11108DDP     P266645  25.861  25.768  30.170  0.0173  0.2277 -0.2567
11108DDP     C266646  25.492  25.614   0.009 -0.3132 -0.2120  0.2400
11108DDP     C366647  26.272  26.894  29.908  0.0668 -0.2497  0.4926
11108DDP     C466648  26.516  26.082   0.030  0.0182  0.0693 -0.0326
11109DDP     C166649  26.368  26.125  23.201  0.1539  0.1955  0.0925
11109DDP     P166650  26.065  26.151  23.516 -0.3262  0.0981  0.0442
11109DDP     P266651  26.639  26.295  23.281 -0.0207  0.0079 -0.1716
11109DDP     C266652  26.976  26.135  23.578 -0.1382  0.0057  0.1749
11109DDP     C366653  25.608  26.083  23.672  0.4350  0.1325  0.1268
11109DDP     C466654  26.260  26.028  22.803 -0.0812  0.2451 -0.1145
11110DDP     C166655  24.576  22.542  12.406  0.0273  0.0958  0.0056
11110DDP     P166656  24.844  22.235  12.677 -0.2640  0.2939  0.3630
11110DDP     P266657  24.644  22.413  11.920  0.0405 -0.2486 -0.0380
11110DDP     C266658  24.455  22.559  11.571 -0.2456  0.0218  0.2064
11110DDP     C366659  24.757  21.789  12.616 -0.0614 -0.1425 -0.2379
11110DDP     C466660  24.392  22.955  12.624  0.0561  0.1119 -0.1419
11111DDP     C166661  21.799  25.561  26.407 -0.0308  0.3972 -0.0060
11111DDP     P166662  22.066  25.327  26.253  0.1199  0.2929  0.2450
11111DDP     P266663  21.418  25.339  26.565 -0.1744 -0.0902  0.0280
11111DDP     C266664  21.128  24.957  26.595  0.1552 -0.3933 -0.1082
11111DDP     C366665  22.273  24.973  26.097 -0.0412  0.1335  0.0003
11111DDP     C466666  21.893  26.001  26.518  0.1472 -0.1241 -0.0187
11112DDP     C166667   9.792   2.882   1.937 -0.0089  0.1839 -0.2444
11112DDP     P166668   9.441   2.708   1.669 -0.0297  0.3883  0.0265
11112DDP     P266669  10.000   2.539   1.917 -0.0947  0.0273 -0.0297
11112DDP     C266670   9.985   2.165   2.117  0.1354 -0.1987  0.0946
11112DDP     C366671   9.141   2.595   1.410 -0.1182 -0.1305  0.0777
11112DDP     C466672  10.019   3.182   2.261  0.3210  0.1684 -0.0059
11113DDP     C166673   5.590   3.382  18.532  0.2277 -0.1989  0.2665
11113DDP     P166674   5.534   2.913  18.489  0.0892  0.0646  0.1124
11113DDP     P266675   6.013   3.365  18.497  0.0584  0.0041  0.3219
11113DDP     C266676   6.244   3.029  18.155 -0.4134 -0.0811 -0.1520
11113DDP     C366677   5.739   2.539  18.430  0.2335  0.0308 -0.0146
11113DDP     C466678   5.388   3.672  18.783 -0.0162 -0.3541  0.2701
11114DDP     C166679  24.209  16.687  27.572 -0.0632 -0.2278 -0.0465
11114DDP     P166680  24.249  16.607  27.117  0.0547  0.0106 -0.1653
11114DDP     P266681  24.493  16.943  27.711 -0.0176 -0.2907 -0.2663
11114DDP     C266682  24.536  17.334  27.783 -0.0061  0.2940 -0.1665
11114DDP     C366683  24.464  16.482  26.823  0.1049  0.2365 -0.0430
11114DDP     C466684  23.790  16.695  27.707  0.1535  0.0315 -0.0285
11115DDP     C166685  13.617  19.244  29.877 -0.0802 -0.0160  0.0792
11115DDP     P166686  13.326  19.443  29.721  0.0911 -0.1088  0.0391
11115DDP     P266687  13.841  19.009  29.697  0.0839 -0.1518  0.0290
11115DDP     C266688  14.180  18.750  29.620 -0.1577  0.2680 -0.1702
11115DDP     C366689  13.261  19.842  29.589 -0.0495  0.1504 -0.1509
11115DDP     C466690  13.762  19.358  30.226 -0.0219 -0.2929 -0.0381
11116DDP     C166691  16.642  18.684  19.062 -0.0263 -0.0638  0.1020
11116DDP     P166692  17.059  18.762  18.938  0.1817 -0.1604 -0.0901
11116DDP     P266693  16.509  18.707  19.536 -0.0691 -0.1415  0.1926
11116DDP     C266694  16.036  18.900  19.586 -0.3308  0.3931 -0.3560
11116DDP     C366695  17.388  18.918  19.256  0.3589  0.1482  0.1056
11116DDP     C466696  16.297  18.459  18.713 -0.2600 -0.0041 -0.0189
11117DDP     C166697   2.993  15.877  20.763  0.5050  0.4067  0.3777
11117DDP     P166698   3.363  15.597  20.608 -0.0881  0.1197 -0.0250
11117DDP     P266699   2.994  15.967  20.348 -0.2907 -0.1696 -0.1064
11117DDP     C266700   2.867  15.828  19.871 -0.0696 -0.1252 -0.1827
11117DDP     C366701   3.515  15.191  20.530  0.0386 -0.2310 -0.2362
11117DDP     C466702   2.710  15.672  20.962 -0.2257 -0.0049  0.0611
11118DDP     C166703   8.448  26.507   3.288  0.0040  0.2220  0.3967
11118DDP     P166704   8.610  26.215   2.938  0.3053 -0.0925  0.1193
11118DDP     P266705   8.567  26.666   3.717 -0.0318  0.1499 -0.4224
11118DDP     C266706   8.452  27.046   3.934 -0.0152  0.3100  0.0252
11118DDP     C366707   8.887  26.052   2.613 -0.1619  0.0784 -0.1116
11118DDP     C466708   7.895  26.645   3.317  0.2314 -0.5116  0.0932
11119DDP     C166709  18.803  18.396   6.905 -0.1465 -0.5572  0.3085
11119DDP     P166710  18.784  18.345   6.508  0.0900 -0.0968  0.2950
11119DDP     P266711  19.131  18.693   7.000 -0.2674  0.0918  0.0298
11119DDP     C266712  19.406  19.101   6.899  0.0729 -0.3189  0.0463
11119DDP     C366713  18.474  18.161   6.263 -0.0656  0.0526 -0.2168
11119DDP     C466714  18.451  18.122   7.093  0.3136  0.1246  0.2799
11120DDP     C166715   1.806  13.685  28.536 -0.0727 -0.1120 -0.0593
11120DDP     P166716   1.794  13.333  28.231  0.1073 -0.2639 -0.1999
11120DDP     P266717   2.167  13.868  28.692 -0.1490  0.0549  0.0186
11120DDP     C266718   2.542  13.936  29.024  0.1016 -0.0347 -0.2365
11120DDP     C366719   1.957  12.968  28.058  0.0676 -0.0397  0.3120
11120DDP     C466720   1.504  14.126  28.616 -0.0164  0.2300  0.0518
11121DDP     C166721  12.844  29.134  23.990  0.2372  0.0020 -0.1382
11121DDP     P166722  13.254  29.412  23.928  0.0390 -0.0980 -0.1082
11121DDP     P266723  12.477  29.280  24.133  0.1502  0.1015  0.1794
11121DDP     C266724  12.085  29.262  24.286 -0.2820  0.0495  0.1333
11121DDP     C366725  13.553  29.745  23.913 -0.2409 -0.0888  0.1649
11121DDP     C466726  12.843  28.824  23.649  0.0614  0.0959 -0.2126
11122DDP     C166727  29.761   2.977  22.099 -0.1577  0.1445 -0.0253
11122DDP     P166728  29.478   2.749  22.295  0.0440  0.0363 -0.2378
11122DDP     P266729  29.794   3.412  22.261 -0.0489 -0.1272  0.1135
11122DDP     C266730  29.973   3.486  22.681  0.3627  0.0570 -0.0313
11122DDP     C366731  29.150   2.963  22.568 -0.1826 -0.0342  0.1408
11122DDP     C466732  29.961   2.755  21.679  0.3933 -0.1824  0.1522
11123DDP     C166733  27.030  18.429  15.432  0.3108  0.1948 -0.2512
11123DDP     P166734  26.944  18.841  15.748 -0.1897 -0.0111  0.1814
11123DDP     P266735  26.864  18.221  15.057 -0.2343 -0.1180  0.0355
11123DDP     C266736  26.667  17.893  14.769 -0.0389  0.1957  0.1256
11123DDP     C366737  27.024  19.318  15.703  0.0612  0.3645 -0.0988
11123DDP     C466738  27.279  18.099  15.581  0.5542  0.3496  0.2165
11124DDP     C166739  21.261  19.183  21.449 -0.2091 -0.3068 -0.0472
11124DDP     P166740  20.980  19.159  21.902  0.2439 -0.0403 -0.0087
11124DDP     P266741  21.594  18.970  21.390 -0.0543  0.2667  0.1026
11124DDP     C266742  21.973  18.727  21.422 -0.0405 -0.2552  0.0570
11124DDP     C366743  20.716  19.138  22.195 -0.0346 -0.0977  0.2891
11124DDP     C466744  21.586  19.442  21.179  0.0634  0.0820  0.1732
11125DDP     C166745  22.974   8.611   1.483 -0.0280 -0.0824 -0.0045
11125DDP     P166746  23.161   8.873   1.750  0.0621  0.3170 -0.0267
11125DDP     P266747  23.122   8.618   1.070  0.3261 -0.0235  0.0981
11125DDP     C266748  22.968   8.568   0.546  0.0254 -0.0331  0.2891
11125DDP     C366749  23.156   9.375   1.757 -0.0182  0.0134  0.0579
11125DDP     C466750  22.704   8.286   1.634  0.0649 -0.0786 -0.1218
11126DDP     C166751   9.627  26.599  12.210 -0.2478 -0.1643 -0.2545
11126DDP     P166752   9.763  26.879  12.366 -0.3430  0.3195  0.1931
11126DDP     P266753   9.460  26.568  11.748  0.0734  0.1214 -0.0122
11126DDP     C266754   9.239  26.529  11.418  0.0756  0.3887  0.2781
11126DDP     C366755  10.078  27.293  12.259  0.1340 -0.0148 -0.2653
11126DDP     C466756   9.451  26.222  12.342  0.0656 -0.0556 -0.1676
11127DDP     C166757  17.942  14.197   4.053 -0.0528 -0.1119 -0.0285
11127DDP     P166758  18.355  14.138   4.099  0.5086  0.1206  0.0426
11127DDP     P266759  17.679  14.373   3.719  0.0487 -0.2482 -0.3911
11127DDP     C266760  17.613  14.549   3.257 -0.2407  0.0800 -0.1705
11127DDP     C366761  18.387  13.679   4.303  0.1999 -0.1253 -0.0854
11127DDP     C466762  17.764  14.113   4.350 -0.0339  0.0780 -0.0242
11128DDP     C166763  28.404  18.858   7.848  0.1970 -0.2617  0.3400
11128DDP     P166764  28.063  19.094   7.773  0.0437  0.1838 -0.1757
11128DDP     P266765  28.440  18.763   7.430 -0.0501  0.3361 -0.0369
11128DDP     C266766  28.903  18.626   7.162  0.2042  0.1480  0.0327
11128DDP     C366767  27.846  19.515   7.783 -0.0219  0.0487  0.1673
11128DDP     C466768  28.625  18.625   8.119 -0.2802  0.1237  0.1351
11129DDP     C166769  17.143  13.316  16.864 -0.1649 -0.2355  0.0174
11129DDP     P166770  17.051  12.927  16.719  0.1914 -0.0478  0.0476
11129DDP     P266771  16.772  13.599  17.043 -0.1218  0.3131  0.0270
11129DDP     C266772  16.337  13.614  17.002 -0.3438  0.0569 -0.0714
11129DDP     C366773  17.133  12.566  16.637  0.2328  0.1737 -0.0610
11129DDP     C466774  17.527  13.479  16.622 -0.3691 -0.0714 -0.2726
11130DDP     C166775   1.722  12.050  10.589 -0.0508  0.1535 -0.2056
11130DDP     P166776   1.362  11.855  10.747  0.0363 -0.0913 -0.1890
11130DDP     P266777   1.738  12.012  10.095  0.2776 -0.0327 -0.3218
11130DDP     C266778   1.547  12.419  10.122 -0.1270 -0.1726  0.5216
11130DDP     C366779   0.983  11.572  10.929 -0.1165  0.0714  0.0518
11130DDP     C466780   1.952  12.376  10.881 -0.1598  0.2415 -0.1326
11131DDP     C166781  27.351   7.855   1.479  0.0572 -0.0462 -0.2050
11131DDP     P166782  27.280   8.220   1.375 -0.2289  0.3382  0.2012
11131DDP     P266783  27.197   7.554   1.820 -0.0887 -0.2073 -0.5726
11131DDP     C266784  26.810   7.373   1.805  0.0879 -0.0346 -0.3464
11131DDP     C366785  27.481   8.665   1.393 -0.1855  0.1382  0.2137
11131DDP     C466786  27.869   7.750   1.280  0.0099  0.0649 -0.1074
11132DDP     C166787   1.555  10.005  11.782 -0.2283 -0.0603 -0.0425
11132DDP     P166788   1.957   9.842  11.827  0.2565  0.3551 -0.0302
11132DDP     P266789   1.321  10.351  11.917  0.0825  0.0649 -0.0482
11132DDP     C266790   1.327  10.790  11.998 -0.0796  0.2165  0.0630
11132DDP     C366791   2.509   9.639  12.032  0.2427  0.1783  0.0018
11132DDP     C466792   1.230   9.829  11.556 -0.0029  0.0785  0.2438
11133DDP     C166793  16.454  19.841   9.994  0.4601 -0.1882  0.1771
11133DDP     P166794  16.661  20.161  10.080 -0.1726  0.0558 -0.1281
11133DDP     P266795  16.102  19.777  10.329 -0.1710  0.0531 -0.0467
11133DDP     C266796  16.061  19.599  10.801  0.1623 -0.2159  0.0587
11133DDP     C366797  17.080  20.347  10.051 -0.1082  0.3098 -0.0566
11133DDP     C466798  16.621  19.460   9.825  0.0533  0.0960 -0.5278
11134DDP     C166799  19.905  19.876  17.326 -0.0275 -0.0649  0.3065
11134DDP     P166800  19.683  20.283  17.382 -0.0290  0.0941  0.1949
11134DDP     P266801  19.813  19.523  17.045  0.0335 -0.2090  0.0569
11134DDP     C266802  19.695  19.213  16.881  0.1148 -0.1515 -0.0948
11134DDP     C366803  19.234  20.592  17.262  0.3100 -0.0237 -0.3542
11134DDP     C466804  20.345  19.863  17.234  0.0512  0.1746  0.3043
11135DDP     C166805   1.062  10.199  24.396  0.3049 -0.0422 -0.3147
11135DDP     P166806   0.970  10.252  23.953  0.2405  0.0618 -0.2116
11135DDP     P266807   1.410  10.392  24.598 -0.0364 -0.1087 -0.3147
11135DDP     C266808   1.690  10.586  24.927 -0.1344 -0.0184  0.0221
11135DDP     C366809   0.712  10.104  23.659 -0.3985  0.0605  0.0980
11135DDP     C466810   0.872   9.796  24.586  0.0050 -0.1484  0.0568
11136DDP     C166811   5.767  19.701  10.142 -0.1837 -0.0772  0.0967
11136DDP     P166812   5.682  19.819   9.785 -0.0775  0.0447 -0.0401
11136DDP     P266813   5.988  19.955  10.282 -0.2336 -0.3433 -0.1367
11136DDP     C266814   6.067  20.461  10.365  0.0419 -0.0829 -0.0804
11136DDP     C366815   6.010  19.671   9.565 -0.1603 -0.1259 -0.2285
11136DDP     C466816   5.698  19.346  10.466  0.0136  0.1926  0.1519
11137DDP     C166817  29.451  16.943   9.086  0.1110 -0.4071  0.0826
11137DDP     P166818  29.304  17.283   9.009  0.0788 -0.0794 -0.2329
11137DDP     P266819  29.632  16.815   8.681  0.3936  0.1654 -0.2124
11137DDP     C266820  29.709  17.102   8.347  0.1579 -0.0024  0.0098
11137DDP     C366821  28.952  17.541   9.085  0.0376 -0.3326  0.0788
11137DDP     C466822  29.574  16.870   9.486  0.2114  0.1335  0.0569
11138DDP     C166823  23.155   9.965   7.948  0.1399  0.0488  0.1038
11138DDP     P166824  23.456   9.812   7.661  0.3239  0.0884 -0.2394
11138DDP     P266825  22.900   9.891   7.614  0.2176 -0.1519  0.2946
11138DDP     C266826  22.701   9.760   7.260 -0.0434  0.0844  0.0142
11138DDP     C366827  23.829   9.614   7.628 -0.1209  0.0826 -0.3034
11138DDP     C466828  23.252  10.165   8.256 -0.0859  0.0690 -0.0748
11139DDP     C166829  14.561  10.826  28.658  0.0367  0.1438 -0.1933
11139DDP     P166830  14.386  10.654  28.291 -0.1347  0.0639 -0.0163
11139DDP     P266831  14.805  10.555  28.830 -0.1372 -0.1138  0.1156
11139DDP     C266832  15.095  10.373  28.880 -0.0246  0.0987  0.0534
11139DDP     C366833  14.133  10.572  27.931  0.1012 -0.1640  0.0720
11139DDP     C466834  14.551  11.309  28.801  0.1848 -0.0864  0.0989
11140DDP     C166835   0.240   1.128   2.949 -0.2453 -0.0204  0.0107
11140DDP     P166836   0.139   0.964   2.528  0.1104  0.1997 -0.0815
11140DDP     P266837   0.684   0.954   3.054 -0.4060  0.1070 -0.0904
11140DDP     C266838   1.006   0.743   3.119  0.1070 -0.1824 -0.0135
11140DDP     C366839  30.170   0.956   2.216  0.1152  0.0554 -0.1995
11140DDP     C466840   0.020   1.025   3.224 -0.1172 -0.1970 -0.1317
11141DDP     C166841   0.258  25.106   8.827  0.1703  0.1440  0.1626
11141DDP     P166842   0.081  25.343   9.126  0.1640 -0.1277 -0.1644
11141DDP     P266843   0.398  24.747   8.900  0.0096 -0.2948  0.0283
11141DDP     C266844   0.527  24.398   8.704 -0.0405  0.3502 -0.0996
11141DDP     C366845  30.045  25.530   9.370 -0.1528  0.0604  0.0569
11141DDP     C466846   0.335  25.372   8.531 -0.2533  0.1457 -0.1233
11142DDP     C166847   0.051   7.101   3.310  0.0988 -0.1538 -0.1689
11142DDP     P166848  30.225   6.993   2.992 -0.2810  0.0956  0.1532
11142DDP     P266849  30.139   7.416   3.545  0.0267 -0.0756  0.3138
11142DDP     C266850  29.886   7.817   3.417 -0.1400  0.0746  0.1877
11142DDP     C366851  -0.076   7.297   2.581 -0.3949  0.0726  0.2730
11142DDP     C466852   0.427   6.959   3.542  0.2923 -0.1938  0.2008
11143DDP     C166853  15.783  24.898   9.615 -0.0538 -0.1952  0.2525
11143DDP     P166854  15.931  25.301   9.340  0.2209 -0.2646 -0.0142
11143DDP     P266855  15.889  24.593   9.272 -0.0435  0.2458  0.0390
11143DDP     C266856  16.164  24.395   9.079 -0.2726 -0.2924 -0.3071
11143DDP     C366857  15.570  25.384   9.111 -0.2790 -0.1980  0.1186
11143DDP     C466858  15.928  24.670   9.951  0.0981  0.0360 -0.0019
11144DDP     C166859  25.255  23.091  16.228  0.2010  0.1017 -0.0690
11144DDP     P166860  25.238  23.370  15.960  0.1114  0.0001  0.2014
11144DDP     P266861  25.631  22.828  16.262 -0.2069 -0.3095  0.0558
11144DDP     C266862  25.648  22.508  15.957  0.1205  0.2818  0.4274
11144DDP     C366863  25.488  23.631  15.713  0.2508  0.0469 -0.0541
11144DDP     C466864  24.897  22.920  16.351  0.1681  0.1149 -0.1704
11145DDP     C166865  11.489   5.975   7.617  0.0506  0.0510  0.0993
11145DDP     P166866  11.945   5.901   7.877  0.0978  0.0917  0.0616
11145DDP     P266867  11.245   6.309   7.577 -0.2285 -0.1272 -0.1022
11145DDP     C266868  11.339   6.626   7.254 -0.4068 -0.0462 -0.1579
11145DDP     C366869  12.321   6.034   8.251  0.0639  0.1043  0.0221
11145DDP     C466870  11.485   5.815   7.123  0.5453  0.4066 -0.0487
11146DDP     C166871  14.068   4.089  21.600 -0.1715 -0.1203  0.0177
11146DDP     P166872  13.830   4.170  21.298  0.3560  0.1239  0.2779
11146DDP     P266873  14.474   4.317  21.663 -0.0018  0.2205  0.2814
11146DDP     C266874  14.259   4.687  21.557 -0.2666 -0.0611  0.1199
11146DDP     C366875  13.480   4.206  20.912  0.2784  0.1716  0.1741
11146DDP     C466876  13.846   3.896  21.881 -0.2070 -0.1165  0.0220
11147DDP     C166877  11.198  12.609  12.346 -0.0604  0.1011 -0.0029
11147DDP     P166878  11.025  12.718  12.696  0.0309 -0.1680 -0.0177
11147DDP     P266879  11.000  12.949  12.148 -0.1053  0.1541  0.0409
11147DDP     C266880  10.599  12.911  11.939  0.1308 -0.0632  0.0828
11147DDP     C366881  10.841  13.186  12.730 -0.2510 -0.0741 -0.2930
11147DDP     C466882  11.528  12.300  12.391  0.2866  0.1291  0.0760
11148DDP     C166883  21.007  13.554  23.900  0.2541 -0.1781  0.1135
11148DDP     P166884  20.574  13.568  23.834  0.1288 -0.1470 -0.1670
11148DDP     P266885  21.277  13.661  23.662 -0.0571  0.0323 -0.2018
11148DDP     C266886  21.371  13.494  23.257  0.2214 -0.0679  0.1299
11148DDP     C366887  20.402  13.474  23.339 -0.1417 -0.0085 -0.1382
11148DDP     C466888  21.130  13.395  24.283 -0.2674  0.0238 -0.2742
11149DDP     C166889  17.237   3.289   9.112  0.2117  0.2664  0.0042
11149DDP     P166890  16.923   3.491   9.286 -0.1205  0.2518 -0.1979
11149DDP     P266891  17.258   2.966   9.332 -0.1083 -0.0338 -0.1715
11149DDP     C266892  17.695   2.790   9.439  0.0373 -0.0014  0.0236
11149DDP     C366893  16.574   3.627   9.611 -0.2080  0.0551  0.1289
11149DDP     C466894  17.505   3.302   8.717 -0.0262  0.0969 -0.1626
11150DDP     C166895   7.331  20.183   2.769 -0.1483  0.0373 -0.2073
11150DDP     P166896   7.301  20.158   3.227  0.1374  0.0918  0.0731
11150DDP     P266897   7.346  19.837   2.553  0.0530  0.0219  0.1185
11150DDP     C266898   7.412  19.503   2.222  0.1075  0.2343  0.1397
11150DDP     C366899   7.473  20.154   3.662 -0.3781  0.1406 -0.1695
11150DDP     C466900   7.592  20.549   2.617 -0.0735 -0.4274  0.1613
11151DDP     C166901  22.421  19.387  24.242 -0.1211  0.2560  0.1712
11151DDP     P166902  22.448  19.207  24.643  0.0365  0.1327  0.2388
11151DDP     P266903  22.455  19.790  24.265 -0.0020  0.0941  0.0332
11151DDP     C266904  22.622  20.222  24.243  0.3002 -0.0660  0.2205
11151DDP     C366905  22.738  19.116  25.021  0.1500 -0.2302  0.1202
11151DDP     C466906  22.366  19.211  23.906 -0.0540  0.0849 -0.2859
11152DDP     C166907  26.376  21.634   9.696 -0.2971 -0.2630  0.1010
11152DDP     P166908  26.064  21.694   9.887  0.3123  0.0547 -0.0973
11152DDP     P266909  26.152  21.490   9.376 -0.1207  0.1658  0.1774
11152DDP     C266910  25.748  21.823   9.196  0.0314 -0.1156 -0.1040
11152DDP     C366911  25.751  21.541  10.231 -0.2913 -0.3418  0.1330
11152DDP     C466912  26.738  21.534   9.784 -0.1862  0.1485 -0.4598
11153DDP     C166913   4.979  30.347  11.587 -0.1643  0.2246 -0.1558
11153DDP     P166914   4.699   0.388  11.798 -0.1730  0.3722  0.0212
11153DDP     P266915   5.382   0.280  11.573  0.4138  0.2613 -0.0706
11153DDP     C266916   5.816   0.337  11.430 -0.0046 -0.0277 -0.2320
11153DDP     C366917   4.546   0.742  11.609  0.0816 -0.2326 -0.1468
11153DDP     C466918   5.061  29.857  11.660  0.3911 -0.0281  0.1875
11154DDP     C166919   5.477  14.539  28.841  0.0924  0.1260 -0.1891
11154DDP     P166920   5.766  14.688  28.792  0.1340 -0.1469  0.1143
11154DDP     P266921   5.215  14.917  28.785  0.1304 -0.1010  0.0377
11154DDP     C266922   5.121  15.332  29.042 -0.0047 -0.2202 -0.2066
11154DDP     C366923   6.261  14.756  28.599  0.3768 -0.0790 -0.1460
11154DDP     C466924   5.354  14.139  28.864  0.1210 -0.3283  0.3409
11155DDP     C166925  12.505   2.945   5.439  0.2928 -0.2470 -0.1894
11155DDP     P166926  12.865   2.726   5.278  0.0736 -0.1528  0.1819
11155DDP     P266927  12.508   2.835   5.968 -0.2980 -0.2765  0.0506
11155DDP     C266928  12.455   2.691   6.334  0.1235 -0.0592  0.0311
11155DDP     C366929  13.121   2.583   4.961  0.0045  0.0546  0.1428
11155DDP     C466930  12.197   3.243   5.286  0.1809  0.2638 -0.3294
11156DDP     C166931  11.699  12.680  29.093  0.0454 -0.1418 -0.1725
11156DDP     P166932  12.083  12.771  28.865 -0.0770  0.3920 -0.0791
11156DDP     P266933  11.418  12.362  28.942  0.0919  0.3212 -0.3691
11156DDP     C266934  11.005  12.135  29.001  0.0014  0.0029  0.0969
11156DDP     C366935  12.335  12.531  28.777 -0.2238 -0.2091 -0.0250
11156DDP     C466936  11.493  12.915  29.290  0.2510  0.1135 -0.2110
11157DDP     C166937   4.102  21.954  12.203  0.4616 -0.0256  0.1346
11157DDP     P166938   3.909  21.946  11.840  0.0795 -0.3135  0.2654
11157DDP     P266939   4.142  21.550  12.373  0.1106  0.0405 -0.0889
11157DDP     C266940   4.491  21.259  12.515  0.0668 -0.0217 -0.0047
11157DDP     C366941   3.469  22.038  11.688  0.0434 -0.0024 -0.2466
11157DDP     C466942   4.349  22.294  12.308 -0.0757 -0.0190  0.1221
11158DDP     C166943  20.024  21.497  18.363  0.0397 -0.0585 -0.1639
11158DDP     P166944  20.128  21.853  18.291 -0.0242  0.2421 -0.1151
11158DDP     P266945  19.633  21.635  18.571 -0.1781  0.4587  0.1207
11158DDP     C266946  19.470  21.662  18.925 -0.0570  0.0569  0.2671
11158DDP     C366947  20.225  22.320  18.378 -0.2284  0.1356 -0.0147
11158DDP     C466948  20.136  21.124  18.409  0.0628 -0.1456 -0.0573
11159DDP     C166949  23.130  16.250  20.634 -0.0085  0.0794  0.0579
11159DDP     P166950  23.035  16.336  20.191  0.4460  0.0675  0.0624
11159DDP     P266951  23.354  15.894  20.888  0.1074 -0.1663 -0.0939
11159DDP     C266952  23.531  15.627  21.182 -0.1059 -0.1177  0.0405
11159DDP     C366953  23.041  16.331  19.824  0.0603  0.1668 -0.2030
11159DDP     C466954  22.936  16.511  20.854 -0.0819 -0.1057 -0.1788
11160DDP     C166955  10.233  16.728  23.768  0.0388 -0.2858  0.1398
11160DDP     P166956  10.171  16.762  23.350  0.2031  0.0043  0.1573
11160DDP     P266957  10.619  16.938  23.841 -0.1231 -0.0844  0.1023
11160DDP     C266958  10.854  17.136  24.219  0.1326 -0.1435  0.1209
11160DDP     C366959  10.336  17.104  22.981 -0.0029  0.0564  0.1243
11160DDP     C466960  10.005  16.476  24.083 -0.1777  0.1189  0.0370
11161DDP     C166961   3.195   5.030  23.179 -0.2222  0.4610 -0.0225
11161DDP     P166962   3.027   5.131  23.535 -0.0158 -0.0844 -0.0882
11161DDP     P266963   3.489   5.284  23.228  0.3390  0.1456  0.0285
11161DDP     C266964   3.903   5.567  23.203 -0.0925 -0.1467  0.0473
11161DDP     C366965   2.653   5.242  23.569  0.0510 -0.0568 -0.3773
11161DDP     C466966   3.000   4.690  22.830 -0.1948 -0.1153  0.0524
11162DDP     C166967  14.976  25.295   2.796 -0.1567  0.0208 -0.1560
11162DDP     P166968  15.220  24.950   2.924  0.1446 -0.3710  0.2128
11162DDP     P266969  14.981  25.561   2.510 -0.0811  0.0564  0.0203
11162DDP     C266970  14.756  25.798   2.103  0.0045 -0.2344 -0.1571
11162DDP     C366971  15.462  24.591   3.113 -0.0916  0.0872 -0.0289
11162DDP     C466972  14.683  25.218   3.145 -0.2152  0.3921  0.2928
11163DDP     C166973  25.305  14.350   0.429  0.0517 -0.1494 -0.0786
11163DDP     P166974  25.552  14.529   0.775  0.1082  0.0507  0.5710
11163DDP     P266975  24.940  14.220   0.679 -0.2256  0.0772  0.1806
11163DDP     C266976  24.530  14.359   0.898  0.0407  0.0302  0.0376
11163DDP     C366977  25.843  14.338   1.114 -0.0636 -0.0684 -0.2507
11163DDP     C466978  25.584  14.098   0.145 -0.4100 -0.0708  0.0650
11164DDP     C166979  29.415  28.483  19.680 -0.2320  0.0710  0.0096
11164DDP     P166980  29.379  28.050  19.699 -0.0158 -0.2030 -0.0249
11164DDP     P266981  29.232  28.620  19.402 -0.0543 -0.2245  0.0620
11164DDP     C266982  29.012  28.803  19.057  0.1399 -0.2747  0.0773
11164DDP     C366983  29.179  27.673  19.900 -0.1619  0.0953  0.1720
11164DDP     C466984  29.700  28.809  19.948 -0.1339  0.0899  0.2233
11165DDP     C166985  24.784  22.200  11.459 -0.1914 -0.1807 -0.1989
11165DDP     P166986  25.175  22.428  11.677 -0.0302  0.2563  0.1041
11165DDP     P266987  24.455  21.997  11.680  0.2687  0.2169 -0.2170
11165DDP     C266988  24.019  21.778  11.722  0.1777 -0.0808 -0.1949
11165DDP     C366989  25.406  22.869  11.621  0.1455 -0.0704 -0.2247
11165DDP     C466990  24.590  22.307  11.120 -0.1020  0.1915  0.0125
11166DDP     C166991   9.003  22.504  27.707 -0.2591 -0.2494 -0.0419
11166DDP     P166992   9.261  22.588  27.316  0.0709  0.1631  0.1931
11166DDP     P266993   8.826  22.101  27.878 -0.1322  0.0280 -0.0018
11166DDP     C266994   8.647  21.697  27.664  0.3083 -0.1821 -0.1917
11166DDP     C366995   9.142  22.653  26.896 -0.2559 -0.0631  0.1924
11166DDP     C466996   8.757  22.831  27.831  0.0688 -0.1269  0.0138
11167DDP     C166997   6.815   9.485  30.106  0.2328  0.3807  0.0539
11167DDP     P166998   6.584   9.573   0.083 -0.2449 -0.0097 -0.2000
11167DDP     P266999   7.242   9.592  30.034  0.0093 -0.0156  0.0897
11167DDP     C267000   7.733   9.766  30.113 -0.0565  0.1011  0.1106
11167DDP     C367001   6.130   9.689   0.068  0.1165  0.0872 -0.4466
11167DDP     C467002   6.700   9.107  29.981  0.1299  0.0367 -0.0841
11168DDP     C167003   2.985  12.150  21.284 -0.1086 -0.2345 -0.4867
11168DDP     P167004   2.599  12.405  21.325  0.2424 -0.1067 -0.0775
11168DDP     P267005   3.340  12.426  21.061  0.0860 -0.2481  0.0108
11168DDP     C267006   3.686  12.569  21.043 -0.1597 -0.0165  0.0541
11168DDP     C367007   2.377  12.800  21.411  0.0687  0.0735 -0.4010
11168DDP     C467008   3.148  11.764  21.426 -0.0554 -0.0811  0.1247
11169DDP     C167009  30.094  28.225  23.404  0.3566  0.2160 -0.0908
11169DDP     P167010   0.184  28.257  23.607 -0.1225 -0.2971  0.0211
11169DDP     P267011  29.768  27.884  23.259  0.1380  0.3752  0.0716
11169DDP     C267012  29.804  27.457  23.102 -0.1594 -0.0637  0.0372
11169DDP     C367013   0.379  27.959  23.594  0.0861 -0.1841 -0.1153
11169DDP     C467014  29.989  28.625  23.407 -0.0517 -0.2004 -0.1000
11170DDP     C167015   6.787   6.162   8.503  0.3382 -0.2944 -0.0539
11170DDP     P167016   7.091   6.013   8.758  0.3677 -0.2095 -0.2059
11170DDP     P267017   6.480   6.474   8.608 -0.0006 -0.2771  0.0006
11170DDP     C267018   6.055   6.450   8.429 -0.2634 -0.0216  0.0842
11170DDP     C367019   7.496   6.119   9.054  0.2634  0.0653  0.1993
11170DDP     C467020   6.805   6.020   8.065 -0.4990  0.0709  0.1269
11171DDP     C167021  30.069  10.577   7.268  0.1863  0.0388 -0.0017
11171DDP     P167022  30.171  10.733   6.912 -0.2677  0.1380 -0.2573
11171DDP     P267023  30.224  10.651   7.604 -0.2406  0.1700 -0.1187
11171DDP     C267024   0.083  10.366   7.874  0.1714 -0.0730  0.1376
11171DDP     C367025  30.050  10.528   6.482  0.1858  0.1226  0.4081
11171DDP     C467026  29.650  10.471   7.339  0.0540 -0.1386  0.2750
11172DDP     C167027   0.875   2.404   3.343 -0.2882  0.1757  0.1591
11172DDP     P167028   0.541   2.339   3.166  0.0163  0.0880  0.1526
11172DDP     P267029   1.060   2.588   3.725  0.1046 -0.0665 -0.1039
11172DDP     C267030   0.989   2.817   4.202  0.5863  0.2954  0.0295
11172DDP     C367031   0.200   2.109   2.913  0.0335  0.0336 -0.0898
11172DDP     C467032   1.059   2.335   3.008  0.0482  0.2862  0.1440
11173DDP     C167033  10.212   0.223  17.666 -0.0363  0.0151 -0.1599
11173DDP     P167034   9.970   0.604  17.602 -0.2090 -0.0659 -0.1117
11173DDP     P267035  10.409   0.107  18.072 -0.0479  0.0136  0.2149
11173DDP     C267036  10.403   0.378  18.333  0.1167  0.4160 -0.0662
11173DDP     C367037   9.645   0.798  17.535  0.1984  0.0892 -0.0254
11173DDP     C467038  10.544  30.324  17.365 -0.1605  0.3665 -0.2024
11174DDP     C167039  13.544  30.106  17.693 -0.1790  0.2438  0.1317
11174DDP     P167040  13.691  29.837  17.332  0.2047  0.2860  0.2946
11174DDP     P267041  13.781   0.184  17.588  0.0925  0.0885 -0.1996
11174DDP     C267042  13.963   0.393  17.318 -0.0718  0.1938 -0.2076
11174DDP     C367043  13.631  29.769  16.833  0.0865 -0.1463 -0.2624
11174DDP     C467044  13.174  29.909  17.972 -0.0161  0.3458  0.1184
11175DDP     C167045  22.246  15.041   9.507  0.4311  0.1566 -0.0995
11175DDP     P167046  22.218  14.674   9.818 -0.1257 -0.0133 -0.0186
11175DDP     P267047  22.279  15.538   9.697 -0.0761  0.2825 -0.1707
11175DDP     C267048  22.633  15.855   9.686 -0.1426  0.0865  0.0931
11175DDP     C367049  22.274  14.634  10.261 -0.0363 -0.0278 -0.2748
11175DDP     C467050  22.205  15.056   9.082 -0.1415 -0.0404 -0.1641
11176DDP     C167051   9.351  23.627   2.676  0.2988 -0.0396  0.0634
11176DDP     P167052   9.246  23.335   3.011 -0.0359  0.1605  0.0396
11176DDP     P267053   9.633  23.891   2.653  0.1395 -0.1477  0.0228
11176DDP     C267054  10.108  23.960   2.756 -0.2265 -0.0375 -0.1953
11176DDP     C367055   8.995  23.029   3.260  0.2598 -0.1797 -0.1976
11176DDP     C467056   9.034  23.448   2.294  0.0116  0.0222  0.0076
11177DDP     C167057  14.178  30.159  11.909  0.1702  0.2260 -0.1062
11177DDP     P167058  14.642  30.283  11.830 -0.1358 -0.1770  0.0229
11177DDP     P267059  13.937  29.814  11.776 -0.0213 -0.2970  0.0084
11177DDP     C267060  13.822  29.460  11.891 -0.2848  0.0277 -0.2372
11177DDP     C367061  15.113   0.103  11.896  0.0527 -0.1022 -0.2088
11177DDP     C467062  14.030  -0.003  12.257 -0.1498 -0.0962  0.0588
11178DDP     C167063   5.696   4.906  29.525 -0.2219  0.1545  0.0486
11178DDP     P167064   5.927   4.601  29.291  0.1132  0.0590  0.1957
11178DDP     P267065   5.699   5.301  29.317 -0.1730  0.1264  0.1875
11178DDP     C267066   6.049   5.650  29.327  0.2136  0.2334  0.0795
11178DDP     C367067   6.171   4.545  29.040 -0.1908 -0.1044 -0.5648
11178DDP     C467068   5.605   4.817  29.923  0.2162  0.1634  0.3214
11179DDP     C167069  23.040  17.207  15.947 -0.3464 -0.2541 -0.1339
11179DDP     P167070  23.206  17.388  16.391 -0.1708  0.0098  0.0628
11179DDP     P267071  23.452  16.943  15.764 -0.2645 -0.2274 -0.2933
11179DDP     C267072  23.687  16.433  15.898 -0.0241 -0.2053 -0.0764
11179DDP     C367073  23.519  17.587  16.478 -0.1354  0.1226 -0.1538
11179DDP     C467074  22.683  17.389  15.986 -0.1594 -0.1920  0.2496
11180DDP     C167075  18.843  24.880   1.878  0.2479 -0.0381 -0.0046
11180DDP     P167076  18.806  24.682   2.221 -0.1227  0.2026  0.3887
11180DDP     P267077  18.472  25.175   1.881  0.0810  0.3355 -0.3239
11180DDP     C267078  18.059  25.204   1.921 -0.0936  0.3958 -0.0101
11180DDP     C367079  18.938  24.542   2.633 -0.2406  0.2633  0.0119
11180DDP     C467080  19.088  24.936   1.482  0.0725 -0.4375  0.1413
11181DDP     C167081  18.762   7.348  28.513 -0.1228  0.1319  0.5020
11181DDP     P167082  18.500   6.958  28.481 -0.2017  0.0701 -0.2515
11181DDP     P267083  18.334   7.551  28.626 -0.0005 -0.0030  0.1183
11181DDP     C267084  17.980   7.430  28.821  0.1114 -0.0769  0.0659
11181DDP     C367085  18.270   6.546  28.587 -0.1812 -0.1144  0.3824
11181DDP     C467086  19.085   7.524  28.627 -0.1371  0.0018  0.3433
11182DDP     C167087  29.782  16.178   2.324 -0.0064  0.2009 -0.0593
11182DDP     P167088  29.975  16.499   2.549  0.0867  0.1926 -0.2030
11182DDP     P267089  29.406  16.258   2.172 -0.0084 -0.0776 -0.2289
11182DDP     C267090  29.140  16.549   1.871 -0.1601  0.1335  0.0364
11182DDP     C367091  29.943  16.705   2.926 -0.1283  0.0531 -0.0458
11182DDP     C467092  29.904  15.869   2.561  0.0961  0.3639  0.2317
11183DDP     C167093  29.052   8.255  19.046 -0.2140 -0.2921  0.2060
11183DDP     P167094  29.381   8.619  19.018  0.3016 -0.1389 -0.1745
11183DDP     P267095  29.249   8.042  18.710  0.1454 -0.0341  0.1914
11183DDP     C267096  29.663   7.928  18.684  0.1553  0.0966 -0.2022
11183DDP     C367097  29.643   9.031  19.011  0.0228  0.3191  0.1591
11183DDP     C467098  28.815   8.067  19.353  0.0858  0.1599  0.0844
11184DDP     C167099   1.215  17.584  17.037 -0.0227  0.3381 -0.2614
11184DDP     P167100   1.375  17.278  16.761 -0.1275 -0.2650 -0.0138
11184DDP     P267101   1.476  17.519  17.388  0.0324 -0.2401 -0.2426
11184DDP     C267102   1.904  17.609  17.527  0.0609 -0.1124  0.0258
11184DDP     C367103   1.595  16.913  16.772 -0.0894 -0.0500  0.2448
11184DDP     C467104   0.796  17.793  16.960 -0.1745 -0.1865  0.1339
11185DDP     C167105   4.946  10.773  16.272 -0.1871 -0.2409 -0.0335
11185DDP     P167106   5.285  10.765  16.014  0.1983  0.1073  0.2540
11185DDP     P267107   4.674  10.422  16.297 -0.0672 -0.1012 -0.3220
11185DDP     C267108   4.335  10.155  16.349 -0.0196 -0.1264 -0.0916
11185DDP     C367109   5.667  10.554  15.849  0.0824 -0.0440 -0.3374
11185DDP     C467110   4.644  11.060  16.320  0.4311 -0.1981  0.1548
11186DDP     C167111   0.912  18.689  25.968 -0.2524  0.3159 -0.0504
11186DDP     P167112   0.613  18.993  25.899 -0.0027 -0.0070  0.2350
11186DDP     P267113   0.918  18.208  25.947  0.1446  0.2597 -0.0681
11186DDP     C267114   0.862  17.772  26.047 -0.2673  0.3506  0.0120
11186DDP     C367115   0.193  18.915  25.692 -0.1976  0.2060  0.2931
11186DDP     C467116   1.247  18.805  26.001 -0.0181  0.0234 -0.0686
11187DDP     C167117   8.185  28.291  28.690 -0.2614  0.1831 -0.2047
11187DDP     P167118   8.066  28.751  28.735  0.0182 -0.2409  0.1399
11187DDP     P267119   8.326  28.001  28.365  0.0999 -0.3222 -0.0820
11187DDP     C267120   8.148  27.628  28.299  0.0077  0.1354 -0.0075
11187DDP     C367121   7.858  29.196  28.813 -0.2183 -0.2873 -0.1139
11187DDP     C467122   8.407  28.033  29.050  0.0091 -0.0287 -0.0205
11188DDP     C167123   3.915  13.746   1.109 -0.1412 -0.0065  0.2646
11188DDP     P167124   3.571  13.431   1.246  0.0489  0.1426  0.0522
11188DDP     P267125   3.706  14.033   1.006 -0.0189  0.1933  0.0129
11188DDP     C267126   3.737  14.437   0.964  0.1243 -0.0243 -0.1840
11188DDP     C367127   3.204  13.121   1.148 -0.0087 -0.3375  0.1056
11188DDP     C467128   4.090  13.473   0.775 -0.0447  0.0121  0.0613
11189DDP     C167129  16.275  16.289   0.737 -0.2501  0.1701  0.0753
11189DDP     P167130  15.839  16.173   0.875 -0.0019  0.0075  0.1191
11189DDP     P267131  16.425  16.741   0.683  0.1141 -0.1102 -0.2151
11189DDP     C267132  16.624  17.025   0.652  0.2621  0.0374 -0.0548
11189DDP     C367133  15.583  16.253   1.191  0.0381  0.1559  0.1181
11189DDP     C467134  16.609  15.932   0.562 -0.1321 -0.0909  0.1063
11190DDP     C167135   7.501  13.203  26.477  0.0908 -0.3740  0.2279
11190DDP     P167136   7.126  12.986  26.597  0.0092 -0.1304  0.0954
11190DDP     P267137   7.507  13.430  26.155 -0.2602  0.0400  0.1319
11190DDP     C267138   7.634  13.849  26.035  0.2541 -0.0787 -0.0486
11190DDP     C367139   6.807  12.685  26.578 -0.0525 -0.1598  0.0809
11190DDP     C467140   7.920  13.006  26.624  0.1593  0.1039 -0.1627
11191DDP     C167141   4.641   4.321  26.152 -0.1593  0.1619  0.1991
11191DDP     P167142   5.008   4.173  26.397 -0.0329 -0.1969  0.1589
11191DDP     P267143   4.402   4.025  25.925 -0.0330  0.0354 -0.0901
11191DDP     C267144   4.643   3.722  25.690 -0.3520 -0.1301  0.1171
11191DDP     C367145   5.185   4.283  26.845 -0.2190  0.1910  0.0394
11191DDP     C467146   4.705   4.674  26.003 -0.0530  0.0035  0.0463
11192DDP     C167147  24.644  24.633   1.205 -0.0307  0.0833  0.4256
11192DDP     P167148  24.485  24.724   0.789 -0.1280  0.1982 -0.0138
11192DDP     P267149  24.568  24.791   1.551  0.2094 -0.0064  0.0153
11192DDP     C267150  24.649  24.856   1.932 -0.1155  0.1666 -0.0836
11192DDP     C367151  24.393  24.338   0.497 -0.0460  0.1268  0.1986
11192DDP     C467152  24.906  24.273   1.248 -0.2862  0.0789 -0.1445
11193DDP     C167153   8.769  29.899  18.820  0.1697  0.0292 -0.1271
11193DDP     P167154   9.136  29.956  19.071  0.3003 -0.0874 -0.4440
11193DDP     P267155   8.745  29.538  18.550  0.1761  0.0287 -0.3034
11193DDP     C267156   8.742  29.100  18.348  0.3268 -0.0218  0.0320
11193DDP     C367157   9.320  29.748  19.385  0.1670 -0.0199  0.0619
11193DDP     C467158   8.397  30.145  18.960  0.1234 -0.3288 -0.1659
11194DDP     C167159  26.398  28.227   1.146 -0.0220  0.0194  0.2600
11194DDP     P167160  26.620  28.544   0.882 -0.2104 -0.0975  0.0686
11194DDP     P267161  26.132  28.359   1.413  0.1163 -0.0634 -0.4046
11194DDP     C267162  25.954  28.490   1.860  0.2628 -0.1329  0.1121
11194DDP     C367163  26.882  28.714   0.600  0.0635  0.0672 -0.0428
11194DDP     C467164  26.509  27.754   0.961  0.0533 -0.5046  0.0865
11195DDP     C167165   0.312  23.524  23.010 -0.0752 -0.4266  0.3610
11195DDP     P167166   0.534  23.456  22.614 -0.0896 -0.0177 -0.1481
11195DDP     P267167   0.166  23.167  23.196 -0.1314 -0.0086 -0.2929
11195DDP     C267168   0.292  22.831  23.338 -0.3622  0.0316 -0.1446
11195DDP     C367169   0.971  23.703  22.345  0.1138 -0.0507 -0.0026
11195DDP     C467170   0.473  23.877  23.184 -0.0078  0.0618 -0.0238
11196DDP     C167171  21.129  24.293   6.822 -0.1211  0.2825  0.0113
11196DDP     P167172  21.445  24.303   7.019  0.1320 -0.1776  0.2880
11196DDP     P267173  20.618  24.286   6.963 -0.2805  0.0596  0.1850
11196DDP     C267174  20.344  24.451   6.944 -0.0088 -0.0388  0.3101
11196DDP     C367175  21.657  24.101   7.400  0.1033  0.3924  0.0516
11196DDP     C467176  21.160  24.187   6.314 -0.2454  0.1342 -0.0175
11197DDP     C167177  20.964  22.948   1.599 -0.0252  0.3195  0.1621
11197DDP     P167178  20.549  22.973   1.439 -0.0978 -0.0207  0.1902
11197DDP     P267179  21.241  22.762   1.338 -0.1043  0.1049  0.0665
11197DDP     C267180  21.272  22.869   0.890 -0.1288 -0.0627 -0.0033
11197DDP     C367181  20.330  22.695   1.077 -0.0191 -0.1212 -0.0241
11197DDP     C467182  20.935  22.882   2.014 -0.2274  0.0755  0.0118
11198DDP     C167183  27.089  19.283  23.772 -0.1162  0.3747  0.2456
11198DDP     P167184  26.860  19.120  23.475 -0.1264  0.4084 -0.1540
11198DDP     P267185  26.901  19.548  23.980  0.1176  0.0899 -0.1210
11198DDP     C267186  26.548  19.866  23.990 -0.1024 -0.0901 -0.2558
11198DDP     C367187  27.082  18.944  23.087 -0.0533 -0.0010 -0.2024
11198DDP     C467188  27.552  19.351  23.793 -0.1421  0.2700 -0.4288
11199DDP     C167189  19.996   8.339   0.380 -0.0348  0.0584  0.1369
11199DDP     P167190  19.775   8.245  30.250 -0.0673 -0.3286  0.1569
11199DDP     P267191  20.212   8.176   0.716 -0.0676  0.2354  0.0929
11199DDP     C267192  20.216   7.986   1.073 -0.0409 -0.2315  0.1719
11199DDP     C367193  19.473   7.865  30.092  0.2924  0.0267 -0.0579
11199DDP     C467194  20.232   8.733   0.468 -0.0843 -0.2931  0.3521
11200DDP     C167195   0.227   4.933   2.128  0.0475 -0.0236 -0.2426
11200DDP     P167196  30.358   4.596   2.037  0.2995  0.0319  0.0093
11200DDP     P267197  -0.013   5.245   1.973 -0.2122  0.1526  0.1140
11200DDP     C267198  30.395   5.681   2.115  0.4847  0.3637 -0.1032
11200DDP     C367199  29.990   4.338   2.128 -0.2508 -0.3047  0.0534
11200DDP     C467200   0.587   4.838   2.055  0.0095  0.0293  0.2124
11201DDP     C167201  14.526  19.166   6.019 -0.1226 -0.0537  0.2613
11201DDP     P167202  14.313  18.744   6.093  0.1773  0.1736 -0.3466
11201DDP     P267203  15.010  19.113   5.904  0.1827  0.1093  0.2020
11201DDP     C267204  15.256  18.806   5.575  0.1857 -0.2697 -0.1246
11201DDP     C367205  14.322  18.345   6.365  0.2587  0.0766  0.3003
11201DDP     C467206  14.380  19.581   5.871 -0.1361  0.1825 -0.2026
11202DDP     C167207   3.256   9.168  19.235 -0.3203  0.2728 -0.1117
11202DDP     P167208   2.760   9.166  19.180  0.1132  0.2997  0.2942
11202DDP     P267209   3.373   9.218  19.696  0.1244 -0.2024  0.0381
11202DDP     C267210   3.699   9.205  19.981  0.4925  0.0522  0.0485
11202DDP     C367211   2.469   9.485  19.273 -0.0451  0.0802 -0.2160
11202DDP     C467212   3.525   9.391  18.909 -0.1597  0.0947  0.0136
11203DDP     C167213  10.339  22.257  19.422  0.1899 -0.0288  0.0816
11203DDP     P167214  10.330  22.680  19.133  0.0836  0.1339  0.2250
11203DDP     P267215  10.541  21.866  19.386 -0.2219  0.0924 -0.4157
11203DDP     C267216  10.521  21.421  19.500  0.1862  0.0262 -0.1860
11203DDP     C367217  10.629  23.033  19.184  0.1621  0.0541  0.0436
11203DDP     C467218  10.150  22.289  19.807 -0.3837 -0.2669  0.1971
11204DDP     C167219   7.798   4.655  23.610 -0.1364  0.0008 -0.4155
11204DDP     P167220   7.848   5.077  23.499 -0.3414 -0.5459 -0.0080
11204DDP     P267221   7.589   4.447  23.285  0.2119  0.1296  0.1998
11204DDP     C267222   7.188   4.388  23.048 -0.3864  0.1503  0.0152
11204DDP     C367223   8.077   5.370  23.262 -0.1251 -0.0390 -0.1468
11204DDP     C467224   7.844   4.452  24.059  0.2969 -0.3613  0.2401
11205DDP     C167225   7.360   6.570  20.696  0.1055  0.0669  0.0748
11205DDP     P167226   7.666   6.687  20.939 -0.0132 -0.0986  0.0508
11205DDP     P267227   7.282   6.110  20.712 -0.1907 -0.0947  0.0706
11205DDP     C267228   7.242   5.693  20.783  0.2195  0.0299  0.1261
11205DDP     C367229   8.026   6.835  20.957  0.0559 -0.1973  0.1213
11205DDP     C467230   7.079   6.780  20.581 -0.2425  0.0430  0.0867
11206DDP     C167231  25.484   3.095   4.480 -0.0563 -0.0505  0.1766
11206DDP     P167232  25.361   2.741   4.843 -0.2283 -0.2028  0.3882
11206DDP     P267233  25.157   3.387   4.370  0.1847  0.0807 -0.0941
11206DDP     C267234  24.928   3.396   4.023  0.2389 -0.1526 -0.2933
11206DDP     C367235  25.412   2.361   4.965  0.1739 -0.1889 -0.1328
11206DDP     C467236  25.832   3.061   4.166  0.0557  0.0820  0.1630
11207DDP     C167237   3.735  24.073  28.621  0.1509 -0.4161  0.0718
11207DDP     P167238   3.420  23.773  28.450  0.1674  0.1887  0.1996
11207DDP     P267239   3.404  24.316  28.891 -0.0026  0.0428  0.1314
11207DDP     C267240   3.099  24.210  29.224 -0.3707 -0.0208  0.1344
11207DDP     C367241   3.160  23.423  28.670  0.3303 -0.2419  0.0857
11207DDP     C467242   4.221  23.991  28.542 -0.2841 -0.0980 -0.1828
11208DDP     C167243   4.756   9.278   5.619 -0.1219  0.0257  0.1591
11208DDP     P167244   4.610   8.825   5.780  0.0764  0.0785  0.0653
11208DDP     P267245   5.093   9.430   5.380 -0.0667  0.0237 -0.1666
11208DDP     C267246   5.445   9.560   5.235 -0.3226 -0.0440 -0.0428
11208DDP     C367247   4.789   8.417   5.883  0.0033  0.2633  0.0145
11208DDP     C467248   4.600   9.604   6.050  0.0617 -0.0641  0.1085
11209DDP     C167249  22.926  27.270  21.528  0.1863 -0.0714 -0.1655
11209DDP     P167250  23.010  27.369  21.135  0.0518  0.0216  0.0774
11209DDP     P267251  22.985  26.832  21.645  0.3348 -0.0801 -0.1852
11209DDP     C267252  23.047  26.449  21.867 -0.1573  0.2104  0.0640
11209DDP     C367253  23.334  27.229  20.855  0.2016  0.1848  0.0985
11209DDP     C467254  22.991  27.666  21.835 -0.1220  0.1393 -0.0513
11210DDP     C167255  14.974  14.840  16.009  0.1458 -0.1349 -0.1440
11210DDP     P167256  14.672  14.559  16.083  0.1524 -0.4070 -0.0716
11210DDP     P267257  14.996  15.078  15.642  0.0245  0.1546  0.1516
11210DDP     C267258  15.391  15.057  15.408 -0.0857  0.0075  0.0950
11210DDP     C367259  14.647  14.454  16.390  0.1512  0.2947 -0.0166
11210DDP     C467260  15.363  14.861  16.279 -0.0797 -0.1023  0.1347
11211DDP     C167261  10.365   9.756  12.959  0.3048  0.2882  0.0275
11211DDP     P167262  10.586  10.041  13.178 -0.0145 -0.0197  0.1348
11211DDP     P267263  10.566   9.651  12.497  0.2363  0.1379 -0.1434
11211DDP     C267264  11.036   9.556  12.461 -0.0501  0.0917 -0.0506
11211DDP     C367265  10.635  10.435  13.519 -0.0726 -0.2047  0.0263
11211DDP     C467266  10.014   9.524  13.043  0.0128  0.1028  0.1712
11212DDP     C167267  10.381   1.177  25.691 -0.1314 -0.0167  0.3269
11212DDP     P167268  10.730   1.506  25.628 -0.1804  0.0883 -0.1748
11212DDP     P267269   9.986   1.237  25.721 -0.2032 -0.0784  0.0615
11212DDP     C267270   9.693   1.208  26.107  0.0388 -0.0200  0.0682
11212DDP     C367271  10.974   1.594  25.396 -0.0473 -0.0155 -0.0516
11212DDP     C467272  10.346   0.765  25.682 -0.2870  0.3126  0.1111
11213DDP     C167273  21.324   5.703   3.479 -0.2169  0.0736 -0.2634
11213DDP     P167274  20.965   5.541   3.401 -0.3147  0.2982 -0.0874
11213DDP     P267275  21.460   5.725   3.168 -0.1729  0.4198  0.0624
11213DDP     C267276  21.876   5.543   2.928 -0.0194 -0.1143  0.1112
11213DDP     C367277  20.666   5.159   3.425 -0.2223 -0.2835 -0.1266
11213DDP     C467278  21.476   5.504   3.852  0.0298 -0.5371  0.1001
11214DDP     C167279  23.963   9.624  14.591  0.0101  0.0507 -0.1326
11214DDP     P167280  23.703   9.908  14.341  0.0128 -0.4378 -0.1521
11214DDP     P267281  24.246   9.905  14.695  0.1565  0.1145  0.2569
11214DDP     C267282  24.640  10.021  14.582 -0.0373  0.0387  0.0132
11214DDP     C367283  23.675  10.409  14.254 -0.0401 -0.1629  0.3070
11214DDP     C467284  23.843   9.342  14.863  0.1524 -0.0819 -0.0190
11215DDP     C167285  25.072  28.249   5.294  0.4573 -0.0588 -0.1537
11215DDP     P167286  25.132  28.275   5.716 -0.0284  0.0472 -0.0960
11215DDP     P267287  25.357  28.268   5.107  0.0636 -0.1027 -0.1782
11215DDP     C267288  25.738  28.129   4.811 -0.0573  0.1384  0.4993
11215DDP     C367289  24.904  28.325   6.105  0.2519  0.0907  0.0997
11215DDP     C467290  24.748  28.167   5.010 -0.0703  0.3271  0.2827
11216DDP     C167291   4.152  27.998  10.825  0.1836  0.1197 -0.0097
11216DDP     P167292   3.756  27.776  10.794  0.1886 -0.0005  0.1411
11216DDP     P267293   4.499  27.904  10.973 -0.1102 -0.2392 -0.3661
11216DDP     C267294   5.006  27.916  11.021 -0.1278 -0.4462  0.2586
11216DDP     C367295   3.474  27.470  10.842 -0.1211 -0.2651 -0.3419
11216DDP     C467296   4.004  28.431  10.840 -0.2308 -0.2512  0.2691
11217DDP     C167297  21.808  22.551  16.090 -0.1885 -0.2478  0.1907
11217DDP     P167298  22.143  22.379  16.336  0.0392 -0.1703 -0.3122
11217DDP     P267299  22.052  22.950  15.958 -0.4050 -0.2951 -0.1520
11217DDP     C267300  22.273  23.192  15.660 -0.3522 -0.0955  0.2045
11217DDP     C367301  22.493  22.197  16.417  0.4302 -0.4455 -0.0064
11217DDP     C467302  21.378  22.561  16.225  0.3128 -0.3379 -0.0727
11218DDP     C167303  21.543  10.788  12.153 -0.2735 -0.0757  0.0631
11218DDP     P167304  21.691  10.434  12.484 -0.1349  0.1727  0.2201
11218DDP     P267305  21.159  10.782  11.875 -0.2451  0.2472  0.1771
11218DDP     C267306  20.905  10.643  11.530 -0.0017  0.2027 -0.0917
11218DDP     C367307  22.118  10.152  12.735  0.1870 -0.0694  0.1088
11218DDP     C467308  21.679  11.142  12.418 -0.1247 -0.0198 -0.0022
11219DDP     C167309  21.409  21.900  26.699  0.2095 -0.5220  0.1119
11219DDP     P167310  21.476  22.039  27.144  0.0993  0.4644  0.5011
11219DDP     P267311  21.030  21.594  26.656 -0.1749  0.1752  0.0676
11219DDP     C267312  20.657  21.352  26.791 -0.1211  0.1907  0.0272
11219DDP     C367313  21.327  22.480  27.334 -0.0232  0.0200  0.2209
11219DDP     C467314  21.707  21.983  26.509 -0.0433 -0.1234  0.0880
11220DDP     C167315  19.338  20.056  26.176  0.0531  0.4056  0.1587
11220DDP     P167316  19.670  19.762  26.095  0.0030 -0.2462  0.0232
11220DDP     P267317  19.534  20.380  26.009 -0.3054  0.1133  0.1271
11220DDP     C267318  19.873  20.313  25.886 -0.0348  0.0833  0.2810
11220DDP     C367319  19.835  19.462  26.411  0.1378  0.1216  0.0501
11220DDP     C467320  18.949  20.151  26.395  0.1949  0.2608 -0.2448
11221DDP     C167321  21.174  19.525  23.699 -0.0790 -0.2863  0.0189
11221DDP     P167322  20.880  19.915  23.771 -0.0716  0.1181 -0.1684
11221DDP     P267323  21.504  19.430  23.985 -0.1068 -0.2036 -0.0232
11221DDP     C267324  21.928  19.589  24.037  0.0403  0.0196 -0.1202
11221DDP     C367325  20.610  20.301  23.698 -0.1358  0.1622 -0.1595
11221DDP     C467326  21.131  19.142  23.825  0.1353  0.1411  0.2597
11222DDP     C167327  18.584  19.070   9.713  0.0685 -0.0184  0.0214
11222DDP     P167328  18.527  18.952  10.198 -0.5184 -0.2127 -0.0619
11222DDP     P267329  18.699  19.410   9.488  0.0384 -0.0975 -0.4544
11222DDP     C267330  18.688  19.758   9.334  0.0553 -0.4880 -0.1358
11222DDP     C367331  18.599  18.968  10.664 -0.1759  0.3428  0.2490
11222DDP     C467332  18.604  18.791   9.368  0.1499  0.2776 -0.1537
11223DDP     C167333  26.199  19.532   9.162  0.2225  0.5700 -0.1129
11223DDP     P167334  26.593  19.511   9.348 -0.0454 -0.0372 -0.0807
11223DDP     P267335  26.188  19.096   8.972  0.1049 -0.1391  0.1575
11223DDP     C267336  26.419  19.058   8.534  0.0343 -0.1172 -0.0047
11223DDP     C367337  27.002  19.377   9.303 -0.0272 -0.0181  0.1194
11223DDP     C467338  25.871  19.794   9.218  0.1225 -0.0752  0.0838
11224DDP     C167339  18.020  18.667   7.891  0.4934 -0.1000  0.0731
11224DDP     P167340  18.457  18.600   7.671 -0.2586 -0.1745  0.1233
11224DDP     P267341  17.703  18.981   7.679  0.1057  0.0701  0.0391
11224DDP     C267342  17.607  19.320   7.487  0.0093  0.0208 -0.0636
11224DDP     C367343  18.887  18.774   7.510 -0.0103  0.0055 -0.1196
11224DDP     C467344  17.934  18.397   8.250 -0.0182  0.1888 -0.3652
11225DDP     C167345   9.154  21.395  12.933 -0.0683  0.1368 -0.4060
11225DDP     P167346   9.567  21.541  12.832  0.0068  0.1787 -0.1820
11225DDP     P267347   8.759  21.327  12.812 -0.0389  0.2858  0.2011
11225DDP     C267348   8.376  21.321  12.906 -0.1071 -0.3045 -0.0452
11225DDP     C367349   9.931  21.817  12.970 -0.3911  0.2260 -0.2064
11225DDP     C467350   9.080  21.306  13.430 -0.1060 -0.1055  0.0119
11226DDP     C167351  15.022  24.719   6.920 -0.3069  0.1999 -0.3124
11226DDP     P167352  14.922  24.717   7.361  0.1744  0.3286  0.1114
11226DDP     P267353  15.038  25.133   6.616  0.2099  0.4894  0.1725
11226DDP     C267354  15.049  25.508   6.486 -0.0179 -0.0953  0.1861
11226DDP     C367355  14.516  24.743   7.559 -0.0279  0.0773  0.0566
11226DDP     C467356  15.406  24.398   6.749 -0.3391  0.1688  0.2458
11227DDP     C167357  12.805   0.527  23.547 -0.0240  0.0444 -0.0639
11227DDP     P167358  12.505   0.781  23.447 -0.0490 -0.2075  0.0516
11227DDP     P267359  12.774   0.358  23.179  0.1047  0.0619  0.3394
11227DDP     C267360  13.050   0.226  22.859  0.0172 -0.0396 -0.2697
11227DDP     C367361  12.362   1.143  23.560 -0.0985 -0.0122  0.1148
11227DDP     C467362  13.072   0.564  23.935 -0.0884 -0.1778 -0.1376
11228DDP     C167363   3.734  19.533   1.713  0.0713  0.1611  0.2125
11228DDP     P167364   3.364  19.619   1.630 -0.0940 -0.0266  0.2367
11228DDP     P267365   3.879  19.934   2.006  0.0638 -0.0766 -0.0348
11228DDP     C267366   3.966  20.149   2.371 -0.0590 -0.0234 -0.0538
11228DDP     C367367   3.106  19.931   1.696 -0.1548  0.0966 -0.0667
11228DDP     C467368   3.928  19.280   1.380 -0.3540 -0.2130  0.3435
11229DDP     C167369  14.465  27.901  21.790 -0.0174  0.2407  0.0348
11229DDP     P167370  14.222  27.663  21.502  0.4644  0.1288 -0.1231
11229DDP     P267371  14.826  28.172  21.791 -0.1023  0.0576  0.2413
11229DDP     C267372  15.163  28.390  21.645  0.1079  0.0874  0.1554
11229DDP     C367373  14.030  27.274  21.427  0.2958  0.0877  0.0686
11229DDP     C467374  14.329  27.981  22.134 -0.1875 -0.2823 -0.2627
11230DDP     C167375   3.806  14.681   5.473  0.0940 -0.1794 -0.0690
11230DDP     P167376   3.354  14.623   5.415  0.0630  0.0222 -0.0845
11230DDP     P267377   3.967  14.964   5.839 -0.0212  0.1393  0.2018
11230DDP     C267378   3.859  15.252   6.155  0.2286 -0.0945 -0.1365
11230DDP     C367379   3.157  14.510   5.834  0.0157  0.0804  0.0387
11230DDP     C467380   4.066  14.621   5.164 -0.3219  0.0194  0.2505
11231DDP     C167381  28.358  22.540  18.824 -0.1937 -0.1817 -0.1282
11231DDP     P167382  28.639  22.538  18.426 -0.3011  0.3652 -0.0152
11231DDP     P267383  28.372  22.704  19.232  0.2189  0.1241  0.0236
11231DDP     C267384  28.012  22.807  19.434  0.1210 -0.0297 -0.2228
11231DDP     C367385  28.646  22.339  18.000 -0.2490 -0.2240  0.1637
11231DDP     C467386  28.055  22.185  18.818 -0.1953 -0.5768 -0.2389
11232DDP     C167387   3.642  30.097  16.167 -0.0757 -0.0431  0.5285
11232DDP     P167388   4.082  29.956  16.411  0.4726 -0.0659  0.4660
11232DDP     P267389   3.434   0.061  16.327 -0.1054 -0.0900  0.0362
11232DDP     C267390   3.431   0.528  16.307  0.0339 -0.3412 -0.0270
11232DDP     C367391   4.166  29.866  16.820  0.3258  0.1810  0.0789
11232DDP     C467392   3.519  29.958  15.717 -0.0530  0.2478  0.0231
11233DDP     C167393   4.762  26.556   1.981  0.0284  0.2032  0.3411
11233DDP     P167394   4.701  26.449   2.359  0.0474  0.0269 -0.0269
11233DDP     P267395   4.430  26.569   1.859 -0.1860  0.1590  0.1491
11233DDP     C267396   4.095  26.583   1.743  0.3463  0.0811  0.2309
11233DDP     C367397   4.628  26.177   2.836 -0.3003 -0.0834  0.1472
11233DDP     C467398   5.023  26.810   1.668 -0.0801  0.0758 -0.1044
11234DDP     C167399  14.808  21.274   3.223  0.0324 -0.2840 -0.0881
11234DDP     P167400  14.446  21.348   3.306  0.2702  0.0895  0.0407
11234DDP     P267401  15.047  21.346   2.822  0.1008 -0.0494 -0.1936
11234DDP     C267402  15.356  21.380   2.478 -0.1252  0.1665 -0.2280
11234DDP     C367403  14.123  21.685   3.279 -0.2557  0.0417  0.0525
11234DDP     C467404  15.049  21.383   3.653 -0.2516 -0.2056  0.0477
11235DDP     C167405  14.527  21.424   1.454  0.1901 -0.1246  0.1052
11235DDP     P167406  14.727  21.780   1.420 -0.2241  0.0619 -0.1176
11235DDP     P267407  14.186  21.457   1.660 -0.0953 -0.1911 -0.0794
11235DDP     C267408  13.929  21.238   1.926  0.2740 -0.1261 -0.1363
11235DDP     C367409  14.868  22.180   1.569 -0.1459 -0.0302  0.3984
11235DDP     C467410  14.636  20.890   1.279 -0.2161  0.3176 -0.3834
11236DDP     C167411  17.057  27.059   7.353 -0.4469 -0.1751  0.0921
11236DDP     P167412  17.175  26.688   7.098 -0.0577 -0.1517  0.2130
11236DDP     P267413  16.889  26.875   7.658  0.1136  0.3695 -0.2013
11236DDP     C267414  16.461  27.036   7.913  0.3105  0.0035  0.1072
11236DDP     C367415  17.562  26.488   6.927 -0.3468  0.1162  0.3886
11236DDP     C467416  17.183  27.418   7.431 -0.1471  0.0367  0.1304
11237DDP     C167417   6.984  19.835   7.286 -0.3747 -0.0374  0.1849
11237DDP     P167418   7.395  19.756   7.290  0.3917 -0.1648  0.2850
11237DDP     P267419   6.724  20.088   7.033  0.0827  0.0193 -0.2097
11237DDP     C267420   6.418  20.221   6.778 -0.3205 -0.1686  0.0898
11237DDP     C367421   7.769  19.957   7.462  0.1699 -0.1351 -0.2433
11237DDP     C467422   6.697  19.670   7.544  0.1557 -0.0577 -0.1704
11238DDP     C167423  24.555   0.780  17.260 -0.1062 -0.0865 -0.1170
11238DDP     P167424  24.668   0.457  17.576  0.1334 -0.0027  0.0493
11238DDP     P267425  24.933   0.944  16.955 -0.2014 -0.0089 -0.1166
11238DDP     C267426  25.023   0.558  16.631  0.1176 -0.1338 -0.0346
11238DDP     C367427  24.963   0.509  17.869  0.0334  0.0621 -0.1316
11238DDP     C467428  24.235   0.500  17.303 -0.0620 -0.0029 -0.0752
11239DDP     C167429  15.962  24.162   2.452 -0.1909  0.0155  0.0696
11239DDP     P167430  16.404  23.950   2.546  0.0658  0.4806  0.1639
11239DDP     P267431  15.524  23.898   2.322  0.0708 -0.0485 -0.0481
11239DDP     C267432  15.187  23.719   2.447  0.0138 -0.1842  0.0773
11239DDP     C367433  16.787  23.969   2.701  0.0659  0.1855 -0.2381
11239DDP     C467434  15.911  24.525   2.216 -0.1237  0.0338  0.0679
11240DDP     C167435  29.313  13.120  18.523 -0.1664 -0.0764  0.2114
11240DDP     P167436  29.152  13.144  18.948 -0.1403 -0.2295 -0.0526
11240DDP     P267437  29.105  13.017  18.210 -0.2715 -0.4112  0.1479
11240DDP     C267438  29.032  13.213  17.811 -0.2430  0.1271 -0.1102
11240DDP     C367439  28.797  13.247  19.154 -0.0326 -0.0218  0.2461
11240DDP     C467440  29.557  12.729  18.808  0.0042 -0.0260  0.2222
11241DDP     C167441  10.411  25.919   8.193 -0.0171  0.1358  0.1444
11241DDP     P167442  10.620  25.806   7.906 -0.0526  0.1582  0.0501
11241DDP     P267443  10.730  26.085   8.520  0.2001  0.4259 -0.0020
11241DDP     C267444  10.585  26.469   8.777  0.3702  0.0775  0.1259
11241DDP     C367445  10.638  25.677   7.490 -0.4048  0.0403 -0.0805
11241DDP     C467446  10.022  26.037   8.089 -0.2689 -0.3372 -0.0650
11242DDP     C167447  16.313  24.987   3.187  0.0501 -0.1443  0.2640
11242DDP     P167448  16.535  25.130   2.801  0.1760  0.0184  0.0571
11242DDP     P267449  16.153  25.245   3.454 -0.0949 -0.0975 -0.3850
11242DDP     C267450  16.248  25.430   3.893  0.1783  0.1771  0.2159
11242DDP     C367451  16.834  25.292   2.554  0.0980 -0.1256  0.0014
11242DDP     C467452  16.308  24.548   3.334  0.2682  0.3778 -0.1344
11243DDP     C167453  20.336   3.214  21.646  0.0059  0.1054 -0.0900
11243DDP     P167454  20.142   3.255  21.268 -0.0105 -0.1284  0.1641
11243DDP     P267455  20.652   3.088  21.964  0.0796 -0.0821 -0.1401
11243DDP     C267456  20.558   2.791  22.281 -0.3211  0.0945  0.0383
11243DDP     C367457  20.041   3.116  20.750  0.0897  0.0345 -0.0079
11243DDP     C467458  20.423   3.677  21.727  0.1452  0.1316  0.1531
11244DDP     C167459   6.922  16.013  27.190  0.1735 -0.0051  0.1470
11244DDP     P167460   6.942  15.839  27.615  0.0443 -0.1647  0.3279
11244DDP     P267461   7.344  16.383  27.193  0.0993  0.2084 -0.0546
11244DDP     C267462   7.702  16.644  27.151  0.1343 -0.0208  0.0994
11244DDP     C367463   7.014  15.464  27.702 -0.0097 -0.1234 -0.3651
11244DDP     C467464   6.687  15.772  26.950 -0.1363 -0.2000 -0.2162
11245DDP     C167465   0.205  20.690   1.507  0.2348 -0.1496 -0.0403
11245DDP     P167466   0.544  20.519   1.652 -0.0923  0.1027  0.2758
11245DDP     P267467  30.343  20.660   1.167 -0.0106  0.2907  0.1782
11245DDP     C267468  30.192  20.630   0.738 -0.0293 -0.0350 -0.0926
11245DDP     C367469   0.599  20.612   2.069 -0.1521  0.0368 -0.1190
11245DDP     C467470   0.091  20.859   1.909  0.2473  0.1391 -0.1083
11246DDP     C167471  23.724  13.301   3.058  0.0760 -0.0651  0.0313
11246DDP     P167472  23.562  13.132   3.511 -0.1656 -0.1683  0.0348
11246DDP     P267473  23.717  12.821   3.129 -0.1008  0.1749 -0.2267
11246DDP     C267474  23.548  12.467   2.867 -0.1625  0.2444 -0.0539
11246DDP     C367475  23.192  13.437   3.762 -0.1949  0.0907  0.1687
11246DDP     C467476  23.634  13.705   2.894 -0.0241  0.0521  0.1869
11247DDP     C167477   2.616  22.743  20.219  0.0483  0.1832  0.1554
11247DDP     P167478   2.214  22.561  20.088 -0.2785  0.0147 -0.0380
11247DDP     P267479   2.581  23.072  20.512 -0.1110  0.2325 -0.3218
11247DDP     C267480   2.391  23.469  20.648 -0.0771 -0.3105  0.1734
11247DDP     C367481   1.813  22.832  19.945 -0.2332  0.1160 -0.2791
11247DDP     C467482   2.893  22.555  20.029 -0.2319 -0.1619 -0.4738
11248DDP     C167483  17.093   5.865  24.953  0.0446 -0.0543 -0.0375
11248DDP     P167484  17.492   5.613  25.010  0.0442 -0.3738  0.0224
11248DDP     P267485  16.969   5.808  25.377  0.1240 -0.0545  0.0302
11248DDP     C267486  17.015   5.520  25.737 -0.0985  0.0367  0.1323
11248DDP     C367487  17.824   5.685  25.196 -0.0629  0.0340  0.3443
11248DDP     C467488  16.806   5.952  24.535 -0.3381 -0.0185  0.2593
11249DDP     C167489   2.276  22.038  12.078 -0.0159  0.1354 -0.1209
11249DDP     P167490   2.253  21.765  11.739 -0.1758  0.5051 -0.0966
11249DDP     P267491   2.541  22.433  11.936  0.1851  0.2031 -0.0127
11249DDP     C267492   2.806  22.602  11.813  0.0689 -0.2848 -0.2569
11249DDP     C367493   2.096  21.379  11.764 -0.0944  0.0636 -0.0875
11249DDP     C467494   2.028  22.098  12.457 -0.0315  0.1530 -0.3115
11250DDP     C167495  29.070  17.859  15.159  0.0110 -0.0035  0.0061
11250DDP     P167496  29.036  17.690  15.478  0.2058 -0.0947  0.1502
11250DDP     P267497  29.345  17.731  15.025  0.1830  0.0491  0.1699
11250DDP     C267498  29.794  17.702  15.102 -0.1218 -0.2346  0.2073
11250DDP     C367499  29.160  17.359  15.747  0.2063 -0.1033  0.0529
11250DDP     C467500  28.743  18.157  15.006 -0.1532 -0.2882 -0.0478
11251DDP     C167501  16.424   6.632   6.462  0.0415  0.0134 -0.0937
11251DDP     P167502  15.971   6.591   6.684  0.4048  0.3508 -0.0476
11251DDP     P267503  16.296   6.770   6.163  0.0128 -0.1809  0.2120
11251DDP     C267504  16.185   6.502   5.793  0.3259  0.4633 -0.1436
11251DDP     C367505  15.544   6.659   6.884  0.1422  0.0218  0.2559
11251DDP     C467506  16.610   6.342   6.741 -0.1318  0.2487 -0.1011
11252DDP     C167507   3.238  20.069   3.408  0.0902 -0.0147 -0.0017
11252DDP     P167508   3.316  20.040   2.941 -0.0524 -0.0979 -0.3624
11252DDP     P267509   3.037  20.297   3.809 -0.0417  0.1236 -0.1903
11252DDP     C267510   2.843  20.233   4.264 -0.0886  0.0262  0.2011
11252DDP     C367511   3.206  19.797   2.581 -0.0764  0.2465 -0.1572
11252DDP     C467512   3.515  19.696   3.617  0.2615 -0.1185 -0.1328
11253DDP     C167513   6.215   3.820   8.943  0.3568  0.0386 -0.2140
11253DDP     P167514   6.135   4.342   8.806 -0.3212  0.1190 -0.1617
11253DDP     P267515   5.821   3.639   8.825  0.0701 -0.0918 -0.1564
11253DDP     C267516   5.645   3.388   8.494  0.0899  0.2763  0.1211
11253DDP     C367517   6.278   4.726   8.944  0.6662 -0.1102 -0.1523
11253DDP     C467518   6.683   3.820   8.958 -0.2098 -0.1056  0.0818
11254DDP     C167519  18.361  14.211  28.958 -0.0548 -0.2786 -0.1298
11254DDP     P167520  18.137  13.966  29.309  0.0433  0.3525 -0.0712
11254DDP     P267521  18.531  13.888  28.692 -0.1637 -0.1028  0.0278
11254DDP     C267522  18.468  13.519  28.436  0.1095 -0.3795 -0.0198
11254DDP     C367523  17.933  13.645  29.585  0.2568  0.0304 -0.0223
11254DDP     C467524  18.445  14.604  28.846 -0.1117 -0.1624  0.1409
11255DDP     C167525  24.113  23.719  12.435 -0.0535 -0.1237 -0.4487
11255DDP     P167526  24.477  23.445  12.362 -0.0645 -0.0297  0.0118
11255DDP     P267527  23.969  23.668  12.040 -0.1627 -0.1033  0.0872
11255DDP     C267528  23.635  23.527  11.732  0.1547  0.3241  0.3083
11255DDP     C367529  24.850  23.226  12.553 -0.2522 -0.0555 -0.1416
11255DDP     C467530  24.181  24.215  12.404 -0.0636  0.0657  0.0143
11256DDP     C167531  28.693  29.368  24.082  0.1095 -0.2501 -0.0581
11256DDP     P167532  28.721  29.815  24.397  0.0291  0.4174 -0.3180
11256DDP     P267533  29.018  29.228  23.828 -0.0934 -0.3986  0.2341
11256DDP     C267534  29.008  29.058  23.378 -0.3824 -0.0046  0.0955
11256DDP     C367535  29.127  30.086  24.552 -0.3142 -0.2047 -0.1936
11256DDP     C467536  28.305  29.198  23.984  0.2954  0.1441  0.1718
11257DDP     C167537  28.631  23.487   2.920 -0.1188  0.0511  0.2454
11257DDP     P167538  28.303  23.062   2.989 -0.3014 -0.1147  0.0376
11257DDP     P267539  28.607  23.671   3.270  0.1567  0.1014  0.1673
11257DDP     C267540  28.478  24.021   3.655  0.0227 -0.0354  0.0492
11257DDP     C367541  27.895  22.998   2.865 -0.3898  0.0694 -0.1743
11257DDP     C467542  28.738  23.596   2.517 -0.2373  0.3871 -0.2117
11258DDP     C167543  15.668   2.144  14.706 -0.2168  0.1372  0.2241
11258DDP     P167544  15.371   2.115  14.952  0.0874 -0.0084 -0.4136
11258DDP     P267545  15.947   2.484  14.622 -0.0697 -0.1071 -0.1549
11258DDP     C267546  16.152   2.856  14.794 -0.0645 -0.1118 -0.2100
11258DDP     C367547  15.325   1.841  15.355 -0.0225  0.1686 -0.2130
11258DDP     C467548  15.513   1.722  14.413 -0.2448 -0.0623  0.1547
11259DDP     C167549  18.298  15.445   7.740  0.1696 -0.0998  0.0426
11259DDP     P167550  18.503  15.580   8.122  0.0203 -0.3232  0.1733
11259DDP     P267551  18.392  15.106   7.558  0.0807 -0.0145  0.2255
11259DDP     C267552  18.394  14.764   7.341 -0.1662  0.1129 -0.2262
11259DDP     C367553  18.366  15.918   8.428 -0.2554 -0.0313 -0.0896
11259DDP     C467554  17.963  15.647   7.565  0.0832  0.0821 -0.2132
11260DDP     C167555   1.478   9.622  19.745  0.2305 -0.0472  0.0481
11260DDP     P167556   1.230  10.044  19.819 -0.1418  0.1499 -0.3288
11260DDP     P267557   1.344   9.352  19.497  0.0482 -0.1489  0.0221
11260DDP     C267558   1.115   8.907  19.445  0.2267  0.0377  0.4774
11260DDP     C367559   0.924  10.355  19.991  0.1284  0.0727 -0.1210
11260DDP     C467560   1.690   9.523  20.020  0.2345 -0.0957 -0.1400
11261DDP     C167561  20.214  22.747   6.505 -0.2226 -0.0912  0.3424
11261DDP     P167562  20.257  22.479   6.771 -0.2091 -0.1109  0.1942
11261DDP     P267563  20.460  22.824   6.149 -0.1895 -0.3571  0.2750
11261DDP     C267564  20.886  22.709   5.867  0.1686 -0.1359 -0.0099
11261DDP     C367565  20.407  22.184   7.012 -0.3804  0.0493  0.0596
11261DDP     C467566  19.794  22.948   6.698 -0.2986 -0.0867 -0.0893
11262DDP     C167567   6.755   4.675   1.587  0.1593  0.2900 -0.0917
11262DDP     P167568   7.124   4.643   1.769  0.0745  0.0591  0.0936
11262DDP     P267569   6.541   4.312   1.658 -0.0084 -0.2604 -0.2192
11262DDP     C267570   6.567   3.958   1.738  0.1025 -0.2263  0.2622
11262DDP     C367571   7.427   4.913   1.994 -0.3145  0.0081  0.0578
11262DDP     C467572   6.681   5.096   1.328  0.1489  0.0786 -0.0088
11263DDP     C167573  25.370  25.212   0.332  0.2521  0.0685 -0.3884
11263DDP     P167574  25.685  25.280   0.635  0.1287  0.3553  0.1506
11263DDP     P267575  25.081  25.490   0.263  0.2384 -0.1666  0.0135
11263DDP     C267576  24.876  25.809   0.496  0.1053 -0.2364  0.3344
11263DDP     C367577  25.952  25.572   0.859  0.1017  0.1150 -0.1094
11263DDP     C467578  25.291  24.814   0.071  0.1159 -0.2511  0.1651
11264DDP     C167579  29.460  10.404  11.618  0.0663  0.0499  0.1068
11264DDP     P167580  29.847  10.264  11.598 -0.0057  0.5035  0.2563
11264DDP     P267581  29.066  10.505  11.326 -0.1186  0.0203  0.1788
11264DDP     C267582  29.091  10.752  10.949  0.1503  0.0699  0.0466
11264DDP     C367583  30.078   9.847  11.715  0.0638 -0.0285 -0.2603
11264DDP     C467584  29.387  10.663  11.854  0.0774 -0.0362  0.3543
11265DDP     C167585   2.103  18.612  10.641  0.0042 -0.2082 -0.1132
11265DDP     P167586   1.806  18.275  10.589 -0.2287  0.1086 -0.0069
11265DDP     P267587   2.574  18.341  10.573 -0.0043  0.1000  0.1310
11265DDP     C267588   2.932  18.421  10.387  0.0404  0.1667  0.1365
11265DDP     C367589   1.688  18.042  10.291 -0.1512  0.0488 -0.2354
11265DDP     C467590   2.050  18.994  10.563  0.1045 -0.0586 -0.1301
11266DDP     C167591   7.188   0.415  14.113 -0.0431 -0.0430  0.0400
11266DDP     P167592   7.257  30.318  14.112 -0.1590  0.1690  0.0340
11266DDP     P267593   7.436   0.675  13.872  0.0508 -0.2608 -0.0809
11266DDP     C267594   7.632   0.825  13.513 -0.0026 -0.3772 -0.2539
11266DDP     C367595   7.088  29.934  14.193  0.1260 -0.1124  0.1744
11266DDP     C467596   6.852   0.602  14.336 -0.3762 -0.1647  0.4502
11267DDP     C167597  26.672   7.127  11.327  0.2849  0.0825  0.1618
11267DDP     P167598  26.755   7.112  11.732 -0.0936  0.0992  0.2783
11267DDP     P267599  26.602   7.021  10.949 -0.0553  0.2200  0.0335
11267DDP     C267600  26.719   6.786  10.546 -0.0162 -0.0416  0.0200
11267DDP     C367601  27.078   7.115  11.822 -0.0179 -0.0540  0.3084
11267DDP     C467602  26.513   7.506  11.354 -0.1120 -0.1095 -0.0300
11268DDP     C167603  28.381   6.286  25.750  0.0760 -0.2493  0.3071
11268DDP     P167604  28.221   5.958  25.423 -0.0653 -0.0274 -0.1661
11268DDP     P267605  28.679   6.258  25.878 -0.0456 -0.0135 -0.2846
11268DDP     C267606  29.003   6.207  26.100 -0.1082  0.1210  0.0322
11268DDP     C367607  27.864   5.768  25.115  0.0368 -0.3111 -0.2352
11268DDP     C467608  28.159   6.686  25.893 -0.2517  0.0697  0.0681
11269DDP     C167609  29.339   7.312   8.729  0.0567 -0.0164 -0.2565
11269DDP     P167610  28.864   7.373   8.948  0.2511  0.3432  0.1366
11269DDP     P267611  29.298   7.611   8.469 -0.1434  0.2467 -0.0069
11269DDP     C267612  29.547   7.758   8.157 -0.1098  0.3575  0.3705
11269DDP     C367613  28.620   7.093   9.134 -0.0130 -0.3545 -0.1868
11269DDP     C467614  29.665   7.081   8.923  0.2302 -0.3121  0.0048
11270DDP     C167615   8.885  28.346  10.898 -0.0102 -0.1376  0.1434
11270DDP     P167616   8.528  28.340  10.712 -0.1979 -0.1958 -0.0981
11270DDP     P267617   8.897  28.198  11.270 -0.3658  0.1808  0.0055
11270DDP     C267618   9.114  28.146  11.620 -0.1993 -0.1806 -0.1646
11270DDP     C367619   8.282  28.057  10.513  0.1924 -0.2853  0.2615
11270DDP     C467620   9.246  28.444  10.703 -0.0797 -0.2006  0.0668
11271DDP     C167621  24.035  12.184   6.615  0.0361 -0.3637 -0.0758
11271DDP     P167622  24.318  12.520   6.376 -0.0971  0.0808 -0.3353
11271DDP     P267623  23.536  12.226   6.586  0.2184  0.1489 -0.3466
11271DDP     C267624  23.168  12.043   6.385  0.0128  0.1047 -0.1083
11271DDP     C367625  24.804  12.658   6.438  0.0953 -0.4215  0.2252
11271DDP     C467626  24.328  12.038   6.976 -0.0825 -0.1270 -0.0880
11272DDP     C167627  22.456  20.057  19.632  0.1692 -0.1433  0.1525
11272DDP     P167628  22.786  19.780  19.826  0.2468  0.3334 -0.2051
11272DDP     P267629  22.527  20.430  19.457 -0.3602 -0.0549  0.0900
11272DDP     C267630  22.348  20.598  19.065 -0.1335 -0.1819  0.3780
11272DDP     C367631  23.062  19.525  20.149  0.4915 -0.0049  0.0309
11272DDP     C467632  22.020  20.025  19.662 -0.0399 -0.2455 -0.1094
11273DDP     C167633   9.071  29.394  28.549  0.1313  0.0168  0.1921
11273DDP     P167634   8.876  29.864  28.443  0.3889 -0.0659 -0.0150
11273DDP     P267635   8.988  29.087  28.172 -0.0618 -0.1655  0.2038
11273DDP     C267636   9.016  28.797  27.826  0.1624 -0.0009  0.2703
11273DDP     C367637   8.734  30.050  28.089  0.0309 -0.0646  0.0707
11273DDP     C467638   9.082  29.266  28.980 -0.0838 -0.2258  0.0515
11274DDP     C167639  19.213  19.477  11.382  0.0518 -0.0403 -0.1409
11274DDP     P167640  19.052  19.791  11.122  0.2269 -0.1070  0.0714
11274DDP     P267641  19.391  19.430  11.890  0.0109 -0.3531 -0.0336
11274DDP     C267642  19.822  19.406  12.186  0.0942  0.0618 -0.1663
11274DDP     C367643  19.141  20.106  10.936 -0.0737 -0.1681  0.0683
11274DDP     C467644  19.537  19.138  11.259 -0.3350  0.2267 -0.0964
11275DDP     C167645  29.019  22.025  25.307 -0.0139 -0.2159 -0.0043
11275DDP     P167646  28.968  22.104  24.978  0.0549  0.1806  0.2416
11275DDP     P267647  29.270  21.774  25.440  0.0751 -0.2617  0.1338
11275DDP     C267648  29.500  21.403  25.655 -0.0751 -0.2309 -0.0022
11275DDP     C367649  29.117  21.800  24.614 -0.1384 -0.1405  0.0242
11275DDP     C467650  28.769  22.387  25.440 -0.2241  0.2249 -0.0447
11276DDP     C167651   9.871  15.608   4.287  0.1244  0.0177 -0.0832
11276DDP     P167652   9.746  15.998   4.472  0.1530  0.0028  0.2037
11276DDP     P267653   9.699  15.249   4.381 -0.0810  0.1171 -0.0869
11276DDP     C267654   9.386  14.962   4.265  0.1158  0.2543  0.0187
11276DDP     C367655   9.617  16.403   4.283 -0.0962  0.1224 -0.5420
11276DDP     C467656  10.326  15.674   4.147 -0.0998 -0.1939 -0.0420
11277DDP     C167657  26.553   1.076   3.407  0.1191  0.3464  0.4544
11277DDP     P167658  26.719   0.656   3.503  0.2367  0.0427 -0.2902
11277DDP     P267659  26.746   1.229   3.129  0.1316 -0.4443  0.1405
11277DDP     C267660  27.126   1.322   2.822 -0.0247 -0.1104  0.4782
11277DDP     C367661  27.031   0.362   3.621  0.1464  0.4289 -0.0414
11277DDP     C467662  26.165   1.343   3.660  0.1940  0.0591  0.0751
11278DDP     C167663   8.862  30.039  23.572  0.1871  0.0737 -0.3616
11278DDP     P167664   8.515  29.826  23.421 -0.1015  0.0259 -0.0266
11278DDP     P267665   9.197  29.864  23.838 -0.0976  0.1296 -0.1350
11278DDP     C267666   9.316  29.379  24.032 -0.0780 -0.1151 -0.0717
11278DDP     C367667   8.387  29.581  23.197  0.2381  0.1769 -0.3083
11278DDP     C467668   8.995   0.166  23.484 -0.1184 -0.1223  0.2341
11279DDP     C167669   2.754  21.466  18.865 -0.1260  0.1815 -0.2355
11279DDP     P167670   2.458  21.629  18.701  0.1196 -0.1113 -0.0415
11279DDP     P267671   3.082  21.169  18.739  0.0008  0.1425  0.0830
11279DDP     C267672   3.492  21.227  18.761 -0.0937 -0.1617  0.0054
11279DDP     C367673   2.238  21.615  18.323 -0.2783  0.1063  0.0284
11279DDP     C467674   2.659  21.529  19.255  0.2076  0.2575 -0.2191
11280DDP     C167675   5.629   9.843  12.854  0.1488 -0.2742 -0.0332
11280DDP     P167676   5.264   9.559  12.684  0.0687  0.6140  0.0815
11280DDP     P267677   5.564  10.243  13.217 -0.0430 -0.0682 -0.3562
11280DDP     C267678   5.470  10.665  13.398  0.1270  0.0356  0.1083
11280DDP     C367679   5.014   9.240  12.918 -0.2048 -0.0377  0.4645
11280DDP     C467680   5.897   9.682  12.653 -0.2580  0.0764  0.1990
11281DDP     C167681  15.618  26.991   7.485  0.0487  0.0480 -0.1249
11281DDP     P167682  15.558  27.451   7.303 -0.0275 -0.2410  0.1429
11281DDP     P267683  15.162  26.710   7.425  0.2174 -0.0206  0.2151
11281DDP     C267684  14.791  26.510   7.637 -0.1159  0.2362  0.0759
11281DDP     C367685  15.440  27.814   6.958  0.0523  0.0012  0.2167
11281DDP     C467686  15.889  27.084   7.731 -0.1438  0.0845 -0.3027
11282DDP     C167687  16.672  22.230  24.287  0.3069 -0.0372  0.0166
11282DDP     P167688  16.597  21.770  24.558  0.0086  0.0166  0.0755
11282DDP     P267689  16.633  22.627  24.478 -0.3398 -0.4160  0.0533
11282DDP     C267690  16.738  23.110  24.453 -0.1270 -0.0116 -0.0946
11282DDP     C367691  16.328  21.293  24.604 -0.4156  0.0311  0.0900
11282DDP     C467692  16.378  22.100  24.016 -0.0229  0.1188 -0.3532
11283DDP     C167693  18.545   2.612  11.901 -0.0579  0.1438 -0.0759
11283DDP     P167694  18.748   2.986  12.092  0.1527  0.1106 -0.0376
11283DDP     P267695  18.193   2.408  12.029  0.0187  0.1542 -0.0293
11283DDP     C267696  17.981   2.384  12.407 -0.0855 -0.2229 -0.1509
11283DDP     C367697  18.731   3.283  12.449  0.2796 -0.2192 -0.3028
11283DDP     C467698  18.777   2.448  11.516  0.0100 -0.3243 -0.0991
11284DDP     C167699  16.606  28.187   5.187  0.0771  0.1911 -0.0557
11284DDP     P167700  16.227  28.159   5.189  0.1990  0.1401  0.1506
11284DDP     P267701  16.850  28.013   5.461  0.4641  0.0608 -0.0290
11284DDP     C267702  17.091  27.802   5.654  0.2071 -0.3142 -0.1036
11284DDP     C367703  15.925  27.784   5.400  0.0071 -0.0850 -0.0387
11284DDP     C467704  16.650  28.532   4.820 -0.0230 -0.0067  0.1452
11285DDP     C167705   6.328   8.194  23.667 -0.1991 -0.0185  0.0406
11285DDP     P167706   5.852   8.390  23.702 -0.1372 -0.2684  0.1171
11285DDP     P267707   6.612   8.305  23.813  0.0794 -0.3309  0.3479
11285DDP     C267708   6.761   8.699  24.064 -0.0253 -0.0919 -0.0874
11285DDP     C367709   5.535   8.612  23.936 -0.0328 -0.0665 -0.0254
11285DDP     C467710   6.432   7.927  23.364  0.0509  0.2788  0.0738
11286DDP     C167711  15.240  10.340  25.501 -0.1949  0.0229  0.0176
11286DDP     P167712  15.175  10.248  25.136 -0.3716  0.3035 -0.0794
11286DDP     P267713  15.042  10.555  25.554 -0.0054 -0.0857  0.0237
11286DDP     C267714  14.866  10.897  25.689  0.0666 -0.0906  0.0014
11286DDP     C367715  15.164  10.224  24.653 -0.1127  0.3180  0.2770
11286DDP     C467716  15.344  10.077  25.819 -0.0266 -0.0157  0.2762
11287DDP     C167717  13.231  21.901   6.943  0.2639 -0.0402 -0.0705
11287DDP     P167718  13.396  21.438   6.836 -0.1224 -0.1211 -0.2160
11287DDP     P267719  13.027  22.051   7.345 -0.2998  0.1097 -0.1587
11287DDP     C267720  13.009  21.796   7.752 -0.0727  0.1048 -0.2834
11287DDP     C367721  13.603  21.029   6.806  0.2142 -0.2526 -0.0526
11287DDP     C467722  13.338  22.305   6.627  0.1323  0.0320  0.0693
11288DDP     C167723  13.335  29.683  11.992 -0.2103 -0.1182 -0.1965
11288DDP     P167724  13.165  29.492  12.409  0.2034 -0.2458  0.1973
11288DDP     P267725  13.560  30.161  11.889  0.1052  0.0953 -0.2155
11288DDP     C267726  13.700   0.212  11.916 -0.0626  0.4520 -0.1680
11288DDP     C367727  12.964  29.258  12.774  0.1251 -0.1082  0.2260
11288DDP     C467728  13.171  29.382  11.633  0.1921  0.3651  0.0528
11289DDP     C167729  16.383  18.245  25.300 -0.1156 -0.1860  0.1013
11289DDP     P167730  15.998  18.420  25.451  0.4181  0.0385  0.2634
11289DDP     P267731  16.682  18.118  25.650 -0.0088  0.2442 -0.2414
11289DDP     C267732  17.042  17.959  25.714 -0.0444 -0.1069 -0.1985
11289DDP     C367733  15.783  18.241  25.839 -0.0722  0.0573  0.3722
11289DDP     C467734  16.652  18.199  24.887 -0.0721 -0.0254  0.5819
11290DDP     C167735  14.792  18.319  14.916  0.0675  0.0614  0.2672
11290DDP     P167736  15.009  18.167  15.283 -0.0224  0.3407 -0.1942
11290DDP     P267737  14.397  18.365  14.810  0.1695  0.1701 -0.1283
11290DDP     C267738  13.947  18.471  14.688 -0.1840  0.1724 -0.1111
11290DDP     C367739  14.864  17.965  15.647 -0.1359 -0.0269  0.0481
11290DDP     C467740  15.030  18.519  14.670  0.1978 -0.2420 -0.0373
11291DDP     C167741  24.994  20.848   9.667 -0.0683 -0.0011  0.1816
11291DDP     P167742  24.678  20.741   9.684  0.1607 -0.1498 -0.0199
11291DDP     P267743  25.212  21.043   9.374  0.1941 -0.5464 -0.1515
11291DDP     C267744  25.011  21.123   8.892  0.1568 -0.2287  0.0028
11291DDP     C367745  24.423  21.003   9.836 -0.1704 -0.1268 -0.1088
11291DDP     C467746  25.135  20.541   9.871  0.0291 -0.3133 -0.4916
11292DDP     C167747  10.596   9.127  18.482 -0.0895  0.0501 -0.1235
11292DDP     P167748  10.781   9.316  18.178 -0.1494 -0.2651  0.3382
11292DDP     P267749  10.560   9.444  18.880  0.0049 -0.0864  0.3948
11292DDP     C267750  10.485   9.826  19.176  0.1002  0.0626  0.0783
11292DDP     C367751  11.165   9.338  18.116 -0.0366 -0.0557 -0.1666
11292DDP     C467752  10.475   8.726  18.456  0.1895 -0.1217 -0.2680
11293DDP     C167753  25.721  30.113  23.081 -0.0800 -0.1535  0.0986
11293DDP     P167754  25.935  29.984  23.350  0.0010  0.1090 -0.0866
11293DDP     P267755  25.672  30.185  22.560 -0.4100  0.0424  0.1820
11293DDP     C267756  25.446  30.076  22.162  0.1825  0.1970  0.1476
11293DDP     C367757  26.067  30.102  23.777 -0.1423  0.0777 -0.1310
11293DDP     C467758  25.492  30.263  23.431  0.0434  0.1568  0.0692
11294DDP     C167759  12.378  29.420   9.468 -0.2412  0.0030 -0.0907
11294DDP     P167760  12.682  29.550   9.789  0.0758  0.0197 -0.0578
11294DDP     P267761  12.394  29.288   9.038 -0.0829  0.0818 -0.1544
11294DDP     C267762  12.441  28.953   8.843  0.4246  0.0178  0.0586
11294DDP     C367763  13.143  29.449   9.759 -0.4244 -0.0764  0.0427
11294DDP     C467764  12.185  29.104   9.668  0.0764 -0.1083  0.0773
11295DDP     C167765  27.971  14.541  21.295 -0.1267  0.1000 -0.0843
11295DDP     P167766  28.170  14.217  21.553 -0.1033 -0.0647 -0.1483
11295DDP     P267767  27.613  14.816  21.382 -0.0718  0.1417 -0.0540
11295DDP     C267768  27.142  15.020  21.266 -0.2221 -0.2531  0.1903
11295DDP     C367769  28.517  13.955  21.545 -0.4199  0.1155  0.0560
11295DDP     C467770  27.971  14.546  20.823 -0.1388 -0.2176  0.1640
11296DDP     C167771  17.086   6.735  16.672  0.0224 -0.0057  0.1189
11296DDP     P167772  17.164   7.118  16.445  0.0598  0.0050  0.0162
11296DDP     P267773  17.262   6.348  16.560  0.0508  0.0930  0.2753
11296DDP     C267774  17.549   6.048  16.216  0.0788  0.2233  0.0767
11296DDP     C367775  17.022   7.512  16.276  0.0285  0.1826 -0.1965
11296DDP     C467776  16.607   6.671  16.742 -0.2880 -0.1193  0.1260
11297DDP     C167777  20.884  27.883   1.409 -0.3508 -0.0153  0.0421
11297DDP     P167778  20.668  27.737   1.134  0.1565 -0.1203  0.0691
11297DDP     P267779  20.566  27.910   1.742 -0.0064 -0.1912  0.2258
11297DDP     C267780  20.425  27.804   2.207  0.0681 -0.1991  0.6030
11297DDP     C367781  20.530  27.512   0.834  0.1887 -0.0926 -0.2673
11297DDP     C467782  21.259  28.021   1.356 -0.1243 -0.0231 -0.0738
11298DDP     C167783   8.137   7.568   5.795 -0.0170  0.2423  0.3352
11298DDP     P167784   7.906   7.839   6.053  0.0981  0.1880  0.1350
11298DDP     P267785   7.944   7.124   5.689  0.2302  0.1121  0.0842
11298DDP     C267786   7.967   6.703   5.578  0.1210 -0.1370 -0.0981
11298DDP     C367787   7.618   8.046   6.326  0.2250 -0.0999  0.2806
11298DDP     C467788   8.615   7.666   5.592 -0.0681  0.0838 -0.1146
11299DDP     C167789  24.580  22.623   2.469 -0.1246  0.4376  0.0479
11299DDP     P167790  24.198  22.878   2.566 -0.2024  0.2383 -0.0030
11299DDP     P267791  24.909  22.866   2.250  0.0234  0.0774 -0.0014
11299DDP     C267792  25.061  23.118   1.869 -0.3213  0.0196 -0.2887
11299DDP     C367793  23.811  22.958   2.666 -0.1392 -0.3390  0.1066
11299DDP     C467794  24.734  22.289   2.769  0.1192  0.0997  0.2173
11300DDP     C167795   6.517  24.636   4.847  0.1514  0.2203 -0.0304
11300DDP     P167796   6.570  24.399   4.562 -0.0080  0.3195 -0.1089
11300DDP     P267797   6.230  24.922   4.713 -0.1080  0.2964  0.1208
11300DDP     C267798   5.931  25.355   4.676 -0.1236  0.2131 -0.3216
11300DDP     C367799   6.517  24.362   4.118 -0.2842 -0.3344 -0.1413
11300DDP     C467800   6.787  24.621   5.279  0.1140 -0.2340  0.0659
11301DDP     C167801   5.946  29.920  13.873 -0.0718  0.0239  0.2813
11301DDP     P167802   6.211  30.247  14.082  0.1116  0.0113 -0.2943
11301DDP     P267803   6.159  29.781  13.427 -0.3984  0.0432 -0.1781
11301DDP     C267804   6.436  29.871  13.090 -0.0823  0.1609 -0.1422
11301DDP     C367805   6.358   0.345  13.927  0.1391  0.2185 -0.2484
11301DDP     C467806   5.714  29.572  13.980 -0.1255  0.2253  0.1797
11302DDP     C167807   1.042  15.857  18.348  0.2328 -0.1525  0.0486
11302DDP     P167808   0.618  15.603  18.515  0.1360  0.0288 -0.0102
11302DDP     P267809   1.200  16.189  18.309 -0.2167  0.2186  0.0634
11302DDP     C267810   1.559  16.227  18.287 -0.4822 -0.0829 -0.2254
11302DDP     C367811   0.324  15.252  18.775  0.2357  0.0661 -0.2115
11302DDP     C467812   1.399  15.690  18.086  0.1957  0.2993 -0.0900
11303DDP     C167813   4.156   1.612  15.572  0.0951 -0.4159 -0.1583
11303DDP     P167814   4.051   1.258  15.715  0.4690 -0.2008  0.0676
11303DDP     P267815   3.827   1.726  15.285 -0.0827 -0.0011 -0.0556
11303DDP     C267816   3.784   1.968  15.067  0.2603 -0.2572  0.0675
11303DDP     C367817   4.353   0.995  15.852  0.2211 -0.0895  0.2526
11303DDP     C467818   4.610   1.805  15.478  0.0834  0.0284  0.0613
11304DDP     C167819  25.746  25.754  27.708  0.0150  0.0061 -0.0473
11304DDP     P167820  26.001  25.774  28.055 -0.0761 -0.1284  0.2296
11304DDP     P267821  25.487  25.393  27.705  0.1893 -0.0582 -0.4405
11304DDP     C267822  25.100  25.400  27.401 -0.0639  0.1039  0.1595
11304DDP     C367823  26.163  25.948  28.341 -0.0869  0.1262 -0.1160
11304DDP     C467824  25.467  26.144  27.589  0.2159 -0.2403  0.1323
11305DDP     C167825   5.513   7.092  12.000  0.0334  0.2096  0.3550
11305DDP     P167826   5.329   7.254  11.680  0.0224  0.0898  0.1659
11305DDP     P267827   5.597   7.365  12.275  0.2490 -0.4000 -0.0657
11305DDP     C267828   5.630   7.826  12.379 -0.3371 -0.0311  0.1339
11305DDP     C367829   5.264   7.396  11.296  0.0655  0.3303  0.1148
11305DDP     C467830   5.605   6.631  12.105  0.0257 -0.1147  0.3291
11306DDP     C167831  11.361   4.548   9.729 -0.0886 -0.1974 -0.0156
11306DDP     P167832  11.797   4.759   9.903  0.0077 -0.0696  0.0836
11306DDP     P267833  11.071   4.388  10.010  0.1980 -0.2636 -0.1226
11306DDP     C267834  10.860   3.994  10.137 -0.1077 -0.0668 -0.0385
11306DDP     C367835  11.958   5.239   9.732  0.0328  0.0631 -0.0216
11306DDP     C467836  11.323   4.554   9.219 -0.0051 -0.0509 -0.0407
11307DDP     C167837  19.969  27.088   2.213 -0.0598 -0.1507  0.0373
11307DDP     P167838  20.394  27.314   2.319 -0.0249 -0.0777  0.2505
11307DDP     P267839  19.907  26.910   1.868  0.1794 -0.0076  0.0229
11307DDP     C267840  19.821  27.090   1.425 -0.0738 -0.2640  0.2431
11307DDP     C367841  20.763  27.594   2.488 -0.1539 -0.0671 -0.1811
11307DDP     C467842  19.671  26.965   2.531  0.0873 -0.0636 -0.1832
11308DDP     C167843  22.824  22.927   1.497  0.1789  0.1954  0.2149
11308DDP     P167844  22.594  22.852   0.983 -0.2310 -0.0854  0.1391
11308DDP     P267845  23.115  22.531   1.571  0.0607  0.2291 -0.1485
11308DDP     C267846  23.444  22.276   1.472 -0.1598 -0.2808 -0.0333
11308DDP     C367847  22.665  23.106   0.567 -0.0386  0.0522 -0.1961
11308DDP     C467848  23.009  23.337   1.667  0.0118 -0.2573  0.0983
11309DDP     C167849  16.688  16.798  11.231  0.1041 -0.0567 -0.0117
11309DDP     P167850  16.369  17.095  10.949  0.0077  0.1118 -0.2127
11309DDP     P267851  16.449  16.660  11.544  0.0813 -0.1428  0.3295
11309DDP     C267852  16.371  16.475  11.910  0.0080 -0.0652  0.2224
11309DDP     C367853  16.262  17.559  11.117 -0.1134  0.3246  0.1989
11309DDP     C467854  17.003  16.646  11.179  0.0715  0.0578  0.0847
11310DDP     C167855   1.817  26.991   2.655 -0.1564  0.1852 -0.0599
11310DDP     P167856   1.620  26.701   2.943  0.1711  0.2121  0.0211
11310DDP     P267857   2.006  27.385   2.693  0.0291  0.0655  0.2269
11310DDP     C267858   2.187  27.793   2.809  0.2639  0.2756 -0.0998
11310DDP     C367859   1.602  26.250   2.884  0.2774 -0.0372 -0.0232
11310DDP     C467860   1.897  26.865   2.227 -0.0845  0.0280  0.2189
11311DDP     C167861  27.375   1.227  23.390 -0.0619  0.0363  0.1731
11311DDP     P167862  27.611   1.314  23.818  0.1501 -0.0119 -0.1559
11311DDP     P267863  27.460   1.369  22.951 -0.3597  0.0769 -0.1741
11311DDP     C267864  27.468   1.592  22.588 -0.1717 -0.0586  0.1470
11311DDP     C367865  27.453   1.228  24.176 -0.1197  0.0839 -0.1194
11311DDP     C467866  27.152   0.818  23.517  0.2741  0.0578  0.0854
11312DDP     C167867  28.235   7.980  29.694  0.3178  0.3082  0.0609
11312DDP     P167868  28.298   8.100  30.155  0.0208 -0.2148 -0.1598
11312DDP     P267869  27.916   7.775  29.483  0.1495  0.1673 -0.2557
11312DDP     C267870  27.451   7.705  29.379 -0.1335  0.0799 -0.2306
11312DDP     C367871  28.084   7.828   0.180  0.0430  0.0336 -0.4702
11312DDP     C467872  28.253   8.455  29.476  0.2003 -0.1841  0.0370
11313DDP     C167873  18.741  25.307  20.057  0.0859 -0.0467  0.0498
11313DDP     P167874  18.706  25.729  20.067  0.1377 -0.2036 -0.1183
11313DDP     P267875  19.115  24.960  20.093  0.0079 -0.0629  0.1652
11313DDP     C267876  19.294  24.565  20.286 -0.2604  0.1173 -0.0592
11313DDP     C367877  18.694  26.094  19.794 -0.1847 -0.1157  0.1025
11313DDP     C467878  18.451  24.998  19.769  0.0683 -0.0089 -0.0016
11314DDP     C167879  29.212   0.464  26.204  0.0464  0.1696  0.1823
11314DDP     P167880  29.044   0.599  26.607  0.1534  0.1216 -0.0684
11314DDP     P267881  28.888   0.387  25.851  0.3580  0.1124  0.0340
11314DDP     C267882  28.537   0.188  25.685 -0.3853 -0.0159  0.5609
11314DDP     C367883  28.557   0.684  26.712  0.1532 -0.0500 -0.1307
11314DDP     C467884  29.628   0.235  26.143  0.2201 -0.0582 -0.0822
11315DDP     C167885  16.533   7.528  11.554 -0.1929  0.2375 -0.2551
11315DDP     P167886  16.873   7.716  11.342  0.0415  0.0616  0.0444
11315DDP     P267887  16.230   7.550  11.250 -0.0406  0.1147 -0.1449
11315DDP     C267888  16.317   7.706  10.802 -0.0401  0.0855 -0.2030
11315DDP     C367889  17.314   7.729  11.216  0.0190  0.2725  0.0560
11315DDP     C467890  16.541   7.263  11.855 -0.0542 -0.0805 -0.1355
11316DDP     C167891  28.928  27.993  19.563 -0.1717  0.1380  0.4127
11316DDP     P167892  29.001  28.225  19.967  0.2160 -0.3608  0.1633
11316DDP     P267893  29.266  27.938  19.219 -0.1217  0.3792 -0.0510
11316DDP     C267894  29.302  28.328  18.943 -0.1062  0.0424 -0.1844
11316DDP     C367895  29.405  28.431  20.177  0.1270 -0.0173 -0.1790
11316DDP     C467896  28.767  27.618  19.523 -0.1150  0.2151 -0.1329
11317DDP     C167897  11.070  25.750   7.067 -0.2896 -0.0716  0.0396
11317DDP     P167898  11.422  25.790   6.772  0.1588  0.0834 -0.0262
11317DDP     P267899  10.829  26.082   7.037  0.1497 -0.4325  0.0601
11317DDP     C267900  10.557  26.341   6.893 -0.1503 -0.3969  0.4130
11317DDP     C367901  11.936  25.598   6.781 -0.0710  0.1984 -0.1365
11317DDP     C467902  11.058  25.453   7.254  0.1431 -0.1317  0.0719
11318DDP     C167903   4.292  27.117  14.232  0.1570  0.0196  0.3731
11318DDP     P167904   4.717  27.144  14.280  0.2450 -0.3533  0.0700
11318DDP     P267905   4.231  27.543  14.275 -0.0556  0.1594 -0.1422
11318DDP     C267906   4.160  27.918  13.958 -0.3900 -0.1429 -0.1516
11318DDP     C367907   5.086  27.000  14.149  0.1261 -0.1756  0.0777
11318DDP     C467908   4.313  26.867  13.715 -0.1645  0.2788 -0.0833
11319DDP     C167909  26.356  17.687   2.231 -0.1312  0.1076 -0.1618
11319DDP     P167910  26.323  17.290   2.374 -0.0697  0.2198  0.2441
11319DDP     P267911  26.739  17.810   2.258  0.0762 -0.2484  0.4805
11319DDP     C267912  26.869  18.042   2.060  0.0768  0.0054 -0.0977
11319DDP     C367913  26.345  16.921   2.653 -0.2581  0.0161  0.1479
11319DDP     C467914  26.294  17.795   2.639 -0.4205  0.3886 -0.2744
11320DDP     C167915  27.739  12.328  20.360  0.1613 -0.3581 -0.2107
11320DDP     P167916  27.318  12.397  20.130  0.1260 -0.1362 -0.1332
11320DDP     P267917  28.077  12.493  20.073  0.0355  0.1135 -0.1533
11320DDP     C267918  28.527  12.606  19.933 -0.2013 -0.1084 -0.0935
11320DDP     C367919  26.921  12.186  20.063 -0.0056  0.0308  0.0770
11320DDP     C467920  27.831  12.231  20.836 -0.0139 -0.3239  0.0227
11321DDP     C167921  16.004  19.418  16.342 -0.0996  0.1034  0.0530
11321DDP     P167922  15.825  19.048  16.075 -0.0737  0.0836  0.0555
11321DDP     P267923  16.432  19.316  16.370  0.2603 -0.1354  0.0104
11321DDP     C267924  16.779  19.243  16.670  0.0498  0.4550  0.0555
11321DDP     C367925  15.474  18.697  15.945  0.0629 -0.0465  0.4304
11321DDP     C467926  15.846  19.847  16.477  0.2456  0.1141 -0.0589
11322DDP     C167927  21.395   1.043   3.785  0.1718  0.4244 -0.1041
11322DDP     P167928  21.658   1.171   4.085 -0.5542  0.2346 -0.0410
11322DDP     P267929  21.404   1.186   3.424  0.0927  0.0282  0.1264
11322DDP     C267930  21.447   0.961   3.065 -0.0425  0.2142  0.1531
11322DDP     C367931  21.839   1.355   4.441  0.0047 -0.0616 -0.0158
11322DDP     C467932  20.986   0.829   3.925 -0.2820 -0.2254  0.0146
11323DDP     C167933   5.898  10.204   6.163  0.0214  0.0975 -0.0296
11323DDP     P167934   6.204   9.781   6.107 -0.1061  0.2724 -0.1531
11323DDP     P267935   6.084  10.500   6.389 -0.1926 -0.2011  0.2594
11323DDP     C267936   5.934  10.431   6.856  0.0874 -0.0368 -0.0166
11323DDP     C367937   6.526   9.429   5.980 -0.0294  0.2852 -0.0893
11323DDP     C467938   5.415  10.122   6.207  0.0169 -0.0924  0.0523
11324DDP     C167939  10.019  24.231   7.856  0.1825 -0.1077 -0.2429
11324DDP     P167940   9.819  24.416   7.441 -0.2307  0.1619  0.1615
11324DDP     P267941   9.610  24.239   8.244 -0.2624 -0.1110  0.0238
11324DDP     C267942   9.696  23.867   8.522 -0.0322 -0.1679  0.0071
11324DDP     C367943   9.826  24.843   7.287  0.0955 -0.2284 -0.0992
11324DDP     C467944  10.489  24.199   8.089  0.0095  0.0934  0.1107
11325DDP     C167945  21.599  21.427  19.881  0.0980 -0.1478  0.2213
11325DDP     P167946  21.712  21.248  20.290 -0.0220 -0.1099  0.2178
11325DDP     P267947  21.876  21.612  19.635 -0.1233 -0.0293  0.1864
11325DDP     C267948  22.306  21.494  19.326  0.1955 -0.1347  0.1483
11325DDP     C367949  21.829  20.979  20.453 -0.1761  0.3058 -0.2998
11325DDP     C467950  21.228  21.337  19.603  0.4666 -0.1773 -0.0881
11326DDP     C167951  11.086  18.503  19.550  0.0152  0.3549 -0.1754
11326DDP     P167952  10.969  18.388  19.113 -0.2701  0.2032 -0.2035
11326DDP     P267953  11.223  18.108  19.930 -0.0510 -0.0729  0.0822
11326DDP     C267954  11.555  18.074  20.164  0.0727 -0.2826 -0.1284
11326DDP     C367955  10.561  18.319  18.955 -0.1056  0.0567 -0.3864
11326DDP     C467956  11.313  19.080  19.688  0.0254 -0.1450  0.1273
11327DDP     C167957   3.478   2.419   4.793  0.0870 -0.1123 -0.2061
11327DDP     P167958   3.026   2.509   5.025  0.3169 -0.2112  0.2803
11327DDP     P267959   3.850   2.504   5.149  0.1152  0.0301  0.3859
11327DDP     C267960   4.336   2.588   5.323  0.1095  0.2829  0.2177
11327DDP     C367961   2.664   2.714   4.946 -0.5307 -0.0657  0.1867
11327DDP     C467962   3.513   2.512   4.339  0.1691 -0.6911  0.1309
11328DDP     C167963  14.396  13.155   2.462  0.1381 -0.1042  0.2015
11328DDP     P167964  14.710  12.850   2.203  0.1130  0.1434  0.1612
11328DDP     P267965  14.135  13.484   2.383 -0.1138  0.0197  0.0856
11328DDP     C267966  13.799  13.553   2.297 -0.0458  0.4282  0.2048
11328DDP     C367967  14.970  12.596   1.892  0.0691  0.1620  0.2912
11328DDP     C467968  14.404  13.007   2.946  0.0005  0.2704 -0.0335
11329DDP     C167969  19.571  23.863  24.366 -0.0726 -0.0733 -0.3532
11329DDP     P167970  19.194  23.837  24.129  0.0327 -0.1749  0.2085
11329DDP     P267971  19.946  23.686  24.226 -0.2374 -0.1792 -0.0750
11329DDP     C267972  20.117  23.295  24.443  0.0166 -0.2055  0.0490
11329DDP     C367973  18.666  23.880  24.180 -0.0065  0.1082  0.1809
11329DDP     C467974  19.473  24.044  24.801 -0.2571 -0.1518 -0.4995
11330DDP     C167975   3.010  26.458   3.198 -0.2345  0.2963  0.0101
11330DDP     P167976   3.189  26.379   3.569  0.2117 -0.1665 -0.1173
11330DDP     P267977   3.112  26.081   3.009 -0.0528 -0.1942  0.0793
11330DDP     C267978   3.344  25.951   2.704  0.1910 -0.1298 -0.0103
11330DDP     C367979   3.499  26.201   3.863  0.1024 -0.0599  0.0414
11330DDP     C467980   3.247  26.793   2.890  0.4317  0.1729 -0.1139
11331DDP     C167981   3.876  19.636  18.952  0.1258  0.1705 -0.0304
11331DDP     P167982   4.166  19.530  19.318  0.0285  0.0490 -0.0997
11331DDP     P267983   4.013  19.381  18.565 -0.0253  0.1259  0.1018
11331DDP     C267984   4.308  19.042  18.341  0.1306  0.0790  0.2438
11331DDP     C367985   4.430  19.309  19.569 -0.0121 -0.0821 -0.1198
11331DDP     C467986   3.435  19.809  18.857 -0.1077  0.0156 -0.0352
11332DDP     C167987   9.379  24.058   6.074 -0.0118 -0.2637  0.0658
11332DDP     P167988   9.220  24.045   5.712  0.0131  0.4200  0.0832
11332DDP     P267989   9.856  23.838   6.101  0.0276  0.1267 -0.1071
11332DDP     C267990  10.307  23.729   6.093 -0.0583  0.0490  0.5564
11332DDP     C367991   8.821  24.052   5.972 -0.2465 -0.0857 -0.0429
11332DDP     C467992   9.115  24.157   6.422 -0.1420  0.0636  0.2303
11333DDP     C167993   9.353   2.907  18.458 -0.2809 -0.1535 -0.0250
11333DDP     P167994   8.961   2.665  18.663 -0.0228 -0.1238 -0.1417
11333DDP     P267995   9.586   2.631  18.434 -0.1798  0.0036  0.2699
11333DDP     C267996   9.973   2.431  18.600  0.2723  0.2457 -0.1294
11333DDP     C367997   8.656   2.427  18.694 -0.1379  0.0070 -0.1766
11333DDP     C467998   9.393   3.345  18.349  0.0900 -0.1669  0.1439
11334DDP     C167999   9.533  22.753  29.943 -0.0269 -0.0627  0.2046
11334DDP     P168000   9.207  22.536  30.048 -0.1238 -0.2921  0.0966
11334DDP     P268001   9.646  23.183  29.987  0.1086 -0.1606  0.1896
11334DDP     C268002   9.739  23.485  29.636  0.0225 -0.0997  0.0353
11334DDP     C368003   8.871  22.593  29.882  0.0057  0.1566 -0.4542
11334DDP     C468004   9.843  22.582  29.670 -0.3119 -0.0500 -0.1909
11335DDP     C168005  21.085  19.520  25.007 -0.0133 -0.0323 -0.2482
11335DDP     P168006  21.173  19.797  24.671  0.1670  0.0509  0.1000
11335DDP     P268007  21.009  19.801  25.339  0.2860  0.1517 -0.1968
11335DDP     C268008  21.271  19.996  25.620 -0.1470 -0.2438  0.3280
11335DDP     C368009  21.260  20.085  24.409  0.0623  0.2257 -0.2109
11335DDP     C468010  21.058  19.077  25.086 -0.0166 -0.2682 -0.0192
11336DDP     C168011  22.777  25.284   9.494 -0.2193  0.2309  0.1885
11336DDP     P168012  22.470  25.008   9.520 -0.1905  0.0494 -0.0806
11336DDP     P268013  22.659  25.653   9.623  0.0422 -0.0857  0.3445
11336DDP     C268014  22.882  26.008   9.792  0.1728 -0.1498 -0.1826
11336DDP     C368015  22.310  24.654   9.231 -0.1893  0.0974 -0.6081
11336DDP     C468016  22.951  25.040   9.795 -0.0796  0.1716 -0.1830
11337DDP     C168017  26.501  18.703  23.168 -0.1459  0.1431 -0.0225
11337DDP     P168018  26.729  18.481  23.381 -0.3710  0.0093 -0.1145
11337DDP     P268019  26.115  18.546  23.145  0.0376  0.2478  0.1094
11337DDP     C268020  25.710  18.575  23.071 -0.1976 -0.0264 -0.2709
11337DDP     C368021  26.799  18.236  23.859  0.0330 -0.1222  0.1535
11337DDP     C468022  26.624  18.881  22.715  0.0922 -0.0883 -0.5328
11338DDP     C168023   5.917  12.047  13.675 -0.2144  0.2557  0.1159
11338DDP     P168024   6.087  11.693  13.785 -0.1039 -0.0522 -0.0459
11338DDP     P268025   5.487  12.062  13.646  0.0529  0.1315  0.0658
11338DDP     C268026   5.057  11.829  13.395 -0.2216  0.0591  0.0805
11338DDP     C368027   6.521  11.585  13.695  0.1063 -0.2158  0.0324
11338DDP     C468028   6.131  12.426  13.669  0.1905 -0.3076  0.3359
11339DDP     C168029  10.195   0.809  24.378 -0.2795 -0.0167 -0.0348
11339DDP     P168030  10.110   0.657  24.743  0.0995  0.1497 -0.1799
11339DDP     P268031  10.470   0.626  24.151  0.2395  0.1994  0.1221
11339DDP     C268032  10.779   0.311  24.202 -0.3725 -0.1258  0.2668
11339DDP     C368033   9.842   0.635  25.045 -0.2169 -0.0479  0.1835
11339DDP     C468034  10.011   1.252  24.308  0.0091 -0.2719  0.0484
11340DDP     C168035  23.465   3.253   3.071 -0.2946 -0.4080  0.2802
11340DDP     P168036  23.768   3.396   3.008 -0.2212  0.1906 -0.2198
11340DDP     P268037  23.089   3.513   3.152 -0.0023 -0.0397 -0.0823
11340DDP     C268038  23.040   3.725   3.453  0.1491  0.3250  0.1200
11340DDP     C368039  24.258   3.425   2.974 -0.1676 -0.0509 -0.3773
11340DDP     C468040  23.568   2.862   2.932  0.1596 -0.2318 -0.3625
11341DDP     C168041   9.791   0.932  11.997  0.1158  0.0279  0.6522
11341DDP     P168042   9.608   0.685  12.277 -0.1751  0.3808 -0.0237
11341DDP     P268043  10.112   1.040  12.200  0.1922 -0.0968 -0.0797
11341DDP     C268044  10.491   1.116  12.467 -0.1936 -0.0084  0.0049
11341DDP     C368045   9.220   0.664  12.413 -0.0186  0.3648  0.0485
11341DDP     C468046   9.845   0.954  11.517  0.2625  0.0575 -0.1545
11342DDP     C168047   0.091  25.789   3.140  0.1792 -0.0981 -0.1846
11342DDP     P168048   0.261  26.233   3.334 -0.0687 -0.0370 -0.1727
11342DDP     P268049   0.377  25.634   2.845 -0.1502 -0.0164  0.0641
11342DDP     C268050   0.797  25.739   2.699 -0.0621  0.1517 -0.0566
11342DDP     C368051   0.132  26.578   3.503  0.2570  0.0327 -0.2151
11342DDP     C468052  30.013  25.588   3.095  0.2424 -0.0691 -0.2419
11343DDP     C168053  29.694   3.158   9.347  0.1079 -0.0257 -0.3123
11343DDP     P168054  29.689   2.728   9.201 -0.0840  0.3493 -0.0522
11343DDP     P268055  29.569   3.546   9.112 -0.0485 -0.0649 -0.2189
11343DDP     C268056  29.242   3.607   8.858 -0.3785  0.1106  0.1802
11343DDP     C368057  29.918   2.465   8.948  0.0182  0.0756  0.1485
11343DDP     C468058  30.066   3.115   9.758 -0.0849 -0.0149 -0.2400
11344DDP     C168059  28.687  19.948  28.495 -0.2552  0.2447  0.0156
11344DDP     P168060  28.382  19.916  28.139 -0.3438 -0.0261  0.4229
11344DDP     P268061  28.459  20.164  28.674  0.0422  0.0064  0.2570
11344DDP     C268062  28.540  20.585  28.900  0.1145  0.1912 -0.2579
11344DDP     C368063  28.490  19.881  27.706 -0.0526 -0.2369 -0.1693
11344DDP     C468064  29.042  19.828  28.446  0.0763 -0.3252 -0.1086
11345DDP     C168065  24.488  21.857   2.137 -0.0607 -0.1684  0.1988
11345DDP     P168066  24.402  22.155   1.659  0.1183 -0.0150  0.0011
11345DDP     P268067  24.211  22.070   2.533  0.1329 -0.0464 -0.1338
11345DDP     C268068  24.004  21.784   2.777 -0.0176 -0.4837  0.3260
11345DDP     C368069  24.284  22.591   1.548  0.0167  0.1381 -0.0568
11345DDP     C468070  24.864  21.578   2.120  0.1583  0.0453  0.1907
11346DDP     C168071  12.848  14.210  30.127 -0.0060  0.3453  0.0789
11346DDP     P168072  12.720  13.838   0.167 -0.1281  0.3953  0.2209
11346DDP     P268073  13.168  14.387  30.228  0.1587 -0.0486  0.0187
11346DDP     C268074  13.550  14.215   0.140 -0.0335 -0.3667 -0.2116
11346DDP     C368075  12.946  13.621   0.390 -0.0697 -0.2536  0.0187
11346DDP     C468076  12.564  14.485  29.903 -0.2239  0.0571 -0.1789
11347DDP     C168077  15.483  24.100  21.986 -0.1409  0.0324 -0.0805
11347DDP     P168078  15.311  24.090  22.408  0.0047  0.2458  0.1501
11347DDP     P268079  15.863  24.224  22.004 -0.1841 -0.0336 -0.0089
11347DDP     C268080  16.268  24.128  22.025  0.0093  0.2602 -0.2646
11347DDP     C368081  14.889  24.014  22.722  0.0268 -0.2366 -0.1367
11347DDP     C468082  15.396  24.035  21.489  0.2243 -0.1314  0.0544
11348DDP     C168083  21.997  27.804   5.526  0.1041  0.2710  0.1765
11348DDP     P168084  21.694  28.010   5.382  0.2036 -0.5149  0.2900
11348DDP     P268085  21.987  27.549   5.991  0.0796  0.3696 -0.0401
11348DDP     C268086  22.000  27.350   6.330  0.2883 -0.0923 -0.3045
11348DDP     C368087  21.405  28.305   5.396 -0.0321 -0.1267 -0.0013
11348DDP     C468088  22.358  27.692   5.177  0.1096 -0.3098 -0.0664
11349DDP     C168089   8.622   6.226  24.671 -0.1435  0.2583 -0.0247
11349DDP     P168090   8.571   6.071  24.243 -0.2783  0.0609  0.6581
11349DDP     P268091   8.886   6.492  24.607 -0.1578 -0.0985 -0.1802
11349DDP     C268092   9.105   6.811  24.319 -0.1516 -0.1692  0.1463
11349DDP     C368093   8.275   5.925  23.939  0.0418  0.2687  0.0896
11349DDP     C468094   8.282   6.293  24.913 -0.1440  0.3358 -0.0104
11350DDP     C168095   5.536  29.120   7.468  0.0332 -0.1204  0.1447
11350DDP     P168096   5.203  29.128   7.707  0.1390  0.2538 -0.0599
11350DDP     P268097   5.957  29.140   7.758 -0.1298 -0.1642  0.2223
11350DDP     C268098   6.301  29.350   7.603  0.1330 -0.0026 -0.1158
11350DDP     C368099   4.990  29.140   8.100 -0.2495  0.0996  0.1428
11350DDP     C468100   5.467  29.181   7.041 -0.1839 -0.1997  0.2071
11351DDP     C168101   4.900  21.454  23.519 -0.1908  0.3953  0.0941
11351DDP     P168102   5.178  21.721  23.426  0.1090 -0.3493 -0.3720
11351DDP     P268103   4.815  21.531  23.920  0.3283 -0.0227  0.0738
11351DDP     C268104   4.852  21.606  24.316 -0.0437 -0.1744 -0.2209
11351DDP     C368105   5.248  22.218  23.516 -0.2732 -0.3613  0.1362
11351DDP     C468106   4.545  21.306  23.293  0.1598 -0.0318 -0.0633
11352DDP     C168107   8.053  19.960  27.347  0.0155  0.0826  0.3485
11352DDP     P168108   8.034  19.418  27.358  0.3452 -0.0476 -0.1462
11352DDP     P268109   7.932  20.127  27.730 -0.3382 -0.4032 -0.2023
11352DDP     C268110   7.758  19.986  28.140 -0.2947  0.1755 -0.1795
11352DDP     C368111   8.119  18.981  27.343  0.1582  0.3784  0.0035
11352DDP     C468112   8.257  20.126  27.014 -0.1967 -0.2986  0.0934
11353DDP     C168113   9.201  27.910  15.213 -0.0128  0.1172 -0.0279
11353DDP     P168114   9.325  28.298  15.127  0.0626  0.1131 -0.2092
11353DDP     P268115   9.017  27.908  15.581 -0.0179  0.0123  0.0992
11353DDP     C268116   8.562  28.126  15.625  0.0407  0.2002 -0.2121
11353DDP     C368117   9.241  28.522  14.834  0.2183 -0.0084  0.1433
11353DDP     C468118   9.325  27.424  15.053 -0.1915  0.2460  0.0252
11354DDP     C168119   6.142   3.365  15.472  0.1913  0.0755  0.6060
11354DDP     P168120   6.241   2.889  15.419  0.0792 -0.0710  0.1285
11354DDP     P268121   6.404   3.664  15.308 -0.1354  0.1529 -0.0492
11354DDP     C268122   6.576   3.926  14.888 -0.1289 -0.0565  0.1563
11354DDP     C368123   6.172   2.670  15.033 -0.2516  0.0574  0.0282
11354DDP     C468124   5.673   3.402  15.587  0.0908  0.3311 -0.1420
11355DDP     C168125   1.192   7.106  11.456  0.0206 -0.4339 -0.1149
11355DDP     P168126   1.024   7.518  11.360 -0.3971  0.1680 -0.2129
11355DDP     P268127   1.550   7.280  11.361  0.0762  0.0941 -0.0097
11355DDP     C268128   1.753   7.147  11.062  0.1240 -0.0179  0.1698
11355DDP     C368129   1.109   8.001  11.338  0.0072 -0.2990  0.2379
11355DDP     C468130   0.946   6.723  11.568 -0.0413 -0.1696  0.1830
11356DDP     C168131  30.101   9.629  15.632 -0.1105 -0.0072 -0.0457
11356DDP     P168132   0.196   9.791  15.672  0.2960 -0.1282  0.1146
11356DDP     P268133  29.831   9.649  16.065 -0.1863 -0.0697  0.0458
11356DDP     C268134  29.843   9.817  16.492  0.0750  0.0519 -0.2640
11356DDP     C368135   0.445   9.762  15.427 -0.0585  0.0423  0.0117
11356DDP     C468136  30.115   9.211  15.335  0.0582  0.2230  0.1419
11357DDP     C168137   9.980   9.910  19.755 -0.4148  0.1382 -0.2428
11357DDP     P168138   9.991   9.996  19.363 -0.0917  0.2691  0.1648
11357DDP     P268139  10.163   9.572  19.904  0.0249 -0.1293  0.2869
11357DDP     C268140  10.380   9.601  20.370  0.3620 -0.0933  0.2413
11357DDP     C368141   9.654  10.336  19.125 -0.1361  0.1118 -0.1351
11357DDP     C468142   9.658  10.052  20.011 -0.0373  0.2229  0.3639
11358DDP     C168143  15.064  14.839   5.219  0.0072 -0.0112  0.2295
11358DDP     P168144  15.445  14.890   5.140 -0.0366  0.0451 -0.2737
11358DDP     P268145  14.811  15.266   5.211 -0.1300  0.2018  0.0681
11358DDP     C268146  14.717  15.309   5.620 -0.1175  0.0670 -0.1452
11358DDP     C368147  15.817  14.779   4.913 -0.3876 -0.0873 -0.1632
11358DDP     C468148  14.814  14.508   5.175 -0.1971  0.1530 -0.2966
11359DDP     C168149   1.935   3.043  26.623  0.2037 -0.1991  0.2241
11359DDP     P168150   1.568   3.017  26.786 -0.1062 -0.1850  0.0935
11359DDP     P268151   2.311   2.783  26.691  0.0042 -0.0666 -0.1225
11359DDP     C268152   2.681   2.727  26.568 -0.0687  0.2209 -0.1613
11359DDP     C368153   1.146   2.909  26.833  0.1932 -0.2464  0.0447
11359DDP     C468154   1.925   3.210  26.131 -0.0953  0.0013 -0.1178
11360DDP     C168155  21.602  20.410  22.503  0.1351  0.0660 -0.0554
11360DDP     P168156  21.711  20.483  22.152 -0.2978 -0.0614 -0.1815
11360DDP     P268157  21.665  19.969  22.495  0.0369 -0.0010 -0.0165
11360DDP     C268158  21.406  19.744  22.534  0.0744 -0.2027  0.1013
11360DDP     C368159  21.676  20.914  21.937 -0.0468 -0.3603 -0.1956
11360DDP     C468160  21.391  20.553  22.839 -0.1210 -0.1848  0.2370
11361DDP     C168161   9.633   0.196   2.063  0.0094  0.0532  0.2031
11361DDP     P168162   9.621   0.028   2.498  0.0083 -0.2152 -0.1670
11361DDP     P268163   9.963  30.219   1.910 -0.2548  0.2083 -0.0926
11361DDP     C268164  10.057  29.838   1.921 -0.0355 -0.3179  0.0728
11361DDP     C368165   9.199  30.259   2.689  0.0493  0.2097 -0.4049
11361DDP     C468166   9.342   0.445   1.867 -0.2419  0.0969  0.1362
11362DDP     C168167  19.490  23.107  23.880 -0.4157 -0.3907  0.0404
11362DDP     P168168  19.101  22.932  23.949 -0.1882  0.0142  0.0215
11362DDP     P268169  19.683  23.270  24.237 -0.1783  0.0584 -0.3109
11362DDP     C268170  19.666  23.532  24.728 -0.4602 -0.0403 -0.3215
11362DDP     C368171  18.709  22.942  23.670 -0.2719  0.0472 -0.2986
11362DDP     C468172  19.660  23.250  23.526 -0.2174 -0.1010 -0.0354
11363DDP     C168173  19.871  29.981  25.781 -0.2817 -0.2210  0.0050
11363DDP     P168174  19.771  29.828  26.039 -0.0829  0.0695  0.0614
11363DDP     P268175  20.298  29.874  25.538 -0.1260 -0.1220 -0.0969
11363DDP     C268176  20.555  30.244  25.497 -0.0904  0.2048 -0.0011
11363DDP     C368177  19.593  29.488  26.173 -0.0038  0.2348 -0.1640
11363DDP     C468178  19.595  30.217  25.561  0.4469 -0.0788  0.0542
11364DDP     C168179  12.534   6.262  14.280  0.1469  0.2858  0.1983
11364DDP     P168180  12.692   5.845  14.161  0.0826 -0.1262  0.3602
11364DDP     P268181  12.727   6.618  14.029  0.3417 -0.0554  0.2157
11364DDP     C268182  13.130   6.981  14.022  0.1813 -0.0854  0.2235
11364DDP     C368183  12.943   5.430  14.255 -0.1425 -0.2407  0.1178
11364DDP     C468184  12.038   6.173  14.353 -0.1003 -0.0632  0.1059
11365DDP     C168185  29.930   9.759   3.025 -0.2516  0.1867 -0.1564
11365DDP     P168186  30.205   9.979   3.335  0.1124  0.0291  0.0532
11365DDP     P268187  29.830  10.039   2.661  0.1936  0.1592  0.0941
11365DDP     C268188  29.527  10.091   2.364 -0.1765 -0.2303 -0.3540
11365DDP     C368189   0.310  10.163   3.533  0.1974  0.2118 -0.2537
11365DDP     C468190  29.887   9.323   2.975 -0.1172  0.3233 -0.1279
11366DDP     C168191  17.200   1.640   5.389 -0.0940 -0.1595  0.1082
11366DDP     P168192  16.805   1.706   5.382  0.1463  0.0978  0.0937
11366DDP     P268193  17.254   1.739   5.795  0.0989 -0.1922  0.0614
11366DDP     C268194  16.939   1.881   5.991  0.0854 -0.1376 -0.0910
11366DDP     C368195  16.402   1.355   5.443 -0.1777 -0.0863  0.1149
11366DDP     C468196  17.556   1.557   5.103 -0.0666 -0.1015 -0.2484
11367DDP     C168197  10.161  15.036  19.747 -0.0436  0.1263 -0.1470
11367DDP     P168198   9.898  15.057  19.329 -0.1464 -0.0188 -0.0326
11367DDP     P268199  10.354  14.643  19.903 -0.1294 -0.3731 -0.0800
11367DDP     C268200  10.487  14.609  20.316 -0.0438 -0.2384 -0.0359
11367DDP     C368201   9.798  15.046  18.872 -0.2099 -0.2948 -0.1816
11367DDP     C468202  10.250  15.435  19.854  0.0262  0.0691  0.2650
11368DDP     C168203  15.129  27.834   0.835  0.1020 -0.2327  0.0955
11368DDP     P168204  15.252  28.279   0.911  0.0379  0.1472  0.5497
11368DDP     P268205  14.827  27.970   0.722  0.2663 -0.2914  0.1299
11368DDP     C268206  14.710  28.381   0.776 -0.0103  0.1737 -0.1231
11368DDP     C368207  15.132  28.737   0.979 -0.0144  0.0714 -0.1273
11368DDP     C468208  15.211  27.430   0.996 -0.2602  0.0347 -0.1813
11369DDP     C168209  21.846  10.294  25.725  0.0154  0.0928 -0.0037
11369DDP     P168210  21.808  10.644  25.954 -0.1865  0.1822  0.1164
11369DDP     P268211  21.831  10.036  25.418 -0.0314 -0.3641 -0.0359
11369DDP     C268212  21.475   9.813  25.150  0.0285  0.1065  0.1256
11369DDP     C368213  21.449  10.916  26.130 -0.4614 -0.2503 -0.0877
11369DDP     C468214  21.690  10.058  26.058 -0.1083  0.0537  0.3275
11370DDP     C168215   1.855   0.741  15.480 -0.0979  0.3062 -0.0647
11370DDP     P168216   1.567   0.562  15.771 -0.2257  0.2113 -0.1965
11370DDP     P268217   1.951   0.432  15.418  0.0638 -0.0180  0.4095
11370DDP     C268218   2.359   0.233  15.276 -0.0752 -0.0262 -0.0242
11370DDP     C368219   1.375   0.165  15.922 -0.1236 -0.0664 -0.0186
11370DDP     C468220   2.083   1.118  15.594 -0.1374  0.0716  0.0698
11371DDP     C168221   8.567  18.630  16.746 -0.3104  0.1384 -0.1449
11371DDP     P168222   8.339  18.291  16.909 -0.1559  0.2785  0.2843
11371DDP     P268223   8.814  18.627  17.043  0.2318  0.3813  0.1213
11371DDP     C268224   8.996  18.589  17.423  0.1584 -0.0588  0.1119
11371DDP     C368225   8.261  17.765  17.002  0.0049 -0.2402  0.0545
11371DDP     C468226   8.483  19.024  16.501  0.3315 -0.0416 -0.1925
11372DDP     C168227   2.653  22.196   1.012  0.0977 -0.0656 -0.1672
11372DDP     P168228   2.349  21.732   1.065 -0.0502  0.0624  0.2590
11372DDP     P268229   2.972  22.303   0.836  0.2250 -0.1467  0.2581
11372DDP     C268230   3.263  22.594   1.073  0.2775  0.0352  0.0314
11372DDP     C368231   1.966  21.727   0.694  0.0052 -0.0032  0.1689
11372DDP     C468232   2.389  22.541   1.020  0.0784 -0.2060 -0.1173
11373DDP     C168233  25.181   3.935  18.849  0.0378 -0.0301  0.0421
11373DDP     P168234  24.911   4.096  18.456 -0.0318 -0.1104 -0.0014
11373DDP     P268235  25.387   4.219  18.840 -0.1988 -0.1190  0.2557
11373DDP     C268236  25.828   4.384  18.907 -0.2008 -0.0515  0.2144
11373DDP     C368237  24.789   4.144  18.082  0.2053 -0.0798  0.6408
11373DDP     C468238  25.102   3.711  19.251  0.0381  0.0601 -0.3579
11374DDP     C168239  23.369  20.431   8.321  0.1522 -0.3047 -0.0487
11374DDP     P168240  23.721  20.731   8.222  0.2139  0.1236 -0.1126
11374DDP     P268241  23.170  20.429   7.922  0.0958 -0.2577  0.0783
11374DDP     C268242  22.912  20.677   7.715 -0.0206  0.1203  0.0673
11374DDP     C368243  23.886  21.081   8.069  0.1486  0.2400 -0.1365
11374DDP     C468244  23.203  20.312   8.702  0.0277 -0.2074  0.1051
11375DDP     C168245   7.554  19.332  22.394 -0.1461 -0.1005 -0.0542
11375DDP     P168246   7.202  19.123  22.214  0.2801  0.1874 -0.4086
11375DDP     P268247   7.602  19.498  22.800 -0.2218 -0.0699  0.1472
11375DDP     C268248   7.497  19.247  23.199 -0.2881 -0.0062 -0.1012
11375DDP     C368249   7.134  18.693  22.043 -0.0358  0.2063 -0.0142
11375DDP     C468250   7.831  19.530  22.113  0.2047  0.2146 -0.0545
11376DDP     C168251  24.100  25.520  23.191 -0.0078  0.2353  0.0053
11376DDP     P168252  23.825  25.823  22.921 -0.0658 -0.2207 -0.0848
11376DDP     P268253  24.540  25.583  23.073 -0.1466  0.2992 -0.3938
11376DDP     C268254  24.940  25.584  23.307 -0.0370 -0.0112  0.1694
11376DDP     C368255  23.464  26.202  23.018  0.3545  0.0490  0.0798
11376DDP     C468256  23.896  25.108  23.393 -0.0569  0.1099  0.1755
11377DDP     C168257  16.501  24.098   0.800  0.0997  0.2223 -0.1731
11377DDP     P168258  16.518  24.502   0.976  0.0587 -0.0469  0.1160
11377DDP     P268259  16.221  23.734   0.819  0.2216  0.1056  0.1192
11377DDP     C268260  15.781  23.878   0.909 -0.0143 -0.1190  0.1996
11377DDP     C368261  16.666  24.671   1.342 -0.0610 -0.1223 -0.1387
11377DDP     C468262  16.913  23.983   0.505  0.1105 -0.0817 -0.1356
11378DDP     C168263   6.974  13.961  11.782 -0.3379  0.1184  0.2622
11378DDP     P168264   7.010  13.936  12.094 -0.0152  0.2001 -0.1307
11378DDP     P268265   6.665  13.692  11.591 -0.0145  0.1217 -0.4214
11378DDP     C268266   6.339  13.469  11.503  0.2070 -0.1582 -0.1349
11378DDP     C368267   6.848  13.763  12.535 -0.0446 -0.1594 -0.0808
11378DDP     C468268   7.300  14.124  11.492  0.2218  0.2551 -0.0544
11379DDP     C168269  23.163  25.123  10.888  0.1517  0.1285 -0.0264
11379DDP     P168270  22.883  25.104  10.731  0.3443 -0.0320  0.1486
11379DDP     P268271  22.973  25.148  11.232 -0.3666  0.3598 -0.3223
11379DDP     C268272  22.875  24.888  11.516 -0.3816  0.2767 -0.3069
11379DDP     C368273  22.819  25.518  10.581 -0.1910  0.0953  0.2449
11379DDP     C468274  23.677  25.154  10.924  0.0069 -0.0518 -0.0998
11380DDP     C168275  25.382   5.713   3.486  0.1606  0.0391  0.0617
11380DDP     P168276  25.115   5.520   3.142  0.0636  0.0349  0.0215
11380DDP     P268277  25.193   5.833   3.878 -0.1379  0.2241 -0.2958
11380DDP     C268278  24.861   5.956   4.099  0.0883  0.0174 -0.0685
11380DDP     C368279  24.748   5.563   2.990  0.2952 -0.0963  0.2176
11380DDP     C468280  25.700   5.582   3.580 -0.1430 -0.0829  0.0476
11381DDP     C168281  22.667   7.040  28.277  0.1086  0.2783  0.2234
11381DDP     P168282  22.872   6.867  28.682 -0.2926  0.1475 -0.0358
11381DDP     P268283  22.966   7.268  28.036  0.0454  0.1186  0.0018
11381DDP     C268284  23.338   7.471  28.292  0.2753 -0.0271  0.0704
11381DDP     C368285  23.175   6.695  28.806 -0.1965  0.0939  0.2145
11381DDP     C468286  22.295   6.966  28.090  0.1780 -0.1122 -0.0719
11382DDP     C168287  21.371  11.115  29.769 -0.0266 -0.0876 -0.0876
11382DDP     P168288  21.715  11.417  29.685  0.3208 -0.0184  0.4438
11382DDP     P268289  21.012  11.040  29.464 -0.1142 -0.1402 -0.0356
11382DDP     C268290  20.909  10.622  29.224 -0.1178  0.0024  0.2188
11382DDP     C368291  21.932  11.754  29.876 -0.2247  0.3928  0.1271
11382DDP     C468292  21.330  11.048  30.155 -0.0779  0.0401  0.1058
11383DDP     C168293  14.307  21.011   9.205 -0.3860  0.0317 -0.4409
11383DDP     P168294  13.972  20.634   9.307 -0.1217  0.0929 -0.1127
11383DDP     P268295  14.282  21.544   9.415 -0.2074  0.1742  0.1952
11383DDP     C268296  14.253  21.982   9.492  0.0282  0.0291 -0.0025
11383DDP     C368297  13.962  20.282   9.231 -0.0272  0.0045  0.0992
11383DDP     C468298  14.733  20.916   9.298  0.1472  0.0852  0.0498
11384DDP     C168299  24.024   8.782   3.486  0.1780 -0.1911 -0.2214
11384DDP     P168300  24.433   8.688   3.293 -0.4159  0.0003  0.1326
11384DDP     P268301  23.984   9.052   3.863 -0.3778 -0.2405 -0.0925
11384DDP     C268302  23.644   9.147   4.236  0.0969 -0.0311 -0.3608
11384DDP     C368303  24.671   8.623   2.923  0.0226  0.0776 -0.0264
11384DDP     C468304  23.856   8.882   3.073 -0.1257 -0.0846 -0.2842
11385DDP     C168305  10.738  21.224  20.487 -0.0795  0.4755 -0.1477
11385DDP     P168306  10.487  21.540  20.469 -0.0219  0.0493 -0.0428
11385DDP     P268307  10.910  20.982  20.219 -0.3877 -0.1294  0.0791
11385DDP     C268308  11.187  20.873  19.851 -0.1050  0.2413 -0.1634
11385DDP     C368309  10.511  21.987  20.630 -0.1638 -0.1364 -0.1308
11385DDP     C468310  10.665  20.977  20.820 -0.2199 -0.1866 -0.0285
11386DDP     C168311   0.410   6.918   4.886 -0.0197 -0.0994  0.0006
11386DDP     P168312  30.256   6.871   4.986  0.4114  0.1421  0.2005
11386DDP     P268313   0.573   6.691   4.516  0.3348 -0.0589  0.2632
11386DDP     C268314   0.595   6.759   4.063  0.4288 -0.0125  0.0405
11386DDP     C368315  29.872   7.138   5.098  0.3413  0.1891 -0.1340
11386DDP     C468316   0.660   7.286   5.149  0.1715 -0.1569  0.2211
11387DDP     C168317   4.565  20.013  28.196 -0.0462  0.1444 -0.0609
11387DDP     P168318   4.088  20.022  28.234 -0.3180  0.1452 -0.1115
11387DDP     P268319   4.732  19.646  27.988 -0.1791  0.0008 -0.0955
11387DDP     C268320   4.541  19.282  27.846  0.3544 -0.2230  0.0546
11387DDP     C368321   3.717  20.189  28.090 -0.3159 -0.1094 -0.3401
11387DDP     C468322   4.836  20.390  28.265  0.3109 -0.0345  0.0981
11388DDP     C168323   1.360  14.036  21.914 -0.2988  0.1198  0.1232
11388DDP     P168324   1.664  14.299  21.621 -0.1496  0.0016 -0.0207
11388DDP     P268325   1.099  13.718  21.541  0.2115  0.0628  0.0034
11388DDP     C268326   1.131  13.355  21.373 -0.0293  0.3785  0.0936
11388DDP     C368327   1.854  14.735  21.441 -0.2302 -0.0231 -0.2597
11388DDP     C468328   1.177  14.231  22.341  0.1278  0.1230  0.3359
11389DDP     C168329   4.696  25.304  21.255  0.1361  0.0935  0.1963
11389DDP     P168330   5.049  25.539  21.451  0.0699  0.1550 -0.1329
11389DDP     P268331   4.190  25.378  21.334 -0.0246  0.1996  0.1468
11389DDP     C268332   3.762  25.306  21.477 -0.4498  0.0755 -0.0568
11389DDP     C368333   5.163  25.758  21.779  0.0027 -0.0711 -0.1395
11389DDP     C468334   4.850  24.945  21.032 -0.2572 -0.0614  0.1185
11390DDP     C168335  22.523  26.024   6.564 -0.0303 -0.1851  0.1604
11390DDP     P168336  22.670  25.670   6.739  0.1922  0.2767  0.2676
11390DDP     P268337  22.519  26.180   6.128  0.0205 -0.1264 -0.2657
11390DDP     C268338  22.245  26.140   5.834 -0.2687 -0.0634  0.0456
11390DDP     C368339  22.600  25.379   7.090 -0.0499  0.0313 -0.0618
11390DDP     C468340  22.287  26.250   6.820 -0.1484  0.0493  0.1027
11391DDP     C168341  20.394   3.899  21.191 -0.0324 -0.0779 -0.0468
11391DDP     P168342  20.684   3.614  21.374 -0.1241 -0.0816  0.1385
11391DDP     P268343  20.201   4.154  21.469 -0.1406 -0.0416  0.1262
11391DDP     C268344  20.343   4.521  21.431  0.1325  0.0427 -0.5449
11391DDP     C368345  20.918   3.344  21.623 -0.0121  0.0999 -0.0981
11391DDP     C468346  20.373   4.002  20.740  0.1041 -0.0832 -0.0318
11392DDP     C168347  13.283   1.690  29.131  0.1708 -0.0943  0.1359
11392DDP     P168348  13.383   2.060  29.264  0.3367  0.1624 -0.1071
11392DDP     P268349  12.881   1.761  29.256 -0.2104 -0.1140  0.1235
11392DDP     C268350  12.528   1.841  29.129  0.0478  0.0862  0.1177
11392DDP     C368351  13.806   2.188  29.404  0.1643 -0.1446 -0.1531
11392DDP     C468352  13.606   1.338  28.942  0.0315  0.0587  0.0397
11393DDP     C168353  18.821  11.445  13.297  0.2044  0.0617  0.0212
11393DDP     P168354  18.448  11.487  13.498 -0.1900 -0.0566 -0.2553
11393DDP     P268355  19.262  11.502  13.363 -0.1376 -0.0911 -0.0837
11393DDP     C268356  19.657  11.708  13.354  0.0631  0.3019  0.3705
11393DDP     C368357  18.034  11.786  13.404  0.0990 -0.0515  0.2243
11393DDP     C468358  18.797  11.039  13.229  0.0146 -0.0125  0.0968
11394DDP     C168359  12.194  14.281  21.540  0.1369 -0.1113  0.2869
11394DDP     P168360  12.144  14.454  21.952 -0.0780  0.0380  0.2177
11394DDP     P268361  11.964  14.444  21.251 -0.3671  0.1474 -0.2211
11394DDP     C268362  11.786  14.746  21.002 -0.2652  0.3156 -0.0797
11394DDP     C368363  12.003  14.611  22.427  0.3763 -0.2522  0.0257
11394DDP     C468364  12.241  13.815  21.374  0.0401 -0.2988  0.2537
11395DDP     C168365  27.188  16.083  26.130  0.1051  0.0052 -0.3397
11395DDP     P168366  26.922  15.809  25.850 -0.4299 -0.0909  0.0766
11395DDP     P268367  26.961  16.411  26.174  0.1192  0.1231 -0.2028
11395DDP     C268368  26.767  16.702  25.908  0.1242  0.1132 -0.1274
11395DDP     C368369  27.150  15.456  25.656 -0.0506 -0.0642  0.1612
11395DDP     C468370  27.557  16.178  25.950  0.1971  0.3857 -0.0807
11396DDP     C168371  10.381   2.626  12.862 -0.1423 -0.2364 -0.0161
11396DDP     P168372  10.370   2.291  13.115 -0.2396  0.3710 -0.0378
11396DDP     P268373  10.493   2.423  12.450  0.0541  0.0550 -0.0217
11396DDP     C268374  10.895   2.125  12.363  0.1457 -0.2354 -0.2567
11396DDP     C368375   9.996   2.061  13.237  0.2920  0.1116  0.0502
11396DDP     C468376  10.595   2.918  12.839 -0.1391  0.2313 -0.0284
11397DDP     C168377   7.995  28.202  11.811 -0.3429  0.0774  0.2783
11397DDP     P168378   7.578  28.029  11.742  0.1504 -0.1988 -0.1076
11397DDP     P268379   8.323  27.949  12.049 -0.1390  0.0719  0.2224
11397DDP     C268380   8.550  27.522  12.170  0.0319 -0.1149 -0.0887
11397DDP     C368381   7.261  28.182  11.714  0.2626  0.0333  0.2181
11397DDP     C468382   8.043  28.678  11.822  0.0844  0.3829 -0.0128
11398DDP     C168383   7.193   4.083  12.096  0.0400  0.5393 -0.0788
11398DDP     P168384   7.295   4.267  11.639 -0.0257 -0.1038  0.0325
11398DDP     P268385   6.694   4.120  12.165 -0.0904 -0.2510 -0.1382
11398DDP     C268386   6.367   3.821  12.015  0.2482 -0.1693  0.0466
11398DDP     C368387   7.092   4.438  11.272  0.2487 -0.0633  0.1083
11398DDP     C468388   7.431   4.105  12.330 -0.0943  0.1701  0.2952
11399DDP     C168389  26.073   6.989   1.608  0.0514  0.3551 -0.0740
11399DDP     P168390  26.242   6.590   1.331 -0.1843  0.1034 -0.2457
11399DDP     P268391  25.653   6.850   1.770  0.0757  0.1189 -0.0953
11399DDP     C268392  25.344   6.472   1.953  0.1090 -0.0647  0.0349
11399DDP     C368393  26.614   6.561   1.209 -0.0699 -0.0613 -0.1571
11399DDP     C468394  26.226   7.372   1.807 -0.1008 -0.1226  0.0108
11400DDP     C168395  16.910  24.888  11.074  0.0561  0.0507  0.3483
11400DDP     P168396  17.062  24.579  11.419  0.1010 -0.0460  0.0968
11400DDP     P268397  17.370  24.875  10.927 -0.2117 -0.4056 -0.0152
11400DDP     C268398  17.744  24.645  10.860 -0.2825  0.1928  0.0190
11400DDP     C368399  17.012  24.402  11.728 -0.2322  0.3201  0.1673
11400DDP     C468400  16.455  24.859  11.022  0.2395 -0.2008  0.0434
11401DDP     C168401  26.823  17.318   2.491 -0.0070 -0.0427  0.0486
11401DDP     P168402  26.565  17.416   2.906 -0.0117 -0.0003  0.0275
11401DDP     P268403  27.230  17.140   2.416  0.1107 -0.2044  0.1965
11401DDP     C268404  27.527  16.985   2.283 -0.1322  0.0690  0.2200
11401DDP     C368405  26.242  17.603   3.116 -0.0455  0.2559  0.1104
11401DDP     C468406  26.704  16.874   2.298  0.2922 -0.1795 -0.3439
11402DDP     C168407   6.625  25.936  14.620 -0.4048  0.3113 -0.1748
11402DDP     P168408   6.864  26.061  14.805  0.2023  0.0354  0.0223
11402DDP     P268409   6.452  26.318  14.373 -0.1597  0.0114  0.3783
11402DDP     C268410   6.120  26.576  14.077  0.2162 -0.0445  0.3103
11402DDP     C368411   6.906  26.246  15.196 -0.0488 -0.0041 -0.0452
11402DDP     C468412   6.388  25.495  14.665 -0.0994  0.2196  0.2352
11403DDP     C168413  15.752   3.191   7.962 -0.1414  0.4048 -0.2154
11403DDP     P168414  16.277   2.983   7.972  0.1719  0.1409  0.1053
11403DDP     P268415  15.417   2.955   7.930 -0.2978  0.3754 -0.0635
11403DDP     C268416  15.025   2.660   7.962  0.1319 -0.1017 -0.0666
11403DDP     C368417  16.610   3.008   7.798 -0.4186  0.3069 -0.0516
11403DDP     C468418  15.588   3.590   7.887 -0.2196 -0.1459 -0.1865
11404DDP     C168419   0.682  26.671  28.170 -0.0411  0.0962 -0.3898
11404DDP     P168420   0.667  26.693  27.750 -0.0819 -0.1381 -0.0069
11404DDP     P268421   0.321  26.321  28.224  0.2025 -0.0452  0.2154
11404DDP     C268422   0.352  25.966  28.161 -0.0843 -0.0896 -0.2555
11404DDP     C368423   0.663  26.983  27.422  0.2048 -0.2836 -0.1591
11404DDP     C468424   0.797  26.963  28.487  0.0725  0.1824 -0.1098
11405DDP     C168425   7.683  24.396   7.768  0.1208 -0.1031  0.1989
11405DDP     P168426   7.997  24.401   8.129  0.0881 -0.1612 -0.3551
11405DDP     P268427   7.382  24.220   7.865 -0.0468 -0.1458 -0.1257
11405DDP     C268428   6.951  24.075   7.949 -0.1839 -0.0203 -0.3252
11405DDP     C368429   8.349  24.531   8.219  0.0313  0.0183  0.1681
11405DDP     C468430   7.817  24.424   7.319  0.0578 -0.1309 -0.1558
11406DDP     C168431  10.349  24.518  29.951 -0.3490 -0.0832 -0.1246
11406DDP     P168432  10.664  24.216  29.718 -0.0106  0.0309 -0.1674
11406DDP     P268433  10.365  24.784  29.725  0.0504 -0.1608  0.2684
11406DDP     C268434  10.628  25.136  29.646 -0.2736 -0.0349 -0.0699
11406DDP     C368435  10.904  24.129  29.330 -0.3431  0.0099 -0.0301
11406DDP     C468436  10.124  24.318  30.232 -0.0145 -0.4442  0.1822
11407DDP     C168437   4.731   7.889   1.211 -0.2029 -0.0338  0.0068
11407DDP     P168438   5.091   7.931   1.509 -0.0974 -0.3873 -0.1101
11407DDP     P268439   4.308   7.742   1.364 -0.0124  0.1580  0.2559
11407DDP     C268440   3.888   7.850   1.469 -0.0234 -0.1240 -0.1687
11407DDP     C368441   5.139   8.083   1.947  0.2423 -0.0331 -0.0587
11407DDP     C468442   4.546   8.119   0.840  0.1739  0.0767  0.0652
11408DDP     C168443  21.098   1.734  14.862  0.0512 -0.0631 -0.0109
11408DDP     P168444  21.127   1.358  15.025  0.1295  0.2860 -0.1332
11408DDP     P268445  21.368   1.936  14.701  0.2190 -0.0458 -0.0249
11408DDP     C268446  21.245   2.062  14.293  0.0825  0.3027 -0.0237
11408DDP     C368447  21.050   0.945  14.894  0.0051 -0.0300 -0.1811
11408DDP     C468448  20.858   1.980  15.087 -0.2551  0.0949 -0.1938
11409DDP     C168449  14.319   7.690  28.103  0.1730 -0.1246 -0.0331
11409DDP     P168450  14.655   7.916  28.284  0.0070  0.0406 -0.2214
11409DDP     P268451  13.986   7.858  28.023  0.2794 -0.0432 -0.0345
11409DDP     C268452  13.632   8.171  27.933 -0.0358  0.2277  0.2762
11409DDP     C368453  15.028   8.116  28.502 -0.0430 -0.0954 -0.0654
11409DDP     C468454  14.502   7.422  27.743  0.0851 -0.1069 -0.0743
11410DDP     C168455   7.350  25.649   6.526 -0.0154 -0.4779 -0.0467
11410DDP     P168456   7.103  25.942   6.683 -0.0749 -0.0863 -0.0395
11410DDP     P268457   7.260  25.353   6.285  0.3718  0.1601 -0.0802
11410DDP     C268458   7.212  25.024   6.010  0.0511  0.3240  0.0227
11410DDP     C368459   7.090  26.241   6.938 -0.1485 -0.3331  0.1428
11410DDP     C468460   7.744  25.734   6.559  0.0327 -0.0688 -0.1723
11411DDP     C168461   9.946   8.910   0.476 -0.0643 -0.4139  0.1433
11411DDP     P168462  10.110   9.086   0.162  0.2723 -0.1847  0.2499
11411DDP     P268463  10.186   8.910   0.893  0.0013  0.2794 -0.0376
11411DDP     C268464  10.536   9.185   1.212  0.1861  0.0069  0.2213
11411DDP     C368465  10.167   9.443  30.191  0.1746 -0.2143 -0.0454
11411DDP     C468466   9.540   8.883   0.525 -0.2057  0.0298 -0.1466
11412DDP     C168467  26.844  26.177  21.293 -0.2987 -0.0082 -0.2220
11412DDP     P168468  27.016  25.861  21.016 -0.5006  0.0967  0.3118
11412DDP     P268469  27.159  26.533  21.320 -0.0317  0.1279 -0.0144
11412DDP     C268470  27.536  26.710  21.294  0.0451 -0.0634 -0.0771
11412DDP     C368471  27.034  25.653  20.568 -0.2378  0.0359 -0.3065
11412DDP     C468472  26.409  26.236  21.517 -0.2180  0.1282 -0.2114
11413DDP     C168473   9.556  14.785  12.519 -0.1258  0.0116 -0.0096
11413DDP     P168474   9.899  15.012  12.524  0.0863  0.0111  0.3267
11413DDP     P268475   9.680  14.347  12.406  0.0384 -0.1571  0.0983
11413DDP     C268476   9.882  14.118  12.054  0.1917 -0.1154  0.0204
11413DDP     C368477  10.231  14.891  12.932 -0.2346 -0.0838  0.2139
11413DDP     C468478   9.189  14.680  12.814  0.0045  0.0096  0.1229
11414DDP     C168479   0.986  23.112   0.075  0.0157 -0.0310  0.1640
11414DDP     P168480   1.127  23.535   0.147  0.0885  0.0495 -0.4058
11414DDP     P268481   0.829  23.006  29.967 -0.0462 -0.1309 -0.1242
11414DDP     C268482   0.812  23.032  29.586  0.1604  0.0438 -0.1990
11414DDP     C368483   1.198  23.934  30.384  0.1139 -0.0597  0.4887
11414DDP     C468484   1.305  22.694   0.291 -0.1841  0.0664 -0.2427
11415DDP     C168485  19.101  11.071  27.631 -0.1594  0.1856 -0.2944
11415DDP     P168486  19.125  11.137  28.045  0.2005  0.2860 -0.0433
11415DDP     P268487  19.388  11.119  27.274  0.0672 -0.0351 -0.0210
11415DDP     C268488  19.574  10.950  26.950  0.1028  0.1727  0.0154
11415DDP     C368489  19.147  11.238  28.371  0.0444  0.1718 -0.1891
11415DDP     C468490  18.755  10.761  27.638 -0.1120 -0.4682 -0.1167
11416DDP     C168491  15.540   7.783   9.393  0.0216 -0.0155  0.3590
11416DDP     P168492  15.186   7.948   9.299 -0.1041 -0.0496 -0.2305
11416DDP     P268493  15.757   8.090   9.674 -0.1394  0.0107  0.2729
11416DDP     C268494  15.685   8.404   9.896  0.0981 -0.1172 -0.0277
11416DDP     C368495  14.803   7.985   9.209  0.0813  0.1952  0.0594
11416DDP     C468496  15.669   7.341   9.361  0.0834  0.1057 -0.1659
11417DDP     C168497   0.012  12.070   9.681 -0.3740 -0.1417 -0.2502
11417DDP     P168498   0.435  12.146   9.542 -0.3288 -0.2543  0.0739
11417DDP     P268499   0.084  11.648   9.628  0.0978  0.1835  0.0200
11417DDP     C268500   0.292  11.318   9.409 -0.0587  0.0874 -0.1805
11417DDP     C368501   0.841  12.309   9.570  0.0463 -0.1112 -0.1585
11417DDP     C468502  30.099  12.213   9.972 -0.1756  0.0085  0.0646
11418DDP     C168503  18.080   1.342  18.253  0.0843 -0.0649 -0.4028
11418DDP     P168504  18.204   1.625  18.620 -0.1228 -0.2200  0.0451
11418DDP     P268505  18.355   1.262  17.918  0.3835 -0.3012 -0.0951
11418DDP     C268506  18.171   1.198  17.574 -0.1112 -0.0362 -0.0502
11418DDP     C368507  18.117   1.561  19.015 -0.1995 -0.1649  0.0508
11418DDP     C468508  17.695   1.068  18.146 -0.4530 -0.1656  0.2633
11419DDP     C168509  30.172  25.190   3.596  0.0328  0.0690  0.1875
11419DDP     P168510  29.840  25.316   3.764 -0.1938 -0.2564 -0.4812
11419DDP     P268511   0.173  24.969   3.632 -0.2679  0.0384  0.2642
11419DDP     C268512   0.526  24.901   3.421  0.1082 -0.4604  0.2087
11419DDP     C368513  29.503  25.599   4.041 -0.0761 -0.1208  0.0796
11419DDP     C468514  29.913  24.996   3.305  0.1020  0.0229  0.1037
11420DDP     C168515  21.039  12.490   5.642  0.0299 -0.0440 -0.0255
11420DDP     P168516  20.881  12.792   5.849  0.2461 -0.1643 -0.0546
11420DDP     P268517  21.110  12.217   5.860  0.0225  0.0248 -0.1373
11420DDP     C268518  21.170  11.797   5.991  0.2436 -0.1501  0.1315
11420DDP     C368519  20.636  13.100   5.908  0.1559 -0.2507  0.0991
11420DDP     C468520  20.852  12.586   5.180  0.0883  0.0982 -0.0101
11421DDP     C168521  13.345  13.516   7.537  0.2233  0.0968 -0.2871
11421DDP     P168522  13.231  13.287   7.965 -0.1319  0.0776 -0.3879
11421DDP     P268523  13.137  13.194   7.324 -0.3749  0.2412  0.0073
11421DDP     C268524  13.326  12.765   7.454 -0.0004 -0.0589  0.2048
11421DDP     C368525  13.099  13.285   8.457 -0.2723  0.0175  0.0797
11421DDP     C468526  13.585  13.858   7.382  0.1563  0.0808 -0.1763
11422DDP     C168527  15.001   3.956   1.627  0.0989 -0.1234  0.2962
11422DDP     P168528  14.556   4.036   1.524 -0.3414 -0.0023  0.1520
11422DDP     P268529  15.011   3.700   2.058  0.1271  0.4370  0.0459
11422DDP     C268530  15.254   3.441   2.275 -0.0166 -0.0801  0.1242
11422DDP     C368531  14.219   3.691   1.696  0.0667  0.0457 -0.3353
11422DDP     C468532  15.367   3.954   1.331  0.2807  0.0615  0.0931
11423DDP     C168533   3.244  17.087  28.092 -0.1592  0.3840  0.2573
11423DDP     P168534   2.867  17.188  27.971  0.1074 -0.0249 -0.2612
11423DDP     P268535   3.487  17.446  28.153  0.1978  0.1037 -0.3450
11423DDP     C268536   3.467  17.798  28.384  0.1750  0.0806  0.1484
11423DDP     C368537   2.588  17.361  27.687 -0.2656  0.1193  0.1999
11423DDP     C468538   3.554  16.789  27.982  0.2883  0.0154 -0.0993
11424DDP     C168539  29.523   0.019  11.421  0.2008  0.1438 -0.0615
11424DDP     P168540  29.662  30.252  10.994  0.1091 -0.0298  0.4203
11424DDP     P268541  29.235   0.350  11.480 -0.2145 -0.2499 -0.1904
11424DDP     C268542  29.016   0.737  11.712 -0.1176  0.0943 -0.1090
11424DDP     C368543  29.489  30.215  10.523  0.1742  0.0928 -0.0541
11424DDP     C468544  29.761  30.255  11.798  0.2119 -0.0219  0.0576
11425DDP     C168545   2.014  10.066  13.005 -0.1375  0.1146  0.3767
11425DDP     P168546   2.014  10.058  12.581 -0.3065  0.1069 -0.1157
11425DDP     P268547   2.026   9.609  13.248 -0.0175  0.0539  0.1508
11425DDP     C268548   1.815   9.375  13.506 -0.1274 -0.1577  0.0743
11425DDP     C368549   2.252  10.108  12.144 -0.0697  0.1859 -0.0505
11425DDP     C468550   1.997  10.528  13.136  0.0939 -0.0472  0.0811
11426DDP     C168551  26.139  10.230  25.726 -0.2565  0.2445  0.1375
11426DDP     P168552  26.519  10.436  25.587  0.2819  0.0894 -0.1078
11426DDP     P268553  26.147  10.104  26.160  0.0016  0.2559 -0.0609
11426DDP     C268554  26.237  10.421  26.547  0.1644  0.3937 -0.0343
11426DDP     C368555  26.845  10.630  25.439 -0.0480  0.3649 -0.3577
11426DDP     C468556  25.913  10.064  25.420  0.3388  0.1447  0.1452
11427DDP     C168557   1.045   8.527  21.216 -0.0282 -0.2568  0.1116
11427DDP     P168558   1.116   8.378  20.822  0.0040  0.0006  0.1022
11427DDP     P268559   0.697   8.344  21.459  0.2523 -0.0975 -0.1700
11427DDP     C268560   0.533   8.469  21.683 -0.0220  0.1249 -0.0836
11427DDP     C368561   0.963   8.015  20.610 -0.0937  0.2660  0.1419
11427DDP     C468562   1.180   8.896  21.444  0.0311 -0.0339 -0.1706
11428DDP     C168563   7.297   5.231  11.839  0.1734 -0.1767 -0.1015
11428DDP     P168564   7.150   5.131  12.217  0.0167  0.0710 -0.1124
11428DDP     P268565   7.288   5.678  11.665 -0.4418  0.1012  0.4127
11428DDP     C268566   7.049   5.766  11.347 -0.2195  0.2480  0.0587
11428DDP     C368567   6.837   4.830  12.415  0.0932  0.2116 -0.2331
11428DDP     C468568   7.621   4.876  11.737 -0.1995 -0.1300 -0.0321
11429DDP     C168569   5.670   5.462   5.781 -0.0842 -0.1954  0.0992
11429DDP     P168570   5.189   5.436   5.736  0.3769  0.2068  0.2306
11429DDP     P268571   5.929   5.269   6.099 -0.0857  0.1305  0.0574
11429DDP     C268572   5.755   5.118   6.503 -0.0746 -0.3364  0.1511
11429DDP     C368573   4.930   5.358   5.366  0.0508 -0.2488 -0.2353
11429DDP     C468574   5.848   5.519   5.325  0.0385 -0.0494  0.1137
11430DDP     C168575  16.897   4.944   4.030 -0.0868  0.0718 -0.0196
11430DDP     P168576  16.871   4.569   4.086 -0.3527 -0.3331 -0.2510
11430DDP     P268577  16.637   5.144   3.912  0.2084 -0.1614  0.2473
11430DDP     C268578  16.373   5.327   3.657 -0.0471 -0.2584 -0.0849
11430DDP     C368579  16.909   4.170   4.174  0.1734 -0.1591 -0.2177
11430DDP     C468580  17.222   5.004   3.871  0.2591  0.0424  0.0141
11431DDP     C168581   5.137  29.614  14.046  0.2854  0.0676 -0.1886
11431DDP     P168582   5.418  29.314  14.211 -0.0985 -0.1665  0.1816
11431DDP     P268583   5.414  29.963  13.981 -0.0538 -0.2732  0.2016
11431DDP     C268584   5.657  -0.015  13.928 -0.1219 -0.1403  0.0929
11431DDP     C368585   5.296  28.930  14.137 -0.2783  0.0376 -0.1627
11431DDP     C468586   4.690  29.651  14.271 -0.1498 -0.0792  0.0638
11432DDP     C168587  22.282  27.726  18.153 -0.4108 -0.0946 -0.0959
11432DDP     P168588  22.363  27.332  18.320  0.0632 -0.0952  0.1187
11432DDP     P268589  21.785  27.877  18.057  0.0622 -0.0161 -0.2877
11432DDP     C268590  21.550  28.203  18.009  0.1759  0.0302  0.0164
11432DDP     C368591  22.762  27.096  18.532 -0.2943 -0.0234  0.0429
11432DDP     C468592  22.571  27.743  17.827  0.0888 -0.0481 -0.2869
11433DDP     C168593  25.274   1.364  17.448  0.2196 -0.0617 -0.0849
11433DDP     P168594  25.513   1.669  17.130  0.0623  0.0284  0.1525
11433DDP     P268595  25.442   1.004  17.182 -0.0759 -0.2337 -0.0955
11433DDP     C268596  25.580   0.898  16.806 -0.1142  0.0173  0.0766
11433DDP     C368597  25.709   1.668  16.741  0.0537  0.1631 -0.0525
11433DDP     C468598  25.114   1.577  17.835  0.0360  0.0623  0.1189
11434DDP     C168599  22.301  25.250  13.121  0.0418  0.0605 -0.0190
11434DDP     P168600  22.342  25.280  13.596 -0.0111 -0.1337  0.0825
11434DDP     P268601  22.078  25.478  12.880  0.1130 -0.1135 -0.2689
11434DDP     C268602  22.059  25.689  12.414  0.1232 -0.0698 -0.1771
11434DDP     C368603  22.631  25.105  13.846 -0.1696  0.1385 -0.0503
11434DDP     C468604  22.688  25.089  12.841 -0.1520  0.2242  0.0929
11435DDP     C168605  13.310  27.228  24.852  0.1610 -0.1352 -0.0562
11435DDP     P168606  13.419  26.832  24.981 -0.0633 -0.0166 -0.0598
11435DDP     P268607  12.965  27.455  24.735 -0.1476  0.1066 -0.1006
11435DDP     C268608  12.755  27.782  24.599  0.2648  0.1213  0.1123
11435DDP     C368609  13.528  26.636  24.614 -0.2364 -0.0005  0.1705
11435DDP     C468610  13.716  27.513  24.995  0.0250  0.0269  0.0632
11436DDP     C168611  22.380   6.600   7.285 -0.1136  0.2972 -0.1160
11436DDP     P168612  22.235   7.068   7.282 -0.0239 -0.2445  0.1633
11436DDP     P268613  22.118   6.323   7.579  0.3344  0.3991  0.3467
11436DDP     C268614  21.681   6.314   7.757 -0.1654 -0.0609 -0.1911
11436DDP     C368615  22.123   7.504   7.227 -0.0488  0.1159  0.1880
11436DDP     C468616  22.305   6.394   7.016 -0.1165  0.0084 -0.0612
11437DDP     C168617  21.823  16.523   4.451 -0.1530  0.0154 -0.1133
11437DDP     P168618  22.034  16.344   4.800  0.0693  0.0483  0.1607
11437DDP     P268619  21.762  16.926   4.332 -0.1732 -0.0567  0.1805
11437DDP     C268620  22.020  17.146   4.163 -0.0038 -0.0637 -0.3555
11437DDP     C368621  21.814  16.168   5.291 -0.1107 -0.2221 -0.1108
11437DDP     C468622  21.612  16.166   4.258  0.1941 -0.0424  0.4143
11438DDP     C168623  17.452  29.813  17.893 -0.2736  0.0185 -0.0236
11438DDP     P168624  17.045  29.687  17.783 -0.1767  0.0055  0.2768
11438DDP     P268625  17.746  29.746  17.586  0.0696 -0.0856  0.0624
11438DDP     C268626  18.133  29.791  17.436 -0.0877  0.1190 -0.0908
11438DDP     C368627  16.733  29.473  18.035 -0.0748 -0.2392  0.2383
11438DDP     C468628  17.498  29.954  18.381 -0.0397 -0.0091  0.0246
11439DDP     C168629  14.483  15.858   8.300 -0.1000 -0.0559  0.1326
11439DDP     P168630  14.038  15.776   8.406  0.0495 -0.0112 -0.0363
11439DDP     P268631  14.872  15.753   8.458  0.0556  0.0945 -0.1052
11439DDP     C268632  15.273  15.726   8.565  0.1308 -0.0490  0.0720
11439DDP     C368633  13.769  15.873   8.758 -0.2428 -0.2523 -0.1658
11439DDP     C468634  14.496  16.212   8.159  0.1130 -0.1525 -0.2426
11440DDP     C168635   0.841   2.936   9.393 -0.0664 -0.0342  0.2116
11440DDP     P168636   1.116   2.594   9.419  0.0623 -0.0898 -0.0806
11440DDP     P268637   0.392   2.884   9.182 -0.0801  0.0012 -0.3809
11440DDP     C268638   0.260   3.085   8.764 -0.0951  0.0539 -0.0078
11440DDP     C368639   1.460   2.331   9.527 -0.3949  0.2748 -0.2109
11440DDP     C468640   0.996   3.210   9.672 -0.3169 -0.0049 -0.1473
11441DDP     C168641  25.218   7.515  11.804  0.1311  0.2650  0.0100
11441DDP     P168642  25.365   7.522  11.370  0.0350  0.3568 -0.3166
11441DDP     P268643  24.885   7.829  11.879 -0.1350 -0.2888 -0.1184
11441DDP     C268644  24.893   8.256  11.668  0.1065  0.0296 -0.1913
11441DDP     C368645  25.533   7.675  11.017 -0.1157 -0.3688 -0.0436
11441DDP     C468646  25.102   7.327  12.178 -0.1569  0.0769  0.1884
11442DDP     C168647  19.637  10.399  16.861 -0.0940  0.2940  0.2544
11442DDP     P168648  19.584  10.232  16.420  0.1751  0.0253  0.1382
11442DDP     P268649  19.280  10.301  17.116  0.0533 -0.2262  0.0723
11442DDP     C268650  19.230  10.656  17.330  0.0913  0.1362  0.1021
11442DDP     C368651  19.792  10.214  16.054  0.3465  0.4365 -0.1644
11442DDP     C468652  19.626  10.801  16.803 -0.1257  0.1277  0.0278
11443DDP     C168653  19.975  19.441   9.296 -0.2022  0.0951 -0.0726
11443DDP     P168654  20.049  19.337   9.769  0.2508  0.1623 -0.1624
11443DDP     P268655  20.277  19.756   9.032 -0.0288  0.0136 -0.1221
11443DDP     C268656  20.366  20.305   8.951  0.2642  0.4066  0.0888
11443DDP     C368657  19.925  19.013  10.124 -0.2692 -0.1388 -0.2355
11443DDP     C468658  19.553  19.278   9.193 -0.1621  0.0089 -0.1146
11444DDP     C168659   8.801   0.494   1.272 -0.1579  0.0682  0.1443
11444DDP     P168660   9.144   0.297   1.301 -0.1044  0.0846 -0.1452
11444DDP     P268661   8.367   0.292   1.074 -0.2164 -0.1134  0.0643
11444DDP     C268662   8.299  30.186   1.051  0.4297  0.0483  0.2639
11444DDP     C368663   9.464   0.053   1.012 -0.1391  0.2076 -0.7057
11444DDP     C468664   8.835   1.018   1.290  0.0952  0.2155 -0.1981
11445DDP     C168665  22.646  24.844  29.044  0.1756 -0.2186 -0.1457
11445DDP     P168666  22.525  25.371  29.062 -0.1781 -0.2867 -0.1895
11445DDP     P268667  22.340  24.593  28.761 -0.1469 -0.0222  0.0844
11445DDP     C268668  22.290  24.408  28.380 -0.1681  0.2991 -0.0090
11445DDP     C368669  22.262  25.715  28.796 -0.1324  0.0316 -0.0464
11445DDP     C468670  22.994  24.741  29.128  0.2728  0.1055 -0.0336
11446DDP     C168671   8.743  26.691  26.878 -0.1393 -0.0815  0.3587
11446DDP     P168672   8.419  26.838  27.074 -0.2108  0.3094 -0.1342
11446DDP     P268673   9.095  26.396  26.964  0.0400  0.3745  0.3704
11446DDP     C268674   9.484  26.230  27.192  0.1708  0.1562  0.0093
11446DDP     C368675   8.359  27.176  27.367  0.1349 -0.3086 -0.0399
11446DDP     C468676   8.834  26.931  26.498 -0.2854  0.1652 -0.0369
11447DDP     C168677  29.543  14.392  17.633 -0.1222  0.0510  0.0149
11447DDP     P168678  29.378  14.695  17.920 -0.2318 -0.2544 -0.0366
11447DDP     P268679  29.935  14.061  17.707 -0.2689  0.0945 -0.0243
11447DDP     C268680  30.076  13.791  17.380  0.0309 -0.0862  0.2739
11447DDP     C368681  29.383  14.760  18.334 -0.2151  0.0528  0.0965
11447DDP     C468682  29.146  14.330  17.316 -0.1611 -0.0472  0.1874
11448DDP     C168683   6.051  28.663  27.633 -0.0161 -0.0837  0.1009
11448DDP     P168684   6.281  28.342  27.604  0.0872  0.3926  0.0056
11448DDP     P268685   5.686  28.661  27.373 -0.1688 -0.0261  0.1678
11448DDP     C268686   5.633  28.345  27.045  0.2347  0.1474 -0.0178
11448DDP     C368687   6.610  28.215  27.479 -0.1513 -0.2589  0.3561
11448DDP     C468688   6.072  29.186  27.757  0.2548 -0.1086  0.0333
11449DDP     C168689  19.740  18.527  11.336  0.0018  0.1733 -0.0866
11449DDP     P168690  19.754  18.104  11.298 -0.1151 -0.3413  0.1140
11449DDP     P268691  19.623  18.668  10.929  0.1333 -0.3354  0.0264
11449DDP     C268692  19.724  18.742  10.547  0.1637  0.1195  0.0517
11449DDP     C368693  19.901  17.609  11.449 -0.2347  0.1228  0.2667
11449DDP     C468694  19.634  18.804  11.693  0.2849  0.0253  0.2268
11450DDP     C168695  19.796  23.645  27.148 -0.0259  0.4173  0.0557
11450DDP     P168696  19.606  23.377  27.372 -0.3835 -0.1008  0.1000
11450DDP     P268697  19.707  24.089  27.220  0.1050 -0.3006  0.1766
11450DDP     C268698  19.676  24.561  27.346 -0.0219  0.1383 -0.0376
11450DDP     C368699  19.638  22.964  27.552 -0.0559  0.1597  0.2105
11450DDP     C468700  20.279  23.542  27.047 -0.3240 -0.4374 -0.2963
11451DDP     C168701  15.254  22.358  20.175 -0.1283 -0.0768  0.3676
11451DDP     P168702  15.313  22.352  20.603 -0.0302  0.0649  0.1216
11451DDP     P268703  14.898  22.559  20.000  0.0893 -0.4580  0.1125
11451DDP     C268704  14.523  22.875  20.179  0.0099 -0.2933 -0.0739
11451DDP     C368705  15.285  22.576  21.030 -0.0843  0.0512  0.0802
11451DDP     C468706  15.573  22.297  19.823  0.2493  0.1910 -0.1260
11452DDP     C168707   9.911  27.575   4.255  0.0524 -0.0194  0.0912
11452DDP     P168708   9.850  27.485   4.688 -0.1716 -0.2802  0.3390
11452DDP     P268709   9.732  27.952   4.024 -0.1100  0.1577  0.4190
11452DDP     C268710   9.848  28.384   3.904 -0.0022 -0.1423  0.1794
11452DDP     C368711   9.461  27.643   4.800  0.0582 -0.2964 -0.1575
11452DDP     C468712   9.819  27.290   4.055 -0.1706 -0.2454  0.1664
11453DDP     C168713  11.445   1.114  23.870  0.1434  0.1758  0.0606
11453DDP     P168714  11.887   0.958  23.761 -0.1541  0.1623  0.1198
11453DDP     P268715  11.109   0.886  23.648 -0.1625  0.0496  0.1013
11453DDP     C268716  10.993   0.687  23.282 -0.2073 -0.0793 -0.0078
11453DDP     C368717  11.957   0.627  23.455  0.1204 -0.4230  0.1424
11453DDP     C468718  11.309   1.235  24.180  0.1947 -0.0866  0.2465
11454DDP     C168719  11.119   9.541   1.019  0.1869  0.0981 -0.0333
11454DDP     P168720  11.391   9.867   0.977  0.3750 -0.2423 -0.1457
11454DDP     P268721  10.759   9.645   1.014 -0.3689  0.0744  0.0183
11454DDP     C268722  10.374   9.791   1.072 -0.1391 -0.3086 -0.1044
11454DDP     C368723  11.504  10.189   0.760  0.0079  0.0430 -0.0111
11454DDP     C468724  11.393   9.287   0.875 -0.0255  0.1052 -0.2268
11455DDP     C168725  11.629   6.023  26.197  0.1757 -0.0645  0.2002
11455DDP     P168726  11.658   5.814  26.522 -0.1691  0.1740  0.0454
11455DDP     P268727  11.186   6.234  26.223  0.3924 -0.3157  0.3529
11455DDP     C268728  10.995   6.546  26.372  0.0557  0.0615 -0.0006
11455DDP     C368729  11.858   5.545  26.887  0.0180  0.0935  0.0353
11455DDP     C468730  12.056   5.992  26.089 -0.0099  0.2909 -0.0232
11456DDP     C168731   3.978  29.481  24.483  0.1195  0.1149 -0.1684
11456DDP     P168732   3.942  29.112  24.798  0.0294 -0.1736 -0.1172
11456DDP     P268733   3.725  29.852  24.486  0.0441  0.1602 -0.0638
11456DDP     C268734   3.292  30.014  24.430 -0.0026  0.0370  0.0852
11456DDP     C368735   3.700  28.954  25.146  0.0296 -0.2482 -0.3733
11456DDP     C468736   4.432  29.587  24.527 -0.0902 -0.0106 -0.2119
11457DDP     C168737  25.837   9.343   5.534 -0.0901 -0.4033  0.0609
11457DDP     P168738  25.453   9.283   5.606 -0.1428 -0.2137 -0.0047
11457DDP     P268739  25.969   9.269   5.134 -0.1936  0.1190 -0.3436
11457DDP     C268740  25.826   9.004   4.772  0.1056 -0.1846 -0.3484
11457DDP     C368741  25.132   9.326   5.342 -0.0481  0.0524  0.1918
11457DDP     C468742  26.123   9.090   5.895  0.2719  0.2139 -0.1749
11458DDP     C168743  27.483   0.166  12.859  0.0497  0.3821 -0.2362
11458DDP     P168744  27.306   0.283  13.202  0.0562 -0.0040  0.0326
11458DDP     P268745  27.579   0.402  12.554 -0.2503 -0.1340 -0.3628
11458DDP     C268746  27.909   0.530  12.373 -0.3010  0.2139 -0.2873
11458DDP     C368747  26.996   0.427  13.530  0.0506  0.1680 -0.3397
11458DDP     C468748  27.668  30.052  12.867 -0.3719 -0.1491  0.0421
11459DDP     C168749  29.013  21.398   1.810 -0.0392  0.1294 -0.1183
11459DDP     P168750  29.360  21.293   1.854 -0.2267 -0.1162  0.1857
11459DDP     P268751  29.049  21.788   1.714  0.2867 -0.0580 -0.0114
11459DDP     C268752  29.079  21.994   1.351 -0.0393  0.1795  0.0234
11459DDP     C368753  29.428  21.221   2.359  0.2923 -0.1425 -0.1720
11459DDP     C468754  28.534  21.172   1.854 -0.2300  0.1438 -0.0290
11460DDP     C168755  17.304  21.007  20.015 -0.0755  0.1883  0.1797
11460DDP     P168756  17.440  20.748  20.256 -0.3407 -0.0514 -0.1068
11460DDP     P268757  17.140  20.807  19.640  0.0960  0.0287 -0.0066
11460DDP     C268758  16.777  20.542  19.557  0.4046 -0.0296  0.1763
11460DDP     C368759  17.438  20.543  20.665 -0.0779 -0.0569 -0.0930
11460DDP     C468760  17.181  21.451  20.137  0.3815  0.2875  0.0759
11461DDP     C168761  16.755   6.814   3.871 -0.0054 -0.1318  0.1521
11461DDP     P168762  16.748   6.577   3.505  0.0057 -0.0241  0.1166
11461DDP     P268763  16.337   6.645   4.110  0.0521  0.2240 -0.0177
11461DDP     C268764  16.226   6.600   4.497 -0.2187 -0.2396  0.1422
11461DDP     C368765  16.786   6.726   3.126  0.3237 -0.2643  0.0279
11461DDP     C468766  17.056   7.042   4.075 -0.1094 -0.0962  0.1336
11462DDP     C168767   4.302   9.127  11.339  0.0518 -0.0463 -0.0532
11462DDP     P168768   4.026   8.956  10.915  0.1320  0.0741  0.1282
11462DDP     P268769   4.124   9.321  11.595  0.2020  0.0911 -0.1421
11462DDP     C268770   4.108   9.422  12.065 -0.2640  0.2598  0.1837
11462DDP     C368771   3.819   8.588  10.524 -0.0360 -0.0149 -0.0463
11462DDP     C468772   4.654   8.742  11.419  0.1795  0.1382  0.0867
11463DDP     C168773  26.309  28.794   2.559 -0.1162 -0.1820 -0.0832
11463DDP     P168774  26.693  28.674   2.388  0.0534 -0.3431 -0.0223
11463DDP     P268775  25.884  28.805   2.306 -0.0540 -0.1110 -0.0261
11463DDP     C268776  25.499  28.643   2.170  0.0671 -0.3540  0.0103
11463DDP     C368777  27.215  28.698   2.298 -0.0500  0.1483 -0.1937
11463DDP     C468778  26.210  28.868   3.004  0.2827 -0.0043 -0.0558
11464DDP     C168779   2.770   9.869   9.883  0.0399 -0.0820 -0.1949
11464DDP     P168780   2.294   9.807   9.940  0.0472  0.0107  0.0933
11464DDP     P268781   2.691  10.136   9.553 -0.1281 -0.2222 -0.2567
11464DDP     C268782   2.774  10.258   9.145 -0.1940 -0.1217 -0.0445
11464DDP     C368783   1.859   9.811  10.244 -0.1632 -0.2210 -0.0225
11464DDP     C468784   3.065   9.507   9.804 -0.2739  0.1125  0.0190
11465DDP     C168785  29.682   3.797   0.359 -0.0263  0.0255  0.2879
11465DDP     P168786  29.403   3.476   0.223 -0.0342  0.2439  0.0563
11465DDP     P268787  29.465   4.056  30.262 -0.3326 -0.0256 -0.2044
11465DDP     C268788  29.609   4.368  29.968 -0.3508  0.1132 -0.1083
11465DDP     C368789  29.272   3.183  30.222  0.0473  0.1090 -0.3096
11465DDP     C468790  30.098   3.835   0.436 -0.1118 -0.2057  0.2257
11466DDP     C168791  19.150   0.410  22.804 -0.0164  0.1259  0.1094
11466DDP     P168792  19.630   0.279  22.743 -0.0527  0.1869 -0.2318
11466DDP     P268793  19.098   0.839  22.915  0.0696 -0.0186 -0.2908
11466DDP     C268794  19.263   1.099  23.185  0.0440  0.0850  0.0220
11466DDP     C368795  20.004   0.511  22.883 -0.0651  0.1232 -0.1967
11466DDP     C468796  18.924   0.118  22.784  0.0097 -0.0533 -0.0473
11467DDP     C168797  28.986  13.075   1.505  0.0847  0.3178 -0.1660
11467DDP     P168798  28.677  12.715   1.689  0.3393  0.2016  0.0202
11467DDP     P268799  28.925  13.396   1.691  0.2673  0.0094 -0.3781
11467DDP     C268800  28.649  13.572   1.898  0.0545 -0.0576 -0.0786
11467DDP     C368801  28.578  12.290   1.682  0.2372 -0.1052 -0.2532
11467DDP     C468802  29.220  13.103   1.133  0.1537 -0.0380 -0.1789
11468DDP     C168803  11.211  28.706  27.436  0.0773  0.1262 -0.5939
11468DDP     P168804  11.497  28.623  27.037 -0.3063 -0.0865  0.3779
11468DDP     P268805  10.831  28.661  27.536  0.0550 -0.1018  0.5592
11468DDP     C268806  10.447  28.867  27.700 -0.1096  0.1088 -0.1766
11468DDP     C368807  11.767  28.822  26.773 -0.2220  0.1192  0.1266
11468DDP     C468808  11.390  28.964  27.678 -0.0079  0.0731 -0.1210
11469DDP     C168809  10.139  27.304  27.993 -0.4699  0.0273 -0.2763
11469DDP     P168810   9.974  27.166  28.433 -0.0684 -0.1434 -0.1493
11469DDP     P268811   9.830  27.337  27.729  0.3088 -0.3023 -0.0276
11469DDP     C268812   9.524  27.637  27.736 -0.3470 -0.1533  0.2251
11469DDP     C368813   9.905  26.915  28.687 -0.3133 -0.0658  0.0126
11469DDP     C468814  10.520  27.382  27.790 -0.3401  0.2211  0.0302
11470DDP     C168815  29.172  23.503   8.114  0.2531  0.0493 -0.2725
11470DDP     P168816  29.447  23.949   8.052  0.4896  0.1621 -0.2506
11470DDP     P268817  29.116  23.442   8.588 -0.1585  0.1363  0.0624
11470DDP     C268818  28.847  23.408   9.046 -0.1502 -0.3413  0.0241
11470DDP     C368819  29.800  24.192   8.183  0.1118 -0.0546  0.0587
11470DDP     C468820  28.939  23.190   7.794  0.3286  0.1523 -0.0471
11471DDP     C168821  13.094   4.967  23.002 -0.0442  0.3121  0.1117
11471DDP     P168822  13.437   5.388  23.122 -0.0804  0.0267 -0.0386
11471DDP     P268823  12.773   4.927  22.696  0.0500  0.0193 -0.1607
11471DDP     C268824  12.842   4.774  22.267 -0.1771 -0.0476  0.0115
11471DDP     C368825  13.472   5.818  22.866 -0.1213 -0.1875  0.2095
11471DDP     C468826  13.205   4.602  23.027  0.0903 -0.1905 -0.1891
11472DDP     C168827  25.081   1.280   4.251 -0.1159  0.1950  0.1026
11472DDP     P168828  25.496   1.120   4.529 -0.0513  0.1981 -0.0501
11472DDP     P268829  25.007   1.585   3.954  0.2659  0.0640 -0.0520
11472DDP     C268830  24.834   1.944   4.010 -0.0392  0.2294 -0.1637
11472DDP     C368831  25.977   1.216   4.686  0.2041 -0.1060 -0.0319
11472DDP     C468832  24.856   0.958   4.296  0.3482  0.0539 -0.2847
11473DDP     C168833   9.625  13.324   5.274  0.0786 -0.0258  0.0780
11473DDP     P168834   9.949  13.518   5.222 -0.1247  0.0123  0.1116
11473DDP     P268835   9.497  13.238   4.931 -0.2419 -0.2423 -0.2605
11473DDP     C268836   9.082  13.340   4.715 -0.2917 -0.0074  0.0035
11473DDP     C368837  10.341  13.643   5.094  0.3149  0.0515  0.0028
11473DDP     C468838   9.356  13.462   5.570  0.0392 -0.0067  0.1420
11474DDP     C168839   5.501   7.167   0.636 -0.0983  0.0358 -0.1841
11474DDP     P168840   5.496   7.201   0.246  0.1489 -0.0795  0.0577
11474DDP     P268841   5.361   6.751   0.658 -0.4082  0.1720  0.5057
11474DDP     C268842   5.513   6.384   0.812  0.0115 -0.0889 -0.0295
11474DDP     C368843   5.835   7.125  30.292  0.0022 -0.0842 -0.0021
11474DDP     C468844   5.773   7.449   0.984 -0.1277  0.0351 -0.1534
11475DDP     C168845   7.514   6.547  20.149  0.0318  0.0429  0.1014
11475DDP     P168846   7.225   6.896  20.093 -0.0543  0.3061  0.1758
11475DDP     P268847   7.880   6.704  19.970 -0.2275  0.0316 -0.0884
11475DDP     C268848   7.967   6.820  19.561  0.0787  0.3353  0.1403
11475DDP     C368849   6.859   7.174  20.036  0.1860  0.1679 -0.1131
11475DDP     C468850   7.432   6.060  20.250  0.1343  0.1611  0.0021
11476DDP     C168851  12.764   2.364   0.899  0.3216 -0.2032 -0.2046
11476DDP     P168852  12.682   2.836   0.765  0.0177  0.1354  0.1054
11476DDP     P268853  12.511   2.307   1.211  0.0664  0.2842  0.1204
11476DDP     C268854  12.024   2.175   1.403 -0.0315  0.1341  0.1920
11476DDP     C368855  12.748   3.097   0.405  0.2534 -0.1477  0.1566
11476DDP     C468856  13.165   2.129   0.845 -0.0800 -0.0688  0.0896
11477DDP     C168857   0.330  10.636   6.681 -0.0869  0.3724 -0.0441
11477DDP     P168858  30.341  11.009   6.525  0.3603 -0.0217 -0.3078
11477DDP     P268859   0.201  10.318   6.873  0.0511  0.0470  0.1052
11477DDP     C268860   0.123   9.860   6.907 -0.1238 -0.0087  0.0262
11477DDP     C368861  30.191  11.395   6.337 -0.1271 -0.1043 -0.2834
11477DDP     C468862   0.746  10.848   6.785 -0.0106 -0.1260  0.1899
11478DDP     C168863   2.185  29.974  26.123  0.2733 -0.1145  0.0525
11478DDP     P168864   1.902  29.952  25.849  0.3082 -0.1433  0.1934
11478DDP     P268865   1.961  29.753  26.494 -0.1663 -0.1585 -0.1839
11478DDP     C268866   1.593  29.516  26.809 -0.4714  0.0409 -0.1443
11478DDP     C368867   1.505  29.814  25.547 -0.1958  0.0610 -0.0976
11478DDP     C468868   2.646  30.072  26.118  0.1882  0.4158  0.1783
11479DDP     C168869  26.147  13.001  12.981  0.0983 -0.0339 -0.2466
11479DDP     P168870  26.537  13.024  13.206 -0.0645  0.1996 -0.3006
11479DDP     P268871  26.014  13.451  12.794  0.0033  0.0523 -0.5067
11479DDP     C268872  25.830  13.762  12.645  0.0086  0.0682  0.0159
11479DDP     C368873  26.710  12.712  13.458  0.2102  0.1064 -0.1499
11479DDP     C468874  26.013  12.676  12.809  0.0350  0.0731  0.0602
11480DDP     C168875  22.477  19.894  25.341 -0.0966 -0.2588 -0.0413
11480DDP     P168876  22.196  19.837  25.513 -0.2938 -0.1681 -0.3366
11480DDP     P268877  22.809  19.535  25.355 -0.0999 -0.1229  0.1275
11480DDP     C268878  23.212  19.307  25.230  0.1710  0.0489  0.0578
11480DDP     C368879  21.749  19.735  25.588  0.1889 -0.1153 -0.2600
11480DDP     C468880  22.593  20.317  25.098  0.2787  0.0541  0.2447
11481DDP     C168881  26.571  28.632  24.083  0.1614 -0.3481  0.1919
11481DDP     P168882  26.601  28.473  24.494 -0.5092 -0.0171  0.1362
11481DDP     P268883  26.979  28.504  23.842 -0.0412  0.0575  0.0319
11481DDP     C268884  27.255  28.222  23.773 -0.1047  0.2361  0.0115
11481DDP     C368885  26.770  28.394  24.819  0.1868 -0.0230  0.1188
11481DDP     C468886  26.291  28.956  24.182 -0.2720  0.0715 -0.1717
11482DDP     C168887   2.503   4.230   3.002  0.3617 -0.3504  0.0423
11482DDP     P168888   2.689   3.923   2.908  0.1351 -0.4918 -0.1981
11482DDP     P268889   2.605   4.469   3.321  0.1586  0.1132 -0.1389
11482DDP     C268890   2.531   4.724   3.682  0.3076  0.1323  0.0416
11482DDP     C368891   2.949   3.890   2.569 -0.2890  0.1132  0.2649
11482DDP     C468892   2.227   4.575   2.766  0.1886  0.2434  0.4876
11483DDP     C168893  22.868  22.005  19.880  0.0644 -0.2554 -0.0675
11483DDP     P168894  23.113  22.292  20.239  0.2008 -0.1346  0.0370
11483DDP     P268895  22.565  22.223  19.690  0.2185 -0.1457 -0.0066
11483DDP     C268896  22.189  22.293  19.773  0.1106  0.0864  0.0419
11483DDP     C368897  23.436  22.605  20.426 -0.0700  0.1646 -0.0428
11483DDP     C468898  22.913  21.574  19.917 -0.2497 -0.2324 -0.1151
11484DDP     C168899   5.097   8.118   7.170  0.2925  0.1619 -0.2865
11484DDP     P168900   4.967   8.527   7.238 -0.1574 -0.1209 -0.1767
11484DDP     P268901   5.130   7.926   6.757 -0.1623 -0.3838 -0.2452
11484DDP     C268902   5.251   7.644   6.414 -0.0063  0.2392 -0.0445
11484DDP     C368903   4.917   8.883   7.545  0.0747 -0.4782 -0.0953
11484DDP     C468904   5.144   7.861   7.633  0.0184 -0.0098  0.0282
11485DDP     C168905  15.862  16.079  10.971  0.2451 -0.0355  0.0386
11485DDP     P168906  15.980  16.508  10.905  0.0942 -0.1683  0.2456
11485DDP     P268907  15.861  15.927  11.415 -0.2448  0.3934  0.0867
11485DDP     C268908  15.851  15.804  11.743  0.0309 -0.1419 -0.0535
11485DDP     C368909  16.113  16.773  11.154 -0.0139  0.2814 -0.4136
11485DDP     C468910  15.651  15.890  10.664 -0.0085  0.3747  0.4780
11486DDP     C168911  13.046  25.140  18.401  0.0156 -0.2615  0.0685
11486DDP     P168912  13.152  25.241  18.839  0.0594  0.1535 -0.0668
11486DDP     P268913  12.846  24.838  18.322  0.1548 -0.2476 -0.0530
11486DDP     C268914  12.848  24.467  18.223  0.0685  0.3047 -0.1146
11486DDP     C368915  13.252  25.402  19.232  0.0773 -0.0866  0.1815
11486DDP     C468916  13.356  25.311  18.134 -0.3325  0.0610 -0.1542
11487DDP     C168917  15.465  18.499  22.995 -0.3892 -0.0043 -0.0594
11487DDP     P168918  15.567  18.124  22.886 -0.0131  0.3530  0.2939
11487DDP     P268919  15.382  18.599  23.434 -0.0501 -0.1712  0.4693
11487DDP     C268920  15.677  18.546  23.833 -0.4257 -0.0443  0.0148
11487DDP     C368921  15.876  17.873  23.173  0.0923 -0.3515 -0.1111
11487DDP     C468922  15.243  18.760  22.688  0.1513 -0.2757  0.1622
11488DDP     C168923   2.125  14.197  24.427 -0.3100 -0.0623 -0.0591
11488DDP     P168924   1.811  14.073  24.689 -0.0289  0.0131 -0.2055
11488DDP     P268925   2.090  14.706  24.374 -0.0523  0.3384 -0.0461
11488DDP     C268926   2.199  15.070  24.666 -0.4366  0.3225 -0.0560
11488DDP     C368927   1.502  13.864  24.859 -0.0571 -0.0442  0.1855
11488DDP     C468928   2.281  13.802  24.118 -0.1566 -0.1018 -0.1400
11489DDP     C168929  24.257   0.871  24.545  0.2389  0.1683 -0.1597
11489DDP     P168930  24.483   1.122  24.583  0.0899  0.1505 -0.0099
11489DDP     P268931  24.354   0.667  24.218  0.0200  0.0625  0.0942
11489DDP     C268932  24.753   0.691  23.940 -0.0373  0.0606  0.6322
11489DDP     C368933  24.802   1.294  24.336 -0.3503  0.2100  0.1168
11489DDP     C468934  23.979   0.801  24.791  0.3838  0.0191  0.2891
11490DDP     C168935  29.295  23.610  23.159 -0.0751 -0.1190 -0.1571
11490DDP     P168936  29.467  23.940  22.915 -0.0709  0.1534  0.0401
11490DDP     P268937  29.604  23.516  23.508  0.4300 -0.1170  0.0487
11490DDP     C268938  30.035  23.770  23.662  0.0986  0.0911  0.1237
11490DDP     C368939  29.444  24.292  22.686  0.1713 -0.1387 -0.1786
11490DDP     C468940  29.159  23.343  22.888  0.0083 -0.0200 -0.2567
11491DDP     C168941  16.579  21.858   9.329 -0.0329  0.3384 -0.0247
11491DDP     P168942  16.998  21.918   9.384 -0.4139 -0.5217 -0.3900
11491DDP     P268943  16.346  22.283   9.177 -0.1544 -0.2198 -0.1397
11491DDP     C268944  16.334  22.606   9.375  0.0219 -0.1131  0.0689
11491DDP     C368945  17.222  22.207   9.085  0.0681  0.0216 -0.0719
11491DDP     C468946  16.472  21.363   9.306 -0.0390 -0.3599  0.0594
11492DDP     C168947  20.935  14.976  16.207  0.0619  0.0264 -0.0695
11492DDP     P168948  20.561  14.586  16.082  0.0737 -0.2224 -0.0095
11492DDP     P268949  21.161  14.745  16.142 -0.0228  0.1230  0.0428
11492DDP     C268950  21.358  14.306  16.344  0.2822 -0.3192 -0.0022
11492DDP     C368951  20.675  14.210  16.144  0.2572  0.1151 -0.0663
11492DDP     C468952  21.043  15.329  16.015 -0.1363 -0.0483  0.3721
11493DDP     C168953  21.240   5.776  17.042 -0.1756 -0.3597  0.0574
11493DDP     P168954  21.245   5.994  17.540 -0.3321  0.1349  0.4281
11493DDP     P268955  20.831   5.497  16.973  0.0430 -0.0876  0.0653
11493DDP     C268956  20.450   5.332  16.768 -0.0295 -0.1169 -0.0054
11493DDP     C368957  20.884   6.156  17.623  0.0337  0.0666  0.0023
11493DDP     C468958  21.547   6.061  16.752 -0.4906  0.0769 -0.2530
11494DDP     C168959  25.886  13.866  15.700 -0.1753 -0.0468 -0.1167
11494DDP     P168960  26.275  14.073  15.652 -0.1442 -0.1092  0.1775
11494DDP     P268961  25.500  14.147  15.908  0.0565 -0.1236 -0.1922
11494DDP     C268962  25.215  14.392  15.758  0.1064 -0.1960 -0.1027
11494DDP     C368963  26.673  13.923  15.468 -0.2535 -0.0118  0.3862
11494DDP     C468964  25.922  13.417  15.551  0.1432 -0.0563  0.1158
11495DDP     C168965  21.615  21.139  12.729 -0.1129 -0.1409  0.1679
11495DDP     P168966  21.806  20.812  12.961  0.1142  0.1374  0.0446
11495DDP     P268967  21.440  21.003  12.333 -0.0761 -0.3503  0.1578
11495DDP     C268968  21.256  20.739  12.004  0.3273  0.0908  0.0443
11495DDP     C368969  21.683  20.655  13.348  0.5502  0.0448  0.2699
11495DDP     C468970  21.332  21.471  12.948 -0.0478  0.0756 -0.1525
11496DDP     C168971   7.207  29.273   2.455  0.0516 -0.1971 -0.4405
11496DDP     P168972   6.948  28.926   2.339 -0.0212 -0.4824  0.1642
11496DDP     P268973   7.423  29.451   2.076  0.0802 -0.1682  0.0129
11496DDP     C268974   7.906  29.423   2.005  0.4852  0.1492  0.2842
11496DDP     C368975   6.489  28.847   2.443  0.2228  0.0054 -0.1024
11496DDP     C468976   7.154  29.452   2.894  0.0145  0.2939 -0.1853
11497DDP     C168977  13.408  30.188  10.468  0.0440 -0.1086  0.0044
11497DDP     P168978  13.713  30.297  10.167  0.1977  0.0406 -0.3861
11497DDP     P268979  12.975  30.342  10.321  0.2623  0.3329 -0.0390
11497DDP     C268980  12.831   0.178   9.947 -0.2469  0.0434  0.2199
11497DDP     C368981  14.113   0.111  10.097  0.0476 -0.0037  0.0382
11497DDP     C468982  13.570  30.115  10.907  0.4122 -0.1103  0.1412
11498DDP     C168983  29.605  29.507  17.800 -0.2720  0.3625  0.0518
11498DDP     P168984  29.362  29.231  17.997  0.0540 -0.0877 -0.0369
11498DDP     P268985  30.112  29.637  17.984  0.2149 -0.1629  0.2538
11498DDP     C268986  30.281  30.007  18.300 -0.1190  0.0847 -0.7624
11498DDP     C368987  29.517  29.089  18.366 -0.0268 -0.1923 -0.0767
11498DDP     C468988  29.288  29.722  17.662  0.0870  0.0758  0.1389
11499DDP     C168989   2.392  15.049  24.095  0.0535 -0.1009 -0.1468
11499DDP     P168990   2.155  14.707  23.867 -0.1660  0.2285  0.0473
11499DDP     P268991   2.669  15.042  24.422  0.1553 -0.1260  0.0172
11499DDP     C268992   3.087  15.275  24.499  0.1455 -0.0721  0.2228
11499DDP     C368993   2.313  14.281  23.933  0.1498  0.2162 -0.0411
11499DDP     C468994   2.222  15.352  23.820 -0.1781 -0.2496 -0.0295
11500DDP     C168995  23.933  22.507   2.342 -0.2299 -0.0128 -0.0229
11500DDP     P168996  24.284  22.442   2.098  0.0037  0.0017 -0.2104
11500DDP     P268997  23.957  22.491   2.824 -0.0892 -0.2794 -0.0233
11500DDP     C268998  24.064  22.805   3.059  0.2667 -0.1424 -0.0809
11500DDP     C368999  24.757  22.266   2.050  0.1024 -0.0076  0.3520
11500DDP     C469000  23.561  22.311   2.150  0.3591 -0.1167 -0.1474
11501DDP     C169001   8.501   3.853  16.762  0.1864  0.0148 -0.1264
11501DDP     P169002   8.746   4.181  16.723  0.0727  0.0173  0.2045
11501DDP     P269003   8.185   3.721  16.530 -0.0430 -0.2273 -0.2032
11501DDP     C269004   7.738   3.606  16.449  0.2766 -0.0417 -0.0538
11501DDP     C369005   8.801   4.647  16.754 -0.3012 -0.0997 -0.2000
11501DDP     C469006   8.647   3.703  17.203 -0.3370 -0.0243 -0.3090
11502DDP     C169007   6.276  23.662  19.891 -0.3696  0.0444 -0.3181
11502DDP     P169008   6.465  23.801  20.391  0.0942 -0.0367  0.1571
11502DDP     P269009   6.453  23.825  19.599 -0.0503 -0.1426 -0.1430
11502DDP     C269010   6.816  23.729  19.320 -0.0743  0.0419 -0.0723
11502DDP     C369011   6.558  24.184  20.553 -0.3461 -0.1665  0.0400
11502DDP     C469012   5.820  23.359  20.034  0.1272 -0.0061 -0.0903
11503DDP     C169013   3.896   9.781   7.408  0.0214  0.0833 -0.0291
11503DDP     P169014   4.326   9.848   7.130  0.0051  0.0221 -0.1714
11503DDP     P269015   3.667  10.084   7.486  0.0081 -0.0657  0.0764
11503DDP     C269016   3.410  10.284   7.808  0.1189 -0.1132 -0.2263
11503DDP     C369017   4.703   9.703   7.181 -0.5291  0.5064  0.1757
11503DDP     C469018   3.601   9.362   7.450  0.1082 -0.2170 -0.0195
11504DDP     C169019  24.220  23.206  11.928 -0.2141  0.2291  0.0375
11504DDP     P169020  23.944  23.238  12.167 -0.0729 -0.0566  0.1277
11504DDP     P269021  24.209  23.483  11.558 -0.2925 -0.2350 -0.2444
11504DDP     C269022  24.424  23.964  11.443  0.1619  0.1474  0.0330
11504DDP     C369023  23.616  22.970  12.531  0.1522  0.2208  0.2680
11504DDP     C469024  24.585  22.945  12.084 -0.2013 -0.2462  0.1407
11505DDP     C169025  10.888  11.511   0.179  0.1627 -0.1476 -0.2477
11505DDP     P169026  10.896  11.168   0.537 -0.1134 -0.0862 -0.1501
11505DDP     P269027  10.707  11.470  30.081  0.0143 -0.4553 -0.2047
11505DDP     C269028  10.595  11.695  29.694  0.0894  0.0906  0.2634
11505DDP     C369029  11.032  11.311   1.016  0.0443 -0.0760  0.3305
11505DDP     C469030  11.000  11.983   0.351  0.1643  0.1289 -0.2726
11506DDP     C169031   3.688   0.462  13.752 -0.3538 -0.1871  0.2846
11506DDP     P169032   4.022   0.600  13.988 -0.3502  0.4005 -0.1535
11506DDP     P269033   3.585   0.039  13.698 -0.2461 -0.0846  0.0602
11506DDP     C269034   3.802  30.047  13.365 -0.0282 -0.1951  0.0863
11506DDP     C369035   4.301   0.645  14.372 -0.1097 -0.1474  0.0954
11506DDP     C469036   3.303   0.724  13.704  0.0318  0.1529  0.0396
11507DDP     C169037  21.691   6.495  23.904 -0.3376  0.0981  0.0119
11507DDP     P169038  21.305   6.530  24.081  0.1659 -0.4394  0.0834
11507DDP     P269039  21.935   6.708  23.498  0.1472  0.3914 -0.2119
11507DDP     C269040  22.036   6.588  23.036 -0.0668 -0.1996  0.0340
11507DDP     C369041  20.932   6.555  23.928 -0.0523 -0.0490 -0.1707
11507DDP     C469042  21.892   6.483  24.340 -0.0015  0.3116 -0.1137
11508DDP     C169043  18.174  12.030   4.418  0.1153  0.0976 -0.1677
11508DDP     P169044  18.242  12.132   4.857  0.0241  0.4113 -0.3355
11508DDP     P269045  18.314  11.659   4.354  0.0713  0.0005 -0.0812
11508DDP     C269046  18.299  11.312   4.119  0.1172  0.0033  0.0980
11508DDP     C369047  18.252  12.034   5.277  0.2769 -0.1639  0.0443
11508DDP     C469048  18.040  12.297   4.191 -0.3894  0.1967 -0.1892
11509DDP     C169049   1.607  13.655   5.776  0.1196  0.2187  0.1834
11509DDP     P169050   2.029  13.599   5.959  0.0419  0.1561 -0.1453
11509DDP     P269051   1.271  13.464   5.569  0.5306 -0.2158 -0.0936
11509DDP     C269052   1.007  13.168   5.253 -0.2099 -0.2139 -0.1523
11509DDP     C369053   2.429  13.757   5.868 -0.2103  0.0195 -0.5070
11509DDP     C469054   1.418  14.075   5.809 -0.0333 -0.0778 -0.0551
11510DDP     C169055  12.536  21.288  13.806  0.0361 -0.1051  0.3676
11510DDP     P169056  12.131  21.480  13.753  0.1269 -0.1011  0.1078
11510DDP     P269057  12.911  21.234  13.511 -0.0303  0.0001 -0.1201
11510DDP     C269058  13.376  21.187  13.669  0.4146  0.3122 -0.4527
11510DDP     C369059  11.671  21.695  13.639 -0.1699 -0.5034  0.1653
11510DDP     C469060  12.536  21.130  14.272 -0.0361 -0.0274 -0.0101
11511DDP     C169061  27.048  11.501   1.725 -0.0144  0.4422  0.1372
11511DDP     P169062  26.889  11.503   2.194  0.3189  0.1276  0.0595
11511DDP     P269063  27.157  10.996   1.642 -0.2949 -0.1542 -0.0686
11511DDP     C269064  27.381  10.709   1.373  0.0732 -0.1689 -0.0713
11511DDP     C369065  26.700  11.833   2.479 -0.2110  0.1567  0.2055
11511DDP     C469066  26.958  11.960   1.605 -0.0151 -0.0911 -0.0567
11512DDP     C169067  10.416  13.545  23.622  0.2494  0.0046  0.2565
11512DDP     P169068  10.142  13.254  23.399  0.2794  0.1049 -0.1479
11512DDP     P269069  10.665  13.255  23.814 -0.1861 -0.2899 -0.1827
11512DDP     C269070  11.013  13.000  23.891  0.1412 -0.1101 -0.3731
11512DDP     C369071   9.915  12.960  23.210 -0.2076 -0.1226  0.0263
11512DDP     C469072  10.290  13.857  23.925 -0.2244 -0.1407  0.2949
11513DDP     C169073  12.164  21.954   2.431  0.1986  0.0857 -0.0849
11513DDP     P169074  11.698  22.025   2.431 -0.6677 -0.3699 -0.1956
11513DDP     P269075  12.355  22.291   2.380  0.0107  0.0794  0.0374
11513DDP     C269076  12.599  22.313   2.743  0.0334 -0.1202 -0.0166
11513DDP     C369077  11.350  22.172   2.565 -0.3944 -0.0392 -0.0272
11513DDP     C469078  12.349  21.502   2.407  0.1290 -0.1190 -0.1689
11514DDP     C169079   9.159  12.557   2.156 -0.3038  0.0661  0.0451
11514DDP     P169080   8.812  12.453   2.542 -0.0123  0.0434  0.0298
11514DDP     P269081   9.626  12.563   2.153  0.3389 -0.1056 -0.0048
11514DDP     C269082  10.047  12.603   1.993 -0.1629  0.0485 -0.2764
11514DDP     C369083   8.599  12.448   2.881  0.2507  0.1079 -0.0087
11514DDP     C469084   9.044  12.885   1.815  0.1242  0.0980 -0.1630
11515DDP     C169085   1.044   0.165  25.636 -0.2513 -0.1220 -0.0591
11515DDP     P169086   1.201  30.168  25.406  0.1883  0.1254  0.0707
11515DDP     P269087   0.989   0.628  25.524 -0.0251 -0.0178  0.0056
11515DDP     C269088   0.818   0.996  25.530  0.0410  0.1185 -0.0884
11515DDP     C369089   0.996  29.690  25.396 -0.0771 -0.0171 -0.0733
11515DDP     C469090   0.826   0.029  26.092  0.1788  0.1166 -0.1190
11516DDP     C169091  29.032  18.042  26.480 -0.1083 -0.2175 -0.1474
11516DDP     P169092  29.342  18.215  26.361 -0.3828  0.1502 -0.1098
11516DDP     P269093  28.668  18.409  26.511  0.0237 -0.0673  0.1027
11516DDP     C269094  28.421  18.855  26.564  0.2878  0.1448  0.0042
11516DDP     C369095  29.655  18.490  26.452  0.1445 -0.1685  0.0768
11516DDP     C469096  29.063  17.743  26.741  0.2610 -0.3221 -0.1156
11517DDP     C169097  19.572  11.813   5.313 -0.0818  0.1336  0.1318
11517DDP     P169098  19.906  11.508   5.269  0.2443  0.0401 -0.1850
11517DDP     P269099  19.320  11.559   5.027 -0.3980  0.2187 -0.0477
11517DDP     C269100  19.170  11.391   4.795  0.3354  0.1577 -0.1568
11517DDP     C369101  20.252  11.266   5.332  0.0822 -0.1134  0.0324
11517DDP     C469102  19.648  12.196   5.606  0.0686 -0.1345  0.3349
11518DDP     C169103  15.597  24.449  13.958 -0.0686 -0.0589  0.0179
11518DDP     P169104  15.938  24.517  14.171 -0.1824  0.0754 -0.1097
11518DDP     P269105  15.337  24.602  14.240  0.3200  0.2307 -0.3113
11518DDP     C269106  15.461  24.727  14.643  0.0130 -0.0146  0.1422
11518DDP     C369107  16.062  24.671  14.516  0.0029 -0.3358 -0.3542
11518DDP     C469108  15.556  24.067  13.732 -0.1089 -0.2451 -0.1566
11519DDP     C169109  21.590  24.539   8.924 -0.1152 -0.0438 -0.1018
11519DDP     P169110  21.418  24.869   9.253 -0.2621 -0.0935 -0.1994
11519DDP     P269111  21.984  24.378   8.971 -0.0506  0.0740 -0.2429
11519DDP     C269112  22.403  24.390   8.786  0.1748 -0.0885 -0.0568
11519DDP     C369113  21.469  25.398   9.240 -0.0533  0.0045  0.1233
11519DDP     C469114  21.571  24.594   8.430  0.1677  0.1589  0.1210
11520DDP     C169115  28.324  28.395  19.853 -0.0102 -0.1976 -0.1793
11520DDP     P169116  27.910  28.570  19.803 -0.1317 -0.1163  0.0527
11520DDP     P269117  28.719  28.641  19.638 -0.2167  0.3073 -0.0163
11520DDP     C269118  28.633  28.987  19.293 -0.2751  0.1298 -0.1126
11520DDP     C369119  27.430  28.635  19.791  0.1842  0.0021 -0.6045
11520DDP     C469120  28.403  27.968  19.940 -0.0824 -0.1389  0.0439
11521DDP     C169121  11.584  27.497  18.503  0.0798  0.0760 -0.1268
11521DDP     P169122  11.235  27.342  18.227  0.1081 -0.1623  0.1032
11521DDP     P269123  11.989  27.349  18.436 -0.3913  0.2275  0.0007
11521DDP     C269124  12.458  27.236  18.367 -0.3356  0.0776 -0.1946
11521DDP     C369125  11.357  27.227  17.947  0.1122  0.0009  0.0123
11521DDP     C469126  11.531  27.781  18.859  0.0710  0.1439  0.3662
11522DDP     C169127  17.530  27.903  10.406 -0.0994  0.0937  0.0629
11522DDP     P169128  17.675  27.474  10.345  0.0070 -0.0069 -0.4578
11522DDP     P269129  17.227  27.917  10.814 -0.1162 -0.1209  0.0898
11522DDP     C269130  17.001  28.022  11.170 -0.0386 -0.0300  0.0851
11522DDP     C369131  17.743  27.088  10.246  0.0364 -0.0666 -0.3974
11522DDP     C469132  17.304  28.079  10.057 -0.1534  0.0193  0.3125
11523DDP     C169133  19.780   8.935  27.725 -0.1481 -0.2228  0.0156
11523DDP     P169134  19.881   9.045  28.100 -0.2258  0.2217 -0.3394
11523DDP     P269135  19.933   8.507  27.680 -0.3647 -0.3510  0.2606
11523DDP     C269136  19.735   8.393  27.286 -0.0130  0.1667 -0.1152
11523DDP     C369137  20.049   9.010  28.543 -0.0949  0.2333  0.2255
11523DDP     C469138  19.681   9.348  27.557  0.0430 -0.0991  0.0668
11524DDP     C169139  17.090   7.497  30.313 -0.0432 -0.4237  0.2029
11524DDP     P169140  17.525   7.380  30.304  0.0652  0.2556  0.0828
11524DDP     P269141  16.952   7.127  30.288 -0.1090 -0.4360 -0.1644
11524DDP     C269142  17.085   6.681  30.262 -0.0445 -0.0313  0.0457
11524DDP     C369143  17.799   7.250   0.316 -0.1840 -0.1317  0.3231
11524DDP     C469144  16.930   7.909  30.249 -0.1044  0.3069  0.1026
11525DDP     C169145  13.831   6.162   8.736  0.1896 -0.1238  0.0831
11525DDP     P169146  13.662   6.259   8.219 -0.4335 -0.0381  0.1292
11525DDP     P269147  13.646   6.308   9.165  0.1607  0.2333  0.1990
11525DDP     C269148  13.364   6.418   9.493 -0.3103 -0.0251  0.1248
11525DDP     C369149  13.488   6.499   7.918  0.2793  0.1204  0.2453
11525DDP     C469150  14.052   5.755   8.775 -0.3597  0.0716 -0.0217
11526DDP     C169151  15.875  10.770   8.645  0.3003 -0.0398 -0.3138
11526DDP     P169152  15.727  10.432   8.849 -0.1442 -0.0237 -0.1362
11526DDP     P269153  16.080  11.030   8.882  0.0770 -0.1577 -0.2480
11526DDP     C269154  16.271  11.046   9.264 -0.1915 -0.1667 -0.3794
11526DDP     C369155  15.489   9.997   8.839 -0.0789  0.2469  0.2008
11526DDP     C469156  15.967  10.696   8.219 -0.3481  0.0912 -0.0173
11527DDP     C169157   6.837  25.619   8.438  0.0976  0.1396  0.1728
11527DDP     P169158   6.754  25.261   8.099  0.1051 -0.0426 -0.1526
11527DDP     P269159   6.435  25.697   8.809  0.2197  0.0006 -0.3022
11527DDP     C269160   5.952  25.559   8.827  0.2529 -0.0145 -0.1065
11527DDP     C369161   6.635  25.541   7.796  0.1656  0.3629  0.0394
11527DDP     C469162   7.086  26.001   8.449 -0.3038 -0.0025 -0.1771
11528DDP     C169163  24.268  24.222  16.856  0.1310 -0.3633  0.2254
11528DDP     P169164  24.718  24.168  16.878 -0.0758  0.0143  0.0937
11528DDP     P269165  24.105  24.619  16.688  0.3704 -0.0252 -0.0140
11528DDP     C269166  24.009  24.775  16.287 -0.1302  0.1127  0.2244
11528DDP     C369167  25.109  23.987  16.734  0.0890 -0.0813  0.1226
11528DDP     C469168  23.910  23.948  16.822 -0.1115  0.1444  0.0402
11529DDP     C169169   4.835  13.509  28.561  0.1552 -0.1757  0.1067
11529DDP     P169170   4.778  13.028  28.302  0.2128 -0.2009  0.0129
11529DDP     P269171   4.437  13.642  28.801 -0.0455  0.1257 -0.2273
11529DDP     C269172   3.962  13.696  28.656  0.0389  0.1222  0.0103
11529DDP     C369173   4.785  12.614  28.307  0.0965  0.0235  0.1096
11529DDP     C469174   5.238  13.663  28.777 -0.1654  0.0528 -0.0149
11530DDP     C169175  13.939   5.140   6.466  0.0548 -0.2283 -0.1289
11530DDP     P169176  14.215   5.099   6.849  0.0162 -0.0382  0.0531
11530DDP     P269177  14.089   4.888   6.076 -0.0566  0.0135 -0.1246
11530DDP     C269178  14.274   5.024   5.737  0.2910  0.1898  0.2036
11530DDP     C369179  14.460   4.842   7.126 -0.0809  0.2211 -0.3235
11530DDP     C469180  13.482   5.179   6.620  0.1499 -0.0038  0.1813
11531DDP     C169181  28.555  28.867   0.340  0.3241 -0.2725  0.2802
11531DDP     P169182  28.700  28.584   0.025 -0.0139  0.1491 -0.0235
11531DDP     P269183  28.667  29.237   0.364  0.1684  0.0553 -0.0129
11531DDP     C269184  28.595  29.700   0.529 -0.2208 -0.3405  0.3661
11531DDP     C369185  28.861  28.158   0.036  0.3814  0.1008 -0.1529
11531DDP     C469186  28.046  28.786   0.277 -0.0555  0.0915 -0.1176
11532DDP     C169187   3.305  10.969  29.682  0.0819  0.0295 -0.1767
11532DDP     P169188   3.418  10.708  29.264 -0.0608  0.0508  0.0794
11532DDP     P269189   3.674  11.131  29.965  0.2572 -0.0746 -0.1331
11532DDP     C269190   4.034  10.882  29.929  0.0706  0.1217 -0.1359
11532DDP     C369191   3.434  10.501  28.842  0.2484 -0.2812 -0.3734
11532DDP     C469192   2.831  10.949  29.788 -0.1038 -0.0690 -0.0905
11533DDP     C169193   0.219  17.275  13.352 -0.3276  0.0558 -0.1430
11533DDP     P169194   0.381  17.352  13.728 -0.2587  0.2335  0.0689
11533DDP     P269195   0.607  17.199  13.091  0.0268  0.0747  0.3447
11533DDP     C269196   0.688  17.143  12.658 -0.2585 -0.1663  0.0206
11533DDP     C369197   0.380  17.738  13.714 -0.0276 -0.1866  0.2186
11533DDP     C469198  30.114  17.301  13.302  0.2214 -0.2409 -0.1752
11534DDP     C169199  15.662  20.010  10.233  0.2490  0.2095  0.1938
11534DDP     P169200  15.804  19.988  10.688  0.0790  0.0112 -0.4050
11534DDP     P269201  15.265  19.642  10.208 -0.1330 -0.2105  0.0386
11534DDP     C269202  14.848  19.467  10.083  0.1397 -0.0645  0.0262
11534DDP     C369203  16.072  19.979  11.161  0.2078  0.0856  0.0942
11534DDP     C469204  15.954  20.003   9.861 -0.0998  0.0665 -0.0187
11535DDP     C169205   6.808   2.013  29.142 -0.1541 -0.1439 -0.1426
11535DDP     P169206   7.183   1.788  28.994  0.2257  0.0193  0.0098
11535DDP     P269207   6.316   1.947  29.044  0.0652 -0.0885  0.2236
11535DDP     C269208   6.041   1.806  28.715  0.0637  0.1232  0.0694
11535DDP     C369209   7.644   1.837  29.182  0.1782 -0.1641  0.1144
11535DDP     C469210   6.838   2.487  29.325  0.1393 -0.3975  0.0546
11536DDP     C169211   6.936  20.818  11.538  0.2210  0.2863 -0.1123
11536DDP     P169212   7.132  21.149  11.652 -0.1732  0.3225 -0.1527
11536DDP     P269213   6.758  20.823  11.299  0.2503 -0.0257 -0.1517
11536DDP     C269214   6.494  21.106  11.054 -0.2226  0.2068  0.2135
11536DDP     C369215   7.058  21.640  11.555  0.0250 -0.0842  0.0929
11536DDP     C469216   6.773  20.494  11.723  0.0183  0.0317  0.0168
11537DDP     C169217  17.014   9.930   0.176  0.0376 -0.0722 -0.1506
11537DDP     P169218  16.640  10.074   0.520  0.0348 -0.0252 -0.2341
11537DDP     P269219  17.255   9.560   0.264 -0.0972 -0.0655 -0.0136
11537DDP     C269220  17.491   9.113   0.274  0.3027  0.1534  0.2305
11537DDP     C369221  16.377   9.947   0.955 -0.2383  0.1546 -0.3410
11537DDP     C469222  17.005  10.064  30.129 -0.0628 -0.1959  0.2495
11538DDP     C169223  10.570   5.963  27.441 -0.1427  0.3532  0.2612
11538DDP     P169224  10.500   6.459  27.189  0.2612  0.0537 -0.1128
11538DDP     P269225  10.469   5.656  27.154 -0.0533  0.0131  0.0976
11538DDP     C269226  10.278   5.347  26.858  0.2522  0.0311  0.3058
11538DDP     C369227  10.350   6.804  26.898 -0.0295 -0.5377 -0.0205
11538DDP     C469228  10.581   5.982  27.939 -0.0685  0.0176 -0.2395
11539DDP     C169229   6.437   0.311   7.421 -0.4334  0.0903  0.2420
11539DDP     P169230   6.302  30.248   7.567  0.0484  0.2172 -0.1565
11539DDP     P269231   6.629   0.672   7.547 -0.2324  0.2165 -0.3297
11539DDP     C269232   6.691   0.958   7.966 -0.1195  0.1653 -0.2847
11539DDP     C369233   6.318  29.841   7.861 -0.1304 -0.7041  0.2695
11539DDP     C469234   6.346   0.285   7.122  0.0163 -0.1054  0.0111
11540DDP     C169235  19.990   5.712  28.983 -0.0921 -0.0155  0.2545
11540DDP     P169236  20.315   5.860  29.215  0.1501  0.0748 -0.1126
11540DDP     P269237  20.076   5.307  28.923 -0.2479 -0.0950  0.5509
11540DDP     C269238  19.892   4.954  28.552  0.0632 -0.1369 -0.1140
11540DDP     C369239  20.688   6.092  29.028 -0.2492 -0.1978 -0.3883
11540DDP     C469240  19.698   6.010  29.006 -0.0688  0.0189 -0.1255
11541DDP     C169241   3.115  29.432  12.370  0.0828  0.1125 -0.0198
11541DDP     P169242   2.683  29.278  12.685 -0.2721 -0.1417  0.2402
11541DDP     P269243   3.326  29.797  12.401  0.1664  0.0408  0.2254
11541DDP     C269244   3.640  30.063  12.368  0.2274 -0.5308  0.1938
11541DDP     C369245   2.265  29.204  12.794 -0.1162 -0.1519 -0.0211
11541DDP     C469246   3.381  29.226  12.137 -0.3119 -0.1564 -0.4011
11542DDP     C169247  12.590  30.153  28.796  0.1093 -0.1748 -0.0890
11542DDP     P169248  12.896  30.296  29.104 -0.2147  0.0387  0.1414
11542DDP     P269249  12.759  29.978  28.455  0.3132 -0.2835  0.1641
11542DDP     C269250  12.584  29.793  27.995  0.3071  0.1214 -0.0622
11542DDP     C369251  13.147  30.252  29.479  0.1579  0.0999 -0.1510
11542DDP     C469252  12.169  30.312  28.694 -0.1651  0.2558  0.1896
11543DDP     C169253  12.216  25.170  28.235  0.0945  0.1153 -0.0571
11543DDP     P169254  11.994  25.118  27.905 -0.0996  0.0842  0.4677
11543DDP     P269255  12.008  25.520  28.423 -0.2948 -0.0997  0.0546
11543DDP     C269256  12.006  25.849  28.646  0.0881 -0.0047  0.2043
11543DDP     C369257  11.709  24.889  27.844  0.2630  0.0494  0.0632
11543DDP     C469258  12.542  25.159  28.035  0.1206 -0.0669  0.0772
11544DDP     C169259  21.619  29.090   6.357 -0.0584 -0.2221 -0.0199
11544DDP     P169260  21.823  28.711   6.318  0.1423 -0.1529 -0.1046
11544DDP     P269261  21.836  29.476   6.317 -0.1434  0.0813  0.0874
11544DDP     C269262  21.838  29.888   6.547  0.0303  0.1613 -0.0512
11544DDP     C369263  21.695  28.380   6.645 -0.0759  0.0667 -0.0236
11544DDP     C469264  21.267  29.016   6.102  0.0046  0.0625 -0.0125
11545DDP     C169265   9.028   8.547  21.024 -0.0500 -0.2978 -0.1607
11545DDP     P169266   8.836   8.532  21.381  0.4042 -0.1178  0.0173
11545DDP     P269267   8.845   8.321  20.705  0.0048 -0.3172  0.2064
11545DDP     C269268   8.901   7.855  20.813 -0.2406  0.0691 -0.2845
11545DDP     C369269   8.512   8.169  21.645  0.1352 -0.0963 -0.1960
11545DDP     C469270   9.421   8.648  20.986  0.3428  0.2402 -0.3328
11546DDP     C169271  27.623  14.716  15.185 -0.0710 -0.2380 -0.2559
11546DDP     P169272  27.875  14.861  15.552  0.1859 -0.4112  0.0779
11546DDP     P269273  27.581  14.880  14.793  0.0413 -0.0180  0.2109
11546DDP     C269274  27.603  15.382  14.606 -0.1737 -0.0065 -0.1647
11546DDP     C369275  28.084  15.012  15.894  0.3458  0.2132  0.0776
11546DDP     C469276  27.548  14.260  15.369 -0.0009  0.0540  0.0806
11547DDP     C169277   3.536  19.622  22.703  0.0132  0.0884  0.1020
11547DDP     P169278   3.501  19.378  22.407  0.2308  0.1640 -0.3824
11547DDP     P269279   3.968  19.671  22.835  0.1703  0.2418 -0.1989
11547DDP     C269280   4.370  19.636  22.830 -0.0118  0.0760  0.0980
11547DDP     C369281   3.187  19.012  22.314  0.2475 -0.0621 -0.1781
11547DDP     C469282   3.399  19.857  22.955  0.1505  0.2036  0.0440
11548DDP     C169283   3.865   6.012  25.511 -0.0946 -0.3368 -0.3764
11548DDP     P169284   4.003   5.678  25.714 -0.3223  0.0814  0.3319
11548DDP     P269285   3.963   5.965  25.122 -0.0829  0.3230 -0.0316
11548DDP     C269286   4.216   6.048  24.750 -0.1888  0.0866 -0.0359
11548DDP     C369287   4.118   5.408  26.087  0.0202  0.0442 -0.2060
11548DDP     C469288   3.576   6.250  25.810 -0.2176 -0.0623 -0.1363
11549DDP     C169289  22.489  18.326  14.778  0.0179 -0.0128  0.0480
11549DDP     P169290  22.760  18.098  15.040 -0.0579  0.0089  0.0707
11549DDP     P269291  22.184  18.071  14.713  0.0347  0.1585 -0.0200
11549DDP     C269292  21.858  17.735  14.868 -0.2059  0.0012 -0.1533
11549DDP     C369293  22.780  18.173  15.545  0.0158 -0.0600  0.2519
11549DDP     C469294  22.479  18.732  14.565 -0.0906 -0.3853  0.2262
11550DDP     C169295   7.287  15.710   1.182 -0.1046  0.0092  0.0299
11550DDP     P169296   7.394  15.552   0.764 -0.1469 -0.4473  0.2783
11550DDP     P269297   7.129  15.636   1.478 -0.0053 -0.0077  0.0502
11550DDP     C269298   6.663  15.557   1.741 -0.1153  0.4791  0.2235
11550DDP     C369299   7.432  15.743   0.345 -0.2972 -0.1605 -0.0657
11550DDP     C469300   7.349  16.131   1.254 -0.1130  0.2164 -0.0805
11551DDP     C169301  15.236  15.508  16.474  0.2128  0.1509 -0.3017
11551DDP     P169302  14.941  15.362  16.156 -0.4027 -0.4192  0.0097
11551DDP     P269303  15.237  15.996  16.393 -0.0868  0.3188  0.2240
11551DDP     C269304  15.096  16.334  16.620  0.3019  0.3116 -0.2404
11551DDP     C369305  14.939  15.590  15.857  0.1523 -0.2462  0.1165
11551DDP     C469306  14.923  15.361  16.877  0.0753  0.1160  0.0385
11552DDP     C169307  21.710   7.341   2.376  0.2393 -0.3245  0.0688
11552DDP     P169308  21.478   7.086   2.790 -0.1940  0.2171 -0.0763
11552DDP     P269309  21.471   7.500   2.032 -0.1132  0.4208  0.0966
11552DDP     C269310  21.452   7.408   1.530  0.1815 -0.2067  0.2638
11552DDP     C369311  21.286   6.606   2.806 -0.1604  0.1787  0.0937
11552DDP     C469312  22.153   7.360   2.367 -0.2413 -0.1075 -0.0590
11553DDP     C169313  20.141  29.045   3.219  0.3624 -0.4049  0.2449
11553DDP     P169314  20.537  29.103   2.997  0.0618  0.0132 -0.1846
11553DDP     P269315  19.673  29.228   3.096 -0.1491 -0.2235 -0.3577
11553DDP     C269316  19.340  29.467   2.976  0.3626  0.0098  0.0878
11553DDP     C369317  20.740  28.766   2.886 -0.1024 -0.2137 -0.0558
11553DDP     C469318  20.342  29.112   3.573  0.0220  0.0302 -0.0040
11554DDP     C169319   7.166  27.575  12.631 -0.1937 -0.0235 -0.1474
11554DDP     P169320   7.535  27.833  12.841  0.1599 -0.1701 -0.0040
11554DDP     P269321   6.910  27.908  12.495  0.1571 -0.2164  0.0696
11554DDP     C269322   6.676  28.190  12.782 -0.2739  0.3937  0.0591
11554DDP     C369323   7.583  28.009  13.381 -0.0207 -0.4244 -0.0149
11554DDP     C469324   7.078  27.132  12.752 -0.3103  0.0473  0.0908
11555DDP     C169325  18.020   2.811  22.886 -0.1033  0.0410  0.1072
11555DDP     P169326  17.721   2.596  22.640  0.0478  0.0070  0.0594
11555DDP     P269327  18.309   2.838  22.597 -0.3305  0.0483  0.0590
11555DDP     C269328  18.730   2.832  22.478 -0.0313 -0.0471  0.1095
11555DDP     C369329  17.500   2.162  22.507  0.0864  0.1923  0.1671
11555DDP     C469330  18.197   2.845  23.349 -0.3030 -0.2694  0.1811
11556DDP     C169331  18.193   2.670  30.024 -0.1354 -0.0054  0.0505
11556DDP     P169332  18.230   3.041  30.269  0.0309 -0.0524 -0.1037
11556DDP     P269333  18.638   2.717  29.689 -0.2234  0.1176 -0.1116
11556DDP     C269334  19.074   2.849  29.500  0.1647 -0.0536  0.1521
11556DDP     C369335  18.010   3.456   0.194  0.1493 -0.0376 -0.0423
11556DDP     C469336  17.851   2.351  30.301 -0.2105 -0.0760 -0.1209
11557DDP     C169337  20.998   9.206  28.583 -0.0426 -0.0972 -0.1160
11557DDP     P169338  21.433   9.247  28.536 -0.0028 -0.2017 -0.0826
11557DDP     P269339  20.694   9.599  28.475 -0.0970 -0.1839  0.0434
11557DDP     C269340  20.481   9.942  28.410 -0.2040 -0.1667 -0.1612
11557DDP     C369341  21.753   9.474  28.753  0.3468 -0.0244  0.1477
11557DDP     C469342  20.883   8.664  28.838  0.2532  0.1860 -0.2451
11558DDP     C169343  27.580  25.746   5.006  0.0980 -0.2019  0.0913
11558DDP     P169344  27.206  25.670   5.021  0.0219 -0.2303 -0.0170
11558DDP     P269345  27.853  26.117   5.000  0.1073 -0.0157  0.0751
11558DDP     C269346  28.260  25.997   4.848 -0.2539 -0.1611  0.0338
11558DDP     C369347  26.948  25.909   4.733 -0.0839  0.0554  0.0350
11558DDP     C469348  27.740  25.333   5.162  0.2715  0.1384 -0.1723
11559DDP     C169349  16.571  10.836   5.155 -0.0905 -0.1783  0.1535
11559DDP     P169350  16.636  10.859   5.563 -0.0367  0.0205 -0.0647
11559DDP     P269351  17.045  10.836   4.889  0.2141  0.0863 -0.0818
11559DDP     C269352  17.403  10.808   4.658 -0.1856  0.1368  0.3763
11559DDP     C369353  16.276  10.850   5.866  0.0265 -0.2479  0.0398
11559DDP     C469354  16.192  11.054   5.064  0.1195  0.0540  0.1209
11560DDP     C169355   5.566  19.816  27.924  0.0536  0.2384  0.2233
11560DDP     P169356   5.581  19.464  27.638 -0.2665 -0.2441 -0.0860
11560DDP     P269357   5.662  19.769  28.290  0.1378 -0.1242 -0.2090
11560DDP     C269358   5.779  19.860  28.720 -0.2226  0.2845 -0.0956
11560DDP     C369359   5.842  19.466  27.230 -0.0431 -0.0176  0.0059
11560DDP     C469360   5.773  20.219  27.863  0.1344 -0.1266  0.4175
11561DDP     C169361  30.177  14.882   9.640 -0.1971  0.3551 -0.3657
11561DDP     P169362  29.980  15.052  10.053  0.1373  0.2224  0.0670
11561DDP     P269363   0.220  14.678   9.692  0.0778 -0.2494  0.3315
11561DDP     C269364   0.686  14.657   9.820 -0.1012  0.0156  0.1934
11561DDP     C369365  29.945  15.013  10.460  0.4684  0.0965 -0.1510
11561DDP     C469366  29.998  14.900   9.278  0.0101 -0.1514  0.0464
11562DDP     C169367   5.434  23.848   6.166  0.0517 -0.2442 -0.0395
11562DDP     P169368   5.271  23.797   5.696 -0.2428 -0.0163  0.1151
11562DDP     P269369   5.729  24.123   6.299  0.0052 -0.2010 -0.0702
11562DDP     C269370   6.026  24.533   6.404 -0.1867  0.2822  0.2566
11562DDP     C369371   5.210  23.452   5.474  0.1215  0.1846 -0.2948
11562DDP     C469372   5.421  23.426   6.423 -0.3803  0.2609  0.2122
11563DDP     C169373  27.966   0.592   1.639 -0.0563  0.0237  0.2850
11563DDP     P169374  27.518   0.472   1.519  0.0617  0.1643  0.1213
11563DDP     P269375  28.145   0.159   1.918 -0.1175 -0.4279 -0.1890
11563DDP     C269376  28.328  30.160   2.163  0.0942  0.3389  0.1470
11563DDP     C369377  27.087   0.413   1.411  0.0745 -0.2143  0.0875
11563DDP     C469378  28.169   1.098   1.639 -0.2985 -0.0816  0.2204
11564DDP     C169379   7.770  20.767  29.583  0.0207 -0.1823 -0.0240
11564DDP     P169380   7.995  20.562  29.350 -0.2096  0.3028 -0.2423
11564DDP     P269381   7.343  20.706  29.555 -0.0880  0.1489 -0.1605
11564DDP     C269382   6.892  20.600  29.657  0.1691  0.2252  0.1296
11564DDP     C369383   8.441  20.502  29.338  0.0450  0.1159 -0.1307
11564DDP     C469384   7.938  21.089  29.919 -0.0602 -0.0051 -0.0611
11565DDP     C169385  29.757  16.874  21.204  0.0888 -0.1223 -0.1471
11565DDP     P169386  30.121  16.594  21.276  0.3405  0.3336  0.1484
11565DDP     P269387  29.363  16.704  21.314  0.3838 -0.0218 -0.3465
11565DDP     C269388  28.968  16.669  21.114 -0.0014 -0.4289 -0.2707
11565DDP     C369389   0.174  16.455  21.058  0.1177 -0.0607 -0.1251
11565DDP     C469390  29.720  17.333  21.318  0.2236  0.2099  0.1504
11566DDP     C169391  14.618   0.013  21.745  0.1370  0.0489  0.2925
11566DDP     P169392  14.961  30.063  21.644  0.0084 -0.2294 -0.0728
11566DDP     P269393  14.879   0.433  21.642 -0.2265 -0.3629  0.2667
11566DDP     C269394  15.193   0.713  21.605 -0.0403 -0.2884 -0.2382
11566DDP     C369395  15.194  30.049  21.241 -0.0253  0.0632 -0.2099
11566DDP     C469396  14.246   0.238  21.599 -0.3429  0.3066  0.0932
11567DDP     C169397  16.979   3.350  10.296  0.1441 -0.0510 -0.1607
11567DDP     P169398  16.667   3.149  10.648  0.1698 -0.0670  0.0141
11567DDP     P269399  17.309   3.569  10.436  0.2666 -0.0544  0.2490
11567DDP     C269400  17.705   3.693  10.467  0.0652 -0.1132 -0.0225
11567DDP     C369401  16.309   3.182  10.874  0.1480  0.0966  0.0929
11567DDP     C469402  16.940   3.579   9.946  0.0624 -0.3340  0.0340
11568DDP     C169403   7.617  10.917   2.949  0.2077  0.1244 -0.1317
11568DDP     P169404   7.589  10.605   3.279  0.0936 -0.1376  0.2143
11568DDP     P269405   7.204  11.003   2.999  0.0253  0.2080 -0.0508
11568DDP     C269406   7.123  10.745   3.405 -0.4171 -0.0327  0.1291
11568DDP     C369407   7.822  10.397   3.604  0.0159  0.3174  0.0474
11568DDP     C469408   8.079  10.963   2.787 -0.2991 -0.2840  0.0404
11569DDP     C169409  16.217  28.265  22.688  0.1915 -0.1160  0.0059
11569DDP     P169410  15.867  28.304  22.409 -0.0673  0.3738 -0.0190
11569DDP     P269411  16.509  27.951  22.541 -0.5202 -0.1496  0.3042
11569DDP     C269412  16.911  27.750  22.305  0.1791  0.1038 -0.1185
11569DDP     C369413  15.508  28.413  22.079 -0.0091 -0.1822  0.3217
11569DDP     C469414  16.222  28.378  23.124  0.0335  0.0806 -0.0293
11570DDP     C169415  15.229  29.603   7.970  0.1502  0.3172  0.0503
11570DDP     P169416  15.147  29.259   8.272  0.0210  0.1741  0.1426
11570DDP     P269417  14.843  29.748   7.868 -0.0529  0.2711 -0.1044
11570DDP     C269418  14.423  29.833   7.776 -0.3051 -0.3364  0.0298
11570DDP     C369419  15.064  28.958   8.504  0.0926 -0.0391  0.2838
11570DDP     C469420  15.672  29.614   7.966  0.0002  0.1167 -0.0636
11571DDP     C169421   1.197  28.548  16.689 -0.2515  0.1820  0.0966
11571DDP     P169422   1.430  28.584  16.260  0.1929 -0.2768 -0.1543
11571DDP     P269423   0.914  28.203  16.830 -0.0231 -0.0386 -0.2355
11571DDP     C269424   0.762  27.866  17.092 -0.4464  0.1016 -0.1102
11571DDP     C369425   1.823  28.886  16.075 -0.2471  0.3361  0.2100
11571DDP     C469426   1.358  28.880  16.981 -0.3278 -0.3046  0.1470
11572DDP     C169427  11.376  24.787   1.934 -0.1395 -0.0596  0.0197
11572DDP     P169428  11.515  25.235   1.801 -0.1503  0.0858  0.0670
11572DDP     P269429  11.436  24.391   1.729  0.1480 -0.1660 -0.0506
11572DDP     C269430  11.306  24.001   1.650  0.1160 -0.0505 -0.2345
11572DDP     C369431  11.652  25.586   1.611  0.1578 -0.0185 -0.0158
11572DDP     C469432  11.085  24.563   2.191 -0.0152 -0.1090  0.0795
11573DDP     C169433  20.056  22.556  17.809  0.2664  0.0587  0.0884
11573DDP     P169434  19.774  22.759  18.166 -0.1516 -0.1784  0.3446
11573DDP     P269435  20.225  22.605  17.426 -0.0451 -0.1270 -0.1379
11573DDP     C269436  20.470  22.842  17.213 -0.1286  0.0155 -0.1539
11573DDP     C369437  19.860  22.653  18.667  0.0648  0.0916  0.0385
11573DDP     C469438  20.065  22.116  17.903  0.1758  0.1032  0.2406
11574DDP     C169439  27.903  11.021  17.197 -0.2369 -0.5080 -0.0944
11574DDP     P169440  27.640  11.345  17.484  0.0380  0.5230  0.0195
11574DDP     P269441  27.952  10.671  17.449  0.1963  0.1558 -0.0060
11574DDP     C269442  28.242  10.323  17.408  0.0725  0.1055 -0.0092
11574DDP     C369443  27.313  11.655  17.387  0.1166  0.2444  0.0463
11574DDP     C469444  28.195  11.221  16.889 -0.0468 -0.0931  0.1392
11575DDP     C169445  18.946  29.263   2.179  0.2102 -0.2962  0.3192
11575DDP     P169446  19.050  29.099   2.512  0.0754 -0.0024  0.1690
11575DDP     P269447  18.699  29.610   2.112  0.1271  0.1808  0.1099
11575DDP     C269448  18.229  29.563   2.018  0.2746  0.0892 -0.1274
11575DDP     C369449  19.273  29.009   2.847 -0.2376  0.2781 -0.1889
11575DDP     C469450  18.965  29.074   1.792  0.0771  0.2287 -0.2504
11576DDP     C169451  15.163  28.086  11.808 -0.2960 -0.0816 -0.1037
11576DDP     P169452  15.521  27.903  11.708  0.0183 -0.1052 -0.1605
11576DDP     P269453  14.916  28.138  11.506 -0.2539  0.0727  0.0226
11576DDP     C269454  15.039  27.839  11.216 -0.1918  0.1832 -0.0261
11576DDP     C369455  15.672  27.833  12.131  0.2123 -0.1457  0.0459
11576DDP     C469456  15.126  28.316  12.175  0.1500 -0.0871  0.0875
11577DDP     C169457  21.104  13.138  23.665  0.1350  0.0947 -0.0483
11577DDP     P169458  21.505  13.279  23.981  0.0093 -0.3520  0.1616
11577DDP     P269459  20.825  12.794  23.716  0.0524  0.1712 -0.2810
11577DDP     C269460  20.422  12.603  23.839  0.0879 -0.0353 -0.1907
11577DDP     C369461  21.952  13.430  24.009  0.1384  0.0407 -0.2309
11577DDP     C469462  20.908  13.424  23.384  0.1083  0.2618 -0.0016
11578DDP     C169463  12.961  21.965  21.548 -0.0652 -0.2449 -0.2396
11578DDP     P169464  13.242  22.225  21.783 -0.0987 -0.4042 -0.0487
11578DDP     P269465  12.994  21.604  21.258  0.0392  0.2775  0.0165
11578DDP     C269466  12.776  21.192  21.236 -0.0486  0.2786 -0.2668
11578DDP     C369467  13.440  22.676  21.955  0.5628  0.0541  0.1007
11578DDP     C469468  12.526  21.951  21.888 -0.0439  0.2901 -0.1748
11579DDP     C169469  14.157  21.346  25.743  0.1079 -0.0339  0.0154
11579DDP     P169470  14.479  21.662  25.824 -0.1167 -0.3055 -0.0090
11579DDP     P269471  14.065  20.880  25.765  0.1706  0.0374  0.2228
11579DDP     C269472  13.940  20.604  26.160 -0.2816 -0.1319  0.0473
11579DDP     C369473  14.558  21.845  26.190 -0.2742  0.0889 -0.1880
11579DDP     C469474  13.957  21.448  25.275 -0.2696  0.1504 -0.2473
11580DDP     C169475  14.619  27.051  13.254  0.2239  0.0064  0.0004
11580DDP     P169476  14.465  27.453  13.545 -0.1859 -0.0729 -0.2188
11580DDP     P269477  14.436  26.799  12.917  0.0298 -0.2256  0.0138
11580DDP     C269478  14.010  26.781  12.722  0.2203  0.0540  0.4981
11580DDP     C369479  14.001  27.608  13.553 -0.1336 -0.0150 -0.0699
11580DDP     C469480  14.784  26.899  13.664  0.1117  0.2296  0.2343
11581DDP     C169481  13.169  16.384  24.995 -0.1476 -0.1347 -0.0591
11581DDP     P169482  13.555  16.282  25.129 -0.1988  0.1202 -0.2492
11581DDP     P269483  12.872  16.650  24.878  0.2176 -0.0095  0.3012
11581DDP     C269484  12.754  17.004  24.570 -0.2596  0.2698 -0.3454
11581DDP     C369485  13.838  16.040  24.943 -0.0166 -0.0112 -0.1358
11581DDP     C469486  13.152  16.066  24.691  0.0250  0.4220 -0.1594
11582DDP     C169487   9.233   2.751   5.542 -0.0474  0.2758 -0.1387
11582DDP     P169488   9.238   2.352   5.409 -0.2785 -0.0472  0.0580
11582DDP     P269489   8.810   3.069   5.543 -0.0109  0.2260 -0.0412
11582DDP     C269490   8.475   3.337   5.515 -0.1248  0.1423 -0.1818
11582DDP     C369491   8.946   2.186   5.120 -0.1193 -0.1080 -0.0253
11582DDP     C469492   9.622   2.953   5.380  0.2159  0.2868 -0.1031
11583DDP     C169493   8.527  27.819  16.186 -0.1953  0.1094  0.0633
11583DDP     P169494   8.284  27.975  16.507 -0.0265 -0.0339  0.1263
11583DDP     P269495   8.401  27.634  15.764 -0.0482  0.1812 -0.4693
11583DDP     C269496   8.429  27.232  15.579  0.1338 -0.0729 -0.1971
11583DDP     C369497   7.876  27.893  16.610  0.1469 -0.4342 -0.0431
11583DDP     C469498   8.821  27.951  16.321  0.0822  0.0814 -0.1437
11584DDP     C169499   9.306  13.931  19.074  0.2092 -0.1782 -0.0396
11584DDP     P169500   8.835  14.078  18.914  0.0182  0.1556  0.2920
11584DDP     P269501   9.692  14.075  18.812  0.2965  0.0243  0.2782
11584DDP     C269502  10.084  14.175  18.518 -0.0277 -0.1898 -0.1010
11584DDP     C369503   8.826  14.299  18.586 -0.0612  0.0042  0.1782
11584DDP     C469504   9.349  13.756  19.494 -0.0896  0.0312  0.0077
11585DDP     C169505   1.649  23.154  18.193 -0.2400 -0.0760  0.0350
11585DDP     P169506   1.998  23.224  18.215 -0.2301  0.1576  0.1672
11585DDP     P269507   1.434  22.862  18.595 -0.1476 -0.0516 -0.3371
11585DDP     C269508   1.417  22.542  18.947  0.1819 -0.1053  0.0035
11585DDP     C369509   2.211  23.105  17.832 -0.3519  0.0626  0.0065
11585DDP     C469510   1.301  23.097  17.835 -0.0092  0.0572  0.1307
11586DDP     C169511  21.897  27.863  21.435  0.0332 -0.1830  0.2125
11586DDP     P169512  21.927  28.316  21.163  0.1945  0.2750  0.0383
11586DDP     P269513  22.329  27.789  21.511  0.0243  0.0987  0.0038
11586DDP     C269514  22.524  27.446  21.759  0.3341  0.0097  0.0604
11586DDP     C369515  22.275  28.681  21.117  0.1442 -0.0501  0.1040
11586DDP     C469516  21.588  27.504  21.242 -0.2560 -0.3122  0.2058
11587DDP     C169517  14.151  13.310   4.246 -0.4205  0.3057 -0.2990
11587DDP     P169518  13.943  13.161   4.507  0.1364 -0.1605 -0.0085
11587DDP     P269519  14.497  12.980   4.205  0.2230  0.1591 -0.0796
11587DDP     C269520  14.875  12.692   4.027 -0.0297 -0.1180 -0.0048
11587DDP     C369521  13.565  13.073   4.727  0.0008  0.3466  0.1200
11587DDP     C469522  13.986  13.749   4.063 -0.2086  0.0644  0.2606
11588DDP     C169523  14.966  21.041  21.328  0.0643 -0.2970 -0.1753
11588DDP     P169524  14.644  21.010  21.020 -0.1048 -0.0613  0.2613
11588DDP     P269525  14.937  20.713  21.577  0.1427  0.2392 -0.0787
11588DDP     C269526  14.643  20.608  21.742 -0.0303 -0.0177  0.3615
11588DDP     C369527  14.404  21.125  20.761  0.0168 -0.1732  0.2514
11588DDP     C469528  15.346  21.275  21.421  0.1088 -0.1855  0.0608
11589DDP     C169529  13.508   2.095  24.424 -0.0190 -0.3497  0.1776
11589DDP     P169530  13.628   1.644  24.243 -0.1346 -0.3242  0.4094
11589DDP     P269531  13.847   2.387  24.489 -0.3068 -0.0381  0.2208
11589DDP     C269532  13.919   2.696  24.780 -0.1129 -0.0021 -0.2104
11589DDP     C369533  13.453   1.465  23.831 -0.2044 -0.0551 -0.1388
11589DDP     C469534  13.044   2.012  24.566  0.1942  0.3481 -0.0766
11590DDP     C169535   9.263  29.808  28.045  0.0335 -0.1896  0.1061
11590DDP     P169536   9.529  29.765  28.282 -0.2902  0.1067  0.0990
11590DDP     P269537   8.909  29.569  27.947  0.0382  0.2112  0.1125
11590DDP     C269538   8.540  29.583  28.141 -0.1577  0.2494  0.0629
11590DDP     C369539   9.955  29.857  28.500  0.0297 -0.1124 -0.0847
11590DDP     C469540   9.296  30.207  27.756 -0.1249 -0.0500 -0.1528
11591DDP     C169541  16.014  11.903   2.030  0.0045 -0.0259  0.2670
11591DDP     P169542  16.136  11.497   2.197  0.0512 -0.1166 -0.4282
11591DDP     P269543  15.639  12.065   2.254  0.2239  0.0937 -0.0848
11591DDP     C269544  15.176  12.139   2.025 -0.2263  0.0429  0.0452
11591DDP     C369545  16.097  11.105   2.490  0.0026 -0.0203 -0.0047
11591DDP     C469546  16.012  11.876   1.651  0.1637  0.1578  0.1826
11592DDP     C169547  23.725   5.686  27.522  0.0784 -0.0682 -0.2755
11592DDP     P169548  23.999   5.795  27.952  0.0517  0.1655 -0.0122
11592DDP     P269549  23.358   5.840  27.611  0.0881  0.4118 -0.3131
11592DDP     C269550  23.037   6.040  27.793 -0.1782 -0.4002 -0.0423
11592DDP     C369551  24.093   6.281  28.062  0.3777 -0.0460  0.2683
11592DDP     C469552  23.875   5.293  27.204  0.1618  0.0746 -0.1407
11593DDP     C169553  28.784  11.089   5.410  0.0319  0.0132 -0.0325
11593DDP     P169554  28.873  11.469   5.113  0.0819 -0.1467 -0.3033
11593DDP     P269555  28.376  11.154   5.668  0.1613  0.0889  0.3209
11593DDP     C269556  28.115  10.786   5.676 -0.1211 -0.1412 -0.2162
11593DDP     C369557  29.102  11.805   5.007  0.2622 -0.0994 -0.0321
11593DDP     C469558  29.116  10.754   5.499 -0.0408 -0.2709  0.0842
11594DDP     C169559   0.939  14.395  16.194 -0.0512  0.1119  0.2090
11594DDP     P169560   1.190  14.249  15.909 -0.2985 -0.2490 -0.1360
11594DDP     P269561   0.797  14.841  16.070  0.1918 -0.0983 -0.2752
11594DDP     C269562   0.568  15.057  15.883 -0.2050 -0.2294 -0.0981
11594DDP     C369563   1.368  13.923  15.535  0.1941 -0.0027  0.5250
11594DDP     C469564   0.741  14.177  16.509  0.2175  0.1546 -0.1133
11595DDP     C169565   3.902  29.360  12.111 -0.0898  0.2169 -0.2036
11595DDP     P169566   3.628  29.666  11.875 -0.0325  0.1840 -0.1651
11595DDP     P269567   4.139  29.178  11.798  0.1792 -0.1721  0.2024
11595DDP     C269568   4.404  29.099  11.501  0.1672  0.1655  0.0484
11595DDP     C369569   3.409  30.028  11.949 -0.2357 -0.0275  0.0713
11595DDP     C469570   3.820  29.198  12.559 -0.1900 -0.2295 -0.2405
11596DDP     C169571  29.526   0.182   0.062  0.0707 -0.1216 -0.1601
11596DDP     P169572  29.931   0.399  30.186  0.0721  0.3749 -0.0998
11596DDP     P269573  29.441  30.109  30.201 -0.2026 -0.2162 -0.3205
11596DDP     C269574  29.057  30.016  30.036 -0.0434 -0.2629  0.0324
11596DDP     C369575  30.298   0.321  30.151  0.1061 -0.0424  0.2775
11596DDP     C469576  29.195   0.321   0.393 -0.0516 -0.2824  0.1237
11597DDP     C169577  13.427   4.825  10.681 -0.1347  0.0862 -0.0318
11597DDP     P169578  13.875   4.797  10.485  0.1686 -0.0747 -0.2752
11597DDP     P269579  13.163   5.186  10.560  0.0236 -0.0949  0.0109
11597DDP     C269580  13.172   5.591  10.334  0.0391 -0.1028  0.2607
11597DDP     C369581  14.097   5.143  10.532  0.2356 -0.1749  0.0814
11597DDP     C469582  13.206   4.445  10.708  0.1546 -0.2801 -0.0599
11598DDP     C169583   8.721   0.884  25.046 -0.0492  0.0761  0.0161
11598DDP     P169584   8.979   0.578  24.864  0.1879 -0.2528  0.0912
11598DDP     P269585   8.977   0.922  25.416 -0.0424  0.2628 -0.0948
11598DDP     C269586   9.212   1.053  25.882  0.1331 -0.0623 -0.1224
11598DDP     C369587   9.448   0.583  24.679  0.1512 -0.1363  0.1215
11598DDP     C469588   8.269   1.037  25.134  0.2460 -0.1118 -0.1426
11599DDP     C169589  27.457   3.776  29.800  0.1551  0.0998  0.2561
11599DDP     P169590  27.445   3.541  30.155 -0.1186  0.2294 -0.1434
11599DDP     P269591  27.350   3.514  29.484  0.0215  0.1784 -0.1636
11599DDP     C269592  27.086   3.187  29.439 -0.1436  0.3042  0.0520
11599DDP     C369593  27.644   3.546   0.261 -0.1774  0.0176  0.1201
11599DDP     C469594  27.415   4.239  29.774 -0.2750 -0.1106  0.0643
11600DDP     C169595   2.689   5.388  13.791  0.1366 -0.3373  0.0312
11600DDP     P169596   2.936   5.738  13.811 -0.2119 -0.1160  0.0599
11600DDP     P269597   2.212   5.465  13.639  0.2374  0.0297 -0.0565
11600DDP     C269598   2.081   5.406  13.211 -0.1796 -0.4061  0.0511
11600DDP     C369599   3.114   6.094  14.126 -0.1630 -0.0595  0.1649
11600DDP     C469600   2.676   5.097  14.078  0.0174  0.0435  0.0535
11601DDP     C169601  16.766   8.412   7.457  0.2203 -0.2437  0.0699
11601DDP     P169602  16.491   8.679   7.370  0.2535 -0.1086  0.2392
11601DDP     P269603  17.165   8.551   7.483  0.0554 -0.1737 -0.0134
11601DDP     C269604  17.201   8.900   7.710 -0.1077  0.0024  0.1291
11601DDP     C369605  16.392   9.054   7.582  0.0785  0.0367  0.2651
11601DDP     C469606  16.585   8.022   7.481  0.2312 -0.0423 -0.1191
11602DDP     C169607   2.120   9.648   2.943 -0.0547  0.1096 -0.3525
11602DDP     P169608   2.200   9.873   2.571 -0.1980 -0.2197 -0.2073
11602DDP     P269609   1.951   9.238   2.752 -0.0399 -0.0335  0.3301
11602DDP     C269610   1.590   9.044   2.436 -0.2113 -0.2233  0.2997
11602DDP     C369611   2.523   9.944   2.350 -0.0198  0.1950  0.0326
11602DDP     C469612   2.262   9.743   3.368  0.2298 -0.0388  0.2474
11603DDP     C169613   8.069  30.069  11.492  0.0039  0.1906 -0.0984
11603DDP     P169614   8.288  30.139  11.898 -0.0286  0.0069 -0.1082
11603DDP     P269615   8.058   0.189  11.294  0.3136  0.3755 -0.1142
11603DDP     C269616   8.314   0.525  11.114  0.0269 -0.0944 -0.0904
11603DDP     C369617   8.717  30.062  12.016 -0.1238  0.2638  0.1172
11603DDP     C469618   8.086  29.733  11.157  0.1807  0.1381 -0.2897
11604DDP     C169619  18.526  22.544   2.529 -0.2985  0.0311 -0.1870
11604DDP     P169620  18.344  22.183   2.732 -0.1786 -0.3166  0.0032
11604DDP     P269621  18.502  22.992   2.707 -0.0152  0.2006 -0.0218
11604DDP     C269622  18.645  23.308   2.716 -0.0243  0.2137 -0.0186
11604DDP     C369623  18.043  21.909   2.866  0.4741  0.0060  0.0213
11604DDP     C469624  18.969  22.555   2.482 -0.0793 -0.0016  0.1518
11605DDP     C169625  26.694   4.121  19.597  0.0493  0.0438  0.1921
11605DDP     P169626  27.094   4.382  19.577  0.0035  0.1725  0.2328
11605DDP     P269627  26.638   3.737  19.729 -0.1779  0.1020  0.2632
11605DDP     C269628  26.417   3.486  20.072  0.1777  0.1067  0.0051
11605DDP     C369629  27.560   4.169  19.622  0.0164 -0.1794 -0.1338
11605DDP     C469630  26.275   4.333  19.489 -0.1788  0.0012  0.2437
11606DDP     C169631   5.215  23.720  18.331 -0.4707 -0.0576 -0.4579
11606DDP     P169632   5.100  23.296  18.168  0.0874 -0.1427  0.2691
11606DDP     P269633   5.323  23.668  18.796  0.0335  0.1299 -0.1420
11606DDP     C269634   5.001  23.486  19.110  0.2098 -0.0146 -0.1504
11606DDP     C369635   4.779  23.080  17.911 -0.1655  0.1109 -0.1927
11606DDP     C469636   5.262  24.120  18.208  0.0393  0.0538  0.2112
11607DDP     C169637   2.736   3.227  20.808 -0.1113 -0.2268  0.4251
11607DDP     P169638   3.012   3.358  21.089  0.1062 -0.0552 -0.3492
11607DDP     P269639   2.308   3.105  20.881  0.0026 -0.3045  0.0560
11607DDP     C269640   2.001   3.388  20.793  0.0573  0.2488  0.1301
11607DDP     C369641   3.275   3.226  21.424 -0.0633 -0.3064  0.0466
11607DDP     C469642   2.904   3.267  20.522 -0.1146 -0.0974 -0.3325
11608DDP     C169643  13.139   5.292   4.696 -0.0735  0.1517 -0.1570
11608DDP     P169644  13.623   5.009   4.770 -0.2742  0.1399 -0.2100
11608DDP     P269645  13.023   5.277   5.071 -0.0023  0.0176  0.0328
11608DDP     C269646  12.747   5.081   5.415  0.2484  0.1372 -0.0084
11608DDP     C369647  13.632   4.605   4.647  0.1435  0.0478  0.0544
11608DDP     C469648  13.080   5.760   4.383  0.2251  0.0899 -0.0128
11609DDP     C169649  24.327   0.076  28.549 -0.0768 -0.1224 -0.1700
11609DDP     P169650  24.487   0.420  28.811  0.2303 -0.4532  0.1594
11609DDP     P269651  24.019   0.144  28.122  0.0407 -0.1579 -0.3396
11609DDP     C269652  23.679  30.213  27.902 -0.1212  0.0147  0.5911
11609DDP     C369653  24.868   0.371  28.913 -0.1243 -0.3405  0.2475
11609DDP     C469654  24.390  29.976  28.598 -0.1059  0.0032  0.0905
11610DDP     C169655  13.779   5.175  16.538 -0.1387 -0.1393 -0.1430
11610DDP     P169656  13.885   5.635  16.586  0.0211 -0.0272  0.0095
11610DDP     P269657  14.055   4.895  16.343 -0.0668 -0.0891  0.1888
11610DDP     C269658  14.279   4.461  16.146 -0.0926  0.1076 -0.1053
11610DDP     C369659  14.147   5.858  16.860  0.0348  0.0435 -0.1563
11610DDP     C469660  13.480   5.027  16.273 -0.1053 -0.1421 -0.2119
11611DDP     C169661  10.917   6.398  16.156 -0.3465  0.1196 -0.0439
11611DDP     P169662  11.202   6.436  15.904  0.2888 -0.2297 -0.0925
11611DDP     P269663  11.043   5.995  16.294  0.2238 -0.1276  0.0738
11611DDP     C269664  11.314   5.605  16.115 -0.0100  0.1370  0.1992
11611DDP     C369665  11.359   6.414  15.450  0.0333 -0.1106  0.0860
11611DDP     C469666  10.745   6.764  16.150  0.2595 -0.1279 -0.1465
11612DDP     C169667  10.315   3.772  23.942  0.1182  0.0430  0.0895
11612DDP     P169668  10.706   3.537  24.189 -0.1121 -0.1633 -0.1272
11612DDP     P269669  10.039   3.885  24.193 -0.0558  0.0025  0.2646
11612DDP     C269670   9.678   3.747  24.390  0.1868 -0.1590 -0.1544
11612DDP     C369671  10.766   3.208  24.474 -0.0984 -0.0545  0.0134
11612DDP     C469672  10.452   4.189  23.816  0.3860 -0.1693 -0.0356
11613DDP     C169673  27.395  16.063  15.961  0.1728  0.1468  0.2491
11613DDP     P169674  27.748  16.161  15.963 -0.0407  0.0686  0.2158
11613DDP     P269675  27.262  16.250  15.634 -0.0446 -0.0966  0.1418
11613DDP     C269676  27.350  16.506  15.349  0.2060 -0.0582 -0.1088
11613DDP     C369677  28.090  16.282  16.196 -0.0042 -0.2141 -0.2019
11613DDP     C469678  27.062  16.118  16.244 -0.0544 -0.2776 -0.1810
11614DDP     C169679  12.218   9.559   6.762  0.0619  0.3717  0.0739
11614DDP     P169680  11.914   9.343   6.886  0.2770 -0.2529  0.1051
11614DDP     P269681  12.045   9.558   6.303 -0.2957  0.2269 -0.0528
11614DDP     C269682  11.813   9.402   6.050  0.0146 -0.0699  0.2809
11614DDP     C369683  11.516   9.240   6.625 -0.1694 -0.1654 -0.2664
11614DDP     C469684  12.495   9.976   6.980  0.2650 -0.0317  0.0930
11615DDP     C169685  14.280  29.838  23.111  0.5489 -0.1496 -0.1007
11615DDP     P169686  14.580  29.956  23.409  0.2004  0.3744  0.1141
11615DDP     P269687  14.186  30.276  22.816 -0.1464 -0.0819  0.3935
11615DDP     C269688  14.248   0.398  22.941 -0.1285 -0.0361  0.1916
11615DDP     C369689  14.888  29.771  23.643  0.1626  0.2321  0.1736
11615DDP     C469690  13.991  29.501  23.050 -0.1984  0.0184 -0.0179
11616DDP     C169691   9.358  19.349   3.294  0.5260  0.5795 -0.0563
11616DDP     P169692   9.783  19.280   3.418 -0.1705  0.1555  0.1289
11616DDP     P269693   9.278  19.339   2.958 -0.0046  0.0164 -0.0603
11616DDP     C269694   9.148  19.037   2.709  0.0051 -0.1137  0.0560
11616DDP     C369695  10.186  19.119   3.465 -0.1986 -0.2589 -0.0369
11616DDP     C469696   9.077  19.474   3.620  0.0941  0.1785  0.1945
11617DDP     C169697  21.622   4.129   1.553  0.1350 -0.2994 -0.1380
11617DDP     P169698  21.859   4.325   1.893  0.0306 -0.2359  0.2126
11617DDP     P269699  21.661   4.312   1.134 -0.2381  0.0264 -0.1293
11617DDP     C269700  21.386   4.312   0.736 -0.3420 -0.4912  0.0268
11617DDP     C369701  21.721   4.376   2.243  0.0307 -0.1173  0.0093
11617DDP     C469702  21.442   3.696   1.544  0.0375  0.1507 -0.2046
11618DDP     C169703  26.452  21.571   8.927  0.0901 -0.1481 -0.0542
11618DDP     P169704  26.713  21.713   9.300 -0.0707  0.2302  0.2378
11618DDP     P269705  26.233  21.895   8.593  0.2224 -0.2661 -0.1487
11618DDP     C269706  26.334  21.956   8.111 -0.2334  0.1606 -0.1251
11618DDP     C369707  26.647  22.182   9.466 -0.0849  0.3407  0.0465
11618DDP     C469708  26.344  21.174   8.943  0.2484  0.3400 -0.1518
11619DDP     C169709  19.881  29.841  26.594  0.0192 -0.0952 -0.1327
11619DDP     P169710  20.193  29.862  26.302 -0.1927 -0.0042 -0.0265
11619DDP     P269711  19.531  29.934  26.476 -0.1720  0.0228 -0.0050
11619DDP     C269712  19.064  29.935  26.670 -0.2458 -0.0841 -0.1397
11619DDP     C369713  20.230  30.277  26.024  0.0546 -0.1462 -0.1740
11619DDP     C469714  19.958  29.619  26.974  0.1402  0.1450 -0.0361
11620DDP     C169715   7.157  22.666  22.266  0.0070 -0.0065  0.0601
11620DDP     P169716   7.555  22.459  22.065 -0.0469  0.1829 -0.2645
11620DDP     P269717   7.205  22.827  22.747  0.1236 -0.1498 -0.2830
11620DDP     C269718   7.324  22.437  22.974  0.0419  0.0321 -0.2209
11620DDP     C369719   7.502  22.033  22.073 -0.1347  0.1291  0.1429
11620DDP     C469720   6.815  22.818  22.008  0.1756 -0.1818  0.1444
11621DDP     C169721  30.164  29.146  12.002 -0.1318 -0.4734  0.2672
11621DDP     P169722  29.932  29.059  12.421  0.1980  0.2769 -0.1063
11621DDP     P269723  30.196  28.993  11.635 -0.1109  0.1051  0.3260
11621DDP     C269724  30.135  29.104  11.225 -0.1444 -0.1879  0.0573
11621DDP     C369725  29.615  28.824  12.740  0.2284 -0.2911 -0.1830
11621DDP     C469726   0.040  29.554  12.033 -0.1121  0.1869 -0.1746
11622DDP     C169727  14.328  12.865   4.694 -0.0471  0.0004  0.2041
11622DDP     P169728  14.456  13.289   4.616  0.1461  0.1962  0.1618
11622DDP     P269729  13.891  12.646   4.781 -0.2351 -0.1246 -0.0160
11622DDP     C269730  13.497  12.478   4.773  0.0298  0.1354 -0.1151
11622DDP     C369731  14.607  13.661   4.509  0.0756  0.1227  0.2823
11622DDP     C469732  14.649  12.592   4.706  0.0129  0.1359  0.0372
11623DDP     C169733  10.676   9.877  14.973 -0.1892 -0.2741 -0.0105
11623DDP     P169734  10.320   9.705  15.103 -0.0736 -0.0945  0.5041
11623DDP     P269735  10.787   9.744  15.374 -0.2781 -0.0380 -0.3256
11623DDP     C269736  10.400   9.711  15.699 -0.2449 -0.0660  0.1278
11623DDP     C369737   9.909   9.495  15.044 -0.0238 -0.3269  0.0061
11623DDP     C469738  10.979  10.096  14.671  0.3115 -0.1171  0.1045
11624DDP     C169739  21.296   4.572  29.103  0.1881 -0.2500  0.1110
11624DDP     P169740  21.192   4.834  29.410  0.3913  0.0792  0.2198
11624DDP     P269741  20.977   4.381  28.863 -0.2956  0.1228 -0.0878
11624DDP     C269742  20.543   4.420  28.818 -0.0616  0.3327  0.2367
11624DDP     C369743  21.092   5.221  29.531 -0.1233 -0.2332 -0.1228
11624DDP     C469744  21.692   4.546  29.033  0.4345 -0.2897  0.2536
11625DDP     C169745   6.683  10.197  13.071 -0.1708 -0.0884 -0.1000
11625DDP     P169746   6.708  10.588  12.880 -0.1388  0.0566  0.1468
11625DDP     P269747   6.712   9.813  12.919  0.0956  0.1546  0.1195
11625DDP     C269748   6.583   9.468  13.194 -0.1164 -0.0104  0.0115
11625DDP     C369749   6.604  11.032  12.876  0.2630  0.2846  0.0329
11625DDP     C469750   6.406  10.297  13.476  0.3409  0.0373  0.0733
11626DDP     C169751  15.821   1.232  23.850 -0.0406 -0.0434 -0.2928
11626DDP     P169752  16.102   1.509  23.845  0.1503  0.0644 -0.3137
11626DDP     P269753  15.409   1.272  23.697 -0.3421  0.0833 -0.1228
11626DDP     C269754  14.964   1.119  23.604  0.2609  0.2878 -0.4641
11626DDP     C369755  16.486   1.710  23.916 -0.0522  0.1556  0.2703
11626DDP     C469756  15.939   0.838  24.080 -0.2661  0.1597 -0.1995
11627DDP     C169757  16.211  20.866   8.448  0.0951 -0.0948 -0.1107
11627DDP     P169758  16.180  21.356   8.476  0.0195  0.2734 -0.1319
11627DDP     P269759  15.941  20.644   8.776  0.0409 -0.0828 -0.2414
11627DDP     C269760  15.752  20.535   9.142 -0.1669  0.0412 -0.2320
11627DDP     C369761  16.575  21.606   8.421 -0.1462 -0.1230 -0.1116
11627DDP     C469762  16.487  20.690   8.235 -0.4126  0.2861 -0.2275
11628DDP     C169763  18.243  28.634   8.621 -0.0542 -0.3110  0.0517
11628DDP     P169764  18.507  28.474   8.950 -0.0475 -0.0032 -0.2915
11628DDP     P269765  18.389  29.039   8.516 -0.3095 -0.0345 -0.2052
11628DDP     C269766  18.119  29.215   8.217 -0.1780 -0.5208  0.2643
11628DDP     C369767  18.587  28.668   9.354  0.1417 -0.2313  0.3787
11628DDP     C469768  17.897  28.463   8.438 -0.0739  0.3351  0.1549
11629DDP     C169769  21.699  18.263   8.080 -0.0547  0.0771  0.0345
11629DDP     P169770  21.568  18.393   7.670  0.0280 -0.1263  0.2186
11629DDP     P269771  21.982  18.214   8.337 -0.2266  0.0672 -0.0051
11629DDP     C269772  22.254  18.107   8.697  0.0221 -0.1950 -0.0166
11629DDP     C369773  21.474  18.022   7.418 -0.2855  0.1543  0.0425
11629DDP     C469774  21.437  18.478   8.236  0.0303 -0.0092  0.0526
11630DDP     C169775  23.568  19.083   6.606  0.4927 -0.1779 -0.0867
11630DDP     P169776  23.356  19.215   6.966  0.2769 -0.3507 -0.1416
11630DDP     P269777  24.003  19.029   6.598  0.0241  0.0777  0.0353
11630DDP     C269778  24.366  18.787   6.247  0.0505 -0.3476 -0.2241
11630DDP     C369779  23.117  19.257   7.359  0.0673  0.1124  0.1206
11630DDP     C469780  23.308  19.060   6.248 -0.2771  0.2442  0.1676
11631DDP     C169781  20.473   9.052   0.206  0.2114  0.0243 -0.0553
11631DDP     P169782  20.458   9.208   0.606  0.2611  0.1943 -0.3447
11631DDP     P269783  20.132   9.120  30.239 -0.1214  0.1288 -0.0114
11631DDP     C269784  20.043   9.043  29.921 -0.2625  0.0082 -0.2514
11631DDP     C369785  20.581   9.390   0.975 -0.0332  0.0169  0.3651
11631DDP     C469786  20.778   8.678   0.253 -0.3312 -0.0188 -0.1799
11632DDP     C169787  25.637   9.481  26.234 -0.0419 -0.1269 -0.0554
11632DDP     P169788  25.637   9.908  26.268 -0.0166 -0.0498  0.1035
11632DDP     P269789  25.271   9.283  26.438  0.1493  0.4336 -0.2020
11632DDP     C269790  25.208   8.883  26.781  0.0075  0.2020 -0.2671
11632DDP     C369791  25.631  10.316  26.048 -0.0992  0.1485 -0.4522
11632DDP     C469792  25.975   9.118  26.255 -0.1409 -0.1569 -0.0560
11633DDP     C169793  12.028  15.717   0.925 -0.0616  0.1725  0.2899
11633DDP     P169794  11.878  15.584   0.623  0.1612 -0.0285  0.0230
11633DDP     P269795  12.387  15.712   1.062  0.0299 -0.2537  0.1741
11633DDP     C269796  12.574  15.418   1.295  0.0961  0.0898 -0.2634
11633DDP     C369797  11.587  15.210   0.419  0.0581 -0.6217  0.0256
11633DDP     C469798  11.910  16.097   0.976  0.3876 -0.3862 -0.0542
11634DDP     C169799   1.282  19.204   2.239 -0.0100 -0.1991  0.2464
11634DDP     P169800   1.405  19.711   2.162 -0.0917  0.4444 -0.1405
11634DDP     P269801   0.815  19.050   2.082 -0.0006  0.0789 -0.2480
11634DDP     C269802   0.419  18.886   2.030 -0.2343  0.0745  0.0351
11634DDP     C369803   1.162  20.103   2.259 -0.3007  0.0451 -0.2273
11634DDP     C469804   1.350  18.810   2.032  0.0924  0.1904  0.0223
11635DDP     C169805   4.990  22.324  11.679  0.1616 -0.0346  0.3842
11635DDP     P169806   4.584  22.415  11.287  0.0460 -0.0034 -0.1998
11635DDP     P269807   4.677  21.972  11.749 -0.1304  0.1429 -0.1545
11635DDP     C269808   4.471  21.699  12.003 -0.1235  0.0765 -0.1981
11635DDP     C369809   4.202  22.537  11.007  0.0391 -0.2101 -0.3960
11635DDP     C469810   5.246  22.478  12.088  0.1759  0.3694 -0.0429
11636DDP     C169811   2.974  27.752  29.430 -0.0524 -0.2720 -0.4026
11636DDP     P169812   2.693  27.907  29.158 -0.0805  0.1140 -0.5953
11636DDP     P269813   3.371  27.627  29.263  0.0231 -0.1911  0.1534
11636DDP     C269814   3.615  27.384  28.907 -0.2737 -0.0670  0.0369
11636DDP     C369815   2.631  27.609  28.739  0.0257  0.3035  0.0077
11636DDP     C469816   2.891  27.346  29.582 -0.1158 -0.0482 -0.1024
11637DDP     C169817  22.341  12.790   9.842 -0.4213 -0.0204  0.0721
11637DDP     P169818  22.446  12.985   9.394  0.0660  0.0569 -0.0657
11637DDP     P269819  21.895  13.020  10.026 -0.0503  0.0194 -0.0058
11637DDP     C269820  21.467  13.195  10.187  0.2145  0.1077  0.0601
11637DDP     C369821  22.685  13.037   9.015 -0.0387 -0.2143  0.1269
11637DDP     C469822  22.499  12.371   9.905 -0.1671 -0.0994 -0.0992
11638DDP     C169823  25.906   7.500  27.051  0.1283  0.0415 -0.1142
11638DDP     P169824  26.299   7.490  27.059 -0.2844  0.2375  0.2994
11638DDP     P269825  25.646   7.803  26.784  0.0119  0.0323 -0.4150
11638DDP     C269826  25.481   8.050  26.519  0.1546  0.1640 -0.0906
11638DDP     C369827  26.733   7.588  27.147  0.1216 -0.0335 -0.0756
11638DDP     C469828  25.798   7.050  27.067 -0.2256 -0.0329  0.1190
11639DDP     C169829   1.386  21.993  17.900  0.0414 -0.1199  0.1643
11639DDP     P169830   1.354  22.390  17.899 -0.1214  0.0670 -0.0336
11639DDP     P269831   1.245  21.728  18.236  0.1602 -0.1895 -0.2251
11639DDP     C269832   0.861  21.527  18.479  0.0577 -0.0638  0.0452
11639DDP     C369833   1.179  22.669  17.545  0.1143 -0.2396 -0.2304
11639DDP     C469834   1.440  21.691  17.508  0.0463  0.2427 -0.0318
11640DDP     C169835  18.099  28.040   6.763  0.0177  0.0807  0.3146
11640DDP     P169836  18.244  27.862   7.124  0.1527  0.0449  0.1994
11640DDP     P269837  17.836  28.304   6.877  0.0242 -0.4399  0.0322
11640DDP     C269838  17.366  28.406   6.895 -0.1383 -0.0161  0.0102
11640DDP     C369839  18.461  28.048   7.410 -0.1904  0.0676  0.2128
11640DDP     C469840  18.146  28.075   6.258 -0.0291  0.1704 -0.2178
11641DDP     C169841  23.155  11.124  24.622  0.1214  0.0178  0.3195
11641DDP     P169842  23.101  11.469  24.835  0.2836 -0.1006  0.0686
11641DDP     P269843  23.516  11.074  24.906 -0.0393  0.0588  0.0574
11641DDP     C269844  23.768  10.797  25.311 -0.1873  0.3479 -0.2798
11641DDP     C369845  22.923  11.479  25.134  0.0478 -0.0208  0.0632
11641DDP     C469846  22.886  11.018  24.300 -0.0254  0.0004  0.1084
11642DDP     C169847   0.565  20.945   6.157  0.1591  0.2329  0.0641
11642DDP     P169848   0.353  21.270   6.353 -0.0477  0.0042 -0.0869
11642DDP     P269849   0.460  20.810   5.652  0.0936  0.0211 -0.2207
11642DDP     C269850   0.477  20.820   5.211 -0.1084 -0.4440  0.0535
11642DDP     C369851   0.286  21.724   6.610  0.0127 -0.0965 -0.0576
11642DDP     C469852   0.955  20.770   6.271 -0.0139 -0.4039  0.1094
11643DDP     C169853  28.657  20.613   1.476  0.1009  0.1152 -0.2027
11643DDP     P169854  28.910  20.987   1.515  0.0070 -0.1775  0.0658
11643DDP     P269855  28.448  20.375   1.764  0.0435 -0.2426  0.2825
11643DDP     C269856  27.989  20.330   1.847 -0.2606  0.1253  0.3431
11643DDP     C369857  29.035  21.418   1.345 -0.0303  0.0412 -0.1776
11643DDP     C469858  28.529  20.555   0.975 -0.5017 -0.1931 -0.2363
11644DDP     C169859  15.615  25.403   5.620  0.1211 -0.0617 -0.0406
11644DDP     P169860  15.610  25.120   5.963 -0.0173  0.1047 -0.0780
11644DDP     P269861  15.404  25.785   5.542  0.1120 -0.3260 -0.2269
11644DDP     C269862  15.035  25.943   5.432 -0.0941 -0.2483  0.1546
11644DDP     C369863  15.748  25.114   6.416 -0.0934  0.0566  0.1361
11644DDP     C469864  15.654  25.230   5.145 -0.0731 -0.1726  0.2040
11645DDP     C169865  25.043  27.526   8.469  0.0683  0.1109  0.0929
11645DDP     P169866  25.393  27.435   8.762 -0.0075 -0.0751  0.2409
11645DDP     P269867  24.630  27.284   8.420  0.0345  0.1925  0.0614
11645DDP     C269868  24.249  26.986   8.552 -0.0820 -0.1192 -0.1086
11645DDP     C369869  25.651  27.634   9.100 -0.0962  0.3406  0.1539
11645DDP     C469870  25.051  28.048   8.381 -0.0567 -0.0783  0.2365
11646DDP     C169871  16.689  14.437  29.017 -0.1127  0.3009 -0.1653
11646DDP     P169872  17.036  14.330  28.771 -0.0660  0.2090 -0.1317
11646DDP     P269873  16.566  14.247  29.446  0.1552 -0.1181 -0.0296
11646DDP     C269874  16.381  13.846  29.568 -0.1913  0.0503  0.2946
11646DDP     C369875  17.239  14.372  28.401 -0.0669 -0.0516 -0.1969
11646DDP     C469876  16.480  14.874  28.995  0.2389  0.1261  0.0596
11647DDP     C169877  11.100  23.257  18.385  0.3808 -0.1736 -0.0995
11647DDP     P169878  11.091  23.257  18.809  0.2216  0.1402 -0.0814
11647DDP     P269879  10.871  22.878  18.193  0.3437 -0.1581  0.2508
11647DDP     C269880  10.689  22.477  17.931  0.0889  0.0090 -0.0857
11647DDP     C369881  11.232  22.997  19.134  0.0166  0.0985  0.0999
11647DDP     C469882  11.040  23.655  18.153  0.0770 -0.3766  0.0241
11648DDP     C169883   5.010  30.225   5.076  0.2399 -0.2927 -0.1299
11648DDP     P169884   5.419  30.107   5.080  0.1006 -0.0279  0.1327
11648DDP     P269885   4.569  30.190   4.837 -0.1185  0.2492 -0.3519
11648DDP     C269886   4.138  30.076   4.910 -0.2337 -0.2158  0.1391
11648DDP     C369887   5.561  29.715   4.921  0.0244  0.1435 -0.0020
11648DDP     C469888   4.805  30.191   5.383  0.3396 -0.2412 -0.3303
11649DDP     C169889  14.439  29.695  28.098 -0.3708 -0.0955 -0.0875
11649DDP     P169890  14.683  29.546  27.771  0.0695  0.1356  0.0528
11649DDP     P269891  14.468  29.917  28.337  0.2915 -0.1014  0.1846
11649DDP     C269892  14.436   0.099  28.282  0.1962 -0.1533  0.2344
11649DDP     C369893  15.142  29.359  27.482  0.2156  0.0048 -0.0657
11649DDP     C469894  14.042  29.579  27.933  0.1949  0.0203  0.0993
11650DDP     C169895  19.072  20.599   9.576 -0.0725  0.2916  0.2994
11650DDP     P169896  19.160  20.542   9.181 -0.1021  0.0819 -0.0269
11650DDP     P269897  19.093  20.270   9.919  0.1942  0.0718 -0.1665
11650DDP     C269898  19.204  20.110  10.402  0.0479 -0.1339  0.0480
11650DDP     C369899  19.362  20.813   8.866  0.0068  0.0111  0.0959
11650DDP     C469900  18.907  20.948   9.758  0.2370 -0.0639  0.1648
11651DDP     C169901   5.602  18.770  24.145  0.2590 -0.2357  0.1229
11651DDP     P169902   6.034  18.953  23.949 -0.3236  0.0511  0.0215
11651DDP     P269903   5.356  18.782  24.525 -0.3855  0.1660 -0.0856
11651DDP     C269904   4.977  18.863  24.775  0.3385  0.2579  0.4802
11651DDP     C369905   6.389  18.911  23.674 -0.2176 -0.2061  0.1968
11651DDP     C469906   5.391  18.529  23.916 -0.0663  0.1585 -0.2073
11652DDP     C169907  12.998  14.377  12.643  0.2588  0.2781  0.0731
11652DDP     P169908  12.795  14.202  12.295 -0.4413  0.2903 -0.2775
11652DDP     P269909  13.420  14.337  12.756  0.0000  0.2384  0.1965
11652DDP     C269910  13.653  14.493  12.938 -0.2509  0.0385  0.0858
11652DDP     C369911  12.649  14.069  11.898  0.3227 -0.1351  0.1521
11652DDP     C469912  12.658  14.285  12.946  0.1943 -0.0712 -0.1631
11653DDP     C169913   5.028  26.775  23.618 -0.1690 -0.0033  0.0133
11653DDP     P169914   5.110  26.499  23.877 -0.1409 -0.2765  0.0543
11653DDP     P269915   4.642  26.658  23.426 -0.1121  0.0885 -0.1252
11653DDP     C269916   4.540  26.777  22.936 -0.3171 -0.1443 -0.0734
11653DDP     C369917   5.497  26.223  24.049  0.0787 -0.0967  0.1424
11653DDP     C469918   5.092  27.080  23.327 -0.1087 -0.0674 -0.0355
11654DDP     C169919  23.924  21.527   5.386 -0.0480 -0.0891  0.0580
11654DDP     P169920  24.350  21.681   5.312  0.2101 -0.0073 -0.1263
11654DDP     P269921  24.124  21.383   5.763  0.0077  0.1741  0.3026
11654DDP     C269922  24.515  21.265   5.987  0.0289 -0.2186  0.1275
11654DDP     C369923  24.592  22.021   5.357 -0.0725 -0.0276 -0.1090
11654DDP     C469924  23.479  21.475   5.359 -0.0565 -0.2885 -0.1029
11655DDP     C169925   2.975  28.948  14.152  0.1117  0.0249 -0.0252
11655DDP     P169926   2.918  28.578  14.229  0.1583  0.1422 -0.2082
11655DDP     P269927   2.733  29.073  13.833 -0.1406  0.1187  0.0344
11655DDP     C269928   2.446  29.093  13.504 -0.0942  0.0170  0.1544
11655DDP     C369929   2.854  28.237  14.507 -0.4347 -0.1635 -0.3510
11655DDP     C469930   3.360  29.053  14.153 -0.2899  0.0039  0.1134
11656DDP     C169931  18.224  10.353  10.067  0.0716 -0.0020  0.1433
11656DDP     P169932  18.215   9.972  10.092  0.0885 -0.1244  0.2031
11656DDP     P269933  17.877  10.450   9.798  0.1704 -0.1321  0.0230
11656DDP     C269934  17.489  10.320   9.518  0.1423 -0.1076 -0.3057
11656DDP     C369935  17.947   9.681  10.050  0.2022 -0.1499 -0.3232
11656DDP     C469936  18.491  10.691  10.295  0.0480  0.1114 -0.1121
11657DDP     C169937  29.042   2.076  21.278 -0.0731 -0.0332  0.0507
11657DDP     P169938  29.214   1.914  20.917  0.1435 -0.1647 -0.0098
11657DDP     P269939  29.316   1.715  21.461 -0.0262  0.0077 -0.2459
11657DDP     C269940  29.418   1.337  21.213  0.0021 -0.1577 -0.0674
11657DDP     C369941  29.270   2.096  20.490  0.0760  0.0532 -0.0676
11657DDP     C469942  29.016   2.528  21.443 -0.0642  0.3027  0.1026
11658DDP     C169943  15.151   9.645  10.967 -0.0282  0.1112  0.0370
11658DDP     P169944  15.206   9.849  10.588 -0.3153 -0.3566 -0.0643
11658DDP     P269945  15.427   9.617  11.160  0.2404 -0.1512 -0.1481
11658DDP     C269946  15.558   9.363  11.540  0.3081 -0.1403 -0.1261
11658DDP     C369947  15.332   9.600  10.311  0.1235 -0.4813 -0.3514
11658DDP     C469948  14.823   9.575  11.122  0.6065  0.0076  0.0257
11659DDP     C169949  27.185  11.890  26.825 -0.0694 -0.1143 -0.1677
11659DDP     P169950  27.317  11.704  27.220 -0.1653  0.2700  0.2079
11659DDP     P269951  27.158  12.208  26.579  0.1150  0.0278 -0.2766
11659DDP     C269952  27.069  12.319  26.131 -0.0955 -0.0766 -0.0221
11659DDP     C369953  27.743  11.740  27.366  0.1489  0.0335  0.2983
11659DDP     C469954  27.024  11.507  26.720 -0.1910 -0.2018 -0.2264
11660DDP     C169955  16.652  21.228   0.803 -0.0790 -0.0581  0.2614
11660DDP     P169956  16.397  21.378   1.118  0.1547  0.1255 -0.2453
11660DDP     P269957  16.278  21.004   0.631 -0.0788  0.0720  0.0538
11660DDP     C269958  15.875  20.888   0.598 -0.0437  0.0323  0.0452
11660DDP     C369959  16.407  21.624   1.519  0.2064 -0.1280 -0.0608
11660DDP     C469960  16.812  21.464   0.500 -0.0161  0.1392  0.0364
11661DDP     C169961  24.943   9.070  28.835 -0.1493 -0.1711 -0.1831
11661DDP     P169962  24.665   8.911  28.534 -0.0641  0.1367 -0.1572
11661DDP     P269963  25.312   9.304  28.851 -0.1762  0.1181 -0.0376
11661DDP     C269964  25.645   9.327  28.573  0.2189  0.2388  0.1360
11661DDP     C369965  24.387   8.523  28.526  0.1183  0.0019  0.3745
11661DDP     C469966  24.984   8.829  29.144 -0.1353  0.0008 -0.0506
11662DDP     C169967  14.240  27.783   7.239 -0.0404  0.0187 -0.1759
11662DDP     P169968  14.443  27.540   7.454 -0.4052 -0.2337  0.3427
11662DDP     P269969  14.394  27.784   6.824  0.1835  0.0222 -0.1972
11662DDP     C269970  14.522  27.832   6.347 -0.1996  0.0764 -0.0226
11662DDP     C369971  14.857  27.401   7.455  0.1197  0.0361 -0.3088
11662DDP     C469972  13.979  27.798   7.496  0.1496  0.1448  0.3038
11663DDP     C169973   3.936  23.028  17.159  0.0563  0.0337  0.0158
11663DDP     P169974   4.247  22.628  17.152 -0.2124 -0.4294  0.1825
11663DDP     P269975   3.724  22.889  16.693 -0.0955  0.3289 -0.0421
11663DDP     C269976   3.447  23.082  16.428 -0.3196  0.2027 -0.1267
11663DDP     C369977   4.449  22.252  17.204 -0.1195 -0.1420  0.1306
11663DDP     C469978   3.913  23.384  17.389  0.0159  0.1604 -0.1470
11664DDP     C169979  19.746   0.234  23.513  0.1188  0.1853  0.0626
11664DDP     P169980  19.937  30.198  23.279  0.0391  0.0861  0.1738
11664DDP     P269981  19.338   0.256  23.297 -0.0343  0.3496 -0.0553
11664DDP     C269982  18.926   0.231  23.258 -0.2724 -0.1324  0.3077
11664DDP     C369983  19.722  29.829  23.100  0.0272 -0.1622  0.1054
11664DDP     C469984  20.021   0.497  23.833  0.1807 -0.1282  0.2143
11665DDP     C169985  24.041  17.186  25.282  0.0340  0.1177  0.2698
11665DDP     P169986  23.785  16.910  25.110 -0.1144  0.0602  0.2214
11665DDP     P269987  24.506  17.280  25.206 -0.2724 -0.0395  0.0857
11665DDP     C269988  24.795  17.232  24.797 -0.2843 -0.1234  0.1533
11665DDP     C369989  23.498  16.833  24.866  0.0018 -0.0749  0.1467
11665DDP     C469990  23.796  17.539  25.436  0.1325 -0.0997  0.3018
11666DDP     C169991   9.973  18.971   4.003  0.2469 -0.0615 -0.0923
11666DDP     P169992  10.047  19.398   3.820  0.1522  0.1225 -0.1573
11666DDP     P269993   9.581  18.985   4.240 -0.0557 -0.1658  0.0756
11666DDP     C269994   9.167  19.101   4.442 -0.1080 -0.3642 -0.0445
11666DDP     C369995  10.092  19.850   4.050  0.2747 -0.2353 -0.0463
11666DDP     C469996  10.232  18.586   4.061  0.2370 -0.0354 -0.3862
11667DDP     C169997  26.335  18.792  13.379  0.1015  0.3073  0.2135
11667DDP     P169998  25.798  18.739  13.458  0.0924 -0.0274  0.4006
11667DDP     P269999  26.544  18.780  13.054 -0.1823 -0.0148 -0.1128
11667DDP     C270000  26.679  19.110  12.788 -0.0762  0.0871  0.0068
11667DDP     C370001  25.405  18.579  13.810  0.2326 -0.0085 -0.0841
11667DDP     C470002  26.676  18.782  13.616  0.0296 -0.1233 -0.0549
11668DDP     C170003  15.502  22.132  16.845 -0.1937  0.1364  0.0308
11668DDP     P170004  15.198  22.059  17.049  0.1798 -0.2204 -0.2899
11668DDP     P270005  15.687  21.777  16.602  0.1460  0.4218 -0.0437
11668DDP     C270006  15.557  21.469  16.266 -0.0679  0.2515  0.0260
11668DDP     C370007  14.840  21.745  17.175  0.3942  0.0962 -0.1292
11668DDP     C470008  15.725  22.508  16.812 -0.3608 -0.1742 -0.1244
11669DDP     C170009  27.004  25.372  21.644 -0.0468 -0.1105  0.0063
11669DDP     P170010  26.627  25.156  21.813 -0.1999  0.3499  0.2288
11669DDP     P270011  26.967  25.861  21.719 -0.1944 -0.2079  0.1644
11669DDP     C270012  26.962  26.253  21.781 -0.0417 -0.0332  0.0814
11669DDP     C370013  26.480  25.151  22.185 -0.0218  0.1789 -0.1145
11669DDP     C470014  27.124  24.953  21.466  0.1836 -0.1096 -0.2413
11670DDP     C170015   1.532  12.913   5.402 -0.0534 -0.0999 -0.3359
11670DDP     P170016   1.529  12.471   5.279  0.0333 -0.2455  0.2243
11670DDP     P270017   1.781  13.293   5.442 -0.3741  0.1355  0.4087
11670DDP     C270018   2.197  13.460   5.530  0.0996  0.1902 -0.3456
11670DDP     C370019   1.739  12.124   5.157  0.1126 -0.2923  0.3260
11670DDP     C470020   1.214  13.006   5.730  0.1093  0.1031  0.1505
11671DDP     C170021  21.922  28.993  24.817 -0.4489 -0.2908 -0.0343
11671DDP     P170022  21.940  29.173  25.313 -0.4876  0.0798  0.0485
11671DDP     P270023  22.195  29.222  24.460 -0.2646 -0.0895  0.1279
11671DDP     C270024  22.072  29.718  24.253  0.0363 -0.0112 -0.0581
11671DDP     C370025  21.766  29.057  25.743 -0.1291  0.0214 -0.2277
11671DDP     C470026  21.532  28.719  24.593 -0.1328 -0.1465  0.1111
11672DDP     C170027   4.157   7.016  20.531  0.0953  0.0797 -0.0849
11672DDP     P170028   4.411   7.094  20.755  0.0889 -0.2685  0.3408
11672DDP     P270029   4.004   7.005  20.156 -0.2121  0.1409  0.1276
11672DDP     C270030   4.122   7.202  19.780 -0.0090 -0.1785 -0.0855
11672DDP     C370031   4.784   7.131  20.594 -0.3558 -0.1929  0.1330
11672DDP     C470032   3.956   6.764  20.858 -0.0318  0.0881 -0.3357
11673DDP     C170033  19.383  11.708  17.255  0.0086  0.1930  0.1574
11673DDP     P170034  19.318  11.439  16.878 -0.1136  0.2409 -0.2381
11673DDP     P270035  19.286  12.113  17.296 -0.1550 -0.3151  0.0085
11673DDP     C270036  19.464  12.460  17.042 -0.0511 -0.0674  0.0949
11673DDP     C370037  19.309  11.168  16.556  0.1580  0.4255 -0.1369
11673DDP     C470038  19.468  11.543  17.616  0.0320  0.3266 -0.2506
11674DDP     C170039  19.541  13.827  29.100  0.0983  0.0751  0.0088
11674DDP     P170040  19.405  13.445  28.827  0.1164 -0.1301  0.0879
11674DDP     P270041  19.942  14.051  29.192 -0.1152 -0.3035 -0.0489
11674DDP     C270042  20.363  14.080  29.133  0.2282 -0.0321  0.0656
11674DDP     C370043  19.333  13.120  28.557  0.0178 -0.1670 -0.0987
11674DDP     C470044  19.187  14.081  29.313 -0.0171  0.0437  0.1700
11675DDP     C170045  20.177  25.676   3.291  0.2647 -0.0724  0.3613
11675DDP     P170046  19.761  25.749   3.251  0.0019 -0.0542 -0.1947
11675DDP     P270047  20.282  26.036   3.178  0.1563 -0.0154  0.0678
11675DDP     C270048  20.601  26.247   3.262  0.1926 -0.0030 -0.0304
11675DDP     C370049  19.279  25.714   3.297 -0.0879 -0.1711  0.0918
11675DDP     C470050  20.361  25.241   3.225 -0.0335  0.0238 -0.1129
11676DDP     C170051  25.453   7.877   9.058  0.2214  0.1563  0.0136
11676DDP     P170052  25.370   8.286   8.891 -0.1771  0.0508  0.0157
11676DDP     P270053  25.605   7.569   8.701  0.0332  0.0334 -0.1519
11676DDP     C270054  25.748   7.616   8.296 -0.1062  0.1716 -0.0946
11676DDP     C370055  25.317   8.697   8.883  0.1113  0.2371 -0.1491
11676DDP     C470056  25.703   7.907   9.406  0.0500  0.4339 -0.0365
11677DDP     C170057  27.254  23.675  16.613 -0.1605 -0.0926  0.0572
11677DDP     P170058  27.147  23.549  17.059 -0.0471  0.1549 -0.1015
11677DDP     P270059  27.146  23.399  16.350  0.2457  0.0675 -0.1603
11677DDP     C270060  26.794  23.085  16.376 -0.1205 -0.0336  0.2993
11677DDP     C370061  26.748  23.637  17.381 -0.2069 -0.0883  0.2775
11677DDP     C470062  27.268  24.202  16.448 -0.0186 -0.0794 -0.1791
11678DDP     C170063  12.588   9.311   6.366 -0.2867  0.0162 -0.2100
11678DDP     P170064  12.233   9.133   6.429 -0.2568 -0.2043  0.1108
11678DDP     P270065  12.571   9.622   6.017  0.1295 -0.2705  0.0128
11678DDP     C270066  12.711   9.973   5.684  0.1800  0.0013  0.3648
11678DDP     C370067  11.896   8.905   6.144 -0.0194 -0.2618  0.2499
11678DDP     C470068  12.915   9.150   6.532  0.1570 -0.1807  0.0539
11679DDP     C170069   1.898  18.572   1.146  0.0272 -0.0969 -0.1220
11679DDP     P170070   2.020  18.471   1.551  0.3557  0.2087  0.1281
11679DDP     P270071   1.807  18.425   0.695 -0.0002 -0.3264  0.1028
11679DDP     C270072   2.007  18.444   0.258 -0.1128  0.1020 -0.0634
11679DDP     C370073   2.329  18.798   1.796 -0.1347 -0.0034 -0.0850
11679DDP     C470074   1.831  18.978   0.962  0.1056 -0.2353 -0.3721
11680DDP     C170075  28.875  28.269  24.355 -0.0656  0.0656 -0.0387
11680DDP     P170076  29.073  27.876  24.430  0.2372 -0.0228  0.1079
11680DDP     P270077  28.958  28.182  23.941  0.1647  0.0210  0.1817
11680DDP     C270078  28.808  28.045  23.514  0.1134 -0.1815 -0.1931
11680DDP     C370079  29.189  27.594  24.587  0.4169  0.1029 -0.3478
11680DDP     C470080  28.629  28.596  24.596  0.1918 -0.1920 -0.2540
11681DDP     C170081  11.080  25.587  17.714 -0.0285 -0.0610  0.0030
11681DDP     P170082  11.443  25.651  17.924 -0.5191 -0.3740  0.0779
11681DDP     P270083  11.186  25.335  17.345  0.1445 -0.0781  0.0391
11681DDP     C270084  10.913  25.319  16.911  0.2571 -0.1451  0.1212
11681DDP     C370085  11.552  25.628  18.314  0.1476  0.1018  0.2313
11681DDP     C470086  10.776  25.412  17.943  0.0574 -0.0627 -0.1869
11682DDP     C170087  16.241   9.043   3.174  0.3103 -0.1371  0.1028
11682DDP     P170088  16.083   8.696   2.904  0.1395  0.2136  0.6820
11682DDP     P270089  16.571   9.280   2.928 -0.2727  0.2210 -0.1842
11682DDP     C270090  16.914   9.482   3.015  0.0107 -0.1269  0.1427
11682DDP     C370091  15.899   8.389   2.521 -0.0773 -0.1170  0.0354
11682DDP     C470092  16.337   8.909   3.551  0.0854  0.1044 -0.1518
11683DDP     C170093   6.145  20.018  28.360  0.2516  0.1051 -0.0011
11683DDP     P170094   5.771  20.270  28.436  0.0336 -0.0366  0.1098
11683DDP     P270095   6.416  19.781  28.691  0.1934 -0.1419 -0.1791
11683DDP     C270096   6.905  19.997  28.801  0.3235 -0.1349 -0.1742
11683DDP     C370097   5.308  20.486  28.514  0.1200 -0.2352  0.2560
11683DDP     C470098   6.083  19.865  28.059  0.0690 -0.2082  0.0359
11684DDP     C170099  20.049  29.564   2.236 -0.2478  0.0833 -0.0286
11684DDP     P170100  19.971  29.857   2.559  0.2253  0.0611  0.2817
11684DDP     P270101  20.146  29.168   2.291 -0.3141  0.4771 -0.0471
11684DDP     C270102  20.202  28.771   2.172  0.1879  0.2611  0.2345
11684DDP     C370103  20.116  30.098   2.986  0.1360  0.1623 -0.0602
11684DDP     C470104  19.977  29.552   1.824 -0.2435 -0.0219  0.2129
11685DDP     C170105  29.862  23.173  28.014 -0.2638 -0.2627  0.0009
11685DDP     P170106  29.688  22.887  28.303 -0.1320 -0.3772 -0.1658
11685DDP     P270107  29.850  23.579  28.269  0.2435 -0.0378 -0.1619
11685DDP     C270108  29.985  23.881  28.189  0.1427  0.3576 -0.2415
11685DDP     C370109  29.149  22.817  28.247 -0.0626  0.0448 -0.0464
11685DDP     C470110  30.030  23.151  27.595  0.0562 -0.1976 -0.0839
11686DDP     C170111  10.091  17.302  28.254  0.1887 -0.0003  0.0921
11686DDP     P170112  10.317  16.902  28.240  0.2331  0.0148  0.1667
11686DDP     P270113  10.129  17.612  27.927  0.0359 -0.0906  0.1569
11686DDP     C270114  10.281  18.016  27.725  0.0968  0.1978 -0.1096
11686DDP     C370115  10.618  16.741  28.674  0.2410  0.0312  0.0922
11686DDP     C470116   9.767  17.364  28.566  0.1507 -0.1747  0.0401
11687DDP     C170117   9.112   4.283  18.881  0.1453  0.0874 -0.1569
11687DDP     P170118   9.039   4.661  19.028 -0.1865  0.0067 -0.0720
11687DDP     P270119   8.942   4.000  19.130 -0.1734  0.1761  0.1119
11687DDP     C270120   8.749   3.743  19.429  0.1670  0.0313 -0.0130
11687DDP     C370121   9.060   4.935  19.317 -0.1768 -0.1209 -0.2426
11687DDP     C470122   9.273   4.250  18.477  0.1941 -0.1402  0.0986
11688DDP     C170123   9.689  18.401  16.563  0.0897  0.0080 -0.1695
11688DDP     P170124   9.804  18.123  16.256 -0.2895 -0.0665 -0.0364
11688DDP     P270125   9.825  18.819  16.683 -0.0165  0.1506 -0.2267
11688DDP     C270126   9.911  19.180  16.922  0.2056 -0.1158 -0.2623
11688DDP     C370127   9.665  17.760  16.140  0.0436 -0.2726  0.0267
11688DDP     C470128   9.251  18.497  16.661 -0.0785  0.0637 -0.2737
11689DDP     C170129  29.177  27.082  16.176  0.1784 -0.0614  0.0045
11689DDP     P170130  29.296  26.700  16.303 -0.1674  0.2417  0.1447
11689DDP     P270131  29.410  27.483  16.041 -0.0098 -0.3427 -0.1544
11689DDP     C270132  29.565  27.587  15.668 -0.0759  0.0096 -0.0549
11689DDP     C370133  29.222  26.337  16.254 -0.0829  0.0051  0.1124
11689DDP     C470134  28.806  27.092  16.124  0.1396 -0.3289 -0.0861
11690DDP     C170135   8.151  11.567  24.678 -0.1420  0.0678  0.0161
11690DDP     P170136   7.827  11.176  24.527 -0.0605 -0.1485 -0.0905
11690DDP     P270137   8.590  11.443  24.746  0.2721 -0.0318 -0.2477
11690DDP     C270138   8.759  11.122  24.633  0.2819 -0.0097  0.1485
11690DDP     C370139   7.683  10.890  24.170 -0.2258 -0.2615  0.1599
11690DDP     C470140   8.022  12.016  24.662 -0.0632 -0.0743  0.0343
11691DDP     C170141   8.064   8.965  11.195  0.3154  0.0616  0.2019
11691DDP     P170142   8.070   8.721  10.881 -0.0079  0.0560  0.0015
11691DDP     P270143   7.951   9.359  11.364  0.0548 -0.2677 -0.0167
11691DDP     C270144   7.919   9.778  11.195  0.3707  0.0796 -0.3294
11691DDP     C370145   8.166   8.451  10.458  0.0207  0.3022  0.1532
11691DDP     C470146   8.068   8.542  11.435  0.0565  0.2698 -0.0349
11692DDP     C170147  14.819  26.761  16.270  0.0112 -0.0510 -0.3248
11692DDP     P170148  14.993  27.050  16.455  0.0777 -0.0167 -0.2014
11692DDP     P270149  14.723  26.894  15.911  0.3091  0.0054 -0.0858
11692DDP     C270150  14.419  26.811  15.495  0.0934  0.1420 -0.1272
11692DDP     C370151  14.737  27.432  16.786  0.1713  0.0015 -0.0558
11692DDP     C470152  14.784  26.386  16.419  0.4654 -0.0776  0.2761
11693DDP     C170153  11.165  24.828  20.100  0.0249 -0.2039  0.0311
11693DDP     P170154  10.836  24.935  20.435 -0.0214  0.0997 -0.1158
11693DDP     P270155  11.072  25.153  19.870  0.1321 -0.0972  0.0456
11693DDP     C270156  11.380  25.069  19.517 -0.0256  0.2333  0.2252
11693DDP     C370157  10.437  24.776  20.657 -0.4921  0.1298 -0.1345
11693DDP     C470158  11.633  24.771  19.948  0.1238  0.0213 -0.1710
11694DDP     C170159  28.775   2.237  17.943  0.1839  0.3537 -0.1636
11694DDP     P170160  28.484   2.114  17.774  0.1088  0.5316  0.0168
11694DDP     P270161  28.699   2.550  18.246  0.1746  0.1594 -0.2832
11694DDP     C270162  28.325   2.718  18.510 -0.0019  0.0061  0.0202
11694DDP     C370163  28.083   2.113  17.707  0.4148  0.0517  0.1417
11694DDP     C470164  29.049   1.892  18.130  0.0503  0.0057  0.1953
11695DDP     C170165  11.272   9.409   3.791  0.1280  0.0624 -0.0834
11695DDP     P170166  11.413   9.422   4.212  0.2395 -0.2054  0.0000
11695DDP     P270167  11.550   9.646   3.710  0.2948  0.0800  0.0593
11695DDP     C270168  11.782  10.069   3.561  0.0927 -0.3134 -0.0356
11695DDP     C370169  11.295   9.431   4.617  0.0380 -0.0177  0.0884
11695DDP     C470170  10.861   9.351   3.752  0.2740  0.2264  0.3172
11696DDP     C170171  11.683  17.860  19.576  0.0989  0.0655 -0.0434
11696DDP     P170172  11.252  18.003  19.415 -0.2752 -0.0734 -0.0848
11696DDP     P270173  12.108  18.048  19.406  0.1167  0.1489 -0.3496
11696DDP     C270174  12.519  18.037  19.142 -0.0332 -0.2076 -0.0486
11696DDP     C370175  10.981  17.839  19.189 -0.1326  0.2640  0.1700
11696DDP     C470176  11.671  17.615  19.853 -0.1793 -0.0878 -0.0366
11697DDP     C170177   0.153  19.741   1.149  0.0359  0.1778  0.1288
11697DDP     P170178   0.443  19.510   1.376  0.3096  0.0347 -0.0683
11697DDP     P270179   0.296  20.210   1.163 -0.3076 -0.5295 -0.1325
11697DDP     C270180   0.332  20.421   0.869 -0.4741 -0.1273  0.1714
11697DDP     C370181   0.516  19.663   1.817 -0.1480 -0.3988  0.1305
11697DDP     C470182  30.079  19.493   1.152  0.3423 -0.0330  0.0536
11698DDP     C170183  22.365  10.307  21.233 -0.0172  0.1608  0.0517
11698DDP     P170184  22.395   9.962  20.957 -0.0820 -0.1728  0.1710
11698DDP     P270185  22.059  10.462  21.503 -0.0047  0.3359 -0.1014
11698DDP     C270186  21.906  10.822  21.682 -0.0762  0.0827 -0.1023
11698DDP     C370187  22.670   9.656  21.006 -0.1638  0.1737 -0.0210
11698DDP     C470188  22.754  10.513  21.284 -0.2932  0.0112  0.1412
11699DDP     C170189  10.314  10.514  15.336 -0.2903 -0.0102  0.3472
11699DDP     P170190  10.354  10.857  15.091  0.0021  0.0061 -0.1955
11699DDP     P270191  10.189  10.112  15.400 -0.2085 -0.0894 -0.0307
11699DDP     C270192   9.956   9.723  15.517  0.1909 -0.0413 -0.0795
11699DDP     C370193  10.078  11.143  15.106  0.1476  0.1476  0.3703
11699DDP     C470194  10.782  10.552  15.523 -0.1334 -0.2389  0.0483
11700DDP     C170195  29.563   9.225  24.390 -0.1625 -0.2091  0.2892
11700DDP     P170196  29.603   9.283  24.791 -0.2420  0.0691  0.0209
11700DDP     P270197  30.062   9.282  24.236 -0.3569 -0.1059 -0.0541
11700DDP     C270198   0.172   9.162  24.125 -0.1802  0.0994  0.0577
11700DDP     C370199  29.633   9.287  25.263  0.4759  0.1458 -0.0098
11700DDP     C470200  29.167   9.003  24.249 -0.4432  0.1176 -0.0802
11701DDP     C170201  26.359   8.788   2.637  0.0471 -0.0716 -0.2106
11701DDP     P170202  26.580   8.943   2.993  0.1331 -0.0852  0.0054
11701DDP     P270203  26.353   8.922   2.270 -0.0484  0.2934  0.0288
11701DDP     C270204  26.210   8.797   1.916 -0.1423 -0.0891  0.0161
11701DDP     C370205  26.978   8.798   3.027  0.1151 -0.1391  0.0828
11701DDP     C470206  26.031   8.361   2.676 -0.1816 -0.2705 -0.0452
11702DDP     C170207  25.960  27.785   7.773 -0.3107  0.3249  0.0649
11702DDP     P170208  26.066  27.848   7.375 -0.2008 -0.1541  0.3060
11702DDP     P270209  25.783  27.281   7.803 -0.4246 -0.0569 -0.0608
11702DDP     C270210  25.934  26.971   7.656  0.0211 -0.1718 -0.1473
11702DDP     C370211  25.943  28.017   7.038  0.1268 -0.1874  0.1782
11702DDP     C470212  25.912  28.162   7.947 -0.4269  0.0246  0.1427
11703DDP     C170213  15.700  24.192  16.304 -0.1970  0.0117  0.0819
11703DDP     P170214  15.639  24.284  16.653  0.0554 -0.0235 -0.0577
11703DDP     P270215  15.735  24.402  15.866 -0.1037  0.0087 -0.2010
11703DDP     C270216  15.587  24.478  15.469 -0.0253 -0.1200  0.3305
11703DDP     C370217  15.485  24.477  17.028 -0.0298 -0.0889  0.2030
11703DDP     C470218  15.871  23.841  16.258  0.0405  0.0388  0.2058
11704DDP     C170219  20.339   2.898   4.343  0.0127 -0.2138 -0.1337
11704DDP     P170220  20.104   2.980   4.760  0.1871  0.3239 -0.0804
11704DDP     P270221  20.404   3.184   4.075 -0.2243  0.2616  0.0068
11704DDP     C270222  20.256   3.306   3.653  0.1273  0.0458  0.2051
11704DDP     C370223  19.945   2.760   5.137  0.0263  0.1933  0.1107
11704DDP     C470224  20.313   2.452   4.216  0.0133 -0.0821 -0.1494
11705DDP     C170225   5.592   2.338  25.489 -0.1769 -0.1522 -0.0496
11705DDP     P170226   5.465   2.363  25.953 -0.3084  0.0740  0.3788
11705DDP     P270227   5.570   2.006  25.337  0.0375  0.0402  0.1541
11705DDP     C270228   5.469   1.918  24.935 -0.0183 -0.0345 -0.2037
11705DDP     C370229   5.294   2.101  26.379  0.1251 -0.0106  0.2458
11705DDP     C470230   5.681   2.519  25.076  0.0393 -0.0366 -0.0059
11706DDP     C170231  26.430  21.717  13.746  0.2802  0.2252 -0.0900
11706DDP     P170232  26.000  21.815  13.501 -0.3352  0.1659  0.3593
11706DDP     P270233  26.772  21.573  13.498  0.1547 -0.1318  0.0467
11706DDP     C270234  26.850  21.578  13.088 -0.2376  0.1590  0.1358
11706DDP     C370235  25.613  21.667  13.271 -0.1582  0.0573  0.0566
11706DDP     C470236  26.467  21.811  14.207  0.0792 -0.1039  0.3384
11707DDP     C170237  19.445   7.422   9.474 -0.1650  0.3794 -0.3584
11707DDP     P170238  19.628   7.726   9.794  0.0347  0.0853 -0.2353
11707DDP     P270239  19.742   7.147   9.596  0.1302  0.3460  0.2011
11707DDP     C270240  20.098   7.017   9.892 -0.0879 -0.0814  0.3453
11707DDP     C370241  19.345   7.966  10.046  0.0889 -0.0990  0.1415
11707DDP     C470242  19.082   7.353   9.341 -0.0223 -0.1014  0.1679
11708DDP     C170243  20.782   9.455  29.006 -0.0281 -0.0461  0.1103
11708DDP     P170244  20.601   9.094  29.144  0.1204  0.0778 -0.2133
11708DDP     P270245  20.503   9.729  28.918 -0.0429 -0.1012  0.1002
11708DDP     C270246  20.238  10.038  28.844 -0.2638  0.1095 -0.2895
11708DDP     C370247  20.574   8.983  29.641  0.2445 -0.1617  0.1477
11708DDP     C470248  21.242   9.542  28.922  0.1242  0.0874 -0.1800
11709DDP     C170249  23.475   3.763   2.779 -0.1462  0.0685 -0.1879
11709DDP     P170250  23.930   3.721   2.707  0.2078  0.1927 -0.1301
11709DDP     P270251  23.280   3.970   3.109  0.2495 -0.0535 -0.0166
11709DDP     C270252  23.212   4.232   3.500 -0.1101  0.3065 -0.3707
11709DDP     C370253  24.327   3.797   2.610  0.0069  0.1000  0.0218
11709DDP     C470254  23.154   3.407   2.636 -0.0038 -0.2097 -0.1980
11710DDP     C170255   7.063   9.105  28.846 -0.2866 -0.2154  0.0481
11710DDP     P170256   7.048   8.944  29.209  0.0460  0.2239 -0.0955
11710DDP     P270257   7.228   9.508  28.964  0.0460 -0.2114  0.1567
11710DDP     C270258   7.214   9.670  29.414  0.2755  0.0817 -0.3641
11710DDP     C370259   6.962   8.758  29.617 -0.3094  0.0708 -0.0509
11710DDP     C470260   7.105   9.011  28.363  0.0974 -0.0656  0.2299
11711DDP     C170261   9.065  21.508  11.991  0.1531  0.2194  0.0453
11711DDP     P170262   9.143  21.150  12.289 -0.6053  0.0452 -0.3699
11711DDP     P270263   8.790  21.894  12.101 -0.0498 -0.1163  0.0800
11711DDP     C270264   8.785  22.304  11.959  0.1101  0.0251  0.0237
11711DDP     C370265   9.085  20.717  12.311 -0.0230  0.0215  0.1709
11711DDP     C470266   9.195  21.422  11.531 -0.1530 -0.0126 -0.0846
11712DDP     C170267  16.148   2.943  15.341  0.1618 -0.2561 -0.1419
11712DDP     P170268  15.759   3.096  15.085  0.1223  0.1216  0.2743
11712DDP     P270269  16.332   2.578  15.565 -0.1151  0.3712  0.3922
11712DDP     C270270  16.409   2.264  15.918 -0.0080 -0.0237 -0.2374
11712DDP     C370271  15.452   3.471  14.956 -0.1447  0.0619  0.1214
11712DDP     C470272  16.424   3.169  15.118  0.0022 -0.0373  0.1710
11713DDP     C170273  18.028  26.643  14.933  0.1196  0.1400 -0.1651
11713DDP     P170274  18.416  26.915  15.135 -0.1748 -0.0125 -0.3498
11713DDP     P270275  17.937  26.266  15.095  0.0791  0.0856 -0.3735
11713DDP     C270276  18.173  25.999  15.475 -0.0458 -0.1446  0.3233
11713DDP     C370277  18.632  27.302  15.101  0.4972  0.3429  0.1846
11713DDP     C470278  17.811  26.825  14.632 -0.2813  0.3281 -0.2520
11714DDP     C170279   2.657  25.685  12.280  0.0936  0.3214 -0.0397
11714DDP     P170280   2.616  25.343  12.563  0.3385 -0.2234 -0.1163
11714DDP     P270281   2.860  25.915  12.579 -0.1453  0.0394  0.1865
11714DDP     C270282   2.938  26.016  12.955  0.1518 -0.0321  0.0364
11714DDP     C370283   2.535  25.161  12.918 -0.1225 -0.1051 -0.0200
11714DDP     C470284   2.766  25.631  11.858 -0.0201  0.0123 -0.0554
11715DDP     C170285   8.849  17.180   0.375  0.0590  0.0857  0.2077
11715DDP     P170286   8.899  17.078   0.799 -0.0154  0.0118  0.1742
11715DDP     P270287   8.855  16.773   0.232  0.0021  0.0082 -0.0528
11715DDP     C270288   8.601  16.475   0.164  0.1480 -0.1255  0.0250
11715DDP     C370289   8.598  16.903   1.177 -0.3171 -0.2806  0.4079
11715DDP     C470290   8.590  17.545   0.347  0.2570 -0.1061  0.2318
11716DDP     C170291  10.572  20.517  13.850  0.1656 -0.0522  0.0942
11716DDP     P170292  10.106  20.462  13.817 -0.1249 -0.0025  0.2209
11716DDP     P270293  10.746  20.624  14.168  0.2137 -0.2663 -0.0802
11716DDP     C270294  10.913  20.687  14.589  0.2149 -0.4127 -0.3912
11716DDP     C370295   9.799  20.532  13.450  0.1552  0.1046  0.3044
11716DDP     C470296  10.811  20.464  13.339  0.2868  0.1920 -0.0735
11717DDP     C170297  11.785  27.051  17.976  0.1507  0.1773  0.1448
11717DDP     P170298  12.054  26.820  17.663 -0.0193  0.1554  0.5337
11717DDP     P270299  11.765  27.510  17.997  0.0845 -0.3113 -0.0236
11717DDP     C270300  11.907  27.888  18.010  0.1593  0.1881  0.1835
11717DDP     C370301  12.182  26.531  17.418 -0.3443  0.0408 -0.2743
11717DDP     C470302  11.459  26.735  18.099 -0.2076 -0.0490  0.0311
11718DDP     C170303  15.268   7.086   9.626  0.1188  0.3936 -0.4665
11718DDP     P170304  15.556   6.749   9.729 -0.1785  0.2091 -0.2273
11718DDP     P270305  14.940   7.015   9.865 -0.1532  0.0323 -0.2494
11718DDP     C270306  14.874   6.978  10.251 -0.1914 -0.0190  0.0418
11718DDP     C370307  15.745   6.369   9.568  0.0102  0.1189 -0.0329
11718DDP     C470308  15.131   7.489   9.402  0.0018 -0.1526  0.0753
11719DDP     C170309  26.640  10.702  21.673  0.1334 -0.1605  0.1229
11719DDP     P170310  26.714  10.255  21.729 -0.1491  0.0145  0.1616
11719DDP     P270311  26.909  11.002  21.739  0.1126 -0.0236  0.1749
11719DDP     C270312  27.230  10.994  22.044  0.0402 -0.0938 -0.1116
11719DDP     C370313  26.509   9.839  21.659  0.1556 -0.2942  0.3973
11719DDP     C470314  26.184  10.861  21.683  0.1728 -0.0891  0.1351
11720DDP     C170315  15.402  18.036  22.306 -0.0056 -0.0510  0.0466
11720DDP     P170316  15.139  18.089  21.871  0.2576  0.2047  0.2035
11720DDP     P270317  15.603  17.714  22.521  0.0301  0.0667  0.1575
11720DDP     C270318  15.703  17.516  22.876 -0.1399 -0.1003  0.3925
11720DDP     C370319  14.921  18.223  21.642  0.2409  0.0596 -0.0188
11720DDP     C470320  15.565  18.469  22.503 -0.2624  0.3522 -0.0499
11721DDP     C170321  22.977  26.604  13.564 -0.1533  0.1260  0.0341
11721DDP     P170322  22.733  26.324  13.240 -0.2837  0.0261 -0.2424
11721DDP     P270323  23.450  26.657  13.701  0.2611 -0.2272  0.2905
11721DDP     C270324  23.746  26.962  13.677  0.0874 -0.0568 -0.0143
11721DDP     C370325  22.597  25.934  13.229  0.1125  0.1969 -0.4392
11721DDP     C470326  22.893  27.146  13.509  0.1027  0.2176 -0.3266
11722DDP     C170327   4.427  14.169  12.930 -0.0044  0.1657 -0.0983
11722DDP     P170328   4.135  14.072  12.796 -0.0288 -0.2475 -0.1775
11722DDP     P270329   4.475  14.186  13.388  0.1911 -0.1379  0.0173
11722DDP     C270330   4.610  14.425  13.633 -0.0273  0.1588 -0.3244
11722DDP     C370331   3.770  14.171  12.703 -0.0638 -0.4274 -0.0014
11722DDP     C470332   4.744  14.134  12.690  0.0380 -0.0109 -0.3860
11723DDP     C170333  18.617  29.773   9.346  0.2708  0.0187 -0.2519
11723DDP     P170334  18.983  29.621   9.392  0.0488  0.0140  0.1435
11723DDP     P270335  18.420  29.535   9.090 -0.0078 -0.1573  0.3333
11723DDP     C270336  18.105  29.706   8.663  0.0623 -0.0861 -0.0141
11723DDP     C370337  19.359  29.821   9.223  0.0486 -0.0555  0.3310
11723DDP     C470338  18.371  29.970   9.443  0.1722 -0.0513  0.0648
11724DDP     C170339  13.091   3.866   7.316 -0.2705 -0.0120  0.0189
11724DDP     P170340  13.183   4.292   7.259 -0.0960 -0.1323 -0.1974
11724DDP     P270341  12.690   3.548   7.238  0.2493 -0.0924 -0.2617
11724DDP     C270342  12.229   3.561   7.296 -0.1318  0.2936  0.0173
11724DDP     C370343  13.426   4.668   7.201  0.2009  0.1493 -0.1977
11724DDP     C470344  13.309   3.535   7.497  0.1222 -0.0291  0.0068
11725DDP     C170345  20.895  29.237  29.501  0.0565 -0.0222 -0.1793
11725DDP     P170346  20.837  29.106  29.902 -0.5167 -0.0552 -0.0511
11725DDP     P270347  20.919  28.923  29.182  0.0555  0.0690 -0.1728
11725DDP     C270348  21.114  28.525  28.928 -0.1182  0.0794 -0.0324
11725DDP     C370349  21.083  29.141  30.228  0.1892 -0.0818 -0.0258
11725DDP     C470350  20.852  29.670  29.452  0.1374 -0.2114 -0.0938
11726DDP     C170351  27.652   0.313   5.851 -0.0504  0.3654 -0.1817
11726DDP     P170352  27.943   0.298   6.281 -0.2993 -0.2249  0.1045
11726DDP     P270353  27.783  30.211   5.853 -0.1803  0.1548  0.2275
11726DDP     C270354  28.044  29.996   6.030 -0.0585  0.0696 -0.5754
11726DDP     C370355  28.129  30.255   6.481 -0.0597  0.1757  0.2201
11726DDP     C470356  27.629   0.555   5.553 -0.0717  0.1564  0.3128
11727DDP     C170357  14.430  24.822   1.154 -0.2455  0.2132  0.2891
11727DDP     P170358  14.507  24.782   1.580  0.1553  0.0576  0.0685
11727DDP     P270359  14.048  24.583   0.953 -0.0274 -0.1346  0.2139
11727DDP     C270360  13.973  24.751   0.479  0.1042 -0.1022  0.0364
11727DDP     C370361  14.508  24.847   2.112 -0.1347  0.2668  0.2498
11727DDP     C470362  14.652  25.088   0.873  0.2686  0.0029  0.1282
11728DDP     C170363  20.716  28.306  22.957 -0.2341  0.2300 -0.2689
11728DDP     P170364  20.183  28.241  23.110 -0.0788 -0.2681 -0.1143
11728DDP     P270365  20.843  28.284  22.594 -0.0270 -0.0517 -0.1212
11728DDP     C270366  20.864  28.540  22.187  0.0915  0.2790  0.3098
11728DDP     C370367  19.821  28.432  22.863 -0.0210  0.1326  0.2025
11728DDP     C470368  21.021  28.541  23.240 -0.2640  0.2363  0.1250
11729DDP     C170369  19.535  14.004   8.893  0.1217 -0.1446 -0.1476
11729DDP     P170370  19.147  13.849   8.980  0.0519  0.0757  0.0627
11729DDP     P270371  19.663  14.462   8.973  0.1886  0.0765  0.1468
11729DDP     C270372  19.937  14.551   9.213 -0.1155  0.0110  0.2484
11729DDP     C370373  18.931  13.506   8.905  0.2691  0.2687  0.1144
11729DDP     C470374  19.839  13.685   8.695  0.3745 -0.0129  0.1701
11730DDP     C170375  23.125   8.844  21.490  0.1792 -0.0236 -0.1341
11730DDP     P170376  23.613   8.951  21.604 -0.0843 -0.0228 -0.1385
11730DDP     P270377  22.831   8.607  21.778 -0.1149  0.0990 -0.1302
11730DDP     C270378  22.636   8.415  22.136  0.1788 -0.0544 -0.1073
11730DDP     C370379  24.109   8.866  21.554  0.4487 -0.0044 -0.2175
11730DDP     C470380  22.864   9.036  21.123  0.0687 -0.2632 -0.0957
11731DDP     C170381   4.926   5.904  21.024  0.1835  0.2117 -0.2587
11731DDP     P170382   5.091   5.545  20.767 -0.1047  0.0752 -0.3680
11731DDP     P270383   4.664   5.713  21.211 -0.1203 -0.0564  0.0203
11731DDP     C270384   4.450   5.570  21.568 -0.1030 -0.2061  0.0785
11731DDP     C370385   5.245   5.053  20.682 -0.0950 -0.1317 -0.0461
11731DDP     C470386   4.935   6.306  21.058 -0.0080 -0.3833 -0.2057
11732DDP     C170387   8.448  14.048  17.023 -0.1855 -0.0786  0.1620
11732DDP     P170388   8.977  14.037  17.054  0.0421  0.1315  0.0583
11732DDP     P270389   8.175  13.626  16.962  0.0621 -0.0623 -0.2198
11732DDP     C270390   7.898  13.304  17.019 -0.0245  0.0079 -0.0450
11732DDP     C370391   9.357  13.947  16.859 -0.3284 -0.1240  0.2190
11732DDP     C470392   8.204  14.434  16.846 -0.1474 -0.0048 -0.4056
11733DDP     C170393  12.366  23.879  10.959 -0.1627 -0.0537 -0.1340
11733DDP     P170394  12.139  23.891  10.600  0.2933  0.0135 -0.1329
11733DDP     P270395  12.624  23.726  11.229  0.0274 -0.1396  0.0694
11733DDP     C270396  12.772  23.405  11.375  0.1760 -0.1335  0.2754
11733DDP     C370397  11.949  23.553  10.403  0.0257 -0.0074 -0.0383
11733DDP     C470398  12.411  24.351  11.099  0.1231 -0.0297  0.1277
11734DDP     C170399  13.146  26.001   1.782  0.1207  0.1636  0.3548
11734DDP     P170400  13.220  26.409   1.801  0.2845  0.3304  0.0631
11734DDP     P270401  12.735  25.852   1.724 -0.2694  0.0002 -0.1087
11734DDP     C270402  12.349  25.886   1.566 -0.1233  0.2705  0.1975
11734DDP     C370403  13.662  26.512   2.131 -0.0230 -0.0583 -0.2836
11734DDP     C470404  13.473  25.710   1.827  0.1617 -0.1065 -0.1115
11735DDP     C170405  20.164  24.208  24.271  0.3798 -0.0579  0.1117
11735DDP     P170406  19.863  24.072  23.933 -0.1918 -0.1961 -0.1471
11735DDP     P270407  20.457  24.618  24.289  0.0062 -0.0112 -0.1959
11735DDP     C270408  20.694  24.975  24.473  0.1100  0.0246  0.1197
11735DDP     C370409  19.628  23.669  23.829  0.1675 -0.1032 -0.3894
11735DDP     C470410  19.954  24.018  24.651  0.0026  0.0943  0.0002
11736DDP     C170411   8.015   9.836  12.607  0.0639  0.1842  0.0401
11736DDP     P170412   8.248  10.073  12.853 -0.0016  0.1058  0.1745
11736DDP     P270413   7.949   9.414  12.515  0.2342 -0.1602 -0.2461
11736DDP     C270414   8.156   9.125  12.278  0.0104 -0.0603 -0.1747
11736DDP     C370415   8.510  10.440  12.966 -0.1783 -0.0272  0.1091
11736DDP     C470416   8.059   9.960  12.212  0.2962 -0.1295  0.3595
11737DDP     C170417  24.709   1.552  12.775  0.0969 -0.1264 -0.1664
11737DDP     P170418  24.899   1.565  12.398  0.1341  0.1302 -0.1694
11737DDP     P270419  24.766   1.110  12.982 -0.0697  0.1989  0.4458
11737DDP     C270420  24.993   1.012  13.356 -0.1773 -0.0556  0.0176
11737DDP     C370421  24.748   1.589  11.985  0.2557 -0.3304  0.0148
11737DDP     C470422  24.417   1.929  12.741  0.1669  0.0732  0.0787
11738DDP     C170423  14.891   6.320  16.690  0.1256  0.0474 -0.2630
11738DDP     P170424  15.220   6.339  16.410  0.2445  0.1790 -0.1793
11738DDP     P270425  14.671   6.712  16.594  0.1579  0.0653  0.0954
11738DDP     C270426  14.268   6.894  16.492 -0.0519  0.4222  0.0501
11738DDP     C370427  15.237   6.491  16.020 -0.1057  0.3130  0.1589
11738DDP     C470428  14.685   5.951  16.892  0.2769  0.1427  0.2132
11739DDP     C170429  23.390  24.141   6.999  0.0189 -0.0803  0.1086
11739DDP     P170430  23.682  24.138   7.307  0.0809  0.0144  0.2014
11739DDP     P270431  23.033  23.951   6.864  0.1132 -0.0277 -0.0645
11739DDP     C270432  22.840  23.609   7.002 -0.1871  0.0558  0.1467
11739DDP     C370433  24.062  24.477   7.330 -0.0651  0.1618 -0.2209
11739DDP     C470434  23.321  24.471   6.734  0.1137 -0.1608  0.4652
11740DDP     C170435  18.684  20.123  12.384  0.1974  0.0975  0.1229
11740DDP     P170436  18.505  20.463  12.219 -0.2293  0.1499  0.4837
11740DDP     P270437  18.549  19.847  12.109 -0.0244  0.2804  0.1363
11740DDP     C270438  18.258  19.739  11.880 -0.0626  0.1072  0.1971
11740DDP     C370439  18.195  20.785  12.488 -0.1941 -0.1002  0.2032
11740DDP     C470440  19.057  20.001  12.493 -0.1107 -0.0627 -0.0355
11741DDP     C170441   4.649  10.172   7.450  0.1423 -0.2106 -0.1936
11741DDP     P170442   4.289  10.124   7.634  0.1803 -0.1591  0.1876
11741DDP     P270443   4.775   9.901   7.610  0.0456  0.0385  0.0162
11741DDP     C270444   4.411   9.624   7.658  0.2019  0.0287 -0.3271
11741DDP     C370445   3.994   9.884   7.960  0.0931  0.0405  0.0215
11741DDP     C470446   4.628  10.469   7.126 -0.0675  0.1744  0.0880
11742DDP     C170447  28.845  22.103  29.823  0.2068  0.3940  0.2714
11742DDP     P170448  28.653  21.844  29.536 -0.2691  0.0082  0.1545
11742DDP     P270449  28.486  22.125  30.123  0.0706  0.1290 -0.1262
11742DDP     C270450  28.103  22.272  30.127 -0.0909  0.0599  0.2301
11742DDP     C370451  28.305  21.620  29.281  0.2189  0.0712  0.1394
11742DDP     C470452  29.304  22.332  29.713  0.0226 -0.0729 -0.2042
11743DDP     C170453   6.294   0.731   0.818 -0.2611  0.0080 -0.1442
11743DDP     P170454   6.135   0.403   0.639  0.2611 -0.1763  0.0383
11743DDP     P270455   6.360   1.003   0.569 -0.2807 -0.0751  0.2817
11743DDP     C270456   6.143   1.186   0.184 -0.1151  0.1727  0.1069
11743DDP     C370457   6.011  30.332   0.603 -0.1783  0.1155 -0.0065
11743DDP     C470458   6.099   0.910   1.188 -0.0348  0.1584  0.1025
11744DDP     C170459   9.207  20.591  27.354  0.0257  0.0266 -0.0343
11744DDP     P170460   8.997  20.262  27.395  0.1036  0.0821  0.0225
11744DDP     P270461   9.058  20.842  27.644  0.0377 -0.1844  0.1156
11744DDP     C270462   8.772  20.884  28.004 -0.0495 -0.2355 -0.1173
11744DDP     C370463   8.521  20.179  27.441 -0.0556  0.3016  0.2276
11744DDP     C470464   9.187  21.014  27.140 -0.2135  0.0125  0.0009
11745DDP     C170465  21.306   5.385  28.994 -0.3181  0.1600  0.1258
11745DDP     P170466  21.711   5.666  29.081  0.1837 -0.0643 -0.2019
11745DDP     P270467  20.946   5.506  28.793 -0.0285  0.1071 -0.1001
11745DDP     C270468  20.611   5.281  28.573  0.3058  0.3514 -0.0592
11745DDP     C370469  22.097   5.716  28.966 -0.0296  0.0839  0.0792
11745DDP     C470470  21.510   5.048  28.950 -0.1138  0.1432  0.0804
11746DDP     C170471  22.510  21.341  24.960  0.3450 -0.0149 -0.1068
11746DDP     P170472  22.053  21.476  25.021  0.1787  0.2260 -0.1899
11746DDP     P270473  22.544  20.969  24.622 -0.3239 -0.2085 -0.3585
11746DDP     C270474  22.446  20.482  24.616  0.0266 -0.0354  0.3657
11746DDP     C370475  21.738  21.775  24.848 -0.0960  0.1034 -0.0976
11746DDP     C470476  22.860  21.586  25.028 -0.4031  0.1939 -0.0856
11747DDP     C170477   5.797  13.125  23.078  0.0922 -0.2232 -0.0015
11747DDP     P170478   5.900  13.523  22.996  0.2116  0.0204  0.1441
11747DDP     P270479   5.584  13.022  22.703  0.2414 -0.0397 -0.1830
11747DDP     C270480   5.778  12.713  22.384 -0.0898  0.1308 -0.0063
11747DDP     C370481   6.276  13.781  23.112 -0.1908  0.0020 -0.3591
11747DDP     C470482   5.703  12.874  23.472  0.1295 -0.1523  0.2505
11748DDP     C170483  15.361  21.765   6.118  0.3132 -0.2352 -0.0669
11748DDP     P170484  15.039  21.736   5.801 -0.0503 -0.1952  0.0633
11748DDP     P270485  15.337  22.130   6.389  0.3034  0.1277 -0.2292
11748DDP     C270486  14.958  22.282   6.674 -0.0692  0.1204  0.2337
11748DDP     C370487  14.766  21.894   5.523  0.0375  0.0698  0.3711
11748DDP     C470488  15.659  21.513   6.271 -0.1753  0.0760 -0.1848
11749DDP     C170489   3.107  12.119  16.863 -0.1461 -0.0031 -0.0441
11749DDP     P170490   3.609  12.225  16.711  0.0408 -0.3227 -0.0834
11749DDP     P270491   3.075  12.131  17.348 -0.2524  0.1374  0.2672
11749DDP     C270492   3.196  11.843  17.635  0.0499  0.0340 -0.0246
11749DDP     C370493   4.068  11.990  16.557 -0.1926  0.0819  0.2150
11749DDP     C470494   2.800  12.370  16.623  0.0524  0.3111  0.0354
11750DDP     C170495   9.650  15.582   5.980 -0.0699 -0.0010  0.1145
11750DDP     P170496   9.999  15.623   6.324 -0.1265  0.3069 -0.1753
11750DDP     P270497   9.597  15.803   5.667  0.0964  0.0588  0.2212
11750DDP     C270498   9.269  15.868   5.391 -0.2789 -0.1799  0.0157
11750DDP     C370499  10.327  15.994   6.466 -0.0952 -0.1438  0.2007
11750DDP     C470500   9.311  15.419   6.186 -0.2175 -0.0288 -0.1010
11751DDP     C170501  25.153   3.797  16.507  0.1712 -0.2581  0.1539
11751DDP     P170502  25.581   3.656  16.806 -0.0125 -0.1778  0.2647
11751DDP     P270503  25.167   4.056  16.090 -0.1671 -0.1768 -0.1403
11751DDP     C270504  24.878   4.415  15.979 -0.6211  0.2314 -0.0947
11751DDP     C370505  25.912   3.550  16.508 -0.0319 -0.3386  0.1066
11751DDP     C470506  24.680   3.699  16.632 -0.0062 -0.1779 -0.2595
11752DDP     C170507   3.727  14.536   7.996  0.1155 -0.1226  0.0666
11752DDP     P170508   3.722  14.095   7.777 -0.0143  0.0326  0.2563
11752DDP     P270509   3.695  14.585   8.443 -0.2086  0.0915  0.0261
11752DDP     C270510   4.012  14.385   8.670  0.0995 -0.2996  0.1558
11752DDP     C370511   3.948  13.741   7.536  0.1362  0.0758  0.0852
11752DDP     C470512   3.848  14.858   7.761  0.0598  0.2281 -0.2972
11753DDP     C170513  17.030  12.263  16.174  0.0475 -0.1933 -0.0677
11753DDP     P170514  16.808  12.077  15.891 -0.0335  0.2334 -0.3360
11753DDP     P270515  16.884  12.145  16.613 -0.2239 -0.1956  0.0401
11753DDP     C270516  16.963  11.824  16.956  0.0628 -0.1198 -0.0961
11753DDP     C370517  16.795  12.071  15.420  0.4460 -0.1529 -0.0190
11753DDP     C470518  17.493  12.307  16.046 -0.1200 -0.1450 -0.0030
11754DDP     C170519  14.465  24.996  11.119 -0.2727 -0.1970  0.2771
11754DDP     P170520  14.446  25.315  10.730  0.1923 -0.0539  0.0132
11754DDP     P270521  14.489  25.204  11.444 -0.0404 -0.3284  0.1189
11754DDP     C270522  14.516  25.399  11.880  0.2060 -0.0604 -0.0381
11754DDP     C370523  14.328  25.664  10.529  0.0989 -0.3609  0.1892
11754DDP     C470524  14.532  24.543  11.201 -0.2542 -0.2490  0.0445
11755DDP     C170525  10.860  23.367  25.434  0.2348  0.0296  0.3751
11755DDP     P170526  10.844  23.760  25.552  0.3626 -0.5382 -0.0171
11755DDP     P270527  10.799  23.163  25.861  0.0809 -0.0944 -0.2672
11755DDP     C270528  10.595  23.055  26.355 -0.0900  0.0921 -0.0536
11755DDP     C370529  10.940  24.098  25.273 -0.2438  0.2404  0.0723
11755DDP     C470530  10.823  23.207  24.935 -0.3593  0.1426 -0.0501
11756DDP     C170531   4.439   2.730  17.810 -0.0581 -0.1435  0.2716
11756DDP     P170532   4.385   2.900  18.202 -0.2333 -0.0898 -0.1798
11756DDP     P270533   4.879   2.675  17.638 -0.1571  0.1569  0.0602
11756DDP     C270534   5.266   2.646  17.477  0.1107  0.1164  0.1863
11756DDP     C370535   4.455   2.935  18.755 -0.2029 -0.1526  0.0224
11756DDP     C470536   4.269   3.064  17.606  0.3407 -0.1497  0.0738
11757DDP     C170537  16.681   2.640  12.515 -0.0951 -0.0601 -0.1458
11757DDP     P170538  16.348   2.741  12.412 -0.2146  0.2934  0.1375
11757DDP     P270539  16.986   2.863  12.706  0.1270 -0.1909  0.6045
11757DDP     C270540  17.350   2.841  12.913 -0.0510 -0.2039  0.2665
11757DDP     C370541  16.086   3.053  12.331  0.0600 -0.4059 -0.3930
11757DDP     C470542  16.573   2.226  12.553 -0.1924 -0.1333  0.0417
11758DDP     C170543  24.175   3.719  12.108  0.3744 -0.1897 -0.1472
11758DDP     P170544  24.064   4.008  12.399 -0.2534  0.0215  0.2440
11758DDP     P270545  24.133   3.347  12.367 -0.0285 -0.1466  0.0348
11758DDP     C270546  24.481   3.100  12.623 -0.0589  0.0451  0.1734
11758DDP     C370547  24.227   4.363  12.576 -0.1843  0.0698 -0.2163
11758DDP     C470548  24.345   4.035  11.790  0.2006  0.0970  0.0029
11759DDP     C170549  26.714  22.008  27.335  0.0950  0.0763  0.2882
11759DDP     P170550  26.709  21.783  26.945 -0.0829  0.0812 -0.0027
11759DDP     P270551  26.348  22.015  27.532 -0.1500  0.4672  0.1059
11759DDP     C270552  26.048  21.721  27.701  0.0142 -0.1659 -0.0032
11759DDP     C370553  26.512  21.942  26.508 -0.0350 -0.0470  0.2162
11759DDP     C470554  27.172  22.124  27.600  0.1359 -0.0567  0.1580
11760DDP     C170555  18.260   3.319  15.048  0.1295 -0.1681  0.0643
11760DDP     P170556  18.277   2.749  15.027 -0.0962 -0.1563  0.0826
11760DDP     P270557  17.803   3.575  15.129 -0.2519 -0.0316  0.0150
11760DDP     C270558  17.475   3.833  14.987 -0.0672 -0.1068 -0.0463
11760DDP     C370559  18.493   2.392  15.095  0.0258 -0.2593  0.2250
11760DDP     C470560  18.666   3.399  14.890 -0.0034  0.1712  0.0278
11761DDP     C170561   4.575   8.685   5.269  0.1156  0.2156  0.1849
11761DDP     P170562   4.778   8.274   5.370 -0.1164 -0.0804 -0.2518
11761DDP     P270563   4.257   8.541   5.457 -0.0719  0.1173  0.4404
11761DDP     C270564   3.887   8.676   5.487 -0.3632  0.0346  0.2509
11761DDP     C370565   5.047   8.097   5.061 -0.0140  0.2472 -0.2010
11761DDP     C470566   4.774   9.081   5.082 -0.0827  0.0285  0.0289
11762DDP     C170567   5.305  12.485  12.845  0.0300  0.2163  0.1074
11762DDP     P170568   4.924  12.522  12.613  0.1090  0.1235  0.0606
11762DDP     P270569   5.238  12.399  13.223 -0.0029 -0.2767  0.2264
11762DDP     C270570   4.971  12.284  13.572  0.1547  0.2403 -0.1595
11762DDP     C370571   4.534  12.732  12.318 -0.0613  0.0335 -0.1462
11762DDP     C470572   5.682  12.633  12.736  0.2358  0.0419  0.1172
11763DDP     C170573  16.742  19.425   1.039  0.1691 -0.0571  0.0711
11763DDP     P170574  16.540  19.083   1.180 -0.0770  0.0602  0.1217
11763DDP     P270575  17.068  19.557   1.297 -0.1630 -0.2060 -0.1832
11763DDP     C270576  17.087  19.791   1.749 -0.1657 -0.0707  0.1350
11763DDP     C370577  16.342  18.907   1.613 -0.2935  0.0159  0.3131
11763DDP     C470578  16.779  19.818   0.768  0.2359 -0.4050 -0.5940
11764DDP     C170579  18.368  26.141  13.636 -0.1025 -0.0294  0.0069
11764DDP     P170580  18.193  26.109  13.248 -0.0002  0.1617 -0.1321
11764DDP     P270581  18.681  26.045  14.009  0.1093  0.1141 -0.0322
11764DDP     C270582  18.945  25.753  14.213 -0.1145  0.0109  0.2210
11764DDP     C370583  18.000  26.261  12.858 -0.2468 -0.0596  0.1698
11764DDP     C470584  18.001  26.320  13.832  0.0478  0.1008  0.1408
11765DDP     C170585   4.751   0.379  22.442 -0.0823  0.2735 -0.0557
11765DDP     P170586   4.539  30.322  22.557  0.1867 -0.0002  0.1600
11765DDP     P270587   4.785   0.452  22.006  0.1835 -0.0695  0.0135
11765DDP     C270588   5.253   0.445  21.712  0.0412  0.0028  0.1162
11765DDP     C370589   4.305  29.979  22.632 -0.1304 -0.2655  0.0180
11765DDP     C470590   4.900   0.613  22.683  0.1511 -0.0134 -0.0680
11766DDP     C170591  25.484   1.854  24.354 -0.2226  0.2693 -0.2186
11766DDP     P170592  25.689   1.990  24.123  0.0469  0.0142  0.2149
11766DDP     P270593  25.333   1.474  24.315  0.2132 -0.3399 -0.2673
11766DDP     C270594  25.190   1.095  24.115  0.0250  0.1234  0.1992
11766DDP     C370595  25.824   1.807  23.687  0.0277 -0.0871 -0.0980
11766DDP     C470596  25.315   2.049  24.600 -0.0621 -0.0415 -0.0663
11767DDP     C170597  21.353  19.302   1.363 -0.1310 -0.4684  0.0223
11767DDP     P170598  21.240  19.729   1.153  0.1240 -0.0449  0.2187
11767DDP     P270599  21.382  18.989   1.784  0.1462 -0.1798 -0.1000
11767DDP     C270600  21.334  18.497   2.090  0.1042 -0.2505  0.0184
11767DDP     C370601  21.361  20.151   1.289 -0.0343  0.1072 -0.3699
11767DDP     C470602  21.560  18.949   0.958 -0.3353 -0.0968 -0.2173
11768DDP     C170603   3.027  22.571  15.030  0.1620  0.0221  0.0755
11768DDP     P170604   2.939  22.558  15.451 -0.0552  0.1165 -0.0794
11768DDP     P270605   3.153  22.392  14.671 -0.0138 -0.0561 -0.2298
11768DDP     C270606   3.285  22.214  14.259  0.2297  0.1390  0.2961
11768DDP     C370607   3.265  22.852  15.687 -0.1772 -0.3387  0.0327
11768DDP     C470608   3.105  22.978  15.049 -0.1200  0.1648  0.0906
11769DDP     C170609  13.320  24.631  18.174 -0.2558  0.1783 -0.2245
11769DDP     P170610  13.754  24.463  18.128 -0.5037  0.0054  0.1459
11769DDP     P270611  13.293  24.702  18.632  0.0472 -0.2528  0.1062
11769DDP     C270612  12.873  24.607  18.720 -0.2994 -0.0146 -0.0364
11769DDP     C370613  14.135  24.645  18.139  0.1347  0.1543  0.3084
11769DDP     C470614  13.138  24.849  17.932  0.1331  0.0025 -0.0864
11770DDP     C170615  15.253  22.339  13.594 -0.1774 -0.3292 -0.1399
11770DDP     P170616  15.435  21.963  13.334  0.1519  0.0689 -0.1597
11770DDP     P270617  15.581  22.693  13.610  0.2494 -0.1445  0.0034
11770DDP     C270618  15.886  23.087  13.680 -0.2166  0.1768  0.0017
11770DDP     C370619  15.612  21.679  13.068 -0.1320 -0.0623  0.3622
11770DDP     C470620  14.833  22.398  13.600  0.3362 -0.0825 -0.0002
11771DDP     C170621  28.721   1.454  10.956  0.1448  0.1078  0.0169
11771DDP     P170622  28.759   1.312  10.543  0.1302  0.1597 -0.1262
11771DDP     P270623  28.466   1.416  11.269 -0.3583 -0.1817  0.3405
11771DDP     C270624  28.381   0.950  11.372  0.4067 -0.1542  0.0117
11771DDP     C370625  28.456   1.117  10.249  0.0143 -0.0185 -0.0857
11771DDP     C470626  28.859   1.777  11.142 -0.0987 -0.0381 -0.0687
11772DDP     C170627   5.019  13.099  27.160 -0.2198  0.1066 -0.3617
11772DDP     P170628   4.791  13.393  26.866 -0.2583  0.1520  0.1216
11772DDP     P270629   5.402  13.103  27.142 -0.0447  0.0512 -0.1761
11772DDP     C270630   5.795  13.248  27.032  0.2378 -0.0650 -0.0651
11772DDP     C370631   4.937  13.713  26.625  0.0758  0.0515 -0.2011
11772DDP     C470632   4.708  12.769  27.313  0.2012  0.0488  0.0767
11773DDP     C170633  26.470  28.518  21.393 -0.0068  0.0918 -0.3130
11773DDP     P170634  26.413  28.573  21.832 -0.0327  0.1089 -0.0183
11773DDP     P270635  26.584  28.831  21.138  0.2527 -0.2147  0.0847
11773DDP     C270636  26.622  29.319  21.106 -0.0535 -0.2034  0.1301
11773DDP     C370637  26.035  28.794  22.072 -0.0264  0.2027 -0.1345
11773DDP     C470638  26.530  28.100  21.165 -0.0539  0.1188  0.1378
11774DDP     C170639  16.783  20.608  23.353 -0.2748 -0.2917 -0.3142
11774DDP     P170640  16.572  20.957  23.553 -0.1005 -0.1816  0.2251
11774DDP     P270641  17.014  20.426  23.577  0.0610 -0.0393 -0.2878
11774DDP     C270642  17.178  20.475  23.973  0.1460  0.3361 -0.0369
11774DDP     C370643  16.584  21.401  23.582 -0.0653  0.1136 -0.0913
11774DDP     C470644  16.896  20.551  22.917  0.2535  0.1232  0.1561
11775DDP     C170645  28.750  23.172   4.220 -0.2627  0.0397  0.2080
11775DDP     P170646  29.095  23.133   4.526  0.0730  0.1247 -0.2110
11775DDP     P270647  28.343  23.154   4.433 -0.2085 -0.3932  0.2166
11775DDP     C270648  27.947  23.148   4.406 -0.3179  0.1367 -0.1768
11775DDP     C370649  29.123  22.977   4.858 -0.0296 -0.0068  0.4367
11775DDP     C470650  28.896  23.255   3.746 -0.0926  0.0533 -0.0599
11776DDP     C170651  10.771  24.871   3.807 -0.1295 -0.2146  0.0253
11776DDP     P170652  10.624  25.052   3.358 -0.3314 -0.3774 -0.4864
11776DDP     P270653  10.809  24.965   4.236  0.1492 -0.1731 -0.2985
11776DDP     C270654  10.520  25.197   4.577  0.5868 -0.1106 -0.2437
11776DDP     C370655  10.627  25.196   2.893 -0.3033  0.1920  0.2528
11776DDP     C470656  10.742  24.466   3.726  0.0159 -0.3243  0.2183
11777DDP     C170657   7.533   8.627   1.501 -0.1094  0.1534  0.0632
11777DDP     P170658   7.414   8.516   1.039  0.0367 -0.1895  0.1994
11777DDP     P270659   7.667   8.955   1.708 -0.0856 -0.0285  0.3855
11777DDP     C270660   7.398   9.384   1.558 -0.0431  0.0779 -0.0499
11777DDP     C370661   7.097   8.360   0.792  0.0375 -0.0561  0.0830
11777DDP     C470662   7.726   8.283   1.741 -0.1098 -0.0500 -0.2295
11778DDP     C170663  18.994   3.042  10.432  0.0560  0.1361  0.0052
11778DDP     P170664  19.352   3.015  10.722  0.2434  0.1970  0.4259
11778DDP     P270665  18.804   2.599  10.577  0.0757  0.0071 -0.0406
11778DDP     C270666  18.362   2.494  10.587 -0.1049 -0.1053 -0.4519
11778DDP     C370667  19.685   3.046  10.579  0.2587 -0.1172 -0.0593
11778DDP     C470668  18.845   3.270  10.149 -0.0157 -0.1157  0.2484
11779DDP     C170669  25.870  22.892  13.812  0.0760  0.1283 -0.1287
11779DDP     P170670  25.635  22.534  13.927 -0.0106  0.2968  0.1185
11779DDP     P270671  25.919  22.853  13.397  0.3369  0.0589 -0.0175
11779DDP     C270672  25.972  22.648  12.994  0.1825 -0.0760 -0.0535
11779DDP     C370673  25.544  22.204  14.165 -0.0794 -0.2118  0.4225
11779DDP     C470674  26.115  23.136  14.032  0.0733  0.0332 -0.0698
11780DDP     C170675  19.609  20.104  18.079  0.0368 -0.0309 -0.3068
11780DDP     P170676  19.934  20.056  18.394  0.0388 -0.1609 -0.3125
11780DDP     P270677  19.943  20.129  17.792  0.0735  0.1740  0.3545
11780DDP     C270678  20.181  20.323  17.388  0.0187 -0.1767 -0.1474
11780DDP     C370679  20.108  19.807  18.731  0.2980  0.4022  0.6198
11780DDP     C470680  19.116  20.138  18.215  0.1934 -0.0678  0.0150
11781DDP     C170681   0.746   2.156  13.302  0.0696  0.0370 -0.4829
11781DDP     P170682   0.935   2.473  13.297 -0.1660 -0.4068  0.0500
11781DDP     P270683   0.718   1.880  13.039  0.1188  0.0730  0.0501
11781DDP     C270684   0.629   1.503  12.831 -0.1983 -0.1249  0.1671
11781DDP     C370685   1.319   2.725  13.283  0.1207  0.1267  0.3484
11781DDP     C470686   0.393   2.312  13.390 -0.0022 -0.0187 -0.3317
11782DDP     C170687   8.231   6.926  14.082 -0.0209 -0.1807 -0.0085
11782DDP     P170688   8.275   6.649  14.293  0.2088  0.1222  0.0158
11782DDP     P270689   8.396   6.900  13.708 -0.0946  0.1498  0.1280
11782DDP     C270690   8.756   6.745  13.398 -0.1235  0.3571 -0.0039
11782DDP     C370691   8.230   6.342  14.659  0.1652 -0.1862  0.0559
11782DDP     C470692   7.999   7.166  14.196  0.1519  0.2317  0.1371
11783DDP     C170693  10.958  20.640  26.453  0.1631  0.0923  0.0364
11783DDP     P170694  11.164  20.314  26.732 -0.1044 -0.1833  0.2875
11783DDP     P270695  11.235  20.562  26.077  0.4207  0.1198 -0.3844
11783DDP     C270696  11.523  20.434  25.673  0.0281 -0.1171 -0.1636
11783DDP     C370697  11.088  20.180  27.128  0.1665 -0.0038  0.2120
11783DDP     C470698  10.868  20.912  26.767  0.0154 -0.2546  0.0959
11784DDP     C170699   6.250   9.958   8.953 -0.0391  0.2057 -0.0952
11784DDP     P170700   6.310   9.884   9.401 -0.0690 -0.2521 -0.0038
11784DDP     P270701   6.637  10.106   8.851 -0.0338  0.3466  0.1631
11784DDP     C270702   6.874  10.324   8.525  0.0658  0.1341 -0.0718
11784DDP     C370703   6.599  10.034   9.643  0.3661 -0.0178 -0.1373
11784DDP     C470704   5.988   9.675   8.764  0.0315 -0.0882  0.2239
11785DDP     C170705   8.405   3.350  19.635 -0.1506 -0.0665  0.1981
11785DDP     P170706   8.436   2.929  19.532 -0.1549  0.0802 -0.0792
11785DDP     P270707   8.466   3.158  20.089 -0.3019 -0.1433  0.2647
11785DDP     C270708   8.171   2.975  20.441 -0.4949 -0.1516  0.0844
11785DDP     C370709   8.545   2.408  19.583  0.1429 -0.0617  0.0980
11785DDP     C470710   8.226   3.669  19.337  0.0371 -0.2197 -0.3393
11786DDP     C170711   7.554  14.913  24.247 -0.0988  0.0282 -0.0103
11786DDP     P170712   7.689  14.994  23.829 -0.2901 -0.1658 -0.3095
11786DDP     P270713   7.676  14.618  24.421 -0.0899  0.1473 -0.0602
11786DDP     C270714   7.702  14.087  24.406 -0.0254 -0.0628 -0.1480
11786DDP     C370715   7.648  14.729  23.523 -0.5506  0.1058  0.0215
11786DDP     C470716   7.498  15.370  24.350 -0.0105 -0.2659  0.0504
11787DDP     C170717  23.743  24.570   6.501  0.0218  0.2193  0.3091
11787DDP     P170718  23.599  24.954   6.358  0.0977 -0.3047 -0.1047
11787DDP     P270719  24.155  24.650   6.730  0.0754  0.0330  0.0768
11787DDP     C270720  24.601  24.783   6.633  0.2166  0.0071 -0.0198
11787DDP     C370721  23.708  25.397   6.252 -0.3603 -0.1459 -0.0084
11787DDP     C470722  23.585  24.117   6.541  0.0007 -0.1678  0.2269
11788DDP     C170723  19.540   2.204  17.821  0.1472  0.0793  0.3157
11788DDP     P170724  19.808   2.363  18.089 -0.1242 -0.2037 -0.1029
11788DDP     P270725  19.300   1.851  17.816 -0.1131 -0.1151  0.1307
11788DDP     C270726  19.460   1.525  17.811  0.2553 -0.2975 -0.2817
11788DDP     C370727  19.931   2.504  18.520 -0.0409 -0.2201 -0.1956
11788DDP     C470728  19.797   2.378  17.519 -0.1160 -0.2783  0.2306
11789DDP     C170729  24.019  23.392  21.557  0.0591  0.1413  0.3205
11789DDP     P170730  24.020  23.541  21.096 -0.0624  0.0855  0.0485
11789DDP     P270731  24.420  23.242  21.741 -0.1880 -0.2511 -0.0677
11789DDP     C270732  24.855  23.204  21.693 -0.2566  0.0856 -0.0485
11789DDP     C370733  24.323  23.459  20.818  0.1242 -0.1038  0.0257
11789DDP     C470734  23.727  23.341  21.748 -0.0582 -0.0623 -0.1207
11790DDP     C170735  25.052  28.553  22.223  0.0510  0.3338  0.2556
11790DDP     P170736  25.173  28.393  21.803  0.2114  0.2322 -0.0626
11790DDP     P270737  24.738  28.821  22.275 -0.1751  0.3548 -0.1386
11790DDP     C270738  24.329  28.959  21.922 -0.0152 -0.0685  0.1624
11790DDP     C370739  25.047  28.334  21.412  0.1802  0.0583  0.1199
11790DDP     C470740  25.148  28.457  22.632 -0.0451 -0.1622  0.0976
11791DDP     C170741  21.960  22.577  10.269  0.1297 -0.0957 -0.0197
11791DDP     P170742  21.876  22.809  10.554  0.3899  0.0306 -0.1647
11791DDP     P270743  21.892  22.717   9.866 -0.2024 -0.1142  0.0666
11791DDP     C270744  22.081  22.933   9.635  0.0921 -0.0848  0.2184
11791DDP     C370745  21.612  22.968  10.916  0.0341  0.0395 -0.0689
11791DDP     C470746  21.814  22.139  10.418 -0.1040  0.1739 -0.1251
11792DDP     C170747  17.446  19.100  22.402 -0.1599 -0.0255  0.0799
11792DDP     P170748  17.023  18.903  22.407 -0.0975 -0.0420  0.0051
11792DDP     P270749  17.444  19.352  21.944  0.1040 -0.1376  0.1766
11792DDP     C270750  17.403  19.219  21.502 -0.0811  0.2205 -0.0588
11792DDP     C370751  16.734  18.656  22.279 -0.0588  0.0925 -0.0937
11792DDP     C470752  17.880  19.063  22.466 -0.0798 -0.0903 -0.1865
11793DDP     C170753  14.090  22.088  11.525  0.2053 -0.3170 -0.0982
11793DDP     P170754  13.632  21.945  11.461 -0.0859  0.0936 -0.0865
11793DDP     P270755  14.428  22.130  11.232 -0.0157 -0.0483 -0.0654
11793DDP     C270756  14.913  22.097  11.442 -0.0133  0.0722 -0.2882
11793DDP     C370757  13.340  21.758  11.793  0.3166 -0.2124  0.1811
11793DDP     C470758  14.163  22.255  11.990 -0.1999 -0.2530  0.0288
11794DDP     C170759   1.183   0.181   3.953  0.0152 -0.0077 -0.2078
11794DDP     P170760   0.981  30.154   4.048 -0.1177  0.2990 -0.1937
11794DDP     P270761   1.465   0.121   3.678  0.1288 -0.0072 -0.0809
11794DDP     C270762   1.755  30.166   3.547 -0.2054  0.2365  0.2148
11794DDP     C370763   0.834  29.703   3.937 -0.2265 -0.0212  0.0599
11794DDP     C470764   1.052   0.596   4.042  0.2403 -0.2778 -0.3014
11795DDP     C170765  13.994  28.168  26.509  0.1394 -0.0489 -0.0806
11795DDP     P170766  13.794  28.392  26.778  0.1427 -0.0496 -0.0251
11795DDP     P270767  13.942  27.724  26.661  0.3666  0.0780  0.1762
11795DDP     C270768  13.859  27.272  26.882 -0.0097 -0.0192 -0.0393
11795DDP     C370769  13.858  28.625  27.213  0.0627  0.0432 -0.0448
11795DDP     C470770  14.369  28.398  26.327 -0.0611  0.0586  0.2388
11796DDP     C170771  13.937  19.827  26.582 -0.0462 -0.0185  0.2384
11796DDP     P170772  13.528  19.775  26.471 -0.0473  0.2101 -0.1872
11796DDP     P270773  14.032  20.223  26.730  0.2601 -0.4483 -0.0580
11796DDP     C270774  14.413  20.509  26.589 -0.0121  0.1701 -0.0449
11796DDP     C370775  13.217  19.765  26.766  0.1301  0.1205 -0.0580
11796DDP     C470776  14.188  19.550  26.404  0.1247  0.1056  0.2459
11797DDP     C170777  16.842  29.003  10.763 -0.0868  0.3937 -0.2006
11797DDP     P170778  16.398  29.000  10.696  0.0539  0.3472  0.2423
11797DDP     P270779  16.830  28.577  10.861  0.1599 -0.1119  0.3261
11797DDP     C270780  16.640  28.367  11.210  0.3466 -0.2226 -0.0793
11797DDP     C370781  15.929  28.921  10.846 -0.0587 -0.1293  0.0561
11797DDP     C470782  17.244  29.159  10.499  0.2966  0.5297  0.2154
11798DDP     C170783  24.815  27.440  29.819  0.0684 -0.1018 -0.0620
11798DDP     P170784  25.229  27.240  29.883  0.1353 -0.1358  0.2362
11798DDP     P270785  24.676  27.821  29.521  0.0771  0.5102 -0.0978
11798DDP     C270786  24.512  28.110  29.233 -0.0706 -0.2423 -0.3470
11798DDP     C370787  25.710  27.069  29.941  0.0417  0.0384 -0.2961
11798DDP     C470788  24.599  27.251  30.138 -0.0531 -0.0842 -0.0131
11799DDP     C170789  11.027   5.824  23.371 -0.4419  0.1898 -0.0462
11799DDP     P170790  10.885   5.889  22.940  0.0332  0.1860 -0.1704
11799DDP     P270791  10.945   6.057  23.696  0.0351 -0.0298 -0.1278
11799DDP     C270792  11.063   6.355  24.082 -0.0748  0.1888  0.1263
11799DDP     C370793  10.509   6.107  22.727 -0.0901  0.0518 -0.2605
11799DDP     C470794  11.354   5.583  23.428 -0.0340  0.0553  0.0662
11800DDP     C170795   8.538   2.307  10.174 -0.0524 -0.0702 -0.0542
11800DDP     P170796   8.224   2.557  10.011 -0.0305 -0.1422 -0.2497
11800DDP     P270797   8.624   2.610  10.590  0.0572 -0.1981  0.0614
11800DDP     C270798   8.380   2.757  10.976 -0.0660 -0.0668 -0.1603
11800DDP     C370799   7.997   2.913  10.111 -0.0766  0.1439  0.0646
11800DDP     C470800   8.741   2.225   9.811 -0.1654  0.3627  0.1852
11801DDP     C170801  19.584  22.781  19.369 -0.0082 -0.1008 -0.1003
11801DDP     P170802  19.887  22.594  19.157 -0.3535 -0.3348 -0.0871
11801DDP     P270803  19.258  22.434  19.716 -0.3851 -0.0417 -0.2519
11801DDP     C270804  18.915  22.297  20.065 -0.0339 -0.1466 -0.0759
11801DDP     C370805  20.387  22.531  19.093 -0.2356 -0.1956  0.2765
11801DDP     C470806  19.660  23.277  19.445 -0.0605 -0.2625 -0.0135
11802DDP     C170807  15.785   7.632  29.555 -0.0092  0.0650  0.1692
11802DDP     P170808  15.738   7.265  29.872  0.0959 -0.0578 -0.3939
11802DDP     P270809  15.480   7.491  29.271  0.0052 -0.0071 -0.2850
11802DDP     C270810  15.255   7.346  28.965  0.1304  0.2279 -0.3026
11802DDP     C370811  15.352   7.297  30.081  0.0620  0.0619 -0.5261
11802DDP     C470812  16.102   7.686  29.250 -0.2869 -0.1944 -0.1579
11803DDP     C170813   7.267  14.347   9.666  0.3750  0.1731  0.2053
11803DDP     P170814   7.332  14.171   9.224  0.2020 -0.0038 -0.0178
11803DDP     P270815   7.217  14.111   9.952 -0.0951  0.0380 -0.3217
11803DDP     C270816   7.219  14.177  10.436 -0.1152  0.1695  0.1164
11803DDP     C370817   7.083  13.641   9.084  0.0988 -0.2343 -0.1080
11803DDP     C470818   7.512  14.754   9.684  0.3010 -0.0141 -0.1410
11804DDP     C170819  20.893   6.035   8.491  0.0936 -0.1528  0.0993
11804DDP     P170820  20.654   6.079   8.144  0.3151 -0.5618 -0.0190
11804DDP     P270821  21.227   5.972   8.307  0.3938  0.0032  0.2244
11804DDP     C270822  21.688   6.030   8.201  0.0390 -0.2265  0.2415
11804DDP     C370823  20.333   6.424   8.080  0.1264 -0.0498  0.1801
11804DDP     C470824  20.762   6.198   8.919  0.0325 -0.0964  0.1632
11805DDP     C170825   4.823  15.974  21.416 -0.2717 -0.0892 -0.0352
11805DDP     P170826   5.225  15.802  21.656  0.3238  0.2185  0.2101
11805DDP     P270827   4.464  15.856  21.643 -0.0239 -0.0635  0.1052
11805DDP     C270828   4.229  15.880  22.051 -0.3936  0.0728 -0.1517
11805DDP     C370829   5.448  15.849  21.969 -0.2455  0.4902  0.1177
11805DDP     C470830   4.680  16.322  21.181  0.1358  0.1300 -0.3056
11806DDP     C170831  28.154   7.346   5.320  0.0448  0.1305 -0.0713
11806DDP     P170832  27.771   7.096   5.354  0.0399  0.0952  0.2131
11806DDP     P270833  28.552   7.043   5.129 -0.5468 -0.0654 -0.0569
11806DDP     C270834  28.762   6.690   5.346 -0.0443 -0.2998  0.1485
11806DDP     C370835  27.629   6.595   5.549  0.0286  0.1957 -0.0727
11806DDP     C470836  28.309   7.690   5.599 -0.0474 -0.3656 -0.0866
11807DDP     C170837   2.268  18.161   1.208  0.1576  0.0174  0.0224
11807DDP     P170838   2.427  18.161   1.623 -0.1614  0.0607  0.1352
11807DDP     P270839   1.920  17.991   1.143  0.1285  0.1246  0.0923
11807DDP     C270840   1.686  17.638   1.355  0.0990  0.1682 -0.2665
11807DDP     C370841   2.632  18.340   2.037 -0.0087  0.3733  0.2621
11807DDP     C470842   2.441  18.237   0.775 -0.1067 -0.0173  0.0488
11808DDP     C170843  23.416  23.162  14.990  0.1851  0.0045 -0.2104
11808DDP     P170844  22.970  23.268  15.020 -0.0812  0.1388 -0.0659
11808DDP     P270845  23.529  23.434  15.314 -0.1431  0.2721 -0.0335
11808DDP     C270846  23.894  23.286  15.662  0.1605 -0.1028 -0.0056
11808DDP     C370847  22.529  23.081  14.868 -0.0951  0.2492 -0.1310
11808DDP     C470848  23.500  22.884  14.716 -0.0114 -0.3613 -0.3131
11809DDP     C170849   0.753  20.825  27.337 -0.0503  0.2056 -0.0892
11809DDP     P170850   0.814  21.287  27.489  0.0344 -0.2606 -0.0629
11809DDP     P270851   0.703  20.394  27.564  0.0164 -0.1016 -0.0584
11809DDP     C270852   0.907  20.066  27.480 -0.1834  0.2967 -0.0806
11809DDP     C370853   0.623  21.355  27.842 -0.1112 -0.0319 -0.0025
11809DDP     C470854   0.834  20.798  26.819 -0.1376 -0.0657 -0.1906
11810DDP     C170855  14.388  22.343   0.239 -0.0673  0.2102  0.1414
11810DDP     P170856  14.410  22.249   0.640 -0.1882  0.0220  0.0889
11810DDP     P270857  13.896  22.292   0.357  0.0541 -0.1137 -0.0977
11810DDP     C270858  13.727  22.489   0.662 -0.0671 -0.0956 -0.1331
11810DDP     C370859  14.689  22.038   1.019  0.3309  0.2506 -0.1852
11810DDP     C470860  14.733  22.369  30.231  0.2386  0.1698  0.2479
11811DDP     C170861   9.940  19.907  28.649  0.0493  0.0096 -0.2135
11811DDP     P170862   9.458  19.976  28.492 -0.2254 -0.0835  0.2415
11811DDP     P270863  10.014  19.562  28.786  0.3151  0.5047  0.1042
11811DDP     C270864   9.985  19.142  28.617  0.0480  0.2254  0.1449
11811DDP     C370865   8.983  19.886  28.446 -0.2152  0.0606 -0.0171
11811DDP     C470866  10.171  20.324  28.661 -0.0112  0.1431  0.0945
11812DDP     C170867   2.267  24.661  15.718  0.0263  0.0927 -0.1077
11812DDP     P170868   1.778  24.657  15.726 -0.0559  0.2360 -0.0195
11812DDP     P270869   2.507  24.993  15.928  0.3797  0.1809 -0.1172
11812DDP     C270870   2.756  25.334  15.930  0.1938  0.1444 -0.1457
11812DDP     C370871   1.368  24.699  15.613 -0.1290  0.1340  0.2595
11812DDP     C470872   2.480  24.182  15.796  0.1277  0.0150 -0.0606
11813DDP     C170873  22.721   2.320   2.865  0.0736 -0.1253 -0.1058
11813DDP     P170874  23.032   2.372   2.519 -0.1302 -0.0107 -0.1565
11813DDP     P270875  22.571   2.779   3.036 -0.0715  0.6268 -0.2009
11813DDP     C270876  22.238   3.122   3.235 -0.0023  0.3892 -0.3059
11813DDP     C370877  23.443   2.571   2.550  0.1491  0.2728  0.1345
11813DDP     C470878  22.430   1.989   2.739  0.0734  0.1635  0.0906
11814DDP     C170879  20.112  28.195  17.994  0.1879 -0.0650 -0.2804
11814DDP     P170880  20.382  27.953  18.187  0.2313  0.0989  0.0854
11814DDP     P270881  19.659  28.051  17.905 -0.1347  0.1138  0.1840
11814DDP     C270882  19.413  27.826  17.679  0.1499 -0.1807 -0.3090
11814DDP     C370883  20.651  28.093  18.510 -0.1787 -0.0999  0.2079
11814DDP     C470884  20.151  28.570  17.821 -0.2049  0.0177  0.1112
11815DDP     C170885  22.501   8.911   8.610  0.2967 -0.1588  0.0623
11815DDP     P170886  22.429   8.676   9.007 -0.0670  0.0388 -0.1796
11815DDP     P270887  22.228   8.645   8.330 -0.3666  0.0256 -0.2895
11815DDP     C270888  21.977   8.322   8.120 -0.4854 -0.0575 -0.0772
11815DDP     C370889  22.668   8.467   9.272 -0.0997  0.1085 -0.3211
11815DDP     C470890  22.585   9.389   8.578 -0.2061  0.2724 -0.0061
11816DDP     C170891   1.635  23.932   8.887 -0.0368  0.0857  0.2396
11816DDP     P170892   2.066  24.088   8.719  0.0430  0.1733  0.1071
11816DDP     P270893   1.509  23.675   8.527  0.1272  0.2343 -0.0159
11816DDP     C270894   1.116  23.656   8.306  0.0840  0.0623 -0.0358
11816DDP     C370895   2.472  24.166   8.650 -0.1128  0.0186 -0.1133
11816DDP     C470896   1.320  24.130   9.189 -0.1084 -0.1580  0.0913
11817DDP     C170897  10.607  18.494  23.477 -0.0613  0.0812  0.0968
11817DDP     P170898  11.045  18.397  23.459  0.2140  0.1457  0.0589
11817DDP     P270899  10.331  18.120  23.672 -0.0336  0.4005  0.1160
11817DDP     C270900   9.872  17.968  23.676  0.0066  0.0332 -0.1586
11817DDP     C370901  11.522  18.465  23.317 -0.1960  0.0833  0.0855
11817DDP     C470902  10.491  18.830  23.230 -0.0503 -0.1279  0.0321
11818DDP     C170903   8.684   4.088   0.945 -0.0193  0.4118 -0.0204
11818DDP     P170904   8.578   3.642   0.921 -0.2033 -0.0730  0.0119
11818DDP     P270905   8.927   4.325   0.677 -0.2009  0.0953  0.2197
11818DDP     C270906   9.093   4.245   0.209 -0.4493 -0.1025  0.1308
11818DDP     C370907   8.926   3.291   0.881  0.2081  0.1600  0.3604
11818DDP     C470908   8.521   4.340   1.272 -0.1852 -0.2366 -0.1890
11819DDP     C170909  29.799   7.561   8.734  0.3612 -0.2404  0.0296
11819DDP     P170910  29.728   7.939   8.957  0.1931  0.0254  0.0538
11819DDP     P270911  30.142   7.358   9.091  0.1473  0.1162 -0.1416
11819DDP     C270912  -0.039   7.413   9.543 -0.1024  0.1168  0.2212
11819DDP     C370913  29.729   8.009   9.419 -0.0472 -0.3465 -0.5453
11819DDP     C470914  30.000   7.597   8.239 -0.0329  0.1287  0.0722
11820DDP     C170915  17.060   5.557  27.328  0.0510 -0.2802 -0.1669
11820DDP     P170916  17.515   5.418  27.426 -0.0060  0.1102 -0.1385
11820DDP     P270917  16.979   6.001  27.286 -0.0280 -0.3019  0.2488
11820DDP     C270918  16.985   6.203  27.026  0.0201  0.1894 -0.0180
11820DDP     C370919  17.928   5.425  27.242  0.6483  0.0647 -0.2394
11820DDP     C470920  16.645   5.385  27.342  0.0610 -0.1279  0.0548
11821DDP     C170921   2.158   8.784  19.141  0.1184  0.2068  0.2018
11821DDP     P170922   1.740   8.705  19.155 -0.2231 -0.2476  0.0815
11821DDP     P270923   2.512   8.790  18.975  0.0816 -0.4801  0.0341
11821DDP     C270924   2.926   8.770  18.874 -0.0142  0.3459 -0.0761
11821DDP     C370925   1.443   8.309  19.298 -0.3920 -0.1266  0.0486
11821DDP     C470926   1.995   9.088  19.298  0.1195  0.1610  0.1720
11822DDP     C170927  17.137   5.404  29.643 -0.0953  0.2259 -0.1428
11822DDP     P170928  17.107   5.771  29.267  0.1149  0.1848  0.0712
11822DDP     P270929  17.429   5.103  29.671 -0.0469  0.3075 -0.0555
11822DDP     C270930  17.810   4.815  29.860  0.2788 -0.2591 -0.0396
11822DDP     C370931  17.062   5.988  28.828 -0.1969  0.0652 -0.1376
11822DDP     C470932  16.754   5.123  29.639 -0.2654  0.0579  0.1929
11823DDP     C170933   0.968  16.531   2.940  0.1585 -0.5526 -0.2105
11823DDP     P170934   1.031  16.589   2.419  0.0076  0.1698  0.2900
11823DDP     P270935   0.784  16.165   3.132  0.0137 -0.0664 -0.3711
11823DDP     C270936   0.690  15.797   3.329  0.0497  0.1964  0.0013
11823DDP     C370937   0.917  16.328   2.111  0.2331  0.2056  0.3590
11823DDP     C470938   1.036  16.821   3.383  0.0669 -0.2041  0.1031
11824DDP     C170939   5.351   7.760  18.054 -0.0494 -0.3755  0.0005
11824DDP     P170940   5.188   7.449  17.752 -0.2797 -0.0460 -0.4053
11824DDP     P270941   5.570   7.766  18.554  0.1797 -0.0227  0.0285
11824DDP     C270942   5.723   7.666  18.944  0.0009 -0.0420  0.3715
11824DDP     C370943   5.443   7.108  17.490  0.0884 -0.0255 -0.0036
11824DDP     C470944   5.172   8.187  18.104  0.1603  0.0218 -0.3865
11825DDP     C170945  24.408   4.727   9.636 -0.2715 -0.4691  0.0466
11825DDP     P170946  24.529   4.791  10.054  0.0982 -0.0473 -0.0999
11825DDP     P270947  23.992   4.813   9.427  0.0239 -0.1186 -0.1158
11825DDP     C270948  23.724   5.083   9.160 -0.1655  0.1258  0.1822
11825DDP     C370949  24.483   5.104  10.384 -0.1651 -0.0081 -0.2383
11825DDP     C470950  24.729   4.792   9.331 -0.2705  0.0547 -0.1447
11826DDP     C170951  27.868  20.599  12.298 -0.0814  0.2497 -0.2611
11826DDP     P170952  27.765  21.028  12.111  0.0641  0.1346 -0.0280
11826DDP     P270953  27.883  20.424  12.679 -0.0064  0.1967 -0.0526
11826DDP     C270954  27.776  20.151  13.080  0.1224  0.0912 -0.1926
11826DDP     C370955  27.462  21.344  11.917 -0.0288 -0.3946 -0.1805
11826DDP     C470956  28.040  20.391  11.993 -0.0825  0.0319 -0.1189
11827DDP     C170957  18.314   5.184   9.630 -0.0581 -0.0878  0.3068
11827DDP     P170958  18.380   5.201   9.225  0.0665  0.0574 -0.1466
11827DDP     P270959  18.473   5.444   9.715 -0.1465  0.0315  0.1941
11827DDP     C270960  18.653   5.661   9.939  0.0384 -0.1195 -0.1110
11827DDP     C370961  18.594   5.226   8.926  0.0218 -0.0718 -0.2664
11827DDP     C470962  18.003   4.856   9.665  0.1559 -0.0936 -0.1318
11828DDP     C170963  11.848   5.964  12.020 -0.3099 -0.0880 -0.3916
11828DDP     P170964  11.648   6.187  11.651 -0.1183  0.3958  0.0795
11828DDP     P270965  12.120   6.225  12.384 -0.1548  0.2029 -0.0216
11828DDP     C270966  12.350   6.360  12.727 -0.1138  0.1108 -0.0928
11828DDP     C370967  11.368   6.597  11.683 -0.0098  0.4658 -0.0410
11828DDP     C470968  11.644   5.555  12.074  0.0086  0.0499  0.3373
11829DDP     C170969  16.578  24.290  13.553  0.1595 -0.0185 -0.0010
11829DDP     P170970  16.321  24.308  13.212  0.2688 -0.0239  0.0678
11829DDP     P270971  16.471  24.477  13.939  0.0242 -0.0288  0.0203
11829DDP     C270972  16.473  24.848  14.183 -0.2119  0.3143 -0.4392
11829DDP     C370973  15.894  24.359  13.186 -0.2248  0.1247 -0.2124
11829DDP     C470974  16.833  23.928  13.543  0.1805 -0.1400  0.0575
11830DDP     C170975  15.256   7.819  25.058  0.0048 -0.1370 -0.0699
11830DDP     P170976  14.986   7.580  24.746  0.4146  0.0631 -0.3079
11830DDP     P270977  15.657   7.701  24.841 -0.0940 -0.0556 -0.2446
11830DDP     C270978  15.931   7.888  24.576 -0.0645 -0.2254  0.0230
11830DDP     C370979  14.768   7.273  24.803 -0.0582 -0.1271  0.3491
11830DDP     C470980  15.316   8.174  25.362 -0.1797  0.1468 -0.2265
11831DDP     C170981  14.016  20.138  26.225 -0.0518  0.0584 -0.0040
11831DDP     P170982  14.350  19.998  26.335 -0.0772  0.0507  0.1558
11831DDP     P270983  13.637  20.291  26.371 -0.1172 -0.0683  0.4583
11831DDP     C270984  13.287  20.344  26.638  0.1468 -0.0781  0.0487
11831DDP     C370985  14.478  20.029  26.788  0.1533  0.1952  0.0846
11831DDP     C470986  13.826  19.833  26.054 -0.1508 -0.0243  0.0781
11832DDP     C170987  13.140  24.753  24.806 -0.3174 -0.2576  0.1719
11832DDP     P170988  12.807  24.448  25.035 -0.4958 -0.0413 -0.2367
11832DDP     P270989  13.568  24.620  24.583 -0.2853 -0.1996  0.3556
11832DDP     C270990  13.946  24.476  24.512 -0.1196 -0.0290 -0.0587
11832DDP     C370991  12.605  24.074  25.108 -0.2525 -0.0363  0.3174
11832DDP     C470992  12.965  25.241  24.633  0.1746 -0.0681  0.0904
11833DDP     C170993   8.087  25.300   6.434 -0.1087 -0.2132  0.0068
11833DDP     P170994   8.249  25.508   6.803 -0.1131 -0.4083  0.1581
11833DDP     P270995   7.690  25.158   6.493 -0.0688 -0.0100 -0.1545
11833DDP     C270996   7.294  24.850   6.478  0.1166  0.0040 -0.0795
11833DDP     C370997   8.678  25.673   6.952  0.0446  0.1811  0.2463
11833DDP     C470998   8.455  25.537   6.290 -0.3695 -0.3687 -0.0726
11834DDP     C170999  23.985   8.688  14.310 -0.1460  0.0688 -0.2837
11834DDP     P171000  24.153   8.338  14.580  0.1819 -0.1887  0.0826
11834DDP     P271001  24.068   8.644  13.811  0.0377 -0.1288  0.2811
11834DDP     C271002  24.359   8.846  13.454  0.0090  0.1532  0.2835
11834DDP     C371003  24.175   7.868  14.825 -0.1869  0.0797 -0.0781
11834DDP     C471004  23.637   8.946  14.554 -0.1835 -0.0104  0.1087
11835DDP     C171005   2.068  16.339  13.480  0.2077  0.0132  0.1974
11835DDP     P171006   1.676  16.512  13.553 -0.1719 -0.0492  0.1835
11835DDP     P271007   2.316  16.139  13.733 -0.0033 -0.0270  0.1170
11835DDP     C271008   2.665  15.867  13.703 -0.0522 -0.1219  0.0180
11835DDP     C371009   1.338  16.397  13.867 -0.0680  0.1507 -0.0500
11835DDP     C471010   2.181  16.381  12.966 -0.0168  0.2620 -0.0858
11836DDP     C171011  15.903  12.782   8.169  0.0186  0.1763  0.1454
11836DDP     P171012  15.758  13.107   7.887  0.0324  0.1840  0.2906
11836DDP     P271013  15.926  12.589   8.565 -0.1467 -0.2257  0.2261
11836DDP     C271014  15.878  12.838   8.889 -0.0808 -0.2484  0.1495
11836DDP     C371015  16.086  13.346   7.576 -0.2230  0.2127 -0.0177
11836DDP     C471016  16.104  12.385   7.969  0.0131 -0.1290  0.1082
11837DDP     C171017  13.015  24.281  29.205  0.1001 -0.4120  0.1841
11837DDP     P171018  12.719  24.256  28.849 -0.3052  0.1601 -0.0988
11837DDP     P271019  13.234  23.944  29.507 -0.0183  0.1178 -0.2659
11837DDP     C271020  13.241  24.002  29.865 -0.0737  0.1156  0.4642
11837DDP     C371021  12.305  24.440  28.683 -0.3801  0.0536 -0.1482
11837DDP     C471022  12.905  24.751  29.365  0.3662 -0.0409  0.0440
11838DDP     C171023  25.569   7.106  12.386  0.0930 -0.1414 -0.0990
11838DDP     P171024  25.196   6.906  12.497 -0.0030 -0.2110  0.0004
11838DDP     P271025  25.787   6.934  12.109 -0.1449 -0.2420  0.0693
11838DDP     C271026  26.194   7.154  11.864 -0.2152  0.1350  0.0265
11838DDP     C371027  24.881   6.958  12.836 -0.3165  0.0377 -0.0347
11838DDP     C471028  25.599   7.522  12.426  0.2754 -0.0368 -0.1738
11839DDP     C171029  18.516   5.776  30.145  0.0652 -0.1437 -0.3050
11839DDP     P171030  18.739   6.004   0.051  0.0931  0.0418 -0.0382
11839DDP     P271031  18.373   5.460   0.111  0.1326  0.0758  0.0504
11839DDP     C271032  18.452   5.188   0.436 -0.3429  0.0250  0.0746
11839DDP     C371033  18.771   6.290   0.292  0.1076 -0.4030 -0.1163
11839DDP     C471034  18.378   5.970  29.805 -0.2961 -0.1569  0.2434
11840DDP     C171035  15.460   5.785   3.825 -0.2035 -0.1834 -0.0733
11840DDP     P171036  15.511   6.267   3.597 -0.0306  0.1050  0.2877
11840DDP     P271037  15.725   5.717   4.193  0.0989  0.1916  0.0127
11840DDP     C271038  15.643   5.705   4.653  0.2268  0.4193  0.0715
11840DDP     C371039  15.756   6.266   3.248  0.2684  0.1089 -0.2110
11840DDP     C471040  14.989   5.628   3.761  0.1240 -0.0069 -0.0788
11841DDP     C171041  17.857   3.228  25.480  0.1574  0.0652  0.0536
11841DDP     P171042  17.557   3.427  25.179  0.0489  0.2701 -0.0453
11841DDP     P271043  18.264   3.223  25.361  0.0345 -0.0822  0.1229
11841DDP     C271044  18.449   3.048  24.988 -0.2283  0.1707 -0.2742
11841DDP     C371045  17.141   3.469  25.151 -0.1734 -0.0318 -0.1020
11841DDP     C471046  17.679   3.280  25.899  0.2089  0.0914 -0.0848
11842DDP     C171047   7.201  17.589  18.353  0.0050 -0.0128 -0.1698
11842DDP     P171048   7.039  17.464  17.998 -0.2619  0.1365 -0.1987
11842DDP     P271049   7.604  17.561  18.318  0.1308  0.1036 -0.1524
11842DDP     C271050   7.927  17.746  18.124  0.3643  0.0443  0.2119
11842DDP     C371051   7.183  17.077  17.739  0.0988  0.2537  0.2552
11842DDP     C471052   7.033  17.727  18.782 -0.3381  0.0743 -0.2294
11843DDP     C171053   9.131   6.093  25.257  0.1976 -0.0303 -0.1872
11843DDP     P171054   9.227   6.206  24.932 -0.2865 -0.0041 -0.2403
11843DDP     P271055   8.847   6.383  25.625  0.1153 -0.1745  0.2452
11843DDP     C271056   8.810   6.767  25.767  0.2370  0.0824  0.1610
11843DDP     C371057   9.090   5.891  24.448 -0.1071  0.0767  0.0910
11843DDP     C471058   9.114   5.655  25.331 -0.1141  0.2855 -0.0727
11844DDP     C171059   3.572  18.797  27.777 -0.0264  0.0367  0.0686
11844DDP     P171060   3.652  19.217  27.818 -0.1885 -0.0415  0.0894
11844DDP     P271061   3.629  18.546  27.359 -0.0290 -0.0858  0.0203
11844DDP     C271062   3.399  18.125  27.219  0.1068 -0.1815  0.1764
11844DDP     C371063   3.579  19.710  28.040 -0.4077 -0.1394 -0.0901
11844DDP     C471064   3.140  18.578  28.053  0.0856  0.2809 -0.0827
11845DDP     C171065   3.261   7.942  25.155 -0.0935 -0.0128  0.0697
11845DDP     P171066   3.095   7.606  25.462 -0.1908 -0.3125 -0.0845
11845DDP     P271067   3.248   8.339  25.243  0.0514 -0.1393  0.1448
11845DDP     C271068   3.246   8.779  25.286 -0.2375 -0.0208  0.1722
11845DDP     C371069   3.243   7.414  25.700 -0.2309 -0.1288  0.0085
11845DDP     C471070   3.353   7.687  24.700 -0.1558  0.4591  0.0151
11846DDP     C171071  16.099  27.458  12.191 -0.0636  0.0875 -0.0851
11846DDP     P171072  16.485  27.694  12.048  0.0661  0.1237  0.1776
11846DDP     P271073  15.791  27.393  11.886  0.2212  0.2696 -0.3296
11846DDP     C271074  15.537  27.125  11.691  0.1157  0.1242 -0.0591
11846DDP     C371075  16.907  27.898  12.353  0.0376  0.0018  0.1367
11846DDP     C471076  16.335  27.103  12.484  0.0349 -0.2168 -0.1545
11847DDP     C171077   0.809  29.152   3.248  0.1459  0.1039  0.0060
11847DDP     P171078   1.001  29.233   2.967 -0.0718  0.1245  0.1119
11847DDP     P271079   0.823  29.578   3.459 -0.2525  0.2150  0.2682
11847DDP     C271080   1.152  30.022   3.582 -0.0032  0.1376  0.0689
11847DDP     C371081   1.314  29.375   2.669  0.1434 -0.0003 -0.3820
11847DDP     C471082   0.750  28.785   3.147 -0.0947 -0.0446 -0.0587
11848DDP     C171083  17.268  23.072   5.824  0.0749 -0.1946 -0.1299
11848DDP     P171084  17.195  23.236   6.321  0.0058 -0.2766 -0.0644
11848DDP     P271085  17.579  22.923   5.730  0.0475 -0.0384  0.1916
11848DDP     C271086  17.985  22.795   5.739  0.0270  0.0961  0.3102
11848DDP     C371087  17.258  23.316   6.730  0.0339 -0.0114  0.0534
11848DDP     C471088  16.916  23.127   5.621  0.0161  0.0019  0.3187
11849DDP     C171089  14.874  11.926  10.490  0.0710 -0.0950 -0.1113
11849DDP     P171090  14.817  12.119  10.894  0.2545  0.0330  0.0430
11849DDP     P271091  14.455  11.855  10.280 -0.0981 -0.0351 -0.1171
11849DDP     C271092  14.110  12.079  10.203 -0.0190 -0.0402 -0.0282
11849DDP     C371093  14.987  12.233  11.285  0.0937  0.0587  0.0888
11849DDP     C471094  15.200  11.681  10.395 -0.0912 -0.0932 -0.2526
11850DDP     C171095   1.644  21.651  19.365 -0.0780  0.0573 -0.1759
11850DDP     P171096   1.944  21.783  18.949  0.0008  0.0487 -0.0934
11850DDP     P271097   1.624  21.154  19.480 -0.2088  0.2667  0.1749
11850DDP     C271098   1.920  20.876  19.649  0.1137 -0.0133 -0.2880
11850DDP     C371099   2.157  21.990  18.662 -0.2469 -0.0894 -0.4259
11850DDP     C471100   1.186  21.822  19.350  0.1101  0.1366 -0.1372
11851DDP     C171101  11.359  14.421  28.976  0.0090 -0.1000 -0.2420
11851DDP     P171102  11.580  14.776  28.765 -0.0508 -0.0828  0.2912
11851DDP     P271103  11.533  14.070  28.980 -0.1468  0.3629  0.0727
11851DDP     C271104  11.496  13.700  28.965 -0.0085  0.2593 -0.2074
11851DDP     C371105  11.762  15.095  28.852 -0.0820  0.0210 -0.1414
11851DDP     C471106  10.928  14.381  29.204  0.2298  0.1117 -0.1202
11852DDP     C171107  13.826  24.000   6.180  0.0145 -0.0122  0.0193
11852DDP     P171108  13.921  23.701   6.472 -0.2208  0.2242  0.1764
11852DDP     P271109  13.356  24.032   6.135  0.0857 -0.3396  0.0592
11852DDP     C271110  13.116  23.994   5.833 -0.0432  0.0639 -0.0673
11852DDP     C371111  13.845  23.317   6.387 -0.0780  0.0770 -0.0002
11852DDP     C471112  14.111  24.136   5.985 -0.1244  0.2285  0.2610
11853DDP     C171113  20.522  29.824  19.278 -0.4180 -0.0750  0.1519
11853DDP     P171114  20.310  30.085  19.541  0.2564 -0.1535 -0.0376
11853DDP     P271115  20.796  29.512  19.601 -0.0519  0.1463  0.0565
11853DDP     C271116  21.042  29.144  19.646  0.1112  0.1681 -0.0455
11853DDP     C371117  19.931   0.063  19.540 -0.2738 -0.2064 -0.4676
11853DDP     C471118  20.556  30.016  18.865  0.3182 -0.0157 -0.2795
11854DDP     C171119  29.597  14.537   6.787  0.1005  0.0140  0.2854
11854DDP     P171120  29.742  14.407   6.462  0.0054  0.1192  0.1432
11854DDP     P271121  29.903  14.678   7.135  0.1878 -0.2149 -0.1191
11854DDP     C271122  29.954  14.830   7.573  0.1666  0.1610  0.1652
11854DDP     C371123  29.711  14.502   6.020  0.5519 -0.1859  0.1601
11854DDP     C471124  29.198  14.488   6.775  0.2079  0.1512  0.1559
11855DDP     C171125  15.410  21.941  27.771 -0.2454  0.0331 -0.0215
11855DDP     P171126  14.977  21.969  27.652  0.0395  0.0398 -0.1142
11855DDP     P271127  15.578  21.982  28.263  0.0164 -0.0323 -0.1693
11855DDP     C271128  15.910  22.063  28.365 -0.1063  0.0739 -0.0786
11855DDP     C371129  14.509  21.898  27.646 -0.0678  0.2828  0.2370
11855DDP     C471130  15.741  22.061  27.392 -0.1605 -0.1680  0.1038
11856DDP     C171131   4.606  10.718  17.863 -0.1599 -0.0884  0.2437
11856DDP     P171132   4.354  10.972  17.643 -0.2384  0.2959  0.0874
11856DDP     P271133   4.973  10.624  17.780 -0.2531  0.2395  0.3234
11856DDP     C271134   5.341  10.559  17.808 -0.2477 -0.1128  0.4377
11856DDP     C371135   4.117  11.318  17.433  0.2070 -0.0613 -0.1259
11856DDP     C471136   4.448  10.456  18.295 -0.1652  0.1464  0.1276
11857DDP     C171137   3.141   1.727  19.590 -0.0465 -0.3577 -0.0249
11857DDP     P171138   2.886   1.669  20.030  0.1328 -0.1484 -0.0655
11857DDP     P271139   3.491   1.573  19.666  0.1696 -0.1544 -0.4587
11857DDP     C271140   3.846   1.323  19.912 -0.0859  0.3218 -0.3570
11857DDP     C371141   2.645   1.596  20.425  0.2978  0.3523 -0.1667
11857DDP     C471142   2.931   1.963  19.262  0.2482  0.0720 -0.0054
11858DDP     C171143   0.714  12.674  29.963  0.0765  0.1638 -0.0065
11858DDP     P171144   0.666  12.787   0.042 -0.0521 -0.0900 -0.0032
11858DDP     P271145   1.129  12.709  29.899  0.2161  0.0410 -0.0689
11858DDP     C271146   1.473  12.920  29.905  0.2243 -0.0630 -0.1445
11858DDP     C371147   0.730  12.944   0.431 -0.0791  0.2439 -0.0895
11858DDP     C471148   0.402  12.328  29.803 -0.0695 -0.0234 -0.3138
11859DDP     C171149  23.248  28.334   1.741  0.0151 -0.4478 -0.1553
11859DDP     P171150  23.160  28.087   1.454 -0.0884 -0.0250 -0.2246
11859DDP     P271151  22.918  28.199   2.073  0.0682 -0.3142 -0.0723
11859DDP     C271152  22.646  28.284   2.406 -0.4968 -0.4137  0.0191
11859DDP     C371153  23.236  27.760   1.170  0.1619  0.0017 -0.1170
11859DDP     C471154  23.521  28.718   1.690  0.0604  0.0339  0.3306
11860DDP     C171155  24.364  21.772  20.253 -0.3109  0.0356  0.0408
11860DDP     P171156  24.463  21.754  20.707  0.0979 -0.2275  0.1329
11860DDP     P271157  24.291  21.393  19.966  0.1844 -0.1903  0.0483
11860DDP     C271158  24.187  20.964  19.819  0.2635  0.0995 -0.2579
11860DDP     C371159  24.833  21.879  20.836  0.2833  0.2555 -0.0361
11860DDP     C471160  24.202  22.174  20.065  0.2744  0.0338 -0.0372
11861DDP     C171161   9.648  19.688  20.414 -0.1270  0.1092  0.0715
11861DDP     P171162   9.156  19.788  20.426  0.1254  0.0040 -0.3216
11861DDP     P271163   9.761  19.463  20.111  0.0845 -0.4028  0.0317
11861DDP     C271164   9.787  19.112  19.878 -0.0752 -0.1727  0.2859
11861DDP     C371165   8.721  19.771  20.414 -0.3153 -0.2180  0.1728
11861DDP     C471166   9.931  20.087  20.473  0.0520  0.0677 -0.0159
11862DDP     C171167   0.089  27.346  25.689 -0.2914  0.0485  0.1501
11862DDP     P171168  -0.034  26.977  25.789 -0.2165  0.2886 -0.0580
11862DDP     P271169   0.155  27.566  25.331 -0.0121  0.0033 -0.0738
11862DDP     C271170   0.179  27.989  25.116  0.0437 -0.1540  0.0070
11862DDP     C371171   0.036  26.539  25.618 -0.2065  0.2951  0.4397
11862DDP     C471172   0.257  27.376  26.154 -0.3953 -0.0860  0.3247
11863DDP     C171173  20.980  25.750  11.197 -0.0221 -0.4412  0.0526
11863DDP     P171174  21.040  25.501  11.377  0.1190  0.2851  0.2399
11863DDP     P271175  21.347  25.977  11.145  0.0894  0.0176  0.2852
11863DDP     C271176  21.612  26.299  11.209  0.3070  0.2198 -0.0955
11863DDP     C371177  21.042  25.096  11.193 -0.2341  0.0911 -0.0186
11863DDP     C471178  20.582  25.720  11.008  0.0526  0.0177  0.0290
11864DDP     C171179  16.562  23.003  23.935 -0.1809  0.1511 -0.2883
11864DDP     P171180  16.953  22.863  24.061 -0.6641  0.2386 -0.0195
11864DDP     P271181  16.476  23.001  23.518 -0.2407  0.1444 -0.1531
11864DDP     C271182  16.645  23.338  23.289 -0.0317  0.1310  0.0212
11864DDP     C371183  17.116  22.471  24.159 -0.1726 -0.0348 -0.3368
11864DDP     C471184  16.172  23.275  24.049  0.0159 -0.0458  0.1123
11865DDP     C171185   8.115   9.903  17.026 -0.1972 -0.1898  0.0889
11865DDP     P171186   8.239  10.273  17.397  0.1199  0.0304  0.0231
11865DDP     P271187   8.467   9.730  16.913 -0.0170 -0.1559 -0.1181
11865DDP     C271188   8.678   9.380  16.592  0.1294 -0.1783 -0.2459
11865DDP     C371189   8.172  10.551  17.664 -0.1344  0.2190  0.2480
11865DDP     C471190   7.755   9.685  16.830  0.1593  0.1091  0.1641
11866DDP     C171191  15.778  14.042  21.233 -0.3227  0.1284 -0.2728
11866DDP     P171192  15.202  14.017  21.084 -0.2100  0.3249 -0.0844
11866DDP     P271193  15.838  13.680  21.414 -0.0502 -0.1038  0.2003
11866DDP     C271194  15.617  13.320  21.368  0.1046  0.2365 -0.0522
11866DDP     C371195  15.000  14.082  20.715  0.0177  0.0069 -0.0215
11866DDP     C471196  16.094  14.266  21.010 -0.0628  0.2002  0.0773
11867DDP     C171197   9.344   1.560  17.513 -0.3885  0.0155 -0.4410
11867DDP     P171198   9.048   1.274  17.197  0.1311  0.1167  0.0461
11867DDP     P271199   9.131   1.857  17.836  0.3365 -0.2629 -0.0188
11867DDP     C271200   8.841   2.173  17.845  0.1547  0.0215 -0.2303
11867DDP     C371201   8.793   1.310  16.790 -0.2508 -0.0592 -0.2559
11867DDP     C471202   9.762   1.284  17.656  0.0889  0.4118  0.1457
11868DDP     C171203   7.390   4.388  17.169 -0.1947 -0.1316  0.1222
11868DDP     P171204   7.315   4.306  16.750  0.0776  0.0285  0.0959
11868DDP     P271205   7.148   4.107  17.378 -0.1169 -0.0835 -0.0104
11868DDP     C271206   6.756   3.966  17.201  0.0561  0.0211 -0.1354
11868DDP     C371207   7.410   4.013  16.342 -0.4079  0.3308  0.2843
11868DDP     C471208   7.815   4.705  17.122  0.0681  0.0930  0.0546
11869DDP     C171209   4.753   6.047  22.768 -0.0226  0.0306  0.2219
11869DDP     P171210   5.108   5.841  22.905 -0.0204 -0.5693 -0.0243
11869DDP     P271211   4.622   5.890  22.350  0.1743 -0.2718 -0.3376
11869DDP     C271212   4.563   5.499  22.056 -0.0364  0.0518 -0.0517
11869DDP     C371213   5.484   5.624  22.857 -0.0753  0.0308 -0.2625
11869DDP     C471214   4.496   6.110  23.005  0.1525  0.0058  0.2107
11870DDP     C171215  30.241  17.573   1.852  0.0114 -0.0988  0.0900
11870DDP     P171216  30.014  17.413   2.144 -0.0714  0.1554 -0.2352
11870DDP     P271217   0.062  17.887   1.991  0.3753 -0.3229  0.1967
11870DDP     C271218   0.367  18.255   1.998 -0.1345  0.0671  0.2939
11870DDP     C371219  29.674  17.189   2.113 -0.0731 -0.1898 -0.1994
11870DDP     C471220  30.177  17.265   1.566  0.2929 -0.2444 -0.0046
11871DDP     C171221   8.310  12.684  12.467 -0.1151 -0.2284  0.0913
11871DDP     P171222   8.654  13.025  12.752 -0.0672  0.2670  0.2812
11871DDP     P271223   7.889  12.617  12.375 -0.0486  0.3150 -0.2038
11871DDP     C271224   7.551  12.458  12.215 -0.2721  0.0786 -0.2588
11871DDP     C371225   9.075  13.088  12.729  0.0138 -0.0008 -0.1672
11871DDP     C471226   8.514  12.351  12.397 -0.0490 -0.1984 -0.0685
11872DDP     C171227  16.414   8.538   2.233 -0.2120  0.1390 -0.1607
11872DDP     P171228  16.746   8.443   1.910 -0.0866 -0.2004  0.4610
11872DDP     P271229  16.469   8.407   2.635 -0.2748 -0.1250  0.1944
11872DDP     C271230  16.371   8.203   3.033 -0.0239 -0.0854 -0.0172
11872DDP     C371231  16.682   8.116   1.723 -0.3885 -0.0892 -0.0084
11872DDP     C471232  16.150   8.795   2.015  0.0175 -0.0539 -0.0173
11873DDP     C171233  19.922  30.224  10.315 -0.0069 -0.2722  0.2233
11873DDP     P171234  19.933  29.946  10.004  0.0426 -0.2373  0.1109
11873DDP     P271235  19.490  30.116  10.383 -0.4236 -0.0524  0.0000
11873DDP     C271236  19.136   0.215  10.368 -0.3027 -0.0802 -0.1538
11873DDP     C371237  20.065  29.555   9.938 -0.1994  0.0181  0.2324
11873DDP     C471238  20.017   0.226  10.561 -0.3720 -0.1346  0.0765
11874DDP     C171239  11.800  11.541   8.838  0.1805 -0.2141 -0.0067
11874DDP     P171240  11.364  11.554   9.074  0.0271  0.0789  0.0357
11874DDP     P271241  12.139  11.648   9.132 -0.0004 -0.1300  0.1859
11874DDP     C271242  12.362  12.042   9.290 -0.1857 -0.0643 -0.0531
11874DDP     C371243  11.250  11.292   9.351 -0.2150  0.1803 -0.3506
11874DDP     C471244  12.244  11.254   8.743  0.0017  0.1221 -0.1477
11875DDP     C171245  21.142  13.502  25.777  0.0922  0.0816 -0.2285
11875DDP     P171246  21.363  13.700  26.026  0.0594  0.0659  0.1533
11875DDP     P271247  20.742  13.536  25.542 -0.2154  0.2645  0.0611
11875DDP     C271248  20.414  13.682  25.413 -0.0898  0.3954 -0.0278
11875DDP     C371249  21.428  13.718  26.464 -0.0110 -0.0783  0.0122
11875DDP     C471250  21.213  13.057  25.877 -0.0495  0.1853 -0.2655
11876DDP     C171251  19.991  23.915   5.561  0.1261 -0.0358 -0.0201
11876DDP     P171252  19.516  23.683   5.709  0.2772  0.1578  0.0727
11876DDP     P271253  20.214  24.161   5.770 -0.2708  0.2107 -0.1326
11876DDP     C271254  20.514  24.428   5.830  0.0211  0.2961  0.0143
11876DDP     C371255  19.032  23.831   5.762 -0.1153 -0.0603 -0.0390
11876DDP     C471256  20.226  23.853   5.176 -0.1858  0.0286  0.1003
11877DDP     C171257  26.851   1.051  17.891 -0.0654 -0.1375 -0.4748
11877DDP     P171258  27.038   1.447  18.045  0.3685 -0.0050  0.0875
11877DDP     P271259  26.540   1.030  18.220 -0.2330 -0.4499  0.0566
11877DDP     C271260  26.091   1.223  18.291 -0.1877  0.0453  0.0504
11877DDP     C371261  26.810   1.739  18.310  0.2444 -0.2592  0.0516
11877DDP     C471262  26.963   1.040  17.550  0.4077  0.0837 -0.0271
11878DDP     C171263  26.669   0.507  13.934 -0.1970 -0.0982 -0.1134
11878DDP     P171264  26.873   0.901  14.000 -0.0767  0.2572 -0.0708
11878DDP     P271265  27.006   0.438  14.242 -0.0292 -0.0982  0.0017
11878DDP     C271266  27.080   0.385  14.605  0.2372 -0.1375  0.0369
11878DDP     C371267  27.290   0.884  14.011 -0.1361  0.0726 -0.0001
11878DDP     C471268  26.427   0.211  13.629  0.2562 -0.1938 -0.1987
11879DDP     C171269   6.899  11.770  14.657 -0.0328 -0.0812  0.5138
11879DDP     P171270   7.255  11.762  14.398 -0.0538  0.1462  0.4031
11879DDP     P271271   6.768  11.407  14.862  0.0087 -0.1163  0.1251
11879DDP     C271272   6.699  11.120  15.201 -0.0956 -0.0512  0.2277
11879DDP     C371273   7.688  11.934  14.341 -0.1523  0.2198 -0.2024
11879DDP     C471274   6.496  11.851  14.562 -0.1395  0.0581  0.0703
11880DDP     C171275  27.285   3.385   1.921 -0.0513 -0.1258  0.1988
11880DDP     P171276  26.902   3.582   1.932 -0.0814 -0.2943 -0.2189
11880DDP     P271277  27.278   3.005   2.109  0.0855  0.2747 -0.2154
11880DDP     C271278  27.330   2.679   2.337 -0.1991  0.1529  0.1193
11880DDP     C371279  26.650   3.541   1.589 -0.0595  0.0027  0.2015
11880DDP     C471280  27.676   3.613   1.693 -0.1504 -0.0157  0.0907
11881DDP     C171281  22.716  25.908  19.360 -0.1111 -0.3475 -0.0047
11881DDP     P171282  22.858  25.696  19.894  0.0808  0.2484 -0.0028
11881DDP     P271283  23.093  25.960  19.112 -0.2557 -0.1764 -0.0397
11881DDP     C271284  23.512  25.964  18.849 -0.2042 -0.0075 -0.0177
11881DDP     C371285  22.973  25.226  19.857  0.0000  0.1144  0.0626
11881DDP     C471286  22.356  25.710  19.129  0.2971  0.0391  0.2641
11882DDP     C171287  23.247  15.459  12.046 -0.2640  0.0574 -0.2930
11882DDP     P171288  23.611  15.545  12.171  0.0245 -0.0785 -0.4400
11882DDP     P271289  23.166  15.069  12.181  0.0345  0.1153 -0.3806
11882DDP     C271290  23.529  14.829  12.090  0.1715  0.2666 -0.0868
11882DDP     C371291  23.657  15.947  12.519  0.2240  0.1272 -0.1557
11882DDP     C471292  22.967  15.750  11.773  0.0860  0.2021  0.1735
11883DDP     C171293  24.775   3.857   2.842  0.2874  0.3684  0.2388
11883DDP     P171294  24.578   4.226   2.843 -0.0851 -0.2766  0.0855
11883DDP     P271295  24.832   3.639   2.419 -0.0772 -0.1149  0.2004
11883DDP     C271296  25.179   3.627   2.136  0.1364 -0.0521  0.1280
11883DDP     C371297  24.149   4.567   2.951 -0.0562 -0.1912 -0.1198
11883DDP     C471298  25.191   3.686   2.996  0.0598 -0.0517 -0.1068
11884DDP     C171299   6.724  10.380   9.254 -0.2551 -0.0080 -0.1229
11884DDP     P171300   6.257  10.397   9.313 -0.0422 -0.0556  0.0903
11884DDP     P271301   6.827  10.638   9.047 -0.0225  0.0646  0.1282
11884DDP     C271302   6.984  10.925   8.763 -0.1872  0.1452 -0.2217
11884DDP     C371303   5.876  10.395   9.255 -0.2199 -0.0604  0.1113
11884DDP     C471304   7.012  10.024   9.288 -0.0124 -0.1385  0.2879
11885DDP     C171305  14.114  27.578  15.161 -0.0990 -0.0115 -0.1951
11885DDP     P171306  14.372  27.290  15.237 -0.1789 -0.1298 -0.0023
11885DDP     P271307  14.329  27.814  14.819  0.2102 -0.1513  0.1748
11885DDP     C271308  14.584  27.802  14.364  0.2899  0.0426 -0.0537
11885DDP     C371309  14.675  27.225  15.586  0.2230 -0.0172  0.0459
11885DDP     C471310  13.817  27.697  15.468 -0.1301 -0.3827 -0.1129
11886DDP     C171311   6.047   2.671  12.329 -0.3786 -0.0282 -0.1681
11886DDP     P171312   5.896   2.275  12.461 -0.2983 -0.0205 -0.0343
11886DDP     P271313   6.446   2.601  12.224  0.0759  0.2505  0.2879
11886DDP     C271314   6.902   2.702  12.052 -0.1679 -0.0056  0.0245
11886DDP     C371315   5.696   2.053  12.769 -0.1355 -0.1273  0.1281
11886DDP     C471316   5.686   3.084  12.387 -0.2011  0.3372  0.0198
11887DDP     C171317  23.527   5.411  26.477 -0.0811 -0.1280  0.2300
11887DDP     P171318  23.105   5.594  26.648 -0.2839 -0.0341 -0.2706
11887DDP     P271319  23.621   5.209  26.136 -0.2831 -0.3112  0.0015
11887DDP     C271320  23.545   5.020  25.782 -0.0580  0.0466  0.0540
11887DDP     C371321  22.724   5.519  27.017 -0.3464  0.0316  0.0199
11887DDP     C471322  23.843   5.612  26.700 -0.3261  0.2318 -0.1434
11888DDP     C171323  20.667  24.284  21.780  0.0441 -0.2031 -0.0472
11888DDP     P171324  20.591  24.429  22.111 -0.2630 -0.2160 -0.3973
11888DDP     P271325  20.860  23.963  21.841  0.0687 -0.1721 -0.1937
11888DDP     C271326  21.137  23.776  22.098  0.0544  0.0552 -0.0086
11888DDP     C371327  20.801  24.638  22.386  0.0208  0.2490  0.0428
11888DDP     C471328  20.472  24.268  21.360 -0.1766  0.1486 -0.1488
11889DDP     C171329   3.761   9.156   5.201  0.1381 -0.1107 -0.1713
11889DDP     P171330   3.549   9.430   5.544  0.3528 -0.0065  0.1823
11889DDP     P271331   3.636   8.778   5.087 -0.1399 -0.1958 -0.0310
11889DDP     C271332   3.655   8.494   4.684 -0.2292 -0.0343  0.0756
11889DDP     C371333   3.428   9.777   5.791  0.3690 -0.1573 -0.0696
11889DDP     C471334   4.090   9.461   5.108  0.0828  0.1636  0.0301
11890DDP     C171335  12.370  10.810  21.210  0.2099 -0.3299 -0.2083
11890DDP     P171336  12.682  11.074  21.365 -0.1320  0.0072  0.0900
11890DDP     P271337  12.100  10.991  20.958  0.0645 -0.3519 -0.2530
11890DDP     C271338  11.795  11.086  20.666  0.1182 -0.0165 -0.3972
11890DDP     C371339  13.042  11.242  21.660  0.1977  0.2571  0.1212
11890DDP     C471340  12.315  10.374  21.051 -0.1911  0.0225 -0.1595
11891DDP     C171341  15.905  16.880   9.575 -0.0927 -0.0598  0.2353
11891DDP     P171342  15.993  17.179   9.232 -0.1396  0.2088  0.0760
11891DDP     P271343  16.348  16.736   9.727  0.0201  0.0933  0.1757
11891DDP     C271344  16.824  16.955   9.577  0.2589  0.2105  0.0610
11891DDP     C371345  15.738  17.415   8.809 -0.0870 -0.2349  0.0617
11891DDP     C471346  15.532  16.712   9.717 -0.0255 -0.4033 -0.0444
11892DDP     C171347  27.266   5.147   5.891 -0.0100  0.0814  0.2458
11892DDP     P171348  27.243   4.745   6.095 -0.1620  0.0278 -0.1799
11892DDP     P271349  27.414   5.539   6.010 -0.0273 -0.0226  0.0045
11892DDP     C271350  27.328   5.927   6.012 -0.1000  0.0328  0.1825
11892DDP     C371351  27.442   4.625   6.461  0.2902  0.0585  0.0364
11892DDP     C471352  27.055   5.268   5.493  0.2275 -0.0201 -0.2369
11893DDP     C171353  10.952   9.158  14.603 -0.2195 -0.2147  0.2906
11893DDP     P171354  11.275   9.047  14.269 -0.3453 -0.2632  0.2442
11893DDP     P271355  10.584   9.492  14.591 -0.0881 -0.0249  0.1278
11893DDP     C271356  10.148   9.560  14.616 -0.2064 -0.0860  0.0973
11893DDP     C371357  11.599   9.141  14.319  0.0586 -0.0291 -0.0849
11893DDP     C471358  11.288   9.143  14.980 -0.3173  0.0221 -0.3555
11894DDP     C171359  22.047  28.288  26.071 -0.1891 -0.4013 -0.0088
11894DDP     P171360  21.805  27.974  26.159  0.1738 -0.0483 -0.0260
11894DDP     P271361  22.497  28.284  26.275 -0.1607  0.1207 -0.0749
11894DDP     C271362  22.664  28.015  26.779  0.2005  0.1458 -0.0028
11894DDP     C371363  21.621  27.632  26.083 -0.0248  0.2010 -0.1403
11894DDP     C471364  21.892  28.529  25.625  0.0587  0.0492 -0.4218
11895DDP     C171365   4.232   8.020  20.860 -0.0966 -0.1054 -0.2440
11895DDP     P171366   4.192   7.523  20.812  0.1026 -0.0815 -0.0261
11895DDP     P271367   4.059   8.280  20.606  0.1296 -0.1093 -0.1379
11895DDP     C271368   3.850   8.425  20.245  0.3042  0.1497 -0.1667
11895DDP     C371369   3.836   7.270  20.914  0.0014 -0.0052  0.0506
11895DDP     C471370   4.379   8.134  21.205  0.0434  0.0605 -0.1057
11896DDP     C171371  28.179   8.068  24.846  0.0960 -0.6630 -0.1721
11896DDP     P171372  28.466   8.223  24.788  0.1809 -0.2993  0.1845
11896DDP     P271373  27.741   8.063  24.726 -0.2122 -0.0637  0.3435
11896DDP     C271374  27.382   7.846  24.433 -0.0238  0.1576  0.1530
11896DDP     C371375  28.430   8.508  24.452 -0.0303 -0.1113  0.0252
11896DDP     C471376  28.259   7.706  25.176  0.1652  0.0450 -0.1707
11897DDP     C171377   8.646  27.144  11.154  0.0433  0.1088 -0.1958
11897DDP     P171378   8.243  26.934  11.266  0.0906  0.0357  0.2267
11897DDP     P271379   8.833  27.092  11.400 -0.0966 -0.5512 -0.0792
11897DDP     C271380   8.931  26.824  11.752  0.1696 -0.1052  0.0903
11897DDP     C371381   8.050  26.576  10.973 -0.0770  0.1759  0.1824
11897DDP     C471382   8.683  27.495  10.916  0.0989 -0.0558 -0.1516
11898DDP     C171383   2.187   7.496  29.778  0.0543  0.0522  0.0418
11898DDP     P171384   2.041   7.788  29.413  0.3142  0.1470 -0.2036
11898DDP     P271385   2.365   7.188  29.592  0.2421 -0.0195  0.2408
11898DDP     C271386   2.572   6.779  29.620  0.2146  0.0833 -0.1797
11898DDP     C371387   1.893   7.765  29.040 -0.0730 -0.0857  0.2271
11898DDP     C471388   2.133   7.624  30.141 -0.2282 -0.1741  0.0732
11899DDP     C171389  25.833  12.604   1.951  0.0336  0.0785 -0.2205
11899DDP     P171390  25.720  13.074   2.087 -0.1642 -0.1253 -0.1467
11899DDP     P271391  26.028  12.339   2.249 -0.1589  0.4471 -0.1406
11899DDP     C271392  26.253  11.994   2.259  0.2423  0.2541 -0.0519
11899DDP     C371393  25.648  13.522   2.008 -0.1828 -0.1557 -0.0129
11899DDP     C471394  25.705  12.489   1.540  0.4326 -0.0871  0.1282
11900DDP     C171395  10.066  16.501   7.296  0.1757  0.0633  0.0761
11900DDP     P171396   9.754  16.476   6.946  0.1839 -0.3256  0.1309
11900DDP     P271397  10.437  16.241   7.423  0.0520  0.0280 -0.1641
11900DDP     C271398  10.522  15.911   7.082 -0.1681 -0.2124 -0.1257
11900DDP     C371399   9.339  16.388   6.919  0.1753 -0.0116 -0.1536
11900DDP     C471400   9.946  16.570   7.691  0.1100 -0.0291 -0.0163
11901DDP     C171401  22.116   2.576  20.622 -0.2450 -0.3033 -0.1324
11901DDP     P171402  22.167   3.017  20.715  0.3502  0.0072  0.0971
11901DDP     P271403  22.205   2.150  20.897  0.1278 -0.0205  0.0194
11901DDP     C271404  22.451   1.882  21.063 -0.1816  0.0074 -0.1932
11901DDP     C371405  22.442   3.126  20.891  0.2273 -0.1285 -0.0477
11901DDP     C471406  22.037   2.465  20.177  0.4298  0.3500 -0.0128
11902DDP     C171407   3.859  12.389   6.776  0.0067 -0.1448  0.1775
11902DDP     P171408   3.725  12.058   6.931 -0.2252 -0.1074  0.1110
11902DDP     P271409   3.483  12.605   6.607  0.0337 -0.3261  0.2831
11902DDP     C271410   3.288  12.893   6.310  0.3195 -0.0922  0.1046
11902DDP     C371411   3.771  11.634   6.669  0.0348 -0.1958 -0.1724
11902DDP     C471412   4.270  12.668   6.840  0.1870 -0.0283  0.1019
11903DDP     C171413  16.928   2.124   4.595  0.1149 -0.1630  0.1196
11903DDP     P171414  16.938   2.506   4.391  0.0238 -0.0414 -0.0081
11903DDP     P271415  17.178   1.795   4.850 -0.1779  0.1860  0.4152
11903DDP     C271416  17.092   1.330   4.762  0.0364  0.2353 -0.2974
11903DDP     C371417  16.911   2.539   3.961 -0.0417  0.0661  0.0035
11903DDP     C471418  16.542   2.060   4.611  0.0130  0.1982  0.0243
11904DDP     C171419  13.901  27.822   9.592 -0.0835  0.3974  0.1908
11904DDP     P171420  14.131  28.116   9.299  0.1335 -0.0711 -0.3583
11904DDP     P271421  13.871  27.422   9.521  0.1569 -0.0096 -0.1184
11904DDP     C271422  13.530  27.129   9.589 -0.1732 -0.1076  0.1254
11904DDP     C371423  14.424  28.456   9.094 -0.3003  0.0119  0.1199
11904DDP     C471424  13.631  27.966   9.829 -0.0322 -0.0236 -0.1703
11905DDP     C171425  16.641   6.019  17.148  0.0118 -0.0897 -0.0700
11905DDP     P171426  16.459   5.716  17.427  0.1480 -0.0516 -0.2332
11905DDP     P271427  16.941   6.007  16.814  0.1625  0.2266  0.2198
11905DDP     C271428  17.361   5.880  16.718  0.0273 -0.0043  0.1669
11905DDP     C371429  16.468   5.689  17.993  0.1297  0.0008 -0.0326
11905DDP     C471430  16.683   6.532  17.216  0.1773  0.0093  0.0205
11906DDP     C171431  19.017   7.368  19.741 -0.4628 -0.1993 -0.0205
11906DDP     P171432  19.196   7.071  20.014 -0.4037 -0.1177 -0.5219
11906DDP     P271433  18.517   7.366  19.814  0.3016 -0.0767  0.3439
11906DDP     C271434  18.161   7.145  19.775  0.2446  0.4975 -0.0543
11906DDP     C371435  19.203   6.892  20.398 -0.0087 -0.2991  0.2072
11906DDP     C471436  19.229   7.755  19.547 -0.0680  0.1275  0.1386
11907DDP     C171437  22.266   3.627   4.302 -0.0151  0.1180  0.2185
11907DDP     P171438  22.553   3.925   4.254  0.0916  0.0582 -0.1703
11907DDP     P271439  21.872   3.770   4.275 -0.0024  0.0142  0.0170
11907DDP     C271440  21.528   4.032   4.467  0.2902  0.0131 -0.1957
11907DDP     C371441  22.554   4.384   4.090 -0.1125 -0.2833  0.0137
11907DDP     C471442  22.383   3.177   4.291  0.2321 -0.2904  0.1193
11908DDP     C171443  18.448  21.758  30.231  0.1013  0.1262 -0.0510
11908DDP     P171444  18.855  21.759  30.116  0.0122 -0.0095 -0.2110
11908DDP     P271445  18.080  21.639  29.968  0.3296 -0.2664 -0.0962
11908DDP     C271446  17.758  21.348  29.860 -0.0193 -0.2495  0.0007
11908DDP     C371447  19.383  21.805  30.015  0.0474 -0.0769  0.2244
11908DDP     C471448  18.228  21.997   0.249  0.1596 -0.1645  0.1208
11909DDP     C171449  21.199  11.091   1.194 -0.0056  0.1520  0.0315
11909DDP     P171450  21.502  11.074   0.835 -0.0100  0.2265  0.0285
11909DDP     P271451  21.073  10.654   1.249 -0.3087  0.1413  0.0475
11909DDP     C271452  21.177  10.254   1.070  0.0558 -0.0289  0.4489
11909DDP     C371453  21.841  10.906   0.462  0.1905  0.1654 -0.2422
11909DDP     C471454  20.948  11.421   1.448  0.0290 -0.2465 -0.0283
11910DDP     C171455   9.486  28.815  29.833 -0.0001  0.0684 -0.0294
11910DDP     P171456   9.315  29.018  29.412  0.0081  0.2936  0.0708
11910DDP     P271457   9.547  28.311  29.931 -0.0912 -0.1322 -0.0057
11910DDP     C271458   9.252  28.047  29.901  0.0096  0.3265  0.1946
11910DDP     C371459   8.973  29.372  29.517 -0.1427 -0.0508 -0.0856
11910DDP     C471460   9.607  29.116  30.210 -0.0179  0.2579 -0.0606
11911DDP     C171461  20.369  13.309   4.234 -0.0190 -0.0914  0.1237
11911DDP     P171462  19.952  13.655   4.343  0.1818 -0.1278 -0.0470
11911DDP     P271463  20.528  13.074   3.922 -0.2837  0.4587  0.0911
11911DDP     C271464  20.548  12.814   3.484  0.0063 -0.0455 -0.0062
11911DDP     C371465  19.612  13.831   4.019 -0.4613 -0.0320  0.3009
11911DDP     C471466  20.667  13.250   4.562 -0.1156  0.0494 -0.2942
11912DDP     C171467  27.235  21.666  12.305 -0.0632  0.1391  0.2722
11912DDP     P171468  26.810  21.621  12.429  0.1741 -0.0965  0.0554
11912DDP     P271469  27.280  22.035  11.999  0.5406  0.3431 -0.0894
11912DDP     C271470  27.278  22.478  12.021 -0.1449  0.2347 -0.1023
11912DDP     C371471  26.617  21.385  12.705  0.2724 -0.0419 -0.3174
11912DDP     C471472  27.568  21.459  12.454  0.1370  0.0084  0.0879
11913DDP     C171473  17.347  28.036  18.889 -0.0622  0.1071 -0.0526
11913DDP     P171474  17.329  28.480  18.813  0.1947  0.2476  0.0932
11913DDP     P271475  17.233  27.836  19.356 -0.1255 -0.0199  0.1901
11913DDP     C271476  16.998  27.972  19.706 -0.1373  0.3297 -0.0021
11913DDP     C371477  17.120  28.817  19.085 -0.1087 -0.1308  0.0544
11913DDP     C471478  17.587  27.865  18.594  0.0261 -0.1969 -0.0078
11914DDP     C171479  26.578   9.053  25.582  0.3254  0.2155 -0.3220
11914DDP     P171480  26.617   9.255  25.881  0.0663  0.0711 -0.0567
11914DDP     P271481  26.788   9.114  25.206  0.1129 -0.3770  0.2948
11914DDP     C271482  26.992   9.135  24.786  0.0845  0.2994 -0.0491
11914DDP     C371483  26.804   9.575  26.002 -0.1922 -0.1818  0.0083
11914DDP     C471484  26.264   8.802  25.663  0.2504 -0.0574 -0.0646
11915DDP     C171485  28.632  19.019   0.402  0.3920  0.1259  0.0164
11915DDP     P171486  28.498  18.743   0.264 -0.0718  0.2650 -0.0592
11915DDP     P271487  28.274  19.344   0.269 -0.1296 -0.1351 -0.0649
11915DDP     C271488  28.234  19.793   0.216 -0.0365  0.1463  0.2066
11915DDP     C371489  28.400  18.184   0.341  0.0060 -0.4834 -0.0130
11915DDP     C471490  28.947  18.894   0.750  0.1493 -0.0009  0.3029
11916DDP     C171491   7.039  18.024  17.108  0.0712 -0.0762 -0.1406
11916DDP     P171492   6.814  17.944  17.537  0.0279  0.1311  0.0528
11916DDP     P271493   6.727  17.992  16.738  0.2355  0.0993 -0.0711
11916DDP     C271494   6.421  18.288  16.550 -0.1303  0.1332 -0.0197
11916DDP     C371495   6.759  17.912  17.972  0.1344  0.0469  0.3046
11916DDP     C471496   7.455  18.003  17.283  0.3613  0.2563  0.2979
11917DDP     C171497   6.439  12.041  10.925  0.0960  0.3366  0.0135
11917DDP     P171498   6.495  12.036  10.487  0.0139 -0.0403 -0.2265
11917DDP     P271499   6.056  12.227  11.179  0.0458 -0.1900 -0.3530
11917DDP     C271500   5.845  12.568  11.241  0.2807  0.0077 -0.2195
11917DDP     C371501   6.607  11.818  10.152 -0.3142 -0.3701 -0.1572
11917DDP     C471502   6.803  12.040  11.228  0.0749  0.1658  0.2771
11918DDP     C171503  27.139  12.333  13.459 -0.0564 -0.4447 -0.1428
11918DDP     P171504  27.469  12.490  13.662 -0.0388  0.4045 -0.0636
11918DDP     P271505  27.337  11.935  13.266 -0.0037 -0.1933 -0.0354
11918DDP     C271506  27.650  11.683  13.434  0.1408 -0.0309  0.0495
11918DDP     C371507  27.719  12.250  13.900  0.0597  0.1931 -0.0455
11918DDP     C471508  26.772  12.105  13.263 -0.0471  0.0391 -0.0922
11919DDP     C171509  14.316  20.443  12.114  0.0813 -0.3235 -0.2570
11919DDP     P171510  14.071  20.798  12.159  0.4509 -0.0633  0.1516
11919DDP     P271511  14.641  20.567  12.022  0.0989 -0.0185  0.0026
11919DDP     C271512  14.991  20.706  12.324 -0.3062  0.1161 -0.0358
11919DDP     C371513  13.871  21.268  12.141 -0.1901 -0.1804  0.3410
11919DDP     C471514  14.263  20.116  12.175  0.3242  0.3058  0.1054
11920DDP     C171515  15.768  14.767  30.001 -0.2118 -0.3311 -0.2921
11920DDP     P171516  15.718  15.269  30.164  0.0434  0.2421 -0.1368
11920DDP     P271517  15.514  14.368  30.173  0.1827  0.0500 -0.1078
11920DDP     C271518  15.507  14.440   0.256  0.2591  0.3818  0.0709
11920DDP     C371519  15.548  15.644  29.967 -0.2923  0.1863 -0.1129
11920DDP     C471520  15.898  14.875  29.603  0.2678 -0.0735 -0.1108
11921DDP     C171521   0.951  26.201   6.983 -0.1742  0.1629  0.1252
11921DDP     P171522   0.819  26.164   7.412  0.1124  0.1607  0.1702
11921DDP     P271523   1.371  26.221   6.880  0.3632  0.0125 -0.0051
11921DDP     C271524   1.832  26.292   7.027 -0.1532  0.1671 -0.1857
11921DDP     C371525   0.414  25.984   7.521 -0.0737  0.2654 -0.0299
11921DDP     C471526   0.699  26.132   6.717 -0.0119 -0.0449 -0.0863
11922DDP     C171527  16.164  14.870  17.405 -0.2380  0.1004  0.5562
11922DDP     P171528  16.568  14.895  17.224  0.1683  0.0891  0.3990
11922DDP     P271529  15.800  15.084  17.149 -0.0013  0.1244 -0.1138
11922DDP     C271530  15.846  15.479  17.060 -0.0725  0.2761 -0.0345
11922DDP     C371531  16.871  14.580  17.038  0.0362  0.2326  0.0230
11922DDP     C471532  16.093  14.506  17.745  0.0459  0.2986 -0.0540
11923DDP     C171533  21.090  20.967  29.442  0.1606  0.0366 -0.3428
11923DDP     P171534  21.041  21.358  29.699  0.1176 -0.0046  0.2849
11923DDP     P271535  20.775  20.744  29.283  0.0434  0.3229 -0.0046
11923DDP     C271536  20.318  20.727  29.133  0.1823 -0.0379 -0.1211
11923DDP     C371537  20.873  21.844  29.779 -0.3044  0.1119 -0.1174
11923DDP     C471538  21.613  20.907  29.462  0.1907  0.0781  0.1057
11924DDP     C171539  23.800  24.278  14.280  0.3251  0.5012  0.0600
11924DDP     P171540  24.194  24.460  14.326  0.1131 -0.3411 -0.0618
11924DDP     P271541  23.426  24.113  14.545 -0.1804 -0.3399 -0.2809
11924DDP     C271542  23.105  23.735  14.642  0.1984 -0.1188  0.1004
11924DDP     C371543  24.381  24.547  14.057  0.1173 -0.1586 -0.0951
11924DDP     C471544  23.741  24.079  13.894  0.0407 -0.1616 -0.2420
11925DDP     C171545  10.407  11.226  28.343  0.0782 -0.1483  0.1513
11925DDP     P171546  10.405  10.844  28.675  0.1131 -0.1391  0.2112
11925DDP     P271547  10.347  11.653  28.580  0.4988  0.1930  0.2751
11925DDP     C271548  10.690  11.815  28.822 -0.0878 -0.0818  0.0384
11925DDP     C371549  10.337  10.524  28.873 -0.1058 -0.0425 -0.0256
11925DDP     C471550  10.402  11.250  27.910 -0.1272  0.3428  0.3121
11926DDP     C171551  17.658  26.219  23.827  0.0473  0.0400  0.0443
11926DDP     P171552  17.354  26.410  24.106  0.0070 -0.1608  0.2030
11926DDP     P271553  17.618  26.396  23.383 -0.1291 -0.1042 -0.0632
11926DDP     C271554  17.638  26.216  23.036 -0.1278 -0.2134  0.1838
11926DDP     C371555  17.177  26.441  24.514 -0.0152  0.2718  0.1310
11926DDP     C471556  18.048  25.918  23.930 -0.2522  0.1738  0.0442
11927DDP     C171557  20.650  10.275  19.838 -0.0489  0.1265  0.1168
11927DDP     P171558  20.904   9.889  19.782  0.2190  0.0286 -0.2113
11927DDP     P271559  20.612  10.434  20.217 -0.3326  0.1968  0.0357
11927DDP     C271560  20.561  10.662  20.601  0.2602 -0.1911  0.3340
11927DDP     C371561  21.043   9.746  20.188 -0.1027  0.1476 -0.1003
11927DDP     C471562  20.382  10.151  19.660  0.3737  0.1697  0.3204
11928DDP     C171563  16.365   1.910  18.048 -0.0931 -0.0107  0.0804
11928DDP     P171564  16.747   1.993  17.960 -0.0662  0.0197  0.0415
11928DDP     P271565  16.127   1.669  18.257 -0.0463 -0.0337  0.1708
11928DDP     C271566  15.714   1.573  18.213  0.2558  0.0599 -0.2367
11928DDP     C371567  16.976   1.937  17.677  0.2125 -0.1287  0.1123
11928DDP     C471568  16.012   2.091  17.804 -0.0091  0.1074  0.0238
11929DDP     C171569   9.805  14.254  22.576 -0.1775 -0.3100 -0.0449
11929DDP     P171570  10.137  13.971  22.537  0.0172  0.2677  0.0358
11929DDP     P271571   9.745  14.532  22.852 -0.1532 -0.0997 -0.2347
11929DDP     C271572   9.888  14.567  23.298  0.0304  0.0123 -0.1574
11929DDP     C371573  10.551  13.905  22.378 -0.1540 -0.1397  0.0822
11929DDP     C471574   9.476  14.226  22.265 -0.0950  0.2183 -0.0022
11930DDP     C171575  18.863  28.957   9.817  0.1419 -0.1895 -0.1068
11930DDP     P171576  18.811  28.502   9.739 -0.1176 -0.1876  0.1723
11930DDP     P271577  19.277  29.137   9.833  0.0418  0.2497  0.0953
11930DDP     C271578  19.650  29.048   9.616  0.2278 -0.0473 -0.1918
11930DDP     C371579  18.792  28.043   9.642 -0.1075 -0.1598  0.2580
11930DDP     C471580  18.582  29.114  10.145 -0.0274  0.1416  0.1514
11931DDP     C171581  23.673   8.806  27.470 -0.2132 -0.1980  0.3411
11931DDP     P171582  23.369   9.100  27.445 -0.3998 -0.2193 -0.4669
11931DDP     P271583  23.959   8.607  27.709 -0.1306 -0.0699 -0.1647
11931DDP     C271584  24.388   8.569  27.881  0.3261  0.0504 -0.0247
11931DDP     C371585  23.126   9.160  27.788 -0.2074 -0.1503  0.1449
11931DDP     C471586  23.775   8.572  27.108 -0.0770  0.1240 -0.0219
11932DDP     C171587  29.447   7.191  12.526  0.1190  0.1522  0.0814
11932DDP     P171588  29.392   7.108  13.000 -0.2574  0.2110 -0.1635
11932DDP     P271589  29.723   6.882  12.231  0.1097 -0.1532 -0.0402
11932DDP     C271590  29.778   6.436  12.263  0.2566 -0.2401 -0.1595
11932DDP     C371591  29.099   6.938  13.339  0.0286 -0.0791  0.1294
11932DDP     C471592  29.349   7.537  12.271 -0.2702  0.0011 -0.3959
11933DDP     C171593  18.161  22.683  28.334 -0.6618  0.1761  0.0934
11933DDP     P171594  18.631  22.717  28.376  0.0918 -0.0008 -0.1997
11933DDP     P271595  18.019  23.041  28.423  0.1291  0.0420 -0.0026
11933DDP     C271596  17.862  23.479  28.382 -0.2195 -0.1567  0.2931
11933DDP     C371597  18.961  22.329  28.548 -0.1704  0.0112  0.1217
11933DDP     C471598  17.952  22.252  28.327  0.2841 -0.3731  0.2099
11934DDP     C171599  26.099  14.081   4.554 -0.0596 -0.1849  0.0013
11934DDP     P171600  26.212  14.477   4.386 -0.0935  0.0598  0.0895
11934DDP     P271601  25.992  13.957   4.975 -0.0973 -0.3686 -0.0552
11934DDP     C271602  26.269  14.165   5.288  0.0648 -0.1178  0.2107
11934DDP     C371603  26.284  14.758   4.673  0.1679  0.0535 -0.2132
11934DDP     C471604  26.475  13.964   4.314 -0.0915 -0.0366 -0.1023
11935DDP     C171605  26.588   5.817   8.707 -0.0389 -0.1778  0.3509
11935DDP     P171606  26.417   6.189   8.514 -0.0055 -0.0317 -0.1482
11935DDP     P271607  26.557   5.504   8.575  0.0717 -0.1051  0.0150
11935DDP     C271608  26.747   5.126   8.485 -0.1680  0.2819  0.1167
11935DDP     C371609  25.965   6.243   8.455  0.2732  0.2209 -0.2578
11935DDP     C471610  26.877   5.883   9.003  0.0388 -0.0977 -0.0750
11936DDP     C171611  21.512  29.270  15.686  0.1162  0.1711 -0.0216
11936DDP     P171612  21.469  29.572  15.432  0.0561 -0.3443  0.0508
11936DDP     P271613  21.119  29.136  15.675  0.2573 -0.0552 -0.0716
11936DDP     C271614  20.655  29.080  15.738 -0.2000  0.3355  0.4063
11936DDP     C371615  21.306  29.846  15.155 -0.2442 -0.2416 -0.0202
11936DDP     C471616  21.839  29.012  15.687 -0.0693 -0.0814 -0.2844
11937DDP     C171617   8.448  10.682  17.081  0.0881 -0.1734 -0.0475
11937DDP     P171618   8.643  10.671  17.506  0.1305  0.0276  0.0013
11937DDP     P271619   8.238  10.319  16.897  0.1148 -0.2182 -0.0827
11937DDP     C271620   7.764  10.181  16.698  0.5169 -0.3196  0.0028
11937DDP     C371621   9.048  10.364  17.575  0.0066 -0.0224 -0.2092
11937DDP     C471622   8.603  11.149  16.872  0.1675 -0.0759 -0.1016
11938DDP     C171623  19.977  26.368   3.724  0.0672  0.0665  0.0058
11938DDP     P171624  20.024  26.055   3.622 -0.0177 -0.1709 -0.3620
11938DDP     P271625  20.087  26.562   3.372 -0.0076 -0.0430  0.1307
11938DDP     C271626  20.376  26.666   3.107 -0.0165  0.1115 -0.1857
11938DDP     C371627  20.179  25.591   3.905 -0.4038 -0.2192  0.1495
11938DDP     C471628  19.790  26.758   3.796 -0.0047 -0.0128  0.1028
11939DDP     C171629  28.185   0.303  19.788 -0.2070 -0.0258  0.0929
11939DDP     P171630  28.431  30.288  19.692  0.1970  0.3057  0.0882
11939DDP     P271631  27.767   0.275  20.015 -0.0445  0.1448 -0.2512
11939DDP     C271632  27.678   0.042  20.375 -0.0228  0.1859 -0.0291
11939DDP     C371633  28.791  30.193  19.572 -0.0409 -0.1407 -0.1232
11939DDP     C471634  28.399   0.590  19.967  0.2037 -0.0836  0.1908
11940DDP     C171635  29.371  27.871   2.456  0.2786  0.1065 -0.2283
11940DDP     P171636  29.524  27.616   2.639  0.0908 -0.0730  0.4873
11940DDP     P271637  29.613  28.233   2.466  0.0768 -0.1895  0.3557
11940DDP     C271638  29.578  28.659   2.251 -0.4165  0.0730 -0.0091
11940DDP     C371639  29.760  27.316   2.659  0.0449 -0.2349 -0.0531
11940DDP     C471640  28.891  27.933   2.602  0.3637 -0.2708  0.0747
11941DDP     C171641  21.714  12.882  16.510 -0.0161  0.0258  0.1743
11941DDP     P171642  21.661  12.827  16.898 -0.0660 -0.2151  0.4169
11941DDP     P271643  22.047  13.049  16.181  0.1306  0.4278 -0.2546
11941DDP     C271644  22.435  12.983  16.115  0.0877  0.4133 -0.0968
11941DDP     C371645  21.717  13.048  17.247 -0.0738  0.1487  0.0057
11941DDP     C471646  21.412  13.095  16.228 -0.0648 -0.0120 -0.1577
11942DDP     C171647  29.863  23.347  25.155  0.1265  0.3832  0.0562
11942DDP     P171648  29.555  23.389  24.948  0.1470 -0.2756  0.3076
11942DDP     P271649  29.813  23.048  25.589  0.1619  0.1628  0.1990
11942DDP     C271650  29.650  22.715  25.722 -0.0562 -0.4839 -0.5922
11942DDP     C371651  29.277  23.036  24.635  0.2364 -0.2646 -0.2367
11942DDP     C471652  30.249  23.533  24.913 -0.0433 -0.0658 -0.0295
11943DDP     C171653   2.116  17.228   1.750  0.1416 -0.2344 -0.2494
11943DDP     P171654   2.129  16.947   1.465 -0.0885 -0.2818 -0.2591
11943DDP     P271655   1.774  17.498   1.917  0.3708  0.2343 -0.2127
11943DDP     C271656   1.640  17.818   2.190 -0.3405  0.0150 -0.1658
11943DDP     C371657   2.194  16.538   1.218 -0.0614  0.1091  0.1088
11943DDP     C471658   2.490  17.230   1.850  0.2555  0.0121  0.1171
11944DDP     C171659  30.203   9.780   6.506  0.0463  0.0405  0.1626
11944DDP     P171660   0.088  10.134   6.417  0.1157 -0.0997 -0.2451
11944DDP     P271661  30.119   9.409   6.304  0.1372  0.2586  0.0847
11944DDP     C271662  30.330   9.137   6.122  0.0381 -0.4008 -0.1749
11944DDP     C371663   0.515  10.295   6.272 -0.0071  0.3497 -0.0423
11944DDP     C471664  29.941   9.740   6.935 -0.0343  0.1564  0.0227
11945DDP     C171665  10.194  28.294  22.373  0.0793  0.0858  0.0505
11945DDP     P171666   9.895  28.751  22.187 -0.0272 -0.0786 -0.1235
11945DDP     P271667   9.974  27.882  22.179  0.2943 -0.3040 -0.0365
11945DDP     C271668  10.215  27.494  22.384 -0.1005  0.2696 -0.1575
11945DDP     C371669   9.903  29.211  21.969 -0.1384 -0.2044  0.3020
11945DDP     C471670  10.620  28.366  22.644  0.1974  0.1612 -0.0774
11946DDP     C171671  21.771  29.508  19.264  0.0351 -0.4255  0.0079
11946DDP     P171672  21.549  29.194  19.107  0.1153  0.1572 -0.1141
11946DDP     P271673  21.559  29.907  19.280  0.1980  0.0889 -0.1785
11946DDP     C271674  21.615   0.078  19.505  0.0496 -0.1028  0.2058
11946DDP     C371675  21.792  28.975  18.685  0.1150 -0.0720 -0.4159
11946DDP     C471676  22.081  29.368  19.594 -0.0789  0.2853 -0.0922
11947DDP     C171677  30.127  22.944  29.950  0.2718  0.2277  0.1340
11947DDP     P171678  30.324  23.251  29.733  0.1901  0.0871  0.3431
11947DDP     P271679  30.220  22.573  30.157  0.1580  0.5251 -0.0180
11947DDP     C271680  30.296  22.180  30.072  0.3592  0.1189  0.1342
11947DDP     C371681   0.477  23.369  29.731  0.0985  0.0450  0.0627
11947DDP     C471682  29.746  23.198  29.966 -0.1163  0.0866 -0.0946
11948DDP     C171683   9.195   5.213  10.582 -0.0129 -0.0063  0.2570
11948DDP     P171684   8.806   5.033  10.566 -0.1134 -0.0681 -0.0246
11948DDP     P271685   9.309   5.211  10.910  0.0033  0.0859 -0.2790
11948DDP     C271686   9.464   5.556  11.251  0.0552 -0.0717  0.1164
11948DDP     C371687   8.445   5.022  10.730  0.0992 -0.2382  0.1432
11948DDP     C471688   9.309   5.476  10.254  0.1263  0.0761 -0.0838
11949DDP     C171689  18.090  17.407  20.110  0.1945  0.1190 -0.1060
11949DDP     P171690  18.413  17.544  20.057  0.0210 -0.1399  0.1383
11949DDP     P271691  18.087  17.055  20.101 -0.3619 -0.1498  0.1616
11949DDP     C271692  18.404  16.628  20.179 -0.4120  0.0356 -0.1438
11949DDP     C371693  18.816  17.397  20.131  0.0750  0.0759  0.0634
11949DDP     C471694  17.715  17.425  20.290  0.1606  0.3033  0.1067
11950DDP     C171695  20.462  21.920  19.181 -0.3868  0.2686  0.0445
11950DDP     P171696  20.550  22.176  18.783 -0.3133 -0.0010 -0.2274
11950DDP     P271697  20.302  21.507  19.268  0.1741 -0.1997 -0.3051
11950DDP     C271698  20.401  21.174  18.937 -0.1137 -0.1307 -0.1189
11950DDP     C371699  20.804  22.347  18.367 -0.0799  0.0580 -0.0284
11950DDP     C471700  20.892  22.017  19.399  0.0786 -0.1280 -0.2011
11951DDP     C171701  27.735   8.752   6.083  0.0007 -0.0031  0.2854
11951DDP     P171702  27.364   8.925   6.042  0.0518  0.0547 -0.2140
11951DDP     P271703  27.995   8.860   5.753  0.0239  0.1405 -0.1937
11951DDP     C271704  28.192   9.068   5.523  0.0617  0.0650  0.2675
11951DDP     C371705  27.311   9.373   6.014  0.1947  0.0387 -0.2858
11951DDP     C471706  27.774   8.328   6.324  0.0930  0.1790  0.0615
11952DDP     C171707  23.518   4.777  13.096  0.0306  0.0102 -0.0350
11952DDP     P171708  23.120   4.469  13.009 -0.0403  0.1359 -0.0197
11952DDP     P271709  23.788   4.600  12.787  0.0208  0.0517  0.4027
11952DDP     C271710  23.842   4.426  12.338 -0.5161  0.1513 -0.0210
11952DDP     C371711  22.666   4.156  13.014 -0.2468 -0.2640  0.0369
11952DDP     C471712  23.763   4.926  13.530 -0.1647  0.1587  0.2610
11953DDP     C171713   7.780   4.681  27.583 -0.0967 -0.0322  0.1725
11953DDP     P171714   7.694   4.210  27.863 -0.3138  0.1197 -0.0044
11953DDP     P271715   7.894   5.058  27.652 -0.1506 -0.0562 -0.0232
11953DDP     C271716   8.143   5.300  28.025 -0.1699  0.2497  0.2360
11953DDP     C371717   7.925   3.843  28.031  0.0102  0.2563  0.1738
11953DDP     C471718   7.822   4.690  27.155  0.0320 -0.2788 -0.2424
11954DDP     C171719  22.880  16.580  14.362 -0.1460 -0.0975  0.1274
11954DDP     P171720  22.955  16.144  14.422  0.0036 -0.1245 -0.1502
11954DDP     P271721  22.632  16.935  14.574 -0.1495  0.0003 -0.0697
11954DDP     C271722  22.583  17.355  14.468 -0.0078  0.1304  0.1661
11954DDP     C371723  23.167  15.768  14.641 -0.0737 -0.0417  0.2424
11954DDP     C471724  23.119  16.670  14.146 -0.0670 -0.1800  0.0680
11955DDP     C171725  19.347  10.185   2.650  0.3169  0.1003  0.2231
11955DDP     P171726  19.534   9.943   2.988 -0.5087 -0.0680 -0.0491
11955DDP     P271727  19.699  10.196   2.199  0.0197 -0.1542 -0.0229
11955DDP     C271728  20.077  10.409   2.202 -0.1013 -0.0830 -0.1715
11955DDP     C371729  19.610   9.704   3.379  0.1163  0.0150 -0.3023
11955DDP     C471730  18.985  10.461   2.649  0.0519 -0.0651 -0.4408
11956DDP     C171731   8.855   6.190   9.505 -0.2374  0.1204  0.0092
11956DDP     P171732   8.773   5.893   9.215 -0.1543 -0.3693  0.0105
11956DDP     P271733   8.855   6.123   9.940 -0.2960  0.0701 -0.0381
11956DDP     C271734   8.950   5.901  10.402  0.3099 -0.0515 -0.1397
11956DDP     C371735   8.480   5.903   8.936  0.0206 -0.0415  0.0457
11956DDP     C471736   8.930   6.610   9.302 -0.1825  0.3972  0.2755
11957DDP     C171737  10.602  14.273   4.017  0.0524 -0.2054 -0.1768
11957DDP     P171738  10.376  14.154   3.644  0.0007  0.3501  0.1876
11957DDP     P271739  10.401  14.203   4.407 -0.3941  0.2204  0.0132
11957DDP     C271740  10.348  14.423   4.735 -0.1900  0.0600  0.1140
11957DDP     C371741  10.024  13.855   3.565 -0.1244 -0.2008  0.0506
11957DDP     C471742  11.041  14.106   3.892 -0.0972 -0.3026 -0.1291
11958DDP     C171743  28.877  12.120  28.646 -0.3571  0.1843 -0.1137
11958DDP     P171744  28.547  11.913  28.352 -0.1475 -0.0718  0.5340
11958DDP     P271745  29.085  11.887  29.041  0.1252 -0.0212  0.0616
11958DDP     C271746  29.006  11.546  29.241 -0.1106  0.0965  0.0413
11958DDP     C371747  28.255  12.133  28.161  0.0736  0.2099 -0.0269
11958DDP     C471748  28.889  12.584  28.494  0.2602 -0.0174 -0.1997
11959DDP     C171749  23.133  22.119  19.069  0.0011 -0.3042 -0.0424
11959DDP     P171750  23.278  21.891  19.489 -0.1586  0.1961  0.1518
11959DDP     P271751  23.092  22.601  19.062 -0.0919 -0.0145  0.0275
11959DDP     C271752  23.309  23.014  19.124 -0.0910  0.0662  0.2597
11959DDP     C371753  23.432  21.611  19.749 -0.1552 -0.1278 -0.2022
11959DDP     C471754  23.028  21.941  18.658  0.1549  0.1084  0.0017
11960DDP     C171755   3.854   1.471  28.745  0.0843  0.1840 -0.3144
11960DDP     P171756   4.179   1.659  28.871 -0.0204  0.0895 -0.5746
11960DDP     P271757   3.886   1.021  28.743  0.1321 -0.0628  0.0128
11960DDP     C271758   3.768   0.805  29.095 -0.1887  0.1689 -0.0592
11960DDP     C371759   4.626   1.547  28.970  0.1297 -0.1883 -0.0636
11960DDP     C471760   3.456   1.663  28.630  0.0272 -0.1474 -0.0070
11961DDP     C171761  25.725  26.550  25.751 -0.1636 -0.0041  0.1369
11961DDP     P171762  26.098  26.631  25.984 -0.2350 -0.0683  0.0896
11961DDP     P271763  25.758  26.112  25.626  0.2012 -0.1297  0.1213
11961DDP     C271764  25.697  25.787  25.284 -0.1638  0.1869  0.1512
11961DDP     C371765  26.510  26.552  26.219 -0.1117  0.2019  0.0588
11961DDP     C471766  25.605  26.800  25.386 -0.1519 -0.0712 -0.0932
11962DDP     C171767  11.244  23.985   3.506 -0.1656 -0.3338  0.3555
11962DDP     P171768  11.248  24.351   3.718  0.1496  0.0450 -0.1934
11962DDP     P271769  10.911  24.145   3.319 -0.0796 -0.1593  0.2712
11962DDP     C271770  10.506  24.124   3.154  0.3147  0.0094  0.0578
11962DDP     C371771  11.634  24.717   3.844 -0.4100 -0.1088  0.0940
11962DDP     C471772  11.448  23.692   3.412  0.2497 -0.1003  0.0304
11963DDP     C171773  12.163  12.872   5.152  0.3720  0.0094 -0.1213
11963DDP     P171774  12.379  13.204   5.536  0.1380  0.0303 -0.1180
11963DDP     P271775  12.414  12.773   4.879 -0.0083 -0.2108 -0.0282
11963DDP     C271776  12.561  12.295   5.038  0.2697 -0.4266  0.0155
11963DDP     C371777  12.572  13.593   5.684 -0.0798 -0.1335 -0.2542
11963DDP     C471778  11.904  12.570   5.359  0.0278 -0.3696 -0.0503
11964DDP     C171779  24.502  16.928   6.391 -0.0441 -0.0007 -0.2767
11964DDP     P171780  24.357  17.302   6.184 -0.1482  0.1535  0.2739
11964DDP     P271781  24.808  16.781   6.217 -0.4509 -0.0327  0.0157
11964DDP     C271782  25.077  16.458   6.315 -0.0806 -0.0848 -0.0449
11964DDP     C371783  24.132  17.692   6.206 -0.1743 -0.1108 -0.1690
11964DDP     C471784  24.288  16.690   6.686 -0.2791 -0.1464  0.0415
11965DDP     C171785  17.250  29.139   9.138 -0.0100 -0.0166 -0.3940
11965DDP     P171786  17.003  29.425   8.951  0.0556  0.0215 -0.0564
11965DDP     P271787  17.659  29.334   9.345 -0.2009 -0.1885 -0.1770
11965DDP     C271788  17.659  29.481   9.744  0.1079 -0.0320 -0.3835
11965DDP     C371789  16.886  29.775   8.714 -0.3118 -0.0897  0.0031
11965DDP     C471790  17.029  28.725   9.254  0.0420 -0.1693 -0.2029
11966DDP     C171791   5.255   6.557  11.169 -0.0635 -0.0947  0.3397
11966DDP     P171792   4.758   6.395  11.076 -0.1753  0.0508 -0.0296
11966DDP     P271793   5.374   6.227  11.496  0.0742 -0.0618 -0.2322
11966DDP     C271794   5.307   5.837  11.631 -0.1414 -0.0636  0.2109
11966DDP     C371795   4.743   6.280  10.608 -0.0189 -0.0283 -0.2441
11966DDP     C471796   5.400   6.948  11.247 -0.1443 -0.0049  0.0129
11967DDP     C171797   4.667  30.197  23.682  0.0780  0.3545 -0.3057
11967DDP     P171798   4.913   0.031  24.047  0.0297  0.0322 -0.0739
11967DDP     P271799   4.449   0.163  23.323  0.1124 -0.2196 -0.1464
11967DDP     C271800   4.503   0.375  23.030  0.1673  0.2308  0.2863
11967DDP     C371801   5.248  30.040  24.194  0.0262  0.0328  0.0393
11967DDP     C471802   4.467  29.766  23.710  0.3959 -0.0297  0.0612
11968DDP     C171803  22.447  28.209   0.621 -0.1185 -0.0354  0.1696
11968DDP     P171804  22.763  28.559   0.593  0.3355 -0.3433 -0.1259
11968DDP     P271805  22.562  28.315   0.235 -0.1421  0.0181  0.2774
11968DDP     C271806  22.448  28.523  30.157  0.2875  0.0423 -0.2093
11968DDP     C371807  23.077  28.912   0.341  0.2249  0.0405 -0.1051
11968DDP     C471808  22.333  27.924   0.773  0.0128 -0.1989 -0.3284
11969DDP     C171809   5.883  10.864  11.831 -0.2031 -0.1839  0.1592
11969DDP     P171810   5.837  10.674  12.168  0.5091 -0.1908 -0.1374
11969DDP     P271811   6.255  10.670  11.563 -0.1254 -0.0227 -0.0345
11969DDP     C271812   6.767  10.674  11.643 -0.0127 -0.0389  0.0217
11969DDP     C371813   6.132  10.613  12.558 -0.1433 -0.2643 -0.3079
11969DDP     C471814   5.562  11.086  11.627 -0.1703 -0.0160  0.1807
11970DDP     C171815   2.496  14.212  20.455  0.0042 -0.1021  0.2482
11970DDP     P171816   2.745  13.871  20.517 -0.0438 -0.0463 -0.0934
11970DDP     P271817   2.091  14.214  20.285  0.0504 -0.2424 -0.0330
11970DDP     C271818   1.876  14.522  20.150 -0.1717  0.0690  0.0728
11970DDP     C371819   2.854  13.436  20.624  0.1054  0.5002  0.1745
11970DDP     C471820   2.608  14.533  20.621 -0.1997  0.0237 -0.0310
11971DDP     C171821   6.880  11.423  29.992 -0.1985 -0.2364 -0.0129
11971DDP     P171822   7.066  11.116  29.805  0.2412  0.0816  0.0696
11971DDP     P271823   6.687  11.615  29.646 -0.1405 -0.0528  0.1473
11971DDP     C271824   6.606  11.889  29.421  0.1933 -0.0824 -0.2439
11971DDP     C371825   6.866  10.708  29.767  0.0311 -0.2583  0.3129
11971DDP     C471826   6.850  11.466   0.199 -0.0427  0.2861  0.1383
11972DDP     C171827  23.273  24.120   7.844  0.2014 -0.0240  0.2917
11972DDP     P171828  23.296  23.785   8.102 -0.0867 -0.2289  0.0907
11972DDP     P271829  23.077  24.153   7.454 -0.3046 -0.3150  0.5985
11972DDP     C271830  22.681  23.943   7.305 -0.3779 -0.1660 -0.2277
11972DDP     C371831  23.626  23.497   8.073  0.0001 -0.2008  0.3162
11972DDP     C471832  23.672  24.376   7.984 -0.2276  0.3600  0.2848
11973DDP     C171833   5.099  11.980  10.858 -0.0675 -0.2326 -0.2454
11973DDP     P171834   5.272  11.508  10.873 -0.4455 -0.1162 -0.0943
11973DDP     P271835   5.085  12.030  11.308  0.2205  0.0258  0.1484
11973DDP     C271836   5.282  12.323  11.568 -0.1203 -0.0903 -0.4531
11973DDP     C371837   5.500  11.104  11.057  0.0546 -0.0372 -0.1431
11973DDP     C471838   5.072  12.275  10.508  0.0729  0.2319 -0.2612
11974DDP     C171839   1.576   0.667   0.442  0.1804 -0.1306  0.0939
11974DDP     P171840   1.303   0.287   0.475  0.0919 -0.2916  0.1162
11974DDP     P271841   1.719   0.907   0.815  0.0020 -0.0924  0.0970
11974DDP     C271842   1.564   1.199   0.913 -0.2723 -0.2934  0.0398
11974DDP     C371843   1.089  30.209   0.618 -0.0842  0.0802  0.0429
11974DDP     C471844   1.640   0.715  -0.032 -0.2400  0.1613 -0.2393
11975DDP     C171845   9.169  16.421  22.177  0.0774 -0.0939  0.0358
11975DDP     P171846   9.229  16.891  22.097  0.1686 -0.1748 -0.1643
11975DDP     P271847   9.492  16.265  22.456 -0.0053  0.4876  0.0970
11975DDP     C271848   9.856  16.262  22.629  0.0260  0.2404  0.2286
11975DDP     C371849   9.265  17.191  22.305  0.1124  0.0188  0.1677
11975DDP     C471850   8.927  16.187  21.823 -0.0668 -0.1487  0.0517
11976DDP     C171851  29.306   2.166   6.874 -0.0348  0.0253 -0.0282
11976DDP     P171852  29.740   2.054   6.991 -0.0973  0.1024 -0.4181
11976DDP     P271853  29.007   2.437   7.111 -0.0061  0.3095 -0.2408
11976DDP     C271854  28.616   2.552   7.421 -0.1902 -0.0370  0.0502
11976DDP     C371855  30.128   2.264   7.157  0.0874 -0.0197 -0.0503
11976DDP     C471856  29.167   1.815   6.574  0.0495  0.2407 -0.1912
11977DDP     C171857  28.849  15.686  19.155 -0.0469 -0.2082 -0.1452
11977DDP     P171858  28.897  15.303  18.925  0.3261 -0.0461 -0.1463
11977DDP     P271859  29.113  15.967  19.152 -0.1026  0.3538 -0.2338
11977DDP     C271860  29.126  16.494  19.091 -0.0416 -0.0658 -0.0584
11977DDP     C371861  29.191  15.163  18.655 -0.3350 -0.0703 -0.1386
11977DDP     C471862  28.436  15.731  19.253  0.1994 -0.0758 -0.2437
11978DDP     C171863  19.932  22.154  27.016 -0.1009 -0.1963 -0.0041
11978DDP     P171864  19.569  22.222  27.175  0.1086  0.1179 -0.0929
11978DDP     P271865  20.034  22.464  26.729 -0.0344 -0.2065  0.0477
11978DDP     C271866  20.050  22.809  26.726 -0.1783  0.0211 -0.0938
11978DDP     C371867  19.256  22.499  27.125 -0.2140 -0.2807  0.1532
11978DDP     C471868  20.214  21.848  27.095  0.1668  0.0652 -0.1023
11979DDP     C171869  11.391   4.809  11.335 -0.0744 -0.1431  0.0908
11979DDP     P171870  11.063   4.691  11.636 -0.0761  0.0679 -0.2790
11979DDP     P271871  11.399   5.246  11.166 -0.1963  0.0248  0.0261
11979DDP     C271872  11.183   5.646  11.233 -0.1705 -0.0904  0.1019
11979DDP     C371873  11.014   4.577  11.967 -0.1185 -0.0537  0.3229
11979DDP     C471874  11.766   4.593  11.419  0.0747 -0.1171  0.3439
11980DDP     C171875  27.988  28.165   9.387 -0.1047 -0.1043 -0.1667
11980DDP     P171876  27.625  28.064   9.561 -0.2732 -0.3328  0.0217
11980DDP     P271877  28.132  28.032   8.969  0.1220 -0.2032 -0.0128
11980DDP     C271878  28.135  27.972   8.474 -0.1025  0.1762 -0.1093
11980DDP     C371879  27.244  28.272   9.714 -0.2655  0.0969  0.2211
11980DDP     C471880  28.304  28.340   9.689  0.0713 -0.3780  0.1310
11981DDP     C171881  22.064  11.693   0.051  0.0798 -0.3278  0.1440
11981DDP     P171882  21.620  11.555  30.197 -0.3477  0.0374  0.1225
11981DDP     P271883  21.920  11.916   0.468 -0.2696 -0.0341  0.0520
11981DDP     C271884  21.613  12.238   0.474 -0.2511  0.1864 -0.1822
11981DDP     C371885  21.139  11.605  30.175  0.1768 -0.1082 -0.0093
11981DDP     C471886  22.381  11.677  30.104 -0.0621 -0.1339  0.1472
11982DDP     C171887   5.158  22.934   1.930 -0.1866 -0.0251 -0.3785
11982DDP     P171888   5.265  22.547   1.973  0.1289  0.0902 -0.4717
11982DDP     P271889   4.880  23.118   2.266  0.1749 -0.0026 -0.1312
11982DDP     C271890   4.830  23.382   2.506  0.0684  0.1820  0.1288
11982DDP     C371891   5.411  22.335   2.327 -0.3649 -0.0873  0.1324
11982DDP     C471892   5.268  23.144   1.481 -0.0429  0.2002 -0.1807
11983DDP     C171893  11.192  23.050   3.548  0.0095 -0.1266 -0.0422
11983DDP     P171894  11.074  22.609   3.410  0.0565 -0.1292  0.1850
11983DDP     P271895  11.470  23.215   3.705 -0.0627 -0.3085  0.0338
11983DDP     C271896  11.760  23.283   3.505 -0.0595  0.1827 -0.0434
11983DDP     C371897  10.912  22.183   3.395  0.3900 -0.1000  0.1318
11983DDP     C471898  11.127  23.356   3.264  0.0072 -0.0658  0.2051
11984DDP     C171899  12.625  10.777   9.779 -0.2172 -0.0207 -0.0785
11984DDP     P171900  12.966  10.828   9.649  0.0581  0.1741  0.0036
11984DDP     P271901  12.418  11.164   9.748  0.0535 -0.3305  0.0202
11984DDP     C271902  12.507  11.519   9.406  0.0202  0.2492 -0.2195
11984DDP     C371903  13.264  11.091   9.570 -0.1833  0.2706  0.0782
11984DDP     C471904  12.330  10.454  10.134 -0.1702  0.0142 -0.0676
11985DDP     C171905  30.279   8.521  23.611 -0.0263  0.0076  0.1271
11985DDP     P171906  30.102   8.905  23.851  0.0221 -0.1579 -0.0751
11985DDP     P271907  30.082   8.518  23.164  0.2560 -0.2520  0.1233
11985DDP     C271908  29.689   8.714  23.026 -0.0493 -0.1023 -0.3034
11985DDP     C371909  30.274   9.309  23.744  0.1503 -0.0539  0.1371
11985DDP     C471910   0.240   8.336  23.857 -0.0261 -0.1301  0.2863
11986DDP     C171911   5.475   8.154   0.788  0.2836  0.1129 -0.2341
11986DDP     P171912   5.338   7.841   1.060  0.1606 -0.0697  0.0264
11986DDP     P271913   5.741   8.041   0.409  0.1608  0.0854  0.1141
11986DDP     C271914   5.732   8.026  30.256  0.1484 -0.0581  0.1454
11986DDP     C371915   5.106   7.430   0.961  0.2547  0.2946  0.2248
11986DDP     C471916   5.422   8.597   0.767  0.1884  0.0854 -0.0351
11987DDP     C171917  12.558  23.825  18.046 -0.0671 -0.0775 -0.0654
11987DDP     P171918  12.397  24.238  18.207  0.0152  0.0655  0.1128
11987DDP     P271919  12.979  24.029  18.126  0.1757 -0.2102 -0.1953
11987DDP     C271920  13.437  24.152  18.102 -0.2779  0.1822 -0.0577
11987DDP     C371921  11.965  24.339  18.437 -0.1267  0.1538  0.3076
11987DDP     C471922  12.380  23.454  18.057  0.2582 -0.1499  0.2049
11988DDP     C171923  14.725  24.103   0.410 -0.0543  0.0750  0.1890
11988DDP     P171924  15.067  23.724   0.615 -0.0463  0.0459 -0.2275
11988DDP     P271925  14.252  24.016   0.264  0.0140  0.5043 -0.0928
11988DDP     C271926  13.835  23.750   0.213  0.1492  0.1503 -0.1987
11988DDP     C371927  15.107  23.319   0.878  0.1163 -0.1222 -0.0702
11988DDP     C471928  14.786  24.505   0.208 -0.1939  0.1435 -0.2641
11989DDP     C171929   7.276   8.335   5.286 -0.1342  0.0022 -0.0969
11989DDP     P171930   7.761   8.406   5.150  0.0727  0.2958  0.1146
11989DDP     P271931   7.142   7.912   5.391 -0.0439 -0.1620 -0.0685
11989DDP     C271932   7.181   7.501   5.388  0.0807 -0.0671 -0.0385
11989DDP     C371933   8.108   8.719   5.134 -0.0301 -0.0046 -0.1710
11989DDP     C471934   7.349   8.876   5.300 -0.4388  0.3231  0.1828
11990DDP     C171935  17.127  24.925   1.594 -0.0911  0.2014 -0.2356
11990DDP     P171936  16.841  24.667   1.923 -0.2596  0.0626  0.4217
11990DDP     P271937  17.269  25.233   1.706  0.0607  0.2759 -0.1457
11990DDP     C271938  17.580  25.443   1.844 -0.3299  0.1293 -0.3607
11990DDP     C371939  16.360  24.799   1.974  0.1573  0.0392 -0.1733
11990DDP     C471940  17.205  24.653   1.100 -0.2130  0.0507  0.1753
11991DDP     C171941  11.929   7.491  27.055  0.1085  0.1631 -0.1230
11991DDP     P171942  11.662   7.115  26.833  0.1870 -0.1231  0.0329
11991DDP     P271943  11.769   7.562  27.461 -0.3340  0.3999 -0.4237
11991DDP     C271944  11.456   7.514  27.776  0.3132 -0.2882 -0.2349
11991DDP     C371945  11.594   7.068  26.357  0.2131  0.0694  0.1195
11991DDP     C471946  12.314   7.470  27.075 -0.0727 -0.2537 -0.2917
11992DDP     C171947  23.487   9.206  28.173  0.3379 -0.0586  0.0856
11992DDP     P171948  23.040   9.148  28.425 -0.0049 -0.1497 -0.3557
11992DDP     P271949  23.914   9.024  28.021  0.0903 -0.1212 -0.2048
11992DDP     C271950  24.276   8.936  28.196  0.1183 -0.0409  0.1193
11992DDP     C371951  22.640   9.128  28.161 -0.1567  0.3846  0.0439
11992DDP     C471952  23.618   9.645  28.122 -0.1948 -0.1356 -0.1163
11993DDP     C171953   5.073  28.800  28.996  0.1808 -0.0928  0.4472
11993DDP     P171954   4.818  28.443  29.243  0.0079  0.1588  0.2641
11993DDP     P271955   5.407  28.720  28.647 -0.2817 -0.0809 -0.1280
11993DDP     C271956   5.436  28.355  28.337 -0.2987 -0.2502  0.1270
11993DDP     C371957   4.550  28.120  29.373 -0.2486  0.1371 -0.1496
11993DDP     C471958   4.683  29.165  28.950 -0.2863 -0.0279 -0.1321
11994DDP     C171959  29.575  14.987  15.242  0.1409  0.4309 -0.0521
11994DDP     P171960  29.307  14.615  15.410  0.2825  0.1801 -0.1475
11994DDP     P271961  29.449  15.376  15.253  0.3128 -0.2094 -0.1309
11994DDP     C271962  29.316  15.670  14.922  0.2908 -0.1210  0.1303
11994DDP     C371963  29.302  14.307  15.649 -0.1122  0.0744 -0.0224
11994DDP     C471964  29.999  14.907  15.031  0.3181  0.2953  0.0358
11995DDP     C171965  21.741  25.870  12.030  0.1685 -0.2020 -0.1012
11995DDP     P171966  21.398  26.059  11.843 -0.0090 -0.4793  0.0265
11995DDP     P271967  21.852  26.248  12.174  0.2039 -0.1193  0.0682
11995DDP     C271968  21.864  26.624  12.332  0.1701  0.0596 -0.2521
11995DDP     C371969  21.091  26.163  11.510 -0.0268  0.0737  0.1062
11995DDP     C471970  21.818  25.449  11.882 -0.0876  0.2012  0.0081
11996DDP     C171971   9.565  30.177  18.609 -0.1823 -0.1004  0.4150
11996DDP     P171972   9.640  29.845  18.313 -0.0408 -0.0259 -0.0102
11996DDP     P271973   9.210  30.338  18.717  0.1101  0.0885  0.0512
11996DDP     C271974   8.769   0.020  18.606 -0.1750 -0.1063 -0.3418
11996DDP     C371975   9.943  29.710  18.064  0.1462  0.1097  0.1807
11996DDP     C471976  10.018   0.118  18.530 -0.3966  0.0001  0.2036
11997DDP     C171977  23.761  17.084  23.469 -0.3863  0.1002  0.0666
11997DDP     P171978  23.443  17.171  23.751  0.0268 -0.0301  0.0124
11997DDP     P271979  23.662  17.224  22.982  0.2809  0.0461 -0.0884
11997DDP     C271980  23.406  17.513  22.769 -0.1694 -0.0047 -0.0249
11997DDP     C371981  23.325  17.408  24.137  0.0240  0.0503 -0.0522
11997DDP     C471982  23.983  16.785  23.544  0.3796 -0.1420  0.0361
11998DDP     C171983   5.218  24.752  15.198  0.0907  0.0739  0.2340
11998DDP     P171984   4.859  24.588  15.486 -0.0104 -0.2634 -0.1172
11998DDP     P271985   5.135  24.743  14.839 -0.0073 -0.0785  0.2678
11998DDP     C271986   5.215  24.781  14.455  0.0299 -0.3567  0.0130
11998DDP     C371987   4.578  24.528  15.045 -0.0900  0.1448 -0.1085
11998DDP     C471988   5.604  24.946  15.307 -0.0702 -0.3215  0.3658
11999DDP     C171989  10.642   1.889   7.011 -0.1571  0.0495  0.0872
11999DDP     P171990  10.288   1.766   7.323 -0.1257  0.0836 -0.0263
11999DDP     P271991  10.907   1.818   6.600  0.1255 -0.3005 -0.0707
11999DDP     C271992  11.175   1.935   6.195 -0.2388  0.1795  0.1943
11999DDP     C371993  10.044   1.461   7.644  0.2027 -0.0329 -0.1812
11999DDP     C471994  10.774   2.158   7.290  0.1967  0.1100 -0.0827
12000DDP     C171995   0.521   4.434   7.909  0.1904  0.0314 -0.0598
12000DDP     P171996   0.245   4.152   8.206  0.0506 -0.2684 -0.2255
12000DDP     P271997   0.855   4.641   8.183  0.0396  0.0092  0.1425
12000DDP     C271998   1.304   4.613   8.257 -0.2414 -0.0073 -0.1493
12000DDP     C371999   0.241   3.774   8.369  0.0546 -0.1338 -0.1000
12000DDP     C472000   0.543   4.376   7.487 -0.1757 -0.1698  0.0553
12001DDP     C172001  21.769  16.742   8.151 -0.2885 -0.0297  0.0173
12001DDP     P172002  21.888  16.917   8.509 -0.1592 -0.1300 -0.3280
12001DDP     P272003  21.827  16.397   8.444  0.0032 -0.0516  0.0618
12001DDP     C272004  22.175  16.030   8.466 -0.3657  0.1463  0.4458
12001DDP     C372005  21.971  17.241   8.806  0.0108 -0.0184  0.1914
12001DDP     C472006  21.681  16.865   7.705  0.2114  0.1192 -0.2575
12002DDP     C172007  15.745  17.431  14.618 -0.3348  0.1459 -0.1242
12002DDP     P172008  15.844  17.358  15.059  0.2004 -0.2312 -0.3941
12002DDP     P272009  16.142  17.662  14.652 -0.2762 -0.0791  0.0925
12002DDP     C272010  16.297  17.918  14.884  0.1004  0.0438 -0.1313
12002DDP     C372011  15.609  17.171  15.420  0.3558  0.0384 -0.0745
12002DDP     C472012  15.446  17.288  14.336 -0.1385 -0.0033 -0.2945
12003DDP     C172013   1.394  23.637  15.270 -0.2828 -0.3245 -0.1078
12003DDP     P172014   1.427  24.113  15.424  0.0851 -0.0147 -0.3686
12003DDP     P272015   1.025  23.379  15.479 -0.2696  0.2327 -0.0338
12003DDP     C272016   1.067  23.304  15.955  0.1909  0.1174 -0.1948
12003DDP     C372017   1.122  24.370  15.202  0.1094 -0.0709  0.2945
12003DDP     C472018   1.575  23.526  14.956 -0.1693 -0.0793 -0.1722
12004DDP     C172019   0.751  11.064   2.158 -0.1206 -0.0317  0.0332
12004DDP     P172020   0.866  11.470   2.301 -0.0953 -0.0698  0.2309
12004DDP     P272021   0.559  10.919   1.805 -0.1491 -0.0187 -0.1669
12004DDP     C272022   0.565  10.543   1.609 -0.0580 -0.1614  0.0809
12004DDP     C372023   1.104  11.719   1.950  0.0830  0.2189  0.2596
12004DDP     C472024   0.990  10.856   2.437 -0.0598 -0.1226  0.0343
12005DDP     C172025  29.044   6.673   4.524  0.0854  0.3127  0.4504
12005DDP     P172026  28.943   6.984   4.761  0.1967 -0.0709 -0.0199
12005DDP     P272027  29.366   6.406   4.444  0.0517  0.0041  0.0922
12005DDP     C272028  29.773   6.471   4.285  0.0243 -0.1200  0.1733
12005DDP     C372029  29.001   7.188   5.201 -0.0457  0.0880 -0.0002
12005DDP     C472030  28.719   6.583   4.369 -0.3781  0.4313 -0.2936
12006DDP     C172031  25.790   4.720   7.454  0.0722 -0.0081 -0.0140
12006DDP     P172032  25.493   4.707   7.714  0.1814  0.3125 -0.2232
12006DDP     P272033  26.132   4.740   7.720 -0.2396  0.0464 -0.2017
12006DDP     C272034  26.425   4.888   8.133  0.0326  0.0026 -0.1900
12006DDP     C372035  25.305   5.115   7.849 -0.0978  0.3373 -0.1507
12006DDP     C472036  25.894   4.735   7.064  0.3353 -0.0978  0.2396
12007DDP     C172037   7.863  28.054  21.757  0.1073 -0.3975 -0.0855
12007DDP     P172038   7.671  27.735  21.919  0.2531  0.0257  0.2143
12007DDP     P272039   7.678  28.446  21.647 -0.0205 -0.2419 -0.0301
12007DDP     C272040   7.265  28.639  21.375 -0.0900 -0.2208 -0.3398
12007DDP     C372041   7.779  27.313  21.807  0.0669  0.1723 -0.0545
12007DDP     C472042   8.283  27.926  22.036  0.1681  0.3230  0.3841
12008DDP     C172043  24.032  22.024  18.468 -0.1934  0.0181  0.0914
12008DDP     P172044  23.581  21.919  18.479  0.1612  0.0991  0.0122
12008DDP     P272045  24.225  22.222  18.891  0.0851  0.2076 -0.2039
12008DDP     C272046  24.319  22.253  19.355 -0.1094  0.2068  0.0144
12008DDP     C372047  23.260  22.145  18.179 -0.0673 -0.0104  0.0589
12008DDP     C472048  24.283  21.912  18.102  0.0125 -0.2658  0.1241
12009DDP     C172049  22.151   7.455  26.467  0.0804 -0.1754 -0.1119
12009DDP     P172050  22.298   7.477  26.883  0.1283 -0.1105 -0.0319
12009DDP     P272051  21.759   7.540  26.323  0.1497  0.0101 -0.1901
12009DDP     C272052  21.397   7.792  26.501 -0.0882 -0.2003 -0.3493
12009DDP     C372053  22.186   7.584  27.331 -0.4340 -0.0646 -0.0499
12009DDP     C472054  22.457   7.361  26.053  0.1656 -0.0950  0.1645
12010DDP     C172055  28.329   3.960  17.775 -0.0341  0.2602 -0.0596
12010DDP     P172056  28.021   4.060  17.440  0.2104  0.2235 -0.0379
12010DDP     P272057  28.352   3.585  18.069  0.0098  0.1450 -0.1802
12010DDP     C272058  28.268   3.142  18.259  0.0461  0.1469  0.1763
12010DDP     C372059  27.734   4.146  17.181 -0.0792  0.2472  0.1754
12010DDP     C472060  28.787   4.177  17.686  0.1691  0.0881 -0.5057
12011DDP     C172061  16.836  17.105  12.384  0.4508  0.0840 -0.2200
12011DDP     P172062  16.486  16.985  12.014  0.0853  0.2115 -0.2878
12011DDP     P272063  17.104  16.890  12.520 -0.1447  0.1210  0.3148
12011DDP     C272064  17.411  16.527  12.332 -0.2748  0.1848  0.0594
12011DDP     C372065  16.013  16.873  11.883 -0.1494 -0.1694 -0.1463
12011DDP     C472066  16.886  17.473  12.650  0.1195 -0.1270  0.0184
12012DDP     C172067  23.231  22.962  19.952  0.2111 -0.0977  0.0337
12012DDP     P172068  23.425  22.580  19.871  0.1876 -0.0002 -0.1123
12012DDP     P272069  23.095  23.300  19.640 -0.1605  0.0414 -0.1877
12012DDP     C272070  23.034  23.669  19.383 -0.0163 -0.2485 -0.0943
12012DDP     C372071  23.445  22.169  19.877 -0.1871 -0.1594 -0.4493
12012DDP     C472072  23.299  23.160  20.303 -0.2095  0.2815  0.0698
12013DDP     C172073  17.807  29.008   9.703 -0.1480  0.1491  0.2787
12013DDP     P172074  17.452  28.952   9.642  0.0298 -0.1841  0.1657
12013DDP     P272075  18.045  28.933   9.383  0.2053 -0.0264  0.3397
12013DDP     C272076  18.074  28.674   9.097 -0.3684 -0.0112 -0.6006
12013DDP     C372077  17.146  28.863   9.735  0.0984  0.1620 -0.2359
12013DDP     C472078  17.995  28.985  10.146  0.1360  0.0800  0.1088
12014DDP     C172079  11.750  28.615  19.954 -0.1609 -0.2720  0.0200
12014DDP     P172080  11.775  28.958  20.196 -0.0246  0.0859  0.0273
12014DDP     P272081  11.513  28.872  19.641  0.0559 -0.1493  0.0490
12014DDP     C272082  11.389  29.039  19.240 -0.3458  0.1693  0.0104
12014DDP     C372083  11.850  29.315  20.039  0.3323  0.3285 -0.1322
12014DDP     C472084  11.824  28.063  20.076  0.0394 -0.1085 -0.1493
12015DDP     C172085  10.749  14.651  24.241  0.0896  0.0902 -0.0741
12015DDP     P172086  10.585  14.953  24.631  0.1294 -0.1590  0.1058
12015DDP     P272087  10.756  14.693  23.812 -0.1333 -0.0515 -0.0747
12015DDP     C272088  10.482  14.743  23.557 -0.0307 -0.2660 -0.1179
12015DDP     C372089  10.123  15.198  24.919  0.0664  0.0949  0.4397
12015DDP     C472090  10.993  14.414  24.494 -0.1496 -0.4215 -0.0296
12016DDP     C172091  26.165  29.262  29.253 -0.1893  0.0390 -0.1916
12016DDP     P172092  26.322  29.543  28.957  0.0088 -0.2752 -0.5341
12016DDP     P272093  26.428  29.166  29.669 -0.2973  0.1714 -0.0326
12016DDP     C272094  26.399  29.241  30.105  0.1447  0.0899  0.1463
12016DDP     C372095  26.612  29.754  28.760 -0.2504 -0.0025 -0.1639
12016DDP     C472096  25.712  29.210  29.135 -0.1261 -0.2008 -0.0065
12017DDP     C172097  19.236   4.333   1.314  0.1163  0.2720  0.0674
12017DDP     P172098  19.342   4.543   1.648  0.3843 -0.1562 -0.0777
12017DDP     P272099  19.508   3.950   1.177  0.1804  0.2838 -0.1384
12017DDP     C272100  19.742   3.545   1.138 -0.0261 -0.1717 -0.0659
12017DDP     C372101  19.677   4.633   1.874 -0.0565 -0.2244  0.1925
12017DDP     C472102  18.829   4.289   1.235  0.0291  0.0586  0.1377
12018DDP     C172103  12.167   7.529  19.111 -0.3926 -0.0217  0.2804
12018DDP     P172104  12.593   7.716  19.304 -0.0204  0.1204 -0.2297
12018DDP     P272105  11.951   7.644  18.684  0.2458 -0.0330  0.0303
12018DDP     C272106  11.603   7.947  18.548  0.3315  0.2711 -0.0500
12018DDP     C372107  12.995   7.868  19.392 -0.1004  0.2814  0.2245
12018DDP     C472108  12.033   7.211  19.322 -0.2734  0.0199 -0.3106
12019DDP     C172109   1.565  11.431   1.776  0.2011 -0.0078 -0.0923
12019DDP     P172110   1.199  11.166   1.852 -0.1796  0.2495  0.0097
12019DDP     P272111   1.914  11.320   1.552  0.0123  0.0151  0.1765
12019DDP     C272112   2.193  11.137   1.736 -0.0106 -0.2021  0.1198
12019DDP     C372113   1.069  10.733   1.851 -0.1245  0.1803  0.1445
12019DDP     C472114   1.632  11.913   1.793  0.0530 -0.2129 -0.2493
12020DDP     C172115  13.036   2.149  12.955  0.1702  0.0771 -0.2320
12020DDP     P172116  12.630   2.287  13.072 -0.1599 -0.0659 -0.2171
12020DDP     P272117  13.239   2.513  13.248 -0.2395 -0.0495 -0.1465
12020DDP     C272118  13.449   2.580  13.596 -0.0681  0.0548  0.2505
12020DDP     C372119  12.302   2.577  13.179  0.1700  0.2802  0.1106
12020DDP     C472120  13.241   1.933  12.670 -0.1334  0.0949  0.2309
12021DDP     C172121  15.080  10.282  10.272  0.0775  0.1758 -0.4740
12021DDP     P172122  14.954   9.819  10.090 -0.0028  0.2070 -0.2681
12021DDP     P272123  14.868  10.474  10.521  0.2674 -0.2166 -0.0003
12021DDP     C272124  14.693  10.925  10.430  0.0297  0.0613  0.0403
12021DDP     C372125  14.948   9.708   9.781  0.0383 -0.2786  0.1726
12021DDP     C472126  15.557  10.283  10.274  0.0963  0.1993 -0.2120
12022DDP     C172127   9.155   6.191  14.578 -0.0632  0.0611  0.0505
12022DDP     P172128   9.565   6.072  14.738  0.0177  0.1280  0.1799
12022DDP     P272129   8.743   5.969  14.691 -0.0493 -0.3183  0.0145
12022DDP     C272130   8.435   5.909  14.950  0.3565  0.2554 -0.1584
12022DDP     C372131   9.771   5.873  15.156  0.1011 -0.0806  0.0926
12022DDP     C472132   9.178   6.618  14.417  0.0168 -0.2674 -0.1014
12023DDP     C172133  29.137   4.236  29.539 -0.1073  0.1779 -0.1645
12023DDP     P172134  29.063   4.021  29.899  0.0425 -0.1407  0.1172
12023DDP     P272135  28.832   4.104  29.161 -0.3738  0.0462 -0.0023
12023DDP     C272136  28.489   4.070  28.859  0.2536  0.1750  0.2206
12023DDP     C372137  29.080   3.570  29.993  0.2564  0.0236 -0.1414
12023DDP     C472138  29.352   4.591  29.655 -0.2248  0.1966  0.0147
12024DDP     C172139  12.224  12.218  27.819 -0.2907  0.1845 -0.1741
12024DDP     P172140  12.412  12.193  27.387 -0.4364 -0.0673  0.0250
12024DDP     P272141  12.139  11.832  28.066  0.1119 -0.0482 -0.2939
12024DDP     C272142  12.269  11.317  28.116  0.1239  0.1649 -0.1000
12024DDP     C372143  12.802  12.017  27.284 -0.2058  0.1270 -0.1370
12024DDP     C472144  12.033  12.639  27.982 -0.2572  0.1046  0.2460
12025DDP     C172145  22.264  27.231   4.158  0.0019  0.2311  0.1322
12025DDP     P172146  22.635  27.269   4.301 -0.0212 -0.1854  0.1326
12025DDP     P272147  22.038  27.641   4.035  0.2368  0.3572 -0.0120
12025DDP     C272148  21.763  27.948   3.755  0.0988  0.2531 -0.3748
12025DDP     C372149  23.084  27.320   4.399 -0.0047 -0.0740 -0.2725
12025DDP     C472150  21.969  26.856   4.378  0.2400 -0.1931 -0.1119
12026DDP     C172151  19.924  29.597  11.624 -0.1434  0.1126 -0.0204
12026DDP     P172152  19.728  29.283  11.895 -0.0871 -0.1595 -0.0852
12026DDP     P272153  20.339  29.559  11.578  0.3486  0.1823  0.0332
12026DDP     C272154  20.612  29.878  11.368  0.0946  0.1754 -0.5333
12026DDP     C372155  19.564  28.915  12.154 -0.1180 -0.2442 -0.1052
12026DDP     C472156  19.699  29.767  11.287  0.0795  0.0200 -0.2076
12027DDP     C172157   8.184  27.457   5.198 -0.0111  0.1189  0.1714
12027DDP     P172158   8.021  27.487   4.814 -0.2442 -0.1499  0.2387
12027DDP     P272159   8.691  27.522   5.223 -0.0330 -0.1247 -0.0459
12027DDP     C272160   8.980  27.843   5.501 -0.0484 -0.0246 -0.1626
12027DDP     C372161   8.076  27.888   4.559 -0.0606  0.0954  0.0056
12027DDP     C472162   7.875  27.592   5.497  0.1115 -0.0160  0.4749
12028DDP     C172163  15.643  28.932  22.922  0.0359 -0.1358 -0.4681
12028DDP     P172164  15.511  29.152  23.289 -0.0578 -0.0261 -0.0456
12028DDP     P272165  15.489  29.166  22.583 -0.0641  0.1478  0.0972
12028DDP     C272166  15.211  29.386  22.333  0.2707  0.1497 -0.1248
12028DDP     C372167  15.293  29.455  23.470  0.2503 -0.0374  0.0587
12028DDP     C472168  15.823  28.505  22.887  0.1161 -0.3129 -0.2502
12029DDP     C172169   1.342   8.578  30.246 -0.1210  0.0068 -0.0357
12029DDP     P172170   1.578   9.017  30.220  0.0819  0.0016 -0.1323
12029DDP     P272171   1.123   8.394   0.216  0.0899  0.2753  0.4029
12029DDP     C272172   0.678   8.309   0.425  0.1365  0.0319 -0.1513
12029DDP     C372173   1.820   9.234   0.286 -0.1220  0.1571  0.1495
12029DDP     C472174   1.466   8.432  29.801 -0.3765 -0.0200  0.2262
12030DDP     C172175   8.913  14.351   7.585  0.0436  0.2475  0.1552
12030DDP     P172176   8.983  14.844   7.587 -0.3127 -0.0171  0.1140
12030DDP     P272177   9.139  14.014   7.403  0.0800  0.3938  0.0272
12030DDP     C272178   9.428  13.811   7.660  0.1088 -0.0660  0.0193
12030DDP     C372179   8.772  15.154   7.945  0.1069 -0.1328 -0.3013
12030DDP     C472180   8.388  14.353   7.573  0.1045  0.0574  0.2033
12031DDP     C172181  21.201  29.714  17.960 -0.1101  0.0223  0.1808
12031DDP     P172182  21.360  29.515  18.320  0.0446 -0.0686  0.1674
12031DDP     P272183  21.067  30.170  17.907  0.1479  0.0293 -0.2407
12031DDP     C272184  21.150  30.240  17.461  0.1020 -0.2619 -0.2293
12031DDP     C372185  21.358  29.060  18.214  0.1388 -0.0783  0.2214
12031DDP     C472186  21.217  29.381  17.606  0.2148 -0.0727 -0.1348
12032DDP     C172187  22.398   0.795  14.978  0.0853 -0.1213  0.1061
12032DDP     P172188  21.953   0.797  14.863 -0.4202 -0.0626 -0.4825
12032DDP     P272189  22.381   1.098  15.304 -0.0518 -0.4959  0.0221
12032DDP     C272190  22.321   1.521  15.520 -0.3448  0.0513 -0.1837
12032DDP     C372191  21.508   0.887  14.638 -0.0297  0.3100  0.2701
12032DDP     C472192  22.531   0.371  14.861 -0.0042 -0.2335 -0.1865
12033DDP     C172193   1.412   0.733   3.756  0.1959  0.0396  0.1251
12033DDP     P172194   1.540   0.427   4.139  0.0351  0.0550  0.2540
12033DDP     P272195   1.346   1.124   3.777 -0.1867  0.2532  0.1381
12033DDP     C272196   1.139   1.547   3.931 -0.0112 -0.2204  0.1617
12033DDP     C372197   1.635   0.602   4.551  0.1753  0.0477  0.0596
12033DDP     C472198   1.445   0.636   3.412  0.2042  0.1180 -0.3972
12034DDP     C172199   8.149   2.835   3.483 -0.1275  0.1686  0.1473
12034DDP     P172200   8.157   2.865   3.042 -0.2155 -0.1511  0.3279
12034DDP     P272201   8.357   2.520   3.444 -0.1818  0.0321 -0.1571
12034DDP     C272202   8.140   2.349   3.074 -0.2166 -0.1138  0.2278
12034DDP     C372203   8.021   2.774   2.728  0.0187 -0.0628  0.2073
12034DDP     C472204   8.183   3.210   3.801 -0.0877 -0.3008  0.1751
12035DDP     C172205  22.302  10.132  27.466  0.3133 -0.2381  0.0143
12035DDP     P172206  21.978  10.369  27.750 -0.0973  0.1210 -0.1054
12035DDP     P272207  22.295  10.324  27.042  0.0418  0.2089 -0.1339
12035DDP     C272208  22.101  10.513  26.678  0.0572 -0.2292 -0.0935
12035DDP     C372209  21.635  10.546  28.120 -0.1449 -0.2846 -0.1403
12035DDP     C472210  22.390   9.691  27.540  0.1469  0.1937 -0.2351
12036DDP     C172211   9.293  20.942  25.920 -0.1324  0.0147  0.0197
12036DDP     P172212   9.199  21.368  26.162 -0.2492 -0.0152  0.0206
12036DDP     P272213   9.626  21.179  25.791  0.1550 -0.2515  0.1924
12036DDP     C272214   9.771  21.604  25.939  0.0007  0.2746 -0.0042
12036DDP     C372215   8.809  21.577  26.349 -0.1470 -0.0403  0.0365
12036DDP     C472216   9.045  20.608  25.796 -0.1884  0.0370 -0.2447
12037DDP     C172217   2.413   3.986   8.247  0.0164  0.1458  0.0032
12037DDP     P172218   2.458   3.598   7.982 -0.3125 -0.0312  0.1638
12037DDP     P272219   2.624   4.133   8.519  0.2807 -0.1446  0.1860
12037DDP     C272220   2.664   4.278   8.974  0.0270  0.1210 -0.2242
12037DDP     C372221   2.729   3.400   7.728  0.2603 -0.1329 -0.3811
12037DDP     C472222   2.030   4.206   8.072  0.0861 -0.0608 -0.2553
12038DDP     C172223   6.744   0.860   2.984  0.3651 -0.2570  0.0314
12038DDP     P172224   6.712   0.943   3.287 -0.4563  0.2758 -0.0285
12038DDP     P272225   7.209   0.819   2.957  0.0389  0.1012 -0.1253
12038DDP     C272226   7.613   0.634   3.039  0.0990  0.0552  0.0331
12038DDP     C372227   6.678   1.264   3.512 -0.3173  0.1393 -0.0844
12038DDP     C472228   6.335   0.771   2.660  0.0675 -0.1172  0.0356
12039DDP     C172229  11.349   2.624  11.116 -0.1551  0.2026  0.1782
12039DDP     P172230  11.264   2.837  11.555  0.2850 -0.0528 -0.0690
12039DDP     P272231  11.722   2.722  10.901 -0.1824  0.3589  0.1204
12039DDP     C272232  12.067   2.862  10.739  0.0347 -0.0462 -0.3442
12039DDP     C372233  11.286   2.893  12.039  0.0144 -0.0252  0.1442
12039DDP     C472234  10.978   2.304  11.026  0.0022 -0.2084  0.3035
12040DDP     C172235   7.563  19.866  26.850  0.2576  0.0890 -0.2281
12040DDP     P172236   7.910  19.599  26.846  0.0267  0.1711  0.1866
12040DDP     P272237   7.145  19.767  26.808 -0.2945  0.5411 -0.1920
12040DDP     C272238   6.759  19.955  26.534 -0.1766  0.2226  0.0529
12040DDP     C372239   8.058  19.175  26.906  0.1446  0.1657 -0.0630
12040DDP     C472240   7.502  20.296  26.683 -0.1240 -0.0602 -0.0940
12041DDP     C172241  12.897  24.982  12.962 -0.1955 -0.2171 -0.2379
12041DDP     P172242  12.559  25.194  13.069  0.1840  0.2647  0.0140
12041DDP     P272243  13.241  25.262  12.903 -0.0095 -0.2847 -0.0244
12041DDP     C272244  13.544  25.624  12.756 -0.1183 -0.1481 -0.0279
12041DDP     C372245  12.326  25.281  13.524 -0.0297 -0.0786 -0.1987
12041DDP     C472246  12.954  24.573  13.022  0.0499 -0.0732 -0.1358
12042DDP     C172247  13.058  18.513  10.706  0.3552  0.0887 -0.1390
12042DDP     P172248  12.683  18.717  10.669  0.0354 -0.0617  0.0031
12042DDP     P272249  12.930  18.363  11.011  0.1596 -0.0460 -0.2816
12042DDP     C272250  12.604  18.007  11.103 -0.0754 -0.1719  0.1129
12042DDP     C372251  12.168  18.792  10.692 -0.1923 -0.1872  0.1838
12042DDP     C472252  13.237  18.253  10.463  0.1817 -0.0619 -0.0313
12043DDP     C172253  28.492  10.778   5.031  0.2178  0.0223  0.1467
12043DDP     P172254  28.675  10.956   4.612  0.0228  0.1020 -0.2611
12043DDP     P272255  28.163  10.836   5.198 -0.1265  0.1050  0.2380
12043DDP     C272256  27.886  11.147   5.054  0.2758  0.2591  0.1438
12043DDP     C372257  28.866  11.427   4.613  0.3164  0.3434  0.0054
12043DDP     C472258  28.652  10.432   5.309 -0.0653 -0.2442  0.3769
12044DDP     C172259  24.621  29.142  20.031  0.0868  0.0625  0.1450
12044DDP     P172260  24.162  29.031  19.729 -0.6282 -0.4602 -0.3014
12044DDP     P272261  24.411  29.054  20.508 -0.1726 -0.0896 -0.1119
12044DDP     C272262  24.398  29.376  20.806 -0.2009 -0.0517  0.0621
12044DDP     C372263  23.674  29.010  19.736 -0.1122 -0.2757 -0.1683
12044DDP     C472264  25.023  29.406  19.941 -0.0339  0.2950 -0.1929
12045DDP     C172265  15.959  26.271  25.802 -0.1619 -0.1704  0.0786
12045DDP     P172266  15.485  26.058  25.833  0.0278 -0.1064 -0.1406
12045DDP     P272267  15.951  26.489  26.101 -0.1932  0.0068 -0.0663
12045DDP     C272268  16.279  26.652  26.408 -0.0065  0.1593 -0.0207
12045DDP     C372269  15.112  26.268  25.814  0.2332  0.0893 -0.2299
12045DDP     C472270  16.476  26.335  25.673 -0.1881  0.1591  0.3272
12046DDP     C172271  12.538  21.775  27.608  0.0302  0.2561 -0.0398
12046DDP     P172272  12.214  21.775  27.492 -0.0124 -0.0660 -0.0706
12046DDP     P272273  12.970  21.896  27.373  0.0756 -0.1523 -0.2117
12046DDP     C272274  13.338  22.002  27.135  0.3685 -0.1363  0.1545
12046DDP     C372275  11.892  21.741  27.704 -0.0010 -0.4732 -0.2227
12046DDP     C472276  12.481  21.560  28.041 -0.1104  0.0368  0.2078
12047DDP     C172277  25.748  23.290  16.517  0.0045 -0.0102 -0.3163
12047DDP     P172278  25.538  23.008  16.740  0.0454 -0.2267  0.1727
12047DDP     P272279  26.170  23.053  16.382 -0.0277 -0.3059  0.1677
12047DDP     C272280  26.464  23.143  16.030  0.1784  0.4309  0.2285
12047DDP     C372281  25.297  22.745  16.592  0.0319  0.0548  0.1163
12047DDP     C472282  25.499  23.607  16.346  0.1176  0.0954 -0.2650
12048DDP     C172283  22.048   3.623   3.426 -0.0706  0.0813  0.1706
12048DDP     P172284  21.990   3.998   3.433  0.1987  0.2134  0.0503
12048DDP     P272285  22.253   3.279   3.737 -0.1670  0.3977 -0.1100
12048DDP     C272286  22.345   2.795   3.904  0.0520 -0.0992 -0.0726
12048DDP     C372287  21.793   4.411   3.547 -0.1670  0.0658  0.0293
12048DDP     C472288  21.962   3.516   3.002  0.0682 -0.3006  0.0562
12049DDP     C172289   5.039   1.716  27.031  0.1077  0.1623 -0.0753
12049DDP     P172290   5.318   1.839  27.323 -0.2332  0.1513 -0.2172
12049DDP     P272291   4.857   1.361  27.084  0.0808 -0.1996  0.0180
12049DDP     C272292   4.976   0.966  27.111  0.1609  0.2626 -0.1038
12049DDP     C372293   5.719   1.847  27.512  0.0029 -0.0437  0.2519
12049DDP     C472294   4.791   2.044  26.790 -0.4516 -0.1638 -0.0116
12050DDP     C172295   7.300  18.920   7.969 -0.1670  0.0969  0.1428
12050DDP     P172296   7.338  19.121   8.430 -0.0697  0.1630 -0.0663
12050DDP     P272297   7.598  18.668   7.776 -0.1489 -0.1424 -0.2182
12050DDP     C272298   7.839  18.359   7.830 -0.1486  0.3673 -0.0150
12050DDP     C372299   7.507  18.993   8.824 -0.1967  0.0417 -0.1281
12050DDP     C472300   6.849  18.898   7.722 -0.0457 -0.2821 -0.4379
12051DDP     C172301  29.541   6.540  15.234 -0.1265 -0.0517 -0.1218
12051DDP     P172302  29.452   6.465  14.830 -0.2779 -0.2916  0.1480
12051DDP     P272303  29.457   6.841  15.617 -0.0035 -0.2327  0.1418
12051DDP     C272304  29.399   6.682  16.057  0.0992  0.3865 -0.0481
12051DDP     C372305  29.176   6.627  14.470 -0.1323  0.0831 -0.0723
12051DDP     C472306  30.026   6.551  15.164  0.0823  0.0055 -0.2684
12052DDP     C172307  14.042  18.245  16.289  0.2976  0.2648  0.1519
12052DDP     P172308  14.314  18.439  16.077 -0.3341 -0.2492 -0.2396
12052DDP     P272309  13.624  18.385  16.077 -0.0775  0.0100  0.0324
12052DDP     C272310  13.476  18.820  16.175  0.0733  0.3821  0.1619
12052DDP     C372311  14.512  18.706  15.803  0.0694 -0.2334  0.1813
12052DDP     C472312  14.105  18.001  16.643  0.0804 -0.0601 -0.2305
12053DDP     C172313  12.117  16.038   5.849 -0.2329 -0.4387  0.0090
12053DDP     P172314  12.204  15.763   5.515  0.0422  0.0031  0.1612
12053DDP     P272315  12.077  16.460   5.801 -0.1027 -0.0007 -0.1126
12053DDP     C272316  12.158  16.905   5.681  0.1343  0.1925  0.2527
12053DDP     C372317  12.061  15.471   5.367  0.0019 -0.2265 -0.1079
12053DDP     C472318  12.123  15.809   6.207 -0.1545 -0.0058 -0.4200
12054DDP     C172319   9.489   8.721  11.720 -0.0240 -0.0302  0.3629
12054DDP     P172320   9.105   8.625  11.580 -0.1209 -0.1591 -0.0791
12054DDP     P272321   9.551   9.070  11.971 -0.2519 -0.0078 -0.1665
12054DDP     C272322   9.953   9.455  12.087  0.0067 -0.2935 -0.2186
12054DDP     C372323   8.850   8.324  11.558  0.0254 -0.1602 -0.2126
12054DDP     C472324   9.825   8.532  11.628 -0.1747  0.0307 -0.2417
12055DDP     C172325  14.008  22.270   8.834 -0.0008  0.2790  0.0825
12055DDP     P172326  13.861  22.221   8.468 -0.0092 -0.0419  0.2193
12055DDP     P272327  14.389  21.958   8.946 -0.4326  0.1787  0.0113
12055DDP     C272328  14.689  21.743   9.158  0.3517 -0.2140 -0.1619
12055DDP     C372329  13.791  22.075   8.007  0.0209 -0.0352  0.2665
12055DDP     C472330  13.763  22.323   9.114 -0.2153  0.0069  0.0029
12056DDP     C172331  18.307  13.559  29.009  0.0538 -0.0342  0.2068
12056DDP     P172332  18.442  13.239  28.994 -0.3135  0.0648 -0.5785
12056DDP     P272333  18.501  13.702  29.438 -0.0786  0.0827 -0.1747
12056DDP     C272334  18.683  14.104  29.370  0.2345 -0.1469  0.1036
12056DDP     C372335  18.354  12.719  29.067  0.2149  0.0711 -0.0888
12056DDP     C472336  18.063  13.689  28.795 -0.2610  0.0919  0.5753
12057DDP     C172337   9.409   8.581   1.792  0.2137 -0.0014  0.0385
12057DDP     P172338   9.644   8.784   1.425  0.3226  0.1459  0.1463
12057DDP     P272339   8.941   8.583   1.920 -0.3233  0.1280 -0.2000
12057DDP     C272340   8.515   8.336   1.871 -0.1249  0.1212  0.2865
12057DDP     C372341   9.763   8.816   1.032  0.0311  0.1680 -0.0176
12057DDP     C472342   9.589   8.231   1.955  0.1579 -0.0269  0.2640
12058DDP     C172343  11.106   5.171  12.245  0.1567  0.2530 -0.1025
12058DDP     P172344  11.084   5.637  12.051  0.0168  0.0075  0.0042
12058DDP     P272345  11.477   4.920  12.158 -0.1495  0.4087  0.2823
12058DDP     C272346  11.902   5.057  12.031  0.3275  0.0529 -0.0749
12058DDP     C372347  11.372   5.690  11.690 -0.0601 -0.0718  0.0661
12058DDP     C472348  10.714   5.033  12.427  0.2716 -0.2349 -0.3185
12059DDP     C172349  29.771   1.230  15.859 -0.1564  0.2444  0.1458
12059DDP     P172350  29.814   0.991  15.517 -0.3755  0.1697  0.1261
12059DDP     P272351  29.331   1.419  16.018 -0.1137 -0.3971  0.0916
12059DDP     C272352  29.093   1.790  16.096  0.0942  0.0108  0.0318
12059DDP     C372353  29.582   0.891  15.127 -0.0389 -0.2008 -0.0627
12059DDP     C472354  30.078   1.405  16.131  0.1105  0.0875  0.2004
12060DDP     C172355   2.381  26.918  10.973  0.0413 -0.1247 -0.0006
12060DDP     P172356   2.714  26.900  11.150 -0.1283  0.1383  0.1454
12060DDP     P272357   2.034  26.487  11.084 -0.0142 -0.0348  0.0733
12060DDP     C272358   1.794  26.187  11.150  0.0688  0.1592  0.0293
12060DDP     C372359   3.158  27.035  11.314 -0.1798 -0.2405 -0.3845
12060DDP     C472360   2.289  27.236  10.605  0.0436 -0.1335  0.2003
12061DDP     C172361  17.518  16.428  29.491 -0.2148 -0.2750 -0.0343
12061DDP     P172362  17.819  16.607  29.182 -0.2106  0.1692 -0.1135
12061DDP     P272363  17.710  16.137  29.602 -0.2970  0.1685 -0.0580
12061DDP     C272364  17.987  15.788  29.621 -0.1703  0.0291  0.3309
12061DDP     C372365  17.943  16.539  28.746  0.0292 -0.0139 -0.0486
12061DDP     C472366  17.270  16.642  29.874  0.3300 -0.1767 -0.1655
12062DDP     C172367   8.824   4.297  21.403 -0.0650  0.1784  0.2402
12062DDP     P172368   8.609   4.028  21.186  0.1459  0.2115 -0.1195
12062DDP     P272369   8.692   4.610  21.442  0.0261  0.0310  0.0741
12062DDP     C272370   8.316   4.740  21.704 -0.1083  0.0539  0.0762
12062DDP     C372371   8.640   3.844  20.747  0.2488 -0.0300 -0.0467
12062DDP     C472372   9.271   4.277  21.248 -0.0208 -0.3578 -0.0566
12063DDP     C172373  20.102  14.091   4.888  0.0453 -0.0515  0.0155
12063DDP     P172374  20.331  14.386   5.193 -0.0267 -0.2177 -0.1960
12063DDP     P272375  19.758  14.375   4.837  0.1033  0.3164  0.0053
12063DDP     C272376  19.559  14.668   4.658 -0.3468  0.0788 -0.1076
12063DDP     C372377  20.403  14.732   5.377  0.2175  0.2397 -0.2619
12063DDP     C472378  20.310  13.985   4.572  0.3692  0.2009 -0.2165
12064DDP     C172379  18.103   5.770  24.091  0.1284 -0.0278 -0.0330
12064DDP     P172380  17.752   5.689  24.311  0.4017 -0.2250  0.0697
12064DDP     P272381  18.024   5.785  23.603  0.1927 -0.1417  0.1742
12064DDP     C272382  17.670   5.967  23.442 -0.3679  0.1242  0.0893
12064DDP     C372383  17.256   5.627  24.547 -0.1497 -0.0127  0.0750
12064DDP     C472384  18.521   5.848  24.195 -0.0924  0.0581  0.0323
12065DDP     C172385  27.386  21.534  11.007  0.2621  0.0949  0.1805
12065DDP     P172386  27.280  21.793  10.681 -0.1472 -0.2656 -0.3126
12065DDP     P272387  27.388  21.614  11.441  0.2740  0.0878 -0.1898
12065DDP     C272388  27.719  21.899  11.644  0.0184  0.0408 -0.1835
12065DDP     C372389  27.516  22.061  10.406  0.1076 -0.0516  0.1746
12065DDP     C472390  27.507  21.093  10.990 -0.1703 -0.0621  0.1004
12066DDP     C172391   1.712  22.228  25.092  0.0012 -0.3353 -0.2334
12066DDP     P172392   2.072  22.385  25.142  0.0674  0.1099  0.2922
12066DDP     P272393   1.458  21.946  25.233 -0.1488  0.2179  0.3061
12066DDP     C272394   1.013  21.826  25.335 -0.0828  0.1528  0.0754
12066DDP     C372395   2.382  22.697  25.163 -0.2011  0.0619  0.0950
12066DDP     C472396   1.472  22.502  24.833  0.1732 -0.2439 -0.0065
12067DDP     C172397  14.698  12.406  23.427 -0.0801 -0.1846  0.1710
12067DDP     P172398  14.322  12.385  23.574 -0.2603 -0.0370  0.2324
12067DDP     P272399  14.846  12.084  23.034  0.0177 -0.0796 -0.4152
12067DDP     C272400  15.218  11.930  22.849 -0.0276  0.0551  0.1138
12067DDP     C372401  14.073  12.613  23.832  0.0067  0.2251  0.0847
12067DDP     C472402  14.922  12.863  23.567 -0.2608 -0.1051  0.0838
12068DDP     C172403  17.899  27.110  20.543  0.1778 -0.3039 -0.0508
12068DDP     P172404  17.881  27.580  20.666  0.3049  0.0579  0.1445
12068DDP     P272405  17.798  26.946  20.192 -0.2549  0.1637 -0.0735
12068DDP     C272406  18.024  26.865  19.749  0.1394 -0.0388  0.1342
12068DDP     C372407  17.972  27.987  20.598  0.0661  0.0665 -0.2164
12068DDP     C472408  18.006  26.828  20.826  0.1280 -0.1178  0.0604
12069DDP     C172409  26.589   0.194  21.037 -0.5583  0.2902  0.0657
12069DDP     P172410  26.826   0.451  20.908 -0.0294 -0.1440  0.2244
12069DDP     P272411  26.753   0.359  21.421  0.0746  0.3678 -0.4075
12069DDP     C272412  26.810   0.525  21.848 -0.0909  0.3360  0.0474
12069DDP     C372413  27.148   0.641  20.788  0.0396 -0.3280  0.0590
12069DDP     C472414  26.326  30.180  21.066 -0.0553  0.0060 -0.2497
12070DDP     C172415   0.783  16.342  26.666 -0.1084  0.0422  0.1764
12070DDP     P172416   0.512  16.545  26.874  0.2485  0.0480  0.0420
12070DDP     P272417   0.835  15.928  26.471  0.0947 -0.0186 -0.3563
12070DDP     C272418   0.983  15.697  26.096 -0.0841  0.1528 -0.0472
12070DDP     C372419   0.722  16.675  27.304 -0.1170  0.2861  0.1474
12070DDP     C472420   1.105  16.458  26.763 -0.1943 -0.0440 -0.0200
12071DDP     C172421  24.480  18.290   9.252 -0.0267 -0.0338  0.0193
12071DDP     P172422  24.218  18.646   9.296 -0.1030 -0.3477 -0.1358
12071DDP     P272423  24.590  18.398   8.736 -0.0211  0.1059 -0.2172
12071DDP     C272424  24.710  18.498   8.365  0.0597 -0.1933  0.0249
12071DDP     C372425  24.248  18.836   9.687  0.0633 -0.0600  0.0486
12071DDP     C472426  24.356  18.019   9.678 -0.5459 -0.1340  0.2085
12072DDP     C172427   4.394  13.636  18.283 -0.0684  0.2178 -0.0259
12072DDP     P172428   4.796  13.557  18.291 -0.1396  0.1214  0.1045
12072DDP     P272429   4.192  13.470  17.889  0.1816 -0.0250 -0.0452
12072DDP     C272430   3.982  13.336  17.574  0.1557  0.0662  0.1836
12072DDP     C372431   5.267  13.549  18.405 -0.1749 -0.1241 -0.0695
12072DDP     C472432   4.179  13.801  18.674  0.3421  0.0672  0.4135
12073DDP     C172433  29.961  27.785  21.397 -0.0037 -0.1603  0.2556
12073DDP     P172434  29.733  28.196  21.272 -0.0308 -0.1853  0.0836
12073DDP     P272435  -0.006  27.676  21.520 -0.1082 -0.2786  0.3789
12073DDP     C272436   0.266  27.547  21.901  0.0152 -0.0944 -0.2632
12073DDP     C372437  29.892  28.623  21.477  0.0185  0.0314 -0.3150
12073DDP     C472438  29.703  27.416  21.396  0.1618 -0.0404 -0.1512
12074DDP     C172439   6.767  11.288   3.026 -0.2259 -0.1653  0.0119
12074DDP     P172440   6.737  11.002   3.192  0.5634 -0.1366 -0.2692
12074DDP     P272441   7.168  11.528   3.036 -0.1798  0.0403 -0.1932
12074DDP     C272442   7.590  11.420   2.856 -0.1340  0.1329 -0.2896
12074DDP     C372443   6.630  10.847   3.587 -0.3130 -0.2490 -0.1965
12074DDP     C472444   6.499  11.271   2.666  0.3340  0.2790  0.0759
12075DDP     C172445  20.075   5.546   3.087  0.4331  0.3194  0.0183
12075DDP     P172446  19.629   5.273   3.079  0.1182  0.0922  0.0922
12075DDP     P272447  19.842   6.036   3.181 -0.0383  0.3098 -0.2303
12075DDP     C272448  19.723   6.595   3.256  0.2594  0.0898  0.3374
12075DDP     C372449  19.179   5.180   2.868 -0.0449 -0.0230 -0.2392
12075DDP     C472450  20.409   5.389   3.024  0.1440 -0.0937  0.0892
12076DDP     C172451   5.708  25.625  26.808 -0.1962 -0.0625 -0.0884
12076DDP     P172452   5.973  25.404  27.144  0.4221  0.0225  0.1533
12076DDP     P272453   5.815  25.563  26.344  0.0093  0.3431  0.0886
12076DDP     C272454   5.810  25.836  26.002 -0.1044  0.1333  0.1066
12076DDP     C372455   6.086  25.089  27.388  0.2053 -0.0795 -0.3144
12076DDP     C472456   5.602  26.029  27.003  0.1226  0.0428 -0.0679
12077DDP     C172457  17.138   0.799  26.155 -0.0973  0.2604 -0.0124
12077DDP     P172458  17.338   0.668  26.542  0.1862 -0.2225 -0.1145
12077DDP     P272459  17.011   1.168  26.214 -0.0008  0.1449 -0.1366
12077DDP     C272460  17.191   1.587  26.075  0.1059  0.0562  0.2899
12077DDP     C372461  17.433   0.632  26.928 -0.0772  0.0882 -0.3052
12077DDP     C472462  16.953   0.518  25.856 -0.1594 -0.0180 -0.0710
12078DDP     C172463  26.811  27.581  26.654 -0.0418  0.1984  0.0680
12078DDP     P172464  26.828  27.960  26.936  0.1162  0.0221 -0.2716
12078DDP     P272465  26.480  27.534  26.428  0.1087 -0.2713  0.1355
12078DDP     C272466  26.100  27.477  26.786 -0.1441 -0.2176  0.3024
12078DDP     C372467  26.786  28.415  27.121  0.1261 -0.1899  0.0485
12078DDP     C472468  27.165  27.287  26.707  0.1344 -0.2843  0.2752
12079DDP     C172469   5.053  17.459   3.797 -0.3355 -0.0707  0.0960
12079DDP     P172470   5.319  17.386   3.375 -0.2404  0.1429  0.0936
12079DDP     P272471   5.221  17.767   4.060  0.0989  0.3191  0.1494
12079DDP     C272472   5.153  18.111   4.272  0.1772 -0.1285  0.1248
12079DDP     C372473   5.366  17.266   2.936 -0.3340 -0.0269 -0.2630
12079DDP     C472474   4.977  17.033   3.931  0.2232  0.0247  0.1164
12080DDP     C172475  14.611  18.490  10.280  0.2250  0.0316  0.2314
12080DDP     P172476  14.805  18.352  10.513 -0.0036 -0.0168 -0.4118
12080DDP     P272477  14.692  18.958  10.179  0.0669 -0.0043  0.1537
12080DDP     C272478  14.574  19.173   9.759  0.0719  0.1370  0.3409
12080DDP     C372479  15.180  18.165  10.547 -0.0346  0.0146  0.1190
12080DDP     C472480  14.263  18.224  10.070  0.1504 -0.2868 -0.0832
12081DDP     C172481   2.050  14.175  15.401  0.4340  0.1571 -0.2594
12081DDP     P172482   2.153  14.501  15.209  0.2810  0.1737  0.1565
12081DDP     P272483   1.706  14.325  15.726 -0.3036  0.1716 -0.2240
12081DDP     C272484   1.675  14.174  16.149  0.0396 -0.2144  0.1019
12081DDP     C372485   1.967  14.734  14.931 -0.1358 -0.1660  0.1507
12081DDP     C472486   2.306  13.868  15.507  0.0287 -0.0868  0.0460
12082DDP     C172487  26.519  26.664  14.358 -0.1867 -0.0988 -0.0640
12082DDP     P172488  26.238  26.478  14.138  0.3973  0.0684  0.1092
12082DDP     P272489  26.890  26.857  14.245  0.1661 -0.2354  0.0759
12082DDP     C272490  27.154  27.152  13.905  0.0442  0.0214 -0.2193
12082DDP     C372491  26.089  26.109  13.956  0.1409 -0.1702  0.1201
12082DDP     C472492  26.279  26.826  14.681  0.2553  0.0782 -0.1354
12083DDP     C172493   0.532   0.031  20.624 -0.0688 -0.0689  0.0427
12083DDP     P172494   0.269   0.403  20.465 -0.3037  0.2960  0.2158
12083DDP     P272495   0.170  30.052  20.871  0.0120  0.1208  0.0048
12083DDP     C272496  30.018  30.007  20.847  0.0582 -0.0558  0.1202
12083DDP     C372497   0.063   0.676  20.225  0.0198  0.1588 -0.2648
12083DDP     C472498   0.915   0.123  20.668 -0.3477 -0.0677 -0.0375
12084DDP     C172499  20.854  29.099   9.777  0.1117 -0.0459 -0.0982
12084DDP     P172500  20.646  29.416   9.583 -0.1028 -0.1250 -0.1012
12084DDP     P272501  20.608  28.823  10.025  0.3937 -0.0467  0.1933
12084DDP     C272502  20.294  28.758  10.314  0.2300 -0.2489 -0.2041
12084DDP     C372503  20.448  29.784   9.672 -0.0214 -0.0771  0.1602
12084DDP     C472504  21.254  29.179   9.870  0.2606 -0.0106  0.1234
12085DDP     C172505   2.015  13.528  17.181  0.2312 -0.0588  0.3669
12085DDP     P172506   1.714  13.250  17.087 -0.0705  0.0681 -0.1528
12085DDP     P272507   2.309  13.643  16.821  0.1209  0.0991  0.0799
12085DDP     C272508   2.528  13.713  16.373 -0.0634  0.3868  0.0538
12085DDP     C372509   1.413  12.925  17.246 -0.1133  0.1874  0.1115
12085DDP     C472510   2.019  13.708  17.563 -0.2095  0.0547  0.4134
12086DDP     C172511  21.615   2.690  20.584 -0.1400 -0.2121  0.0014
12086DDP     P172512  21.683   2.990  20.893 -0.1692 -0.1692  0.1208
12086DDP     P272513  21.686   2.314  20.804  0.1185  0.1339 -0.0860
12086DDP     C272514  21.853   2.033  21.225 -0.0253  0.1369  0.3618
12086DDP     C372515  21.379   3.120  21.279 -0.0746  0.0271 -0.1429
12086DDP     C472516  21.281   2.788  20.259  0.0790 -0.1812 -0.2756
12087DDP     C172517  11.144  11.788  27.181 -0.0416 -0.0574 -0.1835
12087DDP     P172518  11.078  11.362  27.323  0.0846 -0.0043  0.2583
12087DDP     P272519  11.446  12.178  27.336  0.0372 -0.2216  0.3139
12087DDP     C272520  11.818  12.419  27.492  0.0434 -0.0393  0.0543
12087DDP     C372521  10.775  11.013  27.478  0.3059 -0.2711  0.1034
12087DDP     C472522  10.898  11.970  26.874 -0.1368 -0.3181  0.1524
12088DDP     C172523  10.813  20.490  23.610 -0.1673  0.3568  0.1057
12088DDP     P172524  10.958  20.086  23.380 -0.0311 -0.0442 -0.0171
12088DDP     P272525  10.975  20.810  23.328 -0.0697  0.2946 -0.2377
12088DDP     C272526  10.971  20.928  22.928 -0.0045 -0.0035 -0.1147
12088DDP     C372527  11.232  19.696  23.592 -0.0382 -0.0504  0.2872
12088DDP     C472528  10.629  20.597  23.961 -0.0240 -0.0921 -0.1001
12089DDP     C172529  20.672   0.032  13.736 -0.0526  0.0598 -0.0596
12089DDP     P172530  20.171  -0.009  13.883  0.2495 -0.3010  0.2108
12089DDP     P272531  20.818   0.067  13.340 -0.1588 -0.2579  0.0983
12089DDP     C272532  20.820   0.469  13.011  0.0558  0.1378  0.0272
12089DDP     C372533  19.868   0.086  14.149  0.1222 -0.2135  0.0806
12089DDP     C472534  21.063  30.191  13.937  0.1726  0.0276  0.1622
12090DDP     C172535   0.510  13.310  26.775 -0.3582 -0.0135  0.0016
12090DDP     P172536   0.616  13.333  26.312 -0.0390 -0.0860 -0.1074
12090DDP     P272537   0.639  13.002  27.000  0.2599  0.3611 -0.0235
12090DDP     C272538   0.894  12.692  27.263  0.0699  0.0794 -0.0349
12090DDP     C372539   0.865  13.588  26.005  0.1627 -0.1909  0.1009
12090DDP     C472540   0.295  13.587  26.912 -0.1667  0.2100  0.3004
12091DDP     C172541  26.908   0.627   0.132  0.0036 -0.1171  0.0610
12091DDP     P172542  26.474   0.773   0.196  0.0390 -0.2774 -0.1564
12091DDP     P272543  26.895   0.444  30.070  0.0420  0.1572  0.2382
12091DDP     C272544  27.317   0.395  29.917  0.1130  0.1296 -0.0120
12091DDP     C372545  26.193   0.997   0.424  0.1556  0.0993  0.1584
12091DDP     C472546  27.146   0.495   0.564 -0.1675  0.0147 -0.1174
12092DDP     C172547  20.340  11.597  22.708  0.0763 -0.0852  0.0889
12092DDP     P172548  20.766  11.356  22.677 -0.1015  0.1375 -0.0284
12092DDP     P272549  20.327  11.697  23.121 -0.0986  0.2112 -0.2410
12092DDP     C272550  20.371  11.789  23.571  0.0394  0.0088 -0.0589
12092DDP     C372551  21.127  11.007  22.646  0.1178 -0.0582 -0.1239
12092DDP     C472552  19.970  11.605  22.407 -0.1669  0.0567 -0.2621
12093DDP     C172553  21.156   7.475  21.173 -0.1660 -0.1616  0.1853
12093DDP     P172554  21.496   7.315  21.334 -0.1064  0.1166 -0.0215
12093DDP     P272555  20.864   7.431  21.549  0.0153  0.3345 -0.0795
12093DDP     C272556  20.650   7.127  21.911  0.0626  0.2277  0.2987
12093DDP     C372557  21.837   7.011  21.505  0.2427  0.1749  0.0645
12093DDP     C472558  21.114   7.603  20.706 -0.1417 -0.1506  0.1804
12094DDP     C172559   2.608  12.524  26.386  0.3749  0.2754  0.2562
12094DDP     P172560   2.868  12.850  26.321  0.1153  0.2957 -0.3993
12094DDP     P272561   2.764  12.229  26.738  0.0658 -0.1077 -0.0720
12094DDP     C272562   3.141  11.980  26.755  0.0044 -0.0321 -0.1499
12094DDP     C372563   3.065  13.083  25.998  0.0924 -0.0873 -0.3440
12094DDP     C472564   2.295  12.281  26.149  0.1851  0.1942  0.1638
12095DDP     C172565  10.369   2.566  25.206  0.0395  0.2523  0.2623
12095DDP     P172566  10.688   2.316  25.029  0.1021  0.0965 -0.0971
12095DDP     P272567  10.087   2.839  25.170 -0.0755  0.0844 -0.0500
12095DDP     C272568   9.803   3.030  24.815  0.0410  0.2085  0.4465
12095DDP     C372569  11.010   2.068  25.172  0.1811 -0.0448 -0.1507
12095DDP     C472570  10.629   2.804  25.259  0.0050 -0.1691  0.1717
12096DDP     C172571  10.872  12.002  17.634  0.1888 -0.0712 -0.2084
12096DDP     P172572  10.701  11.929  17.980  0.1082 -0.0592 -0.5117
12096DDP     P272573  11.285  12.171  17.612 -0.2194  0.2269  0.1820
12096DDP     C272574  11.474  12.486  17.799  0.1587  0.0574  0.1104
12096DDP     C372575  10.996  12.087  18.320 -0.1314  0.1656  0.2651
12096DDP     C472576  10.651  12.193  17.334  0.0194 -0.0521 -0.0648
12097DDP     C172577   3.188   4.214   0.686 -0.0650 -0.1171  0.1470
12097DDP     P172578   2.944   4.600   0.591 -0.5210  0.1662 -0.0006
12097DDP     P272579   3.627   4.173   0.620  0.3000 -0.0861  0.0281
12097DDP     C272580   4.080   4.240   0.698 -0.0863  0.1381  0.1039
12097DDP     C372581   2.738   4.776   0.872 -0.3362 -0.0349 -0.2633
12097DDP     C472582   2.875   4.011   0.781 -0.0030 -0.0770  0.1222
12098DDP     C172583   7.933   7.841   8.648  0.0695  0.0700 -0.1941
12098DDP     P172584   8.077   7.720   8.215  0.1632 -0.0083  0.0219
12098DDP     P272585   7.496   8.017   8.628 -0.1679 -0.0886  0.3101
12098DDP     C272586   7.498   8.541   8.707 -0.0867 -0.0972 -0.0661
12098DDP     C372587   8.201   7.345   8.063  0.0064  0.0892  0.4112
12098DDP     C472588   8.171   7.919   9.020 -0.0359 -0.1325  0.0726
12099DDP     C172589  26.455  29.297  12.355 -0.0390  0.3080  0.1237
12099DDP     P172590  26.810  29.238  12.608  0.1916 -0.2127 -0.0751
12099DDP     P272591  26.324  29.016  12.076 -0.2161  0.0037 -0.1381
12099DDP     C272592  26.543  29.036  11.674  0.0179  0.2771 -0.3586
12099DDP     C372593  27.208  29.168  12.616 -0.1998 -0.0657  0.3137
12099DDP     C472594  26.072  29.501  12.439 -0.0343 -0.2969  0.2526
12100DDP     C172595  20.475  11.402  11.307 -0.1986  0.3297 -0.0363
12100DDP     P172596  20.698  11.232  11.726  0.0254 -0.2834  0.0702
12100DDP     P272597  20.425  10.978  11.126 -0.0610 -0.3598  0.2340
12100DDP     C272598  20.095  10.690  10.919  0.1136 -0.0233 -0.0838
12100DDP     C372599  20.632  10.874  11.958 -0.5409 -0.0320  0.1718
12100DDP     C472600  20.099  11.729  11.197  0.0527  0.1928  0.1216
12101DDP     C172601  18.687   4.988  17.608  0.0288 -0.6021  0.0691
12101DDP     P172602  18.830   4.637  17.974 -0.1992  0.0813 -0.1161
12101DDP     P272603  18.582   4.993  17.163  0.1757  0.0246  0.0015
12101DDP     C272604  18.680   5.109  16.760 -0.0973  0.2707  0.0563
12101DDP     C372605  19.105   4.329  18.054 -0.3682 -0.0112  0.1142
12101DDP     C472606  18.776   5.467  17.648  0.0482  0.1615  0.0115
12102DDP     C172607  21.893   7.721   6.807  0.1559  0.2079  0.0469
12102DDP     P172608  21.608   7.834   6.426  0.0003 -0.1435  0.2027
12102DDP     P272609  21.849   7.296   6.862 -0.0205  0.2011  0.2796
12102DDP     C272610  21.515   6.948   6.772  0.0227  0.0116 -0.3083
12102DDP     C372611  21.444   8.116   6.120  0.1246  0.0296  0.1614
12102DDP     C472612  22.090   8.070   7.156  0.1561 -0.4035 -0.0097
12103DDP     C172613  28.478  18.776  22.044  0.1452  0.0128  0.2753
12103DDP     P172614  28.472  18.934  22.416  0.4900 -0.0715  0.1055
12103DDP     P272615  28.577  18.397  21.984 -0.0070 -0.1416 -0.1284
12103DDP     C272616  28.702  18.074  21.775 -0.1182 -0.0694 -0.1347
12103DDP     C372617  28.813  19.084  22.649 -0.1204 -0.2671  0.0416
12103DDP     C472618  28.265  19.016  21.810 -0.0291  0.2374  0.3178
12104DDP     C172619  22.148  10.538  11.551  0.2790 -0.0946  0.1240
12104DDP     P172620  22.633  10.509  11.630  0.0101 -0.0568  0.0455
12104DDP     P272621  21.752  10.868  11.644 -0.1998 -0.0323 -0.1007
12104DDP     C272622  21.344  11.003  11.409  0.1580 -0.0256 -0.1069
12104DDP     C372623  23.093  10.528  11.519  0.0286 -0.1835 -0.0160
12104DDP     C472624  21.884  10.275  11.287 -0.0028  0.0163 -0.0466
12105DDP     C172625   5.591  30.004  21.560  0.2994  0.2777 -0.2478
12105DDP     P172626   5.223  30.005  21.483  0.0955  0.3000  0.1075
12105DDP     P272627   5.633   0.196  21.516 -0.1495 -0.0354  0.2919
12105DDP     C272628   5.467   0.233  21.178 -0.2733 -0.1212  0.0472
12105DDP     C372629   4.763  30.024  21.296 -0.4870 -0.2312 -0.5158
12105DDP     C472630   5.613  29.854  21.951 -0.0717  0.0320 -0.0238
12106DDP     C172631  21.922   0.449   5.525  0.2508  0.0845 -0.0498
12106DDP     P172632  22.258   0.564   5.352  0.0913  0.2627  0.3265
12106DDP     P272633  21.439   0.376   5.398  0.0824  0.2454  0.2202
12106DDP     C272634  21.314   0.302   5.025  0.0646  0.0446  0.0360
12106DDP     C372635  22.701   0.514   5.231  0.0227  0.0935  0.1347
12106DDP     C472636  21.882   0.423   5.994  0.0944  0.0537  0.2849
12107DDP     C172637  26.101  21.762  21.638  0.0110  0.0604  0.1083
12107DDP     P172638  26.265  21.876  21.827  0.0462 -0.0968  0.0998
12107DDP     P272639  25.775  21.956  21.362 -0.0343 -0.0111  0.2139
12107DDP     C272640  25.345  22.040  21.194  0.1800  0.0893 -0.1093
12107DDP     C372641  26.560  21.842  22.135  0.0731  0.1096 -0.0138
12107DDP     C472642  26.298  21.396  21.384  0.1334 -0.0969  0.2610
12108DDP     C172643  22.846  26.264  22.325  0.1266  0.0251  0.2994
12108DDP     P172644  23.210  25.998  22.097  0.1275 -0.0828 -0.0702
12108DDP     P272645  22.482  26.365  22.297 -0.1417 -0.0622 -0.3226
12108DDP     C272646  22.237  26.583  22.248 -0.0577  0.3984  0.2283
12108DDP     C372647  23.677  25.878  21.867  0.1893 -0.3606 -0.1376
12108DDP     C472648  22.918  26.325  22.785 -0.3688 -0.1349  0.3119
12109DDP     C172649   8.523   2.672   3.956  0.2173  0.2208  0.2407
12109DDP     P172650   8.604   2.983   3.663 -0.4962  0.4752  0.3020
12109DDP     P272651   8.161   2.634   4.006  0.1476 -0.1098 -0.0588
12109DDP     C272652   7.778   2.763   4.028 -0.0386  0.0413 -0.3279
12109DDP     C372653   8.549   3.059   3.311  0.2417  0.0971 -0.1089
12109DDP     C472654   8.901   2.507   4.171  0.0032 -0.0866  0.0572
12110DDP     C172655  16.756   2.198  14.945 -0.4682  0.1741 -0.0276
12110DDP     P172656  16.432   2.384  14.730  0.2281 -0.2873  0.1565
12110DDP     P272657  16.825   1.846  15.232 -0.2553 -0.2165  0.0611
12110DDP     C272658  17.064   1.942  15.528 -0.1183  0.0643 -0.2170
12110DDP     C372659  16.469   2.775  14.368  0.0265  0.1056  0.0847
12110DDP     C472660  16.956   2.515  14.864  0.0797  0.0983  0.1361
12111DDP     C172661  15.313   5.352   2.157  0.0233 -0.0890 -0.0263
12111DDP     P172662  15.026   5.532   2.421 -0.0162  0.2961 -0.1214
12111DDP     P272663  15.336   5.028   2.086 -0.0099  0.2724  0.0555
12111DDP     C272664  15.053   4.691   2.129 -0.1672  0.1904  0.0994
12111DDP     C372665  15.089   5.738   2.771 -0.2127 -0.2201 -0.3173
12111DDP     C472666  15.500   5.546   1.871 -0.2253 -0.2878  0.2867
12112DDP     C172667   0.879  20.658  12.980 -0.1166 -0.1304 -0.0724
12112DDP     P172668   0.372  20.644  13.069  0.2995  0.2368  0.2450
12112DDP     P272669   1.186  20.338  12.957  0.0674 -0.0196 -0.2768
12112DDP     C272670   1.608  20.321  12.936  0.0357  0.0680  0.0261
12112DDP     C372671  -0.042  20.563  13.121 -0.2654 -0.1513 -0.1059
12112DDP     C472672   1.233  20.898  13.158 -0.2072 -0.0482 -0.0907
12113DDP     C172673   3.942  12.362  13.368  0.1188  0.2464 -0.0393
12113DDP     P172674   4.281  12.329  12.999  0.1227 -0.1444 -0.1066
12113DDP     P272675   3.590  12.206  13.185  0.3232  0.3031  0.4285
12113DDP     C272676   3.425  11.816  13.017  0.0469 -0.1417  0.5399
12113DDP     C372677   4.517  12.251  12.555 -0.5831  0.0874 -0.0337
12113DDP     C472678   4.061  12.482  13.983 -0.0518 -0.0653  0.5034
12114DDP     C172679   3.152   3.227  22.939 -0.1712  0.0648  0.1368
12114DDP     P172680   2.871   3.020  22.730  0.1177 -0.0161  0.1490
12114DDP     P272681   3.382   2.896  23.152  0.2619 -0.0288 -0.0081
12114DDP     C272682   3.401   2.472  23.424  0.0274 -0.0707 -0.1614
12114DDP     C372683   2.433   2.684  22.834 -0.0384 -0.1520 -0.0569
12114DDP     C472684   3.315   3.688  23.084  0.1507  0.0195  0.0661
12115DDP     C172685  11.531  26.641  29.392  0.4583 -0.0577  0.0082
12115DDP     P172686  11.288  26.947  29.115 -0.0602 -0.2583  0.1191
12115DDP     P272687  11.634  26.513  29.723 -0.1684 -0.0183 -0.0781
12115DDP     C272688  11.533  26.797  30.110  0.1944  0.1879 -0.4830
12115DDP     C372689  11.331  27.358  29.008  0.0151  0.0668  0.0653
12115DDP     C472690  11.600  26.418  29.042 -0.3264 -0.0237 -0.0307
12116DDP     C172691   8.064  24.291   5.734 -0.1800  0.2067  0.0480
12116DDP     P172692   8.452  24.675   5.747  0.0915  0.1425 -0.2467
12116DDP     P272693   8.025  23.899   5.550 -0.0847 -0.1314 -0.2088
12116DDP     C272694   7.613  23.693   5.561  0.1427  0.1330  0.2365
12116DDP     C372695   8.767  24.904   5.839 -0.1971  0.2007 -0.2251
12116DDP     C472696   7.644  24.168   5.800 -0.0168 -0.0891 -0.1010
12117DDP     C172697  30.300  12.508   8.712  0.0253 -0.4330 -0.0339
12117DDP     P172698   0.319  12.726   8.760 -0.2024  0.1624  0.2906
12117DDP     P272699   0.038  12.129   8.633  0.1390  0.3368 -0.0556
12117DDP     C272700  30.038  11.929   8.490  0.1616  0.0803  0.0353
12117DDP     C372701   0.533  13.077   9.006  0.1787 -0.2024 -0.2227
12117DDP     C472702  29.966  12.729   8.949 -0.3142 -0.0605  0.3238
12118DDP     C172703  22.369  20.795   0.595  0.0406  0.2011 -0.1775
12118DDP     P172704  22.659  21.000   0.408 -0.2312  0.1067 -0.0656
12118DDP     P272705  21.910  20.835   0.486 -0.0473  0.3163 -0.3130
12118DDP     C272706  21.679  20.673   0.108 -0.1917 -0.2114 -0.0957
12118DDP     C372707  23.063  21.271   0.401 -0.1687  0.3260 -0.0073
12118DDP     C472708  22.420  20.698   0.923  0.4199  0.0693 -0.2093
12119DDP     C172709  24.318   0.994   8.751  0.1776  0.3540  0.0823
12119DDP     P172710  24.544   1.189   8.536 -0.0514 -0.2055  0.0764
12119DDP     P272711  24.190   0.606   8.582  0.0253 -0.1672 -0.1792
12119DDP     C272712  24.028   0.542   8.199  0.0728 -0.0272  0.0864
12119DDP     C372713  24.590   1.581   8.356 -0.3183  0.2234 -0.0278
12119DDP     C472714  24.200   1.103   9.156  0.0628  0.2435 -0.1823
12120DDP     C172715   3.251  25.809   0.194  0.0287  0.0428  0.3383
12120DDP     P172716   3.402  25.910   0.689  0.1315 -0.1177 -0.2516
12120DDP     P272717   3.268  25.682  30.154  0.0089  0.0282 -0.2006
12120DDP     C272718   3.310  25.617  29.784  0.0657  0.0015  0.1892
12120DDP     C372719   3.836  25.903   0.816  0.0659 -0.1129 -0.3015
12120DDP     C472720   2.829  25.804   0.098  0.0484 -0.1973 -0.1253
12121DDP     C172721  10.997  29.701  18.975  0.2557 -0.1705 -0.2607
12121DDP     P172722  11.405  29.524  18.960 -0.1794 -0.1292 -0.1880
12121DDP     P272723  10.567  29.799  18.811  0.1659  0.0955 -0.1751
12121DDP     C272724  10.085  29.942  18.631  0.0026 -0.0297  0.0947
12121DDP     C372725  11.619  29.612  18.511  0.0377  0.0795 -0.0932
12121DDP     C472726  10.979  29.720  19.400 -0.0163  0.0007 -0.1368
12122DDP     C172727  10.324   1.619  24.393  0.1377  0.0707  0.1003
12122DDP     P172728  10.462   1.806  24.678 -0.0216 -0.0379 -0.0479
12122DDP     P272729  10.453   1.313  24.064 -0.1086 -0.1125  0.2050
12122DDP     C272730  10.865   1.403  23.889  0.1035  0.0080  0.1468
12122DDP     C372731  10.879   1.871  24.727  0.1340 -0.0553  0.0834
12122DDP     C472732   9.823   1.702  24.473  0.2226  0.0713  0.3104
12123DDP     C172733  19.246  25.022  26.444  0.1153 -0.0528  0.1819
12123DDP     P172734  19.292  25.493  26.210  0.0389 -0.2395 -0.1189
12123DDP     P272735  19.024  25.119  26.825 -0.1505  0.2311  0.3400
12123DDP     C272736  18.957  25.119  27.309  0.0957 -0.1715 -0.3453
12123DDP     C372737  19.427  25.702  25.907  0.4154 -0.4069 -0.1225
12123DDP     C472738  19.281  24.656  26.307  0.0897  0.0158  0.1870
12124DDP     C172739  16.883  11.750  25.347 -0.0548 -0.2127  0.4038
12124DDP     P172740  16.576  12.190  25.389  0.0635 -0.0437 -0.1064
12124DDP     P272741  17.325  11.831  25.423 -0.2112  0.0926  0.0729
12124DDP     C272742  17.452  12.195  25.688 -0.1174  0.0308  0.1244
12124DDP     C372743  16.342  12.192  25.759 -0.0908  0.1072  0.2750
12124DDP     C472744  16.819  11.327  25.328 -0.2384 -0.0031  0.0908
12125DDP     C172745  12.053  22.652  28.572 -0.1103 -0.0865 -0.0144
12125DDP     P172746  12.162  22.738  29.004  0.0986 -0.0214 -0.3107
12125DDP     P272747  12.321  22.368  28.339  0.0216  0.1852  0.2705
12125DDP     C272748  12.566  21.964  28.455 -0.1301  0.0886  0.0884
12125DDP     C372749  12.018  22.755  29.457  0.4201  0.1763 -0.3189
12125DDP     C472750  11.753  22.889  28.321 -0.1098  0.1617 -0.0359
12126DDP     C172751  27.603  19.843  24.021  0.1921 -0.0210 -0.2398
12126DDP     P172752  27.919  19.866  24.205 -0.1860 -0.1284  0.0746
12126DDP     P272753  27.347  19.528  24.240  0.3407  0.0349  0.1510
12126DDP     C272754  27.357  19.432  24.623  0.0463 -0.1161 -0.0588
12126DDP     C372755  27.959  19.951  24.613  0.0495  0.4010 -0.0457
12126DDP     C472756  27.515  20.065  23.644  0.1347  0.4313 -0.1096
12127DDP     C172757  16.563   2.031   3.108  0.2708 -0.0558  0.0614
12127DDP     P172758  16.868   1.860   2.700 -0.0959 -0.1164 -0.2927
12127DDP     P272759  16.430   2.506   3.076  0.0329 -0.1531 -0.1664
12127DDP     C272760  16.429   2.958   2.995  0.1215 -0.0039 -0.1276
12127DDP     C372761  17.371   1.864   2.693 -0.0714 -0.1873  0.0948
12127DDP     C472762  16.389   1.744   3.450  0.1541  0.1509 -0.3003
12128DDP     C172763  27.773   0.598   4.989 -0.0629  0.1060  0.0929
12128DDP     P172764  27.833   0.338   4.702  0.0036 -0.2160 -0.1045
12128DDP     P272765  27.317   0.594   4.892  0.3629  0.0164  0.0238
12128DDP     C272766  26.933   0.845   4.892 -0.1067  0.1266 -0.0665
12128DDP     C372767  27.781   0.107   4.366 -0.1776  0.1335  0.0292
12128DDP     C472768  27.689   0.977   5.236  0.0926  0.0530  0.2594
12129DDP     C172769   4.635  20.370  29.187  0.1036 -0.1550 -0.3016
12129DDP     P172770   4.940  20.059  29.094  0.0593  0.0757  0.3429
12129DDP     P272771   4.230  20.338  28.924 -0.1371  0.1004 -0.1774
12129DDP     C272772   3.855  20.222  28.639 -0.0533  0.2060 -0.0406
12129DDP     C372773   4.982  19.588  29.145 -0.2087  0.1879 -0.0051
12129DDP     C472774   4.831  20.582  29.513 -0.1514 -0.0916 -0.0545
12130DDP     C172775  29.345   5.623  30.110 -0.0371  0.0066 -0.3262
12130DDP     P172776  28.899   5.790  30.055  0.1230 -0.3016 -0.3062
12130DDP     P272777  29.514   5.583   0.166  0.1492  0.6110  0.2850
12130DDP     C272778  29.768   5.708   0.487 -0.2168 -0.3537 -0.1056
12130DDP     C372779  28.652   6.087  29.757 -0.0528 -0.0939 -0.1837
12130DDP     C472780  29.509   5.651  29.625 -0.0275 -0.0227  0.1193
12131DDP     C172781   0.309   1.509   4.668  0.0824 -0.1744 -0.4591
12131DDP     P172782   0.042   1.204   4.920 -0.0854  0.2049 -0.0582
12131DDP     P272783   0.618   1.225   4.442 -0.0318 -0.0548  0.0035
12131DDP     C272784   0.965   1.107   4.088  0.0538  0.0072 -0.0494
12131DDP     C372785  30.088   1.187   5.238  0.0511  0.0369 -0.1818
12131DDP     C472786   0.285   1.901   4.702 -0.3437 -0.4513  0.2740
12132DDP     C172787  27.047  27.432   3.432  0.1275 -0.2208 -0.3610
12132DDP     P172788  27.100  27.584   3.853  0.0950 -0.0416  0.2297
12132DDP     P272789  27.145  27.836   3.148 -0.1337  0.3310  0.0107
12132DDP     C272790  27.397  28.044   2.917 -0.3831 -0.2114 -0.0601
12132DDP     C372791  27.493  27.735   3.996  0.2170  0.1014  0.0612
12132DDP     C472792  27.064  27.051   3.215  0.1224 -0.1314  0.3057
12133DDP     C172793  14.801  29.488  14.260 -0.0614 -0.0359 -0.0200
12133DDP     P172794  14.619  29.637  14.667 -0.1175 -0.1926  0.1700
12133DDP     P272795  14.608  29.144  14.147 -0.2306 -0.1372 -0.2891
12133DDP     C272796  14.901  28.899  13.985 -0.0255  0.0280 -0.2232
12133DDP     C372797  14.186  29.620  14.915 -0.2207  0.0415 -0.0129
12133DDP     C472798  15.047  29.849  14.020  0.2516 -0.0423 -0.2759
12134DDP     C172799  27.961  26.581  25.038 -0.1809  0.0385 -0.0142
12134DDP     P172800  27.696  26.847  25.210  0.1679 -0.0103 -0.1342
12134DDP     P272801  28.017  26.185  25.225  0.1174  0.0984  0.2183
12134DDP     C272802  28.014  26.106  25.662  0.0755  0.2594  0.1065
12134DDP     C372803  27.264  26.908  25.262 -0.1698 -0.1981  0.0782
12134DDP     C472804  28.143  26.657  24.606  0.0911  0.0901  0.0708
12135DDP     C172805  29.581  25.685  29.488  0.2115 -0.2601 -0.1378
12135DDP     P172806  29.373  25.373  29.824  0.2923  0.3326 -0.1546
12135DDP     P272807  29.793  25.906  29.899 -0.2280  0.2569  0.0010
12135DDP     C272808  30.036  26.243  29.773  0.0597  0.2069 -0.0697
12135DDP     C372809  29.081  24.993  29.745 -0.1044  0.1266 -0.0554
12135DDP     C472810  29.639  25.846  29.109  0.3510  0.0801 -0.0767
12136DDP     C172811  28.863  28.229   1.514 -0.1794 -0.1400 -0.0194
12136DDP     P172812  28.757  28.052   1.917  0.3075  0.1119 -0.1105
12136DDP     P272813  29.304  28.111   1.593  0.2368  0.1433 -0.1161
12136DDP     C272814  29.755  27.908   1.587  0.0550  0.1568 -0.0878
12136DDP     C372815  28.564  27.666   2.064 -0.2358  0.1217 -0.0996
12136DDP     C472816  28.660  28.139   1.048 -0.1128 -0.0240  0.1312
12137DDP     C172817   6.974  22.300   9.157 -0.0062 -0.2976  0.0066
12137DDP     P172818   6.761  22.085   9.436  0.0634 -0.1435  0.2654
12137DDP     P272819   6.880  22.170   8.728  0.2416  0.1442 -0.0613
12137DDP     C272820   6.945  22.020   8.287  0.0764 -0.0259 -0.3999
12137DDP     C372821   6.781  21.762   9.654  0.0762  0.0791  0.0734
12137DDP     C472822   7.375  22.516   9.201  0.2021 -0.0421  0.3458
12138DDP     C172823  22.769  25.371   2.416 -0.2052  0.1955  0.1289
12138DDP     P172824  23.046  25.194   2.657  0.2501 -0.0951  0.1476
12138DDP     P272825  22.718  25.750   2.515 -0.0924  0.0612 -0.1397
12138DDP     C272826  22.651  26.195   2.586 -0.2824  0.0708 -0.1597
12138DDP     C372827  23.258  24.694   2.700  0.0206 -0.3847  0.2888
12138DDP     C472828  22.444  25.179   2.232 -0.0900  0.2437  0.1331
12139DDP     C172829   1.564  23.675  12.046 -0.0439  0.0389  0.1868
12139DDP     P172830   1.482  23.298  12.102 -0.0958  0.3727 -0.2480
12139DDP     P272831   1.671  23.680  11.613 -0.1240  0.2932  0.1915
12139DDP     C272832   1.626  23.573  11.188  0.1631  0.0377  0.0342
12139DDP     C372833   1.716  22.965  12.200  0.2582  0.1010 -0.1954
12139DDP     C472834   1.766  23.977  12.295 -0.1351 -0.2493 -0.2424
12140DDP     C172835  14.526  27.289  11.392 -0.0260 -0.4144  0.1016
12140DDP     P172836  14.903  27.441  11.527  0.0113 -0.1358 -0.0677
12140DDP     P272837  14.551  26.886  11.449  0.1502 -0.0654 -0.4262
12140DDP     C272838  14.593  26.411  11.509 -0.1551  0.1592 -0.0189
12140DDP     C372839  15.255  27.488  11.542 -0.1067 -0.3557 -0.0467
12140DDP     C472840  14.218  27.448  11.255 -0.0002  0.0889  0.1256
12141DDP     C172841   6.492   1.819  18.961  0.2884  0.3232  0.0655
12141DDP     P172842   6.377   1.584  18.623  0.1629  0.3371 -0.3944
12141DDP     P272843   6.280   2.110  19.267  0.1045 -0.1399  0.4999
12141DDP     C272844   6.348   2.395  19.631 -0.0066 -0.3151 -0.0783
12141DDP     C372845   6.237   1.513  18.118  0.1104 -0.3104 -0.1126
12141DDP     C472846   6.843   2.001  18.933 -0.0754  0.1228  0.0754
12142DDP     C172847   5.101   0.692  10.740  0.1878 -0.0534  0.2644
12142DDP     P172848   5.323   0.245  10.946 -0.3662  0.3856  0.0953
12142DDP     P272849   4.996   0.618  10.340  0.1326 -0.0756 -0.1030
12142DDP     C272850   4.773   0.462  10.099  0.1599 -0.0592 -0.2279
12142DDP     C372851   5.506  30.284  11.210 -0.4196  0.2157  0.2363
12142DDP     C472852   4.917   1.028  11.014  0.0314 -0.0523  0.0762
12143DDP     C172853  12.403  20.124  20.399 -0.1757  0.3285 -0.2720
12143DDP     P172854  12.341  20.107  20.821  0.0431 -0.1388  0.2101
12143DDP     P272855  12.158  20.342  20.156  0.1948 -0.1406  0.0067
12143DDP     C272856  12.077  20.192  19.773 -0.2259  0.1230  0.0959
12143DDP     C372857  12.269  20.420  21.164 -0.1653 -0.1191  0.0369
12143DDP     C472858  12.666  19.762  20.184  0.4053  0.0964  0.3561
12144DDP     C172859   3.299   4.857  29.265  0.0829  0.1720 -0.1959
12144DDP     P172860   3.114   5.067  29.647 -0.1460  0.0319  0.2116
12144DDP     P272861   3.718   4.964  29.288 -0.1615  0.0481 -0.1528
12144DDP     C272862   4.168   4.902  29.270 -0.1868  0.2644 -0.1079
12144DDP     C372863   2.889   4.979  30.001  0.2074  0.2108 -0.0164
12144DDP     C472864   3.173   4.534  29.047 -0.0215  0.1349 -0.1918
12145DDP     C172865   1.678  20.382  25.579 -0.0394 -0.1273 -0.3742
12145DDP     P172866   1.653  20.039  25.759 -0.1592  0.1062 -0.0692
12145DDP     P272867   1.424  20.701  25.468  0.0318  0.0734 -0.1349
12145DDP     C272868   1.213  21.101  25.405  0.0675  0.4214 -0.3032
12145DDP     C372869   1.399  19.748  25.770  0.0475  0.0619  0.0633
12145DDP     C472870   2.098  20.399  25.292 -0.0574  0.3913 -0.1972
12146DDP     C172871  24.528  28.271   1.318 -0.0110  0.2666  0.1762
12146DDP     P172872  24.796  28.432   1.630 -0.1861 -0.0105  0.1228
12146DDP     P272873  24.598  28.253   0.868  0.1422  0.1121 -0.2719
12146DDP     C272874  24.823  28.075   0.545 -0.0949 -0.0540 -0.1137
12146DDP     C372875  24.960  28.446   2.009  0.0468  0.2236 -0.2760
12146DDP     C472876  24.171  27.910   1.496  0.1892  0.2501  0.1039
12147DDP     C172877  28.798  19.469  19.155  0.0890  0.2390 -0.0846
12147DDP     P172878  28.554  19.821  18.882 -0.3712 -0.2740 -0.1026
12147DDP     P272879  28.734  19.014  19.024  0.2885 -0.0229  0.2059
12147DDP     C272880  28.794  18.674  18.685  0.4091 -0.0330  0.1266
12147DDP     C372881  28.524  20.064  18.511 -0.2622 -0.2101 -0.1319
12147DDP     C472882  29.119  19.520  19.498  0.4117  0.2556  0.1559
12148DDP     C172883   0.461  18.878  26.346 -0.2054 -0.0189  0.1683
12148DDP     P172884   0.409  18.551  26.036  0.0363  0.1662  0.0307
12148DDP     P272885   0.210  19.005  26.730  0.0123  0.2948  0.0739
12148DDP     C272886  30.283  18.881  27.203  0.3650  0.1049  0.1147
12148DDP     C372887   0.541  18.565  25.584 -0.1883  0.0623 -0.0952
12148DDP     C472888   0.872  19.051  26.311 -0.1234 -0.1524 -0.2220
12149DDP     C172889  14.057   8.104  17.563 -0.0675 -0.1551 -0.2037
12149DDP     P172890  14.328   8.269  17.360 -0.2045  0.1344 -0.1841
12149DDP     P272891  14.208   7.712  17.715 -0.3427  0.1652 -0.4619
12149DDP     C272892  14.251   7.288  17.890 -0.1743 -0.0050  0.2445
12149DDP     C372893  14.635   8.172  16.918 -0.1798 -0.1046 -0.1964
12149DDP     C472894  13.983   8.419  17.901 -0.1148  0.0536  0.1175
12150DDP     C172895  16.691  17.153  23.907  0.0886 -0.1604  0.1922
12150DDP     P172896  16.949  17.428  24.167  0.2426  0.0394  0.2384
12150DDP     P272897  16.461  16.816  24.140 -0.3082  0.2057 -0.0659
12150DDP     C272898  16.353  16.426  24.470 -0.0659 -0.4498  0.2370
12150DDP     C372899  17.116  17.806  24.485 -0.0436  0.2053 -0.1366
12150DDP     C472900  16.652  17.054  23.365  0.0614 -0.0246  0.2344
12151DDP     C172901  16.813  12.592   8.311 -0.2320  0.2355 -0.3870
12151DDP     P172902  16.946  12.856   8.023  0.0964  0.0467 -0.1490
12151DDP     P272903  16.553  12.378   8.361  0.1138  0.0130  0.0797
12151DDP     C272904  16.329  12.278   8.879  0.3007  0.1273  0.0652
12151DDP     C372905  17.122  13.053   7.792  0.0741 -0.0934  0.2589
12151DDP     C472906  17.162  12.404   8.588  0.1262 -0.2952 -0.2293
12152DDP     C172907  13.681  26.306   6.647  0.1004  0.0947 -0.0293
12152DDP     P172908  13.636  26.486   6.268 -0.3294 -0.1037  0.0632
12152DDP     P272909  14.150  26.046   6.706  0.1151 -0.0093 -0.4579
12152DDP     C272910  14.307  25.693   6.441  0.0379 -0.1635 -0.3895
12152DDP     C372911  13.823  26.401   5.931 -0.0515  0.0710 -0.3426
12152DDP     C472912  13.425  26.376   7.025 -0.1726  0.0119  0.0999
12153DDP     C172913  18.262  11.705   2.459 -0.2485  0.1001  0.1543
12153DDP     P172914  18.395  11.990   2.251  0.0548  0.2961  0.3644
12153DDP     P272915  18.030  11.424   2.338  0.0676 -0.1520  0.0575
12153DDP     C272916  17.802  11.116   2.506 -0.2492 -0.3689  0.2499
12153DDP     C372917  18.727  11.998   2.053  0.0800  0.0947  0.0425
12153DDP     C472918  18.259  11.678   2.913 -0.0740  0.1313 -0.1019
12154DDP     C172919  18.852   9.277  14.027 -0.1588 -0.1318  0.2718
12154DDP     P172920  18.671   9.539  13.819  0.2126  0.3518  0.2931
12154DDP     P272921  19.392   9.112  13.932 -0.1185 -0.3520 -0.1748
12154DDP     C272922  19.753   9.081  14.006  0.2312 -0.2579  0.2584
12154DDP     C372923  18.471   9.483  13.438  0.2927 -0.3740 -0.1595
12154DDP     C472924  18.753   8.897  14.044  0.0002 -0.3116  0.2681
12155DDP     C172925   4.171  23.449  22.579  0.2484  0.0335 -0.0718
12155DDP     P172926   4.583  23.550  22.480 -0.1331 -0.1780 -0.1739
12155DDP     P272927   3.999  23.062  22.478 -0.0077 -0.0764 -0.1726
12155DDP     C272928   3.930  22.769  22.164 -0.2515  0.1162  0.0537
12155DDP     C372929   4.849  23.905  22.287 -0.0696 -0.1294  0.5661
12155DDP     C472930   4.044  23.626  23.052 -0.0018  0.0434 -0.0578
12156DDP     C172931   4.118   2.831  30.030 -0.0816 -0.3431  0.1167
12156DDP     P172932   4.322   2.573  29.773  0.0908 -0.2410  0.2532
12156DDP     P272933   4.180   3.033   0.172  0.0777  0.0519 -0.1577
12156DDP     C272934   3.985   3.282   0.393  0.0672  0.0585 -0.1771
12156DDP     C372935   4.649   2.690  29.430  0.0164 -0.1093 -0.0467
12156DDP     C472936   3.655   3.007  30.041  0.3989 -0.0079  0.0605
12157DDP     C172937  27.792  20.625   1.508  0.0547 -0.0935  0.1611
12157DDP     P172938  28.160  20.795   1.619 -0.1682 -0.0113  0.3287
12157DDP     P272939  27.354  20.652   1.685 -0.0448 -0.0700 -0.0459
12157DDP     C272940  27.078  20.722   2.135 -0.3002  0.0960  0.1617
12157DDP     C372941  28.216  20.690   2.075 -0.3015  0.3792 -0.0384
12157DDP     C472942  27.943  20.426   1.111  0.2434 -0.2235 -0.0984
12158DDP     C172943  22.386  21.524  11.654  0.1827 -0.0672 -0.1114
12158DDP     P172944  22.140  21.786  11.607 -0.0475 -0.2238  0.0638
12158DDP     P272945  22.302  21.369  12.068  0.1333 -0.2835 -0.3658
12158DDP     C272946  22.251  21.567  12.395  0.1506 -0.0303  0.1462
12158DDP     C372947  21.812  21.883  11.505  0.0825  0.1267  0.4725
12158DDP     C472948  22.740  21.332  11.399 -0.0321  0.0210 -0.3188
12159DDP     C172949  15.104   4.832  28.941 -0.0205  0.0320 -0.1194
12159DDP     P172950  14.995   5.003  28.507  0.0886  0.1810 -0.0311
12159DDP     P272951  14.815   4.519  29.023  0.4751 -0.4859 -0.0346
12159DDP     C272952  14.700   4.423  29.311  0.2390  0.4200  0.0001
12159DDP     C372953  14.806   5.452  28.498  0.0962  0.2275  0.1001
12159DDP     C472954  15.344   5.121  29.262 -0.0664 -0.0783  0.0186
12160DDP     C172955   9.201  19.163   0.365  0.1302 -0.1374 -0.0268
12160DDP     P172956   9.492  18.834   0.344  0.1741 -0.2963 -0.4880
12160DDP     P272957   9.129  19.474   0.158  0.1184 -0.2559 -0.1939
12160DDP     C272958   8.906  19.515  30.129  0.0704 -0.0916 -0.1312
12160DDP     C372959   9.790  18.654   0.566  0.2815 -0.0971 -0.0060
12160DDP     C472960   9.008  19.336   0.682  0.0090  0.0877  0.0538
12161DDP     C172961  12.880  11.029   0.692  0.0971 -0.1415 -0.0976
12161DDP     P172962  13.021  10.729   1.015  0.0708 -0.3817 -0.1288
12161DDP     P272963  13.035  10.996   0.207 -0.2335 -0.4457  0.1659
12161DDP     C272964  13.100  11.255  30.218  0.0319  0.0386  0.0421
12161DDP     C372965  13.173  10.478   1.254 -0.2437 -0.1051  0.0738
12161DDP     C472966  12.654  11.393   0.749 -0.0296 -0.0587  0.0688
12162DDP     C172967   2.505  18.595  15.949 -0.0708 -0.0371  0.1308
12162DDP     P172968   2.497  18.787  15.577  0.0583 -0.0947  0.1166
12162DDP     P272969   2.783  18.633  16.230 -0.1888  0.1143 -0.1764
12162DDP     C272970   2.859  18.517  16.699  0.0135  0.1284  0.0721
12162DDP     C372971   2.280  19.094  15.532  0.2878  0.0313  0.1524
12162DDP     C472972   2.101  18.295  15.998  0.1066 -0.1845  0.2794
12163DDP     C172973  20.268  12.194   9.771 -0.0787 -0.1407  0.1504
12163DDP     P172974  20.268  12.617   9.881 -0.0117 -0.2755  0.4056
12163DDP     P272975  20.396  11.867  10.072 -0.1047  0.1038  0.1819
12163DDP     C272976  20.347  11.451  10.078 -0.1250  0.2820 -0.1227
12163DDP     C372977  20.448  12.895   9.998 -0.0962  0.2352  0.1137
12163DDP     C472978  20.057  12.076   9.440  0.0806  0.1452  0.2638
12164DDP     C172979  21.868  14.907  19.306  0.1514  0.0091 -0.2347
12164DDP     P172980  22.257  14.801  19.046  0.1053 -0.0541  0.1529
12164DDP     P272981  21.782  14.841  19.762 -0.3045 -0.2937  0.4257
12164DDP     C272982  21.730  14.833  20.172  0.1064 -0.0309 -0.3410
12164DDP     C372983  22.689  15.023  19.095  0.1678  0.0704 -0.0188
12164DDP     C472984  21.480  14.990  19.130  0.1062  0.1007  0.2092
12165DDP     C172985   6.144  18.972  27.919  0.3393  0.3218 -0.1092
12165DDP     P172986   6.449  18.645  28.148 -0.0748  0.0282  0.0758
12165DDP     P272987   6.141  18.908  27.516  0.1208  0.0514 -0.1893
12165DDP     C272988   5.986  18.945  27.053 -0.1370 -0.0481 -0.4626
12165DDP     C372989   6.684  18.606  28.553  0.4487 -0.3242 -0.2453
12165DDP     C472990   5.848  19.275  28.003  0.0190 -0.2054 -0.0660
12166DDP     C172991  24.089  18.755  11.011  0.0910 -0.0874 -0.1435
12166DDP     P172992  24.101  18.913  11.397 -0.0849  0.0368  0.2243
12166DDP     P272993  24.297  18.940  10.663 -0.1466  0.2051  0.0564
12166DDP     C272994  24.007  18.976  10.237  0.1809 -0.3909  0.1508
12166DDP     C372995  24.130  19.272  11.496 -0.1719  0.1759  0.0878
12166DDP     C472996  23.827  18.488  10.837 -0.0814  0.2393 -0.1755
12167DDP     C172997  23.116  12.126  12.111  0.1190  0.0878 -0.1666
12167DDP     P172998  23.430  12.420  12.146 -0.1427  0.0632 -0.3366
12167DDP     P272999  22.706  12.145  12.210 -0.0528  0.0371  0.2110
12167DDP     C273000  22.254  12.155  12.440 -0.0960 -0.2383 -0.0505
12167DDP     C373001  23.299  12.905  12.230 -0.3446 -0.1323 -0.1704
12167DDP     C473002  23.392  11.767  12.127 -0.0354 -0.4239 -0.1074
12168DDP     C173003  26.813   5.073   7.772 -0.1340  0.1611 -0.1447
12168DDP     P173004  26.601   5.379   8.053  0.3572  0.4149 -0.1546
12168DDP     P273005  26.625   4.719   7.594 -0.0508  0.1071 -0.0724
12168DDP     C273006  26.296   4.355   7.409  0.0087 -0.0520 -0.0123
12168DDP     C373007  26.645   5.803   8.186 -0.1074  0.0979  0.0077
12168DDP     C473008  27.376   5.102   7.686  0.3973 -0.0351  0.3766
12169DDP     C173009  30.045  21.917   5.210 -0.2067 -0.1138 -0.0714
12169DDP     P173010  29.960  22.376   5.032 -0.1289  0.0762 -0.0380
12169DDP     P273011   0.178  21.857   5.050 -0.1412  0.0354 -0.3557
12169DDP     C273012   0.426  21.740   5.377 -0.2126  0.0232  0.0860
12169DDP     C373013  29.781  22.525   4.605  0.2406  0.2453  0.0537
12169DDP     C473014  29.790  21.532   5.256  0.0862 -0.1954  0.1135
12170DDP     C173015  15.287  29.380  14.066 -0.0376 -0.1090 -0.1068
12170DDP     P173016  15.450  28.916  14.130 -0.0780  0.0518  0.0051
12170DDP     P273017  15.368  29.592  13.643  0.0621 -0.1504  0.0505
12170DDP     C273018  15.582  30.028  13.603 -0.0882 -0.0814  0.0724
12170DDP     C373019  15.215  28.541  14.180  0.2114  0.0193  0.2599
12170DDP     C473020  15.293  29.654  14.392 -0.0427  0.0038 -0.1602
12171DDP     C173021  24.943   3.861   6.286  0.1898  0.1282 -0.0053
12171DDP     P173022  25.306   4.130   6.444 -0.0819 -0.2422  0.1178
12171DDP     P273023  24.544   3.980   6.436 -0.3092  0.1502  0.3690
12171DDP     C273024  24.270   3.976   6.655  0.0419  0.1706  0.2097
12171DDP     C373025  25.691   4.178   6.310  0.0254  0.1677 -0.0515
12171DDP     C473026  25.038   3.405   6.238 -0.0935 -0.0903 -0.0830
12172DDP     C173027  21.035  13.846  11.956  0.4028  0.0637  0.1346
12172DDP     P173028  20.643  13.770  11.660 -0.0841  0.0471  0.1838
12172DDP     P273029  21.034  13.696  12.403  0.4150  0.0646 -0.0157
12172DDP     C273030  20.810  13.234  12.486 -0.3026 -0.3883  0.3391
12172DDP     C373031  20.240  13.637  11.515 -0.1114  0.3928 -0.0499
12172DDP     C473032  21.427  13.780  11.681  0.1643  0.0164  0.0965
12173DDP     C173033   5.798  29.899  15.522 -0.4935 -0.2243 -0.1452
12173DDP     P173034   5.711  30.292  15.394 -0.0607  0.4160 -0.1092
12173DDP     P273035   5.774  29.676  15.147 -0.0687 -0.1296 -0.2432
12173DDP     C273036   5.390  29.383  15.054 -0.2470 -0.0062 -0.3836
12173DDP     C373037   5.662   0.389  15.225 -0.1505 -0.0667 -0.0076
12173DDP     C473038   5.595  29.835  15.954 -0.1247 -0.0198  0.0997
12174DDP     C173039  11.111  28.760   6.324  0.2569 -0.0297  0.0328
12174DDP     P173040  11.413  28.448   6.525 -0.0527  0.1523 -0.3113
12174DDP     P273041  11.018  28.686   5.954 -0.5495 -0.1229 -0.1410
12174DDP     C273042  11.319  28.590   5.482  0.1321  0.0857 -0.0885
12174DDP     C373043  11.690  28.676   6.902  0.4574 -0.0756 -0.2720
12174DDP     C473044  11.080  29.117   6.720 -0.3699  0.0389  0.2325
12175DDP     C173045  25.707  18.762   8.939  0.1924  0.3681 -0.1069
12175DDP     P173046  25.605  18.527   8.575 -0.1035 -0.2418 -0.0103
12175DDP     P273047  26.049  18.737   9.304 -0.1142 -0.0205 -0.1303
12175DDP     C273048  26.234  18.565   9.602  0.3449 -0.0487  0.2005
12175DDP     C373049  25.847  18.332   8.196 -0.4255 -0.1159 -0.2659
12175DDP     C473050  25.247  19.030   9.023 -0.1486 -0.1924 -0.2256
12176DDP     C173051  24.351   0.998  22.727  0.2562  0.3800  0.2267
12176DDP     P173052  24.652   0.712  22.904 -0.2891 -0.2954  0.1588
12176DDP     P273053  24.335   1.171  22.380  0.0887 -0.0359 -0.2365
12176DDP     C273054  24.563   1.166  21.982  0.2516  0.0530  0.1959
12176DDP     C373055  24.876   0.361  22.809 -0.0438  0.1766 -0.1586
12176DDP     C473056  24.151   1.332  22.908  0.0085 -0.3008  0.1454
12177DDP     C173057  10.904   3.625  22.565 -0.0252 -0.0176 -0.3427
12177DDP     P173058  10.499   3.576  22.354 -0.1162 -0.2486 -0.0432
12177DDP     P273059  11.100   4.031  22.272 -0.2016  0.1993 -0.1119
12177DDP     C273060  10.963   4.179  21.912 -0.2496  0.1577  0.0105
12177DDP     C373061  10.125   3.632  22.496 -0.3611  0.0676  0.0099
12177DDP     C473062  11.124   3.280  22.802  0.6058 -0.0692 -0.0899
12178DDP     C173063  11.394  15.786  15.327  0.0980  0.1515  0.0253
12178DDP     P173064  11.741  15.793  15.477 -0.3554 -0.0936  0.2170
12178DDP     P273065  11.412  15.603  14.963 -0.0864  0.1595  0.1661
12178DDP     C273066  11.420  15.525  14.502 -0.4061  0.0184 -0.2093
12178DDP     C373067  11.999  15.880  15.773 -0.0851 -0.0246  0.1897
12178DDP     C473068  11.096  15.743  15.625  0.1851  0.0130 -0.1460
12179DDP     C173069   3.348   4.378   0.049  0.0620  0.1173  0.2561
12179DDP     P173070   3.266   4.569  29.956 -0.1385 -0.0818  0.1921
12179DDP     P273071   3.405   4.626   0.398 -0.3181 -0.1646  0.0423
12179DDP     C273072   3.335   5.189   0.492 -0.1303  0.2229  0.3682
12179DDP     C373073   3.059   4.577  29.589  0.0734 -0.3524 -0.2166
12179DDP     C473074   3.369   3.932  30.336 -0.3058  0.1430  0.1214
12180DDP     C173075  20.652   3.709   6.534 -0.1391 -0.0994 -0.3555
12180DDP     P173076  20.695   4.127   6.697 -0.2414  0.1253  0.1997
12180DDP     P273077  20.700   3.348   6.909  0.1260 -0.1165  0.0560
12180DDP     C273078  20.562   2.944   7.131  0.1468 -0.1675 -0.2671
12180DDP     C373079  20.405   4.282   6.947  0.2158 -0.1962  0.0183
12180DDP     C473080  20.679   3.569   6.127 -0.1317  0.1968  0.0849
12181DDP     C173081  14.987  28.569  13.304 -0.2075 -0.2974  0.2813
12181DDP     P173082  14.818  28.102  13.372 -0.1524  0.2131 -0.0905
12181DDP     P273083  15.366  28.737  13.507  0.1048 -0.1153  0.0595
12181DDP     C273084  15.400  29.107  13.691  0.1314  0.0146 -0.1838
12181DDP     C373085  14.803  27.789  13.162 -0.1546 -0.2125 -0.0089
12181DDP     C473086  14.940  28.950  12.959  0.1718 -0.2045 -0.0834
12182DDP     C173087   3.305  12.884   7.036  0.2585  0.1046  0.1726
12182DDP     P173088   3.174  12.481   7.090 -0.1526  0.0025 -0.2231
12182DDP     P273089   3.486  13.038   6.785  0.0167 -0.2677  0.2323
12182DDP     C273090   3.953  13.012   6.724  0.1022  0.0117 -0.0988
12182DDP     C373091   3.198  12.099   6.927 -0.1824  0.1419  0.0708
12182DDP     C473092   3.229  13.032   7.416  0.2024  0.2364 -0.0540
12183DDP     C173093  12.993  24.375   4.391 -0.2500 -0.0180  0.0505
12183DDP     P173094  12.695  24.414   4.589  0.1889  0.0323  0.1413
12183DDP     P273095  13.054  23.928   4.244  0.2047 -0.1694 -0.1237
12183DDP     C273096  13.302  23.704   4.026 -0.2072  0.0906 -0.0419
12183DDP     C373097  12.413  24.643   4.854 -0.5451 -0.1370  0.0932
12183DDP     C473098  13.372  24.594   4.599 -0.2372 -0.0496 -0.1096
12184DDP     C173099   8.046  24.828   3.400  0.0854 -0.1572 -0.0636
12184DDP     P173100   7.643  24.720   3.412  0.0650  0.0580  0.1408
12184DDP     P273101   8.271  24.844   3.734 -0.0116 -0.1374 -0.0067
12184DDP     C273102   8.223  24.734   4.129 -0.1442  0.0458 -0.3043
12184DDP     C373103   7.442  24.292   3.601  0.1044 -0.3178 -0.0107
12184DDP     C473104   8.258  24.719   3.068 -0.3666  0.3491  0.1360
12185DDP     C173105  17.385  19.093  28.098  0.2034 -0.3671 -0.0663
12185DDP     P173106  17.658  19.384  28.119  0.2585  0.0838  0.0548
12185DDP     P273107  17.314  18.771  28.315  0.0676 -0.0946 -0.2373
12185DDP     C273108  17.098  18.561  28.700 -0.1611  0.3001  0.0962
12185DDP     C373109  18.016  19.581  27.837  0.2298  0.1170  0.1720
12185DDP     C473110  16.992  19.364  27.853 -0.1842  0.3473 -0.1089
12186DDP     C173111   5.935   6.555   7.650  0.0413 -0.0954 -0.0435
12186DDP     P173112   5.666   6.510   7.344  0.0622 -0.1734 -0.2122
12186DDP     P273113   5.957   6.981   7.677 -0.0689  0.1723  0.3973
12186DDP     C273114   5.904   7.415   7.409  0.2785  0.2927 -0.1716
12186DDP     C373115   5.369   6.655   7.019  0.2284  0.0834  0.0058
12186DDP     C473116   6.031   6.195   7.937  0.0047 -0.2909  0.2236
12187DDP     C173117   8.675   3.703   9.129 -0.0781  0.1436  0.1246
12187DDP     P173118   9.152   3.532   9.111 -0.0828 -0.3539 -0.0944
12187DDP     P273119   8.518   4.127   9.121  0.2388  0.0557  0.0895
12187DDP     C273120   8.520   4.467   9.264  0.2382  0.1345 -0.0115
12187DDP     C373121   9.424   3.400   9.492  0.1269 -0.0189 -0.3979
12187DDP     C473122   8.427   3.519   9.448 -0.1541 -0.1898  0.1043
12188DDP     C173123   7.476  10.133  25.062 -0.2923  0.0332  0.1000
12188DDP     P173124   7.661   9.776  25.070 -0.0411  0.1127 -0.0085
12188DDP     P273125   7.092  10.203  25.240 -0.0242 -0.0621 -0.0176
12188DDP     C273126   6.673   9.989  25.217 -0.0342 -0.4763  0.0324
12188DDP     C373127   7.857   9.709  24.701 -0.2566  0.2913 -0.1435
12188DDP     C473128   7.867  10.319  25.156  0.0533  0.1475  0.2244
12189DDP     C173129   8.167  10.124  26.326  0.0918  0.1164 -0.3640
12189DDP     P173130   8.195   9.906  26.687 -0.0747  0.0173 -0.0217
12189DDP     P273131   8.494  10.451  26.178 -0.0958  0.3461 -0.2776
12189DDP     C273132   8.715  10.375  25.712 -0.1583  0.0869 -0.0925
12189DDP     C373133   8.198   9.928  27.151 -0.1171 -0.0118  0.0982
12189DDP     C473134   7.983   9.879  26.011  0.0731  0.1190  0.1469
12190DDP     C173135  24.720  20.378   2.344 -0.0831 -0.2027 -0.2428
12190DDP     P173136  25.120  20.284   2.129  0.2419  0.0258  0.0685
12190DDP     P273137  24.514  20.101   2.685 -0.3055  0.3797 -0.0395
12190DDP     C273138  24.342  19.639   2.859  0.3743 -0.0760  0.0942
12190DDP     C373139  25.493  19.957   2.059  0.0726  0.0533  0.0451
12190DDP     C473140  24.666  20.726   2.259  0.1555  0.1435  0.0262
12191DDP     C173141  22.417  10.467   4.693  0.1465 -0.1654 -0.0606
12191DDP     P173142  22.237  10.153   4.943  0.0667 -0.0448  0.2418
12191DDP     P273143  22.244  10.456   4.194  0.2620 -0.2618 -0.1104
12191DDP     C273144  21.901  10.192   3.937  0.0161  0.0219  0.1338
12191DDP     C373145  22.159   9.656   4.874  0.0959 -0.0612 -0.2716
12191DDP     C473146  22.842  10.626   4.684  0.3170 -0.2340  0.1985
12192DDP     C173147  10.826   4.684  16.388  0.1587 -0.1622  0.2693
12192DDP     P173148  10.481   4.654  16.692 -0.0088 -0.0209 -0.3203
12192DDP     P273149  10.871   4.888  16.087  0.1154  0.1447  0.0952
12192DDP     C273150  10.653   5.216  15.823 -0.1186 -0.2044  0.0584
12192DDP     C373151  10.440   4.572  17.069 -0.0091  0.1299  0.0638
12192DDP     C473152  11.115   4.675  16.726  0.0670  0.2038  0.0385
12193DDP     C173153  23.601  22.556   3.967  0.3143 -0.0890  0.4933
12193DDP     P173154  23.368  22.552   3.574 -0.3176 -0.1350  0.0960
12193DDP     P273155  23.864  22.819   3.979 -0.0844  0.0671  0.2716
12193DDP     C273156  23.961  22.796   4.391 -0.0853  0.2562  0.2460
12193DDP     C373157  23.500  22.627   3.149  0.0554  0.0360 -0.0130
12193DDP     C473158  23.435  22.377   4.317  0.3416 -0.3468 -0.1869
12194DDP     C173159   1.344   1.296  13.681 -0.0261 -0.3794 -0.3614
12194DDP     P173160   1.522   1.553  13.286  0.1580  0.1149 -0.2450
12194DDP     P273161   1.350   1.602  13.950 -0.2422  0.0554 -0.1673
12194DDP     C273162   1.257   2.035  14.025 -0.2443  0.1785 -0.0675
12194DDP     C373163   1.760   1.846  13.100 -0.0032  0.0336 -0.0260
12194DDP     C473164   1.087   1.028  13.625 -0.1030 -0.2408 -0.1565
12195DDP     C173165  28.388   7.815   9.109 -0.3023  0.1874  0.0186
12195DDP     P173166  28.787   7.846   9.416 -0.0675  0.1621  0.1078
12195DDP     P273167  28.276   8.140   8.779  0.0476  0.0206 -0.0971
12195DDP     C273168  28.015   8.425   8.854 -0.0780 -0.1997 -0.2902
12195DDP     C373169  28.936   7.947   9.810  0.1415 -0.1727  0.0162
12195DDP     C473170  28.068   7.454   9.143  0.0351  0.0414 -0.0401
12196DDP     C173171  15.165  23.543   7.990 -0.2300  0.0337 -0.2790
12196DDP     P173172  15.062  23.553   8.402 -0.0103 -0.1784  0.1858
12196DDP     P273173  15.146  23.873   7.770  0.3418 -0.0954 -0.1934
12196DDP     C273174  14.838  24.303   7.589 -0.0966 -0.0467  0.1064
12196DDP     C373175  14.900  23.741   8.811 -0.0916  0.3916 -0.1469
12196DDP     C473176  15.272  23.097   7.837  0.2430  0.1985 -0.0545
12197DDP     C173177  29.456  21.275   1.003 -0.2294 -0.2081 -0.0375
12197DDP     P173178  29.222  21.666   0.954 -0.1273 -0.0444  0.0601
12197DDP     P273179  29.364  21.053   1.364 -0.0413  0.2689 -0.1430
12197DDP     C273180  29.447  20.760   1.638 -0.0029 -0.2342  0.1878
12197DDP     C373181  28.856  21.858   0.947  0.0430 -0.0281 -0.0841
12197DDP     C473182  29.842  21.102   0.717  0.2846 -0.3440 -0.3484
12198DDP     C173183  27.397  19.788  10.317  0.1971 -0.1431  0.2378
12198DDP     P173184  27.280  20.221  10.697  0.0478  0.2377  0.2513
12198DDP     P273185  27.262  19.344  10.411 -0.5800 -0.2371  0.3037
12198DDP     C273186  27.530  19.126  10.602  0.1476  0.0235  0.0944
12198DDP     C373187  27.431  20.581  10.753  0.0956  0.0478 -0.0500
12198DDP     C473188  27.728  19.809  10.008 -0.1002  0.1258 -0.1416
12199DDP     C173189   1.651  19.436  12.525 -0.0580  0.0241 -0.1089
12199DDP     P173190   1.529  19.001  12.680  0.1959  0.1681 -0.0149
12199DDP     P273191   1.562  19.610  12.091 -0.2217 -0.1778  0.2257
12199DDP     C273192   1.728  19.910  11.885  0.0017 -0.0312 -0.0889
12199DDP     C373193   1.131  18.807  12.652  0.1089 -0.0173 -0.0346
12199DDP     C473194   1.904  19.671  12.888 -0.1781  0.1770 -0.2883
12200DDP     C173195  11.861  21.539  19.601  0.1917 -0.2560 -0.1708
12200DDP     P173196  11.981  21.825  19.281  0.0630 -0.1365  0.1486
12200DDP     P273197  11.448  21.543  19.466 -0.0393 -0.2508 -0.0212
12200DDP     C273198  11.027  21.654  19.309  0.2115 -0.3830 -0.1214
12200DDP     C373199  11.865  22.272  19.307  0.2349  0.1354 -0.1877
12200DDP     C473200  12.138  21.220  19.897  0.2250 -0.3161  0.1958
12201DDP     C173201  24.076  14.634   5.649  0.0678 -0.0907  0.2289
12201DDP     P173202  24.062  15.006   5.833 -0.1454 -0.0428  0.3369
12201DDP     P273203  23.703  14.414   5.590 -0.2162 -0.1379 -0.0137
12201DDP     C273204  23.394  14.131   5.838  0.0316  0.0761 -0.1926
12201DDP     C373205  24.097  15.429   5.764 -0.1723 -0.3043  0.1898
12201DDP     C473206  24.473  14.275   5.513  0.1716  0.0004  0.1329
12202DDP     C173207  22.196  14.912  17.873  0.2088 -0.1063  0.2568
12202DDP     P173208  21.905  15.153  17.973 -0.0353 -0.0125  0.3846
12202DDP     P273209  22.539  14.668  18.106 -0.1118 -0.2523 -0.3121
12202DDP     C273210  22.830  14.358  17.964  0.0854 -0.1153  0.2000
12202DDP     C373211  21.668  15.404  17.687 -0.0529 -0.0403  0.0354
12202DDP     C473212  22.027  14.735  17.510  0.1518 -0.0208  0.2043
12203DDP     C173213  12.088  16.282  21.779 -0.1500  0.2249 -0.2184
12203DDP     P173214  12.475  16.342  21.545 -0.1601  0.0188 -0.0362
12203DDP     P273215  12.102  15.873  22.070 -0.2047 -0.2446  0.2391
12203DDP     C273216  12.202  15.676  22.472  0.0590  0.0214  0.2217
12203DDP     C373217  12.892  16.376  21.340  0.3507  0.1332  0.0924
12203DDP     C473218  11.675  16.223  21.596  0.2211  0.0011 -0.1151
12204DDP     C173219  10.199  23.816   7.697  0.1060  0.1733 -0.3738
12204DDP     P173220  10.075  23.791   8.168  0.1954  0.2804  0.0706
12204DDP     P273221   9.958  23.795   7.399 -0.1292  0.0915 -0.3021
12204DDP     C273222   9.738  23.667   7.024 -0.0433  0.3097 -0.0978
12204DDP     C373223  10.232  23.619   8.600 -0.0438  0.0091  0.1401
12204DDP     C473224  10.655  24.015   7.635  0.1557  0.3570  0.0307
12205DDP     C173225  29.020  27.234   3.239  0.2681 -0.0531  0.1543
12205DDP     P173226  28.638  27.540   3.031  0.2324 -0.0168 -0.0345
12205DDP     P273227  29.262  27.445   3.433  0.1665 -0.0171  0.3987
12205DDP     C273228  29.454  27.384   3.853 -0.3606  0.1318 -0.0012
12205DDP     C373229  28.341  27.615   2.622  0.2033  0.1442 -0.0154
12205DDP     C473230  29.176  26.887   3.131  0.0185 -0.1978  0.4372
12206DDP     C173231   7.477   1.061   1.937 -0.0043 -0.2403 -0.2184
12206DDP     P173232   7.491   0.640   1.926 -0.1285  0.1739 -0.0321
12206DDP     P273233   7.775   1.238   2.285  0.1180 -0.1941  0.1570
12206DDP     C273234   8.134   1.411   2.436  0.0244 -0.1664  0.3122
12206DDP     C373235   7.552   0.352   1.552 -0.0478 -0.0455  0.0112
12206DDP     C473236   7.456   1.407   1.822  0.0683  0.0272 -0.3327
12207DDP     C173237  25.723  16.249  10.063 -0.1584  0.2212  0.0371
12207DDP     P173238  26.172  16.235   9.994 -0.0888  0.0155 -0.3821
12207DDP     P273239  25.461  16.210  10.387  0.2986 -0.0092 -0.0752
12207DDP     C273240  25.106  15.958  10.340 -0.1219 -0.2694 -0.2130
12207DDP     C373241  26.410  16.232   9.600 -0.0161  0.1087 -0.0699
12207DDP     C473242  25.551  16.423   9.838 -0.1149  0.0329  0.0785
12208DDP     C173243  27.337   1.180  21.443  0.0638  0.2548  0.0127
12208DDP     P173244  27.106   1.513  21.685  0.0790  0.1361 -0.2339
12208DDP     P273245  27.675   1.365  21.202 -0.1407 -0.0559 -0.1457
12208DDP     C273246  27.928   1.319  20.847  0.1766  0.0787 -0.0953
12208DDP     C373247  26.649   1.586  21.685 -0.0369  0.1395  0.0891
12208DDP     C473248  27.104   0.845  21.261  0.1068  0.1951  0.0155
12209DDP     C173249   5.248  30.139   6.558  0.1636 -0.1870  0.2066
12209DDP     P173250   5.044  29.909   6.797 -0.1843 -0.2876 -0.1854
12209DDP     P273251   5.044   0.067   6.315 -0.0939 -0.1019 -0.1417
12209DDP     C273252   4.937   0.113   5.927  0.0326  0.2780 -0.0045
12209DDP     C373253   5.042  29.465   6.953  0.1315  0.0245  0.1481
12209DDP     C473254   5.683  30.052   6.568  0.0014  0.1228 -0.1972
12210DDP     C173255  15.445  15.709   9.169  0.2960  0.0417 -0.1148
12210DDP     P173256  15.608  15.974   9.364 -0.1140 -0.0775  0.1829
12210DDP     P273257  15.706  15.433   8.766  0.1202  0.0716  0.0932
12210DDP     C273258  15.692  15.004   8.743  0.2114  0.0239  0.1979
12210DDP     C373259  15.924  16.332   9.586 -0.1042  0.0215 -0.1598
12210DDP     C473260  15.201  15.361   9.157 -0.2403  0.2890  0.1310
12211DDP     C173261  17.353   0.016  30.287  0.0951 -0.1137  0.1100
12211DDP     P173262  17.350   0.597   0.025 -0.2225  0.1389 -0.2427
12211DDP     P273263  17.030  30.174   0.129 -0.1701  0.0649 -0.0540
12211DDP     C273264  16.641  30.018   0.213 -0.2968 -0.1039 -0.1301
12211DDP     C373265  17.585   0.934   0.358 -0.4537 -0.2066  0.1049
12211DDP     C473266  17.640  30.151  29.928  0.2364 -0.1379  0.0093
12212DDP     C173267  10.821  29.866   6.571  0.0752 -0.1234  0.2159
12212DDP     P173268  10.742  30.242   6.690 -0.0135 -0.0544  0.1546
12212DDP     P273269  10.526  29.640   6.325  0.3736  0.2342  0.3187
12212DDP     C273270  10.307  29.654   5.991 -0.0136  0.0208 -0.1327
12212DDP     C373271  10.881   0.183   6.436 -0.0855 -0.1392  0.1221
12212DDP     C473272  11.060  29.672   6.919 -0.2238 -0.1745  0.0619
12213DDP     C173273  22.523   2.724   8.290  0.0487 -0.0724 -0.0567
12213DDP     P173274  22.799   2.415   8.185  0.2761 -0.0328  0.2259
12213DDP     P273275  22.640   2.835   8.713  0.4517 -0.3134 -0.1343
12213DDP     C273276  22.400   2.992   9.003 -0.2931  0.1392  0.1050
12213DDP     C373277  22.818   2.675   7.761  0.0169  0.0311  0.1113
12213DDP     C473278  22.549   3.077   8.097 -0.0183 -0.6094  0.0567
12214DDP     C173279   7.416   8.535   0.336 -0.4122 -0.2097  0.0840
12214DDP     P173280   7.679   8.720   0.647  0.2431 -0.0433  0.0844
12214DDP     P273281   7.407   8.129   0.504  0.0022  0.4770 -0.1515
12214DDP     C273282   7.110   7.876   0.691 -0.2353  0.3987 -0.0736
12214DDP     C373283   7.882   8.743   1.099  0.3813  0.1049 -0.0851
12214DDP     C473284   7.393   8.550  30.210  0.1775  0.0342  0.1232
12215DDP     C173285  18.469   7.454  14.513 -0.3606 -0.0307 -0.0947
12215DDP     P173286  18.309   7.051  14.467 -0.1641 -0.2115  0.0292
12215DDP     P273287  18.268   7.854  14.520 -0.1036  0.0088 -0.2911
12215DDP     C273288  18.271   8.235  14.303  0.1693  0.2786  0.0047
12215DDP     C373289  18.250   6.622  14.631 -0.2275 -0.0530 -0.1860
12215DDP     C473290  18.909   7.446  14.561 -0.0351 -0.2317  0.3289
12216DDP     C173291  19.558  20.306  10.731 -0.0450  0.0089 -0.0835
12216DDP     P173292  19.218  20.534  10.768  0.0589 -0.1848  0.0851
12216DDP     P273293  19.665  20.184  10.316 -0.2454  0.0491 -0.0030
12216DDP     C273294  19.432  19.952   9.982 -0.1421 -0.1739 -0.0339
12216DDP     C373295  19.001  20.804  11.111  0.0731 -0.2632  0.0463
12216DDP     C473296  19.675  20.045  11.053 -0.1641 -0.1086 -0.0027
12217DDP     C173297   3.343  16.456   8.317  0.0692 -0.0054  0.0522
12217DDP     P173298   3.660  16.536   8.286  0.1259  0.2543  0.0418
12217DDP     P273299   2.969  16.704   8.588 -0.1919  0.0194 -0.2660
12217DDP     C273300   2.707  17.090   8.837 -0.1561  0.1407  0.0689
12217DDP     C373301   4.176  16.578   8.514 -0.0165  0.0823 -0.2452
12217DDP     C473302   3.210  16.224   7.955  0.1755  0.4088  0.2036
12218DDP     C173303  12.247  21.931   6.691 -0.4572  0.1003  0.1229
12218DDP     P173304  12.465  21.679   6.479 -0.1660 -0.0202 -0.0108
12218DDP     P273305  11.869  21.849   6.665  0.0408  0.0889 -0.2494
12218DDP     C273306  11.544  22.135   6.690 -0.1558 -0.2713 -0.3758
12218DDP     C373307  12.572  21.270   6.367 -0.2150  0.0737  0.0256
12218DDP     C473308  12.480  22.388   6.821 -0.1059 -0.3626 -0.4698
12219DDP     C173309  10.371   9.327  26.111  0.3213  0.0395  0.0278
12219DDP     P173310  10.676   9.540  26.261  0.0277  0.0916 -0.0462
12219DDP     P273311  10.344   8.961  26.369  0.0391 -0.0368  0.1172
12219DDP     C273312  10.524   8.806  26.851 -0.0409  0.1102 -0.2554
12219DDP     C373313  10.751   9.920  26.459 -0.0402 -0.0234 -0.2536
12219DDP     C473314  10.146   9.266  25.743 -0.3443  0.0259  0.0446
12220DDP     C173315  15.603  29.238  21.961 -0.0871 -0.1357  0.2400
12220DDP     P173316  15.822  29.469  22.316 -0.4227 -0.1475 -0.0315
12220DDP     P273317  15.925  29.054  21.697  0.3102 -0.0503 -0.2164
12220DDP     C273318  16.353  29.050  21.734  0.0290 -0.2153 -0.2380
12220DDP     C373319  16.054  29.850  22.478  0.1513 -0.0114  0.1505
12220DDP     C473320  15.087  29.201  21.891  0.3100  0.1003  0.0241
12221DDP     C173321  15.704  28.500  11.794  0.2852 -0.0585  0.0829
12221DDP     P173322  16.043  28.505  11.678 -0.0876 -0.1177 -0.1029
12221DDP     P273323  15.413  28.369  11.439 -0.0636  0.0116  0.0417
12221DDP     C273324  15.047  28.592  11.144 -0.1064 -0.0845  0.0585
12221DDP     C373325  16.313  28.287  11.601  0.3803 -0.0004 -0.0215
12221DDP     C473326  15.466  28.616  12.062  0.0599  0.0314  0.1062
12222DDP     C173327  21.279  13.674   8.775  0.1317  0.1018 -0.1442
12222DDP     P173328  21.413  13.255   8.730 -0.0941 -0.2292  0.1208
12222DDP     P273329  21.525  13.977   8.581 -0.0031  0.0314 -0.2756
12222DDP     C273330  21.739  13.980   8.061 -0.1294  0.0848 -0.2423
12222DDP     C373331  21.688  12.934   8.791  0.0323 -0.0023  0.2229
12222DDP     C473332  20.774  13.700   8.692  0.0207  0.0471  0.2160
12223DDP     C173333  16.377  17.437   9.056 -0.1063 -0.3904 -0.1871
12223DDP     P173334  16.558  17.001   8.929 -0.4262  0.0957 -0.0424
12223DDP     P273335  16.522  17.585   9.320 -0.1424 -0.2472  0.1067
12223DDP     C273336  16.980  17.381   9.372 -0.1805 -0.0159  0.2080
12223DDP     C373337  16.617  16.608   8.722 -0.1419  0.1158  0.1197
12223DDP     C473338  16.243  17.381   8.719  0.1353 -0.1859 -0.1493
12224DDP     C173339   0.515   3.482  23.831 -0.0724 -0.1451  0.1864
12224DDP     P173340   0.323   3.658  23.501  0.2105  0.1994  0.0605
12224DDP     P273341   0.385   2.990  23.996 -0.0322 -0.1490  0.3009
12224DDP     C273342   0.314   2.567  23.977  0.4058 -0.0874  0.0576
12224DDP     C373343   0.514   3.695  23.125  0.1014 -0.1712  0.0238
12224DDP     C473344   0.637   3.720  24.176 -0.4231 -0.0306  0.1985
12225DDP     C173345   6.313  26.071   4.454 -0.1362  0.1342 -0.1811
12225DDP     P173346   6.178  26.184   4.055 -0.1342 -0.0362  0.2753
12225DDP     P273347   6.374  26.256   4.819 -0.0517  0.2860  0.1732
12225DDP     C273348   6.694  26.480   5.025  0.0657  0.1008  0.0120
12225DDP     C373349   6.299  26.112   3.615 -0.2306 -0.1643 -0.0223
12225DDP     C473350   6.520  25.750   4.436 -0.5661 -0.0726 -0.1379
12226DDP     C173351  17.484  11.686   7.422 -0.2450  0.2093 -0.0731
12226DDP     P173352  17.361  11.356   7.235  0.4774  0.1673  0.0812
12226DDP     P273353  17.712  11.843   7.180 -0.2847 -0.1601 -0.2548
12226DDP     C273354  18.058  12.176   7.054 -0.1831  0.0462  0.0073
12226DDP     C373355  17.052  11.037   7.100  0.0169 -0.3034 -0.1076
12226DDP     C473356  17.221  11.743   7.804 -0.0863  0.1311 -0.0743
12227DDP     C173357  12.748  28.056  20.816  0.0269  0.3332 -0.0833
12227DDP     P173358  13.180  28.266  20.896 -0.1148 -0.0170 -0.1494
12227DDP     P273359  12.612  28.414  20.567  0.2700  0.2647  0.2457
12227DDP     C273360  12.690  28.547  20.213  0.0916 -0.0437 -0.0062
12227DDP     C373361  13.349  28.597  21.025  0.0096  0.1388  0.2501
12227DDP     C473362  12.567  27.595  20.819 -0.1253 -0.0546 -0.2712
12228DDP     C173363  27.971   9.698  17.866  0.0056  0.3913 -0.0506
12228DDP     P173364  27.885   9.897  17.427  0.0278  0.0880 -0.1708
12228DDP     P273365  28.353   9.672  18.009  0.0235  0.2471 -0.1036
12228DDP     C273366  28.564   9.843  17.782  0.1632 -0.2282 -0.1426
12228DDP     C373367  27.487   9.872  17.261  0.1872  0.3994 -0.2145
12228DDP     C473368  27.650   9.397  18.115 -0.4621  0.0118  0.0660
12229DDP     C173369  14.533   0.009   7.794  0.2580  0.0391 -0.0355
12229DDP     P173370  14.619   0.442   7.861 -0.2424 -0.2010 -0.0981
12229DDP     P273371  14.778  30.012   7.462  0.0924  0.0156 -0.2402
12229DDP     C273372  15.114  29.737   7.430 -0.0533 -0.2300  0.0166
12229DDP     C373373  14.724   0.816   7.693 -0.0722 -0.2329  0.1465
12229DDP     C473374  14.311  30.268   8.081 -0.0004 -0.1912 -0.0871
12230DDP     C173375   9.762  12.988   1.888  0.1373  0.0383 -0.1049
12230DDP     P173376   9.936  12.701   1.474 -0.2045  0.0168 -0.2363
12230DDP     P273377   9.367  13.115   2.157 -0.0713  0.1222 -0.3533
12230DDP     C273378   9.103  12.903   2.493 -0.2803  0.0948 -0.2335
12230DDP     C373379   9.856  12.769   1.054  0.3591  0.2182  0.0983
12230DDP     C473380  10.190  13.136   2.145  0.1140  0.0694 -0.2329
12231DDP     C173381  19.700  29.083  25.220 -0.0796  0.0611  0.2937
12231DDP     P173382  19.303  28.913  25.076  0.2772 -0.2604  0.0013
12231DDP     P273383  19.846  29.062  25.588  0.1271 -0.4696 -0.4264
12231DDP     C273384  20.028  29.431  25.903  0.0009 -0.1424 -0.2906
12231DDP     C373385  18.835  29.086  25.072  0.0024  0.0060  0.1501
12231DDP     C473386  19.974  29.195  24.885  0.3136  0.1604  0.2309
12232DDP     C173387   4.449  10.914   6.017  0.0370 -0.0110  0.3468
12232DDP     P173388   4.973  10.814   5.933  0.0962  0.0650  0.1087
12232DDP     P273389   4.053  11.007   5.788  0.0694  0.0909  0.0391
12232DDP     C273390   3.803  11.229   5.502  0.1585 -0.3640 -0.1352
12232DDP     C373391   5.338  10.854   5.593 -0.1689 -0.0379 -0.1287
12232DDP     C473392   4.514  11.259   6.404  0.0228 -0.3026  0.1608
12233DDP     C173393  10.071   8.840  19.974 -0.0960  0.2431 -0.1482
12233DDP     P173394   9.717   8.778  20.207 -0.1771  0.1439  0.0541
12233DDP     P273395  10.343   9.117  20.061 -0.1552 -0.2018  0.0044
12233DDP     C273396  10.609   9.110  20.363  0.0991  0.2257  0.1916
12233DDP     C373397   9.345   8.596  20.402 -0.1389  0.2544 -0.1555
12233DDP     C473398  10.103   8.463  19.678 -0.1061 -0.1147 -0.1176
12234DDP     C173399   0.156   1.928  14.770  0.2067 -0.3309 -0.0121
12234DDP     P173400  30.090   2.198  14.786 -0.2245 -0.0552  0.1131
12234DDP     P273401   0.593   1.930  14.486  0.0493  0.1522 -0.1223
12234DDP     C273402   0.830   1.957  14.278  0.0023 -0.0101 -0.1211
12234DDP     C373403  29.805   2.374  14.545 -0.2584 -0.2011 -0.0906
12234DDP     C473404  30.281   1.531  14.666  0.0374 -0.1675 -0.0035
12235DDP     C173405  10.725   1.333  21.999  0.2071 -0.0583  0.1054
12235DDP     P173406  10.446   1.632  22.111  0.0605  0.0591  0.3258
12235DDP     P273407  10.588   0.899  21.996  0.0452  0.1490  0.1372
12235DDP     C273408  10.866   0.603  22.247 -0.0677 -0.1217 -0.1116
12235DDP     C373409  10.005   1.722  22.087  0.2519  0.1164 -0.1115
12235DDP     C473410  11.102   1.371  21.726 -0.1190 -0.2601  0.0931
12236DDP     C173411  26.805  30.204  28.522  0.0494  0.1330 -0.1198
12236DDP     P173412  26.718   0.060  28.069  0.0664  0.0177 -0.0652
12236DDP     P273413  27.034  29.712  28.541 -0.0548 -0.2064  0.0060
12236DDP     C273414  27.438  29.394  28.547  0.1189 -0.2505  0.2220
12236DDP     C373415  26.912  30.252  27.729 -0.0556  0.2885  0.2036
12236DDP     C473416  26.585  30.305  28.868  0.1950 -0.0208  0.1482
12237DDP     C173417   1.671  26.678   9.098 -0.3514  0.4014  0.4639
12237DDP     P173418   2.109  26.398   9.035  0.0261 -0.3204 -0.4440
12237DDP     P273419   1.371  26.527   9.268 -0.1581  0.0499 -0.1731
12237DDP     C273420   1.111  26.822   9.468 -0.0381  0.3966 -0.4204
12237DDP     C373421   2.161  25.988   9.187 -0.2911  0.0142 -0.0571
12237DDP     C473422   1.538  27.007   8.828 -0.0504  0.2801 -0.1307
12238DDP     C173423  16.314   2.031  11.180  0.3311  0.1260 -0.1769
12238DDP     P173424  16.267   2.270  10.851 -0.0425 -0.0186 -0.0943
12238DDP     P273425  16.540   2.151  11.553  0.2221 -0.2206 -0.0373
12238DDP     C273426  17.015   2.313  11.703 -0.1883 -0.1879  0.0627
12238DDP     C373427  16.068   2.592  10.570 -0.1217  0.6350 -0.0737
12238DDP     C473428  16.249   1.591  11.321 -0.0178  0.2563  0.0599
12239DDP     C173429   0.997  26.467  20.027 -0.2678 -0.1943 -0.0123
12239DDP     P173430   0.645  26.276  20.114  0.0197 -0.0035  0.1311
12239DDP     P273431   1.189  26.536  19.644 -0.0180 -0.5750  0.0670
12239DDP     C273432   1.543  26.446  19.504 -0.0092 -0.1009  0.2009
12239DDP     C373433   0.412  26.221  20.400  0.1193  0.1864  0.1063
12239DDP     C473434   1.180  26.775  20.314  0.0588  0.2725  0.2255
12240DDP     C173435  25.531   0.214  15.999  0.0727  0.1483  0.0216
12240DDP     P173436  25.759   0.024  15.815  0.0048  0.0876  0.1865
12240DDP     P273437  25.426   0.676  15.810 -0.5126 -0.0407  0.1737
12240DDP     C273438  25.550   1.105  15.955 -0.0004 -0.0347  0.4434
12240DDP     C373439  26.095  30.143  15.613 -0.0900 -0.1021 -0.2944
12240DDP     C473440  25.511  30.299  16.322 -0.1075  0.1440 -0.2519
12241DDP     C173441  15.188   2.567  11.164  0.0418 -0.2073  0.0775
12241DDP     P173442  15.100   2.676  10.719 -0.1922 -0.3081  0.0100
12241DDP     P273443  15.543   2.661  11.191  0.1654  0.1613  0.1575
12241DDP     C273444  15.865   2.838  10.959  0.1784 -0.0115  0.2545
12241DDP     C373445  14.898   2.667  10.277 -0.3132 -0.4071 -0.3591
12241DDP     C473446  14.857   2.685  11.505 -0.2477  0.1853  0.2398
12242DDP     C173447   3.469  24.035  26.160 -0.0625  0.1232  0.1266
12242DDP     P173448   3.661  23.729  26.434  0.2003 -0.0116  0.1304
12242DDP     P273449   3.399  23.972  25.735  0.0117 -0.0728  0.0004
12242DDP     C273450   3.404  23.852  25.276  0.2334  0.0421  0.3114
12242DDP     C373451   3.610  23.373  26.631 -0.1501  0.0265  0.0722
12242DDP     C473452   3.546  24.539  26.452 -0.0188  0.1096  0.1242
12243DDP     C173453  21.060   6.717  25.810 -0.2730  0.2386  0.0234
12243DDP     P173454  20.881   6.856  25.502 -0.1518  0.2646  0.3344
12243DDP     P273455  21.476   6.774  25.836 -0.6950 -0.0810  0.0616
12243DDP     C273456  21.946   6.537  25.771  0.0640  0.1632  0.2263
12243DDP     C373457  21.051   7.046  25.017  0.2381  0.1780  0.1183
12243DDP     C473458  20.915   6.948  26.232 -0.0890 -0.0241 -0.0492
12244DDP     C173459   6.833   6.751   9.517  0.1714  0.2425  0.0485
12244DDP     P173460   7.150   6.680   9.810 -0.0385  0.0853  0.3985
12244DDP     P273461   6.881   6.987   9.069 -0.3348  0.0152 -0.1837
12244DDP     C273462   6.809   7.066   8.658  0.1679  0.2653  0.0945
12244DDP     C373463   7.527   6.940   9.703 -0.1653 -0.1164  0.2603
12244DDP     C473464   6.571   6.441   9.495  0.1540 -0.0596 -0.2036
12245DDP     C173465  24.985  25.895  20.488 -0.2324 -0.0754 -0.0966
12245DDP     P173466  25.309  25.660  20.259  0.0934 -0.0510 -0.0508
12245DDP     P273467  24.532  26.118  20.540  0.1933 -0.0544  0.0725
12245DDP     C273468  24.224  26.424  20.352 -0.0180 -0.0323 -0.0176
12245DDP     C373469  25.213  25.410  19.896 -0.0420 -0.1280  0.0227
12245DDP     C473470  25.263  25.967  20.859  0.0013  0.0452 -0.1400
12246DDP     C173471  10.231  29.608   2.471 -0.1159 -0.0816  0.1149
12246DDP     P173472  10.408  29.567   2.044 -0.2798 -0.1171  0.1894
12246DDP     P273473  10.158  30.031   2.446  0.0349 -0.0288 -0.0904
12246DDP     C273474  10.090   0.132   2.385 -0.1258  0.1730 -0.1345
12246DDP     C373475  10.591  29.761   1.674  0.3072 -0.0286 -0.1386
12246DDP     C473476  10.232  29.293   2.791  0.1457 -0.2662 -0.0228
12247DDP     C173477  10.109   0.794   6.858  0.0307  0.0566  0.0540
12247DDP     P173478  10.350   1.118   7.081  0.0083 -0.1988  0.0671
12247DDP     P273479   9.997   0.281   6.903  0.0494 -0.1606  0.1833
12247DDP     C273480   9.883  30.174   6.702  0.1598  0.0677 -0.1377
12247DDP     C373481  10.616   1.403   7.010  0.2483  0.4693  0.0989
12247DDP     C473482  10.276   0.837   6.368  0.0299  0.2573  0.1198
12248DDP     C173483  14.022  19.752  10.267 -0.0626  0.1618  0.1489
12248DDP     P173484  14.366  20.039  10.192  0.4178  0.2108 -0.1118
12248DDP     P273485  13.986  19.399  10.554  0.2506 -0.2081 -0.2001
12248DDP     C273486  13.828  19.145  10.903  0.1128  0.2267 -0.4393
12248DDP     C373487  14.649  20.301   9.969 -0.0963 -0.4242  0.0280
12248DDP     C473488  13.575  19.816  10.049 -0.0080  0.2654  0.0028
12249DDP     C173489   0.999   6.880  12.779 -0.0204  0.4460 -0.0769
12249DDP     P173490   0.640   6.549  12.769 -0.2466  0.3140  0.2625
12249DDP     P273491   1.167   6.793  12.436  0.3281  0.4435  0.0695
12249DDP     C273492   1.165   7.016  12.028 -0.0920  0.0372  0.1718
12249DDP     C373493   0.420   6.171  13.028  0.1546  0.0679 -0.2087
12249DDP     C473494   1.103   6.976  13.187  0.2308 -0.2257  0.1390
12250DDP     C173495  12.621  15.363  22.614  0.1732 -0.1997  0.0435
12250DDP     P173496  12.480  15.493  22.164 -0.0914 -0.1622  0.2980
12250DDP     P273497  12.591  14.966  22.739  0.0970  0.0959  0.0423
12250DDP     C273498  12.195  14.787  22.919 -0.2787  0.2024 -0.2499
12250DDP     C373499  12.212  15.404  21.834  0.0440  0.1615 -0.0619
12250DDP     C473500  12.609  15.651  22.905 -0.0243 -0.3510 -0.2496
12251DDP     C173501   9.226  13.479  16.662 -0.2753 -0.0056 -0.0376
12251DDP     P173502   8.892  13.428  16.948 -0.0778 -0.0974  0.1723
12251DDP     P273503   9.707  13.554  16.899  0.5097  0.1761  0.0160
12251DDP     C273504   9.972  13.876  16.677 -0.3951 -0.0715  0.0181
12251DDP     C373505   8.788  13.633  17.285  0.0942  0.1055 -0.1098
12251DDP     C473506   9.272  13.633  16.333  0.3217 -0.0457  0.0141
12252DDP     C173507  26.872  18.689   2.698  0.2243  0.0825  0.2130
12252DDP     P173508  26.509  18.465   2.503 -0.1019  0.1667  0.0061
12252DDP     P273509  26.973  18.715   2.295  0.0688  0.1635  0.1499
12252DDP     C273510  26.760  19.054   2.018 -0.0199  0.1586  0.1304
12252DDP     C373511  26.391  18.150   2.254 -0.3427  0.0548 -0.1503
12252DDP     C473512  27.087  18.893   3.015  0.0073  0.0240  0.5489
12253DDP     C173513  23.746  15.021  17.297 -0.0636 -0.1990 -0.1849
12253DDP     P173514  23.690  14.683  16.985 -0.0504  0.0761 -0.1517
12253DDP     P273515  23.649  14.672  17.615  0.0410  0.0891 -0.0567
12253DDP     C273516  23.784  14.214  17.803 -0.1206  0.1271 -0.1766
12253DDP     C373517  23.851  14.705  16.599  0.0479 -0.1902 -0.0355
12253DDP     C473518  23.739  15.562  17.443 -0.2804  0.2349  0.1052
12254DDP     C173519  12.528  18.813   8.143  0.1207  0.0734  0.0859
12254DDP     P173520  12.151  18.921   7.835  0.2067 -0.2890 -0.1601
12254DDP     P273521  12.896  19.063   8.276 -0.1570 -0.0262  0.1947
12254DDP     C273522  13.165  18.950   8.600  0.1950 -0.0841 -0.0698
12254DDP     C373523  11.831  19.142   7.683  0.3616 -0.1104  0.1186
12254DDP     C473524  12.522  18.444   8.369  0.1125  0.0336 -0.1859
12255DDP     C173525   0.184  23.285   1.579  0.1797 -0.1465  0.0835
12255DDP     P173526   0.592  23.515   1.575 -0.0744  0.0950  0.2849
12255DDP     P273527   0.005  23.192   1.209 -0.0891 -0.0867 -0.1069
12255DDP     C273528  29.894  23.314   1.096 -0.1242  0.0355 -0.0042
12255DDP     C373529   0.755  23.760   1.861  0.1051  0.2190  0.0558
12255DDP     C473530   0.103  23.045   1.970  0.0838  0.1541  0.0446
12256DDP     C173531  23.338   9.731  22.054  0.3637  0.1943 -0.2745
12256DDP     P173532  23.427   9.386  21.780 -0.3966 -0.0968  0.1146
12256DDP     P273533  23.415  10.217  21.965  0.2267 -0.1348  0.1490
12256DDP     C273534  23.768  10.358  21.880 -0.1309 -0.1607 -0.0340
12256DDP     C373535  23.563   9.380  21.328  0.1025 -0.2494  0.0768
12256DDP     C473536  23.078   9.763  22.375 -0.1202 -0.0224 -0.1394
12257DDP     C173537  25.714   2.321  20.896 -0.3066  0.1497  0.3610
12257DDP     P173538  25.310   2.653  20.727  0.1601 -0.1429  0.1219
12257DDP     P273539  25.773   2.106  20.456  0.0895 -0.0267 -0.2835
12257DDP     C273540  25.982   1.911  20.179  0.1555  0.1798  0.2721
12257DDP     C373541  25.088   2.962  20.462  0.0329  0.1680 -0.1788
12257DDP     C473542  26.077   2.276  21.174  0.2320 -0.2026  0.0864
12258DDP     C173543   1.027  26.946  11.306 -0.0818 -0.0358 -0.0296
12258DDP     P173544   0.642  26.889  11.305  0.1013  0.0659 -0.0450
12258DDP     P273545   1.303  27.119  11.575  0.1109  0.0557 -0.0311
12258DDP     C273546   1.389  27.077  11.993 -0.0162  0.5885  0.2090
12258DDP     C373547   0.383  26.700  11.159  0.2594  0.1834 -0.0354
12258DDP     C473548   1.293  26.837  10.807  0.2756 -0.0892  0.1210
12259DDP     C173549  17.338  10.103   3.966  0.0538  0.2259  0.0004
12259DDP     P173550  17.342   9.749   3.863  0.0374  0.0798  0.1136
12259DDP     P273551  17.050  10.212   3.571  0.2307 -0.0860 -0.0181
12259DDP     C273552  16.659  10.380   3.308 -0.3618  0.2427 -0.1082
12259DDP     C373553  17.264   9.355   3.599  0.2453  0.2097  0.2364
12259DDP     C473554  17.791  10.151   3.926  0.1100 -0.2160 -0.3497
12260DDP     C173555  14.579  11.316  23.143  0.1064  0.1530 -0.1548
12260DDP     P173556  14.762  11.536  22.737  0.1553  0.0410  0.1367
12260DDP     P273557  14.050  11.189  23.320  0.1481 -0.1429  0.0009
12260DDP     C273558  13.601  11.157  23.249  0.1096 -0.1018  0.1822
12260DDP     C373559  14.739  11.863  22.543  0.0399  0.1050  0.1115
12260DDP     C473560  14.916  11.202  23.306  0.2382 -0.2541  0.2329
12261DDP     C173561  14.677  15.216  21.636  0.0586  0.1566  0.0046
12261DDP     P173562  14.351  15.462  21.674 -0.1456  0.0715 -0.1248
12261DDP     P273563  15.052  15.272  21.569  0.2550  0.2041 -0.1669
12261DDP     C273564  15.266  15.519  21.259 -0.1445 -0.2746 -0.2833
12261DDP     C373565  14.075  15.706  21.872 -0.1991  0.0831 -0.1644
12261DDP     C473566  14.577  14.833  21.867  0.1469 -0.0079 -0.1567
12262DDP     C173567  10.594  27.531  14.289  0.1624  0.0046  0.2527
12262DDP     P173568  10.789  27.493  13.930 -0.1929 -0.1667 -0.0938
12262DDP     P273569  10.484  27.904  14.419 -0.1150  0.1975  0.0537
12262DDP     C273570  10.492  28.359  14.513  0.3008 -0.0688 -0.0337
12262DDP     C373571  10.916  27.575  13.488 -0.0753  0.2821 -0.1176
12262DDP     C473572  10.496  27.193  14.291 -0.1183  0.0921  0.2491
12263DDP     C173573  13.106  25.683  26.842 -0.0081 -0.0886  0.1840
12263DDP     P173574  13.024  25.320  26.885  0.0214  0.2091 -0.0835
12263DDP     P273575  13.079  26.016  27.055 -0.2693  0.1598 -0.1305
12263DDP     C273576  12.637  26.319  27.234 -0.0296 -0.1890  0.0456
12263DDP     C373577  12.757  25.151  27.185  0.2104  0.0532 -0.1989
12263DDP     C473578  13.296  25.857  26.449 -0.0110 -0.1616 -0.2179
12264DDP     C173579   0.508  11.602  14.372  0.0530  0.0970  0.1020
12264DDP     P173580   0.445  11.070  14.489 -0.1802 -0.0917  0.2593
12264DDP     P273581   0.803  11.746  14.033  0.1831  0.1677  0.0318
12264DDP     C273582   1.249  11.674  13.982  0.4378  0.1263 -0.0550
12264DDP     C373583   0.637  10.969  14.929 -0.1136 -0.1663 -0.0667
12264DDP     C473584   0.289  11.783  14.634 -0.2038 -0.1628  0.1575
12265DDP     C173585   3.364   6.452   3.807 -0.3673 -0.1755 -0.1521
12265DDP     P173586   3.035   6.482   3.539 -0.3644 -0.1063 -0.5831
12265DDP     P273587   3.620   6.173   3.557 -0.1521  0.0899  0.1194
12265DDP     C273588   3.775   6.162   3.170 -0.0665 -0.3022 -0.2278
12265DDP     C373589   2.629   6.563   3.384  0.2217 -0.1698  0.3013
12265DDP     C473590   3.418   6.822   4.087 -0.1355  0.1890 -0.1681
12266DDP     C173591  11.582  23.475   4.591 -0.0701  0.0277 -0.1272
12266DDP     P173592  11.194  23.427   4.637  0.0994 -0.1553  0.0113
12266DDP     P273593  11.638  23.921   4.461 -0.0464  0.2352 -0.0514
12266DDP     C273594  11.513  24.314   4.445 -0.2114  0.0770  0.1205
12266DDP     C373595  10.851  23.189   4.525  0.0637  0.1569 -0.0151
12266DDP     C473596  11.982  23.206   4.551  0.1442 -0.3611 -0.3056
12267DDP     C173597   3.810  10.718  27.893 -0.0442 -0.0855 -0.1703
12267DDP     P173598   4.009  10.447  28.086  0.0259 -0.2271 -0.2771
12267DDP     P273599   3.422  10.804  27.998  0.0565  0.1896 -0.1296
12267DDP     C273600   3.031  10.604  27.748  0.0132 -0.1135 -0.1494
12267DDP     C373601   4.066  10.023  27.929  0.2288 -0.2399 -0.0292
12267DDP     C473602   3.975  10.820  27.475 -0.0965 -0.1396  0.1234
12268DDP     C173603  27.448  26.113  21.414 -0.0626 -0.4751  0.0096
12268DDP     P173604  27.401  25.722  21.449 -0.1250  0.0524 -0.0319
12268DDP     P273605  27.327  26.574  21.771  0.0040  0.2641 -0.3039
12268DDP     C273606  27.293  26.964  21.637 -0.2798  0.2440 -0.0498
12268DDP     C373607  27.240  25.405  21.173  0.2516  0.2736 -0.0748
12268DDP     C473608  27.352  26.224  20.980  0.2932  0.0491  0.2724
12269DDP     C173609   4.679  26.792  20.743 -0.1171  0.0974  0.4013
12269DDP     P173610   4.832  26.415  20.530 -0.1177 -0.1268  0.0931
12269DDP     P273611   4.632  27.117  21.107 -0.1034 -0.0174 -0.0666
12269DDP     C273612   4.504  27.271  21.518 -0.0290 -0.1560  0.1737
12269DDP     C373613   5.202  26.324  20.382  0.1513  0.0331  0.0810
12269DDP     C473614   4.392  27.044  20.499 -0.0733 -0.2686 -0.0824
12270DDP     C173615   4.732   3.194  26.500 -0.0313  0.2830  0.3219
12270DDP     P173616   4.421   3.435  26.132  0.0674 -0.2090  0.1730
12270DDP     P273617   5.176   3.115  26.497 -0.2527 -0.0262 -0.2776
12270DDP     C273618   5.530   2.997  26.519 -0.0179  0.2998  0.0744
12270DDP     C373619   4.015   3.312  25.960  0.1977  0.1868  0.0074
12270DDP     C473620   4.748   3.078  27.025 -0.0205 -0.0279 -0.0962
12271DDP     C173621  28.444  18.819   1.874  0.1875  0.1498 -0.2336
12271DDP     P173622  28.615  18.402   1.806 -0.1310 -0.2809 -0.1779
12271DDP     P273623  28.316  19.128   1.524  0.1792 -0.4009 -0.2000
12271DDP     C273624  28.136  19.184   1.146 -0.0112  0.0695 -0.0652
12271DDP     C373625  28.896  18.110   1.532  0.2473  0.0057 -0.1603
12271DDP     C473626  28.674  18.885   2.180  0.2413  0.1218  0.0559
12272DDP     C173627  23.597  11.335  11.410  0.0145 -0.2405  0.1079
12272DDP     P173628  23.364  11.063  11.656 -0.0662  0.4226 -0.1977
12272DDP     P273629  23.112  11.473  11.414  0.1646 -0.1700 -0.1767
12272DDP     C273630  22.794  11.687  11.680  0.0753  0.3183 -0.0345
12272DDP     C373631  23.385  10.664  11.912 -0.1470 -0.3927 -0.1808
12272DDP     C473632  23.947  11.328  11.146 -0.1506  0.0059  0.0537
12273DDP     C173633  11.942   4.403  24.866 -0.1811  0.0550 -0.1553
12273DDP     P173634  12.162   4.617  24.435  0.1877  0.1208  0.1462
12273DDP     P273635  11.467   4.436  24.935  0.0695  0.0197 -0.4969
12273DDP     C273636  11.043   4.535  25.072 -0.2777  0.2750 -0.0255
12273DDP     C373637  12.162   4.366  24.127  0.1691 -0.0612  0.0697
12273DDP     C473638  12.290   4.299  25.167  0.0697  0.3844  0.0378
12274DDP     C173639   2.715  21.465  13.670 -0.2607 -0.0608 -0.1142
12274DDP     P173640   2.624  21.223  14.025  0.0213 -0.0967  0.2874
12274DDP     P273641   2.841  21.448  13.288  0.1110 -0.2786  0.1470
12274DDP     C273642   3.066  21.235  13.010  0.2844  0.0883 -0.0969
12274DDP     C373643   2.548  20.888  14.333 -0.0597  0.0256  0.4495
12274DDP     C473644   2.940  21.893  13.682 -0.1541 -0.3317  0.0146
12275DDP     C173645  26.570   3.072   0.337  0.0115 -0.1724 -0.1575
12275DDP     P173646  26.905   3.122   0.721 -0.2212  0.2964 -0.0629
12275DDP     P273647  26.244   3.338   0.542  0.0736  0.0781  0.0659
12275DDP     C273648  25.806   3.313   0.533  0.3092 -0.0965  0.0180
12275DDP     C373649  27.069   3.048   1.088  0.2076 -0.1806 -0.2223
12275DDP     C473650  26.527   2.679   0.066  0.2001  0.2794  0.0164
12276DDP     C173651   3.384  16.616   0.143 -0.0062  0.1119 -0.0369
12276DDP     P173652   3.667  16.344  30.189  0.0811  0.0255  0.0078
12276DDP     P273653   3.051  16.519   0.435  0.0236 -0.3334 -0.1075
12276DDP     C273654   2.585  16.483   0.474 -0.2874 -0.0467 -0.2887
12276DDP     C373655   3.934  16.169  30.263 -0.1016  0.0003  0.0179
12276DDP     C473656   3.487  17.096   0.203 -0.0009  0.0278 -0.1482
12277DDP     C173657   1.748  27.291   4.923  0.0784  0.0489 -0.2455
12277DDP     P173658   1.626  27.598   5.141 -0.0525 -0.0793 -0.0348
12277DDP     P273659   2.228  27.130   4.841  0.0679 -0.0770  0.2147
12277DDP     C273660   2.415  27.028   4.621 -0.1495  0.1000  0.0281
12277DDP     C373661   1.894  27.804   5.294 -0.1694  0.0280  0.1298
12277DDP     C473662   1.353  27.306   4.666 -0.3964 -0.0766  0.0498
12278DDP     C173663  25.482  13.654  13.743 -0.1502  0.1830  0.0794
12278DDP     P173664  25.501  14.033  13.540  0.2422  0.3033 -0.1536
12278DDP     P273665  25.726  13.528  14.153 -0.3579  0.0343  0.1216
12278DDP     C273666  25.813  13.768  14.504  0.2442  0.1096  0.2469
12278DDP     C373667  25.671  14.400  13.490  0.1614 -0.0080 -0.0070
12278DDP     C473668  25.102  13.439  13.904  0.0295 -0.0872  0.1915
12279DDP     C173669  13.855  23.908   9.844  0.0055 -0.3022 -0.1161
12279DDP     P173670  13.668  24.391   9.738 -0.1543  0.0636 -0.1202
12279DDP     P273671  14.053  23.862  10.281  0.1764  0.1892 -0.0683
12279DDP     C273672  13.968  23.706  10.729  0.2674  0.1344  0.3314
12279DDP     C373673  13.467  24.485   9.279  0.0891  0.2898 -0.0930
12279DDP     C473674  13.710  23.662   9.625  0.1705  0.0311  0.1011
12280DDP     C173675  17.705  11.748   6.351  0.0295  0.0237  0.1147
12280DDP     P173676  17.487  12.031   6.048  0.0442  0.0368 -0.2660
12280DDP     P273677  17.645  11.302   6.391 -0.1509  0.0221 -0.2316
12280DDP     C273678  17.362  11.070   6.241  0.2328 -0.0431 -0.0540
12280DDP     C373679  17.420  12.316   5.774 -0.3479 -0.0493  0.0393
12280DDP     C473680  18.007  11.731   6.657  0.1947  0.1527  0.0386
12281DDP     C173681  26.977   3.072  27.167 -0.2862 -0.1100 -0.0442
12281DDP     P173682  26.581   3.045  27.142 -0.0109 -0.0054 -0.1118
12281DDP     P273683  27.250   3.100  26.917  0.0253 -0.2245 -0.0475
12281DDP     C273684  27.686   2.976  26.794 -0.0026  0.1065 -0.2743
12281DDP     C373685  26.221   3.079  27.442 -0.0839  0.0999 -0.2057
12281DDP     C473686  27.203   3.039  27.559 -0.1103 -0.0314  0.2142
12282DDP     C173687  23.720  13.293  24.055  0.0612 -0.0810 -0.0879
12282DDP     P173688  24.142  13.579  24.011 -0.2068  0.0388 -0.0383
12282DDP     P273689  23.331  13.399  24.262  0.1049  0.1109  0.0635
12282DDP     C273690  22.849  13.416  24.488  0.1016  0.2985  0.0324
12282DDP     C373691  24.039  14.075  23.919 -0.1208 -0.2462 -0.0499
12282DDP     C473692  23.632  12.997  23.704  0.1993 -0.0090  0.2385
12283DDP     C173693  24.865  20.817   0.096 -0.1932 -0.0712  0.0177
12283DDP     P173694  24.860  20.592   0.507 -0.1974  0.0820 -0.1774
12283DDP     P273695  25.276  20.944   0.139 -0.0319  0.0967 -0.1894
12283DDP     C273696  25.502  20.926   0.504  0.1212  0.0022  0.0433
12283DDP     C373697  25.214  20.478   0.767  0.1419  0.0799 -0.2499
12283DDP     C473698  24.679  20.862  30.055 -0.0136 -0.0059 -0.2508
12284DDP     C173699  17.807  23.970   6.119  0.1911  0.1101  0.2998
12284DDP     P173700  18.067  24.165   5.801 -0.2533  0.0736  0.3537
12284DDP     P273701  17.356  23.942   5.983  0.1708  0.0148  0.3166
12284DDP     C273702  17.051  23.843   5.584 -0.0156 -0.1071  0.0367
12284DDP     C373703  18.517  24.319   5.856 -0.0040  0.0683  0.1810
12284DDP     C473704  18.040  23.650   6.407  0.0788  0.1398  0.1283
12285DDP     C173705  16.779   1.920  25.853  0.4027 -0.1498 -0.1846
12285DDP     P173706  16.654   1.517  25.980  0.0515 -0.0500 -0.1276
12285DDP     P273707  17.106   2.279  26.008  0.1018  0.0206  0.4494
12285DDP     C273708  17.015   2.630  26.073 -0.0867  0.3051 -0.2250
12285DDP     C373709  16.604   1.406  26.382 -0.0723  0.1107  0.0243
12285DDP     C473710  16.442   2.110  25.620 -0.0595 -0.0660 -0.1494
12286DDP     C173711  16.968   4.645  23.682  0.1523  0.1193  0.1215
12286DDP     P173712  17.144   4.915  23.385 -0.2795 -0.1140  0.0084
12286DDP     P273713  16.631   4.803  23.879 -0.2173 -0.0367  0.2176
12286DDP     C273714  16.480   5.124  23.683  0.2336  0.0610  0.3808
12286DDP     C373715  17.281   4.627  23.076 -0.0679 -0.0727  0.0472
12286DDP     C473716  17.183   4.299  23.806 -0.2506  0.0679  0.2416
12287DDP     C173717  20.758  18.563   9.436  0.1493  0.0201 -0.2303
12287DDP     P173718  20.515  18.910   9.331  0.1123 -0.2382 -0.0390
12287DDP     P273719  20.838  18.495   9.875 -0.5908 -0.1380  0.2865
12287DDP     C273720  20.888  18.756  10.242  0.0383  0.1522 -0.1424
12287DDP     C373721  20.397  19.202   9.033 -0.1654  0.2333 -0.0267
12287DDP     C473722  20.999  18.442   8.966 -0.1749  0.2701 -0.0829
12288DDP     C173723  12.599  18.568  19.267  0.1751 -0.6392 -0.1089
12288DDP     P173724  12.250  18.569  19.618  0.1432 -0.2160  0.0663
12288DDP     P273725  12.954  18.255  19.311 -0.3788 -0.0099  0.1553
12288DDP     C273726  13.040  17.840  19.104  0.0714 -0.0347 -0.0172
12288DDP     C373727  12.223  18.836  19.913 -0.3665  0.0828 -0.0223
12288DDP     C473728  12.575  18.937  18.992  0.5000  0.0131 -0.0338
12289DDP     C173729  14.013  24.321  25.676 -0.2012  0.1940 -0.3118
12289DDP     P173730  13.581  24.510  25.506  0.3166  0.2004  0.1005
12289DDP     P273731  13.969  23.998  25.920  0.0352  0.0078 -0.0245
12289DDP     C273732  13.660  23.620  25.860  0.3313 -0.2060  0.3589
12289DDP     C373733  13.324  24.445  25.163  0.1606  0.3517  0.0038
12289DDP     C473734  14.379  24.567  25.696  0.2676 -0.2384 -0.1106
12290DDP     C173735   3.897  27.051  28.660 -0.0305  0.1907 -0.1006
12290DDP     P173736   4.051  26.697  28.628  0.2960  0.0885 -0.2707
12290DDP     P273737   3.451  27.080  28.586  0.0920 -0.1825 -0.0053
12290DDP     C273738   3.236  26.841  28.321 -0.4296 -0.0310  0.0561
12290DDP     C373739   4.347  26.310  28.779  0.2467 -0.1090 -0.0460
12290DDP     C473740   4.147  27.389  28.837 -0.0174  0.3407 -0.1625
12291DDP     C173741  10.315  23.813  10.154 -0.0492 -0.0046  0.1124
12291DDP     P173742   9.859  23.917  10.182 -0.1123 -0.0956  0.0679
12291DDP     P273743  10.506  23.671  10.552 -0.1000  0.0305  0.1123
12291DDP     C273744  11.015  23.624  10.665 -0.2400  0.0496  0.2109
12291DDP     C373745   9.428  23.934  10.295  0.0898 -0.0031 -0.3684
12291DDP     C473746  10.413  23.483   9.804  0.0817 -0.0431 -0.3023
12292DDP     C173747  11.162   9.322  23.609 -0.0734 -0.0729  0.0911
12292DDP     P173748  11.272   9.447  24.071  0.2124  0.0923  0.1477
12292DDP     P273749  11.243   8.848  23.642 -0.0431  0.0820 -0.2908
12292DDP     C273750  11.423   8.474  23.882  0.3889  0.0076 -0.4355
12292DDP     C373751  11.496   9.232  24.416  0.0750  0.0607  0.4375
12292DDP     C473752  11.326   9.634  23.360  0.0083 -0.0487  0.0994
12293DDP     C173753   5.065   2.115  15.531  0.0122 -0.4292  0.4502
12293DDP     P173754   5.424   2.407  15.594  0.2938 -0.2261 -0.0392
12293DDP     P273755   4.753   2.253  15.315  0.0924 -0.1168 -0.2977
12293DDP     C273756   4.460   2.143  15.025  0.2768  0.0636 -0.2244
12293DDP     C373757   5.825   2.454  15.759  0.1605  0.1978  0.0459
12293DDP     C473758   5.287   1.778  15.632  0.3024  0.2016  0.0454
12294DDP     C173759   5.179  23.592   1.686 -0.1840  0.0592 -0.1371
12294DDP     P173760   5.697  23.702   1.696  0.0142 -0.0704 -0.2405
12294DDP     P273761   5.302  23.365   2.019 -0.2009  0.1916 -0.0695
12294DDP     C273762   5.668  23.207   2.245 -0.0267 -0.0666 -0.1643
12294DDP     C373763   6.062  23.949   1.543 -0.1898 -0.1011 -0.0915
12294DDP     C473764   4.851  23.533   1.310  0.3123  0.1046 -0.2396
12295DDP     C173765  26.654  20.125  26.409  0.2798 -0.2510  0.0338
12295DDP     P173766  27.015  20.136  26.357  0.0209 -0.2489 -0.0872
12295DDP     P273767  26.504  20.031  26.813 -0.0335  0.0513  0.0344
12295DDP     C273768  26.424  20.031  27.348  0.1665 -0.0927  0.2189
12295DDP     C373769  27.337  19.867  26.357 -0.0329  0.1321 -0.3231
12295DDP     C473770  26.360  20.196  26.025 -0.1500  0.3289 -0.1409
12296DDP     C173771  19.370  21.367  15.835 -0.0420 -0.1554 -0.1808
12296DDP     P173772  19.327  20.862  15.763 -0.1520  0.0696  0.1522
12296DDP     P273773  19.161  21.545  16.229 -0.1306  0.0471  0.1690
12296DDP     C273774  18.948  21.415  16.532  0.1921 -0.1615 -0.5441
12296DDP     C373775  18.979  20.655  15.574 -0.2521 -0.1714  0.1101
12296DDP     C473776  19.333  21.544  15.509 -0.0800 -0.0246  0.4945
12297DDP     C173777   6.757   8.989  11.093  0.0443  0.1559  0.1124
12297DDP     P173778   6.423   9.108  10.734 -0.3308  0.0541 -0.2351
12297DDP     P273779   7.099   9.244  11.170  0.2575  0.0526 -0.1111
12297DDP     C273780   7.435   9.527  11.104 -0.1663 -0.1878 -0.1371
12297DDP     C373781   6.010   9.126  10.500 -0.2680 -0.0383 -0.1226
12297DDP     C473782   6.540   8.608  11.345 -0.1180  0.1550  0.1008
12298DDP     C173783  24.814  22.625  10.637  0.2539 -0.4503  0.0168
12298DDP     P173784  24.967  22.244  10.472 -0.0802  0.1432 -0.0016
12298DDP     P273785  24.831  22.764  11.159  0.0300 -0.1250 -0.0073
12298DDP     C273786  24.889  22.800  11.634  0.0434  0.1310 -0.0004
12298DDP     C373787  25.207  21.875  10.331  0.0085 -0.0608  0.3166
12298DDP     C473788  24.563  22.730  10.341 -0.3527  0.2253  0.0722
12299DDP     C173789  13.038  25.483  21.596 -0.2165 -0.2956  0.2470
12299DDP     P173790  12.864  25.896  21.417  0.2041 -0.0636  0.0786
12299DDP     P273791  12.772  25.244  21.779  0.1449 -0.0735 -0.1955
12299DDP     C273792  12.458  25.015  21.671  0.0988  0.1699  0.1795
12299DDP     C373793  12.939  26.310  21.517  0.2428  0.0095  0.0503
12299DDP     C473794  13.485  25.534  21.620 -0.3034 -0.4918 -0.0918
12300DDP     C173795  19.811  27.122  29.277  0.2000  0.0574 -0.0226
12300DDP     P173796  19.475  26.824  29.425 -0.1236  0.0426 -0.0554
12300DDP     P273797  19.633  27.612  29.387 -0.0972  0.2116  0.2420
12300DDP     C273798  19.210  27.667  29.437 -0.0614  0.1838 -0.0608
12300DDP     C373799  19.242  26.587  29.761 -0.0966 -0.0704  0.1288
12300DDP     C473800  20.047  26.913  29.045  0.0702 -0.1896  0.1221
12301DDP     C173801  28.216  15.452  28.422  0.1929 -0.2047  0.0316
12301DDP     P173802  28.491  15.235  28.750 -0.2639 -0.1991 -0.0196
12301DDP     P273803  28.008  15.248  28.076 -0.3419 -0.0178  0.2411
12301DDP     C273804  27.946  15.053  27.676 -0.0375  0.0858 -0.1663
12301DDP     C373805  28.612  14.971  29.041  0.0445  0.0633  0.2113
12301DDP     C473806  27.991  15.851  28.430 -0.0009  0.0130  0.1106
12302DDP     C173807   2.191  17.001  10.582  0.3460 -0.1475  0.1963
12302DDP     P173808   1.822  17.169  10.806 -0.1464  0.1039  0.1075
12302DDP     P273809   2.487  17.321  10.536 -0.0018 -0.1601  0.0817
12302DDP     C273810   2.393  17.813  10.439  0.3363 -0.0707 -0.1838
12302DDP     C373811   1.970  17.627  10.756 -0.0137 -0.1901  0.0153
12302DDP     C473812   2.283  16.577  10.283 -0.2290  0.1459 -0.1359
12303DDP     C173813  19.264  10.413  12.615 -0.0971 -0.0413 -0.2249
12303DDP     P173814  18.795  10.273  12.634  0.5116 -0.1662  0.2396
12303DDP     P273815  19.413  10.747  12.882  0.0848 -0.3091  0.0480
12303DDP     C273816  19.305  11.012  13.225 -0.1187 -0.1660  0.0288
12303DDP     C373817  18.549  10.393  12.309  0.3485 -0.2239  0.0294
12303DDP     C473818  19.503  10.103  12.365 -0.0487 -0.2527 -0.1027
12304DDP     C173819  15.938   7.191   1.908  0.1769  0.2582 -0.0963
12304DDP     P173820  15.810   7.254   2.330 -0.0734  0.0830  0.2257
12304DDP     P273821  15.845   7.461   1.537 -0.0753  0.2252  0.0645
12304DDP     C273822  15.691   7.374   1.114 -0.1650 -0.2690 -0.0950
12304DDP     C373823  15.609   7.666   2.287 -0.3693  0.0248 -0.0652
12304DDP     C473824  15.876   6.801   1.740  0.1829  0.1795 -0.2181
12305DDP     C173825  12.769   7.801  20.300  0.0788  0.1711  0.0576
12305DDP     P173826  12.792   8.077  19.975  0.1715 -0.0656 -0.0243
12305DDP     P273827  12.803   7.441  20.279  0.0286 -0.4867  0.1503
12305DDP     C273828  12.845   7.085  20.112 -0.1418 -0.0532 -0.1302
12305DDP     C373829  12.452   8.097  19.602  0.3660 -0.2728 -0.1283
12305DDP     C473830  12.423   7.863  20.429  0.3057  0.0366 -0.2396
12306DDP     C173831   4.575   7.433  21.917 -0.1670 -0.0662 -0.1864
12306DDP     P173832   4.581   7.849  22.136  0.1596 -0.2536  0.1445
12306DDP     P273833   4.160   7.249  21.725 -0.0415  0.0056  0.0467
12306DDP     C273834   3.775   7.091  21.388  0.0673  0.0862  0.0604
12306DDP     C373835   4.827   7.989  22.541  0.2093  0.2642 -0.4396
12306DDP     C473836   4.935   7.268  22.034 -0.0260  0.2414 -0.1508
12307DDP     C173837  22.657   9.770   6.689 -0.0964 -0.0356 -0.0006
12307DDP     P173838  22.266   9.977   6.871  0.0007  0.3197  0.0591
12307DDP     P273839  23.040   9.919   6.912  0.0269  0.0109  0.1915
12307DDP     C273840  23.277  10.060   7.262  0.2972  0.2817  0.1478
12307DDP     C373841  21.854   9.919   6.959  0.2681 -0.1542  0.0509
12307DDP     C473842  22.659   9.276   6.604  0.1035  0.2197 -0.0928
12308DDP     C173843  28.846  28.243  10.531 -0.1335  0.1765 -0.2018
12308DDP     P173844  28.830  28.071  10.891  0.0423  0.2949 -0.0200
12308DDP     P273845  28.720  28.673  10.352 -0.2907  0.5107  0.0231
12308DDP     C273846  28.784  29.092  10.182 -0.1397 -0.0878 -0.1974
12308DDP     C373847  28.918  27.926  11.303  0.0061 -0.0035  0.0686
12308DDP     C473848  28.993  28.015  10.155 -0.2614  0.1621 -0.0804
12309DDP     C173849   3.144  29.925  20.391  0.0033  0.1064  0.0221
12309DDP     P173850   3.422  29.790  20.669 -0.1338  0.0837  0.1267
12309DDP     P273851   2.704  29.829  20.542 -0.0840  0.2837 -0.0015
12309DDP     C273852   2.371  29.859  20.322  0.0507  0.1123 -0.1078
12309DDP     C373853   3.875  29.640  20.754 -0.0139  0.1870 -0.0163
12309DDP     C473854   3.228  30.330  20.198  0.1272  0.0054  0.1033
12310DDP     C173855  28.812   0.947   3.831 -0.1155  0.5660  0.2227
12310DDP     P173856  29.037   0.530   3.745 -0.0691  0.0718  0.0008
12310DDP     P273857  28.417   0.915   4.026  0.2536 -0.4069  0.1544
12310DDP     C273858  28.086   0.948   4.306 -0.2077 -0.0075  0.3111
12310DDP     C373859  29.280   0.154   3.628  0.3105  0.0336 -0.1924
12310DDP     C473860  28.996   1.387   3.711 -0.0854  0.2174  0.0809
12311DDP     C173861  16.738  20.891   7.114  0.0415  0.4368 -0.0497
12311DDP     P173862  16.743  20.815   7.513  0.2691  0.1093  0.2605
12311DDP     P273863  16.950  21.249   6.989  0.0789 -0.2280 -0.0060
12311DDP     C273864  17.285  21.079   6.842  0.2302  0.1306  0.2198
12311DDP     C373865  16.662  20.984   7.802  0.3522 -0.0288 -0.0974
12311DDP     C473866  16.622  20.513   6.900  0.4850  0.0774  0.0892
12312DDP     C173867   4.370  19.199  26.958 -0.2053 -0.1640 -0.1595
12312DDP     P173868   4.152  19.629  27.083  0.1996 -0.2588 -0.1192
12312DDP     P273869   4.590  19.148  26.615  0.2192 -0.2653 -0.0333
12312DDP     C273870   4.943  19.005  26.377 -0.0745 -0.2265  0.1357
12312DDP     C373871   4.009  20.033  27.151  0.1802 -0.0183 -0.3289
12312DDP     C473872   4.448  18.873  27.308  0.1579  0.0422 -0.4107
12313DDP     C173873  25.819   7.485   5.302  0.1181 -0.0581  0.0848
12313DDP     P173874  26.216   7.245   5.486 -0.3313  0.0021  0.1677
12313DDP     P273875  25.474   7.517   5.546  0.2267  0.0725  0.0353
12313DDP     C273876  25.078   7.713   5.344 -0.2002 -0.2617 -0.2243
12313DDP     C373877  26.486   7.197   5.719 -0.0549  0.2087  0.0882
12313DDP     C473878  25.700   7.540   4.798 -0.2948  0.1138 -0.4043
12314DDP     C173879  17.121  26.464  22.912 -0.1675 -0.0933 -0.1464
12314DDP     P173880  17.163  26.183  23.273 -0.0823 -0.0809  0.0722
12314DDP     P273881  17.312  26.331  22.531 -0.0526 -0.0417  0.1295
12314DDP     C273882  17.407  26.304  22.128 -0.1858 -0.1776 -0.1342
12314DDP     C373883  17.191  25.959  23.631 -0.0950 -0.2995  0.1925
12314DDP     C473884  16.967  26.866  23.037 -0.0352 -0.0326  0.1486
12315DDP     C173885   3.866   0.138  18.479  0.1392 -0.0749  0.3863
12315DDP     P173886   4.208   0.403  18.373 -0.0321  0.0557 -0.3521
12315DDP     P273887   3.694   0.309  18.882  0.0639  0.0731  0.1704
12315DDP     C273888   3.566   0.181  19.180 -0.0998 -0.4585 -0.0656
12315DDP     C373889   4.620   0.217  18.182  0.3737  0.0493  0.2948
12315DDP     C473890   3.894  30.058  18.424  0.4949 -0.0337  0.1564
12316DDP     C173891  17.023   3.907  14.483 -0.1994 -0.0218 -0.0821
12316DDP     P173892  17.327   4.129  14.290 -0.0676  0.1456 -0.3390
12316DDP     P273893  16.896   3.813  14.856  0.3638 -0.2605  0.1488
12316DDP     C273894  16.978   3.874  15.324  0.0037  0.0855 -0.1506
12316DDP     C373895  17.851   4.373  14.162  0.0566 -0.0862 -0.0188
12316DDP     C473896  16.664   3.973  14.409  0.0596 -0.3264 -0.1092
12317DDP     C173897   7.681  17.716  27.852  0.2602 -0.0036  0.0580
12317DDP     P173898   7.290  17.437  27.741 -0.0486 -0.2166  0.1296
12317DDP     P273899   7.675  18.118  27.701  0.0696 -0.0355 -0.1840
12317DDP     C273900   7.795  18.579  27.858 -0.0148  0.0555 -0.2751
12317DDP     C373901   6.893  17.654  27.717 -0.1170 -0.4322  0.1337
12317DDP     C473902   8.126  17.586  28.042 -0.2042  0.1124  0.0898
12318DDP     C173903  22.554  25.600  12.885 -0.1699  0.0194  0.1835
12318DDP     P173904  22.454  25.458  12.532  0.1464  0.2466 -0.0160
12318DDP     P273905  22.296  25.922  12.839  0.1165 -0.2861  0.0143
12318DDP     C273906  21.830  26.033  12.985 -0.0428  0.0491  0.2855
12318DDP     C373907  22.640  25.275  12.236  0.2341 -0.1946 -0.0478
12318DDP     C473908  22.930  25.535  13.120  0.2943 -0.0419 -0.3411
12319DDP     C173909   7.700   2.825  27.416  0.0230  0.3136 -0.2309
12319DDP     P173910   7.802   2.799  27.901  0.0184 -0.3322 -0.1463
12319DDP     P273911   7.641   2.470  27.157 -0.2447  0.0898 -0.1438
12319DDP     C273912   7.656   1.983  27.027  0.1926 -0.2868  0.2614
12319DDP     C373913   7.711   2.940  28.284  0.2360  0.1076 -0.0938
12319DDP     C473914   7.542   3.232  27.274 -0.2408 -0.2594 -0.1650
12320DDP     C173915   8.224  16.220  30.196  0.1174  0.2920 -0.1726
12320DDP     P173916   8.562  15.954   0.034  0.0412 -0.3561 -0.1168
12320DDP     P273917   8.223  16.396  29.676  0.1089 -0.1080 -0.1801
12320DDP     C273918   8.234  16.498  29.209 -0.0628 -0.1859 -0.0995
12320DDP     C373919   8.751  15.688  30.082  0.0261  0.0361  0.2354
12320DDP     C473920   7.804  16.363   0.036 -0.3323 -0.0207  0.1591
12321DDP     C173921  26.114   5.025  10.017  0.0255  0.1850 -0.2038
12321DDP     P173922  26.164   5.109   9.591 -0.0202  0.1415  0.3821
12321DDP     P273923  26.263   5.429  10.279 -0.2242 -0.0410  0.1574
12321DDP     C273924  26.562   5.445  10.545  0.2229 -0.4987  0.2390
12321DDP     C373925  26.010   5.129   9.223 -0.1826  0.1581 -0.2151
12321DDP     C473926  25.833   4.663  10.157 -0.1033 -0.0419  0.0224
12322DDP     C173927   4.527   9.802  25.582 -0.4071  0.1919 -0.0228
12322DDP     P173928   4.707   9.614  25.304  0.2097  0.0455 -0.1332
12322DDP     P273929   4.188   9.675  25.734  0.1208  0.0902  0.2608
12322DDP     C273930   3.759   9.557  25.915  0.0298  0.1981 -0.2334
12322DDP     C373931   5.183   9.672  25.202  0.1119 -0.0140 -0.2591
12322DDP     C473932   4.586  10.212  25.457  0.1933 -0.1252  0.1446
12323DDP     C173933   2.136   8.464  21.102  0.0259  0.0021 -0.0420
12323DDP     P173934   1.969   8.067  21.182 -0.2811  0.0606  0.0943
12323DDP     P273935   2.231   8.654  20.674 -0.0163 -0.1678  0.1032
12323DDP     C273936   2.684   8.745  20.484 -0.1651 -0.0607  0.0804
12323DDP     C373937   1.831   7.613  21.323  0.1016  0.2336  0.2975
12323DDP     C473938   2.262   8.625  21.453  0.0813 -0.0782  0.2241
12324DDP     C173939  19.690  18.596  19.244  0.0016 -0.2454  0.0595
12324DDP     P173940  19.709  18.771  19.636  0.0162 -0.3786 -0.2237
12324DDP     P273941  19.444  18.911  19.006 -0.1803  0.1363 -0.2506
12324DDP     C273942  19.036  18.980  19.057 -0.1990 -0.0472 -0.1781
12324DDP     C373943  19.935  18.830  20.029 -0.1279  0.1268  0.2694
12324DDP     C473944  19.857  18.167  19.179  0.0832  0.5097 -0.2096
12325DDP     C173945  17.121  30.282  28.679 -0.0656  0.2854 -0.0177
12325DDP     P173946  17.112  29.817  28.829 -0.2459  0.4292 -0.1312
12325DDP     P273947  17.468   0.126  28.912 -0.0118  0.0890 -0.0216
12325DDP     C273948  17.941   0.174  29.033  0.1380 -0.1597  0.0025
12325DDP     C373949  17.057  29.707  29.285 -0.0150  0.0047  0.2302
12325DDP     C473950  16.762   0.137  28.480  0.1697 -0.1815 -0.1062
12326DDP     C173951   1.253   7.281  24.575 -0.0801  0.2784  0.0512
12326DDP     P173952   1.104   7.573  24.314  0.0612  0.2270  0.0582
12326DDP     P273953   1.178   7.222  25.013  0.2215  0.1354 -0.0696
12326DDP     C273954   1.430   6.947  25.283  0.2167  0.0403 -0.1524
12326DDP     C373955   0.992   7.999  24.391 -0.4427  0.0734  0.1858
12326DDP     C473956   1.403   6.943  24.508  0.2045  0.1991 -0.0731
12327DDP     C173957  21.970  16.367   1.190  0.0957  0.2002 -0.0107
12327DDP     P173958  21.765  16.617   1.401 -0.3443 -0.4179 -0.0158
12327DDP     P273959  22.243  16.035   1.385  0.0842  0.0041  0.0038
12327DDP     C273960  22.368  15.625   1.499 -0.1244 -0.0998 -0.1657
12327DDP     C373961  21.546  17.027   1.480 -0.3616  0.0438 -0.1779
12327DDP     C473962  21.977  16.392   0.767 -0.0578  0.1877 -0.1967
12328DDP     C173963  22.243  12.796  21.259 -0.1081 -0.1000  0.5355
12328DDP     P173964  22.003  13.149  21.469  0.0557  0.0338 -0.2034
12328DDP     P273965  21.868  12.593  20.948  0.0792 -0.2824  0.2272
12328DDP     C273966  21.495  12.646  20.673  0.1941  0.0538  0.2236
12328DDP     C373967  21.898  13.381  21.865 -0.1037  0.1690  0.0768
12328DDP     C473968  22.696  12.727  21.207 -0.0235 -0.0445  0.0990
12329DDP     C173969  30.172  12.312  25.658  0.2568 -0.0298 -0.2583
12329DDP     P173970   0.124  12.500  25.827 -0.0894  0.1477  0.2838
12329DDP     P273971  29.757  12.237  25.815  0.0081  0.1511 -0.0580
12329DDP     C273972  29.368  12.483  25.903  0.0766  0.1242  0.2954
12329DDP     C373973   0.331  12.809  25.591 -0.0397 -0.1387  0.0002
12329DDP     C473974   0.158  12.046  25.369 -0.1204 -0.0653 -0.1126
12330DDP     C173975  14.899  27.208  15.102  0.1078 -0.0354 -0.1996
12330DDP     P173976  14.553  27.269  14.759 -0.1676  0.1068  0.2668
12330DDP     P273977  14.746  27.649  15.350  0.0164  0.2234 -0.1986
12330DDP     C273978  14.975  28.045  15.564 -0.3731  0.1544  0.2972
12330DDP     C373979  14.268  27.370  14.494  0.0280 -0.2923  0.2932
12330DDP     C473980  15.217  27.094  14.876  0.1390 -0.1068 -0.1073
12331DDP     C173981   5.080   5.022   1.683  0.1511  0.1045  0.2422
12331DDP     P173982   5.468   4.988   1.581 -0.1093 -0.0783 -0.2562
12331DDP     P273983   4.756   4.654   1.688 -0.4119 -0.0142  0.1642
12331DDP     C273984   4.851   4.212   1.719  0.2946 -0.0359  0.2897
12331DDP     C373985   5.767   4.738   1.794 -0.1408 -0.0918  0.1425
12331DDP     C473986   5.001   5.481   1.690  0.0827  0.0194 -0.1205
12332DDP     C173987  29.550   9.272   2.488  0.2573 -0.2286 -0.1417
12332DDP     P173988  29.675   8.906   2.763  0.3838 -0.1209 -0.0037
12332DDP     P273989  29.463   9.681   2.711 -0.2114 -0.2199  0.1987
12332DDP     C273990  29.145   9.921   2.634 -0.0305 -0.0726  0.0985
12332DDP     C373991  30.021   8.811   2.951  0.0754 -0.0481  0.3820
12332DDP     C473992  29.336   9.115   2.047 -0.0378 -0.0945 -0.1493
12333DDP     C173993  12.434  29.567   1.196 -0.2285 -0.2171 -0.0196
12333DDP     P173994  12.433  29.098   1.297  0.2658 -0.0729  0.1198
12333DDP     P273995  12.742  29.728   0.911  0.0737 -0.0274 -0.0310
12333DDP     C273996  12.969  29.981   0.555 -0.2040  0.0331 -0.1266
12333DDP     C373997  12.264  28.996   1.695 -0.0134  0.1579  0.0798
12333DDP     C473998  12.026  29.855   1.384  0.5311 -0.0695  0.4110
12334DDP     C173999  27.339  28.791  14.379 -0.1142  0.2268 -0.3236
12334DDP     P174000  27.744  28.887  14.441  0.1151  0.1317 -0.0048
12334DDP     P274001  27.142  28.721  14.081 -0.1165  0.2895 -0.0541
12334DDP     C274002  26.742  28.635  13.967  0.0068 -0.2315 -0.2213
12334DDP     C374003  28.164  29.006  14.310 -0.1607 -0.2536 -0.0182
12334DDP     C474004  27.223  28.696  14.717 -0.0493 -0.1463  0.1663
12335DDP     C174005  20.744  18.262  27.734  0.0112  0.0268  0.0991
12335DDP     P174006  20.891  17.821  27.783 -0.2417 -0.1957 -0.1929
12335DDP     P274007  20.499  18.316  27.971 -0.0459  0.2639 -0.1226
12335DDP     C274008  20.113  18.278  28.149 -0.6635  0.0828  0.1639
12335DDP     C374009  20.679  17.320  28.018 -0.6329  0.0288  0.2977
12335DDP     C474010  20.837  18.610  27.511  0.0449  0.1579 -0.1108
12336DDP     C174011  20.873  28.012  17.594  0.0421  0.0596  0.2413
12336DDP     P174012  20.944  27.691  17.260  0.1350 -0.0483 -0.0670
12336DDP     P274013  21.152  28.335  17.742  0.2870 -0.2281 -0.1323
12336DDP     C274014  21.046  28.823  17.910  0.1077  0.0695  0.0150
12336DDP     C374015  20.801  27.151  17.189 -0.0553 -0.1727  0.0271
12336DDP     C474016  20.586  27.972  17.716 -0.1037 -0.4700 -0.2826
12337DDP     C174017  15.616   3.457  14.384 -0.2613  0.1117  0.0525
12337DDP     P174018  15.905   3.531  14.646 -0.0687  0.1850  0.0969
12337DDP     P274019  15.307   3.108  14.284 -0.0311  0.0137 -0.1041
12337DDP     C274020  14.998   2.768  14.169  0.0251  0.2046  0.1645
12337DDP     C374021  16.059   3.528  15.128  0.1688 -0.1335 -0.5463
12337DDP     C474022  15.712   3.926  14.354 -0.1785 -0.0061  0.0240
12338DDP     C174023  19.075  22.258  24.076 -0.2947 -0.0534 -0.2098
12338DDP     P174024  19.337  21.876  23.954  0.0623 -0.4250  0.1692
12338DDP     P274025  18.689  22.436  23.912 -0.1687  0.0165 -0.3025
12338DDP     C274026  18.602  22.528  23.499  0.1111 -0.0674 -0.0305
12338DDP     C374027  19.188  21.615  23.583  0.0000  0.0461  0.1310
12338DDP     C474028  18.838  22.307  24.426 -0.2814 -0.0416 -0.0255
12339DDP     C174029  24.834  13.905  20.939 -0.1463 -0.0803 -0.0934
12339DDP     P174030  25.155  13.764  21.217 -0.6200  0.2802 -0.0824
12339DDP     P274031  24.987  13.729  20.551  0.2088  0.4024  0.0883
12339DDP     C274032  25.325  13.560  20.282 -0.0432 -0.1006 -0.0488
12339DDP     C374033  25.417  13.865  21.671  0.0153 -0.0378 -0.0433
12339DDP     C474034  24.558  14.267  20.971 -0.0467 -0.0709  0.0502
12340DDP     C174035  19.579  26.293  27.170  0.1739  0.0888  0.0584
12340DDP     P174036  19.947  26.041  27.028 -0.2382 -0.3013 -0.0237
12340DDP     P274037  19.634  26.806  27.087  0.2769  0.3825 -0.1698
12340DDP     C274038  19.780  26.908  26.710  0.1817 -0.0435  0.1054
12340DDP     C374039  19.880  25.576  26.953  0.1424  0.1369  0.0270
12340DDP     C474040  19.282  26.090  27.583 -0.2953  0.0159 -0.2488
12341DDP     C174041   0.218  30.178  27.207 -0.1997  0.1185  0.1875
12341DDP     P174042   0.255  30.221  27.562  0.4676 -0.0221  0.1582
12341DDP     P274043  30.173  30.022  27.201  0.0765 -0.0399 -0.1708
12341DDP     C274044  29.761  29.854  26.977  0.1654 -0.1206  0.0995
12341DDP     C374045   0.252  30.050  27.984  0.1704  0.2400  0.1127
12341DDP     C474046   0.483  30.222  26.756  0.0519  0.2015  0.0751
12342DDP     C174047  15.073  26.406  19.897 -0.0838 -0.0216  0.2952
12342DDP     P174048  15.118  26.806  19.954 -0.0597 -0.4105  0.0108
12342DDP     P274049  14.891  26.168  19.677  0.0061 -0.3477  0.1143
12342DDP     C274050  14.753  26.267  19.236 -0.1101 -0.1138 -0.1010
12342DDP     C374051  15.137  27.286  19.846  0.0474 -0.1362  0.1097
12342DDP     C474052  15.337  26.266  20.214  0.1305  0.1367 -0.0697
12343DDP     C174053  26.488  22.768  12.018 -0.1565  0.1412  0.2242
12343DDP     P174054  26.695  23.149  11.808  0.1328  0.0564 -0.2061
12343DDP     P274055  26.707  22.570  12.276  0.2056  0.1656  0.0469
12343DDP     C274056  27.068  22.292  12.487  0.0782  0.0272 -0.3620
12343DDP     C374057  26.785  23.518  12.030 -0.0246  0.0464  0.2061
12343DDP     C474058  26.032  22.820  12.051 -0.0247 -0.0888 -0.0421
12344DDP     C174059   6.750   9.597  28.793  0.1068  0.1607  0.0249
12344DDP     P174060   6.838   9.399  29.291  0.0884 -0.3532  0.0363
12344DDP     P274061   6.666   9.130  28.602  0.2920  0.1052  0.1844
12344DDP     C274062   6.369   8.907  28.610 -0.1716 -0.1825  0.1851
12344DDP     C374063   6.551   9.359  29.620  0.2274 -0.0005  0.1924
12344DDP     C474064   6.602   9.924  28.533 -0.1165 -0.0218  0.0573
12345DDP     C174065   5.108   9.647  15.115  0.0993  0.2293 -0.0901
12345DDP     P174066   5.548   9.664  14.910 -0.1053  0.0668 -0.1589
12345DDP     P274067   5.140   9.718  15.580 -0.1075 -0.0627 -0.1708
12345DDP     C274068   5.062   9.854  16.013  0.0625  0.2437  0.0577
12345DDP     C374069   5.963   9.718  14.874 -0.1423  0.0656 -0.3011
12345DDP     C474070   4.675   9.377  15.095 -0.1674 -0.3401  0.1101
12346DDP     C174071  10.091   2.807   9.829  0.2497  0.3353 -0.1623
12346DDP     P174072   9.886   3.234   9.692 -0.2450 -0.0961 -0.0238
12346DDP     P274073  10.324   2.597   9.529  0.1289  0.0777  0.2535
12346DDP     C274074  10.224   2.282   9.177 -0.4406  0.1257  0.2039
12346DDP     C374075   9.893   3.480   9.343  0.3410 -0.0179  0.0017
12346DDP     C474076  10.307   2.764  10.157  0.0078  0.1773  0.2308
12347DDP     C174077   9.566  11.961   1.285  0.0500 -0.1345  0.2691
12347DDP     P174078   9.180  11.958   0.982 -0.3182 -0.0164 -0.2521
12347DDP     P274079   9.922  12.210   1.296 -0.1392 -0.0723 -0.0246
12347DDP     C274080  10.279  12.416   1.145 -0.1131 -0.2342 -0.0126
12347DDP     C374081   8.877  11.932   0.652 -0.1564  0.0344 -0.2164
12347DDP     C474082   9.584  11.654   1.630  0.0255  0.0737 -0.3265
12348DDP     C174083  20.288   1.657   8.191 -0.0920 -0.3624  0.1331
12348DDP     P174084  20.432   1.440   7.809  0.2820 -0.0808 -0.0225
12348DDP     P274085  20.156   2.059   8.205  0.0703 -0.1715  0.1990
12348DDP     C274086  20.022   2.437   8.350  0.3536 -0.0677 -0.1953
12348DDP     C374087  20.319   1.147   7.562 -0.1699  0.0038 -0.2593
12348DDP     C474088  20.431   1.461   8.570  0.0312 -0.4435  0.2255
12349DDP     C174089  14.018  11.885   5.299 -0.0983  0.4528 -0.0541
12349DDP     P174090  14.234  12.347   5.144 -0.3696 -0.0531  0.3811
12349DDP     P274091  14.081  11.384   5.114  0.1185  0.0124  0.0977
12349DDP     C274092  13.993  10.994   4.929  0.1397  0.2479  0.1808
12349DDP     C374093  14.283  12.810   5.169  0.4234  0.0803 -0.0558
12349DDP     C474094  13.611  12.005   5.521 -0.1669  0.0173  0.1410
12350DDP     C174095  20.648   9.517  10.867 -0.2178 -0.4083 -0.0994
12350DDP     P174096  20.933   9.622  10.547  0.0238 -0.0439  0.0449
12350DDP     P274097  20.757   9.295  11.126  0.1589 -0.1548 -0.1417
12350DDP     C274098  20.877   9.088  11.431  0.1668 -0.0641  0.2567
12350DDP     C374099  21.277   9.448  10.348 -0.1226 -0.2577  0.1491
12350DDP     C474100  20.329   9.715  10.969 -0.0131 -0.4139 -0.0924
12351DDP     C174101  20.113   6.987  16.753 -0.0415  0.0375 -0.1610
12351DDP     P174102  20.215   6.935  16.393  0.1394 -0.1771  0.1437
12351DDP     P274103  19.682   6.726  16.897 -0.1380  0.2163 -0.0262
12351DDP     C274104  19.446   6.502  16.716 -0.1738  0.0854  0.0933
12351DDP     C374105  20.344   6.842  15.961  0.0101  0.0651 -0.2581
12351DDP     C474106  20.223   7.311  17.055 -0.1707 -0.0737 -0.1896
12352DDP     C174107  24.093  17.658  19.063 -0.1226 -0.2911 -0.0404
12352DDP     P174108  23.716  17.284  19.033 -0.0482 -0.1033 -0.1090
12352DDP     P274109  24.012  17.778  19.422 -0.1750  0.0160 -0.1170
12352DDP     C274110  23.755  17.959  19.765  0.2785 -0.1376  0.0159
12352DDP     C374111  23.551  16.946  19.241  0.1718  0.3693 -0.1893
12352DDP     C474112  24.498  17.653  18.921  0.1461 -0.2045 -0.0614
12353DDP     C174113   3.394  24.302   2.566  0.4429 -0.0995  0.3538
12353DDP     P174114   3.418  24.619   2.748  0.3557 -0.1282  0.3301
12353DDP     P274115   3.275  23.946   2.858 -0.1974 -0.1121  0.0099
12353DDP     C274116   3.216  23.500   3.102 -0.2566  0.1208 -0.1077
12353DDP     C374117   3.154  24.898   2.936 -0.0527 -0.0970  0.0586
12353DDP     C474118   3.414  24.187   2.074 -0.1222 -0.4212 -0.0622
12354DDP     C174119  29.661  23.676   0.219  0.2062  0.1118  0.0313
12354DDP     P174120  30.155  23.718   0.221  0.0513  0.0984  0.0807
12354DDP     P274121  29.557  23.308   0.451  0.0977  0.1366 -0.0377
12354DDP     C274122  29.414  23.262   0.870  0.0936 -0.3420  0.3358
12354DDP     C374123   0.285  23.906   0.419  0.3509  0.2059 -0.2511
12354DDP     C474124  29.549  24.177   0.100 -0.0542 -0.2423  0.1718
12355DDP     C174125  13.117   0.808  29.243  0.2157 -0.0628 -0.0618
12355DDP     P174126  12.825   0.489  29.301 -0.0160  0.0590  0.4690
12355DDP     P274127  13.315   0.818  29.686  0.1899  0.2428 -0.1363
12355DDP     C274128  13.323   0.970  30.051 -0.0934  0.1811 -0.3384
12355DDP     C374129  12.672   0.204  29.590 -0.0014  0.3437  0.0585
12355DDP     C474130  13.280   0.987  28.811  0.2316 -0.1214 -0.4479
12356DDP     C174131  11.645  17.893  18.973  0.2035  0.1069 -0.1228
12356DDP     P174132  12.142  17.946  18.837  0.0951 -0.1884 -0.0352
12356DDP     P274133  11.410  18.272  19.005  0.1155  0.0447  0.2254
12356DDP     C274134  11.369  18.720  19.211  0.0048 -0.0869  0.0040
12356DDP     C374135  12.602  17.916  18.612 -0.2666  0.0477  0.1957
12356DDP     C474136  11.625  17.416  19.061 -0.1017  0.3439 -0.0185
12357DDP     C174137  18.570  17.119  24.349  0.0417  0.1545 -0.4158
12357DDP     P174138  18.539  17.063  24.741  0.0127 -0.4091  0.3631
12357DDP     P274139  18.894  16.970  24.090 -0.1652 -0.1479  0.0140
12357DDP     C274140  19.070  17.025  23.625  0.2509 -0.0431  0.1006
12357DDP     C374141  18.670  16.771  25.076 -0.0683  0.0314  0.1152
12357DDP     C474142  18.272  17.093  24.032 -0.0299  0.1446 -0.2258
12358DDP     C174143   0.046   9.321  18.671 -0.1874  0.2401  0.2160
12358DDP     P174144  -0.062   9.793  18.639 -0.3119  0.0235  0.2107
12358DDP     P274145   0.331   9.059  18.990 -0.2827 -0.1497  0.0914
12358DDP     C274146   0.373   8.624  19.082  0.0067 -0.1820 -0.1043
12358DDP     C374147  29.829   9.903  18.612 -0.0027  0.1868  0.0737
12358DDP     C474148  30.172   9.020  18.386  0.1759 -0.1901 -0.1903
12359DDP     C174149   7.805   5.059   9.591 -0.0912 -0.0228  0.0909
12359DDP     P174150   7.511   4.730   9.357 -0.0421  0.2685 -0.0252
12359DDP     P274151   7.976   4.956   9.972  0.0171  0.0111  0.0196
12359DDP     C274152   8.354   5.028  10.206  0.0507  0.0653  0.1738
12359DDP     C374153   7.137   4.821   9.231  0.3411 -0.1593  0.0182
12359DDP     C474154   7.955   5.410   9.421  0.2886 -0.1323  0.0401
12360DDP     C174155   4.233  17.557   0.301 -0.1918  0.0896  0.0759
12360DDP     P174156   3.963  17.305  30.288 -0.2404 -0.3189 -0.0524
12360DDP     P274157   4.616  17.305   0.417 -0.3713 -0.2016 -0.1811
12360DDP     C274158   4.991  17.214   0.559  0.4139  0.1033  0.0168
12360DDP     C374159   3.596  17.063  30.021  0.0686 -0.0829  0.3826
12360DDP     C474160   4.300  17.967   0.383 -0.0420  0.1168  0.1922
12361DDP     C174161   2.222  24.336   1.816 -0.1126 -0.1368 -0.0773
12361DDP     P174162   2.264  24.415   1.380  0.1689 -0.1682  0.0021
12361DDP     P274163   1.778  24.496   1.962 -0.0175  0.0223 -0.0222
12361DDP     C274164   1.403  24.730   2.169 -0.1189  0.0954  0.1323
12361DDP     C374165   2.068  24.572   1.039  0.0146  0.2930 -0.3407
12361DDP     C474166   2.529  24.141   2.099 -0.1167 -0.1106  0.1196
12362DDP     C174167  27.523   5.288   6.708 -0.2082  0.2535 -0.0470
12362DDP     P174168  27.938   5.274   6.967  0.0903  0.1025  0.4071
12362DDP     P274169  27.449   5.166   6.329  0.2979 -0.0725 -0.1363
12362DDP     C274170  27.748   5.044   6.140 -0.2845  0.1302  0.3088
12362DDP     C374171  28.301   5.673   6.888  0.6565  0.1948  0.0116
12362DDP     C474172  27.194   5.455   6.835  0.1907 -0.0235  0.2235
12363DDP     C174173  12.640  24.634  22.636  0.2698 -0.1046  0.1421
12363DDP     P174174  12.404  24.263  22.479  0.1435 -0.2081 -0.1120
12363DDP     P274175  13.080  24.865  22.591 -0.0307 -0.0341 -0.1677
12363DDP     C274176  13.248  25.152  22.861 -0.3347  0.0092 -0.1541
12363DDP     C374177  12.224  23.874  22.374  0.1720  0.0085 -0.2823
12363DDP     C474178  12.362  24.925  22.706 -0.5110 -0.0821  0.0618
12364DDP     C174179  22.108  20.364  25.111 -0.0430 -0.2096  0.2305
12364DDP     P174180  22.215  20.092  24.833  0.2198 -0.1227 -0.2043
12364DDP     P274181  22.421  20.726  25.279 -0.0028 -0.1276 -0.1206
12364DDP     C274182  22.188  21.059  25.273  0.2360 -0.0030  0.1080
12364DDP     C374183  22.063  19.777  24.588 -0.1621  0.0416  0.3691
12364DDP     C474184  21.710  20.224  25.223  0.1385  0.1602  0.0422
12365DDP     C174185  29.400  22.039   6.710 -0.0385 -0.3372 -0.0448
12365DDP     P174186  29.780  22.153   6.417  0.1144  0.1915 -0.1088
12365DDP     P274187  29.250  21.762   7.014 -0.0376  0.1367 -0.0151
12365DDP     C274188  29.579  21.509   7.277  0.2276 -0.0106  0.0587
12365DDP     C374189  30.041  22.314   6.030 -0.2328 -0.1659  0.2197
12365DDP     C474190  29.139  22.332   6.846  0.2606  0.2243  0.0653
12366DDP     C174191   9.481   3.320   2.118 -0.1313  0.1373  0.1993
12366DDP     P174192   9.498   3.448   2.508 -0.2419 -0.1461 -0.1031
12366DDP     P274193   9.825   3.531   1.860 -0.0720 -0.2989 -0.0712
12366DDP     C274194  10.162   3.696   1.629  0.0374  0.1164  0.1053
12366DDP     C374195   9.200   3.710   2.616  0.4539 -0.4181  0.2814
12366DDP     C474196   9.172   3.005   1.910  0.2443 -0.0934  0.1570
12367DDP     C174197   9.407  24.354  11.132  0.0019  0.1760  0.1073
12367DDP     P174198   9.723  24.108  11.030 -0.0460  0.0410  0.3270
12367DDP     P274199   9.695  24.710  11.354 -0.0861  0.0222 -0.0094
12367DDP     C274200  10.095  24.950  11.280  0.3697 -0.1411 -0.0235
12367DDP     C374201  10.148  23.999  10.774  0.2611 -0.3254  0.4483
12367DDP     C474202   8.972  24.268  11.026  0.0147  0.1558 -0.0717
12368DDP     C174203  13.380  14.184   7.718  0.0502  0.1792  0.1675
12368DDP     P174204  12.962  13.931   7.789  0.0866 -0.1219 -0.0856
12368DDP     P274205  13.334  14.403   7.405  0.1777  0.0968  0.2228
12368DDP     C274206  13.317  14.822   7.132 -0.0278  0.0513 -0.0762
12368DDP     C374207  12.548  13.886   7.799  0.3946  0.0711 -0.0833
12368DDP     C474208  13.638  14.249   8.033 -0.0362  0.1699 -0.1216
12369DDP     C174209  23.336  11.672  23.284 -0.2073  0.0877 -0.1031
12369DDP     P174210  23.472  11.324  23.333 -0.1378  0.1599 -0.0576
12369DDP     P274211  22.947  11.554  23.440  0.1747 -0.3866 -0.2649
12369DDP     C274212  22.638  11.759  23.738  0.1067 -0.1997  0.0938
12369DDP     C374213  23.564  10.947  23.536  0.2681 -0.0071  0.0763
12369DDP     C474214  23.385  12.021  23.076  0.3365  0.0169  0.0447
12370DDP     C174215  16.771  20.622  12.740 -0.1703 -0.2855  0.1847
12370DDP     P174216  17.063  20.249  12.587  0.0151  0.2046  0.3527
12370DDP     P274217  16.897  20.976  12.945  0.1851  0.3960 -0.0919
12370DDP     C274218  16.548  21.194  13.221  0.1978 -0.0188 -0.0807
12370DDP     C374219  17.439  20.110  12.437 -0.0477 -0.4140 -0.1532
12370DDP     C474220  16.525  20.333  12.793  0.3193 -0.1893 -0.2339
12371DDP     C174221  27.127  15.682  13.473 -0.0028 -0.0685 -0.3840
12371DDP     P174222  27.443  15.440  13.566 -0.4893  0.0786  0.2321
12371DDP     P274223  27.107  15.931  13.064  0.1615  0.2357 -0.1069
12371DDP     C274224  27.067  16.317  12.868  0.1167  0.1413  0.1669
12371DDP     C374225  27.768  15.514  13.816 -0.1318  0.1014  0.1258
12371DDP     C474226  26.755  15.575  13.780 -0.0197 -0.0286  0.1768
12372DDP     C174227   3.353   8.890  25.811  0.2216  0.0530  0.2019
12372DDP     P174228   2.934   8.621  25.652  0.2845  0.1896  0.0987
12372DDP     P274229   3.702   8.861  25.855  0.1532 -0.0061  0.1915
12372DDP     C274230   4.004   9.152  25.793  0.0121 -0.0707 -0.0032
12372DDP     C374231   2.566   8.786  25.549 -0.3214  0.1524  0.0161
12372DDP     C474232   3.371   9.318  25.771  0.2606  0.1814 -0.0279
12373DDP     C174233  27.797  19.183   1.729 -0.1887 -0.1706  0.0520
12373DDP     P174234  27.797  19.356   2.158  0.3011 -0.1066 -0.0480
12373DDP     P274235  27.924  19.557   1.378  0.1836  0.1120 -0.0755
12373DDP     C274236  27.969  19.759   1.033 -0.0718  0.1889  0.2325
12373DDP     C374237  27.937  19.631   2.467 -0.1920 -0.2328 -0.4126
12373DDP     C474238  27.944  18.748   1.665  0.0428  0.0327  0.1442
12374DDP     C174239  14.132   2.718  14.023  0.1529  0.1910 -0.0323
12374DDP     P174240  13.896   2.875  13.623 -0.2304  0.1005 -0.1398
12374DDP     P274241  14.042   2.915  14.308  0.0862 -0.0933 -0.0723
12374DDP     C274242  14.447   3.170  14.453 -0.0272 -0.0825 -0.2118
12374DDP     C374243  13.433   3.046  13.687 -0.0037  0.1292  0.0080
12374DDP     C474244  14.559   2.685  13.915 -0.1004 -0.0006 -0.0415
12375DDP     C174245  29.312  30.151  27.179 -0.1036  0.1429  0.0764
12375DDP     P174246  29.269  29.859  26.940 -0.0058 -0.0349  0.1581
12375DDP     P274247  28.934  30.369  27.343  0.0900  0.1746  0.2137
12375DDP     C274248  28.649   0.325  27.337 -0.2225  0.0796  0.1433
12375DDP     C374249  29.498  29.667  26.566 -0.2172 -0.0126  0.1006
12375DDP     C474250  29.660   0.004  27.189 -0.1546 -0.1783  0.4059
12376DDP     C174251   5.794   8.673   1.519  0.0159  0.3554  0.0043
12376DDP     P174252   5.550   8.421   1.868  0.0696 -0.0475 -0.2358
12376DDP     P274253   6.281   8.647   1.575 -0.3879 -0.3649  0.1715
12376DDP     C274254   6.509   8.369   1.966 -0.1578  0.3040 -0.1096
12376DDP     C374255   5.151   8.591   2.119 -0.0223 -0.2467 -0.2020
12376DDP     C474256   5.504   8.913   1.270  0.0121  0.2347 -0.1684
12377DDP     C174257  19.013   5.581  25.715  0.1936  0.3662  0.1028
12377DDP     P174258  18.662   5.751  25.682  0.1329  0.1021 -0.3099
12377DDP     P274259  19.263   5.356  25.312 -0.0139  0.1719 -0.1430
12377DDP     C274260  19.324   5.561  24.900  0.0157 -0.1720  0.1668
12377DDP     C374261  18.493   5.799  25.955  0.3446  0.1449  0.0247
12377DDP     C474262  19.088   5.531  26.125 -0.0423  0.0874 -0.0593
12378DDP     C174263  24.164  14.603  25.104 -0.2532  0.0251  0.1810
12378DDP     P174264  24.507  14.542  24.810 -0.0059 -0.1337 -0.0120
12378DDP     P274265  24.484  14.752  25.539  0.1838 -0.4203  0.1387
12378DDP     C274266  24.393  14.953  25.953 -0.1583 -0.1623  0.0870
12378DDP     C374267  24.801  14.463  24.405  0.1516 -0.0305 -0.0578
12378DDP     C474268  23.734  14.358  25.138  0.1325  0.0555 -0.1399
12379DDP     C174269  25.318  25.549  21.240  0.1597 -0.1056  0.1692
12379DDP     P174270  25.258  25.145  21.153 -0.1080 -0.3346 -0.0026
12379DDP     P274271  25.717  25.675  21.224  0.0092 -0.1274 -0.0075
12379DDP     C274272  26.084  25.965  21.262 -0.3385  0.0868  0.3359
12379DDP     C374273  25.269  24.688  21.032 -0.1032  0.2637 -0.1458
12379DDP     C474274  24.919  25.811  21.201 -0.1587  0.0615 -0.1346
12380DDP     C174275  17.883   0.174  13.874  0.4423 -0.0389  0.0787
12380DDP     P174276  17.901   0.603  13.830  0.0414 -0.2795  0.1739
12380DDP     P274277  17.546   0.150  13.771 -0.0030 -0.1644 -0.3633
12380DDP     C274278  17.321   0.500  13.601  0.1231 -0.1215  0.0825
12380DDP     C374279  17.659   0.844  13.610 -0.2931 -0.0532 -0.2156
12380DDP     C474280  18.141  30.192  14.069  0.0383 -0.1117 -0.0506
12381DDP     C174281  19.746  24.963  20.642 -0.0586  0.0403  0.2188
12381DDP     P174282  19.441  25.269  20.533 -0.2017 -0.0130 -0.1938
12381DDP     P274283  20.049  25.086  20.394  0.0973 -0.0466  0.0525
12381DDP     C274284  20.306  25.211  20.070 -0.1536  0.3197 -0.0847
12381DDP     C374285  19.265  25.631  20.330  0.1572  0.0033 -0.1088
12381DDP     C474286  19.705  24.654  20.937  0.0962 -0.2767  0.0565
12382DDP     C174287  21.745  12.293   1.534  0.3377  0.2846 -0.1126
12382DDP     P174288  22.123  12.392   1.401  0.0284  0.2375 -0.0261
12382DDP     P274289  22.152  12.228   1.888  0.0499 -0.1506  0.1864
12382DDP     C274290  22.550  12.339   1.782 -0.3206 -0.2239  0.2545
12382DDP     C374291  22.445  12.554   1.202 -0.3958 -0.2145  0.0038
12382DDP     C474292  21.327  12.202   1.463  0.0516  0.2477 -0.1772
12383DDP     C174293  15.026  20.026   9.703 -0.1288  0.3891  0.1991
12383DDP     P174294  15.028  20.489   9.598 -0.2778  0.0375 -0.1893
12383DDP     P274295  15.474  19.853   9.819  0.0078 -0.0735  0.1530
12383DDP     C274296  15.672  19.653   9.425 -0.3612 -0.1073  0.3082
12383DDP     C374297  15.253  20.767   9.212 -0.1153 -0.1750 -0.1302
12383DDP     C474298  14.760  19.695   9.621 -0.0170  0.0652  0.0775
12384DDP     C174299  20.674  27.917  28.225 -0.1342 -0.2088 -0.1366
12384DDP     P174300  20.389  28.206  28.062 -0.2939 -0.0381  0.0538
12384DDP     P274301  21.149  27.890  28.360  0.1319  0.0221  0.2385
12384DDP     C274302  21.339  28.071  28.718 -0.0964  0.1091  0.4551
12384DDP     C374303  20.038  28.148  27.813  0.0231 -0.2099 -0.0863
12384DDP     C474304  20.560  27.548  28.408 -0.0505  0.0793 -0.1419
12385DDP     C174305   9.310  12.868  10.604  0.0451  0.1232 -0.2563
12385DDP     P174306   8.991  12.811  10.796  0.0693  0.0840  0.1746
12385DDP     P274307   9.741  12.722  10.809 -0.1177 -0.1990 -0.0547
12385DDP     C274308  10.113  12.819  11.040  0.3284  0.2638 -0.1086
12385DDP     C374309   8.774  12.686  11.041  0.0633 -0.1668 -0.0841
12385DDP     C474310   9.189  12.994  10.174 -0.2705 -0.1350 -0.0174
12386DDP     C174311   9.615   2.022  18.189 -0.0469  0.1609 -0.0705
12386DDP     P174312   9.489   1.899  18.647 -0.0513 -0.3108  0.0328
12386DDP     P274313   9.745   2.330  18.011  0.0735 -0.0836  0.1454
12386DDP     C274314   9.602   2.855  17.915  0.0636  0.0385  0.2247
12386DDP     C374315   9.394   1.754  19.052 -0.1909  0.1211 -0.1691
12386DDP     C474316   9.578   1.713  17.951  0.0690 -0.0041  0.2513
12387DDP     C174317   9.005   5.590   9.883 -0.0823  0.0297  0.1034
12387DDP     P174318   8.620   5.748   9.655  0.1016  0.1019 -0.0775
12387DDP     P274319   9.453   5.561   9.656  0.3832  0.1831  0.2112
12387DDP     C274320   9.722   5.413   9.348 -0.1336 -0.1092  0.0723
12387DDP     C374321   8.296   5.876   9.393 -0.1020 -0.1822 -0.1235
12387DDP     C474322   8.758   5.379  10.171 -0.1190 -0.0503 -0.1701
12388DDP     C174323   3.168  17.918   8.030 -0.0495 -0.1160 -0.1515
12388DDP     P174324   3.001  18.395   8.065 -0.0979  0.0098  0.0973
12388DDP     P274325   3.089  17.614   8.320  0.1305  0.2282 -0.3064
12388DDP     C274326   2.832  17.563   8.808  0.0743 -0.1853 -0.2177
12388DDP     C374327   2.961  18.877   8.149 -0.0859 -0.0507 -0.0553
12388DDP     C474328   3.153  17.795   7.542  0.4711 -0.2292 -0.1423
12389DDP     C174329  27.613   2.642  29.504  0.1871 -0.1153 -0.1785
12389DDP     P174330  27.343   2.333  29.777  0.1489  0.0630 -0.0198
12389DDP     P274331  27.936   2.935  29.730  0.0824  0.0038 -0.1660
12389DDP     C274332  28.267   3.130  30.042 -0.0522  0.1619 -0.0114
12389DDP     C374333  27.134   1.847  29.696  0.1102  0.3107 -0.0828
12389DDP     C474334  27.396   2.866  29.235 -0.4353  0.0367  0.4434
12390DDP     C174335   6.855  13.241  10.811  0.2397  0.2863 -0.0746
12390DDP     P174336   6.972  12.925  11.077 -0.0340 -0.0272  0.1054
12390DDP     P274337   6.700  13.596  10.909  0.0457  0.3389 -0.2569
12390DDP     C274338   6.680  14.108  10.696  0.0481 -0.2068  0.3155
12390DDP     C374339   7.223  12.509  11.146 -0.1170 -0.0565 -0.0890
12390DDP     C474340   7.109  13.204  10.470  0.1755  0.0520 -0.1387
12391DDP     C174341  14.539   8.950   7.192 -0.0688  0.1533  0.0529
12391DDP     P174342  14.831   9.056   7.385 -0.3237 -0.0359  0.0383
12391DDP     P274343  14.564   8.523   7.030 -0.1711  0.0963  0.1590
12391DDP     C274344  14.593   8.049   6.756 -0.3110  0.1110  0.0846
12391DDP     C374345  15.218   9.128   7.251  0.1644 -0.1995  0.1636
12391DDP     C474346  14.269   9.303   7.198 -0.0736  0.0554 -0.0992
12392DDP     C174347  28.243  15.020  11.368  0.1015  0.0462  0.0367
12392DDP     P174348  28.502  15.094  11.028 -0.2230 -0.2220 -0.0553
12392DDP     P274349  27.963  14.763  11.084 -0.0919  0.2700 -0.2545
12392DDP     C274350  27.751  14.496  11.279 -0.2265 -0.0064  0.1494
12392DDP     C374351  28.632  15.030  10.604 -0.2549  0.2394  0.0580
12392DDP     C474352  27.913  14.996  11.662  0.3359  0.0357  0.0100
12393DDP     C174353   2.152  26.282  28.746  0.0022 -0.1349  0.1616
12393DDP     P174354   1.829  26.356  28.419 -0.0712  0.1196  0.0583
12393DDP     P274355   2.177  26.005  28.598  0.0503  0.3227  0.2693
12393DDP     C274356   1.955  25.728  28.692  0.1489  0.1307 -0.3510
12393DDP     C374357   1.664  26.096  28.099 -0.1199 -0.2113 -0.1830
12393DDP     C474358   2.380  26.654  29.007 -0.3018  0.0111 -0.0515
12394DDP     C174359  14.528  27.834  24.698 -0.1361 -0.1479 -0.1479
12394DDP     P174360  14.389  27.801  24.286 -0.1001 -0.1169  0.0198
12394DDP     P274361  14.250  27.767  25.065  0.0647  0.3391 -0.1736
12394DDP     C274362  13.930  27.809  25.387 -0.0764 -0.0159  0.0004
12394DDP     C374363  14.324  27.886  23.779 -0.0607 -0.0160 -0.0708
12394DDP     C474364  14.976  27.872  24.704  0.2109 -0.4293  0.1431
12395DDP     C174365  13.717  21.295   7.557  0.1268 -0.2827  0.1130
12395DDP     P174366  14.085  21.616   7.572 -0.0078 -0.0689 -0.2866
12395DDP     P274367  13.359  21.466   7.371 -0.0358 -0.0412  0.5639
12395DDP     C274368  12.909  21.455   7.187  0.0552 -0.0208 -0.0999
12395DDP     C374369  14.054  22.098   7.384 -0.1634 -0.3482  0.4163
12395DDP     C474370  13.876  20.896   7.599 -0.0258  0.0448  0.1683
12396DDP     C174371  29.670  11.653   9.696  0.3139  0.1701  0.2966
12396DDP     P174372  29.921  11.836   9.498 -0.0897  0.4154 -0.0109
12396DDP     P274373  29.271  11.795   9.584 -0.2238  0.2151 -0.1820
12396DDP     C274374  28.822  11.853   9.353  0.1188 -0.0162  0.3084
12396DDP     C374375  29.915  12.159   9.137 -0.0501  0.0115 -0.1908
12396DDP     C474376  29.822  11.281   9.824 -0.1956  0.1470 -0.0018
12397DDP     C174377  19.111  28.223   3.806  0.2185  0.1723  0.0461
12397DDP     P174378  19.280  28.574   3.604 -0.1981 -0.0371  0.0611
12397DDP     P274379  18.788  28.165   4.115  0.0581  0.0271 -0.1453
12397DDP     C274380  18.500  28.505   4.309 -0.0218  0.2294 -0.0187
12397DDP     C374381  19.410  28.871   3.369  0.1307  0.0720  0.0132
12397DDP     C474382  19.486  27.961   3.811 -0.0798 -0.0149 -0.1269
12398DDP     C174383  23.504   8.208  19.167  0.1090 -0.0205 -0.1197
12398DDP     P174384  23.038   7.993  19.246 -0.0818  0.3630  0.0464
12398DDP     P274385  23.511   8.646  18.966 -0.0603  0.0265  0.1276
12398DDP     C274386  23.354   8.814  18.472  0.1732 -0.2539 -0.1192
12398DDP     C374387  22.622   8.041  19.578  0.0558  0.1452  0.0079
12398DDP     C474388  23.919   8.102  19.328 -0.0662  0.1495  0.1043
12399DDP     C174389  21.982  28.422   5.652 -0.1399 -0.0678  0.0467
12399DDP     P174390  22.392  28.541   5.853  0.1530 -0.1564  0.3587
12399DDP     P274391  21.740  28.606   5.360  0.2845 -0.1893 -0.1413
12399DDP     C274392  21.475  28.930   5.236 -0.1586  0.1440 -0.0956
12399DDP     C374393  22.549  28.800   6.201  0.2722 -0.0696  0.1578
12399DDP     C474394  21.728  28.059   5.910  0.3053 -0.2965 -0.0107
12400DDP     C174395   0.735  15.524   1.224  0.2040 -0.0567  0.1411
12400DDP     P174396   0.672  15.537   1.592  0.0334 -0.1292 -0.0797
12400DDP     P274397   0.366  15.569   1.104  0.1488 -0.0368  0.1243
12400DDP     C274398  30.242  15.390   1.174 -0.0471 -0.3278 -0.1402
12400DDP     C374399   0.491  15.464   1.984  0.2473  0.0923  0.1981
12400DDP     C474400   1.028  15.234   1.147 -0.0253 -0.2209  0.3080
12401DDP     C174401  20.387  27.971  13.844  0.0047  0.1439 -0.1193
12401DDP     P174402  20.230  27.671  13.501  0.1052  0.0384 -0.0418
12401DDP     P274403  20.143  28.292  13.929 -0.3999  0.0460  0.0464
12401DDP     C274404  19.809  28.451  14.095  0.2911  0.1980 -0.2214
12401DDP     C374405  20.241  27.241  13.450 -0.0422  0.3478  0.0423
12401DDP     C474406  20.540  27.902  14.271  0.0412  0.1097  0.2904
12402DDP     C174407  18.358  12.278  23.376 -0.5890  0.0178 -0.0317
12402DDP     P174408  18.247  12.058  23.860  0.0843 -0.2897  0.1164
12402DDP     P274409  18.495  12.609  23.464 -0.1116 -0.0534  0.3405
12402DDP     C274410  18.431  13.138  23.371  0.0094  0.1899 -0.1096
12402DDP     C374411  18.332  12.074  24.260 -0.2709  0.0195  0.0608
12402DDP     C474412  18.167  12.129  22.954  0.1769 -0.0306  0.1872
12403DDP     C174413  23.981  21.706  20.784 -0.1018  0.1942 -0.2222
12403DDP     P174414  23.902  21.448  20.418 -0.1239  0.3490 -0.1271
12403DDP     P274415  23.708  21.547  21.094 -0.0905 -0.2631 -0.2722
12403DDP     C274416  23.340  21.401  21.208  0.0362  0.2631  0.1124
12403DDP     C374417  23.536  21.326  20.252 -0.1150  0.0372  0.4707
12403DDP     C474418  24.097  22.093  20.546 -0.1041  0.1192  0.0673
12404DDP     C174419   1.858  11.420   6.757  0.3148 -0.0181 -0.1227
12404DDP     P174420   1.983  11.253   7.129  0.2100  0.1845 -0.0634
12404DDP     P274421   1.418  11.618   6.804 -0.7400  0.2311  0.1881
12404DDP     C274422   1.365  12.052   6.918 -0.1996  0.0399 -0.2705
12404DDP     C374423   1.827  11.077   7.453  0.1554  0.1845  0.0132
12404DDP     C474424   2.182  11.587   6.523  0.1113 -0.0783 -0.0031
12405DDP     C174425  11.144  29.557   2.381  0.1534  0.0328 -0.1183
12405DDP     P174426  11.221  29.106   2.240 -0.1560  0.0011  0.1058
12405DDP     P274427  11.570  29.743   2.290  0.1109  0.1866 -0.3364
12405DDP     C274428  11.909  30.263   2.206  0.0022  0.1163  0.0801
12405DDP     C374429  11.527  28.840   2.213  0.0799  0.1396 -0.0184
12405DDP     C474430  10.812  29.714   2.254 -0.0612 -0.1490 -0.2298
12406DDP     C174431  19.747   7.748   2.694 -0.1388  0.0287  0.1778
12406DDP     P174432  20.101   7.500   2.584  0.0193 -0.2290  0.0172
12406DDP     P274433  19.423   7.528   2.881  0.1624  0.2630 -0.2550
12406DDP     C274434  19.098   7.382   2.863  0.1204  0.4385 -0.1540
12406DDP     C374435  20.235   7.118   2.672 -0.0397  0.1209 -0.0557
12406DDP     C474436  19.625   8.053   2.381  0.0189 -0.2433 -0.0673
12407DDP     C174437   5.916  13.266  27.826 -0.0897 -0.1539  0.0190
12407DDP     P174438   6.091  13.484  27.541 -0.0283  0.1167 -0.3205
12407DDP     P274439   5.584  13.278  27.608 -0.2195  0.1998  0.1831
12407DDP     C274440   5.222  13.382  27.610  0.1256  0.2314 -0.1754
12407DDP     C374441   6.374  13.800  27.482 -0.3279  0.0395 -0.0295
12407DDP     C474442   5.898  13.181  28.297  0.2983  0.0552 -0.1547
12408DDP     C174443   8.968  29.900  29.587  0.1837  0.0049 -0.0516
12408DDP     P174444   9.142  29.698  29.200 -0.1951  0.0259  0.0514
12408DDP     P274445   8.700  29.708  29.863 -0.2582 -0.0863 -0.1101
12408DDP     C274446   8.642  29.335  30.068  0.0069  0.0793  0.1718
12408DDP     C374447   9.377  29.711  28.840  0.1532 -0.0441 -0.1339
12408DDP     C474448   9.142   0.069  29.692 -0.2135 -0.3082 -0.3262
12409DDP     C174449  27.833  10.366  22.634 -0.0263  0.0919  0.1802
12409DDP     P174450  28.262  10.346  22.741 -0.3238 -0.0258  0.0634
12409DDP     P274451  27.609  10.351  22.898  0.4561  0.1294 -0.2021
12409DDP     C274452  27.270  10.634  22.983  0.1979  0.1193 -0.0948
12409DDP     C374453  28.618  10.423  22.517  0.0440  0.3240 -0.0189
12409DDP     C474454  27.633  10.202  22.166  0.0298 -0.1236  0.2161
12410DDP     C174455   0.017   1.677   9.432 -0.2687  0.2157  0.1028
12410DDP     P174456  29.989   1.603   9.493  0.0742  0.4957  0.1616
12410DDP     P274457   0.234   1.815   9.725 -0.1582 -0.0267 -0.0414
12410DDP     C274458   0.649   1.896   9.876 -0.1638  0.1738 -0.1125
12410DDP     C374459  29.626   1.808   9.688  0.1118  0.1536  0.0430
12410DDP     C474460   0.048   1.947   9.095 -0.0519  0.1479  0.1292
12411DDP     C174461  15.227   9.559  27.656  0.1548 -0.2307  0.1693
12411DDP     P174462  15.645   9.354  27.521 -0.0217  0.0802  0.0426
12411DDP     P274463  14.851   9.437  27.768 -0.1598 -0.1292 -0.0372
12411DDP     C274464  14.709   9.684  27.531  0.1462  0.2392  0.0247
12411DDP     C374465  16.045   9.106  27.445 -0.0605 -0.3378 -0.2495
12411DDP     C474466  15.236   9.896  27.429  0.1776 -0.0355 -0.0023
12412DDP     C174467  10.661  18.165  12.818  0.2470  0.0108 -0.1606
12412DDP     P174468  10.197  18.145  12.776 -0.0218 -0.1569 -0.2543
12412DDP     P274469  10.591  18.150  13.270  0.1355  0.2034 -0.0164
12412DDP     C274470  10.298  17.787  13.441 -0.2654  0.0842 -0.2849
12412DDP     C374471   9.739  18.120  12.776  0.0392 -0.1025  0.3541
12412DDP     C474472  11.023  18.249  12.410 -0.1736  0.2119  0.2269
12413DDP     C174473   9.552  19.649  14.523 -0.0397 -0.1059  0.2880
12413DDP     P174474   9.869  19.549  14.345 -0.1159  0.2030 -0.0496
12413DDP     P274475   9.489  20.021  14.324  0.2209  0.0961  0.1859
12413DDP     C274476   9.136  20.387  14.424 -0.1541 -0.2206  0.0246
12413DDP     C374477  10.031  19.937  14.152  0.3428  0.1835 -0.4021
12413DDP     C474478   9.309  19.432  14.786 -0.0950 -0.0239  0.1225
12414DDP     C174479  11.738   6.125  16.630 -0.4549 -0.2758  0.0566
12414DDP     P174480  12.098   6.058  16.693  0.1999  0.1562 -0.2508
12414DDP     P274481  11.492   5.790  16.535 -0.0721 -0.4986 -0.0259
12414DDP     C274482  11.558   5.442  16.916 -0.2236 -0.1968 -0.0045
12414DDP     C374483  12.233   5.772  16.924  0.1595 -0.1850  0.0650
12414DDP     C474484  11.529   6.469  16.299 -0.1429  0.0715 -0.3629
12415DDP     C174485  10.640   3.648  19.282  0.1808  0.0590  0.0025
12415DDP     P174486  10.807   3.411  18.841  0.0451  0.1351  0.0644
12415DDP     P274487  10.588   4.077  19.216  0.2155 -0.0886 -0.1913
12415DDP     C274488  10.331   4.329  19.053 -0.0304  0.4113  0.2971
12415DDP     C374489  11.159   3.258  18.677 -0.0597  0.0719  0.0388
12415DDP     C474490  10.693   3.357  19.522 -0.4663  0.0023 -0.0584
12416DDP     C174491   1.785   1.177  14.377  0.0726 -0.1325 -0.0155
12416DDP     P174492   2.045   1.046  14.631 -0.1358 -0.0975 -0.0448
12416DDP     P274493   1.431   1.322  14.376  0.2325 -0.4174 -0.1012
12416DDP     C274494   1.087   1.538  14.443 -0.1335 -0.1020 -0.2326
12416DDP     C374495   2.176   0.747  15.091  0.2015  0.0824  0.1530
12416DDP     C474496   2.103   1.016  14.010 -0.2634  0.2571  0.0376
12417DDP     C174497  27.485   1.866  27.507  0.0767  0.1709 -0.0141
12417DDP     P174498  27.257   1.606  27.244 -0.0156  0.0085  0.1443
12417DDP     P274499  27.817   1.831  27.297  0.1716  0.2247  0.3561
12417DDP     C274500  28.313   1.771  27.227  0.0455 -0.0377  0.0545
12417DDP     C374501  26.966   1.616  27.001  0.1796  0.1474 -0.1342
12417DDP     C474502  27.380   2.261  27.544 -0.1266  0.1159  0.2284
12418DDP     C174503  21.891  15.465   9.219 -0.1118  0.0815  0.0960
12418DDP     P174504  21.856  15.886   9.381  0.4751 -0.1527 -0.0105
12418DDP     P274505  21.759  15.341   8.911  0.0178 -0.3299 -0.1784
12418DDP     C274506  21.765  15.447   8.426  0.1210  0.0033  0.0889
12418DDP     C374507  21.660  16.333   9.302 -0.0712  0.1027  0.3592
12418DDP     C474508  21.773  15.147   9.538 -0.1097 -0.0037 -0.1408
12419DDP     C174509   2.069  26.033  25.251  0.1916  0.1066  0.2685
12419DDP     P174510   2.142  25.788  25.646  0.0291 -0.2860  0.0950
12419DDP     P274511   2.350  26.351  25.066  0.1901  0.1128 -0.1063
12419DDP     C274512   2.826  26.474  25.150 -0.0466 -0.0079 -0.0170
12419DDP     C374513   2.454  25.680  25.986  0.0113  0.2533  0.0145
12419DDP     C474514   1.724  25.937  24.985 -0.2620 -0.0720  0.0216
12420DDP     C174515   6.921  16.228  27.948 -0.1987  0.2250  0.0865
12420DDP     P174516   7.302  16.368  27.696 -0.1995  0.1616  0.2478
12420DDP     P274517   6.884  16.039  28.378 -0.0971 -0.0792 -0.0456
12420DDP     C274518   7.094  15.676  28.595  0.1925 -0.1885 -0.2420
12420DDP     C374519   7.734  16.199  27.453  0.0509  0.0605 -0.1376
12420DDP     C474520   6.460  16.468  27.992  0.1732 -0.0776  0.1527
12421DDP     C174521  29.675   1.975  15.956 -0.2269  0.0287  0.0747
12421DDP     P174522  29.441   1.853  15.628 -0.1173  0.1041 -0.0501
12421DDP     P274523  29.484   2.029  16.317 -0.1036 -0.0573 -0.1666
12421DDP     C274524  29.175   2.233  16.544 -0.0679  0.0840 -0.0337
12421DDP     C374525  29.390   1.789  15.154  0.3298 -0.1184  0.1772
12421DDP     C474526  30.060   1.845  15.877 -0.2551 -0.1369  0.0907
12422DDP     C174527  19.281   6.724   8.358  0.3947  0.1943  0.4386
12422DDP     P174528  19.440   6.458   8.185  0.0935  0.1452 -0.1959
12422DDP     P274529  18.902   6.757   8.308  0.1721  0.0257 -0.1954
12422DDP     C274530  18.535   6.587   8.268 -0.0985 -0.1732  0.0836
12422DDP     C374531  19.785   6.273   8.257  0.0608 -0.4252 -0.2486
12422DDP     C474532  19.479   7.140   8.484 -0.0310  0.1301  0.4311
12423DDP     C174533  11.800  13.818  15.022 -0.2482 -0.0024  0.0068
12423DDP     P174534  11.660  14.165  14.788 -0.1792  0.0418  0.2810
12423DDP     P274535  12.085  13.929  15.317  0.0054 -0.1738  0.1864
12423DDP     C274536  12.495  13.967  15.459 -0.2426  0.2034 -0.3266
12423DDP     C374537  11.460  14.553  14.757 -0.1645  0.1358 -0.0611
12423DDP     C474538  11.691  13.433  14.824  0.0780  0.0776  0.0700
12424DDP     C174539   3.422  18.214  20.646 -0.0104  0.1327 -0.0164
12424DDP     P174540   3.038  18.103  20.828 -0.1088  0.3098  0.2655
12424DDP     P274541   3.895  18.253  20.753  0.2141  0.0833  0.0768
12424DDP     C274542   3.965  18.066  21.197 -0.2371  0.1780  0.1228
12424DDP     C374543   2.616  17.938  20.982 -0.2281  0.3266 -0.1565
12424DDP     C474544   3.333  18.452  20.300  0.1633 -0.0403  0.1205
12425DDP     C174545  14.581  12.690  10.133 -0.0425 -0.0649 -0.0126
12425DDP     P174546  14.612  12.917  10.462 -0.3292 -0.1027 -0.1819
12425DDP     P274547  14.816  13.094  10.062  0.0060 -0.2415  0.3439
12425DDP     C274548  15.066  13.500  10.065  0.0482 -0.0562  0.1276
12425DDP     C374549  14.433  12.980  10.859  0.2671 -0.0935  0.4345
12425DDP     C474550  14.674  12.356   9.817 -0.0188  0.0388 -0.0322
12426DDP     C174551  13.063  14.090   3.949  0.1305  0.2532 -0.0754
12426DDP     P174552  13.069  13.765   4.164  0.2019  0.2022  0.1769
12426DDP     P274553  13.361  14.138   3.581  0.1624 -0.1229  0.2591
12426DDP     C274554  13.799  14.189   3.633 -0.1774 -0.1610 -0.0537
12426DDP     C374555  12.779  13.449   4.219  0.1379  0.2763 -0.0129
12426DDP     C474556  12.939  14.514   4.119 -0.0424  0.0191 -0.0846
12427DDP     C174557  12.487  26.252   8.090 -0.1700  0.0073  0.1963
12427DDP     P174558  12.563  25.725   8.162 -0.3471 -0.2081 -0.0356
12427DDP     P274559  12.530  26.434   8.537  0.1161 -0.0901 -0.0618
12427DDP     C274560  12.316  26.222   8.975  0.0586 -0.2105  0.0808
12427DDP     C374561  12.770  25.462   8.397  0.0215 -0.3166  0.1283
12427DDP     C474562  12.307  26.500   7.812 -0.1123  0.0724 -0.0710
12428DDP     C174563  28.459  13.547  14.956 -0.1479  0.0044 -0.1103
12428DDP     P174564  28.066  13.444  15.045  0.0228  0.2897  0.1384
12428DDP     P274565  28.632  13.206  14.932  0.0749  0.0191  0.1503
12428DDP     C274566  28.729  12.947  14.575 -0.0790  0.1598  0.1637
12428DDP     C374567  27.723  13.639  15.302  0.0942 -0.0478 -0.0032
12428DDP     C474568  28.521  13.936  15.195 -0.1292  0.2412 -0.0988
12429DDP     C174569  17.230   7.987  14.574  0.0136 -0.2059 -0.1288
12429DDP     P174570  17.466   8.108  14.881 -0.0415 -0.0791 -0.0792
12429DDP     P274571  17.408   7.530  14.519 -0.1133 -0.3301 -0.2249
12429DDP     C274572  17.486   7.106  14.661  0.1741  0.1745 -0.0762
12429DDP     C374573  17.549   8.253  15.267 -0.2176 -0.1232  0.1492
12429DDP     C474574  17.115   8.195  14.293  0.0896 -0.2973  0.2943
12430DDP     C174575   2.599   3.744  20.830 -0.0415  0.0423  0.1647
12430DDP     P174576   2.872   3.918  21.020  0.0148  0.0779 -0.0644
12430DDP     P274577   2.514   3.783  20.457  0.1053  0.2248  0.2383
12430DDP     C274578   2.119   3.734  20.376 -0.0107 -0.0033  0.2078
12430DDP     C374579   3.304   4.186  21.106  0.5045 -0.3264  0.2302
12430DDP     C474580   2.437   3.582  21.020  0.1498 -0.1539 -0.0795
12431DDP     C174581  24.569  22.997   6.492  0.0286 -0.2005 -0.0708
12431DDP     P174582  24.461  22.824   6.909 -0.2946  0.1255 -0.1430
12431DDP     P274583  24.265  23.316   6.222 -0.0802  0.2004  0.0624
12431DDP     C274584  23.746  23.483   6.228 -0.1043 -0.0204  0.0973
12431DDP     C374585  24.136  22.708   7.162  0.0858 -0.1345 -0.1392
12431DDP     C474586  24.934  22.743   6.334 -0.0718  0.2262 -0.1609
12432DDP     C174587  21.000  10.391  21.002  0.1374  0.3889 -0.1339
12432DDP     P174588  20.830  10.724  21.214 -0.0176  0.1225  0.0744
12432DDP     P274589  21.102  10.478  20.590 -0.1712  0.1771 -0.2209
12432DDP     C274590  21.102  10.291  20.224 -0.2201  0.2916  0.1214
12432DDP     C374591  20.509  11.058  21.149 -0.1110 -0.0382 -0.1755
12432DDP     C474592  20.883   9.930  21.129 -0.2649  0.0782  0.3302
12433DDP     C174593  14.374  12.585  15.428  0.3845  0.4561  0.1207
12433DDP     P174594  14.712  12.344  15.409  0.0756 -0.1749 -0.1925
12433DDP     P274595  14.071  12.859  14.990 -0.3483  0.0675  0.1065
12433DDP     C274596  13.981  13.214  14.577  0.2729 -0.0626  0.0698
12433DDP     C374597  14.902  11.973  15.211  0.0694 -0.1422 -0.0910
12433DDP     C474598  14.256  12.830  15.801 -0.0077 -0.1395 -0.1934
12434DDP     C174599  21.393  21.311  11.938  0.0882 -0.1991  0.1555
12434DDP     P174600  21.399  21.759  11.800 -0.1067 -0.3481 -0.0198
12434DDP     P274601  20.988  21.304  12.239  0.2275  0.2999 -0.2892
12434DDP     C274602  20.659  21.363  12.616 -0.3376 -0.0266 -0.0557
12434DDP     C374603  21.455  22.064  12.073  0.0014 -0.1470 -0.0964
12434DDP     C474604  21.656  20.964  11.844 -0.2302 -0.1479  0.1897
12435DDP     C174605   3.003  11.897   1.369  0.0821 -0.1034  0.1395
12435DDP     P174606   3.426  11.829   1.233  0.0708  0.0383  0.2159
12435DDP     P274607   3.163  11.949   1.737 -0.1962 -0.0157 -0.0455
12435DDP     C274608   3.177  11.773   2.159 -0.1002 -0.0545  0.2785
12435DDP     C374609   3.721  11.622   0.987 -0.2771  0.1276 -0.2593
12435DDP     C474610   2.778  11.483   1.330 -0.0797 -0.4060 -0.2314
12436DDP     C174611  11.929  13.344  24.779  0.1473  0.2156 -0.4758
12436DDP     P174612  11.578  13.647  24.993 -0.3117  0.3353 -0.0568
12436DDP     P274613  11.714  12.981  24.779  0.1732 -0.0469  0.0678
12436DDP     C274614  11.354  12.683  24.892  0.2665  0.0111  0.2270
12436DDP     C374615  11.249  13.776  25.186 -0.1488 -0.1756 -0.0406
12436DDP     C474616  12.390  13.481  24.781  0.1490 -0.1220  0.0106
12437DDP     C174617  27.624   1.232  29.212 -0.2809  0.2844 -0.1365
12437DDP     P174618  27.868   1.565  29.356  0.3183  0.0260  0.2332
12437DDP     P274619  27.826   0.897  28.888 -0.1764 -0.1428 -0.1397
12437DDP     C274620  28.138   0.731  28.689  0.1688 -0.0004  0.4009
12437DDP     C374621  28.143   1.957  29.431  0.2156  0.0379  0.0898
12437DDP     C474622  27.191   1.070  29.381  0.0543  0.1432 -0.0672
12438DDP     C174623  29.195  17.437  23.678 -0.2217  0.0146  0.0417
12438DDP     P174624  29.591  17.590  23.439  0.2708 -0.2371 -0.1505
12438DDP     P274625  28.833  17.395  23.496 -0.1058  0.1304 -0.2102
12438DDP     C274626  28.434  17.209  23.368  0.2506 -0.2711 -0.1115
12438DDP     C374627  29.755  17.676  23.037  0.0321 -0.3152 -0.1149
12438DDP     C474628  29.229  17.216  23.934 -0.1495 -0.1410 -0.0042
12439DDP     C174629  10.189  15.464  30.170  0.0648  0.0287  0.1855
12439DDP     P174630  10.599  15.487  30.297 -0.2287 -0.1567  0.0705
12439DDP     P274631   9.936  15.095  30.097 -0.1487  0.2161 -0.1812
12439DDP     C274632  10.025  14.720  -0.016 -0.0974 -0.0535 -0.1372
12439DDP     C374633  11.026  15.603  30.217 -0.1528  0.1596  0.1880
12439DDP     C474634   9.943  15.843   0.026 -0.0269  0.2074  0.0491
12440DDP     C174635   0.212  19.546   6.424  0.3485  0.3226  0.2527
12440DDP     P174636   0.701  19.613   6.592  0.2682  0.2191  0.3901
12440DDP     P274637  30.184  19.765   6.510 -0.0434  0.2128 -0.0063
12440DDP     C274638  30.044  20.177   6.396 -0.0930  0.1995 -0.0469
12440DDP     C374639   0.958  19.463   6.986 -0.0744  0.0033  0.3066
12440DDP     C474640   0.203  19.120   6.576  0.0571 -0.1334 -0.3049
12441DDP     C174641  19.778  18.370   0.769  0.0531  0.0912  0.0599
12441DDP     P174642  20.209  18.335   0.673 -0.3327  0.1722 -0.1099
12441DDP     P274643  19.485  17.936   0.770  0.2841 -0.0914  0.0228
12441DDP     C274644  19.453  17.678   1.028  0.0647 -0.1587 -0.3219
12441DDP     C374645  20.626  18.196   0.636 -0.0169 -0.1018  0.0173
12441DDP     C474646  19.607  18.727   0.894  0.2307 -0.0124 -0.0842
12442DDP     C174647   1.700  30.106  14.319 -0.1028 -0.0961  0.1386
12442DDP     P174648   2.123  30.316  14.293  0.0313  0.3370  0.1006
12442DDP     P274649   1.758  29.668  14.465 -0.1741  0.2165 -0.1573
12442DDP     C274650   1.686  29.332  14.791  0.0710  0.0065 -0.0424
12442DDP     C374651   2.353   0.233  14.023 -0.3196 -0.2283  0.3575
12442DDP     C474652   1.300  30.180  14.263  0.2468 -0.0449 -0.1782
12443DDP     C174653  25.237  10.687  20.519  0.1156  0.1614  0.3284
12443DDP     P174654  25.458  11.048  20.496  0.2769  0.4310 -0.2207
12443DDP     P274655  25.156  10.366  20.870 -0.2694 -0.1015 -0.1816
12443DDP     C274656  25.407  10.247  21.191 -0.0380 -0.0287 -0.0139
12443DDP     C374657  25.927  11.336  20.510 -0.0610  0.3352 -0.4956
12443DDP     C474658  25.189  10.483  20.169  0.1569  0.1778 -0.0056
12444DDP     C174659  19.840   6.497  12.255 -0.0330  0.2734  0.1662
12444DDP     P174660  20.154   6.821  12.290 -0.2731 -0.1151  0.3452
12444DDP     P274661  19.896   6.149  11.919 -0.0808  0.1710  0.1275
12444DDP     C274662  19.734   5.795  11.649  0.1455  0.0738 -0.1442
12444DDP     C374663  20.050   7.226  12.394 -0.3782 -0.0299 -0.2755
12444DDP     C474664  19.322   6.386  12.427  0.2568 -0.2542 -0.1092
12445DDP     C174665  27.445  17.826  26.760  0.0681  0.2034  0.3122
12445DDP     P174666  27.080  17.633  26.706  0.1360 -0.0245 -0.0098
12445DDP     P274667  27.845  17.653  26.639 -0.0306  0.0107  0.2228
12445DDP     C274668  28.084  17.668  26.292  0.0099 -0.3080 -0.2754
12445DDP     C374669  26.656  17.678  26.564  0.1545 -0.3931 -0.3218
12445DDP     C474670  27.299  18.094  27.075  0.0062  0.1493  0.2566
12446DDP     C174671   0.408   9.320  19.535  0.0199 -0.2168 -0.3756
12446DDP     P174672  30.313   9.330  19.764  0.2646 -0.1631 -0.1050
12446DDP     P274673   0.606   8.893  19.387 -0.2585  0.2431 -0.0538
12446DDP     C274674   0.844   8.838  19.024 -0.0883  0.1591 -0.1147
12446DDP     C374675  30.118   9.388  20.185 -0.2611 -0.2362  0.0808
12446DDP     C474676   0.472   9.750  19.441 -0.0922 -0.1745  0.1098
12447DDP     C174677  10.664  23.253   6.059 -0.0654  0.2012  0.0065
12447DDP     P174678  10.718  23.668   5.877 -0.4588 -0.2695  0.0949
12447DDP     P274679  10.909  22.949   6.198 -0.3718 -0.3459 -0.0866
12447DDP     C274680  11.386  23.004   6.203  0.3502 -0.3034  0.0030
12447DDP     C374681  10.741  24.153   5.674  0.2156 -0.1585 -0.0241
12447DDP     C474682  10.219  23.237   6.171  0.1470  0.3933  0.0750
12448DDP     C174683  22.388   2.745  15.880  0.2052  0.1105  0.2247
12448DDP     P174684  22.709   2.512  16.146 -0.2282 -0.0914  0.2204
12448DDP     P274685  22.512   3.039  15.463 -0.3062  0.3212 -0.1791
12448DDP     C274686  22.611   3.110  15.053 -0.0612  0.1725  0.2595
12448DDP     C374687  22.892   2.467  16.464 -0.2573  0.0338 -0.0647
12448DDP     C474688  22.073   2.945  16.212 -0.0309 -0.1335 -0.3327
12449DDP     C174689  25.799  23.151   8.709  0.2024  0.0226  0.1169
12449DDP     P174690  26.054  23.201   9.073 -0.0371 -0.2590 -0.0635
12449DDP     P274691  25.455  23.373   8.611  0.1332 -0.1925  0.0016
12449DDP     C274692  25.054  23.591   8.652  0.0263  0.0833 -0.2481
12449DDP     C374693  26.053  22.912   9.404 -0.1409 -0.0585  0.3613
12449DDP     C474694  25.799  22.766   8.453 -0.0077  0.1970  0.0173
12450DDP     C174695  20.023  23.844  12.253  0.0281 -0.1679  0.2225
12450DDP     P174696  20.451  23.726  12.321 -0.1316  0.0644 -0.2151
12450DDP     P274697  19.851  23.812  11.847  0.0938 -0.1192 -0.2020
12450DDP     C274698  20.006  24.208  11.700  0.0197 -0.3634  0.0369
12450DDP     C374699  20.846  23.890  12.423  0.2065  0.2895  0.2844
12450DDP     C474700  19.836  23.944  12.580  0.4045 -0.0538 -0.0805
12451DDP     C174701  10.064  27.208  13.411 -0.1543  0.1103  0.0702
12451DDP     P174702  10.096  27.620  13.309  0.0570 -0.0256 -0.0268
12451DDP     P274703  10.507  27.173  13.599  0.0734 -0.1984 -0.1312
12451DDP     C274704  10.867  26.992  13.454  0.2585  0.3199 -0.1692
12451DDP     C374705  10.014  27.884  12.953  0.1908 -0.1130  0.2492
12451DDP     C474706   9.723  26.854  13.394 -0.2528 -0.3593  0.0240
12452DDP     C174707  19.672  28.558  27.977 -0.2767 -0.2080 -0.0808
12452DDP     P174708  19.474  28.895  27.699 -0.5731  0.0154 -0.2548
12452DDP     P274709  19.899  28.684  28.421 -0.0946 -0.0789  0.1885
12452DDP     C274710  20.070  28.679  28.794 -0.1808  0.0433 -0.3651
12452DDP     C374711  19.340  29.335  27.667  0.1079  0.0307 -0.2428
12452DDP     C474712  19.543  28.065  27.910  0.1776 -0.0199  0.1057
12453DDP     C174713  29.826  26.994  17.062 -0.1455 -0.4087 -0.3409
12453DDP     P174714  29.348  26.756  17.020 -0.1662 -0.1161 -0.3599
12453DDP     P274715  29.652  27.456  16.981 -0.0641 -0.1950  0.2286
12453DDP     C274716  29.372  27.680  16.860  0.1877 -0.1897 -0.1692
12453DDP     C374717  29.037  26.658  17.074  0.0853 -0.0947 -0.1481
12453DDP     C474718  30.053  26.852  17.403  0.2778 -0.0406  0.1717
12454DDP     C174719   3.594   0.482  23.738  0.4600 -0.1855 -0.1926
12454DDP     P174720   3.707   0.758  23.375  0.0867  0.5058 -0.2502
12454DDP     P274721   3.453   0.792  24.006 -0.0074 -0.0881 -0.1228
12454DDP     C274722   3.006   0.767  24.087 -0.3876  0.1387  0.2519
12454DDP     C374723   3.735   1.099  23.110 -0.1999 -0.1633 -0.1067
12454DDP     C474724   3.754   0.125  23.834  0.0396  0.0252 -0.3085
12455DDP     C174725  16.720  21.557  25.700  0.0913  0.0135 -0.1294
12455DDP     P174726  16.550  21.176  25.755 -0.1840 -0.0990 -0.1979
12455DDP     P274727  16.982  21.619  25.407  0.1397  0.1285  0.1997
12455DDP     C274728  17.399  21.691  25.525 -0.2862  0.1330  0.2744
12455DDP     C374729  16.270  20.839  25.577  0.2405 -0.2975  0.0871
12455DDP     C474730  17.006  21.807  25.911 -0.3069 -0.2349  0.0545
12456DDP     C174731  15.630   2.366  24.717  0.2197 -0.1642 -0.3691
12456DDP     P174732  16.005   2.217  24.646 -0.2456  0.0696 -0.5238
12456DDP     P274733  15.202   2.339  24.518  0.1137  0.0716  0.0792
12456DDP     C274734  14.984   2.688  24.537  0.0453  0.0206 -0.2028
12456DDP     C374735  16.496   2.204  24.594 -0.4318 -0.0393  0.3105
12456DDP     C474736  15.770   2.610  25.086 -0.0055 -0.2198 -0.2201
12457DDP     C174737   5.929  27.068   6.446  0.0446  0.0656 -0.1748
12457DDP     P174738   5.846  27.522   6.487  0.0412  0.1591  0.1055
12457DDP     P274739   5.900  26.777   6.743  0.1531  0.4890 -0.0697
12457DDP     C274740   5.884  26.389   7.015  0.1707  0.1805 -0.0284
12457DDP     C374741   5.930  27.991   6.554 -0.2295  0.1890  0.1416
12457DDP     C474742   6.271  27.043   6.155 -0.0773 -0.0399  0.0202
12458DDP     C174743  18.372  16.108   1.059 -0.4150 -0.0502  0.4475
12458DDP     P174744  18.397  16.547   1.168  0.2338  0.2303 -0.1052
12458DDP     P274745  18.716  15.854   0.809  0.2086 -0.1827  0.1194
12458DDP     C274746  18.829  15.637   0.552 -0.3672  0.1143 -0.1539
12458DDP     C374747  18.423  16.948   1.089  0.2439  0.3015 -0.1391
12458DDP     C474748  17.964  15.818   1.065  0.0727 -0.0714  0.3671
12459DDP     C174749   7.770  29.681  21.871 -0.0384  0.1072  0.0413
12459DDP     P174750   7.816  30.140  21.705 -0.3456 -0.0557 -0.1347
12459DDP     P274751   7.945  29.637  22.223  0.2563 -0.2761 -0.1159
12459DDP     C274752   8.335  29.444  22.297  0.1570  0.1895  0.0415
12459DDP     C374753   7.643   0.186  21.464  0.2704 -0.0702  0.0611
12459DDP     C474754   7.564  29.421  21.510  0.1879  0.3934 -0.0295
12460DDP     C174755   8.028   8.114  28.705  0.0222 -0.0121  0.3829
12460DDP     P174756   7.782   8.427  28.555 -0.0567 -0.0359  0.0227
12460DDP     P274757   8.104   8.036  29.185 -0.1874  0.0405 -0.0662
12460DDP     C274758   7.772   7.935  29.402 -0.3803  0.2686 -0.1511
12460DDP     C374759   7.523   8.604  28.225  0.0895 -0.0402  0.0667
12460DDP     C474760   8.421   7.957  28.637  0.0179 -0.1192  0.0750
12461DDP     C174761  24.723  23.841  19.985  0.0057 -0.3593 -0.0695
12461DDP     P174762  24.330  23.805  19.910  0.1897 -0.1586 -0.0679
12461DDP     P274763  24.952  23.726  20.260 -0.1660  0.1564  0.1515
12461DDP     C274764  24.923  23.490  20.643  0.0924  0.1261  0.0529
12461DDP     C374765  23.984  23.654  20.088  0.0793 -0.1726 -0.2199
12461DDP     C474766  25.075  23.979  19.874 -0.1886 -0.1536 -0.0416
12462DDP     C174767  10.338  19.384   4.221 -0.0279 -0.0398 -0.1829
12462DDP     P174768  10.397  18.995   4.402 -0.0946 -0.1534 -0.1421
12462DDP     P274769   9.825  19.499   4.271 -0.0315 -0.1219 -0.0709
12462DDP     C274770   9.616  19.529   4.636  0.1113 -0.0005  0.2366
12462DDP     C374771  10.243  18.662   4.626  0.2967  0.0364 -0.1672
12462DDP     C474772  10.625  19.558   3.777  0.0428 -0.0027 -0.3338
12463DDP     C174773  12.394  26.136  28.577  0.1590 -0.1816 -0.0710
12463DDP     P174774  12.050  26.408  28.662  0.3383 -0.0823 -0.1276
12463DDP     P274775  12.548  25.795  28.846  0.1525 -0.1907 -0.0634
12463DDP     C274776  12.573  25.621  29.234 -0.1804  0.0664 -0.0675
12463DDP     C374777  11.578  26.571  28.536  0.4212  0.3628 -0.0502
12463DDP     C474778  12.565  26.113  28.226  0.0369  0.0338 -0.1506
12464DDP     C174779  14.294  13.632   6.798 -0.1353  0.0883 -0.2558
12464DDP     P174780  14.245  14.095   6.767 -0.0112  0.4378 -0.0196
12464DDP     P274781  14.634  13.345   6.871 -0.1332 -0.2519  0.2698
12464DDP     C274782  15.031  13.184   7.197 -0.0302 -0.1683 -0.0048
12464DDP     C374783  13.912  14.236   6.559  0.1990  0.1500 -0.1620
12464DDP     C474784  13.934  13.398   6.502 -0.4331 -0.1911  0.1749
12465DDP     C174785  18.738  20.146  14.175  0.1309 -0.1277 -0.0791
12465DDP     P174786  19.013  20.022  14.332  0.3758 -0.1566  0.0434
12465DDP     P274787  18.685  19.954  13.711 -0.0079  0.0003  0.2217
12465DDP     C274788  18.757  19.538  13.611 -0.0798 -0.0591 -0.0592
12465DDP     C374789  19.468  20.008  14.404 -0.0055 -0.1044  0.2442
12465DDP     C474790  18.506  20.544  14.265 -0.0707 -0.0770 -0.3309
12466DDP     C174791  18.020   5.206  20.845 -0.0972 -0.0623  0.2179
12466DDP     P174792  18.195   5.314  21.245 -0.4725 -0.0742 -0.1342
12466DDP     P274793  17.693   5.409  20.548 -0.1790 -0.0523  0.1930
12466DDP     C274794  17.722   5.771  20.357 -0.0863 -0.0910 -0.0389
12466DDP     C374795  18.355   5.427  21.613  0.2168 -0.4206 -0.2393
12466DDP     C474796  18.086   4.781  20.677 -0.2668 -0.1872  0.2375
12467DDP     C174797  18.154  28.909   6.505 -0.2146  0.0395  0.1076
12467DDP     P174798  18.632  28.933   6.759 -0.0620  0.0400  0.0030
12467DDP     P274799  17.872  29.179   6.421  0.1827  0.2188  0.1416
12467DDP     C274800  17.825  29.328   5.941  0.1670  0.0118  0.3355
12467DDP     C374801  18.895  28.698   6.682  0.2174 -0.0723  0.0614
12467DDP     C474802  18.101  28.532   6.359  0.1650 -0.2004  0.0317
12468DDP     C174803  23.110  21.747  17.141 -0.1785 -0.3064 -0.3251
12468DDP     P174804  23.206  21.270  17.272 -0.0430 -0.1939 -0.0270
12468DDP     P274805  23.054  22.142  17.404  0.0887  0.3654 -0.1262
12468DDP     C274806  22.933  22.564  17.225 -0.0432 -0.2944  0.0263
12468DDP     C374807  23.412  20.880  17.187 -0.0658 -0.0371 -0.2588
12468DDP     C474808  22.879  21.803  16.783  0.0433  0.2182 -0.0222
12469DDP     C174809  27.325  11.662  21.088 -0.1639  0.4717 -0.1591
12469DDP     P174810  27.118  11.426  20.826 -0.2995  0.0333 -0.1809
12469DDP     P274811  27.287  11.537  21.583 -0.3171  0.1317  0.0281
12469DDP     C274812  26.938  11.535  21.917 -0.0275  0.0035 -0.2587
12469DDP     C374813  27.364  11.237  20.648  0.0850 -0.0163  0.0297
12469DDP     C474814  27.290  12.118  20.998 -0.0285 -0.0023  0.0701
12470DDP     C174815  22.716  25.448  21.754 -0.0220  0.0931 -0.1369
12470DDP     P174816  22.583  25.431  21.332 -0.0924  0.1261  0.0577
12470DDP     P274817  22.338  25.549  22.082  0.1411 -0.0309 -0.3100
12470DDP     C274818  22.232  25.920  22.089 -0.1715  0.1412  0.0954
12470DDP     C374819  22.639  25.325  20.906 -0.0998  0.0520 -0.2514
12470DDP     C474820  23.159  25.543  21.953 -0.0868 -0.0711  0.2091
12471DDP     C174821   5.693  16.356  18.381 -0.1035 -0.2005 -0.1892
12471DDP     P174822   6.004  16.320  18.059 -0.0514 -0.1293  0.3130
12471DDP     P274823   5.464  16.760  18.358 -0.0714  0.2784  0.3193
12471DDP     C274824   5.249  17.138  18.538  0.1818  0.0723  0.0852
12471DDP     C374825   6.148  15.966  17.902 -0.2750 -0.0041 -0.2758
12471DDP     C474826   5.549  16.390  18.715 -0.0087  0.0606  0.4474
12472DDP     C174827  21.678   2.139  15.191 -0.1655  0.1945 -0.1577
12472DDP     P174828  21.316   1.887  15.344  0.2765  0.0184 -0.0162
12472DDP     P274829  21.952   2.246  15.539  0.0019  0.0581  0.1103
12472DDP     C274830  22.239   2.158  15.918 -0.1155  0.0559  0.0142
12472DDP     C374831  20.972   1.806  15.640 -0.0424  0.1343  0.0650
12472DDP     C474832  21.908   2.057  14.742 -0.0287  0.1235 -0.1922
12473DDP     C174833  21.245  26.901   3.174  0.1653 -0.1304  0.1068
12473DDP     P174834  20.827  27.037   3.414  0.2670 -0.2693  0.1389
12473DDP     P274835  21.234  26.978   2.766  0.2509 -0.0445 -0.3598
12473DDP     C274836  21.141  27.159   2.371 -0.2049 -0.1392 -0.1175
12473DDP     C374837  20.463  26.872   3.696 -0.0953  0.2048  0.0034
12473DDP     C474838  21.671  27.000   3.340 -0.1114  0.0328  0.2100
12474DDP     C174839   1.726  18.675  13.102  0.0479  0.1998 -0.3349
12474DDP     P174840   1.907  18.637  12.751  0.0770 -0.1070 -0.0589
12474DDP     P274841   1.441  18.610  12.981 -0.0474 -0.1137 -0.2512
12474DDP     C274842   0.975  18.574  13.108 -0.2206 -0.0618  0.1424
12474DDP     C374843   1.725  18.605  12.248 -0.3297  0.0834 -0.0934
12474DDP     C474844   1.972  18.874  13.465  0.0819  0.0462 -0.0242
12475DDP     C174845   8.713  24.907  17.397 -0.1864  0.0140 -0.0413
12475DDP     P174846   8.904  24.419  17.313  0.3289  0.1267 -0.1876
12475DDP     P274847   8.362  24.944  17.092 -0.0752  0.2315 -0.0614
12475DDP     C274848   8.039  25.196  16.891  0.0066  0.2386 -0.4005
12475DDP     C374849   8.859  24.016  17.575 -0.0634 -0.2030  0.0348
12475DDP     C474850   8.667  25.170  17.728  0.1753  0.1991 -0.3345
12476DDP     C174851   7.947  24.709  18.388  0.0442 -0.1640 -0.0118
12476DDP     P174852   7.572  24.412  18.664 -0.1253 -0.2098 -0.1032
12476DDP     P274853   8.288  24.872  18.662  0.0093 -0.0893  0.0212
12476DDP     C274854   8.626  25.146  18.813  0.3030 -0.1622  0.2375
12476DDP     C374855   7.373  24.015  18.820 -0.4675  0.1921 -0.2729
12476DDP     C474856   7.809  24.693  17.830 -0.4528  0.2788  0.0871
12477DDP     C174857  15.875  28.084   1.096 -0.1196  0.2213 -0.0712
12477DDP     P174858  15.491  27.837   1.196  0.1693 -0.0466 -0.0306
12477DDP     P274859  15.643  28.525   1.160 -0.2590  0.3508 -0.3876
12477DDP     C274860  15.711  28.886   1.224  0.3364 -0.1217  0.0645
12477DDP     C374861  15.152  27.712   1.400  0.0553  0.1688 -0.0316
12477DDP     C474862  16.187  27.891   0.815  0.0796  0.0523  0.0270
12478DDP     C174863  22.700   3.262  11.013  0.1574 -0.0801 -0.2760
12478DDP     P174864  23.065   3.054  11.308  0.0926  0.0951  0.1498
12478DDP     P274865  22.356   3.113  11.168  0.0043 -0.2401 -0.3634
12478DDP     C274866  22.025   3.008  11.053 -0.1104  0.2143  0.3207
12478DDP     C374867  23.199   2.583  11.273  0.0474  0.1075  0.0924
12478DDP     C474868  22.580   3.695  10.965 -0.0649 -0.2348 -0.2526
12479DDP     C174869   4.871   2.075   0.821  0.2228  0.1800 -0.2354
12479DDP     P174870   5.128   1.801   1.040 -0.4192  0.3494  0.1583
12479DDP     P274871   4.847   2.192   0.364  0.1184  0.1392 -0.1640
12479DDP     C274872   5.025   2.609   0.250  0.1930 -0.0738  0.2101
12479DDP     C374873   5.546   1.923   1.319  0.0995 -0.2456 -0.3545
12479DDP     C474874   4.711   2.310   1.124  0.2461 -0.2546  0.0967
12480DDP     C174875   3.263  21.568  13.529 -0.2337 -0.0557 -0.2800
12480DDP     P174876   3.167  21.146  13.679  0.1985  0.1045  0.0463
12480DDP     P274877   3.293  21.664  13.129  0.1272 -0.1221  0.1147
12480DDP     C274878   3.360  22.051  12.707 -0.1037  0.2592  0.4255
12480DDP     C374879   3.028  20.852  14.009 -0.0034 -0.0660 -0.0359
12480DDP     C474880   3.403  21.792  13.899 -0.0119 -0.3326  0.0336
12481DDP     C174881  19.879   5.145   9.194 -0.2232  0.1222  0.2505
12481DDP     P174882  20.258   5.053   9.103  0.1904 -0.2505  0.0153
12481DDP     P274883  19.498   4.909   9.116  0.2229 -0.1163 -0.0861
12481DDP     C274884  19.339   4.781   8.714 -0.3373  0.2479 -0.2388
12481DDP     C374885  20.601   5.212   9.023 -0.1974 -0.1636  0.2059
12481DDP     C474886  19.852   5.491   9.442 -0.1560  0.1696 -0.2784
12482DDP     C174887   0.436  19.774   7.564  0.0385  0.1737 -0.1598
12482DDP     P174888   0.917  19.755   7.495  0.0670  0.0275 -0.0758
12482DDP     P274889   0.056  19.601   7.388 -0.0027 -0.0544 -0.2099
12482DDP     C274890  30.038  19.226   7.399  0.1453  0.1609  0.1027
12482DDP     C374891   1.356  19.943   7.554 -0.0007  0.0022 -0.1614
12482DDP     C474892   0.353  20.142   7.761  0.3678 -0.3211 -0.1147
12483DDP     C174893   1.170  25.749  11.794 -0.1362  0.4333 -0.2054
12483DDP     P174894   1.463  25.376  11.873 -0.0500 -0.2772 -0.0103
12483DDP     P274895   1.196  25.918  12.113 -0.1142 -0.1276  0.0964
12483DDP     C274896   1.082  26.252  12.463 -0.1073  0.0445 -0.0273
12483DDP     C374897   1.532  24.911  11.928  0.2164 -0.2998 -0.0034
12483DDP     C474898   0.887  25.669  11.531 -0.2734  0.2459 -0.2601
12484DDP     C174899  19.700  19.464  23.420 -0.1960 -0.1302 -0.3603
12484DDP     P174900  19.700  18.971  23.275  0.0294  0.1120 -0.0072
12484DDP     P274901  20.109  19.579  23.449  0.0857  0.1108 -0.4914
12484DDP     C274902  20.081  19.478  23.926  0.0048 -0.2255 -0.2736
12484DDP     C374903  19.457  18.651  23.084 -0.0386  0.0212 -0.0206
12484DDP     C474904  19.265  19.697  23.503  0.0308  0.1239  0.0576
12485DDP     C174905  14.924  18.601  17.958  0.4573  0.1713 -0.0535
12485DDP     P174906  14.720  18.209  18.101 -0.1179 -0.1013 -0.0562
12485DDP     P274907  14.665  18.758  18.218  0.2408 -0.2408 -0.0763
12485DDP     C274908  14.296  18.638  18.345  0.1678 -0.0457 -0.2398
12485DDP     C374909  14.914  17.854  18.033  0.4400  0.0025  0.1641
12485DDP     C474910  15.282  18.506  17.659  0.1147 -0.2094 -0.0781
12486DDP     C174911  24.479   5.176   7.089  0.0547 -0.5031 -0.0860
12486DDP     P174912  24.515   5.107   6.618 -0.3018  0.0055 -0.0900
12486DDP     P274913  24.102   4.927   7.155  0.3463 -0.2285 -0.0579
12486DDP     C274914  23.669   4.934   7.194 -0.0383 -0.0230 -0.2960
12486DDP     C374915  24.493   5.383   6.218  0.0895  0.0691 -0.3283
12486DDP     C474916  24.600   5.445   7.454 -0.0999  0.2559 -0.0456
12487DDP     C174917  14.424  16.429  25.511 -0.3241 -0.0317  0.0918
12487DDP     P174918  14.662  16.219  25.950 -0.0368  0.1000 -0.0493
12487DDP     P274919  14.066  16.702  25.656 -0.1585 -0.1933 -0.0651
12487DDP     C274920  13.706  16.768  25.824 -0.2283 -0.4023 -0.1688
12487DDP     C374921  14.594  16.249  26.378  0.1077  0.3722 -0.0958
12487DDP     C474922  14.297  16.078  25.137 -0.5369  0.1448 -0.1214
12488DDP     C174923   8.900  18.944  23.121  0.2713  0.0508 -0.2749
12488DDP     P174924   8.780  19.261  22.775 -0.2941 -0.0348 -0.2295
12488DDP     P274925   9.110  19.196  23.389  0.0574 -0.0046  0.0601
12488DDP     C274926   9.009  19.404  23.813  0.0983 -0.2898  0.0194
12488DDP     C374927   8.598  19.209  22.404 -0.1595 -0.0244  0.0401
12488DDP     C474928   8.715  18.475  23.029  0.0200 -0.0392  0.2443
12489DDP     C174929   3.293  16.023  28.164  0.2930 -0.0980 -0.0505
12489DDP     P174930   3.585  16.007  28.513 -0.2611 -0.0794  0.0697
12489DDP     P274931   3.365  16.320  27.810  0.2291  0.5398 -0.3600
12489DDP     C274932   3.244  16.731  27.632 -0.2069 -0.0495  0.1993
12489DDP     C374933   3.584  15.777  28.976 -0.2433  0.3042  0.2397
12489DDP     C474934   3.029  15.666  28.089 -0.1628  0.0915 -0.1504
12490DDP     C174935  28.905  17.860  23.723 -0.0326 -0.2361 -0.0926
12490DDP     P174936  28.649  17.868  23.389  0.0432 -0.1973  0.1578
12490DDP     P274937  29.277  18.203  23.642 -0.3493  0.0303  0.2396
12490DDP     C274938  29.469  18.638  23.719 -0.3340 -0.0470 -0.1520
12490DDP     C374939  28.320  17.666  23.079  0.0932  0.2817 -0.3090
12490DDP     C474940  28.839  17.561  24.039  0.1162  0.4379  0.1827
12491DDP     C174941  30.148  18.378  16.705  0.1157  0.1939  0.0636
12491DDP     P174942  -0.009  18.246  16.397 -0.0086 -0.2125  0.4071
12491DDP     P274943  29.962  18.710  16.766 -0.3425  0.2099  0.5052
12491DDP     C274944  29.953  19.097  17.002 -0.1598 -0.0172  0.0986
12491DDP     C374945   0.027  17.884  16.185 -0.0612 -0.1400 -0.2592
12491DDP     C474946  30.184  18.136  17.003  0.2107 -0.0536  0.0686
12492DDP     C174947  25.551  23.182  26.753  0.0617 -0.1011  0.2498
12492DDP     P174948  25.412  23.442  26.425  0.1273  0.3923  0.1452
12492DDP     P274949  25.158  22.977  26.857  0.0211  0.0119 -0.3247
12492DDP     C274950  24.758  23.086  26.990 -0.2877  0.3549 -0.0144
12492DDP     C374951  25.500  23.436  25.936  0.1057  0.1975 -0.0518
12492DDP     C474952  25.800  22.790  26.701 -0.0933  0.2828  0.3760
12493DDP     C174953  26.522  26.727   3.897  0.0746 -0.0637  0.1389
12493DDP     P174954  26.774  27.158   4.007 -0.1696 -0.0027  0.3470
12493DDP     P274955  26.739  26.332   4.005 -0.2977 -0.2062  0.0301
12493DDP     C274956  26.817  25.875   4.009 -0.0933  0.2201 -0.0291
12493DDP     C374957  27.058  27.283   4.207  0.1716  0.2323 -0.0626
12493DDP     C474958  26.145  26.649   3.656 -0.0743  0.3013 -0.2423
12494DDP     C174959  18.932   9.909  13.488  0.3789  0.0660  0.1385
12494DDP     P174960  19.130   9.953  13.944 -0.0273 -0.1845 -0.1866
12494DDP     P274961  18.744  10.305  13.262 -0.3886  0.0000  0.0796
12494DDP     C274962  18.966  10.585  13.120 -0.2408 -0.0681 -0.0639
12494DDP     C374963  19.010  10.182  14.376 -0.0805  0.0635 -0.2370
12494DDP     C474964  19.082   9.565  13.178  0.3061  0.0237 -0.1866
12495DDP     C174965  18.505  15.168   9.627 -0.2471 -0.1497  0.0683
12495DDP     P174966  18.784  15.590   9.752 -0.0442 -0.2037 -0.1650
12495DDP     P274967  18.314  15.027  10.001  0.2203  0.1624  0.0105
12495DDP     C274968  18.290  14.588  10.121 -0.1532  0.0070 -0.0866
12495DDP     C374969  19.158  15.928   9.985  0.1695  0.1666 -0.0578
12495DDP     C474970  18.753  14.789   9.301  0.1717  0.1209  0.2267
12496DDP     C174971  10.299  17.297  13.252 -0.1498  0.0005 -0.2274
12496DDP     P174972  10.656  17.041  13.074 -0.1180  0.0032 -0.2934
12496DDP     P274973  10.009  17.601  12.944  0.0138 -0.0320  0.0786
12496DDP     C274974  10.197  17.688  12.517  0.2032 -0.0118 -0.0631
12496DDP     C374975  10.944  16.809  12.776 -0.1643  0.3227 -0.1146
12496DDP     C474976  10.152  17.382  13.769 -0.3503  0.1331  0.0054
12497DDP     C174977   3.822  25.060  25.625 -0.1676  0.3209 -0.0581
12497DDP     P174978   3.884  24.914  26.121  0.0896  0.1256  0.2335
12497DDP     P274979   3.495  24.939  25.318 -0.0846  0.1805 -0.1049
12497DDP     C274980   3.498  25.261  24.987  0.0867 -0.0223 -0.1480
12497DDP     C374981   4.140  24.657  26.250  0.1810  0.1627 -0.0549
12497DDP     C474982   4.106  25.307  25.474  0.0516  0.1066  0.0809
12498DDP     C174983  18.657   6.873  16.318 -0.0278  0.1477  0.1766
12498DDP     P174984  18.308   6.949  16.178  0.4655  0.1905 -0.1316
12498DDP     P274985  18.583   6.456  16.294  0.1267 -0.1596 -0.0558
12498DDP     C274986  18.619   6.120  15.985 -0.2625 -0.0297 -0.0175
12498DDP     C374987  17.996   6.694  16.030 -0.0984  0.2620 -0.0561
12498DDP     C474988  19.019   7.187  16.563 -0.0371  0.1139  0.1804
12499DDP     C174989   4.678   3.209  17.925  0.3485  0.2162  0.0062
12499DDP     P174990   4.746   3.156  17.482  0.0420  0.3262  0.1167
12499DDP     P274991   4.459   3.428  18.155  0.1241  0.0457 -0.1992
12499DDP     C274992   4.588   3.469  18.612  0.2336 -0.0839 -0.3223
12499DDP     C374993   4.699   3.207  16.973 -0.0050  0.0262 -0.3525
12499DDP     C474994   4.963   2.871  18.125  0.0719 -0.2906  0.0646
12500DDP     C174995  26.123   3.670  17.140  0.0313 -0.0032  0.1600
12500DDP     P174996  25.729   3.852  17.276  0.0531  0.0067 -0.1724
12500DDP     P274997  26.478   3.922  17.166  0.1964 -0.3496  0.1079
12500DDP     C274998  26.675   4.149  16.988 -0.0537 -0.3771 -0.0006
12500DDP     C374999  25.317   3.919  17.179  0.0143  0.4405  0.1359
12500DDP     C475000  26.178   3.252  16.974  0.1443  0.0086 -0.0410
12501DDP     C175001  19.670   0.375  20.619 -0.2195 -0.1920  0.2369
12501DDP     P175002  19.346   0.554  20.487  0.2539 -0.1876 -0.2742
12501DDP     P275003  19.828  30.245  20.398 -0.1609  0.1156 -0.0725
12501DDP     C275004  20.012  29.868  20.332 -0.0525  0.0307 -0.2051
12501DDP     C375005  18.951   0.436  20.217 -0.2800  0.0874 -0.0756
12501DDP     C475006  20.043   0.547  20.944  0.2176  0.1905 -0.0952
12502DDP     C175007   7.642   9.824   5.671 -0.2208  0.1107  0.1002
12502DDP     P175008   7.842   9.733   5.332 -0.1431  0.1664 -0.0879
12502DDP     P275009   7.837   9.819   6.068  0.2457 -0.0998  0.0471
12502DDP     C275010   7.855   9.832   6.555  0.0824 -0.0250  0.1992
12502DDP     C375011   8.258   9.795   5.167 -0.0638 -0.1542 -0.0118
12502DDP     C475012   7.173   9.889   5.679 -0.0282  0.1125  0.1226
12503DDP     C175013  15.579  24.911  13.763  0.2603 -0.1322  0.2092
12503DDP     P175014  15.962  24.967  14.047 -0.1976 -0.2358  0.1072
12503DDP     P275015  15.132  24.867  13.883  0.4374  0.1470 -0.1337
12503DDP     C275016  14.687  24.791  13.803  0.2868 -0.0571  0.3989
12503DDP     C375017  16.386  25.256  13.953  0.2043  0.3516  0.4348
12503DDP     C475018  15.683  24.890  13.360 -0.2477 -0.0947 -0.0366
12504DDP     C175019  26.249  28.972  17.416  0.1188 -0.1582  0.0915
12504DDP     P175020  26.556  28.660  17.409  0.1854  0.0951  0.0501
12504DDP     P275021  26.025  28.892  17.813  0.3039  0.0325  0.0434
12504DDP     C275022  25.795  28.909  18.150 -0.0371  0.0147 -0.3011
12504DDP     C375023  26.837  28.502  17.519  0.0810  0.0197 -0.3233
12504DDP     C475024  26.427  29.311  17.244 -0.0311  0.2434 -0.0664
12505DDP     C175025   3.839   9.588   1.434 -0.1728 -0.0081 -0.1326
12505DDP     P175026   4.037   9.839   1.591  0.1221  0.2361 -0.0298
12505DDP     P275027   4.267   9.589   1.165  0.1782  0.1556 -0.1236
12505DDP     C275028   4.594   9.690   0.905 -0.3715 -0.1663 -0.1590
12505DDP     C375029   4.425  10.076   1.807 -0.0238  0.0864  0.2216
12505DDP     C475030   3.487   9.259   1.277  0.0151 -0.0328 -0.0738
12506DDP     C175031  23.558  13.197   8.232  0.3778 -0.2155 -0.0800
12506DDP     P175032  23.615  13.191   7.839  0.0370 -0.0922 -0.1804
12506DDP     P275033  23.352  13.583   8.275 -0.3270  0.2752 -0.1800
12506DDP     C275034  23.185  13.742   8.652 -0.1458  0.1418  0.0737
12506DDP     C375035  23.483  13.423   7.487  0.2342 -0.5213 -0.2670
12506DDP     C475036  23.642  12.863   8.568  0.1110  0.3244  0.1718
12507DDP     C175037  18.553  28.582  13.266  0.0303 -0.1324  0.1520
12507DDP     P175038  18.972  28.799  13.278  0.2898  0.0549  0.2272
12507DDP     P275039  18.562  28.281  13.612  0.1134 -0.3131 -0.2638
12507DDP     C275040  18.382  28.176  14.077  0.0172 -0.0460  0.1861
12507DDP     C375041  19.273  29.254  13.380 -0.2847 -0.2629  0.0569
12507DDP     C475042  18.305  28.661  12.866 -0.1579 -0.1023  0.2185
12508DDP     C175043  25.504  11.658  26.028  0.2587 -0.1048 -0.0505
12508DDP     P175044  25.859  11.837  26.263  0.0663  0.1397  0.0663
12508DDP     P275045  25.130  11.790  26.097 -0.1077 -0.1436 -0.2183
12508DDP     C275046  24.732  11.885  25.899  0.1805  0.1787  0.0701
12508DDP     C375047  26.164  11.602  26.577  0.2356 -0.0928 -0.0048
12508DDP     C475048  25.564  11.333  25.679  0.0329  0.3809 -0.0295
12509DDP     C175049  24.104  29.707  22.071 -0.2523 -0.0348  0.0973
12509DDP     P175050  23.853  30.032  21.698 -0.1230 -0.2044 -0.0226
12509DDP     P275051  24.409  29.917  22.378  0.1401  0.0123  0.0623
12509DDP     C275052  24.869  29.909  22.239 -0.0654  0.3705  0.2862
12509DDP     C375053  23.795   0.162  21.610 -0.0404 -0.1305  0.0942
12509DDP     C475054  23.882  29.360  22.182 -0.0224  0.0347  0.1802
12510DDP     C175055  29.760  21.133   9.171  0.0484  0.0445  0.1061
12510DDP     P175056  29.559  20.770   9.356 -0.0130 -0.2331  0.1748
12510DDP     P275057  29.441  21.355   8.992  0.1621 -0.1978 -0.4192
12510DDP     C275058  29.014  21.439   8.913  0.2014 -0.0481  0.2635
12510DDP     C375059  29.621  20.338   9.565 -0.1634 -0.1073 -0.1174
12510DDP     C475060  30.134  21.043   8.864 -0.0272 -0.2555 -0.2432
12511DDP     C175061  23.972  28.698  19.362  0.0144  0.3052  0.0847
12511DDP     P175062  24.323  29.017  19.299  0.1615  0.1861  0.1224
12511DDP     P275063  24.242  28.348  19.516  0.0391  0.2077  0.4558
12511DDP     C275064  24.491  28.158  19.832 -0.0490  0.0853  0.2109
12511DDP     C375065  24.688  29.129  19.364 -0.0550 -0.0712 -0.0925
12511DDP     C475066  23.526  28.598  19.378  0.2256  0.0336 -0.2589
12512DDP     C175067  14.434   2.216  16.816 -0.0121 -0.1048  0.0964
12512DDP     P175068  14.514   1.835  16.704  0.1049 -0.1122 -0.2354
12512DDP     P275069  14.654   2.514  16.650  0.1338  0.0766  0.2037
12512DDP     C275070  15.173   2.598  16.766  0.0941 -0.2189  0.0105
12512DDP     C375071  14.765   1.470  16.633  0.1230 -0.2552  0.0043
12512DDP     C475072  13.962   2.308  17.058 -0.1183  0.0518 -0.4531
12513DDP     C175073   4.946  20.091   3.744 -0.0458 -0.1910  0.3320
12513DDP     P175074   4.510  19.978   3.709 -0.3002  0.2681 -0.0198
12513DDP     P275075   5.096  20.217   4.225 -0.2329 -0.0451  0.4149
12513DDP     C275076   5.448  20.260   4.577 -0.0162 -0.0966 -0.0136
12513DDP     C375077   4.201  20.310   3.767  0.2661 -0.3062  0.2937
12513DDP     C475078   5.074  20.200   3.438  0.1092 -0.2472  0.2725
12514DDP     C175079  25.106  19.144   6.843  0.0134  0.2327 -0.2981
12514DDP     P175080  24.975  18.672   7.000 -0.1303 -0.2798 -0.0525
12514DDP     P275081  24.869  19.571   6.900 -0.2199 -0.1939 -0.4851
12514DDP     C275082  24.765  19.890   7.245  0.3496  0.0344  0.3704
12514DDP     C375083  25.147  18.236   7.082  0.3597  0.2088  0.2058
12514DDP     C475084  25.481  19.301   6.982 -0.0114 -0.3286  0.3040
12515DDP     C175085  18.774   2.586  13.373  0.1946 -0.0174  0.4305
12515DDP     P175086  18.534   2.354  13.752  0.0724  0.1805  0.2530
12515DDP     P275087  19.147   2.348  13.386  0.1541 -0.1758 -0.1971
12515DDP     C275088  19.596   2.423  13.314 -0.0680 -0.0846 -0.2095
12515DDP     C375089  18.451   2.134  14.126  0.0788 -0.1310 -0.0926
12515DDP     C475090  18.959   3.048  13.334  0.1119 -0.0766  0.3630
12516DDP     C175091  17.346  17.141  26.394  0.2071  0.2992  0.0428
12516DDP     P175092  17.477  17.399  25.965 -0.1848 -0.0756 -0.1654
12516DDP     P275093  17.548  17.140  26.699 -0.2583 -0.5194  0.0079
12516DDP     C275094  17.729  17.200  27.073 -0.1771 -0.2197  0.3746
12516DDP     C375095  17.530  17.809  25.692  0.2411 -0.0563  0.1755
12516DDP     C475096  16.981  16.847  26.434  0.3768  0.0537 -0.0958
12517DDP     C175097  15.938  27.244  18.411 -0.1485  0.2324 -0.1831
12517DDP     P175098  16.421  27.138  18.477 -0.1166 -0.3296  0.0031
12517DDP     P275099  16.140  27.556  18.729  0.0780 -0.1709  0.1969
12517DDP     C275100  16.375  27.915  18.874  0.0359  0.3557  0.0971
12517DDP     C375101  16.527  27.210  18.860  0.0018 -0.3729 -0.1654
12517DDP     C475102  15.485  27.133  18.311  0.0742 -0.1070 -0.2241
12518DDP     C175103  26.218  29.110  15.636  0.0586 -0.0880  0.0651
12518DDP     P175104  26.157  29.611  15.771  0.3153  0.2458 -0.1394
12518DDP     P275105  26.265  28.649  15.801  0.0707  0.0612 -0.4089
12518DDP     C275106  25.934  28.244  15.828 -0.1495 -0.0708 -0.2361
12518DDP     C375107  25.768  29.876  15.939 -0.0470 -0.0863  0.3031
12518DDP     C475108  26.423  29.071  15.212  0.4480 -0.5846  0.2066
12519DDP     C175109  23.603  28.171  29.987  0.0717 -0.0085 -0.0809
12519DDP     P175110  23.253  28.230  29.852  0.1582  0.0027  0.0666
12519DDP     P275111  23.812  27.741  30.040 -0.3036 -0.5170  0.0793
12519DDP     C275112  23.733  27.399  30.020 -0.1509  0.2849 -0.0237
12519DDP     C375113  22.980  28.547  29.770 -0.2139  0.4740  0.0293
12519DDP     C475114  23.893  28.436  29.964  0.0408  0.2591 -0.3976
12520DDP     C175115   3.013  17.001  20.001 -0.0271 -0.0336 -0.4017
12520DDP     P175116   2.915  16.816  19.654  0.0082 -0.2436  0.0746
12520DDP     P275117   2.936  17.355  20.296  0.1570  0.2327 -0.1627
12520DDP     C275118   3.190  17.585  20.719  0.3115 -0.0816  0.0584
12520DDP     C375119   2.549  16.843  19.503  0.0138  0.1377  0.0014
12520DDP     C475120   3.456  16.831  20.033  0.0103 -0.4250 -0.2570
12521DDP     C175121  23.621   5.648  10.866 -0.0965  0.0236  0.0060
12521DDP     P175122  23.714   5.415  10.468 -0.0996  0.3240  0.1173
12521DDP     P275123  23.430   5.971  10.615 -0.2579  0.0964  0.0763
12521DDP     C275124  23.334   5.943  10.227  0.0830  0.0217  0.3060
12521DDP     C375125  23.667   5.005  10.199 -0.1566 -0.2228  0.1136
12521DDP     C475126  23.714   5.775  11.318 -0.2200 -0.0582  0.3258
12522DDP     C175127  23.957  18.869  29.383  0.1602  0.1297  0.0674
12522DDP     P175128  24.004  19.255  29.183  0.2891  0.0999 -0.2408
12522DDP     P275129  23.580  18.647  29.375 -0.1126 -0.0904  0.2837
12522DDP     C275130  23.184  18.449  29.269 -0.3174  0.1143  0.2408
12522DDP     C375131  23.732  19.684  29.254 -0.0034  0.0353  0.1451
12522DDP     C475132  24.256  18.584  29.593  0.1162  0.0732 -0.1498
12523DDP     C175133  28.810  21.445  29.146 -0.2464 -0.1787 -0.3903
12523DDP     P175134  28.779  21.873  29.015  0.1445 -0.0321 -0.2222
12523DDP     P275135  29.276  21.213  29.358 -0.2338 -0.2853 -0.1353
12523DDP     C275136  29.171  20.828  29.598 -0.0976 -0.0222  0.0462
12523DDP     C375137  28.825  22.000  28.562 -0.0347  0.1925 -0.0171
12523DDP     C475138  28.462  21.170  28.944  0.1351 -0.0359  0.3596
12524DDP     C175139   4.418  27.985   3.029 -0.0307 -0.0532 -0.0915
12524DDP     P175140   4.865  27.998   2.825  0.3082 -0.0547 -0.0280
12524DDP     P275141   4.373  27.508   3.091  0.1349 -0.1054  0.1222
12524DDP     C275142   4.640  27.133   3.186 -0.1643 -0.0522 -0.0111
12524DDP     C375143   5.258  28.011   2.700 -0.2841 -0.0196  0.0250
12524DDP     C475144   4.150  28.439   3.163  0.0931 -0.4252  0.0236
12525DDP     C175145  10.614  10.748   7.211  0.3386 -0.0362 -0.0926
12525DDP     P175146  10.800  10.423   7.472 -0.3194  0.0007 -0.1874
12525DDP     P275147  10.493  10.651   6.898 -0.0639 -0.1558  0.0878
12525DDP     C275148  10.218  10.777   6.534  0.1068 -0.1463  0.1539
12525DDP     C375149  10.821  10.438   7.916 -0.2325  0.1362 -0.0984
12525DDP     C475150  10.370  11.082   7.494 -0.0192 -0.2113  0.0971
12526DDP     C175151  10.111  18.192   4.429 -0.2524 -0.3674 -0.2806
12526DDP     P175152  10.531  18.319   4.346  0.1460  0.0703 -0.1737
12526DDP     P275153   9.771  18.366   4.694  0.0539  0.3020  0.1812
12526DDP     C275154   9.514  18.728   4.711  0.1338 -0.2226  0.2885
12526DDP     C375155  10.680  18.684   4.289 -0.1362  0.0611  0.1766
12526DDP     C475156  10.122  17.744   4.282  0.0611  0.1726  0.0872
12527DDP     C175157  11.471  24.110   5.951 -0.0362  0.0184  0.0089
12527DDP     P175158  11.366  24.430   5.615 -0.2207  0.1154  0.3985
12527DDP     P275159  11.908  24.105   6.173 -0.0087 -0.1534 -0.2105
12527DDP     C275160  11.989  24.351   6.537 -0.0756 -0.3430  0.2155
12527DDP     C375161  11.143  24.284   5.273  0.6502 -0.2281 -0.0762
12527DDP     C475162  11.047  23.978   6.040  0.2414  0.1733  0.2681
12528DDP     C175163  24.176  15.747  12.266  0.0539 -0.1007 -0.0269
12528DDP     P175164  24.024  15.852  11.822 -0.1802  0.2297 -0.0623
12528DDP     P275165  23.999  15.684  12.667  0.5593 -0.0624 -0.1192
12528DDP     C275166  23.807  15.306  12.921 -0.2074 -0.2937  0.2039
12528DDP     C375167  23.886  16.081  11.547  0.1183  0.0087 -0.0324
12528DDP     C475168  24.540  15.890  12.223  0.0588  0.2098  0.2186
12529DDP     C175169  15.052   9.712  30.008 -0.2754  0.0966  0.0697
12529DDP     P175170  14.841  10.046  29.759  0.0269  0.0763 -0.2625
12529DDP     P275171  15.072   9.844   0.044  0.0688  0.1140  0.0840
12529DDP     C275172  15.207   9.599   0.336 -0.0006  0.0021 -0.1154
12529DDP     C375173  14.404  10.439  29.702 -0.4509  0.0223 -0.2868
12529DDP     C475174  14.939   9.364  29.857  0.3279 -0.3502  0.4756
12530DDP     C175175  24.264  29.041  29.253 -0.0724  0.0202 -0.1988
12530DDP     P175176  24.609  28.998  28.892  0.4846  0.1340 -0.0735
12530DDP     P275177  24.305  29.440  29.432 -0.0279  0.3390 -0.1682
12530DDP     C275178  24.240  29.881  29.502  0.2755 -0.0600 -0.2588
12530DDP     C375179  25.022  28.970  28.926 -0.3615 -0.1038 -0.0677
12530DDP     C475180  23.925  28.883  29.395  0.2061 -0.2744 -0.0866
12531DDP     C175181  18.249  24.419  14.206  0.1616 -0.1779 -0.1951
12531DDP     P175182  18.479  24.069  14.340 -0.1551  0.0685  0.0867
12531DDP     P275183  18.071  24.444  14.590  0.2645 -0.2066 -0.2877
12531DDP     C275184  18.306  24.735  15.012  0.0050 -0.0556 -0.0655
12531DDP     C375185  18.701  23.636  14.286 -0.0967  0.1832 -0.0661
12531DDP     C475186  18.127  24.684  13.831  0.0971  0.0153 -0.0593
12532DDP     C175187  19.347  29.764  25.527  0.0888 -0.1297  0.0050
12532DDP     P175188  19.701  29.561  25.532 -0.2777  0.1013 -0.1515
12532DDP     P275189  19.186  29.788  25.851 -0.1132 -0.3526  0.0492
12532DDP     C275190  19.083  29.602  26.291  0.0033  0.1030  0.1868
12532DDP     C375191  20.102  29.393  25.364 -0.0322  0.1679 -0.2741
12532DDP     C475192  19.099  30.112  25.218  0.0240 -0.2061  0.0140
12533DDP     C175193   5.700  25.977   8.750  0.0045 -0.2740  0.1793
12533DDP     P175194   5.658  25.862   9.167  0.1125 -0.0068  0.6203
12533DDP     P275195   6.099  26.066   8.578 -0.2566 -0.0085  0.1009
12533DDP     C275196   6.584  26.072   8.537  0.0798 -0.1598 -0.0175
12533DDP     C375197   5.734  25.815   9.579 -0.2457  0.0108  0.3576
12533DDP     C475198   5.303  26.105   8.387 -0.1437 -0.2408 -0.1299
12534DDP     C175199  11.456  19.978  18.699 -0.1147  0.0446 -0.2199
12534DDP     P175200  11.436  19.973  18.311  0.2210 -0.0600  0.1384
12534DDP     P275201  11.544  20.473  18.731 -0.2948 -0.2580  0.2135
12534DDP     C275202  11.772  20.757  19.072  0.2026 -0.0576 -0.4466
12534DDP     C375203  11.326  19.844  17.906  0.0030  0.0824  0.1734
12534DDP     C475204  11.105  19.698  18.763 -0.0886  0.1100 -0.1535
12535DDP     C175205   9.384  15.278  10.870 -0.0067 -0.0197 -0.1225
12535DDP     P175206   9.138  15.522  10.487 -0.1138  0.2365 -0.0862
12535DDP     P275207   9.386  14.917  10.994  0.2086  0.2364  0.0405
12535DDP     C275208   9.790  14.685  11.086  0.3002  0.2128 -0.0801
12535DDP     C375209   9.303  15.869  10.399  0.1629 -0.2753  0.0302
12535DDP     C475210   9.581  15.543  11.170  0.0830  0.0523  0.1401
12536DDP     C175211  18.793  17.221  29.926 -0.0912 -0.1751 -0.0749
12536DDP     P175212  18.667  17.148   0.052  0.0378  0.0350  0.2868
12536DDP     P275213  19.082  17.138  29.685 -0.0726  0.0384  0.0176
12536DDP     C275214  19.316  16.942  29.426 -0.1849  0.0397  0.2528
12536DDP     C375215  18.467  16.955   0.352  0.3508 -0.1557  0.1274
12536DDP     C475216  18.537  17.490  29.701 -0.0494  0.3023 -0.0894
12537DDP     C175217   3.315  25.820  28.478 -0.0154  0.3383  0.0256
12537DDP     P175218   3.723  26.027  28.275 -0.1681  0.1395 -0.2516
12537DDP     P275219   3.186  26.131  28.791 -0.1944 -0.0030 -0.1454
12537DDP     C275220   2.965  26.370  29.096  0.1633  0.5316 -0.1021
12537DDP     C375221   4.159  26.261  28.234  0.0067  0.2108 -0.3373
12537DDP     C475222   3.120  25.334  28.298  0.0120 -0.1914 -0.1833
12538DDP     C175223   3.860   1.951  28.392 -0.0626  0.2832  0.0366
12538DDP     P175224   3.592   1.517  28.210  0.1051  0.2090 -0.1308
12538DDP     P275225   3.584   2.287  28.582  0.2840  0.0036 -0.0276
12538DDP     C275226   3.555   2.758  28.497  0.2262  0.0468 -0.1623
12538DDP     C375227   3.523   1.120  28.364 -0.0805  0.2589 -0.0205
12538DDP     C475228   4.268   1.800  28.349 -0.3396  0.0371 -0.2517
12539DDP     C175229  24.701  29.574   9.892 -0.0249  0.3064  0.2995
12539DDP     P175230  24.589  29.026   9.822  0.0966 -0.4015  0.0123
12539DDP     P275231  24.496  30.016   9.964 -0.2327 -0.3711 -0.1345
12539DDP     C275232  24.669   0.091   9.908  0.1914  0.1052 -0.3418
12539DDP     C375233  24.991  28.808   9.925 -0.0921 -0.3270 -0.1474
12539DDP     C475234  25.057  29.590  10.032  0.3413  0.1870 -0.2040
12540DDP     C175235   1.828  13.686  29.270 -0.2343 -0.1633 -0.1290
12540DDP     P175236   2.108  13.468  29.355 -0.0433  0.1092  0.0674
12540DDP     P275237   2.065  14.017  29.294 -0.0626 -0.3627  0.2031
12540DDP     C275238   2.189  14.327  29.016 -0.0450  0.2162  0.0977
12540DDP     C375239   2.347  13.130  29.316 -0.0816  0.0941 -0.0453
12540DDP     C475240   1.402  13.748  29.000  0.1097 -0.2205 -0.1871
12541DDP     C175241   4.961  21.423  19.630 -0.1482  0.0568 -0.3527
12541DDP     P175242   5.441  21.458  19.623 -0.1423  0.0050  0.2136
12541DDP     P275243   4.751  21.074  19.722  0.0100 -0.3514  0.3033
12541DDP     C275244   4.348  20.761  19.893 -0.1248 -0.0090  0.2975
12541DDP     C375245   5.774  21.350  19.360 -0.5110 -0.0760  0.4827
12541DDP     C475246   4.689  21.834  19.665 -0.0203 -0.1990  0.0702
12542DDP     C175247   8.894   2.333  15.974  0.0482 -0.1244 -0.0075
12542DDP     P175248   9.218   2.006  16.112 -0.0945 -0.1517  0.3065
12542DDP     P275249   8.469   2.496  16.206  0.0112 -0.0106  0.1948
12542DDP     C275250   8.193   2.262  16.533 -0.2854 -0.0405  0.2722
12542DDP     C375251   9.149   1.665  15.908  0.1164  0.1154 -0.5091
12542DDP     C475252   8.998   2.563  15.639 -0.2764 -0.1274 -0.0410
12543DDP     C175253  17.597  11.150  23.167 -0.0529  0.0314  0.3245
12543DDP     P175254  17.249  11.208  23.508  0.5331 -0.3675 -0.2716
12543DDP     P275255  17.567  11.612  23.013 -0.0234  0.1593  0.0650
12543DDP     C275256  17.939  11.720  22.725 -0.0113  0.0414  0.0088
12543DDP     C375257  16.938  11.333  23.729  0.1377  0.0220 -0.2773
12543DDP     C475258  18.077  10.799  23.008 -0.0353  0.3087  0.1978
12544DDP     C175259  27.234  19.518  29.111 -0.0729  0.3577  0.5917
12544DDP     P175260  27.491  19.818  29.222 -0.1104 -0.0389  0.1853
12544DDP     P275261  26.800  19.635  29.060 -0.1717 -0.2306 -0.2286
12544DDP     C275262  26.533  19.302  28.992  0.0115 -0.2360  0.0877
12544DDP     C375263  27.877  19.800  29.213 -0.0496 -0.0224  0.2163
12544DDP     C475264  27.383  19.147  28.959 -0.2024 -0.0530 -0.2583
12545DDP     C175265  12.169  23.834  27.591  0.1789 -0.0873  0.3001
12545DDP     P175266  12.460  24.029  27.855 -0.1485  0.3408 -0.0501
12545DDP     P275267  11.841  23.463  27.744  0.1437 -0.1862 -0.0986
12545DDP     C275268  11.809  23.074  27.766  0.0745 -0.1490  0.0808
12545DDP     C375269  12.684  24.222  28.204  0.1975 -0.0460  0.1205
12545DDP     C475270  12.114  24.063  27.150  0.3053 -0.4276 -0.0138
12546DDP     C175271  12.885  30.003  15.970  0.2129 -0.0743  0.0144
12546DDP     P175272  13.238  29.874  15.662  0.0424 -0.0287  0.0686
12546DDP     P275273  12.577  29.717  16.004 -0.0374  0.0007 -0.0321
12546DDP     C275274  12.183  29.931  16.022 -0.1795 -0.3467 -0.0886
12546DDP     C375275  13.424  29.660  15.392 -0.1854 -0.0070  0.0522
12546DDP     C475276  12.893   0.153  15.908 -0.3241 -0.1465 -0.1246
12547DDP     C175277  10.564  13.511   5.585 -0.0387 -0.2779  0.0570
12547DDP     P175278  10.283  13.873   5.613  0.1206 -0.1785 -0.1498
12547DDP     P275279  10.901  13.560   5.272 -0.1665 -0.1578  0.1008
12547DDP     C275280  11.028  13.731   4.829  0.0163 -0.1009 -0.0707
12547DDP     C375281  10.177  14.341   5.644  0.0255 -0.0839  0.0364
12547DDP     C475282  10.812  13.418   5.938  0.0788  0.3378 -0.0442
12548DDP     C175283  28.562  18.456  23.391  0.3391 -0.0040 -0.0909
12548DDP     P175284  28.656  18.309  23.759 -0.3333 -0.0743 -0.0044
12548DDP     P275285  28.497  18.266  23.033  0.2688 -0.0308 -0.0147
12548DDP     C275286  28.662  17.986  22.779 -0.0330 -0.1635  0.0858
12548DDP     C375287  28.716  18.114  24.139 -0.0377  0.0279 -0.4130
12548DDP     C475288  28.585  18.859  23.402  0.0077 -0.2110  0.0748
12549DDP     C175289   9.921  15.696  18.913  0.0147  0.0180 -0.4004
12549DDP     P175290   9.799  16.059  19.279  0.2033 -0.1274 -0.0329
12549DDP     P275291   9.568  15.556  18.642 -0.0311  0.0110 -0.2673
12549DDP     C275292   9.354  15.147  18.597  0.0603  0.2587  0.1364
12549DDP     C375293   9.689  16.352  19.635  0.1744  0.4326  0.3779
12549DDP     C475294  10.331  15.761  18.754  0.2469 -0.2185 -0.3968
12550DDP     C175295  17.715  16.111  28.048 -0.1506 -0.0669 -0.0100
12550DDP     P175296  17.735  16.262  27.557  0.1129  0.0494  0.1497
12550DDP     P275297  17.189  16.143  28.198 -0.0165 -0.1940  0.1383
12550DDP     C275298  16.735  16.029  28.315 -0.0848 -0.1634  0.1090
12550DDP     C375299  17.499  16.636  27.324 -0.1002  0.2396 -0.1080
12550DDP     C475300  18.064  16.112  28.372 -0.2271 -0.2404  0.0368
12551DDP     C175301  16.309  18.754  15.173 -0.0016  0.1554  0.0526
12551DDP     P175302  16.429  18.904  14.799 -0.3095  0.2282 -0.0797
12551DDP     P275303  16.551  18.536  15.563  0.0799 -0.1970  0.0637
12551DDP     C275304  16.958  18.658  15.734  0.1876  0.0195 -0.0542
12551DDP     C375305  16.424  18.750  14.281 -0.1604  0.1916  0.0186
12551DDP     C475306  15.916  18.734  15.099 -0.1137 -0.1309  0.2288
12552DDP     C175307  18.564   0.208  19.971  0.3140  0.0338 -0.0843
12552DDP     P175308  18.241   0.097  19.701  0.1548 -0.2336  0.6677
12552DDP     P275309  18.917  -0.012  19.953  0.1206 -0.6002 -0.1022
12552DDP     C275310  19.330   0.307  19.847 -0.1024  0.1110 -0.3244
12552DDP     C375311  17.935  30.143  19.418  0.2000  0.1298  0.2152
12552DDP     C475312  18.510   0.547  20.397 -0.1267  0.1970 -0.1782
12553DDP     C175313  10.529  19.865   8.897 -0.0226 -0.2581 -0.0518
12553DDP     P175314  10.342  19.707   9.282  0.1401  0.0585 -0.1874
12553DDP     P275315  10.827  19.707   8.802 -0.1245  0.1997 -0.0325
12553DDP     C275316  10.969  19.399   8.796  0.0983  0.0444  0.2339
12553DDP     C375317  10.449  19.673   9.733 -0.1202  0.0591  0.0833
12553DDP     C475318  10.415  20.249   8.673  0.5267  0.1102  0.0629
12554DDP     C175319  26.872  11.726  16.527  0.1811 -0.1684 -0.0503
12554DDP     P175320  27.177  11.784  16.855 -0.1383 -0.2507 -0.0629
12554DDP     P275321  27.002  11.959  16.203 -0.0035 -0.1173  0.0087
12554DDP     C275322  27.306  11.812  15.816 -0.2842 -0.2215  0.1260
12554DDP     C375323  27.327  12.175  17.097  0.0154  0.0580 -0.2580
12554DDP     C475324  26.432  11.673  16.565 -0.1517 -0.3330  0.3533
12555DDP     C175325  18.442   4.395  19.378 -0.1788 -0.3693 -0.1203
12555DDP     P175326  17.996   4.424  19.321 -0.1043  0.0741  0.1795
12555DDP     P275327  18.640   4.701  19.038 -0.1184 -0.1788  0.0118
12555DDP     C275328  18.499   5.088  18.862  0.0537 -0.1763 -0.0087
12555DDP     C375329  17.765   4.639  19.064  0.0381  0.3318 -0.0394
12555DDP     C475330  18.740   4.311  19.728 -0.0895 -0.4152  0.0454
12556DDP     C175331  12.897  21.778  13.598 -0.1267  0.0200 -0.2054
12556DDP     P175332  12.464  21.683  13.439 -0.0910  0.1295 -0.1940
12556DDP     P275333  12.977  22.057  13.975  0.1348  0.2383 -0.1596
12556DDP     C275334  13.219  22.170  14.307 -0.0405 -0.0639  0.1587
12556DDP     C375335  12.010  21.834  13.269  0.2479 -0.1021  0.1231
12556DDP     C475336  13.258  21.609  13.368 -0.2062 -0.1953 -0.0254
12557DDP     C175337  10.688  29.304   3.378 -0.1190 -0.0946 -0.3312
12557DDP     P175338  10.896  29.435   3.019  0.0428  0.0605 -0.2943
12557DDP     P275339  10.223  29.333   3.472 -0.1045 -0.0345  0.0129
12557DDP     C275340   9.894  29.295   3.261  0.0786 -0.0517 -0.2462
12557DDP     C375341  10.653  29.635   2.723  0.1043 -0.2160 -0.0632
12557DDP     C475342  10.958  29.243   3.765 -0.0369 -0.1788  0.1515
12558DDP     C175343  24.315  16.517  24.780 -0.2486  0.0171  0.0423
12558DDP     P175344  23.995  16.434  24.945 -0.0356  0.1689 -0.1190
12558DDP     P275345  24.413  16.832  24.385 -0.0623 -0.1604 -0.2179
12558DDP     C275346  24.118  17.215  24.328 -0.4281  0.2397 -0.0292
12558DDP     C375347  23.714  16.172  25.134  0.2098 -0.2509 -0.1110
12558DDP     C475348  24.585  16.337  25.007  0.0061  0.0689  0.0912
12559DDP     C175349  15.584  14.778  20.253 -0.1418 -0.2257 -0.2493
12559DDP     P175350  15.787  15.182  20.499 -0.1999 -0.2883 -0.2004
12559DDP     P275351  15.282  14.650  20.511  0.1621 -0.2816  0.1206
12559DDP     C275352  14.845  14.575  20.611 -0.0045  0.2185  0.1121
12559DDP     C375353  15.621  15.500  20.778  0.1435  0.1369  0.1058
12559DDP     C475354  15.557  14.917  19.793 -0.0029  0.2132 -0.1070
12560DDP     C175355  14.728   6.495  30.251  0.0158  0.3909  0.2468
12560DDP     P175356  14.448   6.406   0.352 -0.1784 -0.0851 -0.4145
12560DDP     P275357  14.937   6.190  30.040  0.1706 -0.1236 -0.0088
12560DDP     C275358  14.952   5.814  30.179 -0.1053  0.0337 -0.4998
12560DDP     C375359  14.260   6.446   0.799  0.2365  0.1125  0.0581
12560DDP     C475360  14.339   6.724  30.047  0.0490 -0.2199 -0.1447
12561DDP     C175361  26.723  20.933  28.823 -0.0901 -0.1400  0.3524
12561DDP     P175362  26.531  21.014  29.167 -0.0207  0.0420 -0.0733
12561DDP     P275363  26.370  20.801  28.641  0.0660  0.0068  0.0146
12561DDP     C275364  25.927  20.631  28.631 -0.0469  0.1862  0.0999
12561DDP     C375365  26.558  21.219  29.521  0.1207 -0.4969 -0.0223
12561DDP     C475366  27.161  20.931  28.605 -0.2134  0.0498  0.1208
12562DDP     C175367  13.460   3.015   1.366  0.2507 -0.0165  0.0378
12562DDP     P175368  13.876   2.902   1.213 -0.2131 -0.4898  0.2048
12562DDP     P275369  13.288   3.448   1.376 -0.1147  0.1632 -0.1929
12562DDP     C275370  13.167   3.777   1.047 -0.0303  0.0340  0.2547
12562DDP     C375371  14.159   2.654   1.264  0.1927 -0.1708 -0.0298
12562DDP     C475372  13.230   2.723   1.718  0.0397  0.0811 -0.3248
12563DDP     C175373   6.624   1.172  29.785  0.2346  0.0321 -0.0883
12563DDP     P175374   6.622   1.239  29.353  0.2322  0.0323  0.2215
12563DDP     P275375   6.986   1.083  30.020  0.0690  0.0733 -0.4353
12563DDP     C275376   7.363   1.249  29.817  0.1577  0.3284  0.2254
12563DDP     C375377   6.722   1.520  29.017  0.1783 -0.2401 -0.2171
12563DDP     C475378   6.474   1.476  30.055  0.3613 -0.1354  0.3474
12564DDP     C175379  25.375  18.456  27.746 -0.2556 -0.2015  0.1949
12564DDP     P175380  25.012  18.490  27.485  0.0277 -0.3628  0.0313
12564DDP     P275381  25.794  18.569  27.553 -0.2361  0.0224  0.0107
12564DDP     C275382  25.934  18.981  27.490  0.2115 -0.0706 -0.1977
12564DDP     C375383  24.895  18.217  27.210 -0.1448  0.0916 -0.0174
12564DDP     C475384  25.488  18.186  28.087 -0.2378 -0.0262 -0.3881
12565DDP     C175385   4.789  12.893  13.576  0.1308 -0.0249  0.4704
12565DDP     P175386   4.878  13.013  13.202  0.3074 -0.2059  0.2994
12565DDP     P275387   4.976  13.075  14.108  0.0274  0.0765 -0.4461
12565DDP     C275388   5.281  13.395  14.383 -0.0016  0.0135  0.4244
12565DDP     C375389   5.198  12.922  13.027  0.1483 -0.4103  0.2512
12565DDP     C475390   4.457  12.549  13.662 -0.0036  0.2195  0.0033
12566DDP     C175391  27.313  13.582  10.584  0.0673  0.0493  0.0364
12566DDP     P175392  27.329  14.011  10.679  0.1547 -0.0582 -0.1038
12566DDP     P275393  27.088  13.239  10.730  0.2427 -0.1429  0.0621
12566DDP     C275394  26.717  13.190  10.554 -0.2653  0.1853  0.0200
12566DDP     C375395  27.476  14.427  10.679  0.0247 -0.1345  0.1479
12566DDP     C475396  27.420  13.560  10.061  0.1350  0.0376 -0.0061
12567DDP     C175397   8.898  22.489   8.399  0.0217  0.0842 -0.2090
12567DDP     P175398   9.122  22.887   8.530  0.1590  0.1447  0.0825
12567DDP     P275399   8.602  22.355   8.781  0.1875  0.1453  0.3113
12567DDP     C275400   8.285  22.135   9.059  0.2573 -0.3687  0.2423
12567DDP     C375401   9.347  23.176   8.534 -0.1270 -0.2041 -0.1130
12567DDP     C475402   9.054  22.173   8.131 -0.1149 -0.2543 -0.0901
12568DDP     C175403  19.989   1.275   3.059  0.0861 -0.3215  0.2461
12568DDP     P175404  19.617   0.965   2.978 -0.0699 -0.0927  0.4004
12568DDP     P275405  20.030   1.194   3.453 -0.0087 -0.4010  0.0059
12568DDP     C275406  20.026   1.188   3.946 -0.0131  0.1272  0.3258
12568DDP     C375407  19.382   0.885   2.602 -0.2541  0.2422 -0.1328
12568DDP     C475408  20.102   1.456   2.610 -0.0923  0.1473 -0.1811
12569DDP     C175409  27.388   5.182  23.450 -0.0786 -0.0332 -0.1974
12569DDP     P175410  27.098   4.872  23.439  0.1026 -0.0712 -0.1424
12569DDP     P275411  27.531   4.911  23.731 -0.1555 -0.0401 -0.3477
12569DDP     C275412  27.610   4.591  24.021  0.2824  0.0513 -0.1975
12569DDP     C375413  26.809   4.506  23.373  0.2008  0.1922  0.0863
12569DDP     C475414  27.488   5.554  23.177 -0.1181  0.0199  0.0505
12570DDP     C175415  21.889  19.879  11.364  0.1057  0.0689  0.1036
12570DDP     P175416  22.125  20.241  11.513 -0.1287  0.3344  0.0170
12570DDP     P275417  21.547  20.019  11.246  0.2963  0.0023  0.1713
12570DDP     C275418  21.283  20.278  11.390 -0.2173 -0.0341  0.3045
12570DDP     C375419  22.404  20.445  11.708 -0.1355  0.0100  0.1517
12570DDP     C475420  21.972  19.527  11.341  0.3691  0.3548  0.1171
12571DDP     C175421   8.143   9.056  12.899 -0.0529  0.2158  0.3220
12571DDP     P175422   7.834   8.983  12.646 -0.0005  0.0727 -0.0776
12571DDP     P275423   8.175   8.910  13.315  0.1062 -0.1104 -0.1395
12571DDP     C275424   8.340   8.507  13.591  0.2551 -0.3496 -0.0726
12571DDP     C375425   7.434   8.811  12.720  0.2083  0.0605 -0.0737
12571DDP     C475426   8.545   9.146  12.622  0.1406 -0.0217 -0.0126
12572DDP     C175427  21.726  15.475  27.745  0.0599  0.0168  0.3334
12572DDP     P175428  21.734  15.877  27.913 -0.2384  0.0582 -0.1514
12572DDP     P275429  21.638  15.402  27.310 -0.0490  0.2689  0.0910
12572DDP     C275430  21.341  15.083  27.134 -0.0195 -0.0744  0.2819
12572DDP     C375431  21.731  16.273  27.611 -0.0170 -0.1080  0.4246
12572DDP     C475432  21.878  15.018  27.915  0.1372  0.0565 -0.1016
12573DDP     C175433   4.256  25.455  24.874  0.1394  0.3520  0.3394
12573DDP     P175434   4.405  25.857  24.865 -0.1543 -0.4425  0.4258
12573DDP     P275435   4.524  25.127  24.784  0.0087  0.0476 -0.0774
12573DDP     C275436   4.571  24.726  24.768  0.2109 -0.1743 -0.1779
12573DDP     C375437   4.817  26.001  24.742 -0.0018  0.1268  0.1789
12573DDP     C475438   3.923  25.448  25.050  0.0730 -0.1696  0.2991
12574DDP     C175439  17.163   6.565   6.994  0.3205  0.3463 -0.3950
12574DDP     P175440  17.146   6.913   7.084 -0.0097  0.0997  0.2517
12574DDP     P275441  17.132   6.565   6.582  0.3116  0.0140  0.0881
12574DDP     C275442  16.987   6.826   6.207  0.0529 -0.0244 -0.0933
12574DDP     C375443  17.069   6.982   7.460 -0.0217 -0.2484  0.2846
12574DDP     C475444  17.349   6.270   7.325  0.3325  0.0538  0.1576
12575DDP     C175445   1.661  10.962  19.698 -0.1392 -0.4006  0.0190
12575DDP     P175446   1.628  10.847  20.131 -0.2186  0.1442  0.0959
12575DDP     P275447   1.655  10.726  19.312  0.1019  0.1189  0.0715
12575DDP     C275448   1.732  10.327  19.196  0.2329 -0.1479 -0.0845
12575DDP     C375449   1.675  10.910  20.554  0.1769  0.1427  0.2666
12575DDP     C475450   1.238  11.196  19.426  0.1207 -0.0444 -0.4023
12576DDP     C175451  20.537   3.337  24.206 -0.3385  0.0702  0.2640
12576DDP     P175452  20.693   3.295  23.776 -0.2054  0.2174 -0.1183
12576DDP     P275453  20.364   3.732  24.239  0.0922  0.1798  0.1749
12576DDP     C275454  20.122   3.784  23.808  0.1881 -0.0941  0.1665
12576DDP     C375455  20.733   3.111  23.476  0.0520 -0.1778 -0.2363
12576DDP     C475456  20.806   3.051  24.492  0.2363  0.1264 -0.0938
12577DDP     C175457  13.356   3.348  24.232  0.0724  0.1109 -0.0668
12577DDP     P175458  13.116   3.377  24.649 -0.2568  0.0728  0.2645
12577DDP     P275459  13.733   3.192  24.036 -0.0950  0.0043  0.4459
12577DDP     C275460  14.091   3.079  23.752  0.0431  0.0428  0.3750
12577DDP     C375461  12.756   3.404  24.836  0.2283 -0.1295  0.3324
12577DDP     C475462  13.245   3.520  23.789 -0.0302  0.2066 -0.2968
12578DDP     C175463  20.847  29.208  24.991 -0.0866 -0.0462  0.0103
12578DDP     P175464  20.517  29.025  25.249 -0.1104  0.1877  0.1114
12578DDP     P275465  20.669  29.137  24.636  0.0413 -0.2310  0.1944
12578DDP     C275466  20.621  29.023  24.197 -0.1053  0.1277 -0.2076
12578DDP     C375467  20.546  28.729  25.517 -0.1605 -0.0954 -0.4785
12578DDP     C475468  21.340  29.192  24.950 -0.0197 -0.1203  0.0016
12579DDP     C175469   9.520   8.181  26.957 -0.1292  0.2032 -0.4021
12579DDP     P175470   9.816   7.938  26.735  0.0875  0.0410  0.0688
12579DDP     P275471   9.296   8.307  26.659  0.1842 -0.1634  0.1897
12579DDP     C275472   8.946   8.378  26.352  0.0591 -0.2113  0.0678
12579DDP     C375473  10.142   7.715  26.573 -0.1158  0.3326 -0.0399
12579DDP     C475474   9.581   8.272  27.393  0.2164  0.0553 -0.0284
12580DDP     C175475   3.279  10.118  11.698  0.0902 -0.2500 -0.1982
12580DDP     P175476   3.401  10.621  11.627  0.1796 -0.1306 -0.0014
12580DDP     P275477   3.568   9.777  11.619  0.1383 -0.2267 -0.0375
12580DDP     C275478   3.781   9.756  11.200  0.0785  0.2860  0.1706
12580DDP     C375479   3.742  10.898  11.624 -0.2307 -0.0101  0.1855
12580DDP     C475480   2.772  10.037  11.886  0.1182  0.2948 -0.1947
12581DDP     C175481  19.424  20.394  16.223  0.0371 -0.1002  0.1568
12581DDP     P175482  19.526  19.871  16.270  0.1504  0.2268  0.0819
12581DDP     P275483  19.640  20.766  16.395 -0.4544 -0.1026 -0.1602
12581DDP     C275484  19.537  21.266  16.295  0.2670 -0.2058 -0.1833
12581DDP     C375485  19.642  19.416  16.308 -0.0808  0.1513  0.2435
12581DDP     C475486  19.016  20.437  16.064  0.1477  0.0166 -0.1450
12582DDP     C175487  16.125   4.532  17.997 -0.1557  0.1966  0.3279
12582DDP     P175488  16.457   4.240  18.049  0.0743 -0.0144  0.1417
12582DDP     P275489  16.283   4.650  18.409 -0.4178  0.0551 -0.2311
12582DDP     C275490  16.299   4.917  18.712  0.0451 -0.2088  0.0618
12582DDP     C375491  16.855   3.932  18.101  0.2556 -0.0313 -0.1977
12582DDP     C475492  15.672   4.651  17.800 -0.1059 -0.0812 -0.2884
12583DDP     C175493  10.903   2.554  22.036 -0.1654 -0.1454  0.0143
12583DDP     P175494  10.667   2.845  22.267 -0.2805 -0.0222  0.2639
12583DDP     P275495  10.932   2.644  21.569 -0.1828 -0.0072  0.0706
12583DDP     C275496  10.933   2.636  21.052  0.1978 -0.1012 -0.4259
12583DDP     C375497  10.305   3.061  22.174  0.1032  0.0694 -0.3046
12583DDP     C475498  11.171   2.327  22.305  0.1254  0.0147  0.0682
12584DDP     C175499  28.789   7.765   2.777  0.0694  0.1128 -0.0223
12584DDP     P175500  28.632   7.390   2.549 -0.2190 -0.2477  0.0341
12584DDP     P275501  28.368   7.938   3.085  0.1422 -0.2139 -0.1017
12584DDP     C275502  27.941   7.985   3.062 -0.0007  0.2051  0.1637
12584DDP     C375503  28.782   7.389   2.044 -0.0637 -0.3277 -0.0398
12584DDP     C475504  29.253   7.930   2.677 -0.0409  0.0754 -0.2363
12585DDP     C175505   3.199   1.759  20.943 -0.0487  0.0587  0.0048
12585DDP     P175506   2.898   1.976  20.976  0.0682  0.2419 -0.1802
12585DDP     P275507   3.179   1.452  20.551  0.1746  0.2465 -0.1500
12585DDP     C275508   2.871   1.108  20.371 -0.4617  0.0002 -0.0198
12585DDP     C375509   3.009   2.407  20.920  0.0467 -0.0931 -0.2022
12585DDP     C475510   3.563   2.016  21.189  0.2792 -0.0499  0.0245
12586DDP     C175511  15.572   4.599   9.763  0.0241 -0.2318 -0.1200
12586DDP     P175512  15.645   4.713   9.287 -0.3030  0.2451 -0.1512
12586DDP     P275513  15.670   4.912  10.088  0.0334 -0.2538  0.2512
12586DDP     C275514  15.782   5.005  10.531  0.0144 -0.3795  0.0982
12586DDP     C375515  15.732   4.428   8.977 -0.0897 -0.0317 -0.1037
12586DDP     C475516  15.400   4.325   9.976  0.2684 -0.3861 -0.2746
12587DDP     C175517   7.128   8.081  30.173  0.3016  0.0234  0.0755
12587DDP     P175518   7.378   7.886  29.816  0.2876  0.1260 -0.0607
12587DDP     P275519   6.927   7.835   0.218 -0.3239  0.0272  0.1934
12587DDP     C275520   6.645   7.712   0.402 -0.0646  0.0447  0.2320
12587DDP     C375521   7.710   7.626  29.844  0.2457  0.0318  0.3240
12587DDP     C475522   6.807   8.431  29.987 -0.1912 -0.1282 -0.0199
12588DDP     C175523   6.083   6.769  18.972 -0.0799  0.2472 -0.3014
12588DDP     P175524   6.413   6.460  18.862  0.1245 -0.1303 -0.3656
12588DDP     P275525   6.318   6.717  19.360 -0.0386 -0.0863  0.1624
12588DDP     C275526   6.125   6.496  19.733 -0.0410  0.0849  0.0115
12588DDP     C375527   6.386   6.061  18.628  0.0753  0.0895  0.2560
12588DDP     C475528   5.637   6.860  18.887 -0.0341 -0.1046 -0.0022
12589DDP     C175529   4.355  20.619  21.863 -0.0363 -0.1113 -0.0811
12589DDP     P175530   4.246  20.219  21.945 -0.0029 -0.0298  0.0993
12589DDP     P275531   4.803  20.688  21.892  0.0275  0.1335  0.1844
12589DDP     C275532   5.045  20.807  22.230  0.3802 -0.3290  0.0898
12589DDP     C375533   3.890  20.099  21.817 -0.2381  0.3277 -0.0241
12589DDP     C475534   4.149  20.936  21.764 -0.1920 -0.3979 -0.1847
12590DDP     C175535   8.230   1.750  19.113  0.0593  0.0344 -0.1729
12590DDP     P175536   8.110   1.995  19.486 -0.0563  0.4354 -0.1604
12590DDP     P275537   8.403   1.998  18.796 -0.2952 -0.2747 -0.1318
12590DDP     C275538   8.609   1.991  18.406  0.0064  0.0843 -0.0519
12590DDP     C375539   7.726   2.116  19.672  0.1988  0.4137  0.4122
12590DDP     C475540   8.255   1.253  19.174  0.0807 -0.1128 -0.1083
12591DDP     C175541  15.252  23.518  16.591  0.0868 -0.2878 -0.0268
12591DDP     P175542  15.040  23.216  16.271  0.0939  0.0002  0.1414
12591DDP     P275543  15.457  23.337  16.938  0.0963 -0.1217  0.2103
12591DDP     C275544  15.828  23.010  17.007 -0.1748 -0.1025 -0.0423
12591DDP     C375545  15.024  22.888  16.254 -0.0346  0.0133 -0.1065
12591DDP     C475546  15.290  23.899  16.437  0.0666 -0.0278  0.1331
12592DDP     C175547   2.727  26.569  10.002 -0.1227  0.3413  0.0270
12592DDP     P175548   2.879  27.036  10.121  0.1303 -0.2783  0.1483
12592DDP     P275549   3.084  26.350  10.012 -0.2828 -0.3159 -0.1859
12592DDP     C275550   3.538  26.163  10.098  0.0821 -0.2732 -0.0516
12592DDP     C375551   2.917  27.507   9.973 -0.2203  0.2045  0.0301
12592DDP     C475552   2.272  26.421  10.068 -0.1085 -0.0265  0.1806
12593DDP     C175553  26.550  13.834   2.724  0.1524 -0.0896  0.0264
12593DDP     P175554  26.855  13.598   2.521 -0.2549  0.0101 -0.1362
12593DDP     P275555  26.166  13.631   2.739 -0.1362 -0.3104 -0.0557
12593DDP     C275556  25.867  13.341   2.556  0.0666  0.2852 -0.3403
12593DDP     C375557  27.171  13.340   2.276  0.2766 -0.1463 -0.0864
12593DDP     C475558  26.691  14.217   2.898 -0.3129  0.3532 -0.1571
12594DDP     C175559   6.951  25.680  30.287  0.0296 -0.0767 -0.0849
12594DDP     P175560   7.170  25.481  29.978 -0.1288 -0.0932  0.1689
12594DDP     P275561   6.781  25.479   0.318  0.0671 -0.0754  0.1302
12594DDP     C275562   6.438  25.172   0.315  0.0984 -0.1447 -0.0803
12594DDP     C375563   7.021  25.400  29.574  0.0039  0.0633  0.2952
12594DDP     C475564   6.752  26.037  30.193 -0.2096  0.1718  0.0409
12595DDP     C175565   6.147  19.418  24.017  0.1534  0.1697  0.1115
12595DDP     P175566   5.944  19.291  23.578 -0.1214 -0.1502 -0.5941
12595DDP     P275567   6.443  19.096  24.177 -0.1146 -0.0764 -0.0343
12595DDP     C275568   6.679  18.883  24.414 -0.1951  0.2836  0.1233
12595DDP     C375569   5.929  19.287  23.051  0.0752  0.0811 -0.1759
12595DDP     C475570   6.207  19.782  24.202  0.1172 -0.2412  0.2873
12596DDP     C175571   9.326   9.859  18.218  0.0056  0.1542  0.0251
12596DDP     P175572   9.163   9.721  18.663  0.1353  0.2524 -0.0970
12596DDP     P275573   9.635   9.591  17.905 -0.3066  0.1569  0.1020
12596DDP     C275574   9.884   9.343  17.572 -0.1122  0.0412  0.0507
12596DDP     C375575   8.727   9.886  18.690 -0.1246  0.3369  0.0773
12596DDP     C475576   9.100  10.277  18.106  0.1541  0.0959  0.1078
12597DDP     C175577  19.898  14.813   5.070  0.2887 -0.0535  0.2262
12597DDP     P175578  19.478  14.523   5.210  0.1387  0.1836 -0.1075
12597DDP     P275579  20.021  15.139   5.474  0.1381 -0.0630 -0.2189
12597DDP     C275580  19.880  15.475   5.783  0.0595 -0.2390  0.0280
12597DDP     C375581  19.177  14.194   5.303 -0.3623  0.1441 -0.3848
12597DDP     C475582  19.935  14.977   4.707  0.0722 -0.2577  0.2417
12598DDP     C175583   0.404  11.613   7.966 -0.1396  0.0616  0.1312
12598DDP     P175584   0.572  12.085   7.840  0.2560 -0.2131 -0.0172
12598DDP     P275585   0.484  11.273   7.844  0.2603 -0.0144  0.4963
12598DDP     C275586   0.380  10.815   7.721  0.1274 -0.3181 -0.1762
12598DDP     C375587   0.883  12.291   7.929  0.1389  0.3659 -0.3572
12598DDP     C475588  30.211  11.587   8.117  0.1064  0.2363 -0.3554
12599DDP     C175589  11.602   7.942  17.391  0.2128  0.0674 -0.1571
12599DDP     P175590  11.860   7.545  17.190  0.2309  0.2127  0.0449
12599DDP     P275591  11.270   7.845  17.462  0.1805  0.2802  0.0333
12599DDP     C275592  10.920   7.627  17.376 -0.0974  0.0268 -0.3360
12599DDP     C375593  12.012   7.242  16.941  0.0990  0.1756  0.0896
12599DDP     C475594  11.890   8.317  17.620  0.1168  0.2223  0.0571
12600DDP     C175595   7.228  11.974  17.838 -0.1219 -0.3544 -0.0867
12600DDP     P175596   6.767  12.086  17.635  0.1453  0.2039  0.0455
12600DDP     P275597   7.465  11.718  17.552 -0.3301  0.2061  0.5812
12600DDP     C275598   7.525  11.340  17.435 -0.0194  0.1851 -0.0647
12600DDP     C375599   6.396  12.348  17.574  0.3068 -0.0366 -0.0267
12600DDP     C475600   7.325  12.048  18.250  0.2107 -0.1103 -0.2497
12601DDP     C175601   7.150  19.061   2.382  0.3460 -0.2046 -0.2272
12601DDP     P175602   6.734  19.018   2.090 -0.3679  0.0537  0.1445
12601DDP     P275603   6.941  19.030   2.778  0.2540 -0.2590  0.4540
12601DDP     C275604   6.568  19.240   3.040 -0.3068 -0.1944  0.3940
12601DDP     C375605   6.565  18.844   1.678  0.1539 -0.0689 -0.0724
12601DDP     C475606   7.612  19.046   2.316 -0.0756 -0.3129  0.0669
12602DDP     C175607   2.419  15.162  20.599  0.3222 -0.2640  0.0755
12602DDP     P175608   2.874  15.293  20.665  0.5237 -0.1918 -0.0178
12602DDP     P275609   2.179  15.544  20.559  0.0155 -0.1020 -0.0129
12602DDP     C275610   2.424  15.989  20.606  0.0763  0.2370  0.0031
12602DDP     C375611   3.060  15.238  20.323 -0.0053 -0.0365 -0.2484
12602DDP     C475612   2.164  14.783  20.482 -0.1701  0.2006 -0.1383
12603DDP     C175613  18.590   5.762   2.232  0.2037 -0.1007 -0.1436
12603DDP     P175614  18.417   5.571   1.813  0.0650 -0.2397 -0.0391
12603DDP     P275615  19.062   5.623   2.283  0.0133  0.0934 -0.1443
12603DDP     C275616  19.410   5.318   2.465  0.1218 -0.0277 -0.2235
12603DDP     C375617  18.317   5.436   1.410 -0.0537  0.0944 -0.1328
12603DDP     C475618  18.466   5.877   2.640  0.5265 -0.1786  0.3652
12604DDP     C175619   7.951  21.514  19.467 -0.4020  0.1650  0.0818
12604DDP     P175620   8.010  21.845  19.437 -0.3157 -0.5371  0.1865
12604DDP     P275621   7.747  21.202  19.740  0.1863  0.1704 -0.0186
12604DDP     C275622   7.845  20.818  19.916 -0.4301  0.1734 -0.0049
12604DDP     C375623   7.716  22.121  19.455 -0.1038  0.2144  0.0707
12604DDP     C475624   7.888  21.203  19.087  0.0203 -0.0853 -0.1635
12605DDP     C175625   7.724  23.746   6.292  0.2263  0.2291  0.0544
12605DDP     P175626   7.347  23.947   6.204 -0.0611  0.1089  0.1714
12605DDP     P275627   8.068  23.920   6.618 -0.0872  0.2450 -0.2135
12605DDP     C275628   8.431  24.138   6.482 -0.3700  0.2508 -0.0507
12605DDP     C375629   7.173  24.001   5.801 -0.2856 -0.0235  0.1251
12605DDP     C475630   7.666  23.415   5.987  0.0077  0.0773 -0.1024
12606DDP     C175631  27.195  25.366   4.557  0.1998  0.0122  0.2209
12606DDP     P175632  26.794  25.323   4.796  0.1789 -0.2771 -0.3188
12606DDP     P275633  27.525  25.210   4.652 -0.2282 -0.0154 -0.2551
12606DDP     C275634  27.765  24.764   4.552  0.3989 -0.2045  0.2332
12606DDP     C375635  26.633  24.975   5.066 -0.0286  0.0874 -0.0086
12606DDP     C475636  27.352  25.742   4.369  0.0863  0.0384 -0.0407
12607DDP     C175637  24.952  27.888  24.850  0.0747 -0.0369 -0.0564
12607DDP     P175638  25.095  27.614  24.504 -0.1162  0.1172  0.0725
12607DDP     P275639  24.729  27.647  25.223  0.2109  0.0067 -0.0274
12607DDP     C275640  24.250  27.769  25.346 -0.2072 -0.1238  0.2260
12607DDP     C375641  25.177  27.418  24.087 -0.1032 -0.0603 -0.1779
12607DDP     C475642  25.087  28.258  24.581 -0.0315 -0.0573 -0.0623
12608DDP     C175643   8.815  27.949   0.329  0.1418 -0.0190  0.0489
12608DDP     P175644   9.033  28.295   0.204  0.0322 -0.1662  0.3650
12608DDP     P275645   8.789  27.833   0.809 -0.0580  0.1713  0.0683
12608DDP     C275646   9.119  27.635   1.039 -0.0574 -0.0798 -0.1017
12608DDP     C375647   9.132  28.596  30.177 -0.2300  0.1425  0.1942
12608DDP     C475648   9.030  27.730   0.086 -0.0363 -0.0485  0.4341
12609DDP     C175649  12.147  14.636  28.682 -0.2428  0.1175  0.0220
12609DDP     P175650  11.821  14.353  28.641  0.0296  0.0339  0.1098
12609DDP     P275651  12.239  14.949  28.737 -0.1841  0.0601 -0.0046
12609DDP     C275652  12.099  15.332  28.551  0.1837 -0.1407 -0.1135
12609DDP     C375653  11.468  14.196  28.485  0.0827  0.3312  0.2323
12609DDP     C475654  12.332  14.275  28.498 -0.3743 -0.0214  0.0112
12610DDP     C175655   6.424  12.528  15.227 -0.2114 -0.0036  0.2325
12610DDP     P175656   6.053  12.239  15.405  0.1319 -0.1648 -0.0909
12610DDP     P275657   6.603  12.748  15.540  0.1619  0.1554 -0.0473
12610DDP     C275658   6.847  12.939  15.788  0.1742  0.2098  0.0791
12610DDP     C375659   5.828  12.483  15.093 -0.4131 -0.1476  0.4370
12610DDP     C475660   6.419  12.715  14.835 -0.2233  0.0406  0.2025
12611DDP     C175661   9.031  19.761  23.318 -0.1048 -0.1035 -0.1067
12611DDP     P175662   9.472  19.634  23.490 -0.0328 -0.0874 -0.2775
12611DDP     P275663   8.966  19.765  22.914 -0.0300 -0.1985  0.2524
12611DDP     C275664   8.754  19.735  22.521 -0.3157  0.1633  0.2346
12611DDP     C375665   9.836  19.487  23.606 -0.1262 -0.0290 -0.1507
12611DDP     C475666   8.812  20.149  23.473  0.0025  0.0894  0.1042
12612DDP     C175667  18.757  28.580  24.332  0.1205  0.1294 -0.2032
12612DDP     P175668  18.450  28.844  24.283 -0.0202 -0.0778 -0.1332
12612DDP     P275669  18.599  28.248  24.530  0.0353  0.0721 -0.2823
12612DDP     C275670  18.705  27.811  24.393  0.0377 -0.0397  0.0973
12612DDP     C375671  18.027  28.916  24.235  0.2182  0.0221 -0.2460
12612DDP     C475672  19.220  28.603  24.406  0.1030 -0.1005 -0.0943
12613DDP     C175673   4.752  23.791  10.838  0.3788  0.2190  0.1328
12613DDP     P175674   5.095  23.894  10.615 -0.0801  0.4252 -0.0956
12613DDP     P275675   4.502  23.473  10.752  0.2778 -0.0780 -0.1399
12613DDP     C275676   4.604  23.132  10.447 -0.0270 -0.1398  0.2248
12613DDP     C375677   5.155  24.302  10.614  0.3121  0.1584 -0.1113
12613DDP     C475678   4.549  23.879  11.036  0.0058  0.0370 -0.2060
12614DDP     C175679  19.435  17.885   6.838  0.2172 -0.0319  0.2076
12614DDP     P175680  19.030  17.980   6.803  0.0048 -0.2799  0.2949
12614DDP     P275681  19.562  18.337   6.917 -0.0777  0.0222  0.1580
12614DDP     C275682  19.694  18.742   7.121 -0.3018  0.2717 -0.3806
12614DDP     C375683  18.664  17.814   6.711 -0.1337  0.0432 -0.0553
12614DDP     C475684  19.411  17.530   6.609  0.0425  0.0948  0.1443
12615DDP     C175685  16.814   9.827   7.368  0.3951  0.5079  0.1156
12615DDP     P175686  17.066  10.239   7.527 -0.2594  0.1767 -0.0018
12615DDP     P275687  16.417   9.954   7.182  0.0075  0.0276  0.1038
12615DDP     C275688  15.961   9.780   7.289 -0.2095 -0.0448  0.0516
12615DDP     C375689  16.914  10.551   7.810 -0.3438 -0.0610  0.0438
12615DDP     C475690  16.947   9.487   7.314 -0.2161  0.0104  0.2266
12616DDP     C175691  23.139   3.197  19.514 -0.0070 -0.1380 -0.0544
12616DDP     P175692  23.173   3.532  19.723 -0.1519 -0.3595  0.0165
12616DDP     P275693  22.774   2.922  19.550 -0.0418 -0.0647  0.0970
12616DDP     C275694  22.448   2.995  19.791  0.0073 -0.2849  0.2527
12616DDP     C375695  23.406   3.813  19.562 -0.2426  0.1161  0.3205
12616DDP     C475696  23.467   3.103  19.226  0.0046 -0.0526 -0.2042
12617DDP     C175697  20.548  23.849   5.619  0.3075  0.0782 -0.0282
12617DDP     P175698  20.646  24.196   5.395  0.1068  0.3991  0.0286
12617DDP     P275699  20.649  23.682   6.065 -0.2072 -0.0420 -0.3699
12617DDP     C275700  20.450  23.578   6.290 -0.1143  0.5214  0.0301
12617DDP     C375701  20.916  24.352   5.095  0.0979 -0.2736  0.0634
12617DDP     C475702  20.452  23.475   5.371  0.0329 -0.1032  0.0317
12618DDP     C175703  23.338   1.710   7.843 -0.0785 -0.0633 -0.1502
12618DDP     P175704  23.042   1.842   8.095  0.1707 -0.2188  0.1572
12618DDP     P275705  23.492   2.099   7.838  0.0575 -0.1096  0.0167
12618DDP     C275706  23.380   2.447   7.609  0.0650  0.0031  0.1005
12618DDP     C375707  22.947   2.001   8.444 -0.2899 -0.1949  0.2437
12618DDP     C475708  23.313   1.366   7.521  0.0663 -0.4461 -0.0948
12619DDP     C175709  29.277  13.422   4.960  0.1359  0.3128  0.1596
12619DDP     P175710  29.347  13.842   4.922 -0.0007 -0.0539 -0.0829
12619DDP     P275711  29.321  13.210   5.186  0.0536  0.0978 -0.0202
12619DDP     C275712  29.127  13.177   5.632 -0.0494  0.1868 -0.1043
12619DDP     C375713  29.619  14.079   5.104 -0.1529 -0.0756 -0.1173
12619DDP     C475714  29.347  13.088   4.638  0.1189 -0.1563 -0.1473
12620DDP     C175715   5.632   2.816  27.980  0.0370  0.1325 -0.1134
12620DDP     P175716   5.863   2.670  28.452 -0.0684  0.2745 -0.2089
12620DDP     P275717   5.887   3.183  27.842  0.0367 -0.1457  0.1898
12620DDP     C275718   6.146   3.562  27.800 -0.0074 -0.1084  0.3784
12620DDP     C375719   5.998   2.876  28.895 -0.0290 -0.0417 -0.0735
12620DDP     C475720   5.256   2.616  27.752 -0.0975  0.1990 -0.1953
12621DDP     C175721   6.122  16.515  28.464 -0.0008 -0.1177 -0.0145
12621DDP     P175722   6.517  16.375  28.690 -0.1468  0.0715 -0.0369
12621DDP     P275723   5.649  16.486  28.511  0.1097 -0.0324 -0.0115
12621DDP     C275724   5.241  16.377  28.506 -0.1959 -0.0922  0.0025
12621DDP     C375725   6.783  15.939  28.947  0.1117  0.2288  0.0878
12621DDP     C475726   6.244  16.869  28.337 -0.0691  0.0724  0.0648
12622DDP     C175727  27.508   9.546  20.660  0.2708 -0.2252 -0.1236
12622DDP     P175728  27.588   9.588  20.230  0.1755  0.3218 -0.1964
12622DDP     P275729  27.572  10.074  20.841  0.6289  0.1623 -0.0924
12622DDP     C275730  27.693  10.467  20.931  0.1175 -0.0522  0.3990
12622DDP     C375731  27.658   9.499  19.791  0.2777 -0.1919 -0.1805
12622DDP     C475732  27.646   9.275  20.854  0.0467 -0.0415 -0.1093
12623DDP     C175733  11.200  18.145   5.517  0.1234 -0.0913 -0.2278
12623DDP     P175734  10.834  18.442   5.741  0.0802 -0.0553  0.0059
12623DDP     P275735  11.045  17.904   5.373 -0.0586  0.0447 -0.1398
12623DDP     C275736  10.748  17.641   5.088  0.1298 -0.0524  0.0964
12623DDP     C375737  10.317  18.482   5.659 -0.0953  0.1568  0.1841
12623DDP     C475738  11.589  18.282   5.585  0.0197  0.0818  0.0061
12624DDP     C175739  22.027   2.272  18.757 -0.0637  0.3912  0.0207
12624DDP     P175740  21.721   2.302  18.422 -0.0850 -0.3319 -0.1671
12624DDP     P275741  22.162   1.830  18.655  0.3017 -0.0601 -0.1464
12624DDP     C275742  22.438   1.808  18.330 -0.0685 -0.1309  0.3471
12624DDP     C375743  21.349   2.569  18.260  0.2021  0.1092 -0.0916
12624DDP     C475744  22.253   2.421  19.012  0.3343 -0.1030  0.1528
12625DDP     C175745   8.828  27.260  21.981 -0.3156  0.1923 -0.2103
12625DDP     P175746   8.854  27.689  22.188  0.0496 -0.1311  0.2001
12625DDP     P275747   9.150  27.503  21.795 -0.0289  0.1301  0.2343
12625DDP     C275748   9.349  27.850  21.609  0.1717  0.2232 -0.1455
12625DDP     C375749   8.760  28.011  22.433  0.2360 -0.3278 -0.1126
12625DDP     C475750   8.583  26.922  21.936 -0.1260  0.0444  0.2505
12626DDP     C175751  27.210  14.367   2.202  0.0998  0.2137 -0.1254
12626DDP     P175752  27.121  14.720   2.017 -0.1340 -0.2524  0.1758
12626DDP     P275753  27.556  14.313   2.397 -0.3244  0.4513  0.2100
12626DDP     C275754  27.816  14.265   2.651  0.2821  0.3070  0.0318
12626DDP     C375755  26.701  14.878   2.067 -0.1329 -0.0456  0.3896
12626DDP     C475756  26.829  14.123   2.401 -0.3109  0.1910  0.2058
12627DDP     C175757  30.013  19.979  29.691  0.1041 -0.0221  0.1935
12627DDP     P175758   0.135  20.096  29.365 -0.1013  0.0042  0.1569
12627DDP     P275759  29.800  20.210  29.830  0.0108  0.3842  0.0739
12627DDP     C275760  29.285  20.343  30.019  0.0897 -0.0540  0.1884
12627DDP     C375761   0.395  20.331  29.255 -0.2655  0.1250 -0.0139
12627DDP     C475762  29.858  19.560  29.509 -0.1675 -0.4058  0.2332
12628DDP     C175763  12.304  15.806  28.340  0.0525 -0.0885 -0.3400
12628DDP     P175764  12.693  15.866  28.420  0.2590 -0.1560  0.0818
12628DDP     P275765  11.991  15.834  28.671 -0.0950  0.2184  0.2931
12628DDP     C275766  11.654  15.712  28.943 -0.0923 -0.2079  0.3587
12628DDP     C375767  12.989  16.086  28.540 -0.1726 -0.2599 -0.0388
12628DDP     C475768  12.046  15.798  27.986  0.0028 -0.0226 -0.1452
12629DDP     C175769  25.673  20.712   7.184 -0.4210 -0.0488 -0.2894
12629DDP     P175770  25.913  20.680   7.565 -0.1921 -0.2602  0.0526
12629DDP     P275771  25.702  20.296   6.891 -0.2973  0.0608 -0.2446
12629DDP     C275772  25.483  20.112   6.536 -0.1557 -0.0395 -0.0446
12629DDP     C375773  26.203  20.810   7.765  0.0828  0.0892  0.1838
12629DDP     C475774  25.556  21.180   7.214 -0.3132 -0.0823 -0.2875
12630DDP     C175775  22.997   7.731   7.030 -0.0450 -0.2325 -0.0670
12630DDP     P175776  22.986   8.142   7.230 -0.0787  0.0136 -0.3012
12630DDP     P275777  23.319   7.592   6.640 -0.0594  0.3880  0.0939
12630DDP     C275778  23.437   7.908   6.379  0.0051  0.1610  0.2366
12630DDP     C375779  22.751   8.489   7.527  0.0895 -0.0468  0.3544
12630DDP     C475780  22.648   7.326   7.168  0.0475 -0.2067 -0.3123
12631DDP     C175781  25.307  22.489  14.893 -0.1116  0.0281 -0.1367
12631DDP     P175782  25.633  22.805  14.931 -0.0473  0.3233  0.0638
12631DDP     P275783  25.108  22.329  15.272  0.1323  0.0327 -0.1767
12631DDP     C275784  24.981  22.467  15.650 -0.2146 -0.2479 -0.1020
12631DDP     C375785  26.022  22.845  15.195 -0.1123  0.2684 -0.2012
12631DDP     C475786  25.119  22.456  14.512 -0.0059 -0.0546  0.0423
12632DDP     C175787  26.473   2.994  26.523 -0.1075  0.2203 -0.0820
12632DDP     P175788  26.770   3.226  26.628  0.0705 -0.2972 -0.2387
12632DDP     P275789  26.281   2.672  26.718  0.1900 -0.3018  0.1029
12632DDP     C275790  26.011   2.317  26.962 -0.0515  0.3518  0.0503
12632DDP     C375791  27.144   3.541  26.665 -0.0335 -0.0440  0.2374
12632DDP     C475792  26.181   3.263  26.297 -0.0153 -0.1603  0.0867
12633DDP     C175793  12.818  28.221  24.166 -0.1370  0.1047 -0.0365
12633DDP     P175794  13.086  28.182  24.516  0.1896 -0.2968 -0.1436
12633DDP     P275795  12.507  27.933  24.072  0.1082 -0.1468 -0.0556
12633DDP     C275796  12.024  27.991  24.181  0.0410  0.0532 -0.1916
12633DDP     C375797  13.305  27.798  24.661 -0.0257 -0.2570 -0.0387
12633DDP     C475798  13.146  28.372  23.805  0.0117  0.2978  0.0936
12634DDP     C175799  12.123   3.953   3.793 -0.0320 -0.1015 -0.1894
12634DDP     P175800  12.236   3.772   3.408 -0.0456 -0.1837  0.2086
12634DDP     P275801  11.865   3.768   4.213 -0.1723 -0.0500  0.1243
12634DDP     C275802  12.025   3.625   4.602 -0.3585  0.0754  0.1613
12634DDP     C375803  12.009   3.399   3.200  0.0112  0.2752 -0.5091
12634DDP     C475804  12.383   4.252   3.873  0.0569  0.0252 -0.0959
12635DDP     C175805  12.054  19.656  26.745 -0.1078 -0.0446  0.0754
12635DDP     P175806  11.787  19.639  26.431 -0.1277  0.1996  0.2993
12635DDP     P275807  11.705  19.536  26.901 -0.1553 -0.0769 -0.4320
12635DDP     C275808  11.509  19.942  27.187  0.4332 -0.2027 -0.1217
12635DDP     C375809  11.731  19.286  26.115  0.0317 -0.0531  0.0345
12635DDP     C475810  12.444  19.855  26.951 -0.2084  0.0508  0.0679
12636DDP     C175811  11.552  19.472  12.103  0.0625  0.0369 -0.0128
12636DDP     P175812  11.498  19.149  12.540 -0.3843 -0.3103 -0.1212
12636DDP     P275813  11.778  19.857  12.062 -0.0629 -0.2216 -0.0114
12636DDP     C275814  11.890  20.100  12.528 -0.1134  0.2008  0.3589
12636DDP     C375815  11.369  18.757  12.722  0.1487 -0.0101  0.0509
12636DDP     C475816  11.184  19.436  11.788 -0.1283 -0.0133 -0.2325
12637DDP     C175817  15.360   6.307   0.244 -0.0089  0.1998  0.2562
12637DDP     P175818  15.748   6.297  30.347 -0.3842  0.1484  0.0980
12637DDP     P275819  14.886   6.149   0.318  0.2594  0.2052 -0.1386
12637DDP     C275820  14.472   5.898   0.084  0.1048 -0.0040  0.0168
12637DDP     C375821  16.175   6.442  30.005 -0.1629 -0.0604 -0.0802
12637DDP     C475822  15.290   6.640   0.548  0.0871 -0.2174  0.0713
12638DDP     C175823   9.853  15.196  22.506 -0.3642  0.3633  0.0034
12638DDP     P175824   9.571  15.352  22.358  0.1427  0.1584  0.0542
12638DDP     P275825   9.925  15.110  23.024 -0.1858  0.0729 -0.3651
12638DDP     C275826  10.060  15.044  23.456 -0.0778  0.2867 -0.1989
12638DDP     C375827   9.142  15.410  22.530 -0.0044 -0.0391  0.0159
12638DDP     C475828  10.120  14.979  22.186  0.0568  0.2239 -0.1268
12639DDP     C175829   5.863  17.873  17.144 -0.3213  0.0474 -0.0216
12639DDP     P175830   5.775  17.808  16.840  0.2341 -0.1528 -0.1137
12639DDP     P275831   5.880  18.260  17.324  0.2806  0.0734  0.1698
12639DDP     C275832   6.028  18.442  17.685  0.2279  0.1162  0.2489
12639DDP     C375833   5.805  17.652  16.405 -0.2555  0.1223 -0.4143
12639DDP     C475834   5.683  17.578  17.518  0.0331  0.1092  0.1806
12640DDP     C175835  13.967  16.310  28.652 -0.4152  0.1963 -0.2631
12640DDP     P175836  14.004  16.041  28.241  0.4356  0.0935 -0.0066
12640DDP     P275837  14.341  16.101  28.913 -0.1916 -0.1199 -0.0920
12640DDP     C275838  14.586  15.731  28.997  0.2231  0.2924  0.2139
12640DDP     C375839  14.342  15.791  28.173 -0.0185 -0.1181 -0.0872
12640DDP     C475840  13.771  16.613  28.719 -0.0577  0.1067  0.0376
12641DDP     C175841  18.184   4.732  24.462 -0.1866  0.0088  0.2034
12641DDP     P175842  17.945   4.845  24.832  0.0630 -0.0133 -0.1457
12641DDP     P275843  18.484   5.111  24.343 -0.2060  0.1132  0.0460
12641DDP     C275844  18.819   5.408  24.421  0.1880 -0.0014  0.0706
12641DDP     C375845  18.029   5.206  25.202 -0.1147  0.1602  0.2809
12641DDP     C475846  18.273   4.270  24.302 -0.1777  0.0221  0.0094
12642DDP     C175847  28.837   8.322  15.957 -0.0755 -0.2187  0.0910
12642DDP     P175848  28.975   8.022  15.623  0.0466 -0.0937 -0.3039
12642DDP     P275849  28.375   8.248  15.885 -0.0702  0.1799  0.1174
12642DDP     C275850  28.003   7.976  15.949  0.1495  0.0173  0.0412
12642DDP     C375851  29.295   7.777  15.348 -0.4437 -0.0887 -0.2249
12642DDP     C475852  29.222   8.375  16.237  0.3569 -0.0938 -0.3510
12643DDP     C175853  22.420  28.928  22.164 -0.0471  0.1283  0.1294
12643DDP     P175854  22.358  28.502  21.986  0.0336 -0.1425 -0.1266
12643DDP     P275855  22.617  28.843  22.576  0.0827 -0.0580 -0.1247
12643DDP     C275856  22.336  29.049  22.900 -0.1004 -0.2647  0.1013
12643DDP     C375857  22.175  28.085  21.898 -0.1781  0.1359 -0.0764
12643DDP     C475858  22.189  29.203  21.986 -0.3010 -0.1132 -0.2763
12644DDP     C175859   6.816  23.651   5.997 -0.5394  0.3678  0.0509
12644DDP     P175860   6.334  23.382   5.995  0.0284 -0.2712  0.0771
12644DDP     P275861   6.681  24.015   5.925  0.0197  0.1391  0.1380
12644DDP     C275862   6.655  24.360   5.703 -0.2989 -0.3742 -0.1393
12644DDP     C375863   5.996  23.098   5.942  0.2165 -0.1874  0.1890
12644DDP     C475864   7.226  23.479   6.230 -0.2951  0.1694 -0.0940
12645DDP     C175865   2.034  20.932  10.853  0.3756 -0.1594 -0.0075
12645DDP     P175866   1.684  20.641  10.567 -0.0704 -0.2286  0.6009
12645DDP     P275867   1.779  21.253  11.058 -0.0931 -0.3288 -0.0244
12645DDP     C275868   1.561  21.420  11.457 -0.0741 -0.1329 -0.1284
12645DDP     C375869   1.702  20.163  10.406 -0.1094  0.0548 -0.2137
12645DDP     C475870   2.383  20.783  10.928  0.0100 -0.3625 -0.1332
12646DDP     C175871   6.311  18.157  20.277 -0.0919 -0.1310 -0.1428
12646DDP     P175872   6.412  18.077  20.750 -0.1945 -0.0200  0.0249
12646DDP     P275873   5.971  18.445  20.245  0.1978 -0.3182  0.0531
12646DDP     C275874   5.605  18.631  19.939  0.0058  0.0652  0.0629
12646DDP     C375875   6.611  18.207  21.089  0.1029 -0.1885  0.0005
12646DDP     C475876   6.580  17.865  19.950 -0.0289 -0.3061 -0.0373
12647DDP     C175877   2.832  26.480   7.389  0.0053 -0.2034  0.0129
12647DDP     P175878   2.781  26.814   6.954  0.0234  0.0869 -0.0707
12647DDP     P275879   2.976  26.118   7.648  0.0018 -0.1310 -0.0876
12647DDP     C275880   3.158  25.756   7.738 -0.3489  0.1267  0.1769
12647DDP     C375881   2.697  26.670   6.437  0.1603 -0.4167  0.0948
12647DDP     C475882   2.852  26.826   7.462  0.0910  0.2456 -0.1749
12648DDP     C175883  30.117   9.526  27.434 -0.2090 -0.0095  0.0207
12648DDP     P175884  -0.008   9.225  27.676 -0.0176  0.2472  0.0298
12648DDP     P275885   0.131   9.904  27.360 -0.3131  0.0177  0.0824
12648DDP     C275886   0.539   9.892  27.249  0.0308  0.3180  0.1021
12648DDP     C375887   0.430   9.226  27.812 -0.1241 -0.2069  0.1436
12648DDP     C475888  29.718   9.472  27.223 -0.0175  0.2501 -0.1667
12649DDP     C175889  14.860   0.982  18.358  0.3269  0.0804  0.1600
12649DDP     P175890  15.107   0.817  18.671  0.0156  0.1061 -0.1803
12649DDP     P275891  14.602   1.402  18.349 -0.0121 -0.0624 -0.0314
12649DDP     C275892  14.286   1.523  18.174  0.1273 -0.2313  0.0474
12649DDP     C375893  15.218   0.364  18.572  0.3104 -0.2313  0.0390
12649DDP     C475894  14.771   0.836  17.988  0.0003  0.0509 -0.1157
12650DDP     C175895   8.462  24.322  14.723 -0.2037  0.2131  0.1932
12650DDP     P175896   8.846  24.456  14.604 -0.0065 -0.3239 -0.0806
12650DDP     P275897   8.346  24.304  14.299  0.3954  0.0630  0.1517
12650DDP     C275898   8.598  24.409  13.850  0.2523 -0.2934  0.3011
12650DDP     C375899   9.341  24.602  14.654  0.3108  0.1853  0.2391
12650DDP     C475900   8.293  24.008  14.955  0.2016 -0.0638 -0.1544
12651DDP     C175901  26.562  28.310  17.077  0.2468 -0.3125  0.1349
12651DDP     P175902  26.280  27.929  17.119 -0.0447  0.0229  0.1079
12651DDP     P275903  27.027  28.226  17.167 -0.0604 -0.0738 -0.0111
12651DDP     C275904  27.388  28.156  17.241  0.0990 -0.2406  0.4112
12651DDP     C375905  26.162  27.541  16.905 -0.4734  0.0561 -0.2071
12651DDP     C475906  26.352  28.636  16.958 -0.1205 -0.1510  0.1973
12652DDP     C175907  20.660  16.812  18.944 -0.1090 -0.1535 -0.1508
12652DDP     P175908  20.808  17.070  18.772  0.4001 -0.0533 -0.1617
12652DDP     P275909  20.913  16.744  19.225  0.0796 -0.0240 -0.1641
12652DDP     C275910  21.309  16.870  19.420  0.3321  0.0829 -0.3964
12652DDP     C375911  21.207  17.409  18.574 -0.1569 -0.1294  0.0734
12652DDP     C475912  20.393  16.404  18.919  0.1807  0.3372  0.1509
12653DDP     C175913  28.909  10.466  25.812  0.3565  0.1547 -0.2777
12653DDP     P175914  28.533  10.417  25.984 -0.1581  0.1441  0.2153
12653DDP     P275915  29.171  10.195  25.612 -0.0002 -0.0288 -0.1139
12653DDP     C275916  29.360   9.739  25.450 -0.0715 -0.0697 -0.0852
12653DDP     C375917  28.164  10.267  26.001  0.1832  0.0155 -0.1762
12653DDP     C475918  29.119  10.856  26.027  0.1859  0.0215 -0.0914
12654DDP     C175919   3.045  12.534  19.637 -0.1380 -0.1949  0.0139
12654DDP     P175920   2.659  12.758  19.581  0.1891 -0.1802  0.1988
12654DDP     P275921   3.477  12.723  19.636 -0.0241  0.2442  0.0945
12654DDP     C275922   3.757  12.812  20.028  0.2594 -0.0694  0.1176
12654DDP     C375923   2.197  12.836  19.391 -0.2153  0.0532  0.2026
12654DDP     C475924   3.224  12.092  19.449 -0.1838 -0.2150 -0.0287
12655DDP     C175925  26.284  25.350  10.865 -0.3897  0.1364  0.2278
12655DDP     P175926  26.137  25.074  10.620  0.1100  0.0817  0.0413
12655DDP     P275927  26.734  25.403  10.723 -0.2311  0.0629 -0.0803
12655DDP     C275928  27.113  25.329  11.001  0.1331 -0.1350  0.3631
12655DDP     C375929  25.898  24.818  10.321  0.1429  0.0314  0.0572
12655DDP     C475930  25.942  25.426  11.179 -0.2748  0.1862 -0.0215
12656DDP     C175931   1.964  11.352  28.476  0.1704  0.0682 -0.2350
12656DDP     P175932   1.656  10.975  28.454  0.2217 -0.0764 -0.0917
12656DDP     P275933   1.693  11.695  28.568  0.1455  0.2637 -0.1836
12656DDP     C275934   1.261  11.851  28.400  0.1244 -0.1099 -0.1112
12656DDP     C375935   1.187  10.842  28.425  0.0008 -0.0254 -0.0839
12656DDP     C475936   2.318  11.442  28.733  0.1744  0.2772  0.2176
12657DDP     C175937   1.560  28.908   2.930  0.5056 -0.1884 -0.0944
12657DDP     P175938   1.425  29.318   3.192 -0.0060 -0.1229 -0.1263
12657DDP     P275939   1.807  28.616   3.065  0.0215  0.0470 -0.0849
12657DDP     C275940   2.097  28.163   3.209  0.0860  0.1307  0.3061
12657DDP     C375941   1.469  29.764   3.294 -0.0057  0.2480  0.0211
12657DDP     C475942   1.353  28.855   2.565 -0.2673 -0.1391  0.2493
12658DDP     C175943   1.767  19.095  11.977 -0.2488  0.1208 -0.0070
12658DDP     P175944   2.113  18.807  11.909 -0.0962 -0.1564  0.0729
12658DDP     P275945   1.852  19.462  11.671 -0.0167 -0.3485 -0.2747
12658DDP     C275946   2.183  19.521  11.424  0.1767 -0.0530  0.2100
12658DDP     C375947   2.328  18.456  11.965 -0.2335  0.0103 -0.0004
12658DDP     C475948   1.366  18.965  12.244 -0.2355 -0.3107  0.0002
12659DDP     C175949  28.428  13.392  13.511 -0.3195  0.2665  0.1094
12659DDP     P175950  28.397  13.774  13.589  0.2929  0.1385 -0.1691
12659DDP     P275951  28.051  13.216  13.305 -0.3555  0.0848  0.4159
12659DDP     C275952  27.922  12.870  12.959  0.0735 -0.1353 -0.0863
12659DDP     C375953  28.429  14.110  13.341  0.0152  0.2599  0.2147
12659DDP     C475954  28.791  13.056  13.514  0.0520  0.0314 -0.1596
12660DDP     C175955   2.161   9.797  18.774  0.1676 -0.0143 -0.1851
12660DDP     P175956   2.275  10.009  18.405 -0.0962 -0.0198  0.0283
12660DDP     P275957   2.453   9.775  18.863  0.0281  0.2401  0.0528
12660DDP     C275958   2.767   9.882  18.574  0.2028  0.1030 -0.2965
12660DDP     C375959   2.270  10.367  18.127 -0.1298  0.1570  0.0722
12660DDP     C475960   1.900   9.501  18.895  0.1241 -0.2743 -0.1327
12661DDP     C175961  24.740   9.781  16.487  0.0871 -0.0190 -0.2123
12661DDP     P175962  24.879  10.253  16.339  0.0723 -0.2700 -0.1254
12661DDP     P275963  24.560   9.433  16.264 -0.2090 -0.0277  0.0132
12661DDP     C275964  24.557   8.978  16.250  0.0387  0.0859  0.1217
12661DDP     C375965  25.265  10.565  16.422 -0.0657  0.1054  0.0644
12661DDP     C475966  24.878   9.611  16.933  0.0767 -0.0310  0.2753
12662DDP     C175967  14.564  11.388   9.092 -0.1863 -0.1509  0.1610
12662DDP     P175968  14.220  11.053   9.160 -0.4375  0.0112  0.2259
12662DDP     P275969  14.646  11.561   8.575  0.1696  0.0769 -0.2264
12662DDP     C275970  14.967  11.957   8.518 -0.0584 -0.1477 -0.1523
12662DDP     C375971  14.094  10.637   9.246  0.1580 -0.0523  0.0170
12662DDP     C475972  14.796  11.571   9.477 -0.0731  0.0721 -0.0139
12663DDP     C175973  16.284   6.167  28.869  0.1259 -0.0296 -0.0032
12663DDP     P175974  16.632   6.303  28.732  0.0741 -0.0084 -0.1576
12663DDP     P275975  16.026   6.554  29.080 -0.1942 -0.0938 -0.1543
12663DDP     C275976  15.976   6.673  29.544  0.2501  0.1930  0.0901
12663DDP     C375977  16.937   6.500  28.975 -0.1676  0.0301  0.1215
12663DDP     C475978  16.027   5.729  29.006  0.4452 -0.1635  0.0938
12664DDP     C175979   3.287  13.431   5.768 -0.1117  0.1073  0.0964
12664DDP     P175980   3.522  13.040   5.812 -0.2087  0.1528  0.5265
12664DDP     P275981   3.491  13.854   6.059  0.0655 -0.0244 -0.1482
12664DDP     C275982   3.474  14.309   6.153 -0.2870 -0.1040  0.0388
12664DDP     C375983   3.449  12.658   5.877  0.3190  0.0613  0.2595
12664DDP     C475984   2.878  13.591   5.704 -0.3809  0.0695 -0.2453
12665DDP     C175985  16.731  25.224   1.083 -0.1329 -0.0152 -0.3023
12665DDP     P175986  17.154  25.168   1.154 -0.1001 -0.2191  0.0638
12665DDP     P275987  16.705  25.536   0.917 -0.0612  0.0968 -0.0344
12665DDP     C275988  16.529  25.847   0.533 -0.1823 -0.0759  0.3316
12665DDP     C375989  17.603  25.119   1.236 -0.3285 -0.0214  0.1173
12665DDP     C475990  16.396  25.031   0.978  0.4078  0.1253  0.0005
12666DDP     C175991  11.467   5.013  12.682 -0.1182 -0.2049 -0.2546
12666DDP     P175992  11.414   5.106  13.050 -0.0051 -0.1997  0.3608
12666DDP     P275993  11.219   4.639  12.477 -0.0842  0.3586  0.2389
12666DDP     C275994  11.193   4.177  12.345 -0.0300  0.3259 -0.0525
12666DDP     C375995  11.651   5.340  13.397  0.0779  0.2055 -0.0737
12666DDP     C475996  11.727   5.261  12.425 -0.1580 -0.1775 -0.0562
12667DDP     C175997  27.070  11.314  25.972 -0.0753  0.0661 -0.0112
12667DDP     P175998  27.217  11.257  25.515 -0.1394  0.1543  0.1442
12667DDP     P275999  27.178  11.593  26.291 -0.1827  0.0941  0.1724
12667DDP     C276000  27.513  11.877  26.370  0.1637 -0.2812 -0.2785
12667DDP     C376001  27.386  10.841  25.343 -0.1157  0.0534  0.1647
12667DDP     C476002  26.765  11.083  25.980 -0.0734  0.0425 -0.0267
12668DDP     C176003  20.119  18.817  18.945 -0.1198  0.1077  0.1705
12668DDP     P176004  19.899  18.949  18.713  0.1539  0.2707 -0.2912
12668DDP     P276005  20.168  18.384  18.834  0.0332  0.1503  0.0788
12668DDP     C276006  20.153  17.954  18.753  0.2661  0.0975 -0.2227
12668DDP     C376007  19.869  18.848  18.215  0.0605 -0.1357 -0.4137
12668DDP     C476008  20.467  18.977  19.098 -0.0926 -0.0457  0.0701
12669DDP     C176009  19.441   8.738   4.015 -0.0305 -0.1168  0.2358
12669DDP     P176010  19.833   8.696   4.128 -0.1217 -0.1782 -0.0766
12669DDP     P276011  19.096   8.557   4.175 -0.2212 -0.0451 -0.0478
12669DDP     C276012  18.688   8.639   4.306 -0.2131  0.0356  0.4569
12669DDP     C376013  20.064   8.431   4.399  0.1289 -0.0312 -0.2298
12669DDP     C476014  19.583   9.137   3.765 -0.1488  0.1188 -0.1873
12670DDP     C176015  10.342  28.484   3.586 -0.0005 -0.0615  0.1573
12670DDP     P176016  10.720  28.472   3.320 -0.1196  0.0604 -0.0235
12670DDP     P276017  10.371  28.233   3.986  0.0628 -0.2281 -0.1632
12670DDP     C276018  10.237  27.869   4.201  0.0418 -0.0914 -0.2495
12670DDP     C376019  11.080  28.335   3.090  0.2268 -0.3831  0.0652
12670DDP     C476020  10.077  28.852   3.610  0.1512  0.0694  0.2075
12671DDP     C176021   9.987  25.422  24.262 -0.1528  0.3129  0.0444
12671DDP     P176022   9.729  25.757  24.303  0.0219  0.2695  0.2294
12671DDP     P276023   9.941  25.073  24.100 -0.1223  0.0631  0.2032
12671DDP     C276024   9.805  24.659  24.212 -0.0179 -0.0462  0.0970
12671DDP     C376025   9.877  26.236  24.366 -0.0306 -0.2879 -0.1167
12671DDP     C476026  10.309  25.509  24.464  0.1118 -0.0731 -0.0674
12672DDP     C176027  25.038  23.445   4.059  0.0128 -0.1588 -0.1894
12672DDP     P176028  25.470  23.514   3.870 -0.2177 -0.1994  0.2394
12672DDP     P276029  25.044  23.034   4.327 -0.0644 -0.2868 -0.1010
12672DDP     C276030  25.262  23.042   4.773  0.0463  0.2097 -0.3059
12672DDP     C376031  25.835  23.461   3.536  0.0798 -0.0683 -0.2157
12672DDP     C476032  24.697  23.738   4.034 -0.0868  0.2326  0.1009
12673DDP     C176033  11.701   3.750  27.029 -0.1495  0.0201  0.2212
12673DDP     P176034  11.651   4.004  26.671 -0.1420 -0.2471 -0.2411
12673DDP     P276035  11.426   3.422  26.944 -0.1158  0.0605 -0.0270
12673DDP     C276036  11.129   3.326  26.775 -0.0177  0.3014  0.0868
12673DDP     C376037  11.936   4.293  26.591  0.1469  0.2327  0.0792
12673DDP     C476038  12.072   3.674  27.165  0.1679 -0.0892  0.2547
12674DDP     C176039  23.135   9.021  19.445 -0.2571  0.1127  0.1660
12674DDP     P176040  23.420   8.697  19.438  0.2042 -0.2742 -0.0761
12674DDP     P276041  23.010   8.940  18.993 -0.0333 -0.1382  0.0449
12674DDP     C276042  22.893   8.847  18.561  0.0721 -0.1460  0.0138
12674DDP     C376043  23.869   8.616  19.339 -0.1580  0.0893  0.0234
12674DDP     C476044  22.863   9.208  19.702  0.1551 -0.0417  0.1492
12675DDP     C176045  25.219   9.417  25.951 -0.1549  0.1514 -0.0015
12675DDP     P176046  25.395   9.806  25.810 -0.0081 -0.1190 -0.2312
12675DDP     P276047  24.863   9.298  26.110 -0.0124  0.1083  0.2291
12675DDP     C276048  24.540   8.948  26.088  0.1781 -0.0530  0.1654
12675DDP     C376049  25.322  10.105  25.464  0.0921 -0.0783 -0.0823
12675DDP     C476050  25.598   9.209  25.796  0.0196  0.0750 -0.0983
12676DDP     C176051  23.729   7.357  20.853 -0.1260  0.2377  0.0494
12676DDP     P176052  23.763   7.638  21.259 -0.0271 -0.1001 -0.0682
12676DDP     P276053  23.564   7.029  20.797  0.0676  0.2723 -0.1896
12676DDP     C276054  23.510   6.668  21.005 -0.0203 -0.2817  0.1808
12676DDP     C376055  24.080   7.826  21.598 -0.0041  0.1451  0.3030
12676DDP     C476056  23.747   7.563  20.511  0.2209 -0.0009 -0.1518
12677DDP     C176057  15.792  18.562   6.796 -0.1029  0.3058 -0.0377
12677DDP     P176058  15.420  18.550   7.126 -0.1439  0.2480  0.0685
12677DDP     P276059  15.895  18.913   6.626 -0.0822  0.1431 -0.1069
12677DDP     C276060  15.864  19.066   6.265 -0.1444  0.3370  0.2529
12677DDP     C376061  14.938  18.605   7.323 -0.0946 -0.0244 -0.1904
12677DDP     C476062  15.981  18.138   6.772  0.5734 -0.2452 -0.0523
12678DDP     C176063   8.857  27.378  28.780 -0.0366  0.2550 -0.0606
12678DDP     P176064   8.660  27.528  28.266  0.0058 -0.1294 -0.1774
12678DDP     P276065   9.164  27.550  29.026  0.3040 -0.0030 -0.0666
12678DDP     C276066   9.484  27.385  29.397 -0.1544  0.1245 -0.3481
12678DDP     C376067   8.532  27.872  27.927 -0.1932 -0.1405 -0.0332
12678DDP     C476068   8.552  27.046  29.117  0.2423  0.0488 -0.1581
12679DDP     C176069   2.263  10.044  10.376 -0.1563  0.0187  0.0043
12679DDP     P176070   2.510  10.276   9.993  0.2791  0.3269 -0.2654
12679DDP     P276071   2.236   9.603  10.527 -0.3625 -0.1591 -0.0608
12679DDP     C276072   2.075   9.149  10.847  0.0462  0.2055  0.0782
12679DDP     C376073   2.834  10.483   9.852  0.1600 -0.2023 -0.3217
12679DDP     C476074   1.908  10.232  10.597 -0.0879  0.1126  0.4082
12680DDP     C176075  10.799  23.124  23.774 -0.0977 -0.0658 -0.0553
12680DDP     P176076  10.684  23.253  23.372  0.0132 -0.0537  0.1466
12680DDP     P276077  10.608  22.869  24.016 -0.2103 -0.0964  0.2602
12680DDP     C276078  10.561  22.976  24.517 -0.2815  0.2186  0.0125
12680DDP     C376079  10.808  23.430  22.999  0.1292 -0.2200  0.2043
12680DDP     C476080  11.134  23.266  24.062  0.0853  0.0386 -0.0740
12681DDP     C176081  12.724   7.923  11.651 -0.2376 -0.0666 -0.0546
12681DDP     P176082  12.839   7.745  12.013 -0.2843 -0.1107  0.2198
12681DDP     P276083  12.992   8.186  11.397 -0.0022 -0.2621  0.1829
12681DDP     C276084  13.365   8.133  11.278 -0.1309  0.1700 -0.0068
12681DDP     C376085  12.903   7.574  12.443 -0.0144  0.2035  0.1554
12681DDP     C476086  12.282   7.829  11.623  0.1184  0.3198 -0.0150
12682DDP     C176087  17.978  12.990   8.582  0.0333  0.0822 -0.2791
12682DDP     P176088  17.606  12.633   8.662 -0.0918 -0.1245  0.2346
12682DDP     P276089  18.301  13.045   8.868  0.1504  0.0285  0.2240
12682DDP     C276090  18.525  13.259   9.249  0.0374 -0.1861  0.1899
12682DDP     C376091  17.556  12.128   8.771 -0.0020  0.1383  0.2340
12682DDP     C476092  17.993  13.220   8.213  0.2793 -0.1994  0.1993
12683DDP     C176093  15.257  25.772  18.054  0.0341  0.1595 -0.0041
12683DDP     P176094  15.444  26.194  18.105  0.1063 -0.2548 -0.0194
12683DDP     P276095  15.020  25.408  18.124 -0.0492 -0.0204  0.0224
12683DDP     C276096  14.751  25.122  17.853  0.4328 -0.0444 -0.0356
12683DDP     C376097  15.614  26.588  18.081 -0.3383  0.0408 -0.1860
12683DDP     C476098  15.505  25.613  17.654  0.3386  0.2125 -0.5761
12684DDP     C176099  24.126  19.747   4.772 -0.2957 -0.2645 -0.0888
12684DDP     P176100  23.859  19.470   4.540 -0.0522  0.2106  0.0352
12684DDP     P276101  23.926  20.032   5.054 -0.0969  0.0316  0.0753
12684DDP     C276102  23.734  20.383   5.221  0.0546 -0.2001  0.0155
12684DDP     C376103  23.662  19.253   4.110 -0.5688  0.0781 -0.2172
12684DDP     C476104  24.564  19.584   4.813  0.0820  0.1797 -0.1598
12685DDP     C176105   9.584  21.458  27.445  0.4785 -0.0909 -0.1675
12685DDP     P176106   9.675  20.996  27.348 -0.0249  0.1868  0.1818
12685DDP     P276107   9.836  21.904  27.337  0.0225  0.1167  0.2174
12685DDP     C276108   9.655  22.276  27.178  0.0770 -0.1109  0.1752
12685DDP     C376109  10.087  20.905  27.314  0.1823 -0.0204  0.0100
12685DDP     C476110   9.359  21.441  27.934 -0.1921  0.1550  0.2262
12686DDP     C176111  24.703   3.182  18.196  0.2412 -0.2437  0.0754
12686DDP     P176112  24.916   2.883  17.901  0.0056  0.2324  0.1252
12686DDP     P276113  24.848   3.148  18.633 -0.2046 -0.2306  0.1051
12686DDP     C276114  25.121   2.958  18.990 -0.1762 -0.1103  0.0273
12686DDP     C376115  25.124   2.431  17.949  0.1251  0.1918  0.0905
12686DDP     C476116  24.192   3.275  18.249  0.1747  0.2041  0.0740
12687DDP     C176117  27.394  24.722  11.172  0.2452  0.0676 -0.2742
12687DDP     P176118  26.970  24.735  11.298 -0.1041  0.1686  0.0142
12687DDP     P276119  27.495  24.382  11.137 -0.2935  0.2453  0.0725
12687DDP     C276120  27.360  23.920  10.977  0.4907 -0.2111  0.0621
12687DDP     C376121  26.804  24.438  11.659 -0.0128  0.3496  0.1634
12687DDP     C476122  27.489  25.024  10.937 -0.1002 -0.4718 -0.0541
12688DDP     C176123  12.003  26.364  19.989  0.0482  0.0908  0.0730
12688DDP     P176124  11.976  26.783  20.107 -0.2676 -0.0932 -0.3598
12688DDP     P276125  12.226  26.055  20.233 -0.3449 -0.4864 -0.0674
12688DDP     C276126  12.186  25.767  20.625  0.4460  0.3370  0.0185
12688DDP     C376127  11.913  27.093  20.468  0.0055 -0.0013 -0.3590
12688DDP     C476128  11.965  26.326  19.535 -0.1876  0.1421 -0.0792
12689DDP     C176129  26.116   0.302   4.265 -0.1759  0.0339 -0.0092
12689DDP     P176130  26.250   0.718   4.426 -0.1426  0.0002 -0.0904
12689DDP     P276131  25.698   0.217   4.589  0.1467 -0.0714  0.3068
12689DDP     C276132  25.324   0.326   4.384  0.0630  0.2007  0.0553
12689DDP     C376133  26.420   0.872   4.803 -0.0368 -0.0429 -0.0116
12689DDP     C476134  26.471   0.096   4.171  0.2674  0.0666  0.4464
12690DDP     C176135   3.123  23.866   3.910 -0.0345  0.2761  0.0032
12690DDP     P176136   3.105  23.617   3.619  0.3197  0.1222  0.1540
12690DDP     P276137   3.312  24.147   3.770  0.2304 -0.0007  0.2956
12690DDP     C276138   3.322  24.454   3.458  0.0663  0.0524  0.0680
12690DDP     C376139   2.885  23.313   3.475 -0.0423  0.1606  0.1772
12690DDP     C476140   2.915  23.863   4.335 -0.1606  0.2592 -0.1608
12691DDP     C176141  16.710  11.736  28.247  0.1581  0.0073  0.0952
12691DDP     P176142  16.450  11.904  27.959  0.1596 -0.0973 -0.1594
12691DDP     P276143  16.484  11.390  28.169  0.0855 -0.2023  0.1003
12691DDP     C276144  16.323  11.041  28.446 -0.0963 -0.1378  0.0945
12691DDP     C376145  16.671  11.928  27.511  0.0164  0.0555  0.1305
12691DDP     C476146  17.062  11.679  28.332 -0.3447 -0.0652  0.4541
12692DDP     C176147  17.215  18.360  26.801  0.5138 -0.0909  0.0691
12692DDP     P176148  17.388  18.088  26.978 -0.0073  0.1001 -0.1856
12692DDP     P276149  16.880  18.354  26.409  0.4057  0.0182  0.0681
12692DDP     C276150  16.460  18.559  26.242 -0.0503  0.2920 -0.2649
12692DDP     C376151  17.746  18.066  27.305 -0.0672  0.2452  0.0850
12692DDP     C476152  17.481  18.715  26.802 -0.0985  0.1685  0.0610
12693DDP     C176153  14.310   5.353  15.942  0.1656 -0.2315 -0.0461
12693DDP     P176154  13.877   5.330  16.068 -0.4321  0.1051 -0.0494
12693DDP     P276155  14.552   5.132  16.328 -0.2210 -0.0267 -0.2339
12693DDP     C276156  14.594   4.733  16.505 -0.1749  0.1257  0.0750
12693DDP     C376157  13.452   5.541  16.253  0.1306 -0.1328  0.0833
12693DDP     C476158  14.512   5.632  15.736 -0.1339 -0.1306  0.0846
12694DDP     C176159  18.669  19.076   5.645 -0.0651 -0.0148  0.0984
12694DDP     P176160  19.045  19.149   5.893  0.0664 -0.1878 -0.2979
12694DDP     P276161  18.684  18.721   5.361  0.1409 -0.0872  0.0080
12694DDP     C276162  18.842  18.394   5.112 -0.2314  0.1991 -0.1049
12694DDP     C376163  19.398  19.078   6.256 -0.3336 -0.2670 -0.0932
12694DDP     C476164  18.631  19.407   5.379  0.1449 -0.1596 -0.0226
12695DDP     C176165  10.541  12.716  28.640  0.0404  0.0595 -0.1296
12695DDP     P176166  10.160  12.777  28.523 -0.2357 -0.2192 -0.0461
12695DDP     P276167  10.826  12.979  28.479  0.1178 -0.0242 -0.1591
12695DDP     C276168  11.132  13.175  28.334  0.0855  0.2434 -0.0039
12695DDP     C376169   9.827  12.655  28.469  0.0690 -0.0275  0.0160
12695DDP     C476170  10.576  12.348  28.875 -0.0253  0.3242 -0.0582
12696DDP     C176171   0.275   7.197   7.215  0.2088 -0.0204  0.2109
12696DDP     P176172   0.405   6.710   7.142 -0.3389  0.1076  0.3026
12696DDP     P276173   0.405   7.493   6.945  0.2319 -0.3261  0.2639
12696DDP     C276174   0.559   7.837   6.639 -0.0105  0.0475 -0.3414
12696DDP     C376175   0.378   6.405   6.878 -0.2588 -0.0020 -0.1204
12696DDP     C476176   0.245   7.234   7.620  0.0971  0.0886 -0.1903
12697DDP     C176177   9.309   3.764  20.586  0.0070  0.0956 -0.1638
12697DDP     P176178   9.346   3.461  20.845 -0.1045 -0.0609 -0.3184
12697DDP     P276179   9.755   3.575  20.428 -0.1151  0.1064  0.0268
12697DDP     C276180  10.065   3.649  20.281  0.0196 -0.2343  0.0771
12697DDP     C376181   9.403   3.599  21.291 -0.2792  0.4380  0.0302
12697DDP     C476182   9.193   4.183  20.742  0.0033  0.0295 -0.1324
12698DDP     C176183   0.660   1.676  21.346  0.2158  0.2265  0.0755
12698DDP     P176184   0.779   1.924  21.766  0.0973  0.0327  0.0321
12698DDP     P276185   0.674   1.252  21.223  0.0385  0.3495  0.1955
12698DDP     C276186   0.677   0.800  21.118  0.2277  0.1463  0.1314
12698DDP     C376187   0.725   2.333  21.764 -0.3546 -0.2970  0.1612
12698DDP     C476188   0.309   1.795  21.046 -0.1176 -0.3958  0.0869
12699DDP     C176189  22.866  21.217   8.626 -0.3440 -0.0004 -0.1802
12699DDP     P176190  22.966  21.383   8.229  0.0097  0.1205 -0.0621
12699DDP     P276191  23.028  21.136   8.972 -0.1776  0.0806 -0.2088
12699DDP     C276192  23.381  21.188   9.274 -0.2522 -0.1265 -0.1612
12699DDP     C376193  22.922  21.216   7.810  0.0313  0.2260  0.0153
12699DDP     C476194  22.384  21.200   8.595  0.0419 -0.1229 -0.1526
12700DDP     C176195   6.523   1.721  15.551 -0.3816  0.2177 -0.1157
12700DDP     P176196   6.276   1.969  15.556 -0.1488  0.0473  0.1070
12700DDP     P276197   6.489   1.328  15.805  0.2583 -0.1769 -0.3733
12700DDP     C276198   6.439   1.394  16.262  0.2607 -0.1102  0.0677
12700DDP     C376199   6.084   2.231  15.368  0.0610 -0.0289  0.0875
12700DDP     C476200   6.801   1.719  15.188 -0.0153 -0.0626  0.3072
12701DDP     C176201   0.279  12.883   1.619  0.0474  0.6703 -0.1542
12701DDP     P176202   0.667  12.674   1.823  0.3047  0.1719 -0.0226
12701DDP     P276203  30.289  13.130   1.864  0.0506 -0.0373  0.1542
12701DDP     C276204  29.884  13.165   2.044  0.0877  0.0809  0.1386
12701DDP     C376205   0.667  12.444   2.158  0.1062  0.3845 -0.0080
12701DDP     C476206   0.085  12.652   1.239 -0.0997 -0.0854  0.1885
12702DDP     C176207  21.130  13.867  13.141  0.2405 -0.2840 -0.0929
12702DDP     P176208  20.792  13.812  12.870 -0.0877 -0.0671  0.0082
12702DDP     P276209  21.181  13.751  13.489 -0.1023  0.0130 -0.0986
12702DDP     C276210  21.091  13.508  13.908 -0.1840 -0.1010 -0.2087
12702DDP     C376211  20.380  13.921  13.064  0.0541 -0.0615  0.3214
12702DDP     C476212  21.493  13.796  12.945  0.0320  0.2317 -0.0454
12703DDP     C176213  19.140   7.413  24.216 -0.2803 -0.0147 -0.0074
12703DDP     P176214  19.281   7.673  24.500  0.1023 -0.1893 -0.1507
12703DDP     P276215  19.266   6.892  24.248 -0.0342  0.2023 -0.0255
12703DDP     C276216  19.644   6.615  24.269  0.0324  0.2035 -0.2062
12703DDP     C376217  19.309   8.059  24.779 -0.0700  0.1664 -0.1307
12703DDP     C476218  18.861   7.571  23.837  0.0435 -0.0004  0.1205
12704DDP     C176219   4.808  18.693   0.913 -0.1966  0.2369  0.0207
12704DDP     P176220   5.061  18.351   0.780 -0.0740  0.0363  0.1609
12704DDP     P276221   4.656  18.821   0.591 -0.2417  0.0916 -0.0322
12704DDP     C276222   4.605  19.153   0.274 -0.3011  0.0955 -0.3893
12704DDP     C376223   5.244  18.011   0.821 -0.0351  0.3184  0.2453
12704DDP     C476224   4.767  18.803   1.340 -0.0716  0.0599  0.3081
12705DDP     C176225  21.440  26.694  18.246 -0.0382 -0.0030  0.1611
12705DDP     P176226  21.511  27.124  18.145  0.3002  0.4949 -0.0913
12705DDP     P276227  21.161  26.698  18.572  0.2993  0.0231 -0.4069
12705DDP     C276228  20.969  26.518  18.885  0.1862  0.0353  0.1543
12705DDP     C376229  21.796  27.406  18.214 -0.4587 -0.0179 -0.0250
12705DDP     C476230  21.463  26.454  17.917  0.1449  0.3526 -0.0428
12706DDP     C176231  15.375  14.449   4.955 -0.1393 -0.0387 -0.1060
12706DDP     P176232  15.339  14.458   5.390  0.1394  0.2248 -0.2256
12706DDP     P276233  15.392  14.704   4.651  0.0253 -0.0196 -0.2052
12706DDP     C276234  15.123  14.708   4.385 -0.0006  0.3665  0.0214
12706DDP     C376235  15.582  14.226   5.804 -0.1695  0.1225 -0.0739
12706DDP     C476236  15.661  14.069   5.008 -0.3763 -0.1746  0.3477
12707DDP     C176237  17.139  19.140   0.897  0.1234 -0.0394  0.0393
12707DDP     P176238  16.774  19.065   0.701  0.0649 -0.1294 -0.0578
12707DDP     P276239  16.989  18.909   1.252 -0.0022  0.0320  0.1733
12707DDP     C276240  16.842  18.697   1.509  0.1652 -0.0649  0.0544
12707DDP     C376241  16.480  18.841   0.753  0.2363  0.1767 -0.0150
12707DDP     C476242  17.256  19.542   0.773  0.0238  0.2024  0.1781
12708DDP     C176243   7.045  23.200   9.731 -0.3137  0.0531  0.2026
12708DDP     P176244   6.915  23.209  10.052 -0.0823 -0.0997 -0.0549
12708DDP     P276245   7.588  23.384   9.683 -0.0300  0.1130  0.0661
12708DDP     C276246   7.955  23.471   9.461 -0.1717 -0.2872  0.1279
12708DDP     C376247   6.585  23.377  10.256 -0.0979  0.0357  0.2829
12708DDP     C476248   6.744  23.288   9.359 -0.3253  0.0700  0.0938
12709DDP     C176249  30.181  12.661   1.728  0.2577  0.1260 -0.2343
12709DDP     P176250   0.187  12.603   2.034  0.2661 -0.1329  0.1241
12709DDP     P276251  29.968  12.873   1.403 -0.0683  0.0533  0.0269
12709DDP     C276252  29.631  13.071   1.461 -0.0543 -0.2292 -0.0410
12709DDP     C376253   0.453  12.869   2.403 -0.0739 -0.0086 -0.0416
12709DDP     C476254  30.128  12.289   1.606  0.3614  0.1836  0.0189
12710DDP     C176255   3.478  28.841  17.755  0.0015 -0.0900  0.0245
12710DDP     P176256   3.979  28.933  17.807  0.0389 -0.2094 -0.1202
12710DDP     P276257   3.219  29.086  18.024  0.1017 -0.2091 -0.0259
12710DDP     C276258   2.958  29.254  18.387 -0.1331  0.0993  0.4222
12710DDP     C376259   4.277  28.976  17.491  0.0692  0.1783 -0.3351
12710DDP     C476260   3.228  28.621  17.457 -0.2126 -0.1093  0.2700
12711DDP     C176261  30.275  13.724   5.171 -0.0901  0.0425  0.0859
12711DDP     P176262  30.007  13.464   5.587 -0.2311 -0.0225 -0.1910
12711DDP     P276263  30.005  13.913   4.873  0.2035 -0.1719 -0.0183
12711DDP     C276264  29.937  13.948   4.499  0.0646 -0.1458  0.0240
12711DDP     C376265  30.141  13.207   5.982  0.1732 -0.1623 -0.2104
12711DDP     C476266   0.371  13.649   5.178  0.0044 -0.4451 -0.1120
12712DDP     C176267   8.775  15.817  24.637 -0.0996 -0.0723  0.0527
12712DDP     P176268   8.902  15.459  24.841  0.2293  0.0722  0.0535
12712DDP     P276269   8.880  15.912  24.249  0.2110 -0.0377  0.0277
12712DDP     C276270   9.317  15.976  24.060 -0.3308  0.0056 -0.0552
12712DDP     C376271   8.623  15.002  24.754  0.0597  0.3511 -0.3331
12712DDP     C476272   8.864  16.199  24.891  0.0144  0.3615  0.3637
12713DDP     C176273  29.117  24.794  19.298  0.2845  0.1110  0.5068
12713DDP     P176274  29.530  24.829  19.076 -0.0099  0.1818 -0.3065
12713DDP     P276275  28.770  24.918  19.070  0.0299 -0.0997  0.2285
12713DDP     C276276  28.321  24.767  19.055  0.0039  0.0239 -0.2337
12713DDP     C376277  29.906  25.153  19.047 -0.0620  0.3200 -0.3825
12713DDP     C476278  29.038  24.664  19.764 -0.3247 -0.1168 -0.1783
12714DDP     C176279  12.538  19.872  26.349 -0.0013  0.0765 -0.4164
12714DDP     P176280  12.148  20.022  26.427 -0.0255  0.2289 -0.0511
12714DDP     P276281  12.822  19.868  25.908  0.1154  0.0417 -0.1644
12714DDP     C276282  12.874  20.077  25.490  0.0370  0.0912 -0.1475
12714DDP     C376283  11.890  20.088  26.872  0.0899  0.2400 -0.4362
12714DDP     C476284  12.791  20.011  26.666 -0.2438  0.0794  0.0284
12715DDP     C176285  10.961   8.183  23.335  0.1110 -0.0362  0.0450
12715DDP     P176286  10.846   8.543  23.630 -0.0272  0.1420  0.2417
12715DDP     P276287  11.302   7.914  23.343  0.1859 -0.0775  0.0414
12715DDP     C276288  11.617   8.023  23.618 -0.2458  0.1633  0.2676
12715DDP     C376289  10.633   8.960  23.684  0.0521  0.0822 -0.0918
12715DDP     C476290  10.537   7.929  23.320 -0.1241 -0.0617 -0.0179
12716DDP     C176291  15.031  24.211   9.852  0.1482  0.1394 -0.3464
12716DDP     P176292  15.325  23.992   9.493  0.1087  0.1164  0.2265
12716DDP     P276293  14.594  24.017   9.934  0.1048  0.2375  0.1612
12716DDP     C276294  14.303  23.851   9.648  0.1926 -0.2507 -0.4267
12716DDP     C376295  15.514  23.695   9.243  0.0560 -0.4806  0.1033
12716DDP     C476296  15.237  24.317  10.158 -0.0968 -0.0786  0.2043
12717DDP     C176297   6.035   9.383   3.332  0.2200 -0.2142 -0.1117
12717DDP     P176298   6.182   9.014   3.567  0.1485 -0.0453 -0.0044
12717DDP     P276299   5.874   9.363   2.936 -0.0515  0.3933  0.0517
12717DDP     C276300   6.004   9.498   2.467  0.4314 -0.1215  0.3815
12717DDP     C376301   6.309   8.624   3.688 -0.0609  0.0762  0.1428
12717DDP     C476302   6.085   9.698   3.435 -0.1514  0.1921 -0.1015
12718DDP     C176303  17.764  15.482  24.877  0.0098  0.2459 -0.0031
12718DDP     P176304  17.607  15.663  25.299  0.0391  0.0520 -0.0345
12718DDP     P276305  18.096  15.814  24.692  0.0499  0.2416  0.2206
12718DDP     C276306  18.284  16.301  24.665 -0.0441  0.1202 -0.0519
12718DDP     C376307  17.269  15.919  25.448 -0.1544  0.1953 -0.1950
12718DDP     C476308  17.677  15.189  24.452 -0.0222  0.0197 -0.1699
12719DDP     C176309  16.646  28.125   0.565  0.2202  0.0329  0.1682
12719DDP     P176310  16.200  28.242   0.481  0.0365 -0.1232  0.1023
12719DDP     P276311  16.711  27.819   0.779 -0.3361 -0.0397  0.1118
12719DDP     C276312  16.651  27.795   1.169  0.3228  0.0477  0.0761
12719DDP     C376313  16.026  28.594   0.262  0.1180 -0.1612 -0.0225
12719DDP     C476314  16.842  28.408   0.401  0.3192 -0.0376 -0.3014
12720DDP     C176315   9.379  12.114  17.288  0.1311  0.5840  0.1057
12720DDP     P176316   9.030  11.802  17.176 -0.3000 -0.0085  0.1935
12720DDP     P276317   9.468  12.206  17.674  0.1992  0.0758 -0.0147
12720DDP     C276318   9.545  12.247  18.174 -0.3599 -0.1214 -0.1826
12720DDP     C376319   8.879  11.470  17.180  0.0650 -0.3148 -0.0098
12720DDP     C476320   9.447  12.185  16.806  0.0913  0.1514 -0.0810
12721DDP     C176321  10.928   0.075  17.925 -0.0285 -0.1034  0.0859
12721DDP     P176322  10.708  30.105  17.760  0.0731  0.0897  0.1198
12721DDP     P276323  10.743   0.442  17.844  0.2555  0.1178  0.0352
12721DDP     C276324  10.470   0.781  18.038  0.0416 -0.0532  0.2269
12721DDP     C376325  10.845  29.652  17.781  0.1669 -0.1735  0.1562
12721DDP     C476326  11.241   0.066  18.256 -0.2010  0.0272  0.0402
12722DDP     C176327  12.272   8.716   0.729  0.4228 -0.1991  0.0960
12722DDP     P176328  12.406   9.135   0.565 -0.0752  0.1409 -0.1760
12722DDP     P276329  11.984   8.404   0.473  0.2512  0.0461  0.2677
12722DDP     C276330  11.804   8.097   0.111  0.2064 -0.0024  0.0635
12722DDP     C376331  12.747   9.241   0.635 -0.0371 -0.0008 -0.0492
12722DDP     C476332  12.426   8.526   1.115  0.1128 -0.1200 -0.2684
12723DDP     C176333  11.256   1.060   3.887  0.0281  0.1985  0.1739
12723DDP     P176334  11.306   1.426   4.199 -0.0279 -0.0180 -0.1826
12723DDP     P276335  11.557   1.123   3.501 -0.2321 -0.0076  0.1855
12723DDP     C276336  11.800   1.240   3.116  0.2321 -0.2756 -0.2203
12723DDP     C376337  11.493   1.484   4.564 -0.0367 -0.0130 -0.2555
12723DDP     C476338  10.978   0.797   3.973  0.2915  0.1411  0.1732
12724DDP     C176339   4.264  25.584  22.208 -0.1064 -0.0494 -0.0362
12724DDP     P176340   4.490  25.473  22.542 -0.0574  0.0989 -0.2165
12724DDP     P276341   4.107  25.226  21.897  0.3678 -0.1348 -0.0545
12724DDP     C276342   4.303  24.850  21.710 -0.0211  0.0644 -0.0650
12724DDP     C376343   4.677  25.167  22.744  0.5907  0.2196 -0.0003
12724DDP     C476344   4.312  26.017  22.095  0.2368 -0.1088 -0.2080
12725DDP     C176345  13.646  23.835  12.877 -0.0980 -0.1196 -0.0815
12725DDP     P176346  13.596  24.237  12.842  0.0464 -0.3208  0.2364
12725DDP     P276347  13.728  23.681  13.296  0.0269  0.0717  0.0302
12725DDP     C276348  13.933  23.450  13.525 -0.0420  0.3223 -0.3277
12725DDP     C376349  13.897  24.563  13.063 -0.0985 -0.2138 -0.1145
12725DDP     C476350  13.436  23.497  12.614  0.0492 -0.2062  0.2380
12726DDP     C176351   3.886  24.550  13.652  0.1708  0.0771  0.1239
12726DDP     P176352   3.680  24.262  13.344  0.3139  0.0851 -0.0580
12726DDP     P276353   3.704  24.625  13.960  0.2242  0.7650  0.0460
12726DDP     C276354   3.275  24.665  14.147  0.2313 -0.1069  0.2140
12726DDP     C376355   3.370  23.931  13.128  0.1962 -0.2138 -0.0289
12726DDP     C476356   4.336  24.663  13.546 -0.0048 -0.0814 -0.0033
12727DDP     C176357  18.521  11.135   0.180  0.1758  0.2879 -0.1709
12727DDP     P176358  18.800  10.770   0.066 -0.0140  0.1139  0.1124
12727DDP     P276359  18.693  11.478   0.384  0.0063 -0.2964  0.0725
12727DDP     C276360  19.004  11.785   0.614  0.1140 -0.0360 -0.1382
12727DDP     C376361  19.203  10.583  30.322 -0.0873 -0.0837  0.1799
12727DDP     C476362  18.168  11.084  30.137  0.1991  0.3317 -0.0612
12728DDP     C176363  22.853   6.622   1.444  0.4308 -0.1530  0.0660
12728DDP     P176364  23.054   6.926   1.644  0.3208 -0.3089 -0.2469
12728DDP     P276365  22.698   6.327   1.657 -0.2759 -0.1232  0.1220
12728DDP     C276366  22.611   6.082   1.931  0.2085 -0.1793  0.4334
12728DDP     C376367  23.264   7.330   1.557 -0.1730  0.1712  0.0563
12728DDP     C476368  22.718   6.725   1.019 -0.1836 -0.2205 -0.1296
12729DDP     C176369   0.023  23.951   3.387  0.2017  0.2025  0.0462
12729DDP     P176370   0.243  23.538   3.335  0.3385  0.0823 -0.0812
12729DDP     P276371  30.019  24.205   3.257 -0.0451 -0.0239 -0.0695
12729DDP     C276372  29.939  24.500   3.094  0.1432 -0.1307 -0.0346
12729DDP     C376373   0.426  23.115   3.547 -0.0896  0.1660  0.1430
12729DDP     C476374   0.136  24.193   3.826 -0.0142 -0.0081  0.0648
12730DDP     C176375  29.705  18.331   4.683 -0.2494 -0.4239 -0.2330
12730DDP     P176376  29.373  18.270   4.991  0.4007 -0.1985  0.1681
12730DDP     P276377  29.682  18.064   4.356  0.3093 -0.2503  0.1569
12730DDP     C276378  29.821  17.784   3.999  0.0143 -0.1114  0.1554
12730DDP     C376379  28.980  18.102   5.031 -0.2385 -0.0455 -0.0289
12730DDP     C476380  30.144  18.502   4.699  0.1950  0.0593 -0.1636
12731DDP     C176381   0.970   1.309   0.448  0.0636 -0.0451 -0.0610
12731DDP     P176382   1.183   1.677   0.657  0.0947 -0.2406  0.0484
12731DDP     P276383   0.649   1.413   0.770 -0.1426 -0.0920 -0.0834
12731DDP     C276384   0.372   1.687   0.899 -0.1356  0.3224  0.0361
12731DDP     C376385   1.204   1.735   1.152  0.1012 -0.0246 -0.1432
12731DDP     C476386   0.993   1.170   0.076 -0.0981 -0.2967  0.3151
12732DDP     C176387  24.079  29.843   3.730 -0.0398  0.0415 -0.1280
12732DDP     P176388  24.162  29.614   4.109 -0.0144  0.0887  0.1655
12732DDP     P276389  23.852  30.201   3.735 -0.1275 -0.2257  0.2544
12732DDP     C276390  23.689   0.436   3.726  0.2475 -0.4496  0.1669
12732DDP     C376391  24.509  29.503   4.343  0.1432 -0.1872 -0.3028
12732DDP     C476392  24.301  29.745   3.347 -0.1386 -0.2471 -0.0998
12733DDP     C176393   7.249  13.551  22.724  0.0435  0.3756 -0.3898
12733DDP     P176394   7.149  13.266  22.303  0.0569 -0.2703 -0.3130
12733DDP     P276395   7.721  13.640  22.848  0.2072  0.1486  0.0976
12733DDP     C276396   8.129  13.410  23.026  0.1005  0.2492 -0.2963
12733DDP     C376397   7.237  12.952  22.004  0.0373 -0.0444 -0.0149
12733DDP     C476398   6.821  13.567  22.947  0.4269 -0.0526 -0.0589
12734DDP     C176399   2.241  23.750   2.278  0.1573  0.2096  0.1219
12734DDP     P176400   2.140  24.223   2.370  0.2314 -0.2733  0.1333
12734DDP     P276401   1.855  23.418   2.242 -0.0253  0.1504 -0.1038
12734DDP     C276402   1.518  23.258   2.382 -0.2604 -0.0090  0.0891
12734DDP     C376403   2.499  24.520   2.472 -0.0811  0.0095 -0.0159
12734DDP     C476404   2.652  23.630   2.155 -0.0980  0.0525  0.0767
12735DDP     C176405  11.109  14.028  10.697 -0.1479 -0.0183  0.3180
12735DDP     P176406  11.047  13.783  10.304  0.1470 -0.1620  0.1696
12735DDP     P276407  10.969  13.703  11.001  0.1545  0.2354  0.1507
12735DDP     C276408  10.668  13.551  11.261 -0.1370 -0.0772 -0.2270
12735DDP     C376409  10.973  13.477  10.103  0.0552  0.0342 -0.0228
12735DDP     C476410  11.247  14.463  10.694 -0.1962  0.2167 -0.0192
12736DDP     C176411  19.951  11.369  23.630 -0.0154 -0.0128  0.2914
12736DDP     P176412  19.793  10.924  23.840 -0.0747 -0.1369  0.0590
12736DDP     P276413  20.062  11.270  23.200  0.0216  0.0692 -0.3422
12736DDP     C276414  19.989  11.254  22.765 -0.1782  0.3194  0.0643
12736DDP     C376415  19.744  10.448  23.907  0.1527 -0.0492 -0.0185
12736DDP     C476416  19.943  11.748  23.823  0.0087  0.2135 -0.0858
12737DDP     C176417   0.716   1.728   1.257 -0.0577  0.3549 -0.1022
12737DDP     P176418   0.810   1.985   0.927  0.0424 -0.0669  0.0448
12737DDP     P276419   0.624   1.316   1.425 -0.1113  0.0290 -0.1393
12737DDP     C276420   0.262   1.052   1.703 -0.0478 -0.1407  0.3734
12737DDP     C376421   0.726   1.910   0.488  0.1991 -0.3738 -0.1892
12737DDP     C476422   0.661   1.848   1.700  0.1627  0.2110  0.2603
12738DDP     C176423  19.460  28.223   4.480 -0.1573  0.0511 -0.1024
12738DDP     P176424  19.617  27.830   4.700  0.1887 -0.1854  0.2242
12738DDP     P276425  19.039  28.301   4.587  0.1194  0.1980 -0.1284
12738DDP     C276426  18.706  27.999   4.535  0.1732 -0.1761  0.0085
12738DDP     C376427  19.473  27.381   4.885  0.3462  0.0316  0.0768
12738DDP     C476428  19.524  28.377   4.006 -0.4948 -0.2214 -0.1171
12739DDP     C176429  22.692  12.942   0.604  0.0434 -0.0354 -0.2015
12739DDP     P176430  22.626  13.402   0.741 -0.0725 -0.0920 -0.3492
12739DDP     P276431  22.291  12.776   0.802 -0.1528  0.1585  0.1509
12739DDP     C276432  22.024  12.485   0.604 -0.0504 -0.3507  0.1176
12739DDP     C376433  22.370  13.688   0.462 -0.0605 -0.0734  0.2314
12739DDP     C476434  23.171  12.753   0.544 -0.0271 -0.0638 -0.1053
12740DDP     C176435   7.130  13.244  29.620  0.0786  0.1953  0.0877
12740DDP     P176436   6.875  13.557  29.337 -0.2293  0.2924  0.0480
12740DDP     P276437   6.730  12.918  29.596  0.0025 -0.2883 -0.1672
12740DDP     C276438   6.485  12.796  29.343 -0.1830 -0.4439  0.3761
12740DDP     C376439   6.588  13.827  29.138 -0.3964  0.2020 -0.2936
12740DDP     C476440   7.556  13.194  29.735  0.0223  0.1178  0.2599
12741DDP     C176441   5.909  21.036  29.738  0.1256  0.0666  0.0610
12741DDP     P176442   6.287  21.135  30.107 -0.1099 -0.3601  0.4455
12741DDP     P276443   6.026  21.202  29.348 -0.1084 -0.0512 -0.0801
12741DDP     C276444   5.887  21.277  28.919  0.2536  0.0468 -0.1933
12741DDP     C376445   6.741  21.277  29.989 -0.0465  0.1332 -0.0317
12741DDP     C476446   5.585  20.868  29.731  0.0832  0.2194  0.0843
12742DDP     C176447   7.901   1.854   3.442 -0.0297  0.2000  0.0194
12742DDP     P176448   7.715   1.672   3.844  0.1846 -0.0710 -0.4029
12742DDP     P276449   8.286   2.005   3.336 -0.3290  0.0070  0.2372
12742DDP     C276450   8.697   1.877   3.170  0.1338 -0.3043  0.1736
12742DDP     C376451   7.560   1.484   4.228 -0.0580  0.1347 -0.1321
12742DDP     C476452   7.566   2.090   3.154  0.1020  0.1226  0.0179
12743DDP     C176453  19.654   1.287   1.871  0.1786  0.1142  0.0100
12743DDP     P176454  19.757   1.116   2.334 -0.1973  0.0950  0.1006
12743DDP     P276455  19.985   1.601   1.698  0.1708  0.1163  0.1435
12743DDP     C276456  20.049   1.986   1.418 -0.2929  0.2256 -0.1080
12743DDP     C376457  20.028   0.989   2.667 -0.0409  0.1604  0.0225
12743DDP     C476458  19.408   1.098   1.585  0.0519 -0.2175 -0.0779
12744DDP     C176459  24.887  19.557   5.292 -0.2929 -0.1642 -0.4351
12744DDP     P176460  24.400  19.561   5.312  0.1468  0.1738 -0.0449
12744DDP     P276461  25.033  19.251   5.006  0.0529 -0.1283 -0.0952
12744DDP     C276462  25.311  18.842   4.940 -0.0486  0.2290 -0.4093
12744DDP     C376463  23.918  19.528   5.394 -0.4229 -0.1208 -0.0289
12744DDP     C476464  25.170  19.985   5.291 -0.4251 -0.1603 -0.1134
12745DDP     C176465  14.518  23.652  28.777 -0.4201 -0.0614 -0.0539
12745DDP     P176466  14.759  23.301  28.856 -0.0546  0.2361 -0.1392
12745DDP     P276467  14.511  23.745  28.410 -0.0918 -0.0920  0.1112
12745DDP     C276468  14.158  24.028  28.334  0.1977 -0.0423  0.3046
12745DDP     C376469  15.045  22.934  28.920 -0.0495  0.0076  0.2793
12745DDP     C476470  14.502  23.917  29.121 -0.1143  0.0166 -0.0824
12746DDP     C176471  28.519   9.037  23.130 -0.1550  0.1248 -0.1567
12746DDP     P176472  28.290   8.812  22.910 -0.2365 -0.0820 -0.0264
12746DDP     P276473  28.731   9.357  22.935  0.3907  0.4898  0.2257
12746DDP     C276474  28.915   9.795  22.856 -0.0542  0.1316  0.0170
12746DDP     C376475  28.147   8.812  22.520 -0.2971  0.0877  0.0659
12746DDP     C476476  28.506   9.068  23.665  0.1104 -0.2064  0.1233
12747DDP     C176477  16.080  28.609  25.989 -0.0934 -0.1130  0.0136
12747DDP     P176478  16.156  28.190  26.183  0.1815 -0.3500  0.0721
12747DDP     P276479  16.002  28.990  26.244 -0.2024  0.3474  0.0098
12747DDP     C276480  15.890  29.346  26.366  0.2740 -0.0195 -0.3347
12747DDP     C376481  15.808  27.917  26.451 -0.0271  0.1951  0.1185
12747DDP     C476482  15.944  28.626  25.540 -0.1584 -0.3302  0.0850
12748DDP     C176483   9.137  20.567  26.280 -0.1820  0.0848  0.0701
12748DDP     P176484   9.375  20.922  26.419 -0.0799 -0.3006 -0.0835
12748DDP     P276485   8.778  20.488  26.557 -0.3322 -0.0718  0.1373
12748DDP     C276486   8.337  20.543  26.687  0.0380  0.3696 -0.0269
12748DDP     C376487   9.572  21.124  26.861  0.0847  0.1420  0.1793
12748DDP     C476488   9.232  20.141  25.993 -0.1171 -0.1763 -0.1779
12749DDP     C176489   0.587  15.473  21.939 -0.1301 -0.2331 -0.2988
12749DDP     P176490   0.994  15.404  21.740 -0.1303  0.0544  0.1364
12749DDP     P276491   0.561  15.331  22.372 -0.3347  0.2470  0.3353
12749DDP     C276492   0.311  15.479  22.755 -0.0642  0.0815  0.2250
12749DDP     C376493   1.459  15.599  21.884  0.0638  0.0123 -0.2276
12749DDP     C476494   0.306  15.558  21.546 -0.0206  0.1832 -0.3349
12750DDP     C176495   6.787  24.949  25.799 -0.1491  0.1381  0.2735
12750DDP     P176496   6.699  24.584  26.147  0.2400  0.0047  0.1221
12750DDP     P276497   6.660  25.362  25.645 -0.1414 -0.0833 -0.2105
12750DDP     C276498   6.384  25.669  25.473  0.2882 -0.1392 -0.1349
12750DDP     C376499   6.478  24.287  26.109 -0.1063 -0.0574  0.0343
12750DDP     C476500   7.000  24.646  25.408  0.0862  0.3924 -0.2535
12751DDP     C176501  30.084  14.839  22.471  0.1527  0.0245  0.2124
12751DDP     P176502   0.012  15.082  22.274  0.0224  0.0757 -0.0986
12751DDP     P276503  30.183  14.982  22.880 -0.0207  0.1590 -0.1451
12751DDP     C276504   0.245  14.967  23.092 -0.0314  0.1546 -0.3758
12751DDP     C376505   0.122  15.373  22.178 -0.2191  0.1579  0.1566
12751DDP     C476506  29.713  14.693  22.370  0.2221  0.1102 -0.0075
12752DDP     C176507  12.358  30.306   7.719 -0.1202  0.0603 -0.0221
12752DDP     P176508  12.593   0.318   7.782 -0.4029 -0.0634  0.1614
12752DDP     P276509  12.562  29.984   7.801 -0.1201 -0.0295  0.2646
12752DDP     C276510  12.734  29.710   8.208 -0.2453  0.1343 -0.0883
12752DDP     C376511  12.957   0.429   7.989  0.2038  0.0198 -0.1698
12752DDP     C476512  12.081  30.183   7.437  0.2929  0.1644  0.1484
12753DDP     C176513  15.330  25.434  22.002  0.1181 -0.0916 -0.1541
12753DDP     P176514  15.677  25.426  22.373  0.0937  0.2347  0.1187
12753DDP     P276515  15.560  25.238  21.641 -0.1799  0.1426 -0.0282
12753DDP     C276516  15.839  25.009  21.489 -0.4124 -0.2392 -0.3813
12753DDP     C376517  16.107  25.477  22.196 -0.1783  0.0829  0.2023
12753DDP     C476518  15.047  25.685  22.020  0.0627  0.1270 -0.0738
12754DDP     C176519   9.453  26.947  28.946 -0.1274 -0.2902 -0.1826
12754DDP     P176520   9.643  27.293  28.825 -0.0949  0.1458  0.0956
12754DDP     P276521   9.011  27.081  29.177 -0.0594 -0.0019 -0.2105
12754DDP     C276522   9.003  27.288  29.566  0.3652  0.2521  0.1849
12754DDP     C376523   9.843  27.622  28.554 -0.1768  0.0086  0.2766
12754DDP     C476524   9.476  26.621  28.739  0.2354  0.0990  0.0135
12755DDP     C176525  23.571  17.719  25.006 -0.3905 -0.1140 -0.0977
12755DDP     P176526  23.352  17.873  24.745  0.0261 -0.2216  0.0667
12755DDP     P276527  23.860  17.407  24.822  0.0311  0.1089  0.3457
12755DDP     C276528  24.252  17.097  24.854 -0.1106 -0.1206  0.2843
12755DDP     C376529  23.134  17.724  24.444  0.0622 -0.2509  0.1036
12755DDP     C476530  23.340  17.794  25.414  0.0332 -0.1683 -0.1013
12756DDP     C176531   2.564  23.897   1.249 -0.1011 -0.0595  0.0840
12756DDP     P176532   2.766  24.313   1.403 -0.1176 -0.0960 -0.1338
12756DDP     P276533   2.721  23.415   1.163  0.0891 -0.0656  0.1743
12756DDP     C276534   2.616  23.066   1.028  0.2773  0.5107  0.0022
12756DDP     C376535   2.663  24.611   1.661  0.1629  0.2675 -0.4082
12756DDP     C476536   2.064  23.868   1.303 -0.1492  0.1014  0.1539
12757DDP     C176537   7.724   1.793  24.486  0.0596  0.1037 -0.3255
12757DDP     P176538   7.435   2.100  24.258  0.2503  0.3410  0.1197
12757DDP     P276539   7.673   1.724  24.932 -0.2421  0.1065 -0.2264
12757DDP     C276540   7.778   1.471  25.364  0.0121 -0.2648  0.4340
12757DDP     C376541   7.221   2.254  23.893 -0.3514  0.0979  0.3025
12757DDP     C476542   8.051   1.668  24.263 -0.0963 -0.0909  0.3356
12758DDP     C176543   9.471   0.966   2.700 -0.1502  0.1037 -0.2458
12758DDP     P176544   9.117   1.163   2.632  0.1387 -0.2078  0.0081
12758DDP     P276545   9.779   0.996   2.543 -0.2441 -0.1841 -0.0855
12758DDP     C276546  10.217   0.953   2.395  0.2851  0.3217 -0.1054
12758DDP     C376547   8.706   1.140   2.490  0.1508  0.0880 -0.0356
12758DDP     C476548   9.434   0.696   2.984 -0.0402  0.2390 -0.0797
12759DDP     C176549  13.139  28.577  21.914 -0.1747  0.2257  0.0428
12759DDP     P176550  13.075  28.375  21.563 -0.2177 -0.0741  0.1804
12759DDP     P276551  12.747  28.650  22.061 -0.3652 -0.1570  0.0465
12759DDP     C276552  12.765  28.409  22.376  0.2650  0.0525  0.2337
12759DDP     C376553  12.955  28.040  21.303 -0.2214 -0.1254 -0.1420
12759DDP     C476554  13.300  28.253  22.334  0.2153  0.0816  0.0592
12760DDP     C176555   5.303  15.516   9.903 -0.2579 -0.4235  0.1391
12760DDP     P176556   5.752  15.325  10.027 -0.1340  0.3158  0.1823
12760DDP     P276557   5.149  15.876   9.970 -0.2430 -0.0111  0.3953
12760DDP     C276558   4.706  15.890   9.979  0.1337  0.3362 -0.0062
12760DDP     C376559   6.053  15.010  10.021 -0.1359  0.1210  0.0456
12760DDP     C476560   5.115  15.247   9.528  0.1718  0.2630 -0.0812
12761DDP     C176561  26.867   0.721  27.824 -0.1078 -0.1174 -0.1328
12761DDP     P176562  27.239   0.833  28.018 -0.1453  0.0382 -0.1460
12761DDP     P276563  26.470   0.561  28.041  0.1777  0.2241 -0.2460
12761DDP     C276564  26.127   0.605  28.417 -0.2522 -0.1444  0.3238
12761DDP     C376565  27.282   0.980  28.491 -0.3096  0.1634  0.1771
12761DDP     C476566  26.766   0.550  27.321 -0.2788  0.1600 -0.1946
12762DDP     C176567  -0.066   4.368  27.634 -0.2591  0.0399  0.1878
12762DDP     P176568   0.366   4.200  27.850  0.0824  0.1962  0.0017
12762DDP     P276569  29.895   4.217  27.448  0.0572 -0.2815 -0.0141
12762DDP     C276570  29.492   4.212  27.466 -0.1519 -0.2515  0.0020
12762DDP     C376571   0.710   4.010  27.788 -0.2939 -0.3169  0.1791
12762DDP     C476572   0.126   4.784  27.474 -0.1056  0.0025  0.0340
12763DDP     C176573   6.935  29.428  15.723  0.1395 -0.0546  0.0939
12763DDP     P176574   6.797  29.257  15.310 -0.2253 -0.1641  0.1413
12763DDP     P276575   7.312  29.470  15.554  0.3221  0.3235  0.2774
12763DDP     C276576   7.358  29.705  15.190 -0.1993  0.1337  0.0798
12763DDP     C376577   6.404  29.096  15.091 -0.1294  0.2979 -0.1030
12763DDP     C476578   6.682  29.810  15.924  0.0913  0.1020 -0.2747
12764DDP     C176579  28.933  23.653   4.560 -0.2129 -0.0570 -0.1856
12764DDP     P176580  29.072  23.686   5.062  0.0544  0.1858  0.2938
12764DDP     P276581  29.168  23.626   4.235 -0.2222  0.0936 -0.1649
12764DDP     C276582  29.589  23.631   4.137 -0.0833  0.0506  0.0770
12764DDP     C376583  28.904  24.084   5.334  0.2994 -0.2140 -0.4496
12764DDP     C476584  28.481  23.648   4.577 -0.0731 -0.0399  0.1986
12765DDP     C176585  15.899  28.293  30.059 -0.0050 -0.0461  0.0997
12765DDP     P176586  15.959  27.990   0.003  0.0168 -0.1809 -0.0780
12765DDP     P276587  16.264  28.693  30.173 -0.0142  0.3974  0.1880
12765DDP     C276588  16.649  29.011   0.155 -0.0025 -0.0475  0.3497
12765DDP     C376589  15.909  27.661   0.369  0.0867 -0.0363  0.0344
12765DDP     C476590  15.437  28.343  29.995 -0.2626  0.0414  0.0303
12766DDP     C176591  24.642  29.379   8.627  0.1318 -0.1496  0.1397
12766DDP     P176592  24.240  29.537   8.527  0.0833 -0.0369  0.2300
12766DDP     P276593  24.751  28.963   8.502  0.2393  0.0879 -0.2338
12766DDP     C276594  24.910  28.490   8.528 -0.0363  0.1292  0.2930
12766DDP     C376595  23.931  29.733   8.174  0.2753 -0.0514 -0.0532
12766DDP     C476596  24.982  29.672   8.784  0.1033  0.4452 -0.1561
12767DDP     C176597   2.671  25.846   9.424 -0.1041  0.1012  0.1286
12767DDP     P176598   2.910  25.508   9.549  0.0611 -0.0133  0.1189
12767DDP     P276599   2.602  26.125   9.815 -0.0355 -0.4028 -0.2559
12767DDP     C276600   2.316  25.957  10.168 -0.1116  0.2017 -0.1765
12767DDP     C376601   2.986  25.131   9.788 -0.3085 -0.2293 -0.0103
12767DDP     C476602   2.686  25.889   8.975  0.0430 -0.0473  0.0988
12768DDP     C176603   2.001   9.667  30.231 -0.1963  0.1589  0.1149
12768DDP     P176604   1.707   9.810   0.234 -0.3188 -0.2312 -0.1034
12768DDP     P276605   1.831   9.351  29.928  0.1220  0.2215  0.0165
12768DDP     C276606   2.008   8.936  29.837  0.1272 -0.0233 -0.1728
12768DDP     C376607   1.460   9.851   0.669  0.1529 -0.1541  0.0862
12768DDP     C476608   2.364   9.962  30.227  0.1980  0.3753  0.2631
12769DDP     C176609  26.547   1.688  20.964  0.1620 -0.0229 -0.3500
12769DDP     P176610  26.287   1.431  20.780 -0.0239  0.1884  0.0895
12769DDP     P276611  26.351   1.856  21.348 -0.0863  0.0485 -0.4826
12769DDP     C276612  26.115   1.708  21.544 -0.1044  0.3440 -0.2845
12769DDP     C376613  26.001   1.478  20.364  0.0687  0.1031 -0.0866
12769DDP     C476614  26.756   2.038  20.819  0.1578 -0.0501  0.2035
12770DDP     C176615  23.216  21.579  26.272  0.0969  0.2769  0.0482
12770DDP     P176616  23.293  21.299  26.010  0.0973  0.0225 -0.2056
12770DDP     P276617  22.985  21.870  26.003 -0.1735 -0.3734 -0.3608
12770DDP     C276618  22.891  22.265  25.891 -0.0575 -0.2866 -0.2426
12770DDP     C376619  23.677  21.009  26.010  0.2333  0.0320  0.2911
12770DDP     C476620  23.207  21.570  26.619  0.0618  0.0095  0.2907
12771DDP     C176621  10.769   2.662  11.998 -0.0600  0.2561 -0.0979
12771DDP     P176622  11.094   2.413  11.909  0.1581 -0.1356  0.0126
12771DDP     P276623  10.683   2.509  11.525 -0.1518 -0.3736  0.1182
12771DDP     C276624  10.353   2.657  11.164  0.2573  0.1521 -0.0514
12771DDP     C376625  11.440   2.414  11.547  0.1428  0.0060 -0.1360
12771DDP     C476626  10.630   2.864  12.260 -0.1948 -0.3079  0.1043
12772DDP     C176627  21.760   8.070  25.703 -0.1286  0.0500  0.2453
12772DDP     P176628  21.283   8.128  25.437  0.0508  0.2632 -0.0578
12772DDP     P276629  21.672   8.053  26.152 -0.3029  0.1912 -0.0779
12772DDP     C276630  21.806   8.221  26.527 -0.0513 -0.3828  0.3192
12772DDP     C376631  20.897   7.914  25.677 -0.1615 -0.0169  0.1556
12772DDP     C476632  22.339   8.072  25.681 -0.1170  0.0330 -0.0773
12773DDP     C176633  13.116   5.656   0.392 -0.3201 -0.0888 -0.1091
12773DDP     P176634  13.067   5.755   0.821  0.2801  0.2606  0.1927
12773DDP     P276635  13.528   5.513   0.195  0.1838 -0.1661  0.1979
12773DDP     C276636  13.931   5.504  30.318  0.0171 -0.1121  0.3935
12773DDP     C376637  12.921   5.720   1.248 -0.1686  0.0613  0.0550
12773DDP     C476638  12.709   5.727   0.146 -0.3452  0.0121 -0.1923
12774DDP     C176639  12.421  21.985  19.471 -0.2041 -0.2706 -0.1460
12774DDP     P176640  12.350  21.575  19.567 -0.2296  0.1822 -0.0917
12774DDP     P276641  12.612  22.106  19.070  0.2209 -0.4838  0.0397
12774DDP     C276642  12.967  22.083  18.891 -0.0779 -0.0619 -0.0608
12774DDP     C376643  12.557  21.510  19.938 -0.1653 -0.0984 -0.0119
12774DDP     C476644  12.451  22.390  19.660  0.2118  0.0106  0.0755
12775DDP     C176645  23.713   4.644  23.404  0.0384  0.0681 -0.0430
12775DDP     P176646  23.936   4.445  23.830  0.1117  0.1106 -0.2274
12775DDP     P276647  24.083   4.691  23.065 -0.0229 -0.3783 -0.1053
12775DDP     C276648  24.486   4.627  22.995  0.0132  0.1008  0.1166
12775DDP     C376649  23.847   4.062  24.081 -0.2125 -0.3451  0.4049
12775DDP     C476650  23.275   4.698  23.422  0.0308 -0.0261  0.1531
12776DDP     C176651  26.209  21.620  22.721  0.0283 -0.1352  0.1266
12776DDP     P176652  25.808  21.607  23.063  0.2650 -0.0973 -0.1909
12776DDP     P276653  26.098  21.575  22.259 -0.0445  0.1551 -0.1098
12776DDP     C276654  26.042  21.115  22.229  0.1913 -0.0239  0.0256
12776DDP     C376655  25.348  21.628  23.169 -0.2547 -0.1407  0.0738
12776DDP     C476656  26.571  21.755  22.851  0.0135  0.1976  0.1340
12777DDP     C176657  14.814  11.720   6.255  0.0001 -0.4806 -0.2712
12777DDP     P176658  14.540  11.920   5.938  0.1116 -0.2239  0.1413
12777DDP     P276659  14.894  11.956   6.627  0.0306  0.0748  0.3464
12777DDP     C276660  14.655  12.298   6.927  0.0231  0.0261 -0.0816
12777DDP     C376661  14.492  12.006   5.489 -0.1261  0.0234  0.0089
12777DDP     C476662  14.859  11.213   6.170  0.1718  0.2271 -0.1104
12778DDP     C176663  23.916  17.551  20.944 -0.2007  0.2665 -0.0140
12778DDP     P176664  23.450  17.614  20.863  0.1402 -0.3445  0.0437
12778DDP     P276665  23.908  17.153  20.755 -0.1253  0.2773 -0.2372
12778DDP     C276666  24.215  16.882  20.947 -0.3951 -0.0345 -0.0959
12778DDP     C376667  23.006  17.726  20.500  0.4310  0.1483 -0.2364
12778DDP     C476668  24.294  17.713  21.019  0.1586 -0.0456 -0.1019
12779DDP     C176669  24.051   9.896  13.657  0.1733 -0.0297 -0.0353
12779DDP     P176670  24.211  10.013  13.285 -0.2253 -0.0789  0.0057
12779DDP     P276671  24.376   9.691  13.939 -0.1468 -0.1200  0.0046
12779DDP     C276672  24.409   9.474  14.317 -0.1349  0.4440  0.1123
12779DDP     C376673  24.207   9.677  12.874  0.1231  0.1737  0.1892
12779DDP     C476674  23.587   9.879  13.730 -0.1415  0.2733 -0.0273
12780DDP     C176675  10.205  17.168  27.710 -0.0310  0.0512  0.1454
12780DDP     P176676  10.423  16.726  27.510 -0.1005 -0.1332  0.0216
12780DDP     P276677   9.712  17.368  27.705 -0.0584  0.1079 -0.0014
12780DDP     C276678   9.515  17.489  28.055  0.2089 -0.2826 -0.1209
12780DDP     C376679  10.535  16.283  27.465 -0.0382  0.0705 -0.0792
12780DDP     C476680  10.528  17.592  27.616  0.0382 -0.1446  0.2561
12781DDP     C176681  18.985  12.689  29.657 -0.0910 -0.0196 -0.0705
12781DDP     P176682  18.678  12.233  29.711 -0.0116  0.1948  0.0567
12781DDP     P276683  19.405  12.667  29.763 -0.1659 -0.2402 -0.2840
12781DDP     C276684  19.804  12.492  29.769 -0.1351 -0.2890  0.4459
12781DDP     C376685  18.230  11.977  29.562 -0.0997 -0.2210  0.0251
12781DDP     C476686  18.825  12.854  29.296 -0.2102 -0.1857 -0.0320
12782DDP     C176687  23.407  25.750  19.754 -0.0000 -0.0001 -0.3005
12782DDP     P176688  23.332  26.151  19.901  0.0594  0.0485  0.2742
12782DDP     P276689  23.089  25.502  19.484  0.0273  0.0566 -0.1822
12782DDP     C276690  22.649  25.323  19.452 -0.1177 -0.1051  0.2413
12782DDP     C376691  23.058  26.310  19.659  0.2840  0.0206  0.2276
12782DDP     C476692  23.902  25.701  19.648  0.0387  0.0385 -0.3188
12783DDP     C176693  15.535  11.648   5.371  0.0604 -0.0360  0.1134
12783DDP     P176694  15.758  12.016   5.446 -0.0749  0.2290 -0.0753
12783DDP     P276695  15.685  11.212   5.267 -0.0770 -0.1498 -0.2435
12783DDP     C276696  15.567  10.785   5.111  0.2650  0.0229 -0.0062
12783DDP     C376697  16.023  12.311   5.467  0.0779 -0.0908 -0.2730
12783DDP     C476698  15.081  11.542   5.318  0.3038  0.0509 -0.0508
12784DDP     C176699   8.436  15.172  17.412  0.0034  0.1965 -0.0143
12784DDP     P176700   8.477  14.923  17.044 -0.0420 -0.0127 -0.1630
12784DDP     P276701   8.210  15.488  17.483 -0.0076 -0.1307  0.0372
12784DDP     C276702   7.956  15.791  17.811  0.1001  0.0604 -0.0198
12784DDP     C376703   8.683  14.499  16.918  0.0226  0.1617  0.0206
12784DDP     C476704   8.663  15.044  17.780 -0.0964  0.1691  0.0652
12785DDP     C176705  29.238   6.892  10.319 -0.1043  0.1235  0.3746
12785DDP     P176706  29.539   7.208  10.408  0.0775 -0.1298 -0.0077
12785DDP     P276707  29.014   6.934   9.968 -0.1862 -0.1253  0.2117
12785DDP     C276708  28.756   7.095   9.650 -0.1737  0.1366  0.0479
12785DDP     C376709  29.624   7.362  10.710 -0.5196  0.0146 -0.2187
12785DDP     C476710  29.247   6.471  10.544 -0.2683 -0.2337 -0.1539
12786DDP     C176711   1.517  25.092  13.055  0.1251  0.1033  0.0060
12786DDP     P176712   1.320  25.363  12.853 -0.2021 -0.1249 -0.0407
12786DDP     P276713   1.134  24.823  13.228  0.1738 -0.1802 -0.2493
12786DDP     C276714   0.855  24.493  13.055 -0.1410 -0.0072  0.0729
12786DDP     C376715   1.240  25.513  12.430 -0.3880  0.1815 -0.1189
12786DDP     C476716   1.993  25.115  13.164 -0.1553  0.0298 -0.0769
12787DDP     C176717  21.979  20.013  17.643 -0.1827  0.3394 -0.1117
12787DDP     P176718  22.358  20.144  17.770  0.1043  0.2938  0.0039
12787DDP     P276719  21.891  19.710  17.871 -0.0062 -0.0487 -0.3131
12787DDP     C276720  21.994  19.347  17.731  0.1745  0.2193  0.3800
12787DDP     C376721  22.400  20.266  18.166 -0.1088 -0.1876  0.0205
12787DDP     C476722  21.588  20.200  17.448  0.0419 -0.1436  0.0103
12788DDP     C176723  18.893   9.204  20.676 -0.1837  0.1004  0.1002
12788DDP     P176724  19.129   9.012  20.953  0.1154 -0.0137  0.0989
12788DDP     P276725  18.569   8.990  20.463 -0.0747 -0.0952  0.0464
12788DDP     C276726  18.217   8.734  20.559  0.0394 -0.1692 -0.0495
12788DDP     C376727  19.355   8.541  20.979 -0.0006 -0.2537 -0.2991
12788DDP     C476728  18.963   9.633  20.561 -0.2367  0.2481 -0.0036
12789DDP     C176729   0.541  17.854  13.127  0.1160  0.2136  0.0567
12789DDP     P176730   0.972  17.731  13.118 -0.0193 -0.2587 -0.0989
12789DDP     P276731   0.656  18.227  13.173 -0.3332 -0.0956  0.2637
12789DDP     C276732   0.473  18.633  13.288  0.0088 -0.1029 -0.1081
12789DDP     C376733   1.420  17.665  13.123 -0.2624  0.1730 -0.2995
12789DDP     C476734   0.084  17.801  13.074  0.0163  0.0293  0.0001
12790DDP     C176735  20.325  14.452  13.050  0.1675 -0.0105 -0.0379
12790DDP     P176736  19.902  14.252  13.007 -0.1653  0.1384  0.2230
12790DDP     P276737  20.498  14.645  12.610 -0.2851 -0.0287  0.0658
12790DDP     C276738  20.396  14.638  12.207  0.0301 -0.1538 -0.0105
12790DDP     C376739  19.492  14.163  13.024 -0.2927  0.0364 -0.1702
12790DDP     C476740  20.285  14.670  13.453 -0.2707 -0.2230 -0.1491
12791DDP     C176741  16.286   2.734  24.278 -0.2899  0.1186  0.1243
12791DDP     P176742  16.074   2.717  24.695  0.0551  0.3862  0.1794
12791DDP     P276743  16.248   2.902  23.870 -0.0399  0.0704  0.2056
12791DDP     C276744  16.218   3.071  23.469 -0.1329  0.3072 -0.0061
12791DDP     C376745  15.696   2.858  24.697 -0.3697  0.0930  0.0688
12791DDP     C476746  16.702   2.497  24.188  0.0969  0.0506  0.3172
12792DDP     C176747  12.393   9.104   4.354  0.0968  0.1364  0.1640
12792DDP     P176748  12.227   9.271   4.687  0.0783  0.0260  0.0606
12792DDP     P276749  12.847   9.023   4.396 -0.3580  0.1232  0.1715
12792DDP     C276750  13.158   9.249   4.522  0.1723 -0.1322 -0.1984
12792DDP     C376751  12.206   9.650   4.871  0.1455 -0.1611 -0.1858
12792DDP     C476752  12.381   9.167   3.991  0.2625  0.0787  0.0572
12793DDP     C176753   6.213  16.054   7.433 -0.2082  0.1752  0.0708
12793DDP     P176754   6.644  16.128   7.333 -0.2328  0.1013 -0.0265
12793DDP     P276755   5.925  16.017   7.042 -0.6624  0.2154 -0.3295
12793DDP     C276756   5.791  16.047   6.506  0.2509  0.2417 -0.0661
12793DDP     C376757   7.119  16.245   7.283  0.0747  0.1137  0.1560
12793DDP     C476758   6.071  16.120   7.924 -0.2231  0.3035 -0.1092
12794DDP     C176759   9.276  22.668  11.291 -0.0815  0.1110  0.0477
12794DDP     P176760   9.364  22.599  10.796  0.0801 -0.2262  0.2440
12794DDP     P276761   9.150  23.057  11.416 -0.1668 -0.3749  0.3631
12794DDP     C276762   8.706  23.160  11.396  0.2097  0.0658  0.1858
12794DDP     C376763   9.132  22.443  10.432 -0.2009 -0.1051  0.0963
12794DDP     C476764   9.350  22.335  11.618  0.1630  0.2785 -0.0849
12795DDP     C176765  18.222  29.157  29.437 -0.1772 -0.0620  0.1805
12795DDP     P176766  17.836  29.267  29.411 -0.1391  0.1550  0.0043
12795DDP     P276767  18.387  29.358  29.189 -0.1088  0.2192  0.2685
12795DDP     C276768  18.355  29.499  28.854  0.0114  0.0883 -0.0163
12795DDP     C376769  17.592  29.656  29.481 -0.1134 -0.3395 -0.0314
12795DDP     C476770  18.197  28.844  29.730  0.1051  0.0957 -0.2876
12796DDP     C176771  25.605  28.223  10.172 -0.1809  0.0874  0.1081
12796DDP     P176772  25.629  28.583  10.540 -0.0743 -0.1498  0.2869
12796DDP     P276773  25.298  28.087  10.528 -0.2379  0.0867  0.1680
12796DDP     C276774  24.849  28.320  10.639 -0.1429  0.1001 -0.1684
12796DDP     C376775  25.630  29.011  10.394  0.1907 -0.0403  0.1403
12796DDP     C476776  25.771  27.993   9.850 -0.1971  0.2541  0.0839
12797DDP     C176777  13.309   5.242  17.490  0.0908 -0.0590 -0.2451
12797DDP     P176778  13.468   5.558  17.744 -0.1943 -0.0695 -0.0899
12797DDP     P276779  12.935   5.298  17.280  0.1914 -0.2529  0.0420
12797DDP     C276780  12.591   5.105  16.940 -0.3068  0.4757 -0.2109
12797DDP     C376781  13.658   5.734  18.009 -0.2061 -0.4711  0.1430
12797DDP     C476782  13.581   4.935  17.420  0.0888  0.1180  0.0665
12798DDP     C176783   3.244   4.505  13.827  0.2910 -0.3348  0.1624
12798DDP     P176784   3.335   4.937  13.922 -0.2095  0.4614  0.0316
12798DDP     P276785   2.808   4.446  13.562  0.0204 -0.1047 -0.1360
12798DDP     C276786   2.562   4.727  13.261 -0.3126 -0.2876 -0.0143
12798DDP     C376787   3.425   5.115  14.246  0.0489  0.0266 -0.0534
12798DDP     C476788   3.583   4.307  14.034 -0.4772 -0.1905 -0.2373
12799DDP     C176789  14.165   8.751  21.085  0.1948  0.1086 -0.0868
12799DDP     P176790  14.654   9.001  20.923 -0.0699 -0.0047  0.3172
12799DDP     P276791  14.062   8.366  20.964 -0.1794 -0.1758 -0.1103
12799DDP     C276792  13.791   8.098  21.196  0.0894 -0.1248  0.2819
12799DDP     C376793  14.716   9.484  20.795 -0.0624  0.3807 -0.0345
12799DDP     C476794  13.792   8.947  21.385  0.2494  0.1133 -0.2660
12800DDP     C176795   5.298  25.064   6.303 -0.6797  0.0572 -0.1884
12800DDP     P176796   5.383  24.644   6.295 -0.0288 -0.1285 -0.0340
12800DDP     P276797   5.669  25.233   6.526 -0.0171  0.1096  0.3638
12800DDP     C276798   5.964  25.502   6.581  0.3539  0.1505  0.1997
12800DDP     C376799   5.305  24.258   6.467  0.0029  0.1388  0.2450
12800DDP     C476800   5.073  25.435   6.044  0.4403  0.3703 -0.2821
12801DDP     C176801   8.466  21.373  19.244  0.2989 -0.2122 -0.3651
12801DDP     P176802   8.882  21.518  19.090 -0.3022  0.1697 -0.1663
12801DDP     P276803   8.526  21.591  19.615 -0.2006  0.0781  0.1327
12801DDP     C276804   8.938  21.632  19.867  0.1163 -0.0098  0.2438
12801DDP     C376805   9.141  21.588  18.698 -0.3324  0.1920  0.1411
12801DDP     C476806   8.357  20.966  19.046 -0.1181 -0.0457 -0.0689
12802DDP     C176807  27.055   0.399  16.922 -0.0961  0.1098  0.2715
12802DDP     P176808  26.775   0.175  16.812  0.1102 -0.1468  0.2309
12802DDP     P276809  26.906   0.715  17.186 -0.0141  0.2042  0.3366
12802DDP     C276810  26.560   0.760  17.421  0.2599 -0.2408 -0.0302
12802DDP     C376811  26.358   0.054  16.879 -0.1431  0.0631  0.1079
12802DDP     C476812  27.252   0.585  16.781 -0.3048  0.1037  0.1408
12803DDP     C176813  20.039   6.758   8.895 -0.1927 -0.1661 -0.4492
12803DDP     P176814  20.326   6.934   8.541  0.1822 -0.1453  0.3248
12803DDP     P276815  19.866   6.384   8.773 -0.0630 -0.1418 -0.1950
12803DDP     C276816  19.694   5.946   8.813 -0.0807 -0.3112  0.3309
12803DDP     C376817  20.383   7.322   8.447 -0.1199  0.0728 -0.1721
12803DDP     C476818  20.135   7.001   9.283  0.3094 -0.0252 -0.2805
12804DDP     C176819  22.628  27.704  14.342  0.0672  0.0830  0.1571
12804DDP     P176820  22.925  27.789  14.062  0.1897  0.0196 -0.1539
12804DDP     P276821  22.949  27.729  14.714 -0.0620  0.2232  0.1069
12804DDP     C276822  23.283  27.519  14.897  0.1108  0.0286  0.0569
12804DDP     C376823  23.046  28.119  13.848  0.0099 -0.1140  0.1464
12804DDP     C476824  22.266  27.526  14.380  0.2165 -0.0633 -0.0660
12805DDP     C176825  11.713  27.977  22.698  0.0875 -0.0014  0.0916
12805DDP     P176826  11.412  28.204  22.447 -0.0926  0.0840  0.0029
12805DDP     P276827  11.985  27.796  22.443 -0.0412 -0.2576 -0.3292
12805DDP     C276828  12.045  27.733  22.016  0.0272  0.0675  0.0380
12805DDP     C376829  11.078  28.432  22.377 -0.1426 -0.1146  0.0079
12805DDP     C476830  11.852  28.092  23.177  0.0474 -0.0449 -0.1846
12806DDP     C176831  15.723   9.902  22.286  0.2056 -0.0637 -0.0696
12806DDP     P176832  15.368  10.156  22.446 -0.2396 -0.0088  0.1541
12806DDP     P276833  15.462   9.532  22.232 -0.1382 -0.1083 -0.1847
12806DDP     C276834  15.087   9.228  22.183  0.0585 -0.1842  0.3165
12806DDP     C376835  14.964  10.179  22.469 -0.1538 -0.2235 -0.3137
12806DDP     C476836  16.116  10.011  22.139  0.0348 -0.1157 -0.0275
12807DDP     C176837  23.839  17.996   6.525  0.0631 -0.4555  0.0883
12807DDP     P176838  23.610  17.685   6.289 -0.2214  0.1738 -0.1849
12807DDP     P276839  23.567  18.201   6.901  0.1157 -0.2673 -0.0665
12807DDP     C276840  23.745  18.541   7.099  0.0429  0.0405  0.1380
12807DDP     C376841  23.119  17.566   6.232  0.3144  0.1270  0.1014
12807DDP     C476842  24.242  18.018   6.607 -0.0808  0.1631  0.1442
12808DDP     C176843  30.169  10.168  21.866 -0.2715 -0.2101 -0.1480
12808DDP     P176844   0.000  10.241  22.298 -0.1116  0.0943 -0.1191
12808DDP     P276845   0.182  10.241  21.517  0.0608 -0.0010  0.1516
12808DDP     C276846   0.402  10.030  21.195 -0.2337  0.0266  0.3200
12808DDP     C376847   0.297  10.007  22.543  0.0632  0.0576 -0.2355
12808DDP     C476848  29.723  10.225  21.849  0.3200  0.0060 -0.2152
12809DDP     C176849   3.980  11.244  24.738  0.0898 -0.0972 -0.1010
12809DDP     P176850   3.579  11.009  24.639  0.2653 -0.1393  0.0346
12809DDP     P276851   3.964  11.258  25.174  0.4183  0.2156 -0.1157
12809DDP     C276852   3.864  11.116  25.648 -0.0070  0.2891  0.2313
12809DDP     C376853   3.538  10.656  24.817  0.1232 -0.1929  0.1012
12809DDP     C476854   4.283  11.378  24.448  0.0180  0.1586  0.3449
12810DDP     C176855  19.029  15.646  23.197 -0.0779 -0.1514  0.1894
12810DDP     P176856  18.589  15.572  23.180 -0.0728 -0.1784  0.0150
12810DDP     P276857  18.999  16.105  23.136  0.0066  0.3350 -0.0381
12810DDP     C276858  19.072  16.298  22.744 -0.3868 -0.0818  0.0720
12810DDP     C376859  18.178  15.477  23.122  0.1022  0.2133 -0.1559
12810DDP     C476860  19.382  15.439  23.304 -0.0556 -0.1280 -0.2170
12811DDP     C176861  24.863  12.265  10.872  0.0968 -0.0009 -0.0015
12811DDP     P176862  24.603  12.017  10.781  0.0046 -0.0858 -0.1542
12811DDP     P276863  24.738  12.691  10.822  0.0517 -0.0621 -0.4471
12811DDP     C276864  24.889  13.136  10.924  0.0559  0.0697 -0.0393
12811DDP     C376865  24.610  11.641  10.463  0.1252 -0.1669  0.0714
12811DDP     C476866  25.142  12.083  11.151 -0.2883 -0.2677  0.2002
12812DDP     C176867  12.052   5.848  20.806  0.3027 -0.1625  0.2342
12812DDP     P176868  11.787   5.535  20.930  0.0615 -0.0176 -0.1510
12812DDP     P276869  12.309   5.733  20.454  0.0347  0.0766  0.0116
12812DDP     C276870  12.444   6.022  20.075 -0.0068 -0.2232  0.1027
12812DDP     C376871  11.424   5.293  20.899  0.4750  0.2762 -0.0446
12812DDP     C476872  12.169   6.308  20.937  0.0047  0.2091  0.3903
12813DDP     C176873  29.682   0.946   4.802  0.0084  0.1118  0.2029
12813DDP     P176874  30.140   0.704   4.912 -0.0976  0.0778 -0.0562
12813DDP     P276875  29.808   1.399   4.847  0.0729 -0.2573 -0.0341
12813DDP     C276876  29.775   1.612   5.208  0.1451 -0.0650  0.0435
12813DDP     C376877   0.110   0.793   5.319  0.1130 -0.3102 -0.0332
12813DDP     C476878  29.296   1.022   4.528  0.1011  0.2352  0.0162
12814DDP     C176879  24.920  17.498  28.472 -0.2757 -0.1394 -0.4163
12814DDP     P176880  24.919  17.251  28.071  0.0455 -0.1774 -0.1536
12814DDP     P276881  24.685  17.883  28.383 -0.1076  0.0892 -0.0511
12814DDP     C276882  24.476  18.232  28.445 -0.0842 -0.0798 -0.2621
12814DDP     C376883  24.815  16.796  28.018  0.1039 -0.2595  0.0750
12814DDP     C476884  25.126  17.365  28.778  0.1789 -0.0306  0.2039
12815DDP     C176885  13.953  15.087  25.551 -0.0839 -0.0915  0.1314
12815DDP     P176886  13.608  15.442  25.642 -0.2795  0.0042  0.0951
12815DDP     P276887  13.836  14.711  25.944  0.1441 -0.2188  0.0006
12815DDP     C276888  13.525  14.630  26.272 -0.2122 -0.3121 -0.3284
12815DDP     C376889  13.522  15.935  25.711  0.1797 -0.2065  0.0826
12815DDP     C476890  14.232  15.245  25.228 -0.3235 -0.1936 -0.0409
12816DDP     C176891  22.222  24.507  27.034 -0.1592 -0.0514  0.1512
12816DDP     P176892  21.922  24.595  26.681 -0.2131  0.1558 -0.0866
12816DDP     P276893  22.390  24.137  27.056  0.1038 -0.1532  0.0551
12816DDP     C276894  22.641  23.935  26.982  0.0219  0.0279 -0.1992
12816DDP     C376895  21.471  24.465  26.715 -0.1984 -0.0328  0.1831
12816DDP     C476896  22.383  24.675  27.415 -0.0682 -0.2743  0.0055
12817DDP     C176897  26.322  25.352   0.571  0.1158  0.1641 -0.0880
12817DDP     P176898  26.490  25.496   0.193 -0.1432  0.0383  0.1403
12817DDP     P276899  26.591  25.615   0.799  0.1678 -0.3044 -0.0075
12817DDP     C276900  26.681  25.741   1.305 -0.2188  0.0691 -0.1331
12817DDP     C376901  26.288  25.483  30.190 -0.0631  0.1177 -0.0204
12817DDP     C476902  26.095  24.966   0.717  0.1210 -0.3458  0.1281
12818DDP     C176903  11.928   4.630  27.205  0.0579 -0.0958 -0.1005
12818DDP     P176904  12.314   4.492  27.321  0.0660  0.0750  0.0356
12818DDP     P276905  11.536   4.343  27.358 -0.0883  0.0317 -0.0765
12818DDP     C276906  11.326   4.109  27.669  0.2935  0.0779  0.0511
12818DDP     C376907  12.690   4.559  27.459  0.2226  0.2033 -0.1528
12818DDP     C476908  12.072   4.823  26.918  0.1840 -0.2108 -0.2519
12819DDP     C176909  28.198   7.759   4.003  0.3393 -0.1976 -0.1119
12819DDP     P176910  27.778   7.939   3.978 -0.1887  0.2389 -0.4130
12819DDP     P276911  28.353   7.501   4.430  0.2300 -0.1621  0.0004
12819DDP     C276912  28.315   7.371   4.879  0.1053 -0.2728 -0.0068
12819DDP     C376913  27.480   8.319   3.976  0.0764 -0.1054  0.1309
12819DDP     C476914  28.553   7.805   3.769  0.0839 -0.1399  0.1505
12820DDP     C176915  10.674  26.035  22.661 -0.0544 -0.1041  0.0737
12820DDP     P176916  10.826  26.081  22.293  0.4902  0.2655  0.3225
12820DDP     P276917  10.963  26.149  22.906 -0.2466 -0.4324  0.1630
12820DDP     C276918  11.260  25.868  23.053  0.0675 -0.1661  0.1683
12820DDP     C376919  10.837  26.261  21.930 -0.0252  0.2222 -0.1764
12820DDP     C476920  10.305  25.877  22.907  0.1811 -0.0427  0.3731
12821DDP     C176921  13.693  10.173  30.254 -0.0588  0.2046  0.0435
12821DDP     P176922  13.626  10.531  30.042 -0.0919 -0.3686  0.2586
12821DDP     P276923  14.118   9.915  30.272  0.1193  0.1403 -0.1283
12821DDP     C276924  14.455   9.566   0.146 -0.2955 -0.0014 -0.1737
12821DDP     C376925  13.526  10.693  29.620 -0.0396 -0.1252 -0.1301
12821DDP     C476926  13.402   9.993   0.225 -0.3301 -0.3056 -0.3634
12822DDP     C176927  21.934   6.026  24.519 -0.2649 -0.2234 -0.4420
12822DDP     P176928  21.462   5.796  24.639 -0.0628 -0.1200  0.1293
12822DDP     P276929  22.105   6.317  24.850 -0.1151  0.1781 -0.0739
12822DDP     C276930  22.174   6.769  24.776 -0.0141  0.2270  0.0297
12822DDP     C376931  21.098   5.490  24.446 -0.1287 -0.2437 -0.0202
12822DDP     C476932  22.098   5.803  24.170 -0.0557  0.1433  0.1025
12823DDP     C176933   0.971   4.109  16.991  0.0768  0.0666 -0.0607
12823DDP     P176934   0.683   3.998  17.382 -0.1163 -0.3103 -0.1422
12823DDP     P276935   0.933   4.218  16.577 -0.2940  0.0273  0.0351
12823DDP     C276936   1.205   4.378  16.439  0.0806  0.1396  0.3196
12823DDP     C376937   0.537   3.446  17.329  0.0739  0.1758 -0.2148
12823DDP     C476938   1.381   4.112  17.174  0.0778  0.1132  0.0302
12824DDP     C176939  24.697  16.718  25.329 -0.0184 -0.0062 -0.1187
12824DDP     P176940  24.876  16.649  25.703  0.0879  0.0946 -0.0273
12824DDP     P276941  25.027  16.908  25.176  0.2112 -0.1439  0.1221
12824DDP     C276942  25.286  17.033  24.731 -0.3559 -0.1805  0.2207
12824DDP     C376943  24.794  16.631  26.116  0.2130 -0.4926  0.2528
12824DDP     C476944  24.301  16.746  25.240  0.2005  0.1567 -0.2116
12825DDP     C176945  26.863  21.185  22.787 -0.0611  0.5722  0.3937
12825DDP     P176946  26.499  21.126  22.976 -0.0834 -0.2538 -0.0776
12825DDP     P276947  27.224  20.991  23.010  0.1452 -0.1887 -0.1590
12825DDP     C276948  27.704  20.881  23.093 -0.1449  0.0783 -0.0983
12825DDP     C376949  26.183  21.233  23.183  0.1224  0.1163 -0.0444
12825DDP     C476950  27.155  21.338  22.516 -0.1359 -0.0684  0.1170
12826DDP     C176951  20.503  23.395  11.518 -0.1638 -0.0062  0.2118
12826DDP     P176952  20.619  23.430  11.012  0.1331 -0.1484  0.0733
12826DDP     P276953  20.302  23.343  11.805  0.0386 -0.4692  0.0587
12826DDP     C276954  20.270  23.264  12.303  0.1788 -0.0994 -0.0888
12826DDP     C376955  20.668  23.515  10.628 -0.3024 -0.0861  0.2768
12826DDP     C476956  20.853  23.167  11.684 -0.0074 -0.0298 -0.2786
12827DDP     C176957  19.139  23.472   9.480  0.1361 -0.1656 -0.0659
12827DDP     P176958  19.127  23.578   9.007  0.0768  0.0692 -0.0246
12827DDP     P276959  18.768  23.234   9.720  0.2939 -0.0660  0.1281
12827DDP     C276960  18.620  23.022  10.107  0.1302  0.1001  0.0175
12827DDP     C376961  19.017  23.440   8.562 -0.1990 -0.0648 -0.0434
12827DDP     C476962  19.519  23.421   9.712  0.2340  0.2234 -0.1553
12828DDP     C176963  29.251   2.910   9.168 -0.1957 -0.3064 -0.1561
12828DDP     P176964  28.894   3.193   9.138 -0.1156  0.0714 -0.2271
12828DDP     P276965  29.538   3.069   8.896  0.0269 -0.1233 -0.0746
12828DDP     C276966  29.808   3.391   8.708  0.2529  0.0021  0.2756
12828DDP     C376967  28.684   3.449   8.942  0.1509 -0.1327  0.2425
12828DDP     C476968  29.405   2.860   9.618 -0.0236  0.2717 -0.2442
12829DDP     C176969  17.245   7.036  17.966  0.2365 -0.1904 -0.1827
12829DDP     P176970  17.092   6.879  18.316  0.1884  0.3319  0.0038
12829DDP     P276971  17.027   7.188  17.651 -0.0408  0.3991 -0.2449
12829DDP     C276972  16.847   7.412  17.395 -0.0819 -0.0124 -0.0411
12829DDP     C376973  17.269   6.663  18.653 -0.0098 -0.2663 -0.0129
12829DDP     C476974  17.678   7.080  18.046 -0.0825 -0.1448  0.0235
12830DDP     C176975   3.652   9.560  12.401 -0.0871 -0.3523 -0.1996
12830DDP     P176976   3.761   9.611  12.829  0.1711 -0.2194 -0.1156
12830DDP     P276977   3.793   9.836  12.085 -0.2687 -0.0809  0.1597
12830DDP     C276978   3.978  10.068  11.819  0.0600 -0.3608 -0.0447
12830DDP     C376979   4.124   9.688  12.944 -0.1307  0.1529 -0.2682
12830DDP     C476980   3.288   9.332  12.211 -0.0035 -0.0897 -0.1791
12831DDP     C176981  10.280  28.897  28.642 -0.0672 -0.3989 -0.5004
12831DDP     P176982   9.885  28.859  28.599  0.0837 -0.0378  0.0412
12831DDP     P276983  10.477  28.882  28.962 -0.2066  0.1780 -0.1440
12831DDP     C276984  10.843  29.088  29.152  0.1923  0.0183  0.1670
12831DDP     C376985   9.386  28.863  28.477  0.0562  0.1388 -0.2409
12831DDP     C476986  10.642  28.961  28.453 -0.1340 -0.0419  0.3415
12832DDP     C176987  19.278   6.148   4.570  0.0265  0.0570 -0.1645
12832DDP     P176988  19.588   6.278   4.364 -0.3212 -0.4452  0.0950
12832DDP     P276989  19.208   6.502   4.968  0.0414  0.0459 -0.0149
12832DDP     C276990  19.480   6.953   5.052 -0.1891  0.1326 -0.0446
12832DDP     C376991  19.926   6.608   4.364 -0.1074  0.1687 -0.2669
12832DDP     C476992  18.933   6.109   4.333  0.2477  0.1310 -0.1474
12833DDP     C176993   7.092   3.998   3.452  0.0430  0.3380 -0.0262
12833DDP     P176994   6.651   4.187   3.267  0.1037  0.0550  0.1737
12833DDP     P276995   7.172   3.724   3.014 -0.1290 -0.1024 -0.1318
12833DDP     C276996   7.315   3.284   2.750  0.0980  0.3497 -0.2411
12833DDP     C376997   6.176   4.066   3.160  0.0409  0.2057 -0.0560
12833DDP     C476998   7.302   4.060   3.814 -0.3098  0.3079 -0.0207
12834DDP     C176999  25.880   1.114  29.871  0.0187 -0.3721  0.0175
12834DDP     P177000  25.445   1.154  29.917 -0.0410 -0.0066  0.1362
12834DDP     P277001  26.117   0.843  29.546 -0.3118  0.0980 -0.1667
12834DDP     C277002  26.212   0.734  29.140 -0.0879 -0.1321 -0.3143
12834DDP     C377003  25.086   0.901  29.598 -0.0042  0.0092 -0.1393
12834DDP     C477004  26.136   1.479  29.885 -0.2559  0.1652  0.0058
12835DDP     C177005  22.935  19.666  11.714 -0.0322  0.0162 -0.1156
12835DDP     P177006  23.216  19.676  11.936  0.2779 -0.1900  0.1916
12835DDP     P277007  22.784  20.054  11.530  0.1131  0.3810 -0.2302
12835DDP     C277008  22.990  20.354  11.380 -0.0169 -0.1666 -0.3505
12835DDP     C377009  23.633  19.553  12.004  0.1164  0.1921 -0.2522
12835DDP     C477010  23.135  19.292  11.550 -0.0491  0.0063 -0.1148
12836DDP     C177011  29.429  10.871  23.244 -0.2187 -0.2460  0.3171
12836DDP     P177012  29.073  10.489  23.207 -0.0291 -0.2232  0.0584
12836DDP     P277013  29.871  10.807  23.104  0.1547 -0.2432 -0.0860
12836DDP     C277014  30.326  10.683  23.194  0.1833  0.3202 -0.1054
12836DDP     C377015  28.732  10.222  23.009  0.0778  0.2099  0.3208
12836DDP     C477016  29.051  11.228  23.334 -0.1777 -0.0700  0.1074
12837DDP     C177017  10.114  25.241   8.532 -0.0251 -0.1308  0.2013
12837DDP     P177018  10.175  25.026   8.163  0.2064 -0.0029 -0.0787
12837DDP     P277019  10.414  25.634   8.556  0.0416  0.1772  0.0564
12837DDP     C277020  10.483  25.743   8.931  0.1798  0.1954 -0.2447
12837DDP     C377021  10.170  24.610   8.234  0.0582 -0.1608  0.1086
12837DDP     C477022   9.892  25.120   8.855 -0.1235 -0.0265 -0.1113
12838DDP     C177023   3.096   9.404  14.484 -0.1321  0.3429  0.0766
12838DDP     P177024   3.185   9.428  14.099  0.2139  0.0433 -0.0313
12838DDP     P277025   3.192   9.114  14.726  0.0501  0.1840  0.0317
12838DDP     C277026   3.357   8.804  15.001  0.0412  0.2231  0.1399
12838DDP     C377027   3.343   9.275  13.754 -0.1700 -0.1863 -0.2689
12838DDP     C477028   2.895   9.692  14.649  0.0315 -0.2687 -0.0713
12839DDP     C177029  29.352  15.288  13.198 -0.0072 -0.4157  0.1092
12839DDP     P177030  28.899  15.347  13.218 -0.3858 -0.1472 -0.2352
12839DDP     P277031  29.397  15.371  12.729 -0.1430  0.2464  0.0794
12839DDP     C277032  29.601  15.526  12.338 -0.1373 -0.0005 -0.0413
12839DDP     C377033  28.455  15.319  12.988 -0.2424 -0.1434 -0.1115
12839DDP     C477034  29.550  14.939  13.343  0.2977  0.1239  0.0390
12840DDP     C177035  27.904  18.456  22.385 -0.0987 -0.1827  0.0734
12840DDP     P177036  27.565  18.778  22.315 -0.0747  0.1203 -0.0711
12840DDP     P277037  28.183  18.160  22.357  0.0688 -0.0552 -0.1445
12840DDP     C277038  28.618  17.995  22.268 -0.0459  0.0273 -0.1714
12840DDP     C377039  27.221  18.856  22.139 -0.0519  0.0630  0.0223
12840DDP     C477040  27.961  18.558  21.943  0.0300 -0.2650 -0.3222
12841DDP     C177041  25.059  14.316  25.128  0.0513 -0.0873 -0.2100
12841DDP     P177042  24.864  14.118  24.823  0.2590 -0.2083  0.3931
12841DDP     P277043  24.969  14.667  25.374  0.0960 -0.1466  0.4021
12841DDP     C277044  25.089  15.063  25.353  0.0451 -0.1023 -0.0188
12841DDP     C377045  24.544  14.047  24.484 -0.0747  0.0145  0.1535
12841DDP     C477046  25.484  14.142  25.278 -0.0589 -0.1998 -0.0165
12842DDP     C177047   1.374  20.752  14.029 -0.1174  0.3072 -0.1503
12842DDP     P177048   1.061  20.434  13.834  0.1427 -0.1711  0.0075
12842DDP     P277049   1.724  21.056  13.894 -0.0288  0.1471  0.1146
12842DDP     C277050   2.200  21.011  13.984  0.1354 -0.1019 -0.0379
12842DDP     C377051   0.815  19.966  13.848  0.2059 -0.1420 -0.2327
12842DDP     C477052   1.454  20.825  14.513 -0.0993  0.2567 -0.0131
12843DDP     C177053   0.265  22.849   0.616  0.4458  0.3217  0.2546
12843DDP     P177054   0.399  22.428   0.658 -0.0987  0.0040  0.0766
12843DDP     P277055   0.405  23.169   0.900 -0.2616 -0.0937 -0.1865
12843DDP     C277056   0.463  23.488   1.077  0.2280  0.1691  0.1003
12843DDP     C377057   0.581  22.201   0.401 -0.1551 -0.2701 -0.0286
12843DDP     C477058  30.269  22.872   0.318 -0.4275 -0.2041 -0.1482
12844DDP     C177059   7.475  27.935  26.498  0.5433  0.2409  0.0244
12844DDP     P177060   7.182  27.750  26.253 -0.1053  0.2275 -0.0458
12844DDP     P277061   7.522  28.339  26.445 -0.2096  0.0480  0.1854
12844DDP     C277062   7.273  28.825  26.460 -0.1340  0.0714 -0.0240
12844DDP     C377063   6.876  27.842  26.005  0.1906  0.0231  0.2213
12844DDP     C477064   7.693  27.717  26.702 -0.3053 -0.1014 -0.0768
12845DDP     C177065  28.879   9.299  18.624 -0.2302  0.0143  0.0249
12845DDP     P177066  28.942   9.626  18.934 -0.2144  0.2039  0.1840
12845DDP     P277067  28.602   9.320  18.235 -0.3348  0.0340  0.0553
12845DDP     C277068  28.670   9.297  17.853  0.0327  0.1380  0.0126
12845DDP     C377069  28.841  10.016  18.873 -0.1502  0.0358 -0.0689
12845DDP     C477070  29.262   9.044  18.632  0.1465  0.1490 -0.0440
12846DDP     C177071  13.593  17.260  25.692  0.0820 -0.0217 -0.2908
12846DDP     P177072  13.789  17.668  25.945  0.0040  0.0639 -0.0101
12846DDP     P277073  13.247  16.969  25.800 -0.4109 -0.2126 -0.1130
12846DDP     C277074  12.845  16.745  25.826  0.0518  0.1835 -0.3191
12846DDP     C377075  14.023  17.995  26.092  0.1461 -0.1397 -0.1468
12846DDP     C477076  13.826  17.086  25.432  0.1008  0.1011 -0.2692
12847DDP     C177077   6.746  15.641  14.839  0.2803 -0.0251  0.1964
12847DDP     P177078   7.074  15.740  14.465 -0.1606  0.3765  0.1772
12847DDP     P277079   6.711  15.235  15.171  0.0327 -0.0595  0.2932
12847DDP     C277080   6.693  14.843  15.180 -0.0325  0.1411  0.1361
12847DDP     C377081   7.203  15.682  14.084 -0.2257  0.2894 -0.1594
12847DDP     C477082   6.371  15.882  14.781  0.1072 -0.3131  0.3083
12848DDP     C177083  14.087  25.585  12.802 -0.1172 -0.0542 -0.1080
12848DDP     P177084  13.968  25.953  12.771  0.0470 -0.1350  0.0777
12848DDP     P277085  14.184  25.437  13.271 -0.0786 -0.1919  0.1186
12848DDP     C277086  13.938  25.458  13.654 -0.0361  0.3291  0.1491
12848DDP     C377087  13.698  26.169  12.759 -0.0241  0.1236  0.2715
12848DDP     C477088  14.031  25.345  12.431  0.0581 -0.0085  0.1275
12849DDP     C177089  28.674  24.228  20.862 -0.1080 -0.1530 -0.3610
12849DDP     P177090  29.018  24.030  21.093 -0.0466 -0.2433  0.0271
12849DDP     P277091  28.496  24.153  20.401 -0.0526 -0.0220  0.0894
12849DDP     C277092  28.780  24.229  20.013 -0.0440  0.1116  0.0054
12849DDP     C377093  29.153  23.598  21.292 -0.3079  0.2362  0.0379
12849DDP     C477094  28.488  24.504  21.204  0.2190  0.2815 -0.2130
12850DDP     C177095  12.399  24.659  18.465 -0.1264 -0.2751 -0.0167
12850DDP     P177096  12.364  24.362  18.842  0.1397  0.2092  0.1609
12850DDP     P277097  12.500  24.658  17.899 -0.0000  0.0693 -0.0782
12850DDP     C277098  12.350  24.679  17.605  0.2370 -0.1281  0.2954
12850DDP     C377099  12.371  24.254  19.245  0.1304  0.1401  0.0283
12850DDP     C477100  12.109  24.997  18.611 -0.2303  0.1618  0.3777
12851DDP     C177101  14.675  13.657   2.061 -0.0172  0.1606 -0.0548
12851DDP     P177102  14.810  13.309   2.371 -0.0607 -0.1904  0.2532
12851DDP     P277103  14.301  13.960   2.206 -0.0414  0.3313 -0.0239
12851DDP     C277104  13.975  14.225   2.054 -0.0853 -0.1251  0.0569
12851DDP     C377105  14.829  12.982   2.651 -0.3462  0.1849 -0.3681
12851DDP     C477106  14.730  13.665   1.648  0.0782 -0.1577  0.0875
12852DDP     C177107  12.975   3.926  23.938  0.1302  0.2870 -0.5614
12852DDP     P177108  13.201   3.902  24.332 -0.3886  0.0277 -0.2029
12852DDP     P277109  12.878   3.745  23.493  0.0073 -0.0932  0.0150
12852DDP     C277110  12.678   3.879  23.098  0.0159 -0.0349  0.0138
12852DDP     C377111  13.418   3.850  24.714 -0.1832 -0.4758 -0.0166
12852DDP     C477112  12.981   4.379  23.900 -0.2909  0.0290 -0.2257
12853DDP     C177113  27.695   3.908  15.672  0.3248 -0.2838  0.2231
12853DDP     P177114  28.055   3.679  15.797  0.1133  0.0181  0.0886
12853DDP     P277115  27.254   3.621  15.589  0.1485 -0.2400  0.2594
12853DDP     C277116  26.817   3.680  15.677 -0.0811  0.3320 -0.2366
12853DDP     C377117  28.480   3.785  15.957  0.1554 -0.3454 -0.1070
12853DDP     C477118  27.619   4.333  15.782 -0.1551 -0.0392  0.2019
12854DDP     C177119   2.832   2.699   8.475  0.1486 -0.1396  0.1118
12854DDP     P177120   2.972   2.590   8.069  0.3203 -0.2122  0.0921
12854DDP     P277121   3.003   3.021   8.683  0.2151  0.2340  0.1949
12854DDP     C277122   2.684   3.253   8.845 -0.2002 -0.4237 -0.3494
12854DDP     C377123   3.209   2.273   7.785  0.0345 -0.1359 -0.2287
12854DDP     C477124   2.459   2.782   8.762 -0.1203  0.1010  0.0583
12855DDP     C177125  12.557  20.416  27.574 -0.1871 -0.0096  0.0943
12855DDP     P177126  12.244  20.499  27.740 -0.2616  0.1861 -0.2877
12855DDP     P277127  12.918  20.422  27.542 -0.0410 -0.1370 -0.0446
12855DDP     C277128  13.264  20.666  27.783 -0.3321  0.3317 -0.0202
12855DDP     C377129  11.903  20.539  27.744  0.0376  0.0183  0.2399
12855DDP     C477130  12.476  20.061  27.427  0.1798 -0.1674 -0.1737
12856DDP     C177131  13.511  24.986  19.040 -0.0845  0.0224 -0.1134
12856DDP     P177132  13.209  24.669  19.111 -0.0626  0.0353 -0.0780
12856DDP     P277133  13.636  25.228  18.639  0.1050 -0.4310 -0.1935
12856DDP     C277134  13.758  24.972  18.266  0.1471 -0.1361 -0.0075
12856DDP     C377135  12.905  24.287  19.153 -0.1610  0.2323  0.0944
12856DDP     C477136  13.843  24.720  19.288  0.2236 -0.0171  0.0346
12857DDP     C177137   5.819  16.517  10.711 -0.0493  0.0005  0.1337
12857DDP     P177138   6.043  16.523  10.315 -0.1550  0.1916 -0.0241
12857DDP     P277139   5.958  16.263  11.090  0.0502  0.1698 -0.1643
12857DDP     C277140   6.211  15.831  11.197 -0.2041 -0.0240 -0.1383
12857DDP     C377141   6.383  16.509  10.107  0.1600 -0.3049  0.5399
12857DDP     C477142   5.373  16.711  10.554  0.1182 -0.0825  0.1414
12858DDP     C177143  24.037   9.352  29.360 -0.0770 -0.0318  0.0128
12858DDP     P177144  24.358   9.677  29.261 -0.2358  0.2131 -0.0489
12858DDP     P277145  23.895   9.030  29.131  0.1090 -0.0816 -0.2767
12858DDP     C277146  24.069   8.906  28.714 -0.1324 -0.1735  0.0073
12858DDP     C377147  24.449   9.914  28.956 -0.0323  0.2646 -0.1791
12858DDP     C477148  23.886   9.508  29.782 -0.1483 -0.0212 -0.1513
12859DDP     C177149  21.808  26.117  25.918 -0.2808 -0.1931  0.0492
12859DDP     P177150  22.092  25.836  26.068  0.0223 -0.4098 -0.2296
12859DDP     P277151  22.085  26.532  25.747 -0.2699  0.0681 -0.0460
12859DDP     C277152  22.145  26.803  25.409 -0.0221 -0.3478 -0.0750
12859DDP     C377153  22.355  25.677  26.427 -0.1556  0.1881  0.0471
12859DDP     C477154  21.470  25.922  25.883 -0.1365 -0.0369 -0.0309
12860DDP     C177155  22.213  17.459  23.469  0.0553 -0.1681 -0.3403
12860DDP     P177156  21.856  17.306  23.642  0.1638 -0.1926 -0.1619
12860DDP     P277157  22.580  17.733  23.476  0.1264 -0.2243  0.1138
12860DDP     C277158  22.875  18.043  23.450 -0.2527 -0.0486  0.1017
12860DDP     C377159  21.641  16.959  23.566 -0.0680  0.0631 -0.0046
12860DDP     C477160  22.228  17.204  23.157 -0.3595  0.2153  0.0770
12861DDP     C177161  21.505  14.148  29.746  0.2950 -0.2257 -0.2002
12861DDP     P177162  21.553  14.394  30.083  0.3832 -0.2278 -0.0974
12861DDP     P277163  21.707  13.854  29.451  0.1059  0.1241  0.3290
12861DDP     C277164  21.657  13.633  29.098 -0.2384  0.0274  0.1308
12861DDP     C377165  21.977  14.699  30.126 -0.2030  0.0129  0.0282
12861DDP     C477166  21.241  14.267  29.384 -0.0920  0.1096  0.2652
12862DDP     C177167  24.078  23.193   5.186 -0.2150  0.0543 -0.3096
12862DDP     P177168  23.908  23.535   5.077  0.1859  0.1098  0.0597
12862DDP     P277169  24.535  23.166   5.213  0.1978 -0.2317 -0.2430
12862DDP     C277170  24.891  23.247   4.986 -0.1416 -0.0450  0.0498
12862DDP     C377171  23.961  23.930   5.117 -0.1966 -0.4144 -0.1481
12862DDP     C477172  23.864  22.753   5.234  0.1509  0.1529 -0.1419
12863DDP     C177173   7.222   0.720  17.341  0.0984  0.0939  0.1865
12863DDP     P177174   7.005   0.509  17.718  0.2442  0.0655  0.2402
12863DDP     P277175   7.741   0.772  17.434 -0.0171 -0.2086  0.1762
12863DDP     C277176   7.936   1.055  17.827  0.0546  0.2053 -0.0404
12863DDP     C377177   6.639   0.564  17.944 -0.4097  0.1660 -0.0764
12863DDP     C477178   6.895   0.901  17.060  0.0317  0.0571  0.0627
12864DDP     C177179   7.316   6.787   5.449 -0.0120  0.2244 -0.0009
12864DDP     P177180   7.455   7.156   5.544 -0.1803  0.0936  0.1411
12864DDP     P277181   7.526   6.396   5.622  0.1034  0.2553 -0.3819
12864DDP     C277182   7.808   6.016   5.477 -0.0492 -0.0802 -0.1579
12864DDP     C377183   7.605   7.579   5.637  0.2795  0.1560  0.2457
12864DDP     C477184   6.946   6.662   5.150  0.1094 -0.1212 -0.1986
12865DDP     C177185   3.684  26.783  29.170 -0.2250 -0.1414 -0.2791
12865DDP     P177186   3.953  26.549  29.571 -0.1548 -0.0626 -0.0549
12865DDP     P277187   3.565  26.578  28.776 -0.1279 -0.0935  0.0437
12865DDP     C277188   3.672  26.543  28.374 -0.0999 -0.0616  0.0505
12865DDP     C377189   3.818  26.354  29.898 -0.0916  0.4448  0.0331
12865DDP     C477190   3.345  27.069  29.292 -0.2728 -0.3845 -0.0959
12866DDP     C177191  21.228  17.862   5.958 -0.0815 -0.0612  0.4350
12866DDP     P177192  21.201  17.962   6.324  0.2199 -0.0322  0.4097
12866DDP     P277193  21.632  18.002   5.864  0.1041 -0.2226 -0.0602
12866DDP     C277194  21.747  18.229   5.516  0.1433  0.2716  0.1383
12866DDP     C377195  20.912  18.132   6.580 -0.0044  0.2060 -0.0547
12866DDP     C477196  20.866  17.769   5.691  0.2534  0.1519 -0.1454
12867DDP     C177197   3.497  22.946  11.850 -0.2517  0.1709 -0.0143
12867DDP     P177198   3.820  23.063  12.108 -0.1489  0.2052 -0.3162
12867DDP     P277199   3.633  23.108  11.427  0.1968 -0.0346  0.0651
12867DDP     C277200   3.795  22.990  11.000 -0.0690 -0.0954 -0.2710
12867DDP     C377201   4.228  23.186  12.275 -0.1486 -0.1750  0.2338
12867DDP     C477202   3.455  22.484  11.788  0.1847  0.0657 -0.2701
12868DDP     C177203  26.221  14.045  16.508 -0.2039  0.0542 -0.0558
12868DDP     P177204  26.297  13.866  16.126  0.1540 -0.0869 -0.0370
12868DDP     P277205  26.093  14.475  16.461 -0.3473 -0.0298 -0.3119
12868DDP     C277206  26.046  14.940  16.407  0.2963  0.0339  0.0099
12868DDP     C377207  26.292  13.580  15.849 -0.0896 -0.3836  0.1395
12868DDP     C477208  26.189  13.808  16.864 -0.0582 -0.0249  0.0916
12869DDP     C177209   5.549   1.128   0.732 -0.0305 -0.1435 -0.3472
12869DDP     P177210   5.743   0.726   0.914  0.1340  0.0878 -0.0859
12869DDP     P277211   5.773   1.416   0.437  0.1346  0.2269 -0.1090
12869DDP     C277212   5.805   1.808   0.270 -0.3156  0.1296 -0.1798
12869DDP     C377213   6.022   0.430   1.158  0.0646  0.5020  0.0694
12869DDP     C477214   5.134   1.263   0.899 -0.1413  0.1146  0.0867
12870DDP     C177215  13.945   4.891   7.362 -0.1036  0.0422  0.1328
12870DDP     P177216  13.976   4.343   7.298 -0.1492 -0.1185 -0.0635
12870DDP     P277217  14.354   5.051   7.538 -0.1690  0.1377 -0.0874
12870DDP     C277218  14.804   4.944   7.424  0.1042 -0.0571  0.0945
12870DDP     C377219  13.837   4.068   7.660  0.0135  0.1235 -0.1151
12870DDP     C477220  13.587   5.101   7.524 -0.2300  0.1472  0.0711
12871DDP     C177221   2.508   5.750   6.976  0.1485 -0.1662 -0.2881
12871DDP     P177222   2.791   5.542   6.642 -0.0173 -0.1307  0.0148
12871DDP     P277223   2.629   5.397   7.270 -0.1921  0.2804 -0.0907
12871DDP     C277224   3.042   5.259   7.381  0.0939 -0.0613  0.2214
12871DDP     C377225   2.890   5.211   6.433 -0.0059 -0.0514 -0.0528
12871DDP     C477226   2.098   5.961   7.104 -0.4247 -0.1367  0.2694
12872DDP     C177227   5.309  18.124  15.192 -0.0365  0.1407 -0.2512
12872DDP     P177228   5.115  17.805  15.428  0.2871  0.1807 -0.2516
12872DDP     P277229   5.705  18.181  15.044 -0.0671 -0.1324 -0.2324
12872DDP     C277230   5.873  18.090  14.724  0.0337  0.0579  0.1758
12872DDP     C377231   5.019  17.469  15.630  0.1797  0.3205 -0.0032
12872DDP     C477232   5.165  18.522  15.316 -0.1490 -0.0513 -0.1986
12873DDP     C177233  15.435  26.786   5.121  0.2506  0.2551 -0.0043
12873DDP     P177234  15.402  27.201   5.029 -0.1520 -0.0308  0.2431
12873DDP     P277235  15.802  26.706   5.301 -0.0439 -0.3784  0.1018
12873DDP     C277236  15.914  26.662   5.781  0.0119 -0.1983  0.2917
12873DDP     C377237  15.320  27.574   4.948  0.0172  0.0137  0.4206
12873DDP     C477238  15.201  26.412   5.070 -0.0391 -0.0285  0.2743
12874DDP     C177239  18.080  26.578  15.518  0.0993 -0.1758 -0.0512
12874DDP     P177240  18.039  26.469  15.925 -0.2021  0.0660 -0.0982
12874DDP     P277241  18.464  26.448  15.307 -0.0620 -0.0346  0.0102
12874DDP     C277242  18.759  26.287  15.107 -0.1088 -0.0712 -0.0773
12874DDP     C377243  18.300  26.672  16.198 -0.0437  0.1404 -0.0504
12874DDP     C477244  17.709  26.780  15.280 -0.2744  0.0478 -0.2603
12875DDP     C177245  20.548  10.094  19.171  0.2180 -0.2338  0.1093
12875DDP     P177246  20.738  10.466  19.388 -0.2648 -0.2668  0.0861
12875DDP     P277247  20.136  10.206  19.001 -0.3294 -0.2288 -0.0898
12875DDP     C277248  19.718  10.313  19.106  0.2417 -0.0429  0.0003
12875DDP     C377249  21.071  10.737  19.592 -0.0241  0.0218 -0.0863
12875DDP     C477250  20.646   9.741  19.288 -0.2553 -0.1605  0.0134
12876DDP     C177251  24.094  15.878  25.106 -0.3345  0.1538 -0.0344
12876DDP     P177252  23.872  15.972  24.667  0.0400 -0.0827  0.1593
12876DDP     P277253  24.126  15.439  25.114 -0.1273 -0.1091  0.1666
12876DDP     C277254  24.050  15.002  25.390 -0.3006  0.1055  0.1463
12876DDP     C377255  23.601  16.273  24.575 -0.1389  0.2317 -0.1927
12876DDP     C477256  24.285  16.211  25.351 -0.0276 -0.0116  0.0901
12877DDP     C177257  20.139  18.674  11.615 -0.1162 -0.0008  0.1226
12877DDP     P177258  20.552  18.559  11.749 -0.2824 -0.2611 -0.2205
12877DDP     P277259  19.825  18.336  11.893  0.0938  0.0611  0.1016
12877DDP     C277260  19.605  18.105  12.238  0.1376 -0.3210  0.0824
12877DDP     C377261  21.008  18.588  11.836 -0.1580  0.3979 -0.1434
12877DDP     C477262  19.980  19.015  11.198  0.0311  0.0055  0.0486
12878DDP     C177263  24.375  12.264   2.799 -0.1512 -0.2065  0.0078
12878DDP     P177264  24.769  12.347   2.616  0.0498 -0.4509  0.1314
12878DDP     P277265  24.074  12.131   2.538 -0.3663 -0.0938 -0.1822
12878DDP     C277266  23.721  11.928   2.593 -0.1286  0.2052 -0.1762
12878DDP     C377267  24.855  12.709   2.340 -0.0843  0.2532  0.3241
12878DDP     C477268  24.395  12.219   3.219 -0.1896 -0.2054  0.0049
12879DDP     C177269  22.263  27.607   3.250 -0.1685 -0.2960 -0.1581
12879DDP     P177270  22.055  27.593   2.864 -0.3291 -0.0692  0.1735
12879DDP     P277271  22.128  27.296   3.632 -0.2460  0.3578 -0.2750
12879DDP     C277272  21.966  27.053   3.792 -0.0870  0.1617  0.0549
12879DDP     C377273  21.688  27.536   2.607 -0.0607 -0.0813 -0.1446
12879DDP     C477274  22.538  27.952   3.278 -0.0038  0.0356  0.0575
12880DDP     C177275  14.923  23.226  21.717  0.1470  0.5604  0.3078
12880DDP     P177276  14.749  23.453  22.054  0.3073 -0.0594  0.4250
12880DDP     P277277  14.730  22.981  21.451 -0.0739 -0.0077 -0.3466
12880DDP     C277278  14.626  22.624  21.136  0.1861 -0.0707  0.1820
12880DDP     C377279  14.361  23.602  22.089 -0.0066 -0.1356 -0.2438
12880DDP     C477280  15.270  22.992  21.844 -0.4992  0.1016 -0.1116
12881DDP     C177281  10.625   8.107  11.641  0.1109 -0.0753 -0.1241
12881DDP     P177282  10.226   8.028  11.466 -0.0385 -0.0001  0.0028
12881DDP     P277283  10.912   7.785  11.587  0.1423 -0.0727  0.1747
12881DDP     C277284  10.965   7.477  11.399 -0.0783 -0.0873 -0.1620
12881DDP     C377285   9.837   8.217  11.256 -0.3219  0.1827 -0.0931
12881DDP     C477286  10.647   8.616  11.718 -0.0589 -0.1128  0.0967
12882DDP     C177287   8.168   7.468  10.890  0.0095  0.3010 -0.1278
12882DDP     P177288   7.890   7.248  11.034  0.0391 -0.0452  0.0414
12882DDP     P277289   8.109   7.397  10.434  0.1971  0.1411 -0.0710
12882DDP     C277290   7.891   7.565  10.162 -0.0277  0.1341  0.2499
12882DDP     C377291   7.553   7.004  11.225 -0.0678  0.1336  0.0157
12882DDP     C477292   8.624   7.573  11.048 -0.1071  0.0471 -0.0245
12883DDP     C177293  30.284  14.215  29.350 -0.2116 -0.0645 -0.0273
12883DDP     P177294  30.130  14.445  29.779 -0.4454  0.0277 -0.1240
12883DDP     P277295   0.332  14.187  29.177 -0.1663  0.0278 -0.0968
12883DDP     C277296   0.485  14.341  28.725 -0.0972  0.0540 -0.1003
12883DDP     C377297  30.329  14.481  30.163 -0.0299  0.0060 -0.1496
12883DDP     C477298  29.928  14.206  29.076 -0.2430  0.1692 -0.1956
12884DDP     C177299  17.824  15.552  13.963 -0.3416 -0.0257 -0.2969
12884DDP     P177300  17.974  15.129  14.075 -0.0206  0.0093  0.0448
12884DDP     P277301  18.063  15.931  13.899  0.1607  0.0982  0.1546
12884DDP     C277302  18.531  16.036  13.880 -0.2124 -0.1145  0.0934
12884DDP     C377303  18.302  14.800  13.981  0.1111 -0.0636 -0.1641
12884DDP     C477304  17.304  15.556  14.057 -0.0684  0.1522  0.0517
12885DDP     C177305   0.201  19.971   4.530  0.3336 -0.3436  0.0930
12885DDP     P177306   0.022  19.570   4.285  0.0499  0.2142 -0.0364
12885DDP     P277307   0.029  20.125   4.915 -0.0292  0.3002  0.0993
12885DDP     C277308   0.149  20.455   5.275  0.1585  0.2068  0.2940
12885DDP     C377309  29.940  19.448   4.415 -0.3429 -0.0847 -0.2337
12885DDP     C477310   0.556  20.187   4.384 -0.1430  0.0611  0.2267
12886DDP     C177311  28.972  17.700  21.158  0.1759  0.1399  0.0474
12886DDP     P177312  29.173  17.775  20.726 -0.0609 -0.1296 -0.2917
12886DDP     P277313  29.078  18.115  21.362 -0.1461  0.1700  0.0612
12886DDP     C277314  28.901  18.547  21.446  0.2289  0.0990  0.2015
12886DDP     C377315  29.615  17.920  20.484 -0.0466  0.0014  0.1239
12886DDP     C477316  28.822  17.541  21.507  0.1327 -0.0165 -0.1699
12887DDP     C177317  12.986  14.448   4.610  0.1316 -0.1198 -0.0110
12887DDP     P177318  12.643  14.609   4.558  0.1117 -0.0603 -0.0309
12887DDP     P277319  12.928  14.516   5.018 -0.3293 -0.2012 -0.1801
12887DDP     C277320  13.083  14.357   5.421  0.0587  0.1592  0.0881
12887DDP     C377321  12.470  14.768   4.958 -0.1118 -0.0948 -0.0441
12887DDP     C477322  13.345  14.147   4.359 -0.0388 -0.1565 -0.0499
12888DDP     C177323  25.226   8.714   2.978 -0.0070  0.0237  0.0741
12888DDP     P177324  25.028   8.649   3.275 -0.3430 -0.1596  0.4188
12888DDP     P277325  25.007   8.903   2.746  0.0972  0.1241 -0.0971
12888DDP     C277326  24.710   8.978   2.485  0.1270  0.0708 -0.0991
12888DDP     C377327  24.773   8.399   3.567  0.2906 -0.0383 -0.1377
12888DDP     C477328  25.575   8.479   2.911  0.2268 -0.2742 -0.2356
12889DDP     C177329  17.597  11.493   5.885  0.3752 -0.0314  0.0165
12889DDP     P177330  17.344  11.362   5.494  0.0105 -0.1539  0.0574
12889DDP     P277331  17.244  11.553   6.086  0.1592 -0.3422  0.0582
12889DDP     C277332  17.062  11.622   6.461 -0.0858 -0.0378  0.0647
12889DDP     C377333  17.055  11.262   5.183  0.2324 -0.2589  0.0869
12889DDP     C477334  17.923  11.387   6.041 -0.0184 -0.0700 -0.3077
12890DDP     C177335  22.294  20.560  22.323 -0.2764 -0.5420  0.0820
12890DDP     P177336  22.059  20.763  22.480  0.0848 -0.0814  0.0633
12890DDP     P277337  22.173  20.592  21.909  0.1239 -0.2874  0.0229
12890DDP     C277338  22.047  20.729  21.513  0.1472  0.0047  0.2575
12890DDP     C377339  21.891  20.661  22.900 -0.0207 -0.0299  0.0239
12890DDP     C477340  22.647  20.364  22.502  0.2939 -0.1431  0.1995
12891DDP     C177341  23.084   9.789  30.201  0.3630  0.0469  0.0655
12891DDP     P177342  23.497   9.592  30.070 -0.3064  0.2659 -0.0620
12891DDP     P277343  22.856   9.462   0.179  0.0736 -0.1901  0.1725
12891DDP     C277344  23.001   9.022   0.292 -0.2396  0.2177  0.0773
12891DDP     C377345  23.887   9.446  -0.001 -0.2464 -0.0977 -0.1029
12891DDP     C477346  22.915  10.097  30.023  0.0690  0.0773  0.0383
12892DDP     C177347  15.304  23.977  20.639  0.1580 -0.1119 -0.0213
12892DDP     P177348  15.315  23.792  21.056 -0.0303  0.3564 -0.0616
12892DDP     P277349  15.334  23.614  20.326  0.1322  0.4772  0.1888
12892DDP     C277350  15.643  23.415  20.058 -0.1610 -0.1666  0.2136
12892DDP     C377351  15.648  23.529  21.239  0.2309 -0.0407  0.3001
12892DDP     C477352  15.393  24.451  20.501  0.0721  0.0414  0.0230
12893DDP     C177353   8.348  14.435   5.592  0.1400 -0.1649  0.2413
12893DDP     P177354   8.010  14.135   5.427 -0.2321  0.2445  0.1261
12893DDP     P277355   8.786  14.286   5.599 -0.0716  0.2202  0.0051
12893DDP     C277356   9.216  14.028   5.566  0.0624 -0.2826  0.0993
12893DDP     C377357   7.719  13.796   5.170 -0.0049 -0.1447 -0.2363
12893DDP     C477358   8.269  14.545   6.005  0.3684 -0.2210  0.0152
12894DDP     C177359   2.394  26.159  29.127  0.1379 -0.0386 -0.1549
12894DDP     P177360   2.645  26.280  29.445 -0.1617  0.1650  0.0883
12894DDP     P277361   2.691  26.021  28.725  0.1652 -0.0754  0.5141
12894DDP     C277362   2.760  25.631  28.529 -0.1440 -0.2519  0.0577
12894DDP     C377363   2.780  25.953  29.697 -0.0055 -0.0256  0.0685
12894DDP     C477364   1.940  26.050  29.138 -0.1822 -0.1111 -0.2361
12895DDP     C177365  16.910   4.859  20.219 -0.2192 -0.2715 -0.1169
12895DDP     P177366  17.336   4.937  20.195 -0.1221 -0.0847  0.1574
12895DDP     P277367  16.621   4.621  20.063  0.2105 -0.0312  0.0843
12895DDP     C277368  16.221   4.621  20.290 -0.2571 -0.0715  0.1959
12895DDP     C377369  17.576   4.946  19.814  0.2371 -0.1791 -0.2847
12895DDP     C477370  16.754   5.205  20.435 -0.1867 -0.1037 -0.1505
12896DDP     C177371   2.742  22.001  18.905 -0.0810  0.2757 -0.0655
12896DDP     P177372   2.948  22.448  19.063 -0.2591 -0.1411 -0.0792
12896DDP     P277373   3.001  21.775  18.711  0.2194  0.0064  0.5300
12896DDP     C277374   3.396  21.726  18.765  0.1568 -0.2693 -0.3798
12896DDP     C377375   2.985  22.783  19.530  0.2243 -0.0661 -0.0140
12896DDP     C477376   2.379  21.851  19.132  0.0085 -0.0613 -0.1903
12897DDP     C177377  23.047  16.512   2.611  0.4586 -0.0108 -0.2165
12897DDP     P177378  22.742  16.572   2.199  0.0258  0.0012  0.3097
12897DDP     P277379  22.860  16.153   2.912  0.0298 -0.1810  0.3046
12897DDP     C277380  22.543  16.055   3.121  0.1984  0.0298  0.0446
12897DDP     C377381  22.833  16.776   1.763 -0.0510  0.2120  0.0733
12897DDP     C477382  23.516  16.411   2.605 -0.2383 -0.1362  0.0695
12898DDP     C177383  28.009  22.727   1.514 -0.2432  0.1294 -0.0675
12898DDP     P177384  28.057  22.705   1.147 -0.0429 -0.0295 -0.1217
12898DDP     P277385  27.641  22.818   1.615  0.1835  0.0248 -0.0618
12898DDP     C277386  27.217  22.890   1.550  0.0595 -0.3732 -0.0928
12898DDP     C377387  27.972  22.580   0.737 -0.0625 -0.0159  0.0094
12898DDP     C477388  28.236  22.949   1.802 -0.3747 -0.1038  0.1985
12899DDP     C177389  15.499  15.272  24.216  0.0545  0.1351  0.2267
12899DDP     P177390  15.854  15.211  23.946 -0.2899  0.0421 -0.1579
12899DDP     P277391  15.083  15.060  24.127 -0.2892 -0.0540 -0.0522
12899DDP     C277392  14.665  14.894  24.276  0.0559  0.2659  0.1613
12899DDP     C377393  16.244  15.077  24.080  0.0901 -0.0087  0.0304
12899DDP     C477394  15.582  15.709  24.388  0.0024 -0.0149 -0.3351
12900DDP     C177395  17.929  17.636   7.838  0.0634  0.0292 -0.0783
12900DDP     P177396  17.879  17.240   8.030 -0.1274  0.1417  0.2121
12900DDP     P277397  18.023  17.869   8.227 -0.1114 -0.1662 -0.0285
12900DDP     C277398  17.782  17.944   8.629  0.0904 -0.1040  0.3207
12900DDP     C377399  17.639  16.868   8.129  0.0665  0.0147  0.0117
12900DDP     C477400  17.872  17.838   7.414  0.0485 -0.0140  0.2936
12901DDP     C177401  29.183  22.001  26.836  0.0061  0.1661 -0.1281
12901DDP     P177402  29.312  22.510  26.729 -0.2299 -0.1263  0.0577
12901DDP     P277403  29.167  21.709  26.479  0.0840  0.1020  0.0775
12901DDP     C277404  29.506  21.504  26.199 -0.2787 -0.0173  0.0703
12901DDP     C377405  29.753  22.657  26.797  0.0047 -0.2233  0.1521
12901DDP     C477406  29.108  21.948  27.148  0.1449  0.3299  0.0778
12902DDP     C177407  28.791  22.274  12.042  0.0233 -0.0209 -0.2968
12902DDP     P177408  29.040  22.620  12.037 -0.3627 -0.1020 -0.1309
12902DDP     P277409  28.477  22.255  12.278  0.0621  0.0289 -0.0792
12902DDP     C277410  28.051  22.241  12.322  0.4729 -0.1333 -0.0140
12902DDP     C377411  28.992  23.035  12.142 -0.1843 -0.1710 -0.0068
12902DDP     C477412  29.039  21.891  11.895  0.3395  0.0242 -0.0886
12903DDP     C177413   4.044  17.407   1.112  0.0953  0.0520  0.0213
12903DDP     P177414   4.320  17.078   1.395 -0.3375  0.3947 -0.0904
12903DDP     P277415   3.979  17.301   0.690  0.3035 -0.1167 -0.1837
12903DDP     C277416   3.748  17.511   0.336  0.3419  0.2173  0.0028
12903DDP     C377417   4.336  16.593   1.549  0.0423  0.0627 -0.2006
12903DDP     C477418   4.080  17.905   1.106 -0.0220  0.3293 -0.1059
12904DDP     C177419   1.685  28.518   2.552 -0.0557 -0.0836  0.0576
12904DDP     P177420   1.384  28.485   2.915 -0.0069  0.2740  0.2322
12904DDP     P277421   2.101  28.813   2.658  0.0498  0.1946  0.0782
12904DDP     C277422   2.513  28.878   2.569 -0.2265 -0.1585 -0.0149
12904DDP     C377423   1.208  28.835   3.293 -0.2639  0.2034  0.1523
12904DDP     C477424   1.452  28.560   2.126  0.0629  0.0399  0.1307
12905DDP     C177425   1.728  20.145   3.457 -0.2471  0.0520 -0.0383
12905DDP     P177426   1.636  20.412   3.118 -0.0347  0.2269  0.0967
12905DDP     P277427   1.938  20.477   3.769 -0.1054  0.0448  0.2005
12905DDP     C277428   1.849  20.821   4.050 -0.0209  0.0363 -0.2662
12905DDP     C377429   1.967  20.646   3.100 -0.1790  0.0806 -0.0831
12905DDP     C477430   1.677  19.766   3.714  0.1311  0.0655 -0.1332
12906DDP     C177431  28.592  13.405  17.067  0.1351  0.2184  0.1385
12906DDP     P177432  28.826  13.634  16.757 -0.1556  0.1044  0.3310
12906DDP     P277433  28.695  13.167  17.386 -0.2537  0.0025  0.2468
12906DDP     C277434  28.862  12.806  17.507 -0.1542 -0.1255  0.0156
12906DDP     C377435  29.172  13.839  16.665  0.3542 -0.2298  0.3325
12906DDP     C477436  28.232  13.553  17.235 -0.1830 -0.0216  0.1416
12907DDP     C177437  16.785  16.296  16.579 -0.0939 -0.0624  0.0067
12907DDP     P177438  16.703  15.985  16.489  0.0790 -0.1740 -0.0811
12907DDP     P277439  16.894  16.463  16.218 -0.0067  0.0199 -0.3689
12907DDP     C277440  17.177  16.430  15.802 -0.1325  0.1745  0.0221
12907DDP     C377441  16.480  15.774  16.284  0.0973 -0.0343  0.0317
12907DDP     C477442  16.923  16.435  16.986 -0.0874  0.0005 -0.0351
12908DDP     C177443   9.394  15.446   0.528 -0.0712  0.0168  0.1335
12908DDP     P177444   9.209  15.422   0.857 -0.1094 -0.0459 -0.0681
12908DDP     P277445   9.154  15.227   0.258  0.1050 -0.1995  0.0665
12908DDP     C277446   8.956  14.908  30.217 -0.1066  0.3365  0.1888
12908DDP     C377447   8.847  15.344   0.610  0.2923  0.4574  0.1270
12908DDP     C477448   9.841  15.561   0.448  0.1175 -0.1426  0.2449
12909DDP     C177449   0.265  13.516   0.414  0.1830 -0.1963  0.1545
12909DDP     P177450   0.618  13.393   0.114  0.0222 -0.3221  0.1871
12909DDP     P277451   0.198  13.893   0.554  0.0447 -0.5502 -0.2056
12909DDP     C277452  -0.011  14.181   0.821 -0.1844  0.2174 -0.0954
12909DDP     C377453   1.068  13.189   0.155  0.3399 -0.0722 -0.0121
12909DDP     C477454  30.215  13.377   0.326 -0.1142  0.0618  0.1825
12910DDP     C177455  13.923  11.120   6.362  0.0612 -0.0586 -0.0878
12910DDP     P177456  13.958  11.052   5.909  0.0686 -0.2066  0.2559
12910DDP     P277457  13.971  10.783   6.508  0.1772  0.1351 -0.0056
12910DDP     C277458  13.943  10.450   6.796 -0.0451  0.3714  0.0954
12910DDP     C377459  13.775  11.030   5.510 -0.1251  0.0137  0.3394
12910DDP     C477460  14.000  11.463   6.573 -0.1962 -0.4640 -0.1215
12911DDP     C177461  24.624  13.754   2.945 -0.2907  0.3434  0.3030
12911DDP     P177462  24.412  14.062   2.617  0.0054 -0.2570  0.1625
12911DDP     P277463  24.557  13.763   3.287 -0.0697  0.0292  0.1399
12911DDP     C277464  24.634  13.453   3.619  0.0330  0.0724 -0.2307
12911DDP     C377465  24.137  14.219   2.438  0.0899 -0.0887  0.0997
12911DDP     C477466  24.868  13.431   2.787  0.3451 -0.0985  0.1504
12912DDP     C177467  19.895  10.171  26.513  0.2504 -0.1828  0.1541
12912DDP     P177468  19.760  10.630  26.604 -0.0524 -0.0023  0.2440
12912DDP     P277469  20.090  10.087  26.835 -0.3912  0.0608  0.2547
12912DDP     C277470  20.379  10.350  27.102  0.1628  0.0757  0.1299
12912DDP     C377471  20.015  10.867  26.720 -0.3439 -0.0253  0.0820
12912DDP     C477472  20.020  10.187  26.027  0.0183 -0.0401 -0.2948
12913DDP     C177473   3.904   5.879  22.754  0.2901 -0.0179  0.4400
12913DDP     P177474   3.978   6.082  23.129  0.1387 -0.2206  0.0984
12913DDP     P277475   3.465   5.789  22.534 -0.0846  0.0424  0.2043
12913DDP     C277476   3.188   5.801  22.363  0.0826  0.0223  0.3067
12913DDP     C377477   4.168   6.235  23.336  0.0792 -0.1471 -0.1822
12913DDP     C477478   4.164   5.788  22.440 -0.1436 -0.0184  0.1742
12914DDP     C177479  22.632  10.962  22.724  0.1075  0.0251  0.0525
12914DDP     P177480  22.991  11.160  22.736  0.0586 -0.1293 -0.0566
12914DDP     P277481  22.232  10.957  22.972  0.3589  0.4162 -0.3465
12914DDP     C277482  21.913  11.030  23.220 -0.0318  0.2643  0.0321
12914DDP     C377483  23.238  11.368  22.332  0.0096 -0.2597 -0.3432
12914DDP     C477484  22.560  10.945  22.283  0.1109  0.0929 -0.1242
12915DDP     C177485  10.403  18.513  26.890 -0.0049  0.1025  0.4532
12915DDP     P177486  10.275  18.077  26.977  0.1323  0.0205  0.0886
12915DDP     P277487  10.178  18.812  26.567  0.4522  0.2919 -0.0526
12915DDP     C277488   9.722  18.921  26.488  0.1780 -0.4023 -0.0955
12915DDP     C377489  10.436  17.650  27.013 -0.3981  0.0421 -0.0264
12915DDP     C477490  10.815  18.583  27.003 -0.0016 -0.0817  0.0385
12916DDP     C177491  22.700  14.006  23.758 -0.1762 -0.0420 -0.2003
12916DDP     P177492  22.588  13.615  23.489  0.2074 -0.0660  0.0423
12916DDP     P277493  22.363  14.330  23.643  0.1929 -0.0119  0.0857
12916DDP     C277494  22.032  14.500  23.792  0.0926  0.0710 -0.0845
12916DDP     C377495  22.353  13.220  23.655 -0.0675  0.1946 -0.0344
12916DDP     C477496  23.109  13.836  23.993 -0.1655 -0.0412 -0.1289
12917DDP     C177497  28.472   5.416   6.187 -0.1282  0.0263 -0.1442
12917DDP     P177498  28.818   5.328   6.277  0.0639  0.0567 -0.2549
12917DDP     P277499  28.370   5.260   5.862  0.0109 -0.2535 -0.0193
12917DDP     C277500  28.305   5.042   5.349 -0.2081  0.1629 -0.0200
12917DDP     C377501  29.283   5.082   6.123  0.0101 -0.0617 -0.0118
12917DDP     C477502  28.334   5.767   6.418 -0.1536  0.1906 -0.2495
12918DDP     C177503   1.761  10.975  11.104 -0.2654 -0.0392 -0.0311
12918DDP     P177504   1.507  10.720  11.431 -0.2053  0.1775  0.3087
12918DDP     P277505   2.180  10.924  11.241 -0.1098 -0.1699  0.0380
12918DDP     C277506   2.579  10.610  11.178 -0.0736 -0.2974 -0.0537
12918DDP     C377507   1.239  10.330  11.409  0.0635  0.3573  0.1197
12918DDP     C477508   1.437  10.872  10.694 -0.2234 -0.0940  0.0138
12919DDP     C177509   2.393  16.399  14.180 -0.0310 -0.1272 -0.1266
12919DDP     P177510   2.357  15.914  14.194 -0.2150  0.0112  0.2445
12919DDP     P277511   2.194  16.734  13.775 -0.0335 -0.0639  0.0522
12919DDP     C277512   1.946  16.970  13.624 -0.1097 -0.0793  0.0867
12919DDP     C377513   2.162  15.575  13.933 -0.0985 -0.0528  0.0719
12919DDP     C477514   2.650  16.458  14.415  0.2745  0.1244  0.0178
12920DDP     C177515   6.057   7.169  19.258  0.1431  0.1014  0.1707
12920DDP     P177516   5.824   6.823  19.504 -0.0444 -0.0678  0.2093
12920DDP     P277517   6.098   7.613  19.277  0.1871  0.0096 -0.2020
12920DDP     C277518   6.001   8.025  19.558 -0.1292 -0.3246 -0.2961
12920DDP     C377519   5.724   6.519  19.245 -0.0695 -0.2979  0.1299
12920DDP     C477520   6.336   7.285  18.938  0.0547 -0.2305 -0.1579
12921DDP     C177521  16.042   1.968   2.807 -0.0887  0.1974 -0.4097
12921DDP     P177522  16.403   2.040   2.625  0.1040  0.2809  0.1727
12921DDP     P277523  16.048   2.090   3.305  0.3219  0.1117  0.2156
12921DDP     C277524  16.138   2.072   3.736 -0.3026  0.2311  0.1506
12921DDP     C377525  16.538   2.038   2.186 -0.3105  0.0750 -0.1484
12921DDP     C477526  15.679   1.961   2.558  0.0127  0.0445  0.1950
12922DDP     C177527  28.312  23.942  30.149 -0.2573  0.0214 -0.0766
12922DDP     P177528  28.186  23.601   0.132  0.0279 -0.0165  0.0055
12922DDP     P277529  28.728  23.858  29.964  0.1657 -0.2351 -0.0926
12922DDP     C277530  28.882  23.474  29.834 -0.4483  0.1155 -0.2017
12922DDP     C377531  27.812  23.270   0.254  0.1570 -0.1877 -0.1267
12922DDP     C477532  28.025  24.274  30.244  0.0274 -0.2179 -0.1245
12923DDP     C177533  12.744  19.102  17.171  0.0396  0.0226  0.3001
12923DDP     P177534  12.737  18.842  16.701  0.3909 -0.2419 -0.2026
12923DDP     P277535  12.974  19.434  17.330 -0.3415  0.1662  0.2693
12923DDP     C277536  13.281  19.544  17.598  0.1347 -0.4044  0.0865
12923DDP     C377537  13.009  18.793  16.442 -0.0604 -0.1440 -0.1381
12923DDP     C477538  12.293  18.899  17.368  0.1980 -0.0570 -0.0119
12924DDP     C177539   9.816  12.231  18.834 -0.2640 -0.1801  0.1879
12924DDP     P177540   9.417  12.097  18.653  0.0733  0.1353  0.2186
12924DDP     P277541  10.064  11.933  18.976  0.3584  0.1363  0.0813
12924DDP     C277542  10.229  11.516  18.779  0.0908  0.0303  0.0640
12924DDP     C377543   9.046  12.085  18.378  0.1034  0.1398  0.2352
12924DDP     C477544   9.743  12.559  19.100 -0.3750 -0.0406 -0.2093
12925DDP     C177545  29.247   6.950   4.119  0.1942 -0.2428 -0.0540
12925DDP     P177546  28.834   7.101   4.313  0.2947  0.0873 -0.2903
12925DDP     P277547  29.456   6.922   4.528  0.0170 -0.0915  0.1275
12925DDP     C277548  29.597   6.645   4.821 -0.2393 -0.0939  0.3976
12925DDP     C377549  28.447   6.990   4.531  0.1889  0.2332  0.0243
12925DDP     C477550  29.259   7.042   3.633 -0.0084  0.2374 -0.0706
12926DDP     C177551  19.832  27.423   1.885  0.1572  0.0666  0.0870
12926DDP     P177552  20.227  27.574   1.715  0.5747 -0.1108  0.1845
12926DDP     P277553  19.861  27.530   2.425  0.1269  0.3004 -0.2009
12926DDP     C277554  20.116  27.759   2.621  0.2265 -0.0040 -0.1069
12926DDP     C377555  20.648  27.407   1.525  0.1114  0.1414 -0.3695
12926DDP     C477556  19.378  27.255   1.721  0.0733 -0.1752  0.0294
12927DDP     C177557  22.372   8.005  18.554 -0.0767 -0.1032 -0.2150
12927DDP     P177558  22.556   7.892  18.183 -0.0142 -0.0863  0.4828
12927DDP     P277559  22.170   8.407  18.765  0.2971 -0.1191  0.0782
12927DDP     C277560  21.826   8.580  18.762 -0.1357 -0.1734  0.1061
12927DDP     C377561  22.219   7.688  17.887 -0.0634 -0.1374 -0.3242
12927DDP     C477562  21.941   7.861  18.418  0.3887 -0.2040  0.1898
12928DDP     C177563  17.187  11.410   4.727 -0.1202  0.4382  0.2835
12928DDP     P177564  17.450  11.266   4.408 -0.1141 -0.0499  0.1224
12928DDP     P277565  16.786  11.267   4.735  0.0926 -0.0760 -0.0432
12928DDP     C277566  16.398  11.149   4.521  0.2204 -0.0065  0.0046
12928DDP     C377567  17.761  11.069   4.291  0.0825 -0.1626  0.0554
12928DDP     C477568  17.444  11.610   5.093  0.0816 -0.2164 -0.1772
12929DDP     C177569  11.676   6.538   4.770 -0.2939  0.0974  0.1159
12929DDP     P177570  11.207   6.703   4.805 -0.1475  0.0210  0.1545
12929DDP     P277571  11.816   6.121   4.901 -0.0301 -0.2149  0.1023
12929DDP     C277572  12.319   6.055   5.038  0.0784  0.0695 -0.1410
12929DDP     C377573  11.035   6.879   5.219 -0.2636 -0.0392 -0.1627
12929DDP     C477574  11.940   6.927   4.560 -0.2999 -0.0202  0.2245
12930DDP     C177575  20.378  20.026   1.907 -0.0596  0.1082 -0.2482
12930DDP     P177576  20.055  20.353   2.255 -0.3125  0.3361  0.0510
12930DDP     P277577  20.290  20.045   1.582  0.0130 -0.0912 -0.0134
12930DDP     C277578  20.331  20.272   1.174  0.3260 -0.5370  0.0510
12930DDP     C377579  19.628  20.411   2.350 -0.0916  0.2225  0.3530
12930DDP     C477580  20.625  19.738   1.863  0.3732 -0.3269 -0.1116
12931DDP     C177581   2.162   1.502   1.467  0.3094  0.0701 -0.1612
12931DDP     P177582   2.593   1.704   1.406 -0.1818 -0.2943 -0.0595
12931DDP     P277583   1.819   1.544   1.184 -0.0647 -0.3279 -0.1969
12931DDP     C277584   1.771   1.647   0.754  0.2538 -0.1484  0.0105
12931DDP     C377585   3.002   1.646   1.277 -0.2321  0.0523 -0.1053
12931DDP     C477586   1.887   1.247   1.755 -0.4515 -0.0640  0.1573
12932DDP     C177587  12.397  23.543   6.195 -0.4336  0.2932 -0.0400
12932DDP     P177588  12.414  23.137   6.268 -0.0208  0.0423  0.1864
12932DDP     P277589  12.159  23.715   5.761  0.1605  0.1693 -0.1251
12932DDP     C277590  12.258  23.773   5.343 -0.4334  0.3090 -0.1658
12932DDP     C377591  12.568  22.721   6.416 -0.3178  0.0177 -0.2603
12932DDP     C477592  12.856  23.761   6.372 -0.1253  0.2081  0.0556
12933DDP     C177593  29.493  21.595  28.403  0.1485 -0.2022 -0.1534
12933DDP     P177594  29.366  21.995  28.427 -0.1520  0.2716 -0.2966
12933DDP     P277595  29.922  21.684  28.145 -0.0786  0.0743 -0.0393
12933DDP     C277596  29.944  21.516  27.721 -0.1619 -0.0966  0.0249
12933DDP     C377597  29.126  22.334  28.156 -0.4501 -0.1133  0.3170
12933DDP     C477598  29.216  21.151  28.596 -0.0149  0.4888  0.2888
12934DDP     C177599  27.014  18.041  18.977  0.0482  0.0773  0.1310
12934DDP     P177600  27.390  18.237  19.328 -0.0810  0.3861 -0.0018
12934DDP     P277601  26.973  18.283  18.610  0.1237 -0.0678 -0.0883
12934DDP     C277602  26.952  18.479  18.312 -0.0364  0.1899  0.0871
12934DDP     C377603  27.757  18.235  19.551 -0.1598 -0.1728 -0.3331
12934DDP     C477604  26.631  17.787  19.104  0.0636  0.0651 -0.1959
12935DDP     C177605  29.652  19.182   5.121  0.0196 -0.2470 -0.1466
12935DDP     P177606  29.673  18.929   5.468 -0.1332 -0.1488  0.0772
12935DDP     P277607  29.601  19.618   4.948 -0.1428  0.0256  0.0429
12935DDP     C277608  29.433  20.095   4.869  0.1262  0.1225 -0.2088
12935DDP     C377609  29.802  18.595   5.734 -0.1571  0.1643 -0.1013
12935DDP     C477610  29.951  19.042   4.726 -0.2937 -0.1172  0.0000
12936DDP     C177611  24.685   9.848   3.594  0.0660  0.3306 -0.1403
12936DDP     P177612  24.931   9.418   3.555  0.0624  0.0872 -0.1543
12936DDP     P277613  24.569  10.048   3.930  0.2707 -0.1291 -0.0416
12936DDP     C277614  24.925  10.190   4.198  0.2446 -0.1195  0.3018
12936DDP     C377615  24.963   8.978   3.668  0.2934 -0.0269 -0.1129
12936DDP     C477616  24.992  10.017   3.254  0.0958 -0.1389 -0.0334
12937DDP     C177617  19.025   1.552  18.816 -0.1742 -0.2481  0.2085
12937DDP     P177618  18.744   1.439  18.478 -0.0912 -0.3491  0.1755
12937DDP     P277619  19.310   1.837  18.760 -0.1329  0.1160  0.0629
12937DDP     C277620  19.798   2.065  18.829 -0.1860 -0.2054  0.2436
12937DDP     C377621  18.506   1.720  18.184  0.2228 -0.4326  0.2272
12937DDP     C477622  18.969   1.403  19.161 -0.1811  0.1898  0.1446
12938DDP     C177623  20.081  27.094   9.081 -0.1187 -0.0022  0.2302
12938DDP     P177624  20.449  27.139   8.833 -0.1124 -0.0592  0.0878
12938DDP     P277625  19.731  27.307   8.878 -0.0453 -0.2445 -0.4355
12938DDP     C277626  19.309  27.262   8.815  0.3360 -0.1092  0.3250
12938DDP     C377627  20.806  27.355   8.729  0.2775  0.0816  0.0401
12938DDP     C477628  20.014  26.729   9.267  0.0201 -0.0503 -0.0064
12939DDP     C177629  21.550  15.474  25.685  0.1831  0.1981  0.1234
12939DDP     P177630  21.541  15.254  26.058  0.1688  0.1643 -0.0363
12939DDP     P277631  21.144  15.599  25.573 -0.1378  0.0434  0.0152
12939DDP     C277632  20.648  15.698  25.642  0.1240 -0.2030 -0.0090
12939DDP     C377633  21.672  15.156  26.378  0.2945  0.2157 -0.0921
12939DDP     C477634  21.898  15.766  25.651  0.0913  0.3060  0.2875
12940DDP     C177635   6.771  28.951  24.749  0.1041  0.0951  0.3019
12940DDP     P177636   6.301  29.126  24.554  0.0113 -0.3282  0.0239
12940DDP     P277637   7.114  29.380  24.734 -0.1118 -0.0111 -0.1911
12940DDP     C277638   7.387  29.423  24.980 -0.0610 -0.2175  0.0175
12940DDP     C377639   5.852  29.319  24.553  0.1287  0.1533  0.0608
12940DDP     C477640   6.887  28.536  24.716 -0.1876  0.4799  0.0853
12941DDP     C177641  29.884  27.532  18.279  0.0159 -0.1432 -0.0584
12941DDP     P177642  29.965  27.986  18.309 -0.1501  0.1544 -0.3004
12941DDP     P277643  30.131  27.397  18.583  0.2658 -0.0885  0.1429
12941DDP     C277644  30.204  26.848  18.709 -0.2335 -0.2154  0.0226
12941DDP     C377645  29.796  28.417  18.170 -0.0612  0.1561  0.1149
12941DDP     C477646  29.411  27.578  18.137  0.1817  0.1695  0.0356
12942DDP     C177647  16.203   3.147   7.427  0.1674  0.0118 -0.0638
12942DDP     P177648  15.843   2.772   7.524  0.1807 -0.0140 -0.0929
12942DDP     P277649  16.187   3.421   7.827  0.0672 -0.2237  0.0139
12942DDP     C277650  16.015   3.541   8.237 -0.4871  0.1346  0.0556
12942DDP     C377651  15.513   2.455   7.810  0.1962 -0.3689 -0.1604
12942DDP     C477652  16.220   3.361   7.023  0.0829  0.1511 -0.0916
12943DDP     C177653  11.955  22.298  19.837  0.0482 -0.1956 -0.0211
12943DDP     P177654  12.067  22.681  19.685  0.0145  0.0611  0.2136
12943DDP     P277655  11.556  22.407  20.175  0.2430 -0.2645  0.1145
12943DDP     C277656  11.218  22.595  20.368 -0.2550 -0.0762 -0.2936
12943DDP     C377657  12.049  23.050  19.819  0.1135 -0.1415  0.2591
12943DDP     C477658  12.291  21.956  19.945  0.1575 -0.0698 -0.0346
12944DDP     C177659  26.250   2.529  19.171  0.0364 -0.2752 -0.0499
12944DDP     P177660  26.307   2.350  19.458 -0.0984  0.0542 -0.1096
12944DDP     P277661  26.590   2.687  18.817  0.1544 -0.0822 -0.0925
12944DDP     C277662  26.774   2.693  18.385 -0.1198  0.4199 -0.1935
12944DDP     C377663  26.433   2.164  19.915  0.1667  0.2754  0.3192
12944DDP     C477664  26.007   2.485  18.919  0.0731 -0.0252  0.2562
12945DDP     C177665  29.578  12.645   4.890  0.0179 -0.1145 -0.1116
12945DDP     P177666  29.742  12.467   4.667 -0.2492  0.3499  0.1575
12945DDP     P277667  29.750  12.941   5.004 -0.1503  0.0697 -0.1473
12945DDP     C277668  29.937  13.033   5.402  0.1746 -0.3303 -0.1042
12945DDP     C377669  29.919  12.319   4.253 -0.1394 -0.3118 -0.1123
12945DDP     C477670  29.178  12.526   4.875  0.0833  0.3638  0.0551
12946DDP     C177671  18.546  27.188  20.202 -0.0489 -0.0188  0.2375
12946DDP     P177672  18.525  26.851  19.895  0.3020 -0.0253  0.4151
12946DDP     P277673  18.646  27.623  20.034 -0.1696  0.1009  0.2637
12946DDP     C277674  18.724  28.128  19.817  0.0035  0.0473  0.0395
12946DDP     C377675  18.424  26.575  19.898 -0.0405  0.1126 -0.2289
12946DDP     C477676  18.406  27.165  20.622  0.5052 -0.0817 -0.1039
12947DDP     C177677  27.623   5.214   2.443 -0.1509  0.1459 -0.0531
12947DDP     P177678  27.280   5.345   2.830 -0.1157 -0.1094  0.2842
12947DDP     P277679  27.568   5.148   2.015  0.1207  0.0506 -0.3189
12947DDP     C277680  27.264   4.847   1.705  0.0632 -0.2635  0.2578
12947DDP     C377681  27.157   5.688   3.051  0.1853  0.1086 -0.3670
12947DDP     C477682  28.075   5.168   2.572 -0.0649  0.0591  0.5272
12948DDP     C177683   4.546   4.464  27.455  0.1199  0.2534 -0.4071
12948DDP     P177684   4.660   4.200  27.815 -0.0740 -0.2993 -0.3160
12948DDP     P277685   4.391   4.890  27.340 -0.1331  0.1199  0.1675
12948DDP     C277686   4.151   5.033  27.648  0.0723 -0.0329  0.1780
12948DDP     C377687   4.723   3.832  28.174  0.0446  0.0068 -0.1400
12948DDP     C477688   4.441   4.264  27.139  0.0080  0.3383 -0.3701
12949DDP     C177689   0.896  15.427   2.950  0.0975 -0.1068  0.1094
12949DDP     P177690   1.017  15.077   2.626 -0.0797 -0.2917  0.1547
12949DDP     P277691   0.446  15.657   2.927 -0.4105 -0.0831  0.0839
12949DDP     C277692   0.248  15.970   3.293  0.2253  0.0344 -0.1773
12949DDP     C377693   0.980  14.817   2.126  0.0292 -0.0696 -0.1150
12949DDP     C477694   1.175  15.646   3.277 -0.0615 -0.1996 -0.2392
12950DDP     C177695  13.169  20.067   4.504  0.1691 -0.1949  0.0700
12950DDP     P177696  12.828  20.100   4.233  0.2444 -0.0603 -0.1471
12950DDP     P277697  13.310  20.012   4.975 -0.1641  0.2536  0.2548
12950DDP     C277698  13.689  19.781   5.096  0.1782  0.2368  0.0962
12950DDP     C377699  13.025  20.155   3.871  0.1994 -0.4235  0.2806
12950DDP     C477700  13.390  19.893   4.171  0.1411 -0.2619 -0.0928
12951DDP     C177701  19.344   3.287  17.106  0.2878 -0.0350  0.0981
12951DDP     P177702  19.243   2.878  17.046 -0.0815  0.1409  0.1478
12951DDP     P277703  19.529   3.514  16.861  0.0291  0.1049  0.0121
12951DDP     C277704  19.612   3.909  16.673 -0.0745  0.2270 -0.0539
12951DDP     C377705  19.314   2.513  17.318  0.0618  0.0113  0.0164
12951DDP     C477706  19.088   3.603  17.373  0.0115 -0.0381  0.0783
12952DDP     C177707  26.062  22.214  13.895 -0.0854  0.3598 -0.3363
12952DDP     P177708  25.986  21.788  14.011 -0.0317  0.0675 -0.3022
12952DDP     P277709  26.129  22.455  14.257  0.0988 -0.0683  0.0132
12952DDP     C277710  26.332  22.787  14.292 -0.1850  0.3836 -0.1029
12952DDP     C377711  25.996  21.432  13.863 -0.0134  0.1447 -0.0372
12952DDP     C477712  26.199  22.326  13.483 -0.1448 -0.0464  0.3286
12953DDP     C177713  10.978  23.901   3.928  0.1177 -0.2280 -0.0685
12953DDP     P177714  10.791  23.650   4.202 -0.0292 -0.3562  0.2742
12953DDP     P277715  11.425  23.974   3.984 -0.1272  0.0936  0.0400
12953DDP     C277716  11.820  24.259   4.048 -0.0529  0.0913  0.0942
12953DDP     C377717  10.469  23.372   4.338 -0.0492  0.1531 -0.1283
12953DDP     C477718  10.684  23.920   3.699 -0.1044 -0.0082  0.0050
12954DDP     C177719   0.211  28.856  19.052  0.0860  0.0837 -0.1306
12954DDP     P177720   0.429  28.804  18.681  0.0232 -0.0206  0.1500
12954DDP     P277721   0.016  28.474  19.243  0.0770 -0.3026 -0.2515
12954DDP     C277722  30.238  28.006  19.307 -0.2427 -0.1534 -0.0174
12954DDP     C377723   0.281  28.574  18.336 -0.2994  0.0924 -0.0570
12954DDP     C477724   0.220  29.176  19.402  0.0321  0.3235  0.0435
12955DDP     C177725  25.950   4.163  14.334  0.0183 -0.2336  0.1144
12955DDP     P177726  26.359   4.060  14.337 -0.2589  0.0754 -0.0269
12955DDP     P277727  25.594   4.097  14.029 -0.1701 -0.1986  0.0023
12955DDP     C277728  25.281   3.782  14.053 -0.0366  0.1008 -0.3357
12955DDP     C377729  26.584   3.892  14.737  0.0454 -0.1129  0.2774
12955DDP     C477730  25.876   4.453  14.635  0.3116 -0.0789  0.3318
12956DDP     C177731  23.801  16.128  20.060 -0.1467 -0.1151 -0.0405
12956DDP     P177732  23.421  15.961  20.082 -0.2506 -0.1356  0.1105
12956DDP     P277733  23.914  16.503  20.042  0.1371 -0.0697 -0.2521
12956DDP     C277734  23.894  16.941  20.237 -0.2200 -0.3009  0.3053
12956DDP     C377735  23.183  15.756  20.426  0.1032 -0.1764 -0.1036
12956DDP     C477736  23.946  15.797  19.925  0.0084  0.2507  0.0689
12957DDP     C177737   5.835   9.961   9.657  0.0985  0.0855 -0.2135
12957DDP     P177738   5.830   9.733   9.305 -0.0659 -0.1419  0.1190
12957DDP     P277739   6.178  10.133   9.805  0.0291 -0.0362 -0.0080
12957DDP     C277740   6.367   9.956  10.141 -0.0976  0.2378  0.0964
12957DDP     C377741   5.589   9.410   9.101 -0.2188  0.2999 -0.0966
12957DDP     C477742   5.474   9.724   9.939  0.0213  0.0018  0.0249
12958DDP     C177743   2.940  13.781  19.242 -0.0592 -0.0661 -0.4091
12958DDP     P177744   2.642  13.842  19.500 -0.1323 -0.0178 -0.0086
12958DDP     P277745   3.334  13.620  19.450 -0.1138 -0.1856 -0.1886
12958DDP     C277746   3.436  13.671  19.949 -0.1677 -0.0789  0.1290
12958DDP     C377747   2.483  13.974  19.896 -0.0141 -0.0067  0.0221
12958DDP     C477748   2.861  13.615  18.899 -0.1525 -0.1664 -0.4779
12959DDP     C177749  15.730  13.388  13.820 -0.0325 -0.0260 -0.0918
12959DDP     P177750  15.465  13.449  13.461  0.0301  0.1948  0.0182
12959DDP     P277751  15.978  13.697  13.993  0.0109  0.1864  0.0328
12959DDP     C277752  16.254  14.065  13.794 -0.0475 -0.0733  0.1766
12959DDP     C377753  15.113  13.741  13.456 -0.1227 -0.1660 -0.2944
12959DDP     C477754  15.531  13.011  13.903  0.1125 -0.0144 -0.0407
12960DDP     C177755   1.453  26.365  10.850 -0.2408  0.1465  0.0147
12960DDP     P177756   1.732  26.425  10.610  0.1276 -0.1382  0.1865
12960DDP     P277757   1.184  26.090  10.637 -0.0253  0.0603 -0.3446
12960DDP     C277758   0.997  25.669  10.430  0.3187  0.0922 -0.0317
12960DDP     C377759   2.132  26.402  10.587 -0.0852  0.0681 -0.1743
12960DDP     C477760   1.402  26.506  11.261 -0.0326 -0.1028  0.1770
12961DDP     C177761   7.880  13.265  25.173 -0.0175  0.0713  0.0693
12961DDP     P177762   7.552  13.589  25.216 -0.3081 -0.0246  0.0258
12961DDP     P277763   7.884  12.817  25.157  0.0580  0.0762 -0.1002
12961DDP     C277764   8.236  12.609  25.051 -0.1015 -0.0208 -0.1556
12961DDP     C377765   7.521  13.980  24.922 -0.1290 -0.0301  0.1737
12961DDP     C477766   8.345  13.388  25.309 -0.2312 -0.0860  0.0550
12962DDP     C177767  22.644  17.174   6.125  0.1202 -0.2338 -0.1472
12962DDP     P177768  22.658  17.721   6.030  0.3163 -0.0232  0.1013
12962DDP     P277769  22.587  16.990   5.722 -0.0359  0.1231 -0.1556
12962DDP     C277770  22.616  16.984   5.310 -0.3307 -0.1939  0.3856
12962DDP     C377771  22.605  18.014   5.681  0.0654  0.0720 -0.1865
12962DDP     C477772  22.919  16.975   6.400  0.0390 -0.0108 -0.2027
12963DDP     C177773   8.341  26.966   5.056  0.4212 -0.0120 -0.1513
12963DDP     P177774   8.493  26.630   4.803 -0.0800  0.2767 -0.0128
12963DDP     P277775   8.484  27.101   5.491 -0.0201 -0.2342 -0.0858
12963DDP     C277776   8.738  27.332   5.840  0.1558 -0.2626  0.4544
12963DDP     C377777   8.788  26.283   4.621  0.0969 -0.0875  0.1921
12963DDP     C477778   8.019  26.985   4.762  0.2031 -0.1313 -0.1325
12964DDP     C177779   0.310  12.186  17.856 -0.3577  0.2344  0.2747
12964DDP     P177780   0.773  12.256  18.038 -0.1415 -0.0629 -0.0121
12964DDP     P277781   0.172  12.381  17.466  0.0042 -0.2407 -0.1210
12964DDP     C277782  30.079  12.554  17.307  0.2465 -0.2703  0.0259
12964DDP     C377783   1.113  12.417  17.842  0.0272 -0.1627 -0.1051
12964DDP     C477784   0.171  11.768  17.925  0.2356  0.0729  0.1116
12965DDP     C177785  22.148  18.053  23.212  0.1769  0.0094  0.1288
12965DDP     P177786  22.183  18.049  23.461  0.1466 -0.3743 -0.0477
12965DDP     P277787  22.372  17.668  22.985  0.2011  0.2412  0.2034
12965DDP     C277788  22.655  17.354  22.933  0.1232  0.4335 -0.0562
12965DDP     C377789  22.035  17.798  23.850 -0.2844  0.1007 -0.2093
12965DDP     C477790  21.734  18.152  23.056  0.2880 -0.0195  0.1705
12966DDP     C177791  10.820  10.729  28.243 -0.2410 -0.0200  0.0989
12966DDP     P177792  10.418  10.736  28.200  0.3241 -0.0032 -0.0478
12966DDP     P277793  10.823  10.665  28.641  0.2132  0.0936 -0.1099
12966DDP     C277794  10.798  10.929  29.057 -0.2718  0.0057 -0.0711
12966DDP     C377795  10.006  10.930  28.090 -0.2626  0.0188 -0.1607
12966DDP     C477796  11.174  10.746  27.979  0.0530  0.3084 -0.1058
12967DDP     C177797  22.082  20.460   7.796 -0.0212 -0.2048  0.1967
12967DDP     P177798  22.196  20.220   7.350 -0.0610 -0.1774  0.0173
12967DDP     P277799  22.528  20.439   7.892 -0.1264  0.0188  0.3893
12967DDP     C277800  22.820  20.301   8.182 -0.0619 -0.0161 -0.1228
12967DDP     C377801  22.019  20.141   7.013  0.1593 -0.0766  0.0580
12967DDP     C477802  21.711  20.687   7.994  0.0490  0.3833 -0.1524
12968DDP     C177803   1.040  26.645  17.707  0.0988 -0.1899 -0.2618
12968DDP     P177804   1.201  26.964  18.033  0.0362 -0.0797 -0.1183
12968DDP     P277805   0.897  26.195  17.932 -0.1206 -0.0945  0.1401
12968DDP     C277806   1.117  25.759  18.075 -0.4559  0.3238  0.1805
12968DDP     C377807   1.319  26.958  18.459 -0.1731 -0.1762 -0.1515
12968DDP     C477808   0.889  26.791  17.327  0.1080  0.1577  0.0884
12969DDP     C177809  12.921  25.830   2.297  0.3091 -0.0052 -0.5208
12969DDP     P177810  13.011  25.479   1.961 -0.1240  0.1758  0.0029
12969DDP     P277811  12.647  25.939   2.639  0.1741 -0.0186 -0.1919
12969DDP     C277812  12.370  25.926   2.943 -0.1219  0.0823 -0.1476
12969DDP     C377813  13.081  25.460   1.573  0.0462  0.2038 -0.2827
12969DDP     C477814  13.259  26.073   2.281  0.2203 -0.0815  0.1583
12970DDP     C177815   8.048  15.801  23.238  0.3148  0.3657 -0.2991
12970DDP     P177816   7.912  15.828  23.618 -0.0792  0.3543 -0.2860
12970DDP     P277817   8.377  15.516  23.086 -0.0645  0.2445 -0.1023
12970DDP     C277818   8.682  15.474  22.788 -0.0524  0.1485  0.0137
12970DDP     C377819   7.981  16.100  24.043  0.0171  0.0014  0.3941
12970DDP     C477820   7.763  15.933  22.931 -0.1872  0.3073  0.2669
12971DDP     C177821  22.018   8.140  22.012  0.1147  0.2882  0.1187
12971DDP     P177822  21.643   8.432  21.973  0.0067 -0.0054 -0.2125
12971DDP     P277823  22.132   7.893  21.735  0.2725  0.1938 -0.0661
12971DDP     C277824  22.015   7.772  21.567  0.0474  0.0210  0.2720
12971DDP     C377825  21.423   8.694  21.643 -0.0817 -0.0056 -0.1059
12971DDP     C477826  22.264   8.225  22.360  0.3633 -0.0408  0.0848
12972DDP     C177827  21.654  26.578   8.400  0.0609 -0.0996  0.3770
12972DDP     P177828  21.718  26.124   8.345 -0.1112 -0.0826  0.1640
12972DDP     P277829  21.690  26.720   7.916 -0.1485 -0.0414  0.0892
12972DDP     C277830  21.947  26.900   7.656  0.3507 -0.0119  0.3245
12972DDP     C377831  21.550  25.725   8.369 -0.0688 -0.3692  0.3196
12972DDP     C477832  21.404  26.776   8.689  0.2215  0.1377 -0.0689
12973DDP     C177833   9.977   9.994   6.590 -0.1642  0.1381 -0.1852
12973DDP     P177834   9.755  10.386   6.465 -0.1566 -0.2627 -0.2779
12973DDP     P277835   9.880   9.927   6.984  0.1614 -0.0577 -0.1332
12973DDP     C277836   9.631  10.073   7.317  0.1045  0.2922 -0.1265
12973DDP     C377837   9.382  10.416   6.440  0.0013 -0.0333 -0.1441
12973DDP     C477838  10.443   9.772   6.408  0.1618 -0.0071  0.0814
12974DDP     C177839  16.612  21.708   2.644  0.0800  0.0573  0.1458
12974DDP     P177840  16.171  21.459   2.487  0.1526 -0.1059  0.0582
12974DDP     P277841  16.940  21.508   2.712 -0.3596 -0.0305 -0.2268
12974DDP     C277842  17.298  21.230   2.684  0.0754  0.1391  0.2198
12974DDP     C377843  15.825  21.363   2.256  0.0527  0.1418  0.5132
12974DDP     C477844  16.523  22.027   2.927 -0.0833  0.2151 -0.1638
12975DDP     C177845  23.498  20.229  23.244  0.1936  0.2221 -0.2260
12975DDP     P177846  23.614  20.549  22.952  0.1805 -0.0863  0.1863
12975DDP     P277847  23.846  19.942  23.390  0.4358  0.4505 -0.0673
12975DDP     C277848  23.828  19.456  23.628  0.6897 -0.0913 -0.0204
12975DDP     C377849  23.438  20.695  22.498  0.2334  0.3468 -0.0726
12975DDP     C477850  23.064  20.101  23.432  0.0516 -0.2044 -0.0801
12976DDP     C177851  28.871  14.188  11.401 -0.0031  0.0839  0.1482
12976DDP     P177852  28.860  13.778  11.645  0.1327  0.1298  0.2343
12976DDP     P277853  28.687  14.616  11.596 -0.0741 -0.0865 -0.0166
12976DDP     C277854  28.797  15.104  11.439 -0.0640 -0.0645  0.3651
12976DDP     C377855  28.777  13.437  11.977  0.3679  0.0736 -0.1146
12976DDP     C477856  28.765  14.150  10.894  0.0289 -0.1513 -0.3369
12977DDP     C177857  12.784  20.242  23.846  0.0735 -0.0129 -0.0046
12977DDP     P177858  12.982  19.985  24.193  0.1129 -0.1390 -0.3580
12977DDP     P277859  12.782  20.699  23.873  0.0796  0.0654 -0.2377
12977DDP     C277860  13.009  21.037  24.050  0.3101  0.1167  0.0100
12977DDP     C377861  12.919  20.112  24.660  0.0334 -0.3221 -0.1370
12977DDP     C477862  12.478  20.299  23.581  0.2330 -0.1867  0.5423
12978DDP     C177863  27.006  10.009   5.179  0.1641 -0.1289  0.1602
12978DDP     P177864  26.629  10.170   5.266 -0.0142  0.0011 -0.0072
12978DDP     P277865  27.317   9.874   5.367  0.1176 -0.1415 -0.1688
12978DDP     C277866  27.788  10.101   5.358  0.0597 -0.1723  0.1261
12978DDP     C377867  26.349  10.509   5.476 -0.4254 -0.2443 -0.0264
12978DDP     C477868  26.900  10.129   4.728  0.1963 -0.2188 -0.3221
12979DDP     C177869  17.343  29.168   8.600  0.4279 -0.0073 -0.1531
12979DDP     P177870  17.158  28.838   8.736 -0.1401 -0.1428  0.2906
12979DDP     P277871  16.904  29.323   8.467 -0.2630  0.0386 -0.1013
12979DDP     C277872  16.626  29.306   8.113 -0.2616 -0.3257 -0.0481
12979DDP     C377873  16.757  28.734   8.802  0.1784 -0.0775 -0.0426
12979DDP     C477874  17.574  29.489   8.828 -0.1333 -0.2503  0.1376
12980DDP     C177875  13.326  29.955  16.442 -0.2340  0.0647  0.0417
12980DDP     P177876  13.247  30.088  16.890 -0.2178 -0.2444  0.0514
12980DDP     P277877  13.280  29.614  16.214  0.2307 -0.0682 -0.0580
12980DDP     C277878  12.921  29.364  16.250  0.0559  0.0082  0.3594
12980DDP     C377879  12.925  30.257  17.081 -0.2751 -0.0743  0.1047
12980DDP     C477880  13.568  30.247  16.243  0.0016 -0.1415  0.1061
12981DDP     C177881   5.163  25.637  17.981  0.0014 -0.2858 -0.0955
12981DDP     P177882   5.515  25.407  18.138 -0.1919 -0.1633 -0.0540
12981DDP     P277883   5.060  26.041  17.758 -0.1962 -0.1270 -0.0681
12981DDP     C277884   4.655  26.195  17.629  0.0265 -0.0047  0.1212
12981DDP     C377885   6.011  25.595  18.116  0.1199  0.0671  0.0048
12981DDP     C477886   4.727  25.804  18.069 -0.7041 -0.3034 -0.2697
12982DDP     C177887  12.161  19.988  15.720  0.2723  0.0595 -0.2753
12982DDP     P177888  11.838  20.292  15.492  0.0166  0.1596 -0.2601
12982DDP     P277889  11.993  19.677  15.902  0.4216  0.1184  0.0303
12982DDP     C277890  11.951  19.226  16.064  0.4573 -0.4442  0.1416
12982DDP     C377891  11.480  20.308  15.368 -0.1617  0.0551  0.1279
12982DDP     C477892  12.583  20.024  16.014 -0.0733  0.2470 -0.1493
12983DDP     C177893   3.160   3.598  13.615 -0.3419 -0.5769  0.0055
12983DDP     P177894   2.787   3.274  13.478 -0.1260 -0.2584 -0.2401
12983DDP     P277895   3.070   4.048  13.768  0.0192 -0.0084 -0.0358
12983DDP     C277896   2.899   4.265  14.134  0.1348 -0.3684 -0.2375
12983DDP     C377897   2.512   2.998  13.337 -0.0628  0.1268 -0.2155
12983DDP     C477898   3.497   3.284  13.579 -0.0139 -0.1638  0.0476
12984DDP     C177899  27.685   6.859   2.194 -0.2379  0.4389 -0.0334
12984DDP     P177900  27.385   6.622   1.977  0.0854 -0.1502  0.0400
12984DDP     P277901  28.089   7.031   2.002  0.2716  0.0303  0.1003
12984DDP     C277902  28.186   7.305   2.336 -0.2247  0.0620  0.0761
12984DDP     C377903  27.190   6.416   1.666  0.0654 -0.3565  0.3135
12984DDP     C477904  27.612   7.126   2.538 -0.1432  0.3002 -0.1935
12985DDP     C177905   6.797  24.459  27.956 -0.1510 -0.2839 -0.0567
12985DDP     P177906   6.825  24.060  27.729  0.3584  0.0934  0.0916
12985DDP     P277907   7.025  24.550  28.286 -0.0272  0.0360  0.2077
12985DDP     C277908   7.112  24.798  28.584  0.1443 -0.0794  0.0347
12985DDP     C377909   7.016  23.916  27.362  0.1966  0.2720 -0.0817
12985DDP     C477910   6.515  24.774  27.696  0.2099  0.0891  0.1646
12986DDP     C177911  20.632  24.193  19.354 -0.0694 -0.1282 -0.2655
12986DDP     P177912  20.289  24.352  19.624  0.1723 -0.0015 -0.0327
12986DDP     P277913  20.606  23.745  19.186  0.0377 -0.2549  0.1713
12986DDP     C277914  20.480  23.391  18.950  0.2459  0.2531 -0.1509
12986DDP     C377915  20.053  24.133  19.919  0.0248  0.0852  0.0027
12986DDP     C477916  20.977  24.405  19.168  0.3226 -0.0024  0.0178
12987DDP     C177917  20.747  16.736  10.131 -0.3115  0.1534  0.2043
12987DDP     P177918  20.704  16.618  10.491  0.0806  0.0923 -0.0657
12987DDP     P277919  21.154  16.715  10.063  0.2228  0.1138 -0.3024
12987DDP     C277920  21.505  16.491  10.150 -0.1202  0.0339  0.3095
12987DDP     C377921  20.724  16.333  10.862  0.0059  0.3014 -0.2001
12987DDP     C477922  20.520  16.766   9.803  0.0352  0.0885 -0.1642
12988DDP     C177923   2.466  18.509  27.440  0.0067 -0.0216 -0.0132
12988DDP     P177924   2.380  18.637  27.815 -0.0973 -0.0071 -0.0643
12988DDP     P277925   2.217  18.594  27.030  0.0960  0.3168  0.0196
12988DDP     C277926   2.106  18.650  26.614 -0.2121  0.1777  0.0425
12988DDP     C377927   2.567  18.964  28.011  0.3869 -0.1665 -0.1667
12988DDP     C477928   2.793  18.174  27.279  0.4520  0.0858 -0.2934
12989DDP     C177929   0.579  26.777  15.789 -0.0948  0.0721 -0.0873
12989DDP     P177930   0.188  27.010  15.901 -0.0688 -0.1123 -0.0471
12989DDP     P277931   0.920  26.969  16.051  0.1643 -0.3862  0.1608
12989DDP     C277932   1.387  27.074  15.847  0.0441  0.0342 -0.0786
12989DDP     C377933   0.069  27.304  16.171  0.0459 -0.2253 -0.3806
12989DDP     C477934   0.671  26.306  15.656 -0.2166 -0.2495  0.0545
12990DDP     C177935  16.133   9.458  15.366 -0.1244 -0.0577  0.0998
12990DDP     P177936  16.126   9.521  14.920 -0.0895 -0.1222  0.0770
12990DDP     P277937  15.671   9.265  15.318 -0.1204 -0.0071  0.0717
12990DDP     C277938  15.312   8.894  15.374  0.0629 -0.0396  0.1650
12990DDP     C377939  16.206   9.540  14.484  0.0396  0.2343 -0.1116
12990DDP     C477940  16.442   9.248  15.514 -0.1004 -0.2454  0.1063
12991DDP     C177941  10.524  24.829   9.816 -0.1168 -0.3198  0.1232
12991DDP     P177942  10.774  24.882   9.558 -0.0177  0.0691  0.2119
12991DDP     P277943  10.717  24.998  10.198  0.1366  0.0132  0.1215
12991DDP     C277944  11.026  25.234  10.348  0.3515  0.0599  0.4042
12991DDP     C377945  10.805  25.141   9.234 -0.4095  0.2251  0.0293
12991DDP     C477946  10.038  24.842   9.737  0.2639  0.1172 -0.0277
12992DDP     C177947  26.299  21.163   2.196  0.1571 -0.2367 -0.1084
12992DDP     P177948  26.418  21.024   2.624  0.0683  0.3372  0.0281
12992DDP     P277949  26.161  20.874   1.863 -0.2077  0.1352  0.1750
12992DDP     C277950  26.411  20.547   1.599  0.2512 -0.1483  0.0417
12992DDP     C377951  26.551  21.033   3.031 -0.0448 -0.2831 -0.2713
12992DDP     C477952  26.329  21.622   2.053 -0.0463 -0.1249  0.0576
12993DDP     C177953  20.685  23.049  20.986 -0.2701 -0.2189  0.2566
12993DDP     P177954  21.006  22.811  21.176  0.0863 -0.0468  0.2893
12993DDP     P277955  20.436  22.802  20.656 -0.0557  0.0301 -0.0785
12993DDP     C277956  20.204  22.467  20.676  0.3017  0.2573 -0.1324
12993DDP     C377957  21.355  23.096  21.432  0.0489 -0.1621  0.0471
12993DDP     C477958  20.698  23.459  20.938  0.0814  0.1993  0.2406
12994DDP     C177959   5.819  28.982  19.555  0.0778  0.1344 -0.0616
12994DDP     P177960   5.492  28.699  19.309  0.0399  0.0646  0.0631
12994DDP     P277961   6.196  28.914  19.354  0.2866  0.1510  0.1629
12994DDP     C277962   6.650  28.965  19.139 -0.3520 -0.1701 -0.3383
12994DDP     C377963   5.169  28.723  19.135 -0.2593  0.1661 -0.0236
12994DDP     C477964   5.650  29.265  19.827  0.3833 -0.2570  0.0642
12995DDP     C177965  11.989   5.886   5.627  0.2725 -0.2728 -0.1739
12995DDP     P177966  11.814   6.360   5.398 -0.0346 -0.2889  0.2267
12995DDP     P277967  12.266   5.847   6.078 -0.0722  0.1588 -0.0348
12995DDP     C277968  12.479   5.786   6.548  0.2426 -0.1730  0.0327
12995DDP     C377969  11.538   6.654   5.280 -0.0221 -0.3978  0.1571
12995DDP     C477970  12.301   5.590   5.424 -0.0814 -0.0462 -0.1590
12996DDP     C177971  20.953   4.249  11.441  0.0354  0.2227 -0.2227
12996DDP     P177972  21.332   4.107  11.312  0.1800 -0.1459 -0.1802
12996DDP     P277973  20.839   4.502  11.185 -0.2889 -0.2076  0.1940
12996DDP     C277974  20.542   4.780  11.068  0.0248 -0.0055  0.0947
12996DDP     C377975  21.475   3.835  11.130 -0.3477  0.2489 -0.0252
12996DDP     C477976  20.645   4.151  11.829 -0.0232  0.0194  0.0578
12997DDP     C177977  19.553  10.825   2.867 -0.1684  0.3467 -0.0887
12997DDP     P177978  19.491  10.680   2.466  0.0846 -0.0486  0.3133
12997DDP     P277979  19.546  11.328   2.937  0.0387 -0.0650  0.0540
12997DDP     C277980  19.578  11.651   2.650 -0.0799 -0.2075 -0.0392
12997DDP     C377981  19.237  10.841   2.053  0.0183  0.0595  0.0537
12997DDP     C477982  19.452  10.501   3.270 -0.2082  0.1260 -0.1497
12998DDP     C177983  28.029  21.813  29.822 -0.0837  0.1695 -0.1407
12998DDP     P177984  27.881  21.798  30.293 -0.0796  0.1721 -0.0528
12998DDP     P277985  28.095  21.380  29.672  0.1580  0.0643  0.1425
12998DDP     C277986  27.799  21.216  29.382  0.0101 -0.2041 -0.1311
12998DDP     C377987  27.575  21.643   0.169  0.1103 -0.5245 -0.1845
12998DDP     C477988  28.184  22.114  29.641 -0.0596 -0.3023 -0.0649
12999DDP     C177989  28.465   4.792   3.574  0.1580  0.1967  0.3808
12999DDP     P177990  28.483   4.809   3.131 -0.1025  0.0671  0.1321
12999DDP     P277991  28.590   4.366   3.589  0.0066  0.0002  0.1371
12999DDP     C277992  28.703   3.932   3.513  0.0164 -0.0154  0.0462
12999DDP     C377993  28.099   4.765   2.807 -0.1088  0.0296 -0.0317
12999DDP     C477994  28.361   5.252   3.697  0.0922 -0.2581  0.2181
13000DDP     C177995  26.172  11.671  16.096 -0.0768  0.0364  0.0345
13000DDP     P177996  26.586  11.693  16.041  0.0195 -0.0315 -0.0305
13000DDP     P277997  25.961  11.489  15.952 -0.1448  0.1691 -0.0735
13000DDP     C277998  25.985  11.208  15.618  0.1574 -0.1446  0.0266
13000DDP     C377999  26.814  11.928  15.720 -0.1536 -0.2299 -0.1571
13000DDP     C478000  26.021  11.937  16.413 -0.4120  0.2554  0.1111
13001DDP     C178001  17.111  29.254  28.697 -0.0779  0.0432 -0.2807
13001DDP     P178002  17.028  28.846  28.884  0.3369 -0.2225  0.0042
13001DDP     P278003  17.495  29.527  28.979  0.0338  0.0460  0.1383
13001DDP     C278004  17.464  29.995  29.153 -0.0807  0.2522 -0.0591
13001DDP     C378005  17.027  28.546  29.152 -0.0811  0.1833 -0.1676
13001DDP     C478006  16.842  29.605  28.448 -0.0417  0.0595 -0.2062
13002DDP     C178007  10.661  21.953  26.833  0.1158 -0.1072 -0.1019
13002DDP     P178008  10.199  21.930  26.868 -0.1125  0.0164  0.2382
13002DDP     P278009  10.705  22.041  26.422  0.0106  0.0574 -0.0370
13002DDP     C278010  11.012  22.193  26.158  0.0016  0.1289 -0.0126
13002DDP     C378011   9.928  22.305  26.752  0.2722  0.1718  0.1845
13002DDP     C478012  11.008  21.822  27.101 -0.1854  0.1784 -0.0086
13003DDP     C178013  14.302  27.002   6.510 -0.1340 -0.0191  0.1666
13003DDP     P178014  14.233  27.365   6.470 -0.2647 -0.1274  0.1860
13003DDP     P278015  13.893  26.865   6.658  0.2002 -0.2718  0.0986
13003DDP     C278016  13.415  26.762   6.561  0.1635  0.0764 -0.2017
13003DDP     C378017  13.993  27.674   6.574  0.1834  0.0206 -0.0251
13003DDP     C478018  14.724  26.794   6.564 -0.0668 -0.0346  0.1192
13004DDP     C178019  29.267   6.712  27.386 -0.2100  0.2711 -0.0771
13004DDP     P178020  29.451   6.381  27.173  0.0024  0.1357  0.0032
13004DDP     P278021  29.544   6.854  27.716 -0.0538 -0.0124 -0.2573
13004DDP     C278022  29.542   7.012  28.175 -0.1434  0.5041 -0.0147
13004DDP     C378023  29.634   6.014  27.016 -0.2560 -0.0139 -0.2622
13004DDP     C478024  29.029   7.005  27.071 -0.2268  0.1266  0.0361
13005DDP     C178025   2.768   1.534  30.098 -0.0553 -0.0507  0.1781
13005DDP     P178026   2.691   1.683  29.689  0.2850 -0.2163  0.3136
13005DDP     P278027   2.530   1.634   0.123 -0.0301 -0.0206  0.1680
13005DDP     C278028   2.561   1.363   0.528 -0.0882  0.3182 -0.0557
13005DDP     C378029   2.831   2.029  29.340  0.0822  0.4207 -0.0568
13005DDP     C478030   3.039   1.203  29.985  0.0980  0.1309 -0.2496
13006DDP     C178031   0.622  10.564  25.658 -0.0211 -0.2926 -0.0640
13006DDP     P178032   0.697  10.681  26.063 -0.2318  0.1297  0.2333
13006DDP     P278033   0.178  10.562  25.546  0.1374 -0.3915  0.5361
13006DDP     C278034  30.131  10.692  25.715 -0.1214 -0.3837 -0.1987
13006DDP     C378035   0.494  10.757  26.570 -0.0232  0.0598  0.1270
13006DDP     C478036   0.896  10.463  25.237 -0.1682 -0.0348 -0.2098
13007DDP     C178037   2.198  12.901  27.544  0.0782  0.1556  0.1493
13007DDP     P178038   1.983  13.030  27.198 -0.2730 -0.0840  0.0716
13007DDP     P278039   2.424  13.219  27.773  0.0154  0.1450 -0.1331
13007DDP     C278040   2.524  13.647  27.740 -0.1338 -0.2527  0.2350
13007DDP     C378041   1.562  12.971  27.047 -0.0792  0.1216 -0.0936
13007DDP     C478042   2.138  12.518  27.792 -0.1295 -0.1054 -0.0417
13008DDP     C178043  23.193  24.518  16.850  0.1020 -0.0808 -0.0199
13008DDP     P178044  23.405  24.117  16.873  0.0633  0.2307 -0.3957
13008DDP     P278045  23.581  24.714  16.560  0.4007 -0.1835  0.0891
13008DDP     C278046  23.562  24.664  16.126 -0.0077  0.3194 -0.0602
13008DDP     C378047  23.483  23.907  16.463 -0.1417  0.1121 -0.2174
13008DDP     C478048  22.968  24.729  17.071 -0.2733 -0.2610 -0.0535
13009DDP     C178049  13.550  30.046  14.608  0.0736  0.0139 -0.0062
13009DDP     P178050  13.679  30.332  14.692  0.0361  0.3154 -0.1240
13009DDP     P278051  13.583  29.749  14.843  0.0567 -0.1187  0.0370
13009DDP     C278052  13.336  29.354  14.779  0.1378  0.0435  0.0111
13009DDP     C378053  13.756   0.424  14.680  0.1307 -0.0019  0.0282
13009DDP     C478054  13.392  30.089  14.162  0.1028 -0.0860 -0.1905
13010DDP     C178055  29.591  13.477   1.784  0.0606 -0.2439 -0.1410
13010DDP     P178056  29.928  13.428   1.570 -0.0745 -0.2569  0.2358
13010DDP     P278057  29.521  13.427   2.259 -0.0584 -0.1595  0.1996
13010DDP     C278058  29.304  13.475   2.641 -0.2578 -0.2124 -0.1492
13010DDP     C378059  -0.036  13.659   1.498 -0.2549  0.0502 -0.2362
13010DDP     C478060  29.350  13.526   1.398 -0.0027  0.1252 -0.0361
13011DDP     C178061   3.447  25.102  21.850  0.1688 -0.0898 -0.0440
13011DDP     P178062   3.285  25.251  22.204 -0.0682  0.6451 -0.1168
13011DDP     P278063   3.754  24.793  21.847  0.3656 -0.0343  0.0492
13011DDP     C278064   3.853  24.440  21.648 -0.3320 -0.2739  0.2198
13011DDP     C378065   3.037  25.666  22.364  0.2207 -0.1558  0.0649
13011DDP     C478066   3.273  25.437  21.624 -0.0635 -0.1375  0.0511
13012DDP     C178067  28.584   7.581   8.562  0.1190  0.3199 -0.0987
13012DDP     P178068  28.744   7.830   8.730  0.1958  0.0534  0.0349
13012DDP     P278069  28.400   7.157   8.669  0.1706 -0.1152  0.0403
13012DDP     C278070  28.127   6.936   8.910 -0.0934  0.2226 -0.3211
13012DDP     C378071  28.799   8.140   9.033 -0.0495  0.1706 -0.2030
13012DDP     C478072  28.659   7.512   8.070  0.0517 -0.0689 -0.0362
13013DDP     C178073  14.542   2.561   2.329 -0.1462  0.3297  0.0515
13013DDP     P178074  14.629   2.748   1.924 -0.1619  0.1480  0.0762
13013DDP     P278075  14.088   2.663   2.502  0.0067  0.3737  0.1447
13013DDP     C278076  14.010   3.070   2.690 -0.3173 -0.1829  0.2502
13013DDP     C378077  14.573   2.809   1.427  0.2133  0.0641 -0.1576
13013DDP     C478078  14.924   2.462   2.624 -0.2578  0.0793 -0.0026
13014DDP     C178079  17.857   1.069   2.348 -0.2801  0.1433  0.3598
13014DDP     P178080  17.437   1.268   2.468  0.0777 -0.0062 -0.2358
13014DDP     P278081  18.201   0.850   2.505 -0.1122  0.1444 -0.2722
13014DDP     C278082  18.575   0.792   2.718  0.2147 -0.0157 -0.0561
13014DDP     C378083  17.041   1.233   2.640  0.0613  0.4796  0.0166
13014DDP     C478084  17.771   1.002   1.883 -0.2706 -0.0523  0.0414
13015DDP     C178085  27.579  27.123  16.733 -0.1207 -0.0881 -0.2294
13015DDP     P178086  27.776  27.562  16.760 -0.0700  0.0828  0.1680
13015DDP     P278087  27.360  27.019  17.119  0.0277  0.2172  0.0439
13015DDP     C278088  27.075  26.742  17.496  0.0392  0.2572  0.2474
13015DDP     C378089  28.097  27.578  17.090 -0.1741 -0.1738 -0.1824
13015DDP     C478090  27.378  26.891  16.296  0.0213  0.0714  0.2038
13016DDP     C178091   0.359  18.131  25.794  0.0213  0.0903  0.2521
13016DDP     P178092   0.663  18.014  25.511  0.2055 -0.1427  0.0234
13016DDP     P278093   0.483  17.950  26.219  0.2644  0.1009  0.0401
13016DDP     C278094   0.684  17.941  26.550  0.3671  0.0724 -0.0791
13016DDP     C378095   0.815  17.752  25.265  0.0819  0.1480  0.1489
13016DDP     C478096  -0.015  18.396  25.588 -0.1261 -0.0800 -0.1493
13017DDP     C178097  20.919  14.711  12.912 -0.0994 -0.2546  0.0258
13017DDP     P178098  20.881  14.317  12.782  0.0219 -0.3583  0.0689
13017DDP     P278099  20.524  14.902  13.013 -0.1631  0.3368  0.0153
13017DDP     C278100  20.081  15.029  13.176 -0.0509 -0.1669 -0.2955
13017DDP     C378101  21.226  14.049  12.651 -0.1003 -0.2796 -0.2718
13017DDP     C478102  21.344  14.863  13.070 -0.2467 -0.2156  0.0898
13018DDP     C178103  19.403  27.482  10.828  0.0649 -0.0216 -0.2346
13018DDP     P178104  19.331  27.121  10.633 -0.1421 -0.1289  0.2219
13018DDP     P278105  19.824  27.712  10.925  0.0414 -0.2224  0.0935
13018DDP     C278106  20.257  27.831  10.971 -0.0914 -0.1165 -0.3180
13018DDP     C378107  19.328  26.896  10.257 -0.1359 -0.3073 -0.0648
13018DDP     C478108  19.219  27.427  11.212  0.0024  0.0131  0.2658
13019DDP     C178109  11.707  15.266  21.692  0.2262 -0.1540 -0.1974
13019DDP     P178110  11.389  15.115  21.974 -0.0432 -0.0974 -0.2601
13019DDP     P278111  12.015  14.946  21.507  0.1686 -0.1179 -0.1518
13019DDP     C278112  12.379  14.747  21.414 -0.2342  0.2154  0.0868
13019DDP     C378113  11.188  14.874  22.343 -0.0896 -0.0417 -0.0030
13019DDP     C478114  11.645  15.712  21.506 -0.1002 -0.0633 -0.0415
13020DDP     C178115   7.956  24.633  28.551  0.0415  0.2751 -0.0429
13020DDP     P178116   8.000  24.571  28.892  0.1452 -0.1561 -0.1496
13020DDP     P278117   7.715  24.651  28.242  0.1190  0.3508 -0.0783
13020DDP     C278118   7.886  24.727  27.857 -0.1122  0.0043 -0.0248
13020DDP     C378119   8.352  24.407  29.052  0.1993  0.1139  0.1115
13020DDP     C478120   8.252  24.681  28.293  0.4544  0.1429  0.1707
13021DDP     C178121  24.394   2.281   9.533 -0.0736 -0.1545  0.0843
13021DDP     P178122  24.802   2.196   9.697  0.0116 -0.0767 -0.1251
13021DDP     P278123  24.132   2.037   9.148 -0.2456  0.0845  0.1737
13021DDP     C278124  23.868   1.839   8.801  0.1444 -0.2865 -0.0176
13021DDP     C378125  25.013   2.496   9.943 -0.0849 -0.0849 -0.3252
13021DDP     C478126  24.340   2.652   9.727  0.3332  0.0555  0.0332
13022DDP     C178127  20.236  24.309  30.076  0.0532 -0.0921 -0.1386
13022DDP     P178128  20.019  24.756  30.048 -0.1169  0.0765  0.3209
13022DDP     P278129  20.635  24.340  29.857  0.3417  0.2115  0.0418
13022DDP     C278130  20.775  24.458  29.461  0.0285 -0.0342 -0.2340
13022DDP     C378131  20.012  25.114  29.803 -0.1031 -0.0523 -0.1217
13022DDP     C478132  20.181  24.116   0.213  0.0236 -0.0551  0.0528
13023DDP     C178133  19.532  18.216  25.560 -0.1422  0.0135 -0.0675
13023DDP     P178134  19.625  18.665  25.587  0.0727  0.1355 -0.0217
13023DDP     P278135  19.585  18.137  25.064 -0.0955  0.2053  0.0063
13023DDP     C278136  19.621  17.905  24.707 -0.1473  0.1365 -0.0730
13023DDP     C378137  19.563  19.109  25.307  0.1136  0.0940 -0.1055
13023DDP     C478138  19.309  17.975  25.854 -0.0827  0.1321  0.4833
13024DDP     C178139  27.379   4.873   2.933 -0.0534  0.0985  0.1466
13024DDP     P178140  27.776   5.063   2.927  0.1102 -0.1723 -0.0502
13024DDP     P278141  27.008   5.021   3.158  0.1276  0.0808  0.1611
13024DDP     C278142  26.954   5.370   3.476  0.0572  0.2151  0.0217
13024DDP     C378143  28.212   5.195   3.110  0.0967  0.0289 -0.3975
13024DDP     C478144  27.402   4.633   2.626 -0.3457 -0.0999 -0.2309
13025DDP     C178145  29.676  22.242  23.690 -0.2710  0.3999 -0.0639
13025DDP     P178146  29.615  21.800  23.468  0.1017 -0.0924 -0.2262
13025DDP     P278147  29.366  22.647  23.737 -0.0033 -0.1531  0.2460
13025DDP     C278148  29.066  23.042  23.671  0.1759  0.1043  0.2107
13025DDP     C378149  29.888  21.473  23.393  0.3427 -0.0318 -0.0833
13025DDP     C478150  30.101  22.301  23.902 -0.1537 -0.1323  0.2677
13026DDP     C178151  18.206   9.961  15.108  0.0056  0.1142  0.0251
13026DDP     P178152  18.503  10.072  14.792  0.2318 -0.0018 -0.0285
13026DDP     P278153  17.889  10.280  15.300  0.4450 -0.0150  0.0528
13026DDP     C278154  17.573  10.417  15.413  0.1490 -0.1163  0.1096
13026DDP     C378155  18.526  10.308  14.447 -0.0713  0.0811 -0.2686
13026DDP     C478156  18.253   9.510  15.227 -0.1966  0.1203  0.1093
13027DDP     C178157  25.389   8.197   3.287  0.1794  0.1352 -0.0120
13027DDP     P178158  25.237   8.123   3.688  0.1048 -0.1054 -0.0791
13027DDP     P278159  25.810   8.194   3.298 -0.1721 -0.0021 -0.2260
13027DDP     C278160  26.186   8.207   3.556  0.0365  0.2303 -0.1216
13027DDP     C378161  25.024   8.080   4.072  0.2465 -0.1946 -0.0209
13027DDP     C478162  25.060   8.122   2.994  0.0583  0.0634  0.2507
13028DDP     C178163   1.234  14.271  20.033 -0.0718 -0.2931 -0.0640
13028DDP     P178164   1.266  14.410  20.439 -0.1192  0.1078 -0.0933
13028DDP     P278165   1.464  14.530  19.843 -0.0077  0.1064  0.4018
13028DDP     C278166   1.845  14.699  19.616  0.2741 -0.3344 -0.0302
13028DDP     C378167   1.113  14.728  20.164  0.0703  0.0446 -0.2450
13028DDP     C478168   0.974  14.013  19.881 -0.2584 -0.0044  0.1718
13029DDP     C178169  26.130  23.543  13.192  0.0869 -0.1965  0.0680
13029DDP     P178170  25.652  23.820  13.386 -0.1612  0.0899  0.1103
13029DDP     P278171  26.471  23.790  13.288 -0.0601  0.0822 -0.1867
13029DDP     C278172  26.879  23.856  13.001 -0.0680 -0.0963  0.1270
13029DDP     C378173  25.182  23.818  13.434  0.2165  0.1712 -0.0786
13029DDP     C478174  26.006  23.165  13.035  0.2494  0.1504  0.1052
13030DDP     C178175  15.196   3.282   3.651  0.0511 -0.0427 -0.2629
13030DDP     P178176  15.359   3.115   3.995 -0.3841  0.1566 -0.3137
13030DDP     P278177  15.383   3.789   3.547 -0.2252  0.0291  0.3064
13030DDP     C278178  15.392   4.175   3.340 -0.1835  0.1109  0.1300
13030DDP     C378179  15.546   2.760   4.195 -0.1433  0.0342  0.1456
13030DDP     C478180  14.845   3.180   3.381 -0.2886 -0.0871 -0.0187
13031DDP     C178181  20.181   9.969  22.509  0.2801  0.3987 -0.0707
13031DDP     P178182  19.942  10.050  22.803  0.1503  0.0010 -0.0768
13031DDP     P278183  20.135  10.051  22.023 -0.0392 -0.1912  0.1886
13031DDP     C278184  20.045   9.802  21.648  0.1363 -0.0790  0.1725
13031DDP     C378185  19.727  10.018  23.146  0.3531  0.2131 -0.1861
13031DDP     C478186  20.567   9.828  22.320  0.2386 -0.2084 -0.1831
13032DDP     C178187  20.351   6.904  27.659 -0.0594  0.0317  0.0015
13032DDP     P178188  19.968   7.019  27.786 -0.0368  0.0950  0.0065
13032DDP     P278189  20.423   6.595  28.019  0.0652  0.0257  0.1516
13032DDP     C278190  20.758   6.214  27.948  0.1344 -0.1479  0.0029
13032DDP     C378191  19.761   7.185  28.108  0.0025 -0.0817  0.2591
13032DDP     C478192  20.669   7.088  27.470 -0.1007 -0.0147  0.0646
13033DDP     C178193   3.626   9.070  12.615  0.2383 -0.2899 -0.0985
13033DDP     P178194   3.960   9.168  12.902  0.1431 -0.0014  0.0420
13033DDP     P278195   3.723   9.068  12.179  0.0754 -0.1835 -0.1324
13033DDP     C278196   3.703   9.321  11.779  0.0673 -0.0350 -0.1201
13033DDP     C378197   4.215   8.855  12.890 -0.2564  0.0607  0.0439
13033DDP     C478198   3.262   9.225  12.787  0.2946  0.1561 -0.1880
13034DDP     C178199   3.239  29.759   6.300  0.0618  0.0545 -0.4045
13034DDP     P178200   3.532  29.419   6.301  0.1476 -0.1738  0.1932
13034DDP     P278201   3.008  29.754   5.928 -0.3556  0.3640  0.1217
13034DDP     C278202   3.352  29.987   5.696  0.0684 -0.0522 -0.0000
13034DDP     C378203   3.536  29.265   6.686  0.2611  0.0626 -0.0116
13034DDP     C478204   3.304  30.108   6.574 -0.0241  0.0523  0.1570
13035DDP     C178205  21.403  10.913   2.555  0.1036  0.1638  0.2566
13035DDP     P178206  21.230  10.443   2.573  0.1650 -0.2954  0.3147
13035DDP     P278207  21.532  11.031   2.998  0.0997  0.0761  0.3152
13035DDP     C278208  21.909  11.301   3.214 -0.0597 -0.0912 -0.0125
13035DDP     C378209  20.943  10.267   2.846  0.1796 -0.1041 -0.1790
13035DDP     C478210  21.567  11.138   2.168 -0.0381 -0.1971 -0.2936
13036DDP     C178211  13.131  15.711  17.388  0.0857  0.3257 -0.0364
13036DDP     P178212  13.502  15.816  17.392  0.1052 -0.1278  0.2798
13036DDP     P278213  13.057  15.488  17.026 -0.0671  0.0169 -0.0117
13036DDP     C278214  12.809  15.244  16.834  0.1010  0.1828 -0.0820
13036DDP     C378215  13.852  16.098  17.513 -0.0351  0.0656 -0.1626
13036DDP     C478216  13.009  15.554  17.765  0.0594 -0.0378  0.0225
13037DDP     C178217  28.841   0.515   5.091  0.1057  0.2682 -0.1142
13037DDP     P178218  28.544   0.638   5.058  0.0191 -0.1215 -0.1381
13037DDP     P278219  28.954   0.100   5.347  0.0261  0.1548 -0.0626
13037DDP     C278220  28.951  29.971   5.197  0.0176 -0.1796 -0.1939
13037DDP     C378221  28.524   1.056   5.213 -0.0601 -0.0629  0.0481
13037DDP     C478222  28.973   0.854   4.974 -0.0531  0.2472 -0.0355
13038DDP     C178223   7.942  28.461  28.197 -0.0261 -0.1096  0.0378
13038DDP     P178224   7.812  28.464  27.784  0.1373 -0.0604 -0.0353
13038DDP     P278225   8.395  28.544  28.321 -0.1529  0.3261 -0.0995
13038DDP     C278226   8.836  28.588  28.263  0.2770 -0.2043 -0.0412
13038DDP     C378227   7.377  28.345  27.583 -0.1529  0.1681  0.0015
13038DDP     C478228   7.666  28.493  28.595 -0.1632  0.0356  0.0847
13039DDP     C178229  16.118  10.918  24.182 -0.1519  0.2401 -0.2278
13039DDP     P178230  15.937  11.282  24.341 -0.1349  0.0821 -0.0678
13039DDP     P278231  16.090  10.942  23.750  0.0627 -0.1221  0.0333
13039DDP     C278232  15.855  10.993  23.392  0.1256  0.1403  0.0094
13039DDP     C378233  16.055  11.737  24.350 -0.1717 -0.0480 -0.2032
13039DDP     C478234  16.204  10.542  24.434  0.1192  0.1848  0.1536
13040DDP     C178235  23.436  16.966  16.423 -0.3140  0.0443  0.0022
13040DDP     P178236  23.271  16.676  16.211  0.0339 -0.0292 -0.0217
13040DDP     P278237  23.664  17.300  16.053 -0.1265  0.0255  0.1363
13040DDP     C278238  23.481  17.730  15.934  0.0710  0.1067 -0.0273
13040DDP     C378239  23.074  16.271  16.223 -0.2704  0.2101  0.0234
13040DDP     C478240  23.240  17.067  16.903  0.0448  0.0173  0.1748
13041DDP     C178241   9.549  29.697  15.214  0.3179 -0.0927 -0.0148
13041DDP     P178242   9.328  29.599  14.877 -0.3370 -0.0177 -0.2717
13041DDP     P278243   9.526  29.384  15.560  0.0483 -0.3481 -0.2301
13041DDP     C278244   9.864  29.343  15.933  0.1503 -0.2153  0.0459
13041DDP     C378245   9.174  29.358  14.499 -0.2985  0.1056 -0.2162
13041DDP     C478246   9.721  30.144  15.355  0.1087 -0.0716  0.1817
13042DDP     C178247  20.174  23.778  13.578  0.1217  0.2978  0.0165
13042DDP     P178248  19.894  23.641  13.963 -0.0917 -0.3826  0.1462
13042DDP     P278249  20.468  24.055  13.486 -0.1007 -0.1062 -0.0533
13042DDP     C278250  20.810  23.921  13.245 -0.1822  0.2130 -0.1867
13042DDP     C378251  19.467  23.640  14.072  0.0644  0.0868  0.1093
13042DDP     C478252  20.283  23.472  13.172 -0.1688  0.2841  0.2734
13043DDP     C178253  28.750  15.550  12.093 -0.0139  0.0953  0.0553
13043DDP     P178254  29.110  15.877  11.960 -0.2229  0.1409 -0.2815
13043DDP     P278255  28.751  15.067  11.967 -0.0580 -0.1316 -0.1394
13043DDP     C278256  28.823  14.669  12.110 -0.2607 -0.5723 -0.1486
13043DDP     C378257  29.128  16.293  12.180 -0.1537  0.1829 -0.1619
13043DDP     C478258  28.363  15.731  12.180  0.1306 -0.0876  0.1065
13044DDP     C178259   3.176  14.607   2.362  0.1492  0.3045 -0.0918
13044DDP     P178260   3.007  14.894   2.644 -0.3657  0.1250 -0.0416
13044DDP     P278261   2.962  14.130   2.448 -0.1305 -0.1038  0.0849
13044DDP     C278262   2.935  13.672   2.398 -0.0839  0.0908 -0.2618
13044DDP     C378263   2.747  14.884   3.040  0.0651  0.0597 -0.0453
13044DDP     C478264   3.482  14.772   2.096 -0.1444 -0.2866  0.0608
13045DDP     C178265  10.626   8.075  26.529 -0.1511  0.1155  0.1719
13045DDP     P178266  10.648   7.673  26.444  0.0034 -0.2828 -0.1711
13045DDP     P278267  10.234   8.195  26.685 -0.1196  0.0654  0.0214
13045DDP     C278268  10.016   8.384  27.087  0.0605  0.0839  0.1974
13045DDP     C378269  10.424   7.319  26.648  0.2534 -0.5666 -0.0867
13045DDP     C478270  11.003   8.289  26.495  0.2197 -0.0540  0.0032
13046DDP     C178271   1.406  16.419  29.851  0.1008 -0.3710  0.1148
13046DDP     P178272   0.962  16.621  29.760 -0.0937  0.1335 -0.0210
13046DDP     P278273   1.423  16.618  30.236  0.0197  0.1111 -0.0519
13046DDP     C278274   1.420  16.999   0.148 -0.1371  0.0295 -0.0116
13046DDP     C378275   0.540  16.781  29.638 -0.2014  0.0983  0.0170
13046DDP     C478276   1.685  16.354  29.520  0.1686 -0.1407  0.0783
13047DDP     C178277   8.546  18.412  28.589 -0.0070  0.0347  0.0669
13047DDP     P178278   8.255  18.724  28.608  0.3154 -0.1141 -0.1378
13047DDP     P278279   8.703  18.289  28.963  0.0518 -0.1256  0.4250
13047DDP     C278280   8.444  18.094  29.248 -0.0916 -0.2734  0.1518
13047DDP     C378281   7.985  18.948  28.969  0.2582  0.0747 -0.1183
13047DDP     C478282   8.563  18.161  28.149 -0.1333  0.1110  0.1015
13048DDP     C178283  24.884  28.689  27.609 -0.2493 -0.1111  0.0794
13048DDP     P178284  24.579  28.397  27.693 -0.1084 -0.3195  0.3827
13048DDP     P278285  24.935  29.069  27.838 -0.1378 -0.1928  0.0561
13048DDP     C278286  25.293  29.142  27.791  0.1088 -0.0132  0.0014
13048DDP     C378287  24.390  28.450  28.059  0.1326  0.0536 -0.0419
13048DDP     C478288  25.255  28.508  27.332 -0.3016 -0.1578  0.0083
13049DDP     C178289  10.999   0.308  29.508  0.1243 -0.1826 -0.1983
13049DDP     P178290  10.533   0.331  29.634  0.1281 -0.2163  0.0746
13049DDP     P278291  11.188   0.756  29.563  0.1390 -0.1422 -0.2333
13049DDP     C278292  11.003   1.144  29.768 -0.1539  0.0585 -0.0570
13049DDP     C378293  10.338   0.231  29.260  0.0883  0.1188  0.1356
13049DDP     C478294  11.166  30.164  29.399 -0.1567 -0.1489  0.4163
13050DDP     C178295   9.368  20.285  19.153 -0.0447  0.3846 -0.2901
13050DDP     P178296   9.244  19.930  19.404 -0.0652 -0.2970 -0.0917
13050DDP     P278297   9.168  20.681  19.118 -0.2301  0.0652 -0.0055
13050DDP     C278298   8.899  21.053  18.984 -0.0266 -0.1583  0.2535
13050DDP     C378299   9.132  19.592  19.107  0.1193 -0.3121  0.1880
13050DDP     C478300   9.639  20.330  18.916  0.0185 -0.0517  0.0549
13051DDP     C178301  23.582  17.056   8.424  0.1647  0.1325  0.3201
13051DDP     P178302  23.241  17.183   8.081  0.0409 -0.1488 -0.1017
13051DDP     P278303  23.648  16.677   8.628 -0.0703  0.2710 -0.3964
13051DDP     C278304  23.938  16.392   8.968  0.0798  0.0672 -0.1032
13051DDP     C378305  22.835  17.093   7.854 -0.0333 -0.1913 -0.2063
13051DDP     C478306  23.865  17.416   8.599  0.3131  0.0316 -0.2417
13052DDP     C178307   3.450   5.174   7.087 -0.0415  0.1444 -0.1038
13052DDP     P178308   3.617   4.775   7.299  0.0025  0.0352 -0.2491
13052DDP     P278309   3.587   5.553   7.301 -0.2406  0.1905 -0.0804
13052DDP     C278310   3.855   5.686   7.674 -0.1744 -0.4568  0.0959
13052DDP     C378311   3.349   4.454   7.226  0.2345  0.1336 -0.3399
13052DDP     C478312   3.357   5.301   6.609  0.0261  0.1921  0.2324
13053DDP     C178313  19.848  22.911  11.217  0.1193  0.0194  0.1684
13053DDP     P178314  19.826  23.177  11.652  0.1864  0.1193 -0.0122
13053DDP     P278315  20.302  23.006  11.029  0.0676 -0.0032  0.0603
13053DDP     C278316  20.713  22.943  11.252 -0.0119  0.1205  0.1118
13053DDP     C378317  19.415  23.246  11.803 -0.2398  0.0525  0.1822
13053DDP     C478318  19.635  22.639  11.077 -0.1375 -0.2758 -0.0636
13054DDP     C178319  12.529   6.536  29.204  0.1783 -0.1262  0.0398
13054DDP     P178320  12.734   6.260  28.850  0.1336 -0.7914  0.1937
13054DDP     P278321  12.723   6.785  29.405  0.1783 -0.1846 -0.1658
13054DDP     C278322  12.977   7.025  29.626 -0.1276  0.1345 -0.1077
13054DDP     C378323  13.050   6.120  28.495  0.2309  0.0654  0.1699
13054DDP     C478324  12.088   6.322  29.331 -0.3453  0.0917  0.1143
13055DDP     C178325  25.834  10.575  30.093  0.4896 -0.0719 -0.0099
13055DDP     P178326  26.053  10.944  29.882 -0.0116  0.2410  0.0827
13055DDP     P278327  26.239  10.289  30.275  0.2580 -0.2677  0.4506
13055DDP     C278328  26.501  10.077   0.279 -0.0966  0.0597 -0.1143
13055DDP     C378329  25.872  11.227  29.543 -0.0574  0.1194  0.0984
13055DDP     C478330  25.449  10.498  29.926  0.4570  0.1960  0.0262
13056DDP     C178331  15.293   0.545  10.161 -0.1139 -0.1849  0.1255
13056DDP     P178332  14.981   0.535  10.401  0.0937  0.1914  0.0323
13056DDP     P278333  15.745   0.690  10.377  0.2883  0.2266  0.1340
13056DDP     C278334  16.031   0.981  10.530  0.1956  0.0077 -0.0993
13056DDP     C378335  14.640   0.362  10.581  0.2227  0.0042  0.0721
13056DDP     C478336  15.177   0.309   9.667  0.1759 -0.5288 -0.2377
13057DDP     C178337  24.787  23.594  25.471 -0.0178 -0.2573 -0.0400
13057DDP     P178338  25.007  23.515  25.835 -0.1869 -0.1909  0.0379
13057DDP     P278339  24.425  23.508  25.592 -0.1425 -0.1223  0.0646
13057DDP     C278340  24.260  23.317  25.335  0.1959  0.1511 -0.0408
13057DDP     C378341  24.763  23.354  26.123  0.1780 -0.3672  0.3380
13057DDP     C478342  24.947  23.837  25.165  0.1435 -0.0593 -0.1944
13058DDP     C178343  10.269  29.718  10.970  0.1301 -0.2040 -0.1191
13058DDP     P178344   9.853  29.799  11.115 -0.1488  0.1351 -0.2841
13058DDP     P278345  10.378  30.024  10.728  0.0761 -0.0657  0.4164
13058DDP     C278346  10.666  30.137  10.284 -0.1272  0.1856  0.0462
13058DDP     C378347   9.504  29.771  11.317 -0.0508 -0.2483 -0.0456
13058DDP     C478348  10.558  29.438  11.281 -0.0913 -0.0679 -0.1584
13059DDP     C178349   8.174  14.106  27.585 -0.2296  0.2225  0.2753
13059DDP     P178350   8.481  14.028  27.839 -0.0962 -0.3187 -0.0043
13059DDP     P278351   8.056  13.674  27.378 -0.3377  0.3394 -0.0273
13059DDP     C278352   8.326  13.256  27.547  0.1779  0.0269 -0.0817
13059DDP     C378353   8.884  14.239  28.014  0.0522  0.0711  0.5500
13059DDP     C478354   8.039  14.516  27.354  0.2644 -0.2331  0.1459
13060DDP     C178355  16.054   2.743   3.252  0.1471 -0.1924 -0.0098
13060DDP     P178356  15.945   2.420   2.882  0.0883 -0.0841 -0.3083
13060DDP     P278357  16.266   2.584   3.742  0.0414 -0.0821  0.0565
13060DDP     C278358  16.450   2.351   4.012  0.2024 -0.1233 -0.1027
13060DDP     C378359  15.987   2.301   2.437  0.1653 -0.1887  0.0997
13060DDP     C478360  15.779   3.051   3.029 -0.1457 -0.0554 -0.0042
13061DDP     C178361  13.394  18.937  12.350 -0.0779 -0.3418 -0.0916
13061DDP     P178362  13.743  18.619  12.433 -0.0984 -0.0952 -0.1726
13061DDP     P278363  13.311  19.207  12.082  0.1115  0.0034 -0.1436
13061DDP     C278364  13.384  19.633  12.165  0.1675  0.0080  0.0756
13061DDP     C378365  14.143  18.613  12.633  0.1205  0.0270 -0.0042
13061DDP     C478366  12.983  18.983  12.647 -0.1267  0.2264 -0.0726
13062DDP     C178367  12.742   1.242  11.548  0.1419  0.0093  0.0220
13062DDP     P178368  12.443   0.973  11.762  0.2449 -0.0853 -0.0894
13062DDP     P278369  12.855   1.395  11.156  0.0438  0.1041  0.0976
13062DDP     C278370  12.639   1.377  10.706 -0.5227 -0.3645  0.3216
13062DDP     C378371  12.206   0.563  11.774 -0.1413  0.0457 -0.0379
13062DDP     C478372  13.011   1.455  11.842 -0.2562 -0.0986  0.1896
13063DDP     C178373   7.269   1.646  26.745 -0.0238 -0.2301  0.0918
13063DDP     P178374   7.467   1.937  26.426 -0.0761  0.1579  0.1643
13063DDP     P278375   7.404   1.163  26.791  0.0255 -0.1536  0.2333
13063DDP     C278376   7.735   0.978  26.871 -0.0474  0.2247  0.1243
13063DDP     C378377   7.712   1.956  26.076 -0.0695 -0.3025 -0.1331
13063DDP     C478378   6.840   1.610  26.827 -0.1105  0.1334 -0.0366
13064DDP     C178379  17.570   5.882  28.657  0.2030 -0.0670  0.0511
13064DDP     P178380  17.690   6.313  28.401  0.0097  0.4988  0.4893
13064DDP     P278381  17.698   5.696  28.273  0.1160 -0.1862 -0.0077
13064DDP     C278382  17.476   5.527  27.957  0.2281 -0.0581 -0.0405
13064DDP     C378383  17.604   6.696  28.398 -0.3424  0.0617  0.0257
13064DDP     C478384  17.540   5.794  29.116 -0.0636  0.1883 -0.0376
13065DDP     C178385  16.648  12.778   7.580  0.0897 -0.0284  0.1540
13065DDP     P178386  16.709  12.808   7.143  0.0366  0.0675 -0.2094
13065DDP     P278387  16.717  12.383   7.834  0.3008 -0.0316  0.2191
13065DDP     C278388  16.416  12.021   7.716  0.2914 -0.0983 -0.3005
13065DDP     C378389  16.579  13.204   7.008  0.0502  0.0675 -0.0800
13065DDP     C478390  16.626  13.197   7.692 -0.0138  0.1003  0.0034
13066DDP     C178391  23.747  21.426  17.408 -0.0576 -0.3206 -0.1700
13066DDP     P178392  23.856  21.051  17.494 -0.3732  0.1281  0.0714
13066DDP     P278393  23.478  21.648  17.537  0.2804 -0.3774  0.0076
13066DDP     C278394  23.366  21.979  17.720  0.0320 -0.0538  0.0344
13066DDP     C378395  23.985  20.659  17.626  0.1149 -0.1079 -0.1520
13066DDP     C478396  24.113  21.515  17.045  0.1369  0.0592  0.1529
13067DDP     C178397   7.975  24.316   6.243 -0.0204 -0.1275 -0.1315
13067DDP     P178398   7.887  24.708   5.914 -0.0918  0.2167 -0.2535
13067DDP     P278399   8.175  24.689   6.389  0.0793  0.3112  0.1814
13067DDP     C278400   8.393  25.043   6.138 -0.1046 -0.1386  0.1075
13067DDP     C378401   8.074  24.782   5.449 -0.2731  0.1648  0.2265
13067DDP     C478402   8.212  23.939   6.067  0.0434 -0.0331  0.1509
13068DDP     C178403  11.434  13.721   2.664 -0.0433 -0.2123  0.1527
13068DDP     P178404  11.372  13.320   2.537 -0.3051 -0.2739 -0.0648
13068DDP     P278405  11.119  14.058   2.563  0.5386  0.2210  0.3548
13068DDP     C278406  10.826  14.317   2.192 -0.0791  0.0929 -0.0860
13068DDP     C378407  11.538  13.008   2.751  0.1186 -0.0419 -0.0348
13068DDP     C478408  11.827  13.974   2.622 -0.1008 -0.0653 -0.0049
13069DDP     C178409  27.132  14.957  25.964 -0.0024  0.0590  0.1997
13069DDP     P178410  27.316  14.616  26.083 -0.1821  0.0167  0.1266
13069DDP     P278411  27.200  15.348  26.080  0.1021  0.1771 -0.3552
13069DDP     C278412  27.109  15.641  26.346 -0.0117 -0.4115 -0.1711
13069DDP     C378413  27.586  14.181  25.967  0.1824  0.2559  0.0559
13069DDP     C478414  26.855  14.863  25.585  0.1985  0.1227 -0.1477
13070DDP     C178415  29.912  20.094  12.859  0.2649 -0.2732  0.1327
13070DDP     P178416  29.706  19.993  13.267  0.1413  0.3218  0.1996
13070DDP     P278417  30.288  20.023  12.709 -0.0293 -0.0528  0.2032
13070DDP     C278418   0.158  19.776  12.377 -0.0277  0.5095  0.3859
13070DDP     C378419  29.456  20.046  13.633  0.0082 -0.1224 -0.4666
13070DDP     C478420  29.555  20.141  12.495 -0.0914  0.0100  0.2371
13071DDP     C178421  19.046  16.569  23.157 -0.0529  0.0284  0.4078
13071DDP     P178422  18.778  16.696  22.829 -0.2866 -0.1104  0.1463
13071DDP     P278423  18.822  16.390  23.546  0.0598  0.1279  0.0077
13071DDP     C278424  18.961  16.487  23.982 -0.0442  0.0312 -0.1369
13071DDP     C378425  18.434  16.712  22.490 -0.2082 -0.0154 -0.1831
13071DDP     C478426  19.473  16.488  23.004 -0.1414 -0.3005  0.1903
13072DDP     C178427  22.947  28.014   0.061 -0.1537  0.1508 -0.0707
13072DDP     P178428  22.689  27.847   0.454  0.1756  0.4671 -0.0775
13072DDP     P278429  23.236  27.809  30.129 -0.0946 -0.0178 -0.0651
13072DDP     C278430  23.340  27.657  29.700  0.0197  0.2309 -0.1595
13072DDP     C378431  22.764  27.645   0.854 -0.2354  0.4504 -0.0241
13072DDP     C478432  22.941  28.428  30.244 -0.0864  0.1931  0.1312
13073DDP     C178433  12.076  28.999  22.490  0.2520 -0.0540 -0.1753
13073DDP     P178434  11.998  29.383  22.268  0.0291 -0.0409 -0.1649
13073DDP     P278435  12.192  28.663  22.262 -0.2357  0.1313  0.2339
13073DDP     C278436  12.298  28.321  22.089  0.3712  0.2189  0.1047
13073DDP     C378437  11.655  29.638  22.283 -0.1390  0.1113  0.1419
13073DDP     C478438  12.269  29.061  22.815  0.2407  0.0213  0.3089
13074DDP     C178439   1.213   8.860  29.492 -0.1707  0.3288 -0.1038
13074DDP     P178440   0.828   9.067  29.517 -0.0240  0.2197 -0.0205
13074DDP     P278441   1.123   8.457  29.382  0.1597 -0.0268  0.0456
13074DDP     C278442   0.712   8.208  29.369 -0.0381  0.1349 -0.0540
13074DDP     C378443   0.546   9.028  29.990 -0.0014  0.0009  0.0017
13074DDP     C478444   1.461   9.016  29.683  0.2089 -0.2394 -0.0940
13075DDP     C178445   7.279  27.087   8.233  0.0049  0.0338 -0.0350
13075DDP     P178446   7.358  27.109   7.828  0.1083  0.2365 -0.3097
13075DDP     P278447   6.914  27.351   8.315 -0.0633 -0.1207  0.2076
13075DDP     C278448   6.529  27.599   8.459 -0.1729 -0.1790 -0.0475
13075DDP     C378449   7.084  26.878   7.541 -0.1723 -0.1548  0.0811
13075DDP     C478450   7.517  26.929   8.376  0.1508  0.0271 -0.1497
13076DDP     C178451   6.623   9.893   5.591  0.0589 -0.0384  0.2779
13076DDP     P178452   6.478  10.292   5.312 -0.0002  0.0793 -0.1076
13076DDP     P278453   6.764   9.519   5.361  0.1700 -0.0442  0.0851
13076DDP     C278454   6.821   9.091   5.285 -0.1648 -0.0622  0.0042
13076DDP     C378455   6.627  10.646   5.106  0.0933 -0.1381  0.0387
13076DDP     C478456   6.781   9.863   6.020  0.0795 -0.0111  0.0464
13077DDP     C178457  23.526   6.982   7.593 -0.2728 -0.1314 -0.3056
13077DDP     P178458  23.561   7.490   7.527  0.0570  0.0760  0.1143
13077DDP     P278459  23.362   6.651   7.349  0.2898  0.0120 -0.0843
13077DDP     C278460  23.620   6.205   7.142 -0.0242 -0.2135 -0.2139
13077DDP     C378461  23.499   7.716   7.148  0.0092 -0.1592 -0.0829
13077DDP     C478462  23.812   6.713   7.843 -0.1990  0.0430 -0.1971
13078DDP     C178463   5.701  10.669   5.280 -0.0722  0.1598 -0.1686
13078DDP     P178464   6.072  10.627   5.508  0.0380  0.2127  0.0128
13078DDP     P278465   5.686  10.803   4.927 -0.0283  0.3566 -0.0910
13078DDP     C278466   5.573  10.790   4.545  0.0643  0.0262 -0.0244
13078DDP     C378467   6.118  10.497   5.839 -0.0129 -0.1672 -0.1269
13078DDP     C478468   5.335  10.435   5.348 -0.0745 -0.1628  0.0361
13079DDP     C178469  25.129  30.129  10.111 -0.3174 -0.1230 -0.2422
13079DDP     P178470  25.479  29.927  10.307 -0.1139 -0.0961  0.0064
13079DDP     P278471  25.013  30.057   9.740 -0.3241 -0.1901 -0.0786
13079DDP     C278472  25.011  30.094   9.184  0.3777 -0.0323  0.1667
13079DDP     C378473  25.662  29.549  10.482 -0.0906 -0.3827 -0.0214
13079DDP     C478474  24.764  30.301  10.441  0.0495 -0.1583  0.0186
13080DDP     C178475  20.960  30.057   6.704  0.1392 -0.1644 -0.0228
13080DDP     P178476  20.467  30.199   6.552  0.2339 -0.0814 -0.0008
13080DDP     P278477  21.151   0.082   7.018 -0.0345 -0.1295  0.0733
13080DDP     C278478  21.423   0.101   7.390 -0.1309  0.1104 -0.2721
13080DDP     C378479  20.082  30.006   6.699  0.1425  0.0842 -0.1251
13080DDP     C478480  21.154  29.675   6.696 -0.1239  0.1143  0.1659
13081DDP     C178481  11.318  26.553   3.567  0.0945  0.0354 -0.1666
13081DDP     P178482  11.306  26.892   3.222  0.0964  0.1893  0.1180
13081DDP     P278483  11.045  26.215   3.507 -0.0278  0.1259 -0.0976
13081DDP     C278484  10.646  26.020   3.671  0.2047  0.0576  0.1369
13081DDP     C378485  11.013  26.944   2.904  0.1043  0.4166  0.0365
13081DDP     C478486  11.519  26.521   4.020  0.0911  0.1488  0.2755
13082DDP     C178487   4.588  25.885  23.690 -0.0183 -0.0866  0.1813
13082DDP     P178488   4.524  26.307  23.802 -0.4607  0.0428  0.2813
13082DDP     P278489   4.393  25.517  23.838  0.0381 -0.0311  0.2036
13082DDP     C278490   4.051  25.223  24.023  0.1407 -0.0761  0.2708
13082DDP     C378491   4.626  26.600  24.005 -0.1792 -0.0559  0.0902
13082DDP     C478492   4.728  26.048  23.344 -0.2414  0.0487  0.0452
13083DDP     C178493  18.746  18.358   0.848 -0.2446  0.1862  0.0670
13083DDP     P178494  18.939  18.729   1.034 -0.1306  0.3899 -0.0478
13083DDP     P278495  18.942  17.942   1.082 -0.2369 -0.0003  0.0710
13083DDP     C278496  19.075  17.776   1.443 -0.1672  0.0820 -0.3125
13083DDP     C378497  19.186  19.123   0.942 -0.1639  0.2911 -0.2286
13083DDP     C478498  18.597  18.297   0.436  0.0787  0.0107 -0.1854
13084DDP     C178499  23.507   8.334   7.156  0.0708 -0.1167 -0.0899
13084DDP     P178500  23.319   8.382   7.574 -0.0202 -0.1295  0.0123
13084DDP     P278501  23.266   8.126   6.822 -0.0706 -0.2705  0.1142
13084DDP     C278502  22.924   8.029   6.520 -0.1911  0.3154 -0.0990
13084DDP     C378503  23.404   8.151   7.988  0.1191 -0.3338  0.0668
13084DDP     C478504  23.893   8.601   7.001  0.1620 -0.0267  0.2001
13085DDP     C178505   1.461   3.252   0.066 -0.0209 -0.1593 -0.0532
13085DDP     P178506   1.812   3.219  30.260  0.0628  0.0035 -0.0927
13085DDP     P278507   1.234   3.411   0.435  0.0388 -0.0917  0.0771
13085DDP     C278508   1.434   3.359   0.865 -0.1018  0.0453  0.3044
13085DDP     C378509   2.121   3.528   0.029  0.0041  0.0966 -0.1649
13085DDP     C478510   1.134   3.068  30.024 -0.2103 -0.1654 -0.0342
13086DDP     C178511   3.631  20.814   7.348  0.2395  0.0228 -0.0799
13086DDP     P178512   3.233  20.650   7.483 -0.0149  0.2748  0.3272
13086DDP     P278513   3.964  20.483   7.302 -0.1894  0.0956  0.0649
13086DDP     C278514   4.205  20.404   6.997 -0.3096 -0.0697  0.1534
13086DDP     C378515   3.122  20.294   7.727 -0.1610  0.3895  0.0308
13086DDP     C478516   3.702  21.327   7.367  0.0617  0.0085  0.0994
13087DDP     C178517  28.869   3.644  24.410 -0.1668 -0.1848  0.1024
13087DDP     P178518  28.845   3.601  24.006  0.0450 -0.0732  0.3251
13087DDP     P278519  28.623   3.462  24.833 -0.0475 -0.1965 -0.2095
13087DDP     C278520  28.721   3.265  25.269 -0.1356  0.0181 -0.4252
13087DDP     C378521  28.721   3.744  23.675  0.0232 -0.2871 -0.0217
13087DDP     C478522  29.214   3.851  24.518  0.1873  0.2652 -0.3422
13088DDP     C178523  13.418  25.497  13.817  0.1718 -0.2689 -0.0709
13088DDP     P178524  13.608  25.856  13.663  0.1308 -0.0895 -0.1708
13088DDP     P278525  13.082  25.505  14.117  0.0558  0.0262  0.0174
13088DDP     C278526  13.016  25.243  14.440 -0.1904 -0.0184  0.0745
13088DDP     C378527  13.730  26.174  13.342 -0.2442 -0.1867 -0.3444
13088DDP     C478528  13.507  25.035  13.777  0.1756 -0.2471 -0.2670
13089DDP     C178529  14.245  16.333  13.730  0.0766  0.0994 -0.2404
13089DDP     P178530  13.887  16.160  13.828 -0.0235  0.4440 -0.1287
13089DDP     P278531  14.433  16.670  14.036  0.2149  0.0646 -0.2795
13089DDP     C278532  14.221  17.072  14.160 -0.0309 -0.0571  0.0814
13089DDP     C378533  13.529  16.019  14.024 -0.1874  0.0520  0.2380
13089DDP     C478534  14.426  16.252  13.267  0.0617 -0.0535 -0.0460
13090DDP     C178535   6.276   8.700  10.419 -0.1216  0.3475 -0.0110
13090DDP     P178536   6.351   8.566   9.903 -0.1231 -0.1915  0.0078
13090DDP     P278537   5.809   8.709  10.563  0.2927 -0.1082  0.1637
13090DDP     C278538   5.598   8.759  10.964 -0.1897 -0.1065  0.0971
13090DDP     C378539   6.349   8.543   9.458  0.1236  0.0967  0.0351
13090DDP     C478540   6.539   8.533  10.794  0.1717 -0.3553 -0.1513
13091DDP     C178541   7.946  12.214  21.319  0.0861  0.1736 -0.2448
13091DDP     P178542   8.133  11.829  21.495  0.1525 -0.2308 -0.2023
13091DDP     P278543   7.760  12.453  21.661 -0.1916  0.1508  0.1128
13091DDP     C278544   7.822  12.457  22.059 -0.0590 -0.1191  0.0459
13091DDP     C378545   7.980  11.328  21.422  0.1949 -0.3268  0.1378
13091DDP     C478546   7.796  12.206  20.822  0.0170  0.0807 -0.1732
13092DDP     C178547  22.391   2.745  22.900  0.0914 -0.1123 -0.0381
13092DDP     P178548  22.012   2.881  22.652 -0.1917 -0.0945 -0.0659
13092DDP     P278549  22.612   3.132  23.002 -0.1740 -0.0111 -0.1444
13092DDP     C278550  22.563   3.481  23.191  0.1281  0.2393  0.3276
13092DDP     C378551  21.723   3.257  22.698  0.0780  0.1897 -0.0673
13092DDP     C478552  22.646   2.348  22.946 -0.2223  0.2254  0.0589
13093DDP     C178553  22.766  21.804   0.996 -0.0419 -0.0635  0.3539
13093DDP     P178554  23.032  21.589   0.804  0.1601  0.2417 -0.1476
13093DDP     P278555  22.420  21.548   1.091  0.3935  0.1340 -0.0423
13093DDP     C278556  22.312  21.217   1.314 -0.1604 -0.2582  0.1587
13093DDP     C378557  23.423  21.444   0.792 -0.1541 -0.2843  0.0057
13093DDP     C478558  22.578  22.280   0.908 -0.0386  0.2743  0.0603
13094DDP     C178559   8.450  28.849  13.906 -0.2876  0.2308 -0.0638
13094DDP     P178560   8.179  28.537  13.744 -0.0940 -0.0371 -0.4295
13094DDP     P278561   8.670  29.090  13.605  0.0245  0.1881 -0.0832
13094DDP     C278562   8.824  29.195  13.190  0.0417 -0.3092 -0.1731
13094DDP     C378563   7.866  28.494  13.495  0.6092 -0.0098  0.1057
13094DDP     C478564   8.293  29.135  14.246 -0.2811  0.3479  0.3052
13095DDP     C178565  14.924  23.802  21.753 -0.0871  0.0535  0.1257
13095DDP     P178566  15.348  23.594  21.612  0.2047  0.1261 -0.3633
13095DDP     P278567  15.018  24.205  21.860  0.2239  0.0503 -0.0727
13095DDP     C278568  15.201  24.519  22.219 -0.3053  0.1480  0.0590
13095DDP     C378569  15.793  23.792  21.691 -0.2237 -0.0494  0.0022
13095DDP     C478570  14.548  23.642  21.626  0.0373  0.4197 -0.0460
13096DDP     C178571  10.937  25.171   5.745 -0.1840  0.1093  0.2834
13096DDP     P178572  10.980  25.282   6.199  0.1707 -0.2792  0.0577
13096DDP     P278573  11.304  25.292   5.427  0.4057 -0.0465 -0.3926
13096DDP     C278574  11.426  25.193   4.948  0.0581 -0.0398 -0.1013
13096DDP     C378575  10.894  25.554   6.617 -0.0133  0.3914 -0.1408
13096DDP     C478576  10.599  24.983   5.691 -0.0396 -0.1952 -0.2715
13097DDP     C178577  15.066  27.919  20.418  0.0703  0.1988 -0.1025
13097DDP     P178578  14.921  28.210  20.698  0.1841  0.3466 -0.1354
13097DDP     P278579  14.998  28.032  19.945  0.2182  0.0902 -0.0784
13097DDP     C278580  15.029  27.720  19.569 -0.3255  0.0320  0.0182
13097DDP     C378581  14.936  28.220  21.202 -0.2002  0.3685  0.0886
13097DDP     C478582  14.945  27.540  20.642 -0.2493 -0.2388  0.1727
13098DDP     C178583  26.743  19.595  23.473 -0.0362  0.1262  0.0651
13098DDP     P178584  26.626  19.928  23.405 -0.0991 -0.1106 -0.1742
13098DDP     P278585  26.460  19.318  23.792  0.0835  0.2420 -0.0049
13098DDP     C278586  26.613  19.207  24.200  0.4825  0.2353 -0.0674
13098DDP     C378587  26.391  20.200  23.190 -0.1278  0.0506  0.2564
13098DDP     C478588  27.282  19.602  23.453 -0.0992 -0.1414 -0.0948
13099DDP     C178589   3.994  26.511  11.931  0.0950 -0.0064 -0.1011
13099DDP     P178590   3.998  26.726  11.587 -0.1920 -0.0875 -0.3228
13099DDP     P278591   4.123  26.126  11.708 -0.0092  0.1358 -0.4830
13099DDP     C278592   3.851  25.770  11.767  0.1149  0.3097 -0.2094
13099DDP     C378593   4.214  27.103  11.426  0.0239 -0.0842  0.1136
13099DDP     C478594   4.007  26.618  12.333  0.1360  0.3291 -0.1087
13100DDP     C178595  20.418  26.433  20.578 -0.1151 -0.0750 -0.1074
13100DDP     P178596  20.065  26.643  20.823  0.1882  0.1236 -0.4236
13100DDP     P278597  20.285  26.145  20.342  0.1121 -0.1560  0.1760
13100DDP     C278598  20.137  25.966  19.953  0.2630  0.1404 -0.0422
13100DDP     C378599  19.633  26.675  20.668 -0.1537 -0.0827 -0.0569
13100DDP     C478600  20.786  26.463  20.843  0.1631  0.1065 -0.0569
13101DDP     C178601  26.294  20.323   6.743  0.1401  0.1679  0.2816
13101DDP     P178602  25.996  20.153   6.475  0.0257  0.1933 -0.2086
13101DDP     P278603  26.181  20.744   6.931  0.0961  0.1190  0.1350
13101DDP     C278604  25.971  21.160   6.909  0.3677 -0.1591  0.0423
13101DDP     C378605  25.799  19.837   6.252  0.2185 -0.1229  0.4000
13101DDP     C478606  26.365  20.045   7.035 -0.2614  0.2640 -0.1119
13102DDP     C178607  28.204  20.147  25.649  0.1806  0.0708  0.0506
13102DDP     P178608  27.747  20.141  25.759 -0.1375  0.0411 -0.4844
13102DDP     P278609  28.220  20.554  25.927  0.0468 -0.4073 -0.0511
13102DDP     C278610  28.204  21.016  25.756  0.4587 -0.1540 -0.1343
13102DDP     C378611  27.417  20.242  25.989 -0.1719 -0.2070  0.4228
13102DDP     C478612  28.644  19.858  25.478  0.0505  0.2790 -0.4203
13103DDP     C178613  26.400   9.632   6.482 -0.1867  0.0182  0.0720
13103DDP     P178614  26.291   9.249   6.787  0.4745 -0.3216 -0.1986
13103DDP     P278615  26.108   9.764   6.726 -0.0699 -0.2196 -0.0001
13103DDP     C278616  25.953  10.215   6.707 -0.1367 -0.1252 -0.0189
13103DDP     C378617  25.983   8.922   6.634 -0.0298 -0.0905  0.1318
13103DDP     C478618  26.559   9.758   6.158 -0.1248 -0.3175 -0.0347
13104DDP     C178619  18.647  13.550  19.730  0.2968  0.1322 -0.1482
13104DDP     P178620  18.992  13.607  19.999 -0.2770 -0.0717 -0.1107
13104DDP     P278621  18.274  13.585  19.597  0.5398  0.0190 -0.0765
13104DDP     C278622  17.957  13.251  19.650  0.1527  0.1133 -0.0803
13104DDP     C378623  19.346  13.615  20.420  0.2068  0.1777  0.0844
13104DDP     C478624  18.848  13.430  19.295 -0.0905 -0.0352 -0.3272
13105DDP     C178625  29.607   9.878  15.597  0.2188  0.1184  0.0942
13105DDP     P178626  29.341   9.775  15.918  0.0482  0.4162 -0.1352
13105DDP     P278627  29.424  10.301  15.447  0.0225 -0.1747 -0.1640
13105DDP     C278628  29.459  10.632  15.684 -0.0995  0.2833 -0.1930
13105DDP     C378629  28.925   9.686  15.922  0.0322 -0.0894 -0.1852
13105DDP     C478630  29.676   9.497  15.397 -0.1723  0.1129  0.3085
13106DDP     C178631  15.736   8.299   0.421 -0.3662  0.0361  0.0826
13106DDP     P178632  15.812   8.631   0.048  0.1308  0.1589  0.0012
13106DDP     P278633  16.002   7.881   0.360 -0.0978  0.1247 -0.0594
13106DDP     C278634  16.230   7.432   0.134 -0.1269 -0.1736 -0.1630
13106DDP     C378635  15.554   8.934  30.224 -0.2085 -0.1323  0.1160
13106DDP     C478636  15.410   8.554   0.758  0.1733  0.3337  0.2046
13107DDP     C178637  12.183  19.676  29.830  0.0977 -0.0079 -0.0981
13107DDP     P178638  12.351  20.103  29.697  0.1569 -0.1371 -0.0432
13107DDP     P278639  12.304  19.656  30.238 -0.2606 -0.1704  0.3645
13107DDP     C278640  12.157  19.588   0.419 -0.1370 -0.2449 -0.1993
13107DDP     C378641  12.357  20.541  29.629 -0.0551  0.0877  0.1125
13107DDP     C478642  12.010  19.282  29.763  0.0905 -0.0989 -0.0570
13108DDP     C178643  25.727  17.615  13.830 -0.2815  0.2964 -0.2021
13108DDP     P178644  26.132  17.514  13.977  0.1342  0.1249  0.0035
13108DDP     P278645  25.597  17.169  13.754 -0.1082 -0.2582 -0.2046
13108DDP     C278646  25.533  16.803  13.609  0.0318 -0.0398 -0.1507
13108DDP     C378647  26.394  17.237  14.052 -0.2209  0.2093 -0.2816
13108DDP     C478648  25.398  17.638  14.072 -0.0141  0.2036 -0.1100
13109DDP     C178649  11.566   0.633   9.545 -0.1685 -0.1041 -0.2146
13109DDP     P178650  11.844   0.326   9.749  0.0023  0.0066 -0.4981
13109DDP     P278651  11.547   1.006   9.678 -0.2227 -0.0955  0.0428
13109DDP     C278652  11.490   1.423   9.705 -0.3658  0.1301 -0.0571
13109DDP     C378653  12.288   0.070   9.649 -0.0294 -0.0266  0.0123
13109DDP     C478654  11.159   0.536   9.445  0.0732  0.1917 -0.2494
13110DDP     C178655  11.999  23.846   2.564 -0.3925  0.2157 -0.0835
13110DDP     P178656  12.224  24.174   2.779 -0.0160  0.1478  0.0246
13110DDP     P278657  11.600  23.841   2.429 -0.1416 -0.3718  0.2895
13110DDP     C278658  11.460  24.172   2.200  0.1419  0.0397  0.1205
13110DDP     C378659  12.476  24.531   2.812 -0.1482  0.0682  0.2959
13110DDP     C478660  12.156  23.380   2.478 -0.0928  0.1406 -0.0016
13111DDP     C178661  16.950  11.135  27.644 -0.1877  0.2172 -0.0236
13111DDP     P178662  16.656  10.893  27.448 -0.1866  0.1642 -0.4957
13111DDP     P278663  17.306  11.058  27.439 -0.3433  0.0211 -0.1614
13111DDP     C278664  17.618  11.323  27.245  0.0653 -0.1017 -0.0966
13111DDP     C378665  16.416  10.589  27.660 -0.2581  0.0465 -0.1512
13111DDP     C478666  16.819  11.461  27.880 -0.4848 -0.0790  0.1226
13112DDP     C178667  14.101   6.721  12.084 -0.1241 -0.3769 -0.0401
13112DDP     P178668  13.893   6.489  12.265 -0.0552  0.3251 -0.0972
13112DDP     P278669  14.422   6.655  11.728 -0.0529 -0.1330  0.0738
13112DDP     C278670  14.715   6.466  11.492 -0.0439  0.1268  0.2286
13112DDP     C378671  13.631   6.283  12.623  0.4448  0.0590 -0.1835
13112DDP     C478672  13.929   7.166  12.064  0.0227  0.0072 -0.4397
13113DDP     C178673  28.198   6.465  15.149 -0.2545 -0.1940 -0.1297
13113DDP     P178674  27.850   6.722  15.139 -0.3597 -0.0266  0.7316
13113DDP     P278675  28.675   6.540  15.015  0.0570 -0.0772 -0.0371
13113DDP     C278676  29.076   6.732  14.930 -0.1104 -0.2231 -0.2475
13113DDP     C378677  27.590   7.102  15.356  0.0802  0.2607  0.2727
13113DDP     C478678  27.968   6.142  15.135  0.2494  0.1341  0.2162
13114DDP     C178679  12.023  19.405  19.024  0.2412  0.2919 -0.3065
13114DDP     P178680  12.230  19.778  18.914  0.0147  0.0239  0.0531
13114DDP     P278681  12.119  19.054  18.698 -0.1174  0.4250 -0.2253
13114DDP     C278682  12.496  18.807  18.514  0.2892  0.1162 -0.2369
13114DDP     C378683  12.406  19.841  18.465 -0.1461  0.0485  0.0137
13114DDP     C478684  11.685  19.347  19.324  0.1252 -0.2756 -0.0706
13115DDP     C178685  15.373   8.613  24.183 -0.2244 -0.0046  0.1229
13115DDP     P178686  15.792   8.514  23.901 -0.0704 -0.0748 -0.1022
13115DDP     P278687  15.148   8.880  23.890 -0.0668  0.0034  0.2226
13115DDP     C278688  14.832   9.270  24.010 -0.0126 -0.2584  0.0026
13115DDP     C378689  16.106   8.543  23.551  0.0251 -0.2406 -0.0906
13115DDP     C478690  15.151   8.429  24.484  0.4711  0.0186  0.0373
13116DDP     C178691   9.733  13.992  23.095  0.0417  0.2453 -0.1219
13116DDP     P178692   9.715  13.719  22.717 -0.1588 -0.2507 -0.0954
13116DDP     P278693  10.076  14.185  23.007  0.0196 -0.4535 -0.0382
13116DDP     C278694  10.335  14.425  23.188  0.1605 -0.1644 -0.1682
13116DDP     C378695   9.702  13.697  22.202  0.3308 -0.0162  0.0095
13116DDP     C478696   9.504  13.869  23.545 -0.0497  0.0306  0.0535
13117DDP     C178697   2.272  22.949  20.932  0.5784 -0.1426  0.1027
13117DDP     P178698   2.239  22.671  20.630  0.1630  0.0238 -0.2901
13117DDP     P278699   2.661  22.969  21.112  0.1321 -0.0293  0.4776
13117DDP     C278700   2.715  22.900  21.586  0.0890 -0.1194  0.3468
13117DDP     C378701   2.349  22.255  20.431 -0.0657 -0.2494  0.1148
13117DDP     C478702   1.962  23.307  21.146 -0.3815 -0.0425 -0.1503
13118DDP     C178703  19.950   6.148  18.471 -0.2071 -0.1172 -0.2342
13118DDP     P178704  19.561   5.862  18.700  0.1967 -0.2581  0.2759
13118DDP     P278705  20.157   6.054  18.119 -0.1977  0.0245 -0.0966
13118DDP     C278706  20.379   6.325  17.923  0.1480  0.3042 -0.2419
13118DDP     C378707  19.306   5.528  18.511  0.1952 -0.0359 -0.2624
13118DDP     C478708  19.880   6.511  18.651 -0.2164  0.0566  0.0864
13119DDP     C178709   3.046  26.332   0.897  0.1349  0.0061 -0.2339
13119DDP     P178710   2.907  25.974   0.660 -0.1184  0.1234  0.0817
13119DDP     P278711   3.305  26.148   1.186  0.1983  0.2149  0.1305
13119DDP     C278712   3.818  26.193   1.315  0.0534 -0.1659  0.1261
13119DDP     C378713   2.521  25.805   0.504 -0.0456 -0.0116 -0.1604
13119DDP     C478714   2.978  26.685   0.645 -0.0823 -0.2370  0.1645
13120DDP     C178715  29.671  22.146  19.719 -0.0799 -0.1347 -0.3659
13120DDP     P178716  29.291  22.257  19.460 -0.0806  0.2110 -0.1365
13120DDP     P278717  29.660  21.930  20.117 -0.1361  0.0962  0.0895
13120DDP     C278718  29.704  21.981  20.613 -0.1680  0.0799  0.1474
13120DDP     C378719  29.063  22.523  19.269 -0.0933  0.0679 -0.3945
13120DDP     C478720  30.096  22.021  19.679  0.0973 -0.0364 -0.0124
13121DDP     C178721  12.429  11.726  27.548 -0.2661  0.3365 -0.1610
13121DDP     P178722  12.140  11.374  27.689 -0.2967  0.1384 -0.2062
13121DDP     P278723  12.463  11.779  27.093  0.0761  0.0729  0.0768
13121DDP     C278724  12.705  11.865  26.808 -0.1829  0.2046 -0.0584
13121DDP     C378725  12.095  11.035  27.647  0.0947 -0.0484  0.0743
13121DDP     C478726  12.651  11.933  27.806  0.2737  0.0027  0.1320
13122DDP     C178727  11.377  16.665  30.116  0.0041 -0.1891  0.4589
13122DDP     P178728  11.519  16.334  30.256  0.2142  0.1623 -0.1760
13122DDP     P278729  10.938  16.777  30.165  0.1473  0.2704 -0.1347
13122DDP     C278730  10.456  16.743  30.206  0.1135  0.1227  0.2679
13122DDP     C378731  11.416  15.912   0.264  0.1494  0.0985  0.1149
13122DDP     C478732  11.583  17.040  30.196  0.3590 -0.1656 -0.2060
13123DDP     C178733  23.667  21.744  10.418  0.2769 -0.0125 -0.3036
13123DDP     P178734  23.935  21.448  10.292 -0.0374  0.2241  0.1567
13123DDP     P278735  23.299  21.672  10.336 -0.1071 -0.1242  0.0368
13123DDP     C278736  23.113  21.350  10.039 -0.0065  0.1236  0.2566
13123DDP     C378737  24.336  21.247  10.371 -0.3075 -0.2129  0.2436
13123DDP     C478738  23.772  22.134  10.671  0.1316 -0.3911 -0.2625
13124DDP     C178739   5.868  27.749  11.977 -0.0135 -0.2527 -0.2038
13124DDP     P178740   5.900  27.892  12.393 -0.3660 -0.1976 -0.1487
13124DDP     P278741   5.892  27.315  11.895 -0.0839  0.1981  0.0620
13124DDP     C278742   5.833  26.841  11.948 -0.1329  0.1900  0.2743
13124DDP     C378743   6.089  28.056  12.758 -0.1773  0.1444  0.0602
13124DDP     C478744   5.700  28.105  11.656  0.1699 -0.1956  0.4582
13125DDP     C178745  21.124  16.680   1.349  0.0281 -0.1217  0.1240
13125DDP     P178746  21.360  16.659   1.777  0.0838 -0.0167 -0.0339
13125DDP     P278747  20.927  16.308   1.200  0.1279  0.0796  0.1262
13125DDP     C278748  20.702  16.168   0.877 -0.1787  0.0465 -0.2176
13125DDP     C378749  21.516  16.567   2.286 -0.1570  0.2821 -0.1380
13125DDP     C478750  20.764  16.993   1.342 -0.0423  0.2323 -0.0567
13126DDP     C178751  30.037  26.458  10.494  0.2094 -0.1976 -0.0505
13126DDP     P178752  30.228  26.735  10.752  0.2606 -0.0201 -0.0692
13126DDP     P278753  29.883  26.593  10.110 -0.1208  0.0119  0.2735
13126DDP     C278754  29.876  26.640   9.724  0.2091 -0.2326  0.0629
13126DDP     C378755  30.136  27.129  10.802 -0.1513  0.0498 -0.0406
13126DDP     C478756  30.031  26.028  10.441  0.0643  0.1718 -0.0707
13127DDP     C178757  14.675   7.664   1.393  0.1236  0.3191  0.2537
13127DDP     P178758  14.616   7.264   1.434  0.0085  0.1069 -0.0521
13127DDP     P278759  14.361   7.885   1.271 -0.0248  0.1361  0.0571
13127DDP     C278760  13.896   7.906   1.404  0.2775  0.0169 -0.0342
13127DDP     C378761  14.862   6.839   1.310  0.2843  0.0130 -0.2370
13127DDP     C478762  15.028   7.890   1.443  0.0739 -0.2385 -0.3086
13128DDP     C178763  11.669  16.347  28.434 -0.2611  0.2860  0.2120
13128DDP     P178764  11.382  16.070  28.575  0.1470 -0.0308  0.3267
13128DDP     P278765  11.967  16.200  28.266 -0.0577 -0.2310  0.3864
13128DDP     C278766  12.291  16.214  28.029  0.0115 -0.1253 -0.0824
13128DDP     C378767  11.208  15.700  28.697 -0.3932 -0.2965  0.0911
13128DDP     C478768  11.627  16.884  28.437  0.5334  0.2920  0.2049
13129DDP     C178769  28.852  15.842  15.624  0.3294  0.0565 -0.0442
13129DDP     P178770  28.964  16.245  15.887 -0.0515  0.0800  0.1766
13129DDP     P278771  29.157  15.990  15.379 -0.0010 -0.1019  0.3810
13129DDP     C278772  29.497  16.315  15.373 -0.2270 -0.1181 -0.2365
13129DDP     C378773  28.801  16.661  16.057 -0.0694  0.1171 -0.1803
13129DDP     C478774  28.496  15.569  15.490  0.0791 -0.3250  0.0370
13130DDP     C178775  16.996  23.052  29.008  0.2300 -0.2258 -0.0016
13130DDP     P178776  16.587  23.059  29.161 -0.0216 -0.1206 -0.1727
13130DDP     P278777  16.982  23.332  28.683 -0.0460 -0.2440 -0.1426
13130DDP     C278778  17.279  23.535  28.366  0.3141 -0.2727  0.0902
13130DDP     C378779  16.231  23.247  29.185 -0.0886 -0.0716 -0.2212
13130DDP     C478780  17.312  22.811  29.056 -0.1059 -0.1812 -0.0085
13131DDP     C178781  20.392  15.959  29.093 -0.1028 -0.2153  0.3208
13131DDP     P178782  20.332  16.039  29.522  0.0960  0.2318 -0.0203
13131DDP     P278783  20.000  16.130  28.898 -0.0659  0.0614 -0.0739
13131DDP     C278784  19.813  16.467  28.654 -0.2647 -0.1853  0.1095
13131DDP     C378785  20.033  16.219  29.784  0.0548  0.0062 -0.0056
13131DDP     C478786  20.715  15.627  28.917  0.0424  0.0218  0.1036
13132DDP     C178787  25.525   4.573  28.089  0.3019 -0.0470 -0.1357
13132DDP     P178788  25.279   4.588  27.809 -0.2857 -0.3981  0.0956
13132DDP     P278789  25.731   4.866  28.383  0.1665 -0.1467 -0.2750
13132DDP     C278790  26.039   4.789  28.727  0.0839  0.1408 -0.0570
13132DDP     C378791  25.466   4.777  27.377  0.0792  0.5322  0.1507
13132DDP     C478792  25.722   4.310  28.200  0.1722  0.1631 -0.2091
13133DDP     C178793  26.824  10.445   2.490 -0.0792  0.0293 -0.2461
13133DDP     P178794  26.991  10.135   2.638  0.1131  0.1035  0.2784
13133DDP     P278795  26.991  10.516   2.007 -0.0714  0.2182 -0.1065
13133DDP     C278796  26.703  10.706   1.714  0.0398  0.0883 -0.0034
13133DDP     C378797  27.273   9.830   2.689  0.0654  0.1152  0.0720
13133DDP     C478798  26.539  10.833   2.701  0.1015 -0.2937  0.1710
13134DDP     C178799  10.338   6.194  28.552 -0.2101  0.3886  0.1590
13134DDP     P178800  10.494   6.597  28.275  0.2764 -0.2298  0.0654
13134DDP     P278801   9.905   6.151  28.725  0.1358 -0.1270  0.3963
13134DDP     C278802   9.651   6.067  29.054 -0.0601  0.1225 -0.1427
13134DDP     C378803  10.788   6.879  28.416 -0.0252 -0.0612 -0.1134
13134DDP     C478804  10.534   5.831  28.454  0.5496 -0.1993  0.3073
13135DDP     C178805   2.201  22.950  16.393 -0.2452 -0.1971 -0.0354
13135DDP     P178806   2.125  23.246  16.526  0.2638 -0.0345 -0.1645
13135DDP     P278807   2.529  22.810  16.171  0.1323  0.1763 -0.1068
13135DDP     C278808   2.996  22.657  16.017 -0.1655 -0.2725  0.1878
13135DDP     C378809   2.249  23.586  16.751 -0.1891  0.2149  0.2179
13135DDP     C478810   2.024  22.620  16.547  0.2161 -0.1891 -0.2782
13136DDP     C178811  24.387  10.544   8.793 -0.1448  0.1035  0.0897
13136DDP     P178812  24.802  10.496   8.616  0.3583  0.2905  0.1252
13136DDP     P278813  24.116  10.394   8.572 -0.0802 -0.2386 -0.2814
13136DDP     C278814  23.740  10.474   8.298  0.0609 -0.0625 -0.0944
13136DDP     C378815  24.982  10.478   8.211  0.1024  0.4039  0.1630
13136DDP     C478816  24.176  10.385   9.205 -0.0957 -0.2385 -0.0861
13137DDP     C178817  23.572  26.210   6.016 -0.2307  0.2723 -0.1434
13137DDP     P178818  23.283  25.802   6.150  0.1080  0.1324 -0.3217
13137DDP     P278819  23.787  26.130   5.606 -0.0258  0.1379  0.4926
13137DDP     C278820  24.032  26.309   5.254 -0.3582  0.0917 -0.0622
13137DDP     C378821  22.879  25.764   6.316  0.2321 -0.1372  0.0677
13137DDP     C478822  23.514  26.620   6.108  0.2214 -0.0991 -0.1182
13138DDP     C178823  23.506  11.590  23.792 -0.0850 -0.1864 -0.1403
13138DDP     P178824  23.794  11.283  23.903 -0.2129  0.1154 -0.1210
13138DDP     P278825  23.087  11.782  23.887 -0.2973 -0.2725 -0.0633
13138DDP     C278826  22.888  12.124  24.200 -0.3071 -0.4976  0.3141
13138DDP     C378827  23.953  10.836  23.959 -0.1138  0.0068 -0.2295
13138DDP     C478828  23.740  11.959  23.639 -0.0955  0.0408 -0.0618
13139DDP     C178829  24.406   5.274  15.385  0.1479  0.0979 -0.0591
13139DDP     P178830  24.476   4.980  15.672  0.0149  0.1062 -0.0063
13139DDP     P278831  24.031   5.344  15.380 -0.3101 -0.3064  0.1450
13139DDP     C278832  23.893   5.696  15.299 -0.2584  0.0595  0.0824
13139DDP     C378833  24.291   4.888  16.008  0.0917 -0.1581  0.1238
13139DDP     C478834  24.827   5.518  15.180 -0.0405 -0.0798  0.0248
13140DDP     C178835  14.333  10.050  27.905 -0.1394 -0.0085 -0.1336
13140DDP     P178836  14.601  10.268  28.045  0.1813 -0.1967  0.0779
13140DDP     P278837  14.426   9.653  27.919 -0.4172 -0.1352 -0.2565
13140DDP     C278838  14.348   9.230  27.769 -0.1069  0.0770  0.2502
13140DDP     C378839  14.933  10.585  28.192 -0.0170  0.4466 -0.0211
13140DDP     C478840  13.918  10.131  27.729  0.1076 -0.1044 -0.0942
13141DDP     C178841   0.568  25.760  14.091  0.1391  0.2119 -0.3286
13141DDP     P178842   0.698  25.808  13.649 -0.4648  0.0050  0.0001
13141DDP     P278843   0.801  25.624  14.537  0.2156  0.1076  0.3904
13141DDP     C278844   0.918  25.344  14.869  0.1254  0.0238 -0.0530
13141DDP     C378845   0.760  26.266  13.469  0.0007 -0.1613 -0.3432
13141DDP     C478846   0.121  25.735  14.239 -0.2031 -0.0469  0.0816
13142DDP     C178847  28.464   4.911  10.473  0.4828 -0.0147  0.2525
13142DDP     P178848  28.272   4.581  10.612 -0.0178 -0.1127 -0.1062
13142DDP     P278849  28.576   5.264  10.585 -0.0448 -0.0183 -0.0251
13142DDP     C278850  28.544   5.574  10.928  0.1406 -0.0690 -0.0938
13142DDP     C378851  27.762   4.362  10.629  0.2276  0.0486  0.0821
13142DDP     C478852  28.530   4.913  10.037  0.0302  0.0114  0.0041
13143DDP     C178853  19.926  18.143   9.213 -0.1061 -0.2238 -0.1008
13143DDP     P178854  19.833  18.502   9.007  0.0437 -0.1118 -0.1160
13143DDP     P278855  20.262  18.279   9.519  0.2101 -0.0483 -0.0253
13143DDP     C278856  20.553  18.083   9.715 -0.3798 -0.1941  0.1887
13143DDP     C378857  19.929  18.909   8.963  0.3711  0.1082  0.0234
13143DDP     C478858  19.810  17.752   9.095  0.1612 -0.0493  0.1500
13144DDP     C178859  16.505   6.876  29.232 -0.3352  0.0101  0.4748
13144DDP     P178860  16.355   6.817  28.790  0.2778 -0.0426 -0.1686
13144DDP     P278861  16.640   7.220  29.382 -0.0298 -0.0906 -0.1697
13144DDP     C278862  16.753   7.254  29.790  0.0430 -0.2932 -0.0595
13144DDP     C378863  16.103   7.138  28.559 -0.0145 -0.3269  0.0002
13144DDP     C478864  16.442   6.452  29.379  0.0457 -0.1584 -0.0773
13145DDP     C178865  28.490  25.196  18.286  0.0971 -0.0104 -0.0052
13145DDP     P178866  28.654  25.395  18.709  0.2759  0.0694  0.0893
13145DDP     P278867  28.752  24.880  18.010 -0.2238 -0.1430  0.0852
13145DDP     C278868  29.005  24.672  17.646  0.0755  0.0321 -0.0113
13145DDP     C378869  28.772  25.534  19.058 -0.1896 -0.1893  0.0927
13145DDP     C478870  28.053  25.219  18.221  0.0716 -0.0596  0.0431
13146DDP     C178871  30.222   5.225  22.566  0.0691  0.3816  0.1846
13146DDP     P178872  29.919   5.300  22.945 -0.1171 -0.0114  0.1189
13146DDP     P278873   0.076   4.779  22.471  0.2313 -0.1914 -0.3122
13146DDP     C278874   0.119   4.320  22.472  0.1023 -0.0170 -0.0086
13146DDP     C378875  29.792   5.369  23.359 -0.2201  0.2019 -0.2091
13146DDP     C478876  -0.017   5.548  22.344 -0.0474  0.2745 -0.3203
13147DDP     C178877   5.778  17.713  22.184  0.2148 -0.0852 -0.0381
13147DDP     P178878   5.493  17.633  22.571  0.0753 -0.6363 -0.2162
13147DDP     P278879   6.091  18.113  22.138 -0.0608 -0.2733  0.0381
13147DDP     C278880   6.124  18.340  21.798  0.0850  0.0868  0.0129
13147DDP     C378881   5.094  17.806  22.642 -0.2133  0.0906  0.1558
13147DDP     C478882   6.133  17.387  22.008  0.3380  0.2432 -0.0941
13148DDP     C178883  29.132  22.270  26.219  0.1831  0.0585 -0.2787
13148DDP     P178884  28.729  21.899  26.207  0.0203 -0.2317  0.1576
13148DDP     P278885  29.591  22.123  26.281 -0.0511 -0.0087 -0.0933
13148DDP     C278886  30.055  22.375  26.138 -0.1591  0.0252  0.1492
13148DDP     C378887  28.531  21.588  26.023 -0.1550 -0.0442 -0.2250
13148DDP     C478888  28.968  22.750  26.346  0.0248 -0.1419 -0.0762
13149DDP     C178889   8.695  17.653  17.269 -0.1586  0.1190 -0.0362
13149DDP     P178890   8.786  17.703  16.856  0.4179  0.2707  0.1268
13149DDP     P278891   9.065  17.588  17.387  0.1750 -0.0545  0.0655
13149DDP     C278892   9.364  17.262  17.628 -0.0226  0.0417  0.1270
13149DDP     C378893   8.747  17.863  16.540 -0.2833 -0.1886 -0.0530
13149DDP     C478894   8.435  17.893  17.534  0.0436 -0.0034 -0.0722
13150DDP     C178895  23.443  29.961  28.513 -0.0470  0.1759 -0.1559
13150DDP     P178896  23.104  29.549  28.499 -0.1908 -0.1745  0.1741
13150DDP     P278897  23.799  30.090  28.769  0.1595  0.1074  0.2540
13150DDP     C278898  24.159  30.261  29.049 -0.0779  0.4131 -0.1191
13150DDP     C378899  23.140  29.251  28.179  0.0389 -0.3954  0.0185
13150DDP     C478900  23.219  30.191  28.205  0.1609 -0.2254  0.0583
13151DDP     C178901  29.255   5.719   4.447  0.0133  0.1844  0.1698
13151DDP     P178902  29.094   5.500   4.650  0.0827 -0.1466 -0.1081
13151DDP     P278903  29.667   5.548   4.144 -0.0407 -0.2165 -0.0438
13151DDP     C278904  30.084   5.625   4.028  0.2856  0.0992 -0.0084
13151DDP     C378905  28.875   5.272   4.935 -0.0807 -0.2058 -0.3198
13151DDP     C478906  29.027   6.065   4.338 -0.3398 -0.0330 -0.2837
13152DDP     C178907  20.414  10.921   2.453  0.0084 -0.0101 -0.1503
13152DDP     P178908  20.639  11.268   2.560  0.2012 -0.1125 -0.2136
13152DDP     P278909  20.116  10.624   2.694 -0.0033 -0.0311 -0.1510
13152DDP     C278910  19.826  10.337   2.735 -0.0514  0.1047  0.3310
13152DDP     C378911  21.123  11.276   2.389 -0.0653  0.0088 -0.3432
13152DDP     C478912  20.425  10.723   2.044 -0.1418  0.2427  0.0589
13153DDP     C178913   4.561   2.178  28.236  0.0015  0.2981  0.4426
13153DDP     P178914   4.885   2.458  28.067  0.2583 -0.2329 -0.1093
13153DDP     P278915   4.231   2.311  28.039 -0.1234  0.0817  0.1032
13153DDP     C278916   4.146   2.766  27.759  0.3311  0.1446  0.1162
13153DDP     C378917   5.222   2.753  28.310  0.1448 -0.0650  0.1474
13153DDP     C478918   4.728   1.968  28.587 -0.0164  0.2550 -0.0031
13154DDP     C178919   0.157  16.728  21.595  0.0202 -0.1567  0.3319
13154DDP     P178920   0.326  16.536  21.923  0.0066 -0.1282 -0.1451
13154DDP     P278921  29.994  16.848  21.676 -0.3234 -0.0511  0.2512
13154DDP     C278922  29.633  16.800  21.738  0.1596 -0.1278  0.0089
13154DDP     C378923   0.408  16.148  22.045  0.0620  0.2250 -0.1071
13154DDP     C478924   0.452  16.806  21.241  0.0195 -0.2567  0.2821
13155DDP     C178925  11.067  21.064  27.207 -0.2609  0.3104  0.2647
13155DDP     P178926  10.842  21.019  27.646 -0.3045  0.1955 -0.2387
13155DDP     P278927  11.338  20.842  26.935 -0.2193 -0.1205 -0.0965
13155DDP     C278928  11.584  20.490  26.994  0.0393  0.2009  0.0572
13155DDP     C378929  10.910  21.297  28.023 -0.2441 -0.1146  0.0151
13155DDP     C478930  11.194  21.429  26.905  0.2691  0.0434  0.3211
13156DDP     C178931  24.822   1.395  25.019  0.2256 -0.3166  0.1918
13156DDP     P178932  24.784   1.763  24.856  0.1409  0.0736 -0.0905
13156DDP     P278933  25.119   1.423  25.278  0.0572 -0.3987 -0.4083
13156DDP     C278934  25.349   1.617  25.573  0.2176  0.0414  0.1653
13156DDP     C378935  24.867   2.184  24.814  0.0312 -0.0303 -0.1938
13156DDP     C478936  24.455   1.026  25.080  0.2180  0.1135 -0.1466
13157DDP     C178937  27.400  24.894   5.179 -0.2321  0.2490 -0.1187
13157DDP     P178938  27.128  24.783   4.888  0.1891  0.1983 -0.0377
13157DDP     P278939  27.291  24.990   5.550 -0.0903 -0.0141  0.0391
13157DDP     C278940  26.967  25.174   5.812 -0.1046 -0.0737  0.0940
13157DDP     C378941  27.039  24.774   4.424 -0.0389 -0.1472  0.2186
13157DDP     C478942  27.742  24.758   5.079  0.0621  0.1486  0.0006
13158DDP     C178943   9.798   1.381   3.091  0.2543  0.0235  0.1100
13158DDP     P178944   9.923   1.646   3.407 -0.0584  0.0252 -0.1966
13158DDP     P278945   9.552   1.496   2.720 -0.0101  0.0769 -0.0168
13158DDP     C278946   9.334   1.746   2.441 -0.2909  0.0594 -0.0685
13158DDP     C378947   9.935   1.706   3.794  0.1295 -0.2672 -0.4497
13158DDP     C478948   9.882   0.910   3.016 -0.0573 -0.0125 -0.0344
13159DDP     C178949  14.248  11.693   2.483 -0.1735 -0.2125  0.1959
13159DDP     P178950  14.437  12.077   2.704 -0.0924 -0.2165  0.1520
13159DDP     P278951  14.199  11.549   2.057 -0.0385  0.2762 -0.1666
13159DDP     C278952  14.403  11.691   1.665  0.2029  0.3171 -0.1136
13159DDP     C378953  14.426  12.522   2.725  0.0538 -0.1761  0.0541
13159DDP     C478954  14.325  11.416   2.829 -0.0399 -0.2595 -0.3693
13160DDP     C178955  21.185  14.107  19.136 -0.1339  0.0561  0.1177
13160DDP     P178956  20.828  13.896  19.209 -0.1025 -0.4589  0.0319
13160DDP     P278957  21.472  13.912  18.805  0.0476  0.0372 -0.2888
13160DDP     C278958  21.877  13.933  18.776  0.1789 -0.1968  0.1062
13160DDP     C378959  20.653  13.594  19.371 -0.2778  0.1151  0.2357
13160DDP     C478960  21.231  14.561  19.161  0.1786 -0.0823  0.1127
13161DDP     C178961  29.819   5.039   9.932  0.1763 -0.1184 -0.0931
13161DDP     P178962  29.433   4.854   9.945 -0.1432  0.1664 -0.0477
13161DDP     P278963  29.970   5.433   9.680 -0.1770  0.0207 -0.0279
13161DDP     C278964  29.841   5.467   9.328 -0.2461 -0.3185 -0.3773
13161DDP     C378965  28.986   4.830   9.860  0.1594 -0.0117  0.0289
13161DDP     C478966  30.093   4.914  10.171  0.0309 -0.3941 -0.1381
13162DDP     C178967   7.940  23.082  14.187 -0.1119 -0.2838 -0.1368
13162DDP     P178968   7.975  23.204  13.779  0.0414 -0.0740  0.3358
13162DDP     P278969   7.989  22.600  14.058  0.1857 -0.0255 -0.0445
13162DDP     C278970   8.033  22.098  14.064 -0.2198 -0.2245  0.2222
13162DDP     C378971   8.084  23.566  13.541  0.1225  0.1562 -0.1114
13162DDP     C478972   8.224  23.254  14.436 -0.0780 -0.2599 -0.1812
13163DDP     C178973   7.612  23.091  18.741  0.0646  0.1859  0.0662
13163DDP     P178974   7.428  23.263  18.281 -0.0621  0.2998  0.2875
13163DDP     P278975   7.233  22.906  18.897 -0.1525  0.4005 -0.3698
13163DDP     C278976   6.997  22.602  19.091  0.0466 -0.0163 -0.0384
13163DDP     C378977   7.376  23.369  17.893 -0.0196 -0.2515 -0.1555
13163DDP     C478978   8.022  23.115  18.816 -0.1232  0.0220 -0.2976
13164DDP     C178979  26.808  10.566  27.240 -0.0679 -0.1285 -0.1152
13164DDP     P178980  26.436  10.384  27.020  0.1222 -0.0553  0.0101
13164DDP     P278981  27.245  10.769  27.159 -0.3396  0.0308 -0.1527
13164DDP     C278982  27.515  10.829  27.540  0.0245  0.0400 -0.0721
13164DDP     C378983  26.119  10.266  26.974  0.0755 -0.0252 -0.0875
13164DDP     C478984  26.696  10.431  27.629  0.0214 -0.0757 -0.2285
13165DDP     C178985   5.152  15.356   4.450 -0.0650  0.0331 -0.4760
13165DDP     P178986   5.498  15.527   4.232  0.1280  0.0204  0.0193
13165DDP     P278987   5.008  15.015   4.321 -0.1181 -0.1940 -0.1926
13165DDP     C278988   4.619  14.913   4.496 -0.0729 -0.0604 -0.1091
13165DDP     C378989   5.846  15.831   4.158 -0.3515 -0.0587  0.1618
13165DDP     C478990   5.003  15.648   4.839 -0.2140  0.0270  0.4038
13166DDP     C178991  29.800  23.128  22.491 -0.1441 -0.2840 -0.0302
13166DDP     P178992  29.727  23.142  22.995  0.2910  0.0327  0.3519
13166DDP     P278993  29.477  23.349  22.203  0.1185 -0.0552  0.2266
13166DDP     C278994  29.165  23.640  22.073  0.1581  0.0706 -0.0629
13166DDP     C378995  29.385  23.077  23.269 -0.2673 -0.2526  0.0516
13166DDP     C478996  30.115  22.869  22.298 -0.0673  0.0010  0.1000
13167DDP     C178997  25.960  29.756  29.218 -0.2423 -0.2380 -0.2610
13167DDP     P178998  25.648  29.649  29.493 -0.0473 -0.1874  0.1854
13167DDP     P278999  26.326  29.972  29.211  0.1710  0.1234  0.4659
13167DDP     C279000  26.400   0.068  29.362  0.2266 -0.2635 -0.2725
13167DDP     C379001  25.235  29.556  29.407 -0.0326 -0.1901  0.0963
13167DDP     C479002  25.788  29.601  28.820 -0.0563 -0.2806 -0.0526
13168DDP     C179003  27.047   9.457   4.603  0.1352 -0.0867  0.0898
13168DDP     P179004  26.822   9.797   4.364 -0.0547  0.0253  0.0629
13168DDP     P279005  26.754   9.236   4.426  0.1352 -0.4816 -0.0656
13168DDP     C279006  26.744   8.737   4.223  0.1332  0.1478  0.0822
13168DDP     C379007  26.883  10.152   4.019  0.2713 -0.0591 -0.0004
13168DDP     C479008  27.245   9.551   4.991  0.2417 -0.0420  0.1447
13169DDP     C179009  17.825  20.413   7.070  0.1662  0.0799  0.0081
13169DDP     P179010  17.486  20.591   6.775 -0.2709  0.0007  0.1852
13169DDP     P279011  17.545  20.264   7.469  0.0558 -0.2703  0.2917
13169DDP     C279012  17.626  20.200   7.929  0.0065  0.1077 -0.0514
13169DDP     C379013  17.467  20.582   6.303 -0.1200 -0.1808  0.0677
13169DDP     C479014  18.183  20.257   7.047  0.0446 -0.0298  0.1010
13170DDP     C179015  17.253   9.246   8.156 -0.0048 -0.1262 -0.0337
13170DDP     P179016  17.335   9.664   8.292 -0.2533  0.1939  0.0613
13170DDP     P279017  17.637   9.008   8.125 -0.0118 -0.2903  0.3844
13170DDP     C279018  17.883   8.687   8.309  0.2725 -0.0522  0.0647
13170DDP     C379019  17.505   9.972   8.423  0.0851 -0.2435  0.0368
13170DDP     C479020  16.917   9.226   7.947  0.3050  0.0478 -0.0886
13171DDP     C179021  29.742  17.775   9.018 -0.0853 -0.4688 -0.0890
13171DDP     P179022  30.033  17.804   9.326 -0.0791 -0.0738  0.1961
13171DDP     P279023  29.330  17.814   9.180  0.0436 -0.2149  0.0864
13171DDP     C279024  29.015  18.025   9.100  0.0741 -0.0443 -0.4030
13171DDP     C379025  -0.023  18.039   9.412 -0.1156 -0.4280 -0.2773
13171DDP     C479026  29.826  18.017   8.581 -0.0806  0.0898  0.1997
13172DDP     C179027  17.958   0.599  26.830  0.0431 -0.0325  0.0345
13172DDP     P179028  17.750   0.981  26.922 -0.0207  0.0082  0.1368
13172DDP     P279029  18.076   0.388  27.181  0.3442 -0.0646 -0.0846
13172DDP     C279030  18.254   0.328  27.645 -0.0597 -0.1985 -0.0201
13172DDP     C379031  17.590   1.202  27.323  0.3542 -0.1281  0.1427
13172DDP     C479032  18.159   0.554  26.463 -0.2349 -0.0450 -0.0383
13173DDP     C179033  14.530  14.833   7.114  0.1444  0.1435 -0.0330
13173DDP     P179034  14.323  15.218   7.063  0.0800  0.1427  0.2372
13173DDP     P279035  14.257  14.446   7.212 -0.1902  0.0980 -0.1828
13173DDP     C279036  14.159  14.011   7.260 -0.2150 -0.3053 -0.6194
13173DDP     C379037  14.009  15.330   7.228 -0.0118 -0.4610 -0.1318
13173DDP     C479038  14.881  14.819   7.057  0.1505  0.0050 -0.0378
13174DDP     C179039  22.683   6.437  27.741 -0.0087  0.0544 -0.0315
13174DDP     P179040  22.832   6.192  27.374 -0.2535 -0.1023 -0.2121
13174DDP     P279041  22.616   6.037  28.024 -0.0673 -0.0782 -0.0689
13174DDP     C279042  22.453   5.635  28.058 -0.1278  0.0869  0.0267
13174DDP     C379043  23.025   5.826  27.248 -0.3873 -0.1816  0.3580
13174DDP     C479044  22.420   6.680  27.612 -0.0687 -0.1630  0.1473
13175DDP     C179045  14.558   4.445  28.083  0.1413 -0.0298  0.2214
13175DDP     P179046  14.476   4.736  28.487 -0.2673  0.1411  0.0594
13175DDP     P279047  14.180   4.238  28.003 -0.1986  0.1327 -0.0301
13175DDP     C279048  14.107   3.864  28.037  0.0133  0.0831 -0.2249
13175DDP     C379049  14.509   5.125  28.788 -0.1383  0.1089  0.2584
13175DDP     C479050  14.929   4.347  27.826 -0.3964 -0.1901  0.0898
13176DDP     C179051  21.873  11.526   0.882 -0.1626 -0.1666  0.2959
13176DDP     P179052  21.577  11.552   0.506 -0.1442 -0.1017  0.1014
13176DDP     P279053  22.312  11.778   0.885  0.0879 -0.3574  0.0639
13176DDP     C279054  22.321  12.180   0.952  0.0178 -0.1022 -0.2743
13176DDP     C379055  21.424  11.207   0.305 -0.1046  0.0279 -0.1755
13176DDP     C479056  21.732  11.322   1.272 -0.3105 -0.0797 -0.0676
13177DDP     C179057   9.687  22.953  17.004  0.1108 -0.3370 -0.3260
13177DDP     P179058   9.732  22.629  16.684 -0.2961 -0.1326  0.2420
13177DDP     P279059   9.579  23.341  16.991  0.1845 -0.0513  0.0155
13177DDP     C279060   9.571  23.708  16.698 -0.2141 -0.2090  0.0689
13177DDP     C379061  10.103  22.597  16.475  0.5393 -0.3117 -0.3579
13177DDP     C479062   9.908  22.881  17.296 -0.3627  0.2730  0.1381
13178DDP     C179063   0.648  15.112   0.091  0.1048  0.2173 -0.1228
13178DDP     P179064   0.235  14.849   0.027  0.2925 -0.3269  0.0202
13178DDP     P279065   0.663  15.547   0.078  0.2324 -0.1383 -0.1359
13178DDP     C279066   0.444  15.875  30.129 -0.2296  0.2247 -0.2519
13178DDP     C379067  30.097  14.991  -0.007  0.1085 -0.0206  0.0171
13178DDP     C479068   1.005  14.923   0.334  0.1997 -0.0052  0.0730
13179DDP     C179069  10.165  20.615  20.488  0.1130 -0.0493 -0.0254
13179DDP     P179070  10.353  20.280  20.234  0.1814  0.0968 -0.2143
13179DDP     P279071  10.299  20.968  20.424 -0.0230  0.1435  0.0471
13179DDP     C279072  10.204  21.260  20.793 -0.2104 -0.0955  0.2407
13179DDP     C379073  10.620  19.859  20.093 -0.3958 -0.2475  0.0909
13179DDP     C479074   9.820  20.462  20.808 -0.2644  0.3360 -0.0255
13180DDP     C179075  29.065   0.965   6.987 -0.0270  0.0826  0.3154
13180DDP     P179076  29.011   1.417   6.849 -0.2775 -0.1364 -0.0219
13180DDP     P279077  29.429   0.769   6.778  0.5688  0.3102  0.1048
13180DDP     C279078  29.497   0.543   6.526  0.0946 -0.1693 -0.2436
13180DDP     C379079  29.099   1.746   7.183 -0.1972  0.4556  0.0184
13180DDP     C479080  28.720   0.790   7.199  0.0101  0.2157  0.0109
13181DDP     C179081   1.786  13.927   9.835  0.0521 -0.2156 -0.0806
13181DDP     P179082   1.959  14.146  10.201  0.2710  0.0872 -0.1730
13181DDP     P279083   1.385  13.985   9.670  0.0011 -0.0982 -0.1390
13181DDP     C279084   1.138  14.347   9.626  0.0245 -0.0191  0.1487
13181DDP     C379085   2.197  14.559  10.131  0.1448  0.5528  0.0588
13181DDP     C479086   1.939  13.653   9.836  0.0181  0.0318 -0.1539
13182DDP     C179087  12.105  13.475  28.770 -0.0039  0.1167 -0.0326
13182DDP     P179088  11.663  13.352  28.639  0.2233 -0.2497  0.2183
13182DDP     P279089  12.188  13.925  28.851 -0.3147  0.1757  0.2559
13182DDP     C279090  12.337  14.267  28.993  0.3021 -0.2274 -0.5273
13182DDP     C379091  11.240  13.567  28.583 -0.1613 -0.1564 -0.1716
13182DDP     C479092  12.357  13.196  28.770 -0.0541  0.0470 -0.2077
13183DDP     C179093  17.211  22.037  11.899  0.0887 -0.2445 -0.2160
13183DDP     P179094  17.417  21.797  12.253 -0.2522  0.2887  0.1312
13183DDP     P279095  17.326  22.045  11.539  0.0327  0.0095 -0.0533
13183DDP     C279096  17.563  22.027  11.156  0.0761 -0.0478 -0.0940
13183DDP     C379097  17.888  21.888  12.171  0.2371 -0.0649 -0.0548
13183DDP     C479098  16.852  22.353  11.976  0.4656 -0.0743  0.0789
13184DDP     C179099  21.381  20.354  23.311  0.0351 -0.1654 -0.2823
13184DDP     P179100  20.996  20.382  23.194  0.1321 -0.1222  0.0475
13184DDP     P279101  21.566  20.571  23.795 -0.3424  0.0346 -0.0575
13184DDP     C279102  21.540  20.448  24.160  0.0270  0.1664  0.2315
13184DDP     C379103  20.546  20.498  23.236 -0.1583  0.0196 -0.1492
13184DDP     C479104  21.586  20.169  23.026  0.1767  0.0896  0.2349
13185DDP     C179105   2.105   5.103  22.500  0.0777 -0.2886  0.2199
13185DDP     P179106   2.474   4.865  22.633 -0.0113 -0.0433 -0.0074
13185DDP     P279107   1.825   4.911  22.583 -0.2236  0.1723 -0.1388
13185DDP     C279108   1.443   4.949  22.639  0.1123 -0.3481  0.2528
13185DDP     C379109   2.813   5.120  22.657 -0.2033 -0.2050  0.2241
13185DDP     C479110   2.188   5.328  22.132 -0.2279  0.1956 -0.3028
13186DDP     C179111  17.707  28.398  24.022  0.1573  0.0259 -0.1131
13186DDP     P179112  18.025  28.613  23.829  0.1432  0.2872  0.1706
13186DDP     P279113  17.790  28.018  24.411 -0.2627 -0.0282  0.1240
13186DDP     C279114  17.540  27.863  24.708 -0.2440  0.1918 -0.0490
13186DDP     C379115  18.276  28.939  23.737  0.1045  0.1535 -0.0380
13186DDP     C479116  17.345  28.759  24.242  0.0069  0.0041  0.0531
13187DDP     C179117  24.652  23.259  11.620  0.0613 -0.2564 -0.1256
13187DDP     P179118  24.358  23.058  11.419  0.0519 -0.1416  0.2129
13187DDP     P279119  24.498  23.640  11.908  0.2765 -0.2774 -0.0731
13187DDP     C279120  24.576  23.979  12.281 -0.2945 -0.3399 -0.0359
13187DDP     C379121  24.145  22.845  11.006 -0.3134 -0.1947  0.0872
13187DDP     C479122  25.073  23.247  11.539 -0.1499 -0.2376 -0.1245
13188DDP     C179123  24.757   6.975   1.666 -0.1813 -0.0357 -0.1866
13188DDP     P179124  24.798   6.619   1.927 -0.4206 -0.0219 -0.1298
13188DDP     P279125  24.596   6.996   1.249  0.1578  0.0833  0.1296
13188DDP     C279126  24.530   7.196   0.792 -0.0740 -0.4180 -0.4638
13188DDP     C379127  24.890   6.545   2.250  0.0957 -0.3470 -0.0666
13188DDP     C479128  24.583   7.366   1.772 -0.0398 -0.0692  0.0405
13189DDP     C179129  17.471   1.965   4.413  0.2384 -0.1056 -0.1832
13189DDP     P179130  17.407   2.413   4.571  0.1773 -0.2234  0.1543
13189DDP     P279131  17.473   1.811   4.001  0.3056  0.1992 -0.2832
13189DDP     C279132  17.550   1.680   3.595 -0.0618  0.2988 -0.0852
13189DDP     C379133  17.204   2.758   4.773  0.2588  0.0268  0.1732
13189DDP     C479134  17.696   1.640   4.610  0.2607 -0.0683 -0.2453
13190DDP     C179135   5.825   4.906  14.838 -0.2140 -0.0550  0.0746
13190DDP     P179136   5.654   4.782  14.337 -0.0614  0.0270 -0.2065
13190DDP     P279137   5.683   5.246  15.059  0.1189 -0.0502 -0.0075
13190DDP     C279138   5.910   5.472  15.354 -0.0389  0.2121 -0.3155
13190DDP     C379139   5.389   4.563  14.217 -0.1714  0.0320  0.1367
13190DDP     C479140   6.036   4.542  14.987  0.2762  0.0414 -0.3457
13191DDP     C179141  21.005  28.152  26.402  0.2036 -0.2864 -0.0582
13191DDP     P179142  20.745  27.914  26.106  0.1370  0.1445 -0.0312
13191DDP     P279143  21.434  27.937  26.506  0.1716 -0.0785 -0.0676
13191DDP     C279144  21.775  27.630  26.603  0.1814 -0.0598 -0.1606
13191DDP     C379145  20.271  28.013  26.065  0.0101  0.2962  0.0060
13191DDP     C479146  20.858  28.506  26.601 -0.0692  0.0886 -0.3886
13192DDP     C179147  27.855  19.388  19.821  0.4063  0.0006  0.3796
13192DDP     P179148  28.147  19.310  19.483 -0.1250 -0.1805 -0.1086
13192DDP     P279149  27.825  19.086  20.128  0.0573  0.1122  0.1685
13192DDP     C279150  27.474  18.843  20.233 -0.1714 -0.1672  0.2258
13192DDP     C379151  28.484  19.053  19.442  0.1710 -0.0944  0.0114
13192DDP     C479152  27.485  19.628  19.665  0.1229  0.1791  0.1408
13193DDP     C179153   6.467   1.418   1.467 -0.0404  0.1816 -0.0188
13193DDP     P179154   6.192   1.734   1.195 -0.0763 -0.0904 -0.2582
13193DDP     P279155   6.679   1.205   1.139  0.3803  0.3903 -0.1124
13193DDP     C279156   7.076   1.060   1.164 -0.1530  0.1815  0.3809
13193DDP     C379157   6.256   2.022   0.903 -0.1844 -0.1425 -0.0762
13193DDP     C479158   6.451   1.487   1.883 -0.0980 -0.1007  0.0433
13194DDP     C179159   9.528   2.011   6.722  0.2697 -0.0769  0.0726
13194DDP     P179160   9.572   1.599   6.590  0.0722 -0.3696 -0.0580
13194DDP     P279161   9.387   2.127   7.188 -0.1367  0.0702 -0.0480
13194DDP     C279162   9.528   2.064   7.519  0.1029 -0.1228 -0.0857
13194DDP     C379163   9.466   1.256   6.332  0.2206 -0.0720  0.1671
13194DDP     C479164   9.423   2.298   6.452  0.3932  0.5034  0.0376
13195DDP     C179165   8.776  15.640  28.072 -0.2075 -0.1299 -0.2543
13195DDP     P179166   8.465  15.902  27.764  0.0305  0.2177 -0.3720
13195DDP     P279167   9.134  15.820  28.012  0.2046 -0.1787  0.3384
13195DDP     C279168   9.512  15.840  28.148  0.0940 -0.0435  0.0793
13195DDP     C379169   8.055  15.858  27.610  0.0654  0.0848 -0.1066
13195DDP     C479170   8.625  15.233  28.214  0.3269 -0.0290  0.2049
13196DDP     C179171  10.325   1.499  12.252  0.0992 -0.2443  0.0608
13196DDP     P179172  10.492   1.186  11.939 -0.0432 -0.0800  0.0552
13196DDP     P279173  10.338   1.974  12.211 -0.2721 -0.4052 -0.3233
13196DDP     C279174   9.987   2.221  12.336  0.0431 -0.1978  0.2420
13196DDP     C379175  10.577   1.219  11.568 -0.0710  0.2809 -0.3469
13196DDP     C479176  10.161   1.401  12.707 -0.4708 -0.1656  0.2029
13197DDP     C179177   7.233   6.745  19.631  0.0652 -0.3020 -0.3617
13197DDP     P179178   7.441   6.526  19.287  0.0048  0.3994 -0.0985
13197DDP     P279179   7.109   6.353  19.901  0.0689 -0.2788  0.4365
13197DDP     C279180   6.885   6.373  20.296 -0.0645  0.2089 -0.0719
13197DDP     C379181   7.467   6.494  18.867 -0.1339  0.0827 -0.3334
13197DDP     C479182   7.129   7.108  19.544 -0.2797  0.1939 -0.0414
13198DDP     C179183  18.865   9.516   9.749 -0.0981 -0.2782 -0.0979
13198DDP     P179184  18.790   9.051   9.671 -0.0755  0.1845  0.5243
13198DDP     P279185  18.775   9.842   9.434  0.0726 -0.1318  0.1751
13198DDP     C279186  18.617  10.030   9.069  0.2571 -0.3381  0.0232
13198DDP     C379187  18.783   8.861   9.269  0.0727  0.0311 -0.1642
13198DDP     C479188  19.178   9.523  10.145 -0.0301 -0.2904 -0.1409
13199DDP     C179189   4.245  24.570  22.963  0.2326 -0.0222  0.3394
13199DDP     P179190   4.120  24.096  22.925  0.0461  0.0105  0.0028
13199DDP     P279191   4.004  24.981  22.855 -0.0733  0.1162  0.0128
13199DDP     C279192   4.097  25.323  22.704  0.0634 -0.0133  0.2410
13199DDP     C379193   4.128  23.937  22.517  0.0972 -0.3643 -0.0619
13199DDP     C479194   4.683  24.699  22.976 -0.1599 -0.2335  0.0549
13200DDP     C179195  16.476  22.145   3.788  0.0020 -0.0509 -0.0998
13200DDP     P179196  16.715  21.804   3.954  0.1076 -0.2621 -0.1324
13200DDP     P279197  16.224  22.034   3.991 -0.1077  0.2054 -0.0217
13200DDP     C279198  15.929  21.826   4.361 -0.1658  0.0783  0.3536
13200DDP     C379199  16.994  21.598   4.155  0.0544 -0.0633  0.2467
13200DDP     C479200  16.749  22.523   3.707 -0.0326  0.0148 -0.0539
13201DDP     C179201  26.833  22.131   3.877  0.2642 -0.0393 -0.1272
13201DDP     P179202  27.189  21.879   4.046  0.2717 -0.0253 -0.1538
13201DDP     P279203  26.690  22.618   3.983  0.3201  0.0366  0.1135
13201DDP     C279204  26.351  22.868   3.887 -0.2508 -0.0110  0.0346
13201DDP     C379205  27.203  21.475   4.077 -0.1137 -0.2847 -0.3690
13201DDP     C479206  26.694  22.027   3.468  0.2634  0.1148 -0.2137
13202DDP     C179207  14.622   2.159  16.093  0.3695 -0.1406 -0.0704
13202DDP     P179208  14.976   2.151  16.521 -0.1418  0.0466 -0.0264
13202DDP     P279209  14.360   2.488  16.207 -0.1816  0.0611  0.1206
13202DDP     C279210  14.172   2.709  16.542  0.2674 -0.1495 -0.1510
13202DDP     C379211  15.000   1.898  16.866  0.0888  0.1593  0.2472
13202DDP     C479212  14.765   1.965  15.609  0.2431 -0.2399 -0.0483
13203DDP     C179213  15.706  29.851  17.953  0.1655  0.2830 -0.0336
13203DDP     P179214  15.845  29.810  17.550  0.1377 -0.1025 -0.0405
13203DDP     P279215  15.800  30.266  18.096 -0.4638 -0.0158  0.0446
13203DDP     C279216  15.832   0.326  18.289 -0.0883  0.2393  0.0734
13203DDP     C379217  16.018  29.799  17.130  0.0455 -0.0973  0.2557
13203DDP     C479218  15.399  29.665  18.113 -0.0966  0.1592  0.0032
13204DDP     C179219   6.714  15.694  16.434 -0.0694 -0.0267  0.0142
13204DDP     P179220   6.463  15.486  16.825  0.1893  0.2353  0.2651
13204DDP     P279221   6.913  16.132  16.625  0.0232 -0.2102  0.1173
13204DDP     C279222   7.266  16.371  16.695  0.1760 -0.4336  0.0851
13204DDP     C379223   6.460  15.419  17.352 -0.1122  0.2510 -0.2119
13204DDP     C479224   6.819  15.369  16.158  0.2259 -0.1572 -0.3343
13205DDP     C179225   3.638   5.328  20.590 -0.0743 -0.3112  0.0615
13205DDP     P179226   4.035   5.231  20.577 -0.0887  0.4099 -0.0642
13205DDP     P279227   3.423   5.095  20.241 -0.0855 -0.0373 -0.3997
13205DDP     C279228   3.472   4.673  20.026  0.0676  0.0610  0.0298
13205DDP     C379229   4.352   5.242  20.288  0.1904  0.2360  0.0488
13205DDP     C479230   3.623   5.805  20.750  0.1221 -0.0808  0.0583
13206DDP     C179231  19.692  21.293  17.162 -0.1006 -0.2464 -0.0901
13206DDP     P179232  20.091  21.431  17.017  0.2555  0.1359 -0.0164
13206DDP     P279233  19.516  20.937  16.954 -0.2173  0.0378  0.1481
13206DDP     C279234  19.166  20.678  16.719  0.1513  0.0748 -0.0190
13206DDP     C379235  20.303  21.515  16.618 -0.0590  0.1342  0.2362
13206DDP     C479236  19.503  21.502  17.447  0.1625  0.3445  0.1114
13207DDP     C179237   5.959  21.038  27.446 -0.2422  0.0179  0.0194
13207DDP     P179238   5.592  21.092  27.103  0.1477  0.0331  0.0218
13207DDP     P279239   6.054  20.567  27.745  0.1909 -0.1500  0.4046
13207DDP     C279240   6.300  20.386  27.990  0.2182  0.2750 -0.2243
13207DDP     C379241   5.325  21.093  26.776  0.0154  0.1305  0.0524
13207DDP     C479242   6.019  21.370  27.618  0.2044 -0.1171 -0.0453
13208DDP     C179243  29.993  11.231  22.447  0.0505  0.0463  0.1446
13208DDP     P179244  29.771  11.147  22.757  0.1696  0.0704  0.1831
13208DDP     P279245  29.705  11.058  22.271  0.1348  0.2308  0.0577
13208DDP     C279246  29.452  10.640  22.291  0.1521 -0.2518 -0.0247
13208DDP     C379247  29.705  11.309  23.236 -0.1353 -0.1031  0.1189
13208DDP     C479248   0.167  11.399  22.574  0.0691 -0.1569  0.1989
13209DDP     C179249  27.368  29.514  21.265  0.1478 -0.2366  0.0011
13209DDP     P179250  27.701  29.416  20.930 -0.0814 -0.0464  0.0535
13209DDP     P279251  26.910  29.682  21.258  0.1162  0.0703  0.0497
13209DDP     C279252  26.447  29.667  21.387  0.0360  0.0095  0.0156
13209DDP     C379253  28.141  29.520  20.788 -0.2110 -0.1874 -0.0693
13209DDP     C479254  27.470  29.399  21.788 -0.1214  0.0869  0.1794
13210DDP     C179255   5.886   8.690  12.930 -0.1409 -0.2821 -0.0135
13210DDP     P179256   5.580   8.533  13.124 -0.1339  0.1372 -0.0230
13210DDP     P279257   5.946   9.000  12.539 -0.2050  0.0047 -0.1945
13210DDP     C279258   6.052   9.360  12.283 -0.1583 -0.1465  0.0999
13210DDP     C379259   5.241   8.248  13.107 -0.0153 -0.0153 -0.0064
13210DDP     C479260   6.313   8.406  12.878 -0.0330  0.0847  0.0782
13211DDP     C179261   6.318  10.975   1.479  0.2181  0.1036  0.1731
13211DDP     P179262   6.275  11.020   1.110  0.1926  0.1635 -0.0517
13211DDP     P279263   6.168  10.602   1.692 -0.1592 -0.0815  0.0661
13211DDP     C279264   6.029  10.302   1.934 -0.6418 -0.1579  0.3748
13211DDP     C379265   5.993  11.157   0.848 -0.1299 -0.0850 -0.2114
13211DDP     C479266   6.271  11.479   1.655  0.2520 -0.1472 -0.1437
13212DDP     C179267  11.685  26.898  21.934 -0.1934  0.1096 -0.2759
13212DDP     P179268  12.200  26.991  21.970 -0.1924 -0.0920 -0.2623
13212DDP     P279269  11.622  26.652  22.216 -0.1480  0.0131  0.2791
13212DDP     C279270  11.632  26.170  22.203 -0.0903  0.1291  0.0314
13212DDP     C379271  12.545  26.989  22.226  0.0301 -0.0305  0.2852
13212DDP     C479272  11.481  27.059  21.557 -0.1526 -0.0466 -0.1327
13213DDP     C179273   4.549   9.589  20.405  0.2067 -0.2119 -0.0307
13213DDP     P179274   4.467   9.688  19.841 -0.0481 -0.2133 -0.0699
13213DDP     P279275   4.367   9.247  20.539  0.0734 -0.3244  0.1575
13213DDP     C279276   4.036   9.072  20.384 -0.0486  0.1923  0.1212
13213DDP     C379277   4.362   9.404  19.426 -0.0397 -0.2103 -0.0735
13213DDP     C479278   4.790   9.903  20.660  0.0586  0.1290 -0.4733
13214DDP     C179279  20.730   4.327  14.379  0.1112  0.1847  0.0222
13214DDP     P179280  20.818   4.554  14.012  0.1122 -0.1258 -0.3308
13214DDP     P279281  20.928   4.552  14.681 -0.0312  0.1930 -0.0257
13214DDP     C279282  21.408   4.429  14.645  0.1231 -0.4575 -0.2301
13214DDP     C379283  20.713   4.286  13.727 -0.0709 -0.0289  0.2062
13214DDP     C479284  20.340   4.103  14.336 -0.0001  0.2093 -0.0499
13215DDP     C179285   3.397  18.355  19.104 -0.2649  0.2638  0.3543
13215DDP     P179286   3.740  18.520  18.836  0.1323 -0.0808 -0.3759
13215DDP     P279287   3.501  18.375  19.584  0.2116 -0.1127  0.0515
13215DDP     C279288   3.746  18.404  19.915  0.2273 -0.0345  0.0099
13215DDP     C379289   4.081  18.779  18.781  0.1767  0.1267  0.0232
13215DDP     C479290   2.973  18.232  19.067  0.0016  0.1182 -0.1030
13216DDP     C179291  26.648   6.895   8.970  0.2332 -0.0144 -0.0302
13216DDP     P179292  26.275   7.268   9.074  0.0503 -0.1731 -0.0153
13216DDP     P279293  26.617   6.685   8.577 -0.1210  0.0477  0.2070
13216DDP     C279294  26.429   6.748   8.222  0.3362 -0.1456 -0.0051
13216DDP     C379295  25.973   7.610   9.111  0.0301 -0.3730  0.0279
13216DDP     C479296  27.023   6.889   9.098 -0.3290  0.0606 -0.2248
13217DDP     C179297   0.711  11.306   6.934  0.0586  0.1821 -0.0609
13217DDP     P179298   0.292  11.386   6.825 -0.0411 -0.0963 -0.0731
13217DDP     P279299   0.989  11.427   7.351 -0.2144  0.0851  0.1262
13217DDP     C279300   0.933  11.683   7.729  0.1279 -0.1661  0.2604
13217DDP     C379301  30.277  11.640   6.874  0.0795 -0.1121 -0.0304
13217DDP     C479302   1.132  11.146   6.726  0.0118  0.0349  0.0095
13218DDP     C179303   1.610  24.969  15.031 -0.1413  0.1717 -0.1864
13218DDP     P179304   1.818  24.778  14.740  0.0239  0.1583 -0.2915
13218DDP     P279305   1.911  25.236  15.157  0.0399  0.0273 -0.1129
13218DDP     C279306   2.332  25.429  15.169  0.0732  0.1958 -0.0073
13218DDP     C379307   2.163  24.627  14.792 -0.1529  0.0231  0.0428
13218DDP     C479308   1.139  24.999  15.245 -0.3453  0.0154  0.0780
13219DDP     C179309  14.049  29.117  24.545  0.1996 -0.1072 -0.0771
13219DDP     P179310  13.712  28.851  24.643 -0.0051  0.0548  0.3447
13219DDP     P279311  14.015  29.534  24.635  0.1010  0.0935 -0.1017
13219DDP     C279312  14.165  29.876  24.936 -0.3097 -0.0093 -0.1361
13219DDP     C379313  13.529  28.410  24.824  0.1868 -0.0309 -0.0742
13219DDP     C479314  14.390  28.844  24.610 -0.0562  0.1062  0.2011
13220DDP     C179315   3.838  27.538  10.271 -0.1993  0.0235 -0.2077
13220DDP     P179316   4.079  27.457   9.917 -0.1819 -0.0637  0.1771
13220DDP     P279317   3.908  27.962  10.326 -0.3635  0.1382  0.2476
13220DDP     C279318   4.182  28.249  10.305  0.0280 -0.1990  0.0630
13220DDP     C379319   4.439  27.208   9.699 -0.3483 -0.1774  0.1240
13220DDP     C479320   3.765  27.045  10.547 -0.3592 -0.0999  0.0321
13221DDP     C179321  14.858  26.735   8.155 -0.0739 -0.3861 -0.0920
13221DDP     P179322  15.091  26.424   8.185  0.1664  0.1183  0.1126
13221DDP     P279323  14.432  26.850   7.923 -0.0606  0.0266  0.3007
13221DDP     C279324  14.453  27.074   7.541  0.0601  0.2853 -0.0021
13221DDP     C379325  15.425  26.077   8.178 -0.1155 -0.1642 -0.2058
13221DDP     C479326  15.138  26.938   8.341  0.1748 -0.1852 -0.0473
13222DDP     C179327   7.938   9.822   3.027 -0.1587 -0.0136  0.2434
13222DDP     P179328   8.097   9.967   2.627 -0.0097  0.0070  0.0083
13222DDP     P279329   8.056  10.068   3.339  0.1675 -0.3491  0.0272
13222DDP     C279330   8.240   9.811   3.677 -0.1196 -0.2217  0.0728
13222DDP     C379331   7.823  10.159   2.214  0.0650 -0.0662 -0.4028
13222DDP     C479332   7.650   9.464   3.026  0.0663 -0.3599  0.3484
13223DDP     C179333   4.837   5.196  29.700 -0.1288 -0.2719 -0.1459
13223DDP     P179334   4.485   5.212  29.645 -0.0100 -0.1661  0.5929
13223DDP     P279335   5.237   5.297  29.427  0.0278 -0.1794 -0.0710
13223DDP     C279336   5.391   5.145  28.888  0.0177  0.0005  0.2974
13223DDP     C379337   4.186   5.554  29.613 -0.1074  0.0881 -0.0307
13223DDP     C479338   4.882   4.839  30.122 -0.2806 -0.3576  0.2060
13224DDP     C179339  18.917   5.442  18.876  0.3560  0.1381  0.1381
13224DDP     P179340  18.826   5.161  18.491 -0.3033 -0.4632  0.0406
13224DDP     P279341  19.283   5.580  19.028  0.3105  0.0734 -0.1813
13224DDP     C279342  19.351   5.951  19.190  0.0198 -0.0517 -0.5065
13224DDP     C379343  19.070   5.051  18.092 -0.0946  0.0532  0.1851
13224DDP     C479344  18.548   5.495  19.129 -0.4027  0.1443  0.1070
13225DDP     C179345   9.401  27.880  19.065 -0.0274  0.0235 -0.1692
13225DDP     P179346   9.530  27.459  18.867  0.0677 -0.1237  0.1598
13225DDP     P279347   9.049  27.886  19.300 -0.3090  0.0103 -0.1035
13225DDP     C279348   8.576  27.842  19.416 -0.1024  0.1449  0.2608
13225DDP     C379349   9.664  27.295  18.549  0.0029  0.0124 -0.0171
13225DDP     C479350   9.468  28.216  18.825 -0.3840  0.2410  0.3471
13226DDP     C179351  17.308   0.123   3.395 -0.2545 -0.1692 -0.1635
13226DDP     P179352  17.694   0.294   3.547 -0.0602  0.0084  0.4170
13226DDP     P279353  17.269   0.361   3.125 -0.2180  0.1856  0.0087
13226DDP     C279354  16.871   0.588   2.893 -0.1725  0.2045 -0.1780
13226DDP     C379355  17.999   0.342   3.844  0.2803 -0.1042 -0.1957
13226DDP     C479356  16.986  30.260   3.677 -0.1143 -0.2143  0.0781
13227DDP     C179357  14.913  13.274  16.584 -0.1929  0.1706  0.0423
13227DDP     P179358  15.015  12.804  16.594  0.2216  0.2140  0.2288
13227DDP     P279359  14.490  13.414  16.604  0.0557 -0.0476 -0.1111
13227DDP     C279360  14.233  13.703  16.839  0.2125  0.1476 -0.1268
13227DDP     C379361  15.376  12.544  16.647  0.1552 -0.1038 -0.0688
13227DDP     C479362  15.115  13.591  16.706  0.2263  0.3268  0.0501
13228DDP     C179363  11.940  20.526  11.470  0.0447 -0.1452  0.0464
13228DDP     P179364  11.670  20.383  11.752  0.2038  0.0412  0.0216
13228DDP     P279365  12.368  20.450  11.504 -0.0224 -0.0113  0.1234
13228DDP     C279366  12.555  20.068  11.502  0.2908 -0.1568 -0.0863
13228DDP     C379367  11.734  20.380  12.163  0.1417 -0.0779  0.0672
13228DDP     C479368  11.913  20.842  11.119 -0.2551  0.1469 -0.1744
13229DDP     C179369  17.394   0.069   8.929 -0.0940 -0.2518  0.0577
13229DDP     P179370  17.098  30.124   9.003  0.0967  0.1140 -0.1351
13229DDP     P279371  17.381   0.476   9.049 -0.0774  0.0904 -0.0127
13229DDP     C279372  17.086   0.667   9.276  0.1190  0.0903  0.0424
13229DDP     C379373  16.956  29.769   9.308 -0.0575 -0.2865  0.1678
13229DDP     C479374  17.716  30.115   8.864  0.1002  0.3166  0.1474
13230DDP     C179375  12.174   8.534  16.994 -0.1628 -0.2758  0.0483
13230DDP     P179376  11.788   8.811  16.696 -0.2226  0.0032 -0.1662
13230DDP     P279377  12.203   8.722  17.457 -0.2971 -0.1852  0.0096
13230DDP     C279378  12.187   8.700  17.877  0.1318 -0.0588 -0.1478
13230DDP     C379379  11.863   9.246  16.614  0.0054 -0.1500  0.1425
13230DDP     C479380  12.349   8.200  16.792  0.1056 -0.0981 -0.1272
13231DDP     C179381   9.209   7.203  10.948 -0.1467  0.2556 -0.0564
13231DDP     P179382   9.638   6.974  10.823 -0.0743  0.1222  0.1152
13231DDP     P279383   8.780   7.089  11.091  0.0137 -0.0277 -0.1371
13231DDP     C279384   8.400   7.105  11.258 -0.2089 -0.1118  0.0837
13231DDP     C379385  10.056   6.896  10.693  0.0594  0.1454 -0.1183
13231DDP     C479386   9.185   7.576  10.846  0.0443  0.0055  0.0247
13232DDP     C179387  13.399  23.916   7.944 -0.0327 -0.1660 -0.0036
13232DDP     P179388  13.392  23.856   7.500 -0.0315 -0.0767 -0.1452
13232DDP     P279389  13.148  24.347   8.055  0.1707  0.0474 -0.0215
13232DDP     C279390  12.905  24.720   8.170  0.3083  0.3885 -0.2641
13232DDP     C379391  13.505  24.129   7.129 -0.0160  0.0842 -0.1868
13232DDP     C479392  13.498  23.603   8.253 -0.1600  0.0617  0.2587
13233DDP     C179393  28.603   9.539  15.053 -0.1666  0.0418  0.2316
13233DDP     P179394  28.928   9.742  15.052  0.0586  0.0948 -0.3412
13233DDP     P279395  28.196   9.688  15.000 -0.2202  0.5362  0.0385
13233DDP     C279396  27.844   9.675  15.210 -0.0190 -0.2501  0.1530
13233DDP     C379397  29.267  10.113  15.016  0.0863 -0.0543 -0.1463
13233DDP     C479398  28.784   9.147  15.046 -0.1209 -0.2516 -0.0368
13234DDP     C179399  29.770  17.957  19.107 -0.1312  0.0286  0.0627
13234DDP     P179400  30.085  18.018  19.380 -0.1262  0.0893 -0.2251
13234DDP     P279401  29.830  17.722  18.735 -0.3980  0.0846  0.0581
13234DDP     C279402  29.966  17.432  18.347  0.0387 -0.1164  0.1609
13234DDP     C379403  29.999  17.869  19.778  0.0370 -0.2515  0.2726
13234DDP     C479404  29.329  17.928  19.278 -0.1389  0.0338 -0.1553
13235DDP     C179405   0.342  15.633   9.134  0.1000  0.1005  0.0031
13235DDP     P179406   0.203  15.651   9.562  0.0481 -0.1914 -0.0302
13235DDP     P279407   0.472  15.386   8.906 -0.2628  0.0931 -0.0205
13235DDP     C279408   0.265  15.146   8.691  0.0919  0.2287  0.1625
13235DDP     C379409   0.266  15.911   9.951  0.3806 -0.2600  0.1211
13235DDP     C479410   0.287  16.067   9.106 -0.2441  0.1223 -0.0298
13236DDP     C179411   1.738   9.052  11.653  0.1196  0.0028 -0.0307
13236DDP     P179412   1.691   8.673  11.839  0.3969  0.1017  0.3231
13236DDP     P279413   1.583   9.464  11.903 -0.0190 -0.1208  0.0174
13236DDP     C279414   1.161   9.635  11.987 -0.0302 -0.2688  0.3195
13236DDP     C379415   2.083   8.410  11.740 -0.0758  0.0317  0.3547
13236DDP     C479416   1.774   9.023  11.198 -0.1864  0.0463 -0.0093
13237DDP     C179417  26.243  16.390  19.135  0.2677  0.0186 -0.1742
13237DDP     P179418  26.696  16.399  19.315  0.0651 -0.3479 -0.0782
13237DDP     P279419  26.196  16.011  18.974  0.1011 -0.2915 -0.3631
13237DDP     C279420  26.194  15.860  18.603  0.0736 -0.3949  0.0633
13237DDP     C379421  27.047  16.437  19.539 -0.0176 -0.1357 -0.0575
13237DDP     C479422  25.935  16.682  19.280  0.0051 -0.1130 -0.1170
13238DDP     C179423  26.734  28.973  21.713  0.0053 -0.0372 -0.0879
13238DDP     P179424  26.401  29.103  21.539  0.1365  0.1169 -0.4135
13238DDP     P279425  26.963  28.585  21.478 -0.3322 -0.1507  0.1896
13238DDP     C279426  26.931  28.437  21.079 -0.0596 -0.1708 -0.0553
13238DDP     C379427  26.075  28.835  21.515  0.0371  0.1831  0.0629
13238DDP     C479428  26.979  29.277  21.835 -0.1052 -0.0116  0.2064
13239DDP     C179429  28.849   8.928   1.511  0.2323  0.0261 -0.1951
13239DDP     P179430  28.579   9.276   1.579  0.0498 -0.1603 -0.0359
13239DDP     P279431  29.116   8.765   1.788  0.2804  0.0424 -0.1883
13239DDP     C279432  29.200   8.561   2.181  0.3206  0.0817 -0.1307
13239DDP     C379433  28.376   9.353   1.971 -0.0296 -0.0785  0.1380
13239DDP     C479434  28.866   8.914   1.060  0.2930 -0.0083  0.0914
13240DDP     C179435  15.314  12.993  30.024 -0.2774  0.0616  0.1307
13240DDP     P179436  15.654  12.734  30.024 -0.3999 -0.1182 -0.1508
13240DDP     P279437  15.281  13.501  30.096 -0.0802  0.1173  0.0348
13240DDP     C279438  15.496  13.906   0.061 -0.1639 -0.1123 -0.1910
13240DDP     C379439  15.716  12.408  29.717 -0.2010 -0.2959 -0.0891
13240DDP     C479440  14.974  12.881  29.887 -0.2873 -0.2929 -0.3585
13241DDP     C179441   3.520  14.208   2.329  0.1108 -0.0841  0.3615
13241DDP     P179442   3.436  13.783   2.411  0.2905 -0.0059  0.0430
13241DDP     P279443   3.598  14.571   2.546 -0.1030  0.1144  0.1949
13241DDP     C279444   3.493  15.030   2.585 -0.3260  0.2802 -0.0145
13241DDP     C379445   3.477  13.448   2.618 -0.0174  0.3241  0.1151
13241DDP     C479446   3.599  14.259   1.925 -0.2634  0.2966  0.2514
13242DDP     C179447  23.879   6.940  29.181  0.1484  0.3393  0.0397
13242DDP     P179448  24.276   6.729  29.111 -0.0056  0.0469  0.0766
13242DDP     P279449  23.750   7.262  28.953  0.0501  0.0948 -0.0706
13242DDP     C279450  23.305   7.210  28.785 -0.1714  0.1324 -0.0952
13242DDP     C379451  24.708   6.600  29.034  0.1426  0.0366  0.0453
13242DDP     C479452  23.747   6.836  29.636 -0.0073 -0.1770 -0.2629
13243DDP     C179453  26.798   3.402  24.247  0.3052  0.1481 -0.2123
13243DDP     P179454  26.385   3.722  24.281  0.0847 -0.2236 -0.0009
13243DDP     P279455  27.090   3.270  24.565 -0.0270  0.1151 -0.1570
13243DDP     C279456  27.163   2.973  24.884 -0.3283 -0.1190 -0.0463
13243DDP     C379457  26.198   3.877  23.989  0.0596 -0.0909 -0.1017
13243DDP     C479458  27.084   3.582  24.052 -0.1870  0.0295  0.3063
13244DDP     C179459  29.811   1.781  24.625  0.0991  0.0571  0.0474
13244DDP     P179460  29.845   1.616  24.228  0.1135 -0.4450 -0.0232
13244DDP     P279461  29.468   1.676  24.874  0.1123 -0.2411 -0.1053
13244DDP     C279462  29.344   1.390  25.095  0.0301  0.0218  0.1126
13244DDP     C379463  30.019   1.764  23.762  0.0190  0.2722 -0.1371
13244DDP     C479464  30.228   1.867  24.714  0.1482  0.5151 -0.2088
13245DDP     C179465  20.025   0.703  15.760 -0.2840 -0.0666  0.0233
13245DDP     P179466  20.054   0.216  15.885 -0.0522  0.0707 -0.1038
13245DDP     P279467  19.767   0.949  15.506  0.0810 -0.0980 -0.0593
13245DDP     C279468  19.394   0.999  15.147 -0.1956 -0.0998 -0.0150
13245DDP     C379469  19.777  30.271  16.149  0.1879  0.1167 -0.0034
13245DDP     C479470  20.321   0.875  15.917  0.1969 -0.1285 -0.0762
13246DDP     C179471   5.321   1.301  24.156  0.2186 -0.0567 -0.1785
13246DDP     P179472   4.879   1.383  24.011 -0.1103 -0.0319 -0.0507
13246DDP     P279473   5.541   1.341  23.876 -0.0049 -0.0260  0.2555
13246DDP     C279474   5.976   1.117  23.680  0.2215  0.1331 -0.0278
13246DDP     C379475   4.440   1.234  23.969 -0.0117 -0.3520  0.1714
13246DDP     C479476   5.382   1.097  24.571 -0.1328 -0.0100 -0.2219
13247DDP     C179477   3.967   6.050  14.859  0.2550  0.0079 -0.1929
13247DDP     P179478   3.854   5.670  14.650  0.0297 -0.3481  0.1742
13247DDP     P279479   4.070   6.436  14.715 -0.0987  0.0816  0.5976
13247DDP     C279480   4.413   6.572  14.477 -0.0252  0.2496 -0.0173
13247DDP     C379481   3.853   5.359  14.310  0.1686  0.3278  0.1526
13247DDP     C479482   4.191   5.973  15.249 -0.2796 -0.0779 -0.0776
13248DDP     C179483  17.404  17.662  15.082 -0.2022 -0.2309 -0.0202
13248DDP     P179484  17.215  17.328  15.088 -0.0940  0.0440 -0.0534
13248DDP     P279485  17.501  17.751  14.627 -0.1879 -0.0026 -0.0524
13248DDP     C279486  17.151  17.879  14.409  0.3908 -0.1321 -0.0487
13248DDP     C379487  16.828  17.127  15.231 -0.0442 -0.4181 -0.0432
13248DDP     C479488  17.387  17.963  15.330  0.2632 -0.1413  0.0002
13249DDP     C179489  14.417  25.738  15.592 -0.1120  0.0337  0.0626
13249DDP     P179490  14.411  25.556  15.964 -0.1282  0.0361 -0.2325
13249DDP     P279491  14.546  26.172  15.532 -0.0205 -0.0753  0.0163
13249DDP     C279492  14.861  26.408  15.647  0.2472 -0.3421  0.0315
13249DDP     C379493  14.448  25.242  16.289  0.2011  0.5004 -0.1449
13249DDP     C479494  14.344  25.511  15.281 -0.1320 -0.0854  0.3455
13250DDP     C179495  29.073   5.289  22.504  0.1611 -0.0807 -0.1429
13250DDP     P179496  29.141   5.189  22.922 -0.1924  0.1731  0.1006
13250DDP     P279497  28.709   5.104  22.335 -0.3076 -0.0069  0.1034
13250DDP     C279498  28.775   4.753  21.997  0.1346  0.2009  0.0449
13250DDP     C379499  29.291   5.417  23.298  0.3682 -0.3684 -0.1450
13250DDP     C479500  29.351   5.513  22.271 -0.1721 -0.2569 -0.0367
13251DDP     C179501  16.522  26.268  10.729  0.2021 -0.0902 -0.1098
13251DDP     P179502  16.182  26.340  10.461 -0.2179 -0.1374  0.0192
13251DDP     P279503  16.699  26.527  10.953  0.3459 -0.6277 -0.0453
13251DDP     C279504  16.903  26.958  11.038  0.0697  0.0289 -0.6143
13251DDP     C379505  15.876  26.396  10.088  0.3695 -0.2381 -0.3445
13251DDP     C479506  16.620  25.821  10.822 -0.1872 -0.0097  0.0393
13252DDP     C179507   3.225  25.483   2.668 -0.2752 -0.0842 -0.0210
13252DDP     P179508   2.832  25.242   2.625 -0.0551 -0.0854  0.1185
13252DDP     P279509   3.284  25.562   2.204 -0.1713 -0.2147  0.3440
13252DDP     C279510   2.994  25.551   1.968  0.1693 -0.0981  0.2302
13252DDP     C379511   2.426  24.987   2.606  0.4495 -0.3928  0.2165
13252DDP     C479512   3.359  25.605   3.070  0.0980 -0.2824 -0.2425
13253DDP     C179513  23.450  18.847  29.811  0.1653  0.1859 -0.1538
13253DDP     P179514  23.736  19.167  29.819  0.0949 -0.3335  0.2148
13253DDP     P279515  23.780  18.529  29.781 -0.1324  0.1999 -0.1267
13253DDP     C279516  24.010  18.109  29.842  0.2795  0.0917 -0.0048
13253DDP     C379517  23.642  19.565  29.726 -0.0011 -0.0813 -0.0665
13253DDP     C479518  22.959  18.921  29.875 -0.0849  0.0432 -0.0769
13254DDP     C179519  29.944  26.248   0.948  0.2520  0.0462  0.0947
13254DDP     P179520   0.093  26.263   1.157  0.0935  0.0794  0.0006
13254DDP     P279521  29.872  25.907   0.685  0.0418  0.0921 -0.0480
13254DDP     C279522  29.678  25.492   0.520 -0.0626 -0.0553 -0.0305
13254DDP     C379523   0.468  26.065   1.431  0.4382  0.0245  0.1683
13254DDP     C479524  29.598  26.522   0.883  0.0705  0.2694  0.2861
13255DDP     C179525  21.169  17.328  12.436  0.2818 -0.1466  0.1416
13255DDP     P179526  21.077  17.726  12.228 -0.2084  0.0673 -0.0920
13255DDP     P279527  21.332  17.479  12.837 -0.0495 -0.0469 -0.2468
13255DDP     C279528  21.533  17.935  12.894 -0.2022 -0.2243 -0.1469
13255DDP     C379529  20.832  18.100  12.106  0.0787  0.2730 -0.0192
13255DDP     C479530  21.243  16.880  12.330 -0.0431  0.4648 -0.0604
13256DDP     C179531  26.569  12.201  14.159 -0.2020 -0.0759  0.0630
13256DDP     P179532  26.272  11.928  13.839 -0.0149  0.3362  0.3358
13256DDP     P279533  26.841  12.095  14.672  0.0576 -0.3507 -0.0074
13256DDP     C279534  27.046  12.432  14.930  0.1664 -0.0308  0.0359
13256DDP     C379535  25.875  11.821  13.584  0.0558 -0.0964  0.3178
13256DDP     C479536  26.614  12.574  14.083  0.1117 -0.4514  0.2400
13257DDP     C179537  22.055   3.354   8.933 -0.0560  0.0868 -0.2830
13257DDP     P179538  21.856   3.002   8.929 -0.0976  0.2401  0.0159
13257DDP     P279539  22.378   3.377   8.619  0.2102 -0.0820 -0.3455
13257DDP     C279540  22.564   3.545   8.296  0.0906  0.0188  0.0622
13257DDP     C379541  21.632   2.691   8.873 -0.0549 -0.0189  0.0252
13257DDP     C479542  21.961   3.736   9.295 -0.4516  0.1187  0.0081
13258DDP     C179543  18.564  12.670  18.089  0.2302  0.0033  0.1016
13258DDP     P179544  18.746  12.267  18.328  0.4418 -0.1060 -0.0843
13258DDP     P279545  19.010  12.834  17.800 -0.0500 -0.2107 -0.4551
13258DDP     C279546  19.474  12.748  17.753 -0.0081  0.1920  0.0780
13258DDP     C379547  18.993  11.881  18.436  0.1009  0.1415 -0.0107
13258DDP     C479548  18.079  12.824  18.243 -0.0051 -0.0133 -0.0317
13259DDP     C179549  24.845   2.290   0.996  0.1261 -0.2670  0.1024
13259DDP     P179550  24.749   2.378   0.614  0.0936  0.1496  0.3286
13259DDP     P279551  24.668   2.598   1.301 -0.0783 -0.0483 -0.2628
13259DDP     C279552  24.632   3.027   1.368  0.2393 -0.0888  0.0803
13259DDP     C379553  24.510   2.751   0.411  0.1261 -0.1373  0.2399
13259DDP     C479554  24.895   1.801   0.998  0.1008  0.1280 -0.0103
13260DDP     C179555  30.165  17.998   4.740  0.0340 -0.2075 -0.0476
13260DDP     P179556  30.164  18.204   4.309  0.1544  0.0079  0.0629
13260DDP     P279557  30.052  17.560   4.682 -0.0507 -0.1588  0.0040
13260DDP     C279558  29.669  17.603   4.440  0.0022 -0.0417  0.1900
13260DDP     C379559  29.919  18.449   4.045 -0.1273 -0.3195 -0.3010
13260DDP     C479560  30.240  18.037   5.105 -0.0835 -0.1478  0.0029
13261DDP     C179561  22.192  26.526  21.308 -0.1771 -0.0425 -0.0286
13261DDP     P179562  22.073  26.104  21.499 -0.2371  0.2370  0.3515
13261DDP     P279563  21.780  26.822  21.337  0.0522  0.0790  0.1729
13261DDP     C279564  21.439  27.072  21.007  0.1575 -0.1787 -0.1895
13261DDP     C379565  22.253  25.706  21.660  0.0058  0.2517  0.0673
13261DDP     C479566  22.502  26.620  20.999 -0.0061  0.0196  0.1317
13262DDP     C179567  16.497  17.923   7.446 -0.1355  0.1609 -0.2258
13262DDP     P179568  16.686  17.960   7.154  0.1136  0.0331  0.2734
13262DDP     P279569  16.573  17.531   7.458 -0.2356 -0.1472 -0.0520
13262DDP     C279570  16.951  17.556   7.677 -0.1987  0.1309 -0.2328
13262DDP     C379571  16.943  17.836   6.964  0.1442  0.0775  0.2038
13262DDP     C479572  16.307  18.188   7.673  0.0164  0.1386 -0.2888
13263DDP     C179573   2.614   2.274   2.842  0.0846 -0.0364 -0.0221
13263DDP     P179574   2.261   2.391   2.565 -0.1997 -0.0133  0.4243
13263DDP     P279575   2.645   1.895   2.931  0.0032  0.0527  0.2223
13263DDP     C279576   2.475   1.387   2.782 -0.1362  0.2652  0.0647
13263DDP     C379577   2.195   2.401   2.114 -0.1452 -0.1060 -0.0071
13263DDP     C479578   2.931   2.531   2.989  0.3559 -0.0991 -0.3090
13264DDP     C179579  17.122  21.775   7.513  0.2075  0.3368 -0.1355
13264DDP     P179580  16.656  21.862   7.555  0.1917 -0.1916 -0.1419
13264DDP     P279581  17.365  21.861   7.759  0.1993 -0.0306  0.0602
13264DDP     C279582  17.462  22.066   8.219  0.1340  0.0004 -0.1535
13264DDP     C379583  16.282  21.912   7.354 -0.1869 -0.0778 -0.1559
13264DDP     C479584  17.313  21.467   7.159  0.0337  0.1183 -0.1847
13265DDP     C179585   6.125  22.657   9.646 -0.2737 -0.1109 -0.2661
13265DDP     P179586   6.104  22.332   9.430  0.2138 -0.2313 -0.0597
13265DDP     P279587   5.708  22.987   9.615  0.0774 -0.0779  0.0972
13265DDP     C279588   5.548  23.262   9.925  0.2253  0.1192  0.2361
13265DDP     C379589   6.137  21.883   9.354  0.3235 -0.0918 -0.2731
13265DDP     C479590   6.146  22.371   9.945  0.0701  0.2659  0.0253
13266DDP     C179591   9.026   3.445  22.838 -0.1502 -0.0263 -0.3515
13266DDP     P179592   9.117   3.157  23.232  0.0287  0.2869  0.2306
13266DDP     P279593   9.488   3.636  22.790 -0.3196  0.1083 -0.3036
13266DDP     C279594   9.853   3.606  22.932 -0.1376  0.1722 -0.1926
13266DDP     C379595   9.325   3.066  23.603 -0.1298  0.0258 -0.1296
13266DDP     C479596   8.671   3.299  22.671 -0.0276 -0.1021  0.1881
13267DDP     C179597  26.987  27.863  28.318 -0.0899  0.1408  0.1261
13267DDP     P179598  26.555  27.756  28.260  0.0057 -0.0561 -0.0008
13267DDP     P279599  27.348  27.682  28.080  0.0705  0.1203  0.0849
13267DDP     C279600  27.804  27.583  28.297 -0.0809 -0.0494 -0.0363
13267DDP     C379601  26.228  27.649  28.530  0.0267 -0.0062 -0.0067
13267DDP     C479602  27.076  28.044  28.759  0.0683  0.0355 -0.1767
13268DDP     C179603   7.601   8.171   9.042  0.2808 -0.1198 -0.1894
13268DDP     P179604   7.998   8.424   8.930 -0.0293  0.0158  0.0222
13268DDP     P279605   7.195   8.392   9.137 -0.0683  0.1863  0.1267
13268DDP     C279606   6.891   8.651   9.351 -0.1419 -0.0636 -0.1711
13268DDP     C379607   8.277   8.626   8.499  0.0894  0.0483 -0.2796
13268DDP     C479608   7.659   7.764   9.023 -0.0863  0.0598 -0.2644
13269DDP     C179609  23.950  25.918  11.732  0.1800 -0.0979 -0.3482
13269DDP     P179610  23.500  25.920  11.412 -0.0836  0.3043 -0.1101
13269DDP     P279611  23.853  25.793  12.117 -0.1073  0.1847 -0.1938
13269DDP     C279612  23.521  25.698  12.392 -0.0030  0.3798 -0.2846
13269DDP     C379613  23.222  26.091  11.254 -0.2472  0.0245 -0.4296
13269DDP     C479614  24.302  25.796  11.708 -0.0327 -0.0206 -0.2901
13270DDP     C179615  28.718  17.224  13.298 -0.0816 -0.3953 -0.1195
13270DDP     P179616  28.583  17.548  13.611  0.0864 -0.0655  0.1482
13270DDP     P279617  28.605  16.789  13.410  0.1090  0.0057 -0.1206
13270DDP     C279618  28.701  16.347  13.418 -0.0856  0.1826  0.2810
13270DDP     C379619  28.378  17.798  14.047  0.0739 -0.0548 -0.1846
13270DDP     C479620  29.109  17.295  13.019 -0.0261  0.2077  0.0529
13271DDP     C179621  17.814  13.631   4.223  0.2864 -0.2148  0.0774
13271DDP     P179622  17.871  13.539   3.728 -0.1809 -0.0746 -0.1149
13271DDP     P279623  18.099  13.308   4.390  0.1245  0.1600  0.0699
13271DDP     C279624  18.449  13.223   4.677  0.2268 -0.1640 -0.0304
13271DDP     C379625  17.661  13.554   3.390  0.1815 -0.3595  0.0245
13271DDP     C479626  17.340  13.798   4.505  0.0121  0.0362 -0.0024
13272DDP     C179627  24.605  17.974  27.697 -0.0156 -0.1066  0.1169
13272DDP     P179628  24.265  17.732  27.613 -0.0444  0.0284  0.0288
13272DDP     P279629  24.515  18.406  27.554 -0.1926 -0.3439  0.1143
13272DDP     C279630  24.437  18.822  27.592 -0.2954 -0.0610 -0.0917
13272DDP     C379631  23.981  17.593  27.278  0.1901  0.0290 -0.0630
13272DDP     C479632  24.852  17.697  27.938 -0.0750 -0.1088 -0.1455
13273DDP     C179633  19.125  17.247  19.085  0.0393  0.0193  0.0178
13273DDP     P179634  19.036  17.561  19.448 -0.0021  0.3608  0.1893
13273DDP     P279635  19.265  17.317  18.705  0.3259  0.1261 -0.2087
13273DDP     C279636  19.651  17.491  18.571 -0.0030  0.0445 -0.0611
13273DDP     C379637  18.770  17.719  19.791 -0.2153  0.1593  0.0761
13273DDP     C479638  18.886  16.882  19.056 -0.0868  0.0737  0.1064
13274DDP     C179639   3.280  14.935  16.333 -0.1013 -0.0398 -0.1636
13274DDP     P179640   3.420  15.060  16.799 -0.0293  0.2789  0.1050
13274DDP     P279641   3.218  14.467  16.195  0.0419  0.2275 -0.0231
13274DDP     C279642   2.987  13.993  16.225  0.2069  0.2473  0.4681
13274DDP     C379643   3.785  15.186  17.082  0.1604  0.3071 -0.3589
13274DDP     C479644   3.311  15.310  16.166  0.1918  0.0395 -0.0514
13275DDP     C179645   6.708  25.048   3.762  0.1888 -0.1155  0.0854
13275DDP     P179646   7.100  25.256   3.846 -0.1836  0.0240  0.3523
13275DDP     P279647   6.617  24.936   3.248 -0.1678 -0.1503  0.2005
13275DDP     C279648   6.251  24.677   3.229  0.2623  0.0738 -0.1047
13275DDP     C379649   7.549  25.361   3.778  0.1287 -0.1932 -0.1342
13275DDP     C479650   6.370  24.840   4.071  0.2088  0.0602 -0.4355
13276DDP     C179651  25.610  22.389  24.700  0.2200 -0.1062  0.0694
13276DDP     P179652  25.779  22.540  24.296 -0.2432  0.0490  0.3465
13276DDP     P279653  25.943  22.456  25.181 -0.1038 -0.2159  0.0413
13276DDP     C279654  26.054  22.857  25.303 -0.2033  0.0280 -0.1751
13276DDP     C379655  25.954  22.522  23.969  0.1573 -0.1164  0.2061
13276DDP     C479656  25.202  22.123  24.613  0.2139  0.0420  0.2417
13277DDP     C179657  24.802   8.335   2.170 -0.1507 -0.0300  0.2616
13277DDP     P179658  24.443   8.241   2.023 -0.1447 -0.1370  0.1138
13277DDP     P279659  25.142   8.237   1.992  0.3858 -0.1921  0.1058
13277DDP     C279660  25.541   8.011   1.902 -0.1716  0.0401  0.3311
13277DDP     C379661  24.177   8.065   1.605  0.0101  0.2643 -0.1760
13277DDP     C479662  25.042   8.422   2.527 -0.1143 -0.0610  0.0319
13278DDP     C179663  18.152  29.037  21.689 -0.1673  0.1650 -0.0372
13278DDP     P179664  18.466  29.271  21.343 -0.0333 -0.0519 -0.3214
13278DDP     P279665  18.279  28.712  21.952  0.1906  0.0550 -0.0099
13278DDP     C279666  18.223  28.642  22.434  0.0404  0.1612 -0.1082
13278DDP     C379667  18.763  29.214  20.935  0.0350 -0.3606  0.0191
13278DDP     C479668  17.679  29.173  21.817  0.1490  0.0478 -0.0670
13279DDP     C179669  26.914  15.856   8.695 -0.4741 -0.0036 -0.1125
13279DDP     P179670  27.261  15.782   8.449 -0.2735  0.0223  0.1117
13279DDP     P279671  26.586  15.935   8.607  0.0870  0.0212 -0.0054
13279DDP     C279672  26.520  16.033   9.052 -0.0164 -0.0178 -0.0526
13279DDP     C379673  27.573  15.400   8.264  0.5253 -0.1681  0.0583
13279DDP     C479674  26.980  15.814   9.102 -0.0277 -0.0414  0.0143
13280DDP     C179675   5.751  12.779  17.285 -0.1571 -0.2513 -0.1019
13280DDP     P179676   6.012  12.957  16.873 -0.1973  0.0751  0.1540
13280DDP     P279677   5.346  12.716  17.137 -0.0415  0.2368  0.3479
13280DDP     C279678   4.975  12.642  17.118 -0.3755 -0.0814  0.0361
13280DDP     C379679   6.386  13.038  16.740 -0.2866  0.1100 -0.0061
13280DDP     C479680   5.932  12.494  17.516  0.0377 -0.1732  0.0006
13281DDP     C179681  25.921  27.245   4.357 -0.0493  0.2126 -0.0155
13281DDP     P179682  25.870  27.402   4.727  0.0163  0.2518 -0.0171
13281DDP     P279683  25.845  27.676   4.164 -0.0869 -0.2820  0.0325
13281DDP     C279684  25.869  28.043   4.315 -0.1290  0.1508 -0.0256
13281DDP     C379685  25.730  27.582   5.146 -0.3215  0.2079  0.4268
13281DDP     C479686  25.870  26.775   4.064  0.0679 -0.0308  0.1387
13282DDP     C179687   7.767  17.650   5.106 -0.0961  0.2512 -0.0282
13282DDP     P179688   8.084  18.008   4.874 -0.0559  0.0041 -0.0761
13282DDP     P279689   8.000  17.543   5.493  0.0358  0.0854 -0.1703
13282DDP     C279690   8.418  17.602   5.722 -0.0656  0.0717  0.4682
13282DDP     C379691   8.332  18.074   4.401  0.3721 -0.1783  0.0311
13282DDP     C479692   7.493  17.343   4.950 -0.0241  0.3612  0.2199
13283DDP     C179693  10.668  17.943  19.745  0.0315  0.3393  0.2456
13283DDP     P179694  10.803  17.546  19.570  0.0254  0.1028 -0.1842
13283DDP     P279695  10.528  17.748  20.129  0.1539  0.1575  0.1228
13283DDP     C279696  10.135  17.695  20.302 -0.1862  0.0841  0.1721
13283DDP     C379697  11.205  17.438  19.403  0.1077  0.0407 -0.1203
13283DDP     C479698  10.617  18.195  19.476  0.0133  0.1936 -0.2375
13284DDP     C179699   8.961  28.532   2.365 -0.0210 -0.0031 -0.0441
13284DDP     P179700   9.198  28.891   2.189 -0.0945  0.1565  0.0629
13284DDP     P279701   8.587  28.653   2.407 -0.1924  0.1023  0.0880
13284DDP     C279702   8.387  29.004   2.157  0.3951 -0.0226 -0.0439
13284DDP     C379703   9.320  29.308   1.971  0.2367  0.2669 -0.0961
13284DDP     C479704   9.144  28.096   2.677  0.1785 -0.2092  0.1007
13285DDP     C179705   8.600  26.425  29.063  0.2870 -0.0481  0.2042
13285DDP     P179706   8.336  26.623  28.892  0.0196 -0.1103  0.2497
13285DDP     P279707   8.825  26.602  29.407  0.2987  0.1868 -0.4032
13285DDP     C279708   8.550  26.886  29.638 -0.0438 -0.0529 -0.3221
13285DDP     C379709   7.900  26.828  28.956  0.2063  0.1754 -0.0535
13285DDP     C479710   8.573  26.001  29.066  0.1132  0.0558 -0.0244
13286DDP     C179711  11.140  28.874   4.071  0.1480  0.1132 -0.1964
13286DDP     P179712  11.525  29.015   4.273 -0.0967  0.4176  0.1509
13286DDP     P279713  10.746  28.719   4.368 -0.1451 -0.2944  0.1546
13286DDP     C279714  10.293  28.710   4.580 -0.0075  0.0512  0.3146
13286DDP     C379715  11.881  28.905   4.512 -0.0669 -0.1334 -0.5115
13286DDP     C479716  11.160  28.755   3.702 -0.0536  0.0324 -0.0535
13287DDP     C179717  17.051  28.903   2.337 -0.1101 -0.2660 -0.0736
13287DDP     P179718  17.221  28.679   1.971  0.3353  0.0767  0.3573
13287DDP     P279719  16.604  28.771   2.438 -0.1039  0.2005  0.0615
13287DDP     C279720  16.303  28.971   2.587  0.2581  0.2744 -0.0065
13287DDP     C379721  17.358  28.429   1.592  0.0583 -0.3029  0.0736
13287DDP     C479722  17.239  29.339   2.514 -0.0023 -0.0909 -0.3215
13288DDP     C179723   4.197  24.192   3.617 -0.1603 -0.0117  0.0478
13288DDP     P179724   4.359  23.843   3.681  0.1311  0.0388  0.3485
13288DDP     P279725   4.471  24.586   3.708 -0.1187  0.1612  0.1437
13288DDP     C279726   4.449  25.020   3.834 -0.0356 -0.0928 -0.1642
13288DDP     C379727   4.542  23.506   3.925 -0.0110  0.4402  0.0432
13288DDP     C479728   3.740  24.202   3.607  0.1250 -0.0276  0.0337
13289DDP     C179729  12.624  22.698   0.892 -0.4123  0.0940 -0.7277
13289DDP     P179730  12.261  22.999   1.014 -0.2345  0.2078 -0.0237
13289DDP     P279731  12.657  22.305   1.208  0.1865 -0.0062 -0.0581
13289DDP     C279732  12.506  21.866   1.386  0.2825 -0.2221 -0.1361
13289DDP     C379733  12.097  23.385   1.126 -0.0892  0.1170 -0.0410
13289DDP     C479734  12.749  22.631   0.492 -0.0701  0.0037  0.0696
13290DDP     C179735  22.023  10.592  12.085  0.1290 -0.2553 -0.1365
13290DDP     P179736  21.763  10.356  11.905 -0.0932 -0.1001  0.0579
13290DDP     P279737  22.222  10.923  11.837 -0.0200 -0.1884 -0.1301
13290DDP     C279738  22.488  11.221  11.803 -0.0780  0.0410 -0.0647
13290DDP     C379739  21.494  10.383  11.538  0.0928 -0.1781  0.3426
13290DDP     C479740  22.174  10.557  12.436  0.2069 -0.0750  0.0860
13291DDP     C179741   7.257  24.336  11.423 -0.1810 -0.0248  0.2375
13291DDP     P179742   7.205  24.514  11.751  0.2267  0.0211 -0.3033
13291DDP     P279743   6.978  24.497  11.030 -0.2501 -0.2301 -0.0440
13291DDP     C279744   6.926  24.549  10.641 -0.0005  0.0247  0.0184
13291DDP     C379745   6.802  24.683  11.857 -0.0157  0.0070 -0.3688
13291DDP     C479746   7.457  23.966  11.275  0.1551  0.0075 -0.0001
13292DDP     C179747  24.971   4.533  23.366  0.6072 -0.0708  0.1074
13292DDP     P179748  25.319   4.248  23.609 -0.1447  0.1298 -0.0424
13292DDP     P279749  24.566   4.661  23.505  0.2165  0.3131  0.0764
13292DDP     C279750  24.224   4.852  23.726 -0.0464  0.0243 -0.0453
13292DDP     C379751  25.712   4.332  23.828 -0.2378 -0.0277 -0.0616
13292DDP     C479752  25.016   4.638  22.955 -0.3316  0.1476 -0.0009
13293DDP     C179753  22.738  15.725   8.300  0.1460 -0.0611 -0.0005
13293DDP     P179754  22.998  15.824   8.023  0.2758  0.0486 -0.3804
13293DDP     P279755  22.568  15.326   8.193 -0.2456 -0.1604  0.0359
13293DDP     C279756  22.358  14.930   8.131  0.0844 -0.3648 -0.0053
13293DDP     C379757  23.175  15.714   7.626 -0.0621  0.0513  0.0114
13293DDP     C479758  22.583  15.926   8.701 -0.1322 -0.2796 -0.0641
13294DDP     C179759  13.337   2.527  25.638 -0.1839 -0.1675  0.2056
13294DDP     P179760  13.750   2.355  25.711  0.0751 -0.0040  0.0637
13294DDP     P279761  12.995   2.436  25.952 -0.0255 -0.3133 -0.1553
13294DDP     C279762  12.723   2.635  26.225  0.1591 -0.0684 -0.2764
13294DDP     C379763  14.085   2.086  25.780  0.3341  0.0436  0.0742
13294DDP     C479764  13.241   2.865  25.382  0.2866  0.2830  0.2615
13295DDP     C179765  12.313   1.156  12.789 -0.1647 -0.0632 -0.1009
13295DDP     P179766  12.529   0.801  12.749  0.2704 -0.1325 -0.0628
13295DDP     P279767  12.505   1.488  13.095  0.0456  0.0716  0.1035
13295DDP     C279768  12.746   1.813  13.267 -0.1027 -0.0172  0.2588
13295DDP     C379769  12.587   0.409  12.947  0.3484  0.2019 -0.1696
13295DDP     C479770  11.908   1.325  12.541 -0.0394  0.0234 -0.0493
13296DDP     C179771  14.638  15.523   1.578  0.1671 -0.2159 -0.1161
13296DDP     P179772  14.707  15.351   1.151  0.2131  0.0515 -0.0610
13296DDP     P279773  14.710  15.428   1.890  0.2353  0.0309  0.0788
13296DDP     C279774  15.107  15.294   1.970 -0.1585 -0.2398 -0.1153
13296DDP     C379775  14.401  15.366   0.924  0.1616 -0.0441  0.1471
13296DDP     C479776  14.610  15.926   1.571  0.2136  0.0769  0.2071
13297DDP     C179777   4.023  21.929  15.146  0.1327 -0.0308  0.1213
13297DDP     P179778   3.655  22.174  15.200  0.0964  0.0884 -0.0015
13297DDP     P279779   4.175  21.653  15.525  0.2580 -0.0606 -0.1721
13297DDP     C279780   4.125  21.482  15.940  0.0989 -0.1575 -0.1297
13297DDP     C379781   3.430  22.370  15.436  0.0694  0.2709  0.1959
13297DDP     C479782   4.061  21.799  14.655  0.1120 -0.0808 -0.0489
13298DDP     C179783   5.430   6.528   1.729 -0.1761  0.2227 -0.0032
13298DDP     P179784   5.294   6.571   1.378  0.1908  0.1077 -0.1790
13298DDP     P279785   5.424   6.218   1.925  0.2062 -0.1617  0.1384
13298DDP     C279786   5.382   5.875   2.234 -0.1115 -0.3858 -0.1982
13298DDP     C379787   5.073   6.284   1.182 -0.0416 -0.0386 -0.0732
13298DDP     C479788   5.733   6.630   1.541  0.0651 -0.0814  0.1499
13299DDP     C179789  13.706  27.824   6.094 -0.1304  0.1512  0.0692
13299DDP     P179790  13.408  27.810   5.907  0.1991 -0.1401 -0.1432
13299DDP     P279791  13.532  27.748   6.404  0.1184 -0.2201  0.2603
13299DDP     C279792  13.320  27.547   6.684  0.0093  0.1864 -0.1585
13299DDP     C379793  13.192  28.091   5.633 -0.2132 -0.0862  0.3167
13299DDP     C479794  14.132  27.626   6.084 -0.1635 -0.3766 -0.1145
13300DDP     C179795  29.706   7.418   3.805 -0.1708  0.0792  0.2432
13300DDP     P179796  29.717   7.219   4.193  0.0293 -0.2367 -0.0941
13300DDP     P279797  29.966   7.744   3.897  0.2202 -0.2343  0.0892
13300DDP     C279798  30.262   8.085   4.014 -0.0937  0.0639  0.0778
13300DDP     C379799  29.315   7.399   4.461  0.1151  0.0856 -0.1934
13300DDP     C479800  29.437   7.525   3.426 -0.1268  0.2507 -0.2053
13301DDP     C179801  21.124  14.805  18.064 -0.2158 -0.2861  0.2455
13301DDP     P179802  21.320  14.450  18.163 -0.0184 -0.3735 -0.1562
13301DDP     P279803  21.320  15.039  17.700  0.1671  0.1887  0.1611
13301DDP     C279804  21.570  14.981  17.389  0.1739 -0.1232 -0.0417
13301DDP     C379805  21.484  14.201  17.910  0.1092 -0.1002 -0.0031
13301DDP     C479806  21.102  15.196  18.363 -0.1105 -0.2560 -0.3042
13302DDP     C179807   0.512   6.792  22.303  0.0878 -0.1064 -0.2242
13302DDP     P179808   0.273   6.448  22.506  0.0792 -0.1604 -0.4974
13302DDP     P279809   0.808   6.696  22.041 -0.0883 -0.0435 -0.0372
13302DDP     C279810   1.184   6.614  21.762  0.2570 -0.0227 -0.0719
13302DDP     C379811   0.294   5.984  22.513  0.0898 -0.0937 -0.0913
13302DDP     C479812   0.392   7.166  22.348  0.3226  0.2033  0.0006
13303DDP     C179813   0.347   6.857  13.067  0.0837  0.0660 -0.2366
13303DDP     P179814   0.149   6.539  12.779 -0.0097  0.1032 -0.2552
13303DDP     P279815   0.113   7.188  13.279  0.0340  0.0527 -0.0593
13303DDP     C279816  -0.031   7.651  13.154 -0.1709  0.0496 -0.0242
13303DDP     C379817  30.124   6.530  12.600  0.1916 -0.1144 -0.1424
13303DDP     C479818   0.681   6.682  13.239 -0.3206 -0.1571 -0.2095
13304DDP     C179819   4.140  12.071  28.887  0.1623 -0.0610 -0.1775
13304DDP     P179820   3.921  12.235  28.473 -0.0702 -0.2465  0.1849
13304DDP     P279821   4.302  11.654  29.198 -0.0994  0.0583  0.1653
13304DDP     C279822   4.570  11.475  29.554 -0.3301 -0.2252 -0.0316
13304DDP     C379823   3.824  12.626  28.232  0.0048 -0.4551  0.0680
13304DDP     C479824   4.234  12.319  29.190  0.1840  0.3452 -0.1533
13305DDP     C179825  19.416  14.170   0.654  0.1281 -0.1932 -0.3469
13305DDP     P179826  19.062  14.039   0.977 -0.3235  0.2123  0.0534
13305DDP     P279827  19.501  14.503   0.273  0.1676  0.0029  0.2129
13305DDP     C279828  19.671  14.897   0.021 -0.3050 -0.1834 -0.0148
13305DDP     C379829  18.819  14.102   1.368  0.0109  0.2958  0.1158
13305DDP     C479830  19.891  14.071   0.773 -0.1644 -0.0210 -0.0800
13306DDP     C179831  21.037  23.624  18.775  0.1050  0.0221  0.0108
13306DDP     P179832  21.086  23.970  19.060  0.1474  0.0137 -0.0565
13306DDP     P279833  20.618  23.587  18.524 -0.0606  0.1029 -0.2583
13306DDP     C279834  20.475  23.282  18.330  0.1697 -0.1413 -0.0717
13306DDP     C379835  21.312  24.099  19.436  0.3148  0.0655 -0.2699
13306DDP     C479836  21.378  23.241  18.804  0.2844 -0.1547  0.1113
13307DDP     C179837   7.655   8.738  27.737  0.2984  0.2009 -0.1744
13307DDP     P179838   7.593   9.052  28.086  0.2558 -0.1504 -0.1266
13307DDP     P279839   8.017   8.407  28.019  0.0269  0.2722 -0.0968
13307DDP     C279840   8.141   8.070  28.187  0.1096 -0.0529 -0.2507
13307DDP     C379841   7.397   9.421  28.298  0.1165  0.0068  0.0698
13307DDP     C479842   7.286   8.683  27.430  0.2435  0.1861 -0.0910
13308DDP     C179843  13.276  30.202  20.483  0.0911 -0.0225  0.1257
13308DDP     P179844  13.449  30.194  20.107 -0.0171 -0.0870 -0.0164
13308DDP     P279845  12.914  29.900  20.631  0.3414 -0.1534  0.0880
13308DDP     C279846  12.766  29.332  20.594 -0.1594  0.1772  0.0757
13308DDP     C379847  13.481  30.267  19.687  0.0576  0.0392 -0.2723
13308DDP     C479848  13.185   0.302  20.662 -0.1502 -0.2644 -0.0078
13309DDP     C179849  18.111  12.631  10.582 -0.1126 -0.0398 -0.0153
13309DDP     P179850  17.754  12.871  10.709 -0.1691  0.1480 -0.1284
13309DDP     P279851  18.032  12.689  10.142  0.0248 -0.0528 -0.3312
13309DDP     C279852  17.854  12.953   9.931  0.1471  0.1536  0.1895
13309DDP     C379853  17.340  12.741  10.728  0.1425  0.2698  0.2507
13309DDP     C479854  18.318  12.306  10.749  0.0113 -0.2042 -0.0903
13310DDP     C179855   4.077  12.926  29.710  0.0517  0.1627 -0.1480
13310DDP     P179856   4.229  12.649  30.122 -0.0012 -0.0093 -0.2558
13310DDP     P279857   4.182  13.250  29.882 -0.0622 -0.0145 -0.2770
13310DDP     C279858   3.975  13.575  30.101  0.2541  0.1340 -0.0712
13310DDP     C379859   4.476  12.320  30.277 -0.1368  0.0113  0.1153
13310DDP     C479860   4.168  12.822  29.233  0.3070  0.0391  0.1667
13311DDP     C179861  27.300  30.091  14.004 -0.0694 -0.1852 -0.0245
13311DDP     P179862  27.316   0.206  13.992 -0.2989 -0.0184 -0.3835
13311DDP     P279863  27.587  29.924  14.251 -0.0021  0.1149  0.1402
13311DDP     C279864  27.913  29.705  14.443 -0.1966  0.0513  0.1152
13311DDP     C379865  27.562   0.385  13.744  0.0357  0.1180  0.2679
13311DDP     C479866  26.985  29.787  13.822  0.3947  0.2059  0.0835
13312DDP     C179867   6.667  12.932  28.607 -0.1994  0.1467 -0.2427
13312DDP     P179868   6.323  13.137  28.629 -0.0414  0.0068  0.0729
13312DDP     P279869   6.652  12.539  28.442 -0.5277 -0.3655 -0.1392
13312DDP     C279870   6.406  12.194  28.530  0.2643 -0.3459 -0.0480
13312DDP     C379871   5.920  13.382  28.751 -0.1215 -0.0688  0.0675
13312DDP     C479872   6.876  12.938  29.021 -0.3220 -0.3649 -0.1839
13313DDP     C179873   8.253   9.713  27.928 -0.0227  0.0040 -0.1872
13313DDP     P179874   8.296   9.205  28.069  0.0121  0.0704 -0.2962
13313DDP     P279875   8.626  10.010  28.116 -0.2854 -0.3690 -0.0308
13313DDP     C279876   8.880  10.270  28.493  0.2535 -0.1483 -0.1934
13313DDP     C379877   8.148   8.831  28.133 -0.5949 -0.0934  0.0129
13313DDP     C479878   7.926   9.730  27.625 -0.0202 -0.1504  0.1328
13314DDP     C179879  19.417  13.626  12.933 -0.0950  0.3068 -0.1606
13314DDP     P179880  19.531  13.699  12.506  0.0218 -0.2141  0.1219
13314DDP     P279881  19.729  13.783  13.285 -0.0653  0.3539 -0.3837
13314DDP     C279882  20.048  14.033  13.412 -0.1386 -0.1651  0.2320
13314DDP     C379883  19.770  14.069  12.333  0.3491  0.6716 -0.1497
13314DDP     C479884  18.960  13.493  12.954 -0.2763 -0.2361  0.0297
13315DDP     C179885  20.240  26.354  21.613 -0.1232 -0.0359 -0.1206
13315DDP     P179886  19.814  26.082  21.678  0.0868 -0.0090  0.0236
13315DDP     P279887  20.372  26.542  21.913 -0.3511 -0.0753  0.0805
13315DDP     C279888  20.115  26.802  22.232  0.1323 -0.0403  0.1579
13315DDP     C379889  19.524  25.906  21.440  0.0907  0.1792  0.0714
13315DDP     C479890  20.363  26.332  21.089  0.2705 -0.2957  0.1651
13316DDP     C179891  14.442  25.630   7.797 -0.1541 -0.0778 -0.1786
13316DDP     P179892  14.164  26.011   7.929  0.1011  0.1626  0.0507
13316DDP     P279893  14.954  25.568   7.897 -0.2023 -0.0731 -0.1323
13316DDP     C279894  15.166  25.526   8.162 -0.0793  0.2901 -0.3845
13316DDP     C379895  13.944  26.114   8.237 -0.2592  0.0615 -0.0835
13316DDP     C479896  14.239  25.222   7.794  0.1229  0.1992  0.1263
13317DDP     C179897  19.663  21.958  24.859  0.1112  0.0654 -0.1405
13317DDP     P179898  19.650  22.381  24.926 -0.0210  0.2105  0.2162
13317DDP     P279899  19.859  21.735  25.070  0.3356 -0.0111 -0.0356
13317DDP     C279900  20.211  21.387  25.232  0.2157  0.1451 -0.0975
13317DDP     C379901  19.939  22.637  24.880 -0.1721  0.3472 -0.0401
13317DDP     C479902  19.425  21.775  24.436 -0.1259 -0.2507 -0.2170
13318DDP     C179903   4.073  14.728  20.530 -0.0052 -0.1420  0.0245
13318DDP     P179904   3.900  15.034  20.849  0.1164  0.1029 -0.1149
13318DDP     P279905   4.397  14.945  20.238  0.1914  0.2486 -0.3870
13318DDP     C279906   4.798  14.945  20.263 -0.1671 -0.0209 -0.1868
13318DDP     C379907   3.768  15.314  21.203 -0.3080  0.2478  0.0478
13318DDP     C479908   4.050  14.243  20.488  0.1885 -0.3271  0.1550
13319DDP     C179909   3.283  16.905   6.679 -0.0433 -0.1370  0.0034
13319DDP     P179910   3.650  16.830   6.832  0.2188  0.0073  0.1801
13319DDP     P279911   3.228  16.981   6.159  0.2202 -0.2679 -0.0823
13319DDP     C279912   3.423  17.240   5.930 -0.1269 -0.1180 -0.0944
13319DDP     C379913   4.135  16.967   6.883  0.2564 -0.1163  0.1944
13319DDP     C479914   3.109  16.984   7.094  0.1488  0.1966  0.2486
13320DDP     C179915   9.798   4.807   6.480 -0.2253 -0.0390 -0.0710
13320DDP     P179916   9.939   4.576   6.088 -0.1657 -0.0653  0.1397
13320DDP     P279917  10.033   5.148   6.548 -0.0581  0.3063  0.1421
13320DDP     C279918  10.212   5.453   6.959 -0.4227  0.1923 -0.1084
13320DDP     C379919  10.005   4.512   5.662 -0.0741 -0.0928  0.0414
13320DDP     C479920   9.532   4.608   6.676 -0.0263  0.2633  0.0195
13321DDP     C179921  10.566  11.289  15.283 -0.0674  0.0532 -0.4756
13321DDP     P179922  10.536  11.261  14.797  0.0254 -0.0774  0.1491
13321DDP     P279923  10.695  11.022  15.632  0.1753  0.0809  0.1630
13321DDP     C279924  10.930  11.115  15.895 -0.2377  0.1052 -0.2592
13321DDP     C379925  10.377  10.905  14.583  0.3696 -0.1087  0.2666
13321DDP     C479926  10.556  11.834  15.313 -0.1391 -0.0117  0.0770
13322DDP     C179927  26.578  14.772  10.989 -0.2327  0.1792 -0.1220
13322DDP     P179928  26.275  14.730  10.645 -0.0110 -0.0168 -0.0875
13322DDP     P279929  26.752  15.199  10.926  0.0400 -0.0375  0.2631
13322DDP     C279930  27.201  15.300  10.830 -0.1241  0.0581  0.1569
13322DDP     C379931  26.122  14.923  10.204 -0.2593 -0.0651  0.0979
13322DDP     C479932  26.734  14.403  11.294 -0.0305 -0.1466 -0.1550
13323DDP     C179933  21.865   0.819  14.318  0.0036  0.1688  0.1895
13323DDP     P179934  22.282   0.923  14.431 -0.3612 -0.1142  0.1610
13323DDP     P279935  21.939   0.556  14.045  0.1225 -0.1741  0.1626
13323DDP     C279936  22.037   0.319  13.664  0.1915 -0.2462 -0.0175
13323DDP     C379937  22.717   0.981  14.379 -0.0231 -0.0885 -0.0516
13323DDP     C479938  21.589   1.109  14.159 -0.2514  0.1833 -0.0371
13324DDP     C179939  10.787   8.475  28.319  0.0038  0.1348 -0.0324
13324DDP     P179940  11.125   8.883  28.354  0.1966  0.2036  0.1027
13324DDP     P279941  10.671   8.332  27.911 -0.1835 -0.0475 -0.1405
13324DDP     C279942  10.804   8.121  27.484 -0.0588 -0.0290 -0.0382
13324DDP     C379943  11.283   9.141  28.554 -0.4476 -0.0237  0.0162
13324DDP     C479944  10.580   8.317  28.711  0.0803  0.2101  0.3052
13325DDP     C179945  27.166  25.330   9.453  0.2662  0.0358 -0.0788
13325DDP     P179946  27.506  25.085   9.437  0.0345  0.2121  0.0312
13325DDP     P279947  26.876  25.282   9.711  0.0418  0.1286 -0.0265
13325DDP     C279948  26.555  25.617   9.805 -0.1074 -0.0378 -0.2918
13325DDP     C379949  27.925  25.229   9.289 -0.1614  0.1164  0.1564
13325DDP     C479950  27.051  25.636   9.174  0.2607  0.1373 -0.0013
13326DDP     C179951   8.690  23.305  22.399  0.2080  0.1396 -0.1638
13326DDP     P179952   8.737  23.561  22.025  0.0731  0.3435 -0.1071
13326DDP     P279953   8.352  23.145  22.398  0.1453 -0.0632  0.0326
13326DDP     C279954   8.093  22.786  22.433  0.1307 -0.4686 -0.1104
13326DDP     C379955   8.623  24.017  21.794  0.2645 -0.3673  0.1109
13326DDP     C479956   9.005  23.406  22.713  0.0725 -0.1372 -0.2489
13327DDP     C179957  23.756  16.898   9.112  0.0674 -0.2391  0.0329
13327DDP     P179958  24.060  17.066   8.838 -0.0500  0.0177 -0.0532
13327DDP     P279959  23.327  16.988   8.837  0.2270 -0.1209 -0.2711
13327DDP     C279960  22.905  17.141   8.710  0.2430 -0.3615 -0.1051
13327DDP     C379961  24.032  16.921   8.461 -0.0355  0.0557  0.5950
13327DDP     C479962  23.884  16.784   9.574  0.0833 -0.1175 -0.0918
13328DDP     C179963  25.314   6.771  26.568  0.3063 -0.0021 -0.2292
13328DDP     P179964  25.722   6.591  26.576 -0.0283  0.0202  0.0982
13328DDP     P279965  25.030   6.854  26.967  0.3187 -0.1499 -0.1267
13328DDP     C279966  25.140   6.695  27.354 -0.1320 -0.0070  0.0991
13328DDP     C379967  26.154   6.432  26.495 -0.0235 -0.1124  0.1265
13328DDP     C479968  25.258   7.141  26.247  0.1768 -0.1476  0.2521
13329DDP     C179969  21.533  11.522  14.709  0.2056 -0.1329  0.0994
13329DDP     P179970  21.806  11.162  14.602  0.0194 -0.1441 -0.1812
13329DDP     P279971  21.062  11.451  14.731  0.0974 -0.1355 -0.0582
13329DDP     C279972  20.600  11.340  14.783 -0.1484 -0.0178  0.0542
13329DDP     C379973  21.828  11.157  14.183 -0.1670  0.2320  0.3173
13329DDP     C479974  21.475  12.059  14.592  0.1052  0.0246 -0.1160
13330DDP     C179975   0.621  14.922   3.399  0.2851  0.3211 -0.2160
13330DDP     P179976   0.898  14.621   3.204 -0.0260 -0.4493 -0.1003
13330DDP     P279977   0.496  15.008   3.833  0.1526  0.0801 -0.1401
13330DDP     C279978   0.519  15.264   4.231  0.1617 -0.1307 -0.1411
13330DDP     C379979   1.277  14.515   3.228 -0.0759 -0.0851 -0.1110
13330DDP     C479980   0.517  15.182   3.130 -0.1290 -0.0150 -0.0323
13331DDP     C179981  23.210   7.040  12.904 -0.0729  0.0241 -0.0513
13331DDP     P179982  22.909   7.295  12.632  0.0115  0.0994 -0.4291
13331DDP     P279983  23.555   7.005  12.634 -0.0133 -0.0829  0.1665
13331DDP     C279984  23.926   6.761  12.521  0.0656  0.0188  0.1316
13331DDP     C379985  22.887   7.401  12.273 -0.2965  0.1239  0.2379
13331DDP     C479986  23.177   6.805  13.312  0.1135  0.1032 -0.0289
13332DDP     C179987  25.285  19.941  14.888 -0.1703  0.2511 -0.2286
13332DDP     P179988  25.658  20.209  14.971 -0.1484  0.3255 -0.1786
13332DDP     P279989  24.997  20.236  14.787  0.1569 -0.0613 -0.2311
13332DDP     C279990  24.578  20.338  15.012 -0.1122  0.0900 -0.5671
13332DDP     C379991  26.106  20.319  14.741 -0.1182 -0.1838 -0.2073
13332DDP     C479992  25.217  19.463  14.764  0.0158  0.0731  0.1818
13333DDP     C179993  20.987  13.351  14.962  0.1148  0.3511 -0.2706
13333DDP     P179994  21.416  13.341  15.096 -0.1871 -0.0113  0.1518
13333DDP     P279995  20.941  13.070  14.608 -0.2184  0.1518 -0.4953
13333DDP     C279996  20.867  12.737  14.408 -0.1495 -0.1251  0.1867
13333DDP     C379997  21.844  13.217  15.289  0.0835 -0.2736  0.0254
13333DDP     C479998  20.615  13.614  15.205  0.0756  0.1205  0.0738
13334DDP     C179999   2.564   8.093  18.310  0.0313 -0.1869 -0.2929
13334DDP     P180000   2.074   7.983  18.345 -0.1889  0.3301  0.1144
13334DDP     P280001   2.827   8.265  18.607 -0.3839 -0.0616  0.0238
13334DDP     C280002   3.262   8.365  18.768  0.0264  0.1247  0.2272
13334DDP     C380003   1.733   7.911  18.581 -0.1575  0.1743 -0.0029
13334DDP     C480004   2.870   7.800  18.101  0.1801  0.0907 -0.0395
13335DDP     C180005   1.768   7.796  22.574 -0.2224 -0.2091  0.0846
13335DDP     P180006   1.584   8.188  22.549 -0.1355  0.0146  0.0904
13335DDP     P280007   1.734   7.722  22.080  0.0940  0.1823 -0.1843
13335DDP     C280008   1.740   7.945  21.691  0.0938  0.2687 -0.0027
13335DDP     C380009   1.420   8.514  22.193  0.0235 -0.0705  0.0304
13335DDP     C480010   1.759   7.540  22.955 -0.0127  0.1492 -0.0316
13336DDP     C180011  30.005  20.121  17.648  0.1446  0.0741  0.0367
13336DDP     P180012  29.822  19.951  17.952 -0.1613  0.1353  0.1351
13336DDP     P280013  30.203  20.516  17.730  0.1562 -0.4313  0.0873
13336DDP     C280014  30.339  20.850  17.480  0.2841 -0.3061  0.1449
13336DDP     C380015  29.800  19.637  18.221  0.1746 -0.0097 -0.0972
13336DDP     C480016  29.712  20.077  17.166 -0.0675 -0.1935  0.0837
13337DDP     C180017  18.374  13.964   1.629  0.2491 -0.0187 -0.0070
13337DDP     P180018  18.173  13.749   1.935  0.1952 -0.0695  0.1969
13337DDP     P280019  18.517  13.797   1.144  0.0200  0.1438  0.0145
13337DDP     C280020  18.700  13.892   0.721  0.0415 -0.0664 -0.1714
13337DDP     C380021  18.010  13.409   2.255  0.2341 -0.1428  0.0784
13337DDP     C480022  18.559  14.337   1.731  0.2754 -0.2190 -0.0209
13338DDP     C180023   7.241  23.458  18.720 -0.0530 -0.1863 -0.0873
13338DDP     P180024   7.231  23.365  19.184 -0.0076 -0.0284  0.1045
13338DDP     P280025   6.988  23.375  18.399 -0.1167  0.1795 -0.0399
13338DDP     C280026   6.881  22.848  18.418 -0.1749  0.1927 -0.1416
13338DDP     C380027   7.308  22.947  19.397 -0.1094  0.0828  0.1411
13338DDP     C480028   7.694  23.537  18.563 -0.2637  0.1093  0.0205
13339DDP     C180029  25.570   9.501   6.060 -0.2031 -0.0011  0.0923
13339DDP     P180030  25.231   9.244   6.238 -0.0813  0.2577  0.2148
13339DDP     P280031  25.484   9.839   5.763  0.2418 -0.1177  0.1162
13339DDP     C280032  25.721   9.953   5.355  0.1517  0.1166  0.2022
13339DDP     C380033  25.104   8.811   6.234 -0.0020 -0.2707 -0.0079
13339DDP     C480034  25.955   9.353   6.298 -0.2636 -0.1245  0.0560
13340DDP     C180035   9.196  11.414  24.604  0.0220  0.0169  0.2587
13340DDP     P180036   9.286  11.117  24.265 -0.0591 -0.0569  0.1532
13340DDP     P280037   9.118  11.266  25.046  0.1374  0.3672 -0.3748
13340DDP     C280038   9.217  10.782  25.299  0.2063  0.1829 -0.0143
13340DDP     C380039   9.310  11.022  23.811 -0.1331  0.0948 -0.3558
13340DDP     C480040   9.109  11.887  24.609 -0.2852 -0.0531  0.0924
13341DDP     C180041   0.635  17.398  15.376 -0.1136  0.0263 -0.0282
13341DDP     P180042   0.546  17.148  15.724 -0.2424 -0.0612  0.1053
13341DDP     P280043   0.606  17.161  14.968 -0.3227 -0.0810 -0.0884
13341DDP     C280044   0.638  17.045  14.536  0.1895  0.1401  0.0087
13341DDP     C380045   0.066  17.036  15.833  0.2383 -0.0173 -0.0751
13341DDP     C480046   0.835  17.650  15.590  0.0748 -0.0730 -0.1235
13342DDP     C180047  19.065   8.339  12.880  0.1011 -0.0590 -0.1215
13342DDP     P180048  18.743   8.546  13.127  0.0587 -0.0890  0.2049
13342DDP     P280049  19.140   8.377  12.459  0.1508 -0.0562  0.2178
13342DDP     C280050  19.208   8.574  12.059  0.1235  0.0822  0.0753
13342DDP     C380051  18.383   8.815  13.207 -0.0694  0.0817  0.1288
13342DDP     C480052  19.299   8.001  12.986 -0.3466  0.1117 -0.0939
13343DDP     C180053   0.616  20.594  12.308  0.0807 -0.0842 -0.0144
13343DDP     P180054   1.038  20.458  12.326  0.1688  0.1914  0.2439
13343DDP     P280055   0.535  20.904  12.636  0.0562  0.0867  0.3558
13343DDP     C280056   0.560  21.117  13.051 -0.0123 -0.0350  0.0791
13343DDP     C380057   1.408  20.414  12.037 -0.0192 -0.1940  0.0909
13343DDP     C480058   0.209  20.347  12.183 -0.1245  0.2816 -0.1240
13344DDP     C180059  12.986  15.750   5.946 -0.2598 -0.2453 -0.3647
13344DDP     P180060  13.378  15.595   5.941  0.2192  0.2712  0.0325
13344DDP     P280061  12.633  15.634   5.669  0.3372  0.0146  0.3448
13344DDP     C280062  12.531  15.440   5.184 -0.1945  0.1986 -0.2868
13344DDP     C380063  13.664  15.401   5.630 -0.2637  0.3298 -0.0673
13344DDP     C480064  13.113  16.164   6.016  0.3098  0.1911 -0.2974
13345DDP     C180065   1.385  17.065  10.656 -0.1443  0.1277 -0.0356
13345DDP     P180066   1.748  16.817  10.487 -0.2735 -0.2215 -0.0646
13345DDP     P280067   0.913  16.975  10.636  0.1508  0.1177 -0.0828
13345DDP     C280068   0.503  16.905  10.516 -0.0380  0.1367 -0.1196
13345DDP     C380069   1.886  16.845  10.054 -0.0040 -0.2456 -0.0243
13345DDP     C480070   1.396  17.500  10.880  0.1572 -0.1636  0.0190
13346DDP     C180071   5.104  13.199  15.449 -0.0545  0.0837  0.1087
13346DDP     P180072   5.555  13.344  15.291  0.1848 -0.0061  0.1881
13346DDP     P280073   5.147  13.248  15.958 -0.0864  0.0283 -0.0252
13346DDP     C280074   5.134  12.992  16.265  0.0954 -0.1682 -0.1174
13346DDP     C380075   5.768  13.769  15.262 -0.1508  0.1649 -0.0516
13346DDP     C480076   4.651  13.224  15.152  0.0177  0.0039  0.0045
13347DDP     C180077   6.640   8.050   5.590  0.3784  0.1185 -0.0227
13347DDP     P180078   6.238   8.038   5.742 -0.1609 -0.0753 -0.1270
13347DDP     P280079   6.627   8.109   5.066  0.2356 -0.1768 -0.1598
13347DDP     C280080   6.402   7.944   4.755  0.2747 -0.1431  0.0300
13347DDP     C380081   5.903   7.636   5.785  0.1506 -0.0723 -0.3405
13347DDP     C480082   7.042   8.227   5.688 -0.0659  0.0572  0.0248
13348DDP     C180083  19.752  12.348  18.964 -0.0499 -0.2250 -0.2991
13348DDP     P180084  20.005  12.669  18.786 -0.0175 -0.4373 -0.1874
13348DDP     P280085  19.591  12.419  19.397 -0.1540 -0.2615 -0.0800
13348DDP     C280086  19.206  12.530  19.684 -0.4282 -0.1741 -0.2269
13348DDP     C380087  19.834  12.987  18.515 -0.2562  0.0442  0.1277
13348DDP     C480088  19.828  11.973  18.795  0.0670  0.0328  0.1277
13349DDP     C180089  14.818  18.556  23.422  0.0308 -0.2148  0.0872
13349DDP     P180090  14.445  18.501  23.157  0.0601 -0.0737  0.1456
13349DDP     P280091  15.021  18.142  23.539 -0.4121  0.0444 -0.1681
13349DDP     C280092  15.324  17.754  23.706 -0.1787 -0.1873 -0.0461
13349DDP     C380093  14.072  18.258  23.220  0.0504 -0.1848 -0.2787
13349DDP     C480094  14.988  18.943  23.598 -0.3239  0.2836 -0.0031
13350DDP     C180095  21.409   3.725  28.188  0.0744 -0.2886 -0.0952
13350DDP     P180096  20.999   3.566  28.016  0.0898  0.2950 -0.2306
13350DDP     P280097  21.669   3.529  27.846 -0.0936  0.1099  0.2436
13350DDP     C280098  21.558   3.331  27.505 -0.1043  0.1855 -0.0147
13350DDP     C380099  20.615   3.289  27.849  0.1277  0.2950 -0.0245
13350DDP     C480100  21.619   3.733  28.530  0.0129 -0.1039  0.1424
13351DDP     C180101  12.911  17.867   2.860 -0.0452  0.0250 -0.2953
13351DDP     P180102  13.124  17.727   3.242  0.0748  0.3833  0.0918
13351DDP     P280103  12.498  17.731   2.705 -0.0920  0.2588 -0.0634
13351DDP     C280104  12.035  17.884   2.696  0.1696 -0.1034  0.1191
13351DDP     C380105  13.102  17.396   3.568 -0.1505 -0.3659 -0.3645
13351DDP     C480106  13.181  18.153   2.597 -0.0093 -0.2379  0.0702
13352DDP     C180107  21.323  12.463   9.226  0.1358  0.2736 -0.1520
13352DDP     P180108  21.627  12.473   8.897  0.0591 -0.0944 -0.2406
13352DDP     P280109  21.020  12.849   9.189  0.1867 -0.0391  0.2876
13352DDP     C280110  21.037  13.280   9.099 -0.0258 -0.1554  0.1291
13352DDP     C380111  21.986  12.256   8.626  0.0976  0.0172  0.0708
13352DDP     C480112  21.168  12.051   9.542 -0.3065  0.0476  0.2273
13353DDP     C180113  23.224  24.799  25.772  0.2249 -0.0518  0.5043
13353DDP     P180114  23.404  24.481  26.069 -0.2182 -0.2082 -0.0870
13353DDP     P280115  22.911  24.875  25.975 -0.1474 -0.0866  0.1964
13353DDP     C280116  23.057  24.872  26.361  0.1276 -0.3396  0.2870
13353DDP     C380117  23.346  24.353  26.439  0.1346  0.1540 -0.3116
13353DDP     C480118  23.220  25.015  25.409  0.0083  0.1089 -0.1338
13354DDP     C180119  24.516  11.708  22.692 -0.5932  0.0452  0.0578
13354DDP     P180120  24.617  11.323  22.590  0.0243  0.2998  0.0044
13354DDP     P280121  24.214  11.723  22.970  0.4024  0.1637 -0.2710
13354DDP     C280122  23.837  11.858  23.052 -0.2534  0.3370  0.0068
13354DDP     C380123  24.656  10.863  22.367 -0.2240  0.1219 -0.1719
13354DDP     C480124  24.719  12.111  22.674  0.1213  0.0656 -0.2178
13355DDP     C180125   0.678  25.889   3.098 -0.0940  0.2814 -0.0282
13355DDP     P180126   0.539  25.885   3.548 -0.0022  0.1170  0.0769
13355DDP     P280127   1.170  25.948   2.947 -0.1355  0.0417 -0.2350
13355DDP     C280128   1.571  25.763   2.793  0.3170  0.4015  0.1119
13355DDP     C380129   0.322  26.056   3.935  0.1676 -0.0847 -0.1387
13355DDP     C480130   0.385  26.183   2.836 -0.3447  0.2575  0.0900
13356DDP     C180131  12.199  18.475   4.630 -0.0609  0.4920 -0.0729
13356DDP     P180132  12.425  18.709   4.874  0.1061 -0.4663 -0.0582
13356DDP     P280133  11.736  18.401   4.726 -0.1222  0.1230 -0.2643
13356DDP     C280134  11.428  18.393   5.049  0.0124 -0.0479  0.1713
13356DDP     C380135  12.439  18.748   5.366  0.0285  0.2063 -0.0876
13356DDP     C480136  12.237  18.296   4.160  0.0502  0.1838  0.2724
13357DDP     C180137  10.067  18.040  23.207  0.2757  0.0666 -0.3359
13357DDP     P180138  10.100  17.622  23.437 -0.0756  0.1164 -0.2176
13357DDP     P280139  10.145  17.952  22.679  0.1041 -0.1353  0.2172
13357DDP     C280140  10.281  18.210  22.385 -0.2816 -0.2811  0.1410
13357DDP     C380141   9.909  17.240  23.361 -0.2400  0.2659 -0.0988
13357DDP     C480142  10.124  18.489  23.299 -0.0762 -0.2003 -0.2116
13358DDP     C180143  21.150   1.170  16.637  0.2148 -0.1688 -0.0431
13358DDP     P180144  21.354   1.584  16.535 -0.2056  0.3573 -0.1475
13358DDP     P280145  21.240   1.215  16.982  0.1764  0.1567  0.1737
13358DDP     C280146  20.858   1.176  17.272  0.2207 -0.0805  0.1371
13358DDP     C380147  21.482   1.991  16.407 -0.0107  0.3091 -0.3262
13358DDP     C480148  20.965   0.856  16.331  0.2182  0.1764  0.3329
13359DDP     C180149  28.489   6.417  28.784 -0.2167  0.0590 -0.0214
13359DDP     P180150  28.163   6.158  28.662 -0.0283  0.5014  0.0037
13359DDP     P280151  28.321   6.831  28.690  0.3300 -0.0491 -0.0045
13359DDP     C280152  28.359   7.183  28.480 -0.0423 -0.0855 -0.3079
13359DDP     C380153  27.784   5.840  28.896  0.0938 -0.0023  0.2525
13359DDP     C480154  28.907   6.464  28.749 -0.0792 -0.0626 -0.3168
13360DDP     C180155  17.139  17.282  20.229 -0.0261 -0.0515 -0.1524
13360DDP     P180156  17.564  17.108  19.900 -0.1365 -0.4704  0.1106
13360DDP     P280157  17.255  17.547  20.450  0.0680 -0.1647 -0.3034
13360DDP     C280158  17.560  17.780  20.732 -0.0100  0.0169 -0.1372
13360DDP     C380159  17.770  16.668  19.891 -0.0703 -0.0906 -0.2167
13360DDP     C480160  17.025  16.841  20.367  0.2068  0.1717  0.0495
13361DDP     C180161   9.784  21.641  23.177 -0.1483  0.1164  0.2258
13361DDP     P180162   9.440  21.315  23.115  0.3359 -0.0917 -0.2764
13361DDP     P280163   9.833  22.004  22.934  0.0956  0.0691  0.0532
13361DDP     C280164   9.841  22.365  23.065  0.3783 -0.1821 -0.1460
13361DDP     C380165   9.304  20.960  22.905 -0.0316 -0.3642  0.2893
13361DDP     C480166   9.824  21.629  23.695 -0.4715  0.0238  0.2302
13362DDP     C180167   9.571  12.588   9.454 -0.1794  0.1094  0.1723
13362DDP     P180168   9.092  12.699   9.697  0.0643 -0.0163  0.2324
13362DDP     P280169   9.508  12.368   9.075 -0.0815  0.0183 -0.3089
13362DDP     C280170   9.270  12.389   8.752  0.3672 -0.1269  0.0368
13362DDP     C380171   8.574  12.795   9.788  0.0707 -0.0962  0.4101
13362DDP     C480172   9.781  12.948   9.650 -0.3029 -0.0546  0.2067
13363DDP     C180173  28.199  23.023  10.386 -0.0346 -0.1565 -0.1987
13363DDP     P180174  27.900  23.058  10.725  0.0368 -0.0844  0.0370
13363DDP     P280175  27.956  22.830  10.040  0.0387 -0.1259  0.1906
13363DDP     C280176  27.608  22.483  10.047  0.1131 -0.4601  0.0262
13363DDP     C380177  27.779  22.691  11.096 -0.1230 -0.0258  0.3940
13363DDP     C480178  28.708  23.159  10.220  0.0903  0.1493 -0.0756
13364DDP     C180179   4.339  16.818   0.668  0.2395  0.1556 -0.1479
13364DDP     P180180   4.237  16.964   0.300  0.0396  0.1300  0.1997
13364DDP     P280181   4.428  17.121   0.880 -0.1898  0.0511  0.2702
13364DDP     C280182   4.381  17.624   0.808 -0.1417  0.3222  0.0969
13364DDP     C380183   3.846  16.830   0.038 -0.0523 -0.0247 -0.1222
13364DDP     C480184   4.499  16.335   0.689 -0.0328 -0.2764 -0.2048
13365DDP     C180185  12.621  11.728  13.109 -0.2468 -0.2559 -0.4409
13365DDP     P180186  12.984  11.368  13.165 -0.0702 -0.2359  0.0735
13365DDP     P280187  12.602  11.580  12.629 -0.1418  0.1528  0.2671
13365DDP     C280188  12.423  11.226  12.284  0.2856 -0.0628  0.0550
13365DDP     C380189  13.046  10.882  13.033 -0.1220  0.1252  0.6291
13365DDP     C480190  12.225  11.899  13.307  0.0676 -0.2487 -0.3421
13366DDP     C180191  11.656  11.494  17.091  0.1618 -0.0930  0.1853
13366DDP     P180192  11.713  11.247  16.711  0.2707  0.4217 -0.0187
13366DDP     P280193  11.450  11.967  17.038 -0.0488 -0.0649  0.1246
13366DDP     C280194  11.406  12.316  16.691  0.1261 -0.0705  0.0387
13366DDP     C380195  11.743  11.393  16.288  0.2399 -0.1253 -0.2465
13366DDP     C480196  11.758  11.343  17.490  0.2164  0.3512  0.2876
13367DDP     C180197  14.764   3.408  17.024  0.0232  0.0680  0.0166
13367DDP     P180198  14.746   3.999  17.106  0.2896 -0.2144 -0.0777
13367DDP     P280199  15.260   3.404  17.177 -0.1247 -0.0800  0.1036
13367DDP     C280200  15.604   3.517  17.465  0.1886 -0.1011  0.1419
13367DDP     C380201  14.550   4.239  17.139  0.0359  0.3785 -0.1417
13367DDP     C480202  14.577   3.048  16.797 -0.1606  0.0044 -0.0175
13368DDP     C180203  21.691  16.618  20.065 -0.0988 -0.0292  0.0899
13368DDP     P180204  21.688  16.828  20.502  0.2725  0.2624  0.1183
13368DDP     P280205  21.269  16.647  19.869 -0.4207 -0.1911  0.5721
13368DDP     C280206  20.827  16.743  19.764  0.2490 -0.0768  0.0818
13368DDP     C380207  22.013  17.120  20.588  0.2284 -0.0991  0.2880
13368DDP     C480208  22.062  16.388  19.885 -0.0613 -0.1530 -0.1721
13369DDP     C180209  12.687   5.803  28.855  0.2349 -0.0255  0.1941
13369DDP     P180210  12.807   6.042  29.304 -0.0360  0.0317 -0.2188
13369DDP     P280211  12.506   5.912  28.516 -0.0138 -0.0152  0.1286
13369DDP     C280212  12.274   5.952  28.148  0.0090 -0.1816 -0.1156
13369DDP     C380213  12.674   6.284  29.588  0.1303  0.0977 -0.2448
13369DDP     C480214  12.801   5.367  28.980 -0.0683  0.0592  0.1311
13370DDP     C180215  15.871  25.606  25.554 -0.0026  0.2769 -0.1096
13370DDP     P180216  15.637  25.255  25.653 -0.1033 -0.3556  0.0434
13370DDP     P280217  15.737  26.008  25.368 -0.0537  0.0342  0.2251
13370DDP     C280218  15.652  26.400  25.410  0.1458 -0.0719 -0.2838
13370DDP     C380219  15.701  24.859  25.489 -0.0017  0.0441  0.0267
13370DDP     C480220  16.327  25.520  25.480 -0.0098 -0.0287 -0.3281
13371DDP     C180221   0.332  21.622  20.166  0.2486  0.3024 -0.0983
13371DDP     P180222  30.280  21.686  19.978  0.1825  0.1730 -0.1459
13371DDP     P280223   0.507  21.246  19.987  0.0597  0.1506 -0.0150
13371DDP     C280224   0.305  20.861  20.036  0.0475  0.0921  0.1802
13371DDP     C380225  29.959  21.500  19.709  0.2578  0.0566 -0.2080
13371DDP     C480226   0.501  21.837  20.398 -0.0907 -0.1702 -0.0969
13372DDP     C180227  29.066   8.303   4.733  0.0770  0.1818  0.0394
13372DDP     P180228  28.759   8.546   5.032  0.2826  0.0826  0.2596
13372DDP     P280229  29.169   8.730   4.627  0.0902  0.3233  0.0496
13372DDP     C280230  29.304   9.104   4.840 -0.0818  0.1283  0.1609
13372DDP     C380231  28.319   8.596   5.266 -0.1350 -0.0210 -0.2295
13372DDP     C480232  29.281   7.892   4.565  0.0771 -0.3627  0.2149
13373DDP     C180233   2.483  20.665  18.974  0.3048  0.1741 -0.2848
13373DDP     P180234   2.093  20.666  18.695 -0.4436 -0.0118  0.1173
13373DDP     P280235   2.640  20.274  19.087 -0.2465 -0.3342  0.0540
13373DDP     C280236   2.833  20.050  19.501  0.2155 -0.0144  0.0805
13373DDP     C380237   1.673  20.524  18.717  0.0104  0.2052 -0.1455
13373DDP     C480238   2.807  21.042  19.127  0.2909 -0.0999  0.1815
13374DDP     C180239  16.792   2.432  10.112 -0.2547 -0.1194 -0.1901
13374DDP     P180240  17.194   2.180  10.016  0.0149  0.5351 -0.0575
13374DDP     P280241  16.447   2.286  10.323  0.1226 -0.2089 -0.2531
13374DDP     C280242  16.191   1.871  10.346 -0.1167 -0.0341 -0.0121
13374DDP     C380243  17.436   1.804   9.831  0.1838  0.0141 -0.2310
13374DDP     C480244  16.940   2.889  10.105  0.2673 -0.0973  0.0098
13375DDP     C180245   8.636  21.158  19.856 -0.1995 -0.3765  0.2151
13375DDP     P180246   8.186  21.396  19.894  0.1876 -0.1506 -0.2070
13375DDP     P280247   8.957  21.165  20.183  0.0933  0.0661 -0.0557
13375DDP     C280248   9.012  20.930  20.520 -0.1094 -0.1267  0.1385
13375DDP     C380249   8.176  21.940  19.960  0.0202 -0.2578 -0.2351
13375DDP     C480250   8.677  20.828  19.552  0.1863  0.0761 -0.0838
13376DDP     C180251  26.250  28.181  16.300 -0.0505  0.1461  0.0084
13376DDP     P180252  26.470  27.913  16.638  0.1355 -0.1075  0.0103
13376DDP     P280253  26.413  28.158  15.888 -0.3784 -0.2390 -0.2509
13376DDP     C280254  26.814  28.164  15.775 -0.0186 -0.1406  0.0527
13376DDP     C380255  26.752  27.876  16.958  0.0891 -0.0494  0.1735
13376DDP     C480256  25.959  28.428  16.327  0.2933 -0.0829 -0.0953
13377DDP     C180257   0.895   5.973  19.338  0.1806  0.0620  0.0130
13377DDP     P180258   0.720   5.868  19.040  0.1017  0.3172  0.0892
13377DDP     P280259   1.278   6.017  19.501 -0.4489  0.1401  0.1696
13377DDP     C280260   1.724   6.004  19.716 -0.1941 -0.3020 -0.1310
13377DDP     C380261   0.275   5.901  19.100  0.0168 -0.0888 -0.1129
13377DDP     C480262   0.556   6.204  19.549 -0.2409 -0.1650  0.1403
13378DDP     C180263  10.967  17.069   6.365  0.1590  0.3126 -0.2881
13378DDP     P180264  11.263  17.239   6.737  0.0254  0.0390  0.0725
13378DDP     P280265  10.560  16.978   6.514  0.0800 -0.0892  0.3935
13378DDP     C280266  10.319  16.753   6.896  0.1780  0.1420 -0.2311
13378DDP     C380267  11.611  17.441   6.990  0.2158  0.4182  0.1604
13378DDP     C480268  11.217  16.993   5.991  0.1441  0.2160 -0.1853
13379DDP     C180269  28.658  27.122  26.015 -0.1310  0.4618  0.0691
13379DDP     P180270  28.397  27.352  26.190  0.1008 -0.1743  0.1869
13379DDP     P280271  29.034  26.938  26.225  0.1728 -0.4011 -0.1591
13379DDP     C280272  29.233  26.768  26.616  0.1745  0.3156  0.1415
13379DDP     C380273  28.158  27.605  25.793 -0.1000 -0.0153 -0.0467
13379DDP     C480274  28.549  27.047  25.549  0.0860  0.0528 -0.1755
13380DDP     C180275   9.092  16.209   7.394 -0.1746  0.1482  0.3082
13380DDP     P180276   9.038  15.879   7.684  0.0265 -0.0284  0.0806
13380DDP     P280277   8.773  16.455   7.346  0.3307  0.0749  0.2498
13380DDP     C280278   8.413  16.609   7.397  0.2187  0.0649 -0.1688
13380DDP     C380279   9.007  15.662   8.074 -0.1450 -0.0516  0.0684
13380DDP     C480280   9.555  16.364   7.378 -0.2263  0.0361 -0.1944
13381DDP     C180281  21.275  17.270  14.399  0.2341 -0.0713  0.0123
13381DDP     P180282  21.145  17.574  14.560  0.3091 -0.0188  0.1468
13381DDP     P280283  21.652  17.299  14.594  0.1072 -0.2629  0.1239
13381DDP     C280284  21.759  16.935  14.582  0.0919  0.0682 -0.0049
13381DDP     C380285  20.940  17.908  14.780 -0.2831  0.1002 -0.2321
13381DDP     C480286  21.232  16.939  14.290 -0.2285  0.3075  0.2851
13382DDP     C180287  13.011   5.701  22.941  0.1027  0.1870 -0.1697
13382DDP     P180288  12.795   5.462  23.243 -0.0716  0.3141  0.1106
13382DDP     P280289  13.369   5.372  22.655  0.2877 -0.0139 -0.0781
13382DDP     C280290  13.672   5.214  22.389  0.2072  0.0742  0.0622
13382DDP     C380291  12.633   5.291  23.742 -0.3754  0.0666  0.0400
13382DDP     C480292  12.950   6.100  23.067  0.0519  0.1043  0.1861
13383DDP     C180293  12.355   0.800  20.701 -0.1382  0.1845  0.0513
13383DDP     P180294  12.503   0.481  20.459  0.0150  0.0552  0.2748
13383DDP     P280295  12.379   1.202  20.498 -0.1495 -0.1510 -0.1256
13383DDP     C280296  12.715   1.552  20.578  0.0725 -0.1991 -0.1903
13383DDP     C380297  12.291   0.157  20.122 -0.1853 -0.0461 -0.2398
13383DDP     C480298  12.311   0.596  21.070 -0.0620 -0.0190 -0.0993
13384DDP     C180299  12.450   4.811   7.997 -0.4305 -0.0457 -0.0121
13384DDP     P180300  12.213   4.963   8.329 -0.0810 -0.0827 -0.0840
13384DDP     P280301  12.757   4.492   8.180  0.1713 -0.0384  0.1170
13384DDP     C280302  12.870   4.257   8.515 -0.1062  0.1361  0.1176
13384DDP     C380303  12.006   4.884   8.735 -0.2383 -0.1460 -0.0161
13384DDP     C480304  12.629   4.809   7.632 -0.2027 -0.0259 -0.1292
13385DDP     C180305  20.677  21.839  17.391  0.1359 -0.0799 -0.1871
13385DDP     P180306  20.591  22.225  17.591  0.0204  0.0573 -0.0982
13385DDP     P280307  20.344  21.413  17.477  0.3816  0.1144  0.3233
13385DDP     C280308  19.955  21.148  17.539 -0.0742  0.3292  0.0519
13385DDP     C380309  20.608  22.456  17.910 -0.0433  0.2890  0.0344
13385DDP     C480310  21.036  21.970  17.195  0.1317 -0.3806 -0.1058
13386DDP     C180311   9.447   7.067  24.615 -0.1525  0.2210  0.0082
13386DDP     P180312   9.377   6.720  24.887  0.0573 -0.2731  0.2306
13386DDP     P280313   9.713   7.267  24.736  0.0028  0.1863  0.0153
13386DDP     C280314  10.230   7.258  24.805 -0.0493  0.2872 -0.0934
13386DDP     C380315   9.548   6.440  25.189  0.0638 -0.0236  0.2486
13386DDP     C480316   9.086   7.307  24.499  0.0180 -0.0330 -0.1565
13387DDP     C180317  17.435   6.780  26.313  0.1338  0.3265 -0.0005
13387DDP     P180318  17.321   7.142  26.314  0.2825  0.0059  0.0970
13387DDP     P280319  17.757   6.840  26.551  0.0351  0.1551  0.2313
13387DDP     C280320  18.103   6.638  26.560 -0.1573  0.4668  0.2422
13387DDP     C380321  16.982   7.378  26.554 -0.0019 -0.1043  0.1168
13387DDP     C480322  17.193   6.456  26.130 -0.1781  0.0073 -0.2651
13388DDP     C180323  25.130  11.775  27.055 -0.0354  0.0783 -0.1483
13388DDP     P180324  25.211  11.613  26.725 -0.1687  0.2913 -0.0852
13388DDP     P280325  25.035  12.081  26.821 -0.1570  0.1587 -0.2220
13388DDP     C280326  25.095  12.476  26.634 -0.0970 -0.0483  0.1968
13388DDP     C380327  25.282  11.319  26.477 -0.2177  0.2131  0.2369
13388DDP     C480328  25.389  11.873  27.382 -0.0713 -0.0732  0.1012
13389DDP     C180329  27.268  16.194   2.738  0.1126  0.0546 -0.0437
13389DDP     P180330  27.164  15.791   2.923  0.1568 -0.0296 -0.1891
13389DDP     P280331  27.332  16.186   2.266 -0.3065 -0.6776  0.1949
13389DDP     C280332  27.534  16.253   1.979 -0.1709  0.1057 -0.3851
13389DDP     C380333  27.170  15.360   2.758  0.1282  0.2717  0.2950
13389DDP     C480334  27.412  16.540   2.913 -0.0959  0.1277 -0.3919
13390DDP     C180335   9.427   7.643  10.286  0.3420  0.1652  0.1369
13390DDP     P180336   9.714   7.952  10.068  0.0054 -0.2045  0.0166
13390DDP     P280337   8.947   7.745  10.169  0.1198 -0.3035 -0.1693
13390DDP     C280338   8.731   8.049   9.968 -0.1471 -0.1023  0.1385
13390DDP     C380339   9.795   8.271  10.374  0.0236  0.3596 -0.1828
13390DDP     C480340   9.568   7.405  10.546 -0.1043  0.1686 -0.0952
13391DDP     C180341   5.603  18.267   9.359 -0.0045  0.0299  0.0447
13391DDP     P180342   6.058  18.177   9.174 -0.0552  0.0802  0.0178
13391DDP     P280343   5.406  17.894   9.659  0.2621 -0.0886  0.2826
13391DDP     C280344   5.276  17.430   9.787 -0.1803 -0.2609  0.1676
13391DDP     C380345   6.428  18.213   8.931 -0.0386  0.1343  0.2686
13391DDP     C480346   5.365  18.561   9.402  0.1147  0.1862  0.0268
13392DDP     C180347  14.005  24.247  27.358 -0.1188 -0.0551 -0.0627
13392DDP     P180348  13.974  24.160  26.964  0.3105  0.1144  0.3100
13392DDP     P280349  13.817  24.622  27.719  0.0095 -0.0629 -0.1526
13392DDP     C280350  13.410  24.791  27.811 -0.1297  0.2991  0.0187
13392DDP     C380351  14.021  24.057  26.605 -0.1892  0.1354  0.2101
13392DDP     C480352  14.414  24.055  27.491  0.1507  0.0873  0.1789
13393DDP     C180353  19.009  14.309  29.698  0.1566 -0.4310  0.0045
13393DDP     P180354  18.879  14.605  29.411 -0.1861  0.1527  0.3736
13393DDP     P280355  18.901  13.941  29.820 -0.1337  0.1190  0.0810
13393DDP     C280356  18.986  13.629  30.089 -0.0628  0.1321 -0.3803
13393DDP     C380357  18.499  14.907  29.318 -0.1264 -0.1110  0.3894
13393DDP     C480358  19.359  14.498  29.827  0.0524  0.0379  0.4250
13394DDP     C180359  17.187   2.743  24.381  0.3216 -0.0375  0.1925
13394DDP     P180360  17.584   2.903  24.539  0.0516 -0.0613  0.0470
13394DDP     P280361  16.932   3.030  24.173  0.1905 -0.0672  0.2644
13394DDP     C280362  17.010   3.376  23.796  0.0244 -0.0572 -0.0595
13394DDP     C380363  17.791   3.086  24.851 -0.3061 -0.1486 -0.0010
13394DDP     C480364  16.957   2.417  24.571 -0.0686 -0.0100  0.2037
13395DDP     C180365  27.628   7.719   0.462  0.1962 -0.3528  0.0516
13395DDP     P180366  27.938   7.889   0.680  0.1802 -0.1449 -0.2242
13395DDP     P280367  27.282   7.447   0.546 -0.1729  0.3925 -0.0676
13395DDP     C280368  27.160   7.252   0.824  0.0428  0.1249 -0.0839
13395DDP     C380369  28.194   8.111   1.128 -0.3580 -0.1833  0.0908
13395DDP     C480370  27.512   7.830   0.001  0.0005 -0.1526  0.0032
13396DDP     C180371   9.600   0.286   5.092  0.2737  0.1116 -0.0220
13396DDP     P180372   9.425   0.640   5.133 -0.4008  0.1451 -0.4823
13396DDP     P280373   9.746   0.250   5.413  0.0679  0.0804 -0.3730
13396DDP     C280374  10.036   0.111   5.624  0.0630 -0.0428  0.0467
13396DDP     C380375   9.214   0.952   4.812 -0.1051  0.0400 -0.1367
13396DDP     C480376   9.612   0.089   4.699  0.0638 -0.1494  0.1759
13397DDP     C180377  25.366   9.971   4.084 -0.3939 -0.0997 -0.1445
13397DDP     P180378  25.533   9.420   4.309  0.1820 -0.0020 -0.0191
13397DDP     P280379  25.287   9.999   3.613 -0.0490  0.0580  0.1569
13397DDP     C280380  25.322   9.691   3.269 -0.1237 -0.1310 -0.2950
13397DDP     C380381  25.507   9.054   4.107 -0.0750 -0.1471  0.1234
13397DDP     C480382  25.637  10.289   4.326  0.2339 -0.0004 -0.2132
13398DDP     C180383  25.209  28.748  29.693 -0.0093 -0.0350 -0.2106
13398DDP     P180384  25.137  28.812  30.145  0.0239  0.0605  0.2962
13398DDP     P280385  25.245  28.279  29.574  0.0038 -0.0481 -0.2058
13398DDP     C280386  25.325  27.873  29.767 -0.2238  0.1015 -0.1094
13398DDP     C380387  25.117  29.214   0.059  0.0811  0.0544  0.0769
13398DDP     C480388  25.211  28.970  29.349  0.1971  0.1204  0.1933
13399DDP     C180389  17.474   7.458  16.513  0.0633  0.1564  0.2128
13399DDP     P180390  17.458   7.379  16.830  0.0454 -0.0507  0.0244
13399DDP     P280391  17.319   7.907  16.295 -0.1565  0.5053  0.0992
13399DDP     C280392  17.450   8.024  15.952  0.1906  0.0283  0.3146
13399DDP     C380393  17.815   7.113  17.068  0.1178  0.0430  0.4240
13399DDP     C480394  17.759   7.113  16.298 -0.0781 -0.0726 -0.0846
13400DDP     C180395   2.961  15.343   2.824  0.3812 -0.0944 -0.0888
13400DDP     P180396   3.228  15.149   3.049  0.0749 -0.0729  0.2167
13400DDP     P280397   2.519  15.153   2.617 -0.3587 -0.0560  0.4014
13400DDP     C280398   2.394  14.984   2.259 -0.1485 -0.0982 -0.3170
13400DDP     C380399   3.248  14.757   3.029 -0.1299 -0.0921  0.3149
13400DDP     C480400   3.116  15.748   3.101  0.0429 -0.4876 -0.2275
13401DDP     C180401  24.475  16.086  11.791  0.1449  0.1191  0.1693
13401DDP     P180402  24.793  16.340  11.507 -0.0602 -0.0313  0.0523
13401DDP     P280403  24.235  16.419  11.706 -0.0693 -0.0119 -0.2673
13401DDP     C280404  24.034  16.803  11.716  0.2432  0.3338 -0.0793
13401DDP     C380405  25.019  16.693  11.438  0.0678 -0.0832 -0.3142
13401DDP     C480406  24.432  15.575  11.811  0.1312 -0.3009 -0.1047
13402DDP     C180407  16.356  25.764   9.805 -0.0773 -0.1308  0.2314
13402DDP     P180408  16.456  26.083   9.444 -0.0782 -0.2090  0.0057
13402DDP     P280409  16.055  25.926  10.118  0.1044  0.1279  0.2524
13402DDP     C280410  15.618  25.667  10.158  0.0889 -0.0161  0.1605
13402DDP     C380411  16.466  26.450   9.014  0.2965  0.1799  0.0911
13402DDP     C480412  16.352  25.277   9.755 -0.0053 -0.2414  0.2568
13403DDP     C180413  25.801  11.179   3.994  0.1542  0.0064 -0.1310
13403DDP     P180414  25.529  10.833   4.102  0.1139 -0.1894 -0.0965
13403DDP     P280415  25.794  11.405   3.563 -0.1881 -0.1881 -0.4884
13403DDP     C280416  25.790  11.511   3.191 -0.0964  0.1393  0.1441
13403DDP     C380417  25.244  10.520   3.935  0.0914 -0.3556 -0.1600
13403DDP     C480418  26.144  11.312   4.251 -0.3722  0.1683 -0.1758
13404DDP     C180419  19.322   6.037   1.499 -0.2957 -0.2023  0.0322
13404DDP     P180420  19.395   5.720   1.847 -0.1986  0.1311 -0.1052
13404DDP     P280421  18.913   6.200   1.271 -0.0198 -0.1697  0.1185
13404DDP     C280422  18.552   5.864   1.323 -0.0109  0.0248 -0.4659
13404DDP     C380423  19.422   5.305   1.960 -0.5556  0.2351  0.0879
13404DDP     C480424  19.683   6.177   1.404  0.2539 -0.1990  0.0349
13405DDP     C180425   0.920  18.540  18.273  0.2737  0.1368 -0.1456
13405DDP     P180426   0.592  18.416  18.135 -0.0416 -0.0584  0.0028
13405DDP     P280427   1.253  18.339  18.340 -0.2257  0.1002 -0.0819
13405DDP     C280428   1.560  18.234  18.671 -0.0533  0.2317  0.0833
13405DDP     C380429   0.211  18.250  17.915 -0.0578 -0.0698 -0.0939
13405DDP     C480430   0.980  18.963  18.489 -0.0994 -0.0529  0.1252
13406DDP     C180431  16.119  29.159  20.056  0.1230  0.4155 -0.0244
13406DDP     P180432  16.600  29.096  20.221 -0.1168 -0.2911 -0.1231
13406DDP     P280433  15.864  29.503  20.175  0.1492 -0.1035  0.0750
13406DDP     C280434  15.461  29.470  20.382  0.0653 -0.7386  0.6229
13406DDP     C380435  16.734  29.360  20.594  0.1769 -0.0371 -0.1655
13406DDP     C480436  15.953  28.794  19.842 -0.1343  0.0552  0.3189
13407DDP     C180437  12.342  18.962  14.577 -0.4404  0.1182 -0.1355
13407DDP     P180438  12.459  19.412  14.752 -0.1539 -0.1822 -0.0528
13407DDP     P280439  11.916  18.712  14.480 -0.3366  0.0409  0.0383
13407DDP     C280440  11.505  18.695  14.655 -0.0636 -0.0359 -0.0426
13407DDP     C380441  12.395  19.879  14.662 -0.0139 -0.2434  0.1472
13407DDP     C480442  12.507  18.832  14.237 -0.0441 -0.0546 -0.1356
13408DDP     C180443  26.259   8.863  11.981  0.0580 -0.0424  0.1934
13408DDP     P180444  26.014   9.064  12.223 -0.1016 -0.2682  0.0603
13408DDP     P280445  26.567   8.598  12.189 -0.1119 -0.0799 -0.0107
13408DDP     C280446  26.884   8.323  12.234 -0.0430 -0.1683  0.1591
13408DDP     C380447  25.728   9.350  12.398  0.0479  0.0946 -0.0364
13408DDP     C480448  26.206   8.690  11.592  0.0440  0.3318  0.0422
13409DDP     C180449  12.892  17.158  25.020  0.0357  0.2312 -0.0461
13409DDP     P180450  12.517  17.370  25.265 -0.0028 -0.0155 -0.1422
13409DDP     P280451  13.145  17.366  24.734  0.0677 -0.3386 -0.1612
13409DDP     C280452  13.428  17.699  24.646 -0.0804  0.3992 -0.0791
13409DDP     C380453  12.102  17.683  25.247 -0.0337 -0.0129 -0.2585
13409DDP     C480454  13.117  16.821  25.285 -0.1580  0.5024  0.1929
13410DDP     C180455  23.305  29.632   5.794  0.1763 -0.1561 -0.2384
13410DDP     P180456  23.306  29.337   6.142 -0.1164 -0.1304  0.2443
13410DDP     P280457  23.057  29.981   5.687 -0.0362 -0.1269 -0.0861
13410DDP     C280458  22.984  -0.015   5.417 -0.1764 -0.0250  0.0712
13410DDP     C380459  23.508  28.985   6.208  0.3352 -0.0624  0.2178
13410DDP     C480460  23.541  29.636   5.426 -0.0643 -0.3637 -0.0666
13411DDP     C180461  26.271   2.564   5.420  0.0026 -0.2594  0.0084
13411DDP     P180462  26.709   2.487   5.600  0.1768 -0.0547  0.0098
13411DDP     P280463  25.967   2.455   5.792  0.0569 -0.3047 -0.1015
13411DDP     C280464  25.648   2.806   5.757  0.1617 -0.1782 -0.1352
13411DDP     C380465  26.941   2.106   5.637 -0.1032 -0.2450  0.3453
13411DDP     C480466  26.003   2.680   5.058  0.2127  0.0464  0.0401
13412DDP     C180467  22.577   2.245  24.730  0.1063 -0.0478 -0.2046
13412DDP     P180468  22.593   1.952  24.273 -0.0137 -0.0723 -0.0619
13412DDP     P280469  22.225   2.361  24.979  0.2296  0.0454  0.0490
13412DDP     C280470  21.826   2.370  24.829  0.0862 -0.0624 -0.1926
13412DDP     C380471  22.711   1.786  23.881  0.1429  0.1012 -0.1287
13412DDP     C480472  22.954   2.547  24.708  0.0788  0.0889 -0.1925
13413DDP     C180473  30.257  17.914  21.519 -0.1834  0.2546  0.0545
13413DDP     P180474  30.119  18.276  21.759  0.2182  0.1809 -0.2478
13413DDP     P280475  30.263  17.435  21.635  0.1145 -0.0336  0.2263
13413DDP     C280476   0.051  17.133  21.919  0.0942 -0.0925  0.1115
13413DDP     C380477  29.928  18.115  22.262 -0.4628  0.2999 -0.0862
13413DDP     C480478   0.128  17.908  21.181 -0.1052 -0.0965 -0.0035
13414DDP     C180479   3.792   5.613  23.832  0.1857  0.3181 -0.0218
13414DDP     P180480   3.441   5.598  23.590  0.0950  0.1731 -0.2658
13414DDP     P280481   3.898   5.301  24.046 -0.0606 -0.0033  0.0501
13414DDP     C280482   3.867   5.097  24.477  0.1152 -0.6001  0.1488
13414DDP     C380483   3.028   5.561  23.335  0.3638  0.0657 -0.0121
13414DDP     C480484   3.927   6.049  24.072 -0.2603  0.0431  0.2361
13415DDP     C180485  20.352   1.504  21.544 -0.0870  0.0376  0.3091
13415DDP     P180486  20.448   1.505  21.123  0.2828 -0.1687 -0.1823
13415DDP     P280487  20.563   1.759  21.796 -0.1480  0.2629  0.1126
13415DDP     C280488  20.803   1.756  22.194  0.1941 -0.2077  0.1492
13415DDP     C380489  20.720   1.336  20.707 -0.0827 -0.0522  0.2943
13415DDP     C480490  20.096   1.235  21.684  0.2083  0.2496  0.0466
13416DDP     C180491  14.492   6.129   7.317  0.0493  0.1761 -0.1857
13416DDP     P180492  14.574   6.340   7.726 -0.0654  0.4062  0.0621
13416DDP     P280493  14.056   6.004   7.285  0.2788 -0.3380  0.0223
13416DDP     C280494  13.667   5.890   7.083 -0.0284  0.3429 -0.1923
13416DDP     C380495  14.329   6.724   7.946  0.0624 -0.3458 -0.0361
13416DDP     C480496  14.848   5.936   7.135 -0.1453 -0.0243  0.1678
13417DDP     C180497  18.554  15.294  16.886  0.0591  0.2694 -0.0004
13417DDP     P180498  18.264  15.051  16.657  0.0113  0.1090  0.1365
13417DDP     P280499  18.276  15.678  16.642 -0.1576 -0.2064 -0.1420
13417DDP     C280500  17.906  15.641  16.662  0.0043 -0.1570 -0.0110
13417DDP     C380501  18.178  14.759  16.323 -0.0417 -0.1195 -0.0540
13417DDP     C480502  18.857  15.253  17.227 -0.2985  0.0125 -0.3914
13418DDP     C180503  21.510  15.701   7.326 -0.1669 -0.2414  0.0694
13418DDP     P180504  21.805  15.393   7.525 -0.1660 -0.1109 -0.0466
13418DDP     P280505  21.284  15.471   6.994  0.0730 -0.0340  0.0457
13418DDP     C280506  21.246  15.244   6.582  0.0557  0.2309  0.1150
13418DDP     C380507  22.099  15.100   7.524 -0.0481  0.0525  0.0532
13418DDP     C480508  21.347  16.085   7.746 -0.0858  0.1520 -0.2874
13419DDP     C180509  23.492  20.170  22.651  0.1202  0.1515  0.2373
13419DDP     P180510  23.960  20.196  22.578  0.2622 -0.4327 -0.1419
13419DDP     P280511  23.680  19.794  22.935  0.1349  0.1045  0.2214
13419DDP     C280512  23.581  19.448  23.158  0.3150  0.1097  0.1444
13419DDP     C380513  24.421  19.984  22.420  0.0244 -0.4361 -0.2995
13419DDP     C480514  23.202  20.228  22.900  0.0670 -0.2387 -0.1600
13420DDP     C180515  10.996   6.065   6.078 -0.0982 -0.0772 -0.1428
13420DDP     P180516  10.716   6.290   6.265 -0.0149  0.0532 -0.3549
13420DDP     P280517  11.463   6.137   6.275  0.2119  0.0606  0.2620
13420DDP     C280518  11.790   5.929   6.129  0.0602 -0.1480  0.2542
13420DDP     C380519  10.287   6.236   6.454 -0.1045 -0.0830  0.0426
13420DDP     C480520  10.969   5.971   5.638  0.1040  0.1046  0.2328
13421DDP     C180521  23.654   0.672  11.867  0.0044 -0.2624 -0.1622
13421DDP     P180522  23.843   0.709  11.423 -0.0895 -0.4863  0.1013
13421DDP     P280523  23.179   0.692  11.972 -0.1708  0.0315 -0.2050
13421DDP     C280524  23.041   0.986  12.165  0.1964  0.1286 -0.3936
13421DDP     C380525  24.158   0.995  11.351  0.1434  0.1640 -0.2667
13421DDP     C480526  23.913   0.392  12.178  0.1949 -0.1402  0.2243
13422DDP     C180527  15.933  24.369   2.986 -0.2942  0.2591 -0.0239
13422DDP     P180528  15.860  24.407   3.431 -0.0398 -0.1574 -0.0683
13422DDP     P280529  16.386  24.375   2.893  0.0800  0.0650 -0.3935
13422DDP     C280530  16.828  24.589   2.849  0.1631 -0.2714 -0.2511
13422DDP     C380531  16.057  24.741   3.729  0.0550 -0.2369  0.3828
13422DDP     C480532  15.620  24.488   2.673 -0.1010  0.2558 -0.2907
13423DDP     C180533   2.004  23.991   7.285  0.1644 -0.3306 -0.0878
13423DDP     P180534   1.908  24.215   7.775 -0.0630  0.1987  0.2058
13423DDP     P280535   1.748  23.833   7.004 -0.0002  0.1172 -0.0724
13423DDP     C280536   1.312  23.606   7.094 -0.1986  0.2340 -0.1718
13423DDP     C380537   2.234  24.203   7.999 -0.0868  0.0150  0.1352
13423DDP     C480538   2.358  23.725   7.236 -0.0192 -0.1219 -0.0785
13424DDP     C180539   7.320   9.958  12.389  0.0185 -0.1306 -0.2988
13424DDP     P180540   7.193  10.414  12.197 -0.2262 -0.0509  0.1174
13424DDP     P280541   7.267   9.846  12.788 -0.1124 -0.1402 -0.0472
13424DDP     C280542   7.182  10.117  13.041  0.0043 -0.0617 -0.0313
13424DDP     C380543   7.417  10.744  11.777  0.0566  0.1556 -0.0517
13424DDP     C480544   7.595   9.703  12.358  0.0555  0.0372  0.1741
13425DDP     C180545   8.637  22.892   8.599 -0.2062  0.3105  0.0404
13425DDP     P180546   8.939  22.741   8.951 -0.0133  0.2994 -0.0634
13425DDP     P280547   8.793  23.167   8.267 -0.0733  0.1660  0.2119
13425DDP     C280548   8.988  23.193   7.836 -0.0489  0.0277  0.1249
13425DDP     C380549   8.952  22.634   9.447  0.4099 -0.1513  0.0639
13425DDP     C480550   8.213  22.890   8.859  0.1057  0.0341  0.0825
13426DDP     C180551  12.809  28.682  14.918 -0.0075  0.2965 -0.1205
13426DDP     P180552  12.404  28.595  14.995 -0.0422 -0.0680  0.0617
13426DDP     P280553  12.795  28.528  14.462 -0.1412  0.6985  0.1023
13426DDP     C280554  12.638  28.093  14.370  0.0455  0.1858 -0.1266
13426DDP     C380555  12.073  28.942  15.094 -0.1360  0.0195 -0.1855
13426DDP     C480556  12.976  28.766  15.297  0.2714  0.1063 -0.0516
13427DDP     C180557  16.221  27.363   0.959  0.0301  0.0565 -0.0489
13427DDP     P180558  16.613  27.179   0.971  0.3344  0.1421  0.3170
13427DDP     P280559  16.376  27.456   0.622 -0.2309  0.2796 -0.0771
13427DDP     C280560  16.387  27.713   0.204 -0.0880  0.1639  0.0662
13427DDP     C380561  16.998  26.897   0.903  0.0702  0.0333  0.0926
13427DDP     C480562  15.956  27.598   1.337  0.2135 -0.1719 -0.0763
13428DDP     C180563  13.581  11.015   4.559  0.2045  0.2303 -0.0498
13428DDP     P180564  13.228  11.283   4.494  0.0653  0.0498  0.3281
13428DDP     P280565  13.265  10.655   4.654 -0.0124 -0.0822  0.1764
13428DDP     C280566  12.818  10.726   4.691  0.0853  0.2529  0.0375
13428DDP     C380567  12.967  11.612   4.336  0.0989  0.0098  0.1330
13428DDP     C480568  13.980  10.934   4.360  0.1311 -0.0237  0.0764
13429DDP     C180569   8.176  22.942  27.879  0.2217  0.1045 -0.0214
13429DDP     P180570   8.380  22.655  28.073 -0.0950  0.4924 -0.0129
13429DDP     P280571   7.775  22.670  27.638  0.0780  0.1098 -0.0133
13429DDP     C280572   7.353  22.519  27.494  0.0743 -0.0749 -0.5832
13429DDP     C380573   8.417  22.269  28.121  0.0592  0.0652 -0.1319
13429DDP     C480574   8.068  23.337  27.954  0.1430  0.0299 -0.0277
13430DDP     C180575  10.865  26.008  26.323 -0.2847 -0.0265 -0.6152
13430DDP     P180576  10.707  25.588  26.459  0.0639  0.0745 -0.1634
13430DDP     P280577  11.152  26.269  26.587  0.4815 -0.0035 -0.0456
13430DDP     C280578  11.105  26.725  26.546  0.1960  0.0218 -0.1984
13430DDP     C380579  10.342  25.335  26.533  0.1000  0.1104  0.3283
13430DDP     C480580  10.897  26.274  25.928  0.1709  0.3192 -0.2953
13431DDP     C180581   1.437   9.524  29.744 -0.0445  0.0689  0.1605
13431DDP     P180582   1.346   9.463  30.204  0.0396  0.2421 -0.1893
13431DDP     P280583   1.808   9.822  29.679 -0.2330  0.0550  0.0426
13431DDP     C280584   2.222   9.677  29.770  0.0715 -0.0899 -0.1327
13431DDP     C380585   0.873   9.456   0.180  0.0812 -0.0813 -0.1343
13431DDP     C480586   1.184   9.438  29.455 -0.0159 -0.4204 -0.0746
13432DDP     C180587  29.974   2.005  16.958  0.0186 -0.0436 -0.1411
13432DDP     P180588  29.889   1.625  17.179 -0.0528 -0.2847  0.3577
13432DDP     P280589  30.277   2.252  17.214  0.0025 -0.0652 -0.3724
13432DDP     C280590   0.342   2.394  17.364 -0.0977 -0.1243  0.0285
13432DDP     C380591  29.806   1.212  17.179 -0.1182  0.0213 -0.2092
13432DDP     C480592  29.614   1.954  16.746 -0.0703  0.1260 -0.4233
13433DDP     C180593  13.801  17.215  12.337 -0.0335  0.2004  0.1992
13433DDP     P180594  13.641  16.997  11.999  0.0089 -0.1254  0.2527
13433DDP     P280595  13.774  17.649  12.502  0.0428  0.0521 -0.2311
13433DDP     C280596  13.938  17.940  12.722  0.1754  0.2258 -0.3848
13433DDP     C380597  13.463  16.604  11.750 -0.0762  0.1127 -0.1905
13433DDP     C480598  13.933  17.147  12.753 -0.1141  0.2312  0.0078
13434DDP     C180599  11.105  13.426   2.098 -0.1272  0.0073  0.0155
13434DDP     P180600  10.883  13.504   2.492  0.0613  0.0834 -0.0349
13434DDP     P280601  11.522  13.513   2.103  0.2602  0.2434  0.2484
13434DDP     C280602  11.986  13.663   2.146  0.0386 -0.0794 -0.3173
13434DDP     C380603  10.936  13.750   2.980 -0.0317 -0.0206 -0.2193
13434DDP     C480604  10.923  13.378   1.673  0.0465  0.2228 -0.0698
13435DDP     C180605   8.537  21.725   6.051  0.2555 -0.0925  0.0428
13435DDP     P180606   8.792  21.338   6.256  0.3952  0.3985  0.3240
13435DDP     P280607   8.737  22.060   5.877  0.3707  0.0008 -0.1817
13435DDP     C280608   9.041  22.393   5.697  0.3079 -0.1080 -0.0910
13435DDP     C380609   9.203  21.107   6.366  0.1180 -0.3302 -0.0534
13435DDP     C480610   8.151  21.694   5.989 -0.0922  0.1981  0.3393
13436DDP     C180611  25.160  26.860  30.168 -0.1832 -0.2681  0.1307
13436DDP     P180612  25.115  27.082   0.205 -0.4166 -0.2890  0.1385
13436DDP     P280613  24.818  26.945  29.853 -0.1026  0.0040  0.1243
13436DDP     C280614  24.876  27.072  29.420 -0.1336 -0.0772  0.1155
13436DDP     C380615  24.796  27.106   0.431 -0.1332  0.0450 -0.1803
13436DDP     C480616  25.539  26.700  30.187 -0.0344 -0.1476  0.2476
13437DDP     C180617  29.977  28.155   2.920 -0.1709 -0.0543 -0.1985
13437DDP     P180618  29.991  27.824   2.592 -0.0527 -0.0044  0.0195
13437DDP     P280619   0.022  28.260   3.075 -0.2400  0.2024 -0.1177
13437DDP     C280620   0.476  28.369   3.084 -0.0810  0.1340 -0.0711
13437DDP     C380621  30.297  27.450   2.586  0.0598  0.1399 -0.3340
13437DDP     C480622  29.714  28.330   3.261 -0.1335  0.1202  0.3750
13438DDP     C180623  24.748  17.357  19.861 -0.0900  0.0517  0.0170
13438DDP     P180624  24.297  17.465  19.663  0.2586  0.0037  0.1645
13438DDP     P280625  24.957  17.706  20.042 -0.1102 -0.0101  0.0021
13438DDP     C280626  25.075  17.760  20.465 -0.2853 -0.0637  0.2896
13438DDP     C380627  23.904  17.336  19.508  0.0427  0.0776  0.1937
13438DDP     C480628  25.116  17.063  19.928  0.0458 -0.2079 -0.1145
13439DDP     C180629   2.614  10.675  13.531 -0.0876  0.1208 -0.0272
13439DDP     P180630   2.560  10.689  13.958  0.4335 -0.1248  0.3484
13439DDP     P280631   3.157  10.887  13.358  0.2816  0.0498  0.4662
13439DDP     C280632   3.487  10.595  13.083  0.1271  0.0945 -0.1404
13439DDP     C380633   2.809  10.655  14.377 -0.3410 -0.0010  0.2713
13439DDP     C480634   2.507  10.436  13.219  0.1022 -0.0124 -0.1273
13440DDP     C180635  23.345  11.176  13.308  0.0794 -0.1689  0.0829
13440DDP     P180636  23.527  11.312  12.879 -0.0282 -0.2710 -0.1162
13440DDP     P280637  22.875  11.269  13.355  0.0642 -0.3686 -0.0652
13440DDP     C280638  22.455  11.123  13.397 -0.0133  0.0910 -0.0859
13440DDP     C380639  23.650  11.462  12.472  0.3946 -0.0523  0.0518
13440DDP     C480640  23.615  10.923  13.633  0.3101  0.3969  0.7737
13441DDP     C180641   7.203  19.602   1.723  0.1338 -0.0415 -0.2632
13441DDP     P180642   7.571  19.269   1.779  0.1496 -0.2621  0.1481
13441DDP     P280643   7.150  19.940   2.046  0.3859  0.0107  0.2884
13441DDP     C280644   6.911  20.096   2.354  0.3340  0.1056 -0.0265
13441DDP     C380645   7.960  19.272   2.036 -0.2034 -0.3157 -0.2511
13441DDP     C480646   7.134  19.713   1.266  0.1653 -0.1594  0.2785
13442DDP     C180647   2.563   1.630   3.662 -0.0150  0.1619  0.0995
13442DDP     P180648   2.697   1.230   3.844  0.0908  0.0078 -0.3881
13442DDP     P280649   2.822   1.815   3.442  0.2330 -0.1830 -0.0502
13442DDP     C280650   2.877   2.129   3.281  0.1107  0.2429 -0.0717
13442DDP     C380651   2.818   0.807   3.679  0.1745  0.0630 -0.0543
13442DDP     C480652   2.205   1.829   3.839 -0.2283 -0.0263 -0.0397
13443DDP     C180653  20.769  12.713   0.712  0.1473 -0.0994 -0.1859
13443DDP     P180654  20.546  13.001   0.489  0.2675  0.4453  0.2084
13443DDP     P280655  20.595  12.297   0.792  0.1279 -0.1722 -0.0280
13443DDP     C280656  20.534  12.165   1.283  0.0531 -0.0940  0.3278
13443DDP     C380657  20.091  12.925   0.337 -0.1681 -0.1993  0.2371
13443DDP     C480658  21.126  12.889   0.909  0.0173  0.0953  0.0834
13444DDP     C180659  26.808  14.591   5.637 -0.0827  0.2139 -0.0275
13444DDP     P180660  26.802  14.265   5.429  0.0410  0.0766  0.1078
13444DDP     P280661  26.431  14.811   5.784 -0.0917 -0.2557  0.1944
13444DDP     C280662  26.161  14.966   6.094 -0.0459  0.1574 -0.1083
13444DDP     C380663  26.744  14.024   5.230  0.0777 -0.1225  0.1016
13444DDP     C480664  27.259  14.688   5.752  0.3238 -0.0402  0.0625
13445DDP     C180665  13.960  25.492  26.747 -0.2313  0.0222  0.1470
13445DDP     P180666  14.019  25.276  26.515 -0.0189  0.1126 -0.2517
13445DDP     P280667  14.220  25.470  27.007 -0.1588 -0.0425 -0.0280
13445DDP     C280668  14.482  25.825  26.922 -0.3182  0.0819 -0.1463
13445DDP     C380669  14.282  24.978  26.418  0.3588 -0.1181 -0.2133
13445DDP     C480670  13.536  25.512  26.825 -0.1870  0.2066 -0.1224
13446DDP     C180671  24.645  12.147  20.366  0.2192 -0.1896  0.0464
13446DDP     P180672  24.805  12.122  20.743 -0.0210 -0.2302  0.0413
13446DDP     P280673  24.473  11.669  20.262 -0.0863 -0.1099  0.0352
13446DDP     C280674  24.531  11.244  20.243  0.1011  0.1020 -0.2951
13446DDP     C380675  24.870  11.789  21.105  0.2029  0.1686 -0.3256
13446DDP     C480676  24.572  12.371  19.954  0.3553  0.0691 -0.2350
13447DDP     C180677   0.705   8.957  15.174 -0.2146 -0.1446 -0.1634
13447DDP     P180678   0.918   9.332  15.060 -0.1283 -0.2360  0.1290
13447DDP     P280679   0.315   8.919  14.918  0.1810  0.2847 -0.4968
13447DDP     C280680  30.238   8.824  15.110 -0.0105  0.0922  0.0805
13447DDP     C380681   1.014   9.698  14.876  0.2438  0.2466 -0.1132
13447DDP     C480682   0.911   8.643  15.555  0.2720 -0.1662  0.1644
13448DDP     C180683   4.902   6.757   5.544 -0.0793  0.0537 -0.4265
13448DDP     P180684   5.245   6.950   5.643 -0.0967 -0.2242 -0.0498
13448DDP     P280685   4.974   6.262   5.590 -0.1944  0.0678  0.1054
13448DDP     C280686   5.100   5.892   5.403  0.2132 -0.0714 -0.1046
13448DDP     C380687   5.551   6.801   5.717  0.2164  0.2394 -0.0193
13448DDP     C480688   4.548   6.988   5.386 -0.0062  0.0347  0.0009
13449DDP     C180689  10.703  15.772   7.523  0.0915 -0.1258  0.3564
13449DDP     P180690  10.393  15.809   8.011  0.0163  0.1529 -0.2935
13449DDP     P280691  11.147  15.864   7.645 -0.0809  0.2194 -0.0022
13449DDP     C280692  11.523  15.794   7.803  0.0469 -0.1968 -0.2752
13449DDP     C380693  10.034  15.887   8.329 -0.2934 -0.2053  0.0216
13449DDP     C480694  10.497  15.459   7.236  0.1304  0.0422  0.0358
13450DDP     C180695  10.512  26.281   4.193 -0.0352 -0.3075  0.0689
13450DDP     P180696  10.889  26.326   4.494 -0.1878 -0.1373 -0.2911
13450DDP     P280697  10.244  26.756   4.080 -0.3147 -0.3220  0.0699
13450DDP     C280698  10.063  26.922   3.703 -0.0543 -0.0379 -0.0937
13450DDP     C380699  11.273  26.366   4.415 -0.0765 -0.3475  0.3891
13450DDP     C480700  10.342  25.833   4.059 -0.1234 -0.1512  0.0389
13451DDP     C180701  20.885   1.047   1.872 -0.2375  0.0361 -0.2596
13451DDP     P180702  21.080   0.951   2.227  0.0037  0.0459  0.0028
13451DDP     P280703  21.184   0.801   1.494 -0.1145 -0.1779  0.1051
13451DDP     C280704  21.216   0.447   1.132  0.0585 -0.1272  0.2929
13451DDP     C380705  21.323   0.724   2.354 -0.0584 -0.0008 -0.1094
13451DDP     C480706  20.778   1.519   1.846  0.2018 -0.0020  0.1253
13452DDP     C180707  10.298   7.879  21.516 -0.2675 -0.2545  0.0314
13452DDP     P180708  10.063   8.232  21.604  0.0482  0.3392  0.1423
13452DDP     P280709  10.695   7.857  21.444  0.1223  0.0390 -0.0590
13452DDP     C280710  10.812   7.536  21.103 -0.0612 -0.0060  0.0289
13452DDP     C380711  10.054   8.154  22.027 -0.1753  0.1964 -0.0551
13452DDP     C480712  10.301   7.444  21.308  0.3026 -0.1886  0.1207
13453DDP     C180713  20.151  24.730  15.599 -0.2087  0.1109 -0.0312
13453DDP     P180714  20.452  24.948  15.258  0.2960  0.1792  0.1014
13453DDP     P280715  19.745  24.657  15.515  0.3439  0.1261 -0.1058
13453DDP     C280716  19.419  24.761  15.839  0.1506 -0.2150  0.1663
13453DDP     C380717  20.800  25.079  15.004  0.2108 -0.1303 -0.1713
13453DDP     C480718  20.227  24.321  15.771 -0.1571  0.3364 -0.1157
13454DDP     C180719   2.017   0.770   7.743 -0.1002  0.3728  0.0380
13454DDP     P180720   1.584   0.735   7.949 -0.0452 -0.0637  0.0711
13454DDP     P280721   1.916   0.983   7.419 -0.0384  0.1185 -0.4303
13454DDP     C280722   1.810   1.328   7.081  0.1784  0.1855  0.0155
13454DDP     C380723   1.334   0.432   7.866  0.1946 -0.3026  0.2123
13454DDP     C480724   2.420   0.709   7.924  0.0576 -0.0999 -0.0735
13455DDP     C180725  26.072  28.078   9.494 -0.0871  0.0850 -0.1989
13455DDP     P180726  26.313  27.743   9.755 -0.0712 -0.0500 -0.0019
13455DDP     P280727  25.971  28.051   9.119 -0.1627 -0.1857  0.1718
13455DDP     C280728  25.820  28.404   8.891  0.1884 -0.0853  0.0165
13455DDP     C380729  26.068  27.441  10.042 -0.0816 -0.0777 -0.0218
13455DDP     C480730  26.092  28.520   9.595  0.1908 -0.1354 -0.1285
13456DDP     C180731   4.373  20.075  23.247  0.0353 -0.0534 -0.1226
13456DDP     P180732   4.153  19.736  23.430  0.1684  0.1890  0.0458
13456DDP     P280733   4.369  20.201  22.825 -0.0053  0.1846  0.1379
13456DDP     C280734   4.285  19.857  22.407  0.1128  0.1948 -0.2185
13456DDP     C380735   4.132  19.408  23.805 -0.2708 -0.1070  0.0490
13456DDP     C480736   4.704  19.969  23.506 -0.1094 -0.1863  0.0228
13457DDP     C180737   4.722   7.104  17.873 -0.1410  0.0019  0.1214
13457DDP     P180738   5.082   6.992  17.960  0.0189  0.0042 -0.0165
13457DDP     P280739   4.654   7.482  17.893  0.1010 -0.1371 -0.0791
13457DDP     C280740   4.961   7.929  17.755 -0.0069 -0.0594  0.1347
13457DDP     C380741   5.542   6.989  18.073 -0.1719  0.0274  0.2215
13457DDP     C480742   4.504   6.782  17.743  0.2975  0.0628 -0.0848
13458DDP     C180743  11.883   5.209  24.071  0.3147 -0.2312 -0.0784
13458DDP     P180744  11.679   4.904  24.213  0.0528  0.0551  0.1457
13458DDP     P280745  11.919   5.445  23.648 -0.3069  0.1004  0.1294
13458DDP     C280746  11.761   5.747  23.561  0.1690 -0.0458  0.1733
13458DDP     C380747  11.576   4.566  24.430 -0.3023 -0.0887  0.2890
13458DDP     C480748  11.804   5.374  24.479 -0.0043 -0.0381  0.0279
13459DDP     C180749   0.588  10.510  24.543 -0.1142 -0.1715  0.2712
13459DDP     P180750   0.962  10.670  24.769  0.0660 -0.4371  0.0323
13459DDP     P280751   0.593  10.072  24.264  0.0078 -0.0337  0.0677
13459DDP     C280752   0.764   9.762  24.076 -0.2981 -0.1674  0.3827
13459DDP     C380753   0.823  10.951  25.268  0.0213 -0.0321  0.2674
13459DDP     C480754   0.118  10.734  24.637 -0.1935 -0.0578 -0.0113
13460DDP     C180755  25.791   5.424  28.690  0.1267  0.0980  0.1763
13460DDP     P180756  25.895   5.852  28.467 -0.1099  0.0749 -0.0167
13460DDP     P280757  25.379   5.205  28.547  0.1092 -0.1197  0.1201
13460DDP     C280758  25.225   5.346  28.092 -0.1155 -0.0556 -0.0899
13460DDP     C380759  25.880   6.242  28.169 -0.0375  0.1081 -0.0961
13460DDP     C480760  26.023   5.254  29.014  0.4414  0.0325 -0.0239
13461DDP     C180761  26.266  11.821  24.254 -0.1915 -0.1051  0.3514
13461DDP     P180762  25.921  12.112  24.069  0.3190 -0.1252 -0.1029
13461DDP     P280763  26.636  11.815  23.953  0.0010  0.6775  0.1811
13461DDP     C280764  26.916  11.845  23.508 -0.0167 -0.0874 -0.2365
13461DDP     C380765  25.500  11.995  23.931 -0.0493 -0.1169  0.1607
13461DDP     C480766  26.206  11.701  24.641  0.3578 -0.0817 -0.1070
13462DDP     C180767  13.758  21.658  20.761  0.0396  0.1868 -0.2401
13462DDP     P180768  13.353  21.591  20.698  0.0953 -0.1985  0.1318
13462DDP     P280769  13.798  21.242  20.699 -0.0547 -0.0612 -0.2165
13462DDP     C280770  13.712  20.889  20.871 -0.2558  0.2797  0.1465
13462DDP     C380771  12.984  21.593  20.770 -0.1321  0.0328 -0.0826
13462DDP     C480772  14.132  21.846  20.940 -0.5339  0.0666 -0.2644
13463DDP     C180773  15.233   3.061   0.339 -0.1118  0.0946 -0.0951
13463DDP     P180774  14.888   3.369   0.089  0.1762  0.0819  0.2017
13463DDP     P280775  15.303   2.920   0.670 -0.1080  0.1925 -0.0297
13463DDP     C280776  15.347   3.101   1.072 -0.0340 -0.3793 -0.1614
13463DDP     C380777  14.516   3.613   0.089 -0.1044 -0.3190 -0.1320
13463DDP     C480778  15.307   2.746   0.082  0.1450 -0.1226  0.2036
13464DDP     C180779  24.892  24.245   3.952  0.0032  0.1135 -0.1397
13464DDP     P180780  24.911  24.432   3.692  0.1185  0.1286 -0.3125
13464DDP     P280781  25.189  23.931   3.819  0.2432 -0.1549 -0.1337
13464DDP     C280782  24.965  23.599   3.595 -0.2852  0.0940 -0.1092
13464DDP     C380783  24.807  24.277   3.289  0.3108 -0.2974  0.0527
13464DDP     C480784  24.829  24.516   4.363  0.0199 -0.1226  0.1221
13465DDP     C180785  18.967  26.819  26.913 -0.0670  0.0950  0.2696
13465DDP     P180786  18.587  26.709  26.785  0.3190  0.1965 -0.2142
13465DDP     P280787  19.382  26.577  26.697 -0.3711 -0.2314 -0.2001
13465DDP     C280788  19.501  26.572  26.372 -0.1557  0.1278 -0.1171
13465DDP     C380789  18.331  27.086  26.692 -0.0386  0.2988 -0.0026
13465DDP     C480790  19.084  27.082  27.200 -0.0294 -0.0758  0.1298
13466DDP     C180791  26.833  19.567   1.734 -0.0070  0.1641  0.0794
13466DDP     P180792  27.149  19.914   1.612  0.2528  0.0505 -0.0842
13466DDP     P280793  26.711  19.580   2.154  0.0241  0.1947  0.0342
13466DDP     C280794  26.834  19.260   2.506  0.0536 -0.0676 -0.1438
13466DDP     C380795  27.045  20.361   1.470 -0.0473 -0.3408 -0.1783
13466DDP     C480796  26.762  19.242   1.434 -0.1765  0.0728 -0.0269
13467DDP     C180797  16.947  18.778   7.183 -0.4228  0.0305  0.1598
13467DDP     P180798  16.808  18.372   6.910  0.0452  0.1275 -0.2687
13467DDP     P280799  16.672  19.091   7.307  0.2168 -0.1260 -0.0679
13467DDP     C280800  16.548  19.492   7.426  0.1635 -0.2207 -0.0834
13467DDP     C380801  16.488  18.004   6.709  0.0434  0.2505 -0.1268
13467DDP     C480802  17.402  18.760   7.414 -0.2122  0.2166  0.2641
13468DDP     C180803  17.557  19.598   5.423  0.2515 -0.1688  0.1308
13468DDP     P180804  18.040  19.848   5.454  0.0853  0.3088  0.2938
13468DDP     P280805  17.351  19.538   5.761 -0.0234 -0.1041 -0.1671
13468DDP     C280806  17.218  19.409   6.166 -0.2513  0.3661 -0.0311
13468DDP     C380807  18.428  19.900   5.550  0.1043  0.2362  0.2621
13468DDP     C480808  17.299  19.584   5.052 -0.1681 -0.1005 -0.0371
13469DDP     C180809  13.230  28.600  30.102  0.1425 -0.0247  0.1161
13469DDP     P180810  12.879  28.814  29.779  0.1437  0.2889 -0.2349
13469DDP     P280811  13.233  28.207  29.806 -0.0019  0.0261 -0.1113
13469DDP     C280812  13.289  28.293  29.403 -0.0028 -0.1587 -0.1069
13469DDP     C380813  12.628  28.941  29.534  0.0949 -0.0308  0.1914
13469DDP     C480814  13.569  28.787   0.084 -0.0063  0.4087 -0.2762
13470DDP     C180815  28.182  22.421  19.738  0.0893  0.2158  0.2002
13470DDP     P180816  28.316  22.126  19.418 -0.4966 -0.1755 -0.1231
13470DDP     P280817  28.500  22.787  19.762  0.1154 -0.0500 -0.2095
13470DDP     C280818  28.815  22.964  20.016 -0.2657 -0.1064 -0.2440
13470DDP     C380819  28.671  22.294  19.101 -0.2768 -0.0264  0.0911
13470DDP     C480820  27.864  22.218  19.989 -0.0790 -0.3986  0.2593
13471DDP     C180821  11.314   2.131  18.156 -0.3432 -0.1093  0.2463
13471DDP     P180822  10.931   2.029  18.137  0.1523  0.0796  0.2874
13471DDP     P280823  11.503   2.021  18.657 -0.0007 -0.3608 -0.1697
13471DDP     C280824  11.664   2.211  19.007 -0.3314  0.1183  0.2849
13471DDP     C380825  10.622   1.767  18.333 -0.0892 -0.0110 -0.0187
13471DDP     C480826  11.531   2.173  17.696  0.1705  0.2838  0.2922
13472DDP     C180827  12.133  21.694   3.280 -0.0963 -0.2584 -0.2771
13472DDP     P180828  12.171  22.068   3.587  0.1745 -0.1354  0.2327
13472DDP     P280829  12.376  21.362   3.409 -0.2270 -0.1711 -0.1450
13472DDP     C280830  12.748  21.145   3.549 -0.0065 -0.2458  0.0405
13472DDP     C380831  12.422  22.273   3.919  0.1392 -0.1728 -0.1220
13472DDP     C480832  11.947  21.782   2.868  0.1310 -0.0214 -0.3541
13473DDP     C180833  27.412  29.864  12.276 -0.2162 -0.2071  0.1292
13473DDP     P180834  27.611  29.615  11.830 -0.2977 -0.1610  0.3598
13473DDP     P280835  27.385  29.672  12.620  0.2666  0.1072  0.0652
13473DDP     C280836  27.531  29.500  12.943 -0.1322  0.2874 -0.1051
13473DDP     C380837  27.323  29.638  11.517 -0.0687  0.2075 -0.0892
13473DDP     C480838  27.359  30.252  12.420 -0.0745 -0.1669 -0.0236
13474DDP     C180839  10.359  19.239  29.986 -0.2647  0.0685 -0.0759
13474DDP     P180840  10.179  18.985  30.220 -0.1359  0.0084 -0.0273
13474DDP     P280841  10.851  19.147  30.023  0.1442 -0.0346  0.0998
13474DDP     C280842  11.270  19.392  30.267  0.2965  0.0298 -0.0845
13474DDP     C380843  10.043  19.026   0.355 -0.1280  0.1751  0.0477
13474DDP     C480844  10.272  19.435  29.764  0.0973 -0.0245  0.0900
13475DDP     C180845  14.583  25.139  20.939  0.1934 -0.0118  0.2172
13475DDP     P180846  14.524  25.502  20.618  0.1231 -0.3021 -0.2164
13475DDP     P280847  14.914  24.901  20.974 -0.1053  0.1422  0.0719
13475DDP     C280848  14.948  24.490  20.825 -0.1006  0.2988  0.1100
13475DDP     C380849  14.480  26.024  20.761 -0.0301  0.1013 -0.1297
13475DDP     C480850  14.293  25.072  21.228 -0.4501 -0.0848 -0.0590
13476DDP     C180851  10.271  23.914  26.065  0.3078  0.2275 -0.1435
13476DDP     P180852  10.233  24.395  26.014 -0.3299 -0.0500 -0.2218
13476DDP     P280853   9.949  23.589  26.130  0.2047 -0.1608  0.1367
13476DDP     C280854   9.903  23.527  25.679 -0.4203  0.3737  0.0301
13476DDP     C380855   9.879  24.627  25.986 -0.1628 -0.0338  0.2074
13476DDP     C480856  10.662  23.677  25.964 -0.0860  0.1453 -0.0210
13477DDP     C180857  12.046  18.730  26.605 -0.0544 -0.0820  0.1279
13477DDP     P180858  11.714  19.084  26.566  0.0910 -0.6010  0.0784
13477DDP     P280859  11.938  18.530  27.037 -0.1385 -0.1063  0.0234
13477DDP     C280860  11.886  18.576  27.437 -0.0426 -0.0398 -0.3128
13477DDP     C380861  11.299  19.393  26.444 -0.1884 -0.1462 -0.1745
13477DDP     C480862  12.382  18.573  26.363  0.0020 -0.2269  0.1026
13478DDP     C180863   3.880  29.466   1.561 -0.0178 -0.1679  0.1945
13478DDP     P180864   4.031  29.088   1.787 -0.1934  0.0044  0.0621
13478DDP     P280865   3.734  29.787   1.862  0.1194  0.3187 -0.0431
13478DDP     C280866   3.730  30.017   2.270 -0.2144 -0.5802  0.1043
13478DDP     C380867   4.186  28.784   1.941  0.2518  0.2631  0.0443
13478DDP     C480868   4.044  29.508   1.057 -0.0192 -0.0258  0.0138
13479DDP     C180869  22.260   5.961   1.432 -0.0707  0.0853 -0.1648
13479DDP     P180870  22.473   5.872   1.103 -0.3759 -0.3209  0.1955
13479DDP     P280871  22.104   6.444   1.468  0.2100 -0.1529  0.4257
13479DDP     C280872  21.805   6.582   1.876  0.1592  0.1977 -0.1186
13479DDP     C380873  22.504   5.756   0.664  0.1240 -0.1118  0.1399
13479DDP     C480874  21.917   5.599   1.487  0.1253  0.3610 -0.0285
13480DDP     C180875  25.429   9.851  15.564 -0.3776  0.2973  0.0915
13480DDP     P180876  25.419   9.662  15.168  0.3129  0.0520  0.1577
13480DDP     P280877  25.311   9.645  15.966  0.0332  0.1414 -0.0308
13480DDP     C280878  25.201   9.743  16.397  0.1385 -0.3138  0.0856
13480DDP     C380879  25.671   9.590  14.777  0.4402  0.0789  0.0081
13480DDP     C480880  25.494  10.249  15.620  0.0319  0.3065  0.1347
13481DDP     C180881  13.138  18.219  25.644 -0.0518 -0.2077  0.1093
13481DDP     P180882  13.088  18.618  25.851 -0.3461  0.1383 -0.1199
13481DDP     P280883  13.134  17.879  26.021 -0.2460  0.2204  0.0186
13481DDP     C280884  13.208  18.006  26.504 -0.0061  0.0795 -0.2075
13481DDP     C380885  13.035  19.033  25.999 -0.0152 -0.0001  0.0475
13481DDP     C480886  13.118  18.174  25.185  0.1985  0.3290 -0.4839
13482DDP     C180887   5.430  28.512  20.321  0.2757  0.1350  0.3225
13482DDP     P180888   5.064  28.595  20.573  0.0185 -0.2657 -0.3154
13482DDP     P280889   5.616  28.137  20.342 -0.2013 -0.1787 -0.0358
13482DDP     C280890   5.637  27.775  20.612 -0.0226  0.4015  0.1552
13482DDP     C380891   4.670  28.716  20.762  0.1435  0.1384  0.2098
13482DDP     C480892   5.563  28.711  19.843 -0.0298  0.1240  0.0426
13483DDP     C180893   4.857  20.080  24.416  0.0704  0.2253 -0.2282
13483DDP     P180894   5.145  19.945  24.762 -0.1445  0.0862  0.0454
13483DDP     P280895   4.927  19.894  24.036 -0.0846  0.0041  0.1083
13483DDP     C280896   5.219  19.617  23.801  0.0467  0.0674 -0.1768
13483DDP     C380897   5.445  19.789  25.041  0.1700  0.1537 -0.1448
13483DDP     C480898   4.620  20.446  24.476  0.0932 -0.1396 -0.5302
13484DDP     C180899  19.982  29.047  10.006 -0.1417  0.2229  0.2277
13484DDP     P180900  19.642  28.990  10.230  0.1076  0.2172 -0.0663
13484DDP     P280901  20.137  29.162   9.595  0.1687 -0.1805  0.0982
13484DDP     C280902  20.332  29.113   9.147  0.3804  0.3001 -0.2572
13484DDP     C380903  19.331  28.844  10.591  0.1777 -0.1037  0.0738
13484DDP     C480904  20.458  29.262  10.209 -0.1520  0.0884 -0.0104
13485DDP     C180905   6.751   7.490  12.398 -0.2929  0.0662  0.1229
13485DDP     P180906   6.396   7.395  12.055 -0.2251  0.1620 -0.1292
13485DDP     P280907   7.107   7.846  12.471  0.1650 -0.2447 -0.0181
13485DDP     C280908   7.583   7.970  12.579 -0.0893 -0.0019 -0.1180
13485DDP     C380909   6.200   7.626  11.634  0.0049  0.3323  0.0230
13485DDP     C480910   6.850   7.111  12.658  0.0777 -0.3444 -0.1495
13486DDP     C180911   9.048  11.164   9.555 -0.1882 -0.0037  0.1680
13486DDP     P180912   9.105  10.912   9.926  0.2217  0.0399  0.1719
13486DDP     P280913   9.349  11.461   9.255  0.2655  0.1573  0.2074
13486DDP     C280914   9.746  11.597   9.330 -0.3703  0.1893 -0.3168
13486DDP     C380915   9.230  10.599   9.901  0.1442 -0.0294 -0.0337
13486DDP     C480916   8.558  11.352   9.477  0.1100 -0.2104 -0.0860
13487DDP     C180917  11.206   5.137   1.050 -0.0963 -0.0893 -0.2256
13487DDP     P180918  10.798   4.922   1.049  0.0147 -0.0377  0.0769
13487DDP     P280919  11.252   5.413   1.444 -0.0547 -0.3107  0.1895
13487DDP     C280920  11.132   5.887   1.619  0.0325  0.1087  0.2482
13487DDP     C380921  10.469   4.877   1.336 -0.0934 -0.0434 -0.0717
13487DDP     C480922  11.511   4.953   0.779  0.0181  0.3178  0.2385
13488DDP     C180923  24.162  15.979   8.727 -0.1128 -0.0868  0.1874
13488DDP     P180924  23.842  15.839   8.844  0.0582  0.0744 -0.0345
13488DDP     P280925  24.365  16.177   9.109 -0.0665 -0.1536 -0.2221
13488DDP     C280926  24.716  16.451   9.190 -0.2502  0.0677  0.0504
13488DDP     C380927  23.416  15.853   9.159 -0.0398  0.2132  0.0847
13488DDP     C480928  24.420  16.071   8.306  0.0362  0.2593  0.3154
13489DDP     C180929  26.156   5.914   6.107 -0.0653 -0.0380  0.2290
13489DDP     P180930  26.488   6.214   6.018 -0.1426 -0.2922 -0.1611
13489DDP     P280931  25.849   5.619   6.146 -0.0423  0.2317 -0.1727
13489DDP     C280932  25.393   5.834   6.156 -0.0488  0.3048 -0.0929
13489DDP     C380933  26.864   6.266   6.172  0.0020  0.0119  0.0729
13489DDP     C480934  26.009   6.245   5.749 -0.1525  0.1232 -0.1127
13490DDP     C180935  15.741  21.394  12.082 -0.0529  0.0186  0.0111
13490DDP     P180936  15.437  21.700  12.296 -0.1523  0.3825  0.0769
13490DDP     P280937  15.981  21.510  11.703 -0.0239  0.2309  0.1705
13490DDP     C280938  16.439  21.623  11.531  0.2270 -0.5188 -0.0452
13490DDP     C380939  15.193  21.707  12.716 -0.0028 -0.1845 -0.1031
13490DDP     C480940  15.701  20.991  12.261 -0.0760  0.2355 -0.1038
13491DDP     C180941  11.542  25.298   9.185 -0.2777 -0.0236  0.3511
13491DDP     P180942  11.909  25.328   9.358  0.1560  0.0760  0.1361
13491DDP     P280943  11.540  25.261   8.740  0.5539 -0.0765  0.1242
13491DDP     C280944  11.808  25.457   8.523  0.1222  0.0829 -0.2129
13491DDP     C380945  12.031  25.117   9.804 -0.0325  0.3362  0.0047
13491DDP     C480946  11.225  25.257   9.449 -0.1376 -0.2704  0.3550
13492DDP     C180947   9.710  19.471  17.378 -0.1401 -0.0678 -0.1317
13492DDP     P180948   9.614  19.649  17.729 -0.1230 -0.5103  0.1091
13492DDP     P280949   9.324  19.317  17.166  0.0953 -0.0001 -0.1042
13492DDP     C280950   9.023  19.064  17.239 -0.0760 -0.0388  0.3472
13492DDP     C380951   9.612  20.013  17.930 -0.0531  0.0626  0.1593
13492DDP     C480952  10.069  19.317  17.386  0.0450 -0.0944  0.3719
13493DDP     C180953   1.482  27.402   2.482 -0.1232  0.1929 -0.0223
13493DDP     P180954   1.053  27.338   2.370 -0.0364 -0.1889  0.0646
13493DDP     P280955   1.387  27.737   2.769  0.3012 -0.1121 -0.3171
13493DDP     C280956   1.645  27.961   3.006  0.3490  0.1679  0.1131
13493DDP     C380957   0.924  27.358   1.919  0.0696 -0.1129  0.3052
13493DDP     C480958   1.795  27.444   2.256 -0.2346 -0.0172 -0.3166
13494DDP     C180959  15.842  14.335   1.840 -0.2680 -0.2660 -0.1776
13494DDP     P180960  15.577  14.259   1.504 -0.1455 -0.2611  0.1168
13494DDP     P280961  15.923  14.784   1.991 -0.1443  0.3099  0.1612
13494DDP     C280962  16.114  15.191   2.022  0.2312  0.0980 -0.1296
13494DDP     C380963  15.309  14.304   1.189 -0.1717  0.1411  0.1948
13494DDP     C480964  16.269  14.119   1.785  0.2572 -0.0084 -0.0687
13495DDP     C180965   9.795  11.427  18.030  0.2614 -0.2319  0.2494
13495DDP     P180966   9.852  11.819  17.941 -0.0474 -0.1451 -0.0346
13495DDP     P280967  10.175  11.158  18.166 -0.0434  0.2325  0.1713
13495DDP     C280968  10.589  11.069  18.383  0.0763 -0.2875 -0.1660
13495DDP     C380969  10.075  12.129  18.066 -0.0604  0.4364 -0.2454
13495DDP     C480970   9.374  11.252  17.979 -0.0400 -0.1843 -0.0121
13496DDP     C180971  15.370  30.112  12.296 -0.0561 -0.2819  0.3490
13496DDP     P180972  14.880  30.209  12.381 -0.1456 -0.0495 -0.0516
13496DDP     P280973  15.466  29.955  11.868 -0.0083 -0.4146 -0.0320
13496DDP     C280974  15.642  29.538  11.822  0.0562  0.2432  0.1114
13496DDP     C380975  14.485  30.106  12.262  0.1782 -0.1595  0.2584
13496DDP     C480976  15.597  30.007  12.560 -0.1700 -0.1590  0.2686
13497DDP     C180977  24.211  19.149  29.690  0.0476 -0.1028 -0.0598
13497DDP     P180978  24.166  19.593  29.720  0.0616  0.2705 -0.0660
13497DDP     P280979  24.068  18.904  30.107  0.0096 -0.1112 -0.0411
13497DDP     C280980  23.872  19.135   0.248  0.0305 -0.1399  0.4242
13497DDP     C380981  23.891  19.940  29.942  0.2388 -0.0221 -0.0929
13497DDP     C480982  24.465  18.987  29.378 -0.0974  0.0052 -0.0399
13498DDP     C180983  10.127  16.361   2.486 -0.1178  0.0874  0.3142
13498DDP     P180984   9.814  16.581   2.596 -0.0653 -0.1212 -0.1350
13498DDP     P280985  10.495  16.390   2.669 -0.0569  0.0358 -0.1115
13498DDP     C280986  10.872  16.541   2.547  0.0266 -0.2110  0.0765
13498DDP     C380987   9.412  16.754   2.679 -0.0305  0.4589 -0.0026
13498DDP     C480988  10.077  16.173   1.976 -0.1317 -0.0636  0.0467
13499DDP     C180989   2.692   6.485  19.481 -0.1994 -0.0769  0.0104
13499DDP     P180990   2.998   6.295  19.286  0.2383  0.1747 -0.3513
13499DDP     P280991   2.721   6.522  19.953  0.0375  0.2484  0.1458
13499DDP     C280992   2.489   6.670  20.358  0.4166 -0.0806 -0.1917
13499DDP     C380993   3.246   5.831  19.285  0.0022 -0.1464  0.1768
13499DDP     C480994   2.389   6.646  19.245 -0.2100 -0.2143  0.2502
13500DDP     C180995  14.458  17.450  25.184 -0.2325 -0.0240 -0.0700
13500DDP     P180996  14.539  17.884  25.160  0.0096 -0.1379 -0.0146
13500DDP     P280997  14.732  17.502  25.511 -0.2954  0.1886  0.2523
13500DDP     C280998  14.936  17.203  25.813 -0.0046 -0.0699 -0.0187
13500DDP     C380999  14.481  18.326  25.272  0.1322 -0.0373  0.1477
13500DDP     C481000  14.263  17.106  25.241  0.0356 -0.2429 -0.2125
13501DDP     C181001   0.140  10.374  25.020 -0.1210  0.2510 -0.2090
13501DDP     P181002  30.095  10.339  25.310 -0.0793 -0.0405  0.1903
13501DDP     P281003   0.142  10.236  24.628 -0.2669 -0.1839 -0.1359
13501DDP     C281004   0.280   9.796  24.536 -0.2405  0.1361  0.1535
13501DDP     C381005  29.873   9.903  25.448  0.2758 -0.0156 -0.1687
13501DDP     C481006   0.439  10.619  25.087 -0.0878  0.4001 -0.0557
13502DDP     C181007  27.988  19.656   9.423 -0.1531 -0.2543 -0.4513
13502DDP     P181008  28.257  19.552   9.086  0.0416 -0.0630  0.1513
13502DDP     P281009  27.664  20.046   9.405 -0.0840 -0.0832 -0.0727
13502DDP     C281010  27.349  20.346   9.540  0.2048  0.0685 -0.0759
13502DDP     C381011  28.300  19.131   8.825  0.2283 -0.1546 -0.0111
13502DDP     C481012  27.771  19.340   9.742  0.2497 -0.0977  0.0306
13503DDP     C181013  21.669  15.937  18.705 -0.2025 -0.1471 -0.2946
13503DDP     P181014  22.021  15.805  18.967  0.0632  0.4302 -0.0089
13503DDP     P281015  21.351  15.672  18.713 -0.2745  0.0138 -0.0601
13503DDP     C281016  21.157  15.387  18.962  0.2012  0.3132 -0.0894
13503DDP     C381017  22.374  15.610  19.233 -0.0453 -0.1758  0.0695
13503DDP     C481018  21.646  16.136  18.376 -0.1298  0.5025 -0.0263
13504DDP     C181019  15.313  10.065   6.075 -0.3088  0.1265  0.3047
13504DDP     P181020  15.709   9.743   6.094 -0.0542  0.1146 -0.2110
13504DDP     P281021  15.121  10.131   5.742  0.0711 -0.1742 -0.1147
13504DDP     C281022  14.795  10.118   5.379  0.1502 -0.1467 -0.0531
13504DDP     C381023  15.775   9.378   6.265 -0.1389 -0.2118 -0.1897
13504DDP     C481024  15.211  10.351   6.402  0.0070  0.0260 -0.0876
13505DDP     C181025  24.857   6.725   0.724  0.0093  0.0742  0.1093
13505DDP     P181026  24.984   7.109   0.875 -0.0343 -0.0571 -0.1073
13505DDP     P281027  24.482   6.600   0.914 -0.0160 -0.2415  0.2711
13505DDP     C281028  24.123   6.686   1.196 -0.0983 -0.3256  0.1389
13505DDP     C381029  25.370   7.036   0.741  0.1009 -0.2014  0.1447
13505DDP     C481030  25.092   6.374   0.484 -0.2215 -0.1918 -0.0544
13506DDP     C181031  20.471  20.661   0.748  0.0666 -0.1257  0.1072
13506DDP     P181032  19.992  20.741   0.647 -0.1037  0.0345 -0.0304
13506DDP     P281033  20.896  20.422   1.013  0.1883  0.1405  0.2229
13506DDP     C281034  21.184  20.605   1.414 -0.1685 -0.1570  0.1915
13506DDP     C381035  19.889  20.569   0.297 -0.0409  0.3419  0.0256
13506DDP     C481036  20.418  20.582   0.301 -0.0654  0.0410  0.0107
13507DDP     C181037  22.996   6.068   2.825 -0.2071 -0.1956 -0.1840
13507DDP     P181038  23.375   5.790   2.816  0.1608 -0.2919  0.3799
13507DDP     P281039  23.007   6.440   3.002 -0.4385  0.2685  0.0679
13507DDP     C281040  23.130   6.940   3.164 -0.2524  0.0182 -0.1558
13507DDP     C381041  23.613   5.406   3.015  0.0306 -0.2124 -0.1281
13507DDP     C481042  22.665   5.885   2.706 -0.4748  0.2195  0.0686
13508DDP     C181043  11.657   7.616   8.327  0.1279 -0.3497  0.3404
13508DDP     P181044  11.895   7.886   8.103 -0.0029  0.0683  0.1143
13508DDP     P281045  11.265   7.455   8.597  0.2702  0.1349 -0.0402
13508DDP     C281046  11.321   7.149   8.877  0.0113 -0.1865  0.1131
13508DDP     C381047  12.160   8.187   7.827 -0.0873 -0.2358 -0.4269
13508DDP     C481048  11.718   7.468   8.774 -0.1426 -0.1187  0.4364
13509DDP     C181049  19.577  10.497   1.708 -0.1954  0.0099 -0.1973
13509DDP     P181050  19.940  10.422   1.664  0.1349  0.1626 -0.1459
13509DDP     P281051  19.257  10.326   1.965  0.1629 -0.0983 -0.3398
13509DDP     C281052  18.845  10.591   2.082  0.1020  0.0307  0.0183
13509DDP     C381053  20.164  10.073   1.415  0.1178  0.1690 -0.0620
13509DDP     C481054  19.506  10.761   1.502 -0.1579  0.3042 -0.2658
13510DDP     C181055  11.406  24.997   7.130 -0.0357  0.1766 -0.0908
13510DDP     P181056  11.281  24.514   7.132 -0.4237 -0.2865  0.0623
13510DDP     P281057  11.369  25.179   7.523  0.0477  0.0613 -0.0157
13510DDP     C281058  11.158  25.533   7.732 -0.2496  0.1029  0.0019
13510DDP     C381059  11.023  24.272   7.359  0.0397 -0.0162 -0.3810
13510DDP     C481060  11.345  25.317   6.823  0.2781 -0.0189 -0.0573
13511DDP     C181061  24.668   1.968  16.788  0.1823 -0.1716  0.0031
13511DDP     P181062  24.285   1.841  16.666  0.0919 -0.0379 -0.1323
13511DDP     P281063  24.674   2.218  17.166 -0.0264  0.0824  0.1197
13511DDP     C281064  24.994   2.411  17.253  0.0070  0.3860  0.2223
13511DDP     C381065  23.867   2.038  16.507  0.1671  0.1915  0.2018
13511DDP     C481066  24.797   2.261  16.389 -0.1347 -0.0659 -0.4751
13512DDP     C181067   5.749  26.826   8.836 -0.1169  0.0417  0.1789
13512DDP     P181068   5.952  26.440   8.910 -0.0384 -0.1163  0.1914
13512DDP     P281069   5.931  27.160   8.965 -0.1487 -0.0166 -0.3182
13512DDP     C281070   5.947  27.372   9.315  0.1074 -0.2161 -0.0913
13512DDP     C381071   6.112  26.051   9.064  0.0556  0.0991 -0.2275
13512DDP     C481072   5.537  26.971   8.397 -0.2014  0.1032  0.2783
13513DDP     C181073   4.996  10.905  15.445  0.1687 -0.4910  0.5644
13513DDP     P181074   5.235  10.550  15.497  0.2384 -0.4025  0.0628
13513DDP     P281075   4.964  11.063  15.082 -0.0118  0.0704  0.3053
13513DDP     C281076   5.271  11.063  14.747 -0.2242 -0.2591  0.1396
13513DDP     C381077   5.277  10.298  15.859  0.0204 -0.0343 -0.1448
13513DDP     C481078   4.851  11.069  15.835 -0.4395 -0.1690  0.4928
13514DDP     C181079  18.298  30.263   4.646 -0.0684  0.0768  0.1274
13514DDP     P181080  18.826  30.160   4.593 -0.2048  0.3501 -0.2411
13514DDP     P281081  18.069   0.276   4.866 -0.1923 -0.3184  0.1184
13514DDP     C281082  17.898   0.340   5.309 -0.1260 -0.1119 -0.0180
13514DDP     C381083  19.033  30.208   4.213  0.2809  0.0436  0.1134
13514DDP     C481084  18.124  30.136   4.322 -0.0680 -0.0445 -0.1790
13515DDP     C181085  21.586  19.956  18.230 -0.0166 -0.3261  0.0273
13515DDP     P181086  21.389  19.637  18.039 -0.0359  0.2663 -0.1025
13515DDP     P281087  21.956  20.134  18.257 -0.0923  0.0682 -0.0108
13515DDP     C281088  22.057  20.417  18.564  0.0471  0.1279  0.0259
13515DDP     C381089  21.123  19.312  18.028 -0.0943 -0.2780 -0.2480
13515DDP     C481090  21.263  20.247  18.362  0.0418  0.3003 -0.2649
13516DDP     C181091  20.079  28.351   1.418 -0.1358 -0.0728 -0.1495
13516DDP     P181092  20.090  28.050   1.692  0.0087  0.0690 -0.0279
13516DDP     P281093  20.287  28.660   1.566 -0.2739 -0.1975 -0.2417
13516DDP     C281094  20.295  29.118   1.380  0.0401 -0.0967  0.0282
13516DDP     C381095  19.966  27.891   1.982 -0.3550  0.2339  0.1713
13516DDP     C481096  19.737  28.346   1.250 -0.0112 -0.1628 -0.0539
13517DDP     C181097  23.187  29.002   6.705 -0.0446  0.0897 -0.1133
13517DDP     P181098  23.042  28.847   6.352 -0.2497 -0.1148 -0.3444
13517DDP     P281099  23.440  29.446   6.691  0.0124  0.0756  0.3153
13517DDP     C281100  23.541  29.817   6.906 -0.1489 -0.0645  0.2391
13517DDP     C381101  22.984  29.007   5.946  0.0377  0.2227  0.1329
13517DDP     C481102  23.082  28.847   7.062  0.0619 -0.0243  0.2032
13518DDP     C181103   3.812   9.972  13.967  0.1597 -0.3043 -0.0972
13518DDP     P181104   3.516  10.317  13.948 -0.0357 -0.0790 -0.1150
13518DDP     P281105   4.095  10.121  14.173  0.1026  0.1747  0.0788
13518DDP     C281106   4.289  10.331  14.491  0.0585 -0.2869  0.1224
13518DDP     C381107   3.577  10.693  13.692  0.1768  0.0530  0.0031
13518DDP     C481108   3.814   9.479  13.958 -0.0497  0.1475  0.4610
13519DDP     C181109  14.015  11.223  24.538 -0.0913 -0.0114 -0.0269
13519DDP     P181110  14.195  11.627  24.455  0.1268 -0.0976  0.0542
13519DDP     P281111  14.281  10.982  24.321 -0.2436  0.3400 -0.2214
13519DDP     C281112  14.218  10.612  24.229 -0.3655 -0.0238 -0.0836
13519DDP     C381113  14.280  12.058  24.329  0.0183  0.0376  0.1035
13519DDP     C481114  13.861  11.221  24.912 -0.0179 -0.0102  0.1822
13520DDP     C181115  14.216  17.316  18.440 -0.3434  0.1677  0.1104
13520DDP     P181116  13.943  17.442  18.092  0.0755 -0.2541  0.5541
13520DDP     P281117  14.398  17.662  18.614 -0.0968  0.0429  0.0771
13520DDP     C281118  14.881  17.772  18.801 -0.1586 -0.0734 -0.2902
13520DDP     C381119  13.713  17.867  17.880  0.0861  0.0466  0.2728
13520DDP     C481120  14.205  16.891  18.530 -0.1100 -0.0694 -0.2233
13521DDP     C181121  15.263   4.225  22.130  0.0674  0.0100  0.1863
13521DDP     P181122  15.695   4.227  22.088  0.0293 -0.2361  0.1722
13521DDP     P281123  15.299   4.416  22.525 -0.2842  0.2110 -0.4318
13521DDP     C281124  15.411   4.705  22.805 -0.2954  0.0019  0.0043
13521DDP     C381125  16.049   4.486  21.893  0.0823  0.2314  0.0571
13521DDP     C481126  14.825   4.347  22.008 -0.0436  0.3163  0.1492
13522DDP     C181127  17.620  10.148  16.150  0.1360  0.0767  0.1041
13522DDP     P181128  17.928  10.285  15.964 -0.2027 -0.1279 -0.0251
13522DDP     P281129  17.233  10.230  16.260  0.0089  0.1976  0.2890
13522DDP     C281130  17.085  10.577  16.483 -0.1248  0.0012  0.1180
13522DDP     C381131  18.212  10.455  15.837 -0.3394 -0.1244  0.2120
13522DDP     C481132  17.780  10.079  16.662 -0.2036 -0.2374 -0.0339
13523DDP     C181133  16.705   3.400   1.262  0.2740 -0.0896 -0.1151
13523DDP     P181134  16.518   3.361   1.705 -0.3676  0.0804  0.3161
13523DDP     P281135  16.511   3.113   1.125  0.1639  0.2649 -0.1250
13523DDP     C281136  16.486   2.705   1.207 -0.0297  0.0035  0.1143
13523DDP     C381137  16.450   3.476   2.222 -0.0535 -0.1285  0.0196
13523DDP     C481138  16.717   3.890   1.333  0.1178  0.3069 -0.3477
13524DDP     C181139  21.134  13.977  24.243  0.1923 -0.1270 -0.2587
13524DDP     P181140  21.610  13.713  24.339  0.3126 -0.0967  0.0536
13524DDP     P281141  21.049  14.149  23.917 -0.0238  0.1499  0.0930
13524DDP     C281142  21.038  14.526  23.541  0.1112  0.0498  0.0215
13524DDP     C381143  21.853  13.254  24.485  0.0388 -0.0258 -0.0662
13524DDP     C481144  20.813  14.159  24.546  0.1500 -0.0058  0.1863
13525DDP     C181145   6.407   4.829   0.883 -0.2488  0.1422 -0.0553
13525DDP     P181146   6.321   4.453   1.057  0.1357  0.0111  0.4095
13525DDP     P281147   5.956   4.924   0.795  0.2737 -0.0466 -0.0056
13525DDP     C281148   5.434   4.884   0.739 -0.2247 -0.2302  0.0834
13525DDP     C381149   6.342   4.122   1.082 -0.1800 -0.0959  0.2132
13525DDP     C481150   6.834   4.950   0.800  0.2186 -0.0807  0.4292
13526DDP     C181151   9.467  22.336   1.476 -0.5475  0.0136 -0.0838
13526DDP     P181152   9.389  22.651   1.744  0.0833  0.3074 -0.0519
13526DDP     P281153   9.275  22.385   1.042 -0.2255  0.1828  0.0662
13526DDP     C281154   9.476  22.506   0.667  0.2195 -0.2217 -0.1103
13526DDP     C381155   9.126  22.940   2.001  0.0618  0.0305 -0.1970
13526DDP     C481156   9.720  22.049   1.657  0.2585  0.3957  0.0821
13527DDP     C181157   0.063  28.055  11.585  0.1329 -0.0934  0.0634
13527DDP     P181158   0.351  27.756  11.793  0.2617  0.0895  0.1263
13527DDP     P281159  29.864  27.926  11.502 -0.1260 -0.1650 -0.0418
13527DDP     C281160  29.797  27.495  11.684  0.1905  0.1145  0.1170
13527DDP     C381161   0.762  27.787  12.070  0.1943  0.0620 -0.3690
13527DDP     C481162   0.368  28.357  11.454  0.0935  0.2158  0.3416
13528DDP     C181163   8.440  11.935   0.885  0.0692  0.0614 -0.0367
13528DDP     P181164   8.703  12.084   1.358  0.0811 -0.2503 -0.0799
13528DDP     P281165   8.092  12.143   0.703  0.0639  0.1001 -0.2365
13528DDP     C281166   7.819  12.425   0.997 -0.1913  0.2472  0.0619
13528DDP     C381167   8.978  12.457   1.577  0.1256 -0.0667  0.0185
13528DDP     C481168   8.516  11.503   0.604 -0.2616  0.2152 -0.2016
13529DDP     C181169  28.352  12.940  23.579 -0.0591 -0.0370  0.1992
13529DDP     P181170  28.710  12.880  23.274  0.1042 -0.0415 -0.0171
13529DDP     P281171  28.433  12.742  24.039 -0.2801 -0.2435  0.0818
13529DDP     C281172  28.333  12.437  24.339  0.1930  0.1151  0.0264
13529DDP     C381173  29.157  12.785  22.996 -0.3092  0.4260 -0.1199
13529DDP     C481174  27.872  13.100  23.471 -0.2524 -0.2090  0.3340
13530DDP     C181175  19.763   0.318   5.300 -0.0274 -0.1238  0.1055
13530DDP     P181176  19.975   0.620   5.433 -0.0398 -0.2055  0.1879
13530DDP     P281177  19.569   0.177   4.951 -0.1073  0.0764  0.0300
13530DDP     C281178  19.118   0.222   4.648  0.3986  0.1573 -0.1506
13530DDP     C381179  19.744   1.000   5.769 -0.2636  0.3767  0.2299
13530DDP     C481180  19.990   0.090   5.642 -0.2250 -0.0103  0.0914
13531DDP     C181181   7.299   9.864  14.712 -0.2924 -0.1157  0.1824
13531DDP     P181182   7.238   9.968  14.305  0.1044  0.2662  0.0200
13531DDP     P281183   7.066   9.559  15.024 -0.1693  0.2627 -0.3372
13531DDP     C281184   6.873   9.531  15.341 -0.0437  0.0599  0.0205
13531DDP     C381185   7.592  10.190  13.983  0.2421  0.2658  0.0369
13531DDP     C481186   7.725  10.097  14.797  0.0021  0.1957 -0.1397
13532DDP     C181187  28.373  21.828   0.183 -0.1181  0.1486  0.0405
13532DDP     P181188  28.705  21.987   0.494  0.0921  0.2363  0.1725
13532DDP     P281189  28.183  21.364   0.369  0.1232  0.0425 -0.2737
13532DDP     C281190  28.017  21.367   0.814 -0.1149  0.0969  0.2136
13532DDP     C381191  28.784  22.328   0.654 -0.1320  0.1599 -0.2044
13532DDP     C481192  28.432  21.612  30.110 -0.0221 -0.0494  0.3118
13533DDP     C181193  23.378   5.893   9.591 -0.1446 -0.0040 -0.0161
13533DDP     P181194  22.953   5.808   9.804 -0.0007  0.0031 -0.1360
13533DDP     P281195  23.710   6.069   9.870  0.0403  0.2776 -0.0255
13533DDP     C281196  23.920   6.584   9.895 -0.4647  0.1366  0.0014
13533DDP     C381197  22.501   5.718   9.915  0.0558  0.1471 -0.2542
13533DDP     C481198  23.605   5.617   9.251  0.1967  0.2533 -0.1322
13534DDP     C181199  11.400  18.806  21.043  0.0278  0.1934 -0.0318
13534DDP     P181200  11.812  18.802  21.113 -0.0929 -0.0244  0.2447
13534DDP     P281201  11.256  18.644  21.375 -0.1896  0.0330  0.5580
13534DDP     C281202  11.369  18.777  21.855  0.0640 -0.0904 -0.1839
13534DDP     C381203  11.901  19.085  20.843  0.2643 -0.1531  0.0097
13534DDP     C481204  11.267  19.249  20.999 -0.1342 -0.0163 -0.0815
13535DDP     C181205  14.240  25.045  19.422  0.3483 -0.1159 -0.1743
13535DDP     P181206  13.837  25.267  19.389  0.2360 -0.2224 -0.0801
13535DDP     P281207  14.458  25.388  19.281  0.0225  0.0357  0.1141
13535DDP     C281208  14.609  25.754  19.283  0.2230  0.3973  0.1386
13535DDP     C381209  13.526  25.444  19.754  0.1075  0.4621  0.1796
13535DDP     C481210  14.271  24.562  19.482  0.1586 -0.1567 -0.3088
13536DDP     C181211  27.854  17.587  19.215 -0.0873  0.1734 -0.0204
13536DDP     P181212  28.278  17.701  18.956  0.0488 -0.1926  0.1465
13536DDP     P281213  27.733  17.173  19.148 -0.1218  0.2199  0.1231
13536DDP     C281214  27.842  16.799  19.370 -0.1154 -0.0388  0.1491
13536DDP     C381215  28.764  17.718  18.929 -0.0603  0.1381 -0.1848
13536DDP     C481216  27.554  17.769  19.474  0.1087 -0.0223  0.3153
13537DDP     C181217   3.877  10.707  23.885  0.1509  0.1122 -0.1417
13537DDP     P181218   3.948  10.952  24.324 -0.2813 -0.2397  0.0977
13537DDP     P281219   4.066  10.732  23.533 -0.2569 -0.2682 -0.0583
13537DDP     C281220   4.219  11.028  23.242  0.0059  0.2175  0.0101
13537DDP     C381221   3.751  11.388  24.327  0.4157 -0.2119 -0.1638
13537DDP     C481222   3.586  10.505  23.739 -0.2303  0.1375  0.0219
13538DDP     C181223   6.491  23.930  11.433 -0.2307 -0.1923 -0.0335
13538DDP     P181224   6.521  23.828  11.850  0.0109  0.1602  0.0938
13538DDP     P281225   6.238  23.890  11.067  0.0806 -0.1982  0.2195
13538DDP     C281226   6.027  24.101  10.743 -0.1423  0.2901  0.0306
13538DDP     C381227   6.316  23.409  12.100  0.2186 -0.3459 -0.0360
13538DDP     C481228   6.637  24.314  11.512 -0.2331  0.1017  0.2649
13539DDP     C181229  22.732  28.382   8.920  0.3085  0.2556  0.2096
13539DDP     P181230  22.805  28.817   9.025 -0.0876  0.3091 -0.3077
13539DDP     P281231  22.572  28.090   9.150 -0.1450 -0.1295  0.0557
13539DDP     C281232  22.748  27.610   9.172 -0.2963  0.2105 -0.0969
13539DDP     C381233  22.856  29.051   9.428 -0.1136 -0.1500  0.0074
13539DDP     C481234  22.755  28.384   8.531 -0.0841  0.1690 -0.0337
13540DDP     C181235   8.278  18.919   7.729  0.1723 -0.1220 -0.0984
13540DDP     P181236   8.634  18.894   7.438 -0.0312  0.2282 -0.0351
13540DDP     P281237   8.062  18.708   8.113 -0.1528 -0.1137  0.0293
13540DDP     C281238   7.637  18.747   8.251 -0.1124 -0.2738 -0.0257
13540DDP     C381239   9.097  18.784   7.522 -0.1200 -0.1735  0.0867
13540DDP     C481240   7.980  19.025   7.465 -0.0233 -0.1550 -0.0142
13541DDP     C181241  17.816  21.395   4.668  0.0744  0.0529  0.1692
13541DDP     P181242  17.610  21.327   4.990 -0.0724 -0.0895 -0.1754
13541DDP     P281243  17.905  21.251   4.227  0.1851 -0.2265  0.3861
13541DDP     C281244  18.087  21.182   3.828 -0.1413 -0.1522 -0.1350
13541DDP     C381245  17.686  21.104   5.229  0.1193 -0.0069  0.1943
13541DDP     C481246  17.737  21.902   4.717  0.0560  0.0110  0.1141
13542DDP     C181247  21.185  12.525  10.147  0.0428  0.0670 -0.2385
13542DDP     P181248  21.486  12.678   9.722  0.1943  0.0476 -0.0766
13542DDP     P281249  20.966  12.838  10.279  0.2680 -0.3313 -0.1228
13542DDP     C281250  20.699  13.154  10.377  0.0607 -0.2547 -0.0698
13542DDP     C381251  21.910  12.870   9.541  0.2866 -0.0483 -0.0954
13542DDP     C481252  21.386  12.200  10.424  0.1649  0.1488  0.0540
13543DDP     C181253   3.199  23.839  11.761  0.0897  0.0198  0.0878
13543DDP     P181254   3.647  23.793  11.702 -0.1085 -0.1261 -0.2179
13543DDP     P281255   2.936  23.654  12.046 -0.1214 -0.0456  0.2180
13543DDP     C281256   3.077  23.352  12.389  0.0164 -0.0997 -0.1088
13543DDP     C381257   3.931  23.687  11.361  0.2013 -0.3918  0.0022
13543DDP     C481258   3.118  24.117  11.430 -0.1599 -0.0532 -0.1095
13544DDP     C181259   8.401  23.934  22.814 -0.0632  0.0004 -0.1176
13544DDP     P181260   8.766  23.851  22.532 -0.1367  0.3259 -0.0049
13544DDP     P281261   8.302  23.534  22.781 -0.0963 -0.0866  0.0894
13544DDP     C281262   8.046  23.222  22.772 -0.2375 -0.1222  0.0755
13544DDP     C381263   9.275  23.939  22.539  0.1633  0.1681  0.3958
13544DDP     C481264   8.393  24.193  23.198  0.0792  0.3340  0.0253
13545DDP     C181265  23.089   4.636  20.005 -0.0562  0.2947 -0.0208
13545DDP     P181266  22.647   4.668  19.708 -0.0978  0.2392  0.1691
13545DDP     P281267  23.071   4.745  20.408  0.2051  0.0090 -0.0615
13545DDP     C281268  23.022   4.531  20.839 -0.0245  0.3926 -0.0988
13545DDP     C381269  22.239   4.756  19.774 -0.0693  0.4146 -0.1303
13545DDP     C481270  23.555   4.689  19.750  0.2103  0.2676 -0.3545
13546DDP     C181271  19.248   6.314   8.713 -0.1113 -0.2226 -0.0023
13546DDP     P181272  19.256   6.052   9.038  0.1613 -0.1185  0.0545
13546DDP     P281273  18.967   6.171   8.392 -0.0840  0.0306  0.0592
13546DDP     C281274  18.678   6.113   8.072 -0.3270  0.3590 -0.0871
13546DDP     C381275  19.281   5.697   9.398  0.2700 -0.0466 -0.2187
13546DDP     C481276  19.454   6.778   8.797 -0.1029  0.2548 -0.0208
13547DDP     C181277  19.218  24.300  29.321 -0.0319  0.1625  0.1228
13547DDP     P181278  18.805  24.465  29.542 -0.1577 -0.0872 -0.0808
13547DDP     P281279  19.546  24.131  29.552  0.2639 -0.1890  0.0923
13547DDP     C281280  19.802  24.419  29.779  0.4503  0.1970  0.3112
13547DDP     C381281  18.877  24.761  29.893 -0.0313  0.0408 -0.0393
13547DDP     C481282  19.322  24.175  28.866  0.0753 -0.0564 -0.2246
13548DDP     C181283  27.131   2.305  18.401 -0.1641  0.1155  0.0270
13548DDP     P181284  26.749   2.230  18.608 -0.1287 -0.0640 -0.0979
13548DDP     P281285  27.191   2.753  18.158 -0.0483  0.0975  0.0248
13548DDP     C281286  27.402   3.108  18.018 -0.1531 -0.0507  0.0536
13548DDP     C381287  26.337   2.422  18.488  0.1842  0.1611 -0.1718
13548DDP     C481288  27.573   2.137  18.478  0.0208  0.0611  0.0466
13549DDP     C181289  13.730   3.410  13.529 -0.1497  0.0032  0.0383
13549DDP     P181290  13.942   3.344  13.898  0.0458 -0.0909 -0.3295
13549DDP     P281291  13.776   3.152  13.249  0.1011  0.1801 -0.1508
13549DDP     C281292  13.631   3.173  12.788 -0.4265 -0.1861  0.0632
13549DDP     C381293  13.647   3.432  14.206 -0.0264  0.0209  0.1482
13549DDP     C481294  13.354   3.751  13.625  0.0098  0.0544  0.0941
13550DDP     C181295  22.244   0.757  13.679  0.0149 -0.2708  0.0473
13550DDP     P181296  22.554   0.983  13.494 -0.0657 -0.2318 -0.1149
13550DDP     P281297  21.859   1.011  13.815  0.0334 -0.0347 -0.1053
13550DDP     C281298  21.527   1.250  13.637  0.0514 -0.1503 -0.1191
13550DDP     C381299  22.816   1.203  13.207  0.1021  0.4816 -0.3487
13550DDP     C481300  22.175   0.556  13.220  0.1159 -0.0528 -0.1260
13551DDP     C181301  14.662   4.142   0.036  0.1368 -0.0837  0.1725
13551DDP     P181302  14.541   4.645  30.234 -0.2120 -0.1985  0.1599
13551DDP     P281303  14.480   4.120   0.457  0.2920  0.1794  0.0962
13551DDP     C281304  14.621   4.153   0.892 -0.4945  0.1798  0.4392
13551DDP     C381305  14.639   5.068  30.181 -0.0055  0.1129  0.0550
13551DDP     C481306  14.953   3.873  30.101  0.0520  0.0170 -0.0132
13552DDP     C181307  12.918   9.290   5.974  0.2007  0.1710 -0.1582
13552DDP     P181308  12.510   9.154   5.892 -0.0797 -0.2888 -0.1000
13552DDP     P281309  13.066   9.717   5.877  0.0951  0.3888  0.0685
13552DDP     C281310  13.271  10.108   5.837  0.2867  0.0278 -0.1249
13552DDP     C381311  12.100   9.107   5.736 -0.2406 -0.1888 -0.2420
13552DDP     C481312  13.225   8.947   6.178  0.0701 -0.1193  0.2119
13553DDP     C181313  21.852   1.309  17.060 -0.0806  0.0229  0.1962
13553DDP     P181314  21.943   1.547  16.683 -0.0958 -0.4253 -0.1066
13553DDP     P281315  22.132   0.915  17.159  0.0281  0.0865 -0.3921
13553DDP     C281316  22.338   0.667  16.831 -0.0323  0.1091  0.0024
13553DDP     C381317  21.774   1.555  16.270 -0.3664  0.1857  0.3583
13553DDP     C481318  21.551   1.381  17.339  0.3114  0.1106  0.0213
13554DDP     C181319   8.723  16.637  11.144  0.2840  0.0377 -0.2192
13554DDP     P181320   8.887  16.215  11.312 -0.1348 -0.1148 -0.1232
13554DDP     P281321   8.999  16.953  11.428  0.1750 -0.3453 -0.2113
13554DDP     C281322   9.221  17.055  11.844 -0.4611 -0.0155  0.2430
13554DDP     C381323   8.665  15.883  11.623 -0.0355  0.2467  0.1678
13554DDP     C481324   8.290  16.929  11.046  0.1973  0.2105  0.1969
13555DDP     C181325  13.348   7.347  24.834 -0.1013  0.0235 -0.0258
13555DDP     P181326  13.618   7.010  24.819  0.0558  0.0749 -0.0819
13555DDP     P281327  13.238   7.657  25.130  0.0354  0.1400  0.3993
13555DDP     C281328  13.286   8.033  25.294 -0.2153 -0.1919 -0.0531
13555DDP     C381329  13.883   6.824  24.660 -0.2585 -0.0756 -0.0652
13555DDP     C481330  12.979   7.239  24.713 -0.2658 -0.0829 -0.0034
13556DDP     C181331  14.369   4.905  29.677 -0.1931 -0.2116 -0.0318
13556DDP     P181332  14.768   4.676  29.682  0.3171 -0.4223 -0.0325
13556DDP     P281333  14.132   4.555  29.534  0.0405  0.0058 -0.1748
13556DDP     C281334  13.714   4.409  29.497 -0.2935 -0.2082  0.0146
13556DDP     C381335  15.143   4.691  29.444  0.1259 -0.3232 -0.2546
13556DDP     C481336  14.387   5.408  29.656  0.4755 -0.0172  0.1638
13557DDP     C181337   9.317   8.542  18.681 -0.4351 -0.0320  0.0838
13557DDP     P181338   9.260   8.711  19.082 -0.1023  0.1620  0.0398
13557DDP     P281339   9.527   8.633  18.199  0.1540 -0.0616  0.1112
13557DDP     C281340   9.828   8.629  17.758 -0.3282  0.1191  0.1651
13557DDP     C381341   9.164   8.865  19.493 -0.3001  0.0682  0.0320
13557DDP     C481342   9.183   8.138  18.444  0.0969  0.0586  0.1323
13558DDP     C181343   6.733   0.283   2.825 -0.0976  0.1369  0.0133
13558DDP     P181344   6.566   0.431   2.450 -0.2435 -0.2311 -0.1379
13558DDP     P281345   6.569  30.314   3.038  0.3178 -0.0323 -0.1977
13558DDP     C281346   6.568  29.852   3.126 -0.0207 -0.0804  0.1217
13558DDP     C381347   6.306   0.362   2.031  0.0550  0.0622  0.0264
13558DDP     C481348   7.155   0.300   2.967 -0.0202 -0.3560  0.2668
13559DDP     C181349  12.072  10.384   1.358  0.0310 -0.0898 -0.5574
13559DDP     P181350  12.191  10.700   1.153 -0.1095  0.0289  0.0324
13559DDP     P281351  11.670  10.342   1.325 -0.1494 -0.1835  0.2642
13559DDP     C281352  11.367  10.209   1.283  0.3844  0.2014  0.0615
13559DDP     C381353  12.522  10.940   1.067  0.2689 -0.0014 -0.0067
13559DDP     C481354  12.361  10.073   1.448  0.1016  0.0603 -0.0390
13560DDP     C181355  13.780  25.689  20.519  0.0244  0.1357 -0.2293
13560DDP     P181356  13.743  25.743  20.097 -0.1694  0.1973  0.1855
13560DDP     P281357  13.375  25.472  20.678  0.2297  0.5420  0.2872
13560DDP     C281358  13.102  25.592  21.025  0.2399  0.0607 -0.0522
13560DDP     C381359  13.317  25.901  19.871 -0.2827  0.0902  0.3673
13560DDP     C481360  14.083  25.694  20.646 -0.0107 -0.2522  0.1786
13561DDP     C181361   2.163  29.316  14.561  0.3372  0.0030 -0.1378
13561DDP     P181362   2.139  29.564  14.930 -0.1783  0.0090  0.0360
13561DDP     P281363   2.525  29.430  14.185 -0.0314  0.0773 -0.0443
13561DDP     C281364   2.865  29.682  14.066  0.1143 -0.1341 -0.3123
13561DDP     C381365   2.564  29.858  15.005  0.2133 -0.1094 -0.1852
13561DDP     C481366   1.847  28.943  14.562 -0.0273 -0.0315  0.1223
13562DDP     C181367   1.180   1.298   9.655 -0.0533 -0.0931  0.1780
13562DDP     P181368   1.005   1.535  10.069  0.3507  0.1399 -0.0568
13562DDP     P281369   1.587   1.464   9.633  0.1576  0.2547  0.0407
13562DDP     C281370   2.054   1.517   9.684  0.0529 -0.2266  0.0965
13562DDP     C381371   0.821   1.807  10.378  0.2112 -0.0831  0.1906
13562DDP     C481372   0.903   1.062   9.464  0.1435  0.0177  0.1161
13563DDP     C181373  15.054  15.614  19.445 -0.0907 -0.0481 -0.1065
13563DDP     P181374  14.736  15.393  19.440 -0.4150  0.0100 -0.0003
13563DDP     P281375  15.124  15.740  18.903 -0.2816  0.1685 -0.5180
13563DDP     C281376  15.383  15.835  18.570 -0.4320  0.4458 -0.1769
13563DDP     C381377  14.376  15.382  19.224  0.0472  0.2890 -0.2037
13563DDP     C481378  15.098  15.926  19.717  0.0159 -0.2871  0.3173
13564DDP     C181379   6.045  18.648   8.174 -0.1442  0.1250  0.1583
13564DDP     P181380   6.389  18.688   8.498 -0.1671 -0.0071 -0.0890
13564DDP     P281381   5.650  18.633   8.309  0.0621  0.2287 -0.2206
13564DDP     C281382   5.373  19.005   8.212  0.1623  0.0324  0.3303
13564DDP     C381383   6.824  18.757   8.271  0.1338 -0.3235  0.0952
13564DDP     C481384   6.216  18.796   7.654  0.2200 -0.1196  0.0974
13565DDP     C181385  26.853   1.646  26.534 -0.1974 -0.0812  0.0958
13565DDP     P181386  26.874   1.722  26.087  0.5611  0.0763 -0.1853
13565DDP     P281387  27.304   1.487  26.622 -0.0138  0.2778  0.1167
13565DDP     C281388  27.640   1.433  26.835  0.1977  0.2264  0.0915
13565DDP     C381389  26.759   2.085  25.849  0.0228 -0.0560  0.1039
13565DDP     C481390  26.598   1.382  26.761  0.0601 -0.1768  0.2062
13566DDP     C181391   3.554   4.173  28.992  0.2375 -0.0343  0.1369
13566DDP     P181392   3.195   3.932  28.933 -0.0943  0.0512  0.0393
13566DDP     P281393   3.650   4.664  28.875 -0.0149 -0.2960 -0.2699
13566DDP     C281394   3.678   5.163  28.649  0.0798  0.1843 -0.1251
13566DDP     C381395   2.904   3.752  28.950 -0.4332  0.1033  0.0814
13566DDP     C481396   3.954   3.979  28.974 -0.0882 -0.0650  0.2036
13567DDP     C181397   2.749  26.716   1.769 -0.1869  0.1199 -0.4377
13567DDP     P181398   2.614  26.310   1.794  0.0379  0.1710 -0.1529
13567DDP     P281399   2.361  26.927   1.922 -0.0453 -0.0461  0.1032
13567DDP     C281400   2.224  27.214   2.186 -0.2752 -0.2438  0.2194
13567DDP     C381401   3.010  26.008   1.792 -0.1184 -0.2222 -0.3998
13567DDP     C481402   3.084  26.889   1.988 -0.1347 -0.2502  0.0548
13568DDP     C181403  18.115  15.440  24.157  0.3310  0.0074  0.0922
13568DDP     P181404  18.179  15.286  24.574  0.0106 -0.2476  0.0958
13568DDP     P281405  18.029  15.868  24.033 -0.3411 -0.1573  0.0290
13568DDP     C281406  18.462  16.135  23.860 -0.0928  0.0740 -0.1664
13568DDP     C381407  18.571  15.039  24.687  0.2270  0.0772  0.0764
13568DDP     C481408  18.336  15.284  23.689  0.1322  0.1302 -0.2565
13569DDP     C181409  29.457  25.768  18.374 -0.0297  0.0846 -0.2830
13569DDP     P181410  29.525  25.505  18.007  0.0043  0.0965 -0.1758
13569DDP     P281411  29.162  25.502  18.709 -0.3605  0.1667  0.0177
13569DDP     C281412  29.346  25.305  19.109 -0.0526 -0.0642 -0.0036
13569DDP     C381413  29.723  25.229  17.574 -0.2394  0.2581 -0.3502
13569DDP     C481414  29.712  26.162  18.401 -0.2506 -0.2410  0.0821
13570DDP     C181415  17.423  28.203  19.969  0.1905 -0.1663 -0.1342
13570DDP     P181416  16.928  28.270  20.120  0.2495 -0.3197  0.1209
13570DDP     P281417  17.709  28.335  20.207 -0.5058 -0.0206  0.0221
13570DDP     C281418  17.669  28.436  20.585  0.0448  0.1496 -0.0357
13570DDP     C381419  16.722  28.511  20.232 -0.0523 -0.1259  0.0328
13570DDP     C481420  17.464  28.185  19.596 -0.1940 -0.0720 -0.2343
13571DDP     C181421  11.531   0.267  27.987 -0.2273  0.0514  0.2574
13571DDP     P181422  11.620   0.449  28.333 -0.0629 -0.1034  0.1732
13571DDP     P281423  11.408   0.314  27.535 -0.2511 -0.0461 -0.0821
13571DDP     C281424  11.435   0.368  27.078 -0.1785 -0.2222  0.1205
13571DDP     C381425  11.394   0.686  28.636  0.0389  0.2923 -0.1593
13571DDP     C481426  11.250   0.036  28.057 -0.0096 -0.0665  0.2000
13572DDP     C181427   5.231  13.171  13.606  0.1046 -0.1278 -0.0213
13572DDP     P181428   5.264  12.763  13.694  0.3051  0.3775  0.0459
13572DDP     P281429   4.874  13.449  13.493  0.1196 -0.1173 -0.1780
13572DDP     C281430   4.709  13.759  13.699 -0.1316  0.1973  0.0054
13572DDP     C381431   5.050  12.573  14.061  0.1407  0.2876  0.2380
13572DDP     C481432   5.442  13.331  13.235  0.3776 -0.0100  0.0080
13573DDP     C181433  23.645  23.966  25.621 -0.1333  0.1832  0.1569
13573DDP     P181434  23.476  24.320  25.571  0.0873  0.0962  0.0672
13573DDP     P281435  23.713  24.002  26.005  0.1362  0.0090  0.1575
13573DDP     C281436  23.631  23.904  26.427  0.0841 -0.2012  0.1045
13573DDP     C381437  23.617  24.652  25.435 -0.2701 -0.1416  0.1534
13573DDP     C481438  23.817  23.709  25.385  0.1902 -0.1577  0.1677
13574DDP     C181439  27.279  18.635  16.275  0.1333  0.0399  0.0412
13574DDP     P181440  27.116  19.055  16.387 -0.0552  0.1415 -0.0106
13574DDP     P281441  27.072  18.267  16.085 -0.3715  0.1970 -0.1141
13574DDP     C281442  26.609  18.163  16.175  0.1769  0.0994 -0.0399
13574DDP     C381443  27.006  19.542  16.168 -0.0948 -0.0686 -0.0527
13574DDP     C481444  27.713  18.680  16.125  0.0827 -0.0984 -0.0198
13575DDP     C181445  29.242  19.795  26.610  0.0406 -0.1820  0.1699
13575DDP     P181446  29.458  20.246  26.485  0.3288 -0.0128  0.1453
13575DDP     P281447  29.277  19.362  26.535 -0.0120 -0.1786 -0.2974
13575DDP     C281448  29.511  18.978  26.336  0.4237  0.0850 -0.3144
13575DDP     C381449  29.852  20.429  26.273  0.1246  0.3610  0.0958
13575DDP     C481450  28.851  19.825  26.921 -0.0787 -0.0271  0.0792
13576DDP     C181451  11.919  15.653   7.230 -0.2766 -0.5251 -0.1190
13576DDP     P181452  12.014  15.999   7.003  0.1111  0.0197  0.1413
13576DDP     P281453  11.487  15.633   7.352  0.1195  0.0825 -0.2923
13576DDP     C281454  11.103  15.430   7.404  0.2399  0.0270  0.3671
13576DDP     C381455  12.240  16.234   6.778  0.0844 -0.3072  0.4448
13576DDP     C481456  12.313  15.321   7.285  0.0401 -0.2534  0.1745
13577DDP     C181457  12.751  28.599  10.356  0.0026  0.1740  0.2316
13577DDP     P181458  12.648  28.359  10.051 -0.0857  0.1018  0.2998
13577DDP     P281459  12.841  28.356  10.664  0.0438 -0.3770  0.0644
13577DDP     C281460  12.940  28.197  11.057 -0.1229 -0.1029 -0.1994
13577DDP     C381461  12.461  28.472   9.714  0.3192 -0.2952  0.1297
13577DDP     C481462  12.842  29.147  10.268 -0.3643  0.2104 -0.3096
13578DDP     C181463  16.656   8.588   6.534  0.1749  0.1718 -0.0668
13578DDP     P181464  16.761   8.353   6.204  0.3883  0.3082  0.0339
13578DDP     P281465  16.314   8.927   6.509  0.1191  0.1964  0.0459
13578DDP     C281466  16.218   9.390   6.635 -0.0135 -0.1878  0.0997
13578DDP     C381467  16.634   8.021   5.799 -0.0829 -0.0030 -0.1502
13578DDP     C481468  16.693   8.383   6.992 -0.0770 -0.2437 -0.0010
13579DDP     C181469  16.634  23.409   4.101  0.0894  0.0950  0.1727
13579DDP     P181470  16.479  23.047   3.902 -0.0318 -0.1627  0.2229
13579DDP     P281471  16.431  23.361   4.500 -0.0958 -0.4916 -0.0715
13579DDP     C281472  16.450  23.371   4.935  0.2519 -0.0610  0.0716
13579DDP     C381473  16.335  23.042   3.463  0.0451  0.1620 -0.0320
13579DDP     C481474  16.885  23.606   3.920  0.1534  0.1560  0.3492
13580DDP     C181475   2.724  19.802   7.526 -0.1972 -0.3776  0.0990
13580DDP     P181476   2.894  19.863   7.906 -0.0252  0.0577  0.2632
13580DDP     P281477   3.067  19.727   7.238  0.0018 -0.2592 -0.1656
13580DDP     C281478   3.456  19.798   7.153  0.3211  0.2473  0.1074
13580DDP     C381479   3.279  19.923   8.125 -0.0714  0.2440 -0.0636
13580DDP     C481480   2.230  19.979   7.479  0.0316  0.2946  0.3167
13581DDP     C181481  19.603   7.772  22.621  0.0869  0.2161 -0.0370
13581DDP     P181482  19.464   7.489  22.984 -0.3831  0.1085  0.1417
13581DDP     P281483  20.020   7.567  22.639 -0.1637 -0.0805  0.0998
13581DDP     C281484  20.328   7.512  22.342 -0.1688  0.0092  0.0714
13581DDP     C381485  19.273   7.061  23.180 -0.2318 -0.2884  0.0183
13581DDP     C481486  19.497   8.159  22.428 -0.1952 -0.1524  0.1931
13582DDP     C181487   1.198   3.318   3.160  0.1033  0.2201 -0.1061
13582DDP     P181488   0.726   3.323   3.114 -0.0058 -0.0727  0.1803
13582DDP     P281489   1.468   2.999   3.427 -0.2143 -0.2699 -0.0865
13582DDP     C281490   1.804   3.058   3.579 -0.1046  0.0321  0.0184
13582DDP     C381491   0.402   3.455   2.867 -0.3064  0.0846  0.1718
13582DDP     C481492   1.436   3.528   2.961 -0.1032  0.3926 -0.0109
13583DDP     C181493  13.421   5.707   1.599  0.0024  0.0246  0.2012
13583DDP     P181494  13.724   5.324   1.512 -0.1646  0.3523  0.1282
13583DDP     P281495  13.077   5.905   1.767 -0.0452  0.1784  0.1719
13583DDP     C281496  12.736   5.673   1.688 -0.0490 -0.1090  0.2081
13583DDP     C381497  14.125   5.187   1.406  0.2285  0.0749 -0.1790
13583DDP     C481498  13.420   5.754   1.230 -0.0497  0.2263  0.0915
13584DDP     C181499   8.613   8.639   0.026  0.0083  0.0289  0.0966
13584DDP     P181500   8.659   8.874   0.427 -0.1527  0.2219 -0.0083
13584DDP     P281501   9.017   8.683  30.102  0.3004 -0.1665  0.1033
13584DDP     C281502   9.356   8.830  29.996 -0.3862  0.3816  0.0629
13584DDP     C381503   8.657   8.990   0.902  0.0260 -0.1253 -0.0443
13584DDP     C481504   8.337   8.274  30.253  0.0423  0.1758 -0.4273
13585DDP     C181505  26.949   3.000  15.984  0.2032 -0.0481 -0.2518
13585DDP     P181506  27.309   3.132  15.898 -0.2450  0.2872  0.1154
13585DDP     P281507  26.719   3.229  15.790 -0.0468  0.0211 -0.0931
13585DDP     C281508  26.376   3.140  15.526  0.2309 -0.0218  0.0988
13585DDP     C381509  27.647   2.848  15.800 -0.0772  0.1414 -0.1972
13585DDP     C481510  26.760   2.995  16.322 -0.0672  0.2310  0.1461
13586DDP     C181511  28.047  10.455  23.662  0.0620  0.3004 -0.3174
13586DDP     P181512  27.986  10.272  23.259  0.1098 -0.0354 -0.0665
13586DDP     P281513  28.333  10.277  23.849 -0.0940 -0.1472  0.1095
13586DDP     C281514  28.776  10.174  23.902  0.0104  0.2346  0.0924
13586DDP     C381515  27.982   9.880  22.984  0.1491 -0.1057  0.1117
13586DDP     C481516  27.978  10.906  23.778 -0.1350 -0.1674  0.1785
13587DDP     C181517   6.077  22.348  27.654  0.0301 -0.2061  0.6072
13587DDP     P181518   5.715  22.084  27.379  0.0161  0.2484  0.0060
13587DDP     P281519   6.384  22.580  27.470  0.0345  0.2004 -0.1218
13587DDP     C281520   6.426  22.935  27.239 -0.1196  0.2295  0.0419
13587DDP     C381521   5.585  21.571  27.301 -0.0230  0.2227 -0.1479
13587DDP     C481522   6.238  22.415  28.073  0.0663 -0.1175 -0.0664
13588DDP     C181523   5.699  11.120  15.861 -0.0822 -0.0846 -0.0706
13588DDP     P181524   5.542  10.949  15.570 -0.1358 -0.1499  0.1028
13588DDP     P281525   5.810  10.903  16.191 -0.2524 -0.1113  0.0435
13588DDP     C281526   6.000  10.607  16.418 -0.0399 -0.1519  0.0839
13588DDP     C381527   5.721  10.658  15.236 -0.2200 -0.1071 -0.1596
13588DDP     C481528   5.726  11.533  15.902 -0.0402  0.0815 -0.2050
13589DDP     C181529   9.023   5.071   9.733 -0.1160 -0.1866  0.1616
13589DDP     P181530   8.621   5.216   9.696 -0.1201  0.2260 -0.2325
13589DDP     P281531   9.340   5.080   9.488  0.2403  0.2665  0.2041
13589DDP     C281532   9.513   5.043   9.033 -0.1433 -0.1046  0.1137
13589DDP     C381533   8.213   5.419   9.810  0.2175 -0.2235  0.1380
13589DDP     C481534   9.025   4.896  10.131 -0.1672 -0.0827  0.1199
13590DDP     C181535   6.210  17.957  17.666 -0.1385  0.3372 -0.1664
13590DDP     P181536   6.499  18.302  17.665 -0.1732 -0.1311  0.0097
13590DDP     P281537   5.792  17.989  17.858  0.1183 -0.2380  0.0576
13590DDP     C281538   5.389  17.747  17.909  0.0697 -0.2567 -0.0401
13590DDP     C381539   6.934  18.473  17.564  0.0321 -0.0092  0.1239
13590DDP     C481540   6.198  17.572  17.413 -0.0268  0.0103 -0.0501
13591DDP     C181541   5.207  30.234  13.568 -0.3007 -0.2147  0.1733
13591DDP     P181542   4.948  30.176  13.903 -0.2387 -0.1619 -0.0131
13591DDP     P281543   5.635  30.029  13.517  0.1583 -0.0057  0.3898
13591DDP     C281544   5.672  29.577  13.425  0.2695  0.0950  0.1336
13591DDP     C381545   4.547  30.077  14.075  0.0198  0.1382 -0.0606
13591DDP     C481546   5.003   0.099  13.236  0.2202  0.1968  0.0779
13592DDP     C181547   5.538  28.309   6.311  0.0817 -0.0956  0.3339
13592DDP     P181548   5.535  28.375   5.851  0.0523 -0.3838 -0.2255
13592DDP     P281549   5.463  27.865   6.423 -0.3588  0.1202  0.0292
13592DDP     C281550   5.333  27.464   6.641 -0.1226 -0.0757 -0.1001
13592DDP     C381551   5.796  28.134   5.511  0.0143 -0.1723 -0.0326
13592DDP     C481552   5.348  28.674   6.609 -0.0195 -0.1401  0.0110
13593DDP     C181553   2.004  11.515  13.440  0.2010  0.0495 -0.2068
13593DDP     P181554   2.093  11.289  13.872 -0.0232  0.2725 -0.1280
13593DDP     P281555   2.045  11.926  13.602  0.2362 -0.2254 -0.2908
13593DDP     C281556   2.043  12.408  13.525 -0.0468  0.1728 -0.2196
13593DDP     C381557   2.401  11.168  14.132 -0.0942 -0.3745  0.0969
13593DDP     C481558   1.830  11.403  13.072  0.1813  0.1912  0.0817
13594DDP     C181559  13.257  16.210  11.524 -0.0989 -0.1069 -0.1202
13594DDP     P181560  13.001  16.108  11.246  0.2035  0.1139  0.2591
13594DDP     P281561  13.492  16.467  11.302 -0.1671 -0.0222  0.2786
13594DDP     C281562  13.703  16.554  10.884 -0.2693  0.4107 -0.3097
13594DDP     C381563  12.658  15.960  11.313 -0.1403  0.1676 -0.0151
13594DDP     C481564  13.335  16.171  12.059 -0.0626 -0.2379 -0.0666
13595DDP     C181565   3.171  20.703  16.959 -0.1167 -0.1635 -0.1385
13595DDP     P181566   3.555  20.947  16.959 -0.2213 -0.1540  0.0989
13595DDP     P281567   3.229  20.713  16.508 -0.2217 -0.2283  0.0877
13595DDP     C281568   3.469  20.992  16.196 -0.2678  0.0607  0.2679
13595DDP     C381569   3.948  20.915  17.230  0.2684  0.1253 -0.0201
13595DDP     C481570   3.144  20.250  17.197 -0.1295 -0.1892  0.2285
13596DDP     C181571  28.672  22.109   1.647  0.0924  0.1128  0.1090
13596DDP     P181572  28.457  21.908   1.325 -0.1891 -0.1032  0.0400
13596DDP     P281573  29.041  22.413   1.579  0.1117 -0.1731 -0.0237
13596DDP     C281574  29.143  22.759   1.899  0.0600 -0.0544  0.1044
13596DDP     C381575  28.278  21.845   0.945  0.0852  0.0285 -0.0906
13596DDP     C481576  28.349  22.139   2.017 -0.4667 -0.1663 -0.1052
13597DDP     C181577  12.336  26.540   2.121 -0.0786 -0.0609 -0.0221
13597DDP     P181578  12.376  26.112   2.133 -0.1446  0.3292  0.4184
13597DDP     P281579  12.664  26.925   2.347 -0.4387  0.1878  0.2954
13597DDP     C281580  12.974  27.153   2.722  0.1202  0.1000  0.1041
13597DDP     C381581  12.113  25.779   1.991  0.0084  0.0318  0.1121
13597DDP     C481582  12.043  26.831   2.133 -0.1073  0.0520  0.2652
13598DDP     C181583  11.114   5.721   2.104  0.0224 -0.1767 -0.0122
13598DDP     P181584  10.658   5.633   2.009 -0.0670  0.1146  0.0391
13598DDP     P281585  11.475   5.543   1.949  0.1939 -0.1905 -0.0956
13598DDP     C281586  11.748   5.269   1.801 -0.0272 -0.0995 -0.0843
13598DDP     C381587  10.273   5.625   2.279  0.0122  0.2032  0.1440
13598DDP     C481588  11.213   6.020   2.487  0.0846  0.0335 -0.0418
13599DDP     C181589  12.205  21.756  22.757 -0.2583 -0.4028 -0.2513
13599DDP     P181590  12.365  22.111  22.777  0.0219 -0.2702 -0.0416
13599DDP     P281591  12.468  21.492  22.907 -0.0306 -0.1067  0.0630
13599DDP     C281592  12.768  21.405  23.119 -0.1689 -0.1230  0.0496
13599DDP     C381593  12.248  22.532  22.879  0.1246  0.2374  0.2548
13599DDP     C481594  11.849  21.583  22.433 -0.1152  0.0878  0.2116
13600DDP     C181595  22.976  15.622  28.339  0.0249 -0.1493 -0.1597
13600DDP     P181596  23.168  15.242  28.464  0.1992 -0.3228  0.0101
13600DDP     P281597  23.250  15.948  28.110 -0.0266 -0.1117  0.0387
13600DDP     C281598  23.294  16.275  27.713 -0.2608  0.0944  0.1168
13600DDP     C381599  23.217  14.918  28.811  0.2391 -0.2249  0.2468
13600DDP     C481600  22.635  15.599  28.221 -0.2442  0.1536  0.1918
13601DDP     C181601  17.985   5.397  18.599 -0.0631  0.3843  0.0433
13601DDP     P181602  18.199   5.136  18.410  0.1860  0.2487 -0.1840
13601DDP     P281603  17.830   5.561  18.319 -0.1377  0.4578 -0.1657
13601DDP     C281604  17.789   5.936  18.047  0.0519 -0.1747 -0.2101
13601DDP     C381605  18.557   5.259  18.098 -0.2507 -0.0220  0.1172
13601DDP     C481606  18.026   5.422  19.125 -0.2816 -0.0322  0.1422
13602DDP     C181607  23.533  26.908   8.976 -0.2930 -0.1433  0.1977
13602DDP     P181608  23.080  26.753   9.003 -0.1961 -0.0326 -0.0424
13602DDP     P281609  23.713  27.183   8.541  0.0808 -0.0124 -0.1233
13602DDP     C281610  23.604  27.417   8.095 -0.2080  0.1705  0.2551
13602DDP     C381611  22.730  26.759   8.783 -0.1160 -0.0138  0.3753
13602DDP     C481612  23.661  26.844   9.389  0.1637  0.1281  0.0966
13603DDP     C181613  21.513  27.553  15.689  0.0982 -0.1077 -0.2104
13603DDP     P181614  21.340  27.183  15.441 -0.0409 -0.5705  0.3599
13603DDP     P281615  21.222  27.840  15.890  0.1518  0.1702  0.0891
13603DDP     C281616  20.798  27.879  16.016  0.0370 -0.3562 -0.1924
13603DDP     C381617  20.997  27.072  15.113  0.2364  0.0652  0.0352
13603DDP     C481618  21.995  27.545  15.851 -0.0314 -0.0420  0.1767
13604DDP     C181619   9.521   9.958   6.251 -0.2519  0.1941  0.1216
13604DDP     P181620   9.254  10.107   5.984 -0.2739  0.0266  0.2249
13604DDP     P281621   9.431   9.964   6.655 -0.0204  0.0716  0.1640
13604DDP     C281622   9.393  10.330   6.929  0.1196  0.0762 -0.0939
13604DDP     C381623   9.140  10.443   5.792 -0.0228  0.1636 -0.2256
13604DDP     C481624   9.953   9.786   6.162  0.1410 -0.1532 -0.2944
13605DDP     C181625   4.236  29.726   5.737  0.0342 -0.1340 -0.2048
13605DDP     P181626   4.018  29.297   5.628  0.2376  0.1763  0.0618
13605DDP     P281627   4.401  29.854   5.361 -0.1299 -0.0857  0.1243
13605DDP     C281628   4.617  29.736   4.998  0.0466 -0.1272  0.1930
13605DDP     C381629   3.631  29.182   5.380  0.0506 -0.0735  0.0055
13605DDP     C481630   4.424  29.822   6.046  0.1132 -0.2275  0.3224
13606DDP     C181631  15.790  21.028   1.939 -0.1432  0.1519 -0.1304
13606DDP     P181632  16.231  20.937   2.123  0.0191  0.2032  0.1259
13606DDP     P281633  15.563  20.960   2.427  0.2021  0.1932 -0.0516
13606DDP     C281634  15.392  20.571   2.527  0.2221  0.0804  0.0680
13606DDP     C381635  16.684  20.716   1.899  0.1450 -0.0581 -0.1691
13606DDP     C481636  15.664  20.835   1.506  0.1645 -0.1394  0.1151
13607DDP     C181637   6.552  25.577   5.388  0.3232 -0.0733 -0.2770
13607DDP     P181638   6.361  25.188   5.611 -0.0010  0.1311 -0.1815
13607DDP     P281639   6.143  25.918   5.263 -0.1712  0.3925 -0.1981
13607DDP     C281640   5.725  26.026   5.137 -0.2231 -0.0879 -0.3277
13607DDP     C381641   6.346  25.153   6.072 -0.0461 -0.0554 -0.2185
13607DDP     C481642   6.965  25.545   5.297  0.0520  0.1129 -0.1278
13608DDP     C181643  25.697  18.433  15.012  0.0384 -0.0399 -0.0568
13608DDP     P181644  25.254  18.425  15.285  0.4808 -0.2598 -0.1545
13608DDP     P281645  26.036  18.611  15.288 -0.1475 -0.0028  0.5239
13608DDP     C281646  26.513  18.501  15.322  0.0840  0.0839 -0.0784
13608DDP     C381647  25.218  18.320  15.701 -0.0425 -0.1131  0.1129
13608DDP     C481648  25.590  18.217  14.729 -0.4287  0.1770 -0.0823
13609DDP     C181649   8.917  22.243   1.553 -0.0497  0.1489  0.1869
13609DDP     P181650   9.003  22.575   1.417 -0.0541 -0.1025  0.2476
13609DDP     P281651   9.019  21.955   1.244  0.1866 -0.0355  0.2221
13609DDP     C281652   8.890  21.583   0.880  0.3456 -0.0419  0.0540
13609DDP     C381653   9.002  23.078   1.568 -0.1698 -0.0655 -0.0171
13609DDP     C481654   8.619  22.264   1.945 -0.1101 -0.3539 -0.1792
13610DDP     C181655  19.613  14.494   9.719  0.1336 -0.1875  0.1549
13610DDP     P181656  19.249  14.688   9.663  0.2344 -0.4562  0.0617
13610DDP     P281657  19.637  14.743  10.113 -0.1618 -0.2809  0.0558
13610DDP     C281658  19.533  14.815  10.525 -0.0267 -0.1503  0.0031
13610DDP     C381659  19.064  15.033   9.672  0.1149  0.0619 -0.0587
13610DDP     C481660  19.768  14.087   9.452  0.2410 -0.2435  0.0618
13611DDP     C181661  13.882   9.933   6.530  0.0904  0.0624 -0.2050
13611DDP     P181662  13.660   9.508   6.447 -0.0482 -0.2794  0.0130
13611DDP     P281663  13.907  10.268   6.325 -0.1541 -0.0347  0.0102
13611DDP     C281664  14.027  10.528   5.957 -0.0419 -0.3196 -0.1453
13611DDP     C381665  13.654   9.093   6.355  0.0391 -0.0477  0.0366
13611DDP     C481666  14.371  10.070   6.778  0.2050  0.0087 -0.3426
13612DDP     C181667   5.554  11.648  26.206  0.0023  0.1197  0.0720
13612DDP     P181668   5.343  11.200  26.275  0.0759 -0.1020  0.0354
13612DDP     P281669   5.798  11.728  25.823  0.2297 -0.1545 -0.0855
13612DDP     C281670   6.238  11.523  25.726 -0.0438  0.0035 -0.0697
13612DDP     C381671   5.423  10.891  26.081 -0.2740 -0.1206  0.2782
13612DDP     C481672   5.588  11.952  26.515  0.3954 -0.2393  0.0675
13613DDP     C181673  17.406  27.870  17.531  0.1604 -0.0361  0.0128
13613DDP     P181674  17.504  28.297  17.523 -0.1131 -0.1393  0.0597
13613DDP     P281675  17.357  27.586  17.211 -0.3069 -0.1449  0.2412
13613DDP     C281676  17.422  27.697  16.720 -0.0692 -0.3262  0.1745
13613DDP     C381677  17.588  28.468  17.823 -0.0390  0.0727  0.0416
13613DDP     C481678  17.541  27.490  17.792  0.1181  0.1055  0.0094
13614DDP     C181679  19.335  12.120   3.677 -0.1780  0.0138 -0.1633
13614DDP     P181680  19.057  11.696   3.628  0.3413 -0.4789  0.0243
13614DDP     P281681  19.257  12.414   3.945 -0.0117  0.2108 -0.1766
13614DDP     C281682  18.988  12.757   4.004 -0.2181  0.0058  0.0929
13614DDP     C381683  18.977  11.332   3.755  0.1515  0.0620 -0.0262
13614DDP     C481684  19.765  12.077   3.589 -0.0066  0.0229  0.0329
13615DDP     C181685  21.170  23.195  11.249  0.1998  0.3360  0.0398
13615DDP     P181686  21.301  23.423  10.847  0.1429 -0.1261  0.1519
13615DDP     P281687  21.057  23.561  11.516  0.0782  0.4083  0.3122
13615DDP     C281688  20.841  23.860  11.519  0.1630  0.1112 -0.0437
13615DDP     C381689  21.478  23.789  10.704 -0.1778  0.0303 -0.3543
13615DDP     C481690  21.195  22.765  11.173 -0.0275 -0.0972  0.1430
13616DDP     C181691  11.243  21.825  17.673  0.2477  0.3733  0.0318
13616DDP     P181692  10.805  21.502  17.718 -0.2702  0.0654  0.0219
13616DDP     P281693  11.607  21.782  18.022  0.2997  0.4678 -0.0945
13616DDP     C281694  11.904  21.479  17.890  0.1332  0.1317  0.0822
13616DDP     C381695  10.593  21.328  17.417  0.1759 -0.1301 -0.0563
13616DDP     C481696  11.282  22.190  17.380 -0.1144 -0.0391  0.0836
13617DDP     C181697  25.087   3.130   5.035 -0.0157  0.0002  0.0657
13617DDP     P181698  25.297   2.827   5.354 -0.1218 -0.1243  0.2950
13617DDP     P281699  24.923   2.983   4.612 -0.2384  0.3029 -0.0905
13617DDP     C281700  24.876   2.934   4.238  0.0750  0.3928  0.1983
13617DDP     C381701  25.287   2.464   5.643 -0.5355  0.0950  0.2932
13617DDP     C481702  24.840   3.353   5.314 -0.1951  0.1863 -0.1086
13618DDP     C181703  22.826   6.649   8.247 -0.2060  0.3657  0.2672
13618DDP     P181704  22.456   6.536   8.131  0.1568 -0.0427  0.1240
13618DDP     P281705  22.953   7.069   8.251  0.0057  0.1285  0.3105
13618DDP     C281706  22.780   7.490   8.065  0.0302  0.2308 -0.1430
13618DDP     C381707  22.085   6.286   8.172  0.0651 -0.0118 -0.0776
13618DDP     C481708  23.084   6.315   8.444  0.0718  0.1073  0.0707
13619DDP     C181709  10.537   7.238   9.736 -0.0520  0.0398 -0.2592
13619DDP     P181710  10.149   7.111   9.805  0.1250 -0.1351 -0.1073
13619DDP     P281711  10.678   6.913   9.922  0.1770 -0.0695  0.0275
13619DDP     C281712  10.996   6.677   9.945  0.2002 -0.1770  0.0001
13619DDP     C381713   9.895   7.050  10.243 -0.3449 -0.1945  0.1548
13619DDP     C481714  10.638   7.645   9.527 -0.2085  0.5574  0.2169
13620DDP     C181715  25.139   7.301  25.821 -0.1367  0.3146 -0.4183
13620DDP     P181716  24.935   7.378  25.455  0.3137  0.0595 -0.3310
13620DDP     P281717  25.500   7.318  25.619  0.1389 -0.0832  0.0602
13620DDP     C281718  25.846   6.990  25.556  0.1600  0.1219  0.3365
13620DDP     C381719  24.976   7.503  24.993  0.1741  0.0685 -0.1168
13620DDP     C481720  24.693   7.221  26.012 -0.0669  0.1112 -0.1629
13621DDP     C181721  13.200   4.625   9.652  0.1957 -0.2533  0.1847
13621DDP     P181722  13.039   4.500   9.239 -0.1494 -0.2436 -0.0475
13621DDP     P281723  12.890   4.959   9.984 -0.0075  0.0780 -0.0142
13621DDP     C281724  12.698   4.876  10.357  0.1806 -0.1496 -0.1146
13621DDP     C381725  13.059   4.686   8.796  0.2917  0.0588  0.0445
13621DDP     C481726  13.593   4.499   9.717 -0.3546  0.0878  0.0250
13622DDP     C181727  14.526   2.049   9.009  0.2588 -0.0947  0.0825
13622DDP     P181728  14.733   2.383   8.822  0.0266 -0.0490 -0.0074
13622DDP     P281729  14.826   1.676   9.110 -0.0007 -0.2741 -0.0062
13622DDP     C281730  14.990   1.367   9.390 -0.0645 -0.0093  0.1102
13622DDP     C381731  14.711   2.797   8.716  0.1803 -0.2297 -0.2270
13622DDP     C481732  14.211   2.128   9.227  0.1930  0.2085  0.1346
13623DDP     C181733  11.071   8.101  15.178  0.2144  0.0266 -0.1860
13623DDP     P181734  11.204   7.755  15.537 -0.1537  0.0404 -0.0090
13623DDP     P281735  10.749   8.459  15.266  0.0634  0.2497 -0.2828
13623DDP     C281736  10.480   8.754  15.358  0.3903  0.0706 -0.0139
13623DDP     C381737  11.279   7.814  16.021 -0.0484 -0.2426  0.0854
13623DDP     C481738  11.332   8.091  14.722 -0.1015 -0.0922 -0.0164
13624DDP     C181739  26.285   6.152  17.988 -0.0435 -0.1900 -0.0948
13624DDP     P181740  26.473   6.501  17.972  0.1736  0.1334  0.0813
13624DDP     P281741  26.091   5.880  18.285 -0.1060 -0.0889  0.0943
13624DDP     C281742  26.110   5.469  18.582 -0.1370  0.0907  0.1208
13624DDP     C381743  26.352   6.767  17.647 -0.1911 -0.0243  0.0093
13624DDP     C481744  26.107   6.001  17.717 -0.0587 -0.0646 -0.1244
13625DDP     C181745  29.926  12.285  12.664  0.1878 -0.0815 -0.0732
13625DDP     P181746  -0.015  12.135  12.448 -0.2649 -0.0757  0.2040
13625DDP     P281747  29.484  11.914  12.657  0.0523  0.1931 -0.0426
13625DDP     C281748  29.015  11.806  12.865  0.2392 -0.1287  0.1004
13625DDP     C381749  30.353  11.865  11.954  0.2234 -0.1181  0.1181
13625DDP     C481750  29.901  12.446  13.106  0.1622  0.2406 -0.2526
13626DDP     C181751  17.379   3.548   6.741  0.2071  0.0852 -0.2746
13626DDP     P181752  17.576   3.973   6.795  0.1911  0.1022 -0.0397
13626DDP     P281753  17.455   3.454   6.398 -0.2369 -0.2640 -0.0557
13626DDP     C281754  17.602   3.646   5.999  0.0352  0.3151 -0.2281
13626DDP     C381755  17.472   4.276   7.101  0.2078  0.1061  0.2370
13626DDP     C481756  17.132   3.273   7.033  0.1356 -0.2247 -0.0295
13627DDP     C181757   8.585  20.639  12.107 -0.0878 -0.2630 -0.3039
13627DDP     P181758   8.154  20.376  11.934  0.0270 -0.0016  0.3065
13627DDP     P281759   8.635  21.012  11.933  0.0563  0.3259 -0.0369
13627DDP     C281760   8.522  21.377  11.779  0.2743  0.0896 -0.0634
13627DDP     C381761   8.118  20.111  11.637 -0.2918  0.2553 -0.0416
13627DDP     C481762   8.689  20.464  12.488 -0.5383  0.0406 -0.1024
13628DDP     C181763  13.434   5.628  10.695 -0.1780 -0.2006 -0.1865
13628DDP     P181764  13.027   5.583  10.847 -0.1460  0.0335 -0.0002
13628DDP     P281765  13.623   5.325  10.371 -0.1749  0.0990 -0.0438
13628DDP     C281766  13.361   5.105  10.170 -0.0549 -0.1217  0.0977
13628DDP     C381767  12.761   5.777  11.170 -0.1122 -0.2062  0.4500
13628DDP     C481768  13.400   6.035  10.653  0.1778  0.5396 -0.4172
13629DDP     C181769  28.194  17.219  19.052  0.5480  0.2938  0.1363
13629DDP     P181770  28.251  16.666  19.057 -0.4220  0.1682 -0.0132
13629DDP     P281771  28.001  17.357  18.716  0.2459 -0.1282 -0.1117
13629DDP     C281772  27.774  17.555  18.389  0.0390  0.1954 -0.0133
13629DDP     C381773  28.572  16.431  18.917  0.0328 -0.0350 -0.1442
13629DDP     C481774  28.499  17.436  19.461 -0.0487  0.0476 -0.3023
13630DDP     C181775  25.699  11.176  16.771  0.1125 -0.4498  0.1198
13630DDP     P181776  26.036  10.890  17.041  0.0256 -0.1314 -0.1852
13630DDP     P281777  25.938  11.258  16.470  0.0409 -0.4329  0.0715
13630DDP     C281778  26.136  11.043  16.151 -0.0023  0.0731  0.2778
13630DDP     C381779  26.324  10.658  17.198 -0.1032 -0.0273  0.4756
13630DDP     C481780  25.408  11.501  16.973 -0.1337  0.1309 -0.0688
13631DDP     C181781  29.926  28.528  22.944  0.1049  0.0541 -0.1608
13631DDP     P181782   0.069  28.520  23.140 -0.0581  0.1658  0.2075
13631DDP     P281783  29.778  28.862  22.681  0.2794 -0.2210  0.2343
13631DDP     C281784  30.031  29.039  22.303  0.1397  0.1646  0.3845
13631DDP     C381785   0.470  28.620  23.250 -0.1836  0.1770 -0.2539
13631DDP     C481786  29.640  28.341  23.179 -0.0667  0.0471 -0.2927
13632DDP     C181787  27.782  28.086  16.411 -0.0793 -0.0547  0.0331
13632DDP     P181788  28.181  27.727  16.406 -0.0015  0.0526  0.0318
13632DDP     P281789  27.718  28.216  15.878 -0.1256  0.1985  0.1131
13632DDP     C281790  28.023  28.198  15.603 -0.0871  0.0589  0.1837
13632DDP     C381791  28.252  27.412  16.541 -0.1009  0.0697 -0.2294
13632DDP     C481792  27.439  27.934  16.697 -0.0518 -0.1766 -0.0044
13633DDP     C181793  20.281  22.557  21.169 -0.1687  0.1225  0.1426
13633DDP     P181794  20.223  22.920  21.096 -0.0413  0.0426 -0.0238
13633DDP     P281795  20.634  22.357  20.885  0.0986 -0.1921 -0.1642
13633DDP     C281796  20.978  22.321  20.844  0.3733  0.2387  0.2710
13633DDP     C381797  20.120  23.238  20.889 -0.2642 -0.0402 -0.1145
13633DDP     C481798  20.058  22.293  21.543 -0.2416  0.0111 -0.4504
13634DDP     C181799   6.672  13.372  18.594  0.0325  0.1024  0.0441
13634DDP     P181800   6.721  13.365  18.168  0.1751 -0.1221 -0.1386
13634DDP     P281801   6.321  13.001  18.623 -0.1678  0.0554  0.0453
13634DDP     C281802   5.947  12.668  18.434 -0.2384  0.1387 -0.0211
13634DDP     C381803   7.126  13.317  17.959  0.1808 -0.1884 -0.0512
13634DDP     C481804   6.893  13.595  18.842 -0.0659  0.0004  0.0766
13635DDP     C181805  18.174  18.160  28.485 -0.0309 -0.2709  0.1671
13635DDP     P181806  18.243  18.606  28.196  0.2914  0.1017 -0.0355
13635DDP     P281807  18.575  18.092  28.599  0.1212  0.1160  0.5161
13635DDP     C281808  18.779  17.808  28.834  0.0213  0.0317 -0.0338
13635DDP     C381809  18.073  18.710  27.707 -0.0754 -0.1378 -0.3199
13635DDP     C481810  17.762  17.947  28.518  0.1475 -0.0939  0.0001
13636DDP     C181811   4.487  23.258  23.920 -0.0648 -0.1608 -0.2312
13636DDP     P181812   4.666  22.929  24.066  0.1112 -0.1397 -0.3060
13636DDP     P281813   4.522  23.261  23.498 -0.0911 -0.2524 -0.0229
13636DDP     C281814   4.258  23.150  23.176  0.0032 -0.0904  0.0609
13636DDP     C381815   5.042  22.844  24.286  0.0735  0.0514  0.2023
13636DDP     C481816   4.166  23.543  24.219  0.1658 -0.2545  0.1352
13637DDP     C181817  22.692  29.228  19.644  0.2097  0.1231  0.1324
13637DDP     P181818  23.020  29.010  19.452  0.2885 -0.1178 -0.2178
13637DDP     P281819  22.381  29.134  19.920 -0.1228 -0.1478  0.3330
13637DDP     C281820  22.420  28.834  20.205 -0.1304  0.0709 -0.0497
13637DDP     C381821  23.398  29.123  19.326 -0.1248 -0.0288 -0.0440
13637DDP     C481822  22.561  29.604  19.520  0.0528  0.0530 -0.0724
13638DDP     C181823  10.221  12.551  22.299 -0.1001  0.1679  0.1970
13638DDP     P181824  10.075  12.940  22.331  0.0432 -0.1678  0.5339
13638DDP     P281825   9.871  12.268  22.310 -0.4780 -0.0820 -0.1562
13638DDP     C281826   9.536  12.154  21.911 -0.1150  0.0806 -0.1746
13638DDP     C381827   9.916  13.155  22.622  0.2621 -0.0994  0.1044
13638DDP     C481828  10.680  12.453  22.322  0.3834  0.1328  0.0992
13639DDP     C181829  13.052   8.498  27.835  0.0819  0.1829 -0.1453
13639DDP     P181830  12.985   8.793  27.612 -0.1455 -0.4640  0.1886
13639DDP     P281831  13.206   8.387  28.265  0.2657 -0.4674 -0.0407
13639DDP     C281832  13.233   8.380  28.680  0.1019 -0.0592 -0.0018
13639DDP     C381833  12.846   9.028  27.171  0.0774  0.1190  0.0827
13639DDP     C481834  13.146   8.242  27.531  0.3967 -0.4435  0.0915
13640DDP     C181835  27.255   7.077   1.885  0.1900  0.1782  0.1295
13640DDP     P181836  27.432   6.957   1.562  0.3371 -0.2805 -0.3736
13640DDP     P281837  26.976   6.921   2.065  0.3587 -0.1608 -0.0553
13640DDP     C281838  26.910   6.544   2.060  0.0028  0.1164  0.3227
13640DDP     C381839  27.412   6.625   1.240 -0.0282 -0.1674  0.2074
13640DDP     C481840  27.609   7.357   2.084  0.2114  0.0025 -0.0754
13641DDP     C181841  14.579   3.065   2.497  0.2265  0.2750  0.1080
13641DDP     P181842  14.507   2.799   2.746 -0.1862 -0.2977 -0.1537
13641DDP     P281843  14.802   3.416   2.419 -0.4349 -0.2063 -0.2610
13641DDP     C281844  14.566   3.821   2.666  0.0387  0.2156 -0.0772
13641DDP     C381845  14.526   2.339   2.908  0.0754  0.0243 -0.0114
13641DDP     C481846  14.276   3.022   2.187  0.1521  0.1584  0.2938
13642DDP     C181847  26.046  23.533  14.321  0.1846 -0.2729  0.1216
13642DDP     P181848  25.700  23.284  14.285 -0.3512 -0.0692  0.1263
13642DDP     P281849  26.392  23.594  14.649 -0.1238  0.0189 -0.2316
13642DDP     C281850  26.618  23.435  15.017  0.2377 -0.1832  0.1410
13642DDP     C381851  25.759  22.846  14.354 -0.3702  0.0947  0.1516
13642DDP     C481852  26.059  23.968  14.232  0.0385  0.0984  0.1759
13643DDP     C181853   8.809   7.197  13.587  0.0755  0.2195  0.1503
13643DDP     P181854   9.209   6.954  13.371  0.1043 -0.1000 -0.0746
13643DDP     P281855   8.613   7.249  13.977  0.0324 -0.3670 -0.1871
13643DDP     C281856   8.879   7.226  14.399 -0.0511  0.0320  0.1723
13643DDP     C381857   9.308   6.551  13.111  0.0564 -0.3832 -0.0013
13643DDP     C481858   8.492   7.174  13.249  0.2312 -0.0658  0.3013
13644DDP     C181859   3.399  12.002   6.000  0.3523  0.0637  0.1933
13644DDP     P181860   3.807  12.038   5.903 -0.1268  0.2265 -0.0562
13644DDP     P281861   3.093  11.800   5.829  0.0682  0.1654 -0.1795
13644DDP     C281862   2.884  11.633   5.508  0.2592  0.4343  0.1377
13644DDP     C381863   4.224  11.900   5.802  0.0729  0.4464 -0.0364
13644DDP     C481864   3.202  12.391   6.252 -0.1706  0.0417 -0.4083
13645DDP     C181865   2.709  19.878   8.339  0.0600  0.1175  0.0492
13645DDP     P181866   2.971  19.466   8.321 -0.1329  0.0896  0.2714
13645DDP     P281867   2.824  20.277   8.220  0.0738 -0.3621 -0.1168
13645DDP     C281868   2.557  20.754   8.120 -0.0683 -0.0152 -0.2104
13645DDP     C381869   3.111  19.301   8.703 -0.3613  0.0638 -0.2429
13645DDP     C481870   2.395  19.742   8.454  0.2151  0.0917 -0.0794
13646DDP     C181871  18.391  12.572   1.339 -0.2525 -0.0169  0.0753
13646DDP     P181872  18.017  12.355   1.494 -0.0092  0.2251  0.0141
13646DDP     P281873  18.576  12.958   1.030 -0.1756 -0.0934 -0.1923
13646DDP     C281874  18.715  13.361   0.768  0.4072 -0.6172 -0.0239
13646DDP     C381875  17.598  12.435   1.399 -0.0719  0.0697  0.0530
13646DDP     C481876  18.522  12.788   1.688  0.3824  0.1244 -0.2356
13647DDP     C181877  19.234  30.084  12.812 -0.2136 -0.0206  0.2087
13647DDP     P181878  18.831  30.055  13.014  0.1470  0.0005  0.2493
13647DDP     P281879  19.381  30.199  12.366  0.0249 -0.1107 -0.0171
13647DDP     C281880  19.666  29.931  12.096  0.0336 -0.2601 -0.1298
13647DDP     C381881  18.367  29.918  13.164  0.5436 -0.2932  0.3310
13647DDP     C481882  19.553  30.100  13.087 -0.0823 -0.1466  0.1871
13648DDP     C181883  29.239   8.742   3.027  0.4496 -0.1505 -0.1566
13648DDP     P181884  28.939   8.627   2.925  0.1399 -0.1749  0.1743
13648DDP     P281885  29.516   8.554   3.195  0.1984  0.0688 -0.2121
13648DDP     C281886  29.900   8.396   3.261 -0.3211  0.2000 -0.1483
13648DDP     C381887  28.625   8.279   2.874  0.0322  0.3825  0.3619
13648DDP     C481888  29.350   9.172   2.983  0.3510  0.0711  0.0690
13649DDP     C181889  12.231  25.331   7.686 -0.0529 -0.1287  0.0681
13649DDP     P181890  12.615  25.657   7.628  0.1322  0.2662  0.0418
13649DDP     P281891  11.992  25.070   7.475  0.2934  0.0536 -0.3057
13649DDP     C281892  11.824  24.703   7.184 -0.0059  0.0320 -0.0698
13649DDP     C381893  13.011  25.790   7.918  0.0304 -0.0391 -0.1442
13649DDP     C481894  12.024  25.249   8.050  0.2142 -0.2380 -0.0832
13650DDP     C181895   5.177  11.053   7.113 -0.0953 -0.1647 -0.0077
13650DDP     P181896   5.553  10.922   7.040 -0.1829 -0.2199 -0.0743
13650DDP     P281897   4.829  10.889   7.277 -0.2663  0.3576  0.1693
13650DDP     C281898   4.461  10.956   7.345  0.1828  0.0352  0.0844
13650DDP     C381899   5.960  10.766   7.202 -0.4761 -0.3041  0.0154
13650DDP     C481900   5.246  11.511   7.061 -0.0870  0.1181  0.1204
13651DDP     C181901  26.433   2.981   7.352  0.2424  0.0498  0.0624
13651DDP     P181902  26.404   3.208   7.032  0.1043  0.0974 -0.2774
13651DDP     P281903  26.052   3.029   7.659  0.3555  0.1157  0.2299
13651DDP     C281904  26.265   3.367   7.961 -0.0845 -0.1651 -0.4005
13651DDP     C381905  26.389   3.305   6.587 -0.1118  0.0418 -0.0778
13651DDP     C481906  26.654   2.629   7.394  0.3960 -0.2318  0.3728
13652DDP     C181907   4.551  12.775  12.862  0.0658  0.1714 -0.1401
13652DDP     P181908   4.837  13.031  12.662 -0.0639 -0.2118  0.0780
13652DDP     P281909   4.181  12.592  12.561  0.0690 -0.2346  0.3266
13652DDP     C281910   3.826  12.500  12.284  0.3649 -0.1887  0.0255
13652DDP     C381911   4.737  13.462  12.574  0.0686 -0.0487 -0.0416
13652DDP     C481912   4.735  12.515  13.216 -0.0892  0.0637  0.0926
13653DDP     C181913  19.728  24.863  19.997  0.0187 -0.1751  0.0310
13653DDP     P181914  20.125  24.624  20.107  0.2439  0.1690 -0.2673
13653DDP     P281915  19.765  25.359  20.043 -0.1728  0.0161 -0.1122
13653DDP     C281916  20.028  25.458  19.758  0.1464  0.1428 -0.0716
13653DDP     C381917  20.322  24.627  20.522 -0.1832  0.0944  0.3098
13653DDP     C481918  19.385  24.651  19.790  0.1959  0.0681 -0.0518
13654DDP     C181919  28.109   1.892  21.157 -0.2048 -0.0878  0.0959
13654DDP     P181920  28.365   2.177  20.795  0.3146  0.1662 -0.1387
13654DDP     P281921  27.685   1.898  21.208 -0.0231  0.3246  0.0419
13654DDP     C281922  27.362   1.726  21.306  0.1465  0.1234 -0.3273
13654DDP     C381923  28.270   2.111  20.286 -0.2165 -0.0748 -0.0331
13654DDP     C481924  28.305   1.459  21.161  0.0548  0.1790 -0.0813
13655DDP     C181925  28.476   7.912   0.713  0.4006 -0.3088 -0.0700
13655DDP     P181926  28.905   7.973   0.754  0.1279  0.0280 -0.1951
13655DDP     P281927  28.267   8.280   0.426  0.3970 -0.0705  0.1249
13655DDP     C281928  27.993   8.652   0.550  0.0810 -0.1245 -0.1667
13655DDP     C381929  29.276   7.755   0.927 -0.2281 -0.4677 -0.1957
13655DDP     C481930  28.190   7.580   0.926 -0.3450 -0.0891 -0.0543
13656DDP     C181931   4.523  18.461  20.013 -0.1539 -0.1841  0.0221
13656DDP     P181932   4.818  18.499  20.396  0.1393  0.2471 -0.1481
13656DDP     P281933   4.658  18.832  19.784 -0.1713  0.1084 -0.2044
13656DDP     C281934   4.933  19.183  19.835 -0.0469  0.2159  0.0419
13656DDP     C381935   4.954  18.296  20.686  0.0810  0.0740 -0.5009
13656DDP     C481936   4.172  18.187  19.787 -0.0194 -0.1466 -0.0631
13657DDP     C181937  28.307  17.568  13.204  0.2223 -0.2190 -0.0248
13657DDP     P181938  28.293  17.201  12.993  0.1007 -0.1154  0.2708
13657DDP     P281939  28.087  17.533  13.627  0.0003 -0.0365 -0.2925
13657DDP     C281940  27.830  17.442  13.940  0.0205 -0.1490 -0.0864
13657DDP     C381941  28.369  17.050  12.632 -0.4566 -0.0050  0.0354
13657DDP     C481942  28.287  18.140  13.036 -0.2220  0.1714  0.0561
13658DDP     C181943  18.935   0.901  26.434  0.1711 -0.4605 -0.0368
13658DDP     P181944  19.017   0.630  26.132 -0.0903 -0.1236  0.2289
13658DDP     P281945  19.086   1.370  26.479 -0.2467 -0.0413  0.2431
13658DDP     C281946  19.516   1.468  26.413  0.0296 -0.0978  0.0112
13658DDP     C381947  18.741   0.252  25.960 -0.2942  0.2710 -0.2763
13658DDP     C481948  18.581   0.818  26.652 -0.2318 -0.3326 -0.2598
13659DDP     C181949  13.897  18.747   2.279 -0.0683  0.1290 -0.1774
13659DDP     P181950  13.852  18.624   1.832 -0.0738  0.0302  0.2451
13659DDP     P281951  13.840  19.235   2.275 -0.0854 -0.3786 -0.0560
13659DDP     C281952  13.770  19.594   2.096  0.1670 -0.0365 -0.0009
13659DDP     C381953  13.767  18.758   1.420  0.0612  0.0891  0.1354
13659DDP     C481954  13.763  18.537   2.629 -0.0850  0.0981 -0.0648
13660DDP     C181955  29.660   4.530   1.788 -0.1390  0.2934  0.2496
13660DDP     P181956  29.637   4.073   1.615  0.0212 -0.2811 -0.2638
13660DDP     P281957  29.992   4.853   1.688  0.1827 -0.0190 -0.0863
13660DDP     C281958  29.765   5.050   1.383  0.0625 -0.1471 -0.0188
13660DDP     C381959  29.637   4.032   1.155 -0.3567 -0.1724 -0.1570
13660DDP     C481960  29.243   4.568   1.853  0.3485  0.0416  0.1910
13661DDP     C181961   7.684   7.521  20.310 -0.3390  0.1499 -0.0400
13661DDP     P181962   7.609   8.018  20.471  0.0996 -0.1050 -0.0822
13661DDP     P281963   7.635   7.202  20.052 -0.0754 -0.2734 -0.0929
13661DDP     C281964   7.632   7.079  19.734  0.1914  0.1561 -0.1615
13661DDP     C381965   7.576   8.509  20.271 -0.0693  0.0050  0.1300
13661DDP     C481966   8.050   7.393  20.638  0.1804  0.2792  0.2248
13662DDP     C181967   5.461  30.270  14.782  0.3004  0.0118  0.0274
13662DDP     P181968   5.510   0.385  14.742 -0.1684 -0.1894  0.0660
13662DDP     P281969   5.324  29.949  14.485  0.2053 -0.1541 -0.2750
13662DDP     C281970   5.197  29.561  14.591  0.2305  0.0490 -0.0340
13662DDP     C381971   5.418   0.823  14.549 -0.3290 -0.0782 -0.1431
13662DDP     C481972   5.930  30.115  14.954  0.1062  0.0189 -0.0322
13663DDP     C181973  21.678  25.746  22.709  0.5256 -0.1703 -0.0425
13663DDP     P181974  21.470  26.124  22.751  0.0164  0.1210  0.2296
13663DDP     P281975  21.491  25.328  22.909 -0.0977 -0.0911 -0.0566
13663DDP     C281976  21.116  25.480  22.805 -0.2060  0.1221 -0.1632
13663DDP     C381977  21.172  26.309  22.601  0.2264 -0.0181 -0.1944
13663DDP     C481978  22.040  25.728  22.467  0.2377  0.0199 -0.1671
13664DDP     C181979  18.259   9.428  18.517 -0.0333  0.2938  0.0256
13664DDP     P181980  18.167   9.480  18.999 -0.0158  0.0436  0.1837
13664DDP     P281981  18.449   9.038  18.519 -0.0916 -0.0241  0.0126
13664DDP     C281982  18.487   8.627  18.501 -0.1163 -0.1809  0.1276
13664DDP     C381983  18.068   9.632  19.377  0.1446 -0.1487 -0.1412
13664DDP     C481984  18.163   9.646  18.150 -0.1542  0.1651 -0.0204
13665DDP     C181985  11.302  23.018  30.172 -0.1268 -0.1622  0.1132
13665DDP     P181986  11.442  22.701  29.875 -0.3181 -0.1107 -0.2270
13665DDP     P281987  11.529  23.067   0.242  0.3893 -0.3948  0.1914
13665DDP     C281988  11.949  23.129   0.346  0.0128 -0.1558  0.0228
13665DDP     C381989  11.523  22.826  29.452 -0.2807  0.1120 -0.0399
13665DDP     C481990  10.942  23.078   0.116 -0.1122  0.0430 -0.1919
13666DDP     C181991   5.780  26.901  20.608 -0.3052 -0.2459  0.1103
13666DDP     P181992   6.159  26.898  20.573 -0.1589  0.2860 -0.2452
13666DDP     P281993   5.496  27.269  20.554  0.2651 -0.1652  0.1429
13666DDP     C281994   5.176  27.570  20.360  0.0659  0.1252 -0.2375
13666DDP     C381995   6.406  26.796  20.246 -0.1105  0.2031  0.0942
13666DDP     C481996   5.582  26.521  20.766 -0.2025  0.0274 -0.0840
13667DDP     C181997   4.869   3.347   0.430  0.2367 -0.2060  0.2695
13667DDP     P181998   5.023   3.207   0.791  0.1042  0.3949  0.4790
13667DDP     P281999   4.747   3.057   0.024 -0.0361 -0.1256 -0.0860
13667DDP     C282000   4.689   2.868  29.963 -0.1720 -0.1783  0.2341
13667DDP     C382001   5.326   2.888   1.120  0.1730  0.3201 -0.0147
13667DDP     C482002   4.730   3.752   0.420 -0.1799  0.0449 -0.0900
13668DDP     C182003  20.094  15.310   1.440  0.0463  0.2307 -0.2575
13668DDP     P182004  20.237  15.645   1.232  0.0185 -0.0279  0.1382
13668DDP     P282005  19.619  15.055   1.507 -0.1033 -0.0355  0.0096
13668DDP     C282006  19.231  14.867   1.275 -0.0348  0.1849  0.1194
13668DDP     C382007  20.265  15.894   0.908 -0.3513 -0.1043 -0.0500
13668DDP     C482008  20.488  15.155   1.622 -0.2551  0.1040 -0.1985
13669DDP     C182009  12.315   6.489  27.217  0.0891  0.3178 -0.1630
13669DDP     P182010  12.757   6.528  27.306  0.1973  0.0367 -0.2132
13669DDP     P282011  12.258   6.261  26.884  0.3948 -0.3227  0.2841
13669DDP     C282012  12.289   5.965  26.563  0.0783 -0.2028  0.0474
13669DDP     C382013  13.010   6.924  27.376  0.2311  0.3237 -0.0381
13669DDP     C482014  11.861   6.556  27.120  0.0115 -0.4288  0.0348
13670DDP     C182015  13.457   4.546   6.685 -0.3012  0.6046 -0.1588
13670DDP     P182016  13.724   4.226   6.849 -0.0058  0.0473  0.2932
13670DDP     P282017  13.622   4.745   6.415  0.0163  0.1167  0.0986
13670DDP     C282018  13.551   4.998   6.040  0.1202 -0.0991  0.0213
13670DDP     C382019  13.634   3.962   7.198 -0.1567 -0.0324 -0.3778
13670DDP     C482020  13.012   4.533   6.503 -0.3877  0.3270  0.0953
13671DDP     C182021  22.749  23.968  15.648 -0.1324  0.2746 -0.3842
13671DDP     P182022  22.391  23.873  15.460  0.0685  0.0701  0.1400
13671DDP     P282023  22.581  24.335  15.800  0.2243  0.2320  0.1668
13671DDP     C282024  22.400  24.767  15.897  0.1092  0.4129  0.3507
13671DDP     C382025  21.959  23.968  15.342 -0.1614 -0.2669  0.0315
13671DDP     C482026  23.126  23.756  15.610  0.0157  0.0025  0.0239
13672DDP     C182027  12.910   8.180   2.564 -0.2297  0.3847  0.1454
13672DDP     P182028  13.154   7.776   2.579  0.0769 -0.0704 -0.2460
13672DDP     P282029  13.151   8.495   2.745  0.1546  0.0681  0.2202
13672DDP     C282030  13.086   8.913   2.909 -0.2490 -0.1221 -0.3062
13672DDP     C382031  13.332   7.445   2.686  0.1263  0.1469  0.1725
13672DDP     C482032  12.449   8.346   2.597  0.4020 -0.0657 -0.2431
13673DDP     C182033   6.832  18.838  25.894  0.1463 -0.0397 -0.2073
13673DDP     P182034   6.844  18.625  26.360  0.1366  0.0551 -0.3791
13673DDP     P282035   6.545  18.748  25.613  0.2264 -0.2692  0.2747
13673DDP     C282036   6.396  18.514  25.351  0.4378 -0.2425  0.2074
13673DDP     C382037   6.829  18.750  26.760  0.0398  0.3124 -0.2001
13673DDP     C482038   7.158  19.114  25.807 -0.0451 -0.1574  0.1300
13674DDP     C182039   4.542  24.499  23.836  0.0560 -0.4819  0.1029
13674DDP     P182040   4.563  24.709  23.483  0.0677  0.4180  0.0290
13674DDP     P282041   4.128  24.605  24.036 -0.1190  0.2080 -0.0921
13674DDP     C282042   3.769  24.298  23.987  0.3060  0.0183  0.2508
13674DDP     C382043   4.376  25.075  23.143 -0.1682  0.1020  0.1204
13674DDP     C482044   4.419  24.093  23.745  0.1357  0.2020 -0.2283
13675DDP     C182045  25.809  23.213  30.131  0.0857  0.1584  0.0995
13675DDP     P182046  25.762  22.829  30.135 -0.0427 -0.3577  0.1872
13675DDP     P282047  25.509  23.602   0.036 -0.0488 -0.1577  0.0419
13675DDP     C282048  25.133  23.715  30.203  0.1849 -0.0005 -0.2437
13675DDP     C382049  25.824  22.476  29.875  0.1005  0.1725  0.1239
13675DDP     C482050  26.246  23.367  30.019 -0.0905  0.2029 -0.0151
13676DDP     C182051  26.423  23.076  25.634 -0.1303  0.2224 -0.2499
13676DDP     P182052  26.208  22.784  25.761  0.0890  0.1526  0.1228
13676DDP     P282053  26.808  23.031  25.888 -0.3087 -0.1876 -0.2854
13676DDP     C282054  27.019  22.751  26.081  0.2422 -0.0890 -0.1760
13676DDP     C382055  25.904  22.365  25.705  0.2054  0.1787 -0.0038
13676DDP     C482056  26.293  23.404  25.380  0.0287  0.1377  0.1525
13677DDP     C182057   5.328  29.896  22.757 -0.1091 -0.0230 -0.2939
13677DDP     P182058   5.699  29.845  22.451 -0.0997  0.2757  0.0419
13677DDP     P282059   5.002  30.041  22.630 -0.1587 -0.3253 -0.0486
13677DDP     C282060   4.863   0.037  22.917 -0.1698 -0.4452 -0.1470
13677DDP     C382061   6.127  29.818  22.608 -0.2309 -0.0664 -0.2510
13677DDP     C482062   5.234  29.522  22.852  0.1524 -0.2036 -0.1312
13678DDP     C182063  11.670   6.784   8.980  0.2913  0.1011  0.2139
13678DDP     P182064  11.661   6.655   8.589 -0.0993 -0.3648 -0.2267
13678DDP     P282065  11.330   6.762   9.166 -0.0358 -0.1161 -0.0361
13678DDP     C282066  11.025   6.956   9.469  0.2474  0.0498 -0.4145
13678DDP     C382067  11.398   6.706   8.223 -0.1379  0.1405 -0.1313
13678DDP     C482068  11.929   7.010   9.007  0.1452  0.1444  0.0776
13679DDP     C182069  23.045  22.576  29.933  0.1836  0.1541 -0.2029
13679DDP     P182070  23.311  22.344  30.224 -0.1923  0.0356 -0.1595
13679DDP     P282071  22.765  22.407  29.525  0.2547 -0.0860  0.0177
13679DDP     C282072  22.506  22.007  29.483  0.1922  0.3449 -0.0185
13679DDP     C382073  23.344  22.141   0.295 -0.1353  0.2653  0.2161
13679DDP     C482074  22.982  23.026  30.037 -0.2500 -0.3675  0.0590
13680DDP     C182075   5.057  11.883  27.914 -0.2811 -0.1542  0.0106
13680DDP     P182076   4.773  12.154  28.163  0.1446  0.4231 -0.0635
13680DDP     P282077   4.916  11.814  27.496 -0.1211  0.1498 -0.0260
13680DDP     C282078   4.696  11.867  27.124 -0.0386 -0.3130  0.0795
13680DDP     C382079   4.478  11.867  28.307 -0.1483 -0.2086  0.2210
13680DDP     C482080   5.391  11.607  28.018 -0.0577  0.0800  0.0883
13681DDP     C182081   1.298   2.969  11.481 -0.0278 -0.0613  0.0468
13681DDP     P182082   1.145   3.285  11.757  0.1816  0.3219 -0.0797
13681DDP     P282083   1.190   3.084  11.099  0.3564 -0.0492  0.1017
13681DDP     C282084   1.166   3.398  10.799  0.0112  0.0269 -0.1905
13681DDP     C382085   0.765   3.545  11.872 -0.0960  0.1722 -0.0668
13681DDP     C482086   1.681   2.690  11.534 -0.1594 -0.1427 -0.0219
13682DDP     C182087  13.516   4.183  18.114 -0.2956 -0.2455  0.3473
13682DDP     P182088  13.125   3.960  17.993  0.0322  0.2389  0.1530
13682DDP     P282089  13.528   4.672  18.194  0.2303 -0.2801  0.1675
13682DDP     C282090  13.464   5.083  17.949 -0.0081  0.2375  0.1156
13682DDP     C382091  12.659   3.707  18.130 -0.0203  0.2375  0.0147
13682DDP     C482092  13.882   3.934  18.042  0.0084 -0.1957  0.0310
13683DDP     C182093  29.952  22.135  12.648 -0.1907  0.3174  0.2469
13683DDP     P182094  29.818  21.935  12.928 -0.1455 -0.3614  0.1701
13683DDP     P282095  29.734  21.861  12.316 -0.0735 -0.0377 -0.2984
13683DDP     C282096  29.660  21.660  11.881 -0.1223 -0.2803  0.4529
13683DDP     C382097  29.525  21.745  13.231  0.2486  0.1268 -0.2611
13683DDP     C482098  30.263  22.457  12.745  0.0339  0.0330  0.1160
13684DDP     C182099  18.787  11.904  14.427  0.3565 -0.4177 -0.2112
13684DDP     P182100  18.607  11.438  14.411 -0.0661  0.0434  0.1606
13684DDP     P282101  19.267  11.897  14.366 -0.1934 -0.3881  0.1479
13684DDP     C282102  19.409  11.523  14.163  0.1526 -0.0278 -0.1609
13684DDP     C382103  18.607  10.997  14.424  0.2303  0.0690  0.0373
13684DDP     C482104  18.414  12.265  14.368 -0.1957  0.1124  0.0905
13685DDP     C182105   2.899  10.469  28.947  0.4070 -0.0169  0.0614
13685DDP     P182106   2.795   9.993  28.929  0.1289  0.1383 -0.4602
13685DDP     P282107   2.993  10.842  28.980  0.0289  0.1718  0.0134
13685DDP     C282108   2.756  11.247  28.890 -0.1267 -0.3488 -0.2220
13685DDP     C382109   2.759   9.578  29.137 -0.2737  0.1470 -0.1218
13685DDP     C482110   2.514  10.447  28.805  0.2838  0.2480 -0.0406
13686DDP     C182111  23.670  11.596  26.267 -0.0080  0.1578  0.2041
13686DDP     P182112  23.830  11.902  26.041 -0.1345  0.1103 -0.0058
13686DDP     P282113  23.411  11.266  25.995 -0.0395 -0.0210  0.0987
13686DDP     C282114  23.280  10.929  25.924 -0.4611  0.0066  0.0235
13686DDP     C382115  23.917  12.337  26.032 -0.2803  0.1051 -0.0399
13686DDP     C482116  23.790  11.607  26.713  0.0626 -0.0152  0.1409
13687DDP     C182117  26.795   4.766  24.392 -0.0955  0.1020 -0.0304
13687DDP     P182118  26.707   4.970  24.669 -0.1651  0.3377  0.2779
13687DDP     P282119  26.466   4.516  24.201 -0.2219 -0.0391 -0.2745
13687DDP     C282120  26.139   4.250  24.410 -0.1426  0.1516 -0.3213
13687DDP     C382121  27.029   5.232  24.827  0.0776 -0.0773 -0.2594
13687DDP     C482122  27.204   4.676  24.332  0.0654 -0.3831 -0.0964
13688DDP     C182123  22.155  28.904  30.202 -0.0974  0.1568 -0.1775
13688DDP     P182124  21.788  28.860  30.145  0.0287 -0.0246  0.3282
13688DDP     P282125  22.205  28.680   0.213  0.2792  0.0965  0.1269
13688DDP     C282126  22.013  28.738   0.599  0.1667  0.2305  0.1892
13688DDP     C382127  21.611  29.244  30.171  0.0830  0.2404 -0.1954
13688DDP     C482128  22.404  29.058  29.921 -0.0563  0.1997  0.3189
13689DDP     C182129   2.182   2.993  16.465 -0.0936  0.1052 -0.0382
13689DDP     P182130   2.504   2.985  16.806  0.3690 -0.3677  0.1813
13689DDP     P282131   1.740   2.948  16.528  0.1730 -0.1124 -0.1653
13689DDP     C282132   1.398   2.665  16.256  0.1223  0.1166  0.0710
13689DDP     C382133   2.761   3.205  17.218 -0.1438  0.2130  0.0843
13689DDP     C482134   2.253   3.176  15.968 -0.1322 -0.1296 -0.1704
13690DDP     C182135  28.344  22.928  18.480  0.1341  0.2625  0.0551
13690DDP     P182136  28.080  22.880  18.189  0.1451 -0.1013  0.0567
13690DDP     P282137  28.679  23.081  18.274 -0.0367 -0.0636  0.2380
13690DDP     C282138  28.998  23.259  18.128  0.0263 -0.1541 -0.3721
13690DDP     C382139  28.138  22.438  17.881  0.1154  0.0458 -0.0310
13690DDP     C482140  28.339  23.082  18.839 -0.0923  0.0819  0.0559
13691DDP     C182141  20.884  18.111  20.361  0.1710 -0.0876 -0.2017
13691DDP     P182142  21.109  18.129  19.921  0.0240 -0.0106 -0.1337
13691DDP     P282143  20.451  18.384  20.506  0.1905 -0.0219 -0.1587
13691DDP     C282144  20.128  18.678  20.461  0.2670  0.2006 -0.2717
13691DDP     C382145  21.649  18.330  19.869 -0.0960 -0.0335 -0.0281
13691DDP     C482146  21.107  17.803  20.575  0.1988  0.1342  0.0517
13692DDP     C182147  18.913  19.939  14.886 -0.3495 -0.0284 -0.0754
13692DDP     P182148  18.664  19.980  15.249  0.1317  0.0333  0.0720
13692DDP     P282149  18.668  20.227  14.679 -0.0958 -0.0381 -0.1480
13692DDP     C282150  18.775  20.679  14.628  0.2339 -0.1249  0.4220
13692DDP     C382151  18.736  20.188  15.647  0.3223  0.0675 -0.1314
13692DDP     C482152  19.231  19.621  14.764  0.1121  0.1830  0.2532
13693DDP     C182153   8.182  14.366  17.395 -0.1869  0.3287  0.1988
13693DDP     P182154   8.175  14.752  17.513 -0.0817 -0.1968  0.2400
13693DDP     P282155   7.960  14.076  17.143  0.0713  0.1362  0.1160
13693DDP     C282156   7.686  13.773  17.196 -0.3493 -0.0295  0.0707
13693DDP     C382157   8.186  14.988  17.900  0.2242 -0.0988  0.0693
13693DDP     C482158   8.640  14.109  17.508  0.0117  0.0170  0.0003
13694DDP     C182159   7.004  27.302  26.107 -0.1401 -0.0532 -0.2127
13694DDP     P182160   7.228  27.410  26.559  0.0523  0.0148 -0.0243
13694DDP     P282161   7.021  26.865  26.052  0.1921  0.1381  0.0104
13694DDP     C282162   6.816  26.425  25.988  0.0476  0.0862  0.2045
13694DDP     C382163   7.421  27.099  26.844  0.0810  0.0964  0.2307
13694DDP     C482164   7.305  27.593  25.793  0.2521  0.2995  0.1490
13695DDP     C182165   1.417  13.407  26.815  0.4250 -0.3091 -0.0265
13695DDP     P182166   1.136  13.182  27.142 -0.1249  0.1425 -0.3400
13695DDP     P282167   1.283  13.458  26.418 -0.3808  0.1103 -0.0488
13695DDP     C282168   1.531  13.405  26.063  0.1183 -0.0230 -0.0363
13695DDP     C382169   1.204  12.956  27.554 -0.1508 -0.3048  0.1340
13695DDP     C482170   1.855  13.472  26.981 -0.0067 -0.1153  0.3579
13696DDP     C182171  28.509  27.271  23.680  0.2147  0.1614  0.0157
13696DDP     P182172  28.779  27.566  23.476  0.0023 -0.1121  0.0563
13696DDP     P282173  28.393  27.023  23.409 -0.2464 -0.3981  0.0617
13696DDP     C282174  28.709  26.846  23.048 -0.3991  0.3627 -0.1880
13696DDP     C382175  29.082  27.609  23.183  0.0757 -0.1153 -0.1500
13696DDP     C482176  28.515  27.330  24.111  0.4828  0.3375  0.0423
13697DDP     C182177  25.486  26.650  12.309 -0.0133 -0.0440 -0.1121
13697DDP     P182178  25.053  26.826  12.124  0.2371  0.2478  0.3240
13697DDP     P282179  25.835  26.873  12.442 -0.0265  0.1517  0.0747
13697DDP     C282180  26.049  27.137  12.758  0.1509  0.1756 -0.1755
13697DDP     C382181  24.655  27.034  11.873  0.2373 -0.3859 -0.0786
13697DDP     C482182  25.472  26.266  12.492 -0.5861 -0.0339  0.0739
13698DDP     C182183  10.006   2.363   8.311 -0.1427  0.3163 -0.0056
13698DDP     P182184   9.644   2.553   8.335 -0.1570 -0.0458 -0.3628
13698DDP     P282185  10.241   2.351   7.908 -0.1283 -0.1184 -0.2408
13698DDP     C282186  10.483   2.199   7.699  0.1859  0.1629  0.0291
13698DDP     C382187   9.326   2.883   8.428 -0.1898  0.3050  0.0775
13698DDP     C482188  10.183   2.240   8.684 -0.6972  0.1532 -0.3410
13699DDP     C182189  27.865  26.056   2.233 -0.1344  0.0721 -0.0733
13699DDP     P182190  27.415  25.997   2.382  0.2497  0.0420 -0.2186
13699DDP     P282191  28.204  26.418   2.434 -0.0586 -0.4354 -0.2458
13699DDP     C282192  28.552  26.706   2.653 -0.1842 -0.2756  0.3245
13699DDP     C382193  27.074  26.252   2.620  0.0715 -0.2601  0.0404
13699DDP     C482194  28.039  25.776   1.860  0.0822 -0.1365  0.1195
13700DDP     C182195  10.424  23.001  28.221  0.1111  0.2794  0.1312
13700DDP     P182196  10.683  23.044  28.551  0.0793  0.0756 -0.1578
13700DDP     P282197  10.705  22.911  27.817 -0.0210  0.3365  0.0282
13700DDP     C282198  10.992  22.981  27.604 -0.0289  0.1750  0.0430
13700DDP     C382199  10.806  23.356  28.783  0.1878  0.0306 -0.2861
13700DDP     C482200   9.967  23.279  28.143 -0.1423 -0.0076 -0.0799
13701DDP     C182201  26.263  14.546  15.771  0.1450  0.0810  0.1493
13701DDP     P182202  26.012  14.283  15.984 -0.0989 -0.2051 -0.0783
13701DDP     P282203  26.522  14.439  15.400  0.0268 -0.3710  0.1356
13701DDP     C282204  26.530  14.529  15.015 -0.1818 -0.2183 -0.1129
13701DDP     C382205  25.695  14.200  16.342  0.0248 -0.1084 -0.1014
13701DDP     C482206  26.507  14.722  16.161  0.0155 -0.1461 -0.2831
13702DDP     C182207   6.312   3.117   1.411 -0.0184  0.2103 -0.1193
13702DDP     P182208   6.615   2.990   1.257  0.2860  0.2294 -0.0660
13702DDP     P282209   6.260   3.307   1.725  0.1405  0.0417 -0.0148
13702DDP     C282210   6.000   3.409   2.168 -0.2168  0.1291 -0.0383
13702DDP     C382211   7.044   3.119   1.291  0.2962  0.0546  0.1732
13702DDP     C482212   6.051   2.829   1.247 -0.1836 -0.0441  0.1841
13703DDP     C182213  11.603   1.346  10.762 -0.0376 -0.2220  0.2649
13703DDP     P182214  11.848   1.172  11.063 -0.0607 -0.0312  0.0116
13703DDP     P282215  11.789   1.505  10.395 -0.2030 -0.4049  0.1139
13703DDP     C282216  11.545   1.780  10.119 -0.0652  0.0929 -0.1468
13703DDP     C382217  12.049   0.967  11.477  0.0812  0.2117  0.1523
13703DDP     C482218  11.165   1.468  10.795 -0.0817  0.2581 -0.0758
13704DDP     C182219  13.645  23.916  22.734  0.1302 -0.1058 -0.0744
13704DDP     P182220  13.604  23.493  23.005 -0.2496  0.0356  0.1938
13704DDP     P282221  13.428  23.864  22.358  0.1792 -0.1341 -0.0422
13704DDP     C282222  13.085  23.581  22.092 -0.2549 -0.1111  0.3147
13704DDP     C382223  13.786  23.074  23.197  0.3615  0.0970 -0.1989
13704DDP     C482224  13.811  24.247  22.865  0.2811 -0.0544 -0.0241
13705DDP     C182225   9.059  20.201  19.895 -0.0701 -0.2539  0.2211
13705DDP     P182226   9.395  19.881  19.919 -0.0194  0.2948  0.0371
13705DDP     P282227   8.928  20.225  20.360 -0.3364 -0.2126  0.1715
13705DDP     C282228   8.957  20.040  20.797 -0.1279 -0.1072  0.2760
13705DDP     C382229   9.755  19.761  19.690  0.0818 -0.3060  0.1804
13705DDP     C482230   9.014  20.395  19.501  0.2348  0.0670 -0.0185
13706DDP     C182231  11.221  15.099  12.820  0.0864  0.0102  0.2106
13706DDP     P182232  11.014  14.735  12.725 -0.0091  0.0611  0.1869
13706DDP     P282233  10.955  15.421  13.027  0.0869  0.0382  0.1240
13706DDP     C282234  11.073  15.834  13.228 -0.2203 -0.2303  0.0969
13706DDP     C382235  10.768  14.465  12.906 -0.0841  0.0938  0.1168
13706DDP     C482236  11.626  15.189  12.678  0.2124 -0.0306 -0.2857
13707DDP     C182237   6.739   8.251   9.687  0.1293 -0.0762  0.1460
13707DDP     P182238   6.697   8.183   9.316  0.0546  0.0598 -0.0695
13707DDP     P282239   6.606   7.967   9.915 -0.0236  0.2228 -0.0718
13707DDP     C282240   6.665   7.550   9.852  0.2404  0.1945  0.0968
13707DDP     C382241   6.699   7.928   9.187  0.1031 -0.0631  0.2757
13707DDP     C482242   6.987   8.631   9.871  0.0410  0.0685  0.0503
13708DDP     C182243   8.285  15.184   0.557 -0.0245  0.0936  0.3189
13708DDP     P182244   8.469  15.205   0.959 -0.2291 -0.2073 -0.0866
13708DDP     P282245   8.282  15.612   0.417 -0.1633 -0.1040  0.1127
13708DDP     C282246   8.411  16.035   0.484 -0.1060  0.2278  0.1816
13708DDP     C382247   8.700  15.495   1.115 -0.0166 -0.2141 -0.1655
13708DDP     C482248   8.222  14.711   0.406  0.2447  0.1432  0.1378
13709DDP     C182249  27.731  10.813   0.251 -0.2126 -0.2440 -0.1411
13709DDP     P182250  27.282  10.789   0.499 -0.0050  0.1078  0.0602
13709DDP     P282251  27.798  10.330   0.190 -0.1959 -0.2420  0.0909
13709DDP     C282252  27.572   9.917   0.227 -0.3018 -0.3332  0.3257
13709DDP     C382253  26.898  10.844   0.755  0.3659  0.1036  0.2089
13709DDP     C482254  27.956  11.149   0.092  0.2534  0.1710  0.0473
13710DDP     C182255  29.071  19.389  13.503 -0.0438  0.1142  0.0617
13710DDP     P182256  29.517  19.441  13.501 -0.1219  0.2272 -0.3225
13710DDP     P282257  28.991  19.500  13.895 -0.0614  0.2893  0.2500
13710DDP     C282258  29.223  19.619  14.304  0.0118  0.0270  0.1533
13710DDP     C382259  29.930  19.679  13.542  0.0136 -0.1658 -0.0164
13710DDP     C482260  28.934  19.366  12.968 -0.1078  0.0406  0.0342
13711DDP     C182261   3.775   2.968  14.363  0.0604  0.0255  0.1749
13711DDP     P182262   4.014   3.396  14.492 -0.2331  0.0308 -0.0448
13711DDP     P282263   3.732   2.793  14.765  0.1526  0.1363  0.0087
13711DDP     C282264   4.103   2.498  14.960  0.2520  0.0504 -0.0949
13711DDP     C382265   4.341   3.328  14.207  0.2990  0.0194 -0.0277
13711DDP     C482266   3.468   2.986  14.093  0.1358 -0.0015  0.2681
13712DDP     C182267  24.430  12.511  23.998 -0.1106 -0.1927 -0.2335
13712DDP     P182268  24.451  12.026  24.106 -0.5197 -0.3102  0.1159
13712DDP     P282269  24.030  12.732  23.987 -0.0546  0.1910  0.0560
13712DDP     C282270  23.703  12.770  24.264 -0.1086  0.2562  0.2720
13712DDP     C382271  24.657  11.646  24.337 -0.4343  0.2709  0.2756
13712DDP     C482272  24.784  12.689  23.861  0.2983  0.1373 -0.2012
13713DDP     C182273   9.583  21.635   5.086  0.1930  0.0521 -0.1430
13713DDP     P182274  10.021  21.690   4.957  0.0319  0.0448  0.0670
13713DDP     P282275   9.307  21.466   4.854  0.0259 -0.1942 -0.0597
13713DDP     C282276   8.923  21.253   4.530 -0.0305  0.0497 -0.0170
13713DDP     C382277  10.464  21.857   4.860  0.1429 -0.3138 -0.0480
13713DDP     C482278   9.343  21.787   5.497 -0.2394  0.0802 -0.0061
13714DDP     C182279  12.052  27.410   4.607 -0.0530  0.2569  0.1176
13714DDP     P182280  12.395  27.714   4.527 -0.0148  0.1595 -0.1777
13714DDP     P282281  12.237  26.956   4.618 -0.1880  0.0741 -0.0408
13714DDP     C282282  12.171  26.691   4.233 -0.0675 -0.0915 -0.0109
13714DDP     C382283  12.439  27.944   4.918  0.2898 -0.0287 -0.0516
13714DDP     C482284  11.654  27.569   4.844  0.0541  0.1931  0.0367
13715DDP     C182285  15.574  22.340  26.771 -0.1116 -0.2710  0.2760
13715DDP     P182286  15.439  22.024  26.465 -0.0922 -0.1341 -0.0546
13715DDP     P282287  15.280  22.659  26.927 -0.1670 -0.0021 -0.1413
13715DDP     C282288  14.965  22.670  27.280  0.0602 -0.0606 -0.0972
13715DDP     C382289  15.540  21.618  26.557  0.1955 -0.1325  0.0086
13715DDP     C482290  15.946  22.337  27.054 -0.0802  0.2159 -0.1811
13716DDP     C182291  14.576  18.834   7.724  0.2844 -0.0365  0.0358
13716DDP     P182292  14.630  19.097   8.132 -0.2133  0.0440 -0.1387
13716DDP     P282293  14.357  18.567   7.775  0.2698 -0.0985 -0.0096
13716DDP     C282294  14.062  18.228   8.059  0.0346 -0.0264  0.0931
13716DDP     C382295  14.969  19.112   8.356  0.0235 -0.1293 -0.0378
13716DDP     C482296  14.650  19.045   7.349  0.1469 -0.1727  0.1831
13717DDP     C182297  27.793  15.163   1.192  0.1177  0.3205 -0.0811
13717DDP     P182298  27.451  14.881   1.030 -0.1995  0.0922  0.2872
13717DDP     P282299  27.845  15.420   1.549  0.0255  0.1980 -0.0697
13717DDP     C282300  27.987  15.887   1.707  0.4938  0.1278 -0.1714
13717DDP     C382301  27.305  14.509   0.742 -0.1045 -0.0931  0.1513
13717DDP     C482302  28.231  15.163   0.931 -0.0756  0.2485  0.0635
13718DDP     C182303  18.908  30.001   5.384  0.0504 -0.4737 -0.0282
13718DDP     P182304  18.961  29.543   5.523  0.4096 -0.0784 -0.1831
13718DDP     P282305  19.031  30.285   5.761  0.2746  0.2832 -0.0220
13718DDP     C282306  19.060   0.384   5.809 -0.0578  0.1886  0.2216
13718DDP     C382307  19.139  29.313   5.146 -0.1595  0.1092  0.0292
13718DDP     C482308  19.034  30.248   5.082  0.0358  0.2310 -0.0929
13719DDP     C182309  12.370  12.030  26.444 -0.0348 -0.0379 -0.3290
13719DDP     P182310  12.422  12.327  26.857 -0.0284  0.0897  0.0699
13719DDP     P282311  12.131  11.808  26.531  0.1734 -0.2589  0.0756
13719DDP     C282312  12.149  11.484  26.791 -0.0337  0.1239  0.0772
13719DDP     C382313  12.213  12.612  27.072 -0.4012 -0.2431 -0.3099
13719DDP     C482314  12.397  12.372  26.181 -0.0217  0.0321 -0.1128
13720DDP     C182315  21.052  21.122   1.180  0.0551 -0.1443  0.0579
13720DDP     P182316  20.806  21.442   1.204  0.1987 -0.3137  0.1005
13720DDP     P282317  20.940  20.924   0.824 -0.0967  0.2791  0.0349
13720DDP     C282318  20.883  20.676   0.480 -0.3152 -0.1459  0.2374
13720DDP     C382319  20.741  21.839   1.180 -0.2279  0.0105 -0.2537
13720DDP     C482320  21.511  21.175   1.300  0.0339 -0.1058  0.2428
13721DDP     C182321  26.285  22.947  28.891 -0.0284 -0.1040  0.2872
13721DDP     P182322  26.598  22.691  28.632  0.1426 -0.0857 -0.0009
13721DDP     P282323  25.842  22.843  28.795 -0.1185  0.2837  0.1098
13721DDP     C282324  25.460  22.618  28.861  0.3339  0.0088  0.0751
13721DDP     C382325  26.874  22.681  28.234  0.0820 -0.0824  0.1758
13721DDP     C482326  26.389  23.064  29.282  0.3431  0.0666  0.0456
13722DDP     C182327  23.451   7.034  22.315  0.2728 -0.1493  0.2601
13722DDP     P182328  23.858   6.997  22.474  0.0081 -0.2110  0.0574
13722DDP     P282329  23.285   7.446  22.449  0.2980  0.0446  0.2686
13722DDP     C282330  22.858   7.550  22.531  0.1635  0.1495 -0.2904
13722DDP     C382331  24.009   7.025  22.858  0.0239 -0.0206 -0.0083
13722DDP     C482332  23.288   6.676  22.111 -0.3065  0.2456 -0.0166
13723DDP     C182333  15.264  30.308   9.216  0.1551 -0.1578  0.0612
13723DDP     P182334  15.155   0.382   9.067  0.0254  0.2386 -0.1345
13723DDP     P282335  15.275  29.895   8.928  0.3110  0.2518  0.0957
13723DDP     C282336  15.156  29.733   8.538 -0.1546  0.0521  0.1892
13723DDP     C382337  14.969   0.589   8.732  0.0381 -0.1391  0.0619
13723DDP     C482338  15.415  30.198   9.646  0.0919 -0.0453 -0.0465
13724DDP     C182339  28.250  21.167   2.803 -0.0591 -0.1613  0.4025
13724DDP     P182340  28.146  21.300   3.275  0.0549  0.2921 -0.4015
13724DDP     P282341  28.248  20.743   2.861 -0.2584  0.0767 -0.0505
13724DDP     C282342  28.331  20.358   3.090 -0.1628  0.1564  0.1876
13724DDP     C382343  28.388  21.739   3.372 -0.0228 -0.0308  0.5037
13724DDP     C482344  28.499  21.138   2.409 -0.2042  0.1868 -0.0642
13725DDP     C182345  23.235  26.189   6.580  0.1435 -0.2067  0.1039
13725DDP     P182346  23.592  26.453   6.566  0.1623  0.2122  0.1964
13725DDP     P282347  22.958  26.218   6.291  0.0721  0.1691  0.1398
13725DDP     C282348  22.923  26.541   6.030 -0.0496 -0.2947 -0.1958
13725DDP     C382349  24.010  26.708   6.394  0.3988 -0.0370  0.0676
13725DDP     C482350  23.177  25.760   6.705 -0.0938  0.1200  0.1136
13726DDP     C182351  30.178  14.954  27.226  0.0921  0.0410  0.0397
13726DDP     P182352   0.049  14.566  27.423 -0.0197  0.0164 -0.1503
13726DDP     P282353  30.124  15.339  27.332  0.1197  0.0947 -0.3173
13726DDP     C282354  29.945  15.757  27.298  0.2504  0.1588  0.1988
13726DDP     C382355  30.219  14.278  27.676  0.1674  0.1544 -0.1954
13726DDP     C482356  29.910  14.646  26.873  0.3509 -0.1130  0.2561
13727DDP     C182357  16.634   2.247  26.913  0.1321 -0.0732 -0.1521
13727DDP     P182358  16.934   2.569  26.954  0.3068  0.2198  0.4010
13727DDP     P282359  16.318   2.304  26.798 -0.0432  0.0123 -0.1508
13727DDP     C282360  15.976   2.209  26.638  0.2356 -0.1575  0.2657
13727DDP     C382361  17.373   2.500  27.117  0.0527 -0.1148 -0.1311
13727DDP     C482362  16.715   1.737  27.002  0.0839  0.2098 -0.0127
13728DDP     C182363   8.145  16.715  10.517 -0.2128  0.2547 -0.1432
13728DDP     P182364   8.563  16.544  10.631  0.0023 -0.1519  0.0075
13728DDP     P282365   8.030  17.221  10.548 -0.0775 -0.0375  0.0917
13728DDP     C282366   7.696  17.449  10.633  0.1090 -0.3550 -0.0130
13728DDP     C382367   8.929  16.381  10.765 -0.1941 -0.2432  0.2698
13728DDP     C482368   7.785  16.397  10.514 -0.0161 -0.2621  0.1985
13729DDP     C182369  19.275  16.711  19.582 -0.0284 -0.0305  0.0439
13729DDP     P182370  18.941  16.978  19.683  0.0511  0.1062 -0.1647
13729DDP     P282371  19.457  16.927  19.263 -0.0334 -0.3631  0.1282
13729DDP     C282372  19.681  17.211  18.998 -0.1906 -0.0634  0.0902
13729DDP     C382373  18.493  17.098  19.830  0.1313  0.1556 -0.4073
13729DDP     C482374  19.326  16.292  19.724 -0.0040  0.1551  0.0558
13730DDP     C182375  28.086   3.509  24.965  0.2194  0.0936  0.2903
13730DDP     P182376  28.029   3.782  24.645  0.1922 -0.1795 -0.2362
13730DDP     P282377  27.757   3.102  24.971 -0.0402 -0.0510  0.0504
13730DDP     C282378  27.782   2.702  25.172 -0.2292  0.0630 -0.0069
13730DDP     C382379  27.821   4.075  24.762 -0.0371  0.2186 -0.1462
13730DDP     C482380  28.270   3.439  25.404  0.1845 -0.0474 -0.2401
13731DDP     C182381  20.767  14.161   6.926  0.1223  0.1347  0.1788
13731DDP     P182382  21.141  13.987   7.131 -0.2229 -0.1592 -0.1815
13731DDP     P282383  20.550  14.438   7.319  0.0098  0.2418 -0.2350
13731DDP     C282384  20.224  14.515   7.565  0.0299 -0.2194 -0.3737
13731DDP     C382385  21.368  13.612   7.105 -0.2323  0.1894 -0.0143
13731DDP     C482386  20.687  14.221   6.446  0.2308  0.3873 -0.1867
13732DDP     C182387   7.455   9.210   0.666  0.2802 -0.1319  0.1776
13732DDP     P182388   7.214   8.915   0.587 -0.0788  0.3660 -0.1272
13732DDP     P282389   7.465   9.647   0.703 -0.0167 -0.0911 -0.0685
13732DDP     C282390   7.410  10.093   0.901 -0.1076  0.3249  0.0927
13732DDP     C382391   6.812   8.751   0.523 -0.0038  0.0766 -0.0451
13732DDP     C482392   7.484   9.067   1.041  0.1776 -0.2222 -0.0895
13733DDP     C182393  25.333   1.442  15.610 -0.2560 -0.0071  0.2036
13733DDP     P182394  24.963   1.706  15.387  0.0413 -0.0834  0.2286
13733DDP     P282395  25.114   1.061  15.672 -0.1568  0.0494 -0.0703
13733DDP     C282396  24.704   1.067  15.833 -0.0361 -0.3776  0.1926
13733DDP     C382397  24.555   1.825  15.263 -0.1747  0.2368  0.2643
13733DDP     C482398  25.667   1.581  15.891  0.3330 -0.1746  0.2073
13734DDP     C182399  28.398  21.911   9.062  0.1236 -0.0443  0.0328
13734DDP     P182400  28.225  22.115   9.548  0.0486 -0.0843  0.1500
13734DDP     P282401  28.715  21.607   9.270  0.3667 -0.1820 -0.1336
13734DDP     C282402  29.124  21.564   9.429  0.0846 -0.1133  0.0789
13734DDP     C382403  28.296  22.435   9.744 -0.2523 -0.2597  0.0494
13734DDP     C482404  28.219  21.962   8.719 -0.2217  0.0116  0.1536
13735DDP     C182405  18.421  23.374   9.319 -0.1516  0.0196 -0.0057
13735DDP     P182406  18.202  23.203   8.943 -0.1022 -0.0427 -0.2221
13735DDP     P282407  18.303  23.402   9.753 -0.0249  0.3168 -0.0941
13735DDP     C282408  17.948  23.282  10.096 -0.1084 -0.3837 -0.0476
13735DDP     C382409  18.017  22.783   8.862 -0.0083  0.0492  0.0064
13735DDP     C482410  18.753  23.714   9.372 -0.3772  0.2319 -0.1397
13736DDP     C182411   4.690  27.907   0.089  0.0201 -0.1494  0.2576
13736DDP     P182412   4.952  28.081   0.512 -0.0327  0.2065  0.0094
13736DDP     P282413   4.595  28.161  30.025 -0.2131 -0.2220 -0.4021
13736DDP     C282414   4.673  28.547  29.746  0.0461 -0.0995  0.1815
13736DDP     C382415   5.112  27.999   1.009  0.1470 -0.0894  0.3292
13736DDP     C482416   4.676  27.466   0.250 -0.0386  0.5000  0.0392
13737DDP     C182417  19.700  15.653   9.784 -0.4377  0.2371 -0.2242
13737DDP     P182418  19.999  15.364   9.699  0.2357  0.0206 -0.2995
13737DDP     P282419  19.355  15.658   9.643 -0.1033  0.3461 -0.0492
13737DDP     C282420  19.132  15.380   9.278 -0.0743  0.0821 -0.1748
13737DDP     C382421  20.398  15.522   9.825 -0.0729 -0.0655  0.1156
13737DDP     C482422  20.034  15.843  10.056 -0.0721 -0.0433  0.1603
13738DDP     C182423   0.091  28.338   1.032 -0.1636 -0.3658  0.1791
13738DDP     P182424   0.254  28.296   1.388 -0.1176  0.4954 -0.2178
13738DDP     P282425   0.118  27.963   0.639 -0.0044 -0.1527 -0.0098
13738DDP     C282426   0.090  27.674   0.331 -0.1338  0.0970  0.0898
13738DDP     C382427   0.563  28.316   1.794  0.2718  0.4310  0.2248
13738DDP     C482428  30.105  28.643   0.844 -0.0376 -0.0732 -0.0015
13739DDP     C182429  16.792   4.035  26.766  0.0514 -0.1594  0.0842
13739DDP     P182430  16.503   3.734  26.731  0.1353  0.0095  0.1026
13739DDP     P282431  16.693   4.410  26.522  0.0583 -0.0317 -0.0034
13739DDP     C282432  16.478   4.625  26.167 -0.2937 -0.0065 -0.0354
13739DDP     C382433  16.171   3.535  26.341 -0.4643  0.1573  0.3952
13739DDP     C482434  16.989   3.973  27.155 -0.4268  0.3134  0.0060
13740DDP     C182435  16.483   0.839   8.607 -0.0385 -0.0930 -0.0443
13740DDP     P182436  16.260   1.335   8.557  0.0367  0.0134 -0.1344
13740DDP     P282437  16.382   0.499   8.551 -0.2932  0.2499  0.4270
13740DDP     C282438  16.181   0.336   8.160  0.2870 -0.2245 -0.0296
13740DDP     C382439  15.903   1.576   8.522 -0.1544  0.1835 -0.0576
13740DDP     C482440  16.920   0.839   8.760 -0.0947  0.0785  0.3847
13741DDP     C182441   3.144   6.987  27.153 -0.1640 -0.2130 -0.0283
13741DDP     P182442   2.889   7.167  27.433 -0.0893 -0.3001  0.1056
13741DDP     P282443   3.279   7.317  27.055  0.2055 -0.0521  0.1926
13741DDP     C282444   3.754   7.394  27.037  0.3278  0.2166  0.2435
13741DDP     C382445   2.633   7.369  27.727 -0.2907 -0.0392  0.1776
13741DDP     C482446   3.115   6.656  26.911  0.2272  0.0516  0.1968
13742DDP     C182447  13.496  18.024  15.552 -0.1188  0.3511  0.2169
13742DDP     P182448  13.479  17.956  15.147  0.0610 -0.0437  0.0003
13742DDP     P282449  13.685  17.894  15.876 -0.0566  0.4043 -0.1756
13742DDP     C282450  14.081  17.850  15.944  0.3594 -0.2615  0.0989
13742DDP     C382451  13.475  18.225  14.724  0.0754  0.1582 -0.1386
13742DDP     C482452  13.180  18.328  15.595 -0.2729  0.0712  0.0088
13743DDP     C182453  16.932  28.331   2.231  0.0036  0.2727 -0.1350
13743DDP     P182454  16.730  28.653   1.973 -0.2397 -0.1162 -0.0584
13743DDP     P282455  17.331  28.443   2.491  0.1111 -0.2544 -0.2434
13743DDP     C282456  17.684  28.434   2.741 -0.0664  0.0304  0.0887
13743DDP     C382457  16.468  28.595   1.613 -0.0730  0.1840  0.2537
13743DDP     C482458  16.945  27.982   2.462 -0.1051  0.1419 -0.1821
13744DDP     C182459   5.224   4.594   5.514 -0.1144 -0.0033  0.2908
13744DDP     P182460   4.998   4.905   5.694  0.0643  0.0361 -0.1238
13744DDP     P282461   5.139   4.881   5.127  0.1237  0.3659  0.3038
13744DDP     C282462   4.981   4.756   4.702 -0.1723 -0.1572  0.0731
13744DDP     C382463   4.604   5.003   5.537  0.0136  0.1536 -0.2457
13744DDP     C482464   5.614   4.442   5.494 -0.0197  0.1268 -0.0092
13745DDP     C182465   0.241   0.330  12.965 -0.1076 -0.1469 -0.0352
13745DDP     P182466  30.201   0.070  13.021  0.1923 -0.2722  0.2047
13745DDP     P282467   0.442   0.110  12.697 -0.0049 -0.3963  0.3294
13745DDP     C282468   0.745  30.097  12.564  0.0172 -0.2195  0.1307
13745DDP     C382469  30.016  30.173  12.788 -0.1766 -0.1685 -0.1428
13745DDP     C482470   0.329   0.704  13.168  0.1434 -0.0669 -0.3274
13746DDP     C182471  28.478  13.036   0.288 -0.1315  0.1108 -0.0593
13746DDP     P182472  28.226  13.182   0.584 -0.1060  0.0528 -0.1640
13746DDP     P282473  28.920  12.790   0.412  0.0895 -0.2060 -0.2393
13746DDP     C282474  29.268  12.962   0.665 -0.4514 -0.1737 -0.2831
13746DDP     C382475  28.136  13.163   1.023  0.1146 -0.1421  0.1623
13746DDP     C482476  28.422  13.127  30.188 -0.1712 -0.0464  0.0111
13747DDP     C182477   5.085   1.157  22.962  0.2040  0.0864  0.2229
13747DDP     P182478   5.253   0.973  22.568  0.1474 -0.0250  0.1852
13747DDP     P282479   5.371   1.452  23.075 -0.0097  0.0941 -0.0592
13747DDP     C282480   5.468   1.819  22.799 -0.0388  0.2689  0.0052
13747DDP     C382481   5.115   0.754  22.172  0.3595 -0.0942  0.1490
13747DDP     C482482   4.955   0.814  23.221 -0.3141 -0.3473  0.0183
13748DDP     C182483   7.254  22.668  11.184  0.0314  0.1389  0.1228
13748DDP     P182484   7.267  23.119  11.103 -0.2211 -0.0113 -0.3274
13748DDP     P282485   7.415  22.605  11.591  0.1456  0.0654  0.1647
13748DDP     C282486   7.703  22.337  11.688  0.2197 -0.0838  0.0113
13748DDP     C382487   7.234  23.623  10.971 -0.0735 -0.1135  0.0111
13748DDP     C482488   7.039  22.391  10.955  0.1646 -0.0846  0.0550
13749DDP     C182489  20.148   5.953   7.979 -0.3315 -0.0229  0.2846
13749DDP     P182490  19.930   6.162   7.743  0.0514 -0.0272 -0.0505
13749DDP     P282491  20.222   5.981   8.380 -0.2695  0.0088 -0.0805
13749DDP     C282492  20.521   5.651   8.547  0.3311  0.0502 -0.2521
13749DDP     C382493  19.692   6.011   7.494 -0.0709  0.1370  0.0295
13749DDP     C482494  20.261   5.479   7.920 -0.2341  0.0221 -0.2588
13750DDP     C182495  10.079  18.444   6.478  0.2628  0.1964  0.2926
13750DDP     P182496  10.216  18.659   6.761  0.3207  0.2273  0.1308
13750DDP     P282497  10.000  18.073   6.680  0.0428 -0.0589 -0.2518
13750DDP     C282498   9.640  17.831   6.827  0.0598  0.1522 -0.4513
13750DDP     C382499  10.137  18.961   7.041 -0.1174  0.4573 -0.2393
13750DDP     C482500  10.043  18.445   6.088  0.3507 -0.3628 -0.2232
13751DDP     C182501  16.479   5.859   1.646 -0.4952 -0.1647  0.1561
13751DDP     P182502  16.692   6.167   1.574  0.0842 -0.0191 -0.1956
13751DDP     P282503  16.301   5.766   2.006 -0.1265 -0.2576  0.1423
13751DDP     C282504  16.248   5.408   2.249  0.0913  0.0352  0.0833
13751DDP     C382505  17.077   6.261   1.354  0.1705  0.0335  0.1826
13751DDP     C482506  16.433   5.589   1.359  0.0149 -0.0751 -0.1932
13752DDP     C182507  14.617  24.203   4.436 -0.2972  0.0250 -0.2298
13752DDP     P182508  14.660  24.407   4.055 -0.0336 -0.3099  0.0745
13752DDP     P282509  14.490  23.807   4.265  0.1936 -0.0870  0.0465
13752DDP     C282510  14.070  23.621   4.181 -0.1061 -0.4850 -0.0633
13752DDP     C382511  14.292  24.466   3.674 -0.1452 -0.4003  0.1225
13752DDP     C482512  14.832  24.460   4.788 -0.0241 -0.0837 -0.2260
13753DDP     C182513  10.936  22.621   1.551  0.0587  0.2245 -0.2225
13753DDP     P182514  11.288  22.299   1.602  0.2095 -0.0737  0.1764
13753DDP     P282515  10.576  22.492   1.407  0.0290 -0.0484  0.1466
13753DDP     C282516  10.150  22.306   1.346  0.0532 -0.2283 -0.1224
13753DDP     C382517  11.557  22.115   1.408 -0.0257  0.0689  0.1559
13753DDP     C482518  10.995  23.017   1.588 -0.0013 -0.2037  0.1948
13754DDP     C182519   3.511   3.088   6.385  0.2083 -0.0820 -0.0360
13754DDP     P182520   3.056   3.269   6.596  0.2320  0.0816 -0.1758
13754DDP     P282521   3.831   3.224   6.704  0.0108 -0.2549  0.1011
13754DDP     C282522   3.907   3.358   7.061 -0.0074  0.1536  0.1885
13754DDP     C382523   2.848   3.409   6.881  0.1124  0.0660 -0.2103
13754DDP     C482524   3.602   2.938   5.966  0.0782  0.0394  0.1502
13755DDP     C182525  27.490  24.516   8.634  0.1594 -0.4065  0.2353
13755DDP     P182526  27.820  24.508   8.422 -0.1974  0.1265 -0.0331
13755DDP     P282527  27.275  24.412   8.250  0.0405 -0.0801 -0.0210
13755DDP     C282528  26.893  24.536   8.124  0.1315  0.5661  0.0434
13755DDP     C382529  28.217  24.658   8.396 -0.0373  0.3749  0.0442
13755DDP     C482530  27.391  24.467   9.124  0.0894  0.1283  0.3000
13756DDP     C182531   0.343  28.031  22.245  0.0696 -0.3115 -0.3752
13756DDP     P182532  30.200  27.969  22.103 -0.3287 -0.1936  0.0553
13756DDP     P282533   0.524  28.450  22.015 -0.3092 -0.3204  0.0300
13756DDP     C282534   0.731  28.531  21.717  0.0960  0.0796  0.1961
13756DDP     C382535  30.007  27.582  21.996 -0.0608 -0.0141  0.0282
13756DDP     C482536   0.520  27.973  22.661  0.0351 -0.2143 -0.2863
13757DDP     C182537  17.185   0.266   9.528  0.1340  0.1994 -0.3674
13757DDP     P182538  17.396  30.229   9.410 -0.2731 -0.4610 -0.1810
13757DDP     P282539  16.932   0.206   9.199  0.2363  0.2351 -0.0072
13757DDP     C282540  16.800   0.327   8.773 -0.3362 -0.1101  0.1159
13757DDP     C382541  17.456  29.811   9.181 -0.0296 -0.1064  0.1353
13757DDP     C482542  17.189   0.606   9.807 -0.2300 -0.0729  0.0959
13758DDP     C182543  21.433   6.285   2.373  0.1881 -0.1261  0.0096
13758DDP     P182544  21.052   6.136   2.572 -0.2219  0.2515 -0.0754
13758DDP     P282545  21.862   6.141   2.235  0.0236  0.0442  0.0075
13758DDP     C282546  22.042   5.901   1.961  0.0626  0.0093 -0.1491
13758DDP     C382547  21.090   5.795   2.899 -0.1733 -0.1015  0.0692
13758DDP     C482548  21.519   6.770   2.276  0.1912 -0.0593  0.2040
13759DDP     C182549  16.465   7.194   4.172  0.1256 -0.2292  0.0418
13759DDP     P182550  16.455   7.170   3.724  0.0993 -0.0865  0.2893
13759DDP     P282551  16.663   6.994   4.501  0.1025 -0.0133  0.1513
13759DDP     C282552  16.780   6.914   4.849 -0.0612  0.1811 -0.0047
13759DDP     C382553  16.868   7.207   3.467  0.2028  0.1994  0.2752
13759DDP     C482554  15.999   7.014   4.232  0.2113 -0.1829  0.0157
13760DDP     C182555   8.340   7.671   4.267 -0.2147  0.1592  0.0585
13760DDP     P182556   8.303   7.420   4.040  0.1784  0.0937 -0.0222
13760DDP     P282557   8.715   7.735   4.302 -0.1934  0.0685 -0.0712
13760DDP     C282558   8.974   7.829   4.028  0.0762 -0.1340 -0.1970
13760DDP     C382559   8.049   7.240   3.860 -0.1734 -0.1775  0.1602
13760DDP     C482560   8.085   7.655   4.576  0.2226  0.0677 -0.0583
13761DDP     C182561  20.535  29.042   2.532  0.0333  0.0908 -0.3893
13761DDP     P182562  20.065  28.979   2.781 -0.1535  0.3024  0.0895
13761DDP     P282563  20.712  28.637   2.359 -0.3404 -0.0751  0.2913
13761DDP     C282564  20.910  28.483   2.001 -0.3222 -0.0767 -0.0597
13761DDP     C382565  19.727  28.739   3.004  0.0111  0.0016  0.1927
13761DDP     C482566  20.531  29.514   2.394 -0.1998 -0.0384 -0.1033
13762DDP     C182567  15.581  25.640   2.843 -0.3562  0.2128 -0.0243
13762DDP     P182568  15.408  25.431   2.471 -0.2228  0.3667 -0.1024
13762DDP     P282569  15.332  25.978   2.829 -0.2317  0.0700 -0.4837
13762DDP     C282570  14.904  26.117   2.806 -0.1242 -0.1100  0.1504
13762DDP     C382571  15.665  24.998   2.443 -0.1427  0.0311 -0.0667
13762DDP     C482572  15.995  25.547   3.052  0.3958 -0.3264  0.2211
13763DDP     C182573  11.312   3.075  28.630  0.2330  0.1020 -0.1954
13763DDP     P182574  11.037   3.089  28.261  0.0091  0.0793 -0.2326
13763DDP     P282575  11.195   2.682  28.782 -0.0342  0.0842  0.1296
13763DDP     C282576  10.753   2.339  28.748 -0.1715  0.0370  0.0834
13763DDP     C382577  11.102   2.725  27.930  0.1953 -0.1723 -0.0495
13763DDP     C482578  11.644   3.423  28.756 -0.0073  0.2949 -0.1821
13764DDP     C182579  20.356  27.741   3.394 -0.2432  0.0522  0.0023
13764DDP     P182580  20.475  28.207   3.437 -0.0406  0.0164 -0.0923
13764DDP     P282581  20.361  27.382   3.765  0.1589  0.0424  0.1931
13764DDP     C282582  20.040  27.106   3.922  0.0323 -0.0956  0.0586
13764DDP     C382583  20.411  28.596   3.276  0.0431 -0.2730 -0.0188
13764DDP     C482584  20.064  27.678   3.203  0.0426  0.0834 -0.2240
13765DDP     C182585  30.330   4.390  12.110 -0.0761 -0.1436  0.0644
13765DDP     P182586   0.222   4.047  11.799 -0.0608 -0.3100 -0.0954
13765DDP     P282587  29.894   4.305  12.395 -0.1210 -0.0326  0.2651
13765DDP     C282588  29.386   4.169  12.542 -0.0977 -0.0494 -0.3986
13765DDP     C382589   0.334   3.771  11.455  0.1428  0.1359  0.0079
13765DDP     C482590   0.119   4.805  11.807  0.3066  0.1597  0.1336
13766DDP     C182591   5.295   6.084  28.871 -0.1341  0.1508  0.0097
13766DDP     P182592   5.072   6.336  29.163 -0.2546  0.3551  0.2187
13766DDP     P282593   5.638   5.946  29.231  0.0655 -0.4063 -0.1150
13766DDP     C282594   5.794   6.050  29.636 -0.0163  0.2066  0.0662
13766DDP     C382595   5.004   6.584  29.464 -0.1074 -0.2789 -0.3583
13766DDP     C482596   5.151   6.086  28.439 -0.0025  0.3559  0.1772
13767DDP     C182597  25.963  10.641   4.963 -0.0795  0.0494 -0.0730
13767DDP     P182598  26.074  10.274   4.688 -0.1054 -0.3936  0.1241
13767DDP     P282599  26.351  10.921   5.201  0.2268 -0.2354 -0.1373
13767DDP     C282600  26.659  10.883   5.477  0.4845  0.1040  0.0693
13767DDP     C382601  26.363  10.051   4.709  0.1911  0.0932  0.1880
13767DDP     C482602  25.699  10.788   4.776  0.0100  0.1681  0.1441
13768DDP     C182603  14.932   0.998   0.837 -0.1380 -0.0625 -0.1759
13768DDP     P182604  15.314   1.313   0.909 -0.0656  0.3369  0.0764
13768DDP     P282605  14.735   0.891   1.172  0.0048 -0.1171  0.1358
13768DDP     C282606  14.295   0.868   1.513 -0.0518 -0.0839  0.0558
13768DDP     C382607  15.401   1.689   0.675  0.1284  0.2798 -0.3162
13768DDP     C482608  14.819   1.117   0.304  0.1356 -0.0208  0.1345
13769DDP     C182609  26.654  13.104  14.339  0.0524 -0.1420  0.0080
13769DDP     P182610  26.986  12.973  14.104 -0.0034 -0.0687 -0.3264
13769DDP     P282611  26.780  13.401  14.691  0.0193  0.1936 -0.0137
13769DDP     C282612  26.691  13.699  14.987  0.1523  0.4651  0.5360
13769DDP     C382613  27.112  12.813  13.730  0.0285 -0.1505  0.0933
13769DDP     C482614  26.247  13.270  14.180  0.2548  0.0209 -0.0607
13770DDP     C182615   1.653  25.529  25.285  0.1646  0.2666 -0.2048
13770DDP     P182616   1.691  25.880  25.545  0.0642 -0.0505 -0.0636
13770DDP     P282617   1.246  25.741  25.070 -0.1554 -0.1675 -0.3553
13770DDP     C282618   0.904  25.645  24.815 -0.2793 -0.0181 -0.1057
13770DDP     C382619   1.917  26.252  25.678  0.0104 -0.0571 -0.1925
13770DDP     C482620   1.649  25.092  25.411  0.0262 -0.2413  0.0276
13771DDP     C182621  17.090   8.813   7.056 -0.0259  0.1566  0.0614
13771DDP     P182622  17.105   8.805   6.620 -0.1166 -0.0715 -0.0065
13771DDP     P282623  17.541   8.754   7.257  0.1873 -0.0507  0.2609
13771DDP     C282624  17.867   8.940   7.471 -0.2327 -0.0551  0.0568
13771DDP     C382625  17.295   8.401   6.357 -0.1023  0.1764 -0.1206
13771DDP     C482626  16.852   8.991   7.372  0.2776  0.2743  0.2071
13772DDP     C182627  26.536  12.350  24.646  0.0607 -0.0734 -0.0748
13772DDP     P182628  26.507  12.766  24.636  0.1795 -0.2681 -0.2781
13772DDP     P282629  26.487  12.300  24.258  0.0528 -0.2569 -0.0374
13772DDP     C282630  26.292  12.405  23.909  0.3130 -0.3126  0.1183
13772DDP     C382631  26.477  13.237  24.566  0.4361  0.1317  0.0165
13772DDP     C482632  26.574  12.045  24.902 -0.0754  0.1098  0.0371
13773DDP     C182633  28.185  12.223   4.298 -0.1554 -0.1854  0.0693
13773DDP     P182634  28.224  11.871   4.207 -0.2271  0.1644 -0.0517
13773DDP     P282635  28.266  12.244   4.713 -0.4426 -0.1255  0.2695
13773DDP     C282636  28.215  12.513   4.948 -0.0714 -0.0375  0.0119
13773DDP     C382637  28.526  11.572   4.119 -0.0957 -0.0179 -0.1398
13773DDP     C482638  28.245  12.522   3.891 -0.3101 -0.2746 -0.0192
13774DDP     C182639   6.786  12.889  13.659 -0.3259  0.0506  0.1262
13774DDP     P182640   6.549  12.552  13.936 -0.0380 -0.0452 -0.1398
13774DDP     P282641   6.605  13.342  13.762  0.1425  0.2279  0.0934
13774DDP     C282642   6.818  13.640  13.744 -0.2046 -0.1248 -0.0223
13774DDP     C382643   6.342  12.540  14.401 -0.2558 -0.1715  0.2640
13774DDP     C482644   6.982  12.753  13.164 -0.1264 -0.0024 -0.0402
13775DDP     C182645  11.064   5.537  16.848 -0.2483 -0.0635 -0.0249
13775DDP     P182646  11.148   5.195  16.652  0.0621 -0.1953 -0.1974
13775DDP     P282647  10.749   5.767  16.678 -0.0345 -0.0539 -0.0723
13775DDP     C282648  10.297   5.943  16.938  0.0554  0.5769 -0.0667
13775DDP     C382649  11.320   5.052  16.150 -0.1957 -0.1419  0.1793
13775DDP     C482650  11.162   5.641  17.240  0.0546 -0.0097  0.0374
13776DDP     C182651  15.210   4.911  27.986  0.0851  0.0415 -0.3578
13776DDP     P182652  14.757   4.921  28.068  0.3478  0.0515 -0.0712
13776DDP     P282653  15.317   5.175  27.637  0.2155  0.0144 -0.0160
13776DDP     C282654  15.280   5.319  27.345  0.0877  0.0219  0.1821
13776DDP     C382655  14.312   5.111  28.075 -0.0059 -0.1369  0.0184
13776DDP     C482656  15.390   4.552  27.985  0.1173  0.2541  0.0411
13777DDP     C182657   3.388   4.192   3.439  0.3126 -0.2848 -0.0021
13777DDP     P182658   3.174   3.857   3.146  0.1105  0.1909  0.0207
13777DDP     P282659   3.031   4.373   3.578 -0.3272  0.0164 -0.2643
13777DDP     C282660   2.631   4.288   3.820  0.1885 -0.2652  0.2463
13777DDP     C382661   3.025   3.499   2.888 -0.1184  0.1773 -0.3270
13777DDP     C482662   3.792   4.333   3.601  0.0345 -0.1822  0.0971
13778DDP     C182663  14.463  16.084   2.593 -0.0100  0.0873  0.0494
13778DDP     P182664  14.298  16.490   2.298 -0.0563 -0.2202 -0.0185
13778DDP     P282665  14.823  16.263   2.690 -0.0443 -0.0462  0.1974
13778DDP     C282666  15.170  16.684   2.767  0.1864  0.1600  0.4606
13778DDP     C382667  14.363  16.889   2.000  0.1894 -0.2630  0.0248
13778DDP     C482668  14.311  15.752   2.906 -0.0209 -0.0966 -0.0321
13779DDP     C182669  12.580   4.076  11.284 -0.0250  0.2420 -0.2813
13779DDP     P182670  12.476   4.049  10.848  0.0584  0.1136  0.0823
13779DDP     P282671  12.778   3.747  11.384  0.0964  0.0389 -0.0565
13779DDP     C282672  13.000   3.463  11.129  0.2117  0.1915  0.1473
13779DDP     C382673  12.166   4.225  10.562 -0.3253  0.1492  0.2429
13779DDP     C482674  12.244   4.205  11.542 -0.1300 -0.0356 -0.2463
13780DDP     C182675  17.062  17.627  12.092  0.0434  0.1325 -0.1447
13780DDP     P182676  16.656  17.590  12.154 -0.1383  0.1109  0.0714
13780DDP     P282677  16.902  18.093  12.033 -0.0450 -0.0035 -0.3131
13780DDP     C282678  16.877  18.617  12.097 -0.0243  0.4196 -0.1522
13780DDP     C382679  16.328  17.422  12.373  0.0458  0.2007 -0.0734
13780DDP     C482680  17.361  17.446  12.278 -0.0592 -0.1272  0.0422
13781DDP     C182681   0.331  22.723   1.622 -0.0021  0.1921  0.1788
13781DDP     P182682   0.119  22.663   1.278 -0.1539  0.1389 -0.0925
13781DDP     P282683   0.657  22.973   1.576 -0.0923 -0.1658 -0.1979
13781DDP     C282684   1.026  23.249   1.500  0.0025  0.1497  0.3085
13781DDP     C382685  29.909  22.764   1.248  0.2128 -0.0919 -0.3240
13781DDP     C482686   0.322  22.360   1.971  0.2732 -0.0809 -0.1774
13782DDP     C182687  20.246   9.451  19.278  0.0983  0.0797 -0.0801
13782DDP     P182688  20.320   9.626  19.707  0.3152  0.3046 -0.0034
13782DDP     P282689  20.035   9.676  19.018  0.1689  0.2918  0.1188
13782DDP     C282690  19.821   9.561  18.579 -0.2196 -0.2379  0.1418
13782DDP     C382691  20.073   9.710  20.060 -0.1107 -0.0091 -0.3435
13782DDP     C482692  20.042   9.040  19.418  0.0781 -0.3116  0.4004
13783DDP     C182693  12.614  26.778  25.772 -0.1641  0.1434  0.0138
13783DDP     P182694  13.022  26.585  25.799  0.3216  0.0968  0.0509
13783DDP     P282695  12.430  26.613  25.412 -0.0431 -0.2124 -0.0608
13783DDP     C282696  12.620  26.658  24.976  0.2776 -0.2386  0.0579
13783DDP     C382697  13.269  26.379  25.562 -0.0203 -0.3530  0.1325
13783DDP     C482698  12.484  27.179  25.934 -0.2250  0.1089 -0.2089
13784DDP     C182699  21.830   6.004   5.623 -0.1574  0.1888 -0.1284
13784DDP     P182700  22.064   5.617   5.548  0.0134  0.0826 -0.2053
13784DDP     P282701  21.623   5.718   5.956  0.0606 -0.1080 -0.0467
13784DDP     C282702  21.469   5.295   6.109 -0.4911  0.0028  0.2333
13784DDP     C382703  22.389   5.351   5.663 -0.0789  0.1030 -0.0341
13784DDP     C482704  21.757   6.434   5.619 -0.1384 -0.0838 -0.2011
13785DDP     C182705  22.470   9.620   5.279 -0.0133  0.2046  0.2174
13785DDP     P182706  22.218   9.859   5.534 -0.0663 -0.1706 -0.3081
13785DDP     P282707  22.905   9.734   5.278 -0.1908 -0.2043 -0.4332
13785DDP     C282708  23.258   9.484   5.415  0.3098  0.0359  0.1067
13785DDP     C382709  22.404  10.150   5.854 -0.2266  0.0582  0.2197
13785DDP     C482710  22.515   9.202   5.140 -0.0550 -0.0953  0.2047
13786DDP     C182711  29.724  27.787   5.336 -0.0382 -0.4239 -0.0099
13786DDP     P182712  29.913  27.741   5.019 -0.1807 -0.2649 -0.1285
13786DDP     P282713  29.400  27.484   5.274  0.0740  0.3129 -0.1492
13786DDP     C282714  29.178  27.070   5.469 -0.1157  0.2295 -0.1047
13786DDP     C382715  30.191  27.993   4.740  0.0103  0.2356  0.0869
13786DDP     C482716  29.730  28.115   5.676 -0.3440 -0.0386  0.1592
13787DDP     C182717   5.044  24.535   2.822  0.2287 -0.4407 -0.2025
13787DDP     P182718   5.366  24.616   3.153  0.1370  0.0437 -0.3374
13787DDP     P282719   4.697  24.330   2.869 -0.0772 -0.2503 -0.0718
13787DDP     C282720   4.347  24.361   2.711 -0.1126 -0.0197  0.0808
13787DDP     C382721   5.285  24.817   3.550  0.1506 -0.0050 -0.0182
13787DDP     C482722   5.194  24.341   2.358  0.1224  0.1163 -0.2821
13788DDP     C182723  24.178  24.014  20.829  0.1299 -0.0642 -0.0523
13788DDP     P182724  24.437  23.947  21.112  0.3501 -0.1875 -0.2119
13788DDP     P282725  23.900  23.695  20.595  0.1109  0.0202  0.0850
13788DDP     C282726  23.496  23.685  20.457  0.2096  0.1984 -0.0944
13788DDP     C382727  24.402  24.248  21.436  0.2993  0.0901  0.0959
13788DDP     C482728  24.375  24.349  20.686 -0.3744  0.0970 -0.0372
13789DDP     C182729  28.798  28.249  17.710  0.0699  0.3848  0.2096
13789DDP     P182730  29.070  28.427  17.433 -0.0819 -0.2198 -0.1017
13789DDP     P282731  29.111  28.073  18.096  0.2403 -0.3224  0.0886
13789DDP     C282732  29.403  28.190  18.361  0.1344 -0.0443 -0.0495
13789DDP     C382733  29.456  28.578  17.216  0.0090  0.2948  0.1466
13789DDP     C482734  28.343  28.331  17.707  0.0937 -0.0855 -0.3521
13790DDP     C182735  15.565  29.293  30.185  0.2019 -0.1979 -0.0181
13790DDP     P182736  15.301  29.426  29.902 -0.3694  0.1172  0.0363
13790DDP     P282737  15.912  29.620  30.266 -0.1626  0.1703  0.3152
13790DDP     C282738  16.140  29.973   0.150  0.3181  0.2679 -0.1590
13790DDP     C382739  15.198  29.786  29.682  0.3054  0.1595  0.0840
13790DDP     C482740  15.314  29.051   0.210 -0.2350 -0.0936 -0.0057
13791DDP     C182741   5.328  26.397  17.056 -0.1521  0.0887  0.2108
13791DDP     P182742   5.150  26.171  16.804  0.1607 -0.1923 -0.0519
13791DDP     P282743   5.205  26.801  16.814  0.5062 -0.1075 -0.1770
13791DDP     C282744   5.086  27.267  16.884  0.0303 -0.0481 -0.2380
13791DDP     C382745   4.882  25.884  16.727 -0.0508 -0.2764 -0.3743
13791DDP     C482746   5.432  26.311  17.424  0.2780 -0.1860  0.1339
13792DDP     C182747   1.120  11.672  21.711 -0.3828 -0.2245  0.0698
13792DDP     P182748   1.492  11.961  21.658 -0.3163  0.1962  0.0837
13792DDP     P282749   0.737  11.475  21.430 -0.2186 -0.0698 -0.0512
13792DDP     C282750   0.353  11.425  21.185  0.2566 -0.0571  0.0841
13792DDP     C382751   1.902  11.927  21.830 -0.1782  0.1765 -0.1790
13792DDP     C482752   1.119  11.612  22.103 -0.2703  0.1604 -0.1040
13793DDP     C182753   5.263  18.634  21.216 -0.3377 -0.1192  0.1808
13793DDP     P182754   4.940  18.366  21.245 -0.2963 -0.5561  0.0604
13793DDP     P282755   5.187  18.735  20.861 -0.1749  0.0992 -0.3228
13793DDP     C282756   4.942  18.896  20.588  0.1498 -0.4423 -0.0925
13793DDP     C382757   4.833  17.932  21.344 -0.1278  0.5692  0.0168
13793DDP     C482758   5.387  18.805  21.537  0.0244 -0.1520 -0.0129
13794DDP     C182759  18.669  26.063  18.881  0.0050  0.0221  0.2995
13794DDP     P182760  18.560  25.682  18.873  0.2388  0.1022  0.1059
13794DDP     P282761  18.748  26.139  18.394  0.3787 -0.0920 -0.1098
13794DDP     C282762  18.883  26.013  17.940  0.3970 -0.0204 -0.2888
13794DDP     C382763  18.289  25.364  19.084  0.0432  0.0634  0.1781
13794DDP     C482764  18.851  26.350  19.240 -0.2404  0.1805 -0.1260
13795DDP     C182765  11.844   6.205   2.609 -0.2421  0.1170 -0.0156
13795DDP     P182766  11.483   6.375   2.797  0.0436 -0.1502  0.1059
13795DDP     P282767  11.846   6.057   2.257  0.3733 -0.4164 -0.0745
13795DDP     C282768  11.895   5.773   2.013 -0.1836 -0.2099 -0.0581
13795DDP     C382769  11.063   6.635   2.920 -0.0233 -0.5311 -0.1096
13795DDP     C482770  12.104   6.273   2.930 -0.0663 -0.0489 -0.0620
13796DDP     C182771  15.638  19.564   4.060  0.1488  0.0449 -0.3399
13796DDP     P182772  15.912  19.638   3.847 -0.0570  0.2095 -0.2478
13796DDP     P282773  15.312  19.293   4.084  0.3043  0.0847  0.0930
13796DDP     C282774  14.900  19.250   4.238 -0.1467 -0.0589 -0.1322
13796DDP     C382775  16.242  19.781   3.589  0.0152  0.0772  0.3123
13796DDP     C482776  15.546  19.870   4.279  0.0361 -0.0401 -0.0241
13797DDP     C182777  23.677  17.880  20.552 -0.0386 -0.0309 -0.0686
13797DDP     P182778  23.692  17.407  20.406 -0.3656 -0.2533  0.3030
13797DDP     P282779  23.290  18.096  20.637 -0.3365  0.3114  0.1611
13797DDP     C282780  23.091  18.308  20.437 -0.0684 -0.0817  0.0840
13797DDP     C382781  23.394  17.153  20.367 -0.1369  0.0407  0.0547
13797DDP     C482782  24.013  17.950  20.661  0.0562 -0.0453 -0.0865
13798DDP     C182783  15.601  15.122   1.963 -0.0330 -0.0187  0.1799
13798DDP     P182784  15.422  14.769   1.580 -0.3687 -0.2974 -0.2586
13798DDP     P282785  15.750  15.123   2.418  0.0391  0.0921 -0.1492
13798DDP     C282786  16.078  15.261   2.659 -0.1880  0.0772  0.1156
13798DDP     C382787  15.633  14.686   1.150 -0.1339 -0.3776 -0.1043
13798DDP     C482788  15.488  15.615   1.773  0.2028 -0.1306  0.1498
13799DDP     C182789   5.493   0.128   1.283  0.1131 -0.0081 -0.3446
13799DDP     P182790   5.820  30.181   1.075  0.0231 -0.2215  0.1324
13799DDP     P282791   5.035   0.008   0.962 -0.0119 -0.1850  0.0089
13799DDP     C282792   4.569  30.112   1.129  0.2268 -0.3703  0.3702
13799DDP     C382793   5.865  29.830   0.799 -0.0486  0.1350  0.2399
13799DDP     C482794   5.646   0.596   1.492 -0.0622 -0.3327 -0.1406
13800DDP     C182795  14.620  18.772   4.148 -0.0312 -0.2972  0.1691
13800DDP     P182796  14.397  19.058   4.432  0.2652 -0.3201 -0.0937
13800DDP     P282797  15.054  18.792   3.996 -0.2455  0.1484 -0.1103
13800DDP     C282798  15.456  18.841   3.818  0.0268 -0.3638 -0.3399
13800DDP     C382799  14.119  19.438   4.712 -0.1332  0.1135  0.2038
13800DDP     C482800  14.375  18.404   4.083  0.1293  0.1181  0.3328
13801DDP     C182801   6.634   4.643   2.122  0.0706  0.2535  0.3537
13801DDP     P182802   6.317   4.756   1.786  0.1680  0.2184 -0.2042
13801DDP     P282803   6.548   4.255   2.164 -0.0144  0.1092  0.0126
13801DDP     C282804   6.696   3.906   2.406  0.0478 -0.0015  0.1127
13801DDP     C382805   6.200   4.913   1.377  0.3255 -0.1284  0.0897
13801DDP     C482806   7.013   4.869   2.402  0.0973 -0.1551 -0.0659
13802DDP     C182807  16.583  27.576   9.404  0.0856 -0.1479  0.2067
13802DDP     P182808  16.331  27.487   9.181 -0.0625  0.1092  0.2536
13802DDP     P282809  16.565  28.104   9.565 -0.1460  0.1132 -0.1046
13802DDP     C282810  16.562  28.520   9.254 -0.0259 -0.1499 -0.0948
13802DDP     C382811  15.954  27.511   9.128  0.1524 -0.2712  0.2334
13802DDP     C482812  16.906  27.201   9.396  0.0902 -0.1140 -0.2201
13803DDP     C182813  11.519   3.253   3.038  0.0253 -0.0736 -0.0278
13803DDP     P182814  11.520   3.545   2.689  0.0772 -0.0224  0.1844
13803DDP     P282815  11.314   3.394   3.486 -0.0545  0.1723 -0.0880
13803DDP     C282816  10.985   3.441   3.764 -0.0098 -0.0998 -0.0508
13803DDP     C382817  11.594   3.608   2.241  0.1160 -0.1780  0.2269
13803DDP     C482818  11.820   2.861   3.000  0.3042  0.2522  0.1920
13804DDP     C182819  29.917   4.580   3.906 -0.0083  0.0610  0.3338
13804DDP     P182820  30.113   5.082   3.883 -0.2534 -0.1274  0.2545
13804DDP     P282821  29.477   4.577   3.837 -0.2878 -0.3027 -0.0206
13804DDP     C282822  29.105   4.525   3.618 -0.0982 -0.3019  0.1341
13804DDP     C382823   0.071   5.351   3.687 -0.0145  0.2322  0.0124
13804DDP     C482824  30.316   4.288   4.115 -0.0501  0.0016  0.3383
13805DDP     C182825   0.476  19.968  23.385 -0.0729 -0.0882  0.1511
13805DDP     P182826   0.514  19.531  23.217 -0.1716  0.1169  0.1099
13805DDP     P282827   0.215  20.303  23.418 -0.2412 -0.1743  0.0426
13805DDP     C282828  30.238  20.603  23.636  0.2411  0.0195 -0.0325
13805DDP     C382829   0.932  19.279  23.203  0.3112 -0.2105  0.1481
13805DDP     C482830   0.805  20.192  23.436 -0.2531  0.0904 -0.2602
13806DDP     C182831   4.012  18.846  30.100  0.2067 -0.0380  0.0564
13806DDP     P182832   4.162  19.174   0.068 -0.0350 -0.0125 -0.0679
13806DDP     P282833   4.311  18.890  29.863 -0.0544 -0.2545 -0.1594
13806DDP     C282834   4.504  19.223  29.600  0.0759 -0.1045  0.3003
13806DDP     C382835   4.090  19.590   0.227  0.0535  0.1912  0.1330
13806DDP     C482836   3.779  18.600  30.041  0.0715 -0.1915 -0.1120
13807DDP     C182837  23.080  22.174  13.558 -0.1632  0.4256  0.3973
13807DDP     P182838  23.173  22.361  13.128 -0.0250 -0.2849  0.2056
13807DDP     P282839  22.980  21.763  13.531  0.2631  0.1218  0.0790
13807DDP     C282840  22.633  21.466  13.340  0.1809  0.0825  0.0374
13807DDP     C382841  23.411  22.140  12.746 -0.2641 -0.0239 -0.3205
13807DDP     C482842  23.307  22.280  13.924 -0.1713 -0.1266  0.0133
13808DDP     C182843  23.914  22.044  29.066  0.2263 -0.2571  0.1608
13808DDP     P182844  24.251  21.931  29.303 -0.1901 -0.2260 -0.2229
13808DDP     P282845  23.608  22.057  29.286  0.0474  0.0623 -0.0283
13808DDP     C282846  23.135  22.327  29.176  0.0662  0.3092 -0.4789
13808DDP     C382847  24.717  21.892  29.207 -0.3096 -0.4421 -0.3814
13808DDP     C482848  23.977  22.269  28.658  0.2659 -0.0557  0.1626
13809DDP     C182849  10.074  15.226  27.821 -0.0313  0.1429  0.2488
13809DDP     P182850   9.658  15.205  27.654 -0.0990  0.1161 -0.1131
13809DDP     P282851  10.359  15.582  27.631 -0.2495 -0.1601 -0.3855
13809DDP     C282852  10.712  15.585  27.480  0.0764  0.0549 -0.3549
13809DDP     C382853   9.373  15.195  27.267  0.0612  0.1570  0.3841
13809DDP     C482854  10.214  14.834  27.862  0.0241  0.1882 -0.0074
13810DDP     C182855  17.458  23.449   3.492 -0.0389 -0.2295  0.0009
13810DDP     P182856  17.084  23.333   3.246 -0.1306  0.2386  0.0928
13810DDP     P282857  17.792  23.302   3.706  0.3130  0.1875  0.0094
13810DDP     C282858  18.108  23.164   3.986  0.2164  0.2401  0.1137
13810DDP     C382859  16.784  23.413   2.998  0.1808  0.0766 -0.0268
13810DDP     C482860  17.428  23.897   3.577 -0.0698  0.0965  0.0145
13811DDP     C182861  17.775   8.823   5.260 -0.1413 -0.0340 -0.2491
13811DDP     P182862  18.138   9.045   5.241  0.0952 -0.0306  0.1756
13811DDP     P282863  17.928   8.513   5.021 -0.1063 -0.0958  0.1144
13811DDP     C282864  18.211   8.471   4.600  0.2637 -0.0171  0.0246
13811DDP     C382865  18.432   9.293   4.929 -0.0508 -0.0606  0.0496
13811DDP     C482866  17.407   9.049   5.231  0.2149  0.0496 -0.2125
13812DDP     C182867  14.788  29.167   0.362  0.0515 -0.0130  0.0841
13812DDP     P182868  14.648  29.547   0.607  0.0263 -0.0270  0.4417
13812DDP     P282869  14.801  29.255  30.218 -0.0092  0.0409 -0.0201
13812DDP     C282870  14.856  29.377  29.797 -0.0448  0.2139  0.1473
13812DDP     C382871  14.429  29.479   1.021  0.2161 -0.1738 -0.3424
13812DDP     C482872  14.996  28.836   0.462  0.3118  0.3917 -0.0543
13813DDP     C182873  28.789  16.255  20.077 -0.2857  0.0271 -0.0646
13813DDP     P182874  28.787  16.653  20.004 -0.2078 -0.0428  0.0049
13813DDP     P282875  29.166  16.156  19.739 -0.0345 -0.1018  0.1986
13813DDP     C282876  29.536  16.365  19.508  0.1216 -0.0637  0.0685
13813DDP     C382877  28.706  17.049  19.815  0.1587  0.0409 -0.2132
13813DDP     C482878  28.530  15.943  20.332 -0.0329  0.1974 -0.2883
13814DDP     C182879  12.858  28.688  11.049 -0.4261  0.3036 -0.1038
13814DDP     P182880  12.559  28.980  10.676 -0.3065 -0.3337 -0.3607
13814DDP     P282881  13.298  28.467  10.961  0.0500 -0.2229  0.3608
13814DDP     C282882  13.759  28.676  11.100  0.1894  0.0528  0.0985
13814DDP     C382883  12.331  29.098  10.211 -0.0534  0.0409 -0.1923
13814DDP     C482884  12.688  28.848  11.488  0.0186 -0.0733 -0.1483
13815DDP     C182885  29.966   0.032  12.263 -0.2253  0.0480  0.1589
13815DDP     P182886  30.022  29.878  12.211  0.0440 -0.0553 -0.0551
13815DDP     P282887  30.260   0.219  12.498  0.0678 -0.0685  0.2037
13815DDP     C282888   0.313   0.532  12.509 -0.0475 -0.0665 -0.2585
13815DDP     C382889  29.850  29.504  12.095 -0.1566  0.1485 -0.1051
13815DDP     C482890  29.513   0.163  12.361 -0.0657  0.0130 -0.3217
13816DDP     C182891  20.626  15.767  12.088 -0.0659 -0.0287  0.1287
13816DDP     P182892  20.575  15.611  12.455 -0.0448 -0.0490  0.0281
13816DDP     P282893  20.790  15.632  11.717 -0.0789 -0.0514 -0.0736
13816DDP     C282894  20.881  15.406  11.448 -0.3252  0.0178 -0.0121
13816DDP     C382895  20.480  15.572  12.885  0.2124  0.0342 -0.0784
13816DDP     C482896  20.533  16.140  12.178 -0.2940 -0.0282  0.0775
13817DDP     C182897  23.470  17.770  27.382  0.1468 -0.0447  0.0485
13817DDP     P182898  23.699  17.602  27.738  0.0470 -0.1642  0.2711
13817DDP     P282899  23.519  18.206  27.299  0.1136  0.1150 -0.0596
13817DDP     C282900  23.620  18.586  26.986 -0.2711 -0.2317  0.3092
13817DDP     C382901  23.978  17.587  28.193 -0.0542  0.2282  0.0050
13817DDP     C482902  23.200  17.487  27.112  0.1071 -0.3967  0.2698
13818DDP     C182903   6.305   2.342   7.613  0.1243 -0.2054  0.1637
13818DDP     P182904   6.088   2.112   7.915  0.1898  0.1403  0.0426
13818DDP     P282905   6.704   2.172   7.471  0.1319 -0.3450  0.0244
13818DDP     C282906   7.067   2.180   7.229 -0.1562  0.3770 -0.2391
13818DDP     C382907   5.971   1.956   8.378 -0.3200 -0.1456 -0.0326
13818DDP     C482908   6.152   2.751   7.425  0.1335 -0.1557 -0.2700
13819DDP     C182909   2.443   4.567  14.202 -0.0353  0.1046  0.0827
13819DDP     P182910   2.925   4.741  14.230  0.3480 -0.0790 -0.2513
13819DDP     P282911   2.341   4.304  14.471 -0.3414  0.3497 -0.1213
13819DDP     C282912   2.339   4.357  14.900 -0.0262 -0.1769  0.2088
13819DDP     C382913   3.296   4.643  14.278 -0.0745  0.2976 -0.0842
13819DDP     C482914   2.240   4.630  13.824  0.2460  0.0118  0.3461
13820DDP     C182915   7.606  14.018  23.169 -0.1772 -0.2006 -0.1140
13820DDP     P182916   7.145  13.984  23.136 -0.0801 -0.2484  0.0814
13820DDP     P282917   7.925  13.769  23.282 -0.0564 -0.4079  0.4448
13820DDP     C282918   8.235  13.638  23.486 -0.1884 -0.1467  0.1043
13820DDP     C382919   6.731  14.012  23.355 -0.1415  0.2361  0.1270
13820DDP     C482920   7.617  14.429  23.083 -0.2720  0.1158  0.0679
13821DDP     C182921  11.962  16.445  24.458 -0.3110  0.2749  0.4245
13821DDP     P182922  11.871  16.831  24.686 -0.1173  0.1571  0.0165
13821DDP     P282923  12.258  16.278  24.745 -0.3116  0.1279 -0.3679
13821DDP     C282924  12.665  16.227  24.832  0.0538 -0.0916 -0.0592
13821DDP     C382925  11.626  17.209  24.926  0.2160 -0.2085  0.1091
13821DDP     C482926  12.119  16.375  24.059 -0.3325 -0.0103 -0.1780
13822DDP     C182927  15.064   5.035  21.547  0.0694  0.0919 -0.0337
13822DDP     P182928  15.079   4.769  21.178 -0.2294 -0.0209  0.4105
13822DDP     P282929  14.784   4.821  21.834 -0.0879 -0.2533 -0.0711
13822DDP     C282930  14.684   4.914  22.242  0.0222 -0.1797 -0.2482
13822DDP     C382931  14.910   4.441  20.825  0.1660  0.0256 -0.0857
13822DDP     C482932  15.399   5.290  21.755 -0.1457 -0.1191  0.1469
13823DDP     C182933   1.002   9.290  15.803 -0.0374  0.1380 -0.1283
13823DDP     P182934   0.670   9.358  15.544 -0.0187  0.1756  0.0371
13823DDP     P282935   0.951   8.873  16.066 -0.2116 -0.0998  0.1422
13823DDP     C282936   0.660   8.539  16.219  0.2555 -0.0970  0.0759
13823DDP     C382937   0.371   9.300  15.228 -0.3254  0.0391  0.1245
13823DDP     C482938   1.396   9.517  15.722 -0.1118 -0.0264  0.0114
13824DDP     C182939   8.648  13.628  26.498 -0.0380 -0.3053  0.1659
13824DDP     P182940   8.898  13.454  26.772  0.4141  0.0330 -0.2220
13824DDP     P282941   8.395  13.937  26.683  0.0063 -0.1080 -0.0432
13824DDP     C282942   8.021  14.261  26.579  0.1187 -0.1873 -0.0192
13824DDP     C382943   9.280  13.373  26.915 -0.0830  0.1082  0.1948
13824DDP     C482944   8.463  13.518  26.152 -0.0437  0.3855  0.0863
13825DDP     C182945   9.782  14.669  19.571 -0.0919 -0.0698 -0.1145
13825DDP     P182946   9.619  14.856  19.959  0.1545  0.3467  0.1540
13825DDP     P282947  10.154  14.543  19.443  0.2341 -0.3162  0.3195
13825DDP     C282948  10.454  14.268  19.483  0.0153  0.1731  0.1758
13825DDP     C382949   9.456  15.089  20.301  0.4033  0.1220 -0.1254
13825DDP     C482950   9.481  14.789  19.273 -0.2316 -0.1879  0.3197
13826DDP     C182951   2.773  17.184   6.159  0.1444 -0.0596  0.2346
13826DDP     P182952   2.400  17.024   6.158 -0.0827  0.1515 -0.1229
13826DDP     P282953   2.959  17.274   5.793  0.2513 -0.2625 -0.0971
13826DDP     C282954   2.793  17.595   5.471  0.2296 -0.0292 -0.1300
13826DDP     C382955   2.022  17.002   5.850 -0.0187 -0.0962  0.1786
13826DDP     C482956   2.935  17.151   6.556 -0.1860 -0.1060  0.0374
13827DDP     C182957  23.808  19.183  20.265  0.1299  0.1892  0.1906
13827DDP     P182958  24.197  19.392  20.209  0.0857  0.3527  0.0538
13827DDP     P282959  23.909  18.827  20.241 -0.3313  0.2078  0.3701
13827DDP     C282960  24.010  18.561  19.963  0.2755  0.3422 -0.3251
13827DDP     C382961  24.527  19.869  20.100  0.0513 -0.0615 -0.0029
13827DDP     C482962  23.390  19.374  20.511 -0.1910  0.2044  0.0904
13828DDP     C182963  28.814  27.577  28.040  0.1225  0.0181 -0.2682
13828DDP     P182964  28.511  27.316  28.014 -0.2733 -0.0294  0.0427
13828DDP     P282965  29.099  27.598  28.397 -0.0883  0.1937 -0.0519
13828DDP     C282966  29.457  27.734  28.645 -0.0747  0.2015  0.0269
13828DDP     C382967  28.300  26.851  28.011 -0.1364 -0.1276 -0.2932
13828DDP     C482968  28.728  27.896  27.804 -0.0675  0.0659 -0.1835
13829DDP     C182969  17.759   3.081  17.458 -0.1976  0.2356 -0.0756
13829DDP     P182970  17.571   3.548  17.469  0.0963 -0.1428 -0.0899
13829DDP     P282971  17.857   2.920  17.109 -0.1596  0.1791  0.0301
13829DDP     C282972  17.701   2.579  16.881 -0.0889 -0.1762 -0.3530
13829DDP     C382973  17.275   3.763  17.317 -0.1245  0.2804 -0.3432
13829DDP     C482974  17.830   2.874  17.805 -0.1846 -0.1735  0.1509
13830DDP     C182975  16.140  28.657   9.823  0.1329 -0.2384 -0.0553
13830DDP     P182976  16.386  28.962  10.002  0.2272 -0.0246  0.2683
13830DDP     P282977  15.892  28.705   9.358  0.0067 -0.0636 -0.0136
13830DDP     C282978  16.122  28.732   8.954 -0.1244 -0.3345 -0.0729
13830DDP     C382979  16.856  28.968  10.165  0.1554 -0.2216 -0.2226
13830DDP     C482980  16.299  28.272  10.037 -0.0247 -0.0356 -0.1515
13831DDP     C182981  25.732  24.001  27.143  0.0728 -0.0936 -0.3038
13831DDP     P182982  25.900  23.698  27.487 -0.2410  0.1053  0.2825
13831DDP     P282983  26.018  24.181  26.864  0.0091  0.2032  0.0798
13831DDP     C282984  26.565  24.204  26.880 -0.0894  0.0803  0.0393
13831DDP     C382985  26.352  23.736  27.580  0.1291  0.0894 -0.3079
13831DDP     C482986  25.326  24.046  27.083  0.0788  0.1217 -0.0332
13832DDP     C182987  21.614  29.390   7.870 -0.1834 -0.0753 -0.2331
13832DDP     P182988  21.294  29.405   7.476  0.0708 -0.0173  0.1164
13832DDP     P282989  21.745  29.096   8.101 -0.1179  0.0396  0.1504
13832DDP     C282990  22.038  28.944   8.281  0.0415 -0.1879 -0.2023
13832DDP     C382991  21.113  29.293   7.114 -0.2250  0.2121  0.2782
13832DDP     C482992  21.670  29.830   8.127  0.2785 -0.0405  0.1374
13833DDP     C182993  29.690  29.080   9.824  0.2624 -0.0550 -0.1265
13833DDP     P182994  29.264  29.328   9.847 -0.3697  0.0239 -0.0771
13833DDP     P282995  29.589  28.603   9.886  0.0277  0.0221 -0.2776
13833DDP     C282996  29.364  28.277   9.700  0.0616 -0.0757 -0.1286
13833DDP     C382997  29.014  29.617   9.792 -0.0344 -0.0437  0.0446
13833DDP     C482998  30.087  29.235   9.664 -0.3397  0.1466  0.4529
13834DDP     C182999   3.421  24.426  12.836  0.0613  0.0454  0.0135
13834DDP     P183000   3.484  24.892  12.793  0.2254 -0.1978  0.3486
13834DDP     P283001   3.036  24.276  13.071  0.1816 -0.2468  0.2511
13834DDP     C283002   2.904  23.956  13.375  0.0033 -0.1299 -0.1602
13834DDP     C383003   3.605  25.309  12.739 -0.1804 -0.3342 -0.0099
13834DDP     C483004   3.805  24.225  12.865  0.1526 -0.1459 -0.4037
13835DDP     C183005   4.494   2.985  15.130 -0.1124  0.0041  0.0992
13835DDP     P183006   4.615   2.610  15.018  0.0376 -0.3172  0.4298
13835DDP     P283007   4.623   3.040  15.560 -0.3072  0.1758  0.3632
13835DDP     C283008   4.992   3.065  15.964  0.1779 -0.2221 -0.0088
13835DDP     C383009   4.520   2.482  14.693 -0.1542  0.0755  0.3182
13835DDP     C483010   4.173   3.259  14.993  0.0057  0.0074 -0.0156
13836DDP     C183011  21.782  25.266  13.712 -0.2764  0.3075  0.0172
13836DDP     P183012  21.813  25.496  13.336  0.0625  0.0962  0.3448
13836DDP     P283013  21.572  24.889  13.739 -0.0310 -0.0377  0.4117
13836DDP     C283014  21.480  24.615  13.325  0.2796 -0.0517  0.1187
13836DDP     C383015  22.142  25.774  13.373 -0.1499  0.0928  0.1020
13836DDP     C483016  22.105  25.400  14.045 -0.1887  0.0940  0.1228
13837DDP     C183017  23.576  18.055  29.176  0.5635 -0.1067  0.1100
13837DDP     P183018  23.410  18.228  28.742 -0.2275  0.1056 -0.1603
13837DDP     P283019  23.314  17.749  29.328 -0.1127 -0.2291 -0.2842
13837DDP     C283020  22.978  17.525  29.529 -0.2103  0.0345 -0.1016
13837DDP     C383021  22.985  18.257  28.556  0.2107 -0.2802 -0.0129
13837DDP     C483022  23.930  18.290  29.295 -0.0196 -0.1003  0.2536
13838DDP     C183023  25.628  16.499   7.635 -0.1607  0.0041 -0.0433
13838DDP     P183024  25.346  16.260   7.354  0.1522 -0.1783 -0.0850
13838DDP     P283025  25.625  16.264   8.123  0.1115 -0.0696  0.1487
13838DDP     C283026  25.176  16.456   8.401 -0.1612  0.3259  0.0140
13838DDP     C383027  25.046  16.478   7.164  0.1985  0.0683  0.0246
13838DDP     C483028  25.941  16.765   7.484  0.1456 -0.0745 -0.0987
13839DDP     C183029  26.299   4.991   4.189  0.0323  0.0071  0.0129
13839DDP     P183030  26.051   4.860   4.545  0.2993 -0.0126  0.3672
13839DDP     P283031  26.379   4.770   3.848 -0.1232  0.2382  0.1112
13839DDP     C283032  26.774   4.831   3.609 -0.0311  0.0215  0.0025
13839DDP     C383033  25.821   4.967   4.812 -0.0939  0.3549 -0.0542
13839DDP     C483034  26.458   5.454   4.194  0.3009  0.0230  0.2745
13840DDP     C183035  29.753  30.086   4.849 -0.2244 -0.0604 -0.1442
13840DDP     P183036  29.390  29.865   4.610 -0.0749  0.4104  0.2172
13840DDP     P283037  30.138  30.153   4.750  0.0031 -0.0859  0.2292
13840DDP     C283038   0.251  30.216   4.917 -0.0381 -0.1127 -0.2796
13840DDP     C383039  28.982  30.049   4.529 -0.0991  0.1200 -0.2202
13840DDP     C483040  29.702  30.140   5.277 -0.3380  0.0732 -0.1462
13841DDP     C183041  19.010  27.278  23.134 -0.1126 -0.2740  0.1939
13841DDP     P183042  18.940  27.034  22.763 -0.2102  0.0588 -0.0149
13841DDP     P283043  19.298  27.658  22.981 -0.1878 -0.1784  0.1878
13841DDP     C283044  19.410  28.051  22.723 -0.0237 -0.0077  0.0594
13841DDP     C383045  19.260  26.732  22.565  0.1612  0.2818 -0.0889
13841DDP     C483046  18.807  27.174  23.457  0.1050  0.2356 -0.0155
13842DDP     C183047  12.269   6.491  26.074  0.2893 -0.0323  0.3618
13842DDP     P183048  12.463   6.682  25.870  0.3741 -0.1016  0.1380
13842DDP     P283049  11.791   6.340  25.863  0.0088  0.1530 -0.0889
13842DDP     C283050  11.793   5.872  25.719 -0.0492 -0.0020  0.0522
13842DDP     C383051  12.734   6.997  25.685 -0.2349  0.1758 -0.1372
13842DDP     C483052  12.435   6.596  26.484  0.3157 -0.1439 -0.3753
13843DDP     C183053   7.567  16.664   1.413 -0.2486  0.1472 -0.2745
13843DDP     P183054   7.137  16.826   1.622 -0.1856 -0.0690  0.1023
13843DDP     P283055   7.680  16.587   0.950  0.2262  0.0244  0.1142
13843DDP     C283056   7.836  16.709   0.551  0.0668  0.0952  0.2009
13843DDP     C383057   6.744  16.732   1.645  0.0569 -0.1220  0.1739
13843DDP     C483058   8.021  16.608   1.557  0.0404  0.0308  0.1694
13844DDP     C183059   4.916  22.831  28.562  0.2096 -0.1930 -0.0720
13844DDP     P183060   4.771  23.234  28.736  0.0695  0.0211  0.1453
13844DDP     P283061   4.649  22.525  28.546  0.0556 -0.2413  0.4253
13844DDP     C283062   4.333  22.242  28.414 -0.0673 -0.2326  0.0928
13844DDP     C383063   4.905  23.368  29.113 -0.5075 -0.1992 -0.2181
13844DDP     C483064   5.171  22.572  28.391  0.1807 -0.1557  0.0691
13845DDP     C183065  13.813   8.390  25.960  0.1781 -0.2407  0.0387
13845DDP     P183066  13.572   8.005  25.767 -0.1203 -0.1781 -0.3593
13845DDP     P283067  14.255   8.410  26.111 -0.1939 -0.0246  0.0065
13845DDP     C283068  14.611   8.586  26.069 -0.0893 -0.1085 -0.1429
13845DDP     C383069  13.721   7.766  25.403  0.3608 -0.3851 -0.0687
13845DDP     C483070  13.572   8.734  25.888  0.3178 -0.4321  0.1558
13846DDP     C183071  13.149   9.831  22.782 -0.0797  0.1973  0.1544
13846DDP     P183072  13.324   9.763  22.343  0.1142 -0.3517 -0.2441
13846DDP     P283073  13.087  10.147  23.009  0.3217 -0.1545  0.4098
13846DDP     C283074  12.637  10.079  23.165  0.1547 -0.1893  0.0331
13846DDP     C383075  13.753   9.649  22.076 -0.0684  0.2045 -0.2697
13846DDP     C483076  12.959   9.402  22.789  0.0228 -0.0123  0.0450
13847DDP     C183077  27.168  10.369  16.429 -0.1475 -0.0385 -0.0254
13847DDP     P183078  27.033  10.715  16.052 -0.0315 -0.3426 -0.5313
13847DDP     P283079  27.221  10.393  16.873 -0.1425 -0.0595 -0.2231
13847DDP     C283080  27.231  10.561  17.226  0.0093 -0.0595  0.0788
13847DDP     C383081  26.671  10.726  15.807  0.0987  0.3034  0.0788
13847DDP     C483082  27.055  10.018  16.468  0.1741 -0.1372 -0.0759
13848DDP     C183083  28.466  20.419   9.118 -0.0583 -0.1684  0.2320
13848DDP     P183084  28.799  20.319   8.815 -0.0625  0.0068  0.0200
13848DDP     P283085  28.369  20.136   9.411 -0.1765  0.2068  0.2532
13848DDP     C283086  28.116  20.010   9.747 -0.0106  0.1460  0.0678
13848DDP     C383087  29.201  20.383   8.712 -0.2697  0.1711 -0.0805
13848DDP     C483088  28.195  20.763   9.065 -0.1988  0.0194  0.1159
13849DDP     C183089   5.826   5.742   1.994  0.1409 -0.0716 -0.1989
13849DDP     P183090   5.422   5.463   1.986  0.0635 -0.0672  0.1769
13849DDP     P283091   5.877   6.161   2.201 -0.2289  0.1383  0.1781
13849DDP     C283092   5.732   6.563   2.141  0.0645 -0.2151  0.2915
13849DDP     C383093   5.048   5.431   2.226  0.2533 -0.1885  0.1863
13849DDP     C483094   6.094   5.760   1.721  0.0415 -0.2376  0.2786
13850DDP     C183095  20.291   2.217  19.469 -0.2371  0.2042 -0.0046
13850DDP     P183096  20.504   1.861  19.453  0.0376  0.2646  0.0846
13850DDP     P283097  20.450   2.267  19.948 -0.1237  0.1342 -0.0175
13850DDP     C283098  20.468   2.061  20.393  0.0199  0.0676 -0.0321
13850DDP     C383099  20.785   1.527  19.433 -0.4481  0.1931  0.0859
13850DDP     C483100  20.122   2.394  19.129  0.0795  0.2573 -0.0492
13851DDP     C183101   8.018  14.996  12.179 -0.0885 -0.0352  0.1352
13851DDP     P183102   8.076  14.610  12.503  0.1109 -0.2182 -0.2359
13851DDP     P283103   8.404  15.219  11.936  0.1049  0.0721 -0.1568
13851DDP     C283104   8.657  15.392  11.601  0.1960 -0.3512  0.0384
13851DDP     C383105   8.203  14.242  12.630 -0.0944  0.3367  0.1812
13851DDP     C483106   7.608  15.065  12.108 -0.0409 -0.1106  0.0270
13852DDP     C183107  10.966   3.009  11.206 -0.1830 -0.2476  0.2283
13852DDP     P183108  11.320   3.279  11.271  0.0528 -0.2098  0.0024
13852DDP     P283109  10.572   3.105  11.368  0.0650  0.1046  0.1250
13852DDP     C283110  10.341   2.976  11.798  0.0706  0.2869 -0.1231
13852DDP     C383111  11.707   3.536  11.211  0.0073 -0.0365 -0.0164
13852DDP     C483112  11.040   2.824  10.765 -0.0848 -0.0553 -0.0875
13853DDP     C183113  15.990   9.712   0.884 -0.0080 -0.0718 -0.1446
13853DDP     P183114  16.223   9.793   0.511 -0.0472  0.0337 -0.1079
13853DDP     P283115  15.858   9.351   0.760  0.0380  0.0664  0.0314
13853DDP     C283116  15.444   9.358   0.767  0.2925 -0.2000  0.0514
13853DDP     C383117  16.429   9.707   0.107  0.3717 -0.1723 -0.0383
13853DDP     C483118  15.985   9.860   1.274 -0.0120  0.4772 -0.2459
13854DDP     C183119  27.662  23.638   7.828  0.0527 -0.1763 -0.0544
13854DDP     P183120  27.300  23.369   8.051 -0.1258 -0.3140  0.3735
13854DDP     P283121  28.025  23.441   7.889 -0.2408  0.1016  0.1717
13854DDP     C283122  28.373  23.271   7.644 -0.1797  0.0495 -0.0325
13854DDP     C383123  27.152  23.328   8.511 -0.0570 -0.0362  0.1188
13854DDP     C483124  27.637  24.138   7.587  0.1753  0.2054 -0.2782
13855DDP     C183125  19.066  25.505   1.232 -0.1403  0.0996 -0.1585
13855DDP     P183126  18.725  25.485   0.885 -0.1919  0.1017  0.0033
13855DDP     P283127  18.910  25.401   1.763 -0.0716  0.0925  0.1117
13855DDP     C283128  19.200  25.333   2.077 -0.0262 -0.0433 -0.0274
13855DDP     C383129  18.808  25.815   0.513  0.1073 -0.2209 -0.1116
13855DDP     C483130  19.428  25.595   1.159  0.0912  0.3147 -0.1015
13856DDP     C183131   6.123  27.412  30.016  0.2338  0.1647  0.1398
13856DDP     P183132   5.809  27.201  29.800 -0.1451  0.0133  0.1722
13856DDP     P283133   6.058  27.836  30.177  0.2537  0.1422 -0.3820
13856DDP     C283134   5.981  28.203   0.143 -0.1621 -0.2112  0.1357
13856DDP     C383135   5.476  27.079  29.722 -0.0931 -0.1718 -0.5213
13856DDP     C483136   6.455  27.104  30.125  0.3493  0.0921  0.0851
13857DDP     C183137  10.908   7.623  20.175 -0.3945 -0.2641 -0.2784
13857DDP     P183138  11.097   7.370  19.828 -0.0540  0.2826  0.3913
13857DDP     P283139  11.260   7.857  20.316 -0.2821 -0.2068 -0.1840
13857DDP     C283140  11.461   7.833  20.707 -0.3328 -0.0738 -0.1788
13857DDP     C383141  11.373   6.985  19.905 -0.3698 -0.0420 -0.0470
13857DDP     C483142  10.690   7.395  20.484 -0.2247 -0.0925 -0.0114
13858DDP     C183143  20.016  10.607   0.400 -0.2255 -0.1843 -0.0978
13858DDP     P183144  19.924  11.020   0.399  0.1095 -0.0064  0.0464
13858DDP     P283145  19.771  10.345   0.229 -0.1432  0.2658 -0.5174
13858DDP     C283146  19.401  10.080  30.337 -0.0660  0.1174  0.2353
13858DDP     C383147  19.926  11.480   0.506  0.0371  0.0391  0.1473
13858DDP     C483148  20.329  10.353   0.607  0.0308 -0.1863  0.1389
13859DDP     C183149  23.269  17.801  27.934 -0.0516  0.3343  0.1600
13859DDP     P183150  23.642  18.154  27.796 -0.0742  0.0177 -0.3323
13859DDP     P283151  22.900  17.731  27.942  0.1562  0.0084 -0.1177
13859DDP     C283152  22.587  17.440  28.012 -0.0449 -0.2502 -0.0546
13859DDP     C383153  23.914  18.097  27.540 -0.0088 -0.0662  0.0044
13859DDP     C483154  23.454  17.421  28.095 -0.0594 -0.2320  0.0538
13860DDP     C183155   4.639   1.493  24.518  0.1342  0.3820 -0.1126
13860DDP     P183156   4.644   1.783  24.125  0.0914 -0.0186 -0.1033
13860DDP     P283157   4.933   1.421  24.753 -0.1782  0.4340 -0.0126
13860DDP     C283158   4.873   1.036  24.895  0.0447 -0.1114  0.2589
13860DDP     C383159   4.847   2.068  23.710  0.5092  0.1471 -0.2110
13860DDP     C483160   4.539   1.077  24.522  0.2861  0.0388 -0.0098
13861DDP     C183161  12.597   2.037  18.695 -0.1281  0.0521  0.1008
13861DDP     P183162  12.489   2.431  18.453 -0.2036  0.0403 -0.1402
13861DDP     P283163  12.964   1.827  18.677  0.0400 -0.3026 -0.1178
13861DDP     C283164  13.131   1.428  18.635 -0.0450 -0.0572  0.3772
13861DDP     C383165  12.436   2.886  18.258 -0.1740 -0.1600 -0.2204
13861DDP     C483166  12.560   2.186  19.033 -0.0392 -0.4210 -0.1576
13862DDP     C183167   1.899   2.684  14.667  0.0784 -0.1790  0.0586
13862DDP     P183168   1.891   2.918  14.241 -0.2894 -0.1239 -0.3728
13862DDP     P283169   1.715   2.321  14.742 -0.1648 -0.1533 -0.0310
13862DDP     C283170   1.415   2.125  15.048  0.0801  0.0279 -0.1366
13862DDP     C383171   1.830   3.281  13.967  0.0642  0.0401  0.0152
13862DDP     C483172   1.822   2.979  15.065 -0.0531 -0.0769 -0.0793
13863DDP     C183173  23.848  13.881  16.383 -0.5114 -0.1652  0.0660
13863DDP     P183174  24.112  13.694  16.101  0.0330  0.2125 -0.0995
13863DDP     P283175  23.618  13.615  16.620  0.0361 -0.0648  0.0090
13863DDP     C283176  23.456  13.248  16.739 -0.1159 -0.2365 -0.2959
13863DDP     C383177  24.574  13.457  16.189 -0.1033 -0.2004 -0.2865
13863DDP     C483178  23.888  14.285  16.297  0.1510 -0.1338 -0.0211
13864DDP     C183179  28.227  14.135   1.518  0.1856 -0.0748 -0.3369
13864DDP     P183180  28.413  13.991   1.904 -0.0789  0.0734 -0.0797
13864DDP     P283181  27.782  14.330   1.475 -0.0934  0.0943 -0.3199
13864DDP     C283182  27.750  14.405   0.993 -0.2590  0.2953 -0.1720
13864DDP     C383183  28.281  14.109   2.327 -0.0931  0.1419 -0.0699
13864DDP     C483184  28.385  14.057   1.173 -0.2387 -0.0124 -0.0728
13865DDP     C183185  29.193   3.159  20.605  0.0076 -0.0568  0.0790
13865DDP     P183186  29.144   3.475  20.245 -0.3160  0.2476  0.0113
13865DDP     P283187  28.898   2.814  20.624  0.0978 -0.0188  0.0392
13865DDP     C283188  28.909   2.340  20.779  0.1023  0.0533  0.0920
13865DDP     C383189  29.181   3.636  19.885 -0.1382  0.0719  0.2816
13865DDP     C483190  29.464   3.222  20.972 -0.2275 -0.2074  0.0384
13866DDP     C183191  18.775  27.831  20.759 -0.0029 -0.0665  0.3827
13866DDP     P183192  18.776  27.486  20.521 -0.3227 -0.1337 -0.4148
13866DDP     P283193  18.992  28.195  20.647  0.1970  0.1142 -0.1370
13866DDP     C283194  19.282  28.404  20.409 -0.1177  0.2784 -0.3436
13866DDP     C383195  19.064  27.095  20.436 -0.1125  0.2522 -0.0901
13866DDP     C483196  18.617  27.942  21.136  0.0172  0.0739  0.2344
13867DDP     C183197   0.967   8.353  28.852 -0.1731 -0.1034 -0.1241
13867DDP     P183198   0.509   8.507  28.816  0.1675 -0.1196 -0.1072
13867DDP     P283199   1.061   8.049  29.069 -0.1778  0.1888 -0.0342
13867DDP     C283200   1.387   7.733  29.122 -0.0438  0.3236 -0.1400
13867DDP     C383201   0.046   8.299  28.896 -0.1287 -0.1713 -0.0286
13867DDP     C483202   1.270   8.492  28.542 -0.1444 -0.1118 -0.0317
13868DDP     C183203  27.333  30.001  22.737 -0.1253  0.0772  0.0903
13868DDP     P183204  27.528  29.728  22.586 -0.1269  0.1213 -0.0614
13868DDP     P283205  27.057  30.023  22.459 -0.0965 -0.0677  0.0643
13868DDP     C283206  27.119  29.794  22.107 -0.1529  0.0368  0.2290
13868DDP     C383207  27.587  29.251  22.777  0.1914  0.1852  0.2611
13868DDP     C483208  27.461  30.245  23.117  0.0822  0.3484  0.2301
13869DDP     C183209   1.730  21.606  18.525  0.3852 -0.1516 -0.1030
13869DDP     P183210   1.359  21.639  18.835 -0.2056 -0.0468 -0.3415
13869DDP     P283211   1.744  21.999  18.303 -0.3190 -0.0027 -0.0394
13869DDP     C283212   1.650  22.454  18.371  0.1827 -0.1215 -0.0317
13869DDP     C383213   1.220  21.379  19.182  0.0788  0.5289 -0.0437
13869DDP     C483214   1.952  21.257  18.492 -0.1252  0.1048  0.0992
13870DDP     C183215  11.230   4.872   7.853  0.1520 -0.1251  0.0025
13870DDP     P183216  10.838   4.945   7.943  0.3322  0.2032 -0.3734
13870DDP     P283217  11.383   5.024   7.527  0.0901 -0.1306  0.0848
13870DDP     C283218  11.408   5.319   7.141  0.1416 -0.1631  0.2708
13870DDP     C383219  10.432   4.920   8.134  0.0244  0.0754  0.1319
13870DDP     C483220  11.531   4.555   7.903  0.1426  0.4315 -0.3748
13871DDP     C183221   2.471  20.153  14.255  0.1339  0.1888  0.0174
13871DDP     P183222   2.171  20.503  14.030  0.3236 -0.1644  0.0588
13871DDP     P283223   2.321  19.863  14.127  0.1697 -0.0934  0.3128
13871DDP     C283224   2.396  19.664  13.726  0.3895  0.0646  0.3083
13871DDP     C383225   2.256  20.711  13.613  0.0264  0.2639  0.1053
13871DDP     C483226   2.769  20.416  14.398  0.3023  0.0110 -0.2252
13872DDP     C183227   5.631  22.289  16.627 -0.1253 -0.3618  0.0319
13872DDP     P183228   5.397  22.301  16.321 -0.1896  0.3299 -0.1407
13872DDP     P283229   5.848  21.947  16.706  0.1255  0.1920 -0.0402
13872DDP     C283230   5.970  21.628  16.521 -0.2251  0.1128  0.2457
13872DDP     C383231   5.106  22.515  15.988 -0.1643 -0.1954 -0.0354
13872DDP     C483232   5.559  22.627  16.883  0.0109  0.0537 -0.1798
13873DDP     C183233  14.127  27.147  13.145 -0.1756 -0.2384  0.0600
13873DDP     P183234  14.452  27.362  12.858  0.4209  0.0439  0.3176
13873DDP     P283235  14.270  26.935  13.629 -0.0930 -0.2756  0.2946
13873DDP     C283236  14.086  26.741  14.014 -0.0326  0.1510 -0.1184
13873DDP     C383237  14.409  27.522  12.437 -0.2004  0.3198 -0.0315
13873DDP     C483238  13.676  27.082  12.914  0.1935  0.1423 -0.3088
13874DDP     C183239  13.032  17.096  11.888  0.0327 -0.1576  0.1535
13874DDP     P183240  13.020  17.500  12.022  0.3436 -0.0488  0.2721
13874DDP     P283241  13.301  17.145  11.581  0.3468  0.2843 -0.0249
13874DDP     C283242  13.548  17.410  11.414  0.1538 -0.2662  0.0982
13874DDP     C383243  13.023  17.945  12.144  0.1261  0.2494  0.0724
13874DDP     C483244  12.608  16.756  11.875 -0.1970  0.0375 -0.0664
13875DDP     C183245  13.025   6.736   2.693  0.1420  0.0772 -0.0092
13875DDP     P183246  13.068   7.052   2.914  0.0862 -0.2149 -0.1776
13875DDP     P283247  12.707   6.827   2.308 -0.1716  0.1752  0.0103
13875DDP     C283248  12.388   6.784   2.137 -0.0015 -0.0668  0.2232
13875DDP     C383249  12.740   7.318   2.993  0.1464 -0.0225 -0.0994
13875DDP     C483250  13.226   6.249   2.717  0.1059 -0.0653  0.0586
13876DDP     C183251  10.353  15.299  22.597  0.1170  0.0283 -0.0017
13876DDP     P183252  10.017  15.614  22.790  0.0226  0.0059 -0.0720
13876DDP     P283253  10.534  15.567  22.558 -0.1204 -0.3371 -0.1428
13876DDP     C283254  10.949  15.699  22.438 -0.4948  0.1347 -0.1826
13876DDP     C383255   9.930  15.890  23.038  0.0139 -0.0615 -0.0594
13876DDP     C483256  10.172  14.863  22.699 -0.0696  0.1802 -0.0569
13877DDP     C183257  14.088  29.490  17.007 -0.0125 -0.2718  0.0906
13877DDP     P183258  14.095  29.918  16.834 -0.2048 -0.1959 -0.0184
13877DDP     P283259  14.192  29.056  16.803  0.3562 -0.2628 -0.1657
13877DDP     C283260  14.197  28.788  16.394 -0.3332 -0.4542  0.1543
13877DDP     C383261  13.843  30.203  16.641  0.0320  0.1058 -0.0686
13877DDP     C483262  14.112  29.532  17.516 -0.0783 -0.0711  0.0599
13878DDP     C183263  28.079  21.716  20.057 -0.1386 -0.1204  0.0140
13878DDP     P183264  28.347  22.018  19.956 -0.1454 -0.0173 -0.0163
13878DDP     P283265  28.385  21.330  20.140 -0.2314 -0.1314  0.0020
13878DDP     C283266  28.488  21.213  20.566  0.1289 -0.1543 -0.1383
13878DDP     C383267  28.784  22.181  19.701  0.2260 -0.0599  0.0640
13878DDP     C483268  27.663  21.601  19.805 -0.0212  0.1560 -0.0538
13879DDP     C183269   1.378  21.942  26.537  0.1301  0.2271  0.2900
13879DDP     P183270   1.391  21.732  26.101 -0.3863 -0.1536  0.0467
13879DDP     P283271   1.675  22.054  26.755 -0.0348  0.1364  0.4298
13879DDP     C283272   1.667  21.855  27.094  0.1732 -0.2644 -0.3121
13879DDP     C383273   1.335  21.342  25.920  0.1550 -0.0238  0.1027
13879DDP     C483274   1.227  21.895  26.904  0.2354  0.2802  0.1839
13880DDP     C183275  29.851  24.280  16.520  0.1589  0.1577  0.1012
13880DDP     P183276  30.117  24.316  16.993 -0.2906  0.2255  0.0746
13880DDP     P283277  29.762  24.637  16.317 -0.1156  0.1186  0.0893
13880DDP     C283278  29.821  25.056  16.352  0.0220 -0.3237 -0.0797
13880DDP     C383279  30.305  24.648  17.368  0.0683 -0.1412 -0.1052
13880DDP     C483280  29.788  23.946  16.319  0.3508 -0.2819  0.4031
13881DDP     C183281  25.650   6.419  21.458 -0.3085  0.0888 -0.0574
13881DDP     P183282  26.061   6.531  21.411  0.1159 -0.0506  0.2923
13881DDP     P283283  25.532   6.112  21.151  0.1371  0.2300 -0.0819
13881DDP     C283284  25.632   5.914  20.750 -0.0771 -0.1067 -0.0539
13881DDP     C383285  26.355   6.765  21.661 -0.0011 -0.3028  0.4130
13881DDP     C483286  25.435   6.733  21.523  0.0780  0.0011  0.0321
13882DDP     C183287  30.090   0.707   2.809  0.1581  0.0863  0.0453
13882DDP     P183288  30.024   1.167   2.803  0.1563 -0.0007 -0.1420
13882DDP     P283289  29.649   0.494   2.906  0.0355  0.1426 -0.1503
13882DDP     C283290  29.331   0.482   2.546  0.0813  0.1467 -0.2635
13882DDP     C383291  29.689   1.458   2.845  0.2545  0.2372 -0.1085
13882DDP     C483292   0.256   0.645   2.909  0.2802  0.1334  0.1582
13883DDP     C183293   7.255   6.073   4.958 -0.0233 -0.0503 -0.0262
13883DDP     P183294   7.442   5.968   4.530  0.1193 -0.0445 -0.2323
13883DDP     P283295   7.383   5.787   5.272 -0.1105 -0.1024  0.0583
13883DDP     C283296   7.455   5.274   5.197 -0.1756 -0.1824 -0.1028
13883DDP     C383297   7.667   6.009   4.081  0.1547  0.0782 -0.0455
13883DDP     C483298   6.848   6.223   4.989  0.0539  0.1290  0.1591
13884DDP     C183299  24.984   0.694  16.066  0.1720  0.2862  0.2460
13884DDP     P183300  24.943   0.627  15.547  0.1275  0.1709  0.3027
13884DDP     P283301  24.617   0.605  16.302  0.0068  0.1172  0.3720
13884DDP     C283302  24.457   0.789  16.697 -0.0258  0.1687 -0.1488
13884DDP     C383303  24.677   0.701  15.307 -0.0103 -0.0193 -0.0254
13884DDP     C483304  25.326   0.805  16.379 -0.2584 -0.2217  0.1456
13885DDP     C183305  12.809  28.648  15.844  0.0464  0.2379 -0.1260
13885DDP     P183306  12.356  28.766  15.871 -0.0604  0.0129 -0.0862
13885DDP     P283307  12.760  28.235  15.812  0.0525 -0.1330 -0.1529
13885DDP     C283308  12.455  27.861  15.771  0.1355  0.0260  0.0930
13885DDP     C383309  12.075  28.685  15.592  0.2823 -0.1215 -0.4093
13885DDP     C483310  13.147  28.765  15.970 -0.1514 -0.0645 -0.0821
13886DDP     C183311  22.096   3.348   8.108  0.0625 -0.3704 -0.0806
13886DDP     P183312  21.731   3.165   7.957 -0.0406 -0.0604  0.2504
13886DDP     P283313  22.398   3.389   7.679  0.1260  0.1948  0.1762
13886DDP     C283314  22.810   3.168   7.552 -0.2722 -0.1570  0.0829
13886DDP     C383315  21.241   3.186   7.805 -0.0912  0.1821 -0.0599
13886DDP     C483316  22.033   3.770   8.394 -0.0972  0.2601  0.2315
13887DDP     C183317  12.260  25.782  21.642 -0.0551 -0.1329  0.1505
13887DDP     P183318  11.970  25.796  22.006 -0.2979  0.3806 -0.3009
13887DDP     P283319  12.434  25.437  21.427 -0.1745  0.1124 -0.0126
13887DDP     C283320  12.729  25.164  21.310 -0.0160  0.3626 -0.1809
13887DDP     C383321  11.710  25.698  22.393 -0.1422 -0.1668  0.1916
13887DDP     C483322  12.392  26.206  21.512 -0.3378  0.3257 -0.3637
13888DDP     C183323  27.606   0.546  18.564 -0.0329  0.1430  0.0616
13888DDP     P183324  27.928   0.464  18.180 -0.0983  0.1207 -0.3160
13888DDP     P283325  27.210   0.857  18.709  0.1464  0.1787  0.1214
13888DDP     C283326  26.944   1.163  18.473  0.3141 -0.4091 -0.0175
13888DDP     C383327  28.091   0.119  17.861 -0.1230 -0.2260 -0.0684
13888DDP     C483328  27.799   0.215  18.787  0.0574 -0.0381  0.1298
13889DDP     C183329   9.534  27.683  20.588  0.0160  0.0118  0.2322
13889DDP     P183330   9.237  27.562  20.267 -0.1236 -0.1240  0.0115
13889DDP     P283331   9.488  27.901  21.041 -0.0994 -0.1117  0.2267
13889DDP     C283332   9.367  28.290  21.277 -0.0730 -0.0361 -0.1539
13889DDP     C383333   8.822  27.401  20.125  0.3596 -0.1115  0.0635
13889DDP     C483334   9.920  27.918  20.453 -0.1508 -0.0120  0.0660
13890DDP     C183335  22.959  29.714   3.173  0.2193  0.0237  0.2025
13890DDP     P183336  22.919  29.764   3.685 -0.0906  0.2730 -0.1375
13890DDP     P283337  22.509  29.668   2.893  0.5614  0.2973  0.1214
13890DDP     C283338  22.270  29.678   2.437 -0.0401  0.3796 -0.0330
13890DDP     C383339  23.098  29.878   4.066 -0.1833  0.4227 -0.2162
13890DDP     C483340  23.404  29.674   3.027  0.4476 -0.0910  0.0320
13891DDP     C183341   8.615  19.349  13.570 -0.0692 -0.2095  0.1165
13891DDP     P183342   8.216  19.148  13.276  0.3245  0.1063  0.1741
13891DDP     P283343   8.794  19.307  13.948  0.1267 -0.1334 -0.2188
13891DDP     C283344   8.503  19.195  14.319  0.1298  0.1311 -0.2000
13891DDP     C383345   8.072  18.788  12.959 -0.1614 -0.0030  0.2697
13891DDP     C483346   8.973  19.385  13.324  0.1365  0.1308  0.0304
13892DDP     C183347  20.559   5.998  23.145  0.1031 -0.0813  0.2047
13892DDP     P183348  20.646   6.264  22.846  0.1779 -0.2922 -0.3048
13892DDP     P283349  20.257   5.753  22.927  0.3501  0.0158 -0.0207
13892DDP     C283350  20.130   5.725  22.474 -0.3852 -0.0453 -0.0224
13892DDP     C383351  20.553   6.764  22.816 -0.2004  0.2165 -0.1891
13892DDP     C483352  20.719   5.811  23.538 -0.0271  0.0957  0.0421
13893DDP     C183353   4.019  27.995  24.459 -0.0200 -0.0365  0.0277
13893DDP     P183354   4.349  28.215  24.732  0.0330 -0.2327 -0.0863
13893DDP     P283355   3.980  27.602  24.319 -0.1546 -0.1836 -0.2615
13893DDP     C283356   3.560  27.377  24.341 -0.0471  0.0037  0.1284
13893DDP     C383357   4.834  28.203  24.696  0.1132  0.1782 -0.2180
13893DDP     C483358   3.790  28.178  24.114  0.1216 -0.1851 -0.1992
13894DDP     C183359  27.698   6.461  26.886  0.0986  0.3325  0.3413
13894DDP     P183360  27.270   6.502  26.836  0.0217  0.2650  0.1870
13894DDP     P283361  27.991   6.250  26.597  0.1037  0.2307 -0.0264
13894DDP     C283362  28.327   6.418  26.247  0.3281 -0.2428 -0.0802
13894DDP     C383363  26.936   6.583  26.947  0.2437  0.2884 -0.2766
13894DDP     C483364  27.684   6.513  27.363  0.0214  0.1568 -0.0641
13895DDP     C183365  14.609  15.287  10.791 -0.2544 -0.0152 -0.0045
13895DDP     P183366  14.898  15.703  10.873 -0.1395  0.1107 -0.2035
13895DDP     P283367  14.250  15.228  10.570 -0.0828  0.0769  0.0058
13895DDP     C283368  13.709  15.078  10.674  0.1806 -0.3206  0.1393
13895DDP     C383369  15.126  15.943  10.642  0.0847  0.0411  0.0340
13895DDP     C483370  14.942  15.111  10.970 -0.0121  0.5000 -0.1130
13896DDP     C183371  12.445  20.564   6.799  0.1323  0.1104  0.1525
13896DDP     P183372  12.450  20.350   7.234 -0.1486  0.0418  0.1237
13896DDP     P283373  12.348  21.000   6.786 -0.0819 -0.3340  0.1928
13896DDP     C283374  12.515  21.432   6.930 -0.0958  0.0051 -0.1559
13896DDP     C383375  12.767  20.195   7.429  0.0218  0.0891 -0.0900
13896DDP     C483376  12.623  20.393   6.371  0.4843 -0.2121 -0.3692
13897DDP     C183377  22.398  24.348  30.064  0.1478  0.1741 -0.0380
13897DDP     P183378  22.425  23.915  29.913  0.0951 -0.0830  0.0697
13897DDP     P283379  22.211  24.612  29.752  0.1007  0.0757 -0.0308
13897DDP     C283380  22.062  24.431  29.242  0.0898  0.2953 -0.1500
13897DDP     C383381  22.527  23.482  29.907 -0.0147  0.0903 -0.2005
13897DDP     C483382  22.437  24.544   0.249 -0.1067 -0.1725  0.0707
13898DDP     C183383  11.358   8.492  28.044 -0.3811 -0.3471  0.1323
13898DDP     P183384  11.570   8.712  27.714 -0.0481  0.2139  0.1366
13898DDP     P283385  11.585   8.702  28.328 -0.1546  0.2436 -0.1603
13898DDP     C283386  11.538   8.716  28.694 -0.1944  0.0807 -0.1209
13898DDP     C383387  11.655   9.133  27.561 -0.2714 -0.0422  0.0044
13898DDP     C483388  11.130   8.087  27.883 -0.1586  0.1563 -0.0723
13899DDP     C183389  20.716   4.160  16.336  0.2149  0.0140  0.3489
13899DDP     P183390  20.777   3.900  16.015 -0.2560  0.0631 -0.1630
13899DDP     P283391  20.638   3.920  16.663  0.1950  0.2827 -0.2102
13899DDP     C283392  20.818   3.942  17.089  0.1768 -0.1279 -0.2113
13899DDP     C383393  20.969   4.010  15.547  0.2731  0.1995  0.3158
13899DDP     C483394  20.782   4.626  16.284 -0.0553  0.1545 -0.1112
13900DDP     C183395  20.783  17.734  24.502  0.2813  0.1523 -0.0203
13900DDP     P183396  20.797  17.749  24.945  0.1486  0.0272 -0.2157
13900DDP     P283397  20.529  17.970  24.328 -0.0163  0.1613  0.0854
13900DDP     C283398  20.494  18.338  23.968 -0.0544  0.2016  0.0085
13900DDP     C383399  20.922  17.897  25.331 -0.3099 -0.0205  0.1749
13900DDP     C483400  21.195  17.621  24.396  0.3976  0.0865 -0.0392
13901DDP     C183401  29.258  12.219  26.676 -0.1845 -0.0353 -0.1508
13901DDP     P183402  29.468  12.363  27.073  0.0599  0.0911  0.4657
13901DDP     P283403  29.344  12.050  26.223 -0.1210 -0.0659  0.4624
13901DDP     C283404  29.334  11.879  25.800 -0.0732  0.2085 -0.2505
13901DDP     C383405  29.605  12.506  27.448  0.1133 -0.0439  0.3180
13901DDP     C483406  28.891  12.162  26.909 -0.2765  0.2956  0.1787
13902DDP     C183407  14.156   3.336  12.840  0.1018  0.0787 -0.0159
13902DDP     P183408  14.351   3.507  12.481  0.1636  0.0325 -0.1736
13902DDP     P283409  13.813   3.591  13.053  0.0232  0.2227 -0.1286
13902DDP     C283410  13.469   3.772  13.152  0.1443 -0.4402 -0.3981
13902DDP     C383411  14.683   3.266  12.212 -0.1617 -0.0013  0.1069
13902DDP     C483412  14.554   3.105  13.036 -0.0774 -0.3935  0.0113
13903DDP     C183413   8.318  10.184  21.042  0.3222 -0.3186 -0.2919
13903DDP     P183414   8.710  10.224  20.891  0.1456  0.1644  0.0642
13903DDP     P283415   8.518  10.405  21.356  0.1758  0.0189  0.2910
13903DDP     C283416   8.431  10.446  21.849 -0.2872  0.0477 -0.2767
13903DDP     C383417   8.913  10.398  20.543 -0.1544  0.1723 -0.0690
13903DDP     C483418   8.019   9.958  20.998  0.3203  0.0078 -0.0162
13904DDP     C183419   6.075  18.469  20.800 -0.1588 -0.1014 -0.1128
13904DDP     P183420   6.536  18.641  20.743  0.1330  0.2941  0.2305
13904DDP     P283421   5.921  18.061  20.607 -0.0504  0.2606  0.2419
13904DDP     C283422   5.984  17.584  20.745 -0.1627 -0.0465  0.1770
13904DDP     C383423   6.860  18.379  20.577 -0.0262  0.2474  0.0109
13904DDP     C483424   5.714  18.657  21.047 -0.1971  0.2500 -0.1189
13905DDP     C183425  24.059   2.652  23.561 -0.2841 -0.1987  0.1008
13905DDP     P183426  23.736   2.758  23.834  0.2605 -0.3158  0.1095
13905DDP     P283427  24.348   2.441  23.467  0.1333 -0.0200  0.3095
13905DDP     C283428  24.524   2.197  23.103 -0.0200  0.2950 -0.0509
13905DDP     C383429  23.983   3.161  24.142 -0.2532  0.0402  0.0003
13905DDP     C483430  24.123   2.948  23.239  0.1172 -0.2373  0.0707
13906DDP     C183431  30.163  20.124   0.575 -0.1151  0.1899  0.1928
13906DDP     P183432   0.162  20.337   0.392 -0.2009 -0.1028 -0.0569
13906DDP     P283433  29.886  19.842   0.318  0.1237  0.2636 -0.0632
13906DDP     C283434  29.628  19.551   0.150 -0.0164  0.0064  0.1972
13906DDP     C383435   0.369  20.317  30.276  0.0860  0.0849 -0.1499
13906DDP     C483436  30.175  20.100   0.978  0.0943  0.4354  0.1110
13907DDP     C183437   7.551   6.437   4.341  0.0657 -0.1106  0.1399
13907DDP     P183438   7.551   6.852   4.503  0.1903  0.0947  0.1020
13907DDP     P283439   7.868   6.207   4.563  0.2827  0.5130  0.0226
13907DDP     C283440   8.014   6.174   5.013 -0.0209  0.0779 -0.2831
13907DDP     C383441   7.653   7.185   4.744  0.2491  0.2307  0.1091
13907DDP     C483442   7.367   6.411   3.989  0.0466  0.0496 -0.1686
13908DDP     C183443  20.567   6.516  12.334  0.0606  0.0071  0.1277
13908DDP     P183444  20.781   6.650  12.724 -0.1753  0.0628  0.2305
13908DDP     P283445  20.598   6.884  12.058  0.1868 -0.0062  0.1221
13908DDP     C283446  20.694   7.127  11.701  0.0462 -0.1086  0.2743
13908DDP     C383447  20.973   6.501  13.094  0.1289 -0.1644  0.1929
13908DDP     C483448  20.292   6.244  12.288  0.1212  0.0127 -0.0673
13909DDP     C183449   4.511   5.641   6.122 -0.3297  0.0212 -0.0514
13909DDP     P183450   4.136   5.730   5.997  0.1389  0.1120 -0.1309
13909DDP     P283451   4.484   5.361   6.506  0.1274  0.0689 -0.0029
13909DDP     C283452   4.442   4.858   6.668  0.0577  0.1371  0.0061
13909DDP     C383453   3.694   5.660   6.237 -0.2093  0.1511 -0.2523
13909DDP     C483454   4.836   5.802   5.828 -0.0636 -0.1803  0.1691
13910DDP     C183455  11.650   7.010  15.238 -0.0547  0.3340 -0.0201
13910DDP     P183456  11.761   7.303  14.854 -0.0034 -0.4076 -0.1855
13910DDP     P283457  11.505   7.395  15.366  0.2230 -0.1174  0.1355
13910DDP     C283458  11.726   7.561  15.583 -0.0777  0.0345 -0.3886
13910DDP     C383459  11.941   7.563  14.577 -0.2871 -0.2871 -0.4309
13910DDP     C483460  11.772   6.615  15.263  0.0449 -0.0901 -0.1068
13911DDP     C183461   4.451  25.963  16.599 -0.1352 -0.1042 -0.1038
13911DDP     P183462   4.437  25.504  16.742 -0.0767 -0.0904 -0.1637
13911DDP     P283463   4.735  26.001  16.298 -0.0495  0.0711  0.3962
13911DDP     C283464   4.707  26.191  15.977 -0.1057  0.2107 -0.1933
13911DDP     C383465   4.216  25.365  16.990  0.1445  0.0516  0.1493
13911DDP     C483466   4.189  26.282  16.725  0.1687  0.0601 -0.1108
13912DDP     C183467  23.111   1.004   3.270 -0.2606 -0.1275  0.2001
13912DDP     P183468  22.861   0.703   2.988  0.2063 -0.2680 -0.2003
13912DDP     P283469  23.160   1.443   3.119  0.3246  0.0462 -0.2263
13912DDP     C283470  23.487   1.831   3.269 -0.0280  0.0421  0.0965
13912DDP     C383471  22.863   0.752   2.607 -0.1181  0.0423  0.2435
13912DDP     C483472  23.427   0.635   3.343  0.2064 -0.1650  0.1867
13913DDP     C183473  25.688  28.460   5.932 -0.0917 -0.1363 -0.1384
13913DDP     P183474  25.599  28.288   5.599  0.0436  0.0531  0.0935
13913DDP     P283475  25.405  28.300   6.224  0.2497  0.2001 -0.2596
13913DDP     C283476  25.188  28.022   6.391 -0.0532  0.0444 -0.3497
13913DDP     C383477  25.379  27.884   5.503 -0.2149 -0.0848  0.1659
13913DDP     C483478  26.155  28.628   6.006  0.1066 -0.4248 -0.1142
13914DDP     C183479  17.947  23.425   7.566  0.0037 -0.0280  0.0527
13914DDP     P183480  17.561  23.459   7.806  0.0898 -0.0489  0.4052
13914DDP     P283481  18.248  23.060   7.496  0.1801  0.0916 -0.0307
13914DDP     C283482  18.251  22.736   7.197  0.0766  0.5349  0.0184
13914DDP     C383483  17.181  23.426   7.866  0.0662  0.0588  0.0732
13914DDP     C483484  18.071  23.677   7.234 -0.2336 -0.2619 -0.2227
13915DDP     C183485  19.372  10.633   8.653 -0.0555  0.2511  0.1107
13915DDP     P183486  19.306  10.661   9.135 -0.1682 -0.2376 -0.1500
13915DDP     P283487  19.253  10.244   8.653 -0.4561  0.1452  0.0812
13915DDP     C283488  19.317   9.749   8.719  0.3704 -0.0765  0.1992
13915DDP     C383489  19.375  10.881   9.545 -0.2357  0.1247 -0.2177
13915DDP     C483490  19.762  10.869   8.516  0.1769  0.2519 -0.0411
13916DDP     C183491  19.340  15.781  25.905  0.4812 -0.3754 -0.0177
13916DDP     P183492  19.617  15.956  25.677 -0.1180 -0.0665 -0.1670
13916DDP     P283493  19.385  15.764  26.287  0.0346 -0.0253  0.1938
13916DDP     C283494  19.248  15.890  26.704 -0.1303  0.2362 -0.0312
13916DDP     C383495  19.922  16.023  25.426 -0.0254  0.1093 -0.1195
13916DDP     C483496  19.086  15.568  25.647  0.1332  0.1304 -0.3789
13917DDP     C183497  22.572   2.137  23.418  0.0813 -0.1507  0.0925
13917DDP     P183498  22.179   2.029  23.254  0.2298  0.0068 -0.4552
13917DDP     P283499  22.995   1.947  23.327 -0.0876 -0.0113 -0.2116
13917DDP     C283500  23.514   1.932  23.234  0.1853 -0.0352  0.0382
13917DDP     C383501  22.036   2.464  23.113  0.1648 -0.1271 -0.1183
13917DDP     C483502  22.730   2.334  23.769  0.1727 -0.2589  0.3866
13918DDP     C183503  25.845  26.846  28.020  0.1351 -0.0766  0.2380
13918DDP     P183504  25.958  26.910  28.496  0.0833  0.2511 -0.0428
13918DDP     P283505  25.698  27.197  27.845 -0.0947  0.1275 -0.0508
13918DDP     C283506  25.768  27.487  27.539 -0.2727 -0.1722 -0.0358
13918DDP     C383507  26.203  26.763  28.846 -0.1546  0.0828 -0.0737
13918DDP     C483508  26.070  26.526  27.764  0.0610  0.4242  0.0502
13919DDP     C183509   7.752  16.216  15.871 -0.0753  0.0983  0.2670
13919DDP     P183510   7.584  16.256  15.472 -0.0146 -0.1709  0.1268
13919DDP     P283511   8.120  16.391  15.899  0.1695 -0.0860  0.0874
13919DDP     C283512   8.466  16.534  16.083  0.1684  0.0753  0.3333
13919DDP     C383513   7.257  16.378  15.120 -0.1038  0.0339 -0.0052
13919DDP     C483514   7.691  16.128  16.347 -0.2667  0.2281  0.0354
13920DDP     C183515  17.997  24.210   0.095  0.0590 -0.2586 -0.3476
13920DDP     P183516  17.914  23.727   0.143 -0.0869  0.0679 -0.0127
13920DDP     P283517  18.105  24.591   0.395 -0.0291 -0.0992  0.0434
13920DDP     C283518  18.171  24.950   0.596 -0.0538 -0.2264 -0.2615
13920DDP     C383519  17.761  23.504   0.433 -0.2910 -0.2262  0.0690
13920DDP     C483520  18.250  24.297  30.134  0.1231  0.0281  0.0891
13921DDP     C183521   9.026  18.636  14.910  0.1261 -0.1067  0.0320
13921DDP     P183522   8.596  18.710  15.054 -0.2665  0.0470 -0.1323
13921DDP     P283523   8.966  18.135  14.560 -0.4714 -0.0124 -0.0842
13921DDP     C283524   8.773  17.832  14.267  0.1374  0.2779 -0.2943
13921DDP     C383525   8.150  18.591  15.300 -0.1312  0.1184 -0.1271
13921DDP     C483526   9.486  18.902  15.086  0.0726  0.0617  0.0728
13922DDP     C183527   2.463  12.287  13.044  0.1881  0.0136  0.1749
13922DDP     P183528   2.503  12.104  12.753  0.2201  0.1160 -0.1851
13922DDP     P283529   2.628  12.118  13.469 -0.4913  0.5011  0.0249
13922DDP     C283530   2.861  12.055  13.787  0.3891 -0.5858  0.1256
13922DDP     C383531   2.796  12.162  12.438 -0.1602  0.3506 -0.0261
13922DDP     C483532   2.302  12.602  13.110 -0.1502  0.0016  0.1311
13923DDP     C183533   5.682  13.058  10.181  0.0680 -0.1897 -0.1393
13923DDP     P183534   5.217  13.162  10.150 -0.1140  0.1440 -0.0263
13923DDP     P283535   6.038  13.483  10.231 -0.1474  0.1445  0.0301
13923DDP     C283536   6.348  13.799  10.099 -0.0088  0.0796 -0.0495
13923DDP     C383537   4.900  12.839  10.393  0.1475  0.1280 -0.0420
13923DDP     C483538   5.904  12.617  10.199 -0.0807  0.2899 -0.1337
13924DDP     C183539  22.806  28.940  26.080  0.1882  0.1390 -0.0859
13924DDP     P183540  22.713  28.743  26.451 -0.0571 -0.0955  0.0209
13924DDP     P283541  23.137  29.322  26.221 -0.0511 -0.3077  0.1760
13924DDP     C283542  23.350  29.609  26.572  0.3146  0.0020  0.0201
13924DDP     C383543  22.612  28.768  26.863 -0.2507 -0.0381  0.0329
13924DDP     C483544  22.660  28.910  25.616  0.0332 -0.2258 -0.1994
13925DDP     C183545  16.756  20.229  25.454  0.0067 -0.0524  0.2152
13925DDP     P183546  17.135  20.386  25.742  0.4244 -0.2009  0.0196
13925DDP     P283547  16.640  19.985  25.778 -0.3205  0.0399  0.3776
13925DDP     C283548  16.626  19.802  26.204  0.1191 -0.0846 -0.3594
13925DDP     C383549  17.531  20.556  25.605  0.2603  0.0425  0.1292
13925DDP     C483550  16.528  20.057  25.194 -0.2272 -0.2981  0.0202
13926DDP     C183551   3.796  22.912  17.678  0.1633 -0.0638  0.0438
13926DDP     P183552   4.125  23.219  17.793  0.0730  0.0777  0.0601
13926DDP     P283553   3.740  22.540  17.744 -0.0776  0.0941 -0.1174
13926DDP     C283554   3.439  22.208  17.610  0.1626  0.0196  0.3157
13926DDP     C383555   4.407  23.439  17.737 -0.0655 -0.0373  0.1144
13926DDP     C483556   3.453  23.119  17.293  0.1660 -0.2284  0.1488
13927DDP     C183557  25.657  25.300  10.076 -0.3721  0.0327  0.0015
13927DDP     P183558  25.674  25.207  10.472 -0.1104 -0.0631 -0.0624
13927DDP     P283559  25.324  25.173   9.744  0.0289  0.4871  0.2027
13927DDP     C283560  24.951  25.008   9.928 -0.0630 -0.4053 -0.0744
13927DDP     C383561  25.578  25.421  10.778 -0.0373  0.1854 -0.0891
13927DDP     C483562  25.882  25.652  10.028 -0.2531  0.2120 -0.1842
13928DDP     C183563  14.431  28.710  19.472  0.0963  0.0546 -0.1732
13928DDP     P183564  14.572  28.425  19.715  0.1924 -0.2716 -0.1446
13928DDP     P283565  14.413  28.714  19.044  0.3153 -0.3043  0.0755
13928DDP     C283566  14.495  28.654  18.572  0.0850 -0.1386 -0.3376
13928DDP     C383567  14.466  27.982  19.791  0.0848 -0.0320 -0.1448
13928DDP     C483568  14.069  28.996  19.688  0.0494  0.1394 -0.2061
13929DDP     C183569  12.274  21.500   5.162  0.2698 -0.2740  0.5057
13929DDP     P183570  12.586  21.410   4.898 -0.0864 -0.0189 -0.1836
13929DDP     P283571  11.841  21.294   5.222  0.3216  0.1089 -0.0335
13929DDP     C283572  11.462  21.358   4.955  0.0331 -0.0103 -0.0101
13929DDP     C383573  12.491  21.465   4.507 -0.0084  0.0079  0.0055
13929DDP     C483574  12.445  21.854   5.512 -0.1978 -0.1397  0.0327
13930DDP     C183575  19.025   6.735   6.976 -0.4062  0.1733  0.0872
13930DDP     P183576  19.129   6.310   6.794 -0.0323  0.2874 -0.0898
13930DDP     P283577  18.585   6.721   6.863  0.2300 -0.2866  0.2414
13930DDP     C283578  18.125   6.734   6.737  0.3351 -0.0694 -0.0490
13930DDP     C383579  18.988   5.825   6.812 -0.0902  0.0531  0.3427
13930DDP     C483580  19.061   6.998   7.279 -0.3116  0.0679 -0.2858
13931DDP     C183581  28.350  17.708  24.338 -0.0590  0.1428  0.3224
13931DDP     P183582  27.972  17.845  24.135  0.2258 -0.2610 -0.2244
13931DDP     P283583  28.599  17.275  24.396  0.0046 -0.1909 -0.2176
13931DDP     C283584  28.720  17.038  24.084  0.1771 -0.0326 -0.2057
13931DDP     C383585  27.641  17.571  23.966  0.0512  0.0825  0.1593
13931DDP     C483586  28.440  18.029  24.634  0.1754  0.1425 -0.1311
13932DDP     C183587  12.023   4.625  10.355 -0.1918 -0.1899 -0.1760
13932DDP     P183588  11.705   4.312  10.258 -0.1050  0.0621  0.0181
13932DDP     P283589  12.428   4.493  10.257  0.1947  0.3434 -0.3213
13932DDP     C283590  12.720   4.258  10.435 -0.0202  0.0552  0.1014
13932DDP     C383591  11.480   4.140   9.995  0.1968  0.0584  0.0160
13932DDP     C483592  11.970   4.979  10.559 -0.0902 -0.2035  0.1856
13933DDP     C183593   2.766   8.953   8.930 -0.1176  0.0933 -0.1087
13933DDP     P183594   2.440   9.263   8.743  0.0551 -0.1079 -0.5464
13933DDP     P283595   2.991   9.090   8.647 -0.3452  0.0896  0.5274
13933DDP     C283596   2.938   9.544   8.707 -0.1268  0.3219 -0.0796
13933DDP     C383597   2.267   9.597   8.484  0.0664 -0.4013 -0.1690
13933DDP     C483598   2.824   8.551   9.220  0.1591  0.0440  0.0553
13934DDP     C183599   3.082  24.433  22.107  0.0624 -0.0034 -0.0850
13934DDP     P183600   3.382  24.627  22.214 -0.0012 -0.1583 -0.0074
13934DDP     P283601   2.809  24.482  22.491  0.3028 -0.0964  0.1970
13934DDP     C283602   2.756  24.295  22.950  0.5949  0.2666  0.0163
13934DDP     C383603   3.670  24.856  22.365  0.2281 -0.3948  0.0347
13934DDP     C483604   2.924  24.157  21.753 -0.1694 -0.0256 -0.3262
13935DDP     C183605  11.552  22.477   0.531 -0.2630  0.0123  0.3920
13935DDP     P183606  11.705  22.729   0.861 -0.1667  0.1975 -0.4390
13935DDP     P283607  11.662  22.641   0.106  0.3006  0.2819  0.1407
13935DDP     C283608  11.936  22.859  30.074 -0.1402  0.3782 -0.0399
13935DDP     C383609  11.836  23.166   0.808  0.1057 -0.1044 -0.0883
13935DDP     C483610  11.604  22.024   0.615 -0.2637 -0.1236  0.1606
13936DDP     C183611  14.510  12.930   8.794 -0.0332  0.1543  0.0405
13936DDP     P183612  14.445  12.830   8.405 -0.2028  0.1075 -0.0086
13936DDP     P283613  14.214  12.838   9.107  0.0706  0.1380  0.1006
13936DDP     C283614  13.808  12.769   9.172 -0.3422 -0.0510 -0.4479
13936DDP     C383615  14.630  12.985   7.961  0.0047 -0.0287 -0.4446
13936DDP     C483616  14.729  13.262   8.766  0.1666  0.1080  0.0766
13937DDP     C183617  12.552  17.406  20.214  0.0802  0.2209  0.0233
13937DDP     P183618  12.556  17.770  19.955  0.1216  0.2284  0.2023
13937DDP     P283619  12.916  17.310  20.458 -0.3685  0.1043 -0.0828
13937DDP     C283620  12.995  17.326  20.942  0.2844  0.2134  0.0934
13937DDP     C383621  12.505  17.869  19.577 -0.2218 -0.1846 -0.4471
13937DDP     C483622  12.270  17.077  20.209  0.0699  0.2796  0.1264
13938DDP     C183623  28.443  12.555   8.556 -0.3810 -0.1732  0.1546
13938DDP     P183624  28.720  12.607   8.264 -0.3808  0.0274  0.1682
13938DDP     P283625  28.117  12.262   8.514  0.0730 -0.1615  0.2874
13938DDP     C283626  27.773  12.171   8.260  0.0164  0.0284  0.1738
13938DDP     C383627  29.130  12.697   8.002  0.2771  0.0271 -0.4134
13938DDP     C483628  28.374  12.970   8.802  0.2092  0.0625 -0.1305
13939DDP     C183629   8.701   2.440  24.655 -0.3003  0.1286 -0.0403
13939DDP     P183630   8.897   2.869  24.862 -0.2041  0.1073 -0.1774
13939DDP     P283631   8.345   2.318  24.453  0.0327  0.0237 -0.1371
13939DDP     C283632   7.929   2.160  24.279  0.0495 -0.0738 -0.2007
13939DDP     C383633   8.956   2.957  25.329 -0.2616  0.1872 -0.0475
13939DDP     C483634   8.879   2.110  24.561  0.0765 -0.0635  0.1159
13940DDP     C183635   7.040  26.801  14.926 -0.4402 -0.3011  0.2082
13940DDP     P183636   6.775  26.710  15.172  0.1262 -0.0412  0.2431
13940DDP     P283637   7.143  26.585  14.594  0.0408 -0.1543  0.0976
13940DDP     C283638   7.558  26.359  14.515 -0.2019 -0.0243 -0.1470
13940DDP     C383639   6.429  26.656  15.327  0.0894 -0.0683  0.0431
13940DDP     C483640   7.293  27.112  14.964 -0.1271  0.0641 -0.1506
13941DDP     C183641  21.267   7.312  26.366 -0.0370 -0.1969 -0.4456
13941DDP     P183642  21.568   6.978  26.317  0.1435 -0.2829  0.3285
13941DDP     P283643  21.179   7.443  26.743 -0.0017  0.3275 -0.0793
13941DDP     C283644  21.321   7.751  27.015  0.0174  0.3248 -0.0824
13941DDP     C383645  21.791   6.747  26.723  0.1205 -0.0454  0.3614
13941DDP     C483646  21.068   7.712  26.100 -0.0455  0.0684  0.0195
13942DDP     C183647  15.234   4.984   4.310  0.0623 -0.1811 -0.0100
13942DDP     P183648  15.434   4.771   3.950  0.0132 -0.4323 -0.0770
13942DDP     P283649  15.241   5.489   4.327  0.2455  0.2989 -0.0903
13942DDP     C283650  15.211   5.957   4.358 -0.0511  0.2685 -0.0376
13942DDP     C383651  15.593   4.452   3.806  0.0486 -0.1763  0.0526
13942DDP     C483652  15.349   4.819   4.722 -0.1387  0.0743  0.1769
13943DDP     C183653   4.040  10.497  13.799 -0.1401 -0.0563 -0.0223
13943DDP     P183654   4.514  10.401  13.922  0.3685 -0.2204 -0.1062
13943DDP     P283655   3.791  10.377  13.370  0.0430  0.1499 -0.1635
13943DDP     C283656   3.508  10.120  13.126  0.2356 -0.2810  0.1366
13943DDP     C383657   4.674  10.097  14.092  0.0034 -0.0234 -0.3763
13943DDP     C483658   3.828  10.644  14.186 -0.1292  0.0025 -0.0415
13944DDP     C183659   0.784  29.645  30.021  0.2120 -0.2144  0.3854
13944DDP     P183660   1.065  29.361  29.842 -0.0259  0.0629 -0.0667
13944DDP     P283661   0.874  30.127  30.119 -0.1204  0.0282  0.0429
13944DDP     C283662   1.286  30.216   0.126 -0.1842 -0.2548  0.0398
13944DDP     C383663   1.321  28.981  29.547 -0.1532  0.0314 -0.0122
13944DDP     C483664   0.440  29.418  30.114 -0.1218 -0.3394 -0.1432
13945DDP     C183665  13.983  26.618  18.448  0.1875  0.0913  0.2695
13945DDP     P183666  13.782  26.377  18.105 -0.4048 -0.0886  0.0407
13945DDP     P283667  13.623  26.578  18.651 -0.1099 -0.2154  0.0649
13945DDP     C283668  13.097  26.600  18.478 -0.3454 -0.1410 -0.2170
13945DDP     C383669  13.451  26.479  18.158 -0.1366  0.1520  0.3294
13945DDP     C483670  14.359  26.851  18.644 -0.3780  0.1793 -0.0129
13946DDP     C183671  27.723  11.130   3.785 -0.2374  0.1266 -0.3991
13946DDP     P183672  28.151  11.065   3.914 -0.1946  0.0851  0.0968
13946DDP     P283673  27.711  11.599   3.601  0.0718  0.0981 -0.0896
13946DDP     C283674  27.551  11.890   3.287 -0.1831 -0.1203 -0.0012
13946DDP     C383675  28.461  11.074   4.164 -0.0370 -0.3224 -0.2438
13946DDP     C483676  27.454  10.960   3.970  0.0307 -0.1456  0.0904
13947DDP     C183677   1.315   9.925   9.360  0.0242  0.0066  0.0912
13947DDP     P183678   0.962   9.795   9.000  0.1717  0.2769  0.0240
13947DDP     P283679   1.367   9.518   9.417  0.0879 -0.3213  0.0328
13947DDP     C283680   1.302   9.306   9.064  0.0897  0.0891  0.0607
13947DDP     C383681   0.668   9.399   8.924 -0.1188 -0.0900 -0.1906
13947DDP     C483682   1.409  10.372   9.387  0.0945  0.0090  0.0740
13948DDP     C183683   5.826  26.557  26.865  0.0164  0.0294  0.0044
13948DDP     P183684   6.066  26.212  26.684 -0.0992  0.1899  0.0019
13948DDP     P283685   5.492  26.890  26.782 -0.1188  0.0413 -0.2815
13948DDP     C283686   5.249  27.297  26.735 -0.0708 -0.3417  0.2051
13948DDP     C383687   6.238  25.800  26.677  0.0663  0.0750 -0.0769
13948DDP     C483688   5.953  26.328  27.341  0.0237  0.2635  0.0043
13949DDP     C183689   2.469  17.326  26.704 -0.1744 -0.1170  0.1276
13949DDP     P183690   2.157  17.434  27.014  0.2370  0.3938 -0.0721
13949DDP     P283691   2.554  17.550  26.424  0.1002 -0.0513 -0.0744
13949DDP     C283692   2.774  17.996  26.382  0.1673 -0.0941 -0.2232
13949DDP     C383693   2.186  17.562  27.435 -0.0850  0.0110  0.2220
13949DDP     C483694   2.711  16.962  26.745 -0.0801 -0.0122  0.1536
13950DDP     C183695  22.694  19.634   8.851  0.0116 -0.1157 -0.1982
13950DDP     P183696  22.732  19.209   8.875 -0.2197 -0.1730  0.0769
13950DDP     P283697  22.633  19.779   9.282  0.2415 -0.0582  0.1219
13950DDP     C283698  22.550  19.761   9.617  0.3289 -0.1327  0.0571
13950DDP     C383699  22.638  18.863   8.641 -0.0743 -0.1304  0.0093
13950DDP     C483700  22.431  19.759   8.561  0.1413 -0.1316  0.1872
13951DDP     C183701  23.734  28.829  17.551 -0.1008 -0.0209 -0.1356
13951DDP     P183702  23.344  28.755  17.465 -0.0866  0.0143  0.0463
13951DDP     P283703  23.806  29.294  17.496 -0.0207  0.0602  0.0189
13951DDP     C283704  23.621  29.656  17.781  0.0684 -0.2552  0.0742
13951DDP     C383705  23.098  28.372  17.373 -0.0427  0.2308  0.2432
13951DDP     C483706  23.981  28.587  17.785 -0.0565 -0.0424 -0.0735
13952DDP     C183707  28.854  18.073  28.334  0.2249 -0.1014 -0.2300
13952DDP     P183708  28.894  17.668  28.378  0.0854  0.1600 -0.1463
13952DDP     P283709  28.366  18.004  28.288 -0.1501 -0.1412  0.0226
13952DDP     C283710  28.035  18.115  27.989 -0.0298 -0.0711  0.0080
13952DDP     C383711  28.795  17.239  28.309  0.0213  0.1447 -0.0171
13952DDP     C483712  28.993  18.408  28.117 -0.2111 -0.2652 -0.0580
13953DDP     C183713   1.311   9.147  10.355 -0.1283  0.0814  0.1250
13953DDP     P183714   1.161   8.909  10.101  0.0865  0.1672 -0.0008
13953DDP     P283715   1.051   9.131  10.721 -0.2803  0.3812 -0.0818
13953DDP     C283716   0.820   9.295  11.155  0.2082  0.0104  0.1221
13953DDP     C383717   0.948   8.443  10.066  0.3820  0.0748 -0.0997
13953DDP     C483718   1.631   9.369  10.336 -0.2613  0.0411  0.1026
13954DDP     C183719  24.004  29.189  10.483  0.1747  0.0417  0.2000
13954DDP     P183720  24.264  29.511  10.723  0.3143  0.0182 -0.0094
13954DDP     P283721  23.550  29.183  10.503 -0.0553 -0.0516 -0.2613
13954DDP     C283722  23.173  28.998  10.682 -0.0328  0.0723  0.0784
13954DDP     C383723  24.340  29.912  10.972 -0.0276  0.1356  0.4607
13954DDP     C483724  24.201  28.867  10.056  0.0733  0.1927 -0.0595
13955DDP     C183725   2.085  16.345  25.670 -0.1512 -0.0947 -0.4235
13955DDP     P183726   1.604  16.357  25.593  0.1935  0.3304  0.2799
13955DDP     P283727   2.368  16.651  25.934 -0.1422 -0.3839  0.1327
13955DDP     C283728   2.563  16.568  26.355 -0.1973 -0.1186 -0.0621
13955DDP     C383729   1.347  15.958  25.473 -0.0056 -0.1548 -0.5695
13955DDP     C483730   2.282  15.879  25.617 -0.0529  0.1951 -0.1516
13956DDP     C183731  23.581  11.770  24.239 -0.1931 -0.3577 -0.2452
13956DDP     P183732  23.991  11.584  24.258  0.0732  0.0322 -0.1003
13956DDP     P283733  23.487  12.118  24.005  0.1937  0.0590  0.0521
13956DDP     C283734  23.416  12.355  23.561 -0.1869  0.2580 -0.2459
13956DDP     C383735  24.274  11.587  23.916 -0.1385 -0.1867  0.1355
13956DDP     C483736  23.125  11.597  24.316  0.0395  0.4071 -0.2438
13957DDP     C183737   1.748  26.820  18.578  0.0120 -0.0843  0.1056
13957DDP     P183738   2.033  26.798  18.313 -0.1132 -0.3066  0.1539
13957DDP     P283739   1.564  26.359  18.665  0.1050  0.1504  0.0505
13957DDP     C283740   1.803  26.054  18.854  0.3201 -0.3693 -0.1632
13957DDP     C383741   2.485  26.712  18.320  0.3464 -0.0811  0.0815
13957DDP     C483742   1.851  27.051  19.014  0.1308 -0.1375  0.2070
13958DDP     C183743   5.093   3.560  10.310 -0.2217  0.0125 -0.2346
13958DDP     P183744   4.767   3.714  10.561 -0.0664 -0.5367 -0.3196
13958DDP     P283745   5.365   3.852  10.432  0.0412  0.0819 -0.1933
13958DDP     C283746   5.664   4.321  10.358  0.1326  0.2158 -0.1363
13958DDP     C383747   4.631   4.106  10.689 -0.0029  0.0764  0.0958
13958DDP     C483748   5.014   3.376   9.906 -0.0365 -0.0677 -0.0574
13959DDP     C183749   3.504  13.192  12.783 -0.0309 -0.3127 -0.1674
13959DDP     P183750   3.960  13.046  12.719 -0.2874 -0.0168 -0.1364
13959DDP     P283751   3.476  13.385  13.183  0.0666 -0.2770  0.2055
13959DDP     C283752   3.602  13.646  13.437 -0.0959 -0.2925  0.2086
13959DDP     C383753   4.245  13.190  12.497 -0.0356  0.1186  0.0398
13959DDP     C483754   3.196  13.036  12.427 -0.0344 -0.0104 -0.0212
13960DDP     C183755  13.132  25.135   8.472  0.2050  0.1367  0.2103
13960DDP     P183756  13.611  25.296   8.508  0.0354  0.0629 -0.0831
13960DDP     P283757  12.801  24.908   8.720  0.0317 -0.1258  0.1258
13960DDP     C283758  12.617  24.751   9.076 -0.1192  0.2475  0.1411
13960DDP     C383759  13.825  25.679   8.627  0.1695  0.2450  0.2037
13960DDP     C483760  13.063  25.192   7.980  0.1387 -0.3628 -0.1367
13961DDP     C183761  14.043  24.043  20.562  0.3136  0.0063  0.3971
13961DDP     P183762  13.932  24.201  20.166 -0.1004 -0.1126  0.2918
13961DDP     P283763  14.450  23.972  20.705  0.0731  0.3920  0.1598
13961DDP     C283764  14.837  23.981  20.875  0.0632  0.2366  0.0535
13961DDP     C383765  14.280  24.201  19.829 -0.0898  0.1541 -0.1039
13961DDP     C483766  13.794  23.836  20.804  0.2523  0.1216  0.0489
13962DDP     C183767  20.897  10.488   5.418 -0.4001  0.2450  0.0424
13962DDP     P183768  21.245  10.652   5.129  0.1959 -0.2437 -0.0055
13962DDP     P283769  20.964  10.793   5.782 -0.0307 -0.2663 -0.1128
13962DDP     C283770  20.779  10.857   6.137  0.3498 -0.2440 -0.0075
13962DDP     C383771  21.360  11.088   5.333 -0.0163  0.1998 -0.0850
13962DDP     C483772  20.529  10.370   5.379 -0.2340 -0.0219  0.1413
13963DDP     C183773  27.340  13.724  13.557 -0.1277 -0.1495  0.0897
13963DDP     P183774  27.156  13.989  13.630 -0.0361 -0.1509 -0.3428
13963DDP     P283775  27.460  13.645  13.119  0.0730 -0.2515  0.0418
13963DDP     C283776  27.364  13.530  12.730  0.0951 -0.0545  0.3349
13963DDP     C383777  26.892  14.050  13.885  0.2645 -0.0555  0.1962
13963DDP     C483778  27.684  13.624  13.800  0.1586  0.1848 -0.4389
13964DDP     C183779  20.245  24.821   5.015  0.0758  0.4527 -0.0886
13964DDP     P183780  20.635  24.752   5.202 -0.1784 -0.1681 -0.1465
13964DDP     P283781  19.910  24.916   5.312  0.1889  0.1469  0.0972
13964DDP     C283782  19.533  25.092   5.343  0.1251 -0.1681  0.0699
13964DDP     C383783  20.892  24.796   5.643  0.0578  0.3802  0.3107
13964DDP     C483784  20.170  24.777   4.563  0.3150  0.0607 -0.2741
13965DDP     C183785  11.669   2.330   4.010  0.1462  0.0892  0.0539
13965DDP     P183786  11.639   1.950   3.742  0.0117  0.0377 -0.2653
13965DDP     P283787  11.240   2.481   3.961  0.2160  0.2602  0.0772
13965DDP     C283788  10.993   2.619   3.651  0.0407  0.0692  0.0422
13965DDP     C383789  11.883   1.507   3.797  0.1419 -0.0157 -0.3475
13965DDP     C483790  11.946   2.614   4.258 -0.1148  0.2256 -0.1146
13966DDP     C183791  16.589  28.004  21.925 -0.1770  0.0691 -0.0173
13966DDP     P183792  16.351  27.743  21.601 -0.0528 -0.0942 -0.0481
13966DDP     P283793  16.336  28.296  22.200 -0.0872 -0.0356  0.1331
13966DDP     C283794  15.991  28.637  22.006  0.2249  0.3445 -0.0931
13966DDP     C383795  16.148  27.544  21.196 -0.1159  0.1505 -0.1324
13966DDP     C483796  17.001  28.116  21.882 -0.3064  0.0172  0.1491
13967DDP     C183797  23.610   5.118   2.440 -0.2193 -0.0446 -0.1484
13967DDP     P183798  23.774   5.460   2.570 -0.1421  0.3001 -0.2646
13967DDP     P283799  23.356   5.067   2.849  0.0822 -0.0164  0.0226
13967DDP     C283800  23.109   5.070   3.188  0.0531 -0.1454 -0.0540
13967DDP     C383801  23.901   5.919   2.864 -0.1564  0.0509  0.0464
13967DDP     C483802  23.553   5.013   1.970  0.0488  0.0143 -0.0881
13968DDP     C183803  28.899   2.797  21.937 -0.1837 -0.0078 -0.1582
13968DDP     P183804  29.144   3.169  21.991 -0.0427  0.3757 -0.2968
13968DDP     P283805  28.583   2.691  21.588 -0.2225  0.1543  0.1735
13968DDP     C283806  28.609   2.712  21.164 -0.1433  0.0492 -0.0296
13968DDP     C383807  29.385   3.492  21.917 -0.1467  0.1213  0.0838
13968DDP     C483808  29.070   2.426  22.132 -0.0186  0.1384 -0.1638
13969DDP     C183809  28.415   5.090   4.178 -0.0605  0.3398 -0.1103
13969DDP     P183810  28.303   4.866   4.593  0.2739 -0.2027  0.1892
13969DDP     P283811  28.815   5.365   4.110 -0.1686  0.0616 -0.0260
13969DDP     C283812  28.767   5.656   3.710  0.0462 -0.1043 -0.2262
13969DDP     C383813  28.534   4.909   4.945  0.2120 -0.0970 -0.0414
13969DDP     C483814  27.997   5.009   3.947 -0.0679 -0.3118  0.1842
13970DDP     C183815  15.777   4.838   8.699  0.2169  0.1116  0.1609
13970DDP     P183816  16.092   4.683   8.676  0.1601 -0.2559 -0.0159
13970DDP     P283817  15.740   5.147   9.041  0.1655  0.2530  0.1889
13970DDP     C283818  15.358   5.165   9.374 -0.2268 -0.0695 -0.1996
13970DDP     C383819  16.320   4.290   8.755  0.5174  0.1146 -0.0564
13970DDP     C483820  15.479   4.808   8.306 -0.1447  0.2779  0.0989
13971DDP     C183821  19.919  18.268  19.653  0.2883 -0.0880 -0.2913
13971DDP     P183822  20.102  18.332  20.028  0.1307  0.0015 -0.0025
13971DDP     P283823  19.511  18.000  19.543 -0.0521  0.3767  0.0831
13971DDP     C283824  19.101  18.047  19.400 -0.1616 -0.1292  0.4322
13971DDP     C383825  20.077  17.933  20.184  0.2803  0.0366 -0.0096
13971DDP     C483826  20.194  18.561  19.389 -0.2430  0.0949 -0.2276
13972DDP     C183827   5.853   7.794  29.754  0.0521  0.0764 -0.3938
13972DDP     P183828   5.701   8.256  29.807 -0.3716  0.0172 -0.0322
13972DDP     P283829   6.013   7.945  29.266 -0.1539  0.1521  0.1446
13972DDP     C283830   5.714   7.987  28.872 -0.3341  0.2182  0.0352
13972DDP     C383831   5.440   8.407  29.973  0.1630  0.0485 -0.2174
13972DDP     C483832   6.048   7.526  30.053  0.3042 -0.2142  0.1319
13973DDP     C183833  14.358   0.252   4.699  0.0275 -0.2398 -0.1726
13973DDP     P183834  14.731   0.057   4.460 -0.1366 -0.3171  0.1928
13973DDP     P283835  14.134   0.664   4.644 -0.0366  0.0343 -0.3600
13973DDP     C283836  13.861   0.912   4.433 -0.0262 -0.2672 -0.1771
13973DDP     C383837  14.686  30.051   4.161  0.1959 -0.0171  0.1241
13973DDP     C483838  14.099  30.158   4.858  0.4206 -0.0478  0.2031
13974DDP     C183839   8.661  26.703  10.884  0.1433  0.1042  0.0756
13974DDP     P183840   8.744  26.631  11.336 -0.1510 -0.2696  0.4828
13974DDP     P283841   8.437  26.990  10.734 -0.0361  0.1761  0.1331
13974DDP     C283842   8.038  27.159  10.663 -0.0158  0.2913 -0.0089
13974DDP     C383843   8.483  26.608  11.731 -0.0646 -0.0877  0.1313
13974DDP     C483844   9.076  26.574  10.596  0.0693 -0.0835  0.0333
13975DDP     C183845  15.943  20.035  20.458 -0.0900 -0.0241 -0.3749
13975DDP     P183846  15.607  19.880  20.591 -0.0536  0.0188  0.2541
13975DDP     P283847  16.327  19.759  20.674 -0.1826 -0.2337  0.2741
13975DDP     C283848  16.548  19.381  20.910  0.0329  0.1406  0.0283
13975DDP     C383849  15.247  19.684  20.475  0.0320  0.3157  0.2589
13975DDP     C483850  15.999  20.198  20.069 -0.0701 -0.1460  0.1536
13976DDP     C183851  25.702  18.645  14.555 -0.0838  0.0050  0.3352
13976DDP     P183852  25.443  18.806  14.833 -0.4380 -0.2316 -0.0361
13976DDP     P283853  26.169  18.680  14.778  0.2603  0.0051 -0.1545
13976DDP     C283854  26.556  18.983  14.726 -0.1828  0.1731  0.1318
13976DDP     C383855  25.013  18.887  14.778 -0.1477 -0.0449  0.0095
13976DDP     C483856  25.740  18.496  14.179  0.0974  0.0159 -0.0652
13977DDP     C183857  24.275  29.229  30.129 -0.0039  0.1504  0.2767
13977DDP     P183858  24.133  29.274   0.244  0.0096 -0.2317  0.1001
13977DDP     P283859  24.701  29.186  30.041  0.1954 -0.1496 -0.2716
13977DDP     C283860  24.933  29.305  29.745 -0.2939  0.1080 -0.1362
13977DDP     C383861  24.163  28.920   0.516  0.1714  0.3648 -0.3160
13977DDP     C483862  23.931  29.262  29.744  0.3138 -0.4135  0.2922
13978DDP     C183863   4.609   8.906   1.403  0.0312  0.0177  0.2793
13978DDP     P183864   4.686   9.295   1.265  0.1999 -0.0519  0.0384
13978DDP     P283865   4.545   8.649   1.738  0.1018  0.0073 -0.1464
13978DDP     C283866   4.705   8.389   2.143 -0.1240 -0.0949 -0.1321
13978DDP     C383867   5.069   9.447   1.007  0.2496 -0.1292 -0.0779
13978DDP     C483868   4.446   8.868   1.013  0.1154  0.1543  0.0073
13979DDP     C183869  29.776   2.523   8.417  0.0437 -0.1384  0.0170
13979DDP     P183870  29.628   2.595   8.052  0.2221  0.0348  0.3042
13979DDP     P283871  29.903   2.918   8.650 -0.2086 -0.0558  0.0027
13979DDP     C283872  30.057   3.050   8.975 -0.2715 -0.2107  0.2327
13979DDP     C383873  29.461   2.918   7.799 -0.1511  0.0401  0.2566
13979DDP     C483874  29.867   2.115   8.574  0.1838 -0.2883 -0.0227
13980DDP     C183875   1.529   0.172  15.154 -0.0432 -0.1075 -0.0835
13980DDP     P183876   1.283   0.022  14.787 -0.0673  0.0880  0.2582
13980DDP     P283877   1.278   0.262  15.401  0.0220 -0.0273 -0.1063
13980DDP     C283878   1.071   0.551  15.367  0.2088  0.1885 -0.0726
13980DDP     C383879   0.946  30.244  14.573  0.2233  0.1176  0.1471
13980DDP     C483880   1.906  30.269  15.192 -0.0698  0.1114 -0.1079
13981DDP     C183881   2.429  19.387   7.475  0.4284 -0.0368 -0.1467
13981DDP     P183882   2.420  19.014   7.708 -0.1599  0.0171  0.3387
13981DDP     P283883   2.421  19.684   7.931 -0.2316 -0.2836  0.1631
13981DDP     C283884   2.223  20.023   8.034  0.0342  0.0529  0.1413
13981DDP     C383885   2.046  18.732   7.650  0.2478  0.2912  0.0107
13981DDP     C483886   2.084  19.469   7.178 -0.1526  0.0102 -0.2386
13982DDP     C183887  17.794   6.262   6.127 -0.0824 -0.1028 -0.0115
13982DDP     P183888  17.906   6.226   5.734 -0.0259 -0.3331  0.0039
13982DDP     P283889  17.516   6.573   6.259 -0.4005 -0.1455  0.1188
13982DDP     C283890  17.552   7.047   6.065  0.2384 -0.0218  0.1090
13982DDP     C383891  17.863   6.201   5.296  0.1000 -0.0787 -0.1126
13982DDP     C483892  18.138   6.347   6.431 -0.4211 -0.1155 -0.0010
13983DDP     C183893  18.777   8.671  21.312  0.1383 -0.1462 -0.1784
13983DDP     P183894  18.496   8.256  21.352  0.0348 -0.1770  0.1539
13983DDP     P283895  18.619   8.905  20.968 -0.0986 -0.0297  0.0762
13983DDP     C283896  18.393   9.330  20.825  0.1546 -0.0723  0.0284
13983DDP     C383897  18.222   7.970  21.547 -0.1520 -0.2486 -0.2936
13983DDP     C483898  19.074   8.895  21.634 -0.3846 -0.1335 -0.2953
13984DDP     C183899  13.972   2.328   6.155  0.1573  0.3599 -0.0858
13984DDP     P183900  14.443   2.549   6.162 -0.1396 -0.0759 -0.1680
13984DDP     P283901  13.704   2.490   5.848 -0.1974 -0.1092  0.2120
13984DDP     C283902  13.816   2.697   5.361 -0.1320  0.0680  0.2893
13984DDP     C383903  14.823   2.473   5.893  0.0270 -0.1383  0.0319
13984DDP     C483904  13.931   2.195   6.647  0.0469  0.2740 -0.3606
13985DDP     C183905  26.846   8.697   7.273 -0.3066  0.1397  0.3311
13985DDP     P183906  27.030   8.384   7.063 -0.4538  0.2794  0.0025
13985DDP     P283907  27.119   9.024   7.332 -0.0709 -0.2944 -0.0583
13985DDP     C283908  27.439   9.322   7.235  0.0872 -0.1932  0.1141
13985DDP     C383909  27.012   8.101   6.653 -0.0114 -0.1767 -0.2069
13985DDP     C483910  26.482   8.807   7.488 -0.0005  0.1319 -0.0576
13986DDP     C183911  14.156  14.533   3.914  0.0705  0.0056  0.0132
13986DDP     P183912  14.229  14.737   3.607 -0.1526 -0.0954 -0.1258
13986DDP     P283913  14.532  14.462   4.064 -0.0019 -0.0829  0.1546
13986DDP     C283914  14.898  14.568   3.890 -0.0431 -0.3710  0.0105
13986DDP     C383915  14.450  14.991   3.234 -0.1487 -0.0630 -0.3116
13986DDP     C483916  13.883  14.229   4.219  0.0131 -0.1909 -0.0646
13987DDP     C183917   0.165   5.731  23.362 -0.2162  0.0309 -0.0156
13987DDP     P183918   0.170   5.806  23.832 -0.4740 -0.0524  0.3098
13987DDP     P283919   0.654   5.538  23.301 -0.1553 -0.0465 -0.0549
13987DDP     C283920   1.081   5.389  23.295 -0.4403  0.0385 -0.0434
13987DDP     C383921  30.293   5.709  24.217  0.4069 -0.1045  0.1879
13987DDP     C483922  30.115   5.768  23.204 -0.2177 -0.0895 -0.3443
13988DDP     C183923   9.844  26.105  25.293 -0.1310 -0.4513  0.1095
13988DDP     P183924   9.632  25.739  25.038 -0.1576  0.1131 -0.0684
13988DDP     P283925   9.638  26.390  25.484  0.0208 -0.0840  0.2425
13988DDP     C283926   9.325  26.641  25.466  0.0461  0.0153 -0.5065
13988DDP     C383927   9.782  25.411  24.760  0.2812  0.0696 -0.1257
13988DDP     C483928  10.286  25.995  25.356  0.2179  0.1664 -0.0940
13989DDP     C183929   0.864  21.619   0.411  0.2135  0.0713  0.1528
13989DDP     P183930   0.929  21.927   0.109  0.2842 -0.0679  0.0631
13989DDP     P283931   1.048  21.220   0.482  0.2669 -0.0483  0.1400
13989DDP     C283932   1.274  20.981   0.573 -0.1676 -0.3565  0.1110
13989DDP     C383933   1.100  21.968  30.015  0.2059 -0.0962  0.1071
13989DDP     C483934   0.490  21.790   0.702 -0.1789  0.0651  0.0007
13990DDP     C183935  13.189  17.958  11.125 -0.0877  0.2899 -0.3065
13990DDP     P183936  13.420  18.246  10.962 -0.0389  0.0537 -0.1406
13990DDP     P283937  13.167  17.447  10.986 -0.1346  0.0730 -0.0867
13990DDP     C283938  12.770  17.238  10.970  0.1042 -0.0434 -0.3432
13990DDP     C383939  13.527  18.577  10.754 -0.1903 -0.1691  0.0906
13990DDP     C483940  12.980  18.133  11.447  0.1747 -0.1973  0.2314
13991DDP     C183941  11.489  13.238   4.987 -0.0095  0.1078 -0.3675
13991DDP     P183942  11.816  13.205   4.631 -0.2748 -0.1975  0.0532
13991DDP     P283943  11.674  13.033   5.344  0.1636 -0.1033 -0.1047
13991DDP     C283944  11.874  13.028   5.666  0.2549  0.1185 -0.0326
13991DDP     C383945  11.866  12.803   4.404  0.1676  0.1653 -0.0635
13991DDP     C483946  11.169  13.277   4.897 -0.2831  0.0798 -0.0346
13992DDP     C183947   9.714  22.643   1.063  0.1366 -0.0988 -0.1762
13992DDP     P183948   9.283  22.848   1.111 -0.2635 -0.1932 -0.1191
13992DDP     P283949   9.738  22.185   0.980 -0.2318  0.0141 -0.2449
13992DDP     C283950  10.004  21.790   1.257  0.1499  0.2138  0.2263
13992DDP     C383951   9.150  23.260   1.114  0.2271 -0.0038 -0.0155
13992DDP     C483952  10.045  22.863   1.189 -0.0282 -0.3283 -0.0088
13993DDP     C183953  26.240  16.408   2.601  0.0139  0.1981  0.2238
13993DDP     P183954  26.743  16.543   2.667 -0.3052 -0.3053 -0.0188
13993DDP     P283955  26.165  15.972   2.475 -0.0634 -0.0698  0.1167
13993DDP     C283956  25.791  15.692   2.275 -0.4268 -0.2895  0.1034
13993DDP     C383957  27.078  16.599   2.568  0.0048 -0.1958 -0.1787
13993DDP     C483958  25.859  16.791   2.647 -0.1665  0.0992  0.0557
13994DDP     C183959  16.745   2.598  21.320  0.0873  0.1751  0.1093
13994DDP     P183960  17.102   2.659  21.176 -0.3003 -0.0043  0.2754
13994DDP     P283961  16.613   2.406  21.671  0.0871  0.0273 -0.0907
13994DDP     C283962  16.495   2.245  22.017  0.1928  0.1747  0.2030
13994DDP     C383963  17.488   2.615  21.190  0.1670 -0.1705  0.0736
13994DDP     C483964  16.431   2.762  21.152 -0.1999  0.1413 -0.2743
13995DDP     C183965  18.634  18.581  15.047 -0.1249  0.0151  0.3913
13995DDP     P183966  18.754  18.683  14.623 -0.2429  0.1069 -0.1314
13995DDP     P283967  18.294  18.676  15.405  0.1853 -0.1916 -0.0032
13995DDP     C283968  17.908  18.866  15.397  0.1490 -0.2301 -0.1691
13995DDP     C383969  19.016  18.681  14.337  0.0023 -0.1117 -0.1478
13995DDP     C483970  18.831  18.206  15.137 -0.0760 -0.1708  0.3576
13996DDP     C183971   9.664  16.951   6.738 -0.1711 -0.2768  0.1569
13996DDP     P183972   9.254  16.853   6.685  0.2862  0.0824  0.0457
13996DDP     P283973  10.014  16.670   6.479 -0.1709  0.0113 -0.0527
13996DDP     C283974  10.423  16.526   6.267 -0.0359 -0.1884 -0.0939
13996DDP     C383975   8.807  16.993   6.553  0.2320 -0.1736  0.2677
13996DDP     C483976   9.824  17.241   7.073  0.1745 -0.1841  0.1476
13997DDP     C183977  26.795  24.817   7.582 -0.0952  0.4970 -0.1105
13997DDP     P183978  27.260  24.646   7.795 -0.1545  0.0442 -0.0313
13997DDP     P283979  26.570  25.042   7.994 -0.0899 -0.0802  0.2171
13997DDP     C283980  26.496  24.741   8.372  0.0942 -0.0513  0.3468
13997DDP     C383981  27.698  24.583   7.846 -0.1741 -0.1038 -0.0197
13997DDP     C483982  26.662  24.765   7.234 -0.0318  0.1681  0.0114
13998DDP     C183983  19.930  10.652  18.718 -0.4403  0.2238 -0.0304
13998DDP     P183984  19.462  10.619  18.636  0.2187  0.1416 -0.1156
13998DDP     P283985  20.235  10.720  19.160  0.1716  0.0066 -0.0961
13998DDP     C283986  20.255  10.529  19.388  0.0313 -0.2440  0.3005
13998DDP     C383987  19.106  10.460  18.323  0.0870  0.0342  0.0053
13998DDP     C483988  20.085  10.810  18.205 -0.3829 -0.1358 -0.1103
13999DDP     C183989  13.031   2.859  27.786  0.0623  0.3795 -0.0533
13999DDP     P183990  13.490   2.727  27.708 -0.2124  0.2269 -0.2835
13999DDP     P283991  12.748   2.949  28.151  0.0566  0.0477 -0.2725
13999DDP     C283992  12.508   3.254  28.379 -0.1771  0.1554 -0.3503
13999DDP     C383993  13.751   2.423  27.492  0.0257  0.0884 -0.3816
13999DDP     C483994  12.893   3.078  27.331  0.2734  0.0908  0.0351
14000DDP     C183995  16.810   8.015   2.164 -0.1017 -0.3323  0.4653
14000DDP     P183996  16.397   8.043   2.114  0.0759 -0.0835 -0.1258
14000DDP     P283997  16.953   8.393   2.403  0.1674 -0.1422 -0.3448
14000DDP     C283998  17.006   8.812   2.271  0.1026  0.3112 -0.3350
14000DDP     C383999  16.183   8.321   1.823 -0.1583 -0.0032 -0.4528
14000DDP     C484000  17.091   7.557   2.054  0.0479  0.1780  0.0119
14001DDP     C184001  11.428   2.337   5.386 -0.0192 -0.1387  0.2437
14001DDP     P184002  11.681   2.452   4.936 -0.1831  0.0864 -0.1416
14001DDP     P284003  11.072   2.165   5.259 -0.0972  0.0080  0.0002
14001DDP     C284004  10.644   2.211   5.103  0.0553 -0.2935 -0.2551
14001DDP     C384005  11.916   2.767   4.761 -0.3881  0.1067 -0.2867
14001DDP     C484006  11.388   2.254   5.889  0.1526  0.1494  0.1069
14002DDP     C184007   1.739  22.112   5.385 -0.1432  0.0632  0.1472
14002DDP     P184008   1.802  21.681   5.536 -0.3395 -0.0723  0.0330
14002DDP     P284009   1.325  22.268   5.235  0.1093  0.1848  0.3015
14002DDP     C284010   1.156  22.666   5.261 -0.1444 -0.2099  0.3456
14002DDP     C384011   1.803  21.546   5.949 -0.1975  0.3151 -0.2953
14002DDP     C484012   2.074  22.428   5.178 -0.1842 -0.3127 -0.2826
14003DDP     C184013  14.921  17.233  23.455 -0.1321 -0.2237 -0.1792
14003DDP     P184014  14.530  17.385  23.299 -0.2519 -0.0263  0.2145
14003DDP     P284015  15.343  17.342  23.425 -0.0650  0.1459 -0.1283
14003DDP     C284016  15.744  17.434  23.429 -0.0462  0.1551  0.0528
14003DDP     C384017  14.204  17.306  22.896  0.1068 -0.2248  0.0872
14003DDP     C484018  14.945  16.714  23.565 -0.5025 -0.0110  0.2598
14004DDP     C184019  19.646   7.230  15.234 -0.2693  0.2018 -0.0785
14004DDP     P184020  19.913   6.984  15.538 -0.4141 -0.0381 -0.0073
14004DDP     P284021  19.823   7.592  15.213 -0.0985 -0.2032  0.0920
14004DDP     C284022  20.207   7.657  15.271  0.2002  0.0823 -0.2565
14004DDP     C384023  19.823   6.727  15.929  0.1583  0.0236  0.0197
14004DDP     C484024  19.204   7.140  15.184  0.0351  0.1054  0.0757
14005DDP     C184025   6.279   4.244  25.324  0.0065 -0.0289 -0.1937
14005DDP     P184026   6.474   4.610  25.058  0.1501 -0.0159 -0.2765
14005DDP     P284027   5.772   4.168  25.376 -0.2031 -0.0309  0.0085
14005DDP     C284028   5.304   4.205  25.592 -0.2988 -0.3650 -0.1124
14005DDP     C384029   6.384   5.086  25.052  0.1970  0.1309 -0.1731
14005DDP     C484030   6.616   4.020  25.624 -0.1006  0.2233  0.1125
14006DDP     C184031  26.343  17.911   9.376  0.0144 -0.3026 -0.4070
14006DDP     P184032  26.697  17.937   9.739  0.1639 -0.2468 -0.2891
14006DDP     P284033  26.258  18.287   9.159 -0.2016  0.4318  0.1280
14006DDP     C284034  26.471  18.722   9.085  0.5443 -0.0308  0.1522
14006DDP     C384035  27.095  17.894   9.931 -0.1553  0.2980  0.1044
14006DDP     C484036  25.907  17.766   9.192 -0.2190  0.2936 -0.2664
14007DDP     C184037  29.190   8.025  19.784  0.1680 -0.3170  0.1927
14007DDP     P184038  29.507   8.244  19.699  0.2564 -0.1520 -0.1015
14007DDP     P284039  29.008   7.675  19.668 -0.1341  0.1989  0.1119
14007DDP     C284040  28.584   7.595  19.414  0.1601  0.1395  0.0580
14007DDP     C384041  29.874   8.314  20.043  0.1499  0.0048  0.2287
14007DDP     C484042  28.729   8.055  19.901  0.1802 -0.4940 -0.1774
14008DDP     C184043   5.952   4.218  22.653  0.0499 -0.0109 -0.1120
14008DDP     P184044   5.840   4.565  22.995 -0.1206 -0.1372 -0.2199
14008DDP     P284045   5.776   4.148  22.312  0.0225 -0.2373 -0.1219
14008DDP     C284046   5.552   4.350  21.874  0.1612 -0.0691  0.0313
14008DDP     C384047   6.161   4.747  23.287  0.0636  0.0919  0.0783
14008DDP     C484048   6.113   3.831  22.711 -0.0607 -0.0884 -0.2003
14009DDP     C184049   5.987  26.047   0.571  0.1298 -0.2271 -0.1234
14009DDP     P184050   6.270  25.919   0.280 -0.0323  0.1139 -0.3574
14009DDP     P284051   5.801  25.687   0.653 -0.0934  0.0738  0.1260
14009DDP     C284052   5.477  25.532   0.919  0.3026 -0.1023  0.1507
14009DDP     C384053   6.319  25.706  30.232 -0.0355  0.1827  0.1176
14009DDP     C484054   5.906  26.447   0.870 -0.1642 -0.1271  0.2039
14010DDP     C184055   2.665  13.836  15.877 -0.1466  0.0390 -0.2280
14010DDP     P184056   2.850  14.290  15.789 -0.1461 -0.0835  0.0017
14010DDP     P284057   3.028  13.577  15.952  0.2087 -0.1522 -0.0497
14010DDP     C284058   3.365  13.322  15.989 -0.0672 -0.2301 -0.0579
14010DDP     C384059   2.948  14.684  15.715 -0.0411 -0.2541 -0.0391
14010DDP     C484060   2.373  13.554  15.954  0.0115  0.0295  0.0072
14011DDP     C184061   3.351   9.763  29.030 -0.1169 -0.0481 -0.0394
14011DDP     P184062   3.169  10.093  28.643  0.0584  0.0667  0.2907
14011DDP     P284063   3.134   9.707  29.422 -0.1922 -0.2442 -0.1801
14011DDP     C284064   3.027   9.750  29.862  0.1754  0.4307  0.0692
14011DDP     C384065   3.093  10.545  28.407  0.2679 -0.3736 -0.0287
14011DDP     C484066   3.764   9.587  29.049 -0.0457 -0.0262  0.0528
14012DDP     C184067  16.487  13.510   8.360 -0.1295 -0.0060  0.4035
14012DDP     P184068  16.452  13.063   8.194 -0.0041 -0.0921 -0.0621
14012DDP     P284069  16.674  13.785   8.265  0.0702  0.1293  0.1186
14012DDP     C284070  16.608  14.093   8.403 -0.2815 -0.0631  0.3236
14012DDP     C384071  16.384  12.762   8.042  0.0242 -0.1407  0.2892
14012DDP     C484072  16.260  13.678   8.713 -0.0522  0.0862  0.0993
14013DDP     C184073   1.660  16.148   7.319  0.0753  0.0567  0.4641
14013DDP     P184074   1.626  15.708   7.333  0.0093 -0.1465  0.1268
14013DDP     P284075   2.043  16.400   7.122 -0.0793 -0.0522 -0.2243
14013DDP     C284076   2.371  16.388   6.816  0.3569  0.1616  0.0534
14013DDP     C384077   1.474  15.447   7.681 -0.1733 -0.1070 -0.1075
14013DDP     C484078   1.586  16.382   7.765 -0.0415  0.0089 -0.1478
14014DDP     C184079   9.882  17.248  19.586 -0.0569  0.0068  0.2003
14014DDP     P184080  10.243  17.067  19.559  0.1201  0.0267 -0.1495
14014DDP     P284081   9.858  17.619  19.168 -0.3144  0.1691 -0.0960
14014DDP     C284082   9.508  17.743  18.978 -0.2511  0.2468  0.3591
14014DDP     C384083  10.489  16.719  19.669 -0.1361  0.1893  0.1483
14014DDP     C484084   9.525  17.303  19.977  0.2600  0.0000  0.1744
14015DDP     C184085  13.735  16.973  18.252  0.0072 -0.3110 -0.0396
14015DDP     P184086  13.553  17.104  17.880 -0.0954 -0.1742 -0.0312
14015DDP     P284087  13.654  16.533  18.149 -0.0624 -0.1302 -0.0642
14015DDP     C284088  13.772  16.172  18.024  0.0413 -0.0651  0.2420
14015DDP     C384089  13.491  17.438  17.670 -0.1991  0.2370 -0.1718
14015DDP     C484090  13.684  17.379  18.598 -0.0928  0.0794  0.0415
14016DDP     C184091  27.240  18.976  13.034 -0.0215  0.1834  0.3475
14016DDP     P184092  27.297  18.555  13.019  0.0360 -0.1639  0.0157
14016DDP     P284093  26.979  19.098  13.165 -0.0212 -0.1960  0.1761
14016DDP     C284094  26.596  19.217  13.299  0.3093  0.3846  0.1287
14016DDP     C384095  27.219  18.166  13.069 -0.0696 -0.2253 -0.0284
14016DDP     C484096  27.544  19.175  13.226  0.1617  0.1097  0.1446
14017DDP     C184097   2.709  27.972   2.942 -0.1983 -0.0348 -0.0003
14017DDP     P184098   2.968  27.779   3.281  0.0656  0.1569  0.2239
14017DDP     P284099   2.935  28.002   2.488 -0.1877  0.3825  0.5166
14017DDP     C284100   3.154  28.204   2.019 -0.2048 -0.0384  0.1744
14017DDP     C384101   3.241  27.736   3.697  0.0168  0.1169  0.5202
14017DDP     C484102   2.291  28.257   2.772 -0.0874 -0.1078  0.1553
14018DDP     C184103  21.148  10.055  11.766  0.0040  0.0029  0.1489
14018DDP     P184104  20.739  10.119  11.701 -0.2364 -0.1207 -0.0350
14018DDP     P284105  21.302  10.237  12.097 -0.0034 -0.0097  0.1234
14018DDP     C284106  21.180  10.347  12.549 -0.1983  0.3098 -0.0633
14018DDP     C384107  20.347  10.086  11.668  0.2796 -0.0278  0.1719
14018DDP     C484108  21.432   9.862  11.471  0.0733 -0.3098 -0.0631
14019DDP     C184109  20.397  24.868  26.768  0.0757  0.1982 -0.1128
14019DDP     P184110  20.379  24.487  26.990 -0.1097  0.4758 -0.0328
14019DDP     P284111  20.319  25.210  26.917 -0.1468  0.1361  0.0962
14019DDP     C284112  20.559  25.561  26.905 -0.2167 -0.0575 -0.1515
14019DDP     C384113  20.148  24.124  26.997 -0.0340 -0.4123 -0.1775
14019DDP     C484114  20.623  24.871  26.345  0.1311  0.1977  0.0649
14020DDP     C184115   8.356   4.811   0.992  0.2224  0.1232 -0.0017
14020DDP     P184116   8.179   4.792   1.423 -0.1161  0.0459 -0.2481
14020DDP     P284117   8.160   4.783   0.475 -0.0851  0.1561 -0.0780
14020DDP     C284118   7.840   4.603   0.220 -0.2773  0.2938 -0.0320
14020DDP     C384119   7.882   4.827   1.685 -0.0574  0.0839 -0.1245
14020DDP     C484120   8.554   5.128   1.171 -0.1107  0.0570  0.1155
14021DDP     C184121  12.744  12.698  15.114  0.1851  0.0543  0.0817
14021DDP     P184122  12.736  12.997  14.734 -0.0375 -0.1919  0.0917
14021DDP     P284123  12.377  12.366  15.219  0.0044  0.3270  0.0923
14021DDP     C284124  12.096  12.320  15.544  0.2020 -0.2651 -0.0787
14021DDP     C384125  12.608  13.409  14.667 -0.4620 -0.0590  0.0176
14021DDP     C484126  12.984  12.694  15.476 -0.1753  0.2432  0.0514
14022DDP     C184127  17.654  29.467  12.938  0.1108  0.1798  0.0347
14022DDP     P184128  17.638  29.141  12.562 -0.0106 -0.1762  0.1966
14022DDP     P284129  17.341  29.694  13.256  0.0795  0.0847 -0.2020
14022DDP     C284130  16.950  30.017  13.256  0.0719  0.0677  0.0398
14022DDP     C384131  17.402  28.735  12.498  0.3242  0.1220  0.1066
14022DDP     C484132  18.064  29.494  13.189  0.0422  0.4373 -0.0036
14023DDP     C184133  13.976   6.082  22.569  0.1730 -0.0977  0.1778
14023DDP     P184134  13.860   5.635  22.611 -0.0002  0.2296 -0.1267
14023DDP     P284135  14.304   6.230  22.194 -0.0414  0.2166  0.2945
14023DDP     C284136  14.491   6.364  21.921  0.1298 -0.1535  0.2169
14023DDP     C384137  14.220   5.277  22.841  0.1887  0.0838 -0.2061
14023DDP     C484138  13.706   6.282  22.857  0.1469  0.0973  0.3657
14024DDP     C184139  21.906  20.386  12.007  0.2143 -0.0102  0.0964
14024DDP     P184140  21.516  20.289  11.973 -0.2295  0.0246  0.1407
14024DDP     P284141  22.134  20.884  11.956 -0.0717  0.2041  0.1309
14024DDP     C284142  22.379  21.008  11.676 -0.1691 -0.2717 -0.1040
14024DDP     C384143  21.177  20.065  12.197 -0.1264  0.1427 -0.0834
14024DDP     C484144  22.219  20.195  12.135 -0.1305  0.1647 -0.0925
14025DDP     C184145  11.632  25.427  21.183 -0.2231  0.3534 -0.3216
14025DDP     P184146  11.491  25.828  21.378 -0.0943  0.2708 -0.2995
14025DDP     P284147  11.783  25.252  20.977 -0.0025  0.0576 -0.0179
14025DDP     C284148  11.872  24.779  20.988 -0.0299 -0.1677 -0.3016
14025DDP     C384149  11.406  26.053  21.763 -0.1411 -0.0491 -0.0641
14025DDP     C484150  11.453  25.144  21.489  0.2010 -0.0087 -0.0633
14026DDP     C184151  16.837  23.306  15.895  0.1178 -0.3341 -0.1670
14026DDP     P184152  16.924  23.045  16.189  0.2756 -0.0548 -0.1539
14026DDP     P284153  17.217  23.567  15.758 -0.0972  0.0634 -0.2017
14026DDP     C284154  17.197  24.034  15.703 -0.1725 -0.4079  0.1131
14026DDP     C384155  16.854  23.001  16.669  0.0500 -0.0760 -0.1726
14026DDP     C484156  16.591  22.901  15.769 -0.1017 -0.0229 -0.0872
14027DDP     C184157  25.603  21.098  14.499 -0.0401  0.0624  0.1005
14027DDP     P184158  25.582  21.099  14.915 -0.2192 -0.0282  0.4594
14027DDP     P284159  25.818  20.913  14.148  0.3527  0.3042 -0.0342
14027DDP     C284160  26.175  20.961  13.862 -0.0271  0.1384 -0.2041
14027DDP     C384161  25.839  21.067  15.235 -0.1371 -0.1026 -0.1352
14027DDP     C484162  25.533  21.451  14.351  0.1258 -0.1029  0.0091
14028DDP     C184163   9.305  20.973  21.865  0.2190  0.5947 -0.2792
14028DDP     P184164   9.469  21.220  22.196  0.4538 -0.3864  0.1289
14028DDP     P284165   8.926  21.188  21.632 -0.2396 -0.0676 -0.1339
14028DDP     C284166   8.585  21.451  21.443 -0.2426 -0.1767  0.0654
14028DDP     C384167   9.647  21.594  22.174 -0.0709 -0.2079 -0.1349
14028DDP     C484168   9.488  20.566  21.643 -0.1402  0.0448 -0.1973
14029DDP     C184169   0.877   5.066   9.353  0.0836  0.2965 -0.2149
14029DDP     P184170   1.200   5.333   9.414 -0.0659 -0.2100  0.0945
14029DDP     P284171   0.689   5.148   8.923  0.0367  0.0126 -0.2002
14029DDP     C284172   0.300   5.246   8.783 -0.1443  0.0966 -0.0727
14029DDP     C384173   1.434   5.634   9.612 -0.0720 -0.2948  0.0681
14029DDP     C484174   0.828   4.611   9.540 -0.3547  0.2185 -0.0033
14030DDP     C184175  26.252  10.290  19.285  0.1178  0.1957 -0.2024
14030DDP     P184176  26.380  10.153  18.829 -0.2538  0.0013  0.0073
14030DDP     P284177  26.157  10.760  19.473  0.1538 -0.2250 -0.1396
14030DDP     C284178  26.200  11.190  19.541 -0.0371  0.3117 -0.0547
14030DDP     C384179  26.400   9.754  18.655 -0.2789 -0.1681  0.2211
14030DDP     C484180  26.047   9.895  19.432  0.1231 -0.1218  0.1972
14031DDP     C184181   2.977  22.285   6.879  0.2275 -0.3638 -0.0926
14031DDP     P184182   3.268  22.557   6.694  0.1153  0.2115  0.1906
14031DDP     P284183   2.719  22.574   7.240  0.0670  0.2347  0.0626
14031DDP     C284184   2.577  22.861   7.548  0.0349 -0.0771  0.1976
14031DDP     C384185   3.229  22.920   6.901  0.1079  0.2916  0.0630
14031DDP     C484186   3.071  21.791   6.707  0.3956 -0.1334 -0.1634
14032DDP     C184187  18.027  17.322  11.472  0.0739 -0.1380  0.1425
14032DDP     P184188  18.039  17.694  11.665  0.2962  0.4331 -0.0545
14032DDP     P284189  18.044  17.179  11.858 -0.2721 -0.0286 -0.3296
14032DDP     C284190  17.846  17.360  12.188 -0.1590 -0.1119  0.0803
14032DDP     C384191  18.299  17.800  12.054  0.1825  0.0846 -0.0800
14032DDP     C484192  18.175  17.225  11.085 -0.1530 -0.0149  0.1529
14033DDP     C184193   2.483  15.150  23.436 -0.1865 -0.2632 -0.0876
14033DDP     P184194   2.061  15.228  23.287  0.1226  0.0422  0.0241
14033DDP     P284195   2.608  14.880  23.660 -0.1307  0.0985  0.3692
14033DDP     C284196   2.717  14.661  24.025  0.1000 -0.0770  0.1595
14033DDP     C384197   1.621  15.269  23.139 -0.3268 -0.4834 -0.0612
14033DDP     C484198   2.826  15.206  23.312 -0.1774 -0.4027  0.1929
14034DDP     C184199  11.051   7.898  19.003 -0.0098 -0.0529  0.1887
14034DDP     P184200  11.458   7.810  18.991  0.2148  0.3269  0.0618
14034DDP     P284201  10.769   7.629  19.166  0.3130  0.1339  0.2455
14034DDP     C284202  10.469   7.303  19.065 -0.1535  0.2999 -0.2134
14034DDP     C384203  11.694   7.603  19.301  0.2921 -0.1209 -0.3786
14034DDP     C484204  10.866   8.268  18.859  0.1812  0.3829 -0.1231
14035DDP     C184205  17.468   6.280  27.390  0.0140 -0.1303 -0.0208
14035DDP     P184206  17.137   6.565  27.321 -0.2514 -0.0783 -0.1381
14035DDP     P284207  17.355   5.872  27.613 -0.0308 -0.3121  0.2246
14035DDP     C284208  16.994   5.756  27.795  0.1005 -0.1979  0.3410
14035DDP     C384209  17.071   6.889  27.633  0.0596  0.2199 -0.0076
14035DDP     C484210  17.948   6.353  27.506 -0.0283 -0.2336  0.0457
14036DDP     C184211  25.714   6.180  23.682  0.0778  0.1751  0.2950
14036DDP     P184212  25.798   5.899  23.978  0.1582  0.0313 -0.3576
14036DDP     P284213  25.294   6.191  23.473  0.1541  0.4971  0.2728
14036DDP     C284214  24.843   6.373  23.320 -0.1202  0.2182 -0.0309
14036DDP     C384215  25.700   5.779  24.453  0.0211  0.2595  0.0902
14036DDP     C484216  25.948   6.510  23.521  0.0475  0.1566  0.3185
14037DDP     C184217  13.790  19.282  25.801  0.2983  0.2704 -0.2654
14037DDP     P184218  13.418  19.000  25.569 -0.1467  0.1193  0.3008
14037DDP     P284219  13.748  19.370  26.239  0.3213 -0.0201  0.1930
14037DDP     C284220  13.826  19.224  26.643  0.0574 -0.1923  0.4044
14037DDP     C384221  12.987  18.971  25.483 -0.1390 -0.1402  0.0226
14037DDP     C484222  14.165  19.497  25.692  0.1036  0.0254 -0.0522
14038DDP     C184223  24.158  22.780   9.907  0.0365 -0.4858 -0.0322
14038DDP     P184224  24.429  22.449   9.885 -0.2006 -0.1091 -0.0645
14038DDP     P284225  23.708  22.684   9.901  0.1066 -0.2085 -0.3568
14038DDP     C284226  23.562  22.677  10.333 -0.1378  0.1275  0.2182
14038DDP     C384227  24.426  22.017   9.820  0.3365 -0.0850  0.0664
14038DDP     C484228  24.342  23.201   9.903 -0.1098  0.1107 -0.1378
14039DDP     C184229  18.192  29.007   5.966  0.0186  0.1061 -0.0991
14039DDP     P184230  18.308  29.257   5.618  0.2072  0.0661 -0.0654
14039DDP     P284231  18.544  28.786   6.228  0.1763 -0.0803  0.1013
14039DDP     C284232  18.953  28.679   6.190  0.0723  0.0060 -0.0207
14039DDP     C384233  18.181  29.162   5.133 -0.0193  0.1696  0.1583
14039DDP     C484234  17.756  28.869   6.062 -0.1594  0.0497  0.2973
14040DDP     C184235   9.356  20.137  17.496 -0.2939  0.1445 -0.0995
14040DDP     P184236   9.143  19.955  17.894  0.0849  0.1347  0.1466
14040DDP     P284237   9.588  20.457  17.696  0.3357 -0.0919  0.1611
14040DDP     C284238   9.672  20.455  18.133 -0.2811  0.0310  0.0398
14040DDP     C384239   8.750  19.766  17.898 -0.1068 -0.2020 -0.3249
14040DDP     C484240   9.707  19.940  17.238 -0.4599 -0.2698  0.1290
14041DDP     C184241  17.063  22.752   2.277  0.1360  0.0855 -0.2286
14041DDP     P184242  17.182  23.025   2.688 -0.2208  0.1169  0.0601
14041DDP     P284243  16.968  22.297   2.209  0.2921 -0.2118  0.0416
14041DDP     C284244  16.550  22.095   2.202  0.0336 -0.4244  0.1244
14041DDP     C384245  17.503  23.372   2.961  0.0114 -0.0890  0.1270
14041DDP     C484246  17.088  22.912   1.837  0.3063 -0.2093  0.2546
14042DDP     C184247   3.373  11.198  29.252 -0.0986 -0.0077 -0.1262
14042DDP     P184248   3.783  10.977  29.492  0.4454  0.1808 -0.0078
14042DDP     P284249   3.469  11.046  28.864  0.4278 -0.0804  0.3925
14042DDP     C284250   3.165  11.032  28.592  0.1071  0.1249  0.2036
14042DDP     C384251   4.260  11.075  29.487 -0.0773 -0.0262  0.0584
14042DDP     C484252   2.975  11.176  29.372  0.1703  0.0934  0.1577
14043DDP     C184253   3.505  19.608   0.940  0.1989  0.1882  0.0058
14043DDP     P184254   3.518  19.131   0.940  0.1065  0.0857  0.3553
14043DDP     P284255   3.705  19.793   1.282 -0.2778 -0.0712 -0.0919
14043DDP     C284256   3.541  20.115   1.504 -0.3266 -0.1710 -0.0941
14043DDP     C384257   3.803  18.780   0.866  0.1476  0.2753 -0.0248
14043DDP     C484258   3.249  19.742   0.645 -0.1398 -0.1827 -0.5223
14044DDP     C184259  24.263  21.521  23.091  0.0773 -0.2195 -0.1005
14044DDP     P184260  24.139  21.241  22.844  0.3047 -0.0938  0.0791
14044DDP     P284261  24.469  21.990  22.977 -0.1165  0.1575 -0.0315
14044DDP     C284262  24.588  22.448  22.910  0.1503  0.1123  0.0310
14044DDP     C384263  23.763  21.026  22.704  0.2701 -0.1275 -0.1639
14044DDP     C484264  23.973  21.326  23.443 -0.0078  0.1766 -0.1285
14045DDP     C184265   4.186   9.402  28.613 -0.2018 -0.1115  0.0986
14045DDP     P184266   4.139   9.078  28.906  0.0210  0.2642  0.1924
14045DDP     P284267   4.590   9.564  28.476 -0.1473  0.0906 -0.0227
14045DDP     C284268   5.044   9.706  28.379 -0.2527 -0.2487  0.2709
14045DDP     C384269   4.004   8.683  29.123  0.1851  0.2497 -0.0282
14045DDP     C484270   3.993   9.745  28.555  0.0517 -0.3167 -0.2954
14046DDP     C184271  23.229   8.958  14.262  0.1175 -0.2384 -0.0546
14046DDP     P184272  22.935   9.305  14.295  0.0252 -0.1185  0.2757
14046DDP     P284273  23.623   8.841  14.004  0.0583 -0.0374 -0.1077
14046DDP     C284274  23.781   8.977  13.552  0.1117  0.0207  0.0343
14046DDP     C384275  22.505   9.462  14.204 -0.0567 -0.1379 -0.0416
14046DDP     C484276  23.125   8.603  14.524 -0.2230  0.0978 -0.3380
14047DDP     C184277  24.856  20.961   5.450 -0.3058  0.2568 -0.2307
14047DDP     P184278  24.651  21.300   5.523 -0.0282 -0.0915  0.0079
14047DDP     P284279  25.163  20.842   5.166  0.1019  0.3495 -0.0161
14047DDP     C284280  25.501  20.508   5.065 -0.1182  0.2424 -0.1844
14047DDP     C384281  24.573  21.745   5.782  0.2054 -0.1438 -0.2178
14047DDP     C484282  24.959  20.722   5.809 -0.1565 -0.1538 -0.1657
14048DDP     C184283  18.741   3.532  16.316  0.0507 -0.0523 -0.1301
14048DDP     P184284  18.999   3.118  16.224 -0.0664  0.1835  0.0621
14048DDP     P284285  18.747   3.872  16.073 -0.1878  0.0618  0.1400
14048DDP     C284286  19.139   4.112  15.924 -0.0206  0.2008 -0.1182
14048DDP     C384287  19.310   2.913  16.052  0.0641  0.0803 -0.1242
14048DDP     C484288  18.572   3.866  16.527  0.1508  0.1543 -0.3318
14049DDP     C184289  15.751   0.538   0.278 -0.0131  0.1607  0.0520
14049DDP     P184290  15.991   0.255   0.036 -0.0795  0.2135 -0.2374
14049DDP     P284291  15.817   0.860   0.035 -0.1108 -0.3807  0.0236
14049DDP     C284292  15.555   0.948  30.025  0.1649  0.2057 -0.0690
14049DDP     C384293  16.043   0.118  29.825  0.0176 -0.2134  0.0415
14049DDP     C484294  15.407   0.434   0.487 -0.1036 -0.4170  0.1405
14050DDP     C184295  14.915  15.732   2.672  0.0348 -0.2657 -0.0706
14050DDP     P184296  15.279  15.982   2.880 -0.0376  0.2585 -0.0596
14050DDP     P284297  14.814  15.431   2.981 -0.0718 -0.1621  0.0559
14050DDP     C284298  14.681  15.439   3.449  0.0202 -0.1741  0.0676
14050DDP     C384299  15.674  15.964   3.081 -0.0553  0.3163 -0.0824
14050DDP     C484300  14.666  15.722   2.276  0.3761 -0.1230 -0.2540
14051DDP     C184301  23.423  28.555  26.325  0.1090 -0.2054 -0.2551
14051DDP     P184302  23.585  28.482  25.846  0.0738 -0.0874 -0.4722
14051DDP     P284303  23.748  28.285  26.463  0.0312 -0.0267 -0.1877
14051DDP     C284304  24.011  28.010  26.691  0.0424 -0.0691  0.3373
14051DDP     C384305  23.608  28.193  25.458  0.1094  0.0222 -0.1256
14051DDP     C484306  23.140  28.557  26.675 -0.0871 -0.4923  0.0221
14052DDP     C184307  25.254   6.623   7.074  0.0885  0.1581 -0.0631
14052DDP     P184308  25.406   6.397   7.444  0.0213  0.2047 -0.2834
14052DDP     P284309  25.533   6.859   6.879  0.0328  0.3413  0.0567
14052DDP     C284310  26.035   6.722   6.795 -0.0378 -0.0451  0.1681
14052DDP     C384311  25.421   6.128   7.750 -0.1068 -0.1117 -0.2714
14052DDP     C484312  24.813   6.608   6.936 -0.2007  0.1823 -0.0676
14053DDP     C184313  12.785   4.977  21.537  0.1870  0.2317 -0.2275
14053DDP     P184314  13.195   4.847  21.369  0.1442  0.1096  0.0621
14053DDP     P284315  12.479   5.320  21.413  0.0312  0.1178 -0.2692
14053DDP     C284316  12.204   5.538  21.267 -0.1177  0.4678 -0.2409
14053DDP     C384317  13.399   4.441  21.410 -0.1145  0.0752  0.0225
14053DDP     C484318  12.591   4.627  21.901 -0.0366 -0.0091 -0.0943
14054DDP     C184319  23.665  18.946  21.707  0.1225 -0.0413  0.1713
14054DDP     P184320  23.444  19.185  21.883 -0.0656 -0.0096  0.0392
14054DDP     P284321  24.036  18.669  21.856 -0.2283 -0.2060  0.0725
14054DDP     C284322  23.892  18.306  21.958 -0.2546  0.2822  0.0856
14054DDP     C384323  23.356  19.252  22.346 -0.2340  0.0974 -0.0702
14054DDP     C484324  23.419  18.746  21.282  0.2277  0.0220 -0.1399
14055DDP     C184325  23.395   7.464   9.376 -0.2214  0.0488  0.1046
14055DDP     P184326  23.460   7.409   9.796  0.0885 -0.2017 -0.0249
14055DDP     P284327  23.297   7.039   9.260  0.0289 -0.1763 -0.1446
14055DDP     C284328  23.041   6.776   9.160 -0.0998 -0.2968  0.3695
14055DDP     C384329  23.817   7.278   9.897  0.0642  0.0712 -0.1903
14055DDP     C484330  23.307   7.634   8.948 -0.0342 -0.2484 -0.0695
14056DDP     C184331   8.636  14.314  26.487  0.3206  0.1018  0.0005
14056DDP     P184332   8.387  14.601  26.418  0.1060  0.0897  0.0677
14056DDP     P284333   8.841  14.029  26.889 -0.1930  0.3825  0.0802
14056DDP     C284334   8.509  13.683  27.109  0.1075 -0.4250  0.0326
14056DDP     C384335   8.027  14.758  26.631 -0.1532  0.1568  0.2848
14056DDP     C484336   8.634  14.018  26.196  0.1705  0.0087  0.1522
14057DDP     C184337   4.748  25.204  23.524 -0.2519  0.1134 -0.1886
14057DDP     P184338   4.555  25.011  23.915 -0.0623  0.0343 -0.2807
14057DDP     P284339   4.471  25.546  23.291  0.4340  0.1683 -0.2841
14057DDP     C284340   4.061  25.457  23.477  0.4606  0.0253 -0.0221
14057DDP     C384341   4.355  24.923  24.329  0.0484  0.2280  0.0885
14057DDP     C484342   5.112  25.014  23.305 -0.0154  0.0730 -0.3174
14058DDP     C184343  21.342  28.090  11.517  0.0879  0.1368 -0.2442
14058DDP     P184344  21.681  27.729  11.547  0.0843 -0.0270 -0.1736
14058DDP     P284345  20.941  28.208  11.376  0.0852 -0.2362 -0.0826
14058DDP     C284346  20.636  28.179  11.071  0.0786 -0.2297  0.0316
14058DDP     C384347  22.110  27.498  11.600  0.1787  0.3031 -0.2193
14058DDP     C484348  21.713  28.299  11.467  0.6063 -0.1143 -0.0883
14059DDP     C184349  24.465   2.927  22.503  0.1018  0.2763  0.1528
14059DDP     P184350  24.585   3.084  22.943 -0.0152 -0.6347  0.0369
14059DDP     P284351  24.545   2.465  22.389  0.1739 -0.1314 -0.1298
14059DDP     C284352  24.319   2.035  22.187  0.0261 -0.2595 -0.1459
14059DDP     C384353  24.624   2.901  23.335  0.1614 -0.1305  0.0105
14059DDP     C484354  24.230   3.073  22.239  0.1910 -0.4145  0.0020
14060DDP     C184355   8.640  22.927  28.612  0.1522 -0.1720 -0.1854
14060DDP     P184356   8.497  22.497  28.580 -0.1708 -0.1867 -0.1467
14060DDP     P284357   8.627  23.227  28.253  0.0614  0.1674 -0.0341
14060DDP     C284358   8.497  23.317  27.761 -0.2415  0.1654 -0.1869
14060DDP     C384359   8.333  22.249  28.997  0.1683 -0.1144 -0.1430
14060DDP     C484360   8.849  23.123  28.971  0.1753 -0.0425 -0.3680
14061DDP     C184361   8.866  25.864   3.860  0.1181  0.4060 -0.0597
14061DDP     P184362   8.654  25.577   4.179 -0.0225  0.0312  0.3657
14061DDP     P284363   9.002  26.306   3.967 -0.1063  0.0770  0.0444
14061DDP     C284364   9.328  26.507   4.144  0.3315 -0.1042  0.0288
14061DDP     C384365   8.476  25.852   4.452 -0.1951  0.4125  0.4159
14061DDP     C484366   9.078  25.629   3.520  0.2656  0.1310  0.0661
14062DDP     C184367  26.989  15.007  21.958 -0.0872  0.0946  0.0582
14062DDP     P184368  27.180  15.163  21.712  0.1168 -0.5357  0.1538
14062DDP     P284369  26.635  15.278  22.168 -0.0975  0.0402  0.3910
14062DDP     C284370  26.483  15.639  22.024  0.0616  0.0086  0.0312
14062DDP     C384371  27.547  15.244  21.505 -0.0994  0.1501  0.1669
14062DDP     C484372  27.187  14.661  22.254  0.0191 -0.0473  0.1592
14063DDP     C184373  17.905   5.764  27.702  0.1148 -0.1697 -0.2216
14063DDP     P184374  17.922   5.443  27.904 -0.1454 -0.0384 -0.1543
14063DDP     P284375  17.797   5.886  27.340 -0.0466  0.3769  0.1663
14063DDP     C284376  17.926   5.782  26.905 -0.1248 -0.0100 -0.2240
14063DDP     C384377  18.169   5.318  28.231 -0.0148 -0.0697 -0.0634
14063DDP     C484378  17.696   6.106  27.870  0.2617  0.1791 -0.2023
14064DDP     C184379  20.812  15.759   1.919  0.2517  0.0526  0.0854
14064DDP     P184380  21.096  15.826   1.502  0.1030 -0.0501  0.1066
14064DDP     P284381  20.427  15.653   1.760 -0.0547  0.0602 -0.0111
14064DDP     C284382  20.037  15.635   2.093 -0.1910 -0.1046 -0.1689
14064DDP     C384383  21.349  15.517   1.203 -0.2104 -0.0605  0.1660
14064DDP     C484384  20.828  15.824   2.324 -0.1331 -0.1212 -0.0480
14065DDP     C184385  28.606  25.954  20.937  0.0227  0.0550 -0.1772
14065DDP     P184386  28.706  26.098  20.576  0.0354  0.2142 -0.0530
14065DDP     P284387  28.651  26.083  21.237  0.1958  0.0771 -0.0234
14065DDP     C284388  28.353  26.146  21.556 -0.2521  0.1793 -0.0114
14065DDP     C384389  28.688  26.349  20.278  0.2293  0.4002  0.1026
14065DDP     C484390  28.331  25.654  21.269  0.2056  0.0391 -0.0673
14066DDP     C184391   9.696  16.782  29.827 -0.0096  0.1000 -0.0888
14066DDP     P184392  10.080  16.977  29.995 -0.0674  0.0710  0.1461
14066DDP     P284393   9.742  16.530  29.490 -0.1108  0.0576  0.1501
14066DDP     C284394   9.515  16.312  29.177 -0.0241 -0.0657  0.3568
14066DDP     C384395  10.226  17.278  30.189 -0.0256  0.1122  0.2655
14066DDP     C484396   9.466  16.779  30.225  0.3791 -0.0331 -0.0376
14067DDP     C184397  10.468   2.214  22.159  0.1906  0.2082  0.1248
14067DDP     P184398  10.820   2.056  21.932 -0.0822  0.0266  0.2142
14067DDP     P284399  10.055   2.185  21.957 -0.0169 -0.0995  0.2550
14067DDP     C284400   9.783   2.232  21.745 -0.1509  0.0832  0.1395
14067DDP     C384401  11.117   1.921  21.764 -0.0631  0.0263 -0.0557
14067DDP     C484402  10.648   2.402  22.464 -0.0184  0.0788 -0.2004
14068DDP     C184403  28.870   4.981   3.841  0.3058  0.3252  0.2982
14068DDP     P184404  29.263   5.153   4.117  0.2195 -0.0983 -0.0594
14068DDP     P284405  28.667   4.612   4.065  0.1480 -0.2387  0.1162
14068DDP     C284406  28.310   4.543   4.249  0.0412 -0.0491  0.2145
14068DDP     C384407  29.401   5.014   4.579  0.1107  0.1433  0.0649
14068DDP     C484408  28.786   5.112   3.416 -0.0839  0.1543  0.0002
14069DDP     C184409  17.098  19.882  26.033 -0.1832  0.1194  0.3655
14069DDP     P184410  16.869  20.283  26.133  0.3297  0.3398  0.0603
14069DDP     P284411  16.800  19.437  25.934 -0.1393  0.1815 -0.0653
14069DDP     C284412  16.549  19.189  25.666  0.2144  0.2776 -0.1680
14069DDP     C384413  16.648  20.455  26.540 -0.1735  0.0601 -0.2302
14069DDP     C484414  17.516  19.614  26.065 -0.1941  0.0841 -0.1247
14070DDP     C184415  16.746  17.509  11.188  0.0741  0.2797 -0.2052
14070DDP     P184416  16.542  17.629  11.595 -0.0786  0.0289  0.0215
14070DDP     P284417  16.988  17.172  11.260  0.1233  0.1651  0.2037
14070DDP     C284418  17.383  16.923  11.486  0.3454  0.1374 -0.0524
14070DDP     C384419  16.555  18.089  11.700 -0.1434 -0.0806  0.1160
14070DDP     C484420  16.807  17.869  10.814  0.1050 -0.1205  0.1280
14071DDP     C184421  16.309   8.589  22.578 -0.2507 -0.1020  0.1423
14071DDP     P184422  16.380   8.233  22.679  0.0793 -0.1022  0.2940
14071DDP     P284423  16.144   8.937  22.630  0.1862 -0.1463 -0.1534
14071DDP     C284424  16.348   9.367  22.704  0.1582  0.1588  0.1516
14071DDP     C384425  16.605   7.919  22.892 -0.2849  0.0615  0.0994
14071DDP     C484426  16.462   8.715  22.113  0.1755  0.2010 -0.2548
14072DDP     C184427   9.030  18.833  19.281  0.0099 -0.2915  0.2768
14072DDP     P184428   8.716  19.199  19.199  0.0283 -0.0267 -0.2571
14072DDP     P284429   9.229  18.812  19.698  0.0186 -0.0209  0.2839
14072DDP     C284430   9.532  18.704  20.006 -0.0591 -0.0286  0.2144
14072DDP     C384431   8.416  19.165  18.975  0.0287  0.0971  0.0504
14072DDP     C484432   9.335  18.788  18.975 -0.1345 -0.3287 -0.0786
14073DDP     C184433  19.992   3.667  29.320  0.0897 -0.1558 -0.2818
14073DDP     P184434  19.507   3.676  29.262 -0.2249 -0.3249  0.1427
14073DDP     P284435  20.072   3.261  29.518  0.0506  0.1441 -0.0136
14073DDP     C284436  19.725   2.984  29.803 -0.2263 -0.0248 -0.3039
14073DDP     C384437  19.475   3.967  29.626  0.3147  0.2693 -0.1346
14073DDP     C484438  20.347   3.978  29.038 -0.1325 -0.0625 -0.1030
14074DDP     C184439   5.860  30.089  29.382  0.1506 -0.2537  0.0515
14074DDP     P184440   6.094  30.225  29.052 -0.2238 -0.2605  0.2306
14074DDP     P284441   6.196  30.029  29.722  0.1870 -0.0249  0.1990
14074DDP     C284442   6.318  29.934  30.189 -0.0770  0.3193  0.0428
14074DDP     C384443   6.342   0.317  29.061  0.1780  0.0369  0.2181
14074DDP     C484444   5.447  30.049  29.581  0.1097 -0.1356  0.1692
14075DDP     C184445   0.619  22.907  10.410 -0.1005  0.0221  0.0192
14075DDP     P184446   1.072  22.790  10.564  0.1646  0.0364 -0.3035
14075DDP     P284447   0.269  22.990  10.656 -0.2656  0.2124  0.0580
14075DDP     C284448   0.051  22.997  11.037  0.1084 -0.1335 -0.1109
14075DDP     C384449   1.312  22.712  10.872 -0.0831 -0.2793  0.0240
14075DDP     C484450   0.593  23.095   9.975  0.0385 -0.0913 -0.0068
14076DDP     C184451   1.130   2.418  10.768  0.1100 -0.2819  0.0964
14076DDP     P184452   1.472   2.366  10.896 -0.0535 -0.0300  0.2623
14076DDP     P284453   0.879   2.604  11.042 -0.1139 -0.2101  0.0165
14076DDP     C284454   0.658   2.806  11.290 -0.1633 -0.1182  0.0001
14076DDP     C384455   1.677   2.228  11.246  0.0168  0.1807  0.0342
14076DDP     C484456   0.981   2.448  10.354  0.0523  0.3044 -0.0899
14077DDP     C184457  13.290  28.003  13.495 -0.0442 -0.2961  0.1968
14077DDP     P184458  13.189  27.833  13.918 -0.3823  0.0966  0.0514
14077DDP     P284459  13.733  28.078  13.491 -0.0198 -0.2770 -0.0148
14077DDP     C284460  14.043  28.040  13.760  0.0603 -0.1420 -0.0583
14077DDP     C384461  12.931  27.676  14.231  0.2041 -0.1143 -0.3008
14077DDP     C484462  13.124  28.318  13.247  0.0760 -0.1321 -0.1775
14078DDP     C184463  23.639  11.422  10.156  0.1319 -0.2254  0.2008
14078DDP     P184464  23.769  11.568   9.791  0.1980  0.0967  0.2353
14078DDP     P284465  23.829  11.783  10.347  0.0073  0.0773  0.1992
14078DDP     C284466  24.252  11.981  10.408  0.2016 -0.0443 -0.0406
14078DDP     C384467  23.814  11.689   9.391  0.0538  0.0840  0.1829
14078DDP     C484468  23.467  10.924  10.234  0.1435 -0.0775  0.2073
14079DDP     C184469  25.652   7.793   6.164 -0.1316  0.3030 -0.1414
14079DDP     P184470  25.411   7.923   5.789  0.1458 -0.2073 -0.1492
14079DDP     P284471  25.680   7.428   6.121 -0.0765 -0.0626 -0.1847
14079DDP     C284472  25.723   7.100   5.777 -0.0024  0.2819  0.0558
14079DDP     C384473  24.985   8.087   5.783 -0.0506 -0.0310 -0.0143
14079DDP     C484474  25.993   8.034   6.269  0.3697  0.1533 -0.1606
14080DDP     C184475  19.615   5.954  18.185  0.5829 -0.1251  0.1741
14080DDP     P184476  19.116   5.932  18.256  0.0507 -0.1359 -0.1642
14080DDP     P284477  19.884   5.649  18.319 -0.2293  0.4243  0.0821
14080DDP     C284478  20.243   5.371  18.429  0.4276 -0.2602 -0.0026
14080DDP     C384479  18.789   5.627  18.315 -0.2043 -0.0628 -0.0665
14080DDP     C484480  19.650   6.455  18.084 -0.2092 -0.1843  0.1169
14081DDP     C184481  12.024  22.091  15.089  0.2235  0.1238  0.4281
14081DDP     P184482  11.734  22.265  14.884 -0.2761  0.3195  0.1392
14081DDP     P284483  12.363  22.116  14.988  0.2823 -0.1265 -0.3048
14081DDP     C284484  12.734  21.886  15.040  0.0916 -0.3177  0.2251
14081DDP     C384485  11.502  22.169  14.521 -0.0856  0.1531  0.2469
14081DDP     C484486  11.923  21.682  15.168 -0.0131  0.3947  0.3720
14082DDP     C184487   6.795  25.097   6.256 -0.0969 -0.2792  0.1528
14082DDP     P184488   6.890  25.004   6.701 -0.1640  0.0132 -0.0659
14082DDP     P284489   6.794  25.521   6.279  0.3258  0.1035  0.3854
14082DDP     C284490   6.682  26.037   6.329  0.1623 -0.2052 -0.1072
14082DDP     C384491   6.602  25.044   7.078  0.3693 -0.3096 -0.0789
14082DDP     C484492   6.771  24.897   5.749  0.1140  0.0865  0.1810
14083DDP     C184493   7.510  29.223  27.948 -0.0666  0.2577 -0.1640
14083DDP     P184494   7.452  29.477  27.592 -0.0613  0.1797  0.1870
14083DDP     P284495   7.334  28.806  27.944  0.0737  0.0525 -0.2082
14083DDP     C284496   7.458  28.293  28.132  0.2140  0.0739 -0.0797
14083DDP     C384497   7.522  29.763  27.301  0.1014 -0.2415 -0.0391
14083DDP     C484498   7.595  29.380  28.414 -0.0566 -0.4420 -0.2483
14084DDP     C184499   8.581  17.345   3.534  0.0497 -0.1371 -0.2349
14084DDP     P184500   8.303  17.279   3.879  0.0849 -0.1165  0.1481
14084DDP     P284501   8.315  17.620   3.289 -0.1726  0.2753  0.0376
14084DDP     C284502   8.097  17.897   3.049  0.0414  0.1413  0.0275
14084DDP     C384503   8.290  17.211   4.347 -0.2272  0.0124  0.2270
14084DDP     C484504   8.876  17.074   3.338 -0.0988 -0.3322 -0.0860
14085DDP     C184505  21.473  27.007  26.534 -0.0063  0.1794  0.0532
14085DDP     P184506  21.313  27.408  26.511 -0.1057  0.0108  0.1055
14085DDP     P284507  21.930  27.188  26.409 -0.0943 -0.2053  0.0117
14085DDP     C284508  22.334  27.160  26.364 -0.1068  0.3558 -0.1039
14085DDP     C384509  21.144  27.675  26.205 -0.0586 -0.2802 -0.0688
14085DDP     C484510  21.427  26.722  26.853  0.0587 -0.2818 -0.1740
14086DDP     C184511  24.622   6.223  24.072  0.3138 -0.0936  0.1375
14086DDP     P184512  24.841   6.116  23.738 -0.1992  0.2747  0.0997
14086DDP     P284513  25.002   6.272  24.375  0.1003 -0.3074  0.3803
14086DDP     C284514  25.197   6.590  24.646  0.1018  0.3523  0.1231
14086DDP     C384515  24.770   5.743  23.475 -0.0608  0.2785 -0.0973
14086DDP     C484516  24.224   6.179  24.177  0.1617  0.1409 -0.0949
14087DDP     C184517   2.234  19.770  15.253 -0.0013  0.0161 -0.0385
14087DDP     P184518   1.904  19.543  15.239  0.1076 -0.0503 -0.0919
14087DDP     P284519   2.208  20.259  15.229 -0.2563  0.0266  0.1152
14087DDP     C284520   1.837  20.502  15.139  0.0914  0.0591  0.0636
14087DDP     C384521   1.800  19.072  15.359  0.1583 -0.1229  0.1472
14087DDP     C484522   2.646  19.542  15.257  0.0980  0.1452 -0.0373
14088DDP     C184523  17.451   4.713   4.385  0.0719  0.1346 -0.1716
14088DDP     P184524  17.618   4.862   4.108  0.1518 -0.2723  0.0834
14088DDP     P284525  17.653   4.359   4.576 -0.0316  0.0332 -0.0015
14088DDP     C284526  17.358   4.000   4.507 -0.0410 -0.3101  0.1133
14088DDP     C384527  17.532   5.337   4.020 -0.0339 -0.0998 -0.2082
14088DDP     C484528  17.039   4.965   4.504 -0.1445 -0.0688  0.1514
14089DDP     C184529  25.346   1.573  28.071  0.1363 -0.0464  0.3977
14089DDP     P184530  25.060   1.609  28.382 -0.0778 -0.1074  0.3187
14089DDP     P284531  25.527   1.932  27.955  0.0342 -0.0145 -0.1218
14089DDP     C284532  25.947   2.104  27.868  0.1480 -0.0689 -0.2171
14089DDP     C384533  24.874   1.903  28.700  0.1208  0.0772  0.0169
14089DDP     C484534  25.343   1.153  27.841  0.1123 -0.0843  0.2620
14090DDP     C184535  24.228  21.808  30.088 -0.2325  0.0401  0.0399
14090DDP     P184536  24.468  21.690  29.773  0.0032 -0.1997  0.1999
14090DDP     P284537  23.856  22.098  30.112 -0.0972  0.1586  0.2824
14090DDP     C284538  23.806  22.459   0.037  0.1090 -0.5104 -0.1174
14090DDP     C384539  24.485  21.379  29.378 -0.0687  0.0185 -0.2188
14090DDP     C484540  24.090  21.480  30.305  0.0319 -0.2726  0.2005
14091DDP     C184541  26.293  12.414   3.155 -0.3754 -0.4318 -0.0347
14091DDP     P184542  26.389  12.218   3.505 -0.0744 -0.0588 -0.2870
14091DDP     P284543  26.538  12.886   3.147  0.2299 -0.1919 -0.1211
14091DDP     C284544  26.951  13.060   3.319  0.0464 -0.2118  0.1128
14091DDP     C384545  26.387  11.908   3.720  0.0358  0.4635 -0.0270
14091DDP     C484546  26.384  12.151   2.718  0.2968 -0.2987  0.0406
14092DDP     C184547  25.324  20.743  20.510  0.0938  0.0779  0.2352
14092DDP     P184548  25.367  21.108  20.416 -0.2365  0.2908  0.0273
14092DDP     P284549  25.675  20.581  20.381  0.1408  0.0336  0.0527
14092DDP     C284550  25.772  20.216  20.264 -0.0747 -0.1357  0.0785
14092DDP     C384551  25.160  21.429  20.594  0.0873  0.0816 -0.0018
14092DDP     C484552  24.917  20.444  20.672 -0.0368 -0.0187 -0.1961
14093DDP     C184553  13.924  28.158   2.438  0.0528 -0.0166 -0.1175
14093DDP     P184554  14.181  28.364   2.149  0.0435  0.2651 -0.0589
14093DDP     P284555  13.447  28.209   2.256 -0.2384 -0.2893 -0.0790
14093DDP     C284556  13.123  27.973   2.056 -0.1036 -0.0030 -0.2521
14093DDP     C384557  14.491  28.375   1.968  0.0944  0.0409 -0.0885
14093DDP     C484558  14.057  27.939   2.844  0.2116  0.6155  0.0256
14094DDP     C184559   2.895   0.980  29.468 -0.1572  0.0524  0.0327
14094DDP     P184560   2.880   1.080  29.002 -0.1092  0.0776  0.0055
14094DDP     P284561   3.110   0.853  29.693  0.0931 -0.3848 -0.0755
14094DDP     C284562   3.337   0.460  29.992 -0.0765  0.1697  0.0748
14094DDP     C384563   3.131   1.331  28.550 -0.0545 -0.2011  0.1458
14094DDP     C484564   2.547   1.191  29.711 -0.0137 -0.2118  0.2703
14095DDP     C184565  24.145   8.720  10.679  0.2254  0.0586 -0.1974
14095DDP     P184566  24.307   8.612  11.079 -0.0532  0.0058 -0.3285
14095DDP     P284567  23.836   8.498  10.438 -0.1881 -0.1228  0.0737
14095DDP     C284568  23.634   8.324  10.135 -0.0843  0.1139 -0.0093
14095DDP     C384569  24.469   8.358  11.460  0.1926 -0.2113 -0.1727
14095DDP     C484570  24.346   9.049  10.448  0.0255  0.0584 -0.0192
14096DDP     C184571   6.788  27.697  28.236 -0.2144 -0.1828  0.1408
14096DDP     P184572   6.663  27.211  28.325  0.1868 -0.3701  0.0677
14096DDP     P284573   7.057  27.952  28.515  0.3284  0.0226  0.1313
14096DDP     C284574   7.162  28.395  28.610  0.3536 -0.1453  0.1369
14096DDP     C384575   6.544  26.762  28.358  0.0141  0.1506 -0.1651
14096DDP     C484576   6.527  27.986  28.225 -0.1352 -0.1590  0.0536
14097DDP     C184577  23.366   1.813  13.840  0.1727 -0.2243 -0.1841
14097DDP     P184578  23.060   1.782  14.173  0.0308 -0.1121 -0.0974
14097DDP     P284579  23.072   1.551  13.676  0.0822 -0.3039 -0.0766
14097DDP     C284580  22.606   1.587  13.537 -0.1746 -0.2671  0.1877
14097DDP     C384581  22.937   1.923  14.563  0.0751  0.1633  0.1684
14097DDP     C484582  23.514   2.222  13.600 -0.3072  0.0879  0.0324
14098DDP     C184583  25.351  20.294  19.488  0.2640 -0.0765 -0.0660
14098DDP     P184584  25.114  20.617  19.630  0.1559  0.3341  0.1986
14098DDP     P284585  25.521  20.027  19.876 -0.1407  0.1336  0.1027
14098DDP     C284586  25.990  20.022  19.788 -0.0820 -0.0422 -0.0687
14098DDP     C384587  25.063  21.002  19.464  0.0428 -0.1110  0.0411
14098DDP     C484588  25.157  19.967  19.294  0.0976 -0.0256  0.0005
14099DDP     C184589   1.717  14.900  24.053 -0.0348 -0.1212  0.0550
14099DDP     P184590   1.909  15.191  24.275  0.2010 -0.1248  0.1640
14099DDP     P284591   1.819  14.392  24.080  0.0035  0.1031 -0.2461
14099DDP     C284592   1.737  13.879  24.132 -0.0391 -0.1754 -0.1042
14099DDP     C384593   2.214  15.446  24.332  0.3576  0.2404 -0.0741
14099DDP     C484594   1.686  15.145  23.661 -0.2864  0.0176  0.0979
14100DDP     C184595  25.649   9.905  13.341  0.1046 -0.2152  0.0488
14100DDP     P184596  25.661   9.509  13.449 -0.0979  0.2305 -0.2099
14100DDP     P284597  25.411  10.148  13.691 -0.1045 -0.1906  0.3284
14100DDP     C284598  25.287  10.188  14.113  0.1072  0.1383 -0.0264
14100DDP     C384599  25.927   9.184  13.398 -0.3149 -0.0988 -0.3469
14100DDP     C484600  25.734  10.076  13.047  0.0508  0.2078  0.1897
14101DDP     C184601   3.699   0.334  29.316  0.4062 -0.1503  0.0894
14101DDP     P184602   3.263   0.465  29.480 -0.2969  0.0733 -0.0491
14101DDP     P284603   3.969   0.367  28.915 -0.1420  0.0191 -0.4439
14101DDP     C284604   4.221   0.421  28.562 -0.2364  0.0268  0.0051
14101DDP     C384605   2.845   0.393  29.594  0.3201 -0.0951  0.2899
14101DDP     C484606   4.018   0.046  29.444  0.5392 -0.3070  0.2477
14102DDP     C184607   4.850  23.130  27.192  0.0229  0.0971 -0.0433
14102DDP     P184608   5.106  22.953  27.548 -0.3547 -0.1389  0.0971
14102DDP     P284609   4.406  23.043  27.210 -0.1770  0.3040  0.2352
14102DDP     C284610   4.165  22.677  27.322 -0.0261  0.2505 -0.1552
14102DDP     C384611   5.520  22.638  27.525 -0.0644 -0.2049 -0.1462
14102DDP     C484612   5.069  23.509  27.052 -0.1844  0.2184  0.0385
14103DDP     C184613   1.060   8.278  23.904 -0.1957 -0.0075 -0.1885
14103DDP     P184614   1.085   8.538  24.225 -0.0189  0.1348 -0.0023
14103DDP     P284615   0.858   7.955  23.865 -0.1246 -0.3341 -0.2124
14103DDP     C284616   0.506   7.809  24.115 -0.1531 -0.0475  0.2280
14103DDP     C384617   1.151   8.803  24.544 -0.1359  0.1240 -0.1346
14103DDP     C484618   1.242   8.575  23.554  0.1625  0.1062  0.0145
14104DDP     C184619  18.157  28.736   1.925  0.0084  0.5366 -0.0169
14104DDP     P184620  17.957  29.054   2.105 -0.1718  0.0480 -0.1706
14104DDP     P284621  17.704  28.743   1.804  0.1653 -0.0299  0.1387
14104DDP     C284622  17.470  28.932   1.507 -0.4511 -0.2064 -0.0938
14104DDP     C384623  17.800  29.362   2.350 -0.1368 -0.0664 -0.3033
14104DDP     C484624  18.439  28.543   1.721 -0.3220  0.0567  0.0097
14105DDP     C184625  27.127  11.614  14.673 -0.2303  0.3945  0.4170
14105DDP     P184626  26.937  11.767  14.243 -0.1027 -0.1881  0.1151
14105DDP     P284627  27.355  11.995  14.881  0.0101  0.0637  0.1790
14105DDP     C284628  27.618  12.290  15.039 -0.2224  0.1370  0.1384
14105DDP     C384629  26.738  11.786  13.852  0.1098 -0.1198  0.1262
14105DDP     C484630  26.785  11.341  14.974 -0.2348 -0.4340 -0.1855
14106DDP     C184631  25.390  15.009  21.525 -0.3829  0.2740 -0.2704
14106DDP     P184632  24.937  15.005  21.700 -0.2006  0.0849  0.0371
14106DDP     P284633  25.608  15.170  21.071  0.2215  0.3400  0.0007
14106DDP     C284634  25.533  15.231  20.567  0.1021 -0.0559  0.0041
14106DDP     C384635  24.467  15.021  21.935  0.1821  0.0482  0.2783
14106DDP     C484636  25.673  14.741  21.805 -0.0202 -0.1022 -0.0979
14107DDP     C184637  25.702   0.580  29.462  0.2735 -0.2218 -0.1109
14107DDP     P184638  25.829   0.354  29.182 -0.0937 -0.1148 -0.1223
14107DDP     P284639  25.584   0.953  29.382  0.1491  0.0383 -0.2693
14107DDP     C284640  25.273   1.312  29.393  0.0395  0.3112 -0.1095
14107DDP     C384641  26.116   0.200  28.878 -0.1368 -0.0835 -0.2235
14107DDP     C484642  25.446   0.513  29.792 -0.1758 -0.0528  0.1564
14108DDP     C184643  12.612  10.119  23.727  0.3598 -0.2266  0.0223
14108DDP     P184644  12.571  10.516  23.571  0.1493  0.0003  0.2666
14108DDP     P284645  13.041  10.098  23.959  0.1281 -0.0324 -0.2229
14108DDP     C284646  13.294  10.354  24.169 -0.0426  0.0121  0.1213
14108DDP     C384647  12.454  10.856  23.298 -0.0600  0.0494  0.1127
14108DDP     C484648  12.256   9.770  23.829 -0.1118  0.2607 -0.1087
14109DDP     C184649  22.351   3.302  25.007 -0.0183 -0.0785  0.0951
14109DDP     P184650  22.244   3.143  25.384  0.1819 -0.1212  0.1336
14109DDP     P284651  22.022   3.556  24.869 -0.2134 -0.0697  0.2944
14109DDP     C284652  22.097   3.945  24.859  0.2117 -0.1201  0.2111
14109DDP     C384653  21.964   2.958  25.730 -0.1942 -0.0427  0.2517
14109DDP     C484654  22.833   3.384  24.907 -0.0055 -0.2392  0.0036
14110DDP     C184655  16.398  18.571  13.210  0.1943 -0.0856  0.0674
14110DDP     P184656  16.116  18.895  13.351  0.0725 -0.1452 -0.0763
14110DDP     P284657  16.840  18.729  13.229 -0.0100  0.0945 -0.1586
14110DDP     C284658  17.168  18.910  13.084  0.2865  0.2792  0.2348
14110DDP     C384659  15.929  19.101  13.675 -0.1542 -0.2253 -0.0671
14110DDP     C484660  16.288  18.190  13.020  0.0798  0.2096  0.0203
14111DDP     C184661  25.018  24.534  15.552  0.3475 -0.2199 -0.1765
14111DDP     P184662  24.869  24.534  15.979 -0.2116 -0.1105 -0.0880
14111DDP     P284663  24.749  24.283  15.323  0.4356 -0.2192 -0.3135
14111DDP     C284664  24.402  24.299  15.011 -0.1601  0.2304 -0.0074
14111DDP     C384665  24.933  24.913  16.339 -0.0401 -0.2552 -0.2938
14111DDP     C484666  25.415  24.777  15.509 -0.0893  0.2759 -0.2683
14112DDP     C184667  28.097   5.108  19.205 -0.2848 -0.0291 -0.2845
14112DDP     P184668  27.805   5.246  19.476  0.2770 -0.1081 -0.1285
14112DDP     P284669  27.839   4.899  18.966  0.2199 -0.3035  0.0382
14112DDP     C284670  27.797   4.483  18.792 -0.0036 -0.1356 -0.0641
14112DDP     C384671  27.798   5.583  19.730  0.0140  0.3583  0.0072
14112DDP     C484672  28.461   5.360  19.086  0.3907 -0.1234  0.3774
14113DDP     C184673   5.568  21.894  25.267  0.0252 -0.0477 -0.0372
14113DDP     P184674   5.250  21.770  24.942 -0.1368  0.1198 -0.1225
14113DDP     P284675   5.432  22.156  25.619  0.1823  0.0557  0.0474
14113DDP     C284676   5.134  22.393  25.767  0.1417 -0.1732  0.1346
14113DDP     C384677   5.342  22.021  24.526  0.1484 -0.0814  0.4538
14113DDP     C484678   6.019  21.761  25.246  0.1704 -0.0682  0.1802
14114DDP     C184679   5.937   0.014   2.084 -0.0276 -0.0106  0.2947
14114DDP     P184680   6.100  -0.010   2.445  0.0232 -0.2342  0.1841
14114DDP     P284681   6.317  30.096   1.903 -0.0328 -0.0207 -0.1303
14114DDP     C284682   6.612  29.839   1.654 -0.2733  0.2295 -0.0344
14114DDP     C384683   6.500  30.149   2.549 -0.0826  0.2258 -0.2598
14114DDP     C484684   5.611   0.154   1.812 -0.0221  0.3445  0.0155
14115DDP     C184685   7.755  23.590   6.976 -0.1463  0.0177 -0.4548
14115DDP     P184686   7.371  23.609   7.174  0.0604  0.0282  0.1947
14115DDP     P284687   8.015  23.851   7.186  0.0270  0.2172 -0.3428
14115DDP     C284688   8.433  24.080   7.145  0.0796  0.0013  0.1344
14115DDP     C384689   6.858  23.688   7.237  0.3742 -0.1061 -0.2025
14115DDP     C484690   7.896  23.341   6.656  0.0022 -0.1011 -0.4106
14116DDP     C184691  20.254  26.938   0.619 -0.0272 -0.0901  0.0987
14116DDP     P184692  20.427  26.568   0.827  0.1731 -0.0607 -0.1127
14116DDP     P284693  20.039  27.216   0.897  0.1526  0.0768  0.2025
14116DDP     C284694  20.201  27.443   1.168 -0.1273 -0.1998 -0.2311
14116DDP     C384695  20.878  26.603   0.968  0.0390 -0.0181  0.2045
14116DDP     C484696  20.470  27.101   0.226  0.0554 -0.0070 -0.0822
14117DDP     C184697  15.045  11.544  28.681  0.3532 -0.1962  0.1461
14117DDP     P184698  14.740  11.394  28.312  0.1193  0.1647  0.0431
14117DDP     P284699  15.270  11.271  28.930 -0.2403 -0.2335  0.0611
14117DDP     C284700  14.880  10.979  29.046 -0.1116 -0.0144  0.1448
14117DDP     C384701  14.548  11.199  27.970 -0.1471  0.4289 -0.0038
14117DDP     C484702  15.033  11.970  28.760 -0.1151 -0.0150 -0.1840
14118DDP     C184703  25.362   2.030  26.982 -0.0721 -0.0983  0.2180
14118DDP     P184704  25.031   1.915  27.234 -0.0303 -0.0984  0.1324
14118DDP     P284705  25.621   1.783  26.802  0.2206  0.2053  0.0258
14118DDP     C284706  25.587   1.434  26.644 -0.0497  0.3764  0.0549
14118DDP     C384707  24.555   1.807  27.108  0.2105  0.0373 -0.0553
14118DDP     C484708  25.449   2.467  27.126 -0.3008 -0.5521  0.0204
14119DDP     C184709  18.541  13.470   5.608  0.0898  0.1208  0.3837
14119DDP     P184710  18.946  13.287   5.442  0.1662 -0.3389  0.1442
14119DDP     P284711  18.137  13.216   5.533  0.0412 -0.1829  0.0067
14119DDP     C284712  18.018  12.866   5.341 -0.2254  0.2095  0.0521
14119DDP     C384713  19.363  13.235   5.442 -0.0808  0.0034  0.0558
14119DDP     C484714  18.441  13.694   5.950  0.0132 -0.0657  0.3367
14120DDP     C184715   9.503   2.071   8.104  0.0096 -0.0071 -0.1504
14120DDP     P184716   9.609   1.676   7.836  0.0822 -0.0764 -0.2356
14120DDP     P284717   9.722   2.278   7.880  0.0411 -0.0897  0.2584
14120DDP     C284718   9.893   2.534   7.503 -0.1307  0.2007 -0.2959
14120DDP     C384719   9.594   1.341   7.495 -0.2637 -0.2598 -0.3771
14120DDP     C484720   9.374   2.144   8.581  0.1182 -0.1691 -0.0724
14121DDP     C184721  27.729  17.799  24.824 -0.1232  0.0374 -0.1857
14121DDP     P184722  27.778  17.929  25.247 -0.0146 -0.0446 -0.0134
14121DDP     P284723  27.418  17.553  24.637  0.0123 -0.3532  0.1862
14121DDP     C284724  27.156  17.218  24.730 -0.1660 -0.1498  0.0041
14121DDP     C384725  28.031  18.150  25.493  0.2767 -0.1772 -0.1559
14121DDP     C484726  27.935  18.150  24.523 -0.1413  0.0164 -0.0968
14122DDP     C184727  26.157  14.093  23.010  0.0100  0.0981 -0.2686
14122DDP     P184728  25.934  14.344  22.574 -0.0770  0.3033  0.2200
14122DDP     P284729  26.275  14.328  23.386  0.3117 -0.2527 -0.0849
14122DDP     C284730  26.105  14.562  23.643 -0.1828 -0.1511 -0.1661
14122DDP     C384731  25.844  14.644  22.274 -0.2776  0.2854 -0.1156
14122DDP     C484732  26.212  13.536  23.018 -0.1172  0.1522  0.2227
14123DDP     C184733  23.935   2.739  12.986 -0.1048  0.0827  0.1557
14123DDP     P184734  23.871   2.617  13.475  0.1994 -0.1420  0.0429
14123DDP     P284735  24.054   3.222  12.857  0.0109 -0.1743 -0.0919
14123DDP     C284736  23.999   3.749  12.769 -0.2990 -0.0665  0.0422
14123DDP     C384737  23.610   2.662  13.910 -0.0868 -0.1973  0.2139
14123DDP     C484738  24.099   2.390  12.781 -0.0694 -0.0969 -0.0616
14124DDP     C184739  21.604  25.299  24.590  0.2800  0.3255 -0.0218
14124DDP     P184740  21.756  24.900  24.769  0.0391 -0.3264 -0.0110
14124DDP     P284741  21.603  25.414  24.161 -0.1022 -0.0693 -0.0786
14124DDP     C284742  21.503  25.423  23.748  0.0258 -0.1100 -0.0834
14124DDP     C384743  21.969  24.516  24.952  0.2553  0.1086 -0.0493
14124DDP     C484744  21.288  25.396  24.777  0.1125 -0.0131  0.2902
14125DDP     C184745  23.968  27.158  29.624 -0.0885 -0.0499 -0.1169
14125DDP     P184746  23.906  26.758  29.643 -0.1761 -0.1560 -0.0714
14125DDP     P284747  24.256  27.434  29.816  0.1742 -0.0107  0.1357
14125DDP     C284748  24.287  27.726  30.235  0.0192  0.1402 -0.0968
14125DDP     C384749  23.487  26.530  29.529  0.1644  0.0222  0.0624
14125DDP     C484750  23.756  27.436  29.387  0.0050  0.1230 -0.2485
14126DDP     C184751  27.245  27.398  10.627 -0.0961 -0.0881  0.3310
14126DDP     P184752  27.011  27.419  11.035 -0.1825 -0.0015  0.2978
14126DDP     P284753  26.995  27.648  10.431  0.0074 -0.1357  0.3058
14126DDP     C284754  26.644  27.932  10.397 -0.1363  0.3265 -0.1404
14126DDP     C384755  27.142  27.418  11.455 -0.0780 -0.3612 -0.1025
14126DDP     C484756  27.380  26.878  10.564  0.0357  0.0930 -0.1166
14127DDP     C184757   3.255  20.717   0.232  0.2391  0.0526  0.1500
14127DDP     P184758   2.998  20.538   0.101 -0.0807  0.1819 -0.0710
14127DDP     P284759   3.183  21.121   0.312  0.1288 -0.4937 -0.0483
14127DDP     C284760   3.008  21.342   0.718  0.1024 -0.1728  0.0980
14127DDP     C384761   3.043  20.336  30.026  0.1058  0.1324  0.2012
14127DDP     C484762   3.682  20.535   0.418 -0.1539 -0.1091 -0.1252
14128DDP     C184763   5.696  26.691  30.188 -0.2155  0.1431 -0.0043
14128DDP     P184764   5.635  26.361   0.091  0.3442  0.0890 -0.0284
14128DDP     P284765   5.723  26.699  29.744 -0.0645  0.0467  0.0021
14128DDP     C284766   6.017  26.718  29.335  0.1548 -0.0591  0.3602
14128DDP     C384767   5.552  26.247   0.508 -0.3600 -0.1551  0.0002
14128DDP     C484768   5.991  27.015  30.314  0.0386 -0.0687  0.1194
14129DDP     C184769  15.443   1.462  24.354  0.1411  0.2733 -0.0578
14129DDP     P184770  15.106   1.253  24.180 -0.0026 -0.3187  0.2765
14129DDP     P284771  15.678   1.699  24.066  0.2627  0.0352  0.0317
14129DDP     C284772  15.894   2.016  23.820  0.3133 -0.2448 -0.1827
14129DDP     C384773  14.741   1.410  24.114 -0.1755 -0.0501 -0.1846
14129DDP     C484774  15.413   1.693  24.750  0.2181 -0.0893  0.1271
14130DDP     C184775   0.035   4.964  17.964  0.0457 -0.2894 -0.2156
14130DDP     P184776   0.184   4.908  17.477  0.1827  0.0986 -0.1110
14130DDP     P284777   0.277   4.826  18.307 -0.1184 -0.1911 -0.0249
14130DDP     C284778   0.457   4.869  18.722  0.0055 -0.0687  0.0326
14130DDP     C384779   0.456   5.079  17.186 -0.1883 -0.0138  0.0820
14130DDP     C484780  29.990   5.175  18.229  0.1289 -0.1261 -0.1841
14131DDP     C184781   1.385  24.142   6.496 -0.0460  0.0307  0.2137
14131DDP     P184782   1.135  24.022   6.171 -0.1151  0.0987 -0.4348
14131DDP     P284783   1.139  24.258   6.887  0.1900 -0.0312  0.0217
14131DDP     C284784   0.742  23.944   7.115 -0.2131 -0.2212 -0.4383
14131DDP     C384785   1.013  23.837   5.703  0.0115 -0.1624 -0.2306
14131DDP     C484786   1.785  24.013   6.473 -0.0923  0.3312 -0.0721
14132DDP     C184787   8.783  19.980  25.607 -0.3312  0.1305 -0.2534
14132DDP     P184788   9.239  19.875  25.482  0.2037 -0.0416  0.1145
14132DDP     P284789   8.314  19.865  25.362  0.3165  0.0413  0.1801
14132DDP     C284790   7.947  20.200  25.133  0.2503 -0.0859 -0.1512
14132DDP     C384791   9.581  19.791  25.284  0.2037  0.1827 -0.0976
14132DDP     C484792   8.747  20.272  26.030  0.1659  0.1909  0.0640
14133DDP     C184793  10.783  22.985  21.551 -0.1308  0.0973 -0.3454
14133DDP     P184794  11.180  23.278  21.753  0.3616 -0.2021  0.1424
14133DDP     P284795  10.568  22.560  21.343 -0.0574 -0.2353  0.1040
14133DDP     C284796  10.303  22.194  21.142  0.0298  0.2491 -0.1542
14133DDP     C384797  11.302  22.908  22.082 -0.1028  0.1334 -0.1161
14133DDP     C484798  10.312  23.088  21.530 -0.2002  0.3390  0.3575
14134DDP     C184799   1.215  16.006  16.733 -0.0376  0.0070  0.1257
14134DDP     P184800   0.854  15.919  17.043 -0.2018 -0.1375  0.2757
14134DDP     P284801   1.448  16.088  16.340 -0.4294  0.0531 -0.3405
14134DDP     C284802   1.629  16.466  16.180 -0.0141  0.2150 -0.3594
14134DDP     C384803   0.506  15.704  17.092  0.3838  0.0621  0.2382
14134DDP     C484804   1.483  15.903  17.043 -0.0650 -0.2979  0.1080
14135DDP     C184805  22.720   3.992  20.356 -0.1438 -0.1026 -0.0042
14135DDP     P184806  23.052   4.210  20.387 -0.0263 -0.1620 -0.1883
14135DDP     P284807  22.622   3.900  20.861 -0.0817 -0.0033  0.2018
14135DDP     C284808  22.601   3.554  21.192  0.2177 -0.1731  0.3291
14135DDP     C384809  23.459   4.440  20.469 -0.1193  0.2715 -0.2435
14135DDP     C484810  22.364   3.836  20.001 -0.2018 -0.5000 -0.0892
14136DDP     C184811   5.328   5.078  25.751 -0.3388 -0.0738  0.3181
14136DDP     P184812   5.405   5.075  25.245  0.0854  0.0720  0.1174
14136DDP     P284813   5.025   5.430  25.720 -0.1429 -0.2009 -0.0910
14136DDP     C284814   4.967   5.768  26.024  0.0578 -0.1042 -0.0524
14136DDP     C384815   5.479   4.757  24.867 -0.0852  0.0517 -0.1732
14136DDP     C484816   5.592   4.947  26.042  0.1056 -0.0155 -0.2086
14137DDP     C184817  22.658   7.537  13.554  0.1223 -0.0915  0.6393
14137DDP     P184818  22.563   8.023  13.671 -0.0853  0.3295 -0.0426
14137DDP     P284819  22.444   7.615  13.174 -0.1118  0.1387 -0.3214
14137DDP     C284820  22.520   7.748  12.753 -0.0899  0.0414 -0.0933
14137DDP     C384821  22.782   8.255  13.841  0.0052 -0.2890  0.3797
14137DDP     C484822  22.858   7.162  13.643  0.0669  0.0596  0.1256
14138DDP     C184823  27.735  13.259   1.667 -0.2555  0.0857  0.0209
14138DDP     P184824  27.680  13.799   1.566 -0.0029 -0.0457 -0.3509
14138DDP     P284825  27.792  13.205   2.155 -0.0177  0.2162 -0.0585
14138DDP     C284826  27.946  13.382   2.518 -0.1486  0.3274  0.1467
14138DDP     C384827  27.417  14.057   1.832  0.0126  0.0742  0.0003
14138DDP     C484828  27.835  12.945   1.372  0.2094  0.1256  0.0476
14139DDP     C184829  28.388  28.113   4.346 -0.0533  0.2788 -0.0055
14139DDP     P184830  28.017  28.296   4.118  0.1692 -0.0507  0.1224
14139DDP     P284831  28.329  27.717   4.580  0.0114 -0.3900  0.1794
14139DDP     C284832  28.084  27.346   4.668  0.0572 -0.3933 -0.1793
14139DDP     C384833  27.536  28.229   4.093  0.0272 -0.0687 -0.1252
14139DDP     C484834  28.743  28.394   4.322 -0.2527  0.4129  0.0809
14140DDP     C184835  18.528  26.582  29.325  0.0102 -0.2909 -0.2497
14140DDP     P184836  18.967  26.863  29.424  0.3167  0.0718  0.1951
14140DDP     P284837  18.153  26.660  29.291  0.2314 -0.0941  0.0199
14140DDP     C284838  17.724  26.653  29.364 -0.0573  0.0374  0.0418
14140DDP     C384839  19.049  27.218  29.600  0.3109 -0.3437  0.1625
14140DDP     C484840  18.617  26.089  29.228 -0.0488 -0.1295 -0.0480
14141DDP     C184841  21.175  21.765  13.464 -0.4312 -0.3374 -0.2233
14141DDP     P184842  21.668  21.845  13.298 -0.1484  0.2299  0.1565
14141DDP     P284843  21.016  21.367  13.449 -0.2363  0.0628 -0.1029
14141DDP     C284844  20.814  20.903  13.492  0.0863  0.2981 -0.1517
14141DDP     C384845  22.003  21.616  13.042 -0.3163 -0.2743 -0.2047
14141DDP     C484846  20.864  22.020  13.638  0.2581 -0.3202  0.0809
14142DDP     C184847  23.652  10.106   3.747  0.1607 -0.3366 -0.4916
14142DDP     P184848  23.776  10.009   3.342  0.1569 -0.0154 -0.0601
14142DDP     P284849  23.973  10.009   4.138 -0.0094 -0.3170  0.2730
14142DDP     C284850  24.208  10.266   4.376 -0.2086  0.1647  0.1071
14142DDP     C384851  23.926   9.826   3.015  0.2255 -0.0860  0.0786
14142DDP     C484852  23.208  10.131   3.772  0.1518  0.0885  0.2304
14143DDP     C184853  17.982  22.802   6.804 -0.0719 -0.0874 -0.0677
14143DDP     P184854  17.776  22.868   7.336  0.0495  0.0152 -0.1960
14143DDP     P284855  18.391  22.697   6.667  0.0985 -0.0658  0.1601
14143DDP     C284856  18.680  22.276   6.560  0.1732  0.1956  0.1851
14143DDP     C384857  17.530  22.958   7.685 -0.3484 -0.0393 -0.0506
14143DDP     C484858  17.722  22.646   6.533  0.4144 -0.2658 -0.2194
14144DDP     C184859   3.701  11.153  13.440  0.0831 -0.1754  0.1645
14144DDP     P184860   3.959  11.184  13.830 -0.0590  0.1349  0.1013
14144DDP     P284861   3.952  10.959  13.157  0.2642 -0.0475 -0.3312
14144DDP     C284862   4.118  10.629  12.884  0.2627 -0.0529 -0.1134
14144DDP     C384863   4.008  11.323  14.285  0.1185  0.4362 -0.1707
14144DDP     C484864   3.452  11.373  13.339 -0.1524 -0.3200  0.0674
14145DDP     C184865  10.776   5.520  25.701  0.3390 -0.1008 -0.0688
14145DDP     P184866  10.713   5.310  26.032 -0.0611  0.0807 -0.4250
14145DDP     P284867  10.753   5.295  25.401 -0.0344 -0.2352  0.0715
14145DDP     C284868  10.645   4.788  25.182 -0.2692 -0.3589  0.5077
14145DDP     C384869  10.530   4.965  26.159 -0.1433  0.1318  0.1216
14145DDP     C484870  10.847   5.979  25.860  0.0146 -0.0287  0.4979
14146DDP     C184871  26.749  16.056  10.813  0.3003 -0.0551 -0.0375
14146DDP     P184872  26.887  15.618  10.565  0.0641  0.1030 -0.0809
14146DDP     P284873  27.049  16.338  10.900 -0.3804 -0.0249  0.0721
14146DDP     C284874  27.039  16.726  10.976 -0.0996 -0.2398  0.0294
14146DDP     C384875  26.932  15.221  10.361 -0.2959  0.2182  0.2803
14146DDP     C484876  26.356  16.129  11.029 -0.2571  0.3617 -0.2821
14147DDP     C184877  19.599  17.282   3.409  0.0572 -0.3334 -0.0736
14147DDP     P184878  19.696  17.628   3.134 -0.0945  0.0075 -0.2696
14147DDP     P284879  19.249  16.995   3.289 -0.0005 -0.1700  0.0172
14147DDP     C284880  18.953  16.812   3.147  0.2356  0.5914  0.2459
14147DDP     C384881  20.060  17.807   3.007 -0.0876  0.0482 -0.0181
14147DDP     C484882  19.840  16.995   3.639  0.1808 -0.1305  0.3049
14148DDP     C184883   7.618  10.981   0.241  0.0832 -0.3994 -0.2555
14148DDP     P184884   7.197  10.990   0.228  0.0624  0.1475  0.0624
14148DDP     P284885   7.792  11.107   0.612 -0.2564  0.2137  0.1205
14148DDP     C284886   7.720  11.485   0.745 -0.0564  0.0833 -0.3197
14148DDP     C384887   6.755  10.897  30.239 -0.0266 -0.1269  0.1950
14148DDP     C484888   7.771  11.059  30.175 -0.0030  0.1191 -0.1298
14149DDP     C184889  14.637  22.739  17.167 -0.2138 -0.0359 -0.2807
14149DDP     P184890  15.048  22.548  16.979  0.2641  0.2771 -0.0971
14149DDP     P284891  14.577  23.170  17.135 -0.1419  0.0233 -0.0139
14149DDP     C284892  14.459  23.623  17.077  0.0228  0.0684 -0.0495
14149DDP     C384893  15.123  22.302  16.620  0.3126  0.0607  0.0506
14149DDP     C484894  14.283  22.533  17.417 -0.0421 -0.1493  0.0001
14150DDP     C184895  16.832   5.831  18.792 -0.0446  0.0965  0.2583
14150DDP     P184896  17.208   5.619  18.899  0.3676 -0.1594 -0.2936
14150DDP     P284897  16.865   5.861  18.291  0.0213  0.1660 -0.2480
14150DDP     C284898  16.819   6.159  17.957  0.3521 -0.1682  0.2066
14150DDP     C384899  17.653   5.664  18.815  0.1475 -0.2371  0.0959
14150DDP     C484900  16.345   5.981  18.874 -0.0529 -0.2438 -0.0369
14151DDP     C184901  12.613   8.014   1.160  0.1185 -0.3243 -0.0564
14151DDP     P184902  12.354   8.193   1.536  0.1511 -0.1968 -0.3602
14151DDP     P284903  12.680   7.551   1.153  0.0066 -0.0461 -0.0784
14151DDP     C284904  12.492   7.197   1.198 -0.0400  0.0345 -0.0414
14151DDP     C384905  12.162   8.319   1.927  0.0429  0.0128  0.1069
14151DDP     C484906  12.843   8.220   0.819  0.0098 -0.1867  0.2173
14152DDP     C184907  25.446   7.088  16.951 -0.1683  0.0736 -0.0312
14152DDP     P184908  25.417   7.528  16.692 -0.1358  0.0716  0.0620
14152DDP     P284909  25.534   6.979  16.616  0.0975 -0.1948 -0.0194
14152DDP     C284910  25.374   6.867  16.353 -0.0938  0.4241 -0.1991
14152DDP     C384911  25.171   7.775  16.392 -0.0596 -0.1462 -0.1545
14152DDP     C484912  25.462   6.855  17.419  0.0332  0.3221  0.2237
14153DDP     C184913  30.080  17.615  14.635 -0.1183 -0.2619  0.1192
14153DDP     P184914  -0.006  17.530  15.033 -0.3376  0.2554  0.1157
14153DDP     P284915  29.600  17.818  14.619 -0.0498 -0.0147  0.1912
14153DDP     C284916  29.194  17.892  14.555 -0.0272  0.0466 -0.0561
14153DDP     C384917   0.044  17.285  15.351  0.2885  0.0055  0.1813
14153DDP     C484918  30.291  17.470  14.189  0.0292  0.1595  0.0570
14154DDP     C184919  21.999  27.338  18.661 -0.0965  0.3126  0.1470
14154DDP     P184920  21.926  26.996  18.443  0.0218 -0.1124  0.0990
14154DDP     P284921  21.921  27.735  18.588  0.2193 -0.3210  0.3341
14154DDP     C284922  22.156  28.088  18.514  0.2971  0.0486 -0.2423
14154DDP     C384923  21.914  26.568  18.482  0.1397 -0.0777 -0.2028
14154DDP     C484924  22.336  27.233  18.843  0.0146 -0.0677  0.2108
14155DDP     C184925  29.607  27.373  27.285  0.1739 -0.3851 -0.2945
14155DDP     P184926  29.550  27.626  26.852 -0.3533 -0.2072  0.0252
14155DDP     P284927  29.792  27.025  27.340  0.1305  0.1750  0.0733
14155DDP     C284928  30.148  26.766  27.320  0.0091  0.0561 -0.0881
14155DDP     C384929  29.394  27.997  26.824  0.2303  0.0284 -0.0734
14155DDP     C484930  29.730  27.690  27.617 -0.2204 -0.0072 -0.0539
14156DDP     C184931   1.839  24.676   2.518 -0.2017 -0.2785  0.0347
14156DDP     P184932   2.119  24.731   2.225 -0.5273 -0.0522  0.0283
14156DDP     P284933   1.495  24.823   2.667  0.1549 -0.0458 -0.2231
14156DDP     C284934   1.161  24.948   2.997 -0.1252  0.0402  0.3298
14156DDP     C384935   2.402  24.911   1.946  0.1290 -0.3610  0.3199
14156DDP     C484936   2.074  24.559   2.778  0.2435  0.0134 -0.2507
14157DDP     C184937  21.978  14.626   9.268 -0.0206  0.1067 -0.3230
14157DDP     P184938  21.709  14.798   8.994  0.2217  0.0665  0.1338
14157DDP     P284939  21.994  14.285   9.513  0.1008 -0.0057  0.1105
14157DDP     C284940  21.742  13.900   9.560  0.0763 -0.3066 -0.2775
14157DDP     C384941  21.418  15.071   9.160 -0.0855 -0.3029 -0.2650
14157DDP     C484942  22.452  14.617   8.975 -0.0930 -0.0404 -0.1053
14158DDP     C184943   6.191   7.287  20.679 -0.0199 -0.0208 -0.2290
14158DDP     P184944   6.347   7.460  20.264  0.2382 -0.3522 -0.0290
14158DDP     P284945   6.508   7.165  20.959  0.0398  0.2251 -0.1523
14158DDP     C284946   6.740   6.818  21.124  0.0085 -0.0598 -0.0869
14158DDP     C384947   6.181   7.581  19.796  0.0009  0.1481  0.2169
14158DDP     C484948   5.732   7.397  20.675 -0.0908  0.1386  0.1807
14159DDP     C184949  17.731  20.967  14.618  0.1546  0.1241  0.2381
14159DDP     P184950  17.652  20.677  14.803 -0.1238  0.0599 -0.0703
14159DDP     P284951  17.477  20.911  14.201  0.0346 -0.1566  0.0015
14159DDP     C284952  17.376  20.719  13.848 -0.0402 -0.2200 -0.1637
14159DDP     C384953  17.724  20.863  15.293  0.0625  0.1659 -0.2021
14159DDP     C484954  17.996  21.088  14.843  0.3450  0.4980  0.3305
14160DDP     C184955   6.024  24.308  24.544 -0.2677  0.1020 -0.0840
14160DDP     P184956   6.201  24.455  24.160  0.1134 -0.3425  0.0316
14160DDP     P284957   5.986  23.897  24.682 -0.0704 -0.4949 -0.1344
14160DDP     C284958   6.316  23.590  24.739  0.0001 -0.1620  0.5329
14160DDP     C384959   6.334  24.743  23.760  0.0704 -0.0791 -0.1343
14160DDP     C484960   5.661  24.360  24.790  0.0968  0.0820 -0.0411
14161DDP     C184961  15.185  25.414   5.061  0.0758 -0.4076  0.1040
14161DDP     P184962  14.969  25.418   5.435 -0.0601  0.2078 -0.0825
14161DDP     P284963  15.340  25.629   4.664  0.3579 -0.0368 -0.1580
14161DDP     C284964  15.485  25.424   4.276 -0.2432 -0.0316 -0.2843
14161DDP     C384965  14.709  25.518   5.620 -0.2488 -0.1405  0.1793
14161DDP     C484966  15.175  24.982   5.017 -0.0316 -0.0013 -0.2577
14162DDP     C184967  19.026   9.785  21.362  0.1232 -0.2089 -0.1705
14162DDP     P184968  18.576   9.764  21.483 -0.0933 -0.2385  0.1081
14162DDP     P284969  19.221   9.441  21.572  0.1144  0.1669 -0.1235
14162DDP     C284970  19.523   9.019  21.776 -0.3385 -0.0837  0.2807
14162DDP     C384971  18.485   9.509  21.816 -0.2785  0.3115  0.1628
14162DDP     C484972  19.185   9.887  20.977  0.1061 -0.1967 -0.1810
14163DDP     C184973  22.753  14.382  18.538 -0.1525 -0.0657  0.0839
14163DDP     P184974  22.654  14.462  18.904  0.3951  0.0128 -0.1574
14163DDP     P284975  23.005  14.806  18.436 -0.0770  0.0579 -0.3340
14163DDP     C284976  23.084  15.310  18.555 -0.2857 -0.0309 -0.0460
14163DDP     C384977  22.890  14.612  19.291  0.0607 -0.1382 -0.0198
14163DDP     C484978  22.526  14.174  18.304 -0.2215 -0.0735 -0.3305
14164DDP     C184979  15.622  27.658   6.475 -0.1317 -0.0336 -0.1115
14164DDP     P184980  15.541  28.106   6.550 -0.0408  0.0309  0.2046
14164DDP     P284981  15.328  27.392   6.705 -0.0604  0.1500 -0.1614
14164DDP     C284982  15.105  27.186   6.933  0.1863  0.0907  0.0642
14164DDP     C384983  15.461  28.405   6.845 -0.0948  0.0218 -0.0157
14164DDP     C484984  15.944  27.527   6.265 -0.1399 -0.0245  0.1186
14165DDP     C184985   9.692  11.790  22.585 -0.3686  0.1377  0.0786
14165DDP     P184986  10.001  11.799  22.292 -0.0499  0.1123  0.4524
14165DDP     P284987   9.783  12.185  22.855  0.1617 -0.3553 -0.0860
14165DDP     C284988   9.915  12.669  22.756 -0.2386 -0.0206  0.1542
14165DDP     C384989  10.412  11.637  22.250 -0.0804  0.1580  0.0393
14165DDP     C484990   9.260  11.787  22.701  0.0230 -0.1356  0.0505
14166DDP     C184991  15.842   5.022  12.352 -0.0685  0.1344 -0.1675
14166DDP     P184992  16.110   5.140  12.751  0.0029 -0.0043 -0.1589
14166DDP     P284993  15.570   5.481  12.210 -0.0270 -0.1826 -0.1189
14166DDP     C284994  15.648   5.943  12.140  0.3761  0.1663  0.2578
14166DDP     C384995  16.574   5.201  12.903  0.4571  0.2201 -0.2731
14166DDP     C484996  15.946   4.744  12.118  0.0401  0.1001 -0.3191
14167DDP     C184997  19.513  22.370  18.319 -0.0511  0.0978 -0.0724
14167DDP     P184998  19.418  22.092  17.936 -0.5136  0.0178  0.0932
14167DDP     P284999  19.808  22.112  18.571  0.1321  0.4175 -0.0692
14167DDP     C285000  19.808  22.110  19.064 -0.1634  0.0149  0.0963
14167DDP     C385001  19.640  21.803  17.802 -0.3450  0.0680  0.1060
14167DDP     C485002  19.349  22.798  18.371 -0.1974 -0.2649 -0.1180
14168DDP     C185003  14.694   3.951   4.733  0.2388  0.0801  0.0465
14168DDP     P185004  14.516   3.877   5.176 -0.2837 -0.1559  0.0513
14168DDP     P285005  14.966   4.302   4.785  0.0352  0.1009 -0.0693
14168DDP     C285006  15.334   4.316   4.653 -0.0837 -0.1674 -0.1924
14168DDP     C385007  14.467   4.107   5.483  0.0775 -0.2418  0.2722
14168DDP     C485008  14.491   3.699   4.330  0.1815  0.2605  0.0266
14169DDP     C185009  21.669  20.939  15.512  0.0368 -0.2326  0.0888
14169DDP     P185010  21.250  21.066  15.598 -0.2655 -0.2110  0.1619
14169DDP     P285011  21.938  20.617  15.696 -0.0107  0.1132  0.2416
14169DDP     C285012  22.167  20.220  15.721  0.2432  0.2066  0.0208
14169DDP     C385013  20.969  21.389  15.787  0.0204 -0.0890 -0.1551
14169DDP     C485014  21.851  21.229  15.137 -0.0443 -0.1146 -0.2252
14170DDP     C185015  21.228   2.867  19.158 -0.0906  0.1296 -0.0024
14170DDP     P185016  21.250   2.366  19.154 -0.0692 -0.1974 -0.0822
14170DDP     P285017  20.878   3.078  19.230  0.0739  0.2246 -0.2804
14170DDP     C285018  20.640   3.133  19.535  0.1492 -0.0232  0.1935
14170DDP     C385019  21.276   1.940  19.478 -0.2506  0.2040 -0.2645
14170DDP     C485020  21.597   3.076  18.878  0.2891  0.0302  0.0232
14171DDP     C185021  23.062   8.712  10.336 -0.1485 -0.0380  0.2276
14171DDP     P185022  23.303   9.060  10.250 -0.3670 -0.4309 -0.2517
14171DDP     P285023  22.789   8.913  10.085  0.0165 -0.1602  0.0283
14171DDP     C285024  22.555   9.177   9.894  0.2423  0.1209 -0.0540
14171DDP     C385025  23.449   9.420  10.248 -0.1634 -0.4475  0.1692
14171DDP     C485026  23.237   8.415  10.431 -0.1671  0.1030  0.0341
14172DDP     C185027  27.504  13.253  15.081  0.2973  0.5982 -0.0619
14172DDP     P185028  27.735  13.151  15.460 -0.2058  0.4718  0.1196
14172DDP     P285029  27.732  13.216  14.644  0.0525 -0.5761 -0.1896
14172DDP     C285030  27.943  13.042  14.272  0.1810  0.3246  0.1717
14172DDP     C385031  27.978  12.924  15.710  0.0198  0.4188 -0.0596
14172DDP     C485032  27.210  13.499  15.000 -0.0096 -0.2628  0.2255
14173DDP     C185033   9.045  17.540   3.611 -0.1228  0.0379 -0.2162
14173DDP     P185034   8.979  17.529   3.144  0.1670  0.4363 -0.3934
14173DDP     P285035   8.784  17.756   3.768  0.1347  0.4451 -0.0154
14173DDP     C285036   8.340  17.739   3.974  0.1318  0.3597 -0.1362
14173DDP     C385037   9.020  17.687   2.710 -0.2524 -0.2949  0.1761
14173DDP     C485038   9.329  17.229   3.800 -0.1186 -0.0455 -0.0208
14174DDP     C185039  11.653  18.114  11.776  0.0524  0.0002 -0.0457
14174DDP     P185040  11.801  17.713  11.788 -0.1569  0.0295  0.0100
14174DDP     P285041  11.909  18.516  11.876 -0.0723  0.0247 -0.0282
14174DDP     C285042  12.199  18.766  12.129 -0.0250  0.3014  0.0335
14174DDP     C385043  12.073  17.451  11.883  0.2592  0.1679  0.1678
14174DDP     C485044  11.210  18.212  11.945  0.0137  0.0673  0.0079
14175DDP     C185045  26.428  23.470  13.738  0.1245  0.0630 -0.1842
14175DDP     P185046  26.113  23.774  13.763 -0.0688 -0.1376  0.2270
14175DDP     P285047  26.571  23.370  14.186 -0.1548 -0.3198 -0.3995
14175DDP     C285048  26.718  23.036  14.508 -0.0655 -0.2073 -0.1277
14175DDP     C385049  25.921  24.146  13.709  0.3143 -0.0766 -0.2850
14175DDP     C485050  26.510  23.290  13.412  0.2550 -0.0088  0.0189
14176DDP     C185051  11.328  11.328  22.355  0.0485  0.0563  0.0988
14176DDP     P185052  11.471  11.243  21.930  0.0275  0.1888 -0.4788
14176DDP     P285053  11.117  11.042  22.660 -0.0451 -0.0478  0.0311
14176DDP     C285054  10.931  10.652  22.651  0.2847  0.1977 -0.0263
14176DDP     C385055  11.286  11.107  21.629 -0.2832  0.0634 -0.4068
14176DDP     C485056  11.257  11.826  22.333  0.0319 -0.0373 -0.0319
14177DDP     C185057  25.393  29.958   0.984 -0.2534  0.2494 -0.2265
14177DDP     P185058  25.640  29.590   1.135 -0.1575  0.0257 -0.0225
14177DDP     P285059  25.452  30.343   1.212  0.0017  0.3927 -0.1216
14177DDP     C285060  25.708   0.314   1.399 -0.1241  0.3270 -0.1112
14177DDP     C385061  25.815  29.200   1.330  0.0829  0.2072  0.0070
14177DDP     C485062  24.965  29.974   0.799  0.1024 -0.3428  0.1073
14178DDP     C185063  19.118  11.564   0.185 -0.0425  0.0135  0.2236
14178DDP     P185064  19.096  11.203  30.253  0.2052 -0.0305  0.3728
14178DDP     P285065  18.699  11.838   0.060 -0.1514 -0.0527 -0.0105
14178DDP     C285066  18.444  11.962  30.069  0.2150 -0.1319 -0.1242
14178DDP     C385067  19.224  10.848  29.830  0.0735  0.2062 -0.0851
14178DDP     C485068  19.426  11.553   0.529 -0.1384 -0.1033 -0.1575
14179DDP     C185069  26.876  17.517  10.867 -0.0515  0.4048  0.0938
14179DDP     P185070  26.964  17.737  10.395 -0.3194 -0.0271  0.0759
14179DDP     P285071  26.622  17.073  10.808 -0.0984 -0.1757  0.2441
14179DDP     C285072  26.225  16.861  10.606 -0.0198  0.1225  0.0216
14179DDP     C385073  27.467  17.921  10.285  0.3090  0.0699 -0.1059
14179DDP     C485074  27.183  17.678  11.106  0.1198  0.0306  0.1384
14180DDP     C185075   0.782  26.225  18.686 -0.1064 -0.1139  0.1192
14180DDP     P185076   0.475  25.944  18.854 -0.1607 -0.1604  0.0026
14180DDP     P285077   0.647  26.708  18.648 -0.0767  0.1027  0.0304
14180DDP     C285078   0.366  27.030  18.514 -0.0122  0.0693 -0.0002
14180DDP     C385079   0.083  25.960  19.159 -0.1452  0.0267 -0.2869
14180DDP     C485080   1.126  26.174  18.429  0.0444 -0.0150 -0.1874
14181DDP     C185081  25.826   2.665   2.890  0.3409  0.1735  0.1498
14181DDP     P185082  25.800   2.671   2.450 -0.0085 -0.1033 -0.0497
14181DDP     P285083  25.744   3.044   3.136 -0.5431 -0.2079  0.0605
14181DDP     C285084  26.119   3.429   3.362  0.1268 -0.1873 -0.1818
14181DDP     C385085  25.945   2.594   1.965 -0.1228  0.1378  0.0687
14181DDP     C485086  26.108   2.232   3.008 -0.2060  0.2232  0.1321
14182DDP     C185087  28.929  13.673  30.210 -0.4647 -0.0438  0.0574
14182DDP     P185088  29.174  13.809   0.309 -0.2145  0.0395 -0.3548
14182DDP     P285089  29.022  13.675  29.829 -0.1551  0.1690  0.0412
14182DDP     C285090  28.819  13.778  29.382  0.1137  0.3501  0.3695
14182DDP     C385091  29.391  14.100   0.653  0.6629  0.1280 -0.1641
14182DDP     C485092  28.513  13.602  30.276 -0.1026  0.2324  0.1485
14183DDP     C185093  22.568   7.417   8.545 -0.1223 -0.1707 -0.1025
14183DDP     P185094  22.140   7.538   8.386 -0.1112  0.1421 -0.0770
14183DDP     P285095  22.573   7.006   8.757  0.0967  0.1029 -0.2296
14183DDP     C285096  22.790   6.549   8.769 -0.3843 -0.0266 -0.0234
14183DDP     C385097  21.872   7.137   8.325 -0.0281 -0.6112  0.0218
14183DDP     C485098  22.968   7.614   8.499 -0.0123 -0.0175 -0.2524
14184DDP     C185099   0.938  23.104  22.677  0.2466 -0.3631  0.1715
14184DDP     P185100   0.650  23.080  23.002  0.1601  0.2846  0.1509
14184DDP     P285101   0.748  22.903  22.328 -0.0226  0.1504 -0.0052
14184DDP     C285102   0.713  22.725  21.909  0.2928  0.0144 -0.0839
14184DDP     C385103   0.630  23.214  23.461  0.1651  0.1479  0.2504
14184DDP     C485104   1.252  23.421  22.745  0.0267  0.1009 -0.1448
14185DDP     C185105  14.977   7.829  29.022  0.1465  0.0610  0.2484
14185DDP     P185106  15.287   8.000  29.162 -0.1866  0.2450 -0.0082
14185DDP     P285107  14.687   8.052  28.839 -0.1363  0.0422 -0.0030
14185DDP     C285108  14.541   8.473  28.690 -0.0929  0.2368  0.0566
14185DDP     C385109  15.739   8.006  29.176  0.0156  0.2769  0.0280
14185DDP     C485110  14.973   7.470  29.334 -0.1377 -0.0427  0.2798
14186DDP     C185111   2.398  12.799  13.891  0.1176 -0.1503  0.1307
14186DDP     P185112   1.964  12.700  13.866  0.0842  0.1615 -0.2433
14186DDP     P285113   2.570  12.568  13.594  0.2625 -0.1655  0.0293
14186DDP     C285114   2.773  12.704  13.180  0.1703  0.2134  0.0911
14186DDP     C385115   1.595  12.450  13.668  0.0821  0.2741  0.0539
14186DDP     C485116   2.647  13.098  14.228 -0.4828  0.0012 -0.2655
14187DDP     C185117  14.047  18.163  18.158 -0.0951 -0.0889  0.0109
14187DDP     P185118  14.305  17.844  18.135 -0.1287  0.0215 -0.0245
14187DDP     P285119  14.216  18.226  18.555 -0.2726 -0.0116  0.1201
14187DDP     C285120  14.653  18.164  18.775  0.1937 -0.2395  0.0291
14187DDP     C385121  14.558  17.443  18.097 -0.0887  0.1508 -0.2356
14187DDP     C485122  13.864  18.466  18.012  0.0521 -0.1300 -0.2774
14188DDP     C185123   8.726  27.476   3.860  0.2368  0.0669 -0.0547
14188DDP     P185124   8.298  27.485   4.078 -0.1117  0.0445  0.1887
14188DDP     P285125   9.123  27.244   4.032  0.1186  0.3623  0.1559
14188DDP     C285126   9.416  27.144   3.754 -0.0449  0.0561  0.1310
14188DDP     C385127   8.211  27.301   4.405  0.1806  0.0730 -0.1817
14188DDP     C485128   8.738  27.698   3.435  0.0430  0.0749 -0.1011
14189DDP     C185129  24.254  28.029  10.056  0.1649 -0.0364 -0.4047
14189DDP     P185130  24.767  28.030  10.257 -0.0144  0.0854  0.1801
14189DDP     P285131  24.283  27.790   9.579  0.2257  0.3247  0.1059
14189DDP     C285132  24.251  27.618   9.187  0.2815  0.2188  0.1406
14189DDP     C385133  25.100  28.403  10.189 -0.0118 -0.3081 -0.2975
14189DDP     C485134  23.940  28.329  10.062 -0.0880 -0.2378 -0.2246
14190DDP     C185135   9.338  11.323  18.921  0.1453  0.1631  0.1207
14190DDP     P185136   9.733  11.130  18.878 -0.1903  0.1516  0.3051
14190DDP     P285137   9.320  11.629  19.170  0.1308 -0.1736  0.0804
14190DDP     C285138   9.295  11.800  19.539  0.0957 -0.3062 -0.1168
14190DDP     C385139  10.093  10.919  18.745 -0.3273  0.1004  0.2344
14190DDP     C485140   9.164  11.189  18.563  0.2171  0.0574  0.4018
14191DDP     C185141   0.740   7.386   6.531 -0.2186  0.0387  0.1365
14191DDP     P185142   1.057   7.683   6.620 -0.3054  0.2013  0.1237
14191DDP     P285143   0.435   7.141   6.257 -0.1531 -0.0162  0.3350
14191DDP     C285144   0.188   7.170   5.861 -0.0589  0.0194  0.0099
14191DDP     C385145   1.231   8.129   6.759 -0.1135  0.0714  0.2761
14191DDP     C485146   0.873   7.221   6.942  0.1785 -0.0592 -0.1818
14192DDP     C185147   2.553  26.886  11.675 -0.0385 -0.2981 -0.0742
14192DDP     P185148   2.440  26.624  11.460 -0.0032  0.0384 -0.2129
14192DDP     P285149   2.784  27.140  11.578  0.2849  0.3221 -0.2257
14192DDP     C285150   2.936  27.453  11.512  0.0422  0.0070 -0.0683
14192DDP     C385151   2.445  26.155  11.365  0.1057 -0.1047  0.0847
14192DDP     C485152   2.205  26.992  12.017 -0.1359  0.0602 -0.0537
14193DDP     C185153  26.196  24.360  15.607 -0.1532  0.1525 -0.0342
14193DDP     P185154  26.309  24.415  15.175  0.0124  0.1862 -0.1219
14193DDP     P285155  25.836  24.463  15.803 -0.2293 -0.0220 -0.0554
14193DDP     C285156  25.382  24.462  15.895  0.2298 -0.2854 -0.0871
14193DDP     C385157  26.373  24.891  15.099 -0.4279  0.3633 -0.0990
14193DDP     C485158  26.475  24.355  15.907  0.1378  0.3360  0.1439
14194DDP     C185159  28.018  20.064  19.325  0.0548  0.1162  0.2318
14194DDP     P185160  27.809  20.371  19.457  0.0091  0.1496 -0.1170
14194DDP     P285161  28.355  19.768  19.403  0.0435  0.1171 -0.1599
14194DDP     C285162  28.606  19.522  19.597 -0.0236  0.4027 -0.0627
14194DDP     C385163  27.347  20.467  19.513  0.0518  0.1728  0.1424
14194DDP     C485164  28.091  19.877  18.948 -0.2501  0.1444 -0.2078
14195DDP     C185165  29.476  25.991   4.841 -0.0629  0.1829 -0.1099
14195DDP     P185166  29.027  25.954   4.734  0.1695 -0.1075  0.0508
14195DDP     P285167  29.527  26.210   5.213  0.1895 -0.0261 -0.1336
14195DDP     C285168  29.470  26.258   5.638 -0.2731  0.1309 -0.4143
14195DDP     C385169  28.831  26.004   4.378  0.1890 -0.1014  0.1009
14195DDP     C485170  29.795  25.950   4.441 -0.0356  0.1875  0.1191
14196DDP     C185171   3.976  16.098  19.539  0.0354 -0.1186  0.0146
14196DDP     P185172   3.983  15.792  19.887 -0.1936 -0.3030  0.1285
14196DDP     P285173   3.858  15.780  19.299  0.0041  0.0146  0.2612
14196DDP     C285174   3.661  15.813  18.862 -0.2782 -0.2680  0.2453
14196DDP     C385175   3.956  15.357  19.610 -0.2349 -0.0543  0.4406
14196DDP     C485176   4.256  16.444  19.572 -0.2135  0.0423 -0.2251
14197DDP     C185177  21.993  11.837  27.642 -0.1061 -0.2512 -0.0250
14197DDP     P185178  21.730  12.092  27.969 -0.0994 -0.2543 -0.2852
14197DDP     P285179  21.913  11.864  27.142  0.0841 -0.2506  0.1335
14197DDP     C285180  21.883  11.400  26.850 -0.0379  0.0544 -0.3788
14197DDP     C385181  21.499  12.300  28.265 -0.0146  0.0307 -0.0474
14197DDP     C485182  22.186  11.547  27.716  0.0131 -0.2676  0.1646
14198DDP     C185183   8.770  12.190   4.346 -0.1378  0.2458  0.0133
14198DDP     P185184   8.445  11.965   4.004 -0.0484 -0.1645  0.2794
14198DDP     P285185   9.152  12.120   4.360  0.0509 -0.0074  0.3462
14198DDP     C285186   9.548  11.905   4.194 -0.2318  0.1364 -0.3054
14198DDP     C385187   8.366  11.614   3.722 -0.2662 -0.3584 -0.0583
14198DDP     C485188   8.562  12.482   4.442 -0.3630  0.1398  0.1380
14199DDP     C185189  20.271   3.291  28.359 -0.0239 -0.0241  0.1487
14199DDP     P185190  20.740   3.185  28.377 -0.1733  0.1557  0.1639
14199DDP     P285191  20.073   3.429  28.681 -0.0343 -0.2964  0.0032
14199DDP     C285192  19.955   3.775  28.827  0.2773  0.0357  0.1414
14199DDP     C385193  21.120   3.303  28.604  0.0105 -0.0028  0.1685
14199DDP     C485194  20.071   3.306  28.026 -0.0458  0.0259 -0.1362
14200DDP     C185195  13.502  10.255  12.155  0.0731  0.0593 -0.0911
14200DDP     P185196  13.251   9.907  12.158 -0.2954 -0.1517  0.0125
14200DDP     P285197  13.540  10.548  12.517 -0.1613 -0.1453  0.3439
14200DDP     C285198  13.554  10.701  12.962  0.1302 -0.1332  0.2334
14200DDP     C385199  13.190   9.556  11.970  0.2336 -0.1110  0.0007
14200DDP     C485200  13.745  10.349  11.823 -0.2493 -0.1172  0.2282
14201DDP     C185201   3.521  11.478   9.701 -0.2438  0.2207 -0.2729
14201DDP     P185202   3.803  11.576   9.963 -0.0133 -0.0004  0.0382
14201DDP     P285203   3.332  11.111   9.782  0.1133 -0.0327 -0.1317
14201DDP     C285204   3.007  10.952  10.011  0.0608  0.0033  0.0423
14201DDP     C385205   3.792  11.862  10.294  0.2759  0.0596  0.1180
14201DDP     C485206   3.426  11.816   9.365  0.0745  0.3209  0.2761
14202DDP     C185207  21.201  29.825   5.921  0.2487 -0.0109  0.1630
14202DDP     P185208  21.100  29.490   6.133  0.1179 -0.0845  0.1428
14202DDP     P285209  20.940  30.280   6.190  0.2589  0.0920 -0.0189
14202DDP     C285210  20.582   0.326   6.332 -0.0614  0.3012  0.2056
14202DDP     C385211  20.754  29.190   6.193 -0.0104 -0.3272  0.0979
14202DDP     C485212  21.244  29.577   5.548  0.0347  0.0094 -0.2074
14203DDP     C185213   6.090  29.899  25.790  0.3817  0.0234 -0.2149
14203DDP     P185214   6.015  30.194  25.489  0.2840 -0.2491  0.1325
14203DDP     P285215   5.804  29.600  25.622 -0.2640 -0.0347 -0.1979
14203DDP     C285216   5.585  29.108  25.611  0.2195  0.0392  0.2488
14203DDP     C385217   5.882   0.094  25.142  0.1332  0.1397 -0.4190
14203DDP     C485218   6.440  29.945  26.057  0.0737  0.0821 -0.0997
14204DDP     C185219  23.461  20.056  21.275  0.2639 -0.0307 -0.0730
14204DDP     P185220  23.773  19.634  21.235  0.0380 -0.3360  0.0387
14204DDP     P285221  23.363  20.171  21.724 -0.1435 -0.3005  0.0503
14204DDP     C285222  23.093  19.987  21.976 -0.2144 -0.2033 -0.2640
14204DDP     C385223  24.184  19.480  21.268  0.2322 -0.1924 -0.0246
14204DDP     C485224  23.425  20.226  20.951 -0.2416  0.2504  0.0808
14205DDP     C185225  16.912  26.052   4.110 -0.0643 -0.0465  0.1235
14205DDP     P185226  16.931  26.502   4.071 -0.2819 -0.0881  0.1662
14205DDP     P285227  16.756  25.869   3.688  0.0006  0.2873  0.1698
14205DDP     C285228  16.951  25.630   3.337 -0.2057  0.2008  0.2683
14205DDP     C385229  16.883  26.944   3.923 -0.0476 -0.0439 -0.0525
14205DDP     C485230  16.799  25.885   4.589 -0.1058 -0.1218  0.0905
14206DDP     C185231   0.175  25.070  18.782  0.1011 -0.3432 -0.2062
14206DDP     P185232   0.241  24.609  18.694  0.0819 -0.0934  0.2214
14206DDP     P285233  30.070  25.220  18.602 -0.1987 -0.0364  0.0129
14206DDP     C285234  29.919  25.052  18.129  0.1468 -0.1589  0.0811
14206DDP     C385235   0.342  24.197  18.661  0.2777 -0.2410  0.1876
14206DDP     C485236   0.615  25.397  18.681 -0.0109 -0.1099 -0.2274
14207DDP     C185237   1.917  28.935   0.653  0.4425  0.1984 -0.2438
14207DDP     P185238   2.143  29.216   0.307 -0.1093  0.0524  0.1028
14207DDP     P285239   1.933  29.137   1.120  0.0048  0.0198  0.2553
14207DDP     C285240   2.143  29.547   1.366  0.1089 -0.1056 -0.1264
14207DDP     C385241   2.341  29.297  30.181  0.0300  0.1191  0.0864
14207DDP     C485242   1.668  28.709   0.371  0.0927  0.1087 -0.0428
14208DDP     C185243  22.392   3.645  29.975  0.4665  0.0535 -0.4870
14208DDP     P185244  21.934   3.756  29.929 -0.0038  0.3539  0.0111
14208DDP     P285245  22.552   3.847   0.099  0.0362  0.1996 -0.1980
14208DDP     C285246  22.516   3.935   0.594 -0.1020 -0.1306 -0.1465
14208DDP     C385247  21.565   4.002  29.921 -0.1455  0.1648  0.0341
14208DDP     C485248  22.867   3.538  29.612 -0.1274 -0.0440  0.0387
14209DDP     C185249  23.200   7.511  25.440  0.0847  0.0487 -0.3401
14209DDP     P185250  23.035   7.200  25.716  0.1509  0.1483  0.2363
14209DDP     P285251  23.003   7.796  25.194  0.1263 -0.1679  0.0390
14209DDP     C285252  22.610   7.753  24.880  0.2088 -0.1938 -0.0649
14209DDP     C385253  23.172   6.825  25.924  0.2402 -0.4552 -0.0364
14209DDP     C485254  23.574   7.442  25.260 -0.0252  0.1503 -0.0714
14210DDP     C185255   8.104   1.164  17.347  0.0888  0.2258 -0.0443
14210DDP     P185256   7.674   1.217  17.087 -0.1726 -0.1537 -0.2104
14210DDP     P285257   8.383   1.591  17.317 -0.1920  0.4895 -0.0365
14210DDP     C285258   8.576   1.959  17.452  0.0917  0.1546  0.2086
14210DDP     C385259   7.371   0.965  16.810  0.0782 -0.0084  0.1059
14210DDP     C485260   8.253   0.802  17.574  0.0472 -0.0582  0.1917
14211DDP     C185261  22.194  14.896  14.477 -0.0019 -0.0023  0.2232
14211DDP     P185262  22.584  14.608  14.331 -0.1475  0.0416 -0.0768
14211DDP     P285263  21.760  14.906  14.685  0.1049  0.1705  0.0284
14211DDP     C285264  21.300  14.901  14.739  0.3123  0.2210 -0.1010
14211DDP     C385265  22.775  14.254  14.244 -0.0135 -0.0199  0.1385
14211DDP     C485266  22.200  15.258  14.307  0.2090  0.3877 -0.1872
14212DDP     C185267   7.801   3.645  25.691 -0.1754  0.1916 -0.1200
14212DDP     P185268   7.470   3.526  25.858 -0.2070  0.1628  0.1215
14212DDP     P285269   7.935   3.931  25.448  0.0182 -0.0815 -0.0350
14212DDP     C285270   7.759   4.155  25.062  0.2232 -0.2470 -0.0772
14212DDP     C385271   7.082   3.667  26.091  0.0236 -0.2467  0.3090
14212DDP     C485272   8.241   3.599  25.865 -0.0813  0.1549 -0.0050
14213DDP     C185273  17.422  27.942  27.349 -0.0519  0.1277  0.0146
14213DDP     P185274  16.999  27.983  27.169  0.1068  0.0754 -0.1302
14213DDP     P285275  17.278  28.143  27.747 -0.1309 -0.1415 -0.1740
14213DDP     C285276  17.049  28.305  28.137  0.3418  0.1552  0.2107
14213DDP     C385277  16.615  28.275  27.151  0.0446  0.3117 -0.2369
14213DDP     C485278  17.884  27.949  27.314 -0.0079 -0.0025 -0.2531
14214DDP     C185279  19.674  12.749   0.733  0.1607  0.0251 -0.1330
14214DDP     P185280  19.731  13.068   0.817 -0.3636  0.1078 -0.3299
14214DDP     P285281  19.567  12.632   1.110  0.1170  0.1974  0.1978
14214DDP     C285282  19.636  12.647   1.516 -0.2411 -0.2069 -0.0609
14214DDP     C385283  19.548  13.554   0.756 -0.0879 -0.0007  0.1615
14214DDP     C485284  19.655  12.478   0.469 -0.1857 -0.0330  0.0024
14215DDP     C185285  11.951   8.963   5.301 -0.0859  0.0849 -0.2744
14215DDP     P185286  12.258   9.165   5.193  0.1171  0.2723 -0.5166
14215DDP     P285287  11.754   9.113   4.908 -0.3088 -0.0775  0.1652
14215DDP     C285288  11.478   8.952   4.439 -0.2401 -0.1548  0.0670
14215DDP     C385289  12.448   9.475   5.432  0.0858 -0.0546  0.0068
14215DDP     C485290  11.742   8.681   5.554  0.1049  0.1013 -0.3129
14216DDP     C185291  22.213  14.297  18.792  0.0575  0.3678  0.1049
14216DDP     P185292  22.127  14.535  18.467 -0.1714  0.1084 -0.0897
14216DDP     P285293  21.965  14.380  19.122  0.0288  0.1162  0.1044
14216DDP     C285294  21.660  14.455  19.379  0.1881 -0.1375 -0.1937
14216DDP     C385295  22.078  15.073  18.393 -0.0706  0.1612 -0.1194
14216DDP     C485296  22.421  13.924  18.792 -0.0372 -0.0538 -0.1252
14217DDP     C185297  28.133   7.183   7.844  0.2064  0.0363  0.0192
14217DDP     P185298  27.899   7.511   7.787  0.3264  0.1466  0.1826
14217DDP     P285299  28.445   7.053   8.176 -0.0366 -0.2029  0.2498
14217DDP     C285300  28.688   6.822   8.453 -0.1437  0.0174 -0.0409
14217DDP     C385301  27.742   7.785   7.938 -0.0030  0.2420  0.0865
14217DDP     C485302  28.252   6.945   7.429  0.0095  0.0809  0.0316
14218DDP     C185303   2.229  22.193  14.340 -0.0897  0.1330  0.0827
14218DDP     P185304   2.648  22.111  14.263 -0.1759  0.2179 -0.2896
14218DDP     P285305   2.016  22.243  13.937  0.0990 -0.3660 -0.0645
14218DDP     C285306   1.979  22.631  13.677  0.2950  0.1121  0.2463
14218DDP     C385307   2.812  21.750  14.116 -0.2417 -0.0295  0.1859
14218DDP     C485308   2.041  22.124  14.798  0.1156 -0.1758 -0.0996
14219DDP     C185309  29.592  17.723  13.870  0.1852 -0.0699  0.2087
14219DDP     P185310  29.700  17.251  13.905 -0.0796  0.0987 -0.0566
14219DDP     P285311  29.959  17.841  14.174 -0.1506 -0.1157 -0.0406
14219DDP     C285312  30.046  18.361  14.271  0.2174  0.1884  0.2841
14219DDP     C385313  29.369  16.936  13.943  0.0601  0.1270 -0.0284
14219DDP     C485314  29.408  17.992  13.553 -0.2243 -0.0290 -0.1490
14220DDP     C185315  16.643  17.039  25.570  0.2070  0.2351  0.1980
14220DDP     P185316  16.277  16.806  25.840  0.1029  0.1704 -0.0527
14220DDP     P285317  16.484  17.423  25.393  0.4486 -0.0540  0.1981
14220DDP     C285318  16.752  17.759  25.298 -0.3826 -0.0821  0.0862
14220DDP     C385319  16.210  16.895  26.322 -0.0037  0.3324  0.2091
14220DDP     C485320  17.040  16.922  25.356 -0.0781 -0.3220  0.1460
14221DDP     C185321  23.894  17.823  13.656 -0.0063 -0.1670 -0.0437
14221DDP     P185322  23.737  18.153  13.284  0.0210  0.1514 -0.2400
14221DDP     P285323  24.301  17.835  13.459 -0.1199 -0.1866  0.0508
14221DDP     C285324  24.769  17.750  13.601 -0.1068  0.1691  0.1807
14221DDP     C385325  23.492  18.251  12.976  0.0428  0.3068  0.0941
14221DDP     C485326  23.836  17.868  14.052  0.1171 -0.0069 -0.0946
14222DDP     C185327  15.395  21.764   4.105 -0.0142 -0.0325 -0.1044
14222DDP     P185328  15.430  21.600   4.533  0.0624  0.1398 -0.0452
14222DDP     P285329  15.472  22.125   4.017  0.1003 -0.0916  0.1193
14222DDP     C285330  15.460  22.164   3.615  0.1276 -0.0725  0.0204
14222DDP     C385331  15.066  21.620   4.766 -0.0612  0.1096  0.0682
14222DDP     C485332  15.008  21.807   3.904 -0.0326 -0.0738  0.0117
14223DDP     C185333   7.593   3.384  19.869  0.4431  0.0963 -0.2915
14223DDP     P185334   8.019   3.533  20.038  0.1675 -0.1101  0.0131
14223DDP     P285335   7.215   3.429  20.208  0.2732 -0.1486  0.1152
14223DDP     C285336   6.859   3.226  20.181 -0.1726 -0.3957  0.2724
14223DDP     C385337   8.326   3.845  19.751 -0.2198 -0.0352 -0.2076
14223DDP     C485338   7.357   3.359  19.469  0.1681 -0.2795 -0.0448
14224DDP     C185339  10.686  28.791   1.763 -0.0248  0.1260  0.0516
14224DDP     P185340  10.325  28.790   2.053 -0.1036 -0.0375  0.4560
14224DDP     P285341  11.090  28.748   1.813  0.1551  0.3221  0.0161
14224DDP     C285342  11.477  28.556   1.792 -0.1438 -0.0390 -0.1432
14224DDP     C385343  10.175  29.081   2.290  0.0799 -0.0255  0.1772
14224DDP     C485344  10.504  28.822   1.370  0.1122 -0.1975  0.1216
14225DDP     C185345   8.855   5.842  24.936  0.4499  0.1340 -0.0404
14225DDP     P185346   8.662   6.149  25.210  0.2904 -0.0520 -0.0367
14225DDP     P285347   8.593   5.674  24.547 -0.0265 -0.1825  0.1274
14225DDP     C285348   8.944   5.469  24.245  0.0527 -0.1169  0.0039
14225DDP     C385349   8.795   6.580  25.187 -0.0542  0.2790  0.0496
14225DDP     C485350   9.245   5.644  24.848  0.3774  0.3757 -0.1069
14226DDP     C185351   1.757  16.403  10.780  0.1389 -0.0215 -0.0764
14226DDP     P185352   1.953  16.120  11.000  0.1445  0.0776 -0.1474
14226DDP     P285353   1.642  16.756  11.055  0.3020  0.0149 -0.3131
14226DDP     C285354   1.224  16.748  11.282  0.0445  0.2169  0.0713
14226DDP     C385355   1.996  15.675  11.153 -0.0249 -0.1479 -0.1606
14226DDP     C485356   1.750  16.336  10.326 -0.1352  0.1908 -0.1068
14227DDP     C185357  16.284  24.292   1.951 -0.1822 -0.2225 -0.3505
14227DDP     P185358  16.250  23.894   2.030  0.0790 -0.0304 -0.0516
14227DDP     P285359  16.493  24.441   2.341 -0.3694 -0.0351  0.2784
14227DDP     C285360  16.680  24.789   2.417 -0.0376 -0.2125  0.0095
14227DDP     C385361  16.446  23.525   2.110 -0.0772 -0.0732 -0.2994
14227DDP     C485362  16.277  24.398   1.544 -0.0398  0.1236  0.0008
14228DDP     C185363   5.796   3.302  24.049  0.1087  0.1228  0.0357
14228DDP     P185364   5.556   3.005  24.269 -0.3055  0.1957 -0.1268
14228DDP     P285365   5.751   3.747  24.192 -0.1808 -0.0930 -0.0293
14228DDP     C285366   5.675   4.031  23.924  0.3650 -0.2285  0.0437
14228DDP     C385367   5.195   2.839  24.515  0.2487 -0.2207  0.0792
14228DDP     C485368   5.479   3.247  23.770 -0.1706  0.1026 -0.0183
14229DDP     C185369  24.327  25.486   6.493 -0.0855  0.0865  0.2054
14229DDP     P185370  24.196  25.812   6.394 -0.0940  0.0658  0.0228
14229DDP     P285371  24.278  25.311   6.098  0.0201  0.1480 -0.2162
14229DDP     C285372  24.070  25.019   5.872 -0.2816 -0.2916  0.1515
14229DDP     C385373  24.105  26.191   6.583  0.4216 -0.3948  0.1326
14229DDP     C485374  24.387  25.204   6.832  0.0125 -0.0406 -0.0108
14230DDP     C185375   2.544   3.124   0.764  0.0985 -0.3255  0.3421
14230DDP     P185376   2.425   2.989   1.201 -0.0082  0.1647  0.1551
14230DDP     P285377   2.244   3.439   0.552 -0.1815  0.1939 -0.2978
14230DDP     C285378   1.703   3.493   0.480 -0.0311 -0.1386  0.0644
14230DDP     C385379   2.585   2.980   1.603 -0.2290  0.2131 -0.2002
14230DDP     C485380   2.860   2.867   0.764 -0.2106  0.2321  0.1163
14231DDP     C185381  22.685   0.078  10.419 -0.4570 -0.3891 -0.1986
14231DDP     P185382  22.385   0.070  10.776  0.0269 -0.0428  0.3223
14231DDP     P285383  22.523  30.254  10.113 -0.1671 -0.1606  0.0156
14231DDP     C285384  22.631  30.222   9.746 -0.0789  0.0668 -0.3239
14231DDP     C385385  21.991   0.191  11.120 -0.3793  0.1938 -0.1943
14231DDP     C485386  23.039   0.373  10.355  0.0684 -0.2472  0.0538
14232DDP     C185387  28.741  22.694   9.894  0.2589  0.0647  0.1781
14232DDP     P185388  28.684  22.666   9.483 -0.0242 -0.2031 -0.0721
14232DDP     P285389  29.190  22.900   9.956 -0.1633 -0.0980  0.1033
14232DDP     C285390  29.581  22.845   9.842 -0.1284 -0.6301 -0.1559
14232DDP     C385391  28.326  22.647   9.223  0.0306  0.2319  0.2305
14232DDP     C485392  28.446  22.603  10.206 -0.1331  0.0085 -0.0578
14233DDP     C185393  14.391  13.442  25.643  0.3302  0.2246 -0.0708
14233DDP     P185394  14.425  13.815  26.052 -0.0087  0.0921 -0.1366
14233DDP     P285395  14.735  13.090  25.568 -0.1115 -0.0563 -0.1883
14233DDP     C285396  14.683  12.578  25.648  0.2278  0.1855  0.0801
14233DDP     C385397  14.712  14.072  26.193 -0.1507  0.1270  0.1796
14233DDP     C485398  13.995  13.350  25.525 -0.2998 -0.0789  0.0422
14234DDP     C185399   2.144   5.977   0.937 -0.0923  0.0144 -0.0073
14234DDP     P185400   2.136   5.974   1.412 -0.2147 -0.0730  0.0065
14234DDP     P285401   2.505   5.869   0.613 -0.1721 -0.1735 -0.0834
14234DDP     C285402   2.500   5.655   0.188  0.3498 -0.0006 -0.0566
14234DDP     C385403   2.542   5.973   1.683 -0.0306 -0.2285  0.0317
14234DDP     C485404   1.818   6.165   0.767  0.2972 -0.1966 -0.0907
14235DDP     C185405   8.223  28.645   7.218  0.4496 -0.0490  0.0143
14235DDP     P185406   8.194  28.860   6.753 -0.1326  0.3870 -0.1494
14235DDP     P285407   8.066  28.267   7.458 -0.0904 -0.0134  0.4377
14235DDP     C285408   8.083  27.845   7.425  0.2496 -0.4062  0.0254
14235DDP     C385409   7.825  28.907   6.489  0.2480 -0.1403 -0.2895
14235DDP     C485410   8.634  28.778   7.418 -0.1635  0.0491 -0.3554
14236DDP     C185411   9.349   7.173  24.035 -0.0552 -0.0120  0.1281
14236DDP     P185412   8.969   7.059  23.726  0.2347  0.0917 -0.0751
14236DDP     P285413   9.630   6.842  24.206 -0.2027 -0.0515  0.1172
14236DDP     C285414   9.648   6.384  24.019  0.0841 -0.0665 -0.1458
14236DDP     C385415   8.528   7.148  23.530  0.1398  0.0805  0.0502
14236DDP     C485416   9.396   7.609  23.955 -0.1600 -0.1167  0.1522
14237DDP     C185417  29.061   7.702   5.863  0.1963 -0.0616 -0.1619
14237DDP     P185418  28.786   7.477   5.994 -0.1595  0.0660  0.3112
14237DDP     P285419  29.006   7.892   5.503 -0.1285 -0.0811  0.0749
14237DDP     C285420  28.917   8.034   5.104  0.0112  0.2270  0.1041
14237DDP     C385421  28.344   7.345   6.060 -0.2775 -0.2345  0.0064
14237DDP     C485422  29.115   7.878   6.320 -0.0486  0.0448  0.1574
14238DDP     C185423  23.005  25.473  10.017  0.1817  0.1282  0.1419
14238DDP     P185424  23.190  25.221  10.320 -0.0256 -0.0922 -0.3272
14238DDP     P285425  22.556  25.752  10.113  0.0046 -0.0821  0.2303
14238DDP     C285426  22.339  26.090   9.859  0.0841  0.1857 -0.2237
14238DDP     C385427  23.568  24.911  10.393 -0.1094  0.1941  0.3468
14238DDP     C485428  23.198  25.501   9.601  0.0698 -0.3311  0.6723
14239DDP     C185429  21.119   3.585  12.422 -0.1039  0.0579 -0.1414
14239DDP     P185430  21.199   3.900  12.078 -0.1392  0.0023  0.1024
14239DDP     P285431  20.853   3.511  12.607  0.0493 -0.1329  0.2452
14239DDP     C285432  20.339   3.541  12.689  0.0241 -0.1713 -0.0823
14239DDP     C385433  21.302   3.886  11.748 -0.2455 -0.0461  0.0192
14239DDP     C485434  21.233   3.715  12.786 -0.1832 -0.1714 -0.0624
14240DDP     C185435   1.613  25.510   0.866 -0.2293  0.0364 -0.0401
14240DDP     P185436   1.641  25.570   1.288  0.1839  0.2266 -0.2622
14240DDP     P285437   1.501  25.129   0.805 -0.0731  0.0161  0.1259
14240DDP     C285438   1.512  24.681   0.667  0.0638  0.2170 -0.0129
14240DDP     C385439   2.046  25.663   1.413  0.2181  0.1404 -0.4825
14240DDP     C485440   1.831  25.779   0.571  0.3299 -0.1025  0.2658
14241DDP     C185441  21.056  28.020   2.756 -0.0484  0.1363  0.0797
14241DDP     P185442  21.287  27.952   3.015  0.2415  0.1727  0.1574
14241DDP     P285443  21.007  28.059   2.326 -0.0398 -0.2136  0.1445
14241DDP     C285444  21.035  27.998   1.854 -0.0002  0.0924  0.1376
14241DDP     C385445  21.736  27.976   3.233  0.0035 -0.0889 -0.1159
14241DDP     C485446  20.809  28.284   3.003  0.0952 -0.2541 -0.2866
14242DDP     C185447  16.940   0.521  18.864 -0.2986  0.0930  0.2170
14242DDP     P185448  16.861   0.043  18.765 -0.1374  0.1279 -0.0735
14242DDP     P285449  16.831   0.585  19.347 -0.1063  0.0083  0.0363
14242DDP     C285450  16.620   0.194  19.591 -0.1781 -0.0867  0.1601
14242DDP     C385451  16.610  29.990  18.860 -0.0278  0.0201  0.2777
14242DDP     C485452  17.159   0.824  18.604 -0.2820 -0.2440 -0.1621
14243DDP     C185453   4.385  19.679  28.521 -0.0389 -0.0690 -0.0760
14243DDP     P185454   4.269  19.562  28.142  0.2099 -0.1732  0.1043
14243DDP     P285455   4.091  19.829  28.938 -0.2472 -0.0303  0.2640
14243DDP     C285456   4.126  20.104  29.386  0.0190 -0.4225 -0.0262
14243DDP     C385457   4.069  19.480  27.769  0.1163 -0.0286  0.0078
14243DDP     C485458   4.846  19.749  28.528 -0.0580  0.1467 -0.2779
14244DDP     C185459  27.575  24.283  29.051 -0.1773 -0.0860  0.2474
14244DDP     P185460  27.833  24.585  29.257  0.0591  0.0439 -0.1978
14244DDP     P285461  27.767  23.902  28.871 -0.1231  0.2449 -0.2082
14244DDP     C285462  28.121  23.569  28.814  0.1481  0.3760  0.1367
14244DDP     C385463  28.255  24.623  29.393  0.0963  0.3019 -0.0674
14244DDP     C485464  27.232  24.503  28.958  0.1723 -0.1152  0.1677
14245DDP     C185465   3.497  29.487  16.328  0.3046 -0.1155 -0.2047
14245DDP     P185466   3.290  29.219  16.546  0.0314 -0.1989 -0.3155
14245DDP     P285467   3.864  29.516  16.424  0.4722  0.3442  0.1388
14245DDP     C285468   4.275  29.484  16.452 -0.3921  0.2935  0.2440
14245DDP     C385469   3.049  28.737  16.667 -0.0487 -0.0189 -0.0489
14245DDP     C485470   3.230  29.635  15.984  0.1676 -0.3355 -0.2947
14246DDP     C185471   3.705  12.369  22.896 -0.1158 -0.0596  0.0038
14246DDP     P185472   3.449  12.035  23.085  0.0863 -0.2973 -0.2863
14246DDP     P285473   4.130  12.294  22.713  0.0397  0.0289 -0.1245
14246DDP     C285474   4.653  12.211  22.842 -0.0351 -0.1948  0.1360
14246DDP     C385475   3.017  11.904  23.266 -0.1273 -0.3881  0.2978
14246DDP     C485476   3.628  12.830  23.047  0.2189  0.3472  0.1191
14247DDP     C185477   6.928  12.505  29.283 -0.2457 -0.0717  0.0565
14247DDP     P185478   6.602  12.524  28.995 -0.0193  0.1527  0.1295
14247DDP     P285479   7.277  12.727  29.563 -0.1434 -0.0037 -0.1007
14247DDP     C285480   7.121  12.799  29.901 -0.1175  0.2155 -0.2629
14247DDP     C385481   6.285  12.703  28.875 -0.1855  0.4299 -0.0545
14247DDP     C485482   7.201  12.098  29.293  0.1180 -0.0102  0.1834
14248DDP     C185483   2.874   2.811  21.345 -0.0194  0.0927  0.1893
14248DDP     P185484   2.614   3.166  21.309  0.4606 -0.3512 -0.0650
14248DDP     P285485   3.201   2.865  21.089 -0.1615 -0.1092 -0.0324
14248DDP     C285486   3.191   2.828  20.629 -0.3427 -0.1305  0.1133
14248DDP     C385487   2.146   3.256  21.402  0.1784 -0.2730  0.3845
14248DDP     C485488   2.852   2.432  21.421  0.0992  0.0133 -0.2095
14249DDP     C185489  13.804   7.253  16.994 -0.0926 -0.0391 -0.0051
14249DDP     P185490  14.229   7.051  16.928  0.0952 -0.0891 -0.2412
14249DDP     P285491  13.409   6.976  17.012  0.0453  0.0543 -0.3465
14249DDP     C285492  13.290   6.737  16.746  0.1083 -0.3028  0.3821
14249DDP     C385493  14.713   7.114  16.979 -0.2409 -0.0427 -0.0680
14249DDP     C485494  13.738   7.733  16.794  0.0717  0.0297  0.0834
14250DDP     C185495  25.644  17.666   0.999 -0.2859 -0.2416  0.0716
14250DDP     P185496  25.957  17.334   1.166  0.1157 -0.0568 -0.1061
14250DDP     P285497  25.920  17.832   0.660 -0.0626  0.0198  0.0082
14250DDP     C285498  25.864  17.893   0.196 -0.0066 -0.0086  0.0322
14250DDP     C385499  26.084  16.954   1.418  0.2548 -0.1919  0.1000
14250DDP     C485500  25.264  17.637   1.120  0.2504 -0.1313 -0.1314
14251DDP     C185501  17.992   5.954  23.063  0.0643 -0.1367  0.1708
14251DDP     P185502  17.925   5.534  22.963  0.0169 -0.0418 -0.0613
14251DDP     P285503  17.651   6.206  22.861 -0.0127  0.0972  0.1108
14251DDP     C285504  17.710   6.514  22.453 -0.0864 -0.0811 -0.0545
14251DDP     C385505  17.507   5.295  23.096  0.0869 -0.0600 -0.2394
14251DDP     C485506  18.350   6.102  23.293 -0.4409  0.0270  0.0101
14252DDP     C185507  23.446   7.115   6.589  0.1084  0.0145 -0.3079
14252DDP     P185508  23.897   7.257   6.702  0.1667  0.0785 -0.0000
14252DDP     P285509  23.164   6.827   6.872  0.0979  0.3378  0.1095
14252DDP     C285510  22.862   6.814   7.310 -0.1035  0.1113  0.1538
14252DDP     C385511  24.292   7.309   6.611  0.0242  0.0164  0.0097
14252DDP     C485512  23.494   7.150   6.190 -0.0073 -0.0506 -0.0482
14253DDP     C185513   7.945  16.870  14.095  0.1029  0.0042  0.1895
14253DDP     P185514   7.996  16.805  13.700  0.0481  0.0596 -0.6791
14253DDP     P285515   7.701  17.061  14.286  0.3364  0.1349  0.3992
14253DDP     C285516   7.308  17.247  14.574  0.0974 -0.3343  0.1842
14253DDP     C385517   8.252  16.759  13.353  0.0413 -0.0071  0.2439
14253DDP     C485518   8.258  17.031  14.343  0.0498  0.1466 -0.2701
14254DDP     C185519   5.303  19.514   4.085 -0.0749 -0.1690  0.0272
14254DDP     P185520   5.149  19.640   3.664 -0.0002 -0.3000  0.3347
14254DDP     P285521   5.354  19.087   4.047  0.1797 -0.1989  0.2139
14254DDP     C285522   5.384  18.634   4.117  0.0248  0.1404 -0.2000
14254DDP     C385523   4.601  19.460   3.606 -0.0182 -0.0930 -0.0607
14254DDP     C485524   5.362  19.791   4.404  0.1438  0.4628  0.3070
14255DDP     C185525  25.808  11.200  12.919 -0.1950  0.1313 -0.2911
14255DDP     P185526  26.191  11.382  12.681  0.3158  0.0638 -0.1585
14255DDP     P285527  25.569  11.482  13.255  0.0755 -0.0916  0.0068
14255DDP     C285528  25.181  11.742  13.103  0.1201  0.3077  0.1654
14255DDP     C385529  26.503  11.081  12.426 -0.0926 -0.1925 -0.1318
14255DDP     C485530  25.720  10.714  12.925 -0.0346 -0.0568 -0.1067
14256DDP     C185531  30.168   9.868  23.223  0.0285 -0.1205  0.2103
14256DDP     P185532  29.905   9.501  23.303 -0.0209 -0.0693  0.1802
14256DDP     P285533   0.204   9.685  23.076 -0.0916 -0.2046  0.1111
14256DDP     C285534   0.542   9.293  23.129 -0.0805 -0.0732 -0.1196
14256DDP     C385535  29.903   9.042  23.355  0.2145  0.3456  0.0279
14256DDP     C485536  30.133  10.262  23.225 -0.1979 -0.1033 -0.0744
14257DDP     C185537   4.682  10.042   5.859 -0.3395 -0.2312  0.1576
14257DDP     P185538   4.932   9.954   6.237  0.4169 -0.0051 -0.0239
14257DDP     P285539   4.722   9.766   5.554  0.0073 -0.2772 -0.2785
14257DDP     C285540   4.693   9.583   5.252  0.1954 -0.2687 -0.2183
14257DDP     C385541   5.208   9.733   6.457 -0.3089  0.0269  0.4825
14257DDP     C485542   4.252  10.198   5.896 -0.0792  0.3044  0.0447
14258DDP     C185543  25.674   2.078  10.012  0.1703 -0.2367 -0.0491
14258DDP     P185544  25.406   2.437  10.183  0.1471  0.0007  0.0493
14258DDP     P285545  25.585   1.644  10.059 -0.2384 -0.1881  0.4196
14258DDP     C285546  25.505   1.251  10.243 -0.0818 -0.0781 -0.0511
14258DDP     C385547  24.969   2.685  10.406 -0.0124 -0.0110  0.1239
14258DDP     C485548  25.965   2.233   9.607 -0.0668  0.1757  0.2443
14259DDP     C185549  24.085   6.331   9.452 -0.3639  0.1885 -0.1734
14259DDP     P185550  23.659   6.199   9.338 -0.1739  0.0483  0.1427
14259DDP     P285551  24.126   6.783   9.458 -0.0112  0.1240 -0.0632
14259DDP     C285552  23.794   7.004   9.510  0.1641 -0.0008 -0.2699
14259DDP     C385553  23.479   6.006   8.953 -0.0260 -0.1793 -0.0092
14259DDP     C485554  24.535   6.211   9.392  0.0994 -0.0705  0.1887
14260DDP     C185555  23.351  16.428  16.688  0.1523 -0.0551  0.2115
14260DDP     P185556  23.591  16.230  16.377  0.1301  0.0249 -0.2424
14260DDP     P285557  23.589  16.584  16.820 -0.0110  0.1845  0.1941
14260DDP     C285558  23.701  16.824  17.183 -0.3518 -0.1207 -0.0391
14260DDP     C385559  23.847  15.845  16.446 -0.0133  0.3297 -0.0338
14260DDP     C485560  22.787  16.369  16.854 -0.1364  0.2110 -0.4657
14261DDP     C185561   5.259  19.854  16.363 -0.0892 -0.1270  0.3489
14261DDP     P185562   5.032  19.479  16.345 -0.3050 -0.0163 -0.0582
14261DDP     P285563   5.355  20.119  16.096 -0.0630  0.0727 -0.1107
14261DDP     C285564   5.144  20.406  15.784 -0.2548 -0.0401 -0.0927
14261DDP     C385565   4.545  19.379  16.382 -0.3035 -0.1588  0.1677
14261DDP     C485566   5.150  19.978  16.773 -0.3368 -0.0301 -0.0565
14262DDP     C185567   5.380  23.052  28.381  0.2359  0.0778 -0.2551
14262DDP     P185568   5.053  23.341  28.262 -0.0144  0.2903 -0.1892
14262DDP     P285569   5.254  23.085  28.794 -0.0743  0.0568 -0.1464
14262DDP     C285570   5.494  22.981  29.152 -0.1058  0.1918 -0.1881
14262DDP     C385571   5.195  23.768  28.133  0.0929  0.1996 -0.2308
14262DDP     C485572   5.861  23.075  28.245 -0.1830 -0.1082 -0.0900
14263DDP     C185573  13.856  23.901  23.247 -0.2703 -0.0488 -0.1939
14263DDP     P185574  13.475  24.274  23.186 -0.0103 -0.1550  0.5552
14263DDP     P285575  14.113  23.779  22.878 -0.0364 -0.1809  0.0148
14263DDP     C285576  14.352  24.124  22.879  0.2051 -0.1337  0.1709
14263DDP     C385577  13.139  24.384  23.457 -0.0291 -0.1446 -0.1904
14263DDP     C485578  13.729  23.557  23.536  0.0665  0.1391 -0.0381
14264DDP     C185579  24.991  28.951  21.034  0.4694 -0.0739 -0.0473
14264DDP     P185580  24.779  28.653  21.018  0.2350  0.1703 -0.4666
14264DDP     P285581  25.313  28.792  21.315 -0.1792 -0.1666 -0.0265
14264DDP     C285582  25.651  28.611  21.364 -0.1812  0.2063  0.1204
14264DDP     C385583  24.836  28.164  20.803  0.1587 -0.0996  0.2839
14264DDP     C485584  24.902  29.373  20.976  0.1674 -0.1127 -0.1422
14265DDP     C185585  28.715  21.725  28.052 -0.0367 -0.3094 -0.0622
14265DDP     P185586  28.238  21.524  28.048 -0.0198  0.0373 -0.0073
14265DDP     P285587  29.013  21.599  28.329 -0.4218  0.2822 -0.1048
14265DDP     C285588  29.066  21.627  28.770  0.1244  0.0234 -0.0787
14265DDP     C385589  27.794  21.293  27.999  0.1875  0.0855 -0.0322
14265DDP     C485590  28.858  22.032  27.704 -0.1491  0.1398 -0.0130
14266DDP     C185591   9.370   3.964   1.301 -0.1359 -0.1928  0.1602
14266DDP     P185592   9.452   4.228   0.950  0.1700  0.0113 -0.0505
14266DDP     P285593   9.178   4.199   1.666 -0.0039  0.3291  0.0157
14266DDP     C285594   8.821   4.552   1.733 -0.0801  0.1484  0.0251
14266DDP     C385595   9.793   4.505   0.897  0.2770  0.0995  0.0500
14266DDP     C485596   9.592   3.535   1.297 -0.0090 -0.2107 -0.1952
14267DDP     C185597  23.406   1.617  20.598 -0.1086 -0.5450  0.2579
14267DDP     P185598  23.126   2.007  20.654 -0.0065  0.0445 -0.0319
14267DDP     P285599  23.154   1.263  20.716  0.0017  0.2175  0.1015
14267DDP     C285600  22.887   0.943  20.563 -0.2218 -0.1530  0.1521
14267DDP     C385601  22.705   2.050  20.659 -0.2246  0.0356 -0.1195
14267DDP     C485602  23.737   1.665  20.358  0.1050  0.0886  0.1938
14268DDP     C185603  26.511  26.776  23.370  0.1206 -0.3556 -0.0754
14268DDP     P185604  26.218  26.621  23.136 -0.2242  0.3811 -0.3984
14268DDP     P285605  26.939  26.933  23.107 -0.2599  0.1597  0.1153
14268DDP     C285606  26.842  27.007  22.699  0.1974  0.3208 -0.0152
14268DDP     C385607  26.067  26.442  22.881  0.1497 -0.1055  0.0743
14268DDP     C485608  26.305  26.984  23.755 -0.0187  0.0360 -0.0717
14269DDP     C185609   5.747  19.407  16.429  0.1026  0.1969 -0.0087
14269DDP     P185610   5.474  19.314  16.173 -0.0560  0.0017 -0.0194
14269DDP     P285611   5.679  19.839  16.545 -0.0005 -0.1817  0.2211
14269DDP     C285612   5.997  20.144  16.676  0.2393  0.0275  0.1684
14269DDP     C385613   5.289  19.323  15.865 -0.0939  0.1744  0.2290
14269DDP     C485614   6.169  19.203  16.358  0.0542  0.1555  0.0634
14270DDP     C185615  25.350   2.338   3.700 -0.2258 -0.0680  0.1174
14270DDP     P185616  25.417   1.783   3.612  0.0930  0.0388  0.1839
14270DDP     P285617  25.737   2.610   3.857  0.0947 -0.0141  0.1996
14270DDP     C285618  26.107   2.849   3.789  0.0509 -0.2575 -0.0578
14270DDP     C385619  25.669   1.436   3.750 -0.1321 -0.1414  0.3991
14270DDP     C485620  25.051   2.395   3.429 -0.1350 -0.1921  0.0137
14271DDP     C185621   3.550  15.939  23.301  0.0590 -0.0292 -0.2304
14271DDP     P185622   3.758  15.780  23.630 -0.1325 -0.2203 -0.1668
14271DDP     P285623   3.768  15.851  22.925 -0.2593 -0.0090  0.0478
14271DDP     C285624   4.211  15.715  22.693  0.1066  0.0987 -0.3624
14271DDP     C385625   3.866  15.514  23.930  0.0270  0.2151  0.0380
14271DDP     C485626   3.295  16.354  23.326 -0.1733 -0.2580 -0.0475
14272DDP     C185627   9.128  14.034  23.265 -0.0591 -0.0817  0.0032
14272DDP     P185628   9.279  13.635  23.076 -0.1018 -0.2788 -0.0012
14272DDP     P285629   8.891  14.303  22.969 -0.1101 -0.2137  0.2966
14272DDP     C285630   8.983  14.459  22.498  0.2002  0.0608 -0.0494
14272DDP     C385631   9.174  13.258  23.064  0.0563 -0.0201  0.0123
14272DDP     C485632   9.020  13.845  23.733 -0.1267  0.0174  0.2437
14273DDP     C185633  20.758  11.503   5.161  0.0917  0.0608 -0.1449
14273DDP     P185634  20.917  11.879   4.976 -0.3292 -0.1270 -0.1906
14273DDP     P285635  20.597  11.653   5.577  0.2651  0.0169  0.1694
14273DDP     C285636  20.670  11.956   5.874 -0.4818  0.1019  0.0754
14273DDP     C385637  21.186  12.221   5.110 -0.0197 -0.0056 -0.0471
14273DDP     C485638  20.644  11.202   4.924  0.4188  0.2049  0.1590
14274DDP     C185639   0.762   9.185  18.630 -0.2562 -0.1212 -0.2908
14274DDP     P185640   0.477   9.530  18.888  0.3259  0.2116 -0.2944
14274DDP     P285641   0.524   8.828  18.618 -0.0310  0.2210  0.0834
14274DDP     C285642   0.090   8.624  18.608 -0.3621 -0.1094  0.1798
14274DDP     C385643   0.099   9.596  19.092 -0.0385 -0.0097 -0.4028
14274DDP     C485644   1.110   9.318  18.435 -0.0682 -0.2515  0.0577
14275DDP     C185645   1.055   6.665   4.111 -0.1721 -0.0116  0.2368
14275DDP     P185646   1.378   6.567   4.320 -0.1626  0.2502  0.1241
14275DDP     P285647   0.944   6.388   3.847 -0.0909 -0.0049  0.1772
14275DDP     C285648   0.477   6.448   3.535 -0.0447  0.1774 -0.0124
14275DDP     C385649   1.655   6.255   4.449 -0.0263  0.2809  0.2354
14275DDP     C485650   1.087   7.083   4.236  0.1750  0.0537 -0.0616
14276DDP     C185651   6.915   7.994   8.687 -0.0588 -0.0892 -0.2108
14276DDP     P185652   6.722   8.406   8.896  0.1431  0.0977 -0.0493
14276DDP     P285653   6.911   8.045   8.219  0.3569  0.0772 -0.0516
14276DDP     C285654   7.024   7.968   7.741 -0.1751  0.4605  0.0998
14276DDP     C385655   6.596   8.848   8.960 -0.1582 -0.0621  0.0203
14276DDP     C485656   7.194   7.880   8.985  0.0219  0.2660  0.0829
14277DDP     C185657   0.509  19.833  24.729  0.0586  0.2417  0.0181
14277DDP     P185658   0.584  19.690  24.372 -0.0543  0.0815 -0.1200
14277DDP     P285659   0.655  20.185  24.826 -0.1105  0.0041  0.3223
14277DDP     C285660   0.967  20.416  24.741 -0.0745  0.2641  0.1435
14277DDP     C385661   0.529  19.595  23.917 -0.3664  0.4235  0.0255
14277DDP     C485662   0.014  19.644  24.837 -0.2340  0.1643  0.1355
14278DDP     C185663   6.583   3.249   9.494  0.0164  0.1789  0.0708
14278DDP     P185664   6.151   3.401   9.203 -0.0447  0.0372  0.0792
14278DDP     P285665   6.920   3.632   9.336 -0.0906 -0.0910 -0.0074
14278DDP     C285666   7.156   3.933   9.458  0.0064 -0.0033 -0.0535
14278DDP     C385667   5.673   3.328   9.132  0.0756  0.1401 -0.0386
14278DDP     C485668   6.778   2.876   9.478  0.2868 -0.1182  0.0473
14279DDP     C185669  10.551   1.262   2.744 -0.1197 -0.1503  0.0186
14279DDP     P185670  10.740   1.057   3.058  0.0416 -0.0433 -0.0482
14279DDP     P285671  10.855   1.527   2.553 -0.2446  0.0421 -0.0591
14279DDP     C285672  11.198   1.481   2.308 -0.0543 -0.3648 -0.2842
14279DDP     C385673  10.614   0.709   3.323  0.2303 -0.0641  0.1684
14279DDP     C485674  10.113   1.305   2.702 -0.4081  0.4669 -0.0868
14280DDP     C185675  26.660   9.393   9.523 -0.4085  0.1631  0.1529
14280DDP     P185676  26.956   9.240   9.755  0.0715 -0.1136 -0.1798
14280DDP     P285677  26.327   9.601   9.640 -0.0313  0.2526  0.2405
14280DDP     C285678  26.331   9.910   9.967 -0.4264  0.3062 -0.1328
14280DDP     C385679  27.459   9.205   9.828  0.2475  0.1095 -0.1005
14280DDP     C485680  26.715   9.137   9.198 -0.0315  0.2723 -0.1044
14281DDP     C185681   8.591  18.740  29.061  0.0789 -0.2441 -0.0690
14281DDP     P185682   8.792  18.767  29.383  0.1477 -0.0360  0.0558
14281DDP     P285683   8.526  19.083  28.807 -0.4218 -0.0110 -0.1097
14281DDP     C285684   8.201  19.385  28.589  0.0185 -0.1290  0.1981
14281DDP     C385685   9.327  18.900  29.427 -0.1179  0.1946 -0.0050
14281DDP     C485686   8.186  18.538  29.173 -0.1682 -0.4054 -0.0163
14282DDP     C185687   6.077   4.647   5.278 -0.1673 -0.0131 -0.3367
14282DDP     P185688   6.297   4.541   5.014 -0.0451  0.0495 -0.0859
14282DDP     P285689   5.681   4.853   5.254 -0.0663  0.2815  0.1488
14282DDP     C285690   5.500   5.158   5.382  0.0966 -0.1044  0.0405
14282DDP     C385691   6.588   4.460   4.667  0.1102  0.2573  0.0193
14282DDP     C485692   6.082   4.477   5.641  0.0084  0.0471 -0.0812
14283DDP     C185693   1.444  27.459  22.088 -0.2293 -0.1505 -0.1598
14283DDP     P185694   1.908  27.543  22.068  0.3055 -0.1486 -0.1550
14283DDP     P285695   1.329  27.576  21.684  0.2057 -0.0366  0.0157
14283DDP     C285696   1.096  27.501  21.313 -0.0754 -0.2174 -0.0151
14283DDP     C385697   2.224  27.762  22.119  0.1473 -0.2741  0.2398
14283DDP     C485698   1.148  27.351  22.338 -0.0140 -0.1288 -0.8362
14284DDP     C185699  23.320  11.125   2.252 -0.0318  0.0226  0.0796
14284DDP     P185700  22.840  10.935   2.120 -0.0175  0.2201 -0.0726
14284DDP     P285701  23.303  11.133   2.707 -0.0262  0.0933  0.1831
14284DDP     C285702  23.211  11.441   3.078 -0.0911 -0.0020 -0.0723
14284DDP     C385703  22.696  10.773   1.718  0.0332  0.0990 -0.2005
14284DDP     C485704  23.724  11.035   2.105  0.1602  0.0100  0.1452
14285DDP     C185705  20.588  17.859  13.022 -0.1366  0.0930 -0.1572
14285DDP     P185706  20.324  17.537  12.846  0.1101 -0.2967  0.1508
14285DDP     P285707  20.820  17.964  12.665  0.1973  0.0305 -0.1534
14285DDP     C285708  21.182  18.179  12.507  0.0893  0.4125  0.3019
14285DDP     C385709  20.096  17.326  12.546  0.1619 -0.0627  0.0221
14285DDP     C485710  20.435  18.116  13.325 -0.0377  0.1135  0.0518
14286DDP     C185711  28.205  16.068   3.049  0.1627 -0.0828 -0.0037
14286DDP     P185712  28.142  16.131   2.588  0.0347  0.0163 -0.0695
14286DDP     P285713  27.908  15.737   3.196 -0.1232  0.1487  0.0152
14286DDP     C285714  27.866  15.253   3.337  0.1865  0.1244  0.2311
14286DDP     C385715  27.723  16.410   2.427  0.1349  0.2652  0.2674
14286DDP     C485716  28.594  16.377   3.330  0.1598  0.3290  0.1248
14287DDP     C185717  10.494  27.186   6.768 -0.0616  0.0594 -0.1964
14287DDP     P185718  10.831  27.077   6.486 -0.1424 -0.0999 -0.2198
14287DDP     P285719  10.181  26.810   7.081 -0.2759  0.0306  0.0037
14287DDP     C285720  10.056  26.509   7.532 -0.3013 -0.0901 -0.0119
14287DDP     C385721  11.050  27.205   6.184 -0.0814 -0.1167  0.0734
14287DDP     C485722  10.275  27.554   6.625 -0.2983 -0.0817  0.0701
14288DDP     C185723  28.582   4.546  15.547  0.1697  0.1734 -0.0417
14288DDP     P185724  28.971   4.363  15.374 -0.0846 -0.0992  0.0678
14288DDP     P285725  28.606   5.007  15.614  0.3944 -0.1501  0.0764
14288DDP     C285726  28.769   5.313  15.922  0.0980 -0.0290 -0.2980
14288DDP     C385727  29.322   4.582  15.560 -0.1540  0.1076  0.2459
14288DDP     C485728  28.065   4.529  15.441 -0.0284  0.0777  0.1408
14289DDP     C185729   2.626  12.457  28.738 -0.0560  0.0816  0.0993
14289DDP     P185730   2.805  12.707  29.074 -0.1261 -0.3290  0.1271
14289DDP     P285731   2.375  12.118  28.842  0.0262 -0.0843  0.1439
14289DDP     C285732   2.386  11.867  28.511 -0.0663 -0.0267  0.2298
14289DDP     C385733   2.929  12.783  29.378 -0.1714  0.2202  0.0740
14289DDP     C485734   2.753  12.528  28.376  0.2468  0.0164  0.0312
14290DDP     C185735  24.121  30.224  26.174 -0.1413  0.2543 -0.1781
14290DDP     P185736  23.831   0.041  25.842  0.0815 -0.0337  0.1213
14290DDP     P285737  23.983  29.848  25.947  0.2426  0.0201  0.1714
14290DDP     C285738  24.204  29.422  25.828  0.1036 -0.0028 -0.2437
14290DDP     C385739  23.772   0.406  25.590 -0.2866  0.4010  0.0497
14290DDP     C485740  24.230   0.083  26.498  0.0676 -0.3409  0.1416
14291DDP     C185741  21.959  23.369  10.522 -0.0654  0.1024  0.1836
14291DDP     P185742  21.945  23.314  10.959  0.3678  0.2863  0.0369
14291DDP     P285743  21.585  23.199  10.335  0.0278  0.5464 -0.2620
14291DDP     C285744  21.324  23.490  10.284 -0.3079 -0.0213 -0.0404
14291DDP     C385745  21.718  23.074  11.408  0.0770 -0.1635  0.2022
14291DDP     C485746  22.252  23.091  10.237  0.2137 -0.1580 -0.1002
14292DDP     C185747  12.568  10.115  15.013  0.0240 -0.2027  0.2308
14292DDP     P185748  12.630   9.708  15.073 -0.0395 -0.0909  0.0444
14292DDP     P285749  12.930  10.279  14.858 -0.4363 -0.1447 -0.0862
14292DDP     C285750  13.342  10.324  14.705 -0.0862  0.1174  0.0303
14292DDP     C385751  12.470   9.596  15.551 -0.0477  0.1392  0.1168
14292DDP     C485752  12.156  10.186  14.776 -0.0704  0.0033 -0.3183
14293DDP     C185753  24.422  21.352   9.416 -0.1208 -0.3817 -0.5136
14293DDP     P185754  24.436  21.551   9.829 -0.2840  0.2090 -0.1488
14293DDP     P285755  24.715  21.090   9.306 -0.0658 -0.0525 -0.0723
14293DDP     C285756  24.744  20.694   9.085  0.2383  0.1947 -0.0988
14293DDP     C385757  24.822  21.707  10.064  0.0864 -0.1463  0.2672
14293DDP     C485758  24.243  21.373   9.052 -0.1477 -0.1412 -0.0484
14294DDP     C185759  28.295  23.126   9.041 -0.0144  0.0051 -0.1545
14294DDP     P185760  28.558  23.169   9.360  0.0755  0.1216 -0.0844
14294DDP     P285761  28.267  23.366   8.779  0.0690  0.0453  0.2878
14294DDP     C285762  28.288  23.628   8.452 -0.0011 -0.0676  0.1712
14294DDP     C385763  28.597  23.473   9.634 -0.4158 -0.1411  0.1465
14294DDP     C485764  27.939  22.845   8.944 -0.0151 -0.1271  0.2338
14295DDP     C185765   4.307  11.132   7.771  0.0682  0.3222  0.0970
14295DDP     P185766   4.021  10.825   7.883  0.1309 -0.1692 -0.1645
14295DDP     P285767   4.687  11.000   7.849 -0.0694 -0.3676 -0.1062
14295DDP     C285768   4.734  10.702   8.174  0.1813  0.1762 -0.2426
14295DDP     C385769   3.889  10.439   7.787 -0.3236 -0.0376 -0.1696
14295DDP     C485770   4.164  11.521   7.784 -0.0777  0.2578 -0.1758
14296DDP     C185771   8.815  13.149  16.460  0.0501 -0.0870 -0.1447
14296DDP     P185772   8.986  12.642  16.365 -0.2702 -0.0576  0.2232
14296DDP     P285773   8.509  13.356  16.595 -0.3132  0.0910  0.0439
14296DDP     C285774   8.035  13.317  16.551  0.0089 -0.0529 -0.1331
14296DDP     C385775   9.156  12.580  15.950  0.0027 -0.0775 -0.0505
14296DDP     C485776   8.789  13.485  16.187 -0.0272 -0.0814  0.1073
14297DDP     C185777   2.676  23.658  17.623 -0.3491 -0.2427  0.1970
14297DDP     P185778   2.741  24.129  17.617  0.0655 -0.4632  0.1459
14297DDP     P285779   2.285  23.659  17.743 -0.0400  0.2481  0.0907
14297DDP     C285780   2.017  23.757  18.088 -0.0454 -0.1018 -0.0147
14297DDP     C385781   2.514  24.389  17.782  0.3676  0.0765 -0.0058
14297DDP     C485782   3.019  23.260  17.589 -0.2515 -0.2038 -0.2351
14298DDP     C185783   4.945   0.274  20.094 -0.0436 -0.0396  0.1308
14298DDP     P185784   4.795   0.035  20.389  0.0337 -0.1422 -0.0416
14298DDP     P285785   4.742   0.437  19.713  0.1230  0.2136  0.2132
14298DDP     C285786   4.731   0.420  19.301  0.0573  0.2851  0.2136
14298DDP     C385787   4.475   0.061  20.661 -0.0862 -0.1549 -0.0422
14298DDP     C485788   5.405   0.302  20.093 -0.0055  0.2578 -0.0563
14299DDP     C185789  22.141   8.224   0.620 -0.1777 -0.0879 -0.2200
14299DDP     P185790  22.347   8.616   0.573 -0.4029 -0.0897  0.0446
14299DDP     P285791  21.844   8.094   0.901 -0.2665 -0.2441 -0.0459
14299DDP     C285792  21.625   8.310   1.149  0.1633  0.1175 -0.0678
14299DDP     C385793  22.198   9.003   0.648  0.1526  0.0200  0.2728
14299DDP     C485794  22.205   7.953   0.376 -0.2708 -0.0151  0.0831
14300DDP     C185795  14.280  28.723  10.321  0.2428  0.2318  0.2212
14300DDP     P185796  14.196  28.584   9.838  0.0584  0.0468 -0.3135
14300DDP     P285797  14.450  29.112  10.428 -0.1887 -0.1754  0.1334
14300DDP     C285798  14.624  29.522  10.565  0.2232 -0.1586  0.1130
14300DDP     C385799  13.997  28.600   9.451  0.4549  0.0119 -0.0452
14300DDP     C485800  14.156  28.430  10.592 -0.0716 -0.1683  0.0453
14301DDP     C185801  25.704  29.791  23.857  0.0289  0.0049 -0.0107
14301DDP     P185802  25.284  29.874  23.745  0.0147 -0.0848 -0.2402
14301DDP     P285803  25.797  29.957  24.179  0.0516 -0.1046 -0.0892
14301DDP     C285804  25.966  29.968  24.593 -0.1305 -0.0102 -0.2272
14301DDP     C385805  25.030  30.107  23.571  0.2632  0.2397 -0.3044
14301DDP     C485806  25.855  29.401  23.812 -0.5073 -0.1166 -0.0918
14302DDP     C185807  28.340   2.265   3.649  0.5458  0.0776 -0.0823
14302DDP     P185808  28.532   2.612   3.821 -0.2345 -0.1137  0.1117
14302DDP     P285809  28.216   2.361   3.149 -0.0305 -0.2311 -0.0484
14302DDP     C285810  28.154   2.447   2.680 -0.1154  0.0286  0.0061
14302DDP     C385811  28.937   2.868   3.727  0.0073 -0.1290 -0.1474
14302DDP     C485812  28.014   1.910   3.913  0.1504 -0.1474  0.0891
14303DDP     C185813  10.674   8.922  28.661 -0.1173 -0.0831 -0.3237
14303DDP     P185814  10.272   8.771  28.437  0.1312 -0.2384  0.0098
14303DDP     P285815  10.982   8.630  28.772  0.1091  0.1185 -0.1127
14303DDP     C285816  11.016   8.289  28.969 -0.2498  0.2541  0.2134
14303DDP     C385817  10.188   8.338  28.347  0.0489 -0.0958 -0.1780
14303DDP     C485818  10.881   9.273  28.740  0.0526 -0.0155  0.0965
14304DDP     C185819   2.733   5.332  20.448 -0.3505 -0.1700 -0.1737
14304DDP     P185820   2.296   5.246  20.513  0.2698 -0.0452  0.0471
14304DDP     P285821   2.933   5.477  20.068 -0.0711 -0.1060 -0.1140
14304DDP     C285822   3.269   5.772  20.136 -0.1263 -0.0451  0.0638
14304DDP     C385823   1.973   5.197  20.244 -0.1248  0.0037 -0.1299
14304DDP     C485824   2.729   4.963  20.734  0.0084  0.1792 -0.2838
14305DDP     C185825  11.808  17.265   6.556 -0.0291 -0.2685 -0.2468
14305DDP     P185826  12.035  17.636   6.770  0.2412 -0.2643  0.1034
14305DDP     P285827  11.466  17.382   6.275 -0.1226 -0.0093  0.0136
14305DDP     C285828  11.147  17.497   6.110 -0.0667 -0.2088 -0.1528
14305DDP     C385829  12.171  17.986   7.010 -0.2316  0.3774  0.0696
14305DDP     C485830  12.018  16.858   6.567  0.0010  0.3398  0.0164
14306DDP     C185831   9.369  13.258  24.520 -0.0368  0.2438  0.3022
14306DDP     P185832   9.684  13.554  24.567  0.0161  0.0383 -0.2409
14306DDP     P285833   9.183  13.121  24.195 -0.0542 -0.0323  0.1743
14306DDP     C285834   8.833  13.333  23.835 -0.3861  0.0487 -0.0936
14306DDP     C385835  10.095  13.503  24.840 -0.2556 -0.0133 -0.0245
14306DDP     C485836   9.275  13.099  24.895  0.1264 -0.0231  0.1437
14307DDP     C185837  17.456  18.703  25.675  0.2536  0.2190 -0.1111
14307DDP     P185838  17.175  18.363  25.476 -0.1697  0.1518  0.0363
14307DDP     P285839  17.412  18.928  25.395 -0.1012  0.1560  0.1210
14307DDP     C285840  17.148  19.119  25.078 -0.2467 -0.0534  0.1228
14307DDP     C385841  16.997  18.572  25.202 -0.0597 -0.1816 -0.2993
14307DDP     C485842  17.738  18.736  25.918 -0.1812 -0.2990  0.2569
14308DDP     C185843  18.636  28.449  25.641  0.2107  0.0148 -0.0016
14308DDP     P185844  18.350  28.515  25.964  0.0314 -0.2132  0.3114
14308DDP     P285845  19.029  28.402  25.797  0.1807  0.0091  0.1739
14308DDP     C285846  19.401  28.371  26.101  0.2897 -0.2745  0.0254
14308DDP     C385847  18.205  28.255  26.338  0.1564 -0.1679 -0.4858
14308DDP     C485848  18.635  28.728  25.311 -0.2467 -0.1497 -0.2669
14309DDP     C185849   1.548  15.796  19.862 -0.3678  0.1300 -0.1152
14309DDP     P185850   1.624  15.444  20.077  0.3764  0.1288 -0.1717
14309DDP     P285851   1.370  15.752  19.450 -0.0968 -0.0979 -0.1927
14309DDP     C285852   1.588  16.007  19.196  0.0027  0.0856  0.0898
14309DDP     C385853   1.779  15.263  20.416  0.0783  0.4179  0.2034
14309DDP     C485854   1.664  16.171  20.065 -0.0794  0.1861 -0.1325
14310DDP     C185855  10.947  16.278   7.494  0.4616 -0.3069 -0.0399
14310DDP     P185856  10.746  16.144   7.840 -0.1771  0.2871  0.2849
14310DDP     P285857  11.001  16.162   7.147 -0.1507  0.2671 -0.0562
14310DDP     C285858  10.995  15.751   7.016  0.0199 -0.3845  0.0135
14310DDP     C385859  11.044  15.867   8.209  0.1475  0.0703  0.0860
14310DDP     C485860  11.367  16.318   7.770  0.3295  0.1049  0.2381
14311DDP     C185861  13.632  20.493   1.787 -0.2489  0.0527 -0.2956
14311DDP     P185862  13.556  20.882   1.684  0.2465 -0.3134 -0.1300
14311DDP     P285863  14.010  20.452   1.474  0.2108  0.2783 -0.0199
14311DDP     C285864  14.302  20.298   1.313  0.2394 -0.1901 -0.0995
14311DDP     C385865  13.758  21.271   1.426 -0.0351  0.0622  0.0307
14311DDP     C485866  13.655  20.292   2.160 -0.1844  0.0240 -0.1660
14312DDP     C185867  26.585   9.344  11.920 -0.0698  0.0734 -0.1096
14312DDP     P185868  26.602   9.665  12.039  0.0511  0.2501 -0.3452
14312DDP     P285869  26.321   9.263  11.539 -0.1055 -0.0935 -0.1300
14312DDP     C285870  26.099   9.220  11.254 -0.1012 -0.1659  0.1956
14312DDP     C385871  26.690  10.095  12.047  0.1413  0.0163  0.3317
14312DDP     C485872  26.975   9.137  12.104  0.1987  0.0602 -0.1997
14313DDP     C185873   6.924   2.201  14.920  0.0613  0.2851  0.1218
14313DDP     P185874   7.105   2.387  15.332 -0.0751 -0.3508  0.0082
14313DDP     P285875   7.164   1.875  14.810 -0.0072  0.1120 -0.1623
14313DDP     C285876   7.285   1.387  14.705  0.1208  0.0964 -0.1915
14313DDP     C385877   7.344   2.269  15.595  0.1620 -0.0081 -0.1397
14313DDP     C485878   6.538   2.535  14.674 -0.0130  0.1115  0.0141
14314DDP     C185879   2.896   0.259   4.957  0.1056 -0.0614 -0.0430
14314DDP     P185880   2.608   0.267   4.638  0.1969 -0.3212  0.0373
14314DDP     P285881   2.720   0.112   5.266 -0.0757 -0.3423 -0.1157
14314DDP     C285882   2.574   0.173   5.658  0.5731 -0.2918  0.1373
14314DDP     C385883   2.200   0.393   4.494  0.1820  0.2451  0.0618
14314DDP     C485884   3.370   0.230   4.965  0.2564  0.0938 -0.0362
14315DDP     C185885  17.531   6.437  17.351  0.0054  0.0588 -0.2078
14315DDP     P185886  17.486   6.104  17.707  0.1845  0.1897  0.2828
14315DDP     P285887  17.904   6.617  17.242 -0.1180  0.1292  0.0979
14315DDP     C285888  18.336   6.856  17.160  0.1440  0.0580  0.0588
14315DDP     C385889  17.287   5.936  18.108  0.0505 -0.3557 -0.2464
14315DDP     C485890  17.143   6.419  17.045 -0.1434  0.2734  0.1505
14316DDP     C185891  22.592   6.995  10.570  0.1174  0.2546  0.0440
14316DDP     P185892  22.164   7.052  10.729 -0.1683 -0.2664 -0.2234
14316DDP     P285893  22.553   7.458  10.588  0.2796  0.1366 -0.1062
14316DDP     C285894  22.402   7.850  10.437 -0.1539 -0.2294  0.0863
14316DDP     C385895  21.937   7.289  11.079  0.4727 -0.1102 -0.1332
14316DDP     C485896  22.723   6.643  10.459 -0.0431  0.1951 -0.1777
14317DDP     C185897  12.144   6.353   0.614 -0.4101  0.0719  0.1989
14317DDP     P185898  12.030   6.643   0.262 -0.0255 -0.1029 -0.1519
14317DDP     P285899  11.969   6.205   1.034 -0.4949 -0.1217 -0.0735
14317DDP     C285900  11.996   6.200   1.506 -0.0892 -0.1349 -0.2300
14317DDP     C385901  11.629   6.556  -0.034  0.1948 -0.1440 -0.2786
14317DDP     C485902  12.394   5.918   0.500  0.3146  0.0848 -0.3717
14318DDP     C185903   1.299   7.857   4.503 -0.0649 -0.0175 -0.1581
14318DDP     P185904   1.547   7.954   4.924  0.1605  0.4879  0.1715
14318DDP     P285905   1.099   8.126   4.376  0.2001 -0.1808  0.1393
14318DDP     C285906   0.831   8.085   3.974 -0.0139  0.1507 -0.1498
14318DDP     C385907   1.864   8.173   5.210 -0.0091  0.1889 -0.0928
14318DDP     C485908   1.412   7.415   4.273 -0.0611  0.0467 -0.0056
14319DDP     C185909  27.435   7.682   4.595 -0.1811  0.1421  0.2689
14319DDP     P185910  27.567   7.507   4.218  0.1099 -0.1757  0.0030
14319DDP     P285911  27.517   7.428   5.007 -0.0778 -0.2505  0.0851
14319DDP     C285912  27.654   7.606   5.393  0.0950 -0.1769 -0.1671
14319DDP     C385913  27.939   7.374   3.831  0.1620  0.1548  0.1917
14319DDP     C485914  27.166   8.068   4.636 -0.2161 -0.1737  0.1028
14320DDP     C185915   6.784  27.823  21.777  0.0785 -0.0319  0.1120
14320DDP     P185916   6.673  28.262  21.655  0.1278 -0.1346 -0.1733
14320DDP     P285917   7.047  27.662  21.462  0.1268 -0.2877 -0.1559
14320DDP     C285918   7.013  27.286  21.289  0.1230 -0.1096 -0.1673
14320DDP     C385919   6.439  28.613  21.547 -0.1760 -0.0527 -0.0095
14320DDP     C485920   6.665  27.593  22.180  0.0401  0.2963 -0.0068
14321DDP     C185921  21.494  13.891   6.258  0.0378  0.4026 -0.0557
14321DDP     P185922  21.590  14.359   6.209  0.2993  0.0852  0.0107
14321DDP     P285923  21.611  13.671   6.673 -0.0626 -0.0081 -0.1711
14321DDP     C285924  21.654  13.300   6.788 -0.0453  0.1191  0.0982
14321DDP     C385925  21.512  14.657   5.860  0.0194  0.0550 -0.2498
14321DDP     C485926  21.408  13.661   5.897  0.0675 -0.1157 -0.0854
14322DDP     C185927  28.655  17.341  26.087  0.1575 -0.0690  0.0832
14322DDP     P185928  29.035  17.628  26.213 -0.0318 -0.2759 -0.1030
14322DDP     P285929  28.737  17.203  25.608  0.2571  0.1726 -0.1015
14322DDP     C285930  28.639  16.764  25.469 -0.0723  0.1001  0.2271
14322DDP     C385931  29.507  17.727  26.224 -0.0427  0.4767  0.1042
14322DDP     C485932  28.398  17.212  26.408 -0.0718 -0.1031 -0.0129
14323DDP     C185933  28.365  26.990  27.159 -0.3498  0.2302  0.0873
14323DDP     P185934  28.872  26.813  27.132  0.1347  0.2592  0.1733
14323DDP     P285935  28.226  27.504  27.336  0.2075  0.2243  0.3542
14323DDP     C285936  28.261  27.695  27.764 -0.0170 -0.0427 -0.2171
14323DDP     C385937  29.332  27.097  27.005  0.3880 -0.2399  0.4742
14323DDP     C485938  28.036  26.718  27.112  0.3374 -0.1507 -0.1452
14324DDP     C185939  20.867   2.208  23.047 -0.3700  0.0272 -0.1988
14324DDP     P185940  20.803   2.423  23.443 -0.0320  0.4054 -0.1280
14324DDP     P285941  21.235   2.035  22.830  0.4843  0.0373 -0.3143
14324DDP     C285942  21.313   1.785  22.497 -0.3018  0.0860  0.1398
14324DDP     C385943  20.766   2.739  23.800 -0.1875 -0.0598 -0.1357
14324DDP     C485944  20.531   2.444  22.856  0.2498  0.0073 -0.0199
14325DDP     C185945  24.812   4.869  22.547  0.0290 -0.3015  0.0328
14325DDP     P185946  24.405   4.574  22.491  0.1620  0.0754 -0.3330
14325DDP     P285947  24.626   5.115  22.851  0.1098 -0.2768  0.0746
14325DDP     C285948  24.155   5.271  22.926  0.0650  0.0749 -0.3377
14325DDP     C385949  23.989   4.636  22.252  0.1029  0.1831  0.0322
14325DDP     C485950  25.339   4.761  22.365  0.0827 -0.4450 -0.1018
14326DDP     C185951  30.195  23.355   3.617 -0.1337  0.0255 -0.0359
14326DDP     P185952  29.766  23.426   3.685 -0.0846 -0.3473  0.0144
14326DDP     P285953  30.300  23.048   3.406  0.1195  0.0966  0.3872
14326DDP     C285954   0.277  22.669   3.473  0.1997 -0.1413 -0.0902
14326DDP     C385955  29.446  23.665   3.655 -0.1555  0.0676  0.1297
14326DDP     C485956   0.133  23.664   3.776  0.0597  0.1009  0.1318
14327DDP     C185957  26.652   2.833  19.339 -0.1901  0.4118 -0.0058
14327DDP     P185958  26.362   2.996  19.096  0.2107  0.1128 -0.1476
14327DDP     P285959  27.192   2.720  19.275  0.1730  0.0689 -0.3285
14327DDP     C285960  27.502   2.797  19.070  0.3751  0.1116  0.2348
14327DDP     C385961  25.905   2.959  19.100 -0.5339  0.0127 -0.2000
14327DDP     C485962  26.458   2.708  19.812  0.0058 -0.0507  0.0557
14328DDP     C185963  25.307  28.245  23.710  0.3871  0.1686  0.1195
14328DDP     P185964  25.415  27.918  23.584 -0.1551  0.0791 -0.0334
14328DDP     P285965  24.954  28.268  23.905  0.0691 -0.0945 -0.0343
14328DDP     C285966  24.734  28.311  24.172 -0.1063  0.1034 -0.0785
14328DDP     C385967  25.448  27.734  23.855  0.0718 -0.0280 -0.0992
14328DDP     C485968  25.555  28.501  23.443 -0.1304  0.0729  0.1647
14329DDP     C185969   3.669  26.914   5.564  0.3971  0.1906  0.1416
14329DDP     P185970   3.808  27.272   5.472  0.1138  0.3149  0.1837
14329DDP     P285971   3.630  26.680   5.250  0.1872 -0.2742  0.0911
14329DDP     C285972   3.471  26.528   4.820  0.0251 -0.0706 -0.1463
14329DDP     C385973   3.745  27.545   5.034 -0.0743  0.0677 -0.0680
14329DDP     C485974   3.558  26.929   5.980 -0.0116 -0.0154  0.0903
14330DDP     C185975  16.155  29.467  10.137  0.5492 -0.2127  0.0318
14330DDP     P185976  16.231  29.812  10.347 -0.3094 -0.1347  0.0627
14330DDP     P285977  16.099  29.313   9.765  0.1550  0.3055 -0.0059
14330DDP     C285978  15.940  29.559   9.489  0.1269 -0.1204 -0.0119
14330DDP     C385979  16.282  30.273  10.522 -0.0748  0.0975 -0.0652
14330DDP     C485980  15.966  29.199  10.469 -0.0234 -0.1590  0.1560
14331DDP     C185981  27.781  27.741  21.291  0.2354 -0.1366  0.3089
14331DDP     P185982  27.719  28.133  21.061 -0.0295 -0.2351  0.2223
14331DDP     P285983  27.907  27.423  21.173  0.0301 -0.0776  0.1084
14331DDP     C285984  28.189  27.179  21.216  0.1293 -0.2108 -0.0477
14331DDP     C385985  27.926  28.511  21.096 -0.0600  0.0538 -0.1838
14331DDP     C485986  27.593  27.881  21.702 -0.2833  0.4036 -0.1066
14332DDP     C185987  18.919  23.588  29.434 -0.1718  0.1306 -0.0002
14332DDP     P185988  18.980  23.972  29.646  0.0555 -0.0315  0.2327
14332DDP     P285989  18.980  23.279  29.792 -0.0536  0.2944 -0.4153
14332DDP     C285990  19.033  22.836  29.964 -0.1244 -0.0503 -0.0019
14332DDP     C385991  18.690  24.179  30.013  0.1626 -0.1915  0.2808
14332DDP     C485992  18.764  23.420  28.963 -0.2652  0.1899  0.0103
14333DDP     C185993  20.637   9.363  14.322  0.2917  0.0269 -0.0443
14333DDP     P185994  20.432   9.014  14.278  0.2753  0.1446  0.2415
14333DDP     P285995  20.453   9.738  14.078 -0.1026  0.0486 -0.0141
14333DDP     C285996  20.580  10.102  13.930  0.1733  0.0932 -0.3710
14333DDP     C385997  20.068   8.757  14.177  0.0423 -0.2109  0.1233
14333DDP     C485998  20.946   9.628  14.571  0.0796 -0.1984 -0.3245
14334DDP     C185999  20.051  10.237  27.491 -0.1432  0.1794  0.2596
14334DDP     P186000  19.692  10.369  27.776 -0.0514  0.0963  0.0690
14334DDP     P286001  20.188   9.861  27.289  0.0882  0.2078 -0.1891
14334DDP     C286002  19.975   9.420  27.173  0.0673 -0.0660 -0.0816
14334DDP     C386003  19.834  10.563  28.111  0.2154 -0.2165  0.1106
14334DDP     C486004  20.457  10.259  27.631  0.3470  0.2008  0.2105
14335DDP     C186005  29.641  20.283  16.209  0.0403  0.1982  0.0547
14335DDP     P186006  29.657  19.997  16.459  0.2454  0.0249  0.1354
14335DDP     P286007  29.449  20.260  15.784 -0.0985 -0.2761  0.1277
14335DDP     C286008  29.259  20.202  15.346  0.1835 -0.0985  0.4874
14335DDP     C386009  29.266  19.913  16.844 -0.0920  0.3989  0.2315
14335DDP     C486010  29.687  20.684  16.458  0.1097 -0.1264 -0.0520
14336DDP     C186011  23.518   1.295   5.031 -0.1840  0.1866  0.1164
14336DDP     P186012  23.154   1.399   5.067  0.2038 -0.1986  0.4474
14336DDP     P286013  23.732   1.472   4.593  0.1232 -0.0903 -0.0284
14336DDP     C286014  23.851   1.903   4.676  0.1782  0.0754 -0.0645
14336DDP     C386015  22.923   1.732   4.979 -0.0204 -0.0592 -0.0417
14336DDP     C486016  23.645   0.919   5.259 -0.0040  0.0175 -0.0059
14337DDP     C186017   0.118  29.911   7.214  0.0622 -0.0810  0.2418
14337DDP     P186018   0.437  30.183   7.045  0.1277  0.3892 -0.0167
14337DDP     P286019  29.979  29.898   7.207  0.0723 -0.0340  0.0331
14337DDP     C286020  29.584  29.884   7.387 -0.5770  0.1032  0.1888
14337DDP     C386021   0.898  30.242   7.031 -0.0278 -0.0234 -0.3922
14337DDP     C486022   0.276  29.473   7.342 -0.2211 -0.1635 -0.1146
14338DDP     C186023  23.518  26.592  22.274 -0.2050 -0.0342 -0.1420
14338DDP     P186024  23.524  26.343  21.875  0.1896 -0.0378  0.1343
14338DDP     P286025  23.310  26.897  22.032  0.0370  0.0609  0.1847
14338DDP     C286026  22.935  27.213  22.035 -0.1964 -0.1183 -0.1268
14338DDP     C386027  23.495  26.168  21.373 -0.1278 -0.3207  0.2753
14338DDP     C486028  23.463  26.603  22.679 -0.1939  0.3116  0.3740
14339DDP     C186029  19.984   7.664  26.759 -0.0054  0.2338 -0.4438
14339DDP     P186030  19.614   7.381  27.007  0.1400  0.2231  0.2748
14339DDP     P286031  20.186   7.965  26.990 -0.0295  0.0606 -0.1444
14339DDP     C286032  20.626   8.267  26.906 -0.0409 -0.0631 -0.0594
14339DDP     C386033  19.483   6.910  27.076 -0.1991 -0.2631 -0.1690
14339DDP     C486034  20.261   7.462  26.396 -0.0906  0.1376  0.0697
14340DDP     C186035   6.008   5.702   8.884 -0.1495 -0.1234  0.2094
14340DDP     P186036   6.305   5.887   8.587  0.0343  0.1933 -0.1735
14340DDP     P286037   5.593   5.742   8.760 -0.0353  0.1973 -0.2573
14340DDP     C286038   5.271   5.582   8.497 -0.2104  0.1230  0.0995
14340DDP     C386039   6.575   5.630   8.260 -0.1009 -0.0002 -0.2861
14340DDP     C486040   6.047   5.643   9.291  0.2286  0.1561 -0.2440
14341DDP     C186041  15.993  18.020  25.114  0.2240 -0.0659 -0.0799
14341DDP     P186042  16.314  17.709  25.035  0.0254  0.2290  0.0648
14341DDP     P286043  15.971  18.318  24.838 -0.1362 -0.0207  0.1367
14341DDP     C286044  16.037  18.797  24.675  0.1751 -0.5258  0.0041
14341DDP     C386045  16.706  17.709  24.842  0.1632 -0.1435  0.2471
14341DDP     C486046  15.742  17.940  25.483  0.3315 -0.3335 -0.1158
14342DDP     C186047   5.751  10.067   7.170  0.1548  0.1720 -0.0989
14342DDP     P186048   5.613  10.106   6.703  0.2417 -0.1171 -0.1288
14342DDP     P286049   5.957  10.270   7.522 -0.1429 -0.2289 -0.2792
14342DDP     C286050   5.731  10.377   7.952 -0.3791 -0.3024 -0.1495
14342DDP     C386051   5.264  10.223   6.719  0.2284 -0.2009  0.2359
14342DDP     C486052   5.658   9.737   7.353  0.0535 -0.0272 -0.0833
14343DDP     C186053   3.225  28.537  13.135  0.2889  0.2747  0.1535
14343DDP     P186054   2.967  28.258  13.459  0.0325 -0.0152  0.0307
14343DDP     P286055   3.536  28.581  13.396  0.1857  0.2100  0.0972
14343DDP     C286056   3.906  28.252  13.574  0.3045  0.1884  0.0647
14343DDP     C386057   2.598  27.998  13.584  0.1135 -0.5504  0.1441
14343DDP     C486058   2.964  28.613  12.818 -0.1806 -0.1574  0.2493
14344DDP     C186059   1.782  25.746  27.761  0.0795  0.0421  0.2683
14344DDP     P186060   2.041  25.733  28.096 -0.0929 -0.0324 -0.0572
14344DDP     P286061   1.864  25.757  27.312  0.4661 -0.0452  0.1028
14344DDP     C286062   2.050  25.467  27.017 -0.0318 -0.1237 -0.1133
14344DDP     C386063   2.454  25.843  28.154  0.0709  0.0452 -0.0090
14344DDP     C486064   1.417  25.636  27.840  0.0953  0.2298 -0.1533
14345DDP     C186065  20.542  28.835  28.685  0.0448  0.0736 -0.1588
14345DDP     P186066  21.064  28.773  28.501  0.2102 -0.2073 -0.1609
14345DDP     P286067  20.449  28.690  29.097  0.0316  0.0646 -0.0477
14345DDP     C286068  20.377  28.404  29.435 -0.2264 -0.1615 -0.1013
14345DDP     C386069  21.449  28.812  28.185 -0.0371 -0.2902 -0.2611
14345DDP     C486070  20.192  29.059  28.521  0.1285 -0.1573 -0.0558
14346DDP     C186071  24.182   1.923  17.917  0.0966  0.1517  0.5191
14346DDP     P186072  24.448   1.535  17.783 -0.1443  0.0698  0.2850
14346DDP     P286073  24.339   2.099  17.509  0.2481  0.0267 -0.0992
14346DDP     C286074  24.644   2.496  17.602 -0.2274 -0.1289 -0.2563
14346DDP     C386075  24.310   1.214  17.367  0.3781  0.1103  0.2070
14346DDP     C486076  23.830   2.052  18.282  0.1728  0.0256 -0.1654
14347DDP     C186077  23.750  24.240  19.514  0.0939 -0.0236 -0.0153
14347DDP     P186078  23.902  24.188  19.941 -0.4288 -0.0084  0.0408
14347DDP     P286079  24.030  24.127  19.154  0.1755 -0.0072  0.0341
14347DDP     C286080  23.908  23.882  18.783 -0.1542  0.1081 -0.0765
14347DDP     C386081  24.047  24.077  20.343  0.1042 -0.2427 -0.2956
14347DDP     C486082  23.515  24.522  19.306  0.2384  0.1923  0.0524
14348DDP     C186083  20.647  28.401  18.142 -0.2769 -0.0380  0.0031
14348DDP     P186084  21.055  28.173  18.245 -0.1067 -0.2875 -0.0453
14348DDP     P286085  20.651  28.537  17.601  0.0436  0.0446  0.1248
14348DDP     C286086  20.289  28.768  17.394 -0.0285 -0.1194 -0.0466
14348DDP     C386087  21.417  28.093  18.518 -0.3142 -0.0557 -0.0111
14348DDP     C486088  20.500  28.609  18.525 -0.1410 -0.0796  0.1369
14349DDP     C186089  26.281  18.077   8.304 -0.0447  0.0607 -0.2436
14349DDP     P186090  26.207  17.636   8.057  0.1965 -0.2646 -0.2505
14349DDP     P286091  25.971  18.089   8.696 -0.3417  0.2221  0.0785
14349DDP     C286092  25.624  17.871   8.763  0.2716  0.0900  0.0536
14349DDP     C386093  26.197  17.591   7.611 -0.0640  0.0135 -0.2030
14349DDP     C486094  26.510  18.472   8.285 -0.1722  0.0838  0.2322
14350DDP     C186095   8.088  23.622   2.569  0.0296 -0.2738 -0.1200
14350DDP     P186096   7.649  23.526   2.576 -0.1041  0.0089 -0.4096
14350DDP     P286097   8.281  23.479   2.105 -0.1534 -0.0149  0.0389
14350DDP     C286098   8.165  23.711   1.717 -0.2323 -0.0131 -0.3315
14350DDP     C386099   7.235  23.648   2.460  0.3893 -0.0713  0.2131
14350DDP     C486100   8.173  23.967   2.878  0.1770  0.0763  0.1557
14351DDP     C186101  20.026  11.933  20.081  0.0458  0.1065  0.3725
14351DDP     P186102  19.927  12.072  19.681  0.0673 -0.2597 -0.0477
14351DDP     P286103  20.300  11.645  20.088 -0.1266  0.0138 -0.2339
14351DDP     C286104  20.553  11.345  19.783 -0.2680  0.0950  0.1090
14351DDP     C386105  19.888  11.999  19.351 -0.1367  0.0038 -0.1254
14351DDP     C486106  19.944  12.282  20.272  0.0447  0.3945  0.2986
14352DDP     C186107  26.914  16.896  29.337  0.0632  0.0089  0.0137
14352DDP     P186108  26.931  16.587  29.643  0.2215  0.0961  0.3168
14352DDP     P286109  27.266  16.831  29.032 -0.1558  0.0611  0.0138
14352DDP     C286110  27.650  16.675  28.929 -0.3297  0.0976 -0.0145
14352DDP     C386111  26.947  16.613  29.975 -0.0787 -0.1444  0.0736
14352DDP     C486112  26.505  16.947  29.273 -0.2481 -0.0779 -0.2421
14353DDP     C186113  10.330  19.629   4.844 -0.2449  0.1728 -0.1016
14353DDP     P186114  10.017  19.904   5.133  0.1338  0.2230  0.1094
14353DDP     P286115  10.028  19.241   4.691  0.1930  0.2011  0.3158
14353DDP     C286116   9.865  18.908   4.929 -0.1842  0.1684  0.0850
14353DDP     C386117  10.038  19.782   5.509 -0.2407 -0.1052  0.0405
14353DDP     C486118  10.748  19.761   4.851  0.1132 -0.1979 -0.1906
14354DDP     C186119  18.986   1.497  18.007  0.3935  0.1167 -0.0657
14354DDP     P186120  19.286   1.508  18.275 -0.1726 -0.2696  0.1030
14354DDP     P286121  18.828   1.121  18.091  0.0674  0.2174  0.1533
14354DDP     C286122  18.611   0.993  18.449  0.0311  0.2403  0.2259
14354DDP     C386123  19.469   1.423  18.598 -0.1874 -0.0757  0.2276
14354DDP     C486124  18.819   1.965  17.844  0.0193  0.0952  0.1448
14355DDP     C186125  16.131  18.265   8.989 -0.1970 -0.2688 -0.2089
14355DDP     P186126  16.531  17.987   9.001  0.1560 -0.0560  0.0222
14355DDP     P286127  15.939  17.815   8.999  0.0359  0.0869  0.1426
14355DDP     C286128  15.633  17.632   9.244  0.2540 -0.4197 -0.3965
14355DDP     C386129  16.939  17.677   8.974 -0.1612 -0.0886  0.0594
14355DDP     C486130  15.992  18.533   8.668  0.0198 -0.0842 -0.2710
14356DDP     C186131  16.627  20.723  21.196  0.1404  0.0889  0.0848
14356DDP     P186132  16.367  20.368  21.171 -0.0729 -0.0377 -0.0940
14356DDP     P286133  16.746  20.660  21.713  0.0947  0.1579 -0.1435
14356DDP     C286134  17.109  20.365  21.966 -0.0049  0.1076  0.3882
14356DDP     C386135  16.043  20.096  20.944 -0.0980  0.0854  0.0317
14356DDP     C486136  16.489  21.113  20.898 -0.1708 -0.0960 -0.1242
14357DDP     C186137  14.351   8.071  20.702  0.4035 -0.1973  0.2377
14357DDP     P186138  14.118   8.334  20.460  0.3771  0.2105 -0.3007
14357DDP     P286139  14.651   7.853  20.603 -0.1362  0.0531  0.2185
14357DDP     C286140  14.835   7.651  20.211 -0.1747 -0.0870 -0.3014
14357DDP     C386141  13.733   8.462  20.055 -0.0557  0.0206  0.2316
14357DDP     C486142  14.375   8.087  21.096 -0.0371 -0.0682 -0.3084
14358DDP     C186143  23.561  27.271  12.640  0.1705 -0.0413 -0.1363
14358DDP     P186144  23.974  27.081  12.711  0.0952  0.0977  0.1653
14358DDP     P286145  23.463  27.026  12.938  0.2211  0.1500  0.0722
14358DDP     C286146  23.313  26.923  13.301  0.2726 -0.2552 -0.1503
14358DDP     C386147  24.120  26.665  12.475 -0.2343  0.1514  0.1450
14358DDP     C486148  23.325  27.596  12.527 -0.2925  0.1263 -0.1955
14359DDP     C186149  14.889  24.136  28.378 -0.0158 -0.1376  0.6224
14359DDP     P186150  15.019  23.651  28.272 -0.0373 -0.2249 -0.0815
14359DDP     P286151  14.532  24.311  28.566 -0.2922  0.0660 -0.1432
14359DDP     C286152  14.508  24.749  28.759 -0.0996 -0.0851  0.2190
14359DDP     C386153  14.838  23.324  28.346  0.1636  0.2347 -0.2239
14359DDP     C486154  15.187  24.399  28.232  0.1089 -0.0799 -0.0617
14360DDP     C186155  24.759  25.455  20.204  0.0984  0.1293  0.4519
14360DDP     P186156  24.411  25.561  20.375  0.3213  0.4252 -0.3581
14360DDP     P286157  24.887  25.806  20.040  0.0034  0.0299  0.0426
14360DDP     C286158  24.809  25.957  19.633  0.0975 -0.1929 -0.2166
14360DDP     C386159  24.001  25.569  20.263 -0.1062  0.2200  0.0963
14360DDP     C486160  25.017  25.111  20.263  0.2346 -0.0011  0.1692
14361DDP     C186161   3.253  16.801   7.626 -0.3776 -0.0271  0.3372
14361DDP     P186162   3.374  16.567   7.193  0.0699 -0.0267 -0.0995
14361DDP     P286163   3.253  17.299   7.483 -0.1162  0.0762  0.1363
14361DDP     C286164   3.540  17.572   7.347 -0.0010  0.0606 -0.1230
14361DDP     C386165   3.437  16.312   6.895  0.2051 -0.2984  0.1434
14361DDP     C486166   3.472  16.763   7.902 -0.0214 -0.2434  0.2290
14362DDP     C186167   9.894  17.077   0.473 -0.1740 -0.0483  0.1669
14362DDP     P186168  10.288  17.179   0.489 -0.1144  0.1420  0.3130
14362DDP     P286169   9.885  17.452   0.249 -0.2963  0.1477 -0.0929
14362DDP     C286170  10.061  17.873   0.328  0.0238  0.0567 -0.3521
14362DDP     C386171  10.654  17.089   0.277 -0.0331 -0.0648  0.2481
14362DDP     C486172   9.807  16.677   0.687  0.1081 -0.3199 -0.2511
14363DDP     C186173  10.006   5.130   1.312 -0.3071  0.1690  0.1403
14363DDP     P186174  10.399   5.257   1.080 -0.2206 -0.1523  0.0268
14363DDP     P286175   9.878   4.749   1.378 -0.0843 -0.1620 -0.3274
14363DDP     C286176   9.627   4.429   1.461  0.0605  0.1363  0.0496
14363DDP     C386177  10.845   5.437   1.187  0.1088  0.3466  0.0415
14363DDP     C486178   9.774   5.487   1.455 -0.0899 -0.0843 -0.1539
14364DDP     C186179   9.952  21.021  18.238 -0.1837 -0.0720 -0.2551
14364DDP     P186180   9.585  21.232  18.388 -0.3074 -0.2830 -0.0053
14364DDP     P286181  10.018  20.795  17.877  0.1848 -0.1318  0.0543
14364DDP     C286182   9.944  20.810  17.484  0.1295 -0.0010 -0.1144
14364DDP     C386183   9.342  21.092  18.737  0.1708 -0.1474  0.0725
14364DDP     C486184  10.199  20.936  18.640 -0.1355  0.0905  0.0374
14365DDP     C186185   3.782  28.998  13.076  0.0557 -0.3437 -0.0949
14365DDP     P186186   4.131  29.258  12.932  0.1572 -0.1033 -0.1435
14365DDP     P286187   3.476  28.846  12.863  0.2507 -0.1198 -0.0073
14365DDP     C286188   3.226  28.914  12.482 -0.1356 -0.1214  0.1733
14365DDP     C386189   4.469  29.021  12.749 -0.2033  0.1331 -0.2290
14365DDP     C486190   3.804  28.987  13.666  0.0183 -0.1932  0.0051
14366DDP     C186191   9.960  11.917  21.766 -0.3551  0.0932  0.3071
14366DDP     P186192   9.991  11.765  21.386 -0.3871 -0.0098  0.3431
14366DDP     P286193   9.720  11.581  21.881 -0.2590 -0.2952  0.0021
14366DDP     C286194   9.680  11.088  21.873  0.1551 -0.0326  0.0003
14366DDP     C386195   9.880  11.389  21.360  0.0748  0.2350 -0.2366
14366DDP     C486196  10.368  12.111  22.036 -0.0318 -0.0717  0.3253
14367DDP     C186197   3.438  29.389  18.413 -0.0266  0.1871 -0.0012
14367DDP     P186198   3.359  28.938  18.579  0.1042 -0.0411  0.1301
14367DDP     P286199   3.307  29.793  18.501  0.0518 -0.1739  0.2577
14367DDP     C286200   3.547  30.184  18.757  0.0953 -0.3595 -0.1441
14367DDP     C386201   3.595  28.583  18.451  0.0083  0.1159 -0.0470
14367DDP     C486202   3.814  29.573  18.291  0.0972  0.2933 -0.0064
14368DDP     C186203  22.796   7.347  17.462  0.0798  0.0819  0.0139
14368DDP     P186204  22.593   7.346  17.072 -0.0543  0.2705  0.2055
14368DDP     P286205  22.627   7.304  17.958 -0.3034 -0.0869 -0.1328
14368DDP     C286206  22.369   7.406  18.406  0.0952 -0.3076  0.0913
14368DDP     C386207  22.178   7.606  16.827  0.3410  0.1450  0.0135
14368DDP     C486208  23.229   7.587  17.496 -0.0969  0.0313  0.0694
14369DDP     C186209   9.753  10.073  27.297  0.0145  0.0580  0.0611
14369DDP     P186210  10.133  10.332  27.212  0.3619  0.1958  0.2105
14369DDP     P286211   9.574   9.941  27.637 -0.0407  0.1558 -0.1457
14369DDP     C286212   9.534   9.876  28.051 -0.0549  0.3982 -0.0727
14369DDP     C386213  10.149  10.758  26.911  0.0941  0.1720 -0.1494
14369DDP     C486214   9.626   9.893  26.964 -0.1011 -0.1647 -0.4079
14370DDP     C186215   2.051  19.568  18.158  0.2015 -0.5826  0.1192
14370DDP     P186216   1.850  19.262  18.400  0.1862  0.1496 -0.1102
14370DDP     P286217   2.222  20.036  18.360 -0.0361 -0.4365  0.0114
14370DDP     C286218   2.496  20.100  18.641 -0.3098  0.2061 -0.1588
14370DDP     C386219   2.034  18.771  18.518  0.2692  0.1294  0.1984
14370DDP     C486220   2.186  19.407  17.667  0.0869 -0.0284  0.3369
14371DDP     C186221  28.062   9.436   2.352 -0.0218 -0.0424  0.0864
14371DDP     P186222  28.055   9.133   2.705 -0.0078 -0.0042  0.1476
14371DDP     P286223  28.217   9.849   2.249  0.5028  0.1964 -0.0655
14371DDP     C286224  28.687  10.095   2.153 -0.0989  0.0795  0.0192
14371DDP     C386225  27.987   8.940   3.170  0.2556 -0.2034 -0.1139
14371DDP     C486226  27.834   9.358   1.908  0.1039  0.1536 -0.0943
14372DDP     C186227  14.491  26.767  24.927 -0.2633 -0.3854 -0.0583
14372DDP     P186228  14.635  26.997  25.328  0.1348 -0.1028 -0.1962
14372DDP     P286229  14.393  26.366  24.827 -0.1493  0.0926 -0.3418
14372DDP     C286230  14.591  25.991  24.970  0.1693 -0.4759 -0.0206
14372DDP     C386231  14.611  26.736  25.646 -0.2517  0.0423  0.0137
14372DDP     C486232  14.668  27.010  24.479 -0.0693 -0.0919 -0.2051
14373DDP     C186233  12.654   9.872   6.443  0.0423  0.0765  0.1494
14373DDP     P186234  12.185  10.032   6.465  0.0729 -0.0609  0.0407
14373DDP     P286235  12.887  10.134   6.190  0.3471 -0.0563  0.1825
14373DDP     C286236  12.978  10.447   6.102 -0.1863 -0.4474  0.1700
14373DDP     C386237  11.890  10.469   6.607 -0.0304  0.0607 -0.0941
14373DDP     C486238  12.771   9.576   6.809  0.0909  0.0739  0.2036
14374DDP     C186239  11.176   3.630  29.308  0.1455  0.1785  0.0227
14374DDP     P186240  11.007   3.436  29.025 -0.2729  0.3755 -0.0816
14374DDP     P286241  11.270   3.297  29.612  0.0140  0.2092  0.1340
14374DDP     C286242  11.465   3.027  29.682 -0.0627 -0.0722 -0.2714
14374DDP     C386243  10.816   3.062  28.850  0.4470 -0.0448 -0.0717
14374DDP     C486244  11.095   3.972  29.431  0.3232  0.1866  0.0997
14375DDP     C186245  10.906  10.262  26.096  0.0365 -0.0265 -0.0635
14375DDP     P186246  10.728  10.626  25.980  0.0024 -0.2567 -0.1083
14375DDP     P286247  10.937  10.414  26.457  0.1286 -0.0164  0.0687
14375DDP     C286248  10.876  10.255  26.943 -0.2315 -0.0473 -0.0599
14375DDP     C386249  10.733  10.882  25.587  0.2568  0.0648 -0.1348
14375DDP     C486250  10.940   9.821  25.972 -0.0423  0.0316 -0.1166
14376DDP     C186251  12.334  13.599  15.054 -0.1650 -0.0556  0.1993
14376DDP     P186252  12.015  13.341  15.265  0.3810  0.0559  0.0016
14376DDP     P286253  12.792  13.773  15.087 -0.1633 -0.0797 -0.1473
14376DDP     C286254  13.117  13.911  15.052 -0.2274  0.3988  0.0349
14376DDP     C386255  12.023  13.051  15.618  0.3431  0.1950  0.0253
14376DDP     C486256  12.145  13.596  14.729 -0.0812 -0.1973 -0.0646
14377DDP     C186257  18.696   0.734  29.920  0.0221  0.1052  0.0896
14377DDP     P186258  18.863   0.369  30.158 -0.1448 -0.1093  0.3284
14377DDP     P286259  18.341   0.709  29.936 -0.2051 -0.2208 -0.0743
14377DDP     C286260  17.948   0.620  29.840  0.1465  0.1414  0.1595
14377DDP     C386261  19.217   0.107  30.186 -0.2041  0.1312 -0.2338
14377DDP     C486262  18.868   1.153  29.745 -0.1711  0.0210  0.0406
14378DDP     C186263   6.588  20.704  30.072  0.1622  0.2847  0.0467
14378DDP     P186264   6.284  20.517  30.217 -0.0453  0.2207  0.1093
14378DDP     P286265   6.516  20.936  29.654  0.1524  0.0613  0.0005
14378DDP     C286266   6.490  21.340  29.354  0.2707 -0.0035  0.0250
14378DDP     C386267   6.054  20.365   0.254  0.1469  0.1188  0.2935
14378DDP     C486268   6.768  20.993   0.094 -0.0176 -0.2693  0.1564
14379DDP     C186269  29.084  29.242   0.044 -0.0047  0.1358  0.0187
14379DDP     P186270  29.095  29.415   0.466  0.1457  0.0760  0.2799
14379DDP     P286271  28.662  29.088  30.177 -0.1664 -0.2172  0.1457
14379DDP     C286272  28.382  28.999  29.772 -0.0310  0.3848 -0.0921
14379DDP     C386273  29.058  29.817   0.721  0.0164 -0.0593  0.1949
14379DDP     C486274  29.439  28.975  30.313 -0.2469 -0.1984  0.0460
14380DDP     C186275  25.735  27.454   3.655 -0.1465  0.0599 -0.1598
14380DDP     P186276  25.929  27.794   3.730 -0.0996  0.1430  0.3521
14380DDP     P286277  25.519  27.273   3.908 -0.0065 -0.3593  0.0155
14380DDP     C286278  25.217  27.025   3.739 -0.3031 -0.3554  0.2561
14380DDP     C386279  25.694  28.188   3.700  0.0123 -0.0208  0.2781
14380DDP     C486280  25.920  27.304   3.308 -0.3932  0.2166  0.1303
14381DDP     C186281   4.903  23.926  14.636 -0.2609 -0.1210 -0.0481
14381DDP     P186282   4.502  24.128  14.757 -0.1081 -0.0950 -0.1014
14381DDP     P286283   5.173  24.255  14.358  0.0123 -0.0907 -0.2220
14381DDP     C286284   5.217  24.461  13.978 -0.1723 -0.3228  0.2454
14381DDP     C386285   4.054  24.023  14.691  0.0460 -0.1062  0.0354
14381DDP     C486286   5.098  23.692  14.932 -0.3592  0.2002  0.3034
14382DDP     C186287   8.111  14.486  28.361  0.1801  0.2154 -0.0122
14382DDP     P186288   8.502  14.537  28.179 -0.2509 -0.0253 -0.2272
14382DDP     P286289   7.916  14.159  28.095  0.0006  0.0458  0.2666
14382DDP     C286290   7.592  14.079  27.845  0.3148  0.1461  0.0585
14382DDP     C386291   8.582  14.556  27.752 -0.1004  0.1934  0.1304
14382DDP     C486292   8.020  14.591  28.770 -0.0304 -0.0162 -0.0894
14383DDP     C186293  30.018  27.531  11.157 -0.0214 -0.4728  0.0428
14383DDP     P186294  29.710  27.356  11.197  0.0064  0.1180  0.0725
14383DDP     P286295  30.235  27.546  11.526  0.2336 -0.2965 -0.1139
14383DDP     C286296   0.011  27.343  11.888 -0.0609  0.0526  0.0345
14383DDP     C386297  29.570  27.143  10.828  0.0101  0.0485 -0.0426
14383DDP     C486298  30.267  27.644  10.760 -0.1268 -0.1347  0.0456
14384DDP     C186299  10.684  21.100  14.101  0.1802  0.0703  0.0793
14384DDP     P186300  10.732  20.996  13.658  0.0302  0.2080  0.1441
14384DDP     P286301  11.081  21.051  14.121 -0.2568 -0.0819 -0.1304
14384DDP     C286302  11.337  20.657  14.245  0.3906 -0.3518  0.1316
14384DDP     C386303  10.463  20.799  13.247  0.3461  0.3270  0.2066
14384DDP     C486304  10.460  21.447  13.908  0.1347 -0.0608  0.2054
14385DDP     C186305  12.379  11.285  27.216  0.1400  0.0506 -0.1231
14385DDP     P186306  11.978  11.613  27.227 -0.0543 -0.1097  0.1371
14385DDP     P286307  12.669  11.306  26.918 -0.3822  0.1450 -0.1491
14385DDP     C286308  12.655  11.124  26.509  0.2058 -0.0323 -0.0693
14385DDP     C386309  11.875  11.915  27.511  0.0704  0.1018  0.3214
14385DDP     C486310  12.319  10.795  27.265 -0.1014 -0.0684  0.2009
14386DDP     C186311  17.068  12.570  21.947 -0.1232  0.1359  0.1088
14386DDP     P186312  17.251  12.429  21.580 -0.2874  0.0844  0.2261
14386DDP     P286313  17.281  13.009  22.180  0.1009  0.0834 -0.1523
14386DDP     C286314  17.216  13.409  22.481  0.2411 -0.2224 -0.0864
14386DDP     C386315  17.636  12.567  21.385  0.1827 -0.2229  0.0018
14386DDP     C486316  16.669  12.525  22.139 -0.1350  0.3337  0.0359
14387DDP     C186317   5.212  25.889  18.428  0.0137 -0.0762  0.1990
14387DDP     P186318   5.106  25.425  18.488 -0.0385  0.2411 -0.0958
14387DDP     P286319   4.886  26.221  18.315  0.0635 -0.0614  0.0514
14387DDP     C286320   4.745  26.480  18.001 -0.1260 -0.0265  0.4692
14387DDP     C386321   5.405  25.020  18.628  0.0873  0.1306  0.1786
14387DDP     C486322   5.717  25.980  18.394 -0.0870 -0.1571  0.1717
14388DDP     C186323  12.315   5.978  22.233  0.1129 -0.0840  0.0499
14388DDP     P186324  12.549   6.177  21.848  0.2988 -0.1503 -0.1193
14388DDP     P286325  12.484   5.625  22.407 -0.1148 -0.2242 -0.1473
14388DDP     C286326  12.853   5.375  22.374 -0.0749  0.0857  0.2420
14388DDP     C386327  12.793   6.591  21.909  0.1668 -0.0931 -0.3874
14388DDP     C486328  11.932   5.883  22.092 -0.0863  0.0475  0.0846
14389DDP     C186329  26.919   3.685  18.317  0.0872 -0.1528  0.1105
14389DDP     P186330  26.586   3.515  18.517 -0.0462 -0.0494  0.0421
14389DDP     P286331  26.796   3.926  17.874 -0.2503 -0.0812  0.1423
14389DDP     C286332  26.694   4.172  17.507 -0.1705  0.0501 -0.0314
14389DDP     C386333  26.519   3.097  18.481  0.4584 -0.1573 -0.2444
14389DDP     C486334  27.337   3.575  18.333 -0.1365  0.0266 -0.3201
14390DDP     C186335   2.473  12.514  10.318  0.0006 -0.1143 -0.0183
14390DDP     P186336   2.338  12.167  10.509 -0.2903  0.0205 -0.2129
14390DDP     P286337   2.778  12.350  10.289 -0.2084 -0.4342  0.1106
14390DDP     C286338   2.840  12.018  10.127 -0.1043  0.3091 -0.1156
14390DDP     C386339   2.128  11.888  10.825 -0.0841 -0.1309  0.4121
14390DDP     C486340   2.501  13.009  10.475  0.1467  0.1635 -0.0159
14391DDP     C186341  23.323  17.872  17.761 -0.1033 -0.0068 -0.1398
14391DDP     P186342  23.298  18.323  17.698 -0.3778 -0.0035  0.1250
14391DDP     P286343  23.093  17.625  17.501  0.0300 -0.1778 -0.0552
14391DDP     C286344  23.346  17.253  17.443  0.0824  0.3862  0.1601
14391DDP     C386345  23.224  18.677  17.611 -0.0140 -0.1111  0.1728
14391DDP     C486346  23.709  17.764  17.864  0.1358  0.0721 -0.1476
14392DDP     C186347  17.027  29.433  11.924 -0.1641  0.2965 -0.3639
14392DDP     P186348  16.859  29.762  12.230  0.0459 -0.1069 -0.0951
14392DDP     P286349  16.983  29.499  11.441 -0.0697 -0.1706 -0.2479
14392DDP     C286350  17.117  29.686  11.085 -0.0644 -0.0964  0.1499
14392DDP     C386351  16.703  30.135  12.168 -0.1753  0.2092 -0.1679
14392DDP     C486352  17.228  29.090  12.177  0.1704 -0.1962 -0.2097
14393DDP     C186353   8.443  14.089  11.734  0.5784 -0.0385  0.1292
14393DDP     P186354   8.103  14.126  12.030  0.0458 -0.0025 -0.0993
14393DDP     P286355   8.889  14.272  11.975 -0.2767 -0.2693  0.0757
14393DDP     C286356   9.261  14.550  12.200 -0.3224 -0.0850  0.0648
14393DDP     C386357   7.830  14.568  12.112  0.3110 -0.3580 -0.0272
14393DDP     C486358   8.326  13.999  11.326 -0.0407  0.0285 -0.4041
14394DDP     C186359  28.230  24.121  18.455  0.0931  0.2044  0.1414
14394DDP     P186360  27.846  24.382  18.351  0.0030 -0.1205 -0.0476
14394DDP     P286361  28.114  23.659  18.456  0.2101  0.1656  0.0745
14394DDP     C286362  27.965  23.285  18.522 -0.0341  0.1549 -0.1672
14394DDP     C386363  27.586  24.598  18.033  0.1434 -0.1763 -0.0695
14394DDP     C486364  28.352  24.293  18.853 -0.0197  0.0060 -0.4873
14395DDP     C186365   5.408  16.863  17.739 -0.2054 -0.0219 -0.0201
14395DDP     P186366   5.066  16.745  17.691 -0.2210 -0.0284 -0.2007
14395DDP     P286367   5.468  17.231  17.951 -0.1385 -0.2112  0.0507
14395DDP     C286368   5.739  17.407  18.413  0.0856  0.0176  0.0335
14395DDP     C386369   4.681  16.757  17.896  0.0713 -0.0528  0.2413
14395DDP     C486370   5.774  16.561  17.605  0.0861 -0.0675 -0.2263
14396DDP     C186371   5.740  15.886   9.734 -0.3848  0.1127  0.1026
14396DDP     P186372   5.577  15.797  10.181  0.1244 -0.2183 -0.1991
14396DDP     P286373   5.408  15.928   9.497  0.0024 -0.0826 -0.1219
14396DDP     C286374   5.160  15.816   9.126 -0.2762 -0.1050  0.0769
14396DDP     C386375   5.438  15.673  10.601 -0.3786 -0.0244  0.1967
14396DDP     C486376   6.110  15.965   9.512  0.3572  0.0248 -0.0081
14397DDP     C186377  21.426  20.737  24.827  0.0445  0.1178 -0.2642
14397DDP     P186378  21.202  20.420  24.745 -0.3006  0.1139  0.1297
14397DDP     P286379  21.618  20.859  24.496  0.1172 -0.1574 -0.0164
14397DDP     C286380  21.525  21.245  24.351 -0.0009  0.0307 -0.2322
14397DDP     C386381  21.181  20.143  25.002 -0.1116 -0.2500 -0.1575
14397DDP     C486382  21.790  20.738  25.149 -0.0719 -0.0682 -0.0002
14398DDP     C186383   1.396   7.467   7.041  0.1099  0.0123 -0.1240
14398DDP     P186384   1.535   7.705   6.781 -0.1243  0.2348  0.2839
14398DDP     P286385   1.260   7.576   7.474  0.3368  0.1803 -0.0750
14398DDP     C286386   1.034   7.501   7.699  0.1125 -0.3564 -0.1162
14398DDP     C386387   1.753   8.002   6.600 -0.0154 -0.2167 -0.2439
14398DDP     C486388   1.332   6.983   6.911 -0.0144  0.1906  0.1054
14399DDP     C186389  17.074  21.708  24.790 -0.0384 -0.2800 -0.4025
14399DDP     P186390  17.214  21.879  25.024 -0.2032  0.0258 -0.3177
14399DDP     P286391  16.765  21.421  24.945 -0.1196 -0.1935 -0.0017
14399DDP     C286392  16.730  21.174  25.274  0.0503  0.1612 -0.0567
14399DDP     C386393  17.332  22.374  25.149 -0.1228  0.3745 -0.0582
14399DDP     C486394  17.151  21.849  24.466  0.1442  0.0612  0.1763
14400DDP     C186395   2.477   3.393   9.794  0.1096 -0.0497 -0.1952
14400DDP     P186396   2.115   3.524   9.864 -0.1163 -0.1226 -0.0236
14400DDP     P286397   2.539   2.961   9.676  0.2002 -0.0539  0.2271
14400DDP     C286398   2.982   2.718   9.758  0.1398  0.0520 -0.0278
14400DDP     C386399   1.877   3.920   9.705 -0.0493 -0.1179 -0.1707
14400DDP     C486400   2.749   3.734   9.931  0.1311  0.0261  0.2426
14401DDP     C186401  10.979  17.613  26.895  0.1387  0.2258  0.2118
14401DDP     P186402  10.843  17.202  26.760 -0.0319 -0.0314 -0.0747
14401DDP     P286403  11.177  17.826  26.525 -0.1234 -0.1285  0.0721
14401DDP     C286404  11.603  17.888  26.363 -0.0352  0.0540 -0.0353
14401DDP     C386405  11.084  16.885  26.546 -0.1399  0.1226  0.0165
14401DDP     C486406  10.988  17.701  27.313 -0.3208 -0.0556 -0.1658
14402DDP     C186407   8.105  19.644  15.106 -0.2076 -0.1231 -0.0651
14402DDP     P186408   8.179  19.851  15.394 -0.0286  0.3455 -0.2406
14402DDP     P286409   8.526  19.430  15.032 -0.0098 -0.0778 -0.0017
14402DDP     C286410   8.618  19.171  15.423 -0.0157 -0.0801  0.2700
14402DDP     C386411   8.060  19.934  15.827 -0.0934 -0.2420 -0.0108
14402DDP     C486412   7.833  19.762  14.778  0.2238 -0.1773  0.0524
14403DDP     C186413  14.599  20.623   5.086 -0.3632 -0.3227 -0.1245
14403DDP     P186414  14.870  20.854   5.267  0.2613 -0.2386  0.2126
14403DDP     P286415  14.305  20.755   4.851 -0.0839  0.0223 -0.0164
14403DDP     C286416  13.838  20.707   4.730 -0.2042 -0.2959 -0.0658
14403DDP     C386417  15.255  20.895   5.145  0.1978  0.0691  0.0070
14403DDP     C486418  14.638  20.199   5.071  0.0731 -0.0426 -0.1381
14404DDP     C186419   7.649  12.000   0.591 -0.2750 -0.0811  0.1749
14404DDP     P186420   7.702  12.345   0.395  0.0551 -0.1328  0.1540
14404DDP     P286421   8.033  11.762   0.358  0.1745  0.2200 -0.0427
14404DDP     C286422   8.025  11.400   0.122  0.3830  0.1233  0.3749
14404DDP     C386423   7.522  12.753   0.241 -0.2549 -0.1099  0.1097
14404DDP     C486424   7.224  11.904   0.864  0.1518  0.1316  0.0275
14405DDP     C186425  16.392  26.023  20.047  0.2725 -0.0017 -0.1776
14405DDP     P186426  16.009  26.097  20.026  0.2005  0.1542  0.4539
14405DDP     P286427  16.788  26.053  20.323 -0.0925  0.0744 -0.2350
14405DDP     C286428  17.104  26.169  20.551 -0.2180  0.0329 -0.1641
14405DDP     C386429  15.713  26.385  19.918 -0.0653  0.0456 -0.1941
14405DDP     C486430  16.409  25.588  19.981  0.1217 -0.0302 -0.0760
14406DDP     C186431  20.810   7.470  23.324 -0.1409 -0.1536 -0.0774
14406DDP     P186432  20.444   7.672  23.255 -0.1017  0.0401 -0.2608
14406DDP     P286433  20.627   7.051  23.328 -0.2324  0.2162 -0.0173
14406DDP     C286434  20.492   6.673  23.651 -0.0237 -0.0472 -0.3048
14406DDP     C386435  20.164   7.953  22.984 -0.2149 -0.0301  0.0748
14406DDP     C486436  21.186   7.630  23.662  0.0600  0.2035 -0.2349
14407DDP     C186437  15.122  20.169  14.280 -0.0639  0.0175  0.1409
14407DDP     P186438  15.143  20.369  13.956 -0.3016  0.1845  0.0883
14407DDP     P286439  15.075  19.754  14.227  0.0795 -0.0798 -0.0164
14407DDP     C286440  14.970  19.331  14.363  0.0672 -0.1948 -0.0152
14407DDP     C386441  15.287  20.741  13.659  0.1117  0.0586  0.0941
14407DDP     C486442  15.323  20.360  14.649 -0.0989  0.0558  0.1285
14408DDP     C186443   1.553   2.781   7.571  0.1383  0.3112 -0.2692
14408DDP     P186444   1.681   3.295   7.443  0.0013  0.3878  0.1640
14408DDP     P286445   1.140   2.717   7.858 -0.0589 -0.5762  0.0842
14408DDP     C286446   0.779   2.789   8.108  0.0446 -0.0834 -0.0849
14408DDP     C386447   1.689   3.609   7.187  0.2493 -0.0551  0.3334
14408DDP     C486448   1.420   2.320   7.423  0.2247  0.2291  0.1703
14409DDP     C186449  25.662  21.246   0.913 -0.1782 -0.1879 -0.2264
14409DDP     P186450  25.600  20.783   0.973 -0.2832 -0.1466  0.4123
14409DDP     P286451  25.384  21.476   1.008  0.2624  0.2827 -0.1001
14409DDP     C286452  25.027  21.675   1.181 -0.2567  0.0867  0.1088
14409DDP     C386453  25.532  20.411   1.177  0.0048 -0.0113  0.2955
14409DDP     C486454  25.796  21.482   0.645 -0.0964  0.0019 -0.1643
14410DDP     C186455   7.049  19.614   5.839 -0.3215 -0.2027 -0.0489
14410DDP     P186456   6.797  19.835   5.581 -0.1032 -0.3027  0.0672
14410DDP     P286457   6.914  19.194   6.003 -0.1492 -0.2562  0.3242
14410DDP     C286458   6.679  18.742   6.194  0.0194 -0.0846 -0.2497
14410DDP     C386459   6.678  19.858   5.144  0.1446  0.1087  0.0146
14410DDP     C486460   7.053  19.925   6.184 -0.0109 -0.2061 -0.0611
14411DDP     C186461  26.289  24.709  14.638 -0.1806  0.0761 -0.0276
14411DDP     P186462  26.417  24.308  14.417  0.1649 -0.1943 -0.0105
14411DDP     P286463  26.545  25.092  14.553 -0.3726 -0.1826  0.3533
14411DDP     C286464  26.433  25.515  14.576 -0.1149 -0.1884  0.1310
14411DDP     C386465  26.838  24.320  14.175  0.2084  0.0917 -0.1302
14411DDP     C486466  25.981  24.836  14.858  0.2018  0.3651  0.1608
14412DDP     C186467  16.294  28.187  20.061  0.1014 -0.0813 -0.0621
14412DDP     P186468  16.452  27.878  20.286  0.0526  0.2635  0.2980
14412DDP     P286469  15.791  28.222  19.925  0.4337  0.3343 -0.2458
14412DDP     C286470  15.441  28.071  19.839  0.0602  0.0772  0.0895
14412DDP     C386471  16.943  27.800  20.407 -0.1991  0.3623 -0.2187
14412DDP     C486472  16.580  28.218  19.716 -0.2140 -0.0406  0.0649
14413DDP     C186473  14.333   4.115  23.624  0.1409  0.2912 -0.0125
14413DDP     P186474  13.936   4.029  23.717  0.0561 -0.2539 -0.2156
14413DDP     P286475  14.540   4.436  23.852  0.0047 -0.2514 -0.2493
14413DDP     C286476  14.688   4.881  23.993 -0.0256  0.0011 -0.1458
14413DDP     C386477  13.518   3.953  23.807 -0.0346 -0.0459  0.1639
14413DDP     C486478  14.685   3.766  23.383  0.1448 -0.0181 -0.0228
14414DDP     C186479  16.937   4.043  24.552 -0.1427  0.0704  0.2401
14414DDP     P186480  16.556   4.000  24.335 -0.1111  0.0200 -0.0248
14414DDP     P286481  17.329   4.216  24.659 -0.1792  0.0703 -0.0609
14414DDP     C286482  17.556   4.593  24.798 -0.0496 -0.0456  0.3894
14414DDP     C386483  16.154   4.127  24.233  0.0236 -0.1183  0.2286
14414DDP     C486484  16.973   4.016  24.967  0.0330  0.0438 -0.0631
14415DDP     C186485  24.488   8.973  12.258 -0.0069  0.3089  0.1404
14415DDP     P186486  24.274   8.571  12.021 -0.0888 -0.0817  0.0997
14415DDP     P286487  24.311   9.346  12.194  0.0434  0.1354  0.1344
14415DDP     C286488  24.410   9.706  11.912  0.0633  0.2180 -0.2928
14415DDP     C386489  24.187   8.785  11.548 -0.0347  0.1201  0.0157
14415DDP     C486490  24.863   8.890  12.424  0.2472 -0.0299  0.0327
14416DDP     C186491  21.457  19.853   6.565  0.0359 -0.0983 -0.1209
14416DDP     P186492  21.552  19.729   6.946 -0.1231 -0.2916 -0.1026
14416DDP     P286493  21.313  19.408   6.324 -0.0616 -0.0956  0.2036
14416DDP     C286494  21.561  18.968   6.211  0.1933 -0.2110  0.0500
14416DDP     C386495  21.291  19.950   7.304  0.1739  0.0507  0.0888
14416DDP     C486496  21.427  20.243   6.377 -0.0242 -0.1048  0.0703
14417DDP     C186497  24.128  16.250   7.306 -0.0370 -0.2987  0.2054
14417DDP     P186498  23.864  15.967   7.565 -0.0181 -0.0573  0.1498
14417DDP     P286499  23.854  16.570   7.034  0.1856 -0.1267 -0.0761
14417DDP     C286500  23.490  16.807   7.166 -0.0494  0.0230  0.2589
14417DDP     C386501  23.628  15.761   7.442 -0.1318 -0.1724  0.1115
14417DDP     C486502  24.569  16.367   7.231  0.0880  0.0089 -0.1154
14418DDP     C186503  24.329  14.438  14.969  0.0803 -0.2866 -0.3865
14418DDP     P186504  24.135  14.433  15.408 -0.2380 -0.0129 -0.0267
14418DDP     P286505  24.809  14.464  14.844 -0.1406  0.0503  0.3183
14418DDP     C286506  25.188  14.511  14.803 -0.0692 -0.1223  0.3889
14418DDP     C386507  24.242  14.595  15.810 -0.1905 -0.2646 -0.1329
14418DDP     C486508  24.017  14.333  14.709 -0.2911  0.1094 -0.0759
14419DDP     C186509   3.656  30.207   1.088 -0.3497  0.1430  0.2211
14419DDP     P186510   3.284  -0.006   0.882 -0.0009 -0.3834 -0.1685
14419DDP     P286511   3.927  29.970   0.846  0.0366  0.0408 -0.2929
14419DDP     C286512   4.387  29.745   0.817 -0.3336  0.3748 -0.0680
14419DDP     C386513   3.015  29.989   0.636 -0.3587  0.1549  0.0259
14419DDP     C486514   3.706  30.218   1.504 -0.0830 -0.0476 -0.1337
14420DDP     C186515   3.611  28.123   5.006  0.1035  0.0834 -0.0184
14420DDP     P186516   3.856  27.855   5.395  0.0367 -0.0361 -0.1282
14420DDP     P286517   3.144  28.247   4.975  0.4172 -0.0452  0.0443
14420DDP     C286518   2.718  28.110   4.750 -0.1797 -0.1564  0.1494
14420DDP     C386519   4.146  27.606   5.614  0.0785 -0.0457 -0.0296
14420DDP     C486520   3.897  28.252   4.762 -0.0085 -0.4421  0.0918
14421DDP     C186521   2.090  22.582  28.636  0.1992 -0.0758  0.3400
14421DDP     P186522   2.061  23.009  28.504  0.2283  0.1751 -0.1523
14421DDP     P286523   2.406  22.542  28.960 -0.0001 -0.1407  0.0669
14421DDP     C286524   2.853  22.535  29.130 -0.1269  0.2852  0.1242
14421DDP     C386525   1.921  23.095  28.049  0.0149 -0.3131 -0.0538
14421DDP     C486526   1.829  22.362  28.558 -0.2702  0.0924  0.2879
14422DDP     C186527   7.783  25.343   9.825  0.0617  0.0416 -0.2320
14422DDP     P186528   7.701  25.233   9.328  0.1174  0.0034 -0.0449
14422DDP     P286529   7.462  25.672   9.778 -0.0072 -0.1101 -0.0426
14422DDP     C286530   7.129  25.963   9.607 -0.0285  0.1067  0.1295
14422DDP     C386531   7.736  25.510   8.871  0.0441  0.2113 -0.0244
14422DDP     C486532   8.010  25.268  10.212  0.4035  0.0576 -0.1432
14423DDP     C186533  24.899  27.625   3.211 -0.0357  0.0829 -0.2699
14423DDP     P186534  25.122  27.544   3.646  0.1506 -0.1365 -0.0376
14423DDP     P286535  24.436  27.658   3.193 -0.0791 -0.1105  0.0985
14423DDP     C286536  24.130  27.349   3.409 -0.1524 -0.3402 -0.0665
14423DDP     C386537  25.419  27.772   3.938  0.2152 -0.1985 -0.2234
14423DDP     C486538  25.240  27.846   2.927 -0.2174  0.1192 -0.0431
14424DDP     C186539  21.497  15.951  27.329  0.1068  0.0721 -0.1464
14424DDP     P186540  21.305  16.020  27.726  0.2000 -0.0112 -0.1198
14424DDP     P286541  21.889  15.865  27.390 -0.0561 -0.0508  0.1573
14424DDP     C286542  22.178  15.763  27.580 -0.0072  0.1117  0.1051
14424DDP     C386543  21.430  16.322  28.043  0.1240  0.1176  0.0021
14424DDP     C486544  21.186  15.997  26.991  0.0805 -0.0423  0.1325
14425DDP     C186545  14.460  12.116   8.372 -0.1331  0.2082 -0.0380
14425DDP     P186546  14.128  11.997   8.162  0.0870 -0.3080 -0.0023
14425DDP     P286547  14.533  12.025   8.824  0.0981  0.2487  0.4563
14425DDP     C286548  14.354  11.836   9.244 -0.2759  0.2547  0.1727
14425DDP     C386549  13.800  12.184   7.951 -0.3215 -0.0217  0.1260
14425DDP     C486550  14.941  12.331   8.209 -0.0756  0.0672  0.1948
14426DDP     C186551   5.629  13.194  18.750  0.2109  0.0301 -0.0649
14426DDP     P186552   5.607  13.057  18.424  0.0038 -0.0192 -0.1131
14426DDP     P286553   5.233  13.316  18.791  0.2513  0.0152  0.0208
14426DDP     C286554   4.809  13.497  18.803 -0.0375  0.0020  0.0410
14426DDP     C386555   5.859  13.190  18.084  0.0391  0.0031  0.0344
14426DDP     C486556   6.031  13.208  18.939  0.1074  0.0911  0.0342
14427DDP     C186557  21.378  18.577  10.101 -0.1741  0.0891 -0.1171
14427DDP     P186558  21.376  18.336   9.667  0.0251 -0.0582 -0.3071
14427DDP     P286559  21.066  18.323  10.523  0.0713  0.0042 -0.1457
14427DDP     C286560  20.981  18.210  10.946 -0.2377 -0.3675 -0.1231
14427DDP     C386561  21.052  18.100   9.565  0.1676 -0.1752  0.0728
14427DDP     C486562  21.482  19.026  10.135 -0.3462  0.1792  0.0650
14428DDP     C186563  29.741  18.775  18.900  0.0061 -0.0610 -0.0082
14428DDP     P186564  30.056  18.665  18.614 -0.2086 -0.1300 -0.0148
14428DDP     P286565  29.549  18.374  19.118 -0.0415  0.1089  0.2798
14428DDP     C286566  29.603  18.266  19.532 -0.1086  0.1221 -0.0254
14428DDP     C386567   0.130  18.774  18.344  0.0926 -0.1301 -0.0047
14428DDP     C486568  29.587  19.106  19.149  0.0215 -0.2116  0.0489
14429DDP     C186569  20.030  20.824  27.064 -0.0443  0.2718  0.3134
14429DDP     P186570  20.087  20.505  27.285 -0.1302 -0.0065 -0.2431
14429DDP     P286571  20.253  20.921  26.678 -0.1647  0.0504 -0.0154
14429DDP     C286572  20.276  21.005  26.300  0.0730  0.1049 -0.0442
14429DDP     C386573  20.481  20.409  27.521  0.3196  0.3388  0.0625
14429DDP     C486574  19.685  21.022  27.180  0.0519  0.0177  0.1607
14430DDP     C186575   5.504   6.032  22.381 -0.1016  0.3117 -0.1564
14430DDP     P186576   5.875   5.897  22.429  0.2448  0.0960 -0.2320
14430DDP     P286577   5.295   5.685  22.352 -0.1219 -0.0762 -0.1178
14430DDP     C286578   4.984   5.290  22.243 -0.1547 -0.3611  0.1106
14430DDP     C386579   6.199   6.080  22.264  0.0653 -0.1976 -0.0639
14430DDP     C486580   5.420   6.304  22.019  0.0855  0.3022 -0.0151
14431DDP     C186581   5.549  13.688  11.634  0.0014 -0.3859  0.0730
14431DDP     P186582   5.389  14.041  11.472  0.2396  0.0786  0.0366
14431DDP     P286583   5.426  13.374  11.589  0.1677 -0.0857  0.0359
14431DDP     C286584   5.632  12.939  11.512 -0.0131  0.0312  0.0957
14431DDP     C386585   5.116  14.399  11.543  0.1047 -0.0689 -0.1393
14431DDP     C486586   6.013  13.714  11.777 -0.1416  0.2442 -0.1466
14432DDP     C186587  27.574  16.258  16.732  0.0104  0.0515  0.2332
14432DDP     P186588  27.606  16.708  16.660 -0.0969 -0.2026  0.3656
14432DDP     P286589  27.539  15.954  16.449  0.1160  0.3004  0.1888
14432DDP     C286590  27.897  15.808  16.266 -0.2509 -0.0152 -0.1631
14432DDP     C386591  27.917  17.064  16.642 -0.0485 -0.0768  0.1192
14432DDP     C486592  27.531  16.180  17.136  0.0582 -0.0081  0.3581
14433DDP     C186593  18.480  27.375  30.073  0.1437 -0.0603 -0.3057
14433DDP     P186594  18.563  27.463  29.645  0.2360 -0.0221 -0.5465
14433DDP     P286595  18.712  27.667   0.024  0.0872  0.2500  0.1383
14433DDP     C286596  18.664  27.968   0.396  0.0419 -0.3231  0.0919
14433DDP     C386597  18.507  27.082  29.388  0.3036  0.1069 -0.0321
14433DDP     C486598  18.379  26.904  30.270  0.0668 -0.0278 -0.2289
14434DDP     C186599  18.722   1.909   0.134 -0.0605  0.1258  0.1405
14434DDP     P186600  18.295   1.861   0.019  0.0739 -0.0060 -0.0765
14434DDP     P286601  18.958   2.051  30.125  0.0820 -0.0472 -0.1759
14434DDP     C286602  18.620   2.186  29.789 -0.2650 -0.0064 -0.4209
14434DDP     C386603  17.889   1.874   0.200  0.1455  0.3154  0.0151
14434DDP     C486604  18.854   2.005   0.554  0.1738  0.2855  0.0700
14435DDP     C186605   5.702  20.454  15.776 -0.1580  0.0039  0.0514
14435DDP     P186606   5.567  20.100  15.606 -0.1308  0.1303 -0.1039
14435DDP     P286607   6.045  20.525  15.493 -0.0399  0.0767  0.1313
14435DDP     C286608   6.114  20.770  15.121  0.2045  0.3492 -0.2546
14435DDP     C386609   5.597  19.619  15.539  0.1616  0.0719  0.2147
14435DDP     C486610   5.565  20.588  16.141 -0.3710  0.2591  0.0356
14436DDP     C186611  21.913   6.001   6.321  0.1506  0.1755 -0.0225
14436DDP     P186612  21.694   6.235   6.050 -0.1553 -0.0068  0.0882
14436DDP     P286613  22.078   5.647   6.172 -0.0473 -0.1079  0.3551
14436DDP     C286614  21.985   5.247   5.894 -0.1724 -0.0361  0.0086
14436DDP     C386615  21.365   6.612   5.955  0.0682 -0.1783 -0.0934
14436DDP     C486616  22.028   6.152   6.690 -0.1273 -0.1996  0.0735
14437DDP     C186617  23.350  23.467   3.271 -0.0823  0.1139  0.0924
14437DDP     P186618  23.731  23.078   3.281 -0.1659  0.0782 -0.0650
14437DDP     P286619  23.224  23.674   3.622 -0.4552 -0.0042  0.0318
14437DDP     C286620  23.521  23.645   3.977  0.2539  0.0508  0.1708
14437DDP     C386621  23.872  22.625   3.470  0.0460  0.2042  0.4206
14437DDP     C486622  23.093  23.487   3.007  0.1451  0.0857  0.1944
14438DDP     C186623  27.623  -0.025  29.788  0.0653 -0.0367  0.1473
14438DDP     P186624  27.491   0.275  29.470 -0.1914 -0.0099  0.3963
14438DDP     P286625  27.862   0.200  30.151 -0.0464  0.1090 -0.0855
14438DDP     C286626  27.944   0.603   0.152 -0.2966  0.0150 -0.2001
14438DDP     C386627  27.551   0.698  29.517  0.2552  0.2813  0.1428
14438DDP     C486628  27.354  29.930  29.834 -0.1480 -0.1619  0.1338
14439DDP     C186629  10.385  26.780   4.606 -0.1528 -0.0825 -0.1068
14439DDP     P186630  10.357  27.195   4.898  0.3393  0.0243  0.1651
14439DDP     P286631  10.715  26.748   4.239  0.1462 -0.0024  0.2294
14439DDP     C286632  11.036  26.560   3.985  0.1676  0.1752 -0.0870
14439DDP     C386633  10.500  27.583   5.125  0.2290  0.2817  0.3044
14439DDP     C486634  10.090  26.437   4.750  0.1737  0.0437  0.0857
14440DDP     C186635  22.017  11.523   4.192  0.2002  0.3655 -0.1368
14440DDP     P186636  21.973  11.203   3.934 -0.3949  0.1979 -0.0898
14440DDP     P286637  21.567  11.789   4.146  0.0189  0.0283 -0.1771
14440DDP     C286638  21.127  11.680   4.098  0.3033 -0.0421  0.1765
14440DDP     C386639  21.618  10.967   3.727 -0.2417  0.1595 -0.0985
14440DDP     C486640  22.338  11.555   4.437 -0.0951  0.1240  0.1357
14441DDP     C186641  20.316  17.658   6.172 -0.0899 -0.2740  0.1379
14441DDP     P186642  20.352  17.534   5.830  0.2573 -0.1017 -0.0805
14441DDP     P286643  19.921  17.743   6.478  0.0056  0.1193  0.0947
14441DDP     C286644  19.935  18.021   6.866 -0.0894  0.3747 -0.3118
14441DDP     C386645  20.041  17.395   5.471 -0.2756  0.1533  0.2383
14441DDP     C486646  20.766  17.726   6.276 -0.0977  0.2095  0.0856
14442DDP     C186647  13.689   2.455  26.699 -0.1354 -0.0247 -0.0536
14442DDP     P186648  13.664   2.839  26.598  0.1264  0.2072 -0.2265
14442DDP     P286649  14.099   2.319  26.362 -0.0254 -0.3187 -0.0480
14442DDP     C286650  14.380   2.328  26.044 -0.1559 -0.2596 -0.0693
14442DDP     C386651  13.683   3.130  26.226  0.0298 -0.0869 -0.2327
14442DDP     C486652  13.307   2.248  26.816  0.0717 -0.3238  0.0920
14443DDP     C186653  10.702  25.193  24.591  0.0530 -0.0409  0.1607
14443DDP     P186654  10.803  25.658  24.404 -0.0436  0.2147  0.1301
14443DDP     P286655  10.434  25.032  24.360 -0.1346  0.1890  0.2261
14443DDP     C286656  10.317  24.708  24.236 -0.2305  0.0436 -0.1391
14443DDP     C386657  11.015  25.732  24.070 -0.2773  0.3015 -0.0756
14443DDP     C486658  10.783  25.120  25.014  0.2066  0.1978  0.3504
14444DDP     C186659  29.834  21.511  22.801 -0.0790  0.0120 -0.1241
14444DDP     P186660  30.274  21.595  23.078 -0.1100  0.1427 -0.1820
14444DDP     P286661  29.434  21.532  23.045 -0.1181  0.1686  0.1741
14444DDP     C286662  29.134  21.581  23.432 -0.1353 -0.1553 -0.2469
14444DDP     C386663   0.387  21.647  23.004  0.2008  0.2556 -0.1465
14444DDP     C486664  29.776  21.404  22.347 -0.2748  0.0766 -0.2431
14445DDP     C186665  14.829   6.650  24.787 -0.3398  0.2658  0.1753
14445DDP     P186666  14.791   6.209  24.729 -0.2785  0.1192  0.1414
14445DDP     P286667  14.535   6.841  24.447 -0.1279  0.3119  0.2785
14445DDP     C286668  14.116   7.090  24.170  0.2007 -0.0268 -0.2349
14445DDP     C386669  14.766   5.697  24.613  0.0066  0.3511 -0.0322
14445DDP     C486670  15.176   6.905  24.932 -0.0377 -0.0248  0.1520
14446DDP     C186671   3.051  18.139   8.783 -0.1007 -0.1899  0.0403
14446DDP     P186672   2.765  18.447   9.054  0.1972 -0.1152 -0.0334
14446DDP     P286673   2.718  18.035   8.387  0.1899 -0.0776 -0.1658
14446DDP     C286674   2.588  17.975   7.977 -0.1142  0.0741 -0.0996
14446DDP     C386675   2.573  18.460   9.476 -0.0304  0.0909 -0.1420
14446DDP     C486676   3.496  18.238   8.910  0.2272 -0.1688  0.0102
14447DDP     C186677  23.889  29.487   3.297  0.3139  0.0645 -0.0339
14447DDP     P186678  23.767  29.805   3.332 -0.0889  0.1626  0.0062
14447DDP     P286679  23.602  29.114   3.450 -0.0032  0.0318 -0.1686
14447DDP     C286680  23.164  28.792   3.623 -0.1746 -0.1372  0.0750
14447DDP     C386681  23.813  30.021   3.056 -0.1865 -0.1664  0.2464
14447DDP     C486682  23.892  29.524   2.917  0.2156 -0.3795  0.3339
14448DDP     C186683   9.298  13.335  22.001  0.0061  0.2348  0.0241
14448DDP     P186684   9.053  12.930  21.902 -0.0397 -0.1017 -0.0818
14448DDP     P286685   9.170  13.792  22.108 -0.0499  0.1586 -0.1288
14448DDP     C286686   9.039  14.231  22.002  0.0247 -0.1614  0.3756
14448DDP     C386687   8.692  12.865  21.615  0.2469  0.0378 -0.0479
14448DDP     C486688   9.685  13.205  22.059  0.2879  0.1042  0.2467
14449DDP     C186689  29.823  21.284  20.185  0.0653  0.1298 -0.1945
14449DDP     P186690  29.619  21.485  20.438 -0.1910  0.0286  0.1674
14449DDP     P286691  29.494  20.957  20.353  0.0791  0.1003 -0.1823
14449DDP     C286692  29.234  20.615  20.244  0.2477 -0.2998  0.1790
14449DDP     C386693  29.355  21.797  20.852 -0.0609 -0.0062 -0.0324
14449DDP     C486694  30.130  21.118  19.957 -0.1532  0.1404  0.2730
14450DDP     C186695  16.277  15.240  22.605 -0.1033 -0.2425  0.3970
14450DDP     P186696  15.847  15.437  22.845 -0.0873 -0.1513  0.1777
14450DDP     P286697  16.709  15.405  22.741 -0.0052  0.1343 -0.4228
14450DDP     C286698  16.921  15.718  22.778  0.2157 -0.1054  0.2648
14450DDP     C386699  15.883  15.434  23.301  0.1006 -0.1923 -0.0565
14450DDP     C486700  16.320  14.824  22.645 -0.0695 -0.0857 -0.0077
14451DDP     C186701   6.210  10.817  14.564 -0.2247 -0.0254  0.2704
14451DDP     P186702   6.618  10.876  14.742  0.1528 -0.3423  0.0503
14451DDP     P286703   6.133  10.950  14.211 -0.0675  0.0175 -0.3734
14451DDP     C286704   6.289  10.809  13.821 -0.0058  0.0569  0.0802
14451DDP     C386705   6.997  10.784  14.682 -0.0807 -0.0461 -0.0830
14451DDP     C486706   5.781  10.610  14.718  0.1106  0.1633  0.1554
14452DDP     C186707  16.811   1.431  14.877 -0.3054  0.2722 -0.2408
14452DDP     P186708  16.402   1.630  15.052 -0.1872 -0.2133  0.0668
14452DDP     P286709  17.285   1.538  14.972  0.0168 -0.2437 -0.1708
14452DDP     C286710  17.611   1.352  15.093  0.1030 -0.0206  0.0503
14452DDP     C386711  16.079   1.913  14.896  0.1016  0.1448  0.1450
14452DDP     C486712  16.640   1.196  14.521  0.0319  0.0842  0.0825
14453DDP     C186713  15.454   4.463  16.403  0.1344  0.1156  0.2774
14453DDP     P186714  15.034   4.483  16.394 -0.0479  0.1131  0.0328
14453DDP     P286715  15.580   4.672  16.048  0.0787 -0.1965 -0.0113
14453DDP     C286716  15.488   5.009  15.723 -0.2630 -0.0735  0.0562
14453DDP     C386717  14.641   4.231  16.465 -0.0984  0.1354  0.1563
14453DDP     C486718  15.679   4.115  16.541 -0.0970 -0.2302  0.1375
14454DDP     C186719  30.193  22.189  28.202  0.0667 -0.1519 -0.4294
14454DDP     P186720   0.266  22.238  27.865 -0.0218 -0.0700 -0.1803
14454DDP     P286721  29.711  22.208  28.107  0.2261  0.1211 -0.2313
14454DDP     C286722  29.379  21.934  27.894  0.1736  0.1544 -0.2392
14454DDP     C386723   0.520  22.250  27.463  0.0998  0.4059  0.0561
14454DDP     C486724  -0.018  22.101  28.587 -0.1111  0.2943  0.0618
14455DDP     C186725  10.129  21.458  27.463 -0.0441 -0.0829 -0.1495
14455DDP     P186726  10.458  21.442  27.704 -0.0393 -0.2548  0.5770
14455DDP     P286727  10.046  21.470  27.016  0.0989 -0.3151 -0.0817
14455DDP     C286728   9.688  21.725  26.799 -0.0006  0.0988 -0.3781
14455DDP     C386729  10.935  21.501  27.527  0.3757  0.0909  0.2782
14455DDP     C486730   9.926  21.176  27.770 -0.1121  0.2413 -0.1443
14456DDP     C186731   4.827  22.143   1.372  0.2996 -0.0420 -0.2996
14456DDP     P186732   4.990  22.533   1.428 -0.3683 -0.1416  0.1797
14456DDP     P286733   4.544  22.087   1.688 -0.0425  0.1133 -0.0359
14456DDP     C286734   4.330  22.183   2.056 -0.3378 -0.0566  0.4636
14456DDP     C386735   4.730  22.996   1.270  0.1150  0.0096 -0.2637
14456DDP     C486736   4.978  21.873   1.200  0.0455 -0.4744  0.4884
14457DDP     C186737   1.012   6.314  18.434 -0.0124 -0.1766 -0.1804
14457DDP     P186738   1.052   6.213  18.800 -0.1461 -0.3546 -0.1899
14457DDP     P286739   1.017   6.723  18.264 -0.1861  0.2873 -0.1343
14457DDP     C286740   1.125   7.089  18.024 -0.4361 -0.0024  0.1764
14457DDP     C386741   1.246   6.351  19.094 -0.3360  0.0815  0.3807
14457DDP     C486742   0.902   6.046  18.074  0.1849  0.0105  0.2802
14458DDP     C186743  18.949  29.956   2.789  0.0045 -0.0425  0.0950
14458DDP     P186744  18.641  29.833   3.041 -0.1680 -0.1899  0.1892
14458DDP     P286745  18.837  30.075   2.393  0.1071  0.1391 -0.2036
14458DDP     C286746  18.708   0.137   2.145 -0.0130 -0.0690 -0.2279
14458DDP     C386747  18.301  29.783   3.447 -0.0204  0.1541 -0.0274
14458DDP     C486748  19.388  29.982   3.004 -0.0219 -0.4553  0.2123
14459DDP     C186749  23.886  25.371   2.001  0.3064 -0.1063  0.1032
14459DDP     P186750  23.631  25.682   1.798  0.0329 -0.1822  0.3882
14459DDP     P286751  23.959  25.348   2.392  0.1380  0.0938 -0.0711
14459DDP     C286752  24.077  25.019   2.642  0.0948 -0.2276  0.0147
14459DDP     C386753  23.195  25.699   1.675 -0.0967 -0.0323  0.5187
14459DDP     C486754  24.219  25.072   1.790  0.1644  0.0933  0.6472
14460DDP     C186755  22.028   4.404  19.424 -0.0548  0.1284  0.1694
14460DDP     P186756  22.215   4.266  19.116  0.0552 -0.0951  0.0301
14460DDP     P286757  21.938   4.091  19.767 -0.2630  0.1908  0.2728
14460DDP     C286758  21.874   3.878  20.111 -0.0567  0.1917  0.1376
14460DDP     C386759  22.498   4.496  18.858  0.2097  0.2015 -0.1892
14460DDP     C486760  21.840   4.788  19.339 -0.1454 -0.1456 -0.0252
14461DDP     C186761   6.908   1.429   0.801  0.1363  0.1057 -0.1655
14461DDP     P186762   7.374   1.513   0.771 -0.0825  0.2324  0.0651
14461DDP     P286763   6.693   1.740   1.055  0.0040  0.2083  0.0232
14461DDP     C286764   6.582   1.993   1.432  0.1045 -0.3405  0.0365
14461DDP     C386765   7.587   1.544   0.420  0.0781 -0.1863 -0.0391
14461DDP     C486766   6.851   0.885   0.636 -0.0661  0.1566 -0.0991
14462DDP     C186767   7.544   4.166   1.371 -0.0757 -0.2738 -0.0604
14462DDP     P186768   7.820   4.449   1.307 -0.1420 -0.0432  0.2100
14462DDP     P286769   7.084   4.311   1.428  0.0186 -0.0207  0.1291
14462DDP     C286770   6.769   4.537   1.130 -0.0373 -0.3159 -0.0066
14462DDP     C386771   8.093   4.246   1.460 -0.0732  0.2038 -0.1245
14462DDP     C486772   7.687   3.753   1.251 -0.2596  0.2769  0.1483
14463DDP     C186773  22.187  16.983  22.728  0.0256  0.2694  0.1847
14463DDP     P186774  22.469  17.344  22.506  0.0550 -0.0658  0.1048
14463DDP     P286775  22.365  16.734  22.974  0.0009  0.0042 -0.2579
14463DDP     C286776  22.254  16.378  23.141  0.1792  0.2712  0.1460
14463DDP     C386777  22.935  17.523  22.429  0.2478  0.2617  0.1769
14463DDP     C486778  21.768  16.844  22.598  0.0077  0.1768 -0.2925
14464DDP     C186779  25.758  12.273   5.877 -0.0345  0.3270 -0.2783
14464DDP     P186780  25.456  12.462   6.144 -0.2402 -0.1650 -0.2356
14464DDP     P286781  25.989  12.489   5.633 -0.2591 -0.0238 -0.1858
14464DDP     C286782  26.461  12.598   5.591  0.1762 -0.1705 -0.1697
14464DDP     C386783  25.160  12.782   6.122 -0.2406  0.2491  0.2507
14464DDP     C486784  25.659  11.838   6.049  0.2545  0.1101 -0.2917
14465DDP     C186785  18.227  12.035  20.417 -0.0290 -0.0302 -0.0679
14465DDP     P186786  17.971  11.714  20.302  0.2749  0.1415  0.0261
14465DDP     P286787  18.285  12.238  20.881 -0.1757  0.1787 -0.0712
14465DDP     C286788  18.540  12.056  21.265 -0.2429 -0.1905 -0.1776
14465DDP     C386789  17.556  11.669  20.322  0.0817 -0.1658  0.1729
14465DDP     C486790  18.640  12.151  20.211 -0.0537 -0.1365  0.1273
14466DDP     C186791   0.940  23.809  20.458  0.1229  0.0181 -0.0730
14466DDP     P186792   0.906  23.449  20.157 -0.1436  0.0870 -0.0210
14466DDP     P286793   0.952  23.675  20.924 -0.1290 -0.0826 -0.2851
14466DDP     C286794   0.889  23.608  21.293 -0.1897  0.0415 -0.0251
14466DDP     C386795   0.733  23.413  19.614  0.1705  0.0100 -0.1562
14466DDP     C486796   1.178  24.123  20.282 -0.0363 -0.2559 -0.2584
14467DDP     C186797  28.780  10.595   1.051  0.0883 -0.0358  0.2799
14467DDP     P186798  28.836  10.220   1.120 -0.3307 -0.3732 -0.1750
14467DDP     P286799  28.475  10.620   0.736  0.2589  0.0768  0.1675
14467DDP     C286800  28.307  11.080   0.482 -0.3980  0.2270  0.0131
14467DDP     C386801  29.226   9.923   1.385 -0.2009 -0.0300 -0.0828
14467DDP     C486802  28.972  11.021   1.171 -0.2867  0.0816  0.1622
14468DDP     C186803   5.959   4.983  22.768 -0.0312  0.1924  0.0692
14468DDP     P186804   6.392   5.028  22.910  0.0233  0.0330 -0.0538
14468DDP     P286805   5.683   4.705  22.531 -0.2048 -0.0924  0.1516
14468DDP     C286806   5.391   4.403  22.455 -0.0819 -0.1775  0.1334
14468DDP     C386807   6.611   5.045  23.335  0.2110  0.1939 -0.0743
14468DDP     C486808   5.976   5.441  22.753 -0.2656 -0.1714 -0.1301
14469DDP     C186809  11.919   9.184   4.224  0.1003  0.0344  0.3309
14469DDP     P186810  11.826   9.143   3.917 -0.2178 -0.0713  0.1692
14469DDP     P286811  11.992   8.829   4.545  0.0206 -0.2652 -0.1556
14469DDP     C286812  12.219   8.715   4.903 -0.1659 -0.0225  0.0881
14469DDP     C386813  11.830   8.939   3.583  0.1034  0.1042 -0.2141
14469DDP     C486814  12.195   9.568   4.311 -0.2291  0.2315  0.4156
14470DDP     C186815  16.200   9.483   5.866  0.1529  0.3152 -0.0337
14470DDP     P186816  15.857   9.234   5.827 -0.1535  0.1643 -0.0179
14470DDP     P286817  16.484   9.201   6.057  0.0677 -0.2203  0.1324
14470DDP     C286818  16.720   9.141   6.418  0.0007  0.0366  0.0550
14470DDP     C386819  15.440   8.853   5.976  0.0869  0.1914  0.2920
14470DDP     C486820  16.104   9.741   5.663 -0.0244  0.0676 -0.0987
14471DDP     C186821  23.809  16.138   6.569 -0.0683 -0.2491  0.0847
14471DDP     P186822  23.643  15.809   6.399 -0.1462  0.0647  0.1037
14471DDP     P286823  24.183  16.050   6.517 -0.2330  0.3453  0.0603
14471DDP     C286824  24.539  15.938   6.435  0.0109  0.1452 -0.0721
14471DDP     C386825  23.317  15.555   6.159  0.1293  0.1617  0.1662
14471DDP     C486826  23.692  16.538   6.546 -0.0231  0.0064 -0.2334
14472DDP     C186827  17.565  20.749  23.866  0.4445 -0.0890  0.1871
14472DDP     P186828  17.978  20.797  24.046 -0.1119  0.0827 -0.1802
14472DDP     P286829  17.272  20.947  24.198 -0.1721  0.0427  0.0607
14472DDP     C286830  17.221  21.382  24.183 -0.0006 -0.1564 -0.1811
14472DDP     C386831  18.356  20.862  23.869  0.0810  0.0124  0.0891
14472DDP     C486832  17.532  20.419  23.504  0.1456  0.0690  0.2128
14473DDP     C186833  26.271  27.601   6.651  0.1261 -0.0238  0.0101
14473DDP     P186834  26.427  27.300   6.402  0.1081 -0.5526  0.1753
14473DDP     P286835  26.353  27.514   7.039 -0.4974  0.2201  0.2002
14473DDP     C286836  26.782  27.348   7.312  0.2629  0.0698 -0.1786
14473DDP     C386837  26.559  27.123   6.100 -0.0865 -0.3772  0.1299
14473DDP     C486838  26.173  27.943   6.512  0.2591 -0.0669  0.0763
14474DDP     C186839   3.417  18.380  14.483 -0.1090  0.0498 -0.1498
14474DDP     P186840   2.973  18.189  14.537  0.0757 -0.1689 -0.3389
14474DDP     P286841   3.392  18.491  14.051 -0.0976 -0.1891  0.0063
14474DDP     C286842   3.167  18.409  13.674 -0.3285  0.2668 -0.3082
14474DDP     C386843   2.728  18.209  14.952 -0.3405  0.2375  0.2173
14474DDP     C486844   3.526  18.626  14.758  0.0411  0.0250 -0.0575
14475DDP     C186845  18.846  15.442  10.574 -0.1435  0.0906  0.1463
14475DDP     P186846  19.128  15.844  10.494  0.1474 -0.0395  0.2016
14475DDP     P286847  18.894  15.066  10.689  0.1159 -0.0409  0.2855
14475DDP     C286848  19.023  14.669  10.735 -0.2347  0.0892 -0.4158
14475DDP     C386849  19.524  15.769  10.294 -0.3690  0.2454  0.1780
14475DDP     C486850  18.669  15.293  10.172  0.0350 -0.2819  0.4226
14476DDP     C186851  15.922  17.234  11.266 -0.2239 -0.0575 -0.0309
14476DDP     P186852  15.810  17.270  10.859 -0.1572 -0.0700 -0.1561
14476DDP     P286853  15.567  17.473  11.491 -0.1486  0.1399  0.0360
14476DDP     C286854  15.441  17.424  11.853 -0.2673  0.0044 -0.1026
14476DDP     C386855  15.391  17.309  10.632 -0.0233  0.2680 -0.1355
14476DDP     C486856  16.333  17.148  11.491  0.3776  0.0124 -0.0373
14477DDP     C186857   9.244  26.683   3.666 -0.2535 -0.1633  0.3729
14477DDP     P186858   9.114  26.725   3.184 -0.1354  0.1960  0.2255
14477DDP     P286859   9.687  26.655   3.731  0.3588  0.1003  0.0667
14477DDP     C286860   9.787  26.807   4.203  0.1433 -0.0772  0.0760
14477DDP     C386861   8.791  26.672   2.997 -0.0761 -0.0110  0.1474
14477DDP     C486862   8.895  26.773   4.043  0.2895  0.1648  0.2661
14478DDP     C186863   5.851  20.676  17.674  0.0951 -0.0799  0.1009
14478DDP     P186864   5.567  21.018  17.758 -0.2086  0.1181  0.0805
14478DDP     P286865   5.689  20.211  17.559  0.1517  0.0196 -0.0803
14478DDP     C286866   5.819  19.848  17.735  0.0139  0.1058 -0.3032
14478DDP     C386867   5.440  21.451  17.906  0.1101 -0.1301  0.0989
14478DDP     C486868   6.284  20.743  17.945  0.0454 -0.1467 -0.0125
14479DDP     C186869  15.220  25.544  23.260  0.0276 -0.0640 -0.3613
14479DDP     P186870  15.563  25.194  23.378 -0.2712  0.0334 -0.0593
14479DDP     P286871  14.917  25.772  23.343 -0.0318  0.1712  0.1421
14479DDP     C286872  14.759  26.122  23.448  0.1566 -0.1131  0.1175
14479DDP     C386873  15.791  24.950  23.768  0.1039  0.1055  0.2383
14479DDP     C486874  15.396  25.607  22.884 -0.0430  0.3497  0.2438
14480DDP     C186875  11.222  15.402   6.712 -0.0039  0.1185 -0.2846
14480DDP     P186876  10.848  15.264   6.901 -0.1601 -0.1739 -0.0893
14480DDP     P286877  11.618  15.342   6.927 -0.0865 -0.2077 -0.1727
14480DDP     C286878  11.736  15.233   7.399  0.1840  0.2492 -0.2438
14480DDP     C386879  10.552  14.944   7.018  0.0963  0.0952 -0.2127
14480DDP     C486880  11.265  15.703   6.434  0.2896  0.0286  0.1697
14481DDP     C186881  28.345   8.965   2.296  0.0086 -0.1828  0.2798
14481DDP     P186882  28.542   9.173   2.608 -0.0145 -0.0077 -0.1897
14481DDP     P286883  27.872   8.986   2.276 -0.1084  0.1465  0.3511
14481DDP     C286884  27.637   8.824   1.884  0.0138  0.0628  0.0193
14481DDP     C386885  28.830   9.084   3.002  0.1834 -0.2381 -0.2164
14481DDP     C486886  28.650   8.700   1.913 -0.0478  0.0445 -0.0773
14482DDP     C186887  21.625   2.283  17.118  0.5556 -0.0119  0.1987
14482DDP     P186888  21.378   2.039  17.404  0.0960  0.1134 -0.2552
14482DDP     P286889  21.495   2.477  16.738  0.1284  0.0155 -0.0464
14482DDP     C286890  21.232   2.602  16.418 -0.0651  0.2746  0.0005
14482DDP     C386891  21.030   1.903  17.732  0.0022 -0.1252  0.0937
14482DDP     C486892  22.067   2.242  17.287 -0.0062  0.0658  0.0218
14483DDP     C186893  27.830  10.467   7.108  0.1191  0.3690 -0.1224
14483DDP     P186894  27.902  10.058   6.790  0.2134 -0.1973  0.1540
14483DDP     P286895  27.417  10.431   7.384 -0.1083 -0.0360 -0.0305
14483DDP     C286896  27.442  10.510   7.834 -0.1614 -0.0512 -0.3489
14483DDP     C386897  27.773  10.079   6.304  0.1442  0.2339  0.2149
14483DDP     C486898  28.106  10.882   7.128 -0.0703  0.2225 -0.1859
14484DDP     C186899   6.751  28.362   1.167 -0.2222 -0.1706  0.1235
14484DDP     P186900   6.486  28.205   0.933  0.1118  0.2917  0.0486
14484DDP     P286901   6.796  28.722   0.890  0.0174  0.0009 -0.0229
14484DDP     C286902   6.585  29.162   0.853 -0.0532  0.0425  0.0400
14484DDP     C386903   6.093  28.276   0.713  0.1015  0.1580 -0.1565
14484DDP     C486904   6.680  28.287   1.645  0.0573  0.4118  0.1322
14485DDP     C186905  28.554  16.060  14.742  0.1361 -0.0358  0.1386
14485DDP     P186906  28.811  16.459  14.502  0.1349 -0.3011 -0.1057
14485DDP     P286907  28.734  15.812  15.067  0.0721 -0.3710 -0.1678
14485DDP     C286908  28.952  15.522  15.294  0.1105 -0.2846 -0.1072
14485DDP     C386909  29.186  16.536  14.210  0.1818 -0.2698 -0.1843
14485DDP     C486910  28.260  15.911  14.528 -0.2165 -0.0551  0.1656
14486DDP     C186911   2.522  20.404   2.797 -0.0135 -0.0772  0.0632
14486DDP     P186912   2.853  20.097   2.666 -0.0396  0.0741  0.1415
14486DDP     P286913   2.258  20.645   2.451 -0.1288 -0.0673  0.3149
14486DDP     C286914   2.077  20.495   2.121 -0.2196 -0.2329  0.1481
14486DDP     C386915   2.691  19.736   2.487  0.0036  0.0436  0.3867
14486DDP     C486916   2.584  20.607   3.254 -0.1141  0.0040 -0.0138
14487DDP     C186917   6.021   7.928  18.589  0.1958 -0.3626  0.0582
14487DDP     P186918   5.835   8.123  18.764 -0.3666  0.2408  0.3032
14487DDP     P286919   6.347   7.838  18.823 -0.2102  0.2283  0.0173
14487DDP     C286920   6.554   7.813  19.313  0.0261  0.4177  0.1312
14487DDP     C386921   5.547   8.292  19.042  0.3143  0.4163  0.2090
14487DDP     C486922   5.917   7.843  18.156 -0.0791  0.0129 -0.0041
14488DDP     C186923  12.590  10.364  20.108  0.0319 -0.0824  0.3042
14488DDP     P186924  12.523   9.969  20.361  0.0533 -0.1230 -0.1482
14488DDP     P286925  12.950  10.529  20.058 -0.1155 -0.2457  0.1422
14488DDP     C286926  13.211  10.782  19.949  0.1208 -0.2338  0.2992
14488DDP     C386927  12.472   9.943  20.708 -0.0904  0.1658  0.1369
14488DDP     C486928  12.219  10.414  19.868 -0.1661  0.1772  0.2071
14489DDP     C186929  17.623   2.731  21.633  0.0114  0.1840 -0.1088
14489DDP     P186930  17.741   3.033  21.336  0.1290 -0.0738 -0.1199
14489DDP     P286931  17.754   2.916  22.044  0.3743  0.2634 -0.1628
14489DDP     C286932  17.876   3.017  22.367 -0.3273 -0.0126 -0.0839
14489DDP     C386933  17.600   3.403  21.358 -0.1117  0.0338 -0.0284
14489DDP     C486934  17.621   2.298  21.596  0.2991 -0.2782 -0.1381
14490DDP     C186935  29.418   4.948  22.400  0.1312 -0.0817 -0.2296
14490DDP     P186936  29.286   4.665  22.693  0.4440  0.0600  0.6138
14490DDP     P286937  29.352   4.961  21.924  0.0228 -0.3396  0.0412
14490DDP     C286938  29.534   4.997  21.587  0.1115 -0.0306 -0.0719
14490DDP     C386939  29.588   4.415  23.063  0.1458  0.0446 -0.0209
14490DDP     C486940  29.734   5.226  22.449 -0.0717  0.0329 -0.2206
14491DDP     C186941  27.923  21.517   4.373 -0.1136  0.1504 -0.1368
14491DDP     P186942  27.668  21.906   4.265 -0.0977 -0.0813 -0.1777
14491DDP     P286943  28.115  21.551   4.779 -0.1293  0.0628  0.2709
14491DDP     C286944  28.117  21.828   5.048  0.0105  0.2164 -0.2079
14491DDP     C386945  27.925  22.329   4.068  0.3187 -0.2097  0.0407
14491DDP     C486946  27.619  21.201   4.092 -0.2759  0.0656 -0.1141
14492DDP     C186947  21.682  12.651  11.775 -0.1748  0.0410  0.1394
14492DDP     P186948  22.063  12.661  11.900  0.1312  0.0412  0.1484
14492DDP     P286949  21.319  12.961  11.846 -0.2507 -0.2984  0.1982
14492DDP     C286950  21.133  13.357  12.095  0.2823 -0.1093  0.0867
14492DDP     C386951  22.465  12.677  11.898 -0.0242  0.0345  0.0574
14492DDP     C486952  21.497  12.300  11.523 -0.3874  0.2741  0.1233
14493DDP     C186953  14.301   5.931  14.751  0.2417  0.0938  0.1525
14493DDP     P186954  14.659   5.624  14.704  0.1914 -0.0288  0.0814
14493DDP     P286955  14.043   5.457  14.742  0.1094  0.1230  0.3705
14493DDP     C286956  13.899   5.048  14.786 -0.2042 -0.1281 -0.1066
14493DDP     C386957  15.071   5.533  14.528  0.0195  0.2511 -0.0822
14493DDP     C486958  14.193   6.234  14.910  0.2582 -0.0006 -0.2400
14494DDP     C186959   6.419   8.816   2.190  0.2416 -0.1508  0.0276
14494DDP     P186960   6.753   8.792   1.857  0.0270 -0.1140  0.1162
14494DDP     P286961   6.587   8.754   2.542 -0.0761 -0.0446 -0.2573
14494DDP     C286962   6.722   8.931   2.939 -0.1820 -0.1418  0.0397
14494DDP     C386963   6.733   8.503   1.572 -0.1232 -0.0427  0.1529
14494DDP     C486964   5.993   8.857   2.023 -0.1255  0.0936 -0.0997
14495DDP     C186965   2.115  13.582  19.260  0.2097  0.0479 -0.0810
14495DDP     P186966   2.314  13.360  19.652  0.1668 -0.1364  0.0904
14495DDP     P286967   2.179  13.971  19.499  0.0684  0.2435  0.2042
14495DDP     C286968   2.081  14.284  19.794  0.0794  0.1200 -0.0027
14495DDP     C386969   2.534  13.120  19.893 -0.2850 -0.4142  0.1208
14495DDP     C486970   1.931  13.276  19.036  0.1256  0.0445 -0.0339
14496DDP     C186971  13.364  15.172   5.304 -0.1531  0.1504  0.1602
14496DDP     P186972  13.044  15.308   5.645  0.1350 -0.1796  0.0653
14496DDP     P286973  13.350  15.418   4.870 -0.0507  0.0857  0.1847
14496DDP     C286974  12.959  15.581   4.698 -0.1691 -0.2745 -0.0713
14496DDP     C386975  12.694  15.196   5.841  0.2781  0.1439 -0.0945
14496DDP     C486976  13.389  14.710   5.185  0.0220 -0.2163  0.0588
14497DDP     C186977  11.807  23.900  28.059  0.1918  0.0307  0.0461
14497DDP     P186978  11.974  24.255  28.027 -0.0526 -0.0403 -0.3223
14497DDP     P286979  11.694  23.970  27.562 -0.1917 -0.2973 -0.0919
14497DDP     C286980  11.231  24.179  27.446  0.1645 -0.1807  0.1922
14497DDP     C386981  12.197  24.650  27.910  0.0656 -0.0115 -0.1566
14497DDP     C486982  11.781  23.618  28.472  0.0641 -0.2922  0.4239
14498DDP     C186983  15.735   6.771  17.217 -0.2134 -0.1023  0.0756
14498DDP     P186984  16.012   7.045  17.533  0.0729 -0.2507 -0.0326
14498DDP     P286985  15.307   6.611  17.188  0.1854  0.0632  0.0031
14498DDP     C286986  14.857   6.647  17.178  0.3655 -0.3204  0.1679
14498DDP     C386987  16.034   7.525  17.514  0.2129  0.1212  0.3449
14498DDP     C486988  15.956   6.593  16.767  0.1654 -0.0498  0.2800
14499DDP     C186989  25.148   2.287  15.156  0.0760  0.0774  0.1312
14499DDP     P186990  24.981   1.973  15.003 -0.2614  0.1921  0.3700
14499DDP     P286991  25.055   2.689  15.146  0.2045  0.1456  0.2313
14499DDP     C286992  24.867   3.145  15.287  0.3391 -0.2741  0.0611
14499DDP     C386993  24.894   1.621  14.844 -0.0591  0.0399  0.1734
14499DDP     C486994  25.383   2.023  15.386 -0.1189  0.3627 -0.0821
14500DDP     C186995   0.096  21.175   5.909 -0.3580  0.2474  0.3021
14500DDP     P186996  30.078  21.117   6.204  0.1126 -0.2543 -0.1754
14500DDP     P286997   0.386  21.445   5.773  0.2204 -0.2471  0.0872
14500DDP     C286998   0.859  21.721   5.700 -0.0312  0.0169 -0.1232
14500DDP     C386999  29.730  21.179   6.174  0.0641 -0.0661  0.0360
14500DDP     C487000  30.269  20.827   5.554 -0.2377  0.0783 -0.2334
14501DDP     C187001  19.275  19.388   2.952 -0.0777  0.3599  0.0377
14501DDP     P187002  19.111  19.776   3.028  0.2870  0.1027 -0.0818
14501DDP     P287003  19.538  19.469   2.551  0.0608  0.0478 -0.0629
14501DDP     C287004  19.833  19.827   2.412  0.2026 -0.0388 -0.0870
14501DDP     C387005  18.905  20.093   3.290  0.1529 -0.0413  0.1265
14501DDP     C487006  19.099  18.972   3.085  0.0232 -0.2052  0.1176
14502DDP     C187007  25.662  16.490  11.773  0.2383 -0.1651  0.2912
14502DDP     P187008  25.289  16.250  11.617  0.0575  0.1649  0.0711
14502DDP     P287009  25.816  16.711  11.495 -0.2881 -0.4174  0.2453
14502DDP     C287010  26.111  16.996  11.549  0.2155  0.2179 -0.1332
14502DDP     C387011  25.008  16.082  11.903 -0.0792  0.1756 -0.0364
14502DDP     C487012  25.735  16.534  12.255  0.2699 -0.1243  0.0936
14503DDP     C187013   5.947  25.537  28.550 -0.1445 -0.0218  0.3111
14503DDP     P187014   5.836  25.908  28.616  0.0305 -0.0011  0.0949
14503DDP     P287015   5.873  25.349  28.888  0.1923  0.1499  0.0017
14503DDP     C287016   5.546  25.101  29.075  0.0465 -0.1996  0.0961
14503DDP     C387017   5.717  26.298  28.523 -0.0137  0.2440  0.1518
14503DDP     C487018   6.045  25.249  28.215  0.3588  0.0156 -0.0242
14504DDP     C187019   7.440  22.014  19.907 -0.0838 -0.0453 -0.0917
14504DDP     P187020   7.779  22.354  20.057  0.1595 -0.1141 -0.0125
14504DDP     P287021   7.056  22.250  19.998  0.3715 -0.0641  0.1474
14504DDP     C287022   6.604  22.394  19.958 -0.2215  0.0358  0.0792
14504DDP     C387023   8.184  22.512  20.302 -0.0789  0.2221  0.1705
14504DDP     C487024   7.454  21.683  19.555 -0.0830 -0.0467  0.0028
14505DDP     C187025   8.093  15.879   9.123  0.0523 -0.1230 -0.0563
14505DDP     P187026   8.192  16.002   8.800 -0.3756  0.3044 -0.1781
14505DDP     P287027   7.965  16.059   9.356 -0.0347  0.3033  0.0516
14505DDP     C287028   7.951  16.028   9.816  0.0286 -0.1926 -0.1496
14505DDP     C387029   8.508  15.917   8.515  0.1255  0.0122  0.1373
14505DDP     C487030   8.159  15.497   9.087 -0.1783 -0.0995 -0.0257
14506DDP     C187031   9.900  13.531   4.698  0.0255  0.1382  0.1237
14506DDP     P187032   9.986  13.096   4.879 -0.3151  0.3925  0.0202
14506DDP     P287033  10.356  13.675   4.507 -0.1896  0.0420 -0.0156
14506DDP     C287034  10.755  13.714   4.298 -0.3100 -0.1037 -0.0126
14506DDP     C387035  10.018  12.971   5.249 -0.4590 -0.3919  0.0054
14506DDP     C487036   9.614  13.790   4.962 -0.1534  0.0016 -0.1494
14507DDP     C187037  19.573   1.849  23.082  0.2623 -0.0531 -0.0325
14507DDP     P187038  19.479   1.497  22.749  0.2379 -0.2628 -0.0741
14507DDP     P287039  19.902   2.081  23.048 -0.1624  0.1726  0.2491
14507DDP     C287040  20.058   2.542  22.980  0.0635  0.1881 -0.1169
14507DDP     C387041  19.045   1.410  22.691  0.0522 -0.1513  0.2685
14507DDP     C487042  19.395   1.916  23.493  0.1374  0.1510 -0.0866
14508DDP     C187043  29.600  26.528   6.506 -0.1947  0.3468  0.2017
14508DDP     P187044  29.211  26.603   6.271 -0.2874  0.1008  0.0413
14508DDP     P287045  29.905  26.284   6.692  0.0056  0.1770  0.0517
14508DDP     C287046  30.283  26.456   6.899 -0.1327  0.1610 -0.2452
14508DDP     C387047  28.785  26.594   6.305  0.4645 -0.0479 -0.1956
14508DDP     C487048  29.519  26.909   6.798  0.1707 -0.1065 -0.2118
14509DDP     C187049   1.584  18.841  15.803  0.2775 -0.1474 -0.3268
14509DDP     P187050   1.262  18.761  16.089  0.0259 -0.0218 -0.1311
14509DDP     P287051   1.998  18.843  15.884 -0.4573 -0.1795  0.0904
14509DDP     C287052   2.409  19.084  16.085  0.3362  0.1503  0.4428
14509DDP     C387053   0.798  18.912  16.313  0.2226  0.0194  0.1132
14509DDP     C487054   1.444  18.774  15.362  0.2783 -0.1519 -0.0329
14510DDP     C187055  13.028   6.060  20.722  0.0472  0.1169 -0.4500
14510DDP     P187056  13.450   6.117  20.586 -0.0694  0.2526 -0.1465
14510DDP     P287057  12.787   5.807  20.367 -0.1118  0.2356  0.0214
14510DDP     C287058  12.610   5.509  20.145 -0.1746 -0.1950  0.1128
14510DDP     C387059  13.885   6.011  20.593 -0.1443  0.0023  0.1089
14510DDP     C487060  12.801   6.198  21.031  0.1841  0.1461 -0.3536
14511DDP     C187061   8.896  19.880   8.475 -0.1707  0.1180  0.0924
14511DDP     P187062   8.400  19.966   8.623  0.0535 -0.1251 -0.2828
14511DDP     P287063   9.010  19.449   8.247  0.3309  0.0218  0.0682
14511DDP     C287064   9.044  18.936   8.197 -0.0326 -0.0128 -0.0363
14511DDP     C387065   8.048  19.766   8.719 -0.1225  0.0995  0.2914
14511DDP     C487066   9.116  20.040   8.750 -0.1673  0.1078  0.0268
14512DDP     C187067  17.794   6.401  16.418 -0.1001  0.0474  0.4233
14512DDP     P187068  17.969   6.219  16.071  0.3369  0.1907  0.0140
14512DDP     P287069  17.484   6.606  16.196 -0.1724  0.1002 -0.0655
14512DDP     C287070  17.426   6.745  15.809 -0.2897  0.2828 -0.0212
14512DDP     C387071  17.800   6.356  15.636 -0.2959 -0.0298 -0.3047
14512DDP     C487072  17.687   6.280  16.874  0.0901 -0.2367  0.0235
14513DDP     C187073  10.910  22.255   6.625 -0.2359 -0.0433 -0.0241
14513DDP     P187074  11.097  22.506   6.279 -0.2731 -0.0247 -0.1286
14513DDP     P287075  10.563  22.530   6.798 -0.0055  0.0992 -0.1114
14513DDP     C287076  10.181  22.664   6.975 -0.1322  0.0423 -0.3575
14513DDP     C387077  11.213  22.652   5.901  0.1116  0.1052 -0.1530
14513DDP     C487078  10.779  21.831   6.651  0.0628 -0.1750  0.1180
14514DDP     C187079   4.252   3.426   9.271 -0.0743  0.1205 -0.2783
14514DDP     P187080   4.461   3.026   9.390 -0.2833  0.2154 -0.0020
14514DDP     P287081   3.881   3.549   9.524 -0.0363  0.2892 -0.1339
14514DDP     C287082   3.793   3.866   9.851 -0.1860  0.1702 -0.0652
14514DDP     C387083   4.904   2.920   9.498  0.1779  0.0074 -0.0620
14514DDP     C487084   4.486   3.675   8.977  0.3044  0.1814  0.4333
14515DDP     C187085  24.430   8.033   2.663  0.0843 -0.3674 -0.4476
14515DDP     P187086  24.875   7.900   2.589 -0.1634  0.1509  0.2658
14515DDP     P287087  24.202   7.899   2.871 -0.0106 -0.1481 -0.0858
14515DDP     C287088  23.942   7.763   3.259  0.2604  0.1579  0.0388
14515DDP     C387089  25.207   7.959   2.392  0.1152 -0.1418  0.0830
14515DDP     C487090  24.520   8.532   2.500 -0.0523 -0.0459 -0.0741
14516DDP     C187091   7.388  29.707  30.046  0.1298  0.0706 -0.1281
14516DDP     P187092   7.642  29.931  29.845 -0.3866  0.2205 -0.1225
14516DDP     P287093   6.987  29.493  29.991  0.2929  0.0281  0.0832
14516DDP     C287094   6.609  29.578  29.849 -0.0760  0.4098 -0.1682
14516DDP     C387095   7.877  30.280  29.923  0.1082 -0.0022 -0.0545
14516DDP     C487096   7.573  29.501   0.132 -0.0521 -0.3248  0.1961
14517DDP     C187097   3.187  24.616  18.747  0.0260 -0.0587 -0.1295
14517DDP     P187098   3.321  24.271  18.373  0.2799 -0.0365 -0.0267
14517DDP     P287099   3.499  24.879  18.979  0.0905 -0.1455  0.3181
14517DDP     C287100   3.960  24.849  19.202  0.0921 -0.2002 -0.3059
14517DDP     C387101   3.706  24.054  18.168  0.2965 -0.2044  0.2702
14517DDP     C487102   2.685  24.665  18.850 -0.2601  0.2065  0.3185
14518DDP     C187103   0.167  19.903  24.323  0.3672  0.1543  0.0839
14518DDP     P187104   0.055  20.122  24.666 -0.0142  0.0487 -0.0008
14518DDP     P287105   0.304  20.076  23.888  0.0217 -0.1256 -0.0662
14518DDP     C287106   0.506  20.434  23.786 -0.3643  0.0411  0.0130
14518DDP     C387107   0.169  20.316  25.059 -0.0348 -0.2215  0.0244
14518DDP     C487108   0.074  19.442  24.406  0.1545  0.1569  0.0088
14519DDP     C187109   3.417  26.538  29.550  0.0550  0.2751 -0.0520
14519DDP     P187110   3.621  26.862  29.687 -0.1215 -0.1336  0.0827
14519DDP     P287111   3.537  26.233  29.186 -0.2389  0.2231  0.0101
14519DDP     C287112   3.546  25.861  29.019 -0.1553 -0.0374  0.1834
14519DDP     C387113   3.661  27.289  29.661 -0.1886  0.1421 -0.0080
14519DDP     C487114   3.214  26.191  29.755 -0.0915  0.0126  0.0448
14520DDP     C187115  27.825  13.911   1.062  0.1085  0.0180 -0.0564
14520DDP     P187116  27.780  13.425   1.216 -0.5045 -0.1148 -0.0681
14520DDP     P287117  27.454  14.107   1.200  0.1419  0.2569  0.1604
14520DDP     C287118  27.169  14.222   1.474  0.3031  0.2317  0.3038
14520DDP     C387119  27.660  13.137   0.920 -0.2665  0.3505 -0.1189
14520DDP     C487120  28.085  14.067   0.727  0.1438 -0.0907 -0.0154
14521DDP     C187121  28.435   4.158   6.061 -0.3456 -0.0557  0.2778
14521DDP     P187122  27.977   4.067   6.058 -0.0136 -0.2927  0.0163
14521DDP     P287123  28.683   4.160   5.728  0.0239 -0.2287 -0.0808
14521DDP     C287124  28.938   4.062   5.484 -0.1178 -0.0293 -0.1661
14521DDP     C387125  27.575   4.374   5.987  0.0685  0.0753  0.1481
14521DDP     C487126  28.520   4.389   6.515 -0.2016 -0.0359  0.2297
14522DDP     C187127  11.339  26.488  19.952  0.0791 -0.0206  0.2062
14522DDP     P187128  11.506  26.910  20.032 -0.0756  0.1659 -0.3641
14522DDP     P287129  11.459  26.228  20.253  0.1051 -0.0291  0.1781
14522DDP     C287130  11.216  25.878  20.145  0.0517  0.0621  0.1736
14522DDP     C387131  11.474  27.358  20.254 -0.4789 -0.3070 -0.0462
14522DDP     C487132  11.107  26.367  19.575 -0.0184  0.2535 -0.2324
14523DDP     C187133  22.686  20.030   5.322 -0.1683  0.1369  0.1694
14523DDP     P187134  22.900  19.734   5.423 -0.3090  0.1215 -0.3422
14523DDP     P287135  22.768  20.225   4.933  0.0377  0.5024 -0.2653
14523DDP     C287136  22.898  20.668   4.824  0.1678 -0.0496 -0.0907
14523DDP     C387137  23.092  19.388   5.428 -0.0146 -0.1297 -0.0753
14523DDP     C487138  22.314  20.171   5.613  0.1223 -0.0213  0.0077
14524DDP     C187139  25.529  11.448   8.191 -0.1198 -0.0074 -0.1758
14524DDP     P187140  25.536  11.808   8.050 -0.1598  0.0890 -0.2059
14524DDP     P287141  25.739  11.163   8.020  0.0586  0.0005  0.1077
14524DDP     C287142  25.627  10.909   7.657 -0.1295  0.3772  0.1722
14524DDP     C387143  25.608  11.972   7.822  0.0423  0.0980  0.1063
14524DDP     C487144  25.421  11.554   8.628 -0.0644 -0.2409 -0.2216
14525DDP     C187145  12.638  20.814   5.964  0.1919 -0.1561 -0.0724
14525DDP     P187146  12.274  20.595   5.736  0.1759  0.0684  0.0386
14525DDP     P287147  12.763  20.844   6.491  0.0716  0.3539  0.0107
14525DDP     C287148  12.829  20.941   6.848 -0.1164 -0.0680  0.3555
14525DDP     C387149  12.357  20.150   5.510  0.3726  0.0859  0.0348
14525DDP     C487150  12.963  20.995   5.750  0.2956  0.2360 -0.6113
14526DDP     C187151   6.090  21.550  12.499  0.0230 -0.4089  0.0018
14526DDP     P187152   6.617  21.425  12.402 -0.2613 -0.0736 -0.0559
14526DDP     P287153   5.880  21.872  12.356  0.3818  0.1932  0.0525
14526DDP     C287154   5.967  22.331  12.319 -0.2254  0.0244  0.2483
14526DDP     C387155   6.821  21.421  12.041  0.1311  0.3372 -0.1864
14526DDP     C487156   5.831  21.402  12.816 -0.0825  0.4366  0.3243
14527DDP     C187157  28.575   7.099  14.978 -0.1790  0.1228  0.1075
14527DDP     P187158  28.327   6.895  15.290  0.3048  0.2840  0.2510
14527DDP     P287159  28.670   7.466  15.138  0.3238 -0.1141 -0.1636
14527DDP     C287160  28.760   7.849  15.196 -0.1792  0.0851  0.1656
14527DDP     C387161  28.015   6.932  15.590  0.0832 -0.3868  0.0540
14527DDP     C487162  28.809   6.894  14.560  0.2339 -0.0682 -0.2704
14528DDP     C187163   4.287  10.529   6.443  0.2200  0.0705 -0.0779
14528DDP     P187164   3.927  10.663   6.215  0.0370 -0.2232  0.0095
14528DDP     P287165   4.294  10.337   6.789  0.0018 -0.0423 -0.0452
14528DDP     C287166   4.172  10.404   7.274  0.2028  0.0564  0.0918
14528DDP     C387167   3.659  11.066   6.102  0.0414 -0.2862  0.0048
14528DDP     C487168   4.627  10.507   6.168 -0.4319 -0.0636 -0.2198
14529DDP     C187169   4.029  23.419  10.522 -0.0936 -0.1749 -0.0004
14529DDP     P187170   4.313  23.501  10.217  0.0575  0.1273 -0.1040
14529DDP     P287171   4.030  23.512  10.927  0.0706  0.1966 -0.2067
14529DDP     C287172   4.263  23.364  11.242 -0.2485  0.2634 -0.2189
14529DDP     C387173   4.537  23.286   9.900  0.0420 -0.0539 -0.2672
14529DDP     C487174   3.938  22.971  10.495 -0.1868 -0.0328 -0.0302
14530DDP     C187175   4.300  15.765  26.709 -0.0815  0.0667  0.2363
14530DDP     P187176   3.950  16.060  26.696 -0.2183  0.0046  0.1937
14530DDP     P287177   4.778  15.987  26.540  0.0424 -0.0204  0.0175
14530DDP     C287178   5.268  15.907  26.597 -0.2496  0.0146 -0.2334
14530DDP     C387179   3.480  16.202  26.717 -0.0781  0.0143 -0.1366
14530DDP     C487180   4.336  15.335  27.011 -0.0898 -0.2915 -0.0291
14531DDP     C187181  10.659   6.107  18.394  0.0262  0.2774 -0.1374
14531DDP     P187182  10.950   5.767  18.556 -0.0683 -0.2091  0.1322
14531DDP     P287183  10.241   6.363  18.558 -0.1976  0.1791 -0.0889
14531DDP     C287184  10.105   6.704  18.244  0.1429  0.2625 -0.0896
14531DDP     C387185  11.290   5.470  18.572 -0.0727 -0.0581 -0.0539
14531DDP     C487186  10.805   6.193  17.992 -0.0539  0.2431 -0.1040
14532DDP     C187187  14.131  15.943  11.638  0.0685  0.2160 -0.0299
14532DDP     P187188  14.416  16.010  12.056  0.0155  0.1314  0.0378
14532DDP     P287189  14.430  15.931  11.257 -0.2626  0.1266  0.1015
14532DDP     C287190  14.828  16.147  11.115  0.1219  0.0770  0.2802
14532DDP     C387191  14.751  15.958  12.309  0.1797  0.0837 -0.2089
14532DDP     C487192  13.819  16.230  11.638 -0.2111 -0.1606 -0.0547
14533DDP     C187193  16.823   2.985  25.221 -0.2618 -0.1338 -0.0031
14533DDP     P187194  16.616   3.327  25.114 -0.2375 -0.1222  0.0667
14533DDP     P287195  17.079   2.701  24.970 -0.2742 -0.2199  0.0836
14533DDP     C287196  17.430   2.554  24.816  0.1028 -0.0044 -0.1039
14533DDP     C387197  16.761   3.550  24.825 -0.3916  0.0458 -0.1149
14533DDP     C487198  16.751   3.007  25.682  0.1318 -0.1440  0.1513
14534DDP     C187199  27.364   8.405  10.268 -0.1320 -0.0660 -0.0960
14534DDP     P187200  26.879   8.413  10.260  0.0165  0.1639  0.0346
14534DDP     P287201  27.433   8.411   9.777  0.0233  0.1253  0.1102
14534DDP     C287202  27.536   8.703   9.655 -0.0552 -0.3287 -0.1073
14534DDP     C387203  26.620   8.073  10.215 -0.0873  0.3724  0.1096
14534DDP     C487204  27.575   8.258  10.606  0.0090  0.0292 -0.1593
14535DDP     C187205  18.291   5.687  22.712  0.1901  0.0512 -0.0547
14535DDP     P187206  17.982   5.829  22.552 -0.0165  0.1262 -0.1063
14535DDP     P287207  18.206   5.308  22.586 -0.1447 -0.0763  0.3090
14535DDP     C287208  18.480   5.002  22.417  0.1555 -0.1148  0.0638
14535DDP     C387209  17.636   6.042  22.421  0.0600 -0.0006  0.3274
14535DDP     C487210  18.770   5.934  22.536  0.3116  0.0424 -0.0695
14536DDP     C187211   8.335  24.073   1.422 -0.1267 -0.3358  0.0802
14536DDP     P187212   8.348  24.446   1.085  0.0903  0.4013 -0.0226
14536DDP     P287213   8.637  24.004   1.738 -0.3132  0.1823 -0.2575
14536DDP     C287214   8.622  23.898   2.173 -0.0813  0.0978  0.1543
14536DDP     C387215   8.524  24.657   0.649  0.3624 -0.1394  0.0620
14536DDP     C487216   8.130  23.784   1.170  0.1527  0.0210  0.3315
14537DDP     C187217  14.105  13.659  12.025 -0.1140  0.0321  0.2411
14537DDP     P187218  13.939  13.259  11.832 -0.0466 -0.1406  0.4062
14537DDP     P287219  14.444  13.921  11.768  0.0068 -0.0067 -0.1966
14537DDP     C287220  14.779  14.097  11.561  0.1448 -0.0014  0.0153
14537DDP     C387221  14.211  13.219  11.376 -0.2805 -0.2496 -0.0476
14537DDP     C487222  13.877  13.777  12.412 -0.0443  0.2716 -0.2147
14538DDP     C187223   2.630  10.422   2.295  0.0169  0.3972 -0.4197
14538DDP     P187224   2.312  10.447   2.614  0.2830 -0.1426 -0.2775
14538DDP     P287225   2.546  10.725   1.937  0.2655 -0.0067  0.0518
14538DDP     C287226   2.677  11.003   1.696 -0.1772  0.4404  0.1356
14538DDP     C387227   1.899  10.468   2.651 -0.3074 -0.1770 -0.2950
14538DDP     C487228   3.001  10.217   2.338 -0.0143  0.0425  0.0786
14539DDP     C187229   9.484  18.133  26.446 -0.0765  0.2680  0.1286
14539DDP     P187230   9.614  17.683  26.416 -0.1224 -0.1796 -0.0598
14539DDP     P287231   9.606  18.371  26.118  0.2462  0.4494 -0.1223
14539DDP     C287232   9.699  18.772  25.986 -0.5960  0.0528  0.0543
14539DDP     C387233   9.888  17.304  26.578  0.2170  0.0067  0.0662
14539DDP     C487234   9.198  18.428  26.644  0.0220 -0.2887 -0.0632
14540DDP     C187235  13.712  18.579  28.351  0.0228 -0.2600  0.2134
14540DDP     P187236  13.955  18.490  27.950 -0.0130 -0.4098  0.0588
14540DDP     P287237  13.708  18.437  28.808 -0.0224  0.0242  0.0961
14540DDP     C287238  13.531  18.137  29.147  0.2554  0.2499  0.2294
14540DDP     C387239  13.994  18.779  27.616 -0.0285  0.1093 -0.0446
14540DDP     C487240  13.430  18.707  28.121  0.0892 -0.2093  0.1166
14541DDP     C187241   9.691   5.002   0.795 -0.1116 -0.1080  0.0204
14541DDP     P187242   9.829   4.756   0.447  0.2804  0.0235  0.4534
14541DDP     P287243   9.362   4.804   1.157  0.0482  0.2755  0.1532
14541DDP     C287244   9.478   5.114   1.446 -0.1505  0.0024  0.1755
14541DDP     C387245   9.582   4.479   0.148 -0.0733 -0.0855 -0.0612
14541DDP     C487246   9.948   5.449   0.932  0.3635  0.0206  0.0709
14542DDP     C187247  26.121   2.453  20.196  0.0580  0.0654  0.0435
14542DDP     P187248  25.911   2.677  20.554 -0.0778  0.1238 -0.1772
14542DDP     P287249  26.561   2.240  20.383 -0.1422 -0.1878 -0.1584
14542DDP     C287250  27.003   2.286  20.508  0.0005 -0.1255 -0.0404
14542DDP     C387251  25.654   2.994  20.671 -0.1405  0.1735  0.2565
14542DDP     C487252  25.840   2.302  19.839 -0.0581 -0.0890  0.1862
14543DDP     C187253  23.875   9.762  11.967 -0.1411 -0.2228 -0.3321
14543DDP     P187254  24.010   9.969  11.573 -0.1289 -0.0796 -0.0638
14543DDP     P287255  23.521   9.447  11.923  0.0158 -0.1500  0.4389
14543DDP     C287256  23.147   9.266  12.014  0.0380 -0.1215  0.0095
14543DDP     C387257  24.098  10.439  11.312 -0.0781 -0.1034 -0.1505
14543DDP     C487258  24.076   9.761  12.447 -0.0501 -0.0527  0.0367
14544DDP     C187259  12.151   8.734   4.032  0.1766  0.2108  0.2376
14544DDP     P187260  11.733   8.648   4.140 -0.2022 -0.1511  0.0642
14544DDP     P287261  12.331   8.502   4.344 -0.1441 -0.0129 -0.0726
14544DDP     C287262  12.717   8.465   4.415 -0.0288 -0.2648  0.1078
14544DDP     C387263  11.475   8.331   4.207 -0.1241  0.1193  0.0487
14544DDP     C487264  12.380   8.866   3.662 -0.0056 -0.3514  0.1546
14545DDP     C187265  18.391  18.366   9.684 -0.0500  0.1809 -0.4287
14545DDP     P187266  18.738  18.536   9.878  0.2868 -0.0821  0.1740
14545DDP     P287267  18.478  18.320   9.187 -0.0038 -0.0464 -0.0377
14545DDP     C287268  18.667  18.394   8.702 -0.0831 -0.1049 -0.2010
14545DDP     C387269  18.984  18.822  10.056  0.0815 -0.1662  0.0514
14545DDP     C487270  18.208  18.005   9.596 -0.0322 -0.2509  0.0332
14546DDP     C187271  13.369  20.102  29.142 -0.0561 -0.2962 -0.0694
14546DDP     P187272  13.686  19.822  29.223 -0.0367 -0.0382 -0.0457
14546DDP     P287273  13.433  20.465  28.908  0.0498  0.0762  0.0499
14546DDP     C287274  13.602  20.845  28.875  0.0641  0.1849 -0.1012
14546DDP     C387275  13.754  19.375  29.350  0.2455  0.1392 -0.1150
14546DDP     C487276  12.975  19.845  29.162  0.0681 -0.0517  0.3648
14547DDP     C187277  13.709   3.246   6.368  0.1291 -0.0505  0.0678
14547DDP     P187278  14.016   3.296   6.085 -0.1485  0.1650  0.3884
14547DDP     P287279  13.307   3.328   6.069  0.1522 -0.0053 -0.1996
14547DDP     C287280  12.939   3.573   6.323  0.1319  0.1551 -0.1142
14547DDP     C387281  14.320   3.260   5.903  0.1010  0.2045 -0.0399
14547DDP     C487282  13.713   3.203   6.761 -0.1174 -0.2018  0.0368
14548DDP     C187283   2.491   9.193  10.416 -0.3840 -0.0850  0.1293
14548DDP     P187284   2.620   9.451  10.115  0.2738 -0.1260  0.1492
14548DDP     P287285   2.688   9.294  10.748 -0.2234  0.1820  0.0473
14548DDP     C287286   2.486   9.086  11.082 -0.3700  0.2641  0.3313
14548DDP     C387287   2.551   9.456   9.733  0.2605 -0.0709 -0.1620
14548DDP     C487288   2.108   9.121  10.349 -0.0105  0.0513 -0.3589
14549DDP     C187289  28.781   3.435  10.397 -0.3046 -0.2807 -0.2336
14549DDP     P187290  28.967   3.840  10.323 -0.2522 -0.0758 -0.2964
14549DDP     P287291  28.755   3.451  10.811  0.2345 -0.1343 -0.0990
14549DDP     C287292  28.824   3.882  10.929  0.0602 -0.0612  0.2858
14549DDP     C387293  29.148   4.176  10.582 -0.2108 -0.1852 -0.1150
14549DDP     C487294  28.637   3.138  10.077 -0.2187 -0.1211 -0.3040
14550DDP     C187295  27.543  12.225  16.558  0.0067 -0.0972 -0.0960
14550DDP     P187296  27.342  12.612  16.767 -0.0827 -0.3579 -0.1287
14550DDP     P287297  27.444  11.776  16.387 -0.2922  0.1704 -0.0452
14550DDP     C287298  27.715  11.410  16.264  0.1478  0.0538 -0.0810
14550DDP     C387299  26.934  12.625  17.012 -0.0286 -0.2360  0.0808
14550DDP     C487300  27.917  12.472  16.688 -0.1842  0.1330 -0.1465
14551DDP     C187301   4.159  21.111  18.786 -0.0278  0.3824  0.1405
14551DDP     P187302   3.880  20.841  18.929  0.0098  0.0120  0.1078
14551DDP     P287303   4.369  20.843  18.484 -0.0935  0.1344 -0.2450
14551DDP     C287304   4.750  20.550  18.625  0.0477  0.1875  0.2584
14551DDP     C387305   3.672  20.532  19.012 -0.2137  0.0164  0.1423
14551DDP     C487306   4.221  21.573  18.821 -0.2148  0.1162 -0.1752
14552DDP     C187307   0.570  16.356  13.160  0.2322 -0.1394 -0.2071
14552DDP     P187308   0.415  16.718  13.031  0.5012 -0.3488  0.1260
14552DDP     P287309   0.693  16.255  13.535 -0.3352 -0.0992 -0.3385
14552DDP     C287310   1.018  16.024  13.834  0.0243 -0.2596  0.1107
14552DDP     C387311   0.192  16.976  12.829 -0.0690 -0.2040 -0.0074
14552DDP     C487312   0.863  16.207  12.841  0.1929 -0.2580  0.1425
14553DDP     C187313  16.412  20.015   9.438 -0.1583  0.0506  0.1947
14553DDP     P187314  16.813  19.963   9.660  0.3248 -0.0122  0.3275
14553DDP     P287315  16.196  19.655   9.543  0.1049 -0.1273 -0.0306
14553DDP     C287316  16.074  19.421   9.921  0.0430  0.1889 -0.1758
14553DDP     C387317  17.166  19.782   9.680  0.0553 -0.0518 -0.1963
14553DDP     C487318  16.306  20.289   9.109 -0.0921 -0.4231 -0.1825
14554DDP     C187319   8.909   0.143  26.853  0.0294 -0.1594 -0.1595
14554DDP     P187320   9.185   0.452  26.852  0.2765 -0.3087  0.2392
14554DDP     P287321   9.025  30.036  26.755 -0.0644  0.3017 -0.0218
14554DDP     C287322   9.234  29.565  26.720  0.0339  0.0959  0.2673
14554DDP     C387323   9.457   0.874  26.817  0.1269  0.1473  0.1097
14554DDP     C487324   8.593   0.452  27.011 -0.0099 -0.0350 -0.0489
14555DDP     C187325  25.223   4.892   2.822  0.0602  0.0201  0.2321
14555DDP     P187326  24.915   4.638   2.976  0.0507  0.0688  0.0502
14555DDP     P287327  25.538   4.927   3.003 -0.0649 -0.0279 -0.3683
14555DDP     C287328  25.947   5.126   3.155 -0.0154  0.3375  0.1011
14555DDP     C387329  24.806   4.291   3.273 -0.3934  0.0703 -0.3435
14555DDP     C487330  25.133   5.014   2.374 -0.2392  0.0021 -0.1540
14556DDP     C187331  23.358   9.370   8.367 -0.0943  0.1017 -0.1001
14556DDP     P187332  23.451   9.794   8.526 -0.1952  0.0116  0.1034
14556DDP     P287333  23.395   9.327   7.923  0.1267 -0.0195  0.2080
14556DDP     C287334  23.259   9.356   7.512  0.3236  0.2471  0.1671
14556DDP     C387335  23.698  10.066   8.574  0.1204 -0.0035 -0.0366
14556DDP     C487336  23.434   8.972   8.586 -0.1986 -0.0472  0.0486
14557DDP     C187337  22.253   2.418  26.739  0.1667  0.0290  0.2198
14557DDP     P187338  22.177   2.776  26.840  0.0149  0.0055 -0.0265
14557DDP     P287339  22.189   2.340  26.281 -0.0692 -0.2916  0.1226
14557DDP     C287340  22.143   2.510  25.943 -0.0670 -0.2466 -0.1562
14557DDP     C387341  22.059   3.071  27.258  0.0725 -0.0213  0.0945
14557DDP     C487342  22.212   2.154  27.022 -0.1679  0.1423 -0.1815
14558DDP     C187343  26.605  29.671   5.061  0.3883  0.0177  0.1803
14558DDP     P187344  26.969  29.580   5.219 -0.0586  0.0037 -0.1027
14558DDP     P287345  26.482  29.352   4.741 -0.1648  0.0093 -0.3044
14558DDP     C287346  26.421  29.201   4.336  0.0400  0.0503  0.2482
14558DDP     C387347  27.279  29.573   5.616  0.0135  0.0877  0.2547
14558DDP     C487348  26.358  29.584   5.402 -0.0517  0.0846  0.0196
14559DDP     C187349   5.477  29.178  17.673 -0.1899  0.0508  0.0391
14559DDP     P187350   5.547  28.999  17.278  0.0324 -0.4116  0.0637
14559DDP     P287351   5.033  29.283  17.864  0.0795 -0.0735  0.1245
14559DDP     C287352   4.675  29.257  17.822  0.0408  0.0090 -0.0464
14559DDP     C387353   5.726  28.608  17.189 -0.0159 -0.0413  0.0131
14559DDP     C487354   5.755  29.367  17.967  0.1226  0.0821  0.1078
14560DDP     C187355   1.119  21.022  13.625  0.1615 -0.0562  0.2836
14560DDP     P187356   1.508  21.249  13.441  0.2326  0.0067  0.0523
14560DDP     P287357   1.004  21.203  13.915 -0.1154  0.0904 -0.1764
14560DDP     C287358   0.964  21.043  14.332 -0.1917 -0.2104  0.4376
14560DDP     C387359   1.861  21.408  13.113  0.2348  0.0035 -0.3833
14560DDP     C487360   0.838  20.659  13.439 -0.0455  0.0922  0.0481
14561DDP     C187361  29.901  15.456  19.073  0.1640 -0.2313  0.1157
14561DDP     P187362  29.989  15.233  19.398  0.0365 -0.0215  0.1071
14561DDP     P287363  29.951  15.899  19.188  0.3675 -0.2397 -0.0099
14561DDP     C287364  29.913  16.413  19.083  0.2410 -0.1444 -0.1280
14561DDP     C387365  30.280  14.954  19.735 -0.1920  0.1168  0.0103
14561DDP     C487366  30.043  15.368  18.641  0.0565 -0.2666  0.1394
14562DDP     C187367  10.492  16.220   0.982 -0.1422 -0.0640  0.1954
14562DDP     P187368  10.431  16.277   0.534  0.1196  0.0753 -0.2856
14562DDP     P287369  10.375  15.889   1.164 -0.0807 -0.3303  0.3543
14562DDP     C287370   9.973  15.673   1.404 -0.0493  0.0282  0.1947
14562DDP     C387371  10.047  16.087   0.454  0.0839  0.2797 -0.3799
14562DDP     C487372  10.786  16.299   1.336 -0.0448  0.2347 -0.1029
14563DDP     C187373  28.452  23.383  29.201  0.0471  0.1993  0.4277
14563DDP     P187374  28.113  23.480  29.470 -0.1540  0.1398  0.3591
14563DDP     P287375  28.853  23.588  29.335  0.1175  0.4458 -0.1780
14563DDP     C287376  29.170  23.850  29.551  0.0711  0.1802  0.2714
14563DDP     C387377  27.765  23.601  29.695  0.0185  0.3117 -0.2047
14563DDP     C487378  28.521  23.129  28.858  0.0527 -0.1969  0.1139
14564DDP     C187379  29.183  23.273  12.837 -0.1921 -0.1827 -0.0892
14564DDP     P187380  29.311  23.339  13.188 -0.0844 -0.2210 -0.3521
14564DDP     P287381  29.474  23.336  12.627 -0.0297 -0.0198 -0.0390
14564DDP     C287382  29.708  23.749  12.561 -0.0430 -0.0654  0.4802
14564DDP     C387383  29.651  23.204  13.521 -0.2946 -0.1552  0.0500
14564DDP     C487384  28.970  22.943  12.853  0.2579 -0.0515 -0.1457
14565DDP     C187385   3.146  14.704   4.109 -0.1773  0.1348 -0.0618
14565DDP     P187386   2.951  14.503   3.762 -0.1217 -0.2103 -0.1191
14565DDP     P287387   3.313  15.064   4.090  0.4624 -0.1399 -0.1656
14565DDP     C287388   3.486  15.498   3.906  0.1680 -0.1923 -0.2027
14565DDP     C387389   2.695  14.519   3.400  0.0212 -0.1701 -0.3551
14565DDP     C487390   3.006  14.461   4.505 -0.0984 -0.0304  0.2384
14566DDP     C187391  19.255  18.296  11.144  0.1592  0.0810  0.3350
14566DDP     P187392  19.084  17.883  11.360  0.0223 -0.2480  0.0572
14566DDP     P287393  19.286  18.646  11.378 -0.0303 -0.1199  0.0438
14566DDP     C287394  19.190  19.025  11.693  0.0254 -0.2965  0.2137
14566DDP     C387395  18.925  17.480  11.508 -0.0045 -0.1220 -0.0655
14566DDP     C487396  19.393  18.287  10.739  0.1874  0.0069  0.0195
14567DDP     C187397   6.831  21.609  22.575 -0.1305 -0.0173 -0.1537
14567DDP     P187398   7.221  21.414  22.544 -0.3842  0.0078  0.5548
14567DDP     P287399   6.647  21.413  22.208  0.0313 -0.0414 -0.2336
14567DDP     C287400   6.424  21.193  21.869 -0.3462  0.1373  0.1338
14567DDP     C387401   7.695  21.412  22.545 -0.1266 -0.0026 -0.0818
14567DDP     C487402   6.617  21.813  23.004 -0.1231  0.1760  0.0308
14568DDP     C187403  26.593  23.256  18.709 -0.1940 -0.2138  0.2185
14568DDP     P187404  26.399  23.269  19.015 -0.0639  0.2168 -0.2943
14568DDP     P287405  26.969  23.088  18.619  0.0640  0.1766  0.0229
14568DDP     C287406  27.436  22.953  18.805 -0.2661  0.2683  0.1081
14568DDP     C387407  26.466  23.353  19.470 -0.0529  0.0648  0.1159
14568DDP     C487408  26.333  23.429  18.353 -0.2725  0.0787  0.2222
14569DDP     C187409  29.270  26.722   8.737 -0.1375  0.1710 -0.2395
14569DDP     P187410  28.882  26.758   8.707  0.0716 -0.0341 -0.0394
14569DDP     P287411  29.253  27.106   8.950 -0.1415 -0.3844 -0.1314
14569DDP     C287412  29.117  27.528   9.001 -0.1121 -0.0455  0.1509
14569DDP     C387413  28.515  26.701   8.946  0.0342 -0.1525  0.0784
14569DDP     C487414  29.631  26.263   8.683  0.0312  0.3037 -0.2565
14570DDP     C187415  26.329  25.814  25.597  0.1988  0.0323 -0.2908
14570DDP     P187416  26.090  26.056  25.974 -0.0427  0.0050  0.0067
14570DDP     P287417  26.217  25.927  25.203  0.2486  0.3127  0.2106
14570DDP     C287418  25.871  25.997  24.853  0.2179  0.1101 -0.0034
14570DDP     C387419  26.093  26.347  26.416  0.2514 -0.1154  0.1061
14570DDP     C487420  26.767  25.660  25.580  0.1046  0.2130  0.0597
14571DDP     C187421   7.812  25.513   2.121  0.0914 -0.0170  0.0865
14571DDP     P187422   7.397  25.425   1.981  0.0577 -0.1713  0.1446
14571DDP     P287423   7.992  25.085   2.248  0.1175  0.4679  0.4001
14571DDP     C287424   8.190  24.792   2.580  0.0394  0.0087  0.0380
14571DDP     C387425   7.043  25.132   1.973  0.0151  0.1946 -0.0143
14571DDP     C487426   8.066  25.856   2.116 -0.1717  0.0774  0.2145
14572DDP     C187427  24.110  27.032   1.620  0.2222  0.0960  0.0710
14572DDP     P187428  24.393  26.886   1.652 -0.0120 -0.1166 -0.2758
14572DDP     P287429  24.240  27.344   1.392 -0.0104  0.0107  0.1271
14572DDP     C287430  24.580  27.654   1.337  0.0322  0.2803 -0.0163
14572DDP     C387431  24.705  26.727   1.733 -0.1681  0.2142 -0.2834
14572DDP     C487432  23.698  27.009   1.765  0.2590  0.1199 -0.0784
14573DDP     C187433  17.017   2.605  28.287  0.2173  0.1893 -0.0865
14573DDP     P187434  17.208   2.410  28.675  0.0622 -0.0618  0.1845
14573DDP     P287435  17.325   2.328  27.991 -0.1402 -0.1392 -0.0729
14573DDP     C287436  17.416   2.419  27.658 -0.1665 -0.4269 -0.2169
14573DDP     C387437  17.244   2.183  29.093  0.1009 -0.1894 -0.2159
14573DDP     C487438  16.668   2.805  28.206 -0.1289 -0.1609 -0.1336
14574DDP     C187439  29.515  26.692  19.441  0.0860 -0.0673 -0.1501
14574DDP     P187440  29.487  27.116  19.288  0.1036  0.0292  0.1571
14574DDP     P287441  29.552  26.337  19.188 -0.0053  0.0499 -0.2902
14574DDP     C287442  29.688  26.068  18.879 -0.0143 -0.1449 -0.0681
14574DDP     C387443  29.152  27.352  19.068 -0.2192  0.2148  0.1998
14574DDP     C487444  29.446  26.782  19.867 -0.2274 -0.1647 -0.3337
14575DDP     C187445   1.445  16.809   0.776 -0.2009 -0.1718 -0.0856
14575DDP     P187446   1.267  16.591   0.387 -0.1147 -0.0337 -0.1458
14575DDP     P287447   1.249  16.965   1.099  0.1233 -0.0176  0.1674
14575DDP     C287448   1.060  16.923   1.488 -0.0318 -0.1756  0.1432
14575DDP     C387449   0.965  16.469   0.179  0.3620 -0.2136  0.0282
14575DDP     C487450   1.934  17.015   0.712  0.1651 -0.2814 -0.1520
14576DDP     C187451  17.318   4.065  12.382 -0.1818  0.1798 -0.0167
14576DDP     P187452  17.363   3.720  12.612  0.0041  0.3199 -0.2311
14576DDP     P287453  17.594   3.980  12.013  0.2820 -0.2216 -0.1127
14576DDP     C287454  17.867   4.092  11.725 -0.0752 -0.1842  0.3953
14576DDP     C387455  17.038   3.353  12.717 -0.0815  0.0034 -0.0857
14576DDP     C487456  17.146   4.369  12.524 -0.2449 -0.1830 -0.1430
14577DDP     C187457  26.531  22.902   1.867  0.1628  0.2026 -0.2757
14577DDP     P187458  26.861  22.614   1.760 -0.2441 -0.0972 -0.0293
14577DDP     P287459  26.397  23.053   2.279  0.0509  0.0790 -0.3070
14577DDP     C287460  26.120  22.905   2.602 -0.6013 -0.1079  0.1576
14577DDP     C387461  26.918  22.214   1.847 -0.0526 -0.2044  0.3147
14577DDP     C487462  26.271  23.103   1.540 -0.0881  0.0502  0.2506
14578DDP     C187463  15.898  20.828  21.949  0.4514  0.0334  0.1163
14578DDP     P187464  15.720  20.974  21.522  0.2493  0.2036 -0.0010
14578DDP     P287465  15.623  20.596  22.189  0.0613  0.0925  0.3790
14578DDP     C287466  15.471  20.475  22.624  0.1664 -0.0472 -0.0395
14578DDP     C387467  15.549  20.878  21.154  0.0442  0.1077 -0.0645
14578DDP     C487468  16.272  20.984  22.139  0.0496 -0.1474 -0.4348
14579DDP     C187469  11.661  21.137  18.727 -0.0928 -0.1224  0.2136
14579DDP     P187470  12.102  21.260  18.632  0.0208  0.0005 -0.1720
14579DDP     P287471  11.396  21.237  19.043 -0.0379 -0.0548 -0.2363
14579DDP     C287472  11.153  21.201  19.468 -0.3136  0.0787  0.0251
14579DDP     C387473  12.398  21.539  18.399  0.1759  0.1711  0.0547
14579DDP     C487474  11.455  20.820  18.400  0.0055  0.1529 -0.0261
14580DDP     C187475  17.528   5.612  10.702  0.1419 -0.3488  0.0319
14580DDP     P187476  17.425   5.558  11.134 -0.2137 -0.4569 -0.3645
14580DDP     P287477  17.932   5.342  10.529  0.0334  0.1221 -0.0040
14580DDP     C287478  18.044   5.136  10.782 -0.2564  0.1265  0.1913
14580DDP     C387479  17.105   5.561  11.589  0.1477 -0.1962 -0.1719
14580DDP     C487480  17.254   5.721  10.369  0.1713  0.1623  0.3067
14581DDP     C187481   8.303   7.431  12.272  0.0143  0.2851 -0.1046
14581DDP     P187482   8.353   6.949  12.198 -0.1299 -0.2028 -0.1868
14581DDP     P287483   8.252   7.748  12.636  0.2687  0.0460  0.2709
14581DDP     C287484   7.956   7.981  12.917 -0.0533 -0.0674 -0.2317
14581DDP     C387485   8.122   6.549  12.298  0.3265 -0.0485  0.2765
14581DDP     C487486   8.261   7.653  11.947 -0.0999 -0.1729  0.2020
14582DDP     C187487  15.992  27.732   6.965  0.1458 -0.0471  0.0659
14582DDP     P187488  15.945  27.254   6.983 -0.1097 -0.2400  0.1095
14582DDP     P287489  15.863  28.163   6.991  0.1263 -0.0603  0.1691
14582DDP     C287490  15.668  28.514   7.292 -0.1277  0.2869 -0.0994
14582DDP     C387491  15.852  26.823   7.052 -0.2745  0.2700 -0.0169
14582DDP     C487492  16.342  27.736   7.223  0.2207 -0.1261  0.0683
14583DDP     C187493   9.282  14.599   1.291  0.1905  0.1369  0.2025
14583DDP     P187494   9.321  14.117   1.117  0.1382  0.2023  0.0822
14583DDP     P287495   9.604  14.955   1.107  0.2044 -0.0397 -0.1458
14583DDP     C287496   9.809  15.356   0.986  0.3214 -0.2634 -0.0972
14583DDP     C387497   9.644  14.004   0.871  0.0977  0.1211 -0.3076
14583DDP     C487498   9.112  14.773   1.751 -0.1540  0.0424  0.1409
14584DDP     C187499  12.672  16.236  23.839  0.1382 -0.2600 -0.1959
14584DDP     P187500  12.795  16.639  24.005  0.0088 -0.3474  0.2462
14584DDP     P287501  12.618  16.122  23.300  0.1063 -0.2238  0.0356
14584DDP     C287502  12.457  16.122  22.854 -0.0420  0.0928  0.0407
14584DDP     C387503  12.688  17.056  23.834  0.2214  0.1383 -0.1592
14584DDP     C487504  12.345  15.982  23.787  0.3162 -0.1842 -0.0472
14585DDP     C187505  16.998  29.507  10.171  0.1951 -0.2565 -0.1231
14585DDP     P187506  17.330  29.287  10.031  0.0961 -0.0856  0.1672
14585DDP     P287507  16.601  29.594   9.949 -0.0022 -0.1333  0.0213
14585DDP     C287508  16.443  29.569   9.493  0.4565  0.0471 -0.1607
14585DDP     C387509  17.482  28.857  10.168  0.2573  0.1574 -0.0675
14585DDP     C487510  17.003  29.591  10.641  0.0873  0.5157 -0.0482
14586DDP     C187511  14.482   8.520  17.776 -0.2341  0.0311 -0.1531
14586DDP     P187512  14.198   8.818  17.660  0.1855  0.0830 -0.0039
14586DDP     P287513  14.818   8.398  17.458  0.1963 -0.3165  0.4025
14586DDP     C287514  15.021   8.424  17.024  0.5214  0.0203  0.0782
14586DDP     C387515  14.045   9.189  17.589 -0.1428 -0.2679  0.0876
14586DDP     C487516  14.416   8.303  18.080 -0.1396 -0.4051  0.0105
14587DDP     C187517  23.439  28.520   1.226 -0.0916 -0.4417 -0.0953
14587DDP     P187518  23.040  28.628   1.207  0.0493  0.1879 -0.1785
14587DDP     P287519  23.622  28.113   1.283  0.1005 -0.0176  0.0330
14587DDP     C287520  23.811  27.697   1.185  0.0448 -0.3880  0.1607
14587DDP     C387521  22.704  28.900   1.277  0.2056  0.0823  0.0462
14587DDP     C487522  23.747  28.690   0.840 -0.1511  0.3396  0.2974
14588DDP     C187523  18.046  19.147  28.861  0.0352 -0.2602  0.2948
14588DDP     P187524  18.092  18.902  29.185 -0.0615  0.1337  0.1574
14588DDP     P287525  17.645  19.397  28.617  0.0753 -0.0323  0.0931
14588DDP     C287526  17.233  19.644  28.302 -0.3220 -0.0782 -0.3190
14588DDP     C387527  18.307  18.578  29.347 -0.1406  0.3913 -0.0668
14588DDP     C487528  18.380  19.103  28.560 -0.3283  0.1084 -0.0901
14589DDP     C187529  16.065   6.390   8.383 -0.0309 -0.1978  0.1498
14589DDP     P187530  16.195   6.294   8.039  0.4070  0.2642 -0.0099
14589DDP     P287531  16.434   6.567   8.586 -0.1674  0.2600  0.3302
14589DDP     C287532  16.819   6.635   8.909 -0.0539  0.2210  0.0207
14589DDP     C387533  16.192   5.980   7.791 -0.1316 -0.1107 -0.0467
14589DDP     C487534  15.678   6.317   8.378 -0.1515 -0.0297  0.1342
14590DDP     C187535   5.006  11.914   3.032 -0.1289 -0.1231 -0.1635
14590DDP     P187536   5.258  11.822   2.739 -0.2224  0.1390  0.2194
14590DDP     P287537   4.815  12.018   3.234 -0.0153 -0.1342 -0.0986
14590DDP     C287538   4.952  12.232   3.710  0.0843  0.2325  0.1166
14590DDP     C387539   5.174  11.845   2.268 -0.2752  0.0694 -0.4516
14590DDP     C487540   4.899  11.437   3.163 -0.0909  0.0137  0.1569
14591DDP     C187541  14.639  29.949  11.372  0.4098 -0.3078  0.0948
14591DDP     P187542  14.510  29.723  11.772  0.0699 -0.2811  0.0937
14591DDP     P287543  14.201  29.881  11.335 -0.0730  0.1664 -0.1189
14591DDP     C287544  13.912  29.704  10.973 -0.0270 -0.0415 -0.0604
14591DDP     C387545  14.186  29.725  12.155  0.1480  0.1760 -0.1148
14591DDP     C487546  14.964  29.896  11.152 -0.1075  0.1276 -0.1627
14592DDP     C187547   9.256  13.880   1.590  0.0552 -0.0305  0.2771
14592DDP     P187548   9.362  14.045   1.985 -0.0178  0.0586  0.1699
14592DDP     P287549   9.548  13.700   1.265 -0.0120 -0.4840 -0.1772
14592DDP     C287550  10.018  13.928   1.137  0.2851 -0.0443  0.3059
14592DDP     C387551   9.453  14.220   2.418 -0.0248 -0.4000 -0.2115
14592DDP     C487552   8.781  13.754   1.563 -0.1033  0.1127 -0.0375
14593DDP     C187553  15.584   1.858  12.643 -0.1969 -0.0468  0.2350
14593DDP     P187554  15.932   1.752  12.877 -0.0399  0.0060  0.0914
14593DDP     P287555  15.416   1.625  12.362 -0.1716 -0.1197 -0.3535
14593DDP     C287556  15.484   1.324  11.970 -0.0341  0.0331  0.4069
14593DDP     C387557  16.315   1.852  12.891  0.1976 -0.0193  0.0788
14593DDP     C487558  15.366   2.182  12.782 -0.1296 -0.0963 -0.0426
14594DDP     C187559  19.361  10.137  10.232 -0.1742  0.0049 -0.2752
14594DDP     P187560  19.604   9.787  10.009 -0.0510  0.0469  0.0427
14594DDP     P287561  18.995   9.910  10.343 -0.3065 -0.0418 -0.1717
14594DDP     C287562  18.638   9.757  10.089 -0.0418  0.1064  0.0195
14594DDP     C387563  19.601   9.470   9.715  0.1088 -0.0114  0.3662
14594DDP     C487564  19.581  10.502  10.422  0.1270 -0.0745  0.0975
14595DDP     C187565  19.934  19.396  20.216  0.0970 -0.4098 -0.2477
14595DDP     P187566  20.242  19.255  19.852  0.4218 -0.0913 -0.0761
14595DDP     P287567  20.057  19.158  20.578 -0.2684  0.0868  0.0319
14595DDP     C287568  19.824  18.904  20.891 -0.0217 -0.1954  0.0665
14595DDP     C387569  20.080  19.048  19.397  0.0707 -0.0458  0.2636
14595DDP     C487570  19.592  19.750  20.176  0.1181 -0.0077 -0.0064
14596DDP     C187571   8.251  17.128  23.037 -0.0412  0.1634 -0.0538
14596DDP     P187572   8.541  17.243  23.447 -0.2364  0.2319 -0.2603
14596DDP     P287573   7.817  17.296  23.175 -0.2165  0.0553 -0.0833
14596DDP     C287574   7.673  17.764  23.249  0.5339 -0.2630  0.0345
14596DDP     C387575   8.642  17.011  23.860 -0.1626  0.0901  0.1477
14596DDP     C487576   8.466  16.833  22.733 -0.1490  0.0620 -0.2335
14597DDP     C187577  18.632   9.415   7.875  0.3631 -0.0046 -0.1029
14597DDP     P187578  18.959   9.504   7.905  0.0587  0.0377  0.0089
14597DDP     P287579  18.328   9.686   7.897  0.1146  0.2555 -0.2270
14597DDP     C287580  17.910   9.887   7.566 -0.2729  0.1779 -0.1364
14597DDP     C387581  19.210   9.156   7.838 -0.2194 -0.0226 -0.2293
14597DDP     C487582  18.638   8.897   7.847 -0.2652 -0.3730  0.0072
14598DDP     C187583  24.191  28.665  13.608 -0.0460  0.3671 -0.1090
14598DDP     P187584  24.136  28.493  13.169 -0.0304  0.1204 -0.2224
14598DDP     P287585  23.955  28.501  13.965  0.0006 -0.2515  0.0578
14598DDP     C287586  23.825  28.698  14.394  0.2433 -0.0160  0.0632
14598DDP     C387587  24.199  28.167  12.827 -0.0921  0.0713  0.0673
14598DDP     C487588  24.586  28.871  13.713 -0.0932 -0.5660  0.3057
14599DDP     C187589  27.185  26.621  19.195  0.3126  0.0700 -0.1066
14599DDP     P187590  27.634  26.651  19.156 -0.0922  0.1828 -0.0082
14599DDP     P287591  27.068  26.539  19.546 -0.2126 -0.2607 -0.3134
14599DDP     C287592  27.110  26.673  20.023  0.0872  0.0131  0.1943
14599DDP     C387593  28.048  26.775  19.169 -0.0660 -0.0523 -0.1674
14599DDP     C487594  26.904  26.827  18.974  0.0047  0.0687  0.1346
14600DDP     C187595  16.110  18.340   5.875  0.1085  0.1810  0.2068
14600DDP     P187596  16.353  18.070   6.165 -0.0724  0.0878  0.0155
14600DDP     P287597  15.597  18.445   5.874 -0.2647  0.0922 -0.3105
14600DDP     C287598  15.276  18.707   6.069 -0.1545 -0.1121  0.0818
14600DDP     C387599  16.739  17.882   6.276 -0.3483 -0.0659  0.2597
14600DDP     C487600  16.344  18.615   5.566 -0.2640  0.0866  0.3662
14601DDP     C187601  20.882   6.211   4.387  0.1388 -0.0177 -0.0163
14601DDP     P187602  21.281   6.198   4.498  0.1357 -0.1600  0.1722
14601DDP     P287603  20.567   6.092   4.779  0.2585 -0.1663 -0.2600
14601DDP     C287604  20.140   6.021   4.935  0.0933  0.1524 -0.0074
14601DDP     C387605  21.677   6.032   4.362 -0.2934 -0.0527  0.3213
14601DDP     C487606  20.764   6.289   3.988 -0.0286 -0.0931  0.1472
14602DDP     C187607  20.952  21.865  24.914  0.2918 -0.0329 -0.2283
14602DDP     P187608  20.817  21.548  24.749  0.1765 -0.0731 -0.2210
14602DDP     P287609  20.657  22.121  25.125  0.1344  0.0678  0.1891
14602DDP     C287610  20.444  22.526  25.043 -0.1523  0.1329  0.2989
14602DDP     C387611  20.470  21.251  24.787  0.2515  0.1238  0.0536
14602DDP     C487612  21.310  22.152  24.665  0.0329  0.1988 -0.2233
14603DDP     C187613  10.435  24.686  19.522  0.2689  0.0578  0.0645
14603DDP     P187614  10.203  24.405  19.791  0.0253  0.2465 -0.0528
14603DDP     P287615  10.951  24.862  19.505  0.2883 -0.1175  0.0669
14603DDP     C287616  11.247  24.578  19.453  0.4098  0.0447  0.0462
14603DDP     C387617  10.054  23.933  19.570 -0.0508 -0.2796  0.0679
14603DDP     C487618  10.293  24.797  19.270 -0.3501 -0.0235 -0.2534
14604DDP     C187619  12.423   4.841   6.251 -0.2176 -0.1003 -0.2339
14604DDP     P187620  12.469   4.796   6.711 -0.3468 -0.0205  0.1998
14604DDP     P287621  12.046   5.033   6.038 -0.1988 -0.0456 -0.1326
14604DDP     C287622  11.865   5.452   5.899 -0.2262 -0.0453 -0.0354
14604DDP     C387623  12.615   4.996   7.147  0.0233 -0.2510 -0.0430
14604DDP     C487624  12.744   4.977   5.943  0.1936 -0.0706 -0.1591
14605DDP     C187625  15.107  26.978   0.284 -0.4466  0.0686  0.0546
14605DDP     P187626  15.292  27.283   0.384 -0.0180 -0.1613  0.2818
14605DDP     P287627  14.759  26.743   0.327  0.2037  0.2070 -0.2092
14605DDP     C287628  14.344  26.476   0.121  0.0249  0.0311  0.3379
14605DDP     C387629  15.170  27.809   0.319  0.3000 -0.1088 -0.1238
14605DDP     C487630  15.471  26.846  30.241 -0.0224  0.0897  0.1317
14606DDP     C187631  10.830  23.015  14.182 -0.2369 -0.1494 -0.1063
14606DDP     P187632  11.033  22.981  14.608 -0.1348 -0.1813  0.2408
14606DDP     P287633  10.601  23.407  14.224 -0.2274  0.1588  0.0425
14606DDP     C287634  10.623  23.814  14.167 -0.3260  0.1621  0.0041
14606DDP     C387635  10.761  22.851  14.890  0.0470 -0.4244  0.0256
14606DDP     C487636  10.661  22.683  13.871  0.0835  0.1644 -0.3971
14607DDP     C187637  18.105  23.538  20.353  0.0972 -0.1686  0.1233
14607DDP     P187638  17.912  23.729  19.971 -0.0335 -0.1660  0.2200
14607DDP     P287639  18.518  23.575  20.295  0.3058 -0.1305 -0.1993
14607DDP     C287640  18.857  23.780  20.437  0.1479 -0.3409 -0.2474
14607DDP     C387641  17.704  23.925  19.689 -0.1079  0.0231 -0.2652
14607DDP     C487642  17.867  23.625  20.664  0.3352 -0.0157  0.0874
14608DOD     C187643   4.499  22.163  14.849 -0.3020  0.0479  0.1778
14608DOD     C287644   4.606  22.427  15.182 -0.1885  0.2832 -0.3938
14608DOD     C387645   4.854  22.408  15.559  0.1895 -0.3400  0.0856
14609DOD     C187646  20.664  27.241  18.975  0.1234 -0.2168  0.0907
14609DOD     C287647  20.556  27.202  19.447  0.0702 -0.2054  0.2350
14609DOD     C387648  20.362  27.276  19.852  0.0723 -0.1893  0.2076
14610DOD     C187649  25.829  10.974   0.045 -0.0319  0.2308  0.1111
14610DOD     C287650  25.415  10.883  30.289 -0.1210 -0.0593 -0.0425
14610DOD     C387651  25.028  11.010  30.143  0.2330  0.0876  0.0770
14611DOD     C187652  28.389  13.558  26.189  0.0293  0.0172 -0.1493
14611DOD     C287653  28.376  13.724  26.637 -0.0688  0.0763 -0.1428
14611DOD     C387654  28.463  13.704  27.134  0.4980  0.1007  0.0105
14612DOD     C187655   5.945  24.948  21.326  0.1850  0.1929 -0.1530
14612DOD     C287656   5.611  24.869  21.623  0.0245 -0.2102  0.0086
14612DOD     C387657   5.269  24.723  21.766  0.1170 -0.0475  0.1707
14613DOD     C187658  27.838   0.239  15.741 -0.1037  0.0667  0.1885
14613DOD     C287659  28.182  30.318  15.807 -0.0880  0.1837 -0.2193
14613DOD     C387660  28.612  30.221  15.771 -0.2037  0.1089  0.0804
14614DOD     C187661  15.067  18.581  12.835  0.1265 -0.2243 -0.3215
14614DOD     C287662  15.100  18.772  12.425 -0.1409  0.0448  0.3255
14614DOD     C387663  15.110  18.910  11.971  0.1019 -0.0881 -0.1141
14615DOD     C187664  20.262  21.240   5.866  0.2811  0.0455 -0.4845
14615DOD     C287665  19.829  21.313   5.684  0.0665 -0.1135 -0.0180
14615DOD     C387666  19.425  21.085   5.764  0.2096  0.0395 -0.0699
14616DOD     C187667  18.218  11.117  12.421 -0.1571  0.0102  0.1917
14616DOD     C287668  18.127  11.555  12.646  0.0535 -0.0127 -0.2590
14616DOD     C387669  17.763  11.699  12.845  0.1516 -0.1397 -0.1560
14617DOD     C187670   4.715  15.963  19.492 -0.1957 -0.2782 -0.3261
14617DOD     C287671   4.984  15.687  19.621 -0.1009 -0.3270  0.2179
14617DOD     C387672   4.843  15.421  19.996  0.2299  0.0324  0.3274
14618DOD     C187673  17.632   9.321  30.095 -0.1645 -0.2224  0.0623
14618DOD     C287674  17.920   9.481  29.789  0.2186 -0.3671  0.2497
14618DOD     C387675  18.111   9.759  29.408  0.1927  0.0389 -0.0711
14619DOD     C187676  10.815  20.210   1.487 -0.1215 -0.0814 -0.2398
14619DOD     C287677  11.132  20.300   1.198 -0.1455  0.0363  0.0148
14619DOD     C387678  11.308  20.179   0.739  0.3137 -0.1526  0.1036
14620DOD     C187679   9.880   0.278   4.197 -0.2204 -0.3408  0.2575
14620DOD     C287680  10.030   0.104   3.812 -0.1100  0.1695 -0.1801
14620DOD     C387681   9.848  30.280   3.418  0.0093 -0.1187 -0.0574
14621DOD     C187682  10.742   0.225  28.761  0.3121  0.0474  0.2263
14621DOD     C287683  10.373   0.477  28.601  0.2711  0.3592  0.3259
14621DOD     C387684  10.071   0.641  28.327  0.3177 -0.1596  0.2293
14622DOD     C187685   3.727  15.332   1.206  0.1174 -0.0328 -0.3580
14622DOD     C287686   3.733  14.860   1.345 -0.0470  0.1215 -0.1875
14622DOD     C387687   3.706  14.475   1.508 -0.3564 -0.0102  0.0947
14623DOD     C187688  27.596  14.545  19.231 -0.0082 -0.1732  0.2099
14623DOD     C287689  27.361  14.229  18.950 -0.2998 -0.3343  0.2357
14623DOD     C387690  27.341  14.174  18.500  0.2201 -0.0555 -0.0083
14624DOD     C187691   9.888  25.026  27.417 -0.1701  0.1956 -0.0390
14624DOD     C287692   9.901  25.204  26.933  0.1921  0.0425  0.3008
14624DOD     C387693   9.813  25.016  26.570  0.2104  0.1995 -0.0245
14625DOD     C187694  28.385  11.493  27.320  0.1390  0.1519  0.2007
14625DOD     C287695  28.467  10.968  27.286  0.0135 -0.2197 -0.1303
14625DOD     C387696  28.183  10.616  27.270  0.1042  0.1301  0.0857
14626DOD     C187697  11.948  13.193   9.693  0.1004  0.3166  0.0569
14626DOD     C287698  11.984  13.656   9.704 -0.2731 -0.4294 -0.0803
14626DOD     C387699  12.374  13.944   9.574  0.1463 -0.1696  0.0507
14627DOD     C187700   7.639   3.304  22.605 -0.1187 -0.1683 -0.0893
14627DOD     C287701   7.275   3.483  22.829  0.1583  0.1183 -0.0770
14627DOD     C387702   7.111   3.905  22.763 -0.1041  0.2954  0.2224
14628DOD     C187703  13.410  19.954  24.505 -0.2880  0.1544  0.0364
14628DOD     C287704  13.700  19.699  24.313 -0.2516  0.0931 -0.0793
14628DOD     C387705  13.779  19.374  23.992 -0.1330 -0.3596 -0.1077
14629DOD     C187706  20.392   2.819  24.128 -0.0269  0.1337  0.0376
14629DOD     C287707  20.270   3.023  23.741 -0.2017  0.2545 -0.1629
14629DOD     C387708  19.968   3.274  23.528 -0.0787  0.3277 -0.0819
14630DOD     C187709  17.671  14.191  13.021  0.0916  0.2063  0.0456
14630DOD     C287710  17.362  13.941  13.259 -0.1318  0.1092  0.3075
14630DOD     C387711  17.442  13.549  13.459 -0.1687  0.1172  0.0535
14631DOD     C187712  25.588   0.628  19.602  0.2327  0.0826  0.1641
14631DOD     C287713  26.035   0.535  19.641 -0.1618  0.3846 -0.2102
14631DOD     C387714  26.554   0.460  19.622 -0.1784  0.1471  0.1778
14632DOD     C187715   8.931  12.543  10.143  0.1786 -0.0099 -0.0576
14632DOD     C287716   8.636  12.765  10.406 -0.0623 -0.0527 -0.4710
14632DOD     C387717   8.162  12.853  10.247 -0.0728  0.0040  0.0875
14633DOD     C187718  14.016   6.541  12.855 -0.4496  0.0002  0.0275
14633DOD     C287719  14.473   6.390  12.737  0.3378 -0.1570  0.0112
14633DOD     C387720  14.950   6.326  12.535 -0.0168  0.1725 -0.0841
14634DOD     C187721  16.839   0.465  28.963  0.1060  0.0057 -0.2749
14634DOD     C287722  16.601   0.774  29.197 -0.2171  0.0140 -0.0928
14634DOD     C387723  16.221   0.757  28.970  0.3079  0.1465  0.1128
14635DOD     C187724   8.167   9.352  23.741  0.0805  0.1018  0.0008
14635DOD     C287725   7.800   9.331  23.413  0.0676 -0.2210 -0.1072
14635DOD     C387726   7.333   9.233  23.291  0.2629  0.0377  0.3154
14636DOD     C187727  23.235  11.275  12.154  0.0961  0.0848 -0.2575
14636DOD     C287728  23.106  11.388  12.582  0.1964 -0.0018 -0.0917
14636DOD     C387729  23.128  11.602  12.990  0.2228 -0.1885  0.3078
14637DOD     C187730   8.584  11.067   2.555 -0.0088  0.0343  0.0715
14637DOD     C287731   8.230  11.204   2.295  0.1538 -0.0666 -0.1434
14637DOD     C387732   7.777  11.343   2.358  0.1150 -0.0359  0.0145
14638DOD     C187733   0.643  14.464  27.395 -0.0693  0.2428  0.0287
14638DOD     C287734   0.573  14.787  27.695  0.6264  0.2879  0.1994
14638DOD     C387735   0.422  15.039  28.063  0.1892 -0.1369  0.0942
14639DOD     C187736   2.418  23.853  11.224  0.0548  0.1777  0.0405
14639DOD     C287737   2.465  23.543  10.962 -0.0693 -0.2659  0.0673
14639DOD     C387738   2.367  23.093  11.000  0.1115 -0.1250  0.1783
14640DOD     C187739  27.053   4.152   4.002 -0.2688 -0.0795 -0.0109
14640DOD     C287740  26.951   3.851   4.343  0.0779 -0.3401  0.0636
14640DOD     C387741  27.052   3.389   4.605 -0.2827 -0.2225  0.0951
14641DOD     C187742   6.810  13.917   2.240  0.0264  0.1200  0.0252
14641DOD     C287743   7.177  13.960   2.465 -0.1719  0.3398  0.0215
14641DOD     C387744   7.622  13.963   2.511  0.1918 -0.5346  0.1491
14642DOD     C187745  13.835   3.384   7.267  0.1024  0.0598 -0.1307
14642DOD     C287746  13.705   2.969   7.160  0.0368  0.1017 -0.1920
14642DOD     C387747  13.792   2.700   6.789 -0.2149  0.0556 -0.0079
14643DOD     C187748  19.375  10.390   4.997 -0.0602 -0.1376  0.1541
14643DOD     C287749  19.346   9.936   5.089  0.0789  0.1077 -0.2762
14643DOD     C387750  19.457   9.507   4.859  0.2334  0.0542 -0.1755
14644DOD     C187751  18.586   4.567  24.027  0.0442 -0.0758 -0.2221
14644DOD     C287752  18.748   4.207  24.225  0.0789 -0.2093  0.0693
14644DOD     C387753  19.038   3.821  24.128  0.1542 -0.1706 -0.3380
14645DOD     C187754  15.856  17.730  14.007 -0.0047 -0.1472 -0.0575
14645DOD     C287755  15.394  17.879  13.951  0.1121 -0.0048 -0.0254
14645DOD     C387756  14.979  17.702  13.985  0.0000  0.0287 -0.0324
14646DOD     C187757  20.521  22.345   5.749  0.0522  0.1396  0.1717
14646DOD     C287758  20.543  21.958   5.486  0.1762 -0.1622 -0.3086
14646DOD     C387759  20.431  21.524   5.390 -0.1314  0.3624 -0.1563
14647DOD     C187760   1.731  11.029  15.245  0.1068  0.1724 -0.0950
14647DOD     C287761   1.500  10.686  14.999  0.0845  0.0591  0.0160
14647DOD     C387762   1.353  10.483  14.609 -0.1093  0.2505  0.0990
14648DOD     C187763  28.836  11.893  10.410 -0.0979 -0.0062 -0.1745
14648DOD     C287764  28.726  11.424  10.520  0.1796 -0.0236 -0.0430
14648DOD     C387765  28.796  11.005  10.653  0.0903  0.1357 -0.4968
14649DOD     C187766   5.289  21.248  11.825  0.0474  0.0929 -0.2344
14649DOD     C287767   5.589  21.518  12.084  0.2633 -0.0321 -0.0049
14649DOD     C387768   5.455  21.638  12.493  0.3985 -0.2225 -0.0717
14650DOD     C187769  22.679  25.095   0.328 -0.0460  0.0008  0.0253
14650DOD     C287770  22.253  25.297   0.103  0.1565 -0.0555  0.0731
14650DOD     C387771  21.892  25.160  30.206 -0.2461 -0.0576  0.0909
14651DOD     C187772   4.839   2.962  27.602  0.1573 -0.2817  0.0497
14651DOD     C287773   4.611   2.629  27.669  0.0191  0.2756  0.0334
14651DOD     C387774   4.610   2.167  27.704 -0.1786 -0.2708  0.0774
14652DOD     C187775  16.258  28.833  28.245  0.2439  0.0442 -0.2560
14652DOD     C287776  15.909  29.110  28.365 -0.0906  0.0989  0.2413
14652DOD     C387777  15.735  29.519  28.589  0.2325  0.0189  0.0018
14653DOD     C187778   6.080  17.260   7.527 -0.1098  0.0834 -0.0476
14653DOD     C287779   5.783  16.895   7.534  0.3036  0.1840 -0.1178
14653DOD     C387780   5.690  16.462   7.370 -0.1549 -0.0381 -0.2154
14654DOD     C187781  23.748   7.460   4.954  0.0597 -0.0512  0.0709
14654DOD     C287782  23.381   7.739   4.840 -0.1205 -0.0995  0.0562
14654DOD     C387783  22.953   7.905   4.705  0.0337 -0.0896 -0.2582
14655DOD     C187784   3.665   8.586  12.695 -0.2391 -0.0042 -0.1421
14655DOD     C287785   3.444   8.746  13.046 -0.0705 -0.3527 -0.0104
14655DOD     C387786   3.147   9.023  13.273  0.1499  0.0815 -0.1007
14656DOD     C187787  15.569  26.482  26.610 -0.0193  0.0209  0.2176
14656DOD     C287788  15.432  26.738  26.940  0.0607  0.0417  0.1446
14656DOD     C387789  15.400  26.907  27.322  0.0826 -0.2012  0.0247
14657DOD     C187790  17.129   3.743   8.929 -0.0117 -0.1844 -0.0434
14657DOD     C287791  17.585   3.634   9.088 -0.0012 -0.0651 -0.0888
14657DOD     C387792  18.027   3.772   9.148 -0.0870  0.3191  0.0214
14658DOD     C187793   9.489  17.900  11.760 -0.0217 -0.0090 -0.3056
14658DOD     C287794   9.614  18.335  11.909  0.1617 -0.5386 -0.2006
14658DOD     C387795   9.531  18.505  12.331  0.0132  0.3442 -0.1355
14659DOD     C187796  19.176   8.468  21.970  0.0664  0.1865  0.1048
14659DOD     C287797  19.225   8.804  22.285 -0.1011  0.3345  0.0009
14659DOD     C387798  19.074   9.242  22.281  0.2553 -0.0087 -0.2796
14660DOD     C187799   7.314  16.877   3.697 -0.0383 -0.0711 -0.0956
14660DOD     C287800   7.453  16.952   3.229  0.0462  0.2669  0.0962
14660DOD     C387801   7.481  17.153   2.807 -0.3107  0.2129 -0.0139
14661DOD     C187802  13.358  11.209   0.458  0.1355  0.3228 -0.0503
14661DOD     C287803  13.525  10.861   0.178  0.2491  0.1126  0.1788
14661DOD     C387804  13.767  10.493   0.305  0.1096  0.1804 -0.1643
14662DOD     C187805  13.614   5.707  20.264  0.0005 -0.0985 -0.1037
14662DOD     C287806  13.655   5.250  20.362  0.0354  0.1104 -0.0927
14662DOD     C387807  13.498   4.834  20.390  0.1055  0.2609  0.2619
14663DOD     C187808  26.447  17.427  25.762  0.1452 -0.1379  0.3276
14663DOD     C287809  26.326  17.468  26.224 -0.1298 -0.0318  0.2980
14663DOD     C387810  26.080  17.344  26.602 -0.2965  0.1180  0.0174
14664DOD     C187811   3.503   2.625  11.882  0.0992 -0.3233  0.2132
14664DOD     C287812   3.674   2.216  11.761  0.0247 -0.0931 -0.4770
14664DOD     C387813   4.058   1.903  11.710  0.0123  0.2050 -0.1586
14665DOD     C187814  21.851  15.319   1.294  0.0254  0.1004 -0.3773
14665DOD     C287815  22.257  15.411   1.075  0.1109 -0.0004  0.2103
14665DOD     C387816  22.304  15.302   0.629  0.2401  0.1293  0.1576
14666DOD     C187817  24.744  17.534   6.316  0.1371 -0.0102 -0.3295
14666DOD     C287818  25.142  17.220   6.226 -0.1920 -0.2697  0.1528
14666DOD     C387819  25.409  16.899   6.336  0.1308 -0.0808 -0.1114
14667DOD     C187820   7.679  13.920  12.105  0.2274 -0.1842  0.1215
14667DOD     C287821   7.754  13.932  11.664 -0.1427 -0.3674 -0.1084
14667DOD     C387822   7.837  14.133  11.230 -0.0517 -0.1599 -0.4929
14668DOD     C187823  21.744   2.207   9.347 -0.1913 -0.4355  0.0745
14668DOD     C287824  21.346   2.247   9.517 -0.1848 -0.0059 -0.0415
14668DOD     C387825  21.096   2.112   9.855  0.2412 -0.1084 -0.0212
14669DOD     C187826  10.795  11.874   4.628  0.1008 -0.2028 -0.0260
14669DOD     C287827  10.472  11.898   4.213 -0.0109 -0.2014 -0.0077
14669DOD     C387828  10.024  11.773   4.129  0.3611 -0.3317  0.0480
14670DOD     C187829  24.397  29.402   6.502 -0.0682  0.2771 -0.1822
14670DOD     C287830  24.530  28.996   6.316  0.1672 -0.0970 -0.0505
14670DOD     C387831  24.829  28.812   6.025  0.2585 -0.2292 -0.1411
14671DOD     C187832  28.159  17.855  20.581 -0.3495 -0.4198 -0.2032
14671DOD     C287833  28.059  18.074  20.983 -0.0313  0.1215 -0.0760
14671DOD     C387834  27.799  17.884  21.309 -0.1727  0.2615 -0.0212
14672DOD     C187835   8.614  19.577  10.312  0.1359 -0.0022  0.2976
14672DOD     C287836   8.224  19.832  10.360 -0.1558  0.2239 -0.0954
14672DOD     C387837   8.082  20.079  10.757 -0.0819  0.0991  0.0731
14673DOD     C187838  16.730  15.267   2.494  0.1789  0.0803  0.1418
14673DOD     C287839  17.075  14.993   2.251 -0.0281  0.0563 -0.2796
14673DOD     C387840  17.360  15.146   1.873  0.0194 -0.0235  0.3884
14674DOD     C187841  17.591  12.491  18.026 -0.1740  0.0312 -0.1729
14674DOD     C287842  18.031  12.453  17.848  0.0375  0.1390  0.1851
14674DOD     C387843  18.434  12.255  17.828 -0.3118 -0.0991 -0.0059
14675DOD     C187844  24.128  15.179   0.785  0.0591  0.1225  0.2178
14675DOD     C287845  23.973  15.545   0.469 -0.0252  0.0714  0.1651
14675DOD     C387846  23.849  15.589   0.065 -0.2384 -0.1091  0.3474
14676DOD     C187847  25.301   5.651  10.702  0.1215 -0.0549  0.1351
14676DOD     C287848  25.567   5.269  10.774 -0.1110 -0.3834 -0.0283
14676DOD     C387849  25.732   4.842  10.983 -0.2000  0.1238 -0.2018
14677DOD     C187850  22.699  16.136  17.399  0.3684  0.1849  0.3181
14677DOD     C287851  22.778  15.855  17.036  0.1970  0.1868  0.1841
14677DOD     C387852  23.199  15.569  17.180 -0.1994  0.0701 -0.1681
14678DOD     C187853  16.969  16.453  28.695  0.1665 -0.0105  0.0839
14678DOD     C287854  16.800  16.704  29.078  0.1077  0.0235  0.2566
14678DOD     C387855  16.588  17.055  29.331 -0.0405 -0.2774  0.0595
14679DOD     C187856   6.387  23.343  13.093 -0.1155  0.1958  0.0237
14679DOD     C287857   6.719  23.650  12.921  0.2922  0.1168 -0.0216
14679DOD     C387858   7.108  23.962  13.043  0.0302  0.2411  0.0414
14680DOD     C187859  12.347   9.097  18.253 -0.3084  0.0368 -0.0273
14680DOD     C287860  12.136   9.297  17.876  0.2029 -0.2179  0.0389
14680DOD     C387861  12.083   9.521  17.491 -0.3483  0.2553  0.0375
14681DOD     C187862  29.080  19.834   8.826 -0.0459  0.2096  0.0091
14681DOD     C287863  29.300  19.476   9.020  0.1762 -0.1479 -0.0384
14681DOD     C387864  29.242  19.072   9.241  0.0896 -0.0476 -0.2244
14682DOD     C187865  26.962   2.384  30.131 -0.0898  0.1646  0.4659
14682DOD     C287866  26.792   1.970  30.069  0.1514  0.2911 -0.0177
14682DOD     C387867  26.736   1.547  29.895  0.2822 -0.1532 -0.0476
14683DOD     C187868  18.635  29.304   8.107 -0.0718  0.0184  0.1959
14683DOD     C287869  18.845  29.760   8.207  0.3535  0.2997 -0.3502
14683DOD     C387870  19.071  30.194   8.114  0.0193  0.0604 -0.0761
14684DOD     C187871  26.057  23.750  21.830  0.1404  0.1606  0.1457
14684DOD     C287872  25.909  24.028  22.157 -0.0786 -0.1484 -0.4158
14684DOD     C387873  25.863  24.512  22.075 -0.2234  0.0655 -0.2170
14685DOD     C187874  26.014  29.534   3.220  0.1090  0.0312 -0.1407
14685DOD     C287875  26.287  29.252   3.440  0.2166  0.3311  0.0575
14685DOD     C387876  26.614  28.974   3.291 -0.2538  0.0034  0.2170
14686DOD     C187877  16.020  10.908   6.604  0.0453  0.1366  0.0642
14686DOD     C287878  16.207  10.584   6.350  0.0302 -0.1112  0.2333
14686DOD     C387879  16.381  10.304   6.040  0.0388 -0.1183 -0.1494
14687DOD     C187880  20.168  18.325   8.621 -0.1252  0.0907 -0.1008
14687DOD     C287881  19.902  18.679   8.457 -0.0373 -0.0048 -0.2365
14687DOD     C387882  19.587  18.923   8.629 -0.0849  0.1782 -0.0907
14688DOD     C187883  17.353  28.766  26.614 -0.0048 -0.0687  0.0983
14688DOD     C287884  17.350  28.940  27.027 -0.1477 -0.0715 -0.1215
14688DOD     C387885  16.905  28.940  27.284  0.1356  0.0443 -0.1201
14689DOD     C187886  28.216  12.778   5.434 -0.0083  0.0730 -0.3299
14689DOD     C287887  27.924  12.461   5.680  0.1046 -0.0772 -0.1964
14689DOD     C387888  27.432  12.471   5.708 -0.1289  0.1291 -0.2742
14690DOD     C187889  27.375  14.957  19.416  0.3300  0.1803 -0.2172
14690DOD     C287890  27.224  14.837  19.014  0.0190 -0.2492 -0.2873
14690DOD     C387891  26.964  14.487  18.729  0.1298  0.1188 -0.3094
14691DOD     C187892   5.006  29.728  10.319 -0.1513 -0.0169 -0.2340
14691DOD     C287893   4.540  29.831  10.323  0.1496 -0.1024 -0.0297
14691DOD     C387894   4.108  30.075  10.248 -0.0108  0.1093  0.0938
14692DOD     C187895   4.669  28.852  15.677  0.1101 -0.0103 -0.1897
14692DOD     C287896   4.918  28.416  15.723  0.0927  0.0624  0.0139
14692DOD     C387897   4.994  28.028  15.505  0.1767 -0.0992  0.0729
14693DOD     C187898  22.019  20.462   8.344  0.2126  0.4078  0.0777
14693DOD     C287899  21.926  20.926   8.360 -0.5258  0.1115 -0.2064
14693DOD     C387900  21.918  21.250   8.023 -0.0355 -0.0438 -0.0087
14694DOD     C187901  23.212  29.539  22.620  0.1294  0.3586  0.3189
14694DOD     C287902  23.062  29.174  22.306 -0.0954 -0.1492  0.1632
14694DOD     C387903  22.958  29.093  21.821  0.0743 -0.0751 -0.0833
14695DOD     C187904  19.169  23.021   4.568 -0.1196  0.1253 -0.1847
14695DOD     C287905  19.304  22.738   4.165  0.0714 -0.4532  0.0718
14695DOD     C387906  19.705  22.574   4.014  0.1665  0.1935 -0.0434
14696DOD     C187907  21.583  18.436  30.052 -0.0036 -0.0510 -0.1574
14696DOD     C287908  21.445  18.839  29.812 -0.1667 -0.0434 -0.0303
14696DOD     C387909  21.632  19.242  29.852 -0.0997 -0.1204 -0.0765
14697DOD     C187910   7.438   9.937  23.541  0.5548  0.4015 -0.0553
14697DOD     C287911   7.213  10.385  23.329 -0.2616 -0.0177 -0.0567
14697DOD     C387912   7.348  10.733  23.074 -0.0986 -0.3968 -0.0543
14698DOD     C187913  25.637  20.438   2.144 -0.0842 -0.0172  0.0218
14698DOD     C287914  25.937  20.131   1.987  0.3657 -0.3454 -0.1777
14698DOD     C387915  25.987  19.750   1.753  0.0615  0.1465  0.0410
14699DOD     C187916   9.679  18.877  21.400 -0.2021 -0.1370  0.2484
14699DOD     C287917  10.081  18.897  21.153 -0.2043 -0.0588 -0.2752
14699DOD     C387918  10.446  19.132  20.984  0.0426  0.0044 -0.0488
14700DOD     C187919   4.389  21.698   8.033 -0.2001  0.0348 -0.1590
14700DOD     C287920   4.828  21.479   8.052  0.3867 -0.2328  0.1020
14700DOD     C387921   5.206  21.447   8.299 -0.2542 -0.0771  0.2745
14701DOD     C187922  26.384   2.266  17.693  0.3829  0.0513  0.1902
14701DOD     C287923  26.045   1.967  17.707 -0.1590 -0.2129 -0.1422
14701DOD     C387924  25.628   1.769  17.575  0.0261  0.0252 -0.1342
14702DOD     C187925  23.547  21.489  27.619 -0.1636 -0.0402 -0.3751
14702DOD     C287926  23.765  21.767  27.360 -0.1075  0.0213  0.1125
14702DOD     C387927  23.905  21.691  26.890  0.0288 -0.0509  0.3828
14703DOD     C187928  18.367  19.086  22.981 -0.2293  0.0786 -0.2178
14703DOD     C287929  18.128  19.397  22.799  0.1030 -0.2662 -0.0292
14703DOD     C387930  18.026  19.893  22.864 -0.4886 -0.0427  0.3398
14704DOD     C187931   0.886   5.779  17.617  0.0734 -0.1860  0.1697
14704DOD     C287932   1.238   5.818  17.378  0.0738 -0.0797 -0.3070
14704DOD     C387933   1.579   5.681  17.124  0.0339 -0.1306  0.2491
14705DOD     C187934  24.461  13.889   5.837 -0.3990 -0.0478 -0.1732
14705DOD     C287935  24.265  13.618   6.166 -0.1390 -0.2156  0.0798
14705DOD     C387936  24.220  13.705   6.656  0.1046 -0.1117  0.1059
14706DOD     C187937  17.388   9.815  22.612 -0.1152 -0.0504  0.2004
14706DOD     C287938  17.810   9.599  22.705  0.2663  0.0560  0.1136
14706DOD     C387939  18.012   9.160  22.691  0.0510 -0.3123 -0.1406
14707DOD     C187940  11.457  19.862  19.766 -0.0658 -0.0691 -0.0151
14707DOD     C287941  11.770  19.533  19.761  0.0536 -0.1140  0.2013
14707DOD     C387942  12.126  19.324  19.611 -0.4765  0.1049  0.0188
14708DOD     C187943   9.433  10.095   2.527  0.0196  0.0276 -0.1744
14708DOD     C287944   9.828  10.355   2.665  0.1431  0.2840  0.1422
14708DOD     C387945  10.155  10.519   2.368  0.0917  0.0159 -0.0347
14709DOD     C187946   4.632   0.047  28.488 -0.0774 -0.1225  0.1772
14709DOD     C287947   4.489   0.274  28.096  0.3533 -0.0362 -0.2734
14709DOD     C387948   4.402   0.475  27.680  0.2274  0.2825  0.0601
14710DOD     C187949  30.037   2.178   8.096 -0.1506  0.1084 -0.1024
14710DOD     C287950  29.733   2.131   7.759 -0.0322 -0.0398  0.2771
14710DOD     C387951  29.380   2.089   7.450 -0.2458  0.0031  0.3908
14711DOD     C187952  25.347  12.296  27.583 -0.2398 -0.1641  0.1756
14711DOD     C287953  25.030  12.655  27.564 -0.4041 -0.0503 -0.1289
14711DOD     C387954  24.620  12.937  27.602  0.0881  0.1776 -0.1302
14712DOD     C187955  13.536   8.094   6.206 -0.2272 -0.1790 -0.1108
14712DOD     C287956  13.284   7.932   5.864 -0.0356  0.1559 -0.0824
14712DOD     C387957  12.882   7.828   5.662  0.3220  0.1370 -0.1396
14713DOD     C187958  10.714   2.275  16.095  0.1189 -0.0467  0.0560
14713DOD     C287959  11.096   2.004  15.981  0.0743  0.1713  0.2708
14713DOD     C387960  11.518   1.763  15.907  0.1641  0.0534 -0.2585
14714DOD     C187961  11.943   6.852  22.305  0.1717 -0.0443 -0.1841
14714DOD     C287962  11.781   6.788  22.732  0.4210 -0.0227 -0.2575
14714DOD     C387963  11.423   6.984  23.014  0.2048 -0.0001 -0.0408
14715DOD     C187964  22.081  16.238  25.548  0.0369  0.1050 -0.1716
14715DOD     C287965  21.864  16.618  25.326 -0.2175  0.0994 -0.0092
14715DOD     C387966  21.679  16.980  25.100  0.1471 -0.2963 -0.0851
14716DOD     C187967   2.693  28.998   7.968  0.0327 -0.0937 -0.0270
14716DOD     C287968   3.000  28.931   7.579  0.0764 -0.1292  0.2340
14716DOD     C387969   3.237  28.982   7.169  0.1299  0.0486 -0.3077
14717DOD     C187970   1.647  13.352   0.592 -0.1096 -0.1041  0.0230
14717DOD     C287971   1.989  13.268   0.255 -0.0752  0.2765 -0.0497
14717DOD     C387972   2.444  13.160   0.152 -0.0279  0.0005  0.1183
14718DOD     C187973  24.210   9.353   5.167 -0.0969 -0.0279  0.2444
14718DOD     C287974  24.194   9.030   4.770  0.0172  0.3431  0.2052
14718DOD     C387975  24.166   8.954   4.313 -0.2365  0.1757  0.1678
14719DOD     C187976  16.879  19.213  10.820 -0.0388  0.2322  0.3275
14719DOD     C287977  16.821  19.135  10.306 -0.1176 -0.0245  0.0734
14719DOD     C387978  16.985  18.821   9.992  0.1383 -0.0621  0.0893
14720DOD     C187979  18.381  18.148   4.230 -0.0313  0.3446  0.0745
14720DOD     C287980  18.069  17.756   4.198 -0.2165 -0.1009 -0.0540
14720DOD     C387981  17.732  17.619   4.434 -0.1533  0.0288  0.1326
14721DOD     C187982  27.864   2.779  28.886 -0.1615  0.0669  0.2090
14721DOD     C287983  28.082   2.907  28.503  0.0710  0.1785  0.4469
14721DOD     C387984  28.425   3.071  28.282  0.1568 -0.1638  0.2100
14722DOD     C187985  21.748   3.254   6.773 -0.1148  0.0236  0.1517
14722DOD     C287986  22.089   3.173   6.431  0.1852 -0.3262  0.1766
14722DOD     C387987  22.539   3.007   6.333  0.0304 -0.1618 -0.1876
14723DOD     C187988   3.896  21.847  25.490 -0.0378  0.3198  0.0465
14723DOD     C287989   3.935  21.670  25.097  0.1850  0.4204 -0.2404
14723DOD     C387990   3.788  21.250  24.856  0.0942 -0.1041 -0.0327
14724DOD     C187991   4.521  24.594   6.755 -0.0106  0.1433 -0.2263
14724DOD     C287992   4.649  24.943   7.048 -0.2168 -0.0394  0.0436
14724DOD     C387993   5.033  25.229   7.196  0.0974  0.0924  0.4595
14725DOD     C187994  15.802  19.668  18.940  0.2216 -0.0347 -0.3665
14725DOD     C287995  16.058  19.274  18.798  0.1043  0.0882 -0.0204
14725DOD     C387996  16.493  19.029  18.725  0.1853  0.2191 -0.0549
14726DOD     C187997  22.673  25.239   6.172 -0.2623  0.0675  0.0835
14726DOD     C287998  22.435  25.618   6.321  0.0673 -0.3605 -0.2170
14726DOD     C387999  22.002  25.740   6.460  0.1336  0.0194 -0.1172
14727DOD     C188000   2.311  18.180  13.366  0.0557 -0.3707  0.0058
14727DOD     C288001   2.273  18.564  13.117  0.2336 -0.1885 -0.1373
14727DOD     C388002   2.170  18.982  12.922  0.3076 -0.0577 -0.1479
14728DOD     C188003   0.736  10.867  17.706 -0.0503  0.1010 -0.3454
14728DOD     C288004   0.538  10.635  18.077 -0.1237 -0.0213  0.0081
14728DOD     C388005   0.138  10.659  18.251 -0.1274  0.0769  0.1264
14729DOD     C188006   3.307   5.625  27.842  0.1066  0.0426  0.1589
14729DOD     C288007   3.679   5.921  27.879  0.2025 -0.5310 -0.1926
14729DOD     C388008   3.855   6.065  28.247  0.1267 -0.2284 -0.1186
14730DOD     C188009  12.740  19.899   1.136  0.0051 -0.2034  0.0774
14730DOD     C288010  12.556  20.321   1.309  0.0313 -0.0666 -0.0464
14730DOD     C388011  12.146  20.597   1.246  0.1052 -0.1671 -0.0001
14731DOD     C188012  24.953  10.437  29.243  0.0334 -0.2278  0.0051
14731DOD     C288013  24.838  10.349  28.773  0.0913  0.2243  0.2455
14731DOD     C388014  24.582  10.529  28.441  0.1264  0.0663  0.2360
14732DOD     C188015   7.818  12.539   2.329  0.1186  0.1412 -0.1514
14732DOD     C288016   7.484  12.205   2.414 -0.3451 -0.3177 -0.0546
14732DOD     C388017   7.090  12.005   2.257 -0.1900 -0.0513 -0.0569
14733DOD     C188018   1.411  25.433  22.387  0.0504 -0.1070  0.1013
14733DOD     C288019   1.502  25.434  21.916 -0.1413  0.0372  0.1919
14733DOD     C388020   1.523  25.208  21.543  0.1462 -0.2209 -0.1183
14734DOD     C188021  20.437  22.230   1.156 -0.3036 -0.3063  0.2244
14734DOD     C288022  20.552  22.291   0.642 -0.2832 -0.1759 -0.4704
14734DOD     C388023  20.465  22.180   0.239 -0.0918  0.0366 -0.0381
14735DOD     C188024  25.353   9.988   4.704  0.1243  0.3592 -0.1798
14735DOD     C288025  25.063   9.644   4.525  0.2631 -0.1456 -0.2627
14735DOD     C388026  24.630   9.332   4.459 -0.2183 -0.1370 -0.2668
14736DOD     C188027   5.728  16.005   7.518 -0.1917  0.0140  0.0575
14736DOD     C288028   5.910  15.606   7.659  0.0567 -0.2072  0.2088
14736DOD     C388029   5.939  15.196   7.852  0.1699 -0.1080 -0.1545
14737DOD     C188030   4.521  17.413  19.019  0.0312  0.0820 -0.3291
14737DOD     C288031   4.157  17.407  19.267  0.1708  0.0216  0.0694
14737DOD     C388032   3.690  17.398  19.247  0.0373  0.0181  0.2831
14738DOD     C188033  19.883   1.927  13.823  0.1343 -0.1513 -0.3215
14738DOD     C288034  19.879   2.315  14.102 -0.2147 -0.1067  0.2510
14738DOD     C388035  20.061   2.631  14.378  0.0135  0.1860 -0.2140
14739DOD     C188036  17.710  15.651  24.395  0.1457 -0.0857  0.2097
14739DOD     C288037  17.352  15.561  24.600 -0.0402  0.0071 -0.0238
14739DOD     C388038  16.932  15.604  24.490  0.2891 -0.2090 -0.1910
14740DOD     C188039  14.804  12.908  15.182 -0.0503 -0.2325 -0.0960
14740DOD     C288040  14.717  13.029  15.668  0.0019 -0.0703 -0.0788
14740DOD     C388041  14.629  13.328  16.026  0.3124  0.0008 -0.2385
14741DOD     C188042  22.618  20.126  16.041  0.2600 -0.2384 -0.1338
14741DOD     C288043  22.227  20.133  16.279  0.0402  0.0128 -0.0365
14741DOD     C388044  21.833  19.953  16.514 -0.0634 -0.0732  0.3488
14742DOD     C188045   3.028  14.328  10.866 -0.0901  0.1587  0.0038
14742DOD     C288046   3.487  14.124  10.880  0.1270 -0.1774 -0.1075
14742DOD     C388047   3.792  13.850  11.027 -0.2177 -0.3463  0.0189
14743DOD     C188048  27.815  28.270  29.892  0.0526 -0.2422  0.0287
14743DOD     C288049  28.002  28.079  29.477  0.0832 -0.0228  0.3003
14743DOD     C388050  27.929  28.043  28.992  0.1955  0.3071  0.0256
14744DOD     C188051  26.274   0.632  26.102  0.0541  0.1125  0.1609
14744DOD     C288052  26.397   0.355  25.768  0.2747  0.0449  0.3278
14744DOD     C388053  26.480   0.340  25.348 -0.2731  0.0833  0.0432
14745DOD     C188054  28.793  19.477   3.058 -0.0471  0.1463 -0.2801
14745DOD     C288055  29.069  19.291   2.711  0.0821 -0.0312 -0.1905
14745DOD     C388056  29.450  19.130   2.534 -0.2439  0.0765 -0.0662
14746DOD     C188057  20.684  17.669  20.338 -0.1979 -0.0276 -0.0440
14746DOD     C288058  20.596  17.275  20.154  0.3091 -0.3847 -0.0146
14746DOD     C388059  20.761  16.830  20.250 -0.1376 -0.0469  0.1815
14747DOD     C188060  17.578  14.994   9.136  0.2221 -0.2716 -0.0518
14747DOD     C288061  17.393  14.622   9.312 -0.1621  0.0017  0.0639
14747DOD     C388062  17.203  14.340   9.584  0.1310  0.0738  0.1717
14748DOD     C188063   5.585  10.362   4.840 -0.2112 -0.0282  0.1047
14748DOD     C288064   5.581  10.358   4.346  0.0761 -0.2751 -0.1754
14748DOD     C388065   5.943  10.579   4.111  0.1970  0.0202  0.1984
14749DOD     C188066   4.816  20.910   0.644  0.2505 -0.0093  0.2516
14749DOD     C288067   4.566  20.587   0.871 -0.0121  0.0952 -0.1431
14749DOD     C388068   4.496  20.241   1.169 -0.0307  0.4419  0.4106
14750DOD     C188069   0.685  13.625   3.424  0.0741 -0.1743  0.1906
14750DOD     C288070   0.992  13.337   3.655  0.1989 -0.0398 -0.1274
14750DOD     C388071   1.354  13.079   3.736  0.2082  0.1653 -0.0120
14751DOD     C188072   2.493  13.024  12.915 -0.1395 -0.1598  0.1760
14751DOD     C288073   2.386  13.071  13.333 -0.1174  0.2695 -0.1159
14751DOD     C388074   2.732  13.117  13.621 -0.0276 -0.1102 -0.0247
14752DOD     C188075   1.637  26.348  17.599  0.2124 -0.3183  0.0586
14752DOD     C288076   1.316  26.088  17.760 -0.2189 -0.0631  0.0142
14752DOD     C388077   1.171  25.650  17.557  0.1076 -0.1127  0.0578
14753DOD     C188078  16.785  11.163  30.057 -0.0955 -0.1900 -0.1016
14753DOD     C288079  17.131  11.191  29.744  0.1331  0.0492 -0.2737
14753DOD     C388080  17.396  11.278  29.351 -0.0230 -0.0537  0.2213
14754DOD     C188081  28.953  25.279  27.771 -0.1340  0.1592 -0.0566
14754DOD     C288082  28.934  25.567  28.098  0.0714  0.2055  0.3390
14754DOD     C388083  28.932  25.740  28.499 -0.2332 -0.0285  0.0658
14755DOD     C188084  13.980  18.217  12.331 -0.1758  0.0318  0.0466
14755DOD     C288085  13.725  17.931  12.126 -0.0283  0.0606 -0.0549
14755DOD     C388086  13.507  17.547  12.007  0.0231 -0.0434  0.0399
14756DOD     C188087  28.905  29.782   7.936  0.2524  0.2538 -0.1953
14756DOD     C288088  28.934  29.449   7.606 -0.1676 -0.3226 -0.0634
14756DOD     C388089  28.596  29.436   7.255  0.0669 -0.1385 -0.1373
14757DOD     C188090  13.959  20.052  18.615  0.2354 -0.1290 -0.0203
14757DOD     C288091  14.152  19.830  18.305 -0.0836  0.1015 -0.0366
14757DOD     C388092  14.187  19.458  18.086 -0.1125  0.0277 -0.1062
14758DOD     C188093  20.318  13.135   2.963  0.0737  0.2560 -0.0673
14758DOD     C288094  20.764  13.169   2.815  0.1366  0.0755  0.0328
14758DOD     C388095  21.065  12.947   3.056  0.0265 -0.2132  0.2750
14759DOD     C188096  21.713  11.120  17.639 -0.3207 -0.3525 -0.1135
14759DOD     C288097  21.541  10.791  17.886  0.1942 -0.3077 -0.1721
14759DOD     C388098  21.551  10.515  18.263 -0.0400  0.0813  0.1123
14760DOD     C188099   9.037  12.645   3.666 -0.2849 -0.1277  0.1019
14760DOD     C288100   8.841  12.882   4.005 -0.3262  0.1486 -0.0484
14760DOD     C388101   8.719  13.027   4.444 -0.0910 -0.2789  0.0831
14761DOD     C188102   3.495  16.449  16.445 -0.0005  0.0978 -0.0404
14761DOD     C288103   3.383  16.081  16.149 -0.3955  0.0867  0.1252
14761DOD     C388104   3.629  15.667  16.118  0.0156  0.1405 -0.0982
14762DOD     C188105  16.578  22.348  22.380  0.0468 -0.1061  0.0352
14762DOD     C288106  16.903  22.155  22.577  0.0568  0.0899 -0.1857
14762DOD     C388107  17.155  21.812  22.541 -0.5062 -0.0369  0.0142
14763DOD     C188108  12.718   3.587  26.631  0.0110  0.2386  0.1131
14763DOD     C288109  12.535   3.714  27.036 -0.2154  0.0270  0.1207
14763DOD     C388110  12.467   4.023  27.348  0.1624  0.0374  0.0195
14764DOD     C188111   6.887  12.835  12.698 -0.2549 -0.0634 -0.0142
14764DOD     C288112   6.647  12.684  12.345  0.0576  0.2419 -0.1391
14764DOD     C388113   6.579  12.504  11.898 -0.2681 -0.0160  0.1550
14765DOD     C188114  12.729   1.058  17.315  0.3222 -0.1722 -0.0613
14765DOD     C288115  13.242   0.928  17.248  0.0728 -0.2266 -0.2584
14765DOD     C388116  13.679   0.798  17.207 -0.1562 -0.2046  0.2087
14766DOD     C188117   3.861   5.451   2.023 -0.1256 -0.3430 -0.0234
14766DOD     C288118   4.153   5.434   2.382  0.2500 -0.2812  0.0105
14766DOD     C388119   4.628   5.365   2.482  0.0069 -0.0282  0.1956
14767DOD     C188120   6.198  11.898  16.837  0.1775  0.3166 -0.0638
14767DOD     C288121   6.383  11.799  16.438 -0.0262  0.1909  0.1570
14767DOD     C388122   6.567  11.871  15.985 -0.0939  0.1408 -0.2628
14768DOD     C188123   5.786  24.506  10.292 -0.0549  0.3278  0.2070
14768DOD     C288124   5.465  24.724  10.529 -0.1306 -0.0841  0.0808
14768DOD     C388125   5.094  24.963  10.688 -0.1950  0.3042  0.2071
14769DOD     C188126   5.173  28.945  15.658 -0.0734  0.0041  0.1128
14769DOD     C288127   5.576  29.048  15.898  0.0890  0.0457 -0.0092
14769DOD     C388128   5.959  29.374  15.790 -0.3547  0.4571  0.1211
14770DOD     C188129  13.650  21.053   3.099  0.1651  0.2627  0.2635
14770DOD     C288130  13.844  21.423   2.967  0.0381 -0.0835 -0.2047
14770DOD     C388131  14.004  21.828   2.732  0.1840  0.1184  0.1952
14771DOD     C188132  17.027  10.182  12.746 -0.0477  0.0988 -0.0293
14771DOD     C288133  17.389  10.390  12.962 -0.1873  0.0105 -0.1018
14771DOD     C388134  17.864  10.277  12.981 -0.2122 -0.0063 -0.0717
14772DOD     C188135  18.556  21.970  19.093 -0.1056 -0.2745 -0.0538
14772DOD     C288136  18.144  22.176  19.154  0.1000 -0.6130 -0.1766
14772DOD     C388137  18.009  22.612  19.320  0.0080  0.3698 -0.1739
14773DOD     C188138  17.389  27.865   6.388  0.3225 -0.0283  0.2776
14773DOD     C288139  17.675  28.257   6.414 -0.0780 -0.0260  0.0256
14773DOD     C388140  17.709  28.681   6.563 -0.4013  0.1767 -0.0367
14774DOD     C188141  13.760  18.735   0.792  0.0050  0.0876  0.2764
14774DOD     C288142  13.414  18.429   0.622 -0.0579 -0.1403 -0.3121
14774DOD     C388143  13.046  18.428   0.409  0.0576  0.1316  0.2456
14775DOD     C188144  17.835  29.122   3.220 -0.1843  0.1561  0.3659
14775DOD     C288145  17.388  29.137   3.319 -0.4153  0.1116 -0.3211
14775DOD     C388146  17.087  29.484   3.514 -0.0524 -0.2533  0.0534
14776DOD     C188147   8.606   5.185  12.302 -0.1823  0.1876  0.3399
14776DOD     C288148   8.884   5.223  12.634  0.1331  0.2132 -0.3881
14776DOD     C388149   8.806   5.279  13.095  0.1293 -0.0988 -0.3089
14777DOD     C188150  18.040   4.598  23.967 -0.0326 -0.2069  0.1584
14777DOD     C288151  18.333   4.695  23.593 -0.2777  0.1473  0.0577
14777DOD     C388152  18.535   5.146  23.477  0.0894  0.1143  0.0544
14778DOD     C188153  25.094   9.323  10.479 -0.0774 -0.0687 -0.1515
14778DOD     C288154  25.322   9.728  10.394  0.1845 -0.3505  0.1260
14778DOD     C388155  25.411   9.953   9.965  0.0211  0.0542  0.4022
14779DOD     C188156   5.267   7.586  27.220  0.1053 -0.0633 -0.0171
14779DOD     C288157   5.588   7.248  27.242  0.3876  0.2121  0.0350
14779DOD     C388158   5.778   6.853  27.161 -0.0501  0.2126 -0.1274
14780DOD     C188159  12.592  25.095  26.595  0.0231  0.1281 -0.0345
14780DOD     C288160  12.865  25.290  26.266  0.1918  0.0004 -0.1303
14780DOD     C388161  12.953  25.075  25.895  0.0806 -0.1205 -0.0608
14781DOD     C188162  24.404   4.339  29.665  0.0146  0.1606 -0.0391
14781DOD     C288163  24.849   4.237  29.541 -0.1292 -0.0737 -0.2265
14781DOD     C388164  25.085   4.127  29.112 -0.2369  0.1235 -0.0657
14782DOD     C188165  16.866  17.522   0.843 -0.1186  0.1729 -0.0482
14782DOD     C288166  17.143  17.703   0.476  0.2528  0.0253 -0.1801
14782DOD     C388167  17.496  17.868   0.230  0.0133  0.0408  0.1103
14783DOD     C188168   3.086   9.237   5.411  0.3883  0.0589 -0.2087
14783DOD     C288169   3.013   8.983   5.061 -0.1479  0.0975  0.2433
14783DOD     C388170   2.873   9.152   4.613 -0.1619 -0.2255  0.0927
14784DOD     C188171  23.314   3.945  20.817  0.3174 -0.2711  0.0165
14784DOD     C288172  23.712   3.925  20.681 -0.1796 -0.0871  0.3149
14784DOD     C388173  24.127   3.697  20.727 -0.0949  0.0286 -0.3463
14785DOD     C188174  20.788  30.109  24.806 -0.0775 -0.0203 -0.0290
14785DOD     C288175  20.595  29.993  24.356  0.3093  0.0259  0.1618
14785DOD     C388176  20.596  30.246  23.998  0.2580  0.0705  0.1463
14786DOD     C188177   5.311  19.811  25.520  0.1158  0.3549 -0.0528
14786DOD     C288178   4.978  19.788  25.215 -0.1556  0.1851  0.1498
14786DOD     C388179   4.829  19.532  24.850  0.0297 -0.2928  0.0715
14787DOD     C188180  22.714  24.851  28.540 -0.1759 -0.1144 -0.1777
14787DOD     C288181  22.344  25.206  28.616  0.1899  0.1187 -0.2778
14787DOD     C388182  22.020  25.531  28.408 -0.2596  0.0114  0.0462
14788DOD     C188183  22.530  23.149  16.304  0.2036 -0.2171  0.1784
14788DOD     C288184  22.944  22.798  16.296  0.0431  0.2363 -0.1207
14788DOD     C388185  23.335  22.453  16.400 -0.0351  0.3463 -0.1037
14789DOD     C188186  28.960  17.177   4.435  0.1637  0.2874  0.0771
14789DOD     C288187  29.135  16.823   4.152  0.2024 -0.0148 -0.1309
14789DOD     C388188  29.474  16.510   4.141 -0.1069  0.0250 -0.2030
14790DOD     C188189   2.650  26.357   6.907 -0.1807  0.2631 -0.1060
14790DOD     C288190   2.275  26.533   6.742  0.1910 -0.1804 -0.1794
14790DOD     C388191   2.209  26.593   6.273  0.0549  0.0121 -0.0853
14791DOD     C188192   5.634   7.232  16.332 -0.4314 -0.1339 -0.2001
14791DOD     C288193   5.881   6.831  16.261  0.0043 -0.0446  0.3652
14791DOD     C388194   6.228   6.687  15.974  0.1089  0.4101  0.0721
14792DOD     C188195   2.518  20.364   8.554 -0.0624 -0.1251  0.0489
14792DOD     C288196   2.766  20.727   8.688 -0.0604  0.1113 -0.1250
14792DOD     C388197   2.984  21.127   8.607  0.2168 -0.0049 -0.0798
14793DOD     C188198  21.767  14.220  21.995 -0.3128 -0.0745  0.1857
14793DOD     C288199  21.931  13.863  21.711  0.2715  0.1309  0.1487
14793DOD     C388200  22.094  13.643  21.358  0.0977 -0.0014  0.1717
14794DOD     C188201  27.671  28.886   8.624 -0.0984 -0.2824  0.2796
14794DOD     C288202  28.036  29.171   8.471  0.1209  0.2719  0.1126
14794DOD     C388203  28.077  29.610   8.463 -0.2022  0.0545 -0.0532
14795DOD     C188204  19.171  15.238  14.244 -0.4892 -0.5509 -0.2495
14795DOD     C288205  18.993  14.824  14.148  0.0053  0.0980 -0.3356
14795DOD     C388206  18.818  14.444  13.934  0.3934 -0.0123 -0.0186
14796DOD     C188207  28.507  10.039  14.864 -0.2210 -0.0040  0.1614
14796DOD     C288208  28.410   9.685  14.549 -0.0219 -0.0679 -0.3558
14796DOD     C388209  28.342   9.599  14.090 -0.0149  0.2214  0.3793
14797DOD     C188210   1.957  24.126  19.733 -0.1218  0.0356  0.0030
14797DOD     C288211   2.239  24.449  19.597 -0.1141  0.0932  0.3420
14797DOD     C388212   2.490  24.628  19.281  0.0757 -0.3967 -0.1072
14798DOD     C188213  12.904   2.032   1.269  0.3350 -0.0377  0.0208
14798DOD     C288214  13.190   2.094   1.653  0.0038  0.0040  0.1410
14798DOD     C388215  13.192   2.295   2.026 -0.0191 -0.1760 -0.1348
14799DOD     C188216   1.422   2.416  20.063 -0.0772 -0.0099 -0.0705
14799DOD     C288217   1.692   2.796  20.039 -0.0757  0.2913  0.3699
14799DOD     C388218   2.122   2.930  19.988 -0.1928 -0.1700  0.0243
14800DOD     C188219   5.296  20.241   0.486 -0.0694 -0.0720 -0.1309
14800DOD     C288220   5.074  20.614   0.265 -0.0216 -0.0074 -0.1306
14800DOD     C388221   5.210  21.080   0.270 -0.0476  0.0509 -0.1541
14801DOD     C188222  20.993   8.060  20.439  0.4259  0.0006 -0.2461
14801DOD     C288223  20.801   7.709  20.218 -0.0119 -0.1077  0.4661
14801DOD     C388224  20.479   7.406  20.061  0.0605 -0.1332 -0.0571
14802DOD     C188225  19.970  21.749  10.471 -0.2094 -0.3485 -0.0331
14802DOD     C288226  19.613  22.037  10.348  0.2785 -0.0787 -0.2179
14802DOD     C388227  19.408  22.415  10.168 -0.4339 -0.2897 -0.2439
14803DOD     C188228   8.505  17.893  14.980  0.5082 -0.4841  0.4109
14803DOD     C288229   8.639  17.512  14.784  0.1026 -0.3649 -0.1446
14803DOD     C388230   8.730  17.334  14.352 -0.4459 -0.2155  0.1309
14804DOD     C188231  19.189  15.212  15.279  0.0974  0.0691 -0.2022
14804DOD     C288232  19.087  14.956  14.871 -0.3012 -0.2052  0.0151
14804DOD     C388233  19.082  14.650  14.610  0.4232  0.2103  0.2246
14805DOD     C188234   8.979   6.514   2.734 -0.6237 -0.1344  0.2642
14805DOD     C288235   8.725   6.349   3.102 -0.0109  0.1547 -0.0544
14805DOD     C388236   8.635   6.126   3.487 -0.0356 -0.2258 -0.1475
14806DOD     C188237   2.691  27.251   1.802  0.3149 -0.0328 -0.0714
14806DOD     C288238   2.776  27.222   2.232  0.2352  0.1445  0.0294
14806DOD     C388239   2.841  27.095   2.642  0.0526  0.1827 -0.0609
14807DOD     C188240  22.386   9.104  16.396 -0.1430 -0.0263  0.2083
14807DOD     C288241  22.804   9.154  16.503  0.1283 -0.1511  0.2595
14807DOD     C388242  23.256   9.155  16.517 -0.0971  0.2283  0.2220
14808DOD     C188243  15.338  19.579  -0.028 -0.4383 -0.0735 -0.3331
14808DOD     C288244  15.511  19.181   0.070 -0.0189 -0.0974 -0.0323
14808DOD     C388245  15.839  19.081   0.447 -0.0922 -0.3395 -0.2081
14809DOD     C188246   1.877  19.042  28.795  0.1216 -0.1586 -0.0279
14809DOD     C288247   1.456  19.064  28.735  0.0633  0.2064 -0.1662
14809DOD     C388248   1.018  19.070  28.740  0.2664  0.3840 -0.1272
14810DOD     C188249  14.482  14.022  30.153  0.0160  0.3009 -0.2922
14810DOD     C288250  14.422  13.664   0.166  0.0197  0.2401 -0.1213
14810DOD     C388251  14.424  13.601   0.635 -0.2361  0.0331 -0.1762
14811DOD     C188252  23.355   7.176  20.275  0.0536 -0.1754  0.0405
14811DOD     C288253  23.339   7.654  20.243 -0.1202  0.3301  0.1342
14811DOD     C388254  23.565   8.063  20.405 -0.3767  0.0434  0.1495
14812DOD     C188255  17.827  12.887  24.487 -0.1734  0.0521  0.1762
14812DOD     C288256  17.852  12.433  24.627  0.1420 -0.4019  0.0140
14812DOD     C388257  18.055  12.006  24.751  0.0891  0.0935  0.0558
14813DOD     C188258  25.371  26.691   2.958  0.0823  0.3050 -0.2374
14813DOD     C288259  25.578  26.746   2.529 -0.0900  0.0384 -0.0423
14813DOD     C388260  25.718  26.534   2.107  0.0982 -0.0553 -0.1062
14814DOD     C188261  14.852   0.625   9.812  0.3524 -0.1667  0.1063
14814DOD     C288262  14.741   0.419   9.417 -0.1046 -0.3270 -0.0239
14814DOD     C388263  14.675   0.039   9.208 -0.4525 -0.1029 -0.4487
14815DOD     C188264  24.481   8.706  16.841  0.1402  0.1126  0.2332
14815DOD     C288265  25.006   8.744  16.858  0.1681 -0.1360  0.0578
14815DOD     C388266  25.450   8.780  16.882 -0.4941 -0.1564 -0.0607
14816DOD     C188267   0.996  21.874  11.068 -0.0653  0.0922 -0.1319
14816DOD     C288268   1.058  21.414  11.239  0.1247  0.0620 -0.0505
14816DOD     C388269   1.272  20.989  11.365 -0.0718 -0.0125 -0.0764
14817DOD     C188270   0.938   2.815  16.245  0.1458  0.0297 -0.0518
14817DOD     C288271   0.919   3.288  16.333 -0.0309  0.1425  0.2960
14817DOD     C388272   1.013   3.730  16.480  0.3345 -0.0891 -0.0730
14818DOD     C188273  15.405  17.337  30.069 -0.0202 -0.2705 -0.2425
14818DOD     C288274  15.762  17.045  29.991 -0.0091  0.0730  0.0557
14818DOD     C388275  16.147  17.148  30.141 -0.2148  0.1141 -0.3077
14819DOD     C188276  23.056  11.467  25.635  0.2015  0.0888 -0.0534
14819DOD     C288277  22.666  11.232  25.551 -0.1102  0.1878  0.0722
14819DOD     C388278  22.221  11.358  25.596  0.0593  0.0049 -0.0544
14820DOD     C188279  17.390  23.640   4.025 -0.2979 -0.2406 -0.0055
14820DOD     C288280  17.503  24.086   4.098 -0.0580  0.1498 -0.0271
14820DOD     C388281  17.915  24.183   4.240  0.0475 -0.0471  0.0439
14821DOD     C188282  18.414  19.898  24.494  0.1281 -0.0299 -0.5066
14821DOD     C288283  18.325  20.189  24.824  0.1705  0.3358  0.0396
14821DOD     C388284  18.490  20.475  25.192 -0.0137  0.1551 -0.0097
14822DOD     C188285  21.757  26.903  16.855  0.0801  0.1717  0.0709
14822DOD     C288286  21.984  26.590  17.086  0.1081 -0.1677 -0.1263
14822DOD     C388287  21.813  26.589  17.547  0.1075 -0.1041  0.3057
14823DOD     C188288   7.691   4.797  12.896 -0.1036  0.0175  0.1037
14823DOD     C288289   8.061   4.767  13.147 -0.1840 -0.1512 -0.1955
14823DOD     C388290   8.336   5.079  13.397 -0.0544 -0.2493 -0.0443
14824DOD     C188291   8.622   2.927  20.464  0.2677  0.2248 -0.1808
14824DOD     C288292   8.591   3.086  20.907  0.0389 -0.0470 -0.1731
14824DOD     C388293   8.705   2.879  21.313 -0.0141  0.0948  0.0169
14825DOD     C188294  15.428  14.277  23.480  0.0532 -0.2181  0.0601
14825DOD     C288295  15.886  14.365  23.437 -0.0351 -0.0992  0.1556
14825DOD     C388296  16.291  14.194  23.544  0.0416 -0.1317 -0.2425
14826DOD     C188297   5.457  16.553   5.881  0.2328  0.2063  0.2766
14826DOD     C288298   5.562  16.967   6.034  0.2693  0.1925  0.3470
14826DOD     C388299   5.600  17.244   6.387  0.0065  0.0971 -0.1263
14827DOD     C188300  16.630  21.915  14.061  0.0537 -0.3244 -0.0767
14827DOD     C288301  16.251  22.144  14.172  0.1596  0.0832 -0.1508
14827DOD     C388302  16.223  22.380  14.630 -0.1139  0.1041 -0.3118
14828DOD     C188303  20.809   1.546  16.624 -0.0511  0.0891 -0.0237
14828DOD     C288304  20.657   1.097  16.821  0.0842 -0.0848 -0.2339
14828DOD     C388305  20.272   0.967  16.978  0.2084 -0.1368  0.4293
14829DOD     C188306   1.111  28.906   0.547 -0.0482 -0.2352  0.1920
14829DOD     C288307   0.994  29.020   1.006 -0.0735  0.2855  0.0658
14829DOD     C388308   0.894  29.012   1.507  0.1303  0.3036 -0.1338
14830DOD     C188309   5.708  12.229  23.375  0.4060  0.0490 -0.0250
14830DOD     C288310   5.394  12.081  23.052  0.0640  0.0804  0.2021
14830DOD     C388311   4.964  11.743  23.036  0.0742  0.1277  0.2238
14831DOD     C188312   3.758   7.803  22.596  0.0561  0.1995  0.3131
14831DOD     C288313   3.368   8.050  22.761 -0.2308 -0.0995 -0.1167
14831DOD     C388314   3.002   8.272  22.571  0.0853 -0.2346 -0.0710
14832DOD     C188315  10.037  29.173  28.985 -0.0470  0.1048  0.1351
14832DOD     C288316  10.074  29.443  29.393 -0.0150  0.0015  0.3048
14832DOD     C388317  10.152  29.782  29.662 -0.2344  0.0308  0.0527
14833DOD     C188318  10.989   9.999   1.916 -0.1437  0.0655 -0.0987
14833DOD     C288319  10.576   9.847   2.036 -0.1990 -0.1664  0.3049
14833DOD     C388320  10.134   9.676   1.970  0.0881  0.1831 -0.3294
14834DOD     C188321  20.193   5.233  15.212 -0.1776 -0.2410 -0.0899
14834DOD     C288322  19.982   5.408  14.802 -0.1612  0.0109 -0.1123
14834DOD     C388323  20.101   5.843  14.713 -0.0450  0.0479 -0.1322
14835DOD     C188324  15.683   3.613   0.904  0.3981 -0.3272  0.0367
14835DOD     C288325  15.702   3.163   0.618  0.0640  0.1602 -0.0376
14835DOD     C388326  15.673   2.769   0.399  0.1097 -0.1840  0.0228
14836DOD     C188327   8.340  16.993  27.106 -0.0494  0.1039  0.1435
14836DOD     C288328   8.759  16.709  27.229 -0.1120 -0.1078 -0.2155
14836DOD     C388329   9.009  16.437  27.423  0.2269 -0.4169  0.1093
14837DOD     C188330  26.012   9.424  23.007 -0.1286 -0.0101  0.0352
14837DOD     C288331  25.596   9.605  23.152 -0.0374  0.2115  0.3693
14837DOD     C388332  25.166   9.779  23.029 -0.1260  0.2125  0.1498
14838DOD     C188333  12.177   2.370  19.360 -0.0011 -0.1301  0.2043
14838DOD     C288334  12.298   2.595  19.768  0.1210  0.0310  0.6768
14838DOD     C388335  12.110   2.983  19.882 -0.3458  0.1916 -0.0390
14839DOD     C188336   4.994  27.106  25.204 -0.1298  0.0633 -0.1971
14839DOD     C288337   5.343  26.920  24.959 -0.2827 -0.0198  0.0436
14839DOD     C388338   5.679  26.594  24.891  0.1081 -0.2782  0.1020
14840DOD     C188339  12.476  10.721  19.209 -0.2914  0.0393 -0.1187
14840DOD     C288340  12.564  10.254  19.127  0.1319  0.0940  0.1487
14840DOD     C388341  12.892  10.093  18.835 -0.1256 -0.0875 -0.4195
14841DOD     C188342  13.983  29.467  23.994 -0.2111 -0.2271 -0.3156
14841DOD     C288343  14.427  29.541  23.840 -0.2724  0.2485 -0.1712
14841DOD     C388344  14.853  29.324  23.750 -0.2005 -0.0687  0.0506
14842DOD     C188345  21.352   8.352   3.670 -0.1912 -0.1073 -0.0138
14842DOD     C288346  21.144   8.428   3.304 -0.1469  0.0641 -0.0535
14842DOD     C388347  20.877   8.100   2.947 -0.0218  0.2193 -0.1845
14843DOD     C188348   1.534   4.341  23.999  0.0393  0.1588  0.2000
14843DOD     C288349   1.306   4.773  24.149 -0.0296  0.0115 -0.0119
14843DOD     C388350   1.169   4.918  24.601 -0.3497 -0.1703 -0.0437
14844DOD     C188351   5.673  16.640   2.500 -0.0860  0.1299  0.0519
14844DOD     C288352   5.631  16.277   2.206  0.1943 -0.1926  0.1506
14844DOD     C388353   5.987  16.083   1.976  0.3062  0.1206  0.5223
14845DOD     C188354   7.320   0.299   9.663 -0.1512 -0.2104 -0.2797
14845DOD     C288355   7.580   0.130  10.006 -0.0390 -0.2343  0.1015
14845DOD     C388356   7.734  30.057  10.238 -0.3967  0.0559 -0.0370
14846DOD     C188357   0.700  30.123   6.612 -0.1181  0.0204  0.3666
14846DOD     C288358   0.693  30.006   6.188 -0.0251  0.0803 -0.1021
14846DOD     C388359   0.429  29.874   5.823  0.0216 -0.0821 -0.3304
14847DOD     C188360   1.238  24.118  24.386  0.0190  0.1302 -0.1223
14847DOD     C288361   1.211  23.766  24.704  0.0051  0.1821  0.0724
14847DOD     C388362   1.227  23.344  25.042  0.3252 -0.0332 -0.1020
14848DOD     C188363   7.727  14.278   4.511  0.2581 -0.3547  0.0851
14848DOD     C288364   7.332  14.164   4.616  0.2645  0.0103  0.2493
14848DOD     C388365   7.002  14.298   4.964 -0.2729 -0.4354  0.1028
14849DOD     C188366   9.390   1.179   7.933 -0.0190 -0.1135 -0.2507
14849DOD     C288367   9.805   1.011   7.859  0.0709  0.1055  0.2790
14849DOD     C388368  10.113   0.892   8.156 -0.4966 -0.3197 -0.0346
14850DOD     C188369  30.240   2.755  16.413  0.1579  0.1913 -0.1335
14850DOD     C288370  30.055   3.121  16.620 -0.1297  0.2365  0.0053
14850DOD     C388371  29.628   3.280  16.818  0.2941  0.0777  0.1085
14851DOD     C188372   0.507   5.606  27.569 -0.0939  0.0365 -0.1702
14851DOD     C288373   0.750   5.490  28.004 -0.1137  0.0761  0.3220
14851DOD     C388374   1.000   5.594  28.353  0.1589 -0.1935 -0.0469
14852DOD     C188375  14.364  16.742  20.787  0.1100  0.0573 -0.0722
14852DOD     C288376  14.342  16.741  20.313  0.0782  0.2471 -0.1527
14852DOD     C388377  14.366  16.732  19.844  0.0349  0.0732  0.3241
14853DOD     C188378  30.250  15.323  16.046 -0.1633  0.0648 -0.1611
14853DOD     C288379   0.154  15.620  15.759  0.0207  0.2219 -0.0513
14853DOD     C388380   0.136  16.082  15.747 -0.0676  0.0982  0.1327
14854DOD     C188381  17.276   2.287  18.867  0.3970 -0.2859 -0.0002
14854DOD     C288382  17.492   2.692  18.722 -0.0845  0.0073 -0.0251
14854DOD     C388383  17.509   3.180  18.694  0.2125 -0.2321 -0.1429
14855DOD     C188384   4.279  27.995   7.075 -0.2788  0.3240 -0.0641
14855DOD     C288385   4.732  27.876   7.252  0.1875 -0.0462 -0.1201
14855DOD     C388386   4.994  27.639   7.552  0.1744 -0.0512 -0.2501
14856DOD     C188387  11.497  18.980  20.500 -0.2725 -0.2468  0.0582
14856DOD     C288388  11.090  19.265  20.522 -0.1024  0.0653  0.2198
14856DOD     C388389  10.721  19.406  20.284 -0.0827  0.2469  0.0316
14857DOD     C188390   6.598   3.179  30.254  0.3871 -0.1005  0.0612
14857DOD     C288391   6.815   3.505   0.217 -0.0996  0.0363 -0.0335
14857DOD     C388392   6.915   3.747   0.614 -0.1608 -0.1504  0.2195
14858DOD     C188393  15.479  26.696   9.056  0.0703 -0.1199  0.3291
14858DOD     C288394  15.258  26.545   9.464 -0.0753  0.1365 -0.1483
14858DOD     C388395  15.232  26.240   9.817 -0.0801  0.1598 -0.0062
14859DOD     C188396   2.640   8.258  22.912  0.1106  0.2276 -0.1650
14859DOD     C288397   2.876   7.891  22.911  0.0800  0.1116 -0.1903
14859DOD     C388398   2.697   7.412  22.848  0.0251  0.0929 -0.1689
14860DOD     C188399  22.379  22.415  27.020  0.0232 -0.0079  0.2835
14860DOD     C288400  22.688  22.384  26.695  0.0810 -0.0752  0.1160
14860DOD     C388401  22.995  22.415  26.340 -0.0239  0.1446 -0.0218
14861DOD     C188402  25.035   1.810  21.787  0.0212 -0.1914 -0.0373
14861DOD     C288403  24.610   1.672  21.713  0.1136  0.0847 -0.1207
14861DOD     C388404  24.236   1.534  22.050 -0.3489  0.3484  0.0285
14862DOD     C188405  18.057  18.076   2.995  0.0589 -0.2429 -0.0232
14862DOD     C288406  18.232  18.042   3.459  0.1511  0.3503 -0.0176
14862DOD     C388407  18.459  17.928   3.822 -0.3745 -0.1460  0.3772
14863DOD     C188408   0.967  21.688  29.572  0.1672  0.0466 -0.0394
14863DOD     C288409   0.854  21.912  29.156  0.0236 -0.0515  0.0991
14863DOD     C388410   0.896  22.033  28.679 -0.0397 -0.1551  0.0615
14864DOD     C188411  20.456  13.645   2.245  0.2115  0.0381  0.1190
14864DOD     C288412  20.399  13.516   2.688 -0.0329  0.0888  0.1873
14864DOD     C388413  20.465  13.759   3.091 -0.4304  0.0850 -0.0387
14865DOD     C188414  22.082  13.250   0.918 -0.0914  0.0461  0.1260
14865DOD     C288415  21.923  13.640   0.724 -0.0524 -0.0209 -0.1525
14865DOD     C388416  22.051  14.100   0.585 -0.0615 -0.0419  0.0142
14866DOD     C188417  17.643  11.133  14.243 -0.3115 -0.2495  0.1158
14866DOD     C288418  17.229  11.202  14.303 -0.0890  0.3013 -0.0764
14866DOD     C388419  16.830  11.284  14.050  0.0140  0.0083 -0.0877
14867DOD     C188420   7.099   4.832  14.155  0.2795 -0.0107  0.1008
14867DOD     C288421   6.683   4.700  13.981 -0.3404 -0.1813  0.2392
14867DOD     C388422   6.235   4.763  13.913  0.0998 -0.1368 -0.0667
14868DOD     C188423   2.926  22.607  25.012  0.0844  0.0505 -0.0709
14868DOD     C288424   2.644  22.611  24.555 -0.3076 -0.0947 -0.0788
14868DOD     C388425   2.271  22.567  24.287  0.1782  0.1617  0.1153
14869DOD     C188426  25.129  25.489   4.372  0.0918 -0.0325 -0.0723
14869DOD     C288427  25.335  25.511   4.788  0.1019 -0.1140 -0.0765
14869DOD     C388428  25.723  25.316   4.983 -0.0200  0.2199  0.2933
14870DOD     C188429  13.551   7.151   7.523 -0.2862  0.1264 -0.0748
14870DOD     C288430  13.272   7.382   7.886 -0.0597 -0.0269 -0.1086
14870DOD     C388431  13.062   7.201   8.227  0.1795  0.1270  0.5251
14871DOD     C188432  16.822  29.649  24.564  0.1219 -0.0040  0.0497
14871DOD     C288433  16.758  30.043  24.269 -0.2804  0.2125  0.2278
14871DOD     C388434  17.129  29.955  23.955  0.0203  0.2411  0.1623
14872DOD     C188435   0.833   7.477  25.370  0.0058  0.0827 -0.0185
14872DOD     C288436   0.902   7.021  25.424 -0.1538 -0.1104  0.1562
14872DOD     C388437   0.608   6.633  25.422 -0.1169  0.0800 -0.0022
14873DOD     C188438  27.016   8.346   4.096  0.1287  0.2492  0.0804
14873DOD     C288439  26.719   8.322   4.492 -0.1745  0.1749  0.0546
14873DOD     C388440  26.403   8.229   4.768  0.0910 -0.3198 -0.2527
14874DOD     C188441  27.383  16.038  25.514  0.1501  0.1273  0.3048
14874DOD     C288442  27.091  16.186  25.127  0.3864  0.1821 -0.2295
14874DOD     C388443  26.747  16.379  24.875  0.0914  0.0493  0.1126
14875DOD     C188444  22.153  29.720  27.380 -0.2362 -0.4593 -0.2326
14875DOD     C288445  22.339  30.137  27.264 -0.0083  0.0851  0.0513
14875DOD     C388446  22.344   0.307  27.282 -0.2068  0.1349  0.2683
14876DOD     C188447   7.200  13.659  27.368 -0.0947  0.1437  0.0078
14876DOD     C288448   7.286  13.491  26.949  0.3134  0.1589 -0.0104
14876DOD     C388449   7.186  13.584  26.545  0.1485  0.3229  0.3019
14877DOD     C188450  11.214  14.194  25.535  0.1193  0.2113  0.1486
14877DOD     C288451  11.644  14.008  25.483  0.0863  0.1508 -0.0028
14877DOD     C388452  12.133  13.919  25.533  0.0184  0.1421 -0.1913
14878DOD     C188453   3.384  20.751  11.435  0.1493  0.1223 -0.1344
14878DOD     C288454   3.382  20.968  10.986 -0.0222  0.3644 -0.2629
14878DOD     C388455   3.294  21.175  10.573 -0.0720 -0.3208 -0.4307
14879DOD     C188456  12.261  23.516  15.717  0.2943  0.1349  0.1100
14879DOD     C288457  12.560  23.553  16.133 -0.1521 -0.1202  0.0248
14879DOD     C388458  12.461  23.615  16.554 -0.1353 -0.5262  0.0173
14880DOD     C188459  15.569  25.535   6.219 -0.0705  0.1383  0.1356
14880DOD     C288460  15.798  25.778   5.918 -0.1808  0.1024 -0.0649
14880DOD     C388461  15.964  26.062   5.573 -0.1328 -0.0831 -0.1817
14881DOD     C188462  20.518  23.424   7.667  0.3549  0.3436 -0.0874
14881DOD     C288463  20.415  23.648   7.314  0.0193 -0.0884  0.0472
14881DOD     C388464  20.228  24.026   7.158  0.4806  0.0621 -0.2508
14882DOD     C188465   4.379  28.571  23.166  0.2782  0.1377 -0.0812
14882DOD     C288466   4.383  28.438  22.723 -0.3002 -0.1376  0.1917
14882DOD     C388467   4.462  28.044  22.459  0.0813 -0.0263 -0.0721
14883DOD     C188468  18.320   7.214  14.019 -0.0595  0.1812  0.0609
14883DOD     C288469  17.987   7.331  13.695  0.1168 -0.4045  0.1418
14883DOD     C388470  17.521   7.241  13.736  0.2982 -0.0674  0.0053
14884DOD     C188471   3.409  18.327  24.523 -0.1015  0.2228 -0.1240
14884DOD     C288472   3.305  18.319  24.094  0.0902  0.1197  0.3075
14884DOD     C388473   3.339  18.676  23.775 -0.0221  0.4211 -0.1423
14885DOD     C188474  23.147  25.202   4.007  0.1061  0.1966 -0.0904
14885DOD     C288475  23.254  24.770   4.197  0.3242  0.0512 -0.0842
14885DOD     C388476  23.583  24.487   4.396 -0.1913 -0.1286  0.0764
14886DOD     C188477   7.444   4.150  23.636  0.1788  0.0339 -0.1823
14886DOD     C288478   7.079   3.855  23.812 -0.2965  0.0525 -0.2124
14886DOD     C388479   6.685   3.793  23.637 -0.2176  0.1710  0.3827
14887DOD     C188480   2.675  26.025  27.691  0.4483 -0.1573 -0.0639
14887DOD     C288481   2.985  26.382  27.742  0.0273 -0.1021 -0.0029
14887DOD     C388482   3.275  26.390  28.075  0.0037  0.2043 -0.0800
14888DOD     C188483  17.031  16.847  20.980 -0.0478  0.0076 -0.1286
14888DOD     C288484  16.553  16.793  20.952  0.0022 -0.1644  0.0580
14888DOD     C388485  16.205  16.589  20.741  0.0047  0.1675  0.0602
14889DOD     C188486  24.194   5.532   2.947  0.0683  0.4896 -0.1463
14889DOD     C288487  24.005   5.092   2.798  0.1321  0.1149  0.0364
14889DOD     C388488  23.740   4.668   2.702  0.0977  0.1916 -0.0430
14890DOD     C188489   2.218  23.057  29.371 -0.1430  0.0501 -0.2177
14890DOD     C288490   1.916  23.101  29.046  0.2406 -0.1217 -0.1086
14890DOD     C388491   1.644  22.776  28.848 -0.1452  0.4379  0.2880
14891DOD     C188492  15.076  20.200  18.693  0.0613  0.3592 -0.2858
14891DOD     C288493  14.793  20.005  18.414  0.1922 -0.1431  0.1012
14891DOD     C388494  14.631  19.668  18.196 -0.2710 -0.1926 -0.0147
14892DOD     C188495  26.189   8.843  29.781  0.2505  0.1908  0.2328
14892DOD     C288496  26.023   9.183  29.447 -0.0534  0.4205 -0.0960
14892DOD     C388497  25.790   9.287  29.054 -0.2544 -0.1998  0.0717
14893DOD     C188498   3.431  26.388  25.917  0.0735 -0.0079 -0.0318
14893DOD     C288499   3.390  25.997  26.126  0.0331  0.0507  0.1661
14893DOD     C388500   3.379  25.639  25.851 -0.0921  0.1273 -0.0780
14894DOD     C188501  23.118  26.647  23.838  0.2343  0.0748 -0.3891
14894DOD     C288502  23.400  26.653  24.227 -0.0669  0.0960 -0.1868
14894DOD     C388503  23.740  26.501  24.512  0.2258 -0.0185  0.1768
14895DOD     C188504  15.110   0.086  10.145 -0.2215 -0.2170  0.0388
14895DOD     C288505  15.347  29.969  10.144 -0.0972  0.1474 -0.2114
14895DOD     C388506  15.663  29.719   9.877 -0.0083 -0.1011  0.1571
14896DOD     C188507  25.269  12.721  12.124 -0.3922  0.1063 -0.2005
14896DOD     C288508  25.048  13.080  11.998  0.2621  0.3619 -0.3840
14896DOD     C388509  24.681  13.265  11.803  0.1125  0.3501  0.1935
14897DOD     C188510  24.255   1.534   0.064 -0.0087  0.0729 -0.2965
14897DOD     C288511  24.592   1.218  30.262  0.3147  0.0893 -0.0189
14897DOD     C388512  24.894   0.946  30.117  0.0481  0.0486 -0.0552
14898DOD     C188513   2.334   4.861   8.795 -0.1438 -0.4199  0.0679
14898DOD     C288514   2.094   5.144   8.497 -0.2612 -0.0719 -0.0153
14898DOD     C388515   1.788   5.474   8.625 -0.0241 -0.0256 -0.0306
14899DOD     C188516  22.178  12.373  14.300 -0.2367 -0.0678 -0.2858
14899DOD     C288517  22.566  12.293  14.032 -0.2672 -0.3979 -0.0961
14899DOD     C388518  22.862  12.307  13.643 -0.0010 -0.1036  0.3544
14900DOD     C188519  20.329   6.578   0.410  0.1664  0.2201  0.0187
14900DOD     C288520  20.446   6.690   0.850 -0.0015  0.1474 -0.1265
14900DOD     C388521  20.295   6.776   1.292 -0.0420 -0.1153  0.0934
14901DOD     C188522  17.987  28.629   5.168  0.1525  0.3287 -0.0561
14901DOD     C288523  18.115  28.739   5.585  0.1337 -0.0773 -0.1412
14901DOD     C388524  18.368  28.452   5.927  0.1046  0.1236  0.3326
14902DOD     C188525   5.265  12.938   4.198 -0.1731 -0.0607  0.3077
14902DOD     C288526   5.482  13.287   4.413 -0.1741 -0.3968 -0.2400
14902DOD     C388527   5.561  13.707   4.592 -0.2042  0.0644  0.2631
14903DOD     C188528  20.910  18.696   5.705  0.1226  0.3263  0.0707
14903DOD     C288529  20.523  18.519   5.785  0.3936 -0.0807  0.0228
14903DOD     C388530  20.084  18.427   5.839 -0.0019  0.2124  0.0249
14904DOD     C188531  11.928  27.206   1.827 -0.0286  0.1196  0.1934
14904DOD     C288532  11.718  26.813   1.720 -0.0208 -0.1068 -0.0985
14904DOD     C388533  11.477  26.430   1.697 -0.1661  0.0304  0.0144
14905DOD     C188534  18.651  14.920  26.582  0.1016 -0.1689 -0.0606
14905DOD     C288535  18.503  15.311  26.379 -0.2276 -0.0859 -0.1689
14905DOD     C388536  18.306  15.691  26.441  0.0003  0.2114  0.0887
14906DOD     C188537  25.859  13.073   7.000  0.0738  0.0208 -0.0945
14906DOD     C288538  25.479  12.817   6.807  0.1819 -0.0354 -0.0837
14906DOD     C388539  25.078  12.568   6.843  0.0771  0.0091  0.0896
14907DOD     C188540   3.749  25.719  21.260  0.2151  0.0462  0.1843
14907DOD     C288541   3.492  25.388  21.037 -0.1341  0.1639  0.1321
14907DOD     C388542   3.002  25.302  20.929  0.1211  0.3683  0.2299
14908DOD     C188543  14.956   3.095  16.309 -0.1101  0.0472  0.0832
14908DOD     C288544  14.940   2.573  16.237 -0.0328 -0.3395 -0.0974
14908DOD     C388545  15.397   2.437  16.221  0.1135 -0.1239  0.1045
14909DOD     C188546  17.822  10.014  22.443 -0.0053  0.1030  0.2846
14909DOD     C288547  17.666   9.704  22.190 -0.4705 -0.2848 -0.0841
14909DOD     C388548  17.474   9.725  21.755  0.2239 -0.0006  0.0261
14910DOD     C188549  29.053   2.263   2.996  0.0275 -0.2949 -0.1531
14910DOD     C288550  29.330   1.995   3.159 -0.1052 -0.2631 -0.0221
14910DOD     C388551  29.732   1.919   3.115  0.0639 -0.1502  0.1094
14911DOD     C188552  21.518   2.341  20.155 -0.0679 -0.1229  0.1779
14911DOD     C288553  21.325   1.927  19.979  0.1358  0.1660  0.0036
14911DOD     C388554  21.175   1.522  19.719 -0.0166 -0.0237 -0.2712
14912DOD     C188555  10.960  16.359  26.485  0.3230 -0.0963 -0.1622
14912DOD     C288556  10.549  16.584  26.631  0.1469 -0.1360  0.1280
14912DOD     C388557  10.220  16.607  26.993  0.0525 -0.1299 -0.3944
14913DOD     C188558   5.897  25.722   3.845  0.5951 -0.1258 -0.3661
14913DOD     C288559   6.083  25.634   4.294  0.0164  0.0205  0.2069
14913DOD     C388560   6.393  25.250   4.405  0.2571 -0.2061 -0.1212
14914DOD     C188561  12.931  29.710  22.559 -0.0202  0.0424  0.1438
14914DOD     C288562  12.531  29.527  22.312 -0.1477 -0.2061  0.1291
14914DOD     C388563  12.455  29.543  21.881  0.2125 -0.0858  0.1458
14915DOD     C188564   0.772  22.136   6.487  0.2046  0.0452 -0.1713
14915DOD     C288565   0.935  22.237   6.007  0.1261  0.3265  0.1142
14915DOD     C388566   0.980  22.283   5.557 -0.0233 -0.0249  0.1617
14916DOD     C188567  11.271   2.006  13.882 -0.2991  0.0452  0.0358
14916DOD     C288568  11.083   1.715  14.182 -0.0714 -0.2033  0.0581
14916DOD     C388569  10.922   1.274  14.196  0.1411 -0.1608 -0.0061
14917DOD     C188570  23.991   6.943  11.173 -0.1115  0.1296  0.2558
14917DOD     C288571  24.172   6.552  11.150  0.1406  0.5086 -0.0746
14917DOD     C388572  24.146   6.141  11.369  0.3216  0.1244  0.1175
14918DOD     C188573  18.032  24.171  12.384 -0.2386  0.0152 -0.0170
14918DOD     C288574  17.871  24.250  12.826  0.0543  0.1003  0.1676
14918DOD     C388575  17.764  24.652  13.015  0.1157 -0.3231 -0.0920
14919DOD     C188576  30.348   4.012  20.224  0.3837 -0.2221 -0.0754
14919DOD     C288577  29.990   4.344  20.213 -0.2504  0.0527 -0.1031
14919DOD     C388578  29.638   4.381  20.476  0.0842 -0.1057  0.0116
14920DOD     C188579  27.404  18.427  22.040  0.2057  0.3096  0.3407
14920DOD     C288580  27.482  18.205  22.460 -0.2930  0.3289  0.0951
14920DOD     C388581  27.727  17.789  22.560 -0.0269  0.4617  0.1477
14921DOD     C188582  24.880   3.987  25.519 -0.2546  0.1704 -0.2359
14921DOD     C288583  25.122   3.975  25.968  0.0432 -0.0059 -0.0701
14921DOD     C388584  25.039   4.120  26.420 -0.4507  0.1282 -0.2153
14922DOD     C188585  26.455   9.289   5.516  0.3136 -0.0914 -0.0270
14922DOD     C288586  26.169   8.949   5.433 -0.1137 -0.1913 -0.2814
14922DOD     C388587  26.246   8.770   5.059 -0.1851 -0.3492 -0.0071
14923DOD     C188588  16.646  16.832   1.600  0.1645  0.1246  0.1658
14923DOD     C288589  16.719  17.263   1.546 -0.2514  0.1484  0.0959
14923DOD     C388590  16.955  17.546   1.317 -0.1264 -0.1027  0.1050
14924DOD     C188591  28.387   5.305   8.156 -0.1182  0.0393  0.3246
14924DOD     C288592  28.573   5.135   7.809 -0.0747  0.0575  0.0954
14924DOD     C388593  29.005   5.084   7.653 -0.2836  0.0483  0.0404
14925DOD     C188594   5.710  23.280  28.805  0.0310  0.1162  0.3195
14925DOD     C288595   5.722  22.823  28.683 -0.0764  0.0611 -0.1480
14925DOD     C388596   5.664  22.621  28.273 -0.0820  0.0610 -0.2327
14926DOD     C188597  22.660  11.131   6.569 -0.2021 -0.0288  0.0344
14926DOD     C288598  22.958  10.910   6.848 -0.0755  0.3602 -0.4261
14926DOD     C388599  23.398  10.950   7.104 -0.2641 -0.0291 -0.1583
14927DOD     C188600  29.209   2.250   0.570 -0.2190  0.2690 -0.0460
14927DOD     C288601  28.858   1.895   0.588  0.0834 -0.1578 -0.0346
14927DOD     C388602  28.523   1.674   0.714  0.0659  0.0048  0.1299
14928DOD     C188603  12.682  17.380   9.078 -0.1644 -0.0635 -0.0559
14928DOD     C288604  12.461  17.181   9.455  0.2870 -0.1521  0.1409
14928DOD     C388605  12.284  16.853   9.672  0.0291 -0.1294  0.2002
14929DOD     C188606   3.055   9.548  17.708 -0.2328  0.1489 -0.0404
14929DOD     C288607   3.485   9.411  17.654  0.2313  0.1259  0.1518
14929DOD     C388608   3.794   9.021  17.566  0.0558 -0.3412  0.3413
14930DOD     C188609  24.859   5.862  21.761  0.1568 -0.4182  0.2472
14930DOD     C288610  24.532   5.731  21.535 -0.2748 -0.0355  0.2262
14930DOD     C388611  24.580   5.293  21.335 -0.1395  0.2382  0.0357
14931DOD     C188612  15.690  17.397  22.084  0.0153 -0.2591  0.1847
14931DOD     C288613  15.752  17.805  21.987 -0.3295 -0.0891 -0.0353
14931DOD     C388614  15.734  18.132  21.623  0.1831 -0.0564  0.0684
14932DOD     C188615  18.744  14.726  22.958 -0.0348  0.1288 -0.4558
14932DOD     C288616  18.615  14.767  22.480 -0.1112  0.0247 -0.1488
14932DOD     C388617  18.786  14.594  22.114  0.0797  0.1528  0.1390
14933DOD     C188618  29.029  26.590  27.583  0.6354 -0.3333  0.0523
14933DOD     C288619  28.643  26.944  27.624  0.1474 -0.0551 -0.0964
14933DOD     C388620  28.201  27.127  27.607 -0.3233 -0.1097  0.0723
14934DOD     C188621  27.693  29.281   6.470  0.2191 -0.1242  0.0518
14934DOD     C288622  27.434  29.689   6.498 -0.0613  0.1177  0.1822
14934DOD     C388623  27.157  30.051   6.555  0.0743  0.1595  0.2053
14935DOD     C188624   0.663  19.756  19.105 -0.0587 -0.1609  0.2414
14935DOD     C288625   1.018  20.011  18.965 -0.3183  0.2954  0.0026
14935DOD     C388626   0.979  20.501  18.971 -0.0241 -0.0496  0.0302
14936DOD     C188627   8.523  20.035   6.598  0.1988  0.2541 -0.2610
14936DOD     C288628   8.460  19.643   6.289 -0.1103  0.2732 -0.2216
14936DOD     C388629   8.324  19.181   6.283  0.3798 -0.0113  0.0543
14937DOD     C188630   1.307   3.631  23.513  0.2590 -0.2519 -0.0326
14937DOD     C288631   1.605   3.848  23.221  0.2383  0.0189  0.1613
14937DOD     C388632   1.915   4.230  23.146 -0.0623  0.2821  0.0452
14938DOD     C188633  12.115  21.175  15.310 -0.2356  0.0504  0.1640
14938DOD     C288634  12.474  21.437  15.401 -0.1991 -0.3250 -0.1478
14938DOD     C388635  12.695  21.635  15.747  0.1511 -0.1264 -0.0351
14939DOD     C188636  11.112  23.504  14.690 -0.1701 -0.0435 -0.0273
14939DOD     C288637  10.674  23.657  14.655 -0.0504  0.0331 -0.1267
14939DOD     C388638  10.419  23.979  14.788 -0.0579 -0.1997  0.3488
14940DOD     C188639  23.981  12.383   3.976  0.4118  0.2035 -0.0348
14940DOD     C288640  23.977  12.121   3.586  0.2671 -0.0658  0.0944
14940DOD     C388641  23.922  12.337   3.157 -0.1153  0.0662  0.0483
14941DOD     C188642  12.838  23.536  15.671 -0.1764 -0.2605 -0.0134
14941DOD     C288643  13.258  23.305  15.640  0.2748 -0.0965  0.0554
14941DOD     C388644  13.552  22.904  15.564  0.1915 -0.2297 -0.0516
14942DOD     C188645   1.795   4.018  13.159  0.0633 -0.1022 -0.3045
14942DOD     C288646   1.545   4.296  12.870 -0.0080 -0.1349  0.1208
14942DOD     C388647   1.204   4.589  12.746 -0.0779 -0.1716  0.1136
14943DOD     C188648   1.745  18.886  20.166  0.2121 -0.1092  0.1231
14943DOD     C288649   1.402  19.241  20.250 -0.1651 -0.1566  0.0893
14943DOD     C388650   1.096  19.566  20.428  0.0284  0.0806 -0.0423
14944DOD     C188651  10.009  26.344   6.815  0.1021  0.2612  0.0018
14944DOD     C288652   9.892  25.963   6.561 -0.0248  0.0814  0.0702
14944DOD     C388653   9.616  25.812   6.191  0.4263 -0.0267 -0.2141
14945DOD     C188654  28.565   5.010   9.065  0.0765 -0.1989  0.0608
14945DOD     C288655  28.976   4.853   9.169 -0.3486  0.0334 -0.1299
14945DOD     C388656  29.292   4.530   9.173 -0.2570  0.2266  0.0311
14946DOD     C188657  19.470  14.777  22.082 -0.0996 -0.1593 -0.3604
14946DOD     C288658  19.229  14.512  21.777  0.3831  0.0728 -0.1709
14946DOD     C388659  19.019  14.462  21.338 -0.1158  0.1885  0.3698
14947DOD     C188660   9.107   3.510  19.204  0.0434  0.0343 -0.0938
14947DOD     C288661   9.228   3.626  18.774  0.1547  0.0130  0.0072
14947DOD     C388662   9.588   3.807  18.557 -0.3685  0.1787 -0.1296
14948DOD     C188663  18.913  15.088  27.718 -0.0545  0.2775  0.1819
14948DOD     C288664  18.606  15.278  28.138  0.0194  0.0260  0.0753
14948DOD     C388665  18.349  15.590  28.455 -0.0719 -0.1268  0.2677
14949DOD     C188666   4.295  10.298   3.409  0.0679  0.3064 -0.1249
14949DOD     C288667   4.537  10.472   3.112  0.0879 -0.2489 -0.0020
14949DOD     C388668   4.461  10.706   2.713 -0.0027  0.1623  0.1269
14950DOD     C188669  10.035   1.979   9.524  0.2053 -0.2658  0.2713
14950DOD     C288670  10.291   1.897   9.933 -0.0962 -0.3858 -0.2302
14950DOD     C388671  10.399   1.933  10.397  0.1385 -0.0687 -0.0773
14951DOD     C188672  21.527  23.179  16.974 -0.1591  0.2413  0.0130
14951DOD     C288673  21.948  22.981  16.893  0.2168 -0.2821  0.2223
14951DOD     C388674  22.090  22.906  16.428 -0.1487  0.0569  0.0659
14952DOD     C188675   9.583   1.439   8.425 -0.1326 -0.0263  0.0676
14952DOD     C288676   9.971   1.366   8.211  0.1351  0.0215 -0.1178
14952DOD     C388677  10.420   1.306   8.125 -0.3631 -0.1166  0.0996
14953DOD     C188678  26.141  13.487  17.869  0.2047 -0.1909  0.0750
14953DOD     C288679  25.954  13.912  17.904 -0.2361 -0.1464  0.1872
14953DOD     C388680  25.895  14.344  17.756  0.0627 -0.1288 -0.1964
14954DOD     C188681   7.546   0.678  21.612  0.0092  0.0994  0.3014
14954DOD     C288682   7.717   1.096  21.565 -0.0004 -0.0153 -0.0360
14954DOD     C388683   7.481   1.537  21.600 -0.2548 -0.2359  0.2020
14955DOD     C188684   3.507   5.804  16.206  0.1889 -0.2700  0.0809
14955DOD     C288685   3.546   6.211  16.453  0.3761  0.1906 -0.1132
14955DOD     C388686   3.387   6.558  16.764  0.3353  0.3402  0.0623
14956DOD     C188687  22.322  16.568  29.652 -0.0491 -0.2937  0.3079
14956DOD     C288688  22.629  16.624  29.271  0.3001  0.0314  0.1499
14956DOD     C388689  22.975  16.727  29.036  0.1614 -0.0642 -0.1685
14957DOD     C188690  25.267  17.227   8.951 -0.0127  0.1862 -0.1568
14957DOD     C288691  25.185  17.671   9.168 -0.0902 -0.2917  0.4449
14957DOD     C388692  25.311  18.004   9.534 -0.1657  0.1901 -0.1553
14958DOD     C188693   3.560  21.165   6.942 -0.0949 -0.3528  0.0087
14958DOD     C288694   3.219  21.117   7.224 -0.0728  0.1689  0.0941
14958DOD     C388695   2.769  21.022   7.417  0.1410  0.1026  0.1576
14959DOD     C188696   4.478  17.010  28.644 -0.1673 -0.0374  0.1863
14959DOD     C288697   4.089  17.202  28.691 -0.0520 -0.1028 -0.0035
14959DOD     C388698   3.664  17.246  28.649  0.3117 -0.2294  0.0906
14960DOD     C188699  14.442   2.687   4.106  0.0981  0.1065  0.2769
14960DOD     C288700  14.151   2.324   4.224 -0.0957 -0.1418  0.1134
14960DOD     C388701  13.853   2.061   4.462  0.0978 -0.0557 -0.2440
14961DOD     C188702  17.285   7.680  19.341 -0.0448  0.2477  0.3594
14961DOD     C288703  17.366   7.250  19.380 -0.1181  0.2192  0.4753
14961DOD     C388704  17.764   7.052  19.461  0.1290  0.0317  0.1066
14962DOD     C188705  10.951  19.281  25.047 -0.3563  0.0576 -0.1693
14962DOD     C288706  11.368  19.072  25.125  0.3559 -0.0647 -0.0601
14962DOD     C388707  11.826  18.888  25.068 -0.0346  0.1377 -0.0937
14963DOD     C188708   6.828   3.013   8.022  0.1219 -0.0067 -0.4814
14963DOD     C288709   6.822   3.401   7.707 -0.1468  0.2984 -0.0278
14963DOD     C388710   6.990   3.801   7.833 -0.2124 -0.0054 -0.4450
14964DOD     C188711  19.440  22.839  20.398  0.2745  0.0445  0.3806
14964DOD     C288712  19.371  22.404  20.270  0.0651 -0.0851  0.0858
14964DOD     C388713  19.334  21.946  20.271 -0.2584  0.2257  0.2190
14965DOD     C188714  15.758  18.970  19.174 -0.1013  0.0955 -0.0523
14965DOD     C288715  15.449  19.301  19.126  0.0745  0.0155  0.2376
14965DOD     C388716  15.100  19.562  19.404  0.0297  0.0462  0.1582
14966DOD     C188717   7.321   5.446  25.829  0.3119  0.1551  0.0387
14966DOD     C288718   7.442   5.272  25.436  0.0765 -0.1738  0.0967
14966DOD     C388719   7.802   5.126  25.193 -0.2613 -0.2682 -0.2719
14967DOD     C188720   9.498  25.264  27.727  0.1044 -0.0390  0.0488
14967DOD     C288721   9.276  25.638  27.744 -0.2536 -0.1095 -0.1120
14967DOD     C388722   9.072  25.967  27.951  0.0108 -0.1380 -0.0340
14968DOD     C188723  29.317  29.783  18.900 -0.2221 -0.0541 -0.0809
14968DOD     C288724  29.173  29.340  19.079  0.1189 -0.3898  0.1708
14968DOD     C388725  29.093  29.166  19.470  0.0982 -0.0867 -0.0393
14969DOD     C188726  11.097  15.221  23.658  0.2145  0.4130  0.0565
14969DOD     C288727  10.979  15.099  24.118  0.2142  0.1239  0.0895
14969DOD     C388728  10.931  15.317  24.558  0.0694 -0.1941 -0.1317
14970DOD     C188729  16.790   5.586  24.131 -0.3512  0.0781  0.1613
14970DOD     C288730  17.076   5.962  24.059 -0.0528 -0.2079  0.0838
14970DOD     C388731  17.462   6.139  24.282  0.3779 -0.2421 -0.0936
14971DOD     C188732  25.303  22.266   1.512  0.0685 -0.0037  0.3932
14971DOD     C288733  25.424  22.748   1.490 -0.3294 -0.1450 -0.2347
14971DOD     C388734  25.582  23.138   1.310 -0.1625 -0.0446  0.0387
14972DOD     C188735  20.809  23.686  14.587  0.3846 -0.0036 -0.2236
14972DOD     C288736  21.019  23.664  14.157  0.1524 -0.0748  0.0980
14972DOD     C388737  21.195  23.499  13.783 -0.1440 -0.0210  0.0688
14973DOD     C188738   6.658   2.080  18.418 -0.1915 -0.2638 -0.2486
14973DOD     C288739   6.388   2.038  18.053 -0.0942  0.0864 -0.2479
14973DOD     C388740   6.161   2.165  17.644  0.1604 -0.1627  0.1350
14974DOD     C188741  21.562   5.420   9.059  0.2718 -0.1091  0.0186
14974DOD     C288742  21.568   5.273   9.478 -0.0205  0.1225  0.0274
14974DOD     C388743  21.724   4.980   9.833 -0.1140  0.0425 -0.1486
14975DOD     C188744  27.492  30.261   9.997  0.0643 -0.0771 -0.0169
14975DOD     C288745  27.578  29.836   9.909  0.0201  0.0014 -0.1470
14975DOD     C388746  27.858  29.519   9.972 -0.1830  0.2229 -0.0446
14976DOD     C188747  11.953  23.646  16.876 -0.5894  0.0781 -0.0867
14976DOD     C288748  11.636  24.034  16.904 -0.3590  0.1888 -0.0089
14976DOD     C388749  11.300  24.294  16.753 -0.1644  0.0365  0.1949
14977DOD     C188750  18.970  29.954  16.477  0.0684 -0.0468 -0.2601
14977DOD     C288751  19.022  30.283  16.840  0.1386 -0.0802  0.3548
14977DOD     C388752  19.316   0.316  16.908 -0.3717  0.1368  0.0909
14978DOD     C188753  26.756   8.110  21.605 -0.0161  0.0384  0.2816
14978DOD     C288754  27.015   8.359  21.322 -0.0699  0.2764 -0.1431
14978DOD     C388755  27.356   8.603  21.053 -0.0342 -0.2654  0.1611
14979DOD     C188756  29.633  19.224  21.357 -0.1548  0.0230  0.0096
14979DOD     C288757  30.083  19.233  21.467  0.2250  0.1739 -0.1361
14979DOD     C388758   0.059  19.406  21.756 -0.0324 -0.2342  0.0567
14980DOD     C188759   0.031  25.312  20.405 -0.2081  0.0517 -0.0640
14980DOD     C288760   0.160  25.556  20.003 -0.1219  0.0562 -0.2632
14980DOD     C388761   0.248  25.959  19.925 -0.1138  0.1728  0.0407
14981DOD     C188762  12.113  21.012   7.228  0.1186 -0.1284 -0.1099
14981DOD     C288763  12.285  20.684   7.520  0.0076 -0.2234  0.3111
14981DOD     C388764  12.270  20.261   7.760 -0.0077 -0.3877  0.3682
14982DOD     C188765  24.604   4.478   0.081  0.0004 -0.1316 -0.4019
14982DOD     C288766  24.666   4.073   0.313 -0.1395 -0.2607 -0.2813
14982DOD     C388767  24.860   3.721   0.588 -0.1085 -0.2199 -0.1804
14983DOD     C188768  30.010   7.278  25.172  0.0848  0.1525 -0.1300
14983DOD     C288769  29.519   7.269  25.214 -0.1287  0.0373 -0.1143
14983DOD     C388770  29.403   7.112  25.639 -0.3435  0.1328  0.0245
14984DOD     C188771  28.876  12.123  18.393  0.0651 -0.1052  0.2412
14984DOD     C288772  28.501  12.207  18.694 -0.1141 -0.0804 -0.2663
14984DOD     C388773  28.534  12.034  19.138  0.3937 -0.0368  0.1164
14985DOD     C188774  28.596  29.005  16.702  0.1530  0.0003 -0.0761
14985DOD     C288775  28.387  28.580  16.652 -0.2962 -0.2154 -0.1917
14985DOD     C388776  28.315  28.149  16.600  0.2371  0.0127  0.0250
14986DOD     C188777  15.379  15.431   5.136  0.2506  0.1196  0.1261
14986DOD     C288778  15.546  15.216   4.750 -0.0547 -0.1086  0.1698
14986DOD     C388779  15.299  15.183   4.395  0.0909 -0.0511 -0.1923
14987DOD     C188780   7.706  18.934  29.617 -0.2397 -0.0627  0.1538
14987DOD     C288781   7.904  18.535  29.692 -0.0276 -0.0189  0.2604
14987DOD     C388782   7.667  18.215  29.876  0.0455 -0.0881  0.3687
14988DOD     C188783   0.841   9.595   6.025  0.2708  0.1095  0.1120
14988DOD     C288784   1.026   9.690   5.578  0.1554  0.3419 -0.1155
14988DOD     C388785   1.111  10.083   5.333  0.1030  0.0946 -0.2723
14989DOD     C188786   8.877  20.231  21.769 -0.3271  0.0994 -0.0210
14989DOD     C288787   9.150  20.201  21.423  0.3107 -0.0145  0.1645
14989DOD     C388788   9.406  20.426  21.070 -0.4928  0.1559  0.1411
14990DOD     C188789  25.030   2.745  29.427 -0.0182 -0.0200 -0.0905
14990DOD     C288790  25.301   3.030  29.692  0.2375 -0.0737 -0.0640
14990DOD     C388791  25.467   3.461  29.732  0.3872  0.0943 -0.0056
14991DOD     C188792  24.457  21.953  23.907 -0.1711  0.0052 -0.2592
14991DOD     C288793  24.727  21.547  24.025 -0.0178  0.2212  0.0108
14991DOD     C388794  25.076  21.254  24.024 -0.2982  0.0013 -0.1386
14992DOD     C188795  26.352   1.394  30.297 -0.2410 -0.1037  0.0790
14992DOD     C288796  25.889   1.356   0.018  0.0496  0.1769 -0.1571
14992DOD     C388797  25.581   1.750   0.112  0.2404 -0.2457  0.2005
14993DOD     C188798  15.652  15.238  16.471  0.2145  0.0276  0.0757
14993DOD     C288799  15.862  14.918  16.220 -0.0338 -0.0393 -0.0527
14993DOD     C388800  16.248  14.865  16.449  0.0667 -0.4018  0.1433
14994DOD     C188801   7.199   9.041   1.884 -0.0298 -0.1940  0.2366
14994DOD     C288802   7.066   8.937   1.474 -0.2506 -0.2928 -0.0264
14994DOD     C388803   6.849   8.693   1.107 -0.1569  0.1456  0.0261
14995DOD     C188804   4.496   0.363  24.044  0.3887 -0.0658 -0.0538
14995DOD     C288805   4.846   0.445  23.800 -0.0828 -0.2505 -0.0780
14995DOD     C388806   4.934   0.294  23.357 -0.3002  0.4554 -0.2385
14996DOD     C188807  29.946   9.652  24.543  0.0430 -0.0705  0.1380
14996DOD     C288808  29.619   9.706  24.191  0.0230  0.5345  0.2352
14996DOD     C388809  29.321   9.474  23.938  0.3757 -0.0920  0.2647
14997DOD     C188810  21.824   5.346  11.153 -0.0546  0.0204 -0.0376
14997DOD     C288811  21.874   5.428  11.626  0.0503  0.1490  0.1349
14997DOD     C388812  21.927   5.442  12.065  0.0140  0.0830 -0.3678
14998DOD     C188813   6.748  10.186  25.948 -0.0251 -0.1844  0.2474
14998DOD     C288814   6.625  10.251  26.379  0.0080 -0.1531 -0.0263
14998DOD     C388815   6.660  10.059  26.812 -0.2683  0.0692 -0.1162
14999DOD     C188816   6.795  14.930  23.650  0.1033  0.1665 -0.0016
14999DOD     C288817   6.634  14.754  23.226  0.1996 -0.1945 -0.0383
14999DOD     C388818   6.684  14.867  22.773  0.0359  0.0792 -0.2374
15000DOD     C188819   4.356  21.667  29.660  0.0892  0.1356  0.0337
15000DOD     C288820   4.285  21.500  30.100 -0.2225 -0.0259  0.0937
15000DOD     C388821   4.202  21.109   0.021 -0.0763 -0.5154 -0.0421
15001DOD     C188822   9.324   2.905  24.684 -0.1742  0.0867 -0.1782
15001DOD     C288823   9.410   2.793  25.100 -0.1339 -0.3067 -0.1190
15001DOD     C388824   9.469   2.690  25.547 -0.0255 -0.2905 -0.1502
15002DOD     C188825  10.166   1.292   3.737 -0.0206 -0.0808  0.1541
15002DOD     C288826  10.510   1.623   3.539 -0.1617  0.0026 -0.1187
15002DOD     C388827  10.854   1.905   3.403  0.0017  0.1732 -0.1282
15003DOD     C188828  13.276  18.383  22.717 -0.0896  0.1554 -0.1353
15003DOD     C288829  13.015  18.031  22.922 -0.0083 -0.1411 -0.3595
15003DOD     C388830  12.853  17.689  22.652  0.0304 -0.1703  0.0842
15004DOD     C188831  29.783  17.121  20.777 -0.0163  0.2259  0.0836
15004DOD     C288832  29.961  17.563  20.651 -0.1552 -0.1394  0.2606
15004DOD     C388833   0.087  17.710  20.713 -0.1286 -0.1650 -0.2399
15005DOD     C188834  29.214   2.902  26.928 -0.1346  0.2322 -0.2793
15005DOD     C288835  28.786   3.057  26.804  0.1485  0.0973 -0.4247
15005DOD     C388836  28.701   3.404  26.596  0.2752 -0.3688 -0.0520
15006DOD     C188837  11.064  22.108  16.795  0.2617 -0.0287 -0.0391
15006DOD     C288838  10.601  22.011  16.722 -0.0046 -0.0201 -0.1780
15006DOD     C388839  10.589  21.829  16.295  0.1979 -0.2012  0.0459
15007DOD     C188840   1.524  14.499  22.673  0.0140 -0.0640 -0.1285
15007DOD     C288841   1.797  14.646  22.411 -0.2763  0.4821  0.1497
15007DOD     C388842   2.250  14.770  22.355 -0.2202  0.1682 -0.3069
15008DOD     C188843  16.081  26.928  12.836  0.1564 -0.0529 -0.2581
15008DOD     C288844  15.717  26.731  13.081 -0.0188 -0.0028 -0.0840
15008DOD     C388845  15.376  26.755  13.413  0.1452  0.2321  0.3820
15009DOD     C188846   2.771   1.702  23.524  0.3520  0.0333  0.0445
15009DOD     C288847   2.681   1.838  23.977 -0.0432  0.0823 -0.1578
15009DOD     C388848   2.374   2.095  24.142 -0.0345 -0.4977 -0.2345
15010DOD     C188849  12.324  11.283   8.288 -0.0878 -0.2298  0.1912
15010DOD     C288850  12.200  11.659   8.482 -0.0478 -0.0577 -0.0837
15010DOD     C388851  11.916  12.005   8.376  0.0162  0.2681  0.0613
15011DOD     C188852  13.246  18.417  29.913 -0.1409  0.0840  0.0285
15011DOD     C288853  13.386  18.706  29.655  0.1375  0.2497  0.3501
15011DOD     C388854  13.378  19.063  29.466  0.0856 -0.2391  0.2388
15012DOD     C188855  28.256  25.827  17.281 -0.0585 -0.0795  0.0461
15012DOD     C288856  28.333  25.864  17.697  0.1850 -0.1939  0.1438
15012DOD     C388857  28.574  25.588  17.936 -0.1928  0.1204 -0.0803
15013DOD     C188858   5.871   2.962  14.062 -0.1082 -0.1903 -0.0929
15013DOD     C288859   6.063   2.745  13.714 -0.1543  0.1483 -0.4585
15013DOD     C388860   6.123   2.907  13.321 -0.0698  0.0678 -0.0267
15014DOD     C188861  24.289  28.903  11.905  0.1243  0.0803 -0.1486
15014DOD     C288862  24.190  29.278  12.174 -0.2364 -0.0751 -0.1596
15014DOD     C388863  24.270  29.280  12.628 -0.1331 -0.0228 -0.2227
15015DOD     C188864  16.613   8.305  12.083 -0.1368  0.0476  0.1107
15015DOD     C288865  16.746   7.964  11.804 -0.2626  0.1323  0.0389
15015DOD     C388866  17.056   7.656  11.765  0.0328 -0.3141  0.1358
15016DOD     C188867  18.929  28.429  11.665  0.1258 -0.0111 -0.1784
15016DOD     C288868  18.571  28.695  11.543  0.0531 -0.0382 -0.2135
15016DOD     C388869  18.138  28.839  11.404 -0.0300 -0.1026 -0.3240
15017DOD     C188870   0.025  16.908   4.163 -0.0149  0.2396  0.2205
15017DOD     C288871  30.147  16.653   4.501 -0.2024 -0.1672 -0.2650
15017DOD     C388872   0.088  16.418   4.814 -0.2226 -0.0321 -0.1485
15018DOD     C188873  14.075  17.391  27.082  0.0579  0.1575  0.1607
15018DOD     C288874  14.274  17.021  26.834 -0.0992  0.0971 -0.1705
15018DOD     C388875  14.337  16.619  26.622 -0.1787 -0.0632  0.3972
15019DOD     C188876  11.048  12.093   9.015  0.0643 -0.0088 -0.0374
15019DOD     C288877  10.842  11.933   9.371 -0.0364  0.0344 -0.3171
15019DOD     C388878  10.652  11.551   9.590  0.2043 -0.1148  0.2670
15020DOD     C188879   5.304   0.301   6.720 -0.0745 -0.1086 -0.0832
15020DOD     C288880   5.224   0.829   6.731  0.1062  0.2080 -0.1913
15020DOD     C388881   5.513   1.213   6.846 -0.1289 -0.2143  0.2014
15021DOD     C188882  19.553  16.959  26.720  0.4105  0.1784  0.0171
15021DOD     C288883  20.029  16.918  26.784 -0.0571  0.0744 -0.0179
15021DOD     C388884  20.346  16.586  26.960  0.2375 -0.3691 -0.1776
15022DOD     C188885  16.976  13.364  18.313  0.0070  0.1197 -0.1070
15022DOD     C288886  16.568  13.701  18.265  0.1220 -0.2008  0.0513
15022DOD     C388887  16.168  13.944  18.027 -0.6005  0.0604  0.3854
15023DOD     C188888  10.012  10.225   8.272  0.0118 -0.1797  0.0519
15023DOD     C288889  10.301  10.338   7.973  0.3593 -0.0050  0.0118
15023DOD     C388890  10.455  10.708   7.759 -0.0575 -0.1653  0.1194
15024DOD     C188891   2.363  29.999  16.110  0.0578 -0.1319 -0.2225
15024DOD     C288892   2.653  29.799  15.765  0.1856 -0.1244  0.2220
15024DOD     C388893   3.032  29.791  15.520  0.1311 -0.4830 -0.0659
15025DOD     C188894  14.307   8.932  18.169  0.2435  0.2657  0.1924
15025DOD     C288895  13.839   8.930  18.041  0.0091  0.1175  0.0624
15025DOD     C388896  13.401   8.905  18.268  0.3916  0.0474 -0.5062
15026DOD     C188897   9.123  24.183  12.259 -0.1299  0.1118  0.0155
15026DOD     C288898   9.298  23.798  12.450  0.1694 -0.1438 -0.1449
15026DOD     C388899   9.196  23.450  12.739 -0.0218 -0.2002  0.2262
15027DOD     C188900  21.016  17.277   5.423 -0.2973  0.1727  0.0848
15027DOD     C288901  20.762  17.111   5.747 -0.1560  0.0503  0.2042
15027DOD     C388902  20.605  17.239   6.188 -0.1679 -0.0028 -0.1862
15028DOD     C188903  22.138   0.151  11.626  0.0675  0.0958  0.2149
15028DOD     C288904  22.291   0.444  11.966 -0.2172 -0.2003 -0.2265
15028DOD     C388905  22.583   0.751  12.234  0.1142 -0.1318 -0.0019
15029DOD     C188906   4.249   2.756  25.948  0.0667  0.0119 -0.0413
15029DOD     C288907   4.135   2.796  25.448 -0.2540  0.0511 -0.2121
15029DOD     C388908   4.311   2.864  25.078  0.2496 -0.2262  0.0366
15030DOD     C188909   2.314  12.904  26.410  0.0841 -0.0166  0.2494
15030DOD     C288910   2.401  13.085  25.982 -0.3435 -0.2470  0.2257
15030DOD     C388911   2.398  13.275  25.562 -0.2112  0.0748 -0.0805
15031DOD     C188912  16.443   6.104  23.135  0.2279  0.0723  0.0952
15031DOD     C288913  16.362   6.419  22.772  0.0404 -0.0249 -0.0812
15031DOD     C388914  16.376   6.652  22.331 -0.3664 -0.2511 -0.2891
15032DOD     C188915   6.778  11.233  27.318  0.1675  0.3332 -0.1672
15032DOD     C288916   6.685  10.965  26.925 -0.0222 -0.0188  0.1085
15032DOD     C388917   6.747  10.768  26.493  0.0096 -0.0876  0.0222
15033DOD     C188918   3.791  25.271  16.445  0.0340 -0.3287  0.0330
15033DOD     C288919   3.565  25.673  16.549 -0.0418  0.1699  0.3855
15033DOD     C388920   3.734  26.073  16.444  0.2944 -0.2766  0.2443
15034DOD     C188921  13.959  23.542  12.541  0.0484 -0.0074  0.0478
15034DOD     C288922  14.191  23.404  12.153  0.0557  0.3653 -0.3160
15034DOD     C388923  14.120  23.534  11.732  0.3940 -0.1598  0.1258
15035DOD     C188924  21.299   7.495   4.177 -0.2000  0.0898 -0.1946
15035DOD     C288925  21.281   7.121   3.926 -0.3729 -0.3082  0.0175
15035DOD     C388926  20.942   6.868   3.652  0.1952 -0.2542 -0.0749
15036DOD     C188927  18.467  13.491  30.027 -0.1754 -0.1082 -0.1150
15036DOD     C288928  18.384  13.095  30.278  0.0743  0.1127 -0.0421
15036DOD     C388929  18.596  12.845   0.225  0.1051  0.0931  0.0001
15037DOD     C188930  26.257  15.244  11.082 -0.1110  0.1342  0.1946
15037DOD     C288931  25.822  15.349  11.130 -0.0632  0.2734  0.3906
15037DOD     C388932  25.431  15.414  11.115  0.1906 -0.0320  0.2399
15038DOD     C188933  24.993   4.463  23.916 -0.1760  0.0087  0.0023
15038DOD     C288934  25.369   4.640  24.053 -0.0255 -0.0842  0.1506
15038DOD     C388935  25.754   4.583  24.284  0.0548  0.0167 -0.0343
15039DOD     C188936   2.288   9.364  19.832 -0.4088  0.2366 -0.0819
15039DOD     C288937   2.478   9.068  19.582  0.2489  0.2042  0.3204
15039DOD     C388938   2.744   8.730  19.541 -0.1887 -0.0421  0.0627
15040DOD     C188939  30.198  11.245  19.072 -0.0375 -0.1325  0.0879
15040DOD     C288940   0.061  11.348  18.673  0.0439  0.1315  0.0379
15040DOD     C388941   0.212  11.241  18.227 -0.1211  0.2162 -0.0228
15041DOD     C188942  10.705   9.036   5.087  0.0523  0.0780  0.0617
15041DOD     C288943  10.540   9.448   4.856  0.4152 -0.1299 -0.4505
15041DOD     C388944  10.401   9.693   4.535 -0.0998  0.3032 -0.1482
15042DOD     C188945  17.840  15.850  21.866  0.0013 -0.1660  0.0423
15042DOD     C288946  17.597  16.198  22.098 -0.1217  0.0963 -0.1905
15042DOD     C388947  17.488  16.530  22.400  0.1251  0.2609 -0.2057
15043DOD     C188948   3.109   2.356  22.023 -0.2395  0.0079  0.0585
15043DOD     C288949   3.189   2.815  21.773 -0.1433  0.2245  0.1478
15043DOD     C388950   2.894   3.107  21.717 -0.1434  0.2382  0.0225
15044DOD     C188951  18.403   0.904  10.473 -0.0027 -0.0264  0.2279
15044DOD     C288952  18.462   0.697  10.916 -0.3035 -0.4995  0.0742
15044DOD     C388953  18.632   0.773  11.358  0.1901 -0.0517  0.1683
15045DOD     C188954   2.110  16.005  22.495 -0.1318 -0.0883 -0.0212
15045DOD     C288955   1.828  16.090  22.152 -0.2853 -0.1868  0.2415
15045DOD     C388956   1.923  16.445  21.820  0.0011  0.0963  0.1663
15046DOD     C188957   9.831  28.616   7.121 -0.0367 -0.2916  0.0494
15046DOD     C288958   9.856  28.208   6.970  0.0816 -0.1613 -0.2102
15046DOD     C388959  10.018  28.020   6.597  0.1073  0.1100 -0.0420
15047DOD     C188960  28.355  16.669  19.655  0.3372  0.2574 -0.1122
15047DOD     C288961  27.954  16.528  19.824 -0.3175  0.2408 -0.1257
15047DOD     C388962  27.476  16.418  19.839 -0.2449  0.0180  0.1031
15048DOD     C188963   0.271  19.255   6.027 -0.2814 -0.2150  0.1404
15048DOD     C288964   0.766  19.322   6.105  0.1651  0.3285 -0.0878
15048DOD     C388965   1.199  19.509   6.130  0.1997 -0.1794 -0.0431
15049DOD     C188966  17.446  23.773  17.953  0.1476 -0.1525  0.0404
15049DOD     C288967  17.364  23.698  17.517  0.3931  0.1303 -0.2146
15049DOD     C388968  17.387  23.786  17.058  0.0925  0.2280 -0.2207
15050DOD     C188969  21.023   3.313  16.667 -0.0612  0.1211 -0.0347
15050DOD     C288970  20.626   3.504  16.408  0.2211  0.1650 -0.1663
15050DOD     C388971  20.163   3.551  16.306 -0.0844 -0.2120  0.1074
15051DOD     C188972  17.680  25.388  18.425  0.1053  0.2033  0.0378
15051DOD     C288973  17.389  25.661  18.356 -0.0192 -0.2902  0.2021
15051DOD     C388974  17.218  26.082  18.531 -0.1409 -0.0082 -0.0392
15052DOD     C188975   4.202  17.252   4.671 -0.1648 -0.2086 -0.1060
15052DOD     C288976   4.654  17.301   4.789 -0.1217  0.1187  0.1310
15052DOD     C388977   4.777  17.266   5.235  0.0252  0.0276 -0.2619
15053DOD     C188978  26.485  18.735   5.143 -0.2732  0.1075 -0.0525
15053DOD     C288979  26.279  18.866   5.564 -0.1207  0.3090 -0.1303
15053DOD     C388980  26.413  18.896   6.044 -0.0014 -0.2416 -0.0203
15054DOD     C188981  12.740   6.415   7.126  0.1600 -0.1237  0.0638
15054DOD     C288982  12.733   6.882   7.202 -0.1228 -0.1232  0.1565
15054DOD     C388983  13.085   7.207   7.228 -0.1819  0.0011  0.0419
15055DOD     C188984  19.251   7.156  25.746 -0.0033  0.0057 -0.0165
15055DOD     C288985  19.451   6.948  26.168 -0.1139  0.3802  0.0155
15055DOD     C388986  19.628   6.815  26.596 -0.3124  0.0604  0.1537
15056DOD     C188987   0.753  11.021   4.393  0.1594  0.0502  0.1495
15056DOD     C288988   0.911  10.830   4.769  0.2345  0.0017 -0.0325
15056DOD     C388989   1.085  10.553   5.092  0.0083 -0.3072  0.0486
15057DOD     C188990  10.684  28.595   0.920 -0.3161 -0.0581  0.1349
15057DOD     C288991  10.663  29.035   0.948 -0.2134 -0.0531  0.2595
15057DOD     C388992  10.566  29.463   0.722 -0.4438 -0.1043  0.1273
15058DOD     C188993  18.929  12.067  25.737  0.1226 -0.2957 -0.0070
15058DOD     C288994  18.848  11.850  25.351 -0.2533  0.0434  0.0319
15058DOD     C388995  18.917  11.400  25.391 -0.0078  0.2874  0.0736
15059DOD     C188996  30.086  26.292  17.617 -0.1789 -0.1308  0.2062
15059DOD     C288997  29.860  26.620  17.785  0.2770  0.2617  0.0175
15059DOD     C388998  29.495  26.742  17.940  0.2106 -0.0030 -0.0917
15060DOD     C188999  17.018  21.260  26.094  0.2939  0.2245  0.2770
15060DOD     C289000  16.975  21.607  26.420 -0.1001 -0.0400 -0.1907
15060DOD     C389001  16.787  21.985  26.641 -0.1007 -0.0633  0.1618
15061DOD     C189002  19.383  21.708  27.896  0.1451  0.0911  0.0195
15061DOD     C289003  19.294  21.544  28.340  0.0898 -0.0250 -0.1710
15061DOD     C389004  19.119  21.110  28.413 -0.0270  0.1468 -0.1509
15062DOD     C189005  17.434  27.956  20.407 -0.1031 -0.1694  0.1166
15062DOD     C289006  17.827  27.858  20.145  0.1090  0.2068 -0.3017
15062DOD     C389007  18.185  28.092  19.985 -0.0430  0.2853  0.1221
15063DOD     C189008  22.326  10.433  23.927  0.1187 -0.1290 -0.3901
15063DOD     C289009  22.168  10.059  24.206  0.0134  0.1491 -0.1156
15063DOD     C389010  21.714   9.854  24.154  0.0554 -0.2158 -0.0232
15064DOD     C189011   6.436  22.489  12.455  0.1671 -0.1300 -0.0686
15064DOD     C289012   6.476  22.834  12.754  0.0699 -0.2403  0.1064
15064DOD     C389013   6.538  22.833  13.224 -0.2368  0.0016  0.0752
15065DOD     C189014  16.691  23.474  19.668 -0.0562  0.1947 -0.0319
15065DOD     C289015  17.060  23.309  19.880  0.0306 -0.0335  0.0291
15065DOD     C389016  17.232  23.086  20.205  0.0756 -0.0817 -0.1688
15066DOD     C189017   6.968  25.522  16.148 -0.0437  0.1797  0.2018
15066DOD     C289018   6.620  25.420  16.346  0.1051  0.2757 -0.1900
15066DOD     C389019   6.142  25.559  16.210 -0.2004 -0.1954  0.1136
15067DOD     C189020  21.248  24.813  10.336  0.0956  0.0757 -0.0120
15067DOD     C289021  21.565  24.780  10.690  0.0316  0.2701 -0.1960
15067DOD     C389022  21.960  24.809  10.952 -0.3498 -0.2256  0.0923
15068DOD     C189023  14.711  19.259  25.398 -0.0723 -0.1421  0.1969
15068DOD     C289024  14.837  19.497  24.992  0.3820 -0.2791 -0.2108
15068DOD     C389025  14.662  19.895  24.816 -0.2088 -0.0398 -0.1301
15069DOD     C189026  23.194   3.909  13.787 -0.7388 -0.1146  0.0179
15069DOD     C289027  22.877   4.235  13.624  0.2710  0.1314  0.1740
15069DOD     C389028  22.442   4.360  13.524  0.0718  0.1512 -0.0398
15070DOD     C189029   7.117  27.741  29.452 -0.2758 -0.0610 -0.1887
15070DOD     C289030   7.408  27.360  29.462  0.2470  0.1460  0.0245
15070DOD     C389031   7.337  26.951  29.673 -0.1930 -0.0646  0.2801
15071DOD     C189032  18.331  15.438  29.478 -0.1674  0.1348  0.2239
15071DOD     C289033  18.316  15.600  29.951  0.1575  0.0281 -0.0564
15071DOD     C389034  18.257  15.342   0.016  0.0947 -0.0952 -0.2575
15072DOD     C189035  22.791  25.141  29.406  0.2390 -0.1908 -0.0466
15072DOD     C289036  23.250  25.030  29.487 -0.0546  0.2276  0.0778
15072DOD     C389037  23.719  25.158  29.441 -0.2542  0.1251  0.2342
15073DOD     C189038  22.938  25.353  26.634  0.1763 -0.2665  0.1663
15073DOD     C289039  22.699  25.344  26.197 -0.0289  0.2091  0.2104
15073DOD     C389040  22.473  25.326  25.830 -0.1919 -0.2162 -0.0934
15074DOD     C189041   7.020  27.951  23.802 -0.2108 -0.0837  0.0865
15074DOD     C289042   6.711  27.513  23.837  0.2190  0.1783 -0.2782
15074DOD     C389043   6.445  27.117  23.802  0.3256 -0.2011  0.2343
15075DOD     C189044   9.201  28.740   4.585  0.3110 -0.3062 -0.3075
15075DOD     C289045   9.180  29.089   4.871 -0.3123 -0.0915  0.4107
15075DOD     C389046   9.283  29.287   5.282  0.1947  0.1538  0.3822
15076DOD     C189047  10.715  26.270  15.801 -0.1621 -0.1093  0.3638
15076DOD     C289048  10.874  26.476  15.468  0.1289 -0.0361  0.1113
15076DOD     C389049  11.117  26.641  15.186  0.4553 -0.0248  0.0185
15077DOD     C189050  17.026  18.352  13.477 -0.1376 -0.2043 -0.0141
15077DOD     C289051  17.439  18.630  13.402 -0.0413  0.3797 -0.0449
15077DOD     C389052  17.919  18.535  13.384  0.1524 -0.0769 -0.1502
15078DOD     C189053  29.061  18.964  28.091  0.0159 -0.1525  0.2605
15078DOD     C289054  28.604  18.872  27.955  0.3240 -0.0833  0.5383
15078DOD     C389055  28.333  18.969  27.553  0.0301  0.0062  0.1320
15079DOD     C189056   2.883   7.979  11.236  0.1352 -0.2061 -0.3775
15079DOD     C289057   3.096   8.373  11.297 -0.1564  0.0294  0.1457
15079DOD     C389058   3.124   8.828  11.371  0.2075  0.0340 -0.2016
15080DOD     C189059   9.127  16.090  16.819  0.1782  0.2229  0.0859
15080DOD     C289060   9.263  15.756  16.525 -0.2859  0.1966  0.0083
15080DOD     C389061   9.531  15.573  16.164 -0.1119  0.1795  0.1998
15081DOD     C189062  10.603  17.918   1.580 -0.2228 -0.0167  0.1762
15081DOD     C289063  10.582  18.353   1.633  0.2489  0.0967  0.0692
15081DOD     C389064  10.194  18.575   1.482 -0.2437 -0.0578 -0.1341
15082DOD     C189065   4.364  29.162  10.115  0.0824  0.0478 -0.1298
15082DOD     C289066   4.668  29.174  10.420  0.1331  0.0495 -0.0647
15082DOD     C389067   5.077  29.138  10.635  0.0863 -0.0294  0.1836
15083DOD     C189068  21.791  21.583   5.635 -0.1032 -0.0672 -0.0760
15083DOD     C289069  21.962  22.007   5.670  0.3476  0.0876 -0.0274
15083DOD     C389070  21.777  22.444   5.839 -0.1325  0.0382  0.1813
15084DOD     C189071   7.485  27.857  28.703 -0.0317 -0.1352 -0.2668
15084DOD     C289072   7.717  27.483  28.480  0.2071  0.1379  0.1959
15084DOD     C389073   7.841  27.153  28.197  0.0421 -0.1184  0.0928
15085DOD     C189074  26.259   7.262  14.099  0.0811  0.1428 -0.1895
15085DOD     C289075  26.054   7.453  14.460 -0.3203  0.0111 -0.2375
15085DOD     C389076  25.641   7.363  14.578 -0.1415 -0.0455  0.2970
15086DOD     C189077  20.847  16.622  13.351 -0.3932  0.1553  0.1901
15086DOD     C289078  20.608  16.310  13.124 -0.1176  0.0139 -0.1931
15086DOD     C389079  20.262  16.003  13.091 -0.1402  0.4841 -0.1458
15087DOD     C189080   4.030  24.189  27.489 -0.1560  0.2015 -0.3505
15087DOD     C289081   4.249  24.387  27.900  0.1433  0.0361 -0.0230
15087DOD     C389082   4.433  24.793  28.117 -0.0605 -0.4159  0.3065
15088DOD     C189083  17.542  17.852   3.737 -0.0079  0.3970  0.2009
15088DOD     C289084  17.083  18.029   3.649  0.0048 -0.1060  0.2787
15088DOD     C389085  16.775  18.184   3.226 -0.2225 -0.1368  0.0500
15089DOD     C189086   3.930   8.550   2.809 -0.0429  0.2269 -0.2216
15089DOD     C289087   3.835   8.633   2.359 -0.1968  0.1680  0.2176
15089DOD     C389088   3.787   8.606   1.894 -0.2764 -0.0966  0.3357
15090DOD     C189089   7.680   0.423   6.043 -0.1284  0.1253  0.0012
15090DOD     C289090   8.127   0.497   6.062  0.2489  0.0872  0.2112
15090DOD     C389091   8.397   0.890   5.967  0.0446 -0.0108  0.1390
15091DOD     C189092  12.719   4.198  21.610  0.2609  0.3281 -0.0719
15091DOD     C289093  12.330   3.995  21.649  0.0855 -0.1874 -0.1129
15091DOD     C389094  11.929   3.866  21.475  0.1027  0.1313  0.2384
15092DOD     C189095  26.423   6.219   2.184 -0.2253  0.1573  0.2750
15092DOD     C289096  26.740   5.921   2.148  0.3009 -0.1261 -0.2805
15092DOD     C389097  27.036   5.731   1.894  0.0245  0.1226  0.2779
15093DOD     C189098   5.609  20.114  14.663 -0.2087 -0.1821 -0.0325
15093DOD     C289099   5.566  19.704  14.505 -0.2280  0.0783 -0.0431
15093DOD     C389100   5.686  19.374  14.170 -0.0975  0.0310 -0.3598
15094DOD     C189101  19.358  27.125  23.473  0.0960  0.0189 -0.0856
15094DOD     C289102  19.681  27.406  23.350  0.2306  0.2178 -0.1016
15094DOD     C389103  19.696  27.862  23.161  0.1758  0.1530  0.0511
15095DOD     C189104   9.205  19.919  23.793 -0.2137 -0.3671 -0.0938
15095DOD     C289105   9.329  20.061  24.225  0.3089 -0.2472 -0.3012
15095DOD     C389106   9.389  20.450  24.503 -0.0457  0.1213  0.2540
15096DOD     C189107  10.545  14.489   3.302 -0.1079  0.0575 -0.0214
15096DOD     C289108  10.585  14.934   3.338  0.0466 -0.1879  0.4779
15096DOD     C389109  10.457  15.298   3.076  0.2079 -0.0954  0.2380
15097DOD     C189110   4.849  30.213  12.042  0.1348 -0.0235 -0.3439
15097DOD     C289111   4.346  30.242  12.091  0.1071 -0.0984 -0.1463
15097DOD     C389112   3.956  30.288  11.796 -0.0903  0.0397 -0.0301
15098DOD     C189113   2.521  27.384  17.770 -0.0984 -0.1116  0.0191
15098DOD     C289114   2.798  27.627  17.503 -0.0816 -0.1960 -0.1291
15098DOD     C389115   2.713  27.837  17.104 -0.1960  0.0808  0.0893
15099DOD     C189116  20.492   6.285  19.938 -0.0228  0.0025  0.0715
15099DOD     C289117  20.675   5.874  20.079 -0.2068 -0.0883  0.2566
15099DOD     C389118  20.884   5.562  20.399  0.0937 -0.0925  0.1159
15100DOD     C189119  27.450   8.147  23.240 -0.0510 -0.1408  0.1364
15100DOD     C289120  27.568   8.156  23.736 -0.1649  0.1906  0.0139
15100DOD     C389121  27.732   8.037  24.135  0.4586 -0.1303 -0.5730
15101DOD     C189122  27.990  16.266  27.110  0.3741  0.2786 -0.1370
15101DOD     C289123  28.350  16.455  26.841  0.0965  0.1922  0.0652
15101DOD     C389124  28.604  16.593  26.455  0.0851 -0.2961  0.3526
15102DOD     C189125   5.545   9.249  20.586  0.0333  0.0508 -0.2087
15102DOD     C289126   5.979   9.291  20.541 -0.0709 -0.1044 -0.0965
15102DOD     C389127   6.457   9.330  20.356 -0.1090 -0.0751 -0.1675
15103DOD     C189128   5.327  29.589  18.208 -0.2476 -0.0264 -0.0069
15103DOD     C289129   5.279  30.015  18.525 -0.3155  0.0548  0.0261
15103DOD     C389130   5.456   0.051  18.316 -0.1483  0.2930 -0.2366
15104DOD     C189131  14.089  16.903  15.005  0.0390 -0.1155  0.0452
15104DOD     C289132  14.538  16.838  15.136  0.3007  0.1653  0.1666
15104DOD     C389133  15.028  16.776  15.105  0.0960 -0.0352  0.0972
15105DOD     C189134  22.482   3.102  10.154 -0.1594 -0.4151  0.0014
15105DOD     C289135  22.709   3.009  10.576 -0.1838 -0.0639  0.1090
15105DOD     C389136  23.083   2.977  10.799  0.2675  0.3065  0.3091
15106DOD     C189137  24.341  16.401  14.836  0.1641  0.0799 -0.4824
15106DOD     C289138  24.411  16.853  14.753 -0.2645 -0.0305  0.1668
15106DOD     C389139  24.535  17.283  15.028  0.0541 -0.0024  0.0105
15107DOD     C189140   0.127  25.153  13.394 -0.2015 -0.1676 -0.1453
15107DOD     C289141   0.349  25.589  13.318  0.0421 -0.2016 -0.1918
15107DOD     C389142   0.476  25.824  12.956  0.2560 -0.0225  0.0218
15108DOD     C189143   2.356  23.840  17.195  0.3333 -0.1971 -0.2525
15108DOD     C289144   2.436  24.015  16.767 -0.1115 -0.1388 -0.2350
15108DOD     C389145   2.569  24.344  16.472 -0.1902 -0.0345  0.1611
15109DOD     C189146  27.665   1.692  20.679  0.3513  0.0893  0.1253
15109DOD     C289147  27.378   1.883  20.408  0.0655  0.0741  0.0316
15109DOD     C389148  27.409   1.766  19.949 -0.2223  0.1412 -0.0776
15110DOD     C189149  26.268  20.792  21.897  0.1032  0.1992  0.2218
15110DOD     C289150  26.348  20.869  21.442 -0.2304  0.2454 -0.0493
15110DOD     C389151  26.085  21.028  21.119  0.2818  0.0361 -0.1257
15111DOD     C189152   3.511   4.849  16.366  0.1239  0.1625 -0.1421
15111DOD     C289153   3.121   4.706  16.591  0.2259 -0.2516  0.0866
15111DOD     C389154   2.626   4.722  16.791 -0.4857  0.1251  0.0834
15112DOD     C189155  11.600   7.551  13.108  0.2108  0.1346 -0.1588
15112DOD     C289156  11.333   7.485  12.771 -0.1787  0.2635 -0.1845
15112DOD     C389157  11.451   7.565  12.334 -0.1442 -0.2219 -0.1777
15113DOD     C189158  17.435   3.397  13.665 -0.0127 -0.0477  0.0158
15113DOD     C289159  17.845   3.371  13.802 -0.1132  0.1846 -0.2104
15113DOD     C389160  18.220   3.341  13.561 -0.1669  0.3490  0.1278
15114DOD     C189161  13.273   1.139   4.175  0.0961  0.0895  0.0541
15114DOD     C289162  13.404   1.094   4.603  0.1828  0.0692 -0.0206
15114DOD     C389163  13.371   1.300   4.987  0.3579  0.1420  0.1018
15115DOD     C189164  16.034  22.997   7.176  0.2577 -0.3578 -0.5371
15115DOD     C289165  16.302  23.356   7.178  0.0172 -0.0243 -0.0541
15115DOD     C389166  16.712  23.670   7.238  0.2100 -0.2269 -0.0495
15116DOD     C189167  12.504  26.015  23.521  0.0609 -0.2107  0.2692
15116DOD     C289168  12.723  26.433  23.388  0.0077  0.1977 -0.0451
15116DOD     C389169  12.468  26.692  23.129  0.2538 -0.1055 -0.1903
15117DOD     C189170  29.491  20.006  21.122 -0.0034 -0.1020  0.2161
15117DOD     C289171  29.521  20.510  21.121 -0.3368 -0.2502 -0.3366
15117DOD     C389172  29.458  20.820  21.474 -0.4290  0.1614  0.3372
15118DOD     C189173  22.473  22.722  16.649 -0.6285 -0.0371  0.0459
15118DOD     C289174  22.343  22.703  17.117 -0.1414 -0.0300  0.2517
15118DOD     C389175  22.037  22.784  17.531  0.1736  0.0375  0.0692
15119DOD     C189176  29.928  16.051  25.431 -0.1162 -0.5789  0.1520
15119DOD     C289177  30.044  16.487  25.544 -0.0730 -0.0890 -0.0544
15119DOD     C389178  30.140  16.962  25.414 -0.0446 -0.0149 -0.2202
15120DOD     C189179  17.704   2.851  27.114  0.0007 -0.1640  0.0760
15120DOD     C289180  17.767   3.326  27.101 -0.1491  0.2562  0.1281
15120DOD     C389181  17.990   3.716  27.109 -0.0672  0.0611 -0.2742
15121DOD     C189182   2.373  22.442  26.854 -0.0915 -0.0021  0.0168
15121DOD     C289183   2.336  22.857  27.098 -0.2592 -0.0200  0.0180
15121DOD     C389184   1.949  22.941  27.326  0.0766 -0.0722 -0.2143
15122DOD     C189185  14.099  25.365  21.630 -0.2896  0.0814  0.2035
15122DOD     C289186  13.815  25.068  21.398 -0.2220  0.0591 -0.1092
15122DOD     C389187  13.614  24.668  21.230 -0.3404 -0.6051 -0.1693
15123DOD     C189188   8.676  18.370  17.744 -0.0664 -0.2969 -0.2472
15123DOD     C289189   8.299  18.470  17.461  0.1108  0.1910 -0.0770
15123DOD     C389190   7.879  18.628  17.296 -0.1023  0.0309 -0.1310
15124DOD     C189191  10.522   7.849  20.306  0.0324 -0.2799 -0.2509
15124DOD     C289192  10.200   7.536  20.382 -0.3039 -0.1839 -0.0149
15124DOD     C389193   9.905   7.289  20.610  0.4004  0.0742 -0.1503
15125DOD     C189194   3.402   0.805   6.743 -0.3079 -0.0477  0.1575
15125DOD     C289195   3.088   0.630   6.990  0.0335  0.0177 -0.3157
15125DOD     C389196   2.745   0.365   7.133 -0.0415  0.0793  0.2873
15126DOD     C189197   2.334   2.081   7.587  0.0315 -0.1391 -0.1042
15126DOD     C289198   1.884   1.983   7.487 -0.1068  0.0230 -0.2925
15126DOD     C389199   1.424   1.846   7.579  0.1507  0.0924 -0.0011
15127DOD     C189200  19.457  25.080  13.394 -0.3274 -0.0695 -0.0291
15127DOD     C289201  19.536  24.668  13.601  0.1643  0.3250  0.2279
15127DOD     C389202  19.287  24.298  13.490  0.0185  0.0749 -0.1443
15128DOD     C189203   1.232  13.399  29.786  0.2292 -0.0404 -0.1302
15128DOD     C289204   1.120  13.743  29.487 -0.1158 -0.0658 -0.0869
15128DOD     C389205   1.018  14.063  29.178 -0.0155 -0.0522 -0.2518
15129DOD     C189206   4.366   7.363  23.654  0.1123 -0.0587  0.1298
15129DOD     C289207   4.465   6.912  23.426  0.2083 -0.0631  0.2670
15129DOD     C389208   4.153   6.628  23.638  0.2497 -0.0783  0.1306
15130DOD     C189209  22.932  27.038   4.857  0.3134  0.2003  0.3010
15130DOD     C289210  22.915  26.572   4.766  0.0369  0.2000  0.1268
15130DOD     C389211  22.664  26.208   4.932 -0.2428  0.1063 -0.1735
15131DOD     C189212   9.369  24.116  14.878 -0.3736  0.1934 -0.0068
15131DOD     C289213   9.634  23.751  14.646 -0.1486 -0.2030 -0.1459
15131DOD     C389214   9.643  23.531  14.255 -0.1826 -0.0965 -0.1792
15132DOD     C189215  30.208  16.475  11.191  0.1068 -0.0780  0.3630
15132DOD     C289216  30.248  16.799  10.825 -0.0339  0.0005 -0.1677
15132DOD     C389217  30.300  17.106  10.439 -0.0678 -0.1920  0.0049
15133DOD     C189218  23.502  26.185  13.511  0.0239  0.2292  0.1350
15133DOD     C289219  23.621  26.231  14.007 -0.3781  0.2274 -0.0473
15133DOD     C389220  23.693  25.899  14.372 -0.0673  0.1524 -0.0086
15134DOD     C189221   5.027  25.301  12.798  0.1498  0.0230 -0.1472
15134DOD     C289222   5.067  25.699  13.058  0.2329  0.0485 -0.2957
15134DOD     C389223   4.820  26.072  13.141 -0.5534  0.0538 -0.2879
15135DOD     C189224  26.355  27.272  19.607 -0.0504 -0.1670  0.3111
15135DOD     C289225  26.233  27.713  19.828 -0.1360  0.1099 -0.1425
15135DOD     C389226  26.189  28.142  19.959  0.0152 -0.0816 -0.0986
15136DOD     C189227  26.481   7.013   6.565  0.0115 -0.1612  0.1615
15136DOD     C289228  26.698   7.447   6.632 -0.1391 -0.2144 -0.0387
15136DOD     C389229  27.081   7.626   6.521 -0.1106  0.0479  0.2118
15137DOD     C189230  10.559   4.803  15.487 -0.1775 -0.1902  0.2900
15137DOD     C289231  10.719   4.780  15.046 -0.3119 -0.0574  0.0906
15137DOD     C389232  10.640   4.871  14.569  0.0580  0.2202 -0.2787
15138DOD     C189233   5.090  12.435   8.308 -0.1916 -0.0992 -0.4942
15138DOD     C289234   5.073  12.449   8.814  0.0196 -0.3097  0.2313
15138DOD     C389235   4.729  12.580   9.109 -0.0496 -0.1041 -0.2616
15139DOD     C189236  12.398  15.600   0.624 -0.1726 -0.1318 -0.1446
15139DOD     C289237  12.377  15.331   0.246 -0.3265 -0.0002 -0.1929
15139DOD     C389238  12.636  15.208  30.215  0.0237  0.0899 -0.0589
15140DOD     C189239  13.390  15.047  13.269  0.0795  0.0703  0.0763
15140DOD     C289240  13.489  14.617  13.384  0.0392 -0.0612 -0.0940
15140DOD     C389241  13.635  14.194  13.313  0.1528 -0.1715  0.1932
15141DOD     C189242   6.552  23.751  23.322 -0.0639  0.1527  0.1842
15141DOD     C289243   7.001  23.848  23.331  0.4138  0.3483  0.0816
15141DOD     C389244   7.447  23.916  23.180 -0.0404  0.2906 -0.2034
15142DOD     C189245  22.600  29.184  14.671  0.0218  0.1035  0.1078
15142DOD     C289246  22.828  29.150  14.265  0.0840  0.1598 -0.3534
15142DOD     C389247  23.228  29.246  14.152 -0.0332  0.1929 -0.0918
15143DOD     C189248  17.589  22.529  27.311 -0.0830 -0.0522  0.1615
15143DOD     C289249  17.830  22.433  26.940 -0.2269  0.1430  0.1849
15143DOD     C389250  17.816  21.999  26.708 -0.0806 -0.2020 -0.2114
15144DOD     C189251   0.836   4.541  19.873  0.0255 -0.1752  0.0553
15144DOD     C289252   1.024   4.873  19.694  0.0270 -0.0292 -0.1679
15144DOD     C389253   1.117   5.270  19.923 -0.0485  0.0267 -0.1309
15145DOD     C189254  16.333  22.382   7.436  0.0134 -0.1721 -0.3147
15145DOD     C289255  16.461  22.570   7.051  0.1281 -0.0993  0.4423
15145DOD     C389256  16.352  22.385   6.568  0.3298 -0.0340 -0.1605
15146DOD     C189257  13.232  23.366   8.577  0.0395 -0.1291  0.2608
15146DOD     C289258  13.345  23.795   8.769 -0.1729 -0.1215 -0.1573
15146DOD     C389259  13.609  24.166   8.889 -0.0808 -0.0706  0.0537
15147DOD     C189260   7.797  15.759  22.173  0.1019 -0.0331 -0.4930
15147DOD     C289261   7.771  15.726  21.760 -0.0249  0.0924 -0.2396
15147DOD     C389262   7.612  15.587  21.322  0.1216 -0.0563 -0.0657
15148DOD     C189263  28.699   4.232   3.111 -0.0620  0.0860  0.0255
15148DOD     C289264  28.936   4.604   3.161  0.0918  0.0880  0.2819
15148DOD     C389265  29.161   5.048   2.999  0.1461  0.0170 -0.0599
15149DOD     C189266  28.603   3.285  25.751 -0.1564 -0.0658  0.1480
15149DOD     C289267  28.911   3.267  26.165 -0.2537 -0.1296  0.0660
15149DOD     C389268  29.159   3.181  26.510 -0.0391 -0.1613  0.1110
15150DOD     C189269  24.717  14.798  14.551 -0.1594  0.3813 -0.0451
15150DOD     C289270  24.432  14.442  14.502 -0.1310  0.1575  0.1474
15150DOD     C389271  24.244  14.055  14.294 -0.1197 -0.0533 -0.0694
15151DOD     C189272   9.721  27.281  10.350  0.3169 -0.0726 -0.1796
15151DOD     C289273  10.175  27.479  10.282 -0.2528 -0.1213 -0.0948
15151DOD     C389274  10.569  27.483  10.021  0.0533 -0.2512  0.0916
15152DOD     C189275  18.450  17.955  14.915 -0.3189  0.1944 -0.3006
15152DOD     C289276  18.097  17.787  15.194 -0.0519  0.0358 -0.1044
15152DOD     C389277  17.855  17.387  15.335  0.0327  0.1061  0.0072
15153DOD     C189278  10.190  12.019  15.561 -0.0810  0.1208 -0.0255
15153DOD     C289279  10.169  11.956  15.061  0.1651 -0.1927  0.0977
15153DOD     C389280  10.222  12.096  14.567 -0.1494 -0.3441  0.1734
15154DOD     C189281   6.691  29.901  12.142  0.3080 -0.0381 -0.1544
15154DOD     C289282   6.540  29.609  11.810 -0.2338 -0.1765  0.1626
15154DOD     C389283   6.080  29.625  11.643 -0.4855 -0.1685  0.1298
15155DOD     C189284   3.291   9.929  21.908 -0.0774 -0.1993 -0.1971
15155DOD     C289285   3.487  10.327  21.781 -0.0311  0.5161  0.0716
15155DOD     C389286   3.665  10.763  21.735 -0.2775 -0.2138 -0.0152
15156DOD     C189287   2.935  16.667   3.036  0.2394 -0.1412  0.1908
15156DOD     C289288   3.110  16.275   2.947 -0.2032 -0.1971 -0.2993
15156DOD     C389289   3.525  16.086   3.010 -0.1149 -0.1145  0.3140
15157DOD     C189290   0.653  21.912  10.677 -0.0828 -0.1062 -0.2394
15157DOD     C289291   0.545  22.047  11.082 -0.2577 -0.2281 -0.2346
15157DOD     C389292   0.361  21.777  11.394  0.2749  0.0036  0.1022
15158DOD     C189293  23.789   1.002  18.880 -0.1937  0.0251 -0.1079
15158DOD     C289294  23.661   0.805  19.275  0.0174  0.0970  0.3447
15158DOD     C389295  23.403   0.436  19.445 -0.1427 -0.1221  0.2134
15159DOD     C189296  28.786  20.069   2.250  0.0491 -0.0694  0.3563
15159DOD     C289297  28.999  20.401   2.578 -0.1664  0.0989  0.0064
15159DOD     C389298  29.025  20.815   2.549  0.1863 -0.1336  0.1691
15160DOD     C189299  10.983  11.846  21.436 -0.1676  0.2191  0.3467
15160DOD     C289300  10.939  11.389  21.396  0.2874 -0.1966 -0.1042
15160DOD     C389301  10.987  10.900  21.291 -0.0113 -0.1093 -0.0408
15161DOD     C189302   5.221  29.666  28.726 -0.4037  0.2076  0.0694
15161DOD     C289303   5.298  29.348  28.963 -0.1370  0.0371 -0.0507
15161DOD     C389304   5.212  29.095  29.338 -0.1790  0.1970  0.0153
15162DOD     C189305  12.486   3.042  17.710  0.2628  0.1228 -0.1838
15162DOD     C289306  12.446   3.487  17.752  0.1658 -0.0634  0.1791
15162DOD     C389307  12.199   3.744  18.026  0.0826  0.0100  0.0235
15163DOD     C189308  20.651   9.584  18.096 -0.0044  0.0474  0.1310
15163DOD     C289309  20.578   9.662  17.680 -0.3792  0.0998 -0.2530
15163DOD     C389310  20.289   9.582  17.328 -0.0534  0.0783 -0.1011
15164DOD     C189311  19.885  23.781   8.923  0.0209  0.3709  0.2346
15164DOD     C289312  19.834  23.814   8.371  0.0715  0.0311  0.2424
15164DOD     C389313  19.790  24.063   7.970  0.0338  0.0144 -0.2920
15165DOD     C189314   5.590  15.257  29.880 -0.0389 -0.4465 -0.1199
15165DOD     C289315   5.364  15.544  29.621  0.0920 -0.0922 -0.0815
15165DOD     C389316   5.017  15.828  29.498  0.0949 -0.2236  0.0168
15166DOD     C189317   0.132  13.338  20.372 -0.1832 -0.0232  0.0952
15166DOD     C289318   0.446  12.995  20.417  0.2645  0.0818  0.1175
15166DOD     C389319   0.900  12.878  20.548  0.2540  0.2846 -0.1320
15167DOD     C189320  12.624  28.066   6.408  0.0536 -0.1007 -0.3029
15167DOD     C289321  12.936  28.285   6.658 -0.0512 -0.0725  0.0106
15167DOD     C389322  13.012  28.587   6.969  0.4164 -0.2719  0.0804
15168DOD     C189323  28.136  27.942  10.708 -0.0052  0.2799  0.1022
15168DOD     C289324  28.077  27.733  10.287  0.0496 -0.0731 -0.1031
15168DOD     C389325  28.015  27.916   9.835 -0.0552 -0.0960  0.0476
15169DOD     C189326  19.398   1.502   1.076 -0.0555 -0.0740 -0.0920
15169DOD     C289327  19.567   1.629   1.470  0.1479 -0.0717  0.0232
15169DOD     C389328  19.571   1.853   1.875 -0.1540  0.0027  0.0998
15170DOD     C189329  11.161  10.357  24.931  0.2872 -0.0164 -0.1559
15170DOD     C289330  11.068  10.856  24.891 -0.2021 -0.1015 -0.1262
15170DOD     C389331  11.135  11.183  24.553  0.3076  0.3944  0.1537
15171DOD     C189332  28.996  21.421  18.990  0.1899  0.1471 -0.0246
15171DOD     C289333  29.216  21.193  18.604 -0.1855 -0.3618  0.1038
15171DOD     C389334  29.600  21.039  18.374  0.3809  0.3902 -0.2842
15172DOD     C189335  24.697  28.725  17.147  0.1988  0.0376 -0.0987
15172DOD     C289336  24.996  29.070  17.093  0.4215 -0.0323 -0.4587
15172DOD     C389337  25.454  29.145  17.004 -0.2962 -0.0496  0.2179
15173DOD     C189338  10.298  29.132  29.786 -0.2153 -0.1140 -0.0562
15173DOD     C289339  10.605  29.435  29.618  0.0720 -0.0037  0.1106
15173DOD     C389340  10.967  29.589  29.311 -0.1757  0.3789 -0.2902
15174DOD     C189341  28.258  22.114  15.592  0.1150  0.1395  0.0558
15174DOD     C289342  28.465  21.749  15.849 -0.0644  0.1325 -0.0173
15174DOD     C389343  28.854  21.550  16.018  0.2764  0.1144 -0.3416
15175DOD     C189344   2.170  27.340   7.834  0.0023 -0.2343 -0.0826
15175DOD     C289345   2.004  27.237   7.428  0.2422 -0.0763  0.1108
15175DOD     C389346   1.552  27.007   7.474  0.2354 -0.2124 -0.0423
15176DOD     C189347   2.661  10.194  27.799 -0.0436 -0.0034  0.3249
15176DOD     C289348   3.034  10.006  28.000 -0.4152  0.1092 -0.0249
15176DOD     C389349   3.003   9.719  28.362  0.1569 -0.3451 -0.2767
15177DOD     C189350  10.456  30.310   1.035 -0.0071 -0.1861 -0.0877
15177DOD     C289351  10.860  30.098   1.180 -0.1350  0.0212 -0.2205
15177DOD     C389352  11.264  29.901   1.323  0.1152  0.0138  0.1678
15178DOD     C189353   8.157   4.492   6.662 -0.2225  0.4981  0.2799
15178DOD     C289354   8.479   4.488   6.980 -0.0362  0.4303  0.2391
15178DOD     C389355   8.616   4.667   7.300 -0.2170  0.0587 -0.0912
15179DOD     C189356  19.601  14.489   1.074 -0.1193  0.0739 -0.0044
15179DOD     C289357  19.224  14.386   1.317  0.2332  0.3864  0.2316
15179DOD     C389358  18.995  14.594   1.721  0.1683  0.1301  0.0373
15180DOD     C189359  13.291  15.546   8.582 -0.3479 -0.1032  0.0260
15180DOD     C289360  12.960  15.277   8.513 -0.0393  0.1657 -0.0215
15180DOD     C389361  12.579  15.083   8.340  0.3534  0.0010 -0.3989
15181DOD     C189362   4.474  27.214   7.387  0.1046  0.2587  0.0851
15181DOD     C289363   4.746  26.989   7.107 -0.1305 -0.2357 -0.2601
15181DOD     C389364   5.086  27.093   6.814 -0.2052  0.0388 -0.0363
15182DOD     C189365  11.130  22.156  22.990 -0.1858 -0.0850 -0.0828
15182DOD     C289366  10.990  22.574  22.910  0.0707  0.2367  0.0582
15182DOD     C389367  10.662  22.861  22.679 -0.0458  0.2518 -0.0636
15183DOD     C189368   7.584  26.769   7.367  0.0836 -0.2332 -0.0830
15183DOD     C289369   7.349  26.378   7.396  0.0758  0.0765  0.2724
15183DOD     C389370   7.486  25.956   7.535 -0.1829  0.0678  0.1914
15184DOD     C189371  28.392  19.693   0.656 -0.0108  0.0164 -0.2271
15184DOD     C289372  28.553  19.326   0.856 -0.0756  0.1299 -0.1070
15184DOD     C389373  28.536  18.859   1.047  0.2770  0.0354  0.1199
15185DOD     C189374   9.803  10.680  10.886 -0.4757  0.0130  0.0036
15185DOD     C289375   9.636  11.109  10.934 -0.3168 -0.4403 -0.0886
15185DOD     C389376   9.417  11.386  11.211  0.3806  0.0477  0.0169
15186DOD     C189377  23.510  24.072   3.521 -0.5366 -0.0258  0.2154
15186DOD     C289378  23.692  23.878   3.118 -0.1471 -0.0812 -0.1222
15186DOD     C389379  23.832  23.988   2.652 -0.1685 -0.1101  0.3043
15187DOD     C189380  14.698  28.698  25.009 -0.1527 -0.0251 -0.0904
15187DOD     C289381  14.841  29.153  24.900  0.0226  0.2193 -0.0821
15187DOD     C389382  15.277  29.322  24.856  0.0472 -0.1417 -0.1852
15188DOD     C189383  24.375  30.063  28.023 -0.1682  0.2321 -0.0955
15188DOD     C289384  24.688  29.902  27.771  0.0766  0.1233 -0.2316
15188DOD     C389385  25.021  29.567  27.840  0.3131 -0.1796 -0.1787
15189DOD     C189386  23.301  12.941  11.601  0.0450  0.2019 -0.1553
15189DOD     C289387  23.396  13.276  11.943 -0.0556 -0.0267  0.1730
15189DOD     C389388  23.651  13.626  12.035  0.0897 -0.4150 -0.0790
15190DOD     C189389   0.206  12.555   2.967  0.0912 -0.0628 -0.1325
15190DOD     C289390   0.630  12.339   2.900  0.2206  0.0870 -0.0779
15190DOD     C389391   1.055  12.302   2.818 -0.1251  0.1764 -0.0062
15191DOD     C189392  12.215  23.549   3.480  0.2370  0.0340 -0.0425
15191DOD     C289393  12.182  23.073   3.328 -0.0367 -0.2355 -0.3124
15191DOD     C389394  11.941  22.731   3.137  0.0140  0.3346 -0.0096
15192DOD     C189395  19.376  10.238  24.851 -0.2116 -0.2308  0.0104
15192DOD     C289396  19.199   9.930  24.539 -0.0738 -0.2423 -0.2590
15192DOD     C389397  19.266   9.571  24.227  0.1234  0.1179 -0.0251
15193DOD     C189398  15.328  22.053  11.176 -0.0757  0.2242 -0.2069
15193DOD     C289399  15.576  22.483  11.083  0.0977  0.3736  0.0637
15193DOD     C389400  15.753  22.642  10.633 -0.0713 -0.2066 -0.0567
15194DOD     C189401  19.932  11.935  14.810 -0.1060 -0.0638  0.0019
15194DOD     C289402  20.166  11.556  14.640  0.4652  0.0022 -0.0908
15194DOD     C389403  20.373  11.334  14.299  0.1897 -0.0433  0.1289
15195DOD     C189404  27.846  20.319  24.361 -0.1591 -0.0148  0.0974
15195DOD     C289405  27.687  20.701  24.484  0.3161  0.2981 -0.0332
15195DOD     C389406  27.569  21.133  24.601 -0.0703 -0.1260 -0.0981
15196DOD     C189407  21.000   6.513   0.471  0.4055 -0.0216 -0.5416
15196DOD     C289408  20.752   6.836   0.177 -0.0730  0.0590 -0.2237
15196DOD     C389409  20.430   6.714  30.214  0.1391 -0.3285  0.2506
15197DOD     C189410  26.835  28.241  25.832  0.0021 -0.0245  0.2728
15197DOD     C289411  27.164  28.286  25.456  0.3594  0.0578  0.0270
15197DOD     C389412  27.297  28.305  25.042  0.0134  0.1542  0.1760
15198DOD     C189413  22.173   9.292   2.683 -0.0295 -0.1156  0.0184
15198DOD     C289414  22.083   9.505   3.118  0.1118  0.2529  0.3388
15198DOD     C389415  22.108   9.989   3.260  0.2380  0.1014 -0.1132
15199DOD     C189416  25.250   7.566   3.081  0.0795 -0.0334  0.1099
15199DOD     C289417  25.433   7.743   3.457 -0.2539 -0.0057 -0.0185
15199DOD     C389418  25.746   7.836   3.792  0.0878  0.2473 -0.1035
15200DOD     C189419   6.114  11.529   8.427  0.1955 -0.0519 -0.0276
15200DOD     C289420   5.959  11.204   8.095 -0.0322  0.0694 -0.2681
15200DOD     C389421   5.871  10.841   7.759 -0.0465  0.0043 -0.1640
15201DOD     C189422  23.171  21.993  10.653 -0.0308  0.1423 -0.0048
15201DOD     C289423  23.355  21.967  11.096  0.0011 -0.1485  0.0786
15201DOD     C389424  23.681  22.126  11.402  0.0305 -0.1489  0.2081
15202DOD     C189425  12.140   1.191   5.069  0.0648  0.2669  0.1321
15202DOD     C289426  11.780   1.566   4.983 -0.0414 -0.0430  0.1333
15202DOD     C389427  11.576   1.945   5.085 -0.1063 -0.0035  0.1065
15203DOD     C189428  11.362  14.392  27.919 -0.0352 -0.4815 -0.3672
15203DOD     C289429  11.590  14.656  28.167 -0.3481  0.0014 -0.0679
15203DOD     C389430  11.912  14.932  28.341 -0.0957  0.0932 -0.1037
15204DOD     C189431  28.617  30.281   8.191 -0.2866 -0.1857 -0.1627
15204DOD     C289432  28.394   0.161   8.587 -0.1899  0.0845  0.1045
15204DOD     C389433  28.248   0.109   8.999 -0.1236  0.1628 -0.2595
15205DOD     C189434  27.733   6.753  17.832  0.1068 -0.2312  0.1144
15205DOD     C289435  27.452   7.098  17.731  0.0801  0.0341  0.1568
15205DOD     C389436  26.996   7.336  17.654 -0.2100  0.2176  0.1412
15206DOD     C189437   7.070   5.803   6.414 -0.1484  0.4410  0.2204
15206DOD     C289438   6.789   6.005   6.704  0.2762 -0.0182 -0.3718
15206DOD     C389439   6.630   6.140   7.107  0.1011 -0.3425 -0.0986
15207DOD     C189440  14.374  29.872   2.230  0.2603 -0.4222 -0.0724
15207DOD     C289441  14.558  29.589   2.569 -0.0178 -0.0474  0.2828
15207DOD     C389442  14.427  29.117   2.625 -0.0879  0.1598 -0.0258
15208DOD     C189443   9.236  27.716   2.162 -0.0715 -0.3054 -0.0586
15208DOD     C289444   9.609  27.708   1.930  0.2398 -0.0644 -0.0444
15208DOD     C389445  10.046  27.545   1.872  0.1811 -0.1329  0.2222
15209DOD     C189446   8.347   9.141  18.642 -0.0846  0.0815 -0.1618
15209DOD     C289447   8.122   8.870  18.248 -0.1779 -0.2400  0.3471
15209DOD     C389448   7.963   8.639  17.888 -0.1861  0.2421  0.1712
15210DOD     C189449  11.878   4.348  21.298  0.3152 -0.1635 -0.0748
15210DOD     C289450  11.730   4.394  20.840 -0.1759 -0.3648  0.2899
15210DOD     C389451  11.534   4.728  20.566  0.0400 -0.0228  0.0727
15211DOD     C189452  16.392  25.800  18.611 -0.1323 -0.0717 -0.1217
15211DOD     C289453  16.162  26.177  18.535  0.0023  0.0107 -0.3558
15211DOD     C389454  15.907  26.502  18.466 -0.0083  0.5047 -0.1759
15212DOD     C189455  18.259  20.199   9.298 -0.0152  0.1067 -0.2148
15212DOD     C289456  18.266  19.898   9.693 -0.1244 -0.1364 -0.1023
15212DOD     C389457  18.072  19.733  10.084 -0.1393 -0.0688 -0.0423
15213DOD     C189458   7.594  22.916  16.146 -0.0405 -0.2547 -0.1437
15213DOD     C289459   7.572  22.549  16.502  0.0616  0.0012 -0.2444
15213DOD     C389460   7.495  22.098  16.716 -0.3843  0.1123  0.0664
15214DOD     C189461  23.505   3.828   6.373 -0.0014  0.2666 -0.0487
15214DOD     C289462  23.283   4.147   6.092 -0.1649  0.2112  0.1430
15214DOD     C389463  23.205   4.017   5.621 -0.0069  0.1257 -0.1370
15215DOD     C189464  13.336   5.424  16.831 -0.1946  0.1983 -0.0315
15215DOD     C289465  13.274   4.992  17.030  0.0567 -0.0333 -0.1633
15215DOD     C389466  13.394   4.554  17.174 -0.0739 -0.1380 -0.2027
15216DOD     C189467  23.451  13.361  29.801 -0.1768 -0.0468  0.2613
15216DOD     C289468  23.644  13.765  29.886  0.1303  0.0443  0.0338
15216DOD     C389469  23.643  14.258  29.914  0.2951 -0.0191  0.3258
15217DOD     C189470   1.819  10.127   9.089 -0.1712 -0.0666 -0.1464
15217DOD     C289471   1.799   9.980   8.648  0.0481 -0.0708  0.2289
15217DOD     C389472   1.896   9.816   8.216  0.3525  0.0921 -0.0001
15218DOD     C189473   7.131  19.914  25.924  0.1175 -0.0323 -0.2152
15218DOD     C289474   7.355  19.506  25.969 -0.1967  0.3483  0.1199
15218DOD     C389475   7.308  19.167  26.266  0.0854  0.3661  0.3052
15219DOD     C189476   7.168  12.289  26.585  0.0343 -0.1243  0.3620
15219DOD     C289477   7.430  12.599  26.798 -0.0219 -0.1339  0.2747
15219DOD     C389478   7.540  12.966  27.112  0.0084 -0.0309 -0.0251
15220DOD     C189479  23.072  16.728  19.514 -0.1706 -0.0749  0.0629
15220DOD     C289480  22.680  16.760  19.879  0.0846  0.4805 -0.1309
15220DOD     C389481  22.383  16.935  20.242  0.2907  0.0349 -0.0751
15221DOD     C189482  13.520   6.440  20.117  0.1168  0.1478  0.1381
15221DOD     C289483  13.693   6.594  20.478 -0.0683  0.1540  0.3349
15221DOD     C389484  13.779   6.396  20.902 -0.2050  0.1871 -0.1665
15222DOD     C189485   1.385   5.580  25.660 -0.1756  0.0328 -0.2108
15222DOD     C289486   1.036   5.707  25.947  0.0686 -0.0282 -0.1573
15222DOD     C389487   0.699   5.596  26.190  0.4322 -0.0362  0.3448
15223DOD     C189488  11.779  22.383  16.033  0.1880  0.0614 -0.0574
15223DOD     C289489  11.652  22.856  15.955 -0.2032  0.2753  0.3120
15223DOD     C389490  11.843  23.225  15.765 -0.1808 -0.1258  0.0950
15224DOD     C189491   3.680   6.676  27.247 -0.5045 -0.4015 -0.0973
15224DOD     C289492   3.549   6.914  26.835  0.2029  0.0851  0.0003
15224DOD     C389493   3.561   6.908  26.402 -0.1267  0.2415 -0.2983
15225DOD     C189494   1.900   3.445  24.124  0.2408  0.4842 -0.1989
15225DOD     C289495   1.525   3.770  24.079  0.0308 -0.0818  0.0961
15225DOD     C389496   1.210   4.024  24.272 -0.0227 -0.2918  0.0531
15226DOD     C189497   3.781  27.426  20.457 -0.0415 -0.0589  0.0685
15226DOD     C289498   3.356  27.272  20.717  0.3291 -0.2925 -0.0995
15226DOD     C389499   3.261  26.889  20.996  0.0247 -0.3665  0.0723
15227DOD     C189500  12.782  27.673   7.116 -0.1884  0.2835 -0.1922
15227DOD     C289501  13.225  27.862   7.130  0.2852  0.0329 -0.2580
15227DOD     C389502  13.477  28.030   7.461 -0.2079  0.1016 -0.1017
15228DOD     C189503  12.752  21.345  11.682  0.0004 -0.1660  0.1805
15228DOD     C289504  12.521  21.512  12.048 -0.0649  0.0795  0.0430
15228DOD     C389505  12.304  21.840  12.300  0.0847  0.0735 -0.1310
15229DOD     C189506   0.056  14.129  20.896 -0.0483  0.1094 -0.0173
15229DOD     C289507   0.195  14.051  21.318  0.2148  0.2159 -0.1471
15229DOD     C389508   0.444  14.321  21.600 -0.2256 -0.3317 -0.3666
15230DOD     C189509  12.427   3.558  25.925  0.0766  0.2796  0.1421
15230DOD     C289510  12.878   3.510  25.769  0.1833 -0.3173 -0.0472
15230DOD     C389511  13.301   3.394  25.737 -0.2761 -0.1340  0.0373
15231DOD     C189512   2.297   8.347  25.653  0.1117 -0.2585  0.0457
15231DOD     C289513   2.098   8.603  26.018 -0.1416 -0.0515  0.1489
15231DOD     C389514   1.849   8.869  26.335  0.1909  0.0176  0.1643
15232DOD     C189515  20.383   1.060   6.241 -0.2500  0.0067  0.1545
15232DOD     C289516  20.330   1.513   6.177  0.0399 -0.1924 -0.0615
15232DOD     C389517  20.567   1.880   6.325  0.2944  0.2235 -0.2534
15233DOD     C189518  26.606  13.961   8.141  0.1915  0.2643 -0.0832
15233DOD     C289519  26.243  13.699   8.049  0.1158 -0.1239 -0.2885
15233DOD     C389520  26.101  13.287   7.913 -0.2748  0.1334 -0.1360
15234DOD     C189521  24.438  26.088  10.280 -0.0141 -0.0654  0.5473
15234DOD     C289522  24.498  26.515  10.085 -0.1768  0.0438  0.0846
15234DOD     C389523  24.532  26.890   9.826 -0.2279 -0.1984  0.3397
15235DOD     C189524  22.181  24.135   1.278 -0.2404  0.2834 -0.4696
15235DOD     C289525  21.795  24.133   1.529 -0.2350 -0.1004 -0.3412
15235DOD     C389526  21.578  24.144   1.960  0.0504 -0.1481 -0.1442
15236DOD     C189527   8.676   5.391  25.046  0.0539 -0.3948 -0.1060
15236DOD     C289528   8.724   5.244  25.451  0.0197 -0.0591 -0.2106
15236DOD     C389529   8.916   5.357  25.841  0.0283  0.0792  0.0915
15237DOD     C189530  23.927  18.928  16.297  0.2458  0.3192  0.2411
15237DOD     C289531  23.555  19.139  16.099 -0.1069 -0.2498  0.1110
15237DOD     C389532  23.164  19.281  16.013  0.0948  0.0090  0.2238
15238DOD     C189533  30.238  23.785  14.668  0.1478  0.0871  0.0140
15238DOD     C289534  29.993  24.148  14.884 -0.2347 -0.2353  0.3363
15238DOD     C389535  29.823  24.510  14.675  0.2418 -0.1787 -0.0815
15239DOD     C189536  22.032   6.202   9.355  0.1733  0.0123  0.2822
15239DOD     C289537  21.687   6.213   9.646  0.2080 -0.1164  0.2075
15239DOD     C389538  21.297   6.378   9.802  0.0615 -0.1699  0.3938
15240DOD     C189539   1.476  30.091   3.980  0.0658 -0.1501  0.1090
15240DOD     C289540   1.336  29.663   3.839 -0.0449  0.2558 -0.4849
15240DOD     C389541   1.106  29.252   3.777 -0.1504 -0.0814  0.1288
15241DOD     C189542  13.562  30.268  27.133  0.3069  0.0807  0.2643
15241DOD     C289543  13.964  30.324  27.424 -0.0087  0.2096 -0.0691
15241DOD     C389544  14.108  30.214  27.854  0.0685  0.0144  0.1142
15242DOD     C189545  26.052  22.334  20.553  0.2215  0.2076  0.1307
15242DOD     C289546  25.884  21.884  20.459  0.0877 -0.1358 -0.2636
15242DOD     C389547  25.622  21.548  20.291  0.3621  0.0214  0.2031
15243DOD     C189548  25.070  10.967  17.423 -0.2581 -0.1030  0.1028
15243DOD     C289549  24.758  10.975  17.151  0.0202  0.1554 -0.0050
15243DOD     C389550  24.556  11.074  16.759  0.2772  0.0587 -0.0614
15244DOD     C189551  16.694   9.414   5.664  0.0945 -0.0267  0.0379
15244DOD     C289552  16.986   9.136   5.954  0.1085  0.1113 -0.0928
15244DOD     C389553  17.056   8.735   6.062  0.0307  0.2229 -0.3612
15245DOD     C189554   6.186  15.844  17.367 -0.1448  0.6796 -0.0675
15245DOD     C289555   6.014  16.052  16.956 -0.1448  0.1291 -0.0315
15245DOD     C389556   5.657  16.238  16.741  0.4415  0.0219  0.5162
15246DOD     C189557  14.020  12.457  28.053  0.0577  0.0433 -0.0940
15246DOD     C289558  13.949  12.683  28.438  0.1619  0.0105 -0.1895
15246DOD     C389559  14.116  12.788  28.843 -0.1066 -0.1258 -0.2715
15247DOD     C189560   9.917  23.854  18.963  0.0937  0.2416 -0.0607
15247DOD     C289561   9.947  23.574  18.574  0.3359  0.3127  0.2768
15247DOD     C389562  10.082  23.477  18.093 -0.1163 -0.2521 -0.1115
15248DOD     C189563  16.859   8.015  23.417  0.0689 -0.1337  0.3032
15248DOD     C289564  17.281   7.882  23.418 -0.1788 -0.1777  0.0215
15248DOD     C389565  17.654   7.889  23.074 -0.2313  0.1703  0.0535
15249DOD     C189566   4.099  21.415   3.512 -0.2233 -0.1059 -0.3018
15249DOD     C289567   3.715  21.663   3.404  0.3518  0.0430  0.0035
15249DOD     C389568   3.296  21.621   3.673  0.3309 -0.1346  0.0731
15250DOD     C189569  12.119  28.943  19.785  0.0560 -0.0191 -0.0657
15250DOD     C289570  12.206  28.800  20.245 -0.0326  0.0528  0.3749
15250DOD     C389571  12.530  28.904  20.540 -0.0494 -0.2776  0.1987
15251DOD     C189572   8.769   4.800  13.668  0.0935 -0.6165 -0.1958
15251DOD     C289573   8.906   5.181  13.599  0.0635  0.0620  0.1566
15251DOD     C389574   8.879   5.664  13.751 -0.2223  0.0947 -0.0983
15252DOD     C189575  14.585   9.177   7.895 -0.0486 -0.0386 -0.2613
15252DOD     C289576  14.565   9.487   7.541 -0.0614 -0.3820  0.2381
15252DOD     C389577  14.538   9.856   7.198 -0.2397  0.0525 -0.4160
15253DOD     C189578  19.620  12.603  22.607 -0.1218 -0.2055 -0.0608
15253DOD     C289579  19.989  12.739  22.412 -0.0191  0.0791  0.1056
15253DOD     C389580  20.307  12.641  22.010  0.1150 -0.1723 -0.0699
15254DOD     C189581   7.689   6.189  18.257  0.1606 -0.0095 -0.0106
15254DOD     C289582   7.657   5.770  18.014  0.2824  0.1055 -0.0730
15254DOD     C389583   7.926   5.587  17.635  0.1341 -0.0438  0.0042
15255DOD     C189584  21.408   2.706   4.550  0.4312  0.0004 -0.1619
15255DOD     C289585  20.924   2.666   4.376  0.0952 -0.2872 -0.0360
15255DOD     C389586  20.551   2.647   4.714 -0.0708  0.0574  0.0044
15256DOD     C189587  27.301   1.733  12.489  0.1613  0.1616 -0.2703
15256DOD     C289588  27.025   1.606  12.863 -0.0680  0.0328  0.1394
15256DOD     C389589  26.780   1.706  13.263  0.0547 -0.0365  0.0475
15257DOD     C189590  13.343   3.547   0.650 -0.1425  0.1442  0.0374
15257DOD     C289591  13.693   3.861   0.688  0.0098 -0.0559  0.1118
15257DOD     C389592  14.132   3.940   0.796  0.1059  0.1532  0.0182
15258DOD     C189593  17.649  17.353   3.552  0.0831  0.2250  0.1239
15258DOD     C289594  17.341  17.117   3.322  0.0891  0.1720  0.1915
15258DOD     C389595  17.298  16.762   2.983  0.0197  0.0759  0.0225
15259DOD     C189596   1.489  26.311   4.532 -0.1369 -0.0952 -0.1215
15259DOD     C289597   1.324  26.479   4.141  0.0353  0.0611 -0.0406
15259DOD     C389598   1.042  26.683   3.802 -0.1733 -0.1917  0.2633
15260DOD     C189599  15.999  28.172  12.718  0.1196  0.2097 -0.0028
15260DOD     C289600  16.198  27.784  12.554 -0.0034 -0.0236 -0.3952
15260DOD     C389601  16.547  27.552  12.545 -0.1853 -0.1643  0.0186
15261DOD     C189602  11.098   8.854   0.544  0.1656  0.2665 -0.1936
15261DOD     C289603  11.382   9.174   0.370  0.2745  0.1171 -0.3419
15261DOD     C389604  11.755   9.345   0.562 -0.1742  0.1193 -0.1790
15262DOD     C189605  21.070   6.579  20.861 -0.1496 -0.2320  0.0631
15262DOD     C289606  21.491   6.722  20.635 -0.0500  0.0591 -0.1713
15262DOD     C389607  21.877   6.934  20.543 -0.2948  0.1770  0.0158
15263DOD     C189608  19.791  14.286   6.829  0.1510  0.2343  0.1523
15263DOD     C289609  19.701  14.314   6.380 -0.2625  0.1034 -0.1142
15263DOD     C389610  20.033  14.548   6.054  0.0854 -0.0822  0.1155
15264DOD     C189611  27.400  13.943  14.071  0.1125  0.1621  0.0767
15264DOD     C289612  27.662  14.113  13.742  0.1174 -0.0404 -0.0122
15264DOD     C389613  27.938  14.274  13.388 -0.0427  0.0655  0.1357
15265DOD     C189614   9.575  28.953  12.145 -0.3672 -0.1502 -0.2519
15265DOD     C289615   9.775  29.068  12.499  0.1049 -0.0008  0.1249
15265DOD     C389616  10.171  28.910  12.765 -0.1726 -0.1693  0.1250
15266DOD     C189617  25.061   7.115   9.447  0.0776 -0.0952 -0.2252
15266DOD     C289618  25.390   7.219   9.726  0.0663 -0.2773  0.0494
15266DOD     C389619  25.821   7.353   9.617 -0.3837 -0.0531  0.0955
15267DOD     C189620  25.226  28.633  14.621 -0.1202 -0.1139  0.2873
15267DOD     C289621  24.757  28.615  14.710  0.1956 -0.0953  0.3149
15267DOD     C389622  24.328  28.784  14.603  0.1360 -0.3448  0.1517
15268DOD     C189623  23.357  18.675  10.894 -0.1136 -0.1211 -0.2287
15268DOD     C289624  23.633  18.891  11.213  0.1013 -0.1336  0.2159
15268DOD     C389625  23.610  18.819  11.650 -0.1471  0.0757 -0.0676
15269DOD     C189626  10.238  23.424   7.142  0.0956 -0.0536  0.0967
15269DOD     C289627  10.511  23.046   6.982 -0.1373  0.1341  0.1080
15269DOD     C389628  10.881  22.897   6.762 -0.1635  0.1070 -0.0399
15270DOD     C189629   2.954   1.309   1.624  0.1242 -0.2060  0.0852
15270DOD     C289630   3.249   1.072   1.914 -0.0701  0.1046  0.2705
15270DOD     C389631   3.570   1.262   2.115 -0.0873 -0.2602  0.1082
15271DOD     C189632  15.739  12.362  25.211 -0.2037 -0.1279  0.0672
15271DOD     C289633  16.080  12.486  25.018  0.4544 -0.1600  0.2337
15271DOD     C389634  16.510  12.315  24.877 -0.1904  0.1621  0.1296
15272DOD     C189635  14.084  28.875  10.779  0.3192 -0.0758 -0.0660
15272DOD     C289636  14.517  28.684  10.784 -0.0690  0.0619 -0.0981
15272DOD     C389637  14.748  28.280  10.802 -0.2999  0.0030 -0.2029
15273DOD     C189638   8.270  22.759  21.238 -0.0398  0.3413  0.0119
15273DOD     C289639   8.305  22.902  21.696  0.5176  0.0379  0.1898
15273DOD     C389640   8.269  23.353  21.939  0.0239  0.0854  0.3414
15274DOD     C189641   5.881   1.687  29.325 -0.2298  0.0126  0.2176
15274DOD     C289642   5.699   2.036  29.124  0.2148 -0.1604 -0.0399
15274DOD     C389643   5.906   2.352  28.847  0.1469 -0.0819  0.2236
15275DOD     C189644  14.704  12.128  22.179  0.3511  0.0519  0.1573
15275DOD     C289645  14.711  11.670  22.047 -0.0041  0.0266  0.2191
15275DOD     C389646  14.475  11.492  21.646 -0.0698 -0.1696 -0.2269
15276DOD     C189647  26.455   4.170  27.465 -0.0601  0.0907  0.0363
15276DOD     C289648  26.387   4.207  26.962 -0.0345 -0.0134 -0.0257
15276DOD     C389649  26.477   4.196  26.502  0.0040  0.2750  0.3871
15277DOD     C189650   7.345  22.286   4.745 -0.2888 -0.0020  0.0928
15277DOD     C289651   7.712  22.138   4.538 -0.1851  0.2393  0.1510
15277DOD     C389652   7.994  21.867   4.267  0.0394  0.1724 -0.4730
15278DOD     C189653  29.960   1.816  17.665  0.0940 -0.2176 -0.1574
15278DOD     C289654  29.875   1.364  17.646  0.2748 -0.4302  0.1438
15278DOD     C389655  29.877   0.976  17.970  0.0101 -0.0908  0.0331
15279DOD     C189656   8.360  16.055  18.039  0.0217  0.2762  0.0072
15279DOD     C289657   8.365  15.583  17.930  0.0212  0.3411 -0.1114
15279DOD     C389658   8.427  15.274  18.285  0.0868  0.0173 -0.1522
15280DOD     C189659   5.502   1.309  14.352 -0.0522 -0.3030 -0.0250
15280DOD     C289660   5.138   1.126  14.128  0.0809 -0.2434 -0.0915
15280DOD     C389661   4.724   1.090  13.893  0.0652 -0.0520  0.0471
15281DOD     C189662  11.556   0.130  20.435 -0.0630 -0.1220 -0.1521
15281DOD     C289663  11.101   0.064  20.707  0.0371  0.0415 -0.2661
15281DOD     C389664  10.651   0.199  20.724 -0.5175 -0.0976  0.2845
15282DOD     C189665  24.976  25.986  18.815  0.0039  0.0311 -0.0181
15282DOD     C289666  24.737  26.321  18.511 -0.1590 -0.2939 -0.2877
15282DOD     C389667  24.896  26.728  18.379  0.1221  0.0751 -0.0899
15283DOD     C189668  18.204  14.218   1.237  0.1734  0.3407 -0.0253
15283DOD     C289669  18.167  14.129   0.738 -0.1816 -0.1499 -0.2554
15283DOD     C389670  18.212  13.691   0.502 -0.0733 -0.0892 -0.1189
15284DOD     C189671  19.678  11.078  26.398 -0.0445 -0.2110 -0.2059
15284DOD     C289672  19.459  10.698  26.206 -0.1644 -0.0044 -0.3318
15284DOD     C389673  19.532  10.334  25.891 -0.1676 -0.1002  0.0072
15285DOD     C189674  25.511  17.750  22.787  0.0588 -0.2187  0.1997
15285DOD     C289675  25.620  17.670  23.237 -0.2002 -0.2572  0.0239
15285DOD     C389676  25.605  17.829  23.666 -0.0355 -0.0605 -0.2128
15286DOD     C189677  26.179  16.844  20.999  0.1129 -0.2855  0.1008
15286DOD     C289678  26.412  17.067  21.349 -0.3060  0.1409  0.2266
15286DOD     C389679  26.457  17.348  21.756  0.1474  0.0122  0.0643
15287DOD     C189680   3.608  15.537   7.037  0.2200 -0.0232  0.0163
15287DOD     C289681   3.588  15.955   7.199 -0.0803 -0.2312 -0.0512
15287DOD     C389682   3.276  16.147   7.508  0.0070 -0.0687 -0.0822
15288DOD     C189683  19.883  15.636   7.270  0.1644 -0.1128  0.1221
15288DOD     C289684  20.186  15.267   7.329 -0.1909 -0.3530 -0.3233
15288DOD     C389685  20.465  14.961   7.214 -0.0569  0.0487  0.0815
15289DOD     C189686  27.891  19.828  28.246  0.0548 -0.3732  0.3396
15289DOD     C289687  27.717  19.450  28.026 -0.0691 -0.0604  0.0980
15289DOD     C389688  27.473  19.092  27.798 -0.2715 -0.1298  0.2024
15290DOD     C189689  13.159  29.706  18.901  0.1170  0.1107  0.1952
15290DOD     C289690  13.549  29.576  18.703  0.1917  0.0978  0.0179
15290DOD     C389691  13.743  29.781  18.282  0.0370 -0.2558  0.1409
15291DOD     C189692   2.804  20.209  20.253 -0.1966  0.0160 -0.1062
15291DOD     C289693   3.151  20.529  20.305  0.0961 -0.2835 -0.1923
15291DOD     C389694   3.459  20.580  20.631 -0.2127 -0.3598 -0.0733
15292DOD     C189695  16.366   6.132  24.731  0.0337 -0.1722  0.2220
15292DOD     C289696  16.494   6.593  24.713  0.2565 -0.0580 -0.1542
15292DOD     C389697  16.207   6.973  24.550 -0.2644 -0.0120 -0.1376
15293DOD     C189698  24.394  30.086   1.256 -0.0057  0.1980  0.0210
15293DOD     C289699  24.197   0.168   1.195  0.0890 -0.1589 -0.0113
15293DOD     C389700  24.018   0.627   1.116 -0.0702  0.4634 -0.1512
15294DOD     C189701  29.786  28.263   5.106 -0.2512 -0.0377  0.0420
15294DOD     C289702  29.687  28.737   5.248  0.1847 -0.0885  0.0764
15294DOD     C389703  29.345  29.098   5.286  0.0447  0.0360 -0.0564
15295DOD     C189704  14.404  20.528  20.261  0.3286 -0.3228  0.1945
15295DOD     C289705  14.721  20.807  20.473 -0.3735  0.1611 -0.0284
15295DOD     C389706  15.142  20.807  20.708  0.1611  0.0450 -0.0797
15296DOD     C189707   2.131  23.502  28.273 -0.1256  0.1831 -0.0305
15296DOD     C289708   2.326  23.498  27.878  0.3897 -0.2043  0.0557
15296DOD     C389709   2.365  23.165  27.490 -0.2665  0.0456  0.1197
15297DOD     C189710  21.180  17.231   0.783  0.1374 -0.1589 -0.0924
15297DOD     C289711  21.580  17.288   1.040  0.1430 -0.0854 -0.1943
15297DOD     C389712  21.873  17.443   1.372 -0.2674  0.1339  0.2023
15298DOD     C189713  21.500  29.026  28.658  0.1076  0.2621  0.1452
15298DOD     C289714  21.123  29.226  28.722 -0.1089  0.0664  0.1252
15298DOD     C389715  20.819  29.359  28.999  0.0325 -0.0586 -0.4299
15299DOD     C189716   6.819   1.640  25.736  0.1227  0.1240 -0.0840
15299DOD     C289717   7.239   1.765  25.893 -0.1478 -0.2954 -0.1721
15299DOD     C389718   7.528   1.940  25.530  0.1150 -0.1145  0.0031
15300DOD     C189719  27.320  22.814  16.173  0.4291 -0.0155  0.0679
15300DOD     C289720  27.769  22.718  16.106 -0.1748 -0.3488 -0.4083
15300DOD     C389721  28.091  22.499  15.882  0.2455 -0.1480 -0.1309
15301DOD     C189722  15.123  11.052  29.455 -0.1303 -0.0191  0.1723
15301DOD     C289723  15.207  10.649  29.284  0.2457 -0.0123 -0.1021
15301DOD     C389724  15.563  10.288  29.308  0.0728 -0.1717  0.0438
15302DOD     C189725   0.759  27.148   6.699  0.0040  0.0241 -0.1202
15302DOD     C289726   0.931  27.350   7.032  0.1588 -0.2558  0.1787
15302DOD     C389727   1.278  27.434   7.312 -0.0857  0.2163  0.3728
15303DOD     C189728  15.899  23.363  21.935 -0.1200 -0.1892  0.1792
15303DOD     C289729  15.651  23.667  22.285 -0.0038 -0.0961  0.2636
15303DOD     C389730  15.369  23.749  22.686  0.1943 -0.0635  0.5759
15304DOD     C189731  20.444  24.546  17.872  0.0493 -0.0691 -0.0126
15304DOD     C289732  20.830  24.543  17.714  0.1401  0.0019 -0.0404
15304DOD     C389733  21.327  24.520  17.626  0.2053 -0.1292 -0.3998
15305DOD     C189734  17.258   6.212   1.886  0.0549  0.2081 -0.0815
15305DOD     C289735  17.687   5.952   1.972 -0.1015  0.0105  0.1151
15305DOD     C389736  18.176   5.946   2.020  0.0583 -0.0387  0.1631
15306DOD     C189737   7.169  20.671   0.588  0.1569  0.0884  0.1335
15306DOD     C289738   7.528  20.710   0.338 -0.1324 -0.2734  0.1329
15306DOD     C389739   7.794  21.060   0.099  0.0007 -0.1333 -0.1362
15307DOD     C189740  16.076  10.919  21.609  0.1761  0.3928 -0.3976
15307DOD     C289741  15.860  10.733  21.207 -0.0515 -0.3099 -0.3086
15307DOD     C389742  15.782  10.354  20.925 -0.3244  0.0699 -0.1500
15308DOD     C189743  22.947  15.385  15.517 -0.0106  0.1616 -0.0923
15308DOD     C289744  23.027  15.287  15.964  0.0027 -0.2668 -0.0087
15308DOD     C389745  22.999  15.102  16.363  0.0358 -0.1362 -0.1573
15309DOD     C189746   7.303  28.164  17.029  0.0679  0.0165 -0.0841
15309DOD     C289747   7.535  27.872  17.224 -0.4545 -0.1732 -0.2169
15309DOD     C389748   7.847  27.562  17.400  0.2507 -0.2676 -0.3233
15310DOD     C189749   9.894   1.714  12.451 -0.0485  0.0995 -0.0899
15310DOD     C289750   9.753   1.398  12.175  0.2890  0.0167  0.1467
15310DOD     C389751   9.375   1.192  11.978 -0.1707 -0.0405 -0.3999
15311DOD     C189752  19.675  26.584  15.944 -0.2484 -0.2000 -0.0108
15311DOD     C289753  20.145  26.784  16.029  0.0925 -0.1372  0.2828
15311DOD     C389754  20.351  27.104  15.783  0.0267  0.1180  0.2530
15312DOD     C189755   7.404   1.039   5.822 -0.0824  0.1270  0.2858
15312DOD     C289756   6.921   1.011   5.790 -0.0324  0.0145  0.0532
15312DOD     C389757   6.875   1.084   5.341 -0.1548  0.1098 -0.0269
15313DOD     C189758  24.775  15.563  26.943  0.1231  0.1131 -0.2111
15313DOD     C289759  25.127  15.443  26.670 -0.0278 -0.1696 -0.0166
15313DOD     C389760  25.503  15.293  26.458 -0.1349 -0.1159 -0.0231
15314DOD     C189761   2.042   7.989  12.460 -0.1031 -0.0075  0.0941
15314DOD     C289762   2.034   8.175  12.881 -0.2042  0.1426 -0.2315
15314DOD     C389763   1.794   8.405  13.247 -0.1880 -0.0017  0.0380
15315DOD     C189764   2.887   1.335  14.908  0.0215 -0.3819  0.0532
15315DOD     C289765   2.890   1.681  14.546  0.3121 -0.0326  0.1839
15315DOD     C389766   2.807   1.726  14.088  0.0113 -0.0129  0.0722
15316DOD     C189767  29.863   1.509  27.139 -0.1395 -0.1477 -0.4696
15316DOD     C289768  30.302   1.567  27.370 -0.0457 -0.3123  0.2638
15316DOD     C389769   0.224   1.409  27.006  0.4345 -0.1948  0.1818
15317DOD     C189770  21.004  17.109  21.806  0.2396 -0.1126  0.1552
15317DOD     C289771  20.785  17.484  21.684  0.2057 -0.0196  0.0275
15317DOD     C389772  20.456  17.734  21.862 -0.2492  0.1283  0.0690
15318DOD     C189773  27.974  15.998  11.820  0.0983 -0.1778 -0.1449
15318DOD     C289774  27.906  15.608  11.504 -0.0808 -0.1628 -0.2175
15318DOD     C389775  27.631  15.216  11.287 -0.0153 -0.3484 -0.2434
15319DOD     C189776   0.139   7.860  14.859 -0.1632  0.0867 -0.0035
15319DOD     C289777  30.050   7.687  15.046  0.0161 -0.0124  0.0393
15319DOD     C389778  29.736   7.533  15.325  0.1263 -0.4083  0.0047
15320DOD     C189779  26.942   1.415  14.043  0.0929  0.2933  0.0580
15320DOD     C289780  26.728   1.866  14.146 -0.1075 -0.3581  0.0455
15320DOD     C389781  26.543   2.218  13.912 -0.3138 -0.1566  0.1607
15321DOD     C189782  19.359  23.708   3.146 -0.1750  0.0382  0.0865
15321DOD     C289783  19.094  23.869   2.777  0.0628 -0.0884  0.2398
15321DOD     C389784  18.814  24.102   2.453  0.0073  0.2142  0.2334
15322DOD     C189785   0.246  27.060   3.539  0.0251  0.1212  0.1270
15322DOD     C289786   0.644  26.894   3.332 -0.2927 -0.3604 -0.1037
15322DOD     C389787   1.132  26.859   3.273 -0.0884 -0.5039  0.2055
15323DOD     C189788  22.350  25.954   2.836 -0.1850  0.1138 -0.4056
15323DOD     C289789  21.987  25.878   2.526  0.2803 -0.2737  0.1259
15323DOD     C389790  21.576  26.139   2.391  0.2120  0.0342  0.0309
15324DOD     C189791   2.337  14.571   5.341 -0.3792  0.3560  0.0112
15324DOD     C289792   2.034  14.459   4.992 -0.0192 -0.1228 -0.1113
15324DOD     C389793   1.745  14.428   4.614  0.0587  0.3435  0.1089
15325DOD     C189794  11.543   5.950  13.621  0.0012  0.0523 -0.0831
15325DOD     C289795  11.961   5.744  13.402 -0.2962 -0.0569 -0.1610
15325DOD     C389796  12.360   5.863  13.488 -0.0603 -0.1234  0.0861
15326DOD     C189797  16.335  23.900  11.677  0.1137 -0.0995  0.1427
15326DOD     C289798  16.566  24.211  11.366 -0.0262 -0.0160 -0.0789
15326DOD     C389799  16.809  24.210  10.980 -0.1155 -0.0086 -0.0046
15327DOD     C189800   3.994   1.074  10.117 -0.3273  0.1011 -0.1636
15327DOD     C289801   4.304   1.435  10.138 -0.1928  0.1661  0.1385
15327DOD     C389802   4.437   1.787   9.926 -0.0872 -0.1340 -0.2066
15328DOD     C189803  12.100   2.280   4.911 -0.1088  0.0896 -0.1369
15328DOD     C289804  12.277   1.867   4.884  0.1806  0.3714 -0.1033
15328DOD     C389805  12.254   1.617   5.256 -0.0888  0.1191 -0.1858
15329DOD     C189806  15.681  15.196  13.222  0.2902 -0.2193  0.1887
15329DOD     C289807  15.864  14.758  13.142 -0.1451 -0.0905  0.0073
15329DOD     C389808  15.687  14.315  13.034  0.2320  0.0440  0.3101
15330DOD     C189809   0.265   3.379   0.133  0.0964  0.1017 -0.1872
15330DOD     C289810   0.454   3.664  30.135 -0.1974  0.0151  0.1886
15330DOD     C389811   0.313   3.826  29.731  0.1096  0.0514 -0.1244
15331DOD     C189812   3.409  25.390   7.153  0.0521 -0.2095 -0.2247
15331DOD     C289813   3.610  25.572   7.505  0.3303 -0.1696  0.1451
15331DOD     C389814   3.606  26.007   7.557  0.0101  0.2885 -0.1531
15332DOD     C189815  14.813  14.993   9.253  0.4326  0.0099 -0.0248
15332DOD     C289816  14.458  14.674   9.204 -0.1138  0.1354 -0.3644
15332DOD     C389817  14.172  14.275   9.333 -0.0186 -0.3572 -0.0631
15333DOD     C189818  22.131  24.054   7.399  0.0645  0.2210 -0.0018
15333DOD     C289819  22.367  24.445   7.168 -0.1656  0.0227  0.5930
15333DOD     C389820  22.260  24.861   6.963  0.1121 -0.0290 -0.1718
15334DOD     C189821  15.794  15.021  12.313  0.1062 -0.0062 -0.2991
15334DOD     C289822  15.418  15.252  12.481 -0.0484 -0.6612 -0.0641
15334DOD     C389823  15.069  15.527  12.483  0.3299 -0.0139  0.0047
15335DOD     C189824  22.068   2.759  12.431 -0.3249 -0.0252 -0.1930
15335DOD     C289825  21.750   2.441  12.388 -0.3768  0.1179 -0.0243
15335DOD     C389826  21.378   2.086  12.249 -0.1197  0.0779 -0.0180
15336DOD     C189827  17.674  10.031  17.490 -0.0693  0.4687 -0.0319
15336DOD     C289828  17.766   9.578  17.767  0.1199  0.0220  0.1503
15336DOD     C389829  17.612   9.520  18.214 -0.1840 -0.2206 -0.1452
15337DOD     C189830  25.621   8.025   7.927  0.0797  0.4594 -0.1163
15337DOD     C289831  25.508   8.530   8.064 -0.1970 -0.1552 -0.3564
15337DOD     C389832  25.675   8.953   7.952  0.2638 -0.0339  0.0816
15338DOD     C189833   2.907  25.600   8.165 -0.2185  0.1721 -0.0830
15338DOD     C289834   3.016  25.229   7.932 -0.1912  0.2668  0.0909
15338DOD     C389835   2.920  24.822   7.693 -0.0951  0.0494  0.2942
15339DOD     C189836  20.791  25.486  12.240 -0.1255  0.0027 -0.1790
15339DOD     C289837  21.034  25.887  12.341 -0.2089  0.0697  0.0636
15339DOD     C389838  21.510  25.943  12.444  0.2144  0.0105  0.1320
15340DOD     C189839  27.524   2.310   6.961  0.0507 -0.2379  0.1249
15340DOD     C289840  27.253   2.041   7.161 -0.1826  0.0680 -0.3992
15340DOD     C389841  26.869   1.737   7.172 -0.0927 -0.0868 -0.1778
15341DOD     C189842   6.154  28.633  14.061 -0.0808 -0.1206 -0.1173
15341DOD     C289843   5.695  28.572  14.180 -0.1285  0.4109  0.0321
15341DOD     C389844   5.395  28.392  14.505 -0.3546  0.0974 -0.0532
15342DOD     C189845  10.371  24.043   4.038  0.0617  0.0769  0.1791
15342DOD     C289846  10.677  24.081   4.379 -0.1743  0.0574  0.3669
15342DOD     C389847  10.849  24.285   4.695 -0.0414 -0.2837 -0.1568
15343DOD     C189848  18.801   5.881   5.872  0.0641  0.1870 -0.0426
15343DOD     C289849  18.468   5.545   5.822 -0.0179 -0.1257  0.2574
15343DOD     C389850  18.615   5.048   5.721  0.3021 -0.2627 -0.1410
15344DOD     C189851  17.666  23.186  29.522  0.0689  0.0321 -0.0558
15344DOD     C289852  17.983  22.944  29.333  0.2205  0.1525  0.1122
15344DOD     C389853  18.214  22.601  29.223 -0.2065 -0.1323  0.1588
15345DOD     C189854   8.987  30.251  22.664 -0.0679  0.2248  0.0253
15345DOD     C289855   9.269   0.164  22.926 -0.0351  0.1122  0.0434
15345DOD     C389856   9.658   0.481  22.907  0.2671  0.4830  0.1513
15346DOD     C189857  26.603  13.917  17.146 -0.3205 -0.1398  0.0147
15346DOD     C289858  26.795  13.609  17.495 -0.3206 -0.0967 -0.0981
15346DOD     C389859  26.539  13.267  17.681  0.1921  0.1264 -0.2417
15347DOD     C189860  28.983  15.576  26.608  0.2307 -0.3468 -0.3757
15347DOD     C289861  29.182  15.433  26.185 -0.3007  0.0665  0.0258
15347DOD     C389862  29.526  15.164  26.079 -0.0309 -0.1708  0.0880
15348DOD     C189863  13.295  24.183   0.900 -0.0213  0.3293  0.0197
15348DOD     C289864  13.639  24.374   0.622 -0.3162 -0.0725 -0.1902
15348DOD     C389865  13.879  24.303   0.197  0.1634  0.0535  0.2017
15349DOD     C189866  15.549   1.535   5.801  0.0278  0.0364 -0.0373
15349DOD     C289867  15.680   1.174   6.086  0.2385  0.2166  0.1261
15349DOD     C389868  15.791   0.746   5.932  0.0204 -0.0305  0.0726
15350DOD     C189869  28.251  23.171  19.858 -0.2694 -0.0682  0.0120
15350DOD     C289870  28.605  23.457  19.662  0.3260  0.4912  0.1508
15350DOD     C389871  29.049  23.488  19.637 -0.1457 -0.0393 -0.2968
15351DOD     C189872   9.810   0.173  10.186  0.0204 -0.0215 -0.0685
15351DOD     C289873   9.726  30.166   9.810 -0.0287 -0.0355 -0.2648
15351DOD     C389874   9.656  29.872   9.424  0.0297  0.1485  0.3399
15352DOD     C189875   7.114  18.328   4.908  0.1614 -0.3356 -0.1388
15352DOD     C289876   6.788  18.652   4.871  0.1602 -0.2376  0.0725
15352DOD     C389877   6.640  18.779   5.295 -0.2069  0.2901  0.1508
15353DOD     C189878   2.144  19.297  11.003  0.2351  0.3325  0.2629
15353DOD     C289879   1.991  19.473  10.621  0.2003  0.1444 -0.2487
15353DOD     C389880   1.934  19.253  10.181 -0.0530  0.2215 -0.0557
15354DOD     C189881   8.976  26.218  16.197  0.0140 -0.0417  0.1421
15354DOD     C289882   9.415  26.305  16.394 -0.2231 -0.0452  0.2199
15354DOD     C389883   9.864  26.396  16.353  0.2346  0.1504 -0.0951
15355DOD     C189884  25.686  12.324  29.920 -0.0762 -0.2400 -0.1305
15355DOD     C289885  25.907  12.695  30.135  0.0490 -0.2129 -0.3258
15355DOD     C389886  26.073  12.889   0.239  0.0020  0.2089 -0.3120
15356DOD     C189887  27.062  24.595  19.674  0.2382 -0.4253 -0.1662
15356DOD     C289888  27.069  25.027  19.860  0.1131 -0.2905  0.5356
15356DOD     C389889  27.170  25.187  20.268 -0.0918  0.0411 -0.0636
15357DOD     C189890  21.720   6.871  17.486 -0.2144  0.2901 -0.0979
15357DOD     C289891  21.978   6.627  17.766 -0.3120 -0.0805 -0.3956
15357DOD     C389892  22.096   6.193  17.863 -0.1780  0.0847  0.2626
15358DOD     C189893   6.093  13.514  29.220 -0.1477  0.0246 -0.0583
15358DOD     C289894   5.861  13.308  29.524  0.2341  0.1401 -0.0991
15358DOD     C389895   5.716  13.070  29.879 -0.0900  0.1583 -0.1667
15359DOD     C189896   5.672  13.199   6.860 -0.0245  0.2138 -0.1250
15359DOD     C289897   5.697  13.568   7.252  0.1713  0.0386  0.0889
15359DOD     C389898   5.955  13.693   7.648  0.1400 -0.2225 -0.1240
15360DOD     C189899   4.644   9.794  21.594 -0.1268 -0.1962 -0.2678
15360DOD     C289900   4.347   9.853  21.916  0.1782 -0.0049  0.3084
15360DOD     C389901   4.143   9.609  22.227 -0.1506  0.0472 -0.3460
15361DOD     C189902   3.991   2.733   7.199  0.0218 -0.1343  0.0502
15361DOD     C289903   4.372   2.519   7.033  0.1665 -0.1409 -0.1878
15361DOD     C389904   4.698   2.448   6.728  0.1061 -0.0735 -0.4722
15362DOD     C189905   1.041   4.359  23.195  0.1984 -0.4542  0.2213
15362DOD     C289906   1.268   4.535  23.582 -0.0608 -0.1475  0.2134
15362DOD     C389907   1.607   4.885  23.735 -0.2200  0.0577 -0.2695
15363DOD     C189908   9.727  17.941   1.114  0.1077 -0.0624 -0.1799
15363DOD     C289909  10.182  18.097   1.194  0.4814  0.1610  0.0565
15363DOD     C389910  10.643  18.136   1.029  0.1520  0.0677  0.1865
15364DOD     C189911  22.085  18.164  20.683 -0.2555 -0.1156  0.2675
15364DOD     C289912  22.074  17.712  20.665  0.0220 -0.1658  0.3455
15364DOD     C389913  21.915  17.498  20.972 -0.1857 -0.0049 -0.0271
15365DOD     C189914  26.803   4.049  24.122 -0.0234  0.0294 -0.0537
15365DOD     C289915  26.559   4.259  23.727  0.0589 -0.1019 -0.1115
15365DOD     C389916  26.148   4.359  23.672 -0.0450  0.1762 -0.3492
15366DOD     C189917  16.758   4.783  10.864 -0.0147 -0.1118 -0.2015
15366DOD     C289918  16.491   4.691  11.266 -0.3127 -0.1090  0.1774
15366DOD     C389919  16.528   4.415  11.618 -0.1928 -0.1661  0.0066
15367DOD     C189920   7.052  21.758  26.926  0.1136  0.1149 -0.3909
15367DOD     C289921   7.008  22.100  27.235 -0.0570  0.2545 -0.0111
15367DOD     C389922   6.792  22.500  27.104  0.0829  0.0566  0.1220
15368DOD     C189923   6.385  22.394  12.990  0.2723  0.2190  0.3552
15368DOD     C289924   6.020  22.682  12.903 -0.2871 -0.3460  0.2475
15368DOD     C389925   5.605  22.772  13.081  0.1352  0.1205  0.0848
15369DOD     C189926  24.376  20.040  10.170  0.1276  0.1503 -0.0299
15369DOD     C289927  24.185  19.890  10.605 -0.0619  0.3120  0.0938
15369DOD     C389928  23.863  19.914  10.956  0.2183 -0.1857 -0.0237
15370DOD     C189929  20.593  10.288   9.947 -0.1540  0.0118  0.0049
15370DOD     C289930  20.250  10.306   9.606 -0.1089  0.3048  0.3205
15370DOD     C389931  19.921  10.553   9.318  0.0492 -0.1105 -0.1410
15371DOD     C189932   2.804  20.776   2.578 -0.2657 -0.2444 -0.0056
15371DOD     C289933   2.730  20.603   2.219  0.0313  0.1273  0.2401
15371DOD     C389934   2.810  20.137   2.193  0.0213 -0.1261  0.1883
15372DOD     C189935  11.017   1.827  12.860  0.1232  0.2846  0.1010
15372DOD     C289936  10.598   1.994  12.754  0.2905 -0.2148  0.1602
15372DOD     C389937  10.160   1.939  12.760 -0.0362  0.1454 -0.0973
15373DOD     C189938  13.714   1.493  15.286  0.0086  0.2128  0.0259
15373DOD     C289939  13.463   1.165  15.109  0.1771 -0.0187  0.1625
15373DOD     C389940  13.042   0.963  15.200 -0.1194 -0.0985  0.0882
15374DOD     C189941   4.727  28.377   0.933 -0.3012 -0.0771 -0.0344
15374DOD     C289942   5.021  28.560   0.630 -0.1682 -0.1265 -0.1811
15374DOD     C389943   5.476  28.536   0.467  0.1447  0.0667  0.2638
15375DOD     C189944   2.700  14.324  17.945 -0.3152 -0.2358  0.0121
15375DOD     C289945   2.573  14.781  17.946  0.2572 -0.1001 -0.1620
15375DOD     C389946   2.637  15.267  18.098  0.1655 -0.0677  0.0578
15376DOD     C189947  15.804  24.599  15.041 -0.1156 -0.2549 -0.1991
15376DOD     C289948  15.503  24.211  15.064 -0.0837 -0.3049  0.2238
15376DOD     C389949  15.310  23.793  15.120  0.1498 -0.4205  0.0342
15377DOD     C189950  16.928  23.116   0.834  0.0992 -0.3096  0.0570
15377DOD     C289951  16.717  22.844   1.129  0.0303  0.0110 -0.0579
15377DOD     C389952  16.525  22.490   1.411  0.2674  0.0021  0.2442
15378DOD     C189953  12.141   5.328  18.368 -0.0898 -0.1192 -0.1630
15378DOD     C289954  11.726   5.021  18.321 -0.1762  0.0490  0.1031
15378DOD     C389955  11.759   4.641  18.580  0.2105  0.5581  0.0024
15379DOD     C189956  16.938   5.960  13.540  0.0553 -0.0437 -0.0317
15379DOD     C289957  16.774   5.643  13.849  0.1048  0.0613  0.0522
15379DOD     C389958  16.691   5.290  14.164  0.0241 -0.0355  0.1167
15380DOD     C189959  20.045  23.409   6.905  0.2489  0.0018 -0.2957
15380DOD     C289960  19.808  23.774   7.050 -0.2718 -0.1988  0.0004
15380DOD     C389961  19.395  23.739   7.261 -0.1015 -0.1899 -0.1370
15381DOD     C189962  28.113  13.378  13.935 -0.1870  0.3240 -0.0593
15381DOD     C289963  28.568  13.518  14.077 -0.0451 -0.0455  0.4396
15381DOD     C389964  29.017  13.624  14.270  0.2857  0.0865  0.0984
15382DOD     C189965  10.255  22.620  12.560 -0.0661  0.0701  0.2990
15382DOD     C289966   9.846  22.708  12.785 -0.0156  0.0536  0.0510
15382DOD     C389967   9.473  22.995  12.821  0.1092  0.0955  0.3579
15383DOD     C189968  27.089  11.604   9.439 -0.2546  0.1711 -0.0168
15383DOD     C289969  27.262  11.224   9.741  0.2751  0.2899  0.2616
15383DOD     C389970  27.690  11.056   9.831 -0.0377  0.1381  0.1155
15384DOD     C189971   3.376  25.169  24.281  0.3128  0.0676  0.2926
15384DOD     C289972   3.248  25.553  24.529 -0.2878  0.1091  0.1100
15384DOD     C389973   3.329  25.689  24.998  0.0304 -0.0090 -0.3510
15385DOD     C189974   3.470  12.277   5.456  0.0733 -0.0746 -0.0706
15385DOD     C289975   3.278  11.869   5.334 -0.0250 -0.0511  0.2865
15385DOD     C389976   3.402  11.484   5.192  0.1788  0.1138 -0.1491
15386DOD     C189977   0.214   4.684  10.253 -0.0489 -0.0327  0.2116
15386DOD     C289978   0.367   4.565  10.628 -0.2957  0.2540 -0.1623
15386DOD     C389979   0.649   4.728  10.916 -0.1679 -0.0079  0.0705
15387DOD     C189980  29.104  14.550  14.077  0.0788 -0.0464  0.2394
15387DOD     C289981  29.341  14.860  14.329  0.4050 -0.0877  0.0171
15387DOD     C389982  29.582  14.972  14.761 -0.1463  0.0842  0.0268
15388DOD     C189983  28.364  23.898   5.375 -0.0441 -0.2548 -0.2661
15388DOD     C289984  28.604  23.668   5.043 -0.0418  0.0846  0.0150
15388DOD     C389985  28.668  23.237   4.828  0.0704 -0.0645  0.3625
15389DOD     C189986  15.497   7.086   1.798  0.1279 -0.1051  0.0220
15389DOD     C289987  15.279   7.259   2.130 -0.1846 -0.1224 -0.2305
15389DOD     C389988  15.083   7.631   2.434 -0.2905  0.3346 -0.1720
15390DOD     C189989  11.297  26.529  26.106  0.0834 -0.0407 -0.1724
15390DOD     C289990  11.769  26.477  26.026  0.2416 -0.0317  0.0220
15390DOD     C389991  12.059  26.431  26.318 -0.1299 -0.3009 -0.0403
15391DOD     C189992  10.851  14.951  13.916 -0.2288  0.0651  0.1992
15391DOD     C289993  10.593  14.930  14.315  0.0614 -0.4070 -0.0074
15391DOD     C389994  10.208  14.703  14.436  0.1619  0.0341 -0.0800
15392DOD     C189995   0.720   2.981   2.184 -0.0639  0.1945  0.0871
15392DOD     C289996   0.289   3.053   2.455 -0.2969  0.0654  0.0741
15392DOD     C389997  30.257   3.282   2.611  0.0268  0.3438 -0.2065
15393DOD     C189998  21.075  15.590  21.700  0.0721  0.1655  0.0209
15393DOD     C289999  20.659  15.527  21.861  0.1420  0.1560 -0.2946
15393DOD     C390000  20.188  15.599  21.719 -0.0598 -0.2703  0.1442
15394DOD     C190001  29.277  23.355  10.955  0.1808  0.0932  0.4961
15394DOD     C290002  29.375  22.944  11.251 -0.3101 -0.1067  0.1861
15394DOD     C390003  29.747  22.737  11.276 -0.3326  0.0497  0.1071
15395DOD     C190004   7.637   9.375  22.875  0.0349  0.4638  0.3347
15395DOD     C290005   7.559   9.815  22.968  0.3065 -0.0834 -0.0076
15395DOD     C390006   7.365  10.236  22.821  0.1215 -0.0628 -0.0263
15396DOD     C190007  20.535  22.110  22.268  0.0076 -0.0460  0.1034
15396DOD     C290008  20.115  21.960  22.261 -0.0669 -0.0595 -0.0365
15396DOD     C390009  19.749  21.677  22.311  0.2674  0.2749  0.1848
15397DOD     C190010  18.710   9.378  19.344  0.1386  0.0990 -0.0062
15397DOD     C290011  19.152   9.281  19.450  0.0116  0.0037  0.1697
15397DOD     C390012  19.505   9.072  19.284  0.1015 -0.0647 -0.1689
15398DOD     C190013   9.711   1.314  28.146  0.0626  0.2112  0.1029
15398DOD     C290014   9.821   1.587  27.838  0.3425 -0.1929  0.0539
15398DOD     C390015   9.553   1.871  27.518 -0.4764 -0.1113  0.0031
15399DOD     C190016   9.124   4.392   2.295 -0.1004  0.0495  0.3356
15399DOD     C290017   9.213   4.615   2.663 -0.1583 -0.0947  0.2775
15399DOD     C390018   9.039   4.484   3.029  0.2514  0.1449  0.0957
15400DOD     C190019  16.825  14.706   9.819 -0.1540  0.0945 -0.1243
15400DOD     C290020  17.199  14.985   9.697 -0.0200  0.2036  0.0332
15400DOD     C390021  17.648  14.913   9.675  0.0730  0.0571 -0.0585
15401DOD     C190022   2.507  26.980   6.064 -0.4177  0.0916  0.1025
15401DOD     C290023   2.680  26.609   5.880 -0.0578  0.1636  0.3707
15401DOD     C390024   2.492  26.243   6.036  0.0496 -0.3530 -0.2370
15402DOD     C190025   8.179  29.942   2.621 -0.2882 -0.3367 -0.2402
15402DOD     C290026   8.565  29.660   2.654  0.1184 -0.0005  0.0247
15402DOD     C390027   9.039  29.605   2.793  0.0548  0.2044 -0.0009
15403DOD     C190028  11.147  15.885   2.669  0.3421 -0.0960  0.2244
15403DOD     C290029  11.189  16.259   2.313  0.0217  0.0873 -0.0678
15403DOD     C390030  11.098  16.702   2.113 -0.1759  0.1101 -0.3514
15404DOD     C190031  26.575  29.066  28.859  0.2655  0.0742 -0.3520
15404DOD     C290032  26.746  28.982  28.418  0.0415 -0.1991  0.2164
15404DOD     C390033  26.739  29.019  27.972  0.0288  0.3075  0.3237
15405DOD     C190034  23.383  26.396   9.599  0.3697 -0.4508 -0.3659
15405DOD     C290035  23.610  26.350   9.942  0.0161  0.2278  0.2274
15405DOD     C390036  24.088  26.297   9.972 -0.0927 -0.1039 -0.2570
15406DOD     C190037  21.688  19.561  29.149 -0.1900  0.1393  0.2332
15406DOD     C290038  22.169  19.489  29.084 -0.0603  0.0422 -0.2053
15406DOD     C390039  22.596  19.231  29.012 -0.3659  0.1148 -0.0991
15407DOD     C190040   0.546   4.412  29.511  0.1342 -0.0244 -0.0070
15407DOD     C290041   0.124   4.386  29.432  0.1419 -0.0830  0.1177
15407DOD     C390042  30.126   4.031  29.326  0.2219 -0.3206 -0.0292
15408DOD     C190043  24.347   8.575  17.419 -0.0609  0.0403 -0.2313
15408DOD     C290044  24.765   8.596  17.302 -0.1940  0.2243 -0.0855
15408DOD     C390045  25.018   8.294  17.243 -0.1842 -0.0315 -0.1512
15409DOD     C190046   4.556  25.431  24.294  0.0344  0.1939 -0.2985
15409DOD     C290047   4.904  25.472  23.974  0.1006 -0.1644  0.0171
15409DOD     C390048   5.197  25.227  23.728  0.0354 -0.3051 -0.2458
15410DOD     C190049  17.946  18.006  21.904 -0.0861 -0.1390  0.2431
15410DOD     C290050  17.581  18.050  22.261  0.0435 -0.0689  0.1575
15410DOD     C390051  17.285  17.834  22.520 -0.0298  0.1927 -0.1929
15411DOD     C190052   8.875   0.675   7.770 -0.0072 -0.1803  0.0105
15411DOD     C290053   9.222   0.749   8.037  0.1440 -0.1156 -0.0695
15411DOD     C390054   9.499   0.925   8.338  0.0412  0.0594  0.3493
15412DOD     C190055  14.077   9.187  21.761 -0.4334 -0.2461  0.0592
15412DOD     C290056  14.277   9.534  21.607 -0.1307  0.3353 -0.2233
15412DOD     C390057  14.588   9.656  21.290 -0.0174 -0.0178 -0.0444
15413DOD     C190058  22.695   5.754  13.336 -0.0054  0.0005 -0.3181
15413DOD     C290059  22.420   5.676  13.737  0.0157 -0.1577  0.0098
15413DOD     C390060  22.373   5.645  14.189 -0.0615 -0.1916  0.2815
15414DOD     C190061  13.677  22.647   9.652 -0.1774  0.1843  0.2675
15414DOD     C290062  13.746  23.035   9.519 -0.2110 -0.0177 -0.1720
15414DOD     C390063  13.937  23.299   9.198  0.1468 -0.0635 -0.2363
15415DOD     C190064   5.872  24.235  25.779 -0.1495 -0.0227  0.0793
15415DOD     C290065   5.464  24.220  25.901 -0.1445 -0.4071 -0.0447
15415DOD     C390066   5.115  24.039  25.715 -0.0292  0.3345 -0.1698
15416DOD     C190067  15.261  20.286  18.233  0.0296  0.0907 -0.1426
15416DOD     C290068  14.955  20.614  18.008  0.3059  0.0166 -0.2572
15416DOD     C390069  14.934  20.958  17.669 -0.1418 -0.1031 -0.0025
15417DOD     C190070  23.438  26.694   2.971 -0.1962  0.0825  0.0033
15417DOD     C290071  23.283  26.307   3.159  0.0348  0.1346 -0.3346
15417DOD     C390072  22.890  26.222   2.996  0.3497  0.2921 -0.1750
15418DOD     C190073   5.424  15.284   6.942  0.2190  0.2044  0.0794
15418DOD     C290074   5.290  15.620   7.218  0.0398 -0.0215  0.2061
15418DOD     C390075   5.430  16.075   7.058 -0.1938 -0.1706  0.1850
15419DOD     C190076  11.793  14.115  16.724  0.0107  0.0168 -0.0046
15419DOD     C290077  11.538  14.429  16.898  0.0282 -0.1531 -0.0346
15419DOD     C390078  11.298  14.613  17.278  0.1169 -0.0880  0.3081
15420DOD     C190079  29.452   5.133  10.929  0.2220 -0.1985 -0.3096
15420DOD     C290080  29.510   5.549  10.660 -0.1433  0.0334 -0.0889
15420DOD     C390081  29.319   5.930  10.472  0.1947  0.1160  0.0251
15421DOD     C190082  13.416  23.074  10.367  0.1799 -0.0379 -0.2315
15421DOD     C290083  13.284  22.962  10.782 -0.2385 -0.1583  0.1512
15421DOD     C390084  13.057  22.782  11.206 -0.3100  0.3934  0.2630
15422DOD     C190085   4.085  29.961   1.335  0.0919 -0.0254 -0.2642
15422DOD     C290086   4.363  29.586   1.483 -0.0224 -0.0306  0.2156
15422DOD     C390087   4.638  29.492   1.833 -0.1074  0.0293  0.2381
15423DOD     C190088  26.977  22.218   5.343 -0.0724  0.3093 -0.2255
15423DOD     C290089  26.828  21.806   5.269 -0.1496 -0.0240  0.1065
15423DOD     C390090  26.716  21.358   5.160 -0.0908 -0.4272  0.0051
15424DOD     C190091  24.690  19.283   3.051 -0.1735  0.1254  0.4327
15424DOD     C290092  24.352  19.160   3.398 -0.0152 -0.3744 -0.0677
15424DOD     C390093  23.931  19.396   3.563  0.0141 -0.1803 -0.0080
15425DOD     C190094  19.227   6.963  21.823 -0.0909  0.0187 -0.0202
15425DOD     C290095  19.316   7.095  22.219 -0.0079 -0.2411  0.0227
15425DOD     C390096  19.661   7.256  22.503 -0.1635  0.2454 -0.1769
15426DOD     C190097  13.854  25.954  18.644 -0.0503 -0.0870  0.2995
15426DOD     C290098  13.858  26.292  19.006 -0.1732 -0.1085 -0.0506
15426DOD     C390099  13.951  26.628  19.295  0.0854 -0.2821  0.1515
15427DOD     C190100  12.275  24.936   3.104 -0.0224 -0.1424  0.1625
15427DOD     C290101  11.946  24.497   2.991  0.1896  0.0597  0.1075
15427DOD     C390102  11.683  24.258   2.713  0.5562  0.0729 -0.0524
15428DOD     C190103   0.797  15.924  21.496 -0.1509  0.3394  0.0756
15428DOD     C290104   1.170  16.046  21.217 -0.1662 -0.2211  0.3222
15428DOD     C390105   1.232  16.425  20.956 -0.2407  0.4141  0.0052
15429DOD     C190106  22.112  15.506  25.320  0.4161 -0.1831  0.0853
15429DOD     C290107  22.404  15.580  25.003 -0.0963 -0.0839  0.0060
15429DOD     C390108  22.809  15.440  24.773  0.0323 -0.1740  0.1362
15430DOD     C190109  27.414   2.725  16.204  0.0280 -0.0567  0.0322
15430DOD     C290110  27.303   3.094  16.448 -0.0178 -0.0268 -0.0141
15430DOD     C390111  27.135   3.302  16.829 -0.1180 -0.0796 -0.1826
15431DOD     C190112  16.602  10.068  29.260  0.1535 -0.0375  0.2594
15431DOD     C290113  16.424  10.226  28.771  0.0562 -0.1811  0.0933
15431DOD     C390114  16.374  10.030  28.346  0.0774 -0.1346 -0.1622
15432DOD     C190115   7.555  27.201   5.558  0.0179 -0.1599  0.3649
15432DOD     C290116   7.541  26.783   5.770 -0.1810 -0.0401  0.1344
15432DOD     C390117   7.791  26.471   5.932  0.1794  0.2419  0.1838
15433DOD     C190118  24.350   7.489  21.251  0.1651 -0.2638 -0.0808
15433DOD     C290119  24.709   7.280  21.518 -0.1134 -0.1477  0.1400
15433DOD     C390120  25.015   6.978  21.432  0.1364 -0.0504 -0.2049
15434DOD     C190121   3.436  24.188  21.912 -0.0359  0.0752  0.1385
15434DOD     C290122   3.731  24.288  22.258 -0.1226 -0.3829  0.1210
15434DOD     C390123   4.011  24.515  22.571 -0.3692  0.2304 -0.2080
15435DOD     C190124  14.824  13.854   6.825 -0.1653  0.2322  0.0643
15435DOD     C290125  15.154  13.554   6.840  0.2356 -0.1429  0.0557
15435DOD     C390126  15.451  13.272   6.987 -0.2102  0.0720  0.0265
15436DOD     C190127   3.413  29.114   0.652 -0.0529 -0.0086  0.1119
15436DOD     C290128   3.209  29.076   0.214 -0.4213  0.3092 -0.1419
15436DOD     C390129   3.200  29.011  30.031 -0.2379  0.3977  0.0685
15437DOD     C190130  24.021  13.080  23.482 -0.2094  0.0507 -0.0835
15437DOD     C290131  23.871  13.448  23.573  0.2954 -0.4247  0.1395
15437DOD     C390132  23.555  13.735  23.742  0.5531  0.0985 -0.2573
15438DOD     C190133  25.468  13.282  23.671  0.5969  0.0260 -0.1911
15438DOD     C290134  25.751  13.140  23.994 -0.0789  0.1028 -0.3069
15438DOD     C390135  26.000  13.198  24.343 -0.0823 -0.1898 -0.1109
15439DOD     C190136   4.006   1.721  12.461  0.0739  0.0228  0.0747
15439DOD     C290137   3.792   2.138  12.502  0.0602 -0.0554  0.1419
15439DOD     C390138   3.585   2.340  12.879 -0.2143 -0.2114  0.0562
15440DOD     C190139  27.515  16.004  18.026  0.4122  0.1485  0.6233
15440DOD     C290140  27.782  16.127  17.635  0.3061 -0.0876 -0.2638
15440DOD     C390141  27.719  16.582  17.394  0.1130  0.1260  0.0166
15441DOD     C190142   7.856  18.015  23.628 -0.1632  0.0128 -0.1823
15441DOD     C290143   8.121  18.116  23.253  0.1722 -0.2395 -0.0966
15441DOD     C390144   8.196  18.504  23.017 -0.2390  0.0429 -0.0006
15442DOD     C190145   0.566  26.471   3.677  0.2528 -0.0915 -0.1804
15442DOD     C290146   0.277  26.544   4.031  0.1936  0.0527 -0.1420
15442DOD     C390147   0.345  26.702   4.444  0.0152 -0.2253 -0.0620
15443DOD     C190148  12.280  28.501  24.987  0.5138  0.2519  0.1200
15443DOD     C290149  11.991  28.202  24.774 -0.1460  0.4455  0.0125
15443DOD     C390150  11.687  28.059  24.519  0.0955 -0.0567 -0.0123
15444DOD     C190151  13.668   6.992   0.981  0.2108 -0.3168 -0.2777
15444DOD     C290152  13.486   6.902   0.520  0.0810  0.0433 -0.0338
15444DOD     C390153  13.265   7.122   0.140  0.2282 -0.0512  0.1198
15445DOD     C190154   8.763  20.430  21.193  0.2419  0.0024  0.0191
15445DOD     C290155   8.596  20.042  21.358  0.2436  0.0156 -0.3224
15445DOD     C390156   8.289  19.902  21.699 -0.2304  0.3312  0.0058
15446DOD     C190157  18.021   8.605  17.386  0.2832  0.2576 -0.0056
15446DOD     C290158  17.594   8.656  17.195  0.2055  0.1389 -0.0233
15446DOD     C390159  17.470   9.060  17.079  0.2893 -0.0079 -0.0897
15447DOD     C190160  15.035   6.489  21.444 -0.2666  0.0335 -0.2894
15447DOD     C290161  14.987   6.141  21.177  0.1386 -0.1368 -0.1006
15447DOD     C390162  14.806   5.782  20.978 -0.0907 -0.4101  0.1780
15448DOD     C190163  12.124   3.216  28.704  0.0966  0.3666 -0.3028
15448DOD     C290164  12.216   3.031  29.098 -0.1004  0.0641  0.1296
15448DOD     C390165  12.608   2.795  29.168 -0.0343 -0.1859  0.1775
15449DOD     C190166   7.945  20.727  22.037  0.3412  0.2588  0.0309
15449DOD     C290167   8.072  21.172  22.154  0.0971  0.1412 -0.0110
15449DOD     C390168   8.213  21.652  22.022  0.1203 -0.0582  0.0784
15450DOD     C190169   2.725  10.761   7.670  0.0772  0.1513 -0.0419
15450DOD     C290170   3.008  10.428   7.531  0.1524 -0.0419 -0.0837
15450DOD     C390171   2.901   9.976   7.337 -0.0372 -0.0482 -0.2191
15451DOD     C190172  18.524   4.902  29.323 -0.0476  0.1953 -0.2472
15451DOD     C290173  18.097   5.067  29.433  0.1347  0.0280 -0.2195
15451DOD     C390174  17.860   5.413  29.124  0.0357 -0.0981 -0.2648
15452DOD     C190175  20.491   6.508  27.351  0.0423 -0.1041  0.0813
15452DOD     C290176  20.091   6.473  27.622  0.4095  0.3215  0.1870
15452DOD     C390177  19.961   6.657  28.082 -0.0026  0.0982  0.2587
15453DOD     C190178   6.716  29.266  21.114 -0.1204  0.2560 -0.2191
15453DOD     C290179   6.655  29.068  21.561  0.2390  0.1149  0.3310
15453DOD     C390180   6.932  28.763  21.768  0.1669  0.1718  0.2457
15454DOD     C190181  15.960  22.337  22.245 -0.4281  0.1223  0.0478
15454DOD     C290182  16.306  22.570  21.975  0.2689 -0.3840 -0.0462
15454DOD     C390183  16.720  22.821  22.067 -0.0180 -0.3293 -0.0263
15455DOD     C190184   9.539  20.890   0.947  0.1229 -0.1107 -0.1168
15455DOD     C290185   9.968  20.917   0.994 -0.0583 -0.1111  0.0181
15455DOD     C390186  10.163  20.804   1.402 -0.0239 -0.3051 -0.0025
15456DOD     C190187   5.393  25.808   3.940 -0.1895  0.1998 -0.5085
15456DOD     C290188   5.656  25.914   4.300  0.2425  0.3994  0.0790
15456DOD     C390189   5.847  26.303   4.369 -0.1602  0.0119  0.0474
15457DOD     C190190  22.854   8.610  23.021 -0.2321  0.0831  0.1833
15457DOD     C290191  22.733   8.703  23.446  0.1707 -0.3140 -0.2601
15457DOD     C390192  22.510   9.041  23.726  0.0525  0.1680 -0.0476
15458DOD     C190193  21.116  18.938  29.134  0.0751 -0.2972 -0.1097
15458DOD     C290194  21.359  18.640  29.372 -0.3155 -0.0475  0.1754
15458DOD     C390195  21.435  18.213  29.628  0.1533 -0.0970  0.0695
15459DOD     C190196  23.020  12.555  13.245 -0.2862  0.1390  0.0299
15459DOD     C290197  23.151  12.910  13.531  0.2391  0.0039 -0.1120
15459DOD     C390198  22.957  13.265  13.792 -0.1864 -0.3001 -0.4284
15460DOD     C190199  17.220  29.710   0.383  0.0581  0.1000  0.3465
15460DOD     C290200  17.407  30.163   0.445 -0.1794 -0.0650  0.1158
15460DOD     C390201  17.711   0.133   0.271 -0.2943  0.0670 -0.0342
15461DOD     C190202   4.329   2.627   1.101  0.0103  0.0264 -0.1504
15461DOD     C290203   3.997   2.505   0.844 -0.1070 -0.0997 -0.1123
15461DOD     C390204   3.607   2.761   0.718 -0.2450 -0.2576  0.2315
15462DOD     C190205  18.261  18.855  23.667 -0.1501  0.0782 -0.0198
15462DOD     C290206  18.590  18.755  23.958 -0.0572 -0.0011 -0.1196
15462DOD     C390207  18.920  18.389  24.051  0.2928  0.0953  0.0997
15463DOD     C190208  27.898  15.735  10.304 -0.4413 -0.0581 -0.1369
15463DOD     C290209  27.632  15.908  10.541 -0.2045 -0.2188  0.0863
15463DOD     C390210  27.627  16.169  10.887  0.0099 -0.1426 -0.0235
15464DOD     C190211  26.331   7.598   8.050 -0.4022  0.1591 -0.0154
15464DOD     C290212  26.330   7.294   7.653  0.0218  0.0517 -0.0765
15464DOD     C390213  26.335   6.829   7.687  0.1485 -0.2596  0.3101
15465DOD     C190214   4.136  13.681   8.054 -0.0806 -0.3190 -0.0578
15465DOD     C290215   4.144  13.768   8.538 -0.2914  0.0698  0.1948
15465DOD     C390216   4.380  14.091   8.788 -0.1617  0.2020  0.0233
15466DOD     C190217  19.827  15.813  15.052 -0.4048 -0.0053 -0.1999
15466DOD     C290218  19.694  15.928  15.502 -0.0872 -0.2520 -0.2717
15466DOD     C390219  19.895  16.104  15.915  0.2094 -0.0190  0.0650
15467DOD     C190220  26.724  28.765  25.649  0.0920  0.1255  0.2770
15467DOD     C290221  26.954  28.702  25.194  0.2738  0.0228 -0.0266
15467DOD     C390222  27.201  28.710  24.750  0.1904  0.1323  0.0305
15468DOD     C190223  16.847   8.924   3.867 -0.2663  0.2922 -0.1403
15468DOD     C290224  17.232   9.110   3.991 -0.1368 -0.2110  0.0493
15468DOD     C390225  17.634   9.380   3.973  0.1326  0.1903 -0.5032
15469DOD     C190226  30.124  12.069  17.214 -0.2893 -0.0137  0.2353
15469DOD     C290227   0.280  11.953  16.971  0.2461  0.3034  0.0080
15469DOD     C390228   0.502  11.969  16.587 -0.1797 -0.1369 -0.2322
15470DOD     C190229   9.886   1.687  10.413 -0.1865 -0.2238 -0.0017
15470DOD     C290230   9.741   1.880   9.977 -0.2179  0.1808  0.2112
15470DOD     C390231   9.437   2.053   9.639 -0.0270  0.2144 -0.1368
15471DOD     C190232  28.143  18.911  29.738  0.1171  0.0896 -0.1888
15471DOD     C290233  27.789  19.170  29.636  0.1014 -0.0585 -0.1587
15471DOD     C390234  27.349  19.032  29.471  0.1792 -0.1471  0.1142
15472DOD     C190235   4.358  17.444  12.636  0.0509  0.3013 -0.2523
15472DOD     C290236   3.984  17.641  12.772  0.0241  0.2775  0.0741
15472DOD     C390237   3.591  17.701  12.638 -0.3228  0.5414  0.1104
15473DOD     C190238  22.731   2.297   3.480 -0.2590  0.1988 -0.0758
15473DOD     C290239  23.210   2.202   3.491  0.0853  0.1842  0.4033
15473DOD     C390240  23.655   2.263   3.465 -0.3363 -0.1964  0.0306
15474DOD     C190241  21.840  14.342  22.563  0.2905  0.1396  0.0339
15474DOD     C290242  21.969  13.876  22.391 -0.3557  0.1497 -0.2582
15474DOD     C390243  21.860  13.437  22.356 -0.0819  0.1308 -0.3017
15475DOD     C190244  20.071  15.712  17.040 -0.1106 -0.2241  0.1027
15475DOD     C290245  19.781  15.664  16.688 -0.2218 -0.3057  0.0653
15475DOD     C390246  19.607  15.932  16.358  0.0777 -0.0600 -0.0716
15476DOD     C190247  22.736   1.551   8.948 -0.0796 -0.0758 -0.2622
15476DOD     C290248  22.456   1.757   8.625 -0.1636 -0.0861 -0.1095
15476DOD     C390249  22.228   2.103   8.409  0.2922  0.0817 -0.1974
15477DOD     C190250  10.088  29.654   4.986  0.0482 -0.1213  0.1110
15477DOD     C290251   9.662  29.623   5.166  0.2168 -0.2467  0.2581
15477DOD     C390252   9.294  29.749   5.454 -0.1051  0.0198  0.1313
15478DOD     C190253   6.967  22.608   7.187  0.0761  0.0853 -0.1117
15478DOD     C290254   6.525  22.493   7.135  0.1268  0.0409  0.0904
15478DOD     C390255   6.103  22.465   7.388  0.1150 -0.1074  0.1260
15479DOD     C190256  27.882  21.664   1.251  0.0337 -0.0331  0.0296
15479DOD     C290257  28.135  21.595   1.575 -0.0018 -0.0418  0.0188
15479DOD     C390258  28.598  21.599   1.663  0.2389 -0.0614 -0.0645
15480DOD     C190259  13.971  20.693  26.915 -0.2586 -0.3549  0.0220
15480DOD     C290260  14.330  20.919  27.185  0.4389 -0.2496  0.0774
15480DOD     C390261  14.406  21.369  27.338 -0.0536 -0.0661 -0.0535
15481DOD     C190262  22.489  21.756  14.217 -0.0878  0.0574  0.0301
15481DOD     C290263  22.293  21.632  14.653  0.0260 -0.1931  0.0702
15481DOD     C390264  21.893  21.383  14.690 -0.2241  0.1376 -0.2262
15482DOD     C190265  16.080  27.557  15.478 -0.2160 -0.3831 -0.0726
15482DOD     C290266  16.484  27.544  15.536 -0.0580  0.0581  0.0473
15482DOD     C390267  16.800  27.339  15.721  0.0196  0.0289  0.0675
15483DOD     C190268  18.541  18.792   7.129  0.2531 -0.1256 -0.1118
15483DOD     C290269  18.788  19.172   7.062 -0.1914 -0.1675 -0.0860
15483DOD     C390270  18.909  19.561   6.933 -0.1357 -0.0472  0.3435
15484DOD     C190271  30.102  15.031   7.991 -0.0630 -0.0720 -0.0754
15484DOD     C290272   0.257  15.204   8.000  0.1076 -0.2434  0.1522
15484DOD     C390273   0.696  15.047   7.901 -0.1217 -0.4429  0.3310
15485DOD     C190274  21.196   3.105  22.045  0.0301 -0.1346 -0.1159
15485DOD     C290275  20.883   3.456  22.143  0.0109  0.1232  0.3292
15485DOD     C390276  20.457   3.496  22.185  0.0067  0.3043  0.0045
15486DOD     C190277  21.894  17.943  30.300 -0.2130  0.1816  0.1936
15486DOD     C290278  22.161  18.218  30.020 -0.3456 -0.2545  0.0018
15486DOD     C390279  22.601  18.378  29.908 -0.1219 -0.0100  0.1991
15487DOD     C190280  14.246   9.031   8.887  0.0611 -0.1108 -0.2379
15487DOD     C290281  14.416   9.418   9.041  0.0416 -0.1026 -0.0781
15487DOD     C390282  14.410   9.862   8.986  0.0732 -0.0017  0.4126
15488DOD     C190283  18.742  11.417  26.280  0.0916 -0.1594 -0.0685
15488DOD     C290284  18.287  11.372  26.500 -0.1825 -0.0689  0.1596
15488DOD     C390285  18.000  11.015  26.622  0.2590  0.2562  0.2725
15489DOD     C190286   4.149   9.508  24.527  0.0510  0.1454  0.0441
15489DOD     C290287   3.797   9.757  24.233 -0.1121 -0.1717 -0.2203
15489DOD     C390288   3.529  10.105  24.025 -0.0154  0.0696  0.1971
15490DOD     C190289  15.331   2.844  24.993  0.1079 -0.1874 -0.0426
15490DOD     C290290  15.521   3.296  24.928 -0.3684  0.1586  0.2065
15490DOD     C390291  15.841   3.600  24.800 -0.1530  0.1818  0.1598
15491DOD     C190292  21.445  14.508  10.240  0.2606 -0.0220  0.0512
15491DOD     C290293  21.401  14.371  10.674 -0.0667 -0.2979  0.0089
15491DOD     C390294  21.215  14.362  11.117 -0.3861  0.4485 -0.1897
15492DOD     C190295  20.472  12.547   5.623 -0.1777 -0.3664 -0.0167
15492DOD     C290296  20.382  12.933   5.459 -0.0482  0.0417 -0.0110
15492DOD     C390297  20.398  13.381   5.514 -0.1891  0.0607  0.1334
15493DOD     C190298   0.758  10.339   3.376 -0.1834  0.2773 -0.1672
15493DOD     C290299   1.013  10.551   3.042  0.2175 -0.3101  0.0450
15493DOD     C390300   1.302  10.927   3.026  0.1292  0.0282 -0.4198
15494DOD     C190301   0.738   7.871  14.288 -0.3044 -0.3155  0.0052
15494DOD     C290302   0.811   8.056  14.660  0.1875  0.1876 -0.3937
15494DOD     C390303   0.611   7.921  15.058  0.2071  0.0685  0.0268
15495DOD     C190304  27.305   6.881  18.163 -0.0818  0.1595 -0.1331
15495DOD     C290305  27.591   7.018  18.525  0.2492 -0.0589  0.1475
15495DOD     C390306  27.700   7.203  18.917 -0.1705  0.1799 -0.0686
15496DOD     C190307  21.740  29.645   3.772  0.2851  0.1070  0.0259
15496DOD     C290308  22.239  29.684   3.807  0.1057 -0.1434  0.1483
15496DOD     C390309  22.511  29.301   3.715 -0.3239 -0.1724 -0.3121
15497DOD     C190310  24.351  10.260   1.749  0.1860 -0.0141 -0.0166
15497DOD     C290311  24.272  10.176   1.247  0.1422  0.0574  0.0416
15497DOD     C390312  24.090  10.062   0.801 -0.0437 -0.0476 -0.0881
15498DOD     C190313  12.710  20.720  10.603 -0.2063  0.0628  0.0453
15498DOD     C290314  13.000  21.044  10.754 -0.2316 -0.5250  0.1358
15498DOD     C390315  13.079  21.452  10.646  0.1128  0.1282 -0.2420
15499DOD     C190316  21.009  11.607  11.632 -0.0627 -0.0228 -0.0001
15499DOD     C290317  20.944  11.315  11.231 -0.0232  0.0459  0.0802
15499DOD     C390318  21.072  10.901  10.986  0.0570  0.0085 -0.0839
15500DOD     C190319   4.436   8.081  28.686 -0.0069 -0.0374 -0.1662
15500DOD     C290320   4.596   7.853  29.021  0.2263 -0.0929  0.0061
15500DOD     C390321   4.432   7.423  29.179 -0.3422 -0.0476 -0.0737
15501DOD     C190322  23.046  22.836  21.621  0.0401 -0.0244  0.1833
15501DOD     C290323  22.692  22.976  21.309 -0.4211  0.1811 -0.2943
15501DOD     C390324  22.261  22.844  21.181 -0.0939 -0.0684 -0.0988
15502DOD     C190325  16.759  10.737  25.228 -0.1221  0.2665 -0.0711
15502DOD     C290326  16.334  10.705  25.106  0.0232  0.0355 -0.1993
15502DOD     C390327  15.937  10.952  25.175  0.1116  0.0140  0.2131
15503DOD     C190328  25.314  29.664   4.882 -0.1666 -0.3622  0.0967
15503DOD     C290329  25.614  29.963   4.675  0.3460  0.1056  0.0738
15503DOD     C390330  26.008  30.134   4.484  0.1491  0.0857  0.1302
15504DOD     C190331   4.426  24.505  29.612 -0.0307 -0.2799  0.2555
15504DOD     C290332   4.312  24.838  29.887  0.2686 -0.1601  0.1192
15504DOD     C390333   4.135  24.834   0.067 -0.3172 -0.0834 -0.0424
15505DOD     C190334   8.117  15.554  22.661  0.0086 -0.0471  0.0237
15505DOD     C290335   8.141  16.000  22.485 -0.2638 -0.0036 -0.2422
15505DOD     C390336   8.329  16.107  22.087  0.0210  0.0090 -0.0398
15506DOD     C190337  23.871  23.951  21.955 -0.0297 -0.1221  0.1418
15506DOD     C290338  23.564  24.115  21.591 -0.0257  0.2417 -0.1369
15506DOD     C390339  23.483  24.428  21.280  0.4401 -0.0321  0.1508
15507DOD     C190340  23.788   6.499  14.791 -0.0467 -0.0853  0.0757
15507DOD     C290341  24.228   6.590  14.980 -0.0954 -0.1879 -0.1794
15507DOD     C390342  24.328   6.862  15.308  0.4607  0.1438  0.2380
15508DOD     C190343  22.164  29.216   2.080  0.2561  0.0443 -0.1311
15508DOD     C290344  21.935  29.277   2.492 -0.0027 -0.0715 -0.0720
15508DOD     C390345  21.915  29.582   2.824 -0.0612  0.0232 -0.1498
15509DOD     C190346  21.831  28.822   1.682  0.2151  0.0412 -0.1788
15509DOD     C290347  21.855  28.838   2.121  0.1559 -0.0088 -0.0350
15509DOD     C390348  21.743  28.509   2.422 -0.0561 -0.0918 -0.2036
15510DOD     C190349  19.478   8.298  13.579 -0.1227  0.1231  0.1045
15510DOD     C290350  19.427   7.849  13.596 -0.0175 -0.0814 -0.2675
15510DOD     C390351  19.553   7.440  13.659  0.1395 -0.1047  0.1016
15511DOD     C190352  18.629  17.814  15.941 -0.1672 -0.2706 -0.0106
15511DOD     C290353  19.004  17.510  15.884 -0.1140  0.0990  0.0131
15511DOD     C390354  19.468  17.522  15.706  0.2331 -0.1792  0.1498
15512DOD     C190355  22.982   8.005   0.423  0.3803 -0.4281  0.0728
15512DOD     C290356  23.336   8.198   0.183  0.2961  0.1261  0.0504
15512DOD     C390357  23.778   8.297   0.099 -0.3912  0.0431 -0.2957
15513DOD     C190358  22.835  16.880  12.380  0.0072 -0.0261  0.0675
15513DOD     C290359  22.645  17.124  12.768 -0.3720 -0.0899  0.0610
15513DOD     C390360  22.751  17.565  12.812 -0.1681 -0.1448  0.1419
15514DOD     C190361  11.795   7.649  14.071 -0.0863  0.0165 -0.3844
15514DOD     C290362  11.558   7.224  13.974 -0.1497  0.3682 -0.0541
15514DOD     C390363  11.387   6.867  13.757 -0.3597 -0.1065  0.3433
15515DOD     C190364   3.335  25.785  19.223  0.3397  0.2041 -0.0885
15515DOD     C290365   3.044  25.435  19.183  0.1411  0.0203 -0.0942
15515DOD     C390366   3.038  25.102  18.910  0.5151 -0.2405  0.0640
15516DOD     C190367  22.871  21.203   4.769 -0.2078  0.1826 -0.0610
15516DOD     C290368  23.137  20.991   5.130 -0.0625  0.0854  0.1104
15516DOD     C390369  23.316  20.683   5.404 -0.2010 -0.0521 -0.0128
15517DOD     C190370  27.571  11.438   1.666  0.0087 -0.0041  0.4760
15517DOD     C290371  27.878  11.700   1.491  0.3776 -0.0554  0.0220
15517DOD     C390372  28.222  12.015   1.370 -0.0094  0.3274  0.1592
15518DOD     C190373  13.009  22.240  12.896  0.1266 -0.1077 -0.0234
15518DOD     C290374  13.337  22.175  13.206  0.0288 -0.1706 -0.1111
15518DOD     C390375  13.651  22.551  13.350 -0.5342  0.0994  0.0124
15519DOD     C190376  26.929  14.276  19.190 -0.0583  0.0578  0.1458
15519DOD     C290377  27.201  14.467  19.530  0.0983 -0.1231 -0.1733
15519DOD     C390378  27.082  14.843  19.867 -0.1592 -0.0626 -0.0827
15520DOD     C190379  10.814   3.522  18.292 -0.0461 -0.2009  0.1033
15520DOD     C290380  11.294   3.616  18.292  0.0054 -0.2138 -0.0340
15520DOD     C390381  11.720   3.673  18.121  0.5139  0.4155  0.4558
15521DOD     C190382   2.855  22.360   8.323 -0.3244  0.0943 -0.1243
15521DOD     C290383   3.193  22.519   8.512  0.4216 -0.0044  0.1629
15521DOD     C390384   3.612  22.603   8.492  0.1398  0.0209  0.0212
15522DOD     C190385   7.506   4.733  27.992 -0.1317 -0.0766 -0.1611
15522DOD     C290386   7.340   4.719  28.439 -0.0587  0.0541  0.4960
15522DOD     C390387   7.354   5.016  28.756 -0.0065 -0.1781  0.1440
15523DOD     C190388  21.102  26.851  17.968 -0.0233  0.1207  0.0501
15523DOD     C290389  21.382  26.897  17.658  0.1217  0.1521 -0.4308
15523DOD     C390390  21.675  27.031  17.302 -0.2929 -0.0708 -0.0935
15524DOD     C190391  11.396   6.724  27.711 -0.0442  0.2667 -0.0720
15524DOD     C290392  11.295   6.563  28.167 -0.1271  0.0524  0.0479
15524DOD     C390393  11.598   6.244  28.432 -0.0085 -0.0390 -0.0683
15525DOD     C190394   3.400   3.985  12.864  0.0248 -0.1291  0.0425
15525DOD     C290395   3.678   3.611  12.737  0.0926  0.1069  0.1653
15525DOD     C390396   3.591   3.145  12.698  0.1830 -0.2628  0.1683
15526DOD     C190397  11.802  18.351  10.062  0.1162  0.0560  0.2169
15526DOD     C290398  12.167  18.133   9.792 -0.1855 -0.0615 -0.1272
15526DOD     C390399  12.463  18.285   9.456 -0.2605  0.0703 -0.1825
15527DOD     C190400  27.817  16.811  17.825 -0.2720 -0.1531 -0.0525
15527DOD     C290401  28.152  16.840  17.451 -0.0696 -0.0486  0.2284
15527DOD     C390402  28.359  16.975  17.065  0.1148 -0.0644  0.1440
15528DOD     C190403   7.034  26.847  28.590  0.0585  0.2952 -0.0951
15528DOD     C290404   6.723  26.607  28.842  0.0489 -0.0999  0.2608
15528DOD     C390405   6.776  26.155  28.994  0.4972  0.2891 -0.0399
15529DOD     C190406  25.662  18.969  20.496  0.0362  0.2355 -0.1750
15529DOD     C290407  25.633  19.174  20.057  0.0547 -0.3857 -0.1418
15529DOD     C390408  25.444  19.535  19.854  0.2999  0.3619 -0.2465
15530DOD     C190409  29.361   1.955  11.892 -0.1170  0.2362 -0.0297
15530DOD     C290410  29.605   1.588  11.865 -0.1824  0.2092  0.0218
15530DOD     C390411  30.061   1.507  11.812  0.2479  0.1677  0.0694
15531DOD     C190412  14.683   1.016   8.158  0.0148  0.2135  0.0128
15531DOD     C290413  14.271   0.869   7.995  0.1001  0.1010 -0.0788
15531DOD     C390414  13.832   0.678   7.856  0.3808  0.4778  0.3762
15532DOD     C190415  15.880  11.311  29.025  0.0984  0.0911 -0.0309
15532DOD     C290416  15.681  11.101  28.661 -0.1536 -0.1633  0.2737
15532DOD     C390417  15.392  11.369  28.385 -0.0891 -0.1172 -0.1536
15533DOD     C190418  22.226   6.856   5.024  0.1045 -0.0890 -0.1168
15533DOD     C290419  22.231   6.635   4.597  0.0910  0.3164  0.3267
15533DOD     C390420  22.166   6.291   4.263  0.1179 -0.0824 -0.1103
15534DOD     C190421  20.211  24.004  28.258 -0.0079  0.0633  0.0675
15534DOD     C290422  20.074  23.776  27.911  0.1348 -0.1771  0.0921
15534DOD     C390423  19.659  23.787  27.669  0.0809  0.1596  0.2259
15535DOD     C190424   8.728   2.493  18.182 -0.1254  0.4038 -0.1443
15535DOD     C290425   8.418   2.817  18.209  0.5300  0.1769  0.0455
15535DOD     C390426   8.041   2.977  18.459  0.3163 -0.1077 -0.1114
15536DOD     C190427   0.620   0.001   9.778  0.1125  0.1369  0.0377
15536DOD     C290428   0.164  30.285   9.873  0.0281 -0.0575 -0.1268
15536DOD     C390429  30.171  30.091  10.171 -0.1337 -0.1343 -0.1961
15537DOD     C190430  14.195   2.558  26.835 -0.1745 -0.1838 -0.1046
15537DOD     C290431  14.540   2.432  26.562  0.0160  0.0060 -0.0436
15537DOD     C390432  14.967   2.634  26.432  0.1638  0.2008 -0.1564
15538DOD     C190433  18.037   0.788   5.488 -0.3494  0.1369 -0.0637
15538DOD     C290434  17.591   0.765   5.654 -0.0541 -0.1901  0.0633
15538DOD     C390435  17.147   0.889   5.624 -0.1662 -0.1158  0.1942
15539DOD     C190436   1.967   2.374   5.437  0.1291 -0.0764 -0.1919
15539DOD     C290437   1.941   2.381   4.996 -0.0013  0.0133 -0.0860
15539DOD     C390438   2.231   2.594   4.654  0.0140 -0.0427  0.0941
15540DOD     C190439  12.344  27.263  23.145 -0.2763 -0.0224  0.1722
15540DOD     C290440  12.114  27.407  23.508 -0.1721 -0.1310  0.2692
15540DOD     C390441  12.262  27.513  23.952  0.0690  0.1256 -0.2256
15541DOD     C190442  18.404   8.118  22.751  0.0024  0.0013  0.0977
15541DOD     C290443  18.495   7.789  23.086 -0.0279 -0.0113 -0.1439
15541DOD     C390444  18.544   7.475  23.417  0.0062  0.1178 -0.0571
15542DOD     C190445  27.082  14.300   3.182  0.1539  0.0623 -0.4230
15542DOD     C290446  27.431  13.959   3.197 -0.1004  0.2386  0.0030
15542DOD     C390447  27.888  13.986   3.202  0.2955 -0.3345  0.0742
15543DOD     C190448   0.714  18.507  22.735  0.0035  0.1720 -0.1302
15543DOD     C290449   0.235  18.546  22.780  0.0726  0.3764  0.1871
15543DOD     C390450  30.100  18.654  22.659 -0.3323 -0.0717 -0.0705
15544DOD     C190451   2.287  21.436   5.670  0.2132 -0.1530  0.0320
15544DOD     C290452   2.683  21.555   5.523  0.1959  0.0219  0.0349
15544DOD     C390453   2.916  21.954   5.476  0.1442  0.0590  0.0149
15545DOD     C190454   5.114  21.242   7.751  0.1551  0.2118  0.0223
15545DOD     C290455   5.407  20.959   7.436 -0.3146  0.0352 -0.0164
15545DOD     C390456   5.743  20.842   7.150 -0.1486  0.1126 -0.2218
15546DOD     C190457  20.107  14.271   1.622  0.2373 -0.0679  0.2047
15546DOD     C290458  19.677  14.230   1.520 -0.0785  0.0597  0.1768
15546DOD     C390459  19.228  14.065   1.645 -0.1564  0.0144 -0.0182
15547DOD     C190460  22.292   5.908  19.013 -0.0456 -0.5370 -0.1439
15547DOD     C290461  22.630   6.216  19.065  0.0136 -0.1250 -0.0594
15547DOD     C390462  22.945   6.526  19.116  0.2309  0.0833  0.1359
15548DOD     C190463  18.506  21.174  16.584 -0.0244 -0.1141 -0.2176
15548DOD     C290464  18.805  21.220  16.981 -0.3174 -0.2664 -0.1248
15548DOD     C390465  19.129  21.096  17.218  0.0184 -0.2028  0.0249
15549DOD     C190466  28.594  18.307   8.562  0.2924 -0.1324 -0.1779
15549DOD     C290467  28.418  18.165   8.172  0.1266 -0.0379 -0.0621
15549DOD     C390468  28.466  17.972   7.763 -0.0891  0.3718  0.1325
15550DOD     C190469  11.007  23.933  11.935 -0.0881 -0.0551 -0.0187
15550DOD     C290470  11.450  23.772  11.861  0.0883  0.1870 -0.1381
15550DOD     C390471  11.944  23.670  11.809 -0.2253 -0.2699 -0.0768
15551DOD     C190472   3.397   0.215  11.705  0.0424  0.0495  0.1257
15551DOD     C290473   2.982  30.260  11.684  0.1046  0.1548  0.2341
15551DOD     C390474   2.606  29.945  11.614 -0.0056 -0.0992  0.0145
15552DOD     C190475  17.756  14.969  26.197 -0.1495 -0.2709  0.0560
15552DOD     C290476  17.917  14.572  25.975  0.2849 -0.1120 -0.3740
15552DOD     C390477  18.019  14.190  25.695  0.1547  0.0970  0.0502
15553DOD     C190478  24.822  13.378  18.436 -0.0952 -0.0394  0.0410
15553DOD     C290479  24.792  12.992  18.654  0.2799 -0.2421  0.2967
15553DOD     C390480  25.112  12.636  18.697  0.0496  0.0092  0.0197
15554DOD     C190481  13.715  23.154  16.849  0.0620 -0.1656 -0.1355
15554DOD     C290482  13.437  23.192  16.455  0.1087 -0.0277 -0.2344
15554DOD     C390483  13.473  23.310  16.049 -0.0901  0.0951 -0.2096
15555DOD     C190484   4.729  24.979  25.941  0.1065  0.1588  0.4248
15555DOD     C290485   5.111  25.214  25.967 -0.2166 -0.0224 -0.1147
15555DOD     C390486   5.426  25.273  26.287 -0.1080  0.0437  0.1646
15556DOD     C190487  15.837  18.575  27.944 -0.1391 -0.1719  0.3592
15556DOD     C290488  16.164  18.334  27.696  0.2013 -0.1129 -0.1147
15556DOD     C390489  15.968  17.898  27.616 -0.0800  0.0107  0.0467
15557DOD     C190490  28.144   2.719   7.239  0.1827  0.0220 -0.0072
15557DOD     C290491  28.174   3.167   7.105 -0.2238  0.2788 -0.2128
15557DOD     C390492  27.915   3.580   7.021 -0.0315 -0.3058  0.0977
15558DOD     C190493  26.174  27.147   3.923  0.4382 -0.3708 -0.0251
15558DOD     C290494  26.422  27.110   4.345  0.2211 -0.1366 -0.0981
15558DOD     C390495  26.329  27.322   4.786  0.2503  0.1575  0.2648
15559DOD     C190496   8.636  28.176  18.542 -0.0609 -0.0108 -0.0743
15559DOD     C290497   8.904  28.514  18.701  0.0881  0.2922  0.1173
15559DOD     C390498   9.047  28.945  18.942  0.0299  0.0475 -0.0642
15560DOD     C190499   3.265  14.107   4.804 -0.2954 -0.2699 -0.1798
15560DOD     C290500   2.862  13.815   4.878  0.0920  0.0211  0.0420
15560DOD     C390501   2.576  13.642   5.175  0.2455  0.0034 -0.0331
15561DOD     C190502  13.735  13.606   4.557  0.3166 -0.2191 -0.3651
15561DOD     C290503  13.461  13.813   4.838  0.1096  0.0358  0.0790
15561DOD     C390504  13.340  14.000   5.225  0.3428 -0.1867  0.1046
15562DOD     C190505  25.063  12.272   0.374 -0.2508  0.2680 -0.1409
15562DOD     C290506  25.034  12.531  -0.023  0.1725 -0.1149 -0.3732
15562DOD     C390507  25.082  12.812  29.902 -0.0658 -0.5312  0.0464
15563DOD     C190508   5.718   4.519  18.480 -0.0365  0.0989 -0.2432
15563DOD     C290509   5.714   4.758  18.119  0.0230  0.2184  0.2645
15563DOD     C390510   5.969   4.983  17.825 -0.0529  0.1987  0.1458
15564DOD     C190511   1.356   1.872  12.689  0.1977 -0.0393  0.0385
15564DOD     C290512   1.454   2.284  12.681 -0.0660  0.1897  0.3102
15564DOD     C390513   1.292   2.709  12.710 -0.0689  0.0736 -0.0654
15565DOD     C190514   3.222  29.424   4.477  0.2042  0.3431  0.2826
15565DOD     C290515   2.955  29.788   4.369  0.1035  0.0713  0.1111
15565DOD     C390516   2.678  29.739   4.002 -0.3669 -0.1783  0.0586
15566DOD     C190517   9.137  18.838  26.231 -0.0053 -0.1019  0.1366
15566DOD     C290518   9.372  19.181  26.031  0.1623 -0.0070 -0.0223
15566DOD     C390519   9.483  19.470  25.685 -0.0289 -0.1747  0.1171
15567DOD     C190520   8.961   9.502   2.843  0.3394 -0.0676 -0.0988
15567DOD     C290521   9.005   9.802   2.478  0.2272  0.2555  0.0066
15567DOD     C390522   9.057  10.131   2.187 -0.4310  0.0060 -0.0423
15568DOD     C190523  27.875  21.578   5.451 -0.0502 -0.0644  0.2683
15568DOD     C290524  27.698  21.486   5.097 -0.0917 -0.1058  0.0542
15568DOD     C390525  27.820  21.141   4.869 -0.1145 -0.0759  0.2910
15569DOD     C190526   1.585  19.231  25.780  0.3104  0.3016 -0.1636
15569DOD     C290527   1.171  19.328  25.898  0.1044 -0.0705  0.0123
15569DOD     C390528   0.838  19.456  25.660  0.2396 -0.2635  0.0781
15570DOD     C190529   1.825  15.821  12.292  0.1456 -0.2874  0.0908
15570DOD     C290530   2.177  15.896  11.981 -0.4562  0.1276  0.1735
15570DOD     C390531   2.299  16.244  11.655 -0.2269 -0.2889  0.1139
15571DOD     C190532  14.079   5.412   3.497 -0.0828  0.1119 -0.1095
15571DOD     C290533  14.364   5.293   3.085  0.0364 -0.1428  0.1893
15571DOD     C390534  14.752   5.134   2.822  0.1359 -0.1537  0.0898
15572DOD     C190535   5.154  28.610  29.565  0.0796  0.0400 -0.0430
15572DOD     C290536   5.197  28.433  29.964  0.0265 -0.0980  0.2394
15572DOD     C390537   5.354  28.243   0.012  0.1797  0.0191 -0.0136
15573DOD     C190538  16.875  17.508   3.862 -0.4768  0.3652  0.2882
15573DOD     C290539  16.649  17.751   3.498 -0.0319  0.3001  0.2855
15573DOD     C390540  16.821  17.692   3.012 -0.2859  0.0380 -0.2629
15574DOD     C190541  19.054  13.577   0.496 -0.1284  0.0577  0.1900
15574DOD     C290542  19.222  13.134   0.560  0.1048  0.4469 -0.2670
15574DOD     C390543  19.235  12.694   0.390 -0.0097 -0.1440 -0.0635
15575DOD     C190544  13.898   6.761  28.349 -0.0147 -0.0684  0.2732
15575DOD     C290545  13.576   7.086  28.490  0.0171 -0.3404  0.1299
15575DOD     C390546  13.290   7.439  28.324  0.1544 -0.1470  0.1091
15576DOD     C190547   7.749  19.684   0.405 -0.0421  0.0904 -0.1532
15576DOD     C290548   7.550  20.033   0.592  0.0560 -0.0155  0.3479
15576DOD     C390549   7.220  20.110   0.979 -0.0242  0.1219 -0.1430
15577DOD     C190550  12.001  16.971  14.238 -0.0315 -0.0200 -0.0082
15577DOD     C290551  12.145  16.844  14.688  0.1189  0.0454 -0.1000
15577DOD     C390552  12.337  16.474  14.930 -0.0441 -0.1985 -0.1459
15578DOD     C190553  20.003  28.948   8.388 -0.3509 -0.2331  0.0611
15578DOD     C290554  19.614  28.879   8.147  0.3749 -0.0377  0.4307
15578DOD     C390555  19.392  28.683   7.810 -0.2608 -0.2197  0.0916
15579DOD     C190556  19.881  29.917   1.260  0.0486  0.1501 -0.1308
15579DOD     C290557  19.459  29.818   1.037 -0.3598 -0.1173 -0.1795
15579DOD     C390558  19.069  29.869   1.290  0.0213  0.0398 -0.0977
15580DOD     C190559  30.160  23.158  19.886 -0.2464 -0.0298  0.2353
15580DOD     C290560   0.147  23.373  19.572  0.0537 -0.0754 -0.2106
15580DOD     C390561   0.120  23.550  19.136 -0.0205 -0.3627 -0.2602
15581DOD     C190562  20.983  24.710  21.850  0.0826  0.2690  0.0656
15581DOD     C290563  21.059  24.323  22.102  0.0667  0.2942 -0.0838
15581DOD     C390564  21.031  24.136  22.507  0.0574 -0.0270  0.0304
15582DOD     C190565   6.004  30.065  27.228 -0.0700 -0.0571 -0.0474
15582DOD     C290566   6.087  30.085  26.804 -0.2689  0.4693  0.0612
15582DOD     C390567   6.433  29.887  26.561  0.1377  0.0472  0.1261
15583DOD     C190568   7.058  10.874  14.196 -0.2637  0.0857 -0.2735
15583DOD     C290569   7.358  10.524  14.369 -0.2626 -0.1281 -0.0090
15583DOD     C390570   7.777  10.457  14.519  0.4430 -0.2277 -0.1062
15584DOD     C190571   8.482  -0.008  26.617  0.0602 -0.0682 -0.1733
15584DOD     C290572   8.267  30.215  26.205 -0.2610  0.0180 -0.1290
15584DOD     C390573   7.831   0.079  26.111  0.3829  0.2035 -0.3090
15585DOD     C190574   9.292  21.850  22.376 -0.3192  0.4281 -0.0035
15585DOD     C290575   9.364  22.265  22.492 -0.0157  0.1053  0.0642
15585DOD     C390576   9.545  22.669  22.649 -0.0765  0.1536 -0.1756
15586DOD     C190577  27.632   8.553  18.590 -0.0908 -0.0631 -0.1153
15586DOD     C290578  27.393   8.408  18.210 -0.0432 -0.2593 -0.1261
15586DOD     C390579  27.180   8.612  17.858 -0.1479 -0.0378  0.2042
15587DOD     C190580  13.869   5.265   8.321 -0.0726  0.1510 -0.0090
15587DOD     C290581  14.149   5.451   7.910  0.2027  0.0122 -0.0060
15587DOD     C390582  14.313   5.740   7.617  0.1157 -0.1984 -0.1167
15588DOD     C190583  28.520   6.418   8.250 -0.0280  0.2208  0.2161
15588DOD     C290584  28.873   6.089   8.223 -0.0394  0.0761 -0.4232
15588DOD     C390585  29.168   5.852   7.879  0.1038  0.0339  0.2216
15589DOD     C190586   8.242   4.923   3.084 -0.4379 -0.2806  0.2307
15589DOD     C290587   8.571   4.614   3.170 -0.1045  0.3142 -0.0988
15589DOD     C390588   8.695   4.123   3.196  0.0329 -0.1546 -0.2061
15590DOD     C190589  24.611  12.184  12.680  0.4155 -0.0950 -0.0219
15590DOD     C290590  24.850  12.209  13.111  0.0822 -0.2576  0.0096
15590DOD     C390591  25.065  12.270  13.577  0.0374 -0.1048 -0.1297
15591DOD     C190592  15.460  27.252  21.898  0.1291 -0.2318 -0.3001
15591DOD     C290593  15.460  27.073  21.490  0.0788 -0.5231 -0.0935
15591DOD     C390594  15.581  26.796  21.166 -0.1194  0.0489 -0.1917
15592DOD     C190595   5.767  18.535  29.432  0.3138 -0.1252 -0.0422
15592DOD     C290596   6.190  18.644  29.299  0.0260 -0.1979 -0.1744
15592DOD     C390597   6.539  18.462  29.019  0.1175  0.3609 -0.1042
15593DOD     C190598   2.014  26.314  21.103 -0.2542 -0.0397 -0.0013
15593DOD     C290599   1.886  25.898  20.935  0.0862 -0.1264 -0.1925
15593DOD     C390600   1.479  25.800  20.783 -0.0069 -0.4448 -0.1124
15594DOD     C190601  23.797   0.939  29.510 -0.3286  0.0025  0.0058
15594DOD     C290602  23.830   1.303  29.734 -0.3042  0.0905  0.1227
15594DOD     C390603  23.803   1.601  30.078  0.0904  0.1491 -0.3314
15595DOD     C190604  22.702  19.098   3.043 -0.1867 -0.0891 -0.1255
15595DOD     C290605  22.568  18.723   2.796 -0.3806  0.1919 -0.0264
15595DOD     C390606  22.177  18.719   2.499  0.0310 -0.0117  0.2094
15596DOD     C190607   1.724  27.178  25.073 -0.3557 -0.1998  0.1540
15596DOD     C290608   1.516  27.584  25.205 -0.0742 -0.1825 -0.3924
15596DOD     C390609   1.137  27.760  25.391 -0.0422 -0.0766  0.0483
15597DOD     C190610  11.431  24.175  15.769 -0.1549  0.4187  0.1939
15597DOD     C290611  11.016  24.193  15.992 -0.0390 -0.3871  0.3222
15597DOD     C390612  10.640  24.252  16.227  0.2064  0.0508  0.0223
15598DOD     C190613  18.352   6.148   0.963 -0.0836 -0.1007  0.0800
15598DOD     C290614  18.105   5.829   0.871 -0.3743  0.0214 -0.3744
15598DOD     C390615  17.807   5.517   0.678 -0.0936  0.3034  0.0867
15599DOD     C190616  11.942  24.005  15.673  0.3735  0.0833  0.2176
15599DOD     C290617  12.007  23.625  15.341  0.4385 -0.0154  0.0933
15599DOD     C390618  12.064  23.193  15.285 -0.4402 -0.0964  0.2752
15600DOD     C190619   4.329  17.094  21.737 -0.0779  0.0531  0.0183
15600DOD     C290620   4.329  17.114  21.260  0.0996  0.1331 -0.1426
15600DOD     C390621   4.409  17.310  20.802  0.0458 -0.1217  0.0650
15601DOD     C190622  28.428  16.263  13.054  0.1930  0.3828 -0.0180
15601DOD     C290623  27.989  16.226  12.970  0.1615  0.1797  0.2310
15601DOD     C390624  27.608  16.028  13.165 -0.0852  0.0834  0.0624
15602DOD     C190625   3.764  26.668  21.280  0.3517  0.0408  0.2141
15602DOD     C290626   4.055  26.926  21.575 -0.0322  0.1040  0.1313
15602DOD     C390627   4.179  26.931  22.062 -0.0734 -0.1062  0.2164
15603DOD     C190628   4.968  22.047  27.837 -0.1750  0.1980 -0.0423
15603DOD     C290629   5.115  22.352  27.514 -0.1141  0.0308 -0.1596
15603DOD     C390630   5.307  22.330  27.091  0.0931 -0.0280 -0.0996
15604DOD     C190631   8.582  10.850   9.246 -0.3452 -0.2204  0.1175
15604DOD     C290632   8.223  10.813   8.934 -0.1636 -0.2008  0.0227
15604DOD     C390633   7.960  10.742   8.544 -0.1201  0.2512 -0.0404
15605DOD     C190634   3.043  17.778  15.865  0.1614  0.2248  0.2125
15605DOD     C290635   3.169  17.431  15.648 -0.2712  0.0595  0.2536
15605DOD     C390636   3.265  17.351  15.175  0.1751 -0.1447  0.0169
15606DOD     C190637   1.886  18.957   3.936 -0.3189  0.0278 -0.2472
15606DOD     C290638   1.605  19.284   4.072 -0.2178  0.1493  0.0043
15606DOD     C390639   1.286  19.675   4.170 -0.1018  0.1627  0.3593
15607DOD     C190640  24.098  18.425   7.582  0.3334  0.1636  0.0643
15607DOD     C290641  23.686  18.598   7.570 -0.1875 -0.1077 -0.0727
15607DOD     C390642  23.522  18.928   7.325  0.1525 -0.2119 -0.0382
15608DOD     C190643   0.547  24.210   4.172  0.0717  0.0086  0.3751
15608DOD     C290644   0.225  24.576   4.106  0.0127  0.1214 -0.0998
15608DOD     C390645   0.368  25.029   4.142  0.3713 -0.3929 -0.0415
15609DOD     C190646  30.074   8.611  13.331 -0.4391 -0.1078 -0.0845
15609DOD     C290647  29.772   8.310  13.318 -0.1295  0.0132  0.0042
15609DOD     C390648  29.414   8.019  13.316 -0.2101 -0.2511  0.0575
15610DOD     C190649  13.447  24.547  28.887  0.1920  0.0367  0.3466
15610DOD     C290650  13.868  24.426  29.165  0.1519  0.2472  0.0703
15610DOD     C390651  14.331  24.413  29.079  0.0963 -0.4182 -0.0802
15611DOD     C190652  25.638   1.566   4.856  0.1682 -0.2195 -0.1234
15611DOD     C290653  25.746   1.216   5.125 -0.1296  0.0200  0.0756
15611DOD     C390654  25.839   0.744   5.187 -0.4280  0.0404 -0.0209
15612DOD     C190655   2.529  27.480  23.022 -0.0141  0.0967  0.2466
15612DOD     C290656   2.479  27.912  23.086 -0.1261 -0.0240  0.2248
15612DOD     C390657   2.258  28.272  22.844 -0.0763  0.0141 -0.0383
15613DOD     C190658   9.503  28.906   3.670 -0.1551 -0.0215  0.0310
15613DOD     C290659   9.333  29.256   3.389 -0.3393  0.0891 -0.0269
15613DOD     C390660   9.485  29.453   2.997 -0.3007  0.3787  0.0397
15614DOD     C190661  26.887  18.891  11.154  0.0623 -0.3002 -0.1550
15614DOD     C290662  26.873  19.288  11.497  0.1334  0.1473 -0.0605
15614DOD     C390663  26.961  19.432  11.925  0.0297  0.0976 -0.0011
15615DOD     C190664  18.480  24.694  28.824  0.0914  0.3014  0.0493
15615DOD     C290665  17.996  24.581  28.801  0.0418  0.1156  0.1152
15615DOD     C390666  17.574  24.403  29.025 -0.2453  0.1413  0.0616
15616DOD     C190667  10.701  25.535  10.774  0.2873  0.3462 -0.0186
15616DOD     C290668  10.692  25.550  10.292 -0.0696 -0.0293 -0.4029
15616DOD     C390669  10.667  25.896  10.019 -0.3025  0.0641  0.4943
15617DOD     C190670  24.498   2.310  26.066 -0.0108  0.2125  0.1609
15617DOD     C290671  24.918   2.578  26.124  0.0515  0.0256 -0.1360
15617DOD     C390672  25.349   2.699  26.293  0.2241 -0.1775 -0.0389
15618DOD     C190673   8.828   6.628   0.477  0.0866  0.0494  0.1828
15618DOD     C290674   8.905   6.874   0.896  0.4508  0.2000 -0.2692
15618DOD     C390675   8.878   6.797   1.371 -0.1442 -0.4267  0.0093
15619DOD     C190676   7.631  11.375  16.602 -0.0674 -0.0623  0.1022
15619DOD     C290677   7.129  11.349  16.578 -0.0405  0.2086 -0.0873
15619DOD     C390678   6.910  11.661  16.271  0.0853 -0.0221  0.1217
15620DOD     C190679  22.453  21.843  24.952  0.1603  0.0887  0.0652
15620DOD     C290680  22.179  21.902  25.323 -0.2895  0.5219  0.0840
15620DOD     C390681  21.790  22.096  25.523 -0.2737  0.2620  0.0122
15621DOD     C190682   2.833  16.932   3.899 -0.1256  0.0324 -0.0470
15621DOD     C290683   2.617  16.522   4.075  0.2820 -0.1234  0.1851
15621DOD     C390684   2.347  16.169   4.140  0.0824  0.2984 -0.0971
15622DOD     C190685  12.445  12.754  20.508  0.1583  0.3952 -0.0280
15622DOD     C290686  12.421  12.760  20.954  0.0042  0.3757  0.2002
15622DOD     C390687  12.451  12.750  21.388  0.1292 -0.2531  0.1737
15623DOD     C190688  22.376   4.585   8.824 -0.3074  0.0998 -0.0887
15623DOD     C290689  22.415   4.426   9.231 -0.0518  0.1238  0.0819
15623DOD     C390690  22.652   4.201   9.580 -0.0207  0.1978  0.1553
15624DOD     C190691  19.027  14.299  18.746 -0.1185 -0.3392 -0.0909
15624DOD     C290692  18.674  14.512  18.599  0.0923  0.2696  0.3400
15624DOD     C390693  18.248  14.638  18.459  0.3496  0.0736  0.0368
15625DOD     C190694  20.066   5.636  27.050  0.1629 -0.0863 -0.2611
15625DOD     C290695  20.080   6.101  26.986 -0.0588  0.0363  0.2838
15625DOD     C390696  20.233   6.483  26.835 -0.0409  0.0145  0.2574
15626DOD     C190697  11.254   2.678  17.961 -0.0729  0.0881 -0.0690
15626DOD     C290698  11.629   2.909  18.160  0.1376 -0.0613  0.2045
15626DOD     C390699  11.622   3.266  18.465  0.2709  0.1471 -0.2176
15627DOD     C190700   3.065  21.553  20.224  0.1829 -0.1856  0.0245
15627DOD     C290701   2.794  21.338  20.508  0.0262  0.0332  0.2194
15627DOD     C390702   2.590  21.155  20.886 -0.0753 -0.1565 -0.4630
15628DOD     C190703  11.181   1.796   1.036  0.0830  0.1413 -0.2272
15628DOD     C290704  10.808   1.565   1.237  0.1173  0.0726  0.3580
15628DOD     C390705  10.615   1.649   1.628 -0.2714  0.0236 -0.0853
15629DOD     C190706   6.898  12.019   8.661 -0.0115  0.1463  0.1136
15629DOD     C290707   6.929  12.306   9.046  0.3301 -0.1629  0.0912
15629DOD     C390708   6.956  12.353   9.511  0.0212 -0.1905 -0.0311
15630DOD     C190709  13.675   3.346  21.070 -0.0217  0.2882  0.0921
15630DOD     C290710  14.047   3.511  20.762  0.2167 -0.1365 -0.1087
15630DOD     C390711  14.443   3.553  20.536 -0.2598 -0.1376  0.1860
15631DOD     C190712  10.983  20.012  17.338  0.0500  0.3921  0.0856
15631DOD     C290713  10.749  20.437  17.416  0.0769  0.0721  0.3207
15631DOD     C390714  10.426  20.782  17.534 -0.1448  0.1363 -0.0463
15632DOD     C190715   5.267   5.089  19.239  0.2563  0.1106  0.3072
15632DOD     C290716   5.486   4.851  19.550 -0.0416  0.0555 -0.2654
15632DOD     C390717   5.719   4.704  19.908  0.3600 -0.4008 -0.0364
15633DOD     C190718  19.049  26.625  27.960  0.0820 -0.0324 -0.0627
15633DOD     C290719  18.956  26.909  28.283 -0.0925  0.0200 -0.3065
15633DOD     C390720  18.667  27.089  28.644 -0.1024  0.3235  0.1309
15634DOD     C190721   8.934  24.502  12.548  0.3845 -0.0410 -0.1311
15634DOD     C290722   8.636  24.539  12.163  0.0025 -0.0064 -0.1362
15634DOD     C390723   8.254  24.465  11.954 -0.0121  0.0716 -0.3690
15635DOD     C190724  22.661  11.928  23.194 -0.1925  0.1012  0.0163
15635DOD     C290725  23.003  11.821  22.903  0.1043 -0.0221 -0.0110
15635DOD     C390726  23.077  11.826  22.410 -0.2686 -0.0677 -0.1307
15636DOD     C190727  10.809  20.508  12.205  0.0346 -0.3821 -0.2977
15636DOD     C290728  10.811  20.949  12.377  0.1500  0.0791  0.1853
15636DOD     C390729  10.573  21.364  12.486 -0.1169  0.0103 -0.1372
15637DOD     C190730  29.317  17.431   0.136  0.1754  0.1326  0.1445
15637DOD     C290731  29.609  17.127  30.258  0.1040  0.2334  0.1711
15637DOD     C390732  29.919  16.888  29.969  0.1457  0.1760 -0.0467
15638DOD     C190733  12.869  22.610  10.803  0.0282 -0.0811  0.1234
15638DOD     C290734  12.841  22.287  11.151 -0.2273  0.0608  0.1066
15638DOD     C390735  13.197  22.140  11.463 -0.2551  0.3024 -0.0416
15639DOD     C190736  15.992  28.096  25.120  0.0979  0.0269  0.2635
15639DOD     C290737  15.954  28.135  24.692 -0.0530  0.1541  0.1560
15639DOD     C390738  15.939  28.487  24.391  0.2807 -0.2191 -0.2033
15640DOD     C190739  21.129  20.084  20.659 -0.0645 -0.0555  0.1139
15640DOD     C290740  21.518  20.135  20.385  0.2861  0.2425 -0.1097
15640DOD     C390741  21.906  19.924  20.188 -0.4065  0.2159 -0.0429
15641DOD     C190742  23.502   2.384   0.108 -0.1863  0.1288 -0.0876
15641DOD     C290743  23.251   2.282  30.007  0.0853  0.0687  0.0456
15641DOD     C390744  23.044   2.530  29.643  0.0399 -0.0627 -0.0972
15642DOD     C190745  22.438   6.865  17.663 -0.1677  0.2163  0.1682
15642DOD     C290746  22.107   7.139  17.844  0.0505 -0.3421  0.3867
15642DOD     C390747  21.827   7.461  17.643  0.0196  0.0253  0.2656
15643DOD     C190748  21.654  21.957   4.134 -0.0747  0.3013  0.0103
15643DOD     C290749  21.632  21.526   3.960 -0.0485  0.3015  0.0889
15643DOD     C390750  21.853  21.092   3.922  0.2278 -0.1629  0.1973
15644DOD     C190751  16.432  28.989  20.688  0.1479 -0.2294 -0.1492
15644DOD     C290752  16.844  28.805  20.627 -0.0262  0.1755 -0.1381
15644DOD     C390753  17.268  29.017  20.770 -0.1001  0.0150  0.0046
15645DOD     C190754   1.734  27.183  14.502  0.1537  0.4784 -0.0857
15645DOD     C290755   1.613  27.125  14.064 -0.0351  0.1524 -0.2455
15645DOD     C390756   1.767  27.199  13.600  0.0283 -0.0674  0.0282
15646DOD     C190757   4.024   3.869   5.714 -0.0290  0.1300  0.0570
15646DOD     C290758   4.121   3.452   5.579  0.1392  0.1175  0.1824
15646DOD     C390759   4.229   3.128   5.806 -0.1505  0.0802  0.1443
15647DOD     C190760   9.453   5.121   2.715 -0.1927  0.1078  0.1612
15647DOD     C290761   9.586   5.321   3.109  0.0893  0.1849  0.1552
15647DOD     C390762   9.951   5.366   3.340  0.1804  0.2470 -0.1832
15648DOD     C190763  17.868  27.878  21.102  0.2430 -0.1871 -0.0748
15648DOD     C290764  18.213  27.655  21.384  0.0714 -0.2910 -0.0544
15648DOD     C390765  18.507  27.328  21.539 -0.0502 -0.2462  0.2483
15649DOD     C190766   5.888  19.109  13.684 -0.2656  0.3275 -0.2920
15649DOD     C290767   5.486  19.117  13.824  0.1020 -0.2615 -0.0794
15649DOD     C390768   5.070  19.322  14.001 -0.0754  0.2312  0.2609
15650DOD     C190769  11.835  20.919   6.756  0.1221 -0.1425  0.0038
15650DOD     C290770  11.661  20.500   6.702  0.2790 -0.0492  0.2855
15650DOD     C390771  11.532  20.091   6.785 -0.0114  0.1389 -0.2895
15651DOD     C190772   9.436  27.190  21.502 -0.1220  0.0392  0.0237
15651DOD     C290773   9.637  27.522  21.300 -0.3397  0.0258  0.0774
15651DOD     C390774   9.813  27.931  21.439  0.0056  0.1726 -0.3264
15652DOD     C190775  11.595   3.364  11.705 -0.1782 -0.2217 -0.1700
15652DOD     C290776  11.242   3.471  12.073  0.2575 -0.1535  0.0132
15652DOD     C390777  11.271   3.647  12.514  0.2795  0.1019 -0.2368
15653DOD     C190778   5.942  23.380   4.768  0.1813 -0.1802 -0.1643
15653DOD     C290779   5.819  23.625   4.395  0.2320 -0.0224 -0.1260
15653DOD     C390780   5.621  23.895   4.097  0.1028 -0.1581  0.4285
15654DOD     C190781  19.441   4.349  22.005  0.1691 -0.2710 -0.0572
15654DOD     C290782  19.192   4.758  21.947 -0.0162  0.0102  0.3176
15654DOD     C390783  18.751   5.023  21.940 -0.0924  0.1759  0.4419
15655DOD     C190784  13.327  21.845   9.313 -0.1418 -0.0950 -0.2490
15655DOD     C290785  12.967  22.047   9.593  0.1396  0.3246  0.0460
15655DOD     C390786  12.485  22.032   9.725 -0.2092 -0.0295 -0.3079
15656DOD     C190787   1.560  16.545  29.041 -0.2472  0.1101  0.1682
15656DOD     C290788   1.923  16.825  29.073  0.0435 -0.1111  0.1792
15656DOD     C390789   2.317  16.760  28.913  0.1707  0.0341  0.0797
15657DOD     C190790  19.317   5.719  20.761  0.1654 -0.2954  0.1835
15657DOD     C290791  19.739   5.855  20.899  0.0573 -0.2643  0.1133
15657DOD     C390792  20.147   6.042  20.937 -0.3309 -0.1967 -0.0265
15658DOD     C190793  17.031  24.987  16.563  0.2560  0.0988  0.3089
15658DOD     C290794  17.320  24.689  16.805  0.1486 -0.0392  0.0080
15658DOD     C390795  17.746  24.770  16.932  0.2059 -0.1353 -0.0214
15659DOD     C190796   8.808   6.372  27.777  0.1147  0.1517  0.0980
15659DOD     C290797   9.081   6.475  28.128 -0.1374  0.0539  0.3283
15659DOD     C390798   9.539   6.583  28.249  0.1605 -0.3005 -0.1586
15660DOD     C190799   0.681  17.810   2.096 -0.0992  0.1625  0.0361
15660DOD     C290800   0.925  17.501   2.326 -0.2492 -0.1024  0.1862
15660DOD     C390801   0.989  17.058   2.459 -0.2309  0.0695  0.0378
15661DOD     C190802  27.681  29.117   9.777  0.0448  0.1746 -0.1104
15661DOD     C290803  28.121  29.146   9.874  0.2976  0.0897  0.0554
15661DOD     C390804  28.415  28.802   9.841  0.2799 -0.0101  0.0819
15662DOD     C190805   1.349  18.550  29.829 -0.0137  0.0694 -0.1180
15662DOD     C290806   0.997  18.263  29.697 -0.0386  0.4533 -0.1161
15662DOD     C390807   0.819  17.873  29.414  0.0423  0.1299  0.0113
15663DOD     C190808  11.448  23.031   9.119 -0.1061 -0.4477  0.0152
15663DOD     C290809  11.532  22.927   9.557 -0.0305 -0.0033  0.3019
15663DOD     C390810  11.477  22.831  10.023 -0.0814  0.0210  0.1144
15664DOD     C190811  25.467  20.031   4.883  0.0568 -0.0055  0.3243
15664DOD     C290812  25.744  20.125   5.208  0.1637 -0.1168  0.0712
15664DOD     C390813  25.892  20.347   5.566 -0.1440  0.2784 -0.3615
15665DOD     C190814   0.398  27.419  12.188  0.0730  0.2781  0.0000
15665DOD     C290815   0.270  27.867  12.292  0.3595  0.2821  0.2368
15665DOD     C390816   0.249  27.942  12.770 -0.3344  0.2244 -0.0999
15666DOD     C190817   0.568  19.707   3.672 -0.0916  0.0829 -0.2101
15666DOD     C290818   0.700  19.275   3.744 -0.3368  0.2932  0.1790
15666DOD     C390819   0.684  18.855   3.928  0.0955 -0.0687  0.1065
15667DOD     C190820  18.569  27.929   5.061  0.1625  0.3430  0.3712
15667DOD     C290821  18.290  28.150   5.401 -0.0017  0.1463  0.2254
15667DOD     C390822  18.155  27.973   5.782  0.1441 -0.1389  0.0502
15668DOD     C190823   1.058   8.423  14.432 -0.1615 -0.1183  0.2081
15668DOD     C290824   1.403   8.539  14.739 -0.0635 -0.0838  0.1654
15668DOD     C390825   1.795   8.342  14.993  0.1166  0.0372  0.1865
15669DOD     C190826  14.894  17.223   4.699 -0.2002 -0.0536  0.3844
15669DOD     C290827  14.835  16.970   4.302 -0.2125  0.1600  0.2116
15669DOD     C390828  14.579  16.591   4.263 -0.2392  0.3090 -0.2239
15670DOD     C190829  16.313   4.126   5.199  0.2159 -0.0376  0.1258
15670DOD     C290830  16.001   3.891   5.046  0.0262 -0.1430  0.1923
15670DOD     C390831  15.955   3.419   4.890 -0.0311 -0.2669 -0.2571
15671DOD     C190832  19.674   2.393   4.921  0.1727 -0.0103 -0.2114
15671DOD     C290833  19.329   2.144   5.171  0.1461  0.2022  0.1572
15671DOD     C390834  18.958   1.831   5.153 -0.0117  0.1312 -0.4891
15672DOD     C190835  22.108   5.062  15.954 -0.0603  0.1491  0.1007
15672DOD     C290836  21.651   4.952  16.006  0.0373 -0.0935 -0.1532
15672DOD     C390837  21.213   4.814  16.103  0.4976  0.0264 -0.2736
15673DOD     C190838  26.796  22.605  13.389  0.3371 -0.1355  0.2781
15673DOD     C290839  27.117  22.964  13.317  0.1280 -0.0437 -0.0456
15673DOD     C390840  27.422  23.247  13.165  0.2701  0.0132 -0.1450
15674DOD     C190841  10.723  13.767  19.485 -0.2808 -0.1030  0.3295
15674DOD     C290842  10.453  13.751  19.085 -0.1214 -0.0011 -0.1675
15674DOD     C390843  10.464  13.462  18.701 -0.1760  0.0249 -0.2359
15675DOD     C190844  16.243  30.101  16.304 -0.0672 -0.0362 -0.0563
15675DOD     C290845  16.273   0.180  16.492  0.1829  0.2074 -0.1091
15675DOD     C390846  16.539   0.507  16.737 -0.2200 -0.2176  0.0152
15676DOD     C190847  23.636  23.272  20.714 -0.1464  0.3519 -0.0716
15676DOD     C290848  23.820  22.859  20.487 -0.2923  0.0684 -0.0373
15676DOD     C390849  23.889  22.470  20.250 -0.3928 -0.0429 -0.0322
15677DOD     C190850  28.075  28.909  12.218 -0.0990 -0.3338 -0.1456
15677DOD     C290851  27.934  29.166  11.857 -0.2938 -0.0778 -0.3643
15677DOD     C390852  28.155  29.214  11.432  0.1271  0.0480 -0.2526
15678DOD     C190853   2.722  17.109   2.286  0.0073 -0.0001  0.3774
15678DOD     C290854   3.112  17.395   2.067 -0.0245 -0.0115  0.0701
15678DOD     C390855   3.405  17.511   1.710  0.1932 -0.0192  0.0059
15679DOD     C190856   0.378  29.140  18.320 -0.1288 -0.0132 -0.0482
15679DOD     C290857   0.766  29.493  18.273 -0.4607  0.0551  0.2988
15679DOD     C390858   1.179  29.682  18.266 -0.0440  0.0023  0.1110
15680DOD     C190859  14.507   5.912   1.627 -0.4533  0.1817 -0.2154
15680DOD     C290860  14.498   5.668   2.050 -0.2293  0.1689 -0.0085
15680DOD     C390861  14.739   5.234   2.187 -0.2965 -0.1529  0.0963
15681DOD     C190862  29.370   7.114   1.481 -0.2043 -0.0961  0.2572
15681DOD     C290863  29.800   6.996   1.349 -0.1155 -0.0408  0.0457
15681DOD     C390864  29.955   6.688   1.073  0.1074  0.0849 -0.0031
15682DOD     C190865  26.929  12.532  12.978 -0.1424 -0.1353  0.0963
15682DOD     C290866  26.481  12.394  13.089  0.1526 -0.2368  0.1347
15682DOD     C390867  26.240  12.070  13.317  0.2792 -0.0245 -0.0494
15683DOD     C190868  14.247   6.312   8.392  0.2887 -0.0315  0.0148
15683DOD     C290869  13.952   6.655   8.460  0.3411  0.0708 -0.2433
15683DOD     C390870  14.011   7.118   8.474  0.0305 -0.1273  0.0362
15684DOD     C190871  14.120  15.897  29.294  0.3358 -0.0161 -0.1215
15684DOD     C290872  13.645  15.858  29.263 -0.2077 -0.4707 -0.0450
15684DOD     C390873  13.246  15.671  29.260 -0.1166 -0.0236  0.0760
15685DOD     C190874  26.343   4.101   4.638 -0.1373 -0.2309 -0.1381
15685DOD     C290875  25.956   4.300   4.880  0.2262 -0.0533  0.0376
15685DOD     C390876  25.903   4.633   5.211  0.0464 -0.0910  0.1031
15686DOD     C190877  17.813  28.009  12.923  0.3727  0.1926 -0.1916
15686DOD     C290878  17.451  27.908  13.212  0.3572 -0.3085  0.0042
15686DOD     C390879  16.990  27.848  13.221  0.2863 -0.2595  0.0724
15687DOD     C190880  19.441  29.516   5.762  0.1191  0.5615  0.2769
15687DOD     C290881  19.776  29.533   5.375 -0.0423 -0.1028 -0.0661
15687DOD     C390882  19.946  29.478   4.940 -0.0769  0.0320  0.1186
15688DOD     C190883  18.699   9.936   0.091 -0.0874 -0.2213 -0.1569
15688DOD     C290884  18.903  10.319   0.264  0.0855 -0.1264  0.1174
15688DOD     C390885  18.955  10.656   0.562 -0.1517 -0.1350  0.3402
15689DOD     C190886  22.761  24.341  22.769  0.1628  0.1763 -0.3182
15689DOD     C290887  22.534  24.651  22.565  0.0706  0.0196  0.2607
15689DOD     C390888  22.256  24.963  22.445  0.0931 -0.0840  0.1034
15690DOD     C190889  27.793  16.579   9.793  0.0302  0.1899 -0.1331
15690DOD     C290890  28.183  16.728   9.556 -0.2836 -0.0668 -0.2415
15690DOD     C390891  28.418  17.078   9.404  0.1361 -0.3600 -0.0649
15691DOD     C190892  11.916  25.818  23.907 -0.0280 -0.1601 -0.2344
15691DOD     C290893  12.048  25.513  24.216  0.0190 -0.1543 -0.0339
15691DOD     C390894  12.233  25.540  24.632 -0.0476 -0.2253  0.4514
15692DOD     C190895   2.184  10.919  23.938  0.1564 -0.1645  0.0472
15692DOD     C290896   1.848  11.167  23.781  0.2633  0.1278  0.0556
15692DOD     C390897   1.669  11.585  23.735  0.0406 -0.3167  0.1194
15693DOD     C190898  24.239  13.363  11.442  0.1078  0.2398 -0.0067
15693DOD     C290899  24.270  13.720  11.738 -0.1300  0.2379 -0.0273
15693DOD     C390900  24.103  13.813  12.213  0.0960 -0.5333 -0.0006
15694DOD     C190901  16.737  15.328  18.485 -0.0119  0.1774 -0.3744
15694DOD     C290902  16.835  14.930  18.655 -0.0225 -0.0528  0.1015
15694DOD     C390903  17.128  14.651  18.789 -0.0142  0.0881  0.0682
15695DOD     C190904  11.378  16.195  11.608  0.1140  0.0421  0.1103
15695DOD     C290905  11.703  15.884  11.443 -0.0665 -0.0118  0.2083
15695DOD     C390906  12.142  15.723  11.451  0.0401 -0.0868 -0.0201
15696DOD     C190907  25.633   3.441   7.484 -0.0124  0.0739  0.0288
15696DOD     C290908  25.430   3.176   7.111  0.2342  0.1876 -0.0685
15696DOD     C390909  25.403   3.003   6.667  0.1744  0.0021  0.0082
15697DOD     C190910   1.465  13.748   8.951 -0.0944 -0.1534  0.1153
15697DOD     C290911   1.176  13.736   8.505 -0.3691  0.2053 -0.2406
15697DOD     C390912   1.057  13.508   8.112 -0.2423 -0.2579 -0.0762
15698DOD     C190913  15.134  19.990  16.682 -0.1899 -0.1288 -0.1810
15698DOD     C290914  14.955  20.297  17.026 -0.2756 -0.0889  0.2793
15698DOD     C390915  14.809  20.725  17.234  0.2145 -0.1501 -0.1438
15699DOD     C190916   9.614  19.490  22.238  0.0896 -0.1516 -0.2843
15699DOD     C290917   9.939  19.735  22.077 -0.0988 -0.0376 -0.1402
15699DOD     C390918  10.335  19.961  22.323 -0.0422 -0.1760 -0.3320
15700DOD     C190919  16.035  15.811  14.574  0.0502 -0.0135  0.0983
15700DOD     C290920  15.798  15.621  14.203  0.0466 -0.1747 -0.4306
15700DOD     C390921  15.868  15.548  13.739  0.1796 -0.2433 -0.1036
15701DOD     C190922  26.360   0.966  26.454  0.2652  0.0722 -0.0031
15701DOD     C290923  26.137   0.550  26.631  0.3527 -0.0574  0.1568
15701DOD     C390924  26.255   0.158  26.321  0.1775  0.0866  0.0834
15702DOD     C190925  10.163   6.290  13.307 -0.4286  0.4281 -0.0618
15702DOD     C290926  10.170   5.977  12.998  0.0946  0.2079  0.1414
15702DOD     C390927  10.125   5.509  13.067 -0.1502 -0.1647  0.0967
15703DOD     C190928  20.450   3.489  29.001  0.1210  0.0374  0.1261
15703DOD     C290929  20.300   3.059  28.902 -0.0733 -0.1096 -0.0210
15703DOD     C390930  20.283   2.623  29.103  0.2090 -0.1042  0.0902
15704DOD     C190931  13.430  21.288  15.393 -0.1676 -0.2355  0.4139
15704DOD     C290932  13.463  21.011  15.027  0.0177  0.2110 -0.0169
15704DOD     C390933  13.785  20.822  14.766 -0.2046  0.0473 -0.3046
15705DOD     C190934  22.828  13.936  12.922  0.0332 -0.3461  0.0731
15705DOD     C290935  23.217  13.869  12.953 -0.1189 -0.0608  0.0558
15705DOD     C390936  23.636  13.618  13.003 -0.2199 -0.1229  0.0276
15706DOD     C190937   8.088  25.496  24.975  0.2846  0.0272  0.2408
15706DOD     C290938   8.185  25.123  24.706 -0.0834 -0.3588  0.0394
15706DOD     C390939   8.432  24.815  24.931  0.2004 -0.2772  0.1250
15707DOD     C190940  18.984  22.728   6.449  0.0217  0.2541  0.0076
15707DOD     C290941  18.852  22.805   6.856  0.0478  0.0314  0.0353
15707DOD     C390942  18.902  23.038   7.226 -0.1522  0.1114 -0.4226
15708DOD     C190943  20.421  16.760  22.632 -0.2307 -0.0320 -0.1239
15708DOD     C290944  20.135  16.498  22.400 -0.1971  0.0408  0.0786
15708DOD     C390945  19.707  16.497  22.414  0.5821 -0.2097  0.0543
15709DOD     C190946  24.941  26.513   4.004  0.0206 -0.2815 -0.3554
15709DOD     C290947  24.760  26.947   3.840 -0.1045  0.0217  0.0172
15709DOD     C390948  24.661  27.291   3.501  0.0564  0.0473  0.1604
15710DOD     C190949  27.334  24.279  15.869 -0.2939  0.0589 -0.0570
15710DOD     C290950  26.897  24.173  16.016  0.0746 -0.3009  0.0017
15710DOD     C390951  26.726  24.115  16.440 -0.0133 -0.2620  0.0026
15711DOD     C190952  16.287  18.093  23.393  0.2251  0.1435 -0.2408
15711DOD     C290953  16.623  17.790  23.291  0.1643  0.0320  0.0077
15711DOD     C390954  16.823  17.583  23.618 -0.0115 -0.1498 -0.1593
15712DOD     C190955  23.239   0.008   8.992  0.1922 -0.4664  0.5311
15712DOD     C290956  23.398   0.426   8.980  0.1718  0.2063 -0.3495
15712DOD     C390957  23.753   0.665   8.751  0.6043  0.0221  0.0054
15713DOD     C190958   8.271  13.675  11.820  0.0848 -0.0431 -0.0513
15713DOD     C290959   8.090  13.468  11.401 -0.1569 -0.2411 -0.0421
15713DOD     C390960   8.084  13.240  11.003 -0.2285 -0.0522  0.1101
15714DOD     C190961   1.934  12.903  22.958  0.1193 -0.2627 -0.0721
15714DOD     C290962   1.474  13.032  23.001  0.3653 -0.2853  0.1072
15714DOD     C390963   1.005  12.947  23.027 -0.2075 -0.1397 -0.1155
15715DOD     C190964  13.000  29.893  12.776 -0.3039  0.3487 -0.1656
15715DOD     C290965  12.689  29.696  13.036 -0.3007  0.0893 -0.0571
15715DOD     C390966  12.413  29.631  13.413 -0.1223 -0.1629 -0.2402
15716DOD     C190967   6.921  20.214   9.963 -0.3946  0.0493  0.0490
15716DOD     C290968   7.303  20.431   9.822 -0.0417  0.1495  0.0110
15716DOD     C390969   7.603  20.532   9.456  0.1834  0.1325  0.1594
15717DOD     C190970   2.914   8.317   4.344 -0.1390 -0.0143  0.1721
15717DOD     C290971   3.030   8.120   3.914 -0.2281  0.2398  0.0158
15717DOD     C390972   3.138   7.980   3.478 -0.1594  0.1478 -0.0007
15718DOD     C190973   8.771   8.439  17.624 -0.3221 -0.0420 -0.0035
15718DOD     C290974   8.361   8.317  17.900 -0.2898 -0.3849 -0.1060
15718DOD     C390975   7.923   8.184  17.882 -0.1257 -0.0339 -0.2247
15719DOD     C190976  16.934   9.530  22.621 -0.1172  0.1906  0.0629
15719DOD     C290977  17.066   9.066  22.658  0.2321 -0.3916  0.1691
15719DOD     C390978  17.146   8.709  22.883  0.0137  0.0729 -0.0118
15720DOD     C190979  29.712   5.872  20.173 -0.1692 -0.0746 -0.1107
15720DOD     C290980  29.952   6.153  20.494  0.1965 -0.1096  0.2838
15720DOD     C390981  29.892   6.244  20.974 -0.1262  0.0371  0.4726
15721DOD     C190982  11.950   5.807  12.623  0.1490  0.1180  0.1551
15721DOD     C290983  11.496   6.101  12.593  0.2015 -0.0688  0.2181
15721DOD     C390984  11.000   6.045  12.572  0.2075 -0.3618  0.0495
15722DOD     C190985   8.927   1.191   0.876  0.0022 -0.0254 -0.0787
15722DOD     C290986   8.624   1.304   0.528 -0.0815  0.5932 -0.1947
15722DOD     C390987   8.603   1.618   0.161 -0.2054 -0.3182 -0.2295
15723DOD     C190988  24.659  24.023  24.824 -0.0237  0.2179 -0.4136
15723DOD     C290989  24.227  24.057  24.792 -0.0951 -0.0762 -0.0680
15723DOD     C390990  23.914  24.291  24.503 -0.0487 -0.0415  0.1544
15724DOD     C190991   0.633   1.374   9.709 -0.0633 -0.0422  0.2609
15724DOD     C290992   0.510   0.942   9.886 -0.1116 -0.0205 -0.3497
15724DOD     C390993   0.566   0.526  10.037 -0.0612  0.0413  0.0359
15725DOD     C190994  20.322   2.961  16.252 -0.4262 -0.0176 -0.0807
15725DOD     C290995  20.793   2.980  16.288 -0.2211  0.2010 -0.0715
15725DOD     C390996  21.180   2.986  15.982 -0.2619  0.0627  0.1424
15726DOD     C190997  26.704  13.492   1.558 -0.0362 -0.1358 -0.2817
15726DOD     C290998  26.244  13.719   1.502  0.0827 -0.2330 -0.0698
15726DOD     C390999  25.827  13.807   1.591  0.0841 -0.0339 -0.1184
15727DOD     C191000  15.339   3.638  11.831  0.3180  0.2733 -0.3597
15727DOD     C291001  14.998   3.950  11.898 -0.0922 -0.4373 -0.2079
15727DOD     C391002  14.753   4.323  12.020  0.0713  0.0051  0.1399
15728DOD     C191003  15.140  19.794   1.459 -0.1186 -0.0482  0.0485
15728DOD     C291004  14.850  20.193   1.560  0.0152 -0.0108  0.0882
15728DOD     C391005  14.526  20.437   1.684 -0.1519  0.0982 -0.2266
15729DOD     C191006  21.389  24.714   4.642  0.2587  0.1632 -0.1450
15729DOD     C291007  21.472  24.970   4.328 -0.0975 -0.2501  0.1516
15729DOD     C391008  21.681  25.214   3.997 -0.2565 -0.1228  0.2498
15730DOD     C191009  24.360   2.962  25.428 -0.0486  0.1346  0.1155
15730DOD     C291010  24.607   3.330  25.575 -0.1749  0.0487 -0.0762
15730DOD     C391011  24.837   3.613  25.857  0.0153 -0.0848 -0.2060
15731DOD     C191012   6.989  17.532  14.302 -0.0259 -0.1085  0.0551
15731DOD     C291013   6.979  18.004  14.149 -0.1905  0.4362  0.1823
15731DOD     C391014   7.183  18.347  13.905 -0.0235 -0.2423 -0.2596
15732DOD     C191015   1.014  21.134  20.153  0.1542 -0.1862 -0.2211
15732DOD     C291016   0.779  20.791  20.348 -0.0038  0.0676 -0.0264
15732DOD     C391017   0.683  20.311  20.330  0.1254  0.0004 -0.0837
15733DOD     C191018  28.250  20.857  18.655 -0.1224 -0.0956  0.0271
15733DOD     C291019  28.451  20.492  18.850  0.1070  0.0131 -0.1888
15733DOD     C391020  28.490  20.313  19.273 -0.0244 -0.0473 -0.0314
15734DOD     C191021   9.643  14.562   9.709 -0.0484 -0.3265  0.2685
15734DOD     C291022   9.648  14.447  10.137  0.0708 -0.1385  0.0463
15734DOD     C391023   9.658  14.229  10.520  0.2181  0.2261  0.2045
15735DOD     C191024   1.313  27.997  30.290 -0.1426 -0.2174 -0.2302
15735DOD     C291025   1.060  28.036   0.306 -0.1284 -0.1743 -0.2304
15735DOD     C391026   0.699  28.012   0.578  0.0111  0.3137  0.1591
15736DOD     C191027   2.185  22.753   2.161  0.2549  0.0179 -0.4384
15736DOD     C291028   1.975  22.595   1.746  0.0394 -0.0642 -0.4083
15736DOD     C391029   1.980  22.434   1.366 -0.0905 -0.2943  0.2636
15737DOD     C191030  16.943  12.923  28.439 -0.0904  0.3016 -0.1509
15737DOD     C291031  17.376  13.086  28.599 -0.1305 -0.2053 -0.0258
15737DOD     C391032  17.720  13.433  28.573  0.0564 -0.2548 -0.3206
15738DOD     C191033  15.837  16.874  15.728 -0.0123  0.1464  0.2203
15738DOD     C291034  16.112  17.266  15.746 -0.2175  0.2847 -0.0599
15738DOD     C391035  16.555  17.341  15.947  0.1493 -0.2257  0.0911
15739DOD     C191036   6.265  20.879  28.884  0.0600 -0.1604 -0.3188
15739DOD     C291037   6.343  20.606  29.258 -0.1541 -0.2246 -0.1291
15739DOD     C391038   6.177  20.588  29.705 -0.0542  0.1084  0.0564
15740DOD     C191039  15.299  20.991   1.826  0.1069 -0.2283  0.2661
15740DOD     C291040  15.042  21.050   2.205 -0.0622  0.0885  0.3439
15740DOD     C391041  14.916  20.936   2.579  0.0066  0.0256 -0.1468
15741DOD     C191042  29.086   2.280  12.767  0.2123  0.1110 -0.1889
15741DOD     C291043  28.734   2.188  13.064 -0.0211 -0.1213  0.0852
15741DOD     C391044  28.624   1.776  13.262 -0.3293 -0.1221  0.0951
15742DOD     C191045   7.932  16.379   8.626 -0.0422 -0.1679 -0.1128
15742DOD     C291046   7.691  16.076   8.803  0.0707  0.3955 -0.0366
15742DOD     C391047   7.236  16.002   8.936  0.2321 -0.1200 -0.1359
15743DOD     C191048  19.649  23.571  18.257 -0.2091 -0.0354  0.1387
15743DOD     C291049  20.159  23.656  18.253 -0.0051  0.0381  0.3725
15743DOD     C391050  20.459  23.942  18.158  0.0849 -0.0499  0.1229
15744DOD     C191051  20.868  21.587  11.846  0.1473 -0.0674  0.0717
15744DOD     C291052  20.607  21.914  11.627  0.0659  0.1196 -0.3251
15744DOD     C391053  20.315  22.275  11.521 -0.0291  0.2287  0.1579
15745DOD     C191054  11.012  28.309   7.962 -0.0894 -0.1620 -0.2184
15745DOD     C291055  11.288  28.648   8.203  0.0302 -0.0472 -0.2276
15745DOD     C391056  11.411  29.125   8.296  0.1700  0.1595 -0.1148
15746DOD     C191057  26.528   4.203  23.163  0.0145 -0.0152  0.0716
15746DOD     C291058  26.281   4.590  23.297 -0.0796  0.0865 -0.1700
15746DOD     C391059  25.921   4.782  23.487 -0.2211 -0.0882 -0.0559
15747DOD     C191060   7.421  17.158  21.023 -0.1220  0.0465 -0.0433
15747DOD     C291061   7.744  16.846  20.893 -0.1978 -0.1856  0.2389
15747DOD     C391062   7.728  16.379  20.919 -0.1142  0.4048  0.0885
15748DOD     C191063  30.241  12.910  17.643 -0.1567  0.0913 -0.1334
15748DOD     C291064  29.876  13.104  17.947 -0.3440 -0.1930 -0.3003
15748DOD     C391065  29.504  13.353  18.126 -0.0044  0.0083  0.0910
15749DOD     C191066  18.376  28.663  13.842 -0.0044  0.2957  0.1863
15749DOD     C291067  18.678  28.997  13.698  0.1224  0.4986 -0.4657
15749DOD     C391068  19.181  29.037  13.796 -0.2457  0.0108  0.1254
15750DOD     C191069   2.217  21.699  28.107  0.0820  0.1275  0.0741
15750DOD     C291070   2.599  21.600  27.882 -0.3001  0.6002  0.0759
15750DOD     C391071   2.912  21.890  27.666 -0.2697  0.3418 -0.1457
15751DOD     C191072  22.360   3.491   5.753 -0.1941 -0.0130  0.2393
15751DOD     C291073  22.813   3.661   5.788  0.0665 -0.0007  0.0945
15751DOD     C391074  23.204   3.651   6.070 -0.0254  0.3050 -0.2318
15752DOD     C191075  26.935   6.505  27.707 -0.1672 -0.2398 -0.1017
15752DOD     C291076  26.988   6.809  27.396  0.1498 -0.0028  0.2419
15752DOD     C391077  27.080   7.174  27.080  0.1116 -0.1072 -0.2060
15753DOD     C191078  21.370  21.284  27.416  0.2145  0.1179 -0.1147
15753DOD     C291079  21.108  21.607  27.160 -0.2095 -0.0757 -0.0367
15753DOD     C391080  20.765  21.846  27.020 -0.2278  0.1357  0.4104
15754DOD     C191081  22.958  17.721  15.734 -0.1467 -0.1197  0.0077
15754DOD     C291082  22.584  17.766  15.439 -0.3196 -0.1694  0.0794
15754DOD     C391083  22.126  17.866  15.307 -0.0245 -0.2335  0.2369
15755DOD     C191084  12.669   5.026   4.898  0.3087  0.1922 -0.0836
15755DOD     C291085  12.251   5.068   4.641 -0.0475 -0.0235  0.2397
15755DOD     C391086  11.795   5.195   4.712  0.1529  0.5231 -0.5190
15756DOD     C191087   7.894   9.637  13.722  0.0997 -0.0413  0.2042
15756DOD     C291088   8.286   9.555  13.858  0.0846 -0.1393  0.2519
15756DOD     C391089   8.745   9.463  13.706 -0.1027 -0.2456  0.4932
15757DOD     C191090  19.807  13.142  11.796 -0.0654  0.3373 -0.0558
15757DOD     C291091  19.711  13.413  11.417 -0.3054  0.3071  0.3614
15757DOD     C391092  19.390  13.766  11.399 -0.1712  0.0065  0.1436
15758DOD     C191093  21.968  19.770  21.056 -0.3531  0.1094 -0.2370
15758DOD     C291094  22.036  19.290  21.039 -0.1582  0.0588  0.1370
15758DOD     C391095  21.799  18.932  20.919 -0.2263 -0.0589  0.0552
15759DOD     C191096  22.782  24.177   1.222 -0.1222 -0.0714  0.3049
15759DOD     C291097  22.869  24.614   1.188  0.0667  0.0936  0.0396
15759DOD     C391098  22.610  24.964   1.308  0.1227 -0.1586 -0.1353
15760DOD     C191099  21.412  20.198  13.657  0.1543 -0.0975 -0.0637
15760DOD     C291100  21.080  19.866  13.799 -0.0800 -0.1345  0.0084
15760DOD     C391101  20.645  19.969  13.961  0.1435 -0.1754  0.4135
15761DOD     C191102  19.321   4.415   5.935  0.0578  0.1657  0.2089
15761DOD     C291103  19.098   4.423   5.518  0.1237 -0.1571  0.3471
15761DOD     C391104  18.704   4.268   5.246  0.0489  0.0576 -0.0209
15762DOD     C191105  29.378  24.523  22.201  0.0677  0.1376  0.1042
15762DOD     C291106  29.198  24.604  21.780 -0.2655  0.1362 -0.0052
15762DOD     C391107  29.205  24.340  21.436 -0.1470 -0.3143 -0.0278
15763DOD     C191108  18.273   3.013  19.254  0.0879 -0.2255 -0.0279
15763DOD     C291109  17.838   3.097  19.051  0.2417 -0.0371 -0.0112
15763DOD     C391110  17.366   3.125  19.153 -0.0547 -0.0037 -0.0124
15764DOD     C191111  28.865  18.894   7.739  0.2635 -0.2173 -0.0593
15764DOD     C291112  28.780  18.469   7.660 -0.3254  0.4068  0.2966
15764DOD     C391113  28.885  18.138   7.966 -0.2267  0.1678  0.1597
15765DOD     C191114  29.410   2.112   4.091  0.2512 -0.0702 -0.1070
15765DOD     C291115  29.563   2.166   4.490  0.0645  0.0767 -0.0200
15765DOD     C391116  29.664   1.854   4.772  0.1194 -0.0820 -0.0939
15766DOD     C191117  17.401  17.820   7.813 -0.1162  0.0774  0.0592
15766DOD     C291118  17.393  18.081   8.176 -0.0033 -0.0549 -0.2277
15766DOD     C391119  17.222  17.951   8.615  0.1054 -0.0746 -0.2356
15767DOD     C191120  24.377  25.238   1.308 -0.0962 -0.1516 -0.0640
15767DOD     C291121  24.663  25.260   1.664 -0.3067  0.0039  0.3213
15767DOD     C391122  24.869  25.600   1.927  0.1221  0.2527  0.0394
15768DOD     C191123  11.281  21.683  22.523  0.2668  0.0893 -0.0646
15768DOD     C291124  10.955  21.401  22.664  0.1369  0.1613  0.0681
15768DOD     C391125  10.533  21.393  22.779 -0.0120 -0.1895 -0.2773
15769DOD     C191126  17.335  27.255  16.522 -0.2601  0.0499 -0.0489
15769DOD     C291127  17.250  27.007  16.125 -0.2687  0.1568 -0.1331
15769DOD     C391128  16.747  27.007  16.081  0.0006  0.1116 -0.0332
15770DOD     C191129   0.057   3.331   5.458  0.1024  0.1118  0.2379
15770DOD     C291130   0.292   3.565   5.116  0.1230  0.2141 -0.0347
15770DOD     C391131   0.072   3.688   4.758 -0.2576 -0.0058  0.0187
15771DOD     C191132   0.712   4.325  17.798  0.0275  0.0264  0.3955
15771DOD     C291133   0.846   4.159  18.207  0.0488 -0.1842 -0.0167
15771DOD     C391134   1.180   4.422  18.427  0.3291 -0.0599  0.4685
15772DOD     C191135   2.089  14.377   2.571  0.2687  0.3318 -0.0051
15772DOD     C291136   2.156  14.388   3.034 -0.0134 -0.3408  0.1068
15772DOD     C391137   1.919  14.411   3.402 -0.0913 -0.2727  0.2717
15773DOD     C191138  14.194  27.507  10.358  0.0936  0.1999  0.2033
15773DOD     C291139  14.262  27.487  10.775 -0.0773  0.1329  0.3341
15773DOD     C391140  14.666  27.594  10.977 -0.0174 -0.2560  0.1481
15774DOD     C191141  10.734   5.293   9.006  0.1905 -0.4198  0.2704
15774DOD     C291142  10.645   5.017   9.371 -0.0468  0.2161 -0.2394
15774DOD     C391143  10.363   4.782   9.559 -0.0268  0.2083  0.0798
15775DOD     C191144  19.890   8.723  16.069  0.1171 -0.2721  0.0028
15775DOD     C291145  19.603   8.608  16.437 -0.1000 -0.2724  0.0396
15775DOD     C391146  19.354   8.887  16.626  0.1237 -0.2295  0.2180
15776DOD     C191147  20.140  11.609   6.063  0.0928  0.0340  0.1267
15776DOD     C291148  19.775  11.333   5.910  0.0814  0.1451  0.1302
15776DOD     C391149  19.443  10.962   5.876 -0.4603 -0.0531 -0.4279
15777DOD     C191150  29.153  18.182   0.288 -0.0904 -0.1431 -0.0332
15777DOD     C291151  28.865  18.471   0.012  0.2323 -0.3016 -0.0798
15777DOD     C391152  28.495  18.568  30.102  0.1580  0.3108 -0.3484
15778DOD     C191153   0.967  23.219  16.873 -0.2635  0.2545 -0.1009
15778DOD     C291154   0.870  22.825  17.068 -0.0590  0.2358 -0.2335
15778DOD     C391155   0.902  22.440  17.081  0.1688  0.6600 -0.2328
15779DOD     C191156   4.892  16.923   2.069  0.1786 -0.1140  0.0528
15779DOD     C291157   5.060  17.045   1.672 -0.0572  0.1762  0.1865
15779DOD     C391158   5.086  17.484   1.458  0.0251  0.1717 -0.2945
15780DOD     C191159  29.913   6.254  26.698  0.2854  0.2858 -0.1912
15780DOD     C291160  29.915   6.587  27.127  0.0954  0.4981 -0.0348
15780DOD     C391161  29.958   6.607  27.598 -0.2343  0.3739 -0.2952
15781DOD     C191162  21.814  10.540   8.222  0.2021 -0.2243 -0.2662
15781DOD     C291163  22.189  10.377   8.109 -0.1534  0.0182  0.3084
15781DOD     C391164  22.442  10.265   7.695  0.0942  0.0769 -0.1241
15782DOD     C191165  14.766   4.523   0.429  0.0573 -0.2688 -0.1015
15782DOD     C291166  14.973   4.846   0.161  0.0412  0.0014  0.1906
15782DOD     C391167  15.158   4.975  30.078 -0.2776  0.2026 -0.0275
15783DOD     C191168   7.230   7.338   9.083  0.1618 -0.0593 -0.0957
15783DOD     C291169   7.334   7.473   8.643  0.2038 -0.2324 -0.1588
15783DOD     C391170   7.692   7.409   8.366  0.1094 -0.1357 -0.1389
15784DOD     C191171  13.564   2.471  21.500  0.1739 -0.0081 -0.1907
15784DOD     C291172  13.628   2.467  22.001 -0.0182 -0.0436 -0.0982
15784DOD     C391173  13.703   2.490  22.455  0.1889  0.1149  0.0897
15785DOD     C191174   1.158  24.002   3.909 -0.0994 -0.1468 -0.3206
15785DOD     C291175   0.980  23.739   3.582 -0.0849 -0.0025 -0.0106
15785DOD     C391176   0.575  23.552   3.691  0.3122 -0.6890 -0.0170
15786DOD     C191177  24.798   5.405   5.591  0.0305 -0.2322 -0.1178
15786DOD     C291178  25.126   5.106   5.429  0.4142  0.1541  0.3570
15786DOD     C391179  25.479   4.858   5.482 -0.1531 -0.0427 -0.1104
15787DOD     C191180  20.650  17.267  22.952 -0.0288 -0.2885  0.0393
15787DOD     C291181  20.927  17.648  23.101  0.0708  0.0665 -0.0782
15787DOD     C391182  21.227  17.796  23.418  0.1112  0.0272 -0.1364
15788DOD     C191183   9.520  25.574  18.469  0.0196  0.0457 -0.2141
15788DOD     C291184   9.485  25.197  18.716 -0.1142  0.1616 -0.1932
15788DOD     C391185   9.776  24.871  18.609 -0.0673  0.0954  0.3041
15789DOD     C191186  20.797   0.404   4.761  0.2031  0.2772 -0.0691
15789DOD     C291187  21.073   0.096   4.584 -0.0989 -0.1395  0.1676
15789DOD     C391188  21.352   0.072   4.195 -0.1905 -0.0755 -0.0577
15790DOD     C191189  15.979  27.004  26.218  0.1683 -0.0716 -0.1592
15790DOD     C291190  16.319  26.859  25.927 -0.2646  0.2497  0.0431
15790DOD     C391191  16.780  26.886  25.926  0.2555  0.0650  0.0300
15791DOD     C191192  26.937  10.967  29.506  0.2001  0.2260  0.1316
15791DOD     C291193  27.409  10.866  29.499 -0.1281 -0.2297 -0.0221
15791DOD     C391194  27.867  10.728  29.524 -0.1297  0.2794  0.0943
15792DOD     C191195  16.222  18.445  29.995 -0.0971 -0.2298  0.0039
15792DOD     C291196  16.173  18.887  30.212 -0.1314 -0.0625  0.1688
15792DOD     C391197  16.201  19.361  30.197 -0.2247  0.1354  0.3152
15793DOD     C191198   6.002  16.785   0.087 -0.2669 -0.3814  0.1394
15793DOD     C291199   5.970  16.408   0.393  0.0400  0.2265  0.0835
15793DOD     C391200   6.148  15.933   0.441  0.0773  0.1087  0.1761
15794DOD     C191201  26.260  15.691   9.398 -0.1014  0.1714  0.3820
15794DOD     C291202  25.793  15.440   9.537 -0.2286 -0.1110  0.1129
15794DOD     C391203  25.634  14.984   9.578  0.0932 -0.0995  0.0391
15795DOD     C191204   2.548  24.337  21.469  0.2339  0.0259 -0.0026
15795DOD     C291205   2.514  24.553  21.890 -0.2379 -0.0525 -0.0568
15795DOD     C391206   2.299  24.918  22.021  0.1162 -0.0132 -0.1601
15796DOD     C191207  23.683  28.450  15.068 -0.2207  0.2121  0.1755
15796DOD     C291208  23.644  28.280  14.630 -0.1100  0.2940  0.0359
15796DOD     C391209  23.850  27.965  14.327  0.1628  0.0020 -0.0363
15797DOD     C191210  10.112  29.023  28.166  0.0196 -0.1457 -0.1173
15797DOD     C291211  10.373  28.618  28.160  0.2051 -0.1773  0.3636
15797DOD     C391212  10.572  28.310  28.312 -0.1569 -0.1662  0.1153
15798DOD     C191213  16.496   0.384  22.460  0.0311 -0.1916 -0.3295
15798DOD     C291214  16.666   0.672  22.123 -0.1714  0.3116  0.2762
15798DOD     C391215  17.106   0.839  21.946  0.3804 -0.0725  0.1836
15799DOD     C191216   8.686  19.398   2.733  0.0150 -0.0194 -0.2550
15799DOD     C291217   8.631  18.952   2.868 -0.1073  0.4592 -0.5653
15799DOD     C391218   8.234  18.735   2.991  0.0788 -0.0085  0.1827
15800DOD     C191219  26.981   2.569  21.669  0.0394 -0.2378 -0.0087
15800DOD     C291220  26.957   3.065  21.678 -0.0787  0.1885 -0.0285
15800DOD     C391221  26.649   3.442  21.822  0.3147 -0.0502 -0.1122
15801DOD     C191222  26.466  12.725  10.669 -0.0755  0.0910 -0.0786
15801DOD     C291223  25.987  12.763  10.570 -0.2667  0.2520 -0.0253
15801DOD     C391224  25.568  12.828  10.732 -0.2935 -0.3805  0.2044
15802DOD     C191225  28.212  27.412  10.700 -0.3790  0.2006 -0.1807
15802DOD     C291226  28.659  27.434  11.003 -0.2672 -0.0633  0.1273
15802DOD     C391227  29.140  27.471  11.032  0.1130  0.2573 -0.1613
15803DOD     C191228  21.945   4.025  22.447 -0.0452 -0.1604 -0.3108
15803DOD     C291229  21.634   3.708  22.366 -0.0380  0.4154  0.2215
15803DOD     C391230  21.315   3.383  22.475  0.2068 -0.3306  0.1865
15804DOD     C191231  16.776   5.844   4.745  0.0107 -0.2094  0.0633
15804DOD     C291232  17.173   5.956   4.977  0.0232  0.0188 -0.0028
15804DOD     C391233  17.344   6.350   5.197 -0.2052 -0.1193  0.2818
15805DOD     C191234  11.974  13.814  11.170 -0.0423  0.3007  0.1414
15805DOD     C291235  12.432  13.794  11.362 -0.1119 -0.2354 -0.0747
15805DOD     C391236  12.827  14.018  11.377 -0.1064 -0.4701 -0.0143
15806DOD     C191237   9.868  27.946   3.130  0.0692  0.1714  0.0317
15806DOD     C291238  10.220  27.683   3.316  0.1308  0.1697 -0.1356
15806DOD     C391239  10.384  27.250   3.446  0.0808  0.1943  0.2773
15807DOD     C191240  16.552  19.861   7.094  0.3897  0.0162  0.2174
15807DOD     C291241  16.860  20.056   6.853 -0.0192 -0.0155  0.1479
15807DOD     C391242  17.114  20.427   7.029  0.1860  0.0110  0.1490
15808DOD     C191243  24.322  12.940   1.197 -0.2557 -0.1161 -0.0898
15808DOD     C291244  24.401  12.927   1.687  0.0026 -0.1195  0.0736
15808DOD     C391245  24.400  12.972   2.191 -0.1925 -0.1732  0.3877
15809DOD     C191246  15.979  30.071  15.776 -0.1529 -0.2160  0.0632
15809DOD     C291247  16.348  30.067  15.451 -0.3988  0.0814  0.1474
15809DOD     C391248  16.602  -0.055  15.090  0.0979 -0.2954 -0.1563
15810DOD     C191249   2.506  20.739  10.032 -0.0271 -0.1786  0.0014
15810DOD     C291250   2.689  20.751   9.578  0.1689 -0.1060 -0.2836
15810DOD     C391251   2.927  20.745   9.190  0.3395  0.0932 -0.2234
15811DOD     C191252  23.674  18.625  10.379  0.0776  0.1389 -0.1954
15811DOD     C291253  23.249  18.907  10.384  0.1694 -0.1423 -0.2609
15811DOD     C391254  22.881  18.901  10.712  0.1232  0.1338  0.1247
15812DOD     C191255  20.678  26.944  16.154 -0.1274 -0.0755  0.0498
15812DOD     C291256  20.757  27.277  16.502  0.0310  0.1005  0.1469
15812DOD     C391257  20.714  27.729  16.622 -0.0155  0.2095 -0.1436
15813DOD     C191258  30.189  22.261  18.299 -0.1780 -0.0751 -0.4308
15813DOD     C291259   0.293  22.132  18.329  0.2827 -0.1043 -0.3399
15813DOD     C391260   0.714  22.003  18.324 -0.1063 -0.3751  0.0408
15814DOD     C191261  18.527  16.936   2.952  0.1658 -0.1904 -0.0520
15814DOD     C291262  18.055  16.945   2.847  0.1602 -0.0141  0.1022
15814DOD     C391263  17.749  16.735   2.600 -0.1709 -0.3278  0.1675
15815DOD     C191264  25.008   7.440  15.263  0.1788 -0.0338 -0.0941
15815DOD     C291265  24.824   7.058  15.056 -0.0146  0.0704 -0.2067
15815DOD     C391266  24.907   6.620  15.021 -0.1619 -0.1227 -0.1672
15816DOD     C191267  30.051  20.029  20.950  0.0729  0.0940  0.0658
15816DOD     C291268  29.721  19.714  20.792  0.1195  0.1363  0.0391
15816DOD     C391269  29.318  19.735  20.604 -0.1945  0.0943 -0.0062
15817DOD     C191270   2.182  28.440  16.911 -0.0278  0.2016  0.1557
15817DOD     C291271   2.533  28.129  16.715  0.3140 -0.1981  0.0829
15817DOD     C391272   2.987  27.969  16.706 -0.2324  0.0171  0.1108
15818DOD     C191273  14.705   3.125  11.523  0.0153 -0.5075  0.0027
15818DOD     C291274  14.756   3.583  11.673 -0.0630 -0.1763 -0.0570
15818DOD     C391275  14.686   4.006  11.503 -0.0752  0.2494  0.1943
15819DOD     C191276   4.202  17.139   8.361  0.1645 -0.1930  0.2840
15819DOD     C291277   4.296  17.561   8.518  0.1368 -0.1693 -0.1059
15819DOD     C391278   3.929  17.875   8.486 -0.1109 -0.0212  0.2574
15820DOD     C191279   6.894  13.229  10.028 -0.0153 -0.0596 -0.1956
15820DOD     C291280   6.724  12.856  10.240 -0.0275 -0.1998  0.2704
15820DOD     C391281   6.388  12.487  10.365  0.0832 -0.0416  0.0079
15821DOD     C191282   4.621   5.191   1.837 -0.0887 -0.0792  0.0210
15821DOD     C291283   4.803   4.971   2.205 -0.1016 -0.0951 -0.0712
15821DOD     C391284   4.744   4.561   2.424  0.2158  0.2251  0.1215
15822DOD     C191285   9.128  16.573   0.756  0.0140  0.1666 -0.1743
15822DOD     C291286   9.298  16.958   0.532  0.1991 -0.0549  0.0569
15822DOD     C391287   9.311  17.348   0.342  0.0980 -0.0326  0.1301
15823DOD     C191288  18.439  27.742  25.121  0.1841  0.1299 -0.0432
15823DOD     C291289  18.169  27.919  24.800 -0.1349  0.1696 -0.0027
15823DOD     C391290  17.807  28.156  24.975  0.0224  0.0200 -0.4296
15824DOD     C191291  27.883  28.166  17.509  0.0633 -0.2601  0.0057
15824DOD     C291292  28.332  27.957  17.356 -0.1013  0.1449 -0.3039
15824DOD     C391293  28.744  28.069  17.128  0.1508  0.0370 -0.1212
15825DOD     C191294   4.570  24.265  15.776 -0.0861  0.1328 -0.0249
15825DOD     C291295   4.333  24.592  15.486 -0.1847  0.0897 -0.0929
15825DOD     C391296   4.434  24.982  15.250  0.1711  0.1525  0.0180
15826DOD     C191297   9.749  29.321  18.313  0.0080  0.1207  0.0392
15826DOD     C291298   9.973  29.354  18.700  0.0611  0.3440 -0.2641
15826DOD     C391299  10.456  29.317  18.761 -0.4685 -0.0913  0.2980
15827DOD     C191300   6.078  27.640   3.147 -0.1098  0.0074 -0.1502
15827DOD     C291301   6.197  27.918   3.500 -0.2696 -0.2044 -0.2316
15827DOD     C391302   6.578  28.016   3.786 -0.2880  0.3627  0.0647
15828DOD     C191303   2.556  24.165  26.485  0.0639  0.1792  0.2502
15828DOD     C291304   2.547  23.864  26.761  0.0582  0.2246  0.0914
15828DOD     C391305   2.878  23.577  26.960  0.3820 -0.0378  0.1936
15829DOD     C191306  30.204  27.873  12.011 -0.2401 -0.0295 -0.0211
15829DOD     C291307  29.965  28.246  11.909 -0.1458  0.0352 -0.1645
15829DOD     C391308  29.957  28.693  11.991 -0.2452  0.2028 -0.2168
15830DOD     C191309  28.178  12.892  10.033 -0.1401  0.0527  0.0717
15830DOD     C291310  28.420  13.090   9.716 -0.1338 -0.0642 -0.1028
15830DOD     C391311  28.591  13.062   9.284  0.1134  0.1981  0.0924
15831DOD     C191312  15.976  22.780   2.874 -0.0093 -0.0235  0.1890
15831DOD     C291313  15.934  23.256   3.068 -0.2215 -0.0547 -0.1591
15831DOD     C391314  16.144  23.601   3.368 -0.1474 -0.1914 -0.2806
15832DOD     C191315  29.066  21.662  18.178  0.1742  0.2205 -0.0144
15832DOD     C291316  29.408  21.968  18.297  0.1451  0.3263 -0.1738
15832DOD     C391317  29.787  22.013  18.555 -0.0151 -0.3046  0.0900
15833DOD     C191318  11.077   9.656   9.069 -0.1690  0.1769  0.1105
15833DOD     C291319  10.682   9.568   9.233 -0.0073  0.1276 -0.0110
15833DOD     C391320  10.195   9.432   9.283 -0.2817 -0.1437  0.0393
15834DOD     C191321   2.057  10.885  21.050 -0.2371 -0.1491  0.0572
15834DOD     C291322   2.416  11.099  21.356  0.0604 -0.0402  0.0829
15834DOD     C391323   2.747  11.171  21.676 -0.2277 -0.2008 -0.0118
15835DOD     C191324  11.511  22.514   9.226 -0.2142  0.5721  0.2229
15835DOD     C291325  11.922  22.729   9.149 -0.1283  0.0003  0.0388
15835DOD     C391326  12.253  23.006   9.058 -0.0059  0.2889  0.4992
15836DOD     C191327  16.609  10.822  25.962  0.3294 -0.6181 -0.0571
15836DOD     C291328  16.753  10.934  26.366 -0.0509 -0.0338 -0.4474
15836DOD     C391329  17.166  10.888  26.499 -0.0414 -0.1463 -0.2458
15837DOD     C191330  26.111   6.558  30.205  0.1108  0.1072 -0.1395
15837DOD     C291331  26.548   6.568  30.095  0.0205 -0.0345  0.1826
15837DOD     C391332  26.938   6.340  30.196  0.0261  0.0073  0.1612
15838DOD     C191333  17.316  29.153  15.998 -0.1501  0.1528  0.1350
15838DOD     C291334  16.880  29.262  15.760 -0.3333  0.4501 -0.1498
15838DOD     C391335  16.483  29.411  15.945  0.1506 -0.1069  0.0532
15839DOD     C191336   6.115  28.848  13.026 -0.1608 -0.3241  0.0430
15839DOD     C291337   5.845  28.531  12.807 -0.3068  0.0734  0.0852
15839DOD     C391338   5.474  28.302  12.619 -0.0546 -0.0503 -0.1174
15840DOD     C191339  17.070  22.217  27.763 -0.0100  0.0715  0.0386
15840DOD     C291340  17.100  22.360  27.280 -0.0387 -0.1673  0.1105
15840DOD     C391341  16.857  22.546  26.965  0.0626 -0.3955  0.1815
15841DOD     C191342  17.768  13.424  29.143 -0.0875 -0.1281  0.0493
15841DOD     C291343  18.044  13.100  29.308 -0.2033 -0.5023 -0.3265
15841DOD     C391344  17.852  12.708  29.468 -0.0747 -0.1987 -0.0617
15842DOD     C191345   7.717   0.873  20.662 -0.0106  0.0840  0.2027
15842DOD     C291346   7.424   0.547  20.562 -0.2428 -0.0060 -0.0658
15842DOD     C391347   7.196   0.343  20.226  0.0066  0.2983 -0.0688
15843DOD     C191348  26.697   3.696   8.877 -0.1006  0.1089 -0.0672
15843DOD     C291349  26.643   3.228   8.835  0.1209  0.0396  0.1003
15843DOD     C391350  26.714   2.772   8.764  0.0999 -0.1051  0.0718
15844DOD     C191351  24.527   7.169  27.026 -0.3838  0.0830  0.3291
15844DOD     C291352  24.223   7.059  27.359  0.1322  0.1932  0.1167
15844DOD     C391353  23.954   7.078  27.737 -0.1102  0.0983 -0.3983
15845DOD     C191354  10.777  15.567   3.397  0.4485  0.0091  0.1036
15845DOD     C291355  10.856  15.196   3.681  0.1425  0.2754  0.2418
15845DOD     C391356  10.732  14.813   3.917  0.1140 -0.0480 -0.2450
15846DOD     C191357  20.097   5.556  25.912  0.2209 -0.2861 -0.2165
15846DOD     C291358  20.375   5.705  25.575  0.1405  0.0253 -0.1382
15846DOD     C391359  20.746   5.766  25.308 -0.0387  0.2381  0.0149
15847DOD     C191360   5.930  15.161   4.930 -0.0065  0.1668  0.0975
15847DOD     C291361   5.722  14.809   5.044  0.0028 -0.0053  0.3608
15847DOD     C391362   5.409  14.373   4.962 -0.0453  0.0375  0.3068
15848DOD     C191363  29.621  20.097   6.058  0.0877 -0.3970 -0.0890
15848DOD     C291364  29.462  20.259   5.665  0.0084  0.0131 -0.1208
15848DOD     C391365  29.195  20.262   5.330 -0.0600  0.0465 -0.3444
15849DOD     C191366  20.364  25.229   4.816 -0.1525 -0.0782 -0.0750
15849DOD     C291367  20.158  25.242   4.375 -0.2162 -0.1046  0.0695
15849DOD     C391368  19.793  25.400   4.089  0.5754  0.0428  0.2048
15850DOD     C191369  10.238   1.851  20.895 -0.3357  0.1172  0.0784
15850DOD     C291370  10.676   1.666  20.802 -0.1202 -0.0498 -0.0231
15850DOD     C391371  11.147   1.716  20.754  0.1196  0.1289  0.0388
15851DOD     C191372  29.212  29.143  12.836 -0.0505  0.0811  0.0739
15851DOD     C291373  29.103  28.728  13.019  0.0479 -0.0552 -0.0786
15851DOD     C391374  29.283  28.563  13.380 -0.2887  0.0404 -0.0577
15852DOD     C191375  21.121  14.365  20.791  0.0470  0.1195 -0.1353
15852DOD     C291376  20.841  14.301  21.172  0.0105  0.0897  0.0746
15852DOD     C391377  20.949  14.301  21.628 -0.3749 -0.0794 -0.1226
15853DOD     C191378  20.561  23.972  17.228 -0.2464 -0.0437 -0.3509
15853DOD     C291379  20.212  23.862  16.962 -0.0495 -0.4412  0.1313
15853DOD     C391380  20.291  23.506  16.649  0.1745 -0.0420 -0.2860
15854DOD     C191381   1.933   4.096  12.592 -0.0796 -0.2619 -0.0909
15854DOD     C291382   2.148   3.775  12.296 -0.2224 -0.0310 -0.0921
15854DOD     C391383   2.365   3.345  12.394 -0.0490 -0.1876  0.2304
15855DOD     C191384  22.347  26.623   3.665  0.2750  0.1632  0.1539
15855DOD     C291385  22.016  26.511   3.924  0.0916  0.1446  0.4255
15855DOD     C391386  22.071  26.167   4.232 -0.0602  0.2808 -0.0301
15856DOD     C191387  25.434   6.213  27.369  0.0057  0.1954 -0.0958
15856DOD     C291388  25.832   6.346  27.618  0.1619  0.1123 -0.1472
15856DOD     C391389  26.241   6.302  27.844  0.0608 -0.0561  0.1341
15857DOD     C191390  23.583  10.937  12.578 -0.0137 -0.0272  0.1996
15857DOD     C291391  23.678  11.018  12.115  0.1095 -0.0875  0.1791
15857DOD     C391392  23.707  11.424  11.891  0.1357  0.1856 -0.0452
15858DOD     C191393  13.988  22.542   7.229  0.0717 -0.2696  0.2089
15858DOD     C291394  13.683  22.857   7.362  0.2353 -0.0761 -0.2586
15858DOD     C391395  13.408  22.851   7.753 -0.0578 -0.0185 -0.3239
15859DOD     C191396   3.949  15.889   0.899 -0.1167 -0.0742 -0.2502
15859DOD     C291397   3.666  16.194   1.054 -0.1747 -0.0534  0.1634
15859DOD     C391398   3.506  16.577   1.150  0.0403  0.2131  0.0033
15860DOD     C191399  28.912  16.798  10.691 -0.0126 -0.1230 -0.5255
15860DOD     C291400  28.663  16.386  10.845  0.3592 -0.1319  0.4073
15860DOD     C391401  28.492  15.971  10.692  0.2546 -0.1836  0.0139
15861DOD     C191402  15.985  10.542   1.956 -0.1128  0.2124  0.0322
15861DOD     C291403  15.515  10.509   1.952 -0.3238 -0.0239 -0.0704
15861DOD     C391404  15.127  10.677   2.140  0.2542  0.1408 -0.1068
15862DOD     C191405  24.115   3.904   3.114  0.1521 -0.2566  0.1413
15862DOD     C291406  23.774   4.194   2.934  0.0545  0.2186  0.0640
15862DOD     C391407  23.374   4.398   2.918  0.0477 -0.0283  0.1009
15863DOD     C191408   3.375  15.812  11.681 -0.1172 -0.0302  0.5797
15863DOD     C291409   3.561  15.834  12.116  0.2297  0.0897 -0.1295
15863DOD     C391410   3.718  15.496  12.436  0.0723 -0.0968  0.0491
15864DOD     C191411  21.432  12.821   6.892  0.0960  0.1385  0.0156
15864DOD     C291412  21.492  13.140   7.260  0.2107 -0.0138 -0.3816
15864DOD     C391413  21.706  13.484   7.473  0.1287  0.2096  0.0724
15865DOD     C191414  26.398   1.649  29.034  0.1124  0.0220 -0.1447
15865DOD     C291415  26.049   1.866  29.179 -0.3879 -0.0262  0.0174
15865DOD     C391416  25.976   2.337  29.230 -0.2005 -0.1776 -0.1204
15866DOD     C191417  19.869  12.042  25.302 -0.1870 -0.0475  0.1583
15866DOD     C291418  20.049  12.075  25.731 -0.3086  0.0304  0.0330
15866DOD     C391419  19.943  12.068  26.171  0.2660 -0.0860 -0.2868
15867DOD     C191420  23.440   1.513  14.749 -0.1052 -0.0606  0.4795
15867DOD     C291421  23.609   1.109  14.879 -0.2335 -0.0219 -0.1372
15867DOD     C391422  23.712   0.710  15.112 -0.0174  0.0086  0.1437
15868DOD     C191423  11.618  14.361  13.357 -0.1699 -0.0355 -0.4814
15868DOD     C291424  11.476  14.278  13.792  0.0818  0.1527 -0.0556
15868DOD     C391425  11.566  14.165  14.254 -0.1336 -0.1902  0.0206
15869DOD     C191426  15.063  24.012   1.999 -0.4221 -0.0559 -0.0730
15869DOD     C291427  15.436  24.352   2.063 -0.0327  0.0518  0.2405
15869DOD     C391428  15.356  24.767   2.099 -0.0959  0.3860 -0.1517
15870DOD     C191429  14.596  29.736  25.520  0.2306 -0.3139  0.2507
15870DOD     C291430  14.994  29.805  25.211  0.0751 -0.1177 -0.2227
15870DOD     C391431  15.310  29.927  24.908 -0.0699 -0.0177 -0.0111
15871DOD     C191432  12.550   8.205  16.191  0.2501  0.2593 -0.1258
15871DOD     C291433  12.196   8.468  16.365  0.2034  0.1394  0.0015
15871DOD     C391434  11.787   8.359  16.495  0.2338  0.3100 -0.1730
15872DOD     C191435   3.607  25.941   6.477  0.1659 -0.0525 -0.0949
15872DOD     C291436   3.258  26.143   6.763 -0.1221 -0.0805  0.0813
15872DOD     C391437   3.276  26.194   7.212 -0.3152  0.0024  0.2092
15873DOD     C191438  22.725  25.589  13.602  0.0857  0.0590  0.0639
15873DOD     C291439  22.973  25.555  13.990  0.0087 -0.0290 -0.3145
15873DOD     C391440  23.207  25.531  14.423  0.0155 -0.1427 -0.2729
15874DOD     C191441   6.197   6.217  19.239  0.0674 -0.1017 -0.0415
15874DOD     C291442   5.879   6.227  18.902 -0.0533  0.0366  0.0426
15874DOD     C391443   5.548   6.083  18.602  0.3533 -0.0926 -0.3374
15875DOD     C191444  10.489  16.100   4.959  0.0350  0.1616  0.0453
15875DOD     C291445  10.843  15.922   5.087  0.0130 -0.2253 -0.1552
15875DOD     C391446  11.265  15.736   5.193 -0.3371 -0.1806  0.0699
15876DOD     C191447   6.193  27.408  17.810 -0.0699  0.4372 -0.0099
15876DOD     C291448   6.147  27.012  17.512 -0.0877  0.0241  0.0927
15876DOD     C391449   6.277  26.568  17.492  0.0381  0.0515 -0.1769
15877DOD     C191450  23.351  21.606  14.261 -0.0930 -0.1125  0.2517
15877DOD     C291451  23.756  21.434  14.500  0.0412 -0.1705 -0.1370
15877DOD     C391452  24.179  21.618  14.673 -0.1017  0.0015 -0.3634
15878DOD     C191453   0.194  27.204  20.782 -0.0616 -0.1578 -0.1167
15878DOD     C291454  30.081  27.208  20.683 -0.1937 -0.0894  0.0271
15878DOD     C391455  29.650  27.253  20.564  0.1388 -0.0623 -0.1182
15879DOD     C191456   0.094   7.776  21.332 -0.1685  0.0672 -0.2460
15879DOD     C291457   0.020   7.727  20.816 -0.1361 -0.2802  0.0556
15879DOD     C391458  30.034   7.916  20.488  0.0124  0.0046 -0.4684
15880DOD     C191459  19.280  12.655   3.537 -0.1949 -0.2311  0.2151
15880DOD     C291460  19.692  12.629   3.777 -0.2486  0.0351  0.0418
15880DOD     C391461  19.943  12.302   4.052 -0.4269  0.0441  0.0029
15881DOD     C191462   6.028   5.906  24.038  0.0692 -0.0055  0.0761
15881DOD     C291463   6.200   6.317  23.845 -0.1141  0.1866  0.0268
15881DOD     C391464   6.403   6.695  23.817 -0.2350 -0.1598  0.1390
15882DOD     C191465  24.677   7.193  15.544 -0.1121  0.1694 -0.4777
15882DOD     C291466  24.860   7.618  15.729 -0.0626  0.2186 -0.0996
15882DOD     C391467  24.597   7.972  15.830  0.1047  0.2592 -0.1108
15883DOD     C191468   4.174   6.656  13.729 -0.1598  0.0642 -0.0237
15883DOD     C291469   4.263   6.628  13.261 -0.2794  0.0309 -0.2776
15883DOD     C391470   4.084   6.361  12.948 -0.3262  0.2971  0.4041
15884DOD     C191471  29.347   8.306   5.643 -0.2123  0.1179  0.0250
15884DOD     C291472  28.972   8.562   5.777 -0.0134  0.1561 -0.0989
15884DOD     C391473  28.516   8.746   5.771 -0.2907  0.1743  0.0779
15885DOD     C191474  25.975   4.111   2.538 -0.0856 -0.0904  0.1822
15885DOD     C291475  25.978   4.056   2.075  0.1821  0.2882  0.0508
15885DOD     C391476  26.149   4.028   1.610  0.0102  0.0128 -0.1513
15886DOD     C191477  23.789   3.303  27.347  0.2449  0.0808  0.0162
15886DOD     C291478  23.582   3.535  27.000  0.1609 -0.0037  0.0769
15886DOD     C391479  23.453   3.958  26.983  0.1713 -0.4997 -0.1490
15887DOD     C191480   1.423  15.796   0.026  0.1197  0.1037  0.1791
15887DOD     C291481   1.339  15.958  29.975 -0.1547 -0.1440  0.1094
15887DOD     C391482   1.073  16.148  29.611 -0.1850  0.1662 -0.0050
15888DOD     C191483  15.292  16.984  21.621  0.0147 -0.0037  0.0623
15888DOD     C291484  15.091  16.540  21.484 -0.1260 -0.2466 -0.3729
15888DOD     C391485  15.042  16.276  21.832  0.0626 -0.0609 -0.0725
15889DOD     C191486   6.733  10.845  25.858  0.0108  0.2263 -0.0855
15889DOD     C291487   6.353  10.968  26.201 -0.1327 -0.1265  0.1511
15889DOD     C391488   6.257  11.057  26.670  0.0553  0.0494 -0.1613
15890DOD     C191489   3.903  13.498   2.370 -0.1550  0.0234  0.1677
15890DOD     C291490   4.076  13.469   2.803 -0.0487 -0.2763 -0.2127
15890DOD     C391491   4.069  13.668   3.208  0.0598 -0.1347 -0.0301
15891DOD     C191492   2.882  18.265  20.380 -0.0624  0.0087  0.0224
15891DOD     C291493   2.732  18.707  20.339 -0.1315 -0.1256  0.0955
15891DOD     C391494   2.678  19.105  20.576 -0.0314  0.0517  0.0964
15892DOD     C191495   1.884  20.455  13.344  0.2209 -0.1201 -0.0161
15892DOD     C291496   2.144  20.598  13.045  0.1149  0.2211 -0.3765
15892DOD     C391497   2.414  20.581  12.697 -0.0318 -0.0799  0.1391
15893DOD     C191498  16.900  21.727  16.045  0.1270 -0.1470 -0.0847
15893DOD     C291499  17.079  22.116  15.838 -0.0194 -0.0609 -0.1471
15893DOD     C391500  17.070  22.520  16.060  0.2680 -0.0362  0.2285
15894DOD     C191501  14.513  25.452  29.226  0.3982 -0.1800 -0.2594
15894DOD     C291502  14.180  25.253  29.437 -0.1546 -0.1058  0.1064
15894DOD     C391503  13.792  25.290  29.697  0.0747  0.0322 -0.0367
15895DOD     C191504   2.357  20.985  16.100 -0.3612 -0.0821  0.0448
15895DOD     C291505   2.400  21.154  15.672  0.0435  0.2863 -0.0878
15895DOD     C391506   2.513  21.281  15.293  0.0532  0.0313  0.2346
15896DOD     C191507  23.820   2.871  10.545 -0.1968 -0.1055 -0.1054
15896DOD     C291508  23.584   2.548  10.853 -0.1500 -0.0486  0.0156
15896DOD     C391509  23.605   2.290  11.223  0.1912  0.0803 -0.2017
15897DOD     C191510   6.031  15.384   1.356 -0.0828  0.1777  0.0557
15897DOD     C291511   5.565  15.206   1.360  0.1054 -0.0662  0.1996
15897DOD     C391512   5.072  15.145   1.325 -0.2304 -0.2682 -0.2743
15898DOD     C191513   0.102   6.850  14.571 -0.0477  0.1247 -0.1173
15898DOD     C291514   0.359   6.518  14.413 -0.1938 -0.1664  0.1422
15898DOD     C391515   0.784   6.359  14.372  0.1931 -0.0918  0.1534
15899DOD     C191516  10.404   4.201  24.310 -0.0634  0.3611  0.0802
15899DOD     C291517  10.679   4.192  24.715  0.1147  0.0407 -0.1326
15899DOD     C391518  11.089   3.962  24.810 -0.0603  0.2117  0.2834
15900DOD     C191519  13.116  10.453   2.921 -0.2855 -0.1009 -0.1187
15900DOD     C291520  12.849  10.329   2.541  0.0697  0.0388  0.1838
15900DOD     C391521  12.409  10.289   2.334  0.0381 -0.1920 -0.1387
15901DOD     C191522  27.472   8.489   5.768 -0.1941  0.2454  0.1716
15901DOD     C291523  27.369   7.987   5.687  0.3735  0.3188  0.1515
15901DOD     C391524  27.196   7.521   5.566  0.1419 -0.1055  0.0906
15902DOD     C191525   0.215  22.415  21.814  0.1277 -0.1535 -0.0024
15902DOD     C291526   0.631  22.245  21.700  0.1400 -0.1923 -0.0740
15902DOD     C391527   0.850  21.876  21.579 -0.1505 -0.0766 -0.4377
15903DOD     C191528  13.337  13.546  15.289  0.0692  0.2122 -0.3169
15903DOD     C291529  13.487  13.968  15.386  0.4296  0.0271  0.1714
15903DOD     C391530  13.373  14.335  15.068  0.0774 -0.2696 -0.2918
15904DOD     C191531  17.244  13.396  21.308 -0.1087 -0.1701 -0.1852
15904DOD     C291532  16.878  13.582  21.499  0.0543  0.3340  0.0984
15904DOD     C391533  16.907  13.963  21.200  0.0666 -0.0398 -0.1221
15905DOD     C191534  11.071  20.799  29.468 -0.1744  0.3350  0.1714
15905DOD     C291535  10.675  21.003  29.408 -0.0465  0.0543 -0.0551
15905DOD     C391536  10.535  21.052  28.970 -0.3061  0.0832  0.3256
15906DOD     C191537  27.328   8.716  27.929 -0.0819  0.0443  0.1983
15906DOD     C291538  26.878   8.828  28.033 -0.0955 -0.0314 -0.0058
15906DOD     C391539  26.629   8.616  27.678  0.1850  0.0259  0.0052
15907DOD     C191540   7.228  10.516  20.146 -0.2559  0.0531  0.2438
15907DOD     C291541   7.674  10.477  20.180  0.0066 -0.0353  0.0562
15907DOD     C391542   8.117  10.351  20.189 -0.0357 -0.0672 -0.5632
15908DOD     C191543   5.210  14.413  12.613  0.2218 -0.1773 -0.2674
15908DOD     C291544   5.528  14.309  12.970 -0.1829 -0.1538  0.1745
15908DOD     C391545   5.539  14.322  13.464  0.0657  0.0054 -0.4274
15909DOD     C191546   4.930  25.854   8.632  0.0204 -0.0722  0.0491
15909DOD     C291547   4.778  26.158   8.332  0.1466  0.0076  0.2219
15909DOD     C391548   4.596  26.521   8.122 -0.2410 -0.0556  0.0947
15910DOD     C191549  25.450  21.611  18.779  0.1924 -0.0901  0.1389
15910DOD     C291550  25.141  21.766  18.543 -0.2231 -0.1522  0.0396
15910DOD     C391551  24.802  22.073  18.568  0.2576 -0.1145  0.0314
15911DOD     C191552   2.337  28.822   0.381  0.1323  0.2873  0.0160
15911DOD     C291553   2.653  28.515   0.576  0.3108  0.1366  0.0343
15911DOD     C391554   2.730  28.014   0.526 -0.1543 -0.0836  0.1302
15912DOD     C191555  22.777  13.113   0.120  0.1580  0.2605  0.1013
15912DOD     C291556  22.700  13.586   0.085 -0.2601 -0.1185  0.2962
15912DOD     C391557  22.800  13.983   0.293  0.0412 -0.1315 -0.1902
15913DOD     C191558  18.745  30.032  21.382 -0.3168 -0.1225 -0.2514
15913DOD     C291559  18.867  29.956  21.879 -0.0380 -0.0158  0.0940
15913DOD     C391560  18.879  30.214  22.312  0.0231 -0.1586 -0.0681
15914DOD     C191561  19.570   2.667   0.715 -0.3921 -0.4165  0.0141
15914DOD     C291562  19.890   2.961   0.929 -0.1955 -0.0814 -0.2236
15914DOD     C391563  20.310   2.910   0.918  0.1897 -0.3239  0.2144
15915DOD     C191564  14.298  17.824   8.789 -0.0429 -0.0855  0.1563
15915DOD     C291565  14.143  17.597   9.149  0.1492 -0.0775 -0.1464
15915DOD     C391566  13.909  17.218   9.070 -0.0875  0.0018 -0.0318
15916DOD     C191567  19.954  14.149  20.986 -0.2614 -0.1303  0.0834
15916DOD     C291568  19.880  14.620  20.890  0.5091  0.1652 -0.2876
15916DOD     C391569  19.778  15.078  20.936 -0.1117 -0.0802  0.2220
15917DOD     C191570  14.031  28.954   8.300  0.1780 -0.0682 -0.0121
15917DOD     C291571  13.735  29.198   8.597  0.0148 -0.0177 -0.1518
15917DOD     C391572  13.566  29.332   8.998  0.1996 -0.1629 -0.2617
15918DOD     C191573  14.747   1.943  28.755 -0.0328  0.2925 -0.0472
15918DOD     C291574  14.954   2.384  28.598 -0.1650  0.1548 -0.0685
15918DOD     C391575  15.130   2.773  28.507 -0.2517  0.0423  0.2085
15919DOD     C191576   8.475  14.245   2.354  0.0772  0.0741  0.2063
15919DOD     C291577   8.073  14.051   2.157  0.1696 -0.0338  0.0863
15919DOD     C391578   7.574  14.155   2.039  0.2299  0.0685  0.2091
15920DOD     C191579  23.568   0.309  30.295 -0.0221  0.0357  0.0798
15920DOD     C291580  24.082   0.268  30.136 -0.3184  0.1440  0.0413
15920DOD     C391581  24.305   0.115  29.718  0.0869  0.0014  0.1105
15921DOD     C191582  28.792   7.722  14.712 -0.0455  0.2130 -0.0520
15921DOD     C291583  29.058   7.372  14.619 -0.3426  0.0256  0.0361
15921DOD     C391584  29.197   7.130  14.272 -0.0819 -0.1270 -0.3218
15922DOD     C191585  20.800  20.791  16.413 -0.0461 -0.1240 -0.0733
15922DOD     C291586  21.009  21.131  16.264 -0.2662 -0.0492  0.0735
15922DOD     C391587  21.123  21.650  16.236 -0.0958  0.0402 -0.1661
15923DOD     C191588  16.976  23.020   4.187 -0.0894  0.0177  0.3936
15923DOD     C291589  16.899  23.085   3.723  0.0694 -0.1678  0.2396
15923DOD     C391590  16.950  22.830   3.303 -0.1401  0.1107 -0.0015
15924DOD     C191591  23.609  21.002  25.519  0.2191  0.2136  0.1321
15924DOD     C291592  23.123  20.939  25.655  0.1033  0.0653  0.0166
15924DOD     C391593  22.762  21.129  25.470 -0.0688  0.1454  0.1675
15925DOD     C191594  12.014   3.063   7.262 -0.1218  0.1785  0.0128
15925DOD     C291595  12.262   2.729   7.580  0.2642  0.1347 -0.1024
15925DOD     C391596  12.353   2.561   8.020 -0.1456 -0.2402 -0.0429
15926DOD     C191597   6.852  18.418  24.254  0.0131  0.2333 -0.0621
15926DOD     C291598   7.050  18.050  24.067  0.0517 -0.2112 -0.1760
15926DOD     C391599   7.492  17.835  24.005  0.0418 -0.1179 -0.1066
15927DOD     C191600  29.361   1.184  28.781 -0.4388  0.1156  0.1615
15927DOD     C291601  29.249   1.702  28.706  0.1498 -0.0232 -0.0498
15927DOD     C391602  29.409   2.148  28.765 -0.0508  0.1930 -0.0673
15928DOD     C191603  18.302  25.315  22.171 -0.3377 -0.2353 -0.0817
15928DOD     C291604  18.652  25.589  22.058 -0.0182 -0.1698 -0.0243
15928DOD     C391605  19.052  25.586  21.773 -0.0453 -0.1456  0.2442
15929DOD     C191606   4.534   9.736  14.463  0.0853 -0.0101 -0.0705
15929DOD     C291607   4.724  10.121  14.572 -0.1455 -0.0564 -0.0132
15929DOD     C391608   4.769  10.534  14.412 -0.1096  0.2661 -0.2190
15930DOD     C191609  10.054  22.302   3.381  0.2180 -0.1465 -0.0791
15930DOD     C291610  10.411  22.044   3.563  0.0119 -0.1791  0.0843
15930DOD     C391611  10.694  22.144   3.934 -0.0015 -0.0009  0.3544
15931DOD     C191612  29.408  22.770   1.478  0.0722  0.1280  0.0518
15931DOD     C291613  29.465  23.208   1.397 -0.1317  0.0113  0.0479
15931DOD     C391614  29.360  23.674   1.336 -0.4298  0.1968  0.1102
15932DOD     C191615  20.984  14.226   1.655 -0.1722 -0.1386 -0.2912
15932DOD     C291616  20.975  14.463   1.267 -0.1881  0.0578 -0.0920
15932DOD     C391617  21.377  14.607   0.945 -0.2310  0.0383 -0.0483
15933DOD     C191618   9.896  20.804  22.954  0.2242 -0.1047  0.1548
15933DOD     C291619  10.031  21.251  22.986 -0.1653 -0.2504  0.3018
15933DOD     C391620  10.061  21.530  22.641  0.0984 -0.1179  0.0808
15934DOD     C191621  21.479   4.130   0.142  0.1279  0.0617 -0.0510
15934DOD     C291622  21.733   3.724   0.139 -0.5024 -0.0724  0.0575
15934DOD     C391623  22.137   3.601   0.156  0.0336 -0.0186  0.0133
15935DOD     C191624   8.600  19.904  10.754  0.0758 -0.1257  0.1331
15935DOD     C291625   8.907  20.096  11.047  0.0967 -0.1088 -0.1646
15935DOD     C391626   9.039  20.444  11.288 -0.2249 -0.2586  0.0802
15936DOD     C191627   7.842  15.638   6.568  0.1648 -0.2986  0.1405
15936DOD     C291628   8.062  15.497   6.200 -0.1102 -0.1293  0.2124
15936DOD     C391629   8.064  15.548   5.728  0.1501  0.4663 -0.0444
15937DOD     C191630   2.324  20.495  14.800 -0.0790 -0.0909 -0.3996
15937DOD     C291631   2.237  20.031  14.697  0.2136  0.0457 -0.2040
15937DOD     C391632   2.213  19.543  14.816 -0.1408 -0.0792 -0.1566
15938DOD     C191633   3.517  24.886  22.952  0.0837  0.1649 -0.2291
15938DOD     C291634   3.818  24.983  23.332 -0.6854  0.0808 -0.1381
15938DOD     C391635   4.189  24.975  23.611 -0.2606 -0.5775  0.2401
15939DOD     C191636  19.318  20.589  26.391  0.0480  0.2115  0.1683
15939DOD     C291637  19.272  20.659  26.821 -0.1183  0.6109 -0.0069
15939DOD     C391638  19.591  20.568  27.203 -0.1889  0.1534 -0.1365
15940DOD     C191639  22.439   4.410  26.153 -0.3786  0.0998 -0.4635
15940DOD     C291640  22.122   4.701  25.999 -0.2694 -0.1757 -0.0534
15940DOD     C391641  22.179   5.159  25.945 -0.2050  0.1191 -0.2371
15941DOD     C191642   5.915  24.316  27.740  0.2454 -0.2216  0.0014
15941DOD     C291643   6.122  24.567  27.336  0.1590 -0.2061 -0.1121
15941DOD     C391644   6.381  24.840  27.059 -0.1320  0.0493 -0.0937
15942DOD     C191645  15.563  30.313   3.538  0.0612  0.2402  0.0755
15942DOD     C291646  15.223   0.247   3.426 -0.3464 -0.2941  0.0492
15942DOD     C391647  14.870   0.405   3.220  0.2090  0.0293  0.0928
15943DOD     C191648   2.481   0.296  13.190 -0.3910  0.0861 -0.2906
15943DOD     C291649   2.501  30.382  13.592  0.0959  0.4092  0.0320
15943DOD     C391650   2.570  30.106  13.977  0.0077  0.2075 -0.4796
15944DOD     C191651  27.030  21.209  18.423  0.2387 -0.0884  0.1858
15944DOD     C291652  27.041  21.004  18.805  0.1583 -0.0012 -0.0090
15944DOD     C391653  26.923  20.877  19.270  0.3561  0.1798 -0.1584
15945DOD     C191654  22.672   9.577  26.205  0.1394  0.0924  0.2203
15945DOD     C291655  22.810   9.377  25.844  0.1717  0.2751 -0.1246
15945DOD     C391656  23.097   9.570  25.534  0.1803 -0.0403 -0.1026
15946DOD     C191657  26.572   8.002  28.566 -0.0594 -0.0758  0.1179
15946DOD     C291658  26.763   7.996  28.117  0.0748 -0.2281 -0.1181
15946DOD     C391659  26.972   8.270  27.828  0.2678 -0.0413 -0.2741
15947DOD     C191660   7.881   7.748  13.373 -0.2523  0.0817  0.2296
15947DOD     C291661   7.611   7.563  13.102  0.0788  0.0988  0.3212
15947DOD     C391662   7.387   7.389  12.715  0.1040  0.0932 -0.0355
15948DOD     C191663  24.658  22.167  15.360  0.0049  0.0643 -0.1561
15948DOD     C291664  24.502  22.407  15.786  0.1808  0.1133 -0.0068
15948DOD     C391665  24.587  22.534  16.216 -0.0054 -0.1304 -0.2568
15949DOD     C191666   6.215   3.791  12.977 -0.3400 -0.0384  0.2539
15949DOD     C291667   6.405   3.988  13.365 -0.3334  0.0494  0.2780
15949DOD     C391668   6.567   3.653  13.685  0.1517  0.0423  0.1189
15950DOD     C191669  10.482   1.480  29.739 -0.0591  0.1920 -0.0400
15950DOD     C291670  10.799   1.833  29.743 -0.2486 -0.1768 -0.0148
15950DOD     C391671  11.128   2.137  29.649  0.1254  0.0715 -0.4878
15951DOD     C191672   8.577  16.129   7.782 -0.1213 -0.1412  0.1369
15951DOD     C291673   8.150  16.289   7.854 -0.0089 -0.1053  0.1358
15951DOD     C391674   7.732  16.334   8.016  0.0765  0.0616  0.1021
15952DOD     C191675  26.432  10.967   1.364 -0.0120  0.0475  0.2185
15952DOD     C291676  26.194  10.733   1.622  0.0763 -0.3457 -0.0932
15952DOD     C391677  25.678  10.773   1.760 -0.2134 -0.1270 -0.0850
15953DOD     C191678   2.082  26.627   2.838 -0.1797  0.0125 -0.0200
15953DOD     C291679   2.043  26.175   2.793  0.2191 -0.0960  0.0711
15953DOD     C391680   2.042  25.797   2.658  0.0946  0.0045  0.1156
15954DOD     C191681  19.171  23.992   4.753  0.1728 -0.0373 -0.0522
15954DOD     C291682  19.456  24.347   4.763  0.1050  0.1993 -0.0258
15954DOD     C391683  19.712  24.706   4.855  0.3036 -0.0636 -0.0114
15955DOD     C191684   7.841  12.504  27.235 -0.2485 -0.0295  0.0220
15955DOD     C291685   7.351  12.393  27.211 -0.2698 -0.0132  0.0375
15955DOD     C391686   7.047  12.094  27.032 -0.1421 -0.3150  0.1069
15956DOD     C191687  18.302  25.539  20.413  0.1486 -0.1302 -0.2025
15956DOD     C291688  18.248  25.436  19.942  0.1250 -0.4147  0.1830
15956DOD     C391689  18.077  25.257  19.500  0.0346 -0.2480 -0.1409
15957DOD     C191690  21.870  24.709  20.674  0.1436 -0.1312  0.0222
15957DOD     C291691  21.479  24.590  20.874 -0.0032  0.0480  0.0931
15957DOD     C391692  21.049  24.370  20.887 -0.0600 -0.0435  0.0568
15958DOD     C191693   5.020  15.900  15.073 -0.1782  0.0217  0.2247
15958DOD     C291694   4.600  16.151  14.971  0.2174 -0.0624 -0.1539
15958DOD     C391695   4.197  16.234  15.267 -0.0617  0.1631 -0.1367
15959DOD     C191696  26.587  30.195   9.650 -0.1703  0.3268 -0.1071
15959DOD     C291697  26.840  -0.062  10.025 -0.2197 -0.1965  0.0434
15959DOD     C391698  27.149   0.268   9.843  0.0677 -0.1571 -0.2117
15960DOD     C191699  18.414  28.558  14.478  0.1359  0.0700  0.0450
15960DOD     C291700  18.669  28.924  14.379 -0.0173  0.1600 -0.1277
15960DOD     C391701  19.130  28.958  14.345 -0.0442  0.0068  0.1828
15961DOD     C191702  18.458  27.411   7.052  0.0777 -0.1319  0.0095
15961DOD     C291703  18.938  27.513   6.980 -0.0898  0.0144 -0.1183
15961DOD     C391704  19.121  27.806   6.699 -0.0024  0.0318  0.3631
15962DOD     C191705  23.509  29.815  12.767  0.1824  0.0148 -0.1650
15962DOD     C291706  23.873  30.180  12.754  0.0014  0.3311  0.0457
15962DOD     C391707  23.794   0.330  12.677 -0.1971  0.3031  0.0484
15963DOD     C191708  27.249   9.575  27.814  0.0229  0.2281  0.2325
15963DOD     C291709  26.803   9.415  27.820 -0.1793 -0.2108  0.0232
15963DOD     C391710  26.454   9.131  27.767 -0.2766  0.0689 -0.3467
15964DOD     C191711  19.046   0.908   0.471  0.3911  0.1858  0.2094
15964DOD     C291712  19.497   1.124   0.505  0.2566 -0.2110  0.0257
15964DOD     C391713  19.688   1.563   0.663 -0.1559 -0.1896  0.2285
15965DOD     C191714  24.014  12.152  22.068  0.0619  0.0269  0.2959
15965DOD     C291715  24.028  11.639  22.057 -0.0762  0.0176 -0.0971
15965DOD     C391716  23.703  11.340  22.269 -0.1623 -0.0972 -0.1290
15966DOD     C191717  28.438   0.175  16.269  0.1749 -0.0693  0.0895
15966DOD     C291718  28.471   0.604  16.217 -0.0935 -0.3131  0.1489
15966DOD     C391719  28.475   0.873  15.854  0.3700 -0.2523 -0.1308
15967DOD     C191720   3.655   6.983  23.590 -0.1614  0.0301  0.1570
15967DOD     C291721   3.153   7.018  23.698  0.1273  0.0837 -0.2998
15967DOD     C391722   2.734   7.205  23.668  0.3831 -0.1096  0.0838
15968DOD     C191723  25.452  16.659  18.536  0.0109  0.0094 -0.2566
15968DOD     C291724  25.411  16.295  18.243  0.2973 -0.3020  0.0144
15968DOD     C391725  25.679  16.157  17.869  0.2558 -0.0621  0.0436
15969DOD     C191726   1.234   1.101  25.141 -0.0530  0.2639 -0.1829
15969DOD     C291727   1.194   1.003  24.694 -0.0101  0.2448  0.0481
15969DOD     C391728   1.301   0.583  24.566  0.1056  0.0181 -0.1288
15970DOD     C191729  11.559  25.647  30.037  0.1931  0.2044  0.0554
15970DOD     C291730  11.691  25.186  29.981  0.3838  0.2923  0.0426
15970DOD     C391731  11.825  24.916  29.616 -0.3696 -0.1992 -0.0735
15971DOD     C191732  25.314   5.824  19.152 -0.2243  0.0547  0.0495
15971DOD     C291733  25.062   5.594  18.849 -0.2988 -0.0922 -0.0381
15971DOD     C391734  24.894   5.655  18.422  0.0077  0.3082 -0.2347
15972DOD     C191735   5.122  14.428  20.666  0.1543  0.4521 -0.0537
15972DOD     C291736   5.342  14.771  20.488 -0.0715  0.2194  0.1838
15972DOD     C391737   5.706  14.928  20.226  0.1404  0.1146 -0.0184
15973DOD     C191738  14.660  25.955  11.840 -0.0219  0.0577  0.0103
15973DOD     C291739  14.971  26.082  11.558 -0.0868 -0.0762 -0.1378
15973DOD     C391740  15.290  26.041  11.254 -0.0021  0.0163  0.0445
15974DOD     C191741  18.144   1.306  10.680  0.2529  0.0736  0.0343
15974DOD     C291742  17.948   1.098  10.265  0.2462  0.1865 -0.0057
15974DOD     C391743  18.114   0.956   9.812 -0.1793  0.5055 -0.3562
15975DOD     C191744   6.716  21.873  16.349 -0.1939  0.0389  0.0402
15975DOD     C291745   6.604  21.643  15.965  0.1788  0.0489  0.0143
15975DOD     C391746   6.396  21.638  15.558  0.0803 -0.0910 -0.4083
15976DOD     C191747  24.565   1.358  27.297  0.1166 -0.0039  0.0121
15976DOD     C291748  24.267   1.397  26.926  0.2707 -0.1843  0.0597
15976DOD     C391749  24.219   0.999  26.737  0.0342  0.0118 -0.0240
15977DOD     C191750   1.448   7.054  14.456 -0.4045 -0.3491  0.3988
15977DOD     C291751   1.571   7.459  14.627  0.1574  0.0873  0.0785
15977DOD     C391752   1.866   7.836  14.689  0.1075 -0.0891 -0.0499
15978DOD     C191753  18.501   9.982   2.080  0.2623  0.1883  0.1353
15978DOD     C291754  18.904   9.906   1.966 -0.1358 -0.3231 -0.2459
15978DOD     C391755  19.164   9.640   1.712  0.1210 -0.3008  0.3640
15979DOD     C191756   4.631  14.641  22.953 -0.0567  0.0016  0.1554
15979DOD     C291757   4.928  14.434  23.146  0.3918 -0.1517  0.0122
15979DOD     C391758   5.347  14.432  23.087  0.1195 -0.2131  0.1075
15980DOD     C191759   1.366  23.143  20.145  0.3728  0.1595  0.3454
15980DOD     C291760   1.057  23.067  19.796  0.0263  0.1820 -0.1817
15980DOD     C391761   1.072  23.194  19.302  0.1761 -0.0568  0.0357
15981DOD     C191762   5.685  28.650   5.453 -0.0660  0.0226  0.0893
15981DOD     C291763   5.374  29.050   5.388 -0.3466  0.2086  0.2507
15981DOD     C391764   5.053  29.402   5.248  0.2183  0.3203  0.1187
15982DOD     C191765  24.408  10.016  10.597 -0.1319  0.0219 -0.2807
15982DOD     C291766  24.626  10.421  10.812  0.0711 -0.0700 -0.2429
15982DOD     C391767  24.719  10.876  10.794 -0.2287 -0.0076  0.1612
15983DOD     C191768  22.522  24.525  21.558 -0.1884  0.2615 -0.2460
15983DOD     C291769  22.333  24.334  21.159  0.2872  0.2871  0.0586
15983DOD     C391770  21.871  24.355  21.092 -0.1421  0.1474 -0.1431
15984DOD     C191771  13.038  28.045   9.538 -0.1462  0.1798 -0.0915
15984DOD     C291772  12.642  28.210   9.353  0.0287  0.1738 -0.2502
15984DOD     C391773  12.273  28.372   9.098 -0.5254  0.0338  0.2187
15985DOD     C191774   9.133   2.421   0.575  0.0838  0.1276 -0.2060
15985DOD     C291775   9.504   2.717   0.473  0.0281  0.1811 -0.1029
15985DOD     C391776   9.937   2.938   0.550 -0.0676  0.0001 -0.2039
15986DOD     C191777  13.847  20.547  21.190  0.1466 -0.0642  0.2457
15986DOD     C291778  13.721  20.097  21.176  0.0338 -0.3246 -0.2885
15986DOD     C391779  13.432  19.689  21.227 -0.1282 -0.0643  0.1811
15987DOD     C191780   7.893  11.034  22.307  0.1425  0.1147 -0.1336
15987DOD     C291781   7.970  11.080  21.843  0.1300 -0.0285 -0.0429
15987DOD     C391782   7.685  10.802  21.565 -0.0385  0.0864 -0.1814
15988DOD     C191783  18.285  29.634  28.184  0.1672 -0.1937 -0.0266
15988DOD     C291784  18.608  29.386  28.403  0.0116 -0.3569 -0.0745
15988DOD     C391785  18.939  29.147  28.623 -0.1198 -0.0807 -0.0654
15989DOD     C191786  15.325  13.014   6.238 -0.0273 -0.0108 -0.2457
15989DOD     C291787  15.334  13.462   6.281  0.1290  0.4091  0.1222
15989DOD     C391788  15.563  13.772   6.531 -0.0211 -0.3123  0.2921
15990DOD     C191789  12.423  19.934  25.664 -0.0801  0.0824 -0.0521
15990DOD     C291790  12.591  19.570  25.442 -0.2094  0.1697  0.0663
15990DOD     C391791  12.737  19.285  25.110 -0.0994 -0.0596 -0.1113
15991DOD     C191792   7.775  21.478  23.982  0.1342  0.0358  0.1671
15991DOD     C291793   7.601  21.723  24.364  0.1111 -0.0643 -0.2161
15991DOD     C391794   7.240  22.072  24.542 -0.1508  0.0358  0.5209
15992DOD     C191795  28.892  27.209  29.945 -0.0545 -0.0380  0.1365
15992DOD     C291796  28.812  27.224   0.082 -0.4151  0.1236 -0.0423
15992DOD     C391797  28.535  27.058   0.388  0.0881 -0.2173  0.0524
15993DOD     C191798  22.964   9.375  21.513 -0.2758  0.1817  0.1871
15993DOD     C291799  23.051   9.776  21.437 -0.1350  0.1764  0.3096
15993DOD     C391800  22.948  10.071  21.090  0.0502  0.1080 -0.1275
15994DOD     C191801  24.022   2.421   4.463 -0.0141  0.1555  0.2560
15994DOD     C291802  23.550   2.413   4.429  0.0434 -0.0498 -0.0649
15994DOD     C391803  23.148   2.608   4.506  0.0490 -0.1926 -0.3382
15995DOD     C191804  13.678  12.955  23.699  0.1755  0.2388  0.1577
15995DOD     C291805  13.756  12.922  23.236  0.1804 -0.0396 -0.0311
15995DOD     C391806  13.928  12.746  22.859 -0.0904  0.0720 -0.0613
15996DOD     C191807  15.803  26.744  19.299  0.1576 -0.2282 -0.2042
15996DOD     C291808  16.004  26.826  19.705  0.0437  0.3069 -0.2344
15996DOD     C391809  16.317  27.058  20.031  0.2535  0.1720 -0.0199
15997DOD     C191810   5.809  28.200   3.740  0.0339  0.1889  0.1028
15997DOD     C291811   5.336  28.186   3.725 -0.2782 -0.0989 -0.4494
15997DOD     C391812   4.911  28.434   3.723 -0.0503  0.0599  0.3820
15998DOD     C191813  10.311  27.573  19.365 -0.1227  0.1799  0.0798
15998DOD     C291814  10.704  27.828  19.454  0.1333 -0.0745  0.1107
15998DOD     C391815  11.008  27.622  19.735  0.0629  0.1248  0.2082
15999DOD     C191816   6.226   3.023  10.957 -0.0756 -0.2699  0.0484
15999DOD     C291817   6.323   2.663  11.304 -0.1044  0.2631 -0.0593
15999DOD     C391818   6.193   2.669  11.783 -0.0023 -0.5124  0.1126
16000DOD     C191819  14.258   6.444  25.383  0.1483  0.3222 -0.1350
16000DOD     C291820  14.705   6.335  25.204 -0.0969 -0.0756  0.1980
16000DOD     C391821  15.035   6.164  25.454 -0.1790  0.4463 -0.0277
16001DOD     C191822  26.561  18.534  18.599 -0.0813 -0.0790 -0.2565
16001DOD     C291823  26.177  18.767  18.795 -0.1938 -0.3145 -0.0379
16001DOD     C391824  25.862  18.601  19.148 -0.2371  0.0875 -0.2639
16002DOD     C191825  15.795  10.414  18.463 -0.0860  0.2017  0.1802
16002DOD     C291826  16.223  10.635  18.321 -0.1966  0.0961 -0.0591
16002DOD     C391827  16.637  10.663  18.182 -0.1318 -0.1048  0.1894
16003DOD     C191828  16.837   9.585   1.962 -0.0267  0.0566 -0.2075
16003DOD     C291829  17.260   9.348   2.060  0.1961 -0.2455  0.2006
16003DOD     C391830  17.738   9.286   1.936 -0.1432 -0.1961 -0.2289
16004DOD     C191831  12.105  25.499  16.100  0.2622  0.0299  0.1754
16004DOD     C291832  12.263  25.895  16.296  0.2223 -0.1526  0.0323
16004DOD     C391833  12.501  26.309  16.172  0.1908  0.0366  0.0098
16005DOD     C191834  11.103  11.827  29.934 -0.0788  0.1033  0.1634
16005DOD     C291835  11.083  11.522  29.582  0.0743  0.2270 -0.2071
16005DOD     C391836  11.165  11.158  29.300 -0.2078 -0.0207 -0.3160
16006DOD     C191837  15.704   4.024  20.604 -0.2945  0.1692  0.3087
16006DOD     C291838  15.434   4.327  20.850 -0.4007 -0.1282 -0.0812
16006DOD     C391839  15.236   4.180  21.240  0.4574 -0.1919  0.2739
16007DOD     C191840  28.620   8.582   3.333 -0.0699  0.0960 -0.1520
16007DOD     C291841  28.959   8.900   3.454 -0.0508 -0.3023  0.2491
16007DOD     C391842  29.246   9.215   3.543  0.4385 -0.0676 -0.0682
16008DOD     C191843   9.845  29.908  12.276  0.2198 -0.2142  0.1224
16008DOD     C291844   9.576  30.075  12.625  0.0793 -0.1241  0.0094
16008DOD     C391845   9.213  30.222  12.856  0.1272  0.0447  0.3068
16009DOD     C191846   2.122  12.759   0.048  0.2551 -0.0942 -0.1658
16009DOD     C291847   2.540  12.639   0.107 -0.1512  0.2881 -0.2515
16009DOD     C391848   2.910  12.440  30.280 -0.0329 -0.1126 -0.1361
16010DOD     C191849  14.122  28.145   6.264  0.2625 -0.2559 -0.0247
16010DOD     C291850  13.929  28.212   6.578  0.2005  0.1035 -0.0773
16010DOD     C391851  13.539  28.146   6.757 -0.0825 -0.0454  0.2853
16011DOD     C191852  13.878  20.532   8.342  0.2835  0.0701 -0.2375
16011DOD     C291853  14.213  20.335   8.646  0.1779  0.0622  0.1094
16011DOD     C391854  14.629  20.214   8.787 -0.0716 -0.5099  0.2228
16012DOD     C191855  27.455  21.259  12.989  0.0196 -0.0706  0.0135
16012DOD     C291856  27.419  20.803  13.028  0.0779 -0.0529 -0.3405
16012DOD     C391857  27.748  20.603  13.348 -0.0096 -0.0741 -0.3880
16013DOD     C191858  23.088  29.087  15.608 -0.1402  0.0104  0.1386
16013DOD     C291859  23.242  29.288  15.185  0.1969 -0.1252  0.0585
16013DOD     C391860  23.067  29.217  14.726  0.1569  0.0737  0.4903
16014DOD     C191861  26.294   8.458  19.238 -0.0136  0.0868 -0.1861
16014DOD     C291862  26.318   8.734  18.819  0.1278  0.0226 -0.0860
16014DOD     C391863  26.220   8.734  18.340 -0.1688  0.2058  0.0336
16015DOD     C191864  29.256  23.110  14.020 -0.1528  0.0133  0.1410
16015DOD     C291865  29.156  23.059  13.547  0.0289  0.0877 -0.0760
16015DOD     C391866  28.818  23.264  13.253  0.0201  0.1491  0.3975
16016DOD     C191867  15.206  20.319  15.153  0.0854  0.3372 -0.2283
16016DOD     C291868  15.192  19.864  15.348 -0.1656 -0.2022  0.0163
16016DOD     C391869  15.119  19.430  15.393  0.0128  0.1281 -0.1833
16017DOD     C191870   7.681  16.548  18.240  0.1246  0.3751  0.1113
16017DOD     C291871   7.966  16.899  18.287  0.1255  0.0613  0.2247
16017DOD     C391872   8.091  17.308  18.293 -0.0411 -0.0323 -0.2240
16018DOD     C191873   1.051  17.077  27.512  0.3360 -0.1868 -0.0910
16018DOD     C291874   1.413  17.258  27.275 -0.0919 -0.2721  0.0468
16018DOD     C391875   1.833  17.078  27.280 -0.0730 -0.1859 -0.0517
16019DOD     C191876   3.700  18.060  10.674 -0.0221  0.2428  0.4936
16019DOD     C291877   3.309  17.984  10.351 -0.2316 -0.1602 -0.1860
16019DOD     C391878   2.844  17.939  10.319  0.0324 -0.2021 -0.0764
16020DOD     C191879  14.857  22.469  27.810 -0.1884  0.1827 -0.0163
16020DOD     C291880  14.470  22.624  27.989 -0.1420 -0.0015 -0.1950
16020DOD     C391881  14.318  23.066  28.054 -0.1035  0.0349  0.0770
16021DOD     C191882  26.191  22.906  20.669  0.1161 -0.0587 -0.2433
16021DOD     C291883  26.348  22.533  20.881  0.1428 -0.0806  0.1683
16021DOD     C391884  26.390  22.139  20.793  0.0484 -0.3538 -0.3421
16022DOD     C191885  27.520   1.125  11.842  0.3744 -0.1262 -0.0492
16022DOD     C291886  27.553   0.642  12.038 -0.1242  0.2523 -0.1456
16022DOD     C391887  27.386   0.188  12.018  0.0156 -0.0898 -0.0958
16023DOD     C191888   6.586  16.431   5.789  0.2451  0.1288 -0.1475
16023DOD     C291889   6.317  16.715   5.541  0.1331  0.0561  0.1577
16023DOD     C391890   6.008  16.837   5.209 -0.0226 -0.0112  0.1930
16024DOD     C191891  19.517  14.065  30.132  0.2610 -0.3437 -0.0058
16024DOD     C291892  19.834  14.465  30.126  0.0295 -0.1762 -0.0575
16024DOD     C391893  20.145  14.804  30.086 -0.1322  0.2934 -0.2260
16025DOD     C191894  20.692  10.920   1.658  0.2187 -0.1632 -0.0981
16025DOD     C291895  20.934  10.516   1.791 -0.2173  0.3327 -0.0499
16025DOD     C391896  21.280  10.282   1.574  0.0851  0.2334  0.1732
16026DOD     C191897   4.889  18.996  15.368  0.1057 -0.0075 -0.3576
16026DOD     C291898   4.662  18.597  15.446 -0.0565  0.2271 -0.2249
16026DOD     C391899   4.392  18.388  15.730 -0.1365  0.1572  0.1347
16027DOD     C191900  15.167  22.089  19.461  0.1012  0.0441  0.0164
16027DOD     C291901  15.059  21.770  19.194 -0.1253 -0.1320  0.0542
16027DOD     C391902  14.915  21.334  19.135  0.1580  0.0766  0.0344
16028DOD     C191903  24.636   4.225  23.790  0.2636 -0.0149 -0.0306
16028DOD     C291904  24.405   4.517  24.060  0.0211 -0.0114 -0.2006
16028DOD     C391905  24.245   4.890  24.222 -0.1442 -0.2814 -0.1072
16029DOD     C191906  24.843   5.643  14.000 -0.0558  0.1333 -0.0385
16029DOD     C291907  25.174   5.985  13.950  0.3607 -0.2309 -0.0107
16029DOD     C391908  25.362   6.390  14.057 -0.1173 -0.0984  0.4203
16030DOD     C191909  12.447   9.920  25.686 -0.1369  0.0213  0.0728
16030DOD     C291910  12.798   9.779  25.422 -0.1217 -0.3076  0.1061
16030DOD     C391911  13.172   9.688  25.253 -0.1257  0.1024 -0.0313
16031DOD     C191912  26.381   1.221  16.558 -0.0474 -0.1681 -0.0347
16031DOD     C291913  26.539   0.992  16.875 -0.1985  0.0794  0.3485
16031DOD     C391914  26.503   0.522  16.972  0.1265  0.0920  0.0391
16032DOD     C191915  11.671  15.605  25.825 -0.0310  0.1034 -0.1609
16032DOD     C291916  11.615  15.130  25.777  0.1642 -0.1492 -0.0543
16032DOD     C391917  11.405  14.712  25.831 -0.1416 -0.0395  0.1939
16033DOD     C191918  28.292  26.304  23.685 -0.2280 -0.1734  0.2007
16033DOD     C291919  28.423  26.530  23.313 -0.1815  0.2884  0.1313
16033DOD     C391920  28.278  26.850  22.954 -0.1747 -0.0879 -0.5636
16034DOD     C191921  14.128  18.184  26.526 -0.1358  0.1166  0.1749
16034DOD     C291922  13.695  18.271  26.712 -0.0366  0.0036  0.3220
16034DOD     C391923  13.373  18.513  26.936 -0.0655  0.1264 -0.4226
16035DOD     C191924   4.308  11.663  14.892  0.1625  0.1693  0.2512
16035DOD     C291925   4.431  11.459  14.486  0.0702 -0.1647  0.2177
16035DOD     C391926   4.447  11.473  14.009 -0.1668  0.2726  0.1015
16036DOD     C191927   1.524   0.235  11.676 -0.1662  0.0455 -0.1045
16036DOD     C291928   1.102  -0.012  11.685  0.1208  0.0027 -0.0338
16036DOD     C391929   0.787  30.081  11.429 -0.0525  0.0766 -0.1293
16037DOD     C191930  19.953  16.078   3.764  0.1119  0.0882 -0.1231
16037DOD     C291931  19.859  15.731   4.123 -0.0991 -0.2175 -0.2784
16037DOD     C391932  19.387  15.618   4.214 -0.0790 -0.1199  0.1833
16038DOD     C191933   3.106   5.764  11.445 -0.0847  0.2393 -0.0789
16038DOD     C291934   3.073   5.780  11.939 -0.1538  0.1896 -0.0802
16038DOD     C391935   3.473   5.982  12.146  0.2585 -0.2385  0.1221
16039DOD     C191936  26.406  16.298   2.134 -0.0693 -0.2319  0.2957
16039DOD     C291937  26.152  16.725   2.133 -0.2309  0.0351  0.0020
16039DOD     C391938  25.840  17.032   2.189  0.3413  0.0838 -0.1598
16040DOD     C191939   6.022  29.315  22.492 -0.1083  0.0114 -0.1508
16040DOD     C291940   6.364  29.000  22.557  0.0614 -0.1050  0.0187
16040DOD     C391941   6.838  28.970  22.587  0.0299  0.1346 -0.1977
16041DOD     C191942  26.272   2.655   1.077  0.3214 -0.0478 -0.2206
16041DOD     C291943  26.174   3.042   1.376  0.0901 -0.0172  0.1194
16041DOD     C391944  26.139   3.085   1.788 -0.1296 -0.0301  0.0468
16042DOD     C191945  23.608   2.161   9.902 -0.1569 -0.0578  0.4403
16042DOD     C291946  23.877   1.882   9.576  0.1723  0.1868 -0.3894
16042DOD     C391947  24.039   1.505   9.379  0.1908 -0.2008  0.0181
16043DOD     C191948  16.419  28.530  18.827  0.0632  0.2214 -0.2158
16043DOD     C291949  16.855  28.355  18.914  0.1150 -0.0327  0.0087
16043DOD     C391950  17.137  28.349  19.232 -0.3365 -0.0390 -0.5242
16044DOD     C191951   4.958  14.145  20.274 -0.0742 -0.0961  0.2037
16044DOD     C291952   5.365  14.397  20.176 -0.2506 -0.2391  0.2862
16044DOD     C391953   5.472  14.637  19.843 -0.0909  0.2742 -0.0902
16045DOD     C191954   1.167   4.052   2.854  0.1346  0.0760  0.1538
16045DOD     C291955   0.861   3.859   2.546  0.1649 -0.0226 -0.0549
16045DOD     C391956   0.379   3.880   2.545 -0.0929  0.0283  0.0612
16046DOD     C191957   4.995  10.421  29.655  0.2418  0.3863  0.4426
16046DOD     C291958   4.815  10.076  29.862  0.0086 -0.0226 -0.0691
16046DOD     C391959   4.760   9.785  30.196  0.0738  0.0260  0.0253
16047DOD     C191960   9.667  29.505   3.685 -0.2616 -0.1369 -0.0151
16047DOD     C291961  10.018  29.323   3.974 -0.1173 -0.0257  0.0971
16047DOD     C391962  10.209  29.225   4.405  0.0949 -0.0700 -0.0457
16048DOD     C191963   8.519  17.162  21.204  0.0028 -0.3515  0.0776
16048DOD     C291964   8.096  17.087  21.310 -0.1025  0.1567 -0.1958
16048DOD     C391965   7.795  17.367  21.433  0.4745  0.2180  0.2601
16049DOD     C191966  25.769  24.879  10.927  0.0547 -0.0778 -0.0342
16049DOD     C291967  26.111  24.964  11.184 -0.3738  0.1510  0.0863
16049DOD     C391968  26.480  24.721  11.348 -0.1076  0.2054  0.0319
16050DOD     C191969   0.278  21.910  10.155 -0.2952 -0.3291 -0.3942
16050DOD     C291970   0.038  21.893   9.737 -0.1919 -0.2334  0.2226
16050DOD     C391971  30.166  21.759   9.387 -0.0475 -0.1557 -0.0920
16051DOD     C191972   4.752   1.548   3.155  0.0996  0.0952 -0.0100
16051DOD     C291973   4.599   1.109   3.224  0.2120  0.1421 -0.3664
16051DOD     C391974   4.456   0.671   3.407  0.0046  0.2470 -0.0788
16052DOD     C191975  16.582  17.187   1.978 -0.2388 -0.1105 -0.1977
16052DOD     C291976  16.742  17.213   2.415  0.1144 -0.0360 -0.3277
16052DOD     C391977  17.023  17.184   2.817 -0.3056 -0.1361 -0.0925
16053DOD     C191978  12.326   2.901  19.358 -0.3511 -0.2722 -0.1322
16053DOD     C291979  12.195   3.180  19.003 -0.3492 -0.0547 -0.6395
16053DOD     C391980  12.103   3.241  18.545  0.2910  0.0216 -0.2056
16054DOD     C191981  21.671   7.106  28.037 -0.0836 -0.2267 -0.0829
16054DOD     C291982  21.866   6.781  28.326 -0.0183 -0.0523 -0.0815
16054DOD     C391983  21.982   6.394  28.409  0.1337 -0.1011 -0.3012
16055DOD     C191984  20.018  14.213  26.994  0.0930 -0.1929  0.2451
16055DOD     C291985  19.976  13.985  26.541 -0.1274  0.1441 -0.0546
16055DOD     C391986  20.032  13.706  26.214  0.1696  0.2437  0.0739
16056DOD     C191987   1.931  25.192   8.484  0.0522 -0.3828  0.3900
16056DOD     C291988   2.080  24.952   8.140  0.1923 -0.2562 -0.3773
16056DOD     C391989   2.182  24.670   7.788 -0.0888  0.0045 -0.1537
16057DOD     C191990  11.577  23.185  17.577 -0.0690  0.2491 -0.1729
16057DOD     C291991  11.697  22.855  17.851  0.0421 -0.0941  0.2386
16057DOD     C391992  11.780  22.608  18.212 -0.2064 -0.1762  0.2041
16058DOD     C191993  18.328  15.788   1.391  0.0243 -0.0055 -0.2741
16058DOD     C291994  18.361  15.337   1.495  0.2518 -0.0589 -0.0115
16058DOD     C391995  18.699  15.037   1.661  0.2473  0.0303  0.0447
16059DOD     C191996  24.341  12.528   2.361  0.0071  0.0346  0.2196
16059DOD     C291997  24.588  12.467   1.961 -0.4503 -0.2262 -0.0625
16059DOD     C391998  25.008  12.327   1.680 -0.2090  0.3492 -0.0593
16060DOD     C191999  21.376   8.380   4.370 -0.0177  0.0140  0.0426
16060DOD     C292000  21.390   8.222   4.837  0.0871 -0.1849 -0.0270
16060DOD     C392001  21.421   7.970   5.254  0.1994 -0.1649  0.1498
16061DOD     C192002   3.483  28.341   0.502  0.3300  0.0734  0.1906
16061DOD     C292003   3.120  28.457   0.777 -0.0404  0.1080  0.1581
16061DOD     C392004   2.807  28.801   0.962  0.1174 -0.0678 -0.0195
16062DOD     C192005  18.379   4.435   9.592 -0.2167  0.0083 -0.0623
16062DOD     C292006  18.545   4.722   9.263 -0.0250 -0.0701 -0.1158
16062DOD     C392007  18.746   4.793   8.854  0.3626 -0.1543 -0.1812
16063DOD     C192008  14.156  11.843  20.657  0.0648  0.3811 -0.1647
16063DOD     C292009  14.535  12.119  20.634 -0.1113  0.1621 -0.3521
16063DOD     C392010  14.775  12.413  20.884  0.1794 -0.1872 -0.0939
16064DOD     C192011  20.653   1.629  13.700 -0.1077  0.0370  0.0710
16064DOD     C292012  20.450   2.007  13.547  0.2825  0.0599  0.1863
16064DOD     C392013  20.085   2.312  13.442  0.1734  0.1064 -0.2555
16065DOD     C192014  25.355  17.773  18.397 -0.2218 -0.3108  0.3000
16065DOD     C292015  25.757  17.983  18.509 -0.0193  0.1181 -0.0078
16065DOD     C392016  26.119  18.246  18.698 -0.0805  0.2807  0.0560
16066DOD     C192017   3.718   2.784  25.729 -0.1051 -0.4044  0.0880
16066DOD     C292018   3.793   2.451  25.411 -0.1040  0.2264 -0.3125
16066DOD     C392019   4.163   2.137  25.404 -0.0918 -0.1327  0.0100
16067DOD     C192020  17.570  13.388  12.467 -0.3275 -0.0053  0.3059
16067DOD     C292021  17.969  13.232  12.247 -0.0198 -0.2450  0.2779
16067DOD     C392022  18.427  13.253  12.065  0.0589 -0.0458 -0.1687
16068DOD     C192023  19.642   1.725   7.888 -0.0199  0.0375 -0.0853
16068DOD     C292024  19.165   1.557   7.884 -0.2297  0.0267 -0.2215
16068DOD     C392025  18.853   1.225   7.904  0.0259  0.1389  0.0120
16069DOD     C192026  27.410  11.187   9.283  0.1190  0.0291 -0.0134
16069DOD     C292027  27.749  11.396   9.481 -0.0280  0.2150  0.1547
16069DOD     C392028  28.035  11.799   9.565  0.0284  0.1445  0.1063
16070DOD     C192029  22.271  28.813  24.128  0.0729 -0.0186 -0.1348
16070DOD     C292030  22.757  28.799  24.190  0.2552  0.0852  0.1506
16070DOD     C392031  23.032  29.116  24.094 -0.1718 -0.0321 -0.2334
16071DOD     C192032  18.083   9.623  27.919  0.1030 -0.2041 -0.1060
16071DOD     C292033  17.598   9.511  27.973 -0.0130  0.1947 -0.1334
16071DOD     C392034  17.250   9.214  27.894 -0.0153 -0.2820  0.1161
16072DOD     C192035   5.234  23.691  25.298 -0.2955  0.1794  0.2436
16072DOD     C292036   5.669  23.485  25.345  0.3398  0.2272 -0.1172
16072DOD     C392037   5.999  23.180  25.538  0.0126  0.0419  0.1041
16073DOD     C192038  29.104  14.482  25.344 -0.2576 -0.3013 -0.1365
16073DOD     C292039  28.896  14.089  25.498 -0.2465  0.3452  0.2293
16073DOD     C392040  28.507  13.880  25.707 -0.0343 -0.1269 -0.0583
16074DOD     C192041  16.948  22.101  22.061  0.0858 -0.0694  0.1477
16074DOD     C292042  16.795  22.408  21.811  0.4274 -0.1983  0.4097
16074DOD     C392043  16.648  22.734  21.558 -0.2744  0.2718 -0.1374
16075DOD     C192044  13.400   7.864  20.975 -0.0380  0.4018  0.0288
16075DOD     C292045  13.003   7.796  21.123 -0.2158  0.1041  0.0529
16075DOD     C392046  12.649   7.679  20.879  0.3893  0.2645 -0.0476
16076DOD     C192047   1.480  21.982  12.401  0.2223 -0.0149  0.1236
16076DOD     C292048   1.728  22.199  12.073  0.2565 -0.0110  0.1662
16076DOD     C392049   1.701  22.564  11.851 -0.1706  0.0514  0.0972
16077DOD     C192050   0.298   5.975  17.441 -0.3229 -0.4735  0.0264
16077DOD     C292051  30.164   5.973  17.662 -0.0815 -0.1713 -0.2744
16077DOD     C392052  29.798   5.865  17.417  0.0932 -0.1187 -0.3223
16078DOD     C192053  21.080  12.843   4.754  0.1416 -0.0922  0.1721
16078DOD     C292054  21.227  13.240   4.484 -0.0215  0.1110 -0.1185
16078DOD     C392055  21.251  13.677   4.294 -0.2698 -0.0898  0.1845
16079DOD     C192056  27.773  26.696   7.643  0.0370  0.1500  0.0691
16079DOD     C292057  28.148  26.798   7.825 -0.2551  0.0960 -0.1550
16079DOD     C392058  28.510  27.002   7.972 -0.2437  0.1879 -0.1117
16080DOD     C192059  29.376  24.897  14.974 -0.1388  0.1707  0.2467
16080DOD     C292060  29.821  24.945  14.976 -0.1160  0.1895 -0.3384
16080DOD     C392061  30.222  25.069  14.896 -0.0872 -0.3657 -0.0513
16081DOD     C192062   3.864  17.559  18.078  0.0397  0.0137  0.2300
16081DOD     C292063   3.542  17.318  18.312 -0.3417 -0.2065  0.0151
16081DOD     C392064   3.466  17.314  18.774 -0.1264 -0.1728 -0.1363
16082DOD     C192065  24.137   7.134  17.333 -0.0573 -0.1218  0.2876
16082DOD     C292066  24.164   7.403  17.766  0.1061 -0.0655  0.2310
16082DOD     C392067  24.417   7.506  18.194  0.0398 -0.3138 -0.0698
16083DOD     C192068   1.902  12.150  28.584 -0.1967  0.4054 -0.1846
16083DOD     C292069   2.079  12.494  28.814 -0.3994  0.3624 -0.0584
16083DOD     C392070   2.282  12.582  29.225 -0.1462  0.0671  0.0923
16084DOD     C192071  10.890  27.190   3.972  0.0124 -0.2572 -0.0069
16084DOD     C292072  10.995  27.633   4.053 -0.1608 -0.1072  0.0173
16084DOD     C392073  10.780  28.020   4.187  0.3130  0.4120 -0.0138
16085DOD     C192074  12.917  26.645  29.822  0.0379  0.2958  0.2881
16085DOD     C292075  13.252  26.693  29.521 -0.1508  0.0207 -0.3035
16085DOD     C392076  13.669  26.690  29.385  0.0874 -0.4048  0.0227
16086DOD     C192077   6.771   8.655  27.429 -0.1016 -0.0142  0.3367
16086DOD     C292078   6.811   8.179  27.492 -0.0611  0.2491  0.2632
16086DOD     C392079   6.985   7.781  27.781 -0.2333  0.0305  0.1640
16087DOD     C192080  10.229   5.065  10.314 -0.1142  0.1425 -0.0498
16087DOD     C292081   9.751   5.107  10.262  0.3283 -0.3036 -0.1081
16087DOD     C392082   9.450   5.113   9.983  0.1287  0.0532 -0.0988
16088DOD     C192083  26.000   6.895  22.838 -0.1281 -0.2860 -0.0602
16088DOD     C292084  26.218   6.907  23.253  0.1827 -0.3119 -0.1400
16088DOD     C392085  25.971   7.046  23.657 -0.0151 -0.0279 -0.0241
16089DOD     C192086   9.657  12.289  20.917 -0.3039 -0.2947 -0.2937
16089DOD     C292087  10.116  12.213  21.144  0.1753 -0.1098  0.3071
16089DOD     C392088  10.365  12.173  21.528  0.3161 -0.2222  0.3579
16090DOD     C192089   7.269  22.235  25.959  0.2943 -0.0433  0.0172
16090DOD     C292090   7.512  22.506  26.198 -0.1163  0.2655 -0.0187
16090DOD     C392091   7.581  22.718  26.590  0.5386 -0.0866  0.2274
16091DOD     C192092   8.842  28.794  23.619 -0.0583 -0.0644  0.1219
16091DOD     C292093   8.599  28.421  23.660  0.1566 -0.2469  0.0048
16091DOD     C392094   8.625  27.971  23.808 -0.1982  0.2862 -0.1745
16092DOD     C192095  25.963  21.265   2.643  0.4243  0.1226 -0.0914
16092DOD     C292096  26.138  21.316   3.095  0.0473  0.0191  0.1381
16092DOD     C392097  26.270  21.212   3.507  0.0290 -0.3182 -0.1552
16093DOD     C192098  23.409  11.639  29.191 -0.1028 -0.2885  0.0087
16093DOD     C292099  23.408  12.039  29.323 -0.0935 -0.1276  0.0146
16093DOD     C392100  23.457  12.465  29.342 -0.0156  0.2182  0.3178
16094DOD     C192101   7.441  11.055  16.250 -0.0797 -0.1525 -0.1164
16094DOD     C292102   7.153  11.030  15.898 -0.2522  0.3717 -0.0704
16094DOD     C392103   6.760  10.928  15.657 -0.2498 -0.0077 -0.0158
16095DOD     C192104  28.410  24.346  27.617  0.0463 -0.2548  0.3554
16095DOD     C292105  28.137  24.020  27.558 -0.2128  0.0252 -0.0530
16095DOD     C392106  27.999  23.586  27.745 -0.1926 -0.0849 -0.0726
16096DOD     C192107  14.007   4.310  10.076  0.1367 -0.0048 -0.0211
16096DOD     C292108  13.606   4.452  10.215 -0.0763  0.0500 -0.0925
16096DOD     C392109  13.136   4.602  10.175  0.1234 -0.0526 -0.2454
16097DOD     C192110   0.554  26.215  28.960  0.0451  0.0793 -0.1250
16097DOD     C292111   1.014  26.127  28.848  0.0484  0.2287 -0.2138
16097DOD     C392112   1.300  26.049  28.454 -0.1622 -0.2310 -0.0624
16098DOD     C192113  21.831   3.430  16.505  0.1289  0.1564 -0.0917
16098DOD     C292114  21.957   3.601  16.117  0.1787 -0.1577 -0.2648
16098DOD     C392115  21.929   4.018  15.904  0.0271 -0.0208  0.1870
16099DOD     C192116  10.446   6.842  10.995  0.1478 -0.1317 -0.1678
16099DOD     C292117  10.342   7.180  11.269  0.1123  0.1477 -0.3777
16099DOD     C392118  10.450   7.595  11.459 -0.0377  0.1956 -0.1542
16100DOD     C192119   2.684  11.469  16.169 -0.1946 -0.0204 -0.2937
16100DOD     C292120   3.165  11.597  16.234 -0.3362  0.0653  0.1759
16100DOD     C392121   3.625  11.759  16.267  0.1305  0.0742 -0.1833
16101DOD     C192122  27.014  22.583  19.440 -0.0328  0.1625 -0.0679
16101DOD     C292123  27.170  22.164  19.316 -0.0628  0.0291  0.1444
16101DOD     C392124  27.295  21.772  19.517  0.1143 -0.1729  0.0500
16102DOD     C192125   7.916  24.373  20.138  0.3073 -0.0110  0.0937
16102DOD     C292126   8.095  24.860  20.142  0.1953  0.0884  0.1489
16102DOD     C392127   8.234  25.135  19.796 -0.0838  0.1800 -0.0629
16103DOD     C192128  29.846  15.862   8.376 -0.2257  0.0408 -0.0974
16103DOD     C292129  30.247  16.035   8.263  0.5443  0.0959  0.0480
16103DOD     C392130   0.313  16.102   7.994  0.1908  0.0411 -0.1984
16104DOD     C192131  12.454  25.853   0.068  0.0300  0.1836  0.1940
16104DOD     C292132  12.247  26.054  30.014  0.1093  0.2880 -0.4159
16104DOD     C392133  11.953  25.836  29.754  0.0988  0.0261 -0.2826
16105DOD     C192134  15.897  30.073  10.767 -0.1309 -0.0149 -0.4419
16105DOD     C292135  15.914   0.216  10.720  0.0941  0.3442  0.2185
16105DOD     C392136  16.226   0.546  10.558  0.2001  0.0785 -0.2812
16106DOD     C192137  30.082   2.413  21.219 -0.2148  0.0513 -0.0040
16106DOD     C292138  30.061   1.979  21.385 -0.0223 -0.1589 -0.0208
16106DOD     C392139  29.910   1.547  21.404 -0.2545 -0.0839  0.0537
16107DOD     C192140  26.526  11.772  23.185 -0.2134  0.2628 -0.0145
16107DOD     C292141  26.328  12.195  23.287  0.0345  0.0515  0.3078
16107DOD     C392142  26.097  12.491  23.032 -0.1703 -0.3500  0.0897
16108DOD     C192143  28.828  26.024  29.459  0.2205 -0.2316 -0.0980
16108DOD     C292144  28.518  26.265  29.649  0.0515 -0.0975  0.0600
16108DOD     C392145  28.284  26.462  29.971  0.2262  0.1225 -0.3424
16109DOD     C192146  14.255  26.321  15.164  0.0511 -0.0377 -0.0574
16109DOD     C292147  14.636  26.295  14.995  0.0467 -0.1021  0.0436
16109DOD     C392148  15.088  26.312  14.745  0.1258  0.0601  0.0881
16110DOD     C192149  11.200  22.291   2.119  0.2018  0.1613 -0.1599
16110DOD     C292150  10.837  22.149   1.842  0.2928 -0.0177  0.0648
16110DOD     C392151  10.362  22.203   1.806 -0.2631 -0.2615  0.1877
16111DOD     C192152  28.783  24.453  14.221 -0.0037  0.1875  0.0816
16111DOD     C292153  28.613  24.437  13.775  0.0407 -0.1921  0.6272
16111DOD     C392154  28.581  24.443  13.293 -0.1255  0.1276 -0.2308
16112DOD     C192155   0.283   3.971   0.586 -0.0425  0.0602  0.1259
16112DOD     C292156   0.457   4.203   0.974  0.1642  0.2259  0.1229
16112DOD     C392157   0.729   4.558   1.031  0.0823  0.0331  0.3121
16113DOD     C192158  21.674   9.734   5.174 -0.3004 -0.1629  0.2444
16113DOD     C292159  21.804   9.977   4.776  0.0309 -0.0922  0.2099
16113DOD     C392160  21.851  10.397   4.581 -0.0305  0.4044 -0.0983
16114DOD     C192161  13.125  28.165  10.293  0.0684  0.0182  0.1448
16114DOD     C292162  13.150  27.828   9.999  0.1326 -0.2100 -0.4540
16114DOD     C392163  13.342  27.619   9.623 -0.2305  0.0804 -0.2186
16115DOD     C192164  30.307  23.557  27.912  0.3353 -0.0184  0.1136
16115DOD     C292165  -0.052  23.483  28.397 -0.4978 -0.2052  0.1920
16115DOD     C392166   0.156  23.506  28.821  0.3215  0.0494 -0.0460
16116DOD     C192167  12.456  16.062  15.659  0.1922  0.0383 -0.0210
16116DOD     C292168  12.312  15.708  15.457  0.3379  0.1035  0.1681
16116DOD     C392169  12.169  15.535  15.069  0.0227 -0.0195  0.2479
16117DOD     C192170  24.869  11.569   4.869 -0.1550  0.3998  0.0507
16117DOD     C292171  24.819  11.633   5.283 -0.2990  0.0736 -0.0986
16117DOD     C392172  24.791  11.988   5.560 -0.0492 -0.0937 -0.3028
16118DOD     C192173  12.151  10.861   6.481  0.1021 -0.1306 -0.1017
16118DOD     C292174  12.003  11.258   6.281 -0.1571 -0.0676 -0.2134
16118DOD     C392175  11.883  11.268   5.860 -0.2043 -0.0481 -0.0548
16119DOD     C192176   4.579  19.338   2.622  0.1330 -0.0694  0.3036
16119DOD     C292177   4.688  18.906   2.448 -0.1033 -0.3147 -0.1505
16119DOD     C392178   5.079  18.676   2.287 -0.2387  0.1693 -0.1160
16120DOD     C192179  28.796  26.826   1.538  0.2984 -0.1246  0.0265
16120DOD     C292180  29.118  26.652   1.294  0.1334  0.0918  0.5201
16120DOD     C392181  29.054  26.289   0.943  0.1185 -0.2535  0.2927
16121DOD     C192182   4.657  10.020  18.339  0.0277 -0.2589  0.0045
16121DOD     C292183   5.084   9.921  18.462 -0.2125  0.0366  0.0227
16121DOD     C392184   5.375  10.180  18.739  0.3236  0.0805  0.1381
16122DOD     C192185  24.481   7.733   4.381  0.0431  0.2479  0.2386
16122DOD     C292186  24.359   8.068   4.686  0.1594 -0.2898  0.1130
16122DOD     C392187  24.256   8.304   5.097  0.3021 -0.1673  0.0035
16123DOD     C192188  12.321  29.891  29.413 -0.0692 -0.3118 -0.2360
16123DOD     C292189  12.309  29.828  28.989 -0.0553 -0.0911  0.1421
16123DOD     C392190  12.289  29.816  28.486 -0.1200 -0.3515  0.0328
16124DOD     C192191   2.752   6.072  24.521 -0.1037  0.2469  0.1210
16124DOD     C292192   2.917   6.055  24.052 -0.9367 -0.0932  0.1959
16124DOD     C392193   3.129   5.998  23.681  0.1050  0.2047 -0.0504
16125DOD     C192194  11.713  23.714  11.131  0.1090 -0.1703 -0.2641
16125DOD     C292195  11.803  23.284  11.428  0.0625 -0.0949  0.3251
16125DOD     C392196  11.878  22.985  11.720 -0.3074 -0.0597 -0.1357
16126DOD     C192197   1.241  20.336  13.435  0.2689 -0.2941 -0.1532
16126DOD     C292198   1.503  20.692  13.549 -0.1704  0.1535  0.2676
16126DOD     C392199   1.881  20.954  13.424 -0.1744 -0.3126  0.1182
16127DOD     C192200  16.358  12.588  28.558  0.0008  0.1342 -0.3031
16127DOD     C292201  16.522  12.776  28.944 -0.0664  0.1492 -0.0114
16127DOD     C392202  16.847  13.123  28.913 -0.1359  0.1316  0.0465
16128DOD     C192203   2.693  16.677  13.551 -0.1332  0.2432 -0.1178
16128DOD     C292204   2.911  16.763  13.928 -0.2771 -0.0970  0.1257
16128DOD     C392205   3.350  16.879  14.144 -0.0043 -0.3202 -0.0220
16129DOD     C192206   1.502  20.665  24.541  0.3712 -0.1106  0.2951
16129DOD     C292207   1.413  20.151  24.568  0.0528 -0.2851 -0.2606
16129DOD     C392208   1.430  19.885  24.184  0.1223  0.1669 -0.3095
16130DOD     C192209  15.227  19.661   2.650  0.1221  0.0247  0.2498
16130DOD     C292210  15.420  19.632   3.091 -0.0444 -0.0968 -0.0232
16130DOD     C392211  15.214  20.010   3.323 -0.2242  0.1487  0.0280
16131DOD     C192212  27.770  15.167  16.779  0.0801 -0.4017 -0.2017
16131DOD     C292213  28.235  15.134  16.822  0.0849  0.1440  0.1108
16131DOD     C392214  28.715  15.163  16.727  0.0316 -0.0723  0.1302
16132DOD     C192215  15.680  29.302  29.086 -0.0401 -0.1607 -0.1153
16132DOD     C292216  15.598  29.526  29.493 -0.0519 -0.2241 -0.1579
16132DOD     C392217  15.667  29.982  29.723  0.0617 -0.0286 -0.0786
16133DOD     C192218  24.889  17.182   6.637 -0.1435  0.1441 -0.1924
16133DOD     C292219  24.471  17.442   6.734 -0.1234 -0.0515  0.0481
16133DOD     C392220  24.330  17.749   7.127 -0.1299  0.1871  0.3715
16134DOD     C192221  27.537   4.792  16.146 -0.1133 -0.0800 -0.1113
16134DOD     C292222  27.482   4.806  16.586 -0.1038  0.1529 -0.1298
16134DOD     C392223  27.396   4.624  17.049 -0.3855  0.3078  0.0865
16135DOD     C192224   0.917  11.915  20.805 -0.0718 -0.0666  0.2026
16135DOD     C292225   1.171  11.557  20.975  0.0612  0.0269  0.2055
16135DOD     C392226   0.923  11.164  21.071 -0.0722 -0.1244  0.1114
16136DOD     C192227   6.367  17.065  11.027  0.1803 -0.0074 -0.2375
16136DOD     C292228   6.418  17.275  11.420 -0.1631 -0.0994 -0.2160
16136DOD     C392229   6.711  17.606  11.405  0.0447  0.2813  0.0959
16137DOD     C192230  20.420   5.085   0.519  0.2342 -0.0722 -0.2459
16137DOD     C292231  20.605   4.683   0.574 -0.0314 -0.2973  0.2457
16137DOD     C392232  20.737   4.257   0.675 -0.1983 -0.2159 -0.0316
16138DOD     C192233   5.219   1.656   6.850 -0.0637  0.0403  0.1049
16138DOD     C292234   4.897   1.720   7.167  0.0356  0.1560 -0.0047
16138DOD     C392235   4.555   1.458   7.441  0.1052  0.0372  0.1336
16139DOD     C192236   1.042   6.790   1.170 -0.0238 -0.0715  0.0506
16139DOD     C292237   0.803   6.721   0.765 -0.0642  0.2284 -0.1786
16139DOD     C392238   0.490   6.658   0.421 -0.1634 -0.2289 -0.1625
16140DOD     C192239  22.232   9.958   7.393  0.0753 -0.1503  0.2464
16140DOD     C292240  22.345   9.674   7.708  0.0422  0.2205 -0.2386
16140DOD     C392241  22.779   9.387   7.664 -0.1019 -0.1800 -0.1510
16141DOD     C192242   3.494  14.401  25.185  0.0028  0.1456  0.0640
16141DOD     C292243   3.413  14.652  24.771 -0.0775  0.1933 -0.4505
16141DOD     C392244   3.159  14.700  24.386  0.1427 -0.0818 -0.0384
16142DOD     C192245  21.592  12.422  18.027  0.0258 -0.3871  0.0111
16142DOD     C292246  22.055  12.255  17.990  0.1027  0.2132  0.1942
16142DOD     C392247  22.321  11.853  17.819 -0.1108 -0.0148 -0.2694
16143DOD     C192248  27.810  23.107  15.298 -0.3742 -0.1701  0.2268
16143DOD     C292249  27.604  23.061  14.900 -0.0209  0.1117 -0.0976
16143DOD     C392250  27.338  23.398  14.694  0.0916 -0.1811 -0.0130
16144DOD     C192251   3.033  24.009  30.323  0.1177  0.0644  0.0171
16144DOD     C292252   3.227  23.610  30.314 -0.2733  0.1520  0.2907
16144DOD     C392253   3.478  23.241  30.212 -0.2445 -0.0401 -0.0243
16145DOD     C192254  21.681   0.541  18.057  0.1270 -0.1533  0.0224
16145DOD     C292255  22.012   0.282  18.036  0.2051  0.2125  0.1209
16145DOD     C392256  21.989  30.379  18.429 -0.2905  0.3173  0.1625
16146DOD     C192257   5.090  17.671  11.183  0.0307  0.0552 -0.1493
16146DOD     C292258   4.792  17.805  10.837  0.1668 -0.0723  0.3264
16146DOD     C392259   4.816  17.944  10.371 -0.0367  0.1723 -0.0105
16147DOD     C192260  10.647  19.436  13.787  0.3412  0.2179 -0.1679
16147DOD     C292261  11.001  19.742  13.803 -0.2117 -0.3456  0.2705
16147DOD     C392262  11.449  19.824  13.683 -0.0919 -0.1280 -0.2174
16148DOD     C192263   5.644  20.859   2.961  0.0292  0.1261 -0.2109
16148DOD     C292264   5.722  20.963   2.560 -0.0194  0.2695 -0.2640
16148DOD     C392265   5.985  20.945   2.169  0.3392  0.0792 -0.1191
16149DOD     C192266  16.854  12.351  10.761  0.0313 -0.1971 -0.1626
16149DOD     C292267  16.612  12.603  10.485  0.3150 -0.1050  0.2408
16149DOD     C392268  16.161  12.618  10.393 -0.1074  0.0403  0.0857
16150DOD     C192269  17.964  13.986   6.071 -0.1313 -0.1620 -0.2750
16150DOD     C292270  17.589  14.150   6.255  0.0821  0.1685  0.0468
16150DOD     C392271  17.112  14.201   6.164  0.0575  0.0898 -0.1318
16151DOD     C192272  13.914   0.492   1.317 -0.0832  0.1373  0.0017
16151DOD     C292273  14.385   0.451   1.153 -0.0535  0.0185  0.3211
16151DOD     C392274  14.668   0.506   0.778  0.0136  0.1982  0.0084
16152DOD     C192275  21.141  20.407   7.294 -0.0552  0.3260 -0.0881
16152DOD     C292276  21.227  20.836   6.985 -0.1567  0.4511  0.0583
16152DOD     C392277  20.981  21.008   6.647  0.1566 -0.0211 -0.1190
16153DOD     C192278   2.512   5.120  10.377  0.2219 -0.1062  0.0628
16153DOD     C292279   2.345   4.875  10.003  0.1779  0.3536 -0.1625
16153DOD     C392280   2.176   4.456   9.770 -0.0993  0.1910  0.1905
16154DOD     C192281  26.676  29.417  14.456  0.1624  0.1088 -0.0391
16154DOD     C292282  26.418  29.085  14.641  0.1944  0.0556  0.1209
16154DOD     C392283  26.060  28.886  14.404  0.5357  0.0463  0.2840
16155DOD     C192284  19.643   5.166  25.012 -0.1055 -0.1615 -0.1213
16155DOD     C292285  19.819   4.895  24.710  0.1755  0.2499 -0.1257
16155DOD     C392286  20.157   4.634  24.449  0.0137  0.1412  0.2191
16156DOD     C192287  21.945  17.381  22.363 -0.2918  0.4246 -0.2087
16156DOD     C292288  21.509  17.318  22.451  0.0054 -0.0156 -0.5226
16156DOD     C392289  21.034  17.336  22.502  0.0348  0.2884 -0.2415
16157DOD     C192290  13.566  29.947   6.669 -0.0728  0.1124  0.0768
16157DOD     C292291  13.208  29.677   6.442 -0.1107 -0.0934 -0.0988
16157DOD     C392292  12.890  29.365   6.477 -0.1567  0.0895  0.1067
16158DOD     C192293  29.715  25.929   8.294  0.1179 -0.1611  0.2106
16158DOD     C292294  30.114  26.124   8.562  0.1061  0.0038  0.0386
16158DOD     C392295   0.100  26.266   8.886  0.0102 -0.1156 -0.1016
16159DOD     C192296  10.529  12.578  21.252 -0.0024 -0.1836 -0.0991
16159DOD     C292297  10.116  12.601  21.412  0.2510 -0.1132  0.2059
16159DOD     C392298   9.929  12.886  21.690 -0.1029  0.0654  0.4010
16160DOD     C192299   7.604  24.313  15.122 -0.0677  0.2112  0.0969
16160DOD     C292300   7.692  24.788  15.090 -0.2189 -0.1442  0.2248
16160DOD     C392301   7.641  25.190  15.234 -0.0602 -0.0550 -0.3731
16161DOD     C192302  14.860   5.184  26.525  0.1738 -0.0231  0.2822
16161DOD     C292303  15.315   5.149  26.265  0.0306 -0.0317 -0.1882
16161DOD     C392304  15.762   5.224  26.436 -0.1372 -0.0828 -0.2138
16162DOD     C192305  29.721   9.031  10.784 -0.0125  0.1409 -0.0912
16162DOD     C292306  29.902   9.209  10.456  0.0073  0.1406 -0.1920
16162DOD     C392307  30.061   8.965  10.060  0.1070 -0.3680  0.1450
16163DOD     C192308  26.691  20.568  15.507  0.0599 -0.0667 -0.3230
16163DOD     C292309  27.147  20.648  15.254 -0.0692  0.1053 -0.1288
16163DOD     C392310  27.398  20.407  14.879  0.1415  0.3626  0.0385
16164DOD     C192311  14.060   4.102  29.132  0.0195 -0.0253  0.1798
16164DOD     C292312  14.401   3.902  29.330  0.0644  0.1527 -0.1728
16164DOD     C392313  14.876   3.946  29.515  0.2826 -0.2315  0.1623
16165DOD     C192314   8.000   5.412  14.884  0.0464  0.0383 -0.0974
16165DOD     C292315   7.844   5.024  14.655  0.1909  0.1702 -0.1119
16165DOD     C392316   7.565   4.740  14.444 -0.3367  0.2225  0.0531
16166DOD     C192317   4.870  13.117   9.307 -0.4688  0.0980  0.2966
16166DOD     C292318   5.235  12.859   9.233  0.0619 -0.1923  0.2951
16166DOD     C392319   5.697  12.745   9.211  0.1816  0.1901  0.1185
16167DOD     C192320  24.860   6.233   6.311  0.1168  0.2803 -0.1744
16167DOD     C292321  25.133   6.242   6.681 -0.1600  0.1443  0.0690
16167DOD     C392322  25.584   6.352   6.697 -0.3220 -0.2179 -0.1996
16168DOD     C192323   8.819  19.693  29.657 -0.0609  0.0067  0.0535
16168DOD     C292324   8.364  19.628  29.544 -0.2332 -0.1992  0.0721
16168DOD     C392325   8.352  19.491  29.101 -0.1230 -0.5082  0.3627
16169DOD     C192326  26.610  21.263  24.703  0.0197  0.0520  0.2834
16169DOD     C292327  26.894  21.176  24.280  0.0511  0.0680  0.2312
16169DOD     C392328  27.182  20.803  24.247 -0.0664  0.0114  0.2564
16170DOD     C192329   4.557   0.445  30.037  0.0590  0.1358  0.4307
16170DOD     C292330   4.239   0.479  29.642  0.1682 -0.1187  0.2951
16170DOD     C392331   4.291   0.671  29.150  0.0738  0.2594  0.0148
16171DOD     C192332  10.451  29.882   4.654  0.0909 -0.0088  0.0582
16171DOD     C292333  10.026  29.698   4.511  0.0315 -0.1845  0.0101
16171DOD     C392334   9.666  29.666   4.236 -0.0230  0.0841 -0.1832
16172DOD     C192335  25.229  16.823  10.744 -0.1152  0.0780  0.6230
16172DOD     C292336  25.366  16.773  11.186 -0.4941  0.1047  0.2117
16172DOD     C392337  25.373  16.949  11.633 -0.1163  0.1103 -0.0613
16173DOD     C192338   4.850   3.823   5.871  0.1258 -0.0447  0.2467
16173DOD     C292339   4.502   3.485   6.003 -0.1123  0.3534  0.1893
16173DOD     C392340   4.301   3.244   6.321  0.1919 -0.0477 -0.2926
16174DOD     C192341   2.917  20.389   9.851 -0.1086 -0.3204 -0.0746
16174DOD     C292342   2.927  19.950   9.881  0.3681  0.0447 -0.1822
16174DOD     C392343   2.918  19.488  10.004 -0.0361 -0.3957 -0.1112
16175DOD     C192344  28.605  24.158   9.299 -0.2275  0.2533 -0.1463
16175DOD     C292345  28.368  23.979   9.694 -0.1651  0.0310  0.1118
16175DOD     C392346  28.155  23.635   9.895  0.2413  0.2154  0.0069
16176DOD     C192347   3.751   0.155   3.171 -0.0460  0.0600 -0.3034
16176DOD     C292348   3.502   0.163   3.627 -0.2395 -0.2241 -0.0342
16176DOD     C392349   3.380   0.237   4.114 -0.1121  0.4167  0.0065
16177DOD     C192350   7.712  18.585  15.913  0.1236  0.0722 -0.1818
16177DOD     C292351   8.135  18.514  15.799 -0.0832  0.1637  0.0078
16177DOD     C392352   8.556  18.558  15.630 -0.1755 -0.1420  0.4065
16178DOD     C192353  10.610  22.601  12.096 -0.0066  0.1003 -0.1438
16178DOD     C292354  10.532  22.242  12.421  0.0827 -0.1523  0.2884
16178DOD     C392355  10.673  21.833  12.609 -0.0719 -0.2780  0.1460
16179DOD     C192356   7.506  18.824  28.883  0.1819 -0.1669 -0.0139
16179DOD     C292357   7.808  18.517  28.866 -0.3833 -0.1322 -0.0322
16179DOD     C392358   8.086  18.115  28.874 -0.1903 -0.0106 -0.3257
16180DOD     C192359  26.359  24.359  23.411  0.1355 -0.4475 -0.1190
16180DOD     C292360  26.037  24.230  23.188  0.4586  0.2559 -0.0665
16180DOD     C392361  25.872  23.805  23.130  0.1297  0.0282  0.4049
16181DOD     C192362  12.183   1.235  15.968 -0.3318 -0.2515  0.0520
16181DOD     C292363  12.311   1.683  15.709 -0.1972  0.1486 -0.4225
16181DOD     C392364  12.258   2.149  15.706  0.1946 -0.0453 -0.0693
16182DOD     C192365  25.933  22.968  17.937 -0.1326  0.0283  0.0681
16182DOD     C292366  25.833  23.216  17.587 -0.1686 -0.0630 -0.2454
16182DOD     C392367  26.076  23.461  17.335 -0.0504 -0.0504  0.0136
16183DOD     C192368  27.372   9.763   6.357 -0.0782  0.0937  0.0293
16183DOD     C292369  27.417   9.299   6.494  0.2139  0.0464  0.1306
16183DOD     C392370  27.756   8.958   6.559 -0.0013 -0.0930 -0.0020
16184DOD     C192371  15.726   4.669  29.364 -0.4654 -0.0457  0.0903
16184DOD     C292372  15.651   4.264  29.483  0.1176 -0.0681  0.0410
16184DOD     C392373  15.499   4.037  29.936  0.3309  0.0561  0.2215
16185DOD     C192374  15.978  23.700   4.761 -0.1024 -0.1383  0.0821
16185DOD     C292375  15.914  23.246   4.837  0.0950  0.2793 -0.1426
16185DOD     C392376  15.767  22.809   5.053  0.0979 -0.1002 -0.0117
16186DOD     C192377   7.839   7.726  25.484  0.0476  0.1672 -0.2615
16186DOD     C292378   7.804   7.792  25.880 -0.2534 -0.0037  0.2758
16186DOD     C392379   7.514   7.997  26.085  0.1140 -0.1840 -0.3646
16187DOD     C192380   9.063  28.293  25.216  0.0645 -0.0495 -0.0325
16187DOD     C292381   9.191  27.921  25.438 -0.1748  0.3263 -0.0822
16187DOD     C392382   9.318  27.488  25.390 -0.2677 -0.0864 -0.1229
16188DOD     C192383  22.163  12.099  18.531  0.1177 -0.1256  0.1689
16188DOD     C292384  22.143  11.705  18.773 -0.1789 -0.1565 -0.0091
16188DOD     C392385  22.260  11.560  19.213  0.2726 -0.0217 -0.1650
16189DOD     C192386  16.831   4.817   4.908  0.2102  0.1379 -0.2634
16189DOD     C292387  16.968   4.898   5.330 -0.1430  0.1909 -0.1719
16189DOD     C392388  16.553   5.068   5.592 -0.1199 -0.2956  0.1263
16190DOD     C192389  16.880   8.532  16.462 -0.1406  0.2774  0.0445
16190DOD     C292390  16.959   8.238  16.822 -0.1624  0.0686 -0.0856
16190DOD     C392391  16.786   7.915  17.167  0.3473  0.0780  0.1891
16191DOD     C192392   3.794  15.286  26.834  0.0254  0.1180 -0.2574
16191DOD     C292393   3.806  15.609  26.473  0.1719 -0.3486 -0.1563
16191DOD     C392394   3.987  15.752  26.049 -0.0796 -0.1620  0.1058
16192DOD     C192395   5.668   2.106   3.602  0.1975  0.3959 -0.2357
16192DOD     C292396   5.804   2.084   4.065  0.1298  0.3012 -0.1413
16192DOD     C392397   5.676   1.879   4.480  0.2858  0.2242 -0.0165
16193DOD     C192398  22.701  13.576  19.997 -0.0471 -0.0975  0.1994
16193DOD     C292399  22.955  13.504  19.633 -0.3463  0.0217  0.1712
16193DOD     C392400  22.928  13.685  19.218 -0.1663  0.1884 -0.2561
16194DOD     C192401   1.111   2.773  23.474  0.1253 -0.1755 -0.3008
16194DOD     C292402   1.243   3.178  23.706  0.1142 -0.0818 -0.1667
16194DOD     C392403   1.066   3.447  23.978  0.0088  0.1306  0.0319
16195DOD     C192404   8.467  16.357   6.435  0.0068  0.1954  0.1308
16195DOD     C292405   8.307  16.421   6.827 -0.1785 -0.1684  0.0089
16195DOD     C392406   7.991  16.680   7.107  0.0073  0.1539 -0.2495
16196DOD     C192407  25.324  13.341  25.106  0.4234  0.1610 -0.0033
16196DOD     C292408  24.952  13.068  25.128 -0.2246 -0.0099  0.2165
16196DOD     C392409  24.573  12.845  25.233 -0.1634  0.0321 -0.1394
16197DOD     C192410  27.648  28.652  12.011 -0.1754  0.1058 -0.1307
16197DOD     C292411  27.637  28.790  12.449 -0.1079  0.0284  0.1448
16197DOD     C392412  27.635  28.945  12.888  0.0848 -0.0655  0.4852
16198DOD     C192413  27.316   2.923   5.431 -0.3493  0.1114  0.3097
16198DOD     C292414  27.413   2.988   5.864  0.2638  0.0924  0.1681
16198DOD     C392415  27.872   2.942   5.996  0.1170 -0.1670 -0.3225
16199DOD     C192416  21.219  27.347  21.864  0.0107  0.0783 -0.0245
16199DOD     C292417  20.847  27.198  22.093  0.1107  0.1136  0.3460
16199DOD     C392418  20.437  27.245  22.170  0.2510 -0.0653  0.0275
16200DOD     C192419  20.286  25.495  18.299  0.2582  0.0471 -0.0169
16200DOD     C292420  20.391  25.799  18.624 -0.0238 -0.2444 -0.1663
16200DOD     C392421  20.510  26.293  18.687  0.1494 -0.4699 -0.1111
16201DOD     C192422  20.128  17.237   8.261  0.0093  0.0403 -0.1122
16201DOD     C292423  20.366  16.821   8.292  0.2353 -0.0055 -0.4009
16201DOD     C392424  20.510  16.418   8.129  0.0694 -0.0701  0.1924
16202DOD     C192425  19.714   6.794  13.154 -0.0752 -0.0636 -0.1187
16202DOD     C292426  19.522   6.372  13.224  0.0002 -0.1248 -0.3907
16202DOD     C392427  19.072   6.243  13.319  0.3270 -0.1803 -0.1329
16203DOD     C192428  19.638  21.828  13.938  0.0088 -0.1787 -0.3993
16203DOD     C292429  20.085  21.956  14.017 -0.1180  0.0317 -0.1889
16203DOD     C392430  20.386  22.332  14.021  0.0273 -0.0879 -0.1687
16204DOD     C192431   8.397  12.896  27.990 -0.1845 -0.0601  0.0039
16204DOD     C292432   8.151  13.024  28.313  0.4215 -0.2234  0.2726
16204DOD     C392433   8.277  12.832  28.727 -0.0639 -0.1935 -0.0162
16205DOD     C192434  17.444   8.418   0.503  0.2806  0.0844  0.0369
16205DOD     C292435  17.853   8.606   0.338 -0.0462 -0.1107  0.2378
16205DOD     C392436  18.301   8.750   0.134  0.0979 -0.3029  0.0215
16206DOD     C192437  23.469   6.298   5.042 -0.2091  0.0473  0.0487
16206DOD     C292438  23.564   6.451   4.597  0.1146 -0.0291  0.0851
16206DOD     C392439  23.544   6.237   4.194 -0.1107 -0.2459  0.2057
16207DOD     C192440  28.542  25.614  23.049 -0.0820 -0.3598  0.2283
16207DOD     C292441  28.525  25.344  22.675  0.0424  0.1219  0.0802
16207DOD     C392442  28.272  25.013  22.731  0.4547  0.3128 -0.1269
16208DOD     C192443  19.048   0.901  30.229 -0.0357  0.1459  0.1873
16208DOD     C292444  19.491   0.917   0.026 -0.0972  0.0415 -0.0463
16208DOD     C392445  19.810   0.826   0.320  0.0069 -0.1448  0.0160
16209DOD     C192446  21.502   3.456   0.514 -0.1189 -0.0853 -0.0084
16209DOD     C292447  21.563   3.648   0.892  0.1444  0.2523  0.1357
16209DOD     C392448  21.931   3.750   1.181 -0.1603 -0.0469 -0.0034
16210DOD     C192449  28.168  17.709   8.095  0.1345  0.2430 -0.3193
16210DOD     C292450  27.741  17.618   8.151 -0.0402  0.2450 -0.0198
16210DOD     C392451  27.411  17.979   8.239 -0.2767  0.0104 -0.0556
16211DOD     C192452  11.634  13.477  18.591 -0.0524  0.0759 -0.0549
16211DOD     C292453  11.883  13.156  18.414 -0.2124  0.1495  0.1529
16211DOD     C392454  11.876  12.656  18.273  0.0099  0.0279 -0.1627
16212DOD     C192455  11.075  14.107  19.506  0.1724 -0.1082  0.0862
16212DOD     C292456  11.321  14.370  19.179 -0.0701  0.0095 -0.0404
16212DOD     C392457  11.590  14.691  19.068 -0.1605  0.0314  0.0269
16213DOD     C192458   4.434  13.858  15.683  0.1424 -0.1093 -0.1702
16213DOD     C292459   4.278  13.610  15.326 -0.0763  0.0723  0.0423
16213DOD     C392460   3.946  13.619  14.995  0.0724  0.2166  0.0123
16214DOD     C192461  15.887  12.856  26.412  0.1882  0.1993  0.4328
16214DOD     C292462  16.086  12.895  26.810  0.0708  0.1210  0.1457
16214DOD     C392463  16.015  13.198  27.137  0.1485  0.2316 -0.1138
16215DOD     C192464   8.855  21.074  30.005  0.1876 -0.2349  0.2024
16215DOD     C292465   8.901  21.287   0.150  0.0334 -0.2305  0.2787
16215DOD     C392466   9.114  21.701   0.343 -0.1655  0.2260 -0.2772
16216DOD     C192467  11.270  15.711  29.292 -0.0411 -0.1555 -0.0375
16216DOD     C292468  11.605  16.057  29.381 -0.0332  0.0725  0.0253
16216DOD     C392469  11.887  16.484  29.480 -0.0407 -0.0927 -0.0327
16217DOD     C192470  23.021  13.180   9.504  0.2814 -0.3224  0.0237
16217DOD     C292471  23.446  13.388   9.512  0.1543 -0.1371 -0.4089
16217DOD     C392472  23.706  13.712   9.429 -0.0718 -0.3421  0.0956
16218DOD     C192473  12.374   8.915  13.625 -0.0052  0.1745  0.1346
16218DOD     C292474  12.798   8.703  13.716  0.2650  0.3478  0.2455
16218DOD     C392475  13.216   8.590  13.648 -0.2465  0.3546 -0.2866
16219DOD     C192476   5.446   3.168  10.732  0.2596 -0.3193  0.0771
16219DOD     C292477   5.541   3.633  10.919  0.2614 -0.0715 -0.0914
16219DOD     C392478   5.718   3.782  11.401 -0.0768  0.0618  0.3144
16220DOD     C192479  23.499   0.311   7.284 -0.2065  0.2388 -0.1373
16220DOD     C292480  23.047   0.426   7.438 -0.1045  0.0601 -0.2697
16220DOD     C392481  22.633   0.439   7.265  0.0571  0.2040 -0.2542
16221DOD     C192482   2.974  14.585  28.175 -0.0114  0.1513  0.0208
16221DOD     C292483   2.833  14.682  28.585 -0.0001 -0.0765  0.2054
16221DOD     C392484   2.655  14.487  28.995  0.0462 -0.1669  0.1764
16222DOD     C192485  12.067   8.964  25.572  0.1274 -0.3703  0.1204
16222DOD     C292486  12.234   9.110  25.107 -0.0996 -0.1177 -0.1737
16222DOD     C392487  12.415   9.122  24.680 -0.0406 -0.2328 -0.0743
16223DOD     C192488  16.195  24.141  19.104  0.2841  0.0121  0.3486
16223DOD     C292489  15.736  24.088  19.248 -0.0667 -0.0273 -0.0860
16223DOD     C392490  15.420  24.108  19.555 -0.0194 -0.2012  0.2218
16224DOD     C192491  20.099   9.654  14.573 -0.0636 -0.2678 -0.1407
16224DOD     C292492  20.274  10.069  14.559 -0.3190  0.4482  0.1174
16224DOD     C392493  20.220  10.518  14.614 -0.2151  0.0618 -0.1537
16225DOD     C192494  29.211  23.955   1.750  0.3792 -0.3177 -0.2007
16225DOD     C292495  28.923  23.809   1.449  0.3937 -0.1530 -0.1692
16225DOD     C392496  28.567  23.715   1.131  0.0122  0.1899 -0.1315
16226DOD     C192497  27.092  25.754   0.888 -0.1111  0.0823  0.0823
16226DOD     C292498  27.203  25.968   1.328  0.1199  0.1008  0.0223
16226DOD     C392499  26.889  26.057   1.636 -0.0995  0.0781 -0.1673
16227DOD     C192500   6.248   1.320  24.451 -0.2406 -0.0210  0.1563
16227DOD     C292501   6.351   0.871  24.460 -0.1110 -0.1696 -0.0625
16227DOD     C392502   6.515   0.469  24.636 -0.0748  0.0146 -0.0410
16228DOD     C192503  24.865  29.277  20.426 -0.0664 -0.3648  0.1401
16228DOD     C292504  25.280  29.139  20.639 -0.1604  0.1116  0.2099
16228DOD     C392505  25.541  29.124  20.962 -0.1669 -0.0773  0.1368
16229DOD     C192506  16.609  17.796  18.990 -0.0183  0.1726 -0.0985
16229DOD     C292507  16.413  17.721  18.543  0.3703  0.0262  0.2553
16229DOD     C392508  16.244  17.619  18.128  0.1509 -0.2244  0.2361
16230DOD     C192509   2.841   8.211   9.656 -0.0726  0.0456  0.1468
16230DOD     C292510   2.517   8.550   9.715 -0.1379 -0.0676  0.1113
16230DOD     C392511   2.493   8.974  10.001  0.0848  0.1776 -0.2413
16231DOD     C192512  13.812  10.602  20.564 -0.0877  0.0653  0.0713
16231DOD     C292513  14.102  10.818  20.800 -0.2185  0.2544 -0.1778
16231DOD     C392514  14.416  11.112  20.994 -0.1666  0.0071  0.0801
16232DOD     C192515  22.502   7.493  13.976  0.2103  0.0131 -0.2152
16232DOD     C292516  22.463   7.591  14.452  0.1417  0.0330  0.1443
16232DOD     C392517  22.493   7.989  14.664  0.1303 -0.0370 -0.0444
16233DOD     C192518   6.718  27.457  18.713  0.2374  0.2191 -0.2463
16233DOD     C292519   7.033  27.253  18.430 -0.3407 -0.3602 -0.0648
16233DOD     C392520   7.244  26.924  18.185  0.0851 -0.1286  0.2642
16234DOD     C192521  17.738  22.578  18.093  0.1201  0.0322 -0.3991
16234DOD     C292522  17.550  22.825  17.769  0.2675  0.0828 -0.1227
16234DOD     C392523  17.400  23.194  17.504  0.1503  0.1188  0.1523
16235DOD     C192524  14.018  16.127  23.639 -0.1967 -0.0871 -0.0210
16235DOD     C292525  14.350  16.104  23.310  0.3177 -0.2828  0.2504
16235DOD     C392526  14.821  16.043  23.113 -0.0437 -0.2742  0.1994
16236DOD     C192527   5.315  20.748   9.808  0.0521 -0.2731  0.0850
16236DOD     C292528   4.919  20.915   9.613 -0.0321 -0.0852 -0.0089
16236DOD     C392529   4.589  21.187   9.408  0.3075  0.0458 -0.0829
16237DOD     C192530  22.643  25.630  11.006 -0.2826 -0.3588 -0.0164
16237DOD     C292531  22.275  25.726  10.726 -0.0823  0.3611  0.0340
16237DOD     C392532  22.137  25.902  10.316 -0.0311  0.2162 -0.5407
16238DOD     C192533  28.776  20.764  16.678  0.1961 -0.0147  0.1888
16238DOD     C292534  28.963  21.147  16.833  0.1565  0.0432  0.1278
16238DOD     C392535  28.794  21.568  16.680 -0.1223 -0.1652  0.3565
16239DOD     C192536  11.216  26.613   5.649  0.0289 -0.0933 -0.2608
16239DOD     C292537  11.495  26.481   6.012  0.1291  0.0504 -0.0087
16239DOD     C392538  11.855  26.213   6.031 -0.2106  0.0426 -0.1826
16240DOD     C192539  13.892  23.206  27.834 -0.1002 -0.1657 -0.0755
16240DOD     C292540  13.860  22.887  28.178  0.1108 -0.0732  0.2386
16240DOD     C392541  14.106  22.510  28.253  0.1684  0.1478 -0.2575
16241DOD     C192542  21.455  18.423  24.466 -0.3180 -0.0709 -0.0261
16241DOD     C292543  21.404  18.413  24.035 -0.0489  0.2803 -0.1411
16241DOD     C392544  21.487  18.759  23.758  0.4193 -0.0672  0.0439
16242DOD     C192545   7.749  14.335  14.334 -0.4051 -0.0734  0.2629
16242DOD     C292546   7.484  13.944  14.344 -0.0523  0.0798 -0.0793
16242DOD     C392547   7.120  13.768  14.160  0.0907 -0.1366  0.0572
16243DOD     C192548  27.680  25.138  29.856  0.0127  0.1294  0.0716
16243DOD     C292549  27.980  25.050  29.469 -0.3385 -0.0895 -0.1453
16243DOD     C392550  28.034  25.054  28.994  0.0629 -0.3397  0.1748
16244DOD     C192551  20.788  25.794   8.406 -0.1954 -0.0890 -0.0489
16244DOD     C292552  20.673  26.259   8.541 -0.0167  0.0821  0.0037
16244DOD     C392553  20.438  26.625   8.788 -0.0563  0.1414  0.1014
16245DOD     C192554   1.599  28.571  23.122 -0.0138 -0.1581  0.1628
16245DOD     C292555   2.020  28.621  23.328 -0.5355 -0.0986 -0.1935
16245DOD     C392556   2.477  28.420  23.304 -0.0110 -0.1294  0.0321
16246DOD     C192557   1.261  10.330  29.817 -0.0376 -0.0916 -0.2500
16246DOD     C292558   1.542  10.598  30.126  0.1592 -0.2751 -0.2570
16246DOD     C392559   1.538  10.932   0.163  0.2075 -0.0126  0.0246
16247DOD     C192560  20.365  11.293   8.080 -0.0333 -0.2140  0.2359
16247DOD     C292561  20.717  11.032   7.864  0.0814  0.1647 -0.0242
16247DOD     C392562  21.196  11.043   7.860 -0.0457  0.1140 -0.0491
16248DOD     C192563  23.630   0.491  18.914 -0.3219 -0.3675 -0.0589
16248DOD     C292564  23.496   0.074  19.024 -0.0601 -0.0816  0.2641
16248DOD     C392565  23.244  29.976  19.091 -0.1892 -0.2944  0.1042
16249DOD     C192566   6.009   5.660  17.849 -0.2008 -0.0485  0.1425
16249DOD     C292567   6.103   5.352  17.483  0.0496 -0.0845 -0.1128
16249DOD     C392568   6.163   5.148  17.032  0.0923  0.1263 -0.0157
16250DOD     C192569  16.583  12.797   1.658  0.0089 -0.2196  0.1072
16250DOD     C292570  16.353  12.516   2.018  0.1249  0.5229  0.1524
16250DOD     C392571  16.256  12.347   2.423 -0.1352  0.1856 -0.0108
16251DOD     C192572   7.621  12.748   1.335 -0.1369 -0.1374 -0.0779
16251DOD     C292573   7.302  12.544   1.181 -0.0521 -0.3258  0.2659
16251DOD     C392574   6.858  12.322   1.151 -0.4174 -0.0392 -0.1051
16252DOD     C192575  26.338  25.785  20.209 -0.0158 -0.0451 -0.1938
16252DOD     C292576  26.383  26.195  20.479  0.3708  0.2008  0.1421
16252DOD     C392577  26.472  26.585  20.648 -0.0006 -0.1670  0.0373
16253DOD     C192578  12.259   1.508  18.860  0.4000 -0.0143 -0.0169
16253DOD     C292579  12.220   1.414  19.300 -0.0585  0.0607 -0.0313
16253DOD     C392580  12.119   1.595  19.760  0.1039 -0.0063  0.0893
16254DOD     C192581   0.819  30.120  10.681 -0.2559 -0.0669  0.0136
16254DOD     C292582   0.502  29.936  10.963 -0.2339 -0.1922  0.0669
16254DOD     C392583   0.042  29.805  11.059 -0.3471 -0.2813  0.0455
16255DOD     C192584  24.304   3.611   4.493  0.0719  0.3401  0.1128
16255DOD     C292585  24.303   3.605   4.019 -0.1944 -0.2107  0.0585
16255DOD     C392586  24.211   3.770   3.632  0.0350 -0.2170  0.0970
16256DOD     C192587  23.184  13.131   4.902 -0.1982 -0.1277 -0.1499
16256DOD     C292588  23.498  13.336   5.207 -0.0324  0.2968  0.1457
16256DOD     C392589  23.824  13.550   5.464 -0.3573  0.3207  0.2026
16257DOD     C192590  20.388  29.890  22.435  0.0304  0.1129 -0.2254
16257DOD     C292591  20.329  29.425  22.559  0.3454 -0.0741 -0.1675
16257DOD     C392592  20.603  29.065  22.649  0.2573 -0.0458 -0.0143
16258DOD     C192593   6.816   2.793  14.079  0.2171 -0.1509  0.2188
16258DOD     C292594   6.329   2.717  14.138  0.0826 -0.3203  0.1573
16258DOD     C392595   5.937   2.475  14.258 -0.2447  0.1668 -0.0629
16259DOD     C192596  17.200  15.332  13.298 -0.1921 -0.1564  0.3015
16259DOD     C292597  17.081  15.175  13.755 -0.2221  0.0959 -0.0353
16259DOD     C392598  16.973  14.832  14.003 -0.0612 -0.2418 -0.0466
16260DOD     C192599  25.378  10.660  29.360  0.0109 -0.1064  0.0556
16260DOD     C292600  25.807  10.589  29.577 -0.0303  0.1955 -0.2277
16260DOD     C392601  26.262  10.451  29.719 -0.0247  0.0505  0.0292
16261DOD     C192602  17.624   3.937  29.330  0.1210 -0.0996  0.0968
16261DOD     C292603  18.045   3.707  29.413 -0.0361  0.1668 -0.3436
16261DOD     C392604  18.359   3.401  29.261  0.5271 -0.2101  0.1845
16262DOD     C192605  17.838  11.301  24.063  0.2096  0.0492  0.0025
16262DOD     C292606  17.799  11.762  23.958 -0.0986 -0.1607  0.0096
16262DOD     C392607  17.850  12.139  24.213  0.0990 -0.3845  0.2439
16263DOD     C192608   6.127  11.076   3.954  0.0734  0.3866  0.2753
16263DOD     C292609   6.101  11.437   4.224  0.1329  0.1093  0.6380
16263DOD     C392610   6.284  11.841   4.102 -0.2113  0.0200  0.1613
16264DOD     C192611  18.907  10.264  17.537  0.1388 -0.0980 -0.0454
16264DOD     C292612  19.386  10.255  17.685 -0.0742  0.3279  0.0347
16264DOD     C392613  19.749  10.465  17.884 -0.0474 -0.4284  0.0684
16265DOD     C192614   1.692   8.336  28.125  0.1006  0.0782  0.0592
16265DOD     C292615   1.439   8.237  27.745  0.0138  0.3430  0.1195
16265DOD     C392616   1.072   7.978  27.703 -0.1254  0.1464 -0.3395
16266DOD     C192617  15.833  21.524  28.272 -0.0653 -0.1813  0.1592
16266DOD     C292618  15.466  21.250  28.392 -0.3470  0.0908  0.1002
16266DOD     C392619  15.234  21.008  28.091 -0.2028 -0.2276 -0.0690
16267DOD     C192620   3.526   6.552   7.145 -0.2293 -0.2808 -0.0494
16267DOD     C292621   3.095   6.547   7.068  0.2854 -0.2832  0.1801
16267DOD     C392622   2.780   6.788   6.831  0.2296  0.1369  0.0105
16268DOD     C192623  27.339  25.073  27.747 -0.0771 -0.0414  0.1368
16268DOD     C292624  27.288  24.595  27.649  0.1549 -0.0483  0.0617
16268DOD     C392625  27.167  24.127  27.535 -0.0049 -0.2266  0.0954
16269DOD     C192626  30.239  29.681   5.584 -0.0636 -0.0351  0.2266
16269DOD     C292627   0.206  29.392   5.855 -0.2095  0.1990  0.1396
16269DOD     C392628   0.489  29.098   6.059  0.0030  0.1575 -0.0512
16270DOD     C192629  28.488  26.608  25.150  0.1303  0.1374 -0.0281
16270DOD     C292630  28.338  26.273  24.852 -0.1631 -0.1332 -0.0730
16270DOD     C392631  28.279  26.052  24.430  0.0724 -0.0017  0.3469
16271DOD     C192632   4.637  29.465  20.729  0.1192 -0.0499  0.0069
16271DOD     C292633   4.457  29.065  20.538 -0.1597 -0.2047  0.2557
16271DOD     C392634   4.374  28.648  20.353  0.2316  0.0105  0.2383
16272DOD     C192635  16.140  17.954   0.150  0.3914 -0.0109  0.0318
16272DOD     C292636  16.359  17.636  30.323  0.1910 -0.2271  0.2036
16272DOD     C392637  16.751  17.413  30.182 -0.2300 -0.0211 -0.0122
16273DOD     C192638  19.300  17.066  12.603 -0.0189  0.0355 -0.1348
16273DOD     C292639  19.048  16.755  12.760  0.0358 -0.0984  0.1927
16273DOD     C392640  19.219  16.340  12.792 -0.0680  0.0154  0.3123
16274DOD     C192641  15.415  11.253  24.817  0.0630 -0.2812  0.1335
16274DOD     C292642  15.010  11.151  24.872  0.2699  0.0140  0.1067
16274DOD     C392643  14.824  10.760  25.119 -0.1555 -0.0715  0.0928
16275DOD     C192644  20.403  21.079  25.824  0.1138 -0.4043  0.0346
16275DOD     C292645  20.368  21.529  25.786 -0.0567 -0.1968 -0.1415
16275DOD     C392646  20.772  21.745  26.006 -0.3376  0.0858 -0.2100
16276DOD     C192647   7.500   6.472   0.910 -0.0826  0.1181  0.4401
16276DOD     C292648   7.181   6.361   1.240 -0.0071 -0.2362 -0.1444
16276DOD     C392649   7.026   6.615   1.673 -0.0729  0.0353  0.1028
16277DOD     C192650   6.801  19.785  29.688 -0.3094  0.0107  0.0458
16277DOD     C292651   6.739  19.341  29.595  0.2340  0.0565 -0.3132
16277DOD     C392652   6.551  19.182  29.246  0.2454  0.1594 -0.0226
16278DOD     C192653  15.992  17.677  29.392  0.3203 -0.1172  0.2720
16278DOD     C292654  16.160  17.258  29.534  0.1990 -0.0029  0.1142
16278DOD     C392655  16.021  16.854  29.303  0.0380 -0.0275 -0.2290
16279DOD     C192656   7.462  14.621   1.894  0.0016  0.1370 -0.0544
16279DOD     C292657   7.094  14.893   2.023  0.1244 -0.0270  0.2784
16279DOD     C392658   7.056  15.393   1.986  0.2817 -0.0177 -0.0100
16280DOD     C192659  30.303  14.219   4.350  0.0308 -0.0971  0.0505
16280DOD     C292660   0.374  14.129   4.149  0.0534 -0.1416 -0.0509
16280DOD     C392661   0.576  13.978   3.760 -0.1158 -0.1346 -0.2668
16281DOD     C192662  14.980  22.742  15.365  0.0238  0.2409 -0.1750
16281DOD     C292663  15.176  22.338  15.445  0.2711 -0.0307 -0.0550
16281DOD     C392664  15.546  22.265  15.669 -0.0560  0.3648  0.0911
16282DOD     C192665  27.966  23.929  21.940 -0.0158  0.1380  0.0500
16282DOD     C292666  28.363  23.656  22.089  0.2528 -0.1795 -0.1445
16282DOD     C392667  28.716  23.678  22.355  0.0542  0.3641  0.2256
16283DOD     C192668   3.722  11.046  15.285  0.1210  0.1712 -0.1984
16283DOD     C292669   4.102  10.956  15.610  0.0196  0.2808  0.0676
16283DOD     C392670   4.434  10.859  15.962  0.2660  0.1383 -0.1556
16284DOD     C192671  28.818   0.400  19.652 -0.1483  0.1959 -0.1053
16284DOD     C292672  28.802   0.678  19.303 -0.1539  0.2505 -0.1443
16284DOD     C392673  28.812   0.878  18.916  0.1270  0.2547  0.3516
16285DOD     C192674  20.405  15.807   3.916  0.2298  0.0521 -0.0363
16285DOD     C292675  20.415  16.245   3.705  0.1382  0.0768 -0.0877
16285DOD     C392676  20.227  16.568   3.463  0.3033 -0.0166 -0.1930
16286DOD     C192677   5.778  16.434   4.387  0.0891  0.2036  0.1721
16286DOD     C292678   5.627  16.896   4.503 -0.0865 -0.2186 -0.0620
16286DOD     C392679   5.690  17.304   4.300  0.1909 -0.1294  0.0085
16287DOD     C192680   4.268   3.468   2.031  0.2079  0.0752  0.1465
16287DOD     C292681   4.224   3.739   2.442  0.0712 -0.0840 -0.1816
16287DOD     C392682   4.389   4.154   2.481 -0.2169  0.0088  0.2042
16288DOD     C192683   1.341  16.812  13.358  0.0270 -0.1896 -0.1243
16288DOD     C292684   1.197  16.386  13.372  0.0103  0.3331  0.0171
16288DOD     C392685   1.413  16.053  13.503  0.1459 -0.0517  0.0616
16289DOD     C192686  25.102  23.825  18.836  0.0889 -0.1130  0.1068
16289DOD     C292687  25.043  24.299  18.863  0.0869 -0.0200 -0.1562
16289DOD     C392688  25.121  24.637  18.569 -0.0518  0.1948 -0.2618
16290DOD     C192689  22.287   8.379   5.169  0.3234 -0.1718  0.3074
16290DOD     C292690  21.910   8.105   5.036  0.2181 -0.0137 -0.2927
16290DOD     C392691  21.817   7.634   4.994 -0.1118 -0.0123 -0.0588
16291DOD     C192692   7.159   5.392   2.762  0.0728 -0.0122  0.1584
16291DOD     C292693   7.516   5.641   2.640  0.1492  0.1259 -0.1755
16291DOD     C392694   7.838   6.012   2.623  0.0855 -0.2602 -0.0785
16292DOD     C192695  28.231  29.681  18.876 -0.1424  0.0575  0.1242
16292DOD     C292696  27.883  30.011  18.827 -0.2239  0.2122  0.1918
16292DOD     C392697  27.428  30.232  18.837  0.0680  0.3000  0.1323
16293DOD     C192698  27.313  16.328   7.743  0.1645 -0.0482  0.0523
16293DOD     C292699  27.430  15.906   7.663  0.1102  0.1405 -0.1030
16293DOD     C392700  27.262  15.561   7.830  0.1102  0.3230 -0.0960
16294DOD     C192701  25.518  19.893  14.058 -0.0090 -0.0022  0.0522
16294DOD     C292702  25.315  19.488  14.298  0.0368 -0.0104 -0.0951
16294DOD     C392703  24.982  19.194  14.341 -0.0824  0.0555  0.2424
16295DOD     C192704  13.444  14.113  14.569 -0.0111  0.1538 -0.2526
16295DOD     C292705  13.383  13.796  14.222  0.0831 -0.0277 -0.1503
16295DOD     C392706  13.082  13.698  13.943 -0.1053 -0.0372  0.0706
16296DOD     C192707  28.273  11.364   2.447  0.0123 -0.2971 -0.0180
16296DOD     C292708  28.290  10.899   2.596 -0.0435  0.0398 -0.1311
16296DOD     C392709  28.025  10.689   2.949 -0.1537  0.0509  0.1671
16297DOD     C192710  10.891  21.733  11.270 -0.1734 -0.0590 -0.1593
16297DOD     C292711  11.273  21.899  11.392  0.4056  0.1569 -0.1073
16297DOD     C392712  11.665  21.765  11.598  0.1474  0.1675  0.2707
16298DOD     C192713   8.223   0.468  28.523  0.1211  0.1523 -0.0088
16298DOD     C292714   8.036   0.787  28.262  0.1954  0.2112 -0.1842
16298DOD     C392715   7.766   1.150  28.419  0.0008  0.2029 -0.2083
16299DOD     C192716  29.677  29.416  18.798  0.1138 -0.3505 -0.0249
16299DOD     C292717  29.584  29.532  19.231 -0.0066 -0.1714 -0.0634
16299DOD     C392718  29.493  29.416  19.669 -0.1336 -0.1881  0.3678
16300DOD     C192719  20.748   0.774  17.664 -0.2023  0.3610 -0.0885
16300DOD     C292720  20.804   0.491  18.036 -0.0637  0.0582  0.2297
16300DOD     C392721  20.680   0.511  18.455 -0.1723  0.1086  0.2560
16301DOD     C192722   5.958   6.399  26.298  0.0613  0.0168  0.0169
16301DOD     C292723   6.397   6.587  26.278 -0.0362  0.1142 -0.3214
16301DOD     C392724   6.774   6.815  26.305 -0.1776 -0.2908 -0.0608
16302DOD     C192725   6.718   9.908   5.095 -0.0648 -0.1220  0.3659
16302DOD     C292726   6.277   9.820   5.224  0.1164  0.1654 -0.1650
16302DOD     C392727   5.935   9.520   5.149  0.1938 -0.1969 -0.1534
16303DOD     C192728  19.962  18.976   4.395 -0.1117 -0.0996 -0.1704
16303DOD     C292729  20.122  19.236   4.058  0.2544 -0.1366 -0.2203
16303DOD     C392730  20.060  19.454   3.696 -0.1075 -0.1009 -0.0957
16304DOD     C192731   5.276  13.412   9.242 -0.1160  0.0173  0.1593
16304DOD     C292732   5.188  13.883   9.097 -0.0511  0.0416  0.0013
16304DOD     C392733   5.094  14.333   9.196  0.0833 -0.4299  0.1294
16305DOD     C192734  26.094  13.754   9.592 -0.1812 -0.1953 -0.0380
16305DOD     C292735  26.110  14.163   9.412  0.0301 -0.2516 -0.1812
16305DOD     C392736  26.238  14.292   8.996  0.1463  0.2196  0.0936
16306DOD     C192737  12.219  21.473  10.646  0.0128 -0.1589 -0.1042
16306DOD     C292738  11.891  21.583  10.294  0.3453  0.2345 -0.1946
16306DOD     C392739  11.681  21.389   9.935  0.3877 -0.0397  0.0504
16307DOD     C192740  11.927   2.681  18.972 -0.1167  0.0510 -0.2453
16307DOD     C292741  12.389   2.737  18.894 -0.0237  0.0245  0.0978
16307DOD     C392742  12.842   2.641  18.801 -0.0539  0.3179  0.0896
16308DOD     C192743   2.280  13.597   0.478 -0.0072 -0.0706  0.1728
16308DOD     C292744   2.304  13.481   0.919 -0.1902  0.1401  0.2774
16308DOD     C392745   2.362  13.092   1.166  0.0054  0.0490  0.1591
16309DOD     C192746   5.364  23.569  15.902  0.0474  0.2364  0.1938
16309DOD     C292747   5.050  23.449  15.562  0.1555 -0.0820 -0.0755
16309DOD     C392748   4.689  23.425  15.263 -0.0687 -0.1951  0.1326
16310DOD     C192749  23.940  10.414   7.851  0.0601 -0.0914  0.0801
16310DOD     C292750  23.778  10.004   7.913 -0.1120 -0.0563 -0.0605
16310DOD     C392751  23.788   9.700   8.191  0.3230 -0.0606 -0.0855
16311DOD     C192752   8.989  12.544  22.412 -0.1393  0.0601  0.0552
16311DOD     C292753   9.028  12.166  22.172 -0.0717 -0.3633  0.3268
16311DOD     C392754   8.695  11.956  21.894  0.1356 -0.2376 -0.0046
16312DOD     C192755  18.829  16.368   6.097  0.0243  0.2240  0.2401
16312DOD     C292756  18.793  16.096   5.734  0.1508  0.1265  0.2477
16312DOD     C392757  19.077  15.797   5.492  0.2736  0.1407 -0.2563
16313DOD     C192758   9.649  20.827  29.596 -0.3998  0.2084  0.1846
16313DOD     C292759   9.250  20.817  29.850  0.0754  0.1534  0.0297
16313DOD     C392760   8.904  20.552  30.137 -0.2147  0.0891 -0.3585
16314DOD     C192761  19.434  15.150   2.640 -0.0582  0.0915  0.1539
16314DOD     C292762  19.050  14.925   2.699  0.0961 -0.1940 -0.0594
16314DOD     C392763  18.897  14.521   2.903 -0.0392  0.0758  0.0601
16315DOD     C192764   6.985   5.620  15.726  0.0191 -0.2674  0.0195
16315DOD     C292765   7.135   5.972  15.472 -0.1508  0.4750  0.0509
16315DOD     C392766   7.192   5.996  14.986 -0.2969  0.2167 -0.2732
16316DOD     C192767  21.775   8.475  13.956  0.3645  0.1078  0.2722
16316DOD     C292768  22.100   8.274  13.695  0.0395 -0.0321  0.4802
16316DOD     C392769  22.412   8.518  13.493  0.0716 -0.2335 -0.3645
16317DOD     C192770   0.761  20.690  30.107  0.2451 -0.2205 -0.1810
16317DOD     C292771   1.056  20.319  29.963  0.1693 -0.0887  0.2026
16317DOD     C392772   1.093  19.890  29.746 -0.0102  0.1881  0.3769
16318DOD     C192773  12.296   5.361  29.225  0.0105  0.0723 -0.3155
16318DOD     C292774  12.708   5.340  29.480  0.1451  0.3696 -0.0480
16318DOD     C392775  13.028   5.612  29.721 -0.0804 -0.2071  0.1620
16319DOD     C192776   9.851   5.928  17.299  0.2581  0.1763 -0.0930
16319DOD     C292777   9.847   6.051  17.753  0.2008  0.1089 -0.0253
16319DOD     C392778   9.708   6.266  18.169 -0.0966  0.0323  0.3040
16320DOD     C192779   6.008  13.374   4.616  0.3146 -0.2497 -0.1616
16320DOD     C292780   5.867  12.932   4.588  0.1372 -0.2014 -0.2963
16320DOD     C392781   6.045  12.451   4.612 -0.3886  0.0873  0.0601
16321DOD     C192782  13.970  11.208  30.066 -0.0875 -0.0009  0.2349
16321DOD     C292783  14.007  10.903   0.110 -0.0718 -0.1180 -0.0710
16321DOD     C392784  14.274  10.604   0.219 -0.1998  0.3408  0.1458
16322DOD     C192785   3.820  17.202   5.124 -0.0083 -0.1176  0.0546
16322DOD     C292786   3.419  17.212   4.835 -0.2126  0.0698 -0.1868
16322DOD     C392787   3.111  16.980   4.594  0.1938 -0.1110  0.2335
16323DOD     C192788  29.974   1.702   0.363  0.0734 -0.2004  0.0814
16323DOD     C292789  30.060   1.322   0.635  0.3006 -0.0660  0.1537
16323DOD     C392790  30.351   1.024   0.876  0.2038 -0.3189 -0.1658
16324DOD     C192791   5.694  27.475  26.659 -0.0740 -0.0686  0.1470
16324DOD     C292792   5.496  27.722  27.012 -0.3636 -0.2310  0.1419
16324DOD     C392793   5.642  27.708  27.452 -0.0722 -0.0579  0.0183
16325DOD     C192794  28.096   9.457  11.998 -0.0337 -0.1518 -0.1006
16325DOD     C292795  27.964   9.731  12.290 -0.0573 -0.2997 -0.1801
16325DOD     C392796  27.580   9.769  12.516 -0.0988 -0.1553  0.0866
16326DOD     C192797  18.902  26.378   4.033 -0.0051  0.0379 -0.0743
16326DOD     C292798  19.389  26.395   4.082  0.1163  0.2989  0.0855
16326DOD     C392799  19.796  26.137   4.097 -0.1952  0.0484 -0.1014
16327DOD     C192800  28.907  19.995  24.590 -0.1837 -0.0143 -0.3723
16327DOD     C292801  28.902  19.798  24.172  0.0147  0.2233  0.2253
16327DOD     C392802  28.698  19.751  23.769 -0.1390  0.0251 -0.4443
16328DOD     C192803  16.751  24.625  20.822 -0.1308 -0.0069  0.4514
16328DOD     C292804  17.157  24.369  20.723  0.0005 -0.4379  0.2072
16328DOD     C392805  17.486  23.985  20.724  0.1210 -0.1321  0.0718
16329DOD     C192806  20.212  19.661  14.719 -0.1622  0.1498 -0.2436
16329DOD     C292807  20.236  19.182  14.742  0.2891  0.0407 -0.1032
16329DOD     C392808  20.498  18.875  14.498 -0.0321  0.0359 -0.1511
16330DOD     C192809  27.438  25.018   8.655 -0.0443  0.4145  0.0240
16330DOD     C292810  27.168  24.998   9.013  0.2550 -0.0321  0.0330
16330DOD     C392811  26.775  25.008   9.306 -0.0750 -0.1360 -0.0150
16331DOD     C192812  24.947  17.040  24.375 -0.0023  0.0483  0.3682
16331DOD     C292813  24.702  17.285  24.027 -0.1192  0.3532 -0.0480
16331DOD     C392814  24.362  17.541  23.862 -0.1445  0.2176 -0.0776
16332DOD     C192815  18.541  22.227  29.160 -0.1141 -0.2118  0.0218
16332DOD     C292816  18.369  21.812  29.227 -0.0208 -0.0040 -0.0097
16332DOD     C392817  18.420  21.491  29.604  0.1895  0.0115 -0.0148
16333DOD     C192818  18.747  30.217  15.488  0.0246 -0.1900  0.3608
16333DOD     C292819  18.865   0.378  15.578 -0.1185 -0.2006 -0.3302
16333DOD     C392820  19.187   0.705  15.509 -0.4738  0.2871  0.2554
16334DOD     C192821   9.197  25.600  27.166 -0.2311 -0.1088  0.1740
16334DOD     C292822   9.641  25.468  27.287  0.2838 -0.2690 -0.0619
16334DOD     C392823  10.091  25.598  27.418 -0.3527 -0.1079 -0.1370
16335DOD     C192824  27.097  13.762   5.545 -0.5750 -0.3721  0.1889
16335DOD     C292825  27.012  13.413   5.818 -0.2013  0.1079 -0.0282
16335DOD     C392826  27.267  12.981   5.775  0.0172 -0.1730 -0.1082
16336DOD     C192827  25.161  25.799   5.939 -0.0265 -0.0636 -0.2925
16336DOD     C292828  25.031  25.478   5.665  0.1767 -0.2933 -0.0525
16336DOD     C392829  24.748  25.379   5.296  0.0057  0.2824  0.1256
16337DOD     C192830  16.072  16.178   1.803  0.1207 -0.0287 -0.0995
16337DOD     C292831  15.974  16.193   2.277 -0.1295 -0.0015 -0.1059
16337DOD     C392832  16.111  15.945   2.708  0.4779 -0.1228 -0.0632
16338DOD     C192833   8.980   3.062  15.186 -0.0834 -0.1039  0.2318
16338DOD     C292834   9.279   2.949  14.908  0.1066  0.2135  0.3372
16338DOD     C392835   9.267   2.566  14.664 -0.1868  0.2381  0.0003
16339DOD     C192836   7.733  20.127   9.722  0.3726 -0.0220  0.4304
16339DOD     C292837   7.635  19.723   9.512 -0.0751  0.4581  0.3427
16339DOD     C392838   7.294  19.382   9.303  0.1440  0.1439 -0.1763
16340DOD     C192839   4.790   6.543  23.252 -0.0095 -0.0010  0.1348
16340DOD     C292840   4.632   6.305  23.643 -0.2352 -0.0467  0.0525
16340DOD     C392841   4.822   5.964  23.880  0.4502  0.2800  0.2742
16341DOD     C192842   3.873   2.461  20.573  0.2989  0.0193 -0.0489
16341DOD     C292843   3.903   2.134  20.278  0.0433  0.2514  0.0170
16341DOD     C392844   3.997   1.777  20.022  0.1550  0.0148  0.1322
16342DOD     C192845  14.039  21.021  29.503 -0.0446 -0.0489  0.0229
16342DOD     C292846  14.391  20.775  29.612  0.1343 -0.4524  0.4820
16342DOD     C392847  14.750  20.712  29.931 -0.1507 -0.0796  0.3667
16343DOD     C192848   3.495  28.081  26.550 -0.0191 -0.0114 -0.1757
16343DOD     C292849   3.422  27.959  26.108 -0.1077  0.1707 -0.0219
16343DOD     C392850   3.467  27.832  25.652 -0.2249  0.0291  0.1058
16344DOD     C192851  24.692  15.424  27.523 -0.4365 -0.0725 -0.0796
16344DOD     C292852  24.840  15.867  27.378  0.3255  0.1231 -0.2295
16344DOD     C392853  24.587  16.264  27.246  0.1688  0.1177 -0.1071
16345DOD     C192854   0.304  17.662   4.651 -0.0744 -0.0138 -0.0788
16345DOD     C292855   0.649  17.528   4.756 -0.0530 -0.5925 -0.0715
16345DOD     C392856   1.104  17.709   4.843  0.0224  0.3015  0.2718
16346DOD     C192857   0.190  29.705   4.834 -0.3632  0.0412  0.1855
16346DOD     C292858  30.303  29.321   4.717  0.0444 -0.0424 -0.1964
16346DOD     C392859  30.077  28.922   4.892  0.0892  0.1344 -0.0919
16347DOD     C192860  24.856  25.609  18.381  0.0200  0.2993  0.0386
16347DOD     C292861  24.399  25.624  18.286  0.1897  0.1985  0.0726
16347DOD     C392862  23.976  25.673  18.139  0.0735 -0.0776 -0.0760
16348DOD     C192863  28.647   1.824  21.091 -0.0933 -0.1250  0.1454
16348DOD     C292864  28.755   1.635  21.509 -0.0120 -0.2325 -0.1577
16348DOD     C392865  29.044   1.586  21.852  0.2095 -0.1062  0.2048
16349DOD     C192866   7.476  26.875  25.313 -0.0573 -0.0473  0.1465
16349DOD     C292867   7.833  26.820  25.566 -0.0907  0.0667  0.0404
16349DOD     C392868   8.135  26.462  25.695 -0.1495 -0.1542 -0.0805
16350DOD     C192869  14.492  20.259  23.007  0.2529  0.0683  0.1667
16350DOD     C292870  14.346  20.271  22.529 -0.0338 -0.0944  0.0087
16350DOD     C392871  14.566  20.406  22.160  0.2437  0.1492 -0.4216
16351DOD     C192872  25.432  24.523   0.517  0.1278  0.0691 -0.0924
16351DOD     C292873  25.761  24.843   0.329 -0.0475  0.0809  0.2446
16351DOD     C392874  26.218  24.897   0.203  0.2552 -0.1242 -0.1536
16352DOD     C192875  17.427   1.056   0.774 -0.0404 -0.3311 -0.0933
16352DOD     C292876  17.201   1.432   0.729 -0.0577 -0.0867 -0.3106
16352DOD     C392877  17.191   1.905   0.613 -0.1843  0.0559 -0.1369
16353DOD     C192878   1.518  16.392   2.029  0.0571 -0.2151 -0.0021
16353DOD     C292879   1.320  16.807   1.980 -0.1271 -0.1192  0.1667
16353DOD     C392880   1.247  17.251   1.972  0.2955 -0.2507 -0.1107
16354DOD     C192881   9.260   1.945  28.656  0.1562  0.0857 -0.1069
16354DOD     C292882   9.248   2.201  29.034 -0.1459  0.0635  0.0602
16354DOD     C392883   9.508   2.469  29.301 -0.4561  0.1662  0.1465
16355DOD     C192884  16.757  14.099  24.920 -0.1238 -0.1126 -0.3671
16355DOD     C292885  17.126  13.965  24.633  0.3382  0.0509  0.1735
16355DOD     C392886  17.510  14.096  24.467  0.1526 -0.0559 -0.3504
16356DOD     C192887   2.879  27.123  17.449 -0.0090 -0.2535 -0.0359
16356DOD     C292888   2.943  26.710  17.358  0.0680 -0.0698  0.0370
16356DOD     C392889   2.986  26.304  17.567 -0.2101 -0.0716 -0.2525
16357DOD     C192890  28.779  20.707   9.558 -0.2050 -0.3128 -0.1347
16357DOD     C292891  29.029  20.923   9.907  0.0289 -0.0160  0.3062
16357DOD     C392892  29.204  20.918  10.352 -0.1708 -0.1806  0.1560
16358DOD     C192893   5.235  19.164  25.990  0.0832 -0.1613 -0.1518
16358DOD     C292894   5.132  18.894  25.655  0.3648 -0.0002  0.0042
16358DOD     C392895   4.998  18.685  25.265 -0.0961  0.0262 -0.0713
16359DOD     C192896  20.149  30.013  16.557  0.1529  0.1599 -0.1136
16359DOD     C292897  20.224   0.140  16.488 -0.1845  0.1728 -0.1306
16359DOD     C392898  20.185   0.530  16.757  0.0241 -0.1542 -0.0616
16360DOD     C192899  21.019  19.549   7.751  0.0600 -0.0276  0.3937
16360DOD     C292900  20.980  19.595   7.281 -0.1695  0.2594  0.1116
16360DOD     C392901  21.154  19.402   6.884  0.1037 -0.1146 -0.1453
16361DOD     C192902   0.390   7.732   5.200  0.0321 -0.0021  0.0464
16361DOD     C292903   0.052   8.075   5.295 -0.1010  0.1979  0.2998
16361DOD     C392904  30.186   8.461   5.471  0.1164  0.3113  0.2003
16362DOD     C192905  26.521   5.772  24.702 -0.0248 -0.0028  0.1572
16362DOD     C292906  26.679   5.446  24.400 -0.4513 -0.0177  0.4348
16362DOD     C392907  26.526   5.125  24.132  0.0664 -0.1960 -0.1598
16363DOD     C192908   6.956   1.175   7.616 -0.0360  0.0725 -0.0814
16363DOD     C292909   6.469   1.197   7.510 -0.2200 -0.1342 -0.0479
16363DOD     C392910   6.016   1.252   7.347 -0.0719 -0.0474 -0.0036
16364DOD     C192911  22.805   4.163   5.858 -0.1470  0.0135 -0.2399
16364DOD     C292912  22.865   4.404   6.263 -0.1327  0.0036 -0.2663
16364DOD     C392913  22.917   4.646   6.673 -0.1008  0.1037 -0.3537
16365DOD     C192914   0.765  26.991   5.145  0.2498 -0.0696 -0.0725
16365DOD     C292915   0.887  27.073   4.692  0.0161 -0.0145 -0.2238
16365DOD     C392916   1.189  26.820   4.534 -0.2096 -0.1854 -0.0240
16366DOD     C192917  15.700  17.269   9.746 -0.2343  0.0025  0.1082
16366DOD     C292918  16.034  17.541   9.532 -0.0022 -0.4310 -0.1779
16366DOD     C392919  16.187  17.969   9.421  0.0330 -0.0604 -0.0186
16367DOD     C192920   3.357  21.639  27.717 -0.0364 -0.0584 -0.2270
16367DOD     C292921   3.626  21.631  28.117 -0.0469 -0.1396  0.2430
16367DOD     C392922   3.969  21.872  28.325  0.0081  0.0849  0.0144
16368DOD     C192923  18.830  15.716  17.252 -0.0223 -0.1045  0.0254
16368DOD     C292924  18.773  15.758  16.742 -0.0003  0.0439  0.1348
16368DOD     C392925  18.559  15.988  16.358  0.0962 -0.1352 -0.1751
16369DOD     C192926  14.973   6.968  11.556 -0.1924 -0.2336 -0.5787
16369DOD     C292927  14.891   7.007  11.131  0.2041  0.1442 -0.0349
16369DOD     C392928  14.647   7.015  10.700 -0.0545  0.2961  0.0000
16370DOD     C192929  24.861  25.015  21.884  0.0140 -0.1092  0.2799
16370DOD     C292930  25.273  25.179  22.108 -0.0251  0.5474  0.0729
16370DOD     C392931  25.524  25.362  22.475  0.0335 -0.2716 -0.2015
16371DOD     C192932   3.615  23.013  10.136  0.1370 -0.1859 -0.0012
16371DOD     C292933   3.499  22.777   9.739 -0.0631 -0.2202  0.1273
16371DOD     C392934   3.100  22.858   9.421 -0.1105  0.0354 -0.0047
16372DOD     C192935   8.577  11.875   9.391 -0.2041 -0.2212 -0.1918
16372DOD     C292936   8.867  11.692   9.733 -0.0222  0.2321 -0.1897
16372DOD     C392937   9.142  11.539  10.063 -0.2407  0.3785 -0.1817
16373DOD     C192938  29.275  25.050   2.913  0.0705  0.0735  0.0723
16373DOD     C292939  29.042  24.879   2.552 -0.0652 -0.1172 -0.0363
16373DOD     C392940  28.770  24.927   2.167  0.2684 -0.1907  0.2084
16374DOD     C192941  30.036   4.321  22.738  0.0743 -0.0759 -0.1069
16374DOD     C292942  30.033   4.258  23.208  0.0328 -0.3674 -0.0718
16374DOD     C392943  29.664   4.046  23.449  0.0902 -0.1479 -0.0826
16375DOD     C192944  10.345  22.014  18.305  0.1505  0.2058  0.3572
16375DOD     C292945  10.030  22.194  18.011  0.0139 -0.2829 -0.1513
16375DOD     C392946  10.236  22.217  17.559 -0.1850 -0.0888 -0.1299
16376DOD     C192947  17.720  19.236  17.965 -0.0863  0.1135  0.2249
16376DOD     C292948  17.812  18.960  18.287 -0.1077  0.1300 -0.0777
16376DOD     C392949  17.540  18.887  18.643  0.2033 -0.0650 -0.0035
16377DOD     C192950   6.642  13.541  21.160 -0.0402  0.1379 -0.2836
16377DOD     C292951   6.967  13.516  21.479 -0.1936 -0.0196 -0.3053
16377DOD     C392952   7.168  13.132  21.506  0.2227 -0.0036  0.3115
16378DOD     C192953   3.072  29.404   7.633  0.1307  0.0670 -0.0557
16378DOD     C292954   2.846  29.812   7.422 -0.0100 -0.0360  0.1969
16378DOD     C392955   2.737  30.250   7.447  0.0726  0.0690 -0.0763
16379DOD     C192956   2.887   7.866  21.560 -0.1242  0.0047  0.0533
16379DOD     C292957   3.270   7.915  21.291  0.2781  0.2692 -0.3069
16379DOD     C392958   3.491   7.525  21.085  0.0152  0.0816 -0.2460
16380DOD     C192959   3.393  18.625  26.956 -0.1095  0.2686 -0.0198
16380DOD     C292960   3.047  18.605  27.186 -0.0362  0.0783  0.0920
16380DOD     C392961   2.737  18.946  27.176  0.0335  0.1209 -0.1366
16381DOD     C192962   8.589  20.760   3.902  0.2790 -0.0302  0.0167
16381DOD     C292963   8.219  20.681   3.635 -0.0597  0.2733  0.0810
16381DOD     C392964   7.932  20.290   3.545 -0.1512  0.1682 -0.1970
16382DOD     C192965  23.113  22.079  24.268  0.2578 -0.0922 -0.0745
16382DOD     C292966  23.110  22.542  24.313 -0.0392  0.3012 -0.1828
16382DOD     C392967  23.174  23.022  24.403  0.1114 -0.2267 -0.0294
16383DOD     C192968  10.388  11.942   3.038  0.1877  0.0785  0.2159
16383DOD     C292969  10.125  11.780   2.725  0.0694  0.2349  0.1413
16383DOD     C392970   9.921  11.793   2.310 -0.2071 -0.0246  0.1179
16384DOD     C192971   0.166  12.314  23.341  0.1640 -0.0857 -0.3434
16384DOD     C292972   0.140  12.757  23.441  0.0390  0.0149  0.2127
16384DOD     C392973   0.426  13.080  23.397  0.0761  0.3428  0.2981
16385DOD     C192974  12.272  15.470  17.864  0.2191  0.2204  0.1931
16385DOD     C292975  11.827  15.638  17.861  0.0843  0.1553  0.1635
16385DOD     C392976  11.458  15.375  18.014  0.2303  0.0082  0.2388
16386DOD     C192977  29.822   0.196  13.929 -0.1270  0.0602  0.0335
16386DOD     C292978  29.948   0.584  13.734  0.0243  0.0883 -0.1416
16386DOD     C392979  30.165   0.582  13.323  0.3649 -0.1963 -0.1989
16387DOD     C192980  17.256  28.158  24.259 -0.1443  0.0982 -0.1450
16387DOD     C292981  17.163  28.193  24.743  0.1969 -0.0831 -0.0880
16387DOD     C392982  17.235  28.406  25.182 -0.2449  0.1531 -0.1839
16388DOD     C192983  13.532  29.302  25.489  0.1378  0.1233  0.0616
16388DOD     C292984  13.504  28.830  25.464 -0.1285  0.0029 -0.1922
16388DOD     C392985  13.397  28.400  25.325  0.2711 -0.0822  0.2516
16389DOD     C192986   5.450  18.924  11.725  0.1540  0.1255  0.0287
16389DOD     C292987   5.321  18.463  11.689  0.0788 -0.2236  0.1519
16389DOD     C392988   5.479  18.057  11.484  0.0290  0.0156 -0.3405
16390DOD     C192989  15.257  30.184   0.361  0.3495 -0.1136 -0.2097
16390DOD     C292990  14.876   0.181   0.414 -0.3382 -0.0030  0.1930
16390DOD     C392991  14.922   0.643   0.365  0.2301 -0.4711  0.1581
16391DOD     C192992  10.394  26.430  20.252  0.0943  0.0665  0.1925
16391DOD     C292993  10.554  26.865  20.306  0.0753  0.1142 -0.0107
16391DOD     C392994  10.242  27.193  20.150  0.1290 -0.2681  0.0896
16392DOD     C192995  22.631   6.611  19.757  0.2399 -0.0069 -0.0324
16392DOD     C292996  22.223   6.903  19.804 -0.0951  0.1788  0.1169
16392DOD     C392997  21.859   7.074  20.008  0.1203 -0.3578 -0.0398
16393DOD     C192998  10.422   7.715  20.847  0.1027 -0.1513 -0.0208
16393DOD     C292999  10.093   7.851  21.086 -0.0451 -0.2607 -0.0838
16393DOD     C393000   9.741   7.507  21.184  0.2413 -0.0072 -0.2597
16394DOD     C193001   7.567  16.127   3.593 -0.2298 -0.1102 -0.0764
16394DOD     C293002   7.215  16.409   3.409  0.0231 -0.0600  0.4864
16394DOD     C393003   6.856  16.385   3.067  0.2951  0.1014 -0.2189
16395DOD     C193004  13.951  16.171  22.548  0.0530  0.0119  0.0057
16395DOD     C293005  14.349  16.260  22.837 -0.2114 -0.1195  0.3006
16395DOD     C393006  14.684  16.565  22.752  0.3530 -0.0370 -0.1114
16396DOD     C193007  25.470   2.375  29.266 -0.0760 -0.0701  0.1922
16396DOD     C293008  25.050   2.220  29.341  0.1395 -0.0122 -0.0697
16396DOD     C393009  24.888   1.883  29.630  0.1220 -0.3083 -0.0193
16397DOD     C193010   0.657   7.791  11.112  0.1599 -0.2515 -0.0562
16397DOD     C293011   0.659   8.267  11.294 -0.0418  0.0860 -0.2064
16397DOD     C393012   0.439   8.670  11.396  0.1358 -0.3264  0.0257
16398DOD     C193013  11.536  27.731  22.065 -0.2777 -0.0220  0.2541
16398DOD     C293014  11.772  27.460  21.717 -0.2000 -0.2395  0.1833
16398DOD     C393015  12.007  27.087  21.506  0.1312 -0.2259  0.1446
16399DOD     C193016  21.184  16.161   3.963 -0.0697 -0.0796  0.2929
16399DOD     C293017  20.699  16.207   4.076 -0.0433 -0.3202 -0.1506
16399DOD     C393018  20.266  16.239   4.163 -0.5041 -0.0269  0.0276
16400DOD     C193019  11.921   7.432   6.564  0.0658  0.2764  0.1026
16400DOD     C293020  12.136   7.425   6.144 -0.1454 -0.2259  0.3451
16400DOD     C393021  12.008   7.383   5.699 -0.1010 -0.1623 -0.0693
16401DOD     C193022   7.822   1.146   0.231  0.1273  0.2003 -0.2137
16401DOD     C293023   7.559   1.378  30.257 -0.1578  0.1042  0.1406
16401DOD     C393024   7.126   1.511  30.194  0.0280  0.0784  0.4821
16402DOD     C193025  15.568  18.357   3.857 -0.2808  0.2005 -0.3541
16402DOD     C293026  15.912  18.624   3.935 -0.1751 -0.0819 -0.0090
16402DOD     C393027  16.270  18.826   4.169  0.2253  0.1026 -0.1932
16403DOD     C193028   6.488   4.481  12.635  0.1037 -0.0475  0.1730
16403DOD     C293029   6.437   4.383  13.086 -0.3437  0.2390  0.2648
16403DOD     C393030   6.409   4.474  13.532  0.2173 -0.0836  0.1901
16404DOD     C193031  27.803  17.864  13.173 -0.0486 -0.0533 -0.1115
16404DOD     C293032  27.773  18.307  13.144 -0.4947 -0.0456 -0.0889
16404DOD     C393033  27.788  18.597  12.799  0.1486 -0.0488 -0.0543
16405DOD     C193034  14.359   1.797  14.292  0.0932 -0.0547  0.2572
16405DOD     C293035  14.762   1.903  14.063  0.0197  0.1916 -0.2600
16405DOD     C393036  15.222   1.949  14.010  0.0239  0.2047  0.0604
16406DOD     C193037   8.212  25.953  29.401  0.5039 -0.0531 -0.0392
16406DOD     C293038   8.548  25.682  29.519  0.0055  0.1518  0.0103
16406DOD     C393039   8.885  25.465  29.330 -0.2402  0.0222 -0.0906
16407DOD     C193040  23.061   2.641   5.252 -0.0290 -0.0777  0.0455
16407DOD     C293041  23.410   2.932   5.276  0.1119  0.1312 -0.1660
16407DOD     C393042  23.858   2.907   5.203  0.0464 -0.0705 -0.4410
16408DOD     C193043  12.939  29.327  13.925  0.3202  0.0242  0.2420
16408DOD     C293044  12.939  29.106  14.329 -0.1450  0.0169  0.1626
16408DOD     C393045  12.851  29.201  14.757  0.0510 -0.1050  0.0106
16409DOD     C193046   8.567   5.006   1.761 -0.3679 -0.1777  0.0274
16409DOD     C293047   8.911   5.367   1.787  0.0308 -0.0559  0.1178
16409DOD     C393048   9.297   5.632   1.715  0.0382  0.0840  0.2343
16410DOD     C193049  22.938   9.720  12.087 -0.1869  0.2260 -0.1056
16410DOD     C293050  22.492   9.740  12.076  0.0023  0.0119 -0.1333
16410DOD     C393051  22.105   9.485  12.013 -0.2280 -0.0357 -0.0411
16411DOD     C193052   8.174  11.665  13.158  0.0664 -0.0580 -0.1797
16411DOD     C293053   8.530  11.447  13.120  0.1179 -0.0138  0.4021
16411DOD     C393054   8.887  11.301  12.812 -0.0817 -0.3172  0.0246
16412DOD     C193055  17.621  24.673  20.143  0.1646  0.1216 -0.0198
16412DOD     C293056  17.203  24.912  20.064 -0.0207  0.1255  0.0399
16412DOD     C393057  16.890  24.937  19.718  0.0802 -0.0403  0.0940
16413DOD     C193058   3.468   7.522  21.633  0.0119  0.1728  0.0086
16413DOD     C293059   3.803   7.819  21.750 -0.0728 -0.1777 -0.0967
16413DOD     C393060   4.278   7.815  21.772  0.0648 -0.2178  0.4028
16414DOD     C193061  21.162  22.237  22.418 -0.5760  0.2665 -0.2087
16414DOD     C293062  20.866  22.550  22.559 -0.2445 -0.0360  0.1881
16414DOD     C393063  20.626  22.752  22.946 -0.2248 -0.1111  0.0877
16415DOD     C193064   3.943   8.136  17.490 -0.3021  0.0980 -0.0165
16415DOD     C293065   3.511   8.038  17.246  0.0695 -0.1447 -0.1704
16415DOD     C393066   3.200   8.305  17.477 -0.0293  0.0092  0.0551
16416DOD     C193067  17.881  15.743  15.183 -0.0306 -0.0640  0.0749
16416DOD     C293068  17.782  16.002  14.763 -0.1186  0.5533 -0.1134
16416DOD     C393069  17.826  16.249  14.370  0.0762  0.2533 -0.0954
16417DOD     C193070   1.400  27.332  24.746 -0.1830  0.1658  0.2381
16417DOD     C293071   1.583  27.756  24.663  0.1643 -0.5257 -0.0909
16417DOD     C393072   1.781  28.202  24.836 -0.2488  0.1975  0.0184
16418DOD     C193073   3.581  18.221   0.969 -0.1164 -0.4057 -0.2158
16418DOD     C293074   3.222  17.993   0.834 -0.3587 -0.0823 -0.1431
16418DOD     C393075   2.850  17.750   0.977 -0.0141 -0.1466 -0.1136
16419DOD     C193076  14.628  19.891   1.261 -0.0697 -0.1395  0.3271
16419DOD     C293077  14.295  19.866   1.538 -0.1857  0.0358 -0.2602
16419DOD     C393078  13.940  20.022   1.731  0.0350 -0.1522  0.0767
16420DOD     C193079  13.140  19.937  13.410  0.2506  0.2256  0.0803
16420DOD     C293080  13.214  19.438  13.564  0.0163 -0.0132 -0.0819
16420DOD     C393081  13.479  19.035  13.511 -0.1596 -0.4764 -0.2887
16421DOD     C193082   9.197   3.464  13.622  0.0990 -0.0755 -0.2616
16421DOD     C293083   8.982   3.343  14.025 -0.0870  0.0846 -0.0338
16421DOD     C393084   8.523   3.239  14.150 -0.0850 -0.0196 -0.0040
16422DOD     C193085   7.427  15.803   5.218  0.2841  0.0243  0.0772
16422DOD     C293086   7.521  15.378   5.299  0.3716 -0.0118  0.0459
16422DOD     C393087   7.840  15.049   5.182 -0.2022 -0.1895  0.0302
16423DOD     C193088  29.251  29.626  28.436  0.1993 -0.2198  0.0884
16423DOD     C293089  28.761  29.537  28.494 -0.0767  0.3006  0.3376
16423DOD     C393090  28.310  29.565  28.506 -0.0347 -0.0955  0.1539
16424DOD     C193091   7.070  16.510  29.668  0.0403 -0.2408  0.2746
16424DOD     C293092   6.785  16.161  29.564 -0.2182  0.0638 -0.0191
16424DOD     C393093   6.364  15.930  29.445  0.2209  0.3227 -0.0835
16425DOD     C193094  24.360  12.155  15.624 -0.0037 -0.1945 -0.3096
16425DOD     C293095  24.573  12.376  15.317 -0.1278  0.1700  0.4067
16425DOD     C393096  24.741  12.627  14.962  0.2880 -0.1881  0.0200
16426DOD     C193097   6.586  23.482  29.229 -0.0541  0.3502 -0.0016
16426DOD     C293098   6.520  23.803  28.932 -0.1925 -0.1518  0.3248
16426DOD     C393099   6.442  24.263  28.870 -0.0125  0.1316 -0.0957
16427DOD     C193100  18.924  28.034  17.432  0.3236 -0.1182  0.1288
16427DOD     C293101  18.930  28.361  17.079 -0.0278  0.1171  0.3333
16427DOD     C393102  19.298  28.424  16.761  0.2608  0.0846  0.3612
16428DOD     C193103  12.040   2.629  18.522  0.0981 -0.1620  0.0050
16428DOD     C293104  12.125   2.244  18.780 -0.1252  0.2048  0.1778
16428DOD     C393105  12.126   1.885  19.107 -0.3116  0.0047 -0.2903
16429DOD     C193106  21.588   4.315  12.104  0.1733 -0.0613  0.2483
16429DOD     C293107  21.468   4.438  11.668  0.1083  0.0365 -0.0623
16429DOD     C393108  21.200   4.718  11.409 -0.2222 -0.0214  0.1583
16430DOD     C193109   3.435  11.992  25.271  0.1851  0.1005 -0.1104
16430DOD     C293110   3.544  12.419  25.126 -0.1513  0.2491  0.4215
16430DOD     C393111   3.558  12.805  24.951  0.2130 -0.0652  0.0445
16431DOD     C193112  17.775   7.512  25.662 -0.3642  0.0450  0.2419
16431DOD     C293113  17.702   7.904  25.422  0.1335  0.1508 -0.0903
16431DOD     C393114  17.321   8.067  25.178  0.0753 -0.2750 -0.2978
16432DOD     C193115  20.168  20.291   5.746 -0.1262 -0.3252  0.0038
16432DOD     C293116  20.318  19.833   5.650 -0.1048 -0.2755  0.0671
16432DOD     C393117  20.729  19.560   5.821  0.1445  0.1502  0.2379
16433DOD     C193118  25.074  18.322   2.974  0.0731 -0.2875 -0.0257
16433DOD     C293119  25.265  18.475   2.536 -0.0241 -0.0079 -0.2424
16433DOD     C393120  25.545  18.493   2.230  0.0767 -0.1263  0.0881
16434DOD     C193121  10.957  16.339  25.650 -0.0405 -0.1588  0.1124
16434DOD     C293122  11.373  16.435  25.456 -0.3900 -0.2095  0.1363
16434DOD     C393123  11.741  16.677  25.306 -0.2982  0.2433  0.2279
16435DOD     C193124   2.474  13.315  24.405  0.1157  0.0335 -0.0207
16435DOD     C293125   2.116  13.362  24.131 -0.1446 -0.0599 -0.2671
16435DOD     C393126   1.762  13.190  23.974  0.0040 -0.0496  0.0838
16436DOD     C193127   3.877  24.575   2.650  0.0611  0.0455 -0.2707
16436DOD     C293128   4.051  24.997   2.887  0.0461 -0.0121  0.0556
16436DOD     C393129   3.956  25.444   3.103 -0.0067 -0.2593 -0.1972
16437DOD     C193130   9.847  14.828   7.273  0.3705 -0.0976  0.0801
16437DOD     C293131  10.297  14.736   7.497 -0.2577 -0.2018  0.0309
16437DOD     C393132  10.635  14.422   7.555 -0.1740 -0.2405  0.1230
16438DOD     C193133  27.150   0.119  24.228  0.0615 -0.2099 -0.0056
16438DOD     C293134  27.622   0.094  24.233  0.0900 -0.0553  0.2722
16438DOD     C393135  27.832  30.195  23.915  0.0765 -0.1876 -0.1864
16439DOD     C193136  25.731  23.360  18.304  0.2446  0.0894  0.1672
16439DOD     C293137  25.960  23.792  18.234 -0.1421 -0.2818 -0.3537
16439DOD     C393138  26.063  24.228  18.297  0.1171 -0.2568 -0.0769
16440DOD     C193139  17.105  27.238  28.779 -0.0564  0.1638 -0.0275
16440DOD     C293140  16.751  27.119  29.082 -0.1728 -0.1218  0.1660
16440DOD     C393141  16.340  27.058  29.077  0.0380 -0.0281 -0.0671
16441DOD     C193142   8.403   4.845   3.615  0.1564  0.0365 -0.1625
16441DOD     C293143   8.559   4.448   3.689  0.1762 -0.1443 -0.0212
16441DOD     C393144   8.837   4.066   3.920  0.0605  0.2614 -0.0443
16442DOD     C193145  26.624  16.251  21.280 -0.1415  0.3102 -0.0572
16442DOD     C293146  26.971  16.008  21.447 -0.1622 -0.1206  0.0537
16442DOD     C393147  27.222  15.611  21.436 -0.1415 -0.0100  0.2280
16443DOD     C193148  23.912  20.992  16.136 -0.2698 -0.0286  0.1618
16443DOD     C293149  23.820  20.598  16.321 -0.0132  0.0684  0.1239
16443DOD     C393150  23.625  20.149  16.322 -0.0314 -0.2144  0.0779
16444DOD     C193151  28.441  23.261  17.209 -0.1613 -0.0429  0.0390
16444DOD     C293152  28.753  22.921  17.326  0.0901  0.1327  0.4111
16444DOD     C393153  28.852  22.443  17.210  0.1666  0.2065 -0.3148
16445DOD     C193154   3.959  14.570  17.908 -0.2526  0.2059  0.1404
16445DOD     C293155   3.956  14.904  18.239  0.2476 -0.1380  0.0650
16445DOD     C393156   3.882  15.328  18.273  0.3162  0.2222  0.2744
16446DOD     C193157  10.089  28.806   3.026 -0.1598  0.1618  0.2304
16446DOD     C293158  10.474  28.916   3.114 -0.2368  0.1761 -0.1023
16446DOD     C393159  10.923  28.930   3.180 -0.0690  0.3546  0.2627
16447DOD     C193160  23.467   4.119  28.991 -0.2569 -0.1712 -0.0210
16447DOD     C293161  23.046   4.324  29.144  0.0124  0.0066  0.1616
16447DOD     C393162  22.730   4.428  29.458  0.0669 -0.0753  0.2368
16448DOD     C193163  18.049  17.111  22.462 -0.3936 -0.1802  0.0031
16448DOD     C293164  17.987  16.645  22.536 -0.0658  0.0178 -0.0808
16448DOD     C393165  17.787  16.198  22.720 -0.0417  0.1174  0.1896
16449DOD     C193166  20.554   7.513  13.468 -0.1436  0.0675 -0.2679
16449DOD     C293167  20.565   7.067  13.620  0.2545  0.1985 -0.1515
16449DOD     C393168  20.947   6.733  13.549 -0.1360  0.1192 -0.1102
16450DOD     C193169   3.651   0.021   9.770  0.0351 -0.2376 -0.0214
16450DOD     C293170   3.240   0.237   9.754  0.0872  0.1308  0.1069
16450DOD     C393171   2.869   0.328   9.526  0.0203  0.2884  0.2461
16451DOD     C193172   7.406  19.966  12.166  0.3381  0.2024  0.1429
16451DOD     C293173   7.663  20.409  12.167 -0.0668  0.1157 -0.2315
16451DOD     C393174   7.721  20.870  12.310  0.2473  0.1525  0.2328
16452DOD     C193175  17.781   3.948  14.453 -0.0181  0.0108 -0.0146
16452DOD     C293176  17.715   3.424  14.481  0.2655 -0.0661  0.0427
16452DOD     C393177  17.575   3.105  14.137  0.1907 -0.0390 -0.0816
16453DOD     C193178  16.607  11.197   2.236 -0.2664  0.2312 -0.0440
16453DOD     C293179  16.692  10.791   2.090 -0.3387 -0.3461  0.2547
16453DOD     C393180  16.645  10.309   1.899 -0.1063  0.0076  0.0495
16454DOD     C193181  29.071  24.307   6.362 -0.3101 -0.3527 -0.4284
16454DOD     C293182  29.325  24.682   6.370 -0.0366 -0.1136 -0.0654
16454DOD     C393183  29.791  24.601   6.381  0.0357  0.0767  0.0573
16455DOD     C193184  24.284  27.682  28.257  0.2492  0.2366 -0.2804
16455DOD     C293185  24.505  27.945  28.595  0.0961  0.3465 -0.0995
16455DOD     C393186  24.842  27.986  28.950  0.0584  0.0714  0.1150
16456DOD     C193187  11.934  13.722   4.367 -0.0416  0.0976 -0.1278
16456DOD     C293188  11.591  13.638   4.683  0.0627 -0.0903 -0.1051
16456DOD     C393189  11.420  13.809   5.119  0.1703 -0.0505  0.0918
16457DOD     C193190   4.195  26.883  14.665  0.0047 -0.1587 -0.4775
16457DOD     C293191   3.867  27.075  14.460  0.0496  0.2233  0.1455
16457DOD     C393192   3.750  27.416  14.210  0.0427  0.0791  0.1176
16458DOD     C193193  18.934  21.106   3.848 -0.0228 -0.0468 -0.0380
16458DOD     C293194  18.672  21.405   3.674 -0.2458  0.0045  0.0626
16458DOD     C393195  18.382  21.598   3.410  0.1569  0.1235  0.1876
16459DOD     C193196   1.767  21.898   1.902 -0.1454 -0.2784 -0.0492
16459DOD     C293197   1.851  21.556   1.692  0.2892 -0.0578  0.5322
16459DOD     C393198   1.814  21.491   1.232  0.1303 -0.0953 -0.0074
16460DOD     C193199  17.977   1.474  12.164  0.1920 -0.0380  0.1794
16460DOD     C293200  17.880   1.155  11.884  0.1962  0.1295 -0.1370
16460DOD     C393201  17.639   0.759  11.809 -0.0698  0.2618  0.2297
16461DOD     C193202  29.425  27.929  11.147  0.1976 -0.2531  0.5065
16461DOD     C293203  29.289  28.158  10.760 -0.1999  0.0925  0.0766
16461DOD     C393204  29.310  28.423  10.372  0.1530 -0.0304  0.1531
16462DOD     C193205   2.821  14.698  29.481  0.1186  0.3096 -0.1712
16462DOD     C293206   2.618  14.729  29.905  0.1829  0.0628 -0.0001
16462DOD     C393207   2.426  14.500  30.264  0.1081 -0.1777 -0.1059
16463DOD     C193208  23.793  29.435  16.995  0.0278  0.2027 -0.1563
16463DOD     C293209  24.087  29.180  16.653 -0.0204  0.1117 -0.1016
16463DOD     C393210  24.238  28.827  16.465 -0.2596  0.0637 -0.0798
16464DOD     C193211   4.559  27.647  28.250 -0.0789 -0.1567 -0.1076
16464DOD     C293212   4.083  27.695  28.371  0.1595 -0.1676  0.3305
16464DOD     C393213   3.625  27.595  28.450  0.1713  0.0511  0.3798
16465DOD     C193214  20.468  18.256  21.674  0.0257 -0.3338 -0.1316
16465DOD     C293215  20.869  18.013  21.901  0.0763 -0.1436  0.1304
16465DOD     C393216  21.183  17.757  22.213  0.0634  0.0878 -0.2683
16466DOD     C193217  24.232  26.535  23.348  0.2057 -0.0429 -0.1259
16466DOD     C293218  24.101  26.863  23.702  0.0946  0.0167 -0.0673
16466DOD     C393219  23.951  26.958  24.165 -0.0415  0.0720 -0.0191
16467DOD     C193220  26.547  23.841  14.172 -0.1089  0.0273 -0.1401
16467DOD     C293221  27.080  23.883  14.031  0.0053 -0.2171 -0.2861
16467DOD     C393222  27.331  24.246  14.117  0.1543 -0.1822 -0.0773
16468DOD     C193223  13.617  12.517  17.104  0.0307  0.0709  0.1449
16468DOD     C293224  13.893  12.863  17.031 -0.1305 -0.0191 -0.0635
16468DOD     C393225  14.154  13.248  17.078  0.0976  0.2032  0.0553
16469DOD     C193226  26.999   3.319  12.074 -0.1343  0.1112  0.1182
16469DOD     C293227  26.956   3.819  12.102  0.1668 -0.1513  0.0802
16469DOD     C393228  27.043   4.292  12.176  0.0072  0.5041 -0.0734
16470DOD     C193229  25.313  10.401   4.981 -0.2543 -0.0716  0.2100
16470DOD     C293230  25.214  10.468   4.561 -0.1463 -0.1356  0.0323
16470DOD     C393231  25.034  10.826   4.293  0.0011 -0.1421 -0.2093
16471DOD     C193232   6.591   7.540  27.936  0.1485 -0.2254 -0.3397
16471DOD     C293233   6.372   7.246  27.651  0.1590 -0.2175  0.2059
16471DOD     C393234   5.916   6.998  27.615 -0.0917  0.0807  0.3402
16472DOD     C193235  17.872  24.624  21.927  0.0886  0.0026  0.1656
16472DOD     C293236  18.341  24.788  21.860  0.0271 -0.0716  0.1329
16472DOD     C393237  18.651  25.113  21.914  0.0801  0.4713 -0.0774
16473DOD     C193238   6.395  26.772  22.442  0.3584  0.1601 -0.1386
16473DOD     C293239   6.196  26.773  22.060 -0.0194 -0.3093 -0.2823
16473DOD     C393240   5.933  26.860  21.640  0.0497  0.0405 -0.0900
16474DOD     C193241   8.712   9.681  23.170 -0.1381  0.1465  0.0284
16474DOD     C293242   8.464   9.723  22.792  0.0376  0.1939 -0.4166
16474DOD     C393243   8.280   9.841  22.404  0.1103  0.0429 -0.0651
16475DOD     C193244  20.633  12.385  15.650 -0.2517  0.3141  0.1581
16475DOD     C293245  20.233  12.128  15.828 -0.1003  0.0689 -0.1058
16475DOD     C393246  19.880  11.956  16.091 -0.2367  0.1359  0.0014
16476DOD     C193247  18.556   2.230   3.807 -0.1037 -0.0170 -0.4580
16476DOD     C293248  18.200   2.353   3.604 -0.0198 -0.1203  0.0119
16476DOD     C393249  17.867   2.503   3.834 -0.2136 -0.1324 -0.3313
16477DOD     C193250  27.007  12.134   2.129 -0.1067  0.5835 -0.3772
16477DOD     C293251  27.294  12.462   2.076 -0.3151  0.1690  0.1121
16477DOD     C393252  27.405  12.557   1.625 -0.3166 -0.1623  0.1156
16478DOD     C193253  14.802   3.709   3.448 -0.1591 -0.0299  0.3478
16478DOD     C293254  14.366   3.893   3.307  0.0529  0.1227  0.0994
16478DOD     C393255  14.091   3.943   3.641  0.2567  0.2823 -0.1382
16479DOD     C193256  21.804  20.785   2.800 -0.1647 -0.0154 -0.0175
16479DOD     C293257  22.269  20.909   2.780  0.0791  0.0505  0.0841
16479DOD     C393258  22.437  21.289   2.538  0.0970 -0.2040 -0.2928
16480DOD     C193259  25.603  24.723   5.729 -0.0842 -0.3405 -0.0776
16480DOD     C293260  25.907  24.979   5.999  0.0427 -0.0045 -0.1490
16480DOD     C393261  25.946  25.470   6.187  0.1926 -0.0561 -0.1214
16481DOD     C193262   5.848   3.653  23.139 -0.2128 -0.1369 -0.1459
16481DOD     C293263   6.246   3.787  23.209 -0.1273  0.0371  0.1392
16481DOD     C393264   6.672   3.639  23.121  0.2640  0.0640 -0.1869
16482DOD     C193265  13.345  11.205  20.773 -0.0357 -0.0762  0.5758
16482DOD     C293266  13.524  10.986  20.399  0.1798 -0.1241  0.1919
16482DOD     C393267  13.591  11.177  19.964 -0.0095 -0.0194  0.2008
16483DOD     C193268  24.311  20.971   0.671  0.0765 -0.0196  0.3150
16483DOD     C293269  24.235  20.711   1.079  0.3236 -0.0413 -0.0709
16483DOD     C393270  24.019  20.723   1.464 -0.0378 -0.0432  0.0025
16484DOD     C193271  17.802   2.458  13.573 -0.0236 -0.0781  0.1492
16484DOD     C293272  17.766   2.919  13.630  0.3401  0.2868  0.0548
16484DOD     C393273  17.778   3.301  13.326 -0.2595 -0.4049 -0.1174
16485DOD     C193274  22.445  27.130  10.720  0.0005 -0.0768  0.0404
16485DOD     C293275  22.543  27.481  10.436 -0.0756 -0.0276  0.1292
16485DOD     C393276  22.593  27.701  10.011  0.3461 -0.1128  0.0756
16486DOD     C193277   4.690  28.404  14.692  0.0722 -0.1063  0.1400
16486DOD     C293278   5.053  28.429  14.917  0.2315  0.0433 -0.0218
16486DOD     C393279   5.247  28.427  15.333  0.0451  0.0856  0.0990
16487DOD     C193280  30.045  16.927  28.526 -0.2352 -0.5246 -0.0788
16487DOD     C293281  29.760  17.064  28.190  0.1994  0.0755 -0.1084
16487DOD     C393282  29.869  17.098  27.711  0.0419  0.0243  0.1717
16488DOD     C193283   2.010  24.501  20.183 -0.1700  0.1859 -0.1118
16488DOD     C293284   1.767  24.126  20.351  0.0059  0.3231  0.0670
16488DOD     C393285   1.518  23.985  20.717 -0.0528  0.4504 -0.2152
16489DOD     C193286  26.467  26.954   2.584  0.0107 -0.0957  0.0170
16489DOD     C293287  26.213  27.347   2.527  0.5173 -0.0816  0.2136
16489DOD     C393288  25.761  27.396   2.432 -0.0125  0.0522  0.2662
16490DOD     C193289  14.951   5.635   1.854  0.0080  0.0798 -0.1778
16490DOD     C293290  14.993   5.180   1.753 -0.2730 -0.0082 -0.1283
16490DOD     C393291  15.038   4.796   1.665 -0.3255  0.1571 -0.0907
16491DOD     C193292  18.994  29.519  17.169  0.2413  0.0932  0.0853
16491DOD     C293293  18.865  29.515  16.722 -0.0006 -0.2029  0.2647
16491DOD     C393294  18.812  29.363  16.194  0.1330 -0.1378  0.0326
16492DOD     C193295  29.122   7.264  29.089  0.0930 -0.1681  0.2661
16492DOD     C293296  29.280   6.837  29.000 -0.2064 -0.2019 -0.0886
16492DOD     C393297  29.429   6.410  28.958  0.0970  0.0638 -0.2878
16493DOD     C193298  20.111  14.541  15.986  0.0484  0.4030  0.2840
16493DOD     C293299  19.800  14.358  15.716 -0.0860  0.1836  0.0634
16493DOD     C393300  19.389  14.279  15.471 -0.0865  0.3822  0.1496
16494DOD     C193301   2.895   8.803   5.640  0.0233 -0.0645 -0.3104
16494DOD     C293302   2.723   8.659   5.237 -0.2010 -0.1907  0.0941
16494DOD     C393303   2.501   8.869   4.879 -0.0692 -0.3773  0.3113
16495DOD     C193304  24.510   0.069   6.926 -0.0778  0.1061 -0.1099
16495DOD     C293305  24.352   0.056   7.343 -0.0868  0.1749  0.0173
16495DOD     C393306  24.345  30.100   7.693  0.2913  0.0229  0.1920
16496DOD     C193307   3.809  11.629  18.849 -0.0260 -0.1419  0.1270
16496DOD     C293308   3.854  11.295  19.179 -0.0418 -0.0306  0.1462
16496DOD     C393309   4.095  10.962  19.340 -0.3111 -0.2048  0.1567
16497DOD     C193310  27.401  12.900  10.472 -0.0567  0.1014  0.3077
16497DOD     C293311  27.773  12.778  10.676  0.3157  0.1475 -0.2712
16497DOD     C393312  28.063  12.624  11.018 -0.3817 -0.0948 -0.0277
16498DOD     C193313   4.845  24.783   9.204  0.1928 -0.0288  0.0136
16498DOD     C293314   4.895  25.052   8.865 -0.2905 -0.1731 -0.0631
16498DOD     C393315   4.863  25.368   8.467 -0.0457 -0.2150 -0.1958
16499DOD     C193316   1.518   4.428  11.463 -0.2038 -0.1442  0.2397
16499DOD     C293317   1.616   4.359  11.000  0.0482 -0.1173 -0.2114
16499DOD     C393318   1.815   4.697  10.785 -0.0524 -0.3724  0.3518
16500DOD     C193319  22.630  17.627   9.960  0.2700  0.3823  0.0497
16500DOD     C293320  22.594  17.570  10.431  0.1182 -0.1781 -0.1752
16500DOD     C393321  22.326  17.480  10.758  0.1869  0.1166 -0.2039
16501DOD     C193322  13.063  28.889   5.836  0.1267  0.0089  0.0068
16501DOD     C293323  13.089  28.696   5.385 -0.1258  0.1040  0.0037
16501DOD     C393324  12.938  28.266   5.224  0.1383 -0.0726  0.2060
16502DOD     C193325  18.654   9.591   0.403  0.1072 -0.0456  0.0012
16502DOD     C293326  19.046   9.861   0.479 -0.1219  0.1410  0.0276
16502DOD     C393327  19.337  10.244   0.487 -0.1553 -0.2743  0.1702
16503DOD     C193328  14.408  22.281  20.783 -0.2190 -0.1225 -0.1787
16503DOD     C293329  14.124  22.677  20.744  0.2469 -0.2922 -0.0083
16503DOD     C393330  13.912  23.079  20.601 -0.1577 -0.1017 -0.1349
16504DOD     C193331  24.649  24.842  22.613 -0.2538 -0.0153 -0.1525
16504DOD     C293332  24.908  24.685  22.237  0.0275 -0.2808  0.0021
16504DOD     C393333  24.868  24.434  21.809 -0.1590 -0.0040 -0.0697
16505DOD     C193334  13.481  27.399  19.108  0.2643 -0.1568 -0.2419
16505DOD     C293335  13.771  27.338  19.440 -0.2158 -0.1775  0.2340
16505DOD     C393336  14.150  27.515  19.505  0.0481 -0.0153  0.2869
16506DOD     C193337  22.505  18.638  18.443  0.0486  0.0874  0.0891
16506DOD     C293338  22.429  18.318  18.809  0.1395 -0.0546 -0.0545
16506DOD     C393339  22.833  18.146  18.991  0.0154  0.2487 -0.1255
16507DOD     C193340   1.222  20.022  12.574 -0.2493 -0.2891 -0.0990
16507DOD     C293341   0.870  19.856  12.905 -0.1284 -0.2200 -0.0870
16507DOD     C393342   0.775  19.551  13.216  0.1254 -0.3079  0.0323
16508DOD     C193343  14.549   3.886  17.947 -0.0534  0.0078 -0.2903
16508DOD     C293344  15.065   3.839  18.018  0.2314  0.0554 -0.0215
16508DOD     C393345  15.435   3.964  18.326  0.1348  0.0168  0.1672
16509DOD     C193346  21.015  26.633   5.256 -0.1385 -0.1259 -0.0613
16509DOD     C293347  20.728  26.760   5.590 -0.0454 -0.0043  0.0579
16509DOD     C393348  20.304  26.978   5.595  0.0105  0.0844  0.1927
16510DOD     C193349   5.174   6.376  22.967  0.0765 -0.0590  0.2098
16510DOD     C293350   5.540   6.147  22.841  0.0138  0.0494 -0.0465
16510DOD     C393351   5.898   5.862  23.005  0.1728  0.1878  0.5002
16511DOD     C193352  21.902  19.764   4.531 -0.0859 -0.0248 -0.2140
16511DOD     C293353  21.583  19.501   4.672 -0.0830 -0.1794  0.3365
16511DOD     C393354  21.165  19.340   4.709  0.0511  0.1134  0.0749
16512DOD     C193355  29.036   5.456  10.512  0.0611 -0.2504 -0.0117
16512DOD     C293356  28.886   5.414  10.068 -0.2655 -0.1493  0.3922
16512DOD     C393357  28.692   5.314   9.635 -0.4864  0.0890  0.0030
16513DOD     C193358  14.186   5.128  25.371 -0.0063 -0.0853 -0.2783
16513DOD     C293359  14.355   4.822  25.079  0.0130  0.3344 -0.1098
16513DOD     C393360  14.633   4.504  24.910  0.2252  0.0861  0.3136
16514DOD     C193361   8.855   4.972  17.386  0.0086 -0.4012 -0.1505
16514DOD     C293362   9.060   5.027  17.001 -0.2535  0.0376  0.0774
16514DOD     C393363   9.103   4.890  16.518 -0.1019 -0.2602  0.3657
16515DOD     C193364  17.328  16.048   3.853  0.1432 -0.0532  0.1072
16515DOD     C293365  17.692  16.203   3.557 -0.0116 -0.0760  0.2682
16515DOD     C393366  18.129  16.248   3.486 -0.3111  0.0578 -0.0177
16516DOD     C193367  19.264   5.605   0.973 -0.0920 -0.0330  0.0484
16516DOD     C293368  19.030   5.508   0.610  0.0082 -0.0038  0.0396
16516DOD     C393369  18.916   5.459   0.161 -0.2420 -0.0440  0.3140
16517DOD     C193370  21.243  24.027  14.438 -0.0267  0.4236 -0.1764
16517DOD     C293371  21.153  24.364  14.125 -0.0166  0.2241 -0.1343
16517DOD     C393372  21.578  24.424  13.886  0.0621 -0.4174  0.0186
16518DOD     C193373   4.260  18.033   7.315  0.1984 -0.0880  0.2225
16518DOD     C293374   3.879  17.910   7.056 -0.0262  0.1770  0.0203
16518DOD     C393375   3.943  17.528   6.786 -0.3788  0.0189 -0.1255
16519DOD     C193376   4.605   5.614  12.316  0.1755  0.1969  0.0830
16519DOD     C293377   4.871   5.263  12.270 -0.0843 -0.2093  0.2593
16519DOD     C393378   5.046   4.828  12.316  0.0508  0.1785 -0.1025
16520DOD     C193379   6.251  22.742  21.003  0.0215  0.0087 -0.0732
16520DOD     C293380   6.462  23.137  20.997 -0.0699 -0.1100 -0.2346
16520DOD     C393381   6.400  23.603  20.877  0.2322  0.0526  0.2208
16521DOD     C193382  20.673   1.036  21.097 -0.1867  0.3574  0.1081
16521DOD     C293383  20.567   0.599  21.027  0.0235 -0.3896  0.1162
16521DOD     C393384  20.383   0.168  21.018 -0.1806 -0.0992  0.0653
16522DOD     C193385  20.160  20.228   0.703  0.0216 -0.0070  0.2640
16522DOD     C293386  19.674  20.394   0.735  0.1170  0.0343  0.3539
16522DOD     C393387  19.289  20.664   0.744  0.1096  0.1499  0.2070
16523DOD     C193388  13.573  13.558   8.578  0.0796  0.1897  0.2043
16523DOD     C293389  13.536  13.129   8.742 -0.0365  0.1995  0.0158
16523DOD     C393390  13.716  12.704   8.667  0.4797 -0.2235  0.0762
16524DOD     C193391   7.413  28.721   0.530  0.0981  0.2779 -0.1512
16524DOD     C293392   7.329  28.657   0.991  0.0362 -0.0636  0.2351
16524DOD     C393393   7.186  28.485   1.392 -0.1348  0.1110  0.0382
16525DOD     C193394  21.761  11.020  10.805  0.2617 -0.0088  0.0331
16525DOD     C293395  21.991  11.391  10.878 -0.3702 -0.3150  0.2769
16525DOD     C393396  22.386  11.619  10.851  0.2020 -0.1521 -0.4161
16526DOD     C193397  21.740   2.698  19.389 -0.2221  0.1752  0.4430
16526DOD     C293398  22.098   2.551  19.713  0.1179 -0.0540 -0.1733
16526DOD     C393399  22.267   2.139  19.851  0.0128 -0.0496  0.4314
16527DOD     C193400   4.729   4.979  19.756  0.0485  0.0694  0.2521
16527DOD     C293401   4.812   4.610  19.578 -0.0036 -0.1585 -0.1942
16527DOD     C393402   4.812   4.189  19.312 -0.2783  0.1256 -0.1913
16528DOD     C193403  23.084  26.829  22.442  0.2085  0.0155  0.2081
16528DOD     C293404  22.788  26.746  22.133  0.4504 -0.1330  0.0051
16528DOD     C393405  22.500  26.949  21.903  0.1426  0.1397 -0.0153
16529DOD     C193406   7.821  20.025  18.932 -0.0172  0.1494 -0.0499
16529DOD     C293407   8.014  20.247  18.601  0.0034 -0.0024  0.3820
16529DOD     C393408   8.312  20.566  18.559 -0.1363 -0.0719  0.0392
16530DOD     C193409  17.109  23.852   1.638 -0.0305 -0.1972  0.1375
16530DOD     C293410  17.496  23.972   1.399  0.2272 -0.0563  0.0782
16530DOD     C393411  17.911  24.103   1.262 -0.1142  0.0910  0.2111
16531DOD     C193412  24.969   6.929   3.482  0.2309  0.1411  0.6730
16531DOD     C293413  25.362   7.128   3.441 -0.2646 -0.1389  0.4310
16531DOD     C393414  25.756   7.374   3.528 -0.1872 -0.0124 -0.1330
16532DOD     C193415   2.780   8.420   3.556 -0.2113 -0.1076 -0.2389
16532DOD     C293416   2.617   8.665   3.960 -0.1607 -0.0097 -0.0267
16532DOD     C393417   2.522   8.939   4.362 -0.0618  0.0694 -0.0179
16533DOD     C193418   3.144   9.190   7.696 -0.0416  0.1908  0.2047
16533DOD     C293419   3.311   8.980   7.323  0.1329  0.2223 -0.3075
16533DOD     C393420   3.494   8.586   7.354 -0.0357 -0.0104 -0.0267
16534DOD     C193421  15.657  10.136  16.264  0.1820  0.0384 -0.0897
16534DOD     C293422  15.509  10.377  15.869  0.0150  0.2233 -0.1681
16534DOD     C393423  15.092  10.616  15.806 -0.0569 -0.0423  0.0682
16535DOD     C193424   6.305  19.565   4.937  0.0319 -0.2071 -0.1167
16535DOD     C293425   6.290  19.609   5.414 -0.2235  0.0914  0.2151
16535DOD     C393426   5.967  19.716   5.754 -0.0262  0.2421 -0.0540
16536DOD     C193427  24.004  25.534   0.447  0.1885  0.1211 -0.0202
16536DOD     C293428  23.561  25.321   0.311  0.2158 -0.0197 -0.0749
16536DOD     C393429  23.170  25.179   0.144 -0.1857 -0.0455 -0.1537
16537DOD     C193430  17.927  17.376   1.903  0.3535 -0.0174 -0.1127
16537DOD     C293431  18.164  17.714   1.740 -0.0088  0.0920 -0.0987
16537DOD     C393432  18.094  18.030   1.459 -0.0622 -0.2048  0.1028
16538DOD     C193433   5.654  22.090   2.680 -0.2045  0.2706 -0.0379
16538DOD     C293434   5.787  22.314   3.079 -0.3725  0.0558  0.2198
16538DOD     C393435   5.873  22.706   3.309 -0.2171  0.2526 -0.0193
16539DOD     C193436  15.827   2.216  29.974  0.3004  0.1145 -0.1933
16539DOD     C293437  15.864   2.676  30.086 -0.3094  0.1978 -0.1735
16539DOD     C393438  15.713   3.078   0.001 -0.3342  0.0465 -0.1442
16540DOD     C193439   6.066  11.317  16.825 -0.0820  0.0418  0.2265
16540DOD     C293440   6.313  11.367  17.248 -0.1731 -0.1736 -0.0538
16540DOD     C393441   6.491  11.751  17.284 -0.0967 -0.1776  0.0450
16541DOD     C193442  15.515  23.267  17.462  0.2104 -0.3273  0.0409
16541DOD     C293443  16.007  23.140  17.443 -0.1222 -0.2891  0.2646
16541DOD     C393444  16.291  22.838  17.582 -0.1408  0.0163  0.1582
16542DOD     C193445   7.304   4.135   8.091 -0.0463  0.1821  0.0740
16542DOD     C293446   7.095   3.967   8.472 -0.2656  0.1119  0.3227
16542DOD     C393447   7.173   3.746   8.922  0.1019  0.1249  0.3253
16543DOD     C193448  20.397  27.237  25.458 -0.1257  0.0393  0.0384
16543DOD     C293449  20.273  27.067  25.843 -0.1930 -0.2286 -0.1622
16543DOD     C393450  20.100  26.819  26.242 -0.2668  0.2243  0.0232
16544DOD     C193451  23.005  22.492  11.064  0.2238  0.0413  0.2145
16544DOD     C293452  22.862  22.394  11.526  0.2330  0.2411 -0.2983
16544DOD     C393453  22.857  22.136  11.933 -0.0906  0.0657  0.1372
16545DOD     C193454   7.807   7.548   6.431  0.0233  0.3825 -0.0618
16545DOD     C293455   7.363   7.634   6.395  0.0631 -0.2074 -0.1908
16545DOD     C393456   6.928   7.562   6.371 -0.0547 -0.2940  0.1056
16546DOD     C193457   7.484  27.784   1.210 -0.0788 -0.0662  0.1777
16546DOD     C293458   7.544  27.644   1.643 -0.0921 -0.0210  0.0832
16546DOD     C393459   7.876  27.601   1.920 -0.1542 -0.0679  0.0670
16547DOD     C193460   6.673  15.080  16.668  0.3033 -0.1251  0.1666
16547DOD     C293461   7.033  14.920  16.502 -0.0750  0.1709 -0.0108
16547DOD     C393462   7.394  14.641  16.409 -0.1490  0.4522  0.2014
16548DOD     C193463  22.753   4.319  17.729  0.1258 -0.0918  0.1255
16548DOD     C293464  22.931   4.141  17.330  0.3006  0.1374  0.1712
16548DOD     C393465  22.876   4.089  16.873 -0.1407 -0.1975 -0.0758
16549DOD     C193466   7.876  25.572  25.452 -0.3213 -0.0487  0.3890
16549DOD     C293467   7.769  25.194  25.182  0.0555  0.0811  0.2737
16549DOD     C393468   7.887  24.791  25.039 -0.2901 -0.1845  0.0497
16550DOD     C193469   7.122  27.824  14.511 -0.1465  0.0523 -0.1575
16550DOD     C293470   7.316  28.240  14.387  0.0992  0.2082  0.0310
16550DOD     C393471   7.095  28.621  14.527 -0.4275  0.1141 -0.1594
16551DOD     C193472  27.575  17.552  28.929  0.2143 -0.3055 -0.1231
16551DOD     C293473  27.934  17.363  28.940 -0.1649 -0.2244 -0.0163
16551DOD     C393474  28.451  17.278  28.974  0.0215 -0.1017 -0.2803
16552DOD     C193475  25.806  14.840  12.530 -0.0172 -0.0033 -0.0154
16552DOD     C293476  25.571  14.683  12.892 -0.0426  0.2218  0.0108
16552DOD     C393477  25.525  14.175  12.980 -0.0246  0.0668  0.0832
16553DOD     C193478  15.529  16.095  22.160 -0.2547 -0.0461  0.0597
16553DOD     C293479  15.612  15.668  22.039  0.1529 -0.0958 -0.0455
16553DOD     C393480  15.563  15.457  21.646 -0.2261 -0.2876 -0.0873
16554DOD     C193481  12.889  19.255  26.923  0.1623  0.1427 -0.2706
16554DOD     C293482  12.768  19.283  26.455  0.0073 -0.2741 -0.1557
16554DOD     C393483  12.680  19.402  26.049  0.0740  0.3198 -0.0444
16555DOD     C193484  16.448  19.126   5.786  0.2506  0.2458 -0.1811
16555DOD     C293485  16.682  19.049   5.426 -0.0665 -0.1189  0.0720
16555DOD     C393486  16.711  19.162   4.958 -0.2869  0.1207  0.1431
16556DOD     C193487  28.333  10.384  10.790 -0.0235  0.0883 -0.0472
16556DOD     C293488  28.860  10.311  10.667 -0.0605  0.3598 -0.0676
16556DOD     C393489  29.177  10.051  10.537  0.1339 -0.0776 -0.0897
16557DOD     C193490  28.226  23.867  13.000  0.1989 -0.1837  0.2480
16557DOD     C293491  28.144  24.280  12.860 -0.3010 -0.1811  0.0070
16557DOD     C393492  27.793  24.510  12.603 -0.2845 -0.2197  0.1934
16558DOD     C193493  24.483  28.098   6.188  0.1576  0.1131 -0.2543
16558DOD     C293494  24.355  28.505   5.997  0.0372 -0.2130 -0.2117
16558DOD     C393495  24.427  28.712   5.558  0.0392 -0.5556 -0.1072
16559DOD     C193496  21.892  23.112  28.560 -0.0105 -0.2731  0.2901
16559DOD     C293497  21.627  23.109  28.906 -0.0305  0.2013  0.2114
16559DOD     C393498  21.383  23.320  29.248 -0.2347 -0.1958 -0.0300
16560DOD     C193499  22.172  13.773  30.278  0.0241  0.0796 -0.0396
16560DOD     C293500  21.794  13.727   0.280  0.0181 -0.0148 -0.0763
16560DOD     C393501  21.493  13.771   0.580  0.0749 -0.1269 -0.1688
16561DOD     C193502   6.959  24.914  27.820 -0.1507 -0.1476 -0.0326
16561DOD     C293503   7.139  25.265  28.117 -0.1361  0.2006  0.1059
16561DOD     C393504   7.184  25.752  28.063  0.1027 -0.1199 -0.2057
16562DOD     C193505  26.274  18.650  19.434  0.0402  0.1289 -0.3961
16562DOD     C293506  26.311  18.196  19.521  0.2182  0.2180  0.2239
16562DOD     C393507  26.649  17.888  19.684 -0.2478  0.1233 -0.2344
16563DOD     C193508  19.274  10.057  22.271 -0.3585  0.1485  0.0401
16563DOD     C293509  18.906  10.182  22.486 -0.1235  0.1169  0.0957
16563DOD     C393510  18.460  10.279  22.278  0.2211  0.0556  0.0990
16564DOD     C193511  18.846   1.574  24.523  0.4602 -0.0811  0.0315
16564DOD     C293512  18.896   1.491  24.076 -0.1389 -0.1181 -0.3049
16564DOD     C393513  19.265   1.510  23.826  0.3425 -0.0640  0.0173
16565DOD     C193514   6.145  20.679  25.816  0.0820  0.0451 -0.2787
16565DOD     C293515   6.515  20.448  25.723 -0.0240 -0.1405 -0.0686
16565DOD     C393516   6.968  20.390  25.650 -0.2158  0.0439 -0.0501
16566DOD     C193517  26.034  11.709   2.672 -0.1299 -0.0724 -0.1480
16566DOD     C293518  25.770  11.506   2.306  0.2231  0.2218  0.0157
16566DOD     C393519  25.743  11.191   1.973 -0.1636 -0.0972 -0.0034
16567DOD     C193520  28.639  12.381   2.536 -0.1375 -0.1977  0.0776
16567DOD     C293521  28.928  12.198   2.214 -0.0853  0.1807  0.0488
16567DOD     C393522  29.015  11.948   1.851 -0.0096 -0.2042 -0.0585
16568DOD     C193523  24.645   5.102   2.208  0.1666  0.0207 -0.3268
16568DOD     C293524  24.481   5.407   1.952  0.1900 -0.2130 -0.1219
16568DOD     C393525  24.379   5.663   1.567 -0.0253 -0.0909  0.0300
16569DOD     C193526  12.245   3.886  20.062 -0.2263  0.0484  0.0711
16569DOD     C293527  12.516   4.282  19.883 -0.0102 -0.0086 -0.0402
16569DOD     C393528  12.674   4.555  19.619  0.2379 -0.1438 -0.2559
16570DOD     C193529  11.378  17.985   2.658  0.1883 -0.2683 -0.1998
16570DOD     C293530  11.626  17.620   2.525  0.2444  0.0576 -0.0446
16570DOD     C393531  11.997  17.357   2.569  0.2138  0.0572  0.0482
16571DOD     C193532  23.100   5.713   7.321 -0.3458 -0.0970  0.1918
16571DOD     C293533  23.488   5.826   7.482  0.4511  0.0715  0.0504
16571DOD     C393534  23.796   5.730   7.787 -0.2146  0.3828 -0.0926
16572DOD     C193535  25.081  29.770  26.144 -0.1186  0.1024 -0.1044
16572DOD     C293536  25.197  29.384  26.435 -0.2377 -0.0344 -0.1299
16572DOD     C393537  25.025  29.157  26.779 -0.3015  0.2733  0.1139
16573DOD     C193538  19.977  15.104  24.336 -0.1427  0.1471 -0.0649
16573DOD     C293539  20.106  14.689  24.572  0.0736  0.1122  0.3666
16573DOD     C393540  20.404  14.441  24.577  0.1256  0.2747 -0.2412
16574DOD     C193541   9.890  28.558  17.599  0.0460  0.0118  0.0234
16574DOD     C293542   9.540  28.329  17.891 -0.0513  0.0370 -0.2551
16574DOD     C393543   9.315  27.943  17.996  0.0782  0.3281 -0.0388
16575DOD     C193544  20.684  27.993   7.244  0.1337  0.1059  0.0847
16575DOD     C293545  20.395  28.309   7.457 -0.2562 -0.0231 -0.0629
16575DOD     C393546  20.242  28.699   7.695 -0.2847 -0.1577  0.1652
16576DOD     C193547  16.289  16.598   8.154  0.4630 -0.1488 -0.2275
16576DOD     C293548  15.963  16.964   8.239 -0.2187 -0.0021 -0.2111
16576DOD     C393549  15.931  17.452   8.315 -0.1542 -0.0970 -0.0476
16577DOD     C193550  11.613  21.331   2.070  0.0582  0.0673 -0.3196
16577DOD     C293551  11.388  21.737   2.133 -0.0653  0.0882 -0.1984
16577DOD     C393552  11.035  21.772   2.435  0.0591  0.1031 -0.0056
16578DOD     C193553  28.062  14.055  26.321 -0.0359  0.0509  0.1950
16578DOD     C293554  27.946  13.624  26.346  0.0840 -0.0925 -0.1363
16578DOD     C393555  28.039  13.172  26.466 -0.1039  0.4029 -0.1242
16579DOD     C193556  24.769   9.328  18.021  0.2017  0.1699  0.2442
16579DOD     C293557  25.102   9.218  17.809  0.0591 -0.1272 -0.2389
16579DOD     C393558  25.495   8.992  17.811 -0.1543  0.0052  0.3040
16580DOD     C193559  19.128  25.274   3.100 -0.1461 -0.1710 -0.0227
16580DOD     C293560  19.456  25.183   3.419  0.1660  0.2913 -0.0445
16580DOD     C393561  19.879  25.324   3.588  0.0024 -0.1510 -0.3331
16581DOD     C193562   4.181  10.051  18.398 -0.0868 -0.1139 -0.0015
16581DOD     C293563   4.120   9.651  18.638  0.0132 -0.0865 -0.2388
16581DOD     C393564   4.387   9.345  18.444 -0.0702  0.3699 -0.1435
16582DOD     C193565   6.491   2.392  27.013  0.1547 -0.0773 -0.1955
16582DOD     C293566   6.474   2.820  26.851 -0.2084  0.2011 -0.1417
16582DOD     C393567   6.447   3.294  26.834 -0.3353 -0.0512  0.0619
16583DOD     C193568   2.304  23.453  25.148 -0.0792 -0.3502 -0.1486
16583DOD     C293569   2.012  23.794  25.056 -0.1424  0.3334 -0.1201
16583DOD     C393570   1.694  24.027  24.842  0.1079 -0.0343 -0.0698
16584DOD     C193571  21.817  19.820  29.598  0.1126  0.0172  0.1695
16584DOD     C293572  21.353  19.617  29.631  0.0864  0.2606 -0.2973
16584DOD     C393573  21.089  19.268  29.629  0.4657 -0.0358 -0.2795
16585DOD     C193574  24.346  20.079  17.633 -0.2822 -0.1012  0.1296
16585DOD     C293575  24.272  19.638  17.857 -0.0039  0.1142 -0.2623
16585DOD     C393576  24.185  19.194  17.899  0.1598 -0.1578  0.2172
16586DOD     C193577  13.456  12.119  22.112  0.0406  0.0414 -0.1705
16586DOD     C293578  13.323  12.552  21.939  0.0155  0.2040  0.0460
16586DOD     C393579  13.284  12.944  21.684 -0.2539  0.3041 -0.0581
16587DOD     C193580  27.140   9.106  15.682  0.3511  0.0257  0.3127
16587DOD     C293581  26.633   9.107  15.713 -0.3132  0.0334 -0.0340
16587DOD     C393582  26.190   9.147  15.656  0.0895 -0.1874 -0.1039
16588DOD     C193583  17.538  17.901  29.640 -0.1711 -0.0394  0.2098
16588DOD     C293584  17.430  18.319  29.590 -0.2314 -0.0821  0.3105
16588DOD     C393585  17.236  18.729  29.645 -0.1637  0.1468 -0.1053
16589DOD     C193586  27.880  16.737  24.900  0.0062  0.2429 -0.2236
16589DOD     C293587  28.312  16.537  24.972 -0.0590 -0.1219 -0.0687
16589DOD     C393588  28.405  16.098  24.917  0.0116 -0.2992 -0.4234
16590DOD     C193589   1.103   6.782   8.765  0.0276  0.2293 -0.0192
16590DOD     C293590   0.662   6.627   8.617 -0.0792  0.3122 -0.2730
16590DOD     C393591   0.192   6.504   8.640  0.0729  0.2716 -0.0838
16591DOD     C193592  21.186  20.305   5.340  0.0148 -0.0645 -0.1681
16591DOD     C293593  21.176  20.300   4.856  0.4590  0.1267  0.1624
16591DOD     C393594  21.401  20.008   4.529  0.2516  0.0588  0.0210
16592DOD     C193595  19.850   7.080   6.615 -0.1686  0.1978 -0.1799
16592DOD     C293596  19.461   6.923   6.476 -0.1111  0.2479 -0.2273
16592DOD     C393597  19.148   7.037   6.114  0.0809  0.0985  0.1951
16593DOD     C193598   4.000  13.097   7.673 -0.1075  0.1065  0.1322
16593DOD     C293599   4.434  12.872   7.763 -0.1162 -0.0047  0.2156
16593DOD     C393600   4.813  13.146   7.841  0.0350 -0.1526  0.1098
16594DOD     C193601  20.923   4.122   5.454 -0.0181  0.2877 -0.1872
16594DOD     C293602  21.230   4.299   5.168 -0.1391 -0.1641  0.0361
16594DOD     C393603  21.398   4.476   4.759 -0.0755 -0.1683 -0.2478
16595DOD     C193604  21.406  18.905   0.457  0.0675 -0.1706  0.0553
16595DOD     C293605  21.737  18.665   0.507 -0.1360  0.1817 -0.0641
16595DOD     C393606  22.197  18.759   0.586  0.0684  0.0556 -0.1779
16596DOD     C193607  10.944  11.073  20.001  0.3644 -0.1911  0.2979
16596DOD     C293608  10.674  11.067  19.611  0.0121 -0.0505 -0.0467
16596DOD     C393609  10.363  10.845  19.308 -0.2071  0.0148  0.1897
16597DOD     C193610  17.123  28.042   1.800 -0.1959  0.1524  0.0276
16597DOD     C293611  17.359  27.911   2.169  0.0320  0.2107 -0.1729
16597DOD     C393612  17.613  28.019   2.566 -0.1542 -0.0475 -0.2410
16598DOD     C193613  11.693  12.676  16.560 -0.1324 -0.1078  0.0452
16598DOD     C293614  11.238  12.852  16.724  0.1152 -0.0099  0.0262
16598DOD     C393615  11.205  13.276  16.815  0.0758  0.3084 -0.1381
16599DOD     C193616  24.011  27.741  18.297 -0.0569  0.0498  0.0976
16599DOD     C293617  24.072  28.213  18.433  0.0245 -0.0411 -0.1192
16599DOD     C393618  24.070  28.663  18.448 -0.0790  0.1438  0.1188
16600DOD     C193619  14.258  26.015  23.976 -0.0983  0.2828  0.1919
16600DOD     C293620  14.274  25.978  23.453  0.1067  0.1208 -0.0851
16600DOD     C393621  14.034  26.094  23.059 -0.2424  0.2435  0.2404
16601DOD     C193622  29.751  20.991  19.422 -0.1550 -0.4174 -0.2049
16601DOD     C293623  29.751  20.542  19.353 -0.2447 -0.2382  0.0470
16601DOD     C393624  29.624  20.217  18.992  0.0612 -0.1443 -0.1768
16602DOD     C193625  16.581  22.817  25.709  0.0909 -0.2493 -0.1928
16602DOD     C293626  16.233  22.747  26.003 -0.0813 -0.0873  0.0395
16602DOD     C393627  16.039  23.027  26.334 -0.2706  0.0938  0.1833
16603DOD     C193628   2.008   1.342  21.669 -0.1371 -0.0943 -0.1761
16603DOD     C293629   1.695   1.536  21.435 -0.0947 -0.1166  0.1511
16603DOD     C393630   1.649   1.560  20.938  0.0247  0.0182 -0.1283
16604DOD     C193631  18.371  29.328  22.690 -0.3348  0.2059 -0.0391
16604DOD     C293632  18.366  29.672  23.013  0.2445 -0.1710  0.0181
16604DOD     C393633  18.213  29.996  23.330 -0.0680 -0.1147  0.0160
16605DOD     C193634  11.518  20.604  23.768  0.1561 -0.0659  0.2332
16605DOD     C293635  11.839  20.288  23.701  0.0894 -0.0989 -0.0492
16605DOD     C393636  12.098  19.939  23.551  0.2104 -0.1598 -0.0885
16606DOD     C193637  20.266  16.659  10.741 -0.2536  0.0555  0.0145
16606DOD     C293638  19.882  16.773  10.597  0.0594 -0.3354 -0.2695
16606DOD     C393639  19.594  16.746  10.224 -0.3112 -0.2492 -0.0415
16607DOD     C193640  20.900  22.231  25.917 -0.0406 -0.0125  0.1207
16607DOD     C293641  21.316  22.244  26.059 -0.0860  0.0305  0.0959
16607DOD     C393642  21.777  22.138  26.007 -0.0624  0.2276  0.1692
16608DOD     C193643  12.803  26.540   5.023 -0.1373  0.0465 -0.1375
16608DOD     C293644  13.030  26.401   4.643  0.1670 -0.1919  0.0454
16608DOD     C393645  13.047  26.027   4.348  0.5153 -0.1143  0.0100
16609DOD     C193646   5.098  28.188   1.887 -0.1091  0.1470  0.1045
16609DOD     C293647   4.669  28.080   1.887 -0.1336  0.1675  0.1196
16609DOD     C393648   4.625  27.573   2.038 -0.5890 -0.4178  0.0549
16610DOD     C193649  14.176  16.725  22.920 -0.2652 -0.1055  0.5975
16610DOD     C293650  14.269  16.594  22.445  0.0294 -0.1523 -0.1974
16610DOD     C393651  13.882  16.532  22.189 -0.0519 -0.0315 -0.0797
16611DOD     C193652  13.776   1.153  25.284 -0.0312 -0.2027 -0.0034
16611DOD     C293653  13.582   0.843  24.950 -0.1608  0.1094  0.0862
16611DOD     C393654  13.416   0.491  24.727 -0.1252 -0.0510 -0.0673
16612DOD     C193655  14.615   4.037  14.292  0.1335 -0.0510  0.1873
16612DOD     C293656  14.425   3.784  13.977 -0.0933 -0.0965 -0.0051
16612DOD     C393657  13.998   3.887  13.848 -0.1425  0.2012 -0.0193
16613DOD     C193658  11.463  21.334  22.260  0.2237  0.1708 -0.0414
16613DOD     C293659  11.762  21.462  21.925  0.0492  0.0599 -0.4200
16613DOD     C393660  11.927  21.850  21.702 -0.0589  0.1982  0.0490
16614DOD     C193661   8.900  20.370   9.972 -0.0965 -0.0534  0.1376
16614DOD     C293662   9.348  20.465   9.730  0.1430  0.0487  0.0852
16614DOD     C393663   9.716  20.315   9.444 -0.0480 -0.0598  0.0683
16615DOD     C193664  24.993   6.589  11.429 -0.0496  0.1177  0.0173
16615DOD     C293665  25.397   6.411  11.300  0.2996 -0.1247  0.1274
16615DOD     C393666  25.750   6.604  11.146 -0.1166 -0.0700 -0.1923
16616DOD     C193667  24.408  17.157   4.156 -0.1805  0.0945 -0.1661
16616DOD     C293668  24.176  17.242   4.539 -0.1280  0.2469 -0.3081
16616DOD     C393669  23.840  17.487   4.798 -0.2738 -0.0954 -0.1471
16617DOD     C193670  21.223  14.171  25.083 -0.1511  0.1258 -0.0885
16617DOD     C293671  21.327  14.653  25.066 -0.0168  0.2155 -0.1601
16617DOD     C393672  21.018  14.923  25.214  0.2034 -0.1768  0.2315
16618DOD     C193673   5.865   0.532   8.117  0.0045  0.0469 -0.0665
16618DOD     C293674   5.901   0.176   8.372 -0.5141 -0.0390 -0.2446
16618DOD     C393675   6.140  30.297   8.721 -0.1187  0.2833 -0.0329
16619DOD     C193676   5.102   8.484  10.356  0.1019 -0.1610 -0.0336
16619DOD     C293677   5.351   8.393  10.763  0.0731  0.1235 -0.3632
16619DOD     C393678   5.527   8.327  11.194  0.0146  0.1144 -0.0636
16620DOD     C193679   0.801  20.483  16.364  0.3147 -0.0641 -0.0746
16620DOD     C293680   0.791  20.747  15.933  0.1551  0.0663  0.2627
16620DOD     C393681   0.946  20.637  15.555 -0.1742 -0.2045  0.0459
16621DOD     C193682  22.720   6.081   6.788  0.1014  0.0265 -0.0841
16621DOD     C293683  23.021   6.349   7.082 -0.1417 -0.2396 -0.1000
16621DOD     C393684  23.128   6.268   7.500 -0.1172 -0.2874  0.3627
16622DOD     C193685   9.824  24.080  25.669 -0.0493 -0.1504  0.0516
16622DOD     C293686   9.707  24.105  26.143 -0.3224  0.0136 -0.0433
16622DOD     C393687   9.941  24.331  26.444 -0.0514 -0.2012  0.2216
16623DOD     C193688   4.120   7.886   0.475  0.0175  0.0470 -0.0985
16623DOD     C293689   4.226   8.259   0.283 -0.0597 -0.0023 -0.0101
16623DOD     C393690   4.021   8.591   0.200  0.0211  0.0920 -0.0379
16624DOD     C193691  26.668   5.297  11.384  0.1986 -0.1381  0.3586
16624DOD     C293692  26.521   5.645  11.153  0.0679  0.3334 -0.0338
16624DOD     C393693  26.581   5.965  10.852 -0.2790 -0.4269 -0.1453
16625DOD     C193694   8.477  14.192   3.584 -0.0062 -0.0087  0.3750
16625DOD     C293695   8.217  13.789   3.771  0.1827  0.2864 -0.2525
16625DOD     C393696   7.735  13.777   3.752  0.2348  0.0263  0.2682
16626DOD     C193697  15.921   6.264  23.074  0.0673  0.2306 -0.0022
16626DOD     C293698  16.079   6.028  22.754 -0.1417  0.0825 -0.0384
16626DOD     C393699  16.287   6.213  22.329  0.1573  0.2058  0.1828
16627DOD     C193700  11.589  13.789   6.775  0.2546  0.2530  0.1527
16627DOD     C293701  11.223  14.057   6.763  0.3498  0.1452 -0.1114
16627DOD     C393702  10.950  14.330   6.490  0.1711 -0.0292 -0.1934
16628DOD     C193703   7.853  28.766  17.046  0.0961  0.0108  0.1359
16628DOD     C293704   7.673  28.357  16.792 -0.1692 -0.2748  0.0706
16628DOD     C393705   7.341  28.295  16.563  0.3139 -0.0153  0.1687
16629DOD     C193706   2.922  17.167   1.038 -0.0567 -0.1685  0.0762
16629DOD     C293707   3.157  17.196   0.599  0.1463 -0.3806  0.0320
16629DOD     C393708   3.216  17.613   0.429  0.0485  0.1249  0.2260
16630DOD     C193709  10.645   0.940  14.376 -0.1122 -0.1900  0.4756
16630DOD     C293710  11.066   0.809  14.160  0.2152 -0.1479  0.1949
16630DOD     C393711  11.383   0.604  13.977  0.0325 -0.1454 -0.0133
16631DOD     C193712  24.105  23.316   0.559 -0.1676 -0.1497 -0.0753
16631DOD     C293713  24.457  23.121   0.257 -0.0512 -0.1721 -0.0050
16631DOD     C393714  24.907  23.029   0.182  0.4469  0.3132 -0.0453
16632DOD     C193715   0.920  29.982  27.773  0.0655  0.2578  0.1114
16632DOD     C293716   0.685   0.112  27.881 -0.4650  0.2981 -0.1708
16632DOD     C393717   0.651   0.521  27.642  0.0926  0.0605  0.1707
16633DOD     C193718   3.653  10.214  22.356  0.3530 -0.0205 -0.0085
16633DOD     C293719   3.540  10.066  22.806 -0.0252  0.0110  0.1302
16633DOD     C393720   3.321  10.081  23.205 -0.0337  0.0462 -0.0218
16634DOD     C193721   1.152  26.003  13.631  0.1674  0.0114  0.2123
16634DOD     C293722   1.466  26.204  13.868  0.1190 -0.2307  0.1644
16634DOD     C393723   1.904  26.249  13.975  0.3713 -0.1739 -0.3649
16635DOD     C193724   1.509  14.857  14.207  0.1405  0.1261  0.2645
16635DOD     C293725   1.135  14.725  14.425 -0.0890  0.2789 -0.2466
16635DOD     C393726   0.662  14.676  14.493 -0.3657 -0.0230  0.0374
16636DOD     C193727  18.534  20.427   4.032  0.0435  0.0486  0.0880
16636DOD     C293728  18.122  20.148   3.980 -0.1380 -0.2945 -0.0576
16636DOD     C393729  17.701  20.231   4.004  0.2057 -0.0679  0.0939
16637DOD     C193730  29.071   3.655   7.811 -0.0684 -0.0927 -0.1660
16637DOD     C293731  29.312   3.414   7.502  0.0927  0.1360  0.1976
16637DOD     C393732  29.347   3.001   7.298  0.4424 -0.2625  0.2594
16638DOD     C193733  12.755  12.501  28.493 -0.1370 -0.4070 -0.2595
16638DOD     C293734  13.098  12.730  28.645  0.1537  0.2925  0.1013
16638DOD     C393735  13.161  12.585  29.042  0.1286 -0.1052 -0.0457
16639DOD     C193736  28.895  23.796  26.627 -0.1628 -0.0344  0.3775
16639DOD     C293737  28.991  24.129  26.326  0.1610 -0.0126 -0.0674
16639DOD     C393738  28.929  24.483  26.082  0.1250 -0.0316 -0.0601
16640DOD     C193739  17.174  27.815  13.631 -0.2681 -0.0502 -0.3213
16640DOD     C293740  17.011  27.672  14.036  0.1457 -0.2585 -0.2349
16640DOD     C393741  16.801  27.475  14.465  0.1761  0.1069 -0.0397
16641DOD     C193742   7.512  18.213  21.210 -0.2654  0.0307  0.1110
16641DOD     C293743   7.728  18.285  21.647 -0.2638 -0.2394  0.2403
16641DOD     C393744   7.746  17.957  22.028  0.1637 -0.2109  0.0616
16642DOD     C193745   2.653  22.053   7.500 -0.2118  0.3226 -0.1534
16642DOD     C293746   2.774  22.435   7.782  0.2268  0.0022  0.1430
16642DOD     C393747   3.131  22.656   8.003 -0.0326 -0.2380 -0.3593
16643DOD     C193748   2.382   4.170  29.072  0.0190 -0.2043 -0.0621
16643DOD     C293749   2.278   4.483  29.412  0.2843  0.0627 -0.0913
16643DOD     C393750   2.194   4.696  29.846 -0.0665  0.0156 -0.2086
16644DOD     C193751  25.147  19.764  21.444  0.0566 -0.1504 -0.2290
16644DOD     C293752  25.026  19.620  21.880 -0.0961 -0.3465  0.3124
16644DOD     C393753  24.724  19.267  21.887 -0.0320 -0.0842 -0.1540
16645DOD     C193754  27.592  21.737  21.302 -0.2620  0.2829 -0.0547
16645DOD     C293755  27.765  21.554  20.870 -0.0917 -0.0184  0.2822
16645DOD     C393756  27.991  21.306  20.493 -0.1135  0.2661 -0.2465
16646DOD     C193757  28.953   9.484  21.343  0.0351 -0.2606  0.0845
16646DOD     C293758  28.769   9.136  21.078 -0.2150 -0.2356  0.1105
16646DOD     C393759  28.460   8.830  20.992 -0.0377  0.0650 -0.0678
16647DOD     C193760  27.457   0.471  28.254 -0.1076 -0.3281  0.0201
16647DOD     C293761  27.643   0.477  28.688  0.3607  0.2497  0.1375
16647DOD     C393762  27.791   0.464  29.108  0.0091  0.2359 -0.0448
16648DOD     C193763   0.967   2.913  21.188  0.0271  0.0468 -0.1809
16648DOD     C293764   1.304   2.955  20.948 -0.3839 -0.2583 -0.1822
16648DOD     C393765   1.408   3.229  20.547 -0.1026  0.0410  0.1760
16649DOD     C193766   6.443  13.085   0.688 -0.1625  0.2960 -0.0459
16649DOD     C293767   6.127  12.834   0.382 -0.0277  0.0092  0.0186
16649DOD     C393768   5.825  12.775  -0.006  0.1815 -0.0088 -0.1776
16650DOD     C193769  12.038   1.756   2.793  0.1258 -0.0735  0.0808
16650DOD     C293770  12.331   2.112   2.864 -0.2264  0.0539  0.3471
16650DOD     C393771  12.767   2.075   2.922 -0.0460  0.1555  0.0219
16651DOD     C193772   1.661  19.621  21.331 -0.1159  0.0633  0.1540
16651DOD     C293773   1.490  19.568  21.757  0.0740 -0.2469 -0.0750
16651DOD     C393774   1.179  19.609  22.050 -0.0193 -0.2926 -0.0579
16652DOD     C193775  13.427  27.401  30.326  0.2529 -0.0421  0.0596
16652DOD     C293776  13.598  27.842  30.255  0.0264  0.1100 -0.0047
16652DOD     C393777  13.510  28.293   0.055  0.0472 -0.0571 -0.1997
16653DOD     C193778  24.376  23.892   7.196 -0.0590  0.0805  0.0300
16653DOD     C293779  24.400  24.310   6.949  0.0702 -0.0251 -0.3397
16653DOD     C393780  24.594  24.706   7.163  0.0613 -0.0413 -0.1073
16654DOD     C193781  16.026   2.944   5.791 -0.2957 -0.3130 -0.1837
16654DOD     C293782  16.256   3.283   5.961 -0.0231  0.1694 -0.1897
16654DOD     C393783  16.455   3.688   6.038 -0.0960  0.2269 -0.0621
16655DOD     C193784   8.748   6.346  11.896  0.3140 -0.2289 -0.0221
16655DOD     C293785   9.022   6.025  11.785  0.0752  0.0402  0.1531
16655DOD     C393786   9.415   5.850  11.809  0.1956  0.0981  0.3270
16656DOD     C193787  10.294  20.123  18.656 -0.0903 -0.1318 -0.1463
16656DOD     C293788  10.382  20.543  18.868 -0.2092 -0.1360  0.1431
16656DOD     C393789  10.698  20.857  18.747  0.1411 -0.1342  0.0356
16657DOD     C193790   4.301  19.229   3.952 -0.2389  0.2464  0.0918
16657DOD     C293791   4.411  18.887   4.272 -0.0722 -0.2972 -0.1335
16657DOD     C393792   4.647  18.537   4.217  0.2098  0.1084 -0.1589
16658DOD     C193793  19.102  15.573   3.380 -0.1237 -0.2370 -0.0790
16658DOD     C293794  19.053  16.008   3.325  0.2446  0.1197  0.1150
16658DOD     C393795  19.194  16.484   3.451  0.1148  0.0650 -0.1363
16659DOD     C193796  24.355  20.872   4.485 -0.2155  0.2305 -0.0139
16659DOD     C293797  24.710  20.695   4.247 -0.0489 -0.3366  0.0680
16659DOD     C393798  25.070  20.552   4.005  0.3089 -0.1189  0.2229
16660DOD     C193799  20.802  28.196  17.158 -0.3004  0.2667 -0.2955
16660DOD     C293800  21.031  28.575  17.358 -0.0377 -0.1591  0.0884
16660DOD     C393801  21.328  28.937  17.357  0.1820  0.2414  0.4197
16661DOD     C193802  23.552  25.160  20.639  0.0031 -0.1601 -0.3106
16661DOD     C293803  23.486  25.244  21.091 -0.1090  0.1615 -0.4060
16661DOD     C393804  23.069  25.363  21.188  0.1547  0.2253 -0.1582
16662DOD     C193805  27.900  16.440   2.962 -0.0570  0.0175 -0.4478
16662DOD     C293806  28.164  16.665   3.312  0.1846 -0.0554  0.1673
16662DOD     C393807  28.305  16.944   3.655  0.0219 -0.0998  0.0230
16663DOD     C193808   1.442  25.846   4.639  0.2050  0.3737 -0.0013
16663DOD     C293809   1.538  25.941   4.223  0.3770 -0.3068 -0.1764
16663DOD     C393810   1.706  26.156   3.892 -0.2342 -0.0881 -0.0075
16664DOD     C193811  22.143  30.132  27.781 -0.1027 -0.1270 -0.2349
16664DOD     C293812  22.506  29.924  27.760  0.1124  0.1046  0.0837
16664DOD     C393813  22.902  29.844  28.002  0.0173 -0.2984 -0.4305
16665DOD     C193814  11.596   4.692  30.181  0.2867  0.0639 -0.1061
16665DOD     C293815  11.273   4.969   0.055 -0.0466  0.0631  0.0844
16665DOD     C393816  11.260   5.236   0.418 -0.1974  0.2402  0.3840
16666DOD     C193817  15.348   3.939  23.607  0.1380 -0.0708 -0.0990
16666DOD     C293818  15.079   3.503  23.549 -0.2389 -0.2320 -0.2236
16666DOD     C393819  15.254   3.120  23.430  0.2317  0.2264  0.2206
16667DOD     C193820  26.948  22.925   4.754  0.0644 -0.3579 -0.2728
16667DOD     C293821  27.259  22.959   5.109 -0.1484  0.0078 -0.2990
16667DOD     C393822  27.713  23.005   4.977  0.2700  0.2245 -0.2764
16668DOD     C193823  12.185  15.403   9.161  0.1086 -0.1932  0.1937
16668DOD     C293824  12.183  15.435   9.612 -0.0081 -0.2187 -0.0878
16668DOD     C393825  12.252  15.738   9.855 -0.3024 -0.3775  0.0720
16669DOD     C193826   6.537  14.840   2.354  0.3058 -0.0026  0.0232
16669DOD     C293827   6.632  15.148   2.014  0.2342  0.1537 -0.2830
16669DOD     C393828   6.376  15.174   1.599 -0.0595 -0.0178 -0.0388
16670DOD     C193829  26.818  22.661   9.581 -0.2623  0.0969 -0.2715
16670DOD     C293830  26.511  22.939   9.747  0.0516  0.2868 -0.1948
16670DOD     C393831  26.126  23.104   9.899 -0.1930  0.2106 -0.0338
16671DOD     C193832  11.430  18.424  22.208  0.0933 -0.1282 -0.4264
16671DOD     C293833  11.464  18.870  22.323  0.0325  0.0402 -0.1147
16671DOD     C393834  11.298  19.257  22.100 -0.0256  0.0910  0.2932
16672DOD     C193835   3.380   5.236  18.734  0.2134 -0.0103  0.2191
16672DOD     C293836   2.938   5.066  18.718  0.3954 -0.3315 -0.0009
16672DOD     C393837   2.689   4.693  18.838  0.1528  0.1071 -0.2182
16673DOD     C193838  14.056  21.448  23.281  0.0188  0.2049  0.0109
16673DOD     C293839  13.581  21.373  23.267 -0.0392 -0.1602  0.2060
16673DOD     C393840  13.227  21.340  23.018  0.1674  0.3628 -0.0912
16674DOD     C193841  26.760   7.202  21.161  0.1416  0.0201 -0.0266
16674DOD     C293842  26.612   7.660  21.273 -0.2642  0.0889 -0.1989
16674DOD     C393843  26.279   7.908  21.347  0.0310 -0.0258  0.1912
16675DOD     C193844  13.248  26.629   9.728  0.1075 -0.0790  0.2570
16675DOD     C293845  12.910  26.776  10.027 -0.1200  0.1648 -0.1974
16675DOD     C393846  12.614  26.838  10.429 -0.2013 -0.1668  0.0733
16676DOD     C193847  22.493   6.073  30.003  0.2148  0.1241  0.1043
16676DOD     C293848  22.373   6.059   0.133  0.1030 -0.0794 -0.0332
16676DOD     C393849  22.171   6.383   0.437 -0.2123  0.0949  0.0404
16677DOD     C193850  30.219  24.940  17.760 -0.2321  0.0450 -0.2126
16677DOD     C293851   0.212  25.084  17.425 -0.0708 -0.1631 -0.2700
16677DOD     C393852   0.343  25.213  16.981 -0.2009 -0.0824 -0.0091
16678DOD     C193853  24.815   3.503  21.656  0.3319 -0.0725  0.0305
16678DOD     C293854  24.411   3.511  21.921 -0.2671 -0.2104  0.0493
16678DOD     C393855  24.019   3.354  21.785 -0.0729 -0.1299  0.2352
16679DOD     C193856  19.833   9.721   8.583 -0.1146  0.2425 -0.0729
16679DOD     C293857  19.953   9.930   8.170  0.2876  0.1975 -0.0132
16679DOD     C393858  20.275  10.158   7.892  0.0767  0.2492  0.2891
16680DOD     C193859  25.787  19.157  16.286 -0.2575  0.2126 -0.2087
16680DOD     C293860  26.172  19.113  16.051  0.2054 -0.2013 -0.1827
16680DOD     C393861  26.628  19.159  15.996 -0.1496 -0.1727 -0.0156
16681DOD     C193862  10.652  15.114  28.293 -0.1143  0.2141 -0.2347
16681DOD     C293863  10.464  15.246  28.711 -0.0112  0.0597 -0.0371
16681DOD     C393864  10.373  15.353  29.138  0.2918 -0.1538  0.0494
16682DOD     C193865   0.844  16.698  12.144 -0.1861 -0.1746  0.0820
16682DOD     C293866   1.245  16.452  12.186  0.3195  0.1814  0.2903
16682DOD     C393867   1.377  16.033  12.408  0.0224  0.0443 -0.1743
16683DOD     C193868   2.925   9.088   4.095  0.0155  0.2856  0.1950
16683DOD     C293869   3.407   8.986   4.110  0.2211 -0.3643 -0.0896
16683DOD     C393870   3.815   9.162   4.024  0.0011 -0.2868 -0.1180
16684DOD     C193871  27.373  11.758   0.653  0.0874  0.0940 -0.0056
16684DOD     C293872  27.622  12.037   0.400  0.0926  0.2779  0.0481
16684DOD     C393873  27.473  12.438   0.208  0.2046 -0.2851 -0.1126
16685DOD     C193874  18.557  15.426  27.629  0.3007 -0.2315 -0.1104
16685DOD     C293875  18.085  15.529  27.482 -0.1503  0.0730  0.1577
16685DOD     C393876  17.793  15.723  27.183  0.5511 -0.3007  0.0457
16686DOD     C193877  18.480  23.414   8.406 -0.0440 -0.0299  0.1034
16686DOD     C293878  18.882  23.379   8.105 -0.0695 -0.0233  0.1273
16686DOD     C393879  19.127  23.752   8.093 -0.0128 -0.3173  0.2039
16687DOD     C193880  15.600  12.367  23.785  0.2638 -0.1920 -0.0060
16687DOD     C293881  15.732  12.631  24.194  0.0088  0.1355  0.3664
16687DOD     C393882  16.129  12.980  24.116 -0.0736 -0.2918 -0.0423
16688DOD     C193883   2.937  29.535   8.875  0.2505  0.0296  0.3293
16688DOD     C293884   3.303  29.584   8.579  0.2086  0.2585  0.0329
16688DOD     C393885   3.666  29.586   8.278 -0.4149  0.2996 -0.1504
16689DOD     C193886  28.700  25.684  29.099 -0.2211  0.0515  0.2344
16689DOD     C293887  28.638  26.074  28.813 -0.2176 -0.1249 -0.0000
16689DOD     C393888  28.370  26.449  28.676  0.1177  0.2162  0.0209
16690DOD     C193889   0.178  22.549  28.412 -0.2213  0.1103  0.2198
16690DOD     C293890   0.446  22.199  28.298 -0.1231  0.0807  0.1689
16690DOD     C393891   0.550  21.744  28.310  0.1747 -0.2997 -0.1681
16691DOD     C193892   6.207   6.554   2.136 -0.2491  0.0847  0.2107
16691DOD     C293893   5.991   6.289   1.754 -0.2251 -0.1687 -0.2107
16691DOD     C393894   5.737   6.213   1.299 -0.0198  0.1133  0.1088
16692DOD     C193895  13.710  17.644   8.831  0.1532  0.3202  0.2062
16692DOD     C293896  13.890  18.010   9.055 -0.0547 -0.0451 -0.3644
16692DOD     C393897  14.300  18.281   9.005 -0.1197  0.1652 -0.0013
16693DOD     C193898  16.538  18.579   3.122 -0.1042 -0.1009  0.2559
16693DOD     C293899  16.143  18.539   2.883  0.3473 -0.2909 -0.1019
16693DOD     C393900  16.019  18.561   2.414 -0.0330 -0.0806  0.1621
16694DOD     C193901   2.622  24.959  29.468 -0.2706 -0.1811  0.5397
16694DOD     C293902   2.292  24.998  29.802  0.2411 -0.1129 -0.2198
16694DOD     C393903   2.014  25.029  30.112  0.2374  0.3920  0.2963
16695DOD     C193904   0.035   3.575  16.752 -0.0706  0.3430 -0.0051
16695DOD     C293905  30.094   3.475  17.110 -0.0529  0.0012 -0.4188
16695DOD     C393906  30.139   3.269  17.507 -0.1276 -0.1422  0.0035
16696DOD     C193907  13.140  16.404  15.015  0.0910 -0.0229 -0.2411
16696DOD     C293908  13.188  16.073  15.400 -0.2991 -0.0654  0.1118
16696DOD     C393909  13.198  15.814  15.734 -0.0773  0.0565 -0.0230
16697DOD     C193910  24.036  23.818   6.059 -0.1222  0.1173  0.0943
16697DOD     C293911  24.006  23.848   6.527  0.0158 -0.2506  0.1281
16697DOD     C393912  23.923  24.071   6.905 -0.0280  0.2595  0.1239
16698DOD     C193913  11.133   3.313   2.398  0.0535  0.1490 -0.1289
16698DOD     C293914  11.335   3.176   2.030 -0.1410  0.1260 -0.1384
16698DOD     C393915  11.315   2.873   1.713  0.1036 -0.1316 -0.0399
16699DOD     C193916  18.577  23.649  24.619 -0.1355 -0.0118 -0.0333
16699DOD     C293917  18.195  23.817  24.418  0.1143 -0.1919 -0.3267
16699DOD     C393918  17.963  23.632  24.103 -0.0399 -0.2558 -0.0180
16700DOD     C193919   4.682  10.215  24.509 -0.1807  0.1411  0.2558
16700DOD     C293920   4.880  10.621  24.271 -0.0434  0.1710 -0.0953
16700DOD     C393921   4.716  11.040  24.161 -0.2362 -0.1613  0.0513
16701DOD     C193922   4.114  12.934  13.907 -0.1702 -0.1373 -0.3150
16701DOD     C293923   3.932  13.287  13.650  0.1598 -0.0570 -0.0454
16701DOD     C393924   3.971  13.290  13.164 -0.0360  0.1858 -0.0025
16702DOD     C193925  19.033  15.973  23.638 -0.2483 -0.0540  0.0510
16702DOD     C293926  18.924  15.977  24.134 -0.1667  0.2384 -0.0060
16702DOD     C393927  18.881  15.918  24.573 -0.0971 -0.2293 -0.1248
16703DOD     C193928  29.654   7.647  12.799 -0.0390  0.2338 -0.2577
16703DOD     C293929  29.864   7.487  12.427  0.1204 -0.1970 -0.1130
16703DOD     C393930  30.155   7.189  12.153 -0.1277 -0.4755  0.0534
16704DOD     C193931   2.140  13.162  18.578  0.2534 -0.0555  0.1504
16704DOD     C293932   1.919  13.299  18.226  0.3138 -0.0451 -0.1115
16704DOD     C393933   1.581  13.355  17.936  0.0346  0.0298  0.2121
16705DOD     C193934  22.212   9.750   1.510 -0.0325 -0.0645  0.2632
16705DOD     C293935  22.260   9.665   1.913  0.2643  0.2000 -0.1844
16705DOD     C393936  22.145   9.683   2.367  0.1558 -0.0883 -0.1726
16706DOD     C193937   7.347   4.393  29.397  0.0400 -0.0934  0.0527
16706DOD     C293938   7.000   4.177  29.215  0.0109 -0.0954 -0.1244
16706DOD     C393939   6.641   4.455  29.097 -0.0873 -0.0307  0.1429
16707DOD     C193940  15.894   2.582   1.336 -0.0314 -0.1403 -0.1855
16707DOD     C293941  15.890   2.192   1.064 -0.0718 -0.1386 -0.1224
16707DOD     C393942  16.003   1.913   0.787  0.0281 -0.0219 -0.1688
16708DOD     C193943   6.794  26.459  15.618 -0.3127  0.1770 -0.1877
16708DOD     C293944   6.817  25.975  15.592  0.0205 -0.0879  0.0447
16708DOD     C393945   6.898  25.517  15.584 -0.1789 -0.1275 -0.0876
16709DOD     C193946  14.715   7.743   4.390 -0.2812  0.0138 -0.0186
16709DOD     C293947  14.808   7.436   4.090 -0.0634  0.3703  0.0189
16709DOD     C393948  14.856   7.344   3.654 -0.1947  0.1039 -0.1413
16710DOD     C193949   1.813  18.189  13.874  0.2419  0.1116  0.0786
16710DOD     C293950   1.653  18.466  13.575 -0.1646 -0.1519  0.1176
16710DOD     C393951   1.334  18.754  13.444 -0.0716  0.1591  0.0732
16711DOD     C193952  10.268  27.888  24.225 -0.0066  0.1550  0.1238
16711DOD     C293953   9.911  28.263  24.184 -0.1954 -0.3299  0.0405
16711DOD     C393954   9.608  28.349  23.840  0.0117  0.0658 -0.2599
16712DOD     C193955  21.575  10.338   7.846 -0.3455  0.1189  0.0225
16712DOD     C293956  21.201  10.177   7.617 -0.2252 -0.1581 -0.1743
16712DOD     C393957  20.745  10.150   7.559 -0.2017 -0.2227  0.0145
16713DOD     C193958  -0.016  30.153  25.507 -0.1672 -0.3759 -0.1010
16713DOD     C293959   0.102   0.220  25.817  0.2702  0.0214  0.0688
16713DOD     C393960   0.340   0.387  26.162  0.3958  0.2739 -0.1570
16714DOD     C193961   1.520  12.748   2.389 -0.4890  0.0812 -0.0641
16714DOD     C293962   1.601  12.411   2.054 -0.0779 -0.0183 -0.1995
16714DOD     C393963   2.006  12.235   1.794 -0.0103 -0.1187 -0.3245
16715DOD     C193964  12.442  15.623   1.990 -0.0964  0.1750 -0.2532
16715DOD     C293965  12.197  15.516   2.372 -0.0803 -0.1179  0.2296
16715DOD     C393966  12.027  15.112   2.510 -0.0411 -0.0545 -0.0843
16716DOD     C193967   4.189   8.221   6.709 -0.3984  0.3070  0.0865
16716DOD     C293968   4.590   8.305   6.465  0.3797 -0.3450  0.2519
16716DOD     C393969   5.025   8.383   6.357  0.0928 -0.2416 -0.3239
16717DOD     C193970  21.572  20.358   3.500  0.4761 -0.2409  0.0477
16717DOD     C293971  21.532  20.742   3.815 -0.1331  0.0123  0.3382
16717DOD     C393972  21.082  20.898   3.968 -0.1968  0.0122  0.4250
16718DOD     C193973   4.792   2.932  25.784 -0.3109 -0.0147 -0.0637
16718DOD     C293974   4.571   3.241  25.602  0.0174  0.2182 -0.2228
16718DOD     C393975   4.255   3.386  25.293  0.0554  0.2243 -0.2576
16719DOD     C193976   0.760  23.073   3.937  0.2330  0.3025 -0.0139
16719DOD     C293977   1.010  23.319   4.173  0.1553  0.1275 -0.3025
16719DOD     C393978   1.298  23.663   4.295  0.0335  0.1688 -0.1631
16720DOD     C193979  26.988   9.048   1.424  0.1142 -0.1586  0.3278
16720DOD     C293980  26.552   8.848   1.423 -0.0566 -0.2223 -0.0218
16720DOD     C393981  26.364   8.397   1.569  0.2507  0.3092 -0.2549
16721DOD     C193982  20.216  14.544  24.115 -0.1735  0.1010  0.1309
16721DOD     C293983  19.852  14.338  24.170  0.2585  0.0918 -0.0024
16721DOD     C393984  19.513  14.068  24.331  0.0397  0.3243 -0.0125
16722DOD     C193985   5.750  12.386  21.018 -0.0567 -0.0771  0.3394
16722DOD     C293986   5.861  12.026  20.710 -0.0252 -0.0903  0.1952
16722DOD     C393987   5.938  11.595  20.531  0.0647  0.1576  0.4316
16723DOD     C193988  14.183  14.485  12.866 -0.0221  0.1450  0.1608
16723DOD     C293989  14.208  14.107  12.734 -0.2043  0.2948 -0.1361
16723DOD     C393990  14.250  13.602  12.819  0.1089 -0.3029 -0.0547
16724DOD     C193991  25.157  12.579  26.037 -0.0552  0.3425 -0.0065
16724DOD     C293992  24.907  12.272  26.281  0.0894 -0.0547  0.1265
16724DOD     C393993  24.578  12.278  26.629  0.0769  0.0056 -0.0602
16725DOD     C193994  24.518  13.453  15.350 -0.3739  0.2078  0.2271
16725DOD     C293995  24.351  13.120  15.618 -0.0747 -0.2179 -0.0063
16725DOD     C393996  24.143  12.704  15.703 -0.0392 -0.0011 -0.0952
16726DOD     C193997  24.725  12.468   7.621  0.1214 -0.1068 -0.1784
16726DOD     C293998  25.015  12.867   7.612 -0.3886 -0.1313  0.0167
16726DOD     C393999  25.389  13.082   7.819 -0.2757  0.5107  0.1495
16727DOD     C194000  12.257   9.860  11.551  0.0367 -0.0438  0.2159
16727DOD     C294001  12.469   9.936  11.124 -0.0148 -0.3852  0.1447
16727DOD     C394002  12.582  10.379  10.973 -0.2427 -0.1095 -0.2256
16728DOD     C194003  24.924   0.381  29.379 -0.0479  0.1505 -0.5123
16728DOD     C294004  24.679   0.595  29.727  0.3927 -0.1947  0.1595
16728DOD     C394005  24.314   0.743  29.920  0.1509  0.0937  0.3161
16729DOD     C194006  24.676   5.085   3.907  0.3593 -0.2309 -0.0166
16729DOD     C294007  24.232   5.043   3.859  0.1432  0.0569  0.0219
16729DOD     C394008  23.969   4.730   3.612  0.1269  0.0173  0.1746
16730DOD     C194009   7.050  18.078   1.319 -0.1636  0.0488 -0.0016
16730DOD     C294010   7.202  17.706   1.546 -0.1026  0.0839  0.1204
16730DOD     C394011   7.271  17.266   1.746 -0.1291 -0.2547  0.0081
16731DOD     C194012  27.610  20.258  16.105 -0.0278  0.1138  0.0759
16731DOD     C294013  27.800  19.930  15.808  0.0938 -0.0858  0.4706
16731DOD     C394014  28.009  19.683  15.468 -0.2199  0.0642 -0.0730
16732DOD     C194015  20.129  25.308  22.295  0.0571  0.1625 -0.2977
16732DOD     C294016  19.700  25.415  22.320  0.2529  0.1370 -0.1561
16732DOD     C394017  19.345  25.657  22.573  0.1884 -0.1766 -0.0114
16733DOD     C194018  12.089  28.364  18.611 -0.0979  0.0593 -0.1522
16733DOD     C294019  12.310  28.029  18.919  0.0437 -0.2348  0.0888
16733DOD     C394020  12.438  27.575  18.854 -0.0392  0.1839 -0.1843
16734DOD     C194021   0.717  18.910  20.998  0.0398  0.1353 -0.1463
16734DOD     C294022   0.370  18.634  20.842  0.2191  0.2364 -0.2184
16734DOD     C394023   0.111  18.294  20.709  0.1246 -0.0639  0.1226
16735DOD     C194024  12.568  22.640  20.996 -0.1326 -0.0614 -0.0780
16735DOD     C294025  12.266  22.689  21.329 -0.1491  0.3077 -0.1442
16735DOD     C394026  11.887  22.757  21.580  0.0338 -0.1616  0.1246
16736DOD     C194027  29.535  28.240  27.511  0.0285  0.1103  0.1617
16736DOD     C294028  29.999  28.107  27.617 -0.0052 -0.0367 -0.0384
16736DOD     C394029  30.254  28.045  27.281 -0.1305 -0.3108  0.1223
16737DOD     C194030  27.741  17.175  14.409  0.1393 -0.0150  0.2054
16737DOD     C294031  27.903  17.393  14.817 -0.2344 -0.5439  0.2947
16737DOD     C394032  28.255  17.355  15.162 -0.0440 -0.0360 -0.0831
16738DOD     C194033  16.177  20.899  10.478 -0.3244 -0.0348 -0.0950
16738DOD     C294034  16.484  20.600  10.652 -0.1564  0.0613 -0.0542
16738DOD     C394035  16.870  20.338  10.717  0.0989 -0.0499  0.0713
16739DOD     C194036  21.228  17.721  26.615 -0.2314 -0.4516  0.1542
16739DOD     C294037  20.864  17.984  26.442  0.3715  0.2874  0.2733
16739DOD     C394038  20.649  18.398  26.528  0.0535  0.0515 -0.1168
16740DOD     C194039   0.241  13.792  26.177 -0.0403 -0.2078 -0.0963
16740DOD     C294040  30.226  13.795  26.513 -0.1123  0.0492  0.0074
16740DOD     C394041  29.851  14.091  26.666  0.0722 -0.0504 -0.0823
16741DOD     C194042   7.641  16.195  12.003  0.2253 -0.1315 -0.1635
16741DOD     C294043   7.934  16.043  11.675  0.3880  0.3728 -0.2636
16741DOD     C394044   8.259  15.968  11.336 -0.1161 -0.2227 -0.4225
16742DOD     C194045   0.954  17.785  12.178 -0.0685  0.0507  0.0399
16742DOD     C294046   0.684  18.202  12.262 -0.1350  0.0684 -0.0943
16742DOD     C394047   0.607  18.507  11.952  0.0667  0.2541  0.1645
16743DOD     C194048   7.516   4.808  21.800 -0.0272  0.0147 -0.0376
16743DOD     C294049   7.444   5.186  21.536  0.1909  0.2461  0.1626
16743DOD     C394050   7.567   5.283  21.056  0.1178  0.0509  0.0886
16744DOD     C194051  15.061   4.031   7.258  0.1112  0.0012  0.0546
16744DOD     C294052  14.587   3.924   7.181 -0.3664 -0.2388  0.2592
16744DOD     C394053  14.126   3.801   7.273  0.1447 -0.1362 -0.1528
16745DOD     C194054  13.295   6.670   1.152 -0.1815 -0.0557 -0.3173
16745DOD     C294055  13.044   6.682   0.784  0.0099 -0.1725 -0.4894
16745DOD     C394056  12.956   6.689   0.372  0.2633 -0.3216  0.1461
16746DOD     C194057  24.928   1.131   9.589  0.1091  0.4775  0.0033
16746DOD     C294058  25.145   1.061   9.164 -0.1926  0.2066  0.0934
16746DOD     C394059  25.411   0.765   8.861  0.1871  0.3698  0.0488
16747DOD     C194060   7.374  17.472  13.999  0.0289  0.0437 -0.1104
16747DOD     C294061   6.936  17.471  13.776 -0.1361  0.0672  0.2694
16747DOD     C394062   6.704  17.924  13.699 -0.3066 -0.3628 -0.5011
16748DOD     C194063  21.299   3.142  14.656 -0.1666  0.0779  0.0760
16748DOD     C294064  21.406   3.358  14.229  0.0472  0.0333  0.1665
16748DOD     C394065  21.368   3.607  13.816  0.2648 -0.3326  0.0059
16749DOD     C194066   8.494   0.487   8.154  0.0280  0.0463 -0.0381
16749DOD     C294067   8.274   0.320   7.781  0.3033 -0.0543  0.1277
16749DOD     C394068   8.509   0.060   7.421  0.1099 -0.2120 -0.1055
16750DOD     C194069   4.087  24.505   6.916  0.2152 -0.3481 -0.1081
16750DOD     C294070   3.745  24.518   7.209 -0.0006  0.2882  0.1915
16750DOD     C394071   3.519  24.619   7.576  0.0334  0.0698 -0.1379
16751DOD     C194072  20.377  16.227  23.841  0.1769 -0.0434 -0.1363
16751DOD     C294073  20.395  16.434  23.423  0.3391  0.0856 -0.1082
16751DOD     C394074  20.514  16.823  23.133  0.0276  0.0986  0.0281
16752DOD     C194075  24.732  21.381  28.898  0.1221 -0.2550 -0.0364
16752DOD     C294076  24.747  21.566  28.500  0.0862  0.0270  0.4076
16752DOD     C394077  24.767  21.887  28.153  0.1403  0.1380  0.0147
16753DOD     C194078  11.899  17.594  14.219  0.2220 -0.0938 -0.2898
16753DOD     C294079  11.444  17.441  14.312 -0.0187 -0.0208  0.2512
16753DOD     C394080  11.000  17.528  14.181 -0.5297 -0.1341 -0.1668
16754DOD     C194081  12.242  28.567  11.445  0.1921 -0.3302 -0.0002
16754DOD     C294082  11.771  28.436  11.503 -0.0665  0.3108 -0.0001
16754DOD     C394083  11.350  28.646  11.591  0.0184 -0.1473  0.2773
16755DOD     C194084  20.603  29.698  16.708 -0.2239 -0.0731 -0.0258
16755DOD     C294085  20.949  29.951  16.823  0.2113 -0.2143  0.0694
16755DOD     C394086  21.377  29.906  16.814 -0.1888 -0.2753  0.1436
16756DOD     C194087   0.152  14.491  13.675 -0.1228  0.1288  0.0890
16756DOD     C294088  30.168  14.441  13.910  0.3096  0.0071 -0.1376
16756DOD     C394089  29.697  14.374  14.074  0.1333 -0.1232 -0.2350
16757DOD     C194090  20.879   9.707  24.479  0.0802 -0.1932  0.0591
16757DOD     C294091  20.717   9.485  24.043 -0.0162 -0.0923 -0.0074
16757DOD     C394092  20.538   9.211  23.744  0.1304  0.2837 -0.1869
16758DOD     C194093  26.757  21.215   3.572 -0.0976  0.0035  0.0173
16758DOD     C294094  26.899  20.872   3.857  0.2815  0.2112  0.2361
16758DOD     C394095  26.764  20.465   4.038  0.1954  0.0800  0.0698
16759DOD     C194096  11.360  13.518  14.156 -0.0114  0.1498  0.0760
16759DOD     C294097  11.706  13.711  13.997 -0.0177 -0.3348  0.0604
16759DOD     C394098  11.917  13.919  13.632 -0.1998 -0.0057  0.2435
16760DOD     C194099   9.526  10.188   8.000 -0.1044  0.1412 -0.0556
16760DOD     C294100   9.544  10.533   7.650  0.2525  0.0454  0.2184
16760DOD     C394101   9.580  10.646   7.238  0.0060 -0.0956  0.2849
16761DOD     C194102  13.150  24.324  27.334 -0.2536 -0.2624 -0.0011
16761DOD     C294103  12.743  24.193  27.111 -0.0065 -0.3562  0.2014
16761DOD     C394104  12.489  24.095  26.770  0.2709  0.1946 -0.0053
16762DOD     C194105  10.305  29.114   0.597 -0.3056 -0.1814  0.2542
16762DOD     C294106  10.175  29.285   1.055  0.0249  0.3314  0.3899
16762DOD     C394107  10.205  29.526   1.443 -0.0347  0.0558  0.1217
16763DOD     C194108  29.525  16.230  23.878  0.1618 -0.5012 -0.0616
16763DOD     C294109  29.478  15.748  23.817  0.1142 -0.0300  0.0373
16763DOD     C394110  29.651  15.384  23.520  0.0711 -0.1289 -0.1275
16764DOD     C194111   3.984   6.342  19.335  0.0931  0.2209  0.2496
16764DOD     C294112   3.688   6.259  18.983 -0.2308  0.1838 -0.2156
16764DOD     C394113   3.725   6.452  18.529  0.3209  0.1010 -0.3427
16765DOD     C194114  13.371  17.033  15.605  0.0688  0.0370  0.2500
16765DOD     C294115  12.894  17.025  15.563  0.2004 -0.3121  0.2194
16765DOD     C394116  12.482  17.168  15.305  0.1186  0.1880 -0.0984
16766DOD     C194117   2.691  27.940  30.210  0.1655  0.0212  0.1890
16766DOD     C294118   2.379  28.149   0.134 -0.1705  0.0329 -0.1627
16766DOD     C394119   1.913  28.257   0.033 -0.1932 -0.1358  0.0748
16767DOD     C194120   9.394  21.029  15.029  0.1778 -0.0229 -0.1402
16767DOD     C294121   9.837  21.198  15.111 -0.0168  0.0410 -0.1194
16767DOD     C394122  10.249  21.281  15.034 -0.1439  0.1461 -0.3079
16768DOD     C194123  26.482  23.787   8.341 -0.1130 -0.1721 -0.4012
16768DOD     C294124  26.608  23.372   8.583  0.0080 -0.0713 -0.2176
16768DOD     C394125  26.691  22.894   8.703  0.1157 -0.1366 -0.2451
16769DOD     C194126  14.478  19.208  29.981  0.0841  0.1394 -0.0990
16769DOD     C294127  14.126  18.989  30.169 -0.1821  0.3419 -0.0273
16769DOD     C394128  13.842  18.770   0.203 -0.4162 -0.0874  0.3097
16770DOD     C194129  10.393  17.048   4.586  0.1695  0.1685 -0.2179
16770DOD     C294130  10.493  16.716   4.195 -0.0948  0.0080  0.0257
16770DOD     C394131  10.346  16.313   3.892  0.0949 -0.3461  0.3266
16771DOD     C194132  16.473   1.292  18.854 -0.1173  0.1320 -0.2778
16771DOD     C294133  16.695   1.687  18.757  0.0094  0.0288  0.1776
16771DOD     C394134  16.735   2.108  18.541  0.0550 -0.2286  0.1454
16772DOD     C194135   3.660   7.342  24.413 -0.1134 -0.1501 -0.2703
16772DOD     C294136   3.218   7.260  24.425 -0.1135  0.1599  0.0013
16772DOD     C394137   2.946   7.345  24.108  0.1754  0.0002  0.2036
16773DOD     C194138  19.456   5.680  14.060  0.2397 -0.1022  0.2537
16773DOD     C294139  19.090   5.770  14.237 -0.3392  0.1352  0.1195
16773DOD     C394140  18.814   5.721  14.615 -0.0564 -0.0211 -0.2936
16774DOD     C194141  10.788  10.172  17.725  0.1398 -0.0190 -0.0579
16774DOD     C294142  10.883  10.107  18.144  0.1168  0.3407  0.1732
16774DOD     C394143  10.830   9.741  18.445  0.1080 -0.4494 -0.3866
16775DOD     C194144  27.719  25.842  22.374  0.1251  0.0599 -0.2552
16775DOD     C294145  27.884  26.261  22.208 -0.2141  0.0382 -0.0597
16775DOD     C394146  28.149  26.569  21.926  0.2526  0.1034  0.2522
16776DOD     C194147   7.426  27.046   3.522 -0.0125  0.0613 -0.0529
16776DOD     C294148   6.982  26.759   3.485  0.0455  0.1197 -0.2025
16776DOD     C394149   6.777  26.335   3.562 -0.4830  0.2721  0.0239
16777DOD     C194150   8.250  13.783   8.480 -0.2040  0.1072 -0.0454
16777DOD     C294151   7.816  13.619   8.629  0.0448 -0.1046  0.2074
16777DOD     C394152   7.508  13.394   8.899  0.2160  0.0764 -0.1522
16778DOD     C194153  14.335  22.968   1.322 -0.1606 -0.1506 -0.1079
16778DOD     C294154  14.356  23.196   0.948  0.0327  0.1671 -0.0724
16778DOD     C394155  14.513  23.162   0.487  0.0347  0.0389  0.3108
16779DOD     C194156  14.262  26.127  10.970 -0.0847 -0.0335 -0.0697
16779DOD     C294157  13.900  25.820  10.947 -0.0695  0.2894  0.3261
16779DOD     C394158  13.687  25.444  11.182  0.1088 -0.0263 -0.0236
16780DOD     C194159  27.081  18.970  24.278 -0.2312  0.3326  0.0272
16780DOD     C294160  27.318  18.575  24.171 -0.2234 -0.0670  0.1335
16780DOD     C394161  27.747  18.358  24.092  0.2180 -0.1787 -0.1401
16781DOD     C194162  29.592  27.814   9.613 -0.1177 -0.1068  0.0958
16781DOD     C294163  29.584  28.013  10.038  0.2356  0.0058  0.0941
16781DOD     C394164  29.409  27.883  10.395 -0.0602 -0.2794  0.1474
16782DOD     C194165  22.574  14.566  11.051  0.1545 -0.0016 -0.2353
16782DOD     C294166  22.909  14.332  10.865 -0.1207  0.3014  0.0068
16782DOD     C394167  22.986  14.141  10.477  0.0542 -0.1505  0.1157
16783DOD     C194168   9.506  19.804  26.225 -0.0899  0.1377 -0.0767
16783DOD     C294169   9.577  20.225  26.348 -0.0907 -0.2635  0.1123
16783DOD     C394170   9.611  20.534  25.998 -0.4262 -0.0699  0.1745
16784DOD     C194171  28.506  28.371  22.944 -0.1195  0.1000 -0.3577
16784DOD     C294172  28.900  28.457  22.652 -0.1047 -0.2704 -0.1087
16784DOD     C394173  29.382  28.608  22.581  0.1544  0.1656 -0.0321
16785DOD     C194174  20.479   2.228   8.608 -0.1748 -0.1385  0.0513
16785DOD     C294175  20.770   1.915   8.583  0.0013 -0.0051  0.0718
16785DOD     C394176  20.920   1.495   8.599 -0.0056  0.1273 -0.3747
16786DOD     C194177  11.921  20.163   9.407 -0.0247 -0.1372  0.0630
16786DOD     C294178  11.868  20.579   9.405 -0.1642  0.1215  0.0872
16786DOD     C394179  12.217  20.743   9.115 -0.2372 -0.2449 -0.0651
16787DOD     C194180  21.790  22.249  11.117  0.2402 -0.1812  0.3488
16787DOD     C294181  22.063  22.633  10.966 -0.0572 -0.0960  0.0472
16787DOD     C394182  22.309  22.940  10.738  0.0305 -0.0267  0.2126
16788DOD     C194183  11.672  13.580   0.498 -0.1356 -0.0171  0.3464
16788DOD     C294184  11.351  13.271   0.357  0.0431 -0.1729 -0.2693
16788DOD     C394185  11.002  13.135   0.670 -0.0109 -0.0374 -0.1799
16789DOD     C194186   6.109  25.207   5.188  0.1635  0.0440 -0.1470
16789DOD     C294187   6.136  24.731   5.243  0.2066 -0.0384 -0.4203
16789DOD     C394188   6.104  24.391   5.523  0.0335 -0.1544  0.5005
16790DOD     C194189   2.631  17.858  15.325  0.1124  0.2377 -0.0953
16790DOD     C294190   2.319  18.057  15.571  0.1226 -0.1015  0.0219
16790DOD     C394191   1.867  17.954  15.672  0.0302 -0.0120 -0.1625
16791DOD     C194192  18.148  22.245  18.302 -0.1175  0.5284  0.0598
16791DOD     C294193  18.064  21.759  18.251  0.0351  0.1303 -0.2891
16791DOD     C394194  17.984  21.313  18.397 -0.0858 -0.3406  0.2634
16792DOD     C194195  21.292   4.485   3.687 -0.3975 -0.1543 -0.3259
16792DOD     C294196  21.443   4.054   3.472 -0.1335  0.0845 -0.0352
16792DOD     C394197  21.470   3.537   3.407  0.0167 -0.0713 -0.1069
16793DOD     C194198   8.246  27.541  21.449 -0.1105  0.3609  0.3009
16793DOD     C294199   8.320  27.354  21.896  0.2864  0.0829  0.0918
16793DOD     C394200   8.076  27.168  22.278 -0.0836 -0.0870 -0.1798
16794DOD     C194201  14.776   1.334   4.869 -0.0256  0.1412 -0.1292
16794DOD     C294202  15.040   1.028   4.579  0.1019 -0.1521 -0.1135
16794DOD     C394203  15.299   1.081   4.242 -0.2058 -0.3145 -0.0448
16795DOD     C194204   1.976  18.252   4.733  0.0499  0.1179 -0.0069
16795DOD     C294205   2.096  17.844   4.467 -0.0017 -0.1738  0.3465
16795DOD     C394206   2.374  17.517   4.638  0.0310  0.0394 -0.1225
16796DOD     C194207  14.498  25.088  30.241 -0.2633 -0.2831  0.2215
16796DOD     C294208  14.907  24.815  30.159 -0.2466 -0.1563 -0.1227
16796DOD     C394209  15.336  24.744  30.071 -0.0623 -0.0894 -0.0603
16797DOD     C194210   5.983   1.702  16.011 -0.1598  0.0479 -0.0403
16797DOD     C294211   6.019   1.245  16.035  0.4119 -0.0445 -0.4099
16797DOD     C394212   6.201   0.978  16.348  0.1649  0.2535  0.0287
16798DOD     C194213   5.631  19.681  24.199 -0.1579 -0.1100 -0.1719
16798DOD     C294214   5.202  19.634  24.412 -0.1618 -0.0349 -0.1020
16798DOD     C394215   5.027  19.219  24.355  0.2191  0.1347  0.1481
16799DOD     C194216  25.821  25.540   6.742  0.0861  0.0763 -0.0216
16799DOD     C294217  25.830  25.973   6.615  0.4324  0.1392 -0.1937
16799DOD     C394218  25.636  26.359   6.466  0.2705 -0.2650 -0.2181
16800DOD     C194219  11.644  22.259  13.496  0.3368  0.2981  0.2880
16800DOD     C294220  11.567  22.509  13.882  0.1887 -0.0116 -0.2588
16800DOD     C394221  11.745  22.634  14.313 -0.1115  0.1273 -0.1365
16801DOD     C194222   8.753   0.290  16.100 -0.0653  0.0413 -0.1391
16801DOD     C294223   8.902   0.351  16.527  0.2645  0.1179  0.0960
16801DOD     C394224   9.379   0.518  16.520 -0.0160 -0.1620 -0.0172
16802DOD     C194225  28.431  11.083  10.992 -0.1044  0.0550  0.1704
16802DOD     C294226  28.808  11.144  11.281  0.0532 -0.0159  0.1400
16802DOD     C394227  29.250  10.987  11.388  0.2712 -0.0421 -0.1750
16803DOD     C194228  12.325  18.139   7.649 -0.1885 -0.0407 -0.0160
16803DOD     C294229  12.351  17.724   7.455  0.3577 -0.3282  0.0596
16803DOD     C394230  12.699  17.511   7.199 -0.2368  0.0467  0.3101
16804DOD     C194231   9.750   9.040  30.192 -0.1713  0.0666 -0.1426
16804DOD     C294232   9.581   9.311   0.226  0.0340  0.3083 -0.0421
16804DOD     C394233   9.697   9.303   0.716 -0.1231  0.3162  0.1733
16805DOD     C194234   0.268  27.999  10.667  0.1291 -0.0576  0.0924
16805DOD     C294235  -0.001  28.414  10.603 -0.4892  0.2080  0.1817
16805DOD     C394236  29.986  28.510  10.886  0.0022  0.1603 -0.1298
16806DOD     C194237  13.911  16.514  20.512  0.2280  0.1428  0.3624
16806DOD     C294238  13.793  16.117  20.679  0.0742 -0.2033 -0.3490
16806DOD     C394239  13.777  15.764  20.413 -0.1432 -0.0480  0.2894
16807DOD     C194240  18.733  15.561  26.779  0.1685  0.2163  0.1811
16807DOD     C294241  18.627  15.909  27.066 -0.1005  0.1080  0.3999
16807DOD     C394242  18.798  16.303  27.273 -0.0996 -0.1295  0.1730
16808DOD     C194243  13.554  28.889   5.753  0.4194 -0.1335 -0.0357
16808DOD     C294244  13.532  28.383   5.873 -0.2160 -0.0283 -0.1157
16808DOD     C394245  13.732  28.019   5.569  0.2396 -0.0289 -0.0598
16809DOD     C194246   4.123  17.211  17.396  0.4034 -0.0715 -0.2116
16809DOD     C294247   3.728  16.994  17.246 -0.3001 -0.3352  0.0264
16809DOD     C394248   3.696  16.659  16.854  0.0320  0.0212  0.3520
16810DOD     C194249   7.591  24.921   5.313  0.1147  0.4021 -0.1655
16810DOD     C294250   7.609  25.356   5.463 -0.2945 -0.4259  0.0045
16810DOD     C394251   7.349  25.574   5.783 -0.0610  0.0005 -0.0928
16811DOD     C194252   8.688  27.558  29.241  0.0015  0.0741  0.1191
16811DOD     C294253   8.204  27.508  29.175 -0.0253 -0.1445  0.0343
16811DOD     C394254   7.847  27.344  29.031 -0.0013 -0.3079  0.2193
16812DOD     C194255  24.516  26.536   9.453  0.1675 -0.1587  0.0184
16812DOD     C294256  24.204  26.841   9.303  0.0304 -0.0374 -0.0311
16812DOD     C394257  23.997  27.144   8.978  0.1665  0.1842 -0.0060
16813DOD     C194258  27.566   1.360   4.846  0.2190 -0.0276  0.0447
16813DOD     C294259  27.446   1.763   5.102  0.1300  0.0005  0.1661
16813DOD     C394260  27.721   2.158   4.966 -0.2640  0.1612 -0.1742
16814DOD     C194261   2.298  20.399  23.938 -0.0731 -0.0736 -0.0495
16814DOD     C294262   2.642  20.681  23.778 -0.0211 -0.1037 -0.1507
16814DOD     C394263   2.881  20.918  23.484 -0.0133  0.3420 -0.2888
16815DOD     C194264  16.203  27.094  15.294 -0.0499  0.0489  0.0281
16815DOD     C294265  16.279  26.668  15.555 -0.0313 -0.0808 -0.0631
16815DOD     C394266  16.613  26.349  15.431 -0.1260 -0.4003  0.0123
16816DOD     C194267  13.439  21.111  17.212 -0.1265 -0.0172  0.0141
16816DOD     C294268  13.084  21.072  17.500  0.0411 -0.1393  0.0776
16816DOD     C394269  13.030  21.356  17.842  0.1445  0.1416  0.0120
16817DOD     C194270  15.165   5.754  19.871 -0.0910  0.1270  0.1498
16817DOD     C294271  14.757   5.570  20.021 -0.2061  0.1726  0.2340
16817DOD     C394272  14.451   5.234  20.093 -0.1434  0.1607  0.3668
16818DOD     C194273  27.590   4.656  21.035 -0.4034  0.2545  0.0472
16818DOD     C294274  27.849   5.023  21.121  0.3553  0.1592 -0.0642
16818DOD     C394275  28.244   5.150  21.376  0.2122 -0.2397  0.0349
16819DOD     C194276  12.803   2.910   2.973  0.0643 -0.1823  0.0303
16819DOD     C294277  12.710   2.496   3.229  0.1354 -0.1437 -0.0706
16819DOD     C394278  12.515   2.087   3.347  0.0008  0.0664 -0.4002
16820DOD     C194279  16.950  23.953  17.479 -0.3023 -0.2274  0.0633
16820DOD     C294280  16.897  23.666  17.807  0.1870  0.1203 -0.0395
16820DOD     C394281  17.079  23.267  17.881  0.2831 -0.0294 -0.3247
16821DOD     C194282   6.087   4.327   4.458  0.2159 -0.1954 -0.1185
16821DOD     C294283   6.239   4.072   4.063 -0.0010  0.2318  0.1257
16821DOD     C394284   6.199   3.895   3.663 -0.1211 -0.0173 -0.1916
16822DOD     C194285  19.185  26.868  17.055 -0.0694 -0.1307 -0.0213
16822DOD     C294286  18.959  26.502  16.821  0.1006 -0.1931 -0.0378
16822DOD     C394287  18.808  26.416  16.363 -0.1538 -0.2903  0.1928
16823DOD     C194288  16.144   5.415   9.317  0.0546  0.0742 -0.2348
16823DOD     C294289  16.304   5.795   9.537 -0.1870 -0.2543  0.3180
16823DOD     C394290  16.240   6.232   9.463 -0.0012 -0.1488  0.1036
16824DOD     C194291  12.538   5.519   3.046  0.2683  0.0596  0.0267
16824DOD     C294292  12.170   5.783   2.949  0.1830 -0.0367 -0.1580
16824DOD     C394293  11.659   5.880   3.017 -0.5079  0.0582  0.3324
16825DOD     C194294  22.300   1.828  27.592  0.2418 -0.0214 -0.0721
16825DOD     C294295  22.502   1.788  27.168  0.1559 -0.1525  0.0962
16825DOD     C394296  22.609   1.493  26.829  0.0288 -0.2465 -0.0136
16826DOD     C194297  10.045  24.704  12.065 -0.0408  0.1808 -0.0818
16826DOD     C294298   9.685  24.596  12.322 -0.0496  0.0766 -0.1526
16826DOD     C394299   9.382  24.370  12.683 -0.1923  0.1364  0.1040
16827DOD     C194300  15.003  12.300  13.837 -0.0768  0.0748 -0.2274
16827DOD     C294301  14.683  12.286  13.498  0.0916  0.0695  0.0584
16827DOD     C394302  14.386  12.487  13.239 -0.2380  0.2160 -0.0517
16828DOD     C194303  23.242   9.223  14.787 -0.0103 -0.3474 -0.2121
16828DOD     C294304  23.520   9.274  15.191  0.0177  0.0088 -0.0274
16828DOD     C394305  23.896   9.241  15.429 -0.0879 -0.1749  0.0152
16829DOD     C194306  26.538  30.036  26.390 -0.1108  0.2362  0.0460
16829DOD     C294307  26.831  30.137  26.712 -0.1412 -0.0973 -0.1401
16829DOD     C394308  27.292  30.223  26.815 -0.0139 -0.1394  0.2808
16830DOD     C194309   8.481  13.190  18.566  0.0460 -0.0924  0.1345
16830DOD     C294310   8.651  13.627  18.803  0.1249  0.0262 -0.1778
16830DOD     C394311   8.902  13.691  19.240  0.0181  0.1510 -0.5363
16831DOD     C194312   6.994   7.152  11.354 -0.0447  0.0002  0.2691
16831DOD     C294313   6.788   6.837  11.676  0.1876  0.0623  0.2459
16831DOD     C394314   6.823   6.396  11.578  0.0885 -0.1469 -0.0676
16832DOD     C194315   8.841  29.867  25.331 -0.2154  0.0589  0.1954
16832DOD     C294316   8.958  30.304  25.238 -0.0534  0.1271  0.2439
16832DOD     C394317   8.936   0.433  25.337  0.1560 -0.2543  0.0844
16833DOD     C194318   9.943   0.771  15.446 -0.2180  0.0670  0.3659
16833DOD     C294319   9.929   0.457  15.104  0.4003  0.0899 -0.0206
16833DOD     C394320  10.090   0.085  14.831  0.0575 -0.1879 -0.1403
16834DOD     C194321   7.107  22.197  17.792 -0.2948  0.0948 -0.0092
16834DOD     C294322   7.005  21.805  18.048 -0.1577  0.0639  0.0145
16834DOD     C394323   7.197  21.414  17.999 -0.0718  0.0028  0.0521
16835DOD     C194324  30.013  25.965   4.914  0.1602 -0.2549  0.1421
16835DOD     C294325  29.758  26.403   4.732  0.2348  0.1257 -0.0262
16835DOD     C394326  29.551  26.730   4.477  0.0664  0.3083 -0.1680
16836DOD     C194327  23.021   1.994  15.551  0.1388 -0.1539  0.1406
16836DOD     C294328  22.770   1.686  15.828  0.1021 -0.1888  0.0123
16836DOD     C394329  22.384   1.613  16.071 -0.2151  0.0098 -0.1929
16837DOD     C194330  26.217  20.005  25.581 -0.1048 -0.2083 -0.1793
16837DOD     C294331  26.531  19.927  25.273 -0.2644  0.2720 -0.0258
16837DOD     C394332  26.603  19.719  24.888  0.0105 -0.2483 -0.1051
16838DOD     C194333  23.118  27.394  10.899  0.1893 -0.2413  0.1962
16838DOD     C294334  22.655  27.476  11.037 -0.1222 -0.0534 -0.0985
16838DOD     C394335  22.270  27.270  11.169 -0.0205  0.3455  0.0501
16839DOD     C194336   6.329  15.768   4.423  0.1601 -0.0462 -0.1876
16839DOD     C294337   6.517  15.533   4.809  0.0735  0.0715 -0.0610
16839DOD     C394338   6.409  15.139   5.035 -0.5267  0.0270  0.2698
16840DOD     C194339  23.803  22.927  29.458 -0.1116 -0.1539 -0.1336
16840DOD     C294340  23.529  22.598  29.289 -0.0481 -0.0278 -0.2155
16840DOD     C394341  23.525  22.338  28.886  0.1155  0.0212  0.0271
16841DOD     C194342   7.315   2.585  20.665  0.3758  0.1576 -0.0801
16841DOD     C294343   7.719   2.687  20.578 -0.2642 -0.1280 -0.0735
16841DOD     C394344   8.118   2.474  20.576  0.1593 -0.3613  0.0288
16842DOD     C194345   3.815   0.132   5.134  0.0931 -0.1146  0.2224
16842DOD     C294346   3.682   0.533   5.324  0.0765 -0.0776  0.3119
16842DOD     C394347   3.459   0.714   5.689 -0.0247  0.0338 -0.3120
16843DOD     C194348  24.541   4.509   1.946  0.0946  0.0444 -0.0642
16843DOD     C294349  24.099   4.393   1.956 -0.1374 -0.1405  0.0103
16843DOD     C394350  23.731   4.556   2.201 -0.1153  0.2778  0.0189
16844DOD     C194351  26.766  24.156   7.102  0.1172 -0.0829 -0.1457
16844DOD     C294352  27.121  23.992   7.299 -0.3532 -0.0698 -0.1070
16844DOD     C394353  27.549  23.819   7.243 -0.0913  0.1817  0.0191
16845DOD     C194354  19.775  23.939   3.416 -0.0707  0.2491 -0.1407
16845DOD     C294355  20.046  24.190   3.138 -0.0772  0.1200  0.1625
16845DOD     C394356  20.257  24.369   2.765 -0.0436  0.0034 -0.2129
16846DOD     C194357   1.424  13.114   2.731 -0.2075  0.1134  0.0354
16846DOD     C294358   1.114  12.983   3.096 -0.0470  0.2295 -0.3208
16846DOD     C394359   1.136  12.581   3.267 -0.2362  0.2176  0.2678
16847DOD     C194360   4.961  22.230  10.207 -0.0217 -0.0956 -0.1460
16847DOD     C294361   4.777  22.458   9.827 -0.3031  0.1626  0.2180
16847DOD     C394362   4.532  22.747   9.583  0.0269  0.0536 -0.0878
16848DOD     C194363  21.754  10.917  28.849  0.0279  0.0503 -0.0761
16848DOD     C294364  21.873  10.884  28.395  0.2075 -0.1309  0.1379
16848DOD     C394365  22.142  10.711  28.012  0.0365 -0.1347  0.0787
16849DOD     C194366  29.569  15.604  22.268  0.2704 -0.1505  0.0510
16849DOD     C294367  29.351  15.601  22.693  0.5219 -0.2644 -0.2153
16849DOD     C394368  29.335  15.516  23.163  0.0789 -0.1273  0.1133
16850DOD     C194369   5.599  29.311  30.060  0.1399  0.2670 -0.1381
16850DOD     C294370   5.817  29.131   0.132  0.1354  0.0008  0.0073
16850DOD     C394371   5.883  28.709   0.350  0.0274  0.2553  0.0121
16851DOD     C194372  15.282  21.801  13.822  0.0423 -0.0856 -0.2236
16851DOD     C294373  14.856  21.890  13.681  0.2650  0.2760  0.0233
16851DOD     C394374  14.436  21.904  13.588 -0.1095  0.2840  0.0465
16852DOD     C194375  11.965  21.242  22.794  0.2771 -0.3031  0.0046
16852DOD     C294376  12.185  21.086  23.181  0.0997  0.0619 -0.1323
16852DOD     C394377  12.406  20.756  23.486  0.0146 -0.4953 -0.3466
16853DOD     C194378  27.793  28.370   9.911 -0.2318 -0.2333  0.0354
16853DOD     C294379  27.409  28.532  10.178  0.0896  0.1597  0.0577
16853DOD     C394380  27.165  28.378  10.585 -0.0432 -0.1578 -0.1659
16854DOD     C194381   0.147   7.783  17.702  0.2574  0.2167  0.1277
16854DOD     C294382   0.317   7.858  17.269  0.0296  0.0191  0.0855
16854DOD     C394383   0.308   8.234  16.951  0.2269  0.0393 -0.2296
16855DOD     C194384   5.851  19.905   8.175 -0.2241  0.1689  0.2937
16855DOD     C294385   6.271  20.073   8.097 -0.1455 -0.1225  0.2625
16855DOD     C394386   6.419  20.498   8.144  0.1237 -0.2712  0.1281
16856DOD     C194387   6.155   5.442  23.270 -0.1856 -0.1788 -0.0978
16856DOD     C294388   6.296   5.896  23.240  0.0631 -0.0642 -0.0752
16856DOD     C394389   6.677   6.042  23.108 -0.0126  0.1019  0.2519
16857DOD     C194390   4.239   8.188   7.276 -0.0792  0.2923 -0.2379
16857DOD     C294391   3.911   7.956   7.490 -0.2324 -0.1481  0.0701
16857DOD     C394392   3.459   7.984   7.407 -0.0581 -0.1848  0.0904
16858DOD     C194393   8.201   4.462  30.143  0.0091 -0.1134  0.0136
16858DOD     C294394   8.604   4.310  30.049 -0.0684 -0.1838  0.2163
16858DOD     C394395   8.968   3.987  30.033 -0.1341  0.4318 -0.0818
16859DOD     C194396  20.518  25.495   9.791 -0.1351  0.0211  0.0766
16859DOD     C294397  20.246  25.561  10.118 -0.0199  0.3417 -0.0890
16859DOD     C394398  19.897  25.450  10.354 -0.1773  0.3716  0.2005
16860DOD     C194399  19.745  18.211  14.188 -0.0051 -0.0344  0.1316
16860DOD     C294400  20.020  18.064  14.561  0.0043 -0.0996  0.0008
16860DOD     C394401  20.333  17.804  14.699 -0.3713  0.5446  0.0733
16861DOD     C194402  30.028  13.267  22.476  0.2861 -0.1571  0.3233
16861DOD     C294403  29.802  13.157  22.903 -0.1450 -0.0024 -0.2101
16861DOD     C394404  29.577  13.168  23.315  0.0470 -0.1621 -0.3333
16862DOD     C194405  18.125  13.541   0.953 -0.1008  0.5289  0.2839
16862DOD     C294406  17.761  13.579   0.692 -0.1262 -0.0217 -0.2104
16862DOD     C394407  17.623  13.643   0.262 -0.1879 -0.2577  0.1389
16863DOD     C194408   4.083   3.669  27.286 -0.0951 -0.4155  0.2799
16863DOD     C294409   3.831   3.437  26.970 -0.2813 -0.2368  0.1765
16863DOD     C394410   3.699   3.379  26.570  0.0803  0.0794 -0.0792
16864DOD     C194411  12.591  23.177  12.686  0.1047 -0.0829  0.1180
16864DOD     C294412  12.286  23.179  12.298 -0.0328 -0.3426 -0.0178
16864DOD     C394413  12.278  23.245  11.876 -0.0426 -0.1273  0.3712
16865DOD     C194414  15.677  27.470  26.512 -0.3574  0.2383  0.1524
16865DOD     C294415  15.358  27.791  26.657  0.3164 -0.2690 -0.0489
16865DOD     C394416  15.333  28.249  26.529  0.2363  0.1090  0.0679
16866DOD     C194417  27.520   5.647   4.111  0.0771 -0.5782 -0.4158
16866DOD     C294418  27.966   5.626   3.948  0.0625 -0.0216  0.2009
16866DOD     C394419  28.403   5.561   4.110 -0.1396  0.0813  0.0784
16867DOD     C194420  14.176  13.307  15.700  0.1522 -0.1621 -0.0566
16867DOD     C294421  14.336  13.702  15.837  0.0583 -0.1844  0.0172
16867DOD     C394422  14.512  14.082  16.056  0.5649 -0.0935 -0.0397
16868DOD     C194423  28.721   2.302  11.144  0.0903 -0.1374 -0.2202
16868DOD     C294424  28.650   2.615  10.779  0.2008  0.2702 -0.1390
16868DOD     C394425  28.834   2.939  10.504  0.1824 -0.0172 -0.2223
16869DOD     C194426   0.420  27.753  20.663  0.0506  0.2710 -0.0463
16869DOD     C294427   0.290  27.877  20.246 -0.0608  0.0611  0.0668
16869DOD     C394428  30.197  27.786  20.018  0.0931 -0.1833 -0.0728
16870DOD     C194429  14.674  25.538   9.748  0.1119 -0.2590  0.2640
16870DOD     C294430  14.690  25.336  10.211  0.2424  0.1837 -0.0889
16870DOD     C394431  14.713  24.991  10.510 -0.0215 -0.1502 -0.1337
16871DOD     C194432  27.003  16.666  26.995  0.0327  0.1279  0.1863
16871DOD     C294433  27.007  16.227  26.776  0.1751  0.3803 -0.1211
16871DOD     C394434  27.005  15.711  26.832  0.0203  0.0355  0.0144
16872DOD     C194435   5.200  11.593  23.594 -0.0979 -0.0616 -0.1491
16872DOD     C294436   4.833  11.490  23.912 -0.3448  0.1715  0.0002
16872DOD     C394437   4.365  11.660  23.910  0.1898  0.0771 -0.0668
16873DOD     C194438   5.757   3.505   0.602  0.2035  0.1118  0.2573
16873DOD     C294439   5.684   3.122   0.389  0.1712  0.1028 -0.1504
16873DOD     C394440   5.397   2.928   0.076 -0.1240  0.3539  0.0875
16874DOD     C194441  20.710   6.154   5.816  0.1243  0.1595 -0.1998
16874DOD     C294442  20.351   6.154   6.171 -0.0183  0.0129  0.0120
16874DOD     C394443  20.110   6.446   6.427 -0.1057 -0.1346  0.4362
16875DOD     C194444  24.521  14.327   1.518  0.0149 -0.1526  0.0225
16875DOD     C294445  24.669  14.726   1.392  0.1868  0.2241  0.1920
16875DOD     C394446  25.051  14.945   1.463  0.1477 -0.0716 -0.1543
16876DOD     C194447  13.537   8.550  21.341 -0.0745 -0.0328  0.0191
16876DOD     C294448  13.297   8.351  20.948 -0.1816  0.2129 -0.0032
16876DOD     C394449  13.158   8.083  20.645 -0.3014 -0.0979  0.0316
16877DOD     C194450  16.118   8.314  26.981  0.1247  0.1715  0.0702
16877DOD     C294451  16.185   7.932  27.178  0.0266  0.0338 -0.3445
16877DOD     C394452  16.460   7.593  26.958 -0.1760  0.4529 -0.0118
16878DOD     C194453  10.754  25.296  23.435 -0.0916  0.2251 -0.0875
16878DOD     C294454  11.173  25.465  23.426  0.2947  0.2651  0.2605
16878DOD     C394455  11.621  25.667  23.514  0.2722 -0.0806 -0.1308
16879DOD     C194456   6.015  19.145  15.221 -0.1826  0.2962  0.0887
16879DOD     C294457   5.615  19.130  15.501 -0.0806 -0.0398 -0.0032
16879DOD     C394458   5.332  18.842  15.676 -0.1236 -0.2337  0.0129
16880DOD     C194459  13.740  28.165  23.171 -0.0654  0.2112  0.0745
16880DOD     C294460  13.555  28.494  22.918  0.0518 -0.0024  0.1164
16880DOD     C394461  13.278  28.677  22.592 -0.2602 -0.0764 -0.0368
16881DOD     C194462   0.286  15.994  11.145  0.2266 -0.0411  0.1404
16881DOD     C294463   0.106  16.097  11.507 -0.3991 -0.0823 -0.1412
16881DOD     C394464  30.116  15.846  11.749 -0.2415 -0.3031 -0.0808
16882DOD     C194465   2.857  17.812  16.981  0.1822  0.1191 -0.0361
16882DOD     C294466   2.565  18.159  17.149  0.0960  0.1402 -0.0837
16882DOD     C394467   2.253  18.400  16.922  0.0658  0.4718 -0.1821
16883DOD     C194468  11.054   6.508  22.976  0.2281  0.1533 -0.0368
16883DOD     C294469  11.162   6.726  22.662 -0.0038  0.1353  0.1625
16883DOD     C394470  11.244   7.186  22.532  0.1450  0.0616 -0.0304
16884DOD     C194471  12.556  11.254   6.449  0.0650  0.0839  0.1910
16884DOD     C294472  12.649  11.653   6.508 -0.0643 -0.2411 -0.2978
16884DOD     C394473  12.986  11.901   6.590 -0.1151 -0.0812 -0.1748
16885DOD     C194474  22.843  14.981   7.357 -0.1586 -0.0949  0.1246
16885DOD     C294475  22.834  14.505   7.516  0.3830  0.1143  0.2970
16885DOD     C394476  22.988  14.236   7.849 -0.0804  0.0766 -0.2050
16886DOD     C194477   9.092  23.696  16.636 -0.2141  0.0588 -0.1687
16886DOD     C294478   8.868  23.415  16.356 -0.1262 -0.2136 -0.1774
16886DOD     C394479   8.827  22.967  16.242 -0.0469  0.1285 -0.1859
16887DOD     C194480  12.840  25.833  27.445  0.0022 -0.0822 -0.1829
16887DOD     C294481  13.247  25.797  27.731 -0.4518  0.0677 -0.0263
16887DOD     C394482  13.714  25.801  27.693  0.1045  0.1085 -0.0163
16888DOD     C194483   6.048  24.756  28.454 -0.1677 -0.1120 -0.0663
16888DOD     C294484   5.892  24.322  28.544 -0.1011  0.0183 -0.2548
16888DOD     C394485   5.575  24.123  28.284 -0.1414  0.0948 -0.2059
16889DOD     C194486  14.443  14.063   0.680  0.1840  0.1225  0.2019
16889DOD     C294487  14.039  13.886   0.842 -0.0246  0.5273  0.1850
16889DOD     C394488  13.939  13.561   1.227 -0.2294  0.2411 -0.2596
16890DOD     C194489  23.338  19.835  10.902  0.3281  0.2459  0.1531
16890DOD     C294490  22.876  19.709  11.161 -0.0270 -0.0137 -0.1691
16890DOD     C394491  22.415  19.808  11.312  0.1294  0.1426 -0.3928
16891DOD     C194492  17.154   7.987  28.788  0.0451 -0.3424 -0.5079
16891DOD     C294493  16.804   7.782  28.577 -0.3682 -0.0307  0.1557
16891DOD     C394494  16.316   7.579  28.607  0.0040  0.1056 -0.1797
16892DOD     C194495  17.934  22.620   7.848  0.0252  0.0343  0.1084
16892DOD     C294496  17.901  22.602   8.298 -0.0022 -0.1645 -0.0676
16892DOD     C394497  17.545  22.556   8.646  0.2798 -0.1564  0.3565
16893DOD     C194498  15.069   6.041  18.355  0.0254 -0.2972 -0.0961
16893DOD     C294499  15.243   6.375  18.143  0.0524 -0.2159  0.0497
16893DOD     C394500  15.252   6.445  17.696 -0.2052  0.0164 -0.0804
16894DOD     C194501  29.975   0.049  18.100  0.1212  0.2685  0.1237
16894DOD     C294502  30.172   0.289  18.436 -0.1303  0.2306 -0.1902
16894DOD     C394503  30.232   0.731  18.499 -0.0510  0.0964  0.1484
16895DOD     C194504  20.069  11.118  24.696 -0.2297 -0.1278  0.1104
16895DOD     C294505  19.999  11.462  24.429 -0.1281  0.0914  0.0785
16895DOD     C394506  19.902  11.905  24.384  0.0991  0.0800  0.1333
16896DOD     C194507  18.441   8.254  19.255 -0.0437  0.0688 -0.0530
16896DOD     C294508  17.975   8.216  19.075  0.0670 -0.1948 -0.4433
16896DOD     C394509  17.707   8.506  18.818 -0.0607 -0.1030 -0.0560
16897DOD     C194510  14.903  28.529  23.535  0.1770  0.1404  0.2265
16897DOD     C294511  15.199  28.155  23.386  0.1363 -0.1227 -0.1913
16897DOD     C394512  15.642  28.236  23.272  0.0943  0.0012 -0.1649
16898DOD     C194513  27.981  20.149   2.757 -0.1811 -0.1452 -0.2469
16898DOD     C294514  27.918  20.533   2.540 -0.0000 -0.0847  0.1071
16898DOD     C394515  27.833  20.975   2.504 -0.2440 -0.1751  0.0924
16899DOD     C194516   7.560   0.774   2.548 -0.1524  0.1771 -0.1301
16899DOD     C294517   7.553   0.277   2.581  0.1586 -0.0938  0.0270
16899DOD     C394518   7.746  30.158   2.538  0.0079  0.2933 -0.1505
16900DOD     C194519   7.649   2.173  13.685 -0.1199  0.0537  0.1583
16900DOD     C294520   7.683   2.070  13.234  0.1566 -0.0202 -0.0767
16900DOD     C394521   7.484   2.260  12.843  0.2151  0.3183  0.1226
16901DOD     C194522   9.602  13.069  17.568 -0.0984 -0.2737 -0.0686
16901DOD     C294523   9.437  12.634  17.382  0.1844  0.1558  0.0454
16901DOD     C394524   8.988  12.579  17.374 -0.0585  0.0640 -0.1816
16902DOD     C194525  29.717   7.178  16.061  0.3099 -0.0768  0.0860
16902DOD     C294526  30.186   7.061  16.209 -0.1374  0.1129  0.0314
16902DOD     C394527   0.185   6.693  16.046 -0.1054  0.3753 -0.0571
16903DOD     C194528   7.563   3.194  25.107  0.2336 -0.0375  0.5265
16903DOD     C294529   7.960   2.887  25.050  0.1045  0.0213  0.1252
16903DOD     C394530   8.267   2.541  24.932  0.1351  0.1634  0.2372
16904DOD     C194531   5.515  24.097   2.667  0.1655  0.0214  0.1169
16904DOD     C294532   5.772  23.996   2.274  0.0441 -0.1381 -0.1823
16904DOD     C394533   6.059  23.674   2.036  0.1327 -0.2296  0.1738
16905DOD     C194534  28.682   1.130  28.755 -0.2417  0.2986  0.3164
16905DOD     C294535  28.493   1.265  28.362 -0.1933 -0.0589  0.0375
16905DOD     C394536  28.711   1.581  28.062  0.2458 -0.2100 -0.0056
16906DOD     C194537  30.208   7.227  29.459 -0.0557 -0.0782  0.0999
16906DOD     C294538   0.276   7.322  29.663 -0.2751  0.0976 -0.0699
16906DOD     C394539   0.349   7.662  29.958 -0.0055 -0.3118 -0.1793
16907DOD     C194540   6.155  16.329  25.777  0.0820 -0.3702 -0.0157
16907DOD     C294541   6.294  16.208  25.356  0.2093  0.2062  0.2947
16907DOD     C394542   6.705  16.227  25.078  0.1230 -0.2124 -0.0666
16908DOD     C194543  26.989  27.653  22.348 -0.0769  0.1915  0.3759
16908DOD     C294544  27.137  27.853  21.920 -0.0684 -0.0164 -0.0675
16908DOD     C394545  26.896  28.126  21.628  0.2385  0.3360  0.0900
16909DOD     C194546   3.839  13.798  29.614  0.2652  0.0862 -0.2829
16909DOD     C294547   3.431  13.761  29.820 -0.0568  0.0238 -0.2309
16909DOD     C394548   3.155  14.167  29.861 -0.1751 -0.3950 -0.1375
16910DOD     C194549   3.655  19.708  20.370 -0.0571  0.2110 -0.0106
16910DOD     C294550   3.954  19.707  20.026 -0.0385 -0.2038 -0.0911
16910DOD     C394551   4.248  19.822  19.693  0.1202 -0.1394  0.1487
16911DOD     C194552   0.782  12.163  28.738 -0.0150 -0.0442  0.0427
16911DOD     C294553   1.060  12.226  29.096  0.3668 -0.0849  0.1091
16911DOD     C394554   1.157  12.454  29.482  0.0973  0.0580 -0.3382
16912DOD     C194555   2.593   9.643  12.616  0.2447  0.2094 -0.3309
16912DOD     C294556   2.735   9.966  12.346  0.1193 -0.0185 -0.1300
16912DOD     C394557   3.179  10.110  12.245  0.0066 -0.0054 -0.1644
16913DOD     C194558  22.744  25.056  16.122 -0.1797 -0.1650 -0.0836
16913DOD     C294559  22.369  25.350  15.902  0.2364 -0.2604  0.0679
16913DOD     C394560  21.979  25.632  16.028  0.2981 -0.2928 -0.0025
16914DOD     C194561  14.451   8.109  27.849  0.0346 -0.0016 -0.2294
16914DOD     C294562  14.598   8.241  27.457  0.1269 -0.0680  0.2303
16914DOD     C394563  14.820   8.142  27.060  0.1819 -0.0014 -0.1592
16915DOD     C194564   8.594  28.972  17.837 -0.1972 -0.0372 -0.1387
16915DOD     C294565   8.822  29.398  17.903 -0.0633  0.2011  0.3090
16915DOD     C394566   9.041  29.702  17.608  0.1436  0.1703  0.2234
16916DOD     C194567  20.841  11.848  23.760  0.1072  0.1553  0.2607
16916DOD     C294568  20.804  11.685  24.246  0.1113  0.1006  0.1417
16916DOD     C394569  20.555  11.506  24.637  0.3535  0.0160  0.0009
16917DOD     C194570   2.023   0.483   2.544 -0.2234  0.0556  0.2924
16917DOD     C294571   2.116   0.705   2.157  0.1498  0.2820  0.1972
16917DOD     C394572   2.213   0.858   1.754  0.2280 -0.0217 -0.1951
16918DOD     C194573  16.717  14.902  20.631  0.2619  0.1944 -0.1523
16918DOD     C294574  16.401  14.742  20.941 -0.0612  0.0164  0.0225
16918DOD     C394575  16.335  14.489  21.357  0.0573  0.2598  0.2789
16919DOD     C194576  15.823  24.707  18.206 -0.1504  0.0600 -0.3581
16919DOD     C294577  15.550  24.491  18.468 -0.1019  0.0134 -0.2174
16919DOD     C394578  15.127  24.400  18.577 -0.1897 -0.3922 -0.1048
16920DOD     C194579  24.354   9.690   1.265  0.2880  0.2780 -0.0893
16920DOD     C294580  24.734   9.979   1.354  0.0150  0.0617 -0.0794
16920DOD     C394581  24.800  10.426   1.316 -0.1966 -0.2068 -0.3567
16921DOD     C194582  25.024  13.163  13.124 -0.4532  0.1962 -0.2856
16921DOD     C294583  25.199  13.525  12.854 -0.1030  0.1223 -0.2518
16921DOD     C394584  25.297  13.863  12.608  0.2829 -0.1305 -0.2480
16922DOD     C194585   4.298  19.161   5.526 -0.0809 -0.0006  0.1115
16922DOD     C294586   4.197  18.710   5.602  0.1676 -0.0511  0.0295
16922DOD     C394587   4.365  18.400   5.914 -0.2679 -0.0594  0.2807
16923DOD     C194588  21.475  10.982  16.741 -0.0371  0.2050 -0.0586
16923DOD     C294589  21.244  11.057  16.400 -0.1097  0.0881  0.0885
16923DOD     C394590  20.804  11.142  16.212 -0.1344 -0.1122 -0.5301
16924DOD     C194591  17.958  21.910  22.672 -0.0776  0.0040  0.0040
16924DOD     C294592  18.284  22.048  22.985  0.1556  0.0060  0.0084
16924DOD     C394593  18.451  22.046  23.436  0.0014 -0.1352 -0.3134
16925DOD     C194594   4.294  30.275  18.591  0.0064 -0.1926  0.3045
16925DOD     C294595   4.348   0.357  18.842 -0.0638 -0.0214 -0.0758
16925DOD     C394596   4.498   0.791  18.822 -0.0127 -0.0723  0.0447
16926DOD     C194597  16.324   7.936  16.552  0.0287 -0.1228 -0.1451
16926DOD     C294598  16.732   7.996  16.334 -0.0103 -0.3761 -0.3208
16926DOD     C394599  16.855   8.338  16.017  0.1982 -0.0357  0.1459
16927DOD     C194600  26.163  24.879  21.212  0.2248 -0.1143  0.3024
16927DOD     C294601  26.289  24.444  21.313  0.2523 -0.1039  0.0710
16927DOD     C394602  26.181  23.987  21.295 -0.3410  0.4095  0.0078
16928DOD     C194603  26.420   5.379  21.194 -0.2285  0.0225 -0.1228
16928DOD     C294604  26.757   5.197  20.831  0.2097  0.0867  0.1539
16928DOD     C394605  26.908   4.789  20.659 -0.0329 -0.0083 -0.3500
16929DOD     C194606   9.581   6.626   3.302  0.0446  0.0600  0.0657
16929DOD     C294607   9.672   6.203   3.090 -0.1872 -0.1467 -0.2838
16929DOD     C394608   9.776   5.745   3.012 -0.1636  0.1104  0.0050
16930DOD     C194609   8.600  24.992  21.932  0.0756 -0.0696 -0.0287
16930DOD     C294610   8.536  25.108  21.526  0.0416  0.0174 -0.0734
16930DOD     C394611   8.504  25.447  21.202 -0.1433 -0.0737  0.1867
16931DOD     C194612   6.217  29.030  21.880  0.0938  0.1804  0.2556
16931DOD     C294613   6.071  28.959  21.453  0.3299 -0.0730  0.2402
16931DOD     C394614   5.926  29.214  21.036 -0.3574  0.3260  0.0049
16932DOD     C194615  20.888  25.266  11.814  0.3875 -0.0337  0.2513
16932DOD     C294616  20.601  25.577  11.701 -0.1957  0.0685 -0.0566
16932DOD     C394617  20.162  25.759  11.708 -0.0943 -0.1383 -0.1134
16933DOD     C194618  18.434  13.023   6.458  0.1418  0.2267 -0.1754
16933DOD     C294619  18.356  13.370   6.824  0.3128  0.0373  0.1611
16933DOD     C394620  17.996  13.413   7.184 -0.3172 -0.3539  0.0614
16934DOD     C194621  24.373  12.133   3.847  0.0353  0.0246 -0.3319
16934DOD     C294622  24.301  12.551   3.644  0.3105 -0.0543 -0.2091
16934DOD     C394623  23.880  12.745   3.665 -0.1983  0.0669  0.1021
16935DOD     C194624  28.707  29.188   2.466 -0.0717  0.2141 -0.0551
16935DOD     C294625  28.559  28.779   2.616 -0.2668  0.2833  0.0573
16935DOD     C394626  28.647  28.392   2.764  0.2037 -0.5846 -0.1668
16936DOD     C194627  26.538  14.963   6.652 -0.0242 -0.3421  0.1510
16936DOD     C294628  26.601  15.289   6.255  0.3856 -0.1888 -0.2991
16936DOD     C394629  26.552  15.755   6.268 -0.1305  0.0051 -0.1484
16937DOD     C194630  18.838   3.914   2.392  0.0614  0.0354 -0.1417
16937DOD     C294631  18.937   4.359   2.213 -0.2638 -0.1076  0.1545
16937DOD     C394632  18.837   4.541   1.813  0.1423 -0.0623  0.1375
16938DOD     C194633  27.727  14.826  23.967 -0.0172  0.0875  0.1786
16938DOD     C294634  27.991  14.699  24.365 -0.0961  0.1529 -0.0607
16938DOD     C394635  28.169  14.423  24.657  0.2705  0.2860 -0.1248
16939DOD     C194636  24.652   8.205  12.262  0.1631  0.0625 -0.1510
16939DOD     C294637  24.947   8.411  12.573 -0.0113 -0.0473 -0.1074
16939DOD     C394638  25.231   8.376  13.001  0.0048 -0.0982 -0.1276
16940DOD     C194639  17.512  17.969   3.184  0.0446  0.1387  0.2496
16940DOD     C294640  17.809  17.577   3.111 -0.2623  0.0139  0.2887
16940DOD     C394641  18.097  17.273   3.197 -0.1570 -0.2039 -0.2313
16941DOD     C194642  21.482  20.587  10.522  0.0820  0.0146  0.0922
16941DOD     C294643  21.722  20.165  10.673  0.0096 -0.0264 -0.1996
16941DOD     C394644  21.798  19.779  10.868  0.0911 -0.1855  0.1642
16942DOD     C194645   7.340  18.710  24.991 -0.1247 -0.0913 -0.0476
16942DOD     C294646   7.441  18.921  25.407 -0.1008  0.0431  0.1606
16942DOD     C394647   7.737  19.280  25.451 -0.0340  0.2781 -0.1666
16943DOD     C194648   8.783   8.601   9.120  0.0177  0.0183 -0.0707
16943DOD     C294649   9.248   8.429   9.260  0.0151  0.0223  0.2176
16943DOD     C394650   9.581   8.127   9.162  0.1732  0.2325  0.1031
16944DOD     C194651  13.259  13.033  13.069 -0.1030  0.2174  0.1795
16944DOD     C294652  13.689  12.981  12.893 -0.1098  0.0846  0.2285
16944DOD     C394653  14.128  13.060  12.739 -0.1272 -0.0055  0.1113
16945DOD     C194654   0.115  14.704   4.070 -0.0281 -0.3217 -0.0305
16945DOD     C294655  30.322  15.047   3.685  0.0927 -0.0198 -0.0870
16945DOD     C394656  -0.015  15.093   3.207 -0.0143 -0.0486  0.1407
16946DOD     C194657  21.310  11.644   7.243  0.3869  0.1227 -0.0172
16946DOD     C294658  21.518  11.357   7.582  0.0279  0.1929 -0.2742
16946DOD     C394659  21.609  10.869   7.689 -0.0148 -0.1282 -0.1343
16947DOD     C194660   0.880  12.240   5.060 -0.2982 -0.3655  0.3370
16947DOD     C294661   1.047  12.511   5.365 -0.0380 -0.1340 -0.1041
16947DOD     C394662   1.291  12.516   5.778 -0.3153 -0.0613 -0.3660
16948DOD     C194663  28.387  12.933  20.510  0.2840  0.0936  0.0093
16948DOD     C294664  27.952  12.769  20.483 -0.2476  0.1593 -0.0930
16948DOD     C394665  27.659  12.767  20.119  0.2790 -0.1311 -0.2736
16949DOD     C194666  22.918  20.701  19.520  0.2676 -0.3285 -0.1406
16949DOD     C294667  22.860  20.902  19.078 -0.3757 -0.2534  0.0426
16949DOD     C394668  22.656  20.866  18.651 -0.1659 -0.0556  0.3500
16950DOD     C194669  23.134  19.714   5.010  0.2447 -0.3309 -0.0153
16950DOD     C294670  23.393  19.849   5.397  0.2660 -0.2012 -0.2460
16950DOD     C394671  23.793  20.011   5.545  0.0123  0.0885 -0.1947
16951DOD     C194672  16.813   9.285  17.411  0.0665 -0.1672 -0.2291
16951DOD     C294673  16.728   8.832  17.561  0.2521  0.1105 -0.2454
16951DOD     C394674  16.811   8.430  17.378  0.2048 -0.0189  0.0299
16952DOD     C194675   3.844   8.107  19.232  0.0195  0.0228 -0.1730
16952DOD     C294676   3.721   8.564  19.305 -0.0647  0.1398  0.1896
16952DOD     C394677   3.811   8.775  19.757 -0.1278 -0.1497  0.0915
16953DOD     C194678  26.637   7.151   8.219 -0.0967 -0.2819 -0.0341
16953DOD     C294679  26.821   7.187   8.615 -0.0240  0.1277  0.5399
16953DOD     C394680  27.234   7.238   8.745  0.0085 -0.4423 -0.2087
16954DOD     C194681  26.499  16.460  27.007 -0.0221 -0.1274  0.2311
16954DOD     C294682  26.615  16.916  27.207 -0.1073  0.2724  0.0313
16954DOD     C394683  26.992  17.114  27.325 -0.0523 -0.1863  0.1187
16955DOD     C194684  10.082   6.762   7.482  0.1663  0.1789 -0.1170
16955DOD     C294685  10.472   6.851   7.761 -0.0192  0.0136 -0.0017
16955DOD     C394686  10.558   7.070   8.196 -0.0168  0.1299  0.1340
16956DOD     C194687   2.654  11.509  16.948 -0.0471  0.1005  0.0166
16956DOD     C294688   2.806  11.820  16.609 -0.3347 -0.0370 -0.2731
16956DOD     C394689   2.731  11.984  16.187 -0.1752 -0.0457 -0.0325
16957DOD     C194690   2.436   0.238   2.051  0.2592 -0.0912 -0.1211
16957DOD     C294691   2.503   0.496   2.416 -0.0309 -0.2417 -0.0805
16957DOD     C394692   2.425   0.385   2.872  0.0351 -0.1899 -0.0965
16958DOD     C194693  25.184  22.049   3.932  0.1079  0.0772  0.2866
16958DOD     C294694  25.011  21.613   3.869  0.0034  0.1364 -0.2988
16958DOD     C394695  24.773  21.372   3.554 -0.1143  0.1362  0.3843
16959DOD     C194696   6.163  13.403  21.265 -0.0699  0.0562 -0.2009
16959DOD     C294697   5.907  13.809  21.182 -0.2191  0.0511 -0.0176
16959DOD     C394698   5.426  13.980  21.133  0.0942 -0.0615  0.1101
16960DOD     C194699  13.745  14.638   2.780 -0.0122  0.0443  0.1891
16960DOD     C294700  13.377  14.743   3.093  0.0092 -0.0645 -0.1149
16960DOD     C394701  13.100  15.053   3.338  0.0232 -0.2385  0.2573
16961DOD     C194702   9.665   0.974  23.287  0.1225  0.1965 -0.1070
16961DOD     C294703   9.617   1.429  23.244  0.1956  0.0912  0.3564
16961DOD     C394704   9.754   1.829  23.047  0.1750 -0.1453  0.0635
16962DOD     C194705  12.922  20.180   5.789 -0.2339 -0.2044  0.3888
16962DOD     C294706  13.280  20.569   5.757 -0.3269  0.1832 -0.0090
16962DOD     C394707  13.557  20.869   5.581  0.1505 -0.2923  0.0401
16963DOD     C194708   7.159  11.145   9.859 -0.1324 -0.1169  0.3031
16963DOD     C294709   7.083  11.401  10.243 -0.1950 -0.0224  0.1945
16963DOD     C394710   6.928  11.635  10.622  0.2993  0.0863  0.0135
16964DOD     C194711  20.422  18.070  18.304 -0.0424  0.3068  0.2864
16964DOD     C294712  19.955  18.175  18.290  0.0759 -0.1550 -0.0727
16964DOD     C394713  19.557  18.203  18.102 -0.1023 -0.2286 -0.0694
16965DOD     C194714   1.644   3.467   3.907 -0.1229 -0.2505 -0.1009
16965DOD     C294715   1.689   3.048   4.109  0.2218  0.1683 -0.0881
16965DOD     C394716   1.464   2.870   4.514 -0.3050 -0.1332  0.0624
16966DOD     C194717   1.448   1.084  21.561 -0.0127 -0.1113 -0.2023
16966DOD     C294718   1.471   0.637  21.695  0.1444  0.0793  0.3934
16966DOD     C394719   1.359   0.453  22.059 -0.1300  0.2266  0.0548
16967DOD     C194720  25.630   0.037  24.466  0.2644 -0.0676 -0.0727
16967DOD     C294721  25.436   0.400  24.320  0.1238 -0.2521 -0.0840
16967DOD     C394722  25.230   0.453  23.926 -0.1078  0.3347  0.1237
16968DOD     C194723  24.977  18.847  29.456  0.1692 -0.0754  0.3465
16968DOD     C294724  24.687  18.521  29.253 -0.2599 -0.0232  0.1612
16968DOD     C394725  24.401  18.132  29.196 -0.0087 -0.0890 -0.2342
16969DOD     C194726  28.995   0.774   0.158  0.1651  0.1629 -0.0150
16969DOD     C294727  28.637   0.398   0.252 -0.0943  0.0227 -0.0251
16969DOD     C394728  28.334   0.330   0.620  0.2468  0.1290  0.1156
16970DOD     C194729  14.407  15.425  21.170  0.1038  0.2050  0.0782
16970DOD     C294730  14.411  15.530  20.725  0.1004 -0.0857  0.0863
16970DOD     C394731  14.712  15.788  20.417 -0.2751 -0.2418  0.0998
16971DOD     C194732   8.025  24.903   7.341 -0.1419 -0.3947 -0.0568
16971DOD     C294733   7.561  24.920   7.430 -0.0536  0.1960  0.1508
16971DOD     C394734   7.113  24.951   7.220 -0.0377 -0.0731 -0.1145
16972DOD     C194735   1.104  10.843  16.711  0.1056  0.0582 -0.1723
16972DOD     C294736   0.734  11.090  16.905 -0.5679  0.1597 -0.1232
16972DOD     C394737   0.652  11.562  16.973 -0.0644  0.2456  0.1747
16973DOD     C194738  10.920   8.519  25.115  0.1233  0.0933 -0.2081
16973DOD     C294739  10.849   9.010  25.010 -0.2168 -0.1963  0.0532
16973DOD     C394740  10.487   9.267  24.804  0.0929 -0.0146 -0.0763
16974DOD     C194741  24.257  12.685   7.278 -0.0921  0.0551  0.0581
16974DOD     C294742  24.645  12.507   7.163  0.0240  0.0811 -0.0127
16974DOD     C394743  25.031  12.254   7.200 -0.1761  0.1370 -0.2236
16975DOD     C194744   9.598  25.839  28.061 -0.0272  0.1017 -0.0441
16975DOD     C294745   9.689  25.511  28.401 -0.4196 -0.2228  0.0090
16975DOD     C394746   9.397  25.286  28.667 -0.1203 -0.1257 -0.1177
16976DOD     C194747   4.226   8.223  11.700  0.1551  0.1269 -0.1147
16976DOD     C294748   3.961   7.826  11.597  0.1736  0.1154 -0.1709
16976DOD     C394749   4.036   7.313  11.629  0.0091 -0.1307 -0.0236
16977DOD     C194750  26.682  29.929  25.060 -0.2292 -0.1163  0.0808
16977DOD     C294751  27.051  30.130  25.229  0.0698  0.4669  0.1310
16977DOD     C394752  27.164   0.287  25.232 -0.1040  0.1027 -0.0919
16978DOD     C194753  21.540   9.668   0.843  0.0892 -0.0396 -0.2766
16978DOD     C294754  21.676   9.236   0.852  0.0736  0.1652  0.1432
16978DOD     C394755  21.692   8.771   0.658 -0.2337 -0.2718 -0.3170
16979DOD     C194756   2.380   8.197  10.704 -0.5345 -0.0313  0.1404
16979DOD     C294757   2.583   8.329  11.074  0.1627 -0.4918  0.0306
16979DOD     C394758   2.592   8.619  11.460  0.0059  0.1388 -0.0067
16980DOD     C194759  11.420   6.115  23.791 -0.0768  0.0199 -0.1153
16980DOD     C294760  11.843   6.130  23.902 -0.1157 -0.0522 -0.1290
16980DOD     C394761  12.210   5.904  23.818  0.2243  0.1476  0.0289
16981DOD     C194762  19.613   8.331  24.505  0.1319 -0.0898 -0.0996
16981DOD     C294763  19.629   8.743  24.708 -0.0552  0.0811  0.0184
16981DOD     C394764  19.868   9.147  24.575  0.5200 -0.2801 -0.2598
16982DOD     C194765   9.892  25.436  14.987  0.0700  0.1233 -0.1710
16982DOD     C294766   9.865  25.524  15.434  0.0013  0.0763  0.0289
16982DOD     C394767   9.879  25.877  15.745 -0.1195  0.1242  0.1185
16983DOD     C194768   3.926   5.633  15.583  0.2315 -0.3831  0.0509
16983DOD     C294769   4.170   5.438  15.258 -0.0183  0.0521  0.1430
16983DOD     C394770   4.251   4.977  15.192 -0.0451 -0.0510 -0.2518
16984DOD     C194771   5.280  14.191   6.202 -0.2371  0.0208  0.2918
16984DOD     C294772   5.319  14.574   5.999  0.0577  0.1075  0.1442
16984DOD     C394773   5.377  14.990   6.073  0.0980 -0.0314  0.1569
16985DOD     C194774  29.897  23.748   5.777 -0.3133  0.0178  0.0914
16985DOD     C294775  30.068  23.433   5.941  0.0238 -0.0287  0.0014
16985DOD     C394776  30.130  22.927   5.944 -0.3000  0.2495  0.0682
16986DOD     C194777  14.003  10.990   8.249 -0.1010 -0.1909  0.1092
16986DOD     C294778  13.745  11.165   8.484 -0.0162  0.0967  0.1963
16986DOD     C394779  13.691  11.198   8.921 -0.1720  0.0986  0.0357
16987DOD     C194780  24.286  24.498  24.091 -0.1800 -0.0109  0.1023
16987DOD     C294781  23.963  24.307  23.857  0.0925 -0.1490  0.0063
16987DOD     C394782  23.503  24.235  23.787  0.0138 -0.3765  0.0777
16988DOD     C194783   1.229  13.410  14.388  0.0034  0.0184  0.5059
16988DOD     C294784   1.134  13.273  13.940  0.0812  0.1427 -0.0050
16988DOD     C394785   1.411  12.956  13.669  0.0055  0.2862  0.1778
16989DOD     C194786  25.597   4.421  27.034  0.0884  0.0587 -0.0363
16989DOD     C294787  25.410   4.586  26.654 -0.0763 -0.0655 -0.1205
16989DOD     C394788  25.268   4.635  26.212  0.3246  0.1579 -0.4596
16990DOD     C194789  22.818  29.468   2.572 -0.2761 -0.1483  0.1592
16990DOD     C294790  23.036  29.221   2.931  0.2167  0.2076  0.0990
16990DOD     C394791  23.198  28.817   3.020  0.0154 -0.1797 -0.2501
16991DOD     C194792  24.024  12.527   1.011  0.0549  0.4850 -0.2363
16991DOD     C294793  24.114  12.355   0.624 -0.0361 -0.0496  0.1205
16991DOD     C394794  23.994  12.305   0.221  0.1821  0.0693  0.1124
16992DOD     C194795   9.551   3.201   1.618  0.4404 -0.0595 -0.1308
16992DOD     C294796   9.430   2.980   1.238 -0.0565  0.0529  0.1665
16992DOD     C394797   9.086   2.767   0.957 -0.1925 -0.0856  0.1346
16993DOD     C194798   2.545  21.284   3.522 -0.0481  0.2086  0.0910
16993DOD     C294799   2.732  21.107   3.123  0.0368 -0.2470  0.1377
16993DOD     C394800   3.105  20.965   2.904  0.2747 -0.0623 -0.1428
16994DOD     C194801  10.005  29.674  28.955 -0.0676  0.0804  0.1450
16994DOD     C294802  10.453  29.807  28.713  0.0706  0.0332 -0.2390
16994DOD     C394803  10.897  29.712  28.781  0.2626 -0.2192 -0.1595
16995DOD     C194804   4.080  26.951   6.644  0.2526  0.1584  0.0681
16995DOD     C294805   3.621  27.037   6.467 -0.0211  0.0568  0.1418
16995DOD     C394806   3.216  26.866   6.631 -0.0282 -0.2494 -0.3534
16996DOD     C194807  16.603  29.779  20.439 -0.3287  0.3586  0.0119
16996DOD     C294808  16.911  29.936  20.749  0.2961  0.1055  0.0522
16996DOD     C394809  17.255  29.989  21.041 -0.0950 -0.3762  0.1665
16997DOD     C194810  28.183  10.813  26.821 -0.1230  0.1945  0.3883
16997DOD     C294811  28.169  10.352  26.664  0.4597  0.4065  0.0942
16997DOD     C394812  28.043   9.918  26.371 -0.3143 -0.2024 -0.0412
16998DOD     C194813  19.442  28.487  21.955  0.1291  0.0691  0.0738
16998DOD     C294814  19.805  28.237  21.896 -0.0926 -0.0803  0.2363
16998DOD     C394815  20.195  28.274  22.208 -0.0216  0.2035 -0.5843
16999DOD     C194816  15.456  28.281  24.826  0.3329 -0.1731 -0.2268
16999DOD     C294817  15.054  28.223  25.121 -0.2751  0.1389 -0.2908
16999DOD     C394818  14.584  28.174  25.063  0.2008  0.3164  0.0594
17000DOD     C194819  16.956   9.740  20.048 -0.2650  0.2093  0.1767
17000DOD     C294820  16.566   9.574  19.999 -0.4475  0.2351  0.0864
17000DOD     C394821  16.342   9.184  20.040 -0.0235  0.1932 -0.0611
17001DOD     C194822   6.605  12.502   7.892 -0.1179 -0.1717  0.1085
17001DOD     C294823   6.645  12.358   8.339  0.0413 -0.1192  0.4111
17001DOD     C394824   6.428  12.409   8.779  0.0870 -0.1575  0.2411
17002DOD     C194825   4.776  28.246   6.912 -0.0207 -0.0652 -0.0984
17002DOD     C294826   4.412  28.394   6.825 -0.2022 -0.3074  0.1051
17002DOD     C394827   3.992  28.503   6.744 -0.2909 -0.1779  0.0776
17003DOD     C194828  15.494  25.341  11.957 -0.1769 -0.1102 -0.1143
17003DOD     C294829  15.402  24.931  11.694  0.1026  0.3448 -0.4641
17003DOD     C394830  15.761  24.599  11.581  0.2676 -0.1170 -0.0330
17004DOD     C194831   2.251  10.345  21.055 -0.1365 -0.3732  0.1463
17004DOD     C294832   2.403   9.916  21.143  0.0091 -0.2245  0.5060
17004DOD     C394833   2.531   9.683  21.526 -0.1905 -0.0048  0.0011
17005DOD     C194834   7.601   3.991  29.638 -0.0603  0.2842  0.1118
17005DOD     C294835   7.708   4.181  29.200 -0.2602 -0.0098 -0.1191
17005DOD     C394836   7.444   4.088  28.829 -0.2069 -0.0944  0.2887
17006DOD     C194837  20.534   1.321   4.688  0.0078 -0.0458  0.0865
17006DOD     C294838  20.231   1.271   4.404  0.3060 -0.1622 -0.2156
17006DOD     C394839  19.777   1.317   4.335 -0.0334 -0.1349  0.0775
17007DOD     C194840   9.801   6.505  14.778 -0.1099 -0.1102  0.0569
17007DOD     C294841   9.745   6.855  14.536  0.0115  0.3019 -0.0247
17007DOD     C394842   9.416   7.019  14.233 -0.2058  0.0037  0.2088
17008DOD     C194843   3.829  16.495   1.464 -0.4579  0.3024  0.1356
17008DOD     C294844   4.147  16.148   1.364 -0.0913 -0.0625 -0.0540
17008DOD     C394845   4.397  15.855   1.063  0.0406  0.0689  0.0753
17009DOD     C194846  11.782  14.840   7.918  0.2807  0.0767  0.0320
17009DOD     C294847  11.480  14.501   7.970 -0.0252 -0.1100 -0.0929
17009DOD     C394848  11.280  14.129   8.235  0.2199  0.0006  0.1168
17010DOD     C194849  17.290   4.534   0.305  0.3160 -0.1812  0.2398
17010DOD     C294850  16.896   4.357   0.331 -0.0892  0.1950  0.0811
17010DOD     C394851  16.779   3.899   0.458  0.0272 -0.1637 -0.3293
17011DOD     C194852  25.200  28.731  11.060  0.0980 -0.0781 -0.2927
17011DOD     C294853  25.635  28.962  11.133 -0.0361  0.2852 -0.4413
17011DOD     C394854  25.918  29.248  11.389  0.1096 -0.1127 -0.1026
17012DOD     C194855  11.222  13.137  26.902  0.3638  0.2546 -0.2262
17012DOD     C294856  10.843  13.316  26.649 -0.1947  0.3449  0.2934
17012DOD     C394857  10.695  13.446  26.210 -0.2356  0.3761  0.3016
17013DOD     C194858  20.047  29.249  21.414 -0.1237 -0.2815  0.1791
17013DOD     C294859  19.892  28.868  21.577  0.0960 -0.0934 -0.0682
17013DOD     C394860  19.649  28.501  21.350  0.0638  0.3223  0.1245
17014DOD     C194861  13.850   6.613  27.003 -0.2777  0.1295  0.2544
17014DOD     C294862  14.187   6.766  26.692 -0.0764  0.1145 -0.0741
17014DOD     C394863  14.352   7.142  26.572  0.2060 -0.3375 -0.3785
17015DOD     C194864  10.650  22.835  16.373 -0.2555  0.0151  0.0222
17015DOD     C294865  10.651  22.548  16.728  0.0068  0.0801  0.2282
17015DOD     C394866  10.561  22.304  17.150 -0.0904 -0.1115  0.1410
17016DOD     C194867  11.078   5.516  21.943 -0.1098  0.0614 -0.1079
17016DOD     C294868  11.453   5.494  21.760  0.0919 -0.1859 -0.0867
17016DOD     C394869  11.757   5.242  21.493 -0.1050  0.1170 -0.0806
17017DOD     C194870  22.435   3.575  20.480 -0.1975  0.0247 -0.0623
17017DOD     C294871  22.197   3.408  20.083  0.0687  0.2064  0.0083
17017DOD     C394872  22.037   3.249  19.669  0.3092  0.1607  0.2005
17018DOD     C194873   3.509  10.835   8.062  0.2625  0.1881 -0.0873
17018DOD     C294874   3.609  11.042   7.694  0.1622  0.2868 -0.1507
17018DOD     C394875   3.841  11.432   7.448  0.0538  0.1498  0.2193
17019DOD     C194876  22.650  19.111  13.397 -0.2363  0.0733 -0.0583
17019DOD     C294877  22.985  18.791  13.554  0.1378 -0.1430  0.3107
17019DOD     C394878  23.310  18.515  13.689  0.2908 -0.1212  0.4605
17020DOD     C194879   5.609  29.609   6.874  0.0557 -0.2205  0.1585
17020DOD     C294880   5.353  29.725   7.204 -0.0732 -0.1870 -0.2164
17020DOD     C394881   5.279  30.092   7.577  0.2411 -0.1366 -0.1007
17021DOD     C194882   0.651  14.762  17.417 -0.3105 -0.0876 -0.1150
17021DOD     C294883   0.245  14.623  17.265  0.2841  0.1807  0.0692
17021DOD     C394884  30.100  14.614  17.381  0.0203 -0.1411 -0.0696
17022DOD     C194885  20.316   4.722  15.523 -0.5039 -0.0737 -0.1575
17022DOD     C294886  20.110   5.149  15.692 -0.0521  0.2101  0.0884
17022DOD     C394887  20.318   5.529  15.930  0.0201  0.2176 -0.1890
17023DOD     C194888  11.660  30.142  11.938  0.1296 -0.0394 -0.1820
17023DOD     C294889  11.931  29.907  11.685 -0.0208 -0.4181 -0.3078
17023DOD     C394890  12.174  29.966  11.291  0.3712  0.0434 -0.0833
17024DOD     C194891  26.606  10.135  28.071  0.1862 -0.1334  0.1266
17024DOD     C294892  26.157  10.031  28.269 -0.2010 -0.1344 -0.0673
17024DOD     C394893  25.814   9.784  28.367  0.0288  0.0041  0.2236
17025DOD     C194894   6.830   2.886   5.051 -0.1996 -0.1756  0.0302
17025DOD     C294895   6.988   2.613   5.365  0.2413  0.1384 -0.1326
17025DOD     C394896   7.243   2.395   5.600  0.2796 -0.0981  0.1109
17026DOD     C194897  18.531  23.401  11.123  0.0670 -0.3230  0.3171
17026DOD     C294898  18.840  23.023  10.967 -0.0392  0.0474 -0.0998
17026DOD     C394899  19.289  23.060  10.883  0.0154 -0.2928  0.2733
17027DOD     C194900  23.063  11.405  20.726  0.0251  0.0714  0.0238
17027DOD     C294901  23.274  10.969  20.728  0.0216 -0.0544 -0.2549
17027DOD     C394902  23.677  10.755  20.827  0.1484 -0.0428  0.1997
17028DOD     C194903  22.076  10.255  19.145 -0.1901 -0.0600 -0.1808
17028DOD     C294904  21.636  10.499  19.175  0.1650  0.0202  0.1692
17028DOD     C394905  21.222  10.758  19.123 -0.1308 -0.2380 -0.1233
17029DOD     C194906  29.006  12.024  19.020  0.0060 -0.3080 -0.4688
17029DOD     C294907  29.328  11.911  18.721  0.1550 -0.0580 -0.0409
17029DOD     C394908  29.495  11.598  18.415  0.0167  0.1000 -0.0442
17030DOD     C194909  24.447  15.631   6.049  0.1981  0.3863  0.1040
17030DOD     C294910  24.883  15.533   6.250 -0.3235  0.0892 -0.2159
17030DOD     C394911  25.288  15.438   6.539 -0.3294 -0.0525  0.1752
17031DOD     C194912  16.103  29.053  18.323  0.2024  0.4915  0.2821
17031DOD     C294913  15.868  29.481  18.309  0.0978 -0.1185 -0.0388
17031DOD     C394914  16.008  29.915  18.418  0.2759  0.1953 -0.0661
17032DOD     C194915  14.152  16.849  13.695  0.3511  0.2111  0.2556
17032DOD     C294916  13.990  17.294  13.560 -0.0817 -0.0481  0.2494
17032DOD     C394917  13.910  17.746  13.504 -0.0166 -0.0836  0.2830
17033DOD     C194918   0.827  16.480  17.052 -0.0481  0.0776 -0.0417
17033DOD     C294919   0.684  16.830  17.314  0.2151  0.0772 -0.1990
17033DOD     C394920   0.390  17.199  17.428 -0.0538  0.0222  0.2252
17034DOD     C194921   9.299  12.800  12.303  0.1440  0.1040  0.2570
17034DOD     C294922   8.806  12.755  12.190  0.1734  0.0163 -0.0392
17034DOD     C394923   8.451  12.648  11.900  0.2318 -0.2598 -0.0324
17035DOD     C194924   4.729  17.382  11.489 -0.2188 -0.2368  0.1679
17035DOD     C294925   5.058  17.036  11.400  0.2409  0.2449 -0.0358
17035DOD     C394926   5.376  16.740  11.323 -0.0593  0.2788 -0.1042
17036DOD     C194927   7.948  19.400   5.490 -0.0189 -0.0023 -0.1215
17036DOD     C294928   7.976  19.544   5.067  0.2156  0.1011  0.1828
17036DOD     C394929   8.234  19.612   4.660  0.0616 -0.4854 -0.1622
17037DOD     C194930  18.818  25.700  24.155  0.0802 -0.0642 -0.0977
17037DOD     C294931  18.597  25.394  24.394  0.3682 -0.0265 -0.1688
17037DOD     C394932  18.358  25.011  24.437 -0.3911 -0.0515 -0.1203
17038DOD     C194933  14.832  28.920   5.117  0.1615  0.0880 -0.1248
17038DOD     C294934  15.084  28.625   4.847 -0.2859  0.0222 -0.2725
17038DOD     C394935  15.440  28.613   4.600  0.1385 -0.4723 -0.0891
17039DOD     C194936  20.810   9.107  10.167 -0.2326 -0.0112 -0.0271
17039DOD     C294937  20.840   8.968   9.745 -0.1759 -0.1403  0.2409
17039DOD     C394938  21.159   8.853   9.494  0.3510 -0.1169 -0.1678
17040DOD     C194939  11.512  10.844  13.371 -0.0091  0.3200  0.1743
17040DOD     C294940  11.473  11.104  13.775 -0.0019 -0.2613 -0.0062
17040DOD     C394941  11.110  11.353  13.932  0.1964  0.3212  0.2291
17041DOD     C194942   1.789   5.946  25.098  0.0707  0.0638 -0.0771
17041DOD     C294943   1.630   5.506  25.184 -0.1846 -0.1312  0.0883
17041DOD     C394944   1.189   5.283  25.339  0.3057 -0.2529  0.0680
17042DOD     C194945  22.159  26.347   2.468  0.0482 -0.1200  0.3080
17042DOD     C294946  21.950  26.653   2.804  0.1192 -0.1167  0.0457
17042DOD     C394947  21.842  27.114   2.851  0.1380 -0.0965 -0.1419
17043DOD     C194948  25.306   9.102   9.941  0.0034 -0.2182  0.3725
17043DOD     C294949  25.096   9.522   9.972 -0.2393 -0.1501 -0.0390
17043DOD     C394950  24.779   9.784   9.706  0.1231 -0.0012 -0.3552
17044DOD     C194951  27.104  11.794   8.925  0.0621 -0.0043 -0.0699
17044DOD     C294952  27.042  12.067   9.292 -0.1500 -0.0166 -0.0736
17044DOD     C394953  27.118  12.239   9.697  0.1766  0.1451  0.0024
17045DOD     C194954   7.850  23.112   2.742  0.3502 -0.0943 -0.0024
17045DOD     C294955   7.992  23.170   2.319 -0.3472 -0.1165  0.2191
17045DOD     C394956   8.067  23.081   1.859  0.1303  0.0875 -0.1759
17046DOD     C194957  17.692  11.184   3.033 -0.1729 -0.4961 -0.2510
17046DOD     C294958  17.455  11.074   3.458  0.0579  0.0860  0.2392
17046DOD     C394959  17.131  10.901   3.725 -0.3145  0.0297  0.1764
17047DOD     C194960  21.643   1.165  12.475  0.0010 -0.0999  0.2452
17047DOD     C294961  21.879   1.132  12.876  0.1250 -0.0703 -0.1748
17047DOD     C394962  22.325   0.978  13.010  0.3694  0.3972 -0.1590
17048DOD     C194963  15.671   9.020  28.218 -0.0915 -0.0465 -0.1758
17048DOD     C294964  15.878   9.383  28.489  0.0088  0.1657  0.1363
17048DOD     C394965  16.124   9.366  28.879  0.0514 -0.1997  0.1916
17049DOD     C194966  23.878  28.452   0.369  0.0160 -0.0885  0.1918
17049DOD     C294967  23.735  28.058   0.153  0.1482 -0.0101  0.1397
17049DOD     C394968  23.379  27.746   0.274  0.1191 -0.2088  0.2877
17050DOD     C194969  29.226  10.015   0.357  0.0680 -0.2901  0.0812
17050DOD     C294970  29.732  10.061   0.351 -0.2686 -0.2682 -0.2174
17050DOD     C394971  30.042  10.386   0.583 -0.2041  0.2061 -0.0194
17051DOD     C194972   1.307   3.536  18.754  0.1388 -0.1258  0.2223
17051DOD     C294973   1.389   3.232  18.390 -0.0182  0.4612  0.0965
17051DOD     C394974   1.107   2.831  18.455  0.3638  0.2971 -0.1735
17052DOD     C194975  18.513   8.593  25.479  0.0314 -0.0698  0.0225
17052DOD     C294976  18.380   8.177  25.655 -0.1604  0.1062  0.0941
17052DOD     C394977  18.381   7.717  25.778 -0.0087 -0.0082  0.1905
17053DOD     C194978   3.532   4.681  25.794 -0.0686  0.1067  0.1096
17053DOD     C294979   3.331   4.316  25.605  0.0966 -0.1390  0.0277
17053DOD     C394980   3.302   3.847  25.683 -0.1215 -0.0486  0.0088
17054DOD     C194981  25.647   9.310  26.733 -0.2242  0.0279 -0.2577
17054DOD     C294982  25.848   9.491  27.130 -0.1867  0.1348 -0.1513
17054DOD     C394983  26.127   9.568  27.541 -0.2146 -0.0209 -0.4803
17055DOD     C194984   8.375   4.830   9.706  0.1315 -0.0297 -0.1640
17055DOD     C294985   8.762   4.673   9.779 -0.1768 -0.1378 -0.0665
17055DOD     C394986   9.226   4.612   9.735  0.0447  0.2814 -0.1683
17056DOD     C194987   7.167  11.052  13.618  0.2892  0.0135  0.0609
17056DOD     C294988   6.758  11.088  13.353 -0.0125 -0.0361 -0.0681
17056DOD     C394989   6.402  10.769  13.274  0.2027  0.0217  0.0957
17057DOD     C194990  21.483  19.512  10.060 -0.0109  0.1217 -0.4127
17057DOD     C294991  21.320  19.476  10.455 -0.1789  0.1921  0.0564
17057DOD     C394992  21.172  19.594  10.923 -0.2076  0.2915  0.3159
17058DOD     C194993  27.111  10.271   9.821 -0.1338  0.1128  0.1001
17058DOD     C294994  27.575  10.179   9.864  0.0066  0.0532 -0.0141
17058DOD     C394995  27.913   9.951  10.132 -0.0215 -0.1368 -0.1248
17059DOD     C194996   7.247  28.576  14.024 -0.0073 -0.0830 -0.1358
17059DOD     C294997   7.545  28.806  13.761  0.0085  0.0781  0.0015
17059DOD     C394998   7.959  29.062  13.727  0.0699  0.0247 -0.3164
17060DOD     C194999   9.200   8.362  22.742 -0.0397  0.1361 -0.0432
17060DOD     C295000   8.808   8.165  22.838 -0.2952 -0.0199 -0.0236
17060DOD     C395001   8.457   7.840  23.032 -0.0594  0.2191 -0.3249
17061DOD     C195002  13.118   4.531  18.946  0.2312  0.0728  0.2494
17061DOD     C295003  12.661   4.497  19.122 -0.0005  0.3819 -0.0108
17061DOD     C395004  12.217   4.421  19.263 -0.1434  0.0523 -0.2824
17062DOD     C195005  25.773   3.600  13.672  0.1358 -0.2884 -0.0804
17062DOD     C295006  25.344   3.718  13.576  0.0108  0.2233  0.2089
17062DOD     C395007  24.901   3.761  13.509 -0.1568  0.2410  0.1990
17063DOD     C195008   7.483   5.908   6.778  0.3080  0.1257 -0.0833
17063DOD     C295009   7.501   6.054   6.290 -0.0643  0.1736  0.1592
17063DOD     C395010   7.348   6.463   6.100  0.1255 -0.1589  0.0562
17064DOD     C195011   1.729   4.450  18.652 -0.1088 -0.0080  0.2282
17064DOD     C295012   2.015   4.541  18.266 -0.0538  0.3908 -0.1483
17064DOD     C395013   2.325   4.586  17.945 -0.0103 -0.3792 -0.0734
17065DOD     C195014  17.190   9.128  23.301 -0.0946 -0.0495  0.1193
17065DOD     C295015  16.848   9.292  23.048  0.0840  0.0888 -0.0068
17065DOD     C395016  16.499   9.571  23.084 -0.1585 -0.2374 -0.2085
17066DOD     C195017  17.553  23.361   1.867  0.2072  0.0302 -0.0691
17066DOD     C295018  17.957  23.336   2.074  0.1324 -0.0043  0.0796
17066DOD     C395019  18.418  23.293   2.206 -0.0178 -0.0150  0.1676
17067DOD     C195020  27.418   3.663  27.766 -0.0072 -0.2099  0.1856
17067DOD     C295021  27.331   4.027  27.473  0.1132  0.0338  0.0562
17067DOD     C395022  27.621   4.288  27.208 -0.2178 -0.1316  0.3240
17068DOD     C195023  16.782  23.503  16.999 -0.0266 -0.1351  0.0078
17068DOD     C295024  17.068  23.555  16.604 -0.0400 -0.0241  0.0742
17068DOD     C395025  17.269  23.423  16.234 -0.0388 -0.0383  0.0740
17069DOD     C195026   2.797  15.765  25.626 -0.2836  0.2230  0.0118
17069DOD     C295027   3.233  15.628  25.491 -0.0418  0.1277 -0.1840
17069DOD     C395028   3.721  15.666  25.474 -0.2702  0.1077  0.0988
17070DOD     C195029   6.356  10.486  11.070 -0.0005  0.0919  0.0164
17070DOD     C295030   6.696  10.305  11.333 -0.1645  0.1490  0.0611
17070DOD     C395031   7.101  10.477  11.395  0.0386 -0.1626  0.0103
17071DOD     C195032  29.051   1.311   2.132  0.3218 -0.1320  0.1893
17071DOD     C295033  28.798   1.536   2.456  0.1469 -0.2152 -0.2103
17071DOD     C395034  28.614   1.444   2.923  0.0412 -0.1337  0.1584
17072DOD     C195035  22.102  12.483   8.087  0.0867  0.1366  0.4120
17072DOD     C295036  22.008  12.935   8.192  0.0912 -0.1324  0.0344
17072DOD     C395037  21.939  13.233   8.517 -0.0798 -0.1936 -0.0973
17073DOD     C195038   1.021   5.509   4.553  0.0603  0.0561 -0.3204
17073DOD     C295039   0.987   5.307   4.966  0.1103 -0.1400  0.0218
17073DOD     C395040   1.102   5.008   5.303  0.2263  0.0886 -0.0440
17074DOD     C195041  13.101   8.452  24.442 -0.1623 -0.3428 -0.1521
17074DOD     C295042  13.404   8.196  24.203 -0.0538 -0.1819  0.2140
17074DOD     C395043  13.263   7.830  23.962  0.0538  0.0393 -0.0846
17075DOD     C195044  18.477  28.012  27.774  0.2166 -0.0883  0.0637
17075DOD     C295045  18.415  27.791  28.205 -0.2258 -0.1869  0.0218
17075DOD     C395046  18.420  27.479  28.610  0.2492 -0.0933  0.1777
17076DOD     C195047  11.474  18.841  28.284  0.1005  0.2193 -0.3840
17076DOD     C295048  11.098  18.625  28.450  0.0692  0.0619  0.2190
17076DOD     C395049  10.854  18.303  28.685 -0.1441  0.0618 -0.0366
17077DOD     C195050   4.337   2.584   2.681 -0.3788 -0.3255  0.1712
17077DOD     C295051   4.065   2.210   2.660 -0.1067 -0.0487  0.0205
17077DOD     C395052   3.794   2.160   3.025 -0.4464 -0.2941  0.4304
17078DOD     C195053   1.504  26.400  20.114 -0.0228  0.0411  0.0931
17078DOD     C295054   1.529  26.859  19.951 -0.3488  0.1292 -0.0715
17078DOD     C395055   1.550  27.051  19.480  0.0682  0.0077  0.2038
17079DOD     C195056  22.779   2.915  25.567 -0.0149  0.0444 -0.0146
17079DOD     C295057  22.500   2.931  25.928 -0.1828  0.3640  0.0461
17079DOD     C395058  22.128   2.932  26.249 -0.2097  0.0308 -0.1110
17080DOD     C195059  17.069  10.205   6.590  0.0152 -0.1071 -0.1934
17080DOD     C295060  16.751  10.108   6.281  0.0758  0.0853 -0.0222
17080DOD     C395061  16.607   9.924   5.849  0.0485 -0.3983 -0.0437
17081DOD     C195062  14.039  24.449   8.247  0.2173 -0.2382  0.0742
17081DOD     C295063  14.110  24.000   8.124 -0.0952 -0.1355 -0.0043
17081DOD     C395064  14.320  23.727   7.801  0.0699 -0.1490 -0.0004
17082DOD     C195065  26.125   2.648   9.783  0.1678  0.0377  0.3171
17082DOD     C295066  26.022   3.136   9.878 -0.0519 -0.1073  0.1999
17082DOD     C395067  25.964   3.454  10.188 -0.4356 -0.0627 -0.1124
17083DOD     C195068   0.597  21.330  29.499  0.2482 -0.3121 -0.1618
17083DOD     C295069   0.460  21.725  29.457  0.0037  0.0375  0.1524
17083DOD     C395070   0.104  21.995  29.652 -0.0430  0.0578 -0.2405
17084DOD     C195071  13.451  16.467   4.169 -0.1546 -0.2465 -0.2207
17084DOD     C295072  13.657  16.083   4.010 -0.0054 -0.1315 -0.2360
17084DOD     C395073  14.070  16.094   3.781  0.0682 -0.1030 -0.0940
17085DOD     C195074  28.410  15.190  21.999  0.2256 -0.1938 -0.2246
17085DOD     C295075  28.245  15.525  22.262  0.0612 -0.2494 -0.1655
17085DOD     C395076  28.404  15.379  22.693 -0.2027 -0.2084 -0.1563
17086DOD     C195077  15.542  14.800  15.799  0.2264 -0.1709  0.1412
17086DOD     C295078  15.402  15.250  15.939 -0.0648 -0.0160  0.1455
17086DOD     C395079  15.513  15.700  16.060  0.0626  0.0029 -0.2114
17087DOD     C195080   6.489  25.122  14.973  0.0894 -0.4990 -0.0667
17087DOD     C295081   6.477  25.267  15.449 -0.0643 -0.1305  0.0948
17087DOD     C395082   6.477  25.151  15.886 -0.3154 -0.0915 -0.0333
17088DOD     C195083  25.335   6.720  13.560 -0.0743 -0.1154 -0.2669
17088DOD     C295084  24.869   6.657  13.562  0.1001  0.3090 -0.1677
17088DOD     C395085  24.419   6.533  13.671  0.3470  0.0376 -0.1623
17089DOD     C195086   7.185  20.609   2.995 -0.0848 -0.0445 -0.0121
17089DOD     C295087   7.617  20.578   3.105  0.0710 -0.1057  0.2020
17089DOD     C395088   7.930  20.212   2.983  0.2033 -0.1709 -0.0936
17090DOD     C195089  21.425  12.214  19.197  0.3455 -0.0554 -0.1783
17090DOD     C295090  21.319  12.288  18.784 -0.4456  0.4258 -0.1301
17090DOD     C395091  21.241  12.560  18.415  0.4772 -0.0856 -0.0517
17091DOD     C195092   7.188  21.428   1.917 -0.0287  0.0861  0.1241
17091DOD     C295093   6.750  21.229   1.774  0.0004  0.1065 -0.2016
17091DOD     C395094   6.847  20.859   1.533 -0.1924  0.0890 -0.0799
17092DOD     C195095  29.287   4.113  24.931 -0.0082 -0.1172  0.1694
17092DOD     C295096  29.681   4.104  24.703  0.0700  0.1686  0.2252
17092DOD     C395097  30.063   4.016  24.509 -0.1391  0.2550 -0.1798
17093DOD     C195098   6.561  14.857  13.273  0.0608  0.1337  0.0983
17093DOD     C295099   6.974  14.726  13.119  0.0758  0.1360  0.0374
17093DOD     C395100   7.372  14.952  13.032 -0.0027  0.1074  0.1216
17094DOD     C195101   4.888  28.014  28.433  0.0428  0.0895 -0.0317
17094DOD     C295102   4.652  28.242  28.818 -0.1368 -0.2901 -0.0182
17094DOD     C395103   4.547  28.654  28.857  0.1205  0.0016  0.0916
17095DOD     C195104   3.525  10.814  11.043  0.1622  0.0932  0.3059
17095DOD     C295105   3.296  11.233  11.085 -0.0733 -0.1756  0.0317
17095DOD     C395106   3.542  11.568  11.291 -0.4058 -0.1218  0.1026
17096DOD     C195107  15.016  24.286  11.223  0.1231  0.2758  0.3879
17096DOD     C295108  15.101  24.107  10.813 -0.0449  0.0080 -0.0926
17096DOD     C395109  14.919  24.042  10.401 -0.2776  0.1685 -0.0035
17097DOD     C195110  25.927  17.213  12.897 -0.2397  0.0946  0.1518
17097DOD     C295111  25.669  16.905  13.011  0.0995  0.2065  0.3258
17097DOD     C395112  25.590  16.456  13.174 -0.3260 -0.1457 -0.1699
17098DOD     C195113  20.493  11.087  20.191  0.0519  0.0854  0.0999
17098DOD     C295114  20.830  11.129  20.536  0.0278 -0.1592 -0.2527
17098DOD     C395115  21.101  10.945  20.865 -0.0636  0.1050 -0.1215
17099DOD     C195116   0.367   1.723  12.487  0.2501  0.0638 -0.2067
17099DOD     C295117   0.037   1.887  12.803 -0.1430 -0.1385  0.0805
17099DOD     C395118  30.151   1.953  13.259  0.2056  0.0030  0.3682
17100DOD     C195119  23.573  21.791  12.149  0.1030 -0.2298  0.0439
17100DOD     C295120  23.674  21.403  12.411  0.0196 -0.1747  0.4430
17100DOD     C395121  24.007  21.324  12.708  0.0656 -0.0861  0.1177
17101DOD     C195122  11.164  26.708  19.097 -0.1251  0.0696 -0.0973
17101DOD     C295123  11.021  27.165  19.270  0.2568  0.0204 -0.0223
17101DOD     C395124  11.071  27.573  19.008 -0.3595  0.3027  0.1361
17102DOD     C195125  17.678  17.777  16.039  0.0755  0.0549  0.1579
17102DOD     C295126  17.248  17.774  16.187 -0.1297 -0.1452 -0.1054
17102DOD     C395127  16.953  18.122  16.334  0.1474  0.0158  0.3302
17103DOD     C195128  13.772  28.350   4.948 -0.1194 -0.0161  0.1502
17103DOD     C295129  14.114  28.143   5.224  0.1473 -0.1052  0.3053
17103DOD     C395130  14.169  28.038   5.690 -0.0385 -0.1716 -0.2733
17104DOD     C195131  21.886  25.567  10.001 -0.1274  0.1489  0.2937
17104DOD     C295132  22.094  25.411  10.396 -0.1577 -0.3112  0.1339
17104DOD     C395133  21.952  25.326  10.842 -0.3881 -0.0671  0.2182
17105DOD     C195134  24.656   5.875  20.702  0.0821  0.2820 -0.3620
17105DOD     C295135  24.799   5.411  20.524  0.1994 -0.3996 -0.0699
17105DOD     C395136  24.919   4.998  20.264  0.0695  0.3360  0.1086
17106DOD     C195137   6.245   7.264  13.008  0.1004 -0.1729  0.0036
17106DOD     C295138   6.578   7.445  12.999 -0.2039  0.4782  0.0206
17106DOD     C395139   7.009   7.628  12.953 -0.1434 -0.1995  0.0064
17107DOD     C195140  16.312  20.559  10.150  0.0660 -0.1849  0.2880
17107DOD     C295141  16.542  20.618   9.769 -0.1135  0.0924 -0.2915
17107DOD     C395142  16.771  20.896   9.489  0.0306 -0.1831  0.3064
17108DOD     C195143  16.002  28.589   0.810 -0.0881 -0.2756  0.0014
17108DOD     C295144  16.056  29.075   0.825  0.0756  0.0609  0.2638
17108DOD     C395145  16.458  29.319   0.694 -0.1681  0.0071 -0.3280
17109DOD     C195146   3.975  27.578  25.235 -0.1327 -0.0472  0.1620
17109DOD     C295147   3.825  27.456  25.655  0.0957 -0.4036  0.2272
17109DOD     C395148   3.454  27.450  25.988  0.0447 -0.0679  0.1750
17110DOD     C195149   1.217   2.058   5.489 -0.0928 -0.4454 -0.2952
17110DOD     C295150   1.654   2.028   5.343 -0.1035  0.1552 -0.1940
17110DOD     C395151   1.963   1.718   5.552 -0.3412 -0.0241  0.0908
17111DOD     C195152   0.272  10.166  15.217  0.1141 -0.1664  0.0056
17111DOD     C295153   0.528   9.879  14.926  0.0579  0.2200  0.0378
17111DOD     C395154   0.549   9.472  14.768 -0.0636 -0.0773 -0.1625
17112DOD     C195155  25.334  29.895  11.947 -0.2192  0.1283  0.0680
17112DOD     C295156  25.159  -0.031  11.860 -0.0403 -0.4996  0.0506
17112DOD     C395157  24.820   0.267  11.891  0.2003  0.0058  0.0107
17113DOD     C195158  26.241  13.198  12.322  0.0039 -0.1798  0.1453
17113DOD     C295159  26.422  13.412  12.013 -0.1858  0.0745 -0.1209
17113DOD     C395160  26.797  13.500  11.771  0.0056 -0.0225  0.0658
17114DOD     C195161  12.135  26.408  25.096 -0.0370 -0.2297 -0.3279
17114DOD     C295162  11.684  26.471  25.265  0.0732  0.0206 -0.3176
17114DOD     C395163  11.363  26.655  25.548  0.1037 -0.2714 -0.1895
17115DOD     C195164   5.611  21.003  26.365  0.4082  0.1547  0.1930
17115DOD     C295165   5.457  20.587  26.364  0.3330  0.0580 -0.2495
17115DOD     C395166   5.469  20.151  26.116  0.2390 -0.0168  0.4011
17116DOD     C195167   1.171   1.800   3.086  0.4463  0.2098 -0.1259
17116DOD     C295168   1.050   1.519   3.422 -0.0747  0.3191  0.1811
17116DOD     C395169   0.917   1.070   3.529 -0.0530 -0.1416  0.0265
17117DOD     C195170  27.952  27.744  11.728  0.0764 -0.0909 -0.0058
17117DOD     C295171  28.108  27.896  12.085 -0.0878  0.0691 -0.1505
17117DOD     C395172  28.315  28.042  12.455  0.0683 -0.1324  0.0698
17118DOD     C195173  12.752  11.008   5.232  0.0758  0.3381  0.1564
17118DOD     C295174  12.407  10.669   5.246 -0.0738  0.0530  0.0911
17118DOD     C395175  11.936  10.552   5.106  0.0867 -0.1941 -0.1613
17119DOD     C195176  24.844   4.511  28.042 -0.1410  0.1773  0.3246
17119DOD     C295177  24.809   4.045  27.820 -0.1817  0.2328 -0.0160
17119DOD     C395178  25.251   3.736  27.793  0.4727  0.0109 -0.3245
17120DOD     C195179   1.316  10.958  21.946  0.1622  0.2920 -0.0514
17120DOD     C295180   1.176  10.627  21.653  0.1289 -0.0643  0.1091
17120DOD     C395181   1.131  10.759  21.208  0.5816  0.1929 -0.0905
17121DOD     C195182   6.670   4.668  20.223 -0.2054  0.4032 -0.0710
17121DOD     C295183   6.804   4.288  20.455 -0.1261 -0.0850  0.0482
17121DOD     C395184   6.866   4.057  20.891  0.0501 -0.1556 -0.0787
17122DOD     C195185  25.108  12.529  22.477 -0.0770  0.1649  0.0792
17122DOD     C295186  25.455  12.788  22.427  0.0736  0.0916  0.0767
17122DOD     C395187  25.614  13.174  22.466  0.0599  0.1964  0.3175
17123DOD     C195188   2.344  14.811   1.132 -0.0585 -0.0533 -0.1318
17123DOD     C295189   2.106  14.886   0.713  0.0244 -0.1396  0.1856
17123DOD     C395190   2.183  14.889   0.250  0.1851 -0.1651  0.1240
17124DOD     C195191  19.508  25.857   0.195 -0.0189  0.2850 -0.0326
17124DOD     C295192  19.259  26.248   0.384 -0.1787 -0.0864 -0.2009
17124DOD     C395193  19.118  26.283   0.846 -0.1970 -0.0054  0.2314
17125DOD     C195194  14.724  20.861  29.185 -0.2015  0.0749  0.0628
17125DOD     C295195  14.282  20.903  29.088  0.1647  0.0078 -0.4221
17125DOD     C395196  14.098  21.219  28.892  0.4114  0.1017 -0.1385
17126DOD     C195197   1.533  27.507  10.500 -0.2144  0.1559  0.2514
17126DOD     C295198   1.583  27.864  10.788  0.0902  0.0413  0.0192
17126DOD     C395199   1.550  27.880  11.260  0.0034  0.1391  0.0134
17127DOD     C195200  15.325  12.101  27.675  0.0410  0.2767  0.1036
17127DOD     C295201  15.590  11.847  27.425  0.0458  0.3079 -0.1325
17127DOD     C395202  15.735  11.882  26.938 -0.1114 -0.1916  0.0143
17128DOD     C195203  18.686  29.989  17.018  0.4095  0.0792  0.1579
17128DOD     C295204  18.497  29.588  17.101 -0.3016  0.1053 -0.2808
17128DOD     C395205  18.159  29.312  17.079 -0.0643 -0.3559 -0.0746
17129DOD     C195206   2.341  29.733   4.366  0.2961  0.0290 -0.0534
17129DOD     C295207   2.158  29.831   3.956 -0.0854  0.0835 -0.2495
17129DOD     C395208   2.435  29.802   3.610 -0.3606 -0.1724  0.0594
17130DOD     C195209  24.399  10.498   8.127  0.0203  0.1595  0.1899
17130DOD     C295210  24.715  10.807   8.011  0.3237  0.2179  0.1422
17130DOD     C395211  24.899  11.226   8.142  0.0046 -0.1304  0.1345
17131DOD     C195212  10.636   9.105  25.619  0.3089  0.0481  0.0298
17131DOD     C295213  10.419   8.851  25.863 -0.3214 -0.2475 -0.0110
17131DOD     C395214   9.998   8.576  25.829 -0.0635  0.1029  0.1779
17132DOD     C195215   0.812  29.834  18.716 -0.1960  0.1270 -0.0786
17132DOD     C295216   0.784  29.981  18.263 -0.0541 -0.2546 -0.3260
17132DOD     C395217   0.384  30.064  18.088 -0.0439 -0.1226 -0.1199
17133DOD     C195218   3.049   0.325  12.076 -0.1945 -0.4867  0.0309
17133DOD     C295219   2.997   0.461  11.634  0.1253  0.0580 -0.0535
17133DOD     C395220   2.764   0.391  11.248  0.2237  0.4824  0.3315
17134DOD     C195221  13.988  21.067  17.166 -0.3228  0.0905  0.3461
17134DOD     C295222  13.810  20.819  17.445  0.1586 -0.0241 -0.2731
17134DOD     C395223  13.394  20.672  17.425 -0.1078 -0.0642 -0.0234
17135DOD     C195224  10.400  15.770  28.871 -0.0691  0.0036  0.1081
17135DOD     C295225  10.038  15.562  28.699 -0.0742 -0.0346  0.0258
17135DOD     C395226   9.919  15.411  28.280  0.1737  0.1237  0.0543
17136DOD     C195227  22.119  21.971  13.342 -0.0550  0.0170 -0.3080
17136DOD     C295228  22.119  21.950  13.837 -0.1003 -0.1519 -0.2354
17136DOD     C395229  21.967  21.638  14.150 -0.1020 -0.0389 -0.0188
17137DOD     C195230   2.310   0.988  28.135 -0.2916  0.0296  0.2294
17137DOD     C295231   2.594   1.311  28.092  0.1357 -0.1216 -0.0386
17137DOD     C395232   2.673   1.716  27.881  0.0824 -0.0955 -0.0052
17138DOD     C195233   1.416  28.358  17.130 -0.2489 -0.3160  0.0686
17138DOD     C295234   1.726  28.488  16.772  0.1441  0.1211  0.2567
17138DOD     C395235   1.954  28.476  16.431  0.1441 -0.1355 -0.0462
17139DOD     C195236   5.240  17.247   5.288 -0.0849  0.0376 -0.2809
17139DOD     C295237   5.381  16.772   5.418  0.3989  0.1681  0.2770
17139DOD     C395238   5.277  16.337   5.399 -0.0340  0.0634 -0.2849
17140DOD     C195239  19.856  28.195  16.459 -0.1443 -0.0381  0.1292
17140DOD     C295240  19.793  28.605  16.555  0.0324 -0.0024  0.1795
17140DOD     C395241  19.951  29.069  16.500 -0.0910 -0.2109 -0.1476
17141DOD     C195242   8.675  25.780  22.722  0.0947  0.0019  0.0960
17141DOD     C295243   9.021  25.590  22.995 -0.1328  0.0004 -0.0553
17141DOD     C395244   9.407  25.479  23.198 -0.2273 -0.1263  0.2015
17142DOD     C195245   1.742   9.945  15.793 -0.0866  0.3468 -0.3622
17142DOD     C295246   1.729   9.544  16.069  0.2911 -0.1090  0.0772
17142DOD     C395247   1.320   9.350  16.188 -0.0894 -0.1875 -0.3496
17143DOD     C195248  15.060   9.369  15.343  0.0173 -0.1427 -0.0455
17143DOD     C295249  15.059   9.614  15.740  0.1340  0.3783 -0.2114
17143DOD     C395250  15.112   9.507  16.121 -0.0699 -0.1426 -0.1613
17144DOD     C195251  26.802  14.753  15.774  0.0113 -0.1322 -0.0796
17144DOD     C295252  27.259  14.883  15.523  0.1982  0.0937  0.1403
17144DOD     C395253  27.467  15.320  15.389 -0.0825  0.0513  0.0236
17145DOD     C195254  16.056  18.612  20.078 -0.1015  0.2544 -0.0830
17145DOD     C295255  16.438  18.585  20.440  0.0202 -0.1539  0.1059
17145DOD     C395256  16.593  18.816  20.779 -0.1496 -0.0776  0.2270
17146DOD     C195257   6.293   7.568  27.069  0.0983  0.0399  0.2374
17146DOD     C295258   6.279   7.115  27.073  0.1931 -0.0092 -0.0403
17146DOD     C395259   6.237   6.689  26.897  0.0136 -0.0781  0.2702
17147DOD     C195260  15.923   7.153   7.694  0.1032 -0.3672  0.4104
17147DOD     C295261  15.676   6.858   7.417  0.2734 -0.3439  0.0744
17147DOD     C395262  15.205   6.764   7.339  0.2034  0.1269 -0.0082
17148DOD     C195263  27.900   0.043  29.333 -0.0925 -0.0630  0.2728
17148DOD     C295264  27.616   0.037  28.931 -0.0218  0.0240 -0.1944
17148DOD     C395265  27.241   0.033  28.646 -0.2696 -0.3238 -0.0285
17149DOD     C195266  14.693   5.753  17.325 -0.1721  0.0913  0.2048
17149DOD     C295267  15.105   5.522  17.275 -0.3104 -0.0460 -0.3111
17149DOD     C395268  15.498   5.355  17.500 -0.2065  0.2335  0.0870
17150DOD     C195269   3.059   8.519  29.362 -0.1810  0.4328 -0.0260
17150DOD     C295270   2.956   8.355  28.925 -0.0156  0.1875  0.0669
17150DOD     C395271   2.667   8.400  28.567 -0.2057 -0.0045 -0.0751
17151DOD     C195272  25.422  19.114  11.064 -0.1278 -0.0946 -0.0390
17151DOD     C295273  25.646  19.507  10.928 -0.1695  0.1317  0.1636
17151DOD     C395274  25.681  19.970  10.762 -0.3768  0.0002  0.0414
17152DOD     C195275  13.036  20.999  10.263  0.1022  0.0677 -0.0938
17152DOD     C295276  12.824  21.435  10.181 -0.0671  0.1143 -0.0163
17152DOD     C395277  12.612  21.755  10.503  0.0233  0.2606 -0.1509
17153DOD     C195278  22.105   6.165  16.895 -0.0338 -0.0424 -0.0360
17153DOD     C295279  22.158   5.743  16.644 -0.2953 -0.0761 -0.0551
17153DOD     C395280  22.039   5.478  16.208  0.2840  0.2150  0.3712
17154DOD     C195281  15.895   5.254  20.942  0.2559 -0.1885  0.0439
17154DOD     C295282  15.651   5.506  20.558 -0.1050 -0.1506  0.0776
17154DOD     C395283  15.354   5.798  20.371  0.1405 -0.0603  0.2059
17155DOD     C195284  27.775  12.910   6.181 -0.0428  0.1999 -0.0133
17155DOD     C295285  28.196  12.832   5.960  0.1611  0.2032  0.0604
17155DOD     C395286  28.509  12.533   5.912  0.0400 -0.5129  0.1535
17156DOD     C195287  28.032  24.015  15.483  0.0924 -0.1596 -0.1765
17156DOD     C295288  27.671  23.849  15.667 -0.1089 -0.1793 -0.3024
17156DOD     C395289  27.374  23.824  15.993  0.2241 -0.1263  0.0671
17157DOD     C195290   9.533  19.139  10.372 -0.1953 -0.1329 -0.0226
17157DOD     C295291   9.459  18.687  10.257 -0.3130  0.1226 -0.0919
17157DOD     C395292   9.601  18.217  10.201 -0.1703 -0.2941  0.3663
17158DOD     C195293  12.311  28.294  13.329  0.0429  0.1195 -0.1452
17158DOD     C295294  12.235  28.731  13.281  0.2399 -0.1454  0.5785
17158DOD     C395295  12.296  29.172  13.092  0.0793 -0.0102 -0.2273
17159DOD     C195296  10.109  16.549   3.463 -0.0367  0.0861 -0.0215
17159DOD     C295297  10.409  16.859   3.671  0.2292  0.0961 -0.0522
17159DOD     C395298  10.556  17.320   3.662 -0.1276 -0.4208 -0.0513
17160DOD     C195299   8.515  12.668  25.865 -0.1843 -0.3092  0.0694
17160DOD     C295300   8.648  12.256  25.758  0.0893 -0.0261  0.1765
17160DOD     C395301   8.935  11.911  25.873  0.2082  0.1067 -0.0073
17161DOD     C195302  24.984   9.449   5.817  0.0935  0.0451  0.4117
17161DOD     C295303  24.646   9.576   5.425 -0.2602 -0.1888  0.0104
17161DOD     C395304  24.707  10.050   5.283  0.1812 -0.0886 -0.3135
17162DOD     C195305  17.541   9.118   4.481  0.1320 -0.2637 -0.3645
17162DOD     C295306  17.848   9.145   4.836 -0.0945 -0.3319 -0.0168
17162DOD     C395307  17.765   9.393   5.203  0.1185  0.3384 -0.2195
17163DOD     C195308  30.109  13.004  14.000 -0.1192  0.0733  0.1477
17163DOD     C295309  30.189  12.663  14.320  0.0415  0.4289  0.0968
17163DOD     C395310  30.291  12.261  14.635 -0.2642 -0.0456 -0.0349
17164DOD     C195311   3.524  26.391  12.050 -0.0181 -0.2970  0.1586
17164DOD     C295312   3.515  26.560  12.479  0.1647 -0.2146  0.1419
17164DOD     C395313   3.581  26.809  12.863  0.1932  0.1093 -0.0469
17165DOD     C195314  24.568  20.564  16.943 -0.0008  0.1698  0.0429
17165DOD     C295315  24.343  20.734  16.564 -0.2879  0.0852 -0.0163
17165DOD     C395316  24.144  21.180  16.595  0.0927 -0.1126 -0.1027
17166DOD     C195317   9.542  12.699   4.845 -0.1709  0.1897  0.0291
17166DOD     C295318   9.603  12.230   4.703  0.2428  0.0447 -0.1117
17166DOD     C395319   9.782  11.816   4.627 -0.0440 -0.2372  0.1899
17167DOD     C195320   2.882   5.516   0.550  0.3246  0.0513 -0.0116
17167DOD     C295321   2.945   5.746   0.953 -0.1252 -0.0866 -0.0769
17167DOD     C395322   3.125   6.154   0.909 -0.3841  0.2425 -0.0445
17168DOD     C195323   5.368   8.332   8.295 -0.0144  0.0405  0.2088
17168DOD     C295324   5.721   8.075   8.089 -0.0214 -0.0755  0.2654
17168DOD     C395325   6.187   8.154   8.071 -0.2757 -0.4855 -0.0532
17169DOD     C195326  20.853  22.345   9.827  0.2199 -0.0909  0.0399
17169DOD     C295327  20.959  22.251   9.443 -0.0048 -0.1581 -0.1066
17169DOD     C395328  21.018  21.801   9.148  0.1816 -0.0350 -0.0071
17170DOD     C195329  16.462   1.356  12.267 -0.0553  0.0505  0.0560
17170DOD     C295330  16.739   1.084  12.031  0.0673  0.1176  0.1056
17170DOD     C395331  17.182   0.866  12.000 -0.0544  0.0199 -0.1007
17171DOD     C195332   0.900  26.463   7.796 -0.0855 -0.2393 -0.0478
17171DOD     C295333   0.565  26.269   8.104 -0.0265 -0.0849  0.1392
17171DOD     C395334   0.248  25.980   8.274  0.0394  0.2044 -0.1552
17172DOD     C195335  28.899  27.425  11.461 -0.1843  0.0958 -0.1048
17172DOD     C295336  29.232  27.694  11.590  0.2305 -0.3234  0.2531
17172DOD     C395337  29.541  28.018  11.833 -0.2803  0.2544 -0.0720
17173DOD     C195338  10.606   8.205   5.006  0.2151  0.0535  0.3472
17173DOD     C295339  10.654   8.606   4.835 -0.5435 -0.1207 -0.1333
17173DOD     C395340  10.290   8.954   4.740  0.2167  0.1338 -0.0755
17174DOD     C195341  15.858  18.989   8.233 -0.3063  0.0083  0.3571
17174DOD     C295342  15.482  19.053   8.498  0.0196  0.0205 -0.1000
17174DOD     C395343  15.162  18.975   8.868 -0.0095  0.0901 -0.1006
17175DOD     C195344  14.345  20.008  17.846  0.1882  0.2385 -0.1008
17175DOD     C295345  14.129  19.968  17.377  0.0609  0.2094 -0.0696
17175DOD     C395346  14.117  19.576  17.091  0.0172  0.0499 -0.0642
17176DOD     C195347  25.268  24.619  19.175  0.2017 -0.0807  0.1764
17176DOD     C295348  25.759  24.457  19.244 -0.0564 -0.0203 -0.0012
17176DOD     C395349  26.148  24.255  19.385  0.0443 -0.2099 -0.0015
17177DOD     C195350   2.374   2.940  14.919 -0.0122  0.2068  0.1346
17177DOD     C295351   2.708   2.796  15.242 -0.2533  0.2712  0.3184
17177DOD     C395352   3.128   2.598  15.327 -0.0411  0.0521  0.0964
17178DOD     C195353  21.708  10.649   4.159  0.2596 -0.0225 -0.1101
17178DOD     C295354  22.036  10.705   3.823 -0.1308 -0.1683 -0.0074
17178DOD     C395355  22.192  11.014   3.523 -0.3576 -0.1026 -0.0654
17179DOD     C195356  10.646   4.310   5.457  0.0949  0.3336  0.0583
17179DOD     C295357  10.261   4.461   5.141 -0.0097  0.2469 -0.0223
17179DOD     C395358   9.975   4.865   5.280  0.4454 -0.1134  0.1512
17180DOD     C195359   4.316  15.734  15.937 -0.0069 -0.1707 -0.0239
17180DOD     C295360   4.754  15.576  15.782  0.2150  0.1253 -0.0571
17180DOD     C395361   4.959  15.224  15.847 -0.2306  0.0971 -0.1283
17181DOD     C195362   1.017   3.244  17.981 -0.0019 -0.2154  0.0115
17181DOD     C295363   1.181   3.375  17.544  0.0203 -0.0169  0.1098
17181DOD     C395364   0.990   3.688  17.194  0.0133 -0.1419 -0.1956
17182DOD     C195365  26.590   0.974  19.400  0.3069  0.4883  0.1103
17182DOD     C295366  26.777   1.126  19.776  0.0270 -0.1333 -0.0134
17182DOD     C395367  27.137   1.307  20.074 -0.0495  0.3662  0.1359
17183DOD     C195368   3.480  24.643  23.425  0.0359 -0.1262  0.0688
17183DOD     C295369   3.168  24.716  23.789 -0.1311  0.2108  0.3143
17183DOD     C395370   2.977  24.355  24.086  0.3089  0.1870 -0.1283
17184DOD     C195371  23.598  12.479   0.681 -0.1568  0.1503  0.0172
17184DOD     C295372  23.573  12.930   0.772 -0.0498 -0.3241  0.0308
17184DOD     C395373  23.518  13.292   1.111 -0.2675 -0.1638  0.0776
17185DOD     C195374  28.072   4.408  13.614 -0.0126 -0.2691  0.1990
17185DOD     C295375  28.210   4.147  13.949 -0.0536  0.0925 -0.0322
17185DOD     C395376  27.986   3.957  14.276  0.2093 -0.1215 -0.3584
17186DOD     C195377  12.696  14.578  21.833  0.0183  0.0749  0.0444
17186DOD     C295378  12.898  14.969  21.921 -0.0527 -0.0682 -0.0824
17186DOD     C395379  13.256  15.167  21.671  0.0250 -0.1346 -0.3054
17187DOD     C195380  18.913  16.002  18.677  0.2076  0.2254 -0.0917
17187DOD     C295381  18.761  16.222  19.064 -0.1776  0.3360 -0.0761
17187DOD     C395382  18.833  16.418  19.496  0.1883 -0.2559  0.0775
17188DOD     C195383   5.012   2.116  21.259  0.0868 -0.0810 -0.0338
17188DOD     C295384   5.479   2.167  21.254  0.2550  0.0243 -0.2486
17188DOD     C395385   5.813   1.936  21.194 -0.0611  0.0897  0.2113
17189DOD     C195386  13.936  14.587   5.821 -0.1790 -0.1767  0.0048
17189DOD     C295387  13.862  15.050   5.870 -0.2035  0.0367  0.2968
17189DOD     C395388  13.768  15.336   6.193 -0.2573  0.2786  0.1186
17190DOD     C195389   1.022  27.833  24.596 -0.1778 -0.0076  0.1983
17190DOD     C295390   0.788  27.990  24.949  0.0732 -0.1578  0.1846
17190DOD     C395391   0.684  28.004  25.427  0.4605  0.0701  0.1119
17191DOD     C195392   7.293  16.560  23.462  0.1095 -0.0369  0.1815
17191DOD     C295393   7.353  16.833  23.056 -0.2326  0.0633 -0.1218
17191DOD     C395394   7.330  17.294  23.010  0.3091 -0.0634  0.2621
17192DOD     C195395  20.675  14.068  19.600 -0.0437 -0.0570  0.1630
17192DOD     C295396  20.474  14.031  20.090  0.1863  0.1625  0.1124
17192DOD     C395397  20.360  14.129  20.590  0.0300 -0.0132  0.0165
17193DOD     C195398  16.129  23.699  21.074 -0.2498  0.1565  0.3071
17193DOD     C295399  15.989  23.233  20.960 -0.1009  0.0889  0.2159
17193DOD     C395400  15.627  22.942  20.943 -0.4317 -0.1152  0.2111
17194DOD     C195401  12.061   3.631  28.354 -0.1336 -0.3716  0.1326
17194DOD     C295402  12.372   3.653  28.663  0.1825 -0.3039 -0.0399
17194DOD     C395403  12.772   3.764  28.888 -0.1574 -0.0446 -0.0639
17195DOD     C195404   4.620  11.837  13.749 -0.2732  0.2645 -0.0152
17195DOD     C295405   4.970  11.599  13.973  0.0901  0.0031  0.0041
17195DOD     C395406   5.354  11.429  14.151  0.2005 -0.3241  0.5550
17196DOD     C195407  19.626  21.685  26.316 -0.0252  0.0461  0.1788
17196DOD     C295408  19.596  21.761  26.763 -0.1026  0.1969 -0.0188
17196DOD     C395409  19.794  21.562  27.184  0.1683  0.0049 -0.4472
17197DOD     C195410  19.081  20.663  29.331 -0.1943 -0.0187 -0.2693
17197DOD     C295411  18.781  20.517  29.019 -0.2538  0.1597 -0.0156
17197DOD     C395412  18.739  20.691  28.610 -0.0856  0.1157 -0.0013
17198DOD     C195413  27.843  26.156  11.943  0.0643 -0.2590 -0.0615
17198DOD     C295414  27.497  26.302  11.634  0.1303 -0.2968 -0.0052
17198DOD     C395415  27.484  26.436  11.198 -0.0635 -0.2350  0.1245
17199DOD     C195416   9.691   4.154  25.047  0.2635  0.2084 -0.0417
17199DOD     C295417   9.438   3.793  25.341 -0.0835  0.0439 -0.1277
17199DOD     C395418   9.046   3.574  25.587 -0.0727 -0.2352  0.1793
17200DOD     C195419   9.756  13.624   7.962  0.2112 -0.0901 -0.0292
17200DOD     C295420   9.325  13.355   7.904  0.0633 -0.2761  0.2761
17200DOD     C395421   8.898  13.266   8.019 -0.4193  0.0990  0.0158
17201DOD     C195422   0.989  27.526  23.855  0.1057  0.0069 -0.1404
17201DOD     C295423   1.044  27.391  24.286  0.0394 -0.1770  0.1861
17201DOD     C395424   0.700  27.466  24.566 -0.0581  0.0145  0.1443
17202DOD     C195425  24.167  12.366  28.836  0.0543  0.2758 -0.0616
17202DOD     C295426  24.028  12.030  28.504  0.1215 -0.2848 -0.1115
17202DOD     C395427  23.931  11.676  28.136 -0.0163 -0.0559 -0.1411
17203DOD     C195428   5.898   9.074  16.918 -0.0041  0.0315  0.0226
17203DOD     C295429   6.227   9.429  16.941 -0.1245  0.0114 -0.0130
17203DOD     C395430   6.278   9.819  17.192  0.0931 -0.1237  0.0889
17204DOD     C195431  15.796   4.199  22.930  0.0222 -0.1898  0.1168
17204DOD     C295432  15.800   3.904  23.254  0.1262  0.0709  0.0194
17204DOD     C395433  15.880   3.515  23.445 -0.3521 -0.2270 -0.1497
17205DOD     C195434  22.088  18.756  28.694 -0.1185 -0.2108 -0.2169
17205DOD     C295435  22.219  19.217  28.665  0.1325  0.0158  0.0003
17205DOD     C395436  22.312  19.505  28.298  0.0975  0.0397 -0.0671
17206DOD     C195437  21.284   6.091  27.825 -0.4363  0.0293  0.2488
17206DOD     C295438  21.159   6.445  28.120  0.0099 -0.2680 -0.2881
17206DOD     C395439  21.406   6.719  28.423  0.1071 -0.1923  0.0071
17207DOD     C195440   4.623   8.373  14.812  0.0527  0.0986 -0.0513
17207DOD     C295441   4.527   8.622  15.234 -0.2231  0.0339 -0.1917
17207DOD     C395442   4.470   8.935  15.571  0.2984 -0.0544  0.1380
17208DOD     C195443  10.029  14.073   8.381 -0.2680  0.1913 -0.2822
17208DOD     C295444  10.484  14.275   8.439 -0.1926 -0.1877 -0.2368
17208DOD     C395445  10.862  14.152   8.590 -0.1560 -0.0265  0.0071
17209DOD     C195446  20.394  26.733  10.611  0.0740  0.2913 -0.0540
17209DOD     C295447  20.057  26.958  10.418  0.3598 -0.1607 -0.0228
17209DOD     C395448  20.124  27.210  10.016  0.3538 -0.1566  0.0261
17210DOD     C195449  28.232  22.684   4.863  0.1408 -0.3439  0.3411
17210DOD     C295450  27.969  22.669   5.200 -0.0636  0.1905  0.1579
17210DOD     C395451  27.693  22.626   5.586  0.1323  0.2559 -0.0776
17211DOD     C195452   3.327  23.351   5.512 -0.2695 -0.0458  0.0903
17211DOD     C295453   3.372  23.541   5.887  0.2186 -0.1337 -0.1722
17211DOD     C395454   3.305  23.335   6.332  0.0276  0.3728  0.2707
17212DOD     C195455  16.115  14.446  18.385  0.2195 -0.0059  0.2534
17212DOD     C295456  16.246  14.019  18.525 -0.0520 -0.1561 -0.1212
17212DOD     C395457  16.678  13.908  18.772 -0.2012  0.3436  0.0198
17213DOD     C195458   6.936   8.459   2.785  0.0052  0.0253 -0.1682
17213DOD     C295459   6.564   8.212   2.475 -0.1282 -0.5801 -0.3043
17213DOD     C395460   6.423   7.836   2.172 -0.2582 -0.0173  0.2082
17214DOD     C195461  23.039  14.151   7.127  0.2973  0.3276  0.0166
17214DOD     C295462  23.352  14.503   7.212  0.2229  0.0195 -0.0112
17214DOD     C395463  23.655  14.519   6.851  0.2848 -0.0199 -0.0442
17215DOD     C195464  23.779   4.513  28.950  0.0621 -0.2000  0.0609
17215DOD     C295465  23.587   4.937  29.058  0.2724 -0.2288  0.1482
17215DOD     C395466  23.614   5.399  29.122  0.2571 -0.3577 -0.0719
17216DOD     C195467  20.450   6.214  23.688 -0.1184 -0.3142 -0.1198
17216DOD     C295468  20.855   6.306  23.499 -0.1947 -0.3740 -0.0286
17216DOD     C395469  21.260   6.547  23.505  0.1231  0.0257 -0.0332
17217DOD     C195470  25.875  19.780  18.108  0.1429 -0.1472  0.3482
17217DOD     C295471  26.318  19.911  18.322 -0.2708 -0.0099 -0.1134
17217DOD     C395472  26.447  20.218  18.616  0.2061 -0.1602  0.1830
17218DOD     C195473  10.573   8.524   9.851  0.0364 -0.0175  0.0468
17218DOD     C295474  10.920   8.832   9.733  0.1370 -0.1654 -0.3328
17218DOD     C395475  11.122   9.186   9.504  0.1822  0.0974 -0.1694
17219DOD     C195476   4.183   1.579   6.357  0.2208 -0.0702 -0.2649
17219DOD     C295477   4.552   1.299   6.245 -0.0613  0.1149  0.5299
17219DOD     C395478   4.838   0.986   6.102  0.0613 -0.0147 -0.4279
17220DOD     C195479  28.230  18.264  15.786  0.1609  0.0689 -0.0064
17220DOD     C295480  27.768  18.179  15.894  0.0441  0.0193  0.1489
17220DOD     C395481  27.511  18.103  16.293  0.0452 -0.1423  0.0765
17221DOD     C195482  16.400  29.477  13.658  0.1555  0.0458  0.0095
17221DOD     C295483  16.155  29.783  13.417 -0.2306 -0.2968  0.1040
17221DOD     C395484  16.030  30.206  13.280 -0.2191 -0.1011  0.4204
17222DOD     C195485   2.017   9.192  24.604 -0.1199  0.0902  0.0203
17222DOD     C295486   2.332   9.240  24.290  0.1029 -0.0707  0.2674
17222DOD     C395487   2.600   9.032  24.059 -0.0190  0.0008  0.1815
17223DOD     C195488  15.591  18.108   9.397 -0.2905 -0.1346 -0.3803
17223DOD     C295489  15.611  18.392   9.009 -0.0180 -0.3386 -0.5830
17223DOD     C395490  15.678  18.845   8.869  0.0631 -0.1436  0.4139
17224DOD     C195491   4.545  11.605  21.749 -0.0024 -0.0374  0.0873
17224DOD     C295492   4.457  11.717  21.324  0.2803 -0.4820 -0.0086
17224DOD     C395493   4.451  11.474  20.911 -0.0286  0.0026  0.1050
17225DOD     C195494  24.216  11.656   2.311 -0.2511  0.3475 -0.1731
17225DOD     C295495  24.079  11.514   1.895 -0.2344 -0.1658  0.0037
17225DOD     C395496  24.192  11.084   1.683 -0.1539  0.1038  0.1635
17226DOD     C195497   3.792  18.956   5.725 -0.2602  0.2428  0.1053
17226DOD     C295498   3.392  18.743   5.810  0.3094  0.1931  0.1042
17226DOD     C395499   2.951  18.671   5.721  0.1978  0.1118 -0.2013
17227DOD     C195500  16.352  21.137   6.267 -0.2306  0.1154  0.0651
17227DOD     C295501  16.310  21.008   6.678  0.1364  0.2471 -0.1714
17227DOD     C395502  16.253  21.002   7.202  0.1463 -0.2002 -0.2157
17228DOD     C195503  28.507   5.486   5.414 -0.1193 -0.0788 -0.2985
17228DOD     C295504  28.392   5.783   5.747 -0.0933 -0.0843 -0.1446
17228DOD     C395505  28.340   6.180   5.975 -0.2020 -0.1902  0.1350
17229DOD     C195506  19.374  14.155  24.770 -0.0687 -0.0491  0.1387
17229DOD     C295507  19.631  14.561  24.733  0.1946  0.2431 -0.0421
17229DOD     C395508  19.991  14.574  25.081 -0.2709 -0.3043 -0.2034
17230DOD     C195509   6.438  15.228  22.421  0.0901 -0.0314  0.1329
17230DOD     C295510   6.055  15.371  22.653 -0.0984 -0.0021 -0.1587
17230DOD     C395511   5.735  15.138  22.875  0.0988  0.1382 -0.0561
17231DOD     C195512  29.570  25.309  23.030  0.1908 -0.1301  0.2281
17231DOD     C295513  29.938  25.095  22.845 -0.0318  0.0008  0.0060
17231DOD     C395514  29.941  25.051  22.353  0.0388 -0.0776 -0.2864
17232DOD     C195515   7.174  15.099  12.360 -0.2601  0.1155 -0.2983
17232DOD     C295516   7.304  15.528  12.245 -0.1619  0.2735  0.2097
17232DOD     C395517   7.561  15.876  12.442 -0.1076  0.0332 -0.0700
17233DOD     C195518  29.004   0.980  14.515 -0.0570 -0.0373 -0.0380
17233DOD     C295519  29.043   0.824  14.930 -0.0691 -0.0151 -0.1150
17233DOD     C395520  29.214   0.611  15.352  0.0641 -0.1575 -0.3734
17234DOD     C195521  18.193  10.474   2.948  0.0149 -0.2109 -0.0194
17234DOD     C295522  18.587  10.723   3.034  0.1561 -0.0535  0.0153
17234DOD     C395523  18.710  11.138   3.103  0.1316 -0.1589  0.0466
17235DOD     C195524   4.244   2.787  28.873  0.2324 -0.1396  0.2051
17235DOD     C295525   4.415   3.137  28.625  0.3606  0.1013 -0.2654
17235DOD     C395526   4.673   3.546  28.595  0.3632 -0.1200  0.1414
17236DOD     C195527   1.179  27.721  23.432 -0.0270  0.2314 -0.1261
17236DOD     C295528   0.907  28.043  23.578  0.2734  0.2937  0.3261
17236DOD     C395529   0.677  28.089  23.985  0.0139  0.3471  0.0345
17237DOD     C195530  17.237   8.840   5.628  0.3210  0.4000  0.0851
17237DOD     C295531  17.321   8.528   5.283 -0.5035 -0.3069 -0.4559
17237DOD     C395532  17.495   8.344   4.892  0.1968 -0.3887  0.0740
17238DOD     C195533  11.443  25.968   0.111 -0.2693 -0.0952  0.1192
17238DOD     C295534  10.992  25.920   0.032 -0.2634 -0.1297  0.0307
17238DOD     C395535  10.640  26.161  30.306  0.0198  0.1746  0.2143
17239DOD     C195536  27.525   2.253  11.361 -0.0127 -0.0364 -0.2436
17239DOD     C295537  27.236   1.964  11.116 -0.0412  0.2315  0.0410
17239DOD     C395538  27.026   1.827  10.712 -0.2453 -0.1483  0.1059
17240DOD     C195539  24.601  12.442  18.680 -0.2169  0.1935 -0.2272
17240DOD     C295540  24.777  12.559  18.280 -0.2858  0.1166 -0.0624
17240DOD     C395541  24.955  12.430  17.831  0.1666 -0.1658 -0.0631
17241DOD     C195542  23.911   7.686  15.270  0.1873 -0.0663  0.1580
17241DOD     C295543  23.527   7.915  15.371  0.0997 -0.0302  0.4607
17241DOD     C395544  23.156   8.096  15.579 -0.4751 -0.2733  0.4235
17242DOD     C195545  13.792   7.936  26.926 -0.1582 -0.1987 -0.3389
17242DOD     C295546  13.564   7.550  26.994  0.1065 -0.1650  0.2811
17242DOD     C395547  13.265   7.211  27.055 -0.3163 -0.1255  0.0913
17243DOD     C195548  11.808   7.226  24.806 -0.1171 -0.2743 -0.3941
17243DOD     C295549  11.421   7.169  25.060 -0.3174  0.0646  0.3565
17243DOD     C395550  11.187   7.476  25.222  0.0678 -0.5046  0.2815
17244DOD     C195551  26.201   4.938  24.497 -0.2666  0.2077 -0.3232
17244DOD     C295552  26.121   4.855  24.035 -0.0469 -0.1499 -0.3059
17244DOD     C395553  26.495   4.737  23.737 -0.2471 -0.1536 -0.1117
17245DOD     C195554   4.315   0.690  16.216  0.0485 -0.1955  0.3729
17245DOD     C295555   3.901   0.755  15.973 -0.3481  0.3281 -0.0032
17245DOD     C395556   3.462   0.665  15.839 -0.0033  0.1816  0.3336
17246DOD     C195557  10.451   0.874  15.277 -0.1405 -0.0558  0.3060
17246DOD     C295558  10.623   0.559  15.554 -0.2843  0.1319  0.3050
17246DOD     C395559  10.990   0.618  15.851  0.4897 -0.2084 -0.0322
17247DOD     C195560  10.206  20.818  21.720  0.2634 -0.0756 -0.2131
17247DOD     C295561  10.562  20.992  21.884 -0.3116  0.0381  0.1307
17247DOD     C395562  10.931  21.150  22.153 -0.2129  0.0864 -0.2791
17248DOD     C195563  24.917   2.070   9.200 -0.2924 -0.1900  0.1213
17248DOD     C295564  25.294   2.306   9.134  0.0090  0.0148  0.1428
17248DOD     C395565  25.679   2.541   9.226 -0.0293  0.0100  0.0796
17249DOD     C195566  18.608   1.869  18.781 -0.0063 -0.0470  0.1856
17249DOD     C295567  18.324   2.104  19.052 -0.0528  0.3568 -0.1191
17249DOD     C395568  18.160   2.535  19.220  0.0792  0.1378 -0.2032
17250DOD     C195569  27.279  20.922  17.917  0.2275 -0.2789 -0.1344
17250DOD     C295570  27.672  20.693  18.078 -0.0874 -0.1552  0.2863
17250DOD     C395571  27.987  20.509  17.741  0.1560  0.1900  0.1361
17251DOD     C195572   4.700   5.005  16.363 -0.0708  0.0975 -0.1103
17251DOD     C295573   4.951   5.132  15.970 -0.1594 -0.0297  0.1635
17251DOD     C395574   5.103   5.226  15.556  0.0359  0.0299  0.1424
17252DOD     C195575  21.177  10.656  29.705 -0.0041 -0.1456 -0.0606
17252DOD     C295576  21.430  10.327  29.902 -0.3180 -0.0464 -0.1938
17252DOD     C395577  21.871  10.258  30.094 -0.3212  0.0869  0.2049
17253DOD     C195578  11.165  17.312   7.201 -0.0994 -0.0220 -0.1184
17253DOD     C295579  10.969  17.595   7.465  0.0741 -0.3303  0.2114
17253DOD     C395580  10.860  17.997   7.662 -0.0534  0.0955  0.3366
17254DOD     C195581  10.759   5.791  17.628  0.2348 -0.2426 -0.0771
17254DOD     C295582  10.522   5.785  18.022 -0.4674 -0.1390  0.1776
17254DOD     C395583  10.176   6.048  18.213 -0.2921  0.1118  0.0684
17255DOD     C195584  24.767  17.894   1.900 -0.2071 -0.0443 -0.2506
17255DOD     C295585  24.387  17.882   1.684  0.3256  0.3332 -0.0028
17255DOD     C395586  24.209  17.717   1.233  0.0657  0.1007 -0.0397
17256DOD     C195587  27.795  14.532   7.331 -0.3463  0.0858 -0.3238
17256DOD     C295588  28.171  14.324   7.538 -0.0403  0.0013 -0.1634
17256DOD     C395589  28.422  13.917   7.553 -0.1365  0.0747  0.0550
17257DOD     C195590  21.877   8.853  13.648  0.2253 -0.0673  0.1135
17257DOD     C295591  22.271   8.967  13.651  0.0489 -0.0202  0.0533
17257DOD     C395592  22.670   9.015  13.405  0.0350  0.0987 -0.0815
17258DOD     C195593  10.888  16.903   1.692 -0.1348 -0.2604 -0.0609
17258DOD     C295594  10.541  16.749   1.436  0.0426 -0.0488 -0.3407
17258DOD     C395595  10.233  16.643   1.095 -0.1703  0.1223 -0.1803
17259DOD     C195596  22.233  17.566  29.552  0.0357  0.1668 -0.0991
17259DOD     C295597  22.575  17.694  29.333 -0.4014 -0.2854 -0.3696
17259DOD     C395598  22.908  18.040  29.438  0.4458 -0.0362 -0.0671
17260DOD     C195599   3.225   9.691  11.262  0.0978 -0.2047  0.0708
17260DOD     C295600   3.251   9.318  11.565 -0.2847  0.1702  0.2248
17260DOD     C395601   3.308   8.953  11.841  0.1852  0.0629  0.0745
17261DOD     C195602   3.684  18.892  11.025  0.0320 -0.1630  0.0702
17261DOD     C295603   3.289  18.631  11.090 -0.2125 -0.3006 -0.0027
17261DOD     C395604   2.814  18.674  11.089 -0.3186 -0.0062 -0.0351
17262DOD     C195605   6.487  29.430  19.352  0.1826  0.3051  0.4461
17262DOD     C295606   6.621  29.868  19.305 -0.2142 -0.1426  0.2033
17262DOD     C395607   6.760  30.257  19.449  0.1471  0.1230 -0.0337
17263DOD     C195608  18.780  17.075  12.442  0.0335  0.1660  0.0525
17263DOD     C295609  18.514  17.149  12.804 -0.1315 -0.1398  0.0837
17263DOD     C395610  18.348  17.348  13.200 -0.1756 -0.1576 -0.0452
17264DOD     C195611  30.152  19.981   9.008 -0.2852  0.0192 -0.0387
17264DOD     C295612   0.136  19.766   9.251 -0.2545  0.3165  0.1572
17264DOD     C395613   0.426  19.673   9.600 -0.1320 -0.1413 -0.2602
17265DOD     C195614  28.093  26.894  14.349 -0.1958  0.1440  0.0705
17265DOD     C295615  27.722  26.612  14.521 -0.0773  0.1142 -0.0629
17265DOD     C395616  27.303  26.412  14.621  0.1835 -0.1219  0.2039
17266DOD     C195617  14.020  10.635   1.793  0.0339  0.1336  0.0640
17266DOD     C295618  14.397  10.368   1.676  0.0358  0.3079  0.1402
17266DOD     C395619  14.689  10.073   1.478  0.1485  0.0162 -0.0766
17267DOD     C195620  15.269  17.735   3.129  0.2531  0.0197  0.0696
17267DOD     C295621  14.856  17.597   2.971  0.0287 -0.0204 -0.0512
17267DOD     C395622  14.555  17.206   2.885 -0.0197  0.0798  0.0832
17268DOD     C195623   4.073   6.367   4.583  0.1783  0.0419 -0.0080
17268DOD     C295624   3.827   6.358   4.973  0.2121  0.1597 -0.2015
17268DOD     C395625   3.561   6.217   5.319 -0.3331  0.0675  0.0741
17269DOD     C195626   9.200   7.742   5.724  0.0345  0.1049  0.0668
17269DOD     C295627   9.003   7.551   6.067 -0.0471  0.1145  0.0407
17269DOD     C395628   8.848   7.566   6.490 -0.3587 -0.0058 -0.2012
17270DOD     C195629  24.727   1.281  22.964 -0.0520 -0.2102 -0.0249
17270DOD     C295630  25.094   1.159  23.195  0.0205  0.0215 -0.1375
17270DOD     C395631  25.256   0.982  23.560  0.1920  0.0584 -0.2535
17271DOD     C195632  20.600  18.482   4.148 -0.0348 -0.3033 -0.0346
17271DOD     C295633  20.849  18.805   3.953 -0.1880  0.0944  0.1407
17271DOD     C395634  21.129  18.905   3.648 -0.2125 -0.0068  0.5001
17272DOD     C195635  27.105  12.527  21.651  0.0978 -0.2223  0.2736
17272DOD     C295636  27.346  12.629  22.055 -0.0953 -0.0428 -0.1185
17272DOD     C395637  27.557  12.371  22.392  0.3503 -0.1566 -0.1678
17273DOD     C195638  11.428   9.763  21.859  0.0450 -0.1148  0.1789
17273DOD     C295639  11.873   9.663  22.046 -0.1657 -0.1172  0.2605
17273DOD     C395640  12.325   9.839  22.113  0.0293  0.0861  0.0484
17274DOD     C195641  11.570  16.471   0.855  0.1739  0.0724 -0.3700
17274DOD     C295642  11.823  16.566   1.225 -0.2259  0.1614 -0.1076
17274DOD     C395643  11.860  16.729   1.643  0.1006 -0.3047  0.0314
17275DOD     C195644  28.691   5.470  27.706  0.1376  0.1974  0.3229
17275DOD     C295645  28.657   5.142  28.054  0.1434  0.1827 -0.2880
17275DOD     C395646  28.724   4.859  28.446  0.0607  0.2220  0.1926
17276DOD     C195647   6.606  15.500  30.295  0.0967 -0.0237 -0.0451
17276DOD     C295648   6.550  15.942   0.176 -0.2026  0.3038 -0.2723
17276DOD     C395649   6.698  16.343   0.313 -0.5458  0.2493  0.0440
17277DOD     C195650   1.380   7.650   9.002 -0.1614  0.0193 -0.1773
17277DOD     C295651   1.392   7.405   9.448  0.5839  0.0572  0.4862
17277DOD     C395652   1.474   7.326   9.907  0.1337 -0.0590  0.1426
17278DOD     C195653  26.171  11.394  11.722 -0.0174  0.0258  0.2367
17278DOD     C295654  26.207  11.467  11.200 -0.2143  0.2585  0.0995
17278DOD     C395655  26.024  11.778  10.919  0.1599 -0.1938 -0.0681
17279DOD     C195656  19.880   4.396   8.166  0.2011 -0.0102 -0.0505
17279DOD     C295657  20.069   4.219   8.599  0.1611  0.0638 -0.4399
17279DOD     C395658  20.004   4.198   9.058  0.0372 -0.0346 -0.1131
17280DOD     C195659  17.247   7.815   8.633 -0.0545  0.0189  0.0450
17280DOD     C295660  17.358   7.383   8.789 -0.2139  0.2413 -0.1535
17280DOD     C395661  17.285   6.947   8.934  0.0568  0.1281  0.1589
17281DOD     C195662  11.622  15.327   7.849 -0.1229 -0.0165  0.1699
17281DOD     C295663  12.105  15.258   7.875  0.0806 -0.2210  0.2010
17281DOD     C395664  12.532  15.262   7.799 -0.1324  0.2141 -0.1319
17282DOD     C195665   5.228  10.654  22.701  0.0023 -0.0053 -0.0692
17282DOD     C295666   5.469  10.439  22.354  0.0872 -0.0465  0.2351
17282DOD     C395667   5.284  10.369  21.911 -0.0753 -0.0405 -0.0508
17283DOD     C195668  18.342  22.105  20.451 -0.0617 -0.0147 -0.3404
17283DOD     C295669  18.384  22.282  20.043  0.2193  0.1617 -0.1607
17283DOD     C395670  18.224  22.332  19.628  0.0448  0.0885  0.0151
17284DOD     C195671   2.770  15.867  27.684 -0.0580  0.3072  0.0127
17284DOD     C295672   2.653  15.908  28.079 -0.1053  0.2449 -0.1409
17284DOD     C395673   2.747  15.847  28.514  0.0827  0.0413 -0.3083
17285DOD     C195674   7.366   1.859  23.537 -0.1374 -0.2452  0.3793
17285DOD     C295675   7.122   2.255  23.399 -0.2084  0.0224  0.0030
17285DOD     C395676   6.714   2.513  23.437 -0.0740  0.2441 -0.1238
17286DOD     C195677  10.039  13.695  29.361 -0.0371 -0.1091  0.0343
17286DOD     C295678  10.175  13.712  29.837 -0.1204  0.0214 -0.2208
17286DOD     C395679  10.071  13.807  30.290 -0.3821 -0.0993 -0.0135
17287DOD     C195680  28.473  24.056  14.657  0.1452 -0.0528 -0.3570
17287DOD     C295681  28.827  24.086  14.948  0.0293 -0.2911  0.6052
17287DOD     C395682  29.254  24.270  15.048  0.1528 -0.4431  0.0287
17288DOD     C195683  10.273  27.594   8.952  0.1629  0.0755 -0.1694
17288DOD     C295684  10.551  27.230   9.150 -0.3894 -0.2015 -0.1366
17288DOD     C395685  10.615  26.775   9.282  0.2089 -0.0735 -0.2549
17289DOD     C195686   4.516  25.367  11.244  0.1207 -0.2198  0.0630
17289DOD     C295687   4.696  24.962  11.469  0.0585  0.0503 -0.0507
17289DOD     C395688   4.791  24.898  11.912 -0.1861  0.2350  0.0324
17290DOD     C195689   1.180  10.578  12.425  0.0536 -0.1182  0.1589
17290DOD     C295690   1.063  10.831  12.819  0.2643  0.0355  0.1044
17290DOD     C395691   1.017  10.607  13.254  0.1203  0.0125 -0.0189
17291DOD     C195692   7.458   4.366  12.715  0.1394  0.2309 -0.1076
17291DOD     C295693   7.831   4.518  12.495 -0.0584 -0.0315  0.1182
17291DOD     C395694   8.207   4.768  12.455  0.1916  0.0387  0.0834
17292DOD     C195695  20.571  12.543   0.258 -0.0564 -0.2235 -0.1745
17292DOD     C295696  20.850  12.514  30.198 -0.2731 -0.0520  0.1592
17292DOD     C395697  21.044  12.948  30.081 -0.0593 -0.2945 -0.2489
17293DOD     C195698  25.020  26.607  11.306  0.1880  0.0049  0.2433
17293DOD     C295699  25.067  26.466  11.776 -0.2933 -0.1262 -0.1045
17293DOD     C395700  25.007  26.360  12.235 -0.1963 -0.0046  0.0213
17294DOD     C195701  25.497   8.453  17.269  0.5935 -0.0978 -0.0586
17294DOD     C295702  25.620   8.508  17.732 -0.0244  0.0701 -0.1534
17294DOD     C395703  25.981   8.371  17.961 -0.0662  0.1268 -0.1952
17295DOD     C195704   5.782   6.722  16.677 -0.0132  0.1096 -0.2720
17295DOD     C295705   5.793   6.325  16.354  0.3475 -0.2440  0.0291
17295DOD     C395706   6.037   6.057  16.050  0.3137  0.2461 -0.0159
17296DOD     C195707  17.868  26.731   3.914 -0.0573 -0.0118  0.3866
17296DOD     C295708  18.027  26.898   3.465  0.4617  0.3083  0.0770
17296DOD     C395709  17.978  27.204   3.118  0.2723  0.1539  0.1751
17297DOD     C195710   8.058   4.509   7.844  0.0302  0.2513 -0.0424
17297DOD     C295711   7.606   4.603   7.960 -0.5132  0.2574  0.2645
17297DOD     C395712   7.199   4.621   8.179 -0.1393 -0.1493  0.2038
17298DOD     C195713  30.136  30.063  24.559 -0.3578 -0.3535 -0.0525
17298DOD     C295714  30.115  30.289  24.182 -0.2468  0.4344  0.1709
17298DOD     C395715  30.131  30.190  23.734  0.4327  0.1921  0.0143
17299DOD     C195716  26.102  30.020   5.828  0.0501  0.1569  0.0809
17299DOD     C295717  25.914   0.108   6.021  0.5215  0.3670 -0.0513
17299DOD     C395718  25.736   0.525   5.995 -0.2498 -0.0576 -0.2173
17300DOD     C195719  27.819  15.176   4.498 -0.0297  0.0855  0.0759
17300DOD     C295720  27.493  14.850   4.366  0.2392  0.0861 -0.1260
17300DOD     C395721  26.998  14.864   4.405 -0.2131 -0.3092 -0.0808
17301DOD     C195722  28.371   3.061   7.660 -0.0041  0.2703  0.0297
17301DOD     C295723  27.938   2.995   7.542  0.5269 -0.0479 -0.3646
17301DOD     C395724  27.671   3.358   7.422 -0.0986  0.1148 -0.0916
17302DOD     C195725  27.910   8.857  29.583 -0.4288  0.4027  0.0999
17302DOD     C295726  27.803   8.640  29.190 -0.1915  0.2601  0.0034
17302DOD     C395727  27.788   8.504  28.783 -0.0383  0.0331  0.1686
17303DOD     C195728   6.755   2.559  16.660 -0.0476 -0.1627 -0.3030
17303DOD     C295729   6.590   2.623  17.148 -0.1806  0.2710 -0.1290
17303DOD     C395730   6.570   2.318  17.431 -0.1156  0.3240 -0.3036
17304DOD     C195731  17.880   1.350   5.417  0.1662 -0.2619 -0.3889
17304DOD     C295732  17.922   1.248   4.955 -0.1602 -0.2964 -0.0897
17304DOD     C395733  18.011   1.209   4.507  0.0582 -0.0119  0.1336
17305DOD     C195734   8.684  21.562  13.546  0.1562  0.1529 -0.3723
17305DOD     C295735   8.686  21.777  13.134  0.3335  0.0334 -0.0492
17305DOD     C395736   8.609  21.831  12.695 -0.2489  0.1568 -0.1102
17306DOD     C195737   9.702   9.525  24.194  0.0399 -0.2869  0.1535
17306DOD     C295738   9.562   9.174  23.967 -0.2204  0.1459 -0.0984
17306DOD     C395739   9.649   8.875  23.672  0.1109 -0.0360  0.2523
17307DOD     C195740   8.378  28.987  12.389 -0.1581 -0.0839  0.1287
17307DOD     C295741   8.827  28.991  12.336 -0.2104  0.1150 -0.0966
17307DOD     C395742   9.205  29.053  12.611 -0.1418 -0.0215  0.3405
17308DOD     C195743  10.773  13.146  25.746  0.0052 -0.3652 -0.1911
17308DOD     C295744  10.586  13.532  25.723  0.3173 -0.0992  0.0427
17308DOD     C395745  10.327  13.987  25.702  0.1279  0.0829 -0.0387
17309DOD     C195746  20.535   0.992  24.874  0.0541  0.0981 -0.0859
17309DOD     C295747  20.878   1.029  25.181 -0.1718  0.2452 -0.0390
17309DOD     C395748  20.981   1.237  25.588 -0.1765 -0.2420 -0.3484
17310DOD     C195749  10.544  21.769  17.196 -0.1559  0.0100  0.0731
17310DOD     C295750  10.770  21.985  17.513 -0.1953  0.2324  0.1935
17310DOD     C395751  10.653  21.946  17.950  0.0783  0.1647  0.3706
17311DOD     C195752  23.829  20.172   3.991  0.0605  0.1658  0.0635
17311DOD     C295753  23.910  19.889   3.611 -0.2397  0.1281  0.0231
17311DOD     C395754  23.937  19.896   3.189  0.2175 -0.0641  0.1771
17312DOD     C195755  17.981  15.940  12.450 -0.2793 -0.0359 -0.2742
17312DOD     C295756  18.148  16.347  12.725 -0.0272  0.1500 -0.0524
17312DOD     C395757  18.299  16.656  13.006  0.0402  0.0023 -0.0724
17313DOD     C195758   4.526   1.074  30.057  0.0763 -0.0889  0.0691
17313DOD     C295759   4.914   0.819  29.956  0.2700  0.1571  0.1432
17313DOD     C395760   4.989   0.392  29.725  0.2896  0.4189  0.0621
17314DOD     C195761  13.244   7.303  26.389  0.0234  0.3167 -0.2339
17314DOD     C295762  13.231   7.740  26.138 -0.3180  0.2014 -0.0871
17314DOD     C395763  13.237   8.181  26.037 -0.0015  0.1524 -0.1476
17315DOD     C195764  16.445  13.613  13.806 -0.0601 -0.1153  0.0962
17315DOD     C295765  16.868  13.869  13.879  0.3251  0.5302  0.0599
17315DOD     C395766  17.205  14.156  13.854 -0.2618 -0.1680 -0.0276
17316DOD     C195767   3.167   7.222   8.295 -0.4999 -0.0210  0.0229
17316DOD     C295768   3.192   7.668   8.429  0.2003  0.1156 -0.0160
17316DOD     C395769   3.459   7.917   8.787  0.0210  0.0694  0.1041
17317DOD     C195770   0.349  13.076  12.085  0.2053 -0.1805 -0.1467
17317DOD     C295771  -0.023  13.184  11.718 -0.1669  0.4397 -0.2893
17317DOD     C395772  30.232  13.465  11.359 -0.1649  0.0376  0.5186
17318DOD     C195773  21.854   6.712  28.835 -0.1928  0.0534  0.0438
17318DOD     C295774  21.958   7.142  28.993  0.3343  0.1517 -0.1626
17318DOD     C395775  22.323   7.242  29.275  0.0852 -0.2349 -0.2989
17319DOD     C195776  19.249   9.042   9.979  0.1706  0.1356  0.1097
17319DOD     C295777  19.735   9.184  10.086 -0.1756  0.1144 -0.1785
17319DOD     C395778  20.116   8.967  10.244 -0.1367 -0.3565  0.3747
17320DOD     C195779   0.125  29.159   3.170 -0.3943 -0.0455 -0.2167
17320DOD     C295780   0.366  28.776   3.433  0.0241 -0.1300  0.1243
17320DOD     C395781   0.728  28.889   3.692 -0.0048 -0.1106  0.1766
17321DOD     C195782   5.323   3.053   4.072  0.2639 -0.0020 -0.0624
17321DOD     C295783   5.179   3.453   3.984  0.1962 -0.2233  0.1694
17321DOD     C395784   4.834   3.665   4.025  0.0399 -0.2922  0.0009
17322DOD     C195785  17.486  29.522  10.798  0.0566 -0.2209  0.2297
17322DOD     C295786  17.256  29.196  11.009  0.1016  0.1998  0.0467
17322DOD     C395787  17.252  29.038  11.447 -0.0221 -0.0088  0.2882
17323DOD     C195788  10.340  27.796  21.274 -0.0848 -0.0899  0.0877
17323DOD     C295789  10.172  27.351  21.232 -0.2318 -0.2064 -0.1526
17323DOD     C395790   9.777  27.157  20.988  0.1403 -0.0150 -0.1845
17324DOD     C195791  15.554  28.485  26.978  0.1057  0.0072  0.1347
17324DOD     C295792  15.231  28.724  26.729  0.1637 -0.1300 -0.2427
17324DOD     C395793  14.981  29.079  26.491  0.4329  0.0404  0.3108
17325DOD     C195794  23.752  18.069   3.690 -0.3484  0.0414 -0.0001
17325DOD     C295795  23.573  18.148   3.295 -0.1378 -0.3412  0.2588
17325DOD     C395796  23.412  18.452   3.017 -0.1277  0.0277 -0.0849
17326DOD     C195797   0.882  17.250   8.773 -0.1745 -0.1877 -0.3976
17326DOD     C295798   0.876  17.658   8.975  0.0027 -0.0743  0.2063
17326DOD     C395799   0.783  18.072   9.082  0.0794  0.2374  0.1443
17327DOD     C195800   2.677  19.974  22.463 -0.0905  0.1913  0.1200
17327DOD     C295801   2.476  19.665  22.746  0.1975  0.0429 -0.3545
17327DOD     C395802   2.265  19.354  23.068  0.1653 -0.0972  0.0860
17328DOD     C195803  12.760  19.332  13.442 -0.0848 -0.1098  0.1045
17328DOD     C295804  12.770  19.645  13.815 -0.0167  0.2770  0.0142
17328DOD     C395805  12.691  19.642  14.316 -0.0602  0.0754 -0.0020
17329DOD     C195806  12.793  16.642  28.436  0.0120  0.1039  0.0348
17329DOD     C295807  13.132  16.466  28.170  0.0895  0.0953 -0.2520
17329DOD     C395808  13.195  16.196  27.788  0.1214 -0.0655 -0.1709
17330DOD     C195809  28.575  16.402  24.063  0.0914 -0.0187 -0.1159
17330DOD     C295810  28.578  16.320  23.590 -0.1213  0.0091 -0.2176
17330DOD     C395811  28.378  16.540  23.205  0.2730 -0.1211  0.0089
17331DOD     C195812  15.067   6.988  16.195  0.3310 -0.2552  0.1655
17331DOD     C295813  15.518   6.896  15.939  0.2082 -0.2382 -0.3215
17331DOD     C395814  15.817   6.490  15.786  0.0301  0.2405  0.1314
17332DOD     C195815   5.202   4.048   8.864  0.2020 -0.2065 -0.0544
17332DOD     C295816   4.908   3.925   9.209 -0.2453  0.1128  0.0287
17332DOD     C395817   4.827   3.958   9.681  0.2836 -0.4344 -0.3260
17333DOD     C195818   2.483   7.966  25.914 -0.2116 -0.2806  0.1449
17333DOD     C295819   2.599   7.627  25.603  0.0517 -0.0948  0.0133
17333DOD     C395820   2.558   7.421  25.214 -0.3379  0.2583 -0.0679
17334DOD     C195821  27.030  18.204  19.705  0.1063 -0.0836 -0.1511
17334DOD     C295822  27.265  17.845  19.965 -0.4810 -0.1321  0.0307
17334DOD     C395823  27.025  17.450  20.015 -0.0912  0.2489 -0.2491
17335DOD     C195824  23.370  23.300  18.418 -0.1712  0.0684 -0.3775
17335DOD     C295825  23.149  23.671  18.118  0.1407 -0.0027 -0.0286
17335DOD     C395826  23.237  24.152  18.197  0.0663 -0.3037 -0.4386
17336DOD     C195827  25.391   9.757  28.664  0.0838  0.0842 -0.0515
17336DOD     C295828  25.664   9.811  29.031 -0.1866  0.0884 -0.2183
17336DOD     C395829  25.853  10.199  29.188  0.2331 -0.3437 -0.1965
17337DOD     C195830  21.107   1.150  10.431 -0.1960  0.2609  0.2496
17337DOD     C295831  21.544   1.025  10.339 -0.2083 -0.0574  0.0373
17337DOD     C395832  21.935   1.275  10.202  0.4735  0.1759 -0.4417
17338DOD     C195833  18.850  21.178   5.499 -0.1082  0.2775 -0.2407
17338DOD     C295834  18.926  20.992   5.055 -0.1015 -0.0914  0.0551
17338DOD     C395835  19.127  20.744   4.720 -0.1648 -0.0664 -0.4040
17339DOD     C195836   7.213  28.692  12.453  0.1597  0.2179 -0.0779
17339DOD     C295837   7.140  29.083  12.181  0.2675 -0.0309  0.0660
17339DOD     C395838   6.964  29.483  11.970  0.1192 -0.1139 -0.0122
17340DOD     C195839   2.878   7.810  24.665 -0.1734  0.0771 -0.2075
17340DOD     C295840   2.612   7.862  25.003 -0.0251 -0.0315 -0.1500
17340DOD     C395841   2.253   7.935  25.300 -0.0448 -0.1023  0.1925
17341DOD     C195842  21.981  29.731  22.256 -0.0553  0.2718 -0.0993
17341DOD     C295843  22.212  29.647  21.874  0.0666  0.0344 -0.4074
17341DOD     C395844  22.420  29.678  21.455  0.1203 -0.1162  0.0756
17342DOD     C195845  22.526  17.842  25.007 -0.1386  0.3495 -0.1116
17342DOD     C295846  22.156  17.732  24.773 -0.0910  0.1459 -0.0648
17342DOD     C395847  22.063  17.779  24.340  0.0302  0.0211  0.0436
17343DOD     C195848   3.986  18.693  14.636  0.0073 -0.1132  0.2817
17343DOD     C295849   4.198  18.302  14.409  0.0765  0.1077 -0.0582
17343DOD     C395850   4.374  18.011  14.158 -0.2633  0.4036 -0.1493
17344DOD     C195851   8.235  17.800  13.546  0.1516  0.1474  0.0741
17344DOD     C295852   8.686  17.934  13.627  0.0324 -0.0496 -0.2595
17344DOD     C395853   8.920  18.331  13.564  0.1159  0.1764 -0.0601
17345DOD     C195854   9.880  26.525  28.346  0.3467 -0.0984 -0.0921
17345DOD     C295855  10.303  26.649  28.483 -0.3588  0.2594 -0.0382
17345DOD     C395856  10.764  26.687  28.540  0.1513 -0.1726  0.1775
17346DOD     C195857   3.620  13.279   0.718 -0.4298  0.2200  0.0180
17346DOD     C295858   3.387  13.681   0.908  0.1427  0.1765  0.3198
17346DOD     C395859   3.238  13.963   0.591  0.0292 -0.0861  0.1018
17347DOD     C195860  19.160  24.816   9.372 -0.0064  0.0827 -0.5970
17347DOD     C295861  19.394  24.764   8.977  0.0714 -0.2951  0.0371
17347DOD     C395862  19.640  24.487   8.684 -0.1001 -0.0072 -0.0643
17348DOD     C195863  30.059   7.029   7.168  0.2499  0.1462 -0.1453
17348DOD     C295864   0.001   6.775   7.438 -0.1731  0.1865 -0.2448
17348DOD     C395865   0.382   6.683   7.648 -0.0354 -0.1757  0.3378
17349DOD     C195866  14.718  20.388   1.070  0.3775  0.1395  0.3528
17349DOD     C295867  14.391  20.666   0.891  0.0668 -0.2152 -0.3383
17349DOD     C395868  13.966  20.781   0.784 -0.1256 -0.2197  0.0117
17350DOD     C195869  25.779   3.298   6.425  0.0055  0.2897  0.0433
17350DOD     C295870  25.950   2.958   6.743 -0.1262  0.2054 -0.1865
17350DOD     C395871  26.411   2.810   6.776 -0.0077 -0.0560  0.0541
17351DOD     C195872   9.052   3.785   7.428 -0.1112 -0.0089 -0.2258
17351DOD     C295873   8.976   4.226   7.577 -0.0691  0.0581 -0.0985
17351DOD     C395874   9.045   4.705   7.653  0.1406  0.0227 -0.3165
17352DOD     C195875  26.567   2.440  23.304 -0.1038 -0.2241  0.2615
17352DOD     C295876  26.649   2.374  22.837  0.4011  0.1979 -0.3262
17352DOD     C395877  26.647   2.222  22.395  0.0725  0.1136  0.0574
17353DOD     C195878  14.050  21.334  21.080  0.0050 -0.1220  0.0024
17353DOD     C295879  13.816  21.039  21.403 -0.4336  0.0290  0.1075
17353DOD     C395880  13.606  20.838  21.866 -0.1631 -0.1231  0.4220
17354DOD     C195881  11.724   9.687   2.854 -0.0849  0.0443  0.0138
17354DOD     C295882  11.500   9.301   2.903 -0.2353 -0.2655  0.1985
17354DOD     C395883  11.483   8.909   3.156 -0.3039 -0.0487  0.1269
17355DOD     C195884  26.173  18.892  20.675 -0.0949 -0.1691  0.0115
17355DOD     C295885  26.190  18.404  20.804  0.2431  0.0396  0.1140
17355DOD     C395886  26.145  18.098  20.506  0.0796  0.0369  0.0350
17356DOD     C195887   0.049   1.526  22.104 -0.3928 -0.1507  0.1955
17356DOD     C295888  30.163   1.896  21.872  0.1990 -0.1425 -0.0147
17356DOD     C395889  29.886   2.224  22.115  0.0860 -0.0567  0.0444
17357DOD     C195890  23.357  23.349  23.589 -0.0687 -0.0508  0.2091
17357DOD     C295891  23.554  23.424  23.149 -0.1244 -0.2131  0.1286
17357DOD     C395892  23.420  23.495  22.696  0.0338  0.2807  0.0904
17358DOD     C195893  19.682  10.885   7.970  0.2154 -0.0576  0.1921
17358DOD     C295894  19.296  10.781   7.727 -0.0756  0.1098 -0.2648
17358DOD     C395895  19.036  10.872   7.363  0.1561 -0.1991  0.0239
17359DOD     C195896   4.196  19.530  29.317 -0.1137 -0.4664  0.0845
17359DOD     C295897   4.493  19.780  29.586  0.1189 -0.0466  0.3095
17359DOD     C395898   4.830  20.066  29.671  0.2348 -0.4990 -0.0742
17360DOD     C195899  12.094  27.197  22.685 -0.4144 -0.1311  0.1335
17360DOD     C295900  11.863  27.152  23.092 -0.1872  0.1313  0.0846
17360DOD     C395901  11.592  27.097  23.493  0.1879 -0.3395 -0.0564
17361DOD     C195902   0.946   1.769  18.042 -0.1746  0.1454 -0.3700
17361DOD     C295903   0.624   2.117  17.977 -0.1446  0.0140  0.1423
17361DOD     C395904   0.310   2.439  17.914  0.1779 -0.0911  0.1425
17362DOD     C195905   3.971  23.046  13.649 -0.1684  0.1192 -0.1219
17362DOD     C295906   4.157  23.182  14.043 -0.2750 -0.0160 -0.1137
17362DOD     C395907   4.568  23.274  14.249  0.0149  0.0950 -0.0636
17363DOD     C195908   0.590   9.467   3.035  0.1049  0.0335 -0.2099
17363DOD     C295909   0.931   9.585   2.781 -0.0546 -0.1250  0.1605
17363DOD     C395910   1.218   9.491   2.428  0.3470 -0.1627 -0.2106
17364DOD     C195911   9.894  27.423  21.917 -0.1406 -0.0558 -0.3276
17364DOD     C295912  10.314  27.524  21.757  0.1960 -0.0377  0.0951
17364DOD     C395913  10.681  27.429  21.474 -0.2474  0.0526 -0.1968
17365DOD     C195914   9.412  29.100   7.474  0.0488  0.1659 -0.3531
17365DOD     C295915   9.342  28.727   7.705 -0.0558 -0.1874  0.0235
17365DOD     C395916   9.360  28.244   7.790  0.2094 -0.2510  0.0843
17366DOD     C195917  17.247  19.298   2.095 -0.0608  0.2205  0.1260
17366DOD     C295918  17.598  19.107   1.921 -0.3332 -0.1685  0.1782
17366DOD     C395919  17.842  18.771   1.738  0.1238  0.3952 -0.2725
17367DOD     C195920   5.355   6.567  14.169 -0.0342 -0.1755 -0.4303
17367DOD     C295921   5.816   6.473  14.098 -0.1568  0.0202 -0.2330
17367DOD     C395922   6.150   6.307  13.802 -0.1615  0.0083  0.3217
17368DOD     C195923   4.502   2.911  16.671 -0.1801  0.1547  0.1453
17368DOD     C295924   4.766   3.314  16.507 -0.0025 -0.0880 -0.0989
17368DOD     C395925   4.662   3.714  16.263 -0.0500 -0.0260  0.0946
17369DOD     C195926  29.237   3.601  10.924  0.1888  0.0596 -0.0638
17369DOD     C295927  29.688   3.620  11.012  0.0330 -0.1589 -0.3001
17369DOD     C395928  30.048   3.835  11.170 -0.1701  0.1674  0.1488
17370DOD     C195929   0.820  14.306  22.695  0.3483  0.4143  0.1782
17370DOD     C295930   0.949  13.844  22.547 -0.2633 -0.0499  0.1206
17370DOD     C395931   1.164  13.630  22.305 -0.1859 -0.0415 -0.2575
17371DOD     C195932  17.100   4.490  19.823  0.1438 -0.1762  0.2332
17371DOD     C295933  17.141   3.998  19.743 -0.0731  0.4421  0.0481
17371DOD     C395934  16.774   3.714  19.637  0.0830  0.0491 -0.2354
17372DOD     C195935   9.315  20.047   7.380 -0.2112  0.1573 -0.2027
17372DOD     C295936   8.950  20.273   7.483 -0.0492 -0.0562 -0.2005
17372DOD     C395937   8.771  20.650   7.740  0.0772  0.2205 -0.1276
17373DOD     C195938   5.447  12.838   5.801 -0.0327 -0.0764  0.3659
17373DOD     C295939   5.612  13.176   5.553  0.1964 -0.2344  0.0555
17373DOD     C395940   6.051  13.399   5.474  0.1422  0.4075 -0.0272
17374DOD     C195941   3.030  23.173  29.946 -0.1544 -0.1171  0.0372
17374DOD     C295942   3.378  23.143  29.606  0.1134 -0.2769  0.2686
17374DOD     C395943   3.483  23.329  29.171 -0.1867 -0.2308 -0.2524
17375DOD     C195944  11.524  19.777  16.913 -0.2023  0.0441  0.1462
17375DOD     C295945  11.164  20.033  16.811  0.4003 -0.0487  0.1215
17375DOD     C395946  11.013  20.478  16.835  0.5044 -0.0800  0.2333
17376DOD     C195947   4.926  13.224   2.992  0.1495 -0.0003  0.0939
17376DOD     C295948   5.008  13.459   3.386  0.4152  0.0823 -0.1589
17376DOD     C395949   5.243  13.328   3.813  0.2594  0.4102 -0.2261
17377DOD     C195950  25.355   9.295  22.022 -0.2649  0.0167 -0.0595
17377DOD     C295951  25.722   9.379  21.752 -0.1722 -0.4385  0.1237
17377DOD     C395952  25.977   9.512  21.410  0.0537 -0.1275  0.0148
17378DOD     C195953   3.473   6.313  25.248  0.0267  0.0573 -0.0606
17378DOD     C295954   3.431   6.748  25.095  0.0541  0.2334 -0.2893
17378DOD     C395955   3.442   7.165  24.899 -0.0862 -0.1618 -0.0345
17379DOD     C195956  17.630  23.790  22.174 -0.2921 -0.2443  0.3263
17379DOD     C295957  17.556  24.243  22.192  0.0661  0.1542 -0.0436
17379DOD     C395958  17.558  24.653  22.468  0.1094 -0.0198 -0.3310
17380DOD     C195959  12.897  27.732  16.313 -0.1180  0.1153  0.0046
17380DOD     C295960  12.391  27.662  16.329 -0.0984 -0.0933  0.1885
17380DOD     C395961  12.004  27.635  16.476  0.2737  0.1562  0.1720
17381DOD     C195962  26.467  12.571  16.659  0.0148 -0.0371  0.2966
17381DOD     C295963  26.131  12.968  16.566  0.0865 -0.0140 -0.1735
17381DOD     C395964  25.904  13.302  16.811 -0.1832 -0.0787  0.0747
17382DOD     C195965  18.071   6.008   1.357 -0.4304 -0.2472  0.0653
17382DOD     C295966  17.744   5.728   1.239  0.0296  0.2494  0.0773
17382DOD     C395967  17.417   5.401   1.249 -0.1705 -0.1631  0.0891
17383DOD     C195968  24.846   5.227  25.786 -0.0574  0.1260 -0.1108
17383DOD     C295969  25.058   5.565  26.031 -0.0439  0.0055 -0.2354
17383DOD     C395970  25.334   5.781  26.303 -0.1837  0.1583  0.0357
17384DOD     C195971  27.847  26.994  24.711  0.4446  0.1529 -0.0494
17384DOD     C295972  27.522  26.675  24.741 -0.1934 -0.0683  0.0354
17384DOD     C395973  27.304  26.412  25.019  0.1279 -0.0163 -0.0683
17385DOD     C195974   1.210   6.588  13.568 -0.0609 -0.1993  0.1614
17385DOD     C295975   1.671   6.655  13.504  0.1808 -0.0318 -0.0332
17385DOD     C395976   2.133   6.611  13.557 -0.0533 -0.0735 -0.3250
17386DOD     C195977   0.136  18.007   9.910  0.1076 -0.1503  0.2936
17386DOD     C295978  29.961  18.077   9.784 -0.2657 -0.1007 -0.1230
17386DOD     C395979  29.577  18.242   9.964 -0.0927  0.1367 -0.0598
17387DOD     C195980  26.333  21.692   3.632  0.1200  0.1010  0.0088
17387DOD     C295981  25.909  21.638   3.419  0.1128 -0.0555 -0.1587
17387DOD     C395982  25.655  21.275   3.249  0.0166  0.0362 -0.1982
17388DOD     C195983  14.450  16.270  20.721 -0.0354 -0.2692 -0.2329
17388DOD     C295984  14.268  15.990  20.419  0.1242  0.3194 -0.0197
17388DOD     C395985  14.271  15.567  20.195  0.1178  0.0543  0.0896
17389DOD     C195986   2.356  19.189  17.236 -0.0224  0.0312  0.2427
17389DOD     C295987   2.086  18.877  16.942  0.1035 -0.0763 -0.0157
17389DOD     C395988   1.750  18.634  16.815 -0.1335 -0.0468  0.0537
17390DOD     C195989  12.462  18.254  15.112  0.3240 -0.0059  0.0233
17390DOD     C295990  12.513  18.060  15.538  0.0588 -0.1131  0.0902
17390DOD     C395991  12.672  18.228  15.980 -0.1751 -0.1923  0.2450
17391DOD     C195992  22.898  22.020  28.337  0.2674 -0.0796  0.3465
17391DOD     C295993  22.941  22.019  27.887  0.1432  0.2247 -0.0043
17391DOD     C395994  22.713  21.848  27.503 -0.1786 -0.1970 -0.1913
17392DOD     C195995   1.013  30.110  17.814 -0.1678 -0.2082  0.0940
17392DOD     C295996   1.252  30.187  18.210  0.0028 -0.1525  0.3748
17392DOD     C395997   1.389  30.086  18.640 -0.1092 -0.0880 -0.0081
17393DOD     C195998  14.150  17.177   0.476 -0.0813 -0.3000 -0.0454
17393DOD     C295999  13.984  16.735   0.517  0.0545  0.2523  0.0896
17393DOD     C396000  13.664  16.482   0.758  0.1592  0.0883  0.1801
17394DOD     C196001  14.474   6.627  11.059  0.0726 -0.0442 -0.2695
17394DOD     C296002  14.418   7.019  11.330  0.1860 -0.0858 -0.0808
17394DOD     C396003  14.361   7.142  11.756  0.0336  0.0777 -0.0745
17395DOD     C196004   1.832  28.247  13.193 -0.0455 -0.1985 -0.0878
17395DOD     C296005   1.823  27.847  13.355  0.0726 -0.1202  0.1449
17395DOD     C396006   2.137  27.584  13.528 -0.1824  0.0329 -0.1544
17396DOD     C196007  27.469  16.785   4.693  0.1246 -0.0888 -0.3234
17396DOD     C296008  27.011  16.602   4.730 -0.0726  0.0409 -0.3809
17396DOD     C396009  26.566  16.730   4.775 -0.0119  0.0872 -0.1207
17397DOD     C196010  15.775  25.360   0.762 -0.1944 -0.0846  0.4915
17397DOD     C296011  15.509  25.175   0.480 -0.0909  0.0855 -0.0865
17397DOD     C396012  15.389  25.155   0.034  0.1401  0.2302  0.1826
17398DOD     C196013  11.512  19.780   4.370 -0.2033 -0.2971 -0.1018
17398DOD     C296014  11.839  19.641   4.637  0.2314  0.0308  0.1189
17398DOD     C396015  11.959  19.179   4.527  0.0053  0.0708 -0.0598
17399DOD     C196016  14.563  12.281  11.766 -0.1007 -0.1788 -0.2002
17399DOD     C296017  14.717  12.529  12.141 -0.0541  0.1975  0.1945
17399DOD     C396018  14.700  12.557  12.579  0.0643 -0.2766  0.2194
17400DOD     C196019  27.327  20.336   5.812  0.0164 -0.0077 -0.1991
17400DOD     C296020  27.476  20.708   6.110  0.0231  0.2341 -0.1759
17400DOD     C396021  27.127  21.013   6.298  0.0435  0.1348  0.0965
17401DOD     C196022   6.915   5.188  12.711 -0.1383  0.0805 -0.2014
17401DOD     C296023   6.707   5.540  12.872  0.2355 -0.0113 -0.2152
17401DOD     C396024   6.473   5.937  13.056  0.0570  0.1834 -0.1871
17402DOD     C196025  28.780   4.227  26.365 -0.0994  0.1217  0.2026
17402DOD     C296026  29.259   4.198  26.298 -0.1002  0.0604  0.0958
17402DOD     C396027  29.604   4.498  26.190 -0.1605 -0.0538 -0.1689
17403DOD     C196028   0.308  17.921  25.176 -0.2369 -0.0397 -0.1659
17403DOD     C296029  30.243  17.645  25.003 -0.3294  0.1695  0.0167
17403DOD     C396030  29.906  17.517  24.656 -0.1099  0.2643  0.0182
17404DOD     C196031  28.806   7.303  29.439 -0.1928  0.0236  0.1917
17404DOD     C296032  28.696   7.732  29.607 -0.1608  0.3267 -0.3694
17404DOD     C396033  28.661   8.187  29.849 -0.0778 -0.0137  0.0074
17405DOD     C196034  17.888   8.405   3.230 -0.4137  0.1305 -0.2838
17405DOD     C296035  18.032   7.978   3.353  0.2390  0.0178  0.1622
17405DOD     C396036  18.476   7.876   3.228 -0.1881  0.0149 -0.1944
17406DOD     C196037  17.689  23.762  24.520 -0.0618 -0.0133  0.0312
17406DOD     C296038  17.395  23.768  24.119  0.1299  0.0168  0.0105
17406DOD     C396039  17.462  23.470  23.793  0.0114  0.2327  0.1838
17407DOD     C196040   4.302  16.462  14.761  0.1879 -0.0884  0.1771
17407DOD     C296041   4.732  16.480  14.538 -0.2597  0.0031 -0.2149
17407DOD     C396042   5.040  16.796  14.489  0.1975  0.0647 -0.2292
17408DOD     C196043  16.317   6.629  10.909  0.2226  0.3501  0.1753
17408DOD     C296044  15.865   6.772  10.765 -0.0605  0.0756 -0.1512
17408DOD     C396045  15.594   7.139  10.710 -0.1434 -0.1643  0.3170
17409DOD     C196046  23.873   1.296  13.234 -0.0838 -0.1610  0.1972
17409DOD     C296047  24.139   1.040  13.561  0.1399 -0.0038 -0.2485
17409DOD     C396048  24.075   0.570  13.469 -0.2027 -0.0546 -0.1987
17410DOD     C196049  19.889  18.691   1.528 -0.3961 -0.0935  0.0368
17410DOD     C296050  19.582  18.997   1.773  0.2189  0.1736 -0.0544
17410DOD     C396051  19.505  19.111   2.188 -0.5973 -0.1304 -0.3312
17411DOD     C196052  30.170  26.614  20.205 -0.1177 -0.1752  0.0306
17411DOD     C296053  30.306  27.019  19.954  0.1776 -0.1797  0.0052
17411DOD     C396054  30.163  27.400  19.734  0.3426 -0.0221  0.2586
17412DOD     C196055  27.696   4.133   9.767  0.0293  0.1080  0.0739
17412DOD     C296056  27.868   4.426  10.077  0.2499 -0.3715 -0.0520
17412DOD     C396057  27.659   4.738  10.314 -0.4435  0.1099 -0.2367
17413DOD     C196058  24.178  18.423  25.462  0.0566 -0.1790 -0.2438
17413DOD     C296059  24.315  18.681  25.050 -0.2172 -0.0609 -0.2888
17413DOD     C396060  24.661  18.499  24.760 -0.0372 -0.2760 -0.1852
17414DOD     C196061  29.553  22.121   5.328  0.3093 -0.0088  0.1648
17414DOD     C296062  29.510  22.551   5.433  0.0096 -0.1083 -0.0540
17414DOD     C396063  29.248  22.853   5.288 -0.1778 -0.0501 -0.2654
17415DOD     C196064  28.397   5.091  27.353 -0.0135  0.3500 -0.0437
17415DOD     C296065  28.097   5.467  27.220  0.0357  0.0263 -0.0446
17415DOD     C396066  27.702   5.596  27.324  0.0765 -0.2426 -0.2092
17416DOD     C196067  21.309  19.789   5.991 -0.1536 -0.1628 -0.1650
17416DOD     C296068  20.978  19.980   6.314  0.1509  0.4126 -0.0039
17416DOD     C396069  20.848  19.879   6.735  0.1198  0.0032 -0.1581
17417DOD     C196070  12.037  28.132   2.839 -0.1549 -0.3270 -0.0280
17417DOD     C296071  12.085  27.642   2.960 -0.0028  0.1367 -0.2442
17417DOD     C396072  12.028  27.150   2.852 -0.1675 -0.2981 -0.1261
17418DOD     C196073   5.348   0.640   8.104 -0.2119  0.0670  0.2920
17418DOD     C296074   5.574   0.805   8.534  0.2231 -0.1353  0.1887
17418DOD     C396075   5.826   1.162   8.544  0.1988 -0.0326  0.1172
17419DOD     C196076  30.285  26.294  16.020 -0.0793  0.2293 -0.1841
17419DOD     C296077  -0.019  26.048  16.437  0.0314 -0.2226  0.3665
17419DOD     C396078   0.224  25.745  16.698  0.0321  0.0578  0.2490
17420DOD     C196079  20.675  20.988   2.618  0.0718 -0.1534 -0.0128
17420DOD     C296080  20.282  21.143   2.906  0.2286  0.1000  0.1320
17420DOD     C396081  19.796  21.122   2.840 -0.2386  0.2464  0.1481
17421DOD     C196082  27.129  17.026   3.578 -0.2772  0.1018 -0.1896
17421DOD     C296083  27.001  16.608   3.822  0.1975 -0.0467 -0.2229
17421DOD     C396084  26.842  16.219   3.982  0.0242  0.1037  0.2281
17422DOD     C196085  23.445  27.315   9.246  0.1358  0.1629  0.0575
17422DOD     C296086  23.742  27.621   9.069 -0.0199  0.1761 -0.0460
17422DOD     C396087  23.735  27.667   8.600  0.2461 -0.3868 -0.1346
17423DOD     C196088  24.681  18.074  25.632  0.0234 -0.0702 -0.0967
17423DOD     C296089  24.606  17.750  25.348  0.1169  0.1917  0.1367
17423DOD     C396090  24.808  17.690  24.928  0.0665  0.0034  0.0731
17424DOD     C196091  30.123   4.164  19.781 -0.3312  0.0124  0.2079
17424DOD     C296092  29.828   4.278  19.417 -0.1210  0.0064 -0.3226
17424DOD     C396093  29.389   4.414  19.244  0.1363 -0.1705  0.0060
17425DOD     C196094  26.993  27.511  22.909 -0.1690  0.0133 -0.1715
17425DOD     C296095  26.694  27.772  23.141 -0.1218  0.5011  0.0655
17425DOD     C396096  26.370  27.904  23.461 -0.0199  0.2577 -0.0772
17426DOD     C196097   2.602  19.360  16.804  0.0543 -0.0429 -0.1090
17426DOD     C296098   2.770  19.669  17.118 -0.0552  0.1324  0.2934
17426DOD     C396099   2.562  19.708  17.527 -0.1661  0.3368  0.1715
17427DOD     C196100  16.106  28.088  17.871 -0.5957  0.0252  0.0434
17427DOD     C296101  15.782  28.426  17.885 -0.3467 -0.2391 -0.3057
17427DOD     C396102  15.428  28.581  18.119 -0.0408  0.2447  0.1403
17428DOD     C196103  19.043   6.669  17.739  0.0131 -0.2109  0.0690
17428DOD     C296104  19.163   6.403  18.105 -0.0138  0.0739 -0.2586
17428DOD     C396105  19.335   6.307  18.535  0.1081 -0.4504  0.1913
17429DOD     C196106   1.024  16.797   9.020 -0.1620  0.1123  0.4297
17429DOD     C296107   0.924  16.709   8.582 -0.0193 -0.0092  0.0624
17429DOD     C396108   1.030  16.757   8.167 -0.3064 -0.2637  0.3522
17430DOD     C196109  23.434  11.478  17.955 -0.3512 -0.2094 -0.2358
17430DOD     C296110  23.242  11.123  18.232 -0.0282 -0.0400 -0.0476
17430DOD     C396111  23.052  10.706  18.446 -0.1003  0.0634  0.0204
17431DOD     C196112   9.439  18.498   8.454  0.2337 -0.0842 -0.2189
17431DOD     C296113   9.265  18.862   8.681 -0.2433  0.0648  0.0778
17431DOD     C396114   9.020  19.233   8.697  0.3796 -0.0066  0.0486
17432DOD     C196115   7.295  19.075  12.836 -0.4022 -0.0966  0.0788
17432DOD     C296116   7.675  19.131  13.104 -0.0285 -0.2929  0.1324
17432DOD     C396117   8.045  19.309  12.852  0.0606 -0.0129  0.2621
17433DOD     C196118  22.854  29.401  27.761  0.0378  0.1144  0.0595
17433DOD     C296119  22.802  29.435  27.315  0.0957  0.2082 -0.1393
17433DOD     C396120  23.073  29.422  26.957  0.0020 -0.1224  0.0618
17434DOD     C196121   6.051  28.767   8.197  0.0913  0.1813  0.1189
17434DOD     C296122   5.763  28.359   8.216  0.1617 -0.1510 -0.1231
17434DOD     C396123   5.409  28.132   8.450 -0.0716  0.0564 -0.0298
17435DOD     C196124  18.024   1.580  17.295  0.1614 -0.2513  0.2988
17435DOD     C296125  18.150   1.098  17.090  0.0760 -0.3728 -0.0385
17435DOD     C396126  18.467   0.768  17.110 -0.3131  0.0903  0.3070
17436DOD     C196127  20.998   8.443   1.107  0.0546 -0.3858 -0.2088
17436DOD     C296128  21.288   8.821   1.093  0.0180  0.2135 -0.0112
17436DOD     C396129  21.725   8.872   1.277 -0.2016  0.2154 -0.0233
17437DOD     C196130   9.104  21.309   9.857  0.0923 -0.0904  0.0316
17437DOD     C296131   9.247  20.920   9.610  0.1102  0.0015  0.0358
17437DOD     C396132   9.337  20.633   9.283  0.1396  0.1154 -0.0218
17438DOD     C196133  15.627  19.423   1.831  0.0646 -0.0935 -0.1447
17438DOD     C296134  16.062  19.291   1.981 -0.0270 -0.0670 -0.1504
17438DOD     C396135  16.511  19.370   2.003  0.3363 -0.0219 -0.2298
17439DOD     C196136  23.579   3.140  21.958  0.1645 -0.2070 -0.0245
17439DOD     C296137  23.775   3.112  22.418 -0.1051  0.0546 -0.0962
17439DOD     C396138  23.663   3.359  22.801  0.1233 -0.2324  0.0337
17440DOD     C196139   2.609  27.426  15.851 -0.1672 -0.2296  0.1967
17440DOD     C296140   2.218  27.073  15.819  0.3186 -0.3456 -0.0160
17440DOD     C396141   1.841  27.134  16.185  0.1875 -0.1457  0.1122
17441DOD     C196142  23.842   0.558   0.341  0.0398 -0.2622 -0.2582
17441DOD     C296143  23.483   0.283   0.440  0.0275 -0.3116  0.0435
17441DOD     C396144  23.169  -0.062   0.285  0.1874 -0.3676  0.1678
17442DOD     C196145  21.079  15.440   9.188 -0.0758  0.2468  0.1738
17442DOD     C296146  20.627  15.463   9.287 -0.1142  0.0894 -0.0983
17442DOD     C396147  20.231  15.427   9.079  0.0649 -0.0222 -0.0397
17443DOD     C196148   2.467  10.811  16.440 -0.2159  0.0528 -0.2416
17443DOD     C296149   2.475  10.432  16.736  0.0530  0.0994 -0.2090
17443DOD     C396150   2.404  10.440  17.187  0.0246 -0.0114 -0.0221
17444DOD     C196151  26.969  20.524   8.277 -0.0783  0.1519 -0.1154
17444DOD     C296152  27.381  20.643   8.144  0.0637  0.2807 -0.1189
17444DOD     C396153  27.818  20.710   8.007 -0.1088 -0.1025 -0.2622
17445DOD     C196154  27.830  30.259  13.819 -0.1532 -0.0004  0.1309
17445DOD     C296155  27.696  29.807  13.694 -0.1863 -0.0433  0.1556
17445DOD     C396156  27.456  29.536  13.956 -0.2243 -0.0873  0.0859
17446DOD     C196157   6.603  27.769  16.188  0.1324 -0.2580 -0.3716
17446DOD     C296158   6.195  27.601  16.184  0.2934  0.3449 -0.0968
17446DOD     C396159   5.824  27.353  16.368  0.0336  0.2429  0.0001
17447DOD     C196160  20.712  24.612  14.984 -0.2391  0.2806 -0.3269
17447DOD     C296161  20.857  24.739  14.570  0.1943 -0.2468 -0.1443
17447DOD     C396162  20.889  25.169  14.357 -0.1800  0.0685 -0.1257
17448DOD     C196163  20.640  19.837  15.527 -0.4443 -0.1232  0.1658
17448DOD     C296164  20.909  20.087  15.768 -0.0438 -0.0864  0.0770
17448DOD     C396165  21.297  20.095  16.017  0.0565 -0.0651 -0.0535
17449DOD     C196166   2.827   8.061  25.427 -0.1590 -0.0364  0.2958
17449DOD     C296167   2.577   8.376  25.249  0.2212 -0.2190  0.2119
17449DOD     C396168   2.761   8.730  25.016  0.2028 -0.0950 -0.2567
17450DOD     C196169  20.939  28.035  14.049 -0.1453 -0.0989 -0.1430
17450DOD     C296170  21.132  28.229  13.666  0.0374  0.1980 -0.0736
17450DOD     C396171  21.367  28.542  13.444 -0.1805  0.0810 -0.1021
17451DOD     C196172  20.387  12.554  18.499  0.2529  0.2040 -0.4730
17451DOD     C296173  20.387  12.928  18.800 -0.0167  0.3511 -0.4755
17451DOD     C396174  20.606  13.323  18.859  0.1993  0.1955 -0.2538
17452DOD     C196175  28.938  17.172  15.317 -0.1442  0.0853 -0.1008
17452DOD     C296176  28.650  17.409  15.610  0.0812  0.0257  0.0362
17452DOD     C396177  28.428  17.773  15.823 -0.0357 -0.1737 -0.0396
17453DOD     C196178   4.103   5.144  11.030  0.0233 -0.0455  0.0596
17453DOD     C296179   4.538   5.039  10.805 -0.0395  0.0279 -0.0093
17453DOD     C396180   4.962   4.979  10.707 -0.0778 -0.1659 -0.0946
17454DOD     C196181  18.223  10.275  13.963 -0.1006  0.3189 -0.0593
17454DOD     C296182  18.292  10.477  13.599 -0.3084 -0.0666  0.0411
17454DOD     C396183  18.641  10.792  13.587  0.1327  0.1896  0.1338
17455DOD     C196184  19.646  13.724  16.458  0.2660 -0.1210 -0.1528
17455DOD     C296185  19.235  13.908  16.399  0.0389 -0.2231 -0.0738
17455DOD     C396186  19.092  14.345  16.509  0.2000 -0.0662  0.1368
17456DOD     C196187  16.449   0.654  13.380 -0.2054  0.0654 -0.1331
17456DOD     C296188  16.678   1.046  13.471  0.3476 -0.0863  0.0628
17456DOD     C396189  16.781   1.498  13.608 -0.0283  0.0536 -0.1462
17457DOD     C196190  24.565   5.601  11.991  0.1167 -0.0812  0.0811
17457DOD     C296191  24.351   6.015  11.977  0.2435  0.2190 -0.1296
17457DOD     C396192  23.962   6.244  12.196  0.1185  0.0367 -0.1364
17458DOD     C196193  19.119   8.444   2.767 -0.0396 -0.0095  0.2856
17458DOD     C296194  18.803   8.155   3.032  0.3437 -0.2797  0.1209
17458DOD     C396195  18.356   8.337   3.023 -0.1272 -0.2102 -0.0763
17459DOD     C196196   7.451  21.693  11.210  0.1864 -0.0756 -0.1751
17459DOD     C296197   7.685  21.405  10.847 -0.1548 -0.0357  0.0679
17459DOD     C396198   8.037  21.083  10.791 -0.1719 -0.3949 -0.3263
17460DOD     C196199  18.393  19.642  23.986 -0.1199  0.1704 -0.0738
17460DOD     C296200  18.388  20.094  24.029 -0.0225 -0.0825  0.1455
17460DOD     C396201  18.565  20.410  24.325  0.0004  0.1324  0.1514
17461DOD     C196202   5.048  14.046   9.663  0.3018 -0.3208  0.0172
17461DOD     C296203   5.168  13.539   9.762 -0.0379 -0.2500 -0.1719
17461DOD     C396204   5.333  13.091   9.686  0.1153  0.1453 -0.1815
17462DOD     C196205   5.172  29.212  13.236 -0.1672  0.0708  0.0282
17462DOD     C296206   5.017  28.974  12.868  0.2806  0.0550 -0.1266
17462DOD     C396207   5.361  28.759  12.663  0.0832  0.2766  0.0496
17463DOD     C196208  17.018  11.925  27.869  0.0492  0.0743 -0.0873
17463DOD     C296209  16.885  12.339  27.707  0.3994 -0.0200 -0.2898
17463DOD     C396210  16.871  12.802  27.914 -0.2574  0.1458  0.2597
17464DOD     C196211  12.172  17.690   1.669  0.0808  0.3531  0.1252
17464DOD     C296212  12.330  18.036   1.407 -0.1628 -0.0492 -0.1699
17464DOD     C396213  12.659  17.927   1.078 -0.2892  0.0657 -0.0012
17465DOD     C196214  28.549   1.698   3.692 -0.2713  0.2063  0.1173
17465DOD     C296215  28.245   1.388   3.849 -0.0947 -0.0490 -0.2061
17465DOD     C396216  27.904   1.075   3.875 -0.1021 -0.0573 -0.2331
17466DOD     C196217   4.818  16.636  14.078 -0.3851  0.0300 -0.0668
17466DOD     C296218   4.658  16.987  13.792 -0.0131  0.2093 -0.0105
17466DOD     C396219   4.302  16.946  13.470 -0.1854  0.0442 -0.1029
17467DOD     C196220   7.836   5.209   7.010 -0.3171 -0.0707 -0.0941
17467DOD     C296221   7.858   5.558   6.713 -0.3101 -0.1661  0.1564
17467DOD     C396222   7.735   5.537   6.251  0.0295 -0.1956 -0.2020
17468DOD     C196223  13.376  26.861  14.021  0.0545 -0.0626 -0.1657
17468DOD     C296224  13.178  27.283  13.825 -0.1801  0.3584 -0.2167
17468DOD     C396225  12.876  27.596  13.596 -0.2076 -0.1732 -0.1511
17469DOD     C196226   1.543   3.557   2.176 -0.1258  0.2668 -0.4861
17469DOD     C296227   1.909   3.864   2.229 -0.0979 -0.1384 -0.3969
17469DOD     C396228   2.373   3.774   2.124 -0.0486 -0.3144 -0.2289
17470DOD     C196229  29.222  11.019   8.158 -0.0425  0.1764  0.4243
17470DOD     C296230  29.162  11.465   7.962  0.1518 -0.1014  0.0931
17470DOD     C396231  29.267  11.889   7.884 -0.0242  0.0340  0.1844
17471DOD     C196232   0.391   9.528  21.460  0.2731  0.1223 -0.0057
17471DOD     C296233  30.343   9.295  21.490  0.0645 -0.0297  0.0033
17471DOD     C396234  30.308   8.839  21.437  0.1730  0.1310  0.3933
17472DOD     C196235  25.766  17.811   8.272 -0.0017 -0.0554  0.1296
17472DOD     C296236  25.332  17.718   8.139  0.0166 -0.0317  0.0656
17472DOD     C396237  24.965  17.914   7.925  0.2701  0.1281 -0.1711
17473DOD     C196238  29.434  20.121  11.034 -0.0370  0.1687 -0.0777
17473DOD     C296239  29.100  20.072  10.732 -0.0592 -0.1380  0.1569
17473DOD     C396240  28.654  20.003  10.818 -0.0483 -0.0464 -0.2964
17474DOD     C196241  10.793  11.696  11.486  0.0850  0.0201  0.1235
17474DOD     C296242  10.747  11.923  11.906  0.0831  0.3247 -0.1053
17474DOD     C396243  10.876  12.253  12.211 -0.2165  0.1136 -0.0331
17475DOD     C196244   9.824   4.875  27.396  0.0544 -0.0388  0.0777
17475DOD     C296245  10.261   4.965  27.305  0.0509  0.1165  0.1728
17475DOD     C396246  10.653   5.145  27.109  0.2043 -0.1437  0.1578
17476DOD     C196247   2.940  15.357  19.356 -0.0362 -0.2792 -0.1821
17476DOD     C296248   2.637  15.542  19.102  0.1046  0.1370  0.1397
17476DOD     C396249   2.336  15.905  18.938 -0.0545  0.2217  0.1630
17477DOD     C196250  13.729   1.357   9.153 -0.0947 -0.0412 -0.3408
17477DOD     C296251  13.769   1.791   9.480  0.2375  0.1051  0.3984
17477DOD     C396252  13.733   2.176   9.736 -0.0694 -0.0696  0.1947
17478DOD     C196253  26.451  18.330   9.981 -0.0052 -0.2410  0.0939
17478DOD     C296254  26.150  17.961   9.929  0.2945 -0.2025  0.1719
17478DOD     C396255  25.721  17.793   9.816 -0.0547 -0.0354 -0.2384
17479DOD     C196256  14.799  15.413   6.980  0.2434 -0.2541  0.0601
17479DOD     C296257  14.437  15.520   6.682  0.1758  0.0592  0.0080
17479DOD     C396258  14.175  15.577   6.329  0.0258  0.0793  0.2802
17480DOD     C196259  13.634  18.496   4.567 -0.1691  0.0615 -0.1369
17480DOD     C296260  13.182  18.628   4.625  0.0005 -0.1406 -0.1669
17480DOD     C396261  12.950  18.993   4.815 -0.2235 -0.0153 -0.1777
17481DOD     C196262   4.453  25.812  11.478 -0.5843 -0.0778 -0.1801
17481DOD     C296263   4.100  26.071  11.235 -0.1975  0.2135 -0.1520
17481DOD     C396264   3.733  26.319  11.149  0.0941  0.1363 -0.2203
17482DOD     C196265   7.255  12.083  11.971  0.1982 -0.4418 -0.1425
17482DOD     C296266   7.354  12.031  11.464 -0.0944 -0.2155 -0.0941
17482DOD     C396267   7.479  11.982  11.006 -0.0535 -0.0272 -0.1761
17483DOD     C196268  30.322  11.064   3.712  0.1641  0.0010 -0.0304
17483DOD     C296269   0.242  11.468   3.567  0.1322  0.2073 -0.1072
17483DOD     C396270   0.262  11.904   3.745 -0.0429  0.1262 -0.3045
17484DOD     C196271  15.949   6.143  16.572 -0.0515 -0.0638 -0.0978
17484DOD     C296272  16.309   6.287  16.905  0.0429 -0.2397 -0.2705
17484DOD     C396273  16.109   6.046  17.241 -0.3152  0.0426  0.0721
17485DOD     C196274  24.412   0.891  20.274 -0.2672 -0.1892  0.2262
17485DOD     C296275  24.111   0.645  20.417 -0.0498  0.1789  0.4448
17485DOD     C396276  23.849   0.333  20.272 -0.0514 -0.2810 -0.0789
17486DOD     C196277   3.615   3.996   7.014  0.1517  0.2311  0.0266
17486DOD     C296278   3.225   4.117   6.867 -0.2072  0.0403  0.3356
17486DOD     C396279   2.807   3.915   6.816 -0.1405 -0.3118  0.2206
17487DOD     C196280  29.091   6.062  29.137  0.2127 -0.0760  0.3311
17487DOD     C296281  29.143   6.456  29.411 -0.0891 -0.2375 -0.1208
17487DOD     C396282  29.136   6.966  29.508  0.0481  0.0593 -0.1687
17488DOD     C196283  25.148  23.974  25.686 -0.1262  0.2969 -0.3494
17488DOD     C296284  25.291  23.828  26.104 -0.1543  0.2288  0.0157
17488DOD     C396285  25.721  23.724  26.259 -0.1520 -0.0248 -0.0233
17489DOD     C196286  22.628   0.599   7.986  0.1358  0.0505 -0.1784
17489DOD     C296287  22.390   1.020   8.021  0.2043 -0.0106 -0.1043
17489DOD     C396288  22.010   1.331   8.028 -0.0238  0.1093  0.0496
17490DOD     C196289  20.548   3.141  17.357 -0.0889 -0.0581 -0.5052
17490DOD     C296290  20.962   2.946  17.283  0.0730  0.0204  0.0598
17490DOD     C396291  21.104   2.489  17.307 -0.2762 -0.2257  0.0060
17491DOD     C196292  12.919   7.392  25.893 -0.1217 -0.1518 -0.1871
17491DOD     C296293  12.790   7.574  26.328  0.0371  0.3906 -0.1556
17491DOD     C396294  12.441   7.622  26.599 -0.1873  0.3901 -0.1633
17492DOD     C196295  12.420   5.270  10.668 -0.0775 -0.3699  0.0748
17492DOD     C296296  12.765   5.090  10.850 -0.2905  0.0542  0.1023
17492DOD     C396297  13.037   4.840  11.034 -0.0357  0.0212  0.0873
17493DOD     C196298  27.157  24.482  21.211  0.2276 -0.1469 -0.1990
17493DOD     C296299  27.601  24.354  21.072  0.0209 -0.1600 -0.1017
17493DOD     C396300  27.649  23.914  21.014 -0.1996 -0.0239 -0.0125
17494DOD     C196301  20.871  25.483   9.407 -0.1536  0.1330  0.3122
17494DOD     C296302  20.407  25.548   9.298  0.0646 -0.1525  0.0127
17494DOD     C396303  19.989  25.675   9.238 -0.1938  0.1952  0.3388
17495DOD     C196304  19.692  26.895   7.021  0.0892  0.2310  0.2201
17495DOD     C296305  19.258  27.051   7.172  0.1595  0.0320 -0.0900
17495DOD     C396306  18.787  27.025   7.201 -0.0523  0.0185 -0.1659
17496DOD     C196307  11.179  25.129  13.800 -0.0477 -0.0755  0.3565
17496DOD     C296308  10.914  25.274  14.086  0.0719  0.1751 -0.1985
17496DOD     C396309  10.433  25.322  14.228 -0.0241  0.3649  0.1276
17497DOD     C196310  15.920  27.382  17.574  0.0573  0.1663 -0.0937
17497DOD     C296311  15.465  27.580  17.634 -0.0143  0.1901  0.0950
17497DOD     C396312  15.065  27.784  17.610  0.1520  0.2711  0.2645
17498DOD     C196313  16.144   9.670   8.288  0.1557  0.4706  0.1606
17498DOD     C296314  16.183  10.136   8.246 -0.0506  0.1579  0.1906
17498DOD     C396315  16.422  10.449   8.001  0.2267  0.1778 -0.2339
17499DOD     C196316  22.917  27.609   7.136 -0.0558 -0.0291  0.0880
17499DOD     C296317  23.339  27.368   7.168  0.2376  0.0259  0.1408
17499DOD     C396318  23.483  26.954   7.040 -0.0496 -0.4459  0.0396
17500DOD     C196319  10.109   6.860  29.617 -0.0936  0.2394  0.1025
17500DOD     C296320  10.497   7.017  29.824  0.1125  0.0739 -0.3068
17500DOD     C396321  10.794   7.320  29.890  0.0182 -0.2320  0.1230
17501DOD     C196322   3.395   5.791  23.046 -0.0601  0.0028 -0.0778
17501DOD     C296323   3.215   5.484  22.791 -0.0547  0.1594 -0.1065
17501DOD     C396324   3.316   5.297  22.333  0.1702 -0.3080  0.0433
17502DOD     C196325  16.612  17.329  28.874 -0.2187  0.1540 -0.0095
17502DOD     C296326  16.417  17.747  28.727 -0.1278  0.0305 -0.0463
17502DOD     C396327  15.977  17.873  28.575  0.0424  0.1454 -0.2457
17503DOD     C196328  24.640  26.832   7.262  0.2542  0.5485 -0.2967
17503DOD     C296329  25.095  27.008   7.321 -0.0027  0.0815 -0.0371
17503DOD     C396330  25.533  27.139   7.319 -0.1364 -0.1371  0.0117
17504DOD     C196331   7.455  16.826  22.417 -0.1369  0.0463  0.0597
17504DOD     C296332   7.250  16.410  22.246 -0.2941  0.0991 -0.0468
17504DOD     C396333   7.193  15.946  22.137 -0.1061 -0.1261 -0.0111
17505DOD     C196334   1.964  14.879   4.551 -0.2103  0.0033  0.1545
17505DOD     C296335   1.902  15.326   4.374 -0.3569  0.1678 -0.0938
17505DOD     C396336   1.781  15.671   4.122 -0.0743  0.1334  0.3001
17506DOD     C196337  24.705  23.454  24.946 -0.3072  0.0631  0.1205
17506DOD     C296338  25.149  23.498  24.753  0.0887 -0.1050  0.0310
17506DOD     C396339  25.579  23.409  24.798  0.0249 -0.2180  0.1807
17507DOD     C196340   8.072  10.655   0.591  0.0285  0.0724 -0.1093
17507DOD     C296341   8.152  10.717   0.127  0.0529  0.0354 -0.3434
17507DOD     C396342   8.291  10.741  30.047  0.0700  0.2140 -0.1924
17508DOD     C196343  28.190  12.500  25.880  0.0099 -0.1038  0.0315
17508DOD     C296344  28.638  12.320  25.744 -0.2408  0.2938 -0.1237
17508DOD     C396345  28.984  12.214  25.952 -0.1526  0.0980 -0.0277
17509DOD     C196346  20.407  25.273  17.259 -0.1294 -0.1276  0.0224
17509DOD     C296347  20.540  25.533  16.913 -0.2952  0.0183  0.0532
17509DOD     C396348  20.928  25.712  16.773 -0.0155  0.1687  0.2003
17510DOD     C196349   7.042   1.341   2.183  0.2983 -0.0086 -0.1008
17510DOD     C296350   7.317   1.683   2.351 -0.1636  0.0526  0.1445
17510DOD     C396351   7.797   1.768   2.309  0.0179 -0.1167 -0.1819
17511DOD     C196352   0.140  24.925  21.209  0.1943 -0.0568 -0.1231
17511DOD     C296353   0.514  25.032  21.058  0.0134 -0.2263 -0.4514
17511DOD     C396354   0.915  24.981  20.771 -0.1100  0.1658  0.3623
17512DOD     C196355  11.435  27.553  15.342 -0.0220 -0.2084  0.0159
17512DOD     C296356  11.060  27.221  15.331 -0.0297 -0.1220  0.1295
17512DOD     C396357  10.688  26.973  15.251  0.1232 -0.0220 -0.1640
17513DOD     C196358   6.052  25.149   9.233 -0.0922 -0.3180 -0.1751
17513DOD     C296359   5.647  25.357   9.246 -0.3857 -0.1486  0.3331
17513DOD     C396360   5.288  25.586   9.092  0.2522 -0.1496  0.3133
17514DOD     C196361   0.579  15.271   7.239 -0.1184 -0.1703 -0.0073
17514DOD     C296362   0.542  14.866   7.390 -0.3277  0.1074  0.0392
17514DOD     C396363   0.526  14.426   7.339  0.0056  0.1522 -0.1006
17515DOD     C196364  14.938  14.973   0.114  0.0796 -0.2039 -0.0908
17515DOD     C296365  14.591  15.025  30.149  0.0436  0.1011  0.2054
17515DOD     C396366  14.208  14.775  29.940 -0.1526  0.2563  0.0822
17516DOD     C196367  25.764   3.064  13.478 -0.0653 -0.1216 -0.2944
17516DOD     C296368  25.972   3.111  13.935 -0.0484  0.1058  0.1431
17516DOD     C396369  25.979   3.024  14.398 -0.1636 -0.1242 -0.1893
17517DOD     C196370  14.962  11.856  20.729  0.1009  0.1099 -0.1239
17517DOD     C296371  15.112  12.251  20.574 -0.1225  0.3030  0.3541
17517DOD     C396372  15.054  12.715  20.593 -0.0876 -0.2535  0.3424
17518DOD     C196373  23.951   4.541   0.270  0.1531 -0.1110 -0.2828
17518DOD     C296374  23.609   4.504  30.268  0.2000  0.3017  0.1135
17518DOD     C396375  23.466   4.232  29.916  0.0584  0.0424  0.0301
17519DOD     C196376  19.792  14.929   2.381  0.1049  0.2640 -0.0513
17519DOD     C296377  20.115  14.644   2.164  0.1751 -0.1023  0.1500
17519DOD     C396378  20.489  14.569   1.957  0.2094 -0.1420  0.0470
17520DOD     C196379  15.362   2.125  27.148 -0.1676 -0.4227  0.1951
17520DOD     C296380  15.793   1.957  27.039 -0.1642 -0.0334  0.1016
17520DOD     C396381  15.966   1.531  26.976 -0.1543  0.0282 -0.0695
17521DOD     C196382  23.533  24.069  13.231 -0.1177 -0.0343  0.0747
17521DOD     C296383  23.641  24.210  12.793 -0.1954 -0.0234  0.1784
17521DOD     C396384  23.758  24.032  12.335  0.1647 -0.3075 -0.1072
17522DOD     C196385   5.474  28.563  29.187  0.0114 -0.0599  0.1793
17522DOD     C296386   5.954  28.463  29.274 -0.1809  0.0616  0.0062
17522DOD     C396387   6.322  28.222  29.490 -0.0071 -0.2027  0.0631
17523DOD     C196388  18.798  12.188  21.750 -0.1942  0.0578 -0.3063
17523DOD     C296389  19.006  11.977  22.075  0.0909 -0.0182  0.1260
17523DOD     C396390  19.421  11.859  22.051  0.0931  0.0579  0.0151
17524DOD     C196391  24.401   9.424  14.815  0.0165  0.3588 -0.0015
17524DOD     C296392  24.161   9.675  15.211 -0.0593  0.0253 -0.0425
17524DOD     C396393  23.871   9.738  15.601  0.0091 -0.1014  0.0398
17525DOD     C196394  20.399   8.242  28.017  0.0165 -0.2084 -0.0674
17525DOD     C296395  20.507   7.837  27.805  0.1414  0.0091  0.0103
17525DOD     C396396  20.859   7.578  27.600  0.1536 -0.2997  0.0528
17526DOD     C196397   4.118  16.636  18.000  0.0362  0.0951  0.3203
17526DOD     C296398   3.781  16.894  18.188  0.2076  0.1513 -0.1168
17526DOD     C396399   3.586  16.837  18.623  0.1344 -0.0016 -0.0529
17527DOD     C196400   2.982   6.128  21.560  0.2441  0.1742  0.2210
17527DOD     C296401   3.320   5.851  21.498  0.0050  0.0211  0.1400
17527DOD     C396402   3.701   5.532  21.494  0.0404  0.0755 -0.0761
17528DOD     C196403  15.371  29.125  28.299  0.1267 -0.1887 -0.1990
17528DOD     C296404  15.525  28.915  28.739 -0.0628 -0.2263  0.1765
17528DOD     C396405  15.767  28.798  29.148 -0.1380 -0.2630 -0.2511
17529DOD     C196406  29.768  27.023  28.465  0.0394 -0.0370  0.1574
17529DOD     C296407  29.308  27.099  28.406  0.0287  0.0204 -0.1143
17529DOD     C396408  29.012  27.120  28.068 -0.1280  0.4266 -0.2687
17530DOD     C196409   6.701   0.659  12.427 -0.0574  0.1485  0.0205
17530DOD     C296410   6.964   0.934  12.606 -0.2813 -0.0474 -0.0714
17530DOD     C396411   7.334   1.266  12.513 -0.0287  0.0635 -0.0378
17531DOD     C196412  28.356  17.250   6.569  0.3425  0.1925  0.2151
17531DOD     C296413  28.697  17.039   6.302 -0.4179  0.2814 -0.0586
17531DOD     C396414  29.016  16.766   6.110  0.0223  0.2776 -0.0494
17532DOD     C196415  18.464  10.707  14.032  0.2925 -0.1755 -0.0479
17532DOD     C296416  18.607  11.142  13.919  0.4985  0.3129 -0.0275
17532DOD     C396417  18.762  11.609  13.902  0.1085  0.1395 -0.0300
17533DOD     C196418  29.588   9.741   5.950  0.1033 -0.1049  0.0006
17533DOD     C296419  29.549  10.012   5.520  0.1383  0.2582 -0.2242
17533DOD     C396420  29.374   9.855   5.144 -0.1834 -0.1142  0.0050
17534DOD     C196421  20.143  18.551  11.069  0.3377 -0.6777  0.0916
17534DOD     C296422  20.100  18.119  10.912 -0.4098 -0.0676 -0.0773
17534DOD     C396423  20.264  17.809  11.172 -0.4235  0.3731 -0.0253
17535DOD     C196424   2.370  28.193  16.303 -0.1857  0.1516  0.1359
17535DOD     C296425   1.988  28.008  16.609  0.3448 -0.1617 -0.3412
17535DOD     C396426   1.764  27.792  16.984  0.1696  0.1400  0.3081
17536DOD     C196427   6.216  10.689   0.762  0.0136  0.4239 -0.0819
17536DOD     C296428   6.116  10.303   0.525 -0.0569  0.2614 -0.0369
17536DOD     C396429   5.999   9.848   0.645  0.1760  0.1510 -0.1332
17537DOD     C196430  15.953  11.652  22.092 -0.1367 -0.0647  0.2274
17537DOD     C296431  15.802  12.105  22.137 -0.0389  0.2868 -0.0129
17537DOD     C396432  15.407  12.163  22.481 -0.1306  0.1173  0.2137
17538DOD     C196433  10.599  15.056  19.958 -0.1116 -0.0739  0.1660
17538DOD     C296434  10.685  15.472  20.164  0.0877 -0.0707  0.0807
17538DOD     C396435  11.064  15.676  20.390  0.0810  0.0136  0.0247
17539DOD     C196436  28.294  13.938  20.521  0.0237  0.0717 -0.1932
17539DOD     C296437  27.825  14.014  20.514 -0.1837  0.1507  0.2462
17539DOD     C396438  27.405  14.268  20.640  0.1968 -0.1796  0.0078
17540DOD     C196439  29.153  16.318  22.259 -0.1863 -0.0818 -0.2036
17540DOD     C296440  29.199  16.683  22.570 -0.0813  0.1988 -0.0656
17540DOD     C396441  29.441  17.004  22.789 -0.0303  0.2189 -0.2098
17541DOD     C196442  24.075  16.234  28.561 -0.1737 -0.0286 -0.1067
17541DOD     C296443  24.414  16.478  28.405 -0.3872  0.2116 -0.3017
17541DOD     C396444  24.801  16.321  28.252 -0.0425  0.0431 -0.1893
17542DOD     C196445   1.452  28.356  28.399 -0.1849 -0.0741  0.0427
17542DOD     C296446   1.259  27.961  28.239  0.0932 -0.2472  0.2277
17542DOD     C396447   1.234  27.569  27.962  0.0135  0.0301 -0.3060
17543DOD     C196448   0.773   7.926   3.481 -0.1228  0.3130  0.1113
17543DOD     C296449   0.765   7.616   3.811  0.0130 -0.0681  0.0025
17543DOD     C396450   0.647   7.236   3.937  0.1036  0.2470 -0.0617
17544DOD     C196451   1.478  27.452  29.720 -0.2019 -0.2116  0.0120
17544DOD     C296452   1.413  27.823  29.371  0.0376 -0.0282 -0.1942
17544DOD     C396453   1.512  28.253  29.416 -0.0079 -0.0132  0.0557
17545DOD     C196454  24.450  10.874  26.989 -0.1110 -0.1333  0.0228
17545DOD     C296455  24.833  10.805  27.284  0.2014  0.3800  0.0602
17545DOD     C396456  25.245  10.560  27.434 -0.0392  0.1466  0.1500
17546DOD     C196457  24.939  16.689   9.749  0.0116  0.0812  0.3326
17546DOD     C296458  25.223  16.420   9.440 -0.0218 -0.0404  0.2372
17546DOD     C396459  25.460  16.028   9.320  0.1060  0.2279 -0.0391
17547DOD     C196460  23.680   8.921  19.800  0.2945 -0.2107  0.0205
17547DOD     C296461  23.783   9.133  20.196 -0.2184 -0.0606  0.0737
17547DOD     C396462  24.054   9.424  20.384 -0.1923  0.1284  0.0527
17548DOD     C196463  25.243   8.842   9.373 -0.0894 -0.5682 -0.1864
17548DOD     C296464  25.454   8.639   9.753  0.0024  0.3560 -0.1387
17548DOD     C396465  25.795   8.552  10.042  0.0774 -0.0210 -0.0202
17549DOD     C196466   7.393  18.282   8.949  0.1523  0.0752  0.2026
17549DOD     C296467   6.927  18.257   9.104 -0.1225  0.1079 -0.0684
17549DOD     C396468   6.557  18.294   9.431 -0.1270 -0.2731 -0.0541
17550DOD     C196469  12.704  10.648   3.332 -0.0673 -0.0722 -0.0572
17550DOD     C296470  12.853  10.242   3.478 -0.2298  0.0527  0.0284
17550DOD     C396471  12.963  10.001   3.827  0.3379  0.1070 -0.0030
17551DOD     C196472   8.834   0.414  23.070  0.0786 -0.5153  0.1614
17551DOD     C296473   8.917   0.720  23.429  0.2382  0.1577  0.1260
17551DOD     C396474   9.148   1.112  23.572 -0.2759  0.1405 -0.1381
17552DOD     C196475  23.032  25.207  22.987 -0.2414 -0.3203  0.0096
17552DOD     C296476  22.725  25.123  22.651  0.2462 -0.0084 -0.0233
17552DOD     C396477  22.742  25.208  22.174  0.0801  0.2406  0.0905
17553DOD     C196478  10.256  23.919  29.756 -0.0901  0.0175 -0.0447
17553DOD     C296479  10.171  24.317  29.561  0.3096  0.0482  0.3557
17553DOD     C396480  10.242  24.671  29.279 -0.0611 -0.1626  0.0848
17554DOD     C196481  12.235  24.293  23.971 -0.0163  0.1915 -0.2358
17554DOD     C296482  12.063  23.991  24.324 -0.1661  0.0668  0.0167
17554DOD     C396483  11.763  23.699  24.567 -0.3592 -0.1559 -0.1940
17555DOD     C196484  18.156   8.501  12.842 -0.1209 -0.0790  0.3401
17555DOD     C296485  17.783   8.628  12.523 -0.3987  0.0816  0.0571
17555DOD     C396486  17.476   8.704  12.159  0.0886 -0.1889 -0.0816
17556DOD     C196487   1.476   1.582  23.453  0.0355 -0.2174  0.1824
17556DOD     C296488   1.618   1.230  23.723 -0.1204  0.1452 -0.1144
17556DOD     C396489   1.975   0.891  23.556  0.1391 -0.3337 -0.2067
17557DOD     C196490  25.197   9.997  24.932 -0.0599  0.0832 -0.0236
17557DOD     C296491  24.840   9.734  25.093  0.0991 -0.0050  0.2780
17557DOD     C396492  24.516   9.430  25.262  0.1885  0.0375  0.3384
17558DOD     C196493  15.103   5.449  25.080 -0.2056  0.0255 -0.0932
17558DOD     C296494  14.788   5.769  25.127 -0.0121  0.0933  0.0353
17558DOD     C396495  14.423   5.927  25.380  0.4442  0.1782  0.1906
17559DOD     C196496   8.492  29.846   2.160 -0.0433  0.2030 -0.3592
17559DOD     C296497   7.978  29.891   2.089  0.0306 -0.0454  0.3061
17559DOD     C396498   7.552  30.045   2.038 -0.4216  0.0103 -0.3924
17560DOD     C196499  16.034  20.464  10.799  0.0693  0.0180  0.1114
17560DOD     C296500  15.651  20.308  11.035  0.3300  0.1723  0.1511
17560DOD     C396501  15.225  20.108  11.146  0.0573  0.0240  0.3010
17561DOD     C196502  16.232   2.814   1.611 -0.1006  0.1763 -0.1372
17561DOD     C296503  16.633   2.528   1.732 -0.1539  0.1037  0.0254
17561DOD     C396504  16.785   2.458   2.142  0.3818  0.1549  0.1936
17562DOD     C196505   6.628   9.027   3.428 -0.0294  0.2406 -0.0210
17562DOD     C296506   6.984   8.759   3.359  0.1276  0.1800  0.1600
17562DOD     C396507   7.327   8.630   3.048  0.0559  0.3754 -0.1005
17563DOD     C196508  25.749   7.657   0.101  0.1163  0.3330 -0.2239
17563DOD     C296509  26.207   7.694  30.275 -0.1041  0.0213 -0.1214
17563DOD     C396510  26.461   7.799  29.929  0.2980 -0.0050  0.0625
17564DOD     C196511  20.897  17.059  14.773  0.0328  0.1806 -0.0111
17564DOD     C296512  20.743  16.637  14.669 -0.0968  0.0820  0.0861
17564DOD     C396513  20.534  16.167  14.594  0.0673  0.0148  0.1087
17565DOD     C196514  14.525  19.374  16.931  0.3047  0.2443  0.3132
17565DOD     C296515  14.849  19.269  17.201 -0.1384  0.0366  0.3483
17565DOD     C396516  15.186  19.389  17.519  0.0182  0.1741  0.0127
17566DOD     C196517   7.121   2.704  14.531  0.3141  0.2996  0.2729
17566DOD     C296518   6.916   2.692  14.952  0.2436 -0.0472 -0.1171
17566DOD     C396519   6.581   2.553  15.239  0.1700  0.1008  0.1952
17567DOD     C196520   1.164   7.833  27.275  0.1054  0.3660 -0.0123
17567DOD     C296521   0.719   7.625  27.390 -0.1106 -0.3387 -0.1047
17567DOD     C396522   0.386   7.305  27.519 -0.1068 -0.1960  0.0214
17568DOD     C196523  22.753  28.205  19.752  0.0757  0.1701 -0.2371
17568DOD     C296524  22.648  28.640  19.761  0.1725 -0.0812  0.3671
17568DOD     C396525  22.415  28.837  19.398 -0.3439 -0.3287  0.1001
17569DOD     C196526  13.567  29.368  24.382  0.1578 -0.1319 -0.0551
17569DOD     C296527  13.537  29.373  24.785  0.1581  0.0886  0.0283
17569DOD     C396528  13.209  29.501  25.184  0.5380  0.0096  0.2285
17570DOD     C196529  23.924  23.032  26.542 -0.1397  0.0075 -0.1673
17570DOD     C296530  23.578  23.345  26.435  0.2639  0.0250  0.1079
17570DOD     C396531  23.443  23.608  26.072 -0.0847  0.1781  0.2067
17571DOD     C196532  13.482   5.366  27.014  0.2153  0.0907  0.2414
17571DOD     C296533  13.570   5.835  27.041  0.3441  0.0778  0.0134
17571DOD     C396534  13.501   6.234  26.770  0.0052  0.0079 -0.0519
17572DOD     C196535  16.973   9.219  20.147  0.1040  0.1622 -0.1072
17572DOD     C296536  16.623   8.895  20.283 -0.1013 -0.0081 -0.0792
17572DOD     C396537  16.404   8.518  20.046  0.0357  0.0125  0.0892
17573DOD     C196538   8.008  26.078  19.251  0.0075 -0.0062 -0.0820
17573DOD     C296539   7.925  25.609  19.147 -0.0809 -0.3351 -0.2714
17573DOD     C396540   7.740  25.340  19.446 -0.1660  0.1051 -0.2921
17574DOD     C196541  24.799  18.812  17.317  0.1655  0.1021 -0.1049
17574DOD     C296542  24.408  18.821  17.615 -0.0737  0.3684 -0.2213
17574DOD     C396543  24.177  18.637  17.978  0.3525  0.1504  0.2442
17575DOD     C196544   5.321   7.688  20.069  0.0309  0.1989 -0.3034
17575DOD     C296545   5.263   7.914  19.730  0.0662  0.2168 -0.3889
17575DOD     C396546   5.511   7.927  19.347  0.2228  0.0177  0.0603
17576DOD     C196547   4.748  19.976  17.049  0.3750 -0.1415  0.1740
17576DOD     C296548   4.686  19.758  17.458 -0.0128 -0.0441 -0.2855
17576DOD     C396549   4.837  19.937  17.847  0.0457  0.2004  0.2648
17577DOD     C196550  11.095  16.220   1.808  0.0167  0.1701 -0.1965
17577DOD     C296551  11.222  15.955   1.511 -0.3312  0.2961  0.0137
17577DOD     C396552  11.130  15.572   1.293  0.2173 -0.0045 -0.0982
17578DOD     C196553  21.607  16.226  24.333 -0.2182  0.0721  0.3702
17578DOD     C296554  21.598  16.013  24.734 -0.1744  0.1047  0.1016
17578DOD     C396555  21.495  16.218  25.194 -0.3134 -0.4009  0.1564
17579DOD     C196556  11.372  21.867  14.973  0.2954  0.0341 -0.1517
17579DOD     C296557  11.531  21.387  14.916  0.0708 -0.4074 -0.2513
17579DOD     C396558  11.898  21.136  14.914  0.0449 -0.3173 -0.1192
17580DOD     C196559  27.297  28.422  16.581 -0.1767 -0.0422  0.1621
17580DOD     C296560  27.016  28.114  16.507 -0.0869  0.1039 -0.1581
17580DOD     C396561  26.976  27.618  16.505 -0.1239 -0.2217  0.2597
17581DOD     C196562   6.215  11.586  29.289 -0.0645  0.2946  0.1090
17581DOD     C296563   6.631  11.359  29.268 -0.0658 -0.2304  0.3340
17581DOD     C396564   7.003  11.097  29.132 -0.3166  0.0016  0.0995
17582DOD     C196565   6.797  10.618  16.931 -0.3664  0.0906 -0.2124
17582DOD     C296566   6.800  11.062  16.849 -0.2015 -0.3777 -0.2559
17582DOD     C396567   6.560  11.470  16.758 -0.0424 -0.2903 -0.0955
17583DOD     C196568   8.598  23.684  24.335 -0.0334  0.2052 -0.1217
17583DOD     C296569   8.218  23.600  24.686  0.3369  0.0033 -0.1104
17583DOD     C396570   7.923  23.532  25.032  0.2084 -0.0070 -0.1003
17584DOD     C196571  27.752  19.167  22.079 -0.1646  0.0219  0.1119
17584DOD     C296572  27.722  19.677  21.997 -0.2187  0.2181 -0.0963
17584DOD     C396573  27.634  20.129  21.834  0.1320 -0.0634 -0.0475
17585DOD     C196574   3.303  29.137  25.548 -0.4270 -0.0733  0.0180
17585DOD     C296575   3.380  28.711  25.487  0.0213  0.1071 -0.1008
17585DOD     C396576   3.283  28.543  25.106 -0.1367 -0.0263 -0.2466
17586DOD     C196577  19.230  13.016  18.702 -0.0995 -0.2363 -0.0632
17586DOD     C296578  19.418  13.104  18.286  0.2702 -0.1032  0.1711
17586DOD     C396579  19.778  13.068  18.002  0.3062  0.0017  0.1841
17587DOD     C196580  12.525   1.679  10.284  0.1583  0.5017  0.0923
17587DOD     C296581  12.242   1.316  10.290 -0.2759 -0.0414  0.2325
17587DOD     C396582  11.822   1.175  10.047 -0.1496  0.1327 -0.3164
17588DOD     C196583  18.876   5.602  21.569  0.0353  0.0643 -0.3540
17588DOD     C296584  19.291   5.590  21.378 -0.1034 -0.2304 -0.1267
17588DOD     C396585  19.731   5.562  21.298 -0.1559 -0.0549  0.0731
17589DOD     C196586  15.809  16.718  21.129  0.1864  0.0916 -0.3548
17589DOD     C296587  15.743  16.259  21.272  0.1316 -0.1322 -0.2498
17589DOD     C396588  15.701  15.934  21.638  0.0773  0.0916  0.1643
17590DOD     C196589  11.309   4.279  21.419 -0.0674  0.1318 -0.1542
17590DOD     C296590  11.571   4.095  21.801  0.0535  0.1706  0.1302
17590DOD     C396591  11.523   3.813  22.186  0.2230  0.0154  0.1483
17591DOD     C196592  25.486  27.322  25.308  0.0603  0.0129 -0.1497
17591DOD     C296593  25.884  27.174  25.106 -0.0984 -0.2987 -0.0616
17591DOD     C396594  26.186  27.138  24.736  0.3379  0.0120 -0.0179
17592DOD     C196595  14.329  22.625  21.707  0.0266  0.1102  0.1093
17592DOD     C296596  14.577  22.346  22.004  0.0638 -0.1456 -0.5167
17592DOD     C396597  14.829  22.098  22.323  0.1670  0.1722 -0.2207
17593DOD     C196598   9.691  10.252  25.688 -0.0714 -0.2502  0.0452
17593DOD     C296599   9.403  10.316  25.308 -0.0126 -0.0270 -0.1171
17593DOD     C396600   9.181  10.070  24.971  0.0628  0.2793 -0.1857
17594DOD     C196601  15.208   4.630  27.516 -0.2794 -0.2588  0.3061
17594DOD     C296602  15.405   4.315  27.221  0.3372 -0.0612 -0.1496
17594DOD     C396603  15.644   3.917  27.128  0.0083 -0.2197  0.0277
17595DOD     C196604  19.670   9.058  12.862 -0.1444  0.0384  0.0284
17595DOD     C296605  19.664   8.617  12.633 -0.0665 -0.3118 -0.2415
17595DOD     C396606  19.571   8.195  12.582  0.1036  0.2148 -0.0295
17596DOD     C196607   3.957   2.033   9.856 -0.1767  0.1101 -0.1136
17596DOD     C296608   3.572   2.049  10.185  0.2921  0.1432  0.1108
17596DOD     C396609   3.106   2.087  10.371  0.2308 -0.0627  0.2791
17597DOD     C196610   8.270   9.267  27.487  0.0539 -0.0276 -0.2003
17597DOD     C296611   8.642   9.557  27.285  0.0258  0.2661 -0.1567
17597DOD     C396612   8.777   9.885  26.902 -0.1141 -0.1409 -0.3118
17598DOD     C196613   0.456  21.988  16.017  0.4122  0.0972 -0.0890
17598DOD     C296614   0.104  21.751  16.247  0.2585  0.3052 -0.0822
17598DOD     C396615  30.157  21.341  16.246  0.1306  0.0693 -0.0111
17599DOD     C196616  28.705  28.449  11.249  0.0997 -0.0140  0.1835
17599DOD     C296617  28.324  28.249  11.396 -0.0373 -0.0481  0.2183
17599DOD     C396618  27.972  27.954  11.276  0.1594  0.2288  0.2535
17600DOD     C196619  14.756  13.698   8.468 -0.0543 -0.0378  0.0048
17600DOD     C296620  14.368  13.836   8.250 -0.1009 -0.1404 -0.2406
17600DOD     C396621  13.955  13.733   8.330  0.0167 -0.1955  0.2429
17601DOD     C196622   7.217   5.733  29.279 -0.1372  0.1596  0.0388
17601DOD     C296623   6.932   5.861  28.934  0.0479 -0.0731  0.2426
17601DOD     C396624   6.610   5.964  28.548 -0.2016 -0.2290  0.0408
17602DOD     C196625  24.273  23.229   9.363  0.3170  0.1920 -0.1605
17602DOD     C296626  24.762  23.213   9.400 -0.1752  0.0737  0.0394
17602DOD     C396627  25.159  23.126   9.644  0.0845 -0.2546 -0.1268
17603DOD     C196628  19.787   8.286  20.836  0.1699 -0.1150  0.0227
17603DOD     C296629  19.921   8.627  21.140  0.3176  0.1404 -0.1645
17603DOD     C396630  19.645   9.014  21.282  0.1065  0.0918  0.0392
17604DOD     C196631  10.298  26.091   7.672 -0.0505 -0.4881 -0.0396
17604DOD     C296632  10.263  26.053   7.230 -0.1099 -0.0984 -0.0621
17604DOD     C396633  10.341  25.947   6.754 -0.1540 -0.1538  0.0405
17605DOD     C196634  13.725  18.200  13.379  0.0810  0.2131  0.2528
17605DOD     C296635  13.327  18.520  13.365  0.1729 -0.0027  0.2669
17605DOD     C396636  13.024  18.843  13.422  0.2955  0.0278 -0.0703
17606DOD     C196637  28.179  16.894  11.716 -0.1850  0.1003 -0.1158
17606DOD     C296638  27.769  17.045  11.868  0.2011  0.1815  0.1070
17606DOD     C396639  27.363  17.015  11.580  0.0001  0.3381  0.1379
17607DOD     C196640  17.267  13.994  29.749  0.2917  0.0636  0.1337
17607DOD     C296641  17.405  13.611  29.437 -0.0464 -0.1063 -0.1410
17607DOD     C396642  17.544  13.185  29.500  0.0296 -0.0063  0.2425
17608DOD     C196643  17.368  21.676  29.083 -0.1589  0.0512  0.3236
17608DOD     C296644  17.772  21.536  28.910 -0.1909 -0.2174  0.0006
17608DOD     C396645  18.113  21.318  29.142 -0.0559  0.2005 -0.0342
17609DOD     C196646   8.801  23.081  19.059 -0.0086  0.0264 -0.1530
17609DOD     C296647   9.056  22.644  19.055  0.4502 -0.2287  0.1574
17609DOD     C396648   9.430  22.400  18.836  0.1913 -0.2292 -0.0577
17610DOD     C196649   4.723  24.742  25.544 -0.1129 -0.0120 -0.0548
17610DOD     C296650   4.343  24.874  25.242 -0.1083  0.0723 -0.1347
17610DOD     C396651   4.025  24.936  24.899 -0.0832 -0.0597  0.1535
17611DOD     C196652   9.862   3.274   3.769 -0.2948  0.1896 -0.0228
17611DOD     C296653   9.473   3.331   3.489 -0.0758 -0.0114 -0.1826
17611DOD     C396654   9.351   3.263   3.030  0.1217  0.1668  0.2296
17612DOD     C196655  20.067  25.929   5.105 -0.3020  0.0562 -0.1048
17612DOD     C296656  19.684  26.001   4.845 -0.0536  0.1722  0.1090
17612DOD     C396657  19.338  26.190   4.584 -0.1573  0.1108  0.0580
17613DOD     C196658  28.886  27.984   5.904  0.0766 -0.2508 -0.0465
17613DOD     C296659  28.430  28.162   6.070  0.2393  0.2343 -0.1000
17613DOD     C396660  28.046  28.444   6.013 -0.3592  0.0870 -0.2331
17614DOD     C196661  22.046   3.552   6.971  0.2663  0.0025 -0.1060
17614DOD     C296662  22.082   3.718   6.524  0.0302 -0.2868  0.2356
17614DOD     C396663  21.901   4.059   6.277 -0.2441 -0.1028 -0.0716
17615DOD     C196664   3.482   4.213  27.590 -0.0955 -0.1350 -0.3419
17615DOD     C296665   3.471   3.889  27.912 -0.2955 -0.1770 -0.1221
17615DOD     C396666   3.254   3.962  28.312  0.1139 -0.1705 -0.1435
17616DOD     C196667   6.647   4.267  16.133  0.0102 -0.0661  0.2157
17616DOD     C296668   6.641   4.539  15.718  0.0472 -0.1239 -0.1207
17616DOD     C396669   6.521   4.611  15.202 -0.0614  0.0393  0.2168
17617DOD     C196670   9.018   9.577  22.676  0.3659 -0.1894  0.1770
17617DOD     C296671   9.343   9.335  22.863 -0.0590  0.0542  0.0543
17617DOD     C396672   9.499   9.150  23.238  0.2329  0.0465  0.0748
17618DOD     C196673  19.378   9.893  28.560 -0.0193 -0.1563  0.0914
17618DOD     C296674  19.352  10.216  28.988  0.3276  0.1614 -0.0780
17618DOD     C396675  18.946  10.377  28.986  0.1616  0.1813  0.2998
17619DOD     C196676  23.442  17.187   9.448 -0.0569 -0.0979  0.3076
17619DOD     C296677  23.324  16.786   9.374 -0.1504 -0.1045  0.0852
17619DOD     C396678  23.557  16.339   9.380  0.1964  0.0524 -0.0062
17620DOD     C196679  12.484  24.975   9.601 -0.0517  0.3824  0.2087
17620DOD     C296680  12.379  24.833  10.066 -0.0473 -0.2460  0.3237
17620DOD     C396681  12.308  24.812  10.516 -0.1954 -0.0484  0.0864
17621DOD     C196682  26.743  18.656  17.907 -0.2985  0.0334 -0.0591
17621DOD     C296683  27.058  18.996  17.929  0.2808 -0.2150  0.1854
17621DOD     C396684  27.275  19.406  17.843  0.0565 -0.1027 -0.2355
17622DOD     C196685   5.252   7.731  22.155 -0.1281 -0.0436 -0.1173
17622DOD     C296686   5.486   7.279  22.014 -0.1105  0.2116  0.1958
17622DOD     C396687   5.533   6.802  22.132 -0.0998  0.3471  0.0940
17623DOD     C196688  25.905  27.823  28.998 -0.0018 -0.0120  0.2469
17623DOD     C296689  25.505  27.911  28.788 -0.1895 -0.2161  0.0831
17623DOD     C396690  25.286  28.249  28.541 -0.3350  0.1621 -0.0113
17624DOD     C196691   5.868  24.694  15.731  0.0736 -0.2883 -0.0187
17624DOD     C296692   5.994  24.582  16.158  0.0888  0.0236 -0.1819
17624DOD     C396693   5.901  24.768  16.613 -0.1219  0.2453 -0.0786
17625DOD     C196694   1.574  29.668   7.624  0.2089  0.0220 -0.0612
17625DOD     C296695   1.835  29.773   7.289 -0.0061  0.3022  0.3622
17625DOD     C396696   1.798  30.101   6.948 -0.1518 -0.0737 -0.0060
17626DOD     C196697  29.081  12.326  17.543 -0.2283  0.0438  0.3183
17626DOD     C296698  29.252  12.087  17.129 -0.2900 -0.2483 -0.0117
17626DOD     C396699  29.591  11.902  16.955  0.2046 -0.1080 -0.0577
17627DOD     C196700  19.291   6.233  14.962 -0.1245  0.0790  0.0910
17627DOD     C296701  18.892   6.098  15.005 -0.1451  0.0210  0.0608
17627DOD     C396702  18.552   6.196  14.700 -0.0789  0.2855 -0.2547
17628DOD     C196703  17.372  28.291  11.110  0.1916  0.2608 -0.1639
17628DOD     C296704  17.811  28.426  11.227  0.0506 -0.1468  0.2993
17628DOD     C396705  18.168  28.265  11.389  0.1280  0.0114 -0.2267
17629DOD     C196706  25.136  24.500   4.970  0.1109  0.1754 -0.0226
17629DOD     C296707  25.274  24.411   4.488 -0.1989  0.0155 -0.0608
17629DOD     C396708  25.387  24.298   4.026 -0.0566 -0.1851  0.3032
17630DOD     C196709  13.527   6.883   9.662  0.0192  0.1157 -0.0575
17630DOD     C296710  13.838   6.597   9.504  0.0490  0.0515  0.0018
17630DOD     C396711  14.149   6.289   9.600 -0.2396  0.0917  0.2876
17631DOD     C196712  21.106  14.538   0.040  0.1593 -0.0664  0.3569
17631DOD     C296713  21.111  14.952   0.299  0.1719 -0.1042 -0.1741
17631DOD     C396714  20.815  15.282   0.361  0.0947 -0.0832 -0.0186
17632DOD     C196715   0.138   9.025  26.742 -0.2023  0.1256 -0.1510
17632DOD     C296716   0.373   9.259  26.329  0.2393  0.0693 -0.1710
17632DOD     C396717   0.776   9.261  26.076 -0.3390  0.3278  0.0883
17633DOD     C196718  12.276  26.737   0.579 -0.0064  0.1748  0.1913
17633DOD     C296719  11.922  26.577   0.756 -0.0803 -0.0444 -0.2173
17633DOD     C396720  11.572  26.669   0.567  0.0390 -0.2910 -0.1181
17634DOD     C196721   5.128  21.531  15.082  0.0467  0.2083  0.0022
17634DOD     C296722   4.785  21.295  14.941  0.2317  0.1930  0.2777
17634DOD     C396723   4.586  21.172  14.560 -0.1436  0.4352  0.0569
17635DOD     C196724  16.730  14.474   2.856 -0.0812  0.0523 -0.2351
17635DOD     C296725  16.924  14.617   3.227 -0.3566  0.0732 -0.0276
17635DOD     C396726  17.169  14.819   3.532 -0.4265 -0.1024  0.3852
17636DOD     C196727  12.395  24.293  25.777  0.1920  0.3100 -0.0847
17636DOD     C296728  12.302  24.471  25.365  0.0805 -0.1523  0.0083
17636DOD     C396729  12.142  24.940  25.297  0.0556  0.2470  0.1810
17637DOD     C196730  26.338  28.284   8.205  0.0453  0.1043  0.3069
17637DOD     C296731  26.653  28.630   8.241 -0.0361  0.2748 -0.0385
17637DOD     C396732  26.718  29.023   8.430 -0.0827  0.2588 -0.0153
17638DOD     C196733  17.173   2.377  13.623  0.1447  0.0215  0.0165
17638DOD     C296734  17.433   2.696  13.860 -0.0094  0.2431  0.0273
17638DOD     C396735  17.737   2.672  14.243 -0.0263 -0.1773 -0.0087
17639DOD     C196736  25.999  20.372  10.516  0.1403  0.0488  0.2364
17639DOD     C296737  26.175  20.660  10.194 -0.2778  0.1530 -0.2099
17639DOD     C396738  26.367  21.090  10.116  0.0128 -0.0363  0.1492
17640DOD     C196739   1.911   3.011  28.738 -0.0789 -0.1584  0.0220
17640DOD     C296740   2.224   3.331  28.574  0.4293 -0.2012  0.1068
17640DOD     C396741   2.410   3.734  28.715 -0.1514  0.0109 -0.1519
17641DOD     C196742  24.703  21.222   6.850 -0.0027  0.1643  0.0425
17641DOD     C296743  24.692  21.381   6.451  0.1597 -0.0047  0.0238
17641DOD     C396744  24.749  21.792   6.286 -0.3645 -0.1286 -0.0079
17642DOD     C196745  28.805  23.338  28.412  0.0383  0.2505 -0.1666
17642DOD     C296746  28.986  23.746  28.363  0.0678 -0.0414  0.2322
17642DOD     C396747  28.868  24.136  28.131 -0.0694  0.2414  0.3260
17643DOD     C196748   8.242   1.889  13.801  0.0761 -0.2191  0.2635
17643DOD     C296749   7.827   1.915  14.054 -0.0661  0.0280 -0.2706
17643DOD     C396750   7.456   2.024  14.368 -0.1196 -0.1977 -0.0190
17644DOD     C196751  12.815  17.226   8.619 -0.1608 -0.2410  0.0449
17644DOD     C296752  13.267  17.280   8.385  0.1107  0.0605  0.2621
17644DOD     C396753  13.572  16.968   8.169 -0.0433 -0.3125 -0.1304
17645DOD     C196754  15.366  17.917  25.891 -0.0501 -0.0049  0.3754
17645DOD     C296755  15.209  17.962  25.491  0.2002  0.0942  0.1270
17645DOD     C396756  15.052  17.715  25.130 -0.1182  0.1002 -0.2227
17646DOD     C196757   0.294   2.984  19.061  0.2994 -0.2249 -0.1026
17646DOD     C296758   0.788   3.173  19.084  0.2266 -0.1836  0.0044
17646DOD     C396759   0.833   3.580  18.957  0.3287  0.0356  0.2233
17647DOD     C196760  20.350   1.348  19.740 -0.2517  0.2585 -0.0808
17647DOD     C296761  20.150   1.503  20.098 -0.0011 -0.1531  0.3579
17647DOD     C396762  20.151   1.345  20.514 -0.1218  0.0506  0.1718
17648DOD     C196763  11.107  22.247  17.994  0.1298 -0.1569  0.2409
17648DOD     C296764  11.211  22.658  17.880  0.0297 -0.2842 -0.2641
17648DOD     C396765  11.356  22.740  17.455 -0.1416  0.2460 -0.0794
17649DOD     C196766  23.436   8.504  11.427  0.0627 -0.0830  0.1299
17649DOD     C296767  23.757   8.621  11.778 -0.0616 -0.0804  0.3248
17649DOD     C396768  23.957   9.022  11.979  0.0988  0.2385  0.1421
17650DOD     C196769   5.202  20.373  22.637  0.0078 -0.1605 -0.0798
17650DOD     C296770   5.090  20.416  23.071  0.0691 -0.4213  0.2593
17650DOD     C396771   5.173  20.398  23.539  0.0442  0.1005  0.0027
17651DOD     C196772   4.981   7.159  12.296 -0.2082  0.2191  0.1094
17651DOD     C296773   4.908   7.276  12.774 -0.1470 -0.0028 -0.3206
17651DOD     C396774   4.964   7.535  13.124 -0.2321  0.0264 -0.0227
17652DOD     C196775  21.319   5.217   3.209  0.0660 -0.2463  0.0401
17652DOD     C296776  21.531   4.891   3.515  0.1100  0.0632  0.1459
17652DOD     C396777  21.832   4.853   3.862 -0.0576 -0.2627  0.0300
17653DOD     C196778  16.923  29.334   0.401  0.1211 -0.1019  0.1662
17653DOD     C296779  16.821  29.596   0.053 -0.1313  0.0416 -0.0662
17653DOD     C396780  16.450  29.533  30.094 -0.2502  0.0347  0.0681
17654DOD     C196781  30.122  28.299   1.592 -0.1652  0.0861 -0.0444
17654DOD     C296782   0.019  28.712   1.547 -0.1065  0.2321 -0.1230
17654DOD     C396783   0.047  29.107   1.755 -0.1139 -0.4078 -0.1804
17655DOD     C196784  22.279  18.580  25.946  0.0458  0.0413  0.1750
17655DOD     C296785  21.829  18.646  26.125  0.1536 -0.1733  0.0714
17655DOD     C396786  21.376  18.660  26.145  0.0688 -0.0147  0.0975
17656DOD     C196787  19.171  21.063  10.236  0.0229 -0.1511  0.2960
17656DOD     C296788  19.029  21.381  10.555 -0.2590 -0.2794 -0.0441
17656DOD     C396789  18.720  21.663  10.817  0.2860 -0.1683 -0.0894
17657DOD     C196790  23.160  29.314  11.038  0.2518 -0.2889 -0.2517
17657DOD     C296791  22.771  29.027  10.999  0.0747 -0.2477  0.1039
17657DOD     C396792  22.830  28.579  10.849  0.1005 -0.1245 -0.1881
17658DOD     C196793   5.361   6.168  27.266  0.1209  0.1840  0.1269
17658DOD     C296794   5.400   5.889  27.640  0.1322  0.2897  0.2567
17658DOD     C396795   5.805   5.664  27.677  0.0492  0.2941  0.1267
17659DOD     C196796  17.541  11.628  26.051 -0.0116  0.0466 -0.2384
17659DOD     C296797  17.502  12.007  26.304 -0.2462 -0.0159  0.2746
17659DOD     C396798  17.587  12.266  26.671  0.1578  0.0993  0.0062
17660DOD     C196799  23.721  28.190   2.582  0.0770 -0.1165  0.1406
17660DOD     C296800  23.355  28.087   2.378  0.3227  0.1173  0.1300
17660DOD     C396801  23.213  27.847   2.047  0.2527  0.0114 -0.0414
17661DOD     C196802  29.620  29.496   9.554 -0.2360 -0.1155 -0.3229
17661DOD     C296803  29.841  29.674   9.218 -0.0728 -0.1310 -0.0327
17661DOD     C396804  29.832  29.828   8.745 -0.1125  0.2128 -0.0281
17662DOD     C196805  20.646  10.752  17.590  0.2288 -0.5107 -0.2037
17662DOD     C296806  20.366  10.507  17.250  0.1293  0.2464  0.2564
17662DOD     C396807  20.152  10.476  16.819 -0.1388  0.1528  0.0170
17663DOD     C196808  21.621  14.887   1.897  0.1434  0.0626  0.6786
17663DOD     C296809  21.190  14.737   1.656 -0.1197 -0.4955 -0.0897
17663DOD     C396810  20.898  14.970   1.367 -0.0550 -0.1067 -0.2236
17664DOD     C196811   0.076  17.920  28.637 -0.2395  0.3693  0.0183
17664DOD     C296812  30.022  17.808  28.871 -0.0558  0.2687 -0.0220
17664DOD     C396813  29.837  17.559  29.251 -0.1182 -0.0058 -0.0114
17665DOD     C196814  12.450   6.234   9.714 -0.1749  0.2552  0.4832
17665DOD     C296815  12.475   6.683   9.637 -0.1135  0.0122  0.0691
17665DOD     C396816  12.401   6.950   9.231  0.0397 -0.1647 -0.1912
17666DOD     C196817  11.913  13.814  17.154 -0.3560 -0.2682  0.2915
17666DOD     C296818  11.992  13.414  17.024 -0.0925  0.0966 -0.1897
17666DOD     C396819  11.767  13.128  16.794  0.0484 -0.1143  0.1830
17667DOD     C196820   6.010  24.239  15.810 -0.2259 -0.0759  0.2045
17667DOD     C296821   6.170  24.117  16.229  0.2169 -0.1884  0.0652
17667DOD     C396822   6.266  24.381  16.628  0.3482  0.1717  0.1424
17668DOD     C196823   8.835  17.154  15.942 -0.5076  0.2067 -0.0218
17668DOD     C296824   9.241  16.956  15.810  0.2619  0.1371  0.2326
17668DOD     C396825   9.638  16.978  15.607 -0.0285 -0.1430  0.3368
17669DOD     C196826   3.201  13.403  10.165  0.4149 -0.1154 -0.2693
17669DOD     C296827   3.146  13.054   9.830  0.0643  0.2376  0.3578
17669DOD     C396828   3.420  12.735   9.635  0.0770 -0.2213 -0.0152
17670DOD     C196829  15.200  14.957  11.393 -0.0468 -0.1796 -0.2731
17670DOD     C296830  15.504  14.977  11.033  0.0415  0.2232 -0.2019
17670DOD     C396831  15.873  15.154  10.879 -0.0662 -0.1053 -0.1434
17671DOD     C196832  25.786  23.506   7.809  0.0886  0.1298  0.0608
17671DOD     C296833  25.795  23.634   7.354 -0.0741 -0.0514 -0.2147
17671DOD     C396834  26.115  23.529   7.061  0.1353  0.0796 -0.1155
17672DOD     C196835   2.455  24.365  10.642 -0.2745 -0.2245  0.0910
17672DOD     C296836   2.180  24.196  10.981 -0.0193 -0.0290  0.1014
17672DOD     C396837   1.975  23.790  11.000 -0.1588 -0.1047  0.1318
17673DOD     C196838  27.083   4.498  13.186 -0.0293  0.2092  0.0902
17673DOD     C296839  27.271   4.034  13.159 -0.2849 -0.2125  0.3531
17673DOD     C396840  26.960   3.674  13.209  0.1781  0.1786 -0.0695
17674DOD     C196841  29.981   5.126  10.907 -0.1337  0.0863 -0.0118
17674DOD     C296842  29.718   4.762  10.882 -0.3074 -0.1957 -0.4505
17674DOD     C396843  29.286   4.544  10.848 -0.3190 -0.0421  0.0123
17675DOD     C196844   1.903  19.360  27.487 -0.1036 -0.0443 -0.0599
17675DOD     C296845   1.743  18.910  27.320 -0.0547 -0.1552  0.5915
17675DOD     C396846   1.336  18.792  27.157 -0.1776 -0.1798  0.2894
17676DOD     C196847   3.942  12.080   4.116  0.1596 -0.2153  0.3319
17676DOD     C296848   3.541  12.065   4.096  0.2746 -0.2422 -0.0067
17676DOD     C396849   3.097  12.006   4.015  0.1351 -0.0206 -0.1496
17677DOD     C196850  25.944  19.911   4.812  0.3082 -0.0526  0.3522
17677DOD     C296851  26.358  19.788   4.754  0.1255  0.1097  0.1540
17677DOD     C396852  26.800  19.687   4.638 -0.0142 -0.0680  0.0018
17678DOD     C196853  16.520  14.958   2.897  0.0246  0.1032 -0.0294
17678DOD     C296854  16.289  14.751   2.535  0.2429  0.2083  0.2876
17678DOD     C396855  16.052  14.405   2.324 -0.2943 -0.1204  0.3488
17679DOD     C196856  12.155  13.127  27.036 -0.0795  0.1426 -0.1012
17679DOD     C296857  12.266  13.581  27.057 -0.0387  0.0266  0.1997
17679DOD     C396858  12.270  14.074  26.851  0.1899 -0.1590 -0.4666
17680DOD     C196859   2.459  12.575  10.817 -0.0227 -0.0885  0.0685
17680DOD     C296860   2.708  12.207  10.818  0.0949 -0.2883 -0.0009
17680DOD     C396861   2.700  11.829  10.575  0.1208  0.2342 -0.3352
17681DOD     C196862  15.187  16.046  14.257  0.0364 -0.2198  0.0786
17681DOD     C296863  15.209  16.268  14.646 -0.0132 -0.0025  0.0166
17681DOD     C396864  15.520  16.596  14.763  0.1615 -0.0707 -0.3643
17682DOD     C196865   0.151   9.897   7.745 -0.0800  0.0710 -0.0825
17682DOD     C296866  30.300   9.684   7.370  0.3168 -0.0570 -0.0899
17682DOD     C396867  29.907   9.428   7.276 -0.3162  0.0810  0.1331
17683DOD     C196868  29.610  23.647   1.749 -0.0319 -0.1102 -0.1830
17683DOD     C296869  29.526  23.913   2.098 -0.1031 -0.3641 -0.3531
17683DOD     C396870  29.386  24.205   2.457 -0.1930 -0.1702  0.2598
17684DOD     C196871  18.304  29.138  22.153 -0.2620  0.1968  0.0520
17684DOD     C296872  17.882  28.954  22.212  0.1861  0.0805  0.0039
17684DOD     C396873  17.672  28.652  21.887  0.1529  0.1694  0.1813
17685DOD     C196874  17.996   8.167  17.162  0.0277 -0.0150 -0.0928
17685DOD     C296875  18.110   8.175  17.657  0.0516  0.0322  0.1945
17685DOD     C396876  18.106   7.822  17.977  0.3278  0.2653 -0.1973
17686DOD     C196877  12.522  16.810  27.474 -0.3006  0.1542  0.1785
17686DOD     C296878  12.129  16.903  27.175  0.1552  0.0883  0.0459
17686DOD     C396879  11.771  17.026  27.333  0.0053 -0.1543 -0.1399
17687DOD     C196880  17.342   9.101  21.063  0.0952  0.3507 -0.1395
17687DOD     C296881  16.940   8.807  21.055 -0.0125  0.0104 -0.0076
17687DOD     C396882  17.022   8.426  21.352 -0.0779  0.1334  0.3375
17688DOD     C196883  15.322  11.710  21.960 -0.0775 -0.1536  0.1522
17688DOD     C296884  15.692  11.856  21.712 -0.0483  0.0366 -0.2122
17688DOD     C396885  15.990  12.150  21.463  0.2458  0.0155 -0.2115
17689DOD     C196886  25.458  21.642  25.687 -0.1869  0.1650  0.0636
17689DOD     C296887  25.278  21.293  25.908  0.1955  0.0338  0.0537
17689DOD     C396888  24.931  21.002  25.810 -0.0871  0.2041 -0.1507
17690DOD     C196889   6.242  11.247  28.864  0.0076  0.1161  0.0687
17690DOD     C296890   6.419  11.702  28.805  0.2494 -0.2697 -0.2080
17690DOD     C396891   6.735  12.045  28.969 -0.1770 -0.2578  0.0843
17691DOD     C196892  10.955   6.157  21.162 -0.1370 -0.1442 -0.2096
17691DOD     C296893  10.678   6.158  20.798  0.0990 -0.2778  0.0111
17691DOD     C396894  10.276   6.188  20.704  0.0778  0.0362 -0.0338
17692DOD     C196895   6.694  11.984   9.625  0.0425  0.0967  0.1678
17692DOD     C296896   6.650  11.497   9.518 -0.0688  0.1490 -0.1829
17692DOD     C396897   6.691  11.057   9.582  0.2181  0.0766  0.1777
17693DOD     C196898   7.107   3.682  21.818  0.1434 -0.0931  0.1594
17693DOD     C296899   7.428   3.867  21.509 -0.2120  0.1703  0.1135
17693DOD     C396900   7.407   3.931  21.070 -0.1005  0.2593 -0.1475
17694DOD     C196901  12.734  15.288  25.715 -0.3114  0.1583  0.1120
17694DOD     C296902  12.895  15.470  26.136  0.0460  0.2144  0.1636
17694DOD     C396903  12.982  15.912  26.106  0.2770 -0.3927  0.0965
17695DOD     C196904  15.974   6.508   4.917 -0.2403  0.1642  0.0016
17695DOD     C296905  16.458   6.474   4.925 -0.4529  0.0870 -0.1325
17695DOD     C396906  16.902   6.378   4.965  0.0455  0.1767  0.0181
17696DOD     C196907   2.033   7.452   6.905  0.0547  0.0317 -0.0583
17696DOD     C296908   2.049   7.886   7.100  0.0117 -0.1764 -0.3556
17696DOD     C396909   1.959   8.330   6.983 -0.1584  0.2242 -0.1391
17697DOD     C196910   9.041   5.718  18.698 -0.0957 -0.0971 -0.1621
17697DOD     C296911   8.762   5.746  19.091 -0.2317 -0.1997  0.1576
17697DOD     C396912   8.389   5.847  19.407 -0.1130 -0.4156 -0.0643
17698DOD     C196913  14.967   3.418  17.738 -0.2371 -0.0677  0.0513
17698DOD     C296914  14.687   3.678  17.463  0.1343  0.0827 -0.1420
17698DOD     C396915  14.286   3.634  17.150 -0.2879 -0.0507  0.0805
17699DOD     C196916   4.879   8.605  18.250  0.1644  0.0679  0.4696
17699DOD     C296917   4.841   8.512  17.777 -0.0284  0.2616  0.0405
17699DOD     C396918   4.841   8.398  17.337  0.0251  0.1038  0.0544
17700DOD     C196919  29.487  23.955   7.241  0.0911 -0.0731 -0.0492
17700DOD     C296920  29.585  24.038   6.777  0.0139  0.2496  0.0055
17700DOD     C396921  29.488  24.008   6.335 -0.0737 -0.1821 -0.1256
17701DOD     C196922  21.540  23.205  19.495  0.2883  0.2273 -0.0757
17701DOD     C296923  21.918  23.491  19.622  0.0075 -0.5233 -0.0004
17701DOD     C396924  22.353  23.605  19.562  0.0407 -0.2729  0.2783
17702DOD     C196925  28.094  13.010  27.763  0.0035 -0.2063 -0.0666
17702DOD     C296926  27.778  12.714  27.677  0.4416 -0.0502  0.3355
17702DOD     C396927  27.271  12.634  27.702  0.1180  0.0378 -0.0298
17703DOD     C196928   2.579   5.798  24.979  0.2296  0.1294 -0.2100
17703DOD     C296929   2.916   5.465  24.866 -0.0879 -0.2450  0.0619
17703DOD     C396930   3.327   5.336  24.642  0.2380 -0.1515  0.0187
17704DOD     C196931  17.549  16.880   0.466  0.0627  0.1276  0.1795
17704DOD     C296932  17.315  16.775   0.052  0.2184  0.0244 -0.1359
17704DOD     C396933  16.930  16.907  30.238  0.4208  0.1227 -0.3747
17705DOD     C196934  22.499  23.735   5.996 -0.1181 -0.0542  0.2377
17705DOD     C296935  22.857  23.858   6.318  0.0621 -0.0345 -0.3890
17705DOD     C396936  22.870  24.332   6.364  0.1529 -0.1051 -0.0040
17706DOD     C196937   6.452   2.405  18.839  0.0646 -0.0104  0.2214
17706DOD     C296938   6.545   2.853  18.873 -0.1548 -0.0234  0.1734
17706DOD     C396939   6.538   3.227  18.535 -0.1638 -0.1676 -0.3639
17707DOD     C196940  19.988  14.819  12.492 -0.3259 -0.0759 -0.0919
17707DOD     C296941  19.883  14.814  12.033  0.1740  0.0174 -0.3531
17707DOD     C396942  19.498  14.640  11.940  0.2409 -0.0287 -0.1163
17708DOD     C196943  21.882   1.748  10.236  0.0708 -0.1015  0.0943
17708DOD     C296944  21.416   1.598  10.263 -0.3840 -0.1494  0.1122
17708DOD     C396945  21.118   1.539   9.986  0.0310  0.0892  0.1389
17709DOD     C196946  17.387   2.687   0.387  0.1296  0.2944  0.2405
17709DOD     C296947  17.497   2.697  30.271  0.1563 -0.0639 -0.2697
17709DOD     C396948  17.275   2.707  29.877 -0.2741  0.0931  0.1719
17710DOD     C196949  15.126  18.275  19.314  0.0396 -0.1167 -0.0165
17710DOD     C296950  14.778  17.959  19.313 -0.0371 -0.2559 -0.2552
17710DOD     C396951  14.392  17.811  19.082 -0.1458  0.0175  0.1372
17711DOD     C196952   0.976   6.435  28.750 -0.1586  0.1077 -0.0216
17711DOD     C296953   1.415   6.319  28.830 -0.1242 -0.0378 -0.4627
17711DOD     C396954   1.876   6.228  28.778  0.0235 -0.0663 -0.0075
17712DOD     C196955  22.486  14.328  16.507  0.1841  0.0238 -0.3468
17712DOD     C296956  22.147  14.253  16.245  0.2071 -0.3392  0.1402
17712DOD     C396957  21.800  14.018  15.966 -0.0156 -0.0715  0.0026
17713DOD     C196958   8.328   1.193   5.191  0.2185  0.1349  0.0660
17713DOD     C296959   8.304   1.003   4.793  0.1040  0.3351  0.3436
17713DOD     C396960   8.307   1.189   4.363 -0.0373  0.0692 -0.0776
17714DOD     C196961  19.446  21.214   1.315 -0.1018  0.4060  0.1014
17714DOD     C296962  19.104  20.967   1.054  0.1785 -0.0250 -0.0498
17714DOD     C396963  18.758  20.637   0.916  0.1357 -0.1562  0.1894
17715DOD     C196964  10.473  20.170  19.712  0.0489  0.1358  0.0286
17715DOD     C296965  10.357  20.520  19.376  0.0913  0.0502  0.1120
17715DOD     C396966   9.930  20.627  19.186  0.0511 -0.0878  0.1172
17716DOD     C196967  30.063   9.527   1.904  0.1697  0.2498  0.2437
17716DOD     C296968   0.112   9.804   1.905 -0.2271  0.1757 -0.1399
17716DOD     C396969   0.435  10.168   1.877 -0.2108 -0.4128  0.1008
17717DOD     C196970   7.484  13.398  13.007  0.2091 -0.0071  0.0021
17717DOD     C296971   7.336  13.300  12.597  0.2752  0.1910 -0.4174
17717DOD     C396972   7.007  13.131  12.337  0.0212 -0.2137  0.0997
17718DOD     C196973   1.064  11.769  22.779 -0.0156 -0.1395 -0.1976
17718DOD     C296974   0.945  11.983  22.379  0.2231 -0.2965  0.1526
17718DOD     C396975   1.071  12.135  21.937 -0.0593  0.1741 -0.1215
17719DOD     C196976   1.511   5.471  14.438  0.0304 -0.2098  0.1034
17719DOD     C296977   1.892   5.345  14.153  0.1705  0.1199  0.0793
17719DOD     C396978   2.229   5.085  14.005 -0.1717  0.0644  0.0265
17720DOD     C196979   4.247  30.012   1.833  0.1471  0.1859  0.0818
17720DOD     C296980   3.969   0.033   1.936  0.5218 -0.1021  0.1088
17720DOD     C396981   4.019   0.039   2.443  0.1153 -0.0710 -0.3660
17721DOD     C196982   9.564  17.816  27.476  0.0863 -0.1969 -0.1872
17721DOD     C296983   9.715  18.144  27.784 -0.1072 -0.1406 -0.1204
17721DOD     C396984  10.036  18.403  27.929 -0.0357 -0.3864  0.0033
17722DOD     C196985  23.184   7.245   7.307 -0.0697 -0.1347  0.2980
17722DOD     C296986  23.550   7.068   7.065 -0.1119  0.1866  0.0397
17722DOD     C396987  23.642   6.685   6.922 -0.2852 -0.1024 -0.0437
17723DOD     C196988  20.044  19.740   0.630 -0.0020  0.0358  0.2289
17723DOD     C296989  20.177  19.329   0.704 -0.2308 -0.4304  0.2369
17723DOD     C396990  20.413  19.210   1.092 -0.0138 -0.0503  0.0628
17724DOD     C196991  15.550  28.962  25.352  0.0397 -0.0321 -0.0358
17724DOD     C296992  15.163  29.213  25.341 -0.3819  0.0861 -0.1252
17724DOD     C396993  14.979  29.480  25.672  0.0463 -0.1655  0.1018
17725DOD     C196994   3.932  12.171   9.017  0.1545 -0.2328 -0.0826
17725DOD     C296995   4.227  12.506   9.100  0.2821  0.0179  0.3135
17725DOD     C396996   4.422  12.931   9.196 -0.1116  0.0315 -0.0148
17726DOD     C196997  24.886  16.212  20.257 -0.0977 -0.2360  0.1161
17726DOD     C296998  25.316  16.242  20.403 -0.2371 -0.1458  0.0080
17726DOD     C396999  25.633  16.418  20.699  0.0553 -0.0793  0.4532
17727DOD     C197000  10.096   5.864   9.064  0.0895 -0.1583 -0.1028
17727DOD     C297001  10.392   6.061   9.442  0.4351  0.0185  0.1735
17727DOD     C397002  10.172   6.070   9.846 -0.1221 -0.2858 -0.1652
17728DOD     C197003  11.168  13.147   5.502 -0.2697 -0.3054  0.0780
17728DOD     C297004  11.416  13.184   5.931 -0.3125 -0.0378  0.0642
17728DOD     C397005  11.685  12.999   6.234 -0.0640  0.1681 -0.1636
17729DOD     C197006   1.739   9.138  26.761 -0.1095 -0.0874 -0.0653
17729DOD     C297007   2.164   8.979  26.677 -0.2781  0.0442  0.1170
17729DOD     C397008   2.414   8.556  26.654  0.0602 -0.0512 -0.2075
17730DOD     C197009   0.409   7.884  13.899  0.1367  0.0211 -0.0775
17730DOD     C297010   0.505   8.253  14.130 -0.0423 -0.0278 -0.2812
17730DOD     C397011   0.577   8.687  14.115  0.0658 -0.0260 -0.0640
17731DOD     C197012   2.888  22.202  20.376 -0.1456  0.1508  0.3112
17731DOD     C297013   3.320  22.266  20.216  0.0307  0.1571  0.2945
17731DOD     C397014   3.720  22.117  20.131 -0.1624  0.0768  0.0673
17732DOD     C197015  19.271  26.098   6.455 -0.0728 -0.0356 -0.3178
17732DOD     C297016  18.951  25.795   6.405 -0.1910  0.8786 -0.0259
17732DOD     C397017  18.831  25.676   5.975 -0.1226  0.1636 -0.5060
17733DOD     C197018   8.777  16.115  16.445 -0.0783  0.1126 -0.1482
17733DOD     C297019   8.500  16.025  16.037 -0.3736  0.1102  0.1384
17733DOD     C397020   8.460  15.643  15.762 -0.1512  0.1325 -0.0055
17734DOD     C197021   7.043  26.477  22.830  0.0347  0.3716  0.0877
17734DOD     C297022   7.368  26.601  23.131 -0.0689 -0.1514  0.0569
17734DOD     C397023   7.739  26.392  23.378  0.0702  0.0319 -0.0317
17735DOD     C197024   1.792  10.859  11.803 -0.1479 -0.2365 -0.2173
17735DOD     C297025   1.937  11.198  12.079 -0.1447  0.0431  0.2621
17735DOD     C397026   1.946  11.640  11.866 -0.0046 -0.1188 -0.0609
17736DOD     C197027  27.847  16.551  27.656 -0.0707  0.4722 -0.1847
17736DOD     C297028  27.993  16.979  27.769 -0.0763 -0.0442 -0.1470
17736DOD     C397029  28.480  16.975  27.836 -0.0056  0.4591 -0.0155
17737DOD     C197030   1.639   7.642  13.782  0.0056 -0.2266  0.0015
17737DOD     C297031   1.800   7.586  14.199  0.1259  0.2223 -0.1216
17737DOD     C397032   2.054   7.381  14.490  0.0738  0.0400 -0.1781
17738DOD     C197033  18.137   3.476  20.987  0.0430 -0.0039 -0.0429
17738DOD     C297034  18.575   3.273  20.934  0.0777  0.0401 -0.1500
17738DOD     C397035  19.014   3.134  20.806  0.0826 -0.1782 -0.1166
17739DOD     C197036   2.896  15.251  28.607 -0.2099  0.2000 -0.0820
17739DOD     C297037   2.552  15.440  28.333 -0.1490 -0.0053  0.1543
17739DOD     C397038   2.426  15.518  27.906 -0.0292  0.1431  0.0748
17740DOD     C197039  16.513  23.377  10.931  0.0254  0.0379  0.2716
17740DOD     C297040  16.871  23.697  10.927 -0.2916  0.2359 -0.2203
17740DOD     C397041  17.206  23.954  10.736 -0.3240  0.0936  0.0787
17741DOD     C197042  25.537  12.379   6.572 -0.2114  0.1378  0.0372
17741DOD     C297043  25.523  11.940   6.507 -0.0023  0.3013 -0.1650
17741DOD     C397044  25.629  11.449   6.493 -0.0512  0.1314 -0.0501
17742DOD     C197045  18.253  21.325  28.119  0.0923  0.0440 -0.3125
17742DOD     C297046  18.361  20.935  27.913  0.0872 -0.1025  0.1241
17742DOD     C397047  18.664  20.896  27.575 -0.1706 -0.2626  0.0047
17743DOD     C197048  26.471   2.141  11.411  0.0784 -0.1920 -0.3569
17743DOD     C297049  25.974   2.192  11.287 -0.0464  0.0370 -0.1855
17743DOD     C397050  25.674   2.574  11.228  0.4342 -0.0939  0.0807
17744DOD     C197051  24.715  28.709   1.154 -0.1751  0.0892 -0.1311
17744DOD     C297052  24.438  28.810   1.543  0.3721  0.0623  0.1745
17744DOD     C397053  24.030  28.916   1.780  0.0493  0.0365  0.0091
17745DOD     C197054  28.249  26.160  19.586 -0.0599 -0.1665  0.0669
17745DOD     C297055  27.988  26.504  19.663 -0.0117  0.2716  0.1575
17745DOD     C397056  28.169  26.899  19.788 -0.0768  0.2700 -0.3060
17746DOD     C197057  22.937  14.428   0.366  0.0098  0.2436  0.0679
17746DOD     C297058  22.943  14.655  30.292 -0.0970  0.0858 -0.3321
17746DOD     C397059  22.852  14.740  29.829  0.0516 -0.1637  0.1344
17747DOD     C197060  27.520   2.757  15.252  0.0803  0.1745 -0.1399
17747DOD     C297061  27.663   3.093  15.022 -0.0038 -0.1811 -0.1049
17747DOD     C397062  27.962   3.373  15.199  0.1012 -0.3513  0.1628
17748DOD     C197063   3.037  20.747   8.044 -0.0505 -0.6603  0.0253
17748DOD     C297064   2.881  21.158   8.011  0.1220  0.1238 -0.1426
17748DOD     C397065   2.461  21.327   8.101  0.4085 -0.0600  0.3247
17749DOD     C197066  21.901   9.929   6.463 -0.2494  0.0158 -0.3798
17749DOD     C297067  21.748   9.548   6.206  0.1132  0.0773 -0.0256
17749DOD     C397068  21.530   9.201   6.027  0.2501  0.0555 -0.2059
17750DOD     C197069  27.498   4.775  20.363  0.2115  0.0160  0.2875
17750DOD     C297070  27.316   4.447  20.644  0.1152  0.4331  0.1893
17750DOD     C397071  27.141   4.106  20.920 -0.0891 -0.1083 -0.1550
17751DOD     C197072   7.451  21.152   9.377 -0.0298  0.2696 -0.0031
17751DOD     C297073   7.269  20.841   9.093 -0.0800 -0.0203  0.2280
17751DOD     C397074   7.355  20.403   9.041 -0.0946 -0.1779  0.1238
17752DOD     C197075  17.665  15.711  11.874 -0.2103 -0.0751 -0.3108
17752DOD     C297076  17.953  15.472  12.199  0.2802  0.2355 -0.0661
17752DOD     C397077  18.291  15.294  12.413  0.0516  0.0590  0.0539
17753DOD     C197078  20.218  13.830   8.387  0.2071 -0.0042 -0.2544
17753DOD     C297079  20.144  14.263   8.447  0.0426 -0.0647 -0.0678
17753DOD     C397080  20.009  14.751   8.503 -0.1955  0.0590  0.4182
17754DOD     C197081  11.014   6.278  14.819  0.0105  0.2538  0.2630
17754DOD     C297082  10.594   6.254  15.052 -0.0928  0.2206 -0.1633
17754DOD     C397083  10.144   6.228  15.034 -0.2302  0.0302  0.0208
17755DOD     C197084   0.986  16.226  27.219  0.1502  0.4105 -0.0092
17755DOD     C297085   1.162  15.992  26.841 -0.1944  0.1553  0.1156
17755DOD     C397086   1.385  15.968  26.442  0.2537 -0.1173 -0.1001
17756DOD     C197087  23.668  21.261  29.624  0.3314  0.1507  0.2374
17756DOD     C297088  23.283  21.120  29.828 -0.0827 -0.0860 -0.2163
17756DOD     C397089  22.856  20.933  29.658 -0.2228  0.0054 -0.0523
17757DOD     C197090  11.369  11.270  11.857 -0.2274 -0.0884  0.0406
17757DOD     C297091  10.939  11.417  11.919 -0.0894 -0.2518  0.1894
17757DOD     C397092  10.531  11.508  12.190 -0.0986 -0.3615 -0.0501
17758DOD     C197093   6.425  27.937   7.620  0.2457 -0.0683  0.1368
17758DOD     C297094   6.229  27.585   7.357  0.3496 -0.0553 -0.3610
17758DOD     C397095   5.873  27.380   7.420 -0.2663 -0.1588  0.0730
17759DOD     C197096  12.518   3.156  26.537 -0.1017  0.1892 -0.1455
17759DOD     C297097  12.218   3.453  26.475 -0.0286 -0.1806 -0.1852
17759DOD     C397098  11.786   3.621  26.487  0.0241  0.0532  0.1616
17760DOD     C197099  25.906  25.399   8.681  0.3116 -0.1808 -0.1154
17760DOD     C297100  25.906  25.705   9.134 -0.0341 -0.0177  0.0743
17760DOD     C397101  26.027  25.813   9.613 -0.1395 -0.0962 -0.2282
17761DOD     C197102  12.906  20.348  28.053 -0.1141 -0.0648 -0.1473
17761DOD     C297103  12.781  20.034  28.400  0.3215  0.1403 -0.2248
17761DOD     C397104  12.608  19.866  28.791  0.3721  0.0799  0.0577
17762DOD     C197105  19.922   6.298  23.544  0.3527  0.3879  0.4727
17762DOD     C297106  20.009   6.090  23.930  0.0406  0.1231 -0.2186
17762DOD     C397107  19.986   5.881  24.342  0.0894  0.3233  0.3282
17763DOD     C197108  19.069  15.836  19.955 -0.2554 -0.2065 -0.1212
17763DOD     C297109  19.157  15.446  19.829 -0.2662 -0.1610  0.0304
17763DOD     C397110  19.589  15.339  19.687 -0.1925 -0.0880 -0.2136
17764DOD     C197111  12.404   0.524  11.274 -0.1074 -0.1827 -0.3404
17764DOD     C297112  12.135   0.769  11.004  0.3330  0.0199  0.0871
17764DOD     C397113  11.940   0.961  10.620 -0.2583  0.3622  0.1175
17765DOD     C197114  20.569  14.027  21.763  0.0306 -0.1110 -0.1595
17765DOD     C297115  20.208  14.212  21.989  0.1673  0.2062  0.0268
17765DOD     C397116  19.946  14.122  22.408  0.0389 -0.3436 -0.0143
17766DOD     C197117  24.460   1.364  28.266 -0.0371  0.2143 -0.1437
17766DOD     C297118  24.364   0.926  28.475  0.0842 -0.0204  0.0771
17766DOD     C397119  24.186   0.843  28.897  0.2607  0.0310  0.1335
17767DOD     C197120   4.099  24.342  28.874  0.2366  0.3191 -0.3520
17767DOD     C297121   3.801  24.642  28.801 -0.1097  0.0682  0.2236
17767DOD     C397122   3.612  24.977  29.129  0.1001  0.2844  0.2436
17768DOD     C197123  29.445  21.286  23.747 -0.0696  0.1805  0.0243
17768DOD     C297124  29.536  20.850  23.595 -0.3976  0.0002  0.0011
17768DOD     C397125  29.604  20.381  23.582 -0.1937  0.3134  0.1407
17769DOD     C197126   6.793  18.602  12.107  0.0510  0.1130 -0.2104
17769DOD     C297127   6.697  18.818  11.711 -0.2022 -0.0103 -0.0603
17769DOD     C397128   6.598  19.162  11.422 -0.1080  0.1783  0.0549
17770DOD     C197129  16.364  29.559   1.822 -0.0265  0.1043  0.1249
17770DOD     C297130  15.942  29.807   1.818 -0.1258  0.1392  0.0893
17770DOD     C397131  15.675  30.104   1.671 -0.1757 -0.0459 -0.6356
17771DOD     C197132  29.183   8.382  12.979 -0.1711 -0.0409 -0.2602
17771DOD     C297133  29.168   8.398  12.535 -0.0763  0.0255 -0.0002
17771DOD     C397134  29.519   8.472  12.242 -0.0920 -0.0372  0.1007
17772DOD     C197135   1.784  20.645  23.242  0.0615  0.1237  0.1173
17772DOD     C297136   1.313  20.703  23.170 -0.0623 -0.3790  0.2512
17772DOD     C397137   0.940  20.979  23.336  0.0381  0.0160 -0.1078
17773DOD     C197138  17.549  22.122   3.045 -0.0980  0.0613 -0.0847
17773DOD     C297139  17.400  21.887   3.411 -0.2105 -0.3735 -0.0157
17773DOD     C397140  17.108  21.703   3.660 -0.1348 -0.2997  0.4502
17774DOD     C197141  13.939   9.124   3.379  0.1721 -0.0663  0.0937
17774DOD     C297142  14.188   9.485   3.225 -0.0549  0.2111 -0.0055
17774DOD     C397143  14.326   9.666   2.843  0.1194 -0.2883  0.1949
17775DOD     C197144  21.628  24.031   8.705  0.0765  0.0717 -0.2451
17775DOD     C297145  21.907  24.242   8.388  0.1887  0.0926 -0.0271
17775DOD     C397146  22.281  23.981   8.267  0.4067 -0.2163  0.1275
17776DOD     C197147  17.160  22.719  14.436 -0.3655  0.0236  0.0533
17776DOD     C297148  17.030  22.369  14.171  0.0901 -0.2210  0.0207
17776DOD     C397149  16.946  22.201  13.710 -0.1200 -0.1594 -0.1620
17777DOD     C197150  23.311  21.129  11.444 -0.0794  0.0156  0.2124
17777DOD     C297151  23.596  21.208  11.080 -0.0522 -0.3212 -0.3077
17777DOD     C397152  23.942  21.267  10.766 -0.1760 -0.0377  0.0364
17778DOD     C197153  24.673   3.702   6.793 -0.2260 -0.1393 -0.2504
17778DOD     C297154  25.125   3.756   6.827 -0.4686 -0.1231  0.3906
17778DOD     C397155  25.513   3.642   7.078 -0.0198  0.1206  0.1052
17779DOD     C197156   4.883   2.586   0.731 -0.0331  0.3528 -0.0334
17779DOD     C297157   4.536   2.908   0.674 -0.0943 -0.0390  0.0465
17779DOD     C397158   4.071   2.958   0.765  0.0124  0.2266 -0.0165
17780DOD     C197159  13.876   5.129  21.395 -0.2803 -0.1662  0.1625
17780DOD     C297160  13.751   4.729  21.593  0.1001  0.4457 -0.3790
17780DOD     C397161  13.586   4.289  21.801 -0.0981  0.3733  0.1319
17781DOD     C197162  19.332  28.395  28.340 -0.2658 -0.1650 -0.3894
17781DOD     C297163  19.158  27.901  28.422 -0.2590  0.2444  0.0438
17781DOD     C397164  18.914  27.580  28.652  0.0369  0.0451  0.0681
17782DOD     C197165  12.261  11.065  25.400 -0.4070  0.2244  0.1986
17782DOD     C297166  11.897  10.922  25.641 -0.0540 -0.2153 -0.0836
17782DOD     C397167  11.633  11.090  26.043  0.3154 -0.1242  0.0584
17783DOD     C197168   6.406   5.375   3.919 -0.3765 -0.1681  0.1550
17783DOD     C297169   6.585   5.776   4.099  0.2056 -0.0288 -0.0734
17783DOD     C397170   6.983   6.096   4.149 -0.2739  0.0352 -0.0817
17784DOD     C197171  18.624   3.129  30.038 -0.0338 -0.1919  0.1163
17784DOD     C297172  18.765   2.666  30.184  0.1189  0.2439  0.1496
17784DOD     C397173  18.450   2.343  30.300 -0.0722 -0.1709 -0.2264
17785DOD     C197174  11.175  18.175  27.372 -0.0872 -0.2942  0.0118
17785DOD     C297175  11.603  18.141  27.549  0.0543  0.2291 -0.1418
17785DOD     C397176  11.957  18.102  27.931  0.4102  0.0578  0.0589
17786DOD     C197177   5.579   7.284   5.423 -0.0136 -0.2547  0.2595
17786DOD     C297178   5.962   7.473   5.261  0.3676 -0.0788 -0.2394
17786DOD     C397179   6.410   7.610   5.221  0.0895 -0.1714  0.3465
17787DOD     C197180  23.654  12.250  16.270 -0.0725 -0.4134 -0.2831
17787DOD     C297181  23.962  12.503  16.484  0.0323  0.1441  0.3338
17787DOD     C397182  23.948  12.861  16.760 -0.4260  0.2909  0.1000
17788DOD     C197183  19.771   5.601   7.256  0.1977 -0.4057 -0.2757
17788DOD     C297184  20.132   5.768   7.518 -0.1764 -0.0035 -0.0616
17788DOD     C397185  20.561   5.864   7.704 -0.0079  0.0229  0.2010
17789DOD     C197186  17.849  14.494  16.926  0.1210 -0.1323 -0.1306
17789DOD     C297187  18.114  14.474  17.308 -0.0743  0.1495 -0.1945
17789DOD     C397188  18.386  14.713  17.557  0.1370 -0.1572 -0.0380
17790DOD     C197189   9.465  22.842  20.530 -0.1619  0.2202  0.2293
17790DOD     C297190   8.999  22.941  20.337 -0.1932 -0.2907  0.1674
17790DOD     C397191   8.556  23.072  20.114  0.0954  0.3922  0.2038
17791DOD     C197192  29.939  24.530  13.979  0.3428  0.1306  0.2004
17791DOD     C297193  30.090  24.138  13.786 -0.0787  0.0897 -0.2023
17791DOD     C397194  30.068  23.950  13.362  0.2730 -0.1505  0.2000
17792DOD     C197195   6.142  22.201  21.133 -0.1931  0.2233 -0.1924
17792DOD     C297196   6.594  22.203  21.252 -0.5236  0.0379  0.0340
17792DOD     C397197   7.095  22.140  21.292 -0.0921 -0.1501  0.0254
17793DOD     C197198   7.055  11.864   0.380 -0.1633  0.2769  0.3492
17793DOD     C297199   7.115  11.842  30.250  0.0075 -0.0584 -0.0738
17793DOD     C397200   7.099  11.887  29.777 -0.0716  0.1554 -0.2388
17794DOD     C197201  22.555  24.695  15.383  0.1940  0.1869  0.0902
17794DOD     C297202  23.000  24.693  15.500 -0.0202 -0.3575 -0.0112
17794DOD     C397203  23.218  24.924  15.839 -0.0569 -0.2857  0.1123
17795DOD     C197204  12.702  21.896  11.644  0.1135 -0.1457  0.0405
17795DOD     C297205  12.575  21.632  11.284  0.1576  0.1252  0.2450
17795DOD     C397206  12.629  21.384  10.908 -0.0435  0.0977 -0.2154
17796DOD     C197207   5.106   1.654  19.318  0.1602 -0.0096 -0.2646
17796DOD     C297208   5.369   1.639  18.977  0.2175  0.0158 -0.2947
17796DOD     C397209   5.548   1.884  18.697 -0.1020 -0.1213  0.1414
17797DOD     C197210  19.054  13.666   1.318  0.2925  0.1325 -0.1405
17797DOD     C297211  19.253  13.277   1.080 -0.0838  0.1720  0.3473
17797DOD     C397212  19.153  12.863   0.978 -0.0327  0.1435  0.3220
17798DOD     C197213  11.188   2.793   4.678 -0.1379 -0.0757 -0.0672
17798DOD     C297214  10.735   3.009   4.639  0.1357 -0.1940  0.2423
17798DOD     C397215  10.349   2.836   4.789  0.1083  0.0658  0.1214
17799DOD     C197216  19.917  29.997  19.850  0.3092 -0.2446  0.1093
17799DOD     C297217  19.838  29.567  19.937 -0.0160 -0.1254 -0.0763
17799DOD     C397218  20.118  29.176  19.841  0.0730 -0.1288 -0.1056
17800DOD     C197219   9.605  23.309  21.926  0.0415 -0.0675  0.0281
17800DOD     C297220  10.031  23.395  22.025  0.3011 -0.2676  0.2032
17800DOD     C397221  10.446  23.275  21.953 -0.1838  0.2420 -0.0226
17801DOD     C197222  13.008   1.116  24.294  0.0421 -0.1403  0.1310
17801DOD     C297223  13.119   1.078  24.755  0.1187 -0.1278 -0.0501
17801DOD     C397224  13.289   1.235  25.168  0.1680 -0.1784 -0.0649
17802DOD     C197225  21.065  28.729  29.590 -0.1111  0.1849  0.2087
17802DOD     C297226  20.623  28.840  29.589  0.2610 -0.4141  0.1961
17802DOD     C397227  20.345  29.157  29.259 -0.0281  0.3819 -0.0651
17803DOD     C197228  16.273  19.639  19.621 -0.0931  0.0707  0.1739
17803DOD     C297229  16.007  19.320  19.863 -0.0477  0.0896  0.1982
17803DOD     C397230  15.898  19.123  20.254  0.3916  0.3456  0.1778
17804DOD     C197231  20.446  28.663  20.862  0.0717  0.0637 -0.0185
17804DOD     C297232  20.687  28.590  20.448 -0.0880 -0.1033 -0.0726
17804DOD     C397233  21.120  28.348  20.375 -0.1746  0.1481 -0.1274
17805DOD     C197234   1.175  26.154   3.610 -0.2760 -0.0655 -0.1028
17805DOD     C297235   1.302  26.407   3.250 -0.0159  0.5353  0.1364
17805DOD     C397236   1.115  26.402   2.836 -0.0325  0.0450 -0.0828
17806DOD     C197237  28.584  29.629  14.111  0.0598  0.0208  0.0105
17806DOD     C297238  28.375  29.524  14.506  0.0635  0.0738 -0.0246
17806DOD     C397239  28.220  29.263  14.866  0.3134 -0.1282  0.0871
17807DOD     C197240   1.857  18.821  21.134 -0.3434  0.0298 -0.1908
17807DOD     C297241   2.243  18.697  21.452 -0.2053  0.0600 -0.3902
17807DOD     C397242   2.577  18.810  21.727 -0.0763  0.0954 -0.1751
17808DOD     C197243   0.882  28.974  29.000 -0.0467 -0.2024  0.1158
17808DOD     C297244   0.806  28.501  29.112  0.0022 -0.1535  0.4689
17808DOD     C397245   0.566  28.135  28.990 -0.1029 -0.1366 -0.0537
17809DOD     C197246   6.019  15.121  26.172  0.0192 -0.0889  0.0563
17809DOD     C297247   6.350  14.921  25.861 -0.0515  0.3894 -0.0002
17809DOD     C397248   6.667  14.931  25.496  0.0905  0.0041 -0.1120
17810DOD     C197249  21.031  25.730   1.507  0.2831 -0.1023  0.0469
17810DOD     C297250  20.762  25.649   1.867 -0.0323  0.2345 -0.5853
17810DOD     C397251  20.735  25.738   2.330 -0.1498  0.3114 -0.2237
17811DOD     C197252  26.401   2.741  17.436  0.1302  0.1613 -0.3175
17811DOD     C297253  26.474   3.159  17.364 -0.1069 -0.0530  0.0913
17811DOD     C397254  26.526   3.575  17.551 -0.1483  0.1627  0.0292
17812DOD     C197255  17.442   6.247   2.327  0.1127  0.0259  0.0977
17812DOD     C297256  17.193   6.671   2.257  0.1618 -0.2307 -0.1301
17812DOD     C397257  17.089   7.073   2.036  0.0262  0.0085  0.3556
17813DOD     C197258  26.488   5.941  15.501  0.0498 -0.1624  0.1361
17813DOD     C297259  26.191   6.203  15.681 -0.1047  0.0851 -0.4036
17813DOD     C397260  25.880   6.475  15.496  0.2988  0.1733 -0.1001
17814DOD     C197261  15.181   6.106  20.744 -0.0489  0.1480 -0.1444
17814DOD     C297262  15.143   6.551  20.938 -0.0396  0.0869  0.0570
17814DOD     C397263  15.068   6.989  21.071 -0.0920  0.0663 -0.4037
17815DOD     C197264  15.466   7.884  16.844 -0.0682 -0.1123  0.1596
17815DOD     C297265  15.609   7.492  16.744  0.0837 -0.2599  0.0883
17815DOD     C397266  15.819   7.248  17.089  0.1682 -0.0131  0.1156
17816DOD     C197267  10.922   0.115  27.191 -0.0049 -0.0754 -0.1750
17816DOD     C297268  11.196  30.165  26.886  0.7076  0.3146  0.3753
17816DOD     C397269  11.414  29.789  26.667  0.3277 -0.1100 -0.2247
17817DOD     C197270   8.799  11.030   6.742  0.2090  0.1057 -0.2301
17817DOD     C297271   8.938  10.536   6.738 -0.0923 -0.0427  0.0171
17817DOD     C397272   8.997  10.150   6.539 -0.1163  0.0910  0.0164
17818DOD     C197273  23.110  24.170   3.278 -0.2422  0.0860 -0.0165
17818DOD     C297274  23.189  24.410   3.691 -0.1441  0.0503 -0.0037
17818DOD     C397275  23.401  24.193   4.024 -0.3757  0.1406  0.3331
17819DOD     C197276  25.729   7.369  11.864 -0.2732  0.1775 -0.0571
17819DOD     C297277  25.487   6.995  11.666  0.4258  0.0064  0.0059
17819DOD     C397278  25.453   7.042  11.205 -0.0062 -0.2028 -0.0075
17820DOD     C197279   9.024  15.615   2.930 -0.1034  0.0833 -0.2427
17820DOD     C297280   9.020  16.064   2.776  0.1039  0.1312  0.1054
17820DOD     C397281   9.054  16.467   2.518 -0.0682  0.2106 -0.1090
17821DOD     C197282   2.596  19.588  28.848 -0.0609 -0.1680  0.0341
17821DOD     C297283   2.808  19.749  29.244  0.0344 -0.0401  0.3745
17821DOD     C397284   2.975  19.799  29.652  0.0468  0.1316 -0.1402
17822DOD     C197285  29.116  18.867   4.485  0.2874 -0.2770 -0.1353
17822DOD     C297286  29.501  18.825   4.745 -0.0835  0.0649 -0.2230
17822DOD     C397287  29.818  18.642   5.065  0.0202  0.1141  0.4521
17823DOD     C197288  24.335  11.479   4.054 -0.0941 -0.0421 -0.1955
17823DOD     C297289  24.268  11.642   3.621 -0.2783  0.2296 -0.0784
17823DOD     C397290  24.132  11.808   3.206 -0.0806  0.1773 -0.1378
17824DOD     C197291  28.399  16.533  28.687 -0.3483  0.0850  0.0811
17824DOD     C297292  28.099  16.326  28.447  0.2973  0.2703  0.2535
17824DOD     C397293  27.772  16.178  28.141  0.3052 -0.1433  0.1023
17825DOD     C197294   0.639  19.404   9.260 -0.1631 -0.0100  0.2141
17825DOD     C297295   0.535  19.038   8.983 -0.2292  0.2179 -0.2994
17825DOD     C397296   0.703  18.561   9.123 -0.2566 -0.0445 -0.0568
17826DOD     C197297  25.969  13.714  15.063 -0.3109 -0.0116  0.0625
17826DOD     C297298  25.524  13.545  14.971 -0.0650 -0.2373  0.2411
17826DOD     C397299  25.125  13.337  14.866 -0.0545  0.3462 -0.1742
17827DOD     C197300   9.345   3.415  14.816 -0.2143  0.3579 -0.2936
17827DOD     C297301   9.823   3.409  14.765 -0.0500 -0.2099 -0.0640
17827DOD     C397302  10.258   3.253  14.809 -0.0752 -0.0960 -0.1107
17828DOD     C197303  21.065  10.670  22.210 -0.3087 -0.1447  0.0633
17828DOD     C297304  20.979  10.474  22.614  0.4284 -0.1789 -0.2911
17828DOD     C397305  20.945  10.025  22.761 -0.0325 -0.2104  0.1690
17829DOD     C197306   1.708  13.781   1.419 -0.1102  0.0370 -0.0889
17829DOD     C297307   1.995  14.075   1.277 -0.0721  0.0646  0.0197
17829DOD     C397308   2.329  14.314   1.405 -0.0547 -0.0894 -0.2851
17830DOD     C197309  16.537  13.335  27.066  0.0031  0.0072 -0.0947
17830DOD     C297310  16.536  12.869  27.042 -0.0687  0.1399 -0.2038
17830DOD     C397311  16.180  12.694  27.267  0.4595  0.0687  0.2642
17831DOD     C197312   8.564  26.569  24.342  0.2484  0.0308 -0.0590
17831DOD     C297313   8.899  26.327  24.557 -0.1865  0.0713  0.0574
17831DOD     C397314   9.195  26.132  24.225 -0.1831  0.0124 -0.0751
17832DOD     C197315  16.750  26.636  18.364  0.1996  0.4148  0.1382
17832DOD     C297316  16.363  26.689  18.630  0.0305  0.1598  0.1491
17832DOD     C397317  16.139  26.513  18.972  0.0695  0.1292 -0.1496
17833DOD     C197318   2.285   2.402  23.782  0.2088 -0.0540  0.0472
17833DOD     C297319   2.702   2.437  24.021  0.1369  0.3080  0.1758
17833DOD     C397320   3.022   2.205  24.221  0.3917  0.0199  0.3334
17834DOD     C197321  25.235  12.066   5.967 -0.0352 -0.1674  0.3043
17834DOD     C297322  25.033  12.082   6.371 -0.1026 -0.2073 -0.3621
17834DOD     C397323  25.186  11.911   6.812 -0.2257  0.2074  0.0830
17835DOD     C197324  23.270  23.907  17.307  0.0112 -0.1858  0.2833
17835DOD     C297325  23.553  23.649  17.140 -0.2763 -0.0375  0.0448
17835DOD     C397326  23.647  23.458  16.747  0.0176 -0.2206  0.3518
17836DOD     C197327  30.341  21.229   1.496  0.1535  0.0622 -0.0348
17836DOD     C297328   0.367  21.242   1.806  0.1313 -0.2118  0.2562
17836DOD     C397329   0.718  21.149   2.146 -0.1298 -0.0725  0.1810
17837DOD     C197330  24.713  13.554  11.390  0.2739 -0.1912 -0.1890
17837DOD     C297331  24.325  13.827  11.246 -0.1644 -0.3837  0.1480
17837DOD     C397332  23.904  13.885  11.062  0.2415 -0.0324 -0.1557
17838DOD     C197333   2.068  27.112  11.363  0.1684  0.1555  0.1743
17838DOD     C297334   1.871  27.154  11.767  0.2624  0.2066 -0.0741
17838DOD     C397335   2.046  27.477  12.109  0.0365 -0.2264 -0.4019
17839DOD     C197336  16.478   0.135  18.970 -0.2197 -0.1557 -0.2076
17839DOD     C297337  16.362  30.283  18.531  0.1443  0.1865 -0.0152
17839DOD     C397338  16.547  29.904  18.390  0.0510  0.1088  0.0959
17840DOD     C197339  10.033  21.457  28.703 -0.2815 -0.1348  0.0234
17840DOD     C297340  10.010  21.196  29.048  0.1171  0.5362 -0.0039
17840DOD     C397341  10.116  20.898  29.398  0.0084 -0.1732  0.2710
17841DOD     C197342   0.623  21.297  11.590 -0.0671  0.1146  0.1062
17841DOD     C297343   0.852  20.843  11.525 -0.2859  0.0298 -0.3692
17841DOD     C397344   0.966  20.671  11.107  0.0501 -0.0224  0.3206
17842DOD     C197345   6.412  15.470   3.153 -0.3029  0.2380  0.1570
17842DOD     C297346   6.664  15.584   2.792 -0.3099 -0.1195 -0.0444
17842DOD     C397347   6.826  15.674   2.379 -0.1181 -0.0069  0.1341
17843DOD     C197348  24.037  26.660  15.843 -0.2650  0.0819 -0.1061
17843DOD     C297349  23.553  26.559  15.984 -0.1495  0.0429  0.1428
17843DOD     C397350  23.175  26.824  16.088 -0.0868  0.0244 -0.1607
17844DOD     C197351  16.999   7.825  15.905 -0.1104  0.0119  0.0749
17844DOD     C297352  16.968   7.437  15.649  0.5163  0.1155 -0.0363
17844DOD     C397353  17.129   7.019  15.427  0.0845 -0.0631  0.2977
17845DOD     C197354   9.543   0.090  11.565 -0.4429 -0.0121  0.0009
17845DOD     C297355   9.511   0.533  11.348  0.1146  0.1929  0.1253
17845DOD     C397356   9.340   0.961  11.489 -0.0038 -0.4001  0.2529
17846DOD     C197357  25.775  13.439  28.347 -0.0849 -0.0981 -0.2093
17846DOD     C297358  25.587  13.817  28.174 -0.1264 -0.1804  0.1463
17846DOD     C397359  25.729  14.283  28.231 -0.2395  0.1241 -0.1580
17847DOD     C197360  29.797  10.717  23.703 -0.2365 -0.1671  0.0732
17847DOD     C297361  30.062  10.971  24.026 -0.2918  0.0032  0.2169
17847DOD     C397362   0.056  11.235  24.364  0.1398  0.2049  0.0355
17848DOD     C197363   6.360   7.946  22.706 -0.0225 -0.0324  0.1287
17848DOD     C297364   6.311   7.478  22.546 -0.3932  0.2605 -0.1121
17848DOD     C397365   6.447   7.122  22.241 -0.0340  0.1774  0.0623
17849DOD     C197366  12.874  17.839   9.497  0.0201 -0.0401 -0.0570
17849DOD     C297367  13.014  18.305   9.539  0.1162 -0.1858 -0.0218
17849DOD     C397368  13.081  18.736   9.643 -0.1535 -0.1357 -0.0551
17850DOD     C197369  27.565   8.062  11.494  0.0402  0.0135  0.1302
17850DOD     C297370  27.811   7.811  11.144  0.2146 -0.1143  0.0313
17850DOD     C397371  28.124   7.948  10.845 -0.0508  0.1413 -0.4187
17851DOD     C197372   2.511  18.193   6.960  0.2467 -0.2026 -0.1077
17851DOD     C297373   2.866  18.500   7.078  0.0826 -0.3387 -0.0752
17851DOD     C397374   3.201  18.824   7.246  0.1575  0.0264 -0.3433
17852DOD     C197375  18.207  16.755  24.601 -0.3957  0.1399 -0.3921
17852DOD     C297376  17.894  16.875  24.254 -0.2183  0.1999 -0.1053
17852DOD     C397377  17.471  16.700  24.173 -0.0915  0.1239 -0.0400
17853DOD     C197378   3.031   2.839  13.180 -0.0856 -0.1366 -0.1622
17853DOD     C297379   3.450   2.919  13.143 -0.1111 -0.2785 -0.3720
17853DOD     C397380   3.758   3.221  13.208  0.2068 -0.1127  0.0091
17854DOD     C197381  28.529  15.758   9.350  0.2946 -0.0444  0.0331
17854DOD     C297382  28.643  15.708   9.829 -0.1368  0.4216  0.0081
17854DOD     C397383  28.835  15.333  10.032  0.1182 -0.0643  0.1976
17855DOD     C197384   3.784   1.305   3.480 -0.2036  0.1194 -0.1676
17855DOD     C297385   3.669   1.511   3.045 -0.2869 -0.0723  0.2145
17855DOD     C397386   3.512   1.376   2.657 -0.0886  0.1845  0.2528
17856DOD     C197387  12.179   5.715   9.862 -0.1528 -0.0182  0.0088
17856DOD     C297388  12.062   6.126  10.094 -0.2314 -0.0872 -0.0222
17856DOD     C397389  12.216   6.574  10.072 -0.0249 -0.1782 -0.4478
17857DOD     C197390  26.120   4.557  21.803 -0.1328  0.0496  0.0098
17857DOD     C297391  26.349   4.351  21.437 -0.0424  0.3094 -0.0721
17857DOD     C397392  26.654   4.015  21.275 -0.0340  0.2154 -0.0818
17858DOD     C197393  24.741  11.630  29.287 -0.1251  0.0239  0.1204
17858DOD     C297394  24.427  11.299  29.211 -0.0646  0.0422  0.1394
17858DOD     C397395  24.140  10.937  29.111  0.0295  0.0445 -0.1931
17859DOD     C197396  28.492  16.714  24.502 -0.4355 -0.1102  0.2566
17859DOD     C297397  28.103  16.951  24.546  0.2095 -0.2441  0.1921
17859DOD     C397398  27.639  16.920  24.519  0.3214 -0.3623 -0.3001
17860DOD     C197399  24.544   5.642   4.370 -0.0480 -0.1388  0.0544
17860DOD     C297400  24.357   5.445   4.765  0.0028 -0.0340  0.1824
17860DOD     C397401  24.336   5.028   4.926 -0.1435 -0.2028  0.0807
17861DOD     C197402  24.792   8.396  19.510  0.1481 -0.3027  0.0403
17861DOD     C297403  24.607   8.651  19.901  0.3243  0.0510 -0.0469
17861DOD     C397404  24.201   8.873  20.025 -0.2224  0.0352  0.1298
17862DOD     C197405  21.961  22.789  12.510  0.3833  0.0140 -0.0162
17862DOD     C297406  22.314  22.518  12.684  0.0498  0.1524  0.0242
17862DOD     C397407  22.815  22.543  12.674  0.0860  0.3404  0.4004
17863DOD     C197408  22.142  18.079  25.922  0.1631  0.3139  0.0311
17863DOD     C297409  21.837  17.855  26.245 -0.2369 -0.0604  0.2445
17863DOD     C397410  21.358  17.823  26.143 -0.0023  0.2173  0.0266
17864DOD     C197411   5.551  25.597   6.275  0.1302  0.0739 -0.3124
17864DOD     C297412   5.200  25.887   6.076  0.3833 -0.1043 -0.1097
17864DOD     C397413   4.795  26.086   6.057  0.3346 -0.1570 -0.0343
17865DOD     C197414  26.517   1.291  20.171 -0.3578  0.1452  0.4084
17865DOD     C297415  26.377   1.644  19.894  0.1824  0.3638  0.2924
17865DOD     C397416  26.040   1.886  19.632  0.2080 -0.0644  0.2997
17866DOD     C197417  20.815  16.116  11.768  0.0099 -0.2659 -0.4073
17866DOD     C297418  20.825  16.149  11.334  0.0370 -0.1416 -0.0451
17866DOD     C397419  20.960  15.826  11.039  0.0477 -0.0653  0.0476
17867DOD     C197420   5.321   4.227   3.459  0.1981 -0.3555  0.0129
17867DOD     C297421   5.553   4.642   3.588 -0.1402 -0.1459  0.3427
17867DOD     C397422   5.596   4.966   3.917 -0.0542 -0.0525 -0.0988
17868DOD     C197423   6.981  19.667  22.053  0.0056  0.0343 -0.0516
17868DOD     C297424   7.205  19.909  21.788 -0.1881 -0.0556 -0.0460
17868DOD     C397425   7.427  20.271  21.556 -0.1199  0.1232 -0.1247
17869DOD     C197426  12.317   9.287   1.017  0.0214 -0.1427 -0.2737
17869DOD     C297427  12.236   9.710   1.170 -0.1473  0.1601 -0.2636
17869DOD     C397428  11.889   9.901   1.460  0.0946  0.3092  0.1548
17870DOD     C197429  27.123  15.998   0.887  0.0163  0.0302  0.0166
17870DOD     C297430  27.071  16.435   0.882  0.0917 -0.1038 -0.0963
17870DOD     C397431  27.292  16.873   0.980  0.0837  0.2223  0.1070
17871DOD     C197432  15.286  24.466  29.298 -0.3261 -0.2532  0.1415
17871DOD     C297433  14.962  24.764  29.131 -0.1169  0.1430  0.0683
17871DOD     C397434  14.949  25.198  29.369  0.2567 -0.0467 -0.0447
17872DOD     C197435  13.884  10.178   1.571 -0.2176 -0.2183  0.2883
17872DOD     C297436  13.497  10.331   1.692 -0.1290 -0.1826 -0.4307
17872DOD     C397437  13.051  10.532   1.716  0.3817 -0.1903 -0.0825
17873DOD     C197438   5.268  22.441   2.763 -0.1679  0.1656  0.1640
17873DOD     C297439   4.953  22.825   2.773 -0.1921 -0.0752  0.3776
17873DOD     C397440   4.530  22.907   2.619  0.2119 -0.0381 -0.1062
17874DOD     C197441  25.334   0.581   2.798 -0.2740 -0.0916  0.2921
17874DOD     C297442  25.449   0.950   3.106  0.0129  0.0137  0.2558
17874DOD     C397443  25.802   1.263   3.272  0.0990 -0.1038  0.3355
17875DOD     C197444   5.013   0.590  21.091  0.2739  0.1226 -0.0004
17875DOD     C297445   5.412   0.685  20.898 -0.2349  0.2452  0.0403
17875DOD     C397446   5.840   0.824  20.781 -0.0288 -0.2048 -0.0276
17876DOD     C197447  19.106  24.923  20.670 -0.1527  0.1120 -0.0310
17876DOD     C297448  18.837  25.246  20.627  0.0858 -0.0220 -0.1830
17876DOD     C397449  18.503  25.488  20.902  0.2495  0.0515  0.1098
17877DOD     C197450   9.371   8.214  20.723  0.0843  0.1560  0.0445
17877DOD     C297451   9.649   8.200  20.340  0.2094  0.2896 -0.1470
17877DOD     C397452  10.061   8.270  20.110 -0.0460  0.2116  0.0667
17878DOD     C197453   5.598  12.414  19.728 -0.0355  0.0558 -0.1266
17878DOD     C297454   5.813  12.092  19.489  0.0559 -0.0694  0.0911
17878DOD     C397455   6.056  11.861  19.184 -0.1963 -0.4149  0.2028
17879DOD     C197456  25.663  18.253   6.837 -0.4056 -0.2449 -0.1925
17879DOD     C297457  26.015  18.539   7.000  0.0718  0.1301 -0.3069
17879DOD     C397458  25.962  18.972   7.157  0.1073  0.1370 -0.1511
17880DOD     C197459   0.724   4.487  25.035 -0.0511  0.0952 -0.3520
17880DOD     C297460   0.642   4.779  24.684  0.1127  0.2028 -0.1063
17880DOD     C397461   0.715   5.191  24.668  0.2117  0.0348  0.1596
17881DOD     C197462  11.740   4.377  22.169 -0.0067  0.0295  0.0601
17881DOD     C297463  12.032   4.472  21.765 -0.2135  0.1327 -0.5366
17881DOD     C397464  12.344   4.491  21.395  0.2524  0.1779 -0.1464
17882DOD     C197465   9.440   0.500  25.510 -0.2897  0.0465 -0.1303
17882DOD     C297466   9.902   0.343  25.466 -0.1893 -0.0383  0.0889
17882DOD     C397467  10.329   0.224  25.724 -0.0081 -0.1038  0.0791
17883DOD     C197468  21.230   6.480   3.762 -0.0042  0.1962 -0.0560
17883DOD     C297469  21.536   6.835   3.658 -0.3106 -0.0110  0.0084
17883DOD     C397470  21.836   7.208   3.621  0.0376  0.3632 -0.1483
17884DOD     C197471  28.997  20.222  23.755  0.1224  0.2427  0.1903
17884DOD     C297472  29.265  19.888  23.801 -0.0578 -0.1861 -0.2569
17884DOD     C397473  29.268  19.479  23.996  0.0781 -0.3567 -0.0291
17885DOD     C197474  10.861  12.976  20.808  0.0916 -0.2828  0.0033
17885DOD     C297475  10.937  12.538  20.898  0.2615  0.2440 -0.0641
17885DOD     C397476  10.735  12.150  21.106  0.2209  0.0710 -0.2585
17886DOD     C197477  29.527  18.992  24.078  0.0900 -0.2391 -0.0926
17886DOD     C297478  29.430  19.217  24.443  0.1543 -0.1197 -0.3042
17886DOD     C397479  29.300  19.668  24.541 -0.1769 -0.1424 -0.0777
17887DOD     C197480  28.201   9.433  22.805 -0.0916  0.3089  0.0770
17887DOD     C297481  28.393   9.575  23.251  0.2404  0.0819  0.2889
17887DOD     C397482  28.133   9.860  23.511 -0.2185  0.0032  0.1035
17888DOD     C197483   7.175  15.017  25.736 -0.4617 -0.1855 -0.0150
17888DOD     C297484   7.595  14.994  25.515  0.2810  0.0304  0.1217
17888DOD     C397485   7.922  14.856  25.216 -0.4965 -0.2310  0.1838
17889DOD     C197486  16.671  10.457  24.109 -0.0079  0.2080 -0.0890
17889DOD     C297487  16.568  10.491  23.657  0.1999 -0.2946  0.0692
17889DOD     C397488  16.197  10.620  23.308 -0.0509  0.1127 -0.0859
17890DOD     C197489  21.500  11.264  21.198  0.0552 -0.1366 -0.0215
17890DOD     C297490  21.618  11.033  20.790  0.0088 -0.3408 -0.0398
17890DOD     C397491  21.832  11.071  20.353  0.1842 -0.3091  0.0529
17891DOD     C197492   6.130  24.300   1.915 -0.2237 -0.1668  0.0349
17891DOD     C297493   5.899  24.639   1.716 -0.1135 -0.0239  0.1564
17891DOD     C397494   5.938  25.113   1.845  0.0608 -0.1785 -0.1391
17892DOD     C197495   6.692  11.740   1.747  0.0131 -0.2887 -0.0293
17892DOD     C297496   6.608  11.953   2.159 -0.1899 -0.1349 -0.0775
17892DOD     C397497   6.666  12.221   2.547  0.0122 -0.2820  0.0803
17893DOD     C197498  23.683  26.765   8.326  0.0378 -0.0650 -0.0543
17893DOD     C297499  23.752  26.734   7.842 -0.1303 -0.2728 -0.0556
17893DOD     C397500  23.593  26.595   7.396 -0.0070  0.0995  0.1227
17894DOD     C197501  28.640  22.101   8.537 -0.0169  0.0108  0.1910
17894DOD     C297502  28.900  21.966   8.839 -0.2214  0.0707 -0.1695
17894DOD     C397503  29.246  21.951   9.121  0.2966 -0.1746 -0.0538
17895DOD     C197504   6.626   8.211  13.268 -0.0447 -0.0586 -0.0249
17895DOD     C297505   6.822   8.531  13.594 -0.1725 -0.0524 -0.0873
17895DOD     C397506   6.881   8.608  14.020  0.1669  0.1020  0.0666
17896DOD     C197507   5.007  20.752  18.179 -0.0733 -0.1332 -0.0465
17896DOD     C297508   4.920  20.459  17.736  0.1120 -0.2075 -0.0603
17896DOD     C397509   5.146  20.127  17.488  0.1470 -0.1289  0.2333
17897DOD     C197510  11.663  29.660   8.197  0.2260 -0.0896 -0.1769
17897DOD     C297511  11.405  29.393   7.855  0.0628  0.2867  0.0031
17897DOD     C397512  11.331  28.914   7.816 -0.1135  0.0082 -0.3368
17898DOD     C197513  29.413  11.001   3.182  0.0801 -0.0325 -0.0852
17898DOD     C297514  29.203  11.161   3.545 -0.1767 -0.1503 -0.0189
17898DOD     C397515  28.762  11.322   3.750  0.2518 -0.3192  0.0281
17899DOD     C197516  16.650  28.764  14.127  0.1717  0.2855  0.0239
17899DOD     C297517  16.461  28.508  14.501  0.1465  0.0348  0.3215
17899DOD     C397518  16.015  28.338  14.649 -0.0037  0.0053  0.0570
17900DOD     C197519  25.207  21.618   9.316  0.2505  0.0995 -0.2884
17900DOD     C297520  25.297  21.766   8.876 -0.2069  0.0901  0.1163
17900DOD     C397521  25.372  21.968   8.391  0.0552  0.2178  0.3649
17901DOD     C197522  12.600  17.152  12.716 -0.2348  0.1135 -0.2936
17901DOD     C297523  12.876  17.030  12.352  0.2321  0.1646  0.1751
17901DOD     C397524  13.132  16.659  12.195  0.0689 -0.0442  0.2957
17902DOD     C197525  21.038   7.684  30.241 -0.2622  0.1226 -0.0309
17902DOD     C297526  21.385   7.567   0.176  0.0557  0.0069  0.1949
17902DOD     C397527  21.559   7.263   0.522 -0.2628  0.2410  0.1503
17903DOD     C197528   1.236  22.202  24.036 -0.1422 -0.0200  0.1635
17903DOD     C297529   1.475  22.527  23.848  0.0316  0.0149 -0.0267
17903DOD     C397530   1.737  22.923  23.927 -0.1282  0.2689 -0.2332
17904DOD     C197531  24.688  18.662  18.711 -0.4122 -0.1153  0.3330
17904DOD     C297532  24.327  18.621  18.930  0.0233 -0.2329 -0.0848
17904DOD     C397533  23.854  18.504  18.995 -0.2264  0.0171 -0.3254
17905DOD     C197534   1.036  25.327  23.689 -0.0400  0.3286 -0.3453
17905DOD     C297535   0.669  25.517  23.874 -0.2909 -0.0366 -0.1958
17905DOD     C397536   0.305  25.470  24.089 -0.0983 -0.0944 -0.1091
17906DOD     C197537  15.215  17.946  29.517  0.0900  0.1060  0.0629
17906DOD     C297538  15.178  17.911  29.973  0.2882 -0.0505 -0.0989
17906DOD     C397539  15.090  17.631   0.004  0.0908 -0.0080  0.0923
17907DOD     C197540  13.736  25.438  17.843  0.2694 -0.0065 -0.0406
17907DOD     C297541  14.091  25.175  17.959  0.1977 -0.0634  0.1964
17907DOD     C397542  14.303  25.120  18.340 -0.1808  0.3391  0.0224
17908DOD     C197543   0.433  16.168  28.826  0.0099 -0.1537  0.0124
17908DOD     C297544   0.075  16.098  29.123 -0.3421 -0.2066 -0.0438
17908DOD     C397545  30.208  16.148  29.501  0.2103  0.0458  0.0146
17909DOD     C197546  27.661  18.177  29.614  0.0135  0.0174 -0.1037
17909DOD     C297547  27.992  18.441  29.887  0.0663 -0.2405 -0.2787
17909DOD     C397548  27.915  18.803  30.204  0.0539 -0.1910  0.0030
17910DOD     C197549  14.416  16.493  27.948  0.0373  0.1545 -0.4607
17910DOD     C297550  14.721  16.781  27.927  0.1013 -0.3360 -0.0547
17910DOD     C397551  14.772  17.280  27.849 -0.0501 -0.1878  0.1430
17911DOD     C197552  28.506   6.392  24.603 -0.0668 -0.1092 -0.0003
17911DOD     C297553  28.921   6.139  24.716  0.2696  0.0547 -0.0912
17911DOD     C397554  29.084   5.698  24.823  0.2160  0.0971 -0.0289
17912DOD     C197555  23.221   1.397  11.520 -0.0417  0.1078 -0.0923
17912DOD     C297556  23.336   1.187  11.129  0.3677 -0.0189 -0.0567
17912DOD     C397557  23.171   1.417  10.739 -0.2197 -0.3145  0.0085
17913DOD     C197558   7.767   4.593  16.614 -0.1002 -0.4825 -0.2080
17913DOD     C297559   7.389   4.809  16.763 -0.2342 -0.3938  0.2653
17913DOD     C397560   6.951   4.878  16.647 -0.1198  0.0427  0.0904
17914DOD     C197561  21.200   4.304  28.314 -0.0221  0.1181  0.0184
17914DOD     C297562  21.344   4.335  27.861 -0.0183 -0.0821 -0.1653
17914DOD     C397563  21.779   4.543  27.657 -0.2251  0.1814 -0.1729
17915DOD     C197564  27.183  15.290   4.189 -0.2454 -0.3017  0.0086
17915DOD     C297565  27.582  15.595   4.183  0.1182 -0.0928 -0.2463
17915DOD     C397566  28.053  15.535   4.269  0.0892 -0.1446  0.0207
17916DOD     C197567  29.109  27.761  25.707  0.4183 -0.0509  0.0938
17916DOD     C297568  29.313  27.556  25.369  0.1270 -0.1009  0.2410
17916DOD     C397569  29.711  27.516  25.176  0.0253  0.0004 -0.0356
17917DOD     C197570  21.936  14.143  28.223 -0.1531 -0.0008 -0.1865
17917DOD     C297571  22.181  14.049  27.801  0.4417 -0.0582 -0.0328
17917DOD     C397572  22.573  13.883  27.601 -0.0624  0.0056 -0.2001
17918DOD     C197573   3.296   8.823   6.080  0.1189 -0.3515 -0.2173
17918DOD     C297574   3.341   8.894   6.599  0.2465  0.2584  0.2711
17918DOD     C397575   3.614   8.996   6.968  0.0151  0.0836 -0.2207
17919DOD     C197576  13.380  12.033   2.598  0.0689 -0.1402 -0.0279
17919DOD     C297577  12.910  12.078   2.661 -0.4240  0.1581 -0.1659
17919DOD     C397578  12.474  12.104   2.832 -0.2072  0.3269 -0.3672
17920DOD     C197579  18.651  19.326  21.562  0.0876 -0.4243 -0.1336
17920DOD     C297580  18.851  19.141  21.179 -0.2103 -0.0662 -0.0714
17920DOD     C397581  18.959  19.293  20.725  0.0138  0.2345 -0.0318
17921DOD     C197582  26.999   6.179   4.737  0.1263  0.0658 -0.2863
17921DOD     C297583  27.423   6.088   4.715  0.2139 -0.1211  0.0043
17921DOD     C397584  27.683   5.701   4.764 -0.2392 -0.4419  0.2344
17922DOD     C197585   0.338  29.224  10.412 -0.1470  0.1175 -0.1324
17922DOD     C297586  30.260  29.418  10.245 -0.0175 -0.1511  0.1032
17922DOD     C397587  30.076  29.705   9.893  0.0469  0.0427  0.0420
17923DOD     C197588   4.571  20.466   6.089  0.2633 -0.1428 -0.4191
17923DOD     C297589   5.038  20.490   6.109 -0.0968 -0.3132  0.1053
17923DOD     C397590   5.376  20.390   6.385 -0.1942 -0.1039  0.0584
17924DOD     C197591  29.304   2.041  17.730 -0.1917  0.0071 -0.0858
17924DOD     C297592  29.663   2.334  17.840  0.0219  0.0652 -0.0193
17924DOD     C397593  30.068   2.364  17.671 -0.1210 -0.0341 -0.2869
17925DOD     C197594  23.986  13.484   7.606 -0.1344 -0.2147  0.0816
17925DOD     C297595  24.287  13.178   7.772 -0.2587  0.1070 -0.3991
17925DOD     C397596  24.583  12.865   7.917 -0.0234 -0.2427  0.1390
17926DOD     C197597  17.393  20.179   1.882 -0.3939  0.2927  0.1818
17926DOD     C297598  17.680  20.396   1.670  0.4356  0.1674  0.1042
17926DOD     C397599  17.540  20.701   1.339  0.0172  0.1747 -0.1910
17927DOD     C197600  26.390  22.215  17.551  0.0459 -0.0470  0.1201
17927DOD     C297601  26.650  22.584  17.690  0.2425 -0.2081 -0.0025
17927DOD     C397602  26.820  23.022  17.539 -0.1381  0.3052 -0.0082
17928DOD     C197603   0.388  17.327   3.372 -0.0910 -0.0389 -0.4082
17928DOD     C297604   0.360  17.233   3.835  0.1982  0.1884 -0.2971
17928DOD     C397605   0.482  17.237   4.288 -0.0106  0.1922 -0.1168
17929DOD     C197606  22.545  20.506  20.497 -0.1614 -0.2061 -0.3239
17929DOD     C297607  22.602  20.059  20.611  0.0191 -0.0315  0.3124
17929DOD     C397608  22.707  19.603  20.601  0.0989  0.0933 -0.1365
17930DOD     C197609  12.826  22.621  20.351 -0.2467 -0.3798  0.0586
17930DOD     C297610  13.212  22.899  20.400  0.1111  0.0223  0.0207
17930DOD     C397611  13.430  23.259  20.597  0.0492 -0.2004  0.1292
17931DOD     C197612  26.245  17.097  22.648  0.1391  0.1786 -0.3058
17931DOD     C297613  26.575  17.259  22.367  0.1617  0.0234  0.0982
17931DOD     C397614  26.814  17.534  22.082 -0.2997  0.0241 -0.0234
17932DOD     C197615  20.670  12.288  11.035 -0.4503  0.1135  0.2195
17932DOD     C297616  20.686  12.416  11.471  0.2102  0.0820 -0.2582
17932DOD     C397617  20.793  12.125  11.836 -0.3124  0.1934 -0.6674
17933DOD     C197618  11.531   0.714  29.119 -0.0267  0.0830  0.0483
17933DOD     C297619  11.899   0.770  28.792 -0.0290 -0.4367 -0.1267
17933DOD     C397620  12.310   0.912  28.708  0.0441  0.0249 -0.1806
17934DOD     C197621   2.973  16.196   8.445  0.1186  0.0110 -0.1346
17934DOD     C297622   2.983  15.847   8.203 -0.2395  0.1089 -0.0629
17934DOD     C397623   3.241  15.489   7.992 -0.1889 -0.1853  0.0802
17935DOD     C197624  29.748  25.760   9.978 -0.2545 -0.0508  0.3225
17935DOD     C297625  29.529  26.048  10.317 -0.1209  0.0659  0.0769
17935DOD     C397626  29.638  26.233  10.709  0.1084 -0.1054 -0.1363
17936DOD     C197627   5.829   2.809   9.335  0.2013  0.3736 -0.3478
17936DOD     C297628   6.266   2.880   9.185 -0.1327  0.2437  0.3332
17936DOD     C397629   6.642   2.703   8.992  0.1197  0.1000  0.1794
17937DOD     C197630  24.951   6.576  19.598 -0.0144 -0.0528 -0.0194
17937DOD     C297631  24.758   7.022  19.618  0.1670  0.0653  0.0935
17937DOD     C397632  24.418   7.344  19.499  0.1810  0.1025 -0.1341
17938DOD     C197633   8.219   8.365  16.874 -0.1056 -0.2036  0.1054
17938DOD     C297634   8.641   8.219  17.016 -0.2517 -0.1917 -0.0024
17938DOD     C397635   8.953   7.850  16.854 -0.2803 -0.0529  0.0503
17939DOD     C197636  10.759   9.140  12.654 -0.1813  0.3409 -0.0466
17939DOD     C297637  11.076   8.997  12.354  0.2371  0.0786 -0.0712
17939DOD     C397638  11.154   8.839  11.916 -0.2456 -0.1773  0.1739
17940DOD     C197639   1.327  22.187  28.860 -0.1008  0.0599 -0.1459
17940DOD     C297640   1.277  21.718  28.791 -0.0038 -0.0255 -0.3110
17940DOD     C397641   1.360  21.240  28.910  0.0848 -0.1585  0.0388
17941DOD     C197642   5.179  18.220  27.423  0.1671  0.1828  0.1752
17941DOD     C297643   4.983  18.266  27.849  0.5320  0.2670  0.3099
17941DOD     C397644   4.695  18.270  28.131 -0.1538  0.1702 -0.1895
17942DOD     C197645   0.085  17.897  27.220 -0.1031  0.0798  0.0580
17942DOD     C297646   0.493  17.754  27.447 -0.0026  0.0295 -0.2318
17942DOD     C397647   0.783  17.606  27.770  0.1383  0.4231 -0.0218
17943DOD     C197648   2.460   2.264  29.548  0.1623 -0.0503 -0.2556
17943DOD     C297649   2.291   1.827  29.450  0.0796 -0.3258  0.0015
17943DOD     C397650   2.228   1.553  29.085 -0.1266 -0.3552  0.4087
17944DOD     C197651   5.950   6.182   6.539 -0.1456 -0.2368  0.0593
17944DOD     C297652   5.903   5.971   6.215 -0.0610  0.0225  0.1595
17944DOD     C397653   6.204   5.713   5.931 -0.0294 -0.2025  0.0011
17945DOD     C197654   1.415  11.036  29.930  0.1975 -0.4940 -0.1000
17945DOD     C297655   1.651  11.401  29.684  0.0395  0.3651  0.0941
17945DOD     C397656   1.838  11.815  29.585  0.0523 -0.1569  0.0794
17946DOD     C197657  29.813   7.651  11.931  0.2241 -0.0102  0.0005
17946DOD     C297658  29.778   7.407  11.552 -0.2337 -0.0658 -0.1452
17946DOD     C397659  29.827   7.194  11.161  0.2045 -0.3524  0.0720
17947DOD     C197660   1.071  27.619  26.817  0.2553  0.0225  0.0593
17947DOD     C297661   0.739  27.440  26.550 -0.0228  0.1720  0.0341
17947DOD     C397662   0.582  27.031  26.488 -0.0648  0.0946 -0.2096
17948DOD     C197663  26.095   8.880  13.086  0.0565 -0.4008 -0.0254
17948DOD     C297664  26.153   9.269  12.819  0.2957  0.0860  0.0352
17948DOD     C397665  26.090   9.672  12.592 -0.0609  0.0182 -0.1232
17949DOD     C197666   8.029  10.423  16.334 -0.0808  0.0734  0.0500
17949DOD     C297667   7.601  10.505  16.376  0.0583  0.0534 -0.2874
17949DOD     C397668   7.279  10.593  16.098 -0.1528  0.1059  0.0148
17950DOD     C197669  15.268  17.849  17.715  0.0617  0.1195 -0.2445
17950DOD     C297670  15.223  18.097  17.322  0.0071  0.0683 -0.2171
17950DOD     C397671  15.273  18.460  17.033 -0.4641  0.2234  0.2627
17951DOD     C197672   4.127   9.162  16.434  0.0717 -0.1229 -0.0441
17951DOD     C297673   4.137   8.817  16.695  0.0767  0.0866 -0.1852
17951DOD     C397674   4.129   8.513  17.042 -0.0279  0.1294  0.1582
17952DOD     C197675   9.395  19.566  30.066 -0.0072 -0.0104  0.0091
17952DOD     C297676   9.634  19.595  29.637  0.1321  0.0085 -0.5210
17952DOD     C397677   9.894  19.672  29.280  0.0457 -0.3428 -0.0294
17953DOD     C197678   8.051  10.310  27.663  0.1135  0.0200  0.0502
17953DOD     C297679   7.985  10.466  27.232  0.1314 -0.1119 -0.1373
17953DOD     C397680   7.975  10.417  26.792 -0.0671 -0.0515  0.1824
17954DOD     C197681   3.702   2.967   4.171  0.1513  0.1782  0.1640
17954DOD     C297682   3.891   3.341   3.997 -0.1402 -0.1704 -0.2513
17954DOD     C397683   4.358   3.564   3.862  0.1275 -0.1780 -0.1076
17955DOD     C197684  19.802  19.906  23.609  0.1368 -0.0485 -0.0001
17955DOD     C297685  19.534  19.729  23.953  0.1002  0.2922 -0.1281
17955DOD     C397686  19.493  19.706  24.411 -0.0968  0.0295  0.0019
17956DOD     C197687  12.187  17.682  27.749 -0.0342  0.2612 -0.1951
17956DOD     C297688  11.793  17.649  27.996 -0.0520 -0.0348  0.0379
17956DOD     C397689  11.379  17.818  28.193 -0.1192  0.4431  0.0341
17957DOD     C197690  26.770  26.645   9.032 -0.0166  0.0105 -0.0804
17957DOD     C297691  27.231  26.378   9.101  0.2627 -0.0803  0.0247
17957DOD     C397692  27.539  26.044   8.877 -0.1064 -0.0436  0.1380
17958DOD     C197693  16.095   9.136  21.463  0.0506  0.0296 -0.3544
17958DOD     C297694  16.278   9.399  21.102 -0.1699  0.1464  0.2259
17958DOD     C397695  16.572   9.696  20.831 -0.0741 -0.2244  0.2394
17959DOD     C197696  15.806   1.324  25.604  0.0431  0.1934 -0.1860
17959DOD     C297697  15.349   1.399  25.660 -0.3135  0.0324 -0.3716
17959DOD     C397698  14.945   1.606  25.590 -0.1416 -0.1816  0.1512
17960DOD     C197699   6.177  24.217  14.003  0.2374 -0.1902  0.2170
17960DOD     C297700   6.496  24.466  13.709 -0.2031 -0.2303 -0.1166
17960DOD     C397701   6.745  24.738  13.427 -0.4621  0.2198  0.0223
17961DOD     C197702  20.570   9.552   7.031  0.1207 -0.2058  0.2950
17961DOD     C297703  20.135   9.793   6.995 -0.1127  0.0773  0.1061
17961DOD     C397704  19.987  10.136   7.281 -0.2058  0.1803  0.1470
17962DOD     C197705  15.834  21.980  26.060 -0.0310  0.1014 -0.1759
17962DOD     C297706  15.410  21.874  25.924  0.2888 -0.1090  0.0351
17962DOD     C397707  14.965  21.869  25.880  0.0711  0.2301  0.0986
17963DOD     C197708  18.629  10.209  19.850 -0.2238 -0.3275 -0.2889
17963DOD     C297709  18.809  10.612  19.820 -0.1359 -0.2979 -0.1145
17963DOD     C397710  19.192  10.886  19.721  0.1298  0.1112  0.3178
17964DOD     C197711  14.690  24.362  24.115 -0.0245  0.1807  0.1695
17964DOD     C297712  14.227  24.254  24.105 -0.0135 -0.3371 -0.0790
17964DOD     C397713  13.842  24.016  24.229  0.1525 -0.1460  0.0242
17965DOD     C197714   3.696  17.645  22.349 -0.0180  0.0269 -0.4179
17965DOD     C297715   3.433  18.021  22.206  0.0972  0.0063  0.0796
17965DOD     C397716   3.083  18.161  22.345  0.0013 -0.3303 -0.0050
17966DOD     C197717  13.741  14.761  12.518  0.1723 -0.1234  0.1960
17966DOD     C297718  13.811  14.294  12.439  0.0603  0.1345 -0.0495
17966DOD     C397719  13.769  14.011  12.855 -0.1448  0.0430 -0.2089
17967DOD     C197720  19.205  17.095  11.341  0.4432 -0.2603 -0.1197
17967DOD     C297721  18.852  17.015  11.688  0.1151 -0.2300 -0.0330
17967DOD     C397722  18.502  16.918  12.043  0.0355  0.2344 -0.2872
17968DOD     C197723  20.424  26.005  17.523 -0.0196  0.1499 -0.3173
17968DOD     C297724  20.694  25.774  17.300  0.1619 -0.2034 -0.4349
17968DOD     C397725  20.997  25.412  17.206 -0.2750  0.0440 -0.0490
17969DOD     C197726  19.306   0.067  20.343  0.0596 -0.4457 -0.2064
17969DOD     C297727  18.844  30.217  20.460  0.2010  0.0121 -0.1728
17969DOD     C397728  18.491  29.980  20.361 -0.1200  0.0257 -0.0514
17970DOD     C197729   6.126  21.540  18.373  0.0933  0.0478 -0.0942
17970DOD     C297730   6.006  21.303  18.770 -0.1967  0.1151  0.3239
17970DOD     C397731   5.940  20.940  19.062  0.0241  0.4737  0.0191
17971DOD     C197732   3.879   6.845  11.440  0.0966  0.1603  0.0616
17971DOD     C297733   4.087   6.516  11.700 -0.0992  0.0349 -0.0668
17971DOD     C397734   3.889   6.292  12.064 -0.0794 -0.0567  0.0076
17972DOD     C197735   9.438   6.850  22.507  0.1215  0.2432 -0.1704
17972DOD     C297736   9.758   6.600  22.730  0.3117  0.1481 -0.0398
17972DOD     C397737  10.071   6.346  23.034 -0.1255 -0.0303  0.1486
17973DOD     C197738  27.823  15.688  27.989  0.2491 -0.0689  0.1348
17973DOD     C297739  27.661  15.975  27.570 -0.0726 -0.1147  0.0385
17973DOD     C397740  27.433  16.125  27.202 -0.3334  0.1753  0.0847
17974DOD     C197741  24.189  19.010   2.243  0.1926 -0.0241  0.0522
17974DOD     C297742  23.725  18.968   2.221 -0.1334 -0.2770  0.0366
17974DOD     C397743  23.459  18.654   1.985  0.1500 -0.1082  0.1144
17975DOD     C197744  18.455  28.401   0.710  0.0616 -0.0504  0.0959
17975DOD     C297745  18.211  28.748   0.879  0.2664 -0.1663  0.1761
17975DOD     C397746  17.832  28.739   1.175  0.2654 -0.2204 -0.3422
17976DOD     C197747  10.402  26.166  11.769 -0.0760  0.1266 -0.1952
17976DOD     C297748  10.138  25.971  11.501  0.0676 -0.3148 -0.1058
17976DOD     C397749   9.710  26.168  11.407 -0.2890 -0.0132 -0.2181
17977DOD     C197750   0.470   8.490   6.953  0.2351 -0.0905 -0.1062
17977DOD     C297751   0.682   8.318   6.575 -0.0381 -0.0387  0.2730
17977DOD     C397752   0.873   8.164   6.178  0.0151 -0.2208  0.1256
17978DOD     C197753   5.887  10.988  20.276  0.2039  0.3820 -0.1998
17978DOD     C297754   5.927  11.433  20.052 -0.1148  0.1870  0.0641
17978DOD     C397755   6.023  11.870  19.893  0.3859 -0.0372 -0.1793
17979DOD     C197756  20.099   3.129  17.529 -0.1185  0.0496  0.1208
17979DOD     C297757  20.190   3.574  17.727  0.0190  0.1538 -0.2037
17979DOD     C397758  20.007   3.642  18.192 -0.0043  0.0871 -0.2050
17980DOD     C197759  22.486  27.871  29.406  0.2651  0.1802  0.4107
17980DOD     C297760  22.868  28.091  29.535  0.0458 -0.3042 -0.0191
17980DOD     C397761  23.113  28.247  29.137  0.1978  0.0173 -0.4357
17981DOD     C197762  27.000  19.207  22.565  0.3249 -0.2703  0.3638
17981DOD     C297763  26.568  19.434  22.577 -0.2101 -0.0851  0.0415
17981DOD     C397764  26.165  19.359  22.741 -0.0408 -0.0364  0.0678
17982DOD     C197765  25.087  12.605  25.137  0.2611 -0.0251 -0.0218
17982DOD     C297766  25.236  12.319  24.819  0.0749  0.2005  0.0586
17982DOD     C397767  25.662  12.067  24.842  0.0420  0.0169 -0.0500
17983DOD     C197768  21.925  10.528  18.660 -0.0637 -0.3426  0.0756
17983DOD     C297769  21.689  10.926  18.808  0.0736 -0.1534  0.0409
17983DOD     C397770  21.344  11.215  18.911  0.4594  0.1269 -0.1234
17984DOD     C197771  27.918   1.629  19.999 -0.1725  0.0741 -0.0385
17984DOD     C297772  27.629   1.390  19.811 -0.1846 -0.2832 -0.0049
17984DOD     C397773  27.219   1.389  19.577 -0.1025 -0.1556 -0.1329
17985DOD     C197774   3.620  22.440  21.987 -0.0119 -0.0472  0.0999
17985DOD     C297775   3.190  22.169  21.867  0.1686  0.0697  0.1863
17985DOD     C397776   2.947  21.868  22.136  0.1907  0.0108  0.1408
17986DOD     C197777   5.653  11.295  18.398 -0.0339  0.0765 -0.4033
17986DOD     C297778   5.561  11.792  18.522 -0.2628  0.1522  0.2254
17986DOD     C397779   5.775  12.217  18.498  0.2231  0.0228 -0.1264
17987DOD     C197780  14.732   7.712  10.715 -0.1972  0.1167  0.2435
17987DOD     C297781  14.944   7.613  11.093 -0.2879  0.0998 -0.2192
17987DOD     C397782  15.422   7.418  11.100  0.0407  0.1628 -0.4680
17988DOD     C197783  28.468   7.627  10.923 -0.1790  0.0053 -0.1769
17988DOD     C297784  28.055   7.422  10.879  0.1751  0.0450  0.1328
17988DOD     C397785  27.718   7.058  10.881 -0.2592  0.2854  0.0327
17989DOD     C197786  20.308  30.217  13.401  0.0189  0.3092  0.0194
17989DOD     C297787  20.528  29.893  13.158  0.2607 -0.1521  0.2183
17989DOD     C397788  21.013  29.920  13.085  0.1182  0.1084 -0.0889
17990DOD     C197789  22.362  16.226  21.649 -0.0777  0.4005  0.2807
17990DOD     C297790  22.198  16.443  22.019  0.3611 -0.1755 -0.4679
17990DOD     C397791  22.194  16.463  22.515 -0.1437 -0.1985  0.1154
17991DOD     C197792  14.669   2.763  18.907  0.0890  0.0135 -0.1413
17991DOD     C297793  14.957   2.431  19.019  0.1962  0.3721  0.1731
17991DOD     C397794  14.885   1.996  19.208  0.0882  0.0854  0.3212
17992DOD     C197795  20.553  27.327  20.352  0.2125 -0.1207 -0.0952
17992DOD     C297796  20.687  26.912  20.393 -0.1905  0.1392  0.2881
17992DOD     C397797  20.740  26.490  20.233 -0.0813  0.0796  0.1688
17993DOD     C197798  23.494  29.251  12.174  0.3999  0.0382 -0.0266
17993DOD     C297799  23.268  29.017  11.847 -0.0890  0.3054 -0.0637
17993DOD     C397800  23.008  28.956  11.466 -0.0542  0.1919  0.1225
17994DOD     C197801  10.921  12.975   4.046 -0.3603  0.1416 -0.0760
17994DOD     C297802  11.414  13.074   4.018 -0.1350 -0.1887 -0.2856
17994DOD     C397803  11.756  13.320   4.093 -0.0846 -0.4051 -0.4205
17995DOD     C197804   8.810   4.443  27.205 -0.0950  0.1031 -0.0082
17995DOD     C297805   8.642   4.124  27.482  0.1523 -0.2742 -0.1008
17995DOD     C397806   8.688   3.713  27.725 -0.0720  0.1267  0.2508
17996DOD     C197807   7.377  17.223  18.719  0.0767  0.2108  0.0014
17996DOD     C297808   7.454  16.712  18.628 -0.1307 -0.0617 -0.0298
17996DOD     C397809   7.526  16.245  18.631  0.1131  0.0793  0.0531
17997DOD     C197810   3.964   8.426   3.359  0.1171 -0.0950 -0.1773
17997DOD     C297811   3.787   8.778   3.586 -0.0184 -0.0590  0.0766
17997DOD     C397812   3.443   9.082   3.558 -0.1480  0.1870  0.1439
17998DOD     C197813  11.069  10.673  13.657  0.2293 -0.1663 -0.0315
17998DOD     C297814  11.011  10.893  14.059  0.3412  0.4457 -0.1127
17998DOD     C397815  10.816  11.063  14.457 -0.1553  0.0850 -0.2385
17999DOD     C197816   8.871  23.030  25.852 -0.2723 -0.1519  0.0772
17999DOD     C297817   9.291  23.089  26.072  0.0480  0.0961  0.0599
17999DOD     C397818   9.396  23.436  26.411 -0.0982 -0.1122  0.1851
18000DOD     C197819  29.174  17.097  18.957 -0.0869 -0.1475  0.0925
18000DOD     C297820  28.917  17.343  19.241 -0.2956 -0.1514 -0.0922
18000DOD     C397821  28.912  17.747  19.418 -0.0738  0.2335  0.0204
18001DOD     C197822  17.417  25.349  26.883  0.0970  0.0333 -0.1440
18001DOD     C297823  17.267  25.538  27.182  0.4267  0.0059 -0.1570
18001DOD     C397824  17.496  25.742  27.522 -0.5140  0.2591 -0.0466
18002DOD     C197825   7.093  30.179   7.093 -0.2652  0.1416 -0.0930
18002DOD     C297826   7.282  30.138   6.635 -0.0165  0.1392 -0.0539
18002DOD     C397827   7.763  30.111   6.428  0.1126  0.0409  0.2250
18003DOD     C197828  13.792  19.930  20.450 -0.2179  0.1141 -0.2159
18003DOD     C297829  13.895  20.274  20.149 -0.2114  0.0475 -0.2592
18003DOD     C397830  13.913  20.499  19.795 -0.1646 -0.4493  0.1242
18004DOD     C197831   3.965   5.466   8.180  0.2876  0.0742 -0.0455
18004DOD     C297832   4.399   5.473   8.288 -0.2568 -0.0289 -0.1800
18004DOD     C397833   4.773   5.315   8.524  0.0796 -0.2501 -0.2009
18005DOD     C197834  10.373  22.811  23.117  0.1468  0.0745  0.3783
18005DOD     C297835  10.235  23.033  23.547 -0.1676  0.0897 -0.2445
18005DOD     C397836   9.869  23.014  23.812  0.2020  0.1730 -0.2341
18006DOD     C197837  11.832   1.370  22.401 -0.1346 -0.0218 -0.2546
18006DOD     C297838  12.214   1.182  22.191  0.0322 -0.3053 -0.0101
18006DOD     C397839  12.624   0.985  22.250  0.2259  0.3503  0.0059
18007DOD     C197840  16.528  12.545  24.370  0.0706 -0.0866 -0.3641
18007DOD     C297841  16.159  12.377  24.522  0.0371 -0.0717  0.1378
18007DOD     C397842  16.072  12.011  24.748  0.1699 -0.1512  0.1314
18008DOD     C197843  19.157  14.802  16.279  0.0573  0.0842 -0.0990
18008DOD     C297844  18.752  14.709  16.496 -0.1780  0.0580  0.1194
18008DOD     C397845  18.472  14.329  16.566 -0.1460 -0.0353  0.1578
18009DOD     C197846   3.608  26.856  18.010 -0.2057  0.6211 -0.3828
18009DOD     C297847   3.781  26.459  18.097 -0.0519  0.0821 -0.0051
18009DOD     C397848   3.682  26.161  17.732 -0.1518  0.1617  0.0538
18010DOD     C197849  23.656  26.541  28.543 -0.2024 -0.2790 -0.2626
18010DOD     C297850  23.696  26.262  28.183  0.2309  0.1433 -0.0901
18010DOD     C397851  23.647  25.994  27.788  0.0320 -0.0408  0.3294
18011DOD     C197852   2.706  18.326  19.473  0.1732 -0.0801  0.3417
18011DOD     C297853   2.298  18.319  19.245  0.2252  0.0528 -0.1788
18011DOD     C397854   1.934  18.489  18.931  0.3597  0.1572  0.2520
18012DOD     C197855  24.000  22.611  27.306 -0.2136 -0.0283 -0.2072
18012DOD     C297856  24.329  22.272  27.147  0.0351 -0.3221  0.2321
18012DOD     C397857  24.473  22.051  26.753 -0.0414 -0.0157 -0.1457
18013DOD     C197858   0.652  17.420  22.860 -0.1382  0.1517  0.2119
18013DOD     C297859   0.650  17.417  23.305  0.0096  0.1799  0.1131
18013DOD     C397860   0.295  17.427  23.627 -0.2176  0.0899  0.0461
18014DOD     C197861  28.807  25.710  10.077  0.3525  0.1798 -0.0961
18014DOD     C297862  28.615  26.137   9.948  0.0109 -0.2806  0.2017
18014DOD     C397863  28.294  26.390   9.982 -0.0517 -0.1408 -0.1034
18015DOD     C197864  27.599  14.221   8.792 -0.5576 -0.1827 -0.1554
18015DOD     C297865  27.490  14.579   9.086 -0.0966  0.4051  0.0044
18015DOD     C397866  27.407  15.080   9.066 -0.0007  0.3393  0.1786
18016DOD     C197867   4.386   9.299  17.673 -0.0921 -0.2745  0.3757
18016DOD     C297868   4.557   9.049  18.034 -0.1237  0.1949  0.0496
18016DOD     C397869   4.739   9.019  18.516 -0.0493  0.0368  0.1550
18017DOD     C197870   6.601   8.280  18.804 -0.3293  0.2543 -0.2554
18017DOD     C297871   6.300   8.473  18.497 -0.0077 -0.1762  0.1699
18017DOD     C397872   5.919   8.535  18.165  0.0638 -0.1639  0.1883
18018DOD     C197873  15.055  17.408   0.681 -0.0788 -0.1268  0.0741
18018DOD     C297874  15.299  17.803   0.638  0.1533  0.0755 -0.1633
18018DOD     C397875  15.324  18.266   0.583  0.1831  0.0641  0.0913
18019DOD     C197876  22.754   1.302   9.762  0.2563 -0.2759  0.2599
18019DOD     C297877  23.202   1.232   9.865 -0.2332 -0.1352 -0.3230
18019DOD     C397878  23.585   0.980   9.608  0.1200  0.0042 -0.0009
18020DOD     C197879  12.228  18.195  16.429 -0.0891 -0.0604 -0.2133
18020DOD     C297880  12.549  17.908  16.411 -0.0997  0.0655  0.1792
18020DOD     C397881  12.911  17.729  16.217 -0.2626  0.1435  0.0950
18021DOD     C197882  10.563  27.033  28.223  0.1469  0.0189 -0.2721
18021DOD     C297883  11.006  27.171  28.295 -0.1385  0.1182  0.0958
18021DOD     C397884  11.393  27.348  28.468  0.0193 -0.1295  0.0076
18022DOD     C197885  25.860  15.796  11.399  0.4884  0.0227 -0.1058
18022DOD     C297886  25.825  15.938  10.988  0.2248  0.2678  0.2564
18022DOD     C397887  25.842  15.946  10.520 -0.2530 -0.4018  0.1875
18023DOD     C197888  30.102   2.928   3.473 -0.2483  0.1682  0.2551
18023DOD     C297889  29.768   3.242   3.578  0.2412 -0.2231 -0.4413
18023DOD     C397890  29.309   3.180   3.478 -0.1846 -0.2649  0.2093
18024DOD     C197891  14.112   9.374  12.165 -0.0687  0.1114 -0.2168
18024DOD     C297892  14.347   9.015  11.983 -0.0145 -0.0361  0.2721
18024DOD     C397893  14.503   8.586  11.903 -0.2694 -0.0707 -0.0459
18025DOD     C197894  28.135   8.397  12.752 -0.1786  0.1681  0.0220
18025DOD     C297895  27.897   8.508  13.122 -0.2926  0.0861  0.0714
18025DOD     C397896  27.864   8.393  13.534 -0.2296  0.0107 -0.2490
18026DOD     C197897  15.720   7.391   6.132 -0.3250  0.0202  0.0797
18026DOD     C297898  15.493   7.486   5.695  0.0002  0.0285 -0.4025
18026DOD     C397899  15.732   7.743   5.411  0.1562  0.0172 -0.2572
18027DOD     C197900  19.403  10.042   6.600 -0.2430  0.0596 -0.0717
18027DOD     C297901  18.941  10.055   6.789 -0.1850 -0.0114  0.1956
18027DOD     C397902  18.545   9.948   7.004  0.0496 -0.1217  0.1436
18028DOD     C197903  25.433  29.637  19.931 -0.2037 -0.0070 -0.1376
18028DOD     C297904  25.409  29.487  19.540  0.0940  0.3968  0.1679
18028DOD     C397905  25.182  29.159  19.237 -0.0732  0.1254 -0.0046
18029DOD     C197906   8.702  13.257   7.592  0.0672 -0.0458 -0.0894
18029DOD     C297907   8.740  12.791   7.759 -0.0872  0.0697 -0.3881
18029DOD     C397908   8.727  12.751   8.215 -0.5577  0.3400  0.0059
18030DOD     C197909  15.352   9.011  12.024 -0.0853  0.0259 -0.2232
18030DOD     C297910  15.506   9.334  12.356  0.3181 -0.0052  0.1005
18030DOD     C397911  15.548   9.566  12.768 -0.1369 -0.0808  0.0175
18031DOD     C197912  29.786  20.936  17.014  0.3188  0.0380 -0.0049
18031DOD     C297913  29.349  20.815  16.826 -0.1435  0.0288 -0.0574
18031DOD     C397914  29.051  20.582  17.045  0.1374  0.1883 -0.0902
18032DOD     C197915  25.907  28.700  15.479 -0.0393  0.0012 -0.1472
18032DOD     C297916  25.712  28.949  15.197 -0.0825 -0.0196  0.0305
18032DOD     C397917  25.458  29.137  14.843  0.0042  0.2493 -0.0842
18033DOD     C197918   6.654  18.402  21.669 -0.3111  0.2543  0.0009
18033DOD     C297919   6.794  18.843  21.709 -0.2432 -0.1225 -0.1257
18033DOD     C397920   6.835  19.292  21.792 -0.0811 -0.1359 -0.0137
18034DOD     C197921  19.083   0.291   1.258  0.2563 -0.0723  0.2934
18034DOD     C297922  18.968   0.738   1.401  0.0904  0.2211 -0.1821
18034DOD     C397923  18.569   1.020   1.276  0.1405 -0.0273  0.1832
18035DOD     C197924   6.507  12.986   5.212 -0.1315  0.1018 -0.0959
18035DOD     C297925   6.334  12.554   5.121 -0.0018  0.0152 -0.0973
18035DOD     C397926   6.082  12.214   5.101  0.3278 -0.1130 -0.0373
18036DOD     C197927  21.857   9.079  21.088 -0.2548  0.1295  0.0937
18036DOD     C297928  22.029   9.541  20.943 -0.0533  0.3779 -0.2343
18036DOD     C397929  21.969   9.832  20.563  0.0349  0.1106  0.2492
18037DOD     C197930  15.267   8.101  27.200 -0.4732 -0.2455  0.0195
18037DOD     C297931  15.325   7.694  27.365  0.0558  0.3847  0.0631
18037DOD     C397932  15.283   7.228  27.402  0.1516 -0.1228 -0.0223
18038DOD     C197933  10.617  20.682   2.363 -0.1815  0.2554  0.0514
18038DOD     C297934  10.817  21.076   2.429  0.0527 -0.0534  0.1226
18038DOD     C397935  11.031  21.359   2.708 -0.6158 -0.0883 -0.1289
18039DOD     C197936  18.000  15.684  20.448 -0.1636  0.0049 -0.1341
18039DOD     C297937  18.116  15.563  20.030  0.3684  0.0711  0.2144
18039DOD     C397938  18.391  15.448  19.615 -0.0929  0.1535  0.0061
18040DOD     C197939   1.860  15.726  29.075 -0.1217 -0.4585  0.0864
18040DOD     C297940   1.468  15.931  29.303 -0.1094  0.1986  0.1748
18040DOD     C397941   1.193  16.246  29.101  0.2120  0.1504 -0.2934
18041DOD     C197942  25.002  16.922  21.974  0.1710 -0.3042  0.0940
18041DOD     C297943  25.363  16.892  21.631  0.1604 -0.1719 -0.0612
18041DOD     C397944  25.401  17.033  21.236 -0.2711  0.0131 -0.1123
18042DOD     C197945   8.387   8.135  10.856 -0.2258 -0.0426  0.2520
18042DOD     C297946   8.463   8.198  11.325  0.3436  0.0836  0.1982
18042DOD     C397947   8.292   8.233  11.764  0.1275 -0.0702  0.0547
18043DOD     C197948  23.320   0.670  14.620  0.0302  0.3618  0.2715
18043DOD     C297949  23.635   0.943  14.392 -0.1159  0.1859  0.1330
18043DOD     C397950  24.036   0.855  14.601 -0.1756  0.1059  0.4235
18044DOD     C197951   3.522   0.779  22.510  0.0270  0.0084 -0.2614
18044DOD     C297952   3.689   1.156  22.625  0.1793  0.1577  0.2836
18044DOD     C397953   3.719   1.572  22.456  0.1169  0.0516  0.2424
18045DOD     C197954  15.112  28.606   5.942  0.1169 -0.2595  0.2522
18045DOD     C297955  15.396  28.953   5.976 -0.0911 -0.0451 -0.2625
18045DOD     C397956  15.627  29.196   5.665  0.1084  0.1203 -0.2774
18046DOD     C197957  24.707  13.343  13.505 -0.0987  0.4731  0.0104
18046DOD     C297958  24.276  13.428  13.340  0.0319 -0.0871 -0.0701
18046DOD     C397959  23.824  13.249  13.239 -0.0206 -0.0566 -0.1401
18047DOD     C197960  19.375  23.558  18.657 -0.1100  0.1522  0.0310
18047DOD     C297961  19.303  23.434  19.109 -0.1275 -0.2710  0.1011
18047DOD     C397962  19.075  23.485  19.473 -0.2141  0.1909 -0.3515
18048DOD     C197963  11.198   9.490  27.685 -0.1065  0.1013 -0.2312
18048DOD     C297964  11.421   9.584  27.296  0.0811  0.0480  0.2623
18048DOD     C397965  11.729   9.640  26.885 -0.1230  0.1625 -0.1371
18049DOD     C197966  13.904  27.496   2.524 -0.1089  0.3368  0.1046
18049DOD     C297967  13.723  27.739   2.193  0.0341  0.0329  0.2034
18049DOD     C397968  13.825  27.993   1.891 -0.2690 -0.3660 -0.0308
18050DOD     C197969  12.799  17.672  27.745  0.0350  0.2496 -0.1531
18050DOD     C297970  13.127  17.977  27.880 -0.1852  0.1243  0.1042
18050DOD     C397971  13.439  18.245  28.009 -0.0531  0.2102  0.0662
18051DOD     C197972  18.786  12.646   0.648  0.2235 -0.1244 -0.1659
18051DOD     C297973  18.753  12.430   1.056  0.0316  0.1405  0.0416
18051DOD     C397974  19.144  12.241   1.273  0.0337  0.1124  0.1538
18052DOD     C197975  16.408   0.239   4.349 -0.1394 -0.0716  0.0408
18052DOD     C297976  16.089   0.410   4.645 -0.1563 -0.0419 -0.1567
18052DOD     C397977  15.887   0.246   5.063  0.0289 -0.1627 -0.1063
18053DOD     C197978  20.365   2.732   9.273 -0.0316 -0.4064  0.0014
18053DOD     C297979  20.036   2.912   9.524  0.0069  0.0468  0.0986
18053DOD     C397980  19.747   3.165   9.756 -0.0362 -0.1113  0.0213
18054DOD     C197981  18.298  23.925  18.649  0.1715 -0.1026  0.2933
18054DOD     C297982  18.591  24.081  18.340 -0.0667  0.2127  0.1848
18054DOD     C397983  18.648  24.374  17.929  0.2916 -0.1227  0.0439
18055DOD     C197984  23.961  29.270   8.816  0.1550  0.1413  0.0163
18055DOD     C297985  24.222  28.878   8.765 -0.1793  0.0650  0.3279
18055DOD     C397986  24.380  28.535   9.018 -0.2028 -0.1350 -0.2141
18056DOD     C197987  13.571   6.396   3.683 -0.2590 -0.0888  0.2440
18056DOD     C297988  13.698   6.278   4.124 -0.0262 -0.0432  0.2842
18056DOD     C397989  13.605   6.391   4.558 -0.2107  0.1458  0.0710
18057DOD     C197990  16.456  26.076  13.945 -0.3299 -0.3339 -0.1822
18057DOD     C297991  16.803  25.793  13.824 -0.2938 -0.2712  0.0713
18057DOD     C397992  16.934  25.325  13.971  0.2551  0.0828  0.3023
18058DOD     C197993   0.181  23.796  13.035  0.0554  0.2555  0.0153
18058DOD     C297994   0.452  23.789  12.663  0.1182 -0.1406  0.1078
18058DOD     C397995   0.748  23.637  12.338  0.0662 -0.1905  0.1952
18059DOD     C197996  24.908  24.539   9.065  0.1492  0.0112  0.2057
18059DOD     C297997  24.872  24.787   9.492 -0.1743  0.0501  0.3538
18059DOD     C397998  24.796  25.267   9.516 -0.2278 -0.0351  0.0356
18060DOD     C197999   0.393  28.749  14.960 -0.1957 -0.1175 -0.1350
18060DOD     C298000   0.428  29.183  15.212 -0.1828  0.1244  0.2395
18060DOD     C398001   0.681  29.376  15.494  0.1757 -0.4223 -0.0415
18061DOD     C198002   2.145  10.507   5.398 -0.0018  0.1378  0.0703
18061DOD     C298003   1.927  10.496   5.827  0.2118 -0.1746 -0.0695
18061DOD     C398004   1.935  10.326   6.280  0.1719 -0.3386  0.2023
18062DOD     C198005   9.248  18.155   4.090 -0.1843 -0.0274  0.0357
18062DOD     C298006   9.532  18.212   3.809 -0.2453 -0.3157  0.1091
18062DOD     C398007   9.810  18.631   3.705  0.1739  0.2255 -0.0780
18063DOD     C198008   0.655   3.414   2.389  0.3086  0.0083  0.1538
18063DOD     C298009   0.358   3.409   1.955 -0.2792  0.2175 -0.0642
18063DOD     C398010  30.265   3.459   1.708  0.1205  0.1237 -0.1849
18064DOD     C198011  12.103   3.317  14.549  0.2759 -0.0750 -0.1752
18064DOD     C298012  11.852   2.961  14.749  0.6360 -0.0993  0.0687
18064DOD     C398013  11.738   2.783  15.189 -0.0259 -0.4817 -0.1969
18065DOD     C198014  26.644  20.538  22.165  0.0964 -0.2066  0.0304
18065DOD     C298015  26.651  21.020  22.053 -0.3708 -0.1477  0.3409
18065DOD     C398016  26.336  21.348  21.906 -0.0265  0.2186  0.0765
18066DOD     C198017  17.912  25.695   7.478  0.0327 -0.0725 -0.1670
18066DOD     C298018  18.055  25.523   7.878 -0.0088  0.0669 -0.2784
18066DOD     C398019  18.007  25.349   8.307  0.3207  0.2863  0.0672
18067DOD     C198020   1.359  28.975  14.956 -0.0861  0.1247 -0.0801
18067DOD     C298021   1.577  29.128  15.343 -0.0713 -0.2230 -0.2682
18067DOD     C398022   1.867  28.847  15.578  0.4251 -0.0268  0.0418
18068DOD     C198023  19.563  12.883   7.302  0.1653  0.0329 -0.1878
18068DOD     C298024  19.244  13.016   6.998  0.1322 -0.0710  0.2426
18068DOD     C398025  18.836  12.766   6.880 -0.2404 -0.0390  0.0988
18069DOD     C198026  29.339  11.482   1.922  0.2916 -0.1087  0.2475
18069DOD     C298027  29.652  11.570   2.201 -0.2465 -0.0295 -0.0733
18069DOD     C398028  30.058  11.602   2.428  0.1648 -0.3936 -0.0334
18070DOD     C198029  23.472  23.461   8.583  0.2462  0.2646  0.0906
18070DOD     C298030  23.921  23.419   8.657 -0.1961 -0.1682  0.2408
18070DOD     C398031  24.379  23.646   8.541  0.0393 -0.5345 -0.2166
18071DOD     C198032  15.866  14.634   3.330 -0.2218 -0.0142 -0.1288
18071DOD     C298033  15.702  14.975   3.539  0.0361 -0.0652 -0.0207
18071DOD     C398034  15.792  15.428   3.666 -0.0411 -0.5472 -0.0182
18072DOD     C198035   1.216  14.025  16.412 -0.3776 -0.0195  0.0869
18072DOD     C298036   1.140  14.101  16.854 -0.1155  0.2542  0.0941
18072DOD     C398037   1.085  13.892  17.311  0.3757  0.1185 -0.1133
18073DOD     C198038  27.859  21.937  24.340  0.1099 -0.0034 -0.0389
18073DOD     C298039  28.101  22.144  24.044  0.0131 -0.0654 -0.2110
18073DOD     C398040  28.254  22.424  23.723  0.1457  0.1816 -0.1556
18074DOD     C198041  12.906  10.903  24.726  0.2300 -0.1279 -0.1685
18074DOD     C298042  12.485  10.914  24.639 -0.1088  0.0119 -0.0413
18074DOD     C398043  12.106  10.885  24.835  0.1997  0.0673  0.1808
18075DOD     C198044  29.392  11.491  16.357 -0.0559 -0.1133 -0.0616
18075DOD     C298045  29.722  11.421  16.635  0.0988 -0.1695  0.2188
18075DOD     C398046  29.880  11.080  16.902  0.0178 -0.1537  0.0860
18076DOD     C198047  18.162   4.246  15.980 -0.2134  0.1316  0.0330
18076DOD     C298048  18.419   4.132  15.589 -0.0275 -0.0578 -0.0254
18076DOD     C398049  18.877   4.105  15.477  0.0426 -0.1373  0.0041
18077DOD     C198050   1.796  21.405  26.054  0.0155 -0.0494 -0.0831
18077DOD     C298051   2.080  21.020  26.017  0.2800 -0.0811  0.1653
18077DOD     C398052   2.210  20.623  26.238  0.0442 -0.2610  0.0262
18078DOD     C198053   2.288  23.933  28.635  0.3044 -0.1175  0.0620
18078DOD     C298054   2.583  24.293  28.522 -0.2651 -0.0082  0.0426
18078DOD     C398055   2.578  24.588  28.159  0.0106 -0.0054  0.0785
18079DOD     C198056  14.429  14.156   7.725  0.0493 -0.0127 -0.4238
18079DOD     C298057  14.384  14.641   7.825  0.1464 -0.1271 -0.1507
18079DOD     C398058  14.534  15.048   7.974  0.1648 -0.1799  0.0768
18080DOD     C198059   3.613  22.148  12.192  0.0308  0.1339  0.3340
18080DOD     C298060   3.820  22.438  12.567 -0.0230 -0.1440 -0.0971
18080DOD     C398061   3.955  22.793  12.745  0.1076  0.0608  0.0758
18081DOD     C198062  11.131  14.204  26.601 -0.0891  0.0110  0.2070
18081DOD     C298063  11.597  14.231  26.513  0.0466 -0.1912 -0.3469
18081DOD     C398064  12.020  14.060  26.433  0.1798 -0.2498 -0.0528
18082DOD     C198065  23.182  25.292  18.345  0.0903  0.0932  0.0343
18082DOD     C298066  23.565  25.212  18.111 -0.0374  0.2962 -0.3073
18082DOD     C398067  24.042  25.233  18.063  0.0532  0.1384 -0.1127
18083DOD     C198068   5.999  18.358  10.435  0.0539 -0.4602  0.0143
18083DOD     C298069   6.091  18.528  10.912  0.0564 -0.3429 -0.0614
18083DOD     C398070   6.292  18.701  11.331  0.0105 -0.3108 -0.4093
18084DOD     C198071  23.615  24.841  15.435  0.1913 -0.0501 -0.1942
18084DOD     C298072  23.737  25.121  15.837 -0.1462  0.0061  0.1913
18084DOD     C398073  24.135  25.229  16.097 -0.1304 -0.0242  0.0147
18085DOD     C198074  17.308   0.966  23.146  0.0465  0.0887  0.1283
18085DOD     C298075  17.765   1.062  22.992  0.2362  0.3822 -0.4196
18085DOD     C398076  18.107   1.352  22.932 -0.1133 -0.2959  0.4313
18086DOD     C198077  27.115   4.202  16.764  0.1764  0.2938 -0.0178
18086DOD     C298078  27.556   4.164  16.621  0.1137 -0.4040 -0.1398
18086DOD     C398079  27.803   4.363  16.270 -0.0559  0.0172  0.0257
18087DOD     C198080  17.820   2.524   2.755  0.2500 -0.1938 -0.1577
18087DOD     C298081  17.942   2.319   3.130 -0.2305  0.1557  0.1159
18087DOD     C398082  17.604   2.099   3.324  0.1364 -0.1413 -0.0257
18088DOD     C198083  19.850  18.783  13.897  0.4035  0.1509 -0.1810
18088DOD     C298084  19.605  18.381  13.720  0.0969  0.0494 -0.2971
18088DOD     C398085  19.338  18.010  13.668  0.3182 -0.1515 -0.2184
18089DOD     C198086  11.349  23.256   0.993  0.2326 -0.3738  0.0468
18089DOD     C298087  10.888  23.242   1.119  0.2728 -0.4441  0.1099
18089DOD     C398088  10.527  23.055   1.314 -0.1226 -0.1160  0.3152
18090DOD     C198089  11.824  23.231  29.693 -0.0441  0.1036 -0.0617
18090DOD     C298090  11.887  23.424  30.142  0.1555  0.1496 -0.0634
18090DOD     C398091  12.242  23.436   0.088 -0.0995  0.2691  0.0087
18091DOD     C198092   3.783   7.310  12.788  0.0029 -0.0847  0.2064
18091DOD     C298093   4.240   7.256  12.807 -0.3267  0.4209 -0.2476
18091DOD     C398094   4.431   6.833  12.861  0.1889  0.2017 -0.1501
18092DOD     C198095  19.439   4.669  21.131 -0.3140  0.0471 -0.1277
18092DOD     C298096  19.602   4.694  20.708  0.2504 -0.0354  0.1475
18092DOD     C398097  19.772   4.677  20.278  0.1672 -0.1682  0.0449
18093DOD     C198098  16.612  24.599  24.049 -0.3422  0.0591 -0.0258
18093DOD     C298099  16.860  24.373  23.698 -0.0266  0.1117  0.3053
18093DOD     C398100  17.243  24.361  23.480  0.0007 -0.3372  0.1335
18094DOD     C198101  15.425  19.224  28.171 -0.0910 -0.2439  0.0328
18094DOD     C298102  15.598  19.267  27.750  0.2571  0.0063 -0.1771
18094DOD     C398103  15.675  19.470  27.312 -0.1123 -0.1847  0.1015
18095DOD     C198104  28.508  17.928   9.214 -0.0986 -0.0760 -0.0035
18095DOD     C298105  28.216  18.036   9.571  0.2477 -0.2875  0.1844
18095DOD     C398106  28.325  18.293   9.950  0.1364  0.0287 -0.0869
18096DOD     C198107  19.743   2.411   1.671 -0.2481  0.1685  0.0313
18096DOD     C298108  19.530   2.405   2.099  0.1373  0.1983  0.0124
18096DOD     C398109  19.370   2.579   2.503 -0.1963 -0.1927 -0.1700
18097DOD     C198110  11.080  27.407  16.965 -0.0730  0.1455 -0.2521
18097DOD     C298111  11.021  27.590  16.558  0.1074  0.0082  0.0434
18097DOD     C398112  11.126  27.836  16.173 -0.2863 -0.1272  0.0328
18098DOD     C198113  20.471  14.072  22.374 -0.0783  0.2318 -0.0050
18098DOD     C298114  20.748  13.798  22.599 -0.0496 -0.0778  0.3792
18098DOD     C398115  20.835  13.460  22.905  0.0238 -0.3290  0.2656
18099DOD     C198116  24.975  10.827   0.308  0.2218  0.1042  0.2549
18099DOD     C298117  25.195  11.025   0.655 -0.1293  0.0148  0.0238
18099DOD     C398118  25.468  11.142   1.035  0.0359 -0.0872 -0.2745
18100DOD     C198119  22.943  16.479   6.945  0.1012  0.1037 -0.1480
18100DOD     C298120  22.767  16.287   7.349 -0.1719 -0.0641  0.2244
18100DOD     C398121  22.662  16.027   7.682  0.4881 -0.1474  0.1079
18101DOD     C198122  17.276   9.780   8.863 -0.1720 -0.0110 -0.1872
18101DOD     C298123  16.957   9.929   8.622  0.1133  0.0040  0.0218
18101DOD     C398124  16.754  10.320   8.397  0.2661 -0.1308  0.1288
18102DOD     C198125  26.764   0.121  24.992 -0.0507 -0.0698 -0.3915
18102DOD     C298126  26.895  30.181  24.641  0.0764  0.4826  0.0821
18102DOD     C398127  26.828  30.001  24.200  0.5675 -0.0925  0.1396
18103DOD     C198128  21.875  12.802  24.712 -0.0628  0.3867  0.2948
18103DOD     C298129  22.024  12.551  25.075 -0.2588 -0.0903 -0.1567
18103DOD     C398130  22.113  12.138  25.284  0.2590 -0.2930 -0.2885
18104DOD     C198131   3.441   9.932  21.441 -0.1302 -0.2733  0.1446
18104DOD     C298132   3.319   9.558  21.153  0.1663  0.1960  0.2242
18104DOD     C398133   3.198   9.206  20.915  0.2259  0.0565 -0.0704
18105DOD     C198134   8.131  17.325  17.262  0.1002 -0.3351 -0.3927
18105DOD     C298135   8.150  16.875  17.245  0.0252  0.2067 -0.1040
18105DOD     C398136   7.835  16.581  17.255  0.2097  0.2554  0.1387
18106DOD     C198137   8.905   4.728   6.826 -0.2597  0.0393  0.0618
18106DOD     C298138   8.879   5.065   7.161  0.3751 -0.1330 -0.2556
18106DOD     C398139   8.642   5.439   7.325 -0.0935  0.0080 -0.0819
18107DOD     C198140  14.575  18.332  16.484 -0.2756 -0.1553 -0.1644
18107DOD     C298141  14.227  18.515  16.793 -0.1098  0.1589  0.0657
18107DOD     C398142  13.814  18.397  16.843 -0.1442  0.0445  0.1434
18108DOD     C198143  12.448  16.598  24.416 -0.1946  0.1280 -0.2067
18108DOD     C298144  12.557  16.193  24.282 -0.0098  0.1426  0.0228
18108DOD     C398145  12.537  15.715  24.159 -0.1350 -0.1900  0.1096
18109DOD     C198146   4.443   3.948   4.159 -0.2946  0.0586  0.1052
18109DOD     C298147   4.173   4.039   3.815  0.1079  0.0206  0.0549
18109DOD     C398148   4.062   3.672   3.487 -0.0292 -0.0509 -0.1576
18110DOD     C198149  20.553   5.706  14.521 -0.0525  0.2415 -0.4014
18110DOD     C298150  20.496   5.297  14.733  0.0803  0.2124  0.1039
18110DOD     C398151  20.143   4.894  14.821 -0.2792  0.3456  0.1999
18111DOD     C198152   4.149  26.142  14.074 -0.0774 -0.0268  0.2544
18111DOD     C298153   3.671  26.127  14.052 -0.2715  0.1338  0.0237
18111DOD     C398154   3.383  26.122  13.634  0.1064 -0.0743 -0.1916
18112DOD     C198155   5.741  22.668  15.244 -0.1971  0.1609 -0.0219
18112DOD     C298156   6.111  22.949  15.150  0.1783 -0.2879  0.0808
18112DOD     C398157   6.513  23.134  15.210 -0.1686 -0.1124 -0.2027
18113DOD     C198158  14.510   4.866  18.418  0.0243 -0.2329 -0.0419
18113DOD     C298159  14.536   4.432  18.610  0.1337  0.1214  0.1692
18113DOD     C398160  14.904   4.227  18.868  0.0213  0.3258 -0.1335
18114DOD     C198161  10.615  26.330  12.379 -0.0340  0.0405 -0.1556
18114DOD     C298162  10.451  26.074  12.771 -0.0530  0.0117 -0.0095
18114DOD     C398163  10.467  26.179  13.257 -0.2195 -0.2203 -0.2015
18115DOD     C198164  23.361   4.502   6.989 -0.1817  0.0716  0.2426
18115DOD     C298165  23.240   4.222   6.626 -0.0829  0.0779  0.0726
18115DOD     C398166  22.979   3.848   6.575 -0.3636  0.0722 -0.0755
18116DOD     C198167  22.409   4.513  23.107 -0.1932 -0.1167 -0.1916
18116DOD     C298168  21.930   4.490  23.046 -0.0528 -0.1190  0.1367
18116DOD     C398169  21.599   4.193  22.829  0.0291 -0.3873 -0.1705
18117DOD     C198170   0.302  28.818  10.755 -0.1003  0.1357 -0.0054
18117DOD     C298171   0.095  28.685  11.140  0.0731 -0.3461 -0.0406
18117DOD     C398172  30.073  28.529  11.423  0.1503 -0.3405  0.0371
18118DOD     C198173  10.255  20.177   1.375  0.2414 -0.0561 -0.0888
18118DOD     C298174  10.095  19.720   1.447  0.0356 -0.0342  0.1318
18118DOD     C398175   9.829  19.352   1.603 -0.0830 -0.2437  0.1112
18119DOD     C198176   9.188  12.955  29.101 -0.0004 -0.0833 -0.0752
18119DOD     C298177   9.299  12.841  29.553 -0.1460  0.2453 -0.0396
18119DOD     C398178   9.291  12.764  30.007  0.0361 -0.1975  0.2868
18120DOD     C198179  13.137  11.988  14.492 -0.1396 -0.0630 -0.0799
18120DOD     C298180  12.732  12.029  14.325 -0.0424  0.0327  0.2479
18120DOD     C398181  12.264  12.124  14.281 -0.0559  0.3874 -0.0136
18121DOD     C198182  28.668   1.624  18.522 -0.1509 -0.0451 -0.0788
18121DOD     C298183  28.590   1.643  18.032 -0.1796 -0.1666  0.0599
18121DOD     C398184  28.330   1.707  17.626 -0.2689 -0.0388  0.0290
18122DOD     C198185   3.581  26.626  20.011  0.2578 -0.0727 -0.0031
18122DOD     C298186   3.449  27.096  20.114  0.3002  0.2308 -0.1040
18122DOD     C398187   3.278  27.469  20.264  0.1170 -0.2898  0.0965
18123DOD     C198188  11.499  19.980  14.868  0.1798  0.1086  0.1681
18123DOD     C298189  11.924  20.170  15.030  0.2537  0.1491  0.0521
18123DOD     C398190  12.140  20.588  15.207 -0.0034 -0.0033 -0.2427
18124DOD     C198191   9.738  13.949  28.541  0.3390  0.0204 -0.0824
18124DOD     C298192  10.141  14.093  28.315  0.0033  0.2849  0.1580
18124DOD     C398193  10.155  14.469  28.174 -0.1966 -0.2220 -0.1523
18125DOD     C198194  12.419   2.224   2.048  0.1592  0.1394  0.1333
18125DOD     C298195  12.003   2.167   2.306  0.0020  0.0483  0.3527
18125DOD     C398196  11.587   1.934   2.281 -0.1000  0.1297  0.4047
18126DOD     C198197   2.560  20.150  27.310 -0.1246  0.0607 -0.0091
18126DOD     C298198   2.320  20.351  27.679 -0.1137  0.2938  0.0466
18126DOD     C398199   2.147  20.634  28.011 -0.3042  0.3167  0.3042
18127DOD     C198200  12.930  14.690  12.004 -0.0801  0.4847  0.2573
18127DOD     C298201  13.062  14.399  11.636  0.2358  0.1289 -0.1131
18127DOD     C398202  13.315  14.234  11.287  0.1785  0.0057  0.0451
18128DOD     C198203  23.704  12.091   7.068 -0.2123 -0.0604 -0.0163
18128DOD     C298204  23.315  12.191   7.286  0.1008  0.0237  0.0283
18128DOD     C398205  23.189  12.007   7.573 -0.1209 -0.0614 -0.1749
18129DOD     C198206  17.522  12.255   7.494 -0.0337 -0.1222  0.0185
18129DOD     C298207  17.472  12.704   7.704 -0.0598  0.0174  0.0163
18129DOD     C398208  17.616  12.890   8.124 -0.1519  0.2319  0.2525
18130DOD     C198209  22.013   1.913  29.623  0.0132 -0.1535  0.0381
18130DOD     C298210  22.259   1.920  29.241 -0.0128  0.0687  0.0267
18130DOD     C398211  22.643   1.812  28.983 -0.0527  0.1955 -0.1111
18131DOD     C198212  26.438   9.347  26.368  0.1253 -0.1579 -0.0029
18131DOD     C298213  26.165   9.610  26.189  0.0107  0.0080  0.1207
18131DOD     C398214  25.862   9.792  25.854 -0.1334  0.2144 -0.0530
18132DOD     C198215   4.069   0.939  11.418 -0.5649 -0.1771 -0.2743
18132DOD     C298216   3.910   0.482  11.374 -0.0022 -0.2313  0.0918
18132DOD     C398217   3.646   0.098  11.304  0.1641  0.2377 -0.1316
18133DOD     C198218  28.152   3.705   0.949  0.2618 -0.1736  0.0983
18133DOD     C298219  27.793   3.509   0.725  0.0919 -0.0153  0.2403
18133DOD     C398220  27.904   3.150   0.429  0.2058  0.0679 -0.0929
18134DOD     C198221   6.833  28.080   8.630 -0.2374  0.0105  0.1031
18134DOD     C298222   6.395  28.030   8.782 -0.1971 -0.1462  0.2737
18134DOD     C398223   5.945  28.250   8.686 -0.1653  0.0577 -0.2830
18135DOD     C198224   4.340  16.748   3.373 -0.1608 -0.0088  0.1047
18135DOD     C298225   4.097  16.625   3.727  0.1343  0.0117 -0.0941
18135DOD     C398226   3.721  16.350   3.816 -0.0702 -0.0457  0.1895
18136DOD     C198227   1.202   3.241  13.122  0.0478  0.1067 -0.0404
18136DOD     C298228   1.560   3.035  12.871  0.0958 -0.0078 -0.4124
18136DOD     C398229   1.806   2.733  12.696 -0.1723 -0.0959  0.0421
18137DOD     C198230  13.578  10.288  17.710 -0.0435  0.0349 -0.0457
18137DOD     C298231  13.696  10.725  17.565 -0.1237 -0.0822 -0.1010
18137DOD     C398232  13.364  11.067  17.711  0.0353  0.1918 -0.0210
18138DOD     C198233  21.107  25.652  24.377 -0.0935  0.1954  0.2122
18138DOD     C298234  21.111  25.973  24.023 -0.5106  0.0539  0.2828
18138DOD     C398235  21.010  26.058  23.572 -0.3063 -0.1303  0.2075
18139DOD     C198236  14.046   2.997  23.215  0.1245  0.2254 -0.1964
18139DOD     C298237  14.447   2.981  23.346 -0.0654  0.0403  0.5249
18139DOD     C398238  14.724   3.316  23.269  0.1659  0.3530  0.0724
18140DOD     C198239  17.418   1.891  21.215 -0.0478 -0.0254  0.1318
18140DOD     C298240  17.301   2.271  20.978  0.0096  0.3805  0.3560
18140DOD     C398241  17.296   2.693  20.673  0.0190  0.0556 -0.0013
18141DOD     C198242  10.710  21.171  11.491  0.2162 -0.0577  0.1397
18141DOD     C298243  10.972  21.223  11.084  0.0228  0.1466  0.0609
18141DOD     C398244  11.265  21.148  10.741  0.1979 -0.0254 -0.0302
18142DOD     C198245  28.860  22.771   3.695  0.1340  0.0809 -0.0299
18142DOD     C298246  29.040  22.799   4.105  0.1108 -0.0507  0.3155
18142DOD     C398247  29.314  22.719   4.446 -0.2329  0.1824  0.0878
18143DOD     C198248  27.506   9.362  27.430 -0.1523  0.0961  0.3271
18143DOD     C298249  27.567   9.094  27.842 -0.0941 -0.3214 -0.0140
18143DOD     C398250  27.862   8.987  28.163  0.3492 -0.1642 -0.0272
18144DOD     C198251  27.208  28.484   3.298 -0.1062  0.1601 -0.0827
18144DOD     C298252  27.622  28.242   3.382  0.0654  0.1019 -0.2841
18144DOD     C398253  27.829  28.026   3.727 -0.3084  0.0004 -0.1709
18145DOD     C198254  27.487   6.939  12.657  0.1059  0.0511  0.3812
18145DOD     C298255  27.366   6.507  12.630  0.0102  0.2251  0.1279
18145DOD     C398256  27.041   6.195  12.722  0.0156 -0.0365 -0.1067
18146DOD     C198257   3.898  22.426  23.502 -0.1368  0.2590  0.0937
18146DOD     C298258   3.502  22.455  23.786 -0.2382 -0.1996 -0.0416
18146DOD     C398259   3.434  22.504  24.226  0.0011 -0.0225  0.2421
18147DOD     C198260   1.412   2.852  21.532  0.3894  0.2754  0.1618
18147DOD     C298261   1.116   3.230  21.542 -0.2512  0.0764 -0.0109
18147DOD     C398262   0.989   3.599  21.756  0.0002 -0.1709 -0.2200
18148DOD     C198263  11.701  14.563  23.226 -0.2448 -0.0643  0.1446
18148DOD     C298264  11.769  14.391  22.806  0.2907  0.2520 -0.0635
18148DOD     C398265  11.519  14.175  22.461  0.2230 -0.2770  0.3228
18149DOD     C198266  16.519  27.147  20.842  0.1318 -0.0636  0.1125
18149DOD     C298267  16.500  26.819  20.499 -0.0234  0.0963 -0.1676
18149DOD     C398268  16.412  26.491  20.249  0.1009 -0.4395 -0.0129
18150DOD     C198269   4.536   4.534  15.434  0.2759  0.1843  0.2466
18150DOD     C298270   4.747   4.944  15.456 -0.0189 -0.0836 -0.0231
18150DOD     C398271   4.770   5.424  15.263  0.3283 -0.1513 -0.1678
18151DOD     C198272  17.473   7.012  24.838  0.1841  0.1100  0.0630
18151DOD     C298273  17.388   7.073  24.374  0.0451 -0.1285 -0.4528
18151DOD     C398274  17.562   7.048  23.979  0.1391 -0.0477  0.1479
18152DOD     C198275  21.898   0.767   3.099  0.2003 -0.3429 -0.1278
18152DOD     C298276  22.031   1.143   2.824  0.0273  0.3593  0.2111
18152DOD     C398277  22.161   1.602   2.740 -0.0242 -0.1723  0.0991
18153DOD     C198278  26.780   0.287   8.648 -0.1934  0.1370 -0.0797
18153DOD     C298279  27.000   0.009   8.383 -0.2340  0.0088  0.0269
18153DOD     C398280  27.134  30.326   7.940 -0.1413  0.1284 -0.0427
18154DOD     C198281   9.728   1.500  18.783 -0.0302 -0.0143 -0.2638
18154DOD     C298282   9.557   1.108  18.632  0.0191  0.1928  0.1885
18154DOD     C398283   9.229   0.882  18.362  0.1027 -0.0036 -0.1699
18155DOD     C198284  21.195  29.574   9.085 -0.1619 -0.3790 -0.2173
18155DOD     C298285  21.243  29.205   8.863 -0.2888  0.2549 -0.0381
18155DOD     C398286  21.697  29.108   8.733  0.0092 -0.1887 -0.0759
18156DOD     C198287  19.046  24.197   6.886 -0.0434 -0.0988 -0.0819
18156DOD     C298288  19.274  24.254   7.254 -0.0255  0.3348  0.0502
18156DOD     C398289  19.698  24.181   7.450  0.0696 -0.1166  0.0016
18157DOD     C198290  11.900   2.270  28.290 -0.4437 -0.1015 -0.0491
18157DOD     C298291  11.867   2.156  28.763 -0.0569 -0.0508 -0.3869
18157DOD     C398292  12.025   2.011  29.206  0.1623 -0.2490 -0.1967
18158DOD     C198293  22.167  20.261  20.856 -0.1462  0.0776 -0.2086
18158DOD     C298294  22.003  20.456  20.487 -0.1207 -0.3254  0.0657
18158DOD     C398295  21.844  20.379  20.036 -0.0104 -0.0972 -0.2539
18159DOD     C198296  15.326   7.692  18.811 -0.4124  0.1680  0.1315
18159DOD     C298297  15.459   8.089  18.564 -0.1057 -0.0363 -0.0861
18159DOD     C398298  15.480   8.188  18.087 -0.0111  0.0046 -0.0235
18160DOD     C198299  30.099  19.597   3.250  0.4978  0.4620  0.0501
18160DOD     C298300  29.753  19.376   3.390 -0.0269 -0.0439  0.1615
18160DOD     C398301  29.452  19.333   3.740  0.0938 -0.2040  0.1016
18161DOD     C198302  19.470  16.248  14.297 -0.1098  0.0053  0.2098
18161DOD     C298303  19.546  15.839  14.289 -0.3537 -0.0571  0.1185
18161DOD     C398304  19.866  15.631  14.617 -0.5927 -0.0406  0.1678
18162DOD     C198305  25.525   7.877  18.124  0.1516  0.0872  0.0051
18162DOD     C298306  25.394   7.576  17.770 -0.2985  0.0480 -0.0139
18162DOD     C398307  25.177   7.512  17.277 -0.0198  0.4521  0.0399
18163DOD     C198308  20.153  26.253   4.611 -0.1218 -0.0169  0.1593
18163DOD     C298309  20.528  26.246   4.856 -0.2379  0.2410  0.1370
18163DOD     C398310  20.916  26.152   5.041  0.1857 -0.0221  0.1248
18164DOD     C198311   3.662  16.521   5.071 -0.1017  0.0716  0.0689
18164DOD     C298312   3.245  16.819   5.098 -0.1256 -0.1069  0.1169
18164DOD     C398313   2.902  17.152   5.217 -0.0552 -0.0097  0.1068
18165DOD     C198314   1.702   0.331   8.998 -0.1094  0.0175  0.0364
18165DOD     C298315   1.901  30.260   9.115  0.1155  0.0617  0.1227
18165DOD     C398316   2.354  30.224   9.309 -0.1616  0.0269  0.1142
18166DOD     C198317  10.696   2.888  23.487  0.1595  0.4473  0.0338
18166DOD     C298318  10.344   2.589  23.512  0.3565  0.0364 -0.4058
18166DOD     C398319  10.073   2.246  23.708 -0.1672  0.6474  0.1606
18167DOD     C198320  12.681  19.267  22.342 -0.1770 -0.2355  0.0297
18167DOD     C298321  12.740  18.823  22.135 -0.1319 -0.0526  0.3415
18167DOD     C398322  12.982  18.481  22.036 -0.1578  0.0807  0.1080
18168DOD     C198323  24.912  25.750  13.847 -0.1709  0.0648  0.2382
18168DOD     C298324  25.199  25.610  14.092 -0.0660  0.1442  0.0506
18168DOD     C398325  25.576  25.478  14.307  0.0258 -0.2747 -0.1228
18169DOD     C198326  29.103  27.890  18.636  0.0466 -0.1191  0.3978
18169DOD     C298327  29.484  27.608  18.717  0.1031 -0.2074 -0.0131
18169DOD     C398328  29.890  27.654  18.940  0.1328 -0.1685 -0.2166
18170DOD     C198329  12.305  22.275  17.181 -0.1312 -0.1333 -0.0804
18170DOD     C298330  11.962  22.162  16.894 -0.0546 -0.0287  0.1126
18170DOD     C398331  11.579  22.368  16.657  0.0921  0.2040  0.2572
18171DOD     C198332  13.998  22.247  19.643 -0.6096  0.1104  0.0092
18171DOD     C298333  14.077  21.996  19.214  0.1760  0.1605  0.1242
18171DOD     C398334  14.068  22.047  18.782 -0.0942  0.2746  0.3689
18172DOD     C198335  26.275   8.133  17.594 -0.0007  0.1559 -0.1783
18172DOD     C298336  25.949   8.360  17.358  0.0126 -0.0826 -0.0767
18172DOD     C398337  25.842   8.448  16.936 -0.2102  0.2540 -0.0947
18173DOD     C198338  29.405   1.294   7.856  0.1225  0.3813  0.2061
18173DOD     C298339  29.091   1.400   8.189  0.1219 -0.0377  0.3515
18173DOD     C398340  28.828   1.380   8.542  0.1731  0.0059 -0.3111
18174DOD     C198341   5.067  18.733  18.990 -0.0842  0.0640  0.0767
18174DOD     C298342   5.248  19.061  19.282 -0.0418  0.2551 -0.0412
18174DOD     C398343   5.268  19.467  19.538  0.0581 -0.1175  0.2603
18175DOD     C198344   5.965   5.207   1.794 -0.1240 -0.1552 -0.1965
18175DOD     C298345   5.668   5.502   1.586 -0.1103  0.2342  0.3285
18175DOD     C398346   5.389   5.921   1.561  0.0253  0.2045 -0.1033
18176DOD     C198347   6.378  10.889  28.199  0.1030 -0.0696 -0.1394
18176DOD     C298348   6.745  10.629  28.206  0.0615  0.1927 -0.0144
18176DOD     C398349   6.951  10.264  28.390  0.0046 -0.1186 -0.0208
18177DOD     C198350  24.998  24.749  13.809  0.0525  0.1386 -0.0899
18177DOD     C298351  25.401  24.728  13.587 -0.0451 -0.2436  0.0559
18177DOD     C398352  25.684  25.019  13.387  0.1851  0.1899 -0.3001
18178DOD     C198353  18.431  23.060  16.499  0.0019  0.0571  0.1690
18178DOD     C298354  17.997  23.113  16.402 -0.0337  0.0448 -0.0697
18178DOD     C398355  17.614  22.993  16.636 -0.1287 -0.0975 -0.1248
18179DOD     C198356   6.403  19.073  26.648 -0.1060 -0.2436  0.1700
18179DOD     C298357   6.054  18.803  26.478 -0.4472  0.1623 -0.1034
18179DOD     C398358   5.617  18.591  26.506  0.0359  0.1719 -0.1798
18180DOD     C198359  16.386  10.575  25.579 -0.1204  0.2468 -0.1420
18180DOD     C298360  16.609  10.265  25.839 -0.0309  0.3105 -0.1089
18180DOD     C398361  16.936   9.924  25.873  0.3189  0.0448 -0.0545
18181DOD     C198362  19.823  15.277  10.728  0.1206  0.0007  0.0126
18181DOD     C298363  20.264  15.173  10.816 -0.1793 -0.1049 -0.0476
18181DOD     C398364  20.715  15.282  10.980 -0.0506  0.0763  0.0321
18182DOD     C198365  11.435   5.909  14.554  0.1559 -0.1760  0.2247
18182DOD     C298366  11.715   5.903  14.168  0.2507 -0.0957  0.1759
18182DOD     C398367  12.138   5.852  13.939  0.0554  0.0653 -0.0315
18183DOD     C198368  10.057  21.901   2.251  0.2220  0.1381 -0.0363
18183DOD     C298369  10.279  22.350   2.357 -0.0522  0.0244 -0.0009
18183DOD     C398370  10.276  22.789   2.431 -0.1040  0.0282 -0.0923
18184DOD     C198371  15.976  10.182  17.323  0.2740  0.2752 -0.0143
18184DOD     C298372  16.405  10.224  17.166 -0.0553  0.0098 -0.1179
18184DOD     C398373  16.834  10.315  16.924  0.2007  0.2513 -0.0811
18185DOD     C198374   1.121  15.487  28.154 -0.1493  0.1523  0.4719
18185DOD     C298375   0.781  15.313  28.289  0.0049  0.3923  0.0381
18185DOD     C398376   0.603  15.080  28.566 -0.2762 -0.1191 -0.2677
18186DOD     C198377  12.024   8.664  29.021  0.0383  0.1271  0.0548
18186DOD     C298378  11.704   8.938  29.162  0.0121  0.3466  0.2614
18186DOD     C398379  11.242   8.911  29.068  0.1014 -0.2418 -0.0394
18187DOD     C198380  27.169  15.773  18.507  0.1544 -0.2750 -0.0996
18187DOD     C298381  27.290  15.508  18.144 -0.0376  0.0071  0.3382
18187DOD     C398382  27.517  15.080  18.041 -0.0769 -0.0988 -0.0094
18188DOD     C198383  12.333   4.989   1.454 -0.1068 -0.1341 -0.4487
18188DOD     C298384  12.716   4.763   1.669  0.1082 -0.0802  0.2021
18188DOD     C398385  13.126   4.573   1.497 -0.0387 -0.1657  0.1079
18189DOD     C198386  16.444  25.732  29.774 -0.1118 -0.4350  0.0880
18189DOD     C298387  16.362  25.426  29.435  0.1595 -0.2455 -0.2033
18189DOD     C398388  16.251  25.148  29.079  0.2591 -0.0694 -0.0794
18190DOD     C198389  19.785  16.914  20.858 -0.1852 -0.3002 -0.4225
18190DOD     C298390  19.591  17.213  20.542  0.2304 -0.0409 -0.0010
18190DOD     C398391  19.300  17.533  20.479  0.0405 -0.1909 -0.1935
18191DOD     C198392   3.575  14.677  15.437 -0.2984 -0.0459 -0.1420
18191DOD     C298393   3.348  14.950  15.167 -0.2112  0.0896  0.3157
18191DOD     C398394   3.347  15.211  14.776 -0.1676 -0.2125 -0.0019
18192DOD     C198395  17.168  12.974   8.482 -0.0549  0.3631  0.1273
18192DOD     C298396  16.985  13.315   8.245  0.0415 -0.1470  0.0103
18192DOD     C398397  16.934  13.551   7.853 -0.0607  0.0209 -0.1198
18193DOD     C198398  27.639  24.706  23.081  0.0813 -0.1446 -0.0153
18193DOD     C298399  27.388  24.427  22.767  0.0506 -0.0008 -0.0704
18193DOD     C398400  27.295  24.610  22.356  0.0913  0.1082  0.3999
18194DOD     C198401   0.099  15.089  20.209  0.0292 -0.3020 -0.0690
18194DOD     C298402  30.193  14.719  20.306 -0.0842  0.3381  0.0203
18194DOD     C398403  29.994  14.403  20.604  0.3384  0.1082 -0.1934
18195DOD     C198404  22.303  19.645  16.319  0.0182  0.0048  0.1660
18195DOD     C298405  22.643  19.911  16.484  0.0762 -0.0744  0.1653
18195DOD     C398406  22.714  20.129  16.952 -0.0364 -0.3281 -0.2062
18196DOD     C198407  12.208  12.944  16.552 -0.1473  0.1616 -0.0540
18196DOD     C298408  12.260  12.857  16.995 -0.0110  0.1758 -0.3009
18196DOD     C398409  12.545  13.068  17.302 -0.0592  0.1461  0.0306
18197DOD     C198410  19.420  26.811  21.850 -0.3051  0.1113 -0.2336
18197DOD     C298411  18.992  26.693  21.959  0.0472  0.4873  0.1735
18197DOD     C398412  18.548  26.570  21.999 -0.3387 -0.1858 -0.0821
18198DOD     C198413  16.473   7.125  18.888 -0.3420 -0.1972  0.1692
18198DOD     C298414  16.586   6.696  19.139 -0.3988 -0.0031  0.2712
18198DOD     C398415  16.317   6.518  19.423 -0.4693 -0.1566  0.0705
18199DOD     C198416   7.310  21.083  18.376  0.0615  0.2210  0.0127
18199DOD     C298417   7.374  20.868  18.005  0.1468 -0.0433  0.0076
18199DOD     C398418   7.502  20.507  17.711 -0.2851  0.1333 -0.2682
18200DOD     C198419   7.377   2.573   4.309 -0.0017 -0.2530 -0.0134
18200DOD     C298420   7.601   2.587   4.714 -0.3120 -0.2592 -0.1556
18200DOD     C398421   7.817   2.679   5.132 -0.0507 -0.0047  0.1287
18201DOD     C198422  29.877   1.424   3.295 -0.0227 -0.0609  0.2480
18201DOD     C298423  29.377   1.411   3.322 -0.1898 -0.1821  0.1246
18201DOD     C398424  28.949   1.612   3.282  0.0923  0.1881  0.0514
18202DOD     C198425  12.026   4.820  14.364  0.0369  0.2275 -0.2307
18202DOD     C298426  12.135   4.366  14.462  0.1715 -0.1699 -0.1633
18202DOD     C398427  11.940   3.917  14.595 -0.0159  0.0189 -0.0605
18203DOD     C198428   0.049  28.011  15.939  0.2103  0.0191 -0.0106
18203DOD     C298429   0.186  28.421  15.665  0.2100  0.0246 -0.2165
18203DOD     C398430   0.060  28.516  15.222 -0.3603 -0.1385  0.0632
18204DOD     C198431  15.822  15.165   5.188  0.1649  0.1291  0.2500
18204DOD     C298432  16.019  15.209   4.772  0.0863 -0.0018  0.1612
18204DOD     C398433  15.843  15.471   4.459  0.1930 -0.0662 -0.2556
18205DOD     C198434   6.164  25.596  25.022  0.1530  0.2818  0.0825
18205DOD     C298435   5.814  25.556  24.813 -0.0470  0.3586  0.0598
18205DOD     C398436   5.727  25.514  24.363 -0.0857 -0.0223 -0.1099
18206DOD     C198437   3.361   7.517  15.828  0.0053 -0.1656  0.2862
18206DOD     C298438   3.341   7.987  15.869  0.2450 -0.0928  0.2034
18206DOD     C398439   3.265   8.353  16.141 -0.2778 -0.2333  0.1154
18207DOD     C198440  16.791  29.645  25.570 -0.2606  0.0071 -0.1117
18207DOD     C298441  17.184  29.676  25.802 -0.1017  0.3533  0.1310
18207DOD     C398442  17.583  29.997  25.900 -0.1178  0.0676 -0.0509
18208DOD     C198443   7.246  14.813  19.951 -0.1068 -0.3618  0.1987
18208DOD     C298444   7.347  14.909  20.434 -0.1461 -0.3708  0.0421
18208DOD     C398445   7.515  14.715  20.799 -0.0867  0.0353 -0.0803
18209DOD     C198446  12.924  14.294  23.579  0.4446 -0.0495 -0.2323
18209DOD     C298447  13.060  14.305  24.053  0.0977 -0.1697 -0.2056
18209DOD     C398448  12.910  14.179  24.536 -0.2217  0.0769  0.1644
18210DOD     C198449  17.207   7.888  26.252 -0.0536  0.0834  0.1086
18210DOD     C298450  17.228   8.071  26.669 -0.2404 -0.0474 -0.2437
18210DOD     C398451  17.522   8.444  26.770 -0.1528  0.2915 -0.1575
18211DOD     C198452   1.904  28.127  23.279 -0.1468 -0.1074  0.2723
18211DOD     C298453   1.707  27.711  23.410 -0.1858 -0.0353  0.0190
18211DOD     C398454   1.474  27.501  23.730 -0.0752 -0.2892 -0.3203
18212DOD     C198455  29.685   6.824  14.273 -0.3316 -0.0903  0.0363
18212DOD     C298456  30.113   7.027  14.232 -0.2380  0.3477  0.0644
18212DOD     C398457   0.215   7.300  14.362  0.2790  0.4406 -0.1853
18213DOD     C198458  13.641  14.890  17.263 -0.1725 -0.1836  0.1738
18213DOD     C298459  13.999  15.177  17.134  0.0414  0.0191 -0.3699
18213DOD     C398460  14.234  15.541  16.837 -0.1572  0.1571  0.1077
18214DOD     C198461  29.203  23.142  24.145 -0.0424 -0.1057 -0.4756
18214DOD     C298462  28.953  23.392  24.484  0.1463  0.0687  0.2184
18214DOD     C398463  29.067  23.319  24.966 -0.2216 -0.0305  0.1613
18215DOD     C198464  29.410  24.505  27.741 -0.0582 -0.0157  0.1485
18215DOD     C298465  29.703  24.679  27.390  0.3509 -0.1507  0.2470
18215DOD     C398466  29.795  25.107  27.123 -0.0882  0.0108  0.0208
18216DOD     C198467  13.140  28.676  28.372  0.2587 -0.1123  0.0480
18216DOD     C298468  12.887  28.855  28.043 -0.0162 -0.0107 -0.0296
18216DOD     C398469  12.913  29.157  27.770 -0.1914  0.0783 -0.1333
18217DOD     C198470  10.522   4.076  22.083 -0.1595 -0.2278 -0.0162
18217DOD     C298471  10.539   3.938  21.603 -0.0278 -0.3797  0.0908
18217DOD     C398472  10.511   3.971  21.138  0.0771  0.1679  0.2242
18218DOD     C198473  26.752   2.581  26.270 -0.1179  0.0245  0.0674
18218DOD     C298474  26.955   2.559  25.822  0.2486  0.0984 -0.1197
18218DOD     C398475  26.964   2.750  25.371  0.0147  0.0641  0.1132
18219DOD     C198476  11.890   9.808   0.833  0.0354  0.2369 -0.1156
18219DOD     C298477  11.778   9.505   1.163  0.0839  0.3734  0.0315
18219DOD     C398478  12.012   9.327   1.532 -0.1672  0.2207 -0.1762
18220DOD     C198479  10.304  22.245  16.182  0.1210 -0.1401 -0.3980
18220DOD     C298480  10.748  22.322  16.310  0.4997 -0.1597  0.0154
18220DOD     C398481  11.128  22.542  16.423 -0.0715  0.2177  0.0343
18221DOD     C198482   9.734  13.681  10.433  0.0842 -0.4337 -0.2116
18221DOD     C298483   9.394  13.875  10.729  0.0001  0.3796 -0.1989
18221DOD     C398484   9.058  13.969  11.067  0.3204 -0.1517  0.0114
18222DOD     C198485   6.483   1.325  12.508 -0.0234 -0.0461  0.0724
18222DOD     C298486   6.373   1.543  12.083  0.0851 -0.1602 -0.1194
18222DOD     C398487   6.047   1.710  11.830  0.1515 -0.0904 -0.1980
18223DOD     C198488   8.755  26.253  15.654 -0.0508 -0.2043 -0.1860
18223DOD     C298489   9.213  26.378  15.508 -0.2078  0.1431 -0.1226
18223DOD     C398490   9.300  26.498  15.063  0.1605  0.2679 -0.0688
18224DOD     C198491  10.357  29.444  16.752 -0.0392  0.0562  0.1757
18224DOD     C298492  10.418  29.370  17.209  0.1552 -0.3064 -0.1550
18224DOD     C398493  10.419  29.381  17.704 -0.0900 -0.1521  0.0178
18225DOD     C198494  20.734  21.545  14.451 -0.1620 -0.2139  0.1042
18225DOD     C298495  21.005  21.544  14.807 -0.1019 -0.0957 -0.1377
18225DOD     C398496  21.433  21.450  14.825  0.2886 -0.1200 -0.1175
18226DOD     C198497  19.513  21.686  19.683 -0.1912 -0.1963 -0.1076
18226DOD     C298498  19.109  21.925  19.739  0.0213  0.0289  0.1922
18226DOD     C398499  18.657  22.135  19.602 -0.0539  0.1793  0.0260
18227DOD     C198500  10.993  27.095  12.428 -0.0427 -0.1054 -0.0525
18227DOD     C298501  10.721  27.035  12.137 -0.1860  0.0040  0.1939
18227DOD     C398502  10.352  26.752  12.196  0.0686  0.0818  0.1553
18228DOD     C198503  16.978   4.563   9.685 -0.2717 -0.1264 -0.0826
18228DOD     C298504  16.565   4.874   9.549  0.1556  0.0615 -0.4451
18228DOD     C398505  16.373   5.276   9.708  0.0915  0.4488  0.0241
18229DOD     C198506  11.918  24.544  24.378  0.1839 -0.0920  0.1917
18229DOD     C298507  11.642  24.275  24.691 -0.0160  0.1187  0.0684
18229DOD     C398508  11.636  23.908  25.043  0.0034 -0.1773  0.0995
18230DOD     C198509   3.323  21.158  23.362 -0.4782  0.1765 -0.1173
18230DOD     C298510   3.077  21.157  22.994 -0.0434  0.1305  0.1427
18230DOD     C398511   2.777  21.154  22.634  0.1397  0.1600  0.3403
18231DOD     C198512  18.235  21.050   3.377 -0.1294  0.2884 -0.0268
18231DOD     C298513  18.465  20.873   3.754  0.4314  0.1663  0.3322
18231DOD     C398514  18.545  20.943   4.171 -0.1303 -0.3562 -0.2364
18232DOD     C198515  26.461  12.733   9.662 -0.0332 -0.0345 -0.0153
18232DOD     C298516  26.107  12.968   9.594  0.0209 -0.2174  0.0515
18232DOD     C398517  25.803  13.341   9.567 -0.1109  0.2364 -0.2303
18233DOD     C198518   7.018  11.572  26.297  0.2271 -0.0872  0.0920
18233DOD     C298519   7.123  11.373  26.733  0.2518  0.0794  0.1262
18233DOD     C398520   7.197  10.910  26.861 -0.1904  0.0284 -0.1438
18234DOD     C198521  11.451   5.399  20.016 -0.3088 -0.0006 -0.0826
18234DOD     C298522  11.217   5.615  20.410  0.0976  0.1311 -0.1255
18234DOD     C398523  11.050   5.808  20.822  0.2616 -0.1186  0.1408
18235DOD     C198524  22.960  11.418   2.091 -0.2697 -0.2222  0.0955
18235DOD     C298525  23.168  11.055   1.812  0.0610  0.0659 -0.1701
18235DOD     C398526  23.063  10.750   1.433  0.1237  0.2505 -0.0094
18236DOD     C198527  20.346  17.788   1.450  0.0286 -0.1688  0.2834
18236DOD     C298528  20.262  17.451   1.719 -0.0911 -0.1703  0.0980
18236DOD     C398529  19.793  17.473   1.920  0.0012 -0.3061  0.0275
18237DOD     C198530  21.905   9.706  17.183  0.0502  0.1093  0.2577
18237DOD     C298531  22.301   9.893  17.440 -0.2760  0.1805  0.3634
18237DOD     C398532  22.670  10.081  17.284  0.1683  0.0612  0.1840
18238DOD     C198533   1.639  24.432   8.825  0.1093 -0.0855  0.3359
18238DOD     C298534   1.532  24.863   8.727  0.0148 -0.3349 -0.0652
18238DOD     C398535   1.476  25.332   8.601 -0.2203  0.3001  0.1052
18239DOD     C198536   2.169  15.497  18.023 -0.4259 -0.2095 -0.4678
18239DOD     C298537   2.224  15.950  17.858  0.3725 -0.0892 -0.1394
18239DOD     C398538   2.336  16.301  17.627 -0.0290 -0.0748  0.0865
18240DOD     C198539  28.223  12.991  22.633  0.0217  0.1483 -0.1311
18240DOD     C298540  28.389  13.216  22.249  0.1918  0.2158  0.2599
18240DOD     C398541  28.064  13.182  21.862  0.0600  0.1618 -0.2613
18241DOD     C198542  19.686   6.461  23.020  0.0123 -0.1785 -0.0233
18241DOD     C298543  19.604   6.679  23.466  0.1740 -0.0208  0.5616
18241DOD     C398544  19.932   6.659  23.850  0.3555 -0.0199  0.0375
18242DOD     C198545  16.425   9.571  23.983  0.1582  0.2236 -0.0802
18242DOD     C298546  16.648   9.307  23.645 -0.3193  0.2384 -0.0043
18242DOD     C398547  16.400   9.142  23.310 -0.2721  0.1204 -0.2503
18243DOD     C198548   2.340  28.845  20.455 -0.2101 -0.1976  0.2279
18243DOD     C298549   2.021  28.648  20.094 -0.4497 -0.0751 -0.1703
18243DOD     C398550   1.911  28.355  19.802 -0.3605 -0.1901 -0.1147
18244DOD     C198551  13.323   0.920  15.558  0.2042  0.2198  0.0176
18244DOD     C298552  13.097   1.301  15.580  0.3677 -0.0960  0.3583
18244DOD     C398553  12.699   1.508  15.422 -0.0762 -0.1232  0.2072
18245DOD     C198554  22.197  26.632  28.895  0.0434 -0.4215 -0.0240
18245DOD     C298555  21.964  26.710  28.496  0.0833 -0.1371  0.1076
18245DOD     C398556  21.802  26.442  28.203 -0.0722  0.2834 -0.2243
18246DOD     C198557  25.045  29.137  24.075  0.1654  0.0021  0.0281
18246DOD     C298558  24.908  28.779  24.372 -0.0432  0.0160 -0.1032
18246DOD     C398559  24.646  28.473  24.645  0.2702 -0.0206 -0.1758
18247DOD     C198560  25.768  26.740  19.338 -0.1118 -0.0873 -0.0312
18247DOD     C298561  25.604  27.066  19.658  0.0891  0.0888  0.0595
18247DOD     C398562  25.358  27.296  19.947 -0.1015  0.1174  0.2415
18248DOD     C198563  25.385   3.152   3.923  0.3863 -0.1650 -0.1182
18248DOD     C298564  25.129   3.227   3.499 -0.0370  0.1003  0.2392
18248DOD     C398565  24.827   3.410   3.188 -0.0589 -0.0978  0.2262
18249DOD     C198566  26.680  22.247   4.303 -0.2152 -0.2401 -0.1790
18249DOD     C298567  26.755  21.808   4.222  0.3972 -0.0045 -0.0766
18249DOD     C398568  26.772  21.647   3.835 -0.1701 -0.2260  0.1755
18250DOD     C198569  25.049  18.991  10.314  0.1118 -0.0239 -0.0747
18250DOD     C298570  25.070  19.189  10.737 -0.0233 -0.1094  0.2804
18250DOD     C398571  24.959  19.174  11.187  0.0997  0.1611  0.2740
18251DOD     C198572  21.821  27.408  28.126 -0.0521 -0.2326 -0.2358
18251DOD     C298573  21.608  27.208  27.754 -0.1512 -0.0397  0.2862
18251DOD     C398574  21.370  27.079  27.389 -0.1347 -0.1968  0.1481
18252DOD     C198575  27.685   6.268  27.861 -0.0321 -0.0307 -0.1318
18252DOD     C298576  27.490   6.029  27.487  0.0194  0.0743 -0.0894
18252DOD     C398577  27.196   5.728  27.337 -0.1783  0.1498  0.0357
18253DOD     C198578  16.777  22.202  16.286 -0.3018  0.1843 -0.1715
18253DOD     C298579  16.658  21.919  16.678 -0.2873 -0.1914  0.0301
18253DOD     C398580  16.533  22.094  17.122  0.1262  0.1614 -0.1122
18254DOD     C198581  25.047  25.418   1.251 -0.0202 -0.2900 -0.1408
18254DOD     C298582  25.495  25.536   1.191  0.3133 -0.2406 -0.0602
18254DOD     C398583  25.909  25.665   1.353 -0.2390  0.0398  0.0412
18255DOD     C198584  22.620  11.114   5.592  0.2075 -0.3787 -0.2397
18255DOD     C298585  22.313  11.070   5.220  0.3923 -0.0275  0.0599
18255DOD     C398586  22.211  11.360   4.903 -0.0785 -0.2314  0.2279
18256DOD     C198587  25.512  27.785  23.175  0.0796  0.1551  0.3985
18256DOD     C298588  25.323  28.257  23.064 -0.0922  0.0994  0.2258
18256DOD     C398589  25.340  28.706  23.050 -0.1352  0.3665  0.1543
18257DOD     C198590   9.297  21.557  23.795  0.0234 -0.1264  0.0047
18257DOD     C298591   9.552  21.104  23.791 -0.1358 -0.1160  0.1169
18257DOD     C398592   9.969  21.104  23.603  0.2263 -0.1280 -0.3826
18258DOD     C198593  14.890  13.258   8.292 -0.0942 -0.1967  0.3273
18258DOD     C298594  15.182  13.444   8.584 -0.0092 -0.1405  0.2599
18258DOD     C398595  15.109  13.894   8.780  0.2960 -0.0163 -0.3709
18259DOD     C198596  21.293  22.705   4.741  0.1097  0.1940  0.1804
18259DOD     C298597  21.085  22.407   4.976 -0.1194 -0.0309 -0.2694
18259DOD     C398598  20.945  22.530   5.398 -0.0186 -0.0406 -0.2062
18260DOD     C198599  15.804  20.575   2.987  0.1252  0.1955 -0.1863
18260DOD     C298600  15.775  20.249   2.641 -0.0387 -0.0687  0.0296
18260DOD     C398601  15.761  19.752   2.702  0.1616  0.1703 -0.0122
18261DOD     C198602   1.614  17.475   0.329 -0.0434  0.2826  0.1191
18261DOD     C298603   1.629  17.392  30.205  0.2691 -0.0679 -0.0834
18261DOD     C398604   1.377  17.280  29.836 -0.2415  0.0928  0.0791
18262DOD     C198605  15.076   3.490  10.268  0.0104 -0.0505  0.1860
18262DOD     C298606  14.855   3.891  10.284  0.0210 -0.0354 -0.1928
18262DOD     C398607  14.403   4.013  10.253  0.1172 -0.2682 -0.0539
18263DOD     C198608  15.272  18.336   7.612 -0.1258 -0.0962 -0.1763
18263DOD     C298609  15.026  18.079   7.253  0.0068 -0.1830 -0.0080
18263DOD     C398610  15.017  17.831   6.872 -0.1415  0.0651 -0.0093
18264DOD     C198611  20.211   2.785  21.145 -0.0707  0.0768  0.0775
18264DOD     C298612  19.803   2.615  21.167  0.1152  0.0577 -0.1287
18264DOD     C398613  19.415   2.404  21.195  0.0421  0.0810 -0.0004
18265DOD     C198614  29.078  25.991   2.749 -0.3623  0.2162  0.1246
18265DOD     C298615  29.191  26.406   2.969 -0.0253 -0.0711  0.0348
18265DOD     C398616  29.104  26.486   3.458  0.2785 -0.2629 -0.0705
18266DOD     C198617   1.466   6.536   9.057 -0.1843  0.4794  0.1642
18266DOD     C298618   1.763   6.518   9.421 -0.2138  0.0660 -0.1455
18266DOD     C398619   1.791   6.452   9.881  0.1799  0.0366  0.0510
18267DOD     C198620  22.770   2.614  11.015 -0.0947  0.3154 -0.2058
18267DOD     C298621  22.346   2.644  10.771 -0.0680  0.2298 -0.1545
18267DOD     C398622  22.196   2.734  10.364 -0.1856  0.0615 -0.0961
18268DOD     C198623  10.156   8.099  14.226  0.1709 -0.0141 -0.1244
18268DOD     C298624   9.853   7.751  14.350  0.2348  0.0338 -0.1719
18268DOD     C398625   9.857   7.316  14.111  0.2507 -0.0073 -0.1891
18269DOD     C198626   5.925  27.031  18.966  0.1477  0.1796  0.0615
18269DOD     C298627   5.738  26.682  18.740 -0.0359  0.3246  0.1020
18269DOD     C398628   5.756  26.479  18.308  0.0849  0.0260  0.2284
18270DOD     C198629  18.223  11.544  24.186  0.0713 -0.0563 -0.1505
18270DOD     C298630  18.542  11.206  24.192  0.1250 -0.0759  0.1610
18270DOD     C398631  18.507  10.755  24.158 -0.0749 -0.2318  0.3569
18271DOD     C198632  24.137  22.064  16.845 -0.0715  0.0443  0.0900
18271DOD     C298633  24.286  22.516  16.887 -0.1227 -0.4153  0.2935
18271DOD     C398634  24.425  22.838  16.604  0.1389 -0.1164 -0.2589
18272DOD     C198635   2.697  20.801  20.455  0.1222 -0.3757  0.1479
18272DOD     C298636   2.744  20.684  20.012  0.0313  0.0108  0.2522
18272DOD     C398637   3.049  20.364  19.830 -0.0064  0.2533 -0.1252
18273DOD     C198638   6.969  20.555  25.180 -0.0138 -0.0742 -0.2344
18273DOD     C298639   7.294  20.802  25.451 -0.0415 -0.0434  0.0056
18273DOD     C398640   7.481  20.957  25.829 -0.0214 -0.2558 -0.1356
18274DOD     C198641   0.225  11.248  11.264  0.0758 -0.2748 -0.3158
18274DOD     C298642   0.259  11.463  11.679 -0.2386 -0.2283  0.3185
18274DOD     C398643   0.173  11.473  12.138  0.0781 -0.1692 -0.3011
18275DOD     C198644  14.576  12.752   1.694 -0.1843 -0.0593  0.2122
18275DOD     C298645  14.768  12.651   1.270 -0.0181 -0.2811 -0.0987
18275DOD     C398646  15.180  12.776   1.035 -0.2248  0.3048  0.2033
18276DOD     C198647  19.098  23.059  14.754 -0.0562 -0.0279 -0.1905
18276DOD     C298648  18.698  23.251  14.590 -0.0783 -0.2031 -0.3314
18276DOD     C398649  18.471  23.195  14.175 -0.2293 -0.2102  0.0263
18277DOD     C198650   5.280  29.876  19.541 -0.0932 -0.0587 -0.1530
18277DOD     C298651   5.563  29.579  19.401  0.4770  0.0105 -0.0907
18277DOD     C398652   5.989  29.461  19.494  0.1153  0.1233 -0.0332
18278DOD     C198653   6.854   7.444  17.285 -0.0297  0.0824  0.4473
18278DOD     C298654   7.022   7.487  16.801 -0.0477 -0.1838 -0.0145
18278DOD     C398655   7.257   7.442  16.367 -0.1938 -0.0179  0.0749
18279DOD     C198656  27.034   8.418  28.399 -0.2414  0.1162 -0.1281
18279DOD     C298657  26.594   8.448  28.145 -0.2468 -0.0320  0.1193
18279DOD     C398658  26.280   8.766  28.083 -0.2001 -0.0577 -0.0340
18280DOD     C198659  18.000   1.193  28.454  0.3550 -0.0816 -0.1903
18280DOD     C298660  18.301   0.936  28.240 -0.2777 -0.0558 -0.0275
18280DOD     C398661  18.453   0.963  27.759 -0.0758  0.1111 -0.1895
18281DOD     C198662  18.452  25.237  24.876  0.0493 -0.1510  0.2598
18281DOD     C298663  18.749  24.957  25.134  0.2662 -0.2686 -0.1708
18281DOD     C398664  19.015  24.940  25.495 -0.0622 -0.0609 -0.0322
18282DOD     C198665  12.476   0.774  25.565  0.0536 -0.0203  0.0264
18282DOD     C298666  12.235   0.855  25.952 -0.0468 -0.1147 -0.1313
18282DOD     C398667  12.263   1.106  26.325  0.0830  0.1926 -0.1141
18283DOD     C198668   5.169  20.178  26.517  0.0526  0.0456  0.0955
18283DOD     C298669   5.124  19.831  26.855 -0.1842  0.1185 -0.2393
18283DOD     C398670   5.165  19.511  27.224  0.0987 -0.0936 -0.0046
18284DOD     C198671   9.211   4.251  26.722 -0.2112  0.0966 -0.0684
18284DOD     C298672   8.903   4.043  26.449 -0.1467 -0.1546 -0.1100
18284DOD     C398673   8.587   3.883  26.177  0.0007 -0.1595  0.0861
18285DOD     C198674  24.158  24.648   0.033 -0.1234  0.0025  0.0212
18285DOD     C298675  24.623  24.618   0.037  0.1695 -0.0612 -0.3097
18285DOD     C398676  24.959  24.511   0.335  0.4067 -0.2088 -0.1698
18286DOD     C198677  29.733  20.812   4.323  0.1324  0.1734 -0.0345
18286DOD     C298678  30.143  20.929   4.237  0.1704  0.2085 -0.1939
18286DOD     C398679   0.172  21.168   4.122  0.0954 -0.4434 -0.1783
18287DOD     C198680  14.825  27.664  23.611 -0.2094  0.3863  0.0758
18287DOD     C298681  15.226  27.418  23.582  0.2927 -0.1134 -0.1863
18287DOD     C398682  15.403  27.211  23.238 -0.0133 -0.0392 -0.1002
18288DOD     C198683  10.010  18.881  25.523  0.0612  0.0363  0.1729
18288DOD     C298684   9.947  18.720  25.086  0.3343  0.1992  0.0940
18288DOD     C398685  10.109  18.316  24.840  0.0924  0.3692 -0.2769
18289DOD     C198686   6.628   9.417   3.708 -0.2468 -0.0222 -0.1151
18289DOD     C298687   7.049   9.332   3.515 -0.1289  0.3173 -0.0835
18289DOD     C398688   7.477   9.431   3.534 -0.0488  0.1812 -0.1419
18290DOD     C198689   5.716   1.647  27.019  0.0713  0.0780  0.0401
18290DOD     C298690   5.839   2.049  27.046  0.1002  0.1104 -0.0924
18290DOD     C398691   6.060   2.318  26.826 -0.3666 -0.3117  0.0240
18291DOD     C198692   1.626  17.236  29.110 -0.4511  0.0067  0.0099
18291DOD     C298693   1.761  17.462  29.459 -0.1319  0.1586  0.2984
18291DOD     C398694   1.917  17.796  29.707  0.2171  0.0978  0.0474
18292DOD     C198695  16.151  20.073  27.928 -0.0516 -0.2527  0.3041
18292DOD     C298696  16.082  20.113  27.488  0.1556 -0.0159 -0.2593
18292DOD     C398697  15.714  20.018  27.207 -0.2273 -0.1112  0.0933
18293DOD     C198698  24.183  15.137  28.406 -0.1320  0.0332  0.1844
18293DOD     C298699  24.282  14.980  28.836 -0.0771  0.2197  0.0515
18293DOD     C398700  24.710  14.874  29.034 -0.1366  0.2263  0.0147
18294DOD     C198701  19.779  27.185  15.926 -0.2163 -0.0306 -0.0434
18294DOD     C298702  19.286  27.147  15.921 -0.1981 -0.0436 -0.2921
18294DOD     C398703  18.877  27.137  15.635 -0.0942 -0.0052 -0.1329
18295DOD     C198704  22.169  18.561  11.902 -0.1476 -0.3612 -0.2053
18295DOD     C298705  22.305  18.817  12.250  0.1558 -0.1000  0.0193
18295DOD     C398706  22.720  18.871  12.370  0.0179 -0.1207  0.1643
18296DOD     C198707   0.385  22.235   9.822  0.0954  0.2336 -0.2167
18296DOD     C298708   0.103  22.606   9.905  0.0986 -0.0322  0.0470
18296DOD     C398709  29.996  22.729  10.091 -0.0402 -0.3122  0.1627
18297DOD     C198710  10.165  22.867  24.227 -0.1138  0.0379 -0.0506
18297DOD     C298711  10.178  23.277  24.059 -0.1602  0.2082  0.1188
18297DOD     C398712  10.446  23.455  23.764  0.0743 -0.4641  0.1746
18298DOD     C198713  10.467   1.111   4.447 -0.3070  0.0614 -0.1778
18298DOD     C298714  10.031   1.024   4.616 -0.3215  0.0835  0.0453
18298DOD     C398715   9.620   1.176   4.659 -0.1282  0.0906 -0.1408
18299DOD     C198716  26.552   2.265  12.689 -0.0792 -0.0757 -0.3969
18299DOD     C298717  26.435   1.919  12.992  0.1391 -0.1802  0.0320
18299DOD     C398718  26.151   1.576  13.159 -0.0716 -0.1204 -0.0213
18300DOD     C198719  19.152  19.192   3.842 -0.1084 -0.0618  0.0000
18300DOD     C298720  18.945  19.087   4.264 -0.0081  0.2043  0.3908
18300DOD     C398721  18.437  19.063   4.303  0.0576  0.0861 -0.1170
18301DOD     C198722  10.882  13.862  14.785 -0.1026  0.1901  0.3189
18301DOD     C298723  11.345  13.794  14.688 -0.0264  0.0439 -0.0928
18301DOD     C398724  11.749  13.780  14.493 -0.1580 -0.5185  0.2262
18302DOD     C198725  10.682  14.222  25.314  0.2222 -0.0322 -0.3447
18302DOD     C298726  10.720  13.792  25.169  0.0320 -0.1863 -0.1669
18302DOD     C398727  10.921  13.384  25.288 -0.3391 -0.1430  0.1539
18303DOD     C198728   1.434  15.931   4.917  0.1173  0.0821 -0.0233
18303DOD     C298729   0.976  16.005   4.855 -0.0587  0.0431 -0.2406
18303DOD     C398730   0.729  16.076   5.216 -0.1344 -0.4237  0.0876
18304DOD     C198731  26.213  -0.050  19.260  0.2122 -0.3022  0.0792
18304DOD     C298732  25.977  30.309  19.670  0.2182 -0.0596  0.0779
18304DOD     C398733  25.652   0.213  19.860 -0.4395 -0.5121 -0.4108
18305DOD     C198734  19.514   0.862   9.618 -0.0038  0.1858 -0.2679
18305DOD     C298735  19.693   1.143   9.905 -0.0392 -0.0988 -0.3095
18305DOD     C398736  19.752   1.607  10.081 -0.1307  0.1408  0.0775
18306DOD     C198737  17.552  12.999   6.232  0.2157  0.1244 -0.0594
18306DOD     C298738  17.872  13.215   6.412 -0.1168 -0.2618 -0.0065
18306DOD     C398739  18.171  13.591   6.396  0.3325 -0.5656 -0.0000
18307DOD     C198740   9.538  14.835   4.792  0.1201 -0.2061  0.3892
18307DOD     C298741   9.159  14.593   4.763  0.0616 -0.2690  0.2697
18307DOD     C398742   8.934  14.239   4.626 -0.1638  0.0423  0.2760
18308DOD     C198743   5.502   4.606  12.384 -0.1348  0.1032 -0.4811
18308DOD     C298744   5.749   4.273  12.346  0.1783 -0.0948  0.2074
18308DOD     C398745   6.234   4.270  12.281  0.3577 -0.4607 -0.0881
18309DOD     C198746   9.311   0.393   6.199  0.3421 -0.2272  0.2477
18309DOD     C298747   9.048   0.212   6.522  0.0509  0.1396  0.1956
18309DOD     C398748   8.958   0.440   6.962 -0.3284 -0.1566 -0.4067
18310DOD     C198749   9.651  21.746  29.885 -0.1621  0.1590  0.2210
18310DOD     C298750   9.678  21.826   0.009 -0.2563 -0.2317  0.1242
18310DOD     C398751   9.572  21.698   0.449 -0.0834 -0.0963 -0.1556
18311DOD     C198752  26.977  29.808  26.235  0.0206  0.1387 -0.1205
18311DOD     C298753  27.353  30.143  26.327  0.0838 -0.3053  0.3469
18311DOD     C398754  27.728   0.102  26.436 -0.1569 -0.2046  0.2437
18312DOD     C198755   6.383  13.917  13.259  0.1506 -0.3378  0.1326
18312DOD     C298756   6.754  13.688  13.249 -0.0317 -0.3136  0.0328
18312DOD     C398757   7.094  13.810  12.984 -0.0138  0.3814 -0.0759
18313DOD     C198758   7.326   3.248   0.937  0.2654 -0.0111  0.1826
18313DOD     C298759   7.276   3.069   0.505  0.0018 -0.0436  0.4041
18313DOD     C398760   6.995   3.056   0.105  0.1452 -0.2074  0.0143
18314DOD     C198761   2.399   2.706  17.696  0.0245 -0.0745  0.2472
18314DOD     C298762   2.022   2.469  17.980  0.1458  0.3126  0.0311
18314DOD     C398763   1.816   2.183  18.278  0.0865 -0.0548 -0.2950
18315DOD     C198764  13.025  11.682   5.239 -0.5084 -0.1982  0.1741
18315DOD     C298765  13.153  11.676   4.824 -0.0692 -0.0291  0.1464
18315DOD     C398766  13.499  11.793   4.530 -0.0766  0.0952  0.0361
18316DOD     C198767   2.586  29.344  19.972  0.1354 -0.1393  0.0416
18316DOD     C298768   2.947  29.001  19.997 -0.1400 -0.1701  0.2569
18316DOD     C398769   3.275  28.632  20.052  0.2549  0.2229  0.1839
18317DOD     C198770  20.659  20.416   8.433  0.2201  0.0333 -0.1825
18317DOD     C298771  20.477  20.038   8.479  0.0032  0.2011 -0.2375
18317DOD     C398772  20.035  19.827   8.570 -0.0437 -0.3114 -0.2622
18318DOD     C198773   5.533   1.721  22.298  0.3103  0.0687 -0.2209
18318DOD     C298774   5.761   1.311  22.523  0.0290  0.0234 -0.2162
18318DOD     C398775   6.046   1.230  22.915 -0.1527  0.0680 -0.1086
18319DOD     C198776  23.440   1.835  18.703  0.1009  0.0231 -0.2289
18319DOD     C298777  23.918   1.898  18.707  0.3222 -0.1329  0.1139
18319DOD     C398778  24.373   1.888  18.873 -0.1486  0.2235 -0.2250
18320DOD     C198779  18.302  11.960  11.114 -0.1829 -0.0231  0.0889
18320DOD     C298780  18.003  11.643  11.106 -0.1339 -0.3622 -0.0881
18320DOD     C398781  17.635  11.377  11.230  0.1657  0.2285 -0.0155
18321DOD     C198782  16.437  14.135   2.325  0.1535 -0.3468 -0.0676
18321DOD     C298783  16.116  13.848   2.267  0.1426 -0.4115  0.0660
18321DOD     C398784  15.713  13.816   1.993  0.1070 -0.0046  0.1625
18322DOD     C198785  19.727  13.867   7.098 -0.3169  0.0794  0.1243
18322DOD     C298786  19.385  13.589   7.229 -0.0995  0.0292  0.3096
18322DOD     C398787  19.186  13.240   7.427 -0.1576 -0.1411  0.1631
18323DOD     C198788  26.784   4.205  22.658  0.3228  0.0863  0.0625
18323DOD     C298789  27.102   4.307  22.967 -0.2655 -0.1026  0.1033
18323DOD     C398790  27.385   4.049  23.264 -0.0743  0.0885 -0.1470
18324DOD     C198791  12.017   4.554   7.943 -0.0608 -0.2901  0.1277
18324DOD     C298792  12.328   4.221   7.894  0.0236 -0.0144  0.0548
18324DOD     C398793  12.532   3.949   7.567  0.1789 -0.1424 -0.1829
18325DOD     C198794   7.478  14.296   1.080  0.0882 -0.0701 -0.0888
18325DOD     C298795   7.149  14.053   0.814  0.0583 -0.1252 -0.0636
18325DOD     C398796   6.973  14.042   0.356 -0.0043  0.0196 -0.0947
18326DOD     C198797  21.396   3.599  16.389  0.0543  0.0315 -0.5586
18326DOD     C298798  21.065   3.437  16.121  0.1249 -0.0986 -0.2437
18326DOD     C398799  20.654   3.329  15.954 -0.0386  0.2678  0.1820
18327DOD     C198800  23.275  19.810  10.410  0.2306  0.3747 -0.0817
18327DOD     C298801  23.363  19.421  10.616  0.1842  0.0205  0.1523
18327DOD     C398802  23.619  19.026  10.666 -0.0025 -0.1181 -0.3580
18328DOD     C198803  21.602  18.525  17.861 -0.0337  0.3400 -0.3525
18328DOD     C298804  21.564  18.795  18.217  0.1204 -0.1885  0.0792
18328DOD     C398805  21.722  19.258  18.231 -0.2748  0.3236  0.0041
18329DOD     C198806  14.842   4.157  19.451 -0.1152  0.2162 -0.0208
18329DOD     C298807  14.385   4.196  19.439 -0.1228  0.2045  0.1819
18329DOD     C398808  13.981   4.392  19.506  0.1872  0.0449 -0.0031
18330DOD     C198809  25.114   1.098  17.974  0.0856 -0.1217 -0.2155
18330DOD     C298810  25.201   1.410  18.318 -0.3179 -0.0543  0.0581
18330DOD     C398811  25.572   1.438  18.584  0.1840  0.0502 -0.0460
18331DOD     C198812  22.655  18.325  27.161  0.1363 -0.1100 -0.0914
18331DOD     C298813  22.582  17.930  26.979 -0.0126 -0.3274  0.3856
18331DOD     C398814  22.196  17.739  26.788  0.2068 -0.1654  0.2214
18332DOD     C198815  18.680  21.927  28.752  0.0769 -0.0605  0.0372
18332DOD     C298816  18.194  21.954  28.763 -0.1525 -0.0341  0.2496
18332DOD     C398817  17.751  22.012  28.680  0.2731  0.1354 -0.1791
18333DOD     C198818  14.630  14.491  11.967  0.0539  0.2499  0.0313
18333DOD     C298819  14.787  14.681  11.638  0.0651  0.0582 -0.0107
18333DOD     C398820  14.608  14.960  11.316  0.4504  0.0722  0.0782
18334DOD     C198821   8.728  26.943   7.355  0.1804  0.0314 -0.1021
18334DOD     C298822   9.143  27.088   7.328  0.3880  0.0210 -0.1114
18334DOD     C398823   9.182  27.498   7.456  0.0604 -0.0724  0.2523
18335DOD     C198824  26.662  13.213  22.830 -0.0918 -0.1232 -0.0200
18335DOD     C298825  26.757  13.135  23.296 -0.1205 -0.0962 -0.0456
18335DOD     C398826  26.916  13.089  23.711  0.0631 -0.1718 -0.1508
18336DOD     C198827  23.006  27.092   9.987  0.0545  0.2170  0.1051
18336DOD     C298828  22.644  26.859  10.170  0.4155  0.0370 -0.0780
18336DOD     C398829  22.192  26.951  10.343 -0.1710 -0.0122 -0.2283
18337DOD     C198830  17.228   5.493  13.845 -0.0431 -0.1538  0.2300
18337DOD     C298831  17.503   5.223  13.613  0.2805  0.1646  0.1669
18337DOD     C398832  17.860   5.032  13.318 -0.1140  0.2429  0.1393
18338DOD     C198833   8.109  25.492   5.353 -0.0789 -0.1293  0.0250
18338DOD     C298834   8.036  25.269   5.727 -0.1116 -0.1043 -0.2184
18338DOD     C398835   7.672  25.227   5.992  0.0999 -0.0312 -0.1945
18339DOD     C198836  29.495   4.498   5.507 -0.0709  0.0841  0.0005
18339DOD     C298837  29.491   4.054   5.297 -0.0480 -0.1566  0.1933
18339DOD     C398838  29.597   3.912   4.846 -0.0178 -0.1294 -0.0643
18340DOD     C198839   5.296  19.224  28.943  0.0099 -0.2253  0.2339
18340DOD     C298840   5.279  19.485  28.553 -0.1840 -0.3391  0.1742
18340DOD     C398841   5.163  19.655  28.121  0.1689 -0.0119 -0.2364
18341DOD     C198842  22.472   0.806  24.237  0.0479 -0.0787 -0.0410
18341DOD     C298843  22.353   0.319  24.328 -0.0502  0.0290 -0.3537
18341DOD     C398844  22.348  30.216  24.502 -0.1060  0.3824  0.0002
18342DOD     C198845  21.012  15.479   3.570  0.1432  0.2930 -0.3214
18342DOD     C298846  20.758  15.290   3.196 -0.2529  0.2561 -0.3798
18342DOD     C398847  20.652  15.208   2.730 -0.1080 -0.1076 -0.2722
18343DOD     C198848  26.692   0.277  24.463 -0.0571 -0.1216 -0.1338
18343DOD     C298849  26.706   0.150  24.029  0.1634 -0.2921 -0.2819
18343DOD     C398850  26.639  30.076  23.762  0.2329  0.0079 -0.0482
18344DOD     C198851   5.636  17.638  14.706  0.0180 -0.1396  0.3571
18344DOD     C298852   6.030  17.448  14.822  0.1409 -0.1008 -0.0234
18344DOD     C398853   6.424  17.339  14.992 -0.0476  0.1145  0.1512
18345DOD     C198854   9.341   7.738  26.669  0.1299 -0.1316  0.2339
18345DOD     C298855   9.198   7.337  26.648 -0.1432  0.4989  0.0181
18345DOD     C398856   9.149   6.958  26.401  0.0260  0.1906  0.1497
18346DOD     C198857  27.712  18.731  28.383 -0.0845 -0.0302 -0.1450
18346DOD     C298858  27.265  18.538  28.389  0.1296 -0.3049 -0.0931
18346DOD     C398859  26.866  18.296  28.262  0.0403 -0.3139 -0.1899
18347DOD     C198860  24.693  11.146   4.607  0.1124  0.0600 -0.1393
18347DOD     C298861  24.708  11.590   4.405  0.4346 -0.0491  0.0356
18347DOD     C398862  24.720  12.017   4.672  0.0315  0.4168  0.1185
18348DOD     C198863   3.598  15.767  12.961 -0.0546  0.3412  0.2873
18348DOD     C298864   3.602  15.668  13.425  0.1881  0.3613 -0.1027
18348DOD     C398865   3.425  15.894  13.804  0.0752  0.4162  0.1530
18349DOD     C198866  14.731  20.740  28.175 -0.1658 -0.1209 -0.0577
18349DOD     C298867  14.671  21.055  27.869 -0.0380  0.0355 -0.0040
18349DOD     C398868  14.830  21.349  27.605 -0.1410 -0.3329  0.1454
18350DOD     C198869  16.722  21.682   7.075 -0.0151  0.2044  0.1504
18350DOD     C298870  16.606  21.429   6.730 -0.0595 -0.0330  0.0877
18350DOD     C398871  16.789  21.422   6.330  0.0397 -0.2163  0.0031
18351DOD     C198872  17.578   7.467  10.549  0.1319  0.1691 -0.1052
18351DOD     C298873  17.939   7.774  10.519  0.1817  0.2487 -0.1957
18351DOD     C398874  18.123   7.930  10.136 -0.2441 -0.2588  0.3073
18352DOD     C198875   7.674  16.551  21.910 -0.0894 -0.2574 -0.0262
18352DOD     C298876   7.722  16.274  22.218  0.1690  0.3238 -0.1424
18352DOD     C398877   7.648  16.389  22.687 -0.3293  0.0521 -0.0537
18353DOD     C198878  28.647   0.305  22.202  0.1113 -0.3211  0.1327
18353DOD     C298879  28.307   0.631  22.327 -0.4302  0.2550 -0.1043
18353DOD     C398880  27.874   0.656  22.644  0.1466  0.0676  0.1680
18354DOD     C198881  28.716   2.894  24.862  0.1159  0.3230  0.2527
18354DOD     C298882  29.030   2.886  25.218  0.0422  0.2649 -0.2181
18354DOD     C398883  29.399   2.702  25.519 -0.0915  0.0477  0.0682
18355DOD     C198884   8.014   6.763   9.326  0.0668  0.1213  0.3149
18355DOD     C298885   7.874   7.185   9.314 -0.2941 -0.1516 -0.0960
18355DOD     C398886   7.974   7.656   9.425 -0.0589  0.0688 -0.1314
18356DOD     C198887  14.478  18.102  28.465  0.3228  0.1884  0.1683
18356DOD     C298888  14.462  18.311  27.990  0.0256 -0.0326  0.1300
18356DOD     C398889  14.533  18.727  27.717  0.0232  0.1754 -0.0989
18357DOD     C198890  30.054   6.119  15.474 -0.3680  0.0672 -0.0500
18357DOD     C298891   0.171   5.981  15.466  0.0416 -0.3846  0.0724
18357DOD     C398892   0.444   5.678  15.616 -0.0387  0.1789 -0.0332
18358DOD     C198893   0.832  21.671  15.712  0.4608  0.0580  0.3204
18358DOD     C298894   1.097  21.542  15.379 -0.2489  0.3788 -0.0714
18358DOD     C398895   1.538  21.337  15.244  0.1538  0.1036  0.0462
18359DOD     C198896  29.862  20.639  25.771  0.0066 -0.1196 -0.4381
18359DOD     C298897  29.864  20.982  25.525 -0.0422  0.0370 -0.3259
18359DOD     C398898  29.870  21.389  25.331  0.1722 -0.1906 -0.4305
18360DOD     C198899  27.051   7.059  16.357  0.1121  0.2007  0.0383
18360DOD     C298900  27.202   7.475  16.245 -0.4570 -0.2026 -0.0027
18360DOD     C398901  27.374   7.675  15.846  0.2325 -0.3387 -0.3778
18361DOD     C198902  29.458  21.697  18.845 -0.1317 -0.2078 -0.1065
18361DOD     C298903  29.498  21.327  19.140 -0.1729  0.3715 -0.1523
18361DOD     C398904  29.255  20.908  19.060 -0.1909 -0.0700  0.0358
18362DOD     C198905   8.973  14.645   8.965 -0.0283  0.4190  0.1556
18362DOD     C298906   8.769  14.894   9.347  0.1170 -0.1894  0.0414
18362DOD     C398907   8.501  14.699   9.656  0.1285  0.1090  0.0124
18363DOD     C198908   1.931   5.158  20.832 -0.3814  0.1992 -0.0016
18363DOD     C298909   2.029   5.489  21.072 -0.0046 -0.3384  0.3624
18363DOD     C398910   2.031   5.466  21.532 -0.1971 -0.1676 -0.0642
18364DOD     C198911  25.544  11.915   2.205 -0.0181 -0.0471  0.0309
18364DOD     C298912  25.546  11.963   1.720  0.1846  0.0170  0.0207
18364DOD     C398913  25.597  12.084   1.274  0.0956  0.0724 -0.2115
18365DOD     C198914   6.431  14.094  11.865 -0.2714  0.0760 -0.0515
18365DOD     C298915   6.638  14.370  11.541 -0.1375  0.3291  0.1917
18365DOD     C398916   6.720  14.580  11.153 -0.0593 -0.0057  0.0800
18366DOD     C198917   7.141   2.134   5.051 -0.1259  0.0020  0.2089
18366DOD     C298918   7.592   2.215   5.116 -0.3421  0.2712  0.5322
18366DOD     C398919   7.965   1.903   5.147  0.3452  0.1085 -0.0615
18367DOD     C198920  20.321  24.984  16.383 -0.4691  0.1884 -0.3535
18367DOD     C298921  19.881  24.832  16.516 -0.4065  0.1047  0.0337
18367DOD     C398922  19.431  24.836  16.342  0.0488 -0.1033  0.0944
18368DOD     C198923  14.907  23.564  21.302 -0.5085  0.0760 -0.0979
18368DOD     C298924  14.947  24.016  21.346 -0.1122 -0.0001 -0.1543
18368DOD     C398925  14.506  24.140  21.386  0.0170 -0.0330  0.2018
18369DOD     C198926  21.549  15.145  24.364 -0.0651  0.0807  0.1971
18369DOD     C298927  21.318  15.351  24.015  0.0897 -0.0177 -0.0859
18369DOD     C398928  21.074  15.612  23.761 -0.3517 -0.1991  0.0156
18370DOD     C198929  22.481   6.619  26.078  0.2061 -0.4557 -0.4467
18370DOD     C298930  22.727   6.984  26.256 -0.3742  0.0034 -0.1228
18370DOD     C398931  22.652   7.432  26.507  0.0277 -0.1109  0.0572
18371DOD     C198932  24.208  19.675   1.754  0.4031 -0.0333  0.0139
18371DOD     C298933  24.349  19.723   2.227 -0.0513 -0.1497 -0.1286
18371DOD     C398934  24.779  19.740   2.417 -0.0363  0.0854  0.1153
18372DOD     C198935   1.657  13.938  27.119  0.1048  0.0579  0.0775
18372DOD     C298936   1.596  14.269  26.863 -0.0816  0.2204 -0.1839
18372DOD     C398937   1.877  14.302  26.536  0.1741 -0.0626  0.2042
18373DOD     C198938  28.839  28.229  21.238 -0.0466 -0.2598 -0.2155
18373DOD     C298939  28.770  27.824  21.399 -0.1339  0.0132  0.2349
18373DOD     C398940  28.798  27.367  21.398 -0.0367 -0.0591 -0.1253
18374DOD     C198941  16.779   3.830   6.437 -0.0947  0.0649  0.0917
18374DOD     C298942  16.758   4.276   6.300 -0.1624 -0.1421 -0.0514
18374DOD     C398943  16.656   4.702   6.062 -0.0711  0.3652  0.0275
18375DOD     C198944  25.511  15.529  13.338  0.1290 -0.4301  0.1501
18375DOD     C298945  25.942  15.487  13.273 -0.1155 -0.2856  0.0614
18375DOD     C398946  26.314  15.483  13.548 -0.0603 -0.0425 -0.2879
18376DOD     C198947  21.532  19.753  11.739 -0.2334 -0.1455  0.0358
18376DOD     C298948  22.018  19.833  11.823  0.0542 -0.1097  0.0612
18376DOD     C398949  22.438  19.765  11.841  0.2667  0.0002 -0.2980
18377DOD     C198950   4.872  23.338  17.401 -0.4338 -0.1179 -0.0868
18377DOD     C298951   4.773  23.394  16.952 -0.0927 -0.0732 -0.0132
18377DOD     C398952   4.525  23.286  16.569  0.0639 -0.0726  0.0924
18378DOD     C198953  12.706   6.445   4.325  0.1411  0.0714  0.1911
18378DOD     C298954  12.730   6.446   4.808  0.0860  0.1307 -0.1641
18378DOD     C398955  12.591   6.632   5.205 -0.3040  0.0747  0.1269
18379DOD     C198956  22.459  29.326   0.060  0.0181 -0.3125 -0.0087
18379DOD     C298957  22.403  29.614   0.438 -0.4504 -0.3253 -0.0756
18379DOD     C398958  22.165  29.854   0.812  0.0689 -0.0274  0.0429
18380DOD     C198959  11.054   0.332  23.686  0.2789 -0.2150 -0.2229
18380DOD     C298960  11.459   0.142  23.547  0.0894 -0.2994 -0.0934
18380DOD     C398961  11.815  30.277  23.483 -0.3228 -0.0571 -0.0312
18381DOD     C198962   4.902  23.365   4.380 -0.3421 -0.2494 -0.2389
18381DOD     C298963   5.053  23.712   4.070 -0.1268  0.1868 -0.2816
18381DOD     C398964   4.839  24.056   3.804  0.0307  0.1636 -0.1095
18382DOD     C198965  30.238  23.050  18.443  0.1341  0.1527  0.0239
18382DOD     C298966   0.302  23.337  18.623 -0.2636 -0.3318  0.1478
18382DOD     C398967   0.742  23.343  18.525  0.1578 -0.0730 -0.1472
18383DOD     C198968  10.538   9.456   5.373 -0.1869 -0.0891  0.0745
18383DOD     C298969  10.376   9.081   5.652 -0.1007  0.0564  0.3242
18383DOD     C398970  10.015   8.865   5.621  0.1394 -0.0394  0.2736
18384DOD     C198971   3.330  25.583  23.977 -0.5319  0.0535 -0.0662
18384DOD     C298972   3.753  25.656  24.089 -0.4064 -0.1181 -0.0677
18384DOD     C398973   4.107  25.571  24.446  0.0219  0.0088  0.0846
18385DOD     C198974  11.503  28.787  25.847 -0.0347  0.0460 -0.2339
18385DOD     C298975  11.358  29.256  25.818 -0.0102  0.3404  0.1341
18385DOD     C398976  10.912  29.259  25.618 -0.3034 -0.3574  0.1095
18386DOD     C198977  18.452  20.418   2.336  0.0429  0.0262  0.1874
18386DOD     C298978  18.272  20.023   2.488 -0.1073 -0.1632  0.1044
18386DOD     C398979  17.944  19.691   2.533 -0.2832 -0.1630  0.0545
18387DOD     C198980  29.166   1.974  22.538 -0.0080  0.0387 -0.1396
18387DOD     C298981  29.393   1.930  22.113  0.0234 -0.0708  0.5187
18387DOD     C398982  29.699   1.836  21.748 -0.1185 -0.0623 -0.2274
18388DOD     C198983  15.478  16.228  22.961  0.0867  0.0238 -0.0879
18388DOD     C298984  15.233  16.150  22.550 -0.0693  0.1863 -0.2107
18388DOD     C398985  15.234  15.713  22.321  0.1947  0.1055  0.1868
18389DOD     C198986   7.806  22.051   6.247  0.0748 -0.0536 -0.1984
18389DOD     C298987   7.920  22.276   6.646 -0.2227 -0.2748  0.0618
18389DOD     C398988   7.861  22.491   7.131 -0.0749 -0.1191  0.1440
18390DOD     C198989  11.171  19.291  21.540  0.0424  0.1721 -0.1428
18390DOD     C298990  11.572  19.061  21.459 -0.1110  0.2079 -0.1947
18390DOD     C398991  12.082  19.022  21.505  0.1503  0.0571 -0.0646
18391DOD     C198992  12.755   4.460  18.570  0.0700 -0.1082  0.2690
18391DOD     C298993  13.066   4.741  18.477 -0.1057  0.1826  0.0939
18391DOD     C398994  13.365   5.098  18.449 -0.0795  0.2700 -0.1076
18392DOD     C198995  18.368   1.307  29.678 -0.0726  0.0904  0.1134
18392DOD     C298996  18.300   1.323  29.203  0.0158  0.5347 -0.2225
18392DOD     C398997  17.849   1.451  29.100 -0.0361 -0.2825 -0.0406
18393DOD     C198998   4.676  28.878  17.055 -0.0831 -0.2057  0.0523
18393DOD     C298999   5.006  29.186  16.894  0.0657  0.0453  0.0482
18393DOD     C399000   5.266  29.266  16.550  0.1633  0.0297  0.0804
18394DOD     C199001  27.293  12.489  24.533 -0.0024 -0.2116  0.1140
18394DOD     C299002  27.099  12.182  24.743 -0.0579 -0.1011 -0.1391
18394DOD     C399003  27.347  11.934  25.110 -0.1351  0.0986  0.1372
18395DOD     C199004  11.586   8.764  19.056  0.0318  0.0809  0.3674
18395DOD     C299005  12.047   8.761  19.194 -0.1468  0.3962  0.1518
18395DOD     C399006  12.448   8.583  19.234  0.0203  0.1585  0.2505
18396DOD     C199007  10.881  20.140   8.546 -0.2210  0.1274 -0.1722
18396DOD     C299008  11.105  20.169   8.098 -0.0003  0.2098 -0.0437
18396DOD     C399009  11.060  20.162   7.635 -0.0433 -0.1156  0.1057
18397DOD     C199010  16.095  13.498   0.699  0.1142  0.2272  0.1398
18397DOD     C299011  15.687  13.413   0.535 -0.2178  0.1831 -0.3391
18397DOD     C399012  15.346  13.191   0.744 -0.0271 -0.0211  0.0194
18398DOD     C199013   4.089  26.994  29.688  0.1507 -0.2608  0.0770
18398DOD     C299014   4.115  27.445  29.790 -0.1694 -0.1678  0.0075
18398DOD     C399015   4.288  27.810  29.769 -0.2072 -0.1151  0.1213
18399DOD     C199016  24.366   1.269  19.577 -0.2434  0.0803  0.0272
18399DOD     C299017  24.178   0.885  19.334 -0.1766 -0.0784  0.1996
18399DOD     C399018  24.210   0.631  18.991  0.3024  0.0837 -0.1083
18400DOD     C199019   5.694   1.673  10.364 -0.0709 -0.1478 -0.0119
18400DOD     C299020   5.726   1.275  10.638  0.1498  0.2562 -0.0177
18400DOD     C399021   5.527   1.115  11.053  0.2827  0.0907  0.0504
18401DOD     C199022  12.922   7.769  30.352 -0.2734 -0.1584  0.1765
18401DOD     C299023  12.905   7.971  29.875 -0.0148  0.0207 -0.1503
18401DOD     C399024  12.675   8.181  29.523  0.2353  0.1351 -0.2094
18402DOD     C199025   3.424   4.465   7.955  0.0129  0.3818 -0.2249
18402DOD     C299026   3.052   4.406   8.283  0.1204 -0.3168 -0.0206
18402DOD     C399027   2.837   4.651   8.640  0.2086 -0.0230  0.0653
18403DOD     C199028   7.513   6.502  27.421 -0.2274 -0.3090  0.0364
18403DOD     C299029   7.152   6.840  27.463 -0.0164 -0.1288  0.0612
18403DOD     C399030   6.849   6.767  27.808 -0.0388  0.2637 -0.0845
18404DOD     C199031  28.232  26.216   3.676 -0.0815  0.0406  0.1200
18404DOD     C299032  27.759  26.287   3.743  0.0106  0.0153  0.0374
18404DOD     C399033  27.246  26.362   3.622  0.1418  0.0199  0.0379
18405DOD     C199034   9.524  14.173  17.262  0.1268 -0.0603 -0.2520
18405DOD     C299035   9.874  14.488  17.385 -0.0821 -0.2505 -0.0261
18405DOD     C399036  10.300  14.643  17.578 -0.1578  0.0949 -0.4318
18406DOD     C199037   7.506  14.282  17.245 -0.0154 -0.1253  0.0937
18406DOD     C299038   7.176  14.506  17.500 -0.2630 -0.2677 -0.1010
18406DOD     C399039   6.850  14.648  17.835 -0.1973  0.1173  0.0582
18407DOD     C199040  22.663   3.760  13.893  0.2650 -0.0189  0.0023
18407DOD     C299041  22.619   4.182  14.070  0.2650  0.2688 -0.0868
18407DOD     C399042  22.743   4.643  13.960 -0.2265  0.5583 -0.0553
18408DOD     C199043   8.125  26.581  17.964  0.0875 -0.1471 -0.0499
18408DOD     C299044   8.387  26.993  17.959  0.1625  0.4393 -0.1140
18408DOD     C399045   8.704  27.277  17.803 -0.2429 -0.1093 -0.2827
18409DOD     C199046   7.628  29.373  24.316 -0.0060  0.3804  0.2794
18409DOD     C299047   7.619  29.107  24.691 -0.1885  0.0909 -0.3330
18409DOD     C399048   7.258  28.848  24.826 -0.2720  0.0436 -0.2637
18410DOD     C199049  27.163  26.723  11.746 -0.1597  0.0325 -0.0706
18410DOD     C299050  27.011  26.259  11.658 -0.2043  0.0004 -0.0392
18410DOD     C399051  27.207  25.889  11.500  0.0910 -0.2076  0.2947
18411DOD     C199052  22.673  28.891  18.555  0.0510  0.4005  0.0605
18411DOD     C299053  22.723  28.496  18.829  0.1064  0.0335  0.4263
18411DOD     C399054  22.646  28.380  19.271 -0.1267  0.1088 -0.1119
18412DOD     C199055  30.132  28.240  14.188  0.0965 -0.2365  0.1200
18412DOD     C299056  29.926  28.598  14.092 -0.2576 -0.0366 -0.1503
18412DOD     C399057  29.552  28.847  14.081  0.0792  0.1836 -0.1261
18413DOD     C199058  14.897  21.587  20.287 -0.2643  0.1438  0.0353
18413DOD     C299059  15.037  21.173  20.130  0.1416  0.0740 -0.1072
18413DOD     C399060  15.317  20.974  19.800  0.2732 -0.1224  0.1287
18414DOD     C199061   7.978   8.273  21.455  0.0477  0.1631  0.2920
18414DOD     C299062   7.831   8.661  21.238  0.0052  0.0320  0.1001
18414DOD     C399063   7.776   9.083  21.402 -0.2210  0.2253  0.1622
18415DOD     C199064   6.773  11.712  27.545  0.0107 -0.2497  0.0390
18415DOD     C299065   6.884  11.661  27.046 -0.0690 -0.0227  0.0086
18415DOD     C399066   6.825  11.882  26.607 -0.0401 -0.0203  0.1010
18416DOD     C199067   4.756  26.971  16.553 -0.1483  0.1405  0.1719
18416DOD     C299068   4.436  27.245  16.452  0.0116 -0.1732 -0.3127
18416DOD     C399069   4.130  27.634  16.516  0.0761 -0.0881  0.2945
18417DOD     C199070  19.690  27.574  12.145 -0.3978  0.3797  0.1098
18417DOD     C299071  19.272  27.589  11.832  0.0158 -0.3676 -0.1919
18417DOD     C399072  18.823  27.708  11.895 -0.1352 -0.3523 -0.0171
18418DOD     C199073  25.394  17.262   6.923  0.1674  0.3357  0.1156
18418DOD     C299074  25.252  17.362   7.372 -0.0337 -0.1825  0.0689
18418DOD     C399075  25.105  17.295   7.762 -0.1800 -0.0429  0.1175
18419DOD     C199076   2.329  29.252  16.768  0.2826  0.3937  0.0231
18419DOD     C299077   2.796  29.223  16.597  0.0377  0.1020 -0.0962
18419DOD     C399078   2.937  28.966  16.233 -0.0016  0.3049  0.4104
18420DOD     C199079  14.634   9.838  12.941 -0.0213 -0.2279 -0.1635
18420DOD     C299080  14.441  10.035  12.552  0.1165 -0.1496  0.2071
18420DOD     C399081  13.996  10.115  12.571  0.1226  0.1788 -0.1394
18421DOD     C199082  14.640   5.364  22.560  0.1346 -0.4100 -0.2671
18421DOD     C299083  15.020   5.581  22.354 -0.0529 -0.1880  0.0781
18421DOD     C399084  15.192   5.787  21.953  0.2398 -0.1709 -0.0343
18422DOD     C199085  24.677  22.064  19.989 -0.1854  0.0471  0.0093
18422DOD     C299086  24.366  21.862  19.721 -0.1643 -0.2146 -0.0356
18422DOD     C399087  24.024  21.625  19.583 -0.1432 -0.0364  0.1811
18423DOD     C199088  29.200  18.339  17.291  0.5156 -0.0687  0.0983
18423DOD     C299089  29.170  17.821  17.186  0.4670 -0.2231  0.1406
18423DOD     C399090  29.511  17.520  17.269 -0.1815  0.2383 -0.1660
18424DOD     C199091  12.249  14.160   2.314  0.0517  0.0297 -0.2922
18424DOD     C299092  12.372  14.497   1.995 -0.0369  0.0336  0.1554
18424DOD     C399093  12.362  14.380   1.571 -0.1936 -0.0972  0.0820
18425DOD     C199094   1.999  25.963  15.764 -0.0848  0.0452  0.1515
18425DOD     C299095   1.836  25.515  15.886 -0.0666 -0.2381  0.0450
18425DOD     C399096   1.536  25.427  16.175 -0.1129 -0.0587  0.0753
18426DOD     C199097  19.917  12.895   7.659 -0.0717 -0.1611 -0.0414
18426DOD     C299098  20.111  12.970   7.234  0.4875  0.0962 -0.0156
18426DOD     C399099  20.449  13.125   6.971 -0.4716 -0.1160  0.0364
18427DOD     C199100   9.092   6.008  29.570 -0.1423  0.1665 -0.2292
18427DOD     C299101   9.169   5.851  29.105  0.2060 -0.0316  0.1777
18427DOD     C399102   9.391   5.643  28.785  0.0544  0.2498  0.2297
18428DOD     C199103   3.349  16.317  25.954 -0.0106  0.3422  0.2626
18428DOD     C299104   3.156  16.535  26.328  0.1978  0.2484  0.1813
18428DOD     C399105   3.018  16.495  26.783  0.0658  0.1623  0.1466
18429DOD     C199106  20.238  12.067   7.209 -0.1373 -0.2029 -0.1326
18429DOD     C299107  20.557  12.049   7.493  0.0498  0.2238  0.0998
18429DOD     C399108  20.954  11.789   7.582 -0.2072  0.1988 -0.3892
18430DOD     C199109   6.860  28.334  29.319 -0.0111 -0.0608 -0.4365
18430DOD     C299110   6.500  28.399  29.055 -0.2716 -0.0696  0.0078
18430DOD     C399111   6.173  28.067  29.046  0.1616 -0.0910 -0.1452
18431DOD     C199112  21.136  26.563   9.795 -0.3306  0.1370  0.1377
18431DOD     C299113  21.267  26.624  10.214 -0.3966 -0.0350 -0.0896
18431DOD     C399114  21.388  26.941  10.517  0.1600 -0.3497 -0.2233
18432DOD     C199115  18.612   6.806  12.741 -0.0349  0.0445 -0.1000
18432DOD     C299116  18.309   6.822  12.340 -0.0671  0.1268  0.1118
18432DOD     C399117  17.890   6.951  12.260  0.0365  0.0702 -0.0515
18433DOD     C199118   5.989  28.146   9.640 -0.2723 -0.0660 -0.1297
18433DOD     C299119   6.438  28.125   9.441  0.2205  0.0869 -0.0733
18433DOD     C399120   6.866  28.133   9.556  0.0695  0.1240  0.1636
18434DOD     C199121  26.281  25.672   6.510  0.0333 -0.0616 -0.1005
18434DOD     C299122  26.487  26.036   6.702 -0.0254 -0.0384 -0.0762
18434DOD     C399123  26.789  26.181   7.072  0.0900  0.2803  0.4431
18435DOD     C199124  28.736  10.734   2.522 -0.1198  0.0556 -0.0205
18435DOD     C299125  28.813  10.736   2.949 -0.0999  0.1430 -0.4051
18435DOD     C399126  28.944  10.733   3.355 -0.2562 -0.1910 -0.0317
18436DOD     C199127  14.556   6.385   4.005 -0.1311 -0.1434 -0.2568
18436DOD     C299128  14.144   6.316   3.779  0.0768 -0.1098  0.0827
18436DOD     C399129  13.876   6.075   3.459  0.0896 -0.0304 -0.3407
18437DOD     C199130  29.120  25.137  19.949 -0.0115 -0.0973 -0.0267
18437DOD     C299131  29.164  25.107  20.371  0.2713  0.0557  0.1859
18437DOD     C399132  29.199  25.190  20.848  0.1241  0.4390  0.0311
18438DOD     C199133  26.457   9.031  15.257  0.0805  0.1147 -0.1181
18438DOD     C299134  26.250   9.415  15.163 -0.0761 -0.1679 -0.0358
18438DOD     C399135  25.815   9.416  15.208  0.1539  0.0894 -0.1911
18439DOD     C199136  29.214   1.845  13.806  0.0111 -0.0405 -0.0972
18439DOD     C299137  28.796   1.681  13.744 -0.1296  0.0619  0.1891
18439DOD     C399138  28.524   1.396  13.507 -0.2004 -0.1629 -0.1320
18440DOD     C199139  30.056  19.183  18.806  0.1962 -0.1551 -0.0599
18440DOD     C299140  29.843  19.143  18.403  0.0333  0.1268 -0.0242
18440DOD     C399141  29.472  19.077  18.079 -0.2830 -0.1116 -0.1135
18441DOD     C199142   2.461  14.487   9.205 -0.1110 -0.0647 -0.3074
18441DOD     C299143   2.052  14.385   9.079 -0.0230 -0.0816  0.2324
18441DOD     C399144   1.819  14.012   8.839  0.0691 -0.3557 -0.0535
18442DOD     C199145   0.269   3.894  17.866  0.2778 -0.1080 -0.1449
18442DOD     C299146   0.160   3.807  17.429  0.1047  0.0152  0.0837
18442DOD     C399147   0.136   4.079  17.072  0.2191 -0.0940  0.1575
18443DOD     C199148   6.818  20.238  18.361 -0.0942 -0.0037 -0.1089
18443DOD     C299149   7.230  20.091  18.547  0.2736 -0.1717 -0.0986
18443DOD     C399150   7.260  19.988  19.023  0.0939 -0.0527 -0.0981
18444DOD     C199151  29.411   5.469  21.694  0.2353 -0.2076 -0.0901
18444DOD     C299152  29.829   5.457  21.528  0.2582 -0.1137 -0.2397
18444DOD     C399153  30.256   5.207  21.598 -0.0204 -0.2065 -0.3640
18445DOD     C199154  24.669   7.716  11.334 -0.0038 -0.1805  0.0648
18445DOD     C299155  24.906   7.436  11.183  0.2519 -0.1996 -0.1199
18445DOD     C399156  24.977   7.130  11.503  0.1150 -0.0443 -0.1652
18446DOD     C199157  26.785  29.893   8.242 -0.1538 -0.1470 -0.1591
18446DOD     C299158  26.870  30.000   8.711 -0.0709 -0.1344  0.0069
18446DOD     C399159  26.763  30.065   9.175  0.0237  0.0382  0.1081
18447DOD     C199160  30.204  20.320  10.403  0.3833  0.0246  0.1476
18447DOD     C299161  30.187  20.085  10.750 -0.1874  0.1584  0.0376
18447DOD     C399162  30.067  20.210  11.144 -0.0079  0.2973 -0.1953
18448DOD     C199163   5.669  20.344  24.942  0.1162  0.2550  0.0061
18448DOD     C299164   5.694  20.021  24.552 -0.2008  0.2784 -0.2321
18448DOD     C399165   5.795  19.610  24.727 -0.1271 -0.0714  0.0677
18449DOD     C199166  18.185  24.250   4.898 -0.4961 -0.0409  0.3132
18449DOD     C299167  18.329  24.067   4.502  0.3165 -0.0931 -0.1886
18449DOD     C399168  18.353  23.564   4.325 -0.1437  0.0383 -0.0538
18450DOD     C199169  17.355  23.221  16.991  0.2294 -0.1266 -0.0216
18450DOD     C299170  17.492  22.800  17.139 -0.1122 -0.4235  0.3183
18450DOD     C399171  17.819  22.385  17.182 -0.3663 -0.1145 -0.2197
18451DOD     C199172   5.104   9.604   5.882  0.0776 -0.0760  0.2334
18451DOD     C299173   5.260   9.922   5.692  0.0059 -0.3488  0.3532
18451DOD     C399174   5.173  10.384   5.797 -0.1621  0.2625  0.0400
18452DOD     C199175  20.683  12.410   6.083  0.3674  0.0042  0.0530
18452DOD     C299176  20.341  12.709   6.119  0.2712 -0.2196 -0.2539
18452DOD     C399177  20.062  12.974   6.419  0.2938 -0.0871 -0.0877
18453DOD     C199178  29.075  13.516  25.575  0.0716  0.4589 -0.4985
18453DOD     C299179  28.914  13.694  25.982 -0.0262 -0.1065  0.1257
18453DOD     C399180  29.006  13.938  26.392 -0.1123 -0.2058 -0.3478
18454DOD     C199181  14.528  22.122  21.295  0.0613  0.0320  0.0789
18454DOD     C299182  14.808  21.999  20.986  0.0374 -0.2558  0.0979
18454DOD     C399183  15.134  21.789  20.734  0.3516 -0.0684  0.0276
18455DOD     C199184  15.013  21.151  18.667 -0.1005  0.0194 -0.3227
18455DOD     C299185  14.608  21.108  18.469 -0.1199  0.0128  0.1375
18455DOD     C399186  14.122  21.193  18.535  0.0029  0.1624  0.0914
18456DOD     C199187   5.078  16.532   4.619 -0.3374  0.1416  0.0746
18456DOD     C299188   5.268  16.736   4.245 -0.2222  0.2725  0.1026
18456DOD     C399189   5.636  16.669   3.973 -0.0497 -0.1258  0.2887
18457DOD     C199190   2.076  13.572  25.342  0.1406 -0.3887 -0.1943
18457DOD     C299191   1.682  13.468  25.081 -0.3238  0.1424  0.1004
18457DOD     C399192   1.503  13.110  24.857 -0.1906  0.3474  0.1131
18458DOD     C199193   4.406  12.810  14.912  0.0416  0.2455  0.4062
18458DOD     C299194   4.693  12.559  14.712  0.1654 -0.1581  0.0706
18458DOD     C399195   5.065  12.354  14.514 -0.3269  0.1827  0.0355
18459DOD     C199196  14.600  16.685   1.377 -0.0155  0.0622  0.2185
18459DOD     C299197  14.451  16.442   1.724 -0.2858 -0.2018 -0.1738
18459DOD     C399198  14.506  16.100   2.047 -0.0684 -0.1170 -0.0122
18460DOD     C199199  17.481   5.605   7.362  0.0562 -0.0696  0.1570
18460DOD     C299200  17.056   5.779   7.281 -0.1327 -0.0008  0.0252
18460DOD     C399201  16.842   6.200   7.211 -0.1605 -0.2521  0.0040
18461DOD     C199202  24.916   0.684  14.239  0.0009 -0.2287  0.0623
18461DOD     C299203  24.528   0.759  14.474  0.0377 -0.1244 -0.1325
18461DOD     C399204  24.473   1.183  14.680 -0.1744  0.1299 -0.1799
18462DOD     C199205   1.855  19.569  25.571 -0.2239  0.0151 -0.1631
18462DOD     C299206   2.211  19.821  25.368  0.1368  0.2368 -0.2115
18462DOD     C399207   2.452  20.070  25.069  0.2410 -0.0396 -0.2908
18463DOD     C199208  13.791  19.016   9.212  0.1113 -0.1381  0.0258
18463DOD     C299209  13.380  18.786   9.108  0.0645 -0.0276 -0.1476
18463DOD     C399210  13.112  18.488   9.007  0.1077 -0.0204  0.3291
18464DOD     C199211   1.140  22.200   3.576 -0.0330 -0.1720 -0.0427
18464DOD     C299212   1.535  22.343   3.389 -0.1365  0.1267  0.0674
18464DOD     C399213   1.606  22.301   2.915 -0.0198  0.2087  0.2226
18465DOD     C199214   6.376  13.589  22.570 -0.1396 -0.0155  0.0290
18465DOD     C299215   6.109  14.003  22.686  0.2815  0.3403 -0.0222
18465DOD     C399216   5.688  14.190  22.752  0.0308  0.0880  0.0690
18466DOD     C199217  27.799  24.927  12.377 -0.0031 -0.1335 -0.3534
18466DOD     C299218  28.147  25.097  12.637 -0.1291  0.1010  0.3267
18466DOD     C399219  28.515  25.312  12.826  0.5261 -0.0685 -0.1370
18467DOD     C199220  29.549  18.447  12.251  0.1700 -0.3604  0.1441
18467DOD     C299221  29.597  18.154  12.627 -0.0622 -0.3960  0.2351
18467DOD     C399222  29.227  18.193  12.928  0.0576  0.0219  0.0923
18468DOD     C199223   8.838  26.624  23.349 -0.0887  0.1354 -0.4912
18468DOD     C299224   8.929  27.085  23.241 -0.1160  0.1148  0.0195
18468DOD     C399225   9.094  27.531  23.222  0.3053  0.0924  0.0400
18469DOD     C199226  16.619   3.827  29.018  0.2692 -0.1518 -0.0645
18469DOD     C299227  16.740   4.302  28.998  0.2622 -0.1403  0.1435
18469DOD     C399228  16.734   4.777  29.221  0.3221 -0.1296  0.0147
18470DOD     C199229  16.382  23.497  24.420 -0.0293  0.1108  0.0424
18470DOD     C299230  16.629  23.510  24.000 -0.1098  0.0275 -0.4014
18470DOD     C399231  16.901  23.303  23.721  0.1876  0.1119  0.0415
18471DOD     C199232   6.574  17.706   4.957 -0.0433 -0.1770 -0.1894
18471DOD     C299233   6.568  17.674   5.395  0.1470  0.1039  0.1764
18471DOD     C399234   6.712  17.954   5.752  0.0264 -0.0587  0.0512
18472DOD     C199235   1.471  15.535  14.954  0.0252 -0.3803 -0.0757
18472DOD     C299236   1.086  15.644  14.715  0.0921 -0.1288  0.3420
18472DOD     C399237   0.720  16.036  14.703  0.0412 -0.2409  0.2011
18473DOD     C199238  12.829   9.227  29.831 -0.1573  0.3531  0.0438
18473DOD     C299239  13.097   8.997  29.591 -0.0712 -0.0261 -0.0320
18473DOD     C399240  13.515   8.819  29.419  0.1123  0.2153 -0.2902
18474DOD     C199241   7.353   0.357  27.914 -0.3001 -0.0942 -0.3444
18474DOD     C299242   7.536   0.498  27.514 -0.2291  0.3702  0.0438
18474DOD     C399243   7.432   0.701  27.129 -0.5565 -0.1905  0.0826
18475DOD     C199244   1.515   8.679  27.232 -0.3260 -0.1323  0.3388
18475DOD     C299245   1.530   8.234  27.238 -0.1289  0.1686 -0.0253
18475DOD     C399246   1.646   7.814  27.028  0.1244 -0.0780 -0.1204
18476DOD     C199247   1.853   2.307   0.017  0.0826 -0.3249 -0.0968
18476DOD     C299248   2.215   2.029   0.108 -0.3225 -0.1672 -0.0534
18476DOD     C399249   2.654   2.093   0.297  0.0413 -0.0281  0.3085
18477DOD     C199250  11.957  12.891  12.956 -0.0636 -0.1018 -0.1887
18477DOD     C299251  12.350  12.709  12.979  0.0093  0.0431  0.0040
18477DOD     C399252  12.767  12.670  13.165  0.0810 -0.0543 -0.1168
18478DOD     C199253  26.532  23.220  22.847  0.1127  0.3561 -0.0181
18478DOD     C299254  27.018  23.224  23.088  0.2261 -0.1304  0.0646
18478DOD     C399255  27.298  22.890  23.217 -0.1722  0.0539 -0.2650
18479DOD     C199256   4.263   1.878   1.774  0.1903 -0.1952 -0.0809
18479DOD     C299257   4.161   1.753   1.377 -0.1272 -0.0466  0.1342
18479DOD     C399258   3.959   1.375   1.251 -0.0414  0.3021 -0.0451
18480DOD     C199259  17.122  11.010  16.181  0.0629 -0.3003  0.2102
18480DOD     C299260  17.278  11.363  15.925 -0.0752  0.0358 -0.1305
18480DOD     C399261  17.215  11.756  16.090 -0.2377 -0.0654 -0.2348
18481DOD     C199262  28.154  22.137  11.803  0.0341 -0.2319  0.0051
18481DOD     C299263  28.300  21.831  11.515 -0.2909 -0.1707 -0.0835
18481DOD     C399264  28.447  21.527  11.154 -0.0365  0.2486  0.2670
18482DOD     C199265  17.001  10.788  16.916 -0.2197  0.4382 -0.2056
18482DOD     C299266  17.099  11.053  17.268  0.2025  0.1177  0.1877
18482DOD     C399267  17.127  11.489  17.407 -0.0227 -0.0026 -0.2099
18483DOD     C199268  10.633   7.231  17.692  0.3685 -0.1680 -0.2011
18483DOD     C299269  10.745   6.859  17.418 -0.0220 -0.4403 -0.0249
18483DOD     C399270  10.845   6.666  16.962 -0.2819  0.0066  0.0239
18484DOD     C199271  15.702   5.502  27.599  0.0168 -0.1074 -0.1999
18484DOD     C299272  15.841   5.825  27.905 -0.2366  0.1858  0.4380
18484DOD     C399273  15.936   6.336  27.931  0.1572  0.2302 -0.0592
18485DOD     C199274  27.773  26.715  15.062  0.2532 -0.0805 -0.2839
18485DOD     C299275  27.689  26.877  15.540 -0.0464 -0.0218  0.2821
18485DOD     C399276  27.547  27.175  15.849 -0.1658  0.0453 -0.0881
18486DOD     C199277  12.738   2.171  30.000  0.3269  0.2873 -0.0519
18486DOD     C299278  12.356   2.360  29.977 -0.2420 -0.0661  0.0694
18486DOD     C399279  11.952   2.681  29.935  0.0467  0.2861  0.1373
18487DOD     C199280   2.315   9.543  14.638  0.2231  0.1815 -0.0244
18487DOD     C299281   1.984   9.251  14.619  0.0821 -0.1932 -0.0107
18487DOD     C399282   1.650   8.968  14.331 -0.4263 -0.2891 -0.1737
18488DOD     C199283  16.486  21.594  26.821 -0.0671 -0.0231 -0.0255
18488DOD     C299284  16.337  21.157  26.944  0.2305  0.0338 -0.0499
18488DOD     C399285  16.302  20.706  26.761 -0.2904  0.0041  0.1693
18489DOD     C199286   7.877   5.364  15.981 -0.1866  0.0215 -0.1808
18489DOD     C299287   7.856   4.928  15.862  0.0728 -0.0630 -0.2230
18489DOD     C399288   7.845   4.495  15.667  0.1049  0.1486 -0.0017
18490DOD     C199289   6.453   7.406   7.745 -0.0617 -0.1949  0.0491
18490DOD     C299290   6.302   7.669   7.353 -0.1963  0.0123 -0.0167
18490DOD     C399291   6.125   7.969   7.057 -0.1584  0.4557  0.2682
18491DOD     C199292  12.583  16.089   4.298  0.1203  0.0408 -0.0040
18491DOD     C299293  12.598  15.634   4.335  0.4162  0.2581 -0.0292
18491DOD     C399294  12.590  15.256   4.639  0.2483 -0.1875 -0.1656
18492DOD     C199295   0.312   8.248  22.613  0.3889 -0.0420 -0.2870
18492DOD     C299296   0.080   7.996  22.940 -0.2662 -0.2135 -0.1657
18492DOD     C399297  30.147   7.709  23.150 -0.0708 -0.0196  0.1329
18493DOD     C199298  15.888  12.196  14.541  0.3574 -0.0554 -0.1154
18493DOD     C299299  16.232  11.958  14.442  0.1615 -0.3801 -0.2041
18493DOD     C399300  16.297  11.692  14.816 -0.1042 -0.2941 -0.3480
18494DOD     C199301  10.103   8.374   6.249 -0.0715  0.1700 -0.0247
18494DOD     C299302  10.520   8.155   6.201 -0.0494  0.0258 -0.2477
18494DOD     C399303  10.636   7.727   6.245 -0.0327 -0.1012 -0.0240
18495DOD     C199304   4.974   2.187  20.370  0.2450  0.3923 -0.0976
18495DOD     C299305   4.747   1.820  20.218 -0.3033 -0.2274 -0.1656
18495DOD     C399306   4.685   1.463  20.432 -0.1331  0.0259 -0.1909
18496DOD     C199307  26.653  11.294   2.559  0.0574 -0.0720 -0.0423
18496DOD     C299308  26.415  11.501   2.275 -0.0162  0.1117  0.1036
18496DOD     C399309  26.577  11.774   1.886 -0.1688 -0.1921 -0.0102
18497DOD     C199310  17.106  19.320  19.091 -0.1068  0.1760  0.0113
18497DOD     C299311  17.544  19.462  18.908  0.1876  0.1463 -0.1053
18497DOD     C399312  17.809  19.770  18.730  0.0667 -0.2087 -0.1697
18498DOD     C199313   0.659  25.770  23.011 -0.1879 -0.0319  0.2393
18498DOD     C299314   0.666  25.332  22.825 -0.0886 -0.2905  0.0428
18498DOD     C399315   0.459  25.124  22.540  0.0348  0.1003  0.1673
18499DOD     C199316  21.998  24.873  17.699 -0.0465  0.1937 -0.3108
18499DOD     C299317  21.641  24.879  17.405 -0.0181 -0.1282  0.0422
18499DOD     C399318  21.320  24.996  17.110  0.0142 -0.1000 -0.1375
18500DOD     C199319   1.757  28.962  28.771  0.0065  0.0905  0.2521
18500DOD     C299320   1.368  28.850  28.560 -0.0440  0.1205  0.1752
18500DOD     C399321   1.345  28.757  28.074 -0.2553  0.2964 -0.2605
18501DOD     C199322  24.386  24.892  27.064 -0.4027  0.1449 -0.1316
18501DOD     C299323  24.153  25.269  27.141 -0.0517 -0.1695 -0.0206
18501DOD     C399324  23.754  25.478  27.082 -0.2552  0.1838  0.1928
18502DOD     C199325  13.699   8.570   6.334  0.1998 -0.2692 -0.2596
18502DOD     C299326  13.962   8.721   6.022 -0.4169  0.1613 -0.0522
18502DOD     C399327  14.368   8.953   6.192 -0.0097  0.1906 -0.2320
18503DOD     C199328  10.860   5.127   3.305  0.0869  0.0664  0.1698
18503DOD     C299329  10.588   5.444   3.017 -0.1585 -0.1924 -0.1787
18503DOD     C399330  10.326   5.737   3.242 -0.0104  0.3181  0.2261
18504DOD     C199331   8.922  25.828  25.818 -0.2964  0.3062  0.3597
18504DOD     C299332   8.647  25.899  25.434 -0.3063  0.0269 -0.0663
18504DOD     C399333   8.197  26.010  25.392 -0.1068  0.2320 -0.0557
18505DOD     C199334  13.010  18.238  24.220  0.2138  0.1487  0.3472
18505DOD     C299335  12.779  18.512  23.955  0.1678 -0.0492 -0.3779
18505DOD     C399336  12.872  18.857  23.703  0.0673 -0.1714  0.3699
18506DOD     C199337  13.629  27.854  14.159 -0.1221  0.1243  0.0438
18506DOD     C299338  13.560  27.556  13.735 -0.1687 -0.1523  0.0813
18506DOD     C399339  13.557  27.605  13.289  0.0191  0.2339  0.0379
18507DOD     C199340  19.350   5.048  20.412  0.0967  0.1973 -0.1810
18507DOD     C299341  18.939   4.899  20.571  0.1432 -0.1378 -0.2325
18507DOD     C399342  18.520   5.112  20.435  0.1808 -0.1238  0.1543
18508DOD     C199343   9.245  13.798   8.251 -0.0480 -0.0042 -0.0082
18508DOD     C299344   9.195  14.225   8.149  0.1910 -0.1582  0.1131
18508DOD     C399345   9.351  14.470   7.807  0.0091 -0.0916 -0.1182
18509DOD     C199346  11.922  22.662  26.421  0.0249  0.0810  0.2977
18509DOD     C299347  11.526  22.816  26.527  0.1628  0.0264 -0.3641
18509DOD     C399348  11.055  23.039  26.688  0.0987  0.0087  0.0669
18510DOD     C199349  10.581   0.785   5.359  0.0680  0.0356  0.1114
18510DOD     C299350  10.901   1.150   5.226  0.1202 -0.1293  0.3305
18510DOD     C399351  11.253   1.287   4.952  0.2258  0.1589  0.2591
18511DOD     C199352  14.916  30.080  16.290 -0.2842  0.1462  0.0093
18511DOD     C299353  15.309  30.273  16.422 -0.1160 -0.0735 -0.0384
18511DOD     C399354  15.774  -0.003  16.498  0.0354 -0.0167 -0.1013
18512DOD     C199355  28.362  14.768  27.951  0.3509 -0.0963 -0.0093
18512DOD     C299356  28.246  14.578  27.605 -0.0531  0.0936 -0.0694
18512DOD     C399357  27.871  14.652  27.298 -0.1466 -0.1169 -0.0828
18513DOD     C199358  28.582  28.218   3.235 -0.2637 -0.1049 -0.1328
18513DOD     C299359  28.355  27.992   2.912 -0.0148  0.1406  0.0437
18513DOD     C399360  27.986  28.147   2.677  0.0070 -0.0400  0.0024
18514DOD     C199361  26.161  18.765  10.520 -0.1057  0.2204 -0.0321
18514DOD     C299362  26.264  18.303  10.478 -0.1572  0.0487 -0.1290
18514DOD     C399363  26.594  18.012  10.742  0.2748 -0.0005 -0.0106
18515DOD     C199364  18.304   5.333  26.779  0.4146  0.3423 -0.0963
18515DOD     C299365  17.948   5.043  26.830 -0.1269 -0.0541  0.1463
18515DOD     C399366  18.094   4.653  27.028  0.3362 -0.3737 -0.1026
18516DOD     C199367  28.783   4.550   8.710  0.1340  0.1328 -0.3403
18516DOD     C299368  28.397   4.313   8.568  0.1964  0.1123  0.1056
18516DOD     C399369  28.146   4.061   8.297 -0.1008  0.1238  0.2095
18517DOD     C199370  15.052  11.965  13.354  0.0258  0.0333 -0.1380
18517DOD     C299371  14.586  11.890  13.248  0.2173 -0.0766  0.3494
18517DOD     C399372  14.131  12.002  13.080  0.0258 -0.2432  0.1008
18518DOD     C199373  11.970   0.658  26.376 -0.0227 -0.4387  0.1214
18518DOD     C299374  12.302   0.692  26.684 -0.0542 -0.1002 -0.4229
18518DOD     C399375  12.413   0.627  27.147  0.0852 -0.1930  0.0281
18519DOD     C199376  10.050   7.149  24.372  0.0824  0.1011 -0.2655
18519DOD     C299377  10.468   7.374  24.416  0.0953  0.0541 -0.3462
18519DOD     C399378  10.686   7.632  24.731  0.1647  0.2516 -0.0749
18520DOD     C199379  13.199   5.712   8.141 -0.0853 -0.0968 -0.1159
18520DOD     C299380  12.813   5.909   8.384 -0.0458  0.2792 -0.0081
18520DOD     C399381  12.636   6.194   8.689 -0.2736  0.1514 -0.1275
18521DOD     C199382  27.488  28.326   5.890 -0.1809  0.0803  0.1581
18521DOD     C299383  27.846  27.978   5.909  0.0494 -0.1751 -0.2772
18521DOD     C399384  27.821  27.606   6.257  0.0515 -0.2974 -0.1571
18522DOD     C199385   4.674  24.129  24.781 -0.0558  0.2222 -0.0692
18522DOD     C299386   4.699  23.924  25.220 -0.3344 -0.0047  0.0382
18522DOD     C399387   4.572  23.937  25.614  0.1068  0.0427  0.1539
18523DOD     C199388  29.969   2.802  24.975 -0.1250 -0.0902 -0.1300
18523DOD     C299389  29.662   2.901  24.612  0.4621 -0.0382 -0.0681
18523DOD     C399390  29.513   3.012  24.197  0.1898 -0.2511 -0.1634
18524DOD     C199391  19.975  14.880  26.085 -0.0630 -0.3760  0.0989
18524DOD     C299392  20.333  15.070  25.796  0.0943 -0.1501  0.1336
18524DOD     C399393  20.632  15.209  25.439 -0.2445 -0.1390  0.3713
18525DOD     C199394  21.172   1.352   4.835 -0.1912 -0.1308  0.0763
18525DOD     C299395  21.266   1.657   5.183 -0.0761 -0.2106 -0.0058
18525DOD     C399396  21.429   1.965   5.607 -0.1368  0.2382 -0.1202
18526DOD     C199397  25.105  25.605  22.407 -0.0004  0.1802 -0.0997
18526DOD     C299398  24.967  25.584  21.996  0.2401 -0.2140 -0.0356
18526DOD     C399399  25.139  25.341  21.637  0.0168 -0.0804 -0.1299
18527DOD     C199400  17.462  18.544  10.222 -0.3360 -0.0447 -0.1859
18527DOD     C299401  17.783  18.397   9.948 -0.2312  0.1014  0.4593
18527DOD     C399402  17.890  17.946   9.934 -0.0471  0.0369 -0.1777
18528DOD     C199403   3.535  21.629   7.731 -0.1251 -0.0388  0.3035
18528DOD     C299404   3.084  21.541   7.869 -0.1421 -0.0989  0.1090
18528DOD     C399405   2.869  21.636   8.225 -0.0316  0.2031 -0.0535
18529DOD     C199406  23.616  28.799   7.033  0.0565 -0.0941 -0.0795
18529DOD     C299407  23.924  28.629   6.778 -0.0407 -0.2379  0.2375
18529DOD     C399408  24.285  28.432   6.952 -0.0830  0.3194  0.2425
18530DOD     C199409  27.233  14.140  27.308 -0.2546 -0.0298 -0.0076
18530DOD     C299410  27.681  14.074  27.320 -0.3092  0.0354 -0.1314
18530DOD     C399411  27.870  13.671  27.341  0.2831  0.0800  0.0482
18531DOD     C199412   9.945  21.773  10.587 -0.0064  0.0641  0.2156
18531DOD     C299413  10.056  22.270  10.488  0.1849 -0.0007  0.0851
18531DOD     C399414  10.138  22.695  10.350 -0.0921  0.0652 -0.0951
18532DOD     C199415  19.275  10.403  21.120 -0.0835 -0.0077 -0.0446
18532DOD     C299416  19.350  10.149  21.531  0.0329  0.3645 -0.1267
18532DOD     C399417  19.576   9.869  21.820  0.0357 -0.0305  0.0417
18533DOD     C199418  11.836   4.111   8.020 -0.2154 -0.2540  0.1531
18533DOD     C299419  11.744   4.189   8.496  0.1406  0.0610  0.0615
18533DOD     C399420  12.015   4.381   8.829  0.1686 -0.0492 -0.0657
18534DOD     C199421  18.772  14.449  11.121  0.0555 -0.2219 -0.3902
18534DOD     C299422  18.852  14.946  11.161 -0.1129  0.0677  0.4282
18534DOD     C399423  19.106  15.263  11.429  0.0677  0.2567  0.0714
18535DOD     C199424  19.901  14.242  28.155 -0.3942  0.0967  0.1845
18535DOD     C299425  19.619  14.492  28.359  0.3213  0.0323 -0.1701
18535DOD     C399426  19.485  14.925  28.585 -0.0594  0.3153  0.0854
18536DOD     C199427  11.100   3.231  19.184 -0.0383 -0.3772 -0.1672
18536DOD     C299428  11.390   2.869  19.139 -0.0712 -0.1865  0.4477
18536DOD     C399429  11.739   2.791  19.435  0.1132 -0.1016 -0.0848
18537DOD     C199430  16.127  29.720  26.191 -0.1434  0.2127 -0.2663
18537DOD     C299431  16.560  29.914  26.055 -0.0389 -0.3081  0.0598
18537DOD     C399432  17.015  30.015  26.097 -0.0208 -0.2469  0.0118
18538DOD     C199433   8.380  13.926  20.570 -0.1278 -0.0849 -0.0589
18538DOD     C299434   8.607  14.158  20.937  0.0367 -0.3373  0.0970
18538DOD     C399435   8.563  14.607  21.002 -0.0565  0.1407  0.1739
18539DOD     C199436   6.134   8.636  14.883 -0.4698 -0.1235  0.0944
18539DOD     C299437   6.314   9.040  14.767  0.4707 -0.3628 -0.3540
18539DOD     C399438   6.585   9.177  14.404 -0.0562  0.0407  0.1580
18540DOD     C199439   2.730  19.117  22.642 -0.0861  0.2499 -0.1347
18540DOD     C299440   2.985  18.696  22.705  0.0724 -0.1680  0.0563
18540DOD     C399441   3.315  18.406  22.750  0.0576  0.1569 -0.1245
18541DOD     C199442  15.045  30.103   3.425 -0.1225 -0.1080 -0.0359
18541DOD     C299443  15.003   0.000   3.889 -0.0237 -0.0728  0.0996
18541DOD     C399444  15.184   0.151   4.305 -0.1840 -0.2781 -0.1457
18542DOD     C199445   2.256  27.267  14.630 -0.1909  0.0469  0.1141
18542DOD     C299446   2.062  27.555  14.954  0.2280  0.3635 -0.0740
18542DOD     C399447   1.732  27.673  15.246 -0.0307 -0.1239 -0.1149
18543DOD     C199448  21.019  18.784  13.399 -0.1224 -0.0958 -0.0077
18543DOD     C299449  21.264  18.871  13.808  0.2802 -0.1228  0.3694
18543DOD     C399450  21.284  18.633  14.205 -0.1417 -0.3285  0.0222
18544DOD     C199451  10.192  21.880  12.528 -0.1734  0.2086 -0.3726
18544DOD     C299452  10.456  21.796  12.154  0.3103  0.1688 -0.2083
18544DOD     C399453  10.553  21.331  11.992  0.0842  0.1083 -0.0067
18545DOD     C199454  23.459  16.265   8.830 -0.0384  0.0096  0.0872
18545DOD     C299455  23.750  16.165   8.442  0.0536 -0.0751 -0.0253
18545DOD     C399456  24.113  16.461   8.544 -0.0623 -0.1855  0.2073
18546DOD     C199457  28.427  16.876  20.987  0.1595  0.1512  0.4098
18546DOD     C299458  28.685  16.989  21.387 -0.1093 -0.0092  0.3335
18546DOD     C399459  29.050  17.089  21.592  0.1515  0.3788  0.0430
18547DOD     C199460   7.594   3.787  10.487 -0.0299  0.1839  0.1829
18547DOD     C299461   7.708   3.878  10.930 -0.1550  0.3255  0.0270
18547DOD     C399462   7.483   3.680  11.358  0.3077  0.0861  0.1501
18548DOD     C199463  20.615  13.076  29.903  0.1691  0.1395 -0.3105
18548DOD     C299464  20.459  13.304  29.493  0.3135  0.2036 -0.0157
18548DOD     C399465  20.136  13.124  29.210  0.1008 -0.2000  0.4355
18549DOD     C199466   9.039  11.943   5.236  0.0888 -0.0886  0.0452
18549DOD     C299467   8.761  11.817   5.531  0.2739  0.3554 -0.2942
18549DOD     C399468   8.311  11.850   5.610 -0.3339  0.2944 -0.0263
18550DOD     C199469  18.836   2.223  27.654 -0.1504 -0.1406 -0.3336
18550DOD     C299470  18.767   2.618  27.941 -0.3484  0.1900 -0.0526
18550DOD     C399471  18.405   2.591  28.260 -0.0928 -0.2646 -0.1215
18551DOD     C199472   1.727   7.039  15.061  0.1608  0.4001 -0.0379
18551DOD     C299473   1.528   7.465  15.188  0.0219 -0.0178  0.0241
18551DOD     C399474   1.519   7.970  15.216  0.1231  0.2865  0.1483
18552DOD     C199475   5.262  18.951   1.498 -0.1077 -0.0911 -0.2291
18552DOD     C299476   5.421  18.905   1.031 -0.1554 -0.1221  0.1665
18552DOD     C399477   5.840  18.869   0.892 -0.1362  0.1465 -0.0140
18553DOD     C199478   2.265  30.259  17.318 -0.0591 -0.0624 -0.3926
18553DOD     C299479   2.355   0.433  17.338  0.1082 -0.0846  0.0611
18553DOD     C399480   2.483   0.826  17.224 -0.1261 -0.1284  0.3193
18554DOD     C199481   1.880  28.150  28.624 -0.0840 -0.1381  0.0618
18554DOD     C299482   1.590  28.372  28.848  0.2351 -0.1104 -0.0045
18554DOD     C399483   1.307  28.692  29.045 -0.0055  0.1079 -0.1881
18555DOD     C199484   6.236  21.472  22.830 -0.3156 -0.0607 -0.0738
18555DOD     C299485   6.395  21.813  22.526  0.2397  0.0973  0.0397
18555DOD     C399486   6.612  22.106  22.250 -0.1456 -0.0707  0.1998
18556DOD     C199487  23.401  10.148  19.825  0.1162  0.0434  0.0821
18556DOD     C299488  23.123   9.891  20.089  0.2147  0.1461 -0.2589
18556DOD     C399489  22.871   9.445  20.220 -0.2250  0.4433 -0.0371
18557DOD     C199490   9.847  25.282   2.483 -0.2262  0.3030 -0.2712
18557DOD     C299491   9.846  25.727   2.510  0.0231  0.0640 -0.3133
18557DOD     C399492   9.745  26.129   2.768  0.0217 -0.0898 -0.0531
18558DOD     C199493  19.948  19.424  15.194 -0.0073  0.2128  0.1259
18558DOD     C299494  19.815  18.998  15.167 -0.1239 -0.1483 -0.2511
18558DOD     C399495  20.028  18.725  14.856  0.1431  0.2127  0.0336
18559DOD     C199496   4.537   3.588  10.970  0.0551  0.1186  0.2435
18559DOD     C299497   4.029   3.689  11.063 -0.0608 -0.1051 -0.2080
18559DOD     C399498   3.711   3.979  11.183 -0.0041  0.0487 -0.0242
18560DOD     C199499   2.819   0.190  10.794  0.2669 -0.1211 -0.0022
18560DOD     C299500   3.174   0.458  10.890 -0.1570  0.0878  0.2088
18560DOD     C399501   3.374   0.591  11.341  0.1761 -0.2165 -0.0966
18561DOD     C199502   7.488  23.375  24.793 -0.0936 -0.1800  0.4424
18561DOD     C299503   7.657  23.137  25.126  0.1913  0.1209  0.2335
18561DOD     C399504   7.672  23.000  25.536  0.0931  0.1620 -0.1305
18562DOD     C199505   2.834  12.845   4.994 -0.1447  0.1042  0.2198
18562DOD     C299506   2.983  12.624   4.638 -0.0248  0.0744 -0.2448
18562DOD     C399507   3.342  12.345   4.479  0.1913  0.1770 -0.3604
18563DOD     C199508   6.857   4.263  13.442  0.1229  0.0044  0.1966
18563DOD     C299509   6.967   4.193  13.010 -0.2325 -0.2146 -0.1598
18563DOD     C399510   7.096   3.828  12.717  0.2250 -0.0220  0.2733
18564DOD     C199511   8.126  12.216  25.341 -0.0647 -0.1001  0.0358
18564DOD     C299512   8.444  12.123  25.025  0.2668  0.1420  0.2540
18564DOD     C399513   8.772  12.358  24.707  0.2098  0.0374 -0.2211
18565DOD     C199514  29.285  10.094   4.207 -0.1572 -0.0386 -0.1423
18565DOD     C299515  29.556  10.059   3.826 -0.1259 -0.3730 -0.4017
18565DOD     C399516  29.672   9.842   3.425 -0.0334 -0.2216  0.2134
18566DOD     C199517  29.169  16.681  11.853  0.0782 -0.0339  0.0154
18566DOD     C299518  29.198  17.089  12.069  0.0009 -0.0051  0.1173
18566DOD     C399519  29.394  17.545  12.023 -0.1129  0.4217  0.0608
18567DOD     C199520  11.022  12.751  11.710  0.1023 -0.0967 -0.2759
18567DOD     C299521  10.674  12.458  11.798 -0.1174 -0.2183  0.0342
18567DOD     C399522  10.362  12.199  11.611 -0.3209  0.0811 -0.0568
18568DOD     C199523   6.155  17.700   0.881  0.0817 -0.0819  0.0067
18568DOD     C299524   5.810  18.019   0.860  0.0382 -0.0375 -0.1352
18568DOD     C399525   5.559  18.436   0.839  0.1695  0.1394  0.2377
18569DOD     C199526  19.211  15.001   7.123  0.0864  0.0889  0.1908
18569DOD     C299527  19.389  14.620   7.400 -0.1007 -0.1860 -0.2715
18569DOD     C399528  19.270  14.421   7.828 -0.1220 -0.0773  0.0190
18570DOD     C199529   6.359  18.694  21.290  0.0321  0.0633  0.2829
18570DOD     C299530   6.797  18.671  21.143 -0.1121  0.1787 -0.2243
18570DOD     C399531   7.278  18.656  21.050 -0.1193 -0.0430  0.1347
18571DOD     C199532  29.231   3.140   4.028  0.2347  0.1288  0.1432
18571DOD     C299533  29.495   3.076   4.454  0.0709 -0.2636  0.0659
18571DOD     C399534  29.602   3.086   4.922 -0.1109  0.0291  0.3757
18572DOD     C199535   7.148  23.123  20.499 -0.0057 -0.0212 -0.2007
18572DOD     C299536   6.927  23.248  20.834  0.1546  0.1814  0.3160
18572DOD     C399537   6.774  23.535  21.197 -0.0145 -0.1226  0.1527
18573DOD     C199538  21.124  26.721   2.014  0.0037  0.0992  0.1488
18573DOD     C299539  21.298  27.104   1.838 -0.2368 -0.2253  0.3713
18573DOD     C399540  21.288  27.555   1.669  0.0220  0.1111  0.2173
18574DOD     C199541   6.026  22.170  23.384  0.3100 -0.1836  0.2396
18574DOD     C299542   6.110  21.878  23.075 -0.0882 -0.0275  0.0895
18574DOD     C399543   5.890  21.856  22.685  0.0595 -0.2759  0.0019
18575DOD     C199544  30.070  11.488   3.735  0.0208  0.2663 -0.0973
18575DOD     C299545  30.322  11.338   4.125  0.0158  0.0103 -0.2724
18575DOD     C399546   0.362  11.060   4.126 -0.2390  0.1328 -0.0242
18576DOD     C199547  23.286  24.741   8.294  0.2024 -0.1364 -0.2489
18576DOD     C299548  23.226  24.274   8.322  0.0324  0.1932  0.1436
18576DOD     C399549  23.168  23.924   8.606  0.0089 -0.0346 -0.1870
18577DOD     C199550  17.238  17.630   3.329  0.2907 -0.2478 -0.0100
18577DOD     C299551  17.386  17.546   2.897  0.0964 -0.0566 -0.2461
18577DOD     C399552  17.619  17.180   2.775  0.0693  0.0395  0.0843
18578DOD     C199553  29.492  28.038  12.357  0.1118  0.3385 -0.0645
18578DOD     C299554  29.059  27.926  12.163 -0.0746 -0.1171 -0.0637
18578DOD     C399555  28.644  27.714  12.230 -0.0455  0.0402 -0.2085
18579DOD     C199556  12.911  11.253  17.497 -0.0300  0.1543  0.1691
18579DOD     C299557  12.735  10.969  17.796  0.4306  0.0079 -0.0614
18579DOD     C399558  12.566  10.498  17.816 -0.0019 -0.2316  0.3586
18580DOD     C199559  27.795  27.384  18.962 -0.1732 -0.1164  0.2345
18580DOD     C299560  28.203  27.342  18.660  0.4846  0.0760 -0.1387
18580DOD     C399561  28.193  27.360  18.212  0.1728 -0.1428  0.2182
18581DOD     C199562  30.164  26.790   4.383  0.0974 -0.3753  0.0565
18581DOD     C299563   0.063  27.101   4.085  0.0785 -0.3658  0.3344
18581DOD     C399564   0.238  27.517   3.893 -0.0990 -0.4411 -0.6010
18582DOD     C199565  22.244  27.474  29.728 -0.1974 -0.0447 -0.0749
18582DOD     C299566  22.096  27.039  29.684 -0.1147  0.4045 -0.0634
18582DOD     C399567  22.092  26.719  29.967  0.2185  0.1543  0.0206
18583DOD     C199568   3.275   4.635   0.954  0.0911 -0.0839 -0.2983
18583DOD     C299569   3.226   4.502   1.407  0.1618 -0.0347  0.0467
18583DOD     C399570   2.973   4.380   1.791  0.0142 -0.0088 -0.3289
18584DOD     C199571  24.370  24.864   8.161  0.2240  0.3042  0.1007
18584DOD     C299572  24.364  24.553   7.809  0.0334 -0.0937  0.1334
18584DOD     C399573  24.464  24.306   7.466 -0.2899  0.1999 -0.1606
18585DOD     C199574   0.362   2.384  11.265 -0.2521 -0.1805  0.1130
18585DOD     C299575   0.507   2.400  11.701  0.1357  0.0194  0.1967
18585DOD     C399576   0.371   2.260  12.152  0.3681 -0.3445 -0.2417
18586DOD     C199577  22.476  15.585  13.998  0.0173 -0.1015 -0.0956
18586DOD     C299578  22.815  15.364  13.783  0.3409  0.1329 -0.1992
18586DOD     C399579  23.224  15.386  13.778 -0.2230 -0.0366  0.1430
18587DOD     C199580  28.736  29.060  19.843  0.1764 -0.1655  0.2487
18587DOD     C299581  28.826  28.710  20.134  0.0387  0.0471  0.2216
18587DOD     C399582  29.085  28.668  20.482  0.5082  0.2573  0.2889
18588DOD     C199583  15.512  26.775  10.051  0.1774  0.0314 -0.1432
18588DOD     C299584  15.436  27.261  10.034  0.3861  0.1589  0.0722
18588DOD     C399585  15.139  27.553  10.151 -0.1245 -0.0054  0.2237
18589DOD     C199586  14.464  28.361  13.594  0.0225  0.0765 -0.0537
18589DOD     C299587  14.411  28.680  13.925  0.0478 -0.0070 -0.0853
18589DOD     C399588  14.637  28.700  14.331 -0.1311 -0.0329 -0.2522
18590DOD     C199589  18.898   3.645   7.494 -0.0370 -0.2281 -0.6869
18590DOD     C299590  19.006   3.639   7.055  0.2318 -0.1368  0.0872
18590DOD     C399591  19.044   3.629   6.571 -0.0725 -0.0608 -0.0018
18591DOD     C199592  14.858  19.364  12.077 -0.1465  0.0495  0.0585
18591DOD     C299593  14.992  19.771  11.895  0.1885  0.0481 -0.1726
18591DOD     C399594  15.151  20.228  11.879 -0.1462 -0.1087 -0.0419
18592DOD     C199595  25.088   6.348   8.316 -0.2695 -0.0636 -0.0789
18592DOD     C299596  25.561   6.421   8.131 -0.0629  0.2497 -0.0878
18592DOD     C399597  25.961   6.457   7.933  0.0002  0.0126  0.0250
18593DOD     C199598   2.846   0.581  23.266  0.5296 -0.2555 -0.1542
18593DOD     C299599   3.228   0.843  23.496  0.1613 -0.0790 -0.1043
18593DOD     C399600   3.492   1.165  23.546 -0.2324 -0.1523 -0.2592
18594DOD     C199601   9.634  13.739   8.507 -0.0196  0.1820 -0.1246
18594DOD     C299602   9.431  13.371   8.408  0.0753  0.4236  0.0485
18594DOD     C399603   9.214  13.020   8.301 -0.0065  0.0861 -0.0640
18595DOD     C199604   9.791   0.241  14.008 -0.2501 -0.2443  0.0930
18595DOD     C299605   9.757   0.023  14.436  0.0968 -0.0754  0.1759
18595DOD     C399606   9.615  30.227  14.874  0.1385 -0.1622  0.3020
18596DOD     C199607  28.721  19.490  20.148  0.2021 -0.2275  0.0455
18596DOD     C299608  28.359  19.207  19.912 -0.1094  0.0048  0.2569
18596DOD     C399609  28.075  18.876  19.731 -0.1883  0.0983 -0.0222
18597DOD     C199610  23.501  28.958  14.894 -0.1775  0.0327 -0.0767
18597DOD     C299611  23.326  28.846  14.501 -0.2340  0.1396  0.0148
18597DOD     C399612  23.489  28.794  14.005  0.3330  0.1465  0.3950
18598DOD     C199613  21.707   1.773   8.977  0.0835  0.0796 -0.4788
18598DOD     C299614  21.461   1.549   9.355 -0.2246 -0.3851 -0.0646
18598DOD     C399615  21.126   1.240   9.404  0.0691  0.0216  0.1472
18599DOD     C199616  20.538   8.885  10.543  0.2745  0.1185 -0.1162
18599DOD     C299617  20.963   8.938  10.810  0.1040  0.2827  0.0456
18599DOD     C399618  21.261   9.286  10.851  0.1618 -0.1007 -0.2301
18600DOD     C199619  12.692  15.401  18.686 -0.0148  0.2022  0.1068
18600DOD     C299620  12.339  15.222  18.918 -0.0024 -0.1213 -0.0735
18600DOD     C399621  11.979  15.056  19.159 -0.0555  0.2054 -0.0069
18601DOD     C199622  16.178   6.115  21.026 -0.3050 -0.2102 -0.0981
18601DOD     C299623  16.080   5.782  20.702  0.0241  0.4043 -0.1267
18601DOD     C399624  16.131   5.790  20.232  0.1143  0.0036  0.4560
18602DOD     C199625  16.823  25.782  21.645 -0.1012 -0.3611  0.1112
18602DOD     C299626  16.407  26.026  21.703 -0.1590 -0.3515 -0.1432
18602DOD     C399627  16.265  26.473  21.514  0.0739 -0.1392  0.0751
18603DOD     C199628  16.005   3.734  16.433  0.1062 -0.3925  0.2231
18603DOD     C299629  16.380   3.761  16.641  0.0633 -0.0827  0.3330
18603DOD     C399630  16.591   3.802  17.082 -0.1382  0.0958 -0.0101
18604DOD     C199631  13.253  22.206  16.705 -0.1424  0.1008 -0.1824
18604DOD     C299632  12.996  21.830  16.724  0.2848  0.2329  0.1171
18604DOD     C399633  13.090  21.375  16.731 -0.0835  0.2642 -0.1649
18605DOD     C199634   5.944  27.721   7.002  0.0251 -0.0452 -0.1818
18605DOD     C299635   5.469  27.782   7.008  0.0285 -0.0403 -0.0699
18605DOD     C399636   5.175  28.015   7.313 -0.1258 -0.2821  0.1151
18606DOD     C199637   9.887  15.372  13.967 -0.1906 -0.1280 -0.0377
18606DOD     C299638  10.286  15.074  13.906  0.2713 -0.0773  0.2683
18606DOD     C399639  10.395  14.643  13.945 -0.0608  0.4902 -0.1319
18607DOD     C199640  29.486  16.798  23.747  0.0609  0.1469  0.1786
18607DOD     C299641  29.920  16.580  23.711  0.1193 -0.0222 -0.0807
18607DOD     C399642  30.344  16.682  23.943  0.2216  0.0321 -0.1171
18608DOD     C199643  26.053  27.373  18.582  0.0329  0.0307 -0.0670
18608DOD     C299644  25.900  27.750  18.404  0.2187  0.2650 -0.1226
18608DOD     C399645  25.530  27.817  18.105  0.1769 -0.1741 -0.1118
18609DOD     C199646  15.830  10.687  28.400 -0.2759  0.0137 -0.2200
18609DOD     C299647  15.909  10.217  28.321 -0.1159 -0.1078 -0.0175
18609DOD     C399648  15.864   9.779  28.199  0.1237 -0.2589 -0.1482
18610DOD     C199649  19.141  28.201  21.580  0.0532 -0.2134 -0.1077
18610DOD     C299650  19.433  27.808  21.495 -0.2527  0.0639 -0.2945
18610DOD     C399651  19.720  27.511  21.385 -0.0212  0.1438  0.1720
18611DOD     C199652  21.297   1.314  25.133  0.3365  0.1842 -0.0077
18611DOD     C299653  21.533   0.946  25.343 -0.1299  0.2816 -0.4669
18611DOD     C399654  21.884   0.585  25.331 -0.0380 -0.0738  0.1145
18612DOD     C199655   6.461   0.343   8.626  0.1423 -0.1260  0.0672
18612DOD     C299656   6.667   0.736   8.460 -0.1852  0.0471  0.0567
18612DOD     C399657   6.794   1.190   8.421  0.1843 -0.0452 -0.0632
18613DOD     C199658  30.290  17.842  22.610  0.0282 -0.0060 -0.0521
18613DOD     C299659  29.926  17.644  22.433  0.0686  0.0597 -0.1170
18613DOD     C399660  29.580  17.314  22.374  0.1265  0.0000  0.1390
18614DOD     C199661  22.605  29.367  28.326 -0.2665 -0.4204  0.1149
18614DOD     C299662  22.323  29.007  28.310  0.0635 -0.0138  0.0134
18614DOD     C399663  21.995  28.647  28.219 -0.1912 -0.0588 -0.3629
18615DOD     C199664  27.345  18.455   9.718 -0.0261  0.1621  0.2852
18615DOD     C299665  27.015  18.550  10.064 -0.0146  0.2714 -0.1699
18615DOD     C399666  26.827  18.212  10.376 -0.0660 -0.0368  0.2470
18616DOD     C199667   8.942   1.732   0.607 -0.4205  0.2541 -0.2976
18616DOD     C299668   8.894   2.055   0.970 -0.1722  0.2287 -0.0694
18616DOD     C399669   8.780   2.249   1.339  0.0671 -0.0580 -0.1785
18617DOD     C199670  11.542  24.995  24.260 -0.0341  0.0027  0.1684
18617DOD     C299671  11.995  24.979  24.008  0.3187 -0.2009 -0.2474
18617DOD     C399672  12.392  24.920  23.762 -0.0667 -0.1600 -0.0407
18618DOD     C199673  26.858   8.161  16.034  0.1992  0.1347 -0.0318
18618DOD     C299674  26.801   7.708  16.211  0.3079 -0.3330 -0.0456
18618DOD     C399675  26.632   7.315  16.305 -0.1910 -0.1598 -0.0654
18619DOD     C199676  16.804   1.655  23.546 -0.2901  0.2915 -0.0903
18619DOD     C299677  16.809   1.347  23.918  0.1397  0.2672  0.2055
18619DOD     C399678  16.725   1.322  24.372  0.1722  0.0444 -0.0106
18620DOD     C199679  11.767  11.984  19.492 -0.1090  0.0721 -0.1886
18620DOD     C299680  11.576  11.884  19.859  0.0668  0.0928  0.2203
18620DOD     C399681  11.332  11.871  20.257  0.1704 -0.2449 -0.0801
18621DOD     C199682  16.559  18.312  14.051  0.3766 -0.1764  0.0035
18621DOD     C299683  16.972  18.382  14.255 -0.2760  0.1124 -0.2005
18621DOD     C399684  17.331  18.515  14.585 -0.0959 -0.0941 -0.0590
18622DOD     C199685  12.285   8.451   8.462 -0.0076  0.1999  0.0335
18622DOD     C299686  11.889   8.402   8.231 -0.0891 -0.0472 -0.2016
18622DOD     C399687  11.607   8.660   8.094 -0.1226 -0.1205 -0.2624
18623DOD     C199688   9.881   9.368   5.739 -0.2255  0.1425 -0.1527
18623DOD     C299689   9.973   9.260   5.280  0.0546 -0.2191 -0.1259
18623DOD     C399690  10.047   9.335   4.899 -0.3602 -0.1279  0.3078
18624DOD     C199691  12.550  10.098   9.283  0.0969 -0.0734 -0.1512
18624DOD     C299692  12.983  10.029   9.245  0.2987 -0.0865 -0.1434
18624DOD     C399693  13.426  10.114   9.115 -0.2928  0.1202 -0.1805
18625DOD     C199694  23.161   7.560  29.953  0.2997 -0.1258  0.2795
18625DOD     C299695  22.968   7.955  30.201  0.4227 -0.0938 -0.1100
18625DOD     C399696  22.684   8.247   0.043 -0.0429 -0.0449 -0.1614
18626DOD     C199697  29.695  28.858  11.365 -0.1235  0.2813 -0.1259
18626DOD     C299698  29.774  29.336  11.484 -0.0948 -0.0481 -0.0589
18626DOD     C399699  30.120  29.615  11.634 -0.2259 -0.2475  0.1069
18627DOD     C199700  17.100   0.644   0.974 -0.3417 -0.0939  0.2835
18627DOD     C299701  16.902   1.072   0.933 -0.1107  0.1193  0.0017
18627DOD     C399702  16.513   1.269   1.189  0.0591 -0.0064  0.0460
18628DOD     C199703   5.505  10.953  20.520  0.3649 -0.1990 -0.3853
18628DOD     C299704   5.344  10.582  20.276  0.1168  0.1401  0.0907
18628DOD     C399705   5.003  10.365  20.038 -0.0707 -0.0614 -0.2248
18629DOD     C199706   4.687  22.720  27.634 -0.1358  0.4575 -0.2373
18629DOD     C299707   4.586  22.237  27.551 -0.0052 -0.0255 -0.0522
18629DOD     C399708   4.476  21.878  27.467  0.0180 -0.2527 -0.0470
18630DOD     C199709  15.158  25.175   7.663  0.4891  0.0441 -0.2607
18630DOD     C299710  15.318  24.734   7.693 -0.0287 -0.1133 -0.1154
18630DOD     C399711  15.203  24.350   7.956 -0.1750  0.2183 -0.3191
18631DOD     C199712  15.185  13.368  19.970  0.1380 -0.0313  0.0264
18631DOD     C299713  15.110  12.950  20.144 -0.0820  0.1464  0.0699
18631DOD     C399714  14.874  12.520  20.158 -0.1577  0.1489 -0.3286
18632DOD     C199715   6.211  17.545   4.109  0.1823  0.1098 -0.0678
18632DOD     C299716   6.035  17.605   4.581 -0.1049 -0.0014  0.0939
18632DOD     C399717   6.167  17.458   5.039  0.0713 -0.0530 -0.0891
18633DOD     C199718   6.315  26.883   2.849  0.0677  0.0100 -0.0244
18633DOD     C299719   5.895  26.645   2.962 -0.0817  0.0777 -0.0206
18633DOD     C399720   5.530  26.353   2.856 -0.0980  0.0882  0.0464
18634DOD     C199721  16.170  18.742  18.314  0.4003 -0.1319  0.2781
18634DOD     C299722  15.811  18.405  18.230 -0.0737 -0.0699  0.2025
18634DOD     C399723  15.680  18.013  18.075 -0.1028 -0.0323  0.2564
18635DOD     C199724   9.713  12.972  26.912 -0.0361 -0.0001  0.0908
18635DOD     C299725   9.713  13.345  26.594 -0.0160  0.3239  0.0464
18635DOD     C399726   9.832  13.709  26.367 -0.1595  0.1144  0.0941
18636DOD     C199727   3.376  28.817  10.211 -0.1336 -0.1453  0.3262
18636DOD     C299728   3.103  29.193  10.238  0.0030  0.1876 -0.1903
18636DOD     C399729   2.794  29.530  10.369  0.0080  0.3119  0.2019
18637DOD     C199730   5.986   8.834   9.718 -0.2597 -0.0426  0.1698
18637DOD     C299731   5.962   9.230   9.487  0.1153  0.0604  0.1003
18637DOD     C399732   6.234   9.385   9.147 -0.2405 -0.1488 -0.1116
18638DOD     C199733  18.953   5.028  28.195 -0.3348 -0.0085  0.1817
18638DOD     C299734  19.221   4.927  27.787  0.0259 -0.2534 -0.2150
18638DOD     C399735  19.377   4.878  27.350 -0.0285 -0.1290  0.0347
18639DOD     C199736   2.133  21.970  23.623  0.2288 -0.0136  0.0328
18639DOD     C299737   2.395  21.648  23.417  0.2453 -0.0382 -0.1693
18639DOD     C399738   2.711  21.358  23.331 -0.3776  0.2151  0.0444
18640DOD     C199739   8.184   9.137  25.017  0.1263 -0.1783  0.2681
18640DOD     C299740   8.478   9.160  25.414  0.0753  0.2888 -0.2939
18640DOD     C399741   8.442   8.922  25.779  0.0685 -0.1114 -0.0541
18641DOD     C199742   8.514  16.006  19.974  0.1052 -0.0325 -0.1465
18641DOD     C299743   8.763  15.685  20.276  0.0350 -0.1302 -0.2347
18641DOD     C399744   8.988  15.361  20.461 -0.0681  0.3478 -0.3069
18642DOD     C199745  12.970  12.064   6.151  0.0940  0.1840  0.0779
18642DOD     C299746  13.154  12.342   5.838 -0.2367 -0.1190 -0.0886
18642DOD     C399747  13.557  12.552   5.725 -0.0311 -0.1448  0.2772
18643DOD     C199748   1.342  25.096   6.481  0.0355 -0.1285  0.2224
18643DOD     C299749   1.083  25.036   6.082  0.2021 -0.2277  0.1868
18643DOD     C399750   1.162  24.719   5.707 -0.0934 -0.0572 -0.2706
18644DOD     C199751  14.255  19.875  24.564  0.0603  0.1562  0.1439
18644DOD     C299752  14.097  19.412  24.532  0.0207  0.0818 -0.0471
18644DOD     C399753  13.957  19.011  24.320  0.1594 -0.2281 -0.2747
18645DOD     C199754  21.273   3.568   5.946  0.0555  0.0743 -0.2277
18645DOD     C299755  20.997   3.591   5.589  0.3585  0.1862 -0.0861
18645DOD     C399756  20.810   3.429   5.182 -0.2587 -0.0181 -0.0067
18646DOD     C199757  14.103   4.843   1.839  0.0141 -0.1184  0.1458
18646DOD     C299758  13.935   4.579   2.174  0.0018  0.0224  0.1229
18646DOD     C399759  13.981   4.640   2.607  0.1323 -0.2746 -0.1803
18647DOD     C199760  22.373  11.370  12.957  0.1252  0.0094  0.0716
18647DOD     C299761  22.196  11.562  12.545 -0.1480  0.1796 -0.3598
18647DOD     C399762  22.065  11.404  12.138  0.2163 -0.0781 -0.0142
18648DOD     C199763  19.247   4.134   7.551  0.0569 -0.0192  0.1720
18648DOD     C299764  19.685   4.027   7.501  0.1121 -0.2739  0.3668
18648DOD     C399765  20.073   3.959   7.718  0.0001 -0.1668  0.2949
18649DOD     C199766  20.668   4.923   9.426  0.0277 -0.0101  0.0317
18649DOD     C299767  20.757   5.366   9.506  0.0678  0.2387 -0.1627
18649DOD     C399768  20.904   5.669   9.856 -0.2271  0.0172  0.1279
18650DOD     C199769  16.867   1.227   6.981  0.0563 -0.3424  0.2916
18650DOD     C299770  16.487   1.186   7.293  0.0614  0.0907  0.3222
18650DOD     C399771  16.262   0.948   7.541  0.0912 -0.0548  0.2942
18651DOD     C199772  25.962   5.463  13.429  0.0885  0.1603 -0.2091
18651DOD     C299773  25.687   5.650  13.732  0.0219  0.3231  0.0529
18651DOD     C399774  25.602   6.127  13.688 -0.1993  0.0739 -0.0198
18652DOD     C199775  26.018   4.563  10.619 -0.1194  0.0729  0.2110
18652DOD     C299776  26.472   4.476  10.720  0.0376 -0.0862  0.0258
18652DOD     C399777  26.952   4.402  10.892 -0.3922 -0.1658  0.1408
18653DOD     C199778  28.182  23.830   2.846  0.4150 -0.2328  0.1757
18653DOD     C299779  27.955  23.718   2.461 -0.2550 -0.0457 -0.0641
18653DOD     C399780  27.930  23.636   2.015  0.0520  0.1467  0.2607
18654DOD     C199781  12.034   8.584  19.620  0.0819 -0.0149  0.1601
18654DOD     C299782  11.889   8.157  19.799  0.1589 -0.2948  0.0070
18654DOD     C399783  11.620   7.858  19.987  0.0334 -0.0381  0.0148
18655DOD     C199784   3.037  17.855  21.256 -0.1612 -0.1038 -0.1378
18655DOD     C299785   3.485  17.889  21.444 -0.0278  0.3091 -0.2933
18655DOD     C399786   3.796  17.899  21.819 -0.0607  0.3145  0.0047
18656DOD     C199787   2.156   0.076  15.883  0.1371  0.0603 -0.0940
18656DOD     C299788   1.916   0.339  16.217 -0.0972  0.2868  0.0101
18656DOD     C399789   1.448   0.446  16.311  0.1030  0.0427 -0.0211
18657DOD     C199790   9.464  19.810   9.071  0.0908  0.3185  0.3957
18657DOD     C299791   9.055  19.615   9.033 -0.2821  0.3771  0.1372
18657DOD     C399792   8.628  19.619   8.853 -0.1517 -0.0658  0.0923
18658DOD     C199793  28.800   5.225  13.554  0.1018  0.2266  0.1363
18658DOD     C299794  29.159   5.399  13.812 -0.0333  0.2698 -0.2360
18658DOD     C399795  29.499   5.260  14.103 -0.2541  0.1973  0.3299
18659DOD     C199796   3.005  21.764   1.527  0.0203  0.0900  0.0568
18659DOD     C299797   2.909  22.132   1.807 -0.0651  0.0755  0.2385
18659DOD     C399798   2.561  22.387   1.987 -0.0553  0.2115  0.2435
18660DOD     C199799   4.006  19.760  29.858  0.1408  0.0936 -0.0143
18660DOD     C299800   3.973  19.327  29.940  0.2042 -0.0012  0.1209
18660DOD     C399801   3.578  19.119  30.143 -0.2409 -0.1743 -0.0958
18661DOD     C199802  12.034   6.859  28.522 -0.2716  0.0738 -0.1197
18661DOD     C299803  11.855   6.521  28.810 -0.1295  0.0530 -0.0641
18661DOD     C399804  11.569   6.128  28.960  0.0725  0.1450 -0.2218
18662DOD     C199805  19.961  17.393  30.031  0.0717  0.1744  0.0999
18662DOD     C299806  20.119  17.048  29.817  0.1905  0.1385  0.3647
18662DOD     C399807  20.104  16.677  29.531 -0.1571  0.0156 -0.2034
18663DOD     C199808  16.229  10.941  22.184  0.0667  0.4621 -0.1024
18663DOD     C299809  16.176  11.297  21.904  0.1811  0.0171  0.1036
18663DOD     C399810  16.197  11.693  21.607 -0.0750  0.0165  0.0990
18664DOD     C199811   4.234  26.437   0.265  0.0119 -0.0331 -0.0064
18664DOD     C299812   4.642  26.550   0.401 -0.0589 -0.0687 -0.2101
18664DOD     C399813   5.113  26.593   0.367  0.1618  0.1426  0.0180
18665DOD     C199814  24.102   9.555   5.646 -0.0349  0.1844  0.1504
18665DOD     C299815  24.079   9.813   6.032  0.2464 -0.1795 -0.1052
18665DOD     C399816  23.744  10.014   6.227 -0.0007 -0.0037  0.2861
18666DOD     C199817  19.684  25.788  11.969  0.1936 -0.1076  0.0791
18666DOD     C299818  19.610  26.123  12.339 -0.1474  0.0365  0.0845
18666DOD     C399819  19.446  26.389  12.645  0.2756  0.0456 -0.0847
18667DOD     C199820   8.463   0.185   9.603 -0.0723 -0.2314  0.0687
18667DOD     C299821   8.342   0.496  10.000  0.0912 -0.1117  0.0461
18667DOD     C399822   8.249   0.950  10.174 -0.1986 -0.2303 -0.0125
18668DOD     C199823   3.769  21.371  15.452  0.2811 -0.0066  0.0311
18668DOD     C299824   3.509  21.511  15.854 -0.0413 -0.2644  0.1529
18668DOD     C399825   3.189  21.385  16.222  0.1595 -0.3059  0.0122
18669DOD     C199826  14.003   6.142  17.861 -0.4385  0.1603 -0.1801
18669DOD     C299827  14.482   6.066  17.857 -0.3256 -0.0216  0.1082
18669DOD     C399828  14.959   6.042  17.829 -0.0465 -0.1789  0.2489
18670DOD     C199829  23.117  21.313  21.815  0.1509 -0.0633  0.0349
18670DOD     C299830  23.173  20.991  21.522 -0.1127  0.3563  0.1304
18670DOD     C399831  23.217  20.523  21.374  0.0274 -0.0845  0.0422
18671DOD     C199832  11.661   5.385  22.724  0.3071  0.5400  0.0072
18671DOD     C299833  11.925   5.623  23.124 -0.1308 -0.2706 -0.1867
18671DOD     C399834  12.334   5.622  23.436  0.1403 -0.0736 -0.0144
18672DOD     C199835  21.394  10.210   5.088  0.3554 -0.3698 -0.0081
18672DOD     C299836  20.932  10.060   4.951  0.2690  0.0722  0.2710
18672DOD     C399837  20.704   9.711   4.799 -0.0859 -0.1227  0.1058
18673DOD     C199838   1.088  27.885  11.137  0.2211 -0.2270 -0.1082
18673DOD     C299839   0.657  28.004  11.153 -0.0056 -0.0173  0.0426
18673DOD     C399840   0.461  28.354  10.982  0.1022 -0.2762 -0.0526
18674DOD     C199841  11.812  13.998   5.338  0.1798  0.0234 -0.1250
18674DOD     C299842  11.575  14.366   5.442  0.1971  0.3330  0.3697
18674DOD     C399843  11.397  14.741   5.667 -0.1432  0.1451 -0.0943
18675DOD     C199844   2.019  11.562  17.707 -0.2346 -0.2019 -0.2914
18675DOD     C299845   2.403  11.755  17.930 -0.0731 -0.0075  0.0651
18675DOD     C399846   2.786  11.962  17.937 -0.0154 -0.2427  0.1027
18676DOD     C199847   0.184   3.289  11.715 -0.1444 -0.0446  0.0861
18676DOD     C299848   0.321   3.288  12.135  0.3159  0.1722 -0.3324
18676DOD     C399849   0.353   3.404  12.629 -0.1477 -0.2860  0.0058
18677DOD     C199850  19.338  14.028  28.627  0.1541 -0.0574 -0.0305
18677DOD     C299851  19.034  13.931  28.253  0.0103 -0.1096 -0.0658
18677DOD     C399852  18.790  14.097  27.846 -0.2051 -0.0130 -0.1735
18678DOD     C199853   2.856   3.804  10.861  0.0981  0.3273 -0.0907
18678DOD     C299854   2.684   3.892  10.398 -0.1496 -0.1889 -0.1998
18678DOD     C399855   2.560   4.202  10.064 -0.3742 -0.1126 -0.0772
18679DOD     C199856   0.290  16.279  16.445  0.1896 -0.1133 -0.0103
18679DOD     C299857   0.245  16.590  16.724 -0.0108 -0.1694 -0.0329
18679DOD     C399858   0.430  16.968  16.863  0.1042 -0.1278 -0.0562
18680DOD     C199859  22.606  13.155  25.878 -0.0292  0.1437  0.2214
18680DOD     C299860  22.405  13.086  25.442 -0.2800  0.2019  0.0973
18680DOD     C399861  22.234  13.203  24.993 -0.0146 -0.0050 -0.1322
18681DOD     C199862  18.080  18.647   9.390 -0.2497 -0.1393  0.0659
18681DOD     C299863  18.204  19.106   9.262 -0.0436  0.1111 -0.1988
18681DOD     C399864  18.277  19.576   9.134 -0.1273 -0.2520 -0.0537
18682DOD     C199865  10.730  21.212  23.200 -0.0146 -0.1409  0.2574
18682DOD     C299866  10.412  20.880  23.070  0.0080  0.0006  0.0849
18682DOD     C399867  10.095  20.493  23.258  0.0385  0.0917  0.2279
18683DOD     C199868   1.993  28.430  29.256 -0.0142 -0.2675 -0.2723
18683DOD     C299869   2.379  28.275  29.454  0.3033  0.1646 -0.1492
18683DOD     C399870   2.742  28.073  29.709  0.4890  0.0940  0.0327
18684DOD     C199871   2.957   3.231  12.062  0.1002 -0.0069 -0.1922
18684DOD     C299872   3.321   3.418  12.269  0.0890  0.1179 -0.1496
18684DOD     C399873   3.467   3.825  12.360 -0.0528  0.1159  0.5661
18685DOD     C199874  25.512  26.429   5.210 -0.2105  0.1244  0.0077
18685DOD     C299875  25.752  26.065   5.509  0.1711 -0.0760 -0.2714
18685DOD     C399876  25.912  25.769   5.795 -0.0763  0.1278  0.3207
18686DOD     C199877  15.647  28.840  11.386 -0.0721 -0.0054 -0.1002
18686DOD     C299878  15.866  29.081  11.738  0.3382  0.1064 -0.0391
18686DOD     C399879  16.024  29.296  12.091 -0.1587 -0.2108  0.2716
18687DOD     C199880  27.529   7.381  14.751 -0.4567 -0.2214  0.0663
18687DOD     C299881  27.240   7.610  14.439 -0.0298 -0.0250  0.4303
18687DOD     C399882  27.357   7.878  14.063 -0.0653  0.0180  0.0836
18688DOD     C199883  24.970  19.207  22.830 -0.1831  0.1201  0.1210
18688DOD     C299884  25.379  19.142  22.594 -0.1853 -0.1282 -0.0365
18688DOD     C399885  25.419  18.894  22.213 -0.1494  0.2152 -0.1212
18689DOD     C199886  26.511   1.926   5.488  0.2964  0.2426 -0.0730
18689DOD     C299887  26.498   1.478   5.386 -0.0467 -0.0672 -0.0291
18689DOD     C399888  26.243   1.122   5.202 -0.1405 -0.1724  0.1179
18690DOD     C199889  18.202  13.731   8.082 -0.2376 -0.0638  0.0159
18690DOD     C299890  17.742  13.787   8.192 -0.0386 -0.1184  0.2857
18690DOD     C399891  17.274  13.723   8.235 -0.3099 -0.0674  0.0394
18691DOD     C199892  14.420  28.395  22.625 -0.3265 -0.1276 -0.2197
18691DOD     C299893  14.116  28.456  22.228 -0.2011  0.0717 -0.4349
18691DOD     C399894  13.998  28.225  21.775  0.0537 -0.0315  0.2133
18692DOD     C199895   2.918  21.744  15.487 -0.0502 -0.0769  0.1414
18692DOD     C299896   2.895  21.361  15.658 -0.1888 -0.1429  0.1345
18692DOD     C399897   2.817  20.936  15.932  0.0051  0.0975  0.1920
18693DOD     C199898  28.889  25.344   6.519  0.0342  0.3299  0.0871
18693DOD     C299899  28.481  25.099   6.410 -0.0824  0.1595  0.1842
18693DOD     C399900  28.356  24.623   6.478 -0.0026 -0.3256 -0.1985
18694DOD     C199901  18.211   3.997   2.910 -0.2451 -0.2882 -0.0635
18694DOD     C299902  18.453   4.341   3.217 -0.2497 -0.0132 -0.0810
18694DOD     C399903  18.671   4.697   3.448  0.2804 -0.0490 -0.1656
18695DOD     C199904   2.154  24.198   5.994 -0.3924 -0.2441 -0.0725
18695DOD     C299905   2.497  24.238   6.351 -0.2111 -0.1840  0.0067
18695DOD     C399906   2.493  24.488   6.763  0.2634 -0.1385  0.1036
18696DOD     C199907  16.686  19.355  24.129 -0.1018 -0.1456  0.1526
18696DOD     C299908  16.365  19.294  23.840  0.0052  0.0639 -0.0604
18696DOD     C399909  16.136  19.362  23.465 -0.0927 -0.1253  0.0738
18697DOD     C199910  11.507  12.352  18.743  0.1392  0.3957  0.1794
18697DOD     C299911  11.207  11.985  18.787  0.2671 -0.2077  0.0575
18697DOD     C399912  10.855  11.719  18.745  0.4963  0.1089  0.1175
18698DOD     C199913   6.878   6.563  19.358  0.2245 -0.0317  0.0318
18698DOD     C299914   6.694   6.714  19.754  0.1711  0.1849  0.0813
18698DOD     C399915   6.509   6.708  20.187 -0.1172 -0.0843 -0.4260
18699DOD     C199916  17.161   4.595   6.170 -0.2086  0.0759  0.1390
18699DOD     C299917  17.147   4.497   6.617  0.0521  0.1810 -0.0309
18699DOD     C399918  17.050   4.074   6.818 -0.1207 -0.1071 -0.0886
18700DOD     C199919   0.553  12.233  22.714 -0.2096  0.2560 -0.2981
18700DOD     C299920   0.476  11.828  22.513  0.1562 -0.1828  0.1328
18700DOD     C399921   0.728  11.426  22.499 -0.0497 -0.0881 -0.1131
18701DOD     C199922   1.983   5.207   7.963 -0.1433 -0.2591 -0.2149
18701DOD     C299923   1.942   5.058   7.514 -0.1614 -0.0017 -0.0504
18701DOD     C399924   1.690   4.814   7.157 -0.0059  0.2849  0.1715
18702DOD     C199925  25.156  22.218  -0.017 -0.2565 -0.1224 -0.1720
18702DOD     C299926  25.028  21.771  30.289 -0.2834  0.0026  0.1668
18702DOD     C399927  24.996  21.334  -0.045  0.0999  0.2471 -0.3074
18703DOD     C199928  18.935  26.579   4.930 -0.0020 -0.0543  0.2230
18703DOD     C299929  19.335  26.357   5.034  0.4047 -0.0743  0.1966
18703DOD     C399930  19.740  26.524   4.852  0.2087 -0.0827 -0.2228
18704DOD     C199931  26.297  24.989  29.980  0.1639 -0.2812  0.1389
18704DOD     C299932  25.883  24.712  30.070 -0.1432  0.1079 -0.1233
18704DOD     C399933  25.468  24.655  29.887 -0.1432  0.0690  0.0171
18705DOD     C199934   3.429  19.809  20.953  0.1280  0.1425 -0.1674
18705DOD     C299935   3.278  20.273  21.020 -0.0677  0.2945 -0.0827
18705DOD     C399936   3.476  20.717  21.125 -0.3822  0.1003  0.1154
18706DOD     C199937  24.680   2.901  29.102 -0.1114 -0.0640  0.0363
18706DOD     C299938  24.304   2.625  29.022 -0.1283 -0.1662 -0.0492
18706DOD     C399939  24.130   2.226  29.204 -0.0384 -0.4677  0.0249
18707DOD     C199940  11.848  21.628  27.019  0.0150 -0.1011  0.3809
18707DOD     C299941  11.936  22.055  27.043 -0.1551 -0.1607  0.1901
18707DOD     C399942  11.719  22.455  26.915 -0.1699  0.1984  0.1454
18708DOD     C199943  23.499  27.358  13.438  0.3877 -0.0597  0.0953
18708DOD     C299944  23.652  27.524  13.087  0.1097 -0.1349 -0.2079
18708DOD     C399945  23.776  27.885  12.786  0.2313 -0.0677  0.1355
18709DOD     C199946  18.335  11.182  10.302 -0.1733 -0.1810  0.0409
18709DOD     C299947  18.533  11.184  10.717  0.1677  0.0634 -0.2113
18709DOD     C399948  18.543  10.956  11.159 -0.1597 -0.0736  0.0214
18710DOD     C199949  27.097  18.701  20.681  0.0372 -0.1194 -0.0959
18710DOD     C299950  26.967  18.332  20.860 -0.5860 -0.2830  0.2900
18710DOD     C399951  26.660  18.084  21.139  0.2099 -0.0718  0.2929
18711DOD     C199952   8.643  29.931   6.192  0.0548 -0.0303 -0.1029
18711DOD     C299953   8.514  29.536   5.925  0.0201  0.2094  0.0482
18711DOD     C399954   8.399  29.084   5.726 -0.1071 -0.0511 -0.0848
18712DOD     C199955  23.005   1.986   3.059 -0.3438 -0.0898  0.1808
18712DOD     C299956  22.920   1.893   2.630  0.0750  0.3239 -0.0880
18712DOD     C399957  23.172   1.706   2.234  0.1855 -0.4442 -0.0739
18713DOD     C199958   0.326   4.876  29.318  0.1237 -0.0164 -0.1112
18713DOD     C299959  30.218   5.074  29.501  0.2284 -0.0716  0.1705
18713DOD     C399960  29.957   5.383  29.677  0.3061 -0.4355 -0.1200
18714DOD     C199961  13.015  14.906  11.520 -0.5789 -0.2592  0.1585
18714DOD     C299962  12.545  14.862  11.590  0.0406 -0.1198  0.4073
18714DOD     C399963  12.034  14.800  11.672 -0.1828  0.2868  0.0762
18715DOD     C199964  17.250   6.143  19.728  0.3510  0.1069 -0.1303
18715DOD     C299965  17.467   6.359  19.406 -0.5036 -0.0205 -0.2779
18715DOD     C399966  17.563   6.731  19.090 -0.0250 -0.0111  0.1690
18716DOD     C199967  16.828  28.214   1.451 -0.2688 -0.0359 -0.2000
18716DOD     C299968  16.598  28.147   1.885 -0.1439  0.2809  0.0781
18716DOD     C399969  16.425  28.269   2.308  0.0904 -0.0283 -0.4872
18717DOD     C199970  10.481  16.433  17.462 -0.1646  0.2373 -0.0880
18717DOD     C299971  10.263  16.078  17.510 -0.2753 -0.2967  0.1112
18717DOD     C399972  10.133  15.658  17.694  0.3010 -0.0341 -0.3153
18718DOD     C199973  26.077  25.360  27.841 -0.3645  0.0166  0.1398
18718DOD     C299974  26.452  25.058  27.776 -0.0492  0.1882  0.1634
18718DOD     C399975  26.867  24.866  27.827 -0.1575 -0.1708  0.0027
18719DOD     C199976   3.128  11.124  15.155 -0.3172  0.0072 -0.2403
18719DOD     C299977   3.117  11.066  14.707 -0.4364  0.0148  0.0060
18719DOD     C399978   2.978  11.235  14.303 -0.3268 -0.0329 -0.2745
18720DOD     C199979  19.649   8.800   4.620 -0.0090  0.3580  0.1450
18720DOD     C299980  19.675   8.810   5.073  0.2123  0.0738 -0.0101
18720DOD     C399981  19.772   8.597   5.500 -0.0681 -0.3996 -0.1689
18721DOD     C199982   8.920  17.962  10.187 -0.1400 -0.0930  0.0523
18721DOD     C299983   8.999  17.545  10.092 -0.0905  0.0069 -0.3650
18721DOD     C399984   8.995  17.063  10.018 -0.0181  0.2342  0.1624
18722DOD     C199985  25.455  26.764   0.508  0.0963  0.1838 -0.0809
18722DOD     C299986  25.154  26.502   0.215 -0.1436  0.0237  0.0952
18722DOD     C399987  24.782  26.188   0.154  0.2843  0.1158 -0.1337
18723DOD     C199988  22.912  27.123   7.305  0.1838  0.0565 -0.1247
18723DOD     C299989  22.840  26.798   7.604 -0.0677  0.0491 -0.1835
18723DOD     C399990  22.464  26.548   7.781 -0.0076  0.1250  0.0751
18724DOD     C199991   6.150  21.435  22.307 -0.0873 -0.0172  0.1754
18724DOD     C299992   5.970  21.442  21.889  0.0246 -0.2634 -0.3712
18724DOD     C399993   5.601  21.264  21.665 -0.2807 -0.2786 -0.3094
18725DOD     C199994   7.002  19.254  20.156  0.0720  0.0661  0.4302
18725DOD     C299995   6.832  19.679  20.141 -0.3159 -0.0538  0.0514
18725DOD     C399996   6.513  19.956  20.284 -0.1385 -0.4641  0.2182
18726DOD     C199997   1.661   2.038  29.755  0.0850 -0.3093 -0.1799
18726DOD     C299998   1.787   1.871  30.175 -0.2679 -0.2089  0.2814
18726DOD     C399999   1.908   1.634   0.256  0.2135 -0.2366 -0.3125
18727DOD     C1    0   0.532  21.253  16.931  0.1888  0.1438  0.1051
18727DOD     C2    1   0.249  20.959  16.677  0.0339  0.0059 -0.0901
18727DOD     C3    2  30.195  20.704  16.571 -0.0877 -0.2162 -0.0628
18728DOD     C1    3   2.852  26.372  20.356  0.1494  0.0233 -0.1318
18728DOD     C2    4   2.890  26.110  20.756  0.0164 -0.0552 -0.0559
18728DOD     C3    5   2.789  25.769  21.117  0.1335  0.2006  0.3958
18729DOD     C1    6  11.754   9.912  14.825 -0.0769 -0.2754 -0.0913
18729DOD     C2    7  12.143   9.750  15.035 -0.2797 -0.0552  0.0272
18729DOD     C3    8  12.286   9.318  15.085  0.5337 -0.0591 -0.0626
18730DOD     C1    9   2.514   7.121  15.716  0.3872 -0.1999 -0.2079
18730DOD     C2   10   2.174   7.113  15.980  0.0241  0.0915 -0.1600
18730DOD     C3   11   1.871   7.293  16.298  0.5198  0.1549  0.0575
18731DOD     C1   12  30.134  20.010  19.227  0.0420  0.0489  0.1053
18731DOD     C2   13  29.786  20.028  19.542 -0.2581  0.0097  0.3343
18731DOD     C3   14  29.418  19.933  19.773 -0.0498  0.0994  0.1163
18732DOD     C1   15  17.434  21.135  26.928  0.0107  0.0004  0.1106
18732DOD     C2   16  17.540  21.264  27.390  0.1044  0.3086  0.2342
18732DOD     C3   17  17.756  21.627  27.612  0.0600  0.0842  0.0076
18733DOD     C1   18  20.601   8.565  26.436 -0.2888 -0.2642  0.1073
18733DOD     C2   19  20.962   8.887  26.339 -0.0388  0.2756  0.1368
18733DOD     C3   20  21.327   8.923  26.134 -0.2576 -0.0778  0.0606
18734DOD     C1   21  20.557   9.720  24.932 -0.1991 -0.1231  0.1448
18734DOD     C2   22  20.400   9.449  24.534 -0.2701 -0.1593 -0.1508
18734DOD     C3   23  20.297   9.130  24.223 -0.0201  0.0861  0.0441
18735DOD     C1   24  23.884  23.107  27.003  0.0604 -0.1314 -0.3511
18735DOD     C2   25  24.097  23.130  27.398  0.0458 -0.0422 -0.1989
18735DOD     C3   26  24.227  22.959  27.857 -0.0691  0.1278 -0.1067
18736DOD     C1   27  21.335  24.853  14.203  0.0210  0.0877  0.1989
18736DOD     C2   28  21.275  25.203  13.883  0.0598  0.0911 -0.1912
18736DOD     C3   29  21.356  25.632  13.614  0.0777  0.1450 -0.1132
18737DOD     C1   30  15.478  14.844  29.172  0.0689 -0.1303  0.1675
18737DOD     C2   31  15.195  14.945  28.869  0.1734 -0.0626  0.1040
18737DOD     C3   32  14.858  15.266  28.790  0.1790 -0.0852  0.2144
18738DOD     C1   33  18.488  26.550   1.750  0.2224  0.2093  0.1328
18738DOD     C2   34  18.230  26.463   2.078 -0.1217 -0.0269  0.1687
18738DOD     C3   35  18.112  26.879   2.210 -0.1411  0.1159  0.0375
18739DOD     C1   36  27.451  14.338  23.157 -0.0394  0.0190  0.0852
18739DOD     C2   37  27.216  13.926  23.355 -0.0643  0.0817  0.0884
18739DOD     C3   38  26.984  13.565  23.143  0.2036  0.0359 -0.2711
18740DOD     C1   39  11.129  29.511  11.360 -0.0558  0.0839 -0.1683
18740DOD     C2   40  11.536  29.237  11.433  0.0833 -0.1590 -0.1034
18740DOD     C3   41  11.832  28.906  11.397 -0.0676  0.0902 -0.2348
18741DOD     C1   42   9.142  21.505  29.320  0.0274 -0.0366 -0.3287
18741DOD     C2   43   9.343  21.883  29.260 -0.1185  0.1675 -0.0519
18741DOD     C3   44   9.433  22.102  28.863  0.0550 -0.0739 -0.0590
18742DOD     C1   45   1.438  16.446  14.360  0.1741  0.2078 -0.2274
18742DOD     C2   46   1.760  16.699  14.540 -0.0366 -0.2372 -0.1623
18742DOD     C3   47   1.950  16.888  14.877  0.2676 -0.0520 -0.2484
18743DOD     C1   48  10.486  27.396  20.911  0.0175  0.1324 -0.0651
18743DOD     C2   49  10.517  27.475  20.461  0.0489 -0.0721  0.0823
18743DOD     C3   50  10.524  27.629  19.998 -0.0032 -0.0670 -0.1367
18744DOD     C1   51  22.075  15.408  11.806  0.0375  0.1019 -0.0996
18744DOD     C2   52  22.203  15.170  12.164 -0.0515  0.0075  0.0851
18744DOD     C3   53  22.089  14.798  12.435  0.1043  0.0743  0.0975
18745DOD     C1   54   5.267  11.302   4.016 -0.0280 -0.0784 -0.2246
18745DOD     C2   55   5.476  11.641   4.149  0.1859  0.0669  0.2618
18745DOD     C3   56   5.732  12.020   4.221  0.2016 -0.3162  0.1254
18746DOD     C1   57   5.890  19.555  12.447  0.1149 -0.3881 -0.0750
18746DOD     C2   58   5.736  19.715  12.822  0.0796 -0.0590 -0.4543
18746DOD     C3   59   5.886  19.955  13.172  0.0502 -0.4607 -0.2285
18747DOD     C1   60   9.208   2.273  20.247  0.1769  0.0566  0.0699
18747DOD     C2   61   8.868   2.405  20.594  0.1309  0.0856 -0.1425
18747DOD     C3   62   8.510   2.593  20.837 -0.0486 -0.1441 -0.0040
18748DOD     C1   63   3.830   9.065  29.430  0.1959 -0.0547 -0.1372
18748DOD     C2   64   3.876   9.288  29.842  0.2477 -0.2065  0.3619
18748DOD     C3   65   4.156   9.083  30.157  0.1262  0.1241  0.2849
18749DOD     C1   66   8.788  10.611   2.411  0.0188  0.0995 -0.1625
18749DOD     C2   67   8.604  10.650   2.847 -0.0147 -0.3749 -0.3571
18749DOD     C3   68   8.614  10.744   3.303  0.0162  0.0379  0.2529
18750DOD     C1   69   0.123  16.170  26.004  0.1758 -0.2587 -0.0704
18750DOD     C2   70  30.074  15.900  25.917  0.0253  0.1511  0.1449
18750DOD     C3   71  29.803  15.610  25.703  0.1705  0.0680  0.1230
18751DOD     C1   72  18.999  16.411   6.549 -0.1274  0.0451  0.0052
18751DOD     C2   73  19.286  16.664   6.844  0.0199  0.1164 -0.3263
18751DOD     C3   74  19.707  16.545   6.971  0.4673  0.2707 -0.1683
18752DOD     C1   75  24.547  23.834   0.454  0.1294 -0.0534 -0.5276
18752DOD     C2   76  24.274  23.601   0.114  0.3105  0.1457 -0.1244
18752DOD     C3   77  24.007  23.725  30.058 -0.0497  0.1638 -0.1015
18753DOD     C1   78   1.751  17.804  19.781  0.0424 -0.0876 -0.2401
18753DOD     C2   79   2.047  17.731  19.440 -0.2709 -0.0057  0.1481
18753DOD     C3   80   2.257  17.500  19.138 -0.0201  0.1446  0.1071
18754DOD     C1   81  21.317  15.130  27.674  0.0012 -0.1444  0.1778
18754DOD     C2   82  20.929  15.160  27.365  0.0772  0.2847 -0.5094
18754DOD     C3   83  20.609  14.882  27.219 -0.0517 -0.0430 -0.0077
18755DOD     C1   84  10.716   6.456   0.794  0.4672  0.1727 -0.1604
18755DOD     C2   85  10.836   6.368   0.390 -0.1462  0.2197 -0.2494
18755DOD     C3   86  11.213   6.275   0.107 -0.0010 -0.0261 -0.1753
18756DOD     C1   87  16.463  16.793   7.471  0.0057  0.0325  0.0243
18756DOD     C2   88  16.589  16.338   7.407  0.0346  0.2776  0.4017
18756DOD     C3   89  16.702  15.866   7.403  0.1503 -0.3144  0.1065
18757DOD     C1   90  24.980  17.546  11.738  0.0200  0.2154 -0.1956
18757DOD     C2   91  24.620  17.607  11.985 -0.3762  0.0373 -0.1888
18757DOD     C3   92  24.175  17.580  12.091 -0.1178 -0.2339 -0.3364
18758DOD     C1   93   2.172  12.832  23.478 -0.0558  0.0122 -0.4131
18758DOD     C2   94   1.819  12.643  23.796 -0.0401  0.0733 -0.0537
18758DOD     C3   95   1.709  12.368  24.115 -0.0347  0.1910 -0.0028
18759DOD     C1   96   5.150   4.452   3.062  0.0937 -0.2644 -0.1406
18759DOD     C2   97   5.159   4.831   3.252  0.0671 -0.0722  0.2244
18759DOD     C3   98   4.941   5.231   3.367 -0.1803  0.0575  0.1548
18760DOD     C1   99  13.471  17.470  13.667 -0.1669  0.0831  0.0749
18760DOD     C2  100  13.457  17.860  13.922 -0.0500 -0.0775  0.2254
18760DOD     C3  101  13.312  18.333  13.895 -0.1070 -0.1268  0.1242
18761DOD     C1  102  14.894  27.468  12.048 -0.1387 -0.1621 -0.0939
18761DOD     C2  103  14.605  27.097  11.984  0.2404  0.4205  0.1926
18761DOD     C3  104  14.291  26.721  11.848  0.1064 -0.0556 -0.4637
18762DOD     C1  105  27.623  23.561  18.754  0.2664  0.0806  0.0050
18762DOD     C2  106  28.099  23.607  18.948  0.0956  0.0181 -0.0418
18762DOD     C3  107  28.274  23.787  19.376  0.0246 -0.2807  0.2071
18763DOD     C1  108  11.058  10.437  10.506  0.0173  0.0064  0.1614
18763DOD     C2  109  11.178  10.037  10.471  0.1439 -0.1449  0.1116
18763DOD     C3  110  11.086   9.608  10.515  0.2323 -0.0608  0.0634
18764DOD     C1  111  10.311   0.670  12.472 -0.0567 -0.1065  0.0914
18764DOD     C2  112  10.596   0.676  12.127 -0.3059 -0.2039 -0.0666
18764DOD     C3  113  10.948   0.629  11.859 -0.0033 -0.0288 -0.0500
18765DOD     C1  114   7.912  21.499   3.310  0.1475  0.0848 -0.4158
18765DOD     C2  115   8.199  21.706   3.553 -0.0731 -0.2550  0.0394
18765DOD     C3  116   8.361  21.811   3.945  0.0258 -0.4046 -0.1542
18766DOD     C1  117  17.103  21.759  14.216 -0.0211  0.3223 -0.1443
18766DOD     C2  118  17.020  21.705  13.751 -0.0976 -0.3503 -0.1149
18766DOD     C3  119  17.028  21.741  13.296  0.1061 -0.0466  0.2506
18767DOD     C1  120  13.792   7.652   4.109 -0.1905 -0.1098  0.0998
18767DOD     C2  121  13.833   7.859   3.654  0.1039  0.1351 -0.0750
18767DOD     C3  122  13.696   8.265   3.547 -0.1191  0.0191  0.1724
18768DOD     C1  123   0.139  17.590   8.342  0.0963  0.0382  0.2797
18768DOD     C2  124   0.072  18.019   8.416  0.3104 -0.0674  0.1523
18768DOD     C3  125  30.241  18.412   8.623  0.0453  0.0881  0.2547
18769DOD     C1  126   9.889   0.170  21.641  0.1351 -0.0649 -0.4192
18769DOD     C2  127   9.923  30.270  21.234 -0.1621  0.0979  0.2157
18769DOD     C3  128   9.905  29.788  21.070  0.1306 -0.1342 -0.2236
18770DOD     C1  129   9.269  24.564   9.558  0.1018 -0.1182 -0.1055
18770DOD     C2  130   9.421  24.818   9.902 -0.1034 -0.1831 -0.1340
18770DOD     C3  131   9.570  24.860  10.374  0.0060  0.0132  0.0996
18771DOD     C1  132  24.362  10.186  29.428  0.1820  0.1398 -0.0432
18771DOD     C2  133  23.964   9.956  29.467  0.0374 -0.2783 -0.0670
18771DOD     C3  134  23.568   9.915  29.252  0.0315  0.2724 -0.1437
18772DOD     C1  135  13.665   1.379  18.426  0.0795  0.0746  0.1694
18772DOD     C2  136  13.510   0.921  18.518 -0.1633  0.0836 -0.0410
18772DOD     C3  137  13.582   0.566  18.812  0.0269 -0.2060 -0.0348
18773DOD     C1  138  14.828  21.076  13.587  0.3749  0.1756  0.3043
18773DOD     C2  139  14.911  20.817  13.964 -0.0928  0.1864  0.0020
18773DOD     C3  140  15.089  20.720  14.409 -0.1616 -0.0188  0.0492
18774DOD     C1  141  24.991  15.753   3.846  0.1851 -0.2725 -0.0979
18774DOD     C2  142  25.143  15.525   4.234  0.2543 -0.3042  0.0322
18774DOD     C3  143  25.433  15.266   4.386  0.1093 -0.2847  0.0820
18775DOD     C1  144  28.474  20.295  24.732 -0.1680  0.1497  0.0773
18775DOD     C2  145  28.317  20.553  24.432  0.0500  0.4721 -0.0232
18775DOD     C3  146  28.329  21.003  24.553 -0.3390  0.0865  0.0560
18776DOD     C1  147  15.139  19.570  25.484 -0.0932  0.1431  0.1292
18776DOD     C2  148  15.562  19.365  25.690  0.0413 -0.0126  0.1346
18776DOD     C3  149  15.751  19.518  26.129 -0.0150 -0.1240  0.2680
18777DOD     C1  150  23.218  11.266  16.594 -0.0000  0.0982  0.2895
18777DOD     C2  151  23.358  11.620  16.905  0.2257 -0.0803 -0.0100
18777DOD     C3  152  23.771  11.792  17.165 -0.0112  0.2689 -0.0742
18778DOD     C1  153  22.547  28.391  15.814 -0.1436 -0.0236 -0.1402
18778DOD     C2  154  22.072  28.550  15.682 -0.1492  0.2073 -0.2352
18778DOD     C3  155  21.827  28.662  15.325  0.1486 -0.0295 -0.0451
18779DOD     C1  156   8.820   3.477  13.263  0.3115 -0.0295 -0.0551
18779DOD     C2  157   8.712   3.928  13.372 -0.2105 -0.0754  0.0581
18779DOD     C3  158   8.832   4.370  13.440  0.1226  0.0985 -0.0028
18780DOD     C1  159   4.055  14.478  20.957 -0.0048 -0.7531  0.0469
18780DOD     C2  160   4.345  14.107  20.870  0.1550  0.3720  0.1424
18780DOD     C3  161   4.814  14.074  20.822  0.2435  0.0284  0.0574
18781DOD     C1  162  14.073  26.947  29.515  0.3001 -0.1678  0.0576
18781DOD     C2  163  14.521  26.934  29.779  0.1072 -0.2696  0.3872
18781DOD     C3  164  14.731  26.685  30.140 -0.0425 -0.0027  0.2919
18782DOD     C1  165   7.643  25.730  30.182 -0.1579 -0.0069  0.1932
18782DOD     C2  166   7.866  25.431   0.140  0.1578  0.0566  0.1224
18782DOD     C3  167   7.914  25.336   0.596  0.3198 -0.1893 -0.1012
18783DOD     C1  168  23.709  28.897  18.936 -0.1381 -0.0429  0.1801
18783DOD     C2  169  23.518  28.467  18.935  0.2200  0.0255  0.1484
18783DOD     C3  170  23.190  28.154  18.827 -0.0472  0.0069  0.2090
18784DOD     C1  171   6.000  27.185   4.831  0.0899 -0.0569  0.1868
18784DOD     C2  172   6.193  27.226   4.426 -0.1724  0.3702  0.1976
18784DOD     C3  173   6.171  27.181   4.001 -0.0784 -0.1417 -0.0275
18785DOD     C1  174  13.255   9.312  26.406 -0.0669  0.0190 -0.0623
18785DOD     C2  175  13.631   9.195  26.531  0.1391  0.0192 -0.1604
18785DOD     C3  176  14.085   9.133  26.689  0.0852  0.0162 -0.0445
18786DOD     C1  177  25.983   0.356   0.124 -0.2151 -0.3031  0.1809
18786DOD     C2  178  25.995   0.053  30.061 -0.1302 -0.4360  0.1890
18786DOD     C3  179  25.749  29.968  29.935 -0.1823  0.0513  0.0882
18787DOD     C1  180  27.084  25.986  25.855 -0.0122  0.2663  0.2210
18787DOD     C2  181  27.425  25.715  26.009  0.1221 -0.1830 -0.1433
18787DOD     C3  182  27.785  25.510  26.219  0.2857 -0.3764  0.2412
18788DOD     C1  183   4.092  14.900   9.427 -0.0690 -0.0483  0.1146
18788DOD     C2  184   3.724  15.013   9.721 -0.3158  0.0818 -0.0683
18788DOD     C3  185   3.333  15.064   9.882  0.0303 -0.1501  0.0841
18789DOD     C1  186   0.044  29.115  25.598 -0.4017 -0.0302  0.1334
18789DOD     C2  187   0.251  29.058  26.039  0.3922  0.1897  0.1506
18789DOD     C3  188   0.570  28.799  26.326  0.0376 -0.4342  0.1797
18790DOD     C1  189   4.569  29.010  19.811  0.0931 -0.2287 -0.0529
18790DOD     C2  190   4.361  28.600  19.851 -0.0259 -0.0914 -0.1758
18790DOD     C3  191   3.998  28.413  19.979  0.0044  0.1524  0.1437
18791DOD     C1  192  19.416  13.831  26.414 -0.3026  0.0444  0.1846
18791DOD     C2  193  19.520  14.252  26.247 -0.2808 -0.0544 -0.0953
18791DOD     C3  194  19.968  14.245  26.082 -0.2146 -0.0528 -0.2704
18792DOD     C1  195  24.176  19.689  26.402 -0.0511 -0.0794  0.1280
18792DOD     C2  196  23.878  19.455  26.694 -0.2135  0.1644  0.0876
18792DOD     C3  197  23.443  19.440  26.861 -0.0650  0.0691 -0.2837
18793DOD     C1  198   5.108   5.685  12.405  0.2023  0.0851  0.0285
18793DOD     C2  199   5.200   5.684  12.844  0.2147 -0.1623 -0.0583
18793DOD     C3  200   5.043   5.435  13.233  0.0989  0.0720 -0.0456
18794DOD     C1  201  26.710   6.626  16.463 -0.2008 -0.1041  0.0951
18794DOD     C2  202  26.552   6.336  16.714  0.0157 -0.2642  0.1364
18794DOD     C3  203  26.498   5.891  16.687  0.1210 -0.4470  0.0343
18795DOD     C1  204   2.985  21.323  12.168 -0.2852 -0.1547  0.3491
18795DOD     C2  205   3.133  21.570  11.810 -0.2058  0.0444 -0.0104
18795DOD     C3  206   3.050  21.856  11.473 -0.0809  0.1448 -0.1029
18796DOD     C1  207  21.348   3.606  14.837  0.1218 -0.1584  0.0891
18796DOD     C2  208  21.535   3.675  15.265  0.0116 -0.0494  0.0188
18796DOD     C3  209  21.912   3.676  15.522 -0.2302  0.1578  0.0271
18797DOD     C1  210   4.048   4.416  15.304  0.0773 -0.0481  0.2828
18797DOD     C2  211   4.130   4.608  14.860  0.0203 -0.1830 -0.2392
18797DOD     C3  212   4.197   4.893  14.495 -0.1963 -0.0347 -0.0504
18798DOD     C1  213  27.082  11.344  19.170  0.0608 -0.2524  0.1279
18798DOD     C2  214  27.291  11.776  19.219  0.1950  0.0293 -0.0143
18798DOD     C3  215  27.116  12.212  19.040  0.0592  0.0196  0.0861
18799DOD     C1  216  18.150   2.226   1.185  0.0897  0.1900  0.2767
18799DOD     C2  217  17.793   2.487   1.117 -0.0794 -0.1873  0.1359
18799DOD     C3  218  17.346   2.510   1.330  0.1808 -0.1518 -0.0035
18800DOD     C1  219  25.572  19.288  24.101 -0.0836  0.0478  0.1037
18800DOD     C2  220  25.529  19.545  23.664  0.0657  0.1646 -0.4104
18800DOD     C3  221  25.383  19.928  23.419  0.0194 -0.0878 -0.0573
18801DOD     C1  222  22.958  29.280  12.878 -0.0371  0.0166 -0.0058
18801DOD     C2  223  23.376  29.379  12.663  0.1204 -0.0086 -0.0134
18801DOD     C3  224  23.719  29.081  12.611 -0.1150  0.2410 -0.0508
18802DOD     C1  225  26.266  25.145  15.782 -0.1169 -0.1310 -0.0048
18802DOD     C2  226  26.411  25.564  15.909 -0.3056 -0.4498  0.1073
18802DOD     C3  227  26.374  26.000  15.808 -0.2802  0.1805  0.2585
18803DOD     C1  228  21.811   1.451  21.899 -0.0947  0.4397  0.1744
18803DOD     C2  229  21.846   1.041  22.068  0.0419 -0.1517 -0.2352
18803DOD     C3  230  21.994   0.625  22.166 -0.0530  0.2329  0.0292
18804DOD     C1  231  19.144  23.995  18.510 -0.1036  0.2703 -0.6499
18804DOD     C2  232  19.423  24.363  18.415 -0.0620  0.0359  0.0034
18804DOD     C3  233  19.644  24.554  18.050 -0.1586  0.0612  0.1860
18805DOD     C1  234   0.316  27.832  14.414  0.4132  0.0902  0.1316
18805DOD     C2  235   0.314  27.523  14.051  0.0765 -0.1265  0.0608
18805DOD     C3  236   0.276  27.143  13.818 -0.2535 -0.1208 -0.2191
18806DOD     C1  237   6.155  11.254  21.328 -0.0617 -0.1008  0.0162
18806DOD     C2  238   6.305  10.838  21.137 -0.2735  0.0866  0.1885
18806DOD     C3  239   6.578  10.723  20.766 -0.0889 -0.1143  0.0359
18807DOD     C1  240   2.137  16.391   9.750  0.0098  0.0378  0.1068
18807DOD     C2  241   2.093  15.901   9.730  0.2197 -0.1126 -0.2137
18807DOD     C3  242   2.275  15.422   9.979 -0.1265 -0.1646  0.1658
18808DOD     C1  243  23.466  14.573  22.249 -0.0007 -0.1510  0.1281
18808DOD     C2  244  23.019  14.767  22.393  0.0259  0.0048  0.1201
18808DOD     C3  245  22.814  15.147  22.553 -0.1017  0.0221  0.0389
18809DOD     C1  246  28.955  20.226  18.283 -0.2707 -0.1695 -0.2278
18809DOD     C2  247  28.685  19.913  18.071 -0.2134  0.0428  0.2531
18809DOD     C3  248  28.662  19.893  17.588  0.0565  0.0626  0.1571
18810DOD     C1  249  12.641  15.914   6.624  0.0097 -0.1298 -0.0999
18810DOD     C2  250  12.545  15.736   7.000  0.0468 -0.3297  0.1084
18810DOD     C3  251  12.784  15.650   7.434  0.1123 -0.1787  0.0516
18811DOD     C1  252  10.813   2.270   6.395  0.1001 -0.0447  0.0484
18811DOD     C2  253  11.109   2.541   6.176 -0.1818  0.2099 -0.1294
18811DOD     C3  254  11.433   2.827   6.206 -0.2337 -0.0267  0.0116
18812DOD     C1  255   0.733  14.260  22.095  0.0798  0.0901 -0.4029
18812DOD     C2  256   0.943  14.387  21.704  0.1036 -0.0405 -0.2462
18812DOD     C3  257   0.813  14.510  21.274 -0.1083  0.3864 -0.2173
18813DOD     C1  258  22.926   5.013  29.719  0.5440 -0.1184 -0.0951
18813DOD     C2  259  23.186   4.844  29.387  0.2170 -0.1732  0.1012
18813DOD     C3  260  23.451   4.468  29.325 -0.1484 -0.1618  0.2493
18814DOD     C1  261  26.390   2.555  11.702  0.1245  0.0818 -0.0684
18814DOD     C2  262  26.023   2.811  11.568  0.0007 -0.3606 -0.2540
18814DOD     C3  263  26.001   2.956  11.123  0.3033 -0.1208  0.1378
18815DOD     C1  264  14.443  28.777   4.035  0.0949  0.1187  0.0656
18815DOD     C2  265  14.292  28.371   3.902  0.0480  0.3892  0.1523
18815DOD     C3  266  13.928  28.492   3.602 -0.3971  0.1866 -0.1413
18816DOD     C1  267   4.718   8.724   3.878  0.1052  0.4345 -0.0035
18816DOD     C2  268   4.538   8.580   4.295 -0.0719  0.0493 -0.0413
18816DOD     C3  269   4.136   8.733   4.501  0.1357  0.0887  0.1175
18817DOD     C1  270   6.676  22.442   9.989  0.3023 -0.0567 -0.0494
18817DOD     C2  271   6.562  22.918   9.833 -0.0871  0.0079 -0.1987
18817DOD     C3  272   6.465  23.390   9.746 -0.0540  0.1674  0.4951
18818DOD     C1  273  23.114  10.776  14.643  0.3242  0.1728 -0.5107
18818DOD     C2  274  22.865  11.176  14.865 -0.2206  0.1356 -0.0362
18818DOD     C3  275  22.366  11.131  14.918 -0.1238 -0.0397 -0.2036
18819DOD     C1  276  28.247  18.303  24.137  0.2653  0.1379  0.1480
18819DOD     C2  277  28.615  18.552  24.369  0.0817  0.2189  0.2474
18819DOD     C3  278  28.927  18.952  24.397  0.1093  0.0285 -0.3015
18820DOD     C1  279  18.022  16.598  14.668 -0.1633  0.0050  0.1083
18820DOD     C2  280  17.593  16.483  14.821  0.4810 -0.0794  0.1876
18820DOD     C3  281  17.209  16.167  14.752  0.0273  0.0841  0.2643
18821DOD     C1  282   4.544   6.397   9.955  0.0395  0.0841 -0.1773
18821DOD     C2  283   4.129   6.403  10.174  0.0327 -0.0337 -0.0847
18821DOD     C3  284   3.791   6.672  10.381  0.4155 -0.0315  0.2210
18822DOD     C1  285  18.092   8.165   7.922 -0.1239  0.2122  0.2879
18822DOD     C2  286  18.414   8.454   8.039  0.2739 -0.4884 -0.1735
18822DOD     C3  287  18.413   8.798   8.386 -0.0694  0.0277  0.1143
18823DOD     C1  288   0.878   3.230  29.229 -0.0915 -0.3033  0.1165
18823DOD     C2  289   1.142   3.364  29.572 -0.1226 -0.2123 -0.0464
18823DOD     C3  290   1.368   3.490  29.942 -0.3138 -0.1060  0.1200
18824DOD     C1  291   1.926  11.582  25.372  0.0609  0.2179  0.0564
18824DOD     C2  292   1.535  11.425  25.589 -0.2854  0.3020 -0.1361
18824DOD     C3  293   1.080  11.426  25.543 -0.0976  0.1108 -0.2205
18825DOD     C1  294   1.234   7.112  23.283  0.0097  0.0541  0.0131
18825DOD     C2  295   1.387   7.167  22.862  0.1217 -0.0399  0.1089
18825DOD     C3  296   1.369   7.430  22.421  0.3010 -0.2082 -0.1729
18826DOD     C1  297  22.253  14.212  22.836  0.0582  0.3353  0.2019
18826DOD     C2  298  22.426  14.558  23.059  0.4721  0.1560 -0.1133
18826DOD     C3  299  22.655  14.801  23.375 -0.3553  0.1507 -0.2400
18827DOD     C1  300   1.769   4.947  11.348  0.0827  0.0116 -0.1945
18827DOD     C2  301   2.225   4.949  11.525 -0.1841 -0.0729  0.2126
18827DOD     C3  302   2.690   5.029  11.454  0.2542 -0.0274  0.1011
18828DOD     C1  303  19.493   1.203  19.648  0.2492 -0.0328  0.2512
18828DOD     C2  304  19.031   1.100  19.571  0.0688  0.0204  0.2123
18828DOD     C3  305  18.633   0.932  19.375 -0.1281  0.0767 -0.1563
18829DOD     C1  306  20.379  22.485  29.348 -0.1573 -0.0517  0.0688
18829DOD     C2  307  20.422  22.798  29.639 -0.0798 -0.1896  0.5427
18829DOD     C3  308  20.123  22.986  29.938 -0.2555 -0.2107 -0.2176
18830DOD     C1  309  21.190  11.414   4.520 -0.1169 -0.4116 -0.1600
18830DOD     C2  310  21.443  11.187   4.216 -0.0290  0.0027 -0.0411
18830DOD     C3  311  21.488  11.402   3.827 -0.0733 -0.1484 -0.3143
18831DOD     C1  312   3.081   5.692  16.443 -0.1476  0.0053  0.2394
18831DOD     C2  313   2.721   5.856  16.451 -0.1608 -0.0476 -0.4105
18831DOD     C3  314   2.351   5.608  16.623  0.0606 -0.0402 -0.1758
18832DOD     C1  315  24.269   7.420  22.578 -0.3443 -0.2348  0.1760
18832DOD     C2  316  24.402   6.994  22.447 -0.2922 -0.2232 -0.0931
18832DOD     C3  317  24.656   6.583  22.570  0.0738  0.0335 -0.3696
18833DOD     C1  318   7.640  23.775  29.140 -0.0629  0.0135 -0.2074
18833DOD     C2  319   7.965  23.497  28.931 -0.1175 -0.4836 -0.1413
18833DOD     C3  320   8.357  23.324  28.784  0.3314  0.0123  0.0041
18834DOD     C1  321  20.526  26.910  17.548 -0.0731 -0.2026  0.1287
18834DOD     C2  322  20.616  26.471  17.793 -0.1702  0.1145 -0.0478
18834DOD     C3  323  20.573  26.191  18.189  0.1731  0.1514 -0.1631
18835DOD     C1  324  16.858  27.287   5.316 -0.1723 -0.1927  0.0256
18835DOD     C2  325  16.798  26.822   5.254 -0.0658 -0.0509  0.2976
18835DOD     C3  326  16.846  26.384   5.421  0.2552 -0.0603  0.0419
18836DOD     C1  327  30.239   7.236  28.525 -0.0115  0.0204  0.0533
18836DOD     C2  328   0.224   6.992  28.322  0.2901 -0.0869 -0.0408
18836DOD     C3  329   0.500   6.889  27.990  0.0437 -0.1375  0.1716
18837DOD     C1  330  21.935  10.530  22.764 -0.1284  0.3103  0.4149
18837DOD     C2  331  22.179  10.754  22.465  0.1559 -0.3951 -0.0724
18837DOD     C3  332  22.096  11.006  22.081 -0.0864 -0.2924 -0.0706
18838DOD     C1  333  13.792  23.690   7.810 -0.1288  0.2596 -0.2405
18838DOD     C2  334  13.968  23.327   7.601 -0.1566  0.1867 -0.2422
18838DOD     C3  335  14.070  22.927   7.667  0.1123  0.1853 -0.0706
18839DOD     C1  336   2.268  15.730  17.453  0.3295 -0.3233 -0.0879
18839DOD     C2  337   2.157  15.588  17.033 -0.0453 -0.0206 -0.2390
18839DOD     C3  338   2.150  15.510  16.616  0.2245  0.1043 -0.0874
18840DOD     C1  339  18.166   9.783   1.631 -0.0261  0.1198  0.0872
18840DOD     C2  340  18.576   9.765   1.324 -0.1840  0.4123 -0.0919
18840DOD     C3  341  18.629   9.761   0.849 -0.0940  0.1458 -0.0128
18841DOD     C1  342  28.113  23.119  27.753  0.0815 -0.0397 -0.0013
18841DOD     C2  343  28.442  23.394  27.950 -0.0356  0.0434  0.0846
18841DOD     C3  344  28.890  23.529  27.918 -0.0476  0.1796  0.1517
18842DOD     C1  345  26.988   9.716  18.832 -0.0315 -0.2106 -0.2386
18842DOD     C2  346  27.354  10.083  18.847 -0.0044 -0.0686 -0.0359
18842DOD     C3  347  27.277  10.500  18.566  0.5178 -0.0777  0.0931
18843DOD     C1  348   9.053  16.392   6.312 -0.1732  0.0025  0.2290
18843DOD     C2  349   8.826  16.547   6.759  0.3515  0.0275 -0.1587
18843DOD     C3  350   8.842  16.884   7.002 -0.3057 -0.0492  0.3182
18844DOD     C1  351   7.490  11.985  24.179  0.2268 -0.3045 -0.0806
18844DOD     C2  352   7.707  11.846  23.842 -0.1117  0.0327 -0.0041
18844DOD     C3  353   8.026  11.866  23.502  0.0081  0.0030  0.0440
18845DOD     C1  354  19.261   5.174  25.824 -0.0924 -0.1518 -0.0005
18845DOD     C2  355  18.893   5.123  25.612 -0.2317 -0.1009  0.0370
18845DOD     C3  356  18.524   5.200  25.325  0.3955 -0.2569  0.4866
18846DOD     C1  357  22.594   9.533  17.728  0.2349  0.0181 -0.4963
18846DOD     C2  358  22.744   9.602  17.315 -0.1138 -0.0631  0.0716
18846DOD     C3  359  22.794   9.599  16.866 -0.0563 -0.0878  0.0742
18847DOD     C1  360   0.469  17.935   8.059 -0.0124  0.3625  0.2094
18847DOD     C2  361   0.411  17.758   7.616  0.1870  0.0892 -0.1046
18847DOD     C3  362   0.333  17.567   7.201 -0.0069 -0.2542 -0.0354
18848DOD     C1  363  17.141   5.263  10.792 -0.1808 -0.3792  0.0960
18848DOD     C2  364  17.378   4.984  10.531  0.0905 -0.2745  0.1231
18848DOD     C3  365  17.718   5.046  10.193  0.4162 -0.1043 -0.2874
18849DOD     C1  366   7.812  12.865   2.752 -0.1535 -0.0641  0.0040
18849DOD     C2  367   7.482  12.544   2.967  0.3079 -0.2678 -0.0667
18849DOD     C3  368   7.025  12.517   3.044 -0.1454 -0.3287  0.0676
18850DOD     C1  369   0.204  16.423   4.225 -0.0052  0.2070  0.0935
18850DOD     C2  370   0.343  16.036   4.467 -0.0316  0.4163 -0.3964
18850DOD     C3  371   0.222  15.552   4.539 -0.0465 -0.1925 -0.1442
18851DOD     C1  372   4.458  10.892  13.472  0.2716 -0.1139  0.1485
18851DOD     C2  373   4.354  11.090  13.047 -0.1582 -0.0470 -0.1819
18851DOD     C3  374   4.385  11.443  12.726 -0.1932  0.1348  0.0395
18852DOD     C1  375  16.978  29.742   5.971 -0.1410 -0.1874 -0.2006
18852DOD     C2  376  16.939  29.485   5.567  0.1832  0.2726  0.0762
18852DOD     C3  377  16.956  29.457   5.094 -0.0731  0.0859 -0.1384
18853DOD     C1  378   4.021  27.318   7.254  0.0829 -0.0507 -0.2393
18853DOD     C2  379   4.263  27.353   6.855 -0.0953 -0.1062 -0.0543
18853DOD     C3  380   4.556  27.106   6.648 -0.0272 -0.0958 -0.0331
18854DOD     C1  381  13.568   0.433  20.017  0.0785  0.0767 -0.0113
18854DOD     C2  382  13.905   0.341  19.663  0.0133  0.1141 -0.2144
18854DOD     C3  383  13.975   0.277  19.234  0.0858 -0.2125  0.2107
18855DOD     C1  384   9.192  20.014   0.555 -0.1283  0.0328  0.1483
18855DOD     C2  385   9.553  19.695   0.541 -0.0807  0.1435  0.2909
18855DOD     C3  386   9.687  19.222   0.628  0.1843 -0.0983  0.0495
18856DOD     C1  387  16.639  17.118  20.578  0.1708  0.2144  0.3364
18856DOD     C2  388  16.212  17.217  20.371  0.3216  0.2611  0.0119
18856DOD     C3  389  15.780  17.148  20.167 -0.0560 -0.0034  0.2040
18857DOD     C1  390  19.198  20.841   2.552  0.3488  0.0613 -0.0758
18857DOD     C2  391  19.649  20.954   2.396  0.0904  0.2408  0.4386
18857DOD     C3  392  20.064  21.212   2.469  0.1613 -0.1280 -0.0311
18858DOD     C1  393  11.836  20.560   7.215 -0.2063 -0.1353  0.2254
18858DOD     C2  394  11.422  20.701   7.091  0.0055 -0.0980 -0.0761
18858DOD     C3  395  10.980  20.632   7.325 -0.2002  0.0056  0.1383
18859DOD     C1  396  18.479  22.619  15.365  0.0076 -0.0355  0.0894
18859DOD     C2  397  18.551  22.199  15.201 -0.1987  0.0378  0.2200
18859DOD     C3  398  18.908  21.870  15.233  0.2370  0.2031  0.3313
18860DOD     C1  399  24.117  14.246   6.050  0.3050 -0.3949  0.3581
18860DOD     C2  400  23.725  13.960   6.136 -0.1935  0.0095 -0.0599
18860DOD     C3  401  23.684  13.498   5.950  0.0780  0.3637 -0.3484
18861DOD     C1  402  13.443  20.655  15.443  0.0924 -0.0119  0.3051
18861DOD     C2  403  13.310  20.161  15.410 -0.1683 -0.2490  0.1166
18861DOD     C3  404  13.407  19.776  15.661  0.2546 -0.1270  0.1753
18862DOD     C1  405  29.000  29.750  23.454  0.1902 -0.0969  0.0469
18862DOD     C2  406  29.031  29.740  23.935  0.4061 -0.0672 -0.0490
18862DOD     C3  407  29.289  29.614  24.280 -0.1688 -0.0776 -0.2663
18863DOD     C1  408  17.299  12.951   6.675  0.0003 -0.0829  0.0028
18863DOD     C2  409  17.072  13.287   6.934  0.1709  0.1474 -0.0276
18863DOD     C3  410  16.839  13.527   7.295  0.0103  0.2895 -0.2286
18864DOD     C1  411   3.473  19.127  24.987  0.0784 -0.1105 -0.0961
18864DOD     C2  412   3.733  19.120  24.534  0.0320 -0.0391 -0.1457
18864DOD     C3  413   3.733  19.429  24.186  0.1439  0.0287 -0.1958
18865DOD     C1  414  13.189   8.074   0.443 -0.2029 -0.1018  0.0146
18865DOD     C2  415  12.736   8.006   0.409  0.2377 -0.3311  0.0458
18865DOD     C3  416  12.515   8.414   0.386 -0.1599 -0.3044 -0.0998
18866DOD     C1  417   2.788   1.052  13.643  0.2051 -0.0673  0.2208
18866DOD     C2  418   2.649   0.817  13.247 -0.1427  0.3928  0.0641
18866DOD     C3  419   2.848   0.715  12.871  0.0473 -0.2052 -0.0065
18867DOD     C1  420  23.673   9.795  23.267 -0.1253  0.0858 -0.2156
18867DOD     C2  421  23.895   9.726  22.852  0.1409 -0.0867  0.1033
18867DOD     C3  422  24.210  10.065  22.655  0.0986 -0.0075  0.0884
18868DOD     C1  423   2.369  30.251   7.116 -0.0643  0.1419  0.0628
18868DOD     C2  424   1.980   0.077   7.287  0.0055 -0.1245 -0.1381
18868DOD     C3  425   1.699  30.187   7.517  0.3176  0.0838 -0.3616
18869DOD     C1  426   8.297  10.453  23.454 -0.2812  0.0179 -0.0605
18869DOD     C2  427   8.012  10.699  23.647  0.2159  0.0468  0.3583
18869DOD     C3  428   8.156  11.006  23.930 -0.3601 -0.2002  0.0435
18870DOD     C1  429  15.369   7.251   7.143  0.1983  0.1147  0.0350
18870DOD     C2  430  15.771   7.538   7.242 -0.2383  0.2535 -0.1658
18870DOD     C3  431  16.212   7.591   7.345 -0.0670 -0.1326  0.2198
18871DOD     C1  432   6.726   6.434  13.927  0.3378  0.1485 -0.0826
18871DOD     C2  433   6.498   6.021  14.037  0.3940 -0.0331  0.2688
18871DOD     C3  434   6.200   5.731  14.181  0.2587  0.2072  0.1763
18872DOD     C1  435  17.595  13.702   5.671 -0.0561  0.2353  0.0033
18872DOD     C2  436  17.181  13.799   5.879 -0.1757 -0.3445  0.0066
18872DOD     C3  437  17.004  14.181   5.697  0.0781 -0.2164 -0.5184
18873DOD     C1  438  30.281  22.511   7.792  0.0602 -0.0508  0.2721
18873DOD     C2  439   0.062  22.083   7.630 -0.1027  0.3215  0.0231
18873DOD     C3  440  30.110  21.725   7.572 -0.1108 -0.0378 -0.1512
18874DOD     C1  441  20.488  23.996  14.938  0.2522 -0.4311 -0.1628
18874DOD     C2  442  20.280  23.837  15.355  0.0111  0.1535 -0.0017
18874DOD     C3  443  20.164  23.861  15.754  0.0940  0.0077 -0.2993
18875DOD     C1  444  13.109  12.088   0.150 -0.0558 -0.1336  0.0840
18875DOD     C2  445  13.236  11.732  30.149 -0.0109 -0.0118 -0.1768
18875DOD     C3  446  13.246  11.725  29.654 -0.4113  0.0781  0.2642
18876DOD     C1  447   2.922  25.846  25.790  0.0442 -0.0659  0.0155
18876DOD     C2  448   3.073  25.584  25.433  0.0689 -0.1150 -0.0962
18876DOD     C3  449   2.942  25.264  25.052  0.0428  0.1538  0.1407
18877DOD     C1  450  13.959   1.726   5.843 -0.0566 -0.2923  0.0819
18877DOD     C2  451  13.820   1.422   6.202 -0.2139 -0.3557  0.2451
18877DOD     C3  452  13.958   1.087   6.535  0.2659  0.1154  0.1486
18878DOD     C1  453   4.003  30.151   0.267  0.0316  0.0700  0.0187
18878DOD     C2  454   4.302  30.246   0.578  0.2883  0.0936  0.0215
18878DOD     C3  455   4.348   0.383   0.746  0.1401 -0.0274  0.0078
18879DOD     C1  456   2.754  17.406  29.877 -0.1795 -0.2093 -0.0124
18879DOD     C2  457   2.693  17.389  29.424  0.2846  0.0790  0.0779
18879DOD     C3  458   2.937  17.462  28.994  0.0463 -0.3082  0.1127
18880DOD     C1  459  19.258  25.309  15.996  0.0346 -0.3350  0.1087
18880DOD     C2  460  19.145  25.700  16.279 -0.3064 -0.2641 -0.0709
18880DOD     C3  461  18.973  25.952  16.618 -0.2476 -0.0908  0.1726
18881DOD     C1  462  11.592  20.652   6.162  0.1321  0.0043  0.0662
18881DOD     C2  463  12.009  20.438   6.141 -0.0415 -0.3123  0.1198
18881DOD     C3  464  12.345  20.128   6.013  0.0353 -0.2527  0.2497
18882DOD     C1  465   5.315  28.909   9.474  0.0843  0.2569 -0.1773
18882DOD     C2  466   5.282  28.979   8.981 -0.2452 -0.0014  0.1863
18882DOD     C3  467   5.270  28.966   8.511 -0.0583  0.0184 -0.2526
18883DOD     C1  468   9.272  17.892  20.051 -0.1174  0.0428 -0.1910
18883DOD     C2  469   9.188  18.358  20.191 -0.0646  0.0430 -0.4109
18883DOD     C3  470   9.181  18.781  20.329  0.0326  0.3813 -0.1744
18884DOD     C1  471  27.944  28.846  28.256  0.0812 -0.2643  0.0601
18884DOD     C2  472  27.605  28.541  28.230 -0.4110 -0.2112  0.0923
18884DOD     C3  473  27.170  28.370  28.351 -0.2979  0.0211 -0.0968
18885DOD     C1  474   9.040   8.842   9.550 -0.3746 -0.1232 -0.0966
18885DOD     C2  475   9.371   8.642   9.880  0.0839  0.1544 -0.1633
18885DOD     C3  476   9.826   8.489   9.972  0.3237  0.2091  0.0879
18886DOD     C1  477  25.186  18.431  25.483  0.2824 -0.2283 -0.2102
18886DOD     C2  478  25.008  18.195  25.042 -0.0098 -0.0847 -0.1964
18886DOD     C3  479  25.077  18.270  24.575  0.0200  0.3769 -0.0760
18887DOD     C1  480  15.414  11.856  18.287  0.5207 -0.2035  0.0790
18887DOD     C2  481  15.106  12.204  18.297  0.2215 -0.0252 -0.0136
18887DOD     C3  482  14.970  12.582  18.409 -0.3506  0.1803 -0.0375
18888DOD     C1  483   7.637  23.378  27.655  0.1604 -0.1853 -0.2198
18888DOD     C2  484   8.021  23.155  27.410  0.0966 -0.0611 -0.2925
18888DOD     C3  485   7.985  23.199  26.959 -0.0390  0.0073 -0.1427
18889DOD     C1  486   6.660  25.896  24.344  0.1964  0.1718  0.0189
18889DOD     C2  487   6.324  26.059  24.632  0.3255 -0.1649  0.1138
18889DOD     C3  488   6.167  26.479  24.684  0.1251  0.2701  0.0972
18890DOD     C1  489  25.971  14.797  25.048 -0.1543 -0.1075 -0.0192
18890DOD     C2  490  26.220  15.216  24.983 -0.0643  0.1592 -0.0006
18890DOD     C3  491  26.156  15.593  24.758 -0.0565 -0.0739  0.0688
18891DOD     C1  492  21.167  24.289   0.349 -0.1409 -0.3935 -0.0324
18891DOD     C2  493  21.229  24.520  30.289 -0.1685  0.0525  0.1147
18891DOD     C3  494  21.538  24.760  30.007  0.1913 -0.1675  0.0494
18892DOD     C1  495  28.902   9.662  20.919 -0.3224 -0.0433 -0.2290
18892DOD     C2  496  28.647   9.958  21.089  0.2637  0.1131 -0.1385
18892DOD     C3  497  28.769  10.259  21.417  0.4155 -0.1064  0.1092
18893DOD     C1  498  18.234   9.230  25.507  0.2325  0.0913 -0.0095
18893DOD     C2  499  18.212   8.879  25.266  0.1270  0.0314  0.0160
18893DOD     C3  500  18.197   8.517  24.977  0.1949  0.2287  0.0224
18894DOD     C1  501   5.881  20.785   5.584 -0.1096 -0.1525 -0.2155
18894DOD     C2  502   6.147  21.031   5.245 -0.3137 -0.0120 -0.5325
18894DOD     C3  503   6.161  21.114   4.821 -0.1859  0.1521 -0.1967
18895DOD     C1  504  10.998  25.936  21.472  0.1414 -0.1348  0.1518
18895DOD     C2  505  11.214  25.553  21.623  0.1778 -0.0558 -0.1076
18895DOD     C3  506  11.110  25.398  22.008  0.0034  0.1559 -0.0428
18896DOD     C1  507  29.107  17.980  25.379  0.0597 -0.0566 -0.0706
18896DOD     C2  508  29.057  17.870  24.941 -0.2618 -0.0914  0.1301
18896DOD     C3  509  28.893  17.781  24.483  0.0088  0.2243 -0.1314
18897DOD     C1  510  27.165  22.394   6.802 -0.0066  0.0464  0.2087
18897DOD     C2  511  27.369  22.822   6.925 -0.1659  0.1905 -0.2235
18897DOD     C3  512  27.677  23.159   6.975  0.0238 -0.3643  0.1203
18898DOD     C1  513   7.885   5.619   5.074  0.1565 -0.2996  0.0245
18898DOD     C2  514   7.786   5.559   4.591 -0.1311  0.1267 -0.2504
18898DOD     C3  515   7.571   5.403   4.125  0.3841 -0.0483 -0.0079
18899DOD     C1  516   0.069  26.944  12.886 -0.1130 -0.1412 -0.2217
18899DOD     C2  517  30.070  26.950  13.217 -0.1836  0.1374 -0.1148
18899DOD     C3  518  29.599  26.913  13.165 -0.0988 -0.0254  0.0944
18900DOD     C1  519  23.546  23.925   8.916 -0.3289  0.0374 -0.1396
18900DOD     C2  520  23.620  24.356   8.720 -0.1029  0.2642  0.0886
18900DOD     C3  521  23.685  24.728   8.537  0.0126 -0.0800  0.0295
18901DOD     C1  522   1.553  10.966  17.115  0.2594 -0.0538  0.2785
18901DOD     C2  523   1.499  10.552  16.874  0.3102 -0.0471 -0.1544
18901DOD     C3  524   1.310  10.254  16.525 -0.3670  0.1405  0.1076
18902DOD     C1  525  26.470  18.311  26.669  0.0667  0.3724 -0.1442
18902DOD     C2  526  26.276  18.723  26.770 -0.2386 -0.0924  0.3527
18902DOD     C3  527  26.474  19.133  26.540 -0.0476 -0.2544 -0.1164
18903DOD     C1  528  13.928  22.796   9.038 -0.0022  0.0361  0.1156
18903DOD     C2  529  14.326  22.993   9.305  0.1297  0.0669  0.0978
18903DOD     C3  530  14.606  23.234   9.563  0.0616  0.0418  0.0128
18904DOD     C1  531   4.714  26.588   1.376 -0.1837 -0.1183  0.2601
18904DOD     C2  532   4.308  26.307   1.303  0.3627 -0.0803 -0.2103
18904DOD     C3  533   4.259  25.861   1.134 -0.1175 -0.1589  0.1913
18905DOD     C1  534  16.162  18.877  25.911 -0.2930 -0.2696 -0.0343
18905DOD     C2  535  15.713  18.871  25.767 -0.2314 -0.0025  0.3794
18905DOD     C3  536  15.418  18.902  25.426  0.0189 -0.0666 -0.3226
18906DOD     C1  537   1.153  10.204  15.002 -0.0792 -0.2587  0.3450
18906DOD     C2  538   0.857  10.110  15.345  0.1963 -0.1904  0.1025
18906DOD     C3  539   0.542  10.181  15.699 -0.0263  0.0927  0.0407
18907DOD     C1  540  14.667  14.669  14.825 -0.0062 -0.2061 -0.1760
18907DOD     C2  541  14.380  14.514  14.473 -0.4106 -0.1858  0.1324
18907DOD     C3  542  14.487  14.466  14.034  0.0647 -0.1230  0.1688
18908DOD     C1  543  14.122   6.615  26.086 -0.1306  0.0684  0.1136
18908DOD     C2  544  14.531   6.691  26.272 -0.1564 -0.0448 -0.1990
18908DOD     C3  545  14.984   6.673  26.426  0.1532 -0.1498 -0.2913
18909DOD     C1  546   5.169  23.740  29.473 -0.0066  0.0163  0.0962
18909DOD     C2  547   5.205  24.094  29.733 -0.0051  0.2177  0.0751
18909DOD     C3  548   5.464  24.497  29.713  0.0440 -0.0627  0.2292
18910DOD     C1  549  12.294  22.759  13.487  0.4922  0.1670  0.1768
18910DOD     C2  550  11.992  22.468  13.208 -0.1698 -0.4699  0.4081
18910DOD     C3  551  11.585  22.617  13.174  0.5058  0.0441 -0.1784
18911DOD     C1  552   9.086  29.882   4.954 -0.1458 -0.3067  0.0923
18911DOD     C2  553   8.904  29.478   5.044  0.1723 -0.1437 -0.0069
18911DOD     C3  554   8.696  29.137   4.851  0.1739  0.0019 -0.1720
18912DOD     C1  555   0.054   0.050   3.716  0.1730  0.1528  0.0320
18912DOD     C2  556  29.959  30.233   3.535 -0.1458  0.0803  0.0241
18912DOD     C3  557  29.572  30.042   3.266  0.0401 -0.0371 -0.2994
18913DOD     C1  558  16.518  15.625  24.908 -0.0531  0.1464  0.3491
18913DOD     C2  559  16.418  15.359  24.561 -0.2220 -0.3755  0.0659
18913DOD     C3  560  15.964  15.389  24.445 -0.0947 -0.3540 -0.4009
18914DOD     C1  561  17.157  24.230   9.447 -0.1958 -0.2582 -0.1475
18914DOD     C2  562  17.485  23.860   9.391  0.3930 -0.3765  0.3051
18914DOD     C3  563  17.881  23.660   9.481 -0.1552 -0.1205 -0.0814
18915DOD     C1  564  21.946   9.014  29.459  0.3884 -0.1295 -0.3381
18915DOD     C2  565  22.011   9.442  29.301 -0.3827 -0.0711 -0.1742
18915DOD     C3  566  22.198   9.636  28.869  0.2141  0.1757 -0.3278
18916DOD     C1  567  12.402  27.167  20.541 -0.0154  0.0582  0.4564
18916DOD     C2  568  12.631  27.070  20.855  0.2467  0.1404 -0.1995
18916DOD     C3  569  12.728  27.255  21.284 -0.0813 -0.0928  0.0607
18917DOD     C1  570  15.820  16.767   9.085  0.1808  0.2379 -0.3780
18917DOD     C2  571  16.080  16.901   8.736  0.0614  0.1480  0.2121
18917DOD     C3  572  16.427  17.052   8.426 -0.0660 -0.0841  0.1063
18918DOD     C1  573   6.544   1.215  27.224  0.1208  0.3941 -0.0891
18918DOD     C2  574   6.592   0.792  26.961 -0.1183  0.1406  0.3719
18918DOD     C3  575   6.929   0.551  27.022 -0.2132  0.3059  0.0909
18919DOD     C1  576  27.919   4.284  25.190 -0.2332 -0.0028 -0.2090
18919DOD     C2  577  27.833   3.938  25.483  0.2445  0.0377 -0.3400
18919DOD     C3  578  27.713   3.484  25.334 -0.0161 -0.1434 -0.2271
18920DOD     C1  579   4.700  30.056  19.737  0.1807  0.1606 -0.1578
18920DOD     C2  580   4.811  29.947  19.303  0.1545 -0.0919 -0.2173
18920DOD     C3  581   4.922  29.919  18.848  0.2786 -0.0295  0.0840
18921DOD     C1  582   8.721   8.102  24.622 -0.0670  0.0224  0.2337
18921DOD     C2  583   8.713   8.504  24.827  0.1808 -0.3393  0.1852
18921DOD     C3  584   8.694   8.978  25.028 -0.1557 -0.0028  0.2153
18922DOD     C1  585   7.870   8.097  15.922  0.1736  0.0398  0.2850
18922DOD     C2  586   8.113   8.429  15.669  0.2201 -0.2799  0.2183
18922DOD     C3  587   8.465   8.319  15.376  0.1399 -0.1053  0.1819
18923DOD     C1  588  15.782  16.882  14.427  0.2507  0.0851 -0.1391
18923DOD     C2  589  16.114  17.073  14.692 -0.1853  0.0435 -0.0305
18923DOD     C3  590  16.409  17.334  14.968 -0.3645 -0.0327  0.0864
18924DOD     C1  591   2.921   8.211  10.544 -0.1489  0.0633 -0.2223
18924DOD     C2  592   3.282   8.443  10.386  0.4666  0.1567 -0.0852
18924DOD     C3  593   3.499   8.853  10.343 -0.0727  0.0172 -0.1987
18925DOD     C1  594   8.372  14.792  24.272 -0.0600 -0.2907  0.1846
18925DOD     C2  595   8.563  14.455  24.104 -0.3046  0.0788  0.1358
18925DOD     C3  596   8.942  14.144  24.264 -0.3054  0.0029  0.3384
18926DOD     C1  597  11.281  26.862   1.511 -0.0531 -0.0030  0.3402
18926DOD     C2  598  11.079  27.118   1.148  0.2328 -0.1628 -0.0455
18926DOD     C3  599  10.721  27.146   0.897  0.0420  0.0053  0.1745
18927DOD     C1  600  15.931  22.764  24.865  0.0348 -0.0759 -0.2456
18927DOD     C2  601  15.741  22.731  24.389 -0.0789 -0.1528 -0.0122
18927DOD     C3  602  15.499  22.409  24.198 -0.1923 -0.0674  0.1414
18928DOD     C1  603   1.082  17.153   5.017 -0.2987 -0.1064  0.1064
18928DOD     C2  604   1.002  16.687   5.093 -0.5688 -0.2343  0.3934
18928DOD     C3  605   1.248  16.346   5.319  0.2951 -0.3458 -0.2309
18929DOD     C1  606  13.972   9.615  26.475  0.4298 -0.1160  0.1058
18929DOD     C2  607  13.574   9.719  26.196 -0.2611  0.0076 -0.1367
18929DOD     C3  608  13.114   9.778  26.112  0.0768 -0.1630  0.4141
18930DOD     C1  609  10.178   0.494  13.290 -0.2022  0.1437 -0.2653
18930DOD     C2  610  10.430   0.323  12.915 -0.1032 -0.0353  0.1315
18930DOD     C3  611  10.845   0.071  12.909  0.0434 -0.0906 -0.3157
18931DOD     C1  612  20.879   5.094  16.581 -0.3538 -0.0383 -0.0589
18931DOD     C2  613  21.109   5.562  16.536  0.1150 -0.0899  0.3137
18931DOD     C3  614  21.070   5.776  16.129  0.2312 -0.0989 -0.0263
18932DOD     C1  615   6.116  26.187   3.134  0.2936 -0.2691 -0.0573
18932DOD     C2  616   6.468  26.478   3.179  0.0543 -0.1093 -0.0398
18932DOD     C3  617   6.831  26.621   2.955  0.1143 -0.0796 -0.3292
18933DOD     C1  618  13.197  21.768  23.246  0.2338 -0.0546 -0.1411
18933DOD     C2  619  13.216  22.155  23.025 -0.1418 -0.0849 -0.1064
18933DOD     C3  620  13.627  22.231  22.718  0.1811 -0.0512 -0.0501
18934DOD     C1  621  23.983   6.520  17.488  0.2322 -0.3404  0.0336
18934DOD     C2  622  23.835   6.726  17.107  0.1267  0.1095  0.4786
18934DOD     C3  623  24.087   6.939  16.809 -0.0542 -0.1867 -0.0370
18935DOD     C1  624  17.931  20.965  23.594  0.0691  0.0812 -0.1193
18935DOD     C2  625  18.167  21.359  23.687  0.2923 -0.1876 -0.4351
18935DOD     C3  626  18.168  21.744  24.012 -0.2495 -0.0094 -0.0089
18936DOD     C1  627  22.486  27.276   7.010 -0.1490  0.3184 -0.2771
18936DOD     C2  628  22.255  27.530   6.714  0.0258 -0.1285 -0.0334
18936DOD     C3  629  22.200  27.833   6.359  0.0585  0.5327  0.2785
18937DOD     C1  630  26.370   0.025  18.358 -0.0662 -0.0393 -0.2652
18937DOD     C2  631  26.620   0.437  18.272 -0.2530 -0.0088  0.3225
18937DOD     C3  632  27.032   0.701  18.321  0.1628 -0.3781  0.0568
18938DOD     C1  633  25.316   9.497  24.879 -0.0025 -0.0383 -0.2191
18938DOD     C2  634  25.523   9.064  24.907  0.2692 -0.0073 -0.1449
18938DOD     C3  635  25.785   8.697  24.754 -0.2899  0.0703 -0.1293
18939DOD     C1  636   8.422   9.378   2.040  0.1497 -0.2093  0.3300
18939DOD     C2  637   8.850   9.433   2.278 -0.2723 -0.1277  0.0169
18939DOD     C3  638   9.222   9.318   2.427  0.1585  0.0046  0.0798
18940DOD     C1  639  23.673  11.248  28.948 -0.0108  0.4334  0.0383
18940DOD     C2  640  23.898  11.381  29.303 -0.0130  0.2625  0.0194
18940DOD     C3  641  24.284  11.631  29.598 -0.0039  0.0583  0.2569
18941DOD     C1  642   1.798  21.620  23.704  0.0651  0.1793  0.0991
18941DOD     C2  643   1.935  21.647  23.257 -0.0944 -0.1190 -0.2834
18941DOD     C3  644   1.879  21.547  22.786 -0.2420  0.4036  0.2186
18942DOD     C1  645   7.199   2.081  21.903 -0.0945  0.1819  0.0466
18942DOD     C2  646   7.076   2.504  21.778 -0.1182 -0.0536  0.3951
18942DOD     C3  647   7.276   2.915  21.722 -0.0219 -0.2389 -0.2556
18943DOD     C1  648  10.156   9.362   9.905  0.0938 -0.2403 -0.0236
18943DOD     C2  649  10.004   8.976   9.663 -0.0227 -0.0687 -0.0582
18943DOD     C3  650  10.112   8.509   9.560  0.0609 -0.0159 -0.2020
18944DOD     C1  651   8.909   3.316  17.977 -0.0549  0.0303 -0.3381
18944DOD     C2  652   8.963   2.884  18.147  0.3056 -0.1507 -0.0448
18944DOD     C3  653   9.226   2.562  17.962  0.0392 -0.3191 -0.3857
18945DOD     C1  654  21.623  23.529   7.401 -0.0870 -0.1334 -0.1944
18945DOD     C2  655  21.408  23.758   7.103  0.0950 -0.0492  0.1607
18945DOD     C3  656  21.560  23.915   6.643 -0.0080  0.1853  0.0740
18946DOD     C1  657  24.186  21.373  14.125 -0.1741 -0.1174  0.0624
18946DOD     C2  658  24.185  21.055  13.813 -0.0259  0.0308  0.1883
18946DOD     C3  659  23.973  20.681  13.727  0.1349 -0.0863  0.1326
18947DOD     C1  660   8.838  28.964  22.831  0.1358 -0.2404 -0.0616
18947DOD     C2  661   9.084  28.959  23.220  0.2526 -0.4188 -0.1896
18947DOD     C3  662   9.281  29.206  23.588  0.0089 -0.0119  0.1631
18948DOD     C1  663   6.828  19.959  11.760 -0.1988  0.3556 -0.3722
18948DOD     C2  664   7.005  20.110  11.369 -0.3678  0.0665  0.1887
18948DOD     C3  665   7.216  20.281  10.950 -0.0973  0.2614 -0.1335
18949DOD     C1  666  21.121  13.411  29.603  0.2868  0.1478  0.2251
18949DOD     C2  667  21.028  13.847  29.667  0.0949  0.1028 -0.4415
18949DOD     C3  668  20.784  14.156  29.622  0.0406  0.1702 -0.2128
18950DOD     C1  669  20.468   9.914  23.965  0.0553 -0.0826 -0.0750
18950DOD     C2  670  20.764  10.093  23.659  0.0280 -0.2001 -0.0444
18950DOD     C3  671  21.126  10.375  23.609 -0.3394 -0.3427 -0.1201
18951DOD     C1  672  12.007  12.685  15.968  0.2043 -0.1058 -0.1111
18951DOD     C2  673  11.623  12.985  15.970 -0.1695  0.0779 -0.0822
18951DOD     C3  674  11.187  13.074  15.881  0.1772  0.3804  0.0213
18952DOD     C1  675  13.277   5.865   2.985  0.1793  0.3943 -0.2606
18952DOD     C2  676  13.708   6.158   2.973  0.1839  0.2001 -0.0321
18952DOD     C3  677  14.151   6.031   2.990  0.1953 -0.0212 -0.0353
18953DOD     C1  678  20.514  24.362  13.036 -0.0144  0.0728 -0.1920
18953DOD     C2  679  20.894  24.320  12.746 -0.1594 -0.2032  0.3901
18953DOD     C3  680  21.117  24.330  12.355  0.1619  0.0359 -0.1854
18954DOD     C1  681  29.955   9.838  27.035 -0.1203 -0.2008  0.3102
18954DOD     C2  682  30.265   9.519  26.811 -0.0796 -0.1194  0.1536
18954DOD     C3  683   0.326   9.700  26.731 -0.0826  0.1591 -0.0418
18955DOD     C1  684  22.043  13.388  15.783  0.0216  0.1030 -0.1787
18955DOD     C2  685  22.089  13.758  15.458  0.0517  0.2560  0.3340
18955DOD     C3  686  22.131  14.063  15.106  0.0441 -0.1504  0.0970
18956DOD     C1  687  10.228  11.510  20.371  0.2051  0.2220 -0.1716
18956DOD     C2  688  10.562  11.782  20.533  0.0647  0.2389 -0.1561
18956DOD     C3  689  10.866  11.666  20.856 -0.2303  0.2456 -0.0740
18957DOD     C1  690  16.463  11.254  20.019  0.0161 -0.0811 -0.1063
18957DOD     C2  691  16.200  10.937  19.798  0.0378  0.1446 -0.2331
18957DOD     C3  692  15.883  10.755  20.114 -0.0203 -0.0811  0.0119
18958DOD     C1  693  20.722  15.639  20.112  0.2674  0.3911 -0.1298
18958DOD     C2  694  20.448  15.296  20.281  0.2035  0.2368  0.2995
18958DOD     C3  695  20.137  14.932  20.513 -0.3950  0.0521  0.1005
18959DOD     C1  696   2.329  25.488  16.129  0.0880 -0.1163 -0.0231
18959DOD     C2  697   2.046  25.138  16.108 -0.0925 -0.2975 -0.2896
18959DOD     C3  698   1.705  24.899  16.399  0.1083  0.1213 -0.1270
18960DOD     C1  699  17.083  16.856   4.710  0.1354 -0.2922  0.1521
18960DOD     C2  700  16.766  16.637   4.377 -0.1789  0.2598 -0.1066
18960DOD     C3  701  16.671  16.558   3.904  0.3532 -0.3310  0.0219
18961DOD     C1  702   5.583  12.194  12.588  0.0817  0.1816  0.1405
18961DOD     C2  703   5.121  12.079  12.513 -0.0065  0.0271 -0.1445
18961DOD     C3  704   4.967  12.181  12.106 -0.3351 -0.2974 -0.4313
18962DOD     C1  705  12.456  13.652  20.578  0.0767 -0.0252 -0.0357
18962DOD     C2  706  12.619  13.752  20.987 -0.0168 -0.0816  0.2441
18962DOD     C3  707  12.706  13.629  21.437 -0.1701  0.0072 -0.2440
18963DOD     C1  708  10.099  21.176   8.133 -0.2557  0.0758  0.2101
18963DOD     C2  709  10.124  20.856   8.441  0.0281 -0.1178 -0.0326
18963DOD     C3  710   9.895  20.442   8.556  0.1174 -0.0295  0.3443
18964DOD     C1  711  11.591  21.837  17.174  0.1912  0.2140  0.3457
18964DOD     C2  712  11.518  21.783  16.754  0.2989  0.2820  0.1961
18964DOD     C3  713  11.345  22.033  16.389  0.2282 -0.3260  0.0450
18965DOD     C1  714  28.618  30.172  28.688 -0.0375  0.0840  0.3140
18965DOD     C2  715  28.447   0.076  28.279  0.0195 -0.2456 -0.0136
18965DOD     C3  716  28.566   0.152  27.811 -0.0012 -0.1741 -0.4212
18966DOD     C1  717  15.748  18.263  11.332 -0.2141 -0.0494 -0.0800
18966DOD     C2  718  15.837  18.655  11.146  0.0870 -0.0109 -0.0096
18966DOD     C3  719  15.815  19.104  11.156 -0.2628  0.0694  0.0503
18967DOD     C1  720  22.405   8.759  22.443  0.0612 -0.1283  0.3045
18967DOD     C2  721  22.097   8.910  22.745 -0.0421 -0.0512 -0.0763
18967DOD     C3  722  21.719   8.949  23.061  0.0310 -0.3406 -0.0169
18968DOD     C1  723  18.390   2.258  26.377  0.1528  0.1045  0.1041
18968DOD     C2  724  18.227   2.551  26.787  0.0435  0.0655  0.1958
18968DOD     C3  725  18.200   2.829  27.176  0.0624  0.2106  0.0543
18969DOD     C1  726   6.310  22.983  23.486 -0.2145 -0.1606  0.0459
18969DOD     C2  727   6.698  22.810  23.632  0.0860 -0.0096  0.0168
18969DOD     C3  728   7.081  23.097  23.774  0.3352  0.1693  0.0893
18970DOD     C1  729   3.907   3.722   0.733 -0.3886  0.0536 -0.1991
18970DOD     C2  730   3.681   3.285   0.839 -0.1691  0.2789  0.0594
18970DOD     C3  731   3.198   3.229   0.750  0.1480  0.0966  0.0318
18971DOD     C1  732   3.461  20.807   4.412 -0.2024 -0.0022  0.3088
18971DOD     C2  733   3.323  21.097   4.052 -0.0814 -0.1678  0.3382
18971DOD     C3  734   2.955  21.313   3.921  0.0445 -0.0882  0.1417
18972DOD     C1  735  11.203  14.375  24.046  0.0041 -0.1587  0.1662
18972DOD     C2  736  11.355  14.785  23.825 -0.0170  0.0785  0.1270
18972DOD     C3  737  11.656  15.031  23.509 -0.0758 -0.1939 -0.0652
18973DOD     C1  738  19.222   4.867  14.131  0.4879 -0.1173  0.0826
18973DOD     C2  739  18.799   4.768  13.988  0.3828 -0.1284  0.0261
18973DOD     C3  740  18.581   4.648  13.578  0.1032 -0.0369 -0.2550
18974DOD     C1  741   1.255  18.231   4.990 -0.1605  0.4738  0.3459
18974DOD     C2  742   0.900  18.204   5.278  0.0899  0.2285  0.1558
18974DOD     C3  743   0.518  18.422   5.426 -0.0154 -0.1332 -0.2442
18975DOD     C1  744  30.283  20.310  25.900  0.0741 -0.2600  0.1042
18975DOD     C2  745  30.186  20.268  25.466 -0.0889  0.1454 -0.0543
18975DOD     C3  746  30.060  20.041  25.074  0.0159  0.3178 -0.2684
18976DOD     C1  747   8.599   2.296  11.741  0.0942  0.1330 -0.0267
18976DOD     C2  748   8.673   1.790  11.649 -0.1587 -0.0981  0.2326
18976DOD     C3  749   8.579   1.348  11.651 -0.1243 -0.0785 -0.3061
18977DOD     C1  750  14.210  24.521  26.213  0.2002  0.0739 -0.1008
18977DOD     C2  751  14.291  24.439  26.699 -0.0033 -0.1134  0.0433
18977DOD     C3  752  14.423  24.496  27.156  0.1765  0.3068  0.1469
18978DOD     C1  753  17.192   8.263  30.022 -0.1154  0.0096  0.0454
18978DOD     C2  754  16.975   8.700  30.001 -0.2754  0.2535 -0.6070
18978DOD     C3  755  17.163   9.045  30.131 -0.0595 -0.0373  0.0233
18979DOD     C1  756  13.851  22.066  27.388 -0.3407 -0.0325  0.2384
18979DOD     C2  757  13.941  22.536  27.276  0.2222  0.2313 -0.3172
18979DOD     C3  758  14.073  22.811  26.933 -0.0500 -0.0923 -0.0320
18980DOD     C1  759   9.215   9.950  19.233  0.0067 -0.1502 -0.0887
18980DOD     C2  760   8.931  10.209  19.470  0.3345 -0.1147 -0.3176
18980DOD     C3  761   8.660  10.163  19.845  0.2598 -0.1527  0.0434
18981DOD     C1  762  12.783  16.856   5.317  0.0857  0.1020  0.1232
18981DOD     C2  763  12.593  16.987   4.880 -0.0268  0.1198 -0.1997
18981DOD     C3  764  12.726  17.209   4.471 -0.0964  0.0788  0.2803
18982DOD     C1  765  16.595  18.173  11.187  0.4665 -0.2390 -0.1328
18982DOD     C2  766  16.149  18.074  11.102  0.1274 -0.1527 -0.2082
18982DOD     C3  767  15.790  18.229  10.829  0.2082  0.1382 -0.0558
18983DOD     C1  768  16.516  27.204  21.396 -0.0841 -0.0629 -0.0004
18983DOD     C2  769  16.709  26.845  21.285 -0.0637  0.1631  0.2374
18983DOD     C3  770  16.900  26.532  20.988  0.1830  0.0455  0.1555
18984DOD     C1  771  16.046  18.664   1.114 -0.0940 -0.0327  0.0570
18984DOD     C2  772  15.939  18.508   1.566  0.0060  0.0199  0.3595
18984DOD     C3  773  16.227  18.535   1.921  0.2385 -0.0609  0.0102
18985DOD     C1  774  19.416   7.499   8.976  0.0228 -0.3888  0.2899
18985DOD     C2  775  19.406   7.967   8.882  0.0440 -0.0014  0.3653
18985DOD     C3  776  19.628   8.289   9.125 -0.1785 -0.0191 -0.0017
18986DOD     C1  777   3.699  14.382   0.477  0.2526 -0.0500  0.1450
18986DOD     C2  778   4.136  14.478   0.566 -0.0807  0.1447  0.1545
18986DOD     C3  779   4.603  14.386   0.742 -0.0664  0.0893 -0.0768
18987DOD     C1  780  21.402  24.397   1.570  0.0438  0.1447 -0.1877
18987DOD     C2  781  20.980  24.331   1.458 -0.1708  0.0975  0.1223
18987DOD     C3  782  20.693  24.544   1.160 -0.3798 -0.2265 -0.0014
18988DOD     C1  783  24.824  15.186  17.531 -0.0367 -0.1536  0.0344
18988DOD     C2  784  25.036  15.567  17.320 -0.1232  0.0098 -0.2090
18988DOD     C3  785  25.397  15.878  17.206  0.1321  0.0629 -0.2217
18989DOD     C1  786  21.894   9.469  22.800 -0.0643 -0.1215 -0.0703
18989DOD     C2  787  21.436   9.408  22.784 -0.0067  0.2781  0.0306
18989DOD     C3  788  21.091   9.070  22.789  0.0739 -0.1167 -0.1078
18990DOD     C1  789   5.696  13.237  11.965  0.1886  0.0041  0.0885
18990DOD     C2  790   6.137  13.308  12.170  0.0256  0.1121  0.1513
18990DOD     C3  791   6.546  13.258  12.425  0.2677  0.1157  0.0886
18991DOD     C1  792   3.944   0.704   7.281  0.0990  0.0014  0.1981
18991DOD     C2  793   3.962   0.583   6.912  0.0699 -0.1084  0.4258
18991DOD     C3  794   3.663   0.284   6.698  0.0477  0.0579  0.2163
18992DOD     C1  795  25.519  22.922  29.672 -0.1077  0.0618  0.0312
18992DOD     C2  796  25.224  23.240  29.436  0.0602  0.3657 -0.0625
18992DOD     C3  797  24.849  23.475  29.589 -0.2543  0.0934  0.0027
18993DOD     C1  798   6.747  25.396   0.816 -0.1803 -0.2470 -0.1684
18993DOD     C2  799   7.009  25.001   0.856 -0.1517 -0.0839  0.1970
18993DOD     C3  800   6.747  24.610   0.771 -0.1642 -0.1655  0.0654
18994DOD     C1  801   2.666  14.418  16.235  0.1308  0.0765 -0.0518
18994DOD     C2  802   2.338  14.706  16.414 -0.1392 -0.3254 -0.3457
18994DOD     C3  803   2.377  14.929  16.805 -0.2043  0.1179  0.0849
18995DOD     C1  804  24.820  24.169   0.732  0.3989  0.0050  0.3647
18995DOD     C2  805  24.429  24.093   0.975  0.0825 -0.1451  0.4382
18995DOD     C3  806  24.258  24.274   1.387  0.0783 -0.2387  0.2920
18996DOD     C1  807  28.741  11.214  26.367  0.2639 -0.0682  0.2045
18996DOD     C2  808  29.034  11.475  26.092 -0.0432 -0.1327  0.0762
18996DOD     C3  809  29.481  11.625  26.236  0.1105  0.3073  0.1728
18997DOD     C1  810  30.031  19.414  14.795  0.0657  0.2755  0.2308
18997DOD     C2  811  29.822  19.509  14.335 -0.0839  0.1380  0.3244
18997DOD     C3  812  29.582  19.655  13.985  0.4510 -0.1341 -0.1324
18998DOD     C1  813  29.454   3.146   5.603 -0.2058  0.0204 -0.0112
18998DOD     C2  814  29.431   2.695   5.675 -0.0896 -0.1737  0.1859
18998DOD     C3  815  29.647   2.235   5.633  0.0334 -0.1623 -0.2230
18999DOD     C1  816  29.147  25.951   7.461 -0.0652 -0.0356 -0.1689
18999DOD     C2  817  29.488  26.251   7.398 -0.1220  0.1238  0.0115
18999DOD     C3  818  29.656  26.497   7.082  0.0504  0.2056 -0.0138
19000DOD     C1  819  19.177   4.310  23.356  0.0381 -0.1543  0.3335
19000DOD     C2  820  19.200   4.734  23.255 -0.1520 -0.4211  0.3183
19000DOD     C3  821  19.553   4.970  23.159  0.1156  0.0946  0.1596
19001DOD     C1  822  20.988  15.203  12.104  0.1028  0.0844 -0.2126
19001DOD     C2  823  20.730  15.132  12.505  0.5016  0.2229  0.0691
19001DOD     C3  824  20.310  15.161  12.648  0.0009 -0.3481 -0.0544
19002DOD     C1  825   0.197   1.393  18.534 -0.0289 -0.1328 -0.0156
19002DOD     C2  826   0.429   1.343  18.111 -0.1043 -0.0512  0.1901
19002DOD     C3  827   0.584   1.498  17.702 -0.0236  0.2970 -0.3386
19003DOD     C1  828  23.788  12.541  22.240  0.0515 -0.1732  0.0779
19003DOD     C2  829  23.495  12.179  22.253  0.0467  0.1242 -0.1018
19003DOD     C3  830  23.450  11.720  22.046  0.0516  0.0151 -0.1614
19004DOD     C1  831  13.985  13.875   8.956 -0.0224  0.1091  0.1311
19004DOD     C2  832  13.600  13.652   9.071 -0.0075  0.1527  0.4642
19004DOD     C3  833  13.474  13.202   9.218 -0.1169  0.2319  0.2028
19005DOD     C1  834   6.209  12.905  23.311 -0.3053  0.1460  0.2359
19005DOD     C2  835   6.136  12.514  23.542  0.0947 -0.1515  0.1510
19005DOD     C3  836   5.798  12.549  23.828  0.0057 -0.1839  0.0728
19006DOD     C1  837   5.045  28.774  14.492 -0.1629  0.0286  0.0505
19006DOD     C2  838   5.007  28.476  14.142 -0.5707  0.3386 -0.1279
19006DOD     C3  839   5.052  28.034  13.952  0.4059 -0.0011  0.0017
19007DOD     C1  840   1.910   7.471   2.951 -0.0388 -0.0209 -0.0667
19007DOD     C2  841   2.079   7.100   2.713 -0.3750 -0.2557  0.1926
19007DOD     C3  842   2.104   6.650   2.869  0.1987  0.1466  0.1104
19008DOD     C1  843  23.852   9.473   2.109 -0.0106 -0.2347  0.2122
19008DOD     C2  844  23.536   9.763   1.858  0.1829  0.0904 -0.2512
19008DOD     C3  845  23.465   9.851   1.426  0.1500  0.0086 -0.0344
19009DOD     C1  846  10.842   0.487  12.511 -0.0389 -0.1839 -0.1886
19009DOD     C2  847  10.758   0.839  12.781  0.1557  0.1900 -0.2434
19009DOD     C3  848  10.304   0.925  12.956 -0.1896 -0.0118  0.0707
19010DOD     C1  849  20.714  13.462   9.346  0.2769 -0.2305  0.1769
19010DOD     C2  850  20.360  13.730   9.062  0.0132  0.2428 -0.2073
19010DOD     C3  851  20.089  14.078   8.930 -0.1180 -0.0101 -0.2279
19011DOD     C1  852  25.860  21.093  20.518  0.0865 -0.0818 -0.0037
19011DOD     C2  853  26.137  21.266  20.186 -0.0793 -0.0760 -0.0531
19011DOD     C3  854  26.295  21.530  19.800  0.1752 -0.0475  0.0227
19012DOD     C1  855   8.023  24.802  19.479  0.1673 -0.0849 -0.1748
19012DOD     C2  856   7.716  24.954  19.748  0.4352  0.2798  0.2210
19012DOD     C3  857   7.537  25.193  20.062 -0.0475  0.2674  0.1925
19013DOD     C1  858   6.191  14.892   8.572 -0.1632 -0.1422  0.0991
19013DOD     C2  859   5.730  14.856   8.536  0.1407  0.1451  0.0873
19013DOD     C3  860   5.287  15.090   8.558 -0.0896 -0.1000  0.1279
19014DOD     C1  861  21.803  17.662   3.598 -0.3367  0.1972 -0.2151
19014DOD     C2  862  21.955  17.711   4.000  0.1334  0.1292 -0.2154
19014DOD     C3  863  21.990  18.031   4.386 -0.1456 -0.0859  0.2548
19015DOD     C1  864   0.739  17.069   2.984 -0.0646  0.3309  0.2164
19015DOD     C2  865   0.495  16.751   2.722 -0.2233 -0.3619  0.1417
19015DOD     C3  866   0.099  16.661   2.480 -0.0812 -0.0369  0.3223
19016DOD     C1  867  21.155  29.026  23.189 -0.1068 -0.0758 -0.0657
19016DOD     C2  868  20.960  29.351  22.847 -0.2279  0.0601 -0.6749
19016DOD     C3  869  20.812  29.643  22.579 -0.0635  0.0516  0.2173
19017DOD     C1  870   7.822   9.497  16.346 -0.2442 -0.0249  0.0158
19017DOD     C2  871   7.900   9.069  16.179  0.1668  0.0551 -0.0360
19017DOD     C3  872   7.747   8.568  16.114 -0.2512 -0.0057 -0.4006
19018DOD     C1  873  22.244   4.606   0.164 -0.2056  0.2230  0.0615
19018DOD     C2  874  22.416   4.878   0.507 -0.0731  0.0270 -0.0611
19018DOD     C3  875  22.661   5.231   0.747 -0.3875  0.2862  0.1076
19019DOD     C1  876  16.945  15.981   1.518 -0.1212 -0.0829 -0.0854
19019DOD     C2  877  16.534  16.237   1.537 -0.0642  0.0731 -0.1237
19019DOD     C3  878  16.177  16.587   1.499 -0.4313 -0.0078 -0.0716
19020DOD     C1  879   0.886   4.840  14.979  0.2621  0.2970 -0.1394
19020DOD     C2  880   0.932   5.194  14.691 -0.0744 -0.2067 -0.0961
19020DOD     C3  881   1.161   5.618  14.741 -0.0226 -0.0039  0.1769
19021DOD     C1  882  28.006   6.179   8.195  0.3788  0.1120 -0.0016
19021DOD     C2  883  27.925   6.030   8.629  0.2139 -0.2442  0.0923
19021DOD     C3  884  27.792   5.599   8.752 -0.2157 -0.2336  0.1602
19022DOD     C1  885   9.471  21.282  25.061  0.0532  0.0773  0.0944
19022DOD     C2  886   9.338  21.577  24.724 -0.2440  0.3157  0.0112
19022DOD     C3  887   9.105  21.713  24.318  0.3031 -0.0251  0.1648
19023DOD     C1  888  19.244  19.785  25.362  0.2325 -0.0007 -0.0202
19023DOD     C2  889  19.144  20.175  25.617 -0.3068  0.1158 -0.0326
19023DOD     C3  890  19.027  20.535  25.904 -0.1112 -0.1461 -0.0028
19024DOD     C1  891  15.577  13.544   7.769  0.0244 -0.1048 -0.1940
19024DOD     C2  892  15.575  13.669   7.347  0.0307  0.1599 -0.3745
19024DOD     C3  893  15.692  13.947   6.973  0.0795 -0.2772  0.3455
19025DOD     C1  894  11.738   7.683   6.073 -0.0610  0.3699 -0.1923
19025DOD     C2  895  11.394   7.639   5.839 -0.5569 -0.2538  0.2738
19025DOD     C3  896  11.274   7.739   5.368  0.3183 -0.0862  0.4725
19026DOD     C1  897  17.302  28.634  16.885 -0.0786  0.0476  0.0467
19026DOD     C2  898  16.990  28.983  16.998  0.1718  0.1272 -0.2818
19026DOD     C3  899  16.574  29.154  17.056 -0.1018  0.0655  0.1267
19027DOD     C1  900   1.131   2.626  19.683 -0.2616  0.0514 -0.0336
19027DOD     C2  901   0.878   2.996  19.741  0.2607  0.0179  0.1146
19027DOD     C3  902   0.692   3.403  19.537  0.0160  0.1828  0.0258
19028DOD     C1  903  12.868  20.915  23.118 -0.1123 -0.0166  0.1418
19028DOD     C2  904  12.571  21.027  22.776  0.3491 -0.0512  0.0300
19028DOD     C3  905  12.225  20.847  22.613  0.3324  0.3066 -0.0197
19029DOD     C1  906   2.739  27.092  30.093  0.2089 -0.0902  0.0545
19029DOD     C2  907   2.725  27.138   0.241  0.1678  0.0607 -0.1847
19029DOD     C3  908   3.165  27.197   0.458  0.3164 -0.0893  0.1888
19030DOD     C1  909   0.720  13.493  29.285 -0.2070 -0.1995  0.3321
19030DOD     C2  910   1.142  13.278  29.279 -0.1106  0.2615 -0.1922
19030DOD     C3  911   1.565  13.279  29.456 -0.0282  0.2355  0.0772
19031DOD     C1  912  20.089  15.992  14.373 -0.1417  0.1826  0.0157
19031DOD     C2  913  19.960  16.203  14.762 -0.0661  0.1146 -0.1753
19031DOD     C3  914  19.826  16.675  14.906 -0.0019  0.2329  0.0810
19032DOD     C1  915  13.683  30.000  27.993 -0.0072  0.3577 -0.1214
19032DOD     C2  916  14.006  30.078  28.338 -0.2644  0.0221  0.2118
19032DOD     C3  917  13.894  30.280  28.732 -0.3444  0.1555 -0.1614
19033DOD     C1  918  23.520  12.399   3.574  0.2651 -0.0602 -0.2016
19033DOD     C2  919  23.281  12.184   3.256 -0.0158  0.0424 -0.1393
19033DOD     C3  920  23.329  11.950   2.910  0.3316  0.0876 -0.0913
19034DOD     C1  921  18.589   6.710   7.323 -0.2871 -0.0274  0.1438
19034DOD     C2  922  18.242   6.402   7.144  0.4121 -0.4953 -0.1204
19034DOD     C3  923  18.122   6.074   6.858 -0.1045 -0.0336 -0.3789
19035DOD     C1  924  16.883   1.056   2.206 -0.0565 -0.3515  0.0855
19035DOD     C2  925  16.765   0.618   1.999  0.0177 -0.0949 -0.0604
19035DOD     C3  926  16.434   0.476   1.695  0.1939 -0.0252 -0.0785
19036DOD     C1  927  18.722   3.569  19.688  0.0460  0.0450 -0.0103
19036DOD     C2  928  18.581   3.397  19.254 -0.1467  0.0431  0.0084
19036DOD     C3  929  18.226   3.444  18.957  0.2711 -0.0181 -0.0153
19037DOD     C1  930  10.732  23.445  10.171  0.0584  0.0088 -0.0561
19037DOD     C2  931  11.063  23.105  10.176 -0.1129 -0.3256  0.0107
19037DOD     C3  932  11.155  22.690  10.390  0.3538  0.3213  0.1328
19038DOD     C1  933   1.803   0.575  22.382  0.2017 -0.3312 -0.1232
19038DOD     C2  934   1.331   0.600  22.629  0.0587  0.0607 -0.4235
19038DOD     C3  935   0.884   0.625  22.499  0.2405  0.2830  0.0101
19039DOD     C1  936  16.664  17.806  24.252 -0.2180  0.1034  0.2618
19039DOD     C2  937  16.964  17.943  23.936 -0.6008 -0.2925 -0.1535
19039DOD     C3  938  17.361  17.741  23.665 -0.1212  0.1021 -0.3346
19040DOD     C1  939  17.579   1.961  29.555  0.0102 -0.4365  0.0406
19040DOD     C2  940  17.206   1.807  29.768 -0.0877 -0.0332 -0.0670
19040DOD     C3  941  16.966   1.509  30.035 -0.0985 -0.2635  0.0484
19041DOD     C1  942  29.742   3.503   2.649  0.1119  0.1368 -0.0040
19041DOD     C2  943  29.375   3.266   2.659  0.0178  0.1310  0.0137
19041DOD     C3  944  29.017   3.051   2.545 -0.1162  0.4159 -0.2893
19042DOD     C1  945  13.625  13.196  13.411  0.1793  0.1607 -0.0621
19042DOD     C2  946  13.229  13.313  13.579  0.1876  0.0212 -0.1086
19042DOD     C3  947  12.758  13.436  13.592 -0.5818  0.4947 -0.3100
19043DOD     C1  948  13.964  13.952   7.858 -0.5609  0.2888 -0.1972
19043DOD     C2  949  13.485  13.770   8.012  0.2666 -0.0541 -0.3112
19043DOD     C3  950  13.107  13.729   8.268 -0.0550  0.1418  0.0928
19044DOD     C1  951  27.067   6.719   0.875  0.0661  0.3281  0.1222
19044DOD     C2  952  27.031   6.683   0.403 -0.0847  0.2722  0.0864
19044DOD     C3  953  27.242   6.791  30.279  0.0560  0.0461  0.1050
19045DOD     C1  954  17.282  22.362  19.600  0.1094 -0.3914  0.2742
19045DOD     C2  955  17.218  21.937  19.505  0.3602  0.1508  0.0654
19045DOD     C3  956  17.297  21.509  19.640 -0.0510  0.1412  0.1327
19046DOD     C1  957  14.916  12.550  24.015  0.3380 -0.2339  0.0880
19046DOD     C2  958  15.118  12.348  23.605  0.0309 -0.2612  0.0587
19046DOD     C3  959  15.474  12.158  23.383  0.1361 -0.2600 -0.0998
19047DOD     C1  960  18.663   2.763  14.677  0.0564  0.0985  0.0661
19047DOD     C2  961  18.600   2.316  14.573 -0.1001  0.0464  0.1993
19047DOD     C3  962  18.755   1.911  14.442  0.1493 -0.0537 -0.1822
19048DOD     C1  963  17.862  25.399  27.076  0.0357  0.0179  0.0763
19048DOD     C2  964  18.037  25.109  26.762 -0.2799  0.0889 -0.1989
19048DOD     C3  965  18.458  24.934  26.774  0.0734 -0.0892 -0.1396
19049DOD     C1  966  13.691  14.425  21.539 -0.1279 -0.1077  0.0766
19049DOD     C2  967  13.273  14.457  21.421  0.2179 -0.2062 -0.2576
19049DOD     C3  968  12.949  14.817  21.437  0.1235  0.1431 -0.0062
19050DOD     C1  969  15.183  11.401  16.638  0.4376  0.0779  0.1183
19050DOD     C2  970  15.225  11.436  17.138  0.2589 -0.2160 -0.2228
19050DOD     C3  971  15.241  11.847  17.405  0.0487  0.1005 -0.1410
19051DOD     C1  972  28.925   3.981  14.370 -0.2817  0.1719  0.2022
19051DOD     C2  973  28.734   4.420  14.518 -0.1193  0.0899 -0.0410
19051DOD     C3  974  28.701   4.813  14.310  0.1838  0.1174 -0.2576
19052DOD     C1  975  11.268  29.727  28.427  0.2817  0.1840 -0.2454
19052DOD     C2  976  10.919  29.993  28.311  0.1447 -0.0159 -0.0840
19052DOD     C3  977  10.822   0.086  28.223  0.0613  0.0468  0.0360
19053DOD     C1  978  23.349   2.673  25.525  0.1805 -0.2105 -0.4431
19053DOD     C2  979  23.509   2.845  25.207  0.0905  0.0517 -0.1021
19053DOD     C3  980  23.814   3.191  25.171 -0.1533 -0.1468 -0.2182
19054DOD     C1  981  10.581  17.523   4.131 -0.0486 -0.1615  0.3604
19054DOD     C2  982  10.557  17.972   4.030  0.3862 -0.3596  0.1038
19054DOD     C3  983  10.691  18.397   3.885 -0.1173 -0.2466 -0.0594
19055DOD     C1  984  14.472   6.294  25.765  0.2358 -0.2404 -0.0547
19055DOD     C2  985  14.896   6.500  25.904  0.2639 -0.2321  0.0740
19055DOD     C3  986  15.070   6.913  25.932  0.0346 -0.4163 -0.5014
19056DOD     C1  987  29.947  26.145  21.534  0.2859  0.1063  0.0903
19056DOD     C2  988  30.050  26.634  21.606 -0.0644 -0.1723  0.1656
19056DOD     C3  989   0.071  26.940  21.779 -0.2313 -0.1604  0.0747
19057DOD     C1  990  24.636  18.023  11.130  0.2018  0.3014  0.0810
19057DOD     C2  991  24.896  18.397  10.958  0.0519  0.4403  0.1544
19057DOD     C3  992  25.206  18.694  10.778  0.0224 -0.3048 -0.1908
19058DOD     C1  993  12.130   3.012  23.117 -0.1209  0.1154 -0.0362
19058DOD     C2  994  11.957   3.432  23.079  0.0250  0.0593 -0.1213
19058DOD     C3  995  11.939   3.863  22.965  0.1249  0.0796  0.2663
19059DOD     C1  996   2.879  25.036  13.396 -0.1095 -0.3399 -0.3585
19059DOD     C2  997   3.264  24.947  13.660 -0.0807  0.3356 -0.1075
19059DOD     C3  998   3.539  25.161  13.984  0.0516  0.1455  0.0666
19060DOD     C1  999  29.761   8.815   9.455 -0.1513 -0.3019  0.0274
19060DOD     C2 1000  29.855   8.490   9.793 -0.0662  0.3288 -0.0437
19060DOD     C3 1001  30.142   8.316  10.073 -0.1252  0.0762 -0.1412
19061DOD     C1 1002  25.299   2.523  14.713  0.0295  0.0621  0.0658
19061DOD     C2 1003  24.990   2.827  14.614  0.0462  0.1547 -0.0124
19061DOD     C3 1004  24.856   2.995  14.225  0.2097  0.0805  0.0054
19062DOD     C1 1005   2.588  15.700   9.700 -0.0906 -0.1716 -0.3111
19062DOD     C2 1006   3.057  15.625   9.645  0.2970 -0.1334 -0.1309
19062DOD     C3 1007   3.351  15.522  10.013 -0.1569  0.0963 -0.2025
19063DOD     C1 1008  10.022  12.962  16.899 -0.1528 -0.1966 -0.0895
19063DOD     C2 1009   9.858  12.708  17.201 -0.1257 -0.2299 -0.1730
19063DOD     C3 1010   9.906  12.396  17.577 -0.3627 -0.2095  0.0585
19064DOD     C1 1011   6.135  30.296  23.981 -0.0504  0.2808 -0.0393
19064DOD     C2 1012   6.347   0.372  24.080 -0.2900  0.2357  0.1184
19064DOD     C3 1013   6.748   0.644  24.214 -0.2832 -0.0326 -0.1910
19065DOD     C1 1014  12.485  28.933  16.374 -0.1913 -0.1430 -0.3508
19065DOD     C2 1015  12.052  28.850  16.298 -0.0650 -0.1680 -0.0068
19065DOD     C3 1016  11.569  28.812  16.440  0.1129 -0.0185  0.0483
19066DOD     C1 1017  12.325   7.897   9.609  0.2476  0.2284 -0.0053
19066DOD     C2 1018  11.898   7.937   9.567  0.1726  0.0750 -0.4628
19066DOD     C3 1019  11.465   7.806   9.360 -0.1421  0.0235  0.0493
19067DOD     C1 1020  14.194  13.888  20.008  0.2516  0.2740 -0.2286
19067DOD     C2 1021  14.147  13.498  20.246  0.0328  0.1886 -0.1218
19067DOD     C3 1022  14.544  13.277  20.207 -0.0362 -0.0792 -0.1459
19068DOD     C1 1023  13.985  26.567  19.884  0.4801  0.0920 -0.0079
19068DOD     C2 1024  13.939  26.130  19.785  0.1160  0.0613 -0.0537
19068DOD     C3 1025  13.672  25.922  19.421 -0.2186  0.0118 -0.0094
19069DOD     C1 1026   9.454   7.223  20.422 -0.1827 -0.1192 -0.1734
19069DOD     C2 1027   9.335   7.368  20.895 -0.1974 -0.2013  0.2255
19069DOD     C3 1028   9.289   7.755  21.206 -0.3364  0.1418 -0.0599
19070DOD     C1 1029  27.640  12.503  19.688  0.0256  0.1697 -0.0296
19070DOD     C2 1030  27.502  12.934  19.552 -0.2680 -0.3639 -0.0558
19070DOD     C3 1031  27.211  13.232  19.242 -0.4899  0.2969 -0.1246
19071DOD     C1 1032  27.438  17.630  21.616  0.1829 -0.2182  0.0009
19071DOD     C2 1033  27.445  17.176  21.780  0.0411 -0.0730  0.1685
19071DOD     C3 1034  27.794  16.798  21.827 -0.2793 -0.1579  0.0350
19072DOD     C1 1035   5.498   1.738   3.903 -0.0884 -0.0829 -0.0637
19072DOD     C2 1036   5.963   1.632   3.944 -0.1829  0.1392  0.1303
19072DOD     C3 1037   6.274   1.265   4.064  0.0565  0.1374 -0.1886
19073DOD     C1 1038   8.758  16.035  28.462  0.1363  0.0665  0.2885
19073DOD     C2 1039   9.139  15.757  28.485 -0.0760  0.1846 -0.1624
19073DOD     C3 1040   9.511  15.645  28.617 -0.2078 -0.0293  0.0559
19074DOD     C1 1041  18.172  19.898  25.787  0.0770 -0.1324 -0.3244
19074DOD     C2 1042  18.493  19.610  25.638  0.1688 -0.1240  0.1657
19074DOD     C3 1043  18.485  19.188  25.451  0.4156  0.3806 -0.3624
19075DOD     C1 1044   4.742   0.995   6.619 -0.1294 -0.0164  0.0313
19075DOD     C2 1045   5.121   1.282   6.495  0.1044 -0.0761  0.0524
19075DOD     C3 1046   5.167   1.699   6.322  0.4670  0.6159  0.3260
19076DOD     C1 1047  14.337  23.832  25.346  0.0532 -0.0657  0.0566
19076DOD     C2 1048  14.287  23.395  25.317  0.1572  0.0584  0.2236
19076DOD     C3 1049  14.153  22.952  25.372  0.0057  0.0530  0.2097
19077DOD     C1 1050   4.186   7.823  24.604 -0.0077 -0.1451  0.1662
19077DOD     C2 1051   4.639   7.975  24.666 -0.0343 -0.1292  0.1005
19077DOD     C3 1052   4.855   8.399  24.631  0.2675 -0.2373  0.0731
19078DOD     C1 1053  20.170   0.194   9.972  0.1513 -0.1025 -0.0932
19078DOD     C2 1054  20.233  30.244   9.590 -0.0211  0.1723  0.3176
19078DOD     C3 1055  19.925  29.932   9.431 -0.3886 -0.0164  0.2125
19079DOD     C1 1056   0.271  12.157  20.456  0.0846  0.3249 -0.1686
19079DOD     C2 1057  30.243  12.116  20.730  0.0079 -0.2981  0.0597
19079DOD     C3 1058  29.807  11.990  20.932 -0.1208  0.0502 -0.0527
19080DOD     C1 1059   6.755   7.528   5.721 -0.0812 -0.1493 -0.2190
19080DOD     C2 1060   6.676   7.819   6.010  0.0196  0.1468  0.0284
19080DOD     C3 1061   6.350   8.023   6.268 -0.1103 -0.1771  0.1378
19081DOD     C1 1062   3.452  16.586  10.948 -0.1541 -0.0926  0.1240
19081DOD     C2 1063   3.724  16.533  10.538 -0.0738 -0.3821  0.0895
19081DOD     C3 1064   3.732  16.313  10.139 -0.3133 -0.1309  0.0041
19082DOD     C1 1065   6.838   0.732  20.814 -0.0948 -0.1315  0.0130
19082DOD     C2 1066   6.942   1.195  20.750  0.2092  0.4905 -0.0196
19082DOD     C3 1067   7.375   1.393  20.776  0.2061  0.0906  0.0318
19083DOD     C1 1068  18.061  20.662   1.038 -0.1458  0.2377  0.1682
19083DOD     C2 1069  18.323  20.335   0.938 -0.0017 -0.2805  0.0856
19083DOD     C3 1070  18.659  20.096   1.215  0.3140 -0.5147  0.2919
19084DOD     C1 1071  23.623  22.564  22.647 -0.1452  0.0421 -0.0590
19084DOD     C2 1072  23.946  22.690  22.395 -0.1905  0.0506  0.0516
19084DOD     C3 1073  24.394  22.690  22.291 -0.0493  0.2748  0.0843
19085DOD     C1 1074  25.096  16.749   7.992 -0.0861  0.1144 -0.1735
19085DOD     C2 1075  25.073  17.052   8.224  0.1698 -0.0123  0.0137
19085DOD     C3 1076  24.831  17.467   8.314  0.1769  0.1454  0.1379
19086DOD     C1 1077   1.855  15.168  21.696  0.0732 -0.0697 -0.0495
19086DOD     C2 1078   1.821  15.340  21.278  0.2766  0.1443 -0.1350
19086DOD     C3 1079   1.928  15.113  20.825 -0.0426  0.2725 -0.0417
19087DOD     C1 1080  27.185  25.827  18.696  0.0198  0.1711  0.1454
19087DOD     C2 1081  26.805  25.748  18.402 -0.0170 -0.0838 -0.2420
19087DOD     C3 1082  26.807  25.956  18.011  0.1009 -0.3974 -0.0688
19088DOD     C1 1083  26.867  27.882  29.216  0.2203 -0.0385 -0.3823
19088DOD     C2 1084  27.083  28.212  29.448 -0.2560  0.0170  0.1504
19088DOD     C3 1085  27.322  28.403  29.762  0.1089  0.2754 -0.0260
19089DOD     C1 1086   3.771   5.644  22.143  0.0340  0.3799  0.2126
19089DOD     C2 1087   3.730   5.405  22.574  0.1962  0.0458 -0.0852
19089DOD     C3 1088   3.558   4.969  22.689 -0.1474 -0.0832  0.0433
19090DOD     C1 1089  14.978   8.417  25.729  0.2376  0.5424  0.0139
19090DOD     C2 1090  14.911   8.905  25.725 -0.1277 -0.0005 -0.0357
19090DOD     C3 1091  14.853   9.136  26.111 -0.1468 -0.0127  0.0775
19091DOD     C1 1092   0.655   6.372   5.158  0.1749  0.0591 -0.0973
19091DOD     C2 1093   0.685   6.218   4.669 -0.0383 -0.0227 -0.0690
19091DOD     C3 1094   0.929   6.208   4.279  0.0757  0.0178  0.0246
19092DOD     C1 1095  21.231  15.206  10.440 -0.0827 -0.2616 -0.4034
19092DOD     C2 1096  20.814  15.469  10.536  0.0909 -0.0416  0.2637
19092DOD     C3 1097  20.386  15.676  10.351  0.1574 -0.1390 -0.1597
19093DOD     C1 1098   2.280  19.019  27.408  0.0576 -0.2982 -0.1788
19093DOD     C2 1099   2.139  19.058  27.019  0.1701 -0.0176 -0.0506
19093DOD     C3 1100   2.071  19.144  26.585 -0.1843 -0.0768  0.1783
19094DOD     C1 1101  24.623  16.701  14.042  0.0535  0.0264  0.2067
19094DOD     C2 1102  24.780  16.919  14.356 -0.0105  0.0014 -0.0662
19094DOD     C3 1103  25.087  17.231  14.406  0.3323 -0.3609  0.0384
19095DOD     C1 1104  11.565   9.493  16.998 -0.2547 -0.2148 -0.0542
19095DOD     C2 1105  11.962   9.701  17.050  0.1030 -0.1901  0.0029
19095DOD     C3 1106  12.281  10.029  17.107  0.1463  0.0892 -0.2511
19096DOD     C1 1107   9.587  13.142  25.550 -0.2947 -0.3706 -0.2808
19096DOD     C2 1108   9.480  12.770  25.849 -0.3398  0.0655  0.0742
19096DOD     C3 1109   9.188  12.405  25.880 -0.1479 -0.0847 -0.3548
19097DOD     C1 1110  14.845  27.062  20.816 -0.1335  0.1636 -0.1285
19097DOD     C2 1111  15.274  27.149  20.972  0.0734 -0.2245 -0.3809
19097DOD     C3 1112  15.723  27.215  20.984  0.1790 -0.0937 -0.0040
19098DOD     C1 1113  10.339   5.909   7.332  0.0230  0.3738  0.0019
19098DOD     C2 1114  10.685   5.592   7.465  0.0511 -0.1325  0.0658
19098DOD     C3 1115  11.143   5.658   7.525  0.1184  0.0815 -0.0081
19099DOD     C1 1116  14.047  17.763   6.309 -0.0736 -0.3120 -0.1333
19099DOD     C2 1117  13.597  17.707   6.510  0.0642  0.0104  0.1902
19099DOD     C3 1118  13.535  17.559   6.953 -0.0812  0.1123 -0.0291
19100DOD     C1 1119  26.166  15.416  30.330  0.0106  0.1333  0.2096
19100DOD     C2 1120  26.545  15.416   0.266 -0.0387 -0.1037 -0.1123
19100DOD     C3 1121  27.000  15.393   0.426  0.3074  0.3002 -0.2528
19101DOD     C1 1122   7.880  13.517  20.586 -0.1381 -0.0165  0.0734
19101DOD     C2 1123   7.692  13.812  20.918  0.1510 -0.0968 -0.2252
19101DOD     C3 1124   7.236  14.070  20.816  0.0027 -0.1549 -0.3710
19102DOD     C1 1125   7.962   6.093   1.691  0.1491  0.1832  0.0146
19102DOD     C2 1126   8.178   6.367   1.968 -0.0412 -0.4377 -0.3021
19102DOD     C3 1127   8.308   6.768   2.161 -0.1724 -0.0865 -0.0713
19103DOD     C1 1128  28.275   0.186   3.423 -0.0933 -0.0324  0.0008
19103DOD     C2 1129  28.457  30.114   3.341  0.2756  0.1860  0.2686
19103DOD     C3 1130  28.127  29.760   3.262  0.0433  0.1430  0.0338
19104DOD     C1 1131  26.003   4.759  26.362 -0.3225  0.1969 -0.3477
19104DOD     C2 1132  25.988   5.211  26.462  0.0381 -0.2098 -0.1878
19104DOD     C3 1133  26.053   5.662  26.592  0.0427 -0.0725 -0.0656
19105DOD     C1 1134   0.543   5.526  16.321  0.0002 -0.2258  0.0758
19105DOD     C2 1135   0.785   5.607  15.954 -0.2198  0.2059  0.0605
19105DOD     C3 1136   0.957   6.013  15.651  0.0249  0.2774 -0.0444
19106DOD     C1 1137   8.343  23.845  28.888 -0.2164  0.1427  0.0634
19106DOD     C2 1138   8.600  24.142  28.606  0.1431  0.1821  0.1070
19106DOD     C3 1139   8.758  24.509  28.398 -0.0179  0.0525  0.1879
19107DOD     C1 1140  18.993   4.030   9.245 -0.1181  0.5000 -0.1343
19107DOD     C2 1141  19.244   4.001   9.641  0.0293  0.1043 -0.0517
19107DOD     C3 1142  19.619   4.009   9.947  0.1072 -0.0325 -0.1342
19108DOD     C1 1143   4.323  19.235  10.785 -0.2965 -0.1469 -0.1845
19108DOD     C2 1144   4.159  19.456  10.467  0.0679  0.1480 -0.2597
19108DOD     C3 1145   3.820  19.682  10.281 -0.1034 -0.1771 -0.0674
19109DOD     C1 1146  13.933   6.141  25.634  0.1050 -0.2105 -0.1882
19109DOD     C2 1147  13.699   6.515  25.732 -0.2594  0.0001  0.1789
19109DOD     C3 1148  13.817   6.939  25.773  0.0810 -0.1434  0.2571
19110DOD     C1 1149   8.918   7.367   6.920 -0.2048 -0.0256 -0.0996
19110DOD     C2 1150   8.480   7.257   6.776 -0.2590 -0.2893 -0.0002
19110DOD     C3 1151   8.073   7.184   7.008  0.0399  0.0412  0.3000
19111DOD     C1 1152  15.173  10.369   0.739 -0.1625  0.3089 -0.3738
19111DOD     C2 1153  15.291  10.639   0.339 -0.1003 -0.0057 -0.1865
19111DOD     C3 1154  15.309  11.034   0.146  0.0038  0.0443 -0.1909
19112DOD     C1 1155  27.976   1.025  19.961  0.0537 -0.0507  0.1658
19112DOD     C2 1156  27.924   0.677  20.251 -0.0953  0.2388  0.3704
19112DOD     C3 1157  28.132   0.324  20.386 -0.0627 -0.2037  0.1554
19113DOD     C1 1158  28.893  15.368  25.347  0.0113 -0.0773 -0.1089
19113DOD     C2 1159  28.930  15.187  25.737  0.0133  0.2327 -0.4728
19113DOD     C3 1160  29.088  14.928  26.087 -0.1611  0.1414 -0.0401
19114DOD     C1 1161  13.402   4.156  16.767  0.3703 -0.3173 -0.0649
19114DOD     C2 1162  13.342   4.095  17.262  0.1108  0.2417 -0.2939
19114DOD     C3 1163  13.404   3.841  17.604 -0.0802 -0.0160 -0.4370
19115DOD     C1 1164   3.483   8.538   3.276  0.0889  0.0089 -0.2307
19115DOD     C2 1165   3.198   8.884   3.129  0.1425  0.1440  0.1206
19115DOD     C3 1166   2.808   9.040   2.934  0.0987  0.2930  0.0614
19116DOD     C1 1167  11.117   0.600  22.800 -0.0718  0.3081 -0.0245
19116DOD     C2 1168  11.369   0.383  22.466 -0.2142 -0.3141  0.3096
19116DOD     C3 1169  11.365   0.366  21.961  0.3995 -0.1341 -0.3424
19117DOD     C1 1170  20.682  22.183   3.015 -0.0529  0.3229 -0.2853
19117DOD     C2 1171  20.648  21.994   3.483 -0.1605 -0.3217  0.2401
19117DOD     C3 1172  20.521  21.612   3.819  0.0618  0.0671  0.0997
19118DOD     C1 1173  24.997  25.722  16.479 -0.1239 -0.1198 -0.0413
19118DOD     C2 1174  24.885  26.106  16.239 -0.0623 -0.1110 -0.1492
19118DOD     C3 1175  24.801  26.552  16.127  0.2038  0.0649  0.0333
19119DOD     C1 1176   5.903   8.593  27.585  0.2999  0.1256 -0.2203
19119DOD     C2 1177   5.883   9.014  27.798 -0.5288 -0.2001  0.1415
19119DOD     C3 1178   6.222   9.295  27.828 -0.2514 -0.1439 -0.3310
19120DOD     C1 1179   0.292   6.735   2.155  0.1026  0.0236  0.0839
19120DOD     C2 1180   0.237   6.284   2.130  0.0209  0.0961  0.1805
19120DOD     C3 1181   0.460   5.959   2.402 -0.1375  0.1154  0.0221
19121DOD     C1 1182  15.160  12.645  14.163  0.3984 -0.2167  0.3782
19121DOD     C2 1183  14.971  12.664  14.556 -0.3609  0.0863 -0.2997
19121DOD     C3 1184  14.955  12.460  14.980 -0.1045 -0.1839 -0.1726
19122DOD     C1 1185  21.086   4.776   5.071 -0.1257 -0.3800  0.0468
19122DOD     C2 1186  21.026   5.010   5.491  0.1258  0.1395  0.0426
19122DOD     C3 1187  20.947   5.157   5.953  0.0399 -0.1542 -0.0428
19123DOD     C1 1188   7.133  27.589  28.922  0.0654 -0.0092  0.0483
19123DOD     C2 1189   7.170  27.383  28.480  0.1073 -0.4606 -0.3672
19123DOD     C3 1190   7.336  27.025  28.147  0.3609  0.4210  0.2219
19124DOD     C1 1191  29.775  15.860   1.125 -0.3876  0.0707  0.2802
19124DOD     C2 1192  30.254  15.903   1.016  0.1864 -0.0412 -0.1613
19124DOD     C3 1193   0.291  16.061   0.851 -0.1847  0.1099 -0.1757
19125DOD     C1 1194  14.729  22.830  23.377 -0.2448 -0.2035  0.1258
19125DOD     C2 1195  14.450  22.867  23.734 -0.0536 -0.2164 -0.1655
19125DOD     C3 1196  14.266  23.051  24.124  0.2721  0.4255 -0.0355
19126DOD     C1 1197  26.794  24.155  24.599 -0.1170  0.0095 -0.1332
19126DOD     C2 1198  26.425  24.348  24.381 -0.0633 -0.3476 -0.0647
19126DOD     C3 1199  26.204  24.735  24.213  0.0253 -0.0491  0.0887
19127DOD     C1 1200  25.715   1.283   1.006 -0.1280  0.0380 -0.0027
19127DOD     C2 1201  26.034   1.002   0.893  0.1287  0.1753 -0.2967
19127DOD     C3 1202  26.160   0.573   1.122  0.0171 -0.1984 -0.1205
19128DOD     C1 1203   6.027  15.005   7.343  0.1324 -0.2529 -0.2594
19128DOD     C2 1204   5.860  15.143   6.924 -0.0309  0.1237 -0.2691
19128DOD     C3 1205   5.918  15.564   6.689 -0.1413 -0.1996  0.0511
19129DOD     C1 1206  14.310  11.388  26.033  0.0101 -0.1275  0.0156
19129DOD     C2 1207  14.570  11.633  25.687  0.2094  0.0881 -0.2477
19129DOD     C3 1208  14.642  12.047  25.462  0.0428  0.1280  0.1232
19130DOD     C1 1209  10.684   0.549   1.461  0.2834 -0.0996 -0.2003
19130DOD     C2 1210  10.631   0.841   1.151 -0.2377 -0.1666  0.2546
19130DOD     C3 1211  10.428   1.238   1.017 -0.0909  0.2116 -0.1101
19131DOD     C1 1212  19.169  24.809   7.037 -0.1121 -0.5546  0.0149
19131DOD     C2 1213  19.019  25.274   6.970 -0.0149  0.1209  0.0513
19131DOD     C3 1214  18.630  25.469   6.939 -0.0027  0.1052  0.4530
19132DOD     C1 1215  14.350  16.639  29.015 -0.0441 -0.2434  0.1889
19132DOD     C2 1216  14.586  16.774  29.340  0.1769  0.1729  0.4973
19132DOD     C3 1217  14.988  16.814  29.559  0.0887  0.1376  0.1721
19133DOD     C1 1218  13.358   5.962   4.752 -0.3178 -0.1170  0.2588
19133DOD     C2 1219  13.123   6.275   4.530 -0.3249 -0.1011 -0.0588
19133DOD     C3 1220  13.076   6.136   4.054  0.0577 -0.1971  0.2152
19134DOD     C1 1221  18.546  27.551   8.735  0.2730 -0.0611 -0.1761
19134DOD     C2 1222  18.094  27.568   8.674 -0.0650 -0.0177 -0.1458
19134DOD     C3 1223  17.735  27.693   8.455  0.3367  0.2083  0.0295
19135DOD     C1 1224  16.710  19.810  16.837  0.1899 -0.0278 -0.1310
19135DOD     C2 1225  16.299  19.772  16.666  0.0548  0.3518  0.0617
19135DOD     C3 1226  15.975  19.595  16.851  0.2153  0.0208  0.4298
19136DOD     C1 1227   3.788  21.972  15.676 -0.0866 -0.3242  0.3119
19136DOD     C2 1228   3.308  21.994  15.781 -0.1921 -0.2226 -0.2759
19136DOD     C3 1229   2.977  21.776  16.007  0.2483  0.0820  0.0804
19137DOD     C1 1230  15.884  28.312  20.887  0.0355  0.4088  0.0110
19137DOD     C2 1231  16.331  28.428  20.728  0.3904 -0.2542 -0.1751
19137DOD     C3 1232  16.696  28.195  20.662 -0.0056  0.4385  0.1740
19138DOD     C1 1233  18.671  17.335  13.630 -0.0152  0.0454 -0.1382
19138DOD     C2 1234  19.136  17.427  13.676 -0.1268  0.2759 -0.1617
19138DOD     C3 1235  19.422  17.628  14.031  0.0052  0.1808 -0.1718
19139DOD     C1 1236   5.802  26.923  23.447  0.1521 -0.0480  0.0583
19139DOD     C2 1237   6.021  26.703  23.806  0.0328  0.1159  0.4401
19139DOD     C3 1238   5.872  26.521  24.200 -0.2376  0.1394  0.2826
19140DOD     C1 1239  26.152   3.987   0.340  0.2537 -0.1590  0.0266
19140DOD     C2 1240  25.935   3.723   0.668  0.2782 -0.0254  0.0511
19140DOD     C3 1241  25.626   3.558   1.033  0.3482 -0.2358  0.0081
19141DOD     C1 1242  27.491   9.755  24.448  0.0036 -0.1423  0.2103
19141DOD     C2 1243  27.094   9.912  24.295  0.1026 -0.2408 -0.1460
19141DOD     C3 1244  26.973  10.277  24.515  0.0892 -0.0264  0.4433
19142DOD     C1 1245  13.315  14.723  27.576  0.2340 -0.1979 -0.0496
19142DOD     C2 1246  13.778  14.693  27.629  0.1856  0.0677  0.2892
19142DOD     C3 1247  14.218  14.879  27.580  0.0483 -0.2072 -0.2261
19143DOD     C1 1248  11.829  29.682  10.311 -0.0302 -0.0621 -0.0462
19143DOD     C2 1249  11.530  30.026  10.363 -0.3474  0.0341 -0.1899
19143DOD     C3 1250  11.108  -0.040  10.347  0.1269 -0.2580  0.0588
19144DOD     C1 1251  29.218  29.799  13.532 -0.1113 -0.0758 -0.2198
19144DOD     C2 1252  29.409  29.459  13.302 -0.0963 -0.1518  0.2720
19144DOD     C3 1253  29.621  29.044  13.286  0.2171  0.0707  0.0547
19145DOD     C1 1254   4.402  27.809  27.352 -0.0020  0.0189 -0.1708
19145DOD     C2 1255   4.364  28.235  27.578  0.0442  0.1616 -0.0181
19145DOD     C3 1256   4.545  28.510  27.844  0.0979  0.0793  0.4402
19146DOD     C1 1257  21.327   3.387  27.058  0.4524  0.1220  0.1499
19146DOD     C2 1258  21.068   3.616  27.367  0.0660 -0.1117 -0.0297
19146DOD     C3 1259  21.256   3.896  27.688  0.0822  0.0994 -0.1257
19147DOD     C1 1260  12.656  14.232   5.705  0.1185 -0.0882 -0.1987
19147DOD     C2 1261  12.827  13.925   5.400  0.0610  0.1488 -0.1000
19147DOD     C3 1262  13.088  13.619   5.146  0.1112 -0.1665  0.0630
19148DOD     C1 1263   4.064  11.432   3.512  0.1057 -0.1217 -0.0014
19148DOD     C2 1264   4.123  10.961   3.474  0.0355 -0.2251 -0.1018
19148DOD     C3 1265   4.118  10.719   3.096 -0.0311  0.1124 -0.0545
19149DOD     C1 1266   4.532  26.275  25.478 -0.1775 -0.1776 -0.1022
19149DOD     C2 1267   4.655  26.719  25.604  0.0812 -0.0139 -0.0026
19149DOD     C3 1268   4.478  27.190  25.605  0.1329 -0.0935  0.1541
19150DOD     C1 1269   5.751  15.787   1.393  0.1093 -0.1864 -0.2024
19150DOD     C2 1270   5.434  15.947   1.667  0.2039  0.2339  0.1627
19150DOD     C3 1271   4.984  16.005   1.801  0.0999  0.0488 -0.1807
19151DOD     C1 1272   4.766  29.900  29.587 -0.1535 -0.0379 -0.0944
19151DOD     C2 1273   4.992  30.245  29.661  0.2082 -0.0725  0.1671
19151DOD     C3 1274   5.248   0.159  29.309  0.0281 -0.1162  0.3244
19152DOD     C1 1275  28.459   9.407  29.309  0.1211  0.0969  0.0370
19152DOD     C2 1276  28.140   9.723  29.182  0.1586  0.1709 -0.2140
19152DOD     C3 1277  28.201  10.144  29.397 -0.2219  0.2033  0.0348
19153DOD     C1 1278  15.952   8.506  26.490 -0.3271 -0.0735  0.0124
19153DOD     C2 1279  15.818   8.801  26.147  0.1006  0.1127  0.2695
19153DOD     C3 1280  15.868   9.256  25.939  0.0226  0.0967 -0.1708
19154DOD     C1 1281  14.035   3.317  27.994  0.0970  0.0417  0.0856
19154DOD     C2 1282  14.444   3.081  28.036  0.2332 -0.2878 -0.0049
19154DOD     C3 1283  14.847   2.812  28.063  0.2423  0.2393 -0.1268
19155DOD     C1 1284   6.288  21.445  19.268  0.2480 -0.1436 -0.1055
19155DOD     C2 1285   6.450  21.683  18.854  0.0691 -0.0313 -0.0796
19155DOD     C3 1286   6.699  21.844  18.499 -0.0633 -0.0240  0.0068
19156DOD     C1 1287   3.436  26.593  27.595 -0.0760  0.2408  0.1973
19156DOD     C2 1288   3.187  26.956  27.777 -0.1740 -0.1482  0.0629
19156DOD     C3 1289   3.062  27.338  27.599 -0.2022  0.0748  0.0480
19157DOD     C1 1290   6.957  11.101  11.396 -0.3853 -0.0037  0.2430
19157DOD     C2 1291   6.879  11.156  11.888 -0.1805 -0.0644  0.1267
19157DOD     C3 1292   6.764  11.285  12.298 -0.0264  0.0751  0.1196
19158DOD     C1 1293  22.987   5.668  15.774 -0.4124  0.0929 -0.0576
19158DOD     C2 1294  23.417   5.820  15.997 -0.3124  0.3150 -0.0120
19158DOD     C3 1295  23.824   5.730  16.264 -0.2833  0.1405 -0.0068
19159DOD     C1 1296  14.913  19.836  30.022  0.2129  0.0540 -0.1307
19159DOD     C2 1297  14.449  19.880  30.199  0.1200 -0.0242 -0.1261
19159DOD     C3 1298  14.001  19.786  30.296  0.2417 -0.1667  0.0483
19160DOD     C1 1299   8.672   9.633  25.000  0.0322  0.3774 -0.4769
19160DOD     C2 1300   8.928   9.670  25.387  0.2153 -0.3155 -0.2002
19160DOD     C3 1301   9.070  10.029  25.672  0.0909  0.2512 -0.0422
19161DOD     C1 1302  25.228   7.580   4.876 -0.0435 -0.0079  0.0063
19161DOD     C2 1303  24.778   7.584   4.953  0.2969 -0.4562  0.1307
19161DOD     C3 1304  24.505   7.365   5.315  0.0819  0.2568 -0.0220
19162DOD     C1 1305  16.319  12.741  17.385 -0.3015  0.1275 -0.2115
19162DOD     C2 1306  16.095  12.338  17.165 -0.0709 -0.0660  0.2255
19162DOD     C3 1307  16.124  11.870  17.245  0.2665 -0.0499  0.1121
19163DOD     C1 1308  28.931  15.447  17.395 -0.2934 -0.1671 -0.0652
19163DOD     C2 1309  28.762  15.557  16.977 -0.1289  0.0713 -0.0805
19163DOD     C3 1310  28.849  15.859  16.639  0.1234 -0.0218 -0.0335
19164DOD     C1 1311  16.918  26.702   9.956  0.0309 -0.0937 -0.2131
19164DOD     C2 1312  17.134  26.605   9.558  0.0706 -0.2842  0.0881
19164DOD     C3 1313  17.367  26.540   9.113 -0.0548 -0.2361 -0.2236
19165DOD     C1 1314  15.768  12.310  30.259  0.1125  0.1198  0.3166
19165DOD     C2 1315  15.897  11.877  30.291  0.1351  0.1555 -0.0912
19165DOD     C3 1316  15.882  11.566   0.320 -0.1062  0.0646  0.1469
19166DOD     C1 1317   0.315  19.997  10.376  0.2350  0.2507 -0.1010
19166DOD     C2 1318   0.329  19.870  10.824 -0.2020  0.4702  0.0162
19166DOD     C3 1319   0.140  19.543  11.072 -0.0272  0.0685  0.2823
19167DOD     C1 1320  18.410  16.663   3.851 -0.3806 -0.0658 -0.0048
19167DOD     C2 1321  18.590  16.367   3.528 -0.0397  0.1564 -0.1060
19167DOD     C3 1322  18.781  16.369   3.082 -0.0457 -0.0230 -0.3555
19168DOD     C1 1323   0.257  12.600  20.644 -0.1633 -0.0171 -0.1483
19168DOD     C2 1324   0.622  12.662  20.935  0.1578  0.1249 -0.0934
19168DOD     C3 1325   0.806  12.961  21.239 -0.2229 -0.0992 -0.1228
19169DOD     C1 1326  13.084   4.518  21.814  0.0389 -0.0854 -0.0184
19169DOD     C2 1327  12.941   4.246  22.138  0.0616  0.0419 -0.1640
19169DOD     C3 1328  12.687   4.030  22.489  0.1760 -0.0744 -0.3203
19170DOD     C1 1329  20.746   2.653   0.880  0.0477  0.1158  0.1316
19170DOD     C2 1330  20.353   2.420   0.927 -0.2969  0.2327 -0.1959
19170DOD     C3 1331  19.970   2.287   0.887  0.1499 -0.0920 -0.2392
19171DOD     C1 1332  15.221  13.446  27.413 -0.2143  0.0472 -0.0544
19171DOD     C2 1333  15.411  13.025  27.440 -0.2113 -0.2727  0.3281
19171DOD     C3 1334  15.646  12.872  27.053 -0.0617  0.1589 -0.0758
19172DOD     C1 1335  19.003   9.466   0.802 -0.4866 -0.4196 -0.2563
19172DOD     C2 1336  18.917   9.355   1.198  0.0382  0.1444  0.0417
19172DOD     C3 1337  19.111   8.999   1.492  0.0337 -0.1652  0.1230
19173DOD     C1 1338  24.236  12.756  28.449  0.4201  0.0409 -0.1197
19173DOD     C2 1339  23.940  12.814  28.832  0.3199  0.0441 -0.2009
19173DOD     C3 1340  23.962  12.809  29.303 -0.0619 -0.3574  0.0023
19174DOD     C1 1341  19.976  10.923   5.697  0.0966  0.1470 -0.1616
19174DOD     C2 1342  20.319  11.196   5.875  0.1856  0.0551 -0.0406
19174DOD     C3 1343  20.654  11.487   6.108 -0.1229 -0.2955 -0.1778
19175DOD     C1 1344   0.368  17.249  10.881  0.0686 -0.1544  0.0617
19175DOD     C2 1345   0.549  16.940  11.158  0.3711  0.3364  0.0193
19175DOD     C3 1346   0.785  16.773  11.513 -0.1247 -0.0971  0.1883
19176DOD     C1 1347   8.427  26.413   7.396 -0.2639  0.1698 -0.2499
19176DOD     C2 1348   8.189  26.428   6.966  0.2420 -0.1469 -0.0249
19176DOD     C3 1349   7.947  26.715   6.844 -0.2347  0.0001  0.0727
19177DOD     C1 1350   3.958  13.430  20.029 -0.3146  0.1199  0.2346
19177DOD     C2 1351   4.138  13.019  20.243 -0.2408  0.3620 -0.1924
19177DOD     C3 1352   4.536  12.835  20.429 -0.2959  0.1900 -0.1786
19178DOD     C1 1353  25.795   9.293  19.653  0.3216 -0.0715 -0.0113
19178DOD     C2 1354  25.985   9.605  19.855 -0.2226 -0.1553  0.1256
19178DOD     C3 1355  26.253   9.841  20.180 -0.1354  0.1087 -0.0830
19179DOD     C1 1356  28.320  29.099   4.200  0.0160 -0.2518  0.2613
19179DOD     C2 1357  28.488  29.540   4.134 -0.0089  0.2335 -0.1482
19179DOD     C3 1358  28.796  29.813   4.098  0.1929  0.0939 -0.0125
19180DOD     C1 1359   7.429  18.142  15.881 -0.0596  0.0870 -0.0614
19180DOD     C2 1360   7.903  18.092  16.006  0.0285 -0.0576  0.4480
19180DOD     C3 1361   8.300  17.961  16.067  0.0354  0.0735 -0.2949
19181DOD     C1 1362  20.586  10.103  18.064  0.0329  0.2419  0.1803
19181DOD     C2 1363  20.360  10.467  17.956 -0.0260 -0.0524 -0.0675
19181DOD     C3 1364  20.134  10.703  17.679  0.2701 -0.2178 -0.1826
19182DOD     C1 1365   7.541  11.924  26.227  0.0603  0.0464 -0.0671
19182DOD     C2 1366   7.927  12.180  26.356  0.0442 -0.1812  0.1421
19182DOD     C3 1367   8.355  12.103  26.272  0.2134  0.2488  0.1503
19183DOD     C1 1368   3.970   1.178   5.252  0.1729  0.0730 -0.0410
19183DOD     C2 1369   3.492   1.018   5.230 -0.1421  0.1337 -0.0337
19183DOD     C3 1370   3.232   1.147   5.583 -0.1667 -0.1241 -0.3017
19184DOD     C1 1371  10.774   2.663  16.922 -0.2258 -0.4352 -0.1094
19184DOD     C2 1372  10.685   2.804  16.473  0.1036  0.3384  0.1604
19184DOD     C3 1373  10.641   2.800  16.012  0.0100 -0.0571 -0.1048
19185DOD     C1 1374   4.718   3.413   7.206  0.0784 -0.0492  0.0859
19185DOD     C2 1375   5.059   3.605   6.989 -0.2704 -0.0468  0.1584
19185DOD     C3 1376   5.427   3.791   6.786 -0.1217  0.0373  0.0663
19186DOD     C1 1377  18.895  29.918   7.562  0.3632 -0.2407 -0.4128
19186DOD     C2 1378  19.185  29.524   7.480  0.0657  0.1813  0.2263
19186DOD     C3 1379  19.467  29.277   7.165  0.0275 -0.1277 -0.1836
19187DOD     C1 1380  26.864  16.571  15.172  0.1119 -0.0658 -0.0027
19187DOD     C2 1381  26.381  16.457  15.103 -0.1542 -0.0596  0.1158
19187DOD     C3 1382  25.980  16.390  15.353  0.3704 -0.0989  0.2118
19188DOD     C1 1383  22.887  15.724   6.408 -0.1414 -0.3238 -0.0327
19188DOD     C2 1384  23.017  15.454   6.771  0.2771 -0.2606 -0.0802
19188DOD     C3 1385  22.938  15.619   7.227  0.0904  0.2284 -0.1522
19189DOD     C1 1386  12.142   9.959   9.634  0.2386 -0.0047 -0.1394
19189DOD     C2 1387  12.612   9.920   9.712  0.3251  0.1693  0.0332
19189DOD     C3 1388  12.852  10.118  10.067 -0.0766  0.1790  0.1167
19190DOD     C1 1389  18.948  13.630   5.902 -0.0849 -0.0046  0.2467
19190DOD     C2 1390  19.165  14.075   5.949 -0.1593 -0.5360  0.0492
19190DOD     C3 1391  19.238  14.468   6.234  0.2234  0.1291  0.0636
19191DOD     C1 1392   2.687   0.966  23.788  0.1052 -0.0769 -0.1672
19191DOD     C2 1393   2.452   0.697  23.532 -0.1264 -0.0160 -0.1937
19191DOD     C3 1394   2.360   0.222  23.532  0.2204  0.1685  0.1645
19192DOD     C1 1395  14.643  17.021  17.062 -0.2419  0.2084 -0.0548
19192DOD     C2 1396  14.763  16.528  17.040  0.1828 -0.0585  0.1320
19192DOD     C3 1397  14.671  16.055  17.154  0.1216  0.1853  0.3822
19193DOD     C1 1398  25.726   8.740   3.322  0.1557 -0.3438  0.2228
19193DOD     C2 1399  25.416   8.731   3.633 -0.0801 -0.2917  0.2186
19193DOD     C3 1400  25.173   8.636   4.005 -0.1017 -0.0564 -0.1099
19194DOD     C1 1401  24.624  10.139  21.652 -0.0275  0.2081  0.0491
19194DOD     C2 1402  24.916   9.851  21.772 -0.0423 -0.2261 -0.0902
19194DOD     C3 1403  25.034   9.631  22.173  0.2078  0.0961  0.4766
19195DOD     C1 1404  28.324  24.528  12.466 -0.2334 -0.0570 -0.0386
19195DOD     C2 1405  28.704  24.382  12.664 -0.0197 -0.0296  0.1639
19195DOD     C3 1406  29.124  24.162  12.605  0.0285  0.0027  0.2383
19196DOD     C1 1407   3.650  16.688  23.638 -0.1055  0.1854 -0.1545
19196DOD     C2 1408   3.896  17.092  23.454  0.2016 -0.0328  0.2679
19196DOD     C3 1409   4.221  17.414  23.390 -0.4037 -0.2166 -0.2024
19197DOD     C1 1410   6.482  29.462  12.804  0.1331 -0.0963  0.2601
19197DOD     C2 1411   6.035  29.520  13.026  0.2070  0.0771 -0.0436
19197DOD     C3 1412   5.661  29.288  12.993 -0.0548 -0.0724 -0.1893
19198DOD     C1 1413  27.358  27.851   0.620 -0.0574  0.0799 -0.1605
19198DOD     C2 1414  27.475  27.442   0.893  0.2495 -0.0692 -0.1541
19198DOD     C3 1415  27.237  27.076   1.209 -0.0365  0.2197  0.3067
19199DOD     C1 1416   9.836  29.229   7.729  0.2962  0.0213  0.2614
19199DOD     C2 1417   9.930  28.833   7.954 -0.4497  0.0071  0.2397
19199DOD     C3 1418   9.976  28.461   8.261  0.2024 -0.0353 -0.2361
19200DOD     C1 1419   5.430  24.029  12.674  0.0694 -0.0936 -0.1923
19200DOD     C2 1420   5.545  24.079  12.217  0.0895 -0.2590  0.1803
19200DOD     C3 1421   5.686  24.390  11.918 -0.1456  0.1507 -0.1612
19201DOD     C1 1422  29.949  15.158  26.623 -0.0506  0.2717 -0.1739
19201DOD     C2 1423  29.775  15.207  27.001  0.1659  0.1762 -0.1719
19201DOD     C3 1424  29.582  14.969  27.362  0.2437 -0.2300 -0.1891
19202DOD     C1 1425  18.015   3.636  28.406 -0.0960 -0.1683 -0.2162
19202DOD     C2 1426  18.270   3.848  28.105 -0.0495 -0.0975  0.0867
19202DOD     C3 1427  18.356   4.047  27.693 -0.1028  0.0039 -0.0866
19203DOD     C1 1428  10.684  24.041  22.539 -0.1003 -0.2673 -0.0317
19203DOD     C2 1429  10.545  23.860  22.894 -0.1119 -0.0063 -0.0532
19203DOD     C3 1430  10.448  23.759  23.326 -0.0271 -0.0756 -0.0520
19204DOD     C1 1431  29.132  28.625   3.922  0.4757  0.2456 -0.0434
19204DOD     C2 1432  28.781  28.885   4.196  0.1508  0.0590  0.1463
19204DOD     C3 1433  28.649  29.206   4.532  0.1125  0.2518  0.1098
19205DOD     C1 1434  21.680   8.257   9.383  0.0924  0.2506 -0.1369
19205DOD     C2 1435  21.673   8.707   9.527  0.0207 -0.5432  0.2645
19205DOD     C3 1436  21.710   9.125   9.570 -0.1206 -0.1433 -0.0364
19206DOD     C1 1437  20.168  15.011  17.722 -0.0511  0.0062 -0.1469
19206DOD     C2 1438  19.865  14.791  17.960 -0.2481 -0.2612  0.3303
19206DOD     C3 1439  19.480  14.773  18.075  0.2328 -0.0547 -0.0322
19207DOD     C1 1440   4.279   4.348  11.889  0.0711  0.1443  0.1993
19207DOD     C2 1441   4.005   4.379  11.445  0.0268 -0.1218 -0.4225
19207DOD     C3 1442   4.172   4.149  11.050  0.0045 -0.2645 -0.1891
19208DOD     C1 1443   7.475   7.197   7.930  0.0793  0.0902 -0.1437
19208DOD     C2 1444   7.137   7.438   7.752  0.1248  0.0189  0.0946
19208DOD     C3 1445   6.890   7.594   7.415  0.0952 -0.0800  0.1829
19209DOD     C1 1446  12.102  18.122  17.475 -0.1613 -0.0319  0.0215
19209DOD     C2 1447  12.440  18.382  17.471 -0.6529 -0.4074 -0.1786
19209DOD     C3 1448  12.763  18.702  17.571 -0.0482  0.1322 -0.2493
19210DOD     C1 1449   0.125  14.762   8.320  0.1509  0.3978  0.0308
19210DOD     C2 1450   0.576  14.756   8.375  0.0361  0.0667  0.0694
19210DOD     C3 1451   0.898  15.013   8.363 -0.0911 -0.3281  0.0869
19211DOD     C1 1452  16.990   0.304  15.183  0.3739  0.0365  0.1555
19211DOD     C2 1453  17.024  30.193  15.337 -0.0624  0.2073 -0.2228
19211DOD     C3 1454  16.954  29.916  15.713 -0.1474 -0.1737 -0.2578
19212DOD     C1 1455  23.170  18.299   1.729  0.1059  0.2057  0.0425
19212DOD     C2 1456  22.984  18.743   1.682  0.1109  0.0362 -0.0925
19212DOD     C3 1457  22.821  19.126   1.719  0.2195 -0.2530  0.1141
19213DOD     C1 1458  12.745   2.350   1.705  0.0377 -0.1215  0.3079
19213DOD     C2 1459  12.765   2.659   2.068  0.0183  0.0916 -0.0274
19213DOD     C3 1460  12.921   3.078   2.159 -0.0610 -0.1007 -0.0867
19214DOD     C1 1461  21.132   8.888   6.928 -0.0821 -0.0794 -0.0896
19214DOD     C2 1462  21.486   9.180   6.960  0.2068 -0.1379 -0.1036
19214DOD     C3 1463  21.810   9.456   6.702 -0.3013 -0.3778 -0.0201
19215DOD     C1 1464  16.742   7.030  10.782 -0.0249  0.0491  0.1191
19215DOD     C2 1465  16.421   7.165  11.065 -0.0712  0.0834 -0.0590
19215DOD     C3 1466  16.313   7.030  11.511  0.1135  0.0736 -0.0147
19216DOD     C1 1467  19.695  16.937  17.768 -0.2027 -0.0679  0.4300
19216DOD     C2 1468  19.429  16.701  17.993 -0.0510  0.0281  0.2027
19216DOD     C3 1469  19.267  16.391  18.353 -0.0811 -0.3858 -0.0800
19217DOD     C1 1470  22.559  28.522  18.192  0.0724  0.2316  0.1148
19217DOD     C2 1471  22.127  28.642  18.038 -0.1739 -0.1282  0.2702
19217DOD     C3 1472  21.886  28.976  18.186  0.0187 -0.0428  0.2832
19218DOD     C1 1473  12.819  12.556  29.412 -0.0718  0.1941  0.1698
19218DOD     C2 1474  13.138  12.294  29.683 -0.2478  0.0209  0.0762
19218DOD     C3 1475  13.404  12.153  30.005 -0.2031 -0.1988 -0.0598
19219DOD     C1 1476  11.649  16.976   5.178 -0.3029  0.1887  0.1972
19219DOD     C2 1477  11.258  16.701   5.320 -0.0551 -0.1670 -0.2427
19219DOD     C3 1478  11.020  16.591   5.688 -0.1214  0.1591  0.0041
19220DOD     C1 1479   0.093   1.984   6.477 -0.1518 -0.0991  0.1241
19220DOD     C2 1480  29.937   2.035   6.417 -0.1763  0.0909 -0.2010
19220DOD     C3 1481  29.637   1.700   6.495 -0.1298  0.2851 -0.2012
19221DOD     C1 1482  24.090  29.659   5.601  0.1303 -0.3899  0.0104
19221DOD     C2 1483  23.961  29.638   5.178 -0.2109 -0.0525 -0.2524
19221DOD     C3 1484  23.569  29.673   4.935  0.4395 -0.0510 -0.0420
19222DOD     C1 1485  23.868  23.389  29.338 -0.1992 -0.2071  0.0487
19222DOD     C2 1486  23.404  23.218  29.304 -0.2448  0.0574 -0.0089
19222DOD     C3 1487  23.044  23.267  29.623  0.1556  0.1160 -0.2617
19223DOD     C1 1488  22.690   3.702  22.123  0.1046  0.1583 -0.0169
19223DOD     C2 1489  22.643   3.713  21.678  0.1352  0.1161  0.1218
19223DOD     C3 1490  22.741   4.051  21.355 -0.0440 -0.0371 -0.1514
19224DOD     C1 1491   0.370  15.122  27.272  0.0139 -0.0556 -0.1613
19224DOD     C2 1492   0.752  15.314  27.248  0.0104 -0.2400 -0.0511
19224DOD     C3 1493   1.111  15.616  27.177 -0.1500  0.0603 -0.2217
19225DOD     C1 1494  24.927   5.708  26.669 -0.2921 -0.0163  0.0472
19225DOD     C2 1495  24.658   5.491  26.313  0.2696 -0.2175  0.2070
19225DOD     C3 1496  24.502   5.593  25.923 -0.0209  0.1876  0.2447
19226DOD     C1 1497  16.638  15.590  15.347 -0.0593 -0.0492  0.1458
19226DOD     C2 1498  17.085  15.551  15.112  0.1224 -0.3615 -0.0781
19226DOD     C3 1499  17.362  15.625  14.715 -0.0710  0.0147 -0.0630
19227DOD     C1 1500  18.850  10.529   5.176 -0.1942  0.1268  0.1578
19227DOD     C2 1501  18.695  10.308   4.793 -0.1446  0.1114  0.1330
19227DOD     C3 1502  18.206  10.253   4.832  0.0512  0.1552 -0.0524
19228DOD     C1 1503  13.748  10.953   7.385  0.0269 -0.3058 -0.0975
19228DOD     C2 1504  14.078  10.663   7.208 -0.1672 -0.2042  0.2813
19228DOD     C3 1505  14.379  10.682   6.870 -0.0557 -0.0228  0.1727
19229DOD     C1 1506   8.797   4.910  14.628  0.0843  0.1528 -0.0335
19229DOD     C2 1507   8.433   5.012  14.289 -0.2430  0.3140 -0.2874
19229DOD     C3 1508   7.958   5.071  14.189 -0.1532 -0.4356 -0.0839
19230DOD     C1 1509  28.692  21.054   4.133 -0.1104 -0.1100 -0.1984
19230DOD     C2 1510  28.932  21.477   4.074 -0.0119  0.4306  0.1577
19230DOD     C3 1511  29.190  21.852   4.002  0.0233  0.0865 -0.1413
19231DOD     C1 1512   2.052  20.945   5.472 -0.2169  0.1825  0.3651
19231DOD     C2 1513   2.450  21.137   5.297  0.1580  0.0468 -0.0111
19231DOD     C3 1514   2.701  21.416   5.027  0.3779  0.3363  0.3856
19232DOD     C1 1515  14.600  19.720   0.706 -0.1076 -0.1178 -0.0665
19232DOD     C2 1516  14.405  19.316   0.886 -0.1453 -0.3101 -0.0756
19232DOD     C3 1517  14.224  18.849   1.006 -0.2323  0.1384  0.1515
19233DOD     C1 1518   0.258   5.700   4.038  0.6164  0.0388  0.0397
19233DOD     C2 1519   0.194   5.271   4.187 -0.0380  0.2441  0.1551
19233DOD     C3 1520   0.422   4.906   4.027  0.0402 -0.0452  0.1906
19234DOD     C1 1521  24.752  11.843  11.809 -0.1565 -0.1473  0.0265
19234DOD     C2 1522  24.469  11.442  11.825  0.0909  0.1493  0.4425
19234DOD     C3 1523  24.261  11.188  11.485  0.3451  0.3554 -0.2292
19235DOD     C1 1524   0.965  16.093  11.934 -0.0882  0.1016  0.2461
19235DOD     C2 1525   0.833  16.229  12.357  0.2232 -0.0892 -0.1618
19235DOD     C3 1526   0.639  16.601  12.573  0.2281  0.1344  0.1447
19236DOD     C1 1527   0.596  29.735  24.484  0.0217 -0.0637 -0.1181
19236DOD     C2 1528   0.985  30.042  24.482 -0.0451 -0.0503 -0.0799
19236DOD     C3 1529   1.119   0.073  24.799  0.1662 -0.3383  0.0000
19237DOD     C1 1530   2.844  11.156   3.807 -0.2263 -0.3194  0.0785
19237DOD     C2 1531   2.856  11.262   3.364  0.1437 -0.0049  0.1412
19237DOD     C3 1532   2.909  11.319   2.949  0.3242  0.2328  0.0075
19238DOD     C1 1533  18.114  24.010  21.557  0.1088  0.0379  0.2534
19238DOD     C2 1534  18.073  24.064  22.014 -0.0977  0.2575 -0.1292
19238DOD     C3 1535  18.345  24.383  22.139  0.1368 -0.2850 -0.0535
19239DOD     C1 1536  14.378   8.442   8.260 -0.0949 -0.0816  0.0731
19239DOD     C2 1537  14.616   8.889   8.309 -0.1519 -0.1539 -0.3400
19239DOD     C3 1538  14.914   9.264   8.387  0.0067 -0.0471 -0.1606
19240DOD     C1 1539  17.749  25.075   4.294 -0.1329 -0.1373 -0.0081
19240DOD     C2 1540  17.965  24.719   4.529 -0.1390  0.3769 -0.2019
19240DOD     C3 1541  18.386  24.547   4.346 -0.0472 -0.1440 -0.4715
19241DOD     C1 1542  29.365   2.620  28.573 -0.0451 -0.2181 -0.0604
19241DOD     C2 1543  29.604   2.757  28.943 -0.3440 -0.1415 -0.1182
19241DOD     C3 1544  29.722   3.055  29.257  0.2150 -0.0839  0.4118
19242DOD     C1 1545   9.376  28.787  18.533  0.1859  0.3037  0.2397
19242DOD     C2 1546   9.104  28.860  18.144 -0.0067 -0.2011  0.1762
19242DOD     C3 1547   9.035  28.859  17.676  0.1072  0.2718  0.2470
19243DOD     C1 1548   4.613  24.052  22.636 -0.0343  0.1551  0.1201
19243DOD     C2 1549   4.887  24.190  23.008  0.0014 -0.0482 -0.3983
19243DOD     C3 1550   5.036  24.507  23.316  0.0400  0.1229 -0.0177
19244DOD     C1 1551  19.975  13.824  12.812  0.2502  0.1766 -0.0419
19244DOD     C2 1552  19.941  13.503  12.484 -0.1659 -0.3347 -0.2512
19244DOD     C3 1553  20.161  13.351  12.104 -0.4229 -0.2679 -0.0019
19245DOD     C1 1554   7.114   2.449  25.091  0.2594 -0.0210  0.0103
19245DOD     C2 1555   6.791   2.136  24.943  0.1309 -0.1221  0.2193
19245DOD     C3 1556   6.507   1.822  24.731  0.1076 -0.3160 -0.2475
19246DOD     C1 1557   1.826   0.861  29.245  0.1617  0.0449  0.4049
19246DOD     C2 1558   1.653   1.291  29.291 -0.0939 -0.0692 -0.0082
19246DOD     C3 1559   1.737   1.757  29.389  0.0254  0.0822 -0.3052
19247DOD     C1 1560  15.394   7.109  26.920  0.2469 -0.1564  0.3951
19247DOD     C2 1561  15.718   7.020  27.229 -0.0748 -0.0029 -0.1687
19247DOD     C3 1562  16.089   7.297  27.294 -0.2975  0.0653  0.2576
19248DOD     C1 1563  18.385  25.977  16.490 -0.0216 -0.0225 -0.3495
19248DOD     C2 1564  18.502  25.577  16.434  0.2973  0.2490  0.2981
19248DOD     C3 1565  18.864  25.273  16.284  0.2192 -0.1041 -0.2718
19249DOD     C1 1566  18.738  28.975  30.027 -0.0709  0.1037 -0.1220
19249DOD     C2 1567  18.496  28.809   0.102  0.0707  0.2161  0.2953
19249DOD     C3 1568  18.215  28.514   0.309 -0.0683 -0.2669 -0.1237
19250DOD     C1 1569  15.584  19.688  11.026  0.3620 -0.3062 -0.0223
19250DOD     C2 1570  15.665  19.505  10.588  0.1987  0.0097  0.0409
19250DOD     C3 1571  15.666  19.294  10.156  0.0320 -0.2464  0.1329
19251DOD     C1 1572  26.630  21.293  20.964  0.1547  0.0449  0.1820
19251DOD     C2 1573  26.991  21.401  20.629 -0.0053  0.1109 -0.0563
19251DOD     C3 1574  27.313  21.758  20.643 -0.0730  0.3775 -0.0391
19252DOD     C1 1575   0.257   4.048   4.506 -0.1125 -0.3431  0.0284
19252DOD     C2 1576   0.425   3.638   4.375 -0.0664 -0.3528 -0.2313
19252DOD     C3 1577   0.379   3.245   4.134  0.1496 -0.3808  0.0393
19253DOD     C1 1578  28.481  10.184   4.769 -0.0560 -0.1740 -0.0239
19253DOD     C2 1579  28.121  10.414   4.930 -0.0394 -0.0525 -0.1041
19253DOD     C3 1580  27.697  10.608   5.064  0.1133 -0.2386  0.0837
19254DOD     C1 1581  17.957  22.269  23.435 -0.1380 -0.0155  0.1996
19254DOD     C2 1582  17.680  22.229  23.818 -0.1051  0.1913 -0.1000
19254DOD     C3 1583  17.581  22.250  24.264  0.1759 -0.0115 -0.2628
19255DOD     C1 1584   7.139  13.481  15.044  0.0321  0.0243  0.1228
19255DOD     C2 1585   7.053  13.828  14.809  0.0421 -0.0199 -0.4681
19255DOD     C3 1586   6.991  14.127  14.527  0.2060  0.0598  0.0213
19256DOD     C1 1587   7.797  12.683  20.231  0.3042  0.2404 -0.3270
19256DOD     C2 1588   7.949  13.154  20.253  0.0554 -0.0391  0.0351
19256DOD     C3 1589   8.157  13.608  20.220 -0.0176 -0.2106  0.0069
19257DOD     C1 1590  20.181  10.032  16.996  0.3514  0.1450  0.1047
19257DOD     C2 1591  19.738   9.953  17.113  0.2260 -0.0133  0.0801
19257DOD     C3 1592  19.412   9.634  17.117 -0.0625 -0.2112 -0.0562
19258DOD     C1 1593  20.523   0.368   7.814 -0.0188 -0.2936 -0.2763
19258DOD     C2 1594  20.844   0.239   7.585  0.0037  0.0248  0.0752
19258DOD     C3 1595  21.032  30.091   7.593  0.0913  0.0555 -0.1727
19259DOD     C1 1596  22.872   1.214  29.904  0.2074  0.3216  0.1814
19259DOD     C2 1597  22.974   1.310   0.053  0.1560 -0.1232 -0.1298
19259DOD     C3 1598  22.748   1.161   0.468 -0.3176  0.0363  0.0398
19260DOD     C1 1599  23.896   8.304   2.355  0.2309  0.1043 -0.1149
19260DOD     C2 1600  23.471   8.268   2.150  0.1343 -0.2543  0.1735
19260DOD     C3 1601  23.075   8.445   1.944 -0.0620  0.1641 -0.1375
19261DOD     C1 1602  22.377  26.634   5.943 -0.0209  0.1752 -0.1386
19261DOD     C2 1603  22.347  26.720   5.484  0.4368  0.0627  0.2340
19261DOD     C3 1604  22.544  26.709   5.111  0.1325 -0.2187  0.1972
19262DOD     C1 1605  13.877   5.789  19.330 -0.0189 -0.0028 -0.1251
19262DOD     C2 1606  14.067   6.136  19.635 -0.1716  0.1485  0.0117
19262DOD     C3 1607  14.104   6.413  19.992  0.0293 -0.2059 -0.0441
19263DOD     C1 1608  21.649  23.825  16.601  0.0457 -0.1005 -0.2687
19263DOD     C2 1609  22.061  23.891  16.346  0.0661 -0.1095 -0.0708
19263DOD     C3 1610  22.148  24.064  15.953 -0.2080  0.0133  0.2106
19264DOD     C1 1611  21.232  27.060  26.079  0.1351  0.1296  0.2081
19264DOD     C2 1612  20.980  27.245  25.703  0.1048  0.2697  0.0120
19264DOD     C3 1613  20.941  27.449  25.291 -0.1127  0.1363  0.0505
19265DOD     C1 1614  29.470   4.970  21.015 -0.2603  0.2238 -0.2157
19265DOD     C2 1615  29.799   5.135  20.767  0.1839  0.0376  0.2405
19265DOD     C3 1616  30.197   5.268  20.552 -0.0784 -0.0121  0.0697
19266DOD     C1 1617   2.129   3.084   6.230 -0.0918  0.2718 -0.1380
19266DOD     C2 1618   1.903   3.433   6.098 -0.2589 -0.2634 -0.0645
19266DOD     C3 1619   1.780   3.627   5.688 -0.1229  0.2618 -0.1523
19267DOD     C1 1620  27.546   2.107   2.277 -0.3213  0.2556 -0.3025
19267DOD     C2 1621  27.663   2.340   2.686 -0.4112 -0.1472 -0.2330
19267DOD     C3 1622  27.721   2.536   3.096 -0.3321 -0.0765  0.1195
19268DOD     C1 1623   0.854   5.507   2.700 -0.1054 -0.3228  0.1621
19268DOD     C2 1624   0.881   5.500   3.212  0.0612  0.1245  0.0448
19268DOD     C3 1625   0.467   5.357   3.384 -0.1011 -0.1422 -0.1088
19269DOD     C1 1626   2.694  17.861  25.142  0.2321 -0.1860 -0.1868
19269DOD     C2 1627   2.781  18.325  24.987  0.4857 -0.2335 -0.1923
19269DOD     C3 1628   3.137  18.615  24.884  0.0967  0.1158  0.0658
19270DOD     C1 1629  12.956  21.482   6.628 -0.0483  0.2945 -0.3935
19270DOD     C2 1630  13.169  21.057   6.557 -0.1540  0.2283 -0.1640
19270DOD     C3 1631  13.212  20.603   6.639  0.0408  0.0643 -0.2900
19271DOD     C1 1632   0.789   9.111   2.769 -0.1580  0.1742  0.0706
19271DOD     C2 1633   1.161   8.851   2.661  0.0863 -0.2545  0.1082
19271DOD     C3 1634   1.140   8.453   2.487 -0.3540  0.2106  0.4837
19272DOD     C1 1635  10.072  29.930  30.148  0.1606  0.1827 -0.1485
19272DOD     C2 1636  10.482  30.043   0.086 -0.3829  0.0906  0.0489
19272DOD     C3 1637  10.773  29.851   0.411  0.1915  0.1030 -0.0197
19273DOD     C1 1638  23.880  20.031  17.809  0.3540 -0.0436 -0.2860
19273DOD     C2 1639  23.585  20.021  17.425  0.2862  0.0050  0.1336
19273DOD     C3 1640  23.639  20.029  16.966  0.1083  0.0745 -0.1371
19274DOD     C1 1641  14.938  29.857   4.694 -0.1304  0.1736  0.3333
19274DOD     C2 1642  15.317  29.615   4.800 -0.2856  0.3676  0.1533
19274DOD     C3 1643  15.660  29.325   4.684  0.0483  0.0928  0.2114
19275DOD     C1 1644   0.337   7.941   9.539 -0.0228 -0.2343 -0.2734
19275DOD     C2 1645   0.411   7.597   9.854  0.1013  0.1444  0.1463
19275DOD     C3 1646   0.607   7.313  10.154  0.2111  0.0381  0.0563
19276DOD     C1 1647   5.764  17.278  20.370 -0.2408  0.0331  0.0779
19276DOD     C2 1648   5.817  17.005  19.966 -0.1491 -0.2203 -0.0211
19276DOD     C3 1649   5.535  16.659  19.926 -0.1503 -0.0712 -0.1675
19277DOD     C1 1650  23.479  23.991   9.379  0.1052 -0.2027  0.2062
19277DOD     C2 1651  23.210  24.300   9.179 -0.0092  0.2463 -0.0143
19277DOD     C3 1652  22.803  24.443   9.190 -0.2634  0.2567  0.2218
19278DOD     C1 1653   9.515  27.920  13.297  0.1353  0.0280  0.0780
19278DOD     C2 1654   9.729  27.855  13.701  0.1100 -0.3891  0.0285
19278DOD     C3 1655   9.982  27.845  14.114  0.1026  0.1361  0.2457
19279DOD     C1 1656  23.014  16.872  30.179 -0.2790 -0.0305 -0.0810
19279DOD     C2 1657  22.716  16.641   0.118 -0.0737 -0.0390  0.0362
19279DOD     C3 1658  22.393  16.503   0.386  0.3424 -0.0486  0.0266
19280DOD     C1 1659  10.631   8.163  30.199  0.0348 -0.1562  0.0694
19280DOD     C2 1660  10.221   8.248  30.000 -0.1116  0.2390 -0.0398
19280DOD     C3 1661   9.785   8.124  30.062  0.2819 -0.0249 -0.1565
19281DOD     C1 1662  26.545  17.109   5.210  0.0215  0.0235  0.1904
19281DOD     C2 1663  26.985  16.889   5.173  0.4251 -0.2280  0.2126
19281DOD     C3 1664  27.291  16.828   5.482 -0.2576  0.0146 -0.1388
19282DOD     C1 1665   7.251  17.405  24.925 -0.2454  0.0475  0.0051
19282DOD     C2 1666   7.120  17.850  24.863 -0.2440  0.1299 -0.0876
19282DOD     C3 1667   7.235  18.218  24.520 -0.1060 -0.0171 -0.3839
19283DOD     C1 1668  21.088  10.545   6.382  0.1521 -0.3388 -0.2421
19283DOD     C2 1669  20.745  10.589   6.631  0.2834  0.2998 -0.1081
19283DOD     C3 1670  20.302  10.504   6.655  0.0497  0.1443 -0.0531
19284DOD     C1 1671   6.756  29.384   9.324 -0.1629  0.0435  0.3062
19284DOD     C2 1672   6.398  29.186   9.513 -0.1107  0.1295 -0.0954
19284DOD     C3 1673   6.115  28.780   9.678 -0.0515 -0.1608 -0.3173
19285DOD     C1 1674   7.722  10.028  27.245  0.0370 -0.2353  0.1443
19285DOD     C2 1675   7.413   9.670  27.256 -0.0388  0.0145 -0.0654
19285DOD     C3 1676   6.958   9.584  27.316 -0.2140  0.1561 -0.1694
19286DOD     C1 1677  29.323   8.777   6.303  0.0458 -0.1336  0.2830
19286DOD     C2 1678  29.785   8.748   6.309 -0.0207 -0.1564  0.1259
19286DOD     C3 1679  30.255   8.814   6.458 -0.0003 -0.2971 -0.1231
19287DOD     C1 1680  27.494  30.286  19.370 -0.0605  0.2573 -0.0583
19287DOD     C2 1681  28.032  30.271  19.264  0.1678 -0.3264  0.1767
19287DOD     C3 1682  28.263   0.078  18.912 -0.3025  0.0957  0.3582
19288DOD     C1 1683   2.809  13.470  25.830 -0.0875  0.3499 -0.1959
19288DOD     C2 1684   2.818  13.538  26.338 -0.2963  0.0994  0.3441
19288DOD     C3 1685   2.603  13.580  26.719 -0.2188 -0.1929 -0.2587
19289DOD     C1 1686   8.334   1.186  12.360 -0.1860 -0.2874  0.1980
19289DOD     C2 1687   8.088   1.408  12.659  0.0195  0.2497  0.0486
19289DOD     C3 1688   7.875   1.742  12.941 -0.2378  0.4133  0.0629
19290DOD     C1 1689  22.567   4.492  11.337  0.0075  0.2195 -0.0893
19290DOD     C2 1690  22.673   4.022  11.340 -0.0692 -0.0667 -0.3216
19290DOD     C3 1691  22.575   3.765  11.723 -0.2800  0.0243 -0.0797
19291DOD     C1 1692  23.510  29.004   5.031  0.1226 -0.2457 -0.0346
19291DOD     C2 1693  23.473  28.529   5.123 -0.1511 -0.0288  0.2345
19291DOD     C3 1694  23.371  28.062   5.192 -0.4799 -0.3939 -0.2275
19292DOD     C1 1695  16.674  14.730   7.943 -0.4054  0.0634 -0.1282
19292DOD     C2 1696  16.802  14.862   7.524 -0.1061  0.1396 -0.2142
19292DOD     C3 1697  16.590  15.176   7.211 -0.0693 -0.0092  0.0413
19293DOD     C1 1698  19.375  28.006  22.172 -0.0956  0.0240 -0.0405
19293DOD     C2 1699  19.570  27.588  21.993  0.0793  0.0152  0.1096
19293DOD     C3 1700  19.886  27.328  21.954 -0.1722 -0.1925  0.2975
19294DOD     C1 1701  15.306  20.924  18.072  0.0203 -0.2019 -0.1426
19294DOD     C2 1702  15.567  21.286  17.836  0.0903  0.1433  0.1883
19294DOD     C3 1703  15.779  21.678  17.623  0.0698 -0.0421 -0.0644
19295DOD     C1 1704  30.064   4.335   2.601  0.1136 -0.2258 -0.0099
19295DOD     C2 1705  29.973   4.653   2.896 -0.2069  0.0013  0.1775
19295DOD     C3 1706  30.036   5.141   2.859 -0.1155 -0.1479 -0.0805
19296DOD     C1 1707  18.670  19.278   8.809 -0.3383 -0.0013 -0.0795
19296DOD     C2 1708  18.639  18.878   8.524  0.1605  0.2824 -0.1145
19296DOD     C3 1709  18.428  18.625   8.234  0.0709 -0.0742  0.1426
19297DOD     C1 1710  17.373  29.571  23.083  0.0269  0.0501  0.0174
19297DOD     C2 1711  17.484  29.168  22.970 -0.0052 -0.1122 -0.1311
19297DOD     C3 1712  17.420  28.774  23.123  0.3535  0.2477  0.0424
19298DOD     C1 1713   1.042   9.395  20.298  0.2201 -0.0365 -0.0241
19298DOD     C2 1714   1.267   9.142  19.959  0.1475  0.2198 -0.1757
19298DOD     C3 1715   1.682   9.112  19.683  0.1785  0.1095 -0.2879
19299DOD     C1 1716   1.531   7.653  10.989  0.1195  0.1410  0.0008
19299DOD     C2 1717   1.534   8.126  10.963 -0.0478  0.1424  0.0632
19299DOD     C3 1718   1.395   8.621  10.905 -0.1244  0.0084  0.1971
19300DOD     C1 1719   8.579   4.855  25.173  0.0569  0.1727 -0.1303
19300DOD     C2 1720   9.014   4.968  25.080 -0.2020 -0.1728  0.0155
19300DOD     C3 1721   9.464   5.104  25.088 -0.0857 -0.3084 -0.2331
19301DOD     C1 1722  29.571   1.876  14.697  0.1705  0.1166  0.1576
19301DOD     C2 1723  29.450   1.462  14.492 -0.0735  0.2531  0.0174
19301DOD     C3 1724  29.476   0.965  14.527  0.0993 -0.1619  0.0871
19302DOD     C1 1725   3.282  24.537  21.602 -0.1401 -0.2506 -0.1703
19302DOD     C2 1726   3.022  24.298  21.303  0.1613 -0.0021  0.1142
19302DOD     C3 1727   2.701  24.303  20.985  0.1640 -0.0550 -0.2531
19303DOD     C1 1728   7.360   7.008  14.169 -0.1606 -0.0119  0.1064
19303DOD     C2 1729   6.943   7.046  13.983 -0.0280 -0.1239 -0.0558
19303DOD     C3 1730   6.512   7.132  13.980 -0.1783 -0.2142  0.4058
19304DOD     C1 1731   1.011   6.394  17.756  0.0213  0.1315  0.1346
19304DOD     C2 1732   1.426   6.132  17.721  0.1891  0.0419 -0.4022
19304DOD     C3 1733   1.791   5.980  17.437  0.0980  0.3740  0.2520
19305DOD     C1 1734  25.076  13.349  28.727  0.1740 -0.2398  0.1739
19305DOD     C2 1735  24.988  12.967  28.973 -0.0834 -0.1044  0.2850
19305DOD     C3 1736  25.095  12.781  29.386  0.0988  0.0554 -0.1433
19306DOD     C1 1737   4.054  26.924   9.715 -0.0595 -0.0664  0.1612
19306DOD     C2 1738   4.187  26.905  10.186 -0.1111 -0.3158 -0.1173
19306DOD     C3 1739   4.457  26.960  10.592  0.0244  0.1045  0.0534
19307DOD     C1 1740  20.253  30.186   0.510 -0.2640 -0.2760 -0.0433
19307DOD     C2 1741  20.060   0.055   0.109 -0.0740  0.2648  0.3002
19307DOD     C3 1742  19.737   0.354  30.261  0.2385 -0.2346  0.2588
19308DOD     C1 1743  16.979  18.189  16.816  0.1101 -0.0188 -0.0841
19308DOD     C2 1744  16.499  18.271  17.005  0.3152  0.1012 -0.0964
19308DOD     C3 1745  16.143  18.508  17.187  0.0692 -0.1424 -0.1146
19309DOD     C1 1746  20.624  24.596  12.427  0.2100  0.3399 -0.2373
19309DOD     C2 1747  20.568  24.910  12.072  0.2439 -0.4161 -0.0523
19309DOD     C3 1748  20.267  25.169  11.836  0.1677  0.0229 -0.3626
19310DOD     C1 1749  28.526  29.803  12.299 -0.1272  0.2366  0.0133
19310DOD     C2 1750  28.388  30.044  11.969 -0.0403 -0.0444  0.0818
19310DOD     C3 1751  28.133  30.284  11.700 -0.1686  0.1879 -0.0971
19311DOD     C1 1752   6.478  13.329  23.430  0.0718 -0.0677 -0.1048
19311DOD     C2 1753   6.361  13.286  22.960 -0.0016 -0.1719  0.0499
19311DOD     C3 1754   6.745  13.180  22.617 -0.0758  0.0775 -0.0894
19312DOD     C1 1755  28.556  14.000   5.107  0.0311  0.2445 -0.0445
19312DOD     C2 1756  28.236  14.174   5.410 -0.0051  0.1541 -0.0140
19312DOD     C3 1757  27.793  14.080   5.528  0.0646  0.3088 -0.2748
19313DOD     C1 1758   5.342  29.165  23.222  0.1116 -0.0580  0.1230
19313DOD     C2 1759   4.912  29.061  23.010  0.0595 -0.1692  0.2567
19313DOD     C3 1760   4.440  28.977  22.910 -0.2684  0.0937 -0.2484
19314DOD     C1 1761  17.144  26.701   3.034 -0.3223  0.3049 -0.0563
19314DOD     C2 1762  16.768  26.789   2.743  0.2099 -0.2499  0.0287
19314DOD     C3 1763  16.488  26.840   2.358  0.1058  0.0888  0.0187
19315DOD     C1 1764   7.556   4.022   0.579  0.1274 -0.0082 -0.1739
19315DOD     C2 1765   7.781   3.699   0.277  0.1623  0.1750  0.1017
19315DOD     C3 1766   8.232   3.645   0.193  0.0784 -0.0291 -0.0370
19316DOD     C1 1767  21.406  20.355  27.090  0.1519  0.1462  0.0910
19316DOD     C2 1768  21.274  20.410  26.654  0.2761 -0.1160 -0.0606
19316DOD     C3 1769  21.080  20.522  26.238 -0.0444 -0.1282  0.1949
19317DOD     C1 1770  26.600   8.515   8.521 -0.0422  0.1499  0.2159
19317DOD     C2 1771  27.067   8.693   8.441 -0.0751 -0.1088  0.1781
19317DOD     C3 1772  27.081   9.153   8.297 -0.0534 -0.1184 -0.2266
19318DOD     C1 1773  17.221  10.757  21.577 -0.0758  0.2380 -0.1218
19318DOD     C2 1774  16.994  10.437  21.291 -0.1638 -0.0998 -0.2146
19318DOD     C3 1775  16.689  10.108  21.479  0.0376 -0.0980  0.2368
19319DOD     C1 1776  10.048  25.927  24.710 -0.1320 -0.0232 -0.1671
19319DOD     C2 1777  10.470  25.725  24.855  0.0131  0.0954 -0.5037
19319DOD     C3 1778  10.710  25.577  25.234  0.1517 -0.0511  0.0168
19320DOD     C1 1779  29.184   0.410  23.854  0.1145 -0.1720 -0.1761
19320DOD     C2 1780  28.836   0.499  24.090 -0.3178  0.1740 -0.1196
19320DOD     C3 1781  28.672   0.704  24.464 -0.2165 -0.2267  0.4120
19321DOD     C1 1782  11.132   6.294   8.864 -0.0783 -0.1119  0.0590
19321DOD     C2 1783  11.150   6.747   8.643 -0.1740 -0.1513  0.1140
19321DOD     C3 1784  11.004   7.111   8.427  0.2366 -0.1297  0.0433
19322DOD     C1 1785   3.909  30.268   3.893 -0.0176  0.1670  0.1122
19322DOD     C2 1786   4.053  30.169   3.485 -0.0889  0.1873  0.1407
19322DOD     C3 1787   4.110  30.060   2.998  0.4899  0.2008 -0.1816
19323DOD     C1 1788   5.955   1.326  13.423 -0.3280  0.0458  0.1466
19323DOD     C2 1789   6.301   1.002  13.325 -0.0150  0.1079  0.0289
19323DOD     C3 1790   6.295   0.578  13.287  0.1569  0.2261 -0.0665
19324DOD     C1 1791  19.032   1.700  14.941 -0.3250 -0.0428  0.0102
19324DOD     C2 1792  19.031   1.293  14.964 -0.2259  0.0423 -0.1916
19324DOD     C3 1793  19.005   1.144  15.415  0.1345  0.1999  0.2579
19325DOD     C1 1794   2.946   2.429  16.856 -0.2944  0.3590  0.1465
19325DOD     C2 1795   2.654   2.059  16.665  0.0259 -0.1862  0.0002
19325DOD     C3 1796   2.214   1.749  16.692  0.1633  0.1302  0.1883
19326DOD     C1 1797  27.938  20.431  27.133 -0.2266  0.2444  0.1658
19326DOD     C2 1798  28.125  20.504  26.731 -0.0253 -0.0655 -0.2658
19326DOD     C3 1799  28.305  20.335  26.354 -0.1317 -0.2598 -0.0003
19327DOD     C1 1800  20.111  10.107  15.597 -0.0952 -0.0363  0.0693
19327DOD     C2 1801  20.160  10.476  15.929 -0.1131 -0.1821 -0.1524
19327DOD     C3 1802  20.455  10.802  15.917 -0.0418 -0.1532  0.0386
19328DOD     C1 1803  26.415  13.587  30.047  0.2245  0.0366 -0.0346
19328DOD     C2 1804  26.699  13.982  30.211  0.2296 -0.1006 -0.1577
19328DOD     C3 1805  26.845  14.394   0.189 -0.3835  0.1607  0.1572
19329DOD     C1 1806   1.339  15.320  17.698  0.0803 -0.1660 -0.1255
19329DOD     C2 1807   1.455  15.115  17.278  0.1943 -0.3125 -0.6493
19329DOD     C3 1808   1.078  14.839  17.098  0.1103  0.0336 -0.0889
19330DOD     C1 1809   1.507  30.000  26.880 -0.1023 -0.3962 -0.1343
19330DOD     C2 1810   1.149  29.749  26.784  0.0083  0.1094  0.1197
19330DOD     C3 1811   0.692  29.808  26.919  0.3475 -0.1671  0.3247
19331DOD     C1 1812  12.258  28.940  11.056 -0.0750  0.2112  0.4407
19331DOD     C2 1813  12.428  28.542  10.846  0.1009  0.0011  0.1601
19331DOD     C3 1814  12.361  28.243  10.493  0.1285  0.0467  0.1544
19332DOD     C1 1815  11.823   1.035   0.672  0.0699  0.1327  0.1362
19332DOD     C2 1816  11.870   0.775   1.068 -0.1982  0.2342 -0.3543
19332DOD     C3 1817  11.644   0.430   1.397 -0.0590 -0.1521 -0.0181
19333DOD     C1 1818  25.176  26.559   5.509  0.1429 -0.1554  0.2125
19333DOD     C2 1819  25.499  26.897   5.366  0.3988 -0.0288 -0.0240
19333DOD     C3 1820  25.733  27.080   5.069  0.1436 -0.3036 -0.1009
19334DOD     C1 1821  29.156  15.108  17.725  0.1827 -0.0450 -0.2558
19334DOD     C2 1822  29.459  15.213  18.087  0.0031  0.0935 -0.0373
19334DOD     C3 1823  29.621  15.423  18.428  0.0545 -0.1025 -0.2221
19335DOD     C1 1824  10.049   9.769   5.221  0.2676  0.0510 -0.0062
19335DOD     C2 1825   9.735   9.974   5.462 -0.0168  0.0436 -0.0766
19335DOD     C3 1826   9.737  10.145   5.873 -0.1311  0.0955  0.4835
19336DOD     C1 1827  22.181   1.987  13.479 -0.0321 -0.2829  0.1857
19336DOD     C2 1828  21.829   2.120  13.301  0.0905  0.0065  0.2015
19336DOD     C3 1829  21.384   2.112  13.239  0.2094 -0.2634  0.3480
19337DOD     C1 1830  18.159  18.132  10.910  0.1875 -0.1145 -0.0163
19337DOD     C2 1831  18.444  18.432  10.695  0.1039  0.0722  0.1566
19337DOD     C3 1832  18.779  18.504  10.384  0.3653  0.1072 -0.0219
19338DOD     C1 1833   3.071  23.885   9.113 -0.0065 -0.1521 -0.5097
19338DOD     C2 1834   3.024  23.683   8.731 -0.0204  0.0799  0.2594
19338DOD     C3 1835   2.757  23.455   8.374 -0.1768 -0.1437  0.2451
19339DOD     C1 1836  21.618  20.794   6.180  0.1732  0.0669 -0.0599
19339DOD     C2 1837  21.647  20.688   6.607 -0.2836 -0.3565  0.0714
19339DOD     C3 1838  21.567  20.345   6.898 -0.2959 -0.1185 -0.0625
19340DOD     C1 1839  23.783  26.656  11.864  0.0533 -0.0668 -0.0352
19340DOD     C2 1840  24.216  26.839  12.006  0.0421  0.3606 -0.0991
19340DOD     C3 1841  24.262  27.130  12.339 -0.1400 -0.1109 -0.2057
19341DOD     C1 1842  16.090  21.492   6.512  0.0602  0.1557 -0.0379
19341DOD     C2 1843  15.703  21.350   6.757  0.0833 -0.1299 -0.1205
19341DOD     C3 1844  15.435  21.110   7.060  0.2151 -0.2709  0.0122
19342DOD     C1 1845  28.794  12.710  21.312  0.4576 -0.0162  0.0115
19342DOD     C2 1846  28.801  12.598  21.770 -0.1163  0.2100 -0.0730
19342DOD     C3 1847  28.501  12.646  22.092 -0.2705 -0.1980 -0.0205
19343DOD     C1 1848  10.347   9.099  17.868 -0.1276  0.1156 -0.0470
19343DOD     C2 1849  10.209   8.940  17.441 -0.0101 -0.1969 -0.1218
19343DOD     C3 1850  10.001   8.492  17.320 -0.2898 -0.4243  0.0168
19344DOD     C1 1851  30.162  20.991  11.874 -0.1234  0.0633 -0.1127
19344DOD     C2 1852  29.765  21.130  11.729 -0.1422  0.0328  0.0368
19344DOD     C3 1853  29.341  20.996  11.632  0.1517  0.0265 -0.3621
19345DOD     C1 1854  20.070  13.490  25.745 -0.0587 -0.1633 -0.0353
19345DOD     C2 1855  20.361  13.166  25.609  0.1734 -0.3342 -0.1777
19345DOD     C3 1856  20.584  12.722  25.755 -0.0681 -0.0943  0.1387
19346DOD     C1 1857  14.183  18.430  21.833  0.1649 -0.2975  0.2115
19346DOD     C2 1858  14.314  18.669  21.471  0.2310 -0.2303 -0.0206
19346DOD     C3 1859  14.446  18.816  21.043 -0.0637 -0.0937  0.0235
19347DOD     C1 1860   8.160  22.309  14.971  0.0545 -0.0574  0.3546
19347DOD     C2 1861   8.570  22.256  15.081  0.0011 -0.0267  0.2023
19347DOD     C3 1862   8.997  22.477  15.176  0.1063 -0.2507 -0.3081
19348DOD     C1 1863  12.840  23.177  16.534  0.0886 -0.4385  0.0969
19348DOD     C2 1864  12.563  23.032  16.168 -0.4345 -0.1175  0.0920
19348DOD     C3 1865  12.629  23.133  15.755 -0.0803  0.3174 -0.1605
19349DOD     C1 1866   7.741  23.013  17.436 -0.2525 -0.1417  0.0222
19349DOD     C2 1867   7.397  23.322  17.432 -0.1352  0.0422  0.1571
19349DOD     C3 1868   7.240  23.801  17.294 -0.0014  0.0126 -0.1426
19350DOD     C1 1869   2.898  21.439   1.212  0.0104  0.0577 -0.1113
19350DOD     C2 1870   2.955  21.335   1.651 -0.2980  0.3974  0.2619
19350DOD     C3 1871   3.048  20.850   1.750 -0.0369  0.3241  0.0750
19351DOD     C1 1872  13.895  30.033  24.255 -0.0225  0.2321  0.2216
19351DOD     C2 1873  13.988  30.168  23.794 -0.0735  0.3341 -0.2951
19351DOD     C3 1874  14.116  30.318  23.349  0.0262  0.2498  0.1237
19352DOD     C1 1875   2.953   3.103  25.589 -0.2817 -0.0851  0.3315
19352DOD     C2 1876   2.566   2.906  25.782  0.2695 -0.3856 -0.2145
19352DOD     C3 1877   2.389   2.951  26.193  0.3055  0.0950 -0.1464
19353DOD     C1 1878   6.453   9.498  14.930  0.2841  0.0790  0.1703
19353DOD     C2 1879   6.813   9.674  14.618 -0.0570  0.1095 -0.0975
19353DOD     C3 1880   7.045   9.523  14.229 -0.1572  0.0579  0.0778
19354DOD     C1 1881  23.532  17.816  29.925  0.2801  0.2289  0.0710
19354DOD     C2 1882  23.450  18.190  29.687 -0.0249 -0.1226  0.3006
19354DOD     C3 1883  23.092  18.426  29.767  0.1032 -0.0079 -0.0440
19355DOD     C1 1884   0.797  11.008   2.922 -0.1536 -0.1508 -0.3388
19355DOD     C2 1885   1.001  11.327   3.194 -0.0328 -0.0647 -0.0391
19355DOD     C3 1886   1.089  11.572   3.581  0.2422  0.0293  0.0040
19356DOD     C1 1887  23.815   3.565  17.970  0.0114 -0.2348  0.1027
19356DOD     C2 1888  23.684   3.390  18.436  0.0465  0.1326 -0.0664
19356DOD     C3 1889  23.790   3.081  18.756  0.1103 -0.1429 -0.1534
19357DOD     C1 1890  16.818   4.970  21.408 -0.3550  0.0156  0.1222
19357DOD     C2 1891  16.401   4.810  21.104 -0.1014 -0.1045  0.1092
19357DOD     C3 1892  16.338   4.451  20.806 -0.0425 -0.3167 -0.0824
19358DOD     C1 1893  16.976  20.500   5.036  0.1548 -0.0929  0.4601
19358DOD     C2 1894  16.564  20.561   5.303 -0.0022 -0.1259 -0.1121
19358DOD     C3 1895  16.120  20.716   5.441  0.1425  0.2900 -0.0086
19359DOD     C1 1896  22.603  29.910  15.476  0.1531 -0.2155  0.0171
19359DOD     C2 1897  22.280  29.901  15.761  0.0833 -0.2908 -0.0532
19359DOD     C3 1898  22.167  30.112  16.129  0.0699 -0.2885 -0.0689
19360DOD     C1 1899  24.831  21.715   6.809 -0.1478 -0.0835 -0.0864
19360DOD     C2 1900  24.945  21.542   7.183 -0.2923  0.1162 -0.1005
19360DOD     C3 1901  25.164  21.406   7.610  0.2535  0.0871  0.2208
19361DOD     C1 1902  24.733   4.378   6.170  0.2781 -0.1897  0.0438
19361DOD     C2 1903  24.541   4.835   6.163  0.0963  0.0474  0.0208
19361DOD     C3 1904  24.447   5.115   5.771  0.2989  0.1677  0.1691
19362DOD     C1 1905  13.437  18.635  17.918 -0.0464  0.3405  0.1077
19362DOD     C2 1906  13.718  19.030  17.760 -0.1972  0.0657 -0.0053
19362DOD     C3 1907  13.783  19.423  17.519 -0.0664 -0.0385 -0.4109
19363DOD     C1 1908  26.017  22.229   4.233 -0.0934 -0.0688  0.0515
19363DOD     C2 1909  25.818  22.437   4.589 -0.1776  0.0362 -0.2414
19363DOD     C3 1910  25.777  22.796   4.871  0.1017 -0.2457  0.1648
19364DOD     C1 1911   0.425   3.023   6.868 -0.1113  0.1609  0.2846
19364DOD     C2 1912   0.323   3.374   7.125  0.0726 -0.0074 -0.0595
19364DOD     C3 1913   0.462   3.711   7.400 -0.0515  0.1527 -0.0192
19365DOD     C1 1914  22.549  16.246  19.802  0.0377 -0.3485 -0.1419
19365DOD     C2 1915  22.741  15.861  19.949  0.1150 -0.1672 -0.0020
19365DOD     C3 1916  23.081  15.574  19.926 -0.1931  0.1907  0.1011
19366DOD     C1 1917  25.518  22.959   1.906 -0.0218  0.0968  0.0301
19366DOD     C2 1918  25.749  23.341   1.741 -0.0932 -0.2398  0.0742
19366DOD     C3 1919  25.888  23.804   1.800 -0.1529 -0.1614  0.0277
19367DOD     C1 1920  17.299  28.385  15.998 -0.1081  0.1702 -0.0119
19367DOD     C2 1921  17.663  28.157  16.301 -0.0486 -0.4518  0.0507
19367DOD     C3 1922  17.894  28.096  16.679 -0.1184  0.1477  0.0730
19368DOD     C1 1923  18.727   1.015  12.445 -0.0569  0.0849 -0.0915
19368DOD     C2 1924  19.153   0.960  12.630 -0.1528 -0.0089 -0.0773
19368DOD     C3 1925  19.631   0.953  12.616  0.3210  0.0316 -0.3609
19369DOD     C1 1926  24.932  14.646  29.461  0.0930  0.5325 -0.3373
19369DOD     C2 1927  25.193  14.692  29.054 -0.2381  0.2013 -0.1574
19369DOD     C3 1928  25.279  14.915  28.660  0.3189  0.0727  0.0052
19370DOD     C1 1929  25.699  18.784  10.824 -0.0692 -0.1959 -0.0847
19370DOD     C2 1930  25.511  19.116  10.523  0.0846  0.1478 -0.0086
19370DOD     C3 1931  25.363  19.572  10.396  0.1825 -0.2238 -0.2062
19371DOD     C1 1932  23.102  13.065  28.660 -0.0923  0.0200  0.0618
19371DOD     C2 1933  23.041  13.150  29.109  0.0095  0.1267 -0.0074
19371DOD     C3 1934  23.017  13.347  29.528 -0.0143  0.0195 -0.0272
19372DOD     C1 1935   0.789  25.094  14.454  0.0922  0.0172  0.2102
19372DOD     C2 1936   0.437  25.261  14.169 -0.1480 -0.0750  0.1082
19372DOD     C3 1937   0.256  25.488  13.795 -0.2381  0.1216 -0.0420
19373DOD     C1 1938  12.940  11.348  29.764  0.0635 -0.3784 -0.0844
19373DOD     C2 1939  12.471  11.435  29.724 -0.0153 -0.2040 -0.1010
19373DOD     C3 1940  12.197  11.318  29.401 -0.0225  0.0159  0.0992
19374DOD     C1 1941   6.491  17.494  21.662 -0.2093 -0.2049 -0.0169
19374DOD     C2 1942   6.677  17.423  22.101 -0.0031 -0.1981  0.4048
19374DOD     C3 1943   6.486  17.176  22.418  0.5408 -0.0482  0.0510
19375DOD     C1 1944  28.619  29.944  23.693 -0.0692 -0.1209  0.2461
19375DOD     C2 1945  28.143  29.959  23.586  0.0895 -0.1325 -0.0913
19375DOD     C3 1946  27.671  29.842  23.459 -0.2061 -0.0973 -0.3094
19376DOD     C1 1947  26.213  11.363   9.843  0.3715 -0.3229  0.1287
19376DOD     C2 1948  26.537  11.546  10.100 -0.2208  0.1846  0.0543
19376DOD     C3 1949  26.922  11.729   9.861  0.4362  0.1965 -0.0871
19377DOD     C1 1950   0.844  24.047  28.169 -0.1137  0.0799  0.0301
19377DOD     C2 1951   0.932  23.808  28.597 -0.0616 -0.1941  0.3314
19377DOD     C3 1952   0.844  23.438  28.820  0.1546 -0.2059 -0.4024
19378DOD     C1 1953   7.682  15.215   6.432  0.1683 -0.2884 -0.1230
19378DOD     C2 1954   7.948  15.052   6.800  0.1245  0.2157 -0.0249
19378DOD     C3 1955   8.338  14.847   7.052  0.1100  0.0445  0.3773
19379DOD     C1 1956   7.474  29.230   8.597 -0.1195 -0.1156  0.3873
19379DOD     C2 1957   7.748  29.571   8.704 -0.2843  0.1474  0.0064
19379DOD     C3 1958   7.671  29.795   9.072 -0.1113 -0.1995 -0.0858
19380DOD     C1 1959  25.108   0.039   5.343  0.2782  0.1316  0.1415
19380DOD     C2 1960  24.833  30.067   5.053 -0.0339 -0.0550 -0.2287
19380DOD     C3 1961  24.671  29.826   4.686 -0.0324 -0.0118  0.0063
19381DOD     C1 1962  26.731   7.805   4.756  0.2714 -0.2030 -0.1692
19381DOD     C2 1963  26.761   7.888   4.259  0.0513  0.3020  0.0523
19381DOD     C3 1964  27.170   7.866   4.094 -0.2033  0.2532  0.2258
19382DOD     C1 1965   1.965  18.115  12.785 -0.0645 -0.0937 -0.0008
19382DOD     C2 1966   1.807  18.090  13.187  0.1437 -0.0553 -0.0296
19382DOD     C3 1967   1.880  17.812  13.515  0.3040  0.3988 -0.1101
19383DOD     C1 1968  16.456  22.603  18.447  0.2479  0.1215 -0.0098
19383DOD     C2 1969  16.593  22.988  18.604  0.2297 -0.0022  0.2302
19383DOD     C3 1970  16.802  23.296  18.840  0.2027  0.0605  0.2195
19384DOD     C1 1971   9.245  19.726   1.008  0.2366  0.2026  0.1339
19384DOD     C2 1972   9.306  20.137   1.204 -0.1039 -0.0597 -0.2493
19384DOD     C3 1973   9.210  20.552   1.020 -0.1039 -0.1566  0.1184
19385DOD     C1 1974  27.684  13.228  30.187 -0.0038  0.0349 -0.3683
19385DOD     C2 1975  27.256  13.298  29.923  0.2440 -0.0570 -0.0547
19385DOD     C3 1976  26.800  13.355  29.885 -0.2748 -0.0873  0.0834
19386DOD     C1 1977   8.742  10.857  16.079  0.2832 -0.0151 -0.2117
19386DOD     C2 1978   8.812  10.590  15.721 -0.0535  0.1879 -0.0110
19386DOD     C3 1979   9.012  10.327  15.480 -0.1458  0.2604 -0.0577
19387DOD     C1 1980  22.483   4.323  17.228  0.1678 -0.2220 -0.3905
19387DOD     C2 1981  22.247   4.257  17.599  0.1738  0.2021 -0.3104
19387DOD     C3 1982  22.208   4.039  18.001 -0.0097  0.0980  0.3742
19388DOD     C1 1983  25.952  13.467  29.948 -0.0616  0.1312 -0.0366
19388DOD     C2 1984  25.860  13.025  29.832  0.0863 -0.0927 -0.1228
19388DOD     C3 1985  25.999  12.579  29.674  0.0649  0.1961  0.1122
19389DOD     C1 1986  24.600   3.718   9.496 -0.2133 -0.1273 -0.2005
19389DOD     C2 1987  24.861   3.365   9.679  0.3056  0.1497  0.2089
19389DOD     C3 1988  25.167   3.011   9.723  0.0273  0.1155  0.1430
19390DOD     C1 1989  19.519  23.400   4.758 -0.2691 -0.1832  0.2801
19390DOD     C2 1990  19.620  23.821   4.557  0.1753  0.2973 -0.2237
19390DOD     C3 1991  19.316  24.035   4.221 -0.4224  0.0867  0.2770
19391DOD     C1 1992  28.061  13.824  16.121 -0.1607  0.2382 -0.0587
19391DOD     C2 1993  27.677  13.809  16.412  0.0617  0.1711 -0.3162
19391DOD     C3 1994  27.484  14.088  16.825  0.3197 -0.0050 -0.0932
19392DOD     C1 1995  19.507  19.180  23.749 -0.0340 -0.0266 -0.1470
19392DOD     C2 1996  19.562  19.159  24.223 -0.2463  0.2670 -0.3662
19392DOD     C3 1997  19.536  19.273  24.686 -0.2036  0.0373 -0.0017
19393DOD     C1 1998  19.555  17.382  29.140 -0.1525 -0.0497  0.0459
19393DOD     C2 1999  19.310  17.677  28.920 -0.1043 -0.2558 -0.1726
19393DOD     C3 2000  19.314  17.741  28.473 -0.0352  0.2393  0.2294
19394DOD     C1 2001  13.731  27.907  19.508  0.1865 -0.1065 -0.3228
19394DOD     C2 2002  13.867  27.898  19.077  0.0006  0.0142 -0.3059
19394DOD     C3 2003  14.127  28.051  18.686 -0.0762  0.1309 -0.0153
19395DOD     C1 2004  22.954  18.909  15.439 -0.0737  0.0804 -0.1796
19395DOD     C2 2005  22.863  19.374  15.574 -0.0559 -0.3187 -0.0953
19395DOD     C3 2006  23.012  19.816  15.790 -0.0521 -0.2331 -0.0243
19396DOD     C1 2007  24.767   0.066   3.852 -0.2207 -0.2523  0.0228
19396DOD     C2 2008  25.172  30.214   4.083  0.1969  0.2121  0.2344
19396DOD     C3 2009  25.158  29.960   4.455 -0.4467 -0.0006  0.0715
19397DOD     C1 2010  27.102   7.761   8.796 -0.3894  0.2066  0.0865
19397DOD     C2 2011  27.304   7.699   8.368 -0.1429  0.0238 -0.0604
19397DOD     C3 2012  27.638   7.371   8.250 -0.0861 -0.2372 -0.2499
19398DOD     C1 2013   9.583  26.722  20.103  0.3381  0.1788 -0.0655
19398DOD     C2 2014   9.143  26.854  20.065  0.0391 -0.0381 -0.1204
19398DOD     C3 2015   8.745  26.820  19.817  0.3554 -0.1697 -0.1944
19399DOD     C1 2016   7.524   4.882  14.978  0.1193  0.3830  0.0308
19399DOD     C2 2017   7.482   5.327  14.897  0.0175 -0.2510 -0.1812
19399DOD     C3 2018   7.664   5.737  15.024  0.2543 -0.1690  0.0835
19400DOD     C1 2019   5.203   4.752  16.365 -0.0731 -0.1118  0.0882
19400DOD     C2 2020   5.197   4.303  16.213 -0.0785 -0.0796  0.0060
19400DOD     C3 2021   5.218   3.847  16.358 -0.5410  0.1245 -0.2461
19401DOD     C1 2022  20.153  11.598  15.705  0.1162 -0.2219 -0.3734
19401DOD     C2 2023  19.823  11.467  16.032 -0.0529 -0.1487  0.0867
19401DOD     C3 2024  19.405  11.327  16.080  0.4641 -0.0731 -0.1350
19402DOD     C1 2025  28.428  21.500   4.003 -0.3196  0.0975 -0.1965
19402DOD     C2 2026  28.542  21.920   3.832  0.1301 -0.2162  0.0283
19402DOD     C3 2027  28.758  22.308   3.834  0.0669 -0.0666  0.2621
19403DOD     C1 2028  26.349  23.915   7.273  0.0371 -0.3069  0.1298
19403DOD     C2 2029  26.422  23.984   6.791  0.1302  0.1907  0.0091
19403DOD     C3 2030  26.587  23.788   6.381 -0.0890 -0.2076 -0.4211
19404DOD     C1 2031  12.768  21.055  11.258 -0.2913 -0.2087  0.0233
19404DOD     C2 2032  13.219  20.991  11.220  0.0145  0.2855  0.0660
19404DOD     C3 2033  13.499  20.639  11.420  0.3317  0.0772 -0.1483
19405DOD     C1 2034  26.266  20.189  24.253  0.0599  0.0087 -0.0280
19405DOD     C2 2035  26.198  19.887  24.605 -0.0525  0.2384  0.1134
19405DOD     C3 2036  25.890  19.727  24.880 -0.0217  0.0244  0.1622
19406DOD     C1 2037  23.456  21.780  13.765  0.3016  0.1134  0.0988
19406DOD     C2 2038  23.146  21.442  13.820  0.0514  0.0063 -0.0867
19406DOD     C3 2039  22.843  21.133  13.643  0.2800  0.2418 -0.1484
19407DOD     C1 2040   3.211   9.839  25.399  0.2253 -0.2978 -0.2086
19407DOD     C2 2041   3.339  10.202  25.604 -0.3998 -0.0426  0.2511
19407DOD     C3 2042   3.740  10.368  25.729 -0.0433 -0.1242 -0.1496
19408DOD     C1 2043   7.271  14.021   8.072  0.0044  0.1702  0.1678
19408DOD     C2 2044   7.637  13.850   8.076 -0.2487 -0.0121 -0.0897
19408DOD     C3 2045   8.063  14.110   7.906  0.1204  0.0757  0.1754
19409DOD     C1 2046   3.072  17.973   1.870 -0.0855 -0.1700  0.2499
19409DOD     C2 2047   2.776  17.911   2.247  0.0850  0.2782 -0.1724
19409DOD     C3 2048   2.474  17.716   2.522  0.0261  0.0997  0.0092
19410DOD     C1 2049   1.633  19.679  11.267  0.0492 -0.2615 -0.0300
19410DOD     C2 2050   1.623  19.313  11.000  0.1296 -0.0454 -0.1622
19410DOD     C3 2051   1.734  18.848  10.990  0.2995 -0.1842 -0.0553
19411DOD     C1 2052   8.887   4.676  15.701  0.0046 -0.2490  0.0069
19411DOD     C2 2053   9.169   4.333  15.894  0.2724  0.1395 -0.0517
19411DOD     C3 2054   9.543   3.975  16.030  0.0959 -0.1616 -0.1138
19412DOD     C1 2055  14.614   8.213  10.603  0.2245  0.0527 -0.1581
19412DOD     C2 2056  14.492   8.179  11.063  0.1530 -0.1703  0.0041
19412DOD     C3 2057  14.270   7.821  11.278  0.2160 -0.0730 -0.1497
19413DOD     C1 2058   9.737   0.660   1.530 -0.4072 -0.2608  0.4642
19413DOD     C2 2059   9.605   0.262   1.498  0.2660  0.0581 -0.0502
19413DOD     C3 2060   9.345  30.208   1.509 -0.0955  0.1443  0.2915
19414DOD     C1 2061  24.761  14.051  11.566  0.0770 -0.0348  0.4444
19414DOD     C2 2062  25.088  13.783  11.632 -0.3665 -0.0511 -0.0922
19414DOD     C3 2063  25.466  13.532  11.809  0.4142  0.0962 -0.2184
19415DOD     C1 2064   2.500  27.110  28.738 -0.0759 -0.0704 -0.3600
19415DOD     C2 2065   2.928  27.188  28.553  0.0668  0.1167 -0.1260
19415DOD     C3 2066   3.115  27.605  28.444  0.0186  0.0274  0.0399
19416DOD     C1 2067  13.778  13.771  20.944  0.3057  0.0855  0.0371
19416DOD     C2 2068  13.647  13.384  21.210  0.1609  0.2837  0.0464
19416DOD     C3 2069  13.377  13.000  21.172  0.2360  0.1944 -0.0005
19417DOD     C1 2070   2.011   9.522  21.002 -0.0395 -0.2575  0.3827
19417DOD     C2 2071   1.967   9.852  21.342  0.2609 -0.0936 -0.3343
19417DOD     C3 2072   2.220  10.062  21.619  0.1100  0.1722  0.2573
19418DOD     C1 2073   6.626   3.459  28.820  0.2671 -0.1088 -0.0515
19418DOD     C2 2074   6.697   3.845  28.519 -0.4033 -0.2098  0.2113
19418DOD     C3 2075   7.024   4.148  28.548  0.0810 -0.0055  0.1030
19419DOD     C1 2076   6.288  17.041   3.233 -0.2643  0.2621  0.1797
19419DOD     C2 2077   5.891  17.087   2.976 -0.2348 -0.1005 -0.0055
19419DOD     C3 2078   5.777  17.508   2.814  0.0230 -0.1838  0.0294
19420DOD     C1 2079   7.715  12.399  11.467  0.1673 -0.0406  0.1852
19420DOD     C2 2080   7.830  12.749  11.775  0.3666 -0.0976  0.2352
19420DOD     C3 2081   8.107  12.978  12.075 -0.3194  0.0056  0.4172
19421DOD     C1 2082  27.930   3.321  27.218  0.1687 -0.1318  0.1964
19421DOD     C2 2083  28.013   2.926  27.486  0.1725 -0.3790 -0.2787
19421DOD     C3 2084  28.156   2.864  27.939 -0.0321 -0.2009 -0.1124
19422DOD     C1 2085  25.427  11.020  24.758  0.0768  0.0730 -0.3167
19422DOD     C2 2086  25.500  10.735  24.426  0.1078 -0.0522 -0.2764
19422DOD     C3 2087  25.693  10.327  24.324 -0.1629  0.1216  0.2582
19423DOD     C1 2088  19.752  13.343  25.359 -0.3474  0.1302 -0.0561
19423DOD     C2 2089  19.295  13.214  25.272 -0.1648 -0.0860  0.1739
19423DOD     C3 2090  18.888  12.965  25.379  0.0849  0.0544 -0.0074
19424DOD     C1 2091   1.565   5.080  30.197 -0.0231  0.1807  0.0970
19424DOD     C2 2092   1.516   4.608  30.126 -0.0808 -0.1973 -0.3852
19424DOD     C3 2093   1.761   4.198  30.348 -0.0721 -0.3082  0.1582
19425DOD     C1 2094   4.447  17.985  22.228  0.1590 -0.1075  0.0307
19425DOD     C2 2095   4.085  18.209  22.123  0.1826 -0.3609  0.1732
19425DOD     C3 2096   3.955  18.382  21.648  0.1497 -0.0107 -0.2564
19426DOD     C1 2097  22.899  26.695  14.793 -0.1649  0.1511 -0.2626
19426DOD     C2 2098  22.543  26.867  15.031  0.1298 -0.0445  0.2541
19426DOD     C3 2099  22.336  26.737  15.425  0.2918 -0.0068  0.1926
19427DOD     C1 2100   1.450  20.622  21.272 -0.0910  0.1017 -0.3427
19427DOD     C2 2101   1.133  20.978  21.388 -0.1638  0.0281  0.1215
19427DOD     C3 2102   1.043  21.418  21.249  0.1492 -0.1592  0.0724
19428DOD     C1 2103   7.609   9.840   3.360 -0.0031 -0.1245  0.0344
19428DOD     C2 2104   7.506   9.985   2.970  0.3380  0.2329  0.0810
19428DOD     C3 2105   7.615   9.840   2.561 -0.0903 -0.2141  0.0701
19429DOD     C1 2106  28.702  27.525  18.726  0.1944 -0.1307  0.2873
19429DOD     C2 2107  28.633  27.338  18.276 -0.1679  0.1991 -0.1105
19429DOD     C3 2108  28.719  27.143  17.861  0.1534 -0.1937 -0.1817
19430DOD     C1 2109   7.564  29.226   6.840  0.1833 -0.2041 -0.2278
19430DOD     C2 2110   7.583  29.335   6.374 -0.0028  0.0439 -0.1245
19430DOD     C3 2111   7.354  29.043   6.040  0.1147  0.0901  0.3530
19431DOD     C1 2112  18.932   2.967  23.955 -0.0129 -0.1063 -0.2572
19431DOD     C2 2113  18.857   3.389  23.729 -0.3294  0.0056 -0.0979
19431DOD     C3 2114  19.094   3.728  23.517 -0.2267 -0.2199  0.1265
19432DOD     C1 2115  26.401  24.819  16.724 -0.3492  0.1065  0.1699
19432DOD     C2 2116  26.198  24.571  17.101 -0.3752  0.0340 -0.2014
19432DOD     C3 2117  25.980  24.573  17.475 -0.1677  0.3039  0.1673
19433DOD     C1 2118  22.207  11.439   8.890 -0.1426  0.1085  0.2250
19433DOD     C2 2119  21.905  11.213   8.513 -0.2720 -0.2791 -0.0787
19433DOD     C3 2120  21.481  11.003   8.363 -0.0932  0.0722 -0.3561
19434DOD     C1 2121  20.046   3.289  26.338  0.0081 -0.1431  0.0661
19434DOD     C2 2122  20.491   3.086  26.338  0.3175 -0.1366  0.0819
19434DOD     C3 2123  20.875   2.851  26.374  0.1313 -0.0071  0.0942
19435DOD     C1 2124   3.073  25.275  11.157 -0.0522  0.3049 -0.0027
19435DOD     C2 2125   2.689  24.981  11.138 -0.0050 -0.3495 -0.1853
19435DOD     C3 2126   2.340  24.661  11.103  0.1093 -0.2935  0.1400
19436DOD     C1 2127   4.942  20.082   7.345 -0.1277  0.3211  0.2599
19436DOD     C2 2128   4.669  20.375   7.558  0.0909  0.0031 -0.3161
19436DOD     C3 2129   4.459  20.414   8.013  0.1451 -0.0329 -0.1340
19437DOD     C1 2130  24.387  19.820   0.106  0.2377 -0.0723  0.1140
19437DOD     C2 2131  24.373  20.181   0.360 -0.3114 -0.1537  0.2524
19437DOD     C3 2132  24.465  20.325   0.816  0.0090 -0.0778  0.0600
19438DOD     C1 2133   0.806  24.801   6.407 -0.1497 -0.1980  0.0735
19438DOD     C2 2134   0.634  24.870   5.962  0.1727 -0.2485  0.0059
19438DOD     C3 2135   0.756  25.169   5.686 -0.3521 -0.1178  0.1626
19439DOD     C1 2136   7.227  23.863  28.273 -0.0229  0.1231  0.0110
19439DOD     C2 2137   7.236  24.148  28.633  0.1129  0.1236 -0.1554
19439DOD     C3 2138   6.926  24.463  28.883 -0.0645  0.1620  0.0834
19440DOD     C1 2139  21.539   9.005  16.812  0.0730 -0.0328  0.1758
19440DOD     C2 2140  21.140   8.873  17.012  0.1610  0.3674  0.0007
19440DOD     C3 2141  20.789   8.656  16.761 -0.0116 -0.2521 -0.0147
19441DOD     C1 2142   1.359   9.428   0.418 -0.0497  0.1100  0.2751
19441DOD     C2 2143   1.054   9.610   0.729  0.0283  0.0481 -0.3391
19441DOD     C3 2144   0.974   9.965   0.970 -0.1734  0.2939 -0.0642
19442DOD     C1 2145  18.913  17.485  12.778 -0.0863  0.1128  0.0520
19442DOD     C2 2146  18.872  18.008  12.829 -0.1044 -0.0916  0.1534
19442DOD     C3 2147  18.966  18.316  13.158  0.3427 -0.2445 -0.2032
19443DOD     C1 2148   8.365  22.785  29.613  0.1386 -0.0990  0.0228
19443DOD     C2 2149   8.054  22.485  29.395  0.3755 -0.1413  0.0620
19443DOD     C3 2150   7.903  22.081  29.212  0.1107 -0.3368 -0.1040
19444DOD     C1 2151   0.483  20.303   3.395  0.2832  0.0429 -0.1668
19444DOD     C2 2152   0.451  20.494   2.973 -0.0370 -0.0217  0.1905
19444DOD     C3 2153   0.408  20.782   2.560 -0.1556  0.0356  0.0955
19445DOD     C1 2154  10.735   7.571  18.579 -0.0028 -0.2102 -0.1507
19445DOD     C2 2155  10.451   7.904  18.481  0.1132 -0.1286 -0.2862
19445DOD     C3 2156  10.002   7.764  18.308  0.3988 -0.2110  0.1246
19446DOD     C1 2157  29.499  27.682  17.517 -0.1266 -0.2389 -0.0512
19446DOD     C2 2158  29.641  28.054  17.811 -0.0614  0.1692 -0.1914
19446DOD     C3 2159  29.879  28.421  17.566  0.0719 -0.0240 -0.0781
19447DOD     C1 2160   0.513   2.897   0.295 -0.3051  0.0106  0.2334
19447DOD     C2 2161   0.706   2.865   0.713 -0.0302 -0.1680 -0.0303
19447DOD     C3 2162   0.908   2.541   0.967  0.2509  0.0431  0.1705
19448DOD     C1 2163  23.590  13.716  23.230 -0.0163  0.4952 -0.4101
19448DOD     C2 2164  23.418  13.269  23.264 -0.4454 -0.3634  0.4604
19448DOD     C3 2165  23.180  12.867  23.406 -0.1264 -0.2305  0.0363
19449DOD     C1 2166   2.126  24.077  27.092 -0.2472  0.1702 -0.1436
19449DOD     C2 2167   2.554  24.255  27.131  0.1666  0.0152 -0.0589
19449DOD     C3 2168   2.951  24.376  27.378 -0.2001  0.3429  0.2870
19450DOD     C1 2169  16.850  12.193   3.190  0.0730  0.2886 -0.2189
19450DOD     C2 2170  16.653  12.231   2.781  0.1470 -0.0992  0.2208
19450DOD     C3 2171  16.750  12.244   2.330 -0.1477 -0.0710  0.0480
19451DOD     C1 2172  19.843   0.658  24.315  0.1887  0.0403  0.1018
19451DOD     C2 2173  19.910   0.986  23.956 -0.0822 -0.0928  0.2015
19451DOD     C3 2174  19.704   1.202  23.584  0.0296 -0.0274 -0.1821
19452DOD     C1 2175  10.529   4.005  22.623  0.2218 -0.0369  0.1250
19452DOD     C2 2176  10.628   3.652  22.944  0.0120 -0.0342  0.1022
19452DOD     C3 2177  10.699   3.221  23.143 -0.2601  0.0046  0.0706
19453DOD     C1 2178  -0.063  24.081  21.722 -0.2242  0.0597 -0.0954
19453DOD     C2 2179  30.039  24.324  22.027  0.2604  0.1082  0.1026
19453DOD     C3 2180  30.183  24.747  22.098 -0.0949 -0.3333  0.1034
19454DOD     C1 2181   4.206  15.734  18.387 -0.0680  0.0883  0.0455
19454DOD     C2 2182   4.081  16.040  18.650  0.0769 -0.1897  0.2802
19454DOD     C3 2183   4.153  16.343  19.020  0.1746  0.2808  0.1940
19455DOD     C1 2184  12.883  16.652  12.718  0.0761  0.1598 -0.1694
19455DOD     C2 2185  13.343  16.819  12.653 -0.1145 -0.3964 -0.1128
19455DOD     C3 2186  13.790  16.758  12.443 -0.1983  0.1574 -0.0221
19456DOD     C1 2187  28.194  27.792  13.468  0.1563 -0.3393  0.2401
19456DOD     C2 2188  28.544  27.750  13.799 -0.0071  0.0463  0.2210
19456DOD     C3 2189  28.921  27.452  13.761  0.3246 -0.1903  0.0324
19457DOD     C1 2190  27.276  28.890   8.284 -0.0258  0.1353  0.2264
19457DOD     C2 2191  27.614  28.588   8.164  0.3110 -0.2594 -0.3538
19457DOD     C3 2192  27.491  28.176   8.083  0.2599  0.3955  0.0100
19458DOD     C1 2193  30.037  11.371  12.993 -0.3665  0.1958 -0.0418
19458DOD     C2 2194  29.891  11.279  13.416 -0.1676  0.0489 -0.0386
19458DOD     C3 2195  29.532  11.575  13.595 -0.1487  0.0895 -0.0668
19459DOD     C1 2196   0.799  18.397  26.365  0.0179 -0.2220 -0.2094
19459DOD     C2 2197   1.183  18.218  26.593 -0.4400  0.0390 -0.2279
19459DOD     C3 2198   1.626  18.396  26.578 -0.2746  0.1660 -0.0218
19460DOD     C1 2199  17.663   9.567  12.178 -0.0489 -0.0704  0.0512
19460DOD     C2 2200  18.052   9.806  12.252 -0.0111  0.0594 -0.0766
19460DOD     C3 2201  18.087  10.150  12.550  0.1491  0.0345  0.0017
19461DOD     C1 2202   9.515  18.360   0.966  0.0469 -0.0137  0.2732
19461DOD     C2 2203   9.236  17.937   0.996 -0.2410 -0.0512  0.2452
19461DOD     C3 2204   9.095  17.649   0.669  0.2342 -0.0461 -0.0353
19462DOD     C1 2205  19.698   4.836  14.137  0.3283  0.2730  0.4986
19462DOD     C2 2206  19.570   4.784  13.717  0.1295  0.0287  0.0737
19462DOD     C3 2207  19.882   4.826  13.342 -0.2465 -0.2861  0.1327
19463DOD     C1 2208   7.108  17.721   6.045 -0.0851 -0.0284  0.5778
19463DOD     C2 2209   6.860  17.363   5.773 -0.3419 -0.4122 -0.0400
19463DOD     C3 2210   6.851  16.863   5.598  0.1373  0.2489  0.4169
19464DOD     C1 2211   1.381  20.680  17.059 -0.3126  0.2655  0.0236
19464DOD     C2 2212   1.155  21.016  16.842  0.1359 -0.2176 -0.0495
19464DOD     C3 2213   1.030  21.442  16.839  0.2552  0.2509  0.2704
19465DOD     C1 2214   3.335  27.813  20.656 -0.4435 -0.0391  0.2270
19465DOD     C2 2215   3.390  28.252  20.791 -0.0421  0.3933 -0.1764
19465DOD     C3 2216   3.187  28.473  21.210 -0.1268 -0.0421  0.0826
19466DOD     C1 2217   7.943  26.787  20.499  0.2078 -0.0668 -0.0644
19466DOD     C2 2218   7.462  26.774  20.475 -0.0621 -0.0832 -0.0995
19466DOD     C3 2219   7.074  26.701  20.750  0.0558 -0.0782 -0.2475
19467DOD     C1 2220  27.022  19.612   5.122 -0.0055 -0.0431 -0.1879
19467DOD     C2 2221  26.971  19.975   5.457  0.2093 -0.0352  0.0585
19467DOD     C3 2222  26.946  20.438   5.492 -0.2582 -0.1868 -0.1970
19468DOD     C1 2223   7.327  14.459  13.316  0.2526 -0.0840  0.1841
19468DOD     C2 2224   7.066  14.109  13.546 -0.2138  0.1490  0.0332
19468DOD     C3 2225   6.798  14.120  13.929  0.0872 -0.0139 -0.0396
19469DOD     C1 2226  12.559   0.748  18.233  0.1615  0.0664 -0.0432
19469DOD     C2 2227  13.020   0.548  18.131  0.2583  0.1883  0.1189
19469DOD     C3 2228  13.184   0.103  18.040 -0.3091  0.3295 -0.2713
19470DOD     C1 2229  26.703  19.295  18.758  0.3464  0.1581  0.1346
19470DOD     C2 2230  26.280  19.248  18.853 -0.1371 -0.1057 -0.0591
19470DOD     C3 2231  26.100  19.068  19.205  0.2644  0.1429  0.2511
19471DOD     C1 2232   0.169   3.784  23.939 -0.0180  0.2110  0.2606
19471DOD     C2 2233   0.238   3.962  24.339 -0.0695 -0.1670  0.1744
19471DOD     C3 2234   0.337   3.798  24.790 -0.1299  0.2500  0.1786
19472DOD     C1 2235  21.520   9.681   8.339  0.1826  0.1566  0.0652
19472DOD     C2 2236  21.713   9.398   8.589 -0.0768 -0.0443 -0.0171
19472DOD     C3 2237  21.577   9.304   9.014  0.1829  0.2385 -0.1601
19473DOD     C1 2238   5.703  26.069  22.515 -0.1001  0.0088 -0.2246
19473DOD     C2 2239   5.978  25.750  22.402  0.1572 -0.1672 -0.0835
19473DOD     C3 2240   5.911  25.293  22.305 -0.0598  0.1459 -0.1428
19474DOD     C1 2241  19.078  29.065  15.223  0.0548 -0.2109 -0.0221
19474DOD     C2 2242  18.958  28.701  14.976 -0.1284  0.0535  0.0296
19474DOD     C3 2243  18.724  28.309  14.866  0.0533 -0.1648  0.0929
19475DOD     C1 2244   2.421  15.728  23.146 -0.0666  0.0434 -0.2896
19475DOD     C2 2245   2.179  16.077  23.027 -0.4974 -0.2410 -0.0565
19475DOD     C3 2246   2.045  16.493  22.813  0.3634 -0.2750  0.1112
19476DOD     C1 2247  20.587  19.309   6.893 -0.2171  0.2709  0.1526
19476DOD     C2 2248  20.174  19.186   7.086  0.0114 -0.0861  0.0248
19476DOD     C3 2249  19.755  19.377   7.222 -0.1317 -0.2253 -0.1963
19477DOD     C1 2250   8.546  27.081  25.735  0.2390 -0.2547 -0.2462
19477DOD     C2 2251   8.162  27.204  25.490  0.2312  0.3855  0.2471
19477DOD     C3 2252   7.800  27.387  25.224  0.0056  0.1396  0.0889
19478DOD     C1 2253   0.024   7.316  10.011  0.0174  0.2866 -0.4022
19478DOD     C2 2254  29.979   7.091   9.908  0.0422  0.2514 -0.1517
19478DOD     C3 2255  29.700   6.670   9.940  0.0145 -0.2171  0.0766
19479DOD     C1 2256  26.964  22.428  27.277 -0.1963 -0.0791  0.2886
19479DOD     C2 2257  26.518  22.444  27.336  0.2719 -0.2211  0.0813
19479DOD     C3 2258  26.089  22.570  27.200  0.0282 -0.0062 -0.0071
19480DOD     C1 2259  26.140   8.685  20.736  0.0053  0.2454  0.1475
19480DOD     C2 2260  25.811   8.331  20.593 -0.1629 -0.0691  0.0158
19480DOD     C3 2261  25.480   8.005  20.422  0.0866 -0.3058  0.3834
19481DOD     C1 2262  28.610  18.639  10.846  0.4426 -0.1152 -0.0659
19481DOD     C2 2263  28.501  18.940  10.522 -0.1579 -0.2103 -0.0056
19481DOD     C3 2264  28.349  18.835  10.076  0.0408 -0.2418  0.1825
19482DOD     C1 2265  13.478   6.485  10.537 -0.1311  0.2464  0.1540
19482DOD     C2 2266  12.985   6.469  10.628  0.0877  0.0782  0.0365
19482DOD     C3 2267  12.563   6.595  10.560 -0.1190  0.3678 -0.3179
19483DOD     C1 2268   0.753  13.621  24.639 -0.0157  0.0190 -0.2483
19483DOD     C2 2269   0.546  13.826  24.224  0.0192 -0.2048  0.2720
19483DOD     C3 2270   0.089  13.944  24.137 -0.1199  0.2188  0.1180
19484DOD     C1 2271   9.775  11.758  27.479  0.1792 -0.0076  0.2325
19484DOD     C2 2272   9.857  11.770  27.939  0.2571  0.2379 -0.0949
19484DOD     C3 2273   9.821  11.475  28.321 -0.4020  0.0842  0.1505
19485DOD     C1 2274  18.596  25.029  16.873 -0.0429 -0.1356 -0.1706
19485DOD     C2 2275  18.227  25.084  17.158 -0.1121 -0.0091  0.3016
19485DOD     C3 2276  17.923  24.891  17.360  0.2453  0.2197  0.1072
19486DOD     C1 2277   1.688  15.389  13.956  0.0123 -0.1808  0.0106
19486DOD     C2 2278   1.404  15.563  13.691  0.1341 -0.0698 -0.0490
19486DOD     C3 2279   0.995  15.474  13.457  0.1189 -0.1414 -0.3043
19487DOD     C1 2280  14.679   4.240  29.866  0.1581  0.2946  0.1791
19487DOD     C2 2281  14.437   3.869  29.947 -0.1939  0.1340  0.1201
19487DOD     C3 2282  14.185   3.545  29.976  0.1098  0.3241 -0.0480
19488DOD     C1 2283  10.403  14.155  29.672 -0.0209  0.0908  0.1519
19488DOD     C2 2284  10.128  14.287  29.317  0.0639 -0.0119 -0.1139
19488DOD     C3 2285  10.074  14.052  28.912 -0.0414 -0.3041  0.0605
19489DOD     C1 2286  13.271  12.377   9.699  0.1278 -0.4811 -0.0304
19489DOD     C2 2287  13.311  12.006   9.452  0.2171  0.3127  0.1448
19489DOD     C3 2288  13.046  11.728   9.126 -0.1213 -0.0079  0.3262
19490DOD     C1 2289  29.752  19.080   0.031 -0.1649 -0.0604  0.1229
19490DOD     C2 2290  29.751  19.035  29.897  0.2436  0.0133  0.2167
19490DOD     C3 2291  29.984  18.809  29.549  0.3207  0.0372  0.4035
19491DOD     C1 2292  15.312  11.677  27.071  0.1020 -0.3163  0.1568
19491DOD     C2 2293  14.823  11.808  26.984  0.2900  0.0406 -0.3052
19491DOD     C3 2294  14.401  11.672  26.867  0.0339 -0.1653  0.1335
19492DOD     C1 2295   2.444   7.186  13.759  0.1563  0.2373 -0.1340
19492DOD     C2 2296   2.052   7.296  13.740 -0.3989 -0.3597 -0.2021
19492DOD     C3 2297   1.608   7.113  13.803 -0.2054  0.0145 -0.0172
19493DOD     C1 2298  18.763   1.086  29.041  0.2689 -0.0270  0.2423
19493DOD     C2 2299  19.188   1.135  29.145  0.3993  0.5058  0.2740
19493DOD     C3 2300  19.627   1.120  29.329 -0.1352 -0.0126 -0.0795
19494DOD     C1 2301   9.177   5.564  13.388  0.0337  0.4452  0.2906
19494DOD     C2 2302   9.327   5.081  13.401  0.0494 -0.2471 -0.0990
19494DOD     C3 2303   9.616   4.759  13.093 -0.0112 -0.4436 -0.1198
19495DOD     C1 2304  17.945  10.563   2.011  0.0144 -0.1061 -0.0886
19495DOD     C2 2305  17.521  10.703   2.014 -0.0364 -0.3215 -0.1797
19495DOD     C3 2306  17.223  11.099   2.171 -0.1655 -0.2900 -0.0877
19496DOD     C1 2307  24.275  26.572  27.205  0.1758  0.2230 -0.3319
19496DOD     C2 2308  24.607  26.443  27.494  0.2275 -0.4962  0.1926
19496DOD     C3 2309  24.997  26.293  27.710  0.2226  0.1602  0.4154
19497DOD     C1 2310  26.588  10.623  28.741 -0.1081 -0.0647 -0.0717
19497DOD     C2 2311  26.612  11.039  28.860  0.1856 -0.1924 -0.0256
19497DOD     C3 2312  26.642  11.498  29.108  0.1421  0.0734  0.1470
19498DOD     C1 2313   4.545  12.406  20.746 -0.0235 -0.0406 -0.0548
19498DOD     C2 2314   4.223  12.507  21.103  0.0661 -0.1452 -0.1314
19498DOD     C3 2315   3.959  12.298  21.402 -0.1351  0.0110 -0.1262
19499DOD     C1 2316  13.539  23.029  11.258 -0.0255 -0.2147  0.1960
19499DOD     C2 2317  13.170  23.153  11.551 -0.2861 -0.2943 -0.1471
19499DOD     C3 2318  12.754  22.965  11.603 -0.4200  0.2472  0.1975
19500DOD     C1 2319   6.765   0.684  10.819 -0.3346  0.1751 -0.1154
19500DOD     C2 2320   6.920   0.436  10.456  0.1106  0.0001  0.0172
19500DOD     C3 2321   7.132   0.182  10.105  0.2802 -0.1936 -0.1478
19501DOD     C1 2322  20.302   7.256  18.567  0.2486  0.1624 -0.5199
19501DOD     C2 2323  20.010   7.054  18.848 -0.0561 -0.1264 -0.0292
19501DOD     C3 2324  19.580   6.900  18.998  0.0270  0.2385 -0.2425
19502DOD     C1 2325  20.274  12.239  21.113 -0.1955  0.2328  0.0511
19502DOD     C2 2326  19.888  12.235  20.825 -0.0207 -0.0860 -0.1736
19502DOD     C3 2327  19.591  12.574  20.576 -0.2440 -0.2795 -0.2082
19503DOD     C1 2328  20.522   9.110  26.538  0.1091  0.0810 -0.2137
19503DOD     C2 2329  20.260   9.029  26.921 -0.0717 -0.0352  0.2189
19503DOD     C3 2330  19.994   8.915  27.281 -0.0666  0.0497  0.3860
19504DOD     C1 2331  22.992   8.678   2.444 -0.1498 -0.0126  0.0412
19504DOD     C2 2332  23.050   8.215   2.494 -0.3181 -0.1038 -0.2614
19504DOD     C3 2333  23.112   7.751   2.532  0.0975  0.1593  0.1560
19505DOD     C1 2334  17.481   0.467  12.314 -0.0650 -0.0382  0.1372
19505DOD     C2 2335  17.417   0.382  12.741  0.2727  0.3360 -0.0535
19505DOD     C3 2336  17.215   0.189  13.098 -0.1169 -0.0175 -0.2097
19506DOD     C1 2337  27.100  22.587  27.752 -0.1073 -0.1788  0.0851
19506DOD     C2 2338  26.982  23.030  27.912 -0.1276  0.0842  0.2509
19506DOD     C3 2339  26.632  23.301  27.669 -0.0147  0.2611  0.1048
19507DOD     C1 2340  22.451  13.988  14.549 -0.1364 -0.1182  0.1044
19507DOD     C2 2341  22.203  14.326  14.269 -0.0511  0.1993  0.0282
19507DOD     C3 2342  21.807  14.497  14.392  0.0084 -0.0661  0.0469
19508DOD     C1 2343  26.471  26.976  24.372 -0.1179  0.3915 -0.2376
19508DOD     C2 2344  26.658  27.148  24.810  0.1359 -0.0033 -0.0989
19508DOD     C3 2345  26.844  27.562  24.785 -0.1299  0.0498 -0.0518
19509DOD     C1 2346  23.046  24.041  23.908 -0.3797 -0.1187 -0.2340
19509DOD     C2 2347  22.835  23.678  24.152 -0.1952 -0.1570  0.1852
19509DOD     C3 2348  22.717  23.325  24.437  0.0895  0.1068 -0.3626
19510DOD     C1 2349  22.450  10.814   6.970  0.0975  0.0765  0.1720
19510DOD     C2 2350  22.211  11.226   7.070 -0.0019 -0.0000  0.0084
19510DOD     C3 2351  22.293  11.585   7.302  0.2240 -0.0899 -0.1074
19511DOD     C1 2352   2.844  12.817  16.455 -0.2773  0.3928  0.1723
19511DOD     C2 2353   2.343  12.829  16.436  0.0843  0.0515 -0.0835
19511DOD     C3 2354   1.926  12.566  16.375  0.2108  0.0505  0.1102
19512DOD     C1 2355  16.869   0.897   6.170 -0.2155 -0.2324  0.2746
19512DOD     C2 2356  17.360   0.861   6.119 -0.0173 -0.1010 -0.0415
19512DOD     C3 2357  17.796   0.709   6.150 -0.0510 -0.0441 -0.0903
19513DOD     C1 2358  24.443  12.201  13.590 -0.2046  0.1262 -0.0695
19513DOD     C2 2359  24.641  12.574  13.513 -0.1804  0.1197 -0.0115
19513DOD     C3 2360  24.942  12.674  13.219 -0.3639  0.0909 -0.2654
19514DOD     C1 2361  20.256   5.429  26.409 -0.2661  0.0311 -0.1635
19514DOD     C2 2362  20.471   5.737  26.705  0.0644 -0.0335 -0.1809
19514DOD     C3 2363  20.646   6.077  27.024  0.0780  0.2458  0.2111
19515DOD     C1 2364  25.058  26.065  17.205  0.2049 -0.2713  0.2067
19515DOD     C2 2365  24.942  25.633  17.013  0.1772 -0.2775  0.2288
19515DOD     C3 2366  24.905  25.212  16.782 -0.2032 -0.1006 -0.0119
19516DOD     C1 2367  27.488   0.499  20.498  0.0701 -0.2474 -0.0075
19516DOD     C2 2368  27.100   0.344  20.240  0.0770 -0.2693 -0.1894
19516DOD     C3 2369  26.882   0.183  19.926  0.1137 -0.1339 -0.0738
19517DOD     C1 2370  24.096  25.841  26.174  0.4837  0.2553 -0.2746
19517DOD     C2 2371  24.389  25.465  26.033  0.0160  0.1865 -0.1032
19517DOD     C3 2372  24.666  25.205  25.764 -0.1462 -0.2987 -0.0112
19518DOD     C1 2373  15.154   3.828   2.533 -0.0544  0.1334  0.0330
19518DOD     C2 2374  15.563   3.911   2.365 -0.1773  0.2457  0.3347
19518DOD     C3 2375  15.836   4.187   2.138  0.0453 -0.4274  0.4877
19519DOD     C1 2376  13.100  28.429   9.878  0.1203  0.4274  0.0002
19519DOD     C2 2377  13.068  28.753   9.504 -0.0117  0.2965 -0.2355
19519DOD     C3 2378  13.333  29.069   9.418 -0.2889  0.0844  0.0974
19520DOD     C1 2379  23.426  23.872   0.819 -0.0002 -0.2286  0.0662
19520DOD     C2 2380  23.298  23.946   1.268  0.0480 -0.0099 -0.0596
19520DOD     C3 2381  23.028  23.895   1.652  0.0362  0.0136  0.1129
19521DOD     C1 2382   9.710  29.944  23.483 -0.1378  0.1559  0.1205
19521DOD     C2 2383   9.434  30.289  23.364 -0.0363  0.1592  0.0276
19521DOD     C3 2384   9.418   0.454  23.352  0.0945  0.0765  0.1623
19522DOD     C1 2385  18.957   7.895  26.455 -0.2689 -0.1644 -0.0680
19522DOD     C2 2386  19.323   8.044  26.175  0.0407 -0.1521 -0.1351
19522DOD     C3 2387  19.626   7.954  25.885  0.0307  0.2386  0.1766
19523DOD     C1 2388  15.363  28.105   6.009 -0.0737  0.3079  0.0171
19523DOD     C2 2389  15.015  28.174   5.672  0.3537 -0.0835 -0.1046
19523DOD     C3 2390  14.912  28.478   5.370 -0.0916 -0.2018  0.0737
19524DOD     C1 2391   9.612  18.690  28.682 -0.3571  0.1616  0.1084
19524DOD     C2 2392   9.711  18.907  29.013 -0.0715 -0.1792 -0.1208
19524DOD     C3 2393  10.033  19.180  29.127  0.0165  0.0062  0.1171
19525DOD     C1 2394  20.067  28.936  22.753 -0.3488  0.2106  0.0137
19525DOD     C2 2395  20.412  28.623  22.617 -0.0532 -0.0218  0.1402
19525DOD     C3 2396  20.361  28.169  22.659  0.0881  0.1590  0.1265
19526DOD     C1 2397  15.053  25.107  26.588  0.2811  0.0418 -0.0175
19526DOD     C2 2398  14.653  25.281  26.402  0.4365  0.0438  0.1511
19526DOD     C3 2399  14.348  25.348  26.087 -0.0944 -0.0128 -0.1294
19527DOD     C1 2400  29.574  29.128  15.457  0.0434  0.1315 -0.0683
19527DOD     C2 2401  29.325  28.980  15.831 -0.1277 -0.0525 -0.0031
19527DOD     C3 2402  28.877  28.754  15.826 -0.2498  0.0752  0.0880
19528DOD     C1 2403  29.336  13.962   1.132 -0.2859 -0.2855  0.1632
19528DOD     C2 2404  29.698  13.668   1.127  0.0122 -0.1049  0.1574
19528DOD     C3 2405  29.947  13.282   1.043 -0.0514 -0.0978 -0.0375
19529DOD     C1 2406   0.798  20.034  15.451 -0.0964  0.1924  0.3199
19529DOD     C2 2407   1.042  19.766  15.736  0.2570  0.2700  0.0874
19529DOD     C3 2408   1.252  19.392  15.962  0.1970  0.1869  0.1303
19530DOD     C1 2409   9.081  15.089  27.750 -0.0530 -0.1082 -0.0289
19530DOD     C2 2410   8.940  14.820  28.056 -0.1155  0.1904 -0.0689
19530DOD     C3 2411   9.253  14.709  28.306 -0.4682  0.2640  0.0448
19531DOD     C1 2412  23.422  28.448  21.781 -0.1247  0.1571 -0.0245
19531DOD     C2 2413  23.390  28.849  21.602 -0.2088 -0.1129 -0.2156
19531DOD     C3 2414  23.263  29.142  21.250 -0.3129  0.2505 -0.0993
19532DOD     C1 2415  15.270  17.757  20.296  0.0056 -0.4212 -0.0915
19532DOD     C2 2416  15.336  17.474  20.653  0.1516  0.3501 -0.2151
19532DOD     C3 2417  15.392  17.036  20.839 -0.2242 -0.0449 -0.0782
19533DOD     C1 2418   8.199  16.568  27.147 -0.3289 -0.0104 -0.0263
19533DOD     C2 2419   8.050  16.446  26.677 -0.0581  0.4410  0.1729
19533DOD     C3 2420   8.272  16.196  26.317  0.2757 -0.1529 -0.0454
19534DOD     C1 2421  19.896  18.733  30.084 -0.0754 -0.2490  0.3078
19534DOD     C2 2422  19.812  18.279  30.130  0.0773 -0.1040 -0.0073
19534DOD     C3 2423  20.004  17.883  30.207  0.2168 -0.2044 -0.0425
19535DOD     C1 2424  18.616   0.491  11.821  0.0782 -0.1386 -0.1808
19535DOD     C2 2425  18.818   0.921  11.940  0.0442  0.0179 -0.1294
19535DOD     C3 2426  19.112   1.298  11.969  0.0961  0.1089  0.1188
19536DOD     C1 2427  28.327   8.283  13.821  0.0803 -0.0615  0.1208
19536DOD     C2 2428  28.336   8.337  13.356  0.2936  0.1056  0.1846
19536DOD     C3 2429  28.419   8.027  12.966  0.0316 -0.1105  0.1883
19537DOD     C1 2430  13.078  18.855  22.508  0.0186 -0.0176 -0.1705
19537DOD     C2 2431  13.110  19.122  22.128  0.0631 -0.1327  0.0085
19537DOD     C3 2432  13.292  19.321  21.713  0.0051  0.1205 -0.0399
19538DOD     C1 2433  22.586  15.649   6.845  0.1251  0.2701  0.0130
19538DOD     C2 2434  22.940  15.980   6.829  0.1349  0.4020  0.1380
19538DOD     C3 2435  23.327  16.194   6.539  0.0021  0.0607 -0.0702
19539DOD     C1 2436   7.865   6.440  27.817  0.0735  0.0920  0.2447
19539DOD     C2 2437   7.784   6.696  28.239 -0.0844 -0.1574  0.1307
19539DOD     C3 2438   7.747   6.676  28.744 -0.0990 -0.0143  0.0504
19540DOD     C1 2439  25.611   2.379  17.960  0.0269 -0.0694 -0.0890
19540DOD     C2 2440  26.049   2.404  18.002  0.1465  0.0825  0.5487
19540DOD     C3 2441  26.383   2.703  17.982 -0.0330 -0.0070 -0.0237
19541DOD     C1 2442  14.179   1.145   6.948  0.2362  0.0362 -0.0286
19541DOD     C2 2443  14.407   1.154   7.368 -0.1127 -0.1159  0.0532
19541DOD     C3 2444  14.482   1.258   7.786  0.0459  0.1771 -0.2760
19542DOD     C1 2445  26.730  20.617   0.351  0.2276  0.0350  0.0514
19542DOD     C2 2446  27.044  20.872   0.200 -0.2336  0.0326 -0.0714
19542DOD     C3 2447  27.449  20.668   0.111  0.0501 -0.3503  0.0601
19543DOD     C1 2448   2.035  16.740   6.224 -0.1866  0.0086  0.0144
19543DOD     C2 2449   2.282  16.407   5.933  0.1049 -0.4160 -0.2443
19543DOD     C3 2450   2.521  16.411   5.514  0.0606  0.2990 -0.0599
19544DOD     C1 2451  19.530  14.819  26.804 -0.1881 -0.0124  0.0715
19544DOD     C2 2452  19.725  14.523  26.571 -0.0932  0.0919 -0.3009
19544DOD     C3 2453  20.141  14.458  26.585  0.0997  0.1666  0.1685
19545DOD     C1 2454   9.873  16.044  28.565 -0.1968 -0.0177 -0.1766
19545DOD     C2 2455   9.909  16.050  29.019 -0.1993 -0.0021  0.0509
19545DOD     C3 2456   9.769  15.933  29.444  0.1997  0.2787  0.0378
19546DOD     C1 2457  27.007  10.915  19.567 -0.0811  0.2788 -0.1300
19546DOD     C2 2458  27.078  10.542  19.293 -0.3440  0.1274  0.1579
19546DOD     C3 2459  26.836  10.456  18.852 -0.0886  0.3165  0.0040
19547DOD     C1 2460   5.964  12.230   6.810 -0.0950  0.0950 -0.1590
19547DOD     C2 2461   5.992  12.391   7.241 -0.2780  0.2897  0.3279
19547DOD     C3 2462   6.335  12.653   7.315 -0.0983 -0.0866 -0.0771
19548DOD     C1 2463   9.609   3.594  27.006 -0.2985 -0.0917  0.2094
19548DOD     C2 2464   9.288   3.281  27.075  0.1778 -0.0477  0.0403
19548DOD     C3 2465   8.994   3.101  26.808 -0.2304 -0.1216 -0.1805
19549DOD     C1 2466  15.026   9.264  26.543 -0.1718  0.0829 -0.3506
19549DOD     C2 2467  14.912   9.651  26.278 -0.1344  0.0681  0.2497
19549DOD     C3 2468  14.880  10.070  26.038 -0.0009  0.0549 -0.0343
19550DOD     C1 2469  29.477  13.035   2.524 -0.0071 -0.1329  0.1037
19550DOD     C2 2470  29.843  12.922   2.652 -0.2550 -0.2737 -0.3176
19550DOD     C3 2471  30.136  12.865   3.043  0.1830 -0.2013  0.0934
19551DOD     C1 2472  11.336   5.643  12.519  0.1097  0.1851  0.2821
19551DOD     C2 2473  10.852   5.513  12.648  0.0864 -0.0993 -0.1038
19551DOD     C3 2474  10.676   5.526  13.073  0.1349 -0.2647 -0.0083
19552DOD     C1 2475  21.319   0.765  20.121  0.2792  0.0694  0.1308
19552DOD     C2 2476  21.670   0.487  19.927 -0.0752 -0.1908  0.2901
19552DOD     C3 2477  21.817  -0.004  19.944  0.2988 -0.2855 -0.0250
19553DOD     C1 2478  10.166   8.676  11.315 -0.1560  0.0216 -0.0208
19553DOD     C2 2479  10.171   9.099  11.099  0.2306  0.2940  0.1129
19553DOD     C3 2480  10.029   9.491  10.891  0.1745 -0.1489 -0.1388
19554DOD     C1 2481  28.021  27.814  25.316  0.1380 -0.2306 -0.2129
19554DOD     C2 2482  27.567  27.778  25.417  0.2781  0.0415  0.0815
19554DOD     C3 2483  27.140  27.770  25.679  0.1519  0.0794 -0.4498
19555DOD     C1 2484  18.657   4.340  30.039  0.3796  0.0574 -0.5204
19555DOD     C2 2485  18.940   4.715  30.025 -0.0381 -0.1872  0.1291
19555DOD     C3 2486  18.860   5.084  29.677  0.2000  0.0526 -0.1303
19556DOD     C1 2487  26.157   4.957  15.832  0.1185  0.1761 -0.2421
19556DOD     C2 2488  25.917   4.693  15.508 -0.0534 -0.0202 -0.1622
19556DOD     C3 2489  25.739   4.439  15.125 -0.1529 -0.0878 -0.0987
19557DOD     C1 2490   4.516  23.561  19.851 -0.0677 -0.0514  0.1381
19557DOD     C2 2491   4.159  23.426  19.612 -0.0636 -0.0621  0.0837
19557DOD     C3 2492   3.743  23.310  19.601 -0.0324 -0.0943  0.0791
19558DOD     C1 2493  27.122   6.751   7.453  0.1191  0.0240 -0.1208
19558DOD     C2 2494  26.778   6.595   7.679  0.5697 -0.0224  0.3385
19558DOD     C3 2495  26.478   6.289   7.951  0.2332 -0.1236 -0.1970
19559DOD     C1 2496   6.143   5.442  18.790  0.2772  0.1260  0.0256
19559DOD     C2 2497   5.728   5.697  18.794 -0.0452  0.1353  0.0075
19559DOD     C3 2498   5.429   5.954  19.038  0.2261  0.2659  0.0240
19560DOD     C1 2499  19.265  24.407  20.872  0.0154  0.0073 -0.3026
19560DOD     C2 2500  19.270  24.694  21.237 -0.1256 -0.1095 -0.1707
19560DOD     C3 2501  19.445  24.907  21.596  0.1731 -0.0967 -0.0334
19561DOD     C1 2502  18.248  25.839  28.220 -0.1544  0.0946 -0.0598
19561DOD     C2 2503  17.868  25.991  27.982 -0.0416  0.1977  0.4134
19561DOD     C3 2504  17.402  25.904  27.971  0.3688 -0.1441 -0.0231
19562DOD     C1 2505  12.840  25.117  19.479  0.0301  0.2218 -0.1840
19562DOD     C2 2506  13.059  25.362  19.818 -0.2692 -0.2176  0.1753
19562DOD     C3 2507  13.174  25.574  20.220  0.0393 -0.1068  0.2705
19563DOD     C1 2508   8.043  28.676  24.814 -0.0172  0.1795 -0.1831
19563DOD     C2 2509   8.177  28.360  24.487 -0.2821  0.2467  0.2001
19563DOD     C3 2510   8.184  28.117  24.075 -0.0818 -0.4576 -0.0946
19564DOD     C1 2511   9.729  28.339  20.763 -0.2288  0.1685  0.1009
19564DOD     C2 2512   9.515  28.640  20.483 -0.0613 -0.2346 -0.1798
19564DOD     C3 2513   9.349  29.068  20.509 -0.0236 -0.0541 -0.0082
19565DOD     C1 2514  24.185  27.872  16.881 -0.1709 -0.3571  0.1204
19565DOD     C2 2515  24.132  27.961  16.440 -0.1380 -0.3120 -0.1805
19565DOD     C3 2516  23.809  27.988  16.096 -0.2320  0.0572  0.0777
19566DOD     C1 2517  12.818  18.490  23.405  0.1214 -0.0608  0.1025
19566DOD     C2 2518  12.896  18.606  22.941 -0.4619 -0.2328  0.0155
19566DOD     C3 2519  12.738  18.397  22.592  0.2512  0.2533 -0.1631
19567DOD     C1 2520   7.291  24.765  23.339 -0.0630  0.0207  0.0977
19567DOD     C2 2521   7.243  25.229  23.529  0.0910 -0.1025  0.2455
19567DOD     C3 2522   7.242  25.670  23.562  0.0048 -0.0893 -0.1754
19568DOD     C1 2523  21.477  29.876  12.244 -0.4074  0.0129  0.1792
19568DOD     C2 2524  21.878  30.023  12.466 -0.2969  0.0687 -0.1336
19568DOD     C3 2525  22.127  29.934  12.837  0.1399  0.0127  0.3652
19569DOD     C1 2526  28.818  20.122   1.121 -0.1909  0.2174  0.1504
19569DOD     C2 2527  29.058  20.163   0.698 -0.1527 -0.2821 -0.3317
19569DOD     C3 2528  29.389  19.982   0.420  0.0106  0.1267 -0.2011
19570DOD     C1 2529  15.830  14.644  11.975 -0.0846 -0.0140 -0.0207
19570DOD     C2 2530  16.190  14.576  12.334  0.2164  0.1565  0.0922
19570DOD     C3 2531  16.206  14.582  12.819 -0.1074 -0.1661  0.4835
19571DOD     C1 2532  18.924  28.310   5.699 -0.2200 -0.2280  0.0073
19571DOD     C2 2533  18.765  28.745   5.735  0.0059  0.2237  0.1419
19571DOD     C3 2534  18.676  29.056   5.368 -0.0948  0.1232  0.0627
19572DOD     C1 2535  17.910   4.094  12.463 -0.1036  0.2788  0.0989
19572DOD     C2 2536  17.604   4.202  12.774  0.1902 -0.1518 -0.0480
19572DOD     C3 2537  17.188   4.054  12.967 -0.1079  0.3536  0.0050
19573DOD     C1 2538   4.988  12.139   5.970 -0.0366 -0.0468 -0.0771
19573DOD     C2 2539   4.840  12.577   5.943  0.1099 -0.1014 -0.3498
19573DOD     C3 2540   4.855  12.975   5.637 -0.3495 -0.0412  0.1158
19574DOD     C1 2541   2.182  29.012  16.377  0.0274 -0.3517 -0.0196
19574DOD     C2 2542   2.522  28.735  16.629 -0.1020  0.3426  0.3032
19574DOD     C3 2543   2.737  28.617  17.014  0.1655  0.0269 -0.0733
19575DOD     C1 2544   3.573  22.142   8.773 -0.3522 -0.2437 -0.0565
19575DOD     C2 2545   3.207  22.074   9.050 -0.0860 -0.1906  0.1613
19575DOD     C3 2546   3.087  21.671   9.215 -0.1945 -0.0538 -0.2382
19576DOD     C1 2547  21.868  29.539   0.565  0.5500  0.2792 -0.1115
19576DOD     C2 2548  21.524  29.599   0.848 -0.2170  0.1412  0.0674
19576DOD     C3 2549  21.336  29.933   1.125  0.1676  0.2106  0.2055
19577DOD     C1 2550   9.254  26.141   0.587 -0.1398  0.4553  0.0441
19577DOD     C2 2551   9.399  26.526   0.392  0.0673 -0.2665  0.0085
19577DOD     C3 2552   9.312  26.979   0.452 -0.3403 -0.0365 -0.0398
19578DOD     C1 2553  21.007   1.518  12.855 -0.3049  0.4671  0.1118
19578DOD     C2 2554  20.735   1.677  12.519 -0.3845  0.1850  0.1692
19578DOD     C3 2555  20.366   1.484  12.371  0.0656  0.0048 -0.0219
19579DOD     C1 2556  27.093   1.661  15.734  0.2087 -0.0041  0.2154
19579DOD     C2 2557  27.290   1.898  15.361 -0.1099  0.0994 -0.1625
19579DOD     C3 2558  27.242   2.301  15.150 -0.2072 -0.0340  0.2775
19580DOD     C1 2559  26.374   9.120   0.590 -0.1627  0.0385 -0.2199
19580DOD     C2 2560  26.725   9.424   0.536  0.0189 -0.1820  0.1988
19580DOD     C3 2561  26.923   9.775   0.225  0.2469  0.0000 -0.1542
19581DOD     C1 2562  20.616  12.007   1.877 -0.1758 -0.2608  0.2181
19581DOD     C2 2563  20.889  11.895   1.543 -0.1436 -0.1412  0.3922
19581DOD     C3 2564  20.946  11.996   1.135 -0.2187  0.0330  0.0438
19582DOD     C1 2565  20.348  22.422  16.960 -0.1287  0.1301 -0.1588
19582DOD     C2 2566  20.610  22.049  16.901  0.1856 -0.1421  0.0493
19582DOD     C3 2567  20.603  21.621  16.987  0.3192 -0.0132 -0.0925
19583DOD     C1 2568   5.938  22.856  22.590 -0.2728  0.2382 -0.0947
19583DOD     C2 2569   6.313  22.793  22.822 -0.1347  0.1370  0.2757
19583DOD     C3 2570   6.736  22.962  23.034 -0.0086  0.1782 -0.2107
19584DOD     C1 2571  13.002  25.986  29.427 -0.2503 -0.2833 -0.0727
19584DOD     C2 2572  13.494  26.120  29.504 -0.0502  0.0727 -0.2504
19584DOD     C3 2573  13.951  26.191  29.493  0.3194  0.0268 -0.0571
19585DOD     C1 2574   2.536  22.497  21.155  0.0057 -0.1227  0.0858
19585DOD     C2 2575   2.326  22.118  20.945  0.0986  0.1993 -0.1387
19585DOD     C3 2576   2.441  21.655  20.897 -0.0399  0.2557 -0.2761
19586DOD     C1 2577   5.405   4.492   8.631  0.0285 -0.0183 -0.1842
19586DOD     C2 2578   5.649   4.072   8.609 -0.3942 -0.4566 -0.2814
19586DOD     C3 2579   6.034   3.870   8.427  0.0660 -0.3142  0.1105
19587DOD     C1 2580  19.077   2.969  14.813  0.1547 -0.3551  0.2242
19587DOD     C2 2581  19.107   2.486  14.734  0.3524 -0.0442 -0.1124
19587DOD     C3 2582  19.223   2.099  14.478  0.2886  0.0140 -0.0936
19588DOD     C1 2583   6.643  14.137   8.274  0.2557  0.1978  0.1251
19588DOD     C2 2584   6.927  13.774   8.429 -0.2064  0.1989  0.0436
19588DOD     C3 2585   7.311  13.518   8.489 -0.1845 -0.1721  0.0959
19589DOD     C1 2586   7.055  15.914   0.071  0.1155 -0.1277 -0.0581
19589DOD     C2 2587   7.204  16.329   0.264 -0.4659 -0.1098  0.0641
19589DOD     C3 2588   7.325  16.524   0.631 -0.0670 -0.0188 -0.1740
19590DOD     C1 2589  26.324   3.298  16.463 -0.2926 -0.0650  0.0657
19590DOD     C2 2590  26.322   3.097  16.028  0.1108 -0.0834 -0.0254
19590DOD     C3 2591  25.994   2.889  15.746 -0.0216  0.0649 -0.0150
19591DOD     C1 2592  13.492  18.911   6.467  0.0516  0.1147 -0.1237
19591DOD     C2 2593  13.047  19.035   6.629  0.1711 -0.0856  0.1843
19591DOD     C3 2594  12.812  19.439   6.800 -0.2511  0.0247  0.2056
19592DOD     C1 2595  23.327  16.221  13.187  0.1515 -0.1173 -0.0537
19592DOD     C2 2596  23.123  16.153  12.761  0.1551  0.3683 -0.2462
19592DOD     C3 2597  22.656  16.084  12.641  0.0895 -0.1663 -0.1612
19593DOD     C1 2598  28.534  21.457   8.868 -0.1490  0.1245  0.2158
19593DOD     C2 2599  28.230  21.112   8.680  0.1436  0.0773 -0.1498
19593DOD     C3 2600  27.889  20.789   8.606 -0.1979 -0.0142  0.0641
19594DOD     C1 2601   6.996  28.474  10.824 -0.1903  0.4404  0.1010
19594DOD     C2 2602   7.195  28.725  10.516 -0.0761  0.3156  0.1514
19594DOD     C3 2603   7.465  28.679  10.127 -0.2430  0.0735 -0.0177
19595DOD     C1 2604  27.968   8.042   9.230 -0.1072  0.0506  0.0519
19595DOD     C2 2605  28.369   8.298   9.286 -0.2303 -0.0172 -0.0441
19595DOD     C3 2606  28.749   8.408   9.562 -0.1192  0.2667  0.0970
19596DOD     C1 2607   3.595   8.725  14.565  0.0357 -0.0718  0.0844
19596DOD     C2 2608   3.106   8.595  14.628 -0.0099  0.4245 -0.1251
19596DOD     C3 2609   2.681   8.616  14.793 -0.2627  0.2708  0.0459
19597DOD     C1 2610  20.445  27.057   6.643 -0.1342  0.1327 -0.0049
19597DOD     C2 2611  20.778  27.086   6.363  0.0189  0.3385  0.0941
19597DOD     C3 2612  21.048  26.928   5.932  0.0655 -0.2909  0.2451
19598DOD     C1 2613  15.083   0.861  23.074 -0.0598  0.3660 -0.0787
19598DOD     C2 2614  14.890   1.042  22.670  0.0806  0.1425  0.0439
19598DOD     C3 2615  14.878   1.255  22.254  0.0140 -0.0913  0.1221
19599DOD     C1 2616  23.258   1.162  28.196  0.3141 -0.2992 -0.0730
19599DOD     C2 2617  23.220   1.252  28.662 -0.1188 -0.1534 -0.0890
19599DOD     C3 2618  23.074   1.566  28.952  0.0521  0.0930 -0.1135
19600DOD     C1 2619  22.985  11.789   5.374 -0.1812  0.0796  0.2140
19600DOD     C2 2620  22.666  12.064   5.506 -0.0401 -0.2985 -0.3119
19600DOD     C3 2621  22.302  12.288   5.503  0.1240 -0.0764  0.1363
19601DOD     C1 2622   5.188  24.124   7.455  0.0568  0.3663  0.1620
19601DOD     C2 2623   5.097  24.165   7.907  0.0887  0.1002 -0.2381
19601DOD     C3 2624   4.734  24.311   8.180  0.1512  0.2160  0.2558
19602DOD     C1 2625   2.936  20.064  12.029 -0.1324  0.0819 -0.2247
19602DOD     C2 2626   3.286  19.808  12.263  0.0912  0.2165  0.1297
19602DOD     C3 2627   3.679  19.645  12.220  0.0716  0.2657 -0.0724
19603DOD     C1 2628  18.646  11.926   7.803  0.1572 -0.2036  0.0082
19603DOD     C2 2629  18.672  11.511   7.571 -0.0351 -0.1438 -0.0784
19603DOD     C3 2630  18.643  11.158   7.244  0.1502  0.0006 -0.0899
19604DOD     C1 2631  11.109   7.900  18.320  0.1696 -0.1948  0.0778
19604DOD     C2 2632  11.341   7.492  18.346  0.1914 -0.0271 -0.1624
19604DOD     C3 2633  11.523   7.191  18.097 -0.0748 -0.1619  0.0951
19605DOD     C1 2634  12.349   8.218  26.729  0.2920  0.0696 -0.0471
19605DOD     C2 2635  12.281   8.487  27.092  0.1180 -0.1703 -0.0632
19605DOD     C3 2636  12.373   8.962  27.056 -0.0707  0.3005  0.0397
19606DOD     C1 2637  25.575  29.333  24.646  0.2740  0.1462  0.2839
19606DOD     C2 2638  25.686  29.315  25.153  0.1338 -0.0588  0.2069
19606DOD     C3 2639  25.693  29.121  25.557  0.1157  0.0283 -0.1463
19607DOD     C1 2640  15.212  25.390  15.442 -0.0237  0.0756 -0.2300
19607DOD     C2 2641  14.971  25.290  14.991 -0.0464  0.0310  0.0065
19607DOD     C3 2642  15.112  25.503  14.559 -0.0231  0.2331  0.1844
19608DOD     C1 2643  22.907  20.309   2.383  0.1235 -0.1061 -0.1562
19608DOD     C2 2644  23.337  20.223   2.499  0.1394 -0.1469  0.1681
19608DOD     C3 2645  23.463  19.773   2.452 -0.1541 -0.0579  0.0691
19609DOD     C1 2646  21.719  11.299  22.132  0.1296 -0.0256  0.1013
19609DOD     C2 2647  21.762  11.277  22.576  0.0615 -0.1657 -0.2220
19609DOD     C3 2648  21.450  11.277  22.984 -0.0684 -0.0591  0.2362
19610DOD     C1 2649  29.410  14.776  21.614  0.2100  0.0787 -0.1931
19610DOD     C2 2650  29.749  14.716  21.894  0.2210 -0.1410 -0.1540
19610DOD     C3 2651  30.054  14.487  22.102  0.1649 -0.0382  0.1618
19611DOD     C1 2652   1.196   1.491  18.637  0.0046  0.1093  0.2214
19611DOD     C2 2653   1.137   1.072  18.853 -0.4453  0.0697 -0.1185
19611DOD     C3 2654   1.456   0.807  19.134  0.0477  0.0662 -0.1853
19612DOD     C1 2655  18.617  29.389  29.759 -0.0189 -0.1348 -0.0300
19612DOD     C2 2656  18.301  29.268  30.080 -0.0584 -0.0900 -0.0083
19612DOD     C3 2657  17.860  29.128  29.994 -0.1508  0.2488 -0.2163
19613DOD     C1 2658  11.694   1.358  15.477  0.3947 -0.1191 -0.0134
19613DOD     C2 2659  11.247   1.579  15.387  0.0613  0.0329 -0.2463
19613DOD     C3 2660  10.941   1.958  15.495  0.0411  0.0952 -0.0887
19614DOD     C1 2661  19.559  24.006  12.165  0.1605 -0.0535 -0.1515
19614DOD     C2 2662  19.322  23.724  11.921 -0.0096  0.1622  0.0113
19614DOD     C3 2663  18.966  23.419  11.760 -0.0093 -0.0240 -0.2702
19615DOD     C1 2664  23.797  11.526  28.570 -0.0016 -0.0440 -0.2439
19615DOD     C2 2665  23.542  11.910  28.415  0.2017  0.1965 -0.0039
19615DOD     C3 2666  23.309  12.302  28.278  0.1508  0.1652  0.0871
19616DOD     C1 2667  16.791  16.370   4.928  0.2606 -0.1912 -0.1233
19616DOD     C2 2668  16.565  16.357   5.326 -0.1923  0.3115 -0.1102
19616DOD     C3 2669  16.605  16.563   5.737 -0.0375  0.0169 -0.0344
19617DOD     C1 2670   3.616   1.735  12.004  0.3864  0.0985  0.0932
19617DOD     C2 2671   3.604   1.293  11.880 -0.2496  0.1611 -0.0528
19617DOD     C3 2672   3.841   0.817  11.851 -0.0370  0.1142 -0.2228
19618DOD     C1 2673  27.562   6.661  13.561  0.0889 -0.1142 -0.1220
19618DOD     C2 2674  27.409   6.418  13.142  0.2203  0.1103  0.2088
19618DOD     C3 2675  27.557   6.064  12.863 -0.1054  0.2112  0.0872
19619DOD     C1 2676   7.879   5.086   3.767 -0.0644  0.3088  0.0839
19619DOD     C2 2677   7.975   4.673   3.929 -0.0105 -0.1888 -0.0861
19619DOD     C3 2678   7.829   4.188   3.752 -0.1089  0.2255  0.1560
19620DOD     C1 2679   9.183   0.731   5.702 -0.0958 -0.0085  0.1162
19620DOD     C2 2680   9.452   0.821   6.033 -0.4014 -0.2960 -0.1609
19620DOD     C3 2681   9.756   0.766   6.435 -0.1136  0.0232 -0.1106
19621DOD     C1 2682   7.963  27.657   6.950  0.1773  0.0141 -0.0298
19621DOD     C2 2683   8.209  28.068   6.998  0.1516 -0.0206 -0.0622
19621DOD     C3 2684   8.548  28.280   7.207 -0.2045  0.1142 -0.2982
19622DOD     C1 2685  17.622   0.529  13.202 -0.0020 -0.1823 -0.1913
19622DOD     C2 2686  17.695   0.074  13.145 -0.0266 -0.2182 -0.1430
19622DOD     C3 2687  17.753  29.947  13.046 -0.0218 -0.1228  0.0524
19623DOD     C1 2688  21.748  11.122  24.298 -0.0018 -0.0605 -0.1217
19623DOD     C2 2689  21.936  10.714  24.326 -0.3331  0.0109 -0.0608
19623DOD     C3 2690  22.220  10.393  24.527  0.0622 -0.0934  0.0665
19624DOD     C1 2691  24.368  13.498  23.543 -0.1487  0.1157 -0.3705
19624DOD     C2 2692  24.787  13.297  23.686  0.0491 -0.0009  0.2869
19624DOD     C3 2693  25.052  13.083  23.980 -0.0105 -0.1526  0.0980
19625DOD     C1 2694  25.448  26.711   6.109 -0.0561 -0.0476 -0.0508
19625DOD     C2 2695  25.168  26.540   6.467  0.2961 -0.2629  0.1449
19625DOD     C3 2696  24.889  26.550   6.867  0.1311  0.1933 -0.3221
19626DOD     C1 2697   6.778   7.597  20.406  0.0469 -0.0129  0.2001
19626DOD     C2 2698   6.677   7.809  20.049  0.1928 -0.0510  0.1009
19626DOD     C3 2699   6.824   8.067  19.733  0.0883 -0.1083 -0.3572
19627DOD     C1 2700   7.427   5.501   3.244  0.2110 -0.1047  0.0392
19627DOD     C2 2701   7.419   5.264   3.670  0.1773 -0.2487  0.3461
19627DOD     C3 2702   7.261   4.961   3.974 -0.0207 -0.3183  0.0205
19628DOD     C1 2703   3.848  26.659   7.406  0.1066  0.2447  0.0075
19628DOD     C2 2704   3.735  26.345   7.045  0.2926 -0.1105  0.1763
19628DOD     C3 2705   3.605  26.474   6.639 -0.1843  0.0485  0.0858
19629DOD     C1 2706  12.873  10.019  22.374 -0.1260  0.0621  0.1029
19629DOD     C2 2707  12.976  10.463  22.197  0.0730 -0.0424 -0.2362
19629DOD     C3 2708  12.939  10.775  22.533  0.0710 -0.1382  0.2525
19630DOD     C1 2709   7.418  10.613  24.920  0.0291  0.3513 -0.0375
19630DOD     C2 2710   7.020  10.671  25.193 -0.3195  0.1570  0.1260
19630DOD     C3 2711   6.646  10.582  25.365 -0.2843  0.3635  0.3276
19631DOD     C1 2712   1.781  11.008   4.598  0.2736  0.0308 -0.0817
19631DOD     C2 2713   2.033  10.911   4.201  0.1711  0.0638 -0.0033
19631DOD     C3 2714   2.427  11.044   4.043 -0.3824 -0.0153  0.2754
19632DOD     C1 2715   1.703   4.610  17.735  0.0915 -0.0926  0.0458
19632DOD     C2 2716   1.616   4.155  17.633 -0.1583 -0.0606  0.3065
19632DOD     C3 2717   1.545   3.734  17.515  0.0099 -0.1595 -0.3312
19633DOD     C1 2718   3.454   6.125  16.971  0.3363  0.0648  0.0656
19633DOD     C2 2719   3.086   6.168  17.241  0.3162  0.4672 -0.2216
19633DOD     C3 2720   2.710   6.054  17.551  0.0585  0.2820  0.2474
19634DOD     C1 2721  24.671  16.150   5.189  0.1605 -0.2089 -0.0256
19634DOD     C2 2722  24.947  16.417   5.352 -0.2121 -0.1624  0.2184
19634DOD     C3 2723  25.037  16.578   5.782 -0.0500 -0.1357 -0.0614
19635DOD     C1 2724  12.272   6.186   7.260  0.0615 -0.1900 -0.0977
19635DOD     C2 2725  12.546   5.834   7.107  0.0473 -0.2237  0.0863
19635DOD     C3 2726  12.798   5.470   6.978  0.1429  0.1035  0.2531
19636DOD     C1 2727  11.630  18.197  22.589 -0.1195 -0.1753  0.0957
19636DOD     C2 2728  11.245  17.905  22.678 -0.1702  0.0638 -0.0485
19636DOD     C3 2729  11.004  17.704  22.335  0.3037  0.0698 -0.0971
19637DOD     C1 2730  15.088  24.736   4.390  0.0144  0.0539 -0.2177
19637DOD     C2 2731  14.618  24.860   4.374 -0.0666  0.1120  0.0257
19637DOD     C3 2732  14.228  24.798   4.140 -0.0858  0.0866  0.0580
19638DOD     C1 2733  18.490  16.088   7.795 -0.1173  0.2612  0.2037
19638DOD     C2 2734  18.871  15.877   7.982  0.2755  0.1984 -0.0122
19638DOD     C3 2735  19.284  15.933   8.194  0.0424  0.1086 -0.0638
19639DOD     C1 2736  22.553   6.379  17.915 -0.1707 -0.2068  0.3461
19639DOD     C2 2737  22.241   6.528  18.242  0.0434  0.1498  0.3157
19639DOD     C3 2738  22.066   6.975  18.305  0.2855 -0.3164  0.0380
19640DOD     C1 2739  15.243  24.007   8.448  0.0905  0.1093  0.0402
19640DOD     C2 2740  15.235  24.064   8.924 -0.0470 -0.2219 -0.1001
19640DOD     C3 2741  15.222  24.362   9.238  0.3241  0.1524  0.2293
19641DOD     C1 2742  25.494  21.237   8.589  0.1086  0.0047 -0.1841
19641DOD     C2 2743  25.775  20.885   8.654 -0.0774  0.0935  0.1951
19641DOD     C3 2744  26.079  20.506   8.691  0.0203 -0.1532 -0.1068
19642DOD     C1 2745  29.149   2.718  10.083 -0.1791 -0.0396 -0.2361
19642DOD     C2 2746  29.120   3.147  10.001 -0.0696  0.0238  0.0755
19642DOD     C3 2747  28.916   3.585   9.894  0.0318 -0.0708 -0.0889
19643DOD     C1 2748  26.290  16.061  15.772 -0.2698  0.2736  0.0663
19643DOD     C2 2749  26.558  15.884  16.108  0.1541  0.0169  0.0349
19643DOD     C3 2750  26.857  15.683  16.367 -0.5480 -0.0224  0.2206
19644DOD     C1 2751  21.830   7.398  18.666 -0.1725 -0.2158 -0.0833
19644DOD     C2 2752  21.436   7.679  18.597 -0.1832  0.1234  0.0588
19644DOD     C3 2753  21.054   7.551  18.504 -0.1559  0.0213  0.0926
19645DOD     C1 2754   9.260   2.253  28.148 -0.0948 -0.0190  0.0309
19645DOD     C2 2755   8.878   2.080  28.351 -0.0953  0.0389  0.1579
19645DOD     C3 2756   8.840   1.610  28.443  0.3060  0.0613 -0.1458
19646DOD     C1 2757  13.693   6.646   3.296 -0.2090 -0.1465  0.2047
19646DOD     C2 2758  14.088   6.500   3.095  0.0213  0.2106 -0.0368
19646DOD     C3 2759  14.516   6.470   2.952 -0.1802 -0.0073 -0.1675
19647DOD     C1 2760  14.601  22.397  12.322  0.0194  0.1802 -0.1649
19647DOD     C2 2761  14.708  22.036  12.707  0.2405  0.0890  0.0165
19647DOD     C3 2762  14.733  21.882  13.154 -0.3362 -0.0718 -0.0282
19648DOD     C1 2763   7.309  13.933   6.788 -0.2246  0.0377 -0.1451
19648DOD     C2 2764   7.420  14.344   6.744  0.0999 -0.2333  0.0119
19648DOD     C3 2765   7.727  14.631   6.472 -0.0657  0.0863 -0.1605
19649DOD     C1 2766   7.741  12.911  28.095  0.1749 -0.0759 -0.1387
19649DOD     C2 2767   7.348  13.174  27.976 -0.1223  0.4335  0.1602
19649DOD     C3 2768   7.244  13.620  27.939 -0.1352  0.3777  0.1589
19650DOD     C1 2769  17.928  26.713   8.081  0.1288  0.0218  0.1077
19650DOD     C2 2770  18.233  27.061   7.983  0.1096 -0.0503  0.1403
19650DOD     C3 2771  18.505  27.194   7.615 -0.4260 -0.2590 -0.5357
19651DOD     C1 2772  19.856  24.174   1.485  0.1671 -0.1936 -0.0163
19651DOD     C2 2773  19.534  24.566   1.538  0.0646  0.2356 -0.0720
19651DOD     C3 2774  19.348  24.806   1.874 -0.0183 -0.0715  0.0021
19652DOD     C1 2775   5.630   2.808  15.345  0.0723 -0.1666 -0.0286
19652DOD     C2 2776   5.672   2.351  15.183  0.0490  0.0246 -0.1668
19652DOD     C3 2777   5.387   1.941  15.157 -0.0580  0.3032  0.2283
19653DOD     C1 2778   6.830   5.420  11.733  0.0095  0.3286  0.1959
19653DOD     C2 2779   6.641   5.031  11.896  0.1469  0.0364 -0.0946
19653DOD     C3 2780   6.382   4.746  12.159  0.1606 -0.2193  0.0743
19654DOD     C1 2781  20.966   5.366   3.928 -0.2934  0.0795  0.1235
19654DOD     C2 2782  20.859   4.912   3.829 -0.0907  0.1433  0.1847
19654DOD     C3 2783  20.729   4.436   3.734 -0.1058 -0.1573 -0.2431
19655DOD     C1 2784  21.311  25.424  19.997  0.1383  0.4407 -0.0192
19655DOD     C2 2785  20.913  25.190  20.008 -0.1361 -0.0572  0.0760
19655DOD     C3 2786  20.620  24.850  19.926  0.4337  0.1536  0.0284
19656DOD     C1 2787  20.534  11.238  25.999 -0.2048 -0.1808  0.2722
19656DOD     C2 2788  20.556  11.405  26.439  0.0122 -0.0452  0.0286
19656DOD     C3 2789  20.559  11.701  26.798 -0.3573 -0.0240  0.0136
19657DOD     C1 2790   1.543   3.640  13.204  0.0065  0.1477 -0.0423
19657DOD     C2 2791   1.556   3.800  12.722 -0.0972  0.1862  0.0229
19657DOD     C3 2792   1.469   4.011  12.351 -0.1313 -0.1291 -0.0437
19658DOD     C1 2793   3.514  21.727  21.029 -0.1246  0.1492 -0.1746
19658DOD     C2 2794   3.265  21.454  20.754  0.0366  0.0974  0.0003
19658DOD     C3 2795   3.108  21.056  20.781 -0.1713  0.2540  0.3208
19659DOD     C1 2796  14.021  12.757  20.298 -0.0246  0.0993 -0.0699
19659DOD     C2 2797  13.784  12.467  20.041  0.1613 -0.4342  0.0578
19659DOD     C3 2798  13.545  12.121  19.794 -0.1077  0.0216  0.1996
19660DOD     C1 2799   5.797  19.228   9.517  0.0210 -0.1146 -0.0178
19660DOD     C2 2800   5.487  18.922   9.722  0.0393 -0.3550 -0.0968
19660DOD     C3 2801   5.182  18.624   9.953  0.1731  0.0992 -0.3216
19661DOD     C1 2802  17.443  18.493   6.121 -0.2012 -0.1964  0.0062
19661DOD     C2 2803  17.044  18.303   6.056 -0.0920  0.3017 -0.0350
19661DOD     C3 2804  16.627  18.259   5.858  0.1450 -0.1442  0.0636
19662DOD     C1 2805  18.190  18.603   4.262 -0.0944  0.1569  0.2100
19662DOD     C2 2806  17.923  18.346   4.007  0.2950  0.0867 -0.4654
19662DOD     C3 2807  17.756  18.266   3.578 -0.0616 -0.2636  0.1705
19663DOD     C1 2808   2.086  29.837  16.999 -0.1110  0.1765  0.1283
19663DOD     C2 2809   2.063  29.433  17.223  0.3981  0.0331 -0.2317
19663DOD     C3 2810   2.268  29.273  17.664  0.0016  0.0279 -0.1953
19664DOD     C1 2811  11.619  11.526  19.529  0.1253  0.1259 -0.1609
19664DOD     C2 2812  11.838  11.239  19.799  0.4719 -0.3140 -0.0779
19664DOD     C3 2813  12.032  11.035  20.119  0.0037 -0.1706  0.2391
19665DOD     C1 2814  15.550  29.288   2.229 -0.1078  0.0515 -0.1037
19665DOD     C2 2815  15.506  29.116   2.626  0.0252 -0.0082  0.0473
19665DOD     C3 2816  15.865  29.184   2.882  0.0349 -0.0239 -0.1516
19666DOD     C1 2817   3.310   8.543   4.307 -0.2431  0.0484  0.0511
19666DOD     C2 2818   3.769   8.635   4.137  0.1871  0.0296  0.2878
19666DOD     C3 2819   4.167   8.831   4.007 -0.2336 -0.0632 -0.0870
19667DOD     C1 2820  16.191  19.841  11.667 -0.0200 -0.0075 -0.0023
19667DOD     C2 2821  16.027  20.115  11.945 -0.2140 -0.1477  0.0240
19667DOD     C3 2822  15.717  20.189  12.276  0.0051  0.0496  0.0473
19668DOD     C1 2823  22.659  24.764   6.646 -0.2306 -0.0842  0.2377
19668DOD     C2 2824  23.049  24.846   6.441  0.0025  0.1145  0.1053
19668DOD     C3 2825  23.320  24.550   6.218 -0.0158 -0.1533  0.1811
19669DOD     C1 2826  20.185  16.351  13.412 -0.1843  0.1518 -0.1276
19669DOD     C2 2827  20.312  16.722  13.173  0.0293 -0.1071 -0.1582
19669DOD     C3 2828  20.624  17.035  13.295  0.0501 -0.1721 -0.0414
19670DOD     C1 2829   1.982   0.407  12.935  0.1925 -0.1511  0.1100
19670DOD     C2 2830   1.685   0.736  13.017 -0.2129  0.0095 -0.0337
19670DOD     C3 2831   1.378   1.098  13.140 -0.0650 -0.1308 -0.0665
19671DOD     C1 2832  13.765   4.032   5.696  0.0297  0.2087  0.2895
19671DOD     C2 2833  14.143   4.145   5.925  0.3394 -0.1740 -0.1662
19671DOD     C3 2834  14.390   4.553   5.958  0.3326  0.2212 -0.4803
19672DOD     C1 2835  20.394  17.016  29.283 -0.0633  0.3521 -0.1902
19672DOD     C2 2836  20.612  16.665  29.553  0.0302 -0.0629  0.0507
19672DOD     C3 2837  21.000  16.732  29.825 -0.0901  0.0610  0.0344
19673DOD     C1 2838   1.254   1.663  28.971 -0.0585  0.1656 -0.1475
19673DOD     C2 2839   1.154   1.499  29.420  0.1381  0.2351 -0.2376
19673DOD     C3 2840   1.268   1.076  29.565  0.1560  0.0653 -0.0481
19674DOD     C1 2841  16.170  19.692  12.173  0.0034 -0.2304 -0.1667
19674DOD     C2 2842  15.890  19.388  11.944 -0.3474 -0.1011 -0.2089
19674DOD     C3 2843  16.101  19.001  12.016  0.3716 -0.0319  0.2565
19675DOD     C1 2844  26.016  11.545   0.262  0.1572 -0.2415 -0.0425
19675DOD     C2 2845  26.289  11.843  30.307 -0.2548 -0.0879 -0.0374
19675DOD     C3 2846  26.224  12.171  29.892 -0.2022  0.0906  0.1489
19676DOD     C1 2847  21.683  19.511  15.823 -0.0696 -0.2026  0.0181
19676DOD     C2 2848  21.550  19.742  16.202  0.3917 -0.4218 -0.0688
19676DOD     C3 2849  21.287  19.955  16.612  0.0623 -0.2211  0.3027
19677DOD     C1 2850  18.324   3.492   2.313  0.0184 -0.1673 -0.0078
19677DOD     C2 2851  18.437   3.104   2.241 -0.2468 -0.1846  0.0315
19677DOD     C3 2852  18.885   2.949   1.973  0.3905 -0.0448 -0.1720
19678DOD     C1 2853  15.389  11.854  16.717  0.0910  0.4488  0.1019
19678DOD     C2 2854  15.474  12.164  16.361  0.1968 -0.2798 -0.0151
19678DOD     C3 2855  15.579  12.582  16.193 -0.0591  0.0721 -0.0053
19679DOD     C1 2856  13.725  11.655   2.224  0.4210 -0.0738  0.3217
19679DOD     C2 2857  13.837  12.050   2.462  0.3153  0.1362  0.1753
19679DOD     C3 2858  13.975  12.268   2.811 -0.1402  0.1532  0.3418
19680DOD     C1 2859  17.996  12.991  28.790 -0.0191 -0.0879 -0.0087
19680DOD     C2 2860  17.753  12.767  28.443 -0.0475 -0.2110 -0.0064
19680DOD     C3 2861  17.322  12.620  28.471 -0.0653  0.1070  0.0944
19681DOD     C1 2862  22.910  28.463   6.091  0.0557 -0.1297  0.0803
19681DOD     C2 2863  22.498  28.247   6.233 -0.0751 -0.0536  0.0117
19681DOD     C3 2864  22.080  28.360   6.145  0.0931 -0.0604  0.0264
19682DOD     C1 2865  19.645   1.291  17.442  0.2644 -0.0658  0.3366
19682DOD     C2 2866  20.071   1.339  17.272  0.2683 -0.2384  0.0521
19682DOD     C3 2867  20.407   1.496  16.958 -0.1447 -0.2266 -0.1242
19683DOD     C1 2868  12.827  12.591  23.022  0.2566  0.0901 -0.0828
19683DOD     C2 2869  13.020  12.496  22.603 -0.1867  0.2093  0.0379
19683DOD     C3 2870  12.984  12.263  22.195 -0.3932 -0.0847  0.1773
19684DOD     C1 2871   0.956  10.404   2.550 -0.0358 -0.0968 -0.0897
19684DOD     C2 2872   1.418  10.498   2.608  0.1238  0.1892  0.6606
19684DOD     C3 2873   1.606  10.874   2.509  0.0766  0.1222 -0.1481
19685DOD     C1 2874   0.468  27.082  19.990  0.1233  0.3548  0.0682
19685DOD     C2 2875   0.361  27.082  19.567  0.0713 -0.3844  0.1890
19685DOD     C3 2876   0.353  26.987  19.095  0.0024  0.3263  0.4807
19686DOD     C1 2877  28.499   3.554  19.446 -0.2605 -0.0811 -0.3633
19686DOD     C2 2878  28.722   3.662  19.858  0.0304 -0.5522  0.2232
19686DOD     C3 2879  28.712   3.822  20.291 -0.0548  0.0334  0.0348
19687DOD     C1 2880   6.899   0.983  10.385 -0.0073  0.2746  0.0133
19687DOD     C2 2881   7.400   0.981  10.416 -0.2968  0.1750 -0.0859
19687DOD     C3 2882   7.848   0.736  10.573  0.2856 -0.1027 -0.0065
19688DOD     C1 2883  25.333  11.720  11.530  0.1017 -0.0989  0.2953
19688DOD     C2 2884  25.416  11.657  11.067 -0.2795 -0.1384 -0.1231
19688DOD     C3 2885  25.615  11.469  10.702 -0.3300  0.1629 -0.1571
19689DOD     C1 2886   6.853  29.350  14.243  0.0366  0.3836 -0.2294
19689DOD     C2 2887   7.198  29.053  14.337 -0.0588 -0.3613  0.4289
19689DOD     C3 2888   7.619  29.100  14.146 -0.3957 -0.2685  0.3050
19690DOD     C1 2889  17.403  15.939  15.131 -0.1372 -0.0890 -0.1410
19690DOD     C2 2890  17.548  16.037  15.588  0.3678 -0.0974  0.0600
19690DOD     C3 2891  17.615  16.220  16.030 -0.0551  0.0138 -0.0701
19691DOD     C1 2892   7.020  13.099   6.407 -0.0183 -0.3285 -0.0406
19691DOD     C2 2893   7.009  12.812   6.772  0.0933 -0.2796  0.2838
19691DOD     C3 2894   6.876  13.032   7.172  0.1762  0.6060  0.2009
19692DOD     C1 2895  26.553   8.460   9.866  0.3379  0.2331 -0.3999
19692DOD     C2 2896  26.300   8.519  10.247 -0.1614  0.0667  0.0658
19692DOD     C3 2897  25.964   8.645  10.532 -0.4401  0.1483 -0.0087
19693DOD     C1 2898  20.256  16.018  12.529  0.2456 -0.1501  0.1294
19693DOD     C2 2899  20.041  16.364  12.738  0.0682 -0.0844 -0.0372
19693DOD     C3 2900  19.683  16.072  12.892 -0.0807 -0.1154  0.2045
19694DOD     C1 2901  20.498  18.104   5.028 -0.0029  0.1806 -0.1384
19694DOD     C2 2902  20.839  18.149   5.374 -0.0792  0.2628  0.0793
19694DOD     C3 2903  21.258  18.256   5.640  0.2036 -0.1159  0.0070
19695DOD     C1 2904   5.777  15.960  12.899  0.1133  0.1099 -0.1204
19695DOD     C2 2905   5.502  16.342  12.812 -0.2068 -0.0606 -0.1060
19695DOD     C3 2906   5.254  16.687  13.068  0.0762 -0.1607 -0.1472
19696DOD     C1 2907  15.541  15.381  18.834 -0.3019  0.1495  0.0443
19696DOD     C2 2908  15.530  14.931  18.699 -0.0892  0.0779  0.1554
19696DOD     C3 2909  15.431  14.487  18.468 -0.0242 -0.2400  0.2280
19697DOD     C1 2910   7.512  14.482  10.072 -0.2560 -0.1064 -0.2518
19697DOD     C2 2911   7.085  14.646  10.056 -0.0688 -0.0216  0.1015
19697DOD     C3 2912   6.788  14.966  10.071 -0.0426 -0.0012  0.0733
19698DOD     C1 2913  26.021  16.700  13.305  0.0320 -0.3145  0.0288
19698DOD     C2 2914  26.027  16.393  13.668 -0.3545  0.2354 -0.4854
19698DOD     C3 2915  25.964  16.097  14.002 -0.0353  0.0965 -0.1055
19699DOD     C1 2916  16.117  21.363  22.649  0.1865  0.1634 -0.2258
19699DOD     C2 2917  16.112  21.616  22.292  0.0199  0.0368 -0.1345
19699DOD     C3 2918  15.809  21.876  21.992  0.1231 -0.1418  0.3058
19700DOD     C1 2919   3.785  29.537   0.676  0.2539  0.1195  0.1767
19700DOD     C2 2920   3.427  29.702   0.989 -0.1200 -0.0756 -0.1169
19700DOD     C3 2921   3.531  29.810   1.427 -0.0576  0.0267  0.2608
19701DOD     C1 2922  12.861   4.554  15.792  0.0630  0.0427 -0.0171
19701DOD     C2 2923  13.110   4.159  15.858  0.2519  0.1343  0.1398
19701DOD     C3 2924  13.417   3.828  15.684  0.0290 -0.1076  0.1260
19702DOD     C1 2925  14.607  16.722   9.516  0.0469  0.1710 -0.0722
19702DOD     C2 2926  15.017  16.852   9.633  0.0892 -0.2603 -0.2998
19702DOD     C3 2927  15.217  17.301   9.581  0.3262 -0.3418 -0.0831
19703DOD     C1 2928  20.100  23.475  25.981  0.1371  0.2327  0.2454
19703DOD     C2 2929  20.001  23.060  26.206 -0.0887 -0.3168 -0.1591
19703DOD     C3 2930  19.630  23.037  26.540  0.0162 -0.0476 -0.0293
19704DOD     C1 2931   2.884  18.491   4.339  0.0739  0.1244  0.1168
19704DOD     C2 2932   2.983  18.874   4.053 -0.1614 -0.0849 -0.2368
19704DOD     C3 2933   2.916  19.336   4.044 -0.1937 -0.0766 -0.0494
19705DOD     C1 2934  17.392   5.036   9.217  0.2678 -0.2214 -0.1208
19705DOD     C2 2935  17.459   4.746   9.577 -0.2479 -0.0003 -0.0598
19705DOD     C3 2936  17.345   4.801  10.071  0.0751  0.3632  0.4220
19706DOD     C1 2937  25.892  18.436   1.403  0.0568 -0.2719 -0.0887
19706DOD     C2 2938  25.460  18.656   1.254  0.1987  0.1134  0.1738
19706DOD     C3 2939  25.017  18.592   1.343  0.0853 -0.2991  0.2399
19707DOD     C1 2940   1.791   8.542  12.662  0.0459 -0.0335 -0.1010
19707DOD     C2 2941   2.134   8.742  12.939 -0.0392 -0.1672 -0.0934
19707DOD     C3 2942   2.223   9.162  13.134  0.3554 -0.3682 -0.3547
19708DOD     C1 2943  17.053  29.450  24.923  0.0326  0.2012  0.1081
19708DOD     C2 2944  17.187  29.392  25.358  0.2085  0.2401  0.3563
19708DOD     C3 2945  17.365  29.086  25.640  0.0580 -0.0994 -0.0432
19709DOD     C1 2946  25.323  25.950  26.539  0.4046  0.0431 -0.0011
19709DOD     C2 2947  25.308  25.497  26.441  0.1155  0.2399  0.0712
19709DOD     C3 2948  25.604  25.264  26.130 -0.2479  0.1686 -0.1375
19710DOD     C1 2949  14.336  26.731  26.084  0.0974  0.0179  0.3559
19710DOD     C2 2950  13.976  26.507  26.265 -0.1199 -0.3139 -0.1909
19710DOD     C3 2951  13.596  26.374  26.508  0.0315 -0.0831  0.0420
19711DOD     C1 2952  14.675  20.979  24.973 -0.3178 -0.0443  0.3256
19711DOD     C2 2953  14.777  21.308  25.297  0.1633  0.1376 -0.1803
19711DOD     C3 2954  14.728  21.780  25.356 -0.0112  0.0500 -0.0072
19712DOD     C1 2955   6.480  23.033  22.287 -0.1393  0.6060  0.0817
19712DOD     C2 2956   6.291  23.260  22.643 -0.0721 -0.0242 -0.0409
19712DOD     C3 2957   6.324  23.304  23.100  0.2378  0.0559 -0.2152
19713DOD     C1 2958   9.723  15.723  20.900  0.0609 -0.0295 -0.0351
19713DOD     C2 2959   9.454  15.319  21.061  0.0582 -0.0236  0.1523
19713DOD     C3 2960   9.317  14.919  20.866 -0.3093  0.0410 -0.0326
19714DOD     C1 2961   2.717  21.158  28.052 -0.1785 -0.0421  0.1166
19714DOD     C2 2962   3.165  21.332  28.134 -0.0361 -0.0980  0.4159
19714DOD     C3 2963   3.447  21.028  28.230 -0.0217 -0.1945 -0.1213
19715DOD     C1 2964  17.431  26.685   0.435 -0.0538  0.2060 -0.2301
19715DOD     C2 2965  17.382  26.259   0.496  0.0253 -0.0597 -0.0888
19715DOD     C3 2966  17.484  25.787   0.471  0.1445 -0.1110 -0.3886
19716DOD     C1 2967  11.654  11.737   7.556 -0.3572  0.1482 -0.1041
19716DOD     C2 2968  11.253  11.839   7.305  0.2783 -0.0152 -0.0489
19716DOD     C3 2969  11.077  12.004   6.886  0.0026 -0.0476 -0.1786
19717DOD     C1 2970  22.063  15.975  25.057  0.2016  0.2494 -0.3723
19717DOD     C2 2971  22.544  16.173  25.138  0.0387  0.0936  0.0443
19717DOD     C3 2972  22.873  16.602  25.237  0.1625  0.3268 -0.3036
19718DOD     C1 2973  22.883  26.019  28.547 -0.3187 -0.0635 -0.1396
19718DOD     C2 2974  22.719  26.225  28.121 -0.1113  0.1161 -0.3702
19718DOD     C3 2975  22.253  26.245  27.965  0.1407 -0.3621 -0.1997
19719DOD     C1 2976   1.382  20.403  22.762  0.2152 -0.2050  0.2195
19719DOD     C2 2977   1.750  20.208  22.920 -0.1669 -0.3896  0.1640
19719DOD     C3 2978   1.986  19.805  22.988  0.1437 -0.0781 -0.1367
19720DOD     C1 2979  20.353  24.695  17.217 -0.3507  0.1663 -0.1103
19720DOD     C2 2980  20.182  24.247  17.303  0.0508  0.1579 -0.1911
19720DOD     C3 2981  19.768  23.999  17.264 -0.1170 -0.0935  0.2049
19721DOD     C1 2982  14.606  15.473  11.197  0.0146  0.5454 -0.2018
19721DOD     C2 2983  15.066  15.474  11.393  0.0119  0.2126  0.1598
19721DOD     C3 2984  15.551  15.423  11.439  0.1174  0.0350 -0.5408
19722DOD     C1 2985  19.667  12.003  11.372  0.2103 -0.0105 -0.5047
19722DOD     C2 2986  19.675  11.520  11.331  0.2054 -0.0504 -0.1132
19722DOD     C3 2987  19.879  11.087  11.311 -0.3796 -0.2173 -0.1811
19723DOD     C1 2988  20.749  17.339   8.706  0.0420  0.0613  0.1889
19723DOD     C2 2989  21.061  17.461   9.020  0.0237  0.1578  0.0385
19723DOD     C3 2990  21.459  17.299   9.136  0.1964  0.0787 -0.0413
19724DOD     C1 2991  23.018  29.955   7.650  0.0274  0.1201 -0.0573
19724DOD     C2 2992  23.010  30.100   8.108 -0.0677  0.1986  0.0853
19724DOD     C3 2993  22.891  30.297   8.478  0.1968  0.0121 -0.2797
19725DOD     C1 2994  25.883  13.020  11.207  0.0630 -0.1961 -0.0955
19725DOD     C2 2995  26.304  13.093  11.171 -0.1099 -0.0251  0.0867
19725DOD     C3 2996  26.786  13.057  11.157 -0.3614 -0.0874 -0.2669
19726DOD     C1 2997   4.534  15.510  14.615 -0.2324 -0.1714 -0.1437
19726DOD     C2 2998   4.685  15.597  15.057  0.3154 -0.0328 -0.1836
19726DOD     C3 2999   4.677  15.290  15.379  0.2411 -0.0221  0.1805
19727DOD     C1 3000   3.427  18.649  12.495  0.1226 -0.1987  0.1643
19727DOD     C2 3001   3.786  18.831  12.691  0.0769 -0.0029 -0.0242
19727DOD     C3 3002   4.110  18.598  12.733 -0.0342  0.0901  0.0873
19728DOD     C1 3003  25.150  25.221  24.112 -0.2358 -0.1231  0.2180
19728DOD     C2 3004  25.416  25.573  24.228 -0.1255 -0.1010 -0.0369
19728DOD     C3 3005  25.806  25.757  24.421 -0.0915  0.1168  0.0256
19729DOD     C1 3006  17.614   9.274  21.939 -0.0907  0.0774  0.0945
19729DOD     C2 3007  17.623   9.182  22.428 -0.0582 -0.0980 -0.0421
19729DOD     C3 3008  17.550   8.722  22.550  0.2588 -0.1458 -0.2577
19730DOD     C1 3009  21.104  27.650   7.722  0.1271  0.2178 -0.2548
19730DOD     C2 3010  20.894  27.461   8.117 -0.0884  0.0589 -0.0793
19730DOD     C3 3011  20.470  27.404   8.319  0.0912 -0.0227 -0.0771
19731DOD     C1 3012  16.821  19.572   5.280  0.2269 -0.3138 -0.1949
19731DOD     C2 3013  16.354  19.515   5.402 -0.1314 -0.3384  0.2218
19731DOD     C3 3014  15.878  19.616   5.403  0.0839 -0.1595  0.3002
19732DOD     C1 3015  12.332  13.732   3.906 -0.1267 -0.3922  0.0810
19732DOD     C2 3016  12.286  13.294   3.863  0.2531 -0.2389  0.1066
19732DOD     C3 3017  12.625  12.968   3.850 -0.2526 -0.0713 -0.0346
19733DOD     C1 3018   7.409  12.702  12.741 -0.4638  0.0507 -0.2009
19733DOD     C2 3019   7.789  12.503  12.922 -0.1930 -0.1450  0.2623
19733DOD     C3 3020   7.728  12.174  13.238 -0.2711 -0.0067 -0.0270
19734DOD     C1 3021  22.536  27.621  15.697  0.0013  0.1145  0.1423
19734DOD     C2 3022  22.677  28.039  15.459  0.1366  0.0419  0.1873
19734DOD     C3 3023  22.460  28.405  15.219  0.0029  0.1427  0.1841
19735DOD     C1 3024   3.761  14.095  28.256 -0.4424  0.0704  0.4246
19735DOD     C2 3025   3.459  14.114  27.869  0.0815  0.4894  0.2266
19735DOD     C3 3026   3.379  14.041  27.412 -0.1656 -0.0487 -0.0657
19736DOD     C1 3027  17.484  24.584   8.484  0.1883 -0.0594  0.3196
19736DOD     C2 3028  17.547  25.071   8.527 -0.0782  0.1232  0.1053
19736DOD     C3 3029  17.543  25.523   8.655  0.0769 -0.0708  0.1054
19737DOD     C1 3030  15.401  30.205  14.486  0.0303 -0.0161 -0.0966
19737DOD     C2 3031  15.403  29.896  14.822 -0.0068 -0.0996 -0.4507
19737DOD     C3 3032  15.371  29.556  15.201  0.0473 -0.0248  0.5878
19738DOD     C1 3033   3.613  27.760   1.726 -0.0385  0.0732  0.2032
19738DOD     C2 3034   3.849  27.314   1.822  0.1170 -0.3232  0.4040
19738DOD     C3 3035   4.200  27.196   2.043 -0.0144 -0.0277 -0.1908
19739DOD     C1 3036   9.138   4.032  13.676 -0.0125  0.3596 -0.1343
19739DOD     C2 3037   8.831   3.822  13.872 -0.0578  0.3008  0.1593
19739DOD     C3 3038   8.517   3.730  14.200 -0.0688  0.1986 -0.0318
19740DOD     C1 3039   1.861  29.265  19.951 -0.0873  0.0529 -0.0073
19740DOD     C2 3040   1.796  29.639  19.610 -0.1336 -0.1007  0.1652
19740DOD     C3 3041   2.112  29.906  19.376  0.1355  0.0939  0.2079
19741DOD     C1 3042  24.113  27.522   5.075  0.0977  0.1783 -0.2678
19741DOD     C2 3043  23.756  27.213   5.149  0.2753 -0.1311 -0.0311
19741DOD     C3 3044  23.314  27.108   5.134 -0.2119 -0.2309 -0.0477
19742DOD     C1 3045   9.800  24.067  12.514  0.0413  0.1146  0.2002
19742DOD     C2 3046   9.699  23.890  12.111  0.1841  0.3374 -0.0593
19742DOD     C3 3047   9.540  23.529  11.836  0.1238  0.1683  0.2690
19743DOD     C1 3048  14.651   4.492  25.947  0.1312  0.0242 -0.0653
19743DOD     C2 3049  14.436   4.916  26.003 -0.1668  0.1106 -0.0107
19743DOD     C3 3050  14.150   5.306  26.123 -0.0835  0.0688 -0.0722
19744DOD     C1 3051   5.349  15.914   5.687 -0.1092  0.3000 -0.1876
19744DOD     C2 3052   5.438  16.075   6.133 -0.0777 -0.0776 -0.0322
19744DOD     C3 3053   5.277  16.158   6.586  0.0013 -0.1391  0.1729
19745DOD     C1 3054   5.148  15.053  28.210  0.1866 -0.0338  0.2622
19745DOD     C2 3055   5.432  14.686  28.105  0.1978 -0.0945 -0.1436
19745DOD     C3 3056   5.732  14.427  28.315  0.3059 -0.3111 -0.2961
19746DOD     C1 3057  27.046   9.138  23.660 -0.0497 -0.1242 -0.1714
19746DOD     C2 3058  26.623   9.202  23.535 -0.0477 -0.5006  0.1179
19746DOD     C3 3059  26.411   9.544  23.260 -0.1024 -0.1879 -0.0222
19747DOD     C1 3060  23.759  23.733  12.897  0.0534 -0.0104  0.1071
19747DOD     C2 3061  24.157  23.977  12.943  0.0060 -0.0499  0.2100
19747DOD     C3 3062  24.473  24.102  13.253  0.1071 -0.0158 -0.0304
19748DOD     C1 3063  26.370  24.401   1.126  0.0381  0.0487  0.1541
19748DOD     C2 3064  26.201  24.132   1.479 -0.4438 -0.1690  0.0073
19748DOD     C3 3065  26.388  23.923   1.878 -0.2439 -0.0793  0.1333
19749DOD     C1 3066  13.879   2.667  29.161  0.0455 -0.0026 -0.4376
19749DOD     C2 3067  14.313   2.759  29.305 -0.1609  0.1549 -0.0210
19749DOD     C3 3068  14.643   2.965  29.573 -0.0747 -0.1451 -0.0043
19750DOD     C1 3069   6.120  12.569   1.585  0.0139 -0.1419 -0.1137
19750DOD     C2 3070   6.321  12.856   1.263  0.0347 -0.1507 -0.1304
19750DOD     C3 3071   6.669  13.188   1.138 -0.3611  0.1482  0.1221
19751DOD     C1 3072  16.808  23.287  25.772  0.2558 -0.0420 -0.1474
19751DOD     C2 3073  16.979  23.769  25.697  0.0846  0.0430  0.1474
19751DOD     C3 3074  17.165  24.100  25.431 -0.0510 -0.2021  0.0392
19752DOD     C1 3075   8.686   0.367  20.934  0.1614 -0.1816 -0.2697
19752DOD     C2 3076   9.154   0.390  20.957  0.1504 -0.0809  0.0517
19752DOD     C3 3077   9.615   0.365  20.831 -0.3088  0.0038 -0.1200
19753DOD     C1 3078  14.272  17.631   2.740  0.1122  0.1489 -0.0224
19753DOD     C2 3079  14.282  17.848   2.321 -0.3027  0.1515 -0.0307
19753DOD     C3 3080  14.157  18.257   2.113 -0.1555  0.2018 -0.1755
19754DOD     C1 3081  29.548  12.572  16.518 -0.0123  0.2000  0.1964
19754DOD     C2 3082  29.419  12.918  16.230 -0.0876 -0.0394 -0.0063
19754DOD     C3 3083  29.372  13.275  15.928 -0.1437 -0.0482 -0.3792
19755DOD     C1 3084   1.790   5.039  17.473  0.0538 -0.4388  0.2788
19755DOD     C2 3085   1.962   5.048  17.906 -0.0874 -0.0849 -0.1080
19755DOD     C3 3086   1.928   5.106  18.362 -0.0858  0.0430  0.2132
19756DOD     C1 3087   0.603  19.308  10.858 -0.0372 -0.1122 -0.0106
19756DOD     C2 3088   0.806  19.632  11.076  0.3001 -0.0962  0.0812
19756DOD     C3 3089   1.144  19.995  11.126 -0.0152 -0.0070 -0.1083
19757DOD     C1 3090   9.792  20.736  10.646  0.0926 -0.3368 -0.0848
19757DOD     C2 3091  10.290  20.809  10.504 -0.0359 -0.0824  0.0989
19757DOD     C3 3092  10.563  20.990  10.218  0.0084  0.0002  0.1459
19758DOD     C1 3093  28.951  18.836   1.823  0.2089  0.0889 -0.0210
19758DOD     C2 3094  29.278  18.513   1.729  0.0725  0.0827  0.0470
19758DOD     C3 3095  29.706  18.429   1.868 -0.2227  0.3051  0.2252
19759DOD     C1 3096  26.819  15.045   1.142  0.1685 -0.2840 -0.0389
19759DOD     C2 3097  27.194  15.280   0.934 -0.1473 -0.2735 -0.1489
19759DOD     C3 3098  27.614  15.395   0.702 -0.1281 -0.3323 -0.1704
19760DOD     C1 3099  13.889   2.042  24.049  0.1464  0.2082  0.0816
19760DOD     C2 3100  13.950   1.636  23.841 -0.1580 -0.0165 -0.1845
19760DOD     C3 3101  13.862   1.161  24.039  0.3248  0.1262 -0.1504
19761DOD     C1 3102   1.594  16.393  16.664 -0.1772 -0.3234 -0.0539
19761DOD     C2 3103   1.824  16.366  17.044  0.0475 -0.2233  0.2429
19761DOD     C3 3104   1.873  15.997  17.359  0.2073 -0.0871  0.3461
19762DOD     C1 3105  28.399  17.812  23.798 -0.1201  0.0747 -0.1389
19762DOD     C2 3106  28.057  17.524  23.583 -0.2299  0.2189 -0.0359
19762DOD     C3 3107  27.840  17.175  23.746 -0.0010 -0.0625  0.0169
19763DOD     C1 3108  13.601  21.672  27.687  0.2166  0.1205  0.1573
19763DOD     C2 3109  13.096  21.649  27.837 -0.2174 -0.4086 -0.3002
19763DOD     C3 3110  12.951  21.444  28.232 -0.2581 -0.2444 -0.1057
19764DOD     C1 3111   9.371  17.326  16.142 -0.2094  0.0243 -0.1386
19764DOD     C2 3112   9.207  17.450  15.733 -0.2205  0.0263 -0.1837
19764DOD     C3 3113   9.347  17.369  15.299 -0.0037  0.4936 -0.1700
19765DOD     C1 3114   1.677  21.343  22.415  0.0196  0.2156  0.2038
19765DOD     C2 3115   1.957  21.093  22.569 -0.1488  0.0952 -0.1712
19765DOD     C3 3116   2.389  20.899  22.740 -0.0392 -0.2478  0.0078
19766DOD     C1 3117  20.004  26.960  12.075  0.2427  0.0849  0.0636
19766DOD     C2 3118  20.259  27.297  12.035 -0.1816  0.0962  0.0516
19766DOD     C3 3119  20.542  27.607  12.265 -0.0864 -0.0052 -0.1720
19767DOD     C1 3120  20.548  21.668  22.131 -0.0079  0.1530 -0.1917
19767DOD     C2 3121  20.510  21.243  22.274 -0.1276 -0.1426 -0.0441
19767DOD     C3 3122  20.508  20.872  22.536  0.0537 -0.0485  0.0624
19768DOD     C1 3123   8.113  12.299   5.507 -0.0375  0.3981  0.0093
19768DOD     C2 3124   8.398  12.674   5.540 -0.0231  0.2049 -0.0802
19768DOD     C3 3125   8.746  12.909   5.481  0.2033  0.2039  0.0499
19769DOD     C1 3126   2.874  24.162   9.836 -0.2269  0.1403  0.0510
19769DOD     C2 3127   3.125  24.220   9.437  0.0937 -0.1315  0.0474
19769DOD     C3 3128   3.428  24.366   9.108  0.0717 -0.0184  0.1195
19770DOD     C1 3129  10.271   2.444   5.573  0.2411  0.2487 -0.0197
19770DOD     C2 3130  10.208   2.629   5.967  0.0508  0.1401 -0.3292
19770DOD     C3 3131  10.431   2.587   6.385 -0.1749 -0.1949  0.1436
19771DOD     C1 3132   3.999  20.678   8.114 -0.0647  0.0495  0.3995
19771DOD     C2 3133   3.737  20.516   8.441 -0.2262  0.0708  0.1943
19771DOD     C3 3134   3.936  20.431   8.865 -0.0323 -0.3209 -0.0942
19772DOD     C1 3135  15.422   7.723  20.417  0.2308  0.0204 -0.1086
19772DOD     C2 3136  15.636   8.149  20.477 -0.0610  0.0690  0.0259
19772DOD     C3 3137  16.018   8.480  20.616  0.3249  0.0848 -0.0847
19773DOD     C1 3138   1.587  11.522  21.874  0.2188 -0.1200 -0.0408
19773DOD     C2 3139   1.880  11.272  22.066 -0.1119 -0.0426 -0.4426
19773DOD     C3 3140   2.104  11.161  22.433 -0.1146  0.1440 -0.0156
19774DOD     C1 3141  25.122  21.801  21.620  0.0619  0.1546  0.1204
19774DOD     C2 3142  25.438  21.500  21.556 -0.1576 -0.1440  0.1376
19774DOD     C3 3143  25.387  21.056  21.380 -0.3924 -0.0882  0.1375
19775DOD     C1 3144   0.195   1.672  16.321 -0.1103 -0.0394 -0.3860
19775DOD     C2 3145   0.675   1.562  16.166 -0.3227  0.1180 -0.0506
19775DOD     C3 3146   1.030   1.388  15.855 -0.2370  0.1522 -0.2079
19776DOD     C1 3147   9.110   2.099  18.368 -0.0492  0.1639  0.2164
19776DOD     C2 3148   9.026   1.981  18.831  0.3015  0.2721  0.0217
19776DOD     C3 3149   8.940   2.119  19.242  0.1994  0.0386 -0.0368
19777DOD     C1 3150   4.501  28.727   1.095  0.2326 -0.1874 -0.0370
19777DOD     C2 3151   4.346  28.658   0.664  0.1194  0.2441 -0.0516
19777DOD     C3 3152   4.051  28.436   0.345 -0.1361 -0.1147 -0.4322
19778DOD     C1 3153  27.495   4.832  11.877 -0.1020  0.1093  0.2053
19778DOD     C2 3154  27.655   5.165  11.563 -0.2636  0.2560  0.0757
19778DOD     C3 3155  27.909   5.322  11.227  0.3312  0.0812  0.1486
19779DOD     C1 3156  16.003  22.077  13.190  0.3771  0.0387  0.1917
19779DOD     C2 3157  16.281  22.243  12.859  0.1721 -0.0189 -0.1509
19779DOD     C3 3158  16.229  22.040  12.448  0.0146 -0.1256 -0.1006
19780DOD     C1 3159  11.397   8.526  13.749 -0.0766  0.1928  0.1077
19780DOD     C2 3160  11.658   8.329  13.454  0.0162  0.2498  0.0669
19780DOD     C3 3161  11.767   8.031  13.124 -0.0882 -0.0989  0.1307
19781DOD     C1 3162  30.089   1.898  25.499 -0.0256  0.0466 -0.1800
19781DOD     C2 3163  30.017   1.951  25.989  0.0027  0.0013 -0.1820
19781DOD     C3 3164  29.813   1.812  26.423  0.1843 -0.0233 -0.0054
19782DOD     C1 3165  26.406   4.896   1.378 -0.2200 -0.1992 -0.2300
19782DOD     C2 3166  26.531   4.772   0.958 -0.0066  0.0713 -0.2673
19782DOD     C3 3167  26.458   4.329   0.731 -0.1246  0.1037 -0.1740
19783DOD     C1 3168   0.911  24.520  22.137  0.2177  0.0559 -0.1707
19783DOD     C2 3169   0.604  24.181  22.082  0.1887 -0.2951 -0.0510
19783DOD     C3 3170   0.526  23.737  21.969 -0.2064  0.2444 -0.1527
19784DOD     C1 3171   7.519  20.177  13.318  0.1061 -0.2278  0.1610
19784DOD     C2 3172   7.331  20.299  13.792 -0.1993  0.0707  0.1528
19784DOD     C3 3173   7.452  20.294  14.232 -0.3584  0.1128 -0.2197
19785DOD     C1 3174  22.689  30.140  15.028 -0.3039  0.1212  0.3281
19785DOD     C2 3175  23.101  29.962  14.801 -0.0070  0.1820  0.3448
19785DOD     C3 3176  23.309  29.727  14.441  0.0845  0.2834 -0.1268
19786DOD     C1 3177   0.417  16.277  11.903 -0.0971  0.0232  0.1650
19786DOD     C2 3178   0.127  16.232  12.295  0.3493  0.1610 -0.0504
19786DOD     C3 3179  30.281  16.132  12.690 -0.0945  0.0874  0.0736
19787DOD     C1 3180  29.223   1.460   6.057 -0.2160 -0.1133  0.0903
19787DOD     C2 3181  29.217   1.333   5.618  0.0846 -0.0742  0.0788
19787DOD     C3 3182  29.364   1.066   5.294  0.0890  0.0026  0.2710
19788DOD     C1 3183  26.934  14.874   3.184  0.0304 -0.2259 -0.0289
19788DOD     C2 3184  26.552  14.543   3.233  0.0228  0.1358  0.3847
19788DOD     C3 3185  26.575  14.130   3.381  0.0088  0.0253 -0.0079
19789DOD     C1 3186   0.151  24.188  23.009  0.1601 -0.3234 -0.1812
19789DOD     C2 3187  30.212  23.794  23.122  0.0257 -0.0801  0.0069
19789DOD     C3 3188  29.794  23.626  23.102 -0.1215  0.2421  0.0785
19790DOD     C1 3189  25.672   6.022  10.430  0.0065  0.0827 -0.2093
19790DOD     C2 3190  25.793   5.536  10.433  0.4766 -0.1722  0.2494
19790DOD     C3 3191  25.912   5.095  10.472 -0.2044  0.1839 -0.2055
19791DOD     C1 3192  29.278   9.274   0.535  0.4084  0.0795  0.3309
19791DOD     C2 3193  29.607   9.074   0.258 -0.0749  0.2661  0.2073
19791DOD     C3 3194  30.087   8.977   0.208  0.2798  0.2221  0.1883
19792DOD     C1 3195  14.625  10.771  17.035 -0.0622  0.0427 -0.1141
19792DOD     C2 3196  15.067  10.842  17.175 -0.1887  0.1340  0.0848
19792DOD     C3 3197  15.305  11.033  17.465  0.0819  0.3072 -0.0096
19793DOD     C1 3198  30.321  17.128   2.540  0.2223  0.3562  0.0926
19793DOD     C2 3199  29.848  17.030   2.554 -0.1600 -0.2949  0.2483
19793DOD     C3 3200  29.483  17.330   2.574 -0.1233  0.0308 -0.0967
19794DOD     C1 3201  11.086   7.353  17.769  0.1777 -0.0322  0.2664
19794DOD     C2 3202  10.923   7.276  18.192  0.3316  0.2101  0.1727
19794DOD     C3 3203  10.769   7.052  18.544 -0.0588 -0.0292  0.1274
19795DOD     C1 3204   4.570  13.205  25.068 -0.0420  0.1460  0.0422
19795DOD     C2 3205   4.203  13.550  25.153 -0.0081 -0.0535 -0.1675
19795DOD     C3 3206   4.255  13.857  25.513 -0.0562 -0.1668 -0.1377
19796DOD     C1 3207  29.566  30.292   2.102  0.0117  0.1712  0.4067
19796DOD     C2 3208  29.586   0.113   1.648 -0.0783  0.6611 -0.2836
19796DOD     C3 3209  29.920   0.198   1.311 -0.1453 -0.1063 -0.2170
19797DOD     C1 3210   6.613   3.412   4.977 -0.0840 -0.2002  0.3284
19797DOD     C2 3211   6.843   3.653   4.642  0.2322  0.1255 -0.1965
19797DOD     C3 3212   6.938   4.102   4.727 -0.1606 -0.4782  0.0653
19798DOD     C1 3213   5.396   6.487  28.442 -0.3585 -0.0023 -0.0410
19798DOD     C2 3214   5.722   6.811  28.575 -0.0684 -0.1914 -0.1251
19798DOD     C3 3215   6.003   7.168  28.720 -0.0201 -0.1504 -0.3312
19799DOD     C1 3216  27.588  16.984  17.042 -0.0658  0.2491 -0.1885
19799DOD     C2 3217  27.903  17.236  17.243 -0.0301  0.1838  0.0478
19799DOD     C3 3218  27.806  17.572  17.550  0.2094 -0.2789 -0.0227
19800DOD     C1 3219  28.698   5.629   7.843  0.1755  0.0257  0.1331
19800DOD     C2 3220  28.727   5.605   8.295 -0.2060  0.0387  0.2351
19800DOD     C3 3221  28.872   5.649   8.723 -0.1359 -0.0115 -0.0456
19801DOD     C1 3222  27.109  24.103   2.718 -0.1988 -0.0128 -0.0403
19801DOD     C2 3223  27.491  24.205   2.490 -0.2635  0.1004  0.0808
19801DOD     C3 3224  27.845  24.317   2.241  0.3693  0.1769 -0.0837
19802DOD     C1 3225  14.633  14.819  26.369  0.1138  0.3104  0.0924
19802DOD     C2 3226  14.994  14.960  26.533  0.2696  0.4386 -0.5356
19802DOD     C3 3227  15.211  15.197  26.872 -0.0865 -0.2475  0.0208
19803DOD     C1 3228  19.737  17.036   4.734 -0.0265 -0.1670 -0.1920
19803DOD     C2 3229  19.637  17.383   5.037 -0.2499 -0.2361  0.0359
19803DOD     C3 3230  19.290  17.647   5.180 -0.0693 -0.1216  0.2415
19804DOD     C1 3231  15.079  19.135  19.928 -0.1503 -0.1798  0.1233
19804DOD     C2 3232  15.393  19.224  20.268 -0.1943  0.3976 -0.0267
19804DOD     C3 3233  15.518  19.345  20.657 -0.4556  0.0292 -0.5159
19805DOD     C1 3234   4.047  10.265  10.708  0.0589 -0.1403 -0.2028
19805DOD     C2 3235   4.454  10.237  10.458  0.2734  0.1676 -0.4003
19805DOD     C3 3236   4.782  10.248  10.139 -0.0382 -0.0430  0.1316
19806DOD     C1 3237   6.136  29.751   3.323 -0.1262 -0.0533 -0.1352
19806DOD     C2 3238   5.947  30.039   3.659 -0.1235 -0.0814 -0.1692
19806DOD     C3 3239   5.878   0.169   3.834  0.0372  0.0393  0.1277
19807DOD     C1 3240  11.103  19.146  28.211 -0.2129 -0.0339 -0.0137
19807DOD     C2 3241  11.343  19.291  28.554 -0.1578 -0.2262  0.0293
19807DOD     C3 3242  11.631  19.514  28.893 -0.1775  0.1962  0.0621
19808DOD     C1 3243   0.319  12.204  14.990  0.0112  0.0521  0.1248
19808DOD     C2 3244  30.200  12.131  15.171 -0.2235  0.4205 -0.0273
19808DOD     C3 3245  29.969  11.778  15.199 -0.0986 -0.2919  0.0080
19809DOD     C1 3246  18.030  21.727   7.791 -0.0312 -0.0932  0.0729
19809DOD     C2 3247  17.753  22.164   7.764  0.0642 -0.1246 -0.1617
19809DOD     C3 3248  17.526  22.384   7.509  0.2911 -0.1472  0.0047
19810DOD     C1 3249  20.371   8.917  24.689 -0.2677 -0.1116  0.0218
19810DOD     C2 3250  20.680   8.803  25.030 -0.1331 -0.1442 -0.0056
19810DOD     C3 3251  20.958   9.088  25.229  0.3300 -0.2430  0.2936
19811DOD     C1 3252  29.417  13.387  26.806  0.4850 -0.1541 -0.0393
19811DOD     C2 3253  29.494  13.151  26.435 -0.0232 -0.1954  0.1600
19811DOD     C3 3254  29.271  12.889  26.146  0.1360  0.2463  0.3052
19812DOD     C1 3255   8.239  18.791  27.877 -0.2235 -0.3160  0.3347
19812DOD     C2 3256   8.571  18.921  27.564 -0.0478  0.2260  0.0948
19812DOD     C3 3257   9.000  18.773  27.593 -0.3195 -0.0993 -0.0600
19813DOD     C1 3258  14.010  10.659  12.727 -0.0371  0.0737  0.0656
19813DOD     C2 3259  13.977  10.583  12.263  0.4410 -0.0380 -0.1603
19813DOD     C3 3260  14.105  10.165  12.101 -0.0818  0.0915 -0.0296
19814DOD     C1 3261  22.941  14.343   1.746  0.2185 -0.1855  0.0917
19814DOD     C2 3262  22.917  13.930   1.768  0.0430 -0.0783 -0.1851
19814DOD     C3 3263  22.562  13.628   1.813  0.1304 -0.0381  0.1052
19815DOD     C1 3264  18.921  22.966  11.829  0.1749  0.2033 -0.0827
19815DOD     C2 3265  18.547  22.967  12.137  0.3437 -0.1191  0.2948
19815DOD     C3 3266  18.076  22.958  12.169 -0.3036 -0.1132  0.1482
19816DOD     C1 3267  29.081   8.131  21.136  0.2678  0.4779  0.0386
19816DOD     C2 3268  28.785   7.764  21.220 -0.4326 -0.0404  0.0787
19816DOD     C3 3269  28.543   7.672  21.619 -0.1242  0.0723  0.1094
19817DOD     C1 3270   2.834   6.735   3.979  0.1157 -0.0877 -0.0781
19817DOD     C2 3271   3.027   6.869   4.364 -0.0982  0.2072 -0.1175
19817DOD     C3 3272   3.160   6.890   4.811 -0.0790  0.0451  0.1377
19818DOD     C1 3273  13.566  13.007   6.063 -0.0018  0.2973 -0.2514
19818DOD     C2 3274  13.393  13.058   5.626 -0.1006  0.1421 -0.0529
19818DOD     C3 3275  13.170  12.683   5.373 -0.0659  0.2261  0.0660
19819DOD     C1 3276  16.262  27.402   2.350  0.0485 -0.0408  0.0410
19819DOD     C2 3277  16.555  27.459   2.699 -0.0554 -0.2359 -0.1186
19819DOD     C3 3278  16.945  27.251   2.855  0.2584 -0.5463  0.2298
19820DOD     C1 3279  16.667  23.645  22.918  0.0349  0.1534  0.1938
19820DOD     C2 3280  16.748  24.049  23.203  0.2316  0.4723 -0.1744
19820DOD     C3 3281  16.801  24.508  23.095  0.0877 -0.0522  0.0458
19821DOD     C1 3282   1.243  29.805  29.861  0.0316 -0.3557 -0.0202
19821DOD     C2 3283   1.566  30.021  30.125 -0.1196  0.1735  0.0967
19821DOD     C3 3284   1.967  30.210  30.013  0.0964 -0.0730 -0.1261
19822DOD     C1 3285  26.539  15.879   4.463  0.1274 -0.2459 -0.0675
19822DOD     C2 3286  26.875  15.717   4.147  0.0256  0.0213 -0.0946
19822DOD     C3 3287  27.233  16.039   4.136 -0.0853 -0.3121 -0.1049
19823DOD     C1 3288  20.413  13.859  11.086 -0.0291  0.0124 -0.1054
19823DOD     C2 3289  20.465  13.580  10.766 -0.1178  0.2088  0.2464
19823DOD     C3 3290  20.200  13.234  10.612 -0.1310 -0.1645 -0.2096
19824DOD     C1 3291  11.636  25.537   4.287  0.1101 -0.1016  0.1184
19824DOD     C2 3292  11.314  25.818   4.446 -0.2893 -0.1161  0.2000
19824DOD     C3 3293  10.965  25.944   4.722 -0.2363  0.1862 -0.0993
19825DOD     C1 3294  13.224  11.597   6.230  0.1855 -0.1431  0.0457
19825DOD     C2 3295  13.378  11.547   5.772  0.1358 -0.0035 -0.0842
19825DOD     C3 3296  13.554  11.447   5.399 -0.0170  0.2273 -0.2653
19826DOD     C1 3297  17.419   7.016   5.415  0.1542  0.0112 -0.0257
19826DOD     C2 3298  16.991   7.117   5.338  0.0730 -0.2003 -0.1654
19826DOD     C3 3299  16.540   7.082   5.217  0.0216 -0.0198  0.1538
19827DOD     C1 3300  14.869   5.638  11.776  0.0646  0.0303 -0.3071
19827DOD     C2 3301  14.443   5.660  11.974  0.2450 -0.1759 -0.0419
19827DOD     C3 3302  13.995   5.475  12.030 -0.0122 -0.0739  0.1358
19828DOD     C1 3303  16.204   7.430  28.141 -0.0857  0.0533  0.1827
19828DOD     C2 3304  16.067   7.878  28.183 -0.2290  0.0901 -0.0150
19828DOD     C3 3305  16.385   8.246  28.255 -0.0260 -0.4096  0.2210
19829DOD     C1 3306  18.486   1.821  11.928 -0.1936 -0.0052 -0.0835
19829DOD     C2 3307  18.864   1.876  11.703 -0.0341  0.0618 -0.0663
19829DOD     C3 3308  19.308   1.783  11.853  0.2499  0.1537  0.2919
19830DOD     C1 3309  16.434  15.778  18.230  0.1042 -0.1869 -0.3184
19830DOD     C2 3310  16.245  15.588  18.641 -0.0292  0.0637  0.0101
19830DOD     C3 3311  15.938  15.668  18.960 -0.4218  0.1026 -0.1459
19831DOD     C1 3312   8.501  21.144  20.380 -0.0814 -0.0635 -0.2061
19831DOD     C2 3313   8.275  20.755  20.179 -0.1142  0.1030 -0.2386
19831DOD     C3 3314   7.935  20.465  20.199  0.2050  0.0766  0.1011
19832DOD     C1 3315  22.717   9.907  20.522  0.0453 -0.3483 -0.1389
19832DOD     C2 3316  23.172   9.990  20.639 -0.2331  0.0545  0.0965
19832DOD     C3 3317  23.487  10.284  20.827 -0.2485  0.0211 -0.0694
19833DOD     C1 3318   1.739  18.582  15.015 -0.0507  0.0529 -0.1152
19833DOD     C2 3319   1.772  18.061  14.978  0.0389 -0.0836  0.1038
19833DOD     C3 3320   1.681  17.706  15.236 -0.2656 -0.0353  0.3294
19834DOD     C1 3321   7.599  21.563   4.392  0.0433  0.2040 -0.0225
19834DOD     C2 3322   7.957  21.424   4.590  0.0693 -0.0142  0.2716
19834DOD     C3 3323   8.367  21.262   4.742  0.0265 -0.0707  0.0530
19835DOD     C1 3324   3.046   6.000  19.706  0.0739  0.0290  0.0070
19835DOD     C2 3325   2.961   5.548  19.582  0.0340 -0.1510  0.1665
19835DOD     C3 3326   2.560   5.345  19.524 -0.5191  0.1784  0.0871
19836DOD     C1 3327  28.816   1.014  11.233  0.0040 -0.4213 -0.3959
19836DOD     C2 3328  28.742   1.184  11.607  0.1557 -0.0854  0.0118
19836DOD     C3 3329  29.166   1.225  11.813 -0.0818 -0.0146 -0.1171
19837DOD     C1 3330  18.872  27.271   2.863 -0.1637 -0.1636  0.5106
19837DOD     C2 3331  18.794  27.728   2.736  0.0590  0.0975  0.1330
19837DOD     C3 3332  18.676  28.178   2.647  0.4415  0.2094  0.1765
19838DOD     C1 3333  29.722  12.752  25.646  0.1570 -0.0279 -0.4208
19838DOD     C2 3334  29.572  12.420  25.358  0.1628  0.2247  0.0670
19838DOD     C3 3335  29.721  11.958  25.438 -0.1673  0.2997 -0.2425
19839DOD     C1 3336  10.474   4.383  30.218  0.2269  0.4056  0.0689
19839DOD     C2 3337  10.104   4.363   0.218 -0.3715  0.2477 -0.2602
19839DOD     C3 3338   9.709   4.210   0.520 -0.3077 -0.0130 -0.2400
19840DOD     C1 3339  22.963   4.044  29.623  0.0126  0.2115 -0.2768
19840DOD     C2 3340  22.986   4.048  30.109 -0.1171 -0.2464  0.1600
19840DOD     C3 3341  22.966   4.049   0.293  0.1488  0.1627  0.1130
19841DOD     C1 3342  23.275  19.429  14.377 -0.0208 -0.0093 -0.0810
19841DOD     C2 3343  23.190  19.811  14.214 -0.3238  0.2124  0.1968
19841DOD     C3 3344  23.264  20.136  14.460  0.2470 -0.0644  0.1317
19842DOD     C1 3345  19.959   8.769  24.315  0.1810  0.0243  0.1453
19842DOD     C2 3346  20.119   8.403  24.543 -0.0406 -0.0643  0.2156
19842DOD     C3 3347  20.497   8.181  24.758 -0.2204  0.3474 -0.3018
19843DOD     C1 3348   4.371  22.668   2.130  0.2582 -0.0237  0.2174
19843DOD     C2 3349   4.455  22.303   2.473 -0.2384 -0.1546 -0.3207
19843DOD     C3 3350   4.752  22.327   2.828 -0.3387 -0.2317 -0.0351
19844DOD     C1 3351  27.103   3.404   8.677  0.1441  0.1657  0.0364
19844DOD     C2 3352  27.414   3.251   8.312  0.2395 -0.1986  0.0351
19844DOD     C3 3353  27.369   3.213   7.873 -0.3082 -0.0180  0.0485
19845DOD     C1 3354   5.213  19.266  14.565  0.3479  0.0261  0.0243
19845DOD     C2 3355   5.670  19.268  14.738 -0.0337  0.0027  0.1133
19845DOD     C3 3356   6.090  19.108  14.520 -0.1294 -0.2791 -0.1400
19846DOD     C1 3357  22.238   5.171   3.061 -0.3077  0.2624  0.0233
19846DOD     C2 3358  22.575   4.829   3.091  0.2026 -0.0118 -0.0307
19846DOD     C3 3359  22.970   4.730   2.834 -0.1082 -0.1133 -0.2069
19847DOD     C1 3360  20.086  25.177   6.220  0.0261 -0.0376  0.2545
19847DOD     C2 3361  19.598  25.248   6.186 -0.2258  0.0660 -0.1572
19847DOD     C3 3362  19.327  25.561   6.133  0.0168 -0.4738  0.2070
19848DOD     C1 3363  20.495   2.726   5.732  0.2413  0.1649  0.2720
19848DOD     C2 3364  20.692   3.069   5.581 -0.2117 -0.2719  0.0690
19848DOD     C3 3365  21.158   3.102   5.373  0.5517 -0.1487 -0.0803
19849DOD     C1 3366  14.876   0.685   2.795  0.1216  0.2654 -0.0992
19849DOD     C2 3367  14.681   0.233   2.729  0.0436 -0.2219  0.0406
19849DOD     C3 3368  14.417  30.149   2.639 -0.1565 -0.1810  0.1192
19850DOD     C1 3369  17.224   4.087  18.337  0.3903  0.0746 -0.2386
19850DOD     C2 3370  17.252   4.250  17.925 -0.1089  0.1824 -0.2670
19850DOD     C3 3371  16.835   4.268  17.593  0.0532  0.1940 -0.2043
19851DOD     C1 3372  15.707  26.227  18.930 -0.0811  0.0418 -0.0019
19851DOD     C2 3373  15.828  25.851  18.713  0.0018  0.0457 -0.3566
19851DOD     C3 3374  15.820  25.676  18.264  0.1837  0.1321 -0.1396
19852DOD     C1 3375  23.057   8.732  22.404 -0.1200 -0.1099  0.3792
19852DOD     C2 3376  23.394   8.787  22.710 -0.2561 -0.1759  0.0804
19852DOD     C3 3377  23.716   8.628  22.998 -0.1670 -0.0224 -0.0335
19853DOD     C1 3378   0.665   7.181  13.258 -0.2858 -0.0258  0.1499
19853DOD     C2 3379   0.419   6.881  13.612 -0.2110  0.0501  0.3318
19853DOD     C3 3380   0.117   6.715  13.919  0.1392 -0.0912  0.1341
19854DOD     C1 3381  25.841   5.088  13.773  0.1431 -0.1527 -0.0793
19854DOD     C2 3382  25.735   4.863  13.372  0.1747 -0.2342  0.0626
19854DOD     C3 3383  25.813   4.695  12.967 -0.0526 -0.1158  0.0037
19855DOD     C1 3384  11.460   7.799  15.104 -0.0715 -0.2148  0.0289
19855DOD     C2 3385  11.922   7.641  15.150  0.0482 -0.0345 -0.1391
19855DOD     C3 3386  12.319   7.436  15.026  0.0721 -0.3974 -0.1569
19856DOD     C1 3387  15.888  23.294   5.789  0.2211 -0.0574 -0.1846
19856DOD     C2 3388  16.157  23.560   5.737 -0.0240 -0.0196  0.1480
19856DOD     C3 3389  16.641  23.728   5.838 -0.2178  0.3142 -0.0298
19857DOD     C1 3390  24.988   9.171   9.063 -0.2442 -0.2594  0.1284
19857DOD     C2 3391  25.395   9.378   9.074 -0.0557  0.1837  0.0534
19857DOD     C3 3392  25.784   9.565   8.864 -0.2591  0.0910  0.4053
19858DOD     C1 3393   2.072  23.728   9.557 -0.1060 -0.3853 -0.2892
19858DOD     C2 3394   1.993  23.278   9.515  0.0284 -0.2560  0.1594
19858DOD     C3 3395   1.653  22.981   9.521 -0.0020 -0.0751 -0.1872
19859DOD     C1 3396   0.964  15.754  29.096 -0.0166 -0.1950  0.1724
19859DOD     C2 3397   0.576  16.015  29.317 -0.1365 -0.0476 -0.0077
19859DOD     C3 3398   0.518  16.246  29.672 -0.1407  0.1669 -0.2521
19860DOD     C1 3399  27.521   4.609  13.383 -0.0709 -0.1238  0.4490
19860DOD     C2 3400  27.649   5.011  13.584 -0.0168 -0.1690 -0.3116
19860DOD     C3 3401  27.717   5.475  13.474 -0.1708 -0.1705 -0.1379
19861DOD     C1 3402  23.429  13.044  29.455  0.2751 -0.0021  0.2897
19861DOD     C2 3403  23.456  12.900  29.005  0.1227 -0.1752 -0.1870
19861DOD     C3 3404  23.367  12.595  28.681  0.0805  0.2774 -0.1415
19862DOD     C1 3405  16.811   5.874   9.433 -0.0118 -0.2809 -0.2116
19862DOD     C2 3406  16.796   5.435   9.581 -0.3949 -0.1090  0.1322
19862DOD     C3 3407  17.069   5.047   9.650  0.0658  0.3454  0.2369
19863DOD     C1 3408  26.412  20.769  17.875  0.0795 -0.0666  0.1803
19863DOD     C2 3409  26.079  20.644  17.504 -0.1278 -0.0334  0.1569
19863DOD     C3 3410  26.219  20.409  17.072 -0.1387 -0.0171  0.1038
19864DOD     C1 3411   3.388   5.895  29.736 -0.0379 -0.1253 -0.0152
19864DOD     C2 3412   3.320   5.949  29.238 -0.2710 -0.1521 -0.0182
19864DOD     C3 3413   3.092   6.148  28.889  0.0144  0.1680 -0.0544
19865DOD     C1 3414   8.031   7.370   0.877 -0.3901  0.0108  0.2447
19865DOD     C2 3415   8.121   7.501   1.364 -0.0022  0.2084  0.2036
19865DOD     C3 3416   8.158   7.563   1.848 -0.1303 -0.3560 -0.0509
19866DOD     C1 3417   2.898  18.824  12.027 -0.0022 -0.3861 -0.1166
19866DOD     C2 3418   2.811  18.369  11.821  0.1504  0.0880 -0.2422
19866DOD     C3 3419   2.492  18.322  11.496  0.1847 -0.0351 -0.1307
19867DOD     C1 3420   7.118   4.363  16.261  0.0734  0.0930 -0.0801
19867DOD     C2 3421   6.957   3.914  16.217 -0.0001  0.2014 -0.1150
19867DOD     C3 3422   7.227   3.618  15.995 -0.1504  0.2491  0.2846
19868DOD     C1 3423  23.582  20.044  25.872 -0.1348  0.2874 -0.3789
19868DOD     C2 3424  23.700  19.901  26.321 -0.3157  0.1054 -0.1430
19868DOD     C3 3425  23.600  19.924  26.744  0.1987 -0.1408 -0.3316
19869DOD     C1 3426   1.802  30.322  10.263  0.1262  0.2473 -0.0596
19869DOD     C2 3427   1.531  30.025   9.952 -0.0346 -0.0710  0.1696
19869DOD     C3 3428   1.521  30.074   9.513  0.2415  0.1925  0.5341
19870DOD     C1 3429  11.485  29.893  29.105 -0.0800 -0.0340  0.2837
19870DOD     C2 3430  11.906  30.123  29.054 -0.0509 -0.0549  0.1437
19870DOD     C3 3431  12.304   0.057  29.196  0.1207  0.0282  0.1761
19871DOD     C1 3432  29.307  18.701  28.991  0.0019  0.0098  0.1261
19871DOD     C2 3433  28.952  19.003  29.125 -0.1243  0.0343  0.0137
19871DOD     C3 3434  28.989  19.349  29.386  0.1631  0.2806  0.0678
19872DOD     C1 3435  18.976  15.053  21.837 -0.0273  0.2835  0.1209
19872DOD     C2 3436  19.298  15.230  22.118  0.1702  0.3319  0.0208
19872DOD     C3 3437  19.611  15.552  22.235 -0.0275 -0.0352 -0.0004
19873DOD     C1 3438   0.837  14.673   4.841  0.1681  0.2430 -0.0023
19873DOD     C2 3439   0.894  14.468   5.258 -0.0653 -0.3393  0.1781
19873DOD     C3 3440   0.828  14.161   5.615 -0.1038 -0.0555 -0.1224
19874DOD     C1 3441  11.853  15.883  18.287  0.0951  0.0588  0.0921
19874DOD     C2 3442  11.717  15.460  18.441  0.1124  0.0110  0.0670
19874DOD     C3 3443  11.753  14.980  18.622 -0.2425  0.1934 -0.0043
19875DOD     C1 3444  20.025  24.873  10.759  0.1350 -0.1283 -0.2382
19875DOD     C2 3445  19.711  24.641  11.054 -0.2537  0.0258  0.0084
19875DOD     C3 3446  19.662  24.578  11.548 -0.0145 -0.0114  0.4553
19876DOD     C1 3447  13.188   5.034  28.951 -0.0659  0.2275  0.1247
19876DOD     C2 3448  13.323   5.378  29.296 -0.1552  0.0403 -0.0638
19876DOD     C3 3449  13.710   5.639  29.385  0.2628 -0.1241 -0.2142
19877DOD     C1 3450  20.877  18.215  25.699 -0.1080  0.0489 -0.0050
19877DOD     C2 3451  21.336  18.342  25.733  0.0201 -0.1519  0.3268
19877DOD     C3 3452  21.618  18.225  26.042 -0.0246 -0.0036  0.0605
19878DOD     C1 3453  29.477  20.719  27.344 -0.3151  0.4084  0.1300
19878DOD     C2 3454  29.637  20.432  27.037  0.1185 -0.3089  0.0517
19878DOD     C3 3455  29.917  20.226  26.813  0.0326  0.2329 -0.1540
19879DOD     C1 3456   5.722  26.381  20.299 -0.2614 -0.0391  0.0411
19879DOD     C2 3457   6.174  26.076  20.224  0.2249 -0.0442 -0.0829
19879DOD     C3 3458   6.271  25.665  20.052 -0.3546 -0.0764 -0.2261
19880DOD     C1 3459  28.457   0.143  29.145 -0.0617  0.2262  0.1149
19880DOD     C2 3460  28.311   0.123  29.571 -0.1262 -0.2799  0.2982
19880DOD     C3 3461  28.164  30.096  29.828  0.1189  0.3188 -0.1292
19881DOD     C1 3462  15.989  26.252  24.320  0.2497  0.0342  0.1533
19881DOD     C2 3463  16.415  26.287  24.188  0.1304 -0.0372 -0.1054
19881DOD     C3 3464  16.577  26.574  23.831  0.0231  0.4659 -0.0551
19882DOD     C1 3465  16.620  14.146  28.588  0.1896 -0.0066 -0.0078
19882DOD     C2 3466  16.518  14.438  28.311  0.0202  0.3842 -0.1385
19882DOD     C3 3467  16.641  14.830  28.149  0.3082 -0.3198 -0.1710
19883DOD     C1 3468   1.506  12.325   6.219 -0.1770  0.0461  0.0086
19883DOD     C2 3469   1.921  12.178   6.160 -0.1145 -0.0901 -0.0338
19883DOD     C3 3470   2.329  11.983   6.099  0.1143 -0.0325  0.0710
19884DOD     C1 3471  21.298  14.094  13.858  0.1033  0.0091  0.3532
19884DOD     C2 3472  20.868  13.946  13.878  0.2133 -0.1428  0.1917
19884DOD     C3 3473  20.619  13.546  13.868  0.5333  0.0982 -0.1229
19885DOD     C1 3474  26.821   2.875  22.681 -0.1008  0.0520 -0.0686
19885DOD     C2 3475  26.577   3.273  22.776 -0.1004  0.3749  0.2173
19885DOD     C3 3476  26.481   3.757  22.939  0.1998 -0.0790 -0.3093
19886DOD     C1 3477   8.473  22.553   1.072  0.0428 -0.1815 -0.1328
19886DOD     C2 3478   8.205  22.884   0.856 -0.6749  0.0627  0.3258
19886DOD     C3 3479   7.949  23.311   0.874  0.1150  0.1258  0.0767
19887DOD     C1 3480  20.582   0.764   7.058 -0.1358  0.1421  0.2335
19887DOD     C2 3481  20.696   1.263   7.095  0.2282  0.2085 -0.2640
19887DOD     C3 3482  20.616   1.554   6.718  0.0334  0.0070 -0.1998
19888DOD     C1 3483  18.515   6.834  22.722  0.0668  0.1580  0.1470
19888DOD     C2 3484  18.077   6.939  22.757 -0.0422  0.0681 -0.0479
19888DOD     C3 3485  17.754   7.108  22.522 -0.1762  0.1318  0.1074
19889DOD     C1 3486  21.587   2.806  15.126  0.1662 -0.0788  0.0186
19889DOD     C2 3487  21.911   2.532  14.886  0.2297 -0.0364  0.4030
19889DOD     C3 3488  21.957   2.415  14.405 -0.0917 -0.3780  0.1038
19890DOD     C1 3489  26.479  26.389  13.020  0.0327  0.2074 -0.2657
19890DOD     C2 3490  26.815  26.117  12.773  0.0999 -0.1112 -0.1893
19890DOD     C3 3491  26.862  25.821  12.384  0.0533 -0.1198 -0.0233
19891DOD     C1 3492   7.258   4.855  23.591 -0.2288 -0.2058  0.1309
19891DOD     C2 3493   7.510   4.974  23.204  0.2606 -0.0094  0.3702
19891DOD     C3 3494   7.830   4.955  22.889  0.0100 -0.4873  0.1061
19892DOD     C1 3495  12.857   7.913  14.528  0.1857  0.2360 -0.0617
19892DOD     C2 3496  13.131   7.926  14.146  0.3160 -0.2017  0.2781
19892DOD     C3 3497  13.463   8.080  13.932  0.3930 -0.2833  0.1175
19893DOD     C1 3498  23.739  28.851   9.034  0.1641 -0.0326  0.0083
19893DOD     C2 3499  23.674  28.437   9.270 -0.0400  0.2280 -0.0427
19893DOD     C3 3500  23.523  28.370   9.725  0.1519  0.0624  0.0871
19894DOD     C1 3501  11.020  28.418  11.291 -0.2390  0.1877 -0.1145
19894DOD     C2 3502  10.809  28.576  11.680 -0.1887  0.1952 -0.3213
19894DOD     C3 3503  10.512  28.877  11.863  0.1901 -0.3136  0.1612
19895DOD     C1 3504  18.158   0.076  26.678 -0.1216  0.0966  0.1462
19895DOD     C2 3505  18.330  30.148  26.353 -0.4112 -0.0055 -0.0546
19895DOD     C3 3506  18.362  30.228  25.891 -0.1661  0.2537  0.1497
19896DOD     C1 3507  17.235  18.485  23.393 -0.1390 -0.2555  0.0437
19896DOD     C2 3508  16.781  18.502  23.382  0.0885 -0.0369 -0.2151
19896DOD     C3 3509  16.440  18.585  23.050 -0.3043 -0.0639 -0.0948
19897DOD     C1 3510  10.763  28.020  19.016 -0.1283  0.2712  0.1841
19897DOD     C2 3511  10.544  28.308  18.747  0.2077  0.2138 -0.1036
19897DOD     C3 3512  10.587  28.732  18.593 -0.0027  0.1216  0.0386
19898DOD     C1 3513  17.213  14.610   3.984  0.1133  0.2500  0.2008
19898DOD     C2 3514  17.070  15.060   3.998  0.1158  0.0643 -0.4396
19898DOD     C3 3515  17.166  15.522   3.941 -0.1613 -0.0956 -0.1964
19899DOD     C1 3516   9.580   5.987   8.773 -0.1286 -0.2451 -0.1805
19899DOD     C2 3517   9.823   6.375   8.760 -0.2677 -0.0984  0.4110
19899DOD     C3 3518  10.088   6.809   8.597 -0.2216 -0.0036  0.2792
19900DOD     C1 3519  26.006  29.546   7.928 -0.1970 -0.1374 -0.0191
19900DOD     C2 3520  25.958  29.406   7.469  0.1655 -0.0167  0.0798
19900DOD     C3 3521  25.752  29.034   7.290  0.2080  0.4525  0.0221
19901DOD     C1 3522   6.102   8.848   9.120 -0.2332  0.0239 -0.0914
19901DOD     C2 3523   6.240   8.605   8.714  0.4154  0.1019  0.1852
19901DOD     C3 3524   6.553   8.347   8.420  0.1404  0.1322  0.1633
19902DOD     C1 3525  11.657  19.486  21.168 -0.2417  0.1355 -0.0783
19902DOD     C2 3526  12.168  19.463  21.089  0.0009  0.2418 -0.0128
19902DOD     C3 3527  12.604  19.433  21.176  0.1547 -0.0473 -0.0650
19903DOD     C1 3528  13.190  26.822   7.028  0.0484  0.3124  0.0818
19903DOD     C2 3529  12.830  26.680   7.302  0.0416  0.1628 -0.1987
19903DOD     C3 3530  12.486  26.378   7.171  0.2422  0.0681  0.0793
19904DOD     C1 3531   0.835  15.205  17.431  0.0181  0.0802  0.1645
19904DOD     C2 3532   0.851  15.325  16.951  0.0209  0.0138 -0.0457
19904DOD     C3 3533   0.840  15.584  16.549 -0.0060  0.0524 -0.0937
19905DOD     C1 3534  16.322  19.173  10.935 -0.0291 -0.1009 -0.1580
19905DOD     C2 3535  16.168  19.467  11.330 -0.0181  0.2233  0.1018
19905DOD     C3 3536  15.708  19.548  11.516 -0.2470 -0.1688 -0.3241
19906DOD     C1 3537  21.950  27.778  22.364  0.1369  0.1173  0.0812
19906DOD     C2 3538  21.631  27.491  22.154 -0.2288  0.3665 -0.1083
19906DOD     C3 3539  21.698  27.131  21.902 -0.1493 -0.0688  0.1228
19907DOD     C1 3540  22.280  23.796  23.242  0.0619 -0.0122 -0.1284
19907DOD     C2 3541  22.802  23.856  23.253  0.0183 -0.2261  0.0643
19907DOD     C3 3542  23.187  23.884  23.453  0.1010 -0.0056 -0.0001
19908DOD     C1 3543   5.311  12.515   6.177 -0.1764 -0.0686 -0.0224
19908DOD     C2 3544   5.237  12.465   6.644  0.3489 -0.0438  0.0277
19908DOD     C3 3545   5.528  12.717   6.894 -0.0354 -0.2308 -0.1884
19909DOD     C1 3546  21.995  14.951  11.685 -0.1188 -0.1172  0.0750
19909DOD     C2 3547  21.611  14.650  11.689  0.1966  0.0262  0.0885
19909DOD     C3 3548  21.270  14.285  11.696  0.2077 -0.0340 -0.0247
19910DOD     C1 3549  27.686   4.171   3.944 -0.2145  0.3167  0.2471
19910DOD     C2 3550  27.696   4.451   4.280  0.0160  0.1148 -0.2091
19910DOD     C3 3551  27.875   4.822   4.444 -0.3887 -0.0292  0.0697
19911DOD     C1 3552   0.712   5.197  18.518 -0.1362  0.0911  0.1572
19911DOD     C2 3553   0.319   5.310  18.316 -0.0855  0.2747 -0.1046
19911DOD     C3 3554   0.065   5.439  17.903 -0.2283 -0.1731  0.0297
19912DOD     C1 3555  19.663  22.102  27.995 -0.0617  0.0797  0.1885
19912DOD     C2 3556  19.397  22.026  28.356 -0.2243  0.1073  0.0612
19912DOD     C3 3557  19.149  21.911  28.730  0.1751  0.0682 -0.0878
19913DOD     C1 3558  25.078   1.477   7.874 -0.1483  0.0348  0.1113
19913DOD     C2 3559  24.750   1.486   7.512  0.0409 -0.1411  0.0793
19913DOD     C3 3560  24.438   1.586   7.183 -0.1748 -0.0221 -0.3019
19914DOD     C1 3561  27.272  14.432  13.672  0.3182 -0.0800 -0.3373
19914DOD     C2 3562  26.854  14.446  13.473 -0.2403 -0.1367 -0.2307
19914DOD     C3 3563  26.436  14.590  13.215  0.3614 -0.1370  0.0352
19915DOD     C1 3564  19.056  24.932  16.970  0.3478  0.3340  0.0438
19915DOD     C2 3565  19.540  24.948  16.888  0.2335 -0.1325  0.1433
19915DOD     C3 3566  19.716  25.377  17.002 -0.0713  0.1013  0.4621
19916DOD     C1 3567   4.414   7.492   0.847 -0.3429  0.4737  0.0618
19916DOD     C2 3568   4.438   7.460   0.372  0.1452  0.0829  0.3517
19916DOD     C3 3569   4.625   7.297   0.023 -0.1341 -0.2248 -0.0686
19917DOD     C1 3570  27.622   3.988  29.335  0.0659  0.2839  0.2416
19917DOD     C2 3571  28.009   3.711  29.168 -0.2755 -0.1312  0.0347
19917DOD     C3 3572  28.481   3.617  29.186  0.0317 -0.1417  0.0632
19918DOD     C1 3573  22.666  14.225  16.068 -0.1631 -0.0869 -0.1305
19918DOD     C2 3574  23.056  14.416  15.920  0.1668  0.3475  0.0393
19918DOD     C3 3575  23.228  14.510  15.506  0.2308 -0.0900 -0.0345
19919DOD     C1 3576   2.671  25.272  29.112  0.1280 -0.1983 -0.0427
19919DOD     C2 3577   2.881  25.400  29.442 -0.1748  0.0294  0.0374
19919DOD     C3 3578   2.760  25.301  29.882 -0.1627  0.2937 -0.0100
19920DOD     C1 3579  21.399  15.556  24.585  0.1386  0.1003 -0.0032
19920DOD     C2 3580  21.240  15.776  24.241  0.2073 -0.1218 -0.0060
19920DOD     C3 3581  21.214  16.170  24.010  0.0904 -0.0065 -0.1528
19921DOD     C1 3582  23.954  25.479  28.072  0.0054 -0.2996  0.0182
19921DOD     C2 3583  23.501  25.562  28.092  0.3804  0.0255  0.0890
19921DOD     C3 3584  23.227  25.628  28.441 -0.1106 -0.0825  0.1663
19922DOD     C1 3585  28.314  15.502   3.314  0.2698  0.0437  0.0740
19922DOD     C2 3586  28.329  15.001   3.265  0.1097 -0.2186  0.0834
19922DOD     C3 3587  28.544  14.615   3.283  0.1907 -0.1945 -0.2985
19923DOD     C1 3588  30.164  25.352  21.170  0.0213 -0.2136  0.0055
19923DOD     C2 3589  30.136  25.041  20.750  0.0375  0.1485 -0.5032
19923DOD     C3 3590  29.972  24.974  20.287 -0.0564 -0.0563  0.2819
19924DOD     C1 3591  27.549  11.180  27.160 -0.1016  0.2049  0.0654
19924DOD     C2 3592  27.354  11.065  26.747  0.1506  0.1965 -0.2780
19924DOD     C3 3593  26.988  10.955  26.456  0.1517  0.1638  0.2627
19925DOD     C1 3594  14.347  21.775   5.133  0.0224  0.0106  0.0147
19925DOD     C2 3595  14.721  21.910   4.898 -0.4090 -0.0202  0.1146
19925DOD     C3 3596  15.039  22.190   5.026 -0.0687 -0.1247 -0.1750
19926DOD     C1 3597   0.489   2.015  29.063 -0.5519  0.2356 -0.4163
19926DOD     C2 3598   0.547   2.410  28.825 -0.0700  0.1842  0.0612
19926DOD     C3 3599   0.885   2.768  28.916  0.2863  0.0310 -0.0934
19927DOD     C1 3600  17.657  10.872  22.224  0.1352 -0.0430  0.3299
19927DOD     C2 3601  17.417  10.536  22.064 -0.1314  0.3132 -0.1508
19927DOD     C3 3602  17.034  10.256  21.808 -0.2103 -0.1579  0.1535
19928DOD     C1 3603  16.813  22.739   2.727 -0.0663  0.1141  0.0099
19928DOD     C2 3604  16.627  22.469   3.099 -0.0253 -0.0978  0.0923
19928DOD     C3 3605  16.786  22.146   3.409 -0.0046  0.0193 -0.0567
19929DOD     C1 3606  12.110  19.059   8.851  0.1444 -0.1103  0.0931
19929DOD     C2 3607  12.255  18.649   8.875  0.1277  0.0882 -0.2775
19929DOD     C3 3608  12.562  18.313   8.877  0.2618 -0.1277 -0.0930
19930DOD     C1 3609  12.060  12.115  10.587  0.0503 -0.0552 -0.1600
19930DOD     C2 3610  12.119  12.026  10.159 -0.2439 -0.1034 -0.0509
19930DOD     C3 3611  12.302  12.261   9.806  0.1539 -0.3514  0.0146
19931DOD     C1 3612   1.162   0.120  19.483  0.3225 -0.0642  0.1591
19931DOD     C2 3613   1.112  30.224  19.078 -0.1316  0.0558  0.0841
19931DOD     C3 3614   0.894   0.007  18.632 -0.0936 -0.0787  0.2036
19932DOD     C1 3615   4.297  29.310  14.411  0.0397  0.2171 -0.2068
19932DOD     C2 3616   4.298  28.939  14.102 -0.0370  0.1084 -0.1771
19932DOD     C3 3617   4.134  28.668  13.768  0.1856 -0.2412  0.2344
19933DOD     C1 3618  17.747  26.055  21.951  0.0304 -0.0320  0.0390
19933DOD     C2 3619  17.286  25.847  21.881  0.2003 -0.2619 -0.0695
19933DOD     C3 3620  16.963  25.483  22.005 -0.2795 -0.0767  0.4300
19934DOD     C1 3621  21.117   1.633  17.302  0.2604  0.1928 -0.0670
19934DOD     C2 3622  20.813   1.960  17.106  0.1269 -0.3151  0.1165
19934DOD     C3 3623  20.610   2.397  17.115  0.0876 -0.0338  0.1756
19935DOD     C1 3624   8.557  20.946   2.451  0.0639  0.0846 -0.0126
19935DOD     C2 3625   8.563  20.606   2.181 -0.2709  0.0036  0.5897
19935DOD     C3 3626   8.646  20.429   1.703  0.0192  0.2700 -0.1138
19936DOD     C1 3627   2.725  14.302   0.386  0.3340  0.4691  0.3013
19936DOD     C2 3628   2.787  14.579   0.775  0.1739 -0.1806 -0.0460
19936DOD     C3 3629   2.747  14.506   1.214 -0.1402 -0.2416 -0.2530
19937DOD     C1 3630  26.248  28.223  29.112 -0.2449  0.1263 -0.2545
19937DOD     C2 3631  26.697  28.258  28.981 -0.0135  0.0036 -0.0976
19937DOD     C3 3632  26.924  28.621  28.801 -0.0826 -0.0618 -0.3486
19938DOD     C1 3633  29.974  15.411  17.680  0.1621  0.0690  0.1479
19938DOD     C2 3634  29.758  15.234  17.298 -0.1204  0.0509  0.0681
19938DOD     C3 3635  29.516  14.798  17.316 -0.1954 -0.1999 -0.2730
19939DOD     C1 3636  29.122   0.361  10.506  0.1024 -0.3018 -0.3544
19939DOD     C2 3637  28.699   0.117  10.384  0.0593 -0.1591  0.0507
19939DOD     C3 3638  28.542  29.996  10.455 -0.1100  0.2731 -0.0556
19940DOD     C1 3639  16.508   0.788  12.404 -0.1849 -0.0627  0.1548
19940DOD     C2 3640  16.228   0.982  12.695 -0.0726  0.2654  0.0833
19940DOD     C3 3641  15.819   1.051  12.902  0.0287 -0.0016  0.0938
19941DOD     C1 3642  21.090  20.788   6.190 -0.1800 -0.3058  0.0963
19941DOD     C2 3643  21.079  21.252   6.076  0.0760 -0.0548 -0.1444
19941DOD     C3 3644  21.169  21.695   6.166 -0.0680 -0.0473  0.0327
19942DOD     C1 3645  16.477   5.281  11.020  0.0100 -0.1184 -0.0472
19942DOD     C2 3646  16.771   5.563  11.224  0.0886  0.1659 -0.1737
19942DOD     C3 3647  16.879   5.993  11.342  0.1642 -0.3801 -0.0566
19943DOD     C1 3648  25.922  15.069  26.114  0.2783 -0.0130  0.1730
19943DOD     C2 3649  25.938  15.090  26.583  0.1674  0.2379 -0.1376
19943DOD     C3 3650  25.620  14.813  26.854 -0.3037 -0.2962 -0.1866
19944DOD     C1 3651  11.055   9.372  29.204 -0.2059  0.0579  0.2131
19944DOD     C2 3652  10.893   9.739  29.051 -0.2230  0.2911  0.1985
19944DOD     C3 3653  10.564  10.014  28.794  0.1286 -0.5805  0.1690
19945DOD     C1 3654   0.774  19.851  17.807  0.1410  0.2392 -0.0143
19945DOD     C2 3655   1.051  19.644  18.164 -0.0119 -0.0499 -0.0762
19945DOD     C3 3656   1.333  19.262  18.196 -0.4253  0.0219 -0.0223
19946DOD     C1 3657  18.213  14.612  21.524 -0.1214 -0.0971  0.2175
19946DOD     C2 3658  18.298  14.838  21.936 -0.2465 -0.3441  0.2000
19946DOD     C3 3659  18.099  14.960  22.270 -0.1123 -0.3045  0.1215
19947DOD     C1 3660   8.328  29.037   9.509  0.2331  0.0969 -0.3444
19947DOD     C2 3661   8.732  29.283   9.553 -0.0133 -0.4341  0.2701
19947DOD     C3 3662   8.827  29.724   9.718  0.2643 -0.2076  0.0279
19948DOD     C1 3663  27.406  17.335  26.431  0.1087  0.0703  0.2659
19948DOD     C2 3664  27.225  17.680  26.216  0.0293 -0.2352 -0.1605
19948DOD     C3 3665  27.037  17.987  25.895  0.0957 -0.0225 -0.3756
19949DOD     C1 3666  30.275  25.615   4.602 -0.0722 -0.0514 -0.1566
19949DOD     C2 3667   0.246  25.223   4.683 -0.3970  0.3032  0.0637
19949DOD     C3 3668   0.665  25.068   4.551 -0.2595 -0.0468 -0.0023
19950DOD     C1 3669   0.807  12.987  17.170 -0.2942 -0.0733 -0.1052
19950DOD     C2 3670   0.414  12.710  17.080  0.1323 -0.1761 -0.0081
19950DOD     C3 3671   0.086  12.430  16.945 -0.2566  0.0552 -0.1302
19951DOD     C1 3672  27.286   7.110   5.854 -0.0698  0.1819  0.0681
19951DOD     C2 3673  27.627   6.908   6.063  0.0784 -0.3049 -0.1358
19951DOD     C3 3674  27.918   7.181   6.400 -0.0327  0.0121 -0.0866
19952DOD     C1 3675   8.450  24.297  16.919  0.0049 -0.1283 -0.0182
19952DOD     C2 3676   8.360  24.226  16.471 -0.3451 -0.2682 -0.2218
19952DOD     C3 3677   8.399  23.793  16.250 -0.0657  0.1865 -0.0122
19953DOD     C1 3678   0.280  25.466  15.491  0.5180 -0.4739 -0.0150
19953DOD     C2 3679   0.255  25.418  15.081  0.2608 -0.0528  0.2111
19953DOD     C3 3680   0.095  25.468  14.692 -0.0443  0.0889 -0.2088
19954DOD     C1 3681  18.247  29.446  15.607 -0.0176  0.4000 -0.1314
19954DOD     C2 3682  18.248  29.501  16.072  0.4436 -0.0876  0.3221
19954DOD     C3 3683  18.394  29.441  16.521 -0.1360  0.1365 -0.0719
19955DOD     C1 3684  23.991   8.462  28.174 -0.0252 -0.1906  0.1791
19955DOD     C2 3685  23.706   8.746  28.358  0.0038 -0.0520  0.1816
19955DOD     C3 3686  23.351   8.772  28.669  0.1318  0.0943 -0.0471
19956DOD     C1 3687   4.843   8.181   4.548 -0.0613 -0.2115  0.0884
19956DOD     C2 3688   4.428   7.970   4.550 -0.5631  0.2410 -0.1230
19956DOD     C3 3689   4.185   7.630   4.783  0.0633  0.0928 -0.2990
19957DOD     C1 3690   2.201   1.482  28.466 -0.2743 -0.1299  0.2392
19957DOD     C2 3691   1.897   1.157  28.304 -0.3201 -0.3471 -0.1766
19957DOD     C3 3692   1.551   1.080  27.977  0.1086  0.1131  0.1242
19958DOD     C1 3693   4.508  15.132  16.687  0.0242  0.0415 -0.2435
19958DOD     C2 3694   4.267  15.478  16.858  0.0840  0.1352  0.0102
19958DOD     C3 3695   4.253  15.920  16.956 -0.1515 -0.2523 -0.2273
19959DOD     C1 3696   3.545  14.890  19.695  0.3125 -0.0774  0.1857
19959DOD     C2 3697   3.759  14.520  19.575 -0.0062 -0.1376 -0.1604
19959DOD     C3 3698   3.885  14.402  19.138  0.2324  0.0800  0.0310
19960DOD     C1 3699   0.004  18.464   9.647  0.0335 -0.1144 -0.1558
19960DOD     C2 3700  30.202  18.457  10.110  0.3558  0.3254 -0.0479
19960DOD     C3 3701  30.356  18.650  10.564  0.0778  0.0075  0.1825
19961DOD     C1 3702  16.202  29.238   4.508  0.0517 -0.0881 -0.0489
19961DOD     C2 3703  16.658  29.204   4.269 -0.2295 -0.2504  0.0600
19961DOD     C3 3704  17.010  29.449   4.026  0.0762  0.3670 -0.0061
19962DOD     C1 3705  20.535  16.805  29.975  0.0788 -0.3221 -0.1495
19962DOD     C2 3706  20.400  17.169  30.197 -0.0940 -0.2613 -0.0887
19962DOD     C3 3707  20.599  17.495   0.155 -0.0521 -0.1798  0.0516
19963DOD     C1 3708  17.324  20.287   3.623 -0.0904 -0.4380 -0.4831
19963DOD     C2 3709  17.220  20.415   4.044 -0.0101 -0.2986 -0.1508
19963DOD     C3 3710  17.145  20.636   4.501  0.2053  0.2372 -0.2778
19964DOD     C1 3711   3.027  26.837  28.955  0.1375 -0.1286  0.0321
19964DOD     C2 3712   2.985  26.757  29.436 -0.2270 -0.2433  0.0106
19964DOD     C3 3713   2.667  26.788  29.750 -0.1548 -0.1945 -0.0799
19965DOD     C1 3714  12.252  16.408  27.106 -0.1565 -0.1209  0.0884
19965DOD     C2 3715  11.766  16.523  27.046  0.1873 -0.0351  0.0019
19965DOD     C3 3716  11.353  16.545  26.904 -0.0282 -0.1076  0.0647
19966DOD     C1 3717   2.842   1.788   2.512 -0.1180 -0.2957  0.1572
19966DOD     C2 3718   3.280   1.856   2.580 -0.2326 -0.0351  0.1568
19966DOD     C3 3719   3.742   1.835   2.564  0.1864  0.3110 -0.3125
19967DOD     C1 3720   0.992   6.448   7.895 -0.3086 -0.1971  0.0408
19967DOD     C2 3721   0.545   6.330   8.099 -0.1363  0.0327 -0.0421
19967DOD     C3 3722   0.098   6.237   8.173 -0.1299 -0.3612  0.1745
19968DOD     C1 3723  11.578  21.341  29.472  0.0199 -0.0255  0.1828
19968DOD     C2 3724  11.502  21.225  29.934  0.0120  0.2352  0.2167
19968DOD     C3 3725  11.392  21.069  -0.017 -0.0142 -0.1046 -0.1245
19969DOD     C1 3726  23.914   5.650   8.762  0.0073 -0.3650 -0.0660
19969DOD     C2 3727  23.438   5.502   8.829 -0.0440 -0.2873 -0.1946
19969DOD     C3 3728  23.086   5.694   9.163 -0.0689 -0.0941  0.1009
19970DOD     C1 3729   8.124  16.513  14.565  0.0470  0.0138  0.2038
19970DOD     C2 3730   7.974  16.360  14.163 -0.0905 -0.1524 -0.2035
19970DOD     C3 3731   7.602  16.533  13.895 -0.1724  0.0421 -0.1854
19971DOD     C1 3732   5.425  25.760  15.668  0.1106 -0.0591 -0.1458
19971DOD     C2 3733   5.654  26.133  15.832 -0.3109 -0.0106 -0.0019
19971DOD     C3 3734   6.104  26.058  15.955  0.1051  0.0105  0.1672
19972DOD     C1 3735   3.099  17.576  12.832  0.2166  0.0084 -0.1872
19972DOD     C2 3736   3.375  17.317  13.127 -0.1024  0.2164  0.4060
19972DOD     C3 3737   3.857  17.131  13.225  0.2930 -0.0732 -0.0314
19973DOD     C1 3738  25.212  17.628   8.604  0.2272  0.1357  0.0656
19973DOD     C2 3739  24.836  17.455   8.853  0.2343 -0.2346 -0.0153
19973DOD     C3 3740  24.548  17.186   9.117  0.1837  0.1914  0.1075
19974DOD     C1 3741  26.101  15.209  17.545 -0.3781 -0.1247 -0.1508
19974DOD     C2 3742  25.775  14.887  17.446  0.0172 -0.3098  0.0736
19974DOD     C3 3743  25.619  14.396  17.307 -0.1894 -0.4517  0.0379
19975DOD     C1 3744   8.660   8.514   5.365  0.1697  0.0670 -0.0209
19975DOD     C2 3745   9.040   8.705   5.187 -0.1236 -0.2406 -0.0874
19975DOD     C3 3746   9.098   8.576   4.683  0.3495 -0.0143 -0.3731
19976DOD     C1 3747  26.275  14.920  19.652  0.2940 -0.0516 -0.1801
19976DOD     C2 3748  26.000  14.637  19.877  0.1941  0.0308 -0.2031
19976DOD     C3 3749  25.815  14.336  20.223 -0.0134 -0.3580 -0.0034
19977DOD     C1 3750   1.580   9.170  18.380  0.0531  0.0365 -0.2699
19977DOD     C2 3751   1.511   9.630  18.525 -0.1887 -0.3185  0.1191
19977DOD     C3 3752   1.657   9.929  18.855 -0.0932  0.1403  0.2029
19978DOD     C1 3753  13.697   5.616  12.491 -0.2690  0.0558 -0.1297
19978DOD     C2 3754  13.264   5.702  12.508  0.1542 -0.0384 -0.4157
19978DOD     C3 3755  12.842   5.713  12.700 -0.0306  0.3094 -0.2494
19979DOD     C1 3756  20.789  27.285  26.428 -0.2620  0.0312  0.3296
19979DOD     C2 3757  20.781  27.693  26.642  0.1638  0.0389 -0.0454
19979DOD     C3 3758  20.742  28.083  26.970 -0.2741 -0.0453  0.3296
19980DOD     C1 3759   1.373   0.330  25.251 -0.3158  0.2364 -0.1620
19980DOD     C2 3760   1.529   0.659  25.009  0.1719 -0.1668 -0.1060
19980DOD     C3 3761   1.860   0.884  24.696  0.1743  0.1845  0.2510
19981DOD     C1 3762  18.199  14.347  17.823 -0.1723 -0.3242  0.1389
19981DOD     C2 3763  17.840  14.120  17.679  0.1031 -0.1078  0.1695
19981DOD     C3 3764  17.477  13.866  17.548  0.0215  0.0297 -0.3480
19982DOD     C1 3765   0.628   9.637   1.040 -0.2754 -0.1153  0.1668
19982DOD     C2 3766   0.563   9.541   0.606  0.1278  0.0153 -0.2989
19982DOD     C3 3767   0.537   9.816   0.234 -0.1563 -0.1334  0.0869
19983DOD     C1 3768  15.078   9.616  17.635  0.1351 -0.2010 -0.1843
19983DOD     C2 3769  15.093  10.025  17.829  0.1926 -0.1234  0.3177
19983DOD     C3 3770  15.200  10.455  18.047 -0.2204  0.0591 -0.2181
19984DOD     C1 3771  19.709  11.849   9.145  0.1789 -0.0505 -0.2141
19984DOD     C2 3772  19.488  11.872   9.573 -0.0403  0.2173  0.0520
19984DOD     C3 3773  19.029  11.729   9.658 -0.0886 -0.0227 -0.3390
19985DOD     C1 3774  28.661  27.485   9.629 -0.0084 -0.0750  0.0784
19985DOD     C2 3775  28.426  27.905   9.499 -0.1859 -0.3284  0.0346
19985DOD     C3 3776  28.527  28.256   9.233 -0.1287  0.1885 -0.2920
19986DOD     C1 3777  20.465  17.598   0.636 -0.2873  0.3125 -0.4286
19986DOD     C2 3778  20.391  17.940   0.278  0.2315 -0.0273 -0.2290
19986DOD     C3 3779  20.314  18.319  30.311  0.0289  0.0637  0.1950
19987DOD     C1 3780  20.430   7.842  25.537  0.1422 -0.1468  0.0076
19987DOD     C2 3781  20.538   8.261  25.360  0.0144 -0.0270  0.0622
19987DOD     C3 3782  20.889   8.562  25.408 -0.0913 -0.0585 -0.2198
19988DOD     C1 3783  30.111   0.335   9.442  0.1757  0.0023  0.0098
19988DOD     C2 3784  30.279   0.762   9.326  0.2597 -0.0726 -0.2737
19988DOD     C3 3785   0.277   1.120   9.451 -0.1370 -0.0308  0.2099
19989DOD     C1 3786  21.615   2.867  12.574  0.0804  0.2804 -0.0041
19989DOD     C2 3787  21.572   3.357  12.672  0.0192 -0.0564  0.0218
19989DOD     C3 3788  21.658   3.745  12.469  0.3914 -0.1950  0.2828
19990DOD     C1 3789  25.855  16.378  29.211  0.2222 -0.3461 -0.0516
19990DOD     C2 3790  26.148  16.056  29.137  0.1766  0.2262 -0.2829
19990DOD     C3 3791  26.549  16.045  28.998 -0.3168  0.2208 -0.0327
19991DOD     C1 3792  23.435  24.009   4.540  0.0172 -0.0648 -0.1528
19991DOD     C2 3793  23.558  24.263   4.906  0.0966 -0.0764 -0.3451
19991DOD     C3 3794  23.665  24.689   4.978  0.1622 -0.0204 -0.2976
19992DOD     C1 3795  20.698  26.858   8.248 -0.1894  0.1842 -0.1449
19992DOD     C2 3796  20.483  27.143   7.901  0.1356 -0.0115 -0.2671
19992DOD     C3 3797  20.174  27.462   7.915  0.1012  0.0033  0.0336
19993DOD     C1 3798  27.238   6.897  11.275 -0.2574  0.1329  0.0132
19993DOD     C2 3799  27.103   7.147  10.914 -0.0327 -0.0187 -0.0507
19993DOD     C3 3800  27.203   7.489  10.593  0.1155  0.0834  0.0718
19994DOD     C1 3801  22.800  15.212   5.474  0.0325 -0.0611 -0.5473
19994DOD     C2 3802  22.862  15.242   5.026 -0.0517 -0.0785  0.0509
19994DOD     C3 3803  23.072  15.311   4.630  0.0006 -0.0322 -0.0710
19995DOD     C1 3804  18.005  16.199  22.280 -0.2329  0.0406  0.0018
19995DOD     C2 3805  17.996  16.381  21.862  0.3432  0.1690 -0.0386
19995DOD     C3 3806  17.956  16.678  21.521 -0.1738  0.0321 -0.0313
19996DOD     C1 3807   9.579  12.664  17.908  0.0910  0.0564  0.0205
19996DOD     C2 3808   9.623  12.652  18.399  0.0796 -0.4059  0.0075
19996DOD     C3 3809   9.590  12.969  18.782  0.0641 -0.2500  0.0212
19997DOD     C1 3810   0.464   2.869  10.299  0.0175 -0.1193 -0.0818
19997DOD     C2 3811   0.508   3.301  10.110 -0.2832  0.0920  0.0999
19997DOD     C3 3812   0.781   3.684  10.102 -0.1573 -0.0611 -0.1240
19998DOD     C1 3813  22.939   6.695  11.592  0.1207 -0.2212  0.0798
19998DOD     C2 3814  22.850   6.944  11.987  0.1668  0.0405  0.0541
19998DOD     C3 3815  22.492   7.076  12.304 -0.1590 -0.2473  0.1160
19999DOD     C1 3816   9.450   2.665  23.151 -0.0383 -0.1179  0.1646
19999DOD     C2 3817   9.705   2.644  23.563 -0.2114 -0.1092 -0.0673
19999DOD     C3 3818  10.048   2.958  23.743 -0.1117 -0.1181 -0.1410
20000DOD     C1 3819   0.438  29.230  29.054 -0.0683  0.0255 -0.3250
20000DOD     C2 3820   0.363  28.786  28.982 -0.3218 -0.1824  0.3934
20000DOD     C3 3821   0.060  28.516  29.079  0.1583  0.0135  0.0721
20001DOD     C1 3822  11.356  14.782  12.032 -0.1861 -0.0842  0.3170
20001DOD     C2 3823  11.000  14.506  12.227  0.1254  0.1236  0.0680
20001DOD     C3 3824  10.646  14.210  12.211  0.1023 -0.1164  0.2279
20002DOD     C1 3825  18.748  19.782  10.496 -0.1223 -0.1704  0.2350
20002DOD     C2 3826  18.430  19.394  10.442 -0.0135  0.0775 -0.1233
20002DOD     C3 3827  18.133  19.229  10.157 -0.1222  0.1298  0.5343
20003DOD     C1 3828  21.133  12.430  16.946  0.0396  0.0097 -0.1611
20003DOD     C2 3829  21.526  12.428  16.679  0.0101 -0.2211  0.0568
20003DOD     C3 3830  21.944  12.337  16.854  0.0852 -0.2325 -0.1836
20004DOD     C1 3831  15.765  20.014   7.381  0.0451 -0.1450 -0.0355
20004DOD     C2 3832  15.843  20.446   7.564  0.1628 -0.1484  0.1579
20004DOD     C3 3833  16.188  20.714   7.813 -0.0159 -0.1115 -0.1499
20005DOD     C1 3834  10.901   0.730  19.577  0.0003  0.0261  0.0270
20005DOD     C2 3835  11.347   0.885  19.687  0.1218  0.0103 -0.4325
20005DOD     C3 3836  11.533   0.978  20.100  0.1149 -0.0538  0.2364
20006DOD     C1 3837  20.600  23.229  27.402  0.0709  0.0015  0.0421
20006DOD     C2 3838  20.645  23.701  27.351  0.2121  0.4178 -0.1882
20006DOD     C3 3839  20.657  24.031  27.714 -0.0015  0.0807  0.2327
20007DOD     C1 3840   8.494  11.917  13.424 -0.0999  0.1296  0.2165
20007DOD     C2 3841   8.775  11.583  13.668 -0.2937  0.1805 -0.1951
20007DOD     C3 3842   8.902  11.292  13.992  0.1314  0.0957 -0.0956
20008DOD     C1 3843   9.378  28.588  12.554  0.1636 -0.1220 -0.0375
20008DOD     C2 3844   9.119  28.230  12.774 -0.2734 -0.0712 -0.3098
20008DOD     C3 3845   9.060  28.169  13.196 -0.4641 -0.1948  0.0929
20009DOD     C1 3846  29.570  16.125  17.634  0.1404  0.0375  0.1133
20009DOD     C2 3847  29.379  16.196  17.190  0.0897 -0.0404  0.0206
20009DOD     C3 3848  29.016  16.393  16.924 -0.0431  0.3231  0.1010
20010DOD     C1 3849  20.132  21.062  13.779 -0.2417 -0.2084 -0.0388
20010DOD     C2 3850  19.972  20.768  13.390 -0.2727  0.0544  0.3732
20010DOD     C3 3851  19.885  20.652  12.936 -0.1416  0.1639 -0.4027
20011DOD     C1 3852   2.336  27.383  30.216 -0.1756 -0.2093 -0.2156
20011DOD     C2 3853   1.957  27.127  30.143  0.1190  0.0799 -0.1340
20011DOD     C3 3854   1.710  26.935  29.799 -0.1226 -0.2568 -0.1429
20012DOD     C1 3855  10.763   2.171   4.154  0.0169  0.2435 -0.0634
20012DOD     C2 3856  10.953   2.514   4.341  0.2204  0.1019 -0.2475
20012DOD     C3 3857  11.038   2.984   4.225 -0.1519 -0.2174 -0.1546
20013DOD     C1 3858  28.429  18.503  20.691  0.0232 -0.2733 -0.2202
20013DOD     C2 3859  28.449  18.286  20.310 -0.3346  0.0543  0.0991
20013DOD     C3 3860  28.193  18.297  19.853  0.1901  0.0214 -0.0566
20014DOD     C1 3861  27.069  17.124  10.488 -0.1360 -0.1485 -0.0128
20014DOD     C2 3862  27.398  17.483  10.621 -0.0139  0.1197  0.0290
20014DOD     C3 3863  27.632  17.865  10.786 -0.0948 -0.0636 -0.3675
20015DOD     C1 3864  11.937  26.746   5.904 -0.3428  0.0156  0.0019
20015DOD     C2 3865  12.223  26.400   5.740 -0.3205  0.1636  0.1472
20015DOD     C3 3866  12.662  26.342   5.787 -0.0105 -0.3438 -0.0200
20016DOD     C1 3867  18.479   8.556  10.129 -0.2370 -0.0189  0.2773
20016DOD     C2 3868  18.062   8.568   9.952 -0.2698 -0.2148 -0.1176
20016DOD     C3 3869  17.662   8.394   9.812  0.0141  0.1601 -0.0865
20017DOD     C1 3870  12.808  29.580  18.053 -0.2066  0.2794 -0.0241
20017DOD     C2 3871  12.430  29.513  18.337  0.3327 -0.0332  0.3619
20017DOD     C3 3872  12.120  29.836  18.504  0.0089 -0.0047  0.2751
20018DOD     C1 3873  27.756  29.922  29.053 -0.0460 -0.0241  0.1206
20018DOD     C2 3874  27.429  30.090  29.388 -0.4263  0.0412 -0.0705
20018DOD     C3 3875  27.097   0.013  29.692 -0.0319 -0.0925 -0.0215
20019DOD     C1 3876  13.650   0.959   9.463 -0.3977  0.3480  0.2448
20019DOD     C2 3877  13.279   1.040   9.642  0.1517 -0.1209 -0.2823
20019DOD     C3 3878  12.960   1.325   9.708 -0.1762 -0.3264 -0.1342
20020DOD     C1 3879  17.465  29.723  10.303 -0.1140  0.2218  0.3680
20020DOD     C2 3880  17.856  29.435  10.225  0.0175  0.1954  0.0022
20020DOD     C3 3881  18.207  29.388   9.970 -0.1347 -0.0694  0.0145
20021DOD     C1 3882  15.422  18.249  20.368  0.1965  0.5351  0.0957
20021DOD     C2 3883  15.645  18.073  20.023  0.2255 -0.2015 -0.1838
20021DOD     C3 3884  15.574  18.033  19.541 -0.1845 -0.0447  0.1855
20022DOD     C1 3885   7.193  18.436  26.982 -0.1843  0.1003 -0.0034
20022DOD     C2 3886   6.965  18.168  26.615 -0.0470  0.1910  0.0303
20022DOD     C3 3887   6.977  17.974  26.167  0.1409 -0.1080 -0.2801
20023DOD     C1 3888  10.388   1.607  14.360 -0.0555 -0.1665  0.4242
20023DOD     C2 3889  10.757   1.574  14.578 -0.0586  0.2188  0.0229
20023DOD     C3 3890  10.970   1.738  14.978 -0.0220  0.2492 -0.0392
20024DOD     C1 3891  21.322   2.801   5.038  0.0671  0.0537  0.2450
20024DOD     C2 3892  21.015   2.550   4.818 -0.0502  0.1404 -0.0905
20024DOD     C3 3893  21.211   2.247   4.502 -0.0971  0.0310 -0.0861
20025DOD     C1 3894  29.918  25.308  24.841 -0.1620  0.1187 -0.2907
20025DOD     C2 3895  29.748  25.175  25.190  0.0791  0.2190 -0.4281
20025DOD     C3 3896  29.775  25.266  25.629  0.0338  0.1427  0.3458
20026DOD     C1 3897  15.267  20.933  23.471  0.0967  0.2233 -0.1056
20026DOD     C2 3898  14.940  21.074  23.760  0.0435 -0.0159  0.1955
20026DOD     C3 3899  14.480  21.040  23.836 -0.1354  0.0952  0.1224
20027DOD     C1 3900   2.365  12.306  16.342  0.1519  0.0250 -0.0184
20027DOD     C2 3901   2.308  11.880  16.528 -0.4898  0.5898  0.0870
20027DOD     C3 3902   2.350  11.368  16.572  0.1339 -0.0680  0.0542
20028DOD     C1 3903   4.625   9.156  20.047 -0.0287 -0.3481  0.1364
20028DOD     C2 3904   4.827   8.784  19.966  0.0303 -0.1381 -0.3566
20028DOD     C3 3905   5.323   8.722  20.071  0.4946  0.1926  0.1568
20029DOD     C1 3906  12.618   7.123  14.069  0.0631  0.0385  0.0390
20029DOD     C2 3907  12.948   7.425  14.250  0.1684 -0.0932  0.1654
20029DOD     C3 3908  13.273   7.572  14.505 -0.0112 -0.0571  0.1183
20030DOD     C1 3909  10.943  26.951   7.534 -0.1617 -0.0492 -0.0461
20030DOD     C2 3910  11.090  26.868   7.973 -0.0879  0.2691 -0.3314
20030DOD     C3 3911  10.702  26.783   8.283  0.0986 -0.0590  0.1771
20031DOD     C1 3912  20.370  14.689   4.838  0.0232 -0.1896  0.0001
20031DOD     C2 3913  20.403  15.077   4.536 -0.1762 -0.1124  0.1282
20031DOD     C3 3914  20.440  15.419   4.211  0.1468 -0.0977  0.2672
20032DOD     C1 3915   0.813  19.920  11.624 -0.1104 -0.0943 -0.0474
20032DOD     C2 3916   0.584  19.522  11.568 -0.0492 -0.3545  0.0715
20032DOD     C3 3917   0.376  19.181  11.326  0.1591  0.0081  0.4365
20033DOD     C1 3918  29.345   5.184   0.511 -0.4776  0.0747  0.0055
20033DOD     C2 3919  29.024   5.343   0.116 -0.0469 -0.2607 -0.3399
20033DOD     C3 3920  28.577   5.372  30.300  0.0664 -0.1797  0.0570
20034DOD     C1 3921  11.500   1.548   9.191  0.1207  0.2148 -0.0143
20034DOD     C2 3922  11.527   1.967   9.066 -0.1257  0.3196 -0.1414
20034DOD     C3 3923  11.257   2.320   8.958  0.3377  0.0170 -0.2522
20035DOD     C1 3924   3.135  27.497  16.989  0.1090  0.3049 -0.1672
20035DOD     C2 3925   3.247  27.863  17.206 -0.0513 -0.0661 -0.1444
20035DOD     C3 3926   3.099  28.247  17.114  0.2179 -0.1138 -0.1918
20036DOD     C1 3927  21.322  18.341  20.288 -0.2252 -0.0123  0.1377
20036DOD     C2 3928  21.131  18.325  20.696 -0.0192 -0.3613  0.0684
20036DOD     C3 3929  21.194  18.026  21.035  0.1100 -0.0026  0.1540
20037DOD     C1 3930  12.031  16.149   2.977  0.1383  0.0225  0.2200
20037DOD     C2 3931  12.071  16.288   2.545 -0.3342 -0.0795 -0.2172
20037DOD     C3 3932  12.128  16.436   2.114 -0.1397 -0.1341 -0.0180
20038DOD     C1 3933  21.134  13.422  19.159 -0.2558  0.0313 -0.0722
20038DOD     C2 3934  20.822  13.003  19.208  0.0705 -0.2043 -0.2714
20038DOD     C3 3935  20.565  12.696  19.371  0.0798  0.1874 -0.2395
20039DOD     C1 3936  19.616  11.856  21.061  0.1359  0.1065  0.1470
20039DOD     C2 3937  19.562  11.743  21.517  0.0362 -0.0932  0.1878
20039DOD     C3 3938  19.587  11.344  21.782  0.3441  0.0561 -0.2039
20040DOD     C1 3939  25.417  15.688  21.224 -0.0241  0.0247  0.3447
20040DOD     C2 3940  24.976  15.639  21.131 -0.0758 -0.0970 -0.1640
20040DOD     C3 3941  24.788  15.443  20.764  0.0397  0.3219  0.0418
20041DOD     C1 3942  23.275  15.194   9.818 -0.3531  0.1936 -0.1117
20041DOD     C2 3943  23.627  15.058  10.162 -0.0934  0.2488  0.2828
20041DOD     C3 3944  24.047  15.174  10.318  0.0733  0.0857 -0.1167
20042DOD     C1 3945  13.378  23.244   2.962  0.0586 -0.0330 -0.1878
20042DOD     C2 3946  13.024  23.319   2.665 -0.1231  0.1767  0.2560
20042DOD     C3 3947  13.030  23.105   2.273  0.2643  0.2113 -0.0114
20043DOD     C1 3948  14.828  16.747  15.573 -0.0271 -0.3684 -0.0871
20043DOD     C2 3949  14.818  17.185  15.736  0.0692  0.4797 -0.3411
20043DOD     C3 3950  14.907  17.578  15.923  0.0897 -0.2562 -0.0227
20044DOD     C1 3951  18.031   6.200  20.156 -0.0571 -0.0135 -0.2330
20044DOD     C2 3952  17.915   6.217  19.657 -0.2625 -0.0934  0.0175
20044DOD     C3 3953  17.952   6.258  19.194  0.1081  0.3529  0.0837
20045DOD     C1 3954  11.739  23.757  22.201  0.0955  0.2667 -0.3067
20045DOD     C2 3955  11.883  24.197  22.432  0.0582  0.1109  0.1062
20045DOD     C3 3956  12.046  24.427  22.802 -0.3106  0.1052  0.0103
20046DOD     C1 3957   5.149  21.961  12.883  0.3244 -0.2208 -0.1972
20046DOD     C2 3958   5.286  22.338  13.089 -0.0276  0.0531  0.0673
20046DOD     C3 3959   5.160  22.649  13.292  0.1374 -0.3295 -0.0190
20047DOD     C1 3960   4.659   5.189   8.998  0.1021 -0.2140 -0.2017
20047DOD     C2 3961   4.239   5.158   8.802 -0.3378 -0.1867 -0.0327
20047DOD     C3 3962   3.792   5.060   8.603 -0.2007 -0.1945 -0.4193
20048DOD     C1 3963  12.415   2.718  14.498 -0.0287 -0.0720 -0.0336
20048DOD     C2 3964  12.537   3.123  14.353  0.0503 -0.1336  0.0367
20048DOD     C3 3965  12.534   3.382  13.957  0.1375 -0.0850 -0.5109
20049DOD     C1 3966   4.032  15.750   8.813  0.3631  0.3247 -0.0300
20049DOD     C2 3967   3.978  15.395   9.041  0.0226  0.0244 -0.1536
20049DOD     C3 3968   3.672  15.098   9.272 -0.1800  0.1990 -0.0152
20050DOD     C1 3969  11.819  16.253  18.011  0.3020  0.1904 -0.0544
20050DOD     C2 3970  11.964  16.194  17.539 -0.0226  0.1423 -0.0446
20050DOD     C3 3971  11.861  16.461  17.195 -0.3629 -0.0225 -0.0005
20051DOD     C1 3972  11.762  26.314  14.186  0.1053  0.1926  0.0484
20051DOD     C2 3973  12.007  26.618  13.888  0.0130  0.2294 -0.2192
20051DOD     C3 3974  12.253  27.010  13.845  0.0886  0.0272  0.2501
20052DOD     C1 3975  22.910   9.666  22.852 -0.0787 -0.2417 -0.2950
20052DOD     C2 3976  22.490   9.707  22.723 -0.1336  0.1523 -0.0002
20052DOD     C3 3977  22.105   9.725  22.425  0.0326  0.0272 -0.1720
20053DOD     C1 3978  26.832  24.217  12.650  0.0462 -0.3182 -0.1610
20053DOD     C2 3979  27.325  24.043  12.594  0.2295  0.0646 -0.0907
20053DOD     C3 3980  27.735  23.992  12.824  0.0159  0.1200  0.2353
20054DOD     C1 3981   2.779   6.781  23.485 -0.2679  0.0896  0.1396
20054DOD     C2 3982   2.410   6.484  23.347  0.0371  0.1033 -0.0375
20054DOD     C3 3983   1.929   6.412  23.287  0.1361  0.3757 -0.2987
20055DOD     C1 3984  19.594   9.784  17.554 -0.2685  0.0476  0.1501
20055DOD     C2 3985  19.148   9.845  17.496 -0.0642 -0.0619  0.1212
20055DOD     C3 3986  18.772   9.749  17.663 -0.0010  0.0750 -0.0671
20056DOD     C1 3987  13.530  30.265  23.130  0.3945  0.1033  0.0348
20056DOD     C2 3988  13.791  29.899  23.255 -0.0838 -0.2983 -0.1519
20056DOD     C3 3989  14.071  29.759  23.582 -0.2352  0.1063 -0.1497
20057DOD     C1 3990  17.899  17.784  27.687 -0.2230 -0.0390  0.2730
20057DOD     C2 3991  18.339  17.888  27.669 -0.1700 -0.1262  0.2744
20057DOD     C3 3992  18.817  17.863  27.702  0.2929  0.1517  0.1491
20058DOD     C1 3993   1.508  30.140   1.189 -0.1119 -0.0864 -0.0837
20058DOD     C2 3994   1.255  29.735   1.073 -0.2856  0.1619 -0.3625
20058DOD     C3 3995   0.908  29.483   1.148  0.1109  0.1592 -0.1184
20059DOD     C1 3996  26.612   7.668  22.849  0.0894 -0.1559  0.2086
20059DOD     C2 3997  26.466   7.897  23.254  0.0586 -0.1472  0.0565
20059DOD     C3 3998  26.497   8.251  23.609  0.0470 -0.0464  0.0031
20060DOD     C1 3999  29.904  24.749  23.613  0.2491  0.0360 -0.3354
20060DOD     C2 4000  30.181  24.953  23.941  0.3225  0.4905  0.1032
20060DOD     C3 4001   0.182  24.996  24.257 -0.0287 -0.0332  0.1324
20061DOD     C1 4002   1.108  16.455   5.796  0.0089 -0.0629 -0.3248
20061DOD     C2 4003   0.914  16.053   5.741 -0.1287  0.1669 -0.1625
20061DOD     C3 4004   0.467  15.941   5.657 -0.1817 -0.4001 -0.1135
20062DOD     C1 4005   5.409   0.267  16.684  0.0646  0.2754 -0.1672
20062DOD     C2 4006   4.982   0.106  16.474 -0.2928  0.1114 -0.3238
20062DOD     C3 4007   5.032   0.260  16.022 -0.0143 -0.0438  0.1521
20063DOD     C1 4008   9.376   6.903  11.410 -0.0711  0.1215  0.0188
20063DOD     C2 4009   9.267   6.609  11.743  0.1367  0.2770  0.2693
20063DOD     C3 4010   9.178   6.609  12.195 -0.1779  0.0740 -0.2180
20064DOD     C1 4011   1.963   2.022  24.926  0.2937 -0.0499  0.0329
20064DOD     C2 4012   2.107   2.323  24.586 -0.1722 -0.2480  0.0721
20064DOD     C3 4013   2.258   2.642  24.288 -0.0794 -0.0053  0.0756
20065DOD     C1 4014   3.114  27.528  12.059 -0.1863  0.0977 -0.2137
20065DOD     C2 4015   3.272  27.883  11.891  0.0599  0.1596  0.1068
20065DOD     C3 4016   3.354  28.141  11.513 -0.3243  0.1509  0.1094
20066DOD     C1 4017  21.726  16.448  12.282  0.0947 -0.0238  0.1298
20066DOD     C2 4018  21.926  16.855  12.270  0.0706  0.0650 -0.1698
20066DOD     C3 4019  21.908  17.328  12.298 -0.0309  0.1308 -0.0026
20067DOD     C1 4020  17.704   1.404   1.580  0.2223 -0.2593 -0.0138
20067DOD     C2 4021  18.073   1.364   1.400  0.2863 -0.6253 -0.0562
20067DOD     C3 4022  18.228   1.286   0.961  0.0998 -0.0801  0.3299
20068DOD     C1 4023  19.483  28.209  23.703  0.2175 -0.0144 -0.0291
20068DOD     C2 4024  19.392  28.638  23.593  0.2493 -0.2427  0.0492
20068DOD     C3 4025  19.222  29.074  23.685  0.1680 -0.0689  0.3498
20069DOD     C1 4026  22.178  13.442  25.846 -0.0442 -0.1149 -0.1246
20069DOD     C2 4027  22.143  12.996  25.842  0.3316 -0.1283  0.1157
20069DOD     C3 4028  21.966  12.558  25.625 -0.1031  0.2002 -0.3233
20070DOD     C1 4029   4.487   9.205   7.389 -0.0708  0.1295 -0.4181
20070DOD     C2 4030   4.921   9.341   7.496  0.2107  0.1615  0.0898
20070DOD     C3 4031   5.266   9.550   7.625  0.5714  0.0207  0.1360
20071DOD     C1 4032   3.894   4.021  12.984 -0.1934 -0.2759 -0.0921
20071DOD     C2 4033   3.878   4.027  12.460  0.0565  0.0945  0.0944
20071DOD     C3 4034   4.109   3.931  12.065 -0.1525  0.1793  0.4216
20072DOD     C1 4035   5.591  25.968  14.860  0.4996  0.0325  0.0293
20072DOD     C2 4036   5.501  25.812  14.426 -0.0912 -0.0996  0.0741
20072DOD     C3 4037   5.394  25.764  13.917  0.0399  0.0064 -0.1872
20073DOD     C1 4038  12.486  13.260  21.034  0.0885  0.0984  0.1152
20073DOD     C2 4039  12.216  13.164  20.685 -0.0527 -0.0858 -0.0797
20073DOD     C3 4040  12.112  13.036  20.295  0.1339  0.2060  0.0182
20074DOD     C1 4041  27.669  19.505  27.523 -0.0134 -0.1915 -0.2778
20074DOD     C2 4042  28.086  19.630  27.724 -0.1278 -0.1035  0.0898
20074DOD     C3 4043  28.479  19.411  27.807  0.2279  0.0037 -0.0545
20075DOD     C1 4044   0.086   9.459  28.113  0.0275 -0.1443  0.2702
20075DOD     C2 4045  30.097   9.757  27.946  0.2905 -0.2187 -0.0468
20075DOD     C3 4046  29.974  10.210  28.096  0.0464 -0.0286  0.0164
20076DOD     C1 4047  19.313  21.629  10.199  0.1554  0.2529 -0.0874
20076DOD     C2 4048  18.934  21.929  10.244 -0.2288 -0.2026 -0.0508
20076DOD     C3 4049  18.766  22.399  10.146  0.0016  0.0976 -0.0534
20077DOD     C1 4050  21.580   9.631  11.894  0.1544  0.0887 -0.2069
20077DOD     C2 4051  21.771   9.227  11.738 -0.1062 -0.2230 -0.0350
20077DOD     C3 4052  22.188   9.020  11.658 -0.0445  0.0434  0.0481
20078DOD     C1 4053  23.529  12.449   6.109 -0.1975  0.2864 -0.0885
20078DOD     C2 4054  23.854  12.651   6.335  0.0656 -0.0945 -0.0181
20078DOD     C3 4055  23.928  12.691   6.813 -0.1157  0.2342 -0.1858
20079DOD     C1 4056  16.278  19.084  29.665  0.0599 -0.3403  0.1202
20079DOD     C2 4057  16.095  19.512  29.691 -0.0407  0.1731 -0.2582
20079DOD     C3 4058  16.160  19.964  29.818  0.0404  0.1851 -0.0041
20080DOD     C1 4059   2.332  26.858   7.626 -0.3148  0.0347 -0.3632
20080DOD     C2 4060   2.036  26.806   7.993 -0.1309  0.1019  0.2456
20080DOD     C3 4061   1.599  26.833   8.247 -0.0751 -0.2290  0.0190
20081DOD     C1 4062  17.627   4.039  25.906 -0.1510 -0.1783 -0.2683
20081DOD     C2 4063  17.255   4.291  25.760  0.2567 -0.3124 -0.1231
20081DOD     C3 4064  16.831   4.381  25.962 -0.0251 -0.3395 -0.1478
20082DOD     C1 4065  11.820  11.704  24.156 -0.0771  0.2245 -0.0478
20082DOD     C2 4066  11.373  11.885  24.122 -0.1469  0.1156 -0.4783
20082DOD     C3 4067  11.036  12.145  23.900 -0.3214  0.1057 -0.0810
20083DOD     C1 4068   9.243  24.338  22.887  0.2247 -0.2116  0.0306
20083DOD     C2 4069   8.929  24.016  23.026 -0.0608  0.0578  0.2179
20083DOD     C3 4070   8.729  23.627  23.152 -0.2282  0.2000 -0.0858
20084DOD     C1 4071  12.798  27.118  12.006  0.2261 -0.0049 -0.0718
20084DOD     C2 4072  13.126  27.373  12.120 -0.3069  0.1792 -0.1941
20084DOD     C3 4073  13.626  27.526  12.175  0.3235 -0.0996 -0.0175
20085DOD     C1 4074  25.428  29.840  10.769  0.3022 -0.0609 -0.3589
20085DOD     C2 4075  25.317  29.628  11.148  0.3559 -0.0801 -0.0991
20085DOD     C3 4076  25.064  29.654  11.578  0.1690  0.2785 -0.1193
20086DOD     C1 4077  20.448   1.542  12.905 -0.2093  0.0658  0.0564
20086DOD     C2 4078  20.786   1.878  13.105 -0.0492 -0.0115  0.0590
20086DOD     C3 4079  20.937   1.972  13.544 -0.3380 -0.2360  0.3702
20087DOD     C1 4080   1.471   0.954  16.609  0.2394 -0.1950  0.2353
20087DOD     C2 4081   1.906   1.132  16.540  0.1053  0.2126 -0.0391
20087DOD     C3 4082   2.278   1.342  16.401 -0.1534 -0.1735  0.3584
20088DOD     C1 4083   7.907   8.303   1.308  0.1438 -0.1029 -0.2036
20088DOD     C2 4084   8.214   7.977   1.528  0.1518 -0.0971  0.0204
20088DOD     C3 4085   8.569   7.844   1.773 -0.2704 -0.4161  0.0647
20089DOD     C1 4086   1.832  23.917   4.878 -0.0108 -0.1789  0.1119
20089DOD     C2 4087   1.971  24.310   4.753 -0.1318 -0.3649  0.0159
20089DOD     C3 4088   2.110  24.722   4.926  0.0194  0.0763  0.0097
20090DOD     C1 4089  17.987  30.250  10.835 -0.0285  0.1846  0.1104
20090DOD     C2 4090  17.628  30.028  10.688  0.1550  0.0116  0.2943
20090DOD     C3 4091  17.195  30.054  10.630  0.1464 -0.3162 -0.1960
20091DOD     C1 4092   4.939  22.221   8.802 -0.2481  0.0453  0.0485
20091DOD     C2 4093   5.324  21.868   8.782  0.0717  0.1319  0.1740
20091DOD     C3 4094   5.298  21.430   8.893  0.0555 -0.1769 -0.0786
20092DOD     C1 4095  29.554  27.521  22.348 -0.0093 -0.1179 -0.0956
20092DOD     C2 4096  29.460  27.355  21.939 -0.3933  0.2122  0.1332
20092DOD     C3 4097  29.239  27.177  21.593 -0.6285  0.2631 -0.1677
20093DOD     C1 4098   3.207  28.590  18.164 -0.1692  0.2308 -0.1588
20093DOD     C2 4099   2.926  28.726  17.834 -0.0088  0.0332 -0.3183
20093DOD     C3 4100   2.729  29.108  17.975  0.1532 -0.1758  0.2058
20094DOD     C1 4101  27.686  26.792   0.094  0.1871  0.0045 -0.2860
20094DOD     C2 4102  27.474  26.553   0.471  0.2127 -0.1529 -0.4837
20094DOD     C3 4103  27.323  26.214   0.724  0.1932  0.0938  0.1233
20095DOD     C1 4104  22.263   0.765   9.534  0.3116 -0.2599  0.0753
20095DOD     C2 4105  22.739   0.816   9.473 -0.0464 -0.0678 -0.0326
20095DOD     C3 4106  23.185   0.696   9.407  0.0661 -0.1570  0.0984
20096DOD     C1 4107  10.334  29.169  27.252  0.2687  0.2698  0.0287
20096DOD     C2 4108  10.104  29.287  26.912 -0.1409 -0.2405 -0.0235
20096DOD     C3 4109  10.048  29.536  26.567 -0.3283 -0.5355  0.2338
20097DOD     C1 4110  17.290  24.377  28.607 -0.1552  0.0380  0.2470
20097DOD     C2 4111  17.769  24.392  28.417 -0.2118 -0.0117  0.1654
20097DOD     C3 4112  17.818  24.492  27.981  0.1042 -0.0900 -0.2346
20098DOD     C1 4113   6.259  27.563  24.848 -0.0475  0.0841  0.0594
20098DOD     C2 4114   5.828  27.761  24.919 -0.2221  0.0254  0.2331
20098DOD     C3 4115   5.670  28.038  25.288  0.2204  0.1124 -0.2566
20099DOD     C1 4116   2.870   8.769  22.628 -0.0366  0.0368  0.0009
20099DOD     C2 4117   2.849   8.856  22.130 -0.0551 -0.0855  0.0498
20099DOD     C3 4118   2.803   9.236  21.852  0.1052  0.2718 -0.2630
20100DOD     C1 4119  13.938  13.424   0.416 -0.1225 -0.1960  0.0207
20100DOD     C2 4120  13.737  13.452   0.818 -0.0530 -0.1547 -0.1186
20100DOD     C3 4121  13.519  13.277   1.212  0.4935 -0.2391  0.0184
20101DOD     C1 4122  27.144   3.491  17.779  0.1603  0.0967  0.4409
20101DOD     C2 4123  27.023   3.227  17.438 -0.0041 -0.1669 -0.0786
20101DOD     C3 4124  26.962   2.829  17.210  0.0272  0.1489  0.1033
20102DOD     C1 4125  20.930  17.885   0.384  0.1249 -0.2381  0.1952
20102DOD     C2 4126  21.068  17.466   0.320 -0.0004 -0.0683  0.3531
20102DOD     C3 4127  20.977  16.981   0.432  0.0308  0.4703  0.1520
20103DOD     C1 4128   0.158   2.914  30.322  0.3551 -0.0423  0.0519
20103DOD     C2 4129  30.098   2.809   0.214 -0.1236  0.1492  0.1619
20103DOD     C3 4130  29.925   2.815   0.693 -0.1005 -0.2611 -0.0098
20104DOD     C1 4131  15.860   4.583  24.405 -0.2983 -0.2003  0.0175
20104DOD     C2 4132  16.002   4.965  24.642  0.3527 -0.1761  0.1479
20104DOD     C3 4133  15.981   5.211  25.024  0.0457  0.0014  0.0479
20105DOD     C1 4134  19.871  20.762  14.708 -0.1080 -0.0071 -0.1550
20105DOD     C2 4135  19.691  20.372  14.807 -0.4084 -0.0483  0.2306
20105DOD     C3 4136  19.747  19.935  14.917  0.1628  0.2125 -0.3915
20106DOD     C1 4137   4.204   7.651  28.752  0.3078 -0.2295 -0.4503
20106DOD     C2 4138   4.116   7.770  29.189  0.2930  0.0769 -0.0191
20106DOD     C3 4139   3.717   7.816  29.470  0.2032  0.4775 -0.0984
20107DOD     C1 4140  12.999   8.663  23.510  0.3003 -0.1864  0.1398
20107DOD     C2 4141  13.334   8.571  23.775 -0.1973 -0.0551  0.1064
20107DOD     C3 4142  13.794   8.609  23.848  0.1045 -0.1167  0.0716
20108DOD     C1 4143  25.503   8.002   2.836 -0.0784 -0.0842  0.2250
20108DOD     C2 4144  25.559   7.642   2.593 -0.1634  0.0340  0.0264
20108DOD     C3 4145  25.561   7.233   2.395 -0.0358  0.1210  0.1032
20109DOD     C1 4146   4.780  25.733  22.148  0.2099  0.0915 -0.2007
20109DOD     C2 4147   4.865  25.273  22.282  0.1021  0.2707 -0.1190
20109DOD     C3 4148   5.130  24.924  22.524  0.2330  0.2824 -0.0516
20110DOD     C1 4149  13.237  30.052  22.092 -0.0061  0.0343 -0.2194
20110DOD     C2 4150  13.437  29.764  22.360 -0.0067  0.0875  0.0202
20110DOD     C3 4151  13.766  29.521  22.603  0.1792 -0.0312  0.1872
20111DOD     C1 4152  19.961  12.919  25.456  0.0822  0.0355 -0.2711
20111DOD     C2 4153  19.772  12.534  25.554 -0.1303 -0.2141  0.2326
20111DOD     C3 4154  19.438  12.239  25.439 -0.0389  0.2061 -0.0015
20112DOD     C1 4155  15.417   6.220  24.243 -0.1456 -0.1977 -0.0100
20112DOD     C2 4156  15.372   6.581  23.935  0.0025  0.2337  0.0108
20112DOD     C3 4157  15.454   7.007  23.757  0.1925 -0.1540 -0.0241
20113DOD     C1 4158  20.819  13.284  29.027  0.0068  0.0076  0.1685
20113DOD     C2 4159  21.124  13.631  29.061  0.1909  0.0834 -0.1427
20113DOD     C3 4160  21.312  14.018  28.935 -0.2233  0.2543 -0.2023
20114DOD     C1 4161  11.674   0.269  18.203 -0.4052  0.2120 -0.0597
20114DOD     C2 4162  11.986   0.029  17.946 -0.0446 -0.1120  0.0737
20114DOD     C3 4163  12.234  29.965  17.990 -0.3189  0.0844 -0.1198
20115DOD     C1 4164  24.059   7.791   6.538  0.1015 -0.1675 -0.0287
20115DOD     C2 4165  23.750   8.199   6.622 -0.1240  0.0188 -0.2658
20115DOD     C3 4166  23.444   8.576   6.644  0.0401 -0.1256 -0.2378
20116DOD     C1 4167   6.797  13.644  17.666 -0.0173  0.0383 -0.1156
20116DOD     C2 4168   7.111  13.422  17.414 -0.0720 -0.0564 -0.2132
20116DOD     C3 4169   7.535  13.375  17.482  0.0843 -0.0606 -0.1026
20117DOD     C1 4170  16.687   4.785   1.555 -0.2782 -0.1570 -0.1945
20117DOD     C2 4171  17.033   4.727   1.824 -0.0906 -0.3487  0.0085
20117DOD     C3 4172  17.374   4.492   2.095  0.0677 -0.1387  0.0296
20118DOD     C1 4173  21.624  27.141   8.344 -0.0278 -0.1093 -0.0309
20118DOD     C2 4174  22.056  27.135   8.171 -0.3774 -0.1866 -0.2396
20118DOD     C3 4175  22.449  27.024   8.412 -0.1835 -0.1172  0.2229
20119DOD     C1 4176  23.268  -0.023  27.192 -0.1325 -0.2213 -0.1095
20119DOD     C2 4177  23.646   0.176  26.992  0.1520  0.0139  0.2745
20119DOD     C3 4178  24.011   0.505  26.831  0.0432  0.2612 -0.0958
20120DOD     C1 4179   3.396  15.207  13.787 -0.2511 -0.2319  0.0823
20120DOD     C2 4180   3.265  14.780  13.838  0.0865  0.0784 -0.0435
20120DOD     C3 4181   3.099  14.373  14.010 -0.0691  0.3945  0.1867
20121DOD     C1 4182  17.807   3.069   4.673  0.3432 -0.0475  0.0521
20121DOD     C2 4183  17.837   3.433   5.031  0.1320  0.0652  0.1786
20121DOD     C3 4184  17.996   3.399   5.458 -0.2850 -0.0415  0.1172
20122DOD     C1 4185  13.630  14.913  21.381 -0.0886  0.1863  0.0384
20122DOD     C2 4186  14.104  15.050  21.294 -0.1383 -0.0145  0.1327
20122DOD     C3 4187  14.503  14.806  21.364 -0.0612 -0.3305 -0.1402
20123DOD     C1 4188  14.482   9.012  29.447 -0.1376  0.0109 -0.0087
20123DOD     C2 4189  14.252   9.010  29.007 -0.2173 -0.1944 -0.1089
20123DOD     C3 4190  14.475   8.970  28.616 -0.0225  0.0594  0.0919
20124DOD     C1 4191  27.687  15.969   3.791  0.3287 -0.0437  0.2676
20124DOD     C2 4192  27.836  15.540   3.715  0.1659  0.0135  0.2171
20124DOD     C3 4193  28.175  15.231   3.770  0.0923  0.1204  0.0844
20125DOD     C1 4194   5.689   6.263  23.797  0.0743 -0.1085  0.0269
20125DOD     C2 4195   5.698   6.310  23.333  0.2027 -0.1239  0.1334
20125DOD     C3 4196   5.858   6.542  22.967 -0.1973  0.0752 -0.2007
20126DOD     C1 4197   2.582  27.966  28.349 -0.1314  0.0816  0.0005
20126DOD     C2 4198   2.851  28.328  28.338 -0.0329  0.1002  0.3039
20126DOD     C3 4199   3.214  28.473  28.568  0.0716 -0.0632 -0.1950
20127DOD     C1 4200   5.317  16.260  17.565  0.4151 -0.0070  0.3117
20127DOD     C2 4201   4.876  16.379  17.453  0.0170  0.0487  0.1949
20127DOD     C3 4202   4.479  16.379  17.194 -0.1609 -0.1076 -0.1949
20128DOD     C1 4203  13.873  29.031   6.289 -0.0812 -0.0481  0.3918
20128DOD     C2 4204  14.309  29.065   6.117  0.1475 -0.2011  0.1617
20128DOD     C3 4205  14.687  28.869   5.951 -0.0082  0.3357  0.2919
20129DOD     C1 4206  22.798   0.208  21.328  0.0350  0.0411  0.0593
20129DOD     C2 4207  22.643   0.601  21.612  0.0367  0.3960 -0.0323
20129DOD     C3 4208  22.232   0.684  21.742 -0.2040 -0.1792 -0.1228
20130DOD     C1 4209  11.892  15.521  22.844  0.2678 -0.1314  0.0913
20130DOD     C2 4210  11.653  15.746  22.560 -0.3150  0.2167  0.1621
20130DOD     C3 4211  11.531  16.126  22.498  0.1808  0.0373 -0.0338
20131DOD     C1 4212  23.057  10.837  13.569  0.0024  0.0382 -0.0019
20131DOD     C2 4213  23.279  10.459  13.769  0.1050 -0.0286  0.0445
20131DOD     C3 4214  23.178  10.250  14.147 -0.0246 -0.2583 -0.0049
20132DOD     C1 4215   8.559  24.484   6.182  0.1368  0.2288  0.1994
20132DOD     C2 4216   8.705  24.583   6.587 -0.0780  0.0662  0.0845
20132DOD     C3 4217   8.958  24.474   7.028 -0.0405 -0.0242 -0.1916
20133DOD     C1 4218  14.536  19.700  15.157 -0.0276 -0.0916 -0.0267
20133DOD     C2 4219  14.356  19.429  14.839 -0.2277  0.0902 -0.0141
20133DOD     C3 4220  14.596  19.153  14.585 -0.0604  0.1222  0.2650
20134DOD     C1 4221  30.295  12.966  22.115  0.2300 -0.3734 -0.3070
20134DOD     C2 4222  30.019  12.769  22.478  0.0841 -0.0359  0.0335
20134DOD     C3 4223  29.613  12.542  22.392  0.1300 -0.2308 -0.1291
20135DOD     C1 4224  23.320  12.332   7.897  0.0362 -0.1388 -0.2080
20135DOD     C2 4225  23.288  12.211   8.333 -0.4135 -0.3067  0.4263
20135DOD     C3 4226  23.515  12.358   8.729  0.0676 -0.3575  0.1733
20136DOD     C1 4227  19.804  26.920  23.237 -0.5247  0.0870 -0.0306
20136DOD     C2 4228  19.512  26.575  23.272  0.1809  0.0392 -0.0081
20136DOD     C3 4229  19.125  26.248  23.309 -0.0104  0.2615  0.0608
20137DOD     C1 4230   9.595   5.907   0.573 -0.3158  0.1738 -0.1127
20137DOD     C2 4231   9.967   5.729   0.318  0.1719 -0.2369 -0.1091
20137DOD     C3 4232  10.353   5.879   0.242 -0.4024  0.0525 -0.1305
20138DOD     C1 4233  11.311  14.360  12.700 -0.0787  0.0358 -0.1765
20138DOD     C2 4234  11.150  14.306  13.152  0.3315 -0.2205  0.1572
20138DOD     C3 4235  10.733  14.089  13.176  0.0290  0.0708  0.0040
20139DOD     C1 4236  17.879  14.414  23.458  0.0155 -0.0221 -0.2549
20139DOD     C2 4237  17.924  14.386  22.952  0.3058  0.1154 -0.3151
20139DOD     C3 4238  17.566  14.452  22.612 -0.0019  0.2900 -0.4953
20140DOD     C1 4239  21.271   2.389  12.751 -0.3623  0.2072  0.0295
20140DOD     C2 4240  21.107   2.015  12.706  0.0284 -0.1770  0.0587
20140DOD     C3 4241  21.367   1.644  12.523 -0.0522  0.2211  0.2585
20141DOD     C1 4242   3.191  26.646  24.067 -0.0188  0.2400  0.2668
20141DOD     C2 4243   2.769  26.661  24.171  0.3380 -0.0550  0.1449
20141DOD     C3 4244   2.462  26.738  24.542  0.0767 -0.2031 -0.1842
20142DOD     C1 4245  11.124  24.643  30.322  0.0028  0.1078  0.3572
20142DOD     C2 4246  11.438  24.953   0.146 -0.0515  0.1779 -0.0205
20142DOD     C3 4247  11.775  25.313   0.148 -0.0901 -0.2156  0.1632
20143DOD     C1 4248   7.848   6.923  17.260  0.2215 -0.0734  0.2098
20143DOD     C2 4249   7.903   7.200  16.866  0.2659  0.1624  0.0492
20143DOD     C3 4250   7.810   7.344  16.436  0.0036  0.0552  0.1978
20144DOD     C1 4251   4.265  10.094  28.399 -0.0675 -0.2886 -0.0265
20144DOD     C2 4252   4.378  10.361  28.697  0.1191 -0.0693  0.0221
20144DOD     C3 4253   4.468  10.716  29.023 -0.0690  0.1089  0.2556
20145DOD     C1 4254  16.165   0.410  19.484 -0.0515 -0.0983  0.1718
20145DOD     C2 4255  16.006   0.080  19.251  0.0009 -0.0254 -0.0598
20145DOD     C3 4256  16.086  30.103  18.886  0.2368  0.3727 -0.2472
20146DOD     C1 4257   9.332  14.487   5.393 -0.0644 -0.0933  0.2151
20146DOD     C2 4258   9.107  14.611   5.794  0.1844  0.0599  0.2702
20146DOD     C3 4259   9.156  14.996   6.060 -0.0298  0.0708  0.1273
20147DOD     C1 4260  28.994   4.839   6.500  0.0621  0.1882 -0.0433
20147DOD     C2 4261  29.370   4.530   6.422 -0.5376 -0.1871  0.3297
20147DOD     C3 4262  29.699   4.225   6.525  0.0196  0.0293  0.1516
20148DOD     C1 4263   1.253   3.183   3.961  0.0667 -0.0209  0.2252
20148DOD     C2 4264   1.185   3.668   4.051  0.1341 -0.0289  0.1812
20148DOD     C3 4265   0.816   3.957   4.155 -0.1318 -0.0316  0.0960
20149DOD     C1 4266  20.033   2.013   2.632 -0.0114  0.1799  0.2256
20149DOD     C2 4267  20.108   1.797   3.011  0.0350  0.0395 -0.2401
20149DOD     C3 4268  20.048   1.724   3.517  0.0826  0.0362  0.0543
20150DOD     C1 4269  14.521  28.861   7.186  0.3036  0.0358  0.0068
20150DOD     C2 4270  14.363  28.619   7.499 -0.1426 -0.2270 -0.4207
20150DOD     C3 4271  14.467  28.294   7.796 -0.0164  0.0114  0.0350
20151DOD     C1 4272   5.162  20.505   7.432  0.1299 -0.1799 -0.0035
20151DOD     C2 4273   5.618  20.390   7.390 -0.2380  0.0845  0.1708
20151DOD     C3 4274   5.999  20.361   7.151 -0.0394  0.2419  0.0536
20152DOD     C1 4275  25.218  16.840  18.037 -0.1974 -0.0093 -0.2923
20152DOD     C2 4276  25.602  16.669  17.866 -0.0611 -0.2257  0.4106
20152DOD     C3 4277  25.742  16.679  17.443  0.2669  0.3856 -0.1625
20153DOD     C1 4278  15.384  18.281   6.718 -0.4292 -0.1075 -0.0078
20153DOD     C2 4279  15.339  18.714   6.616 -0.4246  0.3169  0.1212
20153DOD     C3 4280  15.293  19.179   6.771  0.0649 -0.0323 -0.0821
20154DOD     C1 4281   7.959   5.821  15.427 -0.0070  0.1400  0.1655
20154DOD     C2 4282   7.987   5.810  15.882  0.1381  0.3252 -0.1776
20154DOD     C3 4283   7.667   5.916  16.201  0.2480  0.1021  0.1250
20155DOD     C1 4284   9.829  21.607  20.554 -0.1343 -0.2068 -0.2300
20155DOD     C2 4285   9.955  22.041  20.466 -0.2664  0.1349  0.1086
20155DOD     C3 4286   9.835  22.439  20.590  0.0514  0.0415 -0.0870
20156DOD     C1 4287  12.284  24.906   2.477  0.0076 -0.0364  0.2383
20156DOD     C2 4288  12.400  24.725   2.051  0.0842  0.2234 -0.2134
20156DOD     C3 4289  12.323  24.756   1.629  0.1620  0.0804 -0.1364
20157DOD     C1 4290   2.873  10.696   6.496  0.1818 -0.0623  0.0160
20157DOD     C2 4291   2.606  11.056   6.544 -0.1849 -0.1065  0.2965
20157DOD     C3 4292   2.486  11.296   6.945  0.1120 -0.0765 -0.3783
20158DOD     C1 4293  20.479  27.610  18.519 -0.2903 -0.2782  0.1192
20158DOD     C2 4294  20.941  27.731  18.632 -0.1324  0.0891 -0.1188
20158DOD     C3 4295  21.117  28.031  18.932  0.2544  0.2354 -0.2179
20159DOD     C1 4296   3.072  18.003  26.806  0.0185  0.4587  0.2686
20159DOD     C2 4297   3.513  18.236  26.702 -0.0846 -0.0877 -0.0481
20159DOD     C3 4298   3.882  18.065  26.471 -0.5066  0.0381 -0.1558
20160DOD     C1 4299   9.195  23.368  12.205 -0.1762  0.2652  0.0882
20160DOD     C2 4300   9.198  22.953  12.380 -0.2440 -0.3824 -0.0087
20160DOD     C3 4301   9.577  22.741  12.383 -0.1427 -0.0884  0.1308
20161DOD     C1 4302  21.943   2.941  15.658  0.1075  0.3834 -0.1450
20161DOD     C2 4303  21.793   2.669  15.991 -0.0112  0.2099  0.2809
20161DOD     C3 4304  21.922   2.425  16.332  0.2539 -0.0723  0.0811
20162DOD     C1 4305  23.002  14.400   4.237 -0.2335 -0.2201  0.2469
20162DOD     C2 4306  22.578  14.250   4.125 -0.0770  0.1778 -0.1047
20162DOD     C3 4307  22.143  14.235   4.221 -0.0987 -0.2002 -0.0329
20163DOD     C1 4308  10.847  23.811   7.236  0.2332  0.1105 -0.1850
20163DOD     C2 4309  10.959  24.125   6.905 -0.1378  0.0270 -0.2418
20163DOD     C3 4310  10.878  24.441   6.626 -0.2208 -0.0226  0.0220
20164DOD     C1 4311  22.641  13.086  28.430 -0.0147 -0.0492  0.0250
20164DOD     C2 4312  22.613  12.925  28.897 -0.1597  0.0281 -0.0626
20164DOD     C3 4313  22.374  12.619  29.169  0.1077  0.1662 -0.2357
20165DOD     C1 4314   5.578  18.183   6.412  0.0009  0.1950  0.3340
20165DOD     C2 4315   5.188  18.404   6.350  0.3263  0.0865  0.0720
20165DOD     C3 4316   4.715  18.431   6.514  0.3801  0.0113  0.1028
20166DOD     C1 4317   7.009   9.439  23.548  0.2039  0.2185 -0.4333
20166DOD     C2 4318   7.010   9.297  23.947  0.0305  0.1082 -0.4601
20166DOD     C3 4319   7.115   8.951  24.245  0.2040  0.0995  0.0438
20167DOD     C1 4320   4.517  19.067  24.013 -0.1106 -0.0615  0.3159
20167DOD     C2 4321   4.183  18.829  23.833  0.2548  0.3894 -0.0655
20167DOD     C3 4322   3.785  18.921  23.641  0.1406  0.0816 -0.0993
20168DOD     C1 4323  11.072   5.075  28.303  0.3718  0.0171  0.0961
20168DOD     C2 4324  11.078   4.646  28.097  0.1053  0.1022 -0.4315
20168DOD     C3 4325  11.214   4.594  27.679 -0.3337 -0.3774 -0.0438
20169DOD     C1 4326  24.776  17.973   3.940  0.0576 -0.0098 -0.1548
20169DOD     C2 4327  25.066  18.187   3.675 -0.3267  0.0929 -0.3090
20169DOD     C3 4328  25.452  18.185   3.430  0.0276 -0.1283  0.1328
20170DOD     C1 4329   2.217  15.708   4.331 -0.3109 -0.1880 -0.2327
20170DOD     C2 4330   2.550  15.463   4.432 -0.2366 -0.1355  0.0738
20170DOD     C3 4331   3.015  15.418   4.376 -0.2187  0.2266  0.0574
20171DOD     C1 4332  10.135  14.276   9.290  0.1126 -0.2318 -0.2112
20171DOD     C2 4333  10.473  14.561   9.472 -0.1810 -0.2325  0.2731
20171DOD     C3 4334  10.520  14.984   9.400  0.1066  0.0199 -0.0066
20172DOD     C1 4335  15.555  19.749  21.046  0.0865 -0.3329 -0.2802
20172DOD     C2 4336  15.262  19.437  21.074  0.0043 -0.0020  0.1400
20172DOD     C3 4337  14.885  19.347  20.811  0.1076  0.4113 -0.0895
20173DOD     C1 4338  15.789   1.069  24.621 -0.1691  0.2413 -0.2762
20173DOD     C2 4339  16.194   0.764  24.634  0.2462 -0.2943  0.0328
20173DOD     C3 4340  16.339   0.460  24.292 -0.1541  0.1200  0.3976
20174DOD     C1 4341   3.161   3.572  29.330 -0.3749  0.0570 -0.1898
20174DOD     C2 4342   2.970   3.334  29.743 -0.1168  0.0085 -0.1863
20174DOD     C3 4343   2.693   3.366  30.114 -0.0725 -0.1139  0.0243
20175DOD     C1 4344  11.415  30.057  30.023 -0.1434  0.0170  0.0887
20175DOD     C2 4345  11.067  -0.017  30.002 -0.0246 -0.0818  0.0029
20175DOD     C3 4346  10.642   0.099  30.121 -0.3327  0.2933  0.1733
20176DOD     C1 4347   4.365  19.278  26.177 -0.1639  0.0730  0.1892
20176DOD     C2 4348   4.552  19.296  25.792 -0.2201 -0.0275  0.1611
20176DOD     C3 4349   4.503  19.376  25.361  0.0279 -0.2773  0.0820
20177DOD     C1 4350   1.160  20.406   9.232  0.2513  0.0159 -0.0956
20177DOD     C2 4351   0.727  20.367   9.084 -0.0975  0.0639 -0.0248
20177DOD     C3 4352   0.269  20.249   9.145 -0.1007 -0.0666  0.1332
20178DOD     C1 4353  16.935  23.769  14.921  0.0584 -0.1125 -0.0831
20178DOD     C2 4354  16.636  23.838  14.500  0.1768  0.0690 -0.0128
20178DOD     C3 4355  16.701  24.052  14.058  0.1834  0.0547 -0.0719
20179DOD     C1 4356  17.416   2.074  17.576 -0.0847 -0.0933  0.2741
20179DOD     C2 4357  17.658   1.880  17.851 -0.1357  0.3202  0.3979
20179DOD     C3 4358  17.834   1.461  17.809  0.1444 -0.4132  0.0350
20180DOD     C1 4359  19.985  21.640   2.829  0.1179  0.0841  0.1267
20180DOD     C2 4360  19.766  22.024   3.061  0.2169 -0.2515  0.0987
20180DOD     C3 4361  19.807  22.470   3.182 -0.2212  0.3092 -0.2938
20181DOD     C1 4362  25.020  12.259  15.132  0.0960  0.1459 -0.1038
20181DOD     C2 4363  25.276  12.215  15.520 -0.0778 -0.3378  0.0085
20181DOD     C3 4364  25.362  12.567  15.789  0.0835  0.1496 -0.1406
20182DOD     C1 4365   0.411  19.167  20.631 -0.0088  0.0804  0.1019
20182DOD     C2 4366  30.278  19.028  20.643 -0.2465 -0.0819 -0.3183
20182DOD     C3 4367  30.013  19.254  20.950 -0.1786  0.3126 -0.2169
20183DOD     C1 4368  27.376  17.950  28.405 -0.4196  0.1212  0.2319
20183DOD     C2 4369  27.564  17.956  27.950  0.3014  0.0569 -0.0367
20183DOD     C3 4370  27.615  18.149  27.522  0.1498 -0.0411  0.1385
20184DOD     C1 4371  19.865  16.766   8.155 -0.1834 -0.1842 -0.1719
20184DOD     C2 4372  19.950  16.264   8.193 -0.0109 -0.0214  0.0904
20184DOD     C3 4373  20.302  16.012   8.135  0.2482 -0.1304 -0.0816
20185DOD     C1 4374   1.939  15.353  27.310 -0.0489  0.0878 -0.3878
20185DOD     C2 4375   1.629  15.731  27.417 -0.1372  0.4568 -0.1496
20185DOD     C3 4376   1.530  16.143  27.180 -0.0083 -0.0332 -0.0032
20186DOD     C1 4377  10.631  20.920  22.523 -0.1742 -0.1966  0.0611
20186DOD     C2 4378  10.256  21.034  22.631  0.1471 -0.2078 -0.0141
20186DOD     C3 4379   9.818  21.101  22.561  0.0945  0.1622 -0.1270
20187DOD     C1 4380  27.885  20.294  11.029 -0.0802  0.2343 -0.0311
20187DOD     C2 4381  27.957  20.772  10.888 -0.3477  0.1244  0.0500
20187DOD     C3 4382  27.987  21.271  10.867  0.0410  0.0624  0.0644
20188DOD     C1 4383   7.344   0.297  15.545 -0.1188  0.1427  0.2946
20188DOD     C2 4384   7.168   0.695  15.303 -0.2163 -0.0705  0.0451
20188DOD     C3 4385   6.983   1.015  15.521  0.0712  0.0780  0.3326
20189DOD     C1 4386   3.776   4.138  25.868  0.0204  0.1670  0.0975
20189DOD     C2 4387   4.186   4.422  25.920 -0.1992 -0.3052 -0.0319
20189DOD     C3 4388   4.396   4.696  25.592 -0.0619  0.2136  0.0404
20190DOD     C1 4389  22.522  25.457  14.339  0.0612  0.0409  0.1849
20190DOD     C2 4390  22.796  25.851  14.373  0.0420 -0.0752  0.2229
20190DOD     C3 4391  22.848  26.318  14.459 -0.3312 -0.0510  0.1294
20191DOD     C1 4392  20.360  27.187  12.954  0.0487  0.2517  0.0763
20191DOD     C2 4393  20.077  26.773  12.960  0.1079  0.0811  0.0831
20191DOD     C3 4394  19.639  26.714  12.967 -0.0054 -0.1176 -0.1925
20192DOD     C1 4395  26.660   4.855  14.047  0.1557 -0.1127 -0.0244
20192DOD     C2 4396  26.869   4.836  14.458 -0.0721  0.2359 -0.3766
20192DOD     C3 4397  27.364   4.783  14.530  0.1594 -0.1325  0.0467
20193DOD     C1 4398  27.693  28.977  29.165 -0.1077 -0.0963  0.0283
20193DOD     C2 4399  27.410  28.893  28.816 -0.2006 -0.0283  0.0738
20193DOD     C3 4400  27.241  28.840  28.402  0.0632  0.2671  0.0284
20194DOD     C1 4401  24.751  18.675  27.074 -0.3516  0.0062  0.1430
20194DOD     C2 4402  24.933  18.986  27.379 -0.2738  0.3167 -0.2180
20194DOD     C3 4403  25.078  18.814  27.817 -0.0004 -0.0086 -0.1249
20195DOD     C1 4404  27.122   2.444   1.276 -0.4304  0.1752 -0.0143
20195DOD     C2 4405  27.033   2.111   0.984 -0.0884  0.1528  0.0236
20195DOD     C3 4406  26.788   1.782   1.159 -0.1178 -0.2393  0.2526
20196DOD     C1 4407  12.070  27.335  11.158 -0.0455 -0.1315  0.2500
20196DOD     C2 4408  11.966  27.111  11.507  0.0621  0.1218 -0.0109
20196DOD     C3 4409  12.071  27.005  11.941 -0.1766 -0.2064  0.0195
20197DOD     C1 4410   3.374  15.107   7.667 -0.1984  0.1862  0.1419
20197DOD     C2 4411   3.774  15.369   7.787  0.1986  0.3057 -0.2423
20197DOD     C3 4412   4.095  15.722   7.958 -0.1127 -0.1849 -0.0231
20198DOD     C1 4413  27.249  13.642  14.467 -0.1526  0.2425  0.3011
20198DOD     C2 4414  27.238  13.222  14.584 -0.2153 -0.1429  0.1175
20198DOD     C3 4415  27.396  12.881  14.778  0.1171  0.1494 -0.1554
20199DOD     C1 4416   9.989  28.051  17.737 -0.0159  0.0135 -0.0527
20199DOD     C2 4417   9.904  27.981  18.222  0.0363 -0.0397 -0.1716
20199DOD     C3 4418   9.594  27.769  18.499  0.0841  0.0035  0.0561
20200DOD     C1 4419   3.540   5.262  10.527 -0.2495  0.0032  0.1199
20200DOD     C2 4420   3.724   4.979  10.821  0.2851  0.2159  0.0062
20200DOD     C3 4421   3.993   4.671  11.036  0.1151 -0.1510  0.1400
20201DOD     C1 4422  28.072  22.626  24.877  0.3814  0.0857  0.1324
20201DOD     C2 4423  28.074  22.882  24.491 -0.0852 -0.2802 -0.1731
20201DOD     C3 4424  27.815  23.259  24.253 -0.1100  0.1302  0.0106
20202DOD     C1 4425  28.269  10.290  28.425 -0.0792 -0.0156 -0.0063
20202DOD     C2 4426  28.469  10.671  28.674  0.2649  0.2397  0.3413
20202DOD     C3 4427  28.850  10.564  28.960 -0.0102  0.0518  0.2134
20203DOD     C1 4428   7.748  16.230  29.038  0.0394 -0.2252  0.1661
20203DOD     C2 4429   7.826  16.129  29.471  0.1158 -0.0207  0.5598
20203DOD     C3 4430   7.829  16.114  29.915 -0.2362  0.0372  0.0575
20204DOD     C1 4431   1.433  16.918   4.573 -0.0648  0.2195  0.0645
20204DOD     C2 4432   1.418  17.163   4.187  0.2174  0.0732 -0.0471
20204DOD     C3 4433   1.385  17.515   3.865  0.1595  0.0308 -0.3093
20205DOD     C1 4434   6.025  24.108  25.166 -0.0324 -0.0541  0.1102
20205DOD     C2 4435   6.472  24.100  25.002  0.1184  0.0489  0.1572
20205DOD     C3 4436   6.869  24.172  25.289 -0.0163 -0.1505  0.0650
20206DOD     C1 4437  16.164  26.389   1.130 -0.1559  0.2334 -0.1883
20206DOD     C2 4438  16.258  26.005   0.911 -0.2615  0.3326  0.1356
20206DOD     C3 4439  16.263  25.530   1.026 -0.0584  0.0151  0.1801
20207DOD     C1 4440  25.796   6.304  16.001  0.0045  0.0287 -0.1353
20207DOD     C2 4441  25.516   6.490  15.759  0.0821 -0.2209  0.0096
20207DOD     C3 4442  25.088   6.739  15.768  0.0350  0.1098 -0.0207
20208DOD     C1 4443   6.928  20.955   8.614  0.1288  0.1340 -0.2340
20208DOD     C2 4444   7.349  21.119   8.573  0.0015  0.1648  0.1882
20208DOD     C3 4445   7.602  21.372   8.307  0.0883 -0.1113  0.1022
20209DOD     C1 4446  21.760  27.146  15.712 -0.0724  0.1082 -0.0033
20209DOD     C2 4447  21.438  27.068  15.985 -0.0350 -0.2911  0.0645
20209DOD     C3 4448  21.176  26.996  16.348 -0.2568  0.1532 -0.1405
20210DOD     C1 4449   5.103   5.625  11.252  0.2656  0.0190  0.1879
20210DOD     C2 4450   4.805   5.953  11.461 -0.2529 -0.0155 -0.2029
20210DOD     C3 4451   4.492   6.237  11.684 -0.0012 -0.2736  0.1125
20211DOD     C1 4452   0.072  17.786   5.507  0.0637 -0.2437  0.0553
20211DOD     C2 4453   0.166  18.217   5.788  0.3974 -0.0555 -0.0812
20211DOD     C3 4454   0.124  18.583   6.062 -0.1146  0.2976  0.3624
20212DOD     C1 4455   8.041   1.520  29.380  0.0266 -0.0645  0.0533
20212DOD     C2 4456   8.184   1.788  29.733  0.0503  0.2776  0.0151
20212DOD     C3 4457   8.392   1.942  30.141  0.1343 -0.5271  0.3669
20213DOD     C1 4458  30.113  12.866  23.788 -0.1330 -0.0217 -0.0046
20213DOD     C2 4459  29.689  12.763  23.613  0.1163 -0.2904 -0.1077
20213DOD     C3 4460  29.239  12.751  23.513 -0.1694  0.0012  0.1002
20214DOD     C1 4461  24.122  13.073  20.183  0.1066  0.1550 -0.0619
20214DOD     C2 4462  23.704  13.112  20.366  0.0190 -0.0601  0.0792
20214DOD     C3 4463  23.310  13.310  20.614 -0.1815 -0.1173 -0.2740
20215DOD     C1 4464   5.744  22.615   2.606 -0.1519 -0.1311  0.0467
20215DOD     C2 4465   5.990  22.893   2.862  0.0172  0.0939 -0.1737
20215DOD     C3 4466   6.228  23.254   2.766 -0.1043  0.0411 -0.3535
20216DOD     C1 4467   4.589  27.880   0.894 -0.4280 -0.0184  0.2915
20216DOD     C2 4468   4.506  28.119   1.333  0.0373  0.1648  0.2453
20216DOD     C3 4469   4.431  28.537   1.596  0.1419 -0.1483  0.2019
20217DOD     C1 4470  28.982   5.874  28.677  0.0040  0.2237 -0.2131
20217DOD     C2 4471  29.344   5.677  28.469  0.0408 -0.0676 -0.2100
20217DOD     C3 4472  29.802   5.692  28.508  0.2300 -0.1138  0.0925
20218DOD     C1 4473  27.425   8.812  15.298  0.0498  0.0538 -0.1284
20218DOD     C2 4474  27.543   9.019  14.886  0.1298 -0.0991 -0.3067
20218DOD     C3 4475  27.272   9.173  14.564 -0.0055  0.1812 -0.1522
20219DOD     C1 4476  27.058   3.813  19.379  0.4401 -0.2306 -0.1100
20219DOD     C2 4477  27.515   3.719  19.339 -0.0106 -0.3759  0.1561
20219DOD     C3 4478  27.941   3.667  19.471 -0.1469 -0.0913 -0.1080
20220DOD     C1 4479  18.454  14.576  10.710  0.1424  0.0953  0.1042
20220DOD     C2 4480  18.665  14.152  10.747 -0.0833  0.2938 -0.1145
20220DOD     C3 4481  18.988  13.850  10.865  0.0919  0.0999 -0.1834
20221DOD     C1 4482  13.405  25.751   2.653 -0.0550 -0.0316 -0.1748
20221DOD     C2 4483  13.635  25.328   2.737 -0.0219 -0.3987  0.1536
20221DOD     C3 4484  14.071  25.140   2.777  0.0433  0.0194 -0.2182
20222DOD     C1 4485   2.465  21.607  28.925  0.0034  0.1552 -0.2956
20222DOD     C2 4486   2.157  21.461  29.266  0.0886 -0.5633 -0.3552
20222DOD     C3 4487   1.946  21.727  29.639 -0.0483 -0.1389  0.1541
20223DOD     C1 4488  12.717  18.646  12.251 -0.1940  0.1767 -0.2353
20223DOD     C2 4489  12.691  18.180  12.397 -0.3294 -0.0481 -0.2851
20223DOD     C3 4490  12.559  17.824  12.670 -0.0983  0.0969 -0.2431
20224DOD     C1 4491  25.708   8.342   3.781 -0.1365  0.1585  0.1422
20224DOD     C2 4492  26.054   8.618   3.763  0.0335  0.0832  0.2211
20224DOD     C3 4493  25.878   8.990   3.776  0.1918  0.0434  0.0672
20225DOD     C1 4494   6.546  22.902   5.952 -0.1018 -0.1488 -0.0747
20225DOD     C2 4495   6.400  23.173   5.581 -0.1442  0.0423  0.0045
20225DOD     C3 4496   6.183  23.386   5.214  0.2035 -0.1419 -0.0873
20226DOD     C1 4497   3.497   2.305   0.813 -0.0217  0.3505 -0.0159
20226DOD     C2 4498   3.254   2.246   1.198  0.2012  0.1484 -0.0337
20226DOD     C3 4499   2.818   2.109   1.397 -0.1940 -0.1951  0.2993
20227DOD     C1 4500  19.007  21.292  27.674  0.0011  0.0124 -0.0541
20227DOD     C2 4501  18.831  21.245  27.195  0.1451  0.2990 -0.1494
20227DOD     C3 4502  18.768  21.064  26.770  0.2412 -0.2082 -0.0427
20228DOD     C1 4503  17.245  24.604  17.817 -0.1315  0.1338 -0.2807
20228DOD     C2 4504  17.380  24.197  17.626  0.2900  0.1324 -0.1034
20228DOD     C3 4505  17.815  24.057  17.458 -0.0113 -0.2517 -0.1125
20229DOD     C1 4506  13.197  22.712   0.807 -0.1243 -0.0185 -0.1878
20229DOD     C2 4507  13.608  22.947   0.845  0.2632 -0.1456  0.1101
20229DOD     C3 4508  14.004  23.016   0.579  0.0289  0.1195  0.0727
20230DOD     C1 4509  11.839  11.779  26.052  0.2104  0.0657 -0.1574
20230DOD     C2 4510  12.285  11.848  25.963  0.0531 -0.0887  0.3221
20230DOD     C3 4511  12.554  12.016  25.702  0.0640  0.0866 -0.0537
20231DOD     C1 4512  24.840  28.282  25.117 -0.0885 -0.0716 -0.0191
20231DOD     C2 4513  24.459  28.103  24.981  0.0337 -0.1023  0.0808
20231DOD     C3 4514  24.007  28.104  24.882  0.0986  0.0046  0.3164
20232DOD     C1 4515   4.407  14.669  17.628 -0.1326 -0.0269  0.2205
20232DOD     C2 4516   4.084  14.379  17.473  0.1238 -0.1167 -0.1058
20232DOD     C3 4517   3.761  13.992  17.501 -0.0722 -0.1267  0.3873
20233DOD     C1 4518  24.661  28.509  17.662  0.0449 -0.4738 -0.1466
20233DOD     C2 4519  24.789  28.103  17.535  0.2180  0.0619 -0.1659
20233DOD     C3 4520  24.434  27.777  17.551  0.0216 -0.1125  0.0326
20234DOD     C1 4521  27.413  11.001  17.025 -0.1560 -0.1098 -0.0003
20234DOD     C2 4522  27.095  11.131  17.366 -0.1951 -0.1361 -0.0442
20234DOD     C3 4523  27.119  11.218  17.792 -0.0238 -0.2871 -0.1922
20235DOD     C1 4524  27.967  13.197   4.259  0.0285 -0.2833  0.0017
20235DOD     C2 4525  27.810  12.801   4.095  0.2572  0.1603  0.2061
20235DOD     C3 4526  27.450  12.567   3.920 -0.1393  0.0639  0.2507
20236DOD     C1 4527  23.823  18.942   1.393  0.1082 -0.1564  0.0163
20236DOD     C2 4528  24.210  19.070   1.151  0.0182  0.2350  0.0627
20236DOD     C3 4529  24.501  19.150   0.838  0.3091 -0.1079  0.0398
20237DOD     C1 4530  11.715  28.487  15.229 -0.0268 -0.1407  0.0041
20237DOD     C2 4531  11.460  28.548  15.599 -0.1431  0.1359  0.1619
20237DOD     C3 4532  11.254  28.311  15.880 -0.1540 -0.0422 -0.3039
20238DOD     C1 4533  13.286  27.033  29.953 -0.0300  0.1822  0.0527
20238DOD     C2 4534  13.743  26.903  30.057 -0.2890  0.1884 -0.3366
20238DOD     C3 4535  14.215  26.915  30.175 -0.1984 -0.0423 -0.2025
20239DOD     C1 4536  15.007  26.217  20.683 -0.0832  0.3038 -0.3379
20239DOD     C2 4537  14.781  26.169  20.263  0.2068  0.3152 -0.0918
20239DOD     C3 4538  14.453  26.268  19.930 -0.0232  0.3532  0.0710
20240DOD     C1 4539  29.415  21.207   8.014  0.2959  0.0697 -0.3400
20240DOD     C2 4540  29.225  20.975   7.687  0.0903 -0.1419 -0.0234
20240DOD     C3 4541  28.711  20.990   7.596 -0.0500 -0.1914  0.3052
20241DOD     C1 4542  11.084  12.202   8.138  0.2576  0.3932  0.0287
20241DOD     C2 4543  11.016  12.202   7.667  0.0500  0.0799  0.2566
20241DOD     C3 4544  11.071  12.353   7.233  0.0069  0.1629 -0.1152
20242DOD     C1 4545  30.149   3.448  27.878  0.0163 -0.1186  0.0622
20242DOD     C2 4546  29.703   3.356  27.898 -0.2568  0.0108  0.0602
20242DOD     C3 4547  29.253   3.295  27.818  0.1939  0.0988 -0.1156
20243DOD     C1 4548  26.340  13.379   5.864 -0.3165  0.1067 -0.0593
20243DOD     C2 4549  26.601  13.093   6.071  0.0587 -0.0559 -0.0643
20243DOD     C3 4550  26.877  12.704   5.914  0.2577 -0.0271 -0.3117
20244DOD     C1 4551  11.511  10.776   2.077  0.0022  0.0292 -0.0729
20244DOD     C2 4552  11.427  10.731   2.541 -0.0110  0.1066  0.1922
20244DOD     C3 4553  11.120  10.770   2.880  0.1930 -0.3961 -0.0241
20245DOD     C1 4554  12.796   4.171  26.558  0.1568  0.0072  0.0886
20245DOD     C2 4555  12.749   4.245  26.979  0.2674  0.0186 -0.1715
20245DOD     C3 4556  12.937   4.131  27.384  0.0182 -0.1305  0.1907
20246DOD     C1 4557   5.112  26.530  11.272  0.2640 -0.1510 -0.0194
20246DOD     C2 4558   4.811  26.322  11.035  0.1016 -0.1256  0.1518
20246DOD     C3 4559   4.790  25.973  10.727 -0.1967  0.1424 -0.0116
20247DOD     C1 4560   1.944  19.781   0.198 -0.1465 -0.3491 -0.1569
20247DOD     C2 4561   2.367  19.559   0.251  0.1228  0.2541  0.0546
20247DOD     C3 4562   2.792  19.497   0.364 -0.0991  0.1620  0.2689
20248DOD     C1 4563  10.256  20.415   0.888 -0.1976  0.0876 -0.0642
20248DOD     C2 4564  10.147  20.226   0.550 -0.0870  0.2252  0.2021
20248DOD     C3 4565   9.968  19.872   0.293 -0.0515  0.1188  0.2185
20249DOD     C1 4566  28.068  24.801   2.173  0.0616  0.0143 -0.1128
20249DOD     C2 4567  27.966  25.284   2.172 -0.0429  0.2129  0.0554
20249DOD     C3 4568  27.605  25.516   2.006 -0.0466  0.0353 -0.0984
20250DOD     C1 4569  22.818  10.486   0.177  0.2667  0.1246  0.1557
20250DOD     C2 4570  23.229  10.252   0.191  0.0096  0.0314 -0.0948
20250DOD     C3 4571  23.546   9.920   0.121  0.2355 -0.0965  0.0577
20251DOD     C1 4572  23.919  12.436  11.157  0.1125  0.0110  0.0594
20251DOD     C2 4573  23.791  12.071  11.426  0.0115 -0.0687 -0.0662
20251DOD     C3 4574  23.429  11.830  11.588 -0.0462 -0.1121 -0.1232
20252DOD     C1 4575  20.218  19.676  12.373 -0.0544 -0.0612 -0.1260
20252DOD     C2 4576  20.552  19.930  12.605  0.0593 -0.0097  0.0424
20252DOD     C3 4577  20.555  20.327  12.876 -0.1053  0.1905 -0.1592
20253DOD     C1 4578   5.559   2.877  11.692 -0.1548  0.0601  0.1444
20253DOD     C2 4579   5.376   2.814  12.102 -0.0019  0.2871  0.1075
20253DOD     C3 4580   5.002   2.738  12.354  0.0668  0.0191 -0.2479
20254DOD     C1 4581   2.675  25.310  25.619  0.2956 -0.1018  0.2227
20254DOD     C2 4582   2.507  25.625  25.246 -0.0991 -0.0179 -0.3094
20254DOD     C3 4583   2.810  25.955  25.028  0.0663  0.2854  0.0158
20255DOD     C1 4584  23.011  20.259  10.913  0.0909  0.0762 -0.2051
20255DOD     C2 4585  22.561  20.293  11.088 -0.0071 -0.2720  0.0957
20255DOD     C3 4586  22.337  20.648  11.267  0.0863 -0.3421  0.0284
20256DOD     C1 4587  16.659  16.227  14.751 -0.0066 -0.0563  0.1274
20256DOD     C2 4588  16.440  16.491  14.507 -0.4426  0.1543 -0.0814
20256DOD     C3 4589  16.448  16.959  14.383 -0.5331  0.2037 -0.0633
20257DOD     C1 4590   9.627   0.582   1.055 -0.0050  0.1170 -0.2437
20257DOD     C2 4591   9.993   0.515   0.750  0.0232 -0.0806  0.4701
20257DOD     C3 4592  10.478   0.471   0.701 -0.1290 -0.0568  0.0232
20258DOD     C1 4593  22.941   2.456  23.298 -0.2461 -0.2744 -0.2847
20258DOD     C2 4594  23.379   2.499  23.237  0.2340  0.1794 -0.0238
20258DOD     C3 4595  23.851   2.394  23.169 -0.3102  0.1972 -0.1150
20259DOD     C1 4596  17.078   1.624  24.237  0.0172  0.1991  0.1063
20259DOD     C2 4597  17.065   1.550  24.715  0.0742  0.0978  0.0203
20259DOD     C3 4598  17.304   1.618  25.112  0.2000 -0.2715  0.4399
20260DOD     C1 4599   6.662  16.345  13.754  0.2150 -0.1304 -0.0941
20260DOD     C2 4600   6.846  15.900  13.643 -0.0010  0.0002  0.3443
20260DOD     C3 4601   6.585  15.633  13.465  0.1659 -0.2914 -0.3320
20261DOD     C1 4602  11.656  26.589  13.501 -0.1380 -0.0924  0.0596
20261DOD     C2 4603  11.927  26.924  13.486 -0.1703 -0.0040 -0.1747
20261DOD     C3 4604  11.790  27.325  13.571  0.0044  0.2440  0.4305
20262DOD     C1 4605  26.082   8.135  13.568 -0.0704  0.0120  0.1128
20262DOD     C2 4606  25.740   7.825  13.647  0.3787 -0.1347 -0.2062
20262DOD     C3 4607  25.321   7.681  13.846  0.1556 -0.1079  0.1219
20263DOD     C1 4608  17.867   8.462  16.792  0.1623 -0.0255  0.1878
20263DOD     C2 4609  17.596   8.485  16.431 -0.2129 -0.3033 -0.0631
20263DOD     C3 4610  17.287   8.745  16.166  0.3889  0.2998 -0.0848
20264DOD     C1 4611  26.399  25.084   9.609 -0.3741 -0.0015  0.2144
20264DOD     C2 4612  26.360  24.715   9.268  0.0393  0.0796 -0.1926
20264DOD     C3 4613  26.155  24.332   9.154  0.4006  0.0880 -0.1847
20265DOD     C1 4614  29.377   7.332  20.090 -0.1679  0.0901  0.1700
20265DOD     C2 4615  29.510   7.520  20.464 -0.0048 -0.0201 -0.2633
20265DOD     C3 4616  29.767   7.650  20.858  0.2259 -0.4096  0.0164
20266DOD     C1 4617  22.955  14.778  17.189 -0.1004 -0.0329 -0.0540
20266DOD     C2 4618  22.887  14.802  16.811  0.1034 -0.2296  0.0770
20266DOD     C3 4619  22.922  14.563  16.427  0.1205  0.3304  0.0811
20267DOD     C1 4620  15.448  16.800  20.406  0.0416  0.2022 -0.0720
20267DOD     C2 4621  15.853  16.970  20.661  0.1623 -0.1597 -0.1309
20267DOD     C3 4622  16.198  17.194  20.929 -0.1145  0.0594 -0.0404
20268DOD     C1 4623  13.552  27.819  16.301 -0.1563 -0.0659  0.0929
20268DOD     C2 4624  13.844  27.904  15.968 -0.2536  0.0923 -0.0720
20268DOD     C3 4625  14.013  28.123  15.600 -0.1613 -0.0133  0.2671
20269DOD     C1 4626  23.439  18.367  21.752  0.4221  0.2375 -0.0576
20269DOD     C2 4627  23.178  18.774  21.726 -0.0317 -0.1229  0.4262
20269DOD     C3 4628  22.998  19.029  22.088  0.0342  0.0011  0.0851
20270DOD     C1 4629   9.090  23.297   9.607  0.1390 -0.1590 -0.3555
20270DOD     C2 4630   8.905  23.666   9.355  0.0618 -0.0118 -0.1331
20270DOD     C3 4631   8.786  23.695   8.883 -0.0323 -0.4046 -0.1184
20271DOD     C1 4632   8.377  24.580  16.151  0.2181 -0.1378  0.0130
20271DOD     C2 4633   8.621  24.261  15.863 -0.0361 -0.0946 -0.2492
20271DOD     C3 4634   8.796  23.824  15.856  0.0113 -0.0644 -0.2063
20272DOD     C1 4635  12.965   1.141  29.840  0.0220 -0.1557  0.1108
20272DOD     C2 4636  12.795   0.720  29.697 -0.2401 -0.0633  0.1564
20272DOD     C3 4637  12.370   0.587  29.530  0.0952 -0.2543 -0.4296
20273DOD     C1 4638  17.123  22.846  25.924 -0.0040  0.2538  0.1821
20273DOD     C2 4639  16.854  22.458  25.945  0.3746 -0.5320 -0.1021
20273DOD     C3 4640  16.471  22.277  25.678  0.1296  0.4876 -0.1084
20274DOD     C1 4641   4.649  26.862  11.277  0.3364 -0.3389  0.0061
20274DOD     C2 4642   4.502  26.739  11.697  0.2403  0.0276  0.1108
20274DOD     C3 4643   4.223  26.950  11.993 -0.0041 -0.0119  0.3690
20275DOD     C1 4644  20.735   7.360  26.481 -0.0347  0.0143 -0.3224
20275DOD     C2 4645  20.661   7.435  26.014  0.2169 -0.2704  0.0152
20275DOD     C3 4646  20.648   7.379  25.548  0.0879 -0.0908 -0.1758
20276DOD     C1 4647  13.777   5.392  25.530 -0.0627  0.0213 -0.3144
20276DOD     C2 4648  14.128   5.597  25.647 -0.3138  0.0169  0.3963
20276DOD     C3 4649  14.171   5.828  25.982  0.3404  0.0416  0.0989
20277DOD     C1 4650  28.662  13.149  18.637  0.1112 -0.0550  0.1320
20277DOD     C2 4651  28.540  12.778  18.344  0.3102  0.0920 -0.0213
20277DOD     C3 4652  28.439  12.501  17.988  0.4168  0.0395  0.0977
20278DOD     C1 4653  27.769   1.842  16.928 -0.1434 -0.1267  0.0259
20278DOD     C2 4654  27.945   2.205  17.198  0.2256  0.1678  0.0777
20278DOD     C3 4655  28.335   2.407  17.424 -0.0718  0.0947  0.1566
20279DOD     C1 4656  25.472   6.031  23.063 -0.1222  0.1909  0.0468
20279DOD     C2 4657  25.914   6.055  23.226 -0.0944 -0.0433 -0.0673
20279DOD     C3 4658  26.382   6.077  23.287 -0.0871  0.0499  0.1950
20280DOD     C1 4659  29.676  25.642   6.972 -0.2071  0.0241  0.1006
20280DOD     C2 4660  29.450  25.577   6.593 -0.0410 -0.0187  0.3626
20280DOD     C3 4661  29.067  25.792   6.468  0.0885  0.0583  0.0120
20281DOD     C1 4662   0.162   4.928  11.014 -0.0773  0.0616 -0.0228
20281DOD     C2 4663   0.508   5.151  10.746 -0.0389 -0.0554 -0.1036
20281DOD     C3 4664   0.933   5.128  10.840 -0.0213 -0.0407 -0.2521
20282DOD     C1 4665  15.429   5.090  25.161 -0.2304 -0.2856 -0.0474
20282DOD     C2 4666  15.740   5.225  25.510 -0.1126 -0.1316  0.0872
20282DOD     C3 4667  16.192   5.106  25.626  0.0439  0.0471  0.2145
20283DOD     C1 4668  21.013  11.316   8.356 -0.5851 -0.0492 -0.0198
20283DOD     C2 4669  21.177  11.085   8.776  0.1176 -0.0610  0.0076
20283DOD     C3 4670  21.379  10.774   8.998  0.2539 -0.1707 -0.0836
20284DOD     C1 4671   5.422   9.345   3.436 -0.0106  0.0267  0.1374
20284DOD     C2 4672   5.761   9.339   3.749  0.2683  0.0950 -0.2734
20284DOD     C3 4673   6.144   9.463   3.954  0.0006 -0.0864 -0.2913
20285DOD     C1 4674  13.877   0.667  28.298 -0.0960  0.3752 -0.2866
20285DOD     C2 4675  14.085   0.402  28.620 -0.0941  0.4464  0.0897
20285DOD     C3 4676  14.116   0.568  29.065 -0.1204 -0.0717 -0.0307
20286DOD     C1 4677   9.405  10.087   9.976  0.0607 -0.3684  0.0919
20286DOD     C2 4678   9.503   9.776   9.613 -0.2240 -0.0200  0.0373
20286DOD     C3 4679   9.762   9.405   9.568  0.1514  0.3454 -0.5416
20287DOD     C1 4680  25.826  20.818  17.926 -0.0606  0.3502 -0.1525
20287DOD     C2 4681  25.978  21.021  18.322 -0.2213 -0.1499 -0.0109
20287DOD     C3 4682  26.101  21.509  18.397 -0.0479  0.0559 -0.1163
20288DOD     C1 4683   3.329   1.788  29.311  0.1169  0.1702 -0.1043
20288DOD     C2 4684   3.226   1.441  29.074  0.1760 -0.1368 -0.0259
20288DOD     C3 4685   3.384   1.088  28.878 -0.1629 -0.1252 -0.1792
20289DOD     C1 4686  22.832  25.654   3.085 -0.2643 -0.0726  0.0261
20289DOD     C2 4687  23.206  25.823   3.222  0.2099 -0.1950 -0.0616
20289DOD     C3 4688  23.659  25.840   3.262  0.3624  0.2198 -0.0481
20290DOD     C1 4689   1.365  28.812   7.808 -0.1864  0.0494  0.1073
20290DOD     C2 4690   1.386  28.352   7.809 -0.1094 -0.0686 -0.0942
20290DOD     C3 4691   1.271  27.882   7.831  0.0007  0.2317  0.0785
20291DOD     C1 4692   2.870  10.459  25.547 -0.0568 -0.1047 -0.1267
20291DOD     C2 4693   2.817  10.687  25.129 -0.3003 -0.1781 -0.0741
20291DOD     C3 4694   3.042  10.917  24.786 -0.0407 -0.3634 -0.0991
20292DOD     C1 4695   8.206  11.568  14.488 -0.2059 -0.1825 -0.0627
20292DOD     C2 4696   8.215  11.833  14.158 -0.0880  0.0373  0.1661
20292DOD     C3 4697   8.063  12.050  13.715  0.2354  0.3296 -0.0331
20293DOD     C1 4698   5.714  22.042  11.264 -0.0948  0.2929  0.2598
20293DOD     C2 4699   5.753  21.614  11.147  0.0967  0.0608 -0.2661
20293DOD     C3 4700   5.727  21.131  11.122 -0.3560 -0.0939  0.1025
20294DOD     C1 4701   9.855  12.056  23.960 -0.1223 -0.4685  0.0896
20294DOD     C2 4702   9.489  12.194  23.674  0.0162 -0.1589  0.3624
20294DOD     C3 4703   9.234  12.502  23.474  0.0275  0.0995  0.1372
20295DOD     C1 4704  14.829   5.932  10.945  0.1178 -0.0595  0.0073
20295DOD     C2 4705  14.917   6.417  10.928 -0.1730 -0.0645 -0.3780
20295DOD     C3 4706  15.144   6.782  10.728  0.3993 -0.5404 -0.1780
20296DOD     C1 4707  27.610  10.454  18.163  0.0335  0.0884  0.2677
20296DOD     C2 4708  27.814  10.804  17.959 -0.2004 -0.2150 -0.0827
20296DOD     C3 4709  27.658  11.215  17.963  0.3532 -0.0663  0.1993
20297DOD     C1 4710   6.884  14.715  24.571 -0.3456  0.0590 -0.2673
20297DOD     C2 4711   6.887  14.480  24.138 -0.0574 -0.2591  0.0002
20297DOD     C3 4712   6.906  14.065  23.915  0.1658 -0.2683  0.1051
20298DOD     C1 4713   7.463  16.887  11.116  0.3028 -0.2788  0.0957
20298DOD     C2 4714   7.424  16.424  11.032  0.0278 -0.1511  0.0756
20298DOD     C3 4715   7.184  16.121  10.770 -0.0588  0.0171  0.0959
20299DOD     C1 4716   7.344  30.003   0.229 -0.0378 -0.2779  0.0660
20299DOD     C2 4717   7.173  30.213  30.145  0.2569 -0.0805  0.0552
20299DOD     C3 4718   6.728  30.160  29.966 -0.0033 -0.0983  0.0869
20300DOD     C1 4719  16.236  21.773  13.817  0.1344 -0.1195  0.0295
20300DOD     C2 4720  16.379  22.218  13.624  0.0979  0.0851  0.1689
20300DOD     C3 4721  16.590  22.670  13.605 -0.0391  0.1197  0.0761
20301DOD     C1 4722   5.121   7.564  17.238 -0.1029 -0.1271  0.1512
20301DOD     C2 4723   5.358   7.949  17.489 -0.0401  0.0685 -0.0385
20301DOD     C3 4724   5.666   8.114  17.781 -0.2169 -0.1081 -0.2385
20302DOD     C1 4725   0.423  21.882   2.874 -0.0514 -0.1089 -0.1203
20302DOD     C2 4726   0.658  22.265   2.753  0.0771  0.3246 -0.1824
20302DOD     C3 4727   0.863  22.650   2.604 -0.0569 -0.1777 -0.3303
20303DOD     C1 4728  12.713  24.030  13.540  0.0499 -0.1521  0.2103
20303DOD     C2 4729  13.102  23.879  13.689 -0.1616  0.2705 -0.3471
20303DOD     C3 4730  13.379  23.567  13.911 -0.0820  0.1421  0.0724
20304DOD     C1 4731  19.227  18.438   4.616 -0.0367 -0.0666  0.0062
20304DOD     C2 4732  19.166  18.067   4.868  0.1206 -0.2567  0.0301
20304DOD     C3 4733  19.389  18.171   5.260 -0.0127 -0.1191  0.2216
20305DOD     C1 4734   5.986  26.232  29.485 -0.1860  0.0718 -0.0223
20305DOD     C2 4735   6.163  25.825  29.482 -0.0277 -0.0357  0.1586
20305DOD     C3 4736   6.451  25.525  29.401 -0.2434  0.3532 -0.0511
20306DOD     C1 4737  29.370  26.889   0.420 -0.1574  0.0300  0.1515
20306DOD     C2 4738  29.526  27.200   0.768  0.1772 -0.2921  0.0453
20306DOD     C3 4739  29.840  27.523   0.955  0.0298 -0.2611  0.1390
20307DOD     C1 4740   1.919  13.339  15.771  0.2492  0.1743 -0.4092
20307DOD     C2 4741   1.577  13.381  16.090  0.0126  0.0059  0.1367
20307DOD     C3 4742   1.287  13.530  16.377  0.2710  0.1606 -0.1532
20308DOD     C1 4743   8.542  23.293   8.896 -0.2388 -0.0228 -0.1676
20308DOD     C2 4744   8.291  23.209   8.522  0.1157  0.0133  0.0588
20308DOD     C3 4745   8.344  22.946   8.086  0.1790 -0.0690 -0.0130
20309DOD     C1 4746  28.181  13.414  10.683 -0.0817  0.0531 -0.0591
20309DOD     C2 4747  28.542  13.470  11.028 -0.1797 -0.0362 -0.3989
20309DOD     C3 4748  28.943  13.682  11.058 -0.1735  0.1770  0.0867
20310DOD     C1 4749   3.997  10.779  18.902  0.0760  0.0003  0.1060
20310DOD     C2 4750   4.007  10.488  19.331 -0.2618 -0.0005  0.0126
20310DOD     C3 4751   3.910  10.412  19.793 -0.2921 -0.1712 -0.0028
20311DOD     C1 4752  16.831   0.540  17.147  0.1947 -0.2303  0.0839
20311DOD     C2 4753  17.052   0.433  16.683  0.0879 -0.1941 -0.2488
20311DOD     C3 4754  17.033   0.660  16.263  0.2395 -0.0777 -0.1714
20312DOD     C1 4755   3.209   7.282   5.562  0.2843  0.0704  0.0690
20312DOD     C2 4756   3.259   7.662   5.272  0.2460  0.0756 -0.0051
20312DOD     C3 4757   3.554   7.856   4.951 -0.0750 -0.2215 -0.0368
20313DOD     C1 4758  22.759  13.361  22.530 -0.0599  0.2274  0.3710
20313DOD     C2 4759  23.069  13.654  22.290 -0.0875  0.1977 -0.0193
20313DOD     C3 4760  23.293  14.002  22.167 -0.0009 -0.0113  0.2247
20314DOD     C1 4761  12.042   4.159  22.487  0.2377 -0.0630 -0.1308
20314DOD     C2 4762  11.594   4.097  22.559 -0.0940 -0.0024  0.0575
20314DOD     C3 4763  11.343   3.953  22.897 -0.2388  0.1083 -0.1217
20315DOD     C1 4764   6.390   9.892   8.491  0.1938  0.2094 -0.2553
20315DOD     C2 4765   6.840   9.681   8.555  0.2206 -0.1442  0.0329
20315DOD     C3 4766   7.198   9.666   8.202  0.0797 -0.1048  0.0869
20316DOD     C1 4767  20.521  16.000  16.624 -0.0526 -0.1035 -0.0445
20316DOD     C2 4768  20.451  16.049  17.111 -0.0681 -0.4599  0.0566
20316DOD     C3 4769  20.326  16.407  17.412 -0.1649 -0.1868 -0.2499
20317DOD     C1 4770  30.021  18.980   4.173  0.3268 -0.0979 -0.0772
20317DOD     C2 4771  29.573  19.098   4.259 -0.0270 -0.4379 -0.0747
20317DOD     C3 4772  29.302  19.276   4.596 -0.0788  0.2475 -0.2200
20318DOD     C1 4773  15.184   4.571   5.965  0.0869 -0.2322 -0.2841
20318DOD     C2 4774  14.871   4.588   6.346  0.1593  0.2309  0.3881
20318DOD     C3 4775  14.913   4.306   6.710 -0.4356  0.1739 -0.2524
20319DOD     C1 4776  26.953   1.766  20.308 -0.0827  0.1611 -0.0948
20319DOD     C2 4777  26.822   1.363  20.527  0.3784  0.2325  0.1070
20319DOD     C3 4778  26.763   1.059  20.875  0.0335 -0.2029 -0.0594
20320DOD     C1 4779  17.979   0.959  28.955  0.1698 -0.2895 -0.0225
20320DOD     C2 4780  18.408   0.807  28.801 -0.1647 -0.0294  0.0684
20320DOD     C3 4781  18.794   0.922  28.476 -0.2045  0.0761 -0.3597
20321DOD     C1 4782  19.323   9.795   2.393 -0.1071  0.1798 -0.0336
20321DOD     C2 4783  18.892   9.916   2.606 -0.0970  0.2376  0.1624
20321DOD     C3 4784  18.524  10.160   2.658  0.0154  0.0718 -0.2039
20322DOD     C1 4785   1.298  22.449  19.769  0.0068 -0.0088  0.1034
20322DOD     C2 4786   1.309  22.784  19.431  0.2216 -0.1181  0.0927
20322DOD     C3 4787   1.559  22.971  19.138  0.3594 -0.0225  0.2858
20323DOD     C1 4788  26.002  15.336   3.664  0.0215 -0.0926 -0.4824
20323DOD     C2 4789  26.300  15.514   4.044 -0.1243 -0.0811 -0.2694
20323DOD     C3 4790  26.385  15.956   3.988  0.0443  0.1316  0.0950
20324DOD     C1 4791   7.427   0.615   5.019 -0.2179 -0.1388  0.3024
20324DOD     C2 4792   7.126   0.911   4.932 -0.3851 -0.0556 -0.1869
20324DOD     C3 4793   6.644   0.850   4.957  0.1557 -0.1644 -0.3960
20325DOD     C1 4794  12.268   4.740  14.781  0.3048 -0.3432 -0.0723
20325DOD     C2 4795  12.489   5.077  14.463  0.0353 -0.1646 -0.1179
20325DOD     C3 4796  12.481   5.526  14.482  0.0402  0.0833  0.0173
20326DOD     C1 4797   8.657   4.133   8.338 -0.0487  0.1668  0.1468
20326DOD     C2 4798   8.345   4.454   8.446  0.2804  0.1754 -0.4044
20326DOD     C3 4799   8.163   4.837   8.241 -0.1884 -0.0813 -0.0044
20327DOD     C1 4800  11.397  24.031  20.295 -0.2761  0.2934 -0.1341
20327DOD     C2 4801  11.453  23.962  19.818 -0.1739 -0.0139  0.0522
20327DOD     C3 4802  11.202  23.923  19.484 -0.0271  0.0278 -0.1693
20328DOD     C1 4803  10.221   3.655  14.382 -0.2352 -0.0885  0.1602
20328DOD     C2 4804   9.776   3.579  14.319 -0.0367  0.0240 -0.0759
20328DOD     C3 4805   9.393   3.719  14.071  0.5651  0.1451  0.0425
20329DOD     C1 4806  24.108  22.022  24.497 -0.0169  0.1847  0.2671
20329DOD     C2 4807  24.385  22.273  24.798 -0.0206  0.3204 -0.0746
20329DOD     C3 4808  24.536  22.688  24.944 -0.1083 -0.2060 -0.1583
20330DOD     C1 4809  10.009   0.627  21.410 -0.0078 -0.1375 -0.2003
20330DOD     C2 4810   9.569   0.664  21.266  0.0048  0.0792  0.0307
20330DOD     C3 4811   9.372   0.863  20.902 -0.2231 -0.2700 -0.0030
20331DOD     C1 4812   0.416  20.539  18.101 -0.2760  0.1117  0.1874
20331DOD     C2 4813   0.612  20.346  18.477 -0.3881  0.0000 -0.0415
20331DOD     C3 4814   0.514  20.221  18.909  0.0567 -0.0374 -0.0187
20332DOD     C1 4815   6.290  18.866   4.095  0.1391 -0.2662 -0.1688
20332DOD     C2 4816   6.135  18.580   4.403 -0.0195 -0.0838  0.1564
20332DOD     C3 4817   5.716  18.438   4.559 -0.0511 -0.3023 -0.1477
20333DOD     C1 4818   4.908  10.215  13.643  0.1390  0.0843  0.1202
20333DOD     C2 4819   5.017  10.561  13.931 -0.0205 -0.1850  0.1228
20333DOD     C3 4820   5.207  11.030  13.805  0.1362 -0.1604  0.0696
20334DOD     C1 4821  15.361  29.771   3.717 -0.1820 -0.1926  0.2280
20334DOD     C2 4822  15.807  29.663   3.802 -0.0661  0.1728  0.2145
20334DOD     C3 4823  16.065  29.338   3.995 -0.1702 -0.1253  0.2679
20335DOD     C1 4824  11.656  27.932  11.581 -0.1237 -0.0210  0.0543
20335DOD     C2 4825  12.099  28.015  11.442  0.0923  0.2532  0.0714
20335DOD     C3 4826  12.542  28.094  11.303 -0.2820 -0.1700 -0.0888
20336DOD     C1 4827   6.003   9.633   6.985 -0.0345 -0.2716  0.0428
20336DOD     C2 4828   6.017   9.313   7.274  0.0911  0.1647 -0.0349
20336DOD     C3 4829   6.300   8.968   7.463 -0.1332  0.0213 -0.0663
20337DOD     C1 4830  12.301  10.210  10.582  0.0293  0.0137 -0.2628
20337DOD     C2 4831  11.864  10.016  10.502  0.2584 -0.3145  0.2871
20337DOD     C3 4832  11.562   9.704  10.322 -0.1001  0.0938  0.1796
20338DOD     C1 4833  11.632  23.950  13.136 -0.2715  0.0423 -0.3238
20338DOD     C2 4834  11.213  23.870  12.983 -0.0809 -0.1852  0.1947
20338DOD     C3 4835  10.900  24.177  12.979 -0.0069  0.0372  0.1332
20339DOD     C1 4836  22.261  18.616  21.057 -0.2998  0.0056  0.3325
20339DOD     C2 4837  22.609  18.297  21.121  0.0771 -0.0206 -0.0420
20339DOD     C3 4838  22.950  17.970  21.001 -0.1141  0.0925  0.1259
20340DOD     C1 4839  22.494  22.326   3.386  0.0792  0.1257 -0.4422
20340DOD     C2 4840  22.817  21.989   3.433  0.0253  0.0975  0.1569
20340DOD     C3 4841  22.959  21.651   3.178 -0.2634  0.0579 -0.1466
20341DOD     C1 4842  19.961  20.646  10.162 -0.2608  0.3735  0.1453
20341DOD     C2 4843  20.305  20.416  10.333  0.2991 -0.1873 -0.3387
20341DOD     C3 4844  20.717  20.429  10.122 -0.0838  0.0438 -0.0641
20342DOD     C1 4845   3.071  19.715  11.686 -0.0236 -0.2309  0.2270
20342DOD     C2 4846   2.969  19.212  11.654  0.1581 -0.2051  0.1052
20342DOD     C3 4847   3.143  18.789  11.537  0.3406 -0.2554 -0.1427
20343DOD     C1 4848   8.385  30.192   8.691 -0.0993 -0.0361  0.3055
20343DOD     C2 4849   8.370  30.334   8.193 -0.4261  0.1387 -0.0253
20343DOD     C3 4850   8.387  30.095   7.789  0.2163 -0.0656 -0.0466
20344DOD     C1 4851  20.599   0.294   0.179 -0.0733 -0.1968  0.0458
20344DOD     C2 4852  20.501   0.047  30.157 -0.0126 -0.0472 -0.1094
20344DOD     C3 4853  20.124   0.088  29.895  0.0514  0.1667  0.2260
20345DOD     C1 4854  28.536  25.606   6.645  0.2229  0.1372 -0.1058
20345DOD     C2 4855  28.316  25.500   6.240 -0.2973  0.1313 -0.1677
20345DOD     C3 4856  28.395  25.753   5.821 -0.1659 -0.1313  0.1770
20346DOD     C1 4857  21.921   4.237   9.242  0.1121  0.0431 -0.0634
20346DOD     C2 4858  21.643   4.028   8.934  0.1011 -0.1166  0.2079
20346DOD     C3 4859  21.472   3.637   9.074 -0.0223 -0.0918  0.3191
20347DOD     C1 4860  22.307  22.122  10.264 -0.2833 -0.2537  0.0501
20347DOD     C2 4861  22.464  22.158   9.811  0.0704 -0.0381 -0.0597
20347DOD     C3 4862  22.272  22.428   9.485 -0.0564 -0.2005 -0.1821
20348DOD     C1 4863  12.205   2.690  17.010  0.0530 -0.1160  0.0695
20348DOD     C2 4864  11.852   2.469  17.259  0.2749  0.4122  0.2811
20348DOD     C3 4865  11.671   2.686  17.588  0.0383 -0.1310  0.1274
20349DOD     C1 4866  24.544  18.244  22.696 -0.0399 -0.2672 -0.1141
20349DOD     C2 4867  24.692  17.836  22.940  0.2644  0.2203  0.0610
20349DOD     C3 4868  24.530  17.552  23.209  0.3018  0.2220  0.0838
20350DOD     C1 4869  11.031  11.256  11.348 -0.0660 -0.1308  0.1415
20350DOD     C2 4870  11.221  10.849  11.244 -0.0574 -0.2203 -0.0447
20350DOD     C3 4871  11.575  10.530  11.274 -0.3978 -0.3750 -0.2429
20351DOD     C1 4872   7.491  29.890  11.296 -0.0409 -0.5147 -0.0610
20351DOD     C2 4873   7.060  30.073  11.126 -0.3520  0.1451  0.2289
20351DOD     C3 4874   6.995   0.238  11.061  0.3143 -0.0000  0.0553
20352DOD     C1 4875   6.711  17.144  16.691  0.0831 -0.3557 -0.0854
20352DOD     C2 4876   6.636  16.778  16.930 -0.0357  0.2418  0.2847
20352DOD     C3 4877   6.881  16.416  17.126  0.1073 -0.1768 -0.0524
20353DOD     C1 4878  18.157   7.652  20.071  0.0646  0.0682 -0.0072
20353DOD     C2 4879  17.925   7.998  19.850  0.0854  0.2863  0.0296
20353DOD     C3 4880  17.700   7.963  19.415  0.2121 -0.0351  0.0432
20354DOD     C1 4881  29.680  25.174  20.927 -0.0044 -0.1941  0.1683
20354DOD     C2 4882  29.499  25.585  21.097  0.1252 -0.0734 -0.1296
20354DOD     C3 4883  29.418  25.942  21.309  0.2122  0.2235  0.0138
20355DOD     C1 4884   9.693  19.210   6.241 -0.0474  0.2471 -0.2103
20355DOD     C2 4885   9.471  18.846   6.134  0.1917  0.1160  0.2778
20355DOD     C3 4886   9.346  18.469   6.347  0.1426  0.1058 -0.3947
20356DOD     C1 4887   3.408   9.789  15.526 -0.1362 -0.1416  0.3865
20356DOD     C2 4888   3.418  10.203  15.315 -0.2445 -0.0082  0.1182
20356DOD     C3 4889   3.432  10.596  15.029  0.1833  0.1805  0.0734
20357DOD     C1 4890   2.097   2.306  15.409  0.1223  0.0398  0.2136
20357DOD     C2 4891   1.847   2.552  15.681  0.4405 -0.0653  0.1463
20357DOD     C3 4892   1.869   2.879  16.017 -0.1300 -0.0608 -0.1513
20358DOD     C1 4893  27.840  15.446  10.682  0.0394 -0.0491 -0.2394
20358DOD     C2 4894  28.045  15.821  10.843 -0.1797 -0.1160  0.0620
20358DOD     C3 4895  28.223  16.254  11.002 -0.0925 -0.0574  0.0871
20359DOD     C1 4896   7.010   1.979   5.491 -0.2793  0.1801  0.0855
20359DOD     C2 4897   6.642   1.711   5.651  0.0404 -0.2569  0.1083
20359DOD     C3 4898   6.287   1.921   5.882  0.0746 -0.0127  0.0238
20360DOD     C1 4899   6.821  15.032  26.119 -0.0891  0.0709 -0.1003
20360DOD     C2 4900   6.982  15.172  26.532 -0.2541 -0.1659  0.1766
20360DOD     C3 4901   7.420  15.220  26.698  0.0479  0.2311 -0.1620
20361DOD     C1 4902  15.243   0.641   4.138  0.0156  0.1288 -0.0061
20361DOD     C2 4903  15.725   0.553   4.229  0.2212 -0.0399  0.0741
20361DOD     C3 4904  16.176   0.689   4.234  0.0716 -0.1075  0.3393
20362DOD     C1 4905  14.269  20.650   7.409 -0.0138  0.1020 -0.1707
20362DOD     C2 4906  14.273  21.110   7.359 -0.2019  0.5805  0.1894
20362DOD     C3 4907  14.615  21.421   7.566  0.1784  0.1783  0.2522
20363DOD     C1 4908  26.079   3.440   4.515  0.2294 -0.2189  0.2161
20363DOD     C2 4909  25.693   3.498   4.318 -0.0648  0.2246 -0.0068
20363DOD     C3 4910  25.428   3.774   4.092  0.0489 -0.0449 -0.0634
20364DOD     C1 4911   6.140  23.508  21.819  0.2098  0.0870  0.1018
20364DOD     C2 4912   6.464  23.707  21.547  0.1619 -0.0887 -0.1243
20364DOD     C3 4913   6.503  24.083  21.223  0.5183  0.2442 -0.2390
20365DOD     C1 4914  21.922  16.717  28.412  0.0121 -0.0072 -0.1611
20365DOD     C2 4915  21.835  16.211  28.378 -0.0455 -0.0511 -0.1265
20365DOD     C3 4916  21.918  15.794  28.479 -0.1446 -0.3323  0.1041
20366DOD     C1 4917   1.234  16.065  24.681 -0.0781  0.1623 -0.4312
20366DOD     C2 4918   1.208  15.811  24.264 -0.2618  0.0801  0.1286
20366DOD     C3 4919   1.168  15.593  23.915  0.3359 -0.0241  0.0646
20367DOD     C1 4920  17.206  29.536  22.101  0.1408 -0.0826  0.1379
20367DOD     C2 4921  17.693  29.582  22.175  0.1062 -0.0748  0.1015
20367DOD     C3 4922  18.102  29.623  22.393 -0.3345  0.0241 -0.4845
20368DOD     C1 4923  27.446  13.434  21.358 -0.1180  0.0868  0.0814
20368DOD     C2 4924  27.172  13.355  20.967 -0.0114 -0.0822  0.1541
20368DOD     C3 4925  26.936  13.485  20.575  0.0606  0.0165 -0.0937
20369DOD     C1 4926  17.091   1.587   2.242  0.0722 -0.2629 -0.1575
20369DOD     C2 4927  16.837   1.716   1.876  0.1570 -0.1545 -0.1296
20369DOD     C3 4928  16.603   1.900   1.548 -0.2210  0.0871 -0.1679
20370DOD     C1 4929  14.418  11.843  16.654  0.0375 -0.0774 -0.2148
20370DOD     C2 4930  14.150  12.053  16.334 -0.0681  0.1336  0.3327
20370DOD     C3 4931  14.289  12.245  15.910 -0.1653  0.3214  0.2312
20371DOD     C1 4932  24.576  15.122  11.590  0.0291 -0.0458  0.2486
20371DOD     C2 4933  24.455  15.138  12.038 -0.0511 -0.0538 -0.1913
20371DOD     C3 4934  24.036  15.251  12.301  0.0341 -0.2102  0.2029
20372DOD     C1 4935  13.699   3.706  14.653 -0.2917  0.3261 -0.0535
20372DOD     C2 4936  13.869   4.090  14.475 -0.1190  0.1742  0.1830
20372DOD     C3 4937  13.796   4.357  14.148  0.1042 -0.0585 -0.1506
20373DOD     C1 4938  10.913  16.204  22.232  0.2049  0.3367 -0.1760
20373DOD     C2 4939  10.927  16.112  22.699  0.0016 -0.1901 -0.0589
20373DOD     C3 4940  10.982  16.178  23.160 -0.0331 -0.1905 -0.0409
20374DOD     C1 4941  17.847   9.495  23.943  0.1170  0.1742  0.3840
20374DOD     C2 4942  17.492   9.634  23.643  0.1232  0.1538  0.1184
20374DOD     C3 4943  17.191   9.661  23.343  0.1016  0.0046  0.0183
20375DOD     C1 4944  29.174  13.703  16.011 -0.0638  0.1558 -0.1233
20375DOD     C2 4945  28.967  13.539  15.667  0.1305  0.3491  0.1088
20375DOD     C3 4946  28.917  13.528  15.208 -0.3412 -0.0051  0.1434
20376DOD     C1 4947  10.440   9.632   8.240  0.0523  0.2487  0.1235
20376DOD     C2 4948  10.317   9.865   7.851  0.1469  0.1544  0.0583
20376DOD     C3 4949   9.951  10.081   7.691 -0.0462  0.0694 -0.2175
20377DOD     C1 4950  18.234  27.323   1.485  0.0995 -0.2653 -0.3047
20377DOD     C2 4951  17.991  27.672   1.687 -0.0552  0.2086  0.0320
20377DOD     C3 4952  17.906  27.953   2.067 -0.1590  0.3654 -0.1990
20378DOD     C1 4953  20.180  10.705   5.251 -0.3149 -0.0084  0.1145
20378DOD     C2 4954  20.059  10.401   5.572 -0.1884 -0.1946 -0.0859
20378DOD     C3 4955  20.366  10.058   5.809 -0.1160 -0.3253  0.0038
20379DOD     C1 4956  28.322  28.437  28.662  0.2239 -0.0540  0.2102
20379DOD     C2 4957  27.864  28.521  28.817 -0.1343  0.0871  0.0173
20379DOD     C3 4958  27.434  28.408  28.880 -0.2846  0.2106  0.1027
20380DOD     C1 4959  17.986  16.186  18.661  0.0602 -0.0126 -0.0089
20380DOD     C2 4960  18.188  16.564  18.445 -0.1330  0.3137  0.3241
20380DOD     C3 4961  18.315  16.624  18.016 -0.0801 -0.0652  0.2048
20381DOD     C1 4962   1.967   3.407  16.434  0.0730 -0.3005  0.3029
20381DOD     C2 4963   2.318   3.606  16.179  0.0300 -0.0473 -0.0805
20381DOD     C3 4964   2.482   4.047  16.117 -0.1821  0.2816  0.3636
20382DOD     C1 4965  21.984   8.607  24.551 -0.1943 -0.1634  0.1996
20382DOD     C2 4966  21.647   8.937  24.472 -0.0508  0.0128  0.0769
20382DOD     C3 4967  21.373   9.187  24.656  0.2198  0.2223 -0.1939
20383DOD     C1 4968  30.060  30.119  21.413  0.0286 -0.1090 -0.1216
20383DOD     C2 4969  30.068   0.225  21.494  0.2659  0.1074 -0.0001
20383DOD     C3 4970  29.740   0.506  21.264  0.1512 -0.1340  0.2008
20384DOD     C1 4971  18.707  23.702   1.446 -0.1976  0.1198 -0.0475
20384DOD     C2 4972  18.625  24.132   1.543  0.1703 -0.0356  0.1830
20384DOD     C3 4973  18.619  24.564   1.564 -0.1072 -0.4125  0.2353
20385DOD     C1 4974  29.395  16.928  27.843  0.0230  0.2394  0.0646
20385DOD     C2 4975  29.607  16.502  27.885  0.1507  0.1018 -0.0122
20385DOD     C3 4976  29.656  16.129  28.142  0.1250 -0.0435  0.0140
20386DOD     C1 4977  21.666   6.162  27.479  0.1175  0.0492 -0.2442
20386DOD     C2 4978  21.694   5.843  27.808  0.0006 -0.0418 -0.3159
20386DOD     C3 4979  21.961   5.496  27.984  0.1129 -0.1095 -0.0969
20387DOD     C1 4980  13.025  27.634  20.917 -0.4267 -0.0381 -0.0495
20387DOD     C2 4981  13.460  27.787  20.986  0.0876 -0.0842  0.4369
20387DOD     C3 4982  13.712  27.680  21.340  0.0300  0.0604 -0.2485
20388DOD     C1 4983   5.831  22.439   5.645  0.0180 -0.1968  0.0440
20388DOD     C2 4984   6.084  22.541   6.014 -0.1943  0.0632  0.2540
20388DOD     C3 4985   6.183  22.739   6.406 -0.3609 -0.0743 -0.0629
20389DOD     C1 4986   7.325   0.143   3.609  0.2621 -0.1037  0.4362
20389DOD     C2 4987   7.668   0.430   3.500 -0.1228 -0.0625  0.3101
20389DOD     C3 4988   7.949   0.842   3.392  0.3920  0.4727 -0.1498
20390DOD     C1 4989   4.628   4.143  21.252  0.3033 -0.0225 -0.0212
20390DOD     C2 4990   4.719   4.254  20.835 -0.1351 -0.0540  0.2858
20390DOD     C3 4991   4.583   4.327  20.352 -0.0642  0.2748  0.0930
20391DOD     C1 4992  25.262  19.116  24.789  0.0060 -0.1304  0.1108
20391DOD     C2 4993  25.599  19.369  24.595 -0.0919  0.2028  0.4574
20391DOD     C3 4994  25.856  19.597  24.372  0.5258 -0.1462  0.1883
20392DOD     C1 4995   5.360   0.803   4.210  0.0156  0.2107 -0.1322
20392DOD     C2 4996   5.308   1.057   3.773 -0.1057 -0.1810 -0.1110
20392DOD     C3 4997   5.245   0.804   3.399  0.2805  0.0036 -0.0802
20393DOD     C1 4998  28.151   2.455   6.702 -0.1192  0.2697  0.1175
20393DOD     C2 4999  28.205   2.227   6.272  0.0262  0.2725 -0.2065
20393DOD     C3 5000  28.179   2.436   5.857  0.0857 -0.5623  0.1127
20394DOD     C1 5001  13.570  10.781   6.936 -0.1433 -0.1704 -0.0467
20394DOD     C2 5002  13.162  10.716   6.762  0.1053  0.1622  0.2016
20394DOD     C3 5003  12.826  10.387   6.604  0.1451 -0.1871  0.3181
20395DOD     C1 5004  20.930  21.074   1.757 -0.1286  0.1389 -0.0309
20395DOD     C2 5005  20.996  20.884   2.203 -0.0714 -0.0862 -0.1245
20395DOD     C3 5006  21.026  20.524   2.514  0.0908 -0.2187  0.2521
20396DOD     C1 5007   6.821  18.349   8.573 -0.1627 -0.0326 -0.0583
20396DOD     C2 5008   6.670  18.638   8.919  0.1331 -0.0293  0.1894
20396DOD     C3 5009   6.291  18.679   9.192 -0.0219 -0.1102 -0.0556
20397DOD     C1 5010  19.190   6.900   7.816 -0.1379  0.0466  0.1432
20397DOD     C2 5011  19.594   7.087   7.964 -0.1016 -0.1326 -0.2867
20397DOD     C3 5012  19.938   7.272   8.208  0.2573 -0.2873 -0.0018
20398DOD     C1 5013   1.381  18.017  28.675 -0.0353 -0.0712 -0.1115
20398DOD     C2 5014   1.157  18.109  28.320  0.0777  0.0845  0.1627
20398DOD     C3 5015   1.349  18.385  28.060 -0.0620 -0.1348 -0.1384
20399DOD     C1 5016  14.322  11.394   9.507 -0.0527 -0.2402  0.0104
20399DOD     C2 5017  13.891  11.368   9.357  0.3745 -0.3354  0.1695
20399DOD     C3 5018  13.469  11.544   9.295  0.1528  0.0979 -0.2461
20400DOD     C1 5019  13.347  19.482  10.314  0.3087 -0.2288  0.1581
20400DOD     C2 5020  13.238  19.133   9.975  0.1036  0.0747 -0.0959
20400DOD     C3 5021  13.551  18.916   9.667  0.2559  0.3336 -0.0732
20401DOD     C1 5022   0.953  29.618   5.996  0.0024  0.3181  0.1234
20401DOD     C2 5023   0.697  29.386   5.678 -0.2396 -0.1558  0.0435
20401DOD     C3 5024   0.797  29.029   5.437 -0.0531  0.3026  0.1129
20402DOD     C1 5025   6.177  15.571  19.647 -0.2730 -0.2423 -0.2672
20402DOD     C2 5026   6.511  15.917  19.513 -0.1123 -0.2943  0.2398
20402DOD     C3 5027   6.693  16.199  19.183 -0.0060  0.1671 -0.2023
20403DOD     C1 5028  20.481  17.965   6.636 -0.0853  0.0415  0.0863
20403DOD     C2 5029  20.746  17.866   7.005 -0.2560  0.4228  0.1104
20403DOD     C3 5030  21.027  17.822   7.331  0.0554 -0.0436 -0.3225
20404DOD     C1 5031  16.620   4.642  12.069  0.1926  0.2037  0.0362
20404DOD     C2 5032  16.902   4.777  12.421  0.0984 -0.1933  0.3606
20404DOD     C3 5033  16.965   4.715  12.858 -0.1489  0.0521 -0.1276
20405DOD     C1 5034  13.279   2.616   0.889 -0.0468  0.2222  0.3110
20405DOD     C2 5035  13.437   2.374   1.216 -0.0836  0.0903  0.0713
20405DOD     C3 5036  13.714   2.559   1.576 -0.0622 -0.1417 -0.0422
20406DOD     C1 5037  18.095  19.288   5.332 -0.1751  0.1686  0.0631
20406DOD     C2 5038  17.895  18.842   5.151 -0.0100 -0.0683 -0.3585
20406DOD     C3 5039  17.906  18.372   4.986  0.4242  0.0578 -0.2380
20407DOD     C1 5040  22.876  18.249   9.587 -0.2982  0.0649 -0.1428
20407DOD     C2 5041  22.625  18.108   9.950  0.0456  0.1763  0.0363
20407DOD     C3 5042  22.619  18.108  10.404  0.2287  0.0371  0.1543
20408DOD     C1 5043   2.162  22.712  11.881 -0.2090 -0.0285  0.3253
20408DOD     C2 5044   2.493  22.984  11.751 -0.0898  0.2324 -0.2767
20408DOD     C3 5045   2.749  23.103  11.420 -0.2593 -0.0104 -0.0350
20409DOD     C1 5046   7.536  19.835  13.896 -0.0302 -0.0176 -0.2717
20409DOD     C2 5047   7.892  20.144  13.804 -0.0395 -0.1381  0.1235
20409DOD     C3 5048   8.061  20.078  13.401 -0.1145  0.0379  0.3002
20410DOD     C1 5049   7.454  21.287  28.711  0.1728  0.1344 -0.1740
20410DOD     C2 5050   7.012  21.135  28.645  0.0659 -0.4515  0.0493
20410DOD     C3 5051   6.595  21.023  28.452 -0.0487 -0.0798  0.0980
20411DOD     C1 5052  26.610  22.001  23.998 -0.3176 -0.1564 -0.0976
20411DOD     C2 5053  26.554  21.841  23.567  0.0728  0.4817  0.2071
20411DOD     C3 5054  26.820  22.131  23.267  0.2929 -0.0737  0.3329
20412DOD     C1 5055  12.003   8.403   1.360  0.0362  0.3534  0.1148
20412DOD     C2 5056  11.875   8.018   1.604  0.0774  0.0100 -0.2926
20412DOD     C3 5057  11.859   7.583   1.625 -0.2588 -0.1416 -0.2614
20413DOD     C1 5058   1.502   2.366  17.778  0.1742  0.1020 -0.1322
20413DOD     C2 5059   1.463   1.984  18.060 -0.1557  0.1884 -0.1250
20413DOD     C3 5060   1.669   1.620  18.376  0.1005 -0.1541 -0.1075
20414DOD     C1 5061   8.247   4.244   5.209 -0.2369  0.0168 -0.1649
20414DOD     C2 5062   8.739   4.273   5.261 -0.0060  0.1520 -0.0172
20414DOD     C3 5063   8.945   4.632   5.422  0.0996  0.0249 -0.3327
20415DOD     C1 5064  27.327  25.922  17.373  0.1735 -0.1342 -0.0539
20415DOD     C2 5065  26.971  25.706  17.604  0.0740 -0.2697 -0.0815
20415DOD     C3 5066  26.800  25.478  17.946 -0.3303  0.0071 -0.0005
20416DOD     C1 5067   2.188  20.504  22.965 -0.1002  0.1176 -0.1505
20416DOD     C2 5068   1.825  20.636  22.666 -0.5003 -0.4234  0.3598
20416DOD     C3 5069   1.569  20.806  22.315  0.1184 -0.0547  0.1074
20417DOD     C1 5070   3.851  14.824  10.696  0.0515 -0.0245 -0.0062
20417DOD     C2 5071   4.179  14.998  10.381 -0.0801 -0.0229  0.1101
20417DOD     C3 5072   4.622  14.880  10.372  0.1125  0.2317 -0.0696
20418DOD     C1 5073  15.740  14.375  16.154  0.1119 -0.0107 -0.1870
20418DOD     C2 5074  15.827  14.548  16.533 -0.2997  0.4407 -0.2428
20418DOD     C3 5075  16.051  14.732  16.948  0.0207  0.1943  0.2162
20419DOD     C1 5076  24.452   9.478   5.975 -0.1871 -0.1349 -0.0947
20419DOD     C2 5077  24.512   8.998   6.007 -0.1582  0.1049  0.1438
20419DOD     C3 5078  24.675   8.554   5.990 -0.2617 -0.1168  0.0687
20420DOD     C1 5079  18.216  10.030  15.593  0.0493  0.1298  0.0046
20420DOD     C2 5080  18.100   9.593  15.720 -0.0178  0.0796  0.0947
20420DOD     C3 5081  17.734   9.459  15.915  0.2984  0.2501  0.1158
20421DOD     C1 5082  13.666  29.807  28.905 -0.2740 -0.1182  0.2596
20421DOD     C2 5083  13.392  30.204  28.857  0.2081  0.0398 -0.1925
20421DOD     C3 5084  13.225   0.319  28.921 -0.0932  0.2749 -0.2181
20422DOD     C1 5085   3.239  22.836   6.199 -0.0893 -0.2239  0.0553
20422DOD     C2 5086   2.970  23.153   5.913 -0.1513  0.1273 -0.2523
20422DOD     C3 5087   2.817  23.256   5.507  0.0211  0.1816  0.2433
20423DOD     C1 5088  19.516  17.672  27.125  0.0893 -0.3386 -0.2904
20423DOD     C2 5089  19.836  17.425  26.924 -0.2289  0.0238  0.0601
20423DOD     C3 5090  20.124  17.342  26.603 -0.2998 -0.0470 -0.0620
20424DOD     C1 5091  24.098   9.166  19.577 -0.1246  0.1160 -0.1270
20424DOD     C2 5092  23.669   9.380  19.583 -0.0339 -0.0212  0.1849
20424DOD     C3 5093  23.243   9.574  19.669 -0.0731  0.0193 -0.1091
20425DOD     C1 5094  17.685  10.834  21.717 -0.0864 -0.1797  0.0427
20425DOD     C2 5095  17.670  11.337  21.625 -0.1115  0.0254  0.0677
20425DOD     C3 5096  17.829  11.700  21.447 -0.1257 -0.0971  0.0297
20426DOD     C1 5097  29.514   7.695  28.436 -0.3976  0.1822  0.2273
20426DOD     C2 5098  29.310   8.067  28.298 -0.1202  0.3101 -0.3854
20426DOD     C3 5099  29.271   8.541  28.241 -0.1122  0.0684 -0.5550
20427DOD     C1 5100   8.016   0.231   9.209 -0.2495 -0.0936 -0.2414
20427DOD     C2 5101   8.007  30.085   9.384  0.1210  0.0544  0.0463
20427DOD     C3 5102   8.366  29.861   9.380  0.1330 -0.1920  0.0591
20428DOD     C1 5103  24.062  15.484  24.471  0.0160  0.1902  0.1752
20428DOD     C2 5104  24.471  15.502  24.258 -0.2295 -0.2045 -0.0738
20428DOD     C3 5105  24.717  15.213  23.933  0.2801 -0.0107 -0.2173
20429DOD     C1 5106  13.180  28.304  23.219  0.0226 -0.0677  0.1815
20429DOD     C2 5107  12.902  27.958  23.167  0.2249  0.2556 -0.1884
20429DOD     C3 5108  12.472  27.914  22.915 -0.0240  0.0015 -0.2556
20430DOD     C1 5109  17.159  11.313   9.938 -0.1714  0.0358  0.0694
20430DOD     C2 5110  17.298  11.483  10.344  0.1688 -0.0939  0.0024
20430DOD     C3 5111  17.161  11.291  10.688  0.2063 -0.3204  0.4436
20431DOD     C1 5112  14.193  26.520  29.881 -0.2157 -0.0058 -0.1330
20431DOD     C2 5113  13.776  26.326  30.012  0.0834 -0.3559  0.2324
20431DOD     C3 5114  13.478  25.983  30.051  0.1381 -0.1579  0.1362
20432DOD     C1 5115   1.928  25.568  19.038  0.0847  0.0579 -0.0887
20432DOD     C2 5116   2.317  25.448  18.766  0.2676  0.0120 -0.3763
20432DOD     C3 5117   2.567  25.120  18.520  0.2152 -0.4954 -0.2257
20433DOD     C1 5118   5.825  17.874   4.949 -0.5464 -0.2544 -0.0190
20433DOD     C2 5119   6.083  18.214   4.826  0.1183 -0.0967 -0.0468
20433DOD     C3 5120   6.206  18.650   4.912 -0.1465  0.2002 -0.1893
20434DOD     C1 5121   6.110   0.924  13.854 -0.0701  0.0600 -0.0899
20434DOD     C2 5122   6.421   1.246  13.755  0.2040  0.2297  0.5424
20434DOD     C3 5123   6.459   1.555  13.407 -0.1651  0.0816  0.0995
20435DOD     C1 5124  27.079  19.064  15.258 -0.0856 -0.0438 -0.1085
20435DOD     C2 5125  26.845  18.747  15.032 -0.0584  0.0005 -0.2003
20435DOD     C3 5126  26.678  18.498  14.700  0.3026 -0.0789 -0.1772
20436DOD     C1 5127   1.111   2.800  25.899 -0.1782 -0.1428 -0.0420
20436DOD     C2 5128   0.659   2.685  25.818 -0.2071 -0.1541 -0.1833
20436DOD     C3 5129   0.249   2.817  25.841 -0.0528  0.1522  0.1306
20437DOD     C1 5130   2.173  11.388  16.015  0.2263 -0.3894  0.1127
20437DOD     C2 5131   2.421  11.571  15.659 -0.2029  0.0739  0.2171
20437DOD     C3 5132   2.587  11.951  15.484 -0.2992  0.0766 -0.3424
20438DOD     C1 5133   5.385   1.309  14.878 -0.0615  0.2485 -0.0112
20438DOD     C2 5134   5.187   1.723  14.764 -0.1451 -0.0435  0.1645
20438DOD     C3 5135   5.050   2.216  14.889 -0.1827  0.0479  0.0196
20439DOD     C1 5136  21.464  11.705  25.609  0.0849  0.0807 -0.0080
20439DOD     C2 5137  21.206  12.007  25.903  0.0094 -0.0679 -0.2269
20439DOD     C3 5138  20.932  12.221  26.196  0.2643  0.2587 -0.0608
20440DOD     C1 5139  15.033   6.172  28.327  0.1899 -0.2979 -0.0059
20440DOD     C2 5140  14.825   6.483  28.063  0.2282 -0.0037  0.1087
20440DOD     C3 5141  14.439   6.731  27.797  0.0880  0.0345 -0.0795
20441DOD     C1 5142  14.889  28.322  24.005  0.1058  0.0123 -0.0781
20441DOD     C2 5143  14.880  27.855  24.118  0.0705 -0.1661  0.2227
20441DOD     C3 5144  15.204  27.560  24.235  0.1750 -0.1203 -0.0375
20442DOD     C1 5145   3.672  13.930   0.019 -0.4017  0.2949 -0.0406
20442DOD     C2 5146   3.318  13.591  -0.006  0.3391 -0.1553 -0.1300
20442DOD     C3 5147   2.915  13.380   0.016 -0.0367  0.1320  0.0832
20443DOD     C1 5148  24.099  25.821   7.814 -0.1777  0.0461 -0.1770
20443DOD     C2 5149  23.740  25.769   7.529 -0.1895 -0.1631  0.0308
20443DOD     C3 5150  23.288  25.631   7.568 -0.1112 -0.0945  0.1691
20444DOD     C1 5151  10.024   9.598   3.816  0.1113 -0.1562 -0.2062
20444DOD     C2 5152  10.432   9.505   3.940  0.1563  0.1827 -0.0873
20444DOD     C3 5153  10.836   9.515   4.209 -0.0241 -0.1271  0.1710
20445DOD     C1 5154  14.561  11.418  24.215  0.0327 -0.0890 -0.2781
20445DOD     C2 5155  14.724  11.857  24.094  0.2277 -0.2821  0.0956
20445DOD     C3 5156  14.473  12.219  23.950 -0.0944 -0.2583 -0.1590
20446DOD     C1 5157  27.797  13.697  11.858  0.0955 -0.0389 -0.1436
20446DOD     C2 5158  27.606  13.533  11.475  0.5300 -0.0237  0.1769
20446DOD     C3 5159  27.229  13.323  11.245  0.3911 -0.3137  0.1656
20447DOD     C1 5160  28.668  27.261  20.444 -0.3490  0.0966  0.2869
20447DOD     C2 5161  28.752  27.212  20.860  0.0766  0.1539 -0.1928
20447DOD     C3 5162  28.821  26.896  21.198  0.2844  0.0802  0.3281
20448DOD     C1 5163  12.820  20.338  16.282 -0.0032 -0.0308  0.0252
20448DOD     C2 5164  12.763  20.642  16.637 -0.3200  0.2078 -0.0258
20448DOD     C3 5165  12.441  20.883  16.788  0.1130 -0.1166 -0.0640
20449DOD     C1 5166  21.743  27.534  13.175  0.0187 -0.1827 -0.2062
20449DOD     C2 5167  22.157  27.830  13.160 -0.1100  0.2482 -0.1570
20449DOD     C3 5168  22.445  28.046  13.466 -0.0387  0.2112 -0.0234
20450DOD     C1 5169  21.036  20.407  10.541  0.1672  0.0804  0.3657
20450DOD     C2 5170  20.676  20.078  10.559 -0.0295 -0.0907 -0.2346
20450DOD     C3 5171  20.361  19.796  10.469  0.0511  0.0242  0.0563
20451DOD     C1 5172  16.936   7.542   9.864 -0.2479 -0.1267 -0.1872
20451DOD     C2 5173  17.413   7.339   9.858 -0.1999  0.0236 -0.2227
20451DOD     C3 5174  17.865   7.396  10.046  0.0850  0.0627  0.0710
20452DOD     C1 5175  12.708  10.477   7.148 -0.2533  0.2576  0.0868
20452DOD     C2 5176  13.156  10.611   7.270  0.3028 -0.0246  0.0322
20452DOD     C3 5177  13.485  10.589   7.640 -0.3557 -0.0063  0.0156
20453DOD     C1 5178   9.726   7.095   7.717  0.2872 -0.3358 -0.1363
20453DOD     C2 5179   9.697   7.573   7.901  0.2265  0.0552  0.0686
20453DOD     C3 5180   9.833   7.865   8.283 -0.1526 -0.1652 -0.3778
20454DOD     C1 5181   4.483   2.218  11.809  0.0897 -0.0951 -0.0239
20454DOD     C2 5182   4.432   2.057  11.395 -0.1394  0.0944  0.1569
20454DOD     C3 5183   4.528   1.895  11.011 -0.0135  0.0968 -0.1489
20455DOD     C1 5184  14.433  23.193  21.776 -0.0831  0.0898 -0.0847
20455DOD     C2 5185  14.727  22.880  21.976 -0.2708  0.2680  0.2062
20455DOD     C3 5186  14.995  22.535  22.061 -0.2095 -0.1768 -0.2112
20456DOD     C1 5187  22.255  20.923  19.474  0.0212  0.1487  0.0304
20456DOD     C2 5188  22.374  21.072  19.070 -0.2110  0.1887 -0.0364
20456DOD     C3 5189  22.222  21.146  18.598 -0.1306  0.2224 -0.3335
20457DOD     C1 5190   0.379  20.145  26.130 -0.2928  0.1865 -0.1437
20457DOD     C2 5191   0.403  19.931  25.707  0.0384 -0.0765  0.0262
20457DOD     C3 5192   0.143  19.811  25.334 -0.2145 -0.0859  0.1706
20458DOD     C1 5193  11.258  27.334  13.240 -0.1175 -0.0433 -0.1214
20458DOD     C2 5194  11.454  27.645  13.520  0.0336 -0.1414 -0.4196
20458DOD     C3 5195  11.631  28.058  13.696  0.0923 -0.1979  0.1117
20459DOD     C1 5196   2.346  20.149  24.545 -0.0414  0.4165 -0.2328
20459DOD     C2 5197   1.968  20.208  24.815  0.4149  0.2693  0.0202
20459DOD     C3 5198   1.714  20.533  25.047  0.1705 -0.0999 -0.0234
20460DOD     C1 5199   3.874  23.575   0.089 -0.1043  0.2248  0.3135
20460DOD     C2 5200   3.903  23.437  29.911  0.0234  0.0494 -0.1712
20460DOD     C3 5201   3.929  23.435  29.442  0.2971  0.0676 -0.0142
20461DOD     C1 5202  17.801  17.839  12.833 -0.0550 -0.4434  0.2894
20461DOD     C2 5203  18.048  17.682  12.480 -0.0211 -0.0802 -0.3802
20461DOD     C3 5204  18.313  17.337  12.266  0.0787  0.1329 -0.0134
20462DOD     C1 5205   3.838   6.500  21.344 -0.3206  0.2666 -0.4091
20462DOD     C2 5206   4.236   6.820  21.345  0.0942  0.1108  0.0062
20462DOD     C3 5207   4.528   7.136  21.345  0.2184  0.2547  0.2259
20463DOD     C1 5208   5.113  13.054  21.159 -0.3050  0.0578 -0.0740
20463DOD     C2 5209   5.478  12.770  21.303 -0.0040 -0.2455  0.0477
20463DOD     C3 5210   5.541  12.475  21.609 -0.1585 -0.1942  0.1921
20464DOD     C1 5211   0.458   2.300  14.969  0.0725 -0.0206 -0.1626
20464DOD     C2 5212   0.953   2.418  15.102 -0.0953  0.1099  0.0274
20464DOD     C3 5213   1.365   2.611  14.919  0.1173  0.1174 -0.2750
20465DOD     C1 5214   4.434  21.836  25.075  0.0392 -0.0717 -0.0405
20465DOD     C2 5215   4.631  22.131  25.414 -0.0787  0.0446  0.0337
20465DOD     C3 5216   4.551  22.600  25.509  0.1583  0.3135  0.0416
20466DOD     C1 5217  28.326  10.977  10.505 -0.0837 -0.2537 -0.0295
20466DOD     C2 5218  27.952  10.864  10.714  0.1377  0.2728 -0.0663
20466DOD     C3 5219  27.478  10.663  10.687 -0.1693 -0.2222  0.1801
20467DOD     C1 5220   2.313   8.515  10.181 -0.0235 -0.2567  0.0285
20467DOD     C2 5221   2.027   8.120  10.272  0.0598  0.0596 -0.0912
20467DOD     C3 5222   1.676   8.000  10.466  0.2737 -0.1244 -0.2807
20468DOD     C1 5223  25.694  10.523  16.707  0.1079 -0.0466  0.1245
20468DOD     C2 5224  25.504  10.774  17.091  0.1136  0.2446 -0.1992
20468DOD     C3 5225  25.705  11.210  17.256  0.1219  0.1651  0.0537
20469DOD     C1 5226  28.716  14.280   7.760  0.0241 -0.2731 -0.1758
20469DOD     C2 5227  28.528  14.646   7.593  0.0855 -0.1089  0.1693
20469DOD     C3 5228  28.094  14.881   7.476 -0.1926  0.0467  0.1816
20470DOD     C1 5229  14.666   1.020  20.510  0.1910 -0.2504 -0.1111
20470DOD     C2 5230  14.441   0.730  20.803 -0.3566  0.3444  0.1024
20470DOD     C3 5231  14.040   0.512  20.915 -0.2001  0.2567 -0.2011
20471DOD     C1 5232   0.357   4.755  15.733 -0.2860 -0.1275 -0.1400
20471DOD     C2 5233   0.035   4.600  15.490 -0.1665 -0.0325 -0.2546
20471DOD     C3 5234   0.040   4.342  15.097  0.0421  0.0584 -0.2595
20472DOD     C1 5235  13.389  18.737  12.845 -0.3554  0.0513 -0.1261
20472DOD     C2 5236  13.759  18.454  12.977 -0.0893  0.3321 -0.0717
20472DOD     C3 5237  14.219  18.505  13.222 -0.2065  0.1144  0.0535
20473DOD     C1 5238  28.235   0.970   9.827 -0.3939  0.1418  0.1759
20473DOD     C2 5239  28.597   1.284   9.830  0.1932 -0.0403 -0.2424
20473DOD     C3 5240  28.961   1.415  10.107  0.1260  0.0076  0.0353
20474DOD     C1 5241   7.057  14.330  16.983  0.2202  0.1831  0.4471
20474DOD     C2 5242   7.275  13.892  16.930 -0.0069  0.0455 -0.1922
20474DOD     C3 5243   7.616  13.659  16.661  0.1109  0.3466  0.1774
20475DOD     C1 5244  10.267  22.958  10.791 -0.2286 -0.1650 -0.1188
20475DOD     C2 5245  10.584  22.948  11.144  0.1150  0.4056  0.1639
20475DOD     C3 5246  11.069  22.810  11.228 -0.1435 -0.3822 -0.1950
20476DOD     C1 5247  28.194  13.563   1.453 -0.2205 -0.3313 -0.2009
20476DOD     C2 5248  28.636  13.828   1.495  0.1258 -0.1137  0.5289
20476DOD     C3 5249  29.055  13.937   1.550 -0.1103 -0.0494 -0.1754
20477DOD     C1 5250  12.296   1.168   3.015  0.0814 -0.0686 -0.1009
20477DOD     C2 5251  12.540   0.908   3.254 -0.1115 -0.1059  0.1470
20477DOD     C3 5252  12.640   0.630   3.587 -0.3688 -0.3528 -0.4958
20478DOD     C1 5253  27.577  25.046   2.026  0.0951  0.0384 -0.1981
20478DOD     C2 5254  27.218  25.184   1.716 -0.0745 -0.0028 -0.1606
20478DOD     C3 5255  27.109  25.593   1.595 -0.0463  0.0806 -0.4997
20479DOD     C1 5256   9.044  12.366  14.124  0.2324 -0.2153 -0.0995
20479DOD     C2 5257   9.062  12.780  13.917  0.0110 -0.1463 -0.0408
20479DOD     C3 5258   9.192  13.161  13.708 -0.2138  0.1881 -0.0425
20480DOD     C1 5259  19.253  17.587   8.275 -0.2798 -0.1654 -0.4903
20480DOD     C2 5260  19.366  18.036   8.441  0.0236 -0.2056  0.2866
20480DOD     C3 5261  19.646  18.300   8.176  0.3575 -0.3135  0.1201
20481DOD     C1 5262  25.159  11.888   1.366  0.1054  0.0277 -0.0329
20481DOD     C2 5263  25.434  11.711   0.969  0.4851 -0.0829  0.1580
20481DOD     C3 5264  25.571  11.436   0.615  0.0817 -0.1056  0.1655
20482DOD     C1 5265   5.962  17.727  28.108  0.1724 -0.0906 -0.0853
20482DOD     C2 5266   6.140  17.367  28.349 -0.2521  0.1169 -0.1849
20482DOD     C3 5267   6.402  17.218  28.695  0.0327 -0.2139 -0.1289
20483DOD     C1 5268   2.716  28.695  11.819  0.0280 -0.1005 -0.0018
20483DOD     C2 5269   2.801  29.038  11.527 -0.0830 -0.0969 -0.2070
20483DOD     C3 5270   2.686  29.435  11.619  0.0950  0.1030 -0.1314
20484DOD     C1 5271  25.091  25.767  13.224  0.0666 -0.3368 -0.1828
20484DOD     C2 5272  25.430  26.084  13.052 -0.0913 -0.0233  0.0258
20484DOD     C3 5273  25.850  26.110  12.868 -0.4409 -0.0932 -0.0247
20485DOD     C1 5274   4.657   5.146  23.467  0.0746 -0.1689 -0.0704
20485DOD     C2 5275   4.296   5.239  23.295 -0.1459 -0.1073 -0.0936
20485DOD     C3 5276   4.020   5.045  22.954 -0.0662  0.1520  0.0265
20486DOD     C1 5277  16.445   4.483  14.462  0.1170 -0.0028 -0.1458
20486DOD     C2 5278  16.541   4.204  14.859  0.0051 -0.1665 -0.0841
20486DOD     C3 5279  16.514   3.857  15.105 -0.0122 -0.1051  0.0983
20487DOD     C1 5280  25.557   0.275  11.878  0.0166  0.2632  0.0767
20487DOD     C2 5281  25.179   0.376  11.581  0.1764 -0.1435  0.2381
20487DOD     C3 5282  24.677   0.435  11.404 -0.1600 -0.0427 -0.2997
20488DOD     C1 5283  17.349   2.638  16.519 -0.3318  0.1631  0.0821
20488DOD     C2 5284  17.793   2.763  16.436  0.0315  0.4132  0.1067
20488DOD     C3 5285  18.144   2.821  16.672  0.1523  0.2467 -0.0419
20489DOD     C1 5286   2.119   9.093  12.594  0.3558 -0.0795  0.2119
20489DOD     C2 5287   2.469   9.280  12.331  0.2650  0.0320 -0.2200
20489DOD     C3 5288   2.862   9.075  12.057 -0.2283 -0.0775 -0.0861
20490DOD     C1 5289   4.503  17.711   7.018 -0.2559  0.1955 -0.1645
20490DOD     C2 5290   4.940  17.592   7.004 -0.1838  0.0912 -0.2195
20490DOD     C3 5291   5.415  17.649   6.996  0.2955  0.1588 -0.1216
20491DOD     C1 5292   2.816  27.290   3.117 -0.0604 -0.2796  0.3541
20491DOD     C2 5293   2.338  27.241   3.062  0.1258  0.0325 -0.0610
20491DOD     C3 5294   1.937  27.142   3.187 -0.0424 -0.0827  0.0242
20492DOD     C1 5295  14.860  13.508  11.039 -0.1529 -0.1623 -0.0270
20492DOD     C2 5296  14.998  13.145  10.802  0.1482  0.2948 -0.0591
20492DOD     C3 5297  15.138  13.127  10.377  0.0429  0.1092  0.1738
20493DOD     C1 5298   5.495  23.922  15.408 -0.1481  0.1021  0.2319
20493DOD     C2 5299   5.219  24.021  15.748 -0.2046 -0.0894 -0.0090
20493DOD     C3 5300   5.223  24.022  16.193  0.1156  0.0494 -0.0287
20494DOD     C1 5301   5.355   9.364  10.297  0.0612 -0.1188 -0.1866
20494DOD     C2 5302   5.785   9.620  10.397  0.2515  0.3359  0.0385
20494DOD     C3 5303   6.286   9.502  10.291 -0.1556  0.0207  0.0634
20495DOD     C1 5304  21.155  27.933  26.867  0.3206 -0.0009 -0.2428
20495DOD     C2 5305  21.573  28.109  27.050  0.3986  0.2962  0.0697
20495DOD     C3 5306  21.883  28.456  27.243  0.0429 -0.1120  0.1743
20496DOD     C1 5307  26.783   9.506  16.760  0.2128  0.1685  0.2528
20496DOD     C2 5308  26.772   9.056  16.569  0.0979 -0.1823  0.0811
20496DOD     C3 5309  26.586   8.702  16.283 -0.1459 -0.1571  0.1027
20497DOD     C1 5310  13.293   8.443  18.585 -0.0675 -0.0212 -0.3700
20497DOD     C2 5311  13.214   8.435  18.117 -0.0867 -0.2649  0.0727
20497DOD     C3 5312  13.171   8.639  17.678 -0.0182 -0.2317  0.0473
20498DOD     C1 5313  20.358  23.737  24.454  0.0954  0.3534  0.1696
20498DOD     C2 5314  20.478  23.383  24.143  0.1014  0.1141 -0.2899
20498DOD     C3 5315  20.413  22.893  24.116 -0.2399 -0.3166  0.1015
20499DOD     C1 5316   5.611   3.313  11.272  0.0375 -0.0764 -0.1168
20499DOD     C2 5317   5.979   3.497  11.038 -0.2397  0.0575 -0.1597
20499DOD     C3 5318   6.183   3.861  11.161  0.1495 -0.1908 -0.3421
20500DOD     C1 5319   0.305  10.414  27.447  0.1012  0.0649  0.1690
20500DOD     C2 5320   0.605  10.158  27.681  0.1473  0.2651  0.1895
20500DOD     C3 5321   0.931   9.801  27.719  0.2533 -0.0843  0.0871
20501DOD     C1 5322  18.054  19.056   6.101 -0.1395  0.0039 -0.0174
20501DOD     C2 5323  18.101  18.626   6.258 -0.0230 -0.0983 -0.2279
20501DOD     C3 5324  18.321  18.420   6.591 -0.3983 -0.2059 -0.1890
20502DOD     C1 5325   9.593  25.432   7.518 -0.1858  0.0481 -0.0767
20502DOD     C2 5326   9.785  25.305   7.093 -0.0674 -0.0858 -0.0325
20502DOD     C3 5327   9.878  25.513   6.690  0.1446 -0.2554 -0.2445
20503DOD     C1 5328  11.623   3.749  18.648 -0.2229 -0.0630  0.2536
20503DOD     C2 5329  11.890   4.088  18.417 -0.1408  0.0625  0.1740
20503DOD     C3 5330  12.382   4.118  18.371 -0.1268  0.0722  0.2054
20504DOD     C1 5331   9.190  23.042  23.038  0.0726  0.2265  0.0689
20504DOD     C2 5332   8.825  22.727  23.178  0.1091  0.4571 -0.0654
20504DOD     C3 5333   8.492  22.370  23.176  0.1537 -0.0520 -0.2978
20505DOD     C1 5334  13.669   3.692  24.221 -0.1546 -0.0445 -0.0622
20505DOD     C2 5335  13.919   3.930  24.569  0.0749 -0.1784  0.1460
20505DOD     C3 5336  14.228   4.330  24.660  0.1820  0.1300 -0.3751
20506DOD     C1 5337  17.498  14.403   8.868 -0.1739 -0.1221 -0.0673
20506DOD     C2 5338  17.465  14.774   8.591 -0.0685 -0.2426 -0.0892
20506DOD     C3 5339  17.370  14.955   8.179  0.4289  0.1981 -0.1246
20507DOD     C1 5340  23.352   5.737  20.788 -0.0419 -0.2327  0.2583
20507DOD     C2 5341  23.572   5.502  20.439 -0.3774 -0.1302 -0.0099
20507DOD     C3 5342  23.962   5.244  20.314 -0.0859  0.0216 -0.0100
20508DOD     C1 5343   5.323  14.949  23.970 -0.0892  0.3119 -0.4748
20508DOD     C2 5344   5.310  15.225  24.361 -0.0711  0.0165  0.0722
20508DOD     C3 5345   5.356  15.370  24.794 -0.1125 -0.0922 -0.3742
20509DOD     C1 5346  18.424   5.240  15.477 -0.1042  0.3172 -0.4722
20509DOD     C2 5347  18.619   4.917  15.193 -0.0168  0.2781 -0.1666
20509DOD     C3 5348  18.803   4.817  14.723 -0.1526 -0.1690 -0.0320
20510DOD     C1 5349  22.982   8.218  24.860 -0.0008 -0.1979  0.1804
20510DOD     C2 5350  23.347   8.473  24.735 -0.0750  0.0008  0.0280
20510DOD     C3 5351  23.426   8.820  24.460 -0.2038 -0.0847 -0.0177
20511DOD     C1 5352  25.057   5.173  14.209  0.0814 -0.4461  0.1338
20511DOD     C2 5353  25.372   5.504  14.352  0.0734  0.1756  0.0454
20511DOD     C3 5354  25.656   5.663  14.697 -0.0598  0.2999  0.0633
20512DOD     C1 5355  26.465   5.375  26.769  0.0104  0.0185  0.2247
20512DOD     C2 5356  26.317   5.627  27.112  0.2541  0.1173 -0.1315
20512DOD     C3 5357  26.499   5.749  27.520  0.2204 -0.2233 -0.1501
20513DOD     C1 5358  27.920  11.113  28.445  0.0139  0.0165  0.1392
20513DOD     C2 5359  28.045  11.205  27.988 -0.0791  0.0494  0.0608
20513DOD     C3 5360  28.442  11.139  27.738 -0.1271 -0.0322 -0.1502
20514DOD     C1 5361   3.595  12.066  11.875  0.2532 -0.2041 -0.0939
20514DOD     C2 5362   4.027  11.972  11.755  0.2190 -0.1757  0.0207
20514DOD     C3 5363   4.363  12.004  11.428  0.1281 -0.0085 -0.0708
20515DOD     C1 5364   6.858  16.094  12.744  0.2250 -0.0159  0.0801
20515DOD     C2 5365   7.144  16.286  13.038 -0.1320  0.1258 -0.1326
20515DOD     C3 5366   7.152  16.474  13.505  0.2495 -0.0198  0.0170
20516DOD     C1 5367   0.941  15.216  29.417  0.0378  0.0205  0.0321
20516DOD     C2 5368   0.989  15.228  29.898  0.1652 -0.0918  0.0267
20516DOD     C3 5369   1.035  15.576  30.126  0.0368  0.4056  0.0460
20517DOD     C1 5370  16.258  -0.002   0.391  0.0238 -0.0237  0.1091
20517DOD     C2 5371  15.905   0.163   0.539 -0.2300 -0.1136 -0.1900
20517DOD     C3 5372  15.740   0.427   0.881 -0.1845 -0.1346  0.0993
20518DOD     C1 5373  21.897   8.649   3.553  0.2473 -0.0105  0.1547
20518DOD     C2 5374  21.719   8.295   3.233 -0.0592 -0.0660 -0.1070
20518DOD     C3 5375  21.385   7.944   3.309  0.1692 -0.0606 -0.1285
20519DOD     C1 5376  26.121  27.622  22.652 -0.0691  0.3879 -0.0411
20519DOD     C2 5377  25.651  27.682  22.711 -0.0167 -0.1362  0.0124
20519DOD     C3 5378  25.212  27.714  22.547  0.0703 -0.1033 -0.0810
20520DOD     C1 5379  19.064   5.768  26.949  0.0678  0.0850  0.0233
20520DOD     C2 5380  18.857   5.823  27.416 -0.0499 -0.2507 -0.0774
20520DOD     C3 5381  18.843   6.038  27.875  0.3896  0.4188  0.0376
20521DOD     C1 5382  24.900   6.058  11.964  0.2290 -0.2145 -0.0836
20521DOD     C2 5383  24.716   6.269  12.311  0.2734  0.1179 -0.1758
20521DOD     C3 5384  24.333   6.499  12.419 -0.1468 -0.2728  0.2442
20522DOD     C1 5385   1.199  15.169  18.222 -0.1515 -0.3092 -0.0332
20522DOD     C2 5386   1.046  15.397  18.656 -0.1863  0.0115 -0.2589
20522DOD     C3 5387   0.741  15.368  18.997 -0.3110  0.1632 -0.0008
20523DOD     C1 5388   4.787  24.285  11.234  0.0206 -0.0447  0.4065
20523DOD     C2 5389   4.902  24.476  11.592 -0.1285 -0.2189  0.0589
20523DOD     C3 5390   5.190  24.450  12.018  0.1685  0.2672 -0.2048
20524DOD     C1 5391  15.918  11.355  14.806  0.0350 -0.1116 -0.3745
20524DOD     C2 5392  15.829  11.534  14.402 -0.0503 -0.1678  0.1027
20524DOD     C3 5393  15.453  11.629  14.129  0.1258  0.2786  0.1351
20525DOD     C1 5394  20.195  28.978  21.971 -0.0145 -0.3357  0.2475
20525DOD     C2 5395  19.973  28.719  22.314 -0.2281 -0.1380  0.0976
20525DOD     C3 5396  19.664  28.419  22.387  0.2062  0.3906  0.3566
20526DOD     C1 5397  24.138   4.783   5.394  0.1227 -0.4107  0.0177
20526DOD     C2 5398  24.137   4.726   5.873 -0.1308 -0.1701  0.2652
20526DOD     C3 5399  24.187   4.388   6.239  0.1504  0.2253 -0.0428
20527DOD     C1 5400  28.877   3.455  21.618  0.2244  0.1647  0.2633
20527DOD     C2 5401  29.209   3.569  21.292  0.0016  0.2881  0.2537
20527DOD     C3 5402  29.683   3.631  21.238 -0.2325  0.0670  0.1531
20528DOD     C1 5403   0.648   6.960  18.034  0.0575  0.3065  0.0381
20528DOD     C2 5404   0.846   6.881  17.679 -0.0118 -0.0458 -0.2656
20528DOD     C3 5405   0.911   6.912  17.234 -0.1172 -0.1027 -0.0342
20529DOD     C1 5406  20.818  25.257   5.896 -0.0344 -0.1774  0.1340
20529DOD     C2 5407  21.180  25.218   5.608 -0.1915  0.1323  0.1840
20529DOD     C3 5408  21.396  25.504   5.310  0.0834 -0.1139  0.2644
20530DOD     C1 5409   6.857   3.592  14.594 -0.0857 -0.1914 -0.2989
20530DOD     C2 5410   7.207   3.900  14.706 -0.3199  0.1439 -0.2617
20530DOD     C3 5411   7.611   3.967  14.896 -0.2018  0.4037 -0.2988
20531DOD     C1 5412  21.583  22.503  26.438  0.0412 -0.0160  0.0600
20531DOD     C2 5413  21.341  22.448  26.783  0.2280  0.2829  0.1094
20531DOD     C3 5414  20.937  22.382  27.009  0.0651 -0.0810  0.0034
20532DOD     C1 5415  10.056  21.597  19.314  0.3639 -0.0186 -0.2077
20532DOD     C2 5416   9.757  21.972  19.380 -0.1385 -0.5592 -0.2801
20532DOD     C3 5417   9.439  22.299  19.353  0.1387  0.0744  0.3210
20533DOD     C1 5418   5.195   0.898  17.494  0.0204  0.1100 -0.0215
20533DOD     C2 5419   5.132   0.513  17.420  0.1149 -0.0529 -0.0830
20533DOD     C3 5420   5.062   0.159  17.139 -0.0909 -0.1964  0.1732
20534DOD     C1 5421  17.754  14.715   6.621 -0.2377 -0.2992 -0.1024
20534DOD     C2 5422  18.051  14.652   6.948 -0.3714  0.1290  0.1628
20534DOD     C3 5423  18.430  14.389   7.064 -0.0720 -0.0506  0.2328
20535DOD     C1 5424  23.402  19.407  12.892 -0.0618  0.0235  0.1747
20535DOD     C2 5425  23.325  19.821  13.115 -0.3447  0.1270  0.0103
20535DOD     C3 5426  23.402  19.961  13.590  0.0553 -0.1127  0.0442
20536DOD     C1 5427   9.731   9.546  21.898  0.0706  0.1288  0.2265
20536DOD     C2 5428  10.154   9.488  21.938 -0.1772  0.3237  0.2718
20536DOD     C3 5429  10.502   9.682  22.186 -0.1323  0.2606 -0.2078
20537DOD     C1 5430  20.687  21.381  20.620 -0.0314 -0.1338 -0.0291
20537DOD     C2 5431  20.736  21.878  20.736  0.1896 -0.0266 -0.0151
20537DOD     C3 5432  20.584  22.205  20.438  0.0315 -0.0064 -0.2557
20538DOD     C1 5433  24.508  20.082  26.486 -0.1221 -0.1396 -0.0407
20538DOD     C2 5434  24.583  19.701  26.722  0.1360 -0.1977  0.2134
20538DOD     C3 5435  24.368  19.292  26.595  0.0679  0.0128 -0.2497
20539DOD     C1 5436  20.851   6.173  27.479 -0.1378  0.3639  0.0325
20539DOD     C2 5437  21.140   6.237  27.169  0.4174  0.1761 -0.0330
20539DOD     C3 5438  21.502   6.385  26.936 -0.2606  0.1881 -0.0665
20540DOD     C1 5439  17.051   9.306   6.753 -0.0953 -0.0065 -0.1668
20540DOD     C2 5440  17.304   9.265   6.353  0.0303  0.1845  0.3513
20540DOD     C3 5441  17.438   9.433   5.967  0.2421  0.1701 -0.2134
20541DOD     C1 5442  21.205   1.280  11.118 -0.1922 -0.0576 -0.0812
20541DOD     C2 5443  21.449   0.952  10.894  0.0233 -0.0528 -0.1858
20541DOD     C3 5444  21.682   0.558  10.784 -0.0505  0.1810  0.1163
20542DOD     C1 5445  15.950  16.233  22.538  0.3516 -0.1459 -0.1193
20542DOD     C2 5446  15.722  15.851  22.564 -0.0637  0.0398 -0.2841
20542DOD     C3 5447  15.304  15.723  22.841  0.0254 -0.2078  0.0281
20543DOD     C1 5448   7.880  13.784  23.852  0.1903 -0.0583  0.0744
20543DOD     C2 5449   7.696  13.465  23.523 -0.0793  0.3013  0.0270
20543DOD     C3 5450   7.634  13.221  23.143 -0.2163 -0.0362  0.1376
20544DOD     C1 5451  11.372   7.109  24.525 -0.2435 -0.3831  0.2366
20544DOD     C2 5452  10.965   7.203  24.678  0.2057 -0.2373  0.1642
20544DOD     C3 5453  10.713   7.291  25.054 -0.2215 -0.0702 -0.3218
20545DOD     C1 5454   1.210  23.216  18.368 -0.1115  0.3453 -0.0911
20545DOD     C2 5455   0.833  22.979  18.180  0.0397 -0.2874 -0.1482
20545DOD     C3 5456   0.379  22.991  18.271 -0.3255  0.0262  0.3392
20546DOD     C1 5457   4.627   4.849  28.941  0.0591 -0.0310  0.4432
20546DOD     C2 5458   4.646   4.827  29.384 -0.0215  0.2844 -0.2208
20546DOD     C3 5459   4.454   4.742  29.800  0.3721  0.2938  0.3827
20547DOD     C1 5460   3.679   6.292   2.734  0.0303 -0.0432 -0.0383
20547DOD     C2 5461   3.380   5.897   2.631 -0.3054 -0.3704  0.3817
20547DOD     C3 5462   3.071   5.545   2.702  0.1072  0.1353  0.0704
20548DOD     C1 5463  26.839  24.646  13.609 -0.1801 -0.1157 -0.1553
20548DOD     C2 5464  26.758  25.076  13.467 -0.0609  0.1264 -0.0315
20548DOD     C3 5465  26.572  25.490  13.405 -0.2082  0.0105 -0.1380
20549DOD     C1 5466  29.787   6.612  13.762 -0.0352  0.2330 -0.2030
20549DOD     C2 5467  30.034   6.539  14.120  0.1084  0.0000  0.2761
20549DOD     C3 5468  30.214   6.348  14.492 -0.2228  0.1312  0.1845
20550DOD     C1 5469  16.480  11.831   2.094 -0.2966  0.1049  0.1263
20550DOD     C2 5470  16.858  11.603   2.057  0.1496 -0.4111  0.1033
20550DOD     C3 5471  16.875  11.227   1.821  0.2280 -0.1236  0.0061
20551DOD     C1 5472  21.880  11.902   2.792 -0.1377 -0.0180  0.0139
20551DOD     C2 5473  22.177  11.751   2.441 -0.0243 -0.1899  0.0587
20551DOD     C3 5474  22.487  11.437   2.383  0.0642 -0.0879  0.4741
20552DOD     C1 5475   7.116   8.366  25.393 -0.2111  0.1396  0.2368
20552DOD     C2 5476   6.758   8.599  25.147  0.0094  0.2812 -0.1969
20552DOD     C3 5477   6.334   8.625  24.828 -0.0323  0.0067  0.0203
20553DOD     C1 5478  27.278  10.169  27.122 -0.3446  0.2297  0.0575
20553DOD     C2 5479  27.213  10.009  26.652 -0.1731 -0.3044 -0.0328
20553DOD     C3 5480  26.822   9.884  26.437 -0.1077 -0.1405 -0.0879
20554DOD     C1 5481  10.781  14.323  21.295 -0.1531 -0.0438  0.1014
20554DOD     C2 5482  10.440  14.210  21.651  0.2423  0.2589 -0.0720
20554DOD     C3 5483  10.373  14.297  22.117  0.1338 -0.2769 -0.0438
20555DOD     C1 5484  24.596   5.795  18.796  0.0881 -0.0985  0.1137
20555DOD     C2 5485  24.941   6.110  18.873  0.0874  0.1439  0.0657
20555DOD     C3 5486  25.182   6.446  18.998  0.1130 -0.0203 -0.1185
20556DOD     C1 5487   5.868   8.451  24.599 -0.0353  0.0246  0.1450
20556DOD     C2 5488   5.772   8.918  24.727 -0.2550  0.2173 -0.0158
20556DOD     C3 5489   5.643   9.372  24.718  0.0404  0.2689  0.0400
20557DOD     C1 5490   9.666  28.422  18.414 -0.1485 -0.2714  0.2059
20557DOD     C2 5491   9.193  28.253  18.394 -0.1294 -0.0533 -0.0616
20557DOD     C3 5492   9.105  27.781  18.420 -0.1101 -0.2262 -0.1897
20558DOD     C1 5493  25.525   1.838  19.037 -0.0482 -0.1223 -0.0258
20558DOD     C2 5494  25.323   1.911  18.606  0.1575  0.0348  0.2270
20558DOD     C3 5495  25.216   2.333  18.413  0.0865  0.0704 -0.1409
20559DOD     C1 5496   7.063   6.824  28.870 -0.0065  0.1043 -0.1605
20559DOD     C2 5497   6.717   6.912  28.563 -0.2847  0.1204 -0.3406
20559DOD     C3 5498   6.265   6.776  28.466 -0.2478  0.1484  0.0991
20560DOD     C1 5499   7.306  24.424  29.494  0.0427  0.1674 -0.0244
20560DOD     C2 5500   7.391  24.218  29.081 -0.2047  0.0663  0.1080
20560DOD     C3 5501   7.525  24.543  28.729 -0.0611 -0.2179 -0.2317
20561DOD     C1 5502  19.796  10.230  22.305  0.1599 -0.0053  0.0047
20561DOD     C2 5503  19.721  10.450  22.652 -0.2852  0.1661 -0.1196
20561DOD     C3 5504  19.548  10.507  23.065 -0.1191  0.0562  0.2778
20562DOD     C1 5505   3.667  19.396  17.621  0.0089  0.0052 -0.0599
20562DOD     C2 5506   3.427  19.707  17.929  0.0788 -0.0964  0.0658
20562DOD     C3 5507   3.482  20.140  18.186 -0.2269  0.1511  0.4441
20563DOD     C1 5508  21.105  17.080  23.739 -0.1155  0.4876 -0.1623
20563DOD     C2 5509  21.396  17.427  23.749 -0.1871 -0.0150  0.0255
20563DOD     C3 5510  21.687  17.504  24.156  0.0140 -0.1653 -0.1824
20564DOD     C1 5511  17.994  10.055  17.124 -0.1261 -0.0684  0.0516
20564DOD     C2 5512  18.288  10.066  16.769 -0.0525 -0.4030  0.0139
20564DOD     C3 5513  18.638  10.342  16.748  0.1765 -0.4457 -0.0003
20565DOD     C1 5514  19.459  11.484  23.243  0.0941 -0.1737 -0.2327
20565DOD     C2 5515  19.496  11.468  23.699  0.0945 -0.1160 -0.3847
20565DOD     C3 5516  19.553  11.593  24.145 -0.4118  0.0265  0.3639
20566DOD     C1 5517  19.460  12.203   6.540 -0.1692 -0.1872  0.4412
20566DOD     C2 5518  19.818  12.493   6.427 -0.1516 -0.0421  0.0554
20566DOD     C3 5519  19.754  12.774   6.072  0.1127  0.0416 -0.2220
20567DOD     C1 5520  28.933  28.746  14.935 -0.2606 -0.2509  0.1800
20567DOD     C2 5521  29.275  28.541  14.738  0.2012  0.1214  0.1266
20567DOD     C3 5522  29.458  28.416  14.261 -0.1165 -0.1459  0.1268
20568DOD     C1 5523  27.466  11.098  14.635 -0.1514 -0.0798 -0.1355
20568DOD     C2 5524  27.081  10.931  14.806  0.0429 -0.0320  0.1555
20568DOD     C3 5525  26.713  10.738  15.032  0.0441  0.0871 -0.1726
20569DOD     C1 5526  18.596  28.326  12.420  0.2419  0.3180 -0.0436
20569DOD     C2 5527  18.799  27.881  12.457  0.1869  0.1918  0.0780
20569DOD     C3 5528  19.149  27.558  12.508  0.1081  0.1084 -0.0597
20570DOD     C1 5529  25.568  14.337  11.641  0.1373 -0.0980 -0.4408
20570DOD     C2 5530  25.322  14.132  11.367  0.2616  0.2542 -0.0335
20570DOD     C3 5531  24.983  14.030  11.023 -0.1101 -0.0006  0.2415
20571DOD     C1 5532  13.760  14.565  11.828 -0.1785 -0.1061  0.2805
20571DOD     C2 5533  13.361  14.781  11.870 -0.1908 -0.0570 -0.0557
20571DOD     C3 5534  13.239  14.857  12.354 -0.1266  0.0529 -0.2801
20572DOD     C1 5535  27.412   2.877  12.995  0.1705 -0.0323 -0.0503
20572DOD     C2 5536  27.652   3.215  13.177  0.2052 -0.0879 -0.2752
20572DOD     C3 5537  28.014   3.477  13.319 -0.0767 -0.2165  0.2329
20573DOD     C1 5538  16.200   0.125  14.640  0.2523 -0.1998 -0.1945
20573DOD     C2 5539  15.766  30.293  14.894  0.3531  0.0186 -0.0151
20573DOD     C3 5540  15.365   0.160  14.936  0.1181  0.1500  0.1332
20574DOD     C1 5541  10.587  27.049   5.805  0.1830  0.0712 -0.1025
20574DOD     C2 5542  10.756  26.596   5.726  0.3666 -0.0137 -0.1760
20574DOD     C3 5543  10.967  26.199   5.564 -0.2741 -0.0342 -0.0602
20575DOD     C1 5544  24.579   2.746  17.186  0.2431 -0.2044  0.4816
20575DOD     C2 5545  24.514   2.961  17.624  0.2732 -0.1063  0.2307
20575DOD     C3 5546  24.328   3.383  17.785  0.2156  0.0137  0.2485
20576DOD     C1 5547  13.511  28.719   8.557  0.1096  0.1321 -0.0280
20576DOD     C2 5548  13.256  29.076   8.661 -0.2274 -0.1511 -0.0164
20576DOD     C3 5549  12.804  29.219   8.630  0.1638  0.2408  0.0996
20577DOD     C1 5550  24.641   8.939  29.599  0.1441  0.1140 -0.0365
20577DOD     C2 5551  24.516   9.394  29.609 -0.0204  0.1589 -0.0390
20577DOD     C3 5552  24.386   9.813  29.751 -0.1004  0.2247  0.1427
20578DOD     C1 5553  24.970  12.526  12.743 -0.2370 -0.0609  0.1511
20578DOD     C2 5554  24.578  12.834  12.734  0.0460 -0.1520 -0.1202
20578DOD     C3 5555  24.120  12.960  12.848  0.0321  0.2118  0.0378
20579DOD     C1 5556   4.045  29.646  30.320 -0.0054 -0.1929  0.1669
20579DOD     C2 5557   4.237  29.499   0.388 -0.0463  0.0086 -0.2166
20579DOD     C3 5558   4.401  29.198   0.780  0.7236  0.4910 -0.0518
20580DOD     C1 5559  14.420  27.925  16.313 -0.1210  0.1880  0.2796
20580DOD     C2 5560  14.271  28.318  16.128  0.2284  0.1250 -0.0905
20580DOD     C3 5561  14.439  28.675  15.924  0.0223  0.2960  0.4044
20581DOD     C1 5562  16.701  15.957  11.976 -0.2203  0.2000  0.4715
20581DOD     C2 5563  17.070  15.655  12.145 -0.1811 -0.1038 -0.2039
20581DOD     C3 5564  17.517  15.784  12.342  0.0612 -0.1401 -0.1333
20582DOD     C1 5565  14.103  15.012   9.863 -0.0419 -0.1777 -0.1209
20582DOD     C2 5566  14.199  14.646   9.711  0.0987  0.0364 -0.2886
20582DOD     C3 5567  14.575  14.417   9.609  0.1139 -0.2547  0.0533
20583DOD     C1 5568   2.378  19.190  21.908  0.0914 -0.0044  0.3259
20583DOD     C2 5569   2.269  18.769  22.113 -0.1029 -0.0403 -0.0590
20583DOD     C3 5570   2.092  18.388  22.187 -0.1722  0.2076 -0.2492
20584DOD     C1 5571  30.194   5.849  26.564  0.0585 -0.0268  0.0962
20584DOD     C2 5572  29.962   5.612  26.250 -0.1570  0.0374  0.0780
20584DOD     C3 5573  29.785   5.233  26.006 -0.0500  0.0783 -0.3314
20585DOD     C1 5574  15.883  23.853  13.336  0.2127  0.0798  0.1342
20585DOD     C2 5575  15.487  24.071  13.229  0.1865 -0.1006 -0.1891
20585DOD     C3 5576  15.054  23.964  13.025  0.3225  0.2915 -0.0090
20586DOD     C1 5577  17.731  21.561  27.050 -0.1325 -0.2029 -0.1573
20586DOD     C2 5578  18.113  21.337  27.222  0.0800 -0.0710  0.1719
20586DOD     C3 5579  18.385  21.308  27.638  0.0675 -0.0156  0.0627
20587DOD     C1 5580  17.313  26.850   4.661  0.0717 -0.0207 -0.3587
20587DOD     C2 5581  17.584  27.223   4.780 -0.2656  0.0498 -0.0020
20587DOD     C3 5582  17.918  27.385   5.101 -0.2653  0.4658  0.2072
20588DOD     C1 5583  10.692   1.282  26.538 -0.0214  0.0850 -0.2088
20588DOD     C2 5584  10.981   0.939  26.763  0.0573 -0.3016 -0.4029
20588DOD     C3 5585  11.360   1.035  27.026  0.0641 -0.0638 -0.2036
20589DOD     C1 5586   9.616  10.317  24.002 -0.0245 -0.1764 -0.1253
20589DOD     C2 5587   9.272  10.027  23.874  0.2842  0.0212 -0.1303
20589DOD     C3 5588   8.901   9.875  23.637  0.3969  0.1402  0.1408
20590DOD     C1 5589  10.374   9.842   9.521 -0.1518 -0.4120 -0.0461
20590DOD     C2 5590  10.482   9.838   9.975  0.0792  0.2069  0.1124
20590DOD     C3 5591  10.624   9.851  10.410 -0.2051  0.0103  0.1712
20591DOD     C1 5592  10.448  26.390  29.382 -0.2428 -0.5116  0.0513
20591DOD     C2 5593  10.328  26.074  29.738 -0.1123 -0.0159 -0.0217
20591DOD     C3 5594  10.207  25.894  30.169 -0.2084 -0.0658  0.0805
20592DOD     C1 5595  10.276  19.403  27.636 -0.1605 -0.0175 -0.0487
20592DOD     C2 5596  10.524  19.327  28.024 -0.1437  0.0069  0.2623
20592DOD     C3 5597  10.798  19.615  28.365 -0.1291 -0.3437  0.1426
20593DOD     C1 5598  25.017  28.084  12.636  0.0979 -0.3114 -0.0172
20593DOD     C2 5599  25.064  28.139  13.126  0.2785 -0.1108 -0.0770
20593DOD     C3 5600  25.317  28.021  13.458 -0.0147  0.2100  0.0096
20594DOD     C1 5601   3.395   2.274  12.225  0.1256  0.0611 -0.0332
20594DOD     C2 5602   3.370   1.989  12.582  0.3486  0.1093  0.1185
20594DOD     C3 5603   3.541   1.621  12.837  0.1831 -0.0705 -0.0954
20595DOD     C1 5604  12.718  16.368   3.450 -0.1239 -0.0128  0.1770
20595DOD     C2 5605  13.052  16.234   3.152 -0.0716  0.0960  0.1130
20595DOD     C3 5606  13.280  15.948   2.824  0.1408 -0.1999 -0.0937
20596DOD     C1 5607   5.400  22.504   3.286 -0.1559  0.2405 -0.0939
20596DOD     C2 5608   5.234  22.137   3.529 -0.1629  0.0671 -0.0992
20596DOD     C3 5609   5.140  21.869   3.878  0.0587  0.1116 -0.0666
20597DOD     C1 5610   4.112   4.011  22.064  0.3278 -0.0655 -0.0288
20597DOD     C2 5611   3.937   4.407  22.113  0.0280 -0.2752 -0.1260
20597DOD     C3 5612   4.182   4.770  22.397  0.0694 -0.0194 -0.1525
20598DOD     C1 5613  22.589  21.701   8.484 -0.0455 -0.1943  0.0877
20598DOD     C2 5614  22.433  21.982   8.195  0.1844 -0.1359  0.2356
20598DOD     C3 5615  22.121  21.839   7.812  0.0835  0.0535 -0.1579
20599DOD     C1 5616  25.364  18.438  23.500 -0.1462 -0.3562 -0.2230
20599DOD     C2 5617  25.745  18.174  23.394  0.1801  0.3865 -0.1018
20599DOD     C3 5618  25.886  17.999  23.016 -0.1980  0.1065  0.2162
20600DOD     C1 5619   3.790   1.527   9.988 -0.2822  0.0926 -0.0894
20600DOD     C2 5620   3.757   1.588  10.425 -0.3531  0.1497  0.0685
20600DOD     C3 5621   3.539   1.422  10.836 -0.0679 -0.2118 -0.3266
20601DOD     C1 5622  19.621  21.526  21.676 -0.1571 -0.0769  0.0579
20601DOD     C2 5623  19.505  21.940  21.928  0.0537 -0.0819 -0.2836
20601DOD     C3 5624  19.340  22.337  21.773 -0.0563  0.0736  0.3345
20602DOD     C1 5625  27.065  24.528   7.232 -0.0756 -0.2007  0.1965
20602DOD     C2 5626  26.915  24.597   6.800  0.1965  0.0225  0.3286
20602DOD     C3 5627  26.675  24.876   6.494 -0.0812  0.4483 -0.2093
20603DOD     C1 5628   5.063  10.504   3.073  0.3067 -0.2189 -0.0653
20603DOD     C2 5629   5.122  10.883   3.328 -0.0402  0.0796 -0.2857
20603DOD     C3 5630   5.324  11.277   3.420  0.2465  0.0128  0.1515
20604DOD     C1 5631  15.135   6.984   4.389 -0.2803 -0.2220 -0.0053
20604DOD     C2 5632  15.151   7.158   4.829 -0.1197 -0.2348 -0.0874
20604DOD     C3 5633  15.447   7.390   5.101  0.0208 -0.2122 -0.1507
20605DOD     C1 5634   1.040  28.698  15.230  0.0457 -0.2972 -0.1693
20605DOD     C2 5635   1.221  28.269  15.298 -0.1249 -0.4680  0.0006
20605DOD     C3 5636   1.409  27.996  15.654 -0.0485 -0.3366 -0.0155
20606DOD     C1 5637  29.321  27.367   7.581  0.2854 -0.1719  0.2518
20606DOD     C2 5638  29.389  27.554   8.009 -0.0932 -0.0995  0.0020
20606DOD     C3 5639  29.161  27.514   8.440  0.0622  0.1315  0.3040
20607DOD     C1 5640  16.178   1.040  21.978 -0.1110 -0.0619  0.3158
20607DOD     C2 5641  15.708   1.137  21.932  0.2386  0.2119 -0.1679
20607DOD     C3 5642  15.307   1.032  22.122  0.1574 -0.3022  0.3072
20608DOD     C1 5643   8.229   1.378  24.645 -0.3795 -0.0033  0.0405
20608DOD     C2 5644   7.850   1.229  24.915 -0.2236 -0.0411 -0.2063
20608DOD     C3 5645   7.385   1.263  24.856 -0.3151  0.1940 -0.0973
20609DOD     C1 5646   0.362  17.412  17.005  0.3935  0.1740  0.1740
20609DOD     C2 5647   0.138  17.637  17.293 -0.3594 -0.1712  0.1156
20609DOD     C3 5648   0.002  17.854  17.703 -0.3799  0.1336 -0.3187
20610DOD     C1 5649  29.870  11.932   6.864  0.1522 -0.3010 -0.3466
20610DOD     C2 5650  29.890  11.639   7.203 -0.1259  0.3072  0.0527
20610DOD     C3 5651  29.512  11.644   7.454 -0.1694 -0.0248  0.1290
20611DOD     C1 5652   1.483  15.260   4.735 -0.3730 -0.3387  0.3070
20611DOD     C2 5653   1.158  15.528   4.803  0.2536 -0.2070  0.0771
20611DOD     C3 5654   0.688  15.564   4.738 -0.0231  0.0891 -0.0156
20612DOD     C1 5655  23.017  25.506   5.773 -0.0858  0.1719 -0.1954
20612DOD     C2 5656  22.908  25.957   5.811  0.2230  0.3103 -0.1755
20612DOD     C3 5657  22.605  26.316   5.611 -0.3359  0.2342 -0.2727
20613DOD     C1 5658  17.007  27.514  10.935  0.1520  0.1853  0.0094
20613DOD     C2 5659  17.349  27.282  10.774 -0.1662 -0.0359 -0.0424
20613DOD     C3 5660  17.844  27.156  10.768  0.1257  0.0380  0.4133
20614DOD     C1 5661  19.032  24.826  13.174 -0.0180 -0.3738  0.1869
20614DOD     C2 5662  18.725  24.463  13.317 -0.1455 -0.1236  0.0096
20614DOD     C3 5663  18.635  24.040  13.503 -0.0545 -0.0095  0.1765
20615DOD     C1 5664  28.683  14.033   0.550  0.2138  0.0240 -0.1693
20615DOD     C2 5665  28.471  14.167   0.110  0.2144  0.0704  0.1457
20615DOD     C3 5666  28.134  13.924  30.090 -0.3783 -0.2683  0.3411
20616DOD     C1 5667  29.742  27.550  10.137  0.2878 -0.2701 -0.0332
20616DOD     C2 5668  30.160  27.366  10.301  0.0120 -0.0181 -0.0284
20616DOD     C3 5669   0.268  27.285  10.426 -0.1445 -0.0647  0.0347
20617DOD     C1 5670   1.145   9.046   2.103 -0.1987  0.2082  0.1799
20617DOD     C2 5671   1.318   8.901   1.753  0.2998  0.0450  0.0218
20617DOD     C3 5672   1.639   8.774   1.445 -0.0275  0.0639  0.2636
20618DOD     C1 5673  27.145  23.660   7.623  0.0014 -0.1092  0.1088
20618DOD     C2 5674  26.706  23.864   7.626  0.0949 -0.1911 -0.0292
20618DOD     C3 5675  26.319  23.737   7.778  0.0994 -0.1078 -0.0221
20619DOD     C1 5676  23.102  -0.009  10.015  0.0170  0.0294 -0.0120
20619DOD     C2 5677  23.315  -0.036  10.379 -0.5232 -0.2932  0.0296
20619DOD     C3 5678  23.698   0.199  10.624 -0.0225  0.3693  0.0774
20620DOD     C1 5679  23.531  22.111  20.533 -0.1436  0.0382 -0.2276
20620DOD     C2 5680  23.472  21.646  20.695  0.0017 -0.0362  0.2159
20620DOD     C3 5681  23.575  21.189  20.718  0.0985  0.1365  0.0551
20621DOD     C1 5682   6.910  29.682  12.862  0.2373 -0.2292 -0.2777
20621DOD     C2 5683   7.113  29.590  12.420 -0.1066  0.1442 -0.0779
20621DOD     C3 5684   7.460  29.505  12.147 -0.1129  0.0014  0.0602
20622DOD     C1 5685  23.418  27.888   6.917 -0.0850  0.0056  0.2203
20622DOD     C2 5686  23.756  27.793   6.634  0.1618 -0.0579 -0.0222
20622DOD     C3 5687  24.156  27.525   6.616  0.1061 -0.2260  0.0294
20623DOD     C1 5688  10.484  11.537  15.734  0.1899 -0.1482  0.2332
20623DOD     C2 5689  10.170  11.535  15.404 -0.1960 -0.1852  0.3381
20623DOD     C3 5690   9.790  11.621  15.120 -0.1620 -0.0215 -0.5352
20624DOD     C1 5691  13.272  12.840  23.117 -0.2248 -0.4903  0.2793
20624DOD     C2 5692  13.377  12.457  22.939  0.1250  0.1631  0.1702
20624DOD     C3 5693  13.755  12.137  22.937  0.1173 -0.0945  0.2106
20625DOD     C1 5694   9.152   7.835  19.728  0.2920 -0.2640 -0.1433
20625DOD     C2 5695   9.278   8.111  19.402  0.0226  0.4367 -0.1496
20625DOD     C3 5696   9.314   8.125  18.994  0.2076 -0.0747  0.3313
20626DOD     C1 5697  13.060   9.075  11.363  0.2479 -0.2871  0.0971
20626DOD     C2 5698  13.549   8.970  11.223 -0.1638 -0.1127 -0.1265
20626DOD     C3 5699  13.946   9.121  10.958 -0.0607  0.0158 -0.2073
20627DOD     C1 5700  29.427  28.763   6.312  0.0906  0.3703 -0.0258
20627DOD     C2 5701  29.685  29.033   6.089 -0.1991  0.1656 -0.1749
20627DOD     C3 5702  29.906  29.390   5.781  0.0103  0.1618 -0.0426
20628DOD     C1 5703  28.060  15.518   9.049  0.0689  0.2437 -0.1062
20628DOD     C2 5704  28.380  15.818   8.851  0.0085 -0.2049 -0.4360
20628DOD     C3 5705  28.721  16.028   8.584  0.0165  0.0430 -0.0067
20629DOD     C1 5706  19.743  18.102   8.731 -0.1115  0.0861  0.0515
20629DOD     C2 5707  19.443  18.421   8.760 -0.0905  0.1494 -0.2613
20629DOD     C3 5708  19.377  18.776   9.059 -0.0414 -0.1236  0.0429
20630DOD     C1 5709  20.362  15.578   5.425  0.2659 -0.1764 -0.1620
20630DOD     C2 5710  20.759  15.782   5.558 -0.1460  0.1105 -0.0974
20630DOD     C3 5711  21.186  15.810   5.430 -0.3283  0.0692  0.1027
20631DOD     C1 5712  14.459  28.726  18.114  0.0574  0.0209  0.2564
20631DOD     C2 5713  14.528  28.868  17.659 -0.2422  0.0309 -0.0555
20631DOD     C3 5714  14.560  28.970  17.167 -0.0959 -0.0658  0.0045
20632DOD     C1 5715   0.470   2.941  15.223  0.0310  0.2943  0.1794
20632DOD     C2 5716   0.671   3.373  15.352 -0.0056 -0.1927 -0.0699
20632DOD     C3 5717   0.524   3.728  15.547 -0.3604  0.1750 -0.2939
20633DOD     C1 5718  10.139   9.509   2.626  0.2221 -0.1492 -0.0024
20633DOD     C2 5719  10.010   9.359   3.035 -0.0638 -0.4403 -0.2240
20633DOD     C3 5720   9.705   9.438   3.377 -0.0622 -0.1351 -0.1865
20634DOD     C1 5721  23.063  26.678   4.311  0.1713  0.1485 -0.2857
20634DOD     C2 5722  23.305  26.298   4.199 -0.1002 -0.0422  0.1545
20634DOD     C3 5723  23.604  26.013   4.019  0.1193 -0.5068  0.1864
20635DOD     C1 5724  18.669  26.657   7.813 -0.1937  0.0110 -0.0854
20635DOD     C2 5725  18.268  26.442   7.927  0.1044 -0.0406  0.0973
20635DOD     C3 5726  18.252  25.976   7.860 -0.0225 -0.2345  0.1987
20636DOD     C1 5727   3.946  16.000  15.651 -0.0615 -0.2364  0.0156
20636DOD     C2 5728   3.557  15.987  15.646  0.0128 -0.2988  0.1168
20636DOD     C3 5729   3.348  15.597  15.745 -0.0567  0.0705 -0.1952
20637DOD     C1 5730  12.101  21.141  23.650  0.2434 -0.1439 -0.0168
20637DOD     C2 5731  11.850  21.307  23.943 -0.0025 -0.0578 -0.0572
20637DOD     C3 5732  11.867  21.625  24.275 -0.0871 -0.0534 -0.1390
20638DOD     C1 5733   3.474  11.953  17.191  0.4470  0.0308  0.0509
20638DOD     C2 5734   3.667  11.492  17.146 -0.0103 -0.0437  0.3030
20638DOD     C3 5735   3.853  11.121  16.988  0.2428  0.3495 -0.2710
20639DOD     C1 5736  18.786  19.981  27.597  0.1848  0.0260 -0.0182
20639DOD     C2 5737  19.152  20.007  27.875 -0.0141 -0.0701 -0.1573
20639DOD     C3 5738  19.522  20.193  28.111 -0.1388  0.0351 -0.1485
20640DOD     C1 5739  25.627   5.117   1.248  0.0872  0.0057 -0.0246
20640DOD     C2 5740  25.648   4.700   1.468  0.2077 -0.0338  0.2683
20640DOD     C3 5741  25.884   4.493   1.851 -0.0380 -0.1968 -0.1697
20641DOD     C1 5742   4.211  29.134  11.050  0.0478 -0.1425 -0.1149
20641DOD     C2 5743   4.179  28.933  10.617 -0.0525  0.1015 -0.2398
20641DOD     C3 5744   3.873  28.953  10.270 -0.2950  0.1821 -0.2647
20642DOD     C1 5745  25.299   3.476  24.737  0.1377 -0.0509  0.0824
20642DOD     C2 5746  25.272   3.015  24.905 -0.1233 -0.1564  0.1914
20642DOD     C3 5747  25.347   2.782  25.286  0.1166 -0.3089 -0.0525
20643DOD     C1 5748   3.800   7.259  22.436 -0.1231  0.0471 -0.1144
20643DOD     C2 5749   4.210   7.105  22.242  0.1121 -0.0703  0.0414
20643DOD     C3 5750   4.462   6.935  21.912  0.0652 -0.1363 -0.1494
20644DOD     C1 5751  25.455  25.774   2.662  0.1174  0.0572 -0.0585
20644DOD     C2 5752  25.128  25.610   2.418  0.0144  0.0532 -0.1402
20644DOD     C3 5753  24.760  25.873   2.269  0.2728 -0.0351 -0.2039
20645DOD     C1 5754  21.063   0.540  21.091  0.0488  0.0265  0.0690
20645DOD     C2 5755  20.746   0.243  21.303 -0.2082 -0.0223 -0.1190
20645DOD     C3 5756  20.384  30.293  21.475  0.0074  0.4667  0.1791
20646DOD     C1 5757  20.871  20.348   8.916  0.1901 -0.1436  0.3669
20646DOD     C2 5758  21.221  20.501   8.703 -0.2931  0.1984  0.2538
20646DOD     C3 5759  21.359  20.572   8.276  0.2978  0.4415 -0.2243
20647DOD     C1 5760  15.336   0.905   0.283 -0.0487 -0.0019 -0.4570
20647DOD     C2 5761  15.307   1.244   0.008  0.1647  0.0859 -0.2313
20647DOD     C3 5762  15.339   1.504  29.981  0.0392 -0.0276  0.1034
20648DOD     C1 5763  16.683  14.112  22.596  0.0792 -0.1116 -0.1293
20648DOD     C2 5764  16.990  13.906  22.804  0.0164 -0.1197  0.0498
20648DOD     C3 5765  17.400  14.002  22.568  0.0977  0.0934 -0.0894
20649DOD     C1 5766   2.658  13.176   9.651  0.0581 -0.0031 -0.1327
20649DOD     C2 5767   2.676  13.308  10.124  0.3237  0.2739  0.1126
20649DOD     C3 5768   2.771  13.420  10.621  0.0146 -0.0502 -0.0468
20650DOD     C1 5769   0.852  14.039   4.224 -0.0495  0.0994  0.0071
20650DOD     C2 5770   0.776  13.571   4.053  0.0429 -0.0088  0.1821
20650DOD     C3 5771   1.024  13.139   4.126  0.0671  0.3556 -0.2308
20651DOD     C1 5772   9.034  27.506   6.928  0.0806  0.0751 -0.0934
20651DOD     C2 5773   9.285  27.171   6.769 -0.2664  0.0533 -0.1284
20651DOD     C3 5774   9.319  26.719   6.611  0.1207 -0.0255 -0.2223
20652DOD     C1 5775  20.953  14.887   3.614  0.2128  0.0563  0.1634
20652DOD     C2 5776  21.228  15.066   3.357 -0.2430 -0.0237  0.2385
20652DOD     C3 5777  21.575  15.334   3.525  0.0345 -0.2844 -0.1566
20653DOD     C1 5778  13.555   8.881   8.948 -0.2546  0.0115  0.1693
20653DOD     C2 5779  13.644   8.459   8.747  0.1109  0.0963 -0.2952
20653DOD     C3 5780  13.684   7.987   8.652 -0.2596 -0.1197 -0.1432
20654DOD     C1 5781  25.691  15.584  22.786 -0.1338  0.0866 -0.0950
20654DOD     C2 5782  26.116  15.786  22.990  0.4282  0.6866 -0.1257
20654DOD     C3 5783  26.430  16.087  23.046 -0.1956  0.1068 -0.0383
20655DOD     C1 5784  23.282   3.889  23.661 -0.3907 -0.4212 -0.0380
20655DOD     C2 5785  22.929   4.160  23.479 -0.1090 -0.1831 -0.1534
20655DOD     C3 5786  22.810   4.628  23.521 -0.0015 -0.3163  0.0161
20656DOD     C1 5787  20.331   5.222  22.632  0.1970  0.0632  0.3285
20656DOD     C2 5788  20.127   4.810  22.706  0.2096  0.0939  0.1263
20656DOD     C3 5789  19.721   4.571  22.830 -0.0969  0.4257  0.1216
20657DOD     C1 5790  14.681   7.441  28.913 -0.1805 -0.0240  0.2120
20657DOD     C2 5791  14.952   7.487  28.568 -0.2394 -0.1175  0.1027
20657DOD     C3 5792  15.366   7.667  28.567 -0.1617 -0.2003 -0.0184
20658DOD     C1 5793  12.756   0.328  12.444 -0.0626  0.0118  0.2148
20658DOD     C2 5794  12.975   0.070  12.713  0.0263  0.0307  0.1047
20658DOD     C3 5795  13.368  30.225  12.917 -0.0229  0.0066 -0.2870
20659DOD     C1 5796   9.488   1.806  28.121 -0.0585 -0.1231 -0.0815
20659DOD     C2 5797   9.331   1.491  28.378 -0.1554 -0.0556  0.2200
20659DOD     C3 5798   9.419   1.020  28.393  0.0383 -0.0919 -0.1892
20660DOD     C1 5799  27.967  29.620  12.759  0.3828  0.0612  0.1219
20660DOD     C2 5800  27.856  29.331  12.423 -0.2717  0.0904 -0.3492
20660DOD     C3 5801  27.494  29.291  12.184 -0.4262  0.5805  0.1273
20661DOD     C1 5802  22.705  15.595  20.416  0.0413 -0.0180  0.1719
20661DOD     C2 5803  22.536  15.354  20.800  0.0375 -0.0847 -0.0309
20661DOD     C3 5804  22.307  14.979  20.950  0.1456  0.1035  0.2791
20662DOD     C1 5805  23.386   1.238  19.215  0.0479 -0.2840 -0.2211
20662DOD     C2 5806  23.514   1.293  19.687 -0.4511 -0.1769  0.2265
20662DOD     C3 5807  23.428   1.295  20.140 -0.0858  0.1670  0.1001
20663DOD     C1 5808  11.423  11.270  18.050 -0.0541  0.1673  0.0137
20663DOD     C2 5809  11.324  11.732  17.945  0.2161 -0.3230  0.2354
20663DOD     C3 5810  11.474  12.124  18.130 -0.1310  0.0443  0.2512
20664DOD     C1 5811  26.251   2.431  10.365  0.1433  0.2313  0.1164
20664DOD     C2 5812  25.899   2.532  10.196  0.3102 -0.2294  0.1420
20664DOD     C3 5813  25.614   2.928  10.115 -0.0020  0.2343  0.0280
20665DOD     C1 5814  27.049  23.693   8.790  0.4302  0.1925 -0.3134
20665DOD     C2 5815  26.565  23.766   8.896 -0.1766 -0.0896  0.1713
20665DOD     C3 5816  26.167  23.790   9.159 -0.2368 -0.1272  0.0925
20666DOD     C1 5817  26.842  18.470  12.822 -0.1707  0.1095 -0.2259
20666DOD     C2 5818  27.102  18.781  12.602  0.1697 -0.0213  0.1527
20666DOD     C3 5819  27.179  19.252  12.599 -0.1236  0.1338 -0.4228
20667DOD     C1 5820  28.385  26.080  16.878 -0.0571  0.1524  0.2430
20667DOD     C2 5821  28.792  26.221  17.082 -0.1717  0.0581  0.0443
20667DOD     C3 5822  29.164  26.261  17.360 -0.0673  0.1507 -0.0928
20668DOD     C1 5823  26.307  23.317   8.030 -0.0604  0.2743  0.3065
20668DOD     C2 5824  25.962  23.067   7.976  0.0228 -0.2130 -0.0081
20668DOD     C3 5825  25.523  23.058   8.154 -0.2809 -0.0796  0.0615
20669DOD     C1 5826   7.559  12.910  17.650  0.1605  0.3242  0.3034
20669DOD     C2 5827   7.617  13.197  18.014 -0.2784 -0.2273 -0.1232
20669DOD     C3 5828   7.751  13.476  18.379 -0.0772 -0.1272 -0.1429
20670DOD     C1 5829  23.734   3.171   1.084  0.1778  0.2129  0.0020
20670DOD     C2 5830  23.571   3.591   1.123 -0.0294 -0.1374 -0.0225
20670DOD     C3 5831  23.308   3.950   1.083  0.0206  0.3395 -0.1270
20671DOD     C1 5832  18.359  18.990  21.444  0.0363  0.1053  0.1145
20671DOD     C2 5833  18.136  18.603  21.544  0.2692  0.3248 -0.0384
20671DOD     C3 5834  17.811  18.463  21.939  0.1286 -0.0095 -0.1195
20672DOD     C1 5835   0.458   5.165   8.186 -0.1779  0.2923 -0.1321
20672DOD     C2 5836   0.148   5.331   7.829 -0.0306  0.0013 -0.2432
20672DOD     C3 5837  30.309   5.566   7.416  0.2068 -0.2660  0.0704
20673DOD     C1 5838  10.644   0.977  23.738 -0.4352  0.0711  0.1401
20673DOD     C2 5839  10.598   1.019  23.269 -0.2728 -0.1090  0.0578
20673DOD     C3 5840  10.262   1.034  22.962  0.0255  0.0134 -0.1748
20674DOD     C1 5841  21.111   0.059  11.271 -0.2230  0.1166  0.2114
20674DOD     C2 5842  21.271  29.977  11.427 -0.2889 -0.0526 -0.3446
20674DOD     C3 5843  21.618  29.775  11.717 -0.1409 -0.1252 -0.1096
20675DOD     C1 5844  10.520  13.221  10.910 -0.0621 -0.4464  0.2394
20675DOD     C2 5845  10.808  12.833  10.964 -0.0181 -0.1992  0.1098
20675DOD     C3 5846  10.857  12.381  10.748  0.4116  0.1264 -0.0653
20676DOD     C1 5847  14.420   9.888   3.305 -0.1840  0.2613 -0.0278
20676DOD     C2 5848  14.701   9.631   3.577  0.1882  0.1246 -0.1582
20676DOD     C3 5849  14.993   9.287   3.561 -0.0283 -0.1691  0.0350
20677DOD     C1 5850   6.788  14.585   7.887 -0.0102 -0.1535  0.0725
20677DOD     C2 5851   6.539  14.883   8.187  0.1159 -0.0247  0.3879
20677DOD     C3 5852   6.435  15.314   8.216  0.0449 -0.0116  0.1964
20678DOD     C1 5853   3.807   0.418   1.546 -0.1960  0.1318  0.0928
20678DOD     C2 5854   3.685   0.438   1.087  0.0699  0.0803  0.2041
20678DOD     C3 5855   3.435   0.440   0.666  0.3030  0.1519  0.1903
20679DOD     C1 5856  11.878  11.072   9.646 -0.2105  0.3835 -0.1117
20679DOD     C2 5857  11.744  10.696   9.325 -0.0269  0.3938 -0.0393
20679DOD     C3 5858  11.814  10.417   8.944  0.0901 -0.1875  0.3666
20680DOD     C1 5859   9.216  20.941  15.564  0.1310  0.0044 -0.0104
20680DOD     C2 5860   8.765  21.105  15.601  0.0044  0.0576  0.3606
20680DOD     C3 5861   8.350  21.263  15.514 -0.0807 -0.1104  0.3237
20681DOD     C1 5862  28.616   2.879   4.664 -0.3371 -0.0265  0.1293
20681DOD     C2 5863  28.445   3.262   4.451  0.0601  0.2608 -0.0832
20681DOD     C3 5864  28.380   3.632   4.104  0.0499  0.0343 -0.5222
20682DOD     C1 5865  25.355   7.872  14.560  0.0923 -0.0707  0.1374
20682DOD     C2 5866  25.659   7.775  14.273 -0.1531  0.2422 -0.0047
20682DOD     C3 5867  25.826   7.472  13.963 -0.0633  0.0043  0.0633
20683DOD     C1 5868   0.642  29.300  18.736 -0.3048  0.1329  0.2203
20683DOD     C2 5869   0.193  29.330  18.888 -0.1958 -0.1679 -0.1665
20683DOD     C3 5870  30.106  29.631  18.858 -0.2347  0.0033 -0.0155
20684DOD     C1 5871  23.898  12.069  26.494  0.1855  0.2456 -0.1801
20684DOD     C2 5872  24.201  12.430  26.433  0.2149  0.0422  0.3010
20684DOD     C3 5873  24.147  12.802  26.224 -0.0420  0.0359  0.0077
20685DOD     C1 5874   9.993  21.225   3.700 -0.1653 -0.0224 -0.0023
20685DOD     C2 5875   9.952  21.650   3.556  0.1992 -0.1679  0.2890
20685DOD     C3 5876   9.974  22.051   3.823 -0.2300 -0.1987  0.3183
20686DOD     C1 5877  17.531  15.443   7.448  0.3072  0.0689 -0.0692
20686DOD     C2 5878  17.563  15.470   6.963  0.1423  0.1343 -0.0642
20686DOD     C3 5879  17.591  15.640   6.495  0.0207 -0.1342  0.0412
20687DOD     C1 5880   1.796  11.751  27.583  0.2525  0.1587 -0.1698
20687DOD     C2 5881   1.532  11.775  27.186 -0.2343 -0.1413 -0.2825
20687DOD     C3 5882   1.093  11.706  26.962  0.0936  0.0769  0.1544
20688DOD     C1 5883  22.610   8.447  10.193 -0.3157 -0.2081 -0.2820
20688DOD     C2 5884  22.335   8.854  10.347  0.0761 -0.0151  0.1741
20688DOD     C3 5885  22.073   9.124  10.556  0.2564 -0.0197 -0.1060
20689DOD     C1 5886   7.852  12.366  15.535 -0.1523  0.1522 -0.1371
20689DOD     C2 5887   7.919  12.209  15.112 -0.0287  0.0983 -0.0842
20689DOD     C3 5888   8.135  11.886  14.844 -0.0287 -0.1551 -0.2469
20690DOD     C1 5889   1.985  17.614   4.008 -0.1735  0.1994 -0.1871
20690DOD     C2 5890   1.907  17.211   3.984 -0.1284 -0.1542  0.0132
20690DOD     C3 5891   1.869  16.951   3.578  0.3107  0.1933  0.0276
20691DOD     C1 5892   8.482  15.567  22.144 -0.1912 -0.1278  0.4494
20691DOD     C2 5893   8.827  15.851  22.171 -0.2808 -0.1749 -0.0383
20691DOD     C3 5894   9.286  15.765  22.237  0.0864 -0.1304  0.0604
20692DOD     C1 5895  12.614  26.411  14.915 -0.0395 -0.0619  0.0498
20692DOD     C2 5896  12.542  26.798  14.682 -0.0296 -0.3806 -0.3836
20692DOD     C3 5897  12.352  27.221  14.509  0.1308  0.2469 -0.2218
20693DOD     C1 5898  20.653  28.966  26.447 -0.1260 -0.0334  0.3193
20693DOD     C2 5899  20.498  28.732  26.824 -0.2699  0.0279  0.2041
20693DOD     C3 5900  20.280  28.314  26.894  0.1792  0.0351 -0.0920
20694DOD     C1 5901  13.612  19.828  10.771 -0.3848 -0.0359 -0.0628
20694DOD     C2 5902  13.168  19.892  10.585  0.2310 -0.0529 -0.0759
20694DOD     C3 5903  12.861  19.512  10.722 -0.0957 -0.2508  0.0614
20695DOD     C1 5904  16.563  22.986  20.752  0.1891 -0.2058 -0.1028
20695DOD     C2 5905  16.458  23.235  21.125  0.0301  0.2479 -0.0553
20695DOD     C3 5906  16.693  23.623  21.296 -0.2013 -0.0352 -0.0279
20696DOD     C1 5907  28.337  17.265  20.690 -0.2486  0.1584  0.1876
20696DOD     C2 5908  28.438  17.451  21.096  0.2438  0.0496 -0.2980
20696DOD     C3 5909  28.510  17.893  21.316  0.0973  0.2324  0.3613
20697DOD     C1 5910   1.398  10.029   1.278 -0.0065 -0.2613 -0.1351
20697DOD     C2 5911   1.309   9.665   1.554 -0.1443 -0.0653 -0.0084
20697DOD     C3 5912   1.528   9.501   1.948  0.1063  0.1136  0.0940
20698DOD     C1 5913  24.639   0.598   8.826  0.2115 -0.2106 -0.2724
20698DOD     C2 5914  25.051   0.404   8.879  0.2157  0.0032 -0.1425
20698DOD     C3 5915  25.329   0.358   9.256 -0.0285  0.0449  0.1592
20699DOD     C1 5916  14.782  29.966  12.950  0.0745  0.0900 -0.3447
20699DOD     C2 5917  14.367  30.107  12.964  0.1833 -0.0119 -0.0922
20699DOD     C3 5918  14.204   0.244  12.931  0.2833 -0.3413 -0.1885
20700DOD     C1 5919   1.874  28.759  19.160  0.0386 -0.1643 -0.3138
20700DOD     C2 5920   1.935  29.224  19.336 -0.1697  0.1489 -0.0014
20700DOD     C3 5921   1.987  29.584  19.008  0.1340  0.1454 -0.1413
20701DOD     C1 5922  11.747   5.681  18.478  0.2612  0.3065 -0.1460
20701DOD     C2 5923  11.998   5.636  18.826 -0.0600  0.3156  0.0939
20701DOD     C3 5924  12.272   5.234  18.819  0.0603  0.2148 -0.1166
20702DOD     C1 5925   0.190  24.501   3.386 -0.0966 -0.2638  0.1055
20702DOD     C2 5926  30.144  24.566   3.716 -0.3144 -0.0284  0.1396
20702DOD     C3 5927  30.122  24.886   4.095  0.3154 -0.2229 -0.2931
20703DOD     C1 5928  19.144  10.434  24.454 -0.1619  0.0216  0.1033
20703DOD     C2 5929  19.566  10.318  24.325 -0.0508  0.1158  0.2418
20703DOD     C3 5930  19.998  10.147  24.252  0.1215 -0.1992 -0.2027
20704DOD     C1 5931  29.982  17.543   8.447  0.3972 -0.0822 -0.0327
20704DOD     C2 5932  30.086  17.784   8.052 -0.3045  0.0444 -0.3427
20704DOD     C3 5933  30.154  17.871   7.621  0.1450 -0.2174  0.0489
20705DOD     C1 5934  17.948  10.062  17.962 -0.2897  0.1214 -0.1562
20705DOD     C2 5935  17.690  10.385  17.884 -0.0514  0.0561  0.0027
20705DOD     C3 5936  17.593  10.453  18.346 -0.1260 -0.1523  0.1968
20706DOD     C1 5937  18.079  14.742   3.255  0.1152  0.0820 -0.0032
20706DOD     C2 5938  17.819  14.851   3.633 -0.2609  0.2192  0.0738
20706DOD     C3 5939  17.549  15.120   3.886 -0.2139 -0.0022  0.2224
20707DOD     C1 5940   4.852  29.266   8.692 -0.0123 -0.1523  0.0636
20707DOD     C2 5941   4.833  28.809   8.839 -0.2084  0.0462  0.1389
20707DOD     C3 5942   4.994  28.323   8.790  0.0346  0.3096  0.0719
20708DOD     C1 5943  22.542  20.220   3.382 -0.0009 -0.0887 -0.0092
20708DOD     C2 5944  22.115  19.978   3.460 -0.2555  0.2225  0.2087
20708DOD     C3 5945  21.816  19.918   3.840 -0.0326  0.0622  0.3460
20709DOD     C1 5946  19.776  10.940   1.963 -0.0194  0.0271 -0.2418
20709DOD     C2 5947  20.187  11.090   1.717  0.1553 -0.0771 -0.0682
20709DOD     C3 5948  20.269  11.173   1.233  0.0014  0.0285 -0.0692
20710DOD     C1 5949  20.554  29.480   8.210 -0.0609 -0.3833 -0.3133
20710DOD     C2 5950  20.095  29.538   8.289  0.1053  0.1936  0.1201
20710DOD     C3 5951  19.848  29.367   8.661 -0.1634 -0.1651 -0.1449
20711DOD     C1 5952   3.808   0.286  27.449  0.0062  0.1975 -0.1115
20711DOD     C2 5953   4.041   0.026  27.829  0.0217  0.0467 -0.3265
20711DOD     C3 5954   4.117  29.913  27.904 -0.0882  0.1242  0.0399
20712DOD     C1 5955  15.477   0.717  25.544 -0.0073  0.1230 -0.1420
20712DOD     C2 5956  15.086   0.976  25.541 -0.1425 -0.1918 -0.1516
20712DOD     C3 5957  14.646   1.080  25.690 -0.0685  0.3568  0.3219
20713DOD     C1 5958  14.814  15.482  17.896  0.2658 -0.1341 -0.2183
20713DOD     C2 5959  15.021  15.828  18.191  0.1866 -0.2411  0.2009
20713DOD     C3 5960  15.005  16.166  18.577 -0.3868 -0.1620  0.0425
20714DOD     C1 5961   1.564  19.749  17.422 -0.2631  0.2597 -0.1528
20714DOD     C2 5962   1.340  19.972  17.739 -0.0537  0.0986  0.1054
20714DOD     C3 5963   0.980  20.183  18.065 -0.2770  0.2826 -0.3222
20715DOD     C1 5964   6.894  21.801  13.449 -0.1932 -0.2200  0.1182
20715DOD     C2 5965   7.008  21.380  13.638 -0.2270 -0.1019  0.0588
20715DOD     C3 5966   7.121  20.920  13.631 -0.3520 -0.0728 -0.2978
20716DOD     C1 5967   6.120  24.056   7.713 -0.1580  0.0118 -0.1844
20716DOD     C2 5968   5.654  24.147   7.631  0.0198 -0.0226 -0.0722
20716DOD     C3 5969   5.523  24.383   7.262  0.2890 -0.1201  0.0554
20717DOD     C1 5970  17.534  27.628   1.809 -0.3595 -0.1973  0.0309
20717DOD     C2 5971  17.672  28.040   1.651  0.1332  0.2171  0.2329
20717DOD     C3 5972  17.992  28.393   1.511 -0.0151  0.0537  0.4224
20718DOD     C1 5973  21.119  13.751  19.566 -0.2696  0.0887 -0.2149
20718DOD     C2 5974  21.487  13.449  19.669  0.1547  0.2024 -0.0043
20718DOD     C3 5975  21.780  13.473  20.066  0.0791 -0.2089  0.1635
20719DOD     C1 5976  27.829  10.421  25.196 -0.0069  0.0032 -0.3378
20719DOD     C2 5977  28.181  10.395  24.873  0.1838 -0.1183  0.2323
20719DOD     C3 5978  28.621  10.182  24.882 -0.0203 -0.0987 -0.0482
20720DOD     C1 5979   1.246  15.455  21.288 -0.1603  0.0175 -0.1159
20720DOD     C2 5980   0.988  15.179  20.954  0.2956  0.0229  0.0828
20720DOD     C3 5981   0.755  14.886  20.641 -0.0082  0.1487  0.3355
20721DOD     C1 5982   8.371   4.637  15.407 -0.0076 -0.0659  0.1321
20721DOD     C2 5983   8.700   4.972  15.241 -0.0263 -0.0106  0.3106
20721DOD     C3 5984   8.978   5.199  14.985 -0.0522 -0.2227  0.2321
20722DOD     C1 5985  11.030   3.019  30.002 -0.0947  0.0896  0.1426
20722DOD     C2 5986  10.718   2.781  29.743 -0.2962 -0.0268 -0.0390
20722DOD     C3 5987  10.519   2.322  29.748  0.1602 -0.1917  0.0316
20723DOD     C1 5988  17.392  29.514  19.257  0.1614 -0.1637  0.1623
20723DOD     C2 5989  17.129  29.130  19.445 -0.0858  0.1319  0.0453
20723DOD     C3 5990  16.726  29.126  19.705 -0.0274  0.0282 -0.1826
20724DOD     C1 5991   4.314  12.334  28.248  0.4289  0.1059  0.1550
20724DOD     C2 5992   4.479  12.306  27.797  0.0059  0.2112  0.0186
20724DOD     C3 5993   4.498  12.293  27.318  0.2473 -0.0332  0.0322
20725DOD     C1 5994  19.552  12.166   1.589  0.0778 -0.0606  0.2150
20725DOD     C2 5995  19.704  12.240   2.036  0.2201 -0.1308 -0.0015
20725DOD     C3 5996  19.663  12.119   2.498 -0.0414 -0.0199  0.0646
20726DOD     C1 5997  19.155  27.855   9.412 -0.0804  0.0194  0.0883
20726DOD     C2 5998  19.349  27.423   9.360 -0.0453  0.1455 -0.3043
20726DOD     C3 5999  19.314  27.100   9.688 -0.1115 -0.3266 -0.0048
20727DOD     C1 6000  17.175  11.938  18.698  0.0917  0.0703 -0.0158
20727DOD     C2 6001  17.492  11.643  18.529 -0.0246  0.0368 -0.0499
20727DOD     C3 6002  17.707  11.437  18.146 -0.0426  0.0165 -0.0261
20728DOD     C1 6003  23.835  26.051   0.535 -0.0625 -0.1144 -0.0527
20728DOD     C2 6004  23.453  25.846   0.337  0.1242  0.1262 -0.0247
20728DOD     C3 6005  23.086  25.549   0.502 -0.1897 -0.0847 -0.0153
20729DOD     C1 6006   4.685  28.779  10.688 -0.0136  0.0141 -0.1489
20729DOD     C2 6007   5.087  28.780  11.035 -0.1898 -0.0811  0.1666
20729DOD     C3 6008   5.311  28.923  11.463  0.2682  0.1258 -0.2451
20730DOD     C1 6009   0.546  29.435  23.399  0.0858 -0.4275  0.0637
20730DOD     C2 6010   0.836  29.404  23.821 -0.2959  0.1946  0.1670
20730DOD     C3 6011   0.846  29.327  24.288  0.1664 -0.0548 -0.2199
20731DOD     C1 6012  14.113   0.374  16.483  0.0299  0.2629  0.0370
20731DOD     C2 6013  14.398   0.708  16.583  0.0567 -0.0714  0.0009
20731DOD     C3 6014  14.817   0.970  16.432 -0.3009 -0.1041  0.2595
20732DOD     C1 6015   9.221   5.844  22.796  0.3414 -0.1616  0.1028
20732DOD     C2 6016   8.951   5.483  22.893  0.1330  0.3643 -0.0099
20732DOD     C3 6017   8.796   5.117  22.650 -0.2174 -0.1830 -0.0424
20733DOD     C1 6018  26.461   7.706  17.487 -0.2766 -0.2035 -0.2241
20733DOD     C2 6019  26.293   7.587  17.062 -0.1650 -0.2293  0.0085
20733DOD     C3 6020  26.426   7.686  16.621  0.1414  0.1122 -0.3412
20734DOD     C1 6021   1.842  15.793   4.683 -0.1397 -0.0706 -0.4275
20734DOD     C2 6022   2.116  16.234   4.643  0.2601  0.2213  0.1021
20734DOD     C3 6023   2.371  16.671   4.526  0.2258 -0.1807 -0.0011
20735DOD     C1 6024   3.123   2.644  14.430 -0.0321  0.0013 -0.0655
20735DOD     C2 6025   3.527   2.488  14.312  0.0963  0.1075  0.2475
20735DOD     C3 6026   3.628   2.495  13.863  0.0558  0.0602 -0.0520
20736DOD     C1 6027  27.625  14.622  18.759 -0.0488  0.2546 -0.0567
20736DOD     C2 6028  27.749  14.999  18.984  0.0942  0.0811 -0.1796
20736DOD     C3 6029  27.842  15.468  18.917  0.1473  0.0310  0.1340
20737DOD     C1 6030  26.192  23.349   7.458 -0.1318  0.2123 -0.5066
20737DOD     C2 6031  25.770  23.167   7.258  0.2368  0.0213 -0.5661
20737DOD     C3 6032  25.531  23.218   6.872  0.1375 -0.2283  0.0141
20738DOD     C1 6033  15.775  12.730  19.207  0.0605  0.3332  0.2826
20738DOD     C2 6034  15.346  12.697  19.344 -0.1056 -0.4281  0.0830
20738DOD     C3 6035  15.128  12.604  19.758  0.1572  0.0590  0.1861
20739DOD     C1 6036  20.316  21.175   4.092  0.3687 -0.0059  0.0100
20739DOD     C2 6037  20.622  21.192   4.434 -0.1077  0.1327  0.0485
20739DOD     C3 6038  20.872  21.470   4.725 -0.1344  0.0987 -0.0003
20740DOD     C1 6039  11.595  10.485  28.100 -0.3464 -0.0185 -0.2122
20740DOD     C2 6040  11.206  10.441  28.352 -0.0135  0.0370  0.0279
20740DOD     C3 6041  10.783  10.244  28.386 -0.2694  0.1955  0.0721
20741DOD     C1 6042  11.571  10.520   3.585 -0.0508 -0.4523  0.2184
20741DOD     C2 6043  11.921  10.443   3.854  0.1933 -0.2598  0.3087
20741DOD     C3 6044  12.167  10.215   4.218  0.0362  0.2249  0.2714
20742DOD     C1 6045   8.119   6.728   9.779 -0.2684  0.3229 -0.1167
20742DOD     C2 6046   8.018   6.625  10.181  0.0609  0.0741  0.3035
20742DOD     C3 6047   7.745   6.648  10.566  0.1439 -0.2766  0.0679
20743DOD     C1 6048  22.950  14.975   8.440 -0.0482 -0.3327  0.0086
20743DOD     C2 6049  22.913  14.670   8.817  0.0199  0.2484  0.2769
20743DOD     C3 6050  22.786  14.247   8.959 -0.5118 -0.2709 -0.3240
20744DOD     C1 6051  23.409   4.819  14.296  0.0578  0.2509  0.1376
20744DOD     C2 6052  23.035   4.533  14.407 -0.0827  0.2624 -0.0163
20744DOD     C3 6053  22.772   4.206  14.662  0.1350 -0.0403 -0.0509
20745DOD     C1 6054   9.917   2.732  29.131  0.0534 -0.0162  0.1541
20745DOD     C2 6055   9.605   2.646  28.813  0.0051 -0.0271 -0.1307
20745DOD     C3 6056   9.236   2.617  28.527 -0.1493  0.0461  0.1283
20746DOD     C1 6057  16.580   1.509  28.359  0.2185  0.1663  0.0312
20746DOD     C2 6058  16.967   1.562  28.670 -0.3078 -0.3460 -0.1748
20746DOD     C3 6059  17.395   1.449  28.739  0.0110  0.1292 -0.0618
20747DOD     C1 6060   7.082  18.068  15.541  0.0605 -0.0812  0.1687
20747DOD     C2 6061   7.391  17.674  15.478  0.4740  0.0573 -0.1102
20747DOD     C3 6062   7.534  17.219  15.460 -0.3107 -0.2996 -0.0852
20748DOD     C1 6063  12.984  29.889   7.539 -0.0934 -0.0896 -0.1969
20748DOD     C2 6064  13.155  29.660   7.871 -0.1854  0.1865  0.0132
20748DOD     C3 6065  13.528  29.816   8.141 -0.1999  0.1057 -0.0336
20749DOD     C1 6066   0.490  20.680   0.303 -0.1100  0.2368 -0.2593
20749DOD     C2 6067   0.835  20.723   0.590 -0.2107 -0.2327 -0.0529
20749DOD     C3 6068   0.994  20.981   0.980  0.2527  0.0344 -0.2582
20750DOD     C1 6069  20.318  15.045   0.598  0.0110  0.2406 -0.1554
20750DOD     C2 6070  20.027  15.188   0.241 -0.0781 -0.2508  0.0222
20750DOD     C3 6071  19.892  15.241  30.112 -0.1168  0.0088 -0.0104
20751DOD     C1 6072  21.628  19.572  27.205  0.1331  0.1745  0.1091
20751DOD     C2 6073  21.980  19.804  26.949 -0.0296  0.0241  0.0654
20751DOD     C3 6074  22.453  19.848  26.871  0.2288  0.0729  0.0194
20752DOD     C1 6075   9.905   6.950  15.681  0.0130 -0.0786  0.1553
20752DOD     C2 6076   9.521   6.700  15.590  0.1076  0.2510  0.2223
20752DOD     C3 6077   9.184   6.361  15.587 -0.0102 -0.0243 -0.3663
20753DOD     C1 6078   1.982   7.882  28.364  0.0322 -0.0067 -0.1931
20753DOD     C2 6079   2.063   7.890  27.898 -0.3251  0.1029 -0.2871
20753DOD     C3 6080   1.967   7.474  27.682 -0.1740  0.2501 -0.0823
20754DOD     C1 6081   5.197   3.056  21.896  0.1614 -0.0806  0.0256
20754DOD     C2 6082   5.067   3.283  21.573 -0.0968  0.1903 -0.2713
20754DOD     C3 6083   5.008   3.246  21.086  0.0854 -0.3038 -0.0880
20755DOD     C1 6084  13.458  22.639  22.947 -0.0523  0.1828  0.1873
20755DOD     C2 6085  13.279  22.648  22.512  0.0089 -0.1347  0.0521
20755DOD     C3 6086  13.029  23.004  22.355  0.3137 -0.3618  0.0492
20756DOD     C1 6087   3.145  18.664  19.832  0.0306  0.0479  0.0110
20756DOD     C2 6088   3.006  18.229  19.829 -0.1098  0.0515 -0.1174
20756DOD     C3 6089   2.974  17.832  19.583 -0.0247 -0.0781 -0.6558
20757DOD     C1 6090  23.545   2.364   5.612  0.0659 -0.1727 -0.2494
20757DOD     C2 6091  23.525   2.543   6.054 -0.1928 -0.0300 -0.0162
20757DOD     C3 6092  23.370   2.764   6.394  0.0460 -0.2979 -0.1162
20758DOD     C1 6093  15.542  26.184  21.279 -0.1814  0.1364  0.2283
20758DOD     C2 6094  15.917  26.261  21.107  0.0281  0.0304  0.1806
20758DOD     C3 6095  16.327  26.361  20.858  0.2116  0.1131 -0.2335
20759DOD     C1 6096   1.947   7.279  23.745 -0.3173 -0.3746 -0.0924
20759DOD     C2 6097   2.276   7.222  24.103 -0.1483 -0.1965 -0.0926
20759DOD     C3 6098   2.127   7.158  24.526  0.0852  0.1620 -0.0486
20760DOD     C1 6099   3.059  13.499   2.969  0.0836  0.0624  0.0710
20760DOD     C2 6100   3.292  13.852   3.087 -0.1812 -0.0809  0.0571
20760DOD     C3 6101   3.521  13.865   3.521  0.0312  0.0445  0.2555
20761DOD     C1 6102  22.286  25.645  11.945  0.1082  0.2197 -0.3225
20761DOD     C2 6103  22.218  26.132  11.792 -0.0071  0.5293  0.1063
20761DOD     C3 6104  22.192  26.555  11.863  0.1334 -0.1501  0.1804
20762DOD     C1 6105   1.600  13.005  18.517  0.3694  0.3795  0.0003
20762DOD     C2 6106   1.330  12.951  18.172 -0.2102 -0.0562  0.0368
20762DOD     C3 6107   1.208  12.952  17.739  0.3326  0.0136  0.0992
20763DOD     C1 6108  11.822  20.754  21.116  0.1265  0.2144 -0.2368
20763DOD     C2 6109  11.468  20.597  20.871  0.0883 -0.1670 -0.0200
20763DOD     C3 6110  11.444  20.156  20.640 -0.0028 -0.1877  0.3827
20764DOD     C1 6111  24.844   2.215  22.080 -0.1319 -0.1692 -0.2638
20764DOD     C2 6112  24.727   1.791  22.233  0.3259  0.0562  0.0510
20764DOD     C3 6113  24.938   1.373  22.279  0.2462  0.0463 -0.0196
20765DOD     C1 6114   6.450  19.132  18.836  0.1457  0.2184  0.1031
20765DOD     C2 6115   6.367  19.591  18.803  0.2963 -0.0663 -0.3405
20765DOD     C3 6116   6.342  20.062  18.698 -0.0581  0.1542 -0.1343
20766DOD     C1 6117  29.202   4.090   6.481  0.0063 -0.3305 -0.0109
20766DOD     C2 6118  28.845   3.931   6.249 -0.0925  0.0009 -0.4460
20766DOD     C3 6119  28.498   3.684   6.270 -0.0258  0.2517 -0.0535
20767DOD     C1 6120   1.936  11.360   4.991 -0.0074  0.1775  0.1693
20767DOD     C2 6121   1.749  11.666   5.295  0.0826  0.1323 -0.1135
20767DOD     C3 6122   1.835  11.571   5.743 -0.2359  0.0635  0.0225
20768DOD     C1 6123   3.776   4.553  22.913  0.0661  0.2721 -0.1994
20768DOD     C2 6124   3.379   4.365  23.121  0.0624  0.0381  0.1311
20768DOD     C3 6125   3.417   4.063  23.443  0.2860 -0.0018  0.0821
20769DOD     C1 6126  14.240  22.756   6.394 -0.0849 -0.1597 -0.0631
20769DOD     C2 6127  13.920  22.590   6.099 -0.3224 -0.0616  0.2583
20769DOD     C3 6128  13.487  22.667   5.917  0.1217 -0.0252 -0.0314
20770DOD     C1 6129  14.296   6.025   1.089  0.0767  0.1261  0.2286
20770DOD     C2 6130  13.885   6.060   0.869  0.2737 -0.2094  0.0281
20770DOD     C3 6131  13.607   5.933   0.544  0.0248  0.2474  0.1116
20771DOD     C1 6132  28.347  13.922  10.868  0.1168 -0.0720 -0.0864
20771DOD     C2 6133  28.476  13.907  11.295  0.0021 -0.1290 -0.1404
20771DOD     C3 6134  28.354  13.817  11.760  0.1977 -0.2351  0.2115
20772DOD     C1 6135  20.337   8.146  13.075  0.3280  0.0825 -0.2181
20772DOD     C2 6136  20.793   8.000  13.115 -0.1530 -0.1232  0.1402
20772DOD     C3 6137  21.164   8.260  13.241 -0.0670 -0.1651 -0.2773
20773DOD     C1 6138  19.364   0.480  13.676 -0.3040  0.3625 -0.1864
20773DOD     C2 6139  19.666   0.839  13.634  0.0941 -0.0985 -0.0031
20773DOD     C3 6140  19.949   1.161  13.503  0.4022 -0.0756 -0.0667
20774DOD     C1 6141   2.625  15.685   0.154  0.3983 -0.0476  0.0517
20774DOD     C2 6142   2.865  15.362   0.358  0.2836  0.1845  0.2759
20774DOD     C3 6143   2.765  14.878   0.335  0.1376  0.1098 -0.1175
20775DOD     C1 6144   8.477   1.688   9.085 -0.1938 -0.0080  0.3037
20775DOD     C2 6145   8.133   2.003   9.143  0.0587  0.2275  0.1172
20775DOD     C3 6146   8.005   2.404   9.021  0.0115 -0.1428  0.2519
20776DOD     C1 6147  19.584  26.317  25.941 -0.0920  0.1230  0.1161
20776DOD     C2 6148  19.750  26.775  25.902 -0.1618  0.2030  0.0697
20776DOD     C3 6149  19.801  27.250  25.827 -0.1559  0.1538 -0.0640
20777DOD     C1 6150  20.367  20.238  18.154 -0.1070  0.0112 -0.0484
20777DOD     C2 6151  20.186  20.525  18.501 -0.0343  0.3268 -0.3480
20777DOD     C3 6152  19.824  20.394  18.713 -0.0516 -0.1557 -0.1401
20778DOD     C1 6153   9.423  15.878   0.208 -0.2116  0.1244  0.1426
20778DOD     C2 6154   9.024  15.667   0.182 -0.0262 -0.4269  0.0501
20778DOD     C3 6155   8.763  15.308   0.004  0.1030 -0.0299  0.0595
20779DOD     C1 6156  23.350  11.910  15.985 -0.0933 -0.2404  0.2255
20779DOD     C2 6157  23.159  12.307  16.104  0.2743  0.2606 -0.1249
20779DOD     C3 6158  22.977  12.521  16.484 -0.1959 -0.1118 -0.3841
20780DOD     C1 6159  24.719  13.325  29.091 -0.0192  0.2844  0.0684
20780DOD     C2 6160  24.354  13.099  29.326  0.0479  0.0001 -0.0842
20780DOD     C3 6161  24.233  12.925  29.731  0.1052 -0.1696  0.3779
20781DOD     C1 6162  22.486  24.703  13.657 -0.1804 -0.4563 -0.4056
20781DOD     C2 6163  22.129  24.924  14.004  0.0933  0.0315  0.0778
20781DOD     C3 6164  21.751  25.123  14.176  0.0335  0.1036 -0.6107
20782DOD     C1 6165  21.206  24.470   9.403  0.1118  0.1572 -0.0615
20782DOD     C2 6166  20.890  24.183   9.204  0.0205 -0.3947 -0.0083
20782DOD     C3 6167  20.434  24.069   9.135 -0.0041  0.0616  0.1482
20783DOD     C1 6168  28.051  25.372  11.462  0.0858  0.3773  0.0290
20783DOD     C2 6169  28.206  24.970  11.674 -0.0801 -0.1172 -0.0018
20783DOD     C3 6170  28.294  24.889  12.141 -0.0515  0.2476  0.1745
20784DOD     C1 6171  13.882  25.506  18.320  0.1724  0.1747  0.1028
20784DOD     C2 6172  14.290  25.649  18.446  0.0821 -0.0995 -0.1100
20784DOD     C3 6173  14.665  25.751  18.302  0.1046 -0.2900 -0.1702
20785DOD     C1 6174  13.431  26.974  18.274 -0.0038 -0.3008  0.1263
20785DOD     C2 6175  13.812  26.857  18.035  0.1878 -0.0322 -0.0842
20785DOD     C3 6176  14.042  26.990  17.677 -0.0020  0.2179 -0.1839
20786DOD     C1 6177  28.337  28.355  12.025  0.1854 -0.1590  0.0814
20786DOD     C2 6178  28.634  28.503  11.719  0.0583  0.2122  0.0756
20786DOD     C3 6179  29.025  28.729  11.542 -0.1673 -0.0301 -0.4574
20787DOD     C1 6180  25.240  24.390   8.430  0.3825  0.0833  0.2672
20787DOD     C2 6181  25.532  24.250   8.103  0.0449  0.0964  0.0412
20787DOD     C3 6182  25.913  24.257   7.755 -0.0504  0.0237  0.0473
20788DOD     C1 6183  22.329  20.461   6.615  0.4110 -0.1181 -0.0879
20788DOD     C2 6184  22.562  20.441   7.011 -0.0391 -0.1759  0.1576
20788DOD     C3 6185  22.742  20.248   7.418 -0.0598 -0.0062 -0.1998
20789DOD     C1 6186  27.495  10.238  24.421 -0.0710 -0.4520 -0.0409
20789DOD     C2 6187  27.943  10.149  24.453  0.0468  0.1153 -0.1367
20789DOD     C3 6188  28.246   9.894  24.700  0.1977  0.1739 -0.4037
20790DOD     C1 6189  30.222  17.346  28.754 -0.3457 -0.1443 -0.1501
20790DOD     C2 6190  29.742  17.481  28.636  0.1769  0.0458  0.0839
20790DOD     C3 6191  29.326  17.427  28.530  0.0482  0.1402  0.1279
20791DOD     C1 6192  15.149  15.701  26.850  0.3417  0.1224 -0.2011
20791DOD     C2 6193  15.038  16.010  26.529 -0.4624  0.2232 -0.0440
20791DOD     C3 6194  15.126  16.326  26.274 -0.0624  0.0085 -0.1830
20792DOD     C1 6195  29.907  11.977  27.164  0.0690  0.2170 -0.0651
20792DOD     C2 6196  30.171  11.609  27.016 -0.0852  0.2404  0.0518
20792DOD     C3 6197  30.108  11.210  26.792  0.2390 -0.2607 -0.0538
20793DOD     C1 6198  18.909   2.302   6.528 -0.2789  0.0210 -0.0062
20793DOD     C2 6199  18.477   2.107   6.624 -0.2282  0.0146 -0.1728
20793DOD     C3 6200  18.152   2.131   6.924  0.2566 -0.1197 -0.0365
20794DOD     C1 6201  25.895  21.198  22.699  0.1267  0.1786 -0.2626
20794DOD     C2 6202  25.605  21.357  22.324 -0.0957  0.0315  0.3624
20794DOD     C3 6203  25.263  21.507  22.009  0.1184 -0.1242  0.1411
20795DOD     C1 6204  14.979  21.234  23.281 -0.1867  0.0629 -0.0142
20795DOD     C2 6205  14.604  21.461  23.415  0.2343  0.1409  0.0341
20795DOD     C3 6206  14.304  21.723  23.688  0.0575 -0.1981  0.1658
20796DOD     C1 6207  16.284  16.821  23.047 -0.1627 -0.0237 -0.0394
20796DOD     C2 6208  16.208  16.693  22.606 -0.1532 -0.1167  0.3150
20796DOD     C3 6209  16.052  16.568  22.191 -0.0677  0.1057  0.1381
20797DOD     C1 6210  19.469  14.858  14.394 -0.1179 -0.3102 -0.1849
20797DOD     C2 6211  19.947  14.879  14.158 -0.0175 -0.0678 -0.0792
20797DOD     C3 6212  20.401  14.994  14.222 -0.0670 -0.1482 -0.2198
20798DOD     C1 6213  15.997  17.605  20.077 -0.0301  0.0618 -0.4444
20798DOD     C2 6214  16.265  17.710  20.391  0.0412  0.0826  0.1717
20798DOD     C3 6215  16.428  17.655  20.817  0.0150 -0.2341  0.0840
20799DOD     C1 6216  11.633  12.713   3.718  0.1402  0.2853  0.1026
20799DOD     C2 6217  11.421  12.322   3.613  0.0954  0.0581 -0.1349
20799DOD     C3 6218  11.416  11.922   3.383 -0.0033 -0.0678  0.2929
20800DOD     C1 6219  24.536   4.121  19.108  0.0101 -0.1884 -0.2640
20800DOD     C2 6220  24.257   3.829  18.948  0.0306  0.2287 -0.2832
20800DOD     C3 6221  24.239   3.446  18.753 -0.2708 -0.0497  0.0876
20801DOD     C1 6222  18.584  16.959  16.653 -0.2600  0.0833 -0.1165
20801DOD     C2 6223  18.917  17.214  16.363  0.0606 -0.1590 -0.2048
20801DOD     C3 6224  19.378  17.364  16.271  0.4284  0.2604  0.0630
20802DOD     C1 6225  28.551  30.287  12.691  0.2855 -0.1048 -0.0157
20802DOD     C2 6226  28.783  29.933  12.788 -0.1169  0.0301  0.1027
20802DOD     C3 6227  29.151  29.800  12.938 -0.1050  0.0015 -0.1184
20803DOD     C1 6228   2.877   5.751   5.360  0.2366 -0.1941  0.1717
20803DOD     C2 6229   3.046   5.872   5.760 -0.0391 -0.0422 -0.0147
20803DOD     C3 6230   3.162   6.148   6.169  0.2116 -0.1693  0.2446
20804DOD     C1 6231  30.336   2.430  13.177  0.0965 -0.0853 -0.2666
20804DOD     C2 6232  29.905   2.386  13.302  0.1066 -0.0310  0.1275
20804DOD     C3 6233  29.659   2.599  13.598 -0.0186 -0.0846  0.1606
20805DOD     C1 6234   1.539  23.635  18.078 -0.2134 -0.2804  0.0216
20805DOD     C2 6235   1.343  23.765  18.530 -0.2195  0.0403  0.0827
20805DOD     C3 6236   1.026  23.588  18.818  0.1773 -0.0881  0.0874
20806DOD     C1 6237   1.345  18.380   0.053 -0.2817 -0.1282 -0.0267
20806DOD     C2 6238   1.755  18.360  30.144  0.2238  0.0302 -0.1371
20806DOD     C3 6239   2.027  18.536  29.758  0.0204  0.0454 -0.0838
20807DOD     C1 6240  14.172   3.066   6.922 -0.2257  0.1582 -0.0225
20807DOD     C2 6241  14.220   2.662   7.211 -0.6139  0.0642  0.0088
20807DOD     C3 6242  14.372   2.309   7.029  0.0418  0.2900  0.4461
20808DOD     C1 6243  29.971   2.302  18.927 -0.0958  0.0287  0.0543
20808DOD     C2 6244  30.249   2.497  18.590 -0.0830  0.0186  0.1128
20808DOD     C3 6245   0.231   2.739  18.360  0.0471 -0.1862  0.2026
20809DOD     C1 6246  10.743  21.722   8.194  0.0885 -0.0583  0.1319
20809DOD     C2 6247  10.622  21.900   7.813  0.1981 -0.0629  0.0273
20809DOD     C3 6248  10.733  22.252   7.554  0.3141 -0.1872 -0.0533
20810DOD     C1 6249  22.508   6.760   0.542  0.0906  0.1456 -0.1655
20810DOD     C2 6250  22.593   6.541   0.139 -0.3236 -0.3358 -0.1750
20810DOD     C3 6251  22.965   6.325  30.193  0.2423  0.2700 -0.0470
20811DOD     C1 6252  19.719  24.093  28.484  0.3528  0.1656 -0.1865
20811DOD     C2 6253  19.944  23.681  28.446  0.1819 -0.1617 -0.2200
20811DOD     C3 6254  20.284  23.484  28.268  0.1446  0.1725  0.0506
20812DOD     C1 6255   8.839  25.077  24.776  0.1276 -0.0801 -0.3124
20812DOD     C2 6256   8.862  24.927  25.201 -0.0636 -0.5041  0.2366
20812DOD     C3 6257   8.790  24.952  25.698  0.2200  0.1865  0.0327
20813DOD     C1 6258  28.188  23.239  23.196 -0.1435 -0.1098 -0.1003
20813DOD     C2 6259  28.146  22.943  23.543 -0.1891 -0.3409 -0.1629
20813DOD     C3 6260  27.935  22.840  23.979 -0.0417 -0.1019 -0.0373
20814DOD     C1 6261  18.065  11.199  19.292 -0.3544 -0.0891 -0.3864
20814DOD     C2 6262  18.434  10.869  19.416 -0.0066 -0.0602  0.0584
20814DOD     C3 6263  18.464  10.404  19.408  0.0725  0.0690  0.3354
20815DOD     C1 6264   2.677  12.331  15.820 -0.0083  0.2477 -0.0029
20815DOD     C2 6265   3.120  12.154  15.722 -0.1708 -0.2289 -0.0822
20815DOD     C3 6266   3.552  12.132  15.946  0.0668  0.0326  0.1073
20816DOD     C1 6267  29.092  24.199   9.322 -0.0368 -0.0691 -0.2172
20816DOD     C2 6268  29.078  24.557   9.620 -0.0447  0.0470  0.0424
20816DOD     C3 6269  28.911  24.969   9.739  0.1642 -0.0623 -0.0656
20817DOD     C1 6270  28.683  29.215  13.783  0.3020 -0.0264  0.0795
20817DOD     C2 6271  29.060  29.452  13.907 -0.0632 -0.1874 -0.0891
20817DOD     C3 6272  29.232  29.837  14.159 -0.2311 -0.1421 -0.1298
20818DOD     C1 6273  25.540  19.543   9.571  0.2338 -0.0117  0.1930
20818DOD     C2 6274  26.033  19.538   9.693  0.0001  0.1177 -0.1441
20818DOD     C3 6275  26.381  19.767   9.965  0.2367 -0.0236  0.1529
20819DOD     C1 6276  10.454  19.218   0.488  0.2553 -0.0171 -0.1363
20819DOD     C2 6277  10.596  19.652   0.662 -0.0798 -0.0832  0.0386
20819DOD     C3 6278  10.823  19.838   1.003 -0.5315  0.1679  0.0193
20820DOD     C1 6279   6.680  22.358  16.531  0.0530 -0.0851  0.0600
20820DOD     C2 6280   7.082  22.356  16.386 -0.0201 -0.0265  0.0387
20820DOD     C3 6281   7.420  22.361  16.087 -0.0177 -0.0669 -0.0695
20821DOD     C1 6282   9.757   5.464   5.637  0.1425 -0.4161 -0.0495
20821DOD     C2 6283  10.208   5.505   5.649 -0.2646 -0.1844 -0.2122
20821DOD     C3 6284  10.587   5.572   5.400  0.0463 -0.0677  0.1019
20822DOD     C1 6285   4.330   3.362   9.780 -0.1256 -0.2506  0.2088
20822DOD     C2 6286   4.319   3.813   9.553 -0.0338 -0.0703  0.2891
20822DOD     C3 6287   4.374   4.226   9.282  0.2364 -0.1259  0.0383
20823DOD     C1 6288  25.966  20.014   8.830  0.0457  0.0053 -0.1192
20823DOD     C2 6289  25.502  19.854   8.669  0.0954  0.1570 -0.1633
20823DOD     C3 6290  25.175  19.906   8.452  0.0498  0.0109 -0.1361
20824DOD     C1 6291  17.554  27.719   9.236 -0.0885  0.0442 -0.0982
20824DOD     C2 6292  17.319  28.095   9.215 -0.3740 -0.2624 -0.2631
20824DOD     C3 6293  17.058  28.304   9.557  0.0241 -0.0189 -0.2304
20825DOD     C1 6294   4.177   8.695  22.436  0.0283 -0.0087 -0.1062
20825DOD     C2 6295   4.232   9.110  22.245 -0.0857  0.0361  0.2313
20825DOD     C3 6296   4.382   9.326  21.824 -0.1232 -0.2595 -0.3092
20826DOD     C1 6297  11.010  10.171  30.264  0.1501  0.0506 -0.1701
20826DOD     C2 6298  10.662  10.210   0.268  0.0698 -0.0790  0.2082
20826DOD     C3 6299  10.118  10.172   0.328 -0.1898  0.0944  0.0530
20827DOD     C1 6300   6.359   5.767  12.166  0.3274  0.2842  0.0504
20827DOD     C2 6301   6.351   5.426  11.879 -0.3186 -0.1751  0.2420
20827DOD     C3 6302   6.274   5.169  11.494 -0.1673 -0.0442  0.1118
20828DOD     C1 6303   1.262   9.829  20.290 -0.1862  0.0671  0.0142
20828DOD     C2 6304   1.070  10.187  20.454 -0.2615  0.0092  0.0689
20828DOD     C3 6305   1.163  10.504  20.761 -0.1449  0.1576  0.1234
20829DOD     C1 6306  15.988  13.524  28.364  0.0271  0.1069 -0.1109
20829DOD     C2 6307  15.894  13.102  28.180  0.1609 -0.0224  0.1001
20829DOD     C3 6308  15.851  12.662  28.288 -0.1504  0.1469  0.0624
20830DOD     C1 6309  13.237   6.143  10.145 -0.0676  0.1278  0.0151
20830DOD     C2 6310  13.649   6.343  10.013 -0.0751  0.2685  0.1401
20830DOD     C3 6311  14.060   6.579  10.077 -0.0219 -0.0073  0.2124
20831DOD     C1 6312   2.767  21.855  23.970 -0.1077  0.3380  0.1629
20831DOD     C2 6313   3.096  21.672  23.698  0.0824 -0.0233  0.0312
20831DOD     C3 6314   3.562  21.692  23.640  0.1755 -0.3432 -0.2296
20832DOD     C1 6315  23.140  12.598  10.732 -0.2508 -0.2393  0.0175
20832DOD     C2 6316  23.417  12.773  11.082  0.1880  0.0909 -0.0796
20832DOD     C3 6317  23.798  12.853  11.349 -0.0109 -0.1538  0.0173
20833DOD     C1 6318  21.139   3.118  13.567 -0.1090  0.0111  0.2899
20833DOD     C2 6319  21.023   3.277  14.008  0.0759  0.0390  0.1158
20833DOD     C3 6320  20.974   3.400  14.444 -0.0957  0.0048 -0.2283
20834DOD     C1 6321   6.291  28.762   0.753  0.0370  0.0955 -0.0422
20834DOD     C2 6322   6.367  28.607   0.271  0.0537 -0.3560 -0.0042
20834DOD     C3 6323   6.417  28.197  30.296 -0.1243 -0.1789  0.2394
20835DOD     C1 6324  25.583  16.368   5.510  0.0028 -0.1520 -0.0768
20835DOD     C2 6325  25.378  16.596   5.136 -0.0859  0.0042 -0.0574
20835DOD     C3 6326  25.125  16.944   4.956 -0.1353 -0.0890 -0.0298
20836DOD     C1 6327   4.747  15.360   4.105  0.3138 -0.0575  0.5291
20836DOD     C2 6328   4.346  15.449   3.857 -0.1590  0.0551 -0.0973
20836DOD     C3 6329   3.916  15.711   3.813  0.2576  0.1406 -0.0196
20837DOD     C1 6330  20.828  25.641  20.876  0.0441  0.2039  0.2054
20837DOD     C2 6331  21.253  25.605  20.948 -0.2016  0.0916  0.0322
20837DOD     C3 6332  21.672  25.659  21.182  0.2002  0.0046 -0.3318
20838DOD     C1 6333  10.171  29.758  25.623 -0.1175  0.0607 -0.2489
20838DOD     C2 6334   9.835  30.007  25.423 -0.1799  0.0388  0.0501
20838DOD     C3 6335   9.395  30.083  25.388 -0.0068  0.2754 -0.1522
20839DOD     C1 6336  21.251  27.287  11.130 -0.5163  0.0193 -0.1000
20839DOD     C2 6337  21.220  27.541  11.506  0.3284 -0.2209 -0.1511
20839DOD     C3 6338  21.212  27.629  11.990  0.0146  0.0723 -0.1195
20840DOD     C1 6339  10.169  25.790  18.673  0.2874  0.0791 -0.3273
20840DOD     C2 6340   9.742  25.926  18.874 -0.0950  0.2083  0.0014
20840DOD     C3 6341   9.355  25.680  18.969  0.2775  0.1686 -0.1791
20841DOD     C1 6342  22.193  17.742  22.411  0.0602  0.2739  0.0264
20841DOD     C2 6343  21.946  17.767  22.800 -0.0055  0.0738 -0.2141
20841DOD     C3 6344  21.817  17.633  23.235 -0.0176 -0.1991  0.0463
20842DOD     C1 6345   9.868   0.832  20.680 -0.1316  0.2374 -0.2052
20842DOD     C2 6346  10.019   0.461  20.372 -0.1872 -0.0096  0.1148
20842DOD     C3 6347   9.813   0.081  20.138 -0.2387  0.3767 -0.2180
20843DOD     C1 6348  22.305  27.590  24.642 -0.0823  0.2014  0.0956
20843DOD     C2 6349  22.222  27.992  24.398 -0.0418  0.4218  0.2207
20843DOD     C3 6350  22.357  28.236  24.034  0.4442 -0.0353  0.0773
20844DOD     C1 6351   3.916   1.587  22.986 -0.1661  0.2086  0.0425
20844DOD     C2 6352   3.708   1.957  23.093  0.4315 -0.4849 -0.0266
20844DOD     C3 6353   3.467   2.326  22.948 -0.0478  0.1069 -0.2697
20845DOD     C1 6354  26.181   9.572  20.966  0.0494 -0.0675  0.2573
20845DOD     C2 6355  26.476   9.294  21.097  0.0609 -0.2928 -0.3374
20845DOD     C3 6356  26.428   8.862  21.210  0.0255  0.0345 -0.0949
20846DOD     C1 6357  29.813  14.463  16.136 -0.1724  0.3837 -0.2089
20846DOD     C2 6358  29.849  14.893  16.190 -0.1394 -0.1606  0.0376
20846DOD     C3 6359  30.115  15.097  16.526  0.0206 -0.1350 -0.2443
20847DOD     C1 6360  20.411   5.729  28.639 -0.0286  0.0970 -0.2777
20847DOD     C2 6361  20.157   5.428  28.384 -0.2975  0.1155  0.2680
20847DOD     C3 6362  20.039   5.159  28.016 -0.0141  0.2404  0.0159
20848DOD     C1 6363  20.832   6.540   8.454  0.0213  0.1132 -0.0160
20848DOD     C2 6364  20.809   7.000   8.331  0.1524 -0.2257  0.0298
20848DOD     C3 6365  20.844   7.412   8.142  0.2063  0.0189 -0.2617
20849DOD     C1 6366  14.551  22.881  18.557 -0.0264 -0.1817 -0.1057
20849DOD     C2 6367  14.225  23.026  18.273  0.0405  0.0099 -0.0881
20849DOD     C3 6368  13.833  22.875  17.999 -0.0243  0.1361  0.4518
20850DOD     C1 6369   2.567  10.284  18.786  0.1028 -0.1228 -0.3322
20850DOD     C2 6370   2.111  10.317  18.896 -0.2609  0.2639  0.0539
20850DOD     C3 6371   1.685  10.375  18.652  0.1088 -0.1303 -0.0231
20851DOD     C1 6372   5.970  18.851  12.702 -0.0651 -0.0450  0.0370
20851DOD     C2 6373   6.235  19.175  12.441  0.0549 -0.3382  0.0138
20851DOD     C3 6374   6.066  19.389  12.042  0.2020  0.0771 -0.0005
20852DOD     C1 6375  23.463   6.195  24.685  0.2399  0.1116 -0.4300
20852DOD     C2 6376  23.888   6.192  24.575  0.3789 -0.1922  0.4690
20852DOD     C3 6377  24.308   6.252  24.775  0.1260 -0.2900 -0.0175
20853DOD     C1 6378  17.366  12.629  24.536 -0.0455  0.0130 -0.3041
20853DOD     C2 6379  17.402  13.093  24.384 -0.1923 -0.0356 -0.0486
20853DOD     C3 6380  17.441  13.510  24.592  0.0325  0.2529  0.3815
20854DOD     C1 6381  28.075  20.938  20.132 -0.2317  0.0152 -0.0878
20854DOD     C2 6382  28.441  20.975  19.864 -0.1259 -0.0888  0.0351
20854DOD     C3 6383  28.583  20.830  19.476 -0.1402  0.0511  0.1387
20855DOD     C1 6384  18.590  24.224   1.032  0.0262 -0.3812 -0.5910
20855DOD     C2 6385  18.698  23.867   0.748  0.0980 -0.0941 -0.1259
20855DOD     C3 6386  18.469  23.542   0.590 -0.1104 -0.2732 -0.0906
20856DOD     C1 6387  21.643   3.127  16.009  0.0674 -0.2842 -0.1415
20856DOD     C2 6388  21.512   3.576  15.873 -0.4263  0.0846  0.0120
20856DOD     C3 6389  21.375   3.998  16.045 -0.1732  0.0494 -0.2160
20857DOD     C1 6390  23.954  18.562  14.629  0.1850  0.2613  0.1921
20857DOD     C2 6391  23.913  18.956  14.847 -0.0584 -0.1956  0.1988
20857DOD     C3 6392  23.713  19.344  15.010 -0.0195  0.0508  0.1792
20858DOD     C1 6393  23.257  18.506  10.131  0.3934 -0.0534 -0.3320
20858DOD     C2 6394  22.823  18.605  10.284 -0.1509  0.1104  0.0794
20858DOD     C3 6395  22.334  18.535  10.249 -0.0061  0.2066 -0.0406
20859DOD     C1 6396   3.750  23.565  28.810  0.0316  0.1883 -0.1357
20859DOD     C2 6397   4.083  23.878  29.014  0.0987 -0.0639 -0.0301
20859DOD     C3 6398   4.316  24.146  29.310 -0.0753  0.3033 -0.3560
20860DOD     C1 6399  17.476  22.641  14.004 -0.0164 -0.0559 -0.0407
20860DOD     C2 6400  17.376  23.131  13.918 -0.0161  0.0997  0.1608
20860DOD     C3 6401  17.630  23.545  13.806  0.1803  0.1496  0.0475
20861DOD     C1 6402  22.458   3.508   6.240  0.0368  0.0756  0.0199
20861DOD     C2 6403  22.661   3.402   6.691 -0.1721  0.0376 -0.0734
20861DOD     C3 6404  22.494   3.383   7.179 -0.0169  0.2239  0.0414
20862DOD     C1 6405  18.518   0.083  17.284  0.4160 -0.1433  0.1548
20862DOD     C2 6406  18.425   0.440  17.516 -0.0481 -0.0360 -0.0249
20862DOD     C3 6407  18.305   0.291  17.982  0.2141  0.0756 -0.0662
20863DOD     C1 6408  20.065   2.967   5.609  0.2991 -0.1623  0.3840
20863DOD     C2 6409  19.626   3.097   5.444  0.0666 -0.0209 -0.0506
20863DOD     C3 6410  19.225   3.158   5.245 -0.1023 -0.1303 -0.0915
20864DOD     C1 6411  18.021   7.622   0.070  0.2987  0.1212  0.0413
20864DOD     C2 6412  18.030   7.221  30.179 -0.0804 -0.0369 -0.0172
20864DOD     C3 6413  18.085   6.787  -0.018  0.2523 -0.2098 -0.1771
20865DOD     C1 6414  13.728   8.641  18.457  0.1668 -0.2313  0.0370
20865DOD     C2 6415  13.685   8.271  18.249  0.3134  0.3730 -0.0830
20865DOD     C3 6416  13.821   7.893  18.038 -0.1173  0.0639  0.2590
20866DOD     C1 6417  20.341  26.712  23.196  0.3205 -0.3205  0.4694
20866DOD     C2 6418  19.984  26.480  23.078  0.3011  0.1316  0.0880
20866DOD     C3 6419  19.643  26.530  22.757  0.0247 -0.1071 -0.1162
20867DOD     C1 6420  28.145   4.030   9.909  0.3173 -0.0032  0.0118
20867DOD     C2 6421  28.336   4.406  10.153  0.1183 -0.1163 -0.1192
20867DOD     C3 6422  28.751   4.565  10.294  0.2029 -0.0116 -0.0910
20868DOD     C1 6423  15.410  10.651   4.676  0.4121  0.1757  0.1638
20868DOD     C2 6424  15.836  10.869   4.679 -0.2660  0.0967 -0.1199
20868DOD     C3 6425  15.925  11.300   4.564  0.0716 -0.1977  0.1502
20869DOD     C1 6426   5.152  15.793  24.834 -0.1780  0.2753 -0.1459
20869DOD     C2 6427   5.583  15.750  25.006 -0.4028  0.0818 -0.3173
20869DOD     C3 6428   5.770  15.411  25.206 -0.1125  0.1337  0.0253
20870DOD     C1 6429   7.064   9.355  21.707 -0.2992  0.0827 -0.1884
20870DOD     C2 6430   7.157   9.376  22.123  0.0312 -0.0932 -0.1621
20870DOD     C3 6431   7.065   9.332  22.544  0.1469 -0.3360 -0.3558
20871DOD     C1 6432  17.982  25.769  18.983 -0.0371  0.1127 -0.0487
20871DOD     C2 6433  18.101  25.501  18.618 -0.1109 -0.1137 -0.0808
20871DOD     C3 6434  18.231  25.128  18.358 -0.0193 -0.0544 -0.0426
20872DOD     C1 6435  19.986  11.921   0.187 -0.0918 -0.2004 -0.0448
20872DOD     C2 6436  19.808  11.978   0.650  0.3074 -0.0633 -0.3968
20872DOD     C3 6437  19.597  11.983   1.109  0.0375 -0.1044  0.0961
20873DOD     C1 6438  13.910  10.173  29.721 -0.1488  0.0809  0.2828
20873DOD     C2 6439  14.364  10.020  29.504 -0.0706  0.0133  0.2010
20873DOD     C3 6440  14.753   9.733  29.417 -0.3372 -0.2138 -0.2628
20874DOD     C1 6441  22.312  24.889   8.833  0.0539 -0.2161 -0.2649
20874DOD     C2 6442  22.373  25.221   8.526  0.0982 -0.5158  0.0492
20874DOD     C3 6443  22.485  25.631   8.266  0.0173 -0.0990  0.0661
20875DOD     C1 6444   9.065   7.631  19.132  0.1388  0.1045  0.2731
20875DOD     C2 6445   8.767   7.276  19.163  0.0403  0.1310 -0.0014
20875DOD     C3 6446   8.368   7.219  19.473 -0.3540  0.0990  0.1691
20876DOD     C1 6447  29.097  15.883  10.707 -0.1078  0.1237 -0.0156
20876DOD     C2 6448  29.238  15.510  10.860  0.0860  0.0446 -0.1406
20876DOD     C3 6449  29.322  15.286  11.280 -0.1276  0.0322 -0.1234
20877DOD     C1 6450  28.725  23.875  21.878  0.1158  0.1808 -0.0833
20877DOD     C2 6451  29.034  24.111  22.130 -0.2275  0.2646  0.2233
20877DOD     C3 6452  29.516  24.005  22.185  0.1561  0.4880  0.1189
20878DOD     C1 6453  19.736  21.136  15.083 -0.0857 -0.2296 -0.1296
20878DOD     C2 6454  19.302  21.169  15.126  0.0894 -0.3272  0.0070
20878DOD     C3 6455  18.939  21.120  14.783  0.2200 -0.1668 -0.1811
20879DOD     C1 6456   0.115  21.223  25.334  0.1071 -0.1514 -0.3335
20879DOD     C2 6457   0.382  21.626  25.316 -0.1379 -0.0085  0.3361
20879DOD     C3 6458   0.575  21.944  25.034 -0.0384 -0.0043 -0.0125
20880DOD     C1 6459   9.723   0.972  22.779 -0.0244  0.0568 -0.0604
20880DOD     C2 6460   9.715   1.420  22.706 -0.3017  0.0767  0.0085
20880DOD     C3 6461   9.680   1.825  22.492 -0.2473 -0.1925 -0.2011
20881DOD     C1 6462   5.764  17.311  29.976  0.1087  0.3235  0.1475
20881DOD     C2 6463   5.727  17.764  29.827  0.1094  0.0374 -0.0535
20881DOD     C3 6464   6.042  18.054  29.754 -0.2473 -0.0271 -0.4248
20882DOD     C1 6465  12.215  24.126  21.446  0.3309 -0.0641  0.2883
20882DOD     C2 6466  11.783  24.278  21.300 -0.0161  0.0935 -0.0795
20882DOD     C3 6467  11.440  24.652  21.373 -0.0898  0.0223  0.0466
20883DOD     C1 6468  25.247  18.910  17.568  0.0232 -0.1500  0.1559
20883DOD     C2 6469  25.072  19.299  17.318  0.1541 -0.1508  0.0169
20883DOD     C3 6470  24.682  19.248  17.095 -0.1496 -0.0809 -0.1530
20884DOD     C1 6471  11.434   1.104  16.358  0.0134  0.0739  0.0995
20884DOD     C2 6472  11.410   0.822  16.032 -0.0059  0.2982 -0.0383
20884DOD     C3 6473  11.590   0.827  15.629  0.1584  0.1328  0.0882
20885DOD     C1 6474  27.174  26.071   8.513 -0.2911 -0.0884  0.0574
20885DOD     C2 6475  26.792  26.346   8.485  0.2434  0.2881  0.0370
20885DOD     C3 6476  26.355  26.430   8.604 -0.0704 -0.0376 -0.1720
20886DOD     C1 6477   3.642   8.437   5.854 -0.0737  0.0282  0.1590
20886DOD     C2 6478   3.800   8.763   6.081 -0.0757 -0.2793 -0.0510
20886DOD     C3 6479   3.873   8.730   6.540 -0.1337  0.1093 -0.2671
20887DOD     C1 6480  22.759   1.885   7.097 -0.0928  0.1973  0.0547
20887DOD     C2 6481  22.830   1.495   7.384  0.2205 -0.1395 -0.0632
20887DOD     C3 6482  22.915   1.452   7.853 -0.1988 -0.1295  0.1272
20888DOD     C1 6483   6.470  14.052  11.160 -0.0080  0.2075 -0.2415
20888DOD     C2 6484   6.132  14.288  11.426  0.2053 -0.1018 -0.0551
20888DOD     C3 6485   5.674  14.420  11.294 -0.1173  0.0706  0.1080
20889DOD     C1 6486  30.130   8.268   0.760  0.1747  0.1462  0.0794
20889DOD     C2 6487  30.296   7.829   0.769  0.1021 -0.3233  0.0333
20889DOD     C3 6488  30.296   7.337   0.778  0.1757 -0.1115 -0.2103
20890DOD     C1 6489  13.777  21.172  28.490 -0.2663 -0.3348 -0.2985
20890DOD     C2 6490  13.465  20.887  28.418  0.4861  0.0491 -0.1170
20890DOD     C3 6491  13.105  20.858  28.247 -0.1034 -0.0703 -0.4786
20891DOD     C1 6492  11.978  13.247  16.280  0.0476  0.1259 -0.1214
20891DOD     C2 6493  12.338  13.199  15.991 -0.3380 -0.1535  0.1743
20891DOD     C3 6494  12.468  12.872  15.675 -0.0264 -0.1982 -0.0551
20892DOD     C1 6495   2.952   0.973   1.210 -0.1476  0.4548 -0.1713
20892DOD     C2 6496   3.368   1.238   1.146  0.1985  0.1858 -0.1126
20892DOD     C3 6497   3.562   1.619   1.186  0.1737  0.3160 -0.0140
20893DOD     C1 6498   2.410   7.371  26.068 -0.0203 -0.0938 -0.1755
20893DOD     C2 6499   2.572   7.527  26.490  0.1337  0.2378 -0.0872
20893DOD     C3 6500   2.470   7.818  26.862 -0.2201 -0.0536  0.2160
20894DOD     C1 6501   5.446   7.341  18.731  0.1180  0.1632  0.0293
20894DOD     C2 6502   5.808   7.376  18.401  0.0363 -0.1211  0.0318
20894DOD     C3 6503   6.144   7.253  18.070 -0.2507 -0.0830  0.0354
20895DOD     C1 6504   2.397   9.430  17.295  0.3821  0.1128 -0.0122
20895DOD     C2 6505   2.825   9.510  17.235 -0.0178 -0.0010 -0.4390
20895DOD     C3 6506   3.149   9.780  17.147 -0.1412  0.1311 -0.0297
20896DOD     C1 6507   2.334  10.221  22.288 -0.1588  0.0528 -0.1394
20896DOD     C2 6508   1.937  10.120  22.052  0.1780 -0.0205  0.3680
20896DOD     C3 6509   1.680   9.803  21.810  0.0798 -0.0788  0.0516
20897DOD     C1 6510  20.426   9.512  11.563 -0.4708 -0.2150 -0.0339
20897DOD     C2 6511  20.128   9.249  11.306 -0.0174  0.1120 -0.0170
20897DOD     C3 6512  20.291   9.108  10.935 -0.0732 -0.1510 -0.1241
20898DOD     C1 6513  12.839   9.492   2.011  0.1780  0.1569 -0.0163
20898DOD     C2 6514  13.276   9.467   2.173 -0.2225  0.3194 -0.1565
20898DOD     C3 6515  13.511   9.149   2.461 -0.0626  0.0302  0.1227
20899DOD     C1 6516  11.547  28.735  13.764 -0.1560 -0.0200 -0.4594
20899DOD     C2 6517  11.489  28.331  14.097 -0.2900 -0.1593 -0.0583
20899DOD     C3 6518  11.536  28.345  14.552  0.1046  0.3521  0.1370
20900DOD     C1 6519  24.663   5.370   9.024  0.1182  0.0213  0.1947
20900DOD     C2 6520  24.816   5.031   8.769  0.0845  0.0503 -0.0612
20900DOD     C3 6521  24.613   4.802   8.463  0.1421  0.0933  0.0520
20901DOD     C1 6522   6.205  13.868   5.253  0.3329  0.1298 -0.2063
20901DOD     C2 6523   6.608  13.712   5.091  0.1037  0.0655  0.3111
20901DOD     C3 6524   7.027  13.804   5.112 -0.0670 -0.2078 -0.0409
20902DOD     C1 6525  14.774  17.615   4.313  0.2778 -0.2424 -0.0094
20902DOD     C2 6526  14.422  17.684   4.623  0.2204  0.0157 -0.1709
20902DOD     C3 6527  14.010  17.572   4.758 -0.1327 -0.0945 -0.1438
20903DOD     C1 6528   2.694  20.437   0.481 -0.1765 -0.0949  0.1284
20903DOD     C2 6529   2.385  20.555   0.178 -0.2237  0.1595 -0.0991
20903DOD     C3 6530   2.086  20.590  30.261 -0.1850  0.1408 -0.0859
20904DOD     C1 6531  29.265  22.801   7.876 -0.2156 -0.0566  0.2532
20904DOD     C2 6532  29.429  22.409   7.692  0.3190 -0.4399 -0.2353
20904DOD     C3 6533  29.330  22.082   7.350 -0.0567  0.2266  0.2359
20905DOD     C1 6534   3.914  13.119   1.807  0.3235 -0.1321  0.4318
20905DOD     C2 6535   4.279  12.948   1.551  0.1150 -0.1686  0.2709
20905DOD     C3 6536   4.567  12.628   1.354  0.0733 -0.0770  0.0295
20906DOD     C1 6537   9.115   3.755  15.080 -0.2024 -0.1710  0.0064
20906DOD     C2 6538   8.767   3.575  15.314 -0.1246  0.1437  0.1913
20906DOD     C3 6539   8.642   3.356  15.693 -0.2613  0.1986  0.0415
20907DOD     C1 6540  25.115   3.100  24.362 -0.0488  0.1504  0.1081
20907DOD     C2 6541  24.850   3.511  24.343  0.0671 -0.4150 -0.2559
20907DOD     C3 6542  24.986   3.869  24.048  0.0988 -0.1382 -0.1850
20908DOD     C1 6543  22.419  29.467  29.602 -0.0032  0.2723  0.2237
20908DOD     C2 6544  22.528  29.803  29.278  0.0626 -0.1899 -0.0119
20908DOD     C3 6545  22.725  30.213  29.027 -0.0934  0.2178 -0.2082
20909DOD     C1 6546   6.745   4.697  25.475 -0.1483  0.3089  0.0299
20909DOD     C2 6547   6.720   4.689  25.949  0.1099  0.0348 -0.0015
20909DOD     C3 6548   6.597   4.769  26.397 -0.0684  0.1740 -0.0094
20910DOD     C1 6549   6.225   5.937   2.718  0.1781  0.2295 -0.1195
20910DOD     C2 6550   6.290   5.958   3.195  0.1767 -0.0515 -0.0789
20910DOD     C3 6551   6.326   5.602   3.501 -0.2638  0.0743  0.3973
20911DOD     C1 6552   4.855  21.035  13.885 -0.4721 -0.1240 -0.0509
20911DOD     C2 6553   4.642  21.414  14.034  0.2771 -0.0318 -0.0111
20911DOD     C3 6554   4.588  21.813  13.844  0.5601 -0.2496  0.1506
20912DOD     C1 6555  13.005   2.214   4.630  0.1573 -0.2261 -0.2067
20912DOD     C2 6556  12.953   1.903   4.284  0.4406  0.0970 -0.1127
20912DOD     C3 6557  12.854   1.516   4.053 -0.0365  0.0177  0.2011
20913DOD     C1 6558  25.035  11.581  16.384 -0.1062 -0.3321  0.0005
20913DOD     C2 6559  24.806  11.622  15.932  0.0861 -0.0813 -0.1531
20913DOD     C3 6560  24.383  11.546  15.702 -0.1021 -0.1223  0.2639
20914DOD     C1 6561  20.111  27.154   3.289  0.1188 -0.1206 -0.0470
20914DOD     C2 6562  20.464  27.308   3.127  0.0502 -0.1444  0.1372
20914DOD     C3 6563  20.891  27.462   3.184  0.0420 -0.1053 -0.1711
20915DOD     C1 6564   6.339  30.200  23.098  0.0522 -0.4244 -0.0735
20915DOD     C2 6565   6.670  30.062  23.405 -0.1325  0.0559  0.3144
20915DOD     C3 6566   6.896  29.979  23.819 -0.0457 -0.2988  0.2630
20916DOD     C1 6567   7.611  27.888  15.873 -0.3065  0.1500  0.3246
20916DOD     C2 6568   7.978  28.056  16.086 -0.3706  0.0894 -0.1775
20916DOD     C3 6569   8.441  28.287  16.080 -0.1009  0.0722 -0.0437
20917DOD     C1 6570  20.996  16.218  23.098 -0.0924 -0.1160  0.0409
20917DOD     C2 6571  20.673  16.332  22.858  0.0212  0.0660  0.0554
20917DOD     C3 6572  20.599  16.319  22.411  0.0624  0.2609  0.2344
20918DOD     C1 6573  16.571  27.573  24.472 -0.0213 -0.2177 -0.1854
20918DOD     C2 6574  16.724  27.443  24.922 -0.0353  0.2358 -0.1465
20918DOD     C3 6575  16.664  27.035  25.107 -0.0612 -0.0734  0.0749
20919DOD     C1 6576  19.194  20.410  14.713  0.0980 -0.0706 -0.1434
20919DOD     C2 6577  19.208  20.555  14.268 -0.1783 -0.0374 -0.0615
20919DOD     C3 6578  19.446  20.437  13.869  0.1043  0.1815  0.3467
20920DOD     C1 6579  29.023   7.195   8.302  0.0644 -0.0236  0.2277
20920DOD     C2 6580  29.282   6.843   8.376 -0.0879  0.2439  0.2056
20920DOD     C3 6581  29.580   6.606   8.630 -0.1784  0.2218 -0.0024
20921DOD     C1 6582   2.025  19.340   4.378 -0.1437 -0.0651  0.1183
20921DOD     C2 6583   1.717  19.717   4.503 -0.2872  0.2695  0.1043
20921DOD     C3 6584   1.353  20.043   4.551 -0.0699  0.0121  0.1346
20922DOD     C1 6585  28.161  21.397   5.876 -0.2280  0.0775  0.1522
20922DOD     C2 6586  28.174  20.935   5.755 -0.0084 -0.0614  0.0491
20922DOD     C3 6587  28.570  20.625   5.756  0.4282 -0.1689 -0.1001
20923DOD     C1 6588  25.008  15.450   5.284  0.0743 -0.2290 -0.1825
20923DOD     C2 6589  25.415  15.673   5.338  0.0679 -0.0173 -0.1365
20923DOD     C3 6590  25.832  15.449   5.275 -0.1966  0.0073  0.2554
20924DOD     C1 6591  26.786  19.692  19.304  0.0161  0.0623 -0.0273
20924DOD     C2 6592  26.810  20.059  18.938  0.1646  0.2565 -0.1776
20924DOD     C3 6593  27.192  20.125  18.598  0.0760 -0.3211  0.1380
20925DOD     C1 6594  23.444  18.786   8.573 -0.0003  0.0068 -0.0807
20925DOD     C2 6595  23.063  18.525   8.625  0.3251 -0.1517 -0.0063
20925DOD     C3 6596  22.751  18.262   8.604  0.2514  0.0751 -0.0598
20926DOD     C1 6597  29.307  15.528   0.759 -0.2139  0.1703 -0.0670
20926DOD     C2 6598  29.454  15.462   1.187  0.2583 -0.0461 -0.0347
20926DOD     C3 6599  29.749  15.509   1.548  0.1617 -0.1005 -0.0539
20927DOD     C1 6600  10.521  10.066   1.556  0.0852 -0.3151 -0.0815
20927DOD     C2 6601  10.200  10.317   1.262  0.0808  0.0078 -0.0024
20927DOD     C3 6602   9.809  10.554   1.414 -0.0368  0.0452 -0.0427
20928DOD     C1 6603   3.413  21.256  26.611 -0.0783  0.1989  0.1361
20928DOD     C2 6604   2.913  21.404  26.563  0.2048  0.0364  0.0116
20928DOD     C3 6605   2.516  21.539  26.818  0.0035  0.1011  0.0338
20929DOD     C1 6606   1.586   4.529  13.305  0.0084 -0.2720 -0.1213
20929DOD     C2 6607   1.464   4.518  13.746  0.1050  0.1118 -0.1017
20929DOD     C3 6608   1.460   4.466  14.204 -0.1888  0.2593 -0.0165
20930DOD     C1 6609  27.844  14.306  27.764 -0.1004  0.0270  0.0085
20930DOD     C2 6610  27.958  14.610  28.128  0.3012 -0.1217 -0.1359
20930DOD     C3 6611  27.978  14.967  28.464 -0.1277 -0.1296  0.2672
20931DOD     C1 6612  20.022  27.300  15.015  0.0272 -0.0643 -0.1227
20931DOD     C2 6613  20.412  27.552  15.115  0.0249 -0.1562  0.1028
20931DOD     C3 6614  20.817  27.612  14.996  0.1309 -0.1714 -0.1124
20932DOD     C1 6615   6.118   4.885  13.242  0.1321  0.1062 -0.3074
20932DOD     C2 6616   6.487   5.016  13.447 -0.1527  0.1630  0.1311
20932DOD     C3 6617   6.876   5.217  13.348  0.1236 -0.3646  0.1038
20933DOD     C1 6618   5.095  27.290  10.408  0.0120  0.2653 -0.3652
20933DOD     C2 6619   5.563  27.296  10.319  0.0769  0.0759 -0.0075
20933DOD     C3 6620   6.000  27.199  10.252  0.0576  0.0205 -0.0854
20934DOD     C1 6621   4.003   3.672  24.541 -0.0948  0.0385  0.3367
20934DOD     C2 6622   4.390   3.929  24.705  0.0451  0.0636  0.4465
20934DOD     C3 6623   4.803   3.966  24.834  0.0527  0.2734  0.0875
20935DOD     C1 6624   8.955  19.270  10.370 -0.0241  0.3393 -0.0805
20935DOD     C2 6625   8.934  19.461  10.812  0.2395 -0.1914  0.0311
20935DOD     C3 6626   8.559  19.441  11.073  0.0478 -0.2017  0.1888
20936DOD     C1 6627   9.693  27.264  23.892  0.1541 -0.0179  0.2275
20936DOD     C2 6628   9.870  27.661  24.054  0.0707 -0.1062  0.3262
20936DOD     C3 6629  10.075  28.037  23.740  0.0802  0.0218 -0.0983
20937DOD     C1 6630  19.620  20.888   4.298  0.1790 -0.1360  0.1055
20937DOD     C2 6631  19.887  20.681   4.659  0.1699 -0.0743 -0.2655
20937DOD     C3 6632  20.278  20.737   4.894 -0.2511  0.2398 -0.1716
20938DOD     C1 6633   3.188  10.989  21.694 -0.0514  0.3060 -0.3686
20938DOD     C2 6634   3.359  10.837  21.275 -0.1341  0.1279  0.1063
20938DOD     C3 6635   3.709  10.812  20.950 -0.0362 -0.0211  0.1953
20939DOD     C1 6636  14.236  15.326   1.369 -0.1575  0.0840  0.2278
20939DOD     C2 6637  13.946  15.343   1.697  0.3909  0.1886 -0.0584
20939DOD     C3 6638  13.509  15.198   1.802  0.2250  0.0858 -0.3321
20940DOD     C1 6639  25.511   0.691  20.981 -0.0579 -0.0662  0.0106
20940DOD     C2 6640  25.821   0.376  21.121  0.1704 -0.0984 -0.2124
20940DOD     C3 6641  26.248   0.328  21.379  0.2391 -0.2719  0.0315
20941DOD     C1 6642   0.735  11.955  23.077  0.2011  0.2251 -0.2216
20941DOD     C2 6643   1.040  12.071  23.371 -0.0403  0.1062 -0.0559
20941DOD     C3 6644   1.477  12.093  23.598  0.0935  0.2741  0.2331
20942DOD     C1 6645  13.544  28.901  20.127 -0.3734 -0.1819  0.2036
20942DOD     C2 6646  13.719  29.238  20.381 -0.1723 -0.2416  0.0284
20942DOD     C3 6647  13.898  29.380  20.817  0.0597  0.2493  0.0610
20943DOD     C1 6648   4.699  17.853  11.338 -0.2915 -0.0260 -0.0412
20943DOD     C2 6649   4.275  17.694  11.168 -0.2661  0.1408 -0.0218
20943DOD     C3 6650   3.845  17.766  11.107  0.1962 -0.1053  0.2894
20944DOD     C1 6651  21.935  22.365  12.239 -0.0400  0.0131  0.4436
20944DOD     C2 6652  22.117  22.704  11.980  0.3194 -0.0316  0.3620
20944DOD     C3 6653  22.520  22.655  11.712  0.0738  0.1244 -0.3704
20945DOD     C1 6654   9.682  16.806  10.117 -0.1459 -0.3872  0.2000
20945DOD     C2 6655   9.537  16.930  10.566 -0.1041  0.0223  0.0906
20945DOD     C3 6656   9.215  16.807  10.951 -0.0455  0.1855  0.2897
20946DOD     C1 6657  29.406  17.683  21.461 -0.0572  0.1129  0.0752
20946DOD     C2 6658  29.476  17.391  21.784 -0.0143  0.0951  0.0574
20946DOD     C3 6659  29.912  17.354  21.968  0.0947  0.1319 -0.1360
20947DOD     C1 6660   4.065  22.109  22.670 -0.1300  0.1021  0.2179
20947DOD     C2 6661   3.792  22.380  22.979 -0.1107  0.0092 -0.0387
20947DOD     C3 6662   3.454  22.544  23.215 -0.0189 -0.0485  0.2280
20948DOD     C1 6663   6.498  29.585  19.799  0.0607 -0.0008 -0.1779
20948DOD     C2 6664   6.820  29.296  19.690  0.2021  0.0532 -0.3354
20948DOD     C3 6665   7.091  29.022  19.491 -0.3198  0.1358  0.1334
20949DOD     C1 6666  23.173   4.827   7.477  0.0369 -0.0714  0.1123
20949DOD     C2 6667  23.461   4.784   7.857 -0.0336 -0.0866  0.3287
20949DOD     C3 6668  23.755   4.980   8.088  0.1605 -0.0138  0.0135
20950DOD     C1 6669  25.430   1.493  20.275  0.1903  0.3056 -0.1507
20950DOD     C2 6670  25.112   1.485  19.990  0.0296 -0.5840  0.0443
20950DOD     C3 6671  24.732   1.691  19.781 -0.2236  0.0758  0.2604
20951DOD     C1 6672   2.215  24.924   3.927  0.2119  0.1494  0.3422
20951DOD     C2 6673   2.546  24.521   4.066  0.0951  0.0101  0.1942
20951DOD     C3 6674   2.998  24.315   4.176 -0.0984 -0.0346  0.0100
20952DOD     C1 6675  11.024  21.702  17.155  0.1737  0.4103 -0.0942
20952DOD     C2 6676  11.133  21.287  17.393 -0.1138  0.0132  0.0615
20952DOD     C3 6677  11.234  20.845  17.288 -0.1704  0.1290 -0.0736
20953DOD     C1 6678   3.042   9.370  10.378  0.0782  0.0911 -0.0729
20953DOD     C2 6679   2.937   8.889  10.291 -0.1846  0.1146 -0.2016
20953DOD     C3 6680   2.835   8.474  10.100  0.1714 -0.0693  0.1773
20954DOD     C1 6681  14.726  10.416  18.462  0.1251  0.1554  0.4424
20954DOD     C2 6682  14.460  10.038  18.464  0.1625 -0.2762  0.2172
20954DOD     C3 6683  14.343   9.582  18.409  0.0302 -0.0938 -0.4763
20955DOD     C1 6684  21.916  28.010  11.856  0.0037  0.0839  0.2666
20955DOD     C2 6685  21.512  28.132  11.962  0.1851 -0.0838  0.1661
20955DOD     C3 6686  21.191  28.462  12.114  0.0683 -0.1771  0.1188
20956DOD     C1 6687   7.605  25.169  22.267  0.1105  0.2009  0.5245
20956DOD     C2 6688   7.225  24.960  22.389 -0.1236 -0.2025 -0.0865
20956DOD     C3 6689   6.810  24.793  22.313 -0.0266 -0.0788 -0.0407
20957DOD     C1 6690  10.199  18.368  15.360  0.0883  0.1093 -0.3406
20957DOD     C2 6691  10.370  18.409  15.807 -0.2068  0.0541  0.2433
20957DOD     C3 6692  10.638  18.470  16.200  0.0430  0.2805 -0.2041
20958DOD     C1 6693  27.179   0.350  15.152  0.3180 -0.0057  0.2804
20958DOD     C2 6694  27.600   0.297  15.279  0.0647 -0.0153 -0.1161
20958DOD     C3 6695  28.014   0.151  15.214 -0.4041 -0.2030 -0.2534
20959DOD     C1 6696   5.846   1.557   6.034 -0.1568 -0.1949 -0.0630
20959DOD     C2 6697   5.812   1.963   5.819 -0.1565  0.1651 -0.1549
20959DOD     C3 6698   5.574   2.341   5.761 -0.1281 -0.0299  0.0119
20960DOD     C1 6699  24.873  24.624  12.752 -0.0544 -0.0113  0.0954
20960DOD     C2 6700  24.710  24.464  12.344 -0.5677 -0.1436 -0.0578
20960DOD     C3 6701  24.468  24.597  11.997 -0.2268  0.1368  0.2141
20961DOD     C1 6702  14.356  13.782  18.713  0.0944  0.2357 -0.0978
20961DOD     C2 6703  14.575  14.036  18.450 -0.1837 -0.0524  0.1483
20961DOD     C3 6704  14.650  14.488  18.327  0.0259 -0.1712  0.3162
20962DOD     C1 6705   2.783  19.645   2.987  0.1026 -0.1410 -0.0636
20962DOD     C2 6706   2.880  19.216   3.111 -0.2812  0.2685 -0.2696
20962DOD     C3 6707   3.025  18.963   3.464 -0.3040  0.3312  0.0650
20963DOD     C1 6708  18.978   0.799  16.395  0.2059  0.0675 -0.0378
20963DOD     C2 6709  18.826   0.588  16.797  0.1138  0.1814 -0.2263
20963DOD     C3 6710  18.876   0.487  17.299  0.1482  0.1146  0.0273
20964DOD     C1 6711  15.251  18.170   8.178 -0.0290 -0.0198  0.1335
20964DOD     C2 6712  14.804  18.149   8.247  0.2447 -0.0343  0.0920
20964DOD     C3 6713  14.374  18.154   8.456 -0.2866  0.1045 -0.1078
20965DOD     C1 6714   3.506   7.455   1.073  0.0368 -0.0953 -0.0167
20965DOD     C2 6715   3.273   7.760   1.333 -0.2018  0.3929 -0.1132
20965DOD     C3 6716   3.070   8.185   1.400  0.0507 -0.1290  0.0628
20966DOD     C1 6717   7.715  18.576  22.076  0.1420  0.4856 -0.2537
20966DOD     C2 6718   7.692  19.032  21.931 -0.0462 -0.0337 -0.0589
20966DOD     C3 6719   7.414  19.434  21.897 -0.1005  0.1522  0.0427
20967DOD     C1 6720  20.174  20.254  24.455 -0.2124  0.0736  0.0449
20967DOD     C2 6721  20.210  20.339  24.885 -0.0347 -0.1648 -0.1642
20967DOD     C3 6722  20.178  20.293  25.404 -0.0712 -0.0542  0.1747
20968DOD     C1 6723   0.879  17.744   9.473  0.1716 -0.0347 -0.0087
20968DOD     C2 6724   0.536  17.671   9.733 -0.3658  0.0243 -0.0791
20968DOD     C3 6725   0.437  17.446  10.083 -0.1523 -0.1432 -0.0154
20969DOD     C1 6726   4.470  29.992   8.016 -0.0112  0.2924  0.1051
20969DOD     C2 6727   4.405  30.025   7.572  0.0455  0.3006  0.0268
20969DOD     C3 6728   4.274  30.015   7.125  0.3748 -0.0561 -0.4723
20970DOD     C1 6729   0.613  15.458  17.998 -0.2456  0.2005 -0.1145
20970DOD     C2 6730   0.567  15.906  18.047  0.0066 -0.1894 -0.0805
20970DOD     C3 6731   0.610  16.263  18.372  0.1485 -0.0791  0.0120
20971DOD     C1 6732  27.157  28.533  22.714  0.0062  0.0013  0.2730
20971DOD     C2 6733  27.607  28.749  22.826 -0.2349 -0.2342  0.1113
20971DOD     C3 6734  28.118  28.720  22.843  0.1509 -0.1286 -0.1333
20972DOD     C1 6735   6.056  25.961  11.919 -0.1844  0.1129  0.3213
20972DOD     C2 6736   5.779  25.801  12.272  0.2437  0.1927  0.1353
20972DOD     C3 6737   5.468  25.583  12.570 -0.0233  0.2547 -0.0377
20973DOD     C1 6738  11.745   0.539  21.789  0.2185 -0.0682 -0.0183
20973DOD     C2 6739  12.108   0.738  22.041  0.0384  0.1613 -0.1052
20973DOD     C3 6740  12.279   0.743  22.520  0.2192 -0.0722  0.3979
20974DOD     C1 6741  12.090  30.285   0.874 -0.0982 -0.0209 -0.2927
20974DOD     C2 6742  11.744   0.335   0.895  0.2789 -0.0197 -0.1601
20974DOD     C3 6743  11.415   0.681   0.867 -0.0617  0.1559 -0.1085
20975DOD     C1 6744   1.921   8.101  26.005  0.2234  0.1250  0.0562
20975DOD     C2 6745   2.141   7.777  26.223 -0.2608  0.0822  0.1424
20975DOD     C3 6746   2.106   7.389  26.519 -0.1798  0.0300  0.2358
20976DOD     C1 6747  23.344  18.668   5.925 -0.2192 -0.0385  0.0486
20976DOD     C2 6748  23.375  19.091   5.723 -0.1875 -0.0686  0.0053
20976DOD     C3 6749  23.594  19.456   5.809 -0.3257 -0.1523  0.0363
20977DOD     C1 6750   4.056  18.830  13.814 -0.2379  0.1116  0.0209
20977DOD     C2 6751   3.617  18.722  13.634  0.0744  0.0617 -0.1171
20977DOD     C3 6752   3.366  18.653  13.258 -0.2106 -0.0441 -0.2569
20978DOD     C1 6753  18.439   0.549  14.457  0.2366 -0.1276 -0.2748
20978DOD     C2 6754  18.248   0.684  14.877  0.1573 -0.1047  0.2459
20978DOD     C3 6755  18.084   1.129  14.986  0.1426 -0.2899  0.1730
20979DOD     C1 6756  20.087  25.787  17.915 -0.1657  0.2387  0.0859
20979DOD     C2 6757  19.892  25.350  17.977 -0.1228  0.1018  0.0304
20979DOD     C3 6758  19.745  25.010  18.269  0.1276  0.1432 -0.1056
20980DOD     C1 6759  16.296  25.896   3.319  0.0538  0.3281  0.0664
20980DOD     C2 6760  16.118  26.322   3.560  0.3774 -0.1087  0.2468
20980DOD     C3 6761  15.916  26.679   3.782 -0.2047  0.1252 -0.0638
20981DOD     C1 6762  26.616  18.222  25.714 -0.1969 -0.1057  0.1807
20981DOD     C2 6763  26.457  17.931  25.971 -0.0484  0.2711 -0.0219
20981DOD     C3 6764  26.249  17.942  26.313  0.2014  0.1698  0.2484
20982DOD     C1 6765   9.820   1.184   9.129 -0.1177  0.0985  0.1175
20982DOD     C2 6766   9.961   1.374   9.541  0.0939 -0.1402 -0.2331
20982DOD     C3 6767  10.037   1.447   9.995  0.2178 -0.2104 -0.0792
20983DOD     C1 6768  18.515  25.622  18.340 -0.0064 -0.1513  0.0364
20983DOD     C2 6769  18.102  25.650  18.126  0.0494  0.0209 -0.1779
20983DOD     C3 6770  17.969  25.954  17.743 -0.3729  0.1230 -0.1378
20984DOD     C1 6771  10.612  21.149  10.659 -0.2125 -0.1530 -0.0252
20984DOD     C2 6772  10.542  21.459  11.013 -0.3924 -0.0108  0.0545
20984DOD     C3 6773  10.163  21.754  11.106 -0.2730  0.0522 -0.2149
20985DOD     C1 6774  28.036   4.100   1.810 -0.0705  0.0461  0.0623
20985DOD     C2 6775  28.060   4.362   2.188 -0.1632 -0.0588  0.0146
20985DOD     C3 6776  27.875   4.825   2.280 -0.0989  0.0830  0.2273
20986DOD     C1 6777  15.209   0.141   0.973  0.0794  0.1775  0.0500
20986DOD     C2 6778  14.728   0.075   0.995 -0.2517  0.2213 -0.2516
20986DOD     C3 6779  14.295   0.083   0.798 -0.2791  0.1078  0.0773
20987DOD     C1 6780   6.887  10.574   4.076 -0.0705 -0.1338  0.1517
20987DOD     C2 6781   6.517  10.807   4.166 -0.0644  0.1381 -0.1126
20987DOD     C3 6782   6.543  11.199   4.345  0.1846  0.2425  0.1256
20988DOD     C1 6783   4.275  26.518  29.901  0.1267  0.1388 -0.1808
20988DOD     C2 6784   4.195  26.176  30.154 -0.1574  0.2151 -0.2388
20988DOD     C3 6785   4.413  25.899   0.151 -0.2466 -0.1829 -0.2783
20989DOD     C1 6786   0.472   9.478  15.959  0.3585 -0.3695 -0.0332
20989DOD     C2 6787   0.118   9.250  15.716 -0.3251  0.0204 -0.1120
20989DOD     C3 6788  30.214   8.837  15.710 -0.0659 -0.2359 -0.2928
20990DOD     C1 6789   6.183  20.754   8.869  0.5322 -0.0233  0.1101
20990DOD     C2 6790   6.125  20.301   9.074  0.0496 -0.0021 -0.2257
20990DOD     C3 6791   5.883  19.876   9.065 -0.2759 -0.6047  0.1053
20991DOD     C1 6792  29.819  19.580   8.900  0.2034  0.0286 -0.0743
20991DOD     C2 6793  29.539  19.785   8.616 -0.2029  0.3662 -0.1275
20991DOD     C3 6794  29.309  19.962   8.279 -0.1902  0.0753  0.0412
20992DOD     C1 6795  10.573  29.468   6.774 -0.2943  0.3144  0.0488
20992DOD     C2 6796  10.881  29.302   7.102  0.2207  0.3072 -0.0536
20992DOD     C3 6797  10.937  29.254   7.570 -0.0166 -0.0007  0.2317
20993DOD     C1 6798   4.752  11.965  23.906  0.2856 -0.1088 -0.2022
20993DOD     C2 6799   5.133  11.836  24.125  0.0631 -0.0203 -0.0408
20993DOD     C3 6800   5.458  12.068  24.293 -0.1453 -0.2694  0.0502
20994DOD     C1 6801   2.307  29.762  22.297  0.1769  0.0889 -0.2891
20994DOD     C2 6802   2.775  29.992  22.226 -0.0200  0.1220  0.1576
20994DOD     C3 6803   3.235  30.136  22.166 -0.2051 -0.2490  0.0656
20995DOD     C1 6804  19.804  12.070  27.816  0.2519 -0.1674 -0.1275
20995DOD     C2 6805  19.326  12.075  27.908 -0.1086  0.0229  0.0561
20995DOD     C3 6806  18.874  12.051  28.157 -0.3518  0.2655  0.4737
20996DOD     C1 6807  19.833  24.275   4.338 -0.3156  0.0456  0.0024
20996DOD     C2 6808  20.121  24.574   4.093  0.2830 -0.1500  0.4048
20996DOD     C3 6809  20.635  24.681   4.022  0.0354  0.1911  0.2580
20997DOD     C1 6810  26.477  12.921  24.110 -0.2693 -0.0521  0.4516
20997DOD     C2 6811  26.125  12.634  24.333  0.2266  0.2799  0.1864
20997DOD     C3 6812  26.013  12.274  24.602 -0.2955  0.0496  0.0170
20998DOD     C1 6813   7.686   2.394  17.760 -0.0465  0.1964  0.2559
20998DOD     C2 6814   7.317   2.570  17.918 -0.1838 -0.0314  0.1461
20998DOD     C3 6815   6.922   2.798  17.912  0.1412 -0.0163 -0.0523
20999DOD     C1 6816   6.023   8.609  19.433  0.0423  0.2444 -0.0276
20999DOD     C2 6817   5.973   8.418  19.869  0.1116  0.2079 -0.1736
20999DOD     C3 6818   5.883   8.796  20.142 -0.0016 -0.1883 -0.1209
21000DOD     C1 6819   4.521  13.199   5.428 -0.0649 -0.1499  0.0076
21000DOD     C2 6820   4.081  13.125   5.480  0.1630 -0.0763 -0.1753
21000DOD     C3 6821   3.732  12.826   5.440 -0.1236  0.1116  0.0093
21001DOD     C1 6822   5.541  21.223   6.899 -0.0376  0.1213 -0.1660
21001DOD     C2 6823   5.477  21.360   6.477  0.2117 -0.0485 -0.0121
21001DOD     C3 6824   5.081  21.525   6.226  0.0692  0.0935  0.0360
21002DOD     C1 6825  18.902  20.363  24.839 -0.1566 -0.2371  0.0792
21002DOD     C2 6826  18.503  20.672  24.742 -0.3975  0.0063  0.2196
21002DOD     C3 6827  18.383  20.889  24.363  0.2168  0.0553 -0.0148
21003DOD     C1 6828  15.322   4.297  18.712  0.1006  0.0449  0.0688
21003DOD     C2 6829  15.592   3.940  18.835  0.0537  0.0656 -0.2932
21003DOD     C3 6830  16.000   3.907  19.052  0.0584 -0.0849  0.1132
21004DOD     C1 6831   3.321  30.073   9.476  0.0312 -0.1269  0.1398
21004DOD     C2 6832   2.894  30.106   9.628 -0.1533 -0.1539 -0.0638
21004DOD     C3 6833   2.467  30.253   9.784  0.0410 -0.1522  0.4454
21005DOD     C1 6834  14.479  22.698   6.816 -0.0484  0.0687 -0.3611
21005DOD     C2 6835  14.643  22.453   7.194 -0.1619 -0.1472 -0.0512
21005DOD     C3 6836  15.015  22.342   7.427  0.1865 -0.2981 -0.1189
21006DOD     C1 6837  24.852  27.388   2.805 -0.1268  0.0249 -0.1460
21006DOD     C2 6838  24.834  27.820   2.582  0.2144 -0.0431 -0.5045
21006DOD     C3 6839  24.612  28.155   2.274  0.0714 -0.0017  0.1121
21007DOD     C1 6840   1.408  21.685  16.478 -0.0700 -0.1109 -0.1180
21007DOD     C2 6841   1.369  21.255  16.281  0.0826  0.2225 -0.1428
21007DOD     C3 6842   1.104  20.877  16.320 -0.1046  0.4156 -0.2067
21008DOD     C1 6843   0.087  13.342  14.518 -0.1969  0.0343  0.0159
21008DOD     C2 6844   0.244  13.753  14.299 -0.2164 -0.1152 -0.1735
21008DOD     C3 6845   0.505  13.791  13.934 -0.0953  0.0310 -0.2146
21009DOD     C1 6846  29.679   0.564   0.423  0.0997 -0.4395 -0.0868
21009DOD     C2 6847  29.562   0.685  -0.008 -0.0577 -0.0655 -0.0328
21009DOD     C3 6848  29.349   1.025  30.064 -0.1503 -0.0952  0.1734
21010DOD     C1 6849  19.856  16.424  18.910 -0.0838  0.1475 -0.1306
21010DOD     C2 6850  19.815  16.034  19.154 -0.0190  0.3915  0.1572
21010DOD     C3 6851  19.525  15.877  19.517 -0.0516  0.2520  0.2650
21011DOD     C1 6852   5.130  28.694  21.133 -0.3182 -0.2097  0.4045
21011DOD     C2 6853   4.780  29.034  21.191  0.0784 -0.1196 -0.3423
21011DOD     C3 6854   4.324  29.167  21.087 -0.0014 -0.1089 -0.0432
21012DOD     C1 6855  24.782  18.262  15.537  0.0515 -0.1190 -0.2225
21012DOD     C2 6856  24.931  17.947  15.835  0.0167 -0.2500  0.0741
21012DOD     C3 6857  25.021  17.498  15.864 -0.1535 -0.4124  0.3151
21013DOD     C1 6858  15.663  24.236   1.381  0.1239  0.0270  0.4906
21013DOD     C2 6859  15.807  24.633   1.699  0.0248  0.2610 -0.2241
21013DOD     C3 6860  15.848  25.067   1.896 -0.2053 -0.2710  0.0646
21014DOD     C1 6861  27.202  11.853   3.685 -0.0605  0.3121 -0.2490
21014DOD     C2 6862  26.829  11.541   3.765  0.0459  0.1290  0.0230
21014DOD     C3 6863  26.965  11.150   4.017 -0.1007  0.0816 -0.4193
21015DOD     C1 6864   8.812  13.763  16.639  0.1416 -0.0220 -0.0363
21015DOD     C2 6865   9.009  14.111  16.485 -0.1673  0.3213 -0.0122
21015DOD     C3 6866   9.267  14.476  16.560  0.3098  0.2023  0.1387
21016DOD     C1 6867  24.660  22.415  18.984  0.1328  0.1166  0.0678
21016DOD     C2 6868  24.721  21.987  19.252 -0.0935 -0.2285  0.0514
21016DOD     C3 6869  25.031  21.909  19.600  0.2128 -0.1319  0.1529
21017DOD     C1 6870   3.233  11.252   5.644  0.0666  0.0168 -0.0710
21017DOD     C2 6871   3.097  11.068   5.267  0.3607 -0.0410  0.1999
21017DOD     C3 6872   2.857  11.017   4.913  0.3025  0.2690  0.3753
21018DOD     C1 6873  26.269   0.299  18.730 -0.1322  0.2099 -0.2613
21018DOD     C2 6874  25.858   0.267  19.004  0.0984 -0.0723 -0.1663
21018DOD     C3 6875  25.508   0.145  19.264 -0.2496  0.2632 -0.0901
21019DOD     C1 6876   4.705  18.710   7.753 -0.1525 -0.1156 -0.1251
21019DOD     C2 6877   4.921  19.116   7.756 -0.1063  0.0197  0.2475
21019DOD     C3 6878   5.268  19.391   7.892  0.4030 -0.1744 -0.0934
21020DOD     C1 6879   2.339   6.766  14.131 -0.0562  0.3682 -0.3556
21020DOD     C2 6880   2.379   6.336  13.988  0.0538  0.1675 -0.0632
21020DOD     C3 6881   2.137   5.968  14.092  0.1544 -0.3011 -0.1617
21021DOD     C1 6882  20.060   5.603  16.739 -0.4439  0.1307  0.2537
21021DOD     C2 6883  19.615   5.397  16.574 -0.2763 -0.2037 -0.1297
21021DOD     C3 6884  19.413   4.981  16.438  0.1825  0.1202 -0.0554
21022DOD     C1 6885   0.852  28.799   4.291 -0.1447 -0.3900 -0.2058
21022DOD     C2 6886   0.568  28.519   4.078  0.0177  0.0274  0.1838
21022DOD     C3 6887   0.516  28.359   3.652 -0.2974 -0.0699  0.0175
21023DOD     C1 6888  17.833   7.866  29.076 -0.1160 -0.1597 -0.1085
21023DOD     C2 6889  17.652   8.213  28.838  0.0535 -0.1128 -0.1049
21023DOD     C3 6890  17.676   8.539  28.500 -0.0491 -0.0889  0.2362
21024DOD     C1 6891  16.045  30.178  13.842 -0.0060 -0.1713 -0.1370
21024DOD     C2 6892  15.893  29.757  13.912 -0.0294 -0.1120 -0.3740
21024DOD     C3 6893  15.792  29.332  14.138  0.0382 -0.4063  0.2853
21025DOD     C1 6894  11.543  19.611  10.054 -0.1074  0.2361 -0.3073
21025DOD     C2 6895  11.347  19.221  10.215  0.0354 -0.0057  0.2988
21025DOD     C3 6896  11.127  18.847  10.340 -0.0483 -0.1600  0.0694
21026DOD     C1 6897  14.296   9.089   2.520 -0.2801  0.0820  0.2230
21026DOD     C2 6898  14.041   9.087   2.906 -0.2497  0.0687  0.0160
21026DOD     C3 6899  13.599   8.957   2.912  0.0070 -0.0327  0.0647
21027DOD     C1 6900   1.493  27.377   3.402 -0.2341  0.1802  0.0268
21027DOD     C2 6901   1.581  26.947   3.455  0.0183 -0.2817  0.0486
21027DOD     C3 6902   1.524  26.558   3.641 -0.1191  0.2445  0.2465
21028DOD     C1 6903  17.261  26.775   1.536  0.0535  0.3251  0.2737
21028DOD     C2 6904  16.986  26.720   1.950 -0.1572  0.1806  0.3446
21028DOD     C3 6905  16.804  26.428   2.240 -0.1930 -0.1047  0.3455
21029DOD     C1 6906  28.789   7.295   7.213 -0.0085  0.1179  0.1601
21029DOD     C2 6907  28.377   7.151   6.959 -0.2697  0.2547 -0.0675
21029DOD     C3 6908  27.981   6.966   6.839  0.0611  0.0646 -0.2274
21030DOD     C1 6909   9.484  13.890   7.066  0.0598 -0.0007  0.1089
21030DOD     C2 6910   9.292  13.468   6.998  0.1559 -0.1922 -0.2107
21030DOD     C3 6911   8.969  13.110   7.102  0.3478 -0.1825 -0.4059
21031DOD     C1 6912  23.452   2.794  14.909  0.1156 -0.1572 -0.1188
21031DOD     C2 6913  23.700   3.030  15.211  0.0712  0.1280 -0.0326
21031DOD     C3 6914  23.534   3.365  15.499  0.3375 -0.1353 -0.1497
21032DOD     C1 6915  13.436  24.918  25.750 -0.1535  0.0411  0.0516
21032DOD     C2 6916  13.114  24.963  25.414  0.2980 -0.0402  0.1383
21032DOD     C3 6917  12.738  24.984  25.099  0.0113  0.1302  0.2145
21033DOD     C1 6918   2.046   3.001  21.878 -0.0334  0.2754  0.1721
21033DOD     C2 6919   2.260   2.730  22.248  0.1758  0.1653 -0.0939
21033DOD     C3 6920   2.431   2.300  22.467  0.1221 -0.1647 -0.1113
21034DOD     C1 6921  23.610  21.226  22.099  0.2222 -0.0477 -0.1196
21034DOD     C2 6922  23.611  20.831  21.790 -0.0078 -0.0396  0.1802
21034DOD     C3 6923  23.694  20.480  21.512  0.0322  0.3812  0.2778
21035DOD     C1 6924  24.083  13.212   3.622  0.0792  0.1380  0.0668
21035DOD     C2 6925  23.719  13.329   3.930 -0.1289 -0.2302  0.3105
21035DOD     C3 6926  23.392  13.073   4.038 -0.3383  0.1056 -0.2033
21036DOD     C1 6927  26.902  10.110  21.225 -0.0419  0.0142  0.1069
21036DOD     C2 6928  27.181  10.341  20.935  0.1970  0.1695  0.0073
21036DOD     C3 6929  27.307  10.784  20.946  0.0418  0.1135 -0.0861
21037DOD     C1 6930   0.326  13.203  17.056  0.0154 -0.0049  0.0495
21037DOD     C2 6931   0.011  12.967  16.736 -0.2050 -0.0312  0.0472
21037DOD     C3 6932  29.971  13.121  16.438  0.2122  0.1380 -0.1487
21038DOD     C1 6933   7.888  26.659  21.371 -0.3399 -0.1358 -0.2844
21038DOD     C2 6934   7.692  26.230  21.544 -0.2040 -0.1616  0.1564
21038DOD     C3 6935   7.921  25.781  21.536 -0.1150 -0.4162 -0.1929
21039DOD     C1 6936  19.199  29.739  22.409  0.0941 -0.0007  0.2047
21039DOD     C2 6937  19.106  29.324  22.622 -0.1521 -0.2497 -0.4569
21039DOD     C3 6938  18.800  28.958  22.713  0.1992 -0.0794  0.1769
21040DOD     C1 6939  12.272  27.449  -0.014 -0.1377 -0.0654 -0.4083
21040DOD     C2 6940  12.537  27.609  29.931  0.1414 -0.1212 -0.2094
21040DOD     C3 6941  12.591  28.046  29.811 -0.4002  0.0421 -0.4882
21041DOD     C1 6942  29.464   5.128  13.617 -0.0530  0.1250 -0.1847
21041DOD     C2 6943  29.634   4.709  13.606 -0.0060 -0.0922 -0.0732
21041DOD     C3 6944  29.616   4.346  13.386 -0.0787  0.3085 -0.1520
21042DOD     C1 6945  17.028  29.326  18.999  0.0932 -0.0022 -0.0311
21042DOD     C2 6946  16.780  28.975  18.772  0.1007 -0.2638 -0.0535
21042DOD     C3 6947  16.847  28.629  18.485 -0.3383  0.0762 -0.1620
21043DOD     C1 6948   3.523   6.038   5.822 -0.0029  0.1202  0.0092
21043DOD     C2 6949   3.181   6.322   5.677  0.1844 -0.0469 -0.0579
21043DOD     C3 6950   3.184   6.777   5.690 -0.2000 -0.0881  0.3428
21044DOD     C1 6951   1.588   3.907   2.594  0.0478  0.0738  0.2543
21044DOD     C2 6952   1.855   3.461   2.610  0.0479 -0.1266 -0.0537
21044DOD     C3 6953   2.244   3.241   2.623 -0.0301 -0.0485  0.3567
21045DOD     C1 6954   1.392  17.951  30.083  0.0395  0.2001  0.2515
21045DOD     C2 6955   1.155  17.552  30.302  0.1538  0.1629 -0.0025
21045DOD     C3 6956   0.879  17.233   0.158  0.0014 -0.0079  0.1407
21046DOD     C1 6957   0.833  27.768  28.729 -0.1951  0.0539 -0.0768
21046DOD     C2 6958   1.038  27.453  28.471  0.1214  0.5794  0.1628
21046DOD     C3 6959   1.204  27.076  28.245 -0.3386 -0.0114  0.0062
21047DOD     C1 6960  10.690  16.462  13.060  0.1935 -0.0724  0.1127
21047DOD     C2 6961  10.463  16.059  13.014 -0.0265  0.0448 -0.2990
21047DOD     C3 6962  10.218  15.754  12.825  0.0487 -0.2661  0.1016
21048DOD     C1 6963  18.045   9.700   7.119  0.1024  0.0316  0.2181
21048DOD     C2 6964  18.305   9.336   7.057 -0.0866  0.0581  0.0612
21048DOD     C3 6965  18.714   9.203   6.928 -0.0373  0.0126 -0.3946
21049DOD     C1 6966  15.989   8.295  21.469  0.0217  0.0072 -0.1362
21049DOD     C2 6967  16.115   8.655  21.255  0.5855  0.0957 -0.0517
21049DOD     C3 6968  16.162   8.946  20.920  0.0464 -0.3303 -0.3302
21050DOD     C1 6969   5.648  21.563  22.298 -0.2090 -0.1097  0.1127
21050DOD     C2 6970   5.748  21.277  22.598 -0.1220  0.2913  0.0181
21050DOD     C3 6971   6.029  20.950  22.741 -0.2241 -0.0589  0.2384
21051DOD     C1 6972  14.629   8.197  26.395 -0.0063  0.1194 -0.3365
21051DOD     C2 6973  15.021   8.337  26.178  0.1147 -0.2890 -0.0260
21051DOD     C3 6974  15.255   8.777  26.066  0.0934  0.1066 -0.0334
21052DOD     C1 6975  27.760  28.538  13.258  0.0069 -0.1277  0.0762
21052DOD     C2 6976  27.856  28.093  13.153 -0.1428  0.1120  0.0449
21052DOD     C3 6977  27.809  27.620  13.114  0.3883  0.1049  0.2308
21053DOD     C1 6978  16.420  25.434  24.632 -0.1579  0.2260 -0.0681
21053DOD     C2 6979  16.212  25.623  25.001  0.1109  0.1141 -0.2859
21053DOD     C3 6980  16.265  25.997  25.327  0.1088 -0.0316  0.4386
21054DOD     C1 6981   1.821  18.467   6.633  0.1254 -0.1882 -0.2144
21054DOD     C2 6982   1.420  18.227   6.706  0.3532  0.0383  0.1304
21054DOD     C3 6983   1.009  18.361   6.859 -0.3702  0.2633 -0.1099
21055DOD     C1 6984   6.049  21.750  21.461  0.0040 -0.0619  0.2948
21055DOD     C2 6985   6.030  22.150  21.624 -0.2181 -0.0132 -0.1181
21055DOD     C3 6986   5.883  22.507  21.954  0.2761  0.1221 -0.0396
21056DOD     C1 6987   5.627  11.541  22.858 -0.2653  0.3340 -0.4641
21056DOD     C2 6988   5.311  11.427  23.143  0.0147 -0.1171  0.4597
21056DOD     C3 6989   5.198  11.021  23.212 -0.1816 -0.2210 -0.0297
21057DOD     C1 6990   5.869  13.065   2.475  0.4927 -0.1909  0.0572
21057DOD     C2 6991   6.204  13.293   2.691  0.0362  0.1076  0.1451
21057DOD     C3 6992   6.549  13.434   2.941 -0.1657 -0.1173 -0.1102
21058DOD     C1 6993  23.228   3.379   6.606 -0.2487 -0.1486  0.1221
21058DOD     C2 6994  22.977   3.195   6.215 -0.1617 -0.0514 -0.0452
21058DOD     C3 6995  22.653   3.096   5.820 -0.1480  0.0831 -0.0079
21059DOD     C1 6996   8.847  21.340   3.224 -0.1655 -0.1168 -0.5342
21059DOD     C2 6997   8.427  21.479   3.133  0.0788 -0.1928 -0.0534
21059DOD     C3 6998   8.159  21.236   2.880 -0.2683  0.1467 -0.0489
21060DOD     C1 6999  17.673  22.827  23.330  0.0388 -0.0367 -0.0032
21060DOD     C2 7000  17.451  22.709  22.938  0.0263  0.1295  0.2954
21060DOD     C3 7001  17.666  22.788  22.519 -0.3641 -0.0599 -0.1756
21061DOD     C1 7002  18.387   5.962   3.561  0.1128  0.0731  0.0836
21061DOD     C2 7003  18.184   5.582   3.816  0.0667  0.0702  0.1471
21061DOD     C3 7004  18.000   5.157   3.938 -0.0595  0.4323  0.3581
21062DOD     C1 7005  21.768  15.406   3.100  0.1619  0.2457  0.0215
21062DOD     C2 7006  22.109  15.367   3.436 -0.4195 -0.4823  0.2632
21062DOD     C3 7007  22.445  15.745   3.549 -0.2058  0.3444 -0.0651
21063DOD     C1 7008  13.506  27.107   2.857  0.1586  0.1870 -0.2243
21063DOD     C2 7009  13.791  26.879   3.180 -0.0089 -0.3699  0.2185
21063DOD     C3 7010  13.982  27.034   3.549 -0.1877 -0.0899 -0.2144
21064DOD     C1 7011  13.411   3.039  11.953  0.0916  0.2263 -0.2191
21064DOD     C2 7012  13.064   2.827  12.199 -0.1177 -0.3279  0.0805
21064DOD     C3 7013  12.671   2.544  12.200  0.0974 -0.3592 -0.2552
21065DOD     C1 7014  11.990  10.272  27.279 -0.0786  0.2059  0.3865
21065DOD     C2 7015  11.947  10.324  27.745  0.1392  0.0209 -0.1825
21065DOD     C3 7016  12.013  10.664  28.052 -0.4567 -0.1863 -0.1111
21066DOD     C1 7017   5.514  28.801  18.705  0.0558 -0.0946  0.3740
21066DOD     C2 7018   5.857  28.589  18.957  0.0166 -0.0153 -0.2036
21066DOD     C3 7019   5.872  28.361  19.351  0.2121  0.1302 -0.1650
21067DOD     C1 7020  10.214  18.622  10.815  0.0686 -0.1969 -0.3514
21067DOD     C2 7021   9.977  18.246  10.660  0.0367  0.0357  0.2303
21067DOD     C3 7022   9.784  17.802  10.773 -0.0247 -0.0580 -0.2186
21068DOD     C1 7023   6.097   0.252   9.435 -0.2282 -0.1381 -0.1300
21068DOD     C2 7024   6.400   0.608   9.574  0.0719  0.1386  0.0488
21068DOD     C3 7025   6.501   1.059   9.451  0.0174  0.1101  0.6403
21069DOD     C1 7026  20.142  10.518   7.518  0.2571 -0.1927 -0.1194
21069DOD     C2 7027  20.534  10.624   7.665 -0.0019  0.0117  0.4187
21069DOD     C3 7028  20.846  10.437   7.957 -0.1084  0.2329 -0.0178
21070DOD     C1 7029   5.069   7.255   9.393  0.3990  0.2444  0.0021
21070DOD     C2 7030   5.439   7.561   9.312  0.1823 -0.0845 -0.2266
21070DOD     C3 7031   5.728   7.901   9.281 -0.2574 -0.0535 -0.0391
21071DOD     C1 7032   8.056  23.280  15.851  0.0708  0.0185 -0.2635
21071DOD     C2 7033   7.671  23.040  15.632 -0.1066 -0.1456  0.0620
21071DOD     C3 7034   7.415  22.640  15.630  0.3171  0.0822  0.1113
21072DOD     C1 7035   7.816  10.586  17.364 -0.0871  0.0582  0.2095
21072DOD     C2 7036   7.762  10.120  17.421  0.1569  0.0243  0.3934
21072DOD     C3 7037   8.021   9.760  17.535  0.4317 -0.2079  0.2401
21073DOD     C1 7038   0.228  29.600   3.915 -0.1083 -0.1976 -0.1174
21073DOD     C2 7039  30.245  29.286   3.711 -0.1373 -0.1841 -0.2025
21073DOD     C3 7040  29.870  29.286   3.450  0.0954 -0.2265  0.0596
21074DOD     C1 7041   7.751  29.952  14.011  0.3506  0.0646 -0.2241
21074DOD     C2 7042   8.017  30.308  14.141  0.2860  0.1738 -0.0782
21074DOD     C3 7043   8.237   0.111  14.590 -0.3480  0.1635  0.2938
21075DOD     C1 7044  15.799  21.303  23.530 -0.0537 -0.2377  0.0781
21075DOD     C2 7045  15.530  21.506  23.831  0.1501  0.1215 -0.1333
21075DOD     C3 7046  15.262  21.807  24.091 -0.1664 -0.1722 -0.0222
21076DOD     C1 7047   2.869  23.105   0.091 -0.2075  0.1207  0.1543
21076DOD     C2 7048   2.470  23.299  -0.052  0.0631 -0.0130 -0.3766
21076DOD     C3 7049   2.320  23.755  30.295  0.0320 -0.1931 -0.1052
21077DOD     C1 7050  11.090   5.038  27.796  0.0242  0.0472 -0.0469
21077DOD     C2 7051  11.176   5.012  27.331  0.0537 -0.3277 -0.1471
21077DOD     C3 7052  11.543   5.026  27.046  0.1558  0.2304 -0.4730
21078DOD     C1 7053  18.863  12.617  24.315  0.0903 -0.2585  0.0478
21078DOD     C2 7054  19.128  12.518  23.937 -0.1601 -0.0242 -0.1782
21078DOD     C3 7055  19.263  12.236  23.577  0.0274  0.0726  0.1038
21079DOD     C1 7056  14.077   2.767  27.641 -0.0815 -0.0361 -0.2214
21079DOD     C2 7057  14.243   3.156  27.573 -0.2343 -0.1960  0.1025
21079DOD     C3 7058  14.361   3.607  27.580  0.0149  0.0150  0.0904
21080DOD     C1 7059   1.265   6.559   5.285 -0.0513  0.0409 -0.1033
21080DOD     C2 7060   1.325   6.291   5.648  0.2300  0.1121  0.1934
21080DOD     C3 7061   1.679   6.220   5.942  0.0875  0.1264 -0.3311
21081DOD     C1 7062  25.278  15.542   8.352 -0.1635 -0.2690 -0.0706
21081DOD     C2 7063  25.026  15.576   7.942 -0.0087  0.3088 -0.1032
21081DOD     C3 7064  24.851  15.513   7.503  0.1095  0.2211  0.0078
21082DOD     C1 7065   0.214   2.207   5.073 -0.1289  0.0691  0.1619
21082DOD     C2 7066   0.388   2.678   5.018 -0.1249 -0.1367 -0.1542
21082DOD     C3 7067   0.518   3.080   5.334 -0.0219  0.1021 -0.1155
21083DOD     C1 7068   6.242  21.311   7.048  0.1095 -0.3690 -0.1165
21083DOD     C2 7069   6.063  21.096   7.459 -0.3133 -0.3981 -0.2046
21083DOD     C3 7070   5.833  20.762   7.693  0.1709  0.3444 -0.4039
21084DOD     C1 7071   4.851  12.852   0.987 -0.0900  0.1786 -0.0871
21084DOD     C2 7072   5.266  12.831   1.212  0.1502 -0.0299  0.2232
21084DOD     C3 7073   5.739  13.000   1.253  0.3655  0.0631 -0.1940
21085DOD     C1 7074  -0.010   0.129   3.152 -0.2494 -0.1350  0.1298
21085DOD     C2 7075   0.487   0.226   3.170  0.0569  0.0370 -0.0412
21085DOD     C3 7076   0.988   0.238   3.270 -0.2003  0.0476  0.1585
21086DOD     C1 7077   3.705   5.131   4.259  0.0967  0.0634 -0.0298
21086DOD     C2 7078   3.688   5.576   4.091  0.2503 -0.1905 -0.1805
21086DOD     C3 7079   3.545   5.700   3.662 -0.1161  0.0353 -0.1486
21087DOD     C1 7080   5.551  28.360  23.606  0.1851 -0.1413  0.3676
21087DOD     C2 7081   5.503  27.946  23.495  0.1713 -0.2094 -0.0146
21087DOD     C3 7082   5.557  27.493  23.404 -0.0410 -0.0422 -0.2145
21088DOD     C1 7083   2.880   4.185  22.737  0.1087 -0.3565  0.0557
21088DOD     C2 7084   2.884   4.161  23.228 -0.0286 -0.0172  0.2083
21088DOD     C3 7085   2.952   4.180  23.726 -0.0563  0.1153 -0.3499
21089DOD     C1 7086   4.643  24.871   1.975 -0.0927 -0.2924  0.0015
21089DOD     C2 7087   4.201  24.738   1.936  0.1746 -0.2030 -0.1595
21089DOD     C3 7088   3.856  24.470   2.155 -0.4093 -0.0812 -0.1341
21090DOD     C1 7089  27.787   1.181  15.242  0.0773 -0.2092 -0.3012
21090DOD     C2 7090  27.864   1.483  14.887  0.0251 -0.1452 -0.1455
21090DOD     C3 7091  27.619   1.626  14.504 -0.1613 -0.2712 -0.0833
21091DOD     C1 7092  30.176  14.939   1.370  0.0005  0.1611 -0.0033
21091DOD     C2 7093  30.172  14.494   1.439 -0.0946  0.0112  0.3821
21091DOD     C3 7094   0.053  14.088   1.300  0.0334 -0.1259  0.2578
21092DOD     C1 7095  22.544   6.638   5.809  0.0559 -0.0963 -0.2679
21092DOD     C2 7096  22.969   6.417   5.889 -0.4333 -0.0714 -0.0192
21092DOD     C3 7097  23.391   6.285   5.663 -0.3700  0.2197 -0.3281
21093DOD     C1 7098  18.015  19.588  26.132  0.0285 -0.0726 -0.3361
21093DOD     C2 7099  18.479  19.638  26.169  0.0920  0.1269 -0.0001
21093DOD     C3 7100  18.754  19.286  25.986 -0.1214  0.0703 -0.0306
21094DOD     C1 7101  26.415   5.545  19.007  0.0994  0.1708 -0.1834
21094DOD     C2 7102  26.336   5.970  18.767 -0.0930  0.1478 -0.2193
21094DOD     C3 7103  25.944   6.127  18.888 -0.1018  0.0049  0.0737
21095DOD     C1 7104  17.932  25.771  10.543  0.0200 -0.0469 -0.2592
21095DOD     C2 7105  17.679  25.453  10.324 -0.1082  0.2211  0.0410
21095DOD     C3 7106  17.424  25.102  10.072  0.0285 -0.0214 -0.0566
21096DOD     C1 7107   0.827  27.149  18.721  0.1669  0.3947 -0.1720
21096DOD     C2 7108   1.087  27.500  18.637  0.0570  0.0839  0.0346
21096DOD     C3 7109   1.170  27.901  18.383  0.0010  0.0326 -0.0985
21097DOD     C1 7110  21.400  22.116  18.129  0.1855  0.1182  0.0533
21097DOD     C2 7111  21.248  22.533  18.227 -0.0218 -0.0358 -0.0870
21097DOD     C3 7112  20.918  22.841  18.067  0.0481  0.0396  0.0747
21098DOD     C1 7113   7.598  19.826  27.362  0.2210  0.1726  0.0514
21098DOD     C2 7114   7.161  19.802  27.612  0.2593  0.0440  0.0278
21098DOD     C3 7115   6.713  19.634  27.666  0.1171  0.0647  0.0097
21099DOD     C1 7116  25.704  24.948  12.926  0.0127  0.0922  0.1233
21099DOD     C2 7117  25.792  24.471  12.841 -0.0402  0.0301 -0.0354
21099DOD     C3 7118  26.077  24.197  12.536  0.3042 -0.2428 -0.1262
21100DOD     C1 7119  27.087  27.772  17.398 -0.1727  0.1477  0.0050
21100DOD     C2 7120  27.403  27.863  17.686  0.0702 -0.1134  0.2090
21100DOD     C3 7121  27.697  27.745  18.053 -0.1002 -0.0313  0.0692
21101DOD     C1 7122   9.111  28.670   5.190  0.1464  0.4673  0.1722
21101DOD     C2 7123   8.809  28.498   4.897  0.1849 -0.1289  0.3742
21101DOD     C3 7124   8.467  28.315   4.642  0.0061  0.3900 -0.3181
21102DOD     C1 7125   4.737   0.654  18.401 -0.0850 -0.1511 -0.0459
21102DOD     C2 7126   5.091   0.895  18.655  0.0345 -0.1765 -0.1581
21102DOD     C3 7127   5.474   1.037  18.686  0.4904  0.2015  0.3474
21103DOD     C1 7128  28.257  28.651  27.387 -0.1649 -0.2662  0.1307
21103DOD     C2 7129  28.650  28.580  27.603  0.2078 -0.1088  0.1325
21103DOD     C3 7130  28.801  28.278  27.311 -0.1765 -0.1295  0.0959
21104DOD     C1 7131  12.123  12.413   0.711 -0.1523 -0.0558 -0.4951
21104DOD     C2 7132  12.084  12.864   0.916  0.1626 -0.0235  0.2008
21104DOD     C3 7133  12.254  13.238   1.172  0.2649  0.0127 -0.0536
21105DOD     C1 7134   5.582  23.660  24.402 -0.4046  0.2207 -0.1374
21105DOD     C2 7135   5.961  23.390  24.407 -0.0379  0.0877 -0.1671
21105DOD     C3 7136   5.971  22.985  24.226 -0.2307 -0.0090 -0.0157
21106DOD     C1 7137   2.988   9.822  23.508 -0.1303 -0.2575 -0.2291
21106DOD     C2 7138   3.091   9.835  23.945  0.0260  0.3285  0.0492
21106DOD     C3 7139   3.290   9.719  24.396  0.0470  0.0287 -0.1044
21107DOD     C1 7140   1.323  20.217  25.105  0.2096  0.1761  0.2087
21107DOD     C2 7141   1.106  19.936  24.864 -0.1087 -0.0463  0.0221
21107DOD     C3 7142   1.021  19.958  24.441  0.0272  0.1033  0.0411
21108DOD     C1 7143  19.063  12.720  15.962 -0.0723  0.0233 -0.0997
21108DOD     C2 7144  19.278  13.028  16.284 -0.0724  0.1852  0.0521
21108DOD     C3 7145  19.232  13.336  16.585  0.1291 -0.0964 -0.0152
21109DOD     C1 7146   7.040  11.537  13.562  0.0532  0.3262  0.0247
21109DOD     C2 7147   7.353  11.366  13.262  0.1370  0.0712  0.2159
21109DOD     C3 7148   7.796  11.401  13.149 -0.1270  0.3166 -0.1833
21110DOD     C1 7149  24.074  11.962  16.037  0.1522  0.1994 -0.1338
21110DOD     C2 7150  24.264  11.585  16.255 -0.2331 -0.1028  0.1721
21110DOD     C3 7151  24.592  11.275  16.213  0.0715  0.1167 -0.1302
21111DOD     C1 7152  22.484  20.800  23.625  0.1504 -0.0478  0.0361
21111DOD     C2 7153  22.477  21.214  23.391  0.3204 -0.0513  0.1592
21111DOD     C3 7154  22.233  21.482  23.129 -0.0893  0.2601 -0.0363
21112DOD     C1 7155  15.927  25.355  24.578  0.0597 -0.1205 -0.1364
21112DOD     C2 7156  15.883  24.940  24.703  0.3242 -0.0027  0.0490
21112DOD     C3 7157  15.614  24.578  24.901  0.0393  0.4552 -0.4149
21113DOD     C1 7158  18.303   5.555  13.163 -0.0416 -0.1592 -0.0536
21113DOD     C2 7159  17.996   5.588  13.441 -0.1893 -0.5664  0.2481
21113DOD     C3 7160  17.683   5.773  13.651  0.0300  0.3843  0.1073
21114DOD     C1 7161   7.450  12.084   9.956 -0.1072 -0.3049  0.1641
21114DOD     C2 7162   7.420  11.935   9.497 -0.0464 -0.1467  0.0102
21114DOD     C3 7163   7.473  12.074   9.087  0.0654  0.1076  0.3477
21115DOD     C1 7164   0.274   9.577  20.777 -0.3311  0.3112  0.0777
21115DOD     C2 7165  30.132   9.575  20.631  0.3327 -0.0878  0.0093
21115DOD     C3 7166  29.826   9.756  20.385 -0.1749 -0.2263 -0.0298
21116DOD     C1 7167  21.837   0.465   1.068  0.0651 -0.2241 -0.1500
21116DOD     C2 7168  21.796   0.197   0.708  0.1485 -0.0741 -0.0356
21116DOD     C3 7169  21.655  30.286   0.349 -0.0179  0.0115  0.0239
21117DOD     C1 7170  16.554  24.459  14.495 -0.0364 -0.1860  0.2257
21117DOD     C2 7171  16.655  24.257  14.912 -0.1176  0.0477 -0.1037
21117DOD     C3 7172  16.349  23.869  15.134 -0.4965  0.0132  0.0345
21118DOD     C1 7173   0.353  24.304  17.006 -0.1885  0.1382  0.1050
21118DOD     C2 7174   0.467  24.347  17.489 -0.1238  0.0396  0.0166
21118DOD     C3 7175   0.852  24.451  17.777 -0.0794 -0.0928 -0.1266
21119DOD     C1 7176   4.972  18.042  29.242 -0.0547  0.1441 -0.2278
21119DOD     C2 7177   5.034  17.635  29.107 -0.0284 -0.2959 -0.0756
21119DOD     C3 7178   5.232  17.476  28.734 -0.0790  0.0390  0.3070
21120DOD     C1 7179   6.330  10.992  16.538 -0.1087 -0.0281  0.2714
21120DOD     C2 7180   6.336  10.594  16.819  0.1443 -0.2934 -0.0071
21120DOD     C3 7181   6.390  10.348  17.206 -0.1581 -0.1507  0.0790
21121DOD     C1 7182  14.789  16.225  22.275  0.1896 -0.1633 -0.0320
21121DOD     C2 7183  14.768  15.873  22.010  0.0139 -0.1017 -0.4272
21121DOD     C3 7184  15.128  15.724  21.784 -0.3112 -0.3490  0.1708
21122DOD     C1 7185  17.584  12.582  12.419  0.1071 -0.1340 -0.1053
21122DOD     C2 7186  17.592  12.534  11.968  0.0349 -0.1376 -0.0004
21122DOD     C3 7187  17.773  12.661  11.527  0.2694 -0.1136 -0.4844
21123DOD     C1 7188  21.386   3.761  20.344  0.0779  0.1215  0.2391
21123DOD     C2 7189  21.278   3.833  20.765  0.3016  0.0592 -0.0062
21123DOD     C3 7190  21.210   3.644  21.202  0.0504  0.5417  0.0693
21124DOD     C1 7191  25.044  11.445  28.367  0.3595 -0.1147 -0.2269
21124DOD     C2 7192  25.230  11.157  28.674  0.2186  0.0500 -0.0332
21124DOD     C3 7193  25.428  11.097  29.062 -0.2198 -0.1133 -0.0984
21125DOD     C1 7194   6.710  22.999  14.085 -0.1631 -0.0689 -0.1751
21125DOD     C2 7195   6.549  22.648  13.820  0.0851 -0.2505 -0.0106
21125DOD     C3 7196   6.441  22.206  13.888  0.0033 -0.1128  0.1127
21126DOD     C1 7197  16.626  24.326  18.688  0.0569  0.2242 -0.0815
21126DOD     C2 7198  16.544  24.412  18.244 -0.1113  0.0645 -0.0315
21126DOD     C3 7199  16.646  24.409  17.766  0.0265  0.0727 -0.2766
21127DOD     C1 7200   2.226   0.701  10.524 -0.2353 -0.1129 -0.3724
21127DOD     C2 7201   1.857   0.617  10.269  0.3185 -0.2851  0.0236
21127DOD     C3 7202   1.488   0.505   9.943 -0.0592  0.0854 -0.2207
21128DOD     C1 7203  22.109  22.899  13.785  0.1310 -0.1175 -0.0352
21128DOD     C2 7204  21.973  22.466  13.774 -0.0495  0.3715 -0.2363
21128DOD     C3 7205  21.575  22.224  13.712 -0.0336 -0.2304  0.0005
21129DOD     C1 7206  18.562   2.229  28.581 -0.0486  0.0644  0.1410
21129DOD     C2 7207  18.906   2.526  28.373  0.1620  0.1126  0.3380
21129DOD     C3 7208  19.256   2.362  28.124 -0.2667 -0.3831 -0.1062
21130DOD     C1 7209  21.690   5.845  18.768  0.1643  0.3275 -0.0070
21130DOD     C2 7210  21.441   5.644  19.087  0.0846 -0.1533 -0.1927
21130DOD     C3 7211  21.498   5.156  19.090 -0.1007  0.3559 -0.0990
21131DOD     C1 7212  25.489  20.526  16.095 -0.0551  0.0542  0.2932
21131DOD     C2 7213  25.243  20.617  16.448 -0.4327  0.1007 -0.3458
21131DOD     C3 7214  24.938  20.820  16.736 -0.0649 -0.2440  0.1379
21132DOD     C1 7215   3.670   4.372  10.773  0.0281  0.1103 -0.0490
21132DOD     C2 7216   3.669   4.297  10.264 -0.1547  0.1543  0.1495
21132DOD     C3 7217   3.608   4.412   9.808 -0.0114  0.1044 -0.2189
21133DOD     C1 7218   9.565  10.367   3.072 -0.1739  0.1334 -0.1038
21133DOD     C2 7219   9.464  10.103   3.419 -0.1296 -0.1297 -0.0846
21133DOD     C3 7220   9.581   9.812   3.773 -0.0650  0.1248  0.2582
21134DOD     C1 7221   8.455   8.070   3.397 -0.1125 -0.1518  0.0182
21134DOD     C2 7222   8.848   7.855   3.181 -0.0725  0.3561  0.2604
21134DOD     C3 7223   9.114   7.536   2.956 -0.1942 -0.2776 -0.0500
21135DOD     C1 7224  26.909  25.915  14.807  0.0549 -0.0629  0.0535
21135DOD     C2 7225  26.891  26.312  15.058  0.2605 -0.5266 -0.2088
21135DOD     C3 7226  26.715  26.504  15.480 -0.2743  0.0173 -0.0791
21136DOD     C1 7227  14.199  23.050  21.173  0.2280 -0.2106 -0.2827
21136DOD     C2 7228  14.049  23.465  21.067 -0.2240 -0.0993  0.0075
21136DOD     C3 7229  14.135  23.948  21.098 -0.3285 -0.4734  0.0707
21137DOD     C1 7230   6.377  22.299   9.038 -0.0604 -0.0732  0.1915
21137DOD     C2 7231   6.176  21.948   8.841  0.0907  0.0471  0.1133
21137DOD     C3 7232   5.819  21.669   8.689  0.4786  0.0356  0.1743
21138DOD     C1 7233  13.388  10.841  21.925  0.1840  0.2171 -0.4063
21138DOD     C2 7234  13.481  11.289  21.885 -0.3015 -0.0059 -0.2420
21138DOD     C3 7235  13.294  11.730  21.795  0.3634  0.0606 -0.0971
21139DOD     C1 7236   0.842   6.555  28.112  0.2227 -0.2456  0.0935
21139DOD     C2 7237   1.252   6.458  28.020 -0.1263 -0.0945  0.0931
21139DOD     C3 7238   1.689   6.337  27.825  0.0578  0.0816 -0.0548
21140DOD     C1 7239   0.156   6.987  15.642 -0.2214 -0.2113 -0.5455
21140DOD     C2 7240  -0.011   7.362  15.488 -0.1713 -0.1452 -0.3259
21140DOD     C3 7241   0.181   7.764  15.413 -0.1338 -0.1468  0.1219
21141DOD     C1 7242  19.345  29.114  18.761 -0.0455 -0.2030 -0.2081
21141DOD     C2 7243  19.682  29.177  18.437 -0.0911  0.0466 -0.1628
21141DOD     C3 7244  20.022  29.008  18.189 -0.3663 -0.3136  0.0918
21142DOD     C1 7245   6.450  22.260  26.615  0.1435  0.1542  0.0947
21142DOD     C2 7246   6.224  22.163  26.249  0.4566  0.0935 -0.0878
21142DOD     C3 7247   5.971  21.806  26.087 -0.2084 -0.0109 -0.1648
21143DOD     C1 7248  13.877  29.188  25.064 -0.0160  0.1021 -0.0369
21143DOD     C2 7249  13.916  28.664  25.141 -0.3322 -0.1729  0.0227
21143DOD     C3 7250  14.093  28.252  25.243 -0.3994  0.4328  0.1274
21144DOD     C1 7251  11.231  20.403  10.680  0.0530  0.0895  0.0452
21144DOD     C2 7252  10.953  20.136  10.374 -0.2776  0.1665  0.2453
21144DOD     C3 7253  10.693  19.748  10.306  0.2167  0.3657 -0.0171
21145DOD     C1 7254   4.052   0.717  14.968  0.2792  0.1359 -0.0932
21145DOD     C2 7255   4.122   1.081  14.671  0.1847 -0.1053 -0.2985
21145DOD     C3 7256   4.358   1.380  14.532 -0.3231  0.2399 -0.1336
21146DOD     C1 7257  20.347   6.425   8.623  0.0450  0.1320 -0.0828
21146DOD     C2 7258  20.565   6.751   8.902  0.0387 -0.2615 -0.0218
21146DOD     C3 7259  20.812   7.096   9.103  0.0964 -0.0352  0.1525
21147DOD     C1 7260  14.254  12.834   1.309  0.0070  0.1919  0.1740
21147DOD     C2 7261  14.010  13.162   1.435 -0.2881  0.1504 -0.1144
21147DOD     C3 7262  13.867  13.343   1.817 -0.0404  0.2419  0.1380
21148DOD     C1 7263   3.582  14.461  13.576 -0.5889 -0.1223  0.0472
21148DOD     C2 7264   3.842  14.341  13.982 -0.1370 -0.1485 -0.0457
21148DOD     C3 7265   4.084  14.153  14.336  0.1245 -0.1586  0.0569
21149DOD     C1 7266   2.001  30.104   9.828  0.1943 -0.0360  0.1638
21149DOD     C2 7267   1.973   0.215   9.680  0.1891 -0.0997 -0.0900
21149DOD     C3 7268   1.824   0.615   9.440 -0.0397 -0.2152  0.1434
21150DOD     C1 7269  16.891  10.166  11.767  0.0126 -0.2587 -0.1194
21150DOD     C2 7270  17.198  10.021  11.478 -0.1059  0.0946  0.1630
21150DOD     C3 7271  17.682  10.066  11.360 -0.0021 -0.0758  0.2181
21151DOD     C1 7272  18.819  10.371  23.695 -0.0204 -0.3937 -0.0621
21151DOD     C2 7273  18.914  10.811  23.684 -0.1714  0.0452  0.2382
21151DOD     C3 7274  18.926  11.264  23.798 -0.1180  0.1773 -0.1933
21152DOD     C1 7275  11.796  16.567  15.499 -0.2636  0.0515  0.3470
21152DOD     C2 7276  11.582  16.222  15.293  0.0113 -0.4074  0.0316
21152DOD     C3 7277  11.133  16.219  15.126  0.3169  0.1424 -0.0778
21153DOD     C1 7278   4.570  12.824   2.069  0.0150  0.4912  0.0205
21153DOD     C2 7279   4.198  13.032   2.263  0.0465  0.1118 -0.1417
21153DOD     C3 7280   4.007  13.022   2.680 -0.0583 -0.1764  0.0244
21154DOD     C1 7281   8.471  29.026   3.863 -0.0075  0.1558  0.0604
21154DOD     C2 7282   8.018  29.202   3.765 -0.0158 -0.0354 -0.0367
21154DOD     C3 7283   7.885  29.428   3.346  0.2340  0.1807 -0.0267
21155DOD     C1 7284   4.300  29.822  19.438 -0.2550  0.0792  0.0719
21155DOD     C2 7285   3.873  29.676  19.450  0.0551 -0.0588 -0.0254
21155DOD     C3 7286   3.431  29.540  19.644 -0.1070  0.1908 -0.2303
21156DOD     C1 7287   2.493   8.070  28.292  0.0838 -0.0224 -0.0743
21156DOD     C2 7288   2.407   7.800  28.683  0.1409  0.1477  0.1341
21156DOD     C3 7289   2.447   8.008  29.140  0.2043 -0.4548  0.3214
21157DOD     C1 7290   6.608   3.761  30.067 -0.0715 -0.1310 -0.0909
21157DOD     C2 7291   6.386   3.616   0.112 -0.0686  0.2473 -0.0755
21157DOD     C3 7292   6.183   3.261   0.379 -0.0631 -0.0872 -0.1688
21158DOD     C1 7293   9.362  10.895  24.839 -0.0618  0.0536  0.0372
21158DOD     C2 7294   9.005  10.593  24.721  0.3125 -0.0964  0.0917
21158DOD     C3 7295   8.747  10.210  24.791 -0.2958 -0.0688  0.0629
21159DOD     C1 7296  23.391  21.370   6.253  0.4286 -0.2841  0.1263
21159DOD     C2 7297  23.639  21.202   6.593 -0.3076 -0.0744 -0.1151
21159DOD     C3 7298  23.526  20.828   6.848  0.1101 -0.1205  0.1135
21160DOD     C1 7299  28.389   5.977   3.651 -0.0734 -0.0621 -0.1148
21160DOD     C2 7300  27.968   6.087   3.823  0.0890 -0.2117  0.1348
21160DOD     C3 7301  27.870   5.927   4.281 -0.1824  0.3164 -0.0323
21161DOD     C1 7302  20.555   5.780  13.852 -0.3416  0.2604  0.0355
21161DOD     C2 7303  20.233   6.127  13.774 -0.3343  0.3382 -0.1642
21161DOD     C3 7304  19.975   6.333  13.459  0.1515 -0.2640 -0.1188
21162DOD     C1 7305   7.956  30.205  21.234  0.2249  0.2688 -0.1638
21162DOD     C2 7306   8.114   0.314  21.277 -0.3260  0.0525  0.0279
21162DOD     C3 7307   7.999   0.786  21.326  0.0903 -0.0105  0.2804
21163DOD     C1 7308   9.820  18.149  17.411  0.0943  0.3864  0.0323
21163DOD     C2 7309   9.520  18.102  17.797 -0.2217 -0.0593  0.0754
21163DOD     C3 7310   9.317  17.690  17.979  0.1362 -0.2182 -0.2240
21164DOD     C1 7311  25.815   3.549   8.412 -0.0831 -0.0812 -0.0047
21164DOD     C2 7312  25.987   3.865   8.102  0.1763  0.0891  0.0912
21164DOD     C3 7313  26.236   3.897   7.765  0.1129  0.3195  0.1008
21165DOD     C1 7314   8.060  13.334   4.038  0.1470 -0.3266 -0.0377
21165DOD     C2 7315   8.483  13.403   3.997 -0.1138 -0.1180 -0.0739
21165DOD     C3 7316   8.931  13.403   4.117  0.0744 -0.2917  0.1400
21166DOD     C1 7317  21.407   7.321   3.465  0.0316 -0.0577  0.1697
21166DOD     C2 7318  21.157   7.593   3.739 -0.0650 -0.0489  0.2356
21166DOD     C3 7319  20.769   7.834   3.575  0.0035 -0.0739 -0.0753
21167DOD     C1 7320  21.468  19.633  28.123 -0.1810  0.1309  0.0784
21167DOD     C2 7321  21.170  19.266  28.301 -0.0795  0.1918  0.3222
21167DOD     C3 7322  20.682  19.327  28.382  0.2428  0.0900 -0.0345
21168DOD     C1 7323  26.606   6.609   3.940 -0.0800 -0.1614  0.3057
21168DOD     C2 7324  26.477   6.351   3.587  0.2662  0.1166  0.4105
21168DOD     C3 7325  26.112   6.064   3.488  0.1372 -0.2116 -0.0669
21169DOD     C1 7326  23.134  13.396  28.265 -0.1028  0.1595  0.4996
21169DOD     C2 7327  23.150  13.710  27.908 -0.1779 -0.0001 -0.0880
21169DOD     C3 7328  23.108  14.046  27.577  0.0810  0.0027 -0.1165
21170DOD     C1 7329  17.289  23.145   8.983  0.0770  0.0748 -0.2035
21170DOD     C2 7330  17.012  23.393   8.713 -0.1731  0.0006  0.0607
21170DOD     C3 7331  16.899  23.528   8.296  0.0200 -0.1343 -0.0343
21171DOD     C1 7332  11.129  18.952   4.546 -0.2691 -0.2347 -0.0514
21171DOD     C2 7333  10.776  18.791   4.860 -0.0604  0.1670  0.0570
21171DOD     C3 7334  10.380  19.038   4.954  0.0599  0.2710 -0.3231
21172DOD     C1 7335  28.505  19.846  15.699  0.3434 -0.2350 -0.3392
21172DOD     C2 7336  28.256  20.134  15.461 -0.0732  0.0636 -0.0090
21172DOD     C3 7337  28.363  20.445  15.105  0.0373  0.2486 -0.1851
21173DOD     C1 7338   1.201  15.105  27.102  0.0115  0.2465  0.1709
21173DOD     C2 7339   1.053  14.952  27.488  0.0639 -0.3581  0.1658
21173DOD     C3 7340   0.942  14.944  27.966 -0.0639  0.0921  0.1037
21174DOD     C1 7341  22.051  14.513  11.988  0.0362 -0.1005 -0.0263
21174DOD     C2 7342  22.278  14.162  12.278 -0.3300  0.0378 -0.2266
21174DOD     C3 7343  22.460  13.924  12.640 -0.0002 -0.3482 -0.0219
21175DOD     C1 7344   5.281   7.427  10.208  0.0754 -0.4032  0.2017
21175DOD     C2 7345   5.114   7.102   9.925 -0.2581 -0.1694 -0.0328
21175DOD     C3 7346   4.823   6.804   9.765 -0.2970  0.0959  0.0287
21176DOD     C1 7347   4.919  18.668  16.992  0.0196 -0.3733  0.1498
21176DOD     C2 7348   4.500  18.961  17.114 -0.2850 -0.3550 -0.0345
21176DOD     C3 7349   4.186  19.313  17.253  0.3246 -0.0717 -0.2845
21177DOD     C1 7350   4.310   9.024   8.280  0.0877 -0.1269  0.3060
21177DOD     C2 7351   4.399   9.473   8.210  0.0868 -0.1278 -0.0341
21177DOD     C3 7352   4.427   9.935   8.164 -0.1238 -0.0915  0.0748
21178DOD     C1 7353   9.056  26.715  12.473 -0.2727 -0.0040 -0.0509
21178DOD     C2 7354   8.679  26.464  12.508  0.2120  0.1556 -0.4199
21178DOD     C3 7355   8.167  26.360  12.388 -0.0360  0.1215 -0.2305
21179DOD     C1 7356  13.642   3.599  28.211 -0.3017 -0.1230 -0.2342
21179DOD     C2 7357  13.325   3.811  28.453 -0.0610 -0.1542  0.3210
21179DOD     C3 7358  13.053   4.154  28.602  0.0645 -0.1653  0.0720
21180DOD     C1 7359   9.610   1.841  11.032 -0.1961  0.0299 -0.2103
21180DOD     C2 7360   9.770   1.376  10.858 -0.0465  0.2922  0.1609
21180DOD     C3 7361   9.575   0.953  10.980 -0.1432 -0.4434 -0.0859
21181DOD     C1 7362  25.569   6.241   2.580 -0.2321 -0.1190 -0.0017
21181DOD     C2 7363  25.178   6.467   2.746  0.1537 -0.0260 -0.0031
21181DOD     C3 7364  25.086   6.840   2.970 -0.0083 -0.0308  0.1960
21182DOD     C1 7365  28.502  28.707   6.024 -0.2999 -0.1951 -0.0604
21182DOD     C2 7366  28.443  29.113   6.015  0.2537  0.0012 -0.1297
21182DOD     C3 7367  28.349  29.488   5.753  0.1306  0.0281 -0.1620
21183DOD     C1 7368  13.246  19.685   6.838  0.0301  0.0390 -0.0702
21183DOD     C2 7369  13.428  19.280   6.886 -0.0142 -0.0595  0.2079
21183DOD     C3 7370  13.844  19.026   6.849  0.4034 -0.1133 -0.1412
21184DOD     C1 7371  12.759   3.791  14.970  0.1035 -0.0155 -0.1136
21184DOD     C2 7372  12.404   3.525  14.965  0.0051  0.2187  0.1174
21184DOD     C3 7373  11.961   3.300  15.112 -0.1509  0.2071 -0.0529
21185DOD     C1 7374   0.460  25.927  27.043 -0.0527  0.2142 -0.3050
21185DOD     C2 7375   0.668  25.510  26.973  0.2963  0.4506  0.1737
21185DOD     C3 7376   0.656  25.045  26.909  0.1101 -0.1715 -0.0957
21186DOD     C1 7377  24.538   4.564  28.464 -0.3048 -0.0751 -0.1982
21186DOD     C2 7378  24.111   4.684  28.325 -0.1575  0.1590  0.1228
21186DOD     C3 7379  23.987   4.739  27.889  0.1508 -0.1064 -0.2274
21187DOD     C1 7380  22.230   3.923   5.954  0.1882  0.0705  0.1589
21187DOD     C2 7381  21.875   3.601   5.892 -0.0242 -0.3627  0.1280
21187DOD     C3 7382  21.784   3.175   5.987  0.0556  0.1819  0.1367
21188DOD     C1 7383   1.942  29.246  18.519  0.0685 -0.2383 -0.0794
21188DOD     C2 7384   2.366  29.048  18.375 -0.1137 -0.1764 -0.2770
21188DOD     C3 7385   2.714  28.717  18.332  0.1258  0.0258  0.1639
21189DOD     C1 7386  27.125  25.185  26.799  0.0684  0.0360 -0.0093
21189DOD     C2 7387  26.618  25.121  26.892 -0.1326  0.1351  0.0517
21189DOD     C3 7388  26.325  24.729  26.934  0.0358 -0.0291  0.2335
21190DOD     C1 7389  26.274  25.916  19.228  0.1593  0.1130  0.0809
21190DOD     C2 7390  26.110  26.219  18.879  0.1003  0.1063 -0.0740
21190DOD     C3 7391  25.783  26.578  18.729  0.1311  0.1496 -0.0641
21191DOD     C1 7392  20.100  21.383   3.263 -0.2479 -0.3628 -0.3633
21191DOD     C2 7393  20.451  21.617   3.023 -0.1610 -0.0308  0.1006
21191DOD     C3 7394  20.831  21.622   2.802 -0.1622 -0.2842  0.2762
21192DOD     C1 7395   6.311   4.256   6.085  0.2461  0.1574  0.0505
21192DOD     C2 7396   5.926   4.352   6.238 -0.0652  0.0716 -0.2316
21192DOD     C3 7397   5.679   4.723   6.247 -0.0911 -0.3461  0.1106
21193DOD     C1 7398  19.497   9.633  22.308  0.1201 -0.1101 -0.1155
21193DOD     C2 7399  19.992   9.558  22.330  0.2108 -0.1127  0.1277
21193DOD     C3 7400  20.382   9.370  22.475  0.0045 -0.1068 -0.1267
21194DOD     C1 7401   3.792  18.653   5.293 -0.1331 -0.0810 -0.0769
21194DOD     C2 7402   3.401  19.022   5.345 -0.0616  0.0443 -0.0175
21194DOD     C3 7403   3.171  19.265   5.004 -0.2009  0.2128 -0.0183
21195DOD     C1 7404  14.862  23.015  24.690  0.1591  0.1263  0.1653
21195DOD     C2 7405  15.333  23.005  24.601 -0.0688 -0.2607 -0.0880
21195DOD     C3 7406  15.670  23.214  24.314  0.2560  0.1263  0.1993
21196DOD     C1 7407  23.742   0.279   5.489 -0.2367 -0.2387  0.1033
21196DOD     C2 7408  23.463   0.061   5.243 -0.2439  0.1409  0.0313
21196DOD     C3 7409  23.358  30.195   4.830 -0.1488 -0.0673  0.1352
21197DOD     C1 7410   6.894  24.492  20.801 -0.2320  0.0272 -0.1005
21197DOD     C2 7411   7.283  24.633  20.640  0.1322  0.0608 -0.2043
21197DOD     C3 7412   7.671  24.862  20.567  0.1006 -0.0506  0.2092
21198DOD     C1 7413  27.374  19.937   6.442 -0.0677  0.3031  0.3243
21198DOD     C2 7414  27.764  19.790   6.697 -0.2624  0.0128  0.1303
21198DOD     C3 7415  27.953  19.332   6.863  0.2184  0.1696  0.0585
21199DOD     C1 7416   7.835  29.575  20.758 -0.2808 -0.3602 -0.2140
21199DOD     C2 7417   7.561  29.981  20.692 -0.1741  0.1169  0.0454
21199DOD     C3 7418   7.265  30.157  20.393  0.0574  0.0419  0.1609
21200DOD     C1 7419   9.704   8.175  25.825  0.2060  0.1909 -0.0769
21200DOD     C2 7420   9.482   8.488  25.990 -0.1487  0.0833 -0.4383
21200DOD     C3 7421   9.017   8.519  25.877 -0.1293  0.2125 -0.0433
21201DOD     C1 7422  14.806   6.889   3.896  0.5420 -0.1630  0.0141
21201DOD     C2 7423  14.316   6.803   3.927 -0.0547  0.4166 -0.0466
21201DOD     C3 7424  13.959   6.819   4.226 -0.1862  0.2573 -0.1735
21202DOD     C1 7425  14.085   3.610  19.145  0.1163 -0.2047 -0.2185
21202DOD     C2 7426  14.417   3.588  19.458  0.1362 -0.0028  0.1169
21202DOD     C3 7427  14.842   3.699  19.617  0.4514  0.2876  0.1355
21203DOD     C1 7428   2.414  15.538  29.407 -0.1832 -0.1599  0.0289
21203DOD     C2 7429   2.381  15.786  28.968  0.1424  0.1358  0.3611
21203DOD     C3 7430   2.254  15.995  28.516  0.1649 -0.2131  0.1268
21204DOD     C1 7431  11.318  13.915  18.359  0.0251 -0.1318  0.0519
21204DOD     C2 7432  11.374  13.780  17.896  0.0818  0.3260 -0.2463
21204DOD     C3 7433  11.685  13.515  17.659 -0.1971 -0.1593  0.1800
21205DOD     C1 7434   9.998  19.312   9.148  0.0166  0.1955  0.0540
21205DOD     C2 7435   9.751  18.947   9.331 -0.0615 -0.1359  0.0003
21205DOD     C3 7436   9.396  18.788   9.134  0.2876  0.0403 -0.0500
21206DOD     C1 7437  10.740   8.152  21.053  0.0545  0.3069 -0.2097
21206DOD     C2 7438  11.135   7.962  21.119 -0.3218  0.3486 -0.0608
21206DOD     C3 7439  11.270   7.738  21.521 -0.1617 -0.0232  0.1089
21207DOD     C1 7440  23.089  23.724  16.874  0.0887 -0.1514  0.0663
21207DOD     C2 7441  22.646  23.686  17.009  0.0433 -0.1958  0.0703
21207DOD     C3 7442  22.206  23.743  16.943  0.0615  0.2196 -0.0398
21208DOD     C1 7443  12.666  25.480  19.102 -0.0666 -0.0183  0.0198
21208DOD     C2 7444  13.003  25.731  18.930  0.2728 -0.1002  0.2529
21208DOD     C3 7445  13.460  25.819  18.922  0.1706  0.3331  0.0369
21209DOD     C1 7446  12.305  21.853   8.340 -0.0216 -0.0210  0.0554
21209DOD     C2 7447  12.041  21.984   8.718 -0.2179 -0.0476 -0.2306
21209DOD     C3 7448  11.879  22.218   9.073  0.0592  0.3327  0.0303
21210DOD     C1 7449  16.744   2.331  25.138  0.0503 -0.2629 -0.1187
21210DOD     C2 7450  16.472   2.676  25.321 -0.1824 -0.3759 -0.2077
21210DOD     C3 7451  16.266   2.702  25.759  0.1760 -0.2266  0.2672
21211DOD     C1 7452  25.877   2.752  27.090 -0.3849 -0.0995  0.1158
21211DOD     C2 7453  25.690   2.569  26.713  0.0738 -0.1059  0.1362
21211DOD     C3 7454  25.772   2.158  26.487 -0.1245 -0.2147 -0.0125
21212DOD     C1 7455   3.704  17.222  12.753 -0.1901  0.0603 -0.1520
21212DOD     C2 7456   3.965  17.286  12.368 -0.2820 -0.0235 -0.3137
21212DOD     C3 7457   4.048  17.007  12.031  0.0280  0.0927 -0.0531
21213DOD     C1 7458  19.909   3.965  15.488 -0.1738  0.1330  0.0297
21213DOD     C2 7459  19.787   3.962  15.067  0.0805  0.2697  0.1202
21213DOD     C3 7460  19.549   3.928  14.654  0.2581  0.0706 -0.1354
21214DOD     C1 7461   7.246   4.898  17.505 -0.1491 -0.0887  0.1076
21214DOD     C2 7462   7.500   5.135  17.245  0.1645  0.2906  0.1500
21214DOD     C3 7463   7.745   5.173  16.860  0.2234 -0.0484 -0.1317
21215DOD     C1 7464  13.052  22.056  10.637  0.3510  0.0153 -0.0497
21215DOD     C2 7465  13.104  21.818  11.004 -0.1579  0.0682  0.1851
21215DOD     C3 7466  13.111  21.504  11.342  0.1125  0.2633 -0.0149
21216DOD     C1 7467  29.557  25.817  13.984  0.3579  0.1268  0.0750
21216DOD     C2 7468  29.190  25.641  13.664  0.0826 -0.1943  0.0372
21216DOD     C3 7469  29.169  25.916  13.263  0.0985 -0.3399 -0.1045
21217DOD     C1 7470  28.046  24.125  22.411  0.0123 -0.3124  0.0193
21217DOD     C2 7471  28.301  23.783  22.610  0.1546  0.0080 -0.1215
21217DOD     C3 7472  28.552  23.404  22.856  0.1670  0.0294  0.0365
21218DOD     C1 7473   9.819   3.770  17.928 -0.1303 -0.1650  0.0986
21218DOD     C2 7474   9.899   3.401  18.228 -0.1372 -0.3224  0.2472
21218DOD     C3 7475   9.993   2.954  18.286 -0.0726  0.0854 -0.1114
21219DOD     C1 7476  10.684  11.732  13.246 -0.0111 -0.0669 -0.0086
21219DOD     C2 7477  11.012  12.047  13.225  0.1199 -0.2286 -0.0504
21219DOD     C3 7478  11.433  12.140  13.427  0.2578  0.3672  0.2430
21220DOD     C1 7479   4.515  23.963  21.270 -0.1406  0.2582 -0.0834
21220DOD     C2 7480   4.348  23.690  21.541  0.0613  0.0974  0.2825
21220DOD     C3 7481   4.057  23.325  21.682  0.1007  0.1467  0.0912
21221DOD     C1 7482  14.356   5.583  15.164 -0.4168  0.0129 -0.3133
21221DOD     C2 7483  14.498   6.028  15.212  0.2189  0.1327 -0.1161
21221DOD     C3 7484  14.539   6.515  15.285 -0.1734 -0.0331 -0.3499
21222DOD     C1 7485  25.774  23.967   1.098 -0.0786  0.0850  0.2297
21222DOD     C2 7486  25.651  23.642   1.383  0.0258 -0.0631 -0.4793
21222DOD     C3 7487  25.252  23.483   1.584 -0.0544 -0.0476 -0.0892
21223DOD     C1 7488  16.353  12.877   4.789  0.0670  0.1368 -0.0074
21223DOD     C2 7489  16.793  12.865   4.576 -0.1833  0.0303 -0.1586
21223DOD     C3 7490  17.222  12.783   4.523  0.0646 -0.0037  0.3828
21224DOD     C1 7491  27.963  15.443  13.274  0.1004 -0.1265 -0.1093
21224DOD     C2 7492  27.865  15.704  12.900 -0.2748 -0.0512  0.1471
21224DOD     C3 7493  27.791  15.729  12.411 -0.2491 -0.0437  0.0759
21225DOD     C1 7494   7.073  11.654   1.377  0.1836 -0.2192 -0.2680
21225DOD     C2 7495   6.651  11.860   1.225  0.3692 -0.1220 -0.0987
21225DOD     C3 7496   6.211  11.569   1.132 -0.0457 -0.1984  0.1166
21226DOD     C1 7497   0.526  23.718  18.809  0.1525  0.4506 -0.0431
21226DOD     C2 7498   0.650  23.617  19.205  0.0991 -0.0524  0.1342
21226DOD     C3 7499   0.433  23.828  19.565 -0.1169 -0.0117 -0.2894
21227DOD     C1 7500   5.742  18.659   1.449 -0.2149  0.0369  0.2197
21227DOD     C2 7501   5.642  18.302   1.727  0.1366 -0.0336  0.0655
21227DOD     C3 7502   5.740  18.021   2.115  0.1550 -0.0500  0.1684
21228DOD     C1 7503  23.388  17.719  20.110  0.0753 -0.1902  0.0154
21228DOD     C2 7504  23.090  18.105  19.978  0.1314  0.0654 -0.1232
21228DOD     C3 7505  22.796  18.431  20.004  0.1231 -0.0798  0.0782
21229DOD     C1 7506   6.400  26.422   0.601 -0.2594 -0.0065 -0.1822
21229DOD     C2 7507   6.790  26.233   0.356  0.2824  0.2984  0.1483
21229DOD     C3 7508   7.267  26.191   0.188 -0.1877 -0.1422 -0.0606
21230DOD     C1 7509   4.205   2.896   6.756  0.0951  0.1487 -0.1800
21230DOD     C2 7510   3.912   2.500   6.647  0.0186 -0.0248 -0.0612
21230DOD     C3 7511   3.618   2.140   6.439 -0.1173 -0.0846 -0.1334
21231DOD     C1 7512  23.436   1.295   7.058  0.0232 -0.0751  0.2457
21231DOD     C2 7513  23.564   1.385   6.609  0.2989 -0.0574  0.1543
21231DOD     C3 7514  23.938   1.476   6.328 -0.0842 -0.2100  0.1788
21232DOD     C1 7515  21.026  20.299  14.042 -0.3312  0.3532 -0.0974
21232DOD     C2 7516  21.439  20.151  14.168  0.1664  0.0415  0.2317
21232DOD     C3 7517  21.878  20.158  14.215  0.0185  0.1901  0.1410
21233DOD     C1 7518  25.794  16.419   0.646 -0.1814 -0.0360 -0.0286
21233DOD     C2 7519  26.188  16.257   0.815 -0.3060 -0.2386  0.1633
21233DOD     C3 7520  26.644  16.296   0.632 -0.0803  0.1378  0.1158
21234DOD     C1 7521   3.976  26.177  18.478  0.1732 -0.2664  0.0609
21234DOD     C2 7522   3.915  26.682  18.531  0.1818  0.0251  0.1425
21234DOD     C3 7523   4.069  27.096  18.273 -0.2249  0.0270 -0.1544
21235DOD     C1 7524  10.600  11.514   7.461  0.0719  0.1529  0.2727
21235DOD     C2 7525  10.195  11.517   7.258 -0.1390 -0.1152 -0.0654
21235DOD     C3 7526  10.050  11.614   6.857  0.2649 -0.0298 -0.1858
21236DOD     C1 7527  23.863   3.992  30.027  0.2399  0.0886 -0.1097
21236DOD     C2 7528  23.915   4.258  29.637 -0.1768  0.0572 -0.2875
21236DOD     C3 7529  24.210   4.346  29.239 -0.1239  0.0967 -0.3728
21237DOD     C1 7530  19.407  24.937  14.143 -0.2167  0.0077 -0.1745
21237DOD     C2 7531  19.315  25.394  14.282 -0.2925  0.1360  0.1287
21237DOD     C3 7532  19.469  25.705  14.519  0.2450  0.1141 -0.0529
21238DOD     C1 7533  16.746  24.722  30.179 -0.2535 -0.0421 -0.1551
21238DOD     C2 7534  16.346  24.557  30.013  0.0183  0.0847 -0.1757
21238DOD     C3 7535  16.100  24.550  29.562  0.0488  0.0363 -0.0237
21239DOD     C1 7536  11.513  12.676  19.212  0.0520 -0.1117  0.0363
21239DOD     C2 7537  11.840  12.359  19.178  0.1234  0.0846  0.0201
21239DOD     C3 7538  12.112  11.960  19.144 -0.1447  0.1301 -0.0435
21240DOD     C1 7539   4.264   4.788   4.542  0.1192 -0.0983 -0.1284
21240DOD     C2 7540   4.202   5.032   4.132  0.0260  0.0611 -0.1492
21240DOD     C3 7541   4.073   5.353   3.852  0.1573 -0.1168 -0.0951
21241DOD     C1 7542  20.025  26.556  24.922  0.1436 -0.0285 -0.2932
21241DOD     C2 7543  20.196  26.868  24.604 -0.2920 -0.0351  0.1994
21241DOD     C3 7544  20.243  27.260  24.429 -0.2146 -0.0924  0.0807
21242DOD     C1 7545   1.632   4.579   3.521  0.1035  0.0971  0.2190
21242DOD     C2 7546   1.507   4.805   3.850  0.1379  0.1471 -0.1884
21242DOD     C3 7547   1.249   5.173   4.046 -0.1455 -0.3889 -0.1500
21243DOD     C1 7548  21.069   9.982  26.274  0.0073  0.1298  0.1495
21243DOD     C2 7549  21.406  10.092  26.634 -0.0181  0.1508  0.2103
21243DOD     C3 7550  21.777  10.085  26.947 -0.1250  0.1109  0.0232
21244DOD     C1 7551  11.914  20.058  14.522 -0.0877  0.0473 -0.0118
21244DOD     C2 7552  12.176  20.453  14.408  0.3635 -0.2152 -0.0936
21244DOD     C3 7553  12.205  20.870  14.582 -0.1102 -0.0852 -0.1260
21245DOD     C1 7554   4.343   5.284  18.856  0.2918  0.3262 -0.0315
21245DOD     C2 7555   3.991   5.049  18.604 -0.0564 -0.4259  0.1106
21245DOD     C3 7556   3.661   4.683  18.624 -0.2407 -0.1214 -0.0951
21246DOD     C1 7557  29.418   7.194   6.298  0.0039 -0.0803  0.0371
21246DOD     C2 7558  29.316   6.930   6.661  0.3432  0.1525  0.1939
21246DOD     C3 7559  29.428   6.898   7.114 -0.2979 -0.1364  0.1427
21247DOD     C1 7560  11.655   1.891  23.643  0.1585 -0.0055  0.1042
21247DOD     C2 7561  12.100   1.890  23.475  0.1274  0.0800  0.1054
21247DOD     C3 7562  12.458   2.122  23.279  0.2173 -0.0453  0.1750
21248DOD     C1 7563  13.098  16.147  24.177 -0.0046  0.0021  0.2525
21248DOD     C2 7564  13.203  16.507  24.507 -0.2056 -0.1081  0.0410
21248DOD     C3 7565  13.209  16.918  24.286 -0.0203 -0.1316 -0.1758
21249DOD     C1 7566   8.536   4.852   0.059  0.2032 -0.0072  0.0543
21249DOD     C2 7567   8.553   4.391   0.196 -0.1502  0.0323  0.3449
21249DOD     C3 7568   8.260   4.099   0.416  0.0447  0.0385  0.1085
21250DOD     C1 7569  15.419  15.539  13.923  0.1589 -0.1864 -0.1864
21250DOD     C2 7570  15.505  15.991  13.923  0.0619 -0.1678  0.1574
21250DOD     C3 7571  15.212  16.362  13.883 -0.1171  0.1770 -0.1578
21251DOD     C1 7572  23.755   8.302   3.456 -0.0060  0.0163 -0.1142
21251DOD     C2 7573  23.648   8.321   3.022  0.2325 -0.2383 -0.0346
21251DOD     C3 7574  23.512   8.485   2.597 -0.0042 -0.1124 -0.0308
21252DOD     C1 7575   6.515   5.751   1.353  0.1306  0.1180 -0.1423
21252DOD     C2 7576   6.224   6.031   1.192  0.2456 -0.0100 -0.2183
21252DOD     C3 7577   6.024   6.293   0.861 -0.0661  0.5002  0.0547
21253DOD     C1 7578  15.365  15.752  27.886 -0.0838  0.0221  0.0249
21253DOD     C2 7579  15.503  15.854  28.296  0.1224 -0.0793 -0.1006
21253DOD     C3 7580  15.650  15.723  28.756 -0.1669  0.0552  0.2047
21254DOD     C1 7581  19.674  10.700   7.388  0.2195  0.1406  0.0508
21254DOD     C2 7582  19.962  10.879   7.069  0.0987 -0.0352 -0.1560
21254DOD     C3 7583  19.917  11.079   6.656  0.0791 -0.2514  0.1811
21255DOD     C1 7584   6.296  12.994  29.741 -0.1255  0.1842  0.0737
21255DOD     C2 7585   6.398  13.459  29.655  0.0885 -0.0884  0.1875
21255DOD     C3 7586   6.306  13.926  29.613  0.3324 -0.3565 -0.0803
21256DOD     C1 7587  17.536  27.324  23.636 -0.2695 -0.2688 -0.0258
21256DOD     C2 7588  17.468  27.508  24.046 -0.2347  0.0806  0.0587
21256DOD     C3 7589  17.495  27.374  24.507 -0.0229  0.0826 -0.2796
21257DOD     C1 7590  18.057  17.892   2.227 -0.5388  0.2409 -0.2328
21257DOD     C2 7591  17.686  18.199   2.102 -0.2187 -0.2500 -0.5165
21257DOD     C3 7592  17.544  18.624   2.087 -0.0504  0.2046 -0.1693
21258DOD     C1 7593  10.721  27.136  30.188  0.0760 -0.0435 -0.2920
21258DOD     C2 7594  11.169  27.279  30.189 -0.0854 -0.5058 -0.1780
21258DOD     C3 7595  11.583  27.318  30.006 -0.0084 -0.2933 -0.3817
21259DOD     C1 7596   6.754  19.216  20.630  0.1399  0.1516  0.0584
21259DOD     C2 7597   6.913  19.638  20.640  0.1740  0.2080  0.4099
21259DOD     C3 7598   7.281  19.859  20.797  0.0171 -0.3662 -0.0433
21260DOD     C1 7599  13.519   5.130  13.847  0.1554  0.4231 -0.0283
21260DOD     C2 7600  13.342   5.100  14.295 -0.1486  0.1004  0.2195
21260DOD     C3 7601  12.956   4.959  14.488  0.1276  0.0690 -0.1515
21261DOD     C1 7602  23.848  15.849  25.522 -0.2111  0.0748  0.1961
21261DOD     C2 7603  23.858  15.682  25.974  0.0886 -0.3319  0.0675
21261DOD     C3 7604  24.200  15.510  26.170 -0.2690  0.0018  0.0347
21262DOD     C1 7605  12.196   1.401  13.662 -0.4332  0.0002 -0.0544
21262DOD     C2 7606  12.153   1.067  13.272 -0.0264  0.0229 -0.3432
21262DOD     C3 7607  11.876   0.892  12.903  0.0234 -0.3427  0.1403
21263DOD     C1 7608  16.967  27.807  17.757 -0.0300  0.0690  0.2093
21263DOD     C2 7609  16.986  28.260  17.599  0.1299 -0.0938  0.0516
21263DOD     C3 7610  17.175  28.644  17.378  0.3563  0.1680  0.0809
21264DOD     C1 7611  11.366   3.536  10.590 -0.0238  0.2824 -0.1033
21264DOD     C2 7612  11.157   3.154  10.409 -0.2546  0.0913  0.0039
21264DOD     C3 7613  11.024   2.776  10.218  0.0437 -0.0473 -0.1815
21265DOD     C1 7614  12.761  13.177  13.045 -0.1414  0.1973 -0.1218
21265DOD     C2 7615  12.438  13.381  12.845  0.1984 -0.1173  0.0337
21265DOD     C3 7616  12.096  13.603  12.593  0.0063  0.0708  0.0613
21266DOD     C1 7617  14.565  18.872  11.994  0.0846  0.1424 -0.1049
21266DOD     C2 7618  14.614  18.534  12.327  0.1581  0.0551 -0.3743
21266DOD     C3 7619  14.529  18.367  12.755  0.0122  0.3274 -0.0050
21267DOD     C1 7620  11.788  23.047  12.490 -0.0778 -0.1966  0.1207
21267DOD     C2 7621  11.297  22.948  12.503  0.0766 -0.0291 -0.0651
21267DOD     C3 7622  10.815  22.762  12.589 -0.1057 -0.0537  0.1288
21268DOD     C1 7623  28.252  23.215  23.964  0.0068  0.1641 -0.4878
21268DOD     C2 7624  28.629  23.373  23.702  0.0500 -0.0327 -0.1957
21268DOD     C3 7625  29.046  23.548  23.926 -0.1300  0.2329  0.1140
21269DOD     C1 7626   9.749   8.172  21.071  0.1364 -0.3462  0.1022
21269DOD     C2 7627   9.384   8.255  21.340  0.2704  0.0569  0.3305
21269DOD     C3 7628   9.094   8.056  21.640  0.2692  0.0671  0.1320
21270DOD     C1 7629  23.129  20.797  28.777 -0.1737 -0.0498  0.2239
21270DOD     C2 7630  22.950  20.614  28.363 -0.2575 -0.1797  0.1338
21270DOD     C3 7631  22.698  20.839  28.023  0.0956 -0.0800 -0.1112
21271DOD     C1 7632  15.373   7.909  11.653  0.0541 -0.0405 -0.1524
21271DOD     C2 7633  15.152   7.500  11.595  0.0328 -0.0341 -0.1817
21271DOD     C3 7634  14.689   7.450  11.507  0.2677 -0.0230  0.0104
21272DOD     C1 7635   4.831  19.045  10.037  0.0873 -0.1526 -0.4721
21272DOD     C2 7636   4.887  18.756  10.422  0.2884 -0.0010  0.0504
21272DOD     C3 7637   4.993  18.338  10.620  0.0759 -0.1024 -0.0159
21273DOD     C1 7638   8.560   9.112  29.513 -0.2872 -0.0386  0.4058
21273DOD     C2 7639   8.518   9.285  29.067  0.0121  0.0473 -0.1192
21273DOD     C3 7640   8.549   9.274  28.640 -0.0379 -0.1692  0.1208
21274DOD     C1 7641  16.297  17.516   5.286 -0.0876 -0.1431 -0.0736
21274DOD     C2 7642  16.588  17.112   5.333 -0.1245  0.3024  0.0419
21274DOD     C3 7643  16.882  16.784   5.153  0.0521 -0.1069  0.0959
21275DOD     C1 7644  23.558  29.021  18.405  0.3187 -0.2905 -0.0808
21275DOD     C2 7645  24.005  29.211  18.359 -0.0361  0.0670  0.0870
21275DOD     C3 7646  24.167  29.653  18.364 -0.0355 -0.2661  0.2997
21276DOD     C1 7647   8.694   3.353  25.219 -0.2749  0.3184  0.0994
21276DOD     C2 7648   8.577   3.246  25.694 -0.4371 -0.1087  0.0381
21276DOD     C3 7649   8.944   3.273  26.015  0.0025  0.1153  0.0444
21277DOD     C1 7650  28.924  19.875  12.175  0.3268  0.0457 -0.0277
21277DOD     C2 7651  29.200  20.226  12.115  0.2804 -0.2675 -0.2067
21277DOD     C3 7652  29.613  20.492  12.149 -0.0284  0.0848  0.0572
21278DOD     C1 7653  19.878   8.743   0.074  0.0752  0.0369  0.0830
21278DOD     C2 7654  19.572   8.704  30.099 -0.1515  0.1430 -0.0966
21278DOD     C3 7655  19.212   8.437  30.035 -0.1092 -0.1400 -0.1078
21279DOD     C1 7656  29.371   7.971  10.697  0.0425  0.0840 -0.1546
21279DOD     C2 7657  29.002   8.004  10.455  0.1560 -0.3411  0.1842
21279DOD     C3 7658  28.680   7.658  10.413 -0.0261  0.1513 -0.0392
21280DOD     C1 7659   0.468  19.253  24.829 -0.0252  0.1360 -0.1061
21280DOD     C2 7660  30.348  19.114  24.771  0.2906  0.1673  0.0155
21280DOD     C3 7661  30.236  18.710  24.752 -0.0809  0.1376 -0.4338
21281DOD     C1 7662   5.330  23.575  21.475 -0.1565 -0.0501 -0.1075
21281DOD     C2 7663   5.460  23.171  21.426 -0.3709  0.2580 -0.1031
21281DOD     C3 7664   5.784  23.064  21.059  0.1746  0.1130 -0.1328
21282DOD     C1 7665  17.477  10.814   0.586  0.2249 -0.1909  0.0603
21282DOD     C2 7666  17.392  10.515   0.271  0.0318  0.0167  0.0674
21282DOD     C3 7667  17.195  10.840  30.256  0.4451 -0.1902 -0.2547
21283DOD     C1 7668  20.920  12.857  11.544  0.0826 -0.0849 -0.0041
21283DOD     C2 7669  20.698  13.037  11.907 -0.2129 -0.0907  0.0093
21283DOD     C3 7670  20.611  13.513  12.099 -0.1685 -0.1266  0.0311
21284DOD     C1 7671   9.457  23.928  18.770 -0.0726 -0.1548  0.0301
21284DOD     C2 7672   9.557  24.101  19.191  0.1085 -0.1504  0.0291
21284DOD     C3 7673   9.600  24.261  19.653 -0.1584 -0.4541 -0.1084
21285DOD     C1 7674  20.890  22.892  29.897 -0.0259  0.0155 -0.1402
21285DOD     C2 7675  21.295  23.151  30.019 -0.0056  0.1938 -0.3864
21285DOD     C3 7676  21.721  23.319  30.163  0.1913  0.1003  0.2264
21286DOD     C1 7677  22.833   0.155  27.246  0.1516  0.0697 -0.1248
21286DOD     C2 7678  22.743   0.497  27.023 -0.0163  0.0574  0.0964
21286DOD     C3 7679  22.451   0.450  26.683  0.0110 -0.1436  0.1160
21287DOD     C1 7680  18.830  21.547   1.808  0.2119  0.3295 -0.2880
21287DOD     C2 7681  18.994  21.996   1.820  0.0953 -0.0366 -0.0469
21287DOD     C3 7682  19.139  22.419   1.620  0.1015  0.0380  0.3125
21288DOD     C1 7683  10.298  25.526  29.018  0.1852  0.0539  0.0428
21288DOD     C2 7684  10.348  25.926  28.771  0.2305  0.0956 -0.0217
21288DOD     C3 7685  10.559  26.183  28.433  0.5694 -0.0494 -0.1496
21289DOD     C1 7686  27.871  21.951   7.945 -0.0639 -0.2503 -0.2923
21289DOD     C2 7687  28.228  21.744   7.718  0.0705  0.0575 -0.0039
21289DOD     C3 7688  28.443  21.371   7.510 -0.1385 -0.1355 -0.0314
21290DOD     C1 7689  27.784   0.804   9.286 -0.1171  0.2542  0.0794
21290DOD     C2 7690  27.509   0.566   9.583  0.1700  0.0163  0.2043
21290DOD     C3 7691  27.317   0.661  10.054 -0.0651  0.0082 -0.2298
21291DOD     C1 7692  17.790  13.754  18.868 -0.0931  0.0232 -0.0595
21291DOD     C2 7693  17.569  14.119  18.900 -0.1957 -0.1491  0.1483
21291DOD     C3 7694  17.127  14.047  18.886 -0.0160 -0.1379 -0.2844
21292DOD     C1 7695  22.877  20.545  16.259 -0.0123  0.1736  0.1619
21292DOD     C2 7696  22.557  20.444  16.568  0.2234  0.2877  0.0197
21292DOD     C3 7697  22.178  20.242  16.839  0.0512 -0.0472  0.3859
21293DOD     C1 7698  14.280   4.009  23.113 -0.1103 -0.1451 -0.0034
21293DOD     C2 7699  14.171   3.647  22.923 -0.1480  0.0106  0.3031
21293DOD     C3 7700  13.960   3.406  22.640 -0.0553  0.3395  0.1665
21294DOD     C1 7701  17.401  24.721  16.253 -0.0445 -0.0030 -0.0770
21294DOD     C2 7702  17.062  24.409  16.456 -0.0526  0.0454 -0.0989
21294DOD     C3 7703  16.698  24.121  16.609  0.1321  0.1082  0.2746
21295DOD     C1 7704  25.684  22.880  25.705 -0.0545 -0.1595 -0.0532
21295DOD     C2 7705  25.906  23.290  25.683  0.2175  0.3096 -0.0774
21295DOD     C3 7706  25.923  23.735  25.827 -0.0006 -0.0492  0.0804
21296DOD     C1 7707  16.611  20.692  18.241  0.1723  0.2370  0.1100
21296DOD     C2 7708  16.643  20.548  17.786 -0.1650  0.1413  0.1366
21296DOD     C3 7709  16.570  20.393  17.331 -0.1820 -0.0612 -0.0639
21297DOD     C1 7710   3.309   0.779  26.558 -0.1708 -0.0570  0.1889
21297DOD     C2 7711   2.903   0.650  26.313  0.1106  0.1354  0.0787
21297DOD     C3 7712   2.563   0.295  26.216 -0.0574 -0.0931  0.1750
21298DOD     C1 7713  17.553   8.923  16.592  0.0573  0.1382 -0.0067
21298DOD     C2 7714  17.311   8.636  16.824  0.1310 -0.1332  0.2967
21298DOD     C3 7715  16.869   8.679  16.998  0.1102  0.0556  0.2894
21299DOD     C1 7716   5.217  12.345   4.849  0.2275 -0.0651 -0.0882
21299DOD     C2 7717   5.585  12.399   4.544 -0.2405  0.0344 -0.2452
21299DOD     C3 7718   5.724  12.560   4.146  0.1864  0.4765 -0.0309
21300DOD     C1 7719  20.996   8.663  11.234  0.0883  0.1031  0.1253
21300DOD     C2 7720  21.336   8.935  11.215 -0.1076 -0.1456 -0.2783
21300DOD     C3 7721  21.534   9.398  11.281  0.0902 -0.0209 -0.0432
21301DOD     C1 7722  14.285   4.608  28.989 -0.2189  0.0420  0.2935
21301DOD     C2 7723  13.826   4.514  29.036 -0.1406 -0.1952  0.1844
21301DOD     C3 7724  13.378   4.570  29.123 -0.2531  0.2393 -0.0836
21302DOD     C1 7725  27.291  24.589   1.160 -0.2705  0.1105  0.0801
21302DOD     C2 7726  26.846  24.841   1.241 -0.0954  0.1898 -0.1095
21302DOD     C3 7727  26.759  25.181   1.536  0.0627 -0.2190  0.1876
21303DOD     C1 7728   6.250  29.965  12.641  0.0773  0.2492  0.0427
21303DOD     C2 7729   6.282  30.350  12.410 -0.2376  0.3414  0.1037
21303DOD     C3 7730   6.259   0.491  12.237 -0.1045  0.3381  0.0660
21304DOD     C1 7731  14.512  16.499  10.424  0.1757  0.1552 -0.1859
21304DOD     C2 7732  14.546  16.907  10.579 -0.2027 -0.1959 -0.3884
21304DOD     C3 7733  14.372  17.370  10.581 -0.1454  0.1469 -0.0118
21305DOD     C1 7734  24.270  28.877  26.922 -0.0221 -0.0443  0.0967
21305DOD     C2 7735  24.437  29.279  26.865 -0.0160 -0.0853 -0.2582
21305DOD     C3 7736  24.722  29.640  26.907 -0.1299 -0.3740 -0.3375
21306DOD     C1 7737  13.308  18.907  23.401 -0.1676  0.0540  0.1554
21306DOD     C2 7738  13.259  18.549  23.705  0.3965  0.0765 -0.0026
21306DOD     C3 7739  13.429  18.276  24.017  0.3652 -0.0327 -0.0328
21307DOD     C1 7740  30.194  12.071  26.674 -0.0834 -0.2009 -0.5012
21307DOD     C2 7741  30.002  12.467  26.867 -0.1291 -0.0472  0.2408
21307DOD     C3 7742  29.720  12.822  27.008 -0.0957 -0.0315  0.1714
21308DOD     C1 7743   3.175  30.265  11.222 -0.0525 -0.0345 -0.1911
21308DOD     C2 7744   3.347  30.252  10.727 -0.1458  0.2311 -0.1098
21308DOD     C3 7745   3.509  30.013  10.415  0.1539 -0.1454 -0.0522
21309DOD     C1 7746  29.408   7.516  22.247  0.0984 -0.1821  0.2558
21309DOD     C2 7747  29.319   7.407  21.781 -0.4016 -0.0790 -0.0612
21309DOD     C3 7748  29.434   7.364  21.357 -0.3497  0.4494  0.2477
21310DOD     C1 7749  27.489  11.521  22.681  0.0870  0.2461 -0.0884
21310DOD     C2 7750  27.072  11.354  22.835 -0.1311  0.0215 -0.0096
21310DOD     C3 7751  26.831  10.945  22.711  0.1122  0.0032 -0.0346
21311DOD     C1 7752  17.562  26.146  14.247  0.0765  0.0789 -0.2097
21311DOD     C2 7753  17.393  26.195  13.800 -0.0007 -0.2061  0.0803
21311DOD     C3 7754  17.189  25.989  13.474 -0.0434  0.2042 -0.2939
21312DOD     C1 7755  19.560   8.302   6.070  0.2792  0.2857 -0.1599
21312DOD     C2 7756  19.114   8.445   6.062 -0.4869 -0.2543  0.2619
21312DOD     C3 7757  18.926   8.894   5.962 -0.0751  0.1945 -0.3426
21313DOD     C1 7758   6.492  11.558  26.163  0.1468  0.1508  0.0159
21313DOD     C2 7759   6.022  11.637  26.371  0.0659 -0.1332  0.1353
21313DOD     C3 7760   5.676  11.462  26.603 -0.2962 -0.0845 -0.1087
21314DOD     C1 7761  14.734  24.178   5.480  0.0974  0.0241  0.0448
21314DOD     C2 7762  14.998  23.798   5.651  0.0217  0.1640 -0.1916
21314DOD     C3 7763  15.267  23.636   5.968  0.2127 -0.1092  0.0449
21315DOD     C1 7764  10.299  16.220  30.325 -0.0396 -0.0285  0.0600
21315DOD     C2 7765  10.206  15.977  29.917  0.0250 -0.0725 -0.1269
21315DOD     C3 7766  10.319  15.885  29.453  0.0524 -0.0635  0.0334
21316DOD     C1 7767  18.066   2.565  18.214  0.2260 -0.0622  0.1957
21316DOD     C2 7768  17.921   2.894  18.553  0.0883 -0.0470  0.4580
21316DOD     C3 7769  17.972   3.359  18.537  0.0219  0.2303 -0.0580
21317DOD     C1 7770  22.185  20.467   2.946 -0.1208 -0.1287  0.1927
21317DOD     C2 7771  21.786  20.273   3.025  0.0199  0.2172  0.1195
21317DOD     C3 7772  21.430  20.003   2.913 -0.0800  0.2086 -0.0760
21318DOD     C1 7773  23.881  10.334   0.411 -0.1395  0.1329  0.1884
21318DOD     C2 7774  23.857  10.517   0.870 -0.1081 -0.1794  0.0788
21318DOD     C3 7775  24.021  10.743   1.208 -0.0154  0.1175  0.2617
21319DOD     C1 7776  25.395  15.121   1.920 -0.0068  0.3143  0.1846
21319DOD     C2 7777  25.530  14.782   1.660  0.1687  0.0437 -0.0200
21319DOD     C3 7778  25.393  14.632   1.241  0.0734 -0.2843 -0.1020
21320DOD     C1 7779   4.855  23.674  17.877 -0.3596  0.2607 -0.3252
21320DOD     C2 7780   4.936  23.882  17.455  0.2554  0.4844  0.0764
21320DOD     C3 7781   5.075  24.216  17.180  0.0663 -0.1175  0.1643
21321DOD     C1 7782   6.004  16.167  18.811 -0.1086 -0.0183 -0.0265
21321DOD     C2 7783   6.374  16.434  18.827  0.1468  0.1398 -0.0656
21321DOD     C3 7784   6.455  16.751  19.192  0.1849 -0.0566 -0.0943
21322DOD     C1 7785   8.914  25.350  23.841  0.2629  0.0613  0.1474
21322DOD     C2 7786   9.035  25.701  23.539 -0.2178 -0.0710 -0.3637
21322DOD     C3 7787   9.015  26.182  23.657  0.0315  0.3532 -0.1169
21323DOD     C1 7788  23.859   4.376  15.257  0.2529  0.1327  0.0712
21323DOD     C2 7789  24.141   4.534  15.656 -0.2165  0.3075  0.0740
21323DOD     C3 7790  24.149   4.383  16.087 -0.0180  0.1530 -0.1885
21324DOD     C1 7791  21.348   1.193  13.136 -0.0527 -0.1564 -0.0126
21324DOD     C2 7792  21.203   0.839  13.392 -0.0876 -0.1292  0.0385
21324DOD     C3 7793  20.795   0.615  13.443 -0.1935  0.1846  0.2624
21325DOD     C1 7794  14.172  15.747  23.879 -0.0630  0.2387 -0.0472
21325DOD     C2 7795  13.964  16.001  24.181  0.0667 -0.2930  0.1632
21325DOD     C3 7796  13.637  16.085  24.502  0.4197  0.0047 -0.1080
21326DOD     C1 7797   5.436  14.601  21.053 -0.2094 -0.0477  0.0099
21326DOD     C2 7798   5.798  14.315  21.298  0.1021 -0.0434  0.0640
21326DOD     C3 7799   6.207  14.117  21.433 -0.1426  0.0586 -0.0310
21327DOD     C1 7800   6.609  12.878  24.888 -0.1701 -0.1263  0.0128
21327DOD     C2 7801   6.143  12.811  24.852  0.0396  0.0533  0.0768
21327DOD     C3 7802   5.688  12.644  24.856  0.0954  0.0199  0.1271
21328DOD     C1 7803   8.763  22.897  23.802  0.3776  0.0223  0.1181
21328DOD     C2 7804   9.071  23.148  24.010 -0.1080 -0.1958 -0.2231
21328DOD     C3 7805   9.087  23.438  24.385 -0.0449 -0.0099 -0.2147
21329DOD     C1 7806  12.315  16.319  16.114  0.3814 -0.0204  0.1109
21329DOD     C2 7807  11.980  16.343  16.449  0.5485 -0.1367 -0.1177
21329DOD     C3 7808  11.768  16.620  16.762  0.2840 -0.1246 -0.2495
21330DOD     C1 7809   1.599  20.445   4.856  0.0254  0.2161 -0.2948
21330DOD     C2 7810   1.866  20.139   4.672  0.1358  0.2429 -0.4486
21330DOD     C3 7811   2.141  19.981   4.308 -0.0115 -0.2704 -0.0582
21331DOD     C1 7812  20.852  12.432   8.739  0.1116  0.0271 -0.1719
21331DOD     C2 7813  20.477  12.668   8.856  0.0805  0.2076 -0.0759
21331DOD     C3 7814  20.135  12.917   8.658 -0.2312  0.3171 -0.0541
21332DOD     C1 7815  29.312  13.947   4.445 -0.1706 -0.1496 -0.1675
21332DOD     C2 7816  29.585  14.176   4.153  0.1082  0.0524  0.3245
21332DOD     C3 7817  29.658  14.202   3.676 -0.3531 -0.1223  0.1063
21333DOD     C1 7818   7.741   6.689  17.701 -0.0065 -0.1547  0.1817
21333DOD     C2 7819   7.383   6.578  17.984  0.3126 -0.1886 -0.3249
21333DOD     C3 7820   7.221   6.574  18.435 -0.1108 -0.0266 -0.1910
21334DOD     C1 7821  16.550  19.812   7.848 -0.0338  0.1548 -0.0574
21334DOD     C2 7822  16.251  19.490   7.944 -0.2624 -0.1917  0.3388
21334DOD     C3 7823  16.175  19.058   7.728  0.1010 -0.2568 -0.0070
21335DOD     C1 7824  25.340  21.193  22.766 -0.2598 -0.1189 -0.2345
21335DOD     C2 7825  25.076  20.799  22.690  0.2378  0.0228  0.2069
21335DOD     C3 7826  24.788  20.419  22.646  0.4834  0.0479 -0.0136
21336DOD     C1 7827   2.520  11.635  27.430  0.4834  0.1290  0.2146
21336DOD     C2 7828   2.222  11.415  27.693 -0.0522  0.0052  0.0105
21336DOD     C3 7829   1.960  11.611  28.036 -0.0152  0.3966  0.3506
21337DOD     C1 7830   9.656   5.860  24.477  0.2033 -0.0590  0.3100
21337DOD     C2 7831   9.792   5.482  24.744 -0.0397  0.1268  0.2304
21337DOD     C3 7832  10.034   5.121  24.768 -0.1339  0.1322 -0.1520
21338DOD     C1 7833  26.439   4.335   4.146  0.0595  0.0334  0.2167
21338DOD     C2 7834  26.776   4.294   4.529 -0.0546  0.1132  0.1703
21338DOD     C3 7835  27.262   4.162   4.595 -0.0391 -0.1993 -0.1237
21339DOD     C1 7836   0.537  23.415   6.736 -0.2618 -0.0747 -0.2100
21339DOD     C2 7837   0.528  23.921   6.667 -0.0063  0.0578 -0.2614
21339DOD     C3 7838   0.864  24.265   6.472  0.4729  0.3205  0.0795
21340DOD     C1 7839  14.739  12.043   4.770  0.2154 -0.0438 -0.0651
21340DOD     C2 7840  14.735  12.338   5.124  0.1250 -0.0429  0.1824
21340DOD     C3 7841  14.742  12.799   5.385  0.0738 -0.0365 -0.1887
21341DOD     C1 7842   9.866   3.550  25.449 -0.0057 -0.1759  0.1385
21341DOD     C2 7843   9.886   4.022  25.494  0.0348 -0.2026 -0.1447
21341DOD     C3 7844   9.806   4.475  25.538  0.0056 -0.0069 -0.1112
21342DOD     C1 7845   1.913  22.903  26.762 -0.1900 -0.2704 -0.0902
21342DOD     C2 7846   2.320  22.779  26.483 -0.2338 -0.1602 -0.2255
21342DOD     C3 7847   2.422  22.643  26.065  0.0999  0.0810 -0.1717
21343DOD     C1 7848   2.286  12.409  19.708  0.1862  0.0288  0.1689
21343DOD     C2 7849   2.154  12.824  19.869 -0.0287  0.1470 -0.0178
21343DOD     C3 7850   1.862  13.134  19.701 -0.2347  0.0464 -0.2105
21344DOD     C1 7851  18.867  18.789   8.043 -0.0559 -0.0170  0.2008
21344DOD     C2 7852  18.542  19.077   7.884 -0.2914 -0.2250 -0.1046
21344DOD     C3 7853  18.338  19.243   7.509  0.0864  0.1051  0.1127
21345DOD     C1 7854   5.854  15.759   2.377  0.2801  0.0566  0.0511
21345DOD     C2 7855   5.428  15.744   2.231  0.0338 -0.1693 -0.0228
21345DOD     C3 7856   4.971  15.799   2.271 -0.1007  0.1352 -0.1973
21346DOD     C1 7857   3.776   5.617  28.732  0.1287 -0.0565  0.0731
21346DOD     C2 7858   3.508   5.415  29.064  0.1293  0.1392  0.2151
21346DOD     C3 7859   3.183   5.467  29.401  0.2231 -0.0939 -0.0034
21347DOD     C1 7860   5.253  25.859   5.113  0.0400  0.1108  0.0097
21347DOD     C2 7861   4.882  25.831   4.803  0.1385  0.0455 -0.0627
21347DOD     C3 7862   4.604  25.951   4.453  0.2714  0.1856  0.0103
21348DOD     C1 7863   7.409  24.906  12.260 -0.0774 -0.0928 -0.0550
21348DOD     C2 7864   7.014  25.122  12.192  0.0746  0.0867 -0.1447
21348DOD     C3 7865   6.827  25.166  11.761  0.1708  0.0996 -0.0913
21349DOD     C1 7866   5.197   7.688   8.770 -0.0641  0.3313 -0.6888
21349DOD     C2 7867   5.218   7.285   8.541 -0.2685 -0.2298  0.1493
21349DOD     C3 7868   5.531   6.915   8.549  0.1320  0.4390 -0.3693
21350DOD     C1 7869  15.500   4.791  17.362 -0.2445 -0.0716  0.1591
21350DOD     C2 7870  16.018   4.863  17.504 -0.2059  0.0214  0.1466
21350DOD     C3 7871  16.447   4.784  17.623  0.1418 -0.2012  0.2332
21351DOD     C1 7872   2.062  12.930   5.658 -0.2030  0.0286 -0.1867
21351DOD     C2 7873   1.678  13.028   5.887 -0.4181 -0.1800  0.1851
21351DOD     C3 7874   1.350  13.347   6.088  0.0733  0.0620 -0.1037
21352DOD     C1 7875  27.837  22.224  28.002 -0.0367 -0.4856 -0.0490
21352DOD     C2 7876  27.680  21.798  27.937  0.1473  0.1128 -0.3722
21352DOD     C3 7877  27.257  21.636  28.003  0.1100 -0.1116  0.1675
21353DOD     C1 7878  18.077  20.820   0.516 -0.1703 -0.0622 -0.1580
21353DOD     C2 7879  18.029  21.248   0.556 -0.1922 -0.1135  0.1326
21353DOD     C3 7880  17.881  21.623   0.302  0.0767  0.0353  0.2122
21354DOD     C1 7881   4.278  14.347  19.670  0.0591 -0.1737  0.0140
21354DOD     C2 7882   4.516  14.416  19.250  0.3927  0.1185 -0.1566
21354DOD     C3 7883   4.574  14.660  18.843 -0.1727  0.0035 -0.0612
21355DOD     C1 7884  18.380  17.696  11.113  0.1586  0.0103 -0.2632
21355DOD     C2 7885  18.038  17.570  10.753  0.6268 -0.2534  0.0061
21355DOD     C3 7886  17.855  17.550  10.294 -0.1226  0.0502  0.0643
21356DOD     C1 7887  19.808   0.995  28.479  0.2432 -0.2747  0.1205
21356DOD     C2 7888  20.152   0.657  28.482  0.0058 -0.2400 -0.0378
21356DOD     C3 7889  20.566   0.535  28.385 -0.1225 -0.2032 -0.1969
21357DOD     C1 7890   3.569  25.270  18.147  0.0326  0.1404 -0.0478
21357DOD     C2 7891   3.955  24.963  18.073 -0.0420 -0.2137  0.0614
21357DOD     C3 7892   4.420  25.059  17.921  0.1095 -0.0243 -0.1230
21358DOD     C1 7893  27.182  24.109   7.851 -0.4108  0.1232 -0.2510
21358DOD     C2 7894  26.880  24.348   7.638  0.1758  0.1958 -0.0032
21358DOD     C3 7895  26.440  24.388   7.474 -0.2507  0.2296 -0.0534
21359DOD     C1 7896  12.272   7.847  24.263 -0.0041 -0.1399  0.0099
21359DOD     C2 7897  12.505   8.043  23.908  0.0486 -0.1362  0.2898
21359DOD     C3 7898  12.650   8.180  23.479 -0.2190 -0.3097 -0.1140
21360DOD     C1 7899  12.316  26.489  17.973  0.0183  0.1754  0.0952
21360DOD     C2 7900  11.863  26.502  17.924  0.0096 -0.1111 -0.0199
21360DOD     C3 7901  11.411  26.329  17.863  0.0988  0.2552 -0.0384
21361DOD     C1 7902  21.385  21.428  10.012  0.0971 -0.2274  0.0029
21361DOD     C2 7903  21.247  21.281  10.459 -0.2176 -0.0136  0.2373
21361DOD     C3 7904  21.156  20.970  10.691  0.2623 -0.0545 -0.1461
21362DOD     C1 7905  28.943  17.637   0.386  0.1438  0.0123 -0.0552
21362DOD     C2 7906  28.768  17.992   0.646  0.1358  0.0712 -0.1756
21362DOD     C3 7907  28.796  18.469   0.570 -0.4886 -0.0002  0.1511
21363DOD     C1 7908   7.551   5.969  28.837 -0.0418  0.1538  0.1017
21363DOD     C2 7909   7.245   6.251  29.080 -0.0066  0.1357  0.2014
21363DOD     C3 7910   7.272   6.639  29.342 -0.1121 -0.4137  0.1543
21364DOD     C1 7911  16.226   6.021  26.024 -0.1923 -0.1700 -0.0435
21364DOD     C2 7912  16.136   6.092  25.586  0.3400 -0.2903  0.0140
21364DOD     C3 7913  16.060   5.972  25.159 -0.3135 -0.0167  0.1215
21365DOD     C1 7914  26.547  14.855  28.064  0.0687  0.1326  0.0717
21365DOD     C2 7915  26.602  14.820  27.555 -0.0420  0.0931 -0.2862
21365DOD     C3 7916  26.584  14.944  27.081 -0.4073  0.1570 -0.2992
21366DOD     C1 7917  29.160  21.009  10.992  0.0413  0.0710 -0.2028
21366DOD     C2 7918  29.574  21.260  11.201 -0.1521  0.1404 -0.0667
21366DOD     C3 7919  29.986  21.437  11.257  0.0105  0.0518  0.1138
21367DOD     C1 7920   2.249   5.853  17.085 -0.1364 -0.1099 -0.4101
21367DOD     C2 7921   2.012   6.236  17.044 -0.1524 -0.0450  0.3460
21367DOD     C3 7922   2.082   6.642  17.001 -0.1655  0.2051 -0.1785
21368DOD     C1 7923   6.533  22.062   2.271  0.0937 -0.2778 -0.0872
21368DOD     C2 7924   6.784  22.433   2.044  0.1102 -0.2145  0.2671
21368DOD     C3 7925   6.723  22.855   1.947 -0.2231  0.0165 -0.1084
21369DOD     C1 7926   2.140  10.389  16.311 -0.4302 -0.1793 -0.5589
21369DOD     C2 7927   1.923  10.290  16.750  0.1105  0.0391 -0.2866
21369DOD     C3 7928   1.888  10.272  17.196  0.1004 -0.2007 -0.2370
21370DOD     C1 7929   3.154   3.721  11.926  0.3679 -0.0710  0.0414
21370DOD     C2 7930   3.619   3.700  11.877 -0.3388  0.1213 -0.2016
21370DOD     C3 7931   3.967   3.857  11.585  0.0532 -0.1386 -0.0666
21371DOD     C1 7932  23.592  15.901  29.588  0.1680  0.1313  0.0567
21371DOD     C2 7933  23.481  15.862  29.140 -0.4304 -0.0388  0.0384
21371DOD     C3 7934  23.399  15.520  28.803 -0.0404 -0.2086 -0.2415
21372DOD     C1 7935  29.202  29.576  18.325  0.4486  0.0863 -0.0327
21372DOD     C2 7936  28.789  29.524  18.514  0.1915  0.0763 -0.0717
21372DOD     C3 7937  28.323  29.537  18.390  0.3092 -0.3978 -0.2234
21373DOD     C1 7938  23.855  17.366  23.927 -0.1274  0.2502  0.2159
21373DOD     C2 7939  23.713  17.624  24.324 -0.0880  0.0309 -0.3454
21373DOD     C3 7940  23.856  17.903  24.597 -0.1211 -0.1239  0.1159
21374DOD     C1 7941  10.771  12.580  13.279 -0.0604 -0.0524 -0.0862
21374DOD     C2 7942  10.473  12.735  12.984 -0.0777 -0.1182  0.2826
21374DOD     C3 7943  10.527  12.835  12.498  0.0402 -0.3038 -0.2250
21375DOD     C1 7944   0.824   1.775   5.207  0.0066 -0.3398  0.1948
21375DOD     C2 7945   0.342   1.715   5.159 -0.0220 -0.3157  0.1597
21375DOD     C3 7946  30.217   1.691   4.982 -0.1177  0.1026 -0.0151
21376DOD     C1 7947  20.937   1.251  13.388  0.3770  0.1005 -0.0438
21376DOD     C2 7948  20.488   1.055  13.526 -0.1663  0.0205  0.1461
21376DOD     C3 7949  20.217   0.801  13.781  0.0059  0.0395  0.2891
21377DOD     C1 7950  15.226  10.149   9.813  0.1164 -0.3327  0.2316
21377DOD     C2 7951  15.479   9.786   9.842 -0.1523 -0.1668  0.3114
21377DOD     C3 7952  15.798   9.409   9.805  0.0263  0.0308  0.0429
21378DOD     C1 7953  27.774  20.677  14.557 -0.2289  0.2020 -0.1916
21378DOD     C2 7954  27.749  21.133  14.594 -0.0570  0.1250 -0.2425
21378DOD     C3 7955  27.381  21.384  14.775  0.0542 -0.2249 -0.0825
21379DOD     C1 7956  18.299  15.541  15.413  0.4013 -0.1354 -0.0514
21379DOD     C2 7957  17.880  15.353  15.563  0.0713  0.0610 -0.1619
21379DOD     C3 7958  17.433  15.459  15.593 -0.2229 -0.1307 -0.0568
21380DOD     C1 7959  12.538  29.763   0.401  0.0782  0.2972 -0.0707
21380DOD     C2 7960  12.304  30.121   0.284  0.2900 -0.1656  0.2456
21380DOD     C3 7961  12.255   0.078  30.280  0.0867 -0.1024  0.0460
21381DOD     C1 7962   2.746   8.481   6.835  0.0796  0.0431  0.3144
21381DOD     C2 7963   2.545   8.188   7.169 -0.1788  0.2591 -0.1669
21381DOD     C3 7964   2.381   7.936   7.490  0.1577  0.2663  0.2874
21382DOD     C1 7965  15.740  15.414  26.611 -0.0012  0.1555 -0.3204
21382DOD     C2 7966  15.959  15.687  26.915  0.0049 -0.0517 -0.1568
21382DOD     C3 7967  16.410  15.662  27.089  0.3218  0.1602  0.1611
21383DOD     C1 7968  11.716   3.916  12.477  0.0135  0.1226 -0.1583
21383DOD     C2 7969  11.547   3.874  12.918  0.0514  0.0131  0.1122
21383DOD     C3 7970  11.364   3.945  13.348 -0.3028  0.0089 -0.1156
21384DOD     C1 7971  20.255   1.604   7.326 -0.0246 -0.0081 -0.2332
21384DOD     C2 7972  20.101   1.543   6.898 -0.1644 -0.1700  0.3421
21384DOD     C3 7973  19.886   1.556   6.428 -0.1517  0.1551 -0.1675
21385DOD     C1 7974  19.056  22.334  15.431  0.1402 -0.1574  0.1452
21385DOD     C2 7975  19.103  22.045  15.836  0.0499 -0.1437 -0.1104
21385DOD     C3 7976  19.100  22.119  16.260 -0.0201 -0.4313  0.1819
21386DOD     C1 7977   8.801   2.152   8.462  0.1720 -0.1210  0.2823
21386DOD     C2 7978   8.665   2.343   7.994  0.2511  0.1343 -0.0665
21386DOD     C3 7979   8.635   2.679   7.628  0.0849 -0.2349 -0.2429
21387DOD     C1 7980   2.596  14.231  29.572 -0.2162  0.0557 -0.0793
21387DOD     C2 7981   2.280  14.592  29.459 -0.0185  0.2140  0.0356
21387DOD     C3 7982   1.961  14.923  29.508 -0.2615 -0.1373  0.2599
21388DOD     C1 7983  23.000  10.390  15.006  0.0365 -0.3374  0.1389
21388DOD     C2 7984  23.402  10.167  15.213  0.0667  0.4162 -0.1113
21388DOD     C3 7985  23.679   9.715  15.133  0.2294 -0.2974 -0.4584
21389DOD     C1 7986  26.569  17.311  13.571 -0.0215 -0.2622  0.2267
21389DOD     C2 7987  26.794  17.050  13.273  0.1101  0.4458 -0.0460
21389DOD     C3 7988  27.053  16.813  12.978  0.1447  0.1687  0.1519
21390DOD     C1 7989   5.808   7.987  11.507 -0.1510  0.1213 -0.2356
21390DOD     C2 7990   5.989   8.443  11.412 -0.1627  0.1141 -0.0349
21390DOD     C3 7991   6.119   8.766  11.103 -0.0707  0.2859 -0.1788
21391DOD     C1 7992  18.998   6.430  26.110 -0.2287 -0.0298  0.1238
21391DOD     C2 7993  18.653   6.297  25.903 -0.0328 -0.0349 -0.1484
21391DOD     C3 7994  18.199   6.209  26.004 -0.4716 -0.2293 -0.0150
21392DOD     C1 7995  20.881  19.026  30.010 -0.0566 -0.2952  0.0525
21392DOD     C2 7996  20.897  18.823  29.635 -0.0366  0.3281 -0.2096
21392DOD     C3 7997  20.587  18.750  29.256  0.1623 -0.0269  0.1320
21393DOD     C1 7998  13.100   6.166   3.553  0.1960  0.2327 -0.1291
21393DOD     C2 7999  12.836   6.071   3.197  0.3333  0.0796  0.1000
21393DOD     C3 8000  12.581   5.964   2.747 -0.0247  0.1831 -0.0027
21394DOD     C1 8001  17.809  10.946  25.423  0.0727 -0.3697  0.0807
21394DOD     C2 8002  17.330  10.982  25.305 -0.1271 -0.0083 -0.2000
21394DOD     C3 8003  17.035  11.010  24.914  0.0286 -0.0698 -0.1049
21395DOD     C1 8004   9.838   4.026  26.559 -0.2511  0.0890  0.0371
21395DOD     C2 8005   9.412   4.035  26.332  0.2230  0.2723  0.0672
21395DOD     C3 8006   9.104   3.774  26.045 -0.0983  0.2754 -0.3626
21396DOD     C1 8007  15.662   4.314  26.737  0.3393  0.2273  0.1204
21396DOD     C2 8008  15.899   4.404  27.128 -0.0692  0.1403 -0.1704
21396DOD     C3 8009  16.255   4.617  27.414  0.2929 -0.0264 -0.1578
21397DOD     C1 8010  21.085  18.801   6.156 -0.2753 -0.0609 -0.1358
21397DOD     C2 8011  21.073  19.177   5.923  0.0371  0.3966  0.0799
21397DOD     C3 8012  20.953  19.301   5.491  0.3036 -0.0113 -0.3328
21398DOD     C1 8013   6.566   9.121  26.089  0.2173  0.0088 -0.1196
21398DOD     C2 8014   6.971   8.947  26.188  0.1050 -0.0536  0.3358
21398DOD     C3 8015   7.098   8.622  26.432 -0.1605  0.3649  0.1337
21399DOD     C1 8016  17.497  21.486   2.050 -0.2069 -0.0342  0.0681
21399DOD     C2 8017  17.806  21.269   2.367  0.1603  0.0194 -0.5155
21399DOD     C3 8018  18.157  21.397   2.666  0.2284  0.3574 -0.0404
21400DOD     C1 8019  28.981   4.698  24.080 -0.0971  0.0248  0.0655
21400DOD     C2 8020  28.919   4.422  23.691  0.2727 -0.1274  0.1834
21400DOD     C3 8021  28.812   4.139  23.338 -0.1107  0.1327  0.1053
21401DOD     C1 8022  17.291   5.941   1.037  0.1091 -0.4272 -0.0090
21401DOD     C2 8023  17.336   5.545   0.792 -0.3541 -0.1232  0.2936
21401DOD     C3 8024  16.986   5.409   0.460  0.0904 -0.1273  0.0733
21402DOD     C1 8025  17.697  25.897  13.568 -0.1284  0.0250 -0.3261
21402DOD     C2 8026  18.098  25.679  13.678 -0.2041  0.1012 -0.1146
21402DOD     C3 8027  18.580  25.586  13.785 -0.2898  0.0905  0.1177
21403DOD     C1 8028  11.916  10.011  21.062 -0.2969 -0.0635 -0.1876
21403DOD     C2 8029  11.595   9.837  20.775  0.1084  0.0535 -0.3454
21403DOD     C3 8030  11.426   9.948  20.412  0.2913  0.0901  0.3616
21404DOD     C1 8031   2.375  14.338   0.894  0.2436 -0.1012 -0.1505
21404DOD     C2 8032   1.935  14.442   0.955 -0.2609 -0.0740 -0.0764
21404DOD     C3 8033   1.639  14.732   0.839 -0.1403 -0.0296 -0.0902
21405DOD     C1 8034   7.954  27.214  19.602 -0.0192  0.1361 -0.0540
21405DOD     C2 8035   8.140  26.771  19.701 -0.0948  0.1267 -0.1209
21405DOD     C3 8036   8.425  26.468  19.929  0.1124  0.0758 -0.1251
21406DOD     C1 8037  23.952  18.670   1.845  0.2773  0.1321  0.6274
21406DOD     C2 8038  23.800  18.258   1.924 -0.1705  0.0976  0.0753
21406DOD     C3 8039  23.871  17.744   1.828  0.0510  0.1479 -0.1717
21407DOD     C1 8040  29.004  23.017   8.267  0.1664  0.1005  0.5201
21407DOD     C2 8041  29.455  23.058   8.268 -0.1098 -0.1576  0.0981
21407DOD     C3 8042  29.652  22.803   8.568 -0.1283 -0.0621  0.1599
21408DOD     C1 8043  17.933  28.692  26.472 -0.0949 -0.1535 -0.2392
21408DOD     C2 8044  18.296  28.956  26.262  0.4418  0.0431 -0.1009
21408DOD     C3 8045  18.355  29.379  26.059 -0.0711 -0.0587  0.2012
21409DOD     C1 8046  10.444   9.152   2.472 -0.2468  0.3947  0.2645
21409DOD     C2 8047  10.893   9.064   2.586  0.0771  0.2389  0.2235
21409DOD     C3 8048  11.317   8.865   2.683  0.1208  0.2201  0.0062
21410DOD     C1 8049  27.216  26.504  17.123  0.0871 -0.1748  0.1715
21410DOD     C2 8050  27.000  26.334  16.714  0.2317 -0.1671  0.0316
21410DOD     C3 8051  27.202  26.044  16.373  0.1844  0.1398  0.1435
21411DOD     C1 8052  24.090  10.114  19.189  0.0502  0.2869  0.0535
21411DOD     C2 8053  24.049  10.166  18.706  0.2775  0.2391 -0.4346
21411DOD     C3 8054  23.833   9.942  18.348 -0.0290  0.0957  0.3375
21412DOD     C1 8055   9.558  28.879   9.304 -0.2371  0.2088 -0.0205
21412DOD     C2 8056   9.358  29.218   9.098 -0.4136  0.2764  0.1561
21412DOD     C3 8057   9.448  29.620   8.849 -0.2673  0.1385  0.2343
21413DOD     C1 8058  14.746   8.171  16.130 -0.3802 -0.3351 -0.1115
21413DOD     C2 8059  14.514   8.411  16.434  0.2581 -0.1874 -0.2053
21413DOD     C3 8060  14.147   8.475  16.752  0.0058 -0.0131 -0.0096
21414DOD     C1 8061   4.469  21.063   2.257 -0.0316 -0.1566  0.0744
21414DOD     C2 8062   4.243  21.280   1.907 -0.0324 -0.1408 -0.0593
21414DOD     C3 8063   4.425  21.267   1.454  0.0258 -0.0577  0.2696
21415DOD     C1 8064  27.471  14.066  11.171  0.1893 -0.0268  0.0345
21415DOD     C2 8065  27.059  14.339  10.989  0.1749  0.0193 -0.0063
21415DOD     C3 8066  26.637  14.351  10.751 -0.1226 -0.2916 -0.1164
21416DOD     C1 8067   0.346  10.208  13.983  0.2694 -0.3155  0.4381
21416DOD     C2 8068   0.058   9.869  14.117 -0.1878  0.1885  0.1562
21416DOD     C3 8069  -0.033   9.400  14.292 -0.4593  0.0343  0.0029
21417DOD     C1 8070  18.941  12.432  26.156 -0.0089  0.2204  0.2892
21417DOD     C2 8071  19.101  12.899  26.283  0.1762 -0.0481  0.0046
21417DOD     C3 8072  19.062  13.311  26.519 -0.0767 -0.1013 -0.1931
21418DOD     C1 8073  20.904  10.102  28.106 -0.0697 -0.0521 -0.3386
21418DOD     C2 8074  20.810   9.847  27.714 -0.0791  0.0504  0.1455
21418DOD     C3 8075  20.645   9.903  27.262 -0.1149 -0.0314 -0.1324
21419DOD     C1 8076  15.148  11.582  29.826  0.0076  0.1954  0.0496
21419DOD     C2 8077  15.042  11.964  29.630 -0.1656  0.2556 -0.0275
21419DOD     C3 8078  15.245  12.391  29.548  0.2360 -0.3502 -0.4985
21420DOD     C1 8079   4.645   4.890  14.765 -0.0096  0.0373  0.1752
21420DOD     C2 8080   4.385   5.248  14.812 -0.1522  0.1190  0.1527
21420DOD     C3 8081   4.458   5.720  14.891  0.3234 -0.0283 -0.0899
21421DOD     C1 8082   4.628   5.029   4.918  0.2371 -0.2808 -0.2598
21421DOD     C2 8083   4.347   5.264   4.607 -0.3831  0.1859 -0.1320
21421DOD     C3 8084   4.138   5.536   4.317 -0.2529  0.0424  0.0493
21422DOD     C1 8085  15.905  25.476   0.174 -0.0604 -0.1288  0.2132
21422DOD     C2 8086  15.470  25.676  30.355  0.0814  0.0778  0.3408
21422DOD     C3 8087  15.183  25.950  30.117  0.0470 -0.0405  0.0903
21423DOD     C1 8088  14.194  14.257  23.526 -0.0414 -0.2219 -0.0911
21423DOD     C2 8089  13.982  13.857  23.366  0.1556  0.0576  0.1089
21423DOD     C3 8090  13.815  13.436  23.538 -0.1476  0.2681  0.2419
21424DOD     C1 8091  14.369  17.254   8.407 -0.1428 -0.0948 -0.0283
21424DOD     C2 8092  14.668  17.039   8.671 -0.2875 -0.1265 -0.0408
21424DOD     C3 8093  14.890  16.955   9.058  0.0829 -0.1521 -0.1124
21425DOD     C1 8094   3.143  10.741   9.560 -0.1825 -0.1045 -0.0252
21425DOD     C2 8095   2.805  11.000   9.513  0.2042  0.0617 -0.2214
21425DOD     C3 8096   2.554  11.274   9.747 -0.0817 -0.0170 -0.0269
21426DOD     C1 8097  28.614  18.531   6.781 -0.0550 -0.2599 -0.1271
21426DOD     C2 8098  28.681  18.912   6.468 -0.0774  0.3685  0.1240
21426DOD     C3 8099  28.598  19.168   6.072  0.3091  0.0273  0.1495
21427DOD     C1 8100   4.437  14.625  18.368  0.0046  0.2471 -0.2809
21427DOD     C2 8101   4.831  14.456  18.146 -0.1324 -0.0655  0.0294
21427DOD     C3 8102   5.252  14.676  18.070  0.2042 -0.2946 -0.0746
21428DOD     C1 8103  22.423   3.997   8.488 -0.1619 -0.3907  0.0481
21428DOD     C2 8104  22.102   4.347   8.374 -0.0452 -0.0488  0.1761
21428DOD     C3 8105  21.697   4.295   8.098 -0.0449 -0.0802  0.1243
21429DOD     C1 8106   7.339  28.915  12.874  0.2434 -0.0957  0.1389
21429DOD     C2 8107   7.117  28.523  12.972  0.3108 -0.0473  0.2528
21429DOD     C3 8108   6.746  28.454  13.237 -0.1082 -0.0447  0.1333
21430DOD     C1 8109   6.957  23.254   1.149 -0.1321  0.0311  0.0792
21430DOD     C2 8110   7.331  23.230   0.969  0.0032  0.0250 -0.0151
21430DOD     C3 8111   7.470  23.087   0.545  0.0268  0.1675 -0.2045
21431DOD     C1 8112  26.683   8.828   0.385 -0.2120  0.1911  0.0199
21431DOD     C2 8113  26.731   8.649   0.809  0.2526  0.3121 -0.0844
21431DOD     C3 8114  26.925   8.525   1.277  0.0889 -0.0325  0.0464
21432DOD     C1 8115  15.484   2.995  18.540 -0.1964 -0.0748 -0.0472
21432DOD     C2 8116  15.731   3.069  18.886 -0.0208  0.0244  0.1494
21432DOD     C3 8117  15.986   3.310  19.132 -0.0889 -0.1053 -0.3760
21433DOD     C1 8118   0.265   8.880  27.419 -0.0833 -0.0622  0.1149
21433DOD     C2 8119  30.182   9.058  27.193 -0.1774  0.3773  0.3698
21433DOD     C3 8120  29.759   9.008  27.139  0.2835  0.2554  0.0091
21434DOD     C1 8121   5.381  17.089  10.874 -0.1964  0.0780 -0.0563
21434DOD     C2 8122   4.989  16.824  10.856 -0.2356  0.3516 -0.0793
21434DOD     C3 8123   4.770  16.435  10.725 -0.1031  0.1912 -0.0203
21435DOD     C1 8124  11.906   2.330  15.174  0.1594 -0.2457 -0.2676
21435DOD     C2 8125  12.213   2.619  15.327  0.0806  0.0058 -0.2618
21435DOD     C3 8126  12.197   3.059  15.486  0.0926  0.0686 -0.0122
21436DOD     C1 8127   8.604   0.117  10.769  0.0628 -0.4057  0.2215
21436DOD     C2 8128   8.339  30.136  10.974  0.3020 -0.0437 -0.2124
21436DOD     C3 8129   7.882  30.054  10.932 -0.0428 -0.1463 -0.0784
21437DOD     C1 8130  18.606  25.030  13.064 -0.0424  0.4449  0.1313
21437DOD     C2 8131  18.560  24.973  13.556 -0.1577 -0.1140  0.0094
21437DOD     C3 8132  18.550  24.866  14.015  0.3693 -0.1323 -0.0342
21438DOD     C1 8133  25.639  25.143  17.563 -0.0219  0.1778 -0.0842
21438DOD     C2 8134  25.651  25.111  17.051 -0.2038  0.3857 -0.0069
21438DOD     C3 8135  25.901  24.987  16.661  0.1415 -0.0436  0.1932
21439DOD     C1 8136   5.526   0.228   4.874  0.0180  0.1585 -0.1646
21439DOD     C2 8137   5.872   0.427   5.149  0.1997  0.1765  0.0821
21439DOD     C3 8138   5.946   0.602   5.611 -0.0195  0.1872 -0.1017
21440DOD     C1 8139   2.893  13.819  14.901  0.2962  0.2130 -0.1522
21440DOD     C2 8140   2.505  14.137  14.863 -0.0383 -0.4498  0.1442
21440DOD     C3 8141   2.027  14.198  14.848 -0.2644  0.1262 -0.1331
21441DOD     C1 8142  24.729  11.730  26.473 -0.2891 -0.2591 -0.1016
21441DOD     C2 8143  24.676  11.418  26.058  0.1040  0.0852 -0.1613
21441DOD     C3 8144  24.424  11.054  25.907 -0.0619  0.1906 -0.1772
21442DOD     C1 8145  23.079  10.906  26.365  0.1731  0.2418  0.4073
21442DOD     C2 8146  23.095  11.047  26.795  0.1562  0.2084  0.0225
21442DOD     C3 8147  23.140  11.080  27.243 -0.3026  0.3027 -0.3682
21443DOD     C1 8148   0.810  27.384   9.400  0.1472  0.0051  0.0290
21443DOD     C2 8149   0.610  27.000   9.642  0.1624 -0.1786 -0.2485
21443DOD     C3 8150   0.506  26.996  10.107 -0.1221  0.2738 -0.1283
21444DOD     C1 8151  12.271  23.453  10.846 -0.1505  0.0279  0.2639
21444DOD     C2 8152  12.742  23.509  10.725 -0.0406 -0.2174 -0.1817
21444DOD     C3 8153  13.160  23.517  10.512  0.1171  0.0655 -0.0631
21445DOD     C1 8154   6.096  13.816  24.155 -0.3185  0.3456 -0.0014
21445DOD     C2 8155   5.930  14.167  24.385  0.0876 -0.1299 -0.1260
21445DOD     C3 8156   5.912  14.510  24.695 -0.0450  0.2085  0.1064
21446DOD     C1 8157   8.752  22.957   0.963 -0.0417 -0.0585 -0.1541
21446DOD     C2 8158   8.582  23.184   1.345  0.1304 -0.0736 -0.0292
21446DOD     C3 8159   8.597  23.427   1.740 -0.0593  0.2394 -0.3660
21447DOD     C1 8160   9.342   3.464  13.007 -0.2874 -0.2777  0.2474
21447DOD     C2 8161   9.075   3.819  12.922  0.0281 -0.1601 -0.2388
21447DOD     C3 8162   8.904   4.266  12.939  0.0982 -0.2038  0.1527
21448DOD     C1 8163  25.693  15.462  27.900 -0.0287 -0.1667  0.1541
21448DOD     C2 8164  25.608  15.070  27.623  0.1033  0.2247 -0.2074
21448DOD     C3 8165  25.418  14.684  27.417  0.0772  0.1996  0.0983
21449DOD     C1 8166  20.051   5.556   3.972  0.1358 -0.0086  0.4051
21449DOD     C2 8167  19.607   5.486   3.956 -0.2238 -0.0434 -0.2283
21449DOD     C3 8168  19.224   5.491   3.941 -0.0614  0.1805 -0.1619
21450DOD     C1 8169  12.814   5.996  30.024  0.1592  0.2391  0.0879
21450DOD     C2 8170  13.207   5.963  30.301  0.0548 -0.0657 -0.0172
21450DOD     C3 8171  13.665   5.978  30.237  0.0801 -0.0425 -0.2597
21451DOD     C1 8172   4.335  10.012  17.180  0.0112 -0.1331  0.3679
21451DOD     C2 8173   3.882   9.771  17.096  0.0756  0.1405  0.0617
21451DOD     C3 8174   3.528   9.463  17.107  0.2748  0.1214 -0.1139
21452DOD     C1 8175  28.561  14.519   2.393 -0.1673 -0.1598  0.1615
21452DOD     C2 8176  28.703  14.116   2.631  0.1483  0.0037  0.1891
21452DOD     C3 8177  29.054  13.884   2.809 -0.1442  0.2050 -0.0221
21453DOD     C1 8178  22.110   9.381  11.308 -0.2601 -0.3035  0.1986
21453DOD     C2 8179  22.384   9.545  11.606  0.1020  0.0678 -0.1598
21453DOD     C3 8180  22.568   9.271  11.954  0.1456  0.5268  0.0205
21454DOD     C1 8181  18.905   1.310  14.033  0.0387 -0.1072 -0.2093
21454DOD     C2 8182  18.644   1.123  13.661 -0.0065  0.4047 -0.2066
21454DOD     C3 8183  18.267   0.983  13.501 -0.0224  0.0236  0.2956
21455DOD     C1 8184   7.519  18.174   6.814 -0.1365  0.0255  0.0398
21455DOD     C2 8185   7.194  17.876   6.553 -0.1223  0.0875  0.3095
21455DOD     C3 8186   6.752  17.931   6.389  0.2289  0.0522  0.1373
21456DOD     C1 8187  28.246  18.318  12.544 -0.1200 -0.1229 -0.0495
21456DOD     C2 8188  27.793  18.113  12.548 -0.3040 -0.0836  0.2038
21456DOD     C3 8189  27.523  17.761  12.633  0.2234  0.2637 -0.1133
21457DOD     C1 8190  23.159   1.843  26.155  0.0802  0.2437 -0.0618
21457DOD     C2 8191  23.449   1.467  26.329  0.0300  0.0855 -0.1557
21457DOD     C3 8192  23.834   1.336  26.604  0.1394 -0.1836 -0.2482
21458DOD     C1 8193   5.777  11.876   9.833  0.0132 -0.0301  0.1497
21458DOD     C2 8194   5.805  11.735  10.222  0.1344 -0.3155 -0.0293
21458DOD     C3 8195   6.017  11.973  10.613 -0.2544  0.0340  0.0186
21459DOD     C1 8196   6.053  28.498  22.795 -0.2153 -0.1957  0.2381
21459DOD     C2 8197   6.296  28.245  22.493  0.1992  0.3268  0.2158
21459DOD     C3 8198   6.625  28.199  22.140 -0.3120  0.1499  0.3222
21460DOD     C1 8199   5.273   1.625  25.516  0.2801  0.0599  0.2232
21460DOD     C2 8200   5.044   1.821  25.179 -0.0061 -0.1910 -0.0965
21460DOD     C3 8201   5.007   2.025  24.763  0.0324 -0.0291  0.2750
21461DOD     C1 8202  15.198   0.963  20.421  0.1463 -0.1774  0.0159
21461DOD     C2 8203  15.128   1.320  20.720 -0.0139  0.2876 -0.0961
21461DOD     C3 8204  15.300   1.775  20.705 -0.0001 -0.1382  0.1110
21462DOD     C1 8205  21.860  17.518  29.940 -0.1641 -0.2673 -0.0394
21462DOD     C2 8206  21.905  17.895  29.810 -0.1587 -0.1941  0.3657
21462DOD     C3 8207  21.909  18.352  29.638  0.1590  0.1143 -0.0407
21463DOD     C1 8208   0.583   8.198  12.550 -0.1492 -0.0731 -0.0221
21463DOD     C2 8209   0.213   7.949  12.590  0.0251  0.2928  0.0501
21463DOD     C3 8210  30.134   7.895  12.266 -0.1321  0.4668 -0.0938
21464DOD     C1 8211  25.330  24.953  16.681  0.1104 -0.3393  0.4965
21464DOD     C2 8212  25.461  25.421  16.750  0.3348  0.2228  0.1129
21464DOD     C3 8213  25.824  25.636  16.650 -0.1715 -0.0918  0.0778
21465DOD     C1 8214  14.188  24.508  29.541  0.2465  0.0168  0.1849
21465DOD     C2 8215  14.606  24.689  29.753 -0.1396  0.1576  0.0349
21465DOD     C3 8216  15.014  24.776  29.637  0.0429  0.0671 -0.2786
21466DOD     C1 8217   9.606  13.110   4.508 -0.0108  0.0002 -0.1344
21466DOD     C2 8218   9.219  13.023   4.304 -0.3027 -0.1111 -0.0053
21466DOD     C3 8219   9.042  12.651   4.472 -0.1425  0.1109  0.0338
21467DOD     C1 8220   9.514  14.223  27.585 -0.1751 -0.0638 -0.3309
21467DOD     C2 8221   9.778  14.520  27.863  0.0437 -0.1715 -0.0151
21467DOD     C3 8222   9.717  14.961  28.074  0.0289  0.5853 -0.2011
21468DOD     C1 8223  18.321   1.845  12.943  0.0972 -0.0678 -0.1414
21468DOD     C2 8224  17.976   1.918  12.599 -0.2701  0.0854 -0.1055
21468DOD     C3 8225  17.614   1.723  12.395  0.2774  0.0209  0.0937
21469DOD     C1 8226  15.073  24.357  13.872  0.2566  0.1306  0.1820
21469DOD     C2 8227  15.197  24.103  14.141  0.1929  0.2216  0.1614
21469DOD     C3 8228  15.334  23.663  14.197 -0.1597 -0.1478  0.0723
21470DOD     C1 8229   0.019  11.224  13.559  0.4113 -0.2157 -0.3853
21470DOD     C2 8230   0.224  10.929  13.836 -0.0982 -0.0938 -0.4601
21470DOD     C3 8231   0.400  10.700  14.175  0.0123 -0.1001  0.0747
21471DOD     C1 8232  28.847  27.874  12.669 -0.2405  0.0242  0.3125
21471DOD     C2 8233  28.626  28.219  12.859 -0.0531 -0.1989 -0.1952
21471DOD     C3 8234  28.358  28.245  13.289  0.0415 -0.1928  0.0464
21472DOD     C1 8235  23.725   3.703   8.733 -0.0663  0.2811 -0.0828
21472DOD     C2 8236  23.711   4.194   8.634 -0.2161 -0.0869  0.0848
21472DOD     C3 8237  23.528   4.644   8.584 -0.0528 -0.3103 -0.3224
21473DOD     C1 8238   1.598  22.365  13.500  0.3723 -0.0668 -0.1899
21473DOD     C2 8239   1.469  22.787  13.406 -0.2042 -0.1287 -0.3041
21473DOD     C3 8240   1.246  23.230  13.473  0.1318 -0.3535  0.3461
21474DOD     C1 8241  21.750  24.013  25.970 -0.0546 -0.1885  0.2388
21474DOD     C2 8242  21.760  24.207  25.567  0.3273  0.2979  0.0218
21474DOD     C3 8243  21.494  24.120  25.191  0.0170  0.0190 -0.1568
21475DOD     C1 8244   1.875  21.661   4.120 -0.0784 -0.1441  0.1091
21475DOD     C2 8245   2.077  21.629   3.710  0.0795 -0.0130 -0.4344
21475DOD     C3 8246   2.397  21.737   3.356 -0.0166 -0.3048  0.0211
21476DOD     C1 8247   4.376  14.787   7.778  0.0304 -0.0313  0.4191
21476DOD     C2 8248   4.577  14.478   8.007  0.2252  0.2193  0.0124
21476DOD     C3 8249   4.926  14.302   8.239 -0.0708  0.1660  0.1039
21477DOD     C1 8250  11.721   4.193  15.299  0.2041 -0.0625 -0.1075
21477DOD     C2 8251  11.865   4.354  14.842  0.0175 -0.2861  0.0949
21477DOD     C3 8252  11.645   4.468  14.372  0.1182  0.0848 -0.1081
21478DOD     C1 8253  13.389   0.998   1.996 -0.0220 -0.0640 -0.0737
21478DOD     C2 8254  13.235   0.575   1.815  0.2103  0.3437 -0.1595
21478DOD     C3 8255  13.133   0.161   1.637  0.5353 -0.1076 -0.0942
21479DOD     C1 8256  22.661  22.656  25.711  0.1142  0.4367 -0.1632
21479DOD     C2 8257  22.199  22.728  25.722  0.1232 -0.0265  0.0061
21479DOD     C3 8258  21.977  22.883  25.384  0.2120  0.1600  0.2139
21480DOD     C1 8259   6.862  21.610  10.572 -0.1178  0.2464 -0.0504
21480DOD     C2 8260   7.089  21.387  10.930  0.0701 -0.0823  0.0374
21480DOD     C3 8261   7.450  21.227  11.246 -0.2254  0.2728 -0.1444
21481DOD     C1 8262   2.265  25.133   8.871 -0.1347  0.1390  0.2718
21481DOD     C2 8263   2.621  24.795   8.873 -0.1833 -0.0258  0.0533
21481DOD     C3 8264   2.858  24.643   8.477 -0.0070 -0.1978 -0.2997
21482DOD     C1 8265  18.452   7.196   3.689  0.0598  0.2341 -0.0538
21482DOD     C2 8266  18.908   7.201   3.588 -0.0658  0.0128  0.3539
21482DOD     C3 8267  19.292   7.413   3.355  0.0406 -0.0810  0.2885
21483DOD     C1 8268  11.756  14.995  18.113 -0.1110  0.2715  0.2401
21483DOD     C2 8269  11.811  15.191  17.682 -0.2992 -0.1106 -0.5007
21483DOD     C3 8270  12.098  15.269  17.348 -0.2163 -0.2659  0.0242
21484DOD     C1 8271  25.894  13.418  25.351  0.2950 -0.1163 -0.2097
21484DOD     C2 8272  25.906  13.772  25.088 -0.0874 -0.1928  0.1358
21484DOD     C3 8273  25.848  14.094  24.728 -0.1142 -0.1123 -0.0460
21485DOD     C1 8274  21.410  24.244  29.230 -0.0231 -0.0663 -0.0650
21485DOD     C2 8275  21.038  23.958  29.383  0.1256 -0.0191 -0.1724
21485DOD     C3 8276  20.567  23.803  29.349 -0.0326  0.0350  0.2052
21486DOD     C1 8277  21.711  12.984  20.269 -0.1640  0.0130 -0.0119
21486DOD     C2 8278  21.315  13.271  20.117  0.1628 -0.0840  0.2744
21486DOD     C3 8279  21.081  13.636  20.202 -0.0439 -0.5068  0.1248
21487DOD     C1 8280  10.042   0.092  26.205 -0.0192 -0.3321  0.1102
21487DOD     C2 8281  10.271   0.510  26.097  0.1642  0.0379  0.0232
21487DOD     C3 8282  10.609   0.784  26.102  0.0322 -0.1327  0.1461
21488DOD     C1 8283  27.177  30.295  10.824  0.1859  0.2067  0.1491
21488DOD     C2 8284  27.561  29.990  10.821  0.2097  0.1709  0.3699
21488DOD     C3 8285  27.815  29.782  10.472  0.0009  0.1830  0.1199
21489DOD     C1 8286  21.041  30.137  21.578 -0.1881  0.3523  0.0426
21489DOD     C2 8287  20.763  29.915  21.266  0.2905 -0.0904  0.0777
21489DOD     C3 8288  20.331  29.707  21.357  0.0213 -0.2174 -0.1733
21490DOD     C1 8289  16.660   5.677   3.828 -0.6718 -0.0726 -0.2865
21490DOD     C2 8290  17.035   5.485   4.046  0.1503  0.0608  0.4309
21490DOD     C3 8291  17.320   5.572   4.405  0.1041 -0.1159 -0.0190
21491DOD     C1 8292  29.992   5.038  19.660  0.0498  0.2705 -0.1821
21491DOD     C2 8293  30.176   5.100  19.211  0.1007  0.0183  0.1609
21491DOD     C3 8294   0.158   5.251  18.864  0.1745  0.1395  0.1005
21492DOD     C1 8295  16.247  17.382  21.334 -0.1330 -0.0150  0.0866
21492DOD     C2 8296  16.392  17.823  21.402  0.2208  0.0158 -0.0326
21492DOD     C3 8297  16.317  18.241  21.373 -0.0945  0.1666 -0.2992
21493DOD     C1 8298  29.533  16.892  27.324  0.0810 -0.1314 -0.0656
21493DOD     C2 8299  29.514  17.347  27.136 -0.0942 -0.3750 -0.1016
21493DOD     C3 8300  29.695  17.617  26.827 -0.0657  0.0836  0.0363
21494DOD     C1 8301  12.848   2.798  22.078  0.1627  0.0968 -0.0303
21494DOD     C2 8302  13.150   2.690  21.786  0.1296 -0.1408 -0.0173
21494DOD     C3 8303  13.403   3.004  21.551 -0.0902  0.2846  0.1118
21495DOD     C1 8304   1.617  21.914   7.039 -0.0530 -0.1800  0.2566
21495DOD     C2 8305   1.166  21.864   6.895  0.3351  0.1344  0.0077
21495DOD     C3 8306   0.642  21.816   6.918  0.2525  0.0360  0.0647
21496DOD     C1 8307  17.058  16.537  25.721 -0.3529 -0.0467 -0.0743
21496DOD     C2 8308  17.337  16.675  26.104  0.0872 -0.1150  0.4014
21496DOD     C3 8309  17.708  16.366  26.223 -0.1005  0.0785 -0.1070
21497DOD     C1 8310  21.502  10.279  10.280  0.0411 -0.0310  0.1367
21497DOD     C2 8311  21.822  10.608  10.473  0.0176  0.0802  0.2017
21497DOD     C3 8312  22.076  10.982  10.242  0.0863  0.0772 -0.2410
21498DOD     C1 8313   3.341  18.137   2.921 -0.2440 -0.0602  0.3055
21498DOD     C2 8314   3.790  18.275   2.962  0.1007  0.0990  0.3477
21498DOD     C3 8315   4.043  18.444   2.584  0.0378 -0.0599 -0.2719
21499DOD     C1 8316  24.745  23.733   1.058  0.1457  0.3392  0.0092
21499DOD     C2 8317  25.077  23.768   0.730 -0.1975  0.2947  0.1222
21499DOD     C3 8318  25.524  23.654   0.534  0.0361  0.2243 -0.1545
21500DOD     C1 8319  20.167  22.371  29.867 -0.0584 -0.4106  0.0320
21500DOD     C2 8320  20.440  22.626  30.170 -0.0391 -0.1158  0.1532
21500DOD     C3 8321  20.600  22.644   0.313  0.1085 -0.0756 -0.1420
21501DOD     C1 8322  28.304  20.023   7.511  0.3587  0.1392  0.1472
21501DOD     C2 8323  28.281  20.447   7.717  0.0849 -0.0260 -0.0192
21501DOD     C3 8324  28.216  20.880   7.719 -0.0570  0.1118 -0.1247
21502DOD     C1 8325   7.558  24.664  12.872  0.2319 -0.3101 -0.1500
21502DOD     C2 8326   7.569  24.217  13.019  0.0962 -0.1844 -0.1306
21502DOD     C3 8327   7.638  23.953  12.696 -0.2916 -0.3527  0.1648
21503DOD     C1 8328  23.795  29.584  16.475 -0.0163 -0.1152  0.1269
21503DOD     C2 8329  24.208  29.717  16.583 -0.0316  0.0553 -0.0628
21503DOD     C3 8330  24.580  29.817  16.801 -0.2505  0.0352 -0.0527
21504DOD     C1 8331  24.869  17.443   4.547 -0.0944 -0.0277 -0.2426
21504DOD     C2 8332  24.873  17.487   4.084 -0.2548  0.1738  0.0141
21504DOD     C3 8333  25.058  17.242   3.719 -0.0357  0.1684 -0.2292
21505DOD     C1 8334  17.705   1.503   8.939  0.1028 -0.0148 -0.1725
21505DOD     C2 8335  17.483   1.723   8.605 -0.0491  0.1341 -0.4140
21505DOD     C3 8336  17.069   1.720   8.403  0.4548  0.0832 -0.1554
21506DOD     C1 8337  24.963   1.824   3.406 -0.0229 -0.0887  0.1544
21506DOD     C2 8338  24.533   1.646   3.261 -0.1501  0.1398 -0.0355
21506DOD     C3 8339  24.087   1.500   3.264 -0.2064  0.0204 -0.0969
21507DOD     C1 8340   3.604  24.021   1.211  0.0899 -0.3082 -0.1600
21507DOD     C2 8341   3.335  24.034   1.634  0.1832 -0.0520  0.1010
21507DOD     C3 8342   2.928  24.049   1.792 -0.0486  0.1821  0.0874
21508DOD     C1 8343   3.452  18.312   7.920  0.0298 -0.0558  0.2968
21508DOD     C2 8344   3.491  18.725   8.066  0.2350  0.1393 -0.0101
21508DOD     C3 8345   3.277  19.030   7.755 -0.0798  0.1055 -0.1014
21509DOD     C1 8346  13.572   2.121   8.335  0.0935  0.3127  0.1449
21509DOD     C2 8347  13.601   2.293   8.764  0.1256  0.0150  0.2028
21509DOD     C3 8348  13.759   2.381   9.231  0.1219  0.0329  0.0380
21510DOD     C1 8349  12.331  15.911  26.632  0.2230  0.0600 -0.3124
21510DOD     C2 8350  12.402  15.930  27.096 -0.2152 -0.0876 -0.0033
21510DOD     C3 8351  12.212  15.688  27.473 -0.1113 -0.0393 -0.2672
21511DOD     C1 8352  18.516  17.343  10.679 -0.0808  0.2535 -0.1205
21511DOD     C2 8353  18.913  17.561  10.525 -0.0103  0.2093 -0.1826
21511DOD     C3 8354  19.050  17.947  10.365 -0.0379 -0.0627 -0.0320
21512DOD     C1 8355   1.263  11.166  21.448  0.0496 -0.2326  0.0482
21512DOD     C2 8356   1.540  11.539  21.350 -0.0416  0.2923 -0.1297
21512DOD     C3 8357   1.831  11.895  21.242  0.3159 -0.0243 -0.2212
21513DOD     C1 8358  27.339  24.118  27.977 -0.1321  0.1452 -0.0347
21513DOD     C2 8359  27.622  24.073  27.630 -0.0258  0.0571  0.3175
21513DOD     C3 8360  27.851  24.481  27.547 -0.0728 -0.2714  0.0511
21514DOD     C1 8361   6.709  29.990  20.215 -0.0539  0.2041  0.0527
21514DOD     C2 8362   6.473  30.111  19.823  0.2881 -0.2961  0.0954
21514DOD     C3 8363   6.269   0.029  19.494 -0.1201 -0.5699  0.1002
21515DOD     C1 8364  13.526   4.329   2.531 -0.0523  0.1534  0.0221
21515DOD     C2 8365  13.202   4.329   2.257 -0.0949  0.1882 -0.1069
21515DOD     C3 8366  13.115   4.216   1.814 -0.0824  0.0092  0.0747
21516DOD     C1 8367   0.226  28.761   2.876 -0.5053 -0.0233  0.2648
21516DOD     C2 8368   0.568  28.727   2.572  0.0871  0.1002 -0.0618
21516DOD     C3 8369   0.891  28.820   2.324  0.0519 -0.2180 -0.0741
21517DOD     C1 8370   3.840  20.121   5.485  0.0661 -0.0358  0.1620
21517DOD     C2 8371   3.752  19.950   5.923  0.2925  0.0505  0.3068
21517DOD     C3 8372   3.279  20.100   6.000  0.0978 -0.3001 -0.1486
21518DOD     C1 8373  17.815  11.291  21.069  0.3297 -0.0721  0.2504
21518DOD     C2 8374  17.564  11.066  20.732 -0.2350  0.0138  0.1123
21518DOD     C3 8375  17.378  10.863  20.297 -0.0279  0.1520 -0.1759
21519DOD     C1 8376  15.609  26.208   9.138  0.1945  0.0225 -0.1316
21519DOD     C2 8377  15.172  26.064   9.237 -0.0508 -0.2280  0.0257
21519DOD     C3 8378  14.853  25.719   9.125 -0.2356 -0.1506 -0.2638
21520DOD     C1 8379  16.967  16.654  12.137  0.0356  0.0116 -0.0822
21520DOD     C2 8380  17.018  16.496  11.709  0.1585  0.2192 -0.2200
21520DOD     C3 8381  16.790  16.164  11.432  0.2557  0.3023  0.4072
21521DOD     C1 8382  21.553  21.854  24.288  0.2201  0.0981 -0.1620
21521DOD     C2 8383  21.876  22.194  24.072 -0.1379 -0.4646  0.2003
21521DOD     C3 8384  21.934  22.667  23.958  0.0388 -0.2810  0.5221
21522DOD     C1 8385   4.985  18.508  18.109 -0.1515 -0.2063 -0.1098
21522DOD     C2 8386   4.700  18.469  17.728 -0.2377 -0.1296 -0.2443
21522DOD     C3 8387   4.520  18.475  17.288  0.1809  0.1561 -0.1130
21523DOD     C1 8388  23.279  11.239  10.590  0.2936  0.0042 -0.2458
21523DOD     C2 8389  22.993  11.269  10.223 -0.2810  0.3433  0.1087
21523DOD     C3 8390  22.530  11.083  10.116 -0.2909 -0.1510  0.0794
21524DOD     C1 8391  16.224  16.225  23.336  0.1066 -0.1269  0.3635
21524DOD     C2 8392  16.021  16.670  23.407  0.1022 -0.1539  0.0735
21524DOD     C3 8393  15.692  16.871  23.689 -0.2030 -0.0990  0.0588
21525DOD     C1 8394  21.497   8.879  29.573  0.0242  0.0130 -0.2415
21525DOD     C2 8395  21.088   9.021  29.822  0.0229 -0.0029  0.1254
21525DOD     C3 8396  20.777   9.410  29.795 -0.1398 -0.1245 -0.0012
21526DOD     C1 8397  16.693   0.651  11.772  0.0673 -0.0359 -0.0099
21526DOD     C2 8398  16.638   0.386  12.135 -0.3646 -0.0538  0.1591
21526DOD     C3 8399  16.492   0.140  12.521  0.0452  0.0474 -0.2645
21527DOD     C1 8400  18.228   8.179   1.837 -0.0335 -0.1282  0.1614
21527DOD     C2 8401  17.773   8.122   1.883  0.2278 -0.1954 -0.0614
21527DOD     C3 8402  17.311   7.912   1.798  0.2211 -0.2677  0.0299
21528DOD     C1 8403  23.736   9.722   5.269 -0.1741 -0.1288 -0.0083
21528DOD     C2 8404  23.504  10.103   4.975 -0.3249  0.0649 -0.3356
21528DOD     C3 8405  23.220  10.310   4.610  0.2062 -0.1280  0.1423
21529DOD     C1 8406  24.824  24.486  19.447 -0.1978 -0.0188 -0.0471
21529DOD     C2 8407  25.250  24.229  19.475  0.0569 -0.3425  0.0176
21529DOD     C3 8408  25.595  24.000  19.635 -0.0390 -0.4843 -0.0652
21530DOD     C1 8409  13.823  21.379  30.028  0.1890  0.3903 -0.0553
21530DOD     C2 8410  13.543  21.018  30.097  0.4170 -0.0914  0.1179
21530DOD     C3 8411  13.330  20.710   0.083 -0.0915  0.0194  0.0721
21531DOD     C1 8412   4.056  28.907   8.168  0.1835 -0.1671 -0.1585
21531DOD     C2 8413   3.578  29.010   8.104 -0.1678  0.1942  0.1720
21531DOD     C3 8414   3.197  29.291   8.095  0.1176  0.1207 -0.2603
21532DOD     C1 8415  20.539   0.210  18.841  0.0171  0.0902  0.1084
21532DOD     C2 8416  20.194   0.460  18.663  0.2280  0.1760  0.3843
21532DOD     C3 8417  19.748   0.257  18.709  0.1043 -0.3763 -0.1280
21533DOD     C1 8418  14.832  17.281  11.628  0.0591 -0.2326 -0.0278
21533DOD     C2 8419  14.663  17.260  12.109 -0.2975  0.1553  0.0879
21533DOD     C3 8420  14.365  17.091  12.447 -0.2041  0.1334  0.0325
21534DOD     C1 8421   2.085   5.225  12.613  0.0454  0.0158 -0.2029
21534DOD     C2 8422   2.174   4.947  12.986  0.0284 -0.1388  0.2498
21534DOD     C3 8423   2.038   4.577  13.245  0.2914  0.1727  0.0516
21535DOD     C1 8424  16.864   5.808  23.122  0.0983  0.1676 -0.0971
21535DOD     C2 8425  17.150   6.142  23.082 -0.1010  0.4020  0.2621
21535DOD     C3 8426  17.310   6.565  23.203 -0.0721 -0.1832  0.2991
21536DOD     C1 8427  26.965   9.992  28.510 -0.0672 -0.0894  0.1345
21536DOD     C2 8428  26.976   9.604  28.272  0.1044 -0.0913  0.1654
21536DOD     C3 8429  27.181   9.236  28.186 -0.1218  0.1480 -0.0524
21537DOD     C1 8430  30.024   5.335   2.457  0.0279  0.0338  0.0767
21537DOD     C2 8431  30.251   5.756   2.598  0.1296  0.1323 -0.2332
21537DOD     C3 8432  -0.006   6.199   2.515 -0.1683  0.1231 -0.1504
21538DOD     C1 8433  13.586   4.959  15.776  0.1054  0.3370  0.2403
21538DOD     C2 8434  13.065   5.008  15.737 -0.1428  0.0486 -0.0983
21538DOD     C3 8435  12.628   4.988  15.943 -0.1558  0.0026  0.0760
21539DOD     C1 8436  28.526  23.938   5.931  0.1667 -0.2400  0.0897
21539DOD     C2 8437  28.031  23.965   5.842  0.1568 -0.2948  0.2736
21539DOD     C3 8438  27.628  24.225   5.942 -0.1826  0.0406 -0.0934
21540DOD     C1 8439  23.738  29.638   6.134  0.1164 -0.0808  0.0118
21540DOD     C2 8440  23.943  29.586   6.557 -0.3619 -0.0035  0.0386
21540DOD     C3 8441  24.186  29.450   6.945  0.1308  0.1583  0.0612
21541DOD     C1 8442   3.408   3.397   5.083 -0.1692  0.0010 -0.1294
21541DOD     C2 8443   3.129   3.692   5.206 -0.2307  0.1375 -0.0232
21541DOD     C3 8444   3.111   3.958   5.611 -0.2340 -0.0421  0.0566
21542DOD     C1 8445  20.480  25.145  10.369 -0.1947  0.0043 -0.0139
21542DOD     C2 8446  20.081  25.010  10.172 -0.1378  0.1311 -0.0082
21542DOD     C3 8447  19.899  24.972   9.759 -0.1746  0.2283 -0.0659
21543DOD     C1 8448  22.632   4.527  21.141  0.0936  0.0024 -0.1140
21543DOD     C2 8449  22.911   4.513  21.475 -0.0942  0.1191 -0.2499
21543DOD     C3 8450  23.020   4.417  21.956 -0.1174 -0.0539 -0.1656
21544DOD     C1 8451  25.812   7.237  16.104 -0.3216  0.2526 -0.1172
21544DOD     C2 8452  25.535   7.557  16.085 -0.0417 -0.1752 -0.1714
21544DOD     C3 8453  25.225   7.929  15.960  0.1538  0.1154 -0.2290
21545DOD     C1 8454   7.749   6.302   3.601 -0.1224  0.0047  0.1240
21545DOD     C2 8455   7.842   6.606   3.951  0.0034 -0.0863 -0.0397
21545DOD     C3 8456   8.032   6.681   4.354 -0.0271  0.1540  0.2218
21546DOD     C1 8457  24.338  24.543  17.279  0.2807 -0.2012 -0.1542
21546DOD     C2 8458  24.814  24.648  17.313 -0.1516  0.0167 -0.0801
21546DOD     C3 8459  25.215  24.849  17.174  0.2823 -0.1710 -0.1730
21547DOD     C1 8460  30.101   7.565  26.161 -0.1882 -0.1336  0.0328
21547DOD     C2 8461  29.790   7.790  26.482 -0.1746 -0.0154 -0.2486
21547DOD     C3 8462  29.321   7.700  26.626 -0.1776  0.1314  0.1874
21548DOD     C1 8463  29.601   2.897  10.100 -0.0212 -0.0371 -0.0818
21548DOD     C2 8464  30.005   2.811  10.241  0.0541 -0.2093  0.0621
21548DOD     C3 8465  30.278   2.917  10.604 -0.0343 -0.0749  0.2145
21549DOD     C1 8466  11.070  12.527  25.349 -0.1913 -0.0920  0.2782
21549DOD     C2 8467  11.269  12.097  25.338  0.0854 -0.1501 -0.1507
21549DOD     C3 8468  11.277  11.624  25.540  0.1047 -0.0222 -0.1294
21550DOD     C1 8469   0.871   6.675   2.105  0.0827  0.2197  0.1736
21550DOD     C2 8470   0.620   7.035   1.841  0.2211  0.0962 -0.2572
21550DOD     C3 8471   0.271   7.263   2.090  0.0689 -0.1255 -0.4318
21551DOD     C1 8472  28.244  12.630   9.594  0.0253 -0.0475 -0.1045
21551DOD     C2 8473  28.365  12.582   9.153  0.3010  0.3483  0.0535
21551DOD     C3 8474  28.681  12.317   8.995 -0.2794 -0.3925  0.0328
21552DOD     C1 8475  26.327   9.433  21.825 -0.1570 -0.0957 -0.0425
21552DOD     C2 8476  26.194   9.597  22.257 -0.0831  0.1200 -0.1401
21552DOD     C3 8477  26.059   9.843  22.633 -0.3467 -0.0215  0.2035
21553DOD     C1 8478  28.348  24.443  23.562  0.1707  0.0331  0.0591
21553DOD     C2 8479  28.682  24.242  23.408  0.0329  0.1343 -0.3015
21553DOD     C3 8480  28.901  23.821  23.363 -0.2770  0.2494 -0.1342
21554DOD     C1 8481   7.105  12.352  19.603  0.0017  0.0457  0.3987
21554DOD     C2 8482   6.829  12.141  19.403  0.3941 -0.4675 -0.1568
21554DOD     C3 8483   6.411  11.940  19.553  0.2637  0.2128  0.2998
21555DOD     C1 8484  18.138   6.298  18.091 -0.1379 -0.1755  0.0833
21555DOD     C2 8485  18.359   5.946  17.832 -0.5379 -0.1249 -0.1072
21555DOD     C3 8486  18.556   5.856  17.414  0.1017  0.0370  0.2600
21556DOD     C1 8487   8.765  26.114   9.983 -0.2444 -0.2282  0.2902
21556DOD     C2 8488   8.424  25.887   9.865 -0.0222 -0.0749 -0.5007
21556DOD     C3 8489   8.263  25.566   9.541  0.0485  0.1001 -0.0157
21557DOD     C1 8490  10.372  26.248  21.185  0.0641 -0.0251 -0.1060
21557DOD     C2 8491  10.418  25.934  21.500  0.1924  0.1426  0.0388
21557DOD     C3 8492  10.179  25.593  21.817 -0.1134 -0.0209  0.1465
21558DOD     C1 8493  26.007  15.460  21.183 -0.0933 -0.1104 -0.1477
21558DOD     C2 8494  26.318  15.715  20.915  0.3614  0.1027  0.1416
21558DOD     C3 8495  26.447  16.142  20.814  0.1587 -0.5029 -0.0613
21559DOD     C1 8496   1.955  17.110  28.686 -0.1393 -0.1342 -0.2524
21559DOD     C2 8497   1.517  16.986  28.690 -0.0260 -0.0628 -0.0418
21559DOD     C3 8498   1.137  16.762  28.840 -0.1000 -0.1512 -0.0708
21560DOD     C1 8499  25.008   9.318  29.683  0.1173 -0.2756  0.0521
21560DOD     C2 8500  24.856   9.297  29.253 -0.0749  0.2474 -0.2126
21560DOD     C3 8501  24.711   9.506  28.873 -0.0977 -0.2478  0.1265
21561DOD     C1 8502   5.651  19.205  28.442 -0.0873  0.0860 -0.0436
21561DOD     C2 8503   5.212  18.954  28.523 -0.2973 -0.3170 -0.1988
21561DOD     C3 8504   4.852  18.732  28.540 -0.0610 -0.1403 -0.1416
21562DOD     C1 8505  21.977  10.051   7.791 -0.0923  0.0058  0.1284
21562DOD     C2 8506  21.993  10.525   7.617 -0.4118 -0.0303  0.3510
21562DOD     C3 8507  21.966  10.819   7.248  0.0144  0.1097 -0.0816
21563DOD     C1 8508  26.006   0.599  12.863  0.0184  0.0684  0.0588
21563DOD     C2 8509  26.463   0.754  12.787 -0.1329 -0.1385 -0.2069
21563DOD     C3 8510  26.818   0.993  12.784  0.0010  0.1145  0.1917
21564DOD     C1 8511  10.097  10.866  14.092  0.3733  0.2833  0.0689
21564DOD     C2 8512  10.536  10.646  14.095  0.0080 -0.1616 -0.2332
21564DOD     C3 8513  10.849  10.284  14.008  0.1780  0.1026 -0.1189
21565DOD     C1 8514  28.110   3.930   3.729 -0.2303  0.0485 -0.0536
21565DOD     C2 8515  28.337   3.530   3.620 -0.0020  0.0603  0.0301
21565DOD     C3 8516  28.614   3.189   3.493 -0.3838  0.1267 -0.2840
21566DOD     C1 8517   8.721  24.002  25.030 -0.1233 -0.2824 -0.0807
21566DOD     C2 8518   9.164  23.838  24.958 -0.2540  0.1397 -0.2536
21566DOD     C3 8519   9.330  23.398  24.828 -0.2543  0.1957 -0.0662
21567DOD     C1 8520  27.479  14.644  17.777 -0.0913  0.0598 -0.2179
21567DOD     C2 8521  27.223  14.336  18.009 -0.2069  0.4150 -0.1060
21567DOD     C3 8522  26.903  14.253  18.292  0.1986  0.0978 -0.1126
21568DOD     C1 8523  10.624   0.787   4.816 -0.0867 -0.0751 -0.2558
21568DOD     C2 8524  10.261   0.475   4.690  0.1014 -0.3180  0.3089
21568DOD     C3 8525   9.816   0.559   4.602 -0.4445 -0.0296  0.1962
21569DOD     C1 8526   4.966   8.774  14.587  0.3769 -0.2699  0.3317
21569DOD     C2 8527   5.376   8.736  14.460 -0.0455  0.1072  0.3510
21569DOD     C3 8528   5.834   8.796  14.460  0.0623 -0.0918 -0.1498
21570DOD     C1 8529  23.845  21.726  16.618  0.1504 -0.0014 -0.1639
21570DOD     C2 8530  23.674  21.354  16.384  0.1661  0.1365  0.2737
21570DOD     C3 8531  23.398  21.183  16.038  0.0851  0.1192 -0.0354
21571DOD     C1 8532  24.141   8.334  18.410  0.2365 -0.1225  0.0917
21571DOD     C2 8533  24.228   8.709  18.604  0.1320  0.2808 -0.4525
21571DOD     C3 8534  24.590   8.829  18.898 -0.3182  0.1490 -0.2087
21572DOD     C1 8535  15.829  12.478   2.725  0.1471 -0.3484 -0.3066
21572DOD     C2 8536  15.570  12.527   3.156  0.1008  0.0239 -0.0540
21572DOD     C3 8537  15.238  12.688   3.490 -0.2779  0.0511  0.0467
21573DOD     C1 8538  14.423  16.272  15.377 -0.0550 -0.0855  0.1932
21573DOD     C2 8539  14.693  16.227  15.754  0.1958  0.1804 -0.0690
21573DOD     C3 8540  14.834  15.989  16.143 -0.0413 -0.1008  0.0790
21574DOD     C1 8541  28.104  24.390   9.918  0.4615  0.4054 -0.0545
21574DOD     C2 8542  27.647  24.358  10.148  0.0649 -0.0587 -0.2389
21574DOD     C3 8543  27.308  24.068  10.127 -0.0335  0.0450 -0.2617
21575DOD     C1 8544   6.509  11.765  18.745 -0.0787 -0.0726 -0.0187
21575DOD     C2 8545   6.795  11.730  19.127 -0.1186 -0.0656  0.2269
21575DOD     C3 8546   6.905  11.714  19.553 -0.1610 -0.0561  0.2687
21576DOD     C1 8547  29.713  10.595   2.790 -0.0071  0.3330 -0.1376
21576DOD     C2 8548  29.881  10.825   3.143  0.4229  0.0179  0.0966
21576DOD     C3 8549  29.757  11.135   3.487 -0.2842  0.1578  0.2052
21577DOD     C1 8550  11.608  23.683  20.768  0.1044  0.1918  0.0513
21577DOD     C2 8551  11.201  23.777  21.032 -0.0930 -0.1054 -0.1778
21577DOD     C3 8552  11.047  23.835  21.515 -0.0402  0.1111  0.2521
21578DOD     C1 8553  22.435   4.871  17.164 -0.0821 -0.2632 -0.2339
21578DOD     C2 8554  22.866   4.644  17.239 -0.3120 -0.2403 -0.2502
21578DOD     C3 8555  23.263   4.505  17.170 -0.1092  0.3944 -0.0731
21579DOD     C1 8556   1.813  21.789   2.870  0.1216  0.1811 -0.1840
21579DOD     C2 8557   1.995  22.079   2.558 -0.2346 -0.2222 -0.1675
21579DOD     C3 8558   2.405  22.359   2.512 -0.0449 -0.0143  0.2183
21580DOD     C1 8559  21.992  26.477  13.650 -0.1810  0.4331  0.1475
21580DOD     C2 8560  22.285  26.161  13.693  0.0222  0.0523  0.0029
21580DOD     C3 8561  22.430  25.821  13.927 -0.0167  0.0146  0.1158
21581DOD     C1 8562   9.449   4.932   0.161 -0.0136 -0.3172  0.3070
21581DOD     C2 8563   9.399   5.178  30.070  0.1375  0.2071 -0.2426
21581DOD     C3 8564   9.190   5.490  29.788 -0.4119 -0.0887 -0.1733
21582DOD     C1 8565   9.495  29.483  21.690  0.2251  0.1083  0.1593
21582DOD     C2 8566   9.438  29.876  21.914 -0.3779  0.1185  0.0449
21582DOD     C3 8567   9.595  30.331  22.008  0.2611 -0.3382  0.5625
21583DOD     C1 8568   5.480  19.283  25.581 -0.1987  0.0687  0.2578
21583DOD     C2 8569   5.445  18.953  25.197  0.0198  0.0261 -0.4121
21583DOD     C3 8570   5.422  18.486  25.058 -0.0696  0.0215  0.3217
21584DOD     C1 8571   9.209  24.750  22.492  0.0944 -0.1381 -0.2103
21584DOD     C2 8572   8.993  24.735  22.049 -0.1186  0.1572  0.1273
21584DOD     C3 8573   8.959  24.845  21.611  0.4824 -0.0370 -0.1391
21585DOD     C1 8574  12.358  17.872  13.341  0.2911 -0.1972 -0.1450
21585DOD     C2 8575  12.296  17.442  13.534  0.3658  0.0698  0.3119
21585DOD     C3 8576  12.101  17.047  13.708 -0.0092  0.0420 -0.2635
21586DOD     C1 8577  14.973   6.473   2.740  0.0697 -0.0129 -0.2211
21586DOD     C2 8578  15.251   6.548   2.380 -0.2008  0.0549  0.1244
21586DOD     C3 8579  15.615   6.785   2.204  0.0523  0.2462  0.0713
21587DOD     C1 8580  15.545   9.763  24.987 -0.1810 -0.2156  0.2089
21587DOD     C2 8581  15.609  10.214  24.890  0.2500 -0.0637 -0.1807
21587DOD     C3 8582  15.979  10.505  24.893  0.4471 -0.1115  0.5236
21588DOD     C1 8583   1.408  11.547  16.465 -0.0767 -0.0821 -0.1092
21588DOD     C2 8584   1.584  11.828  16.799  0.0039  0.1686  0.4467
21588DOD     C3 8585   1.620  12.302  16.987  0.2127 -0.1555 -0.0862
21589DOD     C1 8586  15.708   0.289  29.053 -0.1201  0.2077 -0.1563
21589DOD     C2 8587  15.885   0.525  29.403 -0.1842  0.0656 -0.0580
21589DOD     C3 8588  16.078   0.936  29.514  0.0478  0.0597 -0.1561
21590DOD     C1 8589  22.072  14.580   7.954  0.0222 -0.4138 -0.1415
21590DOD     C2 8590  21.635  14.532   8.219 -0.0086  0.0323  0.1612
21590DOD     C3 8591  21.257  14.386   8.111 -0.1975 -0.1044  0.0245
21591DOD     C1 8592   9.921  17.082   7.703 -0.2844  0.3530  0.0305
21591DOD     C2 8593   9.630  16.840   7.393  0.0998  0.1189 -0.1542
21591DOD     C3 8594   9.169  16.731   7.355 -0.1426  0.0383 -0.0104
21592DOD     C1 8595  16.676  13.547   4.031  0.1036  0.0881 -0.1196
21592DOD     C2 8596  16.636  13.617   3.585  0.2427  0.2012 -0.2458
21592DOD     C3 8597  16.552  13.548   3.119 -0.3083  0.4960  0.0751
21593DOD     C1 8598   0.909   6.747  10.241  0.2870 -0.0414  0.1198
21593DOD     C2 8599   1.123   7.193  10.290 -0.0518  0.0460 -0.3411
21593DOD     C3 8600   1.384   7.591  10.378  0.1095 -0.0735  0.1432
21594DOD     C1 8601  30.202   3.218  12.692 -0.0359 -0.1144 -0.2856
21594DOD     C2 8602   0.027   2.805  12.886 -0.1241 -0.1533 -0.2014
21594DOD     C3 8603   0.287   2.433  12.699 -0.2655  0.1632  0.1400
21595DOD     C1 8604  26.157   8.903  20.228 -0.1895 -0.0244  0.1526
21595DOD     C2 8605  26.394   9.333  20.097 -0.1711 -0.1214 -0.0879
21595DOD     C3 8606  26.600   9.600  19.804 -0.0643  0.1656  0.0003
21596DOD     C1 8607   6.017   6.781  15.179 -0.1887  0.1021 -0.1456
21596DOD     C2 8608   5.646   6.800  15.411 -0.0090 -0.1826 -0.0670
21596DOD     C3 8609   5.270   6.631  15.666 -0.2977 -0.3549  0.0882
21597DOD     C1 8610  12.887   8.161  22.800 -0.2583  0.0430 -0.3358
21597DOD     C2 8611  12.645   7.838  22.852 -0.1969  0.1266 -0.0348
21597DOD     C3 8612  12.255   7.554  22.857 -0.0330 -0.0307  0.0826
21598DOD     C1 8613  17.432  29.010  17.215 -0.1325 -0.3078  0.2411
21598DOD     C2 8614  17.115  29.323  17.337  0.0954 -0.0001 -0.3129
21598DOD     C3 8615  16.748  29.616  17.166 -0.0966  0.0684  0.1148
21599DOD     C1 8616   7.944   5.178  17.399  0.1483 -0.0989 -0.0362
21599DOD     C2 8617   7.699   4.904  17.678  0.3743 -0.1770 -0.0787
21599DOD     C3 8618   7.422   4.696  18.006 -0.2050 -0.1106  0.1169
21600DOD     C1 8619  27.671  14.124  21.021  0.4580 -0.1636 -0.0414
21600DOD     C2 8620  27.755  13.849  21.421 -0.0290 -0.0078  0.1232
21600DOD     C3 8621  27.752  13.579  21.749  0.1379  0.1722  0.1380
21601DOD     C1 8622  28.876  17.536  11.878  0.0852 -0.0298  0.1223
21601DOD     C2 8623  28.483  17.417  11.598  0.2740 -0.0363 -0.0716
21601DOD     C3 8624  28.152  17.383  11.843 -0.0452  0.0852  0.1242
21602DOD     C1 8625  13.058  21.648  25.771 -0.0317 -0.0077 -0.0263
21602DOD     C2 8626  12.723  21.432  26.068 -0.0159 -0.3627  0.3177
21602DOD     C3 8627  12.657  21.217  26.508  0.3975 -0.2393  0.0689
21603DOD     C1 8628   5.327  27.473  22.258 -0.1450  0.0227  0.0788
21603DOD     C2 8629   4.937  27.268  22.442 -0.1790  0.1966 -0.2005
21603DOD     C3 8630   4.806  27.189  22.926  0.1727 -0.0367 -0.2460
21604DOD     C1 8631  17.381  15.337   9.907 -0.1454 -0.0846  0.0771
21604DOD     C2 8632  16.979  15.472   9.760 -0.2350 -0.1083  0.2603
21604DOD     C3 8633  16.568  15.657   9.829  0.0863  0.0044 -0.3608
21605DOD     C1 8634   7.084   7.871  24.873 -0.0883 -0.0856 -0.0413
21605DOD     C2 8635   7.531   7.898  24.978 -0.1181  0.0488 -0.1316
21605DOD     C3 8636   8.008   7.927  25.076  0.0774 -0.0509  0.0259
21606DOD     C1 8637  18.528  25.838   9.757 -0.1162  0.0884  0.0531
21606DOD     C2 8638  18.429  26.259  10.064 -0.1913  0.0981  0.0737
21606DOD     C3 8639  18.586  26.656  10.227 -0.0595 -0.2002  0.4288
21607DOD     C1 8640  14.408  27.288  25.931 -0.0764  0.0457 -0.3557
21607DOD     C2 8641  14.820  27.176  25.834 -0.0296  0.0437 -0.0507
21607DOD     C3 8642  15.240  27.232  26.049  0.2795 -0.1932  0.3305
21608DOD     C1 8643   3.952   4.595  29.826 -0.0744  0.3063  0.0528
21608DOD     C2 8644   3.712   4.718  30.196 -0.0366 -0.0528 -0.1361
21608DOD     C3 8645   3.298   4.939  30.325 -0.0714 -0.0803 -0.0139
21609DOD     C1 8646  11.475   2.524  29.621  0.1538 -0.0566  0.3118
21609DOD     C2 8647  11.457   2.510  30.116 -0.0306 -0.1581  0.1229
21609DOD     C3 8648  11.451   2.351   0.277 -0.4628  0.2996  0.2034
21610DOD     C1 8649  12.905   9.155  15.946 -0.0366 -0.0033  0.1789
21610DOD     C2 8650  12.435   9.065  15.786 -0.2461 -0.2381  0.2487
21610DOD     C3 8651  12.217   8.625  15.756  0.2093  0.4104  0.0977
21611DOD     C1 8652  22.288  26.722  23.501  0.0434 -0.1501 -0.1328
21611DOD     C2 8653  21.964  26.383  23.501  0.4036 -0.0209 -0.2830
21611DOD     C3 8654  21.592  26.234  23.262  0.3569  0.0271  0.2911
21612DOD     C1 8655  21.781  23.363  23.247 -0.3258 -0.1551  0.1539
21612DOD     C2 8656  21.305  23.330  23.218 -0.0843  0.1457 -0.1758
21612DOD     C3 8657  20.938  23.557  23.345 -0.0468 -0.1466 -0.1993
21613DOD     C1 8658  29.162  20.112  21.916  0.1311  0.0862  0.1976
21613DOD     C2 8659  29.570  20.033  21.653  0.1018  0.0079  0.0348
21613DOD     C3 8660  29.821  20.293  21.459  0.1809  0.0167  0.0634
21614DOD     C1 8661   9.246  29.730   3.541  0.2061  0.1055  0.0715
21614DOD     C2 8662   9.610  29.845   3.271 -0.1764 -0.0184 -0.1080
21614DOD     C3 8663   9.938  29.701   2.945 -0.0918  0.0124  0.1725
21615DOD     C1 8664   1.851  14.127  16.730  0.1094 -0.1942  0.1643
21615DOD     C2 8665   1.852  13.791  16.393 -0.0387 -0.0710 -0.1163
21615DOD     C3 8666   2.121  13.410  16.345 -0.2550 -0.1702  0.0837
21616DOD     C1 8667  13.852  29.847   4.518 -0.0469  0.4332  0.1123
21616DOD     C2 8668  13.711  29.793   4.928 -0.0062 -0.2200  0.0360
21616DOD     C3 8669  13.555  29.687   5.373 -0.3727 -0.0826  0.2305
21617DOD     C1 8670  22.752  15.257  10.471 -0.3777 -0.3835 -0.0825
21617DOD     C2 8671  22.469  15.599  10.693  0.0994  0.1138  0.1047
21617DOD     C3 8672  22.109  15.744  10.878 -0.0917  0.0436  0.0298
21618DOD     C1 8673  19.474  26.237  17.563 -0.1688 -0.1097  0.2249
21618DOD     C2 8674  19.889  26.144  17.454 -0.3049  0.1044  0.1543
21618DOD     C3 8675  20.185  26.504  17.512 -0.1234  0.1049  0.2373
21619DOD     C1 8676  29.789   7.702  24.942 -0.0654 -0.0965  0.1673
21619DOD     C2 8677  29.983   8.100  25.038 -0.0436 -0.0841  0.0692
21619DOD     C3 8678  30.039   8.437  24.712 -0.1796 -0.4479  0.0696
21620DOD     C1 8679   6.258  28.832   4.402 -0.3541  0.1062  0.5316
21620DOD     C2 8680   6.562  29.061   4.171  0.3441  0.1562  0.0507
21620DOD     C3 8681   6.803  29.420   3.974  0.1692  0.2325  0.1841
21621DOD     C1 8682   9.828  14.587   4.426 -0.0659 -0.2696 -0.0314
21621DOD     C2 8683  10.268  14.724   4.227  0.2547  0.0545 -0.2085
21621DOD     C3 8684  10.680  14.799   4.466  0.1541 -0.0514  0.3252
21622DOD     C1 8685  15.540   2.575  18.981 -0.1138  0.3097  0.1189
21622DOD     C2 8686  15.468   2.795  19.438  0.2433  0.1432  0.1312
21622DOD     C3 8687  15.243   2.712  19.824  0.0294 -0.1243  0.1144
21623DOD     C1 8688  17.074  11.823  11.591  0.0936 -0.1889 -0.1295
21623DOD     C2 8689  16.929  12.130  11.231  0.1412 -0.1879 -0.0316
21623DOD     C3 8690  16.459  12.158  11.060  0.0603 -0.0077  0.1657
21624DOD     C1 8691   6.851   6.800  23.465  0.3362  0.1902  0.1057
21624DOD     C2 8692   6.821   7.148  23.124 -0.1389  0.3256  0.2206
21624DOD     C3 8693   6.628   7.187  22.762  0.0037 -0.0146 -0.0170
21625DOD     C1 8694  13.257  23.475  29.843  0.0733 -0.1482 -0.1754
21625DOD     C2 8695  12.847  23.474  29.714  0.1399  0.2170  0.1246
21625DOD     C3 8696  12.612  23.194  29.417  0.0557  0.1948 -0.1760
21626DOD     C1 8697  12.940   4.884  19.279  0.1046  0.1074  0.0779
21626DOD     C2 8698  12.686   4.884  18.912 -0.2491 -0.2259 -0.0862
21626DOD     C3 8699  12.465   4.908  18.514 -0.0851 -0.0091 -0.0784
21627DOD     C1 8700   1.310   4.022  22.261 -0.0033  0.0753 -0.0329
21627DOD     C2 8701   1.496   3.860  21.860  0.0265 -0.0491 -0.1611
21627DOD     C3 8702   1.880   3.769  21.588  0.1189 -0.2261 -0.1498
21628DOD     C1 8703   0.637  27.788  26.938  0.2683  0.0029  0.1739
21628DOD     C2 8704   0.757  27.358  27.136  0.1284 -0.0208 -0.1813
21628DOD     C3 8705   1.041  27.286  27.500  0.1573 -0.1329 -0.1498
21629DOD     C1 8706  19.758  21.113   8.929 -0.2493 -0.3927 -0.0739
21629DOD     C2 8707  19.556  21.235   9.392 -0.3606 -0.0380  0.1527
21629DOD     C3 8708  19.263  21.289   9.741 -0.1005  0.1316  0.0560
21630DOD     C1 8709   9.311  17.141   7.106 -0.1373 -0.0248  0.2358
21630DOD     C2 8710   9.085  17.379   6.683  0.0050 -0.0598 -0.1195
21630DOD     C3 8711   8.751  17.743   6.661 -0.1065  0.0737  0.3492
21631DOD     C1 8712   5.897   9.470  21.849  0.1248  0.1138 -0.0479
21631DOD     C2 8713   6.254   9.370  22.103  0.2839  0.2961 -0.2242
21631DOD     C3 8714   6.689   9.508  22.186  0.0739 -0.1429 -0.1072
21632DOD     C1 8715  15.520  30.118   1.060 -0.2688  0.3152  0.1151
21632DOD     C2 8716  15.875  -0.001   1.256  0.2033 -0.2470  0.1528
21632DOD     C3 8717  16.163   0.067   1.642  0.0394  0.2164 -0.0649
21633DOD     C1 8718  15.680   8.746   8.528 -0.0865  0.2269  0.0971
21633DOD     C2 8719  15.339   8.436   8.591 -0.0958 -0.1439  0.0623
21633DOD     C3 8720  14.873   8.218   8.620 -0.2823  0.3060  0.1309
21634DOD     C1 8721  29.881  17.737   5.603  0.1683 -0.0968  0.0716
21634DOD     C2 8722  30.003  18.114   5.850  0.2646  0.3057 -0.0215
21634DOD     C3 8723  30.032  18.229   6.270  0.0302  0.0968 -0.0080
21635DOD     C1 8724   1.985   0.990  18.444  0.0543 -0.1080 -0.0341
21635DOD     C2 8725   2.033   0.709  18.073  0.2260  0.2661  0.1633
21635DOD     C3 8726   2.399   0.531  17.881 -0.0318 -0.3351  0.1014
21636DOD     C1 8727   7.067  23.227   3.301  0.0837  0.5470  0.0736
21636DOD     C2 8728   7.220  22.788   3.313 -0.4222  0.3647  0.1355
21636DOD     C3 8729   7.296  22.354   3.349 -0.0401  0.0300 -0.1283
21637DOD     C1 8730  23.264  29.334   0.183 -0.1037 -0.2863  0.1606
21637DOD     C2 8731  22.852  29.333   0.359  0.2429 -0.1267  0.4134
21637DOD     C3 8732  22.749  29.201   0.797 -0.0339  0.0078  0.0441
21638DOD     C1 8733   3.500   3.029  24.318  0.0804 -0.2680  0.1012
21638DOD     C2 8734   3.692   2.763  23.956 -0.0990  0.0306  0.0128
21638DOD     C3 8735   3.811   2.864  23.485  0.1657  0.1859  0.2375
21639DOD     C1 8736  18.508  11.749  16.792 -0.1435  0.1235  0.0408
21639DOD     C2 8737  18.152  12.013  16.464  0.1506 -0.1943  0.1051
21639DOD     C3 8738  17.748  11.908  16.309 -0.0556  0.1818 -0.0103
21640DOD     C1 8739  12.110  18.609  17.027  0.4252  0.1173  0.0689
21640DOD     C2 8740  11.827  18.941  17.140 -0.0409 -0.0658  0.2264
21640DOD     C3 8741  11.457  19.276  17.043  0.1812 -0.0216 -0.0885
21641DOD     C1 8742  26.309  27.596  12.566  0.0806  0.1308  0.1934
21641DOD     C2 8743  26.418  28.015  12.767  0.1028 -0.1256 -0.0637
21641DOD     C3 8744  26.213  28.409  12.634  0.0768 -0.1570 -0.0951
21642DOD     C1 8745  12.065  12.722  23.863  0.0225  0.0206  0.1016
21642DOD     C2 8746  12.029  13.118  24.149 -0.2395 -0.1339  0.1624
21642DOD     C3 8747  12.013  13.554  24.312 -0.0159 -0.2050 -0.0634
21643DOD     C1 8748  30.074  27.787   6.370 -0.0168  0.2300 -0.1164
21643DOD     C2 8749  29.769  28.012   6.151 -0.2303 -0.1282 -0.0865
21643DOD     C3 8750  29.780  28.461   6.072 -0.0133  0.2027  0.1332
21644DOD     C1 8751  22.772  25.313   0.777  0.0747 -0.1820  0.1834
21644DOD     C2 8752  23.234  25.133   0.808 -0.2153 -0.0629 -0.1137
21644DOD     C3 8753  23.687  25.260   0.857 -0.0298 -0.1488  0.1851
21645DOD     C1 8754   9.496  13.246  27.358  0.0372  0.2023  0.0823
21645DOD     C2 8755   9.883  13.339  27.152 -0.2961 -0.0863  0.2574
21645DOD     C3 8756  10.021  13.653  26.873  0.0471  0.2381  0.0876
21646DOD     C1 8757   7.790   9.999   0.223 -0.1786 -0.1487 -0.4326
21646DOD     C2 8758   8.055  10.163  30.190 -0.0214 -0.0285  0.0149
21646DOD     C3 8759   8.544  10.251  30.059  0.1991 -0.0151 -0.1097
21647DOD     C1 8760  15.082  28.934   5.575 -0.1722 -0.2856 -0.0825
21647DOD     C2 8761  15.535  28.702   5.557  0.3675  0.1458  0.0310
21647DOD     C3 8762  15.884  28.424   5.452  0.0220 -0.0092 -0.0164
21648DOD     C1 8763  27.722  11.595  23.121 -0.2045  0.0621 -0.2007
21648DOD     C2 8764  27.906  11.353  22.804  0.1345 -0.1523 -0.1461
21648DOD     C3 8765  27.788  11.177  22.374 -0.2240 -0.0673 -0.0077
21649DOD     C1 8766  29.367   0.334  29.503 -0.2087 -0.1182 -0.0545
21649DOD     C2 8767  29.072   0.619  29.273  0.0811 -0.6240 -0.0854
21649DOD     C3 8768  28.900   1.031  29.329  0.1405  0.0282  0.1190
21650DOD     C1 8769  18.128  20.867   2.276  0.2396 -0.1553 -0.5023
21650DOD     C2 8770  18.087  20.576   2.599 -0.0067  0.1574  0.1146
21650DOD     C3 8771  17.787  20.611   2.950  0.1072  0.0943 -0.0706
21651DOD     C1 8772  14.796  19.884  23.166 -0.1423 -0.2395  0.2469
21651DOD     C2 8773  14.733  19.443  23.388 -0.3112  0.1244 -0.0064
21651DOD     C3 8774  14.503  19.018  23.376  0.1547  0.0503  0.0932
21652DOD     C1 8775  24.389  18.416  10.888 -0.2298  0.0656 -0.1207
21652DOD     C2 8776  24.111  18.279  11.301  0.0487  0.1822 -0.0087
21652DOD     C3 8777  23.700  18.443  11.382 -0.2109  0.1907  0.1452
21653DOD     C1 8778  12.527  22.768   3.110  0.0096 -0.2164  0.1322
21653DOD     C2 8779  12.999  22.795   3.202  0.0254 -0.1997  0.0330
21653DOD     C3 8780  13.325  22.914   3.455 -0.2813  0.0086  0.1472
21654DOD     C1 8781   3.618  29.598  29.289  0.4552 -0.0123  0.1176
21654DOD     C2 8782   3.517  29.950  29.499  0.1221 -0.1805  0.1555
21654DOD     C3 8783   3.625  30.296  29.815  0.1642 -0.0250 -0.0259
21655DOD     C1 8784  20.490  11.716  12.042 -0.0414 -0.2338  0.1688
21655DOD     C2 8785  20.626  11.317  12.216  0.2960 -0.0881 -0.4337
21655DOD     C3 8786  20.501  10.903  12.421  0.1108 -0.2485  0.0889
21656DOD     C1 8787   7.775  17.241  10.098 -0.0157  0.2175 -0.0710
21656DOD     C2 8788   7.923  17.000   9.748 -0.2638  0.2271  0.2107
21656DOD     C3 8789   7.972  16.846   9.286 -0.0474  0.0843 -0.0080
21657DOD     C1 8790   4.463  25.484  29.329 -0.0239  0.0473 -0.3021
21657DOD     C2 8791   4.574  25.281  28.901  0.0209 -0.1581  0.0925
21657DOD     C3 8792   4.633  25.012  28.523  0.0160  0.1014 -0.1646
21658DOD     C1 8793   9.311   6.702   5.717 -0.1471  0.0809 -0.4671
21658DOD     C2 8794   9.315   6.494   6.208 -0.1081 -0.1430 -0.2911
21658DOD     C3 8795   9.650   6.488   6.530 -0.1315  0.0461  0.0448
21659DOD     C1 8796   0.239   0.871  20.821 -0.1380 -0.0321 -0.1978
21659DOD     C2 8797  30.226   1.063  20.561  0.0919 -0.2746 -0.0822
21659DOD     C3 8798  30.288   1.252  20.149  0.0318  0.1192  0.4502
21660DOD     C1 8799   6.881  18.366  12.509  0.0841  0.2135  0.2336
21660DOD     C2 8800   7.206  18.726  12.454  0.0023  0.0245  0.0374
21660DOD     C3 8801   7.473  19.072  12.306  0.1622  0.2484  0.2337
21661DOD     C1 8802   2.171  28.212  10.046 -0.3084  0.0703  0.0280
21661DOD     C2 8803   1.940  28.641  10.115  0.0820  0.2028  0.1567
21661DOD     C3 8804   1.857  28.979  10.355  0.1412 -0.2263 -0.2286
21662DOD     C1 8805  17.322  17.249   3.970  0.1223 -0.3121 -0.0586
21662DOD     C2 8806  17.264  17.651   4.169 -0.0203 -0.2504 -0.3679
21662DOD     C3 8807  17.165  17.808   4.612 -0.0029 -0.2136 -0.1107
21663DOD     C1 8808  19.150   2.296   8.232 -0.0377 -0.1164  0.0277
21663DOD     C2 8809  19.290   2.534   8.620 -0.0393  0.1151 -0.1316
21663DOD     C3 8810  19.389   2.689   9.114  0.0984  0.1544  0.1459
21664DOD     C1 8811   1.294   4.103   4.392  0.0323 -0.0170  0.2803
21664DOD     C2 8812   1.050   3.734   4.545 -0.1252 -0.0947 -0.1037
21664DOD     C3 8813   0.906   3.331   4.453  0.2418  0.0821 -0.3026
21665DOD     C1 8814  24.062   5.824  21.768 -0.2057 -0.1598 -0.1761
21665DOD     C2 8815  23.858   5.822  22.196  0.0155 -0.1282  0.1407
21665DOD     C3 8816  23.760   6.138  22.497 -0.3797 -0.0198  0.1791
21666DOD     C1 8817  18.910   2.438   5.138 -0.2421 -0.0331  0.3061
21666DOD     C2 8818  19.118   2.347   5.571  0.0333  0.2453  0.1133
21666DOD     C3 8819  19.308   1.945   5.697 -0.2306  0.1118  0.0282
21667DOD     C1 8820   5.404  24.907  25.550  0.8067  0.1046  0.0203
21667DOD     C2 8821   5.844  25.012  25.712 -0.4189  0.1031  0.3532
21667DOD     C3 8822   5.925  25.118  26.142  0.1330  0.1405 -0.1094
21668DOD     C1 8823  10.743  12.189  13.808  0.0227  0.0079 -0.0622
21668DOD     C2 8824  10.353  12.182  13.527 -0.1743  0.1232 -0.0942
21668DOD     C3 8825  10.109  12.393  13.265 -0.0345  0.2227  0.1585
21669DOD     C1 8826  20.777  10.929  14.623 -0.0900 -0.2803 -0.0118
21669DOD     C2 8827  20.936  10.768  14.260  0.2738  0.2495  0.2490
21669DOD     C3 8828  21.375  10.573  14.230 -0.3780 -0.1593 -0.0825
21670DOD     C1 8829  10.225  24.999  18.814  0.2725  0.1136  0.0045
21670DOD     C2 8830  10.661  25.029  18.757 -0.1221 -0.3316 -0.2227
21670DOD     C3 8831  10.857  25.153  18.378 -0.1194  0.0838  0.2167
21671DOD     C1 8832   5.946  10.508  20.082  0.1600 -0.0021  0.1158
21671DOD     C2 8833   6.363  10.554  20.291  0.1778 -0.0899  0.3399
21671DOD     C3 8834   6.835  10.745  20.256 -0.0583 -0.5268 -0.2161
21672DOD     C1 8835  16.246   7.294   9.969 -0.0888 -0.0468  0.1147
21672DOD     C2 8836  16.508   7.144   9.584 -0.0988 -0.0631  0.2786
21672DOD     C3 8837  16.912   6.936   9.464  0.0472  0.2390 -0.0803
21673DOD     C1 8838   0.229   2.809  11.635 -0.0450  0.0893 -0.2512
21673DOD     C2 8839  30.097   2.944  11.757 -0.0554  0.1619  0.0250
21673DOD     C3 8840  29.648   3.049  11.756  0.2643 -0.0040  0.1910
21674DOD     C1 8841  21.303  17.699   0.830  0.1077 -0.0273  0.0832
21674DOD     C2 8842  21.083  18.102   0.874 -0.2879 -0.1571 -0.0869
21674DOD     C3 8843  20.863  18.439   1.156  0.2453 -0.1460 -0.2682
21675DOD     C1 8844  20.066   4.657  26.857 -0.0033 -0.3358  0.2172
21675DOD     C2 8845  20.261   4.480  26.472  0.0172  0.0557  0.0687
21675DOD     C3 8846  20.351   4.450  25.998  0.0887  0.1637 -0.1466
21676DOD     C1 8847  29.039   7.912  21.609 -0.1813  0.0347 -0.4129
21676DOD     C2 8848  28.662   8.192  21.447 -0.3347  0.1151  0.1783
21676DOD     C3 8849  28.289   8.475  21.311  0.2132 -0.0914  0.1253
21677DOD     C1 8850  20.124  20.371  23.781 -0.1349 -0.2390 -0.0066
21677DOD     C2 8851  20.223  20.752  23.553 -0.1173 -0.0805 -0.0126
21677DOD     C3 8852  20.147  21.162  23.374 -0.0187 -0.0726 -0.3652
21678DOD     C1 8853  11.659  23.678  15.907 -0.1509 -0.1726 -0.1623
21678DOD     C2 8854  11.741  23.855  16.332 -0.2079 -0.2054  0.0158
21678DOD     C3 8855  12.145  24.023  16.641  0.0330 -0.3521 -0.0013
21679DOD     C1 8856  29.036  14.159  27.315 -0.4174  0.2661 -0.4142
21679DOD     C2 8857  28.801  14.308  27.705  0.1954 -0.1264  0.1362
21679DOD     C3 8858  28.889  14.640  28.022 -0.0524  0.0117 -0.1192
21680DOD     C1 8859  26.806  20.217   5.927 -0.2856  0.1611  0.0801
21680DOD     C2 8860  26.531  20.491   6.227  0.1365  0.1525  0.1759
21680DOD     C3 8861  26.260  20.769   6.475  0.1999 -0.0113  0.2623
21681DOD     C1 8862  23.085  28.802  10.233  0.2009 -0.2005  0.7584
21681DOD     C2 8863  22.753  28.987  10.012 -0.0352  0.1058 -0.0796
21681DOD     C3 8864  22.469  29.345  10.196  0.3369 -0.1756  0.0493
21682DOD     C1 8865  26.105  23.528  12.546 -0.1321  0.0884 -0.0103
21682DOD     C2 8866  25.953  23.085  12.532 -0.1076 -0.0184  0.1030
21682DOD     C3 8867  25.748  22.647  12.480 -0.0397  0.2216  0.1088
21683DOD     C1 8868   2.669  13.772   4.411 -0.1671 -0.1401  0.0122
21683DOD     C2 8869   2.318  13.553   4.589  0.0646  0.4716 -0.0481
21683DOD     C3 8870   1.986  13.685   4.873  0.0752  0.0082  0.1899
21684DOD     C1 8871   4.800  28.850  23.900  0.0737  0.3507  0.2666
21684DOD     C2 8872   4.958  29.243  23.688  0.0226 -0.0278 -0.1536
21684DOD     C3 8873   4.893  29.573  23.410 -0.0142 -0.1489 -0.0300
21685DOD     C1 8874  15.329  17.273   9.034  0.3515  0.0225 -0.2997
21685DOD     C2 8875  15.360  16.897   9.290 -0.1986 -0.2436 -0.3536
21685DOD     C3 8876  15.444  16.432   9.280  0.0604  0.0170 -0.0454
21686DOD     C1 8877   2.781   4.851  16.231  0.0067  0.3092 -0.0807
21686DOD     C2 8878   2.409   4.619  16.126  0.1404  0.2322  0.1400
21686DOD     C3 8879   2.114   4.446  15.867 -0.2107  0.0755  0.3532
21687DOD     C1 8880  27.954  12.396  17.618  0.1742 -0.3285 -0.0828
21687DOD     C2 8881  27.793  12.034  17.361 -0.0007  0.0002 -0.0679
21687DOD     C3 8882  27.896  12.013  16.894  0.0290  0.1632  0.0886
21688DOD     C1 8883   8.449  10.947  29.507  0.1849  0.1403 -0.0717
21688DOD     C2 8884   8.294  10.711  29.153  0.1009  0.1939  0.0121
21688DOD     C3 8885   8.230  10.788  28.673  0.0090  0.0298  0.2074
21689DOD     C1 8886   0.831  29.948   4.945 -0.1858 -0.0828 -0.2880
21689DOD     C2 8887   0.690  29.519   5.093  0.2193 -0.1134  0.0383
21689DOD     C3 8888   0.267  29.438   5.354 -0.2631 -0.1319 -0.1447
21690DOD     C1 8889  25.462  17.071   2.711 -0.2199  0.0558 -0.0052
21690DOD     C2 8890  25.378  16.597   2.785 -0.0914 -0.0770 -0.2165
21690DOD     C3 8891  25.114  16.382   2.475 -0.0589 -0.0477  0.0403
21691DOD     C1 8892   2.749  14.535  11.355 -0.0719 -0.0316  0.0579
21691DOD     C2 8893   2.950  14.559  11.752  0.1689 -0.2986 -0.2285
21691DOD     C3 8894   2.961  14.387  12.213 -0.2389 -0.1192  0.1242
21692DOD     C1 8895  27.330  20.256   5.203  0.3485  0.0787  0.0230
21692DOD     C2 8896  27.542  20.416   4.829  0.3603  0.1680 -0.0063
21692DOD     C3 8897  27.300  20.571   4.465  0.1579  0.3478 -0.1612
21693DOD     C1 8898  24.318  14.640  23.211 -0.0284  0.1306 -0.2583
21693DOD     C2 8899  24.260  14.963  23.478  0.1162  0.3791 -0.2393
21693DOD     C3 8900  24.280  15.401  23.679  0.2547  0.0660  0.2602
21694DOD     C1 8901  30.021   2.038   5.836 -0.1641  0.1638 -0.0497
21694DOD     C2 8902  29.698   1.714   5.735  0.2252 -0.0734 -0.0874
21694DOD     C3 8903  29.801   1.293   5.608  0.2619 -0.0152 -0.0213
21695DOD     C1 8904  28.346  18.532   1.357  0.2603 -0.1589  0.0088
21695DOD     C2 8905  28.202  18.137   1.137 -0.1789  0.0785 -0.0159
21695DOD     C3 8906  28.132  17.837   0.893  0.1275  0.0403  0.1171
21696DOD     C1 8907   6.167  27.283  22.392 -0.1276  0.0659 -0.0424
21696DOD     C2 8908   6.573  27.284  22.572 -0.2338 -0.2138 -0.1060
21696DOD     C3 8909   6.786  27.405  22.962  0.0409 -0.3492  0.1165
21697DOD     C1 8910  16.822  27.660  21.411 -0.4990 -0.0542 -0.0153
21697DOD     C2 8911  17.205  27.869  21.345 -0.0462 -0.2351 -0.0035
21697DOD     C3 8912  17.614  27.688  21.483 -0.3550  0.0719 -0.2305
21698DOD     C1 8913  10.409   9.365  11.847  0.0819  0.0870 -0.0117
21698DOD     C2 8914  10.108   9.571  11.496 -0.2687  0.1206 -0.2586
21698DOD     C3 8915   9.752   9.840  11.333 -0.1266  0.1580 -0.1402
21699DOD     C1 8916  13.388  11.891   7.000  0.2670 -0.1111  0.2078
21699DOD     C2 8917  13.482  11.584   6.679  0.1644 -0.4488  0.0896
21699DOD     C3 8918  13.471  11.161   6.603 -0.0902 -0.0814 -0.5056
21700DOD     C1 8919  19.028   3.733   4.562 -0.1130  0.0225 -0.1545
21700DOD     C2 8920  19.246   4.087   4.438 -0.0348 -0.0678 -0.0859
21700DOD     C3 8921  19.524   4.430   4.474  0.1836 -0.3086  0.0265
21701DOD     C1 8922  26.590   8.964  13.381  0.1652 -0.0253 -0.2338
21701DOD     C2 8923  26.431   9.354  13.224  0.0552 -0.3758 -0.0032
21701DOD     C3 8924  26.650   9.693  12.936  0.1561  0.0180  0.2200
21702DOD     C1 8925  17.805  21.121   0.073 -0.0939  0.0505  0.1823
21702DOD     C2 8926  18.106  21.063  29.993  0.0295 -0.1207  0.0973
21702DOD     C3 8927  18.548  21.253  29.997  0.1007  0.0462 -0.0597
21703DOD     C1 8928  15.618  15.736  12.677 -0.1310 -0.0297 -0.0459
21703DOD     C2 8929  15.278  15.573  12.952  0.1041 -0.4448  0.0731
21703DOD     C3 8930  14.853  15.650  13.080 -0.1772 -0.2615 -0.3230
21704DOD     C1 8931   4.023  24.400  10.406  0.0643  0.2142  0.2161
21704DOD     C2 8932   3.664  24.129  10.353 -0.2238  0.0254 -0.0089
21704DOD     C3 8933   3.451  24.003   9.995  0.0411  0.0351  0.3234
21705DOD     C1 8934  20.193  14.894  23.033 -0.0930  0.1570  0.2359
21705DOD     C2 8935  20.106  15.210  22.651  0.1675  0.0459  0.2076
21705DOD     C3 8936  20.092  15.380  22.217  0.1113  0.0338  0.1535
21706DOD     C1 8937   2.325  15.302   0.524  0.3188  0.3345  0.2626
21706DOD     C2 8938   2.136  15.721   0.544 -0.0991 -0.2346 -0.1525
21706DOD     C3 8939   2.221  16.150   0.408  0.0964  0.1738 -0.0025
21707DOD     C1 8940  24.350  16.595  21.491 -0.2616 -0.1701  0.2211
21707DOD     C2 8941  24.818  16.442  21.444  0.1961 -0.0291 -0.2960
21707DOD     C3 8942  25.212  16.185  21.288 -0.0890 -0.0025 -0.1926
21708DOD     C1 8943  16.445   9.441  26.433 -0.0290  0.0844  0.1663
21708DOD     C2 8944  16.336   9.163  26.108  0.1727 -0.1012  0.1910
21708DOD     C3 8945  16.394   8.693  26.089 -0.0478  0.0434  0.2417
21709DOD     C1 8946  26.261   8.642  17.603 -0.0781  0.0360  0.3158
21709DOD     C2 8947  26.300   8.729  17.138  0.1449  0.1045  0.1039
21709DOD     C3 8948  26.410   8.577  16.750  0.0165 -0.1126  0.1538
21710DOD     C1 8949  23.033  24.715  22.699  0.1504 -0.0476  0.2234
21710DOD     C2 8950  22.981  24.645  23.156  0.2189  0.0774 -0.0445
21710DOD     C3 8951  23.050  24.440  23.577 -0.0741  0.3536 -0.4004
21711DOD     C1 8952   3.342   0.892  11.854 -0.0099 -0.0272  0.3991
21711DOD     C2 8953   3.201   1.284  11.628  0.0602  0.0510 -0.1077
21711DOD     C3 8954   3.202   1.461  11.225  0.3729 -0.2686  0.0838
21712DOD     C1 8955  22.695   8.321  14.319  0.2597 -0.0036  0.0201
21712DOD     C2 8956  22.366   8.466  14.619 -0.1281  0.1143 -0.0643
21712DOD     C3 8957  22.052   8.216  14.813  0.4134 -0.2668 -0.1489
21713DOD     C1 8958   8.947   3.143  22.244  0.2687 -0.3410  0.0772
21713DOD     C2 8959   9.114   2.870  22.620  0.0130 -0.2041 -0.0149
21713DOD     C3 8960   8.983   2.481  22.872 -0.0873 -0.1734 -0.0080
21714DOD     C1 8961  16.692   0.887   5.342 -0.0118 -0.1542  0.0142
21714DOD     C2 8962  16.454   0.566   5.076  0.3857  0.0312 -0.0899
21714DOD     C3 8963  16.371   0.135   4.956  0.2469 -0.0540 -0.3894
21715DOD     C1 8964  22.073  13.515  27.392 -0.1337 -0.3886 -0.2682
21715DOD     C2 8965  22.281  13.217  27.108  0.0041  0.0467 -0.0754
21715DOD     C3 8966  22.133  12.937  26.749  0.2484  0.2570  0.2039
21716DOD     C1 8967  18.631   1.136  24.449 -0.3124 -0.0889  0.1994
21716DOD     C2 8968  18.769   1.256  24.856  0.1143 -0.2323 -0.0718
21716DOD     C3 8969  18.500   1.398  25.241 -0.2100 -0.0888 -0.2707
21717DOD     C1 8970  13.406  24.357   7.587  0.0306 -0.1024  0.1087
21717DOD     C2 8971  13.222  24.555   7.175 -0.2365  0.1534  0.0440
21717DOD     C3 8972  13.268  25.006   7.086  0.0813 -0.0741  0.1036
21718DOD     C1 8973  14.916   7.046   2.556 -0.2362 -0.0354 -0.0243
21718DOD     C2 8974  14.645   7.417   2.612 -0.3060 -0.0069 -0.2855
21718DOD     C3 8975  14.371   7.713   2.795  0.0333  0.1927 -0.1283
21719DOD     C1 8976   8.463   7.637   0.770 -0.1323 -0.1077  0.1299
21719DOD     C2 8977   8.555   7.824   1.200  0.0797  0.0319  0.0224
21719DOD     C3 8978   8.688   8.201   1.434 -0.0391 -0.3430 -0.0684
21720DOD     C1 8979   1.806  28.006  25.329  0.2636  0.1679  0.2031
21720DOD     C2 8980   2.219  27.744  25.396 -0.1193 -0.0574 -0.0240
21720DOD     C3 8981   2.691  27.856  25.507 -0.0784  0.2464  0.1122
21721DOD     C1 8982  19.502  28.519  16.043 -0.1250  0.1656 -0.1988
21721DOD     C2 8983  19.355  28.896  16.279 -0.2254 -0.1582  0.2323
21721DOD     C3 8984  19.024  29.047  16.497  0.3048  0.0745  0.0891
21722DOD     C1 8985   5.179  13.576   6.108 -0.0941  0.1749 -0.2058
21722DOD     C2 8986   4.869  13.850   5.979 -0.1614 -0.0392  0.4197
21722DOD     C3 8987   4.567  14.026   5.756 -0.0281  0.3003  0.0049
21723DOD     C1 8988  11.422   3.091  10.822 -0.0575 -0.4257  0.0993
21723DOD     C2 8989  11.806   3.324  10.700  0.1847  0.2369 -0.1229
21723DOD     C3 8990  12.241   3.306  10.694 -0.2286 -0.0029  0.1704
21724DOD     C1 8991  26.306  25.974  18.318 -0.2027  0.2561 -0.0130
21724DOD     C2 8992  26.240  25.519  18.221 -0.0673  0.2684 -0.2816
21724DOD     C3 8993  26.126  25.111  18.282  0.3461  0.4421 -0.0665
21725DOD     C1 8994  22.075  24.179   0.130 -0.1264  0.0632 -0.1630
21725DOD     C2 8995  22.281  23.938   0.466 -0.1358  0.2608  0.1236
21725DOD     C3 8996  22.330  23.508   0.639 -0.1348  0.1657  0.0257
21726DOD     C1 8997  22.259   9.370  17.381 -0.2236 -0.4228  0.2745
21726DOD     C2 8998  21.976   9.577  17.680  0.0130 -0.1116  0.0476
21726DOD     C3 8999  21.579   9.795  17.642 -0.1138 -0.1619  0.2201
21727DOD     C1 9000  19.128  29.136  18.220  0.1605 -0.1557 -0.1905
21727DOD     C2 9001  19.498  29.297  17.984 -0.0396 -0.0492 -0.0964
21727DOD     C3 9002  19.893  29.522  18.118 -0.0362  0.2053  0.0876
21728DOD     C1 9003   3.948  18.138  27.006 -0.1322  0.1196  0.0648
21728DOD     C2 9004   4.058  17.649  26.940 -0.0559  0.2493 -0.0548
21728DOD     C3 9005   4.301  17.377  26.627  0.1469  0.2005  0.2370
21729DOD     C1 9006  22.742  10.714   9.221 -0.1822  0.0426  0.4336
21729DOD     C2 9007  22.438  10.970   8.908  0.1684 -0.0749 -0.0262
21729DOD     C3 9008  22.643  11.327   8.659  0.1730 -0.1153 -0.3631
21730DOD     C1 9009   0.711  18.534   6.556  0.0628  0.1818 -0.2738
21730DOD     C2 9010   1.040  18.432   6.288  0.1192  0.0026  0.2871
21730DOD     C3 9011   1.318  18.546   5.926  0.4175 -0.1661 -0.0604
21731DOD     C1 9012  23.287  18.573  19.610 -0.2163  0.1184 -0.2333
21731DOD     C2 9013  23.101  18.690  19.194 -0.0669  0.1648 -0.2702
21731DOD     C3 9014  23.332  18.868  18.846 -0.1259 -0.0005  0.2646
21732DOD     C1 9015  23.497  28.298  15.646  0.0765  0.0817  0.2894
21732DOD     C2 9016  23.922  28.239  15.677 -0.2681 -0.1129  0.4529
21732DOD     C3 9017  24.390  28.145  15.631 -0.2700 -0.2653 -0.0072
21733DOD     C1 9018  18.273  20.736  26.635 -0.2132  0.1124  0.1068
21733DOD     C2 9019  18.191  21.197  26.685 -0.0048 -0.0530 -0.2088
21733DOD     C3 9020  17.850  21.501  26.559 -0.0472  0.1511  0.0178
21734DOD     C1 9021  16.248   2.380  27.731 -0.1278  0.0221  0.3149
21734DOD     C2 9022  16.339   2.410  28.188  0.3188  0.0801 -0.0764
21734DOD     C3 9023  16.682   2.330  28.486  0.1094 -0.0994  0.2398
21735DOD     C1 9024  25.367  22.781   6.602 -0.0108  0.0098  0.1992
21735DOD     C2 9025  25.013  23.114   6.730 -0.0643  0.1978 -0.4158
21735DOD     C3 9026  24.859  23.428   6.985 -0.1667  0.1946 -0.0304
21736DOD     C1 9027  25.414   9.910  24.503  0.0275  0.0019 -0.0405
21736DOD     C2 9028  25.202  10.258  24.288 -0.0100  0.1241  0.0218
21736DOD     C3 9029  25.105  10.622  24.046 -0.2673  0.1234 -0.2768
21737DOD     C1 9030  23.937  22.651   9.377 -0.0720  0.1149  0.3768
21737DOD     C2 9031  23.806  23.076   9.449  0.3796 -0.1939 -0.2466
21737DOD     C3 9032  23.723  23.513   9.177 -0.2110 -0.1759 -0.1961
21738DOD     C1 9033  23.542   3.836  22.734  0.1536  0.1052 -0.1659
21738DOD     C2 9034  24.012   3.762  22.740 -0.0466  0.0421 -0.4652
21738DOD     C3 9035  24.324   3.663  22.398  0.0458  0.3018  0.0045
21739DOD     C1 9036  14.533   8.275   0.935 -0.0682 -0.0347  0.0614
21739DOD     C2 9037  14.656   8.397   0.487 -0.0992  0.0171 -0.0794
21739DOD     C3 9038  14.582   8.464   0.036  0.2972  0.2101  0.1889
21740DOD     C1 9039  18.017   3.295  28.804 -0.1058  0.2043  0.0750
21740DOD     C2 9040  17.621   3.345  28.517 -0.2158 -0.0703 -0.0553
21740DOD     C3 9041  17.369   3.315  28.113 -0.2653  0.1748 -0.0480
21741DOD     C1 9042  17.920   6.121   9.573  0.0286  0.0166 -0.4625
21741DOD     C2 9043  17.544   5.975   9.850  0.2065  0.4635 -0.6807
21741DOD     C3 9044  17.187   5.640   9.796 -0.3763  0.2166  0.0642
21742DOD     C1 9045   7.413  22.819   7.258 -0.2415 -0.3648 -0.0966
21742DOD     C2 9046   7.350  22.923   7.681 -0.1156  0.0834  0.1213
21742DOD     C3 9047   7.567  23.140   8.030 -0.1624  0.0512 -0.1666
21743DOD     C1 9048   7.075   4.833  13.626  0.0346 -0.2358 -0.0768
21743DOD     C2 9049   6.831   5.178  13.879 -0.1009 -0.3055  0.1966
21743DOD     C3 9050   6.685   5.559  14.087 -0.0371  0.1955 -0.0282
21744DOD     C1 9051  15.948   9.756  24.611 -0.1768  0.1302  0.0691
21744DOD     C2 9052  15.786   9.555  24.198  0.0098  0.1419 -0.1193
21744DOD     C3 9053  15.994   9.313  23.855 -0.2741  0.0751  0.1544
21745DOD     C1 9054  22.701  14.583  21.160  0.1636  0.0672 -0.1254
21745DOD     C2 9055  23.024  14.431  20.865 -0.1375  0.2855  0.1429
21745DOD     C3 9056  23.082  14.626  20.430  0.3190  0.2484 -0.1196
21746DOD     C1 9057  10.771  23.890   9.822  0.2034 -0.1663  0.0657
21746DOD     C2 9058  10.752  24.012  10.272  0.0302 -0.0513 -0.0485
21746DOD     C3 9059  11.063  24.169  10.576  0.0420  0.1236  0.0634
21747DOD     C1 9060  29.988  19.660  23.040 -0.2033 -0.1340  0.0530
21747DOD     C2 9061  29.566  19.461  23.245 -0.1214  0.1879 -0.2147
21747DOD     C3 9062  29.391  19.081  23.391  0.0934 -0.1212  0.1129
21748DOD     C1 9063   0.605  23.980  16.673  0.2967  0.1415  0.0266
21748DOD     C2 9064   0.308  23.762  16.421  0.3821  0.1693 -0.0612
21748DOD     C3 9065  30.207  23.769  16.252 -0.0461  0.0471 -0.1335
21749DOD     C1 9066  10.540  24.653   1.962 -0.1720  0.0972  0.0423
21749DOD     C2 9067  10.912  24.811   1.750  0.0673 -0.3356  0.1410
21749DOD     C3 9068  10.971  25.254   1.596 -0.0769  0.3018 -0.0031
21750DOD     C1 9069  13.624  14.205  21.089 -0.3722  0.1532  0.1140
21750DOD     C2 9070  13.546  14.442  20.655  0.0266 -0.4160  0.1206
21750DOD     C3 9071  13.450  14.655  20.256  0.1316 -0.0516  0.0589
21751DOD     C1 9072   6.025   3.501   2.987  0.1424 -0.1442  0.0090
21751DOD     C2 9073   5.833   3.770   3.351 -0.1014  0.0005  0.0990
21751DOD     C3 9074   5.743   4.113   3.676  0.0564  0.1102 -0.1242
21752DOD     C1 9075  14.152   4.176  26.323  0.1349 -0.2007  0.0993
21752DOD     C2 9076  14.111   4.470  25.982  0.1156  0.1507 -0.0564
21752DOD     C3 9077  14.058   4.599  25.524  0.1501 -0.0130 -0.1149
21753DOD     C1 9078   5.015  19.425   0.100 -0.3247  0.0324 -0.1003
21753DOD     C2 9079   5.280  19.532  30.030  0.0280  0.2403  0.0932
21753DOD     C3 9080   5.437  19.386  29.617 -0.0395  0.0884  0.2429
21754DOD     C1 9081  30.016  21.865   3.481  0.0245 -0.3468 -0.1546
21754DOD     C2 9082  30.224  21.452   3.522  0.0644  0.1309 -0.0633
21754DOD     C3 9083   0.256  21.115   3.597  0.0901 -0.1799  0.2200
21755DOD     C1 9084  25.032   0.369  20.563  0.0572 -0.1575  0.1830
21755DOD     C2 9085  24.951   0.766  20.332  0.1970 -0.2332  0.0284
21755DOD     C3 9086  24.911   1.218  20.357  0.0006  0.1079  0.0338
21756DOD     C1 9087  22.203   2.217  15.073  0.1767 -0.2537 -0.0168
21756DOD     C2 9088  22.089   1.845  15.250  0.1278  0.0096  0.0603
21756DOD     C3 9089  21.770   1.515  15.401 -0.0893 -0.3000  0.1031
21757DOD     C1 9090   1.107   0.277  23.596  0.1248 -0.3051 -0.1141
21757DOD     C2 9091   1.407   0.308  23.965  0.1406  0.5053 -0.1672
21757DOD     C3 9092   1.461   0.064  24.339  0.1384  0.2752 -0.1140
21758DOD     C1 9093  19.034  20.639   4.150 -0.0885  0.0021 -0.3489
21758DOD     C2 9094  18.877  20.552   3.685  0.1956 -0.0968  0.2791
21758DOD     C3 9095  18.883  20.607   3.233  0.0026 -0.0861  0.2180
21759DOD     C1 9096  29.443  26.101  11.746  0.2366  0.0039  0.3442
21759DOD     C2 9097  29.713  26.151  12.130 -0.1796  0.0271  0.2142
21759DOD     C3 9098  29.936  26.195  12.534 -0.2287  0.1782 -0.1496
21760DOD     C1 9099   8.684  17.704  26.119 -0.2722  0.0572  0.0751
21760DOD     C2 9100   9.119  17.610  26.306 -0.1831  0.3267 -0.2755
21760DOD     C3 9101   9.312  17.308  26.588  0.1420 -0.2177 -0.0899
21761DOD     C1 9102  19.200  21.064  26.582  0.2164 -0.1106 -0.1275
21761DOD     C2 9103  19.296  21.322  26.978 -0.0884  0.0908  0.0236
21761DOD     C3 9104  19.272  21.634  27.326 -0.2458 -0.0809  0.3042
21762DOD     C1 9105   3.754  17.210  19.741 -0.0501  0.0634  0.1085
21762DOD     C2 9106   3.838  17.110  20.221 -0.1362 -0.1896 -0.0313
21762DOD     C3 9107   4.057  17.034  20.600 -0.1094 -0.1462 -0.1250
21763DOD     C1 9108  29.866  21.703  14.435  0.2133 -0.1027 -0.2671
21763DOD     C2 9109  29.763  22.086  14.254 -0.2358 -0.1166 -0.0824
21763DOD     C3 9110  29.999  22.288  13.947 -0.0534 -0.0606  0.1468
21764DOD     C1 9111  16.820   5.757  14.413 -0.1722  0.0294 -0.0368
21764DOD     C2 9112  17.130   6.102  14.334 -0.0684 -0.1483  0.1643
21764DOD     C3 9113  17.379   6.478  14.441  0.3351  0.0019  0.2438
21765DOD     C1 9114   5.675   4.667  26.729 -0.0528  0.0265  0.2631
21765DOD     C2 9115   5.204   4.773  26.880 -0.1248 -0.0679 -0.0896
21765DOD     C3 9116   4.879   4.840  27.213 -0.0545  0.1838 -0.2886
21766DOD     C1 9117  15.922   6.218  26.403  0.1209  0.0506 -0.2148
21766DOD     C2 9118  15.680   6.030  26.020 -0.3074 -0.0146 -0.0165
21766DOD     C3 9119  15.344   5.960  25.744 -0.0036  0.0664  0.2740
21767DOD     C1 9120  18.833  29.754  23.600 -0.2157  0.0343  0.1345
21767DOD     C2 9121  18.795  30.212  23.709  0.0191  0.2027 -0.2364
21767DOD     C3 9122  18.434   0.108  23.552  0.2660 -0.0222 -0.0627
21768DOD     C1 9123  28.936  16.360  29.247  0.3541  0.0919 -0.2912
21768DOD     C2 9124  29.185  16.584  28.922 -0.1039  0.2116  0.1021
21768DOD     C3 9125  29.266  16.970  28.677 -0.1432 -0.3496 -0.0456
21769DOD     C1 9126   6.773   2.116  21.007  0.1017 -0.0655 -0.1008
21769DOD     C2 9127   6.330   2.101  21.138  0.0962  0.0139 -0.1432
21769DOD     C3 9128   6.029   2.347  21.419 -0.1261  0.2611  0.1730
21770DOD     C1 9129   4.773  21.891  29.525  0.2025 -0.0596 -0.0716
21770DOD     C2 9130   4.826  21.494  29.777  0.2888 -0.1108  0.3605
21770DOD     C3 9131   5.029  21.000  29.729 -0.3071 -0.0557  0.1996
21771DOD     C1 9132   3.201  10.353  21.231  0.0132 -0.3480 -0.1844
21771DOD     C2 9133   2.946  10.032  21.449 -0.2758 -0.0452 -0.0571
21771DOD     C3 9134   3.013   9.629  21.627  0.0250  0.2290 -0.0846
21772DOD     C1 9135   6.245   2.576  30.015  0.0460  0.2475  0.1766
21772DOD     C2 9136   6.418   2.191  30.230 -0.0914 -0.1521 -0.0446
21772DOD     C3 9137   6.717   1.860  30.189  0.1843 -0.2275 -0.1915
21773DOD     C1 9138   7.728  24.516  20.912 -0.1169  0.0229  0.1252
21773DOD     C2 9139   8.033  24.262  21.053  0.1280 -0.0393 -0.0286
21773DOD     C3 9140   8.391  24.022  21.052 -0.1011 -0.0836  0.0938
21774DOD     C1 9141  12.526   7.602  24.628 -0.0838 -0.0912  0.3358
21774DOD     C2 9142  12.684   7.231  24.348 -0.3911 -0.0521 -0.0885
21774DOD     C3 9143  13.087   6.990  24.283  0.0385  0.4051 -0.0075
21775DOD     C1 9144   7.493   3.475  23.863 -0.0219  0.0203 -0.1291
21775DOD     C2 9145   7.506   3.079  23.562 -0.1225  0.1693 -0.0295
21775DOD     C3 9146   7.260   2.674  23.587 -0.1964  0.1154 -0.1259
21776DOD     C1 9147   4.972   0.265  26.075 -0.1341  0.0572  0.0636
21776DOD     C2 9148   5.419   0.141  26.153  0.3129  0.0585 -0.0414
21776DOD     C3 9149   5.739  30.212  26.420  0.3081 -0.0024  0.1826
21777DOD     C1 9150  19.699   2.976   2.387 -0.2124  0.0430  0.1075
21777DOD     C2 9151  19.254   3.126   2.455 -0.1587  0.2070  0.1553
21777DOD     C3 9152  18.863   3.418   2.345  0.2724  0.4108  0.0276
21778DOD     C1 9153   0.598   2.140  26.673  0.1304 -0.3450  0.1838
21778DOD     C2 9154   0.850   2.483  26.899 -0.0323  0.3136 -0.1597
21778DOD     C3 9155   0.857   2.792  27.244 -0.1710  0.1243 -0.0394
21779DOD     C1 9156   6.313  25.559  27.557  0.0355  0.1152  0.0142
21779DOD     C2 9157   6.417  25.220  27.826  0.0224 -0.0711 -0.0798
21779DOD     C3 9158   6.470  25.003  28.217  0.0779 -0.0690 -0.0342
21780DOD     C1 9159   4.653  22.190  25.923  0.0998 -0.0420  0.0774
21780DOD     C2 9160   4.971  22.131  26.208  0.2017 -0.1213 -0.1228
21780DOD     C3 9161   5.177  22.148  26.628  0.2372 -0.3367 -0.0072
21781DOD     C1 9162   9.565   8.869   3.478  0.1605  0.3899  0.0137
21781DOD     C2 9163   9.227   8.897   3.753  0.1915  0.0980 -0.0553
21781DOD     C3 9164   9.370   8.954   4.215  0.0420 -0.0343  0.0569
21782DOD     C1 9165  29.019  27.965  13.574 -0.1382  0.1476 -0.0670
21782DOD     C2 9166  28.749  27.800  13.236  0.0253  0.0560 -0.2540
21782DOD     C3 9167  28.384  27.810  13.000  0.2797 -0.0322 -0.0134
21783DOD     C1 9168  20.318  14.221   0.059 -0.0440  0.0814 -0.2068
21783DOD     C2 9169  20.632  14.052  30.077 -0.1024 -0.3363  0.2294
21783DOD     C3 9170  21.114  14.028  30.091 -0.1806 -0.0621  0.1420
21784DOD     C1 9171  18.710  29.456  13.397 -0.0126 -0.2922 -0.0167
21784DOD     C2 9172  18.446  29.059  13.260 -0.0256  0.5099  0.0036
21784DOD     C3 9173  18.067  28.810  13.351 -0.0223 -0.2071  0.1405
21785DOD     C1 9174  23.710   3.977  27.848 -0.0248  0.0767  0.0193
21785DOD     C2 9175  23.587   4.374  27.716  0.0374 -0.2517 -0.3058
21785DOD     C3 9176  23.757   4.761  27.451  0.2376  0.1473 -0.1448
21786DOD     C1 9177  11.279  22.652   3.910 -0.2358 -0.0076 -0.0109
21786DOD     C2 9178  10.781  22.676   3.822  0.4323 -0.2402 -0.5401
21786DOD     C3 9179  10.316  22.464   3.874  0.0939 -0.1361 -0.0466
21787DOD     C1 9180   3.781   9.113   4.565 -0.3211 -0.1035  0.1000
21787DOD     C2 9181   4.172   9.003   4.851 -0.0385  0.1634  0.1374
21787DOD     C3 9182   4.225   9.004   5.293 -0.0241  0.0507 -0.1979
21788DOD     C1 9183  16.457   0.995  24.994  0.0007  0.2856 -0.1227
21788DOD     C2 9184  16.666   0.571  24.927 -0.2775 -0.2274  0.0579
21788DOD     C3 9185  16.634   0.108  24.827  0.1822 -0.3603  0.1707
21789DOD     C1 9186  25.518  17.228  22.060 -0.2113  0.1266  0.2625
21789DOD     C2 9187  25.301  16.990  22.379 -0.0386  0.3547  0.0547
21789DOD     C3 9188  25.090  16.836  22.809 -0.0966 -0.1274 -0.1718
21790DOD     C1 9189  14.002  19.176   1.433 -0.1814  0.0856 -0.0597
21790DOD     C2 9190  14.416  19.354   1.372  0.2123  0.5581 -0.0058
21790DOD     C3 9191  14.834  19.458   1.234 -0.0108  0.0079  0.0863
21791DOD     C1 9192   7.398  21.869  22.833  0.0427 -0.2699  0.0800
21791DOD     C2 9193   7.683  22.185  23.136  0.1761  0.1276 -0.0258
21791DOD     C3 9194   7.960  22.481  23.363 -0.2349 -0.1583 -0.0579
21792DOD     C1 9195  11.024   8.070   4.370 -0.0270  0.1126 -0.0184
21792DOD     C2 9196  10.565   8.243   4.507 -0.3024 -0.0657 -0.2678
21792DOD     C3 9197  10.196   8.497   4.660 -0.0521  0.2451  0.0834
21793DOD     C1 9198  16.627  28.112  14.238  0.0017  0.2689  0.0111
21793DOD     C2 9199  16.891  28.190  13.920 -0.1953  0.0197 -0.0868
21793DOD     C3 9200  17.026  28.297  13.506 -0.1181  0.0452  0.2793
21794DOD     C1 9201   7.034  25.174  10.945 -0.3183  0.3939 -0.1731
21794DOD     C2 9202   7.141  25.402  11.339  0.0887 -0.0079  0.1428
21794DOD     C3 9203   6.868  25.680  11.570 -0.0405 -0.0170 -0.1799
21795DOD     C1 9204   1.952  24.705   9.073 -0.0760  0.1061 -0.2135
21795DOD     C2 9205   2.058  24.733   8.660  0.0785 -0.0118  0.0231
21795DOD     C3 9206   2.346  24.581   8.333 -0.1219  0.1717 -0.1716
21796DOD     C1 9207  21.422   4.823   5.903  0.2660 -0.0684  0.0710
21796DOD     C2 9208  21.518   4.492   6.202 -0.0951  0.0164 -0.1172
21796DOD     C3 9209  21.651   4.429   6.654  0.0071  0.0099 -0.1534
21797DOD     C1 9210  13.889  17.016  27.683  0.0670 -0.1703 -0.1538
21797DOD     C2 9211  13.801  17.450  27.556 -0.2268 -0.0058  0.2682
21797DOD     C3 9212  13.471  17.830  27.527  0.1150  0.1049 -0.1445
21798DOD     C1 9213   1.940  12.966  29.939 -0.0731  0.1576 -0.0936
21798DOD     C2 9214   2.009  12.848  29.518 -0.0386 -0.1287 -0.2473
21798DOD     C3 9215   1.878  12.885  29.101  0.0781  0.0272 -0.0236
21799DOD     C1 9216   2.900  15.496  29.566 -0.2499 -0.0859  0.2176
21799DOD     C2 9217   3.166  15.244  29.868  0.2592 -0.0738 -0.0506
21799DOD     C3 9218   3.286  14.966  30.249 -0.0977 -0.0627  0.0731
21800DOD     C1 9219   5.123  23.158  19.465 -0.0260  0.3751 -0.1967
21800DOD     C2 9220   5.021  23.444  19.807  0.1158  0.0203  0.0355
21800DOD     C3 9221   5.310  23.734  20.045  0.2518  0.4600 -0.0820
21801DOD     C1 9222  22.373   8.188  29.873  0.0199  0.2175  0.1438
21801DOD     C2 9223  22.001   7.940  29.788  0.3487  0.0722 -0.1793
21801DOD     C3 9224  21.578   7.744  29.903 -0.1537  0.0254  0.1346
21802DOD     C1 9225   1.733  21.092   8.775  0.2583  0.0754  0.1888
21802DOD     C2 9226   1.686  21.500   8.686 -0.2244 -0.1261 -0.0163
21802DOD     C3 9227   1.982  21.850   8.619 -0.2289  0.3019  0.2185
21803DOD     C1 9228   0.089   9.659   2.870  0.1656  0.1929  0.2405
21803DOD     C2 9229   0.400   9.638   2.520 -0.0920  0.2037 -0.0648
21803DOD     C3 9230   0.739   9.910   2.389  0.0194  0.0379 -0.0082
21804DOD     C1 9231  26.614   7.584   8.931  0.1114 -0.0650 -0.0514
21804DOD     C2 9232  26.765   7.699   8.475  0.0963  0.1743 -0.2374
21804DOD     C3 9233  26.850   7.578   8.003  0.2465 -0.1262 -0.1699
21805DOD     C1 9234   5.625   9.825  11.482 -0.0741 -0.3979 -0.0479
21805DOD     C2 9235   6.041   9.733  11.302 -0.0955  0.0935 -0.2127
21805DOD     C3 9236   6.396   9.932  11.040 -0.2193  0.0542  0.1044
21806DOD     C1 9237  17.214  25.807   1.813 -0.0243  0.3127  0.3972
21806DOD     C2 9238  17.274  26.014   1.423  0.4054  0.1077 -0.0755
21806DOD     C3 9239  17.493  25.993   0.972 -0.0083 -0.0937 -0.1449
21807DOD     C1 9240  13.964   3.118   8.093 -0.0021 -0.1701  0.0164
21807DOD     C2 9241  13.771   3.144   8.568  0.0606 -0.3923  0.1316
21807DOD     C3 9242  13.418   3.209   8.908 -0.1793  0.0972 -0.1008
21808DOD     C1 9243  25.840  27.436   6.338  0.0218  0.0374 -0.0409
21808DOD     C2 9244  25.803  27.026   6.136 -0.0894  0.2222 -0.2088
21808DOD     C3 9245  25.964  26.557   6.178  0.1109  0.3803 -0.0449
21809DOD     C1 9246  26.537  22.796  16.661  0.1113 -0.2196  0.3237
21809DOD     C2 9247  26.301  22.551  16.977 -0.2580 -0.1108  0.0252
21809DOD     C3 9248  26.264  22.709  17.404  0.3671  0.2424 -0.0215
21810DOD     C1 9249  27.279  16.354  17.547 -0.1162  0.2656 -0.1823
21810DOD     C2 9250  26.852  16.297  17.693  0.2378 -0.0570 -0.0172
21810DOD     C3 9251  26.599  16.328  18.071  0.0018 -0.0393 -0.2980
21811DOD     C1 9252  17.418   9.787  20.247 -0.1437  0.3237 -0.0291
21811DOD     C2 9253  17.263  10.081  20.605  0.1449  0.0322 -0.0143
21811DOD     C3 9254  17.361  10.444  20.941  0.4680  0.0153 -0.1210
21812DOD     C1 9255  15.731   9.586  18.862  0.0766  0.1981 -0.2355
21812DOD     C2 9256  15.381   9.429  18.554  0.0551 -0.1899 -0.0949
21812DOD     C3 9257  14.936   9.640  18.506 -0.0197  0.0056  0.1381
21813DOD     C1 9258  19.050  23.772  27.730  0.1253  0.1000 -0.2477
21813DOD     C2 9259  19.051  23.594  28.142  0.0097  0.0886 -0.0433
21813DOD     C3 9260  18.735  23.462  28.459  0.1589 -0.0383  0.0182
21814DOD     C1 9261  11.071  16.156  18.650 -0.0145  0.1965 -0.1107
21814DOD     C2 9262  10.599  16.256  18.492  0.2019 -0.0769  0.3265
21814DOD     C3 9263  10.203  16.468  18.502  0.2852 -0.0517  0.2994
21815DOD     C1 9264  15.708  10.412  26.528 -0.1760  0.0811 -0.2469
21815DOD     C2 9265  15.358  10.527  26.795  0.2189 -0.0765 -0.1405
21815DOD     C3 9266  15.211  10.841  27.133 -0.1436 -0.0061  0.0293
21816DOD     C1 9267  16.401  12.774   4.217  0.3234  0.2628  0.0654
21816DOD     C2 9268  16.515  13.099   3.888 -0.4162  0.1381  0.3185
21816DOD     C3 9269  16.907  13.221   3.639 -0.0849  0.0778  0.1789
21817DOD     C1 9270  22.815  15.094  21.153 -0.4938  0.0442 -0.0298
21817DOD     C2 9271  22.539  15.486  21.252 -0.1656  0.0895 -0.3152
21817DOD     C3 9272  22.080  15.650  21.238 -0.0339  0.1538  0.0275
21818DOD     C1 9273   3.582   8.287  21.490  0.5002  0.0056 -0.1361
21818DOD     C2 9274   3.299   8.570  21.688 -0.1183  0.2192  0.2511
21818DOD     C3 9275   2.884   8.823  21.621  0.2084 -0.1549 -0.1787
21819DOD     C1 9276  19.105  23.714  24.559 -0.0736 -0.0256 -0.1830
21819DOD     C2 9277  18.982  24.214  24.537 -0.0141  0.0390 -0.1927
21819DOD     C3 9278  18.774  24.536  24.854  0.2154  0.1087  0.1154
21820DOD     C1 9279  25.500   5.666   0.963  0.2248  0.1980 -0.2276
21820DOD     C2 9280  25.696   5.656   1.397 -0.1505  0.0149  0.0316
21820DOD     C3 9281  26.112   5.624   1.490 -0.1151  0.2459 -0.0281
21821DOD     C1 9282   1.210   2.057  13.124  0.1567 -0.0951  0.3719
21821DOD     C2 9283   1.134   1.857  13.513  0.1548 -0.2792  0.2230
21821DOD     C3 9284   0.799   1.676  13.829 -0.1254 -0.0292 -0.1458
21822DOD     C1 9285  20.572   8.783  13.780 -0.0087 -0.1067  0.1009
21822DOD     C2 9286  20.889   9.022  14.033 -0.3341  0.4311  0.4532
21822DOD     C3 9287  20.851   8.951  14.500 -0.2089 -0.1472  0.2859
21823DOD     C1 9288  12.222  23.248  14.770  0.0651  0.1102 -0.2626
21823DOD     C2 9289  12.302  22.744  14.720  0.1793 -0.0748 -0.1919
21823DOD     C3 9290  12.221  22.331  14.585  0.2301  0.1115 -0.4661
21824DOD     C1 9291   2.858  21.512  21.097  0.3214 -0.1613  0.0580
21824DOD     C2 9292   3.171  21.676  21.432 -0.2513 -0.1200  0.2716
21824DOD     C3 9293   3.578  21.608  21.520 -0.0951 -0.2422 -0.0642
21825DOD     C1 9294  11.148  11.566  16.000  0.1249  0.0152 -0.2112
21825DOD     C2 9295  11.140  11.332  16.401 -0.2012  0.2063  0.0001
21825DOD     C3 9296  11.198  11.101  16.732  0.2262 -0.1797 -0.2023
21826DOD     C1 9297   1.957  29.445  27.930 -0.0070  0.2731  0.1776
21826DOD     C2 9298   2.272  29.070  28.036  0.1914 -0.0930  0.0096
21826DOD     C3 9299   2.631  29.166  28.348 -0.2726 -0.2090 -0.1318
21827DOD     C1 9300  19.308  15.198  28.999 -0.0035 -0.0945  0.0431
21827DOD     C2 9301  19.118  14.787  28.962  0.1179  0.2789  0.0906
21827DOD     C3 9302  19.317  14.454  28.771  0.0849 -0.2774  0.2490
21828DOD     C1 9303   3.618  18.099   4.872  0.0083 -0.0806 -0.2863
21828DOD     C2 9304   3.780  18.159   5.301 -0.0742 -0.2646  0.1781
21828DOD     C3 9305   3.862  18.366   5.712  0.1509 -0.0955  0.0249
21829DOD     C1 9306  15.663  19.715  23.555  0.0379 -0.0648 -0.0122
21829DOD     C2 9307  15.875  19.503  23.926  0.1954 -0.1805  0.1529
21829DOD     C3 9308  16.177  19.563  24.295  0.3697 -0.1591 -0.0212
21830DOD     C1 9309  30.249  26.635  14.620 -0.2195  0.1513 -0.1071
21830DOD     C2 9310  30.159  26.320  14.969  0.0132 -0.2346 -0.3595
21830DOD     C3 9311  30.021  25.903  14.826 -0.0866  0.0530  0.1482
21831DOD     C1 9312  19.570  12.535   6.990  0.0776  0.1816 -0.2237
21831DOD     C2 9313  19.865  12.456   7.398  0.0747 -0.0720  0.1701
21831DOD     C3 9314  20.293  12.515   7.498 -0.1479  0.2134 -0.3032
21832DOD     C1 9315  28.367  28.101   7.376  0.0016 -0.0354 -0.1664
21832DOD     C2 9316  28.749  27.860   7.612 -0.1390 -0.2088 -0.1766
21832DOD     C3 9317  28.943  27.529   7.856 -0.0992  0.0142  0.0140
21833DOD     C1 9318  20.119  14.531   7.075  0.1922  0.2959  0.0375
21833DOD     C2 9319  19.858  14.278   7.364  0.0826 -0.1720 -0.4181
21833DOD     C3 9320  20.098  13.938   7.485 -0.0858 -0.1337 -0.2910
21834DOD     C1 9321   3.554  25.452   0.510  0.2343  0.0906 -0.1755
21834DOD     C2 9322   3.087  25.513   0.613 -0.3373 -0.4289 -0.1806
21834DOD     C3 9323   2.673  25.361   0.765 -0.2266  0.2178  0.0554
21835DOD     C1 9324  12.597  24.170  16.552  0.0131 -0.0385 -0.0083
21835DOD     C2 9325  12.841  24.001  16.145  0.3201  0.2338  0.2779
21835DOD     C3 9326  13.271  23.908  16.030 -0.1024 -0.0686 -0.0480
21836DOD     C1 9327  10.472   1.255   4.951  0.0151  0.0905  0.1020
21836DOD     C2 9328  10.074   1.378   5.173 -0.2821 -0.2189  0.2416
21836DOD     C3 9329   9.880   1.368   5.583  0.0351 -0.1786  0.0963
21837DOD     C1 9330   7.839  18.965  19.272 -0.0264  0.1928 -0.1011
21837DOD     C2 9331   8.121  18.730  19.631  0.0684  0.0045  0.0440
21837DOD     C3 9332   8.274  18.331  19.891 -0.0409 -0.2233 -0.0198
21838DOD     C1 9333  29.960  28.666   8.598 -0.3890  0.0161 -0.1742
21838DOD     C2 9334  29.705  28.733   8.956 -0.0203  0.2889 -0.0927
21838DOD     C3 9335  29.257  28.834   8.993  0.0016 -0.1296 -0.1275
21839DOD     C1 9336   5.370  26.620   0.804  0.1594  0.1436 -0.3306
21839DOD     C2 9337   5.335  26.989   0.562  0.1463  0.0977  0.0493
21839DOD     C3 9338   5.635  27.261   0.355 -0.0448  0.2154  0.1140
21840DOD     C1 9339  13.040  18.861  21.736 -0.1230  0.0770 -0.0191
21840DOD     C2 9340  13.481  18.822  21.558  0.0850  0.2212 -0.4135
21840DOD     C3 9341  13.884  18.912  21.661  0.0200 -0.2620  0.1421
21841DOD     C1 9342  25.828   3.103  16.276  0.2466  0.1581 -0.2913
21841DOD     C2 9343  25.378   2.935  16.319  0.0919 -0.3378  0.1528
21841DOD     C3 9344  25.221   2.455  16.298 -0.0964  0.0787 -0.2472
21842DOD     C1 9345   9.740  10.385   5.169  0.1501 -0.1188 -0.0099
21842DOD     C2 9346   9.629   9.961   5.000 -0.0595  0.1293 -0.2037
21842DOD     C3 9347   9.321   9.677   5.254  0.0375 -0.0818  0.1470
21843DOD     C1 9348  19.762  28.052  11.996 -0.1420 -0.3924 -0.1502
21843DOD     C2 9349  20.025  27.718  11.785  0.2512 -0.4226  0.2783
21843DOD     C3 9350  20.379  27.529  11.431 -0.1514 -0.1130 -0.2186
21844DOD     C1 9351   6.767  20.937  15.092  0.0118 -0.0382  0.3209
21844DOD     C2 9352   6.996  21.235  14.793  0.0999 -0.2540 -0.4405
21844DOD     C3 9353   7.318  21.470  14.597  0.0798 -0.0203 -0.4432
21845DOD     C1 9354  16.483   5.100  15.799 -0.1314 -0.1130  0.0838
21845DOD     C2 9355  16.888   5.222  15.650  0.1177 -0.0584  0.2408
21845DOD     C3 9356  17.314   5.335  15.459 -0.0838  0.0185  0.0590
21846DOD     C1 9357   8.252  14.609  18.337  0.0249  0.0358 -0.1761
21846DOD     C2 9358   8.103  15.015  18.479 -0.0814 -0.1208  0.2282
21846DOD     C3 9359   8.248  15.360  18.745 -0.1089 -0.1847 -0.2517
21847DOD     C1 9360   9.428  16.001  15.988  0.1802 -0.1535  0.1312
21847DOD     C2 9361   9.309  16.377  15.677 -0.0533  0.0894 -0.2067
21847DOD     C3 9362   9.316  16.720  15.301 -0.4520 -0.0749 -0.0828
21848DOD     C1 9363  23.986  20.537  10.370  0.3113 -0.2464 -0.1193
21848DOD     C2 9364  24.041  20.324  10.748 -0.0854 -0.2403 -0.1492
21848DOD     C3 9365  24.418  20.182  11.000  0.0069 -0.0814  0.0991
21849DOD     C1 9366  28.549  10.231  14.407  0.1492  0.0435 -0.0106
21849DOD     C2 9367  28.627  10.348  13.959  0.0514  0.1046  0.0650
21849DOD     C3 9368  28.591  10.390  13.495 -0.0810  0.1012 -0.1841
21850DOD     C1 9369  21.699  24.644   0.266  0.2723  0.0301 -0.0735
21850DOD     C2 9370  21.630  24.166   0.365 -0.1361  0.2513 -0.0913
21850DOD     C3 9371  21.822  23.747   0.370  0.0207  0.0365  0.2278
21851DOD     C1 9372  29.509  25.853  25.221 -0.0836  0.0807 -0.1805
21851DOD     C2 9373  29.210  25.466  25.246  0.0702 -0.1280  0.2580
21851DOD     C3 9374  29.246  24.970  25.141 -0.1207  0.0779  0.2359
21852DOD     C1 9375   6.133  10.975  18.524 -0.1351  0.2787  0.0354
21852DOD     C2 9376   6.087  10.895  18.031 -0.0003 -0.3224  0.1182
21852DOD     C3 9377   5.832  10.793  17.689 -0.0769  0.3149 -0.1884
21853DOD     C1 9378  19.879  28.966  17.211  0.0690 -0.0059 -0.1240
21853DOD     C2 9379  19.840  28.547  17.427 -0.1884  0.2258  0.1416
21853DOD     C3 9380  20.263  28.266  17.461  0.2442 -0.2103  0.4036
21854DOD     C1 9381   3.525  25.404   9.394  0.0824  0.3907 -0.0544
21854DOD     C2 9382   3.945  25.457   9.559 -0.3129  0.0862 -0.1948
21854DOD     C3 9383   4.368  25.223   9.609  0.0683  0.0380 -0.4211
21855DOD     C1 9384   6.769  10.189  20.326  0.0718  0.0324 -0.2013
21855DOD     C2 9385   7.183  10.005  20.049 -0.0370  0.1957  0.3776
21855DOD     C3 9386   7.672   9.912  20.112  0.2920  0.3828 -0.4083
21856DOD     C1 9387   2.117   0.762  30.252 -0.2825  0.1049  0.0193
21856DOD     C2 9388   2.473   0.584  29.980  0.0600  0.0608 -0.2032
21856DOD     C3 9389   2.863   0.640  30.110 -0.0362 -0.3629 -0.1480
21857DOD     C1 9390   3.450  22.132  27.011 -0.4406  0.0553  0.2251
21857DOD     C2 9391   2.985  22.149  27.131  0.1243  0.0575 -0.2909
21857DOD     C3 9392   2.626  22.058  26.934 -0.2286 -0.2965  0.1722
21858DOD     C1 9393  21.826   1.449  25.248  0.0740  0.0527  0.0827
21858DOD     C2 9394  21.520   1.776  25.218 -0.3357  0.0940 -0.0542
21858DOD     C3 9395  21.085   1.988  25.193  0.1884  0.0164  0.2143
21859DOD     C1 9396  19.768  13.261  22.833  0.1279 -0.0475  0.1984
21859DOD     C2 9397  19.358  12.996  22.724  0.0718  0.0959 -0.2044
21859DOD     C3 9398  18.921  12.798  22.600  0.0904  0.2271  0.1648
21860DOD     C1 9399   7.712  29.218  10.355  0.1664 -0.2253  0.2148
21860DOD     C2 9400   7.858  29.043  10.748 -0.0939  0.0526 -0.2450
21860DOD     C3 9401   8.252  29.168  11.054  0.1850  0.1562 -0.1170
21861DOD     C1 9402  29.223   3.118  14.644 -0.2115  0.0293 -0.2478
21861DOD     C2 9403  28.953   2.966  14.315  0.4046  0.0481 -0.1182
21861DOD     C3 9404  28.762   3.011  13.894  0.0683 -0.0603  0.1424
21862DOD     C1 9405  17.367   3.067  12.365 -0.0023 -0.0067  0.0522
21862DOD     C2 9406  17.638   3.280  12.701  0.0233 -0.0250  0.2737
21862DOD     C3 9407  18.013   3.181  12.936  0.2378 -0.0389  0.1790
21863DOD     C1 9408   7.736  18.796   3.879  0.1530  0.0130 -0.1922
21863DOD     C2 9409   7.720  18.581   4.311  0.2282 -0.0937  0.1931
21863DOD     C3 9410   8.018  18.403   4.653  0.3229  0.0843 -0.1142
21864DOD     C1 9411  29.306  12.405  15.257 -0.0505  0.0588  0.2622
21864DOD     C2 9412  29.441  12.860  15.268  0.1816 -0.0494  0.2655
21864DOD     C3 9413  29.582  13.195  15.528 -0.3363  0.2820 -0.2095
21865DOD     C1 9414  12.714   4.426   2.601  0.0139  0.2981  0.0468
21865DOD     C2 9415  12.821   4.018   2.420  0.1774  0.1888  0.0586
21865DOD     C3 9416  12.813   3.556   2.322  0.0698  0.0078  0.1668
21866DOD     C1 9417   0.456   6.119   6.450 -0.0053 -0.0985  0.0978
21866DOD     C2 9418   0.721   5.820   6.272  0.2650 -0.2076 -0.1882
21866DOD     C3 9419   1.099   5.580   6.360 -0.0698  0.0769 -0.2592
21867DOD     C1 9420  16.159   2.788  18.974  0.0470 -0.0821 -0.0976
21867DOD     C2 9421  15.962   2.824  19.381  0.0359  0.0893  0.2224
21867DOD     C3 9422  15.754   2.533  19.757  0.2063  0.0041 -0.1856
21868DOD     C1 9423  20.697   0.547   8.275 -0.2431 -0.7592  0.2596
21868DOD     C2 9424  20.892   0.663   7.853  0.0652  0.0008  0.1138
21868DOD     C3 9425  20.760   0.929   7.493 -0.1260  0.3714  0.0758
21869DOD     C1 9426  24.389  14.664  11.661  0.0116 -0.1550  0.3839
21869DOD     C2 9427  24.855  14.642  11.500 -0.1251  0.0362 -0.1037
21869DOD     C3 9428  25.171  14.512  11.849  0.0073 -0.3506  0.0144
21870DOD     C1 9429  12.390  10.197  11.875 -0.0403 -0.0837  0.0621
21870DOD     C2 9430  12.710  10.096  12.210  0.2729 -0.0407  0.1825
21870DOD     C3 9431  13.011  10.408  12.355  0.0019  0.1359 -0.1215
21871DOD     C1 9432  25.472  23.836   7.754  0.0958  0.0768  0.1459
21871DOD     C2 9433  25.223  23.471   7.974 -0.0531  0.1174  0.0023
21871DOD     C3 9434  25.001  23.136   8.261 -0.0693 -0.2547  0.0755
21872DOD     C1 9435  21.686   4.639  15.379  0.0156 -0.1871 -0.1919
21872DOD     C2 9436  21.938   5.018  15.396 -0.0246  0.0595  0.4102
21872DOD     C3 9437  21.860   5.485  15.564 -0.1999  0.0040  0.1180
21873DOD     C1 9438   3.611  10.774   3.332  0.0271 -0.1203  0.0155
21873DOD     C2 9439   3.831  10.567   3.666 -0.0606  0.0528 -0.2097
21873DOD     C3 9440   3.964  10.105   3.800  0.4627 -0.1156 -0.1127
21874DOD     C1 9441  16.846  27.449  19.991  0.2366 -0.2618  0.1835
21874DOD     C2 9442  16.411  27.484  19.885  0.1609 -0.2106 -0.1563
21874DOD     C3 9443  16.052  27.396  19.561  0.2386  0.3423  0.0900
21875DOD     C1 9444   0.627  18.382   7.874 -0.0872  0.0182 -0.3922
21875DOD     C2 9445   0.864  18.569   8.221  0.2248  0.2046 -0.3989
21875DOD     C3 9446   1.135  18.975   8.178  0.0227 -0.0294 -0.0959
21876DOD     C1 9447  15.281   2.490   8.343 -0.0583 -0.1563  0.3505
21876DOD     C2 9448  15.203   2.430   8.821  0.0134  0.2245  0.3302
21876DOD     C3 9449  15.531   2.468   9.109  0.2369 -0.1525 -0.1588
21877DOD     C1 9450  18.327   7.693  22.501  0.1097  0.2218 -0.1723
21877DOD     C2 9451  18.752   7.878  22.340 -0.0451  0.0757 -0.3536
21877DOD     C3 9452  19.149   7.952  22.110 -0.4170  0.0737 -0.2760
21878DOD     C1 9453  27.458  22.514  19.187 -0.1991 -0.3368  0.1337
21878DOD     C2 9454  27.345  22.937  19.275  0.1301 -0.2100  0.0070
21878DOD     C3 9455  27.246  23.313  19.040  0.1407 -0.2107 -0.0168
21879DOD     C1 9456  15.392  14.810  24.709 -0.0335  0.0324  0.4057
21879DOD     C2 9457  15.650  15.169  24.720 -0.1025 -0.0024  0.2252
21879DOD     C3 9458  16.032  15.310  24.976  0.1126  0.0768  0.0788
21880DOD     C1 9459  24.295   4.991  13.673 -0.2141 -0.1797 -0.0331
21880DOD     C2 9460  24.240   4.782  14.076 -0.2435 -0.1280  0.4839
21880DOD     C3 9461  24.374   4.457  14.421  0.0376 -0.2851 -0.0796
21881DOD     C1 9462  27.903   5.481  23.403  0.1385 -0.0531 -0.1195
21881DOD     C2 9463  28.001   5.648  23.856  0.0622 -0.3315  0.0150
21881DOD     C3 9464  27.774   5.950  24.158  0.0955  0.0521 -0.0856
21882DOD     C1 9465   9.484   6.504  17.323  0.6521  0.1075  0.2085
21882DOD     C2 9466   9.794   6.712  17.712 -0.2566  0.1820  0.2676
21882DOD     C3 9467  10.146   7.065  17.806  0.0609  0.0774 -0.1108
21883DOD     C1 9468   5.432  19.791  11.479  0.1609 -0.1090 -0.0503
21883DOD     C2 9469   5.032  19.962  11.195  0.1369  0.0153  0.2356
21883DOD     C3 9470   4.561  19.974  11.242 -0.1164  0.1886  0.2834
21884DOD     C1 9471   9.264  26.219   4.781 -0.0219 -0.0079  0.1265
21884DOD     C2 9472   9.028  26.578   4.914  0.0859  0.1051 -0.1275
21884DOD     C3 9473   8.834  26.977   4.966  0.0138  0.0657  0.1394
21885DOD     C1 9474  26.084   8.886  16.546 -0.0971 -0.0628  0.1294
21885DOD     C2 9475  26.365   9.128  16.214  0.0782  0.0955 -0.0894
21885DOD     C3 9476  26.722   9.479  16.184  0.1264  0.1100  0.3913
21886DOD     C1 9477  20.213  18.942  10.713 -0.1105  0.0741 -0.0559
21886DOD     C2 9478  20.372  18.788  10.334 -0.1382  0.2882  0.0729
21886DOD     C3 9479  20.464  18.355  10.149  0.1707 -0.1661 -0.1883
21887DOD     C1 9480  20.444  10.594   1.354  0.1579  0.4633  0.0048
21887DOD     C2 9481  20.151  10.436   1.022 -0.0576 -0.1648  0.3417
21887DOD     C3 9482  19.725  10.574   0.843  0.5615 -0.3447 -0.1774
21888DOD     C1 9483  29.916  20.703  28.485 -0.0691 -0.2023  0.0337
21888DOD     C2 9484  29.727  20.411  28.772  0.0511 -0.2841  0.2195
21888DOD     C3 9485  29.387  20.196  28.762 -0.0399 -0.0018  0.0385
21889DOD     C1 9486  18.494  21.459  18.510 -0.0059 -0.0801 -0.1932
21889DOD     C2 9487  18.580  21.004  18.615 -0.3182 -0.1130 -0.0419
21889DOD     C3 9488  18.763  20.830  19.008 -0.1462 -0.0145  0.1884
21890DOD     C1 9489  20.033  13.842  18.573  0.1616 -0.2066 -0.2283
21890DOD     C2 9490  20.495  13.836  18.591  0.0401 -0.2303  0.0533
21890DOD     C3 9491  20.882  13.749  18.715 -0.2364 -0.0609 -0.0093
21891DOD     C1 9492  19.771  24.763  22.942  0.1279  0.1567  0.1213
21891DOD     C2 9493  19.949  25.089  23.213 -0.0229 -0.0098 -0.2893
21891DOD     C3 9494  20.224  25.180  23.572  0.0473  0.0253 -0.0791
21892DOD     C1 9495   5.018  25.002  13.971 -0.0576 -0.1224 -0.0213
21892DOD     C2 9496   4.631  24.881  14.205 -0.3437 -0.2923 -0.1205
21892DOD     C3 9497   4.176  24.840  14.051 -0.1682  0.3119 -0.1349
21893DOD     C1 9498  13.677  28.644  17.494  0.1850  0.1965 -0.0539
21893DOD     C2 9499  13.801  28.842  17.075  0.0592 -0.1189  0.2062
21893DOD     C3 9500  13.826  28.613  16.679  0.0290  0.1327 -0.0682
21894DOD     C1 9501   8.027   4.965  16.396  0.1313  0.1898  0.0321
21894DOD     C2 9502   8.222   4.960  16.784 -0.0665  0.0483 -0.3034
21894DOD     C3 9503   8.380   4.668  17.128  0.3757 -0.2248  0.1814
21895DOD     C1 9504  27.839  20.705  16.150  0.0810  0.0635  0.2819
21895DOD     C2 9505  28.236  20.778  15.971  0.2372  0.2902  0.2556
21895DOD     C3 9506  28.441  20.659  15.571  0.2921  0.0780  0.1519
21896DOD     C1 9507  23.126  18.680  27.918 -0.4133 -0.0483  0.0764
21896DOD     C2 9508  22.859  18.586  28.170 -0.2137  0.1977  0.3514
21896DOD     C3 9509  22.394  18.511  28.190  0.0090  0.2856  0.0183
21897DOD     C1 9510   7.828  22.610   2.091  0.0313  0.1029  0.1534
21897DOD     C2 9511   7.652  22.208   2.247  0.3895  0.0118 -0.2068
21897DOD     C3 9512   7.437  21.823   2.190 -0.3811 -0.0347  0.0604
21898DOD     C1 9513  12.822  20.644   2.178 -0.1407 -0.2292  0.0054
21898DOD     C2 9514  13.013  21.046   1.929 -0.0407 -0.0148 -0.1139
21898DOD     C3 9515  13.399  21.313   1.879 -0.1146  0.2328  0.0550
21899DOD     C1 9516  27.053  13.244  26.108 -0.1449  0.1080 -0.1414
21899DOD     C2 9517  26.683  13.412  26.401  0.1108  0.2964  0.2786
21899DOD     C3 9518  26.225  13.287  26.407 -0.2079 -0.1120 -0.1077
21900DOD     C1 9519  14.735  16.601  18.888 -0.0653  0.0833 -0.2947
21900DOD     C2 9520  14.584  17.008  19.080  0.5730  0.1993 -0.1000
21900DOD     C3 9521  14.810  17.375  19.236 -0.0176  0.3083 -0.3234
21901DOD     C1 9522  26.534   0.686  24.720  0.0400  0.0874 -0.4553
21901DOD     C2 9523  26.141   0.815  24.930  0.2872 -0.0156 -0.1365
21901DOD     C3 9524  25.671   0.859  25.065 -0.0280 -0.0989 -0.1537
21902DOD     C1 9525   9.608  14.691  22.366 -0.0309 -0.1361 -0.0873
21902DOD     C2 9526   9.948  14.489  22.084 -0.0717 -0.0823 -0.0043
21902DOD     C3 9527   9.998  14.018  21.980 -0.0784 -0.1151 -0.1108
21903DOD     C1 9528   3.882  20.942  17.879  0.0080  0.2877 -0.1153
21903DOD     C2 9529   3.941  21.071  18.350 -0.1111  0.0710 -0.0364
21903DOD     C3 9530   3.829  21.511  18.521 -0.1359  0.0964  0.2054
21904DOD     C1 9531  25.607  25.941  10.905 -0.3246 -0.1470  0.2424
21904DOD     C2 9532  25.870  26.381  10.985 -0.1850 -0.0488 -0.0334
21904DOD     C3 9533  25.974  26.856  10.981 -0.0739  0.0553  0.2283
21905DOD     C1 9534  21.119  25.616   6.025  0.0350 -0.0724  0.0604
21905DOD     C2 9535  20.950  25.680   5.611  0.4307 -0.0814  0.3110
21905DOD     C3 9536  20.520  25.826   5.504  0.0689 -0.0174 -0.0581
21906DOD     C1 9537  27.076  26.003   6.046 -0.0125  0.1521 -0.5033
21906DOD     C2 9538  27.352  26.324   6.331 -0.0559 -0.3247  0.0303
21906DOD     C3 9539  27.282  26.787   6.355 -0.5768 -0.0375  0.2051
21907DOD     C1 9540   1.801  14.829  13.677  0.2244 -0.1125 -0.1168
21907DOD     C2 9541   2.136  14.985  13.984  0.1758  0.0588 -0.3179
21907DOD     C3 9542   2.530  15.248  13.979  0.2397 -0.0220  0.0847
21908DOD     C1 9543  25.071  11.418   1.267 -0.2905  0.0880  0.0030
21908DOD     C2 9544  25.513  11.478   1.368 -0.1535 -0.2259  0.0834
21908DOD     C3 9545  25.904  11.692   1.428 -0.1197 -0.1854 -0.1379
21909DOD     C1 9546   5.552  27.953   4.144  0.0856 -0.2963  0.0272
21909DOD     C2 9547   5.218  27.710   4.324 -0.3616 -0.3961  0.1071
21909DOD     C3 9548   4.942  27.485   4.590  0.1103  0.0870  0.3407
21910DOD     C1 9549  25.952  14.581  27.635  0.1522  0.2571 -0.2627
21910DOD     C2 9550  26.376  14.340  27.730  0.0187 -0.1754 -0.2615
21910DOD     C3 9551  26.810  14.377  27.854  0.3906  0.1609 -0.4915
21911DOD     C1 9552   9.805   5.295  20.001 -0.0098  0.4102  0.0436
21911DOD     C2 9553   9.372   5.061  19.953 -0.5244 -0.2723  0.0808
21911DOD     C3 9554   8.973   4.934  19.811 -0.2690  0.0285 -0.1770
21912DOD     C1 9555  22.885   9.031  17.633  0.2774 -0.0438  0.0322
21912DOD     C2 9556  23.337   8.913  17.769 -0.0661 -0.0577  0.5487
21912DOD     C3 9557  23.704   8.888  18.083  0.2382  0.0276 -0.3974
21913DOD     C1 9558   9.524  29.804  10.745  0.1268  0.1786 -0.0917
21913DOD     C2 9559   9.715  29.410  10.597  0.1782 -0.0193 -0.4829
21913DOD     C3 9560   9.790  29.169  10.179 -0.0563  0.1611 -0.0758
21914DOD     C1 9561   1.898  29.119  22.781  0.0519  0.2383  0.0195
21914DOD     C2 9562   1.838  29.062  23.278  0.0906 -0.2088 -0.0941
21914DOD     C3 9563   2.108  29.071  23.650  0.1407  0.0108 -0.2831
21915DOD     C1 9564   0.641   6.568  13.944  0.0684  0.3107 -0.1320
21915DOD     C2 9565   0.537   6.978  14.132  0.0699 -0.0761 -0.0977
21915DOD     C3 9566   0.787   7.358  14.286 -0.1488  0.0940 -0.0675
21916DOD     C1 9567  16.042  10.838  10.791  0.2394  0.2158  0.4043
21916DOD     C2 9568  16.001  10.352  10.569  0.0081  0.1371 -0.2322
21916DOD     C3 9569  16.008  10.305  10.107 -0.0116 -0.0493 -0.0920
21917DOD     C1 9570  24.159   7.666  13.614 -0.5195  0.4519 -0.0221
21917DOD     C2 9571  24.436   7.449  13.927 -0.0334 -0.2088 -0.0818
21917DOD     C3 9572  24.712   7.272  14.231  0.1161 -0.1140  0.0525
21918DOD     C1 9573  23.223  -0.007   1.896 -0.2873 -0.2424 -0.1731
21918DOD     C2 9574  23.489  30.029   1.706 -0.1989  0.0465 -0.0272
21918DOD     C3 9575  23.373  29.644   1.466 -0.0581 -0.0875 -0.0323
21919DOD     C1 9576  28.744  14.105  22.436 -0.1281  0.0148  0.0944
21919DOD     C2 9577  29.207  14.216  22.434  0.5235  0.2596  0.1703
21919DOD     C3 9578  29.633  13.992  22.445 -0.1629 -0.1535 -0.0473
21920DOD     C1 9579  25.256   1.346  14.583 -0.1475 -0.2171 -0.0448
21920DOD     C2 9580  25.014   0.985  14.616 -0.0009  0.2712  0.1673
21920DOD     C3 9581  24.833   0.613  14.822  0.3127  0.0342 -0.3591
21921DOD     C1 9582  11.429  23.820  28.940 -0.0597 -0.2427 -0.0244
21921DOD     C2 9583  11.411  24.031  28.475  0.0507  0.2365  0.1317
21921DOD     C3 9584  11.152  24.372  28.309  0.1539 -0.2196 -0.0047
21922DOD     C1 9585  25.600  25.956  14.044 -0.0462  0.0933 -0.0849
21922DOD     C2 9586  25.703  26.437  14.037  0.1057 -0.0547 -0.0285
21922DOD     C3 9587  25.392  26.778  14.103 -0.2351 -0.2420  0.3941
21923DOD     C1 9588   7.561   0.851   6.463 -0.1759  0.1003  0.1708
21923DOD     C2 9589   7.220   1.068   6.337 -0.0508 -0.2839 -0.0640
21923DOD     C3 9590   6.787   0.967   6.259  0.1111 -0.0701 -0.0570
21924DOD     C1 9591  22.652   4.966   1.736  0.1941 -0.0843  0.0834
21924DOD     C2 9592  22.861   4.718   2.099  0.0649 -0.3031  0.1458
21924DOD     C3 9593  22.777   4.457   2.450 -0.2508 -0.1887 -0.2366
21925DOD     C1 9594  16.582   2.377  26.026  0.0099  0.2215  0.1313
21925DOD     C2 9595  16.231   2.506  26.261 -0.0912  0.0133 -0.0872
21925DOD     C3 9596  15.816   2.589  26.364  0.0433 -0.0490 -0.0486
21926DOD     C1 9597  19.950  20.663   8.943  0.1100 -0.0572 -0.1906
21926DOD     C2 9598  20.024  20.421   9.393 -0.0201  0.0342  0.1533
21926DOD     C3 9599  20.331  20.426   9.746 -0.0667  0.0540  0.0721
21927DOD     C1 9600   3.161  20.803  26.422  0.1490 -0.2166  0.0663
21927DOD     C2 9601   3.593  20.774  26.631  0.0911 -0.1617 -0.1396
21927DOD     C3 9602   3.719  20.553  26.997  0.1502  0.0319  0.0992
21928DOD     C1 9603   4.478  19.159   8.048 -0.1113 -0.0503  0.3000
21928DOD     C2 9604   4.779  19.038   8.408  0.0136 -0.2094 -0.0223
21928DOD     C3 9605   5.214  19.252   8.582 -0.1178 -0.2087  0.0868
21929DOD     C1 9606   8.293   5.958   1.260  0.2009 -0.0160  0.0943
21929DOD     C2 9607   8.457   5.698   1.609 -0.1444 -0.2005 -0.1312
21929DOD     C3 9608   8.439   5.618   2.089 -0.3158 -0.1388 -0.5009
21930DOD     C1 9609  20.441  29.143   4.051  0.6007  0.1145  0.0021
21930DOD     C2 9610  19.939  29.139   4.081  0.0971  0.0006 -0.0073
21930DOD     C3 9611  19.597  29.068   4.434 -0.4371  0.1245  0.1363
21931DOD     C1 9612  11.520  27.384  25.802 -0.0003 -0.1088 -0.2113
21931DOD     C2 9613  11.743  27.810  25.863  0.1335  0.1343  0.0336
21931DOD     C3 9614  12.096  28.018  25.977 -0.2681  0.0586 -0.1198
21932DOD     C1 9615   4.718  16.340  19.790 -0.4944  0.0833 -0.1249
21932DOD     C2 9616   4.388  16.518  20.055 -0.4968  0.1877 -0.0504
21932DOD     C3 9617   4.165  16.523  20.460 -0.2964  0.2017  0.0054
21933DOD     C1 9618  11.633  20.653  13.724 -0.1120 -0.2227  0.3044
21933DOD     C2 9619  11.388  20.339  13.423  0.3477 -0.0658  0.1184
21933DOD     C3 9620  11.250  20.421  12.960  0.1549 -0.0016  0.1491
21934DOD     C1 9621  14.696  18.095  20.385  0.1210 -0.0680  0.1335
21934DOD     C2 9622  14.717  18.061  20.841  0.1283 -0.0901  0.2862
21934DOD     C3 9623  14.773  17.885  21.261 -0.2342  0.3089  0.1655
21935DOD     C1 9624  17.907   3.128   1.059 -0.0320 -0.1086 -0.3723
21935DOD     C2 9625  17.936   2.809   0.797 -0.0786  0.0350 -0.0976
21935DOD     C3 9626  17.845   2.485   0.562  0.0528 -0.1930  0.0788
21936DOD     C1 9627  15.537   5.276  23.624  0.0067  0.2090 -0.0834
21936DOD     C2 9628  15.921   5.173  23.886 -0.1566 -0.1227  0.1017
21936DOD     C3 9629  16.262   5.489  23.934  0.1443 -0.2830  0.1682
21937DOD     C1 9630  23.812   3.203  10.112  0.2362  0.1601  0.0995
21937DOD     C2 9631  23.913   3.457  10.518  0.1769 -0.3427 -0.0551
21937DOD     C3 9632  23.836   3.404  10.985  0.0913  0.0113 -0.0318
21938DOD     C1 9633  26.713  23.553  22.415 -0.0090  0.0189  0.1192
21938DOD     C2 9634  26.570  24.022  22.361 -0.2965  0.2431  0.1078
21938DOD     C3 9635  26.205  24.385  22.381  0.0045  0.3680  0.0710
21939DOD     C1 9636  26.550   1.937  27.848  0.3438  0.0708  0.2724
21939DOD     C2 9637  26.764   2.246  28.031  0.1268  0.0445 -0.1434
21939DOD     C3 9638  26.996   2.435  28.357 -0.1674 -0.5006 -0.2223
21940DOD     C1 9639   8.994  17.519   2.153 -0.0984 -0.1555 -0.0986
21940DOD     C2 9640   9.438  17.540   2.005 -0.1869 -0.1308  0.2550
21940DOD     C3 9641   9.830  17.224   1.922 -0.0201  0.1880  0.0033
21941DOD     C1 9642   8.749   0.995  18.538  0.0237 -0.2286  0.0342
21941DOD     C2 9643   8.640   1.151  18.898 -0.0090  0.0257 -0.1230
21941DOD     C3 9644   8.709   1.605  19.093  0.1742 -0.3742  0.3613
21942DOD     C1 9645   5.205  26.715  25.417 -0.2919  0.0100  0.0570
21942DOD     C2 9646   5.022  26.251  25.496 -0.0819  0.1107  0.0791
21942DOD     C3 9647   5.115  25.780  25.624 -0.1156  0.0712 -0.1036
21943DOD     C1 9648  17.370  21.547  16.709 -0.0090 -0.1141 -0.0471
21943DOD     C2 9649  16.956  21.445  16.967 -0.1513 -0.1358  0.1843
21943DOD     C3 9650  16.691  21.253  17.337  0.3379 -0.0146  0.1174
21944DOD     C1 9651   3.886  26.631   4.406 -0.1378 -0.2920 -0.1474
21944DOD     C2 9652   3.977  26.237   4.141 -0.0538  0.1122  0.4015
21944DOD     C3 9653   4.266  25.896   4.121  0.1597  0.3253  0.0363
21945DOD     C1 9654   7.309   1.253   4.576 -0.4425 -0.2954 -0.2365
21945DOD     C2 9655   6.870   1.303   4.722  0.1143 -0.0045  0.0095
21945DOD     C3 9656   6.412   1.286   4.755 -0.1102  0.3082 -0.2258
21946DOD     C1 9657   8.312   8.912   3.786 -0.1936  0.3664  0.1654
21946DOD     C2 9658   8.228   8.413   3.728 -0.1163  0.0039  0.0089
21946DOD     C3 9659   7.950   8.031   3.683 -0.2824  0.1682 -0.0526
21947DOD     C1 9660  19.829  26.141  16.758 -0.0767 -0.2817  0.0353
21947DOD     C2 9661  19.953  26.337  16.345 -0.1546 -0.1107  0.4047
21947DOD     C3 9662  19.834  26.145  15.944  0.1279  0.1213 -0.3728
21948DOD     C1 9663  16.407   1.129  26.875 -0.4122  0.0477 -0.0030
21948DOD     C2 9664  16.841   1.224  27.034  0.0732 -0.0002  0.0568
21948DOD     C3 9665  17.134   0.978  27.309  0.0537 -0.0828  0.0322
21949DOD     C1 9666  24.153  15.418  17.694  0.1750  0.1401 -0.2434
21949DOD     C2 9667  24.533  15.623  17.567  0.1540  0.1207  0.0302
21949DOD     C3 9668  24.910  15.620  17.838  0.1309  0.2387  0.2020
21950DOD     C1 9669   3.398  16.806  12.781 -0.0392 -0.1424 -0.1061
21950DOD     C2 9670   3.788  16.496  12.723 -0.0514  0.2210  0.1123
21950DOD     C3 9671   4.277  16.519  12.640  0.0294 -0.3848  0.0398
21951DOD     C1 9672   7.428   3.067   8.752  0.0002 -0.3310  0.0225
21951DOD     C2 9673   7.185   2.746   9.062  0.0598  0.2097 -0.1203
21951DOD     C3 9674   7.237   2.761   9.511 -0.2069 -0.1611 -0.1897
21952DOD     C1 9675  20.092  17.452   0.185  0.0903 -0.0468  0.0881
21952DOD     C2 9676  19.955  17.630   0.529  0.1704 -0.3160  0.0114
21952DOD     C3 9677  20.016  17.960   0.921 -0.2499 -0.2187 -0.0484
21953DOD     C1 9678   0.410  21.285  21.670  0.1170  0.2135 -0.0168
21953DOD     C2 9679   0.860  21.257  21.728 -0.0181  0.1584 -0.1410
21953DOD     C3 9680   1.231  21.484  21.683  0.2215 -0.0210 -0.0522
21954DOD     C1 9681  13.462   9.313   5.841 -0.1352 -0.0490 -0.0151
21954DOD     C2 9682  13.552   9.159   5.457 -0.1123 -0.0920 -0.1816
21954DOD     C3 9683  13.196   8.904   5.310  0.1848  0.2496 -0.3122
21955DOD     C1 9684   4.249   1.474  17.787 -0.1160 -0.0608 -0.0294
21955DOD     C2 9685   4.608   1.748  17.873  0.1972 -0.2401  0.0336
21955DOD     C3 9686   4.872   1.968  18.257  0.2725 -0.0437 -0.2710
21956DOD     C1 9687  19.721  18.255   2.960 -0.0128  0.2984 -0.3355
21956DOD     C2 9688  19.371  18.007   2.754  0.0508  0.1207  0.0264
21956DOD     C3 9689  18.933  18.094   2.786  0.0565 -0.2049 -0.0559
21957DOD     C1 9690  22.210  19.198   2.818 -0.0036 -0.2207  0.1189
21957DOD     C2 9691  22.443  19.519   2.711  0.0073  0.0892  0.0738
21957DOD     C3 9692  22.617  19.912   2.469 -0.2221  0.1061  0.1251
21958DOD     C1 9693  17.684   4.310  18.185  0.0464  0.0256 -0.0006
21958DOD     C2 9694  17.312   4.634  18.258 -0.0892 -0.0199 -0.0020
21958DOD     C3 9695  17.396   5.048  18.506  0.0135 -0.2003  0.1784
21959DOD     C1 9696  25.243  19.206   7.833  0.2682  0.1399 -0.0422
21959DOD     C2 9697  25.468  19.020   7.455 -0.0805  0.2158  0.0579
21959DOD     C3 9698  25.415  18.638   7.211 -0.0619  0.0418  0.1048
21960DOD     C1 9699   0.097  16.959  11.424 -0.1621 -0.0362 -0.1577
21960DOD     C2 9700   0.290  16.579  11.492 -0.1150 -0.0991  0.2560
21960DOD     C3 9701   0.652  16.319  11.482  0.0792  0.2034 -0.0979
21961DOD     C1 9702   7.379  20.015  10.220 -0.1158 -0.0845  0.0970
21961DOD     C2 9703   7.757  20.234  10.353 -0.1870 -0.0154 -0.1330
21961DOD     C3 9704   8.186  20.436  10.306  0.0217  0.2667 -0.1029
21962DOD     C1 9705  19.817  14.147  16.227 -0.0455  0.0387 -0.1119
21962DOD     C2 9706  19.796  14.483  16.519 -0.2424  0.1760 -0.0039
21962DOD     C3 9707  19.882  14.887  16.757  0.3056 -0.0216 -0.0811
21963DOD     C1 9708  13.992   6.988   3.579 -0.0461 -0.0419  0.1433
21963DOD     C2 9709  13.587   6.894   3.835 -0.1769  0.3792  0.0868
21963DOD     C3 9710  13.494   7.074   4.231 -0.1837  0.4825 -0.2545
21964DOD     C1 9711  12.339   9.640   0.667 -0.0348  0.0809  0.2322
21964DOD     C2 9712  12.722   9.788   0.553 -0.0514  0.0276  0.0900
21964DOD     C3 9713  13.186   9.695   0.520  0.1164 -0.0795 -0.0371
21965DOD     C1 9714   9.784  18.290  22.904 -0.0492  0.0898 -0.1673
21965DOD     C2 9715   9.428  18.350  22.605  0.2639 -0.1122  0.0256
21965DOD     C3 9716   9.017  18.203  22.517  0.2253 -0.1933 -0.2437
21966DOD     C1 9717  29.979  26.947   4.824 -0.0347  0.0762 -0.0651
21966DOD     C2 9718  30.003  27.319   5.139 -0.0511 -0.3118 -0.0236
21966DOD     C3 9719  30.174  27.513   5.491 -0.3084  0.0438  0.1254
21967DOD     C1 9720  26.542  26.812  18.522 -0.1442 -0.0654 -0.0506
21967DOD     C2 9721  26.200  26.450  18.431 -0.0287 -0.3477 -0.0287
21967DOD     C3 9722  25.813  26.420  18.187 -0.1849  0.0395  0.0434
21968DOD     C1 9723  20.550  13.940  24.875  0.0354 -0.1310 -0.0229
21968DOD     C2 9724  20.408  14.326  25.080 -0.0822  0.1067  0.4534
21968DOD     C3 9725  20.534  14.742  25.338 -0.0310  0.0137 -0.0603
21969DOD     C1 9726  30.207  13.533  24.901 -0.1658 -0.2867  0.2853
21969DOD     C2 9727  29.983  13.178  25.048 -0.2111  0.2782 -0.0343
21969DOD     C3 9728  29.586  13.140  25.336  0.0283  0.1600 -0.1183
21970DOD     C1 9729  10.451  21.587  11.496 -0.0581 -0.2775 -0.0882
21970DOD     C2 9730  10.840  21.656  11.749 -0.1536 -0.0262 -0.0482
21970DOD     C3 9731  10.931  21.578  12.184  0.1891 -0.0399  0.0744
21971DOD     C1 9732  21.753  29.734   0.088 -0.0775  0.1206 -0.1267
21971DOD     C2 9733  21.923  30.015  30.156 -0.0803  0.0704 -0.0435
21971DOD     C3 9734  21.810   0.099  29.958  0.3171 -0.1145 -0.1549
21972DOD     C1 9735  26.267  11.457  21.313 -0.1056 -0.2053 -0.2216
21972DOD     C2 9736  25.911  11.750  21.218 -0.0203  0.5573 -0.2380
21972DOD     C3 9737  25.443  11.816  21.148  0.0911  0.1208 -0.0533
21973DOD     C1 9738  17.555  12.584  14.302  0.3564 -0.0059 -0.1812
21973DOD     C2 9739  17.966  12.368  14.190 -0.4196 -0.1489 -0.0936
21973DOD     C3 9740  17.852  12.040  13.888  0.0456 -0.0556 -0.0050
21974DOD     C1 9741  22.186   1.099  20.586  0.1783 -0.0789 -0.4255
21974DOD     C2 9742  22.452   1.234  20.265 -0.0781 -0.1836  0.1182
21974DOD     C3 9743  22.555   1.564  19.993 -0.4171  0.3111  0.1103
21975DOD     C1 9744   3.897  23.176  15.059  0.1527  0.2082 -0.1495
21975DOD     C2 9745   3.505  23.022  14.792  0.1340  0.3997  0.1311
21975DOD     C3 9746   3.273  22.820  14.460 -0.0812 -0.0755 -0.0039
21976DOD     C1 9747  25.393   1.807  29.399  0.1014  0.0327  0.3453
21976DOD     C2 9748  25.688   1.610  29.041 -0.0032  0.0633 -0.0248
21976DOD     C3 9749  26.045   1.543  28.747  0.0199 -0.1046  0.4122
21977DOD     C1 9750  20.115  25.508  11.263 -0.3223  0.0739  0.1835
21977DOD     C2 9751  19.817  25.543  10.905 -0.2326 -0.1115 -0.0497
21977DOD     C3 9752  19.430  25.572  10.632  0.1516 -0.0323  0.2264
21978DOD     C1 9753  17.873  24.308  16.864  0.0825  0.1397 -0.2190
21978DOD     C2 9754  17.524  24.294  17.133 -0.1415  0.0784  0.4025
21978DOD     C3 9755  17.410  24.706  17.336  0.0015  0.3168  0.0570
21979DOD     C1 9756   8.836  26.682  14.097  0.0988 -0.0668 -0.1348
21979DOD     C2 9757   8.348  26.746  14.002  0.0211 -0.2438 -0.0258
21979DOD     C3 9758   7.948  26.546  13.879 -0.0283  0.3242  0.0229
21980DOD     C1 9759   4.259  29.189  13.429 -0.2168  0.2368  0.1679
21980DOD     C2 9760   4.715  29.165  13.577 -0.0069  0.0078 -0.2092
21980DOD     C3 9761   5.165  29.138  13.706  0.0122  0.0154  0.0872
21981DOD     C1 9762  13.443  11.668  19.027  0.0739 -0.0669  0.1746
21981DOD     C2 9763  13.059  11.410  19.159 -0.2217  0.0270 -0.2841
21981DOD     C3 9764  12.760  11.104  18.973  0.0290  0.0538 -0.1680
21982DOD     C1 9765   5.618  16.120  19.877  0.0279  0.0499  0.0959
21982DOD     C2 9766   5.966  16.073  19.575 -0.0192 -0.0452  0.0206
21982DOD     C3 9767   6.195  16.317  19.270  0.1867  0.0399  0.1405
21983DOD     C1 9768   8.834  22.785   6.564  0.0651  0.1557  0.0661
21983DOD     C2 9769   8.881  23.248   6.668  0.0321 -0.0856  0.2404
21983DOD     C3 9770   8.688  23.714   6.485  0.0002  0.2561 -0.1785
21984DOD     C1 9771  23.606  21.886   4.752 -0.1031 -0.0815  0.0061
21984DOD     C2 9772  23.398  22.261   4.968 -0.1574  0.2521 -0.1625
21984DOD     C3 9773  23.427  22.536   5.274 -0.1064 -0.0223 -0.2953
21985DOD     C1 9774  30.152  14.727  11.138  0.1130  0.2552 -0.0758
21985DOD     C2 9775   0.034  15.126  10.920  0.1117 -0.1894 -0.1177
21985DOD     C3 9776   0.365  15.468  10.934  0.0932 -0.2583 -0.0721
21986DOD     C1 9777  12.135  12.271  23.369 -0.2039 -0.0406 -0.1046
21986DOD     C2 9778  12.078  11.831  23.604  0.4225  0.3253 -0.1205
21986DOD     C3 9779  12.223  11.425  23.562  0.0100  0.0416 -0.0805
21987DOD     C1 9780  17.206  12.200  12.518 -0.0665  0.0782  0.1058
21987DOD     C2 9781  17.224  12.238  12.071  0.0170 -0.3070  0.2032
21987DOD     C3 9782  17.325  12.303  11.640  0.5352  0.3804 -0.2063
21988DOD     C1 9783  16.981   6.402   9.771 -0.1861 -0.1728  0.1523
21988DOD     C2 9784  16.950   6.538  10.214 -0.1782  0.0694 -0.2679
21988DOD     C3 9785  16.632   6.497  10.547  0.0644  0.0232  0.1223
21989DOD     C1 9786   4.449  22.161   9.579 -0.0387 -0.2543 -0.0250
21989DOD     C2 9787   4.700  21.721   9.382 -0.0290 -0.0285 -0.1562
21989DOD     C3 9788   5.064  21.385   9.450 -0.1692 -0.3145  0.1382
21990DOD     C1 9789  18.975   5.464   8.101 -0.0081  0.0499 -0.0850
21990DOD     C2 9790  18.901   5.047   7.917 -0.2197 -0.2567  0.0564
21990DOD     C3 9791  18.930   4.785   7.538  0.1468 -0.1686  0.5297
21991DOD     C1 9792   4.922  25.830   3.157 -0.0006 -0.1834 -0.0484
21991DOD     C2 9793   5.148  25.615   3.492 -0.4164 -0.1346 -0.0849
21991DOD     C3 9794   5.492  25.350   3.740  0.1432  0.3408 -0.0170
21992DOD     C1 9795   6.043  29.012   1.109  0.2676 -0.0356 -0.2027
21992DOD     C2 9796   5.758  29.370   0.999  0.4637 -0.2854  0.0437
21992DOD     C3 9797   5.385  29.618   1.105 -0.3283  0.0150 -0.0841
21993DOD     C1 9798  18.070   2.506  17.195 -0.2592  0.1216  0.2073
21993DOD     C2 9799  18.174   2.841  17.442  0.2146  0.1430  0.1500
21993DOD     C3 9800  18.254   3.222  17.684 -0.0002 -0.4902  0.1841
21994DOD     C1 9801  15.940  23.648  29.884 -0.1583  0.4759  0.0406
21994DOD     C2 9802  16.373  23.521  29.627 -0.0116  0.0776 -0.2403
21994DOD     C3 9803  16.813  23.455  29.641  0.1381 -0.0999  0.1938
21995DOD     C1 9804  18.599  16.029  26.526 -0.5108 -0.4297 -0.2045
21995DOD     C2 9805  18.854  16.320  26.795 -0.2651  0.1512 -0.1530
21995DOD     C3 9806  19.174  16.641  26.912 -0.2860  0.1149  0.2046
21996DOD     C1 9807   4.793   7.773  27.208 -0.0085 -0.0359 -0.1425
21996DOD     C2 9808   4.623   7.985  27.547  0.2429  0.2588 -0.2171
21996DOD     C3 9809   4.472   8.392  27.727  0.1208  0.2620 -0.1803
21997DOD     C1 9810   3.000   1.931  22.363  0.0409  0.0626  0.2673
21997DOD     C2 9811   2.938   2.174  22.780  0.2889  0.1457  0.2298
21997DOD     C3 9812   2.928   2.529  23.029  0.1447 -0.0174 -0.0024
21998DOD     C1 9813  20.726   2.746  27.635 -0.1383 -0.0569  0.1040
21998DOD     C2 9814  21.141   2.547  27.670  0.1590  0.1527 -0.2175
21998DOD     C3 9815  21.497   2.258  27.530 -0.0190  0.1347 -0.3332
21999DOD     C1 9816   8.772  13.522  30.206 -0.2450 -0.0538 -0.1427
21999DOD     C2 9817   8.751  13.901   0.177  0.0741 -0.0293 -0.0133
21999DOD     C3 9818   9.172  14.056   0.458 -0.2020  0.1471  0.2404
22000DOD     C1 9819  23.534  13.068  21.393  0.0101 -0.3280 -0.4000
22000DOD     C2 9820  22.997  13.006  21.448  0.1763  0.2893 -0.0396
22000DOD     C3 9821  22.768  12.665  21.688 -0.1486 -0.0834  0.2560
22001DOD     C1 9822  15.306   9.582   6.300 -0.1556  0.3273  0.0423
22001DOD     C2 9823  15.550   9.870   6.555  0.2678  0.2013 -0.1087
22001DOD     C3 9824  15.703  10.310   6.362 -0.2370 -0.1862  0.2681
22002DOD     C1 9825   3.112  13.092   2.597  0.1182 -0.0798 -0.2595
22002DOD     C2 9826   3.340  12.715   2.401  0.1729  0.1368 -0.1041
22002DOD     C3 9827   3.306  12.452   1.974 -0.0572 -0.0421  0.0571
22003DOD     C1 9828  10.159  12.560   6.935 -0.0276  0.1667  0.0641
22003DOD     C2 9829   9.955  12.415   7.321  0.2633 -0.1224 -0.0122
22003DOD     C3 9830   9.742  12.067   7.573  0.4319  0.0644 -0.0030
22004DOD     C1 9831   9.265  17.616   7.132 -0.0787 -0.0594 -0.4782
22004DOD     C2 9832   9.061  17.396   7.472  0.0142  0.0048 -0.2338
22004DOD     C3 9833   9.421  17.139   7.700 -0.1962  0.0396 -0.0955
22005DOD     C1 9834  18.802  10.112  26.368 -0.0842 -0.3503 -0.0831
22005DOD     C2 9835  18.591  10.501  26.167  0.0120  0.2772  0.0439
22005DOD     C3 9836  18.362  10.887  26.112  0.3432 -0.2939  0.0971
22006DOD     C1 9837  23.171  18.689  30.199 -0.3687  0.1682 -0.1904
22006DOD     C2 9838  22.849  18.894   0.082  0.1464 -0.3778 -0.0427
22006DOD     C3 9839  22.682  19.017   0.432 -0.2256  0.1946 -0.1973
22007DOD     C1 9840  19.047   5.699  24.040  0.0553  0.1968 -0.2105
22007DOD     C2 9841  18.874   5.281  23.907 -0.0861 -0.1698 -0.0481
22007DOD     C3 9842  18.883   4.830  23.753 -0.0879  0.4734 -0.1811
22008DOD     C1 9843   3.862  18.940  17.381 -0.0704  0.0729  0.0770
22008DOD     C2 9844   4.055  18.683  17.100  0.2377 -0.0630 -0.0835
22008DOD     C3 9845   3.893  18.506  16.719  0.0739  0.0922  0.3472
22009DOD     C1 9846   6.361  22.107   7.742  0.1246  0.0136  0.1612
22009DOD     C2 9847   6.687  21.815   7.910 -0.1438 -0.1030 -0.0945
22009DOD     C3 9848   6.741  21.335   7.934 -0.2914 -0.0701  0.0314
22010DOD     C1 9849  27.455  15.487   8.758  0.0199  0.3950 -0.2064
22010DOD     C2 9850  27.331  15.069   8.566 -0.0482 -0.1555  0.1431
22010DOD     C3 9851  27.326  14.671   8.527 -0.1338  0.1057  0.3976
22011DOD     C1 9852  14.250  26.022  16.147 -0.1764  0.1073 -0.1278
22011DOD     C2 9853  13.843  25.741  16.209 -0.1129  0.0520  0.0121
22011DOD     C3 9854  13.514  25.443  16.105  0.0866  0.1933  0.0851
22012DOD     C1 9855  22.150  13.493  29.292  0.0651  0.1488  0.0545
22012DOD     C2 9856  22.393  13.709  28.951  0.0129 -0.0166  0.0368
22012DOD     C3 9857  22.585  14.069  28.623  0.1587 -0.0150 -0.4646
22013DOD     C1 9858  26.216  22.153   6.096  0.0932  0.0955  0.2303
22013DOD     C2 9859  25.801  22.352   6.133  0.0473 -0.4950  0.5194
22013DOD     C3 9860  25.510  22.763   6.124 -0.2121  0.0603  0.1767
22014DOD     C1 9861  12.595  16.849  13.820 -0.2459  0.2477  0.1320
22014DOD     C2 9862  12.694  16.755  14.247  0.2624  0.0841  0.0339
22014DOD     C3 9863  12.454  16.425  14.471 -0.2688 -0.0422  0.2570
22015DOD     C1 9864  22.589   3.355   1.272  0.0086  0.1095  0.0046
22015DOD     C2 9865  22.905   3.208   0.972  0.1527 -0.2869  0.2628
22015DOD     C3 9866  23.295   3.268   0.743  0.1388  0.2031  0.0275
22016DOD     C1 9867  24.208  22.930  13.203  0.0576 -0.0092 -0.4589
22016DOD     C2 9868  24.611  23.130  13.186  0.1108 -0.0527 -0.2213
22016DOD     C3 9869  25.021  23.216  13.081 -0.2763  0.2559 -0.1811
22017DOD     C1 9870  17.590  12.014  13.483 -0.3061  0.1018  0.2668
22017DOD     C2 9871  17.870  12.244  13.140  0.2090 -0.1940 -0.0011
22017DOD     C3 9872  17.635  12.165  12.732  0.0723  0.0262  0.0136
22018DOD     C1 9873   9.871  21.131  26.227  0.2117  0.1064  0.1064
22018DOD     C2 9874  10.317  21.134  26.031 -0.1912 -0.1781 -0.2755
22018DOD     C3 9875  10.774  21.350  25.984 -0.1166 -0.0036  0.2662
22019DOD     C1 9876  11.861  28.394   5.296  0.1732  0.1045  0.1912
22019DOD     C2 9877  12.046  28.059   5.558  0.0353  0.3416 -0.2388
22019DOD     C3 9878  12.351  27.992   5.943  0.3020 -0.1607  0.0487
22020DOD     C1 9879  25.780   3.629   0.167 -0.0820  0.1899  0.4256
22020DOD     C2 9880  26.073   3.600  30.069 -0.4884  0.1661  0.1366
22020DOD     C3 9881  26.419   3.810  29.893 -0.1279  0.0409  0.0196
22021DOD     C1 9882  28.919  20.098  22.396  0.4751 -0.2254  0.1234
22021DOD     C2 9883  28.730  20.088  22.870  0.0105  0.2048 -0.3079
22021DOD     C3 9884  28.688  20.157  23.378  0.0464  0.1917 -0.1471
22022DOD     C1 9885   7.429   2.752  21.168 -0.0638  0.1535 -0.1292
22022DOD     C2 9886   6.993   2.611  21.246  0.0304 -0.0160 -0.2001
22022DOD     C3 9887   6.522   2.598  21.269  0.1771  0.1736 -0.1658
22023DOD     C1 9888  25.160  18.333  16.209 -0.1591  0.1597 -0.2898
22023DOD     C2 9889  24.848  18.380  16.551  0.0521 -0.2509 -0.0420
22023DOD     C3 9890  24.896  18.431  16.975  0.3403 -0.1046  0.0613
22024DOD     C1 9891  15.697  16.348  20.323  0.0487  0.2662 -0.1625
22024DOD     C2 9892  15.245  16.367  20.255 -0.0359 -0.0045 -0.3422
22024DOD     C3 9893  14.795  16.466  19.990  0.0800 -0.0533  0.1713
22025DOD     C1 9894  16.658  13.341   4.923  0.2341  0.0297  0.0013
22025DOD     C2 9895  16.785  13.563   5.307  0.2540  0.0218 -0.0864
22025DOD     C3 9896  16.639  13.797   5.694 -0.0849 -0.0678  0.0454
22026DOD     C1 9897  23.078  22.108   3.925  0.2333 -0.2055  0.2523
22026DOD     C2 9898  23.030  21.951   4.370  0.1605 -0.4841  0.3797
22026DOD     C3 9899  22.989  22.052   4.811 -0.1642  0.1369  0.1348
22027DOD     C1 9900   3.875  17.680   5.014  0.1360 -0.0556 -0.2706
22027DOD     C2 9901   3.647  17.604   4.604  0.0563  0.2054 -0.0652
22027DOD     C3 9902   3.526  17.717   4.211  0.0458 -0.0593 -0.1441
22028DOD     C1 9903  29.839  25.904  16.295 -0.1791 -0.1561  0.1261
22028DOD     C2 9904  29.924  26.000  16.732  0.2030  0.0388 -0.1753
22028DOD     C3 9905  30.207  25.989  17.084  0.3206  0.0752 -0.2361
22029DOD     C1 9906  20.566   3.320  24.841  0.1721  0.2456 -0.3075
22029DOD     C2 9907  20.453   2.858  24.864 -0.1486  0.1415 -0.0596
22029DOD     C3 9908  20.198   2.621  24.609  0.2770 -0.1069 -0.0222
22030DOD     C1 9909  29.584  14.231  22.022  0.3097 -0.3321 -0.1112
22030DOD     C2 9910  29.354  14.280  21.623 -0.0837 -0.0741  0.2414
22030DOD     C3 9911  29.010  14.080  21.348 -0.0472  0.1646  0.1719
22031DOD     C1 9912   9.541   0.520   9.783 -0.0740 -0.0120  0.0429
22031DOD     C2 9913   9.826   0.742   9.489 -0.2629  0.2206  0.0646
22031DOD     C3 9914  10.196   0.974   9.354 -0.0950 -0.1522  0.1534
22032DOD     C1 9915  14.284  20.014  25.763  0.3306 -0.2479 -0.2874
22032DOD     C2 9916  13.864  19.927  25.580  0.2438  0.1505  0.0695
22032DOD     C3 9917  13.691  19.502  25.374 -0.0803 -0.1130 -0.1859
22033DOD     C1 9918  17.108  24.895  23.381  0.2373  0.2524 -0.1117
22033DOD     C2 9919  17.352  24.570  23.079 -0.1605  0.1719 -0.3461
22033DOD     C3 9920  17.659  24.161  23.183  0.0125  0.3795  0.1981
22034DOD     C1 9921   2.746   0.307  25.348  0.0859 -0.2556 -0.1789
22034DOD     C2 9922   2.687   0.769  25.379  0.3883  0.3848 -0.1608
22034DOD     C3 9923   2.723   1.161  25.168  0.1070  0.1310  0.3322
22035DOD     C1 9924   6.165  28.461  25.938 -0.0317  0.0306  0.1522
22035DOD     C2 9925   6.295  28.579  25.489 -0.1321 -0.0437 -0.0942
22035DOD     C3 9926   6.553  28.707  25.137 -0.1487  0.0999  0.1199
22036DOD     C1 9927  22.611   0.076   0.295 -0.2198 -0.0201  0.0401
22036DOD     C2 9928  22.731  30.184   0.658 -0.2127  0.2589  0.0001
22036DOD     C3 9929  22.680  29.753   0.868  0.0894 -0.4254  0.0650
22037DOD     C1 9930  27.241   1.311  15.360  0.2695 -0.1306  0.0303
22037DOD     C2 9931  26.806   1.536  15.316  0.1862 -0.1384  0.0507
22037DOD     C3 9932  26.478   1.765  15.440  0.0168  0.0439 -0.0092
22038DOD     C1 9933  10.775  23.163  15.854 -0.0238 -0.0008 -0.1137
22038DOD     C2 9934  10.487  23.044  15.562 -0.0322  0.0928 -0.1024
22038DOD     C3 9935  10.321  22.712  15.241 -0.1313  0.4006  0.0223
22039DOD     C1 9936   9.960  18.545   1.021 -0.0556 -0.2312  0.0881
22039DOD     C2 9937  10.413  18.670   1.019  0.1095 -0.1476 -0.1527
22039DOD     C3 9938  10.747  18.886   0.748 -0.0181  0.1719 -0.1129
22040DOD     C1 9939  22.333  17.375  18.402  0.0443 -0.0536  0.1500
22040DOD     C2 9940  21.953  17.618  18.424  0.0371 -0.0232 -0.1588
22040DOD     C3 9941  21.750  17.977  18.671  0.1198 -0.0046 -0.2285
22041DOD     C1 9942   8.487  24.937  24.401 -0.0186  0.0691  0.0254
22041DOD     C2 9943   8.801  24.867  24.125  0.3011  0.0618  0.0835
22041DOD     C3 9944   8.723  24.823  23.691 -0.0447 -0.3701 -0.3691
22042DOD     C1 9945  22.032   4.178   0.008 -0.2485 -0.1308 -0.1507
22042DOD     C2 9946  22.056   4.234  29.867  0.2455  0.1040 -0.1198
22042DOD     C3 9947  22.211   4.551  29.573  0.0911 -0.1537  0.0738
22043DOD     C1 9948  22.669  16.158  26.571  0.3817  0.1792  0.0147
22043DOD     C2 9949  22.768  16.205  26.989 -0.0844 -0.2350  0.0346
22043DOD     C3 9950  22.751  16.030  27.396  0.0937 -0.2067  0.0092
22044DOD     C1 9951   8.984  20.151  24.565  0.3246  0.3976  0.0100
22044DOD     C2 9952   8.610  19.843  24.414 -0.2177 -0.2169  0.1311
22044DOD     C3 9953   8.237  19.525  24.336  0.1533 -0.0689  0.0340
22045DOD     C1 9954  10.110  27.526  19.809 -0.1190 -0.1319 -0.0485
22045DOD     C2 9955   9.956  27.150  19.613 -0.0599  0.0847 -0.2141
22045DOD     C3 9956   9.649  26.816  19.570  0.0659  0.1954  0.0234
22046DOD     C1 9957  16.628  15.978  20.358  0.0395 -0.1218 -0.4215
22046DOD     C2 9958  16.542  16.221  19.971  0.0201  0.1290  0.0573
22046DOD     C3 9959  16.886  16.316  19.666 -0.0456 -0.1020 -0.0748
22047DOD     C1 9960  10.550  22.925   9.323 -0.0653 -0.0181  0.1046
22047DOD     C2 9961  10.710  22.543   9.529  0.0762  0.2762 -0.2646
22047DOD     C3 9962  10.654  22.126   9.619 -0.0322  0.1305  0.0508
22048DOD     C1 9963  12.393  21.281  15.934  0.2117 -0.0438  0.2004
22048DOD     C2 9964  11.942  21.239  16.094  0.0997 -0.1634 -0.3741
22048DOD     C3 9965  11.611  21.393  16.368 -0.1485  0.2292  0.1464
22049DOD     C1 9966   4.212  21.327   2.636 -0.5547  0.1347 -0.2504
22049DOD     C2 9967   4.186  20.883   2.622  0.1802 -0.0613 -0.1216
22049DOD     C3 9968   4.335  20.451   2.759  0.0607  0.1383 -0.3043
22050DOD     C1 9969   5.315  29.413  21.861 -0.0041  0.0472 -0.0628
22050DOD     C2 9970   5.013  29.401  21.484  0.0029  0.2589 -0.0630
22050DOD     C3 9971   4.668  29.543  21.212  0.1742  0.1374  0.1827
22051DOD     C1 9972   7.455   8.947  19.337 -0.1714 -0.1561  0.1317
22051DOD     C2 9973   7.475   8.872  19.730  0.0144  0.3063 -0.0767
22051DOD     C3 9974   7.873   8.906  19.893 -0.1128  0.2080 -0.1337
22052DOD     C1 9975  18.665  15.289  25.801  0.1217  0.2495 -0.1636
22052DOD     C2 9976  18.613  14.820  25.720 -0.1744  0.0481  0.1272
22052DOD     C3 9977  18.441  14.432  25.942 -0.1006  0.1641 -0.2001
22053DOD     C1 9978  22.031   6.849   2.260 -0.0918  0.0815  0.0768
22053DOD     C2 9979  22.493   6.861   2.357  0.0683 -0.4806  0.2416
22053DOD     C3 9980  22.888   6.720   2.121 -0.0507  0.1702  0.0058
22054DOD     C1 9981  21.557  24.865  11.196  0.2583 -0.2199  0.0269
22054DOD     C2 9982  21.903  25.182  11.332 -0.2828 -0.1053 -0.2925
22054DOD     C3 9983  22.367  25.175  11.219  0.2324 -0.0657 -0.1009
22055DOD     C1 9984  13.020  13.086  22.535  0.0655  0.0724  0.2519
22055DOD     C2 9985  13.255  13.363  22.880 -0.1926  0.2414  0.3648
22055DOD     C3 9986  13.378  13.667  23.243  0.2669  0.1649 -0.0262
22056DOD     C1 9987   2.569   9.371  25.717  0.1315 -0.0354 -0.1592
22056DOD     C2 9988   2.914   9.174  25.576  0.1593 -0.2980 -0.4509
22056DOD     C3 9989   2.994   9.182  25.105 -0.0322 -0.2682 -0.0228
22057DOD     C1 9990   4.963  26.733   4.120 -0.0823 -0.0169 -0.0361
22057DOD     C2 9991   4.676  27.093   4.169  0.2501  0.0796 -0.0291
22057DOD     C3 9992   4.522  27.474   4.306  0.1813 -0.4022 -0.0669
22058DOD     C1 9993   6.139  12.918   3.058  0.0550 -0.0797 -0.0603
22058DOD     C2 9994   5.735  13.050   3.174  0.1016  0.0718 -0.2203
22058DOD     C3 9995   5.545  13.428   3.375 -0.1145  0.0141 -0.1586
22059DOD     C1 9996   3.428  27.090  27.317  0.2341  0.1459  0.2330
22059DOD     C2 9997   3.535  26.690  27.040  0.1011 -0.0364 -0.2896
22059DOD     C3 9998   3.688  26.273  26.995  0.1035 -0.2377 -0.0478
22060DOD     C1 9999  27.107  29.427  17.945  0.0165  0.2616 -0.1414
22060DOD     C210000  27.030  29.171  17.587  0.1230 -0.2172  0.3335
22060DOD     C310001  26.828  28.981  17.230 -0.0248 -0.2748  0.0122
22061DOD     C110002  23.383   0.844   5.698  0.1150 -0.2814 -0.2427
22061DOD     C210003  23.706   0.620   5.926  0.0666  0.0514 -0.0028
22061DOD     C310004  24.124   0.482   5.784  0.1088 -0.0425 -0.3624
22062DOD     C110005  10.893   9.773   5.990 -0.1781  0.0724  0.0522
22062DOD     C210006  10.635  10.118   6.023 -0.1973 -0.2816 -0.0279
22062DOD     C310007  10.236  10.288   6.086  0.1345  0.0008 -0.1235
22063DOD     C110008   4.404  23.255  12.783 -0.0310  0.1868  0.2301
22063DOD     C210009   3.904  23.293  12.713 -0.1975  0.0768 -0.3084
22063DOD     C310010   3.514  23.092  12.556 -0.0521 -0.1305 -0.2202
22064DOD     C110011  10.627  17.164  22.303 -0.2198 -0.1128 -0.0684
22064DOD     C210012  10.658  16.950  22.700  0.0258  0.0523 -0.1544
22064DOD     C310013  10.763  16.693  23.049 -0.1769  0.1765  0.0821
22065DOD     C110014  10.826   7.694   2.245  0.1183  0.0099 -0.0727
22065DOD     C210015  10.369   7.883   2.365  0.0239 -0.1757 -0.2582
22065DOD     C310016  10.091   8.227   2.592 -0.2329  0.1674 -0.0363
22066DOD     C110017  21.125  25.963   3.178  0.0407  0.2191 -0.2653
22066DOD     C210018  21.442  25.616   3.266 -0.0210 -0.0659 -0.2695
22066DOD     C310019  21.546  25.201   3.307 -0.1703 -0.1209  0.0722
22067DOD     C110020  14.305  22.312  27.536  0.0042  0.0183 -0.0010
22067DOD     C210021  14.678  22.177  27.289 -0.0600 -0.1614 -0.2466
22067DOD     C310022  14.820  21.720  27.219 -0.3512 -0.1436  0.0323
22068DOD     C110023  20.243  19.543   5.229 -0.1565  0.0621 -0.0638
22068DOD     C210024  20.316  19.234   5.618 -0.0075 -0.0584  0.0088
22068DOD     C310025  20.202  18.896   5.875  0.2647 -0.1220  0.0811
22069DOD     C110026  10.615  24.373   0.638  0.0566  0.3747 -0.0035
22069DOD     C210027  10.407  24.049   0.336  0.1357  0.0358  0.0258
22069DOD     C310028  10.370  23.801  30.278 -0.1164  0.1853  0.0514
22070DOD     C110029  28.844  28.992   1.804  0.3311  0.0201  0.2985
22070DOD     C210030  28.447  28.961   1.614 -0.0964  0.2185 -0.1293
22070DOD     C310031  28.075  28.799   1.446 -0.0252 -0.1265  0.0644
22071DOD     C110032  15.750   8.342  11.876  0.1921 -0.0135 -0.2989
22071DOD     C210033  15.930   8.255  11.476 -0.1008 -0.1171 -0.3862
22071DOD     C310034  16.021   8.007  11.106 -0.2539 -0.0309 -0.0619
22072DOD     C110035  20.654   3.365   0.981  0.4698  0.3649 -0.1636
22072DOD     C210036  20.573   3.062   1.301  0.1022 -0.0177  0.1949
22072DOD     C310037  20.696   2.615   1.529 -0.2497 -0.0188  0.1788
22073DOD     C110038  22.781   2.310  12.254  0.0444 -0.1889 -0.2580
22073DOD     C210039  22.494   2.635  12.039  0.0896 -0.2745 -0.2276
22073DOD     C310040  22.384   3.066  11.764  0.0938  0.4150  0.0017
22074DOD     C110041   1.342  12.130   8.377  0.1049 -0.1156 -0.0716
22074DOD     C210042   1.531  11.782   8.408 -0.2154  0.0850 -0.1542
22074DOD     C310043   1.759  11.392   8.448  0.0566 -0.0413 -0.4377
22075DOD     C110044  15.626  26.477  29.009 -0.2047 -0.0800  0.3413
22075DOD     C210045  16.056  26.625  28.824  0.0957  0.1718  0.0791
22075DOD     C310046  16.351  26.907  28.579  0.0395 -0.0727 -0.2404
22076DOD     C110047  20.171  19.008  29.259  0.0078 -0.2387 -0.0017
22076DOD     C210048  19.760  18.953  28.991 -0.3844  0.0331 -0.1213
22076DOD     C310049  19.516  18.622  28.778 -0.1160 -0.3120  0.1018
22077DOD     C110050  21.055   7.397   8.680 -0.1666 -0.0127 -0.0333
22077DOD     C210051  20.899   7.588   9.082 -0.0269  0.2799  0.1892
22077DOD     C310052  21.022   7.475   9.462  0.0147 -0.0905 -0.0331
22078DOD     C110053  13.708  29.888  12.276 -0.3092 -0.1850 -0.4542
22078DOD     C210054  14.028  29.925  12.610 -0.0898  0.1460 -0.0045
22078DOD     C310055  14.434  29.711  12.661  0.1844 -0.0001 -0.0834
22079DOD     C110056   1.290  11.625  29.421 -0.1195 -0.2662  0.4656
22079DOD     C210057   1.252  11.680  29.898 -0.2005  0.0018  0.1180
22079DOD     C310058   1.259  11.371  30.250  0.3086  0.3941 -0.1770
22080DOD     C110059  27.266  29.549  11.032  0.0579  0.0206 -0.0448
22080DOD     C210060  27.016  29.247  11.308  0.1236 -0.2487 -0.1275
22080DOD     C310061  26.846  28.826  11.229  0.3091  0.0708 -0.1007
22081DOD     C110062  17.344  10.403  11.779 -0.0295 -0.2247  0.0043
22081DOD     C210063  17.018  10.690  11.576  0.1206  0.1164  0.2422
22081DOD     C310064  16.599  10.502  11.454 -0.0932 -0.0825  0.0087
22082DOD     C110065  18.246  13.721  18.710 -0.0898  0.0498  0.1356
22082DOD     C210066  18.480  13.356  18.793 -0.0835 -0.0377 -0.2421
22082DOD     C310067  18.838  13.057  18.974 -0.0615 -0.0113  0.0219
22083DOD     C110068  29.774  14.009  15.358 -0.0641  0.1359 -0.3603
22083DOD     C210069  29.914  13.589  15.534 -0.0082  0.0428  0.0150
22083DOD     C310070  29.833  13.384  15.928  0.2530 -0.0813  0.1972
22084DOD     C110071  17.439   8.077  11.617 -0.0643 -0.0233  0.1575
22084DOD     C210072  17.806   8.357  11.668  0.0028 -0.2252  0.0589
22084DOD     C310073  18.198   8.278  11.891 -0.4022 -0.3185  0.0317
22085DOD     C110074   9.551  19.030  17.499 -0.0543 -0.1510 -0.0022
22085DOD     C210075   9.965  18.792  17.396  0.0134  0.2062  0.0505
22085DOD     C310076  10.452  18.797  17.374 -0.1455 -0.2426  0.2503
22086DOD     C110077  10.553  22.094  11.690  0.1334 -0.1608  0.0833
22086DOD     C210078  10.869  22.178  12.002  0.2633 -0.1643  0.2822
22086DOD     C310079  11.050  22.129  12.435 -0.1928 -0.0565 -0.2245
22087DOD     C110080  10.605  19.093   7.215  0.2052 -0.2602  0.0527
22087DOD     C210081  10.436  18.965   7.676  0.1675  0.0838 -0.0075
22087DOD     C310082  10.153  18.956   8.073 -0.1730 -0.1487 -0.0316
22088DOD     C110083   5.206  27.688   9.199  0.0999 -0.0602  0.1742
22088DOD     C210084   5.111  27.759   8.727 -0.0092 -0.2244 -0.0002
22088DOD     C310085   4.948  27.949   8.305 -0.2268 -0.1288 -0.2000
22089DOD     C110086   9.205   4.817  11.872  0.1663  0.0748 -0.3054
22089DOD     C210087   9.113   5.048  12.246  0.1061 -0.0485 -0.0847
22089DOD     C310088   9.405   5.108  12.608  0.2859  0.3382 -0.0062
22090DOD     C110089  15.404  11.708  15.660 -0.2784 -0.2736 -0.6503
22090DOD     C210090  15.505  12.043  15.405 -0.0113  0.1543  0.0352
22090DOD     C310091  15.968  12.140  15.331  0.2259  0.0656 -0.0114
22091DOD     C110092   3.578  13.800  11.907 -0.0724 -0.0180  0.2284
22091DOD     C210093   3.731  14.185  11.742  0.0286  0.1438 -0.0181
22091DOD     C310094   4.120  14.389  11.727 -0.0629  0.0403 -0.1216
22092DOD     C110095  24.374  18.765   0.303 -0.0714  0.1176  0.1772
22092DOD     C210096  24.460  18.630   0.731 -0.3534 -0.1405  0.1640
22092DOD     C310097  24.612  18.795   1.196 -0.1002  0.0999  0.1578
22093DOD     C110098   6.476  18.067  12.613 -0.0965  0.0894  0.3524
22093DOD     C210099   6.053  18.272  12.610 -0.2111 -0.1034  0.4177
22093DOD     C310100   5.565  18.399  12.697  0.1721  0.2783  0.1171
22094DOD     C110101  21.685  14.479   4.325 -0.1815 -0.2759 -0.2341
22094DOD     C210102  21.384  14.194   4.071  0.0325 -0.2671 -0.0195
22094DOD     C310103  20.955  13.987   4.038  0.1549  0.2771  0.4116
22095DOD     C110104   2.071  25.490  20.777  0.1315  0.0811 -0.2360
22095DOD     C210105   2.303  25.702  21.131 -0.0278 -0.0910 -0.0032
22095DOD     C310106   2.500  25.510  21.545  0.0794 -0.2995  0.2319
22096DOD     C110107   4.145  13.226   8.448 -0.1000 -0.1024  0.0158
22096DOD     C210108   4.557  13.014   8.341 -0.0552  0.4160  0.0090
22096DOD     C310109   4.994  12.910   8.265  0.0264  0.0855 -0.1096
22097DOD     C110110  19.836  29.577  29.381  0.1951  0.0887 -0.2315
22097DOD     C210111  20.175  29.862  29.424 -0.2483  0.1442 -0.0346
22097DOD     C310112  20.495  30.180  29.587 -0.0885 -0.2449  0.1567
22098DOD     C110113  16.792   9.960  27.149 -0.1630 -0.0971 -0.0255
22098DOD     C210114  17.043  10.247  26.942 -0.2669 -0.0426  0.2916
22098DOD     C310115  17.256  10.381  26.546 -0.1212  0.1364  0.0732
22099DOD     C110116   2.043  29.800  21.542 -0.0093 -0.0359  0.0035
22099DOD     C210117   2.176  30.097  21.894 -0.1880 -0.1495  0.0254
22099DOD     C310118   2.155  30.246  22.320 -0.2708 -0.0311  0.2859
22100DOD     C110119  12.214  10.348  15.333 -0.0464 -0.0564  0.0875
22100DOD     C210120  12.107   9.931  15.450  0.0167  0.0722 -0.1894
22100DOD     C310121  12.002   9.451  15.552  0.2812 -0.1877  0.2740
22101DOD     C110122   2.859  19.751   6.749 -0.2055  0.0210 -0.1017
22101DOD     C210123   3.281  20.046   6.782 -0.1618  0.2285 -0.0627
22101DOD     C310124   3.485  20.305   7.174  0.4156  0.0022  0.0488
22102DOD     C110125  11.836  18.279  12.835 -0.5209 -0.0267  0.0815
22102DOD     C210126  11.503  17.958  12.713  0.0102 -0.1455  0.2465
22102DOD     C310127  11.266  17.864  12.308 -0.1581  0.1557 -0.1370
22103DOD     C110128   0.344  25.419  24.881 -0.1695 -0.2027  0.0223
22103DOD     C210129   0.022  25.567  24.560  0.0323 -0.1062 -0.5164
22103DOD     C310130  30.094  25.560  24.201  0.1391 -0.2919 -0.1334
22104DOD     C110131   1.633  25.899   1.811  0.1136  0.4618 -0.3657
22104DOD     C210132   1.608  25.452   1.733 -0.4554 -0.1260 -0.0665
22104DOD     C310133   1.792  25.146   2.028 -0.0901  0.1509  0.1569
22105DOD     C110134  22.080  11.873  13.491 -0.0860 -0.0785  0.1370
22105DOD     C210135  21.740  11.789  13.834  0.0410 -0.0137 -0.2504
22105DOD     C310136  21.344  11.900  13.880  0.0195 -0.1493  0.0356
22106DOD     C110137   3.246  10.444  25.194 -0.1158 -0.0781 -0.0124
22106DOD     C210138   3.450  10.035  25.004 -0.1807 -0.0211  0.2195
22106DOD     C310139   3.781   9.702  24.796 -0.0982  0.0325 -0.0902
22107DOD     C110140  12.505   7.235  17.220 -0.2917 -0.2256 -0.0348
22107DOD     C210141  12.586   6.961  16.867 -0.4809  0.0905  0.0863
22107DOD     C310142  12.788   6.948  16.467  0.2143 -0.2117 -0.3925
22108DOD     C110143   1.731  26.856  23.081 -0.0060  0.0283  0.0034
22108DOD     C210144   1.913  27.282  23.101 -0.0795  0.2066  0.0035
22108DOD     C310145   2.020  27.745  22.976 -0.3663  0.0557  0.1973
22109DOD     C110146  14.068  27.942  10.574 -0.0266  0.0467  0.0606
22109DOD     C210147  13.727  27.729  10.350 -0.0698  0.0028  0.0707
22109DOD     C310148  13.709  27.484   9.960 -0.0219 -0.0026  0.0598
22110DOD     C110149  18.814   6.513   0.851  0.0773 -0.0559  0.1572
22110DOD     C210150  18.471   6.739   0.958 -0.3993 -0.2806 -0.0343
22110DOD     C310151  18.300   7.001   1.300 -0.0932  0.5007  0.2593
22111DOD     C110152   6.532   4.171  18.398 -0.0384  0.0069 -0.0441
22111DOD     C210153   6.980   4.018  18.483  0.3766  0.1089 -0.1983
22111DOD     C310154   7.433   4.156  18.500  0.2748  0.0558  0.3111
22112DOD     C110155  16.473   8.854  19.160  0.0516 -0.0051  0.2274
22112DOD     C210156  16.863   8.571  19.064 -0.0853 -0.2573 -0.1744
22112DOD     C310157  16.867   8.086  18.889 -0.2270 -0.2429  0.0177
22113DOD     C110158  12.746  19.755   9.120 -0.2631  0.4421  0.4228
22113DOD     C210159  13.225  19.867   9.200 -0.2174 -0.1271 -0.0988
22113DOD     C310160  13.519  20.159   9.425  0.0403 -0.0937 -0.0051
22114DOD     C110161   4.457  20.022   2.145  0.1107  0.0575  0.1297
22114DOD     C210162   4.377  19.997   2.597  0.1162 -0.2800 -0.0787
22114DOD     C310163   4.489  19.858   2.992  0.2622 -0.2360  0.2463
22115DOD     C110164  11.751   4.952  15.921  0.2484 -0.1109 -0.1098
22115DOD     C210165  11.987   5.157  15.575  0.1101  0.4155 -0.0465
22115DOD     C310166  12.230   5.171  15.191 -0.0222 -0.1686 -0.3146
22116DOD     C110167   4.127  17.383  29.554  0.2924 -0.0819  0.2214
22116DOD     C210168   4.261  17.689  29.904  0.1688 -0.3573 -0.1128
22116DOD     C310169   4.536  17.761  30.292 -0.1371 -0.0374 -0.0175
22117DOD     C110170  10.591   9.673  17.102 -0.0518 -0.1372  0.1545
22117DOD     C210171  10.540   9.624  16.630  0.0082 -0.0553 -0.0620
22117DOD     C310172  10.375   9.855  16.289 -0.1544  0.1441  0.0298
22118DOD     C110173   4.045  16.718   7.964 -0.2652 -0.1312  0.0595
22118DOD     C210174   4.477  16.766   8.159  0.0825 -0.0452  0.2387
22118DOD     C310175   4.704  17.109   8.319  0.2534  0.1367 -0.0330
22119DOD     C110176  14.649  21.207  17.208 -0.1007  0.1044  0.3256
22119DOD     C210177  14.865  21.315  16.849 -0.0823  0.2353  0.2028
22119DOD     C310178  15.178  21.130  16.506  0.0778  0.1140  0.0102
22120DOD     C110179  17.824  10.507  16.929  0.1473 -0.0720 -0.5124
22120DOD     C210180  18.073  10.581  17.355 -0.0882  0.1545  0.2236
22120DOD     C310181  18.289  10.638  17.746  0.2132  0.1754  0.2691
22121DOD     C110182   5.820   5.191  27.963  0.0235  0.1026 -0.0307
22121DOD     C210183   5.812   5.098  27.513 -0.3811 -0.0194 -0.1415
22121DOD     C310184   5.565   5.006  27.100  0.2178  0.0624  0.4535
22122DOD     C110185  15.073   6.958  27.736 -0.2767  0.3569  0.1965
22122DOD     C210186  14.838   6.616  27.531 -0.0097 -0.0320 -0.0847
22122DOD     C310187  14.501   6.320  27.526 -0.0179  0.0623  0.0959
22123DOD     C110188   4.386  21.805  25.605  0.1834  0.1998 -0.0081
22123DOD     C210189   4.536  21.417  25.791  0.0828 -0.0862 -0.2172
22123DOD     C310190   4.536  20.965  25.669 -0.0631 -0.0115  0.3060
22124DOD     C110191   7.766   4.588  14.034  0.2529  0.3047 -0.0216
22124DOD     C210192   7.745   4.385  13.574  0.0048  0.0112 -0.3184
22124DOD     C310193   7.783   4.370  13.137 -0.6553 -0.1884  0.0364
22125DOD     C110194   7.537  27.156   1.942  0.1339 -0.0862 -0.2740
22125DOD     C210195   7.910  27.229   1.648  0.1196  0.2147 -0.3342
22125DOD     C310196   8.300  27.457   1.548  0.0094  0.1741 -0.2537
22126DOD     C110197   3.924   2.838  12.970  0.0780 -0.0386 -0.1644
22126DOD     C210198   4.087   2.449  12.922 -0.1316  0.0415  0.0314
22126DOD     C310199   4.307   2.099  12.744  0.1686 -0.1084  0.2493
22127DOD     C110200   3.807   7.688  26.293  0.0817 -0.4345 -0.1613
22127DOD     C210201   3.936   7.795  26.733 -0.1511  0.1325 -0.1406
22127DOD     C310202   4.012   8.134  27.088 -0.2552 -0.2320  0.1448
22128DOD     C110203   7.398  13.655   3.425  0.2660  0.0014  0.0179
22128DOD     C210204   7.374  14.130   3.492 -0.1747 -0.0417 -0.0381
22128DOD     C310205   7.149  14.397   3.701  0.1637 -0.2686 -0.1570
22129DOD     C110206  17.921   5.692  16.098  0.1756  0.1741 -0.0485
22129DOD     C210207  18.345   5.809  16.282 -0.0961 -0.2054  0.1433
22129DOD     C310208  18.689   5.664  16.544  0.0581  0.3001  0.2346
22130DOD     C110209  20.722  11.093   5.432 -0.0258 -0.5027  0.3335
22130DOD     C210210  20.455  10.766   5.644  0.3739 -0.1277 -0.2008
22130DOD     C310211  20.728  10.422   5.886  0.1027  0.3097 -0.0296
22131DOD     C110212   4.920   5.959   4.958 -0.0670 -0.1638  0.1910
22131DOD     C210213   4.678   5.533   4.950 -0.4067 -0.1351  0.5429
22131DOD     C310214   4.263   5.340   5.094  0.3078 -0.0568  0.0386
22132DOD     C110215  29.963  19.419  10.229  0.1860 -0.2141  0.2093
22132DOD     C210216  29.866  19.695   9.863 -0.1012 -0.3466 -0.3994
22132DOD     C310217  29.895  19.901   9.467  0.1389  0.0297  0.0763
22133DOD     C110218   7.242   7.766   4.181  0.1289 -0.2793 -0.0830
22133DOD     C210219   7.287   7.440   3.828 -0.2277 -0.1461 -0.2713
22133DOD     C310220   7.116   7.264   3.410 -0.1067  0.2736 -0.1855
22134DOD     C110221  29.868   7.629  21.873 -0.0550 -0.1881  0.0710
22134DOD     C210222  29.776   8.042  22.104  0.0188  0.1279  0.1410
22134DOD     C310223  29.605   8.408  22.358 -0.0599  0.1571 -0.1462
22135DOD     C110224  22.803   2.087   0.587 -0.1952 -0.2644  0.0132
22135DOD     C210225  22.652   2.514   0.738  0.1262  0.2863 -0.2031
22135DOD     C310226  22.494   2.973   0.819 -0.3142  0.3145  0.0616
22136DOD     C110227  26.831  15.039  26.304 -0.1933 -0.1760 -0.3108
22136DOD     C210228  26.408  15.267  26.441 -0.2132 -0.1471  0.1405
22136DOD     C310229  25.996  15.575  26.534 -0.0913 -0.0331  0.0235
22137DOD     C110230  25.375   2.474  19.261 -0.1724 -0.0329  0.1381
22137DOD     C210231  25.342   2.515  19.761 -0.0946 -0.0162  0.0008
22137DOD     C310232  25.563   2.626  20.151  0.0442  0.1180 -0.1457
22138DOD     C110233  27.297  27.854  10.769 -0.2146 -0.1663 -0.0531
22138DOD     C210234  27.379  27.874  11.259 -0.1179 -0.1843 -0.0658
22138DOD     C310235  27.357  27.719  11.746  0.0267  0.0393  0.0294
22139DOD     C110236  15.798   1.051  15.576 -0.3456 -0.0597  0.0229
22139DOD     C210237  15.306   1.007  15.445 -0.0280  0.2264 -0.0242
22139DOD     C310238  14.889   0.971  15.327  0.1825 -0.0214  0.3105
22140DOD     C110239   3.441  13.486  21.367 -0.2274 -0.1388 -0.2494
22140DOD     C210240   3.606  13.394  21.812  0.0839 -0.1154 -0.0868
22140DOD     C310241   3.724  13.347  22.279  0.0290 -0.0028  0.0683
22141DOD     C110242  19.662  24.697  10.474 -0.1406  0.0648  0.1435
22141DOD     C210243  19.310  24.386  10.596 -0.0439 -0.1700 -0.0932
22141DOD     C310244  18.933  24.332  10.851  0.2919  0.1380 -0.0164
22142DOD     C110245  16.851  24.777  10.595  0.1674 -0.0458 -0.3064
22142DOD     C210246  16.996  24.630  10.182 -0.0437 -0.1889 -0.4150
22142DOD     C310247  17.381  24.634   9.892 -0.1411  0.1910 -0.1434
22143DOD     C110248  16.302   0.964  23.089  0.2581 -0.2048 -0.0085
22143DOD     C210249  16.058   0.625  22.988 -0.0931 -0.1429  0.2910
22143DOD     C310250  16.136   0.204  22.796  0.1877 -0.1374 -0.0347
22144DOD     C110251  14.863   1.869  15.107  0.0120 -0.1380  0.4184
22144DOD     C210252  14.614   2.062  14.749 -0.0625 -0.2247  0.2335
22144DOD     C310253  14.615   2.305  14.372 -0.2800  0.2112 -0.2793
22145DOD     C110254   5.857  20.144  26.508  0.0761 -0.0981 -0.0224
22145DOD     C210255   5.646  19.726  26.388  0.3785 -0.0046 -0.2156
22145DOD     C310256   5.222  19.623  26.425 -0.1225  0.2328 -0.0928
22146DOD     C110257   2.774  24.842  20.750  0.2434  0.0594 -0.1345
22146DOD     C210258   2.723  24.934  20.276  0.1448 -0.0461 -0.1742
22146DOD     C310259   2.414  24.774  19.929 -0.0711  0.0716 -0.0872
22147DOD     C110260   8.939   8.381  23.632  0.2457 -0.1392 -0.0379
22147DOD     C210261   9.271   8.642  23.832 -0.2393 -0.0869  0.0799
22147DOD     C310262   9.346   8.874  24.239  0.0010 -0.1034 -0.1218
22148DOD     C110263  17.752  29.945   0.076 -0.1900 -0.2400 -0.0551
22148DOD     C210264  18.132  30.194   0.311  0.2581  0.2285  0.0070
22148DOD     C310265  18.561   0.078   0.357  0.0780  0.0500  0.1831
22149DOD     C110266  21.315  19.480   2.956 -0.0268  0.1241  0.1817
22149DOD     C210267  20.972  19.733   3.030  0.4394 -0.1996 -0.0235
22149DOD     C310268  20.561  19.752   3.270 -0.0163  0.3809  0.1906
22150DOD     C110269  22.268  28.517  28.664 -0.3728  0.1929 -0.1154
22150DOD     C210270  22.391  28.729  29.065  0.3105  0.0255  0.3404
22150DOD     C310271  22.631  28.843  29.491 -0.1670 -0.1249 -0.0132
22151DOD     C110272   2.984  18.376   7.542 -0.0797 -0.0573  0.1745
22151DOD     C210273   2.832  18.841   7.577  0.0963 -0.2044  0.0452
22151DOD     C310274   2.807  19.236   7.872 -0.3532 -0.3978 -0.1646
22152DOD     C110275  20.373  20.808  17.508  0.0836 -0.1237  0.0830
22152DOD     C210276  20.651  20.509  17.724 -0.0168  0.2403  0.4790
22152DOD     C310277  21.032  20.620  17.901  0.1499  0.0514 -0.0405
22153DOD     C110278  22.649  23.731  24.632  0.0160  0.1576  0.2124
22153DOD     C210279  23.133  23.755  24.645  0.2814 -0.1279 -0.0656
22153DOD     C310280  23.371  24.004  24.281 -0.2629  0.2664 -0.0265
22154DOD     C110281  25.933  11.450   8.661  0.1776 -0.1235  0.3645
22154DOD     C210282  26.347  11.338   8.468  0.1311 -0.1033 -0.0253
22154DOD     C310283  26.804  11.360   8.386  0.1839 -0.1005  0.2310
22155DOD     C110284  29.558  17.783  29.592  0.1342 -0.1816 -0.2240
22155DOD     C210285  29.091  17.830  29.649  0.1214  0.0788  0.2226
22155DOD     C310286  28.664  17.517  29.707  0.0087  0.2066  0.0367
22156DOD     C110287   5.837  23.209   4.030  0.3684 -0.0881 -0.1471
22156DOD     C210288   5.718  23.053   4.470  0.0837  0.0651  0.0321
22156DOD     C310289   5.485  22.858   4.869  0.1481  0.1227 -0.2681
22157DOD     C110290  10.069   1.247  13.221 -0.1469 -0.2388  0.2713
22157DOD     C210291  10.378   1.109  13.504  0.1832 -0.2085  0.0775
22157DOD     C310292  10.677   0.826  13.781 -0.0271  0.0337  0.0550
22158DOD     C110293   1.158   5.909  28.863  0.0416 -0.0253 -0.1422
22158DOD     C210294   0.826   6.158  29.114 -0.0334 -0.1473  0.1778
22158DOD     C310295   0.502   6.174  29.515  0.2019 -0.0423  0.0400
22159DOD     C110296  20.026   6.551  14.680 -0.1000 -0.1493 -0.1185
22159DOD     C210297  19.856   6.284  14.930  0.1535  0.3634  0.2765
22159DOD     C310298  19.624   5.846  14.987 -0.1082  0.3897 -0.0629
22160DOD     C110299   7.491  23.528   9.120  0.1008 -0.0803  0.0824
22160DOD     C210300   7.434  24.005   9.066 -0.2153  0.0873  0.1422
22160DOD     C310301   7.219  24.460   9.009 -0.2527 -0.0346  0.2237
22161DOD     C110302   5.420  11.088  18.919  0.0853 -0.1002  0.2679
22161DOD     C210303   5.830  11.279  18.845 -0.1847 -0.0075 -0.1368
22161DOD     C310304   6.007  11.643  18.757 -0.1616 -0.1411 -0.2977
22162DOD     C110305  14.716  23.007  14.358 -0.1622  0.1370 -0.2743
22162DOD     C210306  14.422  23.209  14.154  0.0421 -0.2978 -0.1907
22162DOD     C310307  14.000  23.358  14.001 -0.3316 -0.0763 -0.0022
22163DOD     C110308   6.346  12.456   2.011 -0.0703  0.1882  0.2073
22163DOD     C210309   6.067  12.083   1.894 -0.2321 -0.2008  0.0282
22163DOD     C310310   5.818  11.667   1.810  0.1911 -0.1788  0.3240
22164DOD     C110311   7.340  21.685  21.009 -0.0225  0.0691 -0.3393
22164DOD     C210312   6.974  21.601  21.225 -0.1984  0.1501  0.1023
22164DOD     C310313   6.504  21.691  21.319  0.0617  0.0675  0.0612
22165DOD     C110314  12.935   3.729  21.305  0.1758 -0.1531 -0.1333
22165DOD     C210315  13.227   3.757  20.987 -0.0090  0.1337  0.0880
22165DOD     C310316  13.538   3.608  20.634 -0.3028 -0.2070 -0.1980
22166DOD     C110317   0.074  25.026  12.104  0.0040  0.1282 -0.1693
22166DOD     C210318   0.435  24.874  11.850 -0.4738  0.0116  0.0090
22166DOD     C310319   0.826  24.634  11.958  0.0105 -0.0753  0.0800
22167DOD     C110320  14.154  10.723  15.438  0.0312 -0.1015  0.0056
22167DOD     C210321  14.193  10.626  15.039 -0.2879  0.0439  0.0014
22167DOD     C310322  14.420  10.766  14.602 -0.1753  0.0546  0.2317
22168DOD     C110323  26.692   7.036   0.094  0.1646  0.3644  0.0708
22168DOD     C210324  26.709   6.974   0.600 -0.2611 -0.1954  0.1607
22168DOD     C310325  26.659   7.096   1.056 -0.1874 -0.0748  0.1066
22169DOD     C110326  22.149   3.773  17.464  0.0264 -0.3975 -0.1993
22169DOD     C210327  21.795   3.609  17.627 -0.1069  0.0227  0.2228
22169DOD     C310328  21.713   3.231  17.772  0.3213  0.2398 -0.3763
22170DOD     C110329  14.404   5.353   9.826 -0.1303  0.0732  0.1666
22170DOD     C210330  14.234   5.052  10.099  0.1842 -0.3562 -0.1191
22170DOD     C310331  13.903   4.786   9.976  0.1589  0.1494  0.0385
22171DOD     C110332  27.166  17.596  29.482  0.1095  0.1018  0.1281
22171DOD     C210333  27.119  17.212  29.775 -0.0314  0.3312 -0.3394
22171DOD     C310334  27.373  16.911  30.044 -0.0113 -0.0728  0.1178
22172DOD     C110335  14.827  14.200   8.552  0.0552  0.0080 -0.2012
22172DOD     C210336  15.217  14.053   8.354  0.1484 -0.0888  0.2468
22172DOD     C310337  15.579  14.008   8.043  0.0984  0.0399  0.1787
22173DOD     C110338  24.410  27.119  23.402  0.3548 -0.1721  0.0391
22173DOD     C210339  24.502  26.902  23.068  0.2702  0.1771  0.0913
22173DOD     C310340  24.769  26.767  22.691  0.1704 -0.2172 -0.0745
22174DOD     C110341  22.647  27.450  26.100  0.0043 -0.1091  0.0810
22174DOD     C210342  22.286  27.717  26.286 -0.3159  0.0502  0.2266
22174DOD     C310343  22.121  28.012  26.555  0.2500 -0.1490 -0.0484
22175DOD     C110344  13.319  23.785  20.747 -0.2235  0.1474 -0.0974
22175DOD     C210345  13.035  23.428  20.819 -0.0158 -0.2142  0.0698
22175DOD     C310346  12.670  23.149  20.721 -0.2791 -0.0185  0.2598
22176DOD     C110347  13.514  21.699  22.172  0.3016 -0.0205  0.4202
22176DOD     C210348  13.818  21.882  22.369 -0.0896  0.2031 -0.1272
22176DOD     C310349  14.067  21.986  22.786 -0.0732 -0.0484 -0.0346
22177DOD     C110350  21.510  27.894   6.913 -0.2174  0.0951 -0.0423
22177DOD     C210351  21.797  27.518   7.000 -0.0167 -0.0036 -0.2308
22177DOD     C310352  22.009  27.122   7.092  0.0212 -0.0193 -0.0077
22178DOD     C110353  22.752  12.804   4.671  0.1602  0.0421  0.1109
22178DOD     C210354  22.754  12.342   4.571  0.2511 -0.1277  0.2319
22178DOD     C310355  23.087  12.040   4.463 -0.0010  0.1259 -0.2989
22179DOD     C110356   5.239   4.204  12.221  0.0845 -0.0118 -0.1030
22179DOD     C210357   5.277   4.577  11.964  0.2061  0.1702 -0.1143
22179DOD     C310358   5.044   4.951  11.839 -0.2532  0.1890 -0.2154
22180DOD     C110359   9.277  16.326   7.874  0.0415  0.3161 -0.0837
22180DOD     C210360   9.453  15.995   8.216  0.1054  0.0093  0.0693
22180DOD     C310361   9.229  15.697   8.532 -0.0845  0.3143 -0.0109
22181DOD     C110362  23.297  18.736   1.237  0.0598 -0.1947 -0.0867
22181DOD     C210363  23.006  18.841   0.879 -0.0919 -0.0193  0.0034
22181DOD     C310364  22.649  18.567   0.805  0.1912  0.2064 -0.0994
22182DOD     C110365   7.250  15.197  18.115  0.1172 -0.1343 -0.0866
22182DOD     C210366   7.164  14.768  18.176 -0.1790 -0.0356 -0.3399
22182DOD     C310367   7.348  14.378  17.965 -0.2282  0.1479 -0.0134
22183DOD     C110368  16.851   9.014  16.203 -0.0201 -0.0543 -0.3704
22183DOD     C210369  16.985   9.044  16.648 -0.1302  0.0732 -0.1958
22183DOD     C310370  17.050   9.369  16.977  0.2025 -0.1411  0.0609
22184DOD     C110371  19.540  12.430  27.103  0.0270 -0.0314  0.0093
22184DOD     C210372  19.379  12.021  26.966 -0.1452  0.3186  0.1426
22184DOD     C310373  19.029  11.802  26.736 -0.3472 -0.1920 -0.1750
22185DOD     C110374   5.302   7.588   5.057  0.4692 -0.0882 -0.0739
22185DOD     C210375   4.923   7.343   5.096  0.1286 -0.1898  0.2287
22185DOD     C310376   4.517   7.303   4.954  0.2223  0.0265  0.0785
22186DOD     C110377  16.961  16.827   8.329  0.0357  0.0668  0.0080
22186DOD     C210378  16.841  17.198   8.067  0.1397  0.5113  0.0122
22186DOD     C310379  16.765  17.102   7.613 -0.0317  0.1856 -0.0863
22187DOD     C110380  27.336   6.176  28.363  0.0058  0.1301 -0.1620
22187DOD     C210381  26.928   6.340  28.236 -0.0560  0.1824 -0.0418
22187DOD     C310382  26.616   6.644  28.520  0.0069 -0.1516  0.3169
22188DOD     C110383  14.642  21.496  16.475  0.1293 -0.1893 -0.0757
22188DOD     C210384  14.445  21.698  16.075  0.0328  0.1000 -0.4280
22188DOD     C310385  14.110  21.989  15.909  0.2091 -0.3508  0.3878
22189DOD     C110386  22.083   0.216  12.428 -0.2267 -0.1489 -0.1054
22189DOD     C210387  21.750   0.046  12.135 -0.0675  0.0105  0.0720
22189DOD     C310388  21.411  30.220  11.859 -0.0331  0.2578  0.0408
22190DOD     C110389   5.442   5.402  21.724 -0.0862  0.1628 -0.2398
22190DOD     C210390   5.219   5.811  21.903 -0.3397 -0.0826 -0.1626
22190DOD     C310391   4.934   6.138  22.077  0.1673  0.0511  0.0724
22191DOD     C110392  10.057   3.556  15.158  0.0881  0.1250  0.1184
22191DOD     C210393  10.513   3.392  15.232  0.0675 -0.2656 -0.0161
22191DOD     C310394  10.661   3.393  15.686 -0.2023  0.4114  0.1412
22192DOD     C110395  18.045  11.307  13.088 -0.0755 -0.1303 -0.0034
22192DOD     C210396  18.444  11.197  12.893 -0.4148  0.2935 -0.2433
22192DOD     C310397  18.875  11.378  12.783  0.2612  0.0518 -0.1349
22193DOD     C110398  12.747   0.497  15.032 -0.0878  0.0886  0.2005
22193DOD     C210399  12.812   0.864  14.766 -0.0156 -0.0035 -0.1245
22193DOD     C310400  13.167   1.202  14.738 -0.4436  0.0587 -0.0959
22194DOD     C110401  25.402  22.602  25.397  0.1192 -0.1391  0.1364
22194DOD     C210402  25.229  22.206  25.530  0.1333  0.2232 -0.0792
22194DOD     C310403  24.944  21.789  25.388  0.0322  0.1214 -0.1575
22195DOD     C110404  30.009  28.526  27.376  0.2458  0.0620 -0.1337
22195DOD     C210405  -0.052  28.519  27.717 -0.3888 -0.2599 -0.0317
22195DOD     C310406   0.279  28.215  27.913  0.1232  0.0613 -0.0490
22196DOD     C110407   8.944  27.880   7.856  0.0845 -0.0822 -0.1117
22196DOD     C210408   8.951  28.263   8.130  0.0223 -0.0947  0.1321
22196DOD     C310409   8.753  28.396   8.564  0.0054  0.2907  0.1346
22197DOD     C110410  26.284  20.226  23.705  0.1548  0.1678 -0.3142
22197DOD     C210411  25.817  20.162  23.737  0.3728  0.2337  0.0190
22197DOD     C310412  25.575  19.862  24.025  0.2155  0.1051  0.1767
22198DOD     C110413  29.558  27.429   6.677  0.1001  0.0804  0.3312
22198DOD     C210414  29.597  27.553   6.195 -0.0115  0.0904 -0.0157
22198DOD     C310415  29.920  27.611   5.858  0.1526 -0.0774  0.1348
22199DOD     C110416  10.598  28.996  17.522  0.0849 -0.2526 -0.0773
22199DOD     C210417  10.830  29.137  17.860  0.1473  0.0043 -0.1678
22199DOD     C310418  10.804  29.068  18.313 -0.3106 -0.1603  0.2084
22200DOD     C110419  13.725  16.701   4.588  0.0740 -0.0351 -0.3579
22200DOD     C210420  13.970  16.419   4.341 -0.0438 -0.0234 -0.1553
22200DOD     C310421  14.330  16.186   4.245  0.0434 -0.2360 -0.1345
22201DOD     C110422  30.254  12.801  19.092 -0.2481  0.1299  0.3458
22201DOD     C210423  29.903  13.082  19.006 -0.0861 -0.0196  0.2258
22201DOD     C310424  29.573  13.411  18.855  0.0202 -0.0603 -0.1895
22202DOD     C110425  16.399  19.348   6.501 -0.0052  0.0970 -0.2552
22202DOD     C210426  16.379  18.947   6.382 -0.3108 -0.3216 -0.0164
22202DOD     C310427  16.433  18.676   6.027 -0.0244  0.0983  0.4369
22203DOD     C110428   4.500  15.337  17.926  0.0463 -0.0281 -0.1356
22203DOD     C210429   4.750  14.986  18.049 -0.2012 -0.1433  0.1116
22203DOD     C310430   4.924  14.830  18.499 -0.2976  0.3473  0.3634
22204DOD     C110431  30.041  21.066  23.842  0.1533 -0.2857 -0.0392
22204DOD     C210432   0.035  21.370  24.037  0.1343 -0.0326  0.3493
22204DOD     C310433   0.210  21.451  24.452  0.1337 -0.0553  0.2242
22205DOD     C110434  17.224   3.467  22.259  0.0141 -0.2270 -0.3646
22205DOD     C210435  17.252   3.660  22.747 -0.2931 -0.2806 -0.1226
22205DOD     C310436  17.504   3.839  23.117 -0.0031 -0.0524  0.1416
22206DOD     C110437   7.341   5.607  19.417  0.1074  0.4530  0.5096
22206DOD     C210438   6.950   5.653  19.132  0.0878  0.0843 -0.1520
22206DOD     C310439   6.467   5.682  19.212  0.4110 -0.2110 -0.2555
22207DOD     C110440  13.096  15.151  10.745 -0.0285 -0.1858 -0.1873
22207DOD     C210441  13.098  14.783  10.399  0.0635  0.0317  0.0400
22207DOD     C310442  13.239  14.911   9.935 -0.1907  0.3514 -0.2344
22208DOD     C110443  11.121  30.007  12.065 -0.1349  0.0435  0.0922
22208DOD     C210444  10.889  30.245  11.681  0.0889  0.0652  0.0734
22208DOD     C310445  10.809   0.343  11.481 -0.0274  0.1163 -0.1811
22209DOD     C110446   8.640   5.406   4.232 -0.1329  0.1490 -0.2288
22209DOD     C210447   8.447   5.306   3.810  0.1060  0.2613 -0.3540
22209DOD     C310448   8.298   5.363   3.392 -0.1335  0.0615 -0.1546
22210DOD     C110449  20.467  29.032  17.922 -0.0744  0.2820  0.0554
22210DOD     C210450  20.388  29.449  18.089  0.1457 -0.1193  0.1171
22210DOD     C310451  20.396  29.678  18.508 -0.0242  0.1683  0.0012
22211DOD     C110452   9.414  17.563  19.399 -0.1802  0.1376  0.2229
22211DOD     C210453   9.428  17.126  19.451 -0.1126  0.3206 -0.0213
22211DOD     C310454   9.818  16.809  19.279  0.1842 -0.1735 -0.2002
22212DOD     C110455  13.102   4.584   0.481 -0.0054  0.1041 -0.1475
22212DOD     C210456  13.574   4.662   0.694  0.1127 -0.1266  0.3163
22212DOD     C310457  13.950   4.846   0.589  0.3045 -0.2236 -0.0810
22213DOD     C110458   6.017  17.683  12.711  0.0255  0.0142  0.2966
22213DOD     C210459   6.154  17.367  13.035  0.1388 -0.0851  0.3132
22213DOD     C310460   6.441  16.973  13.096 -0.6595 -0.0101 -0.1195
22214DOD     C110461   3.291  20.800  13.155 -0.0873 -0.1738  0.0847
22214DOD     C210462   3.507  21.211  13.229  0.2841 -0.0647  0.0013
22214DOD     C310463   3.742  21.602  13.415  0.0947 -0.0568  0.0140
22215DOD     C110464  22.534  12.294   3.176  0.2654  0.0633  0.1013
22215DOD     C210465  22.394  12.115   2.782  0.0818 -0.2042  0.2787
22215DOD     C310466  22.365  12.289   2.334 -0.0751  0.1155 -0.0268
22216DOD     C110467   9.501  11.834  29.000 -0.0784 -0.1038  0.1435
22216DOD     C210468   9.920  11.767  28.777 -0.1927  0.1111 -0.2311
22216DOD     C310469   9.891  12.001  28.362 -0.2399 -0.1614  0.0939
22217DOD     C110470  26.225  19.339   5.256 -0.0501  0.0970  0.3748
22217DOD     C210471  25.810  19.357   5.519  0.1105 -0.2328  0.0736
22217DOD     C310472  25.544  19.070   5.795 -0.0361  0.0481  0.1840
22218DOD     C110473  21.752  26.523  10.191  0.0874  0.2148 -0.0217
22218DOD     C210474  21.781  27.023  10.073 -0.3760  0.0883 -0.4885
22218DOD     C310475  22.214  27.255   9.968 -0.2924 -0.1847  0.0880
22219DOD     C110476  16.042   8.856  16.856  0.1543  0.1695 -0.1933
22219DOD     C210477  16.163   9.330  16.921 -0.2144 -0.0710 -0.3361
22219DOD     C310478  16.428   9.628  17.146 -0.0871 -0.0754  0.0232
22220DOD     C110479   0.991  29.957  29.045 -0.0635 -0.0744  0.0123
22220DOD     C210480   0.501  29.804  29.071  0.2476 -0.0251  0.1811
22220DOD     C310481   0.150  29.584  29.281  0.2491 -0.0126 -0.4544
22221DOD     C110482  29.529  26.717   2.700 -0.0124 -0.1415 -0.0796
22221DOD     C210483  29.905  26.498   2.542 -0.2081 -0.1654  0.0860
22221DOD     C310484  30.297  26.478   2.287  0.1395  0.0511 -0.1346
22222DOD     C110485   8.091   5.117   2.078  0.1504 -0.2893  0.1275
22222DOD     C210486   8.408   5.197   2.451  0.0956  0.1626  0.2679
22222DOD     C310487   8.507   5.289   2.868 -0.2944 -0.1815  0.1456
22223DOD     C110488  26.851  11.601  24.817 -0.1048  0.1577  0.0368
22223DOD     C210489  26.934  11.732  25.283 -0.1415 -0.2238  0.1508
22223DOD     C310490  27.216  11.747  25.625  0.1059 -0.0004 -0.2210
22224DOD     C110491  26.967  27.476  18.461  0.2730 -0.0665  0.1375
22224DOD     C210492  26.812  27.139  18.230 -0.0605 -0.1251 -0.1194
22224DOD     C310493  26.630  27.016  17.831  0.2570 -0.0577 -0.3845
22225DOD     C110494   4.624   9.222  25.952  0.0254  0.0843  0.2433
22225DOD     C210495   4.403   9.266  25.516  0.1619 -0.3341 -0.5420
22225DOD     C310496   4.049   9.466  25.270  0.1519  0.2218 -0.1693
22226DOD     C110497  11.816  17.281  24.401 -0.0543  0.3092  0.2815
22226DOD     C210498  11.825  17.332  23.956 -0.1373  0.2672 -0.2337
22226DOD     C310499  11.985  17.317  23.507 -0.2733 -0.0732  0.1618
22227DOD     C110500  22.921  19.244   1.194 -0.0941 -0.1944 -0.0622
22227DOD     C210501  22.551  19.369   0.855  0.2066  0.1910  0.0447
22227DOD     C310502  22.268  19.353   0.525  0.0026 -0.1150 -0.0532
22228DOD     C110503  10.487   6.817   4.632  0.3435  0.2607  0.0022
22228DOD     C210504  10.014   6.841   4.577  0.0455  0.0838  0.1375
22228DOD     C310505   9.801   7.152   4.308  0.2694 -0.4831 -0.3471
22229DOD     C110506  18.257   0.893  24.338  0.1228 -0.1837  0.3547
22229DOD     C210507  18.641   0.991  24.006 -0.0090 -0.3332  0.1647
22229DOD     C310508  18.765   1.171  23.639 -0.2348 -0.1737  0.3045
22230DOD     C110509  30.006  29.187   0.149 -0.2583  0.0466  0.1881
22230DOD     C210510   0.087  29.445   0.118 -0.3960  0.0742 -0.1633
22230DOD     C310511   0.165  29.836  30.254 -0.0255 -0.1960  0.2889
22231DOD     C110512  27.924  19.286  20.670  0.2631  0.2276  0.1323
22231DOD     C210513  28.076  18.837  20.599 -0.1231  0.2978 -0.1599
22231DOD     C310514  27.939  18.405  20.653  0.0255  0.0986  0.0896
22232DOD     C110515   4.664  25.608  25.646  0.0321 -0.0452 -0.1490
22232DOD     C210516   4.562  25.301  25.334 -0.1072  0.1023 -0.3848
22232DOD     C310517   4.846  24.990  25.121 -0.2180  0.1250 -0.0414
22233DOD     C110518   2.586  29.472   7.690 -0.2200 -0.0097 -0.3171
22233DOD     C210519   2.130  29.276   7.565  0.2620  0.0305 -0.2132
22233DOD     C310520   1.725  29.064   7.614  0.1329  0.0646  0.0720
22234DOD     C110521   4.564  16.390   4.684  0.0729 -0.1122  0.0265
22234DOD     C210522   4.789  16.003   4.533 -0.2540 -0.1324  0.0881
22234DOD     C310523   5.038  15.774   4.193  0.2125 -0.2026  0.1025
22235DOD     C110524  15.345  13.520  16.218  0.1047  0.0125  0.1438
22235DOD     C210525  15.439  13.918  15.888 -0.1415  0.2037 -0.0957
22235DOD     C310526  15.595  14.278  15.675  0.1738 -0.2782 -0.3204
22236DOD     C110527  25.280  23.230  30.207  0.0541  0.3439  0.0285
22236DOD     C210528  24.827  23.289  30.103  0.0333  0.3244 -0.0053
22236DOD     C310529  24.431  23.022  29.987 -0.1735 -0.0813  0.0804
22237DOD     C110530  27.910   7.253  23.175  0.1049  0.0286 -0.2116
22237DOD     C210531  28.051   7.063  22.799 -0.1229 -0.1318 -0.1314
22237DOD     C310532  28.459   6.796  22.678  0.1197  0.0428 -0.0386
22238DOD     C110533   5.643   1.614   6.502  0.1709  0.0882 -0.2107
22238DOD     C210534   5.599   1.186   6.357 -0.0230 -0.3195  0.0893
22238DOD     C310535   5.803   0.771   6.452  0.2589  0.2553 -0.0923
22239DOD     C110536  22.853  18.481   1.292 -0.1981  0.2686 -0.0159
22239DOD     C210537  23.018  18.278   0.913  0.0658 -0.0093 -0.2562
22239DOD     C310538  23.076  18.019   0.518  0.0560  0.1849  0.1004
22240DOD     C110539  21.513  26.182   0.093  0.2017 -0.2062 -0.0452
22240DOD     C210540  21.394  26.082  29.989  0.3163  0.3428  0.4848
22240DOD     C310541  21.186  26.103  29.535 -0.0238 -0.3599 -0.0646
22241DOD     C110542   9.077   5.337  23.354  0.1544  0.1992 -0.1427
22241DOD     C210543   9.477   5.490  23.155  0.1468  0.2260  0.3782
22241DOD     C310544   9.728   5.759  22.819 -0.1506 -0.2665 -0.1135
22242DOD     C110545  21.882  14.446  26.737 -0.0497 -0.0424  0.0285
22242DOD     C210546  21.715  14.161  26.402 -0.2308 -0.0730 -0.1059
22242DOD     C310547  21.603  14.237  25.986 -0.1082 -0.1059  0.0337
22243DOD     C110548  29.760   1.730   4.309 -0.3210 -0.0246  0.1550
22243DOD     C210549  29.984   1.484   3.973  0.0881 -0.1457  0.0045
22243DOD     C310550   0.104   1.613   3.666  0.1584  0.0636  0.0912
22244DOD     C110551  15.801  14.923   4.426  0.0355  0.1536  0.4232
22244DOD     C210552  15.931  14.499   4.525 -0.3839 -0.2659  0.1002
22244DOD     C310553  16.214  14.141   4.574  0.2479 -0.2000  0.0401
22245DOD     C110554   0.410  17.215  24.315  0.3172  0.2050 -0.1216
22245DOD     C210555   0.073  17.238  24.654  0.1790  0.0006  0.1346
22245DOD     C310556  30.050  17.207  24.982  0.3391  0.1298 -0.1547
22246DOD     C110557  27.320  11.331  11.276  0.1889 -0.0706 -0.1233
22246DOD     C210558  27.559  11.718  11.053  0.0865  0.0782  0.5640
22246DOD     C310559  27.865  12.033  10.837  0.1362  0.0936 -0.3505
22247DOD     C110560  30.205  13.707  20.195  0.1029 -0.1554  0.1437
22247DOD     C210561  30.017  13.900  20.583 -0.1301  0.0391 -0.2878
22247DOD     C310562  29.688  13.761  20.819 -0.2293 -0.0658 -0.3519
22248DOD     C110563  30.310   1.528  29.337 -0.1078 -0.0909 -0.0690
22248DOD     C210564   0.060   1.109  29.557 -0.1984 -0.0529 -0.0122
22248DOD     C310565   0.421   0.800  29.681 -0.1197  0.1434 -0.1867
22249DOD     C110566   7.664   5.699   7.201 -0.3390 -0.0359  0.2484
22249DOD     C210567   7.423   5.872   7.523  0.0112  0.0780 -0.0873
22249DOD     C310568   7.142   6.229   7.586  0.1606 -0.0618  0.2086
22250DOD     C110569  10.616   4.695  10.285  0.0619  0.1069 -0.1403
22250DOD     C210570  10.579   4.450   9.901  0.1514  0.0843 -0.0729
22250DOD     C310571  10.388   4.054   9.824  0.3364 -0.2398 -0.1505
22251DOD     C110572  21.777   4.392   7.137  0.1643 -0.1851  0.2227
22251DOD     C210573  21.345   4.585   6.987 -0.4813 -0.1345 -0.1807
22251DOD     C310574  21.100   4.976   6.970 -0.0851  0.0443 -0.0755
22252DOD     C110575   1.074  15.925  15.121 -0.0676  0.1322 -0.2162
22252DOD     C210576   1.481  16.123  15.283 -0.1592 -0.0971  0.0189
22252DOD     C310577   1.876  15.983  15.454 -0.0493  0.0596 -0.1582
22253DOD     C110578  22.552  28.158   7.785  0.1068  0.1272  0.0549
22253DOD     C210579  22.148  27.972   7.984  0.2067 -0.2386 -0.0903
22253DOD     C310580  21.955  27.829   8.426  0.0483  0.2930 -0.0906
22254DOD     C110581  12.316   5.213  10.131  0.2140 -0.2315  0.2759
22254DOD     C210582  11.953   5.477  10.258 -0.3800 -0.1432  0.2272
22254DOD     C310583  11.629   5.632   9.898 -0.2424  0.0641  0.1772
22255DOD     C110584  14.695  25.757  27.738  0.1223 -0.0821  0.0386
22255DOD     C210585  15.084  25.854  27.690 -0.2615 -0.1546 -0.2489
22255DOD     C310586  15.497  26.028  27.577  0.0418  0.3375  0.2372
22256DOD     C110587  26.964  29.359   0.831  0.1780 -0.1934 -0.0162
22256DOD     C210588  26.606  29.336   0.616  0.0239 -0.2195  0.1814
22256DOD     C310589  26.257  28.974   0.729 -0.3714 -0.1456  0.2124
22257DOD     C110590  11.725   7.964   3.058  0.1869  0.1459 -0.0943
22257DOD     C210591  12.076   8.184   2.826  0.0202  0.1324  0.2302
22257DOD     C310592  12.033   8.313   2.387 -0.0047 -0.2157 -0.1318
22258DOD     C110593   7.220  15.637   4.731 -0.2437 -0.2821  0.0885
22258DOD     C210594   6.827  15.781   4.541  0.1791 -0.2288  0.0043
22258DOD     C310595   6.652  16.025   4.104 -0.1639 -0.2062 -0.0960
22259DOD     C110596  20.294  27.031   6.111 -0.2024 -0.2589 -0.0829
22259DOD     C210597  20.282  27.404   6.350 -0.2049  0.0689 -0.0711
22259DOD     C310598  20.029  27.617   6.677 -0.1556  0.1487  0.2834
22260DOD     C110599   7.489  17.895  19.056  0.4002  0.0834  0.0722
22260DOD     C210600   7.347  18.061  19.476 -0.0603 -0.0565  0.0123
22260DOD     C310601   7.646  17.988  19.822 -0.1277 -0.4037 -0.2837
22261DOD     C110602   4.982   7.079  27.279 -0.2478  0.3868 -0.2549
22261DOD     C210603   4.510   7.054  27.160 -0.3879 -0.1053  0.4337
22261DOD     C310604   4.054   6.998  27.229 -0.1489 -0.2191  0.4206
22262DOD     C110605  12.953  10.818  29.763 -0.1947  0.1467 -0.2195
22262DOD     C210606  12.658  11.050  30.113 -0.1503 -0.0673  0.4340
22262DOD     C310607  12.549  11.144   0.231 -0.0329 -0.0732  0.2348
22263DOD     C110608  24.273   2.667   4.018  0.1014  0.2445 -0.1600
22263DOD     C210609  24.438   2.268   4.179 -0.1900  0.0083  0.1360
22263DOD     C310610  24.671   2.023   4.529  0.2553 -0.0918  0.2454
22264DOD     C110611  20.890  14.629  23.066  0.0666 -0.0091  0.1957
22264DOD     C210612  21.088  14.843  22.758  0.1871 -0.3410  0.0140
22264DOD     C310613  21.296  14.900  22.356  0.1371  0.0894  0.1013
22265DOD     C110614  22.690   7.083  19.797  0.0935 -0.0226  0.1976
22265DOD     C210615  22.556   7.032  19.367  0.0722 -0.0845  0.1425
22265DOD     C310616  22.430   7.301  18.951  0.0066  0.3581 -0.0723
22266DOD     C110617  17.420  15.015  14.063 -0.0705 -0.0870 -0.0121
22266DOD     C210618  17.393  14.578  14.113 -0.1507 -0.1022 -0.2697
22266DOD     C310619  17.647  14.202  14.249  0.1536 -0.2220 -0.1409
22267DOD     C110620   0.788  10.889  27.097  0.2185 -0.0010  0.0296
22267DOD     C210621   0.328  10.863  27.160  0.0372  0.2511  0.2561
22267DOD     C310622  30.248  10.996  27.237 -0.2474 -0.1474 -0.1121
22268DOD     C110623  20.555  28.572   5.159 -0.0463 -0.1244 -0.0760
22268DOD     C210624  20.687  28.976   5.188 -0.0042  0.0892  0.1701
22268DOD     C310625  21.098  29.204   5.200  0.0149  0.3764  0.1981
22269DOD     C110626  25.068   0.496   3.177  0.2250 -0.0518 -0.0300
22269DOD     C210627  24.744   0.292   3.424 -0.2814 -0.1379 -0.0847
22269DOD     C310628  24.513  30.162   3.512  0.0217 -0.2257  0.0310
22270DOD     C110629   7.441   6.394  25.707  0.1392  0.0685 -0.1266
22270DOD     C210630   7.672   6.719  25.480  0.0459  0.2401  0.0614
22270DOD     C310631   7.631   6.884  25.010  0.2761  0.0855  0.0379
22271DOD     C110632  15.555  29.374  16.484 -0.0097 -0.3500  0.2145
22271DOD     C210633  16.000  29.323  16.273 -0.2199  0.0526 -0.4783
22271DOD     C310634  16.327  29.618  16.331  0.1885 -0.0419  0.3744
22272DOD     C110635   6.415  12.380  29.571 -0.1941  0.2990  0.1176
22272DOD     C210636   6.047  12.121  29.624  0.0225 -0.0452 -0.2239
22272DOD     C310637   5.702  11.856  29.817 -0.0292 -0.2297 -0.3266
22273DOD     C110638  24.893   3.310   2.710  0.2818 -0.1148  0.1308
22273DOD     C210639  25.336   3.445   2.549 -0.0417 -0.0576 -0.1605
22273DOD     C310640  25.580   3.774   2.380  0.0070 -0.1123 -0.2560
22274DOD     C110641  24.395  20.213  21.563  0.1960  0.2936  0.0796
22274DOD     C210642  24.871  20.148  21.531  0.2930 -0.0961  0.0662
22274DOD     C310643  25.213  20.123  21.832 -0.0215 -0.0762 -0.0115
22275DOD     C110644  19.460  15.772   2.931 -0.0974  0.1574  0.3208
22275DOD     C210645  19.215  15.803   2.566  0.1326  0.2179  0.0351
22275DOD     C310646  19.160  16.003   2.206 -0.3753  0.1694  0.2186
22276DOD     C110647  20.493  10.238   1.855 -0.0254 -0.1172 -0.1025
22276DOD     C210648  20.098   9.992   1.867 -0.0960  0.1846 -0.1005
22276DOD     C310649  19.581   9.863   1.817 -0.0833 -0.0569  0.1438
22277DOD     C110650  22.522   0.811  18.864  0.1279 -0.2211 -0.0675
22277DOD     C210651  22.710   0.912  19.220  0.0502  0.1039 -0.0007
22277DOD     C310652  23.086   0.975  19.537  0.1441  0.1680  0.0064
22278DOD     C110653  26.424  15.670  11.294 -0.2652  0.0424  0.1426
22278DOD     C210654  26.774  15.582  11.574  0.1765 -0.0404 -0.1846
22278DOD     C310655  27.042  15.637  11.991 -0.1907  0.1473  0.0911
22279DOD     C110656   6.884  17.073  16.184 -0.0084 -0.0180 -0.2647
22279DOD     C210657   6.862  16.685  15.950  0.2138  0.1554  0.0474
22279DOD     C310658   7.176  16.629  15.599  0.0033  0.1082  0.0147
22280DOD     C110659  29.818  24.804  25.760  0.0102  0.2791  0.1511
22280DOD     C210660  29.774  24.350  25.771  0.1589  0.0217  0.0873
22280DOD     C310661  29.856  23.913  25.602  0.1528  0.0883 -0.1944
22281DOD     C110662  13.394  17.753  25.634  0.2103 -0.0084 -0.2146
22281DOD     C210663  13.297  17.426  26.027 -0.0481 -0.4113  0.3122
22281DOD     C310664  12.939  17.400  26.269 -0.1828 -0.2393 -0.0260
22282DOD     C110665  12.237  15.024  23.629  0.2246  0.1439  0.3256
22282DOD     C210666  12.118  14.593  23.512 -0.0474 -0.4757 -0.2832
22282DOD     C310667  12.274  14.305  23.198 -0.1555  0.4988  0.1440
22283DOD     C110668  16.267   1.360   8.041 -0.2698  0.3574  0.0892
22283DOD     C210669  16.639   1.589   8.174  0.1676 -0.0727 -0.0188
22283DOD     C310670  16.739   2.055   8.312 -0.1383  0.0888 -0.1714
22284DOD     C110671  21.673   9.187   0.328 -0.1400  0.4178 -0.2300
22284DOD     C210672  21.812   9.387  30.210 -0.1714 -0.2864 -0.0387
22284DOD     C310673  21.624   9.324  29.755 -0.0145 -0.1029  0.2309
22285DOD     C110674  21.154   0.818  14.261  0.1959 -0.1844 -0.0034
22285DOD     C210675  21.182   0.525  14.611 -0.2554 -0.1936  0.2170
22285DOD     C310676  21.025   0.163  14.841  0.1405  0.1394 -0.0186
22286DOD     C110677   9.338  10.068  11.510 -0.0064  0.1043  0.2835
22286DOD     C210678   8.959   9.843  11.720  0.0592  0.0150 -0.0907
22286DOD     C310679   8.613   9.859  11.944 -0.1160 -0.2966  0.0805
22287DOD     C110680  24.914   7.714  14.247  0.0652 -0.0968 -0.0630
22287DOD     C210681  24.642   8.052  14.461 -0.0917 -0.0082 -0.1082
22287DOD     C310682  24.545   8.536  14.351 -0.2232  0.2811  0.0688
22288DOD     C110683   0.654  25.351  27.581  0.1015 -0.2193 -0.1630
22288DOD     C210684   0.835  25.762  27.374 -0.3143  0.2339  0.2008
22288DOD     C310685   0.925  26.002  27.015  0.0600 -0.0653  0.3703
22289DOD     C110686   3.063  20.246  22.954 -0.0162  0.0928 -0.1333
22289DOD     C210687   2.550  20.179  22.877 -0.0890  0.2626  0.1557
22289DOD     C310688   2.197  20.161  22.557 -0.1859  0.0231 -0.2712
22290DOD     C110689  24.406   1.938  26.516 -0.4188 -0.1250  0.0218
22290DOD     C210690  24.306   2.193  26.902 -0.1321  0.2005 -0.0125
22290DOD     C310691  24.155   2.015  27.291 -0.3138 -0.0135 -0.0824
22291DOD     C110692  13.187   9.738  13.595  0.1548 -0.0372  0.2075
22291DOD     C210693  13.137   9.501  13.917  0.0061  0.2591 -0.2550
22291DOD     C310694  13.200   9.053  14.020  0.2608  0.0856 -0.2317
22292DOD     C110695  13.157   1.457   5.437 -0.1541  0.2239  0.1444
22292DOD     C210696  13.591   1.240   5.513  0.2367  0.0040 -0.3742
22292DOD     C310697  13.982   1.122   5.774  0.1551 -0.0979 -0.2043
22293DOD     C110698  27.379  13.045   4.300  0.0540 -0.2521 -0.3433
22293DOD     C210699  27.306  12.610   4.439  0.0266 -0.0447 -0.3335
22293DOD     C310700  27.083  12.199   4.610 -0.0353  0.0286  0.4256
22294DOD     C110701  10.618   8.199  21.771  0.2385 -0.2827  0.0779
22294DOD     C210702  10.477   8.409  21.384  0.0472  0.1650 -0.1541
22294DOD     C310703  10.228   8.341  20.984 -0.1489 -0.1862 -0.5011
22295DOD     C110704   3.238   1.157  17.421 -0.0544  0.0697 -0.1519
22295DOD     C210705   3.292   1.612  17.327 -0.0201 -0.3015 -0.2094
22295DOD     C310706   3.288   2.080  17.302  0.0535  0.0395  0.1167
22296DOD     C110707   5.649   6.129   2.624  0.1446 -0.1042  0.1634
22296DOD     C210708   6.050   6.403   2.570 -0.0159 -0.0720 -0.2360
22296DOD     C310709   6.524   6.437   2.708  0.0819  0.0244  0.0290
22297DOD     C110710  11.988  13.900  23.840 -0.1096  0.1264 -0.0593
22297DOD     C210711  12.260  13.649  23.564 -0.2688  0.0281 -0.2246
22297DOD     C310712  12.076  13.208  23.687 -0.1293 -0.2220  0.2692
22298DOD     C110713   6.136   0.588  19.592 -0.1715 -0.4639  0.0563
22298DOD     C210714   6.543   0.460  19.378  0.1173  0.0433 -0.1085
22298DOD     C310715   6.558   0.122  19.057 -0.1181 -0.0147 -0.2233
22299DOD     C110716  26.068   2.550  28.614 -0.1228  0.1001  0.6137
22299DOD     C210717  26.462   2.278  28.811 -0.2957 -0.0857 -0.3730
22299DOD     C310718  26.890   2.333  28.879  0.2184  0.2167  0.4654
22300DOD     C110719   8.256  23.251  17.377  0.2193 -0.0046  0.2960
22300DOD     C210720   8.271  23.559  17.058  0.1839 -0.0705 -0.3491
22300DOD     C310721   8.527  23.789  16.734 -0.1153 -0.0652  0.3944
22301DOD     C110722  29.392  26.591  15.845  0.2979  0.0248 -0.0266
22301DOD     C210723  28.878  26.557  15.931  0.0989 -0.2132 -0.1106
22301DOD     C310724  28.600  26.239  16.107 -0.0419 -0.1047  0.0455
22302DOD     C110725  29.963  14.953   6.182  0.2274 -0.0112 -0.6410
22302DOD     C210726  29.427  15.039   6.049 -0.1042  0.2690  0.2360
22302DOD     C310727  29.007  15.142   5.756  0.1201 -0.3621  0.0042
22303DOD     C110728   7.590   4.235   9.180  0.2198 -0.1073 -0.1482
22303DOD     C210729   7.623   4.607   8.913  0.1445  0.2211  0.0537
22303DOD     C310730   7.753   4.780   8.540 -0.2362  0.0946  0.0536
22304DOD     C110731   5.703  27.854   3.369  0.1665 -0.2639  0.1144
22304DOD     C210732   5.939  27.432   3.551  0.0681 -0.0404 -0.0141
22304DOD     C310733   6.316  27.190   3.470 -0.1777 -0.0978  0.5797
22305DOD     C110734   9.569  21.527  22.715 -0.1568 -0.1368 -0.2481
22305DOD     C210735   9.123  21.325  22.579 -0.1118  0.0911  0.2042
22305DOD     C310736   8.915  21.049  22.215 -0.0161 -0.1702  0.2204
22306DOD     C110737  24.395   7.411  15.944  0.0641  0.0694  0.3059
22306DOD     C210738  24.090   7.255  15.645 -0.0400 -0.1417  0.1423
22306DOD     C310739  23.729   6.929  15.525  0.1703 -0.0841  0.3001
22307DOD     C110740   2.621   7.138  19.393  0.2302  0.3210 -0.2314
22307DOD     C210741   2.922   7.470  19.410  0.1618  0.1625  0.3721
22307DOD     C310742   2.941   7.822  19.747  0.0173 -0.0931 -0.2529
22308DOD     C110743   7.932  13.061  26.079 -0.0768  0.1179 -0.2725
22308DOD     C210744   7.585  12.787  26.293 -0.1455 -0.0597  0.1735
22308DOD     C310745   7.131  12.635  26.190  0.6514 -0.3105 -0.0373
22309DOD     C110746  21.885   0.583  23.753  0.0332 -0.2161  0.0736
22309DOD     C210747  22.114   0.995  23.929  0.1283 -0.1414  0.0470
22309DOD     C310748  22.486   1.341  23.775  0.1192 -0.0149  0.0623
22310DOD     C110749  10.989   9.240  18.672  0.2556 -0.1821 -0.0980
22310DOD     C210750  11.445   9.294  18.846 -0.1676 -0.2207  0.0744
22310DOD     C310751  11.906   9.172  19.036 -0.0525 -0.1724  0.0963
22311DOD     C110752   0.494   6.517  20.423  0.3065 -0.0214 -0.2337
22311DOD     C210753   0.429   6.158  20.197 -0.1855  0.0597  0.1224
22311DOD     C310754   0.556   5.860  19.885 -0.2642 -0.1876  0.3740
22312DOD     C110755  21.145  19.889   0.603  0.0152  0.2828  0.0085
22312DOD     C210756  21.372  19.896   0.134  0.1964  0.1119 -0.0352
22312DOD     C310757  21.677  20.176  30.298 -0.1456  0.1505  0.0795
22313DOD     C110758  18.786  27.018   5.341 -0.1727  0.1930 -0.2379
22313DOD     C210759  18.575  27.017   4.940 -0.0805 -0.1123 -0.1253
22313DOD     C310760  18.185  27.025   4.710 -0.0213  0.2319 -0.1474
22314DOD     C110761   9.270  13.643  18.637  0.0649  0.0818  0.0491
22314DOD     C210762   9.258  14.087  18.487 -0.2874  0.1969  0.0913
22314DOD     C310763   9.188  14.592  18.399 -0.0036  0.1365 -0.0114
22315DOD     C110764  19.822   5.649  27.970 -0.2890  0.0908  0.0017
22315DOD     C210765  20.260   5.784  27.820 -0.0128  0.1484 -0.0809
22315DOD     C310766  20.316   6.048  27.458  0.0955 -0.1113  0.1194
22316DOD     C110767   0.673  10.946  13.532 -0.1113  0.1472  0.0084
22316DOD     C210768   0.802  10.869  13.981 -0.1333  0.0461  0.2501
22316DOD     C310769   1.248  10.800  14.209  0.2011 -0.1141  0.2022
22317DOD     C110770  26.771  15.299  18.457 -0.1883  0.1993  0.1945
22317DOD     C210771  27.170  15.019  18.548  0.1818 -0.3616 -0.2089
22317DOD     C310772  27.411  14.628  18.319 -0.0636  0.1273 -0.3254
22318DOD     C110773  16.121  25.315   5.053  0.0968 -0.1104  0.2212
22318DOD     C210774  16.052  24.901   4.800 -0.0538  0.0310  0.0503
22318DOD     C310775  15.763  24.713   4.543 -0.1858  0.0071  0.0452
22319DOD     C110776   8.422  25.874  14.601  0.0945  0.1629  0.0899
22319DOD     C210777   8.149  25.840  14.244  0.1093 -0.1387  0.1208
22319DOD     C310778   7.982  25.940  13.800  0.3090 -0.1120  0.0715
22320DOD     C110779   6.553   4.821  30.092  0.0739 -0.1106  0.0898
22320DOD     C210780   6.159   5.048  29.926 -0.1754  0.3487  0.0009
22320DOD     C310781   5.847   5.379  29.791  0.2531  0.0341  0.0826
22321DOD     C110782  18.209  15.567  14.897 -0.1008  0.1177 -0.0487
22321DOD     C210783  18.622  15.864  14.839 -0.0024  0.1086 -0.1668
22321DOD     C310784  18.985  15.974  15.099  0.0444 -0.2461  0.0185
22322DOD     C110785  10.726   2.413  10.467  0.0491 -0.0989 -0.0652
22322DOD     C210786  10.435   2.252  10.786  0.0123 -0.0976  0.0562
22322DOD     C310787  10.114   1.895  10.845 -0.1084  0.3450 -0.2573
22323DOD     C110788  20.790  23.264   9.744 -0.0232 -0.4343  0.0777
22323DOD     C210789  20.777  23.690   9.575 -0.1444 -0.1739  0.2245
22323DOD     C310790  20.843  23.638   9.089  0.2811  0.1883  0.0371
22324DOD     C110791   7.474  29.275   4.617  0.1304  0.0193  0.1193
22324DOD     C210792   7.460  29.239   4.146 -0.0152  0.0041  0.0606
22324DOD     C310793   7.438  29.442   3.691 -0.0793  0.0037 -0.0686
22325DOD     C110794  22.027  20.460   3.417  0.3107  0.1691 -0.0833
22325DOD     C210795  21.916  20.446   3.822  0.3296 -0.1408 -0.1191
22325DOD     C310796  22.160  20.571   4.265 -0.1192  0.0447  0.2160
22326DOD     C110797  26.616  13.369   7.780  0.3908 -0.0945  0.0985
22326DOD     C210798  26.505  13.771   7.582 -0.0738 -0.1027 -0.0214
22326DOD     C310799  26.211  14.154   7.668  0.1092  0.2044 -0.0511
22327DOD     C110800  21.927   7.801  14.651 -0.0049 -0.2091  0.0347
22327DOD     C210801  22.202   7.792  15.034  0.3576 -0.2178 -0.1769
22327DOD     C310802  22.378   7.572  15.390 -0.3174 -0.0526 -0.0586
22328DOD     C110803  17.350  28.084   3.011  0.0422 -0.1011  0.1493
22328DOD     C210804  16.870  28.213   3.228 -0.0817  0.0013  0.0161
22328DOD     C310805  16.658  28.649   3.346 -0.0413 -0.0609  0.1690
22329DOD     C110806  13.011   6.607  23.456 -0.0114  0.2343  0.1421
22329DOD     C210807  12.630   6.483  23.693  0.0110 -0.3070  0.1780
22329DOD     C310808  12.167   6.434  23.734 -0.1301  0.1361 -0.2300
22330DOD     C110809   6.937  29.409  17.881 -0.0485  0.0589 -0.2206
22330DOD     C210810   6.755  29.057  18.194  0.0322 -0.0223 -0.2546
22330DOD     C310811   6.405  28.708  18.214  0.1109 -0.0634 -0.0920
22331DOD     C110812  24.289   9.000   9.218  0.1735  0.0861  0.2410
22331DOD     C210813  24.727   8.826   9.347  0.1470 -0.1490 -0.1368
22331DOD     C310814  24.923   8.603   9.687  0.1571  0.2057 -0.1251
22332DOD     C110815  24.108  21.261   4.281  0.1285  0.3002 -0.1990
22332DOD     C210816  24.289  20.940   3.943  0.2303  0.0842  0.2872
22332DOD     C310817  24.284  20.469   4.094  0.0421 -0.2737  0.0282
22333DOD     C110818  18.802  20.863  28.127  0.3312  0.1741  0.0559
22333DOD     C210819  18.522  21.100  28.474  0.1341 -0.1185 -0.0451
22333DOD     C310820  18.340  21.462  28.682  0.0732  0.0321  0.0054
22334DOD     C110821  28.445   1.557  29.193 -0.1889 -0.2105  0.0081
22334DOD     C210822  28.417   1.137  29.373  0.2105 -0.1865 -0.1319
22334DOD     C310823  28.506   1.127  29.833 -0.0336  0.1529 -0.0975
22335DOD     C110824  13.860  27.705  24.039 -0.2714 -0.0333  0.2284
22335DOD     C210825  13.490  27.848  23.791 -0.0392 -0.1305  0.2453
22335DOD     C310826  13.398  27.927  23.356  0.0503  0.2025  0.0442
22336DOD     C110827  20.251  29.745   7.802  0.0880  0.2442 -0.3352
22336DOD     C210828  20.695  29.755   7.828 -0.1915  0.0800  0.1358
22336DOD     C310829  21.085  29.623   8.056 -0.0442  0.1804 -0.0437
22337DOD     C110830  14.563  22.602   3.585  0.0450  0.2706 -0.0881
22337DOD     C210831  14.418  22.442   3.184 -0.0602  0.1215 -0.1615
22337DOD     C310832  14.129  22.144   3.007 -0.2404  0.0834 -0.2431
22338DOD     C110833  23.069   0.054   6.485 -0.2622  0.1588 -0.1087
22338DOD     C210834  23.390   0.229   6.273  0.0420  0.0288  0.0696
22338DOD     C310835  23.774   0.160   6.012 -0.0261 -0.1175 -0.1162
22339DOD     C110836  17.386  23.172  19.115  0.1578 -0.0693 -0.1608
22339DOD     C210837  17.130  23.417  19.414 -0.1514 -0.0715  0.1927
22339DOD     C310838  17.180  23.867  19.453  0.3797 -0.1673 -0.1943
22340DOD     C110839  12.541  27.852  21.224 -0.1148  0.0081  0.2386
22340DOD     C210840  12.259  28.105  20.969  0.0144 -0.1397  0.1634
22340DOD     C310841  11.800  28.278  20.987  0.0852  0.1602 -0.0053
22341DOD     C110842   2.668   0.856  28.562  0.0694  0.0077 -0.0146
22341DOD     C210843   2.212   1.005  28.662  0.0858 -0.0783  0.1603
22341DOD     C310844   1.898   1.276  28.789  0.3239  0.0787 -0.0721
22342DOD     C110845  12.970  15.236   0.473  0.3183  0.1004  0.1775
22342DOD     C210846  13.406  15.419   0.319 -0.3293  0.3675 -0.1171
22342DOD     C310847  13.833  15.540   0.215 -0.0683  0.1026  0.4025
22343DOD     C110848   2.156  12.706   4.210  0.0841  0.2091 -0.1636
22343DOD     C210849   2.426  12.994   4.568 -0.2238  0.0497  0.1457
22343DOD     C310850   2.845  13.281   4.630 -0.0457  0.5835 -0.1073
22344DOD     C110851   3.797  18.104   2.215  0.1307  0.0429 -0.0336
22344DOD     C210852   3.638  17.936   1.787  0.0797 -0.2359  0.1520
22344DOD     C310853   3.633  17.840   1.323 -0.3376  0.0331 -0.2359
22345DOD     C110854  17.861   4.864  18.678  0.0629 -0.1495  0.2062
22345DOD     C210855  17.676   5.130  19.018 -0.0749  0.1814  0.1881
22345DOD     C310856  17.431   5.253  19.394 -0.1945  0.1720 -0.2656
22346DOD     C110857   7.898  20.553  13.163  0.0219  0.0950  0.0048
22346DOD     C210858   7.733  20.568  13.605  0.1438  0.1418  0.2640
22346DOD     C310859   7.431  20.733  13.996 -0.1808  0.2941  0.2453
22347DOD     C110860  17.976  14.047   3.266  0.0047  0.0896  0.2767
22347DOD     C210861  17.971  13.665   3.026 -0.0903  0.2163  0.1070
22347DOD     C310862  18.245  13.408   2.773  0.1749 -0.0121  0.1130
22348DOD     C110863  12.082   6.909  26.235 -0.0915 -0.0659  0.2772
22348DOD     C210864  11.967   7.298  26.038  0.2160  0.1882 -0.2792
22348DOD     C310865  11.736   7.760  26.117 -0.0914  0.0624 -0.0860
22349DOD     C110866  13.796  13.601  17.117  0.2797 -0.2386 -0.2033
22349DOD     C210867  13.380  13.737  17.106  0.2753 -0.1186 -0.0902
22349DOD     C310868  12.909  13.790  16.917  0.1810 -0.0348 -0.1209
22350DOD     C110869  28.703  13.595   3.688  0.3950  0.0109 -0.0194
22350DOD     C210870  28.622  13.588   3.243 -0.0035 -0.2704  0.0698
22350DOD     C310871  28.560  13.601   2.797  0.1474  0.0639  0.1413
22351DOD     C110872  24.263  24.844  11.242  0.0986  0.1392  0.2677
22351DOD     C210873  24.181  25.050  10.807 -0.1380 -0.1538 -0.0076
22351DOD     C310874  24.087  24.898  10.346 -0.1051 -0.3990  0.0389
22352DOD     C110875   2.613   6.990   8.992  0.4713  0.0353 -0.2158
22352DOD     C210876   2.281   7.211   9.226 -0.2097 -0.2268  0.2657
22352DOD     C310877   1.882   7.253   9.446 -0.1002 -0.0758  0.1552
22353DOD     C110878  29.537  12.161   7.301 -0.0466  0.2365  0.0445
22353DOD     C210879  29.100  12.092   7.366 -0.2833  0.1505 -0.4208
22353DOD     C310880  28.797  11.848   7.556  0.2031 -0.0443 -0.3353
22354DOD     C110881   4.737  20.819   7.818 -0.0753  0.1434  0.2923
22354DOD     C210882   4.896  20.938   7.383  0.2951 -0.1552  0.0268
22354DOD     C310883   5.107  20.822   7.036 -0.0335 -0.2611  0.0288
22355DOD     C110884   5.962  20.569  25.335  0.1328  0.0275 -0.1593
22355DOD     C210885   5.874  20.805  24.913  0.0498  0.0015 -0.0908
22355DOD     C310886   5.867  20.511  24.536  0.1138 -0.0606 -0.3856
22356DOD     C110887  17.776   8.208   8.763  0.0511  0.3182  0.4770
22356DOD     C210888  18.071   7.974   9.000  0.0776 -0.0529  0.0567
22356DOD     C310889  18.221   7.625   9.182 -0.1677  0.1912  0.0034
22357DOD     C110890   5.532   8.655  11.576  0.2098  0.0012  0.0216
22357DOD     C210891   5.680   8.337  11.801 -0.0161 -0.1028 -0.1176
22357DOD     C310892   5.790   8.307  12.268  0.2813 -0.0513  0.0664
22358DOD     C110893   7.937  21.623  30.005 -0.2082 -0.0716  0.0362
22358DOD     C210894   8.353  21.747  29.840 -0.0873  0.0414 -0.0508
22358DOD     C310895   8.829  21.590  29.861 -0.0058 -0.4487 -0.1090
22359DOD     C110896  19.890  29.562  21.105 -0.0965 -0.1386  0.1519
22359DOD     C210897  20.110  29.525  20.715  0.0593 -0.1745  0.0711
22359DOD     C310898  20.192  29.392  20.277 -0.1667 -0.2224 -0.2931
22360DOD     C110899  25.598  25.632  17.762  0.3671 -0.0890  0.0387
22360DOD     C210900  25.961  25.909  17.643 -0.1316  0.0067  0.0648
22360DOD     C310901  26.205  26.267  17.832 -0.0551 -0.0798  0.0411
22361DOD     C110902  26.549   7.216  17.388 -0.0150 -0.3922 -0.1984
22361DOD     C210903  26.096   7.099  17.218 -0.0352 -0.0243 -0.1241
22361DOD     C310904  25.805   6.780  17.034 -0.1440 -0.2636 -0.3520
22362DOD     C110905  30.049  24.961  26.376 -0.1302  0.0868 -0.1458
22362DOD     C210906  29.921  25.421  26.520  0.2473  0.1513 -0.2340
22362DOD     C310907  30.102  25.818  26.680  0.0657 -0.1570  0.2793
22363DOD     C110908   6.847   4.970  15.028  0.0374  0.1588 -0.0347
22363DOD     C210909   7.166   5.062  14.650  0.1317  0.0492  0.1588
22363DOD     C310910   7.527   5.239  14.370 -0.1340 -0.0242  0.1849
22364DOD     C110911   3.483  21.584  24.660  0.0810  0.1331  0.0582
22364DOD     C210912   3.300  21.163  24.576 -0.0334 -0.0685 -0.0537
22364DOD     C310913   2.887  20.983  24.586  0.2558 -0.1078 -0.1725
22365DOD     C110914   6.887  13.037   3.153  0.1293 -0.3684 -0.3860
22365DOD     C210915   7.039  13.500   3.088 -0.2895 -0.1100  0.0330
22365DOD     C310916   7.380  13.887   2.969  0.1642  0.0155  0.3644
22366DOD     C110917  19.836  27.959  13.149 -0.1187  0.0503  0.0139
22366DOD     C210918  19.589  28.084  12.762 -0.1960 -0.3267 -0.3702
22366DOD     C310919  19.330  27.980  12.385 -0.3315  0.1027  0.1531
22367DOD     C110920  10.557  13.951  10.958 -0.0039 -0.2109  0.2282
22367DOD     C210921  10.179  14.159  10.746 -0.2965 -0.0685  0.1116
22367DOD     C310922  10.011  14.591  10.645  0.0724 -0.0312 -0.1809
22368DOD     C110923  21.560  29.484  28.423  0.0001  0.1778 -0.1621
22368DOD     C210924  21.718  29.741  28.026  0.0831  0.0314 -0.1463
22368DOD     C310925  21.693  29.811  27.526  0.1352 -0.2728  0.0870
22369DOD     C110926  29.377   8.008  14.236 -0.1058 -0.0352  0.2021
22369DOD     C210927  29.149   8.079  14.632  0.0178 -0.0908 -0.1858
22369DOD     C310928  28.774   8.255  14.849  0.3164 -0.1161 -0.2226
22370DOD     C110929  29.886  10.899  13.823  0.0742 -0.0293  0.0082
22370DOD     C210930  29.797  10.454  13.664 -0.0967 -0.2802 -0.0461
22370DOD     C310931  29.977  10.053  13.834  0.0226  0.0026 -0.0926
22371DOD     C110932   8.318  18.371   7.234  0.0320  0.1313  0.2965
22371DOD     C210933   8.606  18.106   6.971  0.2002  0.2863 -0.1523
22371DOD     C310934   8.777  17.701   7.166  0.0596 -0.0914  0.3751
22372DOD     C110935  19.856   1.772  23.687  0.1556 -0.1674  0.0309
22372DOD     C210936  19.753   1.460  24.035 -0.0609 -0.2475  0.2195
22372DOD     C310937  19.781   1.211  24.407 -0.1809 -0.0412  0.1732
22373DOD     C110938  19.689  21.767  11.690 -0.1014  0.0284 -0.1165
22373DOD     C210939  19.877  21.356  11.409  0.4576  0.0164 -0.3496
22373DOD     C310940  20.005  20.942  11.347 -0.0208  0.1176  0.2775
22374DOD     C110941   4.349  29.221   3.452 -0.0877 -0.0585  0.1066
22374DOD     C210942   4.644  29.007   3.795 -0.1294 -0.0626  0.1188
22374DOD     C310943   4.899  28.783   4.092  0.2715 -0.0294  0.2950
22375DOD     C110944  19.029  20.304  22.120  0.1349  0.0863  0.0021
22375DOD     C210945  18.614  20.144  21.987  0.1181  0.1227  0.2188
22375DOD     C310946  18.483  19.922  22.368  0.1009  0.1431  0.0787
22376DOD     C110947  16.150  11.459  25.851  0.1578  0.4804 -0.1932
22376DOD     C210948  15.920  11.817  25.736 -0.0494 -0.1662  0.1722
22376DOD     C310949  15.852  12.268  25.715 -0.1208  0.0305  0.1303
22377DOD     C110950   1.266   5.511   2.437  0.1130 -0.1437 -0.1740
22377DOD     C210951   1.387   5.866   2.148 -0.1271  0.2407  0.0328
22377DOD     C310952   1.648   6.084   1.886  0.3284  0.0107  0.1698
22378DOD     C110953  19.127   0.334  27.661 -0.2700  0.0448  0.0140
22378DOD     C210954  18.980   0.474  27.248 -0.1732  0.0678  0.4514
22378DOD     C310955  19.030   0.488  26.785  0.0831  0.0825 -0.1571
22379DOD     C110956   9.867   9.160  21.609 -0.4924  0.2116  0.3463
22379DOD     C210957   9.600   9.458  21.346 -0.2579 -0.2160 -0.0302
22379DOD     C310958   9.411   9.847  21.540 -0.0488  0.2487  0.0250
22380DOD     C110959  17.815   8.829  20.273  0.0227  0.1579 -0.0544
22380DOD     C210960  17.830   8.741  19.795  0.0085 -0.0672 -0.1063
22380DOD     C310961  17.487   8.488  19.698 -0.1548  0.2393  0.0758
22381DOD     C110962   4.336   7.779  11.305 -0.2856  0.1013 -0.1723
22381DOD     C210963   4.136   8.181  11.200 -0.0036  0.0990 -0.0658
22381DOD     C310964   4.192   8.636  11.340 -0.0271 -0.1094 -0.2488
22382DOD     C110965  23.182  26.477  23.366  0.1007 -0.0583  0.0812
22382DOD     C210966  22.688  26.392  23.457 -0.0920 -0.2944 -0.1525
22382DOD     C310967  22.332  26.081  23.466  0.1598 -0.0748 -0.0664
22383DOD     C110968   5.546  25.776  13.086  0.0127  0.0750  0.2365
22383DOD     C210969   5.313  26.071  12.812  0.1245  0.0647 -0.1809
22383DOD     C310970   5.203  26.524  12.837 -0.0079 -0.2335 -0.2717
22384DOD     C110971  15.968   0.489  14.057  0.1298 -0.0329 -0.2735
22384DOD     C210972  15.681   0.070  14.093  0.0200  0.2296 -0.0381
22384DOD     C310973  15.518  29.942  14.097  0.0611 -0.1447  0.1003
22385DOD     C110974   3.087   3.967  22.331 -0.0842 -0.0344 -0.0896
22385DOD     C210975   3.370   3.973  22.733 -0.0897  0.1211 -0.0649
22385DOD     C310976   3.741   3.935  22.972  0.1431  0.0213 -0.2150
22386DOD     C110977  14.793  23.825  18.048  0.2332 -0.3020  0.1133
22386DOD     C210978  15.130  24.101  17.925  0.4376  0.1836 -0.2902
22386DOD     C310979  15.287  24.127  17.495  0.3228  0.1405  0.0020
22387DOD     C110980  18.953  13.859  25.615  0.2236  0.1489 -0.0567
22387DOD     C210981  18.685  14.259  25.581  0.1039  0.1287 -0.2073
22387DOD     C310982  18.395  14.605  25.337 -0.2943  0.1189 -0.1817
22388DOD     C110983  30.268  28.854   0.423 -0.0144 -0.2166  0.4730
22388DOD     C210984  30.320  28.740  30.268 -0.0506 -0.1138 -0.1518
22388DOD     C310985  30.209  28.309  30.108 -0.0183  0.1170 -0.0051
22389DOD     C110986   7.356   9.377   2.548 -0.0557  0.0475  0.0162
22389DOD     C210987   7.521   9.100   2.257 -0.0676  0.0313  0.0827
22389DOD     C310988   7.623   8.643   2.070 -0.1406 -0.0901 -0.0759
22390DOD     C110989   1.672  15.270   0.712 -0.2406 -0.2284 -0.3762
22390DOD     C210990   1.669  14.914   0.370  0.3243 -0.3010  0.1255
22390DOD     C310991   1.577  14.542   0.094 -0.2463  0.3994  0.0840
22391DOD     C110992   4.414  24.351  21.541 -0.1357 -0.0205 -0.2161
22391DOD     C210993   4.131  24.061  21.771  0.0868 -0.0429  0.1731
22391DOD     C310994   3.746  23.807  21.745  0.3303 -0.3949 -0.3737
22392DOD     C110995  20.965   4.804  23.663 -0.3180  0.0762  0.3497
22392DOD     C210996  20.516   4.716  23.617  0.0910 -0.0349  0.1952
22392DOD     C310997  20.133   4.398  23.640 -0.0342  0.3129  0.1921
22393DOD     C110998  10.627  23.344   6.523 -0.1055  0.2280  0.3345
22393DOD     C210999  10.571  23.695   6.847  0.5172 -0.1292  0.2430
22393DOD     C311000  10.402  23.946   7.221  0.2190 -0.2061  0.1358
22394DOD     C111001   8.176  20.426   4.202 -0.1055 -0.1646 -0.0719
22394DOD     C211002   8.634  20.466   4.328 -0.0808 -0.1371 -0.0286
22394DOD     C311003   9.025  20.231   4.397  0.0335 -0.4231  0.0726
22395DOD     C111004  16.029  11.610  28.139  0.1932 -0.0950  0.0617
22395DOD     C211005  15.942  11.220  28.143  0.2727  0.0645 -0.1087
22395DOD     C311006  15.584  10.961  28.095  0.1480  0.1321  0.5218
22396DOD     C111007  29.351  26.523  25.809 -0.0178  0.0527 -0.0444
22396DOD     C211008  28.987  26.516  25.447 -0.0696 -0.0609  0.1032
22396DOD     C311009  28.926  26.463  24.973  0.1171  0.0720  0.1330
22397DOD     C111010   9.482  26.087   6.774 -0.0762 -0.2950 -0.2331
22397DOD     C211011   9.060  26.107   7.002  0.0215 -0.1973  0.0809
22397DOD     C311012   8.846  26.053   7.371 -0.1032  0.1758 -0.2562
22398DOD     C111013  22.135  26.363   9.473  0.2079 -0.1259  0.0305
22398DOD     C211014  21.840  26.298   9.146 -0.1012  0.1667  0.0550
22398DOD     C311015  21.642  25.996   8.843 -0.3990  0.1448  0.2027
22399DOD     C111016  17.076   1.231   5.213  0.3570  0.3142 -0.0038
22399DOD     C211017  17.518   1.064   5.221 -0.1256 -0.4121 -0.0606
22399DOD     C311018  17.577   0.634   5.039  0.1008 -0.0445  0.1126
22400DOD     C111019   0.301  19.272  14.893  0.1785 -0.0484 -0.0104
22400DOD     C211020   0.062  18.902  15.023 -0.0249  0.0495  0.0554
22400DOD     C311021  30.300  18.485  15.196 -0.1541 -0.1661 -0.1606
22401DOD     C111022  13.284  29.189  29.233  0.1236  0.1037 -0.1855
22401DOD     C211023  13.215  29.105  28.777 -0.0757 -0.2112 -0.1123
22401DOD     C311024  13.072  29.228  28.348 -0.1709 -0.1130 -0.0739
22402DOD     C111025  25.019  25.101  25.357 -0.1458  0.1055 -0.0466
22402DOD     C211026  25.085  24.976  24.956 -0.2273 -0.0042 -0.4181
22402DOD     C311027  25.320  24.655  24.751  0.1563  0.2434  0.3151
22403DOD     C111028  13.013   9.065   9.839  0.1998  0.0699 -0.1174
22403DOD     C211029  13.170   9.066   9.425 -0.1597 -0.1378  0.0311
22403DOD     C311030  13.092   9.061   8.970  0.2121  0.3829  0.0417
22404DOD     C111031  23.155   7.964   2.990 -0.4557  0.0357  0.2749
22404DOD     C211032  23.080   8.244   3.348  0.0150 -0.0556  0.1303
22404DOD     C311033  23.163   8.399   3.765  0.1308  0.0687  0.0050
22405DOD     C111034  23.564   0.915   3.824 -0.2133 -0.1016 -0.1068
22405DOD     C211035  23.467   1.402   3.657 -0.0506  0.0589 -0.2156
22405DOD     C311036  23.456   1.817   3.825  0.0662  0.1674  0.1036
22406DOD     C111037  26.564   7.911  18.100 -0.2372 -0.1102 -0.1361
22406DOD     C211038  26.936   7.793  17.805 -0.0666 -0.3055 -0.3143
22406DOD     C311039  27.102   7.765  17.410 -0.1604  0.0330  0.0351
22407DOD     C111040   6.070   1.210   2.645 -0.1659  0.1388 -0.0450
22407DOD     C211041   5.754   1.623   2.594  0.2339  0.2641  0.0329
22407DOD     C311042   5.558   1.993   2.419  0.1200 -0.4100  0.0929
22408DOD     C111043  15.894  25.927  24.718  0.4563 -0.2804  0.0860
22408DOD     C211044  15.462  26.094  24.871 -0.1729  0.0240  0.1293
22408DOD     C311045  15.095  26.058  25.072  0.1347 -0.1661 -0.0686
22409DOD     C111046  24.158   9.205   6.316 -0.1440  0.2594 -0.0292
22409DOD     C211047  23.920   9.547   6.593 -0.3388 -0.1890  0.0530
22409DOD     C311048  23.882   9.931   6.835  0.2562  0.2443 -0.0737
22410DOD     C111049   3.580   6.558  17.993  0.1565 -0.0008 -0.0274
22410DOD     C211050   4.003   6.701  18.132  0.1820  0.0059 -0.1809
22410DOD     C311051   4.325   7.006  18.154 -0.2660 -0.1841 -0.1837
22411DOD     C111052   0.855  16.796  18.170  0.1160 -0.0224 -0.0654
22411DOD     C211053   0.587  16.526  17.989  0.0318 -0.0807 -0.1072
22411DOD     C311054   0.200  16.235  17.935 -0.1080 -0.1195  0.4137
22412DOD     C111055   2.379  15.054   7.999  0.0865 -0.3418 -0.0281
22412DOD     C211056   2.119  15.139   8.345  0.0971 -0.3824 -0.0145
22412DOD     C311057   1.704  14.969   8.526  0.0074  0.1125 -0.1167
22413DOD     C111058  24.148   0.468  12.969  0.2469 -0.2945  0.0122
22413DOD     C211059  23.840   0.132  13.145 -0.3727 -0.2138  0.3794
22413DOD     C311060  23.698  29.971  13.157 -0.1957 -0.1858  0.1831
22414DOD     C111061  11.350  19.881   9.393  0.3975 -0.0373  0.0138
22414DOD     C211062  11.264  19.934   8.939 -0.1175  0.0343  0.1584
22414DOD     C311063  11.371  20.144   8.555  0.0755 -0.0021  0.4633
22415DOD     C111064   2.940  10.616  14.925 -0.0594 -0.0175 -0.1900
22415DOD     C211065   2.496  10.617  14.883  0.1374 -0.0961  0.0339
22415DOD     C311066   2.030  10.632  15.028  0.1296  0.1275 -0.2485
22416DOD     C111067  11.957   3.927  17.438  0.0081  0.3021  0.0189
22416DOD     C211068  11.972   3.505  17.678  0.1119  0.0944 -0.0816
22416DOD     C311069  12.009   3.217  18.023  0.1990  0.0134 -0.0815
22417DOD     C111070  10.528   9.342   2.008 -0.0063 -0.0643  0.1977
22417DOD     C211071  10.733   9.463   1.637  0.0734  0.0128  0.0056
22417DOD     C311072  11.042   9.782   1.487  0.0253 -0.3808  0.1079
22418DOD     C111073  11.246  14.915  23.232  0.0819 -0.3710 -0.0662
22418DOD     C211074  10.908  15.183  23.130 -0.0687 -0.3362  0.1555
22418DOD     C311075  10.461  15.051  23.065  0.0986  0.0944 -0.2166
22419DOD     C111076  10.845  23.544  16.521 -0.1354  0.1157 -0.5877
22419DOD     C211077  11.057  23.422  16.941  0.0236 -0.1234  0.1246
22419DOD     C311078  11.287  23.064  17.113  0.0030  0.3795  0.0849
22420DOD     C111079  17.934  14.327   8.599 -0.0319  0.0640 -0.1470
22420DOD     C211080  18.166  13.965   8.582  0.0179 -0.2246 -0.0118
22420DOD     C311081  18.290  13.682   8.956 -0.0189  0.3529 -0.1533
22421DOD     C111082  28.688   0.821   0.622  0.0210 -0.0288 -0.0311
22421DOD     C211083  28.851   0.388   0.717  0.0810  0.1468 -0.1661
22421DOD     C311084  28.861  30.274   0.598 -0.3057  0.1734 -0.1385
22422DOD     C111085  10.534  18.919   6.424  0.1660 -0.2044 -0.2172
22422DOD     C211086  10.067  18.922   6.364 -0.0885 -0.2721  0.2536
22422DOD     C311087   9.776  18.991   6.711  0.2608  0.2413  0.1069
22423DOD     C111088  21.119  16.461  22.249 -0.1524  0.1797  0.1960
22423DOD     C211089  21.205  16.523  22.723  0.2414 -0.2215  0.0153
22423DOD     C311090  21.498  16.453  23.116 -0.3473 -0.2058  0.0796
22424DOD     C111091  18.735  16.739   6.948  0.1567  0.0359 -0.3514
22424DOD     C211092  18.706  16.476   7.341 -0.0036 -0.1457 -0.3690
22424DOD     C311093  18.532  16.627   7.779 -0.0522  0.1932  0.2792
22425DOD     C111094  18.929  14.523   8.739 -0.0688 -0.3790 -0.1886
22425DOD     C211095  18.992  14.243   8.403  0.3164 -0.2897  0.2507
22425DOD     C311096  19.136  13.972   8.059  0.2738 -0.0174  0.1675
22426DOD     C111097  11.226   7.689  10.292 -0.1384  0.2267  0.2429
22426DOD     C211098  11.570   7.372  10.362  0.1919  0.0042  0.0562
22426DOD     C311099  12.042   7.273  10.480 -0.1575 -0.3299 -0.0872
22427DOD     C111100   8.766   4.006  26.997 -0.1538  0.1026 -0.0176
22427DOD     C211101   8.445   3.829  26.665  0.1043  0.4963 -0.2075
22427DOD     C311102   8.188   3.727  26.350  0.1566 -0.2814 -0.0471
22428DOD     C111103   9.056  24.769  20.708 -0.0703  0.2825  0.1310
22428DOD     C211104   8.903  24.486  20.345 -0.2486 -0.1987 -0.1336
22428DOD     C311105   8.731  24.284  19.934  0.0553  0.0026  0.0009
22429DOD     C111106  20.739   8.840  18.616 -0.1202 -0.2978  0.1966
22429DOD     C211107  20.586   9.090  18.276  0.0470  0.1872 -0.0493
22429DOD     C311108  20.333   9.398  18.503 -0.2234 -0.0773 -0.2291
22430DOD     C111109   9.283  26.357  14.409 -0.0526 -0.3428  0.1006
22430DOD     C211110   9.302  26.808  14.299  0.0835 -0.0283 -0.0263
22430DOD     C311111   9.050  27.206  14.122  0.0059  0.2955  0.0213
22431DOD     C111112   2.492   3.714  18.879  0.0969  0.0856 -0.1462
22431DOD     C211113   2.815   3.800  18.556 -0.2201 -0.0538 -0.1251
22431DOD     C311114   3.212   3.940  18.406  0.2420  0.0286 -0.2086
22432DOD     C111115  20.519   2.697  12.284 -0.0553  0.0603  0.2335
22432DOD     C211116  20.772   2.613  12.665 -0.0568  0.1632  0.0731
22432DOD     C311117  20.862   2.885  13.046  0.1594 -0.1004  0.0505
22433DOD     C111118   9.431   5.123  17.293 -0.1843  0.2608  0.0130
22433DOD     C211119   9.318   4.637  17.269 -0.0120 -0.2299  0.0227
22433DOD     C311120   9.384   4.270  17.479  0.0818  0.3534  0.2270
22434DOD     C111121  20.252  11.636  18.066 -0.1540 -0.0246  0.2341
22434DOD     C211122  20.073  12.016  17.816 -0.0092 -0.1916  0.0138
22434DOD     C311123  19.726  12.319  17.884  0.2848  0.2534  0.5377
22435DOD     C111124   5.770   6.077  13.004 -0.1546  0.1201  0.0573
22435DOD     C211125   5.464   5.808  13.243 -0.2313 -0.2537 -0.2074
22435DOD     C311126   5.467   5.385  13.467 -0.1776  0.1449  0.1055
22436DOD     C111127   4.020  11.950  28.014 -0.0782  0.0637 -0.0561
22436DOD     C211128   3.969  11.506  27.796 -0.0732 -0.4022 -0.0684
22436DOD     C311129   3.841  11.311  27.373  0.0401  0.1170  0.0632
22437DOD     C111130   8.275  11.269  28.741 -0.0377 -0.0552 -0.0039
22437DOD     C211131   7.817  11.102  28.653 -0.0801 -0.0348 -0.2824
22437DOD     C311132   7.596  10.969  28.243  0.2431  0.2351 -0.1031
22438DOD     C111133  17.200   2.571   6.089 -0.1938 -0.0364  0.0704
22438DOD     C211134  17.248   2.275   5.688  0.1144 -0.0308 -0.0763
22438DOD     C311135  17.189   2.221   5.185  0.1393  0.1237 -0.0594
22439DOD     C111136   9.013   8.551   8.098 -0.0980  0.0430  0.3191
22439DOD     C211137   8.557   8.675   8.018  0.0838  0.3378  0.0133
22439DOD     C311138   8.113   8.474   7.982  0.1516  0.1546  0.0417
22440DOD     C111139   2.226  22.272  15.506  0.1745  0.1099  0.0010
22440DOD     C211140   2.502  22.637  15.675  0.1253 -0.0288 -0.2631
22440DOD     C311141   2.237  23.015  15.827 -0.2056 -0.2546  0.1758
22441DOD     C111142   0.390  17.187   6.880 -0.0274  0.1259 -0.2676
22441DOD     C211143   0.339  17.323   6.398  0.2517  0.0227 -0.1201
22441DOD     C311144   0.689  17.569   6.283  0.0911 -0.3061  0.1821
22442DOD     C111145   4.632  15.507   6.298  0.5067 -0.0847  0.4301
22442DOD     C211146   4.836  15.105   5.985  0.0409  0.0760  0.0681
22442DOD     C311147   5.022  14.872   5.646 -0.2526  0.0676 -0.3363
22443DOD     C111148   4.359  14.543  25.246  0.1356  0.2832  0.4406
22443DOD     C211149   4.218  14.157  25.032  0.1490  0.1917  0.0921
22443DOD     C311150   4.069  13.940  24.663 -0.0665  0.0876  0.0673
22444DOD     C111151  30.054  19.140  22.081 -0.1423 -0.0663  0.1378
22444DOD     C211152  30.271  19.140  22.509  0.4335  0.0301 -0.0420
22444DOD     C311153   0.055  19.307  22.968 -0.2867 -0.1729 -0.2300
22445DOD     C111154  21.089  19.603  30.135  0.0037 -0.2561  0.0362
22445DOD     C211155  20.874  19.798  29.746  0.1240  0.3144 -0.2337
22445DOD     C311156  20.813  19.767  29.300 -0.2369  0.1472 -0.1471
22446DOD     C111157   9.552  10.920  19.274 -0.2275 -0.1213  0.2762
22446DOD     C211158   9.193  10.580  19.201 -0.1198 -0.1993 -0.0607
22446DOD     C311159   8.822  10.467  18.943 -0.3109  0.0976 -0.2145
22447DOD     C111160  24.347  23.554  12.859 -0.1598  0.2141  0.1121
22447DOD     C211161  24.049  23.495  13.214  0.1074  0.0661 -0.1323
22447DOD     C311162  23.612  23.575  13.320 -0.1144 -0.0515 -0.1332
22448DOD     C111163  17.619   3.517  19.106  0.0116 -0.0976 -0.0032
22448DOD     C211164  17.986   3.490  19.401  0.2259 -0.1675  0.1882
22448DOD     C311165  18.299   3.246  19.685  0.1350  0.3412 -0.0117
22449DOD     C111166  24.466  14.544  26.536 -0.2259 -0.3126 -0.0156
22449DOD     C211167  24.056  14.476  26.282  0.2268 -0.1078 -0.2559
22449DOD     C311168  23.811  14.071  26.431 -0.1352 -0.0554 -0.0290
22450DOD     C111169  14.957  20.763  15.230 -0.2068  0.1347  0.1514
22450DOD     C211170  15.109  21.241  15.177  0.1590 -0.0798 -0.0728
22450DOD     C311171  15.230  21.680  15.117 -0.1782 -0.1418 -0.1515
22451DOD     C111172   3.936  12.364   9.562  0.1036  0.0355  0.0041
22451DOD     C211173   3.677  12.058   9.844  0.4005  0.1729 -0.0395
22451DOD     C311174   3.263  11.849   9.934 -0.3544 -0.3544 -0.4437
22452DOD     C111175  20.445  24.872   0.405  0.1483  0.1173  0.0317
22452DOD     C211176  20.750  24.697   0.692 -0.2540 -0.1726  0.2212
22452DOD     C311177  20.952  24.246   0.884 -0.3463  0.0214 -0.0887
22453DOD     C111178   2.982  20.445   3.014 -0.1786  0.0281  0.1102
22453DOD     C211179   3.417  20.529   2.897 -0.1854 -0.0292 -0.1032
22453DOD     C311180   3.847  20.627   2.970 -0.1440 -0.1871  0.0297
22454DOD     C111181   1.051   0.607  23.089  0.2660 -0.0463 -0.0541
22454DOD     C211182   1.048   0.162  22.856  0.4729  0.1076  0.0148
22454DOD     C311183   0.878  30.016  22.721 -0.1852  0.1331  0.1100
22455DOD     C111184  18.519  10.377  20.293 -0.0015  0.2821  0.2789
22455DOD     C211185  18.236  10.571  19.897 -0.3391  0.1501  0.1460
22455DOD     C311186  18.006  10.719  19.507 -0.3655 -0.0339  0.0359
22456DOD     C111187   1.768  18.836  19.356 -0.0929 -0.1593 -0.2274
22456DOD     C211188   1.569  18.609  19.713  0.0095 -0.0232 -0.0758
22456DOD     C311189   1.194  18.691  20.007  0.1634  0.2483 -0.0857
22457DOD     C111190  18.316   4.188   7.141 -0.1626 -0.0049 -0.0697
22457DOD     C211191  18.508   3.815   6.938 -0.0428  0.0879  0.0416
22457DOD     C311192  18.498   3.515   6.589  0.0379 -0.1848 -0.1289
22458DOD     C111193  22.028  15.167  23.187 -0.2361  0.2510  0.2004
22458DOD     C211194  21.753  15.524  23.360 -0.2062  0.1148  0.1304
22458DOD     C311195  21.561  15.791  23.763 -0.1587 -0.2639 -0.2433
22459DOD     C111196  18.145   3.387  10.616  0.2269 -0.1208  0.0257
22459DOD     C211197  18.231   3.554  11.058 -0.2230 -0.0343 -0.0125
22459DOD     C311198  18.247   3.627  11.555  0.1258  0.3217  0.0977
22460DOD     C111199  22.669   2.920   4.763  0.2607 -0.1770  0.2904
22460DOD     C211200  22.697   3.052   5.262 -0.1208  0.1436  0.0614
22460DOD     C311201  23.016   3.164   5.496 -0.2135  0.1021  0.1293
22461DOD     C111202  21.489  20.364  16.437  0.2602 -0.0003  0.2391
22461DOD     C211203  21.283  20.793  16.510 -0.0320  0.0171 -0.0794
22461DOD     C311204  21.390  21.245  16.675  0.4123 -0.1578 -0.0588
22462DOD     C111205  20.665   7.352  29.664 -0.0330 -0.2647 -0.0059
22462DOD     C211206  20.331   7.571  29.862  0.0153  0.2308 -0.1010
22462DOD     C311207  20.059   7.841  30.113  0.4357  0.0872 -0.2822
22463DOD     C111208  27.278   0.921   0.266 -0.3787 -0.3205  0.1579
22463DOD     C211209  27.700   1.130   0.380 -0.1974  0.2225  0.0087
22463DOD     C311210  27.807   1.405   0.761  0.4445 -0.1656 -0.0309
22464DOD     C111211   1.527   6.631  16.087 -0.1339  0.1315  0.3064
22464DOD     C211212   1.739   6.284  15.890 -0.2292 -0.1163 -0.0838
22464DOD     C311213   1.990   5.858  15.751  0.3141  0.2663  0.0208
22465DOD     C111214  14.669  29.735   5.379 -0.1300 -0.2404 -0.3920
22465DOD     C211215  14.681  30.039   5.748 -0.2354 -0.0194  0.0858
22465DOD     C311216  14.388  -0.012   5.917  0.0184 -0.0212  0.0454
22466DOD     C111217  22.547  29.238   5.522  0.3214  0.0294  0.2125
22466DOD     C211218  22.850  29.428   5.785  0.1873  0.3786 -0.0178
22466DOD     C311219  22.828  29.776   6.100 -0.2340 -0.1686  0.1238
22467DOD     C111220  11.299  24.055  18.487 -0.3428 -0.1146  0.1427
22467DOD     C211221  11.282  24.434  18.736 -0.0538 -0.2443 -0.2002
22467DOD     C311222  11.470  24.731  19.007  0.1795 -0.1051 -0.0930
22468DOD     C111223   2.816  15.967  11.883 -0.0415  0.0758 -0.4131
22468DOD     C211224   2.733  16.397  12.035 -0.0560  0.2129 -0.1589
22468DOD     C311225   2.471  16.753  12.108 -0.3945  0.2412  0.0420
22469DOD     C111226  20.170   2.704   3.170  0.0773  0.1384  0.3104
22469DOD     C211227  20.041   2.335   3.450 -0.0528  0.0647  0.0362
22469DOD     C311228  20.211   2.144   3.856 -0.1153 -0.1031 -0.1850
22470DOD     C111229  19.753  20.829  27.636 -0.0120 -0.0727  0.1525
22470DOD     C211230  19.299  20.857  27.558 -0.2590 -0.1162  0.1449
22470DOD     C311231  19.018  20.779  27.206  0.4168  0.1507  0.0458
22471DOD     C111232  25.508  12.143  26.513  0.0707  0.2474 -0.0422
22471DOD     C211233  25.583  12.073  26.955 -0.1844  0.2041  0.0599
22471DOD     C311234  25.795  12.351  27.270  0.2829  0.0034 -0.1299
22472DOD     C111235   4.576  16.757   3.879 -0.1438  0.0842  0.1929
22472DOD     C211236   4.538  17.192   4.032  0.0265  0.0081 -0.0441
22472DOD     C311237   4.555  17.626   4.201  0.0253  0.1407 -0.2995
22473DOD     C111238  21.317  26.498   1.086 -0.3163 -0.3926 -0.1372
22473DOD     C211239  21.278  26.498   0.678 -0.2820  0.0771  0.4003
22473DOD     C311240  20.861  26.458   0.505 -0.0471 -0.3762 -0.0509
22474DOD     C111241  20.650  29.593  17.190 -0.3513 -0.0849  0.0600
22474DOD     C211242  20.433  29.189  17.149 -0.0064 -0.1396  0.1619
22474DOD     C311243  20.289  28.883  16.834  0.0763  0.1934 -0.3351
22475DOD     C111244  11.001   2.210  19.750 -0.1213  0.1170  0.2167
22475DOD     C211245  11.075   2.466  19.385 -0.2344  0.1773  0.3973
22475DOD     C311246  11.192   2.323  18.908  0.1888  0.0035 -0.0323
22476DOD     C111247   8.176  24.464  15.293 -0.0104  0.0400  0.0341
22476DOD     C211248   8.134  24.421  15.718  0.1283 -0.0817 -0.3519
22476DOD     C311249   8.039  24.191  16.109  0.0709  0.2946 -0.1771
22477DOD     C111250  14.136   7.569   9.316  0.2401 -0.1166  0.1868
22477DOD     C211251  14.257   7.871   9.670 -0.0017  0.1376 -0.0192
22477DOD     C311252  14.312   8.309   9.720 -0.3785 -0.3014  0.0108
22478DOD     C111253   3.261  18.081   0.260 -0.0576  0.2816  0.0320
22478DOD     C211254   3.033  18.419   0.490  0.4105  0.0157 -0.2019
22478DOD     C311255   2.731  18.668   0.692 -0.0075  0.0265 -0.0880
22479DOD     C111256  13.281  14.853  18.365 -0.0548  0.3773  0.0648
22479DOD     C211257  12.878  14.890  18.634  0.3297  0.0202  0.0879
22479DOD     C311258  12.530  14.703  18.854  0.1635 -0.0966 -0.0949
22480DOD     C111259  27.190  28.855   4.482  0.3713  0.2267 -0.1825
22480DOD     C211260  26.921  29.196   4.346 -0.0957  0.0352  0.2057
22480DOD     C311261  26.715  29.517   4.085  0.2572  0.1867 -0.2769
22481DOD     C111262  28.929  21.128   8.097 -0.0244  0.1624  0.1563
22481DOD     C211263  28.650  21.376   7.942  0.1049  0.3409  0.0745
22481DOD     C311264  28.137  21.307   7.992  0.1249 -0.2533 -0.0618
22482DOD     C111265   4.445  28.193  18.037  0.1217 -0.0128  0.0402
22482DOD     C211266   4.499  27.829  17.689  0.0643 -0.1085 -0.0827
22482DOD     C311267   4.777  27.897  17.326  0.3423  0.2017  0.1956
22483DOD     C111268  14.382   7.432  10.986 -0.0833  0.2724 -0.0485
22483DOD     C211269  14.407   7.427  10.489  0.1737  0.0686  0.1151
22483DOD     C311270  14.457   7.446  10.040  0.2270  0.1123  0.0569
22484DOD     C111271  24.842  16.571  17.536  0.1403  0.1104  0.2146
22484DOD     C211272  24.943  16.447  17.935 -0.0291  0.0050 -0.1015
22484DOD     C311273  24.940  16.559  18.393  0.1260  0.0188  0.0575
22485DOD     C111274   7.718  18.209  16.844  0.1861  0.0155  0.1475
22485DOD     C211275   7.967  18.164  17.248  0.0887 -0.2264  0.0608
22485DOD     C311276   7.898  18.087  17.673 -0.0200  0.1138 -0.0272
22486DOD     C111277  10.296  28.815  29.397 -0.0456 -0.2665  0.1340
22486DOD     C211278   9.990  28.650  29.047  0.3543 -0.4941  0.3028
22486DOD     C311279   9.948  28.198  28.970 -0.1422  0.0185  0.0782
22487DOD     C111280  14.274  23.402  19.569  0.2284 -0.0471  0.3328
22487DOD     C211281  14.494  23.748  19.721  0.2961 -0.0888  0.0436
22487DOD     C311282  14.780  24.047  19.965  0.1944  0.1562 -0.0955
22488DOD     C111283  25.122   2.457  21.550 -0.0947 -0.0149  0.3756
22488DOD     C211284  24.743   2.607  21.256  0.0831 -0.1210  0.0218
22488DOD     C311285  24.722   2.753  20.828 -0.0249  0.0520  0.2241
22489DOD     C111286   9.778   9.180   1.669 -0.2831 -0.3782 -0.0192
22489DOD     C211287   9.672   9.668   1.601 -0.2911 -0.1982 -0.0385
22489DOD     C311288   9.859  10.060   1.562 -0.3611 -0.2007  0.2561
22490DOD     C111289  29.699   8.953   4.462  0.2028  0.3710  0.0078
22490DOD     C211290  29.670   8.811   4.927  0.3865  0.2776 -0.1964
22490DOD     C311291  29.723   8.670   5.375  0.3223 -0.3105  0.2680
22491DOD     C111292  21.761  20.151  15.996  0.1418 -0.0571  0.4351
22491DOD     C211293  21.643  20.121  15.606  0.2176  0.1756 -0.1447
22491DOD     C311294  21.444  19.957  15.208 -0.4351  0.0016  0.1013
22492DOD     C111295   3.583  24.684  10.499  0.1292 -0.2137 -0.0727
22492DOD     C211296   3.397  24.431  10.869 -0.1604  0.0452  0.1788
22492DOD     C311297   3.351  24.006  11.017 -0.2057 -0.0719  0.1260
22493DOD     C111298  14.274  28.273  14.696  0.1599  0.0544  0.2258
22493DOD     C211299  14.440  28.277  14.198 -0.1191  0.0618 -0.1117
22493DOD     C311300  14.809  28.285  13.919 -0.1599  0.2102  0.3585
22494DOD     C111301   7.411  12.836  14.422 -0.3875  0.2406  0.2098
22494DOD     C211302   7.536  13.254  14.228 -0.2050  0.1154  0.0113
22494DOD     C311303   7.582  13.611  13.944 -0.1296  0.2677  0.1311
22495DOD     C111304  20.468  14.016  14.707 -0.0316 -0.1110  0.3411
22495DOD     C211305  20.863  14.210  14.654  0.3261  0.1070 -0.1497
22495DOD     C311306  21.273  14.327  14.450  0.1769 -0.0042 -0.1205
22496DOD     C111307   3.898  24.001   1.562 -0.1284  0.1848 -0.1176
22496DOD     C211308   3.711  24.405   1.663 -0.1285  0.0852 -0.0288
22496DOD     C311309   3.739  24.873   1.692 -0.2982 -0.0869  0.0978
22497DOD     C111310  27.499   6.115  14.790  0.1000  0.0895  0.0912
22497DOD     C211311  27.178   5.815  14.955  0.1887 -0.2914  0.1523
22497DOD     C311312  27.031   5.661  15.385  0.2295  0.0596 -0.3556
22498DOD     C111313  11.382   2.336  23.724 -0.1310 -0.1152 -0.3092
22498DOD     C211314  10.963   2.329  23.977 -0.1432  0.0205 -0.0683
22498DOD     C311315  10.515   2.362  23.928  0.2362 -0.1857 -0.2244
22499DOD     C111316  24.422   7.291  11.378  0.0824  0.1502  0.4745
22499DOD     C211317  24.312   7.551  11.714  0.1062 -0.1526 -0.1259
22499DOD     C311318  24.480   7.766  12.146 -0.1056 -0.1102  0.2521
22500DOD     C111319  26.742  11.319  19.856  0.1892  0.0458 -0.0492
22500DOD     C211320  26.599  11.537  19.455 -0.0039 -0.0966  0.1349
22500DOD     C311321  26.751  11.734  19.028 -0.0215 -0.1164  0.1622
22501DOD     C111322  23.255   7.752  28.988  0.3926  0.0216  0.0405
22501DOD     C211323  22.827   8.021  29.051  0.1460 -0.1867 -0.2605
22501DOD     C311324  22.457   8.255  28.846  0.0223  0.2486 -0.0467
22502DOD     C111325   8.953  18.305  12.897  0.0641 -0.0437  0.0218
22502DOD     C211326   9.270  18.127  12.641 -0.4312 -0.0642  0.2233
22502DOD     C311327   9.407  18.010  12.265  0.1667  0.2224  0.0710
22503DOD     C111328  29.617   1.737  14.074 -0.1481  0.1687  0.1174
22503DOD     C211329  29.947   1.980  14.289 -0.1801 -0.0667 -0.1333
22503DOD     C311330  30.238   2.293  14.269  0.1329  0.2256  0.2068
22504DOD     C111331   1.304  24.647  14.814  0.0669  0.2231  0.0120
22504DOD     C211332   0.858  24.809  14.908 -0.1045  0.1390  0.1971
22504DOD     C311333   0.434  25.002  14.827 -0.0821 -0.1662  0.1272
22505DOD     C111334  22.495   1.321  12.296  0.1349  0.1619 -0.1307
22505DOD     C211335  22.798   1.655  12.134 -0.0164  0.0542 -0.2366
22505DOD     C311336  23.256   1.630  11.975  0.1548 -0.1646 -0.0006
22506DOD     C111337   6.071  16.218   1.387 -0.0292 -0.3416 -0.4871
22506DOD     C211338   6.324  16.468   1.737  0.2177 -0.1575 -0.0749
22506DOD     C311339   6.422  16.913   1.935  0.1444  0.2018  0.0935
22507DOD     C111340  27.879  18.583   5.595  0.3154 -0.2488 -0.1601
22507DOD     C211341  28.140  18.778   5.236 -0.0216  0.0398 -0.2855
22507DOD     C311342  28.370  19.142   4.997  0.0255  0.0216  0.0199
22508DOD     C111343  15.153  27.153  25.434  0.0541  0.1233 -0.0487
22508DOD     C211344  15.111  26.755  25.631  0.2287  0.2362  0.0288
22508DOD     C311345  14.908  26.695  26.081  0.1291 -0.5400 -0.1128
22509DOD     C111346   0.564  10.034  29.210 -0.1653 -0.0340  0.0651
22509DOD     C211347   0.909   9.888  29.505 -0.3676 -0.0302 -0.2294
22509DOD     C311348   1.376  10.032  29.440  0.0632  0.0155  0.0793
22510DOD     C111349  22.894  24.113   0.717 -0.0843  0.1548 -0.2083
22510DOD     C211350  22.436  24.305   0.789  0.0936  0.2715  0.1540
22510DOD     C311351  22.240  24.625   1.150  0.0883  0.2683 -0.0934
22511DOD     C111352  26.097   7.806   0.414 -0.4640  0.0077 -0.1495
22511DOD     C211353  26.016   8.214   0.527 -0.0252 -0.0759 -0.2330
22511DOD     C311354  26.143   8.654   0.674 -0.3413  0.1040 -0.0051
22512DOD     C111355  27.430  15.908  24.040 -0.0432  0.3638 -0.2796
22512DOD     C211356  27.321  16.278  23.854 -0.0009 -0.3204  0.0188
22512DOD     C311357  26.978  16.561  23.665  0.0190  0.1113 -0.1580
22513DOD     C111358   0.820  27.864  28.057 -0.0140 -0.0449 -0.0158
22513DOD     C211359   0.810  28.342  28.091  0.0830 -0.2301  0.0260
22513DOD     C311360   0.867  28.739  28.246  0.0892 -0.2177 -0.1007
22514DOD     C111361  19.732   9.606   6.023  0.1105  0.1001 -0.2811
22514DOD     C211362  20.086   9.794   6.151 -0.1111 -0.1670  0.1927
22514DOD     C311363  20.324  10.112   6.335 -0.2763 -0.1582  0.0421
22515DOD     C111364   7.436  22.012  14.650 -0.2019  0.0808 -0.1912
22515DOD     C211365   7.646  22.312  14.934 -0.0973  0.2747  0.0542
22515DOD     C311366   7.789  22.668  15.235 -0.3063 -0.0552  0.2843
22516DOD     C111367   7.842   3.263  10.419 -0.0752  0.0508  0.3029
22516DOD     C211368   8.300   3.334  10.358  0.0745 -0.2122  0.0464
22516DOD     C311369   8.713   3.519  10.408 -0.2477  0.2207  0.0911
22517DOD     C111370   2.408  12.027  25.519  0.1639  0.1251  0.1899
22517DOD     C211371   2.207  12.384  25.666 -0.0024 -0.2435  0.0116
22517DOD     C311372   2.158  12.829  25.629  0.2626 -0.2705 -0.4691
22518DOD     C111373  28.555  22.844  10.671  0.0176 -0.1587 -0.1576
22518DOD     C211374  28.473  23.289  10.847  0.1565  0.0343 -0.2971
22518DOD     C311375  28.611  23.516  11.260  0.0140 -0.0240 -0.0677
22519DOD     C111376  19.362  17.852  12.672 -0.1973 -0.3584  0.1376
22519DOD     C211377  19.127  18.081  12.358  0.0373 -0.0288 -0.0028
22519DOD     C311378  19.073  17.901  11.926  0.0746 -0.1240  0.1273
22520DOD     C111379  23.732   4.104  23.535  0.1515 -0.1186  0.1726
22520DOD     C211380  23.787   4.179  23.090  0.1290  0.1290  0.2392
22520DOD     C311381  24.215   4.220  22.887 -0.1807  0.0918  0.1549
22521DOD     C111382   6.456  29.113  15.637 -0.0425  0.0188 -0.2660
22521DOD     C211383   6.503  28.690  15.370 -0.3281 -0.0427 -0.0534
22521DOD     C311384   6.546  28.250  15.245 -0.4672 -0.1139  0.1385
22522DOD     C111385   8.874  12.276   6.442  0.1637  0.1842  0.2021
22522DOD     C211386   9.023  11.795   6.334  0.1783 -0.0069  0.1468
22522DOD     C311387   8.748  11.629   5.964  0.0166 -0.0676  0.0580
22523DOD     C111388   8.704  21.813  11.209  0.0536 -0.2304  0.3775
22523DOD     C211389   8.746  21.351  11.243 -0.1922  0.0063 -0.3567
22523DOD     C311390   8.945  20.929  11.283 -0.2804  0.0481 -0.3250
22524DOD     C111391   1.644  27.592   9.538 -0.1419  0.1987  0.1971
22524DOD     C211392   1.951  27.802   9.274 -0.0173  0.1181 -0.0997
22524DOD     C311393   2.002  27.807   8.803  0.0696  0.1673 -0.0824
22525DOD     C111394  16.488   6.634  21.120  0.0226  0.2538 -0.2685
22525DOD     C211395  16.509   6.436  20.682 -0.0373  0.0669 -0.1036
22525DOD     C311396  16.530   6.147  20.369  0.1265 -0.0827  0.1730
22526DOD     C111397  14.574  29.248  29.045 -0.1634  0.0680 -0.2241
22526DOD     C211398  14.400  28.840  28.973  0.1074 -0.0421  0.3084
22526DOD     C311399  14.190  28.525  28.759  0.0456 -0.1772 -0.0137
22527DOD     C111400  10.408   6.570  13.793 -0.2053  0.1259  0.1902
22527DOD     C211401   9.957   6.493  13.913  0.0644  0.0265  0.0401
22527DOD     C311402   9.623   6.440  14.283  0.2905  0.1367  0.3369
22528DOD     C111403  16.527  16.573  23.542  0.2061  0.1046 -0.1194
22528DOD     C211404  16.638  16.466  23.074 -0.1938  0.0407 -0.0365
22528DOD     C311405  16.834  16.537  22.611 -0.0347 -0.2090  0.3416
22529DOD     C111406  17.944   0.066  24.145 -0.0477 -0.0621  0.0386
22529DOD     C211407  17.935   0.056  23.701  0.0859  0.0039 -0.1454
22529DOD     C311408  17.977   0.179  23.258 -0.0043 -0.2883 -0.3062
22530DOD     C111409   4.088   4.319  18.651 -0.1519 -0.0693  0.0386
22530DOD     C211410   4.001   4.633  18.944  0.1316  0.0001 -0.1213
22530DOD     C311411   4.187   4.969  19.235 -0.1559 -0.4055 -0.0541
22531DOD     C111412  29.999  22.622  18.641 -0.0129 -0.0059 -0.0794
22531DOD     C211413  30.258  22.623  19.018  0.0617 -0.1311 -0.3581
22531DOD     C311414   0.389  22.541  19.198  0.1302  0.4179  0.1342
22532DOD     C111415   1.640  22.902   8.130 -0.0112  0.0399  0.1452
22532DOD     C211416   2.098  22.782   8.251 -0.1094  0.1427  0.2042
22532DOD     C311417   2.609  22.806   8.195 -0.0450 -0.2109 -0.0967
22533DOD     C111418   9.047  26.193  28.613 -0.0262  0.0665 -0.2052
22533DOD     C211419   9.078  26.502  28.299  0.1411  0.1743  0.2185
22533DOD     C311420   9.007  26.474  27.849 -0.0168  0.0955 -0.0860
22534DOD     C111421   2.160  10.584  10.856 -0.1304 -0.0027 -0.0594
22534DOD     C211422   1.972  10.429  11.299 -0.0482  0.4842 -0.0723
22534DOD     C311423   1.923  10.363  11.778  0.1238 -0.1985  0.0814
22535DOD     C111424  26.049  11.235  21.996 -0.0961  0.0595  0.1579
22535DOD     C211425  26.471  11.336  21.839  0.2642 -0.1748 -0.1182
22535DOD     C311426  26.741  11.369  21.477 -0.0907 -0.2465  0.1165
22536DOD     C111427   5.567  25.341  12.156  0.1467  0.2887 -0.1397
22536DOD     C211428   5.338  25.791  12.124  0.3267 -0.2693 -0.3522
22536DOD     C311429   5.442  26.156  12.360 -0.2703 -0.0803 -0.3444
22537DOD     C111430  24.637  29.837   5.690  0.2608 -0.3147 -0.0712
22537DOD     C211431  24.399  29.864   5.279  0.0703 -0.1098  0.1434
22537DOD     C311432  24.393  30.146   4.878  0.1943 -0.1000 -0.2174
22538DOD     C111433  12.604   4.552   1.214 -0.0955 -0.5618  0.2183
22538DOD     C211434  12.351   4.411   0.867  0.1275  0.0080  0.3263
22538DOD     C311435  12.259   4.400   0.419 -0.2065 -0.0450  0.0390
22539DOD     C111436  11.143  12.534   9.566 -0.0785  0.1167  0.1105
22539DOD     C211437  11.570  12.461   9.743 -0.0050  0.0191  0.2539
22539DOD     C311438  11.894  12.251   9.473  0.0996  0.2295 -0.1126
22540DOD     C111439   0.407   3.899  18.327 -0.0139  0.3096  0.2357
22540DOD     C211440   0.613   3.491  18.292  0.1971 -0.1605 -0.1269
22540DOD     C311441   0.936   3.295  18.558  0.0174  0.0272  0.1539
22541DOD     C111442  19.468   3.972  23.726 -0.0261  0.3732  0.0769
22541DOD     C211443  19.596   3.639  23.448 -0.0500 -0.0335  0.3516
22541DOD     C311444  19.513   3.356  23.095 -0.0786 -0.2126  0.2991
22542DOD     C111445  25.382  13.438  19.714 -0.1884  0.0572  0.0319
22542DOD     C211446  25.028  13.256  19.939 -0.1457  0.1415 -0.2437
22542DOD     C311447  24.688  12.997  20.067  0.2263 -0.0361 -0.2357
22543DOD     C111448   2.287  11.631  20.026 -0.0122  0.0690  0.0691
22543DOD     C211449   2.241  11.131  19.933 -0.1910 -0.0941 -0.1527
22543DOD     C311450   2.206  10.866  19.532  0.0771 -0.1780  0.2164
22544DOD     C111451  12.354   5.334   6.782  0.1839  0.1305 -0.0795
22544DOD     C211452  12.065   5.023   6.560 -0.0652 -0.2091 -0.2925
22544DOD     C311453  11.857   4.631   6.374  0.0895  0.2132  0.1769
22545DOD     C111454   4.398  18.094   4.043  0.1848  0.1730 -0.0356
22545DOD     C211455   4.662  18.050   4.394  0.0935  0.3100 -0.1554
22545DOD     C311456   4.942  17.741   4.620 -0.1188 -0.1428  0.0750
22546DOD     C111457   3.570  15.438   5.197  0.1428 -0.1084  0.1736
22546DOD     C211458   3.318  15.118   5.026 -0.1974  0.1419  0.0365
22546DOD     C311459   3.068  14.686   4.998  0.0048 -0.0251  0.2192
22547DOD     C111460  26.322  22.329  24.494 -0.1995 -0.0511  0.1891
22547DOD     C211461  26.149  21.984  24.176 -0.2422  0.0789  0.1961
22547DOD     C311462  25.851  21.598  24.038 -0.0892 -0.2393  0.3489
22548DOD     C111463  14.342   3.186   7.430  0.2342  0.0508 -0.2310
22548DOD     C211464  14.273   2.812   7.703  0.0906 -0.3509  0.1009
22548DOD     C311465  14.134   2.594   8.080  0.1937 -0.0000  0.0299
22549DOD     C111466   7.328   0.168  12.770 -0.4032 -0.1154 -0.0975
22549DOD     C211467   7.211   0.427  12.434 -0.0425  0.3064 -0.3212
22549DOD     C311468   6.932   0.529  12.045 -0.1019 -0.2836  0.0072
22550DOD     C111469  15.309  19.195  27.015  0.2222  0.2547  0.0348
22550DOD     C211470  15.679  18.969  27.214 -0.3630  0.2252  0.0090
22550DOD     C311471  15.835  18.551  27.436 -0.2854 -0.0738  0.1104
22551DOD     C111472   9.404   1.288  26.497 -0.1188  0.0630  0.0685
22551DOD     C211473   9.058   1.621  26.508  0.0147  0.0586  0.1594
22551DOD     C311474   8.626   1.607  26.338  0.0896  0.0219  0.3142
22552DOD     C111475  29.475  13.671  26.408 -0.1413 -0.1706  0.3542
22552DOD     C211476  29.491  14.127  26.322  0.1252 -0.2407 -0.0356
22552DOD     C311477  29.607  14.596  26.390  0.1690 -0.2844 -0.3507
22553DOD     C111478  16.983  12.091  21.304  0.0034 -0.0265  0.1487
22553DOD     C211479  16.534  11.963  21.356  0.2358 -0.0757 -0.0195
22553DOD     C311480  16.159  11.786  21.132  0.1238  0.1455  0.4663
22554DOD     C111481  16.603  29.295  25.292 -0.0719  0.1085 -0.0056
22554DOD     C211482  16.294  29.633  25.205 -0.3034 -0.0309  0.0810
22554DOD     C311483  15.956  29.874  24.969 -0.1750 -0.3140  0.1118
22555DOD     C111484  20.684  23.416  17.451 -0.0218  0.2384 -0.1006
22555DOD     C211485  20.257  23.370  17.214 -0.0376  0.3583  0.2884
22555DOD     C311486  20.099  23.008  16.872  0.2387  0.2243 -0.1409
22556DOD     C111487  12.439   6.754  18.003  0.0870  0.2917  0.1156
22556DOD     C211488  12.050   6.542  18.170 -0.1554  0.1052 -0.1168
22556DOD     C311489  11.790   6.266  18.516 -0.2140  0.0266 -0.2436
22557DOD     C111490  25.919  23.881  23.691  0.0044  0.3132  0.1089
22557DOD     C211491  25.559  23.898  24.022  0.1178 -0.3551 -0.0096
22557DOD     C311492  25.256  23.804  24.342  0.5246  0.2885 -0.1555
22558DOD     C111493  23.924  27.056   6.698  0.0047 -0.1833  0.1459
22558DOD     C211494  24.199  27.234   7.060  0.2881 -0.0632 -0.3496
22558DOD     C311495  24.339  27.198   7.514  0.1276  0.0535  0.1445
22559DOD     C111496  23.405   4.984  16.144  0.0919  0.0891  0.1839
22559DOD     C211497  23.392   5.220  16.508 -0.1470  0.1225 -0.1418
22559DOD     C311498  23.358   5.461  16.837 -0.1361  0.1936 -0.0984
22560DOD     C111499   7.726  13.612  27.739  0.1356  0.1323  0.1957
22560DOD     C211500   7.856  13.183  27.642  0.1072  0.0492  0.3992
22560DOD     C311501   7.615  12.774  27.546 -0.2467 -0.0207 -0.1304
22561DOD     C111502  24.876  21.848   1.696  0.4960 -0.2636  0.0012
22561DOD     C211503  24.649  21.443   1.517  0.1205 -0.0546 -0.0223
22561DOD     C311504  24.499  21.194   1.175  0.0675 -0.0925  0.2278
22562DOD     C111505  19.130   6.356  27.139 -0.1782 -0.3452  0.2640
22562DOD     C211506  19.591   6.304  27.146 -0.0638 -0.0149 -0.1004
22562DOD     C311507  19.839   5.969  27.397  0.0610 -0.3754  0.1307
22563DOD     C111508   7.766   4.098   7.801 -0.1934 -0.1683  0.1569
22563DOD     C211509   7.566   3.703   7.858 -0.0736 -0.0414  0.1233
22563DOD     C311510   7.656   3.336   7.589 -0.2434  0.2424 -0.0379
22564DOD     C111511  29.175  26.570  28.117 -0.0796  0.4284  0.0409
22564DOD     C211512  29.425  26.333  27.725 -0.0674 -0.1721  0.0405
22564DOD     C311513  29.850  26.524  27.569 -0.0847  0.1287 -0.0023
22565DOD     C111514  21.074  11.307  12.678  0.0768  0.2997  0.1659
22565DOD     C211515  20.657  11.065  12.844  0.0173  0.3035 -0.2740
22565DOD     C311516  20.213  10.801  12.852 -0.0107  0.0231  0.1291
22566DOD     C111517  12.186   7.359  16.101 -0.1261  0.2717 -0.0403
22566DOD     C211518  12.416   7.017  15.968  0.0365  0.0057  0.4003
22566DOD     C311519  12.810   6.938  15.766  0.0854 -0.1379 -0.0451
22567DOD     C111520  14.818   9.257  10.016 -0.1561  0.3659 -0.0666
22567DOD     C211521  14.425   9.535   9.850  0.1626  0.1533  0.2610
22567DOD     C311522  14.483   9.758   9.427  0.0883  0.3038 -0.1245
22568DOD     C111523  25.793   3.708  18.915 -0.0099  0.1694 -0.0342
22568DOD     C211524  26.177   3.934  18.717 -0.2863 -0.2868 -0.0293
22568DOD     C311525  26.589   3.998  18.536 -0.2937 -0.1840  0.2067
22569DOD     C111526  17.845  15.436  26.756  0.1492  0.0561 -0.0086
22569DOD     C211527  17.563  15.100  26.952 -0.2444 -0.0884 -0.3633
22569DOD     C311528  17.405  14.679  26.950  0.0694  0.2340  0.0779
22570DOD     C111529   5.186  26.754  20.772  0.0673  0.0041  0.0141
22570DOD     C211530   5.338  26.591  21.210  0.2025  0.0131 -0.1488
22570DOD     C311531   5.730  26.409  21.401 -0.3434  0.0556 -0.1005
22571DOD     C111532  26.805   1.072   4.447  0.1233  0.1181  0.1730
22571DOD     C211533  26.414   1.271   4.291 -0.0426  0.0631 -0.3717
22571DOD     C311534  25.997   1.148   4.152  0.2406 -0.2293  0.2126
22572DOD     C111535  11.158   0.555  28.224  0.1609 -0.1580 -0.3069
22572DOD     C211536  10.868   0.718  28.566  0.0488 -0.1936 -0.3178
22572DOD     C311537  10.456   0.982  28.453  0.0078  0.1607  0.1070
22573DOD     C111538   3.215   8.217  15.441 -0.0737  0.0177 -0.0050
22573DOD     C211539   3.150   7.754  15.438  0.1048  0.3779 -0.0332
22573DOD     C311540   3.004   7.319  15.572 -0.0099  0.2735  0.2179
22574DOD     C111541  16.965   7.040   9.984 -0.1399 -0.0873 -0.0295
22574DOD     C211542  17.146   7.304  10.354  0.0989 -0.0439 -0.1981
22574DOD     C311543  17.165   7.383  10.837  0.0481  0.0105 -0.3290
22575DOD     C111544   4.197   4.811  30.326 -0.0641  0.2595  0.1056
22575DOD     C211545   4.275   5.211  30.104 -0.3227 -0.0237 -0.1353
22575DOD     C311546   4.024   5.114  29.758  0.3458  0.1194 -0.0959
22576DOD     C111547  29.922  16.021  15.998 -0.1234 -0.0293  0.5217
22576DOD     C211548  29.737  15.778  16.371 -0.1144 -0.1894  0.1063
22576DOD     C311549  29.608  15.588  16.773 -0.0658  0.2524 -0.0061
22577DOD     C111550   0.979   2.247   9.720 -0.4157 -0.0278  0.2213
22577DOD     C211551   1.099   2.098   9.274  0.2234  0.1530  0.0026
22577DOD     C311552   0.966   1.850   8.905 -0.1915 -0.2902  0.1184
22578DOD     C111553   9.003  21.933  11.656  0.0077  0.1438 -0.2664
22578DOD     C211554   8.920  22.266  11.344 -0.0060  0.2459  0.0767
22578DOD     C311555   8.840  22.503  10.946 -0.1734 -0.0140  0.4527
22579DOD     C111556  16.787   9.965  16.052  0.0959  0.0899  0.1130
22579DOD     C211557  17.268   9.795  16.077  0.2332  0.0323  0.2326
22579DOD     C311558  17.546   9.711  16.395 -0.0911  0.2902 -0.0111
22580DOD     C111559  10.294  23.599  20.513  0.2030  0.0464 -0.1855
22580DOD     C211560   9.897  23.354  20.725 -0.0825  0.1200  0.1631
22580DOD     C311561   9.587  23.099  21.017 -0.3356  0.4308  0.1588
22581DOD     C111562  12.526  14.236  22.207 -0.2111 -0.0051  0.2876
22581DOD     C211563  12.965  14.113  22.025 -0.0067  0.2219 -0.0320
22581DOD     C311564  13.351  13.928  22.302 -0.0804 -0.0195  0.0657
22582DOD     C111565  27.543  26.430  25.522  0.2112  0.2050  0.0066
22582DOD     C211566  27.741  26.494  25.916 -0.0569 -0.1663  0.0424
22582DOD     C311567  27.824  26.956  26.018 -0.1810 -0.1988  0.0890
22583DOD     C111568   8.953   3.238  18.490 -0.1242  0.0368  0.0959
22583DOD     C211569   9.107   3.083  18.891 -0.3505 -0.2274  0.2485
22583DOD     C311570   9.391   3.087  19.201  0.2228  0.2330  0.0051
22584DOD     C111571  18.782  25.498  17.924 -0.0871 -0.0434 -0.4268
22584DOD     C211572  18.553  25.120  17.740 -0.1682 -0.1157 -0.1611
22584DOD     C311573  18.165  24.897  17.795 -0.0512  0.0109 -0.1317
22585DOD     C111574  28.014  22.642   4.448 -0.1228 -0.3295 -0.1554
22585DOD     C211575  27.652  22.739   4.158 -0.0777  0.0467 -0.2860
22585DOD     C311576  27.636  23.059   3.765  0.0725 -0.0834  0.1278
22586DOD     C111577  14.466  11.179   4.890  0.2739 -0.0151 -0.1014
22586DOD     C211578  14.561  10.986   4.481 -0.1523  0.0008 -0.1190
22586DOD     C311579  14.485  10.991   4.028 -0.3147  0.0813 -0.4486
22587DOD     C111580   3.694   9.813  25.401 -0.3070 -0.0196 -0.0079
22587DOD     C211581   3.464   9.455  25.174 -0.0755  0.1112 -0.0845
22587DOD     C311582   3.347   9.336  24.772 -0.4088 -0.2062  0.0868
22588DOD     C111583   5.809  18.496   2.886  0.2686  0.2306 -0.0431
22588DOD     C211584   5.465  18.343   3.132  0.1132 -0.0425 -0.1575
22588DOD     C311585   4.991  18.360   3.260 -0.0109  0.1423 -0.2504
22589DOD     C111586  14.374   6.077  11.033  0.1656  0.1760  0.0317
22589DOD     C211587  14.421   5.918  10.617  0.1418 -0.0102  0.1636
22589DOD     C311588  14.194   5.617  10.281  0.0518 -0.1058  0.2719
22590DOD     C111589   4.928   9.693   8.085 -0.1124  0.1342 -0.0623
22590DOD     C211590   4.861   9.762   8.574 -0.0746 -0.0104  0.1052
22590DOD     C311591   5.088  10.153   8.692 -0.0398  0.2521  0.3995
22591DOD     C111592   2.757   5.546  21.414 -0.1635  0.3066 -0.1824
22591DOD     C211593   2.979   5.818  21.154  0.0676 -0.1279  0.0342
22591DOD     C311594   3.189   6.134  20.983 -0.3420 -0.1937 -0.2292
22592DOD     C111595  27.253   6.076   4.170  0.0785  0.0754  0.0920
22592DOD     C211596  26.926   6.407   4.318  0.1115 -0.0566 -0.0826
22592DOD     C311597  26.747   6.872   4.379  0.0422 -0.0077  0.0003
22593DOD     C111598  10.272  23.330   5.686 -0.2421  0.0940  0.0088
22593DOD     C211599  10.707  23.284   5.473  0.2226 -0.1267  0.0277
22593DOD     C311600  11.057  22.935   5.358 -0.3518 -0.1913  0.2267
22594DOD     C111601  11.402  25.424   5.876 -0.0026 -0.1274 -0.0821
22594DOD     C211602  11.467  25.926   5.875 -0.2603 -0.0500  0.3047
22594DOD     C311603  11.592  26.205   5.492  0.1628 -0.0439  0.2163
22595DOD     C111604   4.173   1.471   3.098 -0.2817  0.0245  0.0586
22595DOD     C211605   4.203   1.662   2.678 -0.0728 -0.1787 -0.1871
22595DOD     C311606   4.088   1.652   2.221  0.1161  0.1999 -0.0257
22596DOD     C111607  26.660  28.408  10.544 -0.1816 -0.0141 -0.0060
22596DOD     C211608  26.775  28.193  10.973 -0.2350 -0.1166 -0.2950
22596DOD     C311609  26.697  27.855  11.250  0.1633 -0.1452 -0.1260
22597DOD     C111610  19.259  11.980   8.914  0.1124 -0.0524  0.0731
22597DOD     C211611  19.055  12.161   9.334  0.1207  0.4251  0.2378
22597DOD     C311612  18.817  12.532   9.533  0.1823 -0.1711 -0.1805
22598DOD     C111613  17.726  16.526   4.152  0.2403  0.1032 -0.0215
22598DOD     C211614  17.964  16.880   3.978 -0.0400  0.0344 -0.1647
22598DOD     C311615  17.840  17.333   4.011  0.2846  0.2528  0.0962
22599DOD     C111616  28.787  27.856  19.091 -0.1157  0.1538 -0.3302
22599DOD     C211617  28.679  28.273  19.145 -0.2220  0.0784 -0.1053
22599DOD     C311618  28.551  28.684  18.868 -0.1863 -0.1658 -0.0665
22600DOD     C111619   7.998   6.722  26.714 -0.0878 -0.2757  0.0773
22600DOD     C211620   8.221   6.304  26.909  0.1526  0.2297 -0.1869
22600DOD     C311621   8.168   5.906  27.122  0.3400 -0.2370 -0.0789
22601DOD     C111622  26.252   1.608  11.164 -0.2805 -0.1923 -0.1614
22601DOD     C211623  25.788   1.717  11.187 -0.1258  0.0233  0.2329
22601DOD     C311624  25.491   2.084  11.134  0.0453 -0.0238  0.0829
22602DOD     C111625  19.360  19.276  28.849 -0.2993 -0.3575 -0.1217
22602DOD     C211626  18.933  19.258  29.035  0.0569  0.1299 -0.1393
22602DOD     C311627  18.519  19.345  28.956 -0.0994 -0.3343 -0.2454
22603DOD     C111628  14.142   8.233   0.253  0.0216 -0.3562  0.0392
22603DOD     C211629  13.698   8.087   0.061  0.1008  0.0226 -0.2575
22603DOD     C311630  13.330   8.006  30.065 -0.0008 -0.0206 -0.1430
22604DOD     C111631   0.027  14.519  22.933  0.0564  0.0402  0.1614
22604DOD     C211632   0.313  14.123  22.859  0.2563 -0.2003 -0.1735
22604DOD     C311633   0.535  13.726  22.706  0.1597  0.1109  0.0594
22605DOD     C111634  11.861   6.355   7.027  0.1273 -0.1584 -0.2581
22605DOD     C211635  11.841   6.709   7.326 -0.5118 -0.2493 -0.1889
22605DOD     C311636  12.040   6.745   7.799 -0.0205  0.4156 -0.2677
22606DOD     C111637  12.908   6.340   9.574 -0.1381 -0.2882 -0.0165
22606DOD     C211638  13.044   6.800   9.457 -0.1634  0.0300 -0.0877
22606DOD     C311639  12.935   7.220   9.528 -0.0364  0.1848  0.1170
22607DOD     C111640  14.969  23.867   0.035 -0.3321  0.0855 -0.0512
22607DOD     C211641  15.151  24.348  30.276 -0.0124 -0.0072  0.1108
22607DOD     C311642  15.306  24.693   0.244  0.0967 -0.2391 -0.1142
22608DOD     C111643   1.775   0.634  28.503 -0.3786  0.3889  0.0457
22608DOD     C211644   2.159   0.432  28.317 -0.1016  0.1449  0.1536
22608DOD     C311645   2.470   0.270  28.633 -0.1251  0.0822  0.1112
22609DOD     C111646   8.157  25.264   2.671  0.0358 -0.1267 -0.2255
22609DOD     C211647   8.509  25.145   2.939 -0.3886  0.0125 -0.0340
22609DOD     C311648   8.988  25.034   2.885 -0.2009 -0.0307 -0.4767
22610DOD     C111649  24.169   9.730  17.306 -0.0987 -0.0631  0.1788
22610DOD     C211650  24.032   9.504  17.695  0.0116  0.1625  0.1680
22610DOD     C311651  23.577   9.374  17.765  0.5151 -0.2049  0.0821
22611DOD     C111652  27.920  16.483   8.188 -0.0492 -0.0976 -0.1427
22611DOD     C211653  27.660  16.180   8.474 -0.2123 -0.0611 -0.2170
22611DOD     C311654  27.430  15.977   8.909  0.2344  0.0481  0.1112
22612DOD     C111655   3.412   3.141  28.824  0.0571  0.1520  0.2208
22612DOD     C211656   3.767   3.240  28.464 -0.2931  0.1227  0.1022
22612DOD     C311657   4.187   3.428  28.266 -0.1905  0.4222  0.1763
22613DOD     C111658   6.405  18.052  24.076  0.3409  0.0212 -0.0929
22613DOD     C211659   6.297  18.283  23.707 -0.0310 -0.3369  0.0922
22613DOD     C311660   6.058  18.585  23.480  0.1538 -0.0418 -0.0976
22614DOD     C111661  11.737  26.498  12.624 -0.2119 -0.1880  0.0788
22614DOD     C211662  12.064  26.810  12.684 -0.0286 -0.0077  0.0588
22614DOD     C311663  12.300  27.237  12.706  0.6154 -0.0643 -0.1395
22615DOD     C111664   4.548  19.772  10.353 -0.2290  0.0164 -0.2502
22615DOD     C211665   4.611  20.102  10.741 -0.3663 -0.4176  0.0643
22615DOD     C311666   4.374  20.460  10.857 -0.0425  0.1059  0.2985
22616DOD     C111667  24.063  17.337  17.476  0.2093 -0.0442 -0.0338
22616DOD     C211668  23.746  17.231  17.741  0.1233 -0.2327  0.0492
22616DOD     C311669  23.597  17.258  18.153  0.0087 -0.0578 -0.0731
22617DOD     C111670  18.772  25.042   2.768 -0.0213 -0.3230  0.1968
22617DOD     C211671  18.745  25.548   2.862  0.2103 -0.0388 -0.0805
22617DOD     C311672  18.841  25.969   2.722  0.2355  0.1551 -0.0278
22618DOD     C111673   7.866   8.415  27.352 -0.0791  0.3213  0.0565
22618DOD     C211674   7.667   8.200  27.730  0.1982  0.1089  0.1269
22618DOD     C311675   7.636   8.091  28.175 -0.0400  0.3360  0.0119
22619DOD     C111676  19.585  22.081   6.732 -0.1924 -0.0367 -0.1881
22619DOD     C211677  19.709  22.486   6.934 -0.1858 -0.4604 -0.0817
22619DOD     C311678  19.649  22.828   7.293  0.0694  0.1313 -0.1232
22620DOD     C111679   0.725  19.983  27.993  0.1286  0.0802 -0.0331
22620DOD     C211680   0.760  19.593  27.699  0.0290 -0.2460 -0.2109
22620DOD     C311681   0.387  19.353  27.514  0.2322 -0.1484  0.1029
22621DOD     C111682  14.628  10.523  26.027 -0.0163  0.0361 -0.1054
22621DOD     C211683  14.719  10.912  26.296 -0.0702  0.0186  0.0804
22621DOD     C311684  14.597  11.291  26.530  0.0967 -0.2131  0.0094
22622DOD     C111685  26.650  24.849  20.167  0.0234  0.1050  0.2916
22622DOD     C211686  26.993  24.765  20.487 -0.0709 -0.1218 -0.2022
22622DOD     C311687  27.394  24.633  20.662  0.1244  0.2677 -0.0326
22623DOD     C111688  11.332  16.647   1.615 -0.2024  0.2322  0.0402
22623DOD     C211689  11.363  16.387   1.287 -0.1147 -0.1299 -0.2451
22623DOD     C311690  11.398  16.024   0.976  0.0395  0.1665  0.0224
22624DOD     C111691  18.381  12.413  25.284  0.1113  0.0049  0.0934
22624DOD     C211692  18.843  12.420  25.318  0.0714 -0.2720 -0.4390
22624DOD     C311693  19.078  12.535  25.732 -0.1163 -0.0550  0.1470
22625DOD     C111694   8.008  16.321  23.542  0.0610  0.0425 -0.2134
22625DOD     C211695   7.744  16.597  23.767 -0.0091 -0.1346  0.0995
22625DOD     C311696   7.485  16.925  24.038 -0.1406  0.0685  0.1018
22626DOD     C111697   8.674  23.983  26.158 -0.4049  0.0932  0.1898
22626DOD     C211698   8.489  24.135  25.791  0.0520 -0.1525  0.2101
22626DOD     C311699   8.076  24.237  25.556 -0.1584 -0.3679 -0.0007
22627DOD     C111700  13.132  10.307   7.911 -0.0633  0.1575  0.0157
22627DOD     C211701  12.733  10.378   7.773 -0.2927 -0.0437 -0.2191
22627DOD     C311702  12.351  10.536   7.629 -0.0772  0.0637 -0.1685
22628DOD     C111703  20.456   6.896  27.034  0.2141  0.1095  0.2121
22628DOD     C211704  20.440   6.909  26.540 -0.2036  0.0650 -0.0410
22628DOD     C311705  20.466   6.990  26.048  0.2398 -0.1495 -0.2528
22629DOD     C111706  27.628   0.966  24.625 -0.4221  0.1471  0.0008
22629DOD     C211707  27.541   1.437  24.701  0.1659  0.0101  0.1850
22629DOD     C311708  27.434   1.876  24.860 -0.3346 -0.2297  0.1617
22630DOD     C111709  29.208  21.345   3.644 -0.3042  0.1845 -0.0170
22630DOD     C211710  28.960  21.688   3.579  0.1529  0.2185 -0.1127
22630DOD     C311711  28.808  22.091   3.411  0.1729  0.2550  0.0254
22631DOD     C111712  22.188  22.349   8.002  0.3738 -0.0492 -0.0146
22631DOD     C211713  22.592  22.497   7.973 -0.3734  0.0196  0.0686
22631DOD     C311714  23.023  22.412   7.845  0.2932 -0.0722  0.0763
22632DOD     C111715   5.017  15.090  25.588  0.0836 -0.1260 -0.2548
22632DOD     C211716   4.733  14.731  25.752  0.0786  0.1367  0.1865
22632DOD     C311717   4.421  14.421  25.744  0.1443  0.1214 -0.0349
22633DOD     C111718  29.783  11.355   3.040 -0.0633 -0.0260  0.3728
22633DOD     C211719  29.566  11.628   2.679 -0.2265 -0.1805  0.0390
22633DOD     C311720  29.259  11.808   2.350  0.1684 -0.0255 -0.2799
22634DOD     C111721   4.595  13.798   7.248  0.1063  0.1021  0.1252
22634DOD     C211722   4.735  13.538   6.919 -0.0573 -0.0212 -0.1955
22634DOD     C311723   4.553  13.125   6.838  0.1013  0.0646  0.0637
22635DOD     C111724   5.600  20.630  25.815 -0.0675 -0.1288  0.0518
22635DOD     C211725   5.295  20.335  25.632  0.0105  0.3581 -0.2079
22635DOD     C311726   4.891  20.079  25.577  0.1558 -0.3459 -0.0292
22636DOD     C111727  12.091  26.432   4.727 -0.4097  0.0913  0.1236
22636DOD     C211728  11.709  26.623   4.500  0.0036 -0.1955  0.0162
22636DOD     C311729  11.353  26.761   4.743  0.0318  0.0413 -0.0597
22637DOD     C111730  14.351   7.199   5.481 -0.5523  0.2148 -0.0306
22637DOD     C211731  14.658   7.545   5.650  0.1433 -0.0207 -0.0453
22637DOD     C311732  14.326   7.844   5.748 -0.2510 -0.1321  0.0705
22638DOD     C111733  20.625  24.106  17.685 -0.1136  0.1368 -0.0567
22638DOD     C211734  21.045  24.145  17.819 -0.1377  0.0873 -0.2315
22638DOD     C311735  21.371  24.399  18.111 -0.3269 -0.3062  0.1032
22639DOD     C111736  27.379  23.480  21.115 -0.2026  0.0961  0.0001
22639DOD     C211737  27.167  23.882  21.272  0.2752  0.1589  0.1255
22639DOD     C311738  27.111  24.169  21.635  0.0234 -0.0363 -0.3590
22640DOD     C111739  21.634  26.533  16.054 -0.1547 -0.0375 -0.1658
22640DOD     C211740  22.058  26.782  16.007 -0.0225  0.1704  0.1305
22640DOD     C311741  22.401  27.026  15.830 -0.1660 -0.3183 -0.0047
22641DOD     C111742  29.443  28.667   6.776 -0.1141 -0.3404  0.0081
22641DOD     C211743  29.261  28.619   7.236 -0.0197 -0.1033  0.2850
22641DOD     C311744  29.196  28.471   7.640  0.0571  0.2225 -0.2176
22642DOD     C111745  21.621  17.806  23.678  0.1017 -0.4014  0.0661
22642DOD     C211746  21.558  17.965  24.102 -0.1649 -0.1094 -0.1822
22642DOD     C311747  21.632  17.851  24.578  0.2073  0.1456  0.0529
22643DOD     C111748   9.806  29.182   5.456  0.0821 -0.2672 -0.2090
22643DOD     C211749  10.029  28.894   5.721  0.0448 -0.4087  0.0146
22643DOD     C311750  10.189  28.443   5.677  0.1594  0.1075 -0.0162
22644DOD     C111751  28.383  18.612   3.205  0.3120  0.3425  0.1649
22644DOD     C211752  28.747  18.512   2.975 -0.1180  0.1351 -0.0772
22644DOD     C311753  28.989  18.720   2.599  0.0604  0.0069  0.0614
22645DOD     C111754  22.643  28.468   7.349 -0.0018 -0.1666 -0.0296
22645DOD     C211755  22.459  27.996   7.263 -0.0329 -0.4116 -0.0256
22645DOD     C311756  22.212  27.697   7.420 -0.0951 -0.0043  0.0365
22646DOD     C111757   9.840  23.135  15.304 -0.0448  0.2182 -0.0094
22646DOD     C211758  10.047  23.514  15.101 -0.1937  0.0812 -0.2619
22646DOD     C311759  10.159  23.585  14.614 -0.0946 -0.0544 -0.0967
22647DOD     C111760   5.657  23.579  20.426  0.3312 -0.0345  0.2700
22647DOD     C211761   5.898  23.890  20.613 -0.0717  0.0536 -0.0960
22647DOD     C311762   6.087  24.121  20.957 -0.2377 -0.1111  0.0479
22648DOD     C111763   5.338   9.931  28.040  0.0757 -0.4620  0.4176
22648DOD     C211764   5.668   9.901  28.364 -0.1928 -0.0728  0.2419
22648DOD     C311765   5.776   9.506  28.643 -0.2398  0.4565 -0.0494
22649DOD     C111766  29.276   3.109  28.300  0.1774  0.1557 -0.1302
22649DOD     C211767  29.399   3.486  28.270  0.1620 -0.1097 -0.1897
22649DOD     C311768  29.754   3.769  28.159  0.0283  0.0797  0.0084
22650DOD     C111769  25.738  29.626  22.485  0.0797 -0.0951  0.0624
22650DOD     C211770  25.717  29.650  22.895  0.2389 -0.1346  0.1479
22650DOD     C311771  25.531  29.648  23.341 -0.0006 -0.1101 -0.2012
22651DOD     C111772  26.662  11.855  11.092 -0.0938  0.1149  0.1201
22651DOD     C211773  26.512  11.657  11.538 -0.0785 -0.4648  0.2036
22651DOD     C311774  26.304  11.879  11.936  0.0605  0.1701 -0.0633
22652DOD     C111775  18.736  24.117  18.822 -0.1557 -0.0817  0.0634
22652DOD     C211776  18.825  24.508  18.536  0.1417  0.1058  0.0864
22652DOD     C311777  19.093  24.526  18.139  0.2093 -0.0478  0.0265
22653DOD     C111778   2.009  29.823   6.051 -0.0117  0.0061 -0.0205
22653DOD     C211779   1.943  30.286   6.081  0.5628  0.1761 -0.0030
22653DOD     C311780   1.788   0.363   5.998  0.2490  0.1156  0.5317
22654DOD     C111781  25.534  19.751  27.204 -0.1335 -0.0797  0.4344
22654DOD     C211782  25.316  19.845  27.555  0.2120 -0.0823 -0.1475
22654DOD     C311783  25.394  20.095  27.937  0.0094  0.0113 -0.0974
22655DOD     C111784  29.592   5.422  13.058  0.3052 -0.1390 -0.0005
22655DOD     C211785  29.199   5.499  13.332 -0.0935 -0.2803 -0.3172
22655DOD     C311786  28.799   5.644  13.206 -0.0659 -0.2805  0.0618
22656DOD     C111787   3.522  29.409  28.349 -0.1339  0.0088 -0.0761
22656DOD     C211788   3.655  29.574  27.905  0.0233 -0.0621 -0.0172
22656DOD     C311789   3.810  29.821  27.568 -0.0502 -0.2656 -0.3763
22657DOD     C111790  20.148   9.105  22.068  0.2204  0.0743  0.1835
22657DOD     C211791  20.377   9.500  21.945  0.1922  0.0630 -0.0958
22657DOD     C311792  20.550   9.874  21.767  0.0507  0.0501 -0.1337
22658DOD     C111793  18.301  26.102  19.535  0.1482 -0.0277 -0.1430
22658DOD     C211794  17.918  25.793  19.550  0.1098  0.0346  0.1912
22658DOD     C311795  17.652  25.524  19.291  0.1278  0.2035  0.0403
22659DOD     C111796   4.604   5.036   0.214 -0.1314  0.4043 -0.0182
22659DOD     C211797   4.117   5.197   0.322 -0.2729  0.1912  0.3164
22659DOD     C311798   3.743   4.959   0.355  0.2149  0.2928 -0.1335
22660DOD     C111799  11.935  11.543  28.656 -0.1514  0.0585 -0.1102
22660DOD     C211800  11.835  11.245  28.351  0.0793  0.1558 -0.0986
22660DOD     C311801  11.670  10.962  28.015  0.0206  0.2070 -0.0176
22661DOD     C111802  27.584  26.687  12.008  0.0857  0.0188 -0.0389
22661DOD     C211803  27.603  26.664  12.487  0.0209 -0.2295  0.0266
22661DOD     C311804  27.421  26.960  12.831 -0.2022  0.3672  0.0793
22662DOD     C111805  11.047  19.271   3.613 -0.2732  0.4910 -0.1594
22662DOD     C211806  11.280  19.439   3.997  0.2909 -0.3946 -0.3904
22662DOD     C311807  11.720  19.350   4.129  0.0899  0.1129 -0.1452
22663DOD     C111808  16.642  24.159  10.084  0.0485 -0.2763  0.2468
22663DOD     C211809  16.668  24.331  10.534  0.1036 -0.1001 -0.2337
22663DOD     C311810  16.328  24.345  10.841 -0.2015 -0.0635 -0.0307
22664DOD     C111811  20.268  13.075   9.376 -0.1449 -0.0141  0.2348
22664DOD     C211812  20.276  13.349   9.712  0.0869  0.1617  0.1089
22664DOD     C311813  20.315  13.482  10.186 -0.0436  0.4682 -0.2843
22665DOD     C111814  28.961  27.428  11.978  0.3087  0.1717  0.2547
22665DOD     C211815  29.431  27.553  12.046 -0.2575 -0.1608 -0.2078
22665DOD     C311816  29.817  27.662  12.263  0.5659 -0.2499  0.2984
22666DOD     C111817   4.869   6.900  18.900 -0.0720 -0.0340 -0.0978
22666DOD     C211818   5.194   7.159  19.092 -0.2593  0.2927  0.2267
22666DOD     C311819   5.571   7.298  19.284  0.0282  0.0661 -0.0991
22667DOD     C111820  24.921  29.590  19.435  0.1719 -0.4052 -0.3592
22667DOD     C211821  24.733  29.758  19.074 -0.2451 -0.3257  0.2105
22667DOD     C311822  24.868  30.158  18.914 -0.1160  0.3919  0.0554
22668DOD     C111823   8.078   9.660  24.209 -0.0985 -0.2133 -0.0189
22668DOD     C211824   7.728   9.930  24.221  0.2167  0.0343 -0.1930
22668DOD     C311825   7.394  10.163  24.089  0.0187 -0.0062  0.0687
22669DOD     C111826  28.006   0.452  23.973  0.1222 -0.3068  0.1163
22669DOD     C211827  28.391   0.291  24.179 -0.0218 -0.1531  0.1537
22669DOD     C311828  28.750   0.075  24.327 -0.2325 -0.0720 -0.1188
22670DOD     C111829   4.215  16.122  29.121 -0.2816 -0.2477  0.0618
22670DOD     C211830   4.510  16.077  28.768 -0.4069  0.0180 -0.0238
22670DOD     C311831   4.735  16.115  28.359 -0.1258  0.0844  0.2200
22671DOD     C111832   7.512  28.900  18.785  0.1021  0.0218 -0.1444
22671DOD     C211833   7.424  28.733  19.198 -0.2638 -0.2023  0.1306
22671DOD     C311834   7.094  28.508  19.405 -0.1240 -0.0432 -0.1571
22672DOD     C111835   2.907  14.841  19.225 -0.0308 -0.1371  0.1100
22672DOD     C211836   2.864  15.175  18.880 -0.0541 -0.0214  0.0219
22672DOD     C311837   2.537  15.336  18.608 -0.0741  0.2147 -0.1188
22673DOD     C111838   1.013   4.893  16.555  0.0511 -0.0130 -0.1002
22673DOD     C211839   0.876   5.112  16.905 -0.0520 -0.0599 -0.0130
22673DOD     C311840   1.062   5.541  17.045  0.0521 -0.3386  0.0335
22674DOD     C111841  20.924  15.195  23.088  0.1445  0.3499 -0.0404
22674DOD     C211842  21.078  15.385  22.723  0.1483 -0.2456  0.0018
22674DOD     C311843  21.158  15.574  22.262 -0.0605 -0.1350 -0.0221
22675DOD     C111844  20.711  27.533  10.927  0.0197  0.1353  0.0085
22675DOD     C211845  21.062  27.787  11.043 -0.1836  0.1886  0.4509
22675DOD     C311846  21.544  28.019  10.987  0.1711  0.1514  0.1340
22676DOD     C111847  16.494   7.653  27.624 -0.0403  0.0367  0.1044
22676DOD     C211848  16.959   7.629  27.541 -0.1109 -0.2240  0.0501
22676DOD     C311849  17.205   7.997  27.291 -0.2175 -0.1445 -0.2967
22677DOD     C111850   4.073  26.477   5.173  0.1138 -0.0713  0.4740
22677DOD     C211851   4.282  26.638   4.783  0.2180  0.2261 -0.1341
22677DOD     C311852   4.280  26.987   4.410  0.0434  0.1557 -0.0195
22678DOD     C111853   4.315   7.232   2.533 -0.1406 -0.1626 -0.1796
22678DOD     C211854   3.975   7.194   2.183  0.1840  0.0541  0.0889
22678DOD     C311855   3.632   6.992   1.951  0.0231 -0.0260  0.1939
22679DOD     C111856  27.755  26.755  13.925  0.0456  0.3947 -0.2060
22679DOD     C211857  27.698  27.201  14.011  0.0085  0.0225  0.1465
22679DOD     C311858  27.995  27.619  14.025  0.0398  0.0256  0.0368
22680DOD     C111859   3.063  25.051  27.009 -0.1197 -0.1006 -0.1018
22680DOD     C211860   2.900  25.061  26.560  0.3000  0.0939  0.0443
22680DOD     C311861   2.533  25.250  26.369 -0.0231  0.2413 -0.0600
22681DOD     C111862  15.854   7.176   8.908 -0.0761  0.0168  0.2092
22681DOD     C211863  16.176   6.878   8.912  0.1101  0.2092 -0.0942
22681DOD     C311864  16.403   6.775   9.259  0.0868  0.0608  0.0802
22682DOD     C111865  18.345  24.164  16.763 -0.1605 -0.1707 -0.2611
22682DOD     C211866  18.209  24.306  17.206  0.1503  0.0711  0.1297
22682DOD     C311867  18.219  24.398  17.635 -0.0943  0.1264  0.1762
22683DOD     C111868   6.163  29.662  24.722  0.2511 -0.3052  0.2417
22683DOD     C211869   6.157  29.298  24.949  0.0009 -0.1319 -0.0151
22683DOD     C311870   6.111  29.077  25.387 -0.0729 -0.2304 -0.3440
22684DOD     C111871  14.211  25.318   8.582 -0.0430  0.0873  0.1349
22684DOD     C211872  13.969  25.057   8.264 -0.0864  0.0571 -0.1487
22684DOD     C311873  13.981  24.802   7.846 -0.3320 -0.0779  0.0480
22685DOD     C111874   7.389  15.248  27.212 -0.2780 -0.1153 -0.2289
22685DOD     C211875   7.226  15.669  27.148  0.2513  0.4627 -0.2940
22685DOD     C311876   7.193  15.782  26.701  0.1220 -0.1184  0.0439
22686DOD     C111877   8.237  29.321   8.753  0.0957 -0.0161 -0.0105
22686DOD     C211878   8.188  29.735   8.851  0.0577 -0.2705  0.3378
22686DOD     C311879   7.892  30.117   8.739 -0.1218 -0.3593  0.1922
22687DOD     C111880  14.207  14.937  14.200 -0.1063 -0.1396  0.0973
22687DOD     C211881  13.998  14.464  14.083 -0.0455 -0.0593 -0.1233
22687DOD     C311882  13.586  14.310  14.178 -0.0291 -0.3472 -0.1179
22688DOD     C111883  14.412  30.011  15.368  0.0147 -0.1752 -0.2224
22688DOD     C211884  14.102  30.246  15.679  0.0407 -0.2134 -0.2011
22688DOD     C311885  13.632  30.128  15.800  0.0962 -0.2637 -0.0317
22689DOD     C111886   9.636   1.676   7.117  0.0293  0.2162  0.0493
22689DOD     C211887   9.882   2.019   7.115  0.1456  0.0143  0.4736
22689DOD     C311888  10.259   2.263   7.173  0.1176 -0.1769  0.0065
22690DOD     C111889  25.232  17.722   3.632  0.1933 -0.1153  0.2892
22690DOD     C211890  25.123  17.414   3.296 -0.0243  0.1233  0.0554
22690DOD     C311891  25.017  17.261   2.859  0.1982  0.1136 -0.0159
22691DOD     C111892  14.647  13.054  12.549  0.0227 -0.0555  0.1124
22691DOD     C211893  15.038  13.022  12.761 -0.0062 -0.3354  0.0175
22691DOD     C311894  15.212  12.661  12.975  0.1495 -0.0691  0.2494
22692DOD     C111895   0.065  18.434   0.263  0.0340 -0.0112  0.1783
22692DOD     C211896   0.314  18.201   0.596  0.0519  0.0680  0.0825
22692DOD     C311897   0.480  18.051   1.016 -0.1152 -0.0050  0.1066
22693DOD     C111898  26.501   6.117   0.671  0.2019  0.0041  0.1843
22693DOD     C211899  26.161   6.291   0.391  0.0392 -0.0169  0.2765
22693DOD     C311900  25.925   5.996   0.134 -0.1003 -0.0755 -0.3307
22694DOD     C111901   8.499  16.042  10.419  0.0629  0.2855 -0.4341
22694DOD     C211902   8.198  16.337  10.238  0.0396 -0.1179 -0.1149
22694DOD     C311903   7.852  16.620  10.116 -0.1799  0.1914  0.1321
22695DOD     C111904  17.917   5.249   5.057 -0.1669 -0.3196 -0.3573
22695DOD     C211905  18.284   5.110   4.787 -0.1317 -0.0919 -0.1468
22695DOD     C311906  18.390   5.309   4.338  0.0350 -0.1911  0.3288
22696DOD     C111907  30.301   1.935  22.405  0.5298 -0.0374 -0.0708
22696DOD     C211908  30.279   1.463  22.554  0.0665  0.0984 -0.1446
22696DOD     C311909   0.247   1.200  22.833 -0.0975  0.2105 -0.0190
22697DOD     C111910  16.518  25.852   7.164 -0.1448 -0.1007 -0.1221
22697DOD     C211911  16.370  25.894   6.759  0.1427 -0.2420  0.0657
22697DOD     C311912  16.108  25.967   6.356 -0.0738  0.1121  0.2397
22698DOD     C111913  19.360   4.063   5.292 -0.1669  0.0662 -0.0331
22698DOD     C211914  19.012   3.833   5.453  0.0245 -0.0997  0.0770
22698DOD     C311915  18.567   3.923   5.592  0.2983 -0.0229 -0.0327
22699DOD     C111916   5.424   6.491  18.129 -0.1848 -0.4891 -0.4366
22699DOD     C211917   5.754   6.580  18.511 -0.1586  0.0755 -0.1206
22699DOD     C311918   6.199   6.526  18.435  0.2463 -0.0022 -0.2407
22700DOD     C111919  15.584  27.970  27.304 -0.1511 -0.0215  0.0590
22700DOD     C211920  15.197  27.796  27.146  0.0672  0.1213  0.3857
22700DOD     C311921  15.043  27.328  27.042  0.0325  0.3632  0.0291
22701DOD     C111922   7.614  18.964  24.434 -0.0594  0.2157  0.2149
22701DOD     C211923   7.354  19.294  24.529  0.0548  0.0978 -0.0902
22701DOD     C311924   6.913  19.228  24.627  0.0213  0.0479 -0.1471
22702DOD     C111925  27.667  25.847  20.947 -0.3022  0.0153  0.1475
22702DOD     C211926  27.518  25.933  20.517 -0.0388 -0.1066  0.0005
22702DOD     C311927  27.376  25.786  20.139 -0.0409 -0.2279  0.0837
22703DOD     C111928   4.898  29.088   2.701 -0.1715  0.2134  0.3480
22703DOD     C211929   5.042  29.518   2.883  0.0440  0.2516  0.2361
22703DOD     C311930   5.100  29.943   3.050 -0.2847  0.0622  0.4044
22704DOD     C111931  20.933   0.404  29.277 -0.0723  0.1317 -0.1206
22704DOD     C211932  21.079   0.691  28.960  0.2875  0.2253 -0.0425
22704DOD     C311933  20.855   0.847  28.634  0.6621  0.1453  0.2347
22705DOD     C111934  21.969  16.787  17.445 -0.1401 -0.0719 -0.4861
22705DOD     C211935  21.791  16.321  17.391 -0.3333 -0.1126 -0.0210
22705DOD     C311936  21.835  15.839  17.321 -0.2079 -0.0694 -0.1398
22706DOD     C111937   5.914  18.023  11.045 -0.2071 -0.1069  0.0585
22706DOD     C211938   6.268  18.201  11.333  0.0434 -0.3117  0.1439
22706DOD     C311939   6.720  18.127  11.483 -0.0629 -0.2164  0.1723
22707DOD     C111940  25.055   9.905  27.710  0.3239 -0.4095 -0.0948
22707DOD     C211941  24.906   9.636  27.997 -0.0592 -0.0236 -0.1051
22707DOD     C311942  24.714   9.188  28.059 -0.2375 -0.0359 -0.0411
22708DOD     C111943  14.594   5.257  10.336  0.0403  0.0051  0.2216
22708DOD     C211944  14.858   4.845  10.384  0.3186 -0.3154 -0.1559
22708DOD     C311945  14.909   4.439  10.105  0.0111  0.0340 -0.1356
22709DOD     C111946  11.459  22.108  27.874  0.2097 -0.0988  0.0059
22709DOD     C211947  11.075  22.021  27.657  0.1126 -0.1563  0.0264
22709DOD     C311948  10.714  22.347  27.721 -0.3334 -0.0358 -0.0898
22710DOD     C111949  10.226  13.729   7.914  0.1233 -0.0807 -0.1749
22710DOD     C211950  10.114  14.167   7.830  0.0646 -0.2617 -0.1685
22710DOD     C311951   9.912  14.560   7.732  0.1304 -0.1453  0.1444
22711DOD     C111952   6.386  12.817   9.504  0.0176 -0.0815 -0.2293
22711DOD     C211953   6.804  12.749   9.247  0.1377 -0.0592 -0.0889
22711DOD     C311954   6.848  12.685   8.783 -0.2437  0.0443  0.0324
22712DOD     C111955  16.093   7.598  18.601  0.0038  0.0198 -0.0353
22712DOD     C211956  15.754   7.553  18.968 -0.0728 -0.1974  0.0727
22712DOD     C311957  15.358   7.577  19.259  0.0815  0.1742  0.4073
22713DOD     C111958  23.632  24.890   2.992 -0.1528  0.0260 -0.1321
22713DOD     C211959  24.050  24.898   3.186 -0.1915  0.1997 -0.0057
22713DOD     C311960  24.344  25.096   3.529 -0.0543  0.0870  0.0147
22714DOD     C111961  22.810  23.730  10.321 -0.2196 -0.4105 -0.2642
22714DOD     C211962  22.480  24.040  10.272  0.0173  0.3420 -0.0014
22714DOD     C311963  22.127  24.316  10.097  0.1876 -0.1969 -0.1642
22715DOD     C111964   8.403  22.024  13.527  0.2092  0.0540 -0.0442
22715DOD     C211965   8.705  22.322  13.398 -0.2548  0.0324 -0.2403
22715DOD     C311966   8.870  22.219  12.974  0.3343  0.0372  0.2484
22716DOD     C111967  10.141  23.690  12.190 -0.0004  0.2205 -0.1823
22716DOD     C211968  10.541  23.491  11.966 -0.0429 -0.0472 -0.0469
22716DOD     C311969  10.745  23.178  11.679 -0.0044 -0.1108 -0.2591
22717DOD     C111970   5.894   8.462   0.563  0.0486  0.2280  0.0193
22717DOD     C211971   5.965   8.600   0.111 -0.1359  0.0018  0.0140
22717DOD     C311972   5.932   8.798  30.011  0.0788 -0.1260  0.1180
22718DOD     C111973  25.683  19.141  26.014 -0.1310 -0.3615  0.0693
22718DOD     C211974  25.839  19.301  25.571  0.1332  0.0113 -0.0176
22718DOD     C311975  26.175  19.581  25.278  0.0712 -0.1557 -0.2726
22719DOD     C111976  22.356  10.240  20.546 -0.1512  0.1203  0.2629
22719DOD     C211977  22.499  10.600  20.795  0.0951 -0.0768 -0.0832
22719DOD     C311978  22.769  10.912  20.898 -0.0996 -0.1010 -0.1117
22720DOD     C111979  19.385  21.349  26.055  0.0853  0.2006 -0.1532
22720DOD     C211980  18.935  21.214  26.179  0.4977  0.1736  0.0577
22720DOD     C311981  18.498  21.169  26.309  0.1649  0.0060  0.1222
22721DOD     C111982   8.976  28.135  27.698  0.0154 -0.3188 -0.4440
22721DOD     C211983   8.959  27.688  27.626 -0.1602 -0.2256 -0.1526
22721DOD     C311984   9.192  27.320  27.538 -0.0477 -0.0563  0.0307
22722DOD     C111985   1.449  25.937  12.606  0.0866  0.2990 -0.1020
22722DOD     C211986   1.259  26.184  12.965 -0.0308  0.2949 -0.0184
22722DOD     C311987   1.276  26.441  13.376 -0.0632 -0.3085  0.3557
22723DOD     C111988  17.727  19.295   4.957 -0.0432 -0.0815 -0.1416
22723DOD     C211989  17.852  19.500   4.564 -0.0094 -0.0343 -0.1340
22723DOD     C311990  17.591  19.871   4.327 -0.1119  0.0465  0.0164
22724DOD     C111991  26.791   5.771  21.337  0.2530 -0.2576  0.1544
22724DOD     C211992  26.811   5.509  21.725  0.1926  0.0863  0.1165
22724DOD     C311993  26.823   5.073  21.887 -0.1507 -0.2953  0.0910
22725DOD     C111994  13.542  16.121  23.854 -0.2690  0.0023 -0.0681
22725DOD     C211995  13.471  15.794  24.134 -0.2075  0.1029  0.3059
22725DOD     C311996  13.211  15.595  24.437 -0.0623  0.2112 -0.4379
22726DOD     C111997   8.894   5.433  14.500 -0.2681  0.1574  0.0271
22726DOD     C211998   8.865   5.203  14.081 -0.1137 -0.2335  0.0593
22726DOD     C311999   8.435   5.264  13.816  0.3321  0.0427 -0.0003
22727DOD     C112000  17.644  10.565  26.747  0.0049  0.0273  0.0207
22727DOD     C212001  17.920  10.706  27.149  0.2549  0.0295  0.2987
22727DOD     C312002  18.349  10.678  27.110 -0.1230  0.2539 -0.0483
22728DOD     C112003  22.130   9.997  16.121  0.1045 -0.2158 -0.7014
22728DOD     C212004  21.850  10.385  16.081  0.2000  0.0291 -0.2108
22728DOD     C312005  21.835  10.786  16.378  0.3480 -0.1526  0.1941
22729DOD     C112006  18.018   7.237  15.858 -0.3097 -0.1165  0.0870
22729DOD     C212007  18.258   7.525  15.526 -0.1924 -0.0987 -0.1205
22729DOD     C312008  18.701   7.602  15.403  0.0767 -0.0141 -0.1289
22730DOD     C112009  15.449  12.689  23.376 -0.2227  0.2620  0.0446
22730DOD     C212010  15.181  12.531  23.037 -0.0825  0.0971  0.3744
22730DOD     C312011  14.975  12.464  22.615  0.0078 -0.2155 -0.1769
22731DOD     C112012  18.950  29.090  19.938 -0.0381  0.1083 -0.1148
22731DOD     C212013  19.272  28.867  20.273 -0.2421  0.0495 -0.2568
22731DOD     C312014  19.591  28.823  20.618 -0.3394 -0.1796 -0.0258
22732DOD     C112015   5.451  30.067  20.095 -0.0001  0.0046 -0.1061
22732DOD     C212016   5.170  30.283  19.802 -0.0187 -0.3131  0.0921
22732DOD     C312017   5.040   0.046  19.347  0.1157 -0.2742 -0.0271
22733DOD     C112018  27.865  14.833   4.842 -0.1089  0.1021 -0.1158
22733DOD     C212019  27.636  14.440   4.643 -0.1738  0.0458  0.2545
22733DOD     C312020  27.448  14.032   4.656 -0.1517 -0.0881  0.0806
22734DOD     C112021  25.628  15.712   1.458 -0.1928  0.3990 -0.3137
22734DOD     C212022  25.646  16.183   1.544 -0.0442  0.4270  0.1209
22734DOD     C312023  25.673  16.672   1.651  0.0151  0.0288  0.0874
22735DOD     C112024   0.932  22.535  28.917 -0.1063 -0.0354  0.1243
22735DOD     C212025   1.113  22.914  28.701 -0.0633 -0.1299 -0.1503
22735DOD     C312026   1.573  23.248  28.679  0.1915  0.3347 -0.2605
22736DOD     C112027   7.003  15.695  25.059  0.2133  0.0418  0.1241
22736DOD     C212028   7.180  15.949  25.356  0.0585 -0.0591 -0.1823
22736DOD     C312029   7.258  16.186  25.719  0.0122 -0.0844  0.0893
22737DOD     C112030  22.622   9.952  24.012  0.1051  0.1286 -0.1638
22737DOD     C212031  22.956  10.267  23.851 -0.0501  0.2184  0.0432
22737DOD     C312032  23.055  10.419  23.428 -0.1433  0.2148  0.1513
22738DOD     C112033  12.148  15.187  13.722  0.0691 -0.0098 -0.2979
22738DOD     C212034  12.531  14.975  13.600 -0.1630 -0.3407 -0.0085
22738DOD     C312035  13.010  14.903  13.514  0.0925  0.0029  0.0400
22739DOD     C112036  29.409  23.852   5.461 -0.0888 -0.0832  0.2454
22739DOD     C212037  29.450  23.589   5.860 -0.2257  0.0372 -0.2272
22739DOD     C312038  29.056  23.571   6.139  0.3304  0.1251  0.0104
22740DOD     C112039  26.824  25.661  29.307  0.1730  0.3316 -0.1184
22740DOD     C212040  26.588  26.040  29.431  0.0922 -0.3912  0.1414
22740DOD     C312041  26.363  26.392  29.730 -0.2627  0.3746  0.0700
22741DOD     C112042   9.711  25.115  25.113  0.1935 -0.0156 -0.2136
22741DOD     C212043   9.938  25.070  25.541  0.1861  0.1178  0.1314
22741DOD     C312044  10.219  24.654  25.625 -0.0405  0.1469  0.4406
22742DOD     C112045  15.009  29.864   1.692  0.0590 -0.0739  0.1461
22742DOD     C212046  14.643  29.613   1.794 -0.2160  0.1320  0.0528
22742DOD     C312047  14.268  29.309   1.656 -0.3152 -0.5056 -0.3233
22743DOD     C112048  27.348  23.575   6.725 -0.0840 -0.0161  0.0269
22743DOD     C212049  27.017  23.273   6.667 -0.2276  0.0901 -0.1469
22743DOD     C312050  26.864  22.834   6.711  0.2647  0.0053 -0.0367
22744DOD     C112051  15.497  22.681  29.267  0.3531  0.3328 -0.0003
22744DOD     C212052  15.687  23.086  29.251  0.3426 -0.0535 -0.3770
22744DOD     C312053  15.580  23.520  29.425 -0.1393 -0.0790  0.0650
22745DOD     C112054   4.969  17.830   9.892  0.1934 -0.0551  0.0526
22745DOD     C212055   5.242  17.675  10.242 -0.1288 -0.0147  0.2475
22745DOD     C312056   5.655  17.469  10.190  0.0503  0.0849 -0.2143
22746DOD     C112057   4.556  11.446   5.893 -0.1242 -0.0221  0.0309
22746DOD     C212058   4.688  11.831   5.704 -0.1885 -0.1769 -0.1471
22746DOD     C312059   4.898  12.028   5.289 -0.0625 -0.1669 -0.1778
22747DOD     C112060  19.558  14.452  10.850 -0.2050 -0.0761 -0.2679
22747DOD     C212061  19.253  14.549  11.137 -0.0958 -0.1976  0.3642
22747DOD     C312062  19.135  14.756  11.529  0.3753 -0.0973  0.3839
22748DOD     C112063   2.127   1.346   6.738  0.0082 -0.2594 -0.0943
22748DOD     C212064   2.440   1.314   7.085 -0.1444 -0.2906  0.0283
22748DOD     C312065   2.883   1.372   7.002  0.0412  0.2291  0.2580
22749DOD     C112066  25.705  25.466  11.715 -0.0063  0.0431 -0.3166
22749DOD     C212067  25.472  25.590  11.291  0.3077 -0.0304  0.0310
22749DOD     C312068  25.119  25.835  11.181 -0.2448 -0.0703 -0.1680
22750DOD     C112069  13.558  10.772  16.890  0.0237 -0.0467 -0.0794
22750DOD     C212070  13.361  10.930  16.456 -0.1125  0.2378 -0.2088
22750DOD     C312071  12.979  10.758  16.240 -0.2279  0.2792 -0.2088
22751DOD     C112072   6.858  30.024   9.997  0.2185 -0.2024  0.0875
22751DOD     C212073   6.628   0.111  10.130 -0.0097 -0.0393  0.0105
22751DOD     C312074   6.608   0.583  10.037 -0.1817 -0.1171  0.2887
22752DOD     C112075   6.272  21.266   2.830 -0.0841  0.1036 -0.1657
22752DOD     C212076   6.116  20.773   2.858 -0.1354  0.2442 -0.1928
22752DOD     C312077   6.115  20.473   2.495 -0.2079  0.0578 -0.1482
22753DOD     C112078   3.241  26.642  21.550 -0.2435 -0.2054 -0.1427
22753DOD     C212079   2.783  26.645  21.764  0.1899 -0.4460 -0.3144
22753DOD     C312080   2.605  26.381  22.151 -0.3108 -0.1275  0.1485
22754DOD     C112081  22.849  21.648  24.470  0.0611  0.2115 -0.0672
22754DOD     C212082  22.532  21.931  24.431  0.2160 -0.1415 -0.2223
22754DOD     C312083  22.085  21.897  24.372  0.3404 -0.0850  0.2976
22755DOD     C112084  14.753  14.317  28.502 -0.0441  0.0545 -0.3686
22755DOD     C212085  14.798  14.013  28.178 -0.1239 -0.1403 -0.1909
22755DOD     C312086  14.773  13.619  27.961 -0.1145 -0.0595  0.0154
22756DOD     C112087  23.438   3.472  16.640  0.3741  0.0770 -0.1098
22756DOD     C212088  23.310   3.869  16.493  0.0466 -0.0253 -0.0914
22756DOD     C312089  23.406   4.227  16.794 -0.3572 -0.0292 -0.0115
22757DOD     C112090   7.462   3.652   8.327  0.2572  0.0624  0.0655
22757DOD     C212091   7.894   3.751   8.288 -0.0608 -0.0103 -0.2544
22757DOD     C312092   8.273   3.882   8.037 -0.0983 -0.2859 -0.0780
22758DOD     C112093  24.620  25.707  29.324  0.0181 -0.0634  0.0898
22758DOD     C212094  24.927  25.699  29.641 -0.0450  0.0612  0.1384
22758DOD     C312095  25.192  25.745  29.977  0.2080 -0.1477 -0.2374
22759DOD     C112096  14.899  22.679  29.342  0.2163  0.2661 -0.0039
22759DOD     C212097  14.478  22.849  29.110 -0.0932 -0.1995 -0.0240
22759DOD     C312098  14.114  22.769  28.809 -0.2155  0.4434  0.0072
22760DOD     C112099  29.568  17.429   5.349 -0.0786  0.0462 -0.2123
22760DOD     C212100  29.168  17.276   5.451  0.1383  0.3135  0.0700
22760DOD     C312101  29.052  16.809   5.516 -0.1000 -0.0457  0.0872
22761DOD     C112102  18.531  11.498   2.041  0.1541  0.1862  0.1479
22761DOD     C212103  18.605  11.377   2.475 -0.0080  0.3401  0.0500
22761DOD     C312104  19.056  11.415   2.645  0.1780  0.4490  0.0167
22762DOD     C112105  24.874  20.546   2.827  0.0342  0.0114 -0.2592
22762DOD     C212106  24.687  20.358   3.176  0.2370 -0.3138  0.0622
22762DOD     C312107  24.426  20.040   3.448 -0.1954 -0.0692  0.0746
22763DOD     C112108  16.975   8.940  14.938 -0.1267  0.1894  0.0358
22763DOD     C212109  16.931   9.299  15.266 -0.0512  0.0440 -0.2704
22763DOD     C312110  17.314   9.485  15.514 -0.1493  0.0594 -0.2509
22764DOD     C112111   9.350  25.121   3.296  0.0238 -0.1056 -0.3063
22764DOD     C212112   9.419  25.221   3.699  0.2112 -0.2098 -0.3637
22764DOD     C312113   9.486  25.649   3.859  0.0445 -0.1465  0.0128
22765DOD     C112114   9.167  26.358  22.709  0.0209  0.0141 -0.0369
22765DOD     C212115   9.060  26.117  22.301  0.2096 -0.2278  0.0985
22765DOD     C312116   8.737  25.985  21.971 -0.0109  0.1106 -0.2209
22766DOD     C112117  24.054   2.312   6.001  0.1602 -0.0917 -0.1535
22766DOD     C212118  24.484   2.295   6.148 -0.0763 -0.0532  0.0104
22766DOD     C312119  24.869   2.372   6.439 -0.0458 -0.0422 -0.4625
22767DOD     C112120   0.235   2.179   0.942  0.0258 -0.1517  0.0989
22767DOD     C212121   0.549   2.393   0.626 -0.1496  0.1367  0.2613
22767DOD     C312122   0.633   2.341   0.178  0.2334 -0.1961 -0.0610
22768DOD     C112123   7.004   6.402   2.425 -0.1347 -0.3472 -0.0779
22768DOD     C212124   6.716   6.319   2.077 -0.1628 -0.3519  0.1627
22768DOD     C312125   6.404   6.068   2.236  0.0160  0.1376 -0.0699
22769DOD     C112126  21.545   4.615   9.480  0.1437  0.2416 -0.0311
22769DOD     C212127  21.626   4.933   9.115 -0.2455  0.1419  0.1640
22769DOD     C312128  21.985   4.869   8.798 -0.2828  0.0276  0.0162
22770DOD     C112129   2.809   5.519  18.820 -0.0271 -0.2523 -0.3957
22770DOD     C212130   2.612   5.813  19.216 -0.0424 -0.0764 -0.1889
22770DOD     C312131   2.566   5.956  19.628  0.0921 -0.2694  0.0132
22771DOD     C112132  13.730  29.110  27.143 -0.2657 -0.0462  0.1599
22771DOD     C212133  13.771  29.049  27.589 -0.2929 -0.3657  0.1367
22771DOD     C312134  13.962  29.055  27.980 -0.0250 -0.0521 -0.2796
22772DOD     C112135  26.968   6.612  15.814 -0.0536 -0.0329  0.1463
22772DOD     C212136  26.671   6.438  15.550  0.0483  0.0112 -0.1163
22772DOD     C312137  26.322   6.453  15.256 -0.0094 -0.3422  0.2028
22773DOD     C112138  27.669  28.296  23.425  0.0181 -0.0733  0.0249
22773DOD     C212139  27.527  28.299  22.979 -0.0334  0.2781  0.0594
22773DOD     C312140  27.660  28.242  22.526 -0.0644 -0.1173 -0.1580
22774DOD     C112141  18.927  25.830  26.214  0.3112 -0.0523 -0.4557
22774DOD     C212142  18.757  25.424  26.453 -0.0786 -0.0944 -0.1516
22774DOD     C312143  18.739  24.979  26.311  0.2134  0.2235  0.1072
22775DOD     C112144  23.830  24.673  10.008  0.2750 -0.1507  0.1043
22775DOD     C212145  23.572  24.540   9.619  0.2330 -0.0720  0.1918
22775DOD     C312146  23.680  24.555   9.203  0.1712 -0.0042  0.1446
22776DOD     C112147  11.400  21.573  11.072 -0.0755  0.1248 -0.1065
22776DOD     C212148  11.838  21.523  10.926  0.2010 -0.1439 -0.0685
22776DOD     C312149  12.144  21.356  11.199  0.0098  0.1434  0.1101
22777DOD     C112150  16.773  25.622   9.999 -0.2407  0.3993 -0.1957
22777DOD     C212151  16.928  25.668  10.409  0.0377  0.0632 -0.1287
22777DOD     C312152  17.350  25.724  10.634  0.0689  0.2269 -0.0804
22778DOD     C112153  24.159   0.058   3.091  0.0657  0.0402 -0.1008
22778DOD     C212154  24.367   0.478   3.003 -0.0586 -0.2066 -0.1406
22778DOD     C312155  24.548   0.901   3.152  0.1389 -0.2708 -0.3117
22779DOD     C112156  13.733  30.391  21.722 -0.0102  0.5202  0.0910
22779DOD     C212157  13.883   0.445  21.945 -0.0253 -0.0612 -0.2634
22779DOD     C312158  14.070   0.838  22.139  0.1577 -0.0532 -0.2121
22780DOD     C112159   6.071  20.073  15.691 -0.3643  0.0969  0.3432
22780DOD     C212160   6.439  20.318  15.760  0.0454  0.1250 -0.0114
22780DOD     C312161   6.735  20.644  15.925  0.1439  0.1228  0.3586
22781DOD     C112162  12.114  28.673  10.045  0.0920 -0.0866  0.1937
22781DOD     C212163  11.848  29.101  10.123 -0.0049  0.1317 -0.0722
22781DOD     C312164  11.446  29.303  10.233  0.1396 -0.1210  0.0374
22782DOD     C112165   7.897   2.090  26.529 -0.1799 -0.0100  0.1469
22782DOD     C212166   8.202   2.106  26.119  0.0358  0.0252 -0.2476
22782DOD     C312167   8.575   1.922  25.875 -0.0916 -0.0477  0.0585
22783DOD     C112168  22.771  24.577  16.570  0.0807 -0.1925  0.3671
22783DOD     C212169  22.740  25.020  16.619  0.3341  0.1197 -0.0729
22783DOD     C312170  22.349  25.228  16.804 -0.0399  0.2872  0.0502
22784DOD     C112171   7.288  16.696  20.001  0.0398  0.1396 -0.0787
22784DOD     C212172   7.110  17.052  20.229  0.0359 -0.1528 -0.1778
22784DOD     C312173   6.843  17.370  20.510  0.1518  0.1831  0.0374
22785DOD     C112174   2.088  19.412   8.118  0.2425  0.3669 -0.0927
22785DOD     C212175   2.149  19.305   8.573  0.1769 -0.0272 -0.1377
22785DOD     C312176   1.736  19.251   8.832  0.1232  0.0869  0.0407
22786DOD     C112177  19.809   1.358   0.215 -0.3686  0.3570  0.0158
22786DOD     C212178  19.916   1.796  30.324 -0.0713  0.2058  0.2556
22786DOD     C312179  20.302   2.047  30.176  0.1182  0.0323 -0.0134
22787DOD     C112180   8.740  28.996  26.295  0.1347  0.0724 -0.1261
22787DOD     C212181   9.150  29.036  26.022 -0.2424 -0.0961  0.0065
22787DOD     C312182   9.336  29.415  25.884 -0.0283 -0.3360 -0.0772
22788DOD     C112183   1.965   2.470   7.391 -0.1336 -0.1981 -0.0417
22788DOD     C212184   2.142   2.440   7.005 -0.1417  0.0582  0.0057
22788DOD     C312185   2.410   2.324   6.646 -0.2104 -0.2077  0.1072
22789DOD     C112186  26.024  23.634  18.755  0.0089 -0.2489 -0.5019
22789DOD     C212187  25.576  23.749  18.638 -0.0247  0.3000 -0.0704
22789DOD     C312188  25.252  23.520  18.381 -0.0604 -0.1085 -0.1180
22790DOD     C112189  12.386  19.040  20.970  0.2463 -0.0675 -0.1043
22790DOD     C212190  12.802  19.077  20.828 -0.0822 -0.3865  0.3637
22790DOD     C312191  13.227  18.946  20.690  0.4215 -0.1906  0.0828
22791DOD     C112192  17.649   8.245  12.122 -0.1703 -0.0478 -0.0087
22791DOD     C212193  17.940   8.142  12.487 -0.0275  0.0466  0.2835
22791DOD     C312194  18.026   7.728  12.639  0.4811  0.2197 -0.1703
22792DOD     C112195  20.044  10.878  12.346 -0.1712 -0.0845 -0.0300
22792DOD     C212196  20.179  11.222  12.043  0.0663  0.0504  0.2965
22792DOD     C312197  20.132  11.456  11.656 -0.1218 -0.1490  0.1747
22793DOD     C112198  29.470  25.256   3.333 -0.2036  0.1923 -0.0733
22793DOD     C212199  29.202  25.434   3.628 -0.0721 -0.2116  0.0819
22793DOD     C312200  28.921  25.710   3.851 -0.2325  0.2401 -0.0214
22794DOD     C112201  17.214  25.138  18.659 -0.4971 -0.0050 -0.2066
22794DOD     C212202  17.215  24.686  18.868  0.3795 -0.3899  0.0679
22794DOD     C312203  17.128  24.245  18.937 -0.0425 -0.0904 -0.3714
22795DOD     C112204   8.415  22.481   6.690  0.2790  0.2002  0.0516
22795DOD     C212205   8.709  22.130   6.892  0.2875  0.1778  0.0830
22795DOD     C312206   8.886  21.775   7.096  0.1824 -0.3068  0.0823
22796DOD     C112207  19.877  19.919  25.526 -0.3489 -0.1544 -0.1578
22796DOD     C212208  19.655  20.120  25.173 -0.3481 -0.0302 -0.2038
22796DOD     C312209  19.307  20.037  24.904 -0.0144 -0.1361 -0.3945
22797DOD     C112210  11.021   9.012  24.015 -0.4013  0.3692 -0.0105
22797DOD     C212211  11.299   8.792  24.303 -0.1134  0.0053  0.0716
22797DOD     C312212  11.362   8.785  24.769  0.1759 -0.1881 -0.0172
22798DOD     C112213  11.843  19.924  20.942  0.2912 -0.0474 -0.2501
22798DOD     C212214  12.041  19.961  21.382  0.1168 -0.1213  0.1451
22798DOD     C312215  12.276  20.250  21.627  0.3531 -0.0011 -0.1153
22799DOD     C112216   2.644  29.293  10.772 -0.1688 -0.0236 -0.0709
22799DOD     C212217   2.927  29.280  11.130  0.3058 -0.0745  0.1438
22799DOD     C312218   3.397  29.410  11.249  0.5132 -0.0652  0.2701
22800DOD     C112219   2.364  11.872  22.093  0.1514  0.1082  0.0691
22800DOD     C212220   2.423  12.319  22.051  0.0699 -0.3315  0.3725
22800DOD     C312221   2.685  12.663  21.852  0.1309 -0.4582 -0.1381
22801DOD     C112222  15.917   0.435  16.931 -0.0821  0.2895  0.0733
22801DOD     C212223  15.513   0.617  16.742  0.3812  0.0607 -0.1079
22801DOD     C312224  15.346   0.857  17.105 -0.1163  0.0794 -0.2091
22802DOD     C112225  20.034  10.459  11.402 -0.0267 -0.1415 -0.0836
22802DOD     C212226  19.575  10.606  11.357  0.0323 -0.0894  0.0589
22802DOD     C312227  19.281  10.619  10.970 -0.1689 -0.2642  0.1680
22803DOD     C112228  13.163  15.632  21.442 -0.0429  0.1871  0.0432
22803DOD     C212229  13.147  15.845  21.850  0.1340  0.2179  0.2256
22803DOD     C312230  13.083  16.054  22.269 -0.3078  0.2032  0.0212
22804DOD     C112231   4.898  13.236   4.383 -0.0604  0.6142  0.0511
22804DOD     C212232   4.516  13.184   4.641  0.1200  0.0707 -0.0346
22804DOD     C312233   4.198  13.280   4.961  0.0019  0.3587  0.1167
22805DOD     C112234   9.238  14.902  21.427 -0.2820 -0.0080 -0.1210
22805DOD     C212235   9.636  14.654  21.325  0.0279 -0.0114 -0.1761
22805DOD     C312236   9.855  14.217  21.400  0.0636 -0.3521 -0.1053
22806DOD     C112237   8.754  11.089  15.463 -0.2936  0.1254  0.1578
22806DOD     C212238   8.909  11.290  15.855  0.3738  0.1779 -0.1567
22806DOD     C312239   8.905  11.737  15.971  0.0491 -0.1389 -0.2060
22807DOD     C112240  25.730  21.755  29.207  0.1931 -0.0079  0.0509
22807DOD     C212241  25.315  21.957  29.152  0.0168  0.0918 -0.0075
22807DOD     C312242  25.015  21.943  28.815  0.0147  0.0417  0.1906
22808DOD     C112243  17.497   6.811  11.821 -0.0922 -0.1569 -0.2014
22808DOD     C212244  17.412   7.227  12.045 -0.0284 -0.0573  0.0321
22808DOD     C312245  17.736   7.404  12.338 -0.1868 -0.1752  0.2883
22809DOD     C112246  18.506  13.967  26.276  0.3415  0.0403 -0.1565
22809DOD     C212247  18.535  13.770  25.889 -0.0031 -0.0116  0.0255
22809DOD     C312248  18.514  13.409  25.560  0.1096 -0.0099  0.0979
22810DOD     C112249  27.497  23.617  23.569  0.0105 -0.0193  0.0814
22810DOD     C212250  27.778  23.659  23.193  0.1370 -0.0939 -0.1627
22810DOD     C312251  27.997  23.439  22.835 -0.2110 -0.1655 -0.2487
22811DOD     C112252   4.468  15.809   4.180  0.0617 -0.0316  0.1915
22811DOD     C212253   4.245  15.902   4.610 -0.2594 -0.0008 -0.1441
22811DOD     C312254   4.110  16.029   5.062 -0.1222  0.2381 -0.1838
22812DOD     C112255  12.956  18.307  29.450 -0.0593  0.0568  0.0432
22812DOD     C212256  12.486  18.303  29.597 -0.0279 -0.1276  0.1351
22812DOD     C312257  12.462  18.392  30.059 -0.2254  0.0619  0.0034
22813DOD     C112258   5.837  19.247  25.208 -0.1530 -0.2075  0.0122
22813DOD     C212259   6.218  19.464  24.999 -0.2272 -0.5711  0.0590
22813DOD     C312260   6.427  19.494  24.534  0.0173 -0.1085 -0.1938
22814DOD     C112261  16.395  20.075  10.638 -0.0359 -0.1098  0.0722
22814DOD     C212262  16.027  20.271  10.345  0.2810  0.1234 -0.0188
22814DOD     C312263  15.822  20.493  10.010 -0.1272 -0.2116  0.2101
22815DOD     C112264  11.951   5.808   7.362  0.1738  0.1275 -0.0962
22815DOD     C212265  12.367   5.844   7.551 -0.2335  0.3241 -0.0124
22815DOD     C312266  12.682   5.851   7.916 -0.2737  0.2246  0.1556
22816DOD     C112267  10.130  19.404   6.606  0.0261  0.1908  0.2002
22816DOD     C212268  10.518  19.618   6.461 -0.1002  0.1774  0.0004
22816DOD     C312269  10.991  19.612   6.428 -0.4185  0.1278  0.3121
22817DOD     C112270  25.391  18.563  16.837 -0.0245  0.0803  0.2001
22817DOD     C212271  25.143  18.778  16.482  0.0219  0.2593 -0.0048
22817DOD     C312272  24.788  18.886  16.187 -0.0253  0.0033  0.0071
22818DOD     C112273  26.386  11.371  27.558 -0.0474 -0.3623  0.5008
22818DOD     C212274  26.261  11.781  27.822  0.0590 -0.3795 -0.2849
22818DOD     C312275  26.434  11.891  28.206 -0.1765  0.2565 -0.0117
22819DOD     C112276   4.034  24.443  28.387 -0.0657  0.0856  0.0697
22819DOD     C212277   3.724  24.623  28.043  0.2381 -0.0798 -0.0856
22819DOD     C312278   3.779  24.637  27.546  0.1834  0.0449  0.1517
22820DOD     C112279   2.079  21.988  22.947  0.0353 -0.0425  0.0429
22820DOD     C212280   1.935  22.239  23.263 -0.1062  0.1368  0.3922
22820DOD     C312281   1.950  22.465  23.665  0.0271 -0.0828 -0.1728
22821DOD     C112282  12.602  16.308   2.925 -0.0714  0.0051 -0.0028
22821DOD     C212283  12.729  15.860   2.827 -0.0694  0.1212 -0.0821
22821DOD     C312284  12.769  15.479   2.512 -0.2946  0.0013 -0.1477
22822DOD     C112285   0.149  18.270  19.655 -0.1092  0.3883 -0.2267
22822DOD     C212286  30.237  18.201  20.071 -0.2863 -0.1007  0.0152
22822DOD     C312287  30.074  18.108  20.445  0.0161 -0.1750  0.0528
22823DOD     C112288  11.736   0.065  22.080  0.4059 -0.0605  0.1125
22823DOD     C212289  11.448  30.189  22.337 -0.2464 -0.3003 -0.2871
22823DOD     C312290  11.545  29.873  22.709 -0.0246  0.0046 -0.1601
22824DOD     C112291  19.660  27.466  20.300 -0.4434  0.0317  0.0504
22824DOD     C212292  19.256  27.504  20.215 -0.0037 -0.0344 -0.0175
22824DOD     C312293  18.958  27.250  19.967  0.0955  0.0203  0.0993
22825DOD     C112294  14.054   3.146  25.072  0.2845 -0.0019 -0.2345
22825DOD     C212295  14.152   3.493  24.763  0.2608  0.2486 -0.2019
22825DOD     C312296  14.426   3.392  24.381 -0.1334 -0.1676  0.2373
22826DOD     C112297  22.689  26.218  11.395 -0.2315 -0.0845  0.0478
22826DOD     C212298  22.582  26.424  10.991  0.3662  0.0654 -0.4314
22826DOD     C312299  22.683  26.579  10.583  0.0697 -0.0887 -0.1519
22827DOD     C112300  28.630  10.635  20.846  0.0070 -0.0094 -0.1147
22827DOD     C212301  28.416  11.028  20.628 -0.1417  0.1778 -0.2151
22827DOD     C312302  28.150  11.129  20.223 -0.2074 -0.2671 -0.0632
22828DOD     C112303   9.959  15.789  15.748 -0.0379  0.2273 -0.3069
22828DOD     C212304  10.346  15.619  15.936 -0.1023 -0.0003  0.1564
22828DOD     C312305  10.752  15.408  15.969  0.0452  0.1408 -0.0248
22829DOD     C112306   3.931  16.264  23.096  0.1168  0.2180  0.0710
22829DOD     C212307   3.776  16.666  23.132  0.4407  0.1785 -0.0190
22829DOD     C312308   3.471  17.007  23.106 -0.0469  0.3685  0.2284
22830DOD     C112309  11.969  19.897  22.812 -0.1806 -0.0485 -0.1257
22830DOD     C212310  11.889  20.295  23.064 -0.0078 -0.1864 -0.0803
22830DOD     C312311  11.802  20.771  22.931  0.1018  0.2149 -0.0065
22831DOD     C112312  19.124  21.420  12.847 -0.2051 -0.0380 -0.2508
22831DOD     C212313  19.149  21.330  12.387  0.1218  0.0879 -0.0847
22831DOD     C312314  19.311  21.016  11.996  0.3239  0.0157 -0.0239
22832DOD     C112315  29.271  24.687  27.030 -0.1069 -0.0113  0.0254
22832DOD     C212316  29.111  24.996  27.318 -0.1065  0.1998  0.3230
22832DOD     C312317  29.339  25.416  27.343 -0.2113  0.0671  0.3237
22833DOD     C112318   5.775  13.227   1.992  0.2563  0.4339  0.0347
22833DOD     C212319   5.993  13.419   1.657 -0.1344 -0.1496  0.0704
22833DOD     C312320   6.160  13.314   1.257  0.1792 -0.1831  0.0479
22834DOD     C112321   3.784  17.976  13.717 -0.0143  0.1649 -0.3065
22834DOD     C212322   3.699  18.258  13.378 -0.0844  0.0116 -0.1060
22834DOD     C312323   3.585  18.234  12.904  0.0305 -0.2074 -0.3996
22835DOD     C112324  27.873   7.274  12.464  0.0582  0.3934  0.1440
22835DOD     C212325  27.909   7.092  12.884 -0.0578 -0.1241 -0.0883
22835DOD     C312326  27.934   6.856  13.290  0.1451 -0.1322 -0.4786
22836DOD     C112327  11.548  18.882  25.552 -0.1359 -0.0982  0.0007
22836DOD     C212328  11.892  19.216  25.650 -0.1048 -0.1744  0.0163
22836DOD     C312329  12.255  19.427  25.817  0.2976 -0.1003 -0.0249
22837DOD     C112330  22.710  18.128  28.145 -0.0944  0.2140  0.0781
22837DOD     C212331  22.476  18.126  28.550  0.1853 -0.1122 -0.0615
22837DOD     C312332  22.615  18.062  28.972  0.0213 -0.0187  0.1419
22838DOD     C112333  23.528  28.505  22.604 -0.0062 -0.3765 -0.0461
22838DOD     C212334  23.089  28.716  22.572  0.0010  0.0612 -0.0865
22838DOD     C312335  22.723  28.483  22.322 -0.2831  0.1083  0.1335
22839DOD     C112336  24.418  14.373  25.834  0.2324 -0.0408 -0.1430
22839DOD     C212337  24.801  14.411  26.150 -0.0883 -0.1612  0.2574
22839DOD     C312338  25.125  14.542  26.521  0.0723  0.1934  0.1062
22840DOD     C112339  23.000  29.102   4.315  0.1563 -0.1125  0.1509
22840DOD     C212340  22.954  29.130   3.889  0.1124  0.0449 -0.1959
22840DOD     C312341  23.106  29.291   3.423 -0.2317  0.2298  0.2865
22841DOD     C112342  14.488  17.490   6.387 -0.0437 -0.0431  0.0357
22841DOD     C212343  14.562  17.613   6.852 -0.4861 -0.1723 -0.0757
22841DOD     C312344  14.683  17.765   7.239 -0.0868  0.0266 -0.0691
22842DOD     C112345   1.419  20.238  29.324 -0.2139 -0.2747 -0.3594
22842DOD     C212346   1.193  19.862  29.150  0.2127 -0.0327 -0.1190
22842DOD     C312347   0.946  19.533  29.392 -0.1157  0.0131  0.0265
22843DOD     C112348  19.050   9.141  23.684 -0.2296  0.0713  0.0620
22843DOD     C212349  18.844   9.382  23.348 -0.0331 -0.2538 -0.0543
22843DOD     C312350  18.657   9.258  22.929  0.0798 -0.1456 -0.0239
22844DOD     C112351  16.387  13.736  23.646 -0.4115  0.0931 -0.1352
22844DOD     C212352  16.672  14.078  23.862 -0.0554 -0.2188 -0.0663
22844DOD     C312353  16.866  14.194  24.279 -0.0408 -0.1456 -0.0725
22845DOD     C112354   2.178  17.469   0.204 -0.1220  0.0620 -0.4996
22845DOD     C212355   2.166  17.385  30.139  0.0392 -0.3531  0.1701
22845DOD     C312356   2.288  17.456  29.720 -0.4320 -0.4010  0.0282
22846DOD     C112357  17.788  10.475  22.531 -0.1199 -0.2405 -0.2948
22846DOD     C212358  17.967  10.242  22.885  0.2634 -0.1183  0.0605
22846DOD     C312359  18.290   9.992  22.697 -0.3879 -0.1121  0.1115
22847DOD     C112360  26.146  20.766  22.819  0.0674  0.0259  0.0417
22847DOD     C212361  26.563  20.546  22.857  0.0003  0.1534  0.2401
22847DOD     C312362  27.015  20.538  22.930  0.3033  0.1984 -0.0358
22848DOD     C112363  22.928  15.184  27.224 -0.2271 -0.1679 -0.0328
22848DOD     C212364  22.967  15.603  27.082 -0.3062 -0.3011 -0.2675
22848DOD     C312365  23.065  15.848  26.784 -0.2865 -0.0467  0.3265
22849DOD     C112366  20.114   4.628   3.580  0.3324 -0.2138 -0.0168
22849DOD     C212367  19.776   4.590   3.209  0.3607 -0.0947  0.2547
22849DOD     C312368  19.387   4.772   3.070 -0.2235  0.1068 -0.2742
22850DOD     C112369   2.544  12.564   3.384 -0.0427 -0.2101 -0.1142
22850DOD     C212370   2.885  12.745   3.579  0.1626  0.1381  0.0524
22850DOD     C312371   3.243  12.980   3.832  0.2739 -0.3375  0.1597
22851DOD     C112372   6.010   3.112  24.544  0.1700  0.2199 -0.1856
22851DOD     C212373   5.672   2.882  24.705 -0.2502  0.1726  0.1538
22851DOD     C312374   5.355   2.848  25.055  0.2852  0.1838  0.0702
22852DOD     C112375  20.247  29.970   5.640  0.0240  0.1486  0.1378
22852DOD     C212376  20.590  30.195   5.450  0.0477 -0.2272  0.0141
22852DOD     C312377  20.827   0.207   5.188 -0.1723  0.0886 -0.1005
22853DOD     C112378   9.741   1.718  26.579 -0.1646  0.1254 -0.0065
22853DOD     C212379   9.643   1.780  26.159  0.0176  0.0183  0.0073
22853DOD     C312380   9.729   1.646  25.775 -0.2431 -0.3425  0.4000
22854DOD     C112381  19.536   6.601  24.783 -0.0181  0.3162 -0.3806
22854DOD     C212382  19.848   6.920  24.569  0.0125 -0.5394  0.1189
22854DOD     C312383  20.134   7.031  24.213 -0.2312 -0.2731 -0.0370
22855DOD     C112384  25.033   7.952  26.881  0.0488  0.1818  0.0189
22855DOD     C212385  25.094   8.347  26.699  0.3374  0.0015  0.0792
22855DOD     C312386  25.179   8.404  26.230 -0.0378 -0.1477 -0.4492
22856DOD     C112387   2.891   4.489   5.675  0.1587  0.0919 -0.0536
22856DOD     C212388   2.888   4.907   5.829 -0.1248  0.2941 -0.0566
22856DOD     C312389   2.982   5.359   5.731 -0.1461 -0.3728  0.0365
22857DOD     C112390   9.902  27.199  29.664  0.0729  0.1315  0.0033
22857DOD     C212391  10.290  27.017  29.499  0.2310 -0.1688  0.1224
22857DOD     C312392  10.720  26.911  29.279 -0.0108  0.0215 -0.1111
22858DOD     C112393  10.370  18.929  17.853  0.3042  0.1599  0.2279
22858DOD     C212394  10.550  19.286  17.652 -0.0375  0.0574 -0.0062
22858DOD     C312395  10.526  19.552  17.303  0.2040 -0.1345 -0.1664
22859DOD     C112396  18.009   2.799  20.081 -0.0563 -0.0551 -0.1577
22859DOD     C212397  18.343   2.711  20.374  0.0150 -0.2081 -0.1427
22859DOD     C312398  18.716   2.410  20.499 -0.1594  0.1692  0.0452
22860DOD     C112399   6.588   5.076  15.445 -0.0303 -0.1640 -0.2171
22860DOD     C212400   6.936   5.044  15.754  0.0367  0.0066  0.4150
22860DOD     C312401   7.382   5.149  15.821 -0.1667 -0.3476  0.0416
22861DOD     C112402   8.705   7.075  14.959  0.1360 -0.3059  0.0735
22861DOD     C212403   8.821   7.399  15.259 -0.1784 -0.1220  0.3302
22861DOD     C312404   8.862   7.853  15.070  0.0306  0.0793 -0.0185
22862DOD     C112405  19.071  13.841   7.554 -0.1477 -0.1096  0.1810
22862DOD     C212406  18.781  13.567   7.354 -0.0556  0.0607 -0.2081
22862DOD     C312407  18.887  13.369   6.938  0.0164  0.1667 -0.1962
22863DOD     C112408  23.380  10.494  26.574  0.0796  0.0452  0.1956
22863DOD     C212409  23.590  10.627  26.205  0.0103 -0.0740 -0.3782
22863DOD     C312410  23.969  10.844  26.005 -0.0464 -0.1757  0.0023
22864DOD     C112411   7.191   1.997  29.449  0.0360  0.0036 -0.2017
22864DOD     C212412   7.604   2.225  29.468 -0.2504 -0.0769 -0.0773
22864DOD     C312413   8.049   2.266  29.335  0.0418  0.0321 -0.0316
22865DOD     C112414   5.533   3.990  20.502 -0.2762  0.1219 -0.3725
22865DOD     C212415   5.003   3.947  20.534  0.4276 -0.2717 -0.0573
22865DOD     C312416   4.662   3.733  20.803  0.0520  0.0656  0.1988
22866DOD     C112417  21.244  20.393   3.196  0.2435  0.3577  0.1607
22866DOD     C212418  20.994  20.712   2.986  0.2305 -0.0751 -0.3520
22866DOD     C312419  20.753  21.020   3.242 -0.2987 -0.1345 -0.0306
22867DOD     C112420   9.039  15.525  20.949  0.2936 -0.0568 -0.1202
22867DOD     C212421   9.304  15.715  20.629 -0.1986 -0.1569  0.1660
22867DOD     C312422   9.132  16.085  20.442  0.0723  0.1245  0.1493
22868DOD     C112423  10.900  12.879   5.942  0.0376  0.1853 -0.1531
22868DOD     C212424  11.006  13.054   6.358 -0.0348  0.3371  0.0789
22868DOD     C312425  10.976  13.065   6.798 -0.0251 -0.0517 -0.0320
22869DOD     C112426  21.754  25.111   0.485 -0.0592  0.1771 -0.0130
22869DOD     C212427  21.864  25.477   0.285  0.0719  0.0635  0.2537
22869DOD     C312428  22.171  25.849   0.102  0.1563 -0.1073 -0.1042
22870DOD     C112429  17.360   7.754   1.307  0.2107 -0.1675  0.0970
22870DOD     C212430  17.621   8.120   1.357 -0.2326 -0.1088 -0.0629
22870DOD     C312431  17.680   8.555   1.544  0.4162  0.2834 -0.1249
22871DOD     C112432  17.401  30.171  15.668 -0.0387  0.2501 -0.1548
22871DOD     C212433  17.756  29.899  15.729  0.0989 -0.1197  0.0267
22871DOD     C312434  17.791  29.498  15.997 -0.2426 -0.1252 -0.2768
22872DOD     C112435   7.752  17.900  20.860 -0.0459  0.3312  0.0799
22872DOD     C212436   7.526  18.309  20.741 -0.0424 -0.0158 -0.1077
22872DOD     C312437   7.334  18.550  20.359 -0.0509  0.1430 -0.1415
22873DOD     C112438   9.180   2.180  24.132  0.2172  0.1501 -0.0444
22873DOD     C212439   9.228   2.624  24.262  0.0395 -0.0511  0.2765
22873DOD     C312440   9.420   3.026  24.199  0.2607 -0.2434  0.0517
22874DOD     C112441  20.744  13.744  28.757 -0.1790  0.0727  0.1788
22874DOD     C212442  20.354  13.622  28.557  0.0831 -0.0464 -0.0735
22874DOD     C312443  20.044  13.784  28.217 -0.0822 -0.1988  0.1570
22875DOD     C112444   3.552  17.133  26.149  0.2347 -0.2267  0.2081
22875DOD     C212445   3.944  17.017  26.399 -0.0068 -0.3864  0.2681
22875DOD     C312446   4.400  16.883  26.419  0.2146  0.0925 -0.1500
22876DOD     C112447  26.159   5.469  10.807 -0.0390  0.1199  0.1212
22876DOD     C212448  26.206   5.846  10.518 -0.0632  0.1292 -0.2316
22876DOD     C312449  26.086   6.221  10.317 -0.3489  0.1988 -0.0372
22877DOD     C112450  28.039  25.069   7.014  0.0691  0.4117 -0.0358
22877DOD     C212451  27.949  24.889   6.592 -0.1135  0.0940 -0.0973
22877DOD     C312452  28.043  25.024   6.120  0.0371  0.1229 -0.2455
22878DOD     C112453  23.028  14.461   3.104  0.2705 -0.0004 -0.0825
22878DOD     C212454  22.930  14.883   3.063  0.0226  0.3183 -0.2675
22878DOD     C312455  22.619  15.223   3.096  0.2803  0.0878 -0.0494
22879DOD     C112456  17.278   1.485  13.343 -0.1095  0.0503 -0.3792
22879DOD     C212457  17.625   1.382  13.626  0.5326  0.1684  0.0896
22879DOD     C312458  17.706   1.485  14.073 -0.1692  0.0425  0.0241
22880DOD     C112459  30.251  16.850   0.410 -0.2666 -0.1936 -0.6795
22880DOD     C212460  29.803  16.710   0.290 -0.1610  0.3450 -0.4102
22880DOD     C312461  29.490  16.379   0.373  0.2011 -0.0031  0.4777
22881DOD     C112462  20.857  14.839  10.304 -0.2035  0.0130 -0.2634
22881DOD     C212463  20.561  14.635  10.595  0.3848 -0.2553  0.3770
22881DOD     C312464  20.428  14.252  10.711  0.0952 -0.0393  0.0365
22882DOD     C112465   5.536   5.944   4.207  0.4609 -0.0737  0.2656
22882DOD     C212466   5.327   5.526   4.009 -0.0649  0.0183 -0.1402
22882DOD     C312467   5.101   5.174   3.922 -0.2981  0.1443  0.0113
22883DOD     C112468  20.564   8.208  25.838 -0.2533 -0.0984 -0.0241
22883DOD     C212469  20.345   7.967  26.211 -0.3880  0.0575 -0.0759
22883DOD     C312470  20.520   7.827  26.626  0.3522  0.1938 -0.1361
22884DOD     C112471  25.198  19.492  11.632 -0.0748  0.0079 -0.2237
22884DOD     C212472  24.937  19.707  11.995 -0.1073 -0.0087 -0.0497
22884DOD     C312473  24.582  19.971  12.158  0.2988 -0.0874 -0.0076
22885DOD     C112474   1.053  29.514  17.787 -0.3116  0.0143 -0.0460
22885DOD     C212475   1.201  29.173  18.064 -0.2578 -0.0171 -0.0700
22885DOD     C312476   1.434  28.830  17.950 -0.0753 -0.0773 -0.0272
22886DOD     C112477  26.817  22.479   3.504 -0.0717 -0.0038  0.2233
22886DOD     C212478  26.360  22.473   3.520  0.1864 -0.1252 -0.0296
22886DOD     C312479  26.109  22.086   3.530  0.2838 -0.0202  0.0856
22887DOD     C112480  18.994  19.670  21.253  0.3396  0.0277  0.0726
22887DOD     C212481  19.182  19.343  21.537 -0.2612 -0.0253  0.2174
22887DOD     C312482  19.472  19.237  21.897  0.1720 -0.1944 -0.1427
22888DOD     C112483  12.731   4.974  29.938  0.1875 -0.1214  0.1811
22888DOD     C212484  13.107   5.119  29.800  0.0753  0.0418 -0.0082
22888DOD     C312485  13.481   4.848  29.656 -0.3019 -0.3703  0.4547
22889DOD     C112486  26.387  12.226   8.287  0.0193 -0.0036 -0.0491
22889DOD     C212487  26.735  12.318   8.582  0.1739 -0.0763  0.1410
22889DOD     C312488  26.996  12.513   8.917 -0.1595 -0.0165 -0.2883
22890DOD     C112489  20.937  17.873   3.318  0.1973  0.0591  0.1022
22890DOD     C212490  20.956  17.381   3.298  0.2758 -0.3731  0.0433
22890DOD     C312491  20.848  16.934   3.485  0.0297 -0.0377 -0.2166
22891DOD     C112492  11.822  13.830  28.493 -0.0668  0.0431 -0.3232
22891DOD     C212493  11.878  14.180  28.190  0.0732  0.1923  0.0667
22891DOD     C312494  11.888  14.403  27.766 -0.0310  0.1365  0.1768
22892DOD     C112495  26.527  26.815   1.519 -0.0421  0.1149 -0.1544
22892DOD     C212496  26.588  26.731   1.021  0.2428  0.3238  0.2119
22892DOD     C312497  26.449  26.837   0.566  0.0055  0.0063 -0.0484
22893DOD     C112498  12.902  26.726  22.487 -0.1005  0.0546  0.1408
22893DOD     C212499  12.745  27.056  22.714 -0.0220 -0.1971  0.1968
22893DOD     C312500  12.752  27.489  22.890  0.1610 -0.1366 -0.2198
22894DOD     C112501  11.581   4.952  10.815  0.1416 -0.2642  0.1417
22894DOD     C212502  11.805   4.566  10.812 -0.0227  0.3887 -0.2689
22894DOD     C312503  12.167   4.374  11.047  0.0448  0.0765  0.0568
22895DOD     C112504  19.191  14.638  26.422  0.0498  0.0643  0.3309
22895DOD     C212505  19.489  14.963  26.326 -0.2898 -0.1076  0.0474
22895DOD     C312506  19.663  15.374  26.225  0.0294 -0.0993  0.3238
22896DOD     C112507  15.729  18.265  17.638  0.1936  0.0246 -0.2336
22896DOD     C212508  15.708  18.696  17.431  0.4068  0.2567 -0.2594
22896DOD     C312509  15.668  18.800  16.986 -0.2870  0.0348  0.5677
22897DOD     C112510  20.573  10.817  10.110 -0.2343  0.0384  0.0544
22897DOD     C212511  20.505  10.712   9.661 -0.1079 -0.1347 -0.0768
22897DOD     C312512  20.555  10.729   9.210  0.0670 -0.1340 -0.1377
22898DOD     C112513  26.501  10.396  24.733 -0.0650 -0.0241  0.1063
22898DOD     C212514  26.473   9.976  24.642 -0.1096  0.0173  0.2455
22898DOD     C312515  26.557   9.664  24.249  0.0041  0.3268  0.1174
22899DOD     C112516  11.289  19.552  12.845 -0.2198  0.2677 -0.0694
22899DOD     C212517  11.542  19.561  13.249 -0.1615 -0.1406  0.1366
22899DOD     C312518  11.895  19.519  13.556 -0.1828  0.1152 -0.1173
22900DOD     C112519   3.394   3.371  17.512  0.1714  0.0887 -0.1308
22900DOD     C212520   3.179   3.010  17.455 -0.2661 -0.1264  0.0901
22900DOD     C312521   3.160   2.556  17.273 -0.0302  0.0543  0.2570
22901DOD     C112522   7.072   4.212  15.766 -0.1288 -0.0916 -0.1226
22901DOD     C212523   7.520   4.047  15.844  0.0077 -0.1050  0.2159
22901DOD     C312524   7.935   3.878  16.043 -0.3175  0.1167  0.2266
22902DOD     C112525  25.676   5.004   2.360 -0.0266 -0.0257  0.0396
22902DOD     C212526  25.418   5.385   2.232  0.1221 -0.1301  0.1308
22902DOD     C312527  25.022   5.421   2.054  0.2064 -0.0733 -0.0422
22903DOD     C112528  27.026   1.678   6.668  0.0879  0.1282  0.0480
22903DOD     C212529  26.716   1.666   6.321 -0.1847 -0.1333 -0.0153
22903DOD     C312530  26.393   1.612   5.906 -0.2380  0.0246 -0.0736
22904DOD     C112531  23.778   4.921  25.331  0.0906 -0.1057  0.0007
22904DOD     C212532  23.885   5.313  25.580 -0.1400 -0.3222  0.1485
22904DOD     C312533  24.058   5.725  25.423  0.2104  0.0718  0.2231
22905DOD     C112534  16.817  23.205  14.841  0.1454  0.2738 -0.4470
22905DOD     C212535  17.243  23.024  14.949  0.0776  0.0494  0.0734
22905DOD     C312536  17.558  22.768  15.194  0.2445 -0.1528  0.0957
22906DOD     C112537   8.095   6.130  21.969  0.0664  0.0467 -0.3134
22906DOD     C212538   7.662   5.966  21.931 -0.0137 -0.2986  0.0913
22906DOD     C312539   7.251   5.866  21.755 -0.1983  0.0114 -0.0266
22907DOD     C112540  18.463  28.785  12.326 -0.0368 -0.2692  0.1860
22907DOD     C212541  18.676  28.951  11.944 -0.0626 -0.0778  0.0678
22907DOD     C312542  19.116  29.138  11.981  0.0537  0.2405 -0.0622
22908DOD     C112543   4.730  20.163  19.108  0.0090 -0.4134 -0.0328
22908DOD     C212544   4.287  20.064  19.219  0.1397  0.0665 -0.3981
22908DOD     C312545   3.831  20.147  19.250  0.0493  0.2371 -0.4625
22909DOD     C112546  18.572   6.475  24.074 -0.2223  0.0038 -0.1731
22909DOD     C212547  18.845   6.263  24.427 -0.0167 -0.1869 -0.3827
22909DOD     C312548  19.032   5.885  24.678  0.1579  0.6378  0.0076
22910DOD     C112549   9.451   9.910  16.013 -0.0568 -0.3979  0.0978
22910DOD     C212550   9.829   9.657  16.064  0.0378  0.0786  0.2135
22910DOD     C312551  10.235   9.358  16.245 -0.2025  0.2211  0.0188
22911DOD     C112552  14.897   9.114  10.927  0.2214  0.0346  0.2079
22911DOD     C212553  14.591   9.124  10.497 -0.2735  0.0543  0.0304
22911DOD     C312554  14.370   9.479  10.310 -0.0022  0.0239  0.1279
22912DOD     C112555  11.350  24.640   2.662 -0.2406  0.3467 -0.1011
22912DOD     C212556  11.335  24.991   2.389  0.1257  0.1162  0.1422
22912DOD     C312557  11.103  25.202   2.063  0.0816 -0.0411 -0.1703
22913DOD     C112558  18.776  24.130  27.602 -0.1841 -0.3195  0.1298
22913DOD     C212559  18.557  24.569  27.486  0.3367  0.2218  0.1178
22913DOD     C312560  18.522  24.984  27.600 -0.1259  0.2654 -0.1209
22914DOD     C112561  27.531  24.862  29.086  0.0281  0.0828 -0.0217
22914DOD     C212562  27.462  24.821  29.565 -0.0747  0.1350  0.0295
22914DOD     C312563  27.413  24.522  29.942 -0.0644 -0.2561  0.0629
22915DOD     C112564   6.061   4.139  29.341  0.1580  0.3273 -0.2582
22915DOD     C212565   5.894   4.065  28.912  0.2512 -0.0009  0.0132
22915DOD     C312566   5.928   4.019  28.449 -0.2884  0.0702 -0.0372
22916DOD     C112567  17.837  15.835   8.502  0.2644 -0.0137 -0.0930
22916DOD     C212568  17.604  15.818   8.119 -0.1476 -0.0754 -0.2316
22916DOD     C312569  17.392  15.492   7.935  0.0837 -0.1405 -0.0572
22917DOD     C112570  19.584  25.975  20.302  0.2088  0.1372  0.0913
22917DOD     C212571  19.618  25.837  19.874 -0.1917 -0.1806 -0.0459
22917DOD     C312572  19.431  25.632  19.477 -0.2524 -0.3944  0.2212
22918DOD     C112573   2.194   4.240   9.240 -0.0645 -0.2384  0.0682
22918DOD     C212574   1.961   4.648   9.119  0.1392  0.0336  0.1186
22918DOD     C312575   1.829   5.016   8.829  0.1041 -0.0905  0.0385
22919DOD     C112576   0.174   0.299  10.211 -0.1546  0.2155  0.1551
22919DOD     C212577   0.283  30.116  10.322 -0.3559 -0.0691 -0.1250
22919DOD     C312578   0.194  29.735  10.569  0.0271 -0.3097 -0.1409
22920DOD     C112579  10.687  17.949  22.700  0.0722 -0.1620 -0.0283
22920DOD     C212580  10.527  17.655  23.016  0.1105  0.0826 -0.4830
22920DOD     C312581  10.619  17.665  23.493 -0.0542  0.2763  0.0244
22921DOD     C112582  16.046  16.307   9.088  0.2851 -0.0763  0.2432
22921DOD     C212583  16.206  16.162   8.712  0.0368  0.1117  0.2054
22921DOD     C312584  16.560  15.919   8.561  0.1196 -0.1268 -0.1765
22922DOD     C112585  13.692  17.380   2.470  0.1092 -0.1271 -0.0078
22922DOD     C212586  13.483  17.620   2.809 -0.0372  0.2478  0.1003
22922DOD     C312587  13.463  17.982   3.076 -0.1614  0.2204  0.2654
22923DOD     C112588  26.619  12.571   4.546 -0.5617 -0.0578 -0.0687
22923DOD     C212589  26.824  12.617   4.990  0.1502  0.0062 -0.0759
22923DOD     C312590  26.986  12.553   5.421 -0.0293  0.1842 -0.0284
22924DOD     C112591  20.054   6.707  10.413 -0.3419 -0.2039 -0.0129
22924DOD     C212592  19.988   7.151  10.623 -0.2251  0.0655  0.1550
22924DOD     C312593  20.205   7.577  10.696  0.3248  0.0634 -0.0720
22925DOD     C112594   8.653   1.592   8.478  0.0443 -0.3714 -0.0476
22925DOD     C212595   8.748   1.303   8.791  0.0188 -0.0725 -0.1722
22925DOD     C312596   8.536   0.861   8.706 -0.0432  0.1136  0.0834
22926DOD     C112597   3.687  26.870  11.084  0.0583 -0.0900  0.0943
22926DOD     C212598   3.668  27.062  11.479 -0.1716 -0.2216  0.1725
22926DOD     C312599   3.405  27.289  11.788  0.3128 -0.1778 -0.0169
22927DOD     C112600  15.643  14.282  11.310 -0.0828  0.4501  0.0215
22927DOD     C212601  15.999  14.343  11.577  0.3069  0.1350  0.0564
22927DOD     C312602  16.031  14.191  12.068 -0.1386  0.1415 -0.1356
22928DOD     C112603  17.916   8.656  18.390 -0.2025  0.1646 -0.2470
22928DOD     C212604  17.532   8.626  18.169 -0.0283  0.0009  0.5311
22928DOD     C312605  17.098   8.517  17.856 -0.2849  0.0727 -0.2595
22929DOD     C112606  29.373  26.369  29.102  0.1956 -0.1176  0.1883
22929DOD     C212607  29.126  25.997  29.099  0.0111  0.1507 -0.0060
22929DOD     C312608  29.183  25.579  28.922  0.1056 -0.1430 -0.1888
22930DOD     C112609  13.729  13.496  22.886  0.0220  0.3904 -0.0595
22930DOD     C212610  13.537  13.088  22.611  0.0089 -0.0358 -0.2551
22930DOD     C312611  13.429  13.029  22.208  0.0925  0.0084  0.0637
22931DOD     C112612   4.340  23.385   4.402  0.2130 -0.2604 -0.3419
22931DOD     C212613   4.423  23.307   4.872 -0.0524  0.1808  0.0070
22931DOD     C312614   4.321  23.447   5.272  0.0766 -0.2013  0.0496
22932DOD     C112615   1.255   7.061   7.414 -0.2607 -0.2724  0.1344
22932DOD     C212616   1.367   6.709   7.705 -0.0040 -0.1537  0.1683
22932DOD     C312617   1.472   6.419   8.038  0.1360 -0.1224  0.3267
22933DOD     C112618  26.830  11.503  29.606 -0.1030 -0.1989  0.0456
22933DOD     C212619  26.952  11.860  29.363  0.0267 -0.2786  0.0794
22933DOD     C312620  27.038  12.157  28.980  0.3562  0.0807  0.2179
22934DOD     C112621  28.885  25.465  29.999 -0.0463  0.0150  0.0184
22934DOD     C212622  28.901  25.742   0.042 -0.1234 -0.0410 -0.2282
22934DOD     C312623  28.806  25.956   0.515  0.1710  0.0191  0.2674
22935DOD     C112624   1.729  29.541  22.861 -0.0967 -0.1000 -0.4040
22935DOD     C212625   1.518  29.722  23.242  0.0054  0.4212  0.0341
22935DOD     C312626   1.363  30.118  23.455 -0.0825 -0.2197  0.0407
22936DOD     C112627   6.682  18.342   6.586  0.1072  0.3459 -0.1130
22936DOD     C212628   6.408  18.261   6.172  0.4280 -0.2249  0.0239
22936DOD     C312629   6.209  18.034   5.791 -0.0983 -0.0412  0.0228
22937DOD     C112630  21.900  18.672   5.136 -0.0789 -0.1480 -0.0347
22937DOD     C212631  22.033  18.843   5.542  0.1217  0.1260 -0.3695
22937DOD     C312632  21.999  18.771   6.012  0.0245 -0.0719  0.0752
22938DOD     C112633   1.545  24.240   7.423  0.1961 -0.3029  0.2211
22938DOD     C212634   1.894  24.508   7.295  0.1948  0.0081  0.3552
22938DOD     C312635   2.088  24.737   6.883  0.1528 -0.0095 -0.3659
22939DOD     C112636  27.125  27.002  10.156  0.1877 -0.1502 -0.0865
22939DOD     C212637  27.285  27.419  10.074  0.1945  0.2941 -0.1098
22939DOD     C312638  27.723  27.563   9.899  0.0192 -0.1198 -0.2156
22940DOD     C112639   0.944  23.200   8.001 -0.1168  0.3189  0.4013
22940DOD     C212640   1.310  23.208   8.323 -0.0097  0.3801  0.1286
22940DOD     C312641   1.366  23.273   8.760  0.2058  0.0805 -0.0320
22941DOD     C112642  24.674   6.368   2.692 -0.0161 -0.0766 -0.2399
22941DOD     C212643  24.289   6.410   2.964  0.0413  0.0856  0.1392
22941DOD     C312644  24.018   6.164   3.278  0.1691  0.0452 -0.1179
22942DOD     C112645   5.132  16.004  19.022  0.0718  0.1005 -0.0687
22942DOD     C212646   5.316  15.993  18.543 -0.3641 -0.0984  0.0489
22942DOD     C312647   5.292  16.253  18.100 -0.0643  0.1019 -0.1577
22943DOD     C112648  13.355  14.033  13.709  0.1787  0.2396  0.2413
22943DOD     C212649  12.878  14.091  13.686 -0.0576  0.1942  0.0434
22943DOD     C312650  12.432  14.035  13.710  0.0622 -0.0920  0.3189
22944DOD     C112651  19.515   7.192   7.059 -0.2463 -0.0968  0.0786
22944DOD     C212652  19.518   6.767   6.902  0.1418  0.2849  0.0086
22944DOD     C312653  19.613   6.434   6.568  0.0906  0.0392 -0.0163
22945DOD     C112654  26.485   5.942  20.239 -0.1195 -0.0687 -0.1227
22945DOD     C212655  26.456   6.004  19.740 -0.3512  0.1371  0.1506
22945DOD     C312656  26.538   6.113  19.262 -0.1551  0.1043 -0.0581
22946DOD     C112657  14.614  30.313   3.145 -0.2134  0.0789  0.5039
22946DOD     C212658  14.564   0.070   3.599 -0.0957 -0.1691  0.0114
22946DOD     C312659  14.524   0.293   3.948 -0.0564 -0.3285  0.0560
22947DOD     C112660  11.745   9.280  25.275  0.0947  0.1337 -0.2704
22947DOD     C212661  11.432   8.913  25.248 -0.3232 -0.0811 -0.0125
22947DOD     C312662  11.071   8.799  25.568 -0.2942 -0.1322  0.1027
22948DOD     C112663  20.885  28.855  21.265  0.0397  0.2120 -0.1553
22948DOD     C212664  20.588  28.493  21.325 -0.1130 -0.0101 -0.1290
22948DOD     C312665  20.137  28.435  21.498  0.0820 -0.0724 -0.1858
22949DOD     C112666   9.876  15.153   6.754 -0.1355 -0.1511  0.2272
22949DOD     C212667  10.033  14.750   6.767 -0.1698 -0.1544 -0.2254
22949DOD     C312668  10.030  14.260   6.767 -0.1238  0.4383 -0.1025
22950DOD     C112669  26.695  19.734  11.162  0.1445 -0.3431 -0.0930
22950DOD     C212670  26.667  20.020  10.840  0.4212 -0.5092  0.0935
22950DOD     C312671  26.755  20.268  10.477  0.1592 -0.0825  0.4551
22951DOD     C112672  16.320  27.765  28.290  0.0165  0.1813 -0.1785
22951DOD     C212673  16.364  27.507  28.674  0.0072  0.0077  0.0275
22951DOD     C312674  16.505  27.526  29.181  0.0886 -0.4482  0.3444
22952DOD     C112675  26.937  18.880  14.358 -0.3281 -0.0500  0.3675
22952DOD     C212676  26.638  19.231  14.284 -0.0319  0.0004  0.2063
22952DOD     C312677  26.621  19.592  14.582  0.2474 -0.2519 -0.1156
22953DOD     C112678  27.915   2.052   3.002 -0.0533  0.0983  0.0905
22953DOD     C212679  27.931   1.821   3.354 -0.0118  0.0157 -0.1145
22953DOD     C312680  27.957   1.296   3.409  0.1253  0.0880  0.1571
22954DOD     C112681  20.544  12.339  19.662  0.1931 -0.1806  0.0778
22954DOD     C212682  20.448  12.285  20.110  0.2729  0.1092  0.1078
22954DOD     C312683  20.417  12.252  20.599 -0.1687  0.2247  0.0665
22955DOD     C112684   0.091  27.110  14.253  0.2153  0.3655 -0.3950
22955DOD     C212685  30.029  27.025  14.414  0.0848 -0.0093  0.0992
22955DOD     C312686  29.557  27.090  14.284 -0.0082  0.3209  0.2858
22956DOD     C112687  27.418  20.526  27.105 -0.0203  0.0644 -0.2491
22956DOD     C212688  27.576  20.230  27.440  0.1314  0.1118  0.0222
22956DOD     C312689  27.977  20.132  27.619  0.1478 -0.3827  0.2820
22957DOD     C112690   3.870  17.646  19.996 -0.0736  0.3137  0.0085
22957DOD     C212691   3.933  17.754  19.515  0.0284  0.1025  0.0704
22957DOD     C312692   4.073  18.142  19.281  0.0698 -0.0127  0.1252
22958DOD     C112693  14.232   9.515  22.103  0.2011 -0.2586 -0.1729
22958DOD     C212694  14.617   9.848  22.122 -0.2180 -0.2815  0.1931
22958DOD     C312695  15.092   9.805  22.163 -0.0884  0.1856 -0.1663
22959DOD     C112696  18.884  25.922   0.998  0.1671 -0.3578  0.1288
22959DOD     C212697  19.195  26.066   1.299 -0.1756  0.1330 -0.0289
22959DOD     C312698  19.623  26.023   1.364 -0.3057  0.2797  0.0948
22960DOD     C112699   3.393  13.791  16.879  0.1826  0.3791 -0.0252
22960DOD     C212700   3.841  13.668  16.710  0.0358 -0.2781  0.0535
22960DOD     C312701   4.172  13.363  16.697 -0.0353  0.1242 -0.1675
22961DOD     C112702  12.007  10.108  25.110  0.0025  0.2688  0.0389
22961DOD     C212703  11.742  10.117  24.753  0.0128  0.2093 -0.0637
22961DOD     C312704  11.338   9.912  24.777  0.1122  0.1289 -0.0195
22962DOD     C112705  13.680  28.971  14.653  0.0756  0.3369  0.0207
22962DOD     C212706  13.748  29.407  14.494  0.0733  0.2513  0.0938
22962DOD     C312707  13.777  29.567  14.080  0.1637  0.2267 -0.3095
22963DOD     C112708  22.784  28.890  27.452  0.1328  0.1083 -0.0933
22963DOD     C212709  22.334  28.822  27.344  0.2003 -0.1026  0.1319
22963DOD     C312710  22.062  28.877  26.927 -0.0915  0.2088 -0.0063
22964DOD     C112711  11.235  28.483  13.060 -0.2233 -0.2523 -0.1258
22964DOD     C212712  11.179  28.912  12.960 -0.4044 -0.0062  0.0999
22964DOD     C312713  11.234  29.386  12.917  0.1103 -0.1007  0.0949
22965DOD     C112714  29.846  27.513  14.610  0.3023 -0.3033  0.1960
22965DOD     C212715  29.568  27.818  14.864  0.1685 -0.0070  0.1785
22965DOD     C312716  29.467  28.179  15.140  0.1415 -0.1112 -0.0920
22966DOD     C112717  13.248  22.914  28.197 -0.0129 -0.1467 -0.0472
22966DOD     C212718  12.967  23.123  28.445  0.0831  0.0516  0.4043
22966DOD     C312719  12.633  23.328  28.211 -0.4667 -0.4785 -0.0223
22967DOD     C112720  22.331  16.727  15.678  0.2012 -0.0273 -0.1696
22967DOD     C212721  22.309  16.977  15.284 -0.0928  0.4144  0.2362
22967DOD     C312722  22.654  17.140  15.021 -0.1896  0.2678 -0.1770
22968DOD     C112723  14.283   5.325  21.105 -0.0220  0.1857  0.3460
22968DOD     C212724  13.977   5.062  20.817  0.1049 -0.3813  0.1056
22968DOD     C312725  14.090   5.049  20.373  0.1240  0.4277 -0.0063
22969DOD     C112726  10.337  25.903  10.868 -0.0602 -0.0500 -0.0843
22969DOD     C212727  10.633  26.223  11.161  0.0959 -0.2259  0.0173
22969DOD     C312728  10.954  26.249  11.493  0.1570  0.1311 -0.0059
22970DOD     C112729   0.381  16.610  16.034  0.0523  0.0380  0.1374
22970DOD     C212730   0.611  16.269  15.735  0.0707  0.3960 -0.3408
22970DOD     C312731   1.034  16.077  15.580 -0.0867  0.0048  0.2303
22971DOD     C112732  20.349  13.531  21.508 -0.2849  0.0283  0.3251
22971DOD     C212733  19.931  13.322  21.558  0.2108  0.0584  0.1126
22971DOD     C312734  19.480  13.477  21.478  0.0338 -0.0558 -0.1069
22972DOD     C112735   3.767   9.097   8.400  0.2812 -0.0968 -0.1811
22972DOD     C212736   3.369   9.042   8.196 -0.2791 -0.1324 -0.1040
22972DOD     C312737   2.922   8.889   8.121 -0.0465  0.1687  0.1511
22973DOD     C112738  26.782  14.919   0.229 -0.1652  0.1519  0.0961
22973DOD     C212739  27.230  14.737   0.279  0.1378 -0.0962 -0.1312
22973DOD     C312740  27.518  14.636  30.266  0.1667  0.2732  0.2961
22974DOD     C112741   4.954  29.507  29.312 -0.2162 -0.2738 -0.0459
22974DOD     C212742   4.735  29.632  28.921  0.1681 -0.2153  0.4366
22974DOD     C312743   4.436  29.718  28.539 -0.1348 -0.0921  0.2188
22975DOD     C112744   1.498  19.573  29.430  0.1289 -0.1023  0.0195
22975DOD     C212745   1.844  19.723  29.231  0.0623 -0.1788 -0.0324
22975DOD     C312746   2.308  19.774  29.186  0.0046 -0.0474 -0.1765
22976DOD     C112747  12.194  28.977  18.926 -0.3497  0.0827  0.2670
22976DOD     C212748  12.387  28.965  18.514  0.2421  0.4202 -0.2514
22976DOD     C312749  12.372  29.104  18.096  0.1689  0.0555 -0.1195
22977DOD     C112750   9.559   5.880   4.457 -0.0362 -0.2899 -0.2490
22977DOD     C212751   9.859   6.275   4.441 -0.0952  0.0792 -0.1193
22977DOD     C312752  10.234   6.418   4.731 -0.2411 -0.0611 -0.0722
22978DOD     C112753  19.698  16.079   0.152 -0.0232  0.0845  0.0460
22978DOD     C212754  19.831  15.775   0.427  0.1226 -0.0897 -0.1852
22978DOD     C312755  20.080  15.506   0.686  0.1366  0.0894  0.0895
22979DOD     C112756  14.456  23.528   7.284  0.1184 -0.2037  0.1453
22979DOD     C212757  14.109  23.211   7.158 -0.3698 -0.2420  0.1349
22979DOD     C312758  13.925  22.935   6.782 -0.0110  0.1584  0.2727
22980DOD     C112759  13.483   2.572   9.638  0.3423 -0.1048  0.0897
22980DOD     C212760  13.232   2.282   9.396 -0.2494 -0.3326  0.1121
22980DOD     C312761  13.506   1.970   9.081 -0.1670  0.0868 -0.0844
22981DOD     C112762  22.035   4.810  14.573 -0.1285 -0.1819 -0.1305
22981DOD     C212763  21.933   4.331  14.609  0.1810 -0.0781 -0.1131
22981DOD     C312764  21.786   3.841  14.546  0.0446 -0.2704 -0.0233
22982DOD     C112765  22.758   4.682   9.808 -0.2525 -0.2427 -0.1424
22982DOD     C212766  23.042   4.560   9.506  0.0054  0.3785  0.3041
22982DOD     C312767  23.012   4.163   9.245 -0.1343 -0.0129  0.0814
22983DOD     C112768   8.335  26.213   1.862 -0.4731  0.0021 -0.1722
22983DOD     C212769   8.489  26.624   2.035 -0.0595 -0.1483 -0.1974
22983DOD     C312770   8.862  26.924   2.170 -0.2408  0.1762 -0.0535
22984DOD     C112771  29.370  23.108   7.316 -0.1479  0.3054  0.1333
22984DOD     C212772  29.175  23.491   7.186  0.2187  0.0866  0.0806
22984DOD     C312773  28.741  23.638   7.208 -0.0242 -0.0601 -0.0208
22985DOD     C112774   8.133   2.833  13.586  0.0938  0.0521 -0.2794
22985DOD     C212775   7.985   2.485  13.345 -0.0327  0.2339  0.3141
22985DOD     C312776   7.924   2.384  12.899 -0.1025 -0.0704 -0.0953
22986DOD     C112777   1.836   1.686  17.828  0.0193  0.0915  0.1338
22986DOD     C212778   1.709   1.746  17.354  0.3186 -0.1628 -0.2038
22986DOD     C312779   1.756   1.910  16.925  0.0832  0.0320 -0.1183
22987DOD     C112780  25.713  30.263   2.308 -0.0326 -0.0177 -0.0535
22987DOD     C212781  26.035  30.295   2.701 -0.0949  0.2044  0.2205
22987DOD     C312782  25.974   0.121   3.105  0.0389  0.2476 -0.0215
22988DOD     C112783  12.995  29.723   6.909  0.0341  0.1941  0.0400
22988DOD     C212784  13.275  30.002   7.158 -0.2849 -0.0562 -0.1342
22988DOD     C312785  13.691  30.162   7.363 -0.0138  0.1131  0.1401
22989DOD     C112786   3.909  21.932  22.077 -0.1497  0.0735  0.2071
22989DOD     C212787   3.827  21.497  22.013 -0.1104 -0.0406 -0.0382
22989DOD     C312788   3.776  21.094  22.202 -0.0987 -0.4111 -0.0987
22990DOD     C112789  11.212   2.844   5.210 -0.1256  0.0801  0.0589
22990DOD     C212790  11.499   3.064   4.922 -0.0446  0.3847  0.4416
22990DOD     C312791  11.526   3.488   4.707  0.1769 -0.1424  0.0393
22991DOD     C112792  16.673  16.161   4.421 -0.0760  0.0350  0.1057
22991DOD     C212793  16.820  15.882   4.770 -0.0351  0.1209  0.3100
22991DOD     C312794  17.150  15.966   5.094 -0.0433  0.0485 -0.1263
22992DOD     C112795  28.153  27.149   2.682 -0.0769 -0.1098  0.0565
22992DOD     C212796  28.636  27.203   2.672 -0.1058  0.1804  0.0735
22992DOD     C312797  29.069  27.004   2.601  0.3288  0.0308  0.2812
22993DOD     C112798  17.618  19.565  22.455  0.3987 -0.2522  0.1313
22993DOD     C212799  17.970  19.423  22.182  0.0381 -0.2387 -0.1388
22993DOD     C312800  17.941  19.042  21.879 -0.0788 -0.0300 -0.1035
22994DOD     C112801  28.707  16.270   1.925  0.0816 -0.0393  0.2623
22994DOD     C212802  28.427  16.129   1.593  0.0846 -0.0332 -0.1055
22994DOD     C312803  28.188  16.030   1.152 -0.1257 -0.1031 -0.1347
22995DOD     C112804  10.905  10.636  30.296 -0.0683  0.1040  0.0341
22995DOD     C212805  10.770  11.080   0.053  0.2183  0.0792  0.0374
22995DOD     C312806  10.456  11.218   0.338  0.1143  0.0914 -0.2059
22996DOD     C112807   9.903   6.024   2.529 -0.1430 -0.0715 -0.2051
22996DOD     C212808  10.217   6.238   2.252  0.1772 -0.0917  0.2615
22996DOD     C312809  10.491   6.550   2.039  0.1020 -0.2834  0.2652
22997DOD     C112810   8.571   8.957  23.450  0.0739  0.1995 -0.0614
22997DOD     C212811   8.380   9.294  23.200  0.1389 -0.0730 -0.0466
22997DOD     C312812   8.076   9.606  23.121 -0.1566 -0.1406  0.1602
22998DOD     C112813  13.952  16.757   1.742  0.2479 -0.0106  0.0046
22998DOD     C212814  13.979  16.278   1.786 -0.1066  0.0857  0.1464
22998DOD     C312815  14.025  15.911   1.462 -0.0218 -0.2045 -0.0676
22999DOD     C112816  19.627  29.537   9.654  0.0802  0.4306  0.1563
22999DOD     C212817  19.509  29.974   9.700  0.3263 -0.2466 -0.1565
22999DOD     C312818  19.597   0.039   9.475 -0.0564 -0.4827 -0.3016
23000DOD     C112819  20.074  15.217  16.482  0.2638  0.1225 -0.0397
23000DOD     C212820  20.344  15.566  16.649  0.2253  0.1517 -0.1413
23000DOD     C312821  20.684  15.583  16.988 -0.2222  0.1248  0.1459
23001DOD     C112822  22.793  13.937  22.007 -0.1354 -0.1521  0.1987
23001DOD     C212823  22.743  14.097  22.434 -0.0736 -0.0107 -0.3779
23001DOD     C312824  22.775  14.193  22.862  0.2739 -0.0186 -0.2894
23002DOD     C112825  27.922   0.416  29.750 -0.0032 -0.0573 -0.2264
23002DOD     C212826  27.693   0.734  29.965 -0.3153 -0.1563  0.2475
23002DOD     C312827  27.498   1.110  30.172  0.0670  0.1553  0.0492
23003DOD     C112828   4.055  27.994  16.105 -0.0142  0.1424  0.1725
23003DOD     C212829   4.394  27.927  15.794  0.0316  0.3889 -0.1506
23003DOD     C312830   4.354  27.747  15.355  0.2087  0.2034 -0.1064
23004DOD     C112831   2.237  20.622   5.087 -0.2806  0.1975  0.0471
23004DOD     C212832   2.340  21.013   4.797  0.0801  0.0701 -0.2774
23004DOD     C312833   2.306  21.304   4.484 -0.0486  0.0515  0.0876
23005DOD     C112834   2.443  21.977  22.620  0.0216  0.0737 -0.1913
23005DOD     C212835   2.383  22.144  22.266 -0.0697 -0.1054 -0.1127
23005DOD     C312836   2.130  22.007  21.899  0.3041  0.0384  0.0310
23006DOD     C112837  23.536   6.607  24.440  0.0620  0.2170  0.1651
23006DOD     C212838  23.546   6.238  24.100 -0.0402 -0.3408  0.1005
23006DOD     C312839  23.607   6.356  23.621  0.2971  0.1984 -0.1676
23007DOD     C112840  19.203   0.786   3.827  0.0106 -0.0241  0.1240
23007DOD     C212841  19.353   0.368   3.627  0.0553  0.1719 -0.5627
23007DOD     C312842  19.614  -0.016   3.789  0.0480 -0.2497  0.0607
23008DOD     C112843  12.665  10.883  11.205  0.1910 -0.0610 -0.1350
23008DOD     C212844  12.921  10.834  11.577  0.0088  0.0275 -0.1506
23008DOD     C312845  13.162  10.549  11.901 -0.0852 -0.2032  0.2458
23009DOD     C112846  15.391  30.182  27.261 -0.0476  0.1967 -0.0720
23009DOD     C212847  15.552  30.313  26.873  0.2494  0.1014 -0.0716
23009DOD     C312848  15.841  30.240  26.508  0.0924 -0.2387  0.1240
23010DOD     C112849  21.969   1.476   9.760 -0.0795  0.1487 -0.2496
23010DOD     C212850  22.061   1.212   9.394 -0.2832 -0.0689  0.1270
23010DOD     C312851  22.391   1.174   9.071  0.0410 -0.0627  0.3332
23011DOD     C112852   4.589  10.130  21.098  0.0437  0.3875  0.1519
23011DOD     C212853   4.121  10.297  21.112  0.0920 -0.0014  0.3559
23011DOD     C312854   3.731  10.433  21.318  0.2615  0.3043 -0.0605
23012DOD     C112855  26.674  20.678  10.196  0.0526  0.2323 -0.1075
23012DOD     C212856  26.917  21.069   9.945 -0.0650 -0.1120 -0.2362
23012DOD     C312857  27.245  21.407   9.940  0.0429  0.1738  0.1650
23013DOD     C112858   2.720  26.766  25.500 -0.2375  0.1999  0.1373
23013DOD     C212859   2.721  26.888  25.927 -0.2501 -0.0763  0.3617
23013DOD     C312860   2.765  26.958  26.350 -0.0705  0.1909  0.4774
23014DOD     C112861  13.023  12.962  16.869  0.0931 -0.0680  0.1796
23014DOD     C212862  12.787  12.561  16.954 -0.0385  0.1458  0.0935
23014DOD     C312863  12.710  12.170  17.206  0.1948  0.0635  0.2278
23015DOD     C112864  10.940  26.946  16.636  0.1279  0.0105 -0.0202
23015DOD     C212865  10.603  26.623  16.768 -0.0529  0.1457  0.1437
23015DOD     C312866  10.234  26.322  16.779  0.1344 -0.0295  0.0736
23016DOD     C112867  23.667  24.724   3.948 -0.0942 -0.0939  0.2563
23016DOD     C212868  23.695  24.588   3.472 -0.2037  0.0165 -0.1971
23016DOD     C312869  23.989  24.279   3.277 -0.3481  0.0936  0.0730
23017DOD     C112870  22.588  25.260   2.889  0.1148 -0.1190 -0.2827
23017DOD     C212871  22.284  25.470   2.623  0.0437 -0.0334 -0.2526
23017DOD     C312872  21.985  25.400   2.331 -0.3482 -0.0277  0.2523
23018DOD     C112873  16.881  13.923  20.345 -0.2434  0.0378 -0.0572
23018DOD     C212874  16.672  14.352  20.232 -0.2561  0.1851 -0.2598
23018DOD     C312875  16.447  14.683  19.997 -0.0180 -0.3191  0.1615
23019DOD     C112876  22.116  23.275  25.084  0.3875 -0.0956 -0.3668
23019DOD     C212877  21.712  23.370  25.267  0.0293 -0.0279  0.0426
23019DOD     C312878  21.568  23.627  25.646 -0.2706  0.2023 -0.0378
23020DOD     C112879  18.813   2.028   9.575 -0.2044  0.0549 -0.2939
23020DOD     C212880  18.623   1.650   9.331  0.2020  0.6884 -0.3049
23020DOD     C312881  18.768   1.344   8.958 -0.2157 -0.2875 -0.0781
23021DOD     C112882  18.486   3.765   6.103  0.2049  0.1656 -0.1023
23021DOD     C212883  18.858   3.603   5.878  0.0568  0.0258 -0.2758
23021DOD     C312884  19.285   3.448   5.672  0.2830  0.1024  0.0106
23022DOD     C112885   7.635  17.037  17.392  0.1857  0.1306  0.3278
23022DOD     C212886   7.607  16.638  17.693 -0.0954  0.1479 -0.0399
23022DOD     C312887   7.865  16.318  17.804 -0.0087 -0.1767  0.2519
23023DOD     C112888   9.208  12.322  10.832 -0.3811  0.0475 -0.2361
23023DOD     C212889   9.253  11.891  10.740  0.0084 -0.1026 -0.2514
23023DOD     C312890   9.191  11.404  10.752 -0.1556  0.0298  0.0764
23024DOD     C112891  12.322  16.841  12.306  0.1220 -0.1390 -0.1147
23024DOD     C212892  12.314  16.771  12.785 -0.1318 -0.0010  0.0244
23024DOD     C312893  12.239  17.020  13.191  0.1622 -0.2777  0.0422
23025DOD     C112894  19.688  22.245  16.408 -0.2618 -0.2486 -0.0643
23025DOD     C212895  19.405  21.846  16.531 -0.0740  0.0061 -0.2838
23025DOD     C312896  19.561  21.476  16.710 -0.0772 -0.0011  0.2406
23026DOD     C112897  22.602   6.773   6.847 -0.1775  0.1086  0.2481
23026DOD     C212898  22.382   7.234   6.801 -0.0811  0.1448 -0.1666
23026DOD     C312899  22.516   7.708   6.814 -0.0156  0.1129 -0.1480
23027DOD     C112900  22.776  19.099  27.736 -0.0453 -0.2052 -0.1778
23027DOD     C212901  22.709  19.503  27.459  0.1877 -0.2829  0.0854
23027DOD     C312902  22.786  19.970  27.337 -0.0980 -0.1596  0.2097
23028DOD     C112903   7.449  29.588  14.254  0.0917 -0.0366 -0.1032
23028DOD     C212904   7.162  29.498  14.635 -0.1524 -0.1201 -0.0914
23028DOD     C312905   6.706  29.679  14.638  0.1813  0.1685 -0.0094
23029DOD     C112906   3.070   1.445  28.009  0.1617 -0.2719 -0.0913
23029DOD     C212907   3.136   1.760  27.629 -0.0752 -0.2895  0.0464
23029DOD     C312908   3.085   1.874  27.159  0.0029 -0.0339  0.2038
23030DOD     C112909  25.273   8.957  25.454  0.0285  0.1091 -0.0165
23030DOD     C212910  24.971   8.934  25.126 -0.2192  0.1233  0.0732
23030DOD     C312911  24.519   8.949  25.227  0.0780  0.0311 -0.1552
23031DOD     C112912  22.832   0.195  28.183 -0.1191 -0.0480 -0.1608
23031DOD     C212913  22.834   0.624  28.180  0.1282  0.1243 -0.0879
23031DOD     C312914  22.842   1.072  28.384  0.3067  0.0364 -0.2706
23032DOD     C112915   7.490  21.701  27.334  0.0286  0.1049  0.1862
23032DOD     C212916   7.565  21.744  26.874  0.4431  0.0033  0.3204
23032DOD     C312917   7.533  21.624  26.411  0.0840 -0.1389 -0.0564
23033DOD     C112918   8.225   7.952  22.006  0.1638 -0.0821  0.0677
23033DOD     C212919   7.819   8.117  21.997  0.0738 -0.1791 -0.0704
23033DOD     C312920   7.530   8.347  21.751 -0.0539  0.0086 -0.0152
23034DOD     C112921   0.100  21.528  15.758 -0.1129  0.1814  0.1509
23034DOD     C212922   0.300  21.398  15.357  0.0547 -0.0385  0.0809
23034DOD     C312923   0.509  21.197  14.960 -0.2156 -0.0923  0.0150
23035DOD     C112924  26.491  22.467  13.010 -0.0624  0.1166 -0.0520
23035DOD     C212925  26.434  22.935  13.016 -0.2470  0.0547  0.1268
23035DOD     C312926  26.538  23.324  12.759  0.1220  0.0771 -0.0309
23036DOD     C112927  26.113  20.303   0.246 -0.1147 -0.0818  0.1828
23036DOD     C212928  26.302  20.132  30.202  0.1681  0.2465 -0.0145
23036DOD     C312929  26.325  19.832  29.800 -0.4323  0.2416 -0.1408
23037DOD     C112930  28.940   8.898   0.564 -0.0879  0.0565  0.0986
23037DOD     C212931  28.868   8.500   0.751 -0.2742  0.1808  0.1589
23037DOD     C312932  28.694   8.302   1.116 -0.1144 -0.1906 -0.0420
23038DOD     C112933  29.127  11.030   2.696  0.1660 -0.0297 -0.0722
23038DOD     C212934  28.701  11.271   2.688 -0.1270 -0.0620 -0.0291
23038DOD     C312935  28.642  11.688   2.491  0.0024  0.0704 -0.2846
23039DOD     C112936  29.110  25.518   2.669 -0.0789  0.0469  0.1416
23039DOD     C212937  28.980  25.485   3.118  0.3010  0.1295  0.0501
23039DOD     C312938  28.618  25.407   3.493 -0.0903 -0.2882 -0.2344
23040DOD     C112939  11.246  26.389  -0.006  0.1361  0.0074 -0.0029
23040DOD     C212940  11.165  26.819   0.152  0.0037 -0.2392  0.0684
23040DOD     C312941  11.531  27.102   0.251  0.0731  0.1124 -0.0326
23041DOD     C112942  21.283   1.365  14.561 -0.0765  0.0437  0.1028
23041DOD     C212943  21.586   1.634  14.329 -0.1391 -0.1861 -0.2704
23041DOD     C312944  21.971   1.905  14.241  0.4082  0.4019 -0.0398
23042DOD     C112945   7.316   4.381  27.611 -0.0271  0.1094  0.3348
23042DOD     C212946   7.061   4.780  27.576  0.0275 -0.0725  0.2396
23042DOD     C312947   6.960   5.041  27.946 -0.0641 -0.2478  0.3036
23043DOD     C112948   3.298  12.703  29.041  0.1492 -0.2131 -0.1541
23043DOD     C212949   3.084  12.846  28.615  0.0878 -0.1403 -0.2051
23043DOD     C312950   2.717  13.102  28.558 -0.1622  0.2111  0.2589
23044DOD     C112951  24.660  11.522  25.518 -0.1254 -0.3666  0.0303
23044DOD     C212952  24.846  11.843  25.320  0.1619 -0.2068 -0.0650
23044DOD     C312953  25.290  12.025  25.262  0.0210  0.0456  0.2884
23045DOD     C112954  20.480   7.353  24.226 -0.3327  0.2753  0.1097
23045DOD     C212955  20.421   7.710  24.555  0.0271 -0.1325 -0.2358
23045DOD     C312956  20.224   7.776  24.970  0.0465 -0.1965  0.2410
23046DOD     C112957   1.854  20.825  19.175  0.0923  0.2628  0.0934
23046DOD     C212958   2.003  20.388  19.083  0.2572  0.3104  0.0761
23046DOD     C312959   1.867  20.046  18.800  0.0763  0.0989  0.3302
23047DOD     C112960  18.782  29.882  27.119  0.3279 -0.0067 -0.1337
23047DOD     C212961  18.547  30.285  27.300 -0.0266 -0.0040 -0.0056
23047DOD     C312962  18.566   0.329  26.995 -0.0799  0.0732  0.1633
23048DOD     C112963  16.943  11.043  17.796 -0.0176 -0.3459 -0.3821
23048DOD     C212964  17.411  11.132  17.674  0.1562  0.1538 -0.0319
23048DOD     C312965  17.780  10.953  17.626 -0.0860  0.0742 -0.0330
23049DOD     C112966   0.804  26.741  29.772 -0.2641  0.2729  0.2676
23049DOD     C212967   0.692  26.547  29.341  0.1693 -0.2974  0.0804
23049DOD     C312968   0.618  26.690  28.894  0.2550 -0.1409  0.1339
23050DOD     C112969   4.537  16.704  21.445 -0.2738 -0.0410 -0.1123
23050DOD     C212970   4.798  17.063  21.542  0.1599 -0.0691  0.0518
23050DOD     C312971   5.160  17.258  21.829  0.1261 -0.3049 -0.2580
23051DOD     C112972  14.231  22.078   5.608  0.1394 -0.0069 -0.3928
23051DOD     C212973  14.512  22.060   6.002 -0.0237  0.0719 -0.2176
23051DOD     C312974  14.872  22.018   6.271 -0.0166  0.1088  0.0819
23052DOD     C112975  20.230  18.570  27.664 -0.1385  0.0196  0.0861
23052DOD     C212976  20.065  18.989  27.636  0.2268  0.0174  0.0580
23052DOD     C312977  20.125  19.470  27.728 -0.0060  0.3092  0.0033
23053DOD     C112978  13.575  27.455   3.614 -0.1037 -0.2361  0.3172
23053DOD     C212979  13.742  27.826   3.803 -0.0799  0.0898 -0.2384
23053DOD     C312980  13.647  28.222   4.024 -0.3801 -0.0291 -0.1816
23054DOD     C112981  29.071  28.668   1.162 -0.0660 -0.1906 -0.1292
23054DOD     C212982  28.821  29.077   1.207 -0.1780 -0.0514 -0.0875
23054DOD     C312983  28.681  29.426   1.477  0.3292  0.0279  0.1194
23055DOD     C112984  13.402  21.164  25.221 -0.2273 -0.3948 -0.2932
23055DOD     C212985  13.323  20.735  25.182  0.2936 -0.1029 -0.3550
23055DOD     C312986  13.110  20.339  25.140 -0.2951 -0.0667  0.1114
23056DOD     C112987   2.223  29.569  28.384  0.2932  0.2396  0.0722
23056DOD     C212988   2.722  29.623  28.458  0.1083 -0.0205  0.2807
23056DOD     C312989   2.836  29.485  28.892 -0.0241 -0.2452 -0.2867
23057DOD     C112990   3.319  15.774  11.071 -0.0074  0.3558 -0.1935
23057DOD     C212991   3.717  15.669  10.865 -0.1387 -0.1400  0.2430
23057DOD     C312992   3.909  15.338  10.686 -0.5231  0.0969  0.1518
23058DOD     C112993   4.049  28.271   8.610 -0.0677 -0.1229 -0.2078
23058DOD     C212994   3.916  27.960   8.308  0.3170 -0.1016  0.1398
23058DOD     C312995   3.933  27.498   8.247 -0.0276  0.2027  0.1942
23059DOD     C112996  14.569   0.278   8.819 -0.0492 -0.1734 -0.0236
23059DOD     C212997  14.500   0.727   8.936 -0.1154  0.0307  0.1270
23059DOD     C312998  14.139   1.063   8.923 -0.1971  0.0773 -0.3134
23060DOD     C112999   7.474  23.648   8.323 -0.1484 -0.1239 -0.0261
23060DOD     C213000   7.668  23.430   8.634  0.3373  0.0667  0.0513
23060DOD     C313001   8.038  23.395   8.976  0.0205 -0.0109  0.0716
23061DOD     C113002  15.378  29.906  26.454  0.2804 -0.0744 -0.0409
23061DOD     C213003  15.040  29.657  26.719  0.0474  0.1718  0.1597
23061DOD     C313004  14.862  29.685  27.195  0.1055 -0.2548  0.1203
23062DOD     C113005  18.928  22.369  18.559  0.0887 -0.1337  0.1264
23062DOD     C213006  18.848  22.292  18.081  0.0816 -0.2302 -0.1189
23062DOD     C313007  18.874  22.253  17.638 -0.1332  0.3620  0.0157
23063DOD     C113008  18.622  13.126  17.889  0.2782 -0.4328  0.1209
23063DOD     C213009  18.174  12.992  17.732 -0.1397  0.1485 -0.0349
23063DOD     C313010  17.822  13.230  17.596  0.0162 -0.0277 -0.3745
23064DOD     C113011  10.770  12.001  30.227 -0.0601 -0.1634  0.0063
23064DOD     C213012  10.438  11.906   0.240 -0.2358 -0.0215  0.3394
23064DOD     C313013  10.108  12.106   0.443 -0.1995 -0.1667  0.0920
23065DOD     C113014  18.318   4.274  14.017  0.0602  0.2904 -0.4003
23065DOD     C213015  18.730   4.090  14.100  0.2799 -0.1747  0.5083
23065DOD     C313016  19.050   3.927  13.786 -0.0241 -0.1961  0.0327
23066DOD     C113017   7.738  27.798   2.390  0.0094 -0.1163  0.0025
23066DOD     C213018   8.028  28.177   2.365 -0.0731 -0.2214  0.3732
23066DOD     C313019   8.154  28.544   2.135  0.0304 -0.0209  0.2878
23067DOD     C113020  15.980   3.411   6.556 -0.1816 -0.1633  0.3013
23067DOD     C213021  16.384   3.169   6.435 -0.0908 -0.1079 -0.0039
23067DOD     C313022  16.752   3.025   6.186 -0.0808 -0.3448 -0.0175
23068DOD     C113023  11.343   2.839   3.384  0.1690  0.1784 -0.1433
23068DOD     C213024  10.946   2.884   3.134 -0.0962  0.2367 -0.1488
23068DOD     C313025  10.795   3.166   2.821 -0.0669  0.1504 -0.0690
23069DOD     C113026  26.002  11.527  23.370 -0.1018  0.1709  0.2953
23069DOD     C213027  25.897  11.287  22.982  0.0799 -0.1361  0.2903
23069DOD     C313028  25.993  10.870  22.866 -0.2006  0.1803  0.2363
23070DOD     C113029   3.014  22.013  17.279  0.0376  0.0548  0.2732
23070DOD     C213030   3.297  21.754  17.039 -0.0136 -0.0209 -0.0124
23070DOD     C313031   3.614  21.702  16.712 -0.0332 -0.1154  0.3205
23071DOD     C113032  11.011   8.234  16.639 -0.1290 -0.0818  0.0309
23071DOD     C213033  10.543   8.341  16.589  0.0590 -0.1216  0.0948
23071DOD     C313034  10.190   8.481  16.343  0.2620 -0.2929 -0.1239
23072DOD     C113035  28.415  12.541   2.109 -0.2965 -0.0479 -0.0341
23072DOD     C213036  28.099  12.309   2.323 -0.0571  0.3886  0.1186
23072DOD     C313037  27.747  12.266   2.628 -0.1977 -0.1891 -0.0184
23073DOD     C113038  27.352  25.349   0.655 -0.1431  0.0704 -0.1498
23073DOD     C213039  27.686  25.722   0.637 -0.0029 -0.2423  0.0033
23073DOD     C313040  27.821  26.074   0.359  0.1263  0.1135 -0.1735
23074DOD     C113041   3.751  22.719  29.568 -0.3099  0.0074 -0.0052
23074DOD     C213042   3.381  22.665  29.902 -0.0752 -0.1221  0.0722
23074DOD     C313043   2.959  22.615  30.050 -0.2859 -0.2375  0.2684
23075DOD     C113044  12.202  16.936   2.315  0.0209 -0.0747  0.0437
23075DOD     C213045  12.262  17.346   2.092 -0.1296  0.1187 -0.0811
23075DOD     C313046  12.476  17.732   2.074 -0.3227  0.2741 -0.0426
23076DOD     C113047   8.289  11.169  20.511 -0.4607  0.2389 -0.4267
23076DOD     C213048   8.233  10.900  20.125  0.3773 -0.1761 -0.2073
23076DOD     C313049   8.281  10.962  19.691 -0.1105 -0.0111  0.1076
23077DOD     C113050  24.746  25.902   5.616 -0.1331 -0.1738 -0.1128
23077DOD     C213051  24.495  25.530   5.658 -0.1629 -0.1203  0.3492
23077DOD     C313052  24.356  25.155   5.435 -0.3434 -0.0211  0.0024
23078DOD     C113053  11.955  19.983  27.954 -0.1111  0.1123  0.0546
23078DOD     C213054  11.616  19.750  27.663  0.3367  0.0229  0.1313
23078DOD     C313055  11.536  19.448  27.321  0.0005 -0.2564  0.0735
23079DOD     C113056   0.755  28.844  14.631 -0.0999  0.3589  0.0311
23079DOD     C213057   1.088  28.538  14.538 -0.2190 -0.2172 -0.0805
23079DOD     C313058   1.504  28.571  14.716 -0.1127  0.1752 -0.2119
23080DOD     C113059  13.132  19.471  27.608 -0.0315  0.1112  0.0909
23080DOD     C213060  13.611  19.545  27.512 -0.0452 -0.0323  0.2790
23080DOD     C313061  13.948  19.863  27.536  0.0274  0.0532 -0.1226
23081DOD     C113062  18.953  13.315   8.447 -0.1496 -0.3083 -0.0801
23081DOD     C213063  18.969  12.980   8.787 -0.1070  0.0728 -0.0160
23081DOD     C313064  19.053  12.586   9.058 -0.4880 -0.0199  0.2445
23082DOD     C113065  10.793   1.849  13.754  0.2686 -0.1526  0.0325
23082DOD     C213066  10.534   1.485  13.889 -0.1320 -0.1407  0.2896
23082DOD     C313067  10.237   1.131  13.994 -0.0130  0.1534  0.1234
23083DOD     C113068  16.074   7.608   4.891 -0.0156  0.2697  0.2950
23083DOD     C213069  16.330   7.625   5.265  0.1233  0.0863 -0.2735
23083DOD     C313070  16.573   7.391   5.578 -0.1488  0.0601  0.3143
23084DOD     C113071  13.803  12.310  10.449  0.1289 -0.0910  0.0810
23084DOD     C213072  14.093  12.066  10.681  0.2302 -0.1983  0.0532
23084DOD     C313073  14.378  11.749  10.830 -0.1523 -0.0770 -0.0717
23085DOD     C113074  25.442  26.905  23.434 -0.2554 -0.0803  0.2072
23085DOD     C213075  25.338  27.308  23.122 -0.0964 -0.0731 -0.0449
23085DOD     C313076  25.058  27.700  23.090 -0.1164  0.1364 -0.0179
23086DOD     C113077   6.385   9.486  15.416 -0.1333 -0.0890  0.0322
23086DOD     C213078   6.663   9.288  15.772  0.3166 -0.0731 -0.1978
23086DOD     C313079   6.915   8.860  15.853  0.0037  0.0761  0.0618
23087DOD     C113080  10.639  11.180  14.009 -0.1130  0.1461 -0.1200
23087DOD     C213081  10.450  10.913  13.656  0.2316 -0.0889 -0.3096
23087DOD     C313082  10.208  10.541  13.664 -0.1718  0.3675 -0.2656
23088DOD     C113083  19.724  25.297  23.648 -0.1048 -0.0783  0.2065
23088DOD     C213084  19.654  25.694  23.785 -0.1266  0.2191 -0.2108
23088DOD     C313085  19.253  25.873  23.664 -0.3430 -0.0650  0.2128
23089DOD     C113086   4.403   4.540   1.980  0.2674  0.2115 -0.2299
23089DOD     C213087   4.047   4.202   2.021 -0.0955 -0.0673  0.0633
23089DOD     C313088   3.790   3.788   2.173 -0.2059  0.1126  0.0425
23090DOD     C113089  10.238  18.336  17.128 -0.1740 -0.3538  0.0095
23090DOD     C213090  10.457  18.692  16.888 -0.1966  0.2967  0.2313
23090DOD     C313091  10.751  18.779  16.539 -0.2562 -0.1058 -0.3787
23091DOD     C113092   2.620   6.323   7.479  0.1738 -0.1277  0.0593
23091DOD     C213093   2.269   6.627   7.409 -0.1908 -0.1285 -0.0817
23091DOD     C313094   1.830   6.722   7.435 -0.0022  0.0603  0.1207
23092DOD     C113095  12.840   0.456   4.573 -0.2119 -0.3469 -0.0113
23092DOD     C213096  12.742   0.051   4.352 -0.0875  0.0023 -0.2808
23092DOD     C313097  12.666  29.900   4.256  0.0529  0.0074  0.2443
23093DOD     C113098  28.262  23.146  25.447  0.2250  0.2921  0.0095
23093DOD     C213099  28.378  22.866  25.137 -0.2472 -0.3064 -0.1006
23093DOD     C313100  28.580  22.520  24.929  0.0443  0.0353  0.0782
23094DOD     C113101   2.946  18.677   4.980  0.3251 -0.0421 -0.0788
23094DOD     C213102   3.008  18.244   4.789 -0.1727 -0.1789 -0.1084
23094DOD     C313103   3.289  18.050   4.482  0.1128 -0.1058 -0.0989
23095DOD     C113104  27.921   7.615  24.771 -0.4502 -0.0584  0.0296
23095DOD     C213105  28.329   7.683  24.567 -0.0589 -0.2891 -0.2631
23095DOD     C313106  28.663   7.903  24.300  0.1051  0.3961 -0.1763
23096DOD     C113107  16.913  26.346  25.899  0.2105  0.0599  0.0369
23096DOD     C213108  16.874  25.965  25.621  0.0243 -0.1811  0.0158
23096DOD     C313109  16.768  25.859  25.169  0.4298 -0.1182 -0.2697
23097DOD     C113110   6.180  17.892   2.727  0.0529  0.2194  0.1581
23097DOD     C213111   5.868  17.946   3.060  0.0307 -0.2494  0.0908
23097DOD     C313112   5.408  17.859   3.045  0.0378  0.2778 -0.0955
23098DOD     C113113   9.619  23.400  12.460  0.0683  0.0815  0.0774
23098DOD     C213114   9.740  23.403  12.922  0.3782  0.2468  0.2491
23098DOD     C313115   9.901  23.116  13.148  0.1763 -0.0370 -0.2648
23099DOD     C113116   4.863  15.698   1.359 -0.3407 -0.1726 -0.2013
23099DOD     C213117   4.869  15.749   0.913  0.1293 -0.2485 -0.0452
23099DOD     C313118   4.712  15.886   0.500 -0.1510  0.0483  0.0790
23100DOD     C113119  25.809  17.108  23.331 -0.2932  0.2939  0.0108
23100DOD     C213120  25.941  17.360  22.945 -0.0398  0.0537 -0.5609
23100DOD     C313121  26.228  17.569  22.663  0.0023  0.0271  0.3531
23101DOD     C113122  20.857   1.453  21.475 -0.1597  0.2083  0.3030
23101DOD     C213123  21.107   1.699  21.183 -0.0382  0.1094  0.3687
23101DOD     C313124  21.092   2.047  20.889  0.1453  0.1494  0.3093
23102DOD     C113125   0.407  14.611   5.068  0.0352  0.1004  0.0058
23102DOD     C213126   0.565  14.929   5.390  0.0387  0.0547  0.0936
23102DOD     C313127   0.401  15.340   5.586 -0.1764 -0.1188  0.0240
23103DOD     C113128  17.800  25.477   9.199  0.0540  0.0294  0.3404
23103DOD     C213129  18.046  25.635   8.826 -0.0735 -0.1808  0.0996
23103DOD     C313130  18.013  25.860   8.389  0.2691  0.1429 -0.0951
23104DOD     C113131  18.851   6.867  25.814 -0.2931 -0.1149 -0.1429
23104DOD     C213132  19.173   6.612  25.659  0.2991 -0.0343  0.0560
23104DOD     C313133  19.503   6.284  25.645 -0.0739  0.1509 -0.0096
23105DOD     C113134  12.561   1.688   8.950 -0.0197  0.2307  0.1151
23105DOD     C213135  12.840   1.946   8.670 -0.2224 -0.0040 -0.2124
23105DOD     C313136  13.137   2.321   8.556 -0.0538 -0.3397 -0.1772
23106DOD     C113137  29.655   3.460  17.667  0.0851 -0.3675 -0.1729
23106DOD     C213138  29.269   3.751  17.692  0.0877  0.2861 -0.0941
23106DOD     C313139  29.155   4.134  17.974  0.2510  0.3348 -0.0374
23107DOD     C113140  29.216   1.470   9.600  0.1852  0.0705  0.1371
23107DOD     C213141  29.467   1.452  10.011 -0.1752 -0.3497 -0.0192
23107DOD     C313142  29.914   1.392   9.978 -0.0710  0.2609 -0.1169
23108DOD     C113143  24.784  16.553  23.033 -0.1882 -0.1158  0.0433
23108DOD     C213144  24.784  16.670  23.477  0.1234  0.2664 -0.1956
23108DOD     C313145  24.735  16.776  23.910 -0.1394  0.0169 -0.0489
23109DOD     C113146  15.485  20.269   7.832 -0.0870  0.1563  0.4147
23109DOD     C213147  15.046  20.221   7.831  0.0316 -0.0882  0.0493
23109DOD     C313148  14.641  20.051   8.002 -0.4498 -0.0862 -0.1047
23110DOD     C113149  20.017  22.521   5.169  0.0788 -0.3496 -0.0229
23110DOD     C213150  19.586  22.685   5.275 -0.1179 -0.1497  0.2223
23110DOD     C313151  19.158  22.840   5.107  0.2835  0.3265  0.1200
23111DOD     C113152   7.327   7.745   8.109  0.2133 -0.2660  0.2561
23111DOD     C213153   7.674   7.982   8.127 -0.2065  0.0433 -0.0914
23111DOD     C313154   7.837   8.304   8.430 -0.3688 -0.0284  0.3986
23112DOD     C113155  27.434   6.484  11.019  0.0035  0.2940  0.0879
23112DOD     C213156  27.894   6.357  11.087  0.2411  0.0538  0.1733
23112DOD     C313157  28.337   6.410  11.304 -0.1141 -0.1973  0.0208
23113DOD     C113158  14.109  21.485   6.045  0.1105 -0.2580 -0.3113
23113DOD     C213159  13.741  21.251   5.883  0.0743 -0.0830 -0.1971
23113DOD     C313160  13.357  21.000   6.064  0.0751  0.1030  0.1035
23114DOD     C113161  10.656   7.830   4.718  0.0605  0.4279 -0.0716
23114DOD     C213162  10.363   7.663   5.028  0.1378 -0.0894  0.0857
23114DOD     C313163  10.272   7.919   5.429 -0.0299 -0.0156  0.0715
23115DOD     C113164   8.969   3.926   6.671 -0.0041 -0.0117 -0.0104
23115DOD     C213165   8.916   3.997   6.224 -0.3529 -0.1216  0.1869
23115DOD     C313166   9.100   4.376   6.023  0.1121  0.0372 -0.3876
23116DOD     C113167   8.472  17.957  10.026 -0.2450 -0.0604 -0.1301
23116DOD     C213168   8.400  18.171   9.624  0.2630  0.0587 -0.3029
23116DOD     C313169   8.439  18.068   9.140  0.1774 -0.0214 -0.2201
23117DOD     C113170  12.650  28.931  19.788  0.3498  0.0247 -0.0418
23117DOD     C213171  12.836  28.943  19.425  0.1393 -0.0960  0.0886
23117DOD     C313172  13.211  28.871  19.185  0.1790  0.3304  0.3580
23118DOD     C113173  13.857  16.370  29.196  0.0038 -0.1928 -0.0498
23118DOD     C213174  13.577  16.154  28.874 -0.0250  0.1341  0.2334
23118DOD     C313175  13.334  15.728  28.789 -0.0659 -0.2646  0.1493
23119DOD     C113176  23.800  21.843  28.410  0.0334 -0.1695 -0.1365
23119DOD     C213177  23.587  21.615  28.719  0.0625 -0.1162  0.1574
23119DOD     C313178  23.232  21.347  28.849  0.1083 -0.1321  0.0912
23120DOD     C113179   5.412  23.613  22.904 -0.3840  0.6714  0.0835
23120DOD     C213180   5.109  23.754  23.227  0.3083 -0.2671 -0.0012
23120DOD     C313181   4.910  24.099  23.524  0.0297  0.1222  0.2230
23121DOD     C113182  26.918  24.988   2.249 -0.0407  0.0086  0.2857
23121DOD     C213183  26.563  25.139   2.022  0.1752 -0.4639  0.0430
23121DOD     C313184  26.198  25.373   2.147 -0.0923  0.2181  0.0644
23122DOD     C113185   2.726  26.621  28.594  0.0125  0.0159  0.0121
23122DOD     C213186   2.643  26.764  28.132 -0.3015  0.4142  0.2704
23122DOD     C313187   2.611  26.956  27.654  0.3183 -0.1940 -0.1047
23123DOD     C113188  20.263  22.848   1.876  0.0904 -0.1827  0.3376
23123DOD     C213189  20.566  22.547   1.839  0.0071 -0.4475  0.0313
23123DOD     C313190  21.025  22.490   1.727 -0.0328 -0.0365 -0.2584
23124DOD     C113191  26.657   7.982  20.845  0.0281 -0.0978 -0.1775
23124DOD     C213192  26.852   8.049  20.384  0.3315  0.0370  0.0861
23124DOD     C313193  27.002   8.381  20.066  0.0934  0.0399 -0.1164
23125DOD     C113194  12.438  26.691  13.395 -0.0536 -0.1358  0.1461
23125DOD     C213195  12.460  26.526  12.941 -0.0393  0.1979  0.1177
23125DOD     C313196  12.313  26.237  12.583 -0.1719  0.2509 -0.1986
23126DOD     C113197  15.205  16.471  10.086  0.1454 -0.0205  0.1202
23126DOD     C213198  15.310  16.008  10.194 -0.0238  0.1830 -0.0307
23126DOD     C313199  15.625  15.627  10.222  0.0156 -0.1762 -0.0230
23127DOD     C113200  20.942  10.281  18.410 -0.1368 -0.0825  0.1083
23127DOD     C213201  20.921   9.901  18.699 -0.1164  0.0967  0.0425
23127DOD     C313202  21.221   9.701  18.983  0.0373 -0.1007  0.3210
23128DOD     C113203   0.006  23.092  14.211 -0.0581 -0.2561 -0.0341
23128DOD     C213204   0.224  22.702  14.156 -0.1908  0.1582 -0.4145
23128DOD     C313205   0.419  22.310  14.101  0.1258 -0.0430  0.0626
23129DOD     C113206  28.909  26.415  29.935  0.0248  0.2655 -0.2579
23129DOD     C213207  28.720  25.950  29.959 -0.1792  0.2464  0.0042
23129DOD     C313208  28.397  25.599  30.054  0.1664  0.1615 -0.0919
23130DOD     C113209  28.842   4.674   0.754 -0.2032 -0.2373 -0.1508
23130DOD     C213210  29.002   5.091   0.941  0.0707 -0.3333 -0.0504
23130DOD     C313211  29.229   5.283   1.329 -0.1975 -0.1988  0.0209
23131DOD     C113212  22.234  24.843   7.528  0.1791 -0.3157 -0.3554
23131DOD     C213213  22.440  24.689   7.907  0.1496 -0.1209 -0.2653
23131DOD     C313214  22.522  24.390   8.303 -0.1958  0.0979 -0.1820
23132DOD     C113215   8.805   5.242   4.708 -0.0541 -0.1851 -0.0152
23132DOD     C213216   8.847   5.091   5.206  0.0963  0.3349  0.3132
23132DOD     C313217   8.885   5.276   5.657  0.0857 -0.1298 -0.0613
23133DOD     C113218   8.076  22.258  16.150  0.1474  0.0346 -0.0226
23133DOD     C213219   8.291  21.933  16.427  0.0697  0.1485 -0.4565
23133DOD     C313220   8.508  21.514  16.292  0.0361 -0.0383 -0.0279
23134DOD     C113221  20.613  28.194  25.311 -0.0443  0.0386 -0.1700
23134DOD     C213222  20.772  28.210  24.905  0.0286 -0.1414  0.0113
23134DOD     C313223  21.210  28.296  24.776  0.1346  0.1098 -0.0198
23135DOD     C113224  26.383  22.929   7.706  0.0524  0.0149 -0.0614
23135DOD     C213225  26.731  22.786   7.453 -0.1624  0.1339  0.1677
23135DOD     C313226  26.782  22.472   7.137 -0.0093 -0.0312  0.1009
23136DOD     C113227  13.159  11.291  24.195 -0.1976 -0.0225 -0.1297
23136DOD     C213228  12.773  11.560  24.112 -0.0070  0.1100 -0.3447
23136DOD     C313229  12.398  11.779  23.978  0.3369 -0.2132  0.1149
23137DOD     C113230  10.964   3.913   5.382 -0.2164 -0.0395 -0.2666
23137DOD     C213231  11.214   4.312   5.399  0.1235 -0.3058 -0.4248
23137DOD     C313232  11.326   4.753   5.467 -0.2007  0.0426  0.2625
23138DOD     C113233  17.716  22.767  10.127  0.1446  0.1921 -0.0317
23138DOD     C213234  17.450  22.386  10.358 -0.0965 -0.0652 -0.0970
23138DOD     C313235  17.362  22.181  10.726  0.0635 -0.2029  0.1680
23139DOD     C113236  20.027  13.921   3.835  0.2093 -0.1811 -0.0853
23139DOD     C213237  20.418  14.050   3.584  0.1281 -0.3083  0.1237
23139DOD     C313238  20.823  13.875   3.433  0.1684 -0.1309  0.0317
23140DOD     C113239  12.369  28.882  28.376 -0.1624 -0.1392 -0.2747
23140DOD     C213240  12.719  29.045  28.684  0.0464  0.0027  0.1889
23140DOD     C313241  12.746  29.219  29.096  0.2011  0.1105  0.3934
23141DOD     C113242  29.346  11.141  13.153 -0.0415  0.1437  0.1201
23141DOD     C213243  29.526  11.547  13.096 -0.1925  0.1031 -0.0026
23141DOD     C313244  29.833  11.883  12.996  0.1376 -0.0552  0.0415
23142DOD     C113245   6.092  17.758  11.487 -0.2763  0.3024  0.2277
23142DOD     C213246   6.437  17.800  11.811  0.1649 -0.1375 -0.0081
23142DOD     C313247   6.658  18.095  12.047 -0.3354  0.0936 -0.2891
23143DOD     C113248  18.557  13.842  14.290  0.0867  0.0451  0.0274
23143DOD     C213249  18.804  13.439  14.321 -0.1407  0.0134  0.2655
23143DOD     C313250  19.075  13.026  14.384 -0.1626 -0.2529  0.0306
23144DOD     C113251   2.682  22.106  10.328  0.1755  0.0504 -0.1821
23144DOD     C213252   2.529  21.971   9.924 -0.2657 -0.1014 -0.4560
23144DOD     C313253   2.743  21.636   9.637  0.0686 -0.2434 -0.2250
23145DOD     C113254  11.675   8.973   9.530 -0.3855  0.1288  0.0534
23145DOD     C213255  11.712   8.522   9.724  0.0450  0.3687  0.4505
23145DOD     C313256  11.996   8.271  10.017 -0.0263  0.0475 -0.0249
23146DOD     C113257  10.911  18.169  22.266  0.1548  0.2878  0.0054
23146DOD     C213258  10.966  18.403  21.860  0.0087 -0.2124  0.1036
23146DOD     C313259  10.880  18.296  21.443 -0.1051  0.1429 -0.1314
23147DOD     C113260  30.308   3.040  23.313  0.0882  0.1425 -0.1401
23147DOD     C213261  30.264   3.349  23.694  0.2231 -0.2996 -0.1042
23147DOD     C313262  30.015   3.570  24.088 -0.1625 -0.3285 -0.0888
23148DOD     C113263  16.322  10.011  17.568 -0.0767 -0.2299  0.0008
23148DOD     C213264  16.156  10.306  17.900 -0.1014  0.1861 -0.0490
23148DOD     C313265  15.877  10.659  18.006  0.1755 -0.0487  0.0682
23149DOD     C113266  19.614   1.483  27.275 -0.0052 -0.0302  0.0247
23149DOD     C213267  19.985   1.614  27.503  0.2072  0.1654  0.1808
23149DOD     C313268  20.249   1.824  27.918 -0.0011 -0.3029  0.3458
23150DOD     C113269  16.117  18.739  26.977 -0.3294  0.2929  0.2225
23150DOD     C213270  16.324  18.436  27.150  0.4407  0.2743 -0.1136
23150DOD     C313271  16.724  18.391  26.944  0.0214  0.1244  0.2306
23151DOD     C113272  22.397  29.619  24.639  0.0043 -0.1808  0.1806
23151DOD     C213273  22.741  29.557  24.917  0.2646 -0.0890  0.0037
23151DOD     C313274  22.637  29.303  25.317 -0.0939 -0.3115 -0.0646
23152DOD     C113275  10.302  15.273  20.893  0.0274 -0.0525  0.1734
23152DOD     C213276   9.988  15.521  21.236 -0.0821  0.0004  0.0073
23152DOD     C313277   9.684  15.731  21.565  0.0205 -0.1553 -0.2525
23153DOD     C113278   6.601   9.007  28.071 -0.2814 -0.1702  0.0802
23153DOD     C213279   6.691   8.575  27.909 -0.0008  0.0924 -0.0745
23153DOD     C313280   6.615   8.129  27.953 -0.3166  0.1396 -0.3866
23154DOD     C113281  18.734  27.040  10.521 -0.2415 -0.0959 -0.1691
23154DOD     C213282  18.947  26.969  10.950 -0.1725 -0.1897  0.2470
23154DOD     C313283  18.992  26.476  11.077  0.0758 -0.1054 -0.0008
23155DOD     C113284  30.256  15.507  26.923 -0.2917 -0.1237 -0.0540
23155DOD     C213285  30.222  15.629  26.438 -0.0120 -0.1182  0.2580
23155DOD     C313286   0.121  15.592  25.996 -0.0317 -0.1597 -0.1887
23156DOD     C113287   6.452  17.014   4.153  0.0710 -0.1373  0.0503
23156DOD     C213288   6.471  16.575   4.121  0.1927 -0.0392  0.1762
23156DOD     C313289   6.195  16.219   4.167  0.1263 -0.0368 -0.2894
23157DOD     C113290  27.678  10.833  28.106  0.3361 -0.2368  0.2447
23157DOD     C213291  27.228  10.848  27.982 -0.0600  0.3323  0.0395
23157DOD     C313292  26.831  10.884  27.697 -0.1141 -0.2478 -0.0843
23158DOD     C113293   5.077   7.050  22.554  0.3505 -0.3502  0.1427
23158DOD     C213294   4.913   6.799  22.187  0.3052  0.1297  0.0435
23158DOD     C313295   5.064   6.759  21.742 -0.1821 -0.2086  0.3845
23159DOD     C113296   5.728  11.437  29.156 -0.2522 -0.0588  0.1312
23159DOD     C213297   5.718  11.004  28.915  0.2560  0.2777 -0.0462
23159DOD     C313298   5.363  10.895  28.581  0.1018 -0.2621 -0.0319
23160DOD     C113299  20.138   3.477   4.456 -0.1006 -0.0536 -0.1926
23160DOD     C213300  19.909   3.627   4.814 -0.1064  0.0214 -0.1258
23160DOD     C313301  19.596   4.021   4.852 -0.1901  0.3499  0.0373
23161DOD     C113302   2.493   6.278  22.930  0.0581  0.3099  0.0118
23161DOD     C213303   2.237   6.403  22.560  0.4607 -0.2124 -0.0636
23161DOD     C313304   2.288   6.254  22.119  0.0531 -0.2530 -0.0061
23162DOD     C113305  24.595   3.931  26.539  0.3510 -0.1123  0.1057
23162DOD     C213306  24.897   3.582  26.374 -0.1119  0.1710 -0.0374
23162DOD     C313307  25.201   3.233  26.435 -0.0180  0.1777  0.1554
23163DOD     C113308  23.124  13.164   3.321 -0.1080  0.0091  0.1388
23163DOD     C213309  23.236  12.797   3.087 -0.1963  0.1744  0.1728
23163DOD     C313310  23.052  12.393   2.934 -0.2063 -0.2390  0.1809
23164DOD     C113311  19.525   3.006  14.957  0.0594  0.0772 -0.0264
23164DOD     C213312  19.559   2.581  14.951  0.0401  0.2287 -0.0097
23164DOD     C313313  19.435   2.140  14.939 -0.2933 -0.0232  0.0261
23165DOD     C113314  11.141  17.075  22.483  0.0302 -0.2399  0.1403
23165DOD     C213315  11.446  17.381  22.327  0.2453 -0.1197  0.0071
23165DOD     C313316  11.494  17.873  22.189 -0.0461  0.3117 -0.0935
23166DOD     C113317  15.985   1.333  15.965 -0.0750  0.0073  0.4864
23166DOD     C213318  16.082   1.012  16.294 -0.1681 -0.1248 -0.0766
23166DOD     C313319  15.817   0.618  16.348  0.3858  0.3743  0.0702
23167DOD     C113320  25.505   5.452  21.001 -0.0339 -0.1700 -0.0580
23167DOD     C213321  25.620   5.000  20.911  0.0143  0.1563 -0.2328
23167DOD     C313322  25.916   4.760  20.594 -0.1894  0.2721  0.1049
23168DOD     C113323  17.745  23.174  13.535  0.0483  0.0673  0.3370
23168DOD     C213324  18.030  23.592  13.494  0.3171  0.0748  0.1839
23168DOD     C313325  18.473  23.520  13.301  0.1142 -0.1965  0.1353
23169DOD     C113326  23.144  28.771  19.053 -0.0147  0.0740 -0.3261
23169DOD     C213327  23.218  28.708  18.614 -0.1385 -0.0497  0.1311
23169DOD     C313328  23.555  28.460  18.384 -0.2352  0.1717 -0.0997
23170DOD     C113329  11.143  25.478   8.992  0.1148  0.2052 -0.1433
23170DOD     C213330  11.021  25.936   8.971  0.0646  0.1090  0.1036
23170DOD     C313331  10.643  26.119   9.158  0.0128  0.1118 -0.2891
23171DOD     C113332   0.413  18.777  21.856  0.2911  0.1722  0.2049
23171DOD     C213333  30.278  18.841  21.739 -0.3574  0.0217  0.2454
23171DOD     C313334  29.866  18.644  21.579 -0.1445  0.0473  0.0757
23172DOD     C113335  10.367  25.488  15.306  0.1437  0.1422 -0.1414
23172DOD     C213336  10.699  25.133  15.132  0.1428  0.0656 -0.1136
23172DOD     C313337  10.836  24.705  15.216 -0.1918 -0.0435  0.3405
23173DOD     C113338   3.050  20.433  18.196 -0.2188  0.3468 -0.1209
23173DOD     C213339   2.711  20.493  17.961 -0.1583  0.1512  0.1278
23173DOD     C313340   2.259  20.481  17.923 -0.2464 -0.2935 -0.0310
23174DOD     C113341   8.568  10.068  15.671  0.0495 -0.2556 -0.0777
23174DOD     C213342   8.460   9.805  16.072  0.2170  0.0078  0.1308
23174DOD     C313343   8.224   9.922  16.463 -0.0181 -0.1250  0.0589
23175DOD     C113344  29.181  28.415  16.017 -0.0223 -0.0531 -0.0338
23175DOD     C213345  29.158  28.365  16.478 -0.2429  0.1262  0.2687
23175DOD     C313346  29.242  28.185  16.913 -0.1001 -0.0124 -0.0715
23176DOD     C113347  30.011  10.519  24.212  0.1723  0.1105 -0.0791
23176DOD     C213348  29.806  10.214  23.938  0.1395  0.1263 -0.0579
23176DOD     C313349  29.361  10.043  23.874 -0.5331  0.0219 -0.2877
23177DOD     C113350  13.831   0.841  30.261  0.1193  0.1426 -0.0342
23177DOD     C213351  13.986   0.728   0.382  0.0656 -0.0964  0.0630
23177DOD     C313352  14.071   0.514   0.830 -0.0034  0.0552  0.3033
23178DOD     C113353  11.509  29.159   7.070  0.1216  0.0637 -0.2022
23178DOD     C213354  11.902  29.416   7.164  0.1025  0.1958 -0.1108
23178DOD     C313355  12.125  29.793   6.990  0.0093 -0.1195 -0.0270
23179DOD     C113356  29.495  22.208  29.250  0.3273 -0.1083 -0.1452
23179DOD     C213357  29.088  22.451  29.242 -0.0808  0.0212 -0.0059
23179DOD     C313358  28.863  22.832  29.030 -0.4097  0.0677  0.0013
23180DOD     C113359  12.207  22.861  20.727 -0.2486  0.4115  0.1183
23180DOD     C213360  12.254  23.259  20.919 -0.1429  0.0551 -0.3231
23180DOD     C313361  12.515  23.621  20.939 -0.0474 -0.1757 -0.3563
23181DOD     C113362  21.605  11.310   8.888 -0.2708  0.0774  0.3868
23181DOD     C213363  21.707  11.050   9.262  0.0993 -0.1241 -0.1023
23181DOD     C313364  22.066  10.768   9.212 -0.1561  0.1809 -0.2370
23182DOD     C113365  13.423   5.502   9.467  0.2097  0.0591  0.0701
23182DOD     C213366  13.605   5.557   9.881 -0.3086  0.0959  0.0993
23182DOD     C313367  13.648   5.852  10.235  0.0780  0.0455  0.0450
23183DOD     C113368  27.093  14.871  23.975 -0.0443  0.0324 -0.0951
23183DOD     C213369  26.995  14.465  24.062  0.0369 -0.0904  0.0695
23183DOD     C313370  26.771  14.190  24.311 -0.1349 -0.1789 -0.3618
23184DOD     C113371  25.276  23.613  14.418 -0.0234 -0.1572 -0.0673
23184DOD     C213372  25.191  24.068  14.384  0.0030  0.1478 -0.0814
23184DOD     C313373  24.992  24.398  14.126  0.0956  0.1295  0.1881
23185DOD     C113374  18.930   1.414  28.379 -0.1921 -0.2904  0.0054
23185DOD     C213375  18.902   1.532  28.846 -0.0474 -0.0881  0.2743
23185DOD     C313376  18.784   1.524  29.299  0.0563  0.0097  0.0079
23186DOD     C113377  16.495  26.360  28.475 -0.1333 -0.1601  0.1072
23186DOD     C213378  16.098  26.371  28.326  0.0745 -0.1263 -0.0223
23186DOD     C313379  15.983  26.639  27.953 -0.0420  0.0803  0.2796
23187DOD     C113380  24.596  18.218   6.874 -0.0255  0.0076 -0.3913
23187DOD     C213381  24.869  17.806   6.768  0.1458 -0.1729 -0.3379
23187DOD     C313382  24.846  17.494   7.114 -0.1337  0.0194 -0.1283
23188DOD     C113383  13.936  28.128   7.052 -0.2284 -0.2666 -0.2370
23188DOD     C213384  13.735  27.698   7.093  0.2102  0.1881 -0.1255
23188DOD     C313385  13.708  27.293   6.844  0.2491 -0.1141  0.0734
23189DOD     C113386   9.153  24.068  27.003  0.1296 -0.2360  0.2449
23189DOD     C213387   9.332  23.959  27.379 -0.0192  0.2393 -0.2176
23189DOD     C313388   9.288  23.824  27.843  0.0162 -0.5354 -0.1929
23190DOD     C113389   9.200   9.049  15.202 -0.1893 -0.2100 -0.2584
23190DOD     C213390   8.864   9.355  14.987  0.1114  0.4209  0.3798
23190DOD     C313391   8.755   9.363  14.554 -0.1541  0.1650  0.0590
23191DOD     C113392  21.690  25.871   4.486  0.2733 -0.2074 -0.2434
23191DOD     C213393  21.666  25.737   4.043 -0.1372  0.2123  0.0595
23191DOD     C313394  21.996  25.534   3.757 -0.6207  0.0333 -0.0064
23192DOD     C113395   3.611   4.834  12.252 -0.1546 -0.1690 -0.2108
23192DOD     C213396   3.793   5.202  12.061 -0.1071 -0.1682  0.1349
23192DOD     C313397   3.573   5.568  11.815  0.4107 -0.2059  0.0315
23193DOD     C113398  15.161   0.011  13.743  0.2165 -0.2077 -0.0203
23193DOD     C213399  15.246   0.340  13.372 -0.0861 -0.1575 -0.1160
23193DOD     C313400  15.096   0.530  12.948  0.0190 -0.1380  0.1703
23194DOD     C113401   6.587  14.088   1.006 -0.0161  0.0570 -0.1530
23194DOD     C213402   6.826  14.413   0.648  0.1652 -0.1095 -0.0555
23194DOD     C313403   6.864  14.852   0.543  0.3125  0.2229 -0.0607
23195DOD     C113404  21.495  26.844  11.016 -0.1107  0.1700 -0.2603
23195DOD     C213405  21.750  27.193  11.228 -0.3698  0.0916 -0.2257
23195DOD     C313406  21.862  27.584  11.036 -0.0919  0.2218  0.1584
23196DOD     C113407  25.767  22.446  11.729 -0.1348 -0.2543  0.0702
23196DOD     C213408  25.883  22.296  12.121 -0.1032 -0.0918 -0.2684
23196DOD     C313409  25.696  21.950  12.209 -0.3910 -0.0005  0.5204
23197DOD     C113410  29.708  11.486  12.594  0.1206 -0.0630  0.1728
23197DOD     C213411  29.748  11.039  12.775  0.0828  0.1584  0.2326
23197DOD     C313412  29.711  10.560  12.836 -0.0509 -0.2680 -0.1342
23198DOD     C113413  14.257  26.987  27.866  0.0457  0.0027 -0.0147
23198DOD     C213414  14.212  27.398  27.732  0.1143 -0.3352 -0.0722
23198DOD     C313415  14.314  27.857  27.671 -0.1768 -0.0444 -0.2862
23199DOD     C113416  18.113  23.614  10.835  0.0442 -0.1099  0.2168
23199DOD     C213417  18.061  23.794  10.398  0.0111  0.0798 -0.2301
23199DOD     C313418  17.816  23.766  10.015  0.0894  0.0284 -0.1227
23200DOD     C113419  20.720  30.209  27.814 -0.2174  0.1769  0.1170
23200DOD     C213420  20.896  29.995  28.181  0.0124 -0.0235 -0.0557
23200DOD     C313421  21.053  29.664  28.449 -0.1462 -0.2021  0.0172
23201DOD     C113422  15.348  17.294  28.921  0.2715  0.4627  0.1019
23201DOD     C213423  15.322  17.476  29.332  0.1965  0.0739  0.1523
23201DOD     C313424  15.686  17.420  29.661  0.0215 -0.3265 -0.0616
23202DOD     C113425  26.735  12.496  25.079  0.3051 -0.0520 -0.0570
23202DOD     C213426  27.171  12.751  25.157  0.0880  0.2314 -0.1943
23202DOD     C313427  27.529  13.023  25.214 -0.2061  0.1246 -0.0981
23203DOD     C113428  17.223  27.924   1.370  0.1235 -0.1029 -0.1758
23203DOD     C213429  17.533  28.183   1.108  0.2672 -0.0101 -0.0309
23203DOD     C313430  17.974  28.305   0.964  0.1784  0.0826 -0.1873
23204DOD     C113431  28.103   1.744  25.929  0.0910 -0.0138  0.0736
23204DOD     C213432  28.263   1.436  26.215  0.3203  0.0712 -0.0790
23204DOD     C313433  28.404   1.003  26.166  0.1528 -0.1284  0.0393
23205DOD     C113434  21.835  12.509  18.496 -0.0818  0.0273 -0.0885
23205DOD     C213435  21.832  12.197  18.873 -0.1243  0.2143 -0.2875
23205DOD     C313436  22.022  12.052  19.237 -0.1379 -0.1527 -0.2535
23206DOD     C113437   9.886  10.024  28.514  0.3643 -0.0751  0.2364
23206DOD     C213438  10.087  10.099  28.909  0.3189  0.1506 -0.0541
23206DOD     C313439  10.137  10.311  29.299  0.0823 -0.0508  0.0383
23207DOD     C113440  12.284  20.831  26.202 -0.0260 -0.0746 -0.1063
23207DOD     C213441  12.456  20.971  25.804 -0.0870 -0.1424  0.0973
23207DOD     C313442  12.903  20.992  25.496 -0.0919  0.0941 -0.1057
23208DOD     C113443  10.448   1.150  14.762 -0.0572 -0.1320  0.1009
23208DOD     C213444  10.381   1.576  14.907 -0.0627  0.1979  0.2596
23208DOD     C313445  10.455   1.845  15.306 -0.3248 -0.1169  0.2020
23209DOD     C113446   0.652   2.422   2.591 -0.5405  0.0132  0.1380
23209DOD     C213447   0.850   1.927   2.722 -0.0030 -0.1954  0.2445
23209DOD     C313448   0.605   1.566   2.858  0.3335  0.0842  0.2375
23210DOD     C113449  16.906  26.261   7.385  0.0110  0.0893 -0.0463
23210DOD     C213450  16.883  26.300   6.911 -0.0968 -0.1487  0.0143
23210DOD     C313451  16.948  25.899   6.634  0.1184 -0.3324 -0.4176
23211DOD     C113452  11.555   3.205  22.353 -0.1341 -0.2949  0.2292
23211DOD     C213453  11.903   3.036  22.660 -0.2508  0.1090 -0.0292
23211DOD     C313454  12.386   3.181  22.742  0.2683  0.0257  0.2300
23212DOD     C113455   6.942   9.622  17.845  0.1000 -0.0431 -0.2405
23212DOD     C213456   7.402   9.625  17.925 -0.3050  0.0463  0.3215
23212DOD     C313457   7.875   9.726  18.029 -0.1527 -0.0475 -0.0838
23213DOD     C113458   3.805  20.824  11.845  0.2727  0.0733 -0.0341
23213DOD     C213459   4.075  20.484  11.685 -0.0131  0.0808  0.1403
23213DOD     C313460   4.103  20.293  11.278 -0.0393  0.2203  0.0214
23214DOD     C113461  27.896  22.585  12.588 -0.1329  0.1475  0.0396
23214DOD     C213462  28.253  22.354  12.774 -0.0461  0.2616  0.2012
23214DOD     C313463  28.254  22.061  13.097  0.4273  0.0453 -0.0959
23215DOD     C113464  18.691   4.137  27.055  0.2738 -0.2258  0.0393
23215DOD     C213465  18.434   3.796  27.252  0.0171 -0.1037  0.2943
23215DOD     C313466  18.350   3.348  27.342 -0.2753  0.1787  0.0222
23216DOD     C113467  12.015  24.943  27.441 -0.0009  0.0015 -0.5063
23216DOD     C213468  12.457  24.939  27.531  0.3343  0.3051 -0.0423
23216DOD     C313469  12.799  24.681  27.406 -0.1240  0.3676 -0.0683
23217DOD     C113470  18.539  28.575   5.256  0.0769  0.2491 -0.2652
23217DOD     C213471  18.891  28.308   5.183  0.0535 -0.1390 -0.0091
23217DOD     C313472  19.323  28.337   4.963  0.0934  0.0042 -0.0586
23218DOD     C113473  13.203  15.693  19.330  0.1067 -0.2186 -0.2505
23218DOD     C213474  12.823  15.964  19.291  0.0205 -0.0609 -0.0744
23218DOD     C313475  12.373  15.964  19.517 -0.1153 -0.1757  0.1861
23219DOD     C113476  16.859  29.488  23.493 -0.0478  0.2969  0.0612
23219DOD     C213477  16.654  29.821  23.716 -0.3629  0.2095  0.0475
23219DOD     C313478  16.638  30.334  23.737  0.0972  0.0744 -0.1501
23220DOD     C113479   4.362   0.990   8.290 -0.4364  0.1195  0.0272
23220DOD     C213480   4.836   1.056   8.238 -0.2029 -0.0994  0.0126
23220DOD     C313481   5.221   1.173   8.347  0.3006 -0.0141 -0.0106
23221DOD     C113482  12.640   9.761  22.711 -0.1576 -0.0662 -0.2628
23221DOD     C213483  12.290  10.054  22.744  0.4516  0.0362 -0.0094
23221DOD     C313484  12.030  10.418  22.511 -0.0626  0.0227  0.1849
23222DOD     C113485  18.626   7.780   2.750 -0.3587 -0.3979  0.1155
23222DOD     C213486  18.599   7.369   2.528  0.0159  0.0915 -0.1212
23222DOD     C313487  18.632   6.983   2.752  0.0555 -0.1002 -0.1520
23223DOD     C113488   3.944  13.946   9.040  0.3398  0.0948  0.1872
23223DOD     C213489   4.316  13.674   9.142  0.1528  0.0307 -0.0754
23223DOD     C313490   4.484  13.378   9.486 -0.2164  0.1397 -0.0425
23224DOD     C113491  29.192  12.477  23.971 -0.3713 -0.0389  0.0151
23224DOD     C213492  28.893  12.238  24.286  0.1396  0.0050  0.0783
23224DOD     C313493  28.707  12.235  24.708  0.1303  0.2826 -0.1109
23225DOD     C113494  25.218   1.683  27.633 -0.2911  0.0547  0.2331
23225DOD     C213495  25.040   1.289  27.485 -0.2328 -0.0127 -0.2376
23225DOD     C313496  25.004   1.052  27.153  0.1077 -0.2599  0.2039
23226DOD     C113497  26.551  24.560  16.375 -0.1735  0.1719  0.0184
23226DOD     C213498  26.121  24.704  16.195  0.0124 -0.3562  0.0510
23226DOD     C313499  25.633  24.612  16.309  0.1210 -0.2299 -0.1039
23227DOD     C113500   8.909   2.243  12.282  0.1133 -0.1290  0.1585
23227DOD     C213501   8.524   2.480  12.362  0.0603 -0.0314 -0.0149
23227DOD     C313502   8.502   2.860  12.574  0.1631 -0.2418 -0.1843
23228DOD     C113503  18.165  28.230   2.692 -0.0040  0.0646  0.4356
23228DOD     C213504  17.903  28.069   3.078  0.0325 -0.0304  0.1572
23228DOD     C313505  17.606  27.708   3.073  0.1943  0.3874 -0.0420
23229DOD     C113506  18.942   0.612  10.043 -0.0782 -0.0569  0.2075
23229DOD     C213507  18.428   0.596  10.060  0.2843  0.0323  0.5087
23229DOD     C313508  17.950   0.519  10.085  0.0758 -0.0366  0.0605
23230DOD     C113509  11.979   8.040  13.699 -0.0051 -0.1789  0.1279
23230DOD     C213510  12.213   7.668  13.565 -0.0497  0.1778 -0.1949
23230DOD     C313511  12.538   7.349  13.552 -0.2038 -0.2263  0.0236
23231DOD     C113512   9.804  28.564  12.839 -0.0735 -0.1568  0.3333
23231DOD     C213513   9.874  28.710  13.315 -0.1007  0.0251 -0.5534
23231DOD     C313514  10.143  28.865  13.702 -0.1924  0.0484 -0.0816
23232DOD     C113515   6.899  19.643  14.710 -0.1075  0.3104 -0.0509
23232DOD     C213516   6.487  19.637  14.962  0.0133 -0.0158  0.2951
23232DOD     C313517   6.011  19.589  14.881 -0.0741 -0.0793 -0.4850
23233DOD     C113518   0.240  11.826  28.909  0.0739  0.0028 -0.1513
23233DOD     C213519   0.057  12.084  29.248 -0.0301  0.3569  0.0676
23233DOD     C313520  29.934  12.116  29.475 -0.1760  0.0965  0.2012
23234DOD     C113521  25.482  26.346   3.366 -0.1904  0.4038  0.3612
23234DOD     C213522  25.604  25.920   3.292 -0.1831  0.1369  0.3196
23234DOD     C313523  25.905  25.691   2.988  0.3594  0.4572 -0.1166
23235DOD     C113524   8.919  22.836  26.281  0.1375  0.4115 -0.0432
23235DOD     C213525   8.964  23.228  26.484  0.1808 -0.4815  0.2242
23235DOD     C313526   8.935  23.739  26.540 -0.0596 -0.0225 -0.1591
23236DOD     C113527   9.148   4.770  27.282  0.2512 -0.0524 -0.1609
23236DOD     C213528   8.734   4.811  27.473 -0.0451 -0.4867 -0.0048
23236DOD     C313529   8.548   5.245  27.651  0.0470 -0.2824  0.0007
23237DOD     C113530   0.056  23.697  21.459 -0.2117 -0.2288  0.0653
23237DOD     C213531   0.081  24.123  21.216 -0.0791 -0.0067  0.0473
23237DOD     C313532  30.347  24.493  20.972  0.2204 -0.0701  0.0900
23238DOD     C113533  18.443  28.431   1.201  0.0487  0.1806  0.0813
23238DOD     C213534  18.681  28.061   1.420  0.1899 -0.1987 -0.2245
23238DOD     C313535  19.093  27.831   1.637 -0.3183  0.0315  0.0600
23239DOD     C113536  15.447  21.829  18.636 -0.4335 -0.1434  0.0536
23239DOD     C213537  15.405  21.410  18.821 -0.2522 -0.3061 -0.0258
23239DOD     C313538  15.411  21.235  19.237 -0.0927  0.1232  0.4172
23240DOD     C113539  23.248   8.982  17.266  0.3351 -0.1327 -0.1832
23240DOD     C213540  22.806   9.095  17.094  0.0161 -0.2177  0.2406
23240DOD     C313541  22.391   9.178  16.930 -0.1350  0.0010 -0.1492
23241DOD     C113542   1.459  22.883  21.781 -0.2914 -0.0500 -0.0141
23241DOD     C213543   1.698  23.255  21.946  0.3401  0.0678  0.0679
23241DOD     C313544   1.857  23.707  22.008 -0.0073 -0.1050  0.1571
23242DOD     C113545  25.891  21.545  24.873 -0.3075 -0.0983 -0.2031
23242DOD     C213546  26.149  21.210  24.583 -0.0769  0.0036  0.0616
23242DOD     C313547  26.452  20.929  24.340 -0.0831 -0.0420 -0.0571
23243DOD     C113548  16.232  21.809  25.636  0.1684  0.0581  0.0079
23243DOD     C213549  16.079  21.544  25.966 -0.1227 -0.3049 -0.0609
23243DOD     C313550  16.014  21.133  26.177 -0.2767  0.2096  0.0843
23244DOD     C113551  30.047  23.894  16.718  0.0805  0.0354  0.0752
23244DOD     C213552  30.019  23.438  16.579 -0.0922  0.2409 -0.0516
23244DOD     C313553   0.033  23.310  16.307 -0.2940  0.2818  0.2399
23245DOD     C113554  17.004  25.427  26.671 -0.1037 -0.2760 -0.1034
23245DOD     C213555  17.333  25.602  26.375 -0.0149  0.1103  0.0827
23245DOD     C313556  17.633  25.951  26.517  0.0352  0.2548 -0.0427
23246DOD     C113557   8.485  12.741  24.497  0.3384  0.2605 -0.1329
23246DOD     C213558   8.052  12.652  24.587  0.0673 -0.3970  0.1454
23246DOD     C313559   7.766  12.383  24.300  0.2096  0.0338 -0.0037
23247DOD     C113560  15.965  11.045  18.864 -0.1835 -0.0567 -0.2125
23247DOD     C213561  15.563  10.857  18.707  0.0658 -0.0819 -0.0100
23247DOD     C313562  15.124  10.905  18.536  0.1083 -0.0184 -0.1445
23248DOD     C113563  27.323  28.965  10.980 -0.0846 -0.1312  0.1683
23248DOD     C213564  27.762  28.851  11.039 -0.2186 -0.2466  0.2349
23248DOD     C313565  28.133  28.551  11.084 -0.0369 -0.1157 -0.0808
23249DOD     C113566  11.290  24.725  20.865 -0.2180  0.2143  0.1163
23249DOD     C213567  11.225  25.149  20.944  0.0001  0.2195 -0.0399
23249DOD     C313568  11.154  25.630  21.065 -0.1568 -0.2958  0.1630
23250DOD     C113569  10.252  12.341  29.390 -0.2529 -0.0184 -0.3008
23250DOD     C213570  10.734  12.422  29.344 -0.0873  0.0817 -0.4237
23250DOD     C313571  11.228  12.374  29.408  0.1014  0.0022  0.1967
23251DOD     C113572  20.576  23.016   8.727  0.1276  0.3146 -0.3195
23251DOD     C213573  20.721  22.577   8.849 -0.2150 -0.3448  0.0981
23251DOD     C313574  20.987  22.227   8.886  0.3248 -0.2276  0.1702
23252DOD     C113575   4.971  28.014  12.866 -0.0921 -0.0006  0.0528
23252DOD     C213576   4.825  28.419  12.854 -0.0454  0.0498 -0.2656
23252DOD     C313577   4.625  28.770  13.178  0.2362 -0.0627  0.0154
23253DOD     C113578  18.064  17.623   3.635 -0.0333 -0.1164 -0.1396
23253DOD     C213579  18.232  17.178   3.676  0.0048  0.1321 -0.0799
23253DOD     C313580  18.256  16.796   3.356  0.0757  0.0853  0.0892
23254DOD     C113581   4.029  25.447   0.868  0.3276  0.0687  0.1036
23254DOD     C213582   4.380  25.722   0.652  0.2329 -0.1408 -0.1995
23254DOD     C313583   4.657  26.064   0.551  0.3180 -0.3881  0.1234
23255DOD     C113584  26.235   1.108   6.604  0.3297 -0.0047  0.2198
23255DOD     C213585  26.207   1.549   6.427 -0.1796 -0.2551  0.0125
23255DOD     C313586  26.057   1.939   6.181 -0.2153  0.0169  0.0466
23256DOD     C113587  10.345   4.565  24.818  0.0864  0.0889  0.3808
23256DOD     C213588  10.111   4.700  24.440 -0.2153  0.2790 -0.1739
23256DOD     C313589   9.986   4.504  24.080  0.3693 -0.1126  0.0945
23257DOD     C113590   8.875  29.477  23.087  0.0571  0.0215  0.0187
23257DOD     C213591   8.854  29.486  23.577 -0.1307  0.1469  0.1020
23257DOD     C313592   8.770  29.664  24.037  0.0897 -0.1985  0.0493
23258DOD     C113593   6.794  10.639  21.647 -0.0578 -0.3758  0.1810
23258DOD     C213594   7.240  10.677  21.811  0.3143 -0.1754 -0.0078
23258DOD     C313595   7.482  10.889  22.061  0.0878  0.2281 -0.1778
23259DOD     C113596  10.689  21.429  24.437 -0.1577 -0.1682  0.1111
23259DOD     C213597  10.881  21.059  24.268 -0.0782  0.3171 -0.1114
23259DOD     C313598  11.040  20.968  23.830  0.0169  0.1508 -0.0239
23260DOD     C113599  18.255   1.503  23.403  0.1042  0.1250 -0.2513
23260DOD     C213600  18.239   1.952  23.580  0.4662  0.0948 -0.3421
23260DOD     C313601  18.363   2.461  23.619 -0.2045  0.1493 -0.0180
23261DOD     C113602   0.531  25.067  12.341 -0.1419  0.1499  0.0206
23261DOD     C213603   0.722  25.436  12.532 -0.1176  0.3913  0.1307
23261DOD     C313604   0.985  25.820  12.721 -0.3804 -0.0338 -0.1147
23262DOD     C113605  12.015   3.981   7.177  0.1288 -0.1166  0.3757
23262DOD     C213606  12.313   3.898   6.826 -0.3499  0.1701  0.0112
23262DOD     C313607  12.653   3.595   6.732  0.1809 -0.2909 -0.1614
23263DOD     C113608   0.028   7.275  20.095  0.0483  0.2072  0.2527
23263DOD     C213609   0.081   7.684  20.335 -0.0320  0.0897 -0.4041
23263DOD     C313610   0.292   8.063  20.466 -0.1654 -0.0590  0.2425
23264DOD     C113611  24.935  21.272  25.373 -0.0178  0.2489  0.1426
23264DOD     C213612  25.405  21.380  25.216  0.0981 -0.1242 -0.0540
23264DOD     C313613  25.438  21.260  24.765  0.0902 -0.0428 -0.0223
23265DOD     C113614   7.159  12.311   8.113 -0.2316  0.1247 -0.0273
23265DOD     C213615   7.378  12.424   7.711  0.2400  0.0099 -0.0682
23265DOD     C313616   7.188  12.794   7.527  0.0622  0.1084 -0.0812
23266DOD     C113617  23.186  20.654  21.946 -0.3061 -0.0533  0.0589
23266DOD     C213618  22.759  20.425  21.830  0.1455 -0.0463 -0.1370
23266DOD     C313619  22.446  20.125  21.878 -0.1285  0.0791  0.0221
23267DOD     C113620  25.510  10.610   0.425  0.0887  0.1338  0.1504
23267DOD     C213621  25.385  10.517   0.866 -0.1995  0.0227  0.3451
23267DOD     C313622  25.320  10.436   1.307 -0.3802  0.1340  0.0097
23268DOD     C113623  22.333  15.618   6.318 -0.0749 -0.0749  0.0689
23268DOD     C213624  22.604  15.272   6.477  0.0151  0.1728  0.0460
23268DOD     C313625  22.411  14.895   6.326 -0.2170 -0.0806 -0.1642
23269DOD     C113626  24.735   7.775  26.466 -0.1249  0.0955 -0.2620
23269DOD     C213627  24.522   7.424  26.541  0.3310  0.1975  0.0136
23269DOD     C313628  24.140   7.188  26.698 -0.1014  0.0383 -0.2709
23270DOD     C113629   3.962  25.499   7.985 -0.0649 -0.4378 -0.3117
23270DOD     C213630   4.231  25.328   7.655  0.0284 -0.1312 -0.1123
23270DOD     C313631   4.634  25.185   7.523  0.2639 -0.2456 -0.0610
23271DOD     C113632  15.844  23.230   8.012 -0.0709  0.0935 -0.2352
23271DOD     C213633  16.042  23.466   7.659 -0.1439  0.1836  0.1402
23271DOD     C313634  16.261  23.843   7.577  0.0884 -0.1357 -0.0227
23272DOD     C113635  30.150  25.522  13.456  0.0502  0.2403  0.2535
23272DOD     C213636  30.037  25.739  13.888 -0.2600 -0.0139  0.0737
23272DOD     C313637  29.964  25.656  14.355 -0.0334 -0.1011 -0.1679
23273DOD     C113638  29.207  19.745  30.174  0.2243  0.1666  0.0129
23273DOD     C213639  29.605  19.991  30.288  0.1632 -0.1827 -0.2183
23273DOD     C313640  29.856  20.304   0.242  0.2069  0.1815  0.4048
23274DOD     C113641   5.362  21.001   9.298 -0.2817 -0.0974  0.0098
23274DOD     C213642   5.327  20.542   9.175  0.0202 -0.2814 -0.0686
23274DOD     C313643   5.417  20.157   8.906  0.0388  0.1883  0.3714
23275DOD     C113644  17.568  29.387   7.129 -0.1919  0.0838 -0.1148
23275DOD     C213645  17.186  29.622   7.207  0.1868  0.0940  0.0091
23275DOD     C313646  17.209  30.086   7.164 -0.1842  0.0296  0.0582
23276DOD     C113647  28.524  29.100  24.492 -0.2016 -0.0795  0.0269
23276DOD     C213648  28.681  29.498  24.831 -0.1514  0.0114  0.2976
23276DOD     C313649  29.035  29.773  24.964  0.0363 -0.2544 -0.2237
23277DOD     C113650  28.727  20.713   2.037  0.1571  0.1284 -0.1687
23277DOD     C213651  28.554  20.569   2.449 -0.0462  0.3241  0.2060
23277DOD     C313652  28.563  20.131   2.659  0.1014 -0.1712  0.1945
23278DOD     C113653   4.389   6.660  24.548  0.0598 -0.0002 -0.1028
23278DOD     C213654   4.176   6.832  24.172 -0.2660  0.1873 -0.0178
23278DOD     C313655   4.010   7.234  24.074  0.2943  0.1303  0.0456
23279DOD     C113656   3.539   1.278  21.730  0.3764  0.1354 -0.0973
23279DOD     C213657   3.368   1.234  22.167  0.1891 -0.0244  0.2086
23279DOD     C313658   2.947   1.394  22.374 -0.2000 -0.2042  0.0737
23280DOD     C113659  25.535  15.288   2.388 -0.0531  0.0315 -0.3775
23280DOD     C213660  25.602  15.451   2.789  0.0468  0.2106  0.0591
23280DOD     C313661  25.831  15.857   2.814  0.0379  0.1013  0.2026
23281DOD     C113662  14.541   3.958  24.421 -0.2131  0.3946  0.1367
23281DOD     C213663  14.169   4.168  24.173  0.0642 -0.1880 -0.0072
23281DOD     C313664  13.817   4.455  24.342 -0.0134 -0.0104 -0.0337
23282DOD     C113665  25.648   1.268  19.071 -0.0015 -0.0936 -0.0630
23282DOD     C213666  26.014   1.257  18.798 -0.2886 -0.0472 -0.1121
23282DOD     C313667  26.430   1.388  18.617 -0.1881  0.2704  0.1423
23283DOD     C113668  21.522  25.183   2.181  0.0849 -0.1579  0.3565
23283DOD     C213669  21.819  25.227   1.819 -0.1171 -0.0826 -0.0549
23283DOD     C313670  22.225  25.189   1.656  0.0131 -0.0899  0.1359
23284DOD     C113671   4.911   9.468  12.019 -0.0209 -0.0336  0.1516
23284DOD     C213672   4.636   9.382  12.306  0.2368  0.2586 -0.1950
23284DOD     C313673   4.205   9.279  12.517  0.0710 -0.3120  0.1651
23285DOD     C113674  20.508  26.788  18.832  0.2080 -0.0029 -0.3095
23285DOD     C213675  20.371  27.086  18.523 -0.1918  0.1030 -0.0800
23285DOD     C313676  20.273  27.394  18.139 -0.0265  0.2717  0.3118
23286DOD     C113677  11.764  12.854  22.700  0.0357  0.2244 -0.0903
23286DOD     C213678  11.458  12.526  22.497  0.0134  0.1673  0.0417
23286DOD     C313679  11.175  12.346  22.206 -0.0009 -0.0014  0.0913
23287DOD     C113680  21.355   1.224   5.285 -0.0534 -0.0605 -0.2995
23287DOD     C213681  21.371   1.475   5.716 -0.0696  0.1257  0.5871
23287DOD     C313682  21.150   1.836   5.989  0.2470  0.1220 -0.0752
23288DOD     C113683  14.742   6.917  12.691 -0.0506 -0.2534 -0.0481
23288DOD     C213684  15.167   6.779  12.676  0.1580 -0.1412 -0.0018
23288DOD     C313685  15.651   6.666  12.768 -0.3012  0.2606 -0.0620
23289DOD     C113686   8.721   8.355  14.792 -0.0562  0.1472  0.0957
23289DOD     C213687   8.403   8.492  14.508  0.0267 -0.1615  0.0235
23289DOD     C313688   8.469   8.750  14.124  0.2281  0.2540 -0.0903
23290DOD     C113689   1.764  27.181  26.098  0.1843 -0.1131 -0.3353
23290DOD     C213690   1.313  27.297  25.961  0.4677 -0.0799  0.0230
23290DOD     C313691   0.874  27.147  25.718 -0.0226  0.0626  0.0238
23291DOD     C113692   2.984  18.587  18.626  0.2673  0.1184 -0.0099
23291DOD     C213693   3.196  18.910  18.894  0.1849 -0.0944  0.2187
23291DOD     C313694   3.277  18.943  19.369 -0.0334 -0.4271  0.1745
23292DOD     C113695  25.777   1.323   9.239  0.3458 -0.0189 -0.0772
23292DOD     C213696  26.084   0.962   9.250  0.3755  0.2144  0.0882
23292DOD     C313697  25.933   0.556   9.363  0.0039  0.1566 -0.1409
23293DOD     C113698   6.878  10.159  15.919  0.1993  0.0328 -0.0233
23293DOD     C213699   6.960  10.452  15.514  0.2634  0.1837  0.1170
23293DOD     C313700   7.004  10.721  15.199  0.0391 -0.0544 -0.0534
23294DOD     C113701  10.802   1.628  11.999  0.2740  0.1098 -0.1647
23294DOD     C213702  10.758   1.658  12.475 -0.1201  0.2276  0.5042
23294DOD     C313703  10.845   1.316  12.800  0.0054  0.2711 -0.3450
23295DOD     C113704   5.077   3.241   5.846 -0.0793  0.0312 -0.0722
23295DOD     C213705   5.138   3.141   5.387 -0.1374 -0.0561  0.1002
23295DOD     C313706   5.277   2.943   4.955  0.2604 -0.2747 -0.0965
23296DOD     C113707  17.911  20.360   6.608  0.0072  0.0522 -0.4149
23296DOD     C213708  18.115  20.155   6.294 -0.2180 -0.2172  0.3000
23296DOD     C313709  18.091  19.884   5.977  0.3268  0.5403  0.0431
23297DOD     C113710  19.201  21.540  14.829  0.0658  0.0336  0.3104
23297DOD     C213711  19.638  21.622  15.015  0.0789  0.0495 -0.1443
23297DOD     C313712  20.000  21.628  15.287  0.1000  0.2568  0.2520
23298DOD     C113713  12.868   9.914  19.444  0.0567  0.0682 -0.0145
23298DOD     C213714  12.718  10.327  19.589  0.0695  0.1792 -0.1576
23298DOD     C313715  12.737  10.769  19.686  0.2178  0.1693  0.1743
23299DOD     C113716  16.403  24.193  28.210  0.2675  0.1478 -0.2382
23299DOD     C213717  16.464  23.761  28.064  0.0380  0.1904 -0.2632
23299DOD     C313718  16.545  23.336  27.844  0.0906 -0.3135 -0.0217
23300DOD     C113719   8.343  20.234   0.540  0.0819  0.0412 -0.2928
23300DOD     C213720   8.289  19.787   0.712  0.3741  0.0989  0.1011
23300DOD     C313721   8.292  19.398   0.965  0.0198  0.1052 -0.0550
23301DOD     C113722   1.234  17.905   7.214 -0.1814 -0.1894  0.1395
23301DOD     C213723   1.579  18.215   7.216 -0.0563 -0.0764 -0.0160
23301DOD     C313724   1.990  18.392   7.211 -0.1675 -0.0405 -0.2867
23302DOD     C113725  11.458  16.675   2.496  0.1023  0.2528 -0.0970
23302DOD     C213726  11.420  17.119   2.562  0.2361  0.3003  0.2295
23302DOD     C313727  11.098  17.483   2.609 -0.1249 -0.3225 -0.0411
23303DOD     C113728  23.333  17.717   3.472 -0.0929 -0.2166  0.3088
23303DOD     C213729  22.851  17.722   3.482  0.0927  0.2365 -0.0120
23303DOD     C313730  22.497  17.623   3.211 -0.0785  0.0809 -0.0750
23304DOD     C113731  27.932  29.481  24.987  0.4214  0.0147 -0.2181
23304DOD     C213732  28.050  29.933  25.167  0.1588 -0.1796 -0.1732
23304DOD     C313733  28.013   0.081  24.983  0.0911 -0.4084  0.0961
23305DOD     C113734   9.290   3.898  12.116 -0.0150  0.1638  0.1517
23305DOD     C213735   9.188   4.118  12.516 -0.1863  0.1892 -0.0235
23305DOD     C313736   9.388   4.457  12.768 -0.0376 -0.0684  0.3309
23306DOD     C113737  15.009   6.744  15.381 -0.0418 -0.0254 -0.1269
23306DOD     C213738  14.745   6.609  15.737  0.0810 -0.2590  0.1832
23306DOD     C313739  14.487   6.692  16.116  0.1487 -0.0148 -0.0826
23307DOD     C113740   4.314   8.561   5.995 -0.0856 -0.0259 -0.0994
23307DOD     C213741   4.018   8.287   6.226  0.1885  0.1537 -0.0499
23307DOD     C313742   3.528   8.376   6.283  0.0263  0.1007  0.1228
23308DOD     C113743   2.259   7.546  22.791 -0.0072 -0.1844 -0.5994
23308DOD     C213744   2.180   7.732  22.378 -0.2056 -0.0720  0.0152
23308DOD     C313745   2.376   7.419  22.034 -0.0230  0.1454 -0.0566
23309DOD     C113746  23.336  20.281  15.530  0.3311 -0.0118  0.3158
23309DOD     C213747  23.523  19.841  15.549  0.0622  0.1044  0.1450
23309DOD     C313748  23.743  19.425  15.557 -0.0522 -0.1115  0.0593
23310DOD     C113749  17.746  25.198  25.648  0.0515  0.1991  0.2541
23310DOD     C213750  18.209  25.072  25.813  0.0785  0.1165 -0.0854
23310DOD     C313751  18.685  24.906  25.871 -0.4613  0.0094  0.3417
23311DOD     C113752  20.172   7.642   9.796 -0.0192 -0.0408  0.1834
23311DOD     C213753  20.514   7.366   9.613  0.1952  0.0268  0.1143
23311DOD     C313754  20.560   6.919   9.670 -0.0358 -0.4777 -0.1938
23312DOD     C113755  25.258  11.174  14.132  0.1584  0.2542  0.1904
23312DOD     C213756  24.862  11.418  14.199  0.1457  0.0909 -0.2765
23312DOD     C313757  24.826  11.837  14.463  0.0369  0.1332  0.2721
23313DOD     C113758  17.704   6.741   3.540 -0.0244  0.1890  0.0098
23313DOD     C213759  17.439   7.036   3.771  0.0218  0.1895 -0.1446
23313DOD     C313760  17.540   7.441   3.933 -0.1518 -0.2857 -0.0510
23314DOD     C113761  28.192   3.891  11.598  0.1344  0.0737  0.0456
23314DOD     C213762  28.097   4.365  11.524 -0.1605  0.0137 -0.0744
23314DOD     C313763  28.029   4.811  11.592  0.2836  0.1938  0.0563
23315DOD     C113764   2.298   0.258  10.130  0.1088  0.0228  0.2249
23315DOD     C213765   2.355   0.106  10.505  0.2834 -0.1657  0.1902
23315DOD     C313766   2.312   0.210  10.988  0.1046 -0.2928 -0.2026
23316DOD     C113767  15.364  23.134  11.465  0.1358  0.0950  0.1613
23316DOD     C213768  15.183  23.252  11.109  0.0980  0.0472 -0.3852
23316DOD     C313769  15.170  23.603  10.781  0.0443  0.0074 -0.1755
23317DOD     C113770   7.487   2.552   0.583  0.1989  0.3472  0.0968
23317DOD     C213771   7.853   2.377   0.348 -0.2481 -0.1977  0.0939
23317DOD     C313772   8.263   2.310   0.234  0.1466 -0.2689  0.3225
23318DOD     C113773  18.270   5.806  14.440  0.0253  0.2187  0.0682
23318DOD     C213774  18.065   6.119  14.694  0.2755 -0.1330 -0.0920
23318DOD     C313775  17.640   6.053  14.846 -0.0119 -0.2316  0.1139
23319DOD     C113776   9.886   7.669   4.313  0.3275  0.0567 -0.0659
23319DOD     C213777  10.156   7.481   4.628  0.0325  0.3761  0.0930
23319DOD     C313778  10.128   7.171   4.966  0.1322 -0.1159 -0.0524
23320DOD     C113779   0.095   2.468  26.153  0.0033  0.0242 -0.0910
23320DOD     C213780  30.214   2.361  25.792  0.0915  0.1210  0.1752
23320DOD     C313781  29.875   2.514  25.452  0.0600 -0.2046  0.1774
23321DOD     C113782  26.093  17.279  14.434 -0.0101  0.1928  0.0223
23321DOD     C213783  26.136  16.831  14.564 -0.1360 -0.1525 -0.2883
23321DOD     C313784  25.944  16.451  14.736  0.1303  0.3028 -0.3277
23322DOD     C113785  24.037  19.482  16.357 -0.1810  0.1024  0.2980
23322DOD     C213786  24.445  19.743  16.464  0.0399 -0.0163  0.1983
23322DOD     C313787  24.794  19.959  16.302 -0.3221  0.1937  0.2082
23323DOD     C113788  13.458  19.263  12.733 -0.0281 -0.0272 -0.3308
23323DOD     C213789  13.675  19.670  12.706  0.1853 -0.2970 -0.1203
23323DOD     C313790  13.876  19.964  13.011 -0.0351  0.1309 -0.2195
23324DOD     C113791   3.081   3.446   4.498  0.3063  0.0449  0.1013
23324DOD     C213792   2.875   3.745   4.259  0.1184 -0.2618  0.1227
23324DOD     C313793   2.533   4.038   4.310 -0.1493 -0.3647 -0.0481
23325DOD     C113794  14.264  29.153   9.081  0.1636  0.0536  0.2044
23325DOD     C213795  14.509  29.246   9.483 -0.0963 -0.0038  0.0779
23325DOD     C313796  14.814  29.285   9.808  0.0261 -0.1589 -0.1279
23326DOD     C113797  19.381  12.904  24.371  0.0724  0.2966  0.2047
23326DOD     C213798  19.283  12.696  24.808  0.2267  0.1803  0.0943
23326DOD     C313799  19.322  12.674  25.249  0.1502 -0.2652  0.2810
23327DOD     C113800  17.075  27.151  14.724 -0.1906  0.1250 -0.2190
23327DOD     C213801  17.089  27.013  14.316 -0.0285 -0.0036 -0.1933
23327DOD     C313802  17.007  27.209  13.914  0.1781 -0.0045 -0.2596
23328DOD     C113803  27.335  25.921   2.968  0.1434  0.1516 -0.1267
23328DOD     C213804  27.376  25.960   3.395 -0.0199  0.1705 -0.2858
23328DOD     C313805  27.300  25.897   3.838  0.0597  0.0562 -0.3179
23329DOD     C113806  20.930   8.426  23.253  0.1829  0.0237 -0.3375
23329DOD     C213807  21.193   8.465  23.610  0.0173  0.0205 -0.0184
23329DOD     C313808  21.553   8.457  23.967 -0.1233  0.3475 -0.1368
23330DOD     C113809  21.210   4.070  14.929  0.2343 -0.1400 -0.0833
23330DOD     C213810  21.666   4.256  15.074  0.0297  0.0103 -0.0098
23330DOD     C313811  22.041   4.547  15.061 -0.0614 -0.0155 -0.0345
23331DOD     C113812   0.965   5.854  11.828  0.2561 -0.0823 -0.0554
23331DOD     C213813   1.097   5.966  12.226  0.0048 -0.0922  0.4661
23331DOD     C313814   1.336   5.731  12.498  0.0816  0.0164 -0.0403
23332DOD     C113815  24.927  17.702  14.123  0.1852 -0.0304 -0.0090
23332DOD     C213816  25.021  17.764  14.566 -0.0668 -0.0168  0.1384
23332DOD     C313817  24.692  17.751  14.937  0.2474 -0.1884 -0.1964
23333DOD     C113818  22.760  14.621  23.824  0.1276  0.1563  0.1113
23333DOD     C213819  22.988  14.432  24.138  0.0216 -0.0281 -0.1836
23333DOD     C313820  22.920  14.453  24.613 -0.1276 -0.0203  0.1289
23334DOD     C113821  13.965  14.635  28.848 -0.0942  0.0490 -0.1327
23334DOD     C213822  13.763  14.444  28.382 -0.1676 -0.2095  0.1612
23334DOD     C313823  13.496  14.441  28.000 -0.1517 -0.0273  0.0933
23335DOD     C113824  19.082  19.085  30.084  0.2339 -0.4313  0.3221
23335DOD     C213825  19.498  19.110  30.266  0.2712  0.1479 -0.0111
23335DOD     C313826  19.859  18.988   0.238 -0.0466 -0.1292 -0.0190
23336DOD     C113827  21.077   6.162  18.037 -0.2378 -0.1276 -0.3654
23336DOD     C213828  20.812   6.562  17.973  0.1321  0.2510 -0.1257
23336DOD     C313829  20.387   6.837  17.956  0.0764  0.2907  0.2117
23337DOD     C113830  23.627  21.268  23.116 -0.0888 -0.0203 -0.3411
23337DOD     C213831  23.214  21.506  23.087  0.0160  0.3099 -0.0667
23337DOD     C313832  23.012  21.604  22.661 -0.1293 -0.1419  0.2208
23338DOD     C113833   6.053  27.194  13.938  0.0997 -0.0758 -0.4050
23338DOD     C213834   6.027  27.477  13.595 -0.0082  0.0329  0.0729
23338DOD     C313835   6.292  27.583  13.309  0.0694  0.0495 -0.2729
23339DOD     C113836  29.575  28.454  16.727 -0.1892 -0.3024 -0.0845
23339DOD     C213837  29.629  28.274  16.280  0.0094  0.0597  0.0412
23339DOD     C313838  29.768  27.882  16.104 -0.0453  0.1526 -0.0589
23340DOD     C113839  25.787   1.371  25.783  0.1838  0.0386  0.0752
23340DOD     C213840  25.891   1.388  26.239 -0.2137  0.1694  0.0478
23340DOD     C313841  26.035   1.311  26.709 -0.0491  0.1188  0.1489
23341DOD     C113842  18.953  16.878  26.283 -0.2142 -0.0324  0.2407
23341DOD     C213843  19.414  16.876  26.213  0.1183 -0.1338  0.2460
23341DOD     C313844  19.903  16.840  26.309  0.1141  0.1824 -0.3396
23342DOD     C113845  15.907  10.298  28.797 -0.0111 -0.1433 -0.0796
23342DOD     C213846  15.618   9.986  28.672 -0.3055 -0.0160 -0.1618
23342DOD     C313847  15.291   9.679  28.462  0.1561  0.2395 -0.3552
23343DOD     C113848  24.193  29.558  17.844  0.0635 -0.2424 -0.0085
23343DOD     C213849  24.450  29.996  17.824 -0.2572  0.1568  0.2721
23343DOD     C313850  24.274   0.074  17.747  0.1819 -0.3383  0.0877
23344DOD     C113851  29.389  28.565  15.583  0.1405  0.1324 -0.0711
23344DOD     C213852  28.962  28.332  15.477  0.1000  0.0640 -0.2299
23344DOD     C313853  28.471  28.394  15.396  0.4586 -0.0841 -0.0109
23345DOD     C113854  25.942  13.635   3.628  0.1311 -0.1456 -0.3064
23345DOD     C213855  25.925  14.075   3.479 -0.1030 -0.1545 -0.3089
23345DOD     C313856  25.699  14.229   3.081  0.2150  0.2318 -0.1298
23346DOD     C113857   9.019  21.978  15.168  0.0703 -0.5591  0.1328
23346DOD     C213858   8.962  22.148  14.730  0.0569 -0.2581  0.2506
23346DOD     C313859   9.039  22.122  14.264 -0.0271 -0.0008 -0.1060
23347DOD     C113860  24.371  27.718  19.435 -0.0108 -0.0602  0.0138
23347DOD     C213861  24.016  27.994  19.304 -0.0782  0.0345 -0.3092
23347DOD     C313862  23.562  28.057  19.433 -0.3502  0.2152  0.0189
23348DOD     C113863   3.076  28.993  28.691  0.2468 -0.1073 -0.0038
23348DOD     C213864   3.108  28.742  29.037 -0.0186  0.2554 -0.1052
23348DOD     C313865   3.193  28.617  29.514 -0.1294 -0.0656  0.0702
23349DOD     C113866   3.273  17.653   6.515 -0.2597 -0.1108  0.1274
23349DOD     C213867   3.312  18.135   6.599 -0.0736  0.0209 -0.1985
23349DOD     C313868   3.311  18.405   6.961  0.1715  0.1941 -0.3228
23350DOD     C113869  21.002  26.942  19.333 -0.3645  0.2258  0.0734
23350DOD     C213870  20.686  26.599  19.287 -0.0559  0.0234  0.1506
23350DOD     C313871  20.418  26.221  19.193  0.1392  0.0558 -0.2142
23351DOD     C113872  18.344  25.599  16.864  0.2121 -0.2983 -0.1625
23351DOD     C213873  18.799  25.448  16.832  0.0608 -0.1103  0.0972
23351DOD     C313874  19.114  25.532  17.105  0.1159  0.0732 -0.2833
23352DOD     C113875  12.122  15.320  25.632 -0.1709  0.0890 -0.3475
23352DOD     C213876  12.053  15.041  25.288  0.0612  0.2762 -0.0285
23352DOD     C313877  12.340  14.807  25.044  0.0186  0.1975 -0.0770
23353DOD     C113878   1.653  15.132   7.368 -0.0703 -0.0609 -0.1189
23353DOD     C213879   1.561  14.742   7.575  0.1309  0.1528 -0.0716
23353DOD     C313880   1.644  14.455   7.956 -0.4039  0.1878 -0.0075
23354DOD     C113881   5.381   1.598   5.883  0.1862  0.0719 -0.1120
23354DOD     C213882   5.242   1.179   5.959 -0.1464 -0.0022 -0.0477
23354DOD     C313883   5.083   0.729   5.792  0.1659  0.0490 -0.2178
23355DOD     C113884   0.275  26.097  24.426  0.3269  0.1251 -0.2505
23355DOD     C213885  30.133  26.071  24.382  0.1540 -0.1862  0.0211
23355DOD     C313886  29.740  26.259  24.484 -0.0609 -0.0119  0.2805
23356DOD     C113887   3.130  21.869   2.113 -0.1674  0.1263  0.1328
23356DOD     C213888   2.758  21.917   2.350 -0.2664 -0.0632  0.2723
23356DOD     C313889   2.323  21.729   2.465  0.2075  0.6162 -0.0787
23357DOD     C113890   4.469  19.482   8.464 -0.0744  0.2089 -0.0547
23357DOD     C213891   4.146  19.452   8.781  0.0221 -0.3066 -0.0029
23357DOD     C313892   3.804  19.403   9.051 -0.0794  0.0377  0.1084
23358DOD     C113893  14.341   7.899   3.502  0.0562 -0.0095  0.0888
23358DOD     C213894  14.096   8.190   3.263 -0.1197  0.1445  0.2231
23358DOD     C313895  13.890   8.116   2.825  0.1436 -0.0376 -0.1906
23359DOD     C113896   4.230   7.808   1.863 -0.0972  0.0714 -0.1230
23359DOD     C213897   3.842   7.490   1.803  0.0476 -0.1158  0.0412
23359DOD     C313898   3.795   7.086   1.507 -0.1720  0.1769 -0.2322
23360DOD     C113899  19.584  16.624  12.707  0.0581 -0.1083 -0.0579
23360DOD     C213900  19.425  16.671  12.287  0.2035  0.2135 -0.2318
23360DOD     C313901  19.095  16.945  12.097  0.3336 -0.0583 -0.0463
23361DOD     C113902  12.369  28.916  17.652  0.2445 -0.0562  0.0748
23361DOD     C213903  12.181  28.908  17.223 -0.1491  0.0230 -0.1717
23361DOD     C313904  12.380  28.791  16.821 -0.0233 -0.0232  0.0010
23362DOD     C113905   0.683  28.077  18.372 -0.1496 -0.0949 -0.1630
23362DOD     C213906   0.687  27.862  18.735  0.1978  0.1637 -0.1156
23362DOD     C313907   0.762  27.533  19.036  0.2905 -0.0937 -0.1588
23363DOD     C113908  17.370  25.781  14.466 -0.1012 -0.2020 -0.0986
23363DOD     C213909  16.986  25.534  14.398 -0.3459 -0.1319  0.0913
23363DOD     C313910  16.597  25.282  14.437 -0.0774  0.1900  0.1333
23364DOD     C113911  11.449  16.240   5.560 -0.2547  0.0931 -0.2011
23364DOD     C213912  11.685  16.639   5.636 -0.1893 -0.1486 -0.1705
23364DOD     C313913  11.785  16.950   5.993  0.3159 -0.0846 -0.1249
23365DOD     C113914   4.201  12.822  16.694 -0.0479  0.1291 -0.2429
23365DOD     C213915   4.520  13.054  16.669 -0.0326 -0.1141  0.0764
23365DOD     C313916   4.950  13.107  16.894  0.1878  0.1529 -0.1164
23366DOD     C113917  18.778  23.462  23.576 -0.0104  0.1514  0.0500
23366DOD     C213918  18.289  23.395  23.668  0.1885 -0.0528  0.2506
23366DOD     C313919  17.823  23.212  23.546 -0.0408 -0.2153  0.0548
23367DOD     C113920  21.682  24.017  17.892  0.1654 -0.1065 -0.1064
23367DOD     C213921  21.889  24.408  17.757 -0.0793 -0.0574 -0.1721
23367DOD     C313922  22.051  24.507  17.311  0.0073  0.3141 -0.2128
23368DOD     C113923  24.982  22.593  24.730  0.1235  0.0330 -0.1353
23368DOD     C213924  24.964  23.061  24.592 -0.0778 -0.0930 -0.1622
23368DOD     C313925  24.904  23.379  24.266  0.3137  0.2647 -0.0516
23369DOD     C113926  20.166   2.758   2.693 -0.2462 -0.1449 -0.0610
23369DOD     C213927  20.265   2.948   2.307 -0.0537 -0.0161 -0.1251
23369DOD     C313928  20.544   3.243   2.094  0.0857 -0.1784  0.1421
23370DOD     C113929   5.063  19.285  11.827  0.3031 -0.2946 -0.1349
23370DOD     C213930   4.932  18.884  11.973  0.1235 -0.0705 -0.0396
23370DOD     C313931   4.940  18.431  12.053 -0.1748 -0.0559 -0.1617
23371DOD     C113932  13.787  27.676  27.954 -0.1789 -0.1627  0.0249
23371DOD     C213933  13.879  27.250  28.065  0.0543 -0.2634 -0.1796
23371DOD     C313934  13.894  26.961  28.457  0.0201 -0.0381  0.4434
23372DOD     C113935   8.516  14.251  16.531  0.1523 -0.0813  0.3351
23372DOD     C213936   8.778  14.641  16.450 -0.0130  0.0528  0.1228
23372DOD     C313937   9.052  15.035  16.459 -0.0088 -0.3655  0.1463
23373DOD     C113938  28.519   1.437   1.182  0.0294  0.0946 -0.2660
23373DOD     C213939  28.889   1.596   1.433  0.1353  0.0936  0.0104
23373DOD     C313940  29.135   1.671   1.833 -0.4828 -0.0688  0.0271
23374DOD     C113941   3.261   3.005   3.148  0.0718 -0.0258  0.1490
23374DOD     C213942   3.468   3.253   2.862  0.0987 -0.1272 -0.3839
23374DOD     C313943   3.528   3.723   2.773 -0.1912  0.1387  0.0852
23375DOD     C113944  13.155  16.266  23.430 -0.1589 -0.0121  0.2774
23375DOD     C213945  13.115  15.884  23.222  0.0782  0.3800 -0.0321
23375DOD     C313946  13.126  15.527  22.827 -0.4133  0.1080 -0.1490
23376DOD     C113947  17.367  10.807   6.688 -0.0134 -0.0537  0.1412
23376DOD     C213948  17.089  10.584   6.941  0.0025 -0.2424  0.1259
23376DOD     C313949  16.768  10.249   7.030 -0.0052  0.1529 -0.0022
23377DOD     C113950  11.583  22.884  16.631  0.0730 -0.0168  0.0453
23377DOD     C213951  11.984  23.151  16.561 -0.2481 -0.0228 -0.0367
23377DOD     C313952  12.100  23.458  16.260  0.2796  0.1893  0.0360
23378DOD     C113953   1.274  22.146  18.685 -0.0146 -0.0078  0.3333
23378DOD     C213954   1.122  22.345  18.313  0.2302 -0.0632 -0.0291
23378DOD     C313955   0.713  22.338  17.965 -0.4146  0.1089 -0.0016
23379DOD     C113956  24.672   2.547   3.674  0.1229 -0.0920 -0.0589
23379DOD     C213957  24.534   2.133   3.670  0.0892 -0.2278  0.1154
23379DOD     C313958  24.482   1.682   3.722 -0.1324  0.3805 -0.3407
23380DOD     C113959  27.739   1.981  15.856  0.0786  0.2706 -0.0300
23380DOD     C213960  27.733   1.923  16.339  0.0068  0.3664  0.3745
23380DOD     C313961  27.338   1.821  16.606  0.3405 -0.0374 -0.1971
23381DOD     C113962  15.707   3.397   6.061 -0.0600 -0.3511  0.0415
23381DOD     C213963  15.996   3.731   5.983  0.0726  0.1009  0.2844
23381DOD     C313964  16.240   3.938   5.623  0.1338 -0.1030  0.0282
23382DOD     C113965  12.092  21.116  25.445  0.1420  0.0167  0.3335
23382DOD     C213966  12.346  20.747  25.316 -0.1101 -0.1187  0.0968
23382DOD     C313967  12.709  20.659  25.059 -0.2664  0.3319  0.2050
23383DOD     C113968  14.228  16.372  19.407 -0.3472 -0.2802 -0.0857
23383DOD     C213969  13.802  16.394  19.257 -0.3516 -0.2368 -0.1880
23383DOD     C313970  13.446  16.651  19.249 -0.2441 -0.0920 -0.1748
23384DOD     C113971   1.790   6.181   0.256  0.1624  0.1152 -0.2558
23384DOD     C213972   1.422   5.963   0.528  0.0777 -0.1640 -0.0758
23384DOD     C313973   1.063   5.712   0.634  0.1634 -0.1781 -0.0886
23385DOD     C113974  16.422   6.298  23.679  0.2641 -0.1503  0.1003
23385DOD     C213975  16.830   6.151  23.554 -0.1931  0.1109 -0.2015
23385DOD     C313976  17.262   6.123  23.639  0.2567  0.1454 -0.1642
23386DOD     C113977   5.086  13.990   5.504  0.2108 -0.3663  0.0283
23386DOD     C213978   5.441  14.048   5.781  0.1347 -0.0663 -0.0470
23386DOD     C313979   5.762  14.343   5.921 -0.0711  0.5267 -0.0633
23387DOD     C113980  23.021  10.925  12.418  0.0715  0.2763  0.1637
23387DOD     C213981  23.113  10.438  12.319 -0.1739 -0.0612  0.0341
23387DOD     C313982  23.089  10.045  12.565 -0.2889  0.1970  0.1648
23388DOD     C113983  17.598  28.060  15.074  0.0633 -0.3794  0.2564
23388DOD     C213984  17.444  27.691  15.290  0.1375 -0.1017  0.0500
23388DOD     C313985  17.387  27.437  15.672 -0.2077  0.0745  0.1088
23389DOD     C113986  16.072  26.715  23.978  0.1827  0.2609  0.0951
23389DOD     C213987  16.422  26.933  24.185  0.3167 -0.1669 -0.0607
23389DOD     C313988  16.586  27.072  24.600  0.1041  0.2741  0.0255
23390DOD     C113989   6.328  22.554  23.269 -0.1152 -0.1971 -0.3995
23390DOD     C213990   6.624  22.164  23.356  0.0074 -0.2396  0.2928
23390DOD     C313991   7.030  21.975  23.277 -0.2208  0.1494  0.0370
23391DOD     C113992   4.729  10.676   3.564 -0.0482  0.3419 -0.5378
23391DOD     C213993   5.192  10.560   3.666 -0.0404 -0.0665  0.2699
23391DOD     C313994   5.591  10.388   3.820 -0.3122  0.2119  0.0735
23392DOD     C113995  25.551   4.806  20.226  0.2252 -0.0542  0.0018
23392DOD     C213996  25.643   4.636  19.833 -0.1212 -0.0935  0.0904
23392DOD     C313997  25.796   4.199  19.811 -0.0365  0.3177 -0.4424
23393DOD     C113998  19.927  28.432  25.994  0.2649 -0.3045 -0.1720
23393DOD     C213999  20.183  28.720  25.896  0.1801  0.0520  0.1601
23393DOD     C314000  20.600  28.948  25.968  0.0174  0.0292 -0.1390
23394DOD     C114001  27.198  26.828   0.124 -0.1264 -0.1036  0.0663
23394DOD     C214002  27.324  26.543  30.074 -0.0865 -0.1939  0.2663
23394DOD     C314003  27.234  26.344  29.654 -0.1622  0.1194  0.0479
23395DOD     C114004  16.605   8.126  26.766 -0.1684 -0.1011 -0.1234
23395DOD     C214005  16.674   7.806  26.444  0.0325  0.3358  0.1129
23395DOD     C314006  16.877   7.522  26.110 -0.1825  0.3062  0.1479
23396DOD     C114007  11.322  11.589  15.141 -0.0469 -0.0989  0.2934
23396DOD     C214008  11.512  11.369  14.780 -0.1880 -0.1781 -0.1788
23396DOD     C314009  11.541  11.131  14.342 -0.1105  0.2955  0.2072
23397DOD     C114010   8.379  28.888  21.244 -0.2687 -0.2367 -0.3412
23397DOD     C214011   8.789  29.048  21.094  0.1338 -0.0187 -0.0459
23397DOD     C314012   9.190  29.271  21.015  0.0022 -0.0050 -0.0394
23398DOD     C114013  14.738   3.831   9.852  0.1065  0.0581 -0.0689
23398DOD     C214014  15.048   4.171   9.696  0.0725 -0.1501 -0.2961
23398DOD     C314015  14.947   4.627   9.614 -0.1182  0.0312 -0.0186
23399DOD     C114016  17.974  16.625   9.019 -0.0318  0.0701  0.0398
23399DOD     C214017  17.749  16.578   9.450  0.3117  0.1987 -0.0125
23399DOD     C314018  17.659  16.670   9.862 -0.2094  0.2994 -0.0170
23400DOD     C114019  17.589  29.103  16.768  0.0641  0.0091 -0.0080
23400DOD     C214020  17.271  29.408  16.896  0.2057  0.3218  0.2243
23400DOD     C314021  17.007  29.768  16.774 -0.0433 -0.4025  0.2306
23401DOD     C114022   8.500  10.953  12.498 -0.3094  0.3270  0.2818
23401DOD     C214023   8.837  11.162  12.234 -0.0841 -0.0372  0.0636
23401DOD     C314024   9.234  10.984  12.102 -0.1792  0.0988  0.3054
23402DOD     C114025   3.764  13.864  19.626 -0.2972 -0.3640  0.1325
23402DOD     C214026   3.522  14.197  19.821 -0.1762  0.1182  0.0226
23402DOD     C314027   3.289  14.317  20.256  0.1986 -0.0865  0.1488
23403DOD     C114028   7.851  12.044  10.604  0.1999 -0.1754  0.0401
23403DOD     C214029   8.084  12.225  10.889 -0.0485 -0.2139  0.2871
23403DOD     C314030   8.211  12.644  10.968 -0.0022  0.0662  0.0727
23404DOD     C114031  12.355  24.030  20.511  0.2313  0.1552  0.1156
23404DOD     C214032  12.442  24.135  20.940 -0.0212  0.0166  0.0438
23404DOD     C314033  12.797  24.310  21.109 -0.0434  0.1927 -0.0325
23405DOD     C114034  21.290  17.089  20.229  0.1076 -0.2013 -0.2273
23405DOD     C214035  21.181  16.682  20.406 -0.1005  0.2554  0.0068
23405DOD     C314036  20.945  16.395  20.651 -0.1091 -0.1675 -0.3283
23406DOD     C114037   5.121  18.653   8.486 -0.0293  0.1563  0.0667
23406DOD     C214038   5.325  18.240   8.507  0.0233  0.1525 -0.4122
23406DOD     C314039   5.523  17.940   8.755 -0.1418  0.1786 -0.3762
23407DOD     C114040  11.531  11.310  27.377  0.0664  0.0517  0.1698
23407DOD     C214041  11.911  11.156  27.145  0.2682  0.3008  0.1553
23407DOD     C314042  12.236  10.985  26.824 -0.1363 -0.1205  0.2100
23408DOD     C114043  14.212  25.693  14.068 -0.3560  0.2267  0.2881
23408DOD     C214044  14.106  25.487  14.481  0.1160 -0.1572 -0.1186
23408DOD     C314045  13.811  25.641  14.855 -0.1424 -0.0434  0.1203
23409DOD     C114046  29.840  28.964  17.398 -0.2086 -0.1329  0.3031
23409DOD     C214047  30.296  28.806  17.317  0.0358  0.3036 -0.1189
23409DOD     C314048   0.129  28.399  17.436 -0.2944 -0.0188 -0.0966
23410DOD     C114049  19.319  22.132   0.001 -0.1262 -0.0271 -0.5047
23410DOD     C214050  18.886  22.147   0.151 -0.2571 -0.1021  0.1145
23410DOD     C314051  18.657  22.294   0.529  0.2432 -0.0112 -0.2928
23411DOD     C114052  18.816   1.199  21.034  0.1750 -0.3507 -0.1835
23411DOD     C214053  18.626   1.254  20.639  0.0019  0.1175 -0.0012
23411DOD     C314054  18.435   1.001  20.313 -0.4057 -0.1131  0.3976
23412DOD     C114055  26.756   7.947  12.794 -0.2221  0.0368  0.0124
23412DOD     C214056  26.673   7.846  12.391 -0.0769  0.2787  0.3106
23412DOD     C314057  26.442   8.076  12.098  0.3319  0.0657  0.1135
23413DOD     C114058  14.368  15.005  28.951  0.2889  0.4407  0.2972
23413DOD     C214059  14.785  14.839  29.080 -0.0129 -0.2537 -0.2690
23413DOD     C314060  15.104  14.935  29.431 -0.0433 -0.1024  0.2516
23414DOD     C114061   3.023  25.881   3.904  0.4179  0.0796  0.2200
23414DOD     C214062   3.028  26.301   4.156 -0.1737  0.1240 -0.3130
23414DOD     C314063   3.295  26.650   4.370 -0.0741 -0.1174  0.0109
23415DOD     C114064   7.528   6.721   1.439 -0.0866 -0.0099  0.1320
23415DOD     C214065   7.576   6.296   1.498  0.0127 -0.0409 -0.0357
23415DOD     C314066   7.598   6.019   1.128 -0.0243 -0.0454  0.3214
23416DOD     C114067  27.533   7.373  27.089 -0.1447 -0.0196 -0.0066
23416DOD     C214068  27.258   7.450  27.486 -0.1132  0.1697  0.0065
23416DOD     C314069  27.200   7.637  27.862 -0.3032  0.0688 -0.1640
23417DOD     C114070  12.457  10.106  21.390  0.1952  0.3378  0.0872
23417DOD     C214071  12.157  10.209  21.700  0.1559  0.1636  0.2246
23417DOD     C314072  12.123  10.513  22.020 -0.0954  0.0650  0.1544
23418DOD     C114073  21.119  27.082   8.444  0.1118 -0.1095  0.1069
23418DOD     C214074  20.926  26.721   8.748  0.1289 -0.0466  0.2239
23418DOD     C314075  21.020  26.315   8.931  0.1270  0.0796 -0.2745
23419DOD     C114076  19.962  25.142   7.567 -0.1703  0.1902  0.1585
23419DOD     C214077  19.787  25.586   7.507  0.3357  0.6140  0.0783
23419DOD     C314078  19.703  26.088   7.527 -0.1910  0.0281  0.2065
23420DOD     C114079   1.888  22.136   5.882 -0.3277  0.1532 -0.0124
23420DOD     C214080   2.099  22.535   5.654  0.2267  0.3504 -0.1786
23420DOD     C314081   2.435  22.726   5.331  0.0711 -0.2833  0.0978
23421DOD     C114082   6.881  13.752  22.471 -0.1087  0.1076  0.1618
23421DOD     C214083   6.750  13.615  22.060  0.1165 -0.3697  0.0324
23421DOD     C314084   6.576  13.302  21.753 -0.4808  0.3048  0.2157
23422DOD     C114085  27.967  10.287  27.971  0.1575  0.0768 -0.0966
23422DOD     C214086  27.512  10.369  27.841 -0.0769  0.1220 -0.1201
23422DOD     C314087  27.170  10.483  27.562  0.2986 -0.3245 -0.1381
23423DOD     C114088  20.171  17.479   4.888  0.0321  0.2607  0.1221
23423DOD     C214089  20.217  17.020   4.632  0.1692 -0.2572 -0.1367
23423DOD     C314090  20.079  16.574   4.697  0.0993 -0.2123  0.0472
23424DOD     C114091   6.206   5.127   8.067 -0.1806 -0.0305 -0.0751
23424DOD     C214092   6.084   5.202   7.607  0.4198 -0.0736 -0.1343
23424DOD     C314093   5.747   5.446   7.380  0.0769 -0.0211  0.0659
23425DOD     C114094  23.956   0.485  29.578 -0.1640 -0.0096  0.2221
23425DOD     C214095  24.298   0.823  29.421 -0.2744 -0.1421 -0.0756
23425DOD     C314096  24.260   1.296  29.408  0.3748 -0.0042 -0.0625
23426DOD     C114097  21.811   9.492  24.852  0.0557 -0.2133 -0.0173
23426DOD     C214098  21.729   9.413  24.370  0.2370 -0.2474 -0.0601
23426DOD     C314099  21.269   9.437  24.241 -0.0361  0.0103 -0.2568
23427DOD     C114100  21.607  13.891   2.369 -0.0150  0.0003 -0.0690
23427DOD     C214101  21.482  13.481   2.210  0.1264 -0.1023 -0.0975
23427DOD     C314102  21.332  13.097   2.411  0.1643  0.4419 -0.0238
23428DOD     C114103   1.326  26.975  16.372 -0.1337 -0.2114  0.1006
23428DOD     C214104   1.508  27.364  16.496  0.3247  0.0351 -0.0993
23428DOD     C314105   1.899  27.552  16.499 -0.0569 -0.4498 -0.0108
23429DOD     C114106   0.867  11.483  27.941  0.0597  0.1815 -0.0532
23429DOD     C214107   0.875  11.027  28.099  0.0705 -0.3983 -0.0193
23429DOD     C314108   0.752  10.608  28.290 -0.1714 -0.0101 -0.0114
23430DOD     C114109   0.948  21.193  26.120  0.4142  0.2500 -0.0412
23430DOD     C214110   0.960  20.765  26.322  0.1644 -0.1379 -0.0902
23430DOD     C314111   1.293  20.369  26.324  0.0413  0.0918  0.0221
23431DOD     C114112  15.637  17.057   4.262  0.0627 -0.0872 -0.1400
23431DOD     C214113  15.564  17.526   4.150 -0.1103 -0.0620 -0.3843
23431DOD     C314114  15.710  17.943   4.081 -0.1227  0.3085  0.2634
23432DOD     C114115   9.327  14.806  14.206  0.1964  0.1048  0.1475
23432DOD     C214116   9.297  14.555  14.590  0.3203 -0.0620  0.1511
23432DOD     C314117   9.166  14.092  14.608 -0.1536 -0.2787 -0.1727
23433DOD     C114118  21.328  13.955  10.115  0.1745  0.0589  0.2435
23433DOD     C214119  21.298  14.140   9.719 -0.2146 -0.0431 -0.2094
23433DOD     C314120  21.033  14.506   9.512  0.2447  0.0926 -0.2389
23434DOD     C114121  10.162   4.567  10.448  0.3568 -0.1537 -0.1010
23434DOD     C214122  10.440   4.816  10.706 -0.0925 -0.1552 -0.1731
23434DOD     C314123  10.882   4.948  10.675 -0.1913 -0.2449  0.2036
23435DOD     C114124   0.756  12.975  10.969 -0.2652 -0.1423 -0.0017
23435DOD     C214125   0.359  12.925  10.712 -0.2819 -0.0835 -0.3934
23435DOD     C314126  30.309  12.727  10.581  0.1582 -0.1224  0.1554
23436DOD     C114127  26.953  29.485   6.636  0.4212  0.0513  0.0236
23436DOD     C214128  26.559  29.180   6.524 -0.0233 -0.0778 -0.1295
23436DOD     C314129  26.204  28.838   6.563  0.0684  0.1143 -0.5022
23437DOD     C114130  17.421   8.191   3.255  0.1537  0.1296  0.0172
23437DOD     C214131  17.258   7.769   3.102 -0.1435 -0.0072  0.0596
23437DOD     C314132  17.336   7.350   3.344  0.2278 -0.1960  0.1266
23438DOD     C114133  13.420   7.936  28.344 -0.2243 -0.3600  0.2591
23438DOD     C214134  13.500   7.994  28.820  0.1541 -0.0194 -0.1173
23438DOD     C314135  13.952   8.254  28.890  0.1065 -0.1606 -0.3295
23439DOD     C114136   2.633  24.087  19.367 -0.0180  0.0401 -0.0759
23439DOD     C214137   2.475  24.181  18.979 -0.1946 -0.0301  0.1033
23439DOD     C314138   2.215  24.351  18.609 -0.0531 -0.1254  0.1907
23440DOD     C114139   6.638  24.898  10.841 -0.1472 -0.0614 -0.2311
23440DOD     C214140   6.623  25.304  10.626 -0.4000  0.0062  0.0543
23440DOD     C314141   6.558  25.779  10.552  0.2624  0.3147 -0.1457
23441DOD     C114142  21.874   3.048  12.977  0.1096 -0.2715  0.0019
23441DOD     C214143  22.102   3.083  13.383 -0.1963 -0.3703 -0.0633
23441DOD     C314144  22.366   3.294  13.702 -0.1688 -0.1926  0.1058
23442DOD     C114145  12.004  10.443   7.161  0.2087  0.1476  0.4182
23442DOD     C214146  11.630  10.179   7.288 -0.0659  0.1963 -0.0008
23442DOD     C314147  11.219   9.927   7.224  0.0851 -0.1500 -0.0930
23443DOD     C114148  18.640   3.342  25.832  0.1150  0.0434 -0.2637
23443DOD     C214149  18.848   2.980  25.957 -0.1533  0.1223 -0.3490
23443DOD     C314150  19.110   2.641  26.132 -0.0647 -0.2082 -0.0512
23444DOD     C114151  23.872  13.511  28.529  0.1995  0.2726  0.0303
23444DOD     C214152  23.991  13.906  28.410 -0.0213  0.1319 -0.2805
23444DOD     C314153  24.129  14.303  28.513 -0.2207 -0.0602  0.0225
23445DOD     C114154   3.768  11.687   4.612  0.1730 -0.1377 -0.2721
23445DOD     C214155   3.892  11.410   4.978  0.2438  0.3351 -0.0107
23445DOD     C314156   3.997  10.934   5.147 -0.3036  0.0364 -0.1625
23446DOD     C114157  12.286  22.575   7.886 -0.0142  0.2577 -0.0481
23446DOD     C214158  12.272  22.424   8.377 -0.2584 -0.0514  0.1095
23446DOD     C314159  12.304  22.493   8.870 -0.1070 -0.0354  0.1690
23447DOD     C114160  12.665   6.237  15.874  0.1453  0.0411 -0.3332
23447DOD     C214161  12.688   6.562  15.536  0.1034  0.1340 -0.1250
23447DOD     C314162  12.366   6.891  15.427 -0.0022 -0.2021 -0.1408
23448DOD     C114163   7.796  19.690  10.572 -0.2759  0.2042  0.3918
23448DOD     C214164   8.172  19.484  10.760 -0.1948  0.0052 -0.0907
23448DOD     C314165   8.494  19.134  10.615  0.0155  0.1461  0.3277
23449DOD     C114166  16.840  21.422  19.261 -0.1129 -0.3565  0.1061
23449DOD     C214167  16.862  21.319  19.743  0.1897  0.0997 -0.0261
23449DOD     C314168  16.781  20.899  19.956  0.3594 -0.1521  0.1571
23450DOD     C114169   0.385  22.503   7.436 -0.3319 -0.2140  0.0204
23450DOD     C214170   0.719  22.747   7.157 -0.1711  0.1396  0.1692
23450DOD     C314171   1.185  22.841   7.125 -0.2801  0.1683  0.1785
23451DOD     C114172  12.448  26.778  27.290  0.1971 -0.0234  0.2613
23451DOD     C214173  12.423  27.084  26.967  0.1817  0.0363 -0.1385
23451DOD     C314174  12.614  27.453  26.742 -0.1351 -0.1490 -0.0666
23452DOD     C114175   1.169  18.259  21.406  0.0101  0.1946  0.0909
23452DOD     C214176   1.136  18.057  20.982 -0.0653  0.0002  0.2568
23452DOD     C314177   1.197  18.217  20.560  0.2110  0.2616  0.0933
23453DOD     C114178  24.390  12.449   1.471 -0.0937  0.0954  0.3582
23453DOD     C214179  24.784  12.716   1.306 -0.0378  0.1614 -0.1981
23453DOD     C314180  24.847  12.973   0.963  0.2834 -0.0720  0.0036
23454DOD     C114181   9.144   7.602   7.313 -0.2691  0.1425  0.1150
23454DOD     C214182   9.623   7.514   7.425 -0.1078  0.1055 -0.1776
23454DOD     C314183  10.088   7.493   7.356  0.1612 -0.0407 -0.2223
23455DOD     C114184   4.134  20.978  28.668  0.0203 -0.2488 -0.0389
23455DOD     C214185   4.408  21.356  28.787  0.3180  0.1723 -0.0253
23455DOD     C314186   4.533  21.626  29.168  0.0346 -0.1109 -0.2447
23456DOD     C114187  28.611  30.147   0.225  0.1474  0.3107  0.1706
23456DOD     C214188  28.933   0.115  30.325 -0.1024 -0.1579  0.3289
23456DOD     C314189  29.137   0.451  30.057 -0.1963  0.1479 -0.0247
23457DOD     C114190   9.619  20.859   0.347 -0.0766  0.0227  0.2431
23457DOD     C214191   9.709  21.203   0.634 -0.1596  0.0853  0.1351
23457DOD     C314192   9.382  21.443   0.860 -0.0529  0.0498 -0.1098
23458DOD     C114193  17.130  13.365  11.956  0.1606  0.1632  0.3233
23458DOD     C214194  16.689  13.514  12.145  0.1066  0.2408 -0.0762
23458DOD     C314195  16.335  13.683  11.849  0.1271 -0.0642  0.1425
23459DOD     C114196  26.827  15.334  29.200  0.0789  0.1474 -0.1246
23459DOD     C214197  26.871  15.771  29.310  0.1267  0.1699 -0.2020
23459DOD     C314198  26.693  16.084  29.560 -0.1922 -0.1192 -0.0334
23460DOD     C114199  20.396   2.625  26.064  0.0741  0.0587 -0.2454
23460DOD     C214200  20.023   2.902  25.907  0.2528  0.2230  0.1370
23460DOD     C314201  20.023   2.907  25.409  0.5560  0.3086  0.0462
23461DOD     C114202   1.354  10.663   6.718 -0.1924 -0.2596  0.3201
23461DOD     C214203   1.480  10.560   7.145  0.0947 -0.2831 -0.5936
23461DOD     C314204   1.687  10.609   7.582 -0.0384 -0.1247 -0.1088
23462DOD     C114205  10.036  12.926  27.329  0.0525 -0.0549  0.0140
23462DOD     C214206  10.363  12.678  27.302  0.0504 -0.3548  0.2108
23462DOD     C314207  10.332  12.189  27.253  0.1900 -0.5215  0.0303
23463DOD     C114208  26.481  12.080  25.431  0.0422  0.0884 -0.0413
23463DOD     C214209  26.445  11.861  25.801  0.1650 -0.0387 -0.0352
23463DOD     C314210  26.378  11.524  26.113 -0.2128 -0.2278 -0.0484
23464DOD     C114211  18.024  13.779  26.040  0.2614  0.0214 -0.2013
23464DOD     C214212  18.162  13.778  25.538  0.0835 -0.2933 -0.4136
23464DOD     C314213  18.539  13.861  25.270  0.0191 -0.1022 -0.3729
23465DOD     C114214  28.021   2.282  18.608  0.0016 -0.1517  0.0491
23465DOD     C214215  27.945   2.286  18.166 -0.1162 -0.3861  0.0933
23465DOD     C314216  27.584   2.364  17.874  0.3208 -0.2117 -0.1762
23466DOD     C114217  11.460   0.559   2.729 -0.0866  0.3915  0.2169
23466DOD     C214218  11.880   0.751   2.937  0.2369  0.2372 -0.0486
23466DOD     C314219  12.084   0.599   3.328 -0.4103 -0.0455  0.0586
23467DOD     C114220   3.018   4.758  11.804  0.0493  0.1322  0.0154
23467DOD     C214221   2.833   4.316  11.816 -0.4194 -0.2889 -0.0612
23467DOD     C314222   2.431   4.080  11.967 -0.2788  0.1680  0.1626
23468DOD     C114223  27.207  25.014  23.150  0.2213  0.0538 -0.0439
23468DOD     C214224  27.027  24.773  22.787 -0.4184 -0.0768 -0.3499
23468DOD     C314225  26.853  24.349  22.641  0.0996  0.5406 -0.0108
23469DOD     C114226   2.361  10.654  20.239  0.0811 -0.2266 -0.2405
23469DOD     C214227   2.600  10.725  20.631  0.1225 -0.0108  0.0578
23469DOD     C314228   2.849  10.879  21.001  0.3530  0.2958  0.0284
23470DOD     C114229   7.576   2.164   7.623 -0.2487  0.0226  0.1254
23470DOD     C214230   7.642   1.844   7.930 -0.1554 -0.1763  0.0576
23470DOD     C314231   8.057   1.810   7.720 -0.0383  0.1621  0.0319
23471DOD     C114232  26.036  29.077  18.580 -0.1573  0.2666  0.2627
23471DOD     C214233  25.692  28.770  18.653 -0.0448 -0.2673  0.1845
23471DOD     C314234  25.287  28.481  18.580  0.0178 -0.1957 -0.0204
23472DOD     C114235  24.077  13.999  29.756 -0.3141 -0.2541 -0.2823
23472DOD     C214236  24.525  13.899  29.734 -0.0601  0.3069 -0.2124
23472DOD     C314237  24.832  13.808  29.351  0.1228  0.1625  0.0333
23473DOD     C114238  15.881  25.204  21.080  0.0510  0.3131 -0.3343
23473DOD     C214239  15.950  24.943  20.705  0.0507  0.2570 -0.2446
23473DOD     C314240  16.247  24.820  20.344  0.0040 -0.0478 -0.0561
23474DOD     C114241  11.378  15.428   3.504  0.1842  0.1081 -0.0997
23474DOD     C214242  11.192  15.800   3.683 -0.0402  0.1875  0.1997
23474DOD     C314243  10.728  15.964   3.743  0.2651  0.1314 -0.0229
23475DOD     C114244  23.084  10.575  27.088  0.2050  0.0536  0.2494
23475DOD     C214245  23.277  10.209  27.329  0.0792 -0.0909  0.2716
23475DOD     C314246  23.766  10.170  27.425 -0.2649  0.0344 -0.1630
23476DOD     C114247  29.077  30.084  17.969 -0.2273 -0.0709 -0.1457
23476DOD     C214248  29.337   0.178  18.097  0.2799  0.3177  0.0242
23476DOD     C314249  29.435   0.608  18.030  0.0876 -0.0047 -0.0145
23477DOD     C114250   0.452  13.054  17.535  0.0760 -0.0006 -0.0038
23477DOD     C214251   0.492  13.371  17.867  0.0463 -0.1033 -0.0971
23477DOD     C314252   0.332  13.699  18.182 -0.3690  0.0590  0.0019
23478DOD     C114253   5.208  13.176  20.366 -0.0818  0.1112 -0.4760
23478DOD     C214254   5.653  13.321  20.374  0.0120  0.2458 -0.1649
23478DOD     C314255   6.127  13.132  20.392  0.1533 -0.1411 -0.1590
23479DOD     C114256   9.787  18.225   9.370 -0.1848  0.0029  0.0212
23479DOD     C214257   9.894  18.111   9.797  0.2291  0.0397 -0.1359
23479DOD     C314258  10.284  18.312  10.011  0.2492  0.0138  0.1415
23480DOD     C114259  10.185   6.399  24.887 -0.0592  0.1199  0.1937
23480DOD     C214260  10.485   6.049  25.071 -0.3355 -0.3095  0.1865
23480DOD     C314261  10.860   5.890  25.317  0.3095 -0.0311 -0.2309
23481DOD     C114262  24.642   2.036  22.648 -0.0448  0.1601 -0.1724
23481DOD     C214263  24.353   1.673  22.568 -0.0978  0.0052  0.1691
23481DOD     C314264  23.936   1.452  22.503  0.0343 -0.1676 -0.1017
23482DOD     C114265  17.361  10.397  28.152  0.2322  0.1105  0.0286
23482DOD     C214266  17.712  10.432  28.441 -0.2582 -0.0301 -0.3697
23482DOD     C314267  17.980  10.111  28.639  0.0081 -0.1741  0.0053
23483DOD     C114268  10.498   8.959   0.482  0.1241  0.0574  0.1321
23483DOD     C214269  10.890   9.163   0.193  0.2039  0.0733 -0.0231
23483DOD     C314270  11.154   9.552   0.069 -0.1879 -0.0412  0.1218
23484DOD     C114271   3.122   8.697  20.759  0.2058  0.0003  0.2576
23484DOD     C214272   2.938   8.284  20.654  0.0361 -0.2393  0.2593
23484DOD     C314273   2.529   8.264  20.515  0.1648 -0.0886  0.0027
23485DOD     C114274  24.936  15.499  14.810 -0.1820 -0.2405  0.1336
23485DOD     C214275  24.953  15.969  14.927 -0.1244  0.0174  0.2381
23485DOD     C314276  25.179  16.171  15.219 -0.0317  0.0427 -0.0838
23486DOD     C114277  27.913  26.961  22.662  0.0504 -0.4878 -0.0675
23486DOD     C214278  27.918  26.486  22.629 -0.0019 -0.1109  0.1080
23486DOD     C314279  28.119  26.066  22.634 -0.0022  0.4761 -0.1966
23487DOD     C114280  19.110  25.553  27.558 -0.3691  0.1730  0.0532
23487DOD     C214281  18.660  25.459  27.570  0.0274 -0.1187  0.1191
23487DOD     C314282  18.229  25.662  27.748  0.2370  0.1846  0.0489
23488DOD     C114283  18.710   8.141  29.916  0.1591 -0.2872 -0.0525
23488DOD     C214284  18.695   8.570  30.011  0.2082 -0.2347 -0.2486
23488DOD     C314285  18.686   9.027  30.251 -0.0010 -0.2776 -0.0644
23489DOD     C114286  14.498   8.645  20.473 -0.1911 -0.0589  0.2449
23489DOD     C214287  14.027   8.845  20.544  0.1006  0.1275 -0.1895
23489DOD     C314288  13.824   9.183  20.834  0.0877 -0.0799 -0.1339
23490DOD     C114289  22.719  12.097  30.370 -0.0188  0.2643  0.1936
23490DOD     C214290  23.010  11.813  30.124 -0.2935  0.1286 -0.1992
23490DOD     C314291  23.495  11.739  29.936  0.1614  0.1879  0.0682
23491DOD     C114292  14.836  11.905   9.981  0.0924  0.0350 -0.1854
23491DOD     C214293  15.226  11.707   9.902  0.5817  0.0905 -0.2366
23491DOD     C314294  15.656  11.674  10.041 -0.0711  0.0099 -0.2959
23492DOD     C114295  13.096  28.997   0.493 -0.2099  0.0469  0.0453
23492DOD     C214296  12.866  28.806   0.104  0.3683 -0.0978  0.0466
23492DOD     C314297  12.440  28.918  30.236  0.2460  0.0174 -0.2619
23493DOD     C114298  24.977   6.826  21.000  0.1310  0.1333  0.0017
23493DOD     C214299  25.070   6.414  21.173 -0.2312  0.2029 -0.2773
23493DOD     C314300  25.166   6.213  21.582  0.3715  0.2227  0.1882
23494DOD     C114301   6.915  14.408  29.073 -0.2164  0.1260 -0.1033
23494DOD     C214302   6.627  14.267  29.385 -0.4084  0.0847 -0.0248
23494DOD     C314303   6.150  14.367  29.524 -0.1804 -0.0769  0.2350
23495DOD     C114304  27.125   8.996  21.693 -0.1721 -0.0207  0.4040
23495DOD     C214305  27.280   9.388  21.845  0.0705  0.1442 -0.0797
23495DOD     C314306  27.282   9.682  22.226  0.0494  0.0350 -0.2449
23496DOD     C114307   4.436  10.859  18.613 -0.0815  0.2844 -0.1008
23496DOD     C214308   4.314  11.257  18.777 -0.0281  0.0478 -0.1331
23496DOD     C314309   4.288  11.633  19.094  0.0207 -0.0720 -0.3302
23497DOD     C114310  13.751  16.582   3.526 -0.0729 -0.1886  0.1583
23497DOD     C214311  13.811  16.741   3.069 -0.1488 -0.0478  0.0377
23497DOD     C314312  14.029  17.097   2.886  0.1370 -0.1464  0.2926
23498DOD     C114313  27.464  10.615  14.629  0.0248 -0.2003  0.4395
23498DOD     C214314  27.772  10.828  14.909 -0.0472 -0.0394 -0.0870
23498DOD     C314315  27.888  11.218  15.150 -0.2036 -0.2549 -0.2407
23499DOD     C114316   9.395  13.784   9.005  0.1408 -0.1361 -0.0779
23499DOD     C214317   9.690  13.411   8.911  0.0696  0.3128 -0.0483
23499DOD     C314318  10.160  13.433   8.942  0.1236 -0.3185 -0.3081
23500DOD     C114319  15.565  12.045  12.401  0.0754  0.0833  0.2112
23500DOD     C214320  15.282  12.108  12.044  0.1178  0.0306  0.2408
23500DOD     C314321  15.169  11.925  11.616  0.0272 -0.0675  0.1368
23501DOD     C114322  27.069  18.253   6.760 -0.0223  0.1188 -0.1534
23501DOD     C214323  27.217  18.032   7.120  0.0150 -0.0303  0.1988
23501DOD     C314324  27.572  17.772   7.291 -0.2500 -0.2884  0.1678
23502DOD     C114325  16.106  10.734   7.683 -0.1046  0.0168 -0.3024
23502DOD     C214326  16.449  11.025   7.874  0.0074 -0.1399  0.0756
23502DOD     C314327  16.518  11.519   7.837  0.2260 -0.1913  0.4015
23503DOD     C114328  26.594   8.099  29.065  0.1219  0.3336  0.0379
23503DOD     C214329  26.730   8.449  28.763 -0.0248  0.2380 -0.1831
23503DOD     C314330  26.447   8.764  28.626 -0.0666 -0.0049 -0.0772
23504DOD     C114331  22.851   0.176   9.275  0.2359 -0.0936 -0.1334
23504DOD     C214332  22.838   0.278   8.860 -0.0318 -0.0579  0.1001
23504DOD     C314333  22.706   0.486   8.492 -0.0281  0.0081  0.0430
23505DOD     C114334   9.437  27.398  13.607 -0.0916  0.2953 -0.2959
23505DOD     C214335   9.419  27.663  14.031  0.1059 -0.0532 -0.1551
23505DOD     C314336   9.616  27.776  14.480  0.1014  0.1233  0.0892
23506DOD     C114337  15.826   9.163  21.899  0.2062  0.0944  0.1264
23506DOD     C214338  15.956   9.648  21.881 -0.0612  0.4074 -0.2402
23506DOD     C314339  16.342   9.676  21.680 -0.1296 -0.0323 -0.1895
23507DOD     C114340  22.119  12.018  17.358  0.1891 -0.1906  0.0411
23507DOD     C214341  22.437  12.291  17.565  0.2528 -0.1228 -0.0746
23507DOD     C314342  22.422  12.635  17.932  0.0056 -0.0813  0.1642
23508DOD     C114343  15.095  20.342  29.999  0.1349  0.0374  0.1198
23508DOD     C214344  15.426  20.012  30.054 -0.2008 -0.1218 -0.1043
23508DOD     C314345  15.792  19.696  30.091  0.4814  0.3084  0.1860
23509DOD     C114346  22.705  21.907  11.471  0.0466 -0.2489 -0.0220
23509DOD     C214347  22.725  22.043  11.052 -0.0390  0.1040  0.0139
23509DOD     C314348  22.689  22.080  10.581  0.0031  0.1625 -0.1291
23510DOD     C114349  13.503  19.848   6.402 -0.1640  0.0069 -0.0394
23510DOD     C214350  13.954  19.892   6.224 -0.1051  0.0884 -0.0790
23510DOD     C314351  14.420  20.055   6.123 -0.0061  0.4031 -0.2887
23511DOD     C114352  13.707  18.938  11.856  0.1670  0.1140 -0.0113
23511DOD     C214353  13.705  19.318  11.734  0.3512  0.1775 -0.1926
23511DOD     C314354  13.316  19.579  11.649 -0.0308  0.1519  0.1873
23512DOD     C114355  22.618  18.524  26.319  0.0686  0.1395 -0.0493
23512DOD     C214356  22.746  18.847  26.598  0.0864 -0.0068 -0.1562
23512DOD     C314357  22.936  19.242  26.583 -0.1378 -0.2769  0.3116
23513DOD     C114358  28.618  17.812   8.773  0.0466 -0.0459  0.3150
23513DOD     C214359  28.942  17.445   8.596 -0.0016 -0.2094 -0.1125
23513DOD     C314360  29.184  17.047   8.517  0.1632 -0.0540  0.0707
23514DOD     C114361  25.582  15.710  28.458  0.2152  0.1305 -0.0158
23514DOD     C214362  25.600  15.384  28.808  0.0907  0.0793  0.0424
23514DOD     C314363  25.565  15.018  29.064 -0.2831  0.0380 -0.1273
23515DOD     C114364   4.811  17.905   7.364 -0.0427 -0.0581 -0.0292
23515DOD     C214365   5.206  18.031   7.180 -0.2770  0.0081 -0.1449
23515DOD     C314366   5.616  18.109   7.395  0.1618  0.1831 -0.0458
23516DOD     C114367   6.024  27.530   0.226  0.2847 -0.0842  0.1903
23516DOD     C214368   6.248  27.146   0.370  0.0153  0.0273 -0.1075
23516DOD     C314369   6.531  26.800   0.296 -0.3181  0.0700 -0.0670
23517DOD     C114370  13.171  20.834   4.479 -0.0275 -0.0346 -0.0939
23517DOD     C214371  13.381  20.989   4.863 -0.2037 -0.3155  0.1661
23517DOD     C314372  13.614  21.267   5.155  0.0651  0.1805 -0.2661
23518DOD     C114373  20.167  13.839  30.067  0.0263 -0.3006 -0.2433
23518DOD     C214374  20.519  13.597  29.944 -0.3164 -0.0630  0.2016
23518DOD     C314375  20.982  13.461  30.112 -0.2214  0.0585  0.2660
23519DOD     C114376  12.007   6.416   9.679  0.1120 -0.4980  0.1067
23519DOD     C214377  12.076   6.505   9.204 -0.0649  0.0802  0.1285
23519DOD     C314378  12.310   6.711   8.804 -0.0998 -0.0275 -0.1911
23520DOD     C114379   9.571  21.650   9.113  0.0770 -0.1006  0.0364
23520DOD     C214380   9.360  21.565   8.729 -0.2041 -0.2567  0.0678
23520DOD     C314381   9.190  21.275   8.418 -0.1389  0.3284  0.0167
23521DOD     C114382  26.006  10.932  12.491  0.0334  0.0302 -0.0040
23521DOD     C214383  26.229  10.841  12.074  0.1560 -0.0700  0.1379
23521DOD     C314384  26.417  10.501  11.805  0.0820 -0.0595  0.3595
23522DOD     C114385  11.809  29.648   5.036 -0.0547 -0.2006 -0.2971
23522DOD     C214386  11.990  29.768   4.631 -0.2999  0.1144  0.0931
23522DOD     C314387  12.295  29.582   4.319 -0.1641 -0.3482 -0.0654
23523DOD     C114388  16.891  13.811   1.417 -0.0564 -0.0114 -0.2717
23523DOD     C214389  16.426  13.755   1.488 -0.0605 -0.3378  0.0485
23523DOD     C314390  15.996  13.903   1.459  0.0989 -0.2450 -0.0764
23524DOD     C114391  23.108  16.399  22.928 -0.0945 -0.0294 -0.1271
23524DOD     C214392  23.534  16.282  22.921  0.1972  0.0679 -0.1267
23524DOD     C314393  23.962  16.224  23.158  0.1834  0.1564 -0.2701
23525DOD     C114394  25.266  29.998   2.511  0.1891  0.1970 -0.0081
23525DOD     C214395  25.726  29.892   2.690 -0.1605  0.1140 -0.1860
23525DOD     C314396  25.807  29.999   3.136  0.4011  0.0065 -0.1929
23526DOD     C114397  26.232  17.553   0.275 -0.1236 -0.0185 -0.1212
23526DOD     C214398  26.500  17.669  30.224  0.1704 -0.0968  0.1332
23526DOD     C314399  26.894  17.669  29.982 -0.3080  0.1506 -0.1751
23527DOD     C114400  18.801  18.407  29.487 -0.3993 -0.2128  0.3475
23527DOD     C214401  18.946  18.297  29.934 -0.1121 -0.0758 -0.0259
23527DOD     C314402  18.877  18.128   0.057 -0.0230 -0.0520 -0.3863
23528DOD     C114403   6.087  11.476  22.991  0.0558 -0.2376 -0.2119
23528DOD     C214404   6.293  11.853  22.777 -0.0578  0.3595  0.3925
23528DOD     C314405   6.667  12.174  22.864  0.1800  0.2817  0.0355
23529DOD     C114406   6.262  18.540  27.180 -0.0404 -0.0081 -0.0462
23529DOD     C214407   6.497  18.943  27.149  0.1153 -0.0920 -0.2409
23529DOD     C314408   6.431  19.400  27.295 -0.1990  0.2932 -0.2807
23530DOD     C114409  21.877  22.187  23.073 -0.2157  0.1008  0.1964
23530DOD     C214410  21.958  22.660  23.203  0.0737 -0.0278  0.1820
23530DOD     C314411  21.959  22.959  23.567  0.0886  0.1871 -0.1342
23531DOD     C114412  26.618  10.636  19.363  0.1524 -0.1981  0.0283
23531DOD     C214413  26.815  10.964  19.039  0.0215  0.0948 -0.1869
23531DOD     C314414  27.263  10.896  18.866  0.1085  0.0359  0.1643
23532DOD     C114415   6.200   9.425  26.060  0.0620 -0.1521  0.2781
23532DOD     C214416   6.287   9.273  26.489 -0.0752 -0.2211 -0.0531
23532DOD     C314417   6.357   9.016  26.857  0.0628  0.0239 -0.0849
23533DOD     C114418  16.019  23.773  26.644 -0.3416  0.2263  0.2638
23533DOD     C214419  15.977  23.624  26.223  0.2272  0.2315 -0.0072
23533DOD     C314420  15.689  23.353  25.967  0.3465 -0.0545  0.0863
23534DOD     C114421  24.696  26.126  28.974 -0.1889 -0.1316 -0.3305
23534DOD     C214422  25.070  26.413  28.892 -0.2958  0.1754 -0.1904
23534DOD     C314423  25.271  26.849  29.015  0.0639  0.1490  0.0550
23535DOD     C114424   7.926   0.328  15.067 -0.0270 -0.1403  0.2596
23535DOD     C214425   7.869   0.259  15.571  0.3099 -0.2233 -0.2851
23535DOD     C314426   7.629   0.340  15.982 -0.0344  0.0562 -0.0735
23536DOD     C114427  23.381  17.615   7.973  0.2723 -0.1879  0.0752
23536DOD     C214428  23.686  17.997   7.938 -0.0875  0.2196 -0.0569
23536DOD     C314429  23.769  18.450   8.068 -0.1024  0.1280 -0.0514
23537DOD     C114430  20.412   4.744  18.833 -0.0021 -0.3518  0.1293
23537DOD     C214431  20.000   4.554  18.922  0.0414 -0.0166  0.1369
23537DOD     C314432  19.606   4.536  19.218  0.0746  0.0188 -0.2251
23538DOD     C114433  19.573  12.077  22.435  0.0753 -0.1459  0.0479
23538DOD     C214434  19.958  12.180  22.368 -0.0419 -0.0901  0.3842
23538DOD     C314435  20.345  12.159  22.133  0.0113 -0.1068 -0.1017
23539DOD     C114436  11.401  25.196  25.044  0.2929  0.0834 -0.1548
23539DOD     C214437  11.150  25.540  24.805 -0.0786  0.2885 -0.0439
23539DOD     C314438  10.910  25.950  24.888  0.2215  0.1223 -0.1174
23540DOD     C114439  23.310  12.384  10.274 -0.0194  0.4430 -0.1971
23540DOD     C214440  23.509  12.404   9.840 -0.3877 -0.0655 -0.2498
23540DOD     C314441  23.513  12.702   9.495  0.3138 -0.0580 -0.2921
23541DOD     C114442  22.573   4.195  10.040 -0.0600 -0.1889  0.0428
23541DOD     C214443  22.672   4.243  10.475  0.1509 -0.2245 -0.0518
23541DOD     C314444  22.989   4.445  10.771 -0.0391 -0.0533  0.0875
23542DOD     C114445  12.473  17.840  17.313 -0.1404  0.1096 -0.0572
23542DOD     C214446  12.749  17.831  16.903  0.3457  0.1060 -0.1034
23542DOD     C314447  13.117  17.871  16.658 -0.0871 -0.4432  0.0521
23543DOD     C114448   8.601  26.744  24.880 -0.0915  0.0574 -0.1592
23543DOD     C214449   8.593  27.114  24.664  0.3133 -0.2164  0.2345
23543DOD     C314450   8.352  27.236  24.312  0.1813 -0.1666  0.2771
23544DOD     C114451  14.835  12.626  21.361 -0.0081  0.2837  0.2533
23544DOD     C214452  14.695  12.509  21.742 -0.2309 -0.1422  0.1545
23544DOD     C314453  14.385  12.562  22.034 -0.2532 -0.1722  0.1634
23545DOD     C114454   5.277  12.051  23.723 -0.0759 -0.3866  0.1856
23545DOD     C214455   5.270  12.465  23.453  0.1503  0.1805  0.2353
23545DOD     C314456   5.022  12.608  23.090 -0.1050  0.1065 -0.1008
23546DOD     C114457   4.727   4.688  18.020  0.0191 -0.0416  0.0303
23546DOD     C214458   4.960   4.265  17.898 -0.0077  0.1065 -0.2575
23546DOD     C314459   5.174   3.949  17.680 -0.0138  0.3799 -0.0281
23547DOD     C114460  17.061  24.536   5.515 -0.1650  0.1380  0.1894
23547DOD     C214461  16.741  24.471   5.187  0.1250 -0.0940  0.2050
23547DOD     C314462  16.438  24.517   4.779 -0.2543  0.0976  0.0095
23548DOD     C114463   7.292  10.934  16.765  0.0388 -0.4335  0.1883
23548DOD     C214464   7.560  10.585  16.920  0.1668  0.0938 -0.3368
23548DOD     C314465   7.330  10.317  17.226  0.0634  0.2207  0.0363
23549DOD     C114466  22.736  19.970   7.005  0.2131  0.1575 -0.1212
23549DOD     C214467  23.141  19.950   6.984  0.3579 -0.1275  0.0301
23549DOD     C314468  23.426  19.672   6.796 -0.1701 -0.0096  0.4673
23550DOD     C114469   7.825  10.063   4.963 -0.1667  0.1551 -0.0622
23550DOD     C214470   7.832  10.027   4.500 -0.3068 -0.2295  0.1748
23550DOD     C314471   8.077   9.811   4.175 -0.1214  0.1958  0.0556
23551DOD     C114472   2.124   4.992   7.029 -0.0474 -0.3313 -0.0352
23551DOD     C214473   2.464   4.947   7.290  0.2552 -0.2407  0.4698
23551DOD     C314474   2.909   4.750   7.307 -0.0187  0.3634  0.1041
23552DOD     C114475  29.532  17.526   3.206 -0.4184  0.2124 -0.1962
23552DOD     C214476  29.473  17.933   3.402  0.1712 -0.1879  0.0572
23552DOD     C314477  29.035  18.154   3.393  0.1317  0.0297 -0.3153
23553DOD     C114478   0.393   1.679  14.116 -0.0900 -0.1677 -0.1520
23553DOD     C214479  30.250   1.475  14.194 -0.0712 -0.2193  0.1482
23553DOD     C314480  30.003   1.486  13.831  0.4386  0.0048 -0.1439
23554DOD     C114481  30.131  13.050  17.163 -0.1398  0.0520 -0.1367
23554DOD     C214482  29.870  12.770  16.867 -0.2189 -0.2550  0.2470
23554DOD     C314483  30.058  12.612  16.462 -0.0176 -0.0292 -0.1555
23555DOD     C114484  28.787  26.052  24.713 -0.1746 -0.1358  0.1324
23555DOD     C214485  29.017  25.851  24.355  0.0072 -0.1412  0.1326
23555DOD     C314486  29.116  25.376  24.377 -0.0400  0.1186  0.2187
23556DOD     C114487  29.122  14.860  13.106  0.1640  0.0196  0.2043
23556DOD     C214488  29.399  14.565  12.927 -0.1234 -0.0294  0.2429
23556DOD     C314489  29.246  14.092  12.946  0.1243  0.1459  0.0798
23557DOD     C114490  26.734  24.884  23.437 -0.2016 -0.0066  0.1038
23557DOD     C214491  26.566  24.654  23.001 -0.2818 -0.3248  0.0188
23557DOD     C314492  26.450  24.205  22.800  0.3241  0.0756 -0.0004
23558DOD     C114493  27.492  22.506   7.974  0.0166 -0.1439 -0.1266
23558DOD     C214494  27.399  22.093   7.966 -0.1420  0.0125 -0.1327
23558DOD     C314495  27.165  21.861   7.653 -0.0255  0.3846 -0.0220
23559DOD     C114496  27.487   6.731  25.931  0.2354 -0.1840 -0.2937
23559DOD     C214497  27.298   6.360  25.697 -0.1473 -0.2125  0.3398
23559DOD     C314498  27.060   6.013  25.595 -0.0124  0.0759  0.2301
23560DOD     C114499  14.072  26.610  16.782  0.2519  0.1687  0.1586
23560DOD     C214500  13.861  26.550  17.227 -0.2044 -0.3055 -0.1718
23560DOD     C314501  13.556  26.605  17.602  0.0223 -0.1159  0.3898
23561DOD     C114502  26.138  25.874  14.961 -0.1541 -0.1097  0.1121
23561DOD     C214503  26.488  25.602  15.080 -0.1517 -0.0548  0.2127
23561DOD     C314504  26.597  25.427  15.461 -0.0040 -0.1985 -0.0594
23562DOD     C114505  19.427  22.975  12.359  0.0996  0.0397 -0.0149
23562DOD     C214506  19.799  22.915  12.056  0.0184  0.2416  0.1253
23562DOD     C314507  19.929  22.528  11.807 -0.0461  0.2605  0.1708
23563DOD     C114508   5.704  23.205   2.770 -0.0933  0.2836  0.3671
23563DOD     C214509   5.477  22.925   3.046  0.3049  0.0373  0.3062
23563DOD     C314510   5.061  23.131   3.199  0.0358  0.0342  0.0413
23564DOD     C114511   4.982  19.959  11.736  0.3905 -0.1977  0.4370
23564DOD     C214512   4.516  19.873  11.800 -0.0393 -0.1826  0.1840
23564DOD     C314513   4.264  19.697  12.160 -0.0778  0.3223 -0.0769
23565DOD     C114514  24.060  26.351  11.544 -0.1024  0.0752  0.0882
23565DOD     C214515  23.762  26.264  11.214 -0.0161  0.1884 -0.3053
23565DOD     C314516  23.548  26.093  10.825 -0.0076 -0.0374 -0.0686
23566DOD     C114517  17.105  27.950   7.630 -0.2787  0.1117 -0.0176
23566DOD     C214518  17.152  28.416   7.886  0.1827 -0.0262 -0.0570
23566DOD     C314519  16.871  28.461   8.281 -0.0652  0.0042  0.1474
23567DOD     C114520  15.531   0.407   1.578 -0.1165  0.1312  0.1387
23567DOD     C214521  15.891   0.540   1.895  0.1441 -0.3850  0.0760
23567DOD     C314522  16.145   0.882   2.119  0.1045 -0.0480 -0.0468
23568DOD     C114523  18.339  24.971  20.385  0.2257  0.0016  0.0186
23568DOD     C214524  17.894  24.884  20.496 -0.0541 -0.2021  0.0024
23568DOD     C314525  17.706  24.475  20.571  0.1957 -0.2497 -0.1217
23569DOD     C114526   7.269  18.943  19.369 -0.1042 -0.0465  0.2340
23569DOD     C214527   7.387  19.216  19.057 -0.1025 -0.0715  0.1126
23569DOD     C314528   7.485  19.574  18.809  0.1379  0.0219  0.0324
23570DOD     C114529  19.972  26.651   0.988 -0.1339 -0.1194 -0.3117
23570DOD     C214530  20.107  26.236   1.125  0.1636  0.1098  0.0384
23570DOD     C314531  20.258  25.996   1.481 -0.0531 -0.1507 -0.2192
23571DOD     C114532  17.578  22.776  26.044  0.0734 -0.0138  0.0919
23571DOD     C214533  17.531  23.055  25.677 -0.1607  0.0085  0.3814
23571DOD     C314534  17.721  23.075  25.236 -0.3802  0.0918  0.3451
23572DOD     C114535  22.207  21.296  26.418  0.2171 -0.0048 -0.1101
23572DOD     C214536  22.207  21.452  26.887 -0.0331 -0.4186 -0.1742
23572DOD     C314537  22.341  21.863  27.161 -0.1948  0.1263  0.1476
23573DOD     C114538  18.662  10.374  23.227 -0.1140  0.2393  0.0996
23573DOD     C214539  18.565   9.932  23.144  0.1692  0.1182  0.0285
23573DOD     C314540  18.237   9.625  23.018  0.0205 -0.2052  0.1009
23574DOD     C114541   3.330   6.331  28.227 -0.0475 -0.1695 -0.0584
23574DOD     C214542   3.345   5.901  28.302 -0.1537 -0.0170  0.0240
23574DOD     C314543   3.580   5.539  28.271  0.2078 -0.0218  0.0015
23575DOD     C114544  26.481  10.593  18.509  0.0608 -0.0347 -0.1868
23575DOD     C214545  26.048  10.495  18.416 -0.1236 -0.3200 -0.0807
23575DOD     C314546  25.604  10.430  18.549  0.0355  0.0489 -0.0190
23576DOD     C114547  28.427  28.609   3.987 -0.1377  0.3718 -0.2047
23576DOD     C214548  28.308  28.490   3.561  0.0746 -0.1965  0.1884
23576DOD     C314549  28.104  28.359   3.136  0.0924 -0.0820  0.1054
23577DOD     C114550  13.396  21.845  29.938  0.1138 -0.1310 -0.0596
23577DOD     C214551  13.240  22.140  30.240  0.0550 -0.0235  0.0857
23577DOD     C314552  13.208  22.358   0.278  0.0959 -0.1139 -0.0292
23578DOD     C114553  20.857   6.528  13.992 -0.2781 -0.1243  0.2022
23578DOD     C214554  20.756   6.267  13.579 -0.3079  0.0506 -0.0920
23578DOD     C314555  20.417   6.178  13.267  0.1828 -0.3829  0.2356
23579DOD     C114556  22.571  19.887  23.268  0.2646  0.0601 -0.5031
23579DOD     C214557  22.876  19.602  23.455  0.1911  0.0892  0.1728
23579DOD     C314558  22.880  19.396  23.910 -0.1488 -0.0565  0.0079
23580DOD     C114559   4.962  14.226  24.397  0.1554 -0.0953 -0.2786
23580DOD     C214560   5.150  13.806  24.437  0.2842 -0.1652  0.0664
23580DOD     C314561   5.282  13.340  24.248  0.2440  0.1997 -0.1880
23581DOD     C114562  24.646  29.895   0.429 -0.6486 -0.1626 -0.1168
23581DOD     C214563  24.815   0.035   0.504 -0.0770 -0.1127 -0.0496
23581DOD     C314564  25.145   0.285   0.277  0.0003  0.3442  0.0068
23582DOD     C114565   8.712  19.986  12.619 -0.2369  0.2325  0.0342
23582DOD     C214566   8.831  20.100  12.171  0.0767 -0.1604  0.0873
23582DOD     C314567   9.010  19.951  11.759 -0.1495 -0.0848 -0.4572
23583DOD     C114568  16.632  27.042  14.165  0.1777 -0.1268 -0.3209
23583DOD     C214569  16.578  27.055  14.686 -0.2006 -0.1387 -0.1109
23583DOD     C314570  16.646  26.898  15.143 -0.1680  0.1316  0.3197
23584DOD     C114571   7.422   9.205   7.942  0.0702  0.3348  0.0842
23584DOD     C214572   7.160   9.491   7.694 -0.3550 -0.0383 -0.1186
23584DOD     C314573   7.110   9.960   7.693  0.2498 -0.2143  0.0661
23585DOD     C114574   9.751   6.782  16.923  0.1085  0.3741 -0.1356
23585DOD     C214575   9.855   7.075  17.270 -0.3461  0.0532  0.0434
23585DOD     C314576  10.139   7.373  17.356 -0.0219 -0.0284  0.2010
23586DOD     C114577  16.308  22.176  19.566 -0.3817  0.1591 -0.0152
23586DOD     C214578  16.467  22.474  19.855  0.2251 -0.2424 -0.0941
23586DOD     C314579  16.236  22.853  20.036 -0.0357 -0.1327  0.3014
23587DOD     C114580   5.941   7.543  27.507 -0.3003  0.0337 -0.1694
23587DOD     C214581   5.802   7.767  27.118 -0.0270 -0.3202  0.1144
23587DOD     C314582   5.948   7.820  26.676 -0.2022 -0.0329 -0.1389
23588DOD     C114583  27.393  18.259  25.363  0.0938 -0.0152 -0.0012
23588DOD     C214584  27.550  18.042  25.712  0.0014  0.0658 -0.0699
23588DOD     C314585  27.683  17.703  26.015 -0.0435 -0.3932  0.4239
23589DOD     C114586  26.976  13.123  16.146  0.3566  0.0810 -0.3600
23589DOD     C214587  26.542  13.308  16.213 -0.0568  0.2786  0.0573
23589DOD     C314588  26.179  13.128  16.011 -0.0339 -0.2195  0.1962
23590DOD     C114589  20.085  23.030   1.412  0.0196  0.3907 -0.1232
23590DOD     C214590  20.332  23.403   1.449  0.1343  0.0152  0.3406
23590DOD     C314591  20.648  23.314   1.797 -0.0110  0.1279 -0.0242
23591DOD     C114592  29.509   9.745   8.015  0.0399  0.2084 -0.0146
23591DOD     C214593  29.352  10.104   7.686 -0.0093  0.1640 -0.1070
23591DOD     C314594  29.065  10.478   7.471  0.1036 -0.0732 -0.0854
23592DOD     C114595  27.821  26.495  23.127 -0.1403  0.0516 -0.1109
23592DOD     C214596  27.404  26.730  23.272 -0.1494  0.0782  0.1719
23592DOD     C314597  26.992  26.629  23.479 -0.2419  0.2820 -0.0783
23593DOD     C114598  13.140   9.241  24.160  0.0508 -0.0493 -0.1824
23593DOD     C214599  13.297   8.910  24.424  0.3184 -0.0017 -0.0775
23593DOD     C314600  13.697   8.667  24.378  0.3151 -0.0322  0.1567
23594DOD     C114601  16.411  12.117  24.065  0.0799 -0.0487  0.1011
23594DOD     C214602  16.140  12.500  24.024 -0.2036 -0.1653  0.0647
23594DOD     C314603  15.905  12.776  23.740  0.1744  0.1516 -0.0323
23595DOD     C114604  14.190  26.827  21.468  0.1807  0.0189  0.0125
23595DOD     C214605  14.537  27.125  21.503 -0.0309  0.2158 -0.1460
23595DOD     C314606  14.890  27.220  21.837 -0.1591 -0.2188  0.0722
23596DOD     C114607   7.089  22.514   7.820  0.1310  0.1597  0.2160
23596DOD     C214608   6.655  22.394   7.998  0.0731  0.3956 -0.1010
23596DOD     C314609   6.191  22.539   8.069  0.0551 -0.1031 -0.1535
23597DOD     C114610  15.643  10.609  30.215 -0.0033 -0.1365  0.1731
23597DOD     C214611  15.815  10.675   0.332  0.0211  0.0698  0.0420
23597DOD     C314612  15.712  11.079   0.518  0.0343  0.0667 -0.0479
23598DOD     C114613   6.403  13.850   6.430  0.6038 -0.0182  0.0315
23598DOD     C214614   6.616  13.930   6.825  0.2077  0.0685 -0.0221
23598DOD     C314615   6.919  14.250   7.031  0.1642  0.0888  0.2436
23599DOD     C114616  14.813  25.904  17.822  0.2910  0.0851 -0.0136
23599DOD     C214617  14.385  25.981  17.610  0.1443 -0.0768  0.0390
23599DOD     C314618  14.238  26.093  17.182 -0.0590 -0.2327  0.1353
23600DOD     C114619  19.232  19.833  15.272  0.4772  0.0370  0.4180
23600DOD     C214620  19.166  20.288  15.153  0.0588  0.1625 -0.1462
23600DOD     C314621  18.991  20.719  15.066 -0.2188  0.1561 -0.2962
23601DOD     C114622   7.214  14.094  26.238 -0.4174 -0.0523  0.1286
23601DOD     C214623   7.018  13.711  26.093 -0.0927  0.5120 -0.0197
23601DOD     C314624   6.684  13.635  25.806  0.0148  0.3059  0.0612
23602DOD     C114625   6.397   5.483  15.249  0.1845 -0.1471 -0.1311
23602DOD     C214626   6.821   5.462  15.201  0.1237  0.0636 -0.1533
23602DOD     C314627   7.203   5.230  15.338 -0.3320 -0.3539  0.0896
23603DOD     C114628  18.942  22.077  23.588 -0.0814  0.2802  0.0082
23603DOD     C214629  19.334  22.047  23.309  0.0289 -0.1330 -0.0473
23603DOD     C314630  19.722  21.771  23.207 -0.2272  0.1343 -0.1582
23604DOD     C114631   2.978  23.655   5.140 -0.1081 -0.5016 -0.0480
23604DOD     C214632   2.918  23.409   4.722  0.2559 -0.4618  0.0773
23604DOD     C314633   2.990  23.261   4.262 -0.1116  0.0400 -0.0905
23605DOD     C114634  14.148  23.759  24.505  0.1976  0.0368 -0.3026
23605DOD     C214635  14.583  23.929  24.395  0.0632  0.0226  0.0421
23605DOD     C314636  15.020  24.003  24.395  0.0990  0.2251  0.3851
23606DOD     C114637  17.202  16.903   7.880 -0.0226 -0.4752 -0.0039
23606DOD     C214638  17.362  17.319   7.993 -0.1294  0.1280  0.1025
23606DOD     C314639  17.550  17.621   8.261  0.1132  0.1321  0.0747
23607DOD     C114640  25.569  13.759  23.746 -0.2078 -0.2175  0.0922
23607DOD     C214641  25.779  13.641  24.147 -0.0316 -0.0648  0.1842
23607DOD     C314642  25.648  13.606  24.540  0.0710  0.0980  0.1007
23608DOD     C114643  19.330  22.496  21.327  0.4223  0.0920  0.0348
23608DOD     C214644  19.507  22.077  21.391 -0.2221 -0.1551  0.0848
23608DOD     C314645  19.359  21.614  21.251 -0.0132 -0.0048  0.0276
23609DOD     C114646  27.709  20.858  23.976  0.0719  0.1935 -0.0243
23609DOD     C214647  27.864  21.274  24.153 -0.1477 -0.3526 -0.1061
23609DOD     C314648  28.032  21.621  23.874 -0.4042  0.1193  0.2243
23610DOD     C114649   0.947  19.285   4.262  0.4656 -0.2101  0.0886
23610DOD     C214650   0.941  18.850   4.352 -0.2252  0.0469 -0.1717
23610DOD     C314651   1.223  18.525   4.515  0.0808  0.0689 -0.1464
23611DOD     C114652  12.513   5.750  20.890 -0.1496 -0.1573 -0.1427
23611DOD     C214653  12.718   5.392  20.696 -0.1141 -0.0950  0.0259
23611DOD     C314654  12.866   5.082  20.387  0.1913  0.1069 -0.0151
23612DOD     C114655  25.693   9.691  20.992  0.4049  0.3162  0.0235
23612DOD     C214656  25.366   9.356  20.858 -0.1536  0.1508  0.1325
23612DOD     C314657  25.099   8.940  20.961 -0.0710  0.1284  0.2186
23613DOD     C114658   1.731  10.528  17.818  0.0201  0.0208 -0.0701
23613DOD     C214659   1.530  10.558  17.394 -0.1228  0.0080 -0.4691
23613DOD     C314660   1.112  10.638  17.213 -0.1182 -0.2798 -0.1431
23614DOD     C114661   9.474   3.199   0.728  0.2032 -0.1473 -0.1214
23614DOD     C214662   9.145   3.263   0.368  0.1434  0.0947 -0.1800
23614DOD     C314663   9.103   3.536   0.051 -0.0693 -0.0168  0.0721
23615DOD     C114664   7.234  23.146   3.846  0.1799 -0.1979 -0.0746
23615DOD     C214665   6.878  23.410   3.729  0.1843  0.1242 -0.1219
23615DOD     C314666   6.664  23.744   3.472 -0.0645  0.2441 -0.2864
23616DOD     C114667   2.748  19.442  10.843 -0.0009 -0.0207 -0.1489
23616DOD     C214668   2.662  19.174  11.263  0.1026  0.0638 -0.0282
23616DOD     C314669   2.480  18.980  11.613 -0.1216  0.0957  0.0297
23617DOD     C114670  10.829  17.557  15.586  0.1320 -0.0795  0.2594
23617DOD     C214671  11.240  17.347  15.421 -0.1390  0.1480 -0.0151
23617DOD     C314672  11.357  17.028  15.185 -0.1189 -0.3715  0.0863
23618DOD     C114673   2.602  25.832  22.039 -0.0952 -0.1994  0.0432
23618DOD     C214674   2.765  25.959  21.630 -0.1652  0.1710 -0.0046
23618DOD     C314675   2.877  26.328  21.387  0.1109 -0.2925 -0.0729
23619DOD     C114676  28.622  25.954   7.636  0.1049  0.4104  0.2994
23619DOD     C214677  28.965  25.608   7.735  0.1828 -0.2073  0.1292
23619DOD     C314678  29.352  25.808   7.930  0.0230  0.2563  0.1626
23620DOD     C114679  25.509  20.727  24.967 -0.0230  0.0326 -0.3573
23620DOD     C214680  25.786  20.920  24.590  0.0969  0.1081 -0.1881
23620DOD     C314681  25.919  21.050  24.209  0.1566  0.0228  0.1807
23621DOD     C114682  18.364   6.030  19.394 -0.2159  0.0097 -0.1317
23621DOD     C214683  18.493   5.722  19.697 -0.2344  0.1081  0.2442
23621DOD     C314684  18.869   5.590  19.910 -0.1510 -0.1097  0.0161
23622DOD     C114685  23.069   0.647   2.145  0.2411  0.3340 -0.1196
23622DOD     C214686  22.842   1.071   2.175 -0.0442  0.0903  0.0117
23622DOD     C314687  22.676   1.455   2.328 -0.1841  0.1179 -0.1109
23623DOD     C114688   0.928  24.576  19.153 -0.0438 -0.2076  0.3299
23623DOD     C214689   1.272  24.873  19.335 -0.1613 -0.0740  0.1098
23623DOD     C314690   1.596  25.201  19.357 -0.2631  0.1582  0.0314
23624DOD     C114691  19.920   1.020  19.744 -0.1996  0.0629 -0.2030
23624DOD     C214692  20.042   0.568  19.817 -0.0772 -0.0299  0.1341
23624DOD     C314693  19.803   0.218  20.004  0.0166 -0.0037 -0.1164
23625DOD     C114694  18.156  27.570  10.994 -0.1290  0.3071 -0.0378
23625DOD     C214695  18.257  27.271  11.335  0.0252 -0.2728 -0.2346
23625DOD     C314696  18.317  27.415  11.765 -0.0132 -0.3858  0.0179
23626DOD     C114697  28.607   2.563   6.836 -0.1880  0.1969  0.0597
23626DOD     C214698  28.700   2.731   6.409 -0.1628  0.1092 -0.1670
23626DOD     C314699  28.804   3.186   6.219 -0.0481 -0.2131 -0.2872
23627DOD     C114700  28.023   4.099  27.493 -0.0003 -0.1310 -0.1770
23627DOD     C214701  28.057   4.548  27.378  0.2277  0.0729 -0.2218
23627DOD     C314702  28.158   4.818  27.033  0.1259 -0.1247  0.3092
23628DOD     C114703  29.571   4.165  15.718  0.2199 -0.1342  0.1016
23628DOD     C214704  29.423   3.750  15.754  0.1908 -0.1163  0.3197
23628DOD     C314705  29.682   3.432  15.987  0.0217  0.1686  0.1443
23629DOD     C114706   8.364  14.371   1.327 -0.2381  0.0074 -0.2456
23629DOD     C214707   8.297  13.915   1.380  0.1843 -0.0590 -0.1115
23629DOD     C314708   8.076  13.496   1.419 -0.0346 -0.2369  0.1396
23630DOD     C114709  12.548  22.579  17.474  0.1243  0.0376  0.2436
23630DOD     C214710  12.974  22.849  17.513  0.1102 -0.2916 -0.1405
23630DOD     C314711  13.304  23.143  17.656 -0.0447 -0.2971 -0.2354
23631DOD     C114712  12.806  25.798  23.840 -0.1805  0.0533 -0.0895
23631DOD     C214713  13.070  25.957  24.200 -0.0649  0.2756 -0.0565
23631DOD     C314714  13.390  26.103  24.545  0.1651 -0.1773  0.1805
23632DOD     C114715  13.247   0.468  23.320  0.4167 -0.1527  0.0616
23632DOD     C214716  13.044   0.752  23.047  0.0025  0.3380 -0.2166
23632DOD     C314717  12.807   0.670  22.719  0.1180 -0.0417  0.1198
23633DOD     C114718  25.115  26.772   8.969  0.0771  0.3524  0.2222
23633DOD     C214719  24.784  26.431   9.024  0.0427 -0.1058 -0.1672
23633DOD     C314720  24.411  26.132   9.200  0.2366 -0.3077 -0.1417
23634DOD     C114721  22.046   1.234   6.367 -0.1038 -0.2188  0.2130
23634DOD     C214722  22.390   1.093   6.691  0.2028  0.0332 -0.2265
23634DOD     C314723  22.709   0.805   6.844 -0.0558  0.0595  0.2243
23635DOD     C114724  11.453  17.624  25.274 -0.0930  0.0826 -0.3066
23635DOD     C214725  11.761  17.737  25.634  0.3268  0.0812 -0.0660
23635DOD     C314726  11.958  17.731  26.043  0.3195  0.3682 -0.0063
23636DOD     C114727  15.432  24.912  17.236 -0.0597 -0.2834  0.1734
23636DOD     C214728  15.274  25.359  17.247 -0.0598 -0.1342 -0.2444
23636DOD     C314729  15.023  25.495  17.550 -0.2375 -0.2164 -0.0937
23637DOD     C114730  23.372   9.945  12.962  0.0908  0.2111  0.3093
23637DOD     C214731  23.533  10.177  13.346  0.1861 -0.2665  0.5248
23637DOD     C314732  23.851  10.439  13.629  0.2205 -0.0815  0.1442
23638DOD     C114733  27.473   1.846   3.712 -0.2645 -0.1588  0.2972
23638DOD     C214734  27.591   1.782   4.147 -0.0346 -0.1044  0.0568
23638DOD     C314735  27.785   1.392   4.257  0.0202 -0.2624 -0.1670
23639DOD     C114736  13.801  13.956  24.820 -0.1865  0.0628  0.0321
23639DOD     C214737  13.848  13.558  24.641 -0.2535 -0.0317 -0.0189
23639DOD     C314738  13.836  13.406  24.233 -0.1113 -0.1676  0.0127
23640DOD     C114739  28.166  11.878  28.728 -0.0407 -0.0060 -0.0234
23640DOD     C214740  28.102  11.445  28.889  0.0875 -0.1821  0.1522
23640DOD     C314741  28.155  10.985  28.980 -0.3065  0.2285  0.0205
23641DOD     C114742  26.881  17.070  24.318  0.3950 -0.2312 -0.2496
23641DOD     C214743  26.803  16.984  23.879 -0.2311 -0.2144 -0.2652
23641DOD     C314744  26.597  16.804  23.456 -0.0075  0.1107  0.1202
23642DOD     C114745  12.460   7.912  21.992 -0.1760 -0.0142  0.0680
23642DOD     C214746  12.310   7.857  22.393  0.0391  0.2652  0.0102
23642DOD     C314747  11.929   7.966  22.649 -0.2207  0.2611  0.1152
23643DOD     C114748   6.174  12.326  23.057  0.0481  0.1419  0.2243
23643DOD     C214749   5.938  11.920  23.099  0.0733  0.2440  0.3057
23643DOD     C314750   5.626  11.725  23.385 -0.0752  0.1705 -0.2956
23644DOD     C114751  16.997  13.603  10.068 -0.0590  0.2569 -0.0888
23644DOD     C214752  17.452  13.712  10.137  0.1063 -0.1266  0.1589
23644DOD     C314753  17.866  13.976  10.223 -0.1102 -0.0654 -0.1929
23645DOD     C114754   7.310  24.535   7.185 -0.2719  0.1623 -0.0476
23645DOD     C214755   6.856  24.505   7.155 -0.0489 -0.0489  0.2659
23645DOD     C314756   6.429  24.534   7.252  0.2783  0.0185  0.0800
23646DOD     C114757  14.919  29.711  23.136 -0.1497  0.0609  0.0338
23646DOD     C214758  15.377  29.826  23.137 -0.0420  0.1558 -0.1469
23646DOD     C314759  15.752  29.683  23.364 -0.1052 -0.2112 -0.2908
23647DOD     C114760   6.537  25.536  13.816  0.1544 -0.1845  0.2366
23647DOD     C214761   6.851  25.825  13.614 -0.1946 -0.0607  0.0441
23647DOD     C314762   7.043  26.216  13.697 -0.1163 -0.1589 -0.1886
23648DOD     C114763  11.687  24.347   3.538  0.3039 -0.1167  0.1405
23648DOD     C214764  11.651  24.734   3.264  0.1739  0.0437 -0.1228
23648DOD     C314765  11.801  25.211   3.175 -0.1089  0.0279  0.0072
23649DOD     C114766  13.700   3.713   5.048 -0.2708 -0.2024 -0.2018
23649DOD     C214767  14.098   3.605   5.255  0.0541 -0.0997 -0.2513
23649DOD     C314768  14.141   3.740   5.622  0.1221 -0.2104  0.1538
23650DOD     C114769  17.592  28.102  22.852  0.0138 -0.1708 -0.0371
23650DOD     C214770  17.286  28.164  22.491 -0.1674 -0.1501 -0.2344
23650DOD     C314771  16.839  28.259  22.346 -0.1021  0.0792 -0.1444
23651DOD     C114772  29.271  11.134  19.376 -0.1440  0.4605 -0.1958
23651DOD     C214773  29.326  11.393  19.718 -0.1292  0.1795  0.1303
23651DOD     C314774  29.467  11.649  20.103  0.3226  0.0591 -0.0197
23652DOD     C114775   7.215  15.996  26.284  0.1511  0.1023  0.0010
23652DOD     C214776   7.266  15.537  26.165 -0.1979 -0.4765 -0.0439
23652DOD     C314777   7.374  15.087  26.207 -0.0887  0.2299  0.4117
23653DOD     C114778  20.619  25.129  28.250 -0.1390  0.1981  0.1715
23653DOD     C214779  20.729  24.733  28.268  0.4408 -0.1325 -0.0048
23653DOD     C314780  20.708  24.269  28.209 -0.0151  0.1358  0.1752
23654DOD     C114781  16.592  28.939  21.354  0.1485  0.0654  0.1219
23654DOD     C214782  16.782  29.327  21.122  0.0071  0.0662 -0.0431
23654DOD     C314783  17.138  29.538  20.887  0.0519 -0.0023 -0.3294
23655DOD     C114784  26.831   7.606   0.745 -0.1236 -0.1599  0.0269
23655DOD     C214785  26.443   7.671   0.958 -0.1256 -0.0132  0.0964
23655DOD     C314786  26.084   8.020   0.977 -0.1127  0.0431 -0.1090
23656DOD     C114787   2.165   3.937  24.052  0.1952 -0.2327 -0.0272
23656DOD     C214788   2.016   4.284  24.303  0.1788  0.0225 -0.0696
23656DOD     C314789   1.913   4.211  24.772 -0.1386  0.2789  0.0145
23657DOD     C114790  20.618   2.233  17.624 -0.2084 -0.1330  0.1694
23657DOD     C214791  20.939   2.567  17.807 -0.1903 -0.2499 -0.1010
23657DOD     C314792  21.092   3.043  17.800 -0.4721 -0.0381  0.5059
23658DOD     C114793  27.216   4.586  12.715 -0.0879 -0.0061  0.1556
23658DOD     C214794  27.469   4.594  12.342 -0.2426  0.1518  0.1923
23658DOD     C314795  27.828   4.397  12.066  0.0445  0.0531 -0.0816
23659DOD     C114796  29.580   6.916  16.455 -0.0479  0.1089 -0.2002
23659DOD     C214797  29.872   6.631  16.189  0.0274 -0.4098 -0.1864
23659DOD     C314798  30.142   6.328  15.997 -0.1144 -0.1565 -0.2921
23660DOD     C114799  14.678  25.810  26.029 -0.2596 -0.0385  0.1939
23660DOD     C214800  15.010  25.737  25.699 -0.1212  0.0255 -0.0205
23660DOD     C314801  15.368  25.610  25.433 -0.1488 -0.4102  0.1585
23661DOD     C114802   3.970   8.123  12.702  0.1558  0.1950 -0.2043
23661DOD     C214803   3.850   8.309  12.323  0.3047 -0.0361  0.0025
23661DOD     C314804   3.622   8.093  11.953 -0.1015 -0.0729 -0.0077
23662DOD     C114805   7.068   3.872   7.025 -0.3207  0.1581 -0.1075
23662DOD     C214806   6.968   3.509   7.214 -0.2624  0.2351 -0.0934
23662DOD     C314807   6.919   3.091   7.318 -0.1957  0.1695 -0.0397
23663DOD     C114808   8.866  10.995  18.898  0.0694 -0.1108 -0.2583
23663DOD     C214809   8.883  10.740  18.527 -0.4079 -0.2184 -0.0031
23663DOD     C314810   8.785  10.304  18.490  0.0735  0.2016 -0.1544
23664DOD     C114811  17.902  17.529   0.621 -0.1797 -0.2276 -0.0606
23664DOD     C214812  17.994  17.050   0.715  0.2045  0.1570  0.0977
23664DOD     C314813  17.936  16.740   1.079  0.2528 -0.0574 -0.1801
23665DOD     C114814   8.146   5.729   3.951 -0.0447 -0.4195  0.1281
23665DOD     C214815   8.212   5.878   4.425  0.1798 -0.1717 -0.3165
23665DOD     C314816   8.291   5.733   4.841 -0.0048 -0.0912  0.0359
23666DOD     C114817  22.251  22.771  19.875 -0.0272  0.1833 -0.0790
23666DOD     C214818  21.884  22.813  19.649 -0.1077  0.2122 -0.0867
23666DOD     C314819  21.415  22.795  19.773 -0.0661 -0.1008 -0.0239
23667DOD     C114820  24.037  15.683  14.273  0.1954  0.0799  0.6032
23667DOD     C214821  24.275  15.339  14.081  0.4611 -0.0440  0.2193
23667DOD     C314822  24.242  14.866  14.248 -0.1047 -0.0009 -0.1287
23668DOD     C114823  17.004  13.423  14.726  0.0017  0.2564 -0.0865
23668DOD     C214824  16.775  13.798  14.588  0.0029  0.0985 -0.0466
23668DOD     C314825  16.518  14.022  14.204 -0.1988 -0.0913  0.0417
23669DOD     C114826  26.777   0.029  20.544  0.1150 -0.1500 -0.0510
23669DOD     C214827  26.438  30.042  20.573 -0.1434  0.0628  0.1744
23669DOD     C314828  26.187  29.704  20.413  0.1939 -0.0635  0.0445
23670DOD     C114829   1.084  28.914  19.734 -0.0622  0.1001 -0.0807
23670DOD     C214830   0.783  28.654  19.938  0.0322 -0.3814  0.0534
23670DOD     C314831   0.477  28.340  20.191 -0.0922 -0.3770 -0.0579
23671DOD     C114832   5.064  24.648   4.946 -0.0660 -0.0981  0.3016
23671DOD     C214833   5.228  24.720   4.471  0.4659  0.2740  0.0883
23671DOD     C314834   4.944  24.595   4.034 -0.1134  0.0388 -0.1258
23672DOD     C114835   8.540  22.688  29.148  0.2122 -0.1411  0.0688
23672DOD     C214836   8.128  22.875  29.033  0.1395 -0.0373 -0.0500
23672DOD     C314837   7.802  23.074  28.758  0.3086  0.1751  0.0604
23673DOD     C114838   4.575  26.673  12.329 -0.1470 -0.3186  0.0148
23673DOD     C214839   4.988  26.756  12.394  0.0523 -0.0197 -0.0929
23673DOD     C314840   5.312  27.043  12.566 -0.2773  0.2020 -0.1736
23674DOD     C114841  20.819  13.873  20.875 -0.1591  0.1023  0.1532
23674DOD     C214842  20.346  13.644  20.894 -0.0130 -0.3049 -0.0061
23674DOD     C314843  20.286  13.222  21.108 -0.2506  0.1131 -0.3226
23675DOD     C114844   1.424  18.116  19.543 -0.2642  0.2922  0.0377
23675DOD     C214845   1.867  18.205  19.379  0.3199  0.0102  0.0573
23675DOD     C314846   2.018  18.033  18.973  0.1219 -0.1723  0.1185
23676DOD     C114847  16.758  30.196  27.312  0.1428 -0.0602  0.1968
23676DOD     C214848  16.928  29.824  27.082  0.0154  0.5936 -0.2694
23676DOD     C314849  17.246  29.454  27.166  0.2500 -0.0559 -0.3821
23677DOD     C114850  11.511  24.112  26.349 -0.2831 -0.2351  0.5313
23677DOD     C214851  11.503  24.381  26.790 -0.3141  0.2140  0.2306
23677DOD     C314852  11.585  24.458  27.242  0.0663 -0.0723  0.3394
23678DOD     C114853  22.584  10.793   9.645  0.1612  0.4125  0.1853
23678DOD     C214854  23.013  11.025   9.582 -0.0680  0.1117 -0.0822
23678DOD     C314855  23.362  11.222   9.797 -0.1059  0.0029 -0.3310
23679DOD     C114856  11.310   0.196  24.222  0.0719  0.2847  0.0223
23679DOD     C214857  11.408   0.494  24.584 -0.0721 -0.0168 -0.0998
23679DOD     C314858  11.764   0.714  24.719  0.1413 -0.0025  0.2617
23680DOD     C114859  18.908  25.420  29.407 -0.0225 -0.2489  0.2517
23680DOD     C214860  19.100  25.812  29.384  0.0241 -0.3320 -0.1670
23680DOD     C314861  19.446  26.120  29.569  0.1302  0.2669 -0.2645
23681DOD     C114862   8.709   7.888  27.535  0.2357 -0.0504  0.4576
23681DOD     C214863   8.936   8.278  27.626 -0.0549 -0.2061 -0.1948
23681DOD     C314864   8.976   8.736  27.676  0.2168  0.1583 -0.3517
23682DOD     C114865   0.229  27.150  27.493 -0.1102 -0.2643 -0.0279
23682DOD     C214866   0.191  26.794  27.718  0.0041 -0.0655 -0.1570
23682DOD     C314867  30.269  26.436  27.861 -0.1127  0.0299 -0.2009
23683DOD     C114868  23.686  15.423  16.119 -0.0470  0.1194 -0.0436
23683DOD     C214869  23.305  15.473  16.368  0.1665  0.1071 -0.0135
23683DOD     C314870  23.117  15.856  16.586 -0.1142  0.0445 -0.0235
23684DOD     C114871  26.437  15.569   5.348  0.1123  0.1543 -0.1964
23684DOD     C214872  26.863  15.431   5.294  0.1619  0.1989 -0.2321
23684DOD     C314873  27.174  15.130   5.278 -0.1949  0.1803  0.2521
23685DOD     C114874  21.203   1.636   3.374  0.0582 -0.3478 -0.0891
23685DOD     C214875  21.004   1.238   3.144 -0.0838 -0.1167  0.1973
23685DOD     C314876  21.009   0.941   2.775 -0.0643  0.2497  0.1647
23686DOD     C114877  17.061   9.690   6.343 -0.1958 -0.1158  0.1859
23686DOD     C214878  16.651   9.614   6.249  0.0696  0.1107 -0.1378
23686DOD     C314879  16.178   9.859   6.229 -0.2908  0.1628 -0.1781
23687DOD     C114880  20.163  22.696   2.330  0.0916 -0.3441 -0.4995
23687DOD     C214881  19.858  22.720   2.660 -0.3010 -0.1199 -0.0515
23687DOD     C314882  19.898  22.998   3.050  0.1790  0.3495 -0.0038
23688DOD     C114883   4.122  19.046  12.426 -0.2400  0.0950 -0.1353
23688DOD     C214884   4.197  19.078  12.884 -0.1517 -0.2878  0.1606
23688DOD     C314885   4.296  18.886  13.330  0.2201 -0.2036 -0.0494
23689DOD     C114886  23.636   0.059  17.113 -0.3164 -0.0503  0.2056
23689DOD     C214887  23.828   0.421  16.917  0.0800  0.0149 -0.0215
23689DOD     C314888  24.060   0.431  16.521 -0.0449  0.2013  0.1029
23690DOD     C114889  10.369   4.903  22.112  0.0030  0.0103 -0.0751
23690DOD     C214890  10.295   5.124  21.717  0.0613 -0.2276  0.0974
23690DOD     C314891  10.255   5.590  21.720 -0.0149  0.1331 -0.1293
23691DOD     C114892  10.597   4.285  19.770  0.0792  0.3125 -0.2359
23691DOD     C214893  10.993   4.542  19.767 -0.1935  0.0042 -0.0996
23691DOD     C314894  11.392   4.587  19.489 -0.0055 -0.1334 -0.1690
23692DOD     C114895  12.781  14.333  21.302  0.0449 -0.1036 -0.2670
23692DOD     C214896  13.004  14.022  21.011 -0.1425  0.0030  0.0552
23692DOD     C314897  13.346  13.991  20.716 -0.0361 -0.0312  0.1269
23693DOD     C114898  29.354  28.357   5.451  0.3648 -0.0168 -0.3047
23693DOD     C214899  29.405  28.798   5.714 -0.0504 -0.0216  0.0361
23693DOD     C314900  29.409  29.259   5.758  0.1050 -0.0887  0.1218
23694DOD     C114901  25.758  18.274   4.338 -0.2889 -0.2277 -0.0874
23694DOD     C214902  25.743  18.338   3.847 -0.1513  0.1177  0.0766
23694DOD     C314903  25.839  18.511   3.419 -0.0832 -0.1487 -0.2618
23695DOD     C114904   1.263  19.406  28.995  0.0533 -0.2141 -0.2287
23695DOD     C214905   1.629  19.504  28.844  0.1597 -0.0374  0.2315
23695DOD     C314906   2.085  19.474  28.857  0.0934  0.0504 -0.0515
23696DOD     C114907  26.766  17.142  23.037 -0.0894 -0.2330  0.2710
23696DOD     C214908  26.677  17.282  23.518 -0.2172 -0.1354  0.0075
23696DOD     C314909  26.522  17.449  23.929  0.1191  0.2975  0.2794
23697DOD     C114910  13.060  11.324  18.686  0.1344 -0.2007 -0.1573
23697DOD     C214911  12.706  11.091  18.493  0.2204  0.0020  0.0102
23697DOD     C314912  12.380  10.857  18.227 -0.1513  0.2342  0.1794
23698DOD     C114913  11.804  23.178  18.287 -0.0646 -0.0186 -0.2747
23698DOD     C214914  11.874  22.926  18.675 -0.1065  0.2382  0.3384
23698DOD     C314915  11.602  22.611  18.844 -0.0451  0.0971  0.0366
23699DOD     C114916   4.707  18.597   9.906 -0.1626 -0.5122  0.0593
23699DOD     C214917   4.585  18.151   9.995  0.0855 -0.2514  0.3205
23699DOD     C314918   4.380  17.782  10.116 -0.1582 -0.0604  0.3183
23700DOD     C114919   3.556   5.014  29.806  0.4470 -0.0177 -0.0588
23700DOD     C214920   3.702   5.278  30.175  0.2196 -0.0425  0.0699
23700DOD     C314921   3.714   5.472   0.305  0.0084 -0.2051 -0.2399
23701DOD     C114922  16.143   1.837   1.931  0.1567 -0.1092 -0.1086
23701DOD     C214923  15.764   1.972   2.111 -0.0652 -0.0829  0.0634
23701DOD     C314924  15.330   1.923   2.035 -0.2693 -0.1355 -0.1416
23702DOD     C114925  15.376  27.080  17.312  0.0262 -0.1292 -0.0593
23702DOD     C214926  15.407  26.852  17.706  0.3246 -0.2004 -0.0536
23702DOD     C314927  15.120  26.750  18.089  0.0616  0.0218  0.0639
23703DOD     C114928  17.626  16.045   4.335  0.1608 -0.0619  0.0581
23703DOD     C214929  17.930  16.046   3.991 -0.0305 -0.2364 -0.4974
23703DOD     C314930  18.410  16.002   3.897 -0.1095  0.1053  0.0419
23704DOD     C114931  24.784   9.265  25.655  0.1863 -0.1013  0.2387
23704DOD     C214932  25.154   9.465  25.416  0.0600 -0.2543  0.0231
23704DOD     C314933  25.623   9.595  25.427  0.0567 -0.1101 -0.3601
23705DOD     C114934  23.459  19.646   3.295  0.1565 -0.0176 -0.1117
23705DOD     C214935  23.484  19.450   2.834  0.1716 -0.0262 -0.5668
23705DOD     C314936  23.237  19.211   2.545 -0.0257 -0.2097  0.0253
23706DOD     C114937   0.028  27.153  22.219 -0.2172  0.3520 -0.1086
23706DOD     C214938  30.169  26.721  22.159 -0.1298 -0.2516 -0.1825
23706DOD     C314939  30.050  26.293  22.144  0.2844 -0.2797  0.1396
23707DOD     C114940  21.244  15.613  29.475  0.3968  0.1312 -0.1983
23707DOD     C214941  21.575  15.866  29.276 -0.0571 -0.1345  0.3530
23707DOD     C314942  21.613  15.998  28.831  0.3962 -0.2561  0.0210
23708DOD     C114943   0.366  11.422  27.722  0.0213 -0.0060  0.0985
23708DOD     C214944   0.739  11.227  27.573  0.1638 -0.0152 -0.0157
23708DOD     C314945   1.118  11.313  27.303  0.5298  0.0971 -0.1446
23709DOD     C114946  16.020  13.073  19.997 -0.0674 -0.1333 -0.1201
23709DOD     C214947  16.026  12.725  20.282  0.1998 -0.3222  0.1679
23709DOD     C314948  16.022  12.444  20.641  0.0122 -0.1131  0.0509
23710DOD     C114949  20.211   8.492  26.969 -0.1992 -0.2548 -0.1325
23710DOD     C214950  20.299   8.353  27.387 -0.1368  0.1042  0.1704
23710DOD     C314951  20.086   7.948  27.597  0.3551 -0.1642  0.0450
23711DOD     C114952  20.155  24.778   8.852 -0.0269  0.1649  0.1865
23711DOD     C214953  19.796  25.039   8.610  0.2070  0.2303 -0.0597
23711DOD     C314954  19.529  25.404   8.521 -0.1642 -0.1818  0.1946
23712DOD     C114955   9.300  26.898  13.718  0.1215  0.1841 -0.2820
23712DOD     C214956   9.704  27.038  13.917 -0.0542  0.1358  0.0653
23712DOD     C314957   9.770  27.356  14.187 -0.2107  0.0473 -0.0260
23713DOD     C114958  14.590  10.036  30.232  0.0469  0.0210  0.4264
23713DOD     C214959  14.622  10.473  30.116 -0.2980 -0.3940  0.0290
23713DOD     C314960  14.405  10.871  30.114 -0.0350 -0.3350 -0.2727
23714DOD     C114961  26.793  20.291   6.575  0.1881  0.1201  0.1510
23714DOD     C214962  27.010  20.449   6.272 -0.2831 -0.1497  0.2579
23714DOD     C314963  27.024  20.757   5.905 -0.0202 -0.1448 -0.0280
23715DOD     C114964  12.945   3.695  16.539 -0.1347 -0.1957  0.2101
23715DOD     C214965  13.391   3.719  16.369  0.1350  0.1427 -0.0696
23715DOD     C314966  13.719   3.497  16.090  0.0966  0.0659  0.4334
23716DOD     C114967  16.779  29.333  16.633 -0.0907 -0.1325 -0.0981
23716DOD     C214968  16.694  29.034  16.269 -0.1394 -0.2020  0.0200
23716DOD     C314969  16.658  28.786  15.871  0.0497  0.2539  0.0239
23717DOD     C114970  25.224  23.540  13.863 -0.0115 -0.0592  0.0100
23717DOD     C214971  24.864  23.503  13.566  0.2880  0.1289  0.1293
23717DOD     C314972  24.722  23.657  13.220 -0.2453  0.3925  0.5111
23718DOD     C114973  23.176  13.408  23.700  0.0491  0.0605 -0.2765
23718DOD     C214974  23.072  13.759  23.401 -0.2278  0.0040 -0.1640
23718DOD     C314975  23.245  14.002  23.049  0.0654 -0.0859  0.1107
23719DOD     C114976   7.604  18.641  16.555  0.0106 -0.2642 -0.0652
23719DOD     C214977   7.508  19.064  16.406  0.4062 -0.0704  0.0495
23719DOD     C314978   7.216  19.446  16.476  0.1470  0.0466 -0.0885
23720DOD     C114979   7.923  11.593   9.583 -0.0026 -0.1683 -0.2752
23720DOD     C214980   8.055  11.777   9.237 -0.4014 -0.2645 -0.1941
23720DOD     C314981   8.319  11.927   8.853  0.1869  0.0964 -0.0013
23721DOD     C114982  14.976  12.691   9.630  0.0467  0.0532 -0.0782
23721DOD     C214983  15.265  12.353   9.722 -0.2020  0.2589  0.1534
23721DOD     C314984  15.599  12.086   9.791 -0.3869  0.2492  0.1608
23722DOD     C114985   2.233   9.479  11.365 -0.1553  0.1873 -0.2617
23722DOD     C214986   2.682   9.659  11.536 -0.1163 -0.1739 -0.0275
23722DOD     C314987   3.031   9.647  11.841  0.0109  0.3361 -0.0775
23723DOD     C114988   5.118  17.884   0.229  0.2278  0.0732 -0.0531
23723DOD     C214989   5.332  18.109  30.193 -0.1706  0.1101  0.0261
23723DOD     C314990   5.158  18.545  30.063  0.0125  0.0328 -0.0068
23724DOD     C114991   2.620  21.764  11.216  0.0432 -0.0478 -0.2981
23724DOD     C214992   2.688  21.446  11.606 -0.0814 -0.1621  0.1942
23724DOD     C314993   2.562  21.498  12.102  0.1761  0.0583 -0.0941
23725DOD     C114994   1.098  28.243  11.996 -0.1700  0.1132 -0.2230
23725DOD     C214995   1.362  28.572  11.779 -0.1992 -0.0346  0.0490
23725DOD     C314996   1.421  29.004  11.791 -0.2572  0.1935 -0.2219
23726DOD     C114997  18.649   1.705  22.957  0.1224 -0.0845  0.0037
23726DOD     C214998  18.649   2.039  22.672 -0.4420 -0.0370  0.0500
23726DOD     C314999  18.873   2.288  22.339  0.2955  0.1546  0.0535
23727DOD     C115000  10.771   3.601  21.907 -0.0156  0.0121  0.0786
23727DOD     C215001  11.042   3.313  22.199  0.2002 -0.0307 -0.0156
23727DOD     C315002  11.285   2.885  22.156 -0.0445  0.1907 -0.1161
23728DOD     C115003  29.063  28.190   7.178 -0.1986 -0.4340  0.0068
23728DOD     C215004  29.046  28.332   6.716  0.0296 -0.1344  0.3499
23728DOD     C315005  28.957  28.503   6.261 -0.0544  0.3419  0.1198
23729DOD     C115006  11.284  26.088  29.909 -0.0592  0.2404  0.0785
23729DOD     C215007  11.158  26.529  29.796 -0.0647 -0.0947  0.0942
23729DOD     C315008  11.321  27.026  29.717  0.2948 -0.1574 -0.0973
23730DOD     C115009  24.734  23.523  22.148  0.0300  0.2333  0.0026
23730DOD     C215010  24.392  23.190  22.255 -0.3991 -0.3037  0.2272
23730DOD     C315011  23.992  22.989  22.016  0.0016 -0.3646  0.0390
23731DOD     C115012  23.835  22.913  16.895 -0.2519 -0.1554  0.1154
23731DOD     C215013  24.036  23.133  16.548 -0.3542  0.0031  0.3353
23731DOD     C315014  23.914  23.417  16.179 -0.0643  0.0681  0.2489
23732DOD     C115015  14.445   3.161  18.569 -0.1072 -0.1289  0.0892
23732DOD     C215016  14.887   3.230  18.750  0.2833  0.2539 -0.3076
23732DOD     C315017  15.210   2.928  18.969  0.1359  0.1834 -0.0699
23733DOD     C115018  15.991  29.969  27.058 -0.1637 -0.2181  0.0945
23733DOD     C215019  16.332  30.224  27.072  0.1191 -0.1014 -0.0558
23733DOD     C315020  16.555   0.236  26.944  0.1750  0.1415 -0.1546
23734DOD     C115021  10.585   6.310  13.008 -0.0106 -0.0974  0.0749
23734DOD     C215022  10.755   6.452  13.429 -0.3396 -0.0662  0.1062
23734DOD     C315023  10.889   6.759  13.762  0.3422  0.0020  0.1372
23735DOD     C115024  23.938   9.059   5.834 -0.1345 -0.3889  0.0471
23735DOD     C215025  24.090   8.737   6.211 -0.3558 -0.0410 -0.0713
23735DOD     C315026  24.234   8.639   6.622  0.0478 -0.0074 -0.1604
23736DOD     C115027   6.897  19.944  15.074 -0.2019 -0.2030  0.0803
23736DOD     C215028   7.318  19.821  14.945  0.0529 -0.1078  0.0553
23736DOD     C315029   7.579  19.496  15.099 -0.1380  0.1624  0.1022
23737DOD     C115030  12.234  23.944  18.615  0.0359 -0.0404 -0.0628
23737DOD     C215031  11.906  23.605  18.802  0.0567 -0.0886  0.0602
23737DOD     C315032  11.713  23.296  19.073 -0.1398  0.1905  0.0141
23738DOD     C115033   1.913  23.459   7.278  0.0134  0.1731  0.2065
23738DOD     C215034   1.557  23.747   7.517 -0.4269 -0.2180 -0.1025
23738DOD     C315035   1.307  23.885   7.914 -0.0216 -0.0056  0.1007
23739DOD     C115036  28.505  20.151   0.730 -0.2572  0.3269 -0.1727
23739DOD     C215037  28.675  19.946   0.292 -0.1517  0.0827  0.1150
23739DOD     C315038  28.694  19.560   0.060 -0.1316  0.1277  0.1680
23740DOD     C115039   0.483  15.448  15.369 -0.2518 -0.0772  0.0205
23740DOD     C215040   0.586  15.899  15.308  0.0158 -0.1148 -0.0393
23740DOD     C315041   0.770  16.329  15.219 -0.0266  0.0882 -0.0461
23741DOD     C115042  21.651  13.269   6.047  0.0764 -0.0363 -0.2634
23741DOD     C215043  21.624  12.974   6.380 -0.0806 -0.0657  0.1993
23741DOD     C315044  21.618  12.485   6.542  0.1510 -0.3633 -0.2889
23742DOD     C115045  14.402   6.780  28.315  0.0829 -0.1024 -0.3896
23742DOD     C215046  14.391   6.330  28.437 -0.1583  0.0015  0.1134
23742DOD     C315047  14.558   5.890  28.306  0.0140 -0.2609  0.0204
23743DOD     C115048   8.039  13.245  15.112  0.0205 -0.1006 -0.1959
23743DOD     C215049   7.638  13.093  15.156  0.1991  0.0754 -0.0304
23743DOD     C315050   7.199  12.996  14.918  0.1455  0.0060  0.0708
23744DOD     C115051   3.012   9.192  30.185 -0.0222  0.0333 -0.2928
23744DOD     C215052   3.250   8.893   0.166  0.0706  0.0009 -0.1840
23744DOD     C315053   3.598   8.679   0.438  0.1019  0.1800  0.2193
23745DOD     C115054  18.357   1.427  21.041 -0.0781  0.1626  0.1125
23745DOD     C215055  17.908   1.514  21.115 -0.0670  0.0367 -0.1075
23745DOD     C315056  17.439   1.364  21.058  0.0930  0.0362 -0.0407
23746DOD     C115057  17.554  21.086  20.877  0.0297  0.0238  0.1080
23746DOD     C215058  17.249  21.070  20.573 -0.0049  0.0185  0.3562
23746DOD     C315059  16.785  21.190  20.433 -0.0820  0.3465 -0.0508
23747DOD     C115060   7.667  27.272   9.549 -0.0954  0.0229 -0.1190
23747DOD     C215061   7.221  27.359   9.576 -0.1667 -0.0465 -0.3263
23747DOD     C315062   6.807  27.557   9.526 -0.2578  0.2645  0.0801
23748DOD     C115063   9.650  10.456   1.884 -0.2091  0.2650 -0.0082
23748DOD     C215064   9.601  10.588   2.295  0.0306  0.2340  0.1024
23748DOD     C315065   9.693  10.809   2.695 -0.0128 -0.1604 -0.1456
23749DOD     C115066   4.424  29.150  28.479 -0.1770  0.0151  0.2173
23749DOD     C215067   4.831  29.367  28.437  0.0823  0.1444  0.1993
23749DOD     C315068   5.266  29.213  28.499 -0.3295  0.0935  0.1270
23750DOD     C115069   8.456  13.140  20.185  0.3337 -0.3553 -0.1663
23750DOD     C215070   8.344  13.329  20.625  0.2109  0.2691 -0.0032
23750DOD     C315071   8.518  13.617  20.993  0.1129 -0.1372 -0.1677
23751DOD     C115072   4.596   9.806  18.835  0.1459  0.4623 -0.1885
23751DOD     C215073   4.911   9.447  18.739 -0.3089 -0.3502  0.0283
23751DOD     C315074   5.160   9.142  18.954  0.1072 -0.1179  0.0817
23752DOD     C115075  26.941  21.412  21.989 -0.1082 -0.1148  0.4649
23752DOD     C215076  27.170  21.046  22.114 -0.2080  0.2534  0.3489
23752DOD     C315077  26.963  20.785  22.479 -0.0059 -0.1734 -0.0618
23753DOD     C115078   0.819  24.696  29.829  0.2554 -0.1518 -0.2047
23753DOD     C215079   0.936  24.882  29.398  0.0705 -0.2149  0.2072
23753DOD     C315080   0.691  25.078  29.064 -0.2396  0.0474  0.2181
23754DOD     C115081  28.821  11.043   0.721 -0.1888  0.2642 -0.1843
23754DOD     C215082  28.482  11.112   1.064  0.0675  0.0445 -0.0980
23754DOD     C315083  28.222  11.507   1.114  0.0397  0.3473 -0.0560
23755DOD     C115084  10.070   4.075  16.141 -0.2240 -0.0018  0.3430
23755DOD     C215085  10.394   4.160  16.455 -0.0698 -0.5023 -0.0164
23755DOD     C315086  10.712   4.059  16.843 -0.0547  0.1159  0.3038
23756DOD     C115087  25.676  23.867   5.894  0.1130 -0.2633  0.1020
23756DOD     C215088  25.435  24.296   5.945  0.1229 -0.0184  0.0658
23756DOD     C315089  25.297  24.440   6.343  0.2010  0.0212  0.0780
23757DOD     C115090   0.049  28.291  12.167 -0.0102  0.2373  0.1239
23757DOD     C215091   0.508  28.219  12.022 -0.1226 -0.0559 -0.0180
23757DOD     C315092   0.756  28.035  11.693 -0.2393 -0.2283  0.2278
23758DOD     C115093   1.828  27.939  16.111  0.0280 -0.1465  0.4553
23758DOD     C215094   1.511  27.943  16.426  0.3235  0.1424  0.1780
23758DOD     C315095   1.034  27.876  16.483 -0.0627 -0.0064 -0.0374
23759DOD     C115096  24.869  23.327  19.480 -0.2797 -0.0564 -0.1382
23759DOD     C215097  24.622  23.188  19.780 -0.1614  0.1885 -0.1474
23759DOD     C315098  24.652  23.007  20.200 -0.2959  0.3802 -0.2002
23760DOD     C115099  28.552  23.687  24.143 -0.1307 -0.0765  0.1393
23760DOD     C215100  28.570  23.851  24.593 -0.4746 -0.1834  0.0516
23760DOD     C315101  28.755  23.734  24.974 -0.0912  0.2333  0.1254
23761DOD     C115102  20.571  22.358   6.271 -0.3992  0.1063 -0.0281
23761DOD     C215103  20.413  21.933   6.008  0.1261  0.1115 -0.0643
23761DOD     C315104  20.129  21.710   5.706  0.0397  0.0693 -0.1302
23762DOD     C115105  27.937  11.980  30.317 -0.0190 -0.1681  0.0360
23762DOD     C215106  27.823  11.626  29.978 -0.1585  0.2726 -0.0401
23762DOD     C315107  27.875  11.158  29.929  0.1291  0.3770 -0.3401
23763DOD     C115108  18.021   0.213  16.404 -0.1031  0.0884  0.0421
23763DOD     C215109  18.003   0.642  16.227  0.0878 -0.0511 -0.2448
23763DOD     C315110  18.073   1.098  16.008 -0.1027  0.0164 -0.1046
23764DOD     C115111  12.732   7.235   0.741 -0.2363 -0.0453 -0.2252
23764DOD     C215112  13.119   7.210   1.045 -0.0173  0.0288 -0.4212
23764DOD     C315113  13.494   7.395   1.314 -0.1273 -0.2386  0.2243
23765DOD     C115114  29.524  12.707  13.356  0.1239 -0.2156 -0.1009
23765DOD     C215115  29.316  13.096  13.574 -0.0734  0.0509 -0.1253
23765DOD     C315116  29.432  13.271  13.991  0.0938  0.1446  0.1997
23766DOD     C115117   7.094  20.719   1.145 -0.1415 -0.0480 -0.0339
23766DOD     C215118   6.878  20.317   1.261  0.0417  0.1778  0.2636
23766DOD     C315119   6.823  19.929   1.568  0.2471  0.1276 -0.2454
23767DOD     C115120  28.488   4.395  15.995 -0.1200 -0.1925 -0.0745
23767DOD     C215121  28.593   4.816  16.080 -0.0577  0.0387 -0.1801
23767DOD     C315122  28.281   5.164  16.091 -0.1483  0.2119  0.0444
23768DOD     C115123   8.552  17.069  10.489  0.0878 -0.0957  0.1135
23768DOD     C215124   8.418  17.116  10.015  0.2235  0.2608  0.5449
23768DOD     C315125   8.259  17.557   9.923 -0.1008 -0.4174 -0.1858
23769DOD     C115126   5.020  29.480  19.234 -0.1090  0.0523  0.0566
23769DOD     C215127   4.796  29.450  19.632 -0.0287  0.1076  0.0402
23769DOD     C315128   4.772  29.390  20.120  0.3558 -0.1812 -0.1010
23770DOD     C115129  11.600   6.614  26.249 -0.0227 -0.0217  0.1037
23770DOD     C215130  11.266   6.719  25.923  0.1308  0.0006  0.2379
23770DOD     C315131  10.854   6.480  25.814  0.2068 -0.1066 -0.1258
23771DOD     C115132  27.417  24.796  17.604 -0.0670  0.0872  0.1753
23771DOD     C215133  27.600  24.698  17.167 -0.2336 -0.0545 -0.1198
23771DOD     C315134  27.840  24.971  16.891  0.1909  0.2547  0.0873
23772DOD     C115135   8.215  11.793  16.238 -0.3925 -0.2949  0.0510
23772DOD     C215136   7.842  11.545  16.188  0.0723  0.1234  0.3414
23772DOD     C315137   7.399  11.664  16.265 -0.1585 -0.2351 -0.2498
23773DOD     C115138   2.419   5.607  12.814 -0.2601 -0.0402  0.1806
23773DOD     C215139   2.649   5.306  12.511 -0.1775  0.2972 -0.0384
23773DOD     C315140   2.788   5.063  12.129 -0.1005  0.0775 -0.2429
23774DOD     C115141   7.541  12.560  18.235  0.2736 -0.1793  0.0189
23774DOD     C215142   7.334  12.974  18.350  0.1030  0.0710 -0.1117
23774DOD     C315143   7.227  13.422  18.471  0.0960 -0.0443  0.0119
23775DOD     C115144   9.924   4.571  12.736 -0.0513 -0.2081 -0.2415
23775DOD     C215145  10.112   4.237  12.552  0.0915  0.0778  0.0184
23775DOD     C315146  10.159   3.894  12.887 -0.1338 -0.2293 -0.1829
23776DOD     C115147   8.765  21.812   0.012  0.1403 -0.1419  0.0991
23776DOD     C215148   9.144  22.094   0.004 -0.2640 -0.0069  0.0269
23776DOD     C315149   9.345  22.500   0.186  0.1020  0.1586 -0.2263
23777DOD     C115150  21.925  11.205  12.823 -0.1676  0.0589 -0.1724
23777DOD     C215151  21.938  11.101  13.300 -0.0198 -0.0228  0.3250
23777DOD     C315152  21.774  11.126  13.699  0.2536  0.0823  0.0298
23778DOD     C115153  12.062  10.127  23.489 -0.2625 -0.1266 -0.0680
23778DOD     C215154  12.173   9.796  23.164  0.1621 -0.0434  0.1852
23778DOD     C315155  12.070   9.593  22.770 -0.1100 -0.1537  0.2063
23779DOD     C115156  19.925  16.463  14.252 -0.0385 -0.0939 -0.1675
23779DOD     C215157  20.244  16.569  14.574 -0.0718 -0.2288 -0.1316
23779DOD     C315158  20.373  16.470  15.019  0.2351  0.1399  0.0103
23780DOD     C115159  13.579   7.161   1.877 -0.1831  0.1160 -0.3621
23780DOD     C215160  13.885   7.515   1.860 -0.1246 -0.0230 -0.0432
23780DOD     C315161  14.250   7.764   1.882 -0.1856 -0.3036  0.0601
23781DOD     C115162  14.353   2.101   5.416  0.1075 -0.2887  0.0231
23781DOD     C215163  13.874   2.093   5.529 -0.1263  0.1406 -0.3494
23781DOD     C315164  13.532   2.031   5.848 -0.0422  0.1216  0.1829
23782DOD     C115165  14.294  11.853   3.928 -0.0904  0.3122 -0.2441
23782DOD     C215166  14.177  11.455   3.744  0.0431  0.3864 -0.0730
23782DOD     C315167  13.959  11.064   3.803  0.3403 -0.3330  0.0014
23783DOD     C115168  25.843  17.667  22.413  0.0517 -0.0840 -0.3538
23783DOD     C215169  25.626  17.299  22.624 -0.2276  0.2065  0.1551
23783DOD     C315170  25.586  16.871  22.846  0.2237  0.0374 -0.2852
23784DOD     C115171   1.628  28.545   9.540 -0.1294 -0.1120 -0.1726
23784DOD     C215172   1.425  28.955   9.453 -0.0800  0.1451  0.0741
23784DOD     C315173   1.155  29.279   9.304  0.0293  0.2250  0.1269
23785DOD     C115174   4.828   3.621   2.357  0.0213 -0.2321  0.3950
23785DOD     C215175   5.210   3.439   2.205 -0.1719 -0.1521 -0.2751
23785DOD     C315176   5.567   3.251   2.038 -0.1508 -0.2158 -0.0834
23786DOD     C115177  20.357  25.263  10.836 -0.0306  0.2557 -0.1518
23786DOD     C215178  20.270  25.662  10.605  0.1118 -0.4104 -0.3948
23786DOD     C315179  20.348  26.175  10.667  0.0223  0.3085 -0.0923
23787DOD     C115180   3.893   1.419  27.106 -0.1187  0.2042 -0.0050
23787DOD     C215181   3.914   1.890  26.978 -0.1041 -0.0123  0.0072
23787DOD     C315182   4.328   2.117  26.828  0.4472  0.0196 -0.1853
23788DOD     C115183  14.057  13.957  13.278 -0.0503  0.0288 -0.0542
23788DOD     C215184  14.178  13.653  13.640 -0.1636 -0.1740  0.0362
23788DOD     C315185  14.037  13.522  14.081 -0.1334 -0.0897 -0.1814
23789DOD     C115186   1.486   6.796   5.775 -0.1303 -0.1072  0.2136
23789DOD     C215187   1.685   7.217   5.961 -0.0181 -0.0362  0.1502
23789DOD     C315188   1.965   7.561   5.841  0.2823 -0.2796  0.0758
23790DOD     C115189  20.868  29.277  12.282 -0.1908 -0.2500 -0.1636
23790DOD     C215190  20.704  29.628  12.040  0.1909  0.0173 -0.0359
23790DOD     C315191  20.912  30.013  11.906 -0.2787  0.3125 -0.0072
23791DOD     C115192   8.407  13.180   7.960  0.1466  0.3599 -0.2475
23791DOD     C215193   8.263  13.046   7.526  0.5456 -0.0515  0.0391
23791DOD     C315194   8.308  12.978   7.034 -0.1581 -0.3917 -0.4973
23792DOD     C115195   8.421  20.856  11.110 -0.1282  0.1588 -0.2348
23792DOD     C215196   8.519  20.464  10.821 -0.1639  0.0779  0.0063
23792DOD     C315197   8.674  20.303  10.424  0.1325  0.0828 -0.1684
23793DOD     C115198  26.466  24.791   2.355  0.1187  0.2970 -0.2677
23793DOD     C215199  26.732  24.857   2.723  0.0675 -0.1882  0.0523
23793DOD     C315200  26.992  25.107   3.013 -0.2257 -0.0216  0.1071
23794DOD     C115201  18.909  26.393   1.520 -0.0560  0.2473 -0.0682
23794DOD     C215202  18.424  26.212   1.359  0.1504 -0.2641  0.0451
23794DOD     C315203  18.049  26.305   1.105  0.0261  0.1926 -0.0015
23795DOD     C115204   7.755   6.950   8.266 -0.1688  0.2185 -0.0221
23795DOD     C215205   7.973   6.919   7.851 -0.4388  0.0499  0.0924
23795DOD     C315206   8.423   6.837   7.770 -0.1077  0.1366 -0.0005
23796DOD     C115207   0.252  28.238  18.729  0.1717  0.2108 -0.0233
23796DOD     C215208  30.152  28.223  18.882 -0.1496  0.0512 -0.0324
23796DOD     C315209  29.759  28.187  18.714  0.0647 -0.1228  0.0012
23797DOD     C115210  25.618  25.532  27.241  0.1936  0.1272 -0.0541
23797DOD     C215211  25.771  25.631  26.806  0.1995  0.1769 -0.0681
23797DOD     C315212  25.841  25.723  26.374 -0.1405 -0.2121 -0.0808
23798DOD     C115213  20.834  18.518  22.877 -0.1135 -0.1235  0.0543
23798DOD     C215214  20.335  18.595  22.959  0.1026 -0.0666  0.1696
23798DOD     C315215  19.979  18.604  23.226 -0.0208  0.0058 -0.0433
23799DOD     C115216  30.226  13.193  10.379  0.0108  0.0118  0.1210
23799DOD     C215217   0.005  13.285  10.832 -0.4566  0.0098 -0.0326
23799DOD     C315218   0.108  12.983  11.160  0.1237  0.0240  0.3164
23800DOD     C115219   9.021   4.389  20.334  0.0615  0.3776  0.2672
23800DOD     C215220   9.480   4.522  20.349  0.1923 -0.4884  0.0047
23800DOD     C315221   9.975   4.546  20.294  0.0178  0.1774  0.0353
23801DOD     C115222  24.117   7.093   3.254  0.2787  0.1587  0.0932
23801DOD     C215223  24.237   7.434   2.910 -0.0254  0.0301 -0.1218
23801DOD     C315224  24.051   7.629   2.491 -0.1445 -0.1755  0.0990
23802DOD     C115225  19.647  19.263  14.803 -0.1691  0.2810  0.1884
23802DOD     C215226  19.762  19.631  14.526 -0.2972 -0.0258 -0.1550
23802DOD     C315227  19.936  20.055  14.524 -0.0252 -0.2979  0.1063
23803DOD     C115228  20.730   8.894  28.292  0.1020 -0.1541  0.1537
23803DOD     C215229  20.381   8.688  28.581 -0.0664 -0.1483  0.1136
23803DOD     C315230  20.290   8.588  29.002 -0.1029 -0.1061 -0.1924
23804DOD     C115231   8.039  15.955  12.247  0.0166  0.1045 -0.0150
23804DOD     C215232   8.130  16.425  12.187 -0.0306 -0.0440 -0.1206
23804DOD     C315233   8.430  16.770  12.044  0.1027 -0.0487 -0.2763
23805DOD     C115234   0.885  23.718  24.325  0.0027 -0.0067 -0.0621
23805DOD     C215235   0.846  24.147  24.087  0.0836  0.2395 -0.1104
23805DOD     C315236   0.954  24.564  24.181  0.2076 -0.2572  0.1622
23806DOD     C115237  26.435  17.425   1.331  0.0571  0.0922  0.1208
23806DOD     C215238  26.756  17.096   1.266  0.3401 -0.0319  0.0715
23806DOD     C315239  26.955  16.702   1.297 -0.1306 -0.1716 -0.3441
23807DOD     C115240   3.513  29.889   3.699 -0.0666 -0.0958  0.2565
23807DOD     C215241   3.938  29.672   3.637  0.0674  0.1590 -0.1730
23807DOD     C315242   4.298  29.759   3.337  0.0951  0.2918 -0.1976
23808DOD     C115243   4.881  26.143   4.058 -0.0766 -0.2927 -0.2035
23808DOD     C215244   4.651  25.823   3.745 -0.0832  0.0580  0.0227
23808DOD     C315245   4.674  25.408   3.577 -0.2575  0.0175 -0.0601
23809DOD     C115246  17.331   3.309  26.687  0.2480  0.2448  0.1346
23809DOD     C215247  16.997   3.475  26.422  0.0468  0.0553 -0.0237
23809DOD     C315248  16.724   3.381  26.095  0.0639 -0.0099 -0.1350
23810DOD     C115249  19.006  27.223   1.203  0.0611  0.2368 -0.1925
23810DOD     C215250  19.364  27.524   1.298 -0.3717  0.1354 -0.3025
23810DOD     C315251  19.825  27.621   1.431 -0.0302 -0.2712 -0.0992
23811DOD     C115252   2.368  14.496  26.336 -0.2946 -0.0967 -0.1869
23811DOD     C215253   2.329  14.036  26.303 -0.4459  0.0645 -0.0903
23811DOD     C315254   2.275  13.591  26.208  0.0801  0.0118 -0.1343
23812DOD     C115255  17.107  16.427   4.049 -0.0393  0.2223  0.0098
23812DOD     C215256  17.252  16.825   4.209 -0.3457 -0.1999 -0.0186
23812DOD     C315257  17.632  17.051   4.346 -0.1287  0.0279  0.0338
23813DOD     C115258   3.743  15.263  28.984 -0.2656 -0.3988  0.0973
23813DOD     C215259   3.708  15.500  29.457  0.4346  0.0577  0.1587
23813DOD     C315260   3.675  15.400  29.937 -0.2488 -0.0097 -0.0931
23814DOD     C115261  23.579   5.831   5.043  0.2172 -0.2658 -0.3636
23814DOD     C215262  23.741   6.060   5.389 -0.1104 -0.1140 -0.0243
23814DOD     C315263  23.884   6.250   5.819 -0.1022  0.1999 -0.0244
23815DOD     C115264  29.398   5.609   5.709 -0.0116  0.2263  0.1665
23815DOD     C215265  29.103   5.386   5.391  0.0663 -0.0990 -0.0939
23815DOD     C315266  28.821   4.999   5.312 -0.1283 -0.1146  0.0345
23816DOD     C115267  15.549  14.224   7.510  0.0181 -0.2043  0.1412
23816DOD     C215268  15.748  14.569   7.747 -0.2070  0.0759 -0.0125
23816DOD     C315269  16.136  14.756   7.850  0.0172  0.0174  0.0649
23817DOD     C115270   9.145  11.629   7.197 -0.3147 -0.0574 -0.1400
23817DOD     C215271   9.032  11.492   7.627  0.4594  0.2351  0.0675
23817DOD     C315272   8.843  11.759   7.971  0.1751 -0.2739  0.2893
23818DOD     C115273   5.757  22.087   9.009  0.1937 -0.3620 -0.1331
23818DOD     C215274   5.333  22.406   9.029  0.0704 -0.0663 -0.1172
23818DOD     C315275   5.039  22.751   8.813  0.3139 -0.0166 -0.0110
23819DOD     C115276  20.658  18.991   4.865  0.0539  0.2183 -0.0733
23819DOD     C215277  20.481  19.338   4.656  0.0489 -0.2614  0.2842
23819DOD     C315278  20.403  19.797   4.803 -0.3506  0.0220 -0.0246
23820DOD     C115279  18.391  22.036   3.249  0.0246 -0.3062  0.0141
23820DOD     C215280  18.283  22.406   3.526 -0.2313 -0.3044 -0.3624
23820DOD     C315281  17.882  22.754   3.525 -0.0325 -0.2931  0.1676
23821DOD     C115282  23.844   9.167   2.657  0.0513 -0.0401 -0.0241
23821DOD     C215283  23.960   8.786   2.395 -0.2081 -0.3682 -0.0703
23821DOD     C315284  24.319   8.714   2.107  0.0777  0.1796  0.2297
23822DOD     C115285   7.107   7.092   7.286  0.0592  0.0550 -0.0864
23822DOD     C215286   7.316   6.723   7.383 -0.2290 -0.1424 -0.1584
23822DOD     C315287   7.571   6.683   7.727  0.2070  0.3122  0.0995
23823DOD     C115288  29.931  30.126   7.604  0.0713 -0.0150 -0.1044
23823DOD     C215289  29.893   0.113   7.277 -0.0377 -0.1474  0.1457
23823DOD     C315290  29.904   0.289   6.841 -0.1130  0.0700  0.2644
23824DOD     C115291   6.256   1.946  17.213  0.2040 -0.0073  0.2186
23824DOD     C215292   6.253   1.694  17.574  0.1973 -0.2648  0.1625
23824DOD     C315293   6.616   1.427  17.733 -0.0288 -0.0167 -0.0975
23825DOD     C115294   6.025  24.486  26.805  0.0255  0.3170  0.1306
23825DOD     C215295   6.288  24.119  26.609  0.0394  0.1743 -0.3420
23825DOD     C315296   6.228  23.891  26.234  0.1214 -0.1313  0.2455
23826DOD     C115297   1.565  10.798  18.802  0.1142 -0.2220 -0.3309
23826DOD     C215298   1.090  10.822  18.691  0.0294 -0.0561 -0.0906
23826DOD     C315299   0.640  10.633  18.649 -0.2420 -0.2975 -0.2138
23827DOD     C115300   3.386   5.537  21.852  0.0894  0.0405  0.0807
23827DOD     C215301   3.306   5.272  21.462 -0.1949  0.0361  0.0881
23827DOD     C315302   3.394   5.470  21.061  0.4105  0.0659  0.1974
23828DOD     C115303   3.264  22.909  25.275  0.0678 -0.3133  0.1331
23828DOD     C215304   3.432  22.522  25.328 -0.1645 -0.2970 -0.0709
23828DOD     C315305   3.744  22.287  25.673 -0.0525 -0.1377 -0.1583
23829DOD     C115306  21.921  12.464  27.301  0.0693 -0.1833 -0.0508
23829DOD     C215307  22.226  12.480  26.986 -0.0300 -0.1915 -0.0336
23829DOD     C315308  22.190  12.361  26.549  0.2821  0.0709 -0.0700
23830DOD     C115309   1.297  17.931   9.135  0.0921 -0.0488  0.1498
23830DOD     C215310   1.079  17.990   8.701 -0.4406 -0.1376  0.3727
23830DOD     C315311   1.015  18.113   8.219  0.3985  0.0292  0.0973
23831DOD     C115312  23.618  29.608  21.772 -0.1084 -0.0261 -0.0649
23831DOD     C215313  23.573  29.738  22.270 -0.0791 -0.1519  0.0388
23831DOD     C315314  23.181  30.025  22.371  0.0474  0.4786  0.3293
23832DOD     C115315  22.230  26.086  29.224  0.0116  0.2423 -0.0769
23832DOD     C215316  22.027  26.519  29.367  0.2811  0.4174  0.0222
23832DOD     C315317  21.691  26.857  29.412 -0.1645  0.0571  0.1468
23833DOD     C115318   2.130  21.347  13.627 -0.0771  0.0175 -0.0328
23833DOD     C215319   2.328  21.126  13.315  0.0356  0.2240 -0.2249
23833DOD     C315320   2.546  21.009  12.973  0.0919 -0.1936  0.0307
23834DOD     C115321  13.966  22.425  22.006 -0.0177 -0.2392  0.1994
23834DOD     C215322  13.759  22.698  22.385 -0.0587  0.1237 -0.3870
23834DOD     C315323  13.969  22.705  22.812 -0.0016  0.0828 -0.3759
23835DOD     C115324  19.603  27.325  15.435 -0.5806 -0.0867 -0.2779
23835DOD     C215325  19.915  27.019  15.417  0.0340 -0.1233 -0.0083
23835DOD     C315326  20.176  26.672  15.487  0.0631  0.0417  0.4462
23836DOD     C115327  28.809  12.264  15.284 -0.0580  0.1343 -0.3357
23836DOD     C215328  28.930  12.493  15.670  0.1926 -0.1138 -0.0005
23836DOD     C315329  29.414  12.676  15.739 -0.1905  0.3263 -0.1894
23837DOD     C115330  25.335   9.770   0.113 -0.4086 -0.2511  0.0829
23837DOD     C215331  25.784   9.689   0.308  0.0033  0.4395 -0.2490
23837DOD     C315332  26.242   9.645   0.473  0.1447 -0.1741 -0.0396
23838DOD     C115333  11.046  18.666  25.010 -0.1476 -0.1784  0.2924
23838DOD     C215334  11.258  18.331  24.718  0.0415 -0.2234 -0.3495
23838DOD     C315335  11.573  17.966  24.799 -0.1094  0.0730  0.4595
23839DOD     C115336  22.325  30.026  18.366 -0.0590 -0.0289  0.0835
23839DOD     C215337  22.470  30.016  18.844 -0.1604  0.0785  0.3283
23839DOD     C315338  22.727  30.036  19.231 -0.0142  0.1091 -0.3297
23840DOD     C115339  21.774  12.760  15.115  0.1018 -0.0929 -0.1723
23840DOD     C215340  21.469  12.392  15.124 -0.1569  0.4520  0.0640
23840DOD     C315341  21.026  12.441  15.169  0.0672  0.1550 -0.1185
23841DOD     C115342  25.985  23.414   0.294  0.1588 -0.1520 -0.0712
23841DOD     C215343  26.204  23.062   0.129  0.3187  0.3387  0.4441
23841DOD     C315344  26.563  22.750   0.246 -0.1571 -0.2547  0.0399
23842DOD     C115345  25.190  14.027  28.438  0.1828  0.4349 -0.2551
23842DOD     C215346  24.938  13.618  28.318  0.0433  0.2265  0.0200
23842DOD     C315347  24.709  13.366  27.925  0.4438 -0.1831  0.1524
23843DOD     C115348   1.068  14.551  16.672 -0.1561  0.0183 -0.1392
23843DOD     C215349   1.501  14.467  16.533 -0.0259 -0.1035  0.1488
23843DOD     C315350   1.887  14.517  16.401  0.3606 -0.0150 -0.0300
23844DOD     C115351  13.377   2.680   3.873  0.0388 -0.0383  0.0921
23844DOD     C215352  12.994   2.895   3.982 -0.0903  0.1608 -0.0094
23844DOD     C315353  12.801   3.270   3.827 -0.0247  0.1460  0.2889
23845DOD     C115354  24.715   3.589   1.929 -0.0410 -0.0132  0.0694
23845DOD     C215355  25.116   3.725   1.688  0.0956  0.2834 -0.0555
23845DOD     C315356  25.404   3.832   1.362  0.0010 -0.3685  0.1293
23846DOD     C115357   0.684   8.847   7.264  0.0125  0.0026  0.0921
23846DOD     C215358   0.550   9.022   6.836  0.0546 -0.0190  0.0103
23846DOD     C315359   0.311   9.195   6.493 -0.0538  0.0268 -0.1098
23847DOD     C115360  13.743  23.819  15.858  0.3210  0.0399 -0.2306
23847DOD     C215361  13.923  23.448  15.700 -0.0517  0.0033 -0.0420
23847DOD     C315362  13.987  23.000  15.750 -0.2494 -0.0812 -0.0717
23848DOD     C115363  14.119  20.095  29.350  0.1124  0.1366 -0.2850
23848DOD     C215364  14.132  19.625  29.279 -0.1599 -0.1362 -0.0899
23848DOD     C315365  14.263  19.285  29.496 -0.1351 -0.1698 -0.0879
23849DOD     C115366  27.684  14.097  28.530  0.0824  0.0898  0.1314
23849DOD     C215367  27.758  13.617  28.607  0.1098  0.2869 -0.0326
23849DOD     C315368  27.675  13.113  28.550 -0.2729 -0.0659  0.0199
23850DOD     C115369  23.549  15.067  10.670 -0.2224 -0.1947  0.2445
23850DOD     C215370  23.302  15.487  10.799  0.2585 -0.1304 -0.0616
23850DOD     C315371  23.261  15.917  10.884  0.0211 -0.1166 -0.1221
23851DOD     C115372   1.496  28.299   8.312 -0.2090  0.0074 -0.0572
23851DOD     C215373   1.645  28.494   8.688  0.2063  0.0368 -0.4450
23851DOD     C315374   1.405  28.450   9.102 -0.0040  0.1562  0.2375
23852DOD     C115375  21.156  29.235  28.114 -0.2152  0.1496 -0.1461
23852DOD     C215376  21.243  29.674  27.977  0.1004 -0.1404  0.0036
23852DOD     C315377  21.170  30.074  27.762  0.1305  0.0557 -0.0968
23853DOD     C115378  21.113   3.752   4.536 -0.2615 -0.2114 -0.1520
23853DOD     C215379  21.097   3.379   4.804 -0.0168 -0.1252  0.1963
23853DOD     C315380  20.905   3.006   4.800 -0.1869  0.2121 -0.0104
23854DOD     C115381  23.508  15.698  22.300  0.1708 -0.1320 -0.0667
23854DOD     C215382  23.687  16.072  22.255 -0.2421  0.0099  0.0025
23854DOD     C315383  23.498  16.479  22.177 -0.0724 -0.2653  0.0809
23855DOD     C115384  19.603  28.250   3.316 -0.0824 -0.0589 -0.2403
23855DOD     C215385  19.176  28.142   3.248  0.2254  0.2441  0.0268
23855DOD     C315386  18.762  28.206   3.412  0.0586 -0.1550  0.0574
23856DOD     C115387   3.190   7.261   4.033 -0.0557  0.2804  0.2223
23856DOD     C215388   3.362   7.200   4.467  0.0766  0.0488 -0.1692
23856DOD     C315389   3.404   7.354   4.874  0.1713 -0.0389  0.1703
23857DOD     C115390  19.107  25.898   4.173 -0.4779  0.0189  0.0527
23857DOD     C215391  19.470  25.771   4.412  0.2366 -0.0421  0.2857
23857DOD     C315392  19.936  25.734   4.502 -0.3585 -0.1703 -0.0598
23858DOD     C115393  10.061  27.535   9.433 -0.4046 -0.2916  0.1420
23858DOD     C215394   9.809  27.607   9.759 -0.0413 -0.2903  0.1041
23858DOD     C315395   9.615  27.815  10.067 -0.0273 -0.0198  0.0182
23859DOD     C115396   2.827   5.008   9.640 -0.1165 -0.1188  0.3650
23859DOD     C215397   3.317   5.147   9.638 -0.3823 -0.1005  0.1339
23859DOD     C315398   3.609   5.475   9.459  0.2116  0.1102 -0.1241
23860DOD     C115399  21.961  15.302   7.045  0.0071 -0.1365  0.1582
23860DOD     C215400  22.240  15.129   6.722 -0.0939 -0.2777 -0.2566
23860DOD     C315401  22.675  15.011   6.873  0.0966  0.0831 -0.0047
23861DOD     C115402   0.056  14.700   5.415 -0.1317  0.1462  0.1165
23861DOD     C215403   0.079  14.228   5.285 -0.3702 -0.0231  0.1635
23861DOD     C315404   0.313  13.947   5.584  0.1398 -0.3634  0.0396
23862DOD     C115405  17.665  19.615  16.675 -0.0534  0.1038  0.3462
23862DOD     C215406  17.730  19.804  17.092 -0.2492  0.1696  0.2132
23862DOD     C315407  17.796  19.948  17.577  0.0581  0.3439  0.2148
23863DOD     C115408  15.585  28.658  14.578 -0.0396  0.2004  0.0487
23863DOD     C215409  15.217  28.419  14.620  0.1647 -0.0797  0.1744
23863DOD     C315410  14.861  28.173  14.427  0.1600  0.1574  0.0815
23864DOD     C115411   4.932   4.194  20.057 -0.1432 -0.1027  0.0382
23864DOD     C215412   5.231   4.155  19.648  0.2495  0.2715  0.2486
23864DOD     C315413   5.275   4.002  19.188  0.1456 -0.1754 -0.2842
23865DOD     C115414  15.763   9.076  19.484  0.1134  0.1159 -0.0486
23865DOD     C215415  15.255   9.171  19.556 -0.2060  0.2976  0.0889
23865DOD     C315416  15.101   9.593  19.742 -0.2120  0.1400  0.0150
23866DOD     C115417  16.778  25.849  27.971 -0.2579 -0.3281  0.3028
23866DOD     C215418  16.550  26.002  27.573  0.0171 -0.1480  0.1247
23866DOD     C315419  16.702  26.198  27.146  0.1374 -0.0058 -0.1621
23867DOD     C115420  24.973  17.229  27.058  0.2759 -0.0273  0.0636
23867DOD     C215421  24.979  17.104  27.574 -0.0067  0.0943 -0.2172
23867DOD     C315422  25.284  16.941  27.844 -0.0358  0.0832 -0.0270
23868DOD     C115423  18.346  21.110  14.494 -0.3174  0.1033  0.3102
23868DOD     C215424  18.214  21.558  14.496  0.2352 -0.2451  0.3587
23868DOD     C315425  18.155  21.690  14.967  0.1841 -0.2782 -0.0711
23869DOD     C115426  14.731   2.798  12.010  0.0633  0.0151 -0.0319
23869DOD     C215427  14.392   2.598  11.836  0.2611 -0.0386  0.0107
23869DOD     C315428  14.085   2.806  11.668 -0.0722 -0.0983 -0.1558
23870DOD     C115429   0.806  26.428  20.669 -0.1319 -0.3981  0.2053
23870DOD     C215430   0.559  26.410  21.075  0.1258 -0.0474  0.1768
23870DOD     C315431   0.277  26.789  21.189 -0.0754  0.3515  0.0612
23871DOD     C115432  13.642  29.589  21.225  0.1046 -0.1441 -0.3810
23871DOD     C215433  13.343  29.565  20.878  0.2335  0.2870 -0.1112
23871DOD     C315434  13.239  29.392  20.424  0.1369 -0.2896 -0.1009
23872DOD     C115435   6.895   2.828  22.294  0.1401 -0.0729 -0.2313
23872DOD     C215436   7.237   2.497  22.304  0.1356  0.0592 -0.0367
23872DOD     C315437   7.435   2.097  22.401  0.0740 -0.0945 -0.1964
23873DOD     C115438  18.725  24.569  10.454 -0.0849  0.1175  0.0189
23873DOD     C215439  18.623  24.901  10.115  0.0187  0.1221  0.0630
23873DOD     C315440  18.451  24.979   9.713  0.2795 -0.2760  0.3427
23874DOD     C115441  27.968  10.040  11.889 -0.2327  0.0675 -0.5865
23874DOD     C215442  28.060  10.219  12.322  0.2023  0.3689  0.0295
23874DOD     C315443  27.914  10.124  12.721 -0.1959  0.2439 -0.2223
23875DOD     C115444  15.336   5.659   5.770 -0.2984  0.0725  0.2153
23875DOD     C215445  15.702   5.334   5.641 -0.1635 -0.1723  0.1777
23875DOD     C315446  16.078   5.225   5.310  0.2189  0.2117 -0.3716
23876DOD     C115447   1.768  28.021   1.359  0.3721  0.0722  0.1518
23876DOD     C215448   1.349  27.783   1.303  0.0016 -0.2110 -0.1524
23876DOD     C315449   0.981  27.771   1.611  0.2838  0.3843 -0.0780
23877DOD     C115450  20.549  19.997   9.846 -0.3011  0.1295 -0.0293
23877DOD     C215451  20.445  19.568   9.998 -0.0211 -0.1420  0.3048
23877DOD     C315452  20.459  19.124   9.952  0.3270 -0.1570 -0.1826
23878DOD     C115453   5.653  28.010  16.742  0.0499  0.2259  0.1653
23878DOD     C215454   5.932  28.392  16.761  0.3727  0.0005 -0.0005
23878DOD     C315455   6.000  28.887  16.778 -0.0499 -0.2003 -0.0361
23879DOD     C115456   0.811  17.404  11.793 -0.2501 -0.0296 -0.0210
23879DOD     C215457   1.066  17.322  11.354  0.0534 -0.1484 -0.0804
23879DOD     C315458   0.871  17.358  10.914  0.2478 -0.3361  0.0741
23880DOD     C115459  12.024  20.402  24.853 -0.0169 -0.0335 -0.0850
23880DOD     C215460  12.115  20.662  24.501  0.2894  0.0966  0.5420
23880DOD     C315461  12.118  21.152  24.346 -0.1576 -0.2157 -0.2316
23881DOD     C115462  11.929   3.235  21.357 -0.0235 -0.1125  0.1199
23881DOD     C215463  12.042   3.045  21.770  0.0349  0.2426 -0.0439
23881DOD     C315464  11.878   2.738  22.071 -0.0335 -0.1302  0.2380
23882DOD     C115465  13.682   9.790   0.625  0.1335  0.0970 -0.3187
23882DOD     C215466  13.535  10.236   0.687  0.0732 -0.1579 -0.1081
23882DOD     C315467  13.283  10.596   0.534  0.1074  0.1717  0.0002
23883DOD     C115468   5.965  11.088  19.729  0.0738 -0.1359 -0.0251
23883DOD     C215469   5.818  10.661  19.631  0.1426  0.3554 -0.3278
23883DOD     C315470   5.695  10.201  19.727 -0.2814 -0.0105  0.1851
23884DOD     C115471  18.350   2.196  27.891 -0.1213 -0.0154 -0.2397
23884DOD     C215472  18.783   2.111  28.144 -0.0045 -0.1048 -0.1233
23884DOD     C315473  19.145   1.863  28.031 -0.1307  0.1542 -0.0824
23885DOD     C115474  23.191  14.404  29.834  0.1332  0.0494  0.0361
23885DOD     C215475  23.173  13.916  29.722 -0.0334 -0.3512 -0.1093
23885DOD     C315476  23.363  13.656  29.338 -0.1826 -0.0052 -0.0461
23886DOD     C115477   5.607   4.361  30.227 -0.2511 -0.1355 -0.1863
23886DOD     C215478   5.460   3.967  30.089 -0.0933 -0.3991 -0.0422
23886DOD     C315479   5.301   3.575  29.943 -0.1670  0.0892  0.1482
23887DOD     C115480  23.886  17.201   2.855  0.1032 -0.0921  0.2298
23887DOD     C215481  24.249  17.434   2.563 -0.2173  0.1958  0.1362
23887DOD     C315482  24.468  17.484   2.187 -0.2790 -0.3677 -0.0212
23888DOD     C115483  26.017   5.113   1.586  0.3393 -0.1835 -0.3618
23888DOD     C215484  26.013   4.932   2.052 -0.1061  0.2199  0.1688
23888DOD     C315485  25.910   4.568   2.338 -0.2149  0.0608 -0.0366
23889DOD     C115486  25.564  27.051   2.095  0.2084  0.0495 -0.2583
23889DOD     C215487  25.953  27.344   1.922  0.1683  0.1097 -0.4217
23889DOD     C315488  26.389  27.337   1.708  0.0449  0.2512  0.1455
23890DOD     C115489   1.279  11.280  23.616 -0.0724  0.1503  0.3518
23890DOD     C215490   1.504  11.066  23.251 -0.0157  0.1563  0.2571
23890DOD     C315491   1.748  11.125  22.823 -0.1487  0.0005 -0.1700
23891DOD     C115492  11.497  28.545  28.015  0.0246 -0.2173  0.1052
23891DOD     C215493  11.698  28.437  27.615  0.4207 -0.0071  0.1481
23891DOD     C315494  11.622  28.167  27.248 -0.0730  0.1175 -0.0264
23892DOD     C115495  27.771  26.979   4.492  0.1056 -0.0356  0.0007
23892DOD     C215496  28.250  26.939   4.376  0.1531  0.1030 -0.1581
23892DOD     C315497  28.497  27.277   4.363  0.1388 -0.3401  0.1129
23893DOD     C115498   9.605  12.267  16.303  0.3008  0.2242 -0.1443
23893DOD     C215499   9.743  12.111  15.897  0.1888  0.3755  0.2173
23893DOD     C315500   9.678  11.977  15.465 -0.3301  0.1778  0.1294
23894DOD     C115501   7.235  26.426   4.248  0.1348  0.3698 -0.0364
23894DOD     C215502   7.641  26.195   4.150  0.0883  0.0550  0.0541
23894DOD     C315503   7.788  26.037   4.573 -0.1909 -0.0075  0.2397
23895DOD     C115504  28.601   9.503  20.111 -0.2537  0.0381  0.0004
23895DOD     C215505  28.440   9.914  20.286 -0.3630  0.1420  0.2374
23895DOD     C315506  28.489  10.205  20.616 -0.1677  0.0807 -0.1274
23896DOD     C115507   3.288  27.684   2.271  0.5657  0.1390 -0.0127
23896DOD     C215508   3.104  27.659   1.859  0.0056  0.0989 -0.1720
23896DOD     C315509   2.813  27.642   1.531  0.2165  0.1870  0.2476
23897DOD     C115510   3.216   8.625   7.778 -0.3392 -0.0182 -0.0328
23897DOD     C215511   3.643   8.847   7.739 -0.0542 -0.1927 -0.0733
23897DOD     C315512   3.951   8.993   7.446  0.0153  0.0015 -0.0458
23898DOD     C115513  29.339  28.354  13.775 -0.1811  0.3828 -0.3748
23898DOD     C215514  29.732  28.543  13.619  0.0470 -0.1709 -0.2627
23898DOD     C315515  29.965  28.988  13.733 -0.1345 -0.0944 -0.1769
23899DOD     C115516  21.647  30.231  27.857 -0.1682 -0.0364 -0.2139
23899DOD     C215517  21.533   0.341  27.796  0.2668 -0.1262  0.0675
23899DOD     C315518  21.156   0.611  27.720 -0.2393 -0.2655 -0.2309
23900DOD     C115519  18.992  28.681   8.825 -0.1357 -0.1438  0.0105
23900DOD     C215520  18.701  28.474   8.500  0.0256  0.1872 -0.1118
23900DOD     C315521  18.388  28.370   8.184  0.1164  0.2855 -0.2537
23901DOD     C115522   3.027   3.210   2.483  0.0213 -0.0072 -0.0432
23901DOD     C215523   3.301   3.533   2.337 -0.1088 -0.0598 -0.2317
23901DOD     C315524   3.215   3.891   2.006  0.1026 -0.0822 -0.0249
23902DOD     C115525   3.905  21.641  26.805  0.0852  0.1997 -0.0436
23902DOD     C215526   3.521  21.552  27.054  0.2094 -0.0499  0.3028
23902DOD     C315527   3.215  21.153  27.114  0.0603  0.0811 -0.0860
23903DOD     C115528   9.585  10.272   9.427  0.0318  0.1043 -0.3147
23903DOD     C215529   9.883  10.468   9.735  0.2976 -0.0764  0.0770
23903DOD     C315530   9.925  10.861  10.040  0.1284  0.3202 -0.0380
23904DOD     C115531  18.164   3.939   5.228 -0.3116 -0.0724 -0.1075
23904DOD     C215532  18.080   3.940   4.751 -0.0468 -0.0111 -0.1289
23904DOD     C315533  18.053   3.845   4.287 -0.2515  0.0488 -0.1688
23905DOD     C115534  24.037  27.867  23.878  0.2377 -0.2666 -0.0140
23905DOD     C215535  23.678  27.563  23.908  0.1633  0.0242  0.0226
23905DOD     C315536  23.367  27.199  24.093  0.2618  0.1596  0.0792
23906DOD     C115537  18.844  18.093  13.679 -0.1945  0.1304  0.0646
23906DOD     C215538  18.525  17.740  13.845 -0.0179 -0.2775 -0.0345
23906DOD     C315539  18.532  17.386  14.146  0.1990 -0.0587  0.2295
23907DOD     C115540   2.455  29.812  25.627  0.0273 -0.4765 -0.0469
23907DOD     C215541   2.496  29.735  25.180  0.1986  0.1563 -0.0106
23907DOD     C315542   2.239  29.360  24.986  0.0881 -0.1812  0.2444
23908DOD     C115543  19.766  25.122  18.763 -0.0144  0.0072  0.1924
23908DOD     C215544  20.127  25.007  18.549 -0.1427 -0.0989 -0.2980
23908DOD     C315545  20.564  24.846  18.364  0.1247  0.4524 -0.0801
23909DOD     C115546  25.877  14.871  20.343 -0.0829  0.0407 -0.0470
23909DOD     C215547  26.244  14.572  20.420  0.2936  0.2284 -0.2941
23909DOD     C315548  26.277  14.213  20.718 -0.1714  0.1129  0.1980
23910DOD     C115549   2.879  19.036  23.938  0.0163  0.1020 -0.3670
23910DOD     C215550   3.115  19.463  24.045 -0.0251 -0.0146 -0.1225
23910DOD     C315551   3.450  19.808  24.113  0.1501 -0.0010 -0.1761
23911DOD     C115552   3.832  20.084  23.115 -0.1295  0.2755  0.0021
23911DOD     C215553   3.647  19.682  23.310 -0.0099 -0.0148 -0.0171
23911DOD     C315554   3.635  19.449  23.683  0.3060 -0.2725 -0.2279
23912DOD     C115555   6.610   1.915  13.767  0.1271  0.1418  0.1402
23912DOD     C215556   6.876   2.297  13.778  0.0180 -0.2230  0.0322
23912DOD     C315557   7.065   2.732  13.622 -0.0769 -0.3339 -0.2389
23913DOD     C115558   8.541   0.586  13.482  0.0539 -0.1446 -0.3851
23913DOD     C215559   8.442   0.263  13.828 -0.1501 -0.1446  0.0945
23913DOD     C315560   8.591   0.052  14.242  0.0350  0.1779  0.1777
23914DOD     C115561  15.186  27.198  26.551  0.1235 -0.1793  0.1171
23914DOD     C215562  15.473  26.910  26.380  0.0655  0.0288 -0.0433
23914DOD     C315563  15.488  26.619  25.985  0.3065  0.0315  0.1562
23915DOD     C115564   2.884  24.875   6.749  0.0689  0.0950  0.1059
23915DOD     C215565   3.103  25.038   6.378  0.0265 -0.1680  0.0886
23915DOD     C315566   3.481  24.992   6.117  0.2542  0.1203 -0.0973
23916DOD     C115567  21.723  19.050  17.313 -0.0227  0.0960 -0.0487
23916DOD     C215568  21.529  19.160  16.870 -0.0357 -0.2562 -0.0575
23916DOD     C315569  21.253  19.461  16.601  0.1361 -0.1615 -0.0676
23917DOD     C115570  20.415  29.519  26.611 -0.0203 -0.0905  0.0686
23917DOD     C215571  20.581  29.418  26.214 -0.2033  0.0022 -0.0698
23917DOD     C315572  21.012  29.424  25.961  0.1100 -0.0114 -0.0955
23918DOD     C115573  28.971  17.688  13.273  0.2482  0.4369 -0.0272
23918DOD     C215574  29.424  17.803  13.095 -0.2669  0.3731 -0.3298
23918DOD     C315575  29.811  17.829  13.347  0.2727 -0.1075 -0.2360
23919DOD     C115576   1.553  10.235   5.141  0.1117  0.2471 -0.1914
23919DOD     C215577   1.638  10.153   4.672  0.2389  0.2127  0.0098
23919DOD     C315578   1.408   9.803   4.472  0.2776 -0.2737 -0.0428
23920DOD     C115579  17.263   2.422   2.711 -0.0708  0.1714  0.0296
23920DOD     C215580  17.131   2.696   2.381  0.3449 -0.2468 -0.2061
23920DOD     C315581  17.193   2.636   1.905  0.0697 -0.2564 -0.0776
23921DOD     C115582  17.187  25.355  10.883  0.2952 -0.0981  0.0020
23921DOD     C215583  16.733  25.324  10.795  0.0253  0.0752  0.0159
23921DOD     C315584  16.352  25.127  10.618  0.0456 -0.1197 -0.0042
23922DOD     C115585  21.843  15.091  24.922  0.0475 -0.0036  0.1044
23922DOD     C215586  21.806  14.631  24.960 -0.2246 -0.3254 -0.2327
23922DOD     C315587  21.891  14.171  24.870 -0.0863  0.0214  0.2831
23923DOD     C115588   3.508  25.483  20.512  0.2701  0.3209 -0.3198
23923DOD     C215589   3.395  25.937  20.418 -0.1483 -0.0248  0.2137
23923DOD     C315590   3.284  26.247  20.106  0.0734  0.0204 -0.2993
23924DOD     C115591  28.012  21.851   0.483  0.3422 -0.4010  0.1618
23924DOD     C215592  27.627  21.847   0.754 -0.2000 -0.0316  0.0146
23924DOD     C315593  27.240  21.680   0.521  0.1316  0.1195 -0.4555
23925DOD     C115594  29.043  16.019  27.528 -0.1627 -0.1172 -0.0203
23925DOD     C215595  28.761  15.643  27.598  0.1050  0.2157 -0.1930
23925DOD     C315596  28.529  15.276  27.707 -0.0681  0.1580 -0.0051
23926DOD     C115597   4.577   1.823   6.162 -0.1319 -0.1754 -0.0829
23926DOD     C215598   4.826   1.542   5.825 -0.3547 -0.1472  0.2714
23926DOD     C315599   5.095   1.241   5.549  0.2705 -0.0734  0.1170
23927DOD     C115600  28.722  27.902  24.781 -0.0633 -0.1509  0.1753
23927DOD     C215601  29.108  28.195  24.854 -0.2072 -0.1199  0.1092
23927DOD     C315602  29.372  28.305  25.201  0.0580 -0.0376  0.3261
23928DOD     C115603   5.749   2.649   4.085 -0.0349 -0.0223 -0.1082
23928DOD     C215604   5.339   2.575   3.802  0.0458  0.0971 -0.2357
23928DOD     C315605   4.906   2.646   3.894  0.0842  0.1651 -0.0774
23929DOD     C115606  17.068  16.811  15.516  0.2152 -0.0219  0.1279
23929DOD     C215607  16.575  16.856  15.537 -0.0889  0.1531  0.0646
23929DOD     C315608  16.200  17.038  15.349  0.0431  0.0194 -0.3602
23930DOD     C115609   8.613  21.552   6.714 -0.1171  0.2379  0.2167
23930DOD     C215610   8.329  21.784   7.003  0.3105 -0.0920 -0.2198
23930DOD     C315611   8.432  22.004   7.421  0.0692  0.0842 -0.0683
23931DOD     C115612   6.340  16.670  13.952  0.2059 -0.1176 -0.4048
23931DOD     C215613   6.390  16.295  14.215  0.1040  0.1405  0.1240
23931DOD     C315614   6.695  16.173  14.577 -0.0405  0.1024  0.0348
23932DOD     C115615  23.723  11.962   7.678 -0.0801 -0.1530 -0.0534
23932DOD     C215616  23.925  11.754   7.333 -0.1160  0.1227  0.3307
23932DOD     C315617  24.274  11.576   7.122 -0.1147 -0.0063 -0.0203
23933DOD     C115618  14.753  19.521   6.311 -0.1776 -0.2421  0.2133
23933DOD     C215619  14.797  19.471   6.768 -0.2434 -0.0194  0.1523
23933DOD     C315620  14.944  19.507   7.199  0.1627 -0.0974  0.0847
23934DOD     C115621  29.330  13.538  13.299 -0.0189 -0.1892 -0.0428
23934DOD     C215622  29.199  13.158  13.126 -0.1692  0.0503  0.1543
23934DOD     C315623  29.006  12.741  13.264  0.0811 -0.1891  0.1336
23935DOD     C115624  17.599   9.419  16.799  0.1690 -0.0580  0.1328
23935DOD     C215625  17.882   9.328  16.400 -0.1875  0.1244  0.0520
23935DOD     C315626  18.263   9.176  16.171  0.1934  0.0020 -0.2366
23936DOD     C115627   9.927  29.625   5.699  0.2564 -0.1367 -0.0255
23936DOD     C215628   9.490  29.639   5.917 -0.1380  0.2107 -0.3018
23936DOD     C315629   9.295  29.357   6.235  0.0723  0.0542  0.0447
23937DOD     C115630  18.101  16.929  16.652  0.1707  0.2017 -0.0643
23937DOD     C215631  17.828  16.731  16.988  0.0017  0.2442 -0.0006
23937DOD     C315632  17.465  16.614  17.276 -0.2804 -0.1116 -0.1096
23938DOD     C115633  21.070   0.070  18.385 -0.0127 -0.0184  0.3363
23938DOD     C215634  21.085   0.321  18.831 -0.2518  0.2501 -0.1828
23938DOD     C315635  20.816   0.534  19.199 -0.0987  0.1549 -0.1246
23939DOD     C115636  22.892   5.429  21.367  0.2330 -0.2207 -0.0119
23939DOD     C215637  23.211   5.204  21.629 -0.1580  0.1253  0.1696
23939DOD     C315638  23.402   5.075  22.095  0.2629 -0.2279  0.2256
23940DOD     C115639   6.129   4.613   2.282 -0.0259 -0.2552 -0.0316
23940DOD     C215640   5.597   4.600   2.289  0.4161 -0.0447  0.0743
23940DOD     C315641   5.224   4.526   1.978  0.0796 -0.0439 -0.1062
23941DOD     C115642  20.442  19.332   0.185 -0.0962  0.1433  0.6167
23941DOD     C215643  20.439  18.948  30.194  0.1618  0.2369 -0.1630
23941DOD     C315644  20.614  18.589  29.964  0.0596  0.1672 -0.1435
23942DOD     C115645  21.578  19.057   3.699 -0.0217 -0.0812 -0.0157
23942DOD     C215646  21.431  19.429   3.788 -0.3097  0.0135  0.0232
23942DOD     C315647  21.291  19.890   3.885  0.1047  0.1860  0.2844
23943DOD     C115648  14.116   9.992   3.798 -0.0438  0.0465 -0.0705
23943DOD     C215649  13.903  10.208   3.425 -0.1368  0.2074 -0.2421
23943DOD     C315650  13.590  10.316   3.024  0.1099  0.2405  0.2177
23944DOD     C115651  13.107  27.522   2.934 -0.0514 -0.0276  0.0953
23944DOD     C215652  13.184  27.322   3.335  0.4124  0.1844  0.2173
23944DOD     C315653  13.455  26.970   3.487 -0.0210  0.0480 -0.3102
23945DOD     C115654  29.422   4.586  16.100  0.1003  0.0962  0.2431
23945DOD     C215655  29.723   4.896  16.257  0.1845 -0.0582  0.3105
23945DOD     C315656  29.900   5.011  16.600  0.1181 -0.0824  0.0812
23946DOD     C115657   6.812   8.789  14.527  0.4158  0.3239 -0.2048
23946DOD     C215658   7.015   9.129  14.760 -0.0208 -0.0278  0.1541
23946DOD     C315659   7.417   9.383  14.709  0.1728  0.1494 -0.1612
23947DOD     C115660  11.260   7.323  24.016 -0.1717 -0.1358  0.1771
23947DOD     C215661  10.951   7.576  24.227  0.0531 -0.0995 -0.2036
23947DOD     C315662  10.592   7.864  24.319  0.2746  0.0840 -0.0050
23948DOD     C115663  25.244   2.927  23.816  0.0543 -0.1008 -0.1933
23948DOD     C215664  25.421   3.253  23.994  0.1542 -0.2592  0.0846
23948DOD     C315665  25.339   3.590  24.253  0.0516 -0.1905 -0.0735
23949DOD     C115666  19.492  14.189  11.787  0.2499 -0.0246  0.2448
23949DOD     C215667  19.112  14.217  11.550  0.0283 -0.0016  0.0872
23949DOD     C315668  18.659  14.269  11.643 -0.3999 -0.2030  0.0049
23950DOD     C115669  13.778   5.323   7.043  0.1178  0.2136 -0.1200
23950DOD     C215670  13.799   5.557   7.464 -0.0046 -0.0896 -0.1917
23950DOD     C315671  13.575   5.462   7.880  0.2379  0.3694 -0.0305
23951DOD     C115672  13.982  17.978   2.967 -0.1942 -0.0488 -0.0869
23951DOD     C215673  14.181  18.260   2.635 -0.0934 -0.1842  0.0361
23951DOD     C315674  14.386  18.615   2.415  0.2784  0.1260  0.1289
23952DOD     C115675  23.836  26.358  29.955 -0.0363 -0.4471  0.0265
23952DOD     C215676  24.069  25.975  29.844 -0.0132  0.0011  0.1052
23952DOD     C315677  24.383  25.645  29.781  0.0652  0.4414 -0.4210
23953DOD     C115678  26.810  15.768  20.609  0.1636  0.0156  0.1321
23953DOD     C215679  27.085  15.686  20.266 -0.1604  0.0164  0.0657
23953DOD     C315680  27.324  15.906  19.958  0.0626 -0.1369  0.2825
23954DOD     C115681  27.251  12.806  20.469  0.0413  0.1256  0.1467
23954DOD     C215682  27.536  12.665  20.758 -0.3741 -0.1488  0.3292
23954DOD     C315683  27.840  12.727  21.091 -0.4609  0.0023 -0.0434
23955DOD     C115684  19.734  12.273  23.996  0.0719  0.0579  0.1597
23955DOD     C215685  20.094  12.281  23.677 -0.1556 -0.0038 -0.0399
23955DOD     C315686  20.308  12.185  23.259 -0.0378 -0.0044 -0.2091
23956DOD     C115687  20.188  21.086   0.348 -0.5648 -0.1856  0.2640
23956DOD     C215688  20.297  21.512   0.262  0.0686  0.0399  0.0713
23956DOD     C315689  20.395  21.711  30.189 -0.0183 -0.0369  0.2877
23957DOD     C115690  17.709  22.441   6.018 -0.0236  0.0790 -0.1070
23957DOD     C215691  17.719  22.352   5.550 -0.1220  0.0372 -0.0612
23957DOD     C315692  17.689  22.264   5.089  0.0123 -0.1060 -0.0883
23958DOD     C115693  15.319   5.774  13.653 -0.4546  0.2426 -0.1536
23958DOD     C215694  15.157   5.350  13.842 -0.1171 -0.1929 -0.4352
23958DOD     C315695  15.396   4.965  13.925 -0.0516  0.0594  0.3416
23959DOD     C115696  14.615   6.677   3.446  0.0758  0.6780 -0.0259
23959DOD     C215697  14.489   7.103   3.394 -0.2267 -0.1629 -0.1153
23959DOD     C315698  14.528   7.519   3.227 -0.3762  0.0238  0.1543
23960DOD     C115699   6.707  23.444  19.960 -0.0104  0.1767 -0.0605
23960DOD     C215700   7.099  23.369  19.647  0.2190 -0.0799  0.2052
23960DOD     C315701   7.519  23.604  19.470 -0.1884  0.0930 -0.1547
23961DOD     C115702  20.170  20.636  27.946  0.0113  0.1174 -0.0962
23961DOD     C215703  20.011  20.269  28.210 -0.0474  0.0406  0.1078
23961DOD     C315704  19.806  19.906  28.420 -0.2919 -0.0589 -0.0412
23962DOD     C115705  18.095  24.629   5.474 -0.0961  0.1328  0.0122
23962DOD     C215706  18.339  25.008   5.591 -0.1470 -0.1042 -0.1018
23962DOD     C315707  18.517  25.134   6.030  0.1219  0.0184 -0.0203
23963DOD     C115708   1.294  21.636  27.381  0.1167 -0.1028 -0.0580
23963DOD     C215709   1.619  21.664  27.733 -0.1925  0.0396  0.1569
23963DOD     C315710   1.782  21.385  28.056 -0.1176  0.1658  0.3352
23964DOD     C115711  20.145   1.287  10.096 -0.3735  0.4208  0.1828
23964DOD     C215712  20.133   1.693  10.347  0.1474  0.0560 -0.0104
23964DOD     C315713  20.200   2.142  10.581  0.3074 -0.2210 -0.0610
23965DOD     C115714   5.379  19.432   3.253 -0.0492 -0.1283 -0.0813
23965DOD     C215715   5.446  19.918   3.285 -0.0165 -0.1480  0.1858
23965DOD     C315716   5.500  20.438   3.274  0.0899  0.1933  0.0095
23966DOD     C115717   4.731  14.427   9.543 -0.0775 -0.0225 -0.2141
23966DOD     C215718   4.830  14.780   9.768 -0.2306  0.1239 -0.3126
23966DOD     C315719   4.848  15.131  10.038 -0.0380  0.3028  0.0943
23967DOD     C115720  30.078  16.306  23.279  0.0557  0.4000  0.2549
23967DOD     C215721   0.182  16.098  23.218 -0.1443 -0.2197 -0.2802
23967DOD     C315722   0.478  16.055  22.878  0.0720 -0.1206  0.0193
23968DOD     C115723   3.728  17.541  29.808  0.0261  0.0698 -0.0272
23968DOD     C215724   3.459  17.883  29.949  0.1567 -0.3340 -0.0440
23968DOD     C315725   3.350  18.308  30.140  0.1567  0.0814 -0.2136
23969DOD     C115726  26.384  25.495  28.606 -0.0097  0.1459 -0.2285
23969DOD     C215727  26.585  25.655  28.214 -0.3790 -0.0580 -0.1252
23969DOD     C315728  27.001  25.956  28.055 -0.0360  0.0667 -0.0229
23970DOD     C115729  29.431   1.981  12.442  0.3291  0.1811  0.1077
23970DOD     C215730  29.860   1.963  12.612  0.0788  0.3650  0.1220
23970DOD     C315731  30.213   2.197  12.443 -0.2500 -0.0191 -0.0321
23971DOD     C115732   5.669   7.964  16.162  0.2223  0.1140 -0.0365
23971DOD     C215733   5.346   7.699  16.395 -0.1569  0.1987 -0.0700
23971DOD     C315734   5.144   7.805  16.784 -0.3888  0.3181  0.0851
23972DOD     C115735  21.588  17.377   5.099 -0.1423  0.1550  0.0609
23972DOD     C215736  21.551  17.839   4.931 -0.3883  0.0716 -0.2623
23972DOD     C315737  21.451  18.247   5.142 -0.0121  0.4150 -0.1063
23973DOD     C115738  25.766  11.275  26.289 -0.0316 -0.0705 -0.1367
23973DOD     C215739  25.715  11.141  26.779  0.0586  0.1431  0.0720
23973DOD     C315740  25.486  11.386  27.135 -0.1069  0.3837 -0.0459
23974DOD     C115741  25.092  18.569  17.850  0.1617  0.2788  0.4975
23974DOD     C215742  25.499  18.310  17.976 -0.1006  0.0437  0.0225
23974DOD     C315743  25.961  18.295  17.983  0.0014  0.0392  0.1270
23975DOD     C115744  29.601  20.060  24.613  0.1851  0.0465 -0.0593
23975DOD     C215745  29.453  19.738  24.982 -0.0410 -0.1713  0.0869
23975DOD     C315746  29.157  19.469  25.079  0.1589 -0.0837 -0.1896
23976DOD     C115747  12.339  11.455  16.948  0.2500  0.0350  0.3326
23976DOD     C215748  12.445  11.522  16.526 -0.1777  0.2213  0.1417
23976DOD     C315749  12.657  11.706  16.126  0.0285 -0.1525  0.3007
23977DOD     C115750  16.548  13.943   7.832 -0.1845 -0.0559 -0.1964
23977DOD     C215751  16.935  14.173   7.997 -0.0928  0.0420  0.1380
23977DOD     C315752  17.141  14.577   7.973  0.1695  0.3964 -0.1303
23978DOD     C115753  15.093   4.784  11.956 -0.0374 -0.1212  0.0282
23978DOD     C215754  15.077   4.744  11.469  0.4550 -0.2203  0.0716
23978DOD     C315755  15.228   4.401  11.236 -0.1966 -0.0676 -0.1438
23979DOD     C115756  29.157  29.904  25.905  0.0834 -0.1019 -0.0809
23979DOD     C215757  29.288   0.086  25.705 -0.1133 -0.0628  0.0137
23979DOD     C315758  29.247   0.445  25.414 -0.1807 -0.4969  0.2086
23980DOD     C115759  18.654  17.241  19.322  0.3779 -0.0879 -0.1159
23980DOD     C215760  18.481  16.818  19.362  0.0812  0.3040  0.1029
23980DOD     C315761  18.292  16.505  19.683 -0.0829  0.1764  0.0866
23981DOD     C115762  18.662  28.233  11.324  0.1043 -0.1016 -0.1655
23981DOD     C215763  19.093  28.378  11.217 -0.1393  0.2385 -0.3454
23981DOD     C315764  19.513  28.291  11.376  0.0902  0.1384 -0.1059
23982DOD     C115765  23.183  14.863   1.003 -0.1773 -0.0347  0.1498
23982DOD     C215766  23.228  15.204   0.615  0.1292 -0.1925 -0.1083
23982DOD     C315767  23.494  15.579   0.516 -0.1843 -0.1529  0.3159
23983DOD     C115768  29.084   6.670  27.874  0.1029  0.3576 -0.1080
23983DOD     C215769  29.309   6.270  27.885 -0.2600 -0.1307  0.0248
23983DOD     C315770  29.230   5.812  27.930 -0.0154  0.1935 -0.2950
23984DOD     C115771   1.339   5.819   7.859  0.2121  0.1040  0.2367
23984DOD     C215772   1.754   5.942   7.934  0.2671  0.0293 -0.0788
23984DOD     C315773   2.141   5.713   8.016 -0.0858 -0.2371  0.0515
23985DOD     C115774  20.112  30.081   3.692  0.0850  0.1447 -0.0772
23985DOD     C215775  19.799  29.977   3.385 -0.0949  0.0628  0.2202
23985DOD     C315776  19.443  29.650   3.413 -0.0307 -0.2836  0.0595
23986DOD     C115777   1.810   9.162   9.259  0.2165  0.2299 -0.1607
23986DOD     C215778   1.689   8.681   9.409  0.0926 -0.0433  0.0958
23986DOD     C315779   1.557   8.265   9.222  0.0285  0.0303  0.1929
23987DOD     C115780  12.145  28.955  29.644  0.0389 -0.0509 -0.0127
23987DOD     C215781  11.679  28.962  29.706  0.0315 -0.0867  0.1469
23987DOD     C315782  11.424  29.196  30.001  0.2188 -0.0162 -0.0227
23988DOD     C115783   2.888  15.257   8.837  0.1228  0.2273 -0.0040
23988DOD     C215784   2.422  15.297   8.895 -0.0920 -0.2200 -0.1189
23988DOD     C315785   1.943  15.244   8.924 -0.2827  0.1311 -0.1571
23989DOD     C115786  26.928   7.031   3.820 -0.1930 -0.1026  0.6459
23989DOD     C215787  27.217   6.802   3.541  0.2192 -0.1931 -0.1204
23989DOD     C315788  27.391   6.845   3.092 -0.0025  0.1272  0.1368
23990DOD     C115789  12.997  17.742  13.738 -0.1714  0.1698  0.0077
23990DOD     C215790  13.265  17.958  13.414  0.0132 -0.1506  0.2068
23990DOD     C315791  13.340  18.202  13.013  0.4264 -0.1789  0.2294
23991DOD     C115792  29.135  10.608   6.485 -0.3350  0.1264  0.0942
23991DOD     C215793  29.117  10.197   6.383  0.0971 -0.1940 -0.4557
23991DOD     C315794  29.205   9.783   6.312 -0.1232  0.3812  0.0480
23992DOD     C115795  19.621   8.387  18.594  0.0168 -0.3429 -0.0051
23992DOD     C215796  19.419   8.541  19.006  0.4766  0.0495  0.0823
23992DOD     C315797  19.256   8.222  19.343  0.0279 -0.0645  0.0165
23993DOD     C115798  10.246   4.885  12.503  0.1120  0.1029 -0.2217
23993DOD     C215799   9.987   5.045  12.860  0.1334 -0.0518  0.2233
23993DOD     C315800   9.613   5.341  13.007 -0.2615 -0.3477  0.1626
23994DOD     C115801  21.829  25.471   5.088  0.1368 -0.0299 -0.0509
23994DOD     C215802  21.718  25.938   5.022  0.1058 -0.2241  0.3564
23994DOD     C315803  21.543  26.451   5.098  0.2103  0.0175 -0.2710
23995DOD     C115804  23.742  10.931  15.778 -0.0967  0.2298  0.1530
23995DOD     C215805  24.119  10.650  15.550  0.0246  0.0701 -0.1910
23995DOD     C315806  24.543  10.589  15.451 -0.1143 -0.1437  0.0046
23996DOD     C115807  18.387  22.753  19.917  0.0349  0.1615  0.1209
23996DOD     C215808  17.931  22.749  19.813  0.1353 -0.1686 -0.4409
23996DOD     C315809  17.506  22.662  19.975  0.2654 -0.0604 -0.2042
23997DOD     C115810   1.018  15.878  18.850  0.3305 -0.1404  0.1128
23997DOD     C215811   1.458  15.841  18.692  0.1495 -0.3251 -0.0265
23997DOD     C315812   1.570  15.478  18.562 -0.0554 -0.1378  0.0131
23998DOD     C115813   1.174  28.459  12.426 -0.2812 -0.1331 -0.1897
23998DOD     C215814   1.585  28.400  12.232  0.3161  0.4172 -0.0175
23998DOD     C315815   1.781  28.254  11.798  0.0221 -0.3834 -0.1159
23999DOD     C115816  17.110   0.506   5.192  0.1658  0.1576  0.0317
23999DOD     C215817  17.027   0.111   5.346  0.0772  0.0641 -0.0923
23999DOD     C315818  17.070  30.038   5.600 -0.0833  0.0851 -0.2647
24000DOD     C115819   7.543  19.821  19.347  0.3463 -0.0840  0.1475
24000DOD     C215820   7.401  19.684  19.804  0.1212 -0.0912  0.2904
24000DOD     C315821   7.334  19.789  20.282  0.2433 -0.1443  0.2781
24001DOD     C115822  14.222  25.321   2.234 -0.2892 -0.0501 -0.4274
24001DOD     C215823  14.279  25.747   2.380 -0.0402  0.0867  0.3304
24001DOD     C315824  14.442  26.049   2.734  0.0478 -0.1564 -0.1204
24002DOD     C115825  17.619   0.093  19.906 -0.0685 -0.0637 -0.5337
24002DOD     C215826  17.799   0.362  19.587  0.0246 -0.0090  0.4541
24002DOD     C315827  17.751   0.670  19.224 -0.2654  0.1477  0.2507
24003DOD     C115828  16.245  28.505  18.134  0.2331  0.2477  0.2699
24003DOD     C215829  16.444  28.641  17.753  0.1662  0.0839 -0.1816
24003DOD     C315830  16.608  28.761  17.350 -0.0299  0.2121 -0.2369
24004DOD     C115831   7.031   7.896  18.002  0.0308  0.0474 -0.2505
24004DOD     C215832   6.942   7.458  17.965  0.1578  0.3747 -0.1144
24004DOD     C315833   6.679   7.108  18.074  0.1140  0.3511 -0.1193
24005DOD     C115834   2.660   7.170   3.618 -0.1824  0.0942  0.0565
24005DOD     C215835   2.707   7.021   3.192  0.3069  0.0816  0.0450
24005DOD     C315836   2.640   6.746   2.834 -0.0494 -0.0748 -0.1479
24006DOD     C115837  29.667   6.199   7.750  0.0921 -0.1635  0.0185
24006DOD     C215838  29.918   6.307   8.171 -0.3258  0.0206  0.0369
24006DOD     C315839  30.081   6.692   8.402  0.1966 -0.4061 -0.0314
24007DOD     C115840  20.787   8.556  27.292 -0.1037  0.2631  0.0588
24007DOD     C215841  20.546   8.596  27.701 -0.0151 -0.3849  0.1665
24007DOD     C315842  20.275   8.806  28.084  0.1178  0.0682  0.1837
24008DOD     C115843  10.278  23.296   7.666 -0.2559  0.2476  0.1929
24008DOD     C215844   9.925  23.009   7.423 -0.0462 -0.0762 -0.4212
24008DOD     C315845   9.798  23.084   6.986  0.0235 -0.1989  0.2644
24009DOD     C115846  23.792  21.973  18.040 -0.2540 -0.0395 -0.2011
24009DOD     C215847  23.418  21.679  18.079 -0.5050  0.2267 -0.1435
24009DOD     C315848  23.267  21.251  18.002 -0.1131  0.2849  0.0635
24010DOD     C115849  26.719  21.193   8.447  0.3364  0.0068 -0.1207
24010DOD     C215850  26.615  21.663   8.464  0.0733 -0.0543 -0.0418
24010DOD     C315851  26.702  21.941   8.812 -0.0386 -0.0384 -0.1989
24011DOD     C115852  19.841  28.494   5.743 -0.2821 -0.4248 -0.5230
24011DOD     C215853  19.967  28.286   6.168  0.2519  0.1171  0.0871
24011DOD     C315854  20.264  27.999   6.431  0.1827 -0.4596  0.1197
24012DOD     C115855   4.764  16.652  23.473 -0.1587 -0.1585 -0.1145
24012DOD     C215856   4.734  16.946  23.081  0.1352 -0.0739  0.1151
24012DOD     C315857   4.589  17.156  22.648  0.0744 -0.0704  0.0524
24013DOD     C115858  21.912   2.047  22.818  0.0501 -0.1469  0.0720
24013DOD     C215859  21.545   2.263  22.567  0.2442  0.0427 -0.2654
24013DOD     C315860  21.034   2.364  22.464  0.0935  0.3141  0.1991
24014DOD     C115861   4.470   5.528  17.440 -0.2033 -0.1586  0.1964
24014DOD     C215862   4.321   5.955  17.252 -0.0353 -0.1305  0.1862
24014DOD     C315863   3.886   6.274  17.293  0.2706 -0.1418 -0.2913
24015DOD     C115864  12.967  21.196   3.016  0.1140  0.2234 -0.4382
24015DOD     C215865  13.250  20.890   3.316  0.0078 -0.1058  0.1583
24015DOD     C315866  13.596  20.810   3.555  0.0284 -0.0537  0.0788
24016DOD     C115867  13.182  12.357   7.711  0.1070 -0.1839 -0.0373
24016DOD     C215868  13.061  11.962   7.494 -0.0337  0.2594  0.3122
24016DOD     C315869  13.120  11.569   7.253  0.0368 -0.0275 -0.1080
24017DOD     C115870  25.855  22.197  12.691 -0.0743  0.2295 -0.0999
24017DOD     C215871  26.216  22.138  12.874  0.2399  0.1278 -0.2066
24017DOD     C315872  26.660  21.960  12.770 -0.1158 -0.0171 -0.0532
24018DOD     C115873  25.341   2.661   2.183 -0.0412 -0.0289 -0.0862
24018DOD     C215874  25.302   2.967   2.513 -0.0352 -0.1377 -0.0853
24018DOD     C315875  25.264   3.166   3.001 -0.1722 -0.3878  0.0191
24019DOD     C115876  26.865  17.724   2.742 -0.0451  0.1568 -0.2581
24019DOD     C215877  26.842  17.839   3.231 -0.0378  0.1355 -0.0169
24019DOD     C315878  26.756  17.990   3.633  0.0251  0.0601 -0.3172
24020DOD     C115879  20.591  23.228   9.251 -0.0297 -0.2656 -0.0653
24020DOD     C215880  20.351  23.484   8.923  0.0974  0.0891  0.0418
24020DOD     C315881  20.344  23.756   8.523  0.2990 -0.4720 -0.1897
24021DOD     C115882   0.872  23.874  27.511  0.1226  0.1584 -0.1543
24021DOD     C215883   1.202  23.500  27.402 -0.2579 -0.1851  0.1883
24021DOD     C315884   1.493  23.270  27.085  0.5473 -0.1789  0.1838
24022DOD     C115885  27.568  17.189  22.758 -0.0730 -0.0414 -0.1684
24022DOD     C215886  27.191  17.136  22.360  0.0633 -0.3521 -0.0561
24022DOD     C315887  27.250  16.846  21.991  0.0732  0.1001 -0.2041
24023DOD     C115888  27.790  20.561   2.996  0.1971 -0.0087  0.0330
24023DOD     C215889  27.486  20.410   2.708  0.0165 -0.2798 -0.1011
24023DOD     C315890  27.123  20.332   2.445  0.1168  0.2074  0.1677
24024DOD     C115891   9.524   6.997  13.724 -0.2501  0.0688  0.0868
24024DOD     C215892   9.405   6.571  13.585  0.0861  0.1974  0.0914
24024DOD     C315893   9.044   6.322  13.479 -0.0111 -0.2890  0.0154
24025DOD     C115894  12.053  14.937   3.421 -0.1734 -0.0459 -0.0406
24025DOD     C215895  11.845  15.224   3.621  0.3375  0.0585  0.1978
24025DOD     C315896  11.723  15.664   3.812 -0.0192  0.1252  0.0596
24026DOD     C115897   2.463  24.428   5.072 -0.2172  0.1993  0.2226
24026DOD     C215898   2.760  24.610   5.409 -0.1216 -0.1878  0.2404
24026DOD     C315899   3.202  24.424   5.436 -0.1746 -0.1878 -0.0372
24027DOD     C115900   7.371   5.009  13.295 -0.0794  0.1209 -0.0547
24027DOD     C215901   7.350   4.558  13.264  0.4012 -0.3655  0.0536
24027DOD     C315902   7.382   4.127  13.341  0.1665  0.2356  0.4165
24028DOD     C115903   8.893   8.825  18.268 -0.0062  0.4146 -0.1942
24028DOD     C215904   8.855   8.420  18.152  0.1018 -0.2820  0.1741
24028DOD     C315905   9.141   8.096  17.942 -0.0427 -0.1377  0.1813
24029DOD     C115906  21.458   3.075  10.203  0.1213 -0.1115  0.0919
24029DOD     C215907  21.719   3.146   9.784  0.1523 -0.4734  0.1288
24029DOD     C315908  21.668   3.220   9.314 -0.2837 -0.3174 -0.2354
24030DOD     C115909   9.993   0.639  27.849  0.2422  0.0558 -0.1300
24030DOD     C215910  10.094   1.047  27.979 -0.0738  0.2444  0.0279
24030DOD     C315911  10.196   1.459  28.180  0.2144  0.0774 -0.1492
24031DOD     C115912  16.798  14.277   0.386  0.0949 -0.2319  0.1597
24031DOD     C215913  16.343  14.532   0.430 -0.2777  0.1648  0.1559
24031DOD     C315914  16.291  14.937   0.499  0.0190 -0.0809  0.0116
24032DOD     C115915  19.004  12.231  24.857  0.0128  0.2402  0.1197
24032DOD     C215916  18.805  12.673  24.893 -0.0451 -0.1664 -0.0022
24032DOD     C315917  18.563  13.059  25.016  0.0559 -0.0660  0.2107
24033DOD     C115918  13.065   1.940  17.521  0.0427 -0.0198  0.1671
24033DOD     C215919  12.783   2.126  17.285  0.1242  0.0964 -0.1837
24033DOD     C315920  12.380   2.314  17.242 -0.0177  0.0536 -0.1056
24034DOD     C115921  26.043  20.662  12.380 -0.1860 -0.1425  0.0272
24034DOD     C215922  25.607  20.863  12.290 -0.0931 -0.0971  0.0448
24034DOD     C315923  25.198  20.987  12.137 -0.1847 -0.1180  0.0167
24035DOD     C115924  13.211  18.661   7.847 -0.1152 -0.0281 -0.2321
24035DOD     C215925  13.012  18.604   8.273  0.1351 -0.1607 -0.4554
24035DOD     C315926  12.952  18.256   8.611 -0.0208  0.0600 -0.3264
24036DOD     C115927   9.282  18.969  30.212 -0.2871 -0.1129 -0.1129
24036DOD     C215928   8.833  19.035  30.302  0.0873 -0.1215 -0.2169
24036DOD     C315929   8.650  19.185  29.885  0.0943  0.0424  0.2065
24037DOD     C115930  16.622  26.396  14.942 -0.1487 -0.0226  0.2017
24037DOD     C215931  16.835  26.639  14.638  0.1452  0.0404  0.1241
24037DOD     C315932  17.231  26.544  14.412  0.0193 -0.0789  0.3315
24038DOD     C115933  13.299  21.857  19.816 -0.2209  0.0573 -0.0498
24038DOD     C215934  13.059  21.488  19.910 -0.0380  0.1446 -0.1763
24038DOD     C315935  13.018  21.109  20.227 -0.1712  0.1035 -0.2831
24039DOD     C115936  27.325  12.350  18.289 -0.1367  0.1968  0.0324
24039DOD     C215937  27.297  12.552  18.722  0.4834 -0.0654 -0.3760
24039DOD     C315938  27.138  12.742  19.115 -0.1923 -0.0762 -0.1774
24040DOD     C115939  16.098   4.662  17.010 -0.0889  0.0450 -0.2588
24040DOD     C215940  16.313   4.990  17.137  0.4813 -0.1310 -0.0070
24040DOD     C315941  16.499   5.261  17.475 -0.0966 -0.0404 -0.0285
24041DOD     C115942  23.329  10.271  14.680 -0.0672 -0.1649  0.2536
24041DOD     C215943  23.480  10.608  14.946  0.1532  0.3131  0.0444
24041DOD     C315944  23.258  10.875  15.213 -0.2216  0.2597 -0.0009
24042DOD     C115945  22.162  12.702   1.828 -0.0024  0.2746  0.1223
24042DOD     C215946  21.788  12.579   2.146  0.0214 -0.2581  0.1423
24042DOD     C315947  21.380  12.517   2.361 -0.0090  0.1357 -0.1647
24043DOD     C115948  16.287   8.172  28.700 -0.0835  0.0579 -0.0409
24043DOD     C215949  15.936   7.879  28.646 -0.0715  0.0784 -0.2868
24043DOD     C315950  15.739   7.449  28.827 -0.0101 -0.1133 -0.3638
24044DOD     C115951  22.536   6.126   3.397  0.1431  0.0116  0.1199
24044DOD     C215952  22.525   6.317   2.932  0.2434  0.1571 -0.1296
24044DOD     C315953  22.748   6.460   2.522 -0.3100 -0.0296  0.0450
24045DOD     C115954  15.757   7.220  22.776 -0.1946  0.1919  0.2190
24045DOD     C215955  15.689   7.652  22.625 -0.2342 -0.2363  0.0885
24045DOD     C315956  15.533   7.977  22.328 -0.2267  0.4725  0.0731
24046DOD     C115957   7.942  24.708  24.146  0.0771  0.1904  0.1628
24046DOD     C215958   8.396  24.585  24.098  0.0441  0.0142  0.0047
24046DOD     C315959   8.835  24.333  24.129  0.2188  0.0078 -0.0655
24047DOD     C115960   0.406   9.281   7.875  0.4206 -0.1316 -0.0212
24047DOD     C215961   0.528   8.820   7.827  0.3478  0.0332  0.0241
24047DOD     C315962   0.889   8.620   8.024 -0.0008  0.0066  0.0224
24048DOD     C115963  15.217  26.998   1.185 -0.1538  0.0252  0.0204
24048DOD     C215964  15.193  27.212   1.575 -0.0676 -0.2093  0.0871
24048DOD     C315965  15.094  27.544   1.847 -0.0752 -0.3691 -0.2201
24049DOD     C115966  23.429  25.197  26.771  0.0310  0.1874 -0.0539
24049DOD     C215967  23.336  25.599  26.605  0.0275 -0.0486 -0.5256
24049DOD     C315968  23.112  25.959  26.893 -0.1959 -0.0801 -0.2168
24050DOD     C115969  26.368  23.537  20.023 -0.0356 -0.3399  0.0892
24050DOD     C215970  26.224  23.910  20.277 -0.5367  0.1419  0.2052
24050DOD     C315971  25.876  24.205  20.339  0.2752  0.1025 -0.2333
24051DOD     C115972  23.754   7.682  23.438 -0.0574 -0.0824 -0.3205
24051DOD     C215973  23.791   7.746  23.901 -0.0668 -0.1352  0.1019
24051DOD     C315974  23.520   7.793  24.307 -0.1118 -0.0060  0.0138
24052DOD     C115975  27.560  21.591   3.760 -0.2303 -0.3333 -0.0212
24052DOD     C215976  27.546  21.491   3.277  0.2516 -0.0172 -0.0450
24052DOD     C315977  27.644  21.319   2.839 -0.1138 -0.1398 -0.1537
24053DOD     C115978  11.144  24.965  23.200 -0.0318  0.2442 -0.0359
24053DOD     C215979  11.389  24.915  22.776  0.2741  0.0693 -0.3735
24053DOD     C315980  11.731  24.684  22.443 -0.0763 -0.0382  0.0536
24054DOD     C115981  27.653  17.662   3.486 -0.0264  0.0031 -0.0730
24054DOD     C215982  27.246  17.656   3.721 -0.2175  0.0281  0.2043
24054DOD     C315983  27.003  17.812   4.098 -0.1559  0.0937  0.0756
24055DOD     C115984  29.295  13.882  18.502 -0.1886  0.1214 -0.0506
24055DOD     C215985  29.098  13.780  18.197  0.1978  0.0363  0.0033
24055DOD     C315986  29.184  13.725  17.766  0.2174  0.1654  0.2052
24056DOD     C115987  25.029  13.664   4.745 -0.3970 -0.0547  0.0371
24056DOD     C215988  25.105  13.209   4.616  0.2719 -0.3698 -0.0575
24056DOD     C315989  24.994  12.865   4.363 -0.1379  0.0892  0.1263
24057DOD     C115990   3.857  27.809  23.387  0.3082 -0.3947 -0.3416
24057DOD     C215991   3.848  28.227  23.597  0.0700  0.0253  0.0922
24057DOD     C315992   3.484  28.496  23.716  0.0164  0.0333  0.0814
24058DOD     C115993  19.951  22.180  15.350  0.1343 -0.0273  0.1939
24058DOD     C215994  20.391  21.980  15.303 -0.0846 -0.3340  0.1079
24058DOD     C315995  20.692  21.663  15.524  0.2298  0.0660  0.0093
24059DOD     C115996  26.278   7.211  15.878 -0.0583  0.0262 -0.2056
24059DOD     C215997  26.058   7.639  15.770 -0.1734 -0.0843 -0.0809
24059DOD     C315998  25.879   7.763  15.321  0.1351 -0.0612 -0.1048
24060DOD     C115999  24.191   2.564  19.973 -0.2765 -0.3256  0.2748
24060DOD     C216000  24.327   2.480  19.558 -0.0921 -0.1389  0.0866
24060DOD     C316001  24.540   2.221  19.222  0.1587  0.2700 -0.0254
24061DOD     C116002  19.310  25.319   7.595  0.3488  0.1058 -0.1807
24061DOD     C216003  19.283  25.739   7.768 -0.0222 -0.1519  0.5798
24061DOD     C316004  19.615  25.990   8.015  0.2304  0.1331 -0.1855
24062DOD     C116005   0.984  13.488   4.503  0.0312  0.0981 -0.0918
24062DOD     C216006   0.539  13.797   4.545  0.0131 -0.2326 -0.5122
24062DOD     C316007   0.240  14.053   4.846 -0.1641  0.3042  0.0474
24063DOD     C116008  15.265  17.187   6.068 -0.0993 -0.2882  0.0689
24063DOD     C216009  15.180  16.979   6.518  0.0620 -0.3509  0.2596
24063DOD     C316010  15.426  16.732   6.839  0.1546 -0.3612 -0.0888
24064DOD     C116011  14.845   4.420  20.336 -0.1669  0.0800 -0.2118
24064DOD     C216012  15.051   4.544  20.011 -0.2460  0.0253 -0.1462
24064DOD     C316013  14.959   4.646  19.556  0.1169  0.1314  0.0353
24065DOD     C116014  20.715  19.363  11.725  0.0866  0.0641  0.0223
24065DOD     C216015  20.324  19.442  11.942 -0.3347  0.1977 -0.2481
24065DOD     C316016  19.985  19.705  11.828 -0.3038 -0.4394  0.1813
24066DOD     C116017  28.555  11.538  27.993  0.0309 -0.0783  0.0031
24066DOD     C216018  28.197  11.721  27.745  0.0052  0.0764 -0.0034
24066DOD     C316019  27.716  11.731  27.884  0.1998  0.3566  0.0929
24067DOD     C116020  10.260  29.044  11.384  0.2808  0.2160  0.4127
24067DOD     C216021  10.665  28.932  11.198 -0.0499  0.2234  0.1399
24067DOD     C316022  10.806  28.788  10.761  0.0102  0.1984 -0.1371
24068DOD     C116023   5.756  18.962  11.299 -0.0607  0.1757  0.0233
24068DOD     C216024   5.620  19.351  11.589  0.0310 -0.1300  0.3421
24068DOD     C316025   5.848  19.759  11.668 -0.2027 -0.0578 -0.1321
24069DOD     C116026  25.100  18.978  26.631 -0.4935 -0.1934 -0.1873
24069DOD     C216027  25.414  18.891  26.905 -0.1036  0.1721  0.0558
24069DOD     C316028  25.456  18.931  27.356 -0.0548 -0.1293  0.0691
24070DOD     C116029  27.343   9.492  16.983 -0.0156 -0.0617 -0.4371
24070DOD     C216030  27.118   9.247  17.343  0.0331  0.2606  0.0429
24070DOD     C316031  27.333   9.070  17.713 -0.1713 -0.0769 -0.1637
24071DOD     C116032  26.124  16.751   0.717  0.2765 -0.3321  0.0773
24071DOD     C216033  26.356  17.092   0.910  0.0562  0.0237 -0.0131
24071DOD     C316034  26.363  17.540   0.751  0.1708  0.0135 -0.0654
24072DOD     C116035  15.843  28.864   4.461 -0.2584 -0.1983  0.4838
24072DOD     C216036  16.133  28.861   4.075 -0.0703  0.0869  0.0541
24072DOD     C316037  16.067  28.991   3.621 -0.3135  0.0666 -0.0241
24073DOD     C116038   4.578  18.045  22.702 -0.2294 -0.2128  0.2469
24073DOD     C216039   4.707  18.228  23.095  0.1933 -0.0495 -0.4408
24073DOD     C316040   4.621  18.649  23.267 -0.3123 -0.4059 -0.0106
24074DOD     C116041  16.801  11.982   6.800 -0.0991 -0.1298  0.0520
24074DOD     C216042  16.815  11.493   6.883  0.0767  0.0430  0.1565
24074DOD     C316043  16.465  11.187   6.896 -0.1455 -0.0659 -0.0022
24075DOD     C116044   8.203  20.708  13.509 -0.1202 -0.3080  0.1077
24075DOD     C216045   8.058  21.086  13.267 -0.1723  0.0821  0.6044
24075DOD     C316046   7.774  21.399  13.090 -0.0089 -0.0257  0.0647
24076DOD     C116047  23.789  19.954   0.591 -0.0855  0.2335  0.0422
24076DOD     C216048  23.840  19.607   0.297 -0.2511 -0.1031  0.2480
24076DOD     C316049  23.921  19.390  30.178 -0.2499 -0.1795  0.0507
24077DOD     C116050   1.618  10.039  24.190 -0.2897 -0.1154 -0.2369
24077DOD     C216051   1.519  10.443  24.034  0.1414  0.3597 -0.1183
24077DOD     C316052   1.341  10.843  23.912  0.1015  0.0211 -0.0258
24078DOD     C116053  17.404  28.835  22.566 -0.1117  0.2456 -0.2283
24078DOD     C216054  16.994  28.818  22.428  0.4185 -0.4346  0.0463
24078DOD     C316055  16.571  28.735  22.147 -0.3365 -0.1811  0.1899
24079DOD     C116056  24.720   6.409   5.010 -0.0260 -0.3089 -0.0117
24079DOD     C216057  24.958   6.467   4.518  0.0196  0.2567 -0.3958
24079DOD     C316058  25.173   6.806   4.310  0.1039  0.1176 -0.1336
24080DOD     C116059   7.199  22.788  26.992  0.1793  0.2304 -0.3116
24080DOD     C216060   7.390  23.062  27.319 -0.0868 -0.0418  0.1302
24080DOD     C316061   7.338  22.961  27.773  0.1309 -0.3242 -0.1933
24081DOD     C116062   7.312  20.675   5.608 -0.1101  0.0419 -0.0860
24081DOD     C216063   7.695  20.468   5.702 -0.0039 -0.1138  0.1760
24081DOD     C316064   8.108  20.398   5.455  0.1348  0.2184 -0.2917
24082DOD     C116065  27.642  13.446  29.656 -0.3747  0.0246  0.0104
24082DOD     C216066  27.677  13.689  30.053  0.0215  0.1811 -0.2080
24082DOD     C316067  27.630  14.122  30.169  0.1589  0.1815 -0.1230
24083DOD     C116068   6.313  10.119   3.343  0.0788 -0.1314 -0.1297
24083DOD     C216069   5.844  10.114   3.502 -0.1233  0.2186  0.0197
24083DOD     C316070   5.566   9.809   3.790 -0.1044  0.0601 -0.0816
24084DOD     C116071  21.550  26.766  23.627 -0.0678 -0.0313  0.1081
24084DOD     C216072  21.206  27.029  23.465  0.0254 -0.0584  0.0167
24084DOD     C316073  20.878  27.190  23.738 -0.0416 -0.1622 -0.1413
24085DOD     C116074  29.782  11.542  17.217 -0.2108 -0.3206  0.1425
24085DOD     C216075  29.619  11.884  17.477  0.3750  0.0236 -0.2596
24085DOD     C316076  29.568  12.322  17.642 -0.2077  0.2572 -0.0793
24086DOD     C116077   2.690   2.878   3.826 -0.2197 -0.0032 -0.1997
24086DOD     C216078   2.871   2.866   3.374 -0.0317 -0.1879 -0.3246
24086DOD     C316079   2.701   3.087   3.013 -0.0739 -0.1363  0.0255
24087DOD     C116080  11.489   3.938  14.299 -0.3707 -0.1951  0.2486
24087DOD     C216081  11.059   4.213  14.442 -0.2047  0.0704  0.0906
24087DOD     C316082  10.625   4.372  14.486 -0.0262  0.0717  0.0227
24088DOD     C116083  14.553   3.513  19.969  0.3666 -0.1456  0.0300
24088DOD     C216084  14.260   3.144  19.980 -0.0527  0.1176 -0.1655
24088DOD     C316085  13.780   3.048  20.086  0.0569 -0.1934 -0.0840
24089DOD     C116086   1.688  15.526  17.279 -0.1862 -0.0431  0.0572
24089DOD     C216087   1.921  15.242  17.547  0.0914 -0.1173  0.0229
24089DOD     C316088   2.309  15.120  17.684 -0.2083 -0.3013 -0.1837
24090DOD     C116089  17.589   1.030  14.084  0.0724 -0.0141 -0.1725
24090DOD     C216090  18.009   1.082  13.955  0.0819  0.1585 -0.4937
24090DOD     C316091  18.360   0.848  14.047  0.1415  0.1739  0.0707
24091DOD     C116092  21.977  29.606  29.368 -0.2294  0.1950  0.1927
24091DOD     C216093  22.188  29.884  29.659  0.0460 -0.1374 -0.0030
24091DOD     C316094  22.376  30.215  29.871 -0.1369 -0.2916 -0.1255
24092DOD     C116095  22.582  13.788   9.753  0.2980  0.1626  0.0653
24092DOD     C216096  22.175  13.954   9.943  0.0247 -0.0205 -0.0706
24092DOD     C316097  21.779  14.159  10.002  0.1623  0.3692 -0.3170
24093DOD     C116098   7.025   9.974  23.164 -0.1526  0.1088 -0.0206
24093DOD     C216099   6.806   9.542  23.020  0.0705  0.0369 -0.0021
24093DOD     C316100   6.967   9.086  22.997 -0.0768  0.1530  0.1388
24094DOD     C116101  24.982  14.862  23.586 -0.1068 -0.0230 -0.0102
24094DOD     C216102  25.324  14.959  23.814  0.0358  0.0982 -0.2169
24094DOD     C316103  25.769  14.754  23.936  0.1522 -0.2533 -0.0698
24095DOD     C116104  19.563   1.831  27.652 -0.1431  0.0003 -0.1833
24095DOD     C216105  19.786   1.607  27.971 -0.0152 -0.0251 -0.0228
24095DOD     C316106  20.051   1.259  28.098 -0.0805 -0.2844  0.0642
24096DOD     C116107  20.060  18.827   0.665  0.2784 -0.0655  0.1799
24096DOD     C216108  19.950  19.034   1.072  0.2211  0.1099  0.0974
24096DOD     C316109  19.577  19.080   1.275 -0.2273 -0.0626  0.4946
24097DOD     C116110  25.090   5.128  21.035  0.1562 -0.0116  0.0520
24097DOD     C216111  24.945   5.565  20.979  0.0540 -0.0264 -0.1819
24097DOD     C316112  25.043   5.896  21.196 -0.1419 -0.2428  0.0153
24098DOD     C116113  18.275  14.717  11.359 -0.0215 -0.1797  0.1858
24098DOD     C216114  18.436  15.209  11.392 -0.0277 -0.2091 -0.1088
24098DOD     C316115  18.611  15.584  11.559  0.1761  0.0141 -0.0972
24099DOD     C116116   1.653  10.270  21.412  0.3245  0.1418 -0.1080
24099DOD     C216117   1.256  10.246  21.166 -0.1660  0.2276  0.0632
24099DOD     C316118   0.782  10.307  21.214  0.0071 -0.1141 -0.0520
24100DOD     C116119   1.597   3.163  29.669 -0.0689  0.0251 -0.4515
24100DOD     C216120   2.013   2.994  29.651 -0.1146  0.0951  0.0930
24100DOD     C316121   2.248   2.704  29.388 -0.0244  0.0391 -0.0411
24101DOD     C116122  20.183  24.532  18.279  0.3453 -0.0998 -0.1726
24101DOD     C216123  20.441  24.417  18.679 -0.0683  0.1194  0.0745
24101DOD     C316124  20.742  24.061  18.657  0.2283 -0.0598  0.0554
24102DOD     C116125   4.492   4.005   5.598 -0.1155  0.0302  0.1816
24102DOD     C216126   4.450   4.080   6.073  0.1868 -0.0113 -0.0434
24102DOD     C316127   4.597   3.867   6.437  0.0348  0.1977 -0.0491
24103DOD     C116128  11.933  21.617  18.357 -0.0375 -0.2910  0.3146
24103DOD     C216129  12.153  21.903  18.062  0.1785 -0.1004 -0.4633
24103DOD     C316130  12.494  21.590  17.878  0.2122 -0.0386  0.0660
24104DOD     C116131  11.013   5.176  29.088 -0.1052  0.1784  0.0262
24104DOD     C216132  11.263   5.256  28.692 -0.0030  0.2734 -0.0330
24104DOD     C316133  11.711   5.376  28.787 -0.1255  0.1012 -0.1852
24105DOD     C116134  19.133  10.771  23.049  0.0153  0.0651  0.0090
24105DOD     C216135  19.061  10.352  22.952  0.0612 -0.0054 -0.2013
24105DOD     C316136  19.378  10.039  22.766 -0.3149  0.2498 -0.0201
24106DOD     C116137   3.149  14.866  21.498 -0.3331  0.0224 -0.0739
24106DOD     C216138   3.209  14.643  21.883  0.2995  0.2022  0.0558
24106DOD     C316139   3.283  14.216  22.111 -0.0013  0.2349 -0.1317
24107DOD     C116140  12.969  25.578  28.780 -0.0166 -0.0537  0.2102
24107DOD     C216141  13.213  26.022  28.789 -0.0296 -0.1691 -0.0129
24107DOD     C316142  13.443  26.320  29.061 -0.2797  0.1766 -0.1270
24108DOD     C116143  24.260  19.189  24.982  0.0572 -0.0637  0.2300
24108DOD     C216144  24.712  19.352  24.792 -0.0213 -0.3145  0.2421
24108DOD     C316145  24.740  19.759  24.595  0.2035 -0.1718  0.1149
24109DOD     C116146  11.602  12.725   1.679 -0.0700 -0.2748 -0.0498
24109DOD     C216147  11.726  12.977   1.308 -0.1519  0.0144  0.1049
24109DOD     C316148  11.479  13.056   0.886  0.1081 -0.0354 -0.0515
24110DOD     C116149   0.733  24.030  13.675  0.1580 -0.0436  0.0839
24110DOD     C216150   0.616  24.467  13.453 -0.1847 -0.3262  0.1147
24110DOD     C316151   0.288  24.728  13.168  0.2074  0.0879 -0.0638
24111DOD     C116152   1.158  15.207  23.442 -0.0953 -0.0263  0.0502
24111DOD     C216153   1.058  15.620  23.422 -0.1084  0.0864 -0.3199
24111DOD     C316154   0.693  15.828  23.262  0.1960 -0.1047 -0.1790
24112DOD     C116155  17.726   6.054  26.062 -0.2343  0.0466 -0.3588
24112DOD     C216156  17.305   5.950  26.151  0.2885  0.0883  0.2434
24112DOD     C316157  16.891   5.857  26.217 -0.1362  0.1334 -0.1094
24113DOD     C116158  13.249  17.176  23.171  0.4453  0.2777  0.2655
24113DOD     C216159  13.171  16.936  23.536  0.3812 -0.0992 -0.1844
24113DOD     C316160  13.330  16.667  23.889 -0.1169 -0.3825  0.2591
24114DOD     C116161  12.117   2.691   2.558  0.2249  0.0086 -0.1056
24114DOD     C216162  12.223   2.697   2.065  0.1349  0.1368 -0.3940
24114DOD     C316163  12.257   2.567   1.582  0.2668 -0.2507  0.1635
24115DOD     C116164  14.293  19.251  22.909  0.0543 -0.2432  0.3269
24115DOD     C216165  14.210  18.829  22.776 -0.0571  0.0819  0.1848
24115DOD     C316166  14.081  18.393  22.740  0.0971  0.0644 -0.0774
24116DOD     C116167  18.971   6.760  29.795 -0.0802  0.0162 -0.3902
24116DOD     C216168  19.213   6.312  29.734  0.2373 -0.2239  0.1882
24116DOD     C316169  19.435   5.973  29.957 -0.0074  0.2997  0.1697
24117DOD     C116170  25.221  18.403  30.332 -0.0805 -0.0782  0.1306
24117DOD     C216171  24.856  18.116  30.198 -0.0680 -0.0523 -0.3214
24117DOD     C316172  24.404  18.310  30.128  0.0284  0.0709  0.2993
24118DOD     C116173   4.908  28.403   5.319  0.3051  0.0809 -0.1848
24118DOD     C216174   5.091  28.490   5.754  0.0398 -0.2547  0.0823
24118DOD     C316175   5.335  28.768   6.083  0.1617  0.0209  0.0122
24119DOD     C116176  13.282   7.731   8.719  0.1136 -0.0484 -0.0309
24119DOD     C216177  13.063   7.761   8.320 -0.0984  0.0901  0.0469
24119DOD     C316178  12.985   7.875   7.877 -0.5119  0.2018  0.2137
24120DOD     C116179   6.525   2.732   1.706 -0.2540 -0.1965  0.2046
24120DOD     C216180   6.617   2.367   2.064 -0.1770 -0.1465  0.1485
24120DOD     C316181   6.587   1.917   2.096  0.1532 -0.4807 -0.1221
24121DOD     C116182  27.507   5.175  16.930  0.0127 -0.2291 -0.1254
24121DOD     C216183  27.314   5.496  17.150 -0.2766 -0.0114 -0.2671
24121DOD     C316184  27.093   5.807  17.394 -0.0333  0.0145 -0.0446
24122DOD     C116185   1.339  19.910  18.540 -0.0642 -0.0308  0.0515
24122DOD     C216186   1.625  19.747  18.175  0.1784  0.0793  0.0970
24122DOD     C316187   1.882  19.910  17.825  0.1542  0.4433  0.0491
24123DOD     C116188  16.244  10.971  13.624  0.1818 -0.2420 -0.1437
24123DOD     C216189  15.854  10.922  13.430 -0.0795 -0.1426 -0.0509
24123DOD     C316190  15.388  10.715  13.578 -0.2083 -0.1466  0.2713
24124DOD     C116191  21.620  19.714  14.324  0.0648  0.0272 -0.1810
24124DOD     C216192  21.921  19.396  14.498  0.0758  0.1559  0.2415
24124DOD     C316193  22.005  18.916  14.519  0.1070  0.0430 -0.0964
24125DOD     C116194  27.692  18.401   8.688  0.3951  0.0260 -0.1953
24125DOD     C216195  27.441  18.548   8.342  0.2002 -0.1282  0.2006
24125DOD     C316196  27.221  18.834   8.021 -0.1553 -0.1224 -0.2697
24126DOD     C116197  15.679   4.634  24.849 -0.2157 -0.0672 -0.1239
24126DOD     C216198  16.145   4.615  24.980  0.0555  0.2196  0.1607
24126DOD     C316199  16.451   4.928  25.164  0.0489 -0.2998  0.0833
24127DOD     C116200   9.987  22.503  25.512  0.0275  0.0461  0.1009
24127DOD     C216201   9.611  22.608  25.761  0.0916  0.0580  0.0989
24127DOD     C316202   9.165  22.607  25.828  0.2807 -0.2250 -0.0329
24128DOD     C116203  22.100  16.933   2.801 -0.0099 -0.0977 -0.0482
24128DOD     C216204  22.326  16.628   3.131  0.0120  0.3430  0.0957
24128DOD     C316205  22.403  16.309   3.488 -0.0458  0.0364  0.1711
24129DOD     C116206   7.692   0.540   5.536  0.1391 -0.2846  0.0389
24129DOD     C216207   7.884   0.874   5.834 -0.0608  0.1011 -0.1151
24129DOD     C316208   8.029   0.923   6.273  0.2172  0.2277 -0.1395
24130DOD     C116209   7.297  20.725  19.341  0.1754  0.0986 -0.2774
24130DOD     C216210   7.368  20.814  19.775 -0.0888 -0.0740 -0.2334
24130DOD     C316211   7.425  21.177  20.092  0.1180  0.4430  0.1731
24131DOD     C116212  19.430  15.696  17.415 -0.0020  0.0451 -0.2465
24131DOD     C216213  19.049  15.583  17.700 -0.0049 -0.2317  0.0104
24131DOD     C316214  18.811  15.284  17.959  0.1311  0.0698  0.1150
24132DOD     C116215  17.003  24.439  17.427  0.1787  0.2168 -0.1190
24132DOD     C216216  16.590  24.371  17.234  0.2099  0.1119 -0.1067
24132DOD     C316217  16.297  24.542  16.936 -0.1581 -0.0532  0.0279
24133DOD     C116218   3.364  12.369  28.597  0.2552 -0.1138  0.0917
24133DOD     C216219   3.016  12.102  28.427 -0.0860  0.3442 -0.2484
24133DOD     C316220   2.841  11.750  28.204 -0.1108 -0.1669 -0.1897
24134DOD     C116221  11.300  14.855  20.601 -0.1455  0.3838  0.1933
24134DOD     C216222  11.396  14.735  20.159 -0.0351 -0.0836  0.1113
24134DOD     C316223  11.220  14.690  19.733 -0.2837  0.0246 -0.1766
24135DOD     C116224   2.664  28.383  13.123  0.1508 -0.0890  0.3895
24135DOD     C216225   2.688  28.200  12.707 -0.2245  0.3296 -0.4067
24135DOD     C316226   2.565  28.357  12.298  0.0290  0.2240 -0.2434
24136DOD     C116227   8.614  15.373   9.208  0.2829 -0.0627 -0.0866
24136DOD     C216228   8.493  15.203   9.627 -0.1739  0.2764  0.2092
24136DOD     C316229   8.451  15.046  10.013  0.2294 -0.1410  0.1083
24137DOD     C116230  26.834   1.019  15.234 -0.1094  0.0238 -0.1427
24137DOD     C216231  26.703   1.125  15.684 -0.1033  0.0647  0.1102
24137DOD     C316232  26.506   1.481  15.861  0.0942 -0.2130  0.0045
24138DOD     C116233   2.389  24.453  24.351 -0.4589  0.1571 -0.0814
24138DOD     C216234   2.768  24.619  24.612  0.0297  0.0011  0.1020
24138DOD     C316235   3.127  24.559  24.931  0.0296  0.0219 -0.0574
24139DOD     C116236   6.912  29.648  15.076  0.0599 -0.2741  0.0237
24139DOD     C216237   6.730  30.080  15.040 -0.2920 -0.1510 -0.3123
24139DOD     C316238   6.382  30.269  14.912  0.2541 -0.0146  0.0015
24140DOD     C116239  15.779  13.894  29.952 -0.1792  0.0446  0.3928
24140DOD     C216240  16.223  13.945  30.101 -0.0506  0.2569  0.2878
24140DOD     C316241  16.600  13.870   0.071  0.1251 -0.0345 -0.0644
24141DOD     C116242  21.095  29.245  21.104  0.1455  0.1162 -0.0446
24141DOD     C216243  21.547  29.293  21.274 -0.0845  0.0125 -0.1194
24141DOD     C316244  21.840  29.560  21.539  0.3641 -0.0878  0.0802
24142DOD     C116245  22.570   5.376  29.373 -0.0708 -0.1041  0.1393
24142DOD     C216246  22.087   5.482  29.426 -0.1827  0.1603  0.2829
24142DOD     C316247  21.606   5.315  29.435 -0.1852  0.1522  0.0667
24143DOD     C116248  17.433  21.183  15.578 -0.0124 -0.1531  0.0051
24143DOD     C216249  17.038  20.926  15.655  0.0651 -0.0893 -0.1245
24143DOD     C316250  16.635  20.756  15.530  0.1997  0.1395  0.0460
24144DOD     C116251  14.106   1.253  16.071 -0.1104  0.1809 -0.1719
24144DOD     C216252  14.389   0.857  16.101 -0.0903 -0.1764 -0.0475
24144DOD     C316253  14.777   0.600  16.032  0.0408  0.0358 -0.2837
24145DOD     C116254   9.981  15.354  11.543 -0.0237 -0.0864  0.1021
24145DOD     C216255   9.992  15.284  11.995 -0.0116  0.0541 -0.2695
24145DOD     C316256  10.182  15.472  12.407  0.2115 -0.1058  0.1590
24146DOD     C116257  12.083  18.713   9.789 -0.2634 -0.0685  0.1613
24146DOD     C216258  12.182  18.772   9.368 -0.3187  0.0433  0.2806
24146DOD     C316259  11.820  18.488   9.130  0.0307 -0.2671 -0.2745
24147DOD     C116260  19.340  21.795   7.099 -0.1912  0.0110 -0.1391
24147DOD     C216261  19.656  22.059   7.289 -0.2274 -0.2597  0.0386
24147DOD     C316262  19.931  22.069   7.687  0.3878 -0.2932  0.0521
24148DOD     C116263  17.242   9.860  28.084 -0.1194 -0.0280 -0.2068
24148DOD     C216264  17.480  10.037  27.729  0.0392 -0.0237 -0.0945
24148DOD     C316265  17.900  10.212  27.553 -0.0529 -0.0956 -0.1192
24149DOD     C116266  16.629   7.139  27.868 -0.2458 -0.2525 -0.2511
24149DOD     C216267  16.216   7.153  27.689  0.3856 -0.0547  0.1349
24149DOD     C316268  15.733   7.184  27.754 -0.1299 -0.0890 -0.1806
24150DOD     C116269   8.284  25.675  19.458  0.3786  0.0801  0.1142
24150DOD     C216270   8.122  26.029  19.766  0.0908 -0.2626  0.2323
24150DOD     C316271   7.861  26.410  19.834 -0.0854  0.1579 -0.1643
24151DOD     C116272   4.298   7.480  26.993  0.1556  0.1790  0.4530
24151DOD     C216273   4.308   7.430  27.491  0.3126  0.0841 -0.0965
24151DOD     C316274   4.357   7.306  27.988 -0.1059 -0.0961 -0.2483
24152DOD     C116275  21.623  16.498  26.651 -0.0131 -0.1030  0.0015
24152DOD     C216276  21.557  16.218  26.327  0.0588  0.0874  0.0632
24152DOD     C316277  21.537  15.750  26.295 -0.2603 -0.1025  0.0929
24153DOD     C116278  21.317   2.686   9.217  0.1663  0.2501  0.3022
24153DOD     C216279  21.382   2.318   8.924 -0.0823  0.0436  0.1134
24153DOD     C316280  21.183   1.857   8.841  0.1629  0.3193 -0.0773
24154DOD     C116281  13.744  27.542   4.455  0.1742 -0.1756  0.1093
24154DOD     C216282  13.405  27.734   4.137  0.2218  0.0866  0.4276
24154DOD     C316283  13.262  28.066   3.823 -0.1250 -0.0002 -0.0180
24155DOD     C116284   3.859   3.458   8.898 -0.1982 -0.1820 -0.0243
24155DOD     C216285   3.940   3.336   8.458 -0.0877 -0.1097 -0.3014
24155DOD     C316286   3.921   3.244   8.022  0.1782 -0.0535  0.0826
24156DOD     C116287  18.819  13.595  11.404  0.1553 -0.0773  0.0867
24156DOD     C216288  18.543  13.302  11.635 -0.1555  0.2124  0.0321
24156DOD     C316289  18.291  12.960  11.533 -0.0024 -0.1259  0.1838
24157DOD     C116290   8.033  14.622  20.926 -0.2084 -0.3328 -0.2896
24157DOD     C216291   7.719  14.785  21.259 -0.1417  0.0260 -0.0056
24157DOD     C316292   7.365  15.049  21.369  0.2730  0.1474 -0.2880
24158DOD     C116293  22.042  25.780   1.661  0.3095 -0.0764 -0.3021
24158DOD     C216294  22.340  25.568   1.951  0.0356  0.2648  0.1281
24158DOD     C316295  22.777  25.491   1.940 -0.2753  0.0675  0.2316
24159DOD     C116296   5.127   2.350  10.947 -0.0327  0.1195  0.0977
24159DOD     C216297   5.101   1.908  11.038 -0.0209  0.1705 -0.1664
24159DOD     C316298   5.244   1.470  11.192  0.1363 -0.2654  0.2456
24160DOD     C116299  10.224  10.899   1.472 -0.5521  0.0717 -0.1110
24160DOD     C216300  10.215  10.595   1.722 -0.4107  0.1560  0.0586
24160DOD     C316301  10.106  10.214   1.982 -0.0483  0.2306 -0.0182
24161DOD     C116302   1.014  27.886   8.279  0.0642 -0.1041  0.4122
24161DOD     C216303   0.809  27.466   8.466  0.1496 -0.0566  0.1115
24161DOD     C316304   0.711  27.052   8.672 -0.1766  0.1906  0.0067
24162DOD     C116305  16.326   2.506  17.879  0.1599 -0.2253  0.1547
24162DOD     C216306  16.056   2.289  18.242 -0.0820  0.1282  0.1798
24162DOD     C316307  15.773   1.973  18.473  0.1013 -0.2346 -0.0175
24163DOD     C116308   6.779   9.076   7.506 -0.0700 -0.1392 -0.2055
24163DOD     C216309   6.699   8.885   7.937  0.1991  0.0451 -0.1111
24163DOD     C316310   6.793   8.427   7.968  0.2643  0.0563  0.0063
24164DOD     C116311  29.075   7.744   8.021 -0.1714  0.3220 -0.0703
24164DOD     C216312  28.907   7.867   7.587 -0.0253  0.0735 -0.1213
24164DOD     C316313  28.789   8.141   7.202  0.3092 -0.1710  0.0080
24165DOD     C116314   5.702  15.040  28.405  0.0652 -0.2769 -0.1004
24165DOD     C216315   5.446  15.422  28.365 -0.2867  0.1966 -0.3193
24165DOD     C316316   5.248  15.789  28.625 -0.2129 -0.5633  0.2139
24166DOD     C116317  25.396   5.666  10.244 -0.1668 -0.0965 -0.0620
24166DOD     C216318  25.463   5.166  10.273 -0.2191  0.0223  0.0988
24166DOD     C316319  25.291   4.782  10.061  0.1289 -0.0783  0.3536
24167DOD     C116320   8.986   4.727  14.213  0.0243 -0.2559 -0.1118
24167DOD     C216321   9.228   4.569  14.613  0.2144 -0.1081  0.0355
24167DOD     C316322   9.594   4.431  14.917  0.1291  0.1078  0.0032
24168DOD     C116323  16.642   8.180   7.973 -0.0383 -0.1875 -0.1363
24168DOD     C216324  16.780   7.717   7.834 -0.0346 -0.1684 -0.1198
24168DOD     C316325  16.855   7.228   7.847  0.0523 -0.1593 -0.1418
24169DOD     C116326  16.196  15.990   7.267  0.1413 -0.0616  0.2014
24169DOD     C216327  16.284  15.779   7.707 -0.2780  0.2451  0.0127
24169DOD     C316328  16.618  15.747   8.075  0.3775 -0.1267 -0.1952
24170DOD     C116329   0.160   0.466  27.152  0.0848 -0.0014 -0.2252
24170DOD     C216330  30.280   0.535  27.587 -0.0501  0.1790  0.3873
24170DOD     C316331  29.977   0.532  27.876 -0.1320  0.2284 -0.0135
24171DOD     C116332  29.159   2.173  10.873  0.1860 -0.1245 -0.3430
24171DOD     C216333  29.558   2.450  10.967 -0.2981 -0.2086  0.0274
24171DOD     C316334  29.789   2.872  10.796 -0.2418  0.0394  0.1176
24172DOD     C116335  15.970  14.568  26.147  0.1215 -0.2227 -0.0918
24172DOD     C216336  16.217  14.682  25.768  0.1428 -0.1868 -0.1763
24172DOD     C316337  16.046  14.890  25.364 -0.0488 -0.0945 -0.1607
24173DOD     C116338   5.789  28.344  28.810 -0.0808  0.0552  0.0270
24173DOD     C216339   5.788  28.079  28.430 -0.1052  0.0381  0.0658
24173DOD     C316340   5.773  27.687  28.238 -0.1916 -0.2036  0.2676
24174DOD     C116341  12.258  14.428  26.055 -0.4197  0.3358 -0.3735
24174DOD     C216342  11.814  14.422  25.884  0.1907 -0.2033 -0.3431
24174DOD     C316343  11.372  14.197  26.028  0.0999  0.1745 -0.2334
24175DOD     C116344  14.200   5.516  21.617 -0.1369  0.0330  0.1711
24175DOD     C216345  14.413   5.797  21.858 -0.1627 -0.1056 -0.1115
24175DOD     C316346  14.696   5.912  22.214  0.1897 -0.0650 -0.0468
24176DOD     C116347  15.962  25.753  22.791  0.1124  0.0320  0.1666
24176DOD     C216348  16.371  25.739  22.548  0.0054  0.1002  0.1805
24176DOD     C316349  16.532  25.726  22.087 -0.0825 -0.3431  0.0135
24177DOD     C116350  23.972   3.059  26.240  0.0339  0.0974 -0.2786
24177DOD     C216351  23.895   2.791  26.608 -0.2295 -0.1057  0.0336
24177DOD     C316352  23.757   2.408  26.841  0.2644 -0.2062  0.1397
24178DOD     C116353  14.720   8.370  12.387 -0.1237 -0.1165  0.1280
24178DOD     C216354  15.022   8.530  12.070 -0.0620  0.0019  0.0534
24178DOD     C316355  15.334   8.590  11.759  0.1179 -0.1620 -0.0440
24179DOD     C116356  18.053  27.585   6.061 -0.0013  0.1515  0.0785
24179DOD     C216357  18.179  27.154   6.299  0.1448  0.0189 -0.3474
24179DOD     C316358  18.247  27.050   6.756  0.1392  0.1042  0.0483
24180DOD     C116359  12.579  12.978  13.782  0.1754  0.0611 -0.3980
24180DOD     C216360  12.785  13.278  14.143  0.1302  0.0497  0.0841
24180DOD     C316361  13.161  13.249  14.431  0.1295  0.3045 -0.0826
24181DOD     C116362  19.011   8.239  16.079  0.1348  0.3731 -0.0564
24181DOD     C216363  19.015   8.682  16.164 -0.1646  0.0112  0.1445
24181DOD     C316364  19.398   8.910  16.125 -0.0262 -0.1959 -0.2080
24182DOD     C116365  10.120   4.316  29.803 -0.3151  0.1684 -0.0878
24182DOD     C216366   9.898   4.138  30.160 -0.0584 -0.2186  0.3300
24182DOD     C316367   9.550   3.967   0.095  0.1978  0.0672 -0.2705
24183DOD     C116368  11.160  28.138  12.702  0.3268 -0.0436  0.3260
24183DOD     C216369  11.080  27.996  12.234  0.2846 -0.0893  0.0985
24183DOD     C316370  10.955  28.090  11.742 -0.0801 -0.1378  0.0727
24184DOD     C116371   4.982  10.772  13.385  0.1714  0.0485  0.1539
24184DOD     C216372   5.158  10.479  13.025  0.1801  0.0248  0.2846
24184DOD     C316373   5.260  10.115  12.751  0.0349  0.1649 -0.0200
24185DOD     C116374  18.893   1.489  12.506  0.0487  0.1778 -0.0341
24185DOD     C216375  19.315   1.417  12.475 -0.2039 -0.1799  0.1773
24185DOD     C316376  19.735   1.308  12.318  0.0809  0.4176 -0.0152
24186DOD     C116377  11.687   9.326   1.926 -0.3845  0.1877  0.1621
24186DOD     C216378  11.755   9.703   2.241  0.4067 -0.1556  0.1559
24186DOD     C316379  12.007  10.021   2.528  0.0681 -0.0473  0.2384
24187DOD     C116380  12.863  29.631  23.124  0.1912  0.1626 -0.2384
24187DOD     C216381  12.417  29.613  22.993 -0.1390  0.0552  0.1645
24187DOD     C316382  12.118  29.650  22.651 -0.1647 -0.0575  0.0882
24188DOD     C116383  17.610   5.303  25.478 -0.2355  0.0338  0.0230
24188DOD     C216384  17.479   5.733  25.664 -0.1655  0.2630 -0.4128
24188DOD     C316385  17.328   6.179  25.697 -0.0278  0.0742  0.1832
24189DOD     C116386  26.412  11.236  19.107  0.0083 -0.0178 -0.0617
24189DOD     C216387  26.290  10.764  19.010  0.2053 -0.0302  0.0320
24189DOD     C316388  25.975  10.482  18.931 -0.0018 -0.1438  0.1556
24190DOD     C116389  28.390  17.784  14.874 -0.2255  0.0106  0.1952
24190DOD     C216390  28.573  17.757  15.280 -0.0025  0.1301  0.0132
24190DOD     C316391  28.710  18.111  15.496 -0.2200 -0.1382  0.1543
24191DOD     C116392   8.332  25.550   0.573  0.2298 -0.0827  0.2010
24191DOD     C216393   8.576  25.283   0.842 -0.1001 -0.0802 -0.2131
24191DOD     C316394   8.750  24.929   1.066 -0.0757 -0.1027 -0.1404
24192DOD     C116395  26.267  24.764  13.576 -0.0514  0.2739  0.3452
24192DOD     C216396  26.236  25.111  13.836 -0.2057  0.1404  0.3268
24192DOD     C316397  26.027  25.459  14.083 -0.1482  0.2279 -0.2279
24193DOD     C116398  15.547  15.018  13.829 -0.0090  0.0042  0.1004
24193DOD     C216399  15.389  14.766  13.425 -0.2414 -0.0827 -0.0538
24193DOD     C316400  15.234  14.510  13.051 -0.1492  0.2210  0.3247
24194DOD     C116401  29.681  19.508  19.587 -0.1066  0.2770  0.0459
24194DOD     C216402  29.616  19.180  19.910 -0.0842  0.2992  0.1323
24194DOD     C316403  29.479  18.829  20.208  0.0520 -0.1252  0.2862
24195DOD     C116404  25.457  17.803  11.861 -0.1547 -0.1301 -0.1397
24195DOD     C216405  25.948  17.827  11.906 -0.0507  0.2268  0.1261
24195DOD     C316406  26.282  18.085  11.711 -0.1466 -0.2963 -0.1774
24196DOD     C116407  19.690  17.112  13.079 -0.3887 -0.1638 -0.0774
24196DOD     C216408  19.672  17.480  12.809  0.1281 -0.0600  0.3053
24196DOD     C316409  19.925  17.875  12.775  0.1315  0.0603 -0.2093
24197DOD     C116410  16.017  10.433  20.511  0.1100 -0.1356 -0.1469
24197DOD     C216411  16.499  10.378  20.466 -0.0944 -0.0223 -0.0797
24197DOD     C316412  16.778  10.011  20.475  0.4094 -0.0810  0.0675
24198DOD     C116413   8.658   2.944  22.992  0.2400  0.0605 -0.0010
24198DOD     C216414   8.426   2.593  23.078  0.0633 -0.1986  0.0129
24198DOD     C316415   8.105   2.315  23.246 -0.1080 -0.1627 -0.3186
24199DOD     C116416  17.998  10.336  10.566  0.0456  0.0001  0.1970
24199DOD     C216417  18.293  10.111  10.826 -0.0350  0.0008  0.1600
24199DOD     C316418  18.570   9.872  11.144  0.0885  0.1723 -0.0221
24200DOD     C116419  27.989  25.507  10.453 -0.0382  0.2014 -0.3806
24200DOD     C216420  28.210  25.687  10.026 -0.1570  0.1056 -0.2233
24200DOD     C316421  28.103  25.632   9.573 -0.0886  0.4582  0.1138
24201DOD     C116422  25.106  10.511  24.730  0.0836  0.4599 -0.1249
24201DOD     C216423  25.546  10.370  24.808  0.0354  0.0567 -0.1389
24201DOD     C316424  26.011  10.365  24.790  0.1038 -0.2432  0.1387
24202DOD     C116425   2.517   3.516  29.271  0.0534 -0.0944  0.0538
24202DOD     C216426   2.566   3.092  29.564 -0.2636 -0.2763  0.0344
24202DOD     C316427   2.652   2.886  29.945  0.0556  0.1868  0.1208
24203DOD     C116428   7.171  19.111  21.071 -0.1115  0.2850 -0.1245
24203DOD     C216429   7.572  19.219  21.267 -0.0652  0.1195  0.2466
24203DOD     C316430   7.865  19.340  21.578  0.2257  0.2054  0.0736
24204DOD     C116431  25.924  17.030  30.040 -0.4241 -0.1300 -0.1906
24204DOD     C216432  25.998  16.607  29.807 -0.3602  0.2166  0.2428
24204DOD     C316433  25.751  16.201  29.839  0.2003 -0.0225  0.1335
24205DOD     C116434  10.934  18.008   9.134  0.0479  0.4210  0.0357
24205DOD     C216435  10.954  17.734   9.463 -0.0453 -0.2431  0.2745
24205DOD     C316436  10.991  17.308   9.664 -0.3173 -0.3693  0.3630
24206DOD     C116437   3.099   0.840   9.403 -0.1625 -0.0480 -0.0310
24206DOD     C216438   2.999   1.171   9.109 -0.1105  0.0372  0.5616
24206DOD     C316439   3.027   1.416   8.639  0.0908 -0.0920  0.1000
24207DOD     C116440  19.522   0.461  16.302 -0.0064 -0.1487  0.3051
24207DOD     C216441  19.903   0.725  16.292  0.0079  0.3135 -0.2012
24207DOD     C316442  20.004   1.052  16.478 -0.1822 -0.2809 -0.1926
24208DOD     C116443  27.781   3.938  10.321 -0.1525  0.1891 -0.3194
24208DOD     C216444  27.878   3.538  10.137  0.0480  0.1514  0.2501
24208DOD     C316445  28.122   3.148  10.014  0.0275 -0.1260  0.0057
24209DOD     C116446   4.816  22.013  23.758 -0.3842 -0.0305  0.0503
24209DOD     C216447   4.529  21.884  24.101  0.2341 -0.1678 -0.3565
24209DOD     C316448   4.474  21.913  24.567  0.1722  0.1745 -0.2112
24210DOD     C116449   3.234  15.625   7.450  0.2017 -0.4189  0.0503
24210DOD     C216450   3.604  15.827   7.677  0.2440  0.3681 -0.0539
24210DOD     C316451   3.729  16.177   7.985  0.1298 -0.0631 -0.2067
24211DOD     C116452  14.298   8.244  23.180  0.1865  0.0247  0.2171
24211DOD     C216453  14.163   8.423  23.583 -0.4363 -0.0988 -0.0113
24211DOD     C316454  14.242   8.774  23.862  0.0474 -0.0923 -0.0709
24212DOD     C116455   6.700  10.378  22.122  0.1982  0.0062  0.0060
24212DOD     C216456   6.560   9.963  22.051  0.1685 -0.1942 -0.0264
24212DOD     C316457   6.348   9.685  21.724  0.1759 -0.2991 -0.1767
24213DOD     C116458   4.248  20.180  12.230  0.0733  0.1514 -0.0776
24213DOD     C216459   4.001  19.971  11.871  0.2164 -0.1148 -0.0395
24213DOD     C316460   3.537  19.878  11.814 -0.2393 -0.0213 -0.0044
24214DOD     C116461  19.121  17.005   5.450 -0.0360  0.0038  0.0922
24214DOD     C216462  19.503  16.840   5.207  0.0453  0.2835 -0.3013
24214DOD     C316463  19.787  16.508   5.077  0.3734  0.0336 -0.4148
24215DOD     C116464  29.496  11.691  11.650 -0.1513  0.0726 -0.0759
24215DOD     C216465  29.144  12.014  11.718  0.2740 -0.0660  0.2675
24215DOD     C316466  28.757  12.237  11.908 -0.3203  0.4159 -0.1162
24216DOD     C116467  27.015   9.163  27.094  0.0764 -0.3415 -0.0619
24216DOD     C216468  27.128   8.866  26.775  0.2304  0.1013  0.0273
24216DOD     C316469  27.218   8.838  26.337 -0.1156 -0.1703 -0.0469
24217DOD     C116470  15.531  10.653   4.223 -0.3675  0.0390 -0.1219
24217DOD     C216471  15.908  10.930   4.203  0.0293 -0.1112  0.0062
24217DOD     C316472  16.341  10.899   4.107  0.1626 -0.0493 -0.0876
24218DOD     C116473  17.453   8.184   3.828 -0.2509  0.0161  0.1317
24218DOD     C216474  17.876   8.366   3.724 -0.0002 -0.2156  0.1960
24218DOD     C316475  18.351   8.299   3.593  0.1576  0.1937 -0.1183
24219DOD     C116476  13.311  18.611   1.550  0.3071  0.2191 -0.0077
24219DOD     C216477  13.051  18.227   1.368  0.1943  0.1112  0.1137
24219DOD     C316478  13.174  18.004   0.971  0.0788  0.1274  0.2252
24220DOD     C116479   7.249  28.110  15.476 -0.0493  0.0841 -0.1463
24220DOD     C216480   7.627  27.830  15.328 -0.0498  0.0792  0.1486
24220DOD     C316481   7.996  27.915  15.556  0.0806  0.3883  0.4010
24221DOD     C116482  19.961  28.177  27.329  0.0338 -0.1426 -0.0550
24221DOD     C216483  20.390  28.046  27.360  0.0820 -0.3990 -0.2010
24221DOD     C316484  20.539  27.752  27.703  0.1806 -0.1109 -0.0450
24222DOD     C116485  17.906  21.386  17.881  0.0111  0.1900  0.0272
24222DOD     C216486  17.504  21.272  17.736 -0.2073 -0.1414  0.5214
24222DOD     C316487  17.081  21.090  17.631 -0.0932  0.0808  0.3888
24223DOD     C116488  22.037  16.544  21.248 -0.0326 -0.5600  0.0946
24223DOD     C216489  22.069  16.582  20.810 -0.1824  0.0253 -0.1009
24223DOD     C316490  22.135  16.269  20.436 -0.2344  0.2978  0.0914
24224DOD     C116491   6.676  21.558   0.868 -0.4064  0.1066 -0.3174
24224DOD     C216492   7.098  21.587   0.582 -0.1291  0.0768  0.1482
24224DOD     C316493   7.245  21.560   0.143 -0.2228 -0.1941  0.2584
24225DOD     C116494   7.267  16.767  17.176  0.0306  0.2122  0.1327
24225DOD     C216495   7.099  16.879  16.761 -0.0848  0.1638  0.2663
24225DOD     C316496   6.865  16.599  16.442  0.1246 -0.2352 -0.2148
24226DOD     C116497  15.017   1.936  13.445  0.0717 -0.1480  0.0084
24226DOD     C216498  14.896   2.183  13.044  0.0259 -0.4538  0.4189
24226DOD     C316499  14.547   2.550  12.937 -0.0369  0.1002  0.2706
24227DOD     C116500  17.109   9.184  19.102 -0.3358  0.0376 -0.0204
24227DOD     C216501  16.955   9.298  19.562  0.0627 -0.0348  0.0892
24227DOD     C316502  16.645   9.003  19.700  0.0511 -0.0783 -0.1448
24228DOD     C116503   7.546   4.778   7.118 -0.0869 -0.1773 -0.1307
24228DOD     C216504   7.138   5.033   7.087  0.1384 -0.0028  0.1001
24228DOD     C316505   6.982   5.264   7.464 -0.2981  0.1123 -0.1692
24229DOD     C116506   1.119   3.673   8.813  0.1154  0.0040  0.0257
24229DOD     C216507   1.276   3.234   8.721  0.4216 -0.2674 -0.1151
24229DOD     C316508   1.254   2.825   8.942 -0.5142 -0.0469 -0.3504
24230DOD     C116509  10.896  29.461  15.153 -0.1929 -0.0343  0.0990
24230DOD     C216510  11.322  29.463  15.402  0.0698  0.1165  0.0600
24230DOD     C316511  11.791  29.610  15.403  0.0074  0.1277 -0.1317
24231DOD     C116512  22.140   9.065  24.198  0.4158 -0.1758  0.0362
24231DOD     C216513  22.325   9.136  24.604 -0.0861 -0.1038 -0.0143
24231DOD     C316514  22.749   9.154  24.804 -0.0381 -0.0344 -0.4067
24232DOD     C116515  17.630  15.964   2.136  0.0033 -0.0925  0.0936
24232DOD     C216516  17.895  16.340   1.981 -0.2286 -0.1405 -0.0475
24232DOD     C316517  18.112  16.625   1.636  0.0312  0.0127 -0.1005
24233DOD     C116518   6.877   5.119   8.072 -0.1913  0.1166  0.0790
24233DOD     C216519   6.857   5.209   8.525  0.2435  0.0766 -0.0008
24233DOD     C316520   7.005   5.401   8.900 -0.0363  0.1125  0.0328
24234DOD     C116521   4.188  29.598  20.344  0.1529 -0.2160  0.1309
24234DOD     C216522   4.611  29.866  20.319 -0.1804  0.0466  0.2814
24234DOD     C316523   4.981  29.957  20.139 -0.0081 -0.3864 -0.3716
24235DOD     C116524  11.082  27.238  10.058  0.0413  0.1362 -0.0469
24235DOD     C216525  11.513  27.371   9.980  0.2382 -0.2786  0.4046
24235DOD     C316526  11.874  27.680   9.968 -0.1406 -0.0746 -0.0750
24236DOD     C116527  19.115   7.903   2.540  0.0664  0.2239  0.1649
24236DOD     C216528  19.121   8.043   2.071  0.2540 -0.1315 -0.1918
24236DOD     C316529  19.115   8.440   1.857  0.2767  0.1080  0.3434
24237DOD     C116530  27.808  23.713  25.897  0.0672 -0.1162  0.0889
24237DOD     C216531  28.064  23.277  25.975  0.2045 -0.2718  0.1074
24237DOD     C316532  28.168  22.844  25.895 -0.2120  0.2655 -0.1658
24238DOD     C116533  12.483  10.761  21.723  0.2323  0.1630  0.1739
24238DOD     C216534  12.823  10.938  22.007  0.3612  0.1874  0.0163
24238DOD     C316535  12.935  11.319  22.217 -0.1671 -0.1397  0.0304
24239DOD     C116536   3.004  15.951  10.034 -0.1677  0.0526 -0.0634
24239DOD     C216537   3.408  15.961  10.249  0.2639  0.1066  0.1406
24239DOD     C316538   3.516  16.076  10.665  0.0098  0.2492 -0.3164
24240DOD     C116539   5.999  24.677  20.943  0.1651  0.1193  0.0789
24240DOD     C216540   6.415  24.524  21.031  0.1823 -0.1277 -0.2445
24240DOD     C316541   6.846  24.638  21.282 -0.0464 -0.1010 -0.0838
24241DOD     C116542   3.424  26.080  18.830  0.0351  0.0577 -0.0074
24241DOD     C216543   3.485  26.470  18.518 -0.0031  0.4067  0.0978
24241DOD     C316544   3.184  26.797  18.333  0.1660 -0.2178  0.0676
24242DOD     C116545  23.978   4.556   5.020 -0.1170 -0.0569  0.1829
24242DOD     C216546  23.520   4.684   5.136  0.0175  0.1159 -0.0119
24242DOD     C316547  23.165   4.410   5.196 -0.0867  0.0981  0.3019
24243DOD     C116548   7.473  15.570   6.210  0.1924  0.3203 -0.0042
24243DOD     C216549   7.788  15.870   6.076 -0.0585  0.3308 -0.0944
24243DOD     C316550   7.835  15.965   5.684  0.3901 -0.1464  0.0355
24244DOD     C116551  15.989  27.608  27.413  0.0285 -0.1267  0.4577
24244DOD     C216552  16.095  27.255  27.136 -0.2562 -0.0558  0.1353
24244DOD     C316553  16.150  27.278  26.658  0.2122 -0.2360 -0.2217
24245DOD     C116554   6.956  18.319  24.955 -0.1360  0.0174  0.1410
24245DOD     C216555   6.864  18.346  25.378  0.0586  0.2821  0.2343
24245DOD     C316556   7.046  18.380  25.837  0.1512 -0.0415 -0.0352
24246DOD     C116557   7.544  10.593   7.076  0.4482 -0.1346  0.0437
24246DOD     C216558   7.881  10.637   7.382  0.2280  0.1496  0.3855
24246DOD     C316559   8.335  10.501   7.587  0.2172 -0.1667 -0.1510
24247DOD     C116560  28.571   1.985  22.418 -0.1229  0.1997  0.0670
24247DOD     C216561  28.754   1.846  22.818  0.2930 -0.3361 -0.2121
24247DOD     C316562  28.451   1.644  23.116 -0.2014  0.1554  0.0233
24248DOD     C116563   7.519   0.711   6.916  0.1928  0.0739 -0.3441
24248DOD     C216564   7.115   0.659   6.777 -0.1264  0.2427  0.1221
24248DOD     C316565   6.658   0.558   6.697  0.1716  0.2253  0.1956
24249DOD     C116566  25.059  23.978   3.048  0.0568 -0.1686 -0.2283
24249DOD     C216567  24.733  23.642   3.214  0.0587 -0.5181  0.2086
24249DOD     C316568  24.614  23.119   3.334 -0.0645  0.0237 -0.2157
24250DOD     C116569   1.080   3.589   7.385 -0.0452  0.1140 -0.1420
24250DOD     C216570   0.787   3.805   7.068  0.2903  0.0229 -0.3930
24250DOD     C316571   0.590   4.190   7.018  0.0224  0.0726 -0.2689
24251DOD     C116572  20.418   6.719  13.284  0.0294  0.0816 -0.2514
24251DOD     C216573  20.813   7.023  13.124 -0.1924 -0.0377  0.2289
24251DOD     C316574  20.923   7.161  12.704 -0.1081 -0.1710  0.0104
24252DOD     C116575   6.137   9.982  21.260  0.0213  0.1185 -0.2191
24252DOD     C216576   5.944  10.358  21.065  0.4064 -0.2586  0.2881
24252DOD     C316577   5.793  10.830  21.116  0.0859 -0.1534 -0.1060
24253DOD     C116578   6.235   4.054  29.863  0.2826  0.0036 -0.1018
24253DOD     C216579   6.526   4.124  29.493 -0.2950  0.4012  0.1063
24253DOD     C316580   6.465   3.926  29.067 -0.1707 -0.2327  0.1855
24254DOD     C116581   1.251  15.291  14.222  0.0069 -0.4841  0.1131
24254DOD     C216582   1.313  15.079  13.784  0.1853  0.0583  0.1384
24254DOD     C316583   1.392  14.997  13.355 -0.0520  0.2758  0.1738
24255DOD     C116584   3.201  11.856  11.023  0.0868 -0.2475  0.0142
24255DOD     C216585   2.949  11.699  11.383  0.0802 -0.1256  0.1672
24255DOD     C316586   2.807  11.461  11.794 -0.0887 -0.0079  0.1185
24256DOD     C116587   3.933   7.386  11.134  0.0367  0.0355  0.3392
24256DOD     C216588   3.517   7.368  11.014  0.3954  0.1537 -0.1273
24256DOD     C316589   3.244   7.186  10.637 -0.1225  0.2529 -0.2028
24257DOD     C116590  26.298  26.749  22.527  0.2726  0.2253 -0.0141
24257DOD     C216591  26.436  26.291  22.433  0.3084 -0.0682  0.0940
24257DOD     C316592  26.365  25.790  22.388  0.0663 -0.0444 -0.1757
24258DOD     C116593   8.829  25.670  19.952  0.4735  0.0114  0.1291
24258DOD     C216594   8.630  26.065  20.175  0.0346 -0.0555 -0.0435
24258DOD     C316595   8.879  26.435  20.415 -0.1358 -0.4365 -0.1753
24259DOD     C116596  29.184  24.660  11.845 -0.0457  0.0364  0.0359
24259DOD     C216597  29.169  24.365  11.478 -0.0206  0.0242  0.1355
24259DOD     C316598  28.890  24.426  11.090  0.0546  0.0192  0.0820
24260DOD     C116599  13.207   6.013   8.852 -0.0408 -0.1548  0.1231
24260DOD     C216600  13.263   5.968   9.313  0.1194 -0.0438 -0.1621
24260DOD     C316601  13.156   5.908   9.727 -0.1197  0.1328 -0.1629
24261DOD     C116602   5.608  10.034   5.199  0.1766  0.0485 -0.0706
24261DOD     C216603   5.770   9.828   4.808 -0.3765 -0.2341 -0.0083
24261DOD     C316604   5.965   9.543   4.487 -0.1669 -0.1111  0.0929
24262DOD     C116605  24.747  15.005  12.712 -0.1023  0.2444  0.0868
24262DOD     C216606  24.831  14.920  12.253  0.2248  0.1600 -0.1393
24262DOD     C316607  25.026  14.997  11.848  0.2074 -0.0398  0.1615
24263DOD     C116608  28.242  17.073  13.595 -0.0615 -0.2394 -0.3597
24263DOD     C216609  27.786  16.994  13.520  0.1339  0.4296  0.0494
24263DOD     C316610  27.275  16.968  13.396 -0.0250  0.0312  0.2540
24264DOD     C116611   6.225  12.196  29.060 -0.0617 -0.1718  0.0116
24264DOD     C216612   5.895  12.343  28.733  0.0387 -0.0723 -0.1595
24264DOD     C316613   5.491  12.503  28.643 -0.2417 -0.1174 -0.0376
24265DOD     C116614  12.759   7.592  25.352  0.2331 -0.1946  0.0639
24265DOD     C216615  12.821   7.896  25.038  0.3854 -0.1355  0.1036
24265DOD     C316616  12.644   8.252  24.755 -0.0628 -0.1353 -0.0127
24266DOD     C116617   8.601  19.947  19.946  0.0228  0.1083 -0.0819
24266DOD     C216618   8.543  19.528  19.765  0.1349 -0.0431 -0.1537
24266DOD     C316619   8.242  19.257  19.456  0.0026 -0.0322 -0.2222
24267DOD     C116620  16.556  13.268  10.167  0.0859  0.0365  0.1074
24267DOD     C216621  16.461  13.578  10.517 -0.1784 -0.1911 -0.0855
24267DOD     C316622  16.304  13.943  10.706 -0.1639 -0.0516  0.2471
24268DOD     C116623  12.060  19.076  24.221  0.1545 -0.2637 -0.0392
24268DOD     C216624  11.934  18.690  24.434  0.3317  0.2242 -0.1406
24268DOD     C316625  12.190  18.533  24.841  0.0834 -0.1038 -0.2042
24269DOD     C116626  25.432  12.019  23.355  0.1639  0.1203  0.0329
24269DOD     C216627  25.825  12.089  23.521  0.0261 -0.1000  0.2408
24269DOD     C316628  26.220  11.899  23.715 -0.1601  0.1791  0.0555
24270DOD     C116629  23.757  25.565  16.154  0.0999  0.0135 -0.0257
24270DOD     C216630  24.216  25.693  16.153 -0.2756 -0.1158  0.2705
24270DOD     C316631  24.543  25.798  15.854  0.0150 -0.3027  0.2078
24271DOD     C116632  13.440  22.631   6.946 -0.0683 -0.0597  0.1219
24271DOD     C216633  13.306  22.515   7.375  0.3032 -0.1799 -0.0619
24271DOD     C316634  13.653  22.421   7.674  0.0058  0.2286  0.0934
24272DOD     C116635   5.708  23.253  30.165 -0.5443 -0.1591 -0.1461
24272DOD     C216636   6.021  23.052   0.147  0.2877 -0.0313 -0.2490
24272DOD     C316637   6.246  22.667   0.404  0.1530 -0.0273  0.0008
24273DOD     C116638  26.649   0.881   8.782  0.2686  0.0781  0.3610
24273DOD     C216639  26.483   1.068   8.467 -0.3208  0.2890  0.0361
24273DOD     C316640  26.482   1.473   8.303  0.0123 -0.2217  0.1215
24274DOD     C116641  16.807  11.353  16.983  0.3050 -0.0219  0.1270
24274DOD     C216642  16.471  11.652  16.860 -0.1027 -0.0229 -0.1086
24274DOD     C316643  16.333  12.043  16.708 -0.2382 -0.1215 -0.0047
24275DOD     C116644  28.773   6.468  17.171  0.3501  0.1214 -0.2241
24275DOD     C216645  28.647   6.561  17.637 -0.2710  0.0266 -0.0209
24275DOD     C316646  28.321   6.764  17.877 -0.1875 -0.2563 -0.1178
24276DOD     C116647   9.909   1.590  17.221 -0.0939  0.2220 -0.2054
24276DOD     C216648   9.989   1.842  16.803 -0.2285 -0.0563  0.0720
24276DOD     C316649   9.974   2.289  16.671 -0.1021 -0.0632  0.1796
24277DOD     C116650  26.453   0.443  11.451 -0.0162 -0.4489 -0.0227
24277DOD     C216651  26.654   0.846  11.559  0.0781  0.1925 -0.0481
24277DOD     C316652  26.681   1.347  11.526  0.0213  0.0618 -0.2144
24278DOD     C116653  15.437  10.531   5.894 -0.1318  0.1068 -0.0692
24278DOD     C216654  15.612  10.398   5.497  0.0999  0.0693 -0.1178
24278DOD     C316655  15.941  10.084   5.288  0.0954  0.1117  0.0840
24279DOD     C116656   6.069  24.695   6.927  0.0034 -0.1054 -0.0718
24279DOD     C216657   6.472  24.687   6.643 -0.0460  0.2938 -0.1138
24279DOD     C316658   6.938  24.508   6.597 -0.1442 -0.0161 -0.2105
24280DOD     C116659  23.605  27.254  15.221 -0.0704 -0.1488  0.0499
24280DOD     C216660  23.774  27.424  14.893 -0.0713  0.0996  0.0785
24280DOD     C316661  23.760  27.543  14.452  0.1202  0.0395  0.1936
24281DOD     C116662   5.003   0.963  14.922  0.3791 -0.2302 -0.0920
24281DOD     C216663   5.456   0.908  15.131  0.2697 -0.0252  0.0461
24281DOD     C316664   5.674   0.894  15.577 -0.0448  0.0900  0.2358
24282DOD     C116665  20.458   9.389   3.326  0.2871  0.0162  0.0184
24282DOD     C216666  20.695   9.005   3.428  0.1745  0.1067 -0.0120
24282DOD     C316667  20.737   8.564   3.628 -0.1085  0.0788  0.0205
24283DOD     C116668   9.694  20.037  11.777 -0.0829  0.4116 -0.0067
24283DOD     C216669  10.040  20.315  11.959 -0.0572  0.3282  0.1283
24283DOD     C316670  10.540  20.166  11.881  0.2655 -0.2475  0.2742
24284DOD     C116671   4.482  11.174  21.558  0.1349  0.3659 -0.4000
24284DOD     C216672   4.178  10.790  21.606  0.0212  0.1718  0.1749
24284DOD     C316673   4.017  10.547  21.964 -0.1101 -0.1162  0.2256
24285DOD     C116674  29.203   6.056   5.459  0.5061 -0.1211 -0.2951
24285DOD     C216675  28.895   5.768   5.595  0.2329  0.3231 -0.1099
24285DOD     C316676  28.870   5.409   5.815  0.1444  0.0603  0.1167
24286DOD     C116677  20.483  18.392  14.726  0.0449 -0.2547  0.2153
24286DOD     C216678  20.543  18.374  15.185 -0.3837  0.2719  0.1768
24286DOD     C316679  20.744  18.572  15.545  0.2685 -0.0311 -0.0249
24287DOD     C116680  24.472   2.189  20.181  0.2056 -0.2910  0.0093
24287DOD     C216681  24.747   2.167  20.563 -0.0856 -0.0221 -0.2938
24287DOD     C316682  25.013   2.283  20.908 -0.3053  0.0407  0.0156
24288DOD     C116683  13.026  23.456  26.527  0.1576  0.1733  0.2522
24288DOD     C216684  12.889  23.785  26.231 -0.0020  0.0393 -0.2298
24288DOD     C316685  12.949  24.016  25.864  0.0381  0.0785  0.2426
24289DOD     C116686  13.506   3.396   9.390 -0.2634  0.0339 -0.1588
24289DOD     C216687  13.611   3.792   9.220 -0.1220 -0.0749 -0.0744
24289DOD     C316688  13.701   3.990   8.813  0.0428  0.1386  0.1860
24290DOD     C116689  26.613   9.959  10.527  0.2382 -0.0584 -0.2903
24290DOD     C216690  26.638  10.402  10.676 -0.0997  0.2757 -0.1776
24290DOD     C316691  26.197  10.639  10.692 -0.2717  0.2775 -0.0610
24291DOD     C116692   5.111   2.042   8.748 -0.1658 -0.3095  0.0687
24291DOD     C216693   5.049   1.585   8.691 -0.0949  0.0988 -0.2607
24291DOD     C316694   4.640   1.369   8.603  0.1617 -0.0155  0.2045
24292DOD     C116695   3.383  10.359   3.913 -0.0677  0.0957 -0.1090
24292DOD     C216696   3.196   9.985   3.785 -0.4496  0.0585 -0.0544
24292DOD     C316697   3.121   9.545   3.958  0.4093  0.0992  0.2907
24293DOD     C116698   5.855  26.146   7.588  0.0187 -0.0408 -0.0600
24293DOD     C216699   5.484  26.241   7.901  0.1070  0.2582  0.2512
24293DOD     C316700   5.037  26.482   7.881  0.0742 -0.0911  0.1876
24294DOD     C116701   4.361  15.378  24.914 -0.0205  0.1014  0.1902
24294DOD     C216702   4.273  15.679  25.285  0.3404 -0.1653  0.2091
24294DOD     C316703   4.415  15.808  25.762 -0.0031  0.1090  0.2203
24295DOD     C116704   9.625   4.136  14.225  0.1233 -0.2757  0.0500
24295DOD     C216705   9.165   4.163  14.147 -0.1160  0.2904 -0.0878
24295DOD     C316706   8.777   4.128  14.376  0.2049 -0.5280  0.1590
24296DOD     C116707   6.939   2.272   1.726  0.0637 -0.1669 -0.1799
24296DOD     C216708   6.872   2.561   1.341 -0.0182 -0.0057  0.0439
24296DOD     C316709   6.589   2.389   0.986 -0.0088  0.0808 -0.2172
24297DOD     C116710  23.179   4.292   1.516 -0.0170  0.1771  0.1842
24297DOD     C216711  22.764   4.317   1.775  0.0634  0.2283 -0.1318
24297DOD     C316712  22.429   4.032   1.855 -0.0473  0.2775  0.0195
24298DOD     C116713   1.485  22.082  16.120 -0.1180  0.2052 -0.0437
24298DOD     C216714   1.539  22.553  16.219 -0.0269 -0.2004 -0.0390
24298DOD     C316715   1.734  22.974  16.201 -0.2504  0.2189 -0.2366
24299DOD     C116716  24.125  29.617  24.058 -0.2477 -0.3780 -0.0345
24299DOD     C216717  24.491  29.592  23.787 -0.0812  0.0524  0.1521
24299DOD     C316718  24.958  29.583  23.885  0.0095  0.1787  0.2481
24300DOD     C116719   2.697   4.228  11.209  0.2801  0.0567  0.0675
24300DOD     C216720   3.130   4.140  11.259 -0.0284 -0.3015 -0.2515
24300DOD     C316721   3.408   4.070  11.643  0.1084  0.1620  0.0590
24301DOD     C116722   7.510   6.496  13.472  0.2555 -0.2009  0.2088
24301DOD     C216723   7.896   6.262  13.431  0.1325 -0.2107  0.0256
24301DOD     C316724   8.102   5.988  13.672 -0.4754 -0.1867  0.0979
24302DOD     C116725  13.671  17.635   3.363 -0.0273  0.4036  0.0192
24302DOD     C216726  13.610  17.231   3.132 -0.1828  0.0816  0.2812
24302DOD     C316727  13.526  16.966   2.755 -0.0500  0.0320  0.0021
24303DOD     C116728  26.805  25.807   2.642 -0.0268 -0.2762  0.1096
24303DOD     C216729  27.227  25.544   2.590 -0.2227 -0.2104  0.0413
24303DOD     C316730  27.554  25.253   2.455 -0.2349 -0.1705 -0.0115
24304DOD     C116731  29.090  13.693   2.042 -0.5122  0.1153 -0.0164
24304DOD     C216732  29.336  13.923   2.337  0.1487 -0.0262  0.1434
24304DOD     C316733  29.599  14.270   2.479  0.3495  0.0517  0.4694
24305DOD     C116734   5.580  27.687  18.486  0.0875 -0.1413  0.1464
24305DOD     C216735   5.947  27.631  18.809 -0.1240 -0.1257  0.1297
24305DOD     C316736   6.284  27.365  18.943  0.1709  0.0153 -0.2423
24306DOD     C116737  19.683  30.159  14.530  0.0387  0.2317 -0.4857
24306DOD     C216738  19.359   0.100  14.294 -0.0448 -0.2212 -0.0344
24306DOD     C316739  19.160   0.482  14.144  0.1146  0.2160 -0.5551
24307DOD     C116740  25.780  15.824   0.477  0.0916 -0.2642  0.0506
24307DOD     C216741  25.507  15.738   0.095  0.1520 -0.0451 -0.0748
24307DOD     C316742  25.315  15.964  30.089  0.1175 -0.0662 -0.0682
24308DOD     C116743  15.474  18.631   8.068  0.1196  0.1558  0.0900
24308DOD     C216744  15.666  18.242   7.912 -0.0960 -0.1779 -0.1843
24308DOD     C316745  15.593  17.814   8.036 -0.0198 -0.1761  0.2042
24309DOD     C116746  21.343  13.936  27.330 -0.0184 -0.0459  0.1373
24309DOD     C216747  21.125  13.799  26.973  0.3211 -0.0612  0.1464
24309DOD     C316748  20.846  13.755  26.543  0.0287 -0.2799 -0.1029
24310DOD     C116749  20.662   9.607  15.114  0.0200 -0.2264 -0.1517
24310DOD     C216750  20.729  10.008  15.295  0.0328 -0.0584 -0.2719
24310DOD     C316751  20.979  10.372  15.394  0.3553  0.0856 -0.2294
24311DOD     C116752  14.186  23.520  28.132 -0.0679 -0.1360  0.0494
24311DOD     C216753  14.547  23.661  27.814  0.3392 -0.2714  0.1157
24311DOD     C316754  14.972  23.640  27.737 -0.0707 -0.0419  0.1446
24312DOD     C116755  25.208  19.348  27.619 -0.0318  0.1227  0.3108
24312DOD     C216756  24.788  19.481  27.549  0.0351 -0.0567 -0.0735
24312DOD     C316757  24.327  19.385  27.555  0.0563  0.2119  0.2649
24313DOD     C116758   1.938  16.774  18.149  0.0936  0.0122  0.0155
24313DOD     C216759   1.729  16.731  18.531  0.0454 -0.3796 -0.0886
24313DOD     C316760   1.739  16.790  19.011  0.0751 -0.4391  0.1054
24314DOD     C116761  13.803   4.250  12.810  0.3418  0.1825  0.0196
24314DOD     C216762  13.563   4.601  12.567  0.0022  0.0804 -0.2224
24314DOD     C316763  13.073   4.704  12.563 -0.0800 -0.0618  0.0152
24315DOD     C116764  18.140  14.582  15.193  0.1104  0.2752 -0.1848
24315DOD     C216765  18.306  14.149  15.070  0.0919  0.0422 -0.1334
24315DOD     C316766  18.574  13.926  14.756 -0.0603 -0.0044  0.1487
24316DOD     C116767  27.806  17.998  20.274 -0.1622  0.2319  0.0950
24316DOD     C216768  27.866  17.775  19.845  0.1522  0.3035  0.1115
24316DOD     C316769  28.193  17.888  19.547 -0.1035 -0.1039  0.2120
24317DOD     C116770   1.270  28.249  20.543  0.1406 -0.1663  0.0499
24317DOD     C216771   1.642  28.582  20.491 -0.0873  0.4543 -0.0773
24317DOD     C316772   1.811  29.039  20.359 -0.2395  0.5220 -0.0762
24318DOD     C116773   1.335   3.630   3.563 -0.0158  0.1976  0.0833
24318DOD     C216774   1.068   3.799   3.240  0.1256 -0.1426 -0.1111
24318DOD     C316775   0.619   3.856   3.033 -0.6317  0.0238 -0.1323
24319DOD     C116776  29.223  22.316   8.718  0.2537  0.0773  0.0390
24319DOD     C216777  29.236  22.586   8.367 -0.0175 -0.0375 -0.0836
24319DOD     C316778  28.842  22.566   8.089  0.0066  0.0397 -0.1594
24320DOD     C116779   5.375  14.993  14.935 -0.1910 -0.2311  0.0204
24320DOD     C216780   5.307  14.560  15.078  0.2315  0.0067 -0.1397
24320DOD     C316781   5.438  14.113  15.234 -0.2369  0.0702  0.1167
24321DOD     C116782   9.336  22.326  16.758  0.0922 -0.0979  0.1609
24321DOD     C216783   9.671  22.063  16.501 -0.0451  0.0058 -0.2963
24321DOD     C316784  10.125  22.108  16.609  0.1869 -0.4063 -0.1721
24322DOD     C116785   6.497   2.194  25.335  0.2065 -0.0445  0.2718
24322DOD     C216786   6.608   2.608  25.141  0.0377  0.0471  0.1277
24322DOD     C316787   6.520   2.942  24.754 -0.0046 -0.0674 -0.0859
24323DOD     C116788  17.938  26.139  10.129 -0.0235 -0.0184  0.3878
24323DOD     C216789  17.825  25.815   9.834  0.3419  0.0749  0.0096
24323DOD     C316790  17.614  25.462   9.685  0.1489  0.1991 -0.1265
24324DOD     C116791  14.863  28.135   1.219  0.0103 -0.0526 -0.3517
24324DOD     C216792  15.311  28.230   1.399 -0.1880  0.0126 -0.1628
24324DOD     C316793  15.423  28.578   1.666  0.1361 -0.3747 -0.0680
24325DOD     C116794   6.736  12.295  21.476 -0.2698 -0.0388  0.0536
24325DOD     C216795   6.280  12.407  21.342  0.2438 -0.0795 -0.2693
24325DOD     C316796   5.863  12.136  21.483  0.2288  0.0307  0.2200
24326DOD     C116797  15.438   2.841   1.502  0.2626  0.0069 -0.0451
24326DOD     C216798  15.765   3.153   1.524 -0.0600  0.0024  0.2291
24326DOD     C316799  16.130   3.314   1.361  0.0224 -0.3246 -0.1187
24327DOD     C116800  16.031  13.086  10.669  0.2090  0.0328 -0.0030
24327DOD     C216801  16.116  13.518  10.934  0.2207  0.1966 -0.2068
24327DOD     C316802  15.838  13.823  11.134  0.1804 -0.2746  0.1573
24328DOD     C116803  21.342   2.691   2.404  0.1269 -0.1383  0.3396
24328DOD     C216804  21.144   3.135   2.390  0.3379 -0.0245 -0.0704
24328DOD     C316805  20.725   3.429   2.564 -0.1125  0.1769 -0.0957
24329DOD     C116806   5.929  22.187   2.269  0.4602 -0.0514 -0.1029
24329DOD     C216807   6.144  22.296   2.658  0.0461  0.0020  0.2340
24329DOD     C316808   6.338  22.539   3.020 -0.0404 -0.3918 -0.1403
24330DOD     C116809  10.910  16.407  11.796  0.0542 -0.0342  0.0498
24330DOD     C216810  11.048  16.604  12.219  0.1237 -0.0075  0.2338
24330DOD     C316811  11.306  16.994  12.341  0.1771  0.2325 -0.1293
24331DOD     C116812  12.537   4.597  10.753  0.1330  0.0971  0.1030
24331DOD     C216813  12.257   4.886  10.917  0.0297  0.0328 -0.3206
24331DOD     C316814  11.923   4.999  11.193  0.0512  0.1669  0.1003
24332DOD     C116815  29.415   3.856  12.187  0.2807  0.1964  0.0463
24332DOD     C216816  29.097   4.100  12.000 -0.0282 -0.0892  0.2923
24332DOD     C316817  28.635   3.934  11.908 -0.1200 -0.0555 -0.0148
24333DOD     C116818  13.052  21.089   1.366 -0.1523  0.0569 -0.0009
24333DOD     C216819  13.045  20.688   1.593  0.4988 -0.1190  0.0397
24333DOD     C316820  13.202  20.318   1.386 -0.1121  0.0633  0.2231
24334DOD     C116821   0.857   0.552  28.845  0.0339  0.0459 -0.0977
24334DOD     C216822   1.178   0.537  28.498 -0.1006 -0.1044 -0.1967
24334DOD     C316823   1.463   0.616  28.118 -0.3073 -0.2243  0.0876
24335DOD     C116824   3.061   7.207  14.901 -0.2398  0.0231  0.1124
24335DOD     C216825   2.901   7.283  14.478  0.1633 -0.2006 -0.0468
24335DOD     C316826   2.501   7.338  14.327 -0.3493  0.2123  0.0705
24336DOD     C116827  11.600  26.550   6.529  0.0646  0.1017  0.0811
24336DOD     C216828  11.475  26.122   6.393 -0.0053 -0.0897  0.2880
24336DOD     C316829  11.166  25.783   6.224 -0.0170 -0.1438  0.2045
24337DOD     C116830   9.464  21.673   9.852  0.0155 -0.2587 -0.2191
24337DOD     C216831   9.419  22.146   9.932  0.1914  0.1704 -0.2867
24337DOD     C316832   9.144  22.520   9.963 -0.2802  0.0732 -0.2042
24338DOD     C116833  13.842  19.097   3.459  0.1200  0.0355 -0.2497
24338DOD     C216834  13.971  19.330   3.072  0.1443  0.2242 -0.0742
24338DOD     C316835  14.046  19.505   2.659 -0.1415  0.5282  0.0165
24339DOD     C116836  26.633   3.381   4.956  0.0187  0.1056 -0.0346
24339DOD     C216837  26.579   3.665   4.607  0.1530  0.1445 -0.0249
24339DOD     C316838  26.491   3.775   4.164 -0.2578 -0.0032  0.1451
24340DOD     C116839   1.900   1.587  20.044  0.1106  0.0596 -0.1261
24340DOD     C216840   2.059   1.437  19.595  0.2781 -0.2123 -0.3244
24340DOD     C316841   1.848   1.245  19.297  0.0318  0.0522  0.0595
24341DOD     C116842   5.950   2.511  27.296  0.1517 -0.1799  0.1402
24341DOD     C216843   5.600   2.865  27.379 -0.2939  0.0922 -0.1210
24341DOD     C316844   5.299   3.116  27.637 -0.0614  0.0135  0.0354
24342DOD     C116845  24.359   0.036  13.384 -0.0053  0.1421  0.0919
24342DOD     C216846  24.328  30.321  12.912  0.2365  0.0428 -0.0285
24342DOD     C316847  24.413  30.242  12.467 -0.0416  0.3061 -0.3379
24343DOD     C116848  30.209  20.611  27.063 -0.2317  0.0515 -0.1836
24343DOD     C216849   0.207  20.668  27.439  0.0010  0.0751  0.0707
24343DOD     C316850   0.407  20.878  27.695 -0.0740 -0.0807  0.0907
24344DOD     C116851  28.109   6.669   8.176 -0.0068 -0.1534  0.3344
24344DOD     C216852  28.243   6.595   8.594 -0.0901  0.0555 -0.1690
24344DOD     C316853  28.560   6.691   8.876  0.0766 -0.0019  0.0407
24345DOD     C116854   4.177   0.868  23.279 -0.1393 -0.1736  0.1033
24345DOD     C216855   4.229   1.249  22.969  0.3447  0.1177 -0.3012
24345DOD     C316856   4.236   1.214  22.539  0.0066 -0.0976  0.0154
24346DOD     C116857  21.531  25.065  12.059 -0.0226  0.0775 -0.2741
24346DOD     C216858  21.135  24.839  12.061 -0.1350  0.0288  0.0065
24346DOD     C316859  20.855  24.514  11.932  0.2465  0.0717 -0.1528
24347DOD     C116860  18.594   4.240   4.664  0.1610 -0.2139  0.0270
24347DOD     C216861  18.227   4.304   4.436 -0.1533  0.3742 -0.1039
24347DOD     C316862  18.020   4.737   4.367  0.1760  0.0104  0.1758
24348DOD     C116863  26.945  14.165  22.973 -0.1683  0.0663 -0.1599
24348DOD     C216864  26.666  13.951  23.249  0.1433 -0.2414 -0.4025
24348DOD     C316865  26.542  13.524  23.502 -0.0706 -0.0438  0.1697
24349DOD     C116866  21.027  24.379   3.220 -0.0518  0.0883 -0.2850
24349DOD     C216867  21.153  24.678   3.601  0.1351  0.0552  0.5559
24349DOD     C316868  21.576  24.862   3.674 -0.4450  0.0001  0.2438
24350DOD     C116869  24.926  22.365  28.481  0.2547 -0.2545 -0.1240
24350DOD     C216870  25.384  22.204  28.617  0.2150  0.1723 -0.2202
24350DOD     C316871  25.705  22.190  28.955  0.1094  0.1416  0.0217
24351DOD     C116872   0.005   9.282   7.094  0.1251 -0.2543  0.0285
24351DOD     C216873   0.093   8.849   6.910 -0.2264 -0.0656  0.0641
24351DOD     C316874   0.397   8.697   6.497 -0.1400  0.2553 -0.0521
24352DOD     C116875  12.028   1.031  18.950 -0.0976 -0.1854 -0.1006
24352DOD     C216876  12.256   0.644  18.809  0.1595 -0.0944 -0.3097
24352DOD     C316877  12.666   0.472  18.789  0.0223  0.1686 -0.0468
24353DOD     C116878   2.945  18.456   3.189  0.0505  0.3541  0.0631
24353DOD     C216879   3.248  18.721   2.970 -0.1423 -0.1451  0.0505
24353DOD     C316880   3.388  18.872   2.542 -0.1135  0.0041  0.1074
24354DOD     C116881  28.373  16.315  14.249 -0.1144  0.2593 -0.1184
24354DOD     C216882  28.739  15.970  14.288  0.1741  0.0687  0.0446
24354DOD     C316883  28.837  15.648  14.592  0.0173  0.1402  0.2462
24355DOD     C116884   9.756  16.775  14.976 -0.1512 -0.0657  0.0774
24355DOD     C216885   9.870  16.574  15.427 -0.2317 -0.1852  0.1457
24355DOD     C316886   9.761  16.290  15.819  0.0717 -0.1168 -0.1586
24356DOD     C116887  20.874  27.375  29.065  0.0881  0.0306  0.3542
24356DOD     C216888  20.774  27.468  29.531 -0.0178 -0.0910  0.1263
24356DOD     C316889  20.598  27.403  29.974 -0.0506 -0.3301  0.2602
24357DOD     C116890  28.559  17.490   2.316  0.1261  0.3510 -0.0488
24357DOD     C216891  28.873  17.788   2.550 -0.0599 -0.0892  0.1334
24357DOD     C316892  29.049  18.180   2.737 -0.1526 -0.1117  0.0447
24358DOD     C116893  14.806  14.054   8.053  0.0813  0.0118 -0.0344
24358DOD     C216894  14.426  14.346   8.228 -0.2030 -0.0309 -0.1011
24358DOD     C316895  13.991  14.288   8.421 -0.2110  0.1914  0.2237
24359DOD     C116896   9.463  25.527  20.242  0.1026  0.3767 -0.0080
24359DOD     C216897   9.822  25.243  20.153  0.1559  0.0861  0.0050
24359DOD     C316898  10.125  24.980  19.869  0.0440 -0.2003  0.1729
24360DOD     C116899   7.371   3.544   0.492  0.1403 -0.2670 -0.0002
24360DOD     C216900   7.704   3.549   0.762 -0.1855 -0.0992  0.1630
24360DOD     C316901   8.103   3.697   0.979 -0.0021 -0.1206  0.0605
24361DOD     C116902  23.826  24.554  13.091  0.0326 -0.1224 -0.0852
24361DOD     C216903  23.699  24.745  12.712  0.2777  0.4263  0.3925
24361DOD     C316904  23.342  24.524  12.483  0.1433  0.0224 -0.1998
24362DOD     C116905  29.064   0.173  22.305 -0.3629 -0.2326 -0.3093
24362DOD     C216906  29.295   0.465  22.644  0.0832  0.1787  0.0554
24362DOD     C316907  29.434   0.796  22.956 -0.2739  0.2439 -0.2768
24363DOD     C116908  13.079   0.838  22.070 -0.4612 -0.2377  0.0481
24363DOD     C216909  12.958   0.650  21.680  0.1027 -0.0725  0.3138
24363DOD     C316910  12.687   0.783  21.326 -0.0037  0.2844  0.0339
24364DOD     C116911   6.098  27.590   5.103  0.1469 -0.0071  0.3047
24364DOD     C216912   5.653  27.651   5.266 -0.1237  0.0656  0.1329
24364DOD     C316913   5.302  27.802   5.558  0.4110  0.1104  0.3175
24365DOD     C116914  15.550  10.133  29.731 -0.0461 -0.1932 -0.1606
24365DOD     C216915  15.237   9.850  29.565 -0.0698  0.2604  0.1761
24365DOD     C316916  15.256   9.355  29.395 -0.0497  0.0914 -0.0124
24366DOD     C116917   3.666   3.655   6.439 -0.1814  0.0964 -0.0551
24366DOD     C216918   4.003   3.951   6.669 -0.0379 -0.2956 -0.2034
24366DOD     C316919   4.072   4.275   7.028 -0.2225  0.0265  0.3830
24367DOD     C116920  25.753  28.546  28.535  0.1392 -0.2281 -0.1470
24367DOD     C216921  26.149  28.234  28.610  0.0436 -0.0695 -0.1800
24367DOD     C316922  26.634  28.215  28.489 -0.0573 -0.2168 -0.1214
24368DOD     C116923  23.241  16.223  13.972  0.0907 -0.2711 -0.4274
24368DOD     C216924  23.002  16.101  13.604 -0.2396  0.1208 -0.0547
24368DOD     C316925  22.620  15.847  13.529  0.0094  0.1079 -0.2173
24369DOD     C116926  16.166  21.706  15.067  0.0122  0.2884 -0.0518
24369DOD     C216927  16.456  22.112  15.075  0.0321  0.0031 -0.1888
24369DOD     C316928  16.655  22.429  15.363  0.3286 -0.0321 -0.0937
24370DOD     C116929  26.601  29.793  10.893 -0.2789 -0.1787  0.1519
24370DOD     C216930  26.353  30.039  11.197 -0.1846 -0.0668 -0.0497
24370DOD     C316931  26.173  29.899  11.568  0.2320 -0.1003  0.1501
24371DOD     C116932  22.475  23.168  13.930  0.1496  0.0818  0.1556
24371DOD     C216933  22.389  23.498  13.599  0.2145 -0.0182 -0.4017
24371DOD     C316934  22.614  23.733  13.302  0.1646 -0.0921 -0.1557
24372DOD     C116935  11.969  17.218  27.777 -0.0753  0.2177  0.1870
24372DOD     C216936  12.041  16.882  28.109  0.2084 -0.0835  0.1099
24372DOD     C316937  12.104  16.687  28.504  0.1794 -0.4674 -0.1947
24373DOD     C116938   1.793   8.686  15.403  0.0843 -0.0073  0.0117
24373DOD     C216939   2.104   8.803  15.718  0.1792 -0.1359 -0.0557
24373DOD     C316940   2.301   9.039  16.044 -0.3246  0.1411  0.0140
24374DOD     C116941  16.601   7.108  24.920 -0.0964  0.1766  0.0057
24374DOD     C216942  17.080   7.242  24.925  0.0384 -0.0334  0.1597
24374DOD     C316943  17.390   7.506  24.725  0.0581  0.2216  0.0433
24375DOD     C116944   6.760  20.989   2.817  0.0727 -0.1491  0.2772
24375DOD     C216945   7.129  21.322   2.797 -0.2378 -0.2323 -0.0770
24375DOD     C316946   7.580  21.468   2.975  0.0559  0.3883 -0.2284
24376DOD     C116947   3.808  22.589   8.914 -0.1893  0.1269 -0.0799
24376DOD     C216948   3.843  22.259   9.260  0.0914  0.0440 -0.1748
24376DOD     C316949   3.938  22.057   9.659 -0.3738  0.1285  0.0472
24377DOD     C116950   7.305  28.943   0.057 -0.1299 -0.1077  0.0955
24377DOD     C216951   7.370  29.168  29.987 -0.5274 -0.1325 -0.1935
24377DOD     C316952   7.016  29.075  29.693 -0.1387  0.1603  0.0428
24378DOD     C116953  22.603  21.603  20.750  0.1667 -0.1075 -0.1653
24378DOD     C216954  22.470  21.158  20.693 -0.3711 -0.2425 -0.0594
24378DOD     C316955  22.346  20.943  20.324 -0.0270 -0.2076 -0.1186
24379DOD     C116956   9.635  11.344   4.422  0.4935 -0.3065  0.2191
24379DOD     C216957   9.353  10.907   4.421  0.0881 -0.0132 -0.0983
24379DOD     C316958   9.311  10.466   4.198  0.0181 -0.1119  0.0324
24380DOD     C116959  24.337  18.016  27.180 -0.0493  0.2739  0.3880
24380DOD     C216960  24.230  17.678  26.838  0.2833  0.2459 -0.0173
24380DOD     C316961  24.329  17.224  26.743  0.0420  0.1257 -0.0649
24381DOD     C116962   5.176  27.090  11.008 -0.0887 -0.1383  0.0812
24381DOD     C216963   5.055  27.007  11.477  0.0641 -0.1473  0.0054
24381DOD     C316964   5.307  27.060  11.846 -0.0687 -0.2282 -0.0921
24382DOD     C116965  29.224  16.101   8.341 -0.1275 -0.4818  0.1897
24382DOD     C216966  29.392  15.759   8.630  0.0835  0.2067  0.4091
24382DOD     C316967  29.621  15.352   8.717 -0.0431 -0.1676 -0.0064
24383DOD     C116968  17.977  11.261  28.609 -0.0752  0.0608  0.0383
24383DOD     C216969  17.987  11.698  28.681  0.0535  0.0957 -0.0207
24383DOD     C316970  17.833  12.134  28.845  0.0122 -0.1546  0.0921
24384DOD     C116971  17.613  28.341   4.893  0.0799 -0.1113 -0.0292
24384DOD     C216972  17.451  28.142   4.478 -0.2222  0.0644 -0.0589
24384DOD     C316973  17.257  28.291   4.081 -0.0032  0.0152 -0.3147
24385DOD     C116974   6.393   3.586  10.046 -0.1097  0.1251  0.0259
24385DOD     C216975   6.587   4.029  10.168  0.0607 -0.1447 -0.2955
24385DOD     C316976   6.747   4.390  10.408  0.1620 -0.3193  0.0227
24386DOD     C116977  16.433   1.314  16.470  0.1379 -0.2903  0.0602
24386DOD     C216978  16.579   0.855  16.297 -0.1149 -0.1765 -0.2461
24386DOD     C316979  16.650   0.384  16.227  0.2169  0.2176 -0.2174
24387DOD     C116980  15.509  14.462  20.940 -0.0220  0.6646 -0.1467
24387DOD     C216981  15.876  14.820  20.869 -0.0504  0.1034  0.2835
24387DOD     C316982  16.052  15.214  21.112  0.1413 -0.0793  0.1524
24388DOD     C116983  15.264  27.968   1.837 -0.0565 -0.1739  0.1898
24388DOD     C216984  15.568  27.714   1.686 -0.0739  0.2878  0.0142
24388DOD     C316985  15.708  27.250   1.592  0.3761  0.1433 -0.1388
24389DOD     C116986   8.485  21.118  28.958  0.1691 -0.2398  0.1899
24389DOD     C216987   8.686  21.569  28.991 -0.1212 -0.1347 -0.5255
24389DOD     C316988   9.045  21.779  28.806 -0.2266 -0.3831  0.0736
24390DOD     C116989   8.657  10.633  19.633  0.0096 -0.1424  0.0687
24390DOD     C216990   8.869  10.977  19.383 -0.0419 -0.1883  0.1863
24390DOD     C316991   9.200  11.219  19.569 -0.0424 -0.0600  0.3408
24391DOD     C116992  12.066   9.977  24.195 -0.0627 -0.1209 -0.0162
24391DOD     C216993  12.337   9.597  24.332 -0.0518  0.0219 -0.0883
24391DOD     C316994  12.748   9.380  24.431  0.0304 -0.1333  0.0390
24392DOD     C116995  23.434  22.590   6.480  0.1542  0.1551  0.4323
24392DOD     C216996  23.002  22.799   6.527 -0.2824 -0.0517 -0.0240
24392DOD     C316997  22.670  22.978   6.667  0.0548  0.1725  0.1092
24393DOD     C116998  19.874  26.036   5.647  0.3051 -0.0542  0.1229
24393DOD     C216999  19.512  25.996   5.946 -0.0087  0.2279 -0.2349
24393DOD     C317000  19.059  26.113   6.030  0.0532  0.1917  0.3508
24394DOD     C117001  16.129  24.496   5.797 -0.0842 -0.1847  0.1159
24394DOD     C217002  16.099  24.878   6.096  0.0533  0.1569 -0.0615
24394DOD     C317003  16.288  24.933   6.483  0.0421  0.1870 -0.2296
24395DOD     C117004  29.777   4.327   0.342 -0.0255 -0.1154 -0.0194
24395DOD     C217005  29.589   4.146   0.662  0.3767 -0.2522  0.2680
24395DOD     C317006  29.151   3.922   0.695 -0.0338  0.2917 -0.1172
24396DOD     C117007  27.879   4.513  11.065 -0.0117  0.4315  0.0155
24396DOD     C217008  27.444   4.305  11.136 -0.3036  0.2388 -0.0237
24396DOD     C317009  27.024   4.052  11.233 -0.1655 -0.3329 -0.0158
24397DOD     C117010  12.503  24.794  28.383 -0.0272 -0.3704 -0.0278
24397DOD     C217011  12.564  24.869  28.794 -0.0906 -0.1039 -0.3489
24397DOD     C317012  12.593  25.121  29.154 -0.0351  0.0475 -0.1718
24398DOD     C117013   1.764   9.279  21.349 -0.0066  0.0711  0.3054
24398DOD     C217014   1.899   8.967  21.715 -0.2015  0.0043  0.1429
24398DOD     C317015   1.996   8.680  22.021 -0.0982  0.1049 -0.0589
24399DOD     C117016  10.100  30.137  23.109  0.0983  0.1179 -0.3092
24399DOD     C217017   9.679  30.162  22.859 -0.2328 -0.1743  0.3073
24399DOD     C317018   9.514  29.965  22.441 -0.0172 -0.1962  0.0253
24400DOD     C117019  14.526  12.640  28.441  0.4107 -0.0895 -0.0400
24400DOD     C217020  14.812  12.464  28.789  0.1746 -0.1256 -0.1984
24400DOD     C317021  15.094  12.283  29.098  0.2951 -0.2518 -0.0252
24401DOD     C117022   5.997  14.360  22.299  0.1802 -0.1012 -0.2419
24401DOD     C217023   5.666  13.979  22.223 -0.1206  0.4259  0.0523
24401DOD     C317024   5.288  13.688  22.210  0.0113  0.2418  0.1967
24402DOD     C117025   8.421  19.918  11.947 -0.1362  0.1251 -0.2071
24402DOD     C217026   8.292  20.066  12.391 -0.2228 -0.0626  0.3184
24402DOD     C317027   8.199  20.218  12.854  0.0002 -0.2397  0.1452
24403DOD     C117028  10.159  29.035   8.345  0.0165  0.0611 -0.2091
24403DOD     C217029   9.693  28.917   8.380  0.0880 -0.3383  0.0050
24403DOD     C317030   9.344  29.250   8.526  0.0639 -0.1688 -0.0661
24404DOD     C117031  14.158  14.930  26.359  0.2185  0.1109  0.1648
24404DOD     C217032  14.437  15.249  26.301  0.0032 -0.1991  0.3106
24404DOD     C317033  14.836  15.497  26.437  0.2523  0.1412 -0.2242
24405DOD     C117034   6.276   7.276   5.676 -0.2747  0.2021  0.2658
24405DOD     C217035   6.261   7.461   6.087 -0.3187 -0.0596  0.5564
24405DOD     C317036   6.218   7.657   6.523 -0.4156  0.5006  0.2072
24406DOD     C117037  21.788  29.440  10.101  0.3533 -0.3691 -0.3355
24406DOD     C217038  21.362  29.645  10.044 -0.1044 -0.3408  0.0728
24406DOD     C317039  20.934  29.687   9.858  0.2941 -0.0859  0.1115
24407DOD     C117040  17.945  24.193   2.056 -0.0704  0.2571  0.0039
24407DOD     C217041  17.507  24.254   1.897  0.2503  0.2668  0.0906
24407DOD     C317042  17.113  24.392   1.601  0.0162 -0.0542  0.1015
24408DOD     C117043  10.933  25.704  18.305 -0.0262  0.2268 -0.2095
24408DOD     C217044  10.585  25.953  18.143  0.1910 -0.2149  0.0904
24408DOD     C317045  10.206  26.194  17.912  0.0455 -0.1107  0.4814
24409DOD     C117046   4.086  29.610   7.766  0.1281  0.1061  0.0473
24409DOD     C217047   4.242  29.592   8.197 -0.1253 -0.2064 -0.1323
24409DOD     C317048   4.483  29.598   8.599  0.0449 -0.0603  0.2877
24410DOD     C117049   2.354  24.470  22.349 -0.1688  0.2826  0.1707
24410DOD     C217050   1.944  24.667  22.224  0.1886  0.4131  0.2378
24410DOD     C317051   1.814  24.982  21.963 -0.3320  0.0020  0.0422
24411DOD     C117052  19.719   1.278  20.198 -0.5183  0.3883 -0.0833
24411DOD     C217053  19.310   1.522  19.939 -0.1433 -0.0762 -0.2795
24411DOD     C317054  19.042   1.724  19.612 -0.3705 -0.1497  0.2954
24412DOD     C117055  10.651   8.595   4.173  0.0674  0.2281 -0.0237
24412DOD     C217056  10.643   8.193   4.020  0.0136 -0.0495  0.0555
24412DOD     C317057  10.851   7.816   3.930  0.0389  0.0384  0.0570
24413DOD     C117058   0.789  10.589   5.997 -0.0090  0.2539 -0.1474
24413DOD     C217059   0.833  10.532   5.549 -0.0641  0.0096 -0.0897
24413DOD     C317060   0.585  10.827   5.281 -0.0783 -0.0087 -0.1202
24414DOD     C117061   4.230  26.755  24.717 -0.1216 -0.1457  0.2445
24414DOD     C217062   3.833  26.643  24.426 -0.2291  0.0748  0.2325
24414DOD     C317063   3.499  26.372  24.586 -0.1001 -0.3469 -0.0500
24415DOD     C117064  20.116  17.372  13.943  0.1434  0.1431  0.0935
24415DOD     C217065  20.287  16.970  14.121  0.2181  0.3189 -0.3123
24415DOD     C317066  20.727  16.839  14.223 -0.3040  0.3561  0.0196
24416DOD     C117067  18.540   1.752   8.656  0.3490 -0.1447  0.1867
24416DOD     C217068  18.383   1.610   8.217 -0.4077 -0.3319 -0.1279
24416DOD     C317069  18.539   1.665   7.741  0.2506  0.1298 -0.3278
24417DOD     C117070  29.906  27.447  17.409  0.0190  0.2387  0.1224
24417DOD     C217071   0.081  27.518  17.361  0.0369 -0.0858 -0.1882
24417DOD     C317072   0.488  27.591  17.452  0.1085 -0.1085  0.1792
24418DOD     C117073   4.605  17.439  15.965 -0.0458  0.0676 -0.0252
24418DOD     C217074   4.750  17.802  15.848 -0.0061 -0.0476  0.0217
24418DOD     C317075   4.971  18.019  16.191  0.0584 -0.0441 -0.0307
24419DOD     C117076   1.686  26.833  26.990  0.1169 -0.1237 -0.1432
24419DOD     C217077   2.022  26.994  26.686 -0.4793 -0.3243  0.1413
24419DOD     C317078   2.333  27.148  26.295 -0.2579 -0.0606 -0.2353
24420DOD     C117079  29.159   6.143  14.311  0.0756 -0.3288  0.3270
24420DOD     C217080  28.866   6.268  13.960 -0.1293 -0.2558 -0.1898
24420DOD     C317081  28.611   6.159  13.557  0.1267 -0.0813  0.1369
24421DOD     C117082  18.617   8.767   4.866  0.0596 -0.2000  0.1191
24421DOD     C217083  18.471   8.611   5.252 -0.0306  0.2841  0.2211
24421DOD     C317084  18.353   8.432   5.653 -0.2407  0.0433 -0.0522
24422DOD     C117085  14.003   6.962  27.826  0.0552  0.2071 -0.0033
24422DOD     C217086  14.023   6.554  27.542  0.0498  0.2008  0.0446
24422DOD     C317087  13.711   6.253  27.277 -0.0121  0.1572  0.3085
24423DOD     C117088   6.804   9.738  21.586 -0.0345 -0.1178  0.2109
24423DOD     C217089   6.868   9.435  21.212 -0.0197  0.0622 -0.1065
24423DOD     C317090   7.298   9.561  20.977 -0.2573  0.0208  0.0626
24424DOD     C117091  23.813  17.877   5.679  0.0526  0.2455 -0.0594
24424DOD     C217092  23.683  17.509   5.348 -0.2876  0.1445 -0.3016
24424DOD     C317093  23.552  17.133   5.122 -0.2574 -0.3750  0.2216
24425DOD     C117094  18.189  18.891  13.154  0.0419 -0.0733  0.1538
24425DOD     C217095  17.880  19.021  13.501 -0.1721  0.1730  0.0344
24425DOD     C317096  17.497  18.989  13.706 -0.1743  0.1640 -0.0271
24426DOD     C117097  16.549  13.155  15.046  0.1621 -0.2135 -0.0590
24426DOD     C217098  16.899  13.250  15.260 -0.2256 -0.1443 -0.0563
24426DOD     C317099  17.177  13.138  15.626 -0.2374 -0.1056 -0.1503
24427DOD     C117100   6.936  26.740  23.337  0.0146 -0.0257 -0.0493
24427DOD     C217101   6.727  27.182  23.386 -0.0783  0.1679 -0.2741
24427DOD     C317102   6.523  27.607  23.334  0.2063 -0.1695  0.3066
24428DOD     C117103  27.311  20.414  16.532  0.3779 -0.0237  0.1303
24428DOD     C217104  27.032  20.211  16.206  0.1405  0.1731 -0.0201
24428DOD     C317105  26.681  19.887  16.226  0.1711  0.4348 -0.1111
24429DOD     C117106   1.465  14.994  21.180 -0.0035 -0.2677  0.0645
24429DOD     C217107   1.482  14.638  20.917  0.0095  0.1122  0.2997
24429DOD     C317108   1.772  14.290  21.158  0.0598 -0.1953 -0.1439
24430DOD     C117109   9.812  23.427  28.974  0.0922  0.1630  0.0707
24430DOD     C217110   9.673  23.308  28.559 -0.2641 -0.0164  0.2447
24430DOD     C317111   9.428  23.380  28.150 -0.1063 -0.2753 -0.0192
24431DOD     C117112   9.593  10.349  16.211  0.2851 -0.3328  0.2237
24431DOD     C217113   9.912  10.631  15.936 -0.2853 -0.2583 -0.2540
24431DOD     C317114  10.101  10.863  15.539 -0.1369 -0.0493 -0.2167
24432DOD     C117115   7.403  21.229   4.839  0.0210  0.2350 -0.0018
24432DOD     C217116   7.135  21.212   5.218 -0.0439  0.2192 -0.0348
24432DOD     C317117   6.783  21.348   5.510 -0.1725  0.0858  0.0598
24433DOD     C117118  13.701  10.787   9.565  0.2128  0.2704  0.2677
24433DOD     C217119  14.059  10.952   9.697 -0.1059 -0.0498  0.0239
24433DOD     C317120  14.403  10.997  10.001 -0.0531 -0.2163  0.0838
24434DOD     C117121  30.255   6.521   4.516  0.1171 -0.0150 -0.1236
24434DOD     C217122   0.242   6.402   4.870 -0.1137 -0.0453  0.0909
24434DOD     C317123   0.223   6.592   5.337  0.0012 -0.1856  0.0121
24435DOD     C117124   8.111  20.002  19.937  0.0316  0.1761 -0.1735
24435DOD     C217125   7.890  19.694  20.191  0.2959 -0.2193 -0.1653
24435DOD     C317126   7.580  19.305  20.150 -0.3751 -0.0574 -0.2027
24436DOD     C117127  22.500  11.792  25.374  0.2274 -0.2416 -0.0957
24436DOD     C217128  22.694  12.180  25.160  0.0690 -0.0197  0.1778
24436DOD     C317129  23.009  12.493  24.957  0.1421  0.0073 -0.0537
24437DOD     C117130  15.468  28.250  28.320  0.2899  0.0521 -0.1550
24437DOD     C217131  15.356  28.069  28.712 -0.0971  0.1927 -0.0706
24437DOD     C317132  15.653  27.956  29.072  0.0909  0.0534 -0.0493
24438DOD     C117133  26.410   9.409  22.706  0.3596 -0.0952 -0.1562
24438DOD     C217134  26.563   9.792  22.613  0.1930  0.0619  0.0282
24438DOD     C317135  26.672  10.222  22.583  0.0575  0.3058 -0.0846
24439DOD     C117136  19.635   4.819  26.371  0.0500  0.0539 -0.0382
24439DOD     C217137  20.088   4.923  26.443 -0.0996 -0.0557 -0.3827
24439DOD     C317138  20.441   5.030  26.761 -0.2048 -0.0689 -0.2994
24440DOD     C117139   4.582  29.392  26.899  0.1145 -0.4255 -0.0346
24440DOD     C217140   4.734  28.991  27.145 -0.0352  0.1101 -0.0043
24440DOD     C317141   4.667  28.583  27.266 -0.0674 -0.0852  0.1584
24441DOD     C117142   3.528   7.292  11.477  0.2327  0.1986  0.5052
24441DOD     C217143   3.459   7.177  11.917  0.2776  0.3092 -0.0681
24441DOD     C317144   3.522   7.291  12.394  0.1153  0.2324 -0.1383
24442DOD     C117145  11.716  14.378   8.450  0.0735 -0.2687 -0.2537
24442DOD     C217146  11.763  13.981   8.208 -0.2108  0.0956 -0.1421
24442DOD     C317147  11.477  13.609   8.195 -0.1858 -0.3097  0.1029
24443DOD     C117148   4.146  16.149  25.395  0.0043  0.0934 -0.2774
24443DOD     C217149   4.477  16.114  25.135 -0.3446 -0.4297  0.0619
24443DOD     C317150   4.946  16.134  25.086  0.1752  0.2463 -0.1493
24444DOD     C117151  28.315   1.955  23.545 -0.0764  0.0566  0.1267
24444DOD     C217152  28.699   2.031  23.286 -0.3792 -0.0161  0.0229
24444DOD     C317153  29.117   2.097  23.042  0.3156  0.2648 -0.2191
24445DOD     C117154  22.891   7.629  14.690  0.0577 -0.2143 -0.2110
24445DOD     C217155  22.540   7.439  14.903 -0.3755 -0.0071 -0.1671
24445DOD     C317156  22.135   7.292  15.062  0.1212 -0.1056  0.3101
24446DOD     C117157  14.272  25.870  14.904  0.0186 -0.1559  0.4859
24446DOD     C217158  14.041  25.948  14.470  0.0502 -0.1083 -0.1145
24446DOD     C317159  13.788  25.947  14.117  0.0400 -0.0270 -0.0745
24447DOD     C117160  27.461   8.785  28.418 -0.2178  0.0433 -0.2139
24447DOD     C217161  27.444   9.222  28.617 -0.2053  0.0669 -0.0816
24447DOD     C317162  27.189   9.596  28.777 -0.1520 -0.0186 -0.0363
24448DOD     C117163   4.931  13.659  15.645  0.3046  0.0013  0.0054
24448DOD     C217164   5.182  13.648  15.275  0.0208 -0.0677  0.0954
24448DOD     C317165   5.209  13.821  14.876 -0.3899  0.0381 -0.1072
24449DOD     C117166   2.329  12.583  14.431  0.1229 -0.1399  0.0660
24449DOD     C217167   2.076  12.238  14.596 -0.3716  0.3442 -0.0207
24449DOD     C317168   2.033  11.816  14.647 -0.0786  0.0947  0.2976
24450DOD     C117169  13.848  27.620  22.050  0.0707  0.1631 -0.1288
24450DOD     C217170  13.748  28.058  22.239 -0.2900 -0.1336 -0.1078
24450DOD     C317171  13.962  28.199  22.649 -0.1209 -0.1690 -0.2181
24451DOD     C117172  28.196  26.666  13.821  0.0364 -0.3103  0.1864
24451DOD     C217173  28.348  26.454  14.230  0.0995  0.2487  0.1372
24451DOD     C317174  28.762  26.503  14.445 -0.0723  0.1986 -0.0431
24452DOD     C117175  14.081  24.732   6.858 -0.1412 -0.0912 -0.1690
24452DOD     C217176  14.546  24.655   6.741  0.0294 -0.0551  0.4125
24452DOD     C317177  14.937  24.618   6.452 -0.1095  0.1496  0.0835
24453DOD     C117178   0.089  21.510   8.946 -0.0153  0.1110  0.0515
24453DOD     C217179  30.265  21.246   9.387 -0.0423 -0.1314 -0.0096
24453DOD     C317180   0.067  20.984   9.729  0.2752  0.3073  0.3908
24454DOD     C117181  27.508  15.265   0.134 -0.0438  0.1800  0.3328
24454DOD     C217182  27.913  15.462   0.245  0.1794  0.4153 -0.0454
24454DOD     C317183  28.274  15.765   0.328  0.1355 -0.0132  0.1468
24455DOD     C117184  22.311   9.847  13.026  0.3172 -0.1405 -0.0535
24455DOD     C217185  22.651   9.546  13.051 -0.0534  0.0853 -0.0539
24455DOD     C317186  23.041   9.520  12.841  0.1562 -0.0355 -0.2067
24456DOD     C117187  23.573   9.875  17.889 -0.1658  0.0607  0.0736
24456DOD     C217188  23.266  10.236  17.859  0.0424  0.0032  0.0045
24456DOD     C317189  23.004  10.327  17.519 -0.3622 -0.0190  0.1069
24457DOD     C117190  18.786  29.819   5.924  0.2057 -0.2696  0.1880
24457DOD     C217191  19.079  29.522   6.106  0.1425  0.0491 -0.2392
24457DOD     C317192  18.959  29.240   6.463  0.1179 -0.0809  0.1322
24458DOD     C117193   3.956   7.726  19.561  0.2377 -0.0859  0.1514
24458DOD     C217194   4.279   7.913  19.378 -0.1618 -0.0873  0.3009
24458DOD     C317195   4.535   7.689  19.036 -0.0228  0.0779 -0.2284
24459DOD     C117196  27.319  13.328   5.416  0.1103 -0.1764  0.0235
24459DOD     C217197  27.479  12.892   5.301  0.1165 -0.1687  0.1239
24459DOD     C317198  27.748  12.548   5.154 -0.2598 -0.1293  0.1967
24460DOD     C117199  28.797  26.616  25.946 -0.1475  0.0449  0.1023
24460DOD     C217200  28.468  26.362  25.739 -0.3063 -0.2337  0.1162
24460DOD     C317201  28.606  25.910  25.728 -0.0590 -0.0190  0.2347
24461DOD     C117202  27.827  14.518  12.984 -0.0687 -0.1463 -0.1767
24461DOD     C217203  28.174  14.099  12.921  0.1644 -0.0354  0.0650
24461DOD     C317204  28.609  13.930  12.786  0.4893 -0.0732  0.2199
24462DOD     C117205   2.894  28.011  28.721  0.0721  0.1622 -0.2206
24462DOD     C217206   3.321  27.801  28.817 -0.3350  0.0432 -0.0278
24462DOD     C317207   3.824  27.878  28.882  0.1795  0.1102 -0.0933
24463DOD     C117208  25.479  18.636   3.112  0.0366 -0.1082  0.0955
24463DOD     C217209  25.541  18.259   2.942  0.0347  0.0898 -0.0664
24463DOD     C317210  25.491  18.044   2.565  0.1450  0.1510  0.2244
24464DOD     C117211   0.583  21.605  13.133 -0.0629  0.1809 -0.4323
24464DOD     C217212   0.856  21.807  13.429  0.3395 -0.0675 -0.3617
24464DOD     C317213   1.042  21.667  13.823  0.0830 -0.0942 -0.1594
24465DOD     C117214   5.322  10.522  14.996  0.1346  0.2709 -0.1904
24465DOD     C217215   4.861  10.595  14.997 -0.0764 -0.2325  0.0567
24465DOD     C317216   4.417  10.592  14.854 -0.1196 -0.0325  0.2257
24466DOD     C117217  22.684  11.289  26.993  0.1221 -0.0626  0.3383
24466DOD     C217218  22.279  11.085  26.850 -0.2065  0.2410  0.1801
24466DOD     C317219  21.946  10.838  27.065  0.2908 -0.0106 -0.1165
24467DOD     C117220   7.978  11.688   7.647 -0.3655  0.0624  0.3725
24467DOD     C217221   8.304  11.995   7.809 -0.6341  0.0261  0.3809
24467DOD     C317222   8.502  12.292   8.091  0.0590 -0.1167 -0.1768
24468DOD     C117223  24.418   7.298   4.552  0.0704  0.2044 -0.2297
24468DOD     C217224  24.107   7.129   4.903 -0.2783 -0.2299  0.0987
24468DOD     C317225  23.773   7.007   5.182 -0.0312 -0.0140 -0.1636
24469DOD     C117226  12.850  25.141  16.688 -0.2747  0.3492 -0.2834
24469DOD     C217227  12.736  25.177  16.254 -0.1275 -0.0279 -0.0338
24469DOD     C317228  13.058  25.179  15.978  0.0792 -0.6545  0.1483
24470DOD     C117229   0.758  16.413  21.797 -0.1542 -0.0646 -0.0107
24470DOD     C217230   0.754  16.434  21.344  0.0717  0.1565  0.1455
24470DOD     C317231   0.656  16.370  20.900 -0.1028 -0.3354 -0.2503
24471DOD     C117232  15.118  15.369  18.499  0.0412  0.0491 -0.1417
24471DOD     C217233  14.698  15.562  18.390 -0.1961 -0.1021 -0.0781
24471DOD     C317234  14.519  15.921  18.151  0.0811 -0.1836  0.2301
24472DOD     C117235  22.615   0.574   6.333 -0.1552 -0.2387  0.0156
24472DOD     C217236  22.641   0.273   6.749 -0.0189 -0.3544 -0.3723
24472DOD     C317237  22.407  30.229   6.949  0.1785 -0.2802  0.3998
24473DOD     C117238  25.024  25.281   2.819  0.0505  0.0403  0.4227
24473DOD     C217239  24.729  25.055   2.506 -0.5180  0.0029 -0.1500
24473DOD     C317240  24.463  24.684   2.547  0.2753  0.0092 -0.0332
24474DOD     C117241   2.191   2.844   0.034 -0.2158  0.2509  0.1099
24474DOD     C217242   2.534   3.068   0.220 -0.2939  0.2029  0.2158
24474DOD     C317243   2.963   3.299   0.280  0.1556 -0.1996 -0.2657
24475DOD     C117244   5.256  25.511   6.851 -0.1921  0.1117 -0.1899
24475DOD     C217245   4.996  25.738   6.526  0.2931  0.4970 -0.5044
24475DOD     C317246   4.569  25.815   6.426 -0.0478  0.0607 -0.2380
24476DOD     C117247   3.393  15.852   4.301 -0.3086 -0.3668  0.1812
24476DOD     C217248   3.665  16.175   4.592 -0.1308 -0.0127 -0.2482
24476DOD     C317249   4.009  16.395   4.719  0.0382  0.0457  0.0096
24477DOD     C117250  13.415  21.659  21.604  0.2616 -0.1008  0.0731
24477DOD     C217251  13.161  21.264  21.567  0.0092  0.2362 -0.3042
24477DOD     C317252  13.036  20.867  21.789  0.0526 -0.1485  0.1336
24478DOD     C117253   1.226   9.948  21.649  0.1206 -0.2584 -0.1809
24478DOD     C217254   0.976  10.151  22.053  0.2496  0.2647 -0.2281
24478DOD     C317255   0.903  10.101  22.470  0.1165  0.4053  0.0765
24479DOD     C117256  16.172  12.378   1.575  0.0957 -0.4806  0.1500
24479DOD     C217257  15.979  12.782   1.753 -0.1263 -0.0904  0.3265
24479DOD     C317258  15.639  13.089   1.740 -0.1579  0.0843  0.2300
24480DOD     C117259  19.537   2.691   9.659  0.1355 -0.1609  0.2870
24480DOD     C217260  19.136   2.565   9.538  0.0251  0.0133  0.1267
24480DOD     C317261  18.893   2.311   9.192  0.0852 -0.0379  0.0315
24481DOD     C117262  29.021  11.039   6.888 -0.1511  0.1205 -0.0616
24481DOD     C217263  29.353  11.025   6.592  0.0040  0.3961  0.2247
24481DOD     C317264  29.717  11.029   6.295 -0.1423  0.4138 -0.2087
24482DOD     C117265  24.619   7.351  16.363 -0.1130 -0.2533 -0.0132
24482DOD     C217266  24.686   6.813  16.366 -0.1536 -0.1350  0.2249
24482DOD     C317267  25.031   6.467  16.311 -0.0528 -0.0377 -0.2160
24483DOD     C117268  22.899  18.367  19.490  0.1757 -0.3047  0.0993
24483DOD     C217269  22.666  18.767  19.634  0.1253  0.0095  0.0947
24483DOD     C317270  22.657  19.260  19.581 -0.2284 -0.0112 -0.2858
24484DOD     C117271  14.699  16.173  13.928 -0.2430 -0.1856 -0.0262
24484DOD     C217272  14.646  15.905  13.564 -0.0677  0.0591  0.2987
24484DOD     C317273  14.359  15.747  13.169  0.1012  0.0646  0.1974
24485DOD     C117274   6.823  10.878   2.642 -0.1835  0.0434  0.0656
24485DOD     C217275   6.375  10.816   2.477  0.1008 -0.1524 -0.1776
24485DOD     C317276   6.018  10.508   2.509 -0.0903 -0.2350 -0.1496
24486DOD     C117277  18.060  18.869   2.201  0.3303  0.1559 -0.1085
24486DOD     C217278  18.413  18.652   2.470 -0.2831 -0.0819 -0.2712
24486DOD     C317279  18.857  18.612   2.477 -0.0542  0.2143  0.1213
24487DOD     C117280  18.416  14.648   2.835 -0.0654 -0.0782 -0.2021
24487DOD     C217281  18.135  14.697   2.407 -0.0427  0.2351  0.0418
24487DOD     C317282  17.754  14.961   2.235  0.1263  0.1307 -0.1449
24488DOD     C117283   9.169  12.833  25.436 -0.1622  0.2455  0.0730
24488DOD     C217284   9.113  12.645  25.021  0.2294  0.0739  0.1216
24488DOD     C317285   9.286  12.296  24.761  0.1162  0.3061 -0.3023
24489DOD     C117286   7.879  24.013  19.779  0.1782  0.2633 -0.1855
24489DOD     C217287   7.546  24.336  19.764  0.2153  0.1915  0.1866
24489DOD     C317288   7.440  24.618  20.121  0.1345 -0.1478 -0.2066
24490DOD     C117289  26.488  13.891  19.817  0.3021 -0.1356 -0.3089
24490DOD     C217290  26.455  13.920  19.403 -0.0933 -0.2874 -0.2230
24490DOD     C317291  26.499  14.083  18.935  0.0049  0.0352  0.1019
24491DOD     C117292  15.935  16.568  28.894 -0.0715 -0.1480 -0.0474
24491DOD     C217293  15.710  16.969  28.770 -0.0669  0.2168 -0.0111
24491DOD     C317294  15.697  17.336  28.485 -0.0929  0.2497 -0.0281
24492DOD     C117295  25.789  19.982  29.461 -0.0711  0.0619 -0.0376
24492DOD     C217296  25.902  20.110  29.857 -0.2712 -0.2111  0.1667
24492DOD     C317297  25.727  20.277  30.224 -0.0306 -0.0920  0.0683
24493DOD     C117298   4.178   1.618  22.157 -0.2176 -0.1267  0.0200
24493DOD     C217299   4.605   1.410  22.037 -0.0084 -0.6478 -0.1992
24493DOD     C317300   4.815   1.039  21.931  0.1594  0.0843  0.0425
24494DOD     C117301   1.229  23.729   9.573 -0.3169  0.1156  0.3872
24494DOD     C217302   0.780  23.767   9.420  0.0718 -0.0434 -0.0733
24494DOD     C317303   0.377  23.783   9.230  0.2074  0.1189  0.1912
24495DOD     C117304   7.121  11.751   9.069 -0.0023 -0.1392 -0.2746
24495DOD     C217305   6.806  11.529   8.724 -0.0610 -0.2010  0.1208
24495DOD     C317306   6.806  11.257   8.394 -0.3149 -0.1021 -0.0993
24496DOD     C117307  24.824  11.054  29.648  0.0836 -0.0584  0.1199
24496DOD     C217308  24.608  11.406  29.950  0.0524  0.1928 -0.0962
24496DOD     C317309  24.211  11.698  30.076 -0.1380  0.0907 -0.0108
24497DOD     C117310   4.451  27.051  22.573  0.1688 -0.0051  0.1874
24497DOD     C217311   4.217  27.239  22.896  0.2184  0.0687  0.0393
24497DOD     C317312   3.860  27.253  23.210 -0.1652  0.0368  0.1200
24498DOD     C117313  12.048  17.580  17.400  0.2372  0.1084  0.2160
24498DOD     C217314  11.651  17.558  17.596  0.2827  0.0406  0.0960
24498DOD     C317315  11.252  17.593  17.761 -0.3783 -0.2469 -0.0478
24499DOD     C117316   5.123   2.034   5.931  0.1863  0.1255 -0.1954
24499DOD     C217317   5.504   2.067   6.216  0.2449  0.1395 -0.0220
24499DOD     C317318   5.517   2.093   6.682 -0.1263  0.1389  0.0894
24500DOD     C117319  24.962  23.469  28.591  0.0988 -0.2972 -0.5529
24500DOD     C217320  25.051  23.688  28.956  0.0925  0.0081 -0.2630
24500DOD     C317321  25.360  23.814  29.295  0.0514 -0.0955 -0.1373
24501DOD     C117322  25.614  27.691  14.308 -0.0891  0.0775 -0.1978
24501DOD     C217323  25.624  27.199  14.367 -0.2725 -0.2671 -0.1508
24501DOD     C317324  25.958  26.906  14.142 -0.0551  0.0889 -0.3817
24502DOD     C117325  28.528  11.982   3.051  0.1418 -0.0142  0.1648
24502DOD     C217326  28.577  11.557   3.082  0.0079  0.3321  0.0602
24502DOD     C317327  28.847  11.182   3.230 -0.0661  0.1288 -0.0703
24503DOD     C117328  23.318  18.605   2.503  0.2322 -0.1979  0.0807
24503DOD     C217329  22.950  18.374   2.730  0.0106  0.0565 -0.0993
24503DOD     C317330  22.629  18.228   3.006 -0.0996  0.3793  0.1913
24504DOD     C117331  24.158   8.961  14.700 -0.2014 -0.0646  0.0528
24504DOD     C217332  23.992   9.197  14.276  0.2406 -0.1572 -0.2710
24504DOD     C317333  23.862   9.531  14.002  0.2478 -0.0706  0.0342
24505DOD     C117334  11.285   0.372  17.522  0.2704 -0.0039  0.0749
24505DOD     C217335  11.299   0.480  17.959 -0.0450 -0.0839 -0.0396
24505DOD     C317336  11.367   0.569  18.414 -0.0544 -0.0858  0.0407
24506DOD     C117337  10.543  16.043  10.884 -0.2027 -0.1256  0.0738
24506DOD     C217338  10.573  16.387  10.517  0.0298  0.0496 -0.1871
24506DOD     C317339  10.602  16.577  10.107  0.3605 -0.1328 -0.0175
24507DOD     C117340  11.480  15.574  12.961 -0.0938 -0.0551  0.1464
24507DOD     C217341  11.832  15.345  13.142 -0.0560  0.1486 -0.1814
24507DOD     C317342  12.294  15.253  13.211 -0.0526 -0.1855  0.1321
24508DOD     C117343   1.104  30.139  23.892 -0.0092 -0.2043  0.0506
24508DOD     C217344   1.054  29.802  23.643 -0.0638  0.1194  0.2521
24508DOD     C317345   1.050  29.491  23.314  0.0036  0.1224  0.0155
24509DOD     C117346   8.112  24.926  15.317 -0.0134 -0.1401 -0.0809
24509DOD     C217347   8.392  24.840  15.659 -0.1690 -0.0361 -0.1952
24509DOD     C317348   8.796  24.786  15.931  0.2689  0.3334  0.1360
24510DOD     C117349  15.963   6.689  12.385  0.2231 -0.0472  0.2091
24510DOD     C217350  15.792   6.285  12.516 -0.0532 -0.0891  0.0392
24510DOD     C317351  15.817   6.132  12.974 -0.1450 -0.3523 -0.2377
24511DOD     C117352   1.661  27.759  18.160  0.1938  0.1338 -0.0759
24511DOD     C217353   1.982  27.452  18.365  0.0152  0.0376 -0.4041
24511DOD     C317354   2.249  27.157  18.699 -0.0973 -0.0997  0.0099
24512DOD     C117355   7.662  22.093  18.711  0.0804 -0.1470  0.2535
24512DOD     C217356   7.967  22.169  19.041 -0.5719  0.5330  0.2527
24512DOD     C317357   8.390  21.910  19.207 -0.1004  0.0582 -0.1652
24513DOD     C117358   9.187  10.427   9.113 -0.0458 -0.0642  0.0623
24513DOD     C217359   8.756  10.275   9.200 -0.1142  0.1625 -0.1693
24513DOD     C317360   8.542   9.871   9.226  0.0240 -0.0678  0.0803
24514DOD     C117361  18.218  16.129   1.692 -0.0303  0.0601 -0.0542
24514DOD     C217362  18.587  16.451   1.650 -0.1019  0.0585 -0.0746
24514DOD     C317363  18.660  16.866   1.573 -0.1293  0.0888 -0.0455
24515DOD     C117364   5.097   3.914  25.265  0.0979 -0.0132 -0.0917
24515DOD     C217365   5.440   3.771  25.421  0.2502  0.1858 -0.2798
24515DOD     C317366   5.927   3.703  25.464 -0.2790  0.4187  0.0348
24516DOD     C117367  23.487   2.010   6.435  0.0359  0.2570 -0.2097
24516DOD     C217368  23.521   1.649   6.113 -0.2112  0.2666 -0.3026
24516DOD     C317369  23.522   1.195   6.084  0.3609  0.3843  0.0202
24517DOD     C117370   6.105  19.373  12.839  0.0487 -0.0441 -0.1527
24517DOD     C217371   6.332  19.603  13.170 -0.0802 -0.0600 -0.0274
24517DOD     C317372   6.402  20.047  13.335  0.0721 -0.1277  0.2217
24518DOD     C117373   8.594  15.368   3.265 -0.1693 -0.1972  0.2926
24518DOD     C217374   8.819  15.009   3.494 -0.0571 -0.0791  0.1708
24518DOD     C317375   9.120  14.773   3.783  0.3174  0.0143  0.0217
24519DOD     C117376   8.972   4.893   2.108 -0.1584  0.1118 -0.1627
24519DOD     C217377   9.357   4.884   2.271  0.0760  0.2086 -0.2040
24519DOD     C317378   9.669   4.646   2.491 -0.1432 -0.1610 -0.3263
24520DOD     C117379  18.161  23.076  29.751 -0.0388  0.0102  0.1199
24520DOD     C217380  18.449  22.731  29.846  0.1390 -0.0217  0.2833
24520DOD     C317381  18.747  22.533  29.587  0.0569  0.1097 -0.0455
24521DOD     C117382  28.943  10.439   9.664  0.3483 -0.2068 -0.1530
24521DOD     C217383  28.584  10.151   9.720 -0.1772  0.0192 -0.2212
24521DOD     C317384  28.120   9.922   9.650 -0.2481 -0.0532  0.4843
24522DOD     C117385  24.601   8.505  18.258  0.1777  0.0950  0.0443
24522DOD     C217386  24.558   8.972  18.395  0.0342 -0.1946 -0.0008
24522DOD     C317387  24.199   9.292  18.563  0.2367 -0.0652  0.2706
24523DOD     C117388  24.348   7.341  16.908  0.1279 -0.1997 -0.1591
24523DOD     C217389  24.474   7.672  17.270  0.0350  0.1118 -0.3583
24523DOD     C317390  24.465   8.125  17.329 -0.0737  0.2105 -0.0643
24524DOD     C117391  16.310  19.582  13.107  0.0514 -0.1319 -0.0102
24524DOD     C217392  16.332  19.320  13.517 -0.0749 -0.1541 -0.0942
24524DOD     C317393  16.376  19.100  13.916 -0.1549 -0.0028  0.2852
24525DOD     C117394  15.265   5.364  15.316 -0.1485 -0.1225 -0.3240
24525DOD     C217395  15.022   5.135  15.652 -0.0882 -0.2932  0.2319
24525DOD     C317396  15.077   4.995  16.081 -0.1062  0.2224 -0.0502
24526DOD     C117397  16.598   2.125  29.349 -0.0565 -0.1378  0.3288
24526DOD     C217398  16.370   1.900  28.985  0.1769  0.0906 -0.0669
24526DOD     C317399  16.217   1.503  28.768  0.2298 -0.0372  0.2493
24527DOD     C117400  30.250  21.931  14.140 -0.2895  0.1363 -0.1997
24527DOD     C217401  30.191  21.472  14.114  0.2246 -0.0969  0.1055
24527DOD     C317402  29.769  21.189  14.126 -0.1803  0.0363 -0.0571
24528DOD     C117403  23.725  15.195   1.891 -0.2432 -0.1030 -0.0195
24528DOD     C217404  23.971  15.533   1.594  0.0578  0.2811  0.0204
24528DOD     C317405  24.118  15.445   1.227 -0.0642  0.2449  0.0865
24529DOD     C117406  21.790  25.022  29.631  0.2717  0.2611 -0.1939
24529DOD     C217407  21.578  25.201  29.326 -0.2577  0.2546  0.0258
24529DOD     C317408  21.380  25.099  28.932  0.0084 -0.1237 -0.0215
24530DOD     C117409  27.050   7.395   5.099 -0.1075 -0.2852  0.2200
24530DOD     C217410  26.864   7.093   5.429 -0.1831  0.3053 -0.0418
24530DOD     C317411  27.164   6.761   5.539 -0.0132 -0.1024 -0.0884
24531DOD     C117412  29.424  10.656   7.768 -0.0079 -0.0876  0.0417
24531DOD     C217413  29.113  10.523   8.106 -0.0586 -0.0977 -0.3165
24531DOD     C317414  29.036  10.663   8.511  0.3007 -0.0406  0.2396
24532DOD     C117415  11.748  15.141  24.009  0.0852  0.3762  0.3160
24532DOD     C217416  11.847  15.022  24.423  0.4542  0.1484 -0.0557
24532DOD     C317417  11.850  14.874  24.835  0.0860  0.1528 -0.0401
24533DOD     C117418   2.349  14.043  22.270  0.0041  0.0531 -0.0287
24533DOD     C217419   2.735  14.250  22.085  0.0897 -0.1216  0.0807
24533DOD     C317420   2.680  14.743  22.048  0.4066  0.0325  0.0804
24534DOD     C117421  29.379   5.605   1.877  0.0481 -0.1372  0.1592
24534DOD     C217422  29.610   5.637   1.465  0.1530 -0.2553 -0.3307
24534DOD     C317423  29.641   5.389   1.046  0.2442 -0.0566  0.1684
24535DOD     C117424  10.054  17.029  24.974 -0.2300  0.0436 -0.3968
24535DOD     C217425  10.066  17.199  24.604 -0.0034 -0.1473 -0.0351
24535DOD     C317426  10.210  16.991  24.264 -0.2563 -0.1796  0.2223
24536DOD     C117427  29.262   0.085  14.224 -0.0020 -0.1203 -0.3294
24536DOD     C217428  28.842  30.225  14.086  0.0188  0.0523  0.1593
24536DOD     C317429  28.458  30.125  14.383 -0.0289 -0.0306  0.1067
24537DOD     C117430  18.331  27.505   0.261 -0.0240  0.0220  0.1874
24537DOD     C217431  18.246  27.335   0.621  0.2378 -0.2332  0.0820
24537DOD     C317432  18.376  27.469   1.033 -0.1021  0.3472 -0.4686
24538DOD     C117433  28.799  25.418  23.994  0.0469  0.0693 -0.1068
24538DOD     C217434  29.129  25.753  23.906 -0.3018  0.1246  0.2421
24538DOD     C317435  29.461  25.911  23.596  0.2787  0.0850  0.2093
24539DOD     C117436  30.346  16.756   0.875  0.3921 -0.3232  0.1444
24539DOD     C217437   0.146  16.954   1.295  0.4212 -0.2457 -0.0315
24539DOD     C317438   0.440  17.069   1.612  0.0620 -0.3346 -0.1097
24540DOD     C117439  14.380  12.309  21.204 -0.1212  0.1422  0.1276
24540DOD     C217440  14.252  12.234  21.611 -0.2296  0.1172 -0.1071
24540DOD     C317441  13.958  12.334  21.945  0.0542 -0.1138  0.1370
24541DOD     C117442  22.597  24.249  11.115  0.2259  0.1357 -0.1204
24541DOD     C217443  22.738  24.228  10.627  0.0495 -0.1634 -0.0266
24541DOD     C317444  23.041  24.276  10.246  0.1495  0.1896 -0.1002
24542DOD     C117445  21.004   3.688   6.995 -0.1465 -0.0485  0.2012
24542DOD     C217446  21.251   3.428   6.690  0.0526  0.2271 -0.2082
24542DOD     C317447  21.304   3.204   6.329 -0.0847  0.2551  0.1476
24543DOD     C117448   1.566   4.745   4.935  0.1784  0.0218 -0.0945
24543DOD     C217449   1.492   5.239   4.894 -0.3726 -0.2100  0.1482
24543DOD     C317450   1.348   5.663   4.929  0.3814 -0.0715 -0.0419
24544DOD     C117451  28.651  11.823  25.451  0.1581  0.1841  0.2271
24544DOD     C217452  28.757  12.268  25.280 -0.1782  0.1635  0.1249
24544DOD     C317453  29.062  12.423  24.960  0.3271  0.0365  0.1101
24545DOD     C117454  16.566   0.701   9.258 -0.0583  0.0964  0.1448
24545DOD     C217455  16.731   0.750   9.713  0.1347  0.1990 -0.1956
24545DOD     C317456  16.870   0.563  10.162 -0.1918  0.1776  0.1222
24546DOD     C117457   3.980  12.098  24.998  0.0854 -0.2700 -0.0167
24546DOD     C217458   4.118  11.778  25.207 -0.2430 -0.1956 -0.1545
24546DOD     C317459   4.214  11.457  25.536 -0.1619 -0.1934 -0.0131
24547DOD     C117460   5.401  26.081  29.205 -0.0134 -0.1457  0.1126
24547DOD     C217461   5.362  26.513  29.404 -0.0689 -0.1196  0.1585
24547DOD     C317462   5.044  26.851  29.529  0.1465 -0.3194 -0.0519
24548DOD     C117463   2.094  25.136  23.908 -0.2247 -0.0924 -0.0162
24548DOD     C217464   2.564  25.191  23.843 -0.3423  0.1231 -0.0595
24548DOD     C317465   2.987  25.273  23.833 -0.3550 -0.0013 -0.1591
24549DOD     C117466   1.998  25.985   7.949  0.0450 -0.1435  0.3000
24549DOD     C217467   2.180  26.310   7.710 -0.0491  0.1242  0.0854
24549DOD     C317468   2.281  26.485   7.266 -0.1519  0.1869  0.0713
24550DOD     C117469  27.400  13.908  27.716  0.3998 -0.2146 -0.0379
24550DOD     C217470  27.328  14.095  28.122 -0.1368  0.0334  0.0283
24550DOD     C317471  27.104  14.436  28.334 -0.1334 -0.2425  0.0115
24551DOD     C117472  29.235   3.323  23.026 -0.1690  0.1377  0.2585
24551DOD     C217473  28.795   3.226  23.005 -0.1251  0.0737 -0.0120
24551DOD     C317474  28.512   3.597  22.962  0.1720  0.2552  0.2250
24552DOD     C117475  11.438  10.348  21.727 -0.2276 -0.1820  0.0534
24552DOD     C217476  11.705  10.039  21.565 -0.1596  0.0109  0.1701
24552DOD     C317477  11.982   9.661  21.549 -0.0855  0.0096 -0.3036
24553DOD     C117478  12.042  10.596  29.413  0.3091 -0.1745 -0.3194
24553DOD     C217479  11.914  10.953  29.671 -0.0529  0.1958  0.1132
24553DOD     C317480  11.859  11.237  30.004  0.1265 -0.4605 -0.1406
24554DOD     C117481  23.198  14.539  13.981 -0.0915 -0.0943  0.2127
24554DOD     C217482  23.245  14.535  14.498 -0.1907  0.1626  0.4224
24554DOD     C317483  23.015  14.141  14.702 -0.3624 -0.2374  0.0261
24555DOD     C117484  13.786  24.319  15.646  0.0334 -0.0021  0.2944
24555DOD     C217485  13.729  24.333  15.171  0.1400 -0.0745  0.0303
24555DOD     C317486  13.715  24.635  14.757  0.0509 -0.0930 -0.0517
24556DOD     C117487   6.927  10.529  17.507 -0.1686  0.3018  0.0378
24556DOD     C217488   7.216  10.804  17.253 -0.0289 -0.0511  0.0617
24556DOD     C317489   7.658  11.015  17.105  0.2163  0.1454  0.1515
24557DOD     C117490  14.880  18.945   6.900 -0.0916  0.3281  0.1406
24557DOD     C217491  15.173  19.071   7.273 -0.0313  0.3676 -0.4376
24557DOD     C317492  15.474  19.439   7.407 -0.4416 -0.0078  0.0720
24558DOD     C117493   3.328  29.091  10.819  0.2345  0.3360 -0.1169
24558DOD     C217494   3.210  29.522  10.717  0.0240 -0.2338  0.0083
24558DOD     C317495   2.951  29.915  10.769 -0.1879 -0.2930 -0.0342
24559DOD     C117496  19.051  27.659  14.822 -0.0168  0.1771  0.0112
24559DOD     C217497  19.417  28.008  14.732 -0.1390 -0.2795  0.2108
24559DOD     C317498  19.451  28.455  14.594  0.0363 -0.2470 -0.1003
24560DOD     C117499  15.999  18.013  19.313  0.0764 -0.2463 -0.1147
24560DOD     C217500  15.724  17.604  19.389  0.1685  0.0774  0.0738
24560DOD     C317501  15.529  17.522  19.825 -0.0575  0.0021  0.0576
24561DOD     C117502  16.874   9.610   0.823  0.1983 -0.0959 -0.0357
24561DOD     C217503  16.840   9.221   0.555  0.2110 -0.1209  0.3149
24561DOD     C317504  16.599   9.191   0.066  0.0701 -0.4573  0.1719
24562DOD     C117505  28.599   0.293   2.249 -0.0673 -0.2102 -0.1098
24562DOD     C217506  28.198   0.387   2.452  0.1233  0.0845  0.1544
24562DOD     C317507  28.018   0.767   2.660 -0.1060 -0.0214 -0.2535
24563DOD     C117508   2.871   4.924  17.214 -0.0278  0.1582 -0.5412
24563DOD     C217509   3.232   4.672  17.382  0.0876  0.0158 -0.0063
24563DOD     C317510   3.396   4.380  17.699 -0.2199  0.0014 -0.2860
24564DOD     C117511  17.506   1.726  22.800 -0.0924  0.0169 -0.0674
24564DOD     C217512  17.964   1.807  22.636 -0.1054  0.0302  0.4354
24564DOD     C317513  18.400   1.618  22.570 -0.0012  0.0628  0.1932
24565DOD     C117514  20.687   3.394  25.373  0.0892  0.3315  0.0275
24565DOD     C217515  20.479   3.758  25.143  0.4048 -0.0248 -0.1506
24565DOD     C317516  20.658   4.159  25.096 -0.0069 -0.1747 -0.4430
24566DOD     C117517   8.886  24.286  22.277 -0.3167 -0.0366 -0.0500
24566DOD     C217518   9.088  23.986  22.053  0.1959  0.0100  0.2402
24566DOD     C317519   9.209  23.511  22.156  0.0997 -0.1472 -0.1162
24567DOD     C117520  23.901  24.188  17.891  0.0250  0.3052 -0.1339
24567DOD     C217521  24.283  23.930  17.868 -0.0879  0.1864 -0.1916
24567DOD     C317522  24.593  23.592  17.997  0.0702  0.0240  0.0912
24568DOD     C117523   6.786  17.359   6.417 -0.1250 -0.2818  0.2978
24568DOD     C217524   6.950  16.945   6.623 -0.1354  0.0784  0.3851
24568DOD     C317525   7.060  16.672   6.964 -0.2648 -0.3470  0.1412
24569DOD     C117526  27.189   2.335   3.062 -0.0357  0.0625  0.0616
24569DOD     C217527  27.428   2.044   3.186 -0.0536 -0.1382 -0.0751
24569DOD     C317528  27.565   1.580   3.132 -0.0698  0.0578  0.0712
24570DOD     C117529  21.141   3.362   9.356  0.0341  0.0950 -0.3023
24570DOD     C217530  21.146   3.326   9.816 -0.1261  0.3702 -0.0986
24570DOD     C317531  21.022   3.421  10.202  0.0186  0.0854 -0.3014
24571DOD     C117532  10.052  26.477  13.070 -0.1111 -0.0805  0.0538
24571DOD     C217533  10.205  26.595  12.626  0.2177  0.1477 -0.0058
24571DOD     C317534  10.083  26.259  12.256  0.1252  0.0786  0.2017
24572DOD     C117535  15.542  24.398   9.606  0.1781  0.1707  0.0503
24572DOD     C217536  15.287  24.704   9.829 -0.0403  0.1433  0.0980
24572DOD     C317537  15.199  24.894  10.236 -0.4823 -0.1688  0.1860
24573DOD     C117538  20.093  11.645  21.422 -0.2818  0.1628 -0.1333
24573DOD     C217539  20.480  11.725  21.174  0.0466 -0.1647 -0.0301
24573DOD     C317540  20.699  11.916  20.816 -0.1322 -0.0310 -0.1948
24574DOD     C117541  15.252  23.889  23.128  0.0447 -0.2644  0.0755
24574DOD     C217542  15.536  24.160  23.348 -0.1090 -0.0431  0.1998
24574DOD     C317543  15.584  24.441  23.692  0.1229 -0.0309 -0.1397
24575DOD     C117544  30.256   3.632  23.199  0.1477 -0.1796 -0.2681
24575DOD     C217545   0.189   3.369  22.903 -0.2023 -0.0432 -0.3869
24575DOD     C317546   0.652   3.276  22.793 -0.0791 -0.3127 -0.3658
24576DOD     C117547  28.158  26.443   7.385  0.2486  0.0825 -0.0250
24576DOD     C217548  28.211  26.173   7.806 -0.0383  0.1154 -0.0081
24576DOD     C317549  28.110  25.847   8.071 -0.4001  0.0796  0.0231
24577DOD     C117550  12.831  28.287  19.788 -0.1596  0.1127  0.0339
24577DOD     C217551  13.080  28.664  19.910  0.0081  0.1365  0.0502
24577DOD     C317552  13.097  29.151  20.026  0.1335  0.2948  0.0578
24578DOD     C117553  18.289  22.533  10.834 -0.1826  0.0151  0.1102
24578DOD     C217554  18.634  22.578  11.112 -0.2187  0.1207  0.0674
24578DOD     C317555  18.778  22.191  11.333 -0.1125 -0.0146  0.1277
24579DOD     C117556   2.609   6.707   1.105 -0.4448 -0.2577  0.1682
24579DOD     C217557   2.391   7.029   1.204 -0.2306  0.1824  0.0394
24579DOD     C317558   1.919   7.000   1.176  0.1559 -0.1071 -0.1372
24580DOD     C117559   9.967  18.147  17.949 -0.1545 -0.0231 -0.0508
24580DOD     C217560   9.802  18.121  18.377 -0.0942  0.1799  0.0566
24580DOD     C317561  10.057  17.813  18.563  0.2219 -0.0192  0.0369
24581DOD     C117562  11.630  19.619  14.568  0.2249  0.1013 -0.1183
24581DOD     C217563  11.905  19.631  14.955  0.1125  0.1107  0.1282
24581DOD     C317564  12.065  19.666  15.397  0.1568  0.1021 -0.2216
24582DOD     C117565  19.677   2.648  28.103  0.1529  0.1231 -0.0739
24582DOD     C217566  20.008   2.375  28.140 -0.2379  0.0592  0.0928
24582DOD     C317567  20.212   2.037  28.350  0.0908 -0.0710 -0.0226
24583DOD     C117568  27.136  17.985  21.137  0.0647  0.1167  0.0915
24583DOD     C217569  26.931  17.800  20.803  0.1070  0.2364  0.2403
24583DOD     C317570  26.915  17.386  20.560 -0.0672  0.1408  0.0508
24584DOD     C117571  17.352  13.568  11.443  0.2410 -0.1321  0.3370
24584DOD     C217572  17.121  13.668  11.052  0.0883  0.0627  0.2852
24584DOD     C317573  16.820  13.912  10.791 -0.0777 -0.4367  0.0379
24585DOD     C117574  22.345  21.748   5.576  0.0526 -0.1195  0.0113
24585DOD     C217575  22.355  21.278   5.509 -0.2505  0.0151 -0.0604
24585DOD     C317576  22.066  20.955   5.378 -0.1304 -0.2880 -0.0463
24586DOD     C117577   6.727   2.878  25.740  0.1635 -0.1598 -0.1285
24586DOD     C217578   6.826   2.435  25.612  0.3961  0.3930  0.0963
24586DOD     C317579   6.968   2.012  25.417  0.0464 -0.3897 -0.3745
24587DOD     C117580  20.442  18.907   4.398  0.0334  0.2776  0.1223
24587DOD     C217581  20.585  19.339   4.164 -0.0836  0.0291  0.0373
24587DOD     C317582  20.585  19.783   4.232  0.0401  0.0075  0.2814
24588DOD     C117583   4.541  28.532  14.202 -0.0142  0.2099 -0.1686
24588DOD     C217584   4.579  28.198  13.888 -0.0646  0.3104 -0.0527
24588DOD     C317585   4.625  27.727  13.949 -0.1210 -0.1773  0.2326
24589DOD     C117586  30.298  12.465  27.706  0.2792  0.0924  0.3421
24589DOD     C217587   0.111  12.857  27.745 -0.0088 -0.2529  0.1794
24589DOD     C317588   0.252  13.231  27.996 -0.1160 -0.1663  0.0131
24590DOD     C117589   5.214   3.165  17.015 -0.1398  0.1755  0.1610
24590DOD     C217590   5.546   3.308  17.261  0.1949 -0.2102 -0.2474
24590DOD     C317591   5.891   3.469  17.551  0.2102 -0.1071  0.1723
24591DOD     C117592  22.050  23.994  17.495 -0.1128 -0.1093 -0.0728
24591DOD     C217593  22.483  23.837  17.485 -0.2606 -0.1719  0.1064
24591DOD     C317594  22.885  23.917  17.685 -0.0677 -0.2074 -0.2987
24592DOD     C117595  22.587   4.690  16.771 -0.0383 -0.5193  0.0738
24592DOD     C217596  22.678   5.150  16.758 -0.2042 -0.0246 -0.1294
24592DOD     C317597  22.797   5.587  16.857  0.1814 -0.1212 -0.1165
24593DOD     C117598   4.732   5.351  16.712 -0.2373 -0.3966  0.4563
24593DOD     C217599   5.088   5.404  16.404  0.2235 -0.3034 -0.2282
24593DOD     C317600   5.492   5.528  16.484 -0.1654  0.0844  0.3186
24594DOD     C117601   8.271   6.613  13.304  0.0783  0.0733 -0.1642
24594DOD     C217602   8.391   6.184  13.337  0.1878 -0.0451  0.4118
24594DOD     C317603   8.842   5.902  13.338  0.1358 -0.1036  0.2598
24595DOD     C117604  26.181  27.293   0.471 -0.0843  0.5072 -0.1279
24595DOD     C217605  26.515  27.333   0.722  0.0506  0.0986 -0.4634
24595DOD     C317606  26.837  27.217   0.996 -0.0833  0.2895 -0.1960
24596DOD     C117607  16.033  24.284  11.234  0.3321  0.0197 -0.0388
24596DOD     C217608  15.822  23.977  11.462  0.0784  0.0547 -0.3339
24596DOD     C317609  15.542  23.603  11.641 -0.1366  0.0467 -0.0684
24597DOD     C117610  28.497   0.455   3.854  0.3694  0.2130 -0.0093
24597DOD     C217611  28.159   0.439   4.127 -0.2703 -0.0883 -0.4688
24597DOD     C317612  27.723   0.613   4.235 -0.0841 -0.2708 -0.1389
24598DOD     C117613  25.927  14.673   9.243 -0.2611 -0.0348 -0.0716
24598DOD     C217614  25.598  14.738   8.873 -0.2248  0.2839 -0.0586
24598DOD     C317615  25.404  14.882   8.535  0.1550 -0.1209 -0.0956
24599DOD     C117616   3.004   7.759   0.349 -0.1481  0.1203  0.1404
24599DOD     C217617   2.825   7.481  30.313  0.0654  0.1616  0.5122
24599DOD     C317618   2.493   7.167  30.154 -0.0599 -0.0479  0.1786
24600DOD     C117619   3.167  20.092  29.145 -0.0864 -0.2224  0.0600
24600DOD     C217620   3.573  20.216  29.099  0.0171  0.0473 -0.1471
24600DOD     C317621   3.875  20.544  29.238 -0.1130 -0.0519  0.4156
24601DOD     C117622  14.954  18.277  29.058 -0.0871  0.0796 -0.2066
24601DOD     C217623  14.530  18.148  28.947  0.0433 -0.2138 -0.0101
24601DOD     C317624  14.102  18.004  28.852  0.1167 -0.2268  0.0094
24602DOD     C117625   0.897  24.414   1.373  0.1756  0.0281 -0.1219
24602DOD     C217626   0.709  24.623   1.017 -0.1732  0.2692  0.1260
24602DOD     C317627   0.500  24.894   0.666  0.0875  0.0406 -0.1426
24603DOD     C117628  25.744   9.501  22.501 -0.2086 -0.2185 -0.1394
24603DOD     C217629  25.289   9.516  22.623 -0.1180  0.3531  0.0128
24603DOD     C317630  24.885   9.279  22.540 -0.0060 -0.2053 -0.0677
24604DOD     C117631  14.597  24.337  14.863 -0.1806 -0.1947  0.3388
24604DOD     C217632  14.605  24.005  14.590 -0.0359  0.1398  0.1230
24604DOD     C317633  14.568  23.554  14.555 -0.1810  0.0344 -0.3474
24605DOD     C117634  17.838   7.248   8.921  0.1590  0.1428 -0.3282
24605DOD     C217635  18.242   7.445   8.716 -0.0281  0.3080  0.0321
24605DOD     C317636  18.619   7.588   8.444  0.1601 -0.0628  0.1486
24606DOD     C117637  23.791  19.488   2.234 -0.2989  0.0722  0.0585
24606DOD     C217638  23.904  19.317   2.604 -0.1115 -0.0936 -0.1844
24606DOD     C317639  24.022  19.220   3.058 -0.0896 -0.2253 -0.0066
24607DOD     C117640   1.717  10.767   6.433 -0.0287  0.2375 -0.1936
24607DOD     C217641   1.783  10.921   5.994 -0.1958 -0.4806  0.0688
24607DOD     C317642   1.724  11.099   5.577  0.2108 -0.0230 -0.1654
24608DOD     C117643  14.145  17.381  15.090  0.3499  0.0512  0.0622
24608DOD     C217644  14.035  17.349  14.590 -0.0793 -0.2352  0.0926
24608DOD     C317645  13.725  16.980  14.515 -0.2594  0.0394  0.0089
24609DOD     C117646   6.648   9.481   9.493 -0.1193 -0.1143 -0.0552
24609DOD     C217647   6.941   9.320   9.809 -0.1054 -0.1687  0.0028
24609DOD     C317648   7.248   9.159  10.118  0.0359  0.1782 -0.1428
24610DOD     C117649  29.744  17.043  28.885  0.1264  0.2837 -0.0528
24610DOD     C217650  29.629  16.665  29.138  0.0083  0.0675 -0.1372
24610DOD     C317651  29.728  16.248  29.310  0.0636  0.2468 -0.0096
24611DOD     C117652  20.724  27.860  19.143  0.2660 -0.1394 -0.0785
24611DOD     C217653  20.345  27.648  19.000 -0.1880 -0.2148  0.1620
24611DOD     C317654  20.140  27.299  19.144  0.0109  0.1049 -0.0030
24612DOD     C117655   4.146   1.009   1.679 -0.1409 -0.0623  0.1511
24612DOD     C217656   3.971   1.061   2.085  0.1787  0.2518  0.1791
24612DOD     C317657   4.045   1.244   2.515 -0.2527  0.0257  0.0385
24613DOD     C117658  27.389   7.909  20.509  0.0816 -0.1247 -0.1423
24613DOD     C217659  27.456   8.311  20.258 -0.0313 -0.1321  0.1163
24613DOD     C317660  27.464   8.593  19.881  0.0305  0.1280 -0.1761
24614DOD     C117661  16.413  24.286  22.921  0.0542  0.4600 -0.2591
24614DOD     C217662  16.820  24.084  22.730  0.0937  0.2320  0.0347
24614DOD     C317663  17.211  24.343  22.660  0.0034 -0.0611  0.0974
24615DOD     C117664  21.405  28.723  15.623  0.1800 -0.1045 -0.2036
24615DOD     C217665  21.326  28.914  16.056  0.0910  0.3979  0.1395
24615DOD     C317666  21.421  29.051  16.492 -0.2457  0.1786 -0.2454
24616DOD     C117667  16.932  20.667   8.439  0.2200  0.3993 -0.2776
24616DOD     C217668  17.002  20.224   8.362 -0.0429 -0.0921 -0.0485
24616DOD     C317669  16.942  19.860   8.665  0.3981  0.2356  0.0200
24617DOD     C117670   3.710  24.384  21.044  0.3989  0.0047  0.0190
24617DOD     C217671   3.484  24.103  21.363 -0.0210 -0.1641 -0.1597
24617DOD     C317672   3.294  23.695  21.480 -0.1106 -0.2180  0.0112
24618DOD     C117673  20.020  12.810  20.388  0.0592 -0.0686  0.0219
24618DOD     C217674  20.241  13.138  20.627  0.0193 -0.4048  0.3595
24618DOD     C317675  20.706  13.297  20.760  0.1086 -0.0514 -0.1720
24619DOD     C117676  11.909  10.865  12.907  0.0628 -0.0088 -0.0230
24619DOD     C217677  12.223  10.553  12.964 -0.0060  0.1550 -0.0037
24619DOD     C317678  12.685  10.386  12.926  0.0734 -0.0304 -0.1083
24620DOD     C117679  26.950   6.041   6.715 -0.1077 -0.2160  0.1336
24620DOD     C217680  26.626   6.135   7.044  0.2322  0.1603  0.0162
24620DOD     C317681  26.379   6.295   7.445 -0.1361 -0.0445  0.1089
24621DOD     C117682   7.951  10.766  15.439  0.1975  0.2404  0.0534
24621DOD     C217683   7.807  10.577  15.848  0.1966  0.0094 -0.0396
24621DOD     C317684   7.507  10.185  15.762  0.3211 -0.0666 -0.2915
24622DOD     C117685  12.937   0.046  27.309  0.3577 -0.1658 -0.0861
24622DOD     C217686  12.500  30.334  27.292  0.2299  0.1868 -0.1647
24622DOD     C317687  12.120  30.124  27.160 -0.1010 -0.2648  0.2768
24623DOD     C117688  18.162  18.317  14.068 -0.0101  0.0339 -0.3182
24623DOD     C217689  18.370  18.295  13.646 -0.0911  0.1108  0.1967
24623DOD     C317690  18.539  18.596  13.331 -0.0317 -0.2406  0.0565
24624DOD     C117691   7.380  19.402  14.055  0.1377  0.1273 -0.1999
24624DOD     C217692   7.766  19.185  13.905 -0.0194 -0.0434 -0.1589
24624DOD     C317693   8.234  19.302  13.867  0.0660  0.0557 -0.0361
24625DOD     C117694  29.014   3.697  27.956 -0.0103  0.0826  0.1581
24625DOD     C217695  28.902   4.057  27.760  0.1794  0.0711  0.0555
24625DOD     C317696  28.467   4.195  27.789 -0.1843  0.1870 -0.0983
24626DOD     C117697  29.925   0.417  21.928  0.3773  0.0266 -0.1458
24626DOD     C217698  29.575   0.327  22.246 -0.1295 -0.0989  0.0034
24626DOD     C317699  29.496  30.279  22.519  0.2166 -0.0826  0.1746
24627DOD     C117700  19.893  14.532  19.348 -0.1550  0.2962 -0.0443
24627DOD     C217701  19.732  14.978  19.299 -0.1607 -0.0609 -0.2360
24627DOD     C317702  19.325  15.191  19.302 -0.1168  0.3306 -0.1818
24628DOD     C117703  29.089  25.866   3.330  0.0711 -0.5898 -0.1650
24628DOD     C217704  28.675  25.994   3.490 -0.1804  0.1937  0.0985
24628DOD     C317705  28.266  25.794   3.362 -0.1067 -0.0115 -0.1095
24629DOD     C117706   7.966   1.636   1.604  0.2644  0.0456 -0.0224
24629DOD     C217707   7.947   1.729   1.151  0.1133  0.0250 -0.0727
24629DOD     C317708   7.952   1.938   0.746 -0.2230 -0.0829  0.0833
24630DOD     C117709  29.453   9.327   7.129 -0.2498 -0.2550  0.0927
24630DOD     C217710  29.127   9.358   6.769  0.2144 -0.0450  0.4434
24630DOD     C317711  28.891   9.363   6.448  0.2683  0.0718 -0.0044
24631DOD     C117712  29.815   2.901  12.630  0.0485 -0.0448  0.0426
24631DOD     C217713  30.182   2.808  12.317  0.2781  0.0226 -0.0787
24631DOD     C317714   0.266   2.721  12.090 -0.1171  0.3008 -0.1778
24632DOD     C117715  12.827  21.620   4.098  0.0945  0.0872  0.0305
24632DOD     C217716  12.807  21.859   3.661  0.1476 -0.2127 -0.3970
24632DOD     C317717  13.025  21.622   3.349  0.2987 -0.2143  0.2692
24633DOD     C117718  22.313  18.756  26.819  0.0174  0.1007 -0.0146
24633DOD     C217719  22.307  18.945  26.388  0.1552 -0.0770 -0.1208
24633DOD     C317720  22.109  19.017  25.966 -0.0454 -0.2110  0.0128
24634DOD     C117721  10.020   9.697  21.519 -0.1085 -0.1292 -0.1212
24634DOD     C217722  10.498   9.604  21.630 -0.3202 -0.0811 -0.1763
24634DOD     C317723  10.671   9.216  21.764 -0.1326 -0.0307  0.1946
24635DOD     C117724  13.969  19.546   0.472 -0.1703  0.0296 -0.3655
24635DOD     C217725  13.711  19.208   0.387 -0.0340  0.2296  0.3118
24635DOD     C317726  13.326  18.886   0.442  0.0544  0.0317 -0.0803
24636DOD     C117727   4.020  15.892   2.405 -0.1850 -0.0880  0.1067
24636DOD     C217728   3.943  16.320   2.394  0.2708  0.0373 -0.0271
24636DOD     C317729   3.787  16.531   2.013  0.0971  0.0441  0.1891
24637DOD     C117730  25.445  23.129   5.783 -0.1267  0.2709 -0.1941
24637DOD     C217731  25.766  23.087   5.522  0.0527  0.0109  0.2308
24637DOD     C317732  26.148  22.735   5.439  0.0076 -0.0782 -0.0986
24638DOD     C117733  20.110  22.818   3.421 -0.2547 -0.2206 -0.2157
24638DOD     C217734  20.378  23.144   3.175  0.0903  0.0667 -0.2390
24638DOD     C317735  20.523  23.326   2.817 -0.1092 -0.0863  0.1172
24639DOD     C117736   1.407   6.347  10.857  0.2416  0.2534  0.0659
24639DOD     C217737   1.568   6.784  10.722  0.0702  0.1445  0.0334
24639DOD     C317738   1.786   7.201  10.540 -0.1848  0.3457 -0.1749
24640DOD     C117739  23.268   6.155  26.111  0.0932  0.0034  0.1670
24640DOD     C217740  23.667   5.978  26.306  0.2169  0.1125  0.0848
24640DOD     C317741  24.153   5.928  26.360 -0.1706  0.2629  0.0818
24641DOD     C117742   2.522  22.769  30.330 -0.0056 -0.4196  0.0064
24641DOD     C217743   2.314  22.345   0.129  0.2678  0.1913  0.4155
24641DOD     C317744   1.974  22.062   0.202 -0.0644 -0.0625  0.1225
24642DOD     C117745   5.482   5.340  14.500 -0.1856 -0.0050 -0.1147
24642DOD     C217746   5.218   5.535  14.196  0.0486 -0.0122  0.0550
24642DOD     C317747   5.096   5.377  13.788  0.1162 -0.2386  0.0509
24643DOD     C117748  20.013  19.565   1.140 -0.0674  0.2345  0.1962
24643DOD     C217749  19.895  19.995   1.112 -0.3637 -0.0432  0.1985
24643DOD     C317750  19.460  20.119   1.076  0.2556 -0.4016  0.3712
24644DOD     C117751  21.662  12.610  19.080 -0.3622 -0.1837  0.3132
24644DOD     C217752  22.130  12.557  19.014 -0.0920 -0.1314  0.2648
24644DOD     C317753  22.543  12.711  19.224 -0.4917  0.2426 -0.1498
24645DOD     C117754   9.112  29.444   1.044  0.0391 -0.1195 -0.3199
24645DOD     C217755   9.118  29.064   0.760 -0.3439 -0.2220  0.1413
24645DOD     C317756   9.000  28.742   0.406  0.1456 -0.1793 -0.1632
24646DOD     C117757  24.677  29.438   6.006 -0.2676 -0.1020  0.1547
24646DOD     C217758  25.005  29.373   6.354 -0.2122  0.3254 -0.0041
24646DOD     C317759  25.354  29.188   6.591 -0.2228  0.1234 -0.0654
24647DOD     C117760   5.158  16.393  14.747 -0.0738 -0.0310  0.1536
24647DOD     C217761   4.847  16.570  15.040 -0.1886  0.2413  0.1019
24647DOD     C317762   4.417  16.810  15.084 -0.0860  0.1126  0.0971
24648DOD     C117763   1.255  20.442   1.936 -0.0565  0.1436  0.0374
24648DOD     C217764   1.620  20.660   1.781  0.1570  0.1345 -0.2098
24648DOD     C317765   1.603  21.100   1.630  0.0556  0.0242  0.2631
24649DOD     C117766  11.313  29.923   1.809  0.2377  0.5256  0.1406
24649DOD     C217767  11.032  29.503   1.803 -0.0152 -0.0935 -0.2038
24649DOD     C317768  10.761  29.263   1.504  0.3778 -0.0872  0.1371
24650DOD     C117769  17.132  23.294   2.163  0.1859  0.1183 -0.3384
24650DOD     C217770  16.923  23.430   1.739  0.1938  0.0700  0.2058
24650DOD     C317771  16.827  23.408   1.272 -0.0954  0.2742 -0.0667
24651DOD     C117772  16.073  13.497   1.278 -0.3279  0.2072 -0.0153
24651DOD     C217773  16.062  13.409   1.735  0.0967 -0.1720 -0.0903
24651DOD     C317774  16.299  13.052   2.006 -0.3338 -0.0940  0.2510
24652DOD     C117775  10.544  16.419   5.792  0.0513 -0.0988 -0.3556
24652DOD     C217776  10.221  16.576   5.474 -0.0395 -0.3000  0.0146
24652DOD     C317777   9.792  16.724   5.284 -0.3509  0.2055  0.0166
24653DOD     C117778  12.394   4.248  22.869 -0.0318 -0.3109 -0.0977
24653DOD     C217779  12.006   4.370  22.967  0.2009  0.0142  0.5057
24653DOD     C317780  11.750   4.683  23.160  0.0725  0.2082  0.0049
24654DOD     C117781   4.186  17.760  12.211 -0.2159  0.2440 -0.2143
24654DOD     C217782   4.324  17.425  11.921  0.1438 -0.0903  0.2189
24654DOD     C317783   4.482  16.976  11.842 -0.0998  0.0861 -0.0255
24655DOD     C117784  25.853  26.155   7.941 -0.1233 -0.0090  0.1387
24655DOD     C217785  25.390  26.262   7.850 -0.0760  0.1463 -0.1230
24655DOD     C317786  24.985  26.182   7.761  0.1931  0.1477  0.0233
24656DOD     C117787  20.781   1.490   2.706  0.0126  0.1597  0.0526
24656DOD     C217788  20.538   1.888   2.696  0.0171  0.0779  0.0801
24656DOD     C317789  20.449   2.347   2.838  0.0651  0.2731 -0.1522
24657DOD     C117790  17.883  21.237  14.228  0.0853 -0.0165  0.1129
24657DOD     C217791  17.998  20.753  14.222  0.0782  0.2287 -0.2352
24657DOD     C317792  17.820  20.312  14.136 -0.3298  0.1504 -0.0684
24658DOD     C117793   9.725  29.842  25.904 -0.0622 -0.2258  0.1000
24658DOD     C217794   9.945  29.963  26.352 -0.0300  0.0003 -0.3118
24658DOD     C317795  10.061  30.287  26.710 -0.2250 -0.1712 -0.2169
24659DOD     C117796  23.150   7.789  15.049 -0.0174 -0.0074 -0.2686
24659DOD     C217797  22.705   7.925  15.238 -0.0015 -0.0850 -0.0293
24659DOD     C317798  22.316   8.048  15.457 -0.1227 -0.1223  0.1242
24660DOD     C117799  20.932  22.202   0.335 -0.1115 -0.2321 -0.1663
24660DOD     C217800  20.807  21.811   0.141  0.3601  0.0600 -0.2446
24660DOD     C317801  20.776  21.373   0.009  0.0559  0.1035 -0.0454
24661DOD     C117802  18.206  12.131   8.088  0.1921  0.1719  0.2405
24661DOD     C217803  18.340  12.326   8.459  0.0467 -0.5203  0.1219
24661DOD     C317804  18.778  12.445   8.637 -0.0422 -0.1931  0.2452
24662DOD     C117805   3.878   1.925   9.294 -0.0459  0.0841  0.1240
24662DOD     C217806   4.107   1.855   8.835  0.3461  0.1373 -0.1263
24662DOD     C317807   4.543   1.842   8.577  0.2726 -0.0707 -0.2628
24663DOD     C117808  10.752   1.322  15.086  0.1047 -0.0051 -0.1987
24663DOD     C217809  10.406   1.333  15.435  0.0416  0.1153  0.2228
24663DOD     C317810   9.991   1.216  15.652  0.2255  0.2347  0.0668
24664DOD     C117811   0.973  13.617  22.968  0.4324  0.0764  0.0500
24664DOD     C217812   1.325  13.422  22.736 -0.0225  0.0491  0.4277
24664DOD     C317813   1.767  13.278  22.619  0.1552  0.2681  0.1176
24665DOD     C117814   1.405  19.203  26.304 -0.4238 -0.0144 -0.2113
24665DOD     C217815   1.774  18.913  26.258  0.2467  0.3185  0.2252
24665DOD     C317816   1.930  18.512  26.113  0.0658  0.0216 -0.3749
24666DOD     C117817  12.309   3.547  22.188  0.0052  0.2146 -0.0557
24666DOD     C217818  12.658   3.760  21.994 -0.1030  0.3103 -0.1119
24666DOD     C317819  13.043   3.767  21.766  0.0886 -0.2934  0.0800
24667DOD     C117820  14.240   3.829  16.427 -0.1618  0.3656 -0.0555
24667DOD     C217821  14.272   4.110  16.780  0.2276 -0.3889 -0.0016
24667DOD     C317822  14.280   4.550  16.836 -0.1255  0.3749 -0.3341
24668DOD     C117823  13.705  11.365   4.143  0.0597  0.3181  0.3202
24668DOD     C217824  13.733  11.574   3.719 -0.0832  0.2357  0.0918
24668DOD     C317825  13.680  11.464   3.255 -0.0819 -0.1361 -0.1481
24669DOD     C117826  26.598  12.107  22.838 -0.3582 -0.0456 -0.1655
24669DOD     C217827  26.709  12.073  22.414  0.1459  0.1907  0.0348
24669DOD     C317828  27.087  12.183  22.088 -0.1484  0.1629  0.1755
24670DOD     C117829  21.201   3.648   2.386  0.1228 -0.0580 -0.2114
24670DOD     C217830  21.131   3.500   1.928 -0.0795 -0.1234  0.0253
24670DOD     C317831  20.849   3.222   1.647  0.2202 -0.3470  0.1797
24671DOD     C117832  11.731   2.290  21.086  0.0649  0.0554  0.1909
24671DOD     C217833  12.180   2.295  21.067 -0.2088  0.0637 -0.1266
24671DOD     C317834  12.628   2.399  21.184 -0.0506 -0.1022 -0.0936
24672DOD     C117835  23.786   8.595  21.221 -0.2891 -0.0170 -0.1034
24672DOD     C217836  23.947   8.153  21.245  0.0380  0.1494 -0.0510
24672DOD     C317837  24.368   8.002  21.197 -0.2505 -0.5001  0.1386
24673DOD     C117838  11.505  16.266  24.565  0.1240  0.0724 -0.0012
24673DOD     C217839  11.481  16.561  24.219 -0.0502  0.0178 -0.1308
24673DOD     C317840  11.528  16.457  23.742  0.0230  0.0384  0.1054
24674DOD     C117841  11.342  10.836  25.353 -0.1901 -0.0177  0.0553
24674DOD     C217842  10.993  10.540  25.383  0.0122  0.2836 -0.4601
24674DOD     C317843  10.526  10.483  25.275  0.0267 -0.0990 -0.1191
24675DOD     C117844   9.477  28.487  13.306 -0.1443  0.3861  0.0030
24675DOD     C217845   9.250  28.873  13.156 -0.1995 -0.1509 -0.0252
24675DOD     C317846   9.282  29.386  13.175  0.2224  0.3103  0.3326
24676DOD     C117847  21.762  29.482  18.778  0.3424 -0.0888 -0.2010
24676DOD     C217848  21.347  29.640  18.914  0.0483 -0.3919  0.0646
24676DOD     C317849  21.205  29.491  19.342 -0.1703  0.1601 -0.0233
24677DOD     C117850  13.723  24.873  28.186 -0.1970  0.1756  0.1375
24677DOD     C217851  13.367  24.652  28.349  0.0667 -0.1087  0.1352
24677DOD     C317852  12.959  24.573  28.488 -0.1146 -0.0347  0.0888
24678DOD     C117853   2.758  11.165  19.879  0.1900 -0.2720  0.1975
24678DOD     C217854   3.059  11.439  20.115  0.2298 -0.3109 -0.1730
24678DOD     C317855   3.424  11.692  20.064 -0.2537  0.1754 -0.2627
24679DOD     C117856  19.871   1.264  22.513 -0.1255 -0.0087  0.1040
24679DOD     C217857  19.744   1.505  22.179  0.0967  0.1153 -0.1676
24679DOD     C317858  19.667   1.937  22.085 -0.0971  0.1907  0.0239
24680DOD     C117859  22.953  18.831  28.755  0.1191 -0.0620 -0.0500
24680DOD     C217860  22.546  18.861  28.516 -0.1224  0.0333  0.0178
24680DOD     C317861  22.434  19.004  28.097  0.2333  0.2611  0.2332
24681DOD     C117862  18.313  24.920  30.117  0.0204  0.0398  0.1694
24681DOD     C217863  18.149  25.155   0.172  0.0481  0.0086 -0.0966
24681DOD     C317864  17.747  25.284   0.372  0.4024  0.1976 -0.0985
24682DOD     C117865   7.350   7.423  11.052 -0.1383 -0.4826  0.0944
24682DOD     C217866   7.189   7.839  10.841  0.2471 -0.2704  0.0503
24682DOD     C317867   6.904   7.956  10.533  0.1951 -0.1475  0.3217
24683DOD     C117868  19.695   4.006  11.964 -0.2052  0.1224 -0.2732
24683DOD     C217869  20.026   4.357  11.900  0.3212 -0.0483 -0.2778
24683DOD     C317870  20.010   4.833  11.801  0.1934 -0.1250 -0.0413
24684DOD     C117871   6.879   6.923   2.977 -0.0265 -0.0132 -0.1169
24684DOD     C217872   7.347   6.974   3.058 -0.1155 -0.1991  0.2090
24684DOD     C317873   7.473   7.432   3.084  0.2762 -0.0383 -0.3229
24685DOD     C117874  17.409  10.236  23.445 -0.0294  0.0069 -0.1128
24685DOD     C217875  17.440  10.456  23.813  0.1521 -0.1359 -0.0208
24685DOD     C317876  17.515  10.443  24.276  0.0516  0.0841 -0.0248
24686DOD     C117877  21.141   8.062  19.847 -0.1013 -0.3106 -0.0855
24686DOD     C217878  20.671   8.067  19.871 -0.0523  0.0939  0.1124
24686DOD     C317879  20.259   8.005  20.022 -0.1175  0.1758  0.0873
24687DOD     C117880   1.582  30.251  29.622  0.1191 -0.1808 -0.0810
24687DOD     C217881   1.140  30.294  29.585  0.2452  0.1279 -0.0388
24687DOD     C317882   0.753   0.165  29.724 -0.3008  0.2533 -0.1100
24688DOD     C117883  17.076  14.547  19.435  0.4244  0.1118 -0.0194
24688DOD     C217884  16.892  14.766  19.816  0.0580  0.2529 -0.0202
24688DOD     C317885  16.926  15.117  20.107  0.0296  0.1047 -0.2238
24689DOD     C117886  12.696  15.003   2.449  0.2232  0.0668 -0.0778
24689DOD     C217887  12.767  15.136   2.866 -0.3631  0.0990 -0.0145
24689DOD     C317888  12.628  15.227   3.246 -0.1421  0.0467  0.2213
24690DOD     C117889   4.121  25.569   5.416  0.1516 -0.1998  0.1078
24690DOD     C217890   4.154  25.049   5.396  0.0173 -0.0568 -0.1398
24690DOD     C317891   4.302  24.770   5.745 -0.0574 -0.0960 -0.1065
24691DOD     C117892   9.364  19.189   4.945  0.2993 -0.2201  0.2678
24691DOD     C217893   9.623  19.210   5.311  0.2137 -0.2048  0.1089
24691DOD     C317894   9.862  19.365   5.655 -0.1890 -0.1399 -0.1096
24692DOD     C117895  18.127   5.691  20.060 -0.2212 -0.2361 -0.1271
24692DOD     C217896  18.543   5.612  20.279  0.1845 -0.0508  0.1356
24692DOD     C317897  18.903   5.411  20.546  0.1195  0.5486  0.1096
24693DOD     C117898   3.858  19.599   5.578  0.1278 -0.0988  0.0766
24693DOD     C217899   3.548  19.436   5.906 -0.0012  0.0260 -0.1064
24693DOD     C317900   3.239  19.596   6.190 -0.2326 -0.1860 -0.1878
24694DOD     C117901  10.131   2.630  25.667 -0.1669 -0.0255  0.1844
24694DOD     C217902  10.309   2.824  26.053 -0.4846 -0.1186  0.0084
24694DOD     C317903  10.566   2.871  26.457 -0.0440  0.0493 -0.3054
24695DOD     C117904  29.262  25.945  28.075  0.0245 -0.2394 -0.2296
24695DOD     C217905  28.930  26.194  27.881 -0.1874  0.0866  0.1644
24695DOD     C317906  28.596  26.481  27.870  0.0356 -0.0738 -0.1666
24696DOD     C117907  18.900  22.045  14.421  0.0422  0.0694  0.0610
24696DOD     C217908  19.174  21.695  14.303  0.1669  0.2830  0.1017
24696DOD     C317909  19.322  21.280  14.165  0.3233 -0.2261 -0.1421
24697DOD     C117910  18.902  26.403   8.263  0.0300 -0.0956  0.0394
24697DOD     C217911  18.423  26.265   8.379 -0.0824 -0.1756 -0.4159
24697DOD     C317912  17.992  26.413   8.552 -0.0409  0.1119  0.1128
24698DOD     C117913  19.945  22.864  20.429 -0.0812  0.1708  0.0259
24698DOD     C217914  19.734  22.462  20.610  0.0563  0.0358 -0.0503
24698DOD     C317915  19.785  21.995  20.773  0.1994 -0.0637  0.2106
24699DOD     C117916   0.697   4.405  28.596  0.0666 -0.1756  0.0812
24699DOD     C217917   0.308   4.377  28.333 -0.0547 -0.3356  0.1046
24699DOD     C317918  30.188   4.373  28.193  0.2997  0.0950  0.0043
24700DOD     C117919  10.790  13.618   9.640  0.2311 -0.0123 -0.1515
24700DOD     C217920  10.964  13.959   9.901 -0.3093  0.1557 -0.1209
24700DOD     C317921  10.796  14.374   9.978  0.1511 -0.0890  0.3126
24701DOD     C117922   5.324  21.551   4.760 -0.1948 -0.0754  0.1182
24701DOD     C217923   4.843  21.619   4.888 -0.2076 -0.1274 -0.4121
24701DOD     C317924   4.355  21.610   5.040 -0.1876 -0.2213  0.0176
24702DOD     C117925  25.006  20.270  18.831  0.4243  0.2077 -0.4581
24702DOD     C217926  25.169  20.436  18.453  0.1268 -0.1184  0.1961
24702DOD     C317927  25.386  20.704  18.183 -0.1303 -0.3064  0.2475
24703DOD     C117928  19.716  15.666   2.510 -0.1033 -0.1346 -0.0936
24703DOD     C217929  19.854  15.420   2.841  0.3029 -0.1520 -0.2135
24703DOD     C317930  20.193  15.234   3.124 -0.0355  0.0773 -0.0824
24704DOD     C117931  23.862  27.461  28.039  0.2106 -0.1005  0.0280
24704DOD     C217932  23.738  27.851  27.742 -0.2147 -0.2803  0.2108
24704DOD     C317933  23.600  28.242  27.552 -0.2630  0.3311 -0.2752
24705DOD     C117934  27.506  29.410  14.503  0.1249 -0.1672  0.4262
24705DOD     C217935  27.081  29.188  14.560 -0.0660 -0.1517  0.0786
24705DOD     C317936  26.826  28.824  14.444  0.1230 -0.3493 -0.0854
24706DOD     C117937   3.118  17.544  17.487 -0.0040 -0.0037 -0.1919
24706DOD     C217938   2.676  17.768  17.512 -0.1922  0.0360  0.1586
24706DOD     C317939   2.300  17.693  17.222 -0.2191 -0.0945  0.0501
24707DOD     C117940   6.341  23.867  18.135  0.0687 -0.2700  0.0655
24707DOD     C217941   6.563  23.614  18.438 -0.3189  0.0770 -0.1874
24707DOD     C317942   6.635  23.409  18.881  0.0281  0.0491 -0.2648
24708DOD     C117943  18.392  22.227  17.862 -0.1344  0.0232 -0.2657
24708DOD     C217944  18.347  22.179  17.403  0.2445 -0.0843  0.0812
24708DOD     C317945  18.317  22.303  16.930  0.2610 -0.1037  0.0602
24709DOD     C117946   2.900  16.741  12.599  0.0575 -0.3368  0.1496
24709DOD     C217947   2.859  17.014  12.213 -0.0601  0.1465  0.0387
24709DOD     C317948   2.758  17.137  11.808  0.0185 -0.0481 -0.3705
24710DOD     C117949   6.567  25.246  18.070  0.1260  0.2065  0.0260
24710DOD     C217950   6.186  25.093  18.193 -0.1146  0.2612  0.0668
24710DOD     C317951   5.942  24.818  18.534 -0.2748 -0.1422 -0.0628
24711DOD     C117952  30.104  27.833  17.029  0.5050 -0.0828  0.1657
24711DOD     C217953  30.129  27.939  17.462  0.4220 -0.0104 -0.0761
24711DOD     C317954  30.178  28.203  17.887  0.1782  0.2590  0.1496
24712DOD     C117955  25.414  28.117   8.651  0.1886 -0.2288  0.3323
24712DOD     C217956  25.529  27.733   8.437 -0.2614 -0.0597 -0.3790
24712DOD     C317957  25.329  27.512   8.047  0.0077  0.1927 -0.0048
24713DOD     C117958  23.940   6.893   2.143  0.1249 -0.0172 -0.0649
24713DOD     C217959  24.273   6.850   1.792 -0.0531  0.2736  0.0485
24713DOD     C317960  24.483   6.526   1.534 -0.1711  0.1547  0.2040
24714DOD     C117961   3.490   1.989   4.396 -0.0544 -0.0506  0.0387
24714DOD     C217962   3.184   2.226   4.088  0.1572  0.1972  0.1250
24714DOD     C317963   3.082   2.348   3.680 -0.4375 -0.1413  0.2330
24715DOD     C117964  20.478   8.762  20.089 -0.1183  0.1557 -0.2776
24715DOD     C217965  20.910   8.526  20.022  0.0479 -0.1290 -0.0972
24715DOD     C317966  21.386   8.510  19.990 -0.2467 -0.2836  0.1379
24716DOD     C117967  12.933  10.007   7.448  0.0988  0.0223 -0.1294
24716DOD     C217968  13.012   9.697   7.726 -0.0449  0.1180 -0.2015
24716DOD     C317969  12.861   9.473   8.094  0.3930  0.1864  0.2333
24717DOD     C117970  20.773   4.398   1.976 -0.0496  0.1420  0.0264
24717DOD     C217971  20.424   4.673   1.770  0.0655 -0.3549 -0.1261
24717DOD     C317972  20.063   4.496   1.655 -0.1304 -0.0791 -0.0242
24718DOD     C117973   6.969  21.067  14.115  0.0772  0.0721 -0.2323
24718DOD     C217974   6.780  21.461  14.328 -0.1012  0.2080  0.4018
24718DOD     C317975   6.380  21.645  14.250  0.2149  0.3045 -0.1693
24719DOD     C117976  15.561   9.734  15.313  0.0350 -0.0408 -0.1246
24719DOD     C217977  15.105   9.818  15.154 -0.6030 -0.2192  0.4223
24719DOD     C317978  14.671   9.692  15.367 -0.1230  0.4132 -0.1821
24720DOD     C117979  14.808   2.371   3.827  0.1911  0.0640  0.2103
24720DOD     C217980  15.101   2.494   4.194 -0.0592  0.3256 -0.1360
24720DOD     C317981  15.154   2.662   4.694 -0.0030  0.1340  0.0226
24721DOD     C117982  23.800  10.323  18.027 -0.0030 -0.4101 -0.0335
24721DOD     C217983  23.855  10.737  17.922 -0.0835  0.0232 -0.1152
24721DOD     C317984  23.777  11.139  17.782 -0.0469 -0.1359  0.1819
24722DOD     C117985  19.613  25.287   7.972  0.0503  0.0412  0.0276
24722DOD     C217986  20.071  25.255   8.050 -0.3389 -0.1607  0.0389
24722DOD     C317987  20.475  25.461   8.210  0.0289 -0.0359  0.0346
24723DOD     C117988   1.880  25.198   3.510 -0.3213 -0.2912 -0.0754
24723DOD     C217989   1.802  25.619   3.684  0.0813 -0.3080  0.2317
24723DOD     C317990   1.358  25.746   3.832 -0.0922  0.2600 -0.1786
24724DOD     C117991  17.362  16.132   8.551  0.1386  0.2243 -0.1342
24724DOD     C217992  16.912  16.173   8.802  0.1489 -0.0859  0.0698
24724DOD     C317993  16.666  16.210   9.181  0.3552 -0.1847 -0.0561
24725DOD     C117994  13.950   0.843  16.624 -0.3385 -0.0017 -0.1511
24725DOD     C217995  13.637   1.066  16.361  0.2077  0.0834  0.1072
24725DOD     C317996  13.261   1.115  16.028 -0.2568 -0.2012 -0.0079
24726DOD     C117997   0.871  26.097  24.590  0.0966 -0.0466  0.0590
24726DOD     C217998   0.474  25.996  24.821 -0.1174  0.0616 -0.2170
24726DOD     C317999   0.066  25.914  24.951 -0.0616  0.1628  0.2171
24727DOD     C118000   3.340  19.322  23.136 -0.2025 -0.0785  0.0398
24727DOD     C218001   3.274  19.133  23.565  0.0900  0.2573  0.6878
24727DOD     C318002   3.424  19.112  23.992 -0.1768  0.0035  0.2655
24728DOD     C118003  22.914  15.506  11.078 -0.1022  0.0184 -0.3084
24728DOD     C218004  22.775  15.923  10.993 -0.0162 -0.2036  0.1400
24728DOD     C318005  22.449  16.164  10.752 -0.0138 -0.0031  0.2225
24729DOD     C118006   7.117  24.412  27.546  0.1831  0.0883  0.0227
24729DOD     C218007   7.165  24.369  27.075 -0.0022  0.0436 -0.3371
24729DOD     C318008   7.361  24.225  26.655  0.1343  0.1015 -0.0535
24730DOD     C118009  18.932  10.374   7.509  0.4989  0.0641 -0.0080
24730DOD     C218010  19.370  10.234   7.658 -0.2139  0.0051  0.0821
24730DOD     C318011  19.780  10.406   7.813  0.0292 -0.1221 -0.2374
24731DOD     C118012   9.083   0.814  27.184 -0.2706 -0.1135  0.0418
24731DOD     C218013   8.769   0.668  27.445  0.1280  0.0330  0.1937
24731DOD     C318014   8.357   0.468  27.438 -0.0018 -0.2682 -0.2703
24732DOD     C118015   4.781  19.044  22.192  0.0723  0.1556  0.2273
24732DOD     C218016   4.397  19.350  22.201 -0.0436 -0.0877 -0.2855
24732DOD     C318017   4.106  19.673  22.014  0.0785 -0.0008 -0.0510
24733DOD     C118018  20.230  22.586   9.712  0.0184  0.1908  0.0386
24733DOD     C218019  20.351  22.972   9.738  0.1150  0.1028  0.0842
24733DOD     C318020  20.422  23.322  10.076 -0.0712 -0.1237 -0.2123
24734DOD     C118021  22.588   2.449  12.684 -0.0599  0.2850 -0.0792
24734DOD     C218022  22.167   2.345  12.868  0.1098 -0.0739 -0.0903
24734DOD     C318023  21.740   2.499  12.922  0.2813  0.1634  0.0240
24735DOD     C118024  28.355   4.636   0.588 -0.1046  0.0650  0.0027
24735DOD     C218025  28.134   4.718   0.954 -0.0021  0.1204  0.2251
24735DOD     C318026  27.913   4.561   1.354 -0.2795  0.1387  0.0338
24736DOD     C118027  11.111   5.822  10.077  0.0154  0.3563  0.1423
24736DOD     C218028  10.936   6.230  10.123  0.3891  0.2835  0.1181
24736DOD     C318029  10.495   6.311  10.168  0.3406  0.2524  0.0072
24737DOD     C118030  26.348  17.029   0.379 -0.3396  0.1564 -0.4137
24737DOD     C218031  26.708  17.336   0.333 -0.0854 -0.1001 -0.0107
24737DOD     C318032  26.858  17.726   0.435  0.1685 -0.1423 -0.4455
24738DOD     C118033   8.322  25.847  26.818 -0.2362  0.3286  0.0167
24738DOD     C218034   7.955  25.511  26.850 -0.3144 -0.1634 -0.2202
24738DOD     C318035   7.663  25.266  26.603  0.2330 -0.1291  0.1587
24739DOD     C118036  16.997  24.818  15.735 -0.3730  0.0824 -0.1652
24739DOD     C218037  16.849  24.801  16.147 -0.4244 -0.0324 -0.1334
24739DOD     C318038  16.526  24.563  16.427  0.1153  0.2087 -0.1646
24740DOD     C118039   9.092  12.823  19.502  0.1970 -0.0767  0.2488
24740DOD     C218040   9.028  12.366  19.600  0.3480 -0.0182  0.1238
24740DOD     C318041   9.114  12.076  19.939  0.2369  0.2000 -0.2159
24741DOD     C118042  22.605  14.525  22.539  0.1713 -0.0155 -0.0410
24741DOD     C218043  22.418  14.869  22.278 -0.3411  0.1869 -0.0379
24741DOD     C318044  22.303  15.124  21.958 -0.2129 -0.3200  0.1189
24742DOD     C118045  23.170  20.614  23.202 -0.6669 -0.1286  0.3833
24742DOD     C218046  23.458  20.901  23.449 -0.2054  0.1599  0.0953
24742DOD     C318047  23.886  20.956  23.813 -0.2985 -0.3709 -0.1610
24743DOD     C118048  23.390  14.111  10.891  0.1258 -0.1782 -0.0918
24743DOD     C218049  23.785  14.229  10.644 -0.0410 -0.1167  0.1559
24743DOD     C318050  24.166  14.412  10.329  0.0771  0.1359  0.1453
24744DOD     C118051  13.658  20.316   0.326 -0.0496 -0.0985  0.0309
24744DOD     C218052  13.919  20.263   0.696 -0.0831 -0.1102  0.1336
24744DOD     C318053  14.327  20.175   0.821 -0.0871 -0.2591 -0.0020
24745DOD     C118054  12.942  17.792  10.728 -0.2743  0.1628  0.1105
24745DOD     C218055  12.982  17.894  10.285  0.0016 -0.1056 -0.0567
24745DOD     C318056  12.870  18.232  10.012 -0.0900 -0.1373  0.0286
24746DOD     C118057  10.216   7.313   3.956  0.2045  0.0806 -0.4059
24746DOD     C218058  10.581   7.450   3.754 -0.0808 -0.0287  0.2891
24746DOD     C318059  10.971   7.510   3.547  0.4123  0.0079 -0.0909
24747DOD     C118060   2.738  21.708   8.781 -0.0658  0.0462 -0.0355
24747DOD     C218061   2.699  22.147   8.753  0.1595  0.0844  0.0226
24747DOD     C318062   2.950  22.528   8.918 -0.1592 -0.0409  0.1450
24748DOD     C118063  -0.049  10.797  25.095 -0.3073  0.0377 -0.0292
24748DOD     C218064   0.279  11.020  25.363 -0.2988  0.1751 -0.0092
24748DOD     C318065   0.591  11.164  25.695  0.2397  0.0900  0.1829
24749DOD     C118066  25.883  16.854  21.410 -0.1604  0.1799  0.0468
24749DOD     C218067  25.649  16.450  21.444  0.1786  0.1055 -0.1614
24749DOD     C318068  25.566  16.001  21.599  0.1921  0.3331 -0.0375
24750DOD     C118069   5.106   1.724   9.285 -0.3639  0.0606 -0.1838
24750DOD     C218070   4.947   1.999   9.641  0.2804  0.2364 -0.1621
24750DOD     C318071   4.824   2.056  10.076  0.0581  0.1118 -0.0647
24751DOD     C118072  29.343  20.986  14.340 -0.0966  0.0305  0.2296
24751DOD     C218073  29.091  20.546  14.302 -0.0695 -0.0875 -0.2493
24751DOD     C318074  28.707  20.503  14.050 -0.2172  0.1002  0.0068
24752DOD     C118075  18.744  23.516   3.997 -0.3052  0.1000 -0.5320
24752DOD     C218076  18.985  23.899   3.814  0.1035  0.0353  0.0127
24752DOD     C318077  19.185  24.089   3.442  0.1450  0.0115  0.0239
24753DOD     C118078  26.832  28.045   9.914 -0.2935  0.0416  0.2269
24753DOD     C218079  27.280  27.942  10.119 -0.1361 -0.1032  0.1332
24753DOD     C318080  27.587  28.028  10.428 -0.1483 -0.1814  0.0275
24754DOD     C118081   6.140   3.538  11.579 -0.2200  0.1113  0.2203
24754DOD     C218082   6.534   3.704  11.468 -0.0737  0.2186  0.2609
24754DOD     C318083   6.786   3.878  11.072 -0.0445  0.3125 -0.0028
24755DOD     C118084  17.061  22.797   6.365 -0.0468 -0.1673  0.2771
24755DOD     C218085  16.786  23.147   6.532  0.2465  0.0008  0.2134
24755DOD     C318086  16.756  23.557   6.718 -0.0508  0.0689 -0.2245
24756DOD     C118087  24.637  19.451  23.181  0.2709 -0.1950  0.0573
24756DOD     C218088  24.645  19.014  23.194  0.1340  0.1343  0.2221
24756DOD     C318089  24.566  18.777  22.830 -0.2012 -0.0719  0.1965
24757DOD     C118090  29.657  18.516  21.055  0.0686  0.2093 -0.0448
24757DOD     C218091  29.445  18.069  21.022 -0.2558  0.0144  0.0818
24757DOD     C318092  29.588  17.666  20.998 -0.1494 -0.0485  0.0962
24758DOD     C118093   5.430  14.838  11.219  0.1626  0.3445  0.0402
24758DOD     C218094   5.171  15.195  11.444 -0.2573  0.1322  0.2424
24758DOD     C318095   5.341  15.372  11.830 -0.3060  0.1376  0.0874
24759DOD     C118096  27.128   9.278  18.982  0.2928  0.0229  0.1048
24759DOD     C218097  26.975   8.812  18.917  0.1720  0.0213 -0.0173
24759DOD     C318098  27.105   8.419  18.675  0.0682  0.1412 -0.0380
24760DOD     C118099   9.152   8.685  25.088 -0.2086 -0.1826 -0.1252
24760DOD     C218100   8.988   8.817  24.634  0.0134 -0.0510  0.1029
24760DOD     C318101   8.847   9.183  24.395  0.1253  0.0128  0.1878
24761DOD     C118102  22.885  13.337  21.944  0.0325  0.0540  0.0775
24761DOD     C218103  23.314  13.483  21.814  0.0411 -0.3171 -0.2937
24761DOD     C318104  23.759  13.406  21.789 -0.2014  0.1481  0.1024
24762DOD     C118105  20.549  23.188   7.006  0.3071 -0.3787  0.2255
24762DOD     C218106  20.534  23.106   6.528 -0.1743  0.0257  0.1260
24762DOD     C318107  20.793  23.169   6.134  0.2523  0.1777  0.2655
24763DOD     C118108   3.601   0.711   9.544  0.0619  0.2218 -0.0016
24763DOD     C218109   3.550   0.745   9.976 -0.1703 -0.2643  0.2136
24763DOD     C318110   3.283   1.080  10.255  0.0347 -0.1923  0.0014
24764DOD     C118111  24.707  20.584   4.834 -0.3012  0.1934 -0.3630
24764DOD     C218112  24.906  20.392   5.145  0.0830 -0.1701 -0.1392
24764DOD     C318113  24.675  20.450   5.548  0.0601 -0.2440 -0.0475
24765DOD     C118114  23.885   4.071  11.277  0.0018  0.1126 -0.0077
24765DOD     C218115  24.261   4.387  11.261 -0.0903 -0.0572 -0.2254
24765DOD     C318116  24.469   4.753  11.076  0.0748 -0.2590  0.1472
24766DOD     C118117  10.204  18.906  28.265  0.2151  0.1684  0.0921
24766DOD     C218118   9.918  18.868  27.872 -0.2700 -0.1850  0.2332
24766DOD     C318119   9.493  18.705  27.738 -0.0306  0.2550 -0.0570
24767DOD     C118120  26.982  29.800  10.000  0.1428 -0.3230 -0.2052
24767DOD     C218121  27.081  30.060   9.610 -0.1111 -0.0558 -0.0778
24767DOD     C318122  26.930   0.178   9.409 -0.2721 -0.0120  0.0216
24768DOD     C118123  19.575   6.232  26.612 -0.0622  0.2273  0.0026
24768DOD     C218124  19.367   5.830  26.545  0.1386  0.1930  0.1895
24768DOD     C318125  19.197   5.388  26.668 -0.0970 -0.1062 -0.0292
24769DOD     C118126  12.235  11.218  12.774 -0.1393 -0.0427 -0.0061
24769DOD     C218127  11.913  11.164  12.439  0.0738 -0.1750 -0.1540
24769DOD     C318128  11.629  10.972  12.141 -0.2285 -0.0966  0.0581
24770DOD     C118129  27.337  24.644  11.692  0.3196 -0.1035 -0.0940
24770DOD     C218130  27.730  24.768  11.913  0.0469 -0.3386 -0.4344
24770DOD     C318131  27.858  25.215  11.901  0.0646 -0.1294  0.1325
24771DOD     C118132  25.376  27.595   7.529  0.0405  0.2748  0.0906
24771DOD     C218133  25.029  27.466   7.179 -0.0445 -0.2629  0.1748
24771DOD     C318134  24.573  27.549   7.018  0.0488 -0.1364 -0.1515
24772DOD     C118135  19.991   0.175   3.442 -0.0401  0.0813 -0.0722
24772DOD     C218136  19.797   0.516   3.403 -0.0737  0.0378 -0.0950
24772DOD     C318137  19.676   0.918   3.631  0.1797  0.1213  0.0086
24773DOD     C118138   8.380   1.757  20.052 -0.3117 -0.0602 -0.4283
24773DOD     C218139   8.073   1.404  20.182  0.1523  0.0327  0.1401
24773DOD     C318140   7.659   1.243  20.310  0.2377 -0.0783  0.1013
24774DOD     C118141  17.123   6.430   0.774 -0.0456 -0.0707 -0.1372
24774DOD     C218142  16.905   6.443   0.384 -0.2920  0.0188 -0.4277
24774DOD     C318143  16.700   6.439  30.274  0.1590  0.2434 -0.0330
24775DOD     C118144  19.659  18.414  26.014 -0.2719 -0.1526  0.1380
24775DOD     C218145  19.647  18.022  26.193 -0.0663  0.0174 -0.1003
24775DOD     C318146  19.645  17.807  26.619  0.2467  0.1204  0.1230
24776DOD     C118147  28.123  28.266  20.732  0.0687  0.2898 -0.0089
24776DOD     C218148  28.492  27.971  20.815 -0.3166  0.1835  0.0036
24776DOD     C318149  28.884  27.730  20.934  0.1291 -0.1252 -0.1781
24777DOD     C118150  13.598  28.844   8.067 -0.5199  0.0633 -0.0622
24777DOD     C218151  13.225  28.675   8.156 -0.0777  0.1393  0.2706
24777DOD     C318152  13.037  28.480   8.522  0.0203  0.0714 -0.0026
24778DOD     C118153  11.775  27.461   7.464  0.2749 -0.0229 -0.1238
24778DOD     C218154  12.061  27.141   7.545  0.1728 -0.0539 -0.1616
24778DOD     C318155  12.111  26.746   7.351 -0.2361  0.2628  0.1693
24779DOD     C118156  11.583   9.511  17.758  0.0286  0.1719  0.3462
24779DOD     C218157  11.756   9.090  17.612  0.3482  0.0140  0.1855
24779DOD     C318158  11.550   8.627  17.700 -0.0403 -0.0675 -0.1892
24780DOD     C118159   0.258   9.902  21.927 -0.1598 -0.0923 -0.1744
24780DOD     C218160   0.425  10.306  22.012  0.3328  0.2943 -0.1228
24780DOD     C318161   0.591  10.515  22.374 -0.2492  0.3048 -0.2154
24781DOD     C118162   2.011   0.152  11.999 -0.0516 -0.1600 -0.0468
24781DOD     C218163   2.410  30.222  12.003 -0.0005 -0.3918  0.2235
24781DOD     C318164   2.838  30.092  12.089 -0.0168 -0.3353 -0.0998
24782DOD     C118165  26.424  10.033  21.171  0.1534 -0.0442  0.1010
24782DOD     C218166  26.242  10.334  21.417  0.2500 -0.0847 -0.2523
24782DOD     C318167  26.007  10.698  21.259  0.1993  0.2223  0.2750
24783DOD     C118168   8.934  15.189  11.935  0.1827 -0.0853  0.1142
24783DOD     C218169   8.757  14.747  12.055 -0.2371  0.0729 -0.0898
24783DOD     C318170   8.317  14.624  11.933  0.0710  0.0070  0.0496
24784DOD     C118171  16.752  16.619   7.880 -0.2588  0.0634 -0.2273
24784DOD     C218172  16.443  16.230   7.846  0.0787 -0.3033 -0.1013
24784DOD     C318173  16.176  16.060   8.206  0.1269  0.0255  0.1396
24785DOD     C118174  15.009  23.275   6.678  0.0219 -0.1073 -0.2037
24785DOD     C218175  15.012  23.639   6.390 -0.1199  0.1250  0.0192
24785DOD     C318176  15.142  24.102   6.373  0.0542  0.2296 -0.1432
24786DOD     C118177   1.440   7.465  28.615  0.1315  0.1625  0.2363
24786DOD     C218178   1.381   7.918  28.458  0.0804  0.2571  0.3084
24786DOD     C318179   1.082   8.189  28.175  0.2925  0.2583  0.0580
24787DOD     C118180  28.473   9.985  11.931  0.1007 -0.0137  0.0719
24787DOD     C218181  28.924   9.903  12.071 -0.4372  0.1650 -0.0660
24787DOD     C318182  29.225   9.686  12.378 -0.1806 -0.2306  0.3048
24788DOD     C118183   1.119  12.167  13.657  0.1916  0.1246 -0.0883
24788DOD     C218184   1.058  12.134  14.122  0.0100 -0.1809  0.3762
24788DOD     C318185   1.083  11.755  14.438 -0.0038  0.1659  0.0555
24789DOD     C118186  15.242   4.888  20.586 -0.3368  0.0339  0.1573
24789DOD     C218187  15.666   4.990  20.454 -0.1604 -0.0445  0.1213
24789DOD     C318188  16.053   5.218  20.294  0.1095  0.4309 -0.1257
24790DOD     C118189  10.422  29.789  17.426 -0.2509  0.3042  0.4008
24790DOD     C218190   9.924  29.785  17.530  0.0611 -0.1953 -0.0511
24790DOD     C318191   9.542  29.631  17.362 -0.0580  0.1977 -0.0366
24791DOD     C118192  24.932  10.166  23.844 -0.1497  0.0358  0.1216
24791DOD     C218193  24.757  10.504  23.592 -0.0767  0.2623  0.0967
24791DOD     C318194  24.445  10.635  23.290 -0.0487 -0.1141  0.0378
24792DOD     C118195   9.118  12.425  18.048 -0.0109  0.0383  0.1175
24792DOD     C218196   8.721  12.497  17.903  0.0038  0.0471 -0.0437
24792DOD     C318197   8.350  12.700  17.730 -0.0075 -0.0615  0.2211
24793DOD     C118198   6.206  17.364  23.856 -0.0184  0.0069 -0.2561
24793DOD     C218199   5.837  17.339  23.594  0.2070  0.3573 -0.1670
24793DOD     C318200   5.609  17.202  23.211 -0.1984 -0.0818 -0.2206
24794DOD     C118201  17.152  28.755   1.021  0.0933 -0.1743  0.0983
24794DOD     C218202  17.480  28.544   0.798 -0.0151  0.3142  0.0945
24794DOD     C318203  17.721  28.586   0.409  0.0281 -0.0251 -0.2010
24795DOD     C118204   6.751   2.215   2.984 -0.0148 -0.0562  0.0869
24795DOD     C218205   7.153   2.382   2.903  0.3831  0.1308  0.2312
24795DOD     C318206   7.391   2.228   2.560 -0.1694 -0.0677  0.1999
24796DOD     C118207  13.003   2.940  11.587 -0.2655  0.1297 -0.1410
24796DOD     C218208  13.279   3.275  11.504 -0.3054 -0.0653 -0.2853
24796DOD     C318209  13.568   3.540  11.274 -0.1287  0.3651 -0.2709
24797DOD     C118210  19.326  22.993  12.996 -0.0035  0.2354 -0.1721
24797DOD     C218211  19.345  22.956  13.481 -0.4120 -0.1622  0.1898
24797DOD     C318212  19.530  23.232  13.790 -0.0862 -0.0824 -0.0518
24798DOD     C118213   9.867  28.624  22.699 -0.2341 -0.5464 -0.2160
24798DOD     C218214  10.170  28.347  22.886  0.1158 -0.0157 -0.1437
24798DOD     C318215  10.296  27.951  22.796 -0.0115 -0.1590 -0.2368
24799DOD     C118216  15.664  19.346  26.565  0.2003  0.0904  0.1116
24799DOD     C218217  15.463  19.720  26.841 -0.3905 -0.1842 -0.1705
24799DOD     C318218  15.251  20.153  26.765  0.0905  0.0229  0.2691
24800DOD     C118219   1.664  23.792  24.400 -0.0949  0.0721  0.0935
24800DOD     C218220   1.810  24.233  24.357  0.0852  0.1090 -0.1612
24800DOD     C318221   1.690  24.509  24.686 -0.1179  0.0925 -0.1808
24801DOD     C118222   0.910  21.607   2.159  0.0174 -0.3629  0.1542
24801DOD     C218223   1.233  21.960   2.021 -0.0731  0.0679 -0.2066
24801DOD     C318224   1.518  22.284   1.800  0.1630 -0.1915  0.1422
24802DOD     C118225  18.125   2.697  25.513  0.2319  0.0729  0.2500
24802DOD     C218226  18.200   2.237  25.396  0.3559  0.1071 -0.1614
24802DOD     C318227  18.307   1.828  25.414  0.1195  0.0007  0.2139
24803DOD     C118228  10.840  24.066  16.699 -0.1901  0.0301 -0.0023
24803DOD     C218229  10.745  24.518  16.672 -0.3966  0.1095  0.2990
24803DOD     C318230  10.384  24.811  16.479 -0.0205 -0.1686 -0.1784
24804DOD     C118231  18.666  22.004   9.787 -0.1524 -0.0086 -0.2166
24804DOD     C218232  19.122  21.857   9.737 -0.0155  0.1155  0.0778
24804DOD     C318233  19.584  21.750   9.780  0.1334 -0.0833 -0.0800
24805DOD     C118234   4.527  24.247  17.276  0.1118 -0.2092 -0.0278
24805DOD     C218235   4.646  24.399  16.819 -0.1147 -0.1684  0.2389
24805DOD     C318236   4.690  24.609  16.382 -0.0732 -0.0493  0.1824
24806DOD     C118237  13.504  19.230  22.387  0.4321  0.4774 -0.0814
24806DOD     C218238  13.565  19.683  22.490  0.1502  0.2637  0.0882
24806DOD     C318239  13.468  19.949  22.868  0.2680 -0.0281 -0.0843
24807DOD     C118240   9.223  16.373  12.281  0.3476  0.1232 -0.4510
24807DOD     C218241   8.994  15.946  12.366 -0.0436  0.3062 -0.1395
24807DOD     C318242   9.056  15.493  12.338 -0.2520  0.0161 -0.2826
24808DOD     C118243  19.915   9.633  26.205  0.0122 -0.1023  0.0688
24808DOD     C218244  19.492   9.752  26.359 -0.0551 -0.1363 -0.1335
24808DOD     C318245  19.338  10.219  26.377  0.0975  0.1290 -0.1122
24809DOD     C118246  29.176  12.992  25.643 -0.2146  0.3408  0.1089
24809DOD     C218247  28.985  13.222  25.974  0.0796 -0.0210  0.1887
24809DOD     C318248  28.989  13.416  26.466  0.0649 -0.2868 -0.0212
24810DOD     C118249   6.680  20.776  17.666 -0.1725  0.2382  0.2544
24810DOD     C218250   6.944  20.417  17.420 -0.1581  0.0388 -0.1125
24810DOD     C318251   6.987  20.494  16.968 -0.0623 -0.3442 -0.2580
24811DOD     C118252   0.353  19.003   3.511 -0.0662  0.0030 -0.4173
24811DOD     C218253   0.170  18.650   3.703  0.0908  0.5179 -0.3963
24811DOD     C318254   0.027  18.193   3.846  0.0468  0.3807 -0.0040
24812DOD     C118255  22.768  15.304   2.311 -0.0937 -0.0609 -0.1901
24812DOD     C218256  22.821  15.468   1.882  0.0694 -0.2316  0.3018
24812DOD     C318257  22.877  15.385   1.422  0.1384 -0.0877 -0.2770
24813DOD     C118258   2.569  17.039  26.254  0.0546 -0.1600 -0.2880
24813DOD     C218259   2.785  17.224  25.911  0.1964  0.0394 -0.1478
24813DOD     C318260   2.927  17.204  25.492  0.0948 -0.2729 -0.0429
24814DOD     C118261   2.677   8.839   6.159 -0.0342  0.0762  0.0395
24814DOD     C218262   2.421   9.122   6.361 -0.3058 -0.1167  0.2209
24814DOD     C318263   2.239   9.348   6.699 -0.0881  0.1497 -0.4199
24815DOD     C118264  23.308  23.768  29.275 -0.1238 -0.0413 -0.1005
24815DOD     C218265  23.026  23.482  29.089  0.0089 -0.1455 -0.0922
24815DOD     C318266  22.804  23.159  28.937  0.1473 -0.1347 -0.2547
24816DOD     C118267  15.945  25.159  27.763 -0.2200 -0.1024  0.0268
24816DOD     C218268  15.799  24.759  27.786 -0.2913  0.0601 -0.1996
24816DOD     C318269  15.310  24.619  27.814 -0.0450 -0.0243  0.1187
24817DOD     C118270  11.319  13.496  30.234  0.1106  0.1029  0.2105
24817DOD     C218271  11.632  13.485  29.905  0.0120 -0.0306  0.1108
24817DOD     C318272  11.492  13.494  29.412 -0.1288 -0.1363  0.0576
24818DOD     C118273  11.142  15.097   1.427  0.0253  0.1386 -0.1069
24818DOD     C218274  11.189  14.723   1.254  0.0881  0.0595  0.0573
24818DOD     C318275  11.389  14.381   1.026  0.2332  0.2147  0.4508
24819DOD     C118276   0.672   0.968  19.082  0.0541  0.3913 -0.2605
24819DOD     C218277   0.401   1.289  19.189  0.1370  0.0946  0.1409
24819DOD     C318278   0.041   1.571  19.075 -0.2023  0.2808  0.0010
24820DOD     C118279   6.553  20.592   6.429  0.1280  0.0292  0.2481
24820DOD     C218280   6.609  20.986   6.242 -0.1303  0.0548  0.0729
24820DOD     C318281   6.713  21.388   6.056  0.1554 -0.1033 -0.1022
24821DOD     C118282  25.537   6.709  15.225 -0.3233  0.0125 -0.0815
24821DOD     C218283  25.206   6.400  15.298 -0.0590 -0.1099 -0.0212
24821DOD     C318284  24.921   6.152  15.583  0.2403  0.3586 -0.0040
24822DOD     C118285   6.600   5.488   2.580 -0.1011  0.0191  0.0761
24822DOD     C218286   6.702   5.535   3.068 -0.0035  0.0190  0.0435
24822DOD     C318287   6.984   5.473   3.419 -0.1528  0.0964 -0.1263
24823DOD     C118288   1.483  14.955  28.763  0.0167 -0.2140 -0.0828
24823DOD     C218289   1.588  14.696  28.497 -0.0719  0.3249  0.1572
24823DOD     C318290   1.643  14.481  28.090 -0.1144 -0.5431 -0.0353
24824DOD     C118291   3.054  20.850  21.655 -0.1732 -0.0764 -0.0928
24824DOD     C218292   3.052  20.412  21.886  0.1332  0.1019  0.1180
24824DOD     C318293   2.931  19.980  21.988  0.0747 -0.1392  0.0212
24825DOD     C118294   1.132   9.781  20.807  0.1880  0.1338 -0.0616
24825DOD     C218295   0.891   9.789  21.218  0.1577  0.0194  0.1149
24825DOD     C318296   0.708   9.877  21.635 -0.0340 -0.2003  0.4424
24826DOD     C118297  28.788  23.770  17.990 -0.0868  0.2203  0.0852
24826DOD     C218298  29.163  24.115  17.755 -0.1151  0.1156 -0.5242
24826DOD     C318299  29.516  24.491  17.723  0.2111 -0.2272 -0.2551
24827DOD     C118300  15.224  28.684   3.809  0.3163 -0.0587  0.1997
24827DOD     C218301  15.222  28.733   3.312 -0.0320 -0.3175 -0.3439
24827DOD     C318302  15.142  28.865   2.884 -0.2278 -0.1377  0.0860
24828DOD     C118303   7.239  23.068  26.365  0.2020 -0.1010 -0.1390
24828DOD     C218304   7.059  22.659  26.364 -0.0853  0.0615  0.0564
24828DOD     C318305   6.922  22.303  26.663 -0.0296  0.2683  0.0182
24829DOD     C118306  13.432  22.024  25.772  0.1713 -0.0085  0.2394
24829DOD     C218307  13.174  22.310  26.068 -0.2722 -0.1261 -0.1626
24829DOD     C318308  12.944  22.371  26.444  0.0657  0.2099 -0.0257
24830DOD     C118309   1.183  10.746  10.281 -0.2157 -0.1470  0.1393
24830DOD     C218310   1.062  10.341  10.086  0.0556 -0.1679 -0.2528
24830DOD     C318311   0.978  10.123   9.674 -0.2557 -0.0702 -0.1034
24831DOD     C118312  27.915   8.738  13.947 -0.1951  0.3092  0.0483
24831DOD     C218313  28.361   8.837  13.932 -0.0911  0.1355  0.3328
24831DOD     C318314  28.655   8.719  13.544  0.0480 -0.2416  0.1115
24832DOD     C118315   3.866   4.763   6.882  0.2005  0.1440  0.1200
24832DOD     C218316   3.591   4.875   6.535  0.3070 -0.2704 -0.1059
24832DOD     C318317   3.380   5.057   6.123  0.1995  0.1227  0.0900
24833DOD     C118318   7.172  18.779  24.538  0.0461 -0.0081 -0.0151
24833DOD     C218319   7.302  18.601  24.127  0.0045  0.3769  0.0138
24833DOD     C318320   7.529  18.276  23.901 -0.0220 -0.1566  0.0027
24834DOD     C118321   8.467   1.939   0.616 -0.0325  0.0841  0.0018
24834DOD     C218322   8.415   1.944   1.086  0.3858  0.1331 -0.0985
24834DOD     C318323   8.429   1.880   1.566  0.1973 -0.0617 -0.2765
24835DOD     C118324  15.354   1.828  11.822 -0.2389  0.2051 -0.1497
24835DOD     C218325  14.933   1.865  11.675 -0.2840  0.1071  0.3470
24835DOD     C318326  14.597   1.745  11.400 -0.2126  0.2001  0.0007
24836DOD     C118327   5.652  19.554   2.354  0.2938  0.4401 -0.3154
24836DOD     C218328   5.298  19.825   2.159  0.0092 -0.0925 -0.0644
24836DOD     C318329   5.263  20.179   1.868  0.1862  0.1457  0.1423
24837DOD     C118330  23.994  25.615   5.799 -0.0492 -0.1603 -0.0994
24837DOD     C218331  23.881  25.311   5.463 -0.2616 -0.0307  0.1069
24837DOD     C318332  23.922  24.852   5.407 -0.2106 -0.0963 -0.1374
24838DOD     C118333  12.894  23.602   1.270 -0.0936 -0.2524  0.5248
24838DOD     C218334  12.966  23.685   0.773  0.2030  0.3016  0.0884
24838DOD     C318335  12.958  24.027   0.501 -0.0731  0.2122  0.2814
24839DOD     C118336  26.439   8.296   6.992 -0.2538  0.1300 -0.2054
24839DOD     C218337  26.631   8.309   7.427 -0.1858  0.1402 -0.0254
24839DOD     C318338  26.656   7.977   7.754  0.0488  0.0429 -0.2621
24840DOD     C118339  10.680  12.032  24.831 -0.3470 -0.0255 -0.2244
24840DOD     C218340  10.480  12.005  24.386  0.0968  0.0358 -0.2412
24840DOD     C318341  10.423  12.000  23.927  0.3596 -0.1339 -0.0292
24841DOD     C118342   2.422   1.293   9.993  0.1163 -0.3065 -0.0154
24841DOD     C218343   2.674   0.923  10.243 -0.1061 -0.1856 -0.0860
24841DOD     C318344   2.898   0.554  10.416  0.0865 -0.1414  0.1388
24842DOD     C118345  10.578  19.770   3.295 -0.0183 -0.2092 -0.2092
24842DOD     C218346  10.149  19.701   3.369  0.0207 -0.1533  0.0716
24842DOD     C318347   9.723  19.806   3.389  0.0638 -0.1721 -0.0366
24843DOD     C118348   5.729   1.067   7.962  0.2210  0.1412 -0.1332
24843DOD     C218349   5.324   1.046   7.733 -0.0282  0.1240 -0.2576
24843DOD     C318350   4.901   1.202   7.708  0.6020 -0.1585 -0.0787
24844DOD     C118351  28.003   2.950  18.817  0.4729 -0.4276 -0.0913
24844DOD     C218352  28.350   3.228  18.732 -0.1613 -0.1470 -0.1216
24844DOD     C318353  28.633   3.267  18.973  0.0496 -0.0663  0.2049
24845DOD     C118354  16.069  24.121  14.621  0.1444 -0.0983 -0.2994
24845DOD     C218355  16.204  24.078  14.136  0.0642  0.0498  0.3727
24845DOD     C318356  16.052  24.292  13.698  0.0496 -0.3881  0.0657
24846DOD     C118357   7.395  18.517  19.665  0.0922 -0.0016  0.1324
24846DOD     C218358   7.798  18.315  19.442 -0.0878  0.2210  0.0204
24846DOD     C318359   8.261  18.175  19.412 -0.0208  0.3718  0.0798
24847DOD     C118360  13.347   1.607   3.806  0.3564 -0.1649  0.0708
24847DOD     C218361  13.449   1.236   3.656  0.2032 -0.0497 -0.5383
24847DOD     C318362  13.488   0.997   3.240 -0.0292  0.0734  0.1018
24848DOD     C118363   4.582  16.372  20.665  0.1065 -0.0766 -0.4526
24848DOD     C218364   4.898  16.093  20.753  0.3872  0.2067 -0.1566
24848DOD     C318365   5.195  15.811  20.977 -0.1440  0.1599 -0.0139
24849DOD     C118366  10.243   8.139  24.034  0.0922 -0.1285  0.2193
24849DOD     C218367  10.601   7.996  23.783 -0.0135  0.0206 -0.0190
24849DOD     C318368  10.943   7.713  23.644  0.3986  0.2111 -0.1467
24850DOD     C118369  20.865   2.445  10.163 -0.0736  0.0346 -0.1291
24850DOD     C218370  21.103   2.745  10.403 -0.6078 -0.1961 -0.1832
24850DOD     C318371  21.279   3.090  10.662 -0.0512 -0.1111 -0.2036
24851DOD     C118372  13.876  11.927  21.103  0.3635  0.1140  0.2125
24851DOD     C218373  14.050  12.270  20.814 -0.0996 -0.2693  0.0874
24851DOD     C318374  14.166  12.698  20.899  0.1033 -0.0151 -0.0823
24852DOD     C118375   4.058  17.257  18.725 -0.1499 -0.2081  0.0379
24852DOD     C218376   4.165  17.189  18.285  0.2693  0.0653  0.0680
24852DOD     C318377   4.281  17.124  17.868 -0.2518  0.2073 -0.2224
24853DOD     C118378  12.155  29.188  23.296 -0.2121  0.1919  0.1271
24853DOD     C218379  12.515  29.311  23.640  0.0196  0.4585  0.0642
24853DOD     C318380  12.793  29.629  23.813  0.0041  0.4024  0.2883
24854DOD     C118381  17.054  12.570   5.445  0.0066 -0.3891 -0.2654
24854DOD     C218382  17.250  12.836   5.807 -0.1820 -0.1727  0.0255
24854DOD     C318383  17.493  13.225   5.780 -0.0861  0.0470 -0.1141
24855DOD     C118384  24.400   5.310  21.780  0.0432 -0.1379 -0.1417
24855DOD     C218385  24.023   5.288  22.075 -0.0786 -0.2084  0.1002
24855DOD     C318386  23.677   5.378  22.378  0.2269  0.1995  0.1164
24856DOD     C118387  19.759   8.739   1.590  0.2759 -0.1051  0.2517
24856DOD     C218388  19.591   9.182   1.749 -0.4515 -0.2649 -0.0439
24856DOD     C318389  19.255   9.334   2.057  0.3033 -0.1308  0.1337
24857DOD     C118390  16.831  26.435   1.257  0.0087  0.4331 -0.1518
24857DOD     C218391  17.211  26.459   1.034 -0.3380 -0.1366 -0.0631
24857DOD     C318392  17.630  26.525   0.854 -0.1415 -0.0099 -0.2853
24858DOD     C118393   8.038  10.099  23.774 -0.0363  0.2453  0.0686
24858DOD     C218394   7.636  10.358  23.677  0.2268  0.1114  0.1408
24858DOD     C318395   7.294  10.664  23.737  0.1721  0.0679 -0.3160
24859DOD     C118396  25.032  27.531  16.161 -0.0892  0.0795 -0.4446
24859DOD     C218397  25.186  27.190  16.485  0.0725  0.1628 -0.1060
24859DOD     C318398  25.391  26.884  16.743 -0.1515  0.2194 -0.1322
24860DOD     C118399  20.073  10.343  23.208 -0.2412  0.0852 -0.0532
24860DOD     C218400  20.396  10.331  22.865 -0.0429  0.0569  0.0852
24860DOD     C318401  20.482  10.486  22.399 -0.1511  0.3613 -0.0845
24861DOD     C118402  25.043   5.199  11.815  0.1192  0.0025 -0.1642
24861DOD     C218403  25.064   5.665  11.760 -0.2856  0.1678  0.0044
24861DOD     C318404  25.097   6.029  11.475 -0.1873  0.2127 -0.1281
24862DOD     C118405   5.241  18.646  29.116 -0.0443  0.1661  0.3907
24862DOD     C218406   5.447  18.965  29.405 -0.0905 -0.4367  0.1544
24862DOD     C318407   5.423  18.949  29.874  0.1257 -0.3000 -0.3081
24863DOD     C118408   2.934   9.780   5.981 -0.0419 -0.1769 -0.2597
24863DOD     C218409   3.265   9.808   6.326  0.0401 -0.2223  0.1813
24863DOD     C318410   3.382  10.012   6.703  0.0137  0.2164 -0.3533
24864DOD     C118411  23.530  12.038  12.501 -0.1333 -0.1621  0.1874
24864DOD     C218412  23.071  11.906  12.569 -0.1578 -0.0562  0.1208
24864DOD     C318413  22.662  11.683  12.770  0.2205 -0.3534 -0.1457
24865DOD     C118414  14.461  18.685  25.598 -0.2236  0.0799  0.0398
24865DOD     C218415  14.737  18.800  25.232 -0.1465 -0.1186  0.0571
24865DOD     C318416  14.993  19.083  24.961 -0.1990 -0.1558 -0.0751
24866DOD     C118417   1.565  26.530   0.493 -0.2770  0.4600  0.0662
24866DOD     C218418   1.404  26.844   0.803 -0.0114 -0.1164  0.0058
24866DOD     C318419   1.421  27.289   0.920  0.2525  0.0655  0.0700
24867DOD     C118420   5.393  26.367  26.604  0.3074 -0.0204 -0.3966
24867DOD     C218421   5.479  25.890  26.445  0.1335  0.0466  0.2067
24867DOD     C318422   5.130  25.657  26.236  0.6545 -0.0363  0.1157
24868DOD     C118423  22.010  21.212   3.025 -0.1029  0.0271 -0.1788
24868DOD     C218424  21.682  20.947   3.359  0.1375  0.0588 -0.0430
24868DOD     C318425  21.274  20.822   3.449  0.2766  0.2303 -0.1864
24869DOD     C118426   3.898   4.730  17.756  0.0232 -0.0727 -0.2854
24869DOD     C218427   3.622   4.688  18.152  0.0094  0.0472  0.4965
24869DOD     C318428   3.224   4.748  18.466  0.1290  0.0284  0.0533
24870DOD     C118429   7.829  24.721  18.976 -0.2071 -0.1376  0.0913
24870DOD     C218430   7.523  24.914  19.243 -0.0314  0.1220 -0.1722
24870DOD     C318431   7.168  25.117  19.443 -0.1343 -0.3626  0.0249
24871DOD     C118432   4.748  20.205  14.839  0.0284 -0.1082  0.1847
24871DOD     C218433   5.205  20.317  14.961 -0.2886 -0.1807  0.2246
24871DOD     C318434   5.421  20.490  15.345  0.0635  0.0361  0.0294
24872DOD     C118435   1.964  10.239  20.176 -0.2419  0.1004 -0.0536
24872DOD     C218436   1.944   9.956  19.818 -0.2977 -0.1704  0.1862
24872DOD     C318437   1.774   9.829  19.363 -0.0548 -0.0166 -0.1035
24873DOD     C118438  11.943  19.471  21.546  0.0535  0.0708  0.2194
24873DOD     C218439  12.397  19.629  21.575  0.2724 -0.0245  0.2578
24873DOD     C318440  12.700  19.969  21.804 -0.0483 -0.0738 -0.0293
24874DOD     C118441  26.781  23.871  29.770 -0.1092 -0.1222  0.0979
24874DOD     C218442  26.564  23.887  30.177 -0.3043 -0.1810 -0.0420
24874DOD     C318443  26.457  23.688   0.261 -0.0432 -0.0404  0.1151
24875DOD     C118444   5.498  16.854   8.003  0.1011 -0.2094  0.3430
24875DOD     C218445   5.774  16.531   7.888  0.0010  0.1262 -0.0838
24875DOD     C318446   6.179  16.536   7.667  0.1143  0.4205  0.1621
24876DOD     C118447   8.527  22.327  13.926  0.1407  0.1980  0.0417
24876DOD     C218448   8.575  22.714  14.129 -0.1794  0.1476 -0.0027
24876DOD     C318449   8.709  23.086  14.437  0.1226  0.3447  0.0364
24877DOD     C118450  18.263   9.629   2.490 -0.1343  0.1232 -0.3277
24877DOD     C218451  18.065   9.616   2.102 -0.2803  0.2125 -0.0441
24877DOD     C318452  17.640   9.795   1.848 -0.1600  0.1381 -0.1788
24878DOD     C118453   2.501  23.716  21.836  0.2689 -0.1029 -0.1417
24878DOD     C218454   2.215  23.290  21.959  0.2579  0.0369 -0.2933
24878DOD     C318455   2.052  22.857  21.953  0.1392 -0.1266  0.0173
24879DOD     C118456  15.258  23.273  24.078 -0.0817 -0.0618 -0.3005
24879DOD     C218457  14.953  23.218  23.686  0.1253 -0.1113  0.1626
24879DOD     C318458  14.514  23.379  23.598  0.0283  0.0442  0.0070
24880DOD     C118459  27.956  20.841   4.034  0.3439  0.1116 -0.0534
24880DOD     C218460  28.318  20.953   3.817 -0.1163 -0.0043  0.2681
24880DOD     C318461  28.716  21.175   3.619  0.0313 -0.2539 -0.0844
24881DOD     C118462   6.243  27.856  25.219  0.2903 -0.1655 -0.2690
24881DOD     C218463   6.209  28.252  24.988 -0.1266 -0.2444  0.1359
24881DOD     C318464   6.102  28.737  24.985 -0.3952  0.0627  0.2480
24882DOD     C118465  13.146  17.017  15.167  0.1081 -0.2511 -0.0272
24882DOD     C218466  13.554  16.783  15.118  0.1712 -0.0477  0.0282
24882DOD     C318467  13.795  16.474  14.906 -0.0170  0.2463 -0.3308
24883DOD     C118468  19.107  18.964  24.766 -0.0810  0.2199 -0.4873
24883DOD     C218469  18.926  18.984  25.205 -0.2243 -0.1796 -0.1543
24883DOD     C318470  19.004  19.338  25.531  0.2121  0.0929  0.1129
24884DOD     C118471  16.023  25.031  15.763  0.0063  0.1496  0.1027
24884DOD     C218472  16.100  25.311  16.194  0.1621  0.0447  0.0023
24884DOD     C318473  16.077  25.740  16.453 -0.2978  0.0723 -0.4376
24885DOD     C118474  21.988  18.314   6.209 -0.0431  0.0487  0.1457
24885DOD     C218475  22.207  18.304   5.794 -0.2562 -0.0847 -0.0780
24885DOD     C318476  22.373  18.267   5.325  0.1240 -0.0263 -0.1047
24886DOD     C118477  27.054  23.696  23.903 -0.2426  0.3978  0.0875
24886DOD     C218478  27.482  23.754  24.028 -0.1778  0.3267 -0.3350
24886DOD     C318479  27.799  23.777  24.391 -0.0663 -0.0607 -0.0100
24887DOD     C118480  23.947  12.701  21.169  0.1130  0.3538  0.1165
24887DOD     C218481  24.229  12.424  20.917  0.2292 -0.2408 -0.0136
24887DOD     C318482  24.646  12.569  21.063  0.0332 -0.2376  0.2206
24888DOD     C118483  23.433   2.497  27.900  0.2970 -0.1562 -0.1767
24888DOD     C218484  23.328   2.050  28.062 -0.1719  0.3253 -0.0212
24888DOD     C318485  23.160   1.602  27.985  0.1331 -0.3460  0.3125
24889DOD     C118486   8.016  23.299   4.291 -0.1104  0.2341  0.1002
24889DOD     C218487   7.836  22.940   4.113  0.0730 -0.2121  0.0910
24889DOD     C318488   7.846  22.789   3.663 -0.2756 -0.1400 -0.1774
24890DOD     C118489   7.387  26.554  21.302 -0.2976  0.0181 -0.0864
24890DOD     C218490   7.179  26.296  20.972 -0.2491  0.1469 -0.0911
24890DOD     C318491   7.048  26.137  20.552 -0.3686  0.3377  0.2767
24891DOD     C118492   0.783   0.560  25.985 -0.0983  0.0090 -0.0346
24891DOD     C218493   1.119   0.815  25.902  0.1970 -0.1643 -0.2037
24891DOD     C318494   1.473   0.892  25.544 -0.1904 -0.0189 -0.1492
24892DOD     C118495  24.744  18.387  22.093 -0.0996 -0.2725 -0.0123
24892DOD     C218496  25.056  18.061  22.105  0.3297  0.1901  0.1250
24892DOD     C318497  25.314  17.679  22.296  0.1503  0.0622  0.1140
24893DOD     C118498  11.632  10.885  11.627 -0.1672 -0.3030  0.2153
24893DOD     C218499  11.984  10.717  11.423 -0.2768  0.1104  0.1646
24893DOD     C318500  11.974  10.449  11.022 -0.2564  0.1283 -0.1183
24894DOD     C118501  19.023   3.400  12.033  0.3068  0.3144  0.2953
24894DOD     C218502  19.254   3.776  11.843  0.0610 -0.3157  0.4698
24894DOD     C318503  19.485   4.027  11.547 -0.1569 -0.1542 -0.2751
24895DOD     C118504   8.859  30.015  10.174 -0.1525  0.2086 -0.0364
24895DOD     C218505   9.213  29.676  10.204 -0.0416 -0.0018  0.0767
24895DOD     C318506   9.159  29.369  10.519  0.0850 -0.2661 -0.2006
24896DOD     C118507   6.721   5.517  21.448  0.0057  0.1502  0.0294
24896DOD     C218508   6.372   5.222  21.471 -0.3841  0.2478  0.2918
24896DOD     C318509   6.302   4.778  21.670 -0.1764 -0.1296 -0.3060
24897DOD     C118510  17.665   8.585  29.148  0.0922 -0.0825  0.2337
24897DOD     C218511  18.014   8.874  29.246 -0.0598  0.1562  0.2480
24897DOD     C318512  18.365   9.269  29.279  0.4782  0.1012 -0.1006
24898DOD     C118513  17.078  19.685  22.957  0.1648 -0.0685  0.1202
24898DOD     C218514  17.229  20.159  23.007 -0.2668 -0.1937 -0.1943
24898DOD     C318515  17.683  20.275  22.979  0.1168 -0.3251  0.0502
24899DOD     C118516   6.351  11.769  27.855 -0.1684  0.0505 -0.2089
24899DOD     C218517   6.251  11.639  27.393 -0.1881  0.1630 -0.0261
24899DOD     C318518   6.298  11.262  27.151 -0.2210 -0.2345 -0.1231
24900DOD     C118519   0.936   5.426  10.387 -0.1589 -0.2081 -0.0966
24900DOD     C218520   0.899   5.848  10.395 -0.1981 -0.2029 -0.2232
24900DOD     C318521   0.594   6.121  10.665 -0.0265  0.0930  0.0472
24901DOD     C118522   5.618  18.880  22.025  0.1537  0.2089  0.0932
24901DOD     C218523   5.970  19.196  22.085 -0.0119 -0.0782  0.3181
24901DOD     C318524   6.389  19.319  21.973  0.0366  0.2029  0.2155
24902DOD     C118525   8.732  13.190  28.865 -0.2788 -0.0250  0.0717
24902DOD     C218526   8.373  13.355  29.044 -0.0907  0.1432 -0.1174
24902DOD     C318527   7.911  13.440  28.943 -0.1110  0.2440  0.2291
24903DOD     C118528  14.295  26.172  22.102  0.1089 -0.2922 -0.1920
24903DOD     C218529  14.119  25.770  22.046  0.0544 -0.0475  0.1127
24903DOD     C318530  14.209  25.305  22.159  0.1443 -0.0583  0.0282
24904DOD     C118531   7.538  16.070   6.567 -0.4241  0.2552  0.0142
24904DOD     C218532   7.492  15.925   6.999 -0.2494 -0.2815  0.2429
24904DOD     C318533   7.574  16.151   7.442 -0.0520  0.1203 -0.1204
24905DOD     C118534  29.443  21.777   3.580 -0.0041  0.0053 -0.0745
24905DOD     C218535  29.710  21.954   3.952  0.0087  0.1639 -0.0680
24905DOD     C318536  29.965  22.227   4.294 -0.1243 -0.1115 -0.2395
24906DOD     C118537  10.190  14.588  25.841  0.2054 -0.2911 -0.0678
24906DOD     C218538  10.184  14.597  25.399  0.0486  0.1144 -0.1570
24906DOD     C318539  10.007  14.673  24.967 -0.2530  0.0245  0.2598
24907DOD     C118540   2.848  16.549   4.579 -0.1083  0.1734 -0.2103
24907DOD     C218541   3.100  16.239   4.351 -0.0826  0.0963  0.0140
24907DOD     C318542   3.281  16.101   3.904 -0.1499 -0.6540 -0.1395
24908DOD     C118543   6.495  29.856  13.907  0.0227 -0.0942  0.0865
24908DOD     C218544   6.888  29.864  13.762  0.0776 -0.0537  0.1602
24908DOD     C318545   7.043  29.675  13.363 -0.1470 -0.2786  0.1827
24909DOD     C118546  29.436  20.929   3.433  0.2372 -0.0537  0.0053
24909DOD     C218547  29.571  21.039   3.853 -0.1943  0.4856 -0.1794
24909DOD     C318548  29.770  21.460   3.929 -0.0486 -0.0425 -0.0815
24910DOD     C118549  29.052  15.470  19.549  0.0322  0.1319  0.0150
24910DOD     C218550  28.605  15.326  19.445  0.0504 -0.0858 -0.0634
24910DOD     C318551  28.177  15.431  19.720 -0.1572  0.2511  0.1072
24911DOD     C118552  16.888  16.549  13.064  0.1123  0.0488 -0.2096
24911DOD     C218553  16.481  16.387  13.346 -0.2122 -0.2221  0.0346
24911DOD     C318554  16.249  16.582  13.675 -0.0261  0.2430 -0.1088
24912DOD     C118555  17.447  21.813   5.066 -0.2333  0.1135 -0.0146
24912DOD     C218556  17.324  22.009   5.471  0.2114 -0.1140  0.1841
24912DOD     C318557  17.529  21.925   5.947  0.0586  0.2931  0.1591
24913DOD     C118558  13.368  11.617  18.381  0.2009  0.2229  0.0209
24913DOD     C218559  13.223  11.515  17.888  0.0975  0.2072 -0.0088
24913DOD     C318560  13.596  11.544  17.586  0.1474 -0.3785 -0.0579
24914DOD     C118561   2.595   6.034  20.785 -0.0667  0.1257  0.1986
24914DOD     C218562   2.334   6.357  20.837  0.2071 -0.3274  0.0036
24914DOD     C318563   2.363   6.758  21.093  0.2586 -0.1158  0.2819
24915DOD     C118564  16.202   7.078  19.358 -0.0724  0.1229 -0.1994
24915DOD     C218565  16.494   7.334  19.651  0.3866 -0.1068  0.0738
24915DOD     C318566  16.356   7.571  19.988 -0.0004  0.0592 -0.1756
24916DOD     C118567   4.813   8.541  13.257  0.0416  0.0123  0.1155
24916DOD     C218568   5.010   8.934  13.331 -0.2140 -0.2110  0.0373
24916DOD     C318569   5.432   9.069  13.303  0.1749  0.3600 -0.1150
24917DOD     C118570  14.704   8.899   9.685  0.1699  0.0002  0.5282
24917DOD     C218571  14.379   9.008  10.000  0.3458  0.0123 -0.0647
24917DOD     C318572  13.984   9.137  10.199  0.1712 -0.2426 -0.1764
24918DOD     C118573   2.328  25.748  13.779 -0.1064 -0.0018  0.2935
24918DOD     C218574   2.452  26.191  13.814 -0.1616  0.0863  0.0944
24918DOD     C318575   2.620  26.594  14.016 -0.1744  0.2697 -0.2853
24919DOD     C118576   5.084  15.493   8.777 -0.0556 -0.1901  0.2102
24919DOD     C218577   4.720  15.763   8.765 -0.3175 -0.1059  0.2130
24919DOD     C318578   4.438  16.137   8.695  0.3477  0.1991  0.2194
24920DOD     C118579  28.238  20.839  16.505  0.2289 -0.4860  0.1057
24920DOD     C218580  28.457  20.415  16.436 -0.5065  0.2660  0.0995
24920DOD     C318581  28.582  19.990  16.323  0.0318  0.2468  0.3966
24921DOD     C118582   6.633  19.627  11.438  0.0495  0.1432 -0.0687
24921DOD     C218583   6.190  19.693  11.252  0.0074 -0.2776 -0.1453
24921DOD     C318584   5.834  19.496  11.009  0.0693 -0.0688 -0.2273
24922DOD     C118585   8.024  13.487  26.402  0.1527  0.0987 -0.0586
24922DOD     C218586   8.109  13.393  26.888  0.0647 -0.2416  0.3563
24922DOD     C318587   8.031  12.980  27.194 -0.0499 -0.2430 -0.2516
24923DOD     C118588  19.894   8.259  19.011  0.0771 -0.1843  0.1587
24923DOD     C218589  20.193   7.884  19.007 -0.1767  0.2368 -0.1669
24923DOD     C318590  20.234   7.434  19.087  0.0980 -0.0412 -0.2119
24924DOD     C118591   8.035  16.573  11.631  0.1953  0.2092 -0.0339
24924DOD     C218592   7.916  16.925  11.362  0.2331 -0.0926 -0.0102
24924DOD     C318593   7.781  17.221  11.059 -0.2086 -0.1058  0.0658
24925DOD     C118594  16.667   2.991  29.157  0.2180  0.1104 -0.1762
24925DOD     C218595  16.878   3.348  28.972 -0.2215 -0.3926  0.2968
24925DOD     C318596  17.084   3.745  29.075 -0.0225 -0.0959 -0.2141
24926DOD     C118597  12.846  18.211  21.043 -0.2226 -0.1117  0.1418
24926DOD     C218598  12.780  18.469  20.673  0.2323  0.0046 -0.0247
24926DOD     C318599  12.543  18.617  20.292  0.1084 -0.5077  0.3521
24927DOD     C118600  24.179  29.527   6.048 -0.2712  0.2768 -0.4499
24927DOD     C218601  24.525  29.838   6.216 -0.2442  0.2126  0.0948
24927DOD     C318602  24.770  30.192   6.154 -0.2958 -0.0960 -0.1102
24928DOD     C118603  23.641  11.448  27.230  0.0318 -0.0047  0.2766
24928DOD     C218604  23.816  11.168  27.502 -0.2714  0.1123  0.0409
24928DOD     C318605  24.093  11.288  27.895 -0.2760 -0.0780 -0.1689
24929DOD     C118606   3.053  16.588  17.731 -0.3262  0.0857 -0.0877
24929DOD     C218607   2.642  16.709  17.619 -0.0223 -0.2582 -0.2283
24929DOD     C318608   2.273  17.060  17.664 -0.0664  0.0298 -0.2624
24930DOD     C118609  10.728   0.693   0.131  0.0700 -0.0053  0.0674
24930DOD     C218610  10.581   1.092  30.203 -0.0104  0.0453 -0.1721
24930DOD     C318611  10.128   1.266  30.194  0.0110  0.0065 -0.2506
24931DOD     C118612  22.002  15.314  14.763  0.0177  0.2495  0.1572
24931DOD     C218613  22.135  14.922  15.013  0.2303 -0.3835 -0.1196
24931DOD     C318614  22.339  14.507  14.771 -0.1013 -0.0334  0.3676
24932DOD     C118615  28.544   8.898  16.713 -0.0793  0.3025 -0.0539
24932DOD     C218616  28.933   9.146  16.757  0.2671  0.0018  0.0912
24932DOD     C318617  29.286   9.348  17.048 -0.0277  0.1008  0.1088
24933DOD     C118618  21.530   7.194  15.602 -0.1254  0.0211  0.2425
24933DOD     C218619  21.206   7.426  15.832  0.0603 -0.1190  0.0473
24933DOD     C318620  20.823   7.605  15.623  0.2101 -0.1707  0.2766
24934DOD     C118621  25.723  11.607   9.755  0.0588  0.0560 -0.1062
24934DOD     C218622  25.721  11.906  10.146  0.2790 -0.0970 -0.0420
24934DOD     C318623  25.749  12.263  10.432 -0.1114 -0.2121  0.1498
24935DOD     C118624   3.160  13.273  17.669  0.2430 -0.1515  0.0738
24935DOD     C218625   3.168  13.606  17.988  0.2038 -0.0584  0.0555
24935DOD     C318626   3.270  13.804  18.344  0.0194  0.0483  0.2154
24936DOD     C118627   0.955  11.703   6.954 -0.0687  0.0896 -0.1984
24936DOD     C218628   1.020  11.716   6.500 -0.0322  0.0400 -0.2319
24936DOD     C318629   1.455  11.776   6.260 -0.0308  0.1033  0.0150
24937DOD     C118630   8.384   6.302   6.157 -0.1294  0.3076 -0.3977
24937DOD     C218631   8.453   6.209   6.629  0.0093 -0.1598 -0.0887
24937DOD     C318632   8.644   6.316   7.018  0.0215  0.0200  0.1479
24938DOD     C118633  14.929  13.532  24.747  0.0665 -0.2886  0.2794
24938DOD     C218634  14.799  13.879  25.007 -0.0223 -0.3199  0.0492
24938DOD     C318635  14.640  14.272  25.096  0.1995 -0.0070 -0.1689
24939DOD     C118636   6.013  18.248  26.331 -0.1981 -0.1701  0.0072
24939DOD     C218637   6.375  17.965  26.242  0.1930  0.2837 -0.1999
24939DOD     C318638   6.280  17.611  25.951  0.1177  0.0631 -0.0581
24940DOD     C118639  12.611  18.397  25.122 -0.0874 -0.1209  0.3246
24940DOD     C218640  12.731  18.534  25.538  0.3027  0.2286  0.0057
24940DOD     C318641  12.626  18.914  25.808  0.3785  0.1284 -0.3203
24941DOD     C118642   1.826  17.298  16.578 -0.0362 -0.1804  0.0051
24941DOD     C218643   1.901  17.729  16.351  0.3577  0.2905  0.2557
24941DOD     C318644   1.916  18.108  16.635 -0.2172 -0.1678  0.0383
24942DOD     C118645   4.488   6.152  30.211 -0.3842  0.1529  0.1167
24942DOD     C218646   4.751   6.238  29.872 -0.1034  0.0987 -0.1170
24942DOD     C318647   5.223   6.178  29.759  0.2543 -0.2801 -0.1062
24943DOD     C118648  27.422  26.473  22.232 -0.2119 -0.1627  0.0793
24943DOD     C218649  27.126  26.864  22.168  0.2406  0.1375 -0.3440
24943DOD     C318650  26.950  27.314  22.003  0.0186  0.1305  0.2609
24944DOD     C118651   4.275  27.381  13.329  0.2385 -0.2443  0.1359
24944DOD     C218652   4.406  27.251  12.920 -0.1346 -0.1630  0.4082
24944DOD     C318653   4.287  26.979  12.567  0.0236 -0.0240 -0.1162
24945DOD     C118654   8.508   5.894  11.759 -0.1328 -0.2638  0.2528
24945DOD     C218655   8.701   6.162  11.431 -0.0517 -0.1592 -0.2402
24945DOD     C318656   9.020   6.495  11.269 -0.2959 -0.0978  0.0847
24946DOD     C118657  28.514   9.736   1.324  0.2896 -0.2529 -0.2458
24946DOD     C218658  28.338  10.128   1.041  0.0476 -0.4491 -0.3228
24946DOD     C318659  28.151  10.287   0.616 -0.2572 -0.1492  0.0851
24947DOD     C118660   1.741  30.221  20.852 -0.0015 -0.0424 -0.1823
24947DOD     C218661   1.779  29.808  20.718  0.5085 -0.0902 -0.0211
24947DOD     C318662   1.918  29.366  20.756 -0.1983  0.1081 -0.1208
24948DOD     C118663  24.724  23.320  15.140  0.0342 -0.0489  0.1244
24948DOD     C218664  24.287  23.045  15.117  0.1875  0.0778 -0.2264
24948DOD     C318665  23.827  22.911  15.224 -0.1320 -0.0994  0.1450
24949DOD     C118666  18.813   8.424  29.363 -0.3663 -0.0969 -0.0724
24949DOD     C218667  18.703   7.915  29.366 -0.1409 -0.0484  0.2341
24949DOD     C318668  18.574   7.637  29.692 -0.0463  0.0506 -0.2229
24950DOD     C118669   1.540  22.473   3.888  0.1831  0.3091  0.1512
24950DOD     C218670   1.498  21.967   3.875  0.2857  0.1471  0.3337
24950DOD     C318671   1.502  21.480   3.837  0.0649 -0.2642 -0.1514
24951DOD     C118672  16.013  20.859   4.651 -0.0199  0.0593 -0.0139
24951DOD     C218673  15.620  20.693   4.847 -0.2697 -0.0763  0.2178
24951DOD     C318674  15.204  20.595   4.691 -0.0354 -0.1898 -0.0805
24952DOD     C118675   4.058  28.444  28.044 -0.1791  0.0617 -0.0396
24952DOD     C218676   3.832  28.044  28.025  0.4619 -0.1242 -0.1321
24952DOD     C318677   3.534  27.748  27.891  0.4499 -0.1087  0.0566
24953DOD     C118678   0.525   4.741  26.566 -0.0448  0.0185 -0.0399
24953DOD     C218679   0.766   4.436  26.810 -0.1264  0.1589  0.0763
24953DOD     C318680   0.907   4.631  27.191 -0.0259 -0.1360  0.0997
24954DOD     C118681   1.013   4.359   6.788  0.3630 -0.2337  0.2772
24954DOD     C218682   1.279   4.614   6.666 -0.1516  0.0717  0.2794
24954DOD     C318683   1.613   4.717   6.348  0.0131  0.2448  0.2536
24955DOD     C118684  23.464   4.012  29.452  0.0863  0.0319 -0.1645
24955DOD     C218685  23.344   3.758  29.824 -0.1934  0.1575  0.1603
24955DOD     C318686  22.929   3.574  30.107  0.2390  0.1744  0.0765
24956DOD     C118687  10.421  27.077  28.745 -0.0170 -0.3034  0.0848
24956DOD     C218688  10.835  27.176  28.798 -0.1616 -0.2578 -0.2163
24956DOD     C318689  11.212  26.911  28.631 -0.2205 -0.2355 -0.3882
24957DOD     C118690  13.983  30.126  20.016  0.4434 -0.0137  0.2254
24957DOD     C218691  14.328  29.829  19.915  0.1244 -0.1141  0.0782
24957DOD     C318692  14.775  29.824  19.819 -0.1329  0.2767  0.0743
24958DOD     C118693  22.872  27.748   4.167  0.3266  0.0103 -0.1677
24958DOD     C218694  23.168  28.050   4.156  0.1252  0.0181  0.0816
24958DOD     C318695  23.634  28.093   4.333  0.2868 -0.0161 -0.1155
24959DOD     C118696  22.067  16.099  16.399  0.2737 -0.1037  0.3050
24959DOD     C218697  21.974  16.426  16.652 -0.1318 -0.0905 -0.2605
24959DOD     C318698  21.748  16.656  17.025  0.2499 -0.1289 -0.0316
24960DOD     C118699  21.201  24.614   1.126  0.1881 -0.0899 -0.0418
24960DOD     C218700  21.402  24.542   0.754 -0.1184  0.0627  0.0520
24960DOD     C318701  21.251  24.820   0.408 -0.0244 -0.0692  0.0366
24961DOD     C118702  20.930   3.933  11.023  0.0113  0.1100 -0.0074
24961DOD     C218703  21.223   4.151  10.800  0.1873  0.2148  0.0306
24961DOD     C318704  21.626   4.366  10.972  0.1235 -0.0119 -0.3774
24962DOD     C118705  23.074   3.094  18.192 -0.0859 -0.1067 -0.1044
24962DOD     C218706  23.511   3.018  18.163  0.0113 -0.0823 -0.0150
24962DOD     C318707  23.887   2.807  18.313 -0.0788 -0.0099  0.0714
24963DOD     C118708   2.066   9.113   4.099 -0.0122  0.2086 -0.1776
24963DOD     C218709   2.083   8.686   4.035  0.4055 -0.3444 -0.0350
24963DOD     C318710   2.077   8.218   4.175 -0.0658  0.0004 -0.3389
24964DOD     C118711  27.434   5.646   0.140 -0.1318 -0.1121  0.0622
24964DOD     C218712  27.712   5.871   0.399  0.1665 -0.2146 -0.0410
24964DOD     C318713  28.153   5.925   0.288  0.1097  0.0961 -0.2068
24965DOD     C118714  14.190  27.568  27.082  0.1488 -0.2669  0.2504
24965DOD     C218715  14.381  27.407  26.618  0.2734 -0.4133 -0.0652
24965DOD     C318716  14.637  27.069  26.373  0.3486 -0.2196  0.0354
24966DOD     C118717  27.786   8.252  29.597  0.2184  0.1890  0.4732
24966DOD     C218718  27.567   8.225  29.112  0.2406  0.0760 -0.0085
24966DOD     C318719  27.227   8.492  28.901  0.0879 -0.0965 -0.1191
24967DOD     C118720  22.248   3.504  11.957 -0.0936  0.2914 -0.1601
24967DOD     C218721  22.256   3.665  12.393  0.3234  0.1118 -0.0370
24967DOD     C318722  22.139   4.062  12.646 -0.0016  0.0666  0.0561
24968DOD     C118723   1.728   0.264  24.687  0.0129  0.1540 -0.1687
24968DOD     C218724   2.132   0.056  24.870  0.0297  0.0043  0.0038
24968DOD     C318725   2.588   0.149  24.927  0.1275  0.1081 -0.0674
24969DOD     C118726  16.784  23.554  12.645 -0.2461 -0.3557  0.0766
24969DOD     C218727  16.359  23.549  12.424 -0.1023  0.2296 -0.2247
24969DOD     C318728  16.150  23.810  12.173  0.2449 -0.1719 -0.0974
24970DOD     C118729   1.447  24.578  24.170 -0.2015 -0.0674  0.2241
24970DOD     C218730   1.223  24.426  23.780  0.0955  0.1435 -0.0674
24970DOD     C318731   1.088  24.123  23.507 -0.0954 -0.1236  0.0536
24971DOD     C118732  10.460  17.037  21.770 -0.1360  0.1905  0.1522
24971DOD     C218733  10.317  16.696  22.052  0.1918  0.2258 -0.0521
24971DOD     C318734  10.408  16.510  22.422  0.1586 -0.1667 -0.1771
24972DOD     C118735   7.485   5.317  18.441  0.1826  0.1389  0.0186
24972DOD     C218736   7.205   4.988  18.348  0.1145  0.4809  0.4160
24972DOD     C318737   6.752   5.059  18.409  0.1478  0.3190 -0.0309
24973DOD     C118738  12.314   6.551  24.503  0.0202  0.1264  0.2095
24973DOD     C218739  12.690   6.711  24.744  0.1362 -0.0167 -0.1964
24973DOD     C318740  13.090   6.756  24.979  0.2244 -0.2435  0.3573
24974DOD     C118741  25.919   6.548  29.745  0.1954 -0.2262  0.0726
24974DOD     C218742  26.041   7.009  29.509  0.3122  0.4297  0.0635
24974DOD     C318743  25.899   7.465  29.578 -0.1224  0.2358 -0.0729
24975DOD     C118744   6.936  13.482   2.577  0.1060  0.0155  0.2230
24975DOD     C218745   6.732  13.039   2.665  0.1357 -0.1724  0.1494
24975DOD     C318746   6.555  12.632   2.772 -0.3879  0.0910  0.1065
24976DOD     C118747   8.892   5.039  21.626 -0.2353  0.3146 -0.1037
24976DOD     C218748   9.073   4.890  21.184 -0.0559 -0.1705  0.0686
24976DOD     C318749   9.243   4.706  20.764 -0.0591 -0.0890 -0.0673
24977DOD     C118750  28.821  20.792   4.553  0.4410 -0.2360  0.0360
24977DOD     C218751  28.836  21.228   4.531 -0.2205  0.4000 -0.0651
24977DOD     C318752  28.576  21.597   4.580 -0.1040  0.1206  0.3007
24978DOD     C118753  20.628  19.246  27.065 -0.0457  0.2245  0.1835
24978DOD     C218754  20.854  18.837  27.076  0.0251  0.1788 -0.1793
24978DOD     C318755  20.812  18.339  27.044 -0.1260 -0.1354  0.1781
24979DOD     C118756  17.220  24.743   2.529 -0.0882  0.0021 -0.0223
24979DOD     C218757  17.344  25.175   2.587  0.2497  0.0932  0.0906
24979DOD     C318758  17.345  25.541   2.290 -0.1008  0.1327  0.0354
24980DOD     C118759   5.857   1.399   2.092  0.1898 -0.0748 -0.2870
24980DOD     C218760   5.493   1.391   1.786  0.2626  0.1333  0.0527
24980DOD     C318761   5.390   1.451   1.275  0.0588 -0.1540 -0.0107
24981DOD     C118762  11.430  19.968   5.569  0.2856  0.1421  0.0289
24981DOD     C218763  11.267  20.367   5.845 -0.2166 -0.1697  0.0501
24981DOD     C318764  11.063  20.578   6.217  0.0900 -0.0748  0.0351
24982DOD     C118765  14.014   0.373  20.161  0.1183 -0.2013 -0.0792
24982DOD     C218766  14.321   0.133  19.857 -0.0437  0.2114 -0.1440
24982DOD     C318767  14.418   0.210  19.390  0.0831 -0.1072 -0.0432
24983DOD     C118768  23.462   8.751   0.266 -0.0672  0.1536  0.0883
24983DOD     C218769  23.301   8.933   0.682  0.1276 -0.0726 -0.0345
24983DOD     C318770  23.095   9.287   0.802  0.0120  0.1941  0.0015
24984DOD     C118771  18.143  15.813   8.904  0.3747  0.0017 -0.0427
24984DOD     C218772  17.885  15.673   9.216 -0.0908 -0.0435 -0.2121
24984DOD     C318773  17.499  15.492   9.421 -0.4779 -0.4316  0.0991
24985DOD     C118774  26.749  20.003  21.994 -0.0964  0.1542 -0.0584
24985DOD     C218775  27.080  20.199  21.752  0.1339 -0.1643  0.0224
24985DOD     C318776  27.053  20.410  21.371  0.0488 -0.0048  0.0449
24986DOD     C118777  28.075   4.501  23.622  0.0134  0.0326 -0.0156
24986DOD     C218778  27.784   4.123  23.627  0.1008  0.1462  0.1177
24986DOD     C318779  27.408   3.956  23.848 -0.1082  0.1040  0.0731
24987DOD     C118780   5.787   8.537  15.908  0.1545  0.0479 -0.0226
24987DOD     C218781   6.019   8.740  16.246  0.1008 -0.0270  0.0123
24987DOD     C318782   6.176   9.210  16.181 -0.1111  0.2533  0.0007
24988DOD     C118783  11.618  26.885  26.512  0.1155  0.0426  0.0606
24988DOD     C218784  11.998  26.943  26.671  0.0381 -0.0663 -0.3144
24988DOD     C318785  12.452  27.068  26.474  0.0327  0.1320 -0.0482
24989DOD     C118786   7.955   6.197  16.731  0.4299  0.1564  0.0636
24989DOD     C218787   8.275   5.957  16.978  0.0337  0.0045 -0.1132
24989DOD     C318788   8.320   5.663  17.313  0.0221  0.1429  0.1967
24990DOD     C118789  11.144  26.743  17.346  0.0819  0.0502  0.1009
24990DOD     C218790  11.408  26.358  17.256 -0.1024  0.0046 -0.1046
24990DOD     C318791  11.773  26.181  17.511 -0.1152 -0.0037  0.2059
24991DOD     C118792  18.343  23.101  27.240 -0.0328  0.2622 -0.1945
24991DOD     C218793  18.342  23.549  27.051  0.2117 -0.1413  0.2134
24991DOD     C318794  18.143  23.927  26.890  0.3940 -0.2033  0.0042
24992DOD     C118795  28.345   1.636   6.036 -0.3498  0.0568  0.0438
24992DOD     C218796  28.291   1.968   5.712 -0.0687 -0.1156 -0.3815
24992DOD     C318797  28.172   2.297   5.369 -0.2614  0.2594  0.1497
24993DOD     C118798  28.342  29.398   5.131  0.0551 -0.1314  0.0411
24993DOD     C218799  27.839  29.377   5.098  0.0088 -0.2683  0.0357
24993DOD     C318800  27.420  29.365   5.066 -0.3216  0.0197 -0.3107
24994DOD     C118801  22.236  27.083   2.581 -0.1666  0.0684  0.2297
24994DOD     C218802  22.376  27.524   2.491 -0.2645  0.0164  0.0641
24994DOD     C318803  22.824  27.763   2.399  0.1253  0.0225  0.0188
24995DOD     C118804  15.712  26.770  17.126 -0.0198  0.1071 -0.1735
24995DOD     C218805  16.136  26.845  17.281  0.1717  0.1279 -0.0085
24995DOD     C318806  16.378  27.203  17.433 -0.1935 -0.2486 -0.0924
24996DOD     C118807   2.272  20.775  23.364  0.1854 -0.0761 -0.1104
24996DOD     C218808   2.374  21.088  23.662 -0.0253 -0.0768  0.2536
24996DOD     C318809   2.653  21.348  23.802 -0.5714 -0.1567 -0.0105
24997DOD     C118810   7.305  10.765   7.499 -0.1167  0.2789  0.0846
24997DOD     C218811   7.297  11.087   7.203 -0.2002 -0.5422 -0.3002
24997DOD     C318812   7.409  11.522   7.081  0.0465 -0.2380 -0.1293
24998DOD     C118813   7.093   6.117  14.091 -0.0338 -0.1996 -0.3091
24998DOD     C218814   7.042   6.132  13.640  0.2249  0.0500 -0.0911
24998DOD     C318815   7.098   6.365  13.289  0.1927  0.1687 -0.3565
24999DOD     C118816  26.093  17.628  16.159 -0.0361 -0.2434  0.2113
24999DOD     C218817  26.104  18.090  16.097  0.0064 -0.0365  0.3318
24999DOD     C318818  26.022  18.543  16.002  0.2561  0.3070  0.2467
25000DOD     C118819  16.003  23.526  11.728 -0.1797  0.1739  0.1016
25000DOD     C218820  16.384  23.434  11.913 -0.1278 -0.1397  0.2777
25000DOD     C318821  16.759  23.521  12.151 -0.1808 -0.1666  0.0449
25001DOD     C118822  21.097  14.211  27.701  0.1456  0.2238  0.3755
25001DOD     C218823  20.780  13.960  27.537  0.0500  0.0338 -0.0285
25001DOD     C318824  20.622  13.708  27.199  0.2266  0.2577  0.1020
25002DOD     C118825   7.251   6.011  17.787  0.2063  0.1605  0.1531
25002DOD     C218826   7.094   5.639  17.941  0.0526 -0.3793  0.1719
25002DOD     C318827   6.998   5.470  18.343 -0.0708  0.1819  0.1321
25003DOD     C118828   2.365   2.916   5.723  0.0521 -0.0400  0.0324
25003DOD     C218829   1.945   2.745   5.870  0.0341 -0.1273 -0.0375
25003DOD     C318830   1.714   2.902   6.261 -0.2502  0.2860  0.2483
25004DOD     C118831  27.496  10.471  14.095 -0.4623 -0.1061 -0.0127
25004DOD     C218832  27.648  10.891  14.213  0.1495 -0.1565 -0.2714
25004DOD     C318833  27.783  11.331  14.224 -0.1406  0.0671  0.1702
25005DOD     C118834   9.433  25.474   2.701 -0.2560  0.0801  0.2537
25005DOD     C218835   9.025  25.548   2.811 -0.0041 -0.5574 -0.0412
25005DOD     C318836   8.631  25.657   3.094  0.1219  0.1469 -0.2082
25006DOD     C118837  25.653   1.388  27.539  0.1486  0.0865 -0.1073
25006DOD     C218838  25.864   1.464  27.898 -0.1849 -0.0838  0.1328
25006DOD     C318839  26.184   1.444  28.199 -0.2929 -0.0262 -0.2786
25007DOD     C118840  25.037  12.770  22.059  0.1132 -0.0230  0.0510
25007DOD     C218841  25.003  13.053  21.722 -0.2127  0.3285  0.2180
25007DOD     C318842  24.988  13.493  21.591 -0.2752  0.0964 -0.1641
25008DOD     C118843   2.323  26.089   5.605  0.1236  0.0194 -0.0338
25008DOD     C218844   2.601  25.807   5.456  0.0083  0.1567  0.0076
25008DOD     C318845   3.051  25.592   5.434 -0.0123 -0.1889  0.0482
25009DOD     C118846  21.825  12.018  20.964  0.0183  0.1308  0.1273
25009DOD     C218847  21.451  12.029  20.644  0.0919  0.0834 -0.0211
25009DOD     C318848  21.017  12.265  20.695  0.3486  0.1880  0.0552
25010DOD     C118849  10.406  12.072   9.662 -0.0784 -0.1623  0.1793
25010DOD     C218850  10.841  12.140   9.888 -0.3765  0.1446 -0.1012
25010DOD     C318851  11.211  11.973  10.137 -0.0889 -0.0958  0.1983
25011DOD     C118852   1.425  19.226  18.685  0.0761 -0.2659 -0.0884
25011DOD     C218853   1.719  19.568  18.790 -0.2317  0.0849 -0.1891
25011DOD     C318854   2.219  19.602  18.715  0.0632  0.3124  0.0289
25012DOD     C118855  19.326  14.914   6.392 -0.1546  0.2334 -0.0331
25012DOD     C218856  19.004  14.757   6.610  0.0417 -0.0624  0.0666
25012DOD     C318857  18.739  14.342   6.660 -0.1754 -0.1045 -0.1211
25013DOD     C118858  18.485  22.384  13.139 -0.0460 -0.2704  0.1186
25013DOD     C218859  18.500  21.986  12.946  0.0230 -0.1424  0.1739
25013DOD     C318860  18.129  21.691  12.962 -0.2331 -0.0419 -0.3588
25014DOD     C118861  25.242  12.357  10.513  0.1373  0.1510 -0.2041
25014DOD     C218862  25.383  12.290  10.057  0.0270 -0.1493 -0.0648
25014DOD     C318863  25.681  12.142   9.690  0.1232  0.1622  0.1467
25015DOD     C118864  16.224  26.093  15.511  0.1532  0.0938  0.0067
25015DOD     C218865  16.415  25.824  15.240 -0.1261 -0.1528  0.2035
25015DOD     C318866  16.329  25.395  15.070 -0.0846 -0.3613  0.0071
25016DOD     C118867   2.986   5.482  26.817  0.3004 -0.0170  0.2437
25016DOD     C218868   2.793   5.369  26.409  0.1329  0.2745 -0.0303
25016DOD     C318869   2.382   5.349  26.129 -0.1583  0.0517 -0.0366
25017DOD     C118870   5.661  14.982   9.544  0.0840 -0.1275 -0.3165
25017DOD     C218871   6.069  14.696   9.609  0.0056  0.0213  0.1385
25017DOD     C318872   6.523  14.736   9.455 -0.1764 -0.4819  0.0044
25018DOD     C118873  10.837  25.474  18.829  0.2003  0.0364  0.0541
25018DOD     C218874  10.385  25.409  18.987 -0.1494  0.3243  0.0511
25018DOD     C318875  10.109  25.269  19.350 -0.2562  0.2235 -0.0420
25019DOD     C118876  18.876  23.402   0.968  0.0784 -0.1369 -0.0983
25019DOD     C218877  18.487  23.119   0.852 -0.0480  0.3052  0.2202
25019DOD     C318878  18.091  23.262   0.691 -0.1359  0.0859  0.0569
25020DOD     C118879  20.273   5.943  10.943  0.5476 -0.0834 -0.2579
25020DOD     C218880  20.553   5.935  10.543 -0.2250  0.0662 -0.0552
25020DOD     C318881  20.685   5.563  10.350  0.0442 -0.1661  0.0855
25021DOD     C118882  26.001   9.818   3.163  0.0427  0.1028  0.2877
25021DOD     C218883  26.436  10.033   3.071 -0.0723 -0.3127 -0.1578
25021DOD     C318884  26.599  10.461   3.029 -0.2062  0.0101  0.0074
25022DOD     C118885  11.057  26.238  10.123  0.0869 -0.0953  0.1926
25022DOD     C218886  11.049  26.712  10.211  0.0604  0.1277  0.2881
25022DOD     C318887  11.510  26.913  10.296  0.4335  0.1102  0.1270
25023DOD     C118888   1.944  25.861   7.196  0.0567  0.4501 -0.1142
25023DOD     C218889   2.247  26.091   6.933  0.0111  0.2165  0.1709
25023DOD     C318890   2.399  26.096   6.530 -0.0252  0.1058  0.6055
25024DOD     C118891  28.841   0.638  20.838  0.1465 -0.1220 -0.1642
25024DOD     C218892  28.531   0.712  20.532 -0.0316  0.2679  0.0290
25024DOD     C318893  28.510   1.024  20.150  0.0109 -0.0043  0.0382
25025DOD     C118894  17.015  11.758  12.124 -0.0669 -0.0594  0.2242
25025DOD     C218895  17.105  11.302  12.182  0.1103 -0.0993  0.0236
25025DOD     C318896  17.003  10.876  12.056  0.3166 -0.3337  0.3503
25026DOD     C118897  25.854  16.246   2.041  0.0842  0.1161 -0.1074
25026DOD     C218898  25.614  16.193   2.438  0.0739  0.2048 -0.0679
25026DOD     C318899  25.332  15.824   2.607  0.0346  0.1450  0.2630
25027DOD     C118900  24.926   9.592  10.941 -0.1018 -0.1357 -0.0390
25027DOD     C218901  24.518   9.565  10.781  0.3616 -0.2712  0.2812
25027DOD     C318902  24.288   9.580  10.391 -0.0052  0.2103  0.0947
25028DOD     C118903   4.379   0.435  15.772  0.0925  0.0602  0.0426
25028DOD     C218904   4.728   0.721  15.834 -0.2969  0.0339 -0.1928
25028DOD     C318905   5.200   0.791  15.817  0.4723 -0.1308  0.1278
25029DOD     C118906  25.939   6.809  20.068 -0.2433 -0.0130  0.3504
25029DOD     C218907  25.955   6.927  19.650 -0.3273  0.1176 -0.0104
25029DOD     C318908  25.763   7.120  19.293  0.2312 -0.1536 -0.0860
25030DOD     C118909  10.029   7.944   7.037 -0.1550  0.0600  0.1568
25030DOD     C218910  10.447   7.855   7.303 -0.3608 -0.2870 -0.2638
25030DOD     C318911  10.790   7.923   7.652 -0.1660  0.2039 -0.0680
25031DOD     C118912   5.860  11.621   7.642  0.0248 -0.4680  0.0379
25031DOD     C218913   5.746  11.699   7.232 -0.2138 -0.0174  0.1295
25031DOD     C318914   5.538  12.113   7.088 -0.0612 -0.0361  0.3271
25032DOD     C118915  14.611  29.399  26.827 -0.2146  0.1311  0.2802
25032DOD     C218916  14.361  28.974  26.762 -0.2024 -0.3753  0.0091
25032DOD     C318917  14.289  28.581  26.791 -0.0559 -0.0450 -0.3143
25033DOD     C118918  13.991  27.594  16.329  0.1236 -0.0272 -0.2359
25033DOD     C218919  13.707  27.424  16.699 -0.0085  0.1712 -0.2543
25033DOD     C318920  13.341  27.351  16.883  0.0462 -0.3029  0.0584
25034DOD     C118921  14.642  29.229   5.639 -0.0511  0.3634  0.0715
25034DOD     C218922  14.978  29.249   6.017  0.1507  0.1195 -0.2968
25034DOD     C318923  15.199  29.225   6.378  0.1798 -0.0935 -0.3805
25035DOD     C118924   7.159  26.344  28.778 -0.0856  0.4796  0.2270
25035DOD     C218925   7.355  26.063  28.465  0.2201  0.1094 -0.0534
25035DOD     C318926   7.817  26.001  28.439 -0.1559 -0.0541  0.0646
25036DOD     C118927   0.277  10.306  30.279 -0.0755 -0.2452 -0.1768
25036DOD     C218928   0.202   9.860  30.084  0.1325 -0.2822  0.2216
25036DOD     C318929   0.489   9.515  30.151 -0.0834  0.0298  0.0401
25037DOD     C118930  14.656  23.672   1.915  0.2095 -0.2409  0.2311
25037DOD     C218931  14.360  23.380   2.101  0.1915 -0.1256  0.0408
25037DOD     C318932  14.123  23.066   2.385 -0.0572  0.0716 -0.0089
25038DOD     C118933  12.137  18.649  14.965 -0.0645  0.1246  0.1725
25038DOD     C218934  12.528  18.800  15.122  0.0265 -0.1328 -0.0379
25038DOD     C318935  12.837  18.594  15.373 -0.3078  0.0715  0.0428
25039DOD     C118936  11.855  28.955  28.697 -0.2501  0.1015 -0.1476
25039DOD     C218937  12.204  29.297  28.687 -0.0556  0.2158 -0.0188
25039DOD     C318938  12.640  29.520  28.726  0.0591  0.0907 -0.0259
25040DOD     C118939  27.668   2.736  30.083  0.0092  0.4610  0.3011
25040DOD     C218940  27.772   3.216  30.187 -0.0829 -0.0749 -0.1785
25040DOD     C318941  28.119   3.459   0.052 -0.0836 -0.2513 -0.0352
25041DOD     C118942   8.228  18.323   3.246 -0.2276 -0.0665  0.0613
25041DOD     C218943   7.879  18.360   2.924 -0.0003 -0.2875  0.1266
25041DOD     C318944   7.892  18.658   2.513 -0.1366  0.3838  0.0213
25042DOD     C118945   3.550  26.639  17.510  0.0565 -0.2002 -0.2017
25042DOD     C218946   3.315  26.395  17.186 -0.0512 -0.1180 -0.1085
25042DOD     C318947   2.909  26.165  17.094 -0.2435  0.0939 -0.0286
25043DOD     C118948   2.969  16.659  21.386  0.0022  0.0091 -0.3886
25043DOD     C218949   3.369  16.374  21.292 -0.0363  0.1830 -0.3962
25043DOD     C318950   3.739  16.459  21.000 -0.0100 -0.1121  0.0788
25044DOD     C118951  20.821  27.884  12.841  0.0982 -0.0752  0.3694
25044DOD     C218952  20.458  28.023  12.563 -0.4045 -0.2139  0.1697
25044DOD     C318953  20.279  28.117  12.141  0.1582  0.0474  0.0264
25045DOD     C118954  12.903  27.535  27.222 -0.2110  0.1236  0.5770
25045DOD     C218955  12.923  27.900  26.896  0.2167 -0.3936 -0.1136
25045DOD     C318956  12.984  27.736  26.481  0.0347 -0.1670  0.2881
25046DOD     C118957  29.743   4.928  29.069  0.0640 -0.0948  0.2384
25046DOD     C218958  29.872   5.381  29.143  0.3323 -0.0537  0.2097
25046DOD     C318959  29.966   5.804  29.301 -0.1512 -0.0852  0.0190
25047DOD     C118960  10.609   0.974  15.914 -0.0448 -0.3659  0.2597
25047DOD     C218961  10.938   1.170  16.134  0.2233  0.3746  0.2296
25047DOD     C318962  11.177   1.585  16.188  0.1328  0.2328  0.1385
25048DOD     C118963  11.025  18.395   9.530 -0.2156  0.0949  0.1150
25048DOD     C218964  11.156  18.417   9.996  0.1269 -0.0864 -0.1748
25048DOD     C318965  11.367  18.280  10.388 -0.6210 -0.0024  0.1008
25049DOD     C118966   3.577   7.008  25.557 -0.2511  0.1252  0.1106
25049DOD     C218967   4.038   7.134  25.575 -0.1264 -0.2761 -0.0821
25049DOD     C318968   4.481   6.953  25.518  0.2104  0.2406 -0.1914
25050DOD     C118969   4.278   7.059   0.617 -0.0418 -0.0527 -0.2582
25050DOD     C218970   4.502   6.873   0.232 -0.3463  0.1146  0.1031
25050DOD     C318971   4.638   6.650  30.169  0.0106  0.2519  0.0329
25051DOD     C118972  20.249  28.857  24.661  0.0269 -0.0065  0.1979
25051DOD     C218973  20.543  28.640  24.972  0.1703 -0.2160 -0.1220
25051DOD     C318974  20.980  28.646  25.149  0.3827  0.0160  0.2433
25052DOD     C118975  21.823   7.331   4.147  0.0798  0.1606 -0.0783
25052DOD     C218976  21.687   7.621   3.775  0.2503 -0.0077  0.1582
25052DOD     C318977  21.873   7.780   3.395  0.0705 -0.0248  0.1418
25053DOD     C118978  17.988  18.328  26.048 -0.0891 -0.1537  0.1198
25053DOD     C218979  18.094  17.877  26.023 -0.0483  0.2448 -0.0933
25053DOD     C318980  18.471  17.688  25.807 -0.0133 -0.0913  0.0444
25054DOD     C118981   8.138  28.021   1.942 -0.0316  0.0484 -0.1268
25054DOD     C218982   8.430  27.668   2.003 -0.1107  0.2032  0.0853
25054DOD     C318983   8.827  27.418   1.976  0.1298 -0.2927 -0.0007
25055DOD     C118984  11.238  21.334   3.841  0.0482 -0.0921  0.0863
25055DOD     C218985  11.266  21.766   3.902  0.2771 -0.3716 -0.1420
25055DOD     C318986  11.328  22.192   3.680 -0.0018 -0.1361 -0.4771
25056DOD     C118987   7.000  28.453  17.451 -0.0016 -0.0109  0.1026
25056DOD     C218988   6.597  28.253  17.391 -0.1611 -0.2661  0.0406
25056DOD     C318989   6.134  28.379  17.320 -0.0867  0.2830 -0.1709
25057DOD     C118990  22.540   1.653  29.804  0.1138 -0.1277  0.0000
25057DOD     C218991  22.187   1.392  29.700  0.1539 -0.1338  0.2415
25057DOD     C318992  22.108   1.030  29.549 -0.2389 -0.0064 -0.2447
25058DOD     C118993   6.723  13.171  23.879 -0.0381 -0.1719  0.0212
25058DOD     C218994   6.991  12.825  23.942 -0.1399  0.3113  0.0978
25058DOD     C318995   6.889  12.368  24.021 -0.0142  0.3210  0.0161
25059DOD     C118996   5.151   8.852  27.109 -0.1139 -0.0722 -0.0808
25059DOD     C218997   5.081   9.290  27.303 -0.0990  0.0938  0.0344
25059DOD     C318998   5.004   9.559  27.637 -0.1145 -0.3232  0.1228
25060DOD     C118999  23.154   8.039   5.195 -0.2994 -0.0671  0.1911
25060DOD     C219000  22.695   8.064   5.134  0.0049  0.0928  0.0543
25060DOD     C319001  22.282   7.855   5.284  0.0717 -0.0002  0.0251
25061DOD     C119002  24.637  29.948  12.767 -0.3521  0.2564  0.0145
25061DOD     C219003  24.214  29.819  12.688 -0.1931 -0.2363 -0.2770
25061DOD     C319004  23.858  29.532  12.504  0.2061 -0.0305  0.1281
25062DOD     C119005  27.435   1.967   5.782 -0.0284 -0.0434  0.1165
25062DOD     C219006  27.418   2.151   5.361  0.1014  0.1605 -0.2039
25062DOD     C319007  27.174   2.182   4.973 -0.1187 -0.1693  0.0184
25063DOD     C119008   4.430  24.368  25.478 -0.0338 -0.0369 -0.1686
25063DOD     C219009   4.240  24.181  25.900 -0.2372 -0.1245  0.3209
25063DOD     C319010   4.002  23.802  26.057  0.0117 -0.2531  0.3405
25064DOD     C119011   4.180  20.594  15.790  0.0579 -0.0324 -0.3196
25064DOD     C219012   4.455  20.203  15.793  0.0425 -0.1577  0.1370
25064DOD     C319013   4.734  20.201  15.452  0.1025 -0.0370 -0.3109
25065DOD     C119014  24.783  19.250  13.044  0.2020 -0.4697 -0.0080
25065DOD     C219015  24.363  19.094  12.993  0.3004  0.0480  0.1071
25065DOD     C319016  23.930  19.341  12.945  0.1902  0.1358  0.0985
25066DOD     C119017  26.389   9.202  29.133  0.0745  0.2419  0.2443
25066DOD     C219018  26.288   9.592  29.215  0.0021  0.1010 -0.1115
25066DOD     C319019  26.232   9.985  29.442 -0.2573  0.1177 -0.4400
25067DOD     C119020   8.440  18.706  29.792  0.0776  0.0261  0.2037
25067DOD     C219021   8.917  18.734  29.866 -0.0431  0.1115  0.0945
25067DOD     C319022   9.292  18.497  30.038 -0.2840  0.0586 -0.0463
25068DOD     C119023  16.474   9.094  17.857 -0.0471 -0.0536 -0.2957
25068DOD     C219024  16.239   9.426  18.025 -0.0342  0.1756 -0.1388
25068DOD     C319025  16.007   9.803  17.922 -0.0267  0.0707 -0.1009
25069DOD     C119026  15.414   7.751  13.244  0.0914  0.0759 -0.1099
25069DOD     C219027  15.359   7.546  12.779 -0.0875  0.2957  0.0200
25069DOD     C319028  15.026   7.392  12.443  0.1010 -0.2003  0.0809
25070DOD     C119029  19.767  20.313  13.523  0.0202 -0.1001 -0.1300
25070DOD     C219030  19.363  20.096  13.369 -0.3134 -0.1120  0.0285
25070DOD     C319031  19.167  19.704  13.401  0.1126 -0.0825 -0.4603
25071DOD     C119032  11.342  15.413   4.514 -0.2885  0.0842 -0.0738
25071DOD     C219033  11.705  15.766   4.563  0.3553  0.0821  0.1171
25071DOD     C319034  12.081  16.009   4.486 -0.1619 -0.1916 -0.0967
25072DOD     C119035   6.877  27.113  19.984  0.1311 -0.0437 -0.1106
25072DOD     C219036   7.058  27.132  19.587 -0.3283 -0.1107  0.2680
25072DOD     C319037   7.373  27.169  19.201  0.2470  0.1258  0.2021
25073DOD     C119038   9.774  24.410   9.455  0.1893  0.0169 -0.0430
25073DOD     C219039   9.877  24.667   9.087  0.0027  0.5710 -0.0748
25073DOD     C319040  10.187  24.716   8.718 -0.1513 -0.2787  0.2970
25074DOD     C119041   5.210  24.203  25.053  0.1788 -0.0334  0.0223
25074DOD     C219042   5.050  24.495  24.703 -0.0057  0.2287  0.0475
25074DOD     C319043   5.003  24.944  24.646  0.1487  0.1301  0.2860
25075DOD     C119044  20.825   7.859  11.255  0.1853  0.1113 -0.0901
25075DOD     C219045  20.659   8.305  11.305  0.0837  0.1003  0.2808
25075DOD     C319046  20.487   8.736  11.304  0.1217 -0.3211 -0.1746
25076DOD     C119047   1.503  24.703  21.623 -0.1541 -0.1796  0.0424
25076DOD     C219048   1.407  24.692  22.087  0.0231 -0.2389  0.0907
25076DOD     C319049   1.510  24.580  22.481 -0.0154 -0.2584  0.3971
25077DOD     C119050   8.566  13.149  26.558  0.0548  0.0050 -0.3450
25077DOD     C219051   8.655  13.084  26.115 -0.2231 -0.0842 -0.1826
25077DOD     C319052   9.036  13.076  25.888 -0.0226  0.0371 -0.1540
25078DOD     C119053  28.253   4.479  14.368 -0.1222  0.3289 -0.2584
25078DOD     C219054  28.260   4.707  13.991  0.2701  0.3176  0.0010
25078DOD     C319055  28.149   5.018  13.666  0.0453  0.0678  0.0420
25079DOD     C119056  29.329   3.239  14.131  0.0958 -0.3619  0.0119
25079DOD     C219057  29.795   3.262  14.333  0.0818 -0.0200 -0.1632
25079DOD     C319058  30.169   3.228  14.617  0.1037  0.1390  0.2063
25080DOD     C119059   4.659  14.095  27.298  0.0511  0.2157 -0.2508
25080DOD     C219060   4.310  13.932  27.086  0.2280 -0.0121 -0.0367
25080DOD     C319061   3.796  13.935  27.039  0.0067 -0.1249 -0.0584
25081DOD     C119062  27.380  11.291   0.443 -0.0038  0.1952 -0.0473
25081DOD     C219063  26.992  11.315   0.711 -0.2616  0.3181 -0.0483
25081DOD     C319064  26.540  11.308   0.839  0.0535  0.1616 -0.1114
25082DOD     C119065   1.054  29.049  18.795 -0.2940 -0.3261  0.1132
25082DOD     C219066   0.783  28.936  19.165 -0.0925 -0.5047 -0.2155
25082DOD     C319067   0.551  28.498  19.139 -0.0048 -0.0495 -0.0296
25083DOD     C119068   9.136  24.306   8.460  0.0719  0.3516  0.0367
25083DOD     C219069   8.853  24.689   8.555 -0.1179  0.0941  0.1227
25083DOD     C319070   8.487  24.679   8.843 -0.0654 -0.1048 -0.1478
25084DOD     C119071  16.010  26.192   7.053 -0.0774  0.0582 -0.1477
25084DOD     C219072  16.403  26.476   6.974  0.1928  0.1031  0.1165
25084DOD     C319073  16.704  26.699   7.261  0.2182 -0.1949  0.1824
25085DOD     C119074  18.482  16.245  15.809  0.0696 -0.0835 -0.2177
25085DOD     C219075  18.781  16.522  16.053  0.0932 -0.0879  0.0144
25085DOD     C319076  19.002  16.674  16.464  0.2356  0.0094  0.2772
25086DOD     C119077  13.818  13.047  16.053  0.2414 -0.3124 -0.1592
25086DOD     C219078  13.494  12.805  15.872  0.0754 -0.0716  0.3048
25086DOD     C319079  13.351  12.375  15.724 -0.2473 -0.0313 -0.2237
25087DOD     C119080  25.003  26.578  28.249 -0.1650  0.1164  0.2418
25087DOD     C219081  24.715  26.223  28.436  0.3433 -0.1637  0.0498
25087DOD     C319082  24.486  25.852  28.482  0.0071  0.1506 -0.0767
25088DOD     C119083  14.293   6.475  24.889  0.1384 -0.2662  0.0916
25088DOD     C219084  14.325   5.975  24.860  0.1005  0.0745  0.2530
25088DOD     C319085  14.297   5.506  25.057  0.1984  0.0850 -0.0664
25089DOD     C119086  22.902  11.186  20.294 -0.1063  0.1825  0.0113
25089DOD     C219087  22.780  10.766  20.433  0.2143 -0.2665 -0.0469
25089DOD     C319088  22.939  10.428  20.692 -0.2704  0.1447  0.1525
25090DOD     C119089  20.832  10.697  26.928 -0.1411  0.3440 -0.1121
25090DOD     C219090  20.616  10.866  26.571  0.3140  0.1122  0.0286
25090DOD     C319091  20.218  11.002  26.273 -0.1114  0.0611  0.6044
25091DOD     C119092  22.734   3.479   0.360 -0.2755  0.2336  0.2520
25091DOD     C219093  22.526   3.281  30.311  0.3942 -0.3384 -0.1720
25091DOD     C319094  22.625   3.093  29.885 -0.0292 -0.1290  0.1281
25092DOD     C119095   8.838   1.271  28.104  0.1347  0.0300  0.3415
25092DOD     C219096   9.068   1.000  27.777  0.0924 -0.1644 -0.4131
25092DOD     C319097   9.510   0.932  27.806  0.3450 -0.1241  0.0324
25093DOD     C119098  11.903  10.801  14.366  0.0330  0.0962 -0.0695
25093DOD     C219099  11.952  10.974  13.912 -0.1589 -0.0665 -0.2169
25093DOD     C319100  11.884  11.354  13.639  0.0219 -0.0808  0.0115
25094DOD     C119101  10.115   1.028  25.289  0.4417  0.3271 -0.1581
25094DOD     C219102   9.731   0.872  25.593  0.2472  0.2034  0.1287
25094DOD     C319103   9.746   0.735  26.022  0.1110  0.2307 -0.2049
25095DOD     C119104  15.339   7.123  17.014 -0.2898 -0.1588 -0.0243
25095DOD     C219105  15.092   7.467  16.960  0.0041 -0.0868  0.1063
25095DOD     C319106  14.946   7.848  17.146  0.0572  0.0975 -0.0932
25096DOD     C119107  27.367  25.402  17.592  0.0990  0.2122 -0.0501
25096DOD     C219108  27.697  25.145  17.382 -0.0784  0.0766  0.0803
25096DOD     C319109  27.956  25.371  17.071  0.0573  0.0825 -0.2355
25097DOD     C119110  20.507  19.536  15.182  0.0500  0.1575 -0.2934
25097DOD     C219111  20.132  19.862  15.271 -0.3330  0.1475 -0.0485
25097DOD     C319112  19.717  19.860  15.438 -0.1065 -0.4106 -0.1168
25098DOD     C119113   6.700   2.067   7.970 -0.0051  0.2614  0.1309
25098DOD     C219114   6.418   1.832   8.284  0.0873 -0.0176  0.0863
25098DOD     C319115   6.370   1.374   8.215 -0.1801  0.1075  0.4996
25099DOD     C119116  23.552  19.785   9.153  0.2007  0.0291 -0.0490
25099DOD     C219117  23.400  20.268   9.161  0.0599 -0.1790  0.1285
25099DOD     C319118  23.292  20.544   9.524  0.0669 -0.1781  0.0546
25100DOD     C119119   3.622  26.155  21.556  0.0160 -0.0240  0.0646
25100DOD     C219120   4.002  26.228  21.516 -0.4342  0.3611  0.0953
25100DOD     C319121   4.281  26.559  21.295 -0.0280 -0.0462 -0.2640
25101DOD     C119122   8.507   9.021  27.168 -0.1470  0.0675 -0.1466
25101DOD     C219123   8.054   8.860  27.229  0.3668  0.2233  0.1034
25101DOD     C319124   7.625   9.033  27.134 -0.0146 -0.1769  0.0697
25102DOD     C119125  28.003  25.701  11.969  0.1415 -0.6321 -0.0811
25102DOD     C219126  28.313  25.851  12.326 -0.1927  0.0311 -0.0198
25102DOD     C319127  28.714  25.848  12.584 -0.0942  0.2791  0.2477
25103DOD     C119128  17.871   1.980  16.121 -0.2495 -0.1158 -0.1592
25103DOD     C219129  17.614   2.154  16.493 -0.3025 -0.0116  0.0814
25103DOD     C319130  17.344   2.258  16.856  0.2770  0.0491  0.3684
25104DOD     C119131  22.261  25.265  17.915 -0.1866 -0.1689 -0.1826
25104DOD     C219132  22.623  24.979  17.846  0.1225 -0.0920 -0.2938
25104DOD     C319133  23.092  24.826  18.037 -0.3329 -0.2834  0.1254
25105DOD     C119134  27.446  12.933  23.675  0.2750  0.1434  0.2274
25105DOD     C219135  27.145  12.664  23.919  0.0072  0.1442 -0.1306
25105DOD     C319136  26.863  12.595  24.316  0.0099 -0.0166  0.0741
25106DOD     C119137  27.267   5.214  15.798  0.0737  0.1450  0.5011
25106DOD     C219138  27.221   5.639  15.846 -0.1009  0.2433 -0.3327
25106DOD     C319139  26.975   6.030  15.741 -0.2872  0.2769 -0.2919
25107DOD     C119140   7.447   0.067   7.443 -0.3652  0.2189  0.1815
25107DOD     C219141   7.674   0.395   7.283 -0.1784  0.0542  0.1603
25107DOD     C319142   8.077   0.354   7.086  0.0521 -0.0465 -0.0351
25108DOD     C119143   3.893   0.968  26.986 -0.0770  0.1577 -0.2137
25108DOD     C219144   3.975   0.565  27.105 -0.2656 -0.0998  0.1458
25108DOD     C319145   4.344   0.256  27.211 -0.0602  0.2084 -0.0792
25109DOD     C119146  10.260  27.244  17.044 -0.0534  0.2794 -0.1915
25109DOD     C219147  10.516  27.190  16.649  0.2426 -0.1091  0.2008
25109DOD     C319148  10.450  27.106  16.230  0.0605 -0.0284  0.1490
25110DOD     C119149   0.603  27.042   7.264 -0.2704  0.2946  0.3820
25110DOD     C219150   0.875  27.215   7.533 -0.1237 -0.0512 -0.0907
25110DOD     C319151   1.098  27.044   7.873  0.0390  0.1941 -0.1819
25111DOD     C119152   9.190  17.019  14.406 -0.3669 -0.3477 -0.0281
25111DOD     C219153   9.626  16.879  14.284 -0.3698  0.2042  0.0148
25111DOD     C319154   9.951  17.008  14.003  0.0696 -0.1735  0.0407
25112DOD     C119155  21.451  14.724  12.181  0.1908  0.2419 -0.1200
25112DOD     C219156  21.388  14.570  12.643 -0.0539  0.0481  0.0300
25112DOD     C319157  21.564  14.291  12.973 -0.2138 -0.2077  0.0313
25113DOD     C119158  18.836  15.898   9.414 -0.2216  0.1542  0.0603
25113DOD     C219159  19.009  15.717   8.965 -0.0133  0.1254  0.1745
25113DOD     C319160  19.176  15.323   8.730  0.3802  0.1540  0.2064
25114DOD     C119161   5.242   5.404  23.272  0.4218  0.0800  0.1734
25114DOD     C219162   4.943   5.180  23.087  0.1273  0.1182  0.5585
25114DOD     C319163   4.555   5.034  22.889  0.2903  0.0825 -0.0163
25115DOD     C119164  21.933   9.263  18.043  0.4212  0.1025 -0.2820
25115DOD     C219165  21.816   9.679  18.186 -0.1154 -0.4255  0.1439
25115DOD     C319166  21.925  10.088  18.289 -0.1477 -0.0585  0.2109
25116DOD     C119167  12.640  15.887  16.085  0.1711 -0.2820 -0.0168
25116DOD     C219168  12.397  15.549  15.920  0.0563 -0.2261 -0.0001
25116DOD     C319169  12.087  15.308  15.581  0.4122  0.0367  0.2342
25117DOD     C119170   9.152  28.001   7.400 -0.3740 -0.0960 -0.4881
25117DOD     C219171   8.738  27.776   7.292 -0.1996  0.0777 -0.2471
25117DOD     C319172   8.411  27.482   7.435 -0.0232 -0.3076 -0.0748
25118DOD     C119173   4.273  26.375   8.470 -0.3267  0.2884  0.1031
25118DOD     C219174   4.125  26.430   8.926  0.1702  0.0864  0.0523
25118DOD     C319175   3.923  26.513   9.358  0.2114 -0.1341 -0.0602
25119DOD     C119176  11.907  27.317  19.993  0.1294  0.2940  0.4992
25119DOD     C219177  11.883  27.595  20.360 -0.3729  0.0537 -0.0104
25119DOD     C319178  11.988  27.966  20.524  0.0104 -0.2233 -0.0481
25120DOD     C119179  19.635  24.626   9.409 -0.0004 -0.0841 -0.0893
25120DOD     C219180  19.369  24.778   9.822 -0.0572  0.3216 -0.0086
25120DOD     C319181  19.138  24.728  10.199 -0.1272  0.0459  0.2451
25121DOD     C119182  14.623  26.532  26.417 -0.0557  0.2500 -0.0671
25121DOD     C219183  14.505  26.285  26.031 -0.3951  0.0934 -0.0512
25121DOD     C319184  14.177  25.901  26.043 -0.0160  0.1023  0.1713
25122DOD     C119185  23.639   5.927   4.567 -0.2189  0.0346 -0.2564
25122DOD     C219186  24.109   5.824   4.428  0.1122  0.1117  0.5044
25122DOD     C319187  24.299   5.954   4.017  0.0554  0.0089  0.0190
25123DOD     C119188  10.235  12.762  11.601 -0.1206  0.0023 -0.0234
25123DOD     C219189   9.792  12.699  11.759  0.1048  0.3800 -0.2770
25123DOD     C319190   9.543  12.424  12.063 -0.0012  0.0177  0.3970
25124DOD     C119191   5.630  28.476  18.397 -0.2678 -0.0560  0.2504
25124DOD     C219192   5.420  28.319  18.001 -0.0892  0.0288  0.0799
25124DOD     C319193   5.573  28.164  17.554 -0.1995 -0.0278  0.2502
25125DOD     C119194  21.572   1.184   0.696  0.0537 -0.0756  0.4403
25125DOD     C219195  21.181   1.479   0.705 -0.0627  0.1263 -0.1692
25125DOD     C319196  20.793   1.764   0.615 -0.1233 -0.0392 -0.1650
25126DOD     C119197   9.620  19.193  11.985  0.2646 -0.0823 -0.3595
25126DOD     C219198   9.494  19.560  11.682  0.3484  0.0799  0.0230
25126DOD     C319199   9.749  19.704  11.295 -0.2041 -0.0820 -0.0637
25127DOD     C119200  12.595  29.074  15.224 -0.2150 -0.1529 -0.0044
25127DOD     C219201  12.656  29.521  15.167  0.2047  0.1677 -0.0908
25127DOD     C319202  12.469  29.871  14.942  0.0449 -0.0073 -0.0849
25128DOD     C119203  14.971   8.422  20.645  0.1126 -0.3357  0.5168
25128DOD     C219204  15.436   8.542  20.640  0.3358 -0.0841 -0.0251
25128DOD     C319205  15.659   8.930  20.525  0.1922 -0.0672 -0.1234
25129DOD     C119206  23.785  19.092  24.519  0.0081 -0.0729  0.1395
25129DOD     C219207  23.957  18.994  24.057  0.2203  0.1480  0.0811
25129DOD     C319208  23.904  18.919  23.566  0.1319  0.1150 -0.2189
25130DOD     C119209  11.674  25.651  22.900 -0.1348  0.1047 -0.1858
25130DOD     C219210  11.677  25.310  23.183 -0.1045  0.0615 -0.4278
25130DOD     C319211  11.648  25.067  23.614 -0.1184 -0.1595  0.3475
25131DOD     C119212  29.691  14.868   1.565 -0.0987  0.0230 -0.1210
25131DOD     C219213  29.375  15.163   1.703  0.0936 -0.1982  0.2287
25131DOD     C319214  28.966  15.285   1.926  0.1846 -0.0997  0.0777
25132DOD     C119215  29.560   6.062  30.345  0.0087 -0.0055  0.1688
25132DOD     C219216  29.420   6.511   0.107 -0.2507  0.0124  0.0590
25132DOD     C319217  28.966   6.736   0.111  0.0553 -0.0987 -0.2884
25133DOD     C119218  10.695  28.285  25.204 -0.3190  0.0333 -0.2134
25133DOD     C219219  10.867  28.084  25.612  0.0534  0.1736 -0.1012
25133DOD     C319220  11.255  27.826  25.697 -0.0565 -0.0265  0.0044
25134DOD     C119221  16.404   6.451  28.202  0.1395  0.3982 -0.1227
25134DOD     C219222  16.892   6.534  28.186  0.0243 -0.1506  0.0247
25134DOD     C319223  17.184   6.953  28.197  0.0100  0.0420 -0.0220
25135DOD     C119224   5.724  20.358   1.536 -0.0724 -0.2563  0.2040
25135DOD     C219225   6.005  20.605   1.307 -0.0342  0.1520  0.0393
25135DOD     C319226   6.207  20.631   0.890 -0.0331  0.1104  0.2883
25136DOD     C119227   2.570  28.642  15.573  0.2308 -0.2955  0.2057
25136DOD     C219228   2.349  28.958  15.889  0.2333  0.1092  0.1363
25136DOD     C319229   2.302  29.408  16.032  0.1746  0.0380  0.1119
25137DOD     C119230  10.730  25.197  15.803  0.1115  0.1643  0.3332
25137DOD     C219231  10.698  25.386  16.211  0.1061 -0.1808  0.1863
25137DOD     C319232  10.871  25.676  16.565 -0.0553  0.1232  0.1335
25138DOD     C119233  11.021  26.804   5.203 -0.0868 -0.0121 -0.2234
25138DOD     C219234  11.017  27.214   4.952  0.2834 -0.1119 -0.0016
25138DOD     C319235  10.885  27.580   4.676 -0.0205  0.1570  0.2813
25139DOD     C119236   2.701   1.279   2.367 -0.1482  0.0636  0.0036
25139DOD     C219237   2.696   0.842   2.132 -0.0399 -0.0549 -0.0680
25139DOD     C319238   2.911   0.458   2.057  0.3187  0.2433 -0.0884
25140DOD     C119239  26.205   5.397  17.116 -0.0078 -0.1867 -0.1160
25140DOD     C219240  25.880   5.534  17.401  0.0757  0.2834  0.0426
25140DOD     C319241  25.565   5.288  17.646 -0.0496 -0.5107 -0.2441
25141DOD     C119242  19.920  17.673  14.817 -0.0369 -0.2482  0.0651
25141DOD     C219243  19.434  17.590  14.766  0.0813  0.0388  0.0103
25141DOD     C319244  19.107  17.256  14.776 -0.0583 -0.2557  0.0637
25142DOD     C119245   4.777  27.150  19.519 -0.0315 -0.1614 -0.0738
25142DOD     C219246   5.006  27.515  19.214  0.2698 -0.0061 -0.0544
25142DOD     C319247   5.243  27.848  19.018 -0.0524  0.0156 -0.0451
25143DOD     C119248  28.678   9.607  15.513 -0.3777  0.1699  0.0688
25143DOD     C219249  28.517   9.214  15.527 -0.3716 -0.1565 -0.2824
25143DOD     C319250  28.638   8.791  15.674  0.1010  0.0030 -0.0247
25144DOD     C119251  12.875   1.746  19.727 -0.1833  0.1086 -0.2866
25144DOD     C219252  13.175   1.406  19.582  0.2298 -0.3371  0.1060
25144DOD     C319253  13.588   1.505  19.536 -0.2056  0.2958 -0.0327
25145DOD     C119254   2.513  20.991  11.810 -0.0297  0.0399 -0.3081
25145DOD     C219255   2.746  20.584  11.707  0.0074  0.0486  0.1517
25145DOD     C319256   3.064  20.299  11.537 -0.0215  0.1836  0.2990
25146DOD     C119257  26.971   9.856  14.769  0.0389  0.0497  0.1099
25146DOD     C219258  26.606   9.684  14.512 -0.2291  0.1027  0.0206
25146DOD     C319259  26.462   9.583  14.108  0.0140  0.4115  0.1165
25147DOD     C119260  14.547  28.062  17.336 -0.1715  0.2916  0.0428
25147DOD     C219261  14.987  28.267  17.375 -0.1862  0.0476 -0.0962
25147DOD     C319262  15.125  28.484  17.731  0.1306  0.1084  0.1225
25148DOD     C119263  20.620  16.490  17.906  0.4044  0.0801  0.2562
25148DOD     C219264  20.581  16.730  18.255 -0.2342 -0.0664 -0.1187
25148DOD     C319265  20.961  17.067  18.262 -0.2539 -0.0873  0.2227
25149DOD     C119266   5.380  13.608  24.863 -0.3836  0.0415  0.2950
25149DOD     C219267   4.932  13.623  24.941  0.0470  0.0370  0.1914
25149DOD     C319268   4.571  13.864  25.022  0.0324 -0.1282  0.0906
25150DOD     C119269  23.713  30.083   6.483  0.0208  0.1948 -0.0562
25150DOD     C219270  23.450  30.272   6.847  0.0871 -0.0567 -0.1590
25150DOD     C319271  23.467  30.110   7.261  0.1866 -0.2903 -0.1863
25151DOD     C119272  28.292   2.936  17.339 -0.3402 -0.2495 -0.0618
25151DOD     C219273  27.846   3.099  17.187 -0.2319  0.1217 -0.3083
25151DOD     C319274  27.430   2.914  17.131 -0.2048  0.4457  0.1329
25152DOD     C119275  24.664  18.317  26.424 -0.0779  0.0851  0.0839
25152DOD     C219276  24.474  17.969  26.093 -0.1092 -0.1858  0.3096
25152DOD     C319277  24.233  17.921  25.688  0.1540 -0.1767  0.1329
25153DOD     C119278  20.883   1.696  14.317  0.1625 -0.2203  0.1344
25153DOD     C219279  21.102   1.604  13.894 -0.1230  0.0198  0.2663
25153DOD     C319280  21.337   1.657  13.451 -0.0424  0.0233  0.1708
25154DOD     C119281  24.110  22.292   6.949  0.1457  0.0570  0.2339
25154DOD     C219282  24.305  21.921   7.092 -0.1064 -0.0981  0.2739
25154DOD     C319283  24.441  21.572   7.281  0.2312  0.0772  0.3159
25155DOD     C119284   4.384   8.042   5.454 -0.1884 -0.2149  0.1989
25155DOD     C219285   4.037   8.090   5.748 -0.0871 -0.1039  0.0834
25155DOD     C319286   3.732   7.976   6.038  0.1246  0.0407 -0.2073
25156DOD     C119287  27.520  28.065  19.948  0.0222  0.0615 -0.0300
25156DOD     C219288  27.836  28.115  19.633 -0.1307  0.0131  0.3688
25156DOD     C319289  28.248  27.962  19.418  0.1134  0.1748  0.0200
25157DOD     C119290  12.962  19.773  25.052  0.3562  0.2463  0.0478
25157DOD     C219291  13.098  19.551  24.664  0.1408 -0.1823 -0.3042
25157DOD     C319292  13.418  19.293  24.386  0.2403 -0.0752  0.0533
25158DOD     C119293  21.358   4.976  22.157 -0.4140 -0.1662 -0.3032
25158DOD     C219294  20.963   4.793  22.334 -0.0912 -0.1886  0.0617
25158DOD     C319295  20.642   4.785  22.691 -0.3835  0.1647  0.2510
25159DOD     C119296  20.227  20.220  22.111 -0.3155 -0.1489  0.3347
25159DOD     C219297  19.809  20.144  22.003  0.2727 -0.3423 -0.2135
25159DOD     C319298  19.550  20.375  22.194 -0.2419 -0.0295 -0.1522
25160DOD     C119299  21.596  10.530  27.322 -0.0362 -0.0660  0.1252
25160DOD     C219300  21.815  10.850  27.585 -0.2135 -0.0442 -0.2652
25160DOD     C319301  21.887  11.197  27.881 -0.2899 -0.1625 -0.0992
25161DOD     C119302  22.291  18.842   7.703  0.1032  0.0257  0.2258
25161DOD     C219303  21.959  18.861   7.992  0.0992  0.0648 -0.1815
25161DOD     C319304  21.775  19.001   8.440  0.2651  0.1314 -0.2172
25162DOD     C119305  15.889   4.914  13.615  0.1282 -0.3943  0.0025
25162DOD     C219306  15.827   4.536  13.397  0.2323  0.2946 -0.2067
25162DOD     C319307  15.770   4.078  13.340  0.1282 -0.1541 -0.0444
25163DOD     C119308  16.365  18.635  11.029 -0.0752 -0.1165  0.1610
25163DOD     C219309  16.569  18.867  10.654 -0.1762  0.1464  0.1629
25163DOD     C319310  16.474  18.633  10.244  0.1498  0.0084 -0.0496
25164DOD     C119311  27.776  24.434  16.683  0.3143 -0.1428 -0.0918
25164DOD     C219312  27.582  24.648  16.294 -0.1081 -0.0406 -0.4758
25164DOD     C319313  27.317  25.022  16.109 -0.0098  0.1510  0.1779
25165DOD     C119314  25.694  25.062  27.441  0.2882 -0.3518 -0.0957
25165DOD     C219315  25.257  24.932  27.648  0.0978 -0.1554 -0.0872
25165DOD     C319316  25.054  24.484  27.682 -0.0782 -0.2154  0.5954
25166DOD     C119317   6.635   6.267   9.038 -0.1030  0.1471  0.0417
25166DOD     C219318   6.465   6.672   9.060 -0.2190  0.0607  0.2872
25166DOD     C319319   6.358   7.090   8.984  0.0067  0.2133  0.0111
25167DOD     C119320  20.409  12.682  22.928  0.0240  0.2948  0.2589
25167DOD     C219321  20.216  13.040  23.127  0.1114  0.2114  0.1543
25167DOD     C319322  19.882  13.300  23.332  0.0891 -0.2058 -0.0490
25168DOD     C119323  10.532  22.174   3.026  0.1619 -0.0939  0.1180
25168DOD     C219324  10.377  21.882   2.727  0.2039 -0.3885 -0.4210
25168DOD     C319325  10.601  21.512   2.578 -0.1970 -0.0036  0.0181
25169DOD     C119326   9.016  22.792   7.052 -0.0285 -0.1304  0.1225
25169DOD     C219327   9.315  22.887   7.444 -0.2706 -0.0724 -0.0561
25169DOD     C319328   9.477  23.364   7.503  0.3143 -0.0866  0.0323
25170DOD     C119329  12.474   9.218   3.316 -0.1043 -0.0800  0.1559
25170DOD     C219330  12.752   9.341   2.940 -0.1140  0.0043  0.1040
25170DOD     C319331  13.228   9.364   2.779  0.0521  0.1339  0.3132
25171DOD     C119332  14.995   8.614   1.249 -0.0010  0.2298 -0.3408
25171DOD     C219333  15.244   8.773   1.614  0.0223  0.0259 -0.0019
25171DOD     C319334  15.476   9.036   1.887 -0.2930 -0.1810 -0.1071
25172DOD     C119335  10.215  20.237  20.995 -0.0222  0.1130  0.0621
25172DOD     C219336  10.545  20.451  20.768 -0.0983  0.0666  0.0129
25172DOD     C319337  10.693  20.625  20.390  0.1462 -0.0825 -0.1847
25173DOD     C119338  20.207   2.292   9.121  0.0446 -0.0557  0.1414
25173DOD     C219339  20.080   2.303   9.561 -0.0564 -0.3169 -0.1943
25173DOD     C319340  19.993   1.903   9.826  0.0724  0.2351  0.3236
25174DOD     C119341  16.787   0.852  28.575  0.3287 -0.0040  0.2566
25174DOD     C219342  17.056   1.105  28.275 -0.1093 -0.1727  0.2644
25174DOD     C319343  16.927   1.424  27.935  0.1902 -0.1092 -0.4127
25175DOD     C119344  21.187  13.105  17.497 -0.4100  0.2035  0.1455
25175DOD     C219345  21.403  13.493  17.572  0.0773 -0.1123 -0.2842
25175DOD     C319346  21.295  13.947  17.436 -0.2300  0.1859  0.0584
25176DOD     C119347   3.377   0.923   6.224  0.0965 -0.0678  0.3641
25176DOD     C219348   3.055   1.115   6.510 -0.1809  0.0462 -0.1332
25176DOD     C319349   2.591   1.220   6.562 -0.0731 -0.1736  0.1236
25177DOD     C119350   4.515   1.816   4.052 -0.1601  0.0506 -0.2847
25177DOD     C219351   4.614   1.390   4.122 -0.0040 -0.2602 -0.1021
25177DOD     C319352   4.474   1.003   4.373 -0.2141 -0.0441 -0.0382
25178DOD     C119353  16.393  13.876  28.208 -0.1537  0.1454 -0.2225
25178DOD     C219354  16.099  14.237  28.144 -0.0937  0.0729  0.1021
25178DOD     C319355  16.033  14.661  27.912  0.3274  0.3189 -0.1741
25179DOD     C119356   4.725  11.733  11.244  0.3300  0.3105 -0.0491
25179DOD     C219357   4.300  11.542  11.383  0.3313 -0.3634 -0.0878
25179DOD     C319358   3.925  11.308  11.491  0.0045 -0.0771 -0.1367
25180DOD     C119359  22.103  15.474  28.102  0.0545 -0.3627 -0.4663
25180DOD     C219360  22.271  15.295  27.726  0.5305  0.0711 -0.2095
25180DOD     C319361  22.039  15.126  27.373  0.1869  0.0170 -0.0912
25181DOD     C119362  25.183  12.764  11.404 -0.3938 -0.1850 -0.2108
25181DOD     C219363  25.372  12.530  11.051  0.0847  0.0042  0.0457
25181DOD     C319364  25.659  12.126  10.948 -0.2778  0.1007  0.0151
25182DOD     C119365   6.979   1.502   5.978 -0.3539  0.3901 -0.4420
25182DOD     C219366   7.102   1.483   5.514 -0.2393 -0.0119  0.1787
25182DOD     C319367   7.019   1.619   5.061  0.2877 -0.0502 -0.0256
25183DOD     C119368   2.560  23.698   5.533 -0.2030  0.1189 -0.1780
25183DOD     C219369   2.422  24.166   5.535  0.1141  0.2992 -0.0905
25183DOD     C319370   2.631  24.440   5.872 -0.1379  0.1986 -0.2858
25184DOD     C119371  14.588  14.026  23.787 -0.1213 -0.1768  0.1320
25184DOD     C219372  14.606  14.312  24.102  0.1058  0.0104 -0.0261
25184DOD     C319373  14.520  14.469  24.583  0.1161 -0.2141  0.1918
25185DOD     C119374  28.026   7.151  11.328 -0.2500 -0.4449  0.1243
25185DOD     C219375  28.276   6.868  11.624  0.2961 -0.2635  0.0020
25185DOD     C319376  28.643   6.600  11.706 -0.3829  0.4604  0.1950
25186DOD     C119377   1.169  30.247   6.391 -0.0284  0.1046  0.2101
25186DOD     C219378   1.313   0.322   6.211 -0.0129 -0.0646 -0.1748
25186DOD     C319379   1.378   0.545   5.777  0.1800 -0.1558  0.0076
25187DOD     C119380   3.541  25.526   5.382 -0.2350  0.0793  0.0397
25187DOD     C219381   3.251  25.223   5.197  0.4405  0.0104  0.4477
25187DOD     C319382   3.389  24.782   5.157 -0.2507  0.4058  0.1978
25188DOD     C119383  29.135  28.841  27.385 -0.0084 -0.1635  0.2992
25188DOD     C219384  29.522  28.750  27.528  0.2358 -0.1716 -0.0636
25188DOD     C319385  29.936  28.949  27.618 -0.2836  0.0951  0.1230
25189DOD     C119386  21.186   8.283   2.462  0.1196  0.1530 -0.1645
25189DOD     C219387  20.726   8.346   2.518  0.0782 -0.1455  0.1903
25189DOD     C319388  20.412   8.635   2.380 -0.0823 -0.0205  0.0717
25190DOD     C119389   4.692  21.131   0.176 -0.1654 -0.0686 -0.1648
25190DOD     C219390   4.931  21.441  30.246  0.2652  0.0071  0.1942
25190DOD     C319391   5.232  21.785  30.159 -0.0612 -0.0068  0.0327
25191DOD     C119392  11.919  29.459  21.703 -0.0972 -0.2619  0.0494
25191DOD     C219393  11.999  29.396  21.231  0.3677 -0.2201 -0.2054
25191DOD     C319394  12.276  29.445  20.841 -0.2555 -0.0485 -0.0146
25192DOD     C119395   9.026  10.831  16.746 -0.0311 -0.0556  0.1024
25192DOD     C219396   9.155  10.655  17.178 -0.2585 -0.2562 -0.0257
25192DOD     C319397   9.277  10.209  17.173 -0.1199  0.1742  0.1318
25193DOD     C119398  28.913   2.354  28.694  0.1157  0.1509 -0.2414
25193DOD     C219399  28.713   2.723  28.510  0.5653  0.0514  0.2222
25193DOD     C319400  28.657   3.143  28.676 -0.1163  0.1435  0.2033
25194DOD     C119401   6.240  23.313  23.873 -0.1110 -0.1646  0.1030
25194DOD     C219402   6.647  23.099  24.046 -0.0946 -0.1312 -0.1130
25194DOD     C319403   7.054  23.242  24.280 -0.1712  0.2213  0.2445
25195DOD     C119404  26.552  16.083   5.524  0.1093 -0.0643 -0.2666
25195DOD     C219405  26.734  15.716   5.776 -0.3613 -0.0250 -0.1874
25195DOD     C319406  27.018  15.516   6.092 -0.1347  0.3048 -0.1869
25196DOD     C119407  19.378  24.933  17.841 -0.0497 -0.0998 -0.1044
25196DOD     C219408  18.996  25.022  18.048 -0.0657  0.1263 -0.0175
25196DOD     C319409  18.600  24.815  18.224 -0.0495  0.0807  0.0242
25197DOD     C119410  21.100  28.469   5.065 -0.2956 -0.0656 -0.2020
25197DOD     C219411  20.886  28.475   5.488 -0.0357 -0.2076 -0.1877
25197DOD     C319412  20.784  28.687   5.901 -0.0036 -0.0948 -0.3907
25198DOD     C119413  21.706   4.346   3.058  0.0414 -0.1243 -0.0887
25198DOD     C219414  21.375   4.627   3.104  0.1219 -0.1191  0.0527
25198DOD     C319415  21.037   4.815   3.359  0.0292  0.2407  0.1813
25199DOD     C119416  15.317  19.204  26.247 -0.0252  0.0624 -0.2046
25199DOD     C219417  15.028  19.191  26.618 -0.0064  0.1246  0.4430
25199DOD     C319418  14.819  19.336  26.992  0.2046 -0.2682 -0.0250
25200DOD     C119419  29.931   8.617  28.899  0.3685 -0.1054 -0.3486
25200DOD     C219420  29.851   8.128  28.944 -0.3193 -0.1688  0.0186
25200DOD     C319421  29.742   7.783  29.251  0.2426  0.3558  0.3367
25201DOD     C119422  13.864  25.958  18.025  0.1100  0.0494  0.0259
25201DOD     C219423  14.155  25.659  17.951  0.1695 -0.2013  0.1462
25201DOD     C319424  14.446  25.487  17.697 -0.0544  0.1842  0.0082
25202DOD     C119425   0.798  25.015  16.669 -0.1050 -0.1212  0.2157
25202DOD     C219426   1.059  24.828  17.031 -0.0090 -0.2843  0.2409
25202DOD     C319427   0.947  24.525  17.329  0.0661 -0.1918  0.0663
25203DOD     C119428  17.565   9.503  21.341  0.1056  0.0805 -0.0933
25203DOD     C219429  17.313   9.622  20.947  0.0330 -0.2797 -0.0704
25203DOD     C319430  17.011   9.601  20.610  0.1031  0.0888  0.1591
25204DOD     C119431  10.866  19.183  25.492  0.2456 -0.0608  0.0921
25204DOD     C219432  11.080  18.734  25.502 -0.0914 -0.2280  0.2228
25204DOD     C319433  11.347  18.436  25.756  0.2357  0.2903 -0.3283
25205DOD     C119434  14.568   4.439  25.417 -0.2795  0.1878  0.0985
25205DOD     C219435  14.618   4.853  25.561 -0.0722 -0.2027 -0.0741
25205DOD     C319436  14.921   5.068  25.841  0.4507 -0.0583 -0.1732
25206DOD     C119437  26.460  12.601  30.024  0.1183  0.0186 -0.1410
25206DOD     C219438  26.566  12.679   0.083  0.2195 -0.2556 -0.1495
25206DOD     C319439  26.460  12.703   0.496  0.1074 -0.4266  0.0824
25207DOD     C119440  21.465  15.692   3.806 -0.0055 -0.2295 -0.0652
25207DOD     C219441  21.246  15.721   4.207 -0.0313 -0.2430  0.1026
25207DOD     C319442  21.504  15.567   4.606 -0.0554  0.1140 -0.0175
25208DOD     C119443  21.187   9.233  14.342  0.2420 -0.3909  0.0213
25208DOD     C219444  21.234   9.373  13.883 -0.2221  0.2184 -0.1087
25208DOD     C319445  21.123   9.340  13.422  0.1730  0.0228  0.0348
25209DOD     C119446   5.659   8.112   3.560 -0.2929  0.1849  0.0857
25209DOD     C219447   5.810   8.547   3.634  0.0217 -0.1436 -0.0751
25209DOD     C319448   5.694   8.894   3.327 -0.2401  0.0362  0.0487
25210DOD     C119449  27.062  30.313  17.266  0.0668  0.1765 -0.4557
25210DOD     C219450  27.155  30.263  17.664  0.1382  0.0353  0.0719
25210DOD     C319451  27.433  30.008  17.896 -0.3172 -0.0434 -0.4007
25211DOD     C119452  14.292  10.328  12.941 -0.1493  0.2253  0.4779
25211DOD     C219453  14.725  10.458  13.083 -0.1275  0.1090  0.0279
25211DOD     C319454  15.133  10.401  13.253  0.3308  0.0340 -0.0449
25212DOD     C119455   2.435   9.928   1.235  0.1693  0.2030 -0.0796
25212DOD     C219456   2.114  10.237   1.432  0.2735  0.1901 -0.1028
25212DOD     C319457   2.002  10.580   1.704 -0.0623 -0.1278  0.0168
25213DOD     C119458  16.348  28.907  29.244  0.1748 -0.0491 -0.1895
25213DOD     C219459  16.275  28.876  29.726 -0.1238  0.0962 -0.1256
25213DOD     C319460  16.050  29.107  30.021  0.0850 -0.3610 -0.1567
25214DOD     C119461  11.532  27.390  21.233  0.2169 -0.2411 -0.0112
25214DOD     C219462  11.070  27.398  21.178 -0.1759  0.1320  0.2294
25214DOD     C319463  10.877  27.754  20.964 -0.3668  0.0474 -0.1583
25215DOD     C119464  17.327  21.433   8.161  0.3794  0.0359  0.1492
25215DOD     C219465  17.535  21.351   7.736  0.2144  0.3378 -0.2630
25215DOD     C319466  17.799  21.342   7.388 -0.1269  0.0335  0.1903
25216DOD     C119467   3.379  27.736  12.836 -0.0098  0.1496  0.1156
25216DOD     C219468   3.184  27.352  12.711  0.0632 -0.1992  0.1145
25216DOD     C319469   2.832  27.242  12.388  0.1294  0.1813  0.1206
25217DOD     C119470  11.673  22.781   4.480 -0.0843 -0.0158 -0.1105
25217DOD     C219471  11.772  22.773   4.016  0.0520  0.2169  0.1881
25217DOD     C319472  11.609  22.795   3.579 -0.0529 -0.0810  0.1373
25218DOD     C119473   4.229  13.888  10.551  0.3467  0.0491  0.1068
25218DOD     C219474   4.076  13.556  10.249 -0.1380  0.1734  0.3694
25218DOD     C319475   4.141  13.120  10.150  0.0306  0.2695 -0.1478
25219DOD     C119476  28.239   7.744  20.920  0.0575 -0.1191 -0.1692
25219DOD     C219477  27.861   7.874  20.824 -0.4493 -0.1787  0.3266
25219DOD     C319478  27.492   7.651  20.949 -0.4416 -0.1258  0.1502
25220DOD     C119479   6.185  24.595  21.469  0.0049 -0.0384  0.1478
25220DOD     C219480   6.480  24.291  21.712 -0.2106 -0.0731 -0.1248
25220DOD     C319481   6.695  23.960  21.904 -0.0037 -0.0779  0.3075
25221DOD     C119482  15.166   1.754   5.518  0.2477 -0.0463 -0.1965
25221DOD     C219483  14.895   1.376   5.550 -0.1100  0.2263  0.3401
25221DOD     C319484  14.887   0.927   5.415 -0.1529  0.1382 -0.0116
25222DOD     C119485   9.810  19.532  24.963  0.3482  0.0912  0.0641
25222DOD     C219486   9.735  19.145  25.176 -0.2677  0.1151  0.2634
25222DOD     C319487   9.461  18.955  25.554 -0.1395 -0.2548 -0.0399
25223DOD     C119488  25.042  24.876  26.028  0.0472 -0.1563  0.0029
25223DOD     C219489  25.185  25.299  25.881 -0.1814  0.1423 -0.3604
25223DOD     C319490  25.414  25.740  25.934 -0.0283 -0.0409  0.1122
25224DOD     C119491  14.154  14.526   5.371 -0.0896 -0.0735  0.0490
25224DOD     C219492  14.320  14.483   4.908  0.0597 -0.1596  0.2232
25224DOD     C319493  14.234  14.368   4.489 -0.6232 -0.1406  0.1536
25225DOD     C119494   5.622  22.542  23.327 -0.1633 -0.1198  0.0520
25225DOD     C219495   5.867  22.981  23.182 -0.0144 -0.1807  0.2441
25225DOD     C319496   5.888  23.416  22.907  0.1258  0.1664 -0.2183
25226DOD     C119497   8.669  14.879   6.236  0.1283 -0.3529 -0.1318
25226DOD     C219498   8.648  14.779   5.810  0.1173 -0.0839  0.2158
25226DOD     C319499   8.888  15.017   5.447  0.2957 -0.0115  0.1502
25227DOD     C119500  16.125   4.913   7.273  0.2901 -0.2734 -0.0954
25227DOD     C219501  16.175   4.925   6.820 -0.1118  0.2637 -0.0449
25227DOD     C319502  16.272   4.895   6.404  0.1487  0.3012 -0.0476
25228DOD     C119503  10.387  17.814  24.044 -0.2141  0.1387  0.1893
25228DOD     C219504  10.479  17.436  24.192  0.1320 -0.3262  0.1791
25228DOD     C319505  10.538  17.428  24.645 -0.2264 -0.0192 -0.3403
25229DOD     C119506  24.195  21.267  29.882  0.3612 -0.4901  0.0428
25229DOD     C219507  24.152  20.857  29.602  0.0090  0.0982  0.0016
25229DOD     C319508  24.025  20.423  29.752 -0.1003  0.0349  0.0650
25230DOD     C119509  28.760  24.758  11.519 -0.1639 -0.0073 -0.0828
25230DOD     C219510  28.666  24.593  11.933  0.0350 -0.0907  0.0479
25230DOD     C319511  28.907  24.621  12.250 -0.1629 -0.2549  0.2042
25231DOD     C119512   6.906  18.460  28.119 -0.1213  0.1074  0.0155
25231DOD     C219513   6.880  18.066  28.391  0.0176 -0.1798  0.1927
25231DOD     C319514   6.835  18.064  28.868  0.0793  0.1666 -0.1648
25232DOD     C119515   5.046   1.096   9.880 -0.0187 -0.0222 -0.0467
25232DOD     C219516   5.345   0.777  10.016 -0.2020 -0.1399 -0.0061
25232DOD     C319517   5.297   0.316   9.986  0.0960 -0.1479 -0.2516
25233DOD     C119518   7.087  18.373  22.541 -0.1882 -0.1709 -0.2444
25233DOD     C219519   6.775  18.370  22.885 -0.0648 -0.2445  0.0145
25233DOD     C319520   6.789  18.075  23.229  0.0119  0.1076 -0.0752
25234DOD     C119521  14.121   4.900   4.945 -0.1116 -0.1421 -0.1166
25234DOD     C219522  13.852   4.595   5.124  0.1953 -0.1258  0.0907
25234DOD     C319523  13.992   4.174   5.236 -0.0360  0.2541 -0.1457
25235DOD     C119524   3.000  29.124  22.306  0.3719 -0.1748 -0.1265
25235DOD     C219525   3.125  29.055  22.787 -0.0434  0.3753 -0.1207
25235DOD     C319526   3.168  28.949  23.208 -0.1452  0.2447 -0.0840
25236DOD     C119527   1.955  20.859  16.231  0.2145 -0.0279  0.0186
25236DOD     C219528   1.925  21.156  15.854 -0.0032 -0.1597 -0.0261
25236DOD     C319529   1.985  21.448  15.484  0.0835 -0.0332 -0.1355
25237DOD     C119530  16.496   1.202   2.609 -0.2360 -0.0918  0.2575
25237DOD     C219531  16.444   1.361   2.151  0.1499 -0.0084  0.0572
25237DOD     C319532  16.303   1.395   1.703  0.0498 -0.0055  0.3133
25238DOD     C119533   4.345   3.781  27.741 -0.1360  0.1511 -0.0403
25238DOD     C219534   4.516   3.373  27.893  0.2043 -0.3408 -0.0452
25238DOD     C319535   4.694   3.080  28.211 -0.0439  0.2609  0.1716
25239DOD     C119536  15.805  20.012   6.262  0.0131  0.5861 -0.2703
25239DOD     C219537  16.206  19.697   6.176  0.0691  0.0930 -0.0465
25239DOD     C319538  16.566  19.622   5.900  0.0074 -0.0924 -0.0276
25240DOD     C119539  10.878  19.270  15.099  0.3587 -0.0121  0.0907
25240DOD     C219540  10.591  19.379  14.744 -0.0217  0.0625  0.1710
25240DOD     C319541  10.164  19.473  14.754  0.0926  0.5741 -0.0971
25241DOD     C119542   3.625  29.238   4.710 -0.0588  0.0205  0.1851
25241DOD     C219543   3.620  28.877   4.396 -0.2302 -0.1956 -0.1113
25241DOD     C319544   3.416  28.634   4.075 -0.1009 -0.3720 -0.0251
25242DOD     C119545  15.303  30.223  24.479 -0.2643 -0.0197  0.1132
25242DOD     C219546  14.975  30.297  24.788 -0.3554 -0.0074 -0.2924
25242DOD     C319547  14.888   0.324  25.159  0.1792 -0.1085  0.4003
25243DOD     C119548   0.490   4.951   5.753 -0.0182  0.2545  0.0371
25243DOD     C219549   0.953   4.842   5.810 -0.0376  0.0909 -0.0856
25243DOD     C319550   1.427   4.945   5.787 -0.1294 -0.0361  0.2194
25244DOD     C119551   7.252  24.026  13.622  0.3944  0.4018 -0.0588
25244DOD     C219552   6.801  23.826  13.417  0.1867  0.2457  0.2034
25244DOD     C319553   6.375  23.654  13.516  0.0848 -0.0882  0.3242
25245DOD     C119554  12.586  25.198  29.704 -0.2137 -0.0714  0.0217
25245DOD     C219555  13.029  25.069  29.745  0.1013  0.2158 -0.0991
25245DOD     C319556  13.395  25.133  29.499 -0.0216  0.1125  0.1551
25246DOD     C119557  10.230   6.220  27.705  0.0138 -0.2117  0.3402
25246DOD     C219558  10.591   6.503  27.670  0.1624  0.3127 -0.2392
25246DOD     C319559  10.938   6.587  27.379  0.0745  0.0983 -0.0311
25247DOD     C119560  16.546  19.763  23.707 -0.1823 -0.2108  0.2982
25247DOD     C219561  16.278  20.103  23.518 -0.2389 -0.0941 -0.0615
25247DOD     C319562  15.872  20.228  23.414  0.2117 -0.1179  0.2573
25248DOD     C119563  24.495   1.486   0.682 -0.1072  0.0457 -0.1085
25248DOD     C219564  24.067   1.318   0.793  0.0484 -0.0396 -0.2901
25248DOD     C319565  23.771   1.066   1.076  0.0906 -0.1093  0.2362
25249DOD     C119566  25.723  22.516   9.572 -0.1122  0.1005 -0.1841
25249DOD     C219567  25.903  22.378   9.179  0.1270 -0.0045 -0.3577
25249DOD     C319568  26.247  22.014   9.196  0.0993 -0.0940 -0.0830
25250DOD     C119569  27.903  25.196  25.877 -0.1499 -0.1491  0.1217
25250DOD     C219570  28.024  25.565  25.699  0.3047 -0.2098  0.4168
25250DOD     C319571  28.313  25.765  25.396  0.1421 -0.0102  0.3197
25251DOD     C119572  17.690  21.026  11.501 -0.0024  0.0746  0.1287
25251DOD     C219573  17.917  21.082  11.096 -0.2196  0.0881 -0.4737
25251DOD     C319574  17.831  21.361  10.738  0.1612  0.2252 -0.3242
25252DOD     C119575  21.946  13.226   9.101  0.1564  0.0317  0.0463
25252DOD     C219576  22.319  13.396   8.877  0.2180  0.0064  0.2484
25252DOD     C319577  22.641  13.681   8.637 -0.2588  0.0823  0.0846
25253DOD     C119578  22.607  22.754  11.230 -0.0241 -0.1931 -0.1049
25253DOD     C219579  23.012  22.850  11.455 -0.0163 -0.2250 -0.0318
25253DOD     C319580  23.246  23.164  11.723 -0.2819 -0.0960  0.0950
25254DOD     C119581   1.441  22.625  11.401 -0.0326 -0.2459  0.3870
25254DOD     C219582   1.419  22.160  11.258  0.0479  0.1950  0.1138
25254DOD     C319583   1.214  21.839  11.529  0.2638 -0.2567 -0.2232
25255DOD     C119584  19.547  12.892  22.030  0.0026 -0.1488  0.1995
25255DOD     C219585  19.125  13.091  22.167 -0.0370 -0.1631  0.3145
25255DOD     C319586  18.743  13.265  22.236 -0.0520 -0.0541 -0.3919
25256DOD     C119587   0.069  15.431  19.212 -0.2072  0.1647 -0.0990
25256DOD     C219588  30.186  15.039  19.009  0.3965  0.1316 -0.1787
25256DOD     C319589  30.310  14.918  18.565  0.4900 -0.1939 -0.0091
25257DOD     C119590   0.054  29.248  13.366 -0.0483  0.2206 -0.0645
25257DOD     C219591  30.288  29.582  13.600  0.0349 -0.2075 -0.1378
25257DOD     C319592   0.126  30.022  13.806  0.0328 -0.1600 -0.1951
25258DOD     C119593  26.592   8.023   0.038 -0.1699 -0.0706 -0.3339
25258DOD     C219594  26.841   8.347   0.327  0.1446  0.4761  0.0208
25258DOD     C319595  27.117   8.114   0.589 -0.0178 -0.1976  0.0748
25259DOD     C119596   9.956   4.304  10.069  0.3497  0.2059 -0.1648
25259DOD     C219597   9.684   4.521  10.400  0.4279 -0.2217  0.0544
25259DOD     C319598   9.820   4.890  10.698  0.0828 -0.1404 -0.0794
25260DOD     C119599  10.872  13.004  21.275 -0.0728 -0.0805  0.0382
25260DOD     C219600  10.648  13.311  21.095 -0.1543  0.1333 -0.0024
25260DOD     C319601  10.231  13.502  21.053 -0.1427  0.2280  0.1622
25261DOD     C119602  12.947  29.325  21.078 -0.2146 -0.3577 -0.1370
25261DOD     C219603  13.303  29.311  21.343 -0.1140  0.4995 -0.0495
25261DOD     C319604  13.336  29.310  21.754 -0.1096  0.0674  0.1733
25262DOD     C119605  12.467  28.833  25.320  0.3460  0.0270  0.2434
25262DOD     C219606  12.704  28.467  25.188 -0.1309  0.0925 -0.2164
25262DOD     C319607  13.012  28.123  25.083 -0.0673 -0.3146 -0.0953
25263DOD     C119608  10.873  22.195  19.556 -0.2030 -0.2000  0.3665
25263DOD     C219609  10.757  22.231  19.043  0.1778 -0.2184 -0.0946
25263DOD     C319610  10.503  22.483  18.711 -0.3136 -0.0743  0.1801
25264DOD     C119611   7.862  10.806  12.206 -0.1763  0.0699  0.0668
25264DOD     C219612   7.980  10.728  12.645 -0.2282 -0.0901  0.0913
25264DOD     C319613   8.033  10.801  13.089 -0.0932  0.0281 -0.3336
25265DOD     C119614   5.895  14.378  17.286 -0.1059 -0.0634  0.0282
25265DOD     C219615   6.011  14.229  16.806  0.2237  0.2118  0.0864
25265DOD     C319616   5.937  13.843  16.501 -0.2961 -0.0291  0.0485
25266DOD     C119617  18.937  23.561   2.286  0.0490  0.1423  0.2812
25266DOD     C219618  18.771  23.433   1.888  0.3332 -0.0582  0.3500
25266DOD     C319619  18.618  23.232   1.506 -0.0436 -0.2595 -0.0305
25267DOD     C119620  22.404   9.478  24.222  0.0462  0.0664  0.1827
25267DOD     C219621  22.826   9.315  24.215 -0.1276 -0.0733 -0.0920
25267DOD     C319622  23.268   9.100  24.085 -0.2230  0.2558  0.0139
25268DOD     C119623  13.422   1.705   3.036  0.2553  0.0630  0.1335
25268DOD     C219624  13.743   1.472   3.275 -0.2629  0.1590 -0.0022
25268DOD     C319625  14.049   1.503   3.664  0.1699 -0.0591  0.2317
25269DOD     C119626  29.610  26.124  27.311 -0.0944  0.0621  0.1043
25269DOD     C219627  30.055  26.311  27.121 -0.1489 -0.6598 -0.1290
25269DOD     C319628   0.005  26.677  26.875  0.0350  0.1314  0.2994
25270DOD     C119629  18.307  28.575  23.429  0.1766  0.0486 -0.0967
25270DOD     C219630  18.488  28.201  23.319  0.3259 -0.0227 -0.3377
25270DOD     C319631  18.425  27.779  23.117 -0.0305 -0.1731 -0.0868
25271DOD     C119632  12.294   7.717   1.462  0.3898 -0.1465  0.0619
25271DOD     C219633  12.216   7.721   1.948 -0.2429 -0.0225 -0.2791
25271DOD     C319634  12.379   7.970   2.307 -0.1595  0.0227 -0.1432
25272DOD     C119635  28.205   0.771  29.985 -0.4385 -0.1597 -0.3784
25272DOD     C219636  27.894   1.004  29.651 -0.3003 -0.2077  0.2463
25272DOD     C319637  27.534   1.357  29.684  0.2540  0.1266 -0.0658
25273DOD     C119638  21.500  12.899   8.219  0.1686 -0.2447  0.1360
25273DOD     C219639  21.562  12.473   8.151  0.1109 -0.1804  0.0939
25273DOD     C319640  21.324  12.114   8.034  0.0671 -0.2675  0.0119
25274DOD     C119641  24.038  20.099  27.802 -0.3521  0.2776 -0.4826
25274DOD     C219642  23.962  19.690  27.543 -0.1298 -0.4019 -0.0909
25274DOD     C319643  23.725  19.604  27.177  0.0905  0.1546 -0.1324
25275DOD     C119644  29.777  10.504  12.050 -0.0082  0.1424  0.0887
25275DOD     C219645  29.528  10.744  12.367 -0.1826 -0.1160  0.1713
25275DOD     C319646  29.312  11.149  12.461  0.1670 -0.0226 -0.0947
25276DOD     C119647  10.198  21.215   6.181  0.2012 -0.3559 -0.0069
25276DOD     C219648  10.656  21.409   6.303 -0.2707  0.0354  0.2098
25276DOD     C319649  11.123  21.455   6.179 -0.0741 -0.1205 -0.3173
25277DOD     C119650  20.952   9.352  16.886  0.2090  0.0088  0.2271
25277DOD     C219651  20.471   9.479  16.702  0.0866 -0.3079 -0.0534
25277DOD     C319652  20.118   9.489  16.424  0.0860  0.3034 -0.0511
25278DOD     C119653  17.610   2.071   6.018  0.1630  0.1636  0.1605
25278DOD     C219654  17.771   1.622   5.859 -0.2883  0.0875  0.0251
25278DOD     C319655  17.827   1.119   5.941  0.0867  0.3551 -0.0073
25279DOD     C119656   8.990  13.771   3.031 -0.2189  0.1447 -0.2544
25279DOD     C219657   9.394  13.853   2.789  0.1578 -0.1017 -0.2315
25279DOD     C319658   9.546  13.694   2.369 -0.0078 -0.1729 -0.0881
25280DOD     C119659   7.846  17.390  29.661  0.2300 -0.2144 -0.1104
25280DOD     C219660   7.719  17.824  29.546  0.1561 -0.0177 -0.1007
25280DOD     C319661   7.877  18.205  29.310  0.0638  0.0864  0.0279
25281DOD     C119662   7.526   8.081  14.391  0.0157  0.1026 -0.0446
25281DOD     C219663   7.518   7.902  13.927  0.1589  0.1292 -0.2087
25281DOD     C319664   7.366   7.683  13.545  0.3403  0.1948  0.1852
25282DOD     C119665  18.323  13.754  11.573  0.2158  0.1321  0.1102
25282DOD     C219666  18.013  13.392  11.681 -0.0297 -0.0077  0.1639
25282DOD     C319667  17.663  13.210  11.589  0.1752  0.1210  0.1208
25283DOD     C119668  20.801   9.342  22.148 -0.1907  0.0352 -0.4145
25283DOD     C219669  21.001   9.649  21.951 -0.0512 -0.1785  0.2579
25283DOD     C319670  21.294  10.000  21.822 -0.2155  0.2503 -0.2012
25284DOD     C119671   8.655   5.524  17.623 -0.1704  0.0020 -0.3164
25284DOD     C219672   8.900   5.200  17.843  0.3314  0.1037  0.0482
25284DOD     C319673   9.234   4.949  17.705 -0.2712  0.1751 -0.2041
25285DOD     C119674   8.565  22.522   4.550 -0.1460 -0.0089 -0.0556
25285DOD     C219675   8.460  22.149   4.391 -0.4352 -0.2660  0.3400
25285DOD     C319676   8.458  21.664   4.522 -0.2480  0.1779  0.4131
25286DOD     C119677  22.435   0.307   3.778 -0.0206  0.4098 -0.2852
25286DOD     C219678  22.319   0.689   4.133 -0.1900 -0.0882  0.0410
25286DOD     C319679  22.228   0.944   4.482  0.1557 -0.1526  0.0493
25287DOD     C119680  14.810  27.790  18.915  0.1457  0.0876  0.3846
25287DOD     C219681  14.814  27.870  18.469 -0.0007 -0.0047  0.0707
25287DOD     C319682  14.659  27.700  18.068  0.2446 -0.1464  0.0141
25288DOD     C119683   2.873   8.680  16.129 -0.0364 -0.1386  0.0707
25288DOD     C219684   3.037   9.065  15.944 -0.0262  0.0950 -0.2175
25288DOD     C319685   2.976   9.231  15.490  0.0122 -0.1533 -0.0782
25289DOD     C119686  22.155  15.998   3.866 -0.0777 -0.1663 -0.0649
25289DOD     C219687  21.992  15.558   3.926  0.1742 -0.1215 -0.2398
25289DOD     C319688  21.649  15.374   4.128  0.1233 -0.0477  0.2413
25290DOD     C119689  10.339   4.881   6.227 -0.0299  0.1775  0.1400
25290DOD     C219690  10.522   4.713   5.788  0.0332  0.0206  0.0034
25290DOD     C319691  10.836   4.785   5.454  0.0453  0.0598 -0.1437
25291DOD     C119692  27.845  17.466  25.453 -0.4886  0.1429 -0.0672
25291DOD     C219693  27.716  17.001  25.334  0.1490 -0.2100 -0.2632
25291DOD     C319694  27.574  16.638  25.603  0.1318  0.1884  0.4205
25292DOD     C119695  18.023  28.166  28.324  0.1417 -0.0787 -0.1751
25292DOD     C219696  18.345  28.439  28.408  0.1236 -0.0384  0.1091
25292DOD     C319697  18.754  28.637  28.584  0.0014 -0.0525 -0.0328
25293DOD     C119698  11.336  30.013   0.190 -0.1814  0.0186 -0.0734
25293DOD     C219699  11.025  29.851  30.246 -0.0357  0.1307 -0.1771
25293DOD     C319700  10.968  29.441  29.970 -0.1021 -0.1232 -0.0837
25294DOD     C119701   9.124  24.270  18.565 -0.0789 -0.0563 -0.1055
25294DOD     C219702   9.047  24.707  18.337 -0.0244  0.4083 -0.2409
25294DOD     C319703   9.121  25.186  18.391 -0.0343 -0.4928 -0.2888
25295DOD     C119704  23.311  20.351  24.304  0.1395 -0.0113 -0.2631
25295DOD     C219705  23.225  19.913  24.522 -0.1502 -0.1328 -0.0835
25295DOD     C319706  22.894  19.620  24.419  0.2692  0.0211 -0.2294
25296DOD     C119707  17.120  23.581  18.390 -0.1901  0.2592  0.0994
25296DOD     C219708  17.273  23.115  18.381  0.1462  0.1081  0.0785
25296DOD     C319709  16.980  22.736  18.286 -0.1893  0.2417 -0.0075
25297DOD     C119710  29.572  28.981  11.872 -0.0113  0.0659 -0.0528
25297DOD     C219711  29.242  29.143  11.505 -0.0900  0.2118  0.1646
25297DOD     C319712  29.453  29.324  11.117  0.0319 -0.2874 -0.2031
25298DOD     C119713  25.802  29.172  27.913 -0.0339 -0.3735  0.0313
25298DOD     C219714  25.569  29.233  28.304 -0.2939 -0.1210  0.0187
25298DOD     C319715  25.448  29.247  28.740  0.1519 -0.0880 -0.0641
25299DOD     C119716  11.217  10.868  14.688 -0.1105 -0.0359  0.1111
25299DOD     C219717  11.412  10.679  14.309 -0.1856 -0.1273 -0.0715
25299DOD     C319718  11.555  10.559  13.916  0.0285  0.1504  0.2718
25300DOD     C119719  14.901   4.493  27.050 -0.1841 -0.0693  0.2975
25300DOD     C219720  14.736   4.581  27.490  0.2377 -0.0214  0.2297
25300DOD     C319721  14.411   4.773  27.711 -0.0454  0.0468 -0.0088
25301DOD     C119722  14.098  14.675  17.283 -0.1592 -0.2919  0.0038
25301DOD     C219723  14.311  14.565  17.648  0.1831  0.1159  0.2222
25301DOD     C319724  14.385  14.268  17.980  0.0025  0.1157 -0.3129
25302DOD     C119725   2.716   1.447  24.712  0.1370 -0.1722 -0.3671
25302DOD     C219726   2.418   1.576  24.337 -0.0044 -0.0470  0.2327
25302DOD     C319727   2.436   1.399  23.903 -0.0312  0.1269  0.1024
25303DOD     C119728  17.762   9.552  23.201 -0.0609 -0.3240  0.1180
25303DOD     C219729  18.033   9.171  23.165  0.1823 -0.2880 -0.0714
25303DOD     C319730  18.108   8.737  23.297 -0.0158  0.0678 -0.2422
25304DOD     C119731  18.620  13.505   0.240 -0.0783 -0.1617 -0.1087
25304DOD     C219732  18.574  13.910  30.325  0.1368 -0.2928 -0.1926
25304DOD     C319733  18.384  14.007  29.816 -0.0870  0.2066  0.2139
25305DOD     C119734  20.124  17.419   3.399 -0.1125 -0.2012  0.0117
25305DOD     C219735  20.465  17.724   3.449  0.0182 -0.1870  0.3681
25305DOD     C319736  20.425  18.129   3.673 -0.1536  0.1373 -0.1313
25306DOD     C119737  13.181   5.219  13.340  0.0588  0.1496 -0.1675
25306DOD     C219738  13.031   5.282  12.925  0.1363  0.1871  0.2499
25306DOD     C319739  13.159   5.183  12.472 -0.1859  0.0849  0.2230
25307DOD     C119740  18.617  20.642   9.419 -0.1312 -0.0378  0.0204
25307DOD     C219741  18.198  20.846   9.517 -0.2952 -0.1968  0.0137
25307DOD     C319742  17.794  20.929   9.642 -0.0193 -0.2159  0.0059
25308DOD     C119743  11.340   1.275   0.664  0.1835  0.5151 -0.0493
25308DOD     C219744  10.845   1.350   0.743  0.0028 -0.0106 -0.0864
25308DOD     C319745  10.538   1.674   0.786 -0.0524 -0.0267 -0.1335
25309DOD     C119746  24.264   3.148  10.365  0.2926 -0.4074  0.3315
25309DOD     C219747  24.283   3.265  10.793  0.1251 -0.2025  0.0005
25309DOD     C319748  24.233   3.255  11.278  0.2328  0.3432 -0.1350
25310DOD     C119749  11.316   8.882  22.789  0.1567 -0.1155 -0.0965
25310DOD     C219750  11.436   9.071  23.190  0.1248 -0.2762 -0.0149
25310DOD     C319751  11.706   9.095  23.549  0.4618 -0.0710  0.2715
25311DOD     C119752  16.816  15.082   4.450  0.0637 -0.1284 -0.1639
25311DOD     C219753  16.915  15.503   4.448 -0.1288  0.0476 -0.1012
25311DOD     C319754  17.110  15.888   4.326  0.1359  0.1373  0.3181
25312DOD     C119755  15.796   0.945  19.943 -0.1218 -0.1059  0.1312
25312DOD     C219756  15.759   0.477  19.862 -0.0965 -0.2301  0.2915
25312DOD     C319757  16.027   0.141  20.099 -0.0223  0.0472  0.2998
25313DOD     C119758   0.903  17.541   6.758 -0.0687 -0.1197 -0.0666
25313DOD     C219759   0.814  17.114   6.532 -0.0176 -0.1721 -0.2863
25313DOD     C319760   0.598  16.964   6.118  0.0854  0.3522  0.1354
25314DOD     C119761   1.415   4.087  24.767 -0.0722 -0.3388 -0.1371
25314DOD     C219762   1.752   3.780  24.534  0.0654  0.0701  0.0459
25314DOD     C319763   1.809   3.268  24.620 -0.1312  0.0458 -0.1471
25315DOD     C119764  28.881  29.068   2.913 -0.1405  0.0323  0.1762
25315DOD     C219765  29.283  29.047   2.716 -0.1617 -0.2050  0.3138
25315DOD     C319766  29.626  29.326   2.507  0.0701  0.0322  0.3001
25316DOD     C119767   6.288   7.220  21.750  0.3511 -0.0827 -0.3423
25316DOD     C219768   5.914   6.934  21.671  0.4486 -0.1059 -0.0663
25316DOD     C319769   5.446   7.037  21.568 -0.1153  0.1330  0.1859
25317DOD     C119770  20.781  24.365  18.241  0.1292  0.1810  0.0857
25317DOD     C219771  20.969  24.818  18.140  0.1569 -0.3471  0.1089
25317DOD     C319772  21.271  25.235  18.129 -0.0924  0.0866  0.2487
25318DOD     C119773   7.983  12.708  18.122  0.3145 -0.0512  0.1189
25318DOD     C219774   8.298  12.694  18.455  0.0836  0.1614 -0.1526
25318DOD     C319775   8.743  12.776  18.536  0.0600 -0.1260  0.1090
25319DOD     C119776  20.071   0.104  12.199 -0.0130 -0.1756 -0.0932
25319DOD     C219777  20.080  30.051  12.377  0.1168 -0.3253  0.4847
25319DOD     C319778  20.268  29.709  12.662  0.2204 -0.5663  0.0945
25320DOD     C119779   4.676  12.252  14.021 -0.2049 -0.1826  0.0811
25320DOD     C219780   5.119  12.099  14.033  0.0191 -0.1279 -0.0509
25320DOD     C319781   5.568  11.975  14.185  0.0201  0.1742 -0.0635
25321DOD     C119782  23.874  11.196   1.151  0.0103 -0.1906  0.2231
25321DOD     C219783  23.714  11.323   1.613  0.0708  0.0144  0.0398
25321DOD     C319784  23.606  11.583   2.016  0.4383  0.1833  0.3275
25322DOD     C119785  28.971   2.693   7.993  0.0049  0.1466 -0.2318
25322DOD     C219786  28.558   2.539   7.956 -0.0737 -0.0630  0.0960
25322DOD     C319787  28.086   2.485   7.769  0.1166 -0.1327 -0.0831
25323DOD     C119788  26.830  28.188   4.906  0.0770 -0.0100  0.0546
25323DOD     C219789  26.943  28.644   4.990 -0.1490  0.1134  0.0217
25323DOD     C319790  26.777  29.011   5.200  0.2293  0.0905 -0.0584
25324DOD     C119791  20.016  26.073  19.463  0.3563  0.1824  0.0132
25324DOD     C219792  19.742  25.878  19.114  0.0536 -0.3200 -0.1334
25324DOD     C319793  19.534  26.023  18.745 -0.1830 -0.1723  0.1064
25325DOD     C119794  11.006  14.991  19.216 -0.3588 -0.1349  0.2329
25325DOD     C219795  10.899  15.317  18.966 -0.0612 -0.0989  0.2220
25325DOD     C319796  10.688  15.707  19.110 -0.0323  0.0033 -0.0053
25326DOD     C119797   5.135  26.029  22.474  0.1622 -0.1778  0.3435
25326DOD     C219798   5.375  25.727  22.276  0.3423  0.0194 -0.0290
25326DOD     C319799   5.707  25.647  21.945  0.0008 -0.3841 -0.1895
25327DOD     C119800   9.212   6.216   1.231  0.1398  0.0448  0.0691
25327DOD     C219801   8.801   6.165   1.506 -0.0181  0.0640  0.0250
25327DOD     C319802   8.565   6.067   1.952 -0.0140 -0.0884  0.0227
25328DOD     C119803  15.153   6.181  10.164  0.1365 -0.0404 -0.1326
25328DOD     C219804  15.161   6.109  10.628 -0.3204 -0.1749 -0.2419
25328DOD     C319805  15.305   5.968  11.075 -0.0205 -0.2260  0.1017
25329DOD     C119806  16.408  15.045  12.973 -0.2462  0.2184  0.4397
25329DOD     C219807  16.368  15.343  12.606  0.0784  0.1560  0.3161
25329DOD     C319808  16.647  15.353  12.192 -0.0334  0.0917  0.1748
25330DOD     C119809  11.702  28.864  24.898 -0.3153  0.0711 -0.2089
25330DOD     C219810  11.624  29.162  24.562 -0.2365  0.0148 -0.1380
25330DOD     C319811  11.767  29.629  24.595  0.0152  0.1233  0.2385
25331DOD     C119812  22.893   9.686  25.048 -0.4596  0.3021 -0.1482
25331DOD     C219813  22.513   9.601  24.842 -0.0279 -0.1838  0.1054
25331DOD     C319814  22.161   9.717  24.573  0.0021 -0.2252 -0.0074
25332DOD     C119815   6.404   3.514  28.271  0.1568 -0.1096 -0.1147
25332DOD     C219816   5.921   3.493  28.261  0.2230  0.0312 -0.1874
25332DOD     C319817   5.460   3.401  28.076  0.1778  0.4390 -0.2247
25333DOD     C119818   8.058  11.233  12.278 -0.3195 -0.0394  0.0330
25333DOD     C219819   8.356  11.119  11.954 -0.2696  0.1180  0.1292
25333DOD     C319820   8.717  11.316  11.754 -0.0185 -0.1666 -0.0418
25334DOD     C119821   6.020   2.838  18.775  0.1087  0.0942 -0.0431
25334DOD     C219822   6.016   2.339  18.794  0.4534  0.2415  0.0215
25334DOD     C319823   6.013   1.970  18.488  0.3212 -0.3417 -0.1030
25335DOD     C119824  28.529  19.283  23.639 -0.3464 -0.1280 -0.1632
25335DOD     C219825  28.360  19.568  23.332  0.1943 -0.3919 -0.1059
25335DOD     C319826  28.253  19.925  23.008  0.1827 -0.0076 -0.0632
25336DOD     C119827   8.589  23.016   5.020  0.0361  0.1783  0.3008
25336DOD     C219828   8.455  22.966   5.463 -0.3137  0.2865 -0.0830
25336DOD     C319829   8.344  23.042   5.864 -0.2381  0.1120  0.2720
25337DOD     C119830  19.799  21.014   1.709  0.1197  0.2153  0.2423
25337DOD     C219831  20.004  20.894   2.079  0.1220  0.2162 -0.0108
25337DOD     C319832  20.080  20.695   2.534 -0.3089  0.0794 -0.0269
25338DOD     C119833  14.246   3.747  11.524 -0.2705 -0.0192  0.0607
25338DOD     C219834  13.949   3.895  11.141  0.1276  0.0459 -0.0575
25338DOD     C319835  13.664   3.765  10.787  0.0560  0.1039 -0.0472
25339DOD     C119836  28.885   0.625   4.247  0.1077  0.0328 -0.1431
25339DOD     C219837  28.820   0.343   4.646 -0.1330  0.1370 -0.1277
25339DOD     C319838  28.703  30.314   4.913 -0.0909  0.7261 -0.1481
25340DOD     C119839  19.780   8.750  26.836  0.0394 -0.0787  0.2908
25340DOD     C219840  19.607   9.162  26.807 -0.0290 -0.3723 -0.1779
25340DOD     C319841  19.264   9.465  26.780 -0.1917  0.2232 -0.2105
25341DOD     C119842   6.860  16.911  18.950 -0.1752  0.0749 -0.1585
25341DOD     C219843   6.890  16.758  18.512  0.3042 -0.0642  0.1969
25341DOD     C319844   7.097  16.590  18.162 -0.0106  0.3245  0.0603
25342DOD     C119845   2.516   8.853  24.620  0.0710  0.0245 -0.4693
25342DOD     C219846   2.219   8.818  24.963 -0.1239 -0.4986 -0.2175
25342DOD     C319847   1.862   9.060  25.050 -0.0956  0.4300 -0.1624
25343DOD     C119848   7.462  14.157   0.196 -0.1452  0.0378 -0.1377
25343DOD     C219849   7.670  14.601   0.232 -0.1309  0.1825  0.2535
25343DOD     C319850   7.923  14.939  -0.019 -0.3129  0.3489 -0.3861
25344DOD     C119851  27.403   0.203   8.611 -0.3420 -0.1244 -0.3884
25344DOD     C219852  27.539   0.029   8.208  0.0905 -0.0856 -0.1931
25344DOD     C319853  27.613  30.185   7.756 -0.0198  0.0544 -0.0162
25345DOD     C119854   3.396  22.662  19.289 -0.0797  0.0698 -0.0362
25345DOD     C219855   3.281  23.095  19.198  0.0485 -0.1507  0.2418
25345DOD     C319856   3.421  23.488  19.316 -0.1022 -0.2862 -0.0692
25346DOD     C119857   4.908   7.125  25.770  0.0350 -0.1405 -0.1513
25346DOD     C219858   4.761   7.224  25.268 -0.0111 -0.1964  0.0413
25346DOD     C319859   4.606   6.872  24.956 -0.0562  0.1030 -0.1828
25347DOD     C119860  10.634  17.357  18.514 -0.0411  0.0935  0.0798
25347DOD     C219861  11.036  17.067  18.457 -0.0322 -0.1074 -0.1757
25347DOD     C319862  11.261  16.646  18.615 -0.4221  0.1379  0.3104
25348DOD     C119863  24.716  26.722   8.408 -0.3670  0.1022 -0.1755
25348DOD     C219864  24.860  26.252   8.302 -0.0615 -0.2164 -0.1236
25348DOD     C319865  24.988  25.858   8.164  0.1531  0.1353  0.0593
25349DOD     C119866   0.041  21.202  17.044 -0.0735  0.1384 -0.3123
25349DOD     C219867  30.274  21.490  16.718  0.0090 -0.0395 -0.1438
25349DOD     C319868  -0.034  21.957  16.670 -0.1865 -0.0500  0.1459
25350DOD     C119869  21.608  29.823  24.195 -0.0265  0.1171  0.2634
25350DOD     C219870  21.771  29.989  23.729  0.0384 -0.3988 -0.2330
25350DOD     C319871  21.815  29.959  23.287 -0.1536  0.1516 -0.0516
25351DOD     C119872  22.514   9.347   2.217 -0.0752  0.0307  0.2406
25351DOD     C219873  22.924   9.154   2.175  0.4536 -0.0049  0.0113
25351DOD     C319874  23.364   9.265   2.337 -0.3899 -0.0575  0.1615
25352DOD     C119875  20.207  20.494   8.495 -0.0806  0.0923 -0.0639
25352DOD     C219876  19.801  20.277   8.681 -0.1762  0.2273  0.1870
25352DOD     C319877  19.583  20.357   9.081 -0.2442  0.1553  0.0997
25353DOD     C119878  25.610  14.982  11.983 -0.2784  0.2563  0.4074
25353DOD     C219879  25.645  14.516  12.118 -0.3168  0.0760  0.0810
25353DOD     C319880  25.976  14.314  12.436  0.2155 -0.1254 -0.3109
25354DOD     C119881  13.833  19.251  19.941  0.3124  0.2239  0.0906
25354DOD     C219882  14.246  19.114  19.758 -0.1540  0.1999 -0.1758
25354DOD     C319883  14.556  18.821  19.794 -0.2105 -0.1780 -0.1327
25355DOD     C119884  20.243   3.423   5.603  0.0192 -0.1822  0.0113
25355DOD     C219885  20.378   3.673   5.189 -0.0959 -0.2407 -0.2535
25355DOD     C319886  20.766   3.860   4.969  0.1144  0.0155 -0.2590
25356DOD     C119887  23.644   7.729  26.723 -0.0518 -0.2027  0.4211
25356DOD     C219888  23.450   7.808  26.270 -0.3166  0.0733 -0.1757
25356DOD     C319889  23.391   7.810  25.781 -0.1232 -0.0991  0.2156
25357DOD     C119890  18.001   9.746  21.761 -0.1626  0.2025  0.1352
25357DOD     C219891  17.748  10.116  21.954  0.4192  0.1426  0.0438
25357DOD     C319892  17.974  10.500  21.925 -0.2852 -0.0773 -0.0347
25358DOD     C119893   0.546  19.526  12.709  0.0924 -0.3188  0.0393
25358DOD     C219894   0.559  19.478  12.286 -0.0072 -0.0394  0.1328
25358DOD     C319895   0.915  19.524  11.954 -0.0913  0.0739  0.0607
25359DOD     C119896   4.061   7.781  10.896  0.1070 -0.0630  0.0102
25359DOD     C219897   4.483   7.917  10.722 -0.1586  0.1125 -0.1858
25359DOD     C319898   4.802   8.283  10.682 -0.0228 -0.0632 -0.1715
25360DOD     C119899  22.707  11.915  29.799  0.0909  0.1770 -0.0694
25360DOD     C219900  22.261  12.130  29.998  0.0042 -0.2042  0.3291
25360DOD     C319901  21.907  12.422  29.978 -0.0580 -0.2164 -0.3287
25361DOD     C119902  14.902  16.545   2.287 -0.0270 -0.1256 -0.0625
25361DOD     C219903  14.984  16.343   1.878 -0.1037 -0.0854 -0.0989
25361DOD     C319904  15.127  16.144   1.466  0.0610  0.1473 -0.0379
25362DOD     C119905   3.892  18.989  28.349 -0.1286 -0.4163  0.0793
25362DOD     C219906   3.677  18.594  28.320  0.0839 -0.4014 -0.2396
25362DOD     C319907   3.502  18.230  28.123 -0.2545  0.1952 -0.2177
25363DOD     C119908  13.010  19.311   3.308  0.0833 -0.0682 -0.2703
25363DOD     C219909  13.104  18.866   3.310  0.0289 -0.3361 -0.1647
25363DOD     C319910  13.105  18.374   3.100 -0.0573 -0.1611 -0.0583
25364DOD     C119911  26.221   9.685  10.633  0.3195 -0.0562  0.1109
25364DOD     C219912  26.017   9.286  10.769 -0.0339  0.1808 -0.1751
25364DOD     C319913  25.743   8.968  10.948  0.3362 -0.1130 -0.0215
25365DOD     C119914  23.224   1.713  28.460  0.1364  0.1353 -0.0478
25365DOD     C219915  23.347   1.927  28.811  0.0725 -0.1205 -0.1395
25365DOD     C319916  23.624   2.293  28.946 -0.2631 -0.0796  0.2109
25366DOD     C119917  28.415  18.329   7.216  0.0847 -0.2591  0.2130
25366DOD     C219918  28.568  17.909   7.301 -0.2836 -0.2304  0.0288
25366DOD     C319919  28.872  17.707   7.606  0.0595 -0.0778 -0.0345
25367DOD     C119920   1.627  17.021   2.272 -0.2844 -0.2743  0.0550
25367DOD     C219921   1.965  17.286   2.446 -0.1569 -0.1082 -0.1011
25367DOD     C319922   2.189  17.439   2.871  0.2900  0.0984  0.2558
25368DOD     C119923   4.143  14.898   8.787 -0.2448  0.2105  0.1929
25368DOD     C219924   3.779  15.039   8.599 -0.0665 -0.0087  0.1289
25368DOD     C319925   3.592  15.019   8.179 -0.3347  0.0828 -0.3491
25369DOD     C119926  19.256  16.173  11.025  0.2199  0.1000  0.2123
25369DOD     C219927  19.098  16.642  10.982  0.0440 -0.2389 -0.1765
25369DOD     C319928  18.850  16.947  10.758  0.2176  0.0577  0.1935
25370DOD     C119929  11.366  28.015  15.399  0.2219  0.0919 -0.2183
25370DOD     C219930  11.553  27.867  15.743  0.0344 -0.0772  0.2318
25370DOD     C319931  11.689  27.441  15.912  0.3562 -0.1835  0.2364
25371DOD     C119932   1.332  16.145   6.085  0.0079 -0.1410  0.0350
25371DOD     C219933   1.084  15.750   6.261 -0.2018 -0.1455  0.2199
25371DOD     C319934   0.931  15.704   6.689 -0.2079 -0.0585 -0.0487
25372DOD     C119935  19.008   0.147  21.289 -0.0859  0.0359 -0.1305
25372DOD     C219936  19.203  30.191  20.947 -0.1107 -0.3008  0.0289
25372DOD     C319937  19.116  29.860  20.666  0.0534  0.0858  0.0199
25373DOD     C119938   4.000  12.567  27.673  0.1918  0.3055 -0.2823
25373DOD     C219939   4.435  12.784  27.770 -0.1415 -0.1510 -0.0439
25373DOD     C319940   4.836  13.058  27.704 -0.0947 -0.0322  0.1091
25374DOD     C119941  23.170   3.661  24.525  0.0643 -0.2208 -0.0158
25374DOD     C219942  22.777   3.816  24.699  0.0933  0.2699 -0.1616
25374DOD     C319943  22.479   4.120  24.429  0.1058  0.2181 -0.2252
25375DOD     C119944  24.019  24.502   0.818  0.0473 -0.3719 -0.0797
25375DOD     C219945  24.084  24.954   0.635  0.1485  0.0859  0.0309
25375DOD     C319946  24.438  25.195   0.459  0.2836  0.3011 -0.3369
25376DOD     C119947  12.525  21.225   8.997 -0.1422  0.0610  0.0474
25376DOD     C219948  12.556  21.176   9.470 -0.0528 -0.1115  0.0336
25376DOD     C319949  12.718  20.967   9.890 -0.0020 -0.0951 -0.0748
25377DOD     C119950  13.728  27.801   8.944 -0.0394 -0.2611 -0.0165
25377DOD     C219951  14.141  27.932   8.834 -0.1388  0.0070  0.3174
25377DOD     C319952  14.315  28.306   8.555 -0.1282 -0.0298 -0.4882
25378DOD     C119953   9.790  11.235   7.383 -0.1845 -0.2528 -0.0253
25378DOD     C219954   9.812  10.954   7.770  0.0851  0.0383  0.0349
25378DOD     C319955   9.565  10.825   8.180 -0.2223  0.3532  0.3746
25379DOD     C119956  20.956  14.928  18.948 -0.0030  0.0698  0.2102
25379DOD     C219957  20.683  15.079  18.651 -0.2162  0.0306 -0.1497
25379DOD     C319958  20.215  14.947  18.377  0.0636  0.3562 -0.2222
25380DOD     C119959   9.509  16.162   8.680 -0.0597 -0.0015  0.3084
25380DOD     C219960   9.284  16.531   8.869 -0.0829  0.3892 -0.1030
25380DOD     C319961   9.310  16.944   9.116  0.3044  0.1929  0.2779
25381DOD     C119962   6.568  24.818  10.212 -0.0027 -0.0720 -0.0876
25381DOD     C219963   6.834  25.174  10.053  0.0485  0.3806 -0.3434
25381DOD     C319964   6.948  25.565   9.911 -0.2666 -0.0911 -0.0782
25382DOD     C119965  30.086   6.888   9.420 -0.0600  0.0273 -0.2628
25382DOD     C219966  29.673   7.049   9.514 -0.0358 -0.1486 -0.0368
25382DOD     C319967  29.445   7.224   9.913  0.0411  0.1374  0.0120
25383DOD     C119968  19.025   5.979   3.362 -0.1114 -0.1845 -0.2751
25383DOD     C219969  18.846   5.660   3.661 -0.0990  0.0260 -0.0244
25383DOD     C319970  18.528   5.284   3.569 -0.4201  0.4528  0.3387
25384DOD     C119971   8.333  28.410   1.320  0.0560  0.3180 -0.0378
25384DOD     C219972   8.811  28.475   1.439 -0.1962 -0.1196 -0.1262
25384DOD     C319973   9.286  28.380   1.636  0.0862  0.1021 -0.0583
25385DOD     C119974  29.348  22.497  25.397  0.1002 -0.2584 -0.3640
25385DOD     C219975  29.784  22.423  25.276 -0.2196  0.0407 -0.0974
25385DOD     C319976  30.232  22.642  25.292 -0.0719  0.1355  0.0205
25386DOD     C119977  14.287  23.135  14.662 -0.0146  0.0923  0.0525
25386DOD     C219978  14.448  22.820  14.978  0.0883 -0.2604  0.0245
25386DOD     C319979  14.549  22.470  15.212  0.3682  0.1392 -0.2653
25387DOD     C119980  22.579  29.155  19.086 -0.0960 -0.2622 -0.2240
25387DOD     C219981  22.309  29.188  18.742  0.3378 -0.3330  0.0248
25387DOD     C319982  22.379  29.537  18.468 -0.2583  0.0230 -0.0554
25388DOD     C119983  16.276  17.996  28.248  0.0716  0.0340  0.0197
25388DOD     C219984  16.005  18.353  28.359 -0.0903 -0.1817 -0.0975
25388DOD     C319985  15.904  18.523  28.814  0.0643  0.2028  0.2760
25389DOD     C119986  18.376   3.587   8.803 -0.0614  0.1192  0.2884
25389DOD     C219987  18.533   3.775   9.232 -0.2171 -0.2118  0.0848
25389DOD     C319988  18.669   4.018   9.634  0.2948 -0.2871  0.1496
25390DOD     C119989  13.318   5.518   8.864 -0.1680 -0.1144 -0.6078
25390DOD     C219990  12.928   5.187   8.912 -0.0936 -0.0029  0.0532
25390DOD     C319991  12.459   5.130   8.822 -0.1790 -0.1043  0.0291
25391DOD     C119992   7.750   4.429   2.325  0.0447  0.0296 -0.0012
25391DOD     C219993   7.314   4.398   2.164 -0.1870 -0.2073  0.0027
25391DOD     C319994   6.964   4.214   1.942  0.0563  0.1391 -0.2984
25392DOD     C119995  17.034  16.354  20.154 -0.2324 -0.5309 -0.0947
25392DOD     C219996  17.477  16.403  20.306  0.1337  0.0243 -0.1255
25392DOD     C319997  17.637  16.823  20.401 -0.0540  0.2809  0.0894
25393DOD     C119998   1.736   1.289  23.115 -0.0063 -0.0773 -0.1890
25393DOD     C219999   2.098   1.025  23.067 -0.1492 -0.0618  0.4977
25393DOD     C320000   2.256   0.559  22.968  0.1027  0.0166 -0.2844
25394DOD     C120001   6.753  15.107  27.492 -0.2564  0.2722  0.3217
25394DOD     C220002   6.907  15.122  27.039  0.4027 -0.1112  0.2142
25394DOD     C320003   7.187  14.806  26.895  0.3358 -0.1394 -0.2472
25395DOD     C120004  26.483  28.723  26.198  0.0401 -0.1453 -0.2095
25395DOD     C220005  26.272  29.031  26.532  0.2669  0.0099 -0.1011
25395DOD     C320006  25.936  28.997  26.884  0.1182  0.0943  0.0447
25396DOD     C120007  27.277  24.537  16.797  0.3024 -0.2121 -0.0659
25396DOD     C220008  27.184  24.085  16.908  0.0654  0.0533 -0.0356
25396DOD     C320009  26.801  23.765  16.761  0.0418 -0.0520 -0.0136
25397DOD     C120010  17.322   2.338  23.352  0.5046 -0.1136 -0.3066
25397DOD     C220011  16.874   2.254  23.376 -0.1155  0.0204  0.2100
25397DOD     C320012  16.625   2.025  23.100 -0.3143  0.1614  0.0803
25398DOD     C120013  18.563   2.421  24.713  0.0251  0.0910 -0.3488
25398DOD     C220014  18.262   2.208  24.456  0.0721  0.1112 -0.1725
25398DOD     C320015  18.221   2.328  24.034 -0.1416  0.2173 -0.4396
25399DOD     C120016  20.106  22.040  14.810  0.3417 -0.0177  0.0331
25399DOD     C220017  20.348  21.849  14.451 -0.0684 -0.1746 -0.4183
25399DOD     C320018  20.567  21.737  13.987 -0.3557 -0.0624  0.1771
25400DOD     C120019  28.672  10.103   2.757  0.0881 -0.1640 -0.0565
25400DOD     C220020  28.772   9.694   2.916  0.1022 -0.0091  0.2807
25400DOD     C320021  28.784   9.478   3.332 -0.2232 -0.3124  0.1374
25401DOD     C120022   0.516  30.205  14.361 -0.1466  0.0032  0.0669
25401DOD     C220023   0.661   0.338  14.571 -0.3790 -0.1568 -0.0021
25401DOD     C320024   0.608   0.783  14.455 -0.0172 -0.0431  0.2236
25402DOD     C120025  25.284  24.611  27.285  0.1261  0.1785 -0.0704
25402DOD     C220026  25.517  24.533  26.911 -0.0682 -0.0709  0.0279
25402DOD     C320027  25.501  24.234  26.604 -0.0272  0.0220  0.0135
25403DOD     C120028   2.659   5.830  23.137 -0.1055  0.0973 -0.0640
25403DOD     C220029   2.640   5.342  23.058 -0.1220  0.1154 -0.1327
25403DOD     C320030   2.591   4.895  23.199 -0.2725  0.3037  0.0926
25404DOD     C120031  21.096   0.557  11.472  0.3268  0.0389  0.0026
25404DOD     C220032  20.752   0.415  11.175  0.3404  0.1970  0.0120
25404DOD     C320033  20.418   0.662  10.889  0.3395  0.1986  0.3297
25405DOD     C120034  24.375  13.055  11.011 -0.0731  0.0122 -0.2723
25405DOD     C220035  24.325  12.675  11.269 -0.1371  0.2951  0.1795
25405DOD     C320036  24.383  12.415  11.690  0.0677  0.2465 -0.0340
25406DOD     C120037   4.319  11.145  27.712  0.1509  0.0165  0.2197
25406DOD     C220038   4.663  11.003  27.376 -0.2030 -0.1428  0.1394
25406DOD     C320039   5.084  10.978  27.184 -0.2129 -0.1708  0.2033
25407DOD     C120040  17.964  28.921  25.801  0.0212  0.0761  0.1865
25407DOD     C220041  18.411  28.922  25.711  0.2070  0.0116 -0.2359
25407DOD     C320042  18.895  28.962  25.722 -0.2494  0.3041 -0.1757
25408DOD     C120043  20.902  12.790   4.309  0.3100 -0.0771  0.0528
25408DOD     C220044  20.459  12.793   4.393 -0.2488  0.0605  0.1445
25408DOD     C320045  20.065  12.796   4.201  0.0323  0.2046 -0.0180
25409DOD     C120046  11.744  30.329  11.441 -0.0042 -0.0054  0.3002
25409DOD     C220047  12.188   0.103  11.544 -0.1427  0.3601  0.0122
25409DOD     C320048  12.437  30.068  11.702 -0.1156 -0.1702  0.0792
25410DOD     C120049   2.517  21.538  17.928 -0.0358 -0.1814  0.0343
25410DOD     C220050   2.777  21.424  18.313  0.0137 -0.0219 -0.2206
25410DOD     C320051   2.841  20.933  18.314  0.0855 -0.0379 -0.0488
25411DOD     C120052  19.438  22.771   5.737 -0.1576  0.1168  0.2894
25411DOD     C220053  19.261  22.468   6.037  0.3069  0.1670  0.0397
25411DOD     C320054  19.214  22.049   5.892 -0.0121 -0.1190 -0.2276
25412DOD     C120055  23.508  14.913  19.816  0.0320  0.0124  0.1431
25412DOD     C220056  23.104  14.946  20.000 -0.0156 -0.1331  0.1218
25412DOD     C320057  22.687  14.862  20.192 -0.3062 -0.0561 -0.4173
25413DOD     C120058   7.293  11.876   1.811 -0.2511 -0.0344  0.0417
25413DOD     C220059   7.732  11.717   1.709 -0.2379  0.2815 -0.3695
25413DOD     C320060   8.236  11.953   1.697 -0.1810 -0.0017 -0.0915
25414DOD     C120061   9.348  10.990  10.537  0.1299 -0.2161 -0.1802
25414DOD     C220062   9.040  10.810  10.879  0.0862  0.1297  0.2951
25414DOD     C320063   8.932  10.612  11.292 -0.1527 -0.0213 -0.0447
25415DOD     C120064  26.322  25.178  16.304  0.5267  0.1880 -0.0474
25415DOD     C220065  25.927  25.332  16.232  0.0398 -0.0167  0.0105
25415DOD     C320066  25.478  25.411  16.243  0.2817 -0.2777  0.0185
25416DOD     C120067  17.386  21.369  14.355 -0.0563 -0.0643 -0.3013
25416DOD     C220068  17.043  21.155  14.073 -0.1316 -0.4067 -0.0868
25416DOD     C320069  16.780  20.920  13.780 -0.0009  0.0609  0.1296
25417DOD     C120070  10.964   0.213   0.164 -0.0853  0.0435 -0.2675
25417DOD     C220071  10.956   0.418   0.577 -0.0315  0.0375 -0.1170
25417DOD     C320072  10.812   0.327   1.015  0.1792  0.0946  0.0469
25418DOD     C120073  28.371  27.904   5.642 -0.2124  0.0081  0.4302
25418DOD     C220074  28.553  28.296   5.618 -0.0122  0.1813 -0.1392
25418DOD     C320075  28.942  28.518   5.740  0.1808 -0.0425  0.0339
25419DOD     C120076   9.071   1.427  15.458  0.0669  0.1969 -0.0824
25419DOD     C220077   9.013   1.018  15.588  0.1405  0.4066 -0.0802
25419DOD     C320078   8.719   0.659  15.725 -0.0809  0.2259  0.1260
25420DOD     C120079   8.641  20.553  22.499  0.1021  0.2488 -0.2051
25420DOD     C220080   8.447  20.823  22.173  0.2934  0.3058 -0.3038
25420DOD     C320081   8.295  20.919  21.736 -0.2156  0.0716  0.0862
25421DOD     C120082  13.617  23.656  29.550  0.0047 -0.2123  0.3278
25421DOD     C220083  13.740  23.195  29.575  0.0118  0.1093  0.1231
25421DOD     C320084  14.163  22.954  29.529  0.0802  0.0178 -0.1660
25422DOD     C120085   3.381  11.381   2.349 -0.1095  0.0582  0.1079
25422DOD     C220086   3.649  11.547   2.029  0.2318 -0.0227 -0.2389
25422DOD     C320087   3.707  11.643   1.630  0.1772  0.0693 -0.2775
25423DOD     C120088  14.030  11.085   6.890 -0.0385  0.1428 -0.4643
25423DOD     C220089  14.398  11.143   6.563  0.1093 -0.0138  0.0126
25423DOD     C320090  14.786  10.843   6.547  0.0437 -0.0759 -0.1459
25424DOD     C120091  21.766  29.804  19.723  0.1859 -0.0779  0.3959
25424DOD     C220092  22.186  30.097  19.777 -0.0506  0.4139 -0.1013
25424DOD     C320093  22.402   0.101  20.052 -0.2122 -0.2284 -0.1028
25425DOD     C120094  20.984  12.682  23.260 -0.3466  0.1718  0.0991
25425DOD     C220095  21.101  12.282  23.223  0.1493  0.0151 -0.2993
25425DOD     C320096  21.488  12.034  23.248  0.2612  0.2221 -0.1582
25426DOD     C120097  16.118  22.951  15.886 -0.0208 -0.0780 -0.0572
25426DOD     C220098  15.701  22.851  15.770 -0.2055 -0.2136  0.0266
25426DOD     C320099  15.509  22.731  15.337 -0.4206 -0.1324  0.1160
25427DOD     C120100   7.722   1.905   9.934  0.2604  0.1724  0.2244
25427DOD     C220101   7.915   2.208   9.621 -0.3582 -0.2230  0.2161
25427DOD     C320102   8.257   2.495   9.465 -0.3571  0.0493 -0.1320
25428DOD     C120103  18.549  18.220   5.486  0.1786 -0.2770  0.2060
25428DOD     C220104  18.884  17.921   5.329  0.1305  0.2237  0.0936
25428DOD     C320105  18.787  17.575   4.955 -0.0022  0.2228 -0.0269
25429DOD     C120106  23.410  11.684  17.520 -0.2117 -0.0187  0.0803
25429DOD     C220107  23.471  12.019  17.803  0.3824  0.0848 -0.0082
25429DOD     C320108  23.324  11.988  18.194 -0.0017 -0.0605  0.0023
25430DOD     C120109   7.426  16.110   8.381 -0.1846 -0.2970 -0.1580
25430DOD     C220110   7.531  15.724   8.491  0.0012 -0.0351 -0.2100
25430DOD     C320111   7.589  15.572   8.930  0.0086 -0.0090  0.0756
25431DOD     C120112   4.780  22.009  22.942 -0.1497 -0.2524 -0.2861
25431DOD     C220113   5.066  22.320  22.770  0.0460  0.0351 -0.0491
25431DOD     C320114   5.308  22.467  22.434  0.1481  0.0985  0.0774
25432DOD     C120115  19.342  15.945  22.442 -0.1641 -0.0000 -0.3204
25432DOD     C220116  19.244  15.822  21.997  0.0066  0.1021  0.2474
25432DOD     C320117  19.209  15.540  21.662 -0.0360  0.2304 -0.0731
25433DOD     C120118  23.745   9.901  16.104  0.2487 -0.1575  0.0214
25433DOD     C220119  23.338  10.132  16.027  0.0715 -0.3085 -0.0055
25433DOD     C320120  23.145  10.453  15.689 -0.0386  0.3202 -0.0211
25434DOD     C120121   7.013  30.049   5.260  0.1444  0.0622 -0.1579
25434DOD     C220122   6.680   0.037   5.371  0.0340 -0.2135  0.1635
25434DOD     C320123   6.184   0.026   5.403  0.0820 -0.1349 -0.2338
25435DOD     C120124   3.264   9.417   4.487  0.0508 -0.1482 -0.2802
25435DOD     C220125   3.011   9.650   4.812 -0.3936  0.1489 -0.1690
25435DOD     C320126   2.721   9.830   5.031  0.0790  0.0282  0.0447
25436DOD     C120127  14.053   3.026   4.543 -0.0101  0.0402 -0.1924
25436DOD     C220128  14.483   3.194   4.487  0.3888  0.2057  0.1906
25436DOD     C320129  14.891   3.324   4.672  0.1783 -0.0124  0.1420
25437DOD     C120130  29.278   5.704  25.426 -0.1476  0.0470 -0.3671
25437DOD     C220131  29.314   5.388  25.804  0.1466  0.0872  0.2477
25437DOD     C320132  29.424   4.935  25.927  0.0346 -0.1627 -0.4340
25438DOD     C120133  21.861  22.060  18.420 -0.1454  0.3211 -0.1988
25438DOD     C220134  21.804  22.495  18.249 -0.0371  0.1111  0.2415
25438DOD     C320135  21.808  22.890  17.952 -0.0348 -0.0094 -0.0966
25439DOD     C120136   7.669   0.601  10.064  0.2267 -0.1381  0.2642
25439DOD     C220137   7.928   0.324  10.342 -0.1962 -0.1076  0.2687
25439DOD     C320138   8.031   0.231  10.809  0.2009 -0.2524 -0.0194
25440DOD     C120139   5.136  25.573  10.470  0.1648 -0.1007 -0.4921
25440DOD     C220140   5.170  26.072  10.388 -0.2086  0.2714 -0.1897
25440DOD     C320141   5.243  26.559  10.389 -0.1304  0.0057 -0.1588
25441DOD     C120142  25.930  21.694   6.164 -0.0921  0.0667 -0.3167
25441DOD     C220143  25.854  21.961   6.529  0.1743 -0.0022  0.1217
25441DOD     C320144  25.711  22.364   6.609 -0.1770  0.0425  0.0312
25442DOD     C120145  22.900  21.155  24.287  0.0669  0.1409  0.0915
25442DOD     C220146  23.062  21.185  24.716 -0.0791  0.0887  0.1359
25442DOD     C320147  23.305  21.507  24.950 -0.1277 -0.1652 -0.0981
25443DOD     C120148  25.486   4.760  24.845  0.3544  0.0755 -0.1018
25443DOD     C220149  25.305   4.428  24.558  0.1843 -0.2405  0.1819
25443DOD     C320150  25.177   3.965  24.621 -0.1021 -0.0149 -0.0383
25444DOD     C120151   7.650  23.529  25.446 -0.2319 -0.0617 -0.3423
25444DOD     C220152   7.823  23.943  25.258 -0.1410  0.1350  0.1996
25444DOD     C320153   7.742  24.365  25.149 -0.1288  0.1568  0.2249
25445DOD     C120154  29.658  11.454  15.513  0.0420 -0.0515  0.1959
25445DOD     C220155  29.459  11.128  15.830  0.1170 -0.1342  0.1046
25445DOD     C320156  29.057  10.925  15.789 -0.2016 -0.0869 -0.2893
25446DOD     C120157  18.375   7.701  15.055 -0.2018 -0.1791 -0.1679
25446DOD     C220158  17.955   7.843  14.913  0.0349 -0.1009 -0.1925
25446DOD     C320159  17.796   7.988  14.489  0.0171 -0.2433 -0.0941
25447DOD     C120160  29.960  18.281   8.186 -0.0726 -0.2838 -0.0370
25447DOD     C220161  29.705  18.077   7.816 -0.1470  0.1708  0.4856
25447DOD     C320162  29.308  17.907   7.755 -0.1137  0.0808  0.0325
25448DOD     C120163  28.827   8.243  28.073 -0.0224  0.1193 -0.1353
25448DOD     C220164  28.630   8.056  28.419 -0.0251  0.1237  0.0261
25448DOD     C320165  28.443   7.893  28.820 -0.1702 -0.0909 -0.2167
25449DOD     C120166  18.146  16.945   7.037  0.0260  0.2825  0.2166
25449DOD     C220167  18.091  16.578   6.843  0.1508 -0.0951  0.2829
25449DOD     C320168  18.199  16.121   6.897 -0.0512  0.2068  0.0945
25450DOD     C120169   4.962  10.479  27.890 -0.0960  0.0352  0.2539
25450DOD     C220170   4.776  10.356  27.505  0.0432 -0.0984  0.1388
25450DOD     C320171   4.537  10.050  27.323  0.0514 -0.1971 -0.0339
25451DOD     C120172  21.316   3.601  13.303  0.2032 -0.0447  0.0021
25451DOD     C220173  21.319   3.181  13.025 -0.0017 -0.1012 -0.1280
25451DOD     C320174  21.309   2.762  13.044 -0.0376  0.6781  0.1731
25452DOD     C120175  25.096  27.822   5.891 -0.1324  0.1243  0.1003
25452DOD     C220176  24.634  27.674   5.950  0.1307  0.0879 -0.2673
25452DOD     C320177  24.277  27.768   5.665  0.1637  0.1530 -0.0938
25453DOD     C120178  17.982   5.772  30.042 -0.0637 -0.0438 -0.0466
25453DOD     C220179  17.523   5.980  30.233 -0.1129  0.0900 -0.1042
25453DOD     C320180  17.140   6.221  -0.010  0.0621 -0.2748 -0.0795
25454DOD     C120181  14.876  12.292  13.020  0.0985 -0.1629 -0.0377
25454DOD     C220182  14.559  12.055  12.761 -0.0110  0.1859  0.0012
25454DOD     C320183  14.242  11.685  12.724 -0.1379 -0.2629  0.1992
25455DOD     C120184   7.548  19.821   8.633  0.0890 -0.0925  0.1826
25455DOD     C220185   7.099  19.735   8.355  0.1995 -0.1284  0.0425
25455DOD     C320186   6.656  19.708   8.208  0.0348  0.1047  0.2502
25456DOD     C120187  24.328  12.494  12.505  0.2699 -0.0003  0.0471
25456DOD     C220188  23.990  12.418  12.841 -0.3798 -0.1355 -0.1640
25456DOD     C320189  23.657  12.410  13.188 -0.0397 -0.0539  0.0974
25457DOD     C120190   7.024  13.995  25.469 -0.2866 -0.3586  0.3870
25457DOD     C220191   6.925  13.987  24.994  0.1899  0.0161 -0.0145
25457DOD     C320192   6.781  14.161  24.587  0.0950  0.1788 -0.0676
25458DOD     C120193   3.678   7.831  11.191 -0.0140  0.1342 -0.2029
25458DOD     C220194   3.286   7.798  11.041  0.0844 -0.1969  0.2607
25458DOD     C320195   3.060   7.758  10.659  0.3280  0.2503 -0.0633
25459DOD     C120196  15.586   1.731   5.303  0.0484  0.0701  0.2151
25459DOD     C220197  15.550   2.060   5.636 -0.0974  0.5240 -0.0700
25459DOD     C320198  15.605   2.077   6.093  0.2387 -0.1503  0.1259
25460DOD     C120199  17.560  28.385  10.351 -0.0294 -0.2369 -0.3427
25460DOD     C220200  17.826  28.524   9.976 -0.2439 -0.0007 -0.2546
25460DOD     C320201  18.002  28.444   9.569 -0.2086 -0.2565  0.1232
25461DOD     C120202  23.331  14.900  13.584  0.0481  0.1290  0.0159
25461DOD     C220203  23.405  14.463  13.387  0.3083 -0.1985  0.2236
25461DOD     C320204  23.648  14.139  13.124  0.2400  0.3403 -0.0815
25462DOD     C120205   1.537  26.177  15.710  0.3636  0.1354  0.1216
25462DOD     C220206   1.100  26.105  15.910  0.1145  0.0884 -0.3205
25462DOD     C320207   0.788  25.847  15.696 -0.3344 -0.3120 -0.2449
25463DOD     C120208  21.466  26.321  26.547 -0.1938  0.0843 -0.0540
25463DOD     C220209  21.412  26.649  26.221 -0.0761 -0.3864  0.3105
25463DOD     C320210  21.506  26.794  25.750  0.2798 -0.0522 -0.1413
25464DOD     C120211   4.428   8.301   2.789 -0.0973  0.0769  0.0639
25464DOD     C220212   4.332   8.686   2.518 -0.0180 -0.2938 -0.1949
25464DOD     C320213   4.187   8.873   2.089 -0.0214 -0.0578  0.2177
25465DOD     C120214  23.961   2.320  24.040  0.0168 -0.1599 -0.1304
25465DOD     C220215  23.880   2.695  24.291 -0.1158  0.3734 -0.0834
25465DOD     C320216  23.695   2.785  24.709  0.1243 -0.1219  0.0920
25466DOD     C120217   4.436  20.755  12.415 -0.1670 -0.1851 -0.2413
25466DOD     C220218   4.519  20.625  12.853 -0.1542 -0.3748 -0.3030
25466DOD     C320219   4.325  20.455  13.230  0.0321  0.1197 -0.1320
25467DOD     C120220  27.739   1.724  15.416  0.1041 -0.1389 -0.0793
25467DOD     C220221  27.591   1.439  15.710  0.3691 -0.0733 -0.3106
25467DOD     C320222  27.482   1.512  16.149 -0.4861  0.2209  0.3267
25468DOD     C120223  22.562  18.132   4.392 -0.0353  0.1568  0.0336
25468DOD     C220224  22.408  18.531   4.176 -0.1357  0.0425 -0.0065
25468DOD     C320225  22.284  18.998   4.086 -0.1843  0.0301 -0.2167
25469DOD     C120226   9.163   8.134  10.778  0.1236 -0.1819 -0.0977
25469DOD     C220227   9.303   8.241  10.319 -0.0113 -0.2396  0.0421
25469DOD     C320228   8.931   8.521  10.153 -0.0413  0.0737  0.1663
25470DOD     C120229   7.843  13.358   7.055 -0.1305  0.5281  0.1147
25470DOD     C220230   7.850  13.745   6.758  0.0562  0.0224 -0.4019
25470DOD     C320231   7.601  14.021   6.411 -0.1326 -0.1416  0.0559
25471DOD     C120232  24.986   4.128  30.065 -0.3400  0.4529  0.1228
25471DOD     C220233  24.560   4.001  29.961 -0.3525  0.1865  0.0549
25471DOD     C320234  24.244   3.810  29.750 -0.0207  0.2473  0.0624
25472DOD     C120235   2.350   9.996  16.496 -0.1202  0.0484 -0.1219
25472DOD     C220236   2.159   9.942  16.942 -0.0515  0.1319 -0.0364
25472DOD     C320237   1.982   9.719  17.351  0.0173 -0.1826  0.2107
25473DOD     C120238   7.764  28.011  14.411  0.0504  0.1548 -0.1180
25473DOD     C220239   8.054  28.333  14.546  0.0509  0.1115  0.1924
25473DOD     C320240   8.397  28.587  14.438 -0.3046 -0.0848  0.1279
25474DOD     C120241   8.589  20.997  21.317 -0.5691  0.1673 -0.0577
25474DOD     C220242   8.161  21.019  21.264 -0.0209 -0.3098 -0.2395
25474DOD     C320243   7.714  21.069  21.104  0.2201  0.3032 -0.0936
25475DOD     C120244  14.282  21.090  25.324 -0.0850 -0.4028  0.0459
25475DOD     C220245  14.393  21.450  25.022  0.0183 -0.1309 -0.1912
25475DOD     C320246  14.463  21.810  24.746 -0.2327  0.1543 -0.2312
25476DOD     C120247  22.510  20.789  25.848 -0.0128  0.1234 -0.0293
25476DOD     C220248  22.741  20.495  25.623  0.2477 -0.2840  0.0362
25476DOD     C320249  22.915  20.094  25.479 -0.0410 -0.4105  0.0860
25477DOD     C120250  23.065  25.673  26.149  0.3021  0.1679  0.0082
25477DOD     C220251  22.631  25.867  25.988 -0.1034  0.0453  0.2164
25477DOD     C320252  22.358  26.109  25.641 -0.0543 -0.0818  0.0758
25478DOD     C120253  24.565  20.235  28.900 -0.0622 -0.0592 -0.1514
25478DOD     C220254  24.703  20.668  28.760  0.1379 -0.1204  0.2203
25478DOD     C320255  24.765  21.068  28.491 -0.0081  0.3234 -0.0347
25479DOD     C120256  25.003  10.325  15.855  0.0730 -0.1094 -0.0419
25479DOD     C220257  25.373  10.181  16.195  0.0458  0.2296 -0.1912
25479DOD     C320258  25.858  10.241  16.347  0.0961 -0.1464 -0.0807
25480DOD     C120259  28.963  16.426   9.461 -0.0701  0.2397  0.1253
25480DOD     C220260  29.025  16.629   9.023  0.4231  0.0697 -0.2203
25480DOD     C320261  29.051  16.535   8.524  0.2141  0.2214 -0.1351
25481DOD     C120262  20.287   7.702  18.270 -0.1433 -0.0534  0.2263
25481DOD     C220263  20.193   7.305  18.009  0.2503 -0.1886  0.2845
25481DOD     C320264  20.218   7.146  17.539  0.1831 -0.0933 -0.4111
25482DOD     C120265  18.725  12.800  26.642 -0.0890  0.3357  0.0894
25482DOD     C220266  18.959  13.042  26.928  0.1565 -0.2524  0.1047
25482DOD     C320267  19.287  13.279  27.061  0.1808 -0.0201  0.1264
25483DOD     C120268   6.393   9.273   8.248  0.1720  0.1004 -0.0583
25483DOD     C220269   6.387   9.357   8.664  0.0372  0.0493  0.0714
25483DOD     C320270   6.636   9.636   8.974 -0.3867 -0.1033 -0.0334
25484DOD     C120271  11.798  15.752  17.312  0.0944 -0.0511 -0.1044
25484DOD     C220272  12.200  15.766  17.491  0.2320  0.1724  0.0979
25484DOD     C320273  12.610  15.524  17.438  0.0527  0.2312  0.3406
25485DOD     C120274   0.670  19.511  16.224 -0.1302 -0.0453  0.0210
25485DOD     C220275   0.459  19.877  16.402  0.1309  0.1594 -0.1355
25485DOD     C320276   0.269  20.103  16.780 -0.0079 -0.0274 -0.1606
25486DOD     C120277  30.065  12.492  29.099  0.0457  0.3280  0.1329
25486DOD     C220278   0.020  12.379  28.712 -0.0244  0.0324 -0.2445
25486DOD     C320279   0.367  12.239  28.416  0.2058  0.2489 -0.0005
25487DOD     C120280  28.925  20.920  27.295  0.3866  0.1204  0.2579
25487DOD     C220281  29.118  21.025  27.663  0.0039 -0.4189  0.1263
25487DOD     C320282  29.068  21.205  28.098 -0.1160  0.2515 -0.1207
25488DOD     C120283   9.293   6.840   7.931  0.1992  0.0204 -0.0248
25488DOD     C220284   9.221   7.245   8.175  0.2090  0.0365  0.2269
25488DOD     C320285   8.940   7.509   8.444  0.2785 -0.1679 -0.2271
25489DOD     C120286  14.917  12.224  27.297  0.0979 -0.1985  0.1783
25489DOD     C220287  14.866  12.603  27.662 -0.1403  0.1823 -0.2063
25489DOD     C320288  15.037  13.053  27.724  0.0925  0.1040  0.0882
25490DOD     C120289  21.740   4.039  27.921 -0.0762  0.3564 -0.1263
25490DOD     C220290  22.083   3.957  28.274 -0.2610  0.1002  0.0389
25490DOD     C320291  22.417   3.726  28.125 -0.1189 -0.0148  0.0577
25491DOD     C120292   0.193  24.089  19.164 -0.1151 -0.1937  0.1231
25491DOD     C220293   0.456  24.489  19.163  0.0972 -0.0173 -0.3589
25491DOD     C320294   0.578  24.878  18.950 -0.0323 -0.1524 -0.2547
25492DOD     C120295  23.476   1.829   5.099  0.0130  0.2167  0.0149
25492DOD     C220296  23.100   2.123   5.302  0.3476 -0.0355  0.0521
25492DOD     C320297  22.881   2.353   5.645 -0.0846  0.0224 -0.3560
25493DOD     C120298  26.353  19.604  12.782 -0.3529 -0.0464 -0.0326
25493DOD     C220299  26.430  20.050  12.700 -0.0245 -0.0759 -0.3537
25493DOD     C320300  26.477  20.435  12.489 -0.2213  0.1289  0.2207
25494DOD     C120301  18.559   5.751   0.498  0.1012 -0.3012 -0.5596
25494DOD     C220302  18.647   5.582   0.928  0.0176 -0.0221 -0.3497
25494DOD     C320303  18.839   5.300   1.258 -0.1388  0.0385 -0.0859
25495DOD     C120304   7.705  25.755  18.682 -0.2496 -0.1967  0.0921
25495DOD     C220305   7.536  25.469  18.369  0.1118 -0.0375  0.1777
25495DOD     C320306   7.773  25.109  18.103 -0.0356 -0.0417  0.0646
25496DOD     C120307   4.205  20.999   5.005 -0.1027 -0.1266 -0.2346
25496DOD     C220308   3.852  20.790   4.836  0.0487  0.1992  0.1838
25496DOD     C320309   3.400  20.746   5.006  0.0589 -0.0811  0.0083
25497DOD     C120310  15.716  14.537   8.312  0.0110  0.2018 -0.1166
25497DOD     C220311  15.754  14.985   8.170 -0.1208  0.4315  0.3460
25497DOD     C320312  15.713  15.439   8.040 -0.0473  0.0289 -0.1431
25498DOD     C120313  21.657  17.569  13.615  0.3895  0.0265 -0.0062
25498DOD     C220314  21.947  17.905  13.801 -0.0320  0.0503  0.0300
25498DOD     C320315  22.127  18.346  13.846 -0.1841 -0.2222 -0.1041
25499DOD     C120316  18.496  23.083  25.563  0.2377  0.0507  0.1442
25499DOD     C220317  18.407  22.709  25.266  0.0224  0.0844 -0.2697
25499DOD     C320318  18.412  22.668  24.795 -0.0502  0.1592  0.1466
25500DOD     C120319   2.263  14.037   0.208 -0.0045  0.0585  0.1511
25500DOD     C220320   2.422  13.662  30.244  0.1934  0.0024 -0.0306
25500DOD     C320321   2.457  13.399  29.917 -0.1076 -0.1291  0.1294
25501DOD     C120322  22.398  22.567  18.316 -0.0977 -0.2755 -0.1045
25501DOD     C220323  22.355  22.549  17.830  0.1178 -0.2601 -0.1325
25501DOD     C320324  22.627  22.289  17.484  0.1311  0.0317 -0.2193
25502DOD     C120325  17.205  27.168  17.959  0.1005  0.5199  0.4751
25502DOD     C220326  17.495  27.145  18.285 -0.0872 -0.2657  0.0999
25502DOD     C320327  17.759  27.551  18.269 -0.1895 -0.0675 -0.1509
25503DOD     C120328  22.666   7.746  27.992 -0.0471 -0.1971  0.0044
25503DOD     C220329  22.450   7.386  27.778 -0.2703 -0.0810  0.2223
25503DOD     C320330  22.575   7.079  27.441 -0.1330  0.2584  0.1427
25504DOD     C120331   5.940   8.157   8.553 -0.0456 -0.3405 -0.2497
25504DOD     C220332   5.779   7.750   8.753 -0.0837 -0.0907  0.3815
25504DOD     C320333   5.627   7.306   8.924  0.0192 -0.4521 -0.1743
25505DOD     C120334  17.946  16.043  23.202 -0.0333 -0.1643  0.0852
25505DOD     C220335  18.198  16.493  23.302  0.3266 -0.1388 -0.3783
25505DOD     C320336  18.391  16.847  23.535  0.1018 -0.3459 -0.0395
25506DOD     C120337  20.073  26.313  27.900  0.0850  0.1672  0.0896
25506DOD     C220338  20.485  26.176  28.020  0.2861  0.1130 -0.2090
25506DOD     C320339  20.786  25.958  28.293  0.2932 -0.0173 -0.2434
25507DOD     C120340  19.505   1.793  17.312 -0.1939  0.0911  0.1447
25507DOD     C220341  19.852   1.822  17.572  0.0346  0.2399  0.1035
25507DOD     C320342  20.162   2.068  17.808  0.0929  0.3546  0.0760
25508DOD     C120343  10.179  17.780  16.130 -0.0482 -0.1812 -0.1162
25508DOD     C220344   9.986  17.978  15.835 -0.0195  0.0991  0.1359
25508DOD     C320345   9.591  18.154  15.805  0.4145 -0.1446 -0.0185
25509DOD     C120346  29.906   9.819   4.241 -0.1232  0.0781  0.3113
25509DOD     C220347  29.789  10.273   4.238  0.0616 -0.1170  0.0266
25509DOD     C320348  29.512  10.699   4.140  0.0078 -0.0079  0.4407
25510DOD     C120349  28.537  15.851  28.325 -0.0334  0.0289 -0.1492
25510DOD     C220350  28.761  15.542  28.125 -0.0473 -0.0130 -0.0485
25510DOD     C320351  28.978  15.164  27.986 -0.0554 -0.0821 -0.0588
25511DOD     C120352   6.113  11.272  12.915 -0.1842 -0.0992 -0.0966
25511DOD     C220353   6.281  11.131  12.488 -0.1541 -0.1593  0.1189
25511DOD     C320354   6.388  10.844  12.084  0.0404  0.1074 -0.0922
25512DOD     C120355  25.385  29.636  25.614 -0.1284 -0.1709  0.1073
25512DOD     C220356  25.110  29.278  25.431 -0.0360 -0.0388 -0.2868
25512DOD     C320357  24.902  29.013  25.745 -0.1382 -0.1663  0.0311
25513DOD     C120358  23.955  25.468  19.055  0.0800  0.1207  0.1860
25513DOD     C220359  23.964  25.756  18.680  0.0657  0.1871  0.1058
25513DOD     C320360  23.588  25.678  18.413 -0.2160 -0.1049 -0.2055
25514DOD     C120361   7.856   8.527   6.976 -0.0891  0.2025  0.3455
25514DOD     C220362   7.610   8.250   7.272  0.1289 -0.0841 -0.2256
25514DOD     C320363   7.517   7.913   7.628 -0.0028 -0.1331 -0.0750
25515DOD     C120364   3.122   5.575   9.865 -0.0414 -0.2814 -0.1108
25515DOD     C220365   3.593   5.726  10.016 -0.0743  0.1179 -0.0784
25515DOD     C320366   3.910   6.064   9.842  0.3608  0.0981  0.2514
25516DOD     C120367   7.632   5.595  13.425 -0.1755 -0.2801  0.1936
25516DOD     C220368   7.928   5.331  13.654 -0.1348  0.2479 -0.0826
25516DOD     C320369   7.925   4.858  13.630 -0.0487  0.1910  0.3283
25517DOD     C120370   8.603  12.326  26.672  0.2168  0.1771  0.0473
25517DOD     C220371   8.878  12.103  26.353 -0.5158 -0.0591  0.1472
25517DOD     C320372   9.319  12.015  26.188  0.1602  0.0892 -0.0953
25518DOD     C120373  24.651  27.031  21.247 -0.0639  0.1392 -0.0878
25518DOD     C220374  24.591  26.583  21.256 -0.1609  0.1858  0.0738
25518DOD     C320375  24.467  26.133  21.265  0.0535 -0.2231  0.1034
25519DOD     C120376  18.684  28.322  17.832  0.1996  0.0816  0.0098
25519DOD     C220377  18.950  28.563  17.570  0.2556 -0.0307  0.1885
25519DOD     C320378  19.387  28.357  17.572  0.1078 -0.1514  0.1110
25520DOD     C120379   1.731   3.246   8.499 -0.4375 -0.2027  0.0033
25520DOD     C220380   1.740   2.887   8.656  0.2208  0.2375 -0.1244
25520DOD     C320381   1.532   2.443   8.702  0.2702 -0.1756 -0.1936
25521DOD     C120382  19.089  11.566  15.781  0.0214 -0.0063  0.1325
25521DOD     C220383  18.957  11.435  16.241  0.0447  0.2219  0.0574
25521DOD     C320384  18.800  11.288  16.668 -0.0484 -0.0363 -0.1452
25522DOD     C120385  11.002   6.754  12.506  0.3215 -0.2090  0.1550
25522DOD     C220386  10.908   6.813  12.048  0.2241  0.2381  0.3358
25522DOD     C320387  10.840   6.571  11.683 -0.1291 -0.0727  0.0764
25523DOD     C120388  13.192  23.001   5.698 -0.2394 -0.6217 -0.1095
25523DOD     C220389  13.060  23.127   5.218 -0.0690 -0.2562  0.0941
25523DOD     C320390  12.753  23.202   4.878  0.0260 -0.0457 -0.0919
25524DOD     C120391  14.150  23.145  11.414  0.0735 -0.1647  0.1189
25524DOD     C220392  13.819  23.464  11.267 -0.1562  0.3910 -0.0118
25524DOD     C320393  13.638  23.882  11.027  0.3769 -0.2437 -0.0484
25525DOD     C120394   6.806   0.146  12.318 -0.0775 -0.0224 -0.2053
25525DOD     C220395   7.053  30.107  12.473 -0.0112  0.0951  0.4317
25525DOD     C320396   7.374  29.932  12.753 -0.0909  0.5917  0.0516
25526DOD     C120397  14.360  16.512  23.637 -0.2642  0.1796 -0.1650
25526DOD     C220398  14.570  16.582  23.266 -0.0610 -0.1335  0.1627
25526DOD     C320399  14.674  16.980  23.077  0.1723  0.0154 -0.1896
25527DOD     C120400  14.703   3.769  23.929 -0.1274 -0.0519 -0.2801
25527DOD     C220401  15.038   3.522  24.065 -0.1539  0.3114  0.2344
25527DOD     C320402  15.202   3.120  23.953  0.2034  0.0134  0.1264
25528DOD     C120403  18.072  26.064   5.784 -0.0204  0.1516  0.1925
25528DOD     C220404  18.042  25.682   6.064 -0.1825  0.2040  0.2125
25528DOD     C320405  17.998  25.276   6.260  0.0274 -0.0344 -0.1985
25529DOD     C120406  13.348  29.180  12.059 -0.1254  0.5335 -0.4764
25529DOD     C220407  13.110  28.872  11.770  0.0381  0.0148  0.0949
25529DOD     C320408  13.020  28.482  11.477 -0.0780  0.2363  0.0531
25530DOD     C120409   1.542  19.631   1.436 -0.1137 -0.2220 -0.0706
25530DOD     C220410   1.685  19.258   1.788  0.0176 -0.2701  0.0022
25530DOD     C320411   1.824  18.808   1.910  0.2188 -0.0140  0.0215
25531DOD     C120412  25.616   6.301  29.131 -0.2918  0.0742 -0.0292
25531DOD     C220413  25.563   6.728  29.277  0.1905 -0.1684 -0.1205
25531DOD     C320414  25.599   7.015  29.681  0.0093 -0.1933 -0.1198
25532DOD     C120415  16.138   8.766   8.355 -0.2246  0.2857 -0.0025
25532DOD     C220416  16.034   8.403   8.157 -0.0374 -0.0945  0.0925
25532DOD     C320417  15.718   8.074   8.158  0.0161 -0.4027 -0.2747
25533DOD     C120418   7.268   1.168   8.228  0.1787 -0.0512  0.0556
25533DOD     C220419   7.187   0.775   7.965  0.0823  0.1971  0.1182
25533DOD     C320420   7.253   0.447   7.675 -0.2205  0.0093  0.0592
25534DOD     C120421  12.100  23.152  13.700 -0.2705  0.0887  0.0644
25534DOD     C220422  12.517  23.000  13.823 -0.0840 -0.0712 -0.2570
25534DOD     C320423  12.927  22.893  13.730  0.0481 -0.0069  0.0925
25535DOD     C120424   0.904   5.354  29.651 -0.0051 -0.2052 -0.0855
25535DOD     C220425   0.535   5.358  29.406  0.0957 -0.1389 -0.0501
25535DOD     C320426   0.111   5.519  29.385  0.0799 -0.3339  0.1227
25536DOD     C120427   2.841  28.597   2.219  0.1211 -0.0142 -0.1240
25536DOD     C220428   3.285  28.598   2.374  0.2689 -0.1209 -0.0809
25536DOD     C320429   3.571  28.251   2.517 -0.1247  0.2095 -0.1501
25537DOD     C120430  15.438  22.497  25.705 -0.2851 -0.0475 -0.1510
25537DOD     C220431  15.650  22.456  25.292 -0.3646 -0.1163  0.0244
25537DOD     C320432  15.766  22.271  24.848  0.0257  0.2678 -0.2701
25538DOD     C120433  18.580  27.711  18.320 -0.2158 -0.1475  0.0559
25538DOD     C220434  18.220  27.507  18.086  0.1574 -0.0807 -0.0557
25538DOD     C320435  18.027  27.582  17.642  0.1911 -0.1145 -0.0093
25539DOD     C120436  20.474  30.000   2.552  0.1038  0.6783 -0.2106
25539DOD     C220437  20.695  29.672   2.850 -0.0702 -0.0885 -0.2074
25539DOD     C320438  20.963  29.313   3.008  0.1307  0.0236  0.0863
25540DOD     C120439   8.710  30.010  25.844  0.0608  0.1964  0.1036
25540DOD     C220440   8.986   0.101  25.753 -0.3158  0.0049 -0.2513
25540DOD     C320441   9.116   0.491  25.885  0.0086 -0.1097 -0.0008
25541DOD     C120442   7.838  25.317  13.120  0.1779 -0.1449  0.2386
25541DOD     C220443   7.646  24.959  13.402 -0.1085  0.0206 -0.0401
25541DOD     C320444   7.696  24.502  13.358  0.1331  0.0069  0.0164
25542DOD     C120445   8.290  21.299  14.601  0.1777  0.0253 -0.4439
25542DOD     C220446   8.274  21.171  14.141 -0.0930 -0.0432 -0.4131
25542DOD     C320447   8.214  21.292  13.719 -0.0902 -0.2754 -0.0676
25543DOD     C120448  25.202  12.633  21.426  0.1628 -0.1352 -0.0963
25543DOD     C220449  24.749  12.597  21.596 -0.0868 -0.1755  0.2143
25543DOD     C320450  24.327  12.502  21.465  0.0218  0.0892 -0.2094
25544DOD     C120451  28.491  18.590  29.526  0.0170  0.0607  0.0102
25544DOD     C220452  28.926  18.523  29.373 -0.1218  0.1817  0.3128
25544DOD     C320453  29.309  18.242  29.457  0.1585  0.0816  0.0093
25545DOD     C120454  14.079  20.791  21.817  0.4387  0.0003  0.0387
25545DOD     C220455  13.916  20.572  22.203  0.0265  0.1465  0.0076
25545DOD     C320456  13.877  20.115  22.401 -0.0804  0.0573  0.0466
25546DOD     C120457  11.955  21.482   7.117  0.2254  0.1681  0.2406
25546DOD     C220458  11.571  21.398   6.827  0.2285  0.4230  0.1249
25546DOD     C320459  11.126  21.533   6.690  0.2819  0.0181  0.0938
25547DOD     C120460  15.399   6.276  19.138  0.2874 -0.0359 -0.2498
25547DOD     C220461  15.284   5.818  19.199  0.1125 -0.2719  0.0341
25547DOD     C320462  15.225   5.446  19.461  0.2384  0.3545 -0.1548
25548DOD     C120463  13.720   6.728  18.500 -0.2181  0.2964 -0.1246
25548DOD     C220464  13.414   6.942  18.214 -0.1125  0.1136  0.0295
25548DOD     C320465  12.896   6.883  18.128  0.1480  0.1609 -0.3420
25549DOD     C120466   6.634   6.426  21.516  0.0606 -0.1256  0.3066
25549DOD     C220467   6.676   6.895  21.610 -0.1766 -0.0714 -0.1559
25549DOD     C320468   6.778   7.239  21.896 -0.2474  0.2332 -0.1139
25550DOD     C120469  23.442  14.017   6.925 -0.0916  0.3529  0.1871
25550DOD     C220470  23.810  14.077   6.642 -0.2437  0.0771 -0.0038
25550DOD     C320471  24.163  14.383   6.612 -0.1067 -0.1598 -0.0250
25551DOD     C120472  26.283   0.054   9.233 -0.1789 -0.0287 -0.4416
25551DOD     C220473  26.242   0.362   8.854  0.0495 -0.0883  0.0410
25551DOD     C320474  26.398   0.389   8.409  0.0876 -0.0501  0.3407
25552DOD     C120475  20.721  19.417   5.058 -0.1018 -0.2562 -0.3673
25552DOD     C220476  20.717  19.886   5.205  0.1347 -0.0014  0.0815
25552DOD     C320477  20.475  20.241   5.338 -0.0811  0.1497  0.2439
25553DOD     C120478   4.656  22.247   6.299 -0.0412 -0.1925  0.1495
25553DOD     C220479   4.675  21.803   6.372 -0.0408 -0.0232 -0.4659
25553DOD     C320480   4.430  21.483   6.067  0.1492 -0.1188 -0.1504
25554DOD     C120481  14.141  19.671  24.099  0.0834  0.0850  0.1018
25554DOD     C220482  14.367  19.264  24.066 -0.1736  0.0839 -0.4076
25554DOD     C320483  14.457  18.887  24.340  0.1235  0.2194  0.1083
25555DOD     C120484   2.974  21.991   3.459 -0.2972  0.2977  0.1797
25555DOD     C220485   2.828  21.761   3.839 -0.2182  0.1844  0.1272
25555DOD     C320486   2.450  21.612   4.046  0.2329 -0.2345 -0.3276
25556DOD     C120487  10.933  10.392   5.743 -0.1185  0.0262  0.0099
25556DOD     C220488  11.100  10.356   5.329 -0.1249  0.2111 -0.2899
25556DOD     C320489  11.392  10.365   4.950  0.2953  0.0996 -0.0003
25557DOD     C120490   0.211  30.361  23.893 -0.4025  0.2369  0.0687
25557DOD     C220491   0.267  30.356  23.407  0.0433  0.3237  0.0763
25557DOD     C320492   0.570  30.311  23.025  0.1131  0.5113 -0.0828
25558DOD     C120493  11.154   0.744   8.971  0.0403  0.0471  0.1659
25558DOD     C220494  11.230   0.567   8.551  0.0531 -0.2333 -0.1613
25558DOD     C320495  11.590   0.439   8.267  0.1902  0.0774  0.0872
25559DOD     C120496  19.611   6.687  21.750 -0.4070  0.1567 -0.2265
25559DOD     C220497  19.732   6.800  21.307  0.5695 -0.1916  0.1098
25559DOD     C320498  19.756   7.249  21.129 -0.1435  0.1099 -0.1209
25560DOD     C120499  16.809  10.733  22.030  0.2256 -0.2344 -0.0581
25560DOD     C220500  17.059  10.657  22.410 -0.1738 -0.0420 -0.2269
25560DOD     C320501  17.009  10.902  22.860 -0.2811  0.0076 -0.3180
25561DOD     C120502  17.105  20.688  17.912 -0.0800  0.2353 -0.1913
25561DOD     C220503  17.498  20.702  18.139  0.0736 -0.0653  0.0505
25561DOD     C320504  17.891  20.911  18.146  0.0761  0.1277  0.3413
25562DOD     C120505  11.036  24.005   2.036 -0.0601 -0.2079 -0.2398
25562DOD     C220506  10.826  24.301   1.767 -0.0643  0.1636 -0.0036
25562DOD     C320507  10.991  24.491   1.345  0.1239 -0.0317 -0.1689
25563DOD     C120508  24.468  19.901   1.379 -0.0681 -0.1355  0.0739
25563DOD     C220509  24.175  20.279   1.630  0.3333 -0.1646 -0.3112
25563DOD     C320510  23.780  20.477   1.797  0.0464  0.0594 -0.0069
25564DOD     C120511  27.043  26.821   9.411  0.3220  0.1498  0.3463
25564DOD     C220512  27.084  26.553   9.764 -0.0841  0.3065  0.0741
25564DOD     C320513  27.328  26.544  10.151 -0.1070  0.2938  0.4225
25565DOD     C120514  15.645  13.370  10.759  0.2965  0.3890 -0.0346
25565DOD     C220515  15.442  12.970  10.939  0.1939 -0.2834  0.0737
25565DOD     C320516  15.354  12.587  11.208 -0.4052 -0.1151  0.3831
25566DOD     C120517   7.780  21.886  20.858  0.0864  0.0523  0.0605
25566DOD     C220518   8.194  21.834  20.719 -0.2645 -0.0899 -0.2921
25566DOD     C320519   8.591  22.077  20.686  0.1476  0.1162 -0.0034
25567DOD     C120520  21.988  18.186  24.671 -0.0244  0.1703 -0.2606
25567DOD     C220521  21.645  18.236  24.960 -0.0195  0.0145  0.1371
25567DOD     C320522  21.376  18.117  25.308  0.0314  0.0767  0.0015
25568DOD     C120523  12.889   1.237  25.504 -0.0779 -0.1325 -0.1512
25568DOD     C220524  12.901   0.866  25.182 -0.0566 -0.1146 -0.1049
25568DOD     C320525  12.999   0.386  25.072  0.0492  0.0223 -0.1069
25569DOD     C120526  22.674  21.488   1.832  0.2581  0.1457  0.3047
25569DOD     C220527  22.881  21.380   2.227 -0.0950  0.0396 -0.2573
25569DOD     C320528  23.034  21.222   2.678  0.1735  0.1039  0.0136
25570DOD     C120529  18.168   8.640  15.988  0.2853 -0.1238  0.0979
25570DOD     C220530  18.158   9.051  15.651  0.2976  0.1462 -0.2453
25570DOD     C320531  18.102   8.978  15.184  0.0641  0.2227 -0.0482
25571DOD     C120532   6.623  29.656   5.435 -0.0173  0.1217 -0.1733
25571DOD     C220533   6.765  29.578   4.999 -0.1804  0.0564  0.3075
25571DOD     C320534   6.837  29.867   4.644  0.0118 -0.2206 -0.1376
25572DOD     C120535   3.595  21.309  13.808 -0.1481  0.0585 -0.1027
25572DOD     C220536   3.614  21.120  14.277 -0.0445  0.0931  0.1860
25572DOD     C320537   3.714  20.850  14.642 -0.0476 -0.1572 -0.0437
25573DOD     C120538   9.805   7.825  20.644 -0.0733 -0.0331 -0.0823
25573DOD     C220539  10.156   8.092  20.542 -0.0885 -0.0556 -0.0484
25573DOD     C320540  10.556   8.325  20.610  0.1312 -0.1375 -0.0116
25574DOD     C120541  27.550   1.709   2.660  0.1927 -0.2619  0.0928
25574DOD     C220542  27.914   1.713   2.412  0.0861  0.2075  0.0976
25574DOD     C320543  28.240   1.862   2.076  0.0581 -0.1930 -0.0386
25575DOD     C120544  10.816  27.336  25.945 -0.2111  0.0269 -0.0958
25575DOD     C220545  11.213  27.161  26.107  0.1310 -0.1304 -0.1719
25575DOD     C320546  11.636  26.959  25.993  0.1663 -0.1035  0.0968
25576DOD     C120547  22.341   5.539  23.758  0.0281  0.2220  0.1326
25576DOD     C220548  22.012   5.319  24.041  0.3238 -0.2871 -0.0242
25576DOD     C320549  21.748   4.923  24.005  0.3543 -0.0601 -0.2713
25577DOD     C120550   8.826  28.452  12.450  0.2800 -0.0775 -0.2616
25577DOD     C220551   8.716  28.249  12.043 -0.4526  0.2196 -0.1468
25577DOD     C320552   8.512  28.257  11.615 -0.1352  0.1404 -0.1385
25578DOD     C120553   2.565  10.434  10.436 -0.1471 -0.1754 -0.0205
25578DOD     C220554   2.174  10.715  10.377  0.1260  0.3614 -0.2259
25578DOD     C320555   2.256  11.156  10.197  0.2923 -0.1582  0.0477
25579DOD     C120556   8.553   4.294   6.453 -0.3384  0.2669 -0.2406
25579DOD     C220557   9.036   4.359   6.569  0.0080  0.0385  0.1506
25579DOD     C320558   9.386   4.174   6.812 -0.2190 -0.1219 -0.0769
25580DOD     C120559  22.732  20.333  23.071 -0.0301  0.1341  0.1435
25580DOD     C220560  22.771  19.937  22.765 -0.2895 -0.1592  0.0578
25580DOD     C320561  22.655  19.851  22.326 -0.1602 -0.1062  0.3282
25581DOD     C120562  13.888  26.121   4.950 -0.2987  0.2720 -0.1534
25581DOD     C220563  14.150  26.092   5.381  0.1160 -0.3111 -0.3335
25581DOD     C320564  14.247  25.791   5.708 -0.4134 -0.1228 -0.0709
25582DOD     C120565  25.294  26.786  10.443 -0.0705 -0.1610 -0.4050
25582DOD     C220566  24.838  26.553  10.510 -0.0877 -0.0221  0.0920
25582DOD     C320567  24.446  26.391  10.664 -0.2515 -0.0307 -0.0529
25583DOD     C120568  21.822  25.394   1.383 -0.0868 -0.0143  0.1173
25583DOD     C220569  21.880  24.909   1.404 -0.2423 -0.3253 -0.0331
25583DOD     C320570  21.959  24.557   1.738  0.0740  0.1111 -0.0910
25584DOD     C120571  29.911  12.020  11.766  0.3050 -0.0265 -0.1334
25584DOD     C220572  29.947  12.304  12.167  0.0567  0.0306 -0.1152
25584DOD     C320573  30.261  12.649  12.296  0.1858 -0.1205 -0.2929
25585DOD     C120574  30.004  16.407  18.584 -0.1898 -0.1547 -0.1087
25585DOD     C220575  30.137  16.864  18.457 -0.4167 -0.2364  0.1557
25585DOD     C320576   0.161  17.133  18.640  0.2667  0.1593 -0.0056
25586DOD     C120577  22.849   1.830  16.880 -0.1582  0.1779 -0.2944
25586DOD     C220578  23.332   1.730  16.902 -0.0061 -0.0556  0.0130
25586DOD     C320579  23.753   1.733  17.038 -0.0570  0.1897  0.1304
25587DOD     C120580   8.439  13.210   3.129  0.1630 -0.2233  0.1314
25587DOD     C220581   8.579  13.556   2.861 -0.0244  0.1051  0.0825
25587DOD     C320582   8.438  13.726   2.455 -0.0578  0.0012  0.0131
25588DOD     C120583  15.984  11.957   2.583 -0.3890  0.0435  0.0617
25588DOD     C220584  16.405  11.704   2.597  0.1582 -0.2146 -0.0397
25588DOD     C320585  16.777  11.691   2.971 -0.1206 -0.2152  0.0038
25589DOD     C120586   6.443  20.178   6.182 -0.1892 -0.0243  0.0632
25589DOD     C220587   6.356  20.044   5.679 -0.1228  0.2594  0.1066
25589DOD     C320588   6.322  20.145   5.179 -0.3008  0.0406 -0.2891
25590DOD     C120589  26.737  13.591   6.208  0.0081  0.0616 -0.0746
25590DOD     C220590  27.188  13.690   6.384  0.2395  0.1866 -0.0289
25590DOD     C320591  27.305  14.051   6.582 -0.1410 -0.0003 -0.1195
25591DOD     C120592  18.591  17.239   4.068 -0.0967 -0.1975 -0.0006
25591DOD     C220593  18.888  17.612   4.058  0.0317  0.0688  0.0338
25591DOD     C320594  19.284  17.667   4.189 -0.0850 -0.0496  0.0848
25592DOD     C120595  23.180  20.168  28.338 -0.1309  0.2270  0.1991
25592DOD     C220596  23.506  20.488  28.512 -0.2633  0.2415 -0.4163
25592DOD     C320597  23.751  20.620  28.871 -0.2339 -0.0618  0.1230
25593DOD     C120598  17.088  29.809  26.613 -0.0477  0.4557  0.1264
25593DOD     C220599  17.555  29.712  26.733  0.0511 -0.3261 -0.2208
25593DOD     C320600  17.932  29.499  26.948 -0.1916 -0.0086  0.0062
25594DOD     C120601   8.584  26.098  15.138 -0.2362 -0.1369 -0.1159
25594DOD     C220602   8.238  26.287  14.930  0.0656 -0.0023 -0.0622
25594DOD     C320603   7.868  26.576  14.778 -0.1547  0.0482  0.3731
25595DOD     C120604  17.094  12.242  19.126 -0.2020 -0.0241 -0.2411
25595DOD     C220605  16.860  12.658  18.992 -0.1232 -0.3241 -0.2714
25595DOD     C320606  16.593  13.029  18.820  0.3286 -0.3122 -0.1189
25596DOD     C120607   1.615  29.496   2.066 -0.1585  0.1980 -0.3957
25596DOD     C220608   1.653  29.714   2.497 -0.0583 -0.3119  0.0505
25596DOD     C320609   1.416  29.837   2.857  0.1007  0.1593  0.3993
25597DOD     C120610  18.197   0.399   5.734 -0.0505  0.0317 -0.3052
25597DOD     C220611  18.298   0.119   5.385  0.0441 -0.0056  0.3132
25597DOD     C320612  18.497  30.109   5.094  0.0321 -0.0722 -0.1581
25598DOD     C120613  23.029  16.147  18.227 -0.0698 -0.2128 -0.0121
25598DOD     C220614  23.143  15.814  18.497 -0.1642  0.0704  0.0677
25598DOD     C320615  23.370  15.594  18.858  0.0130 -0.0817 -0.2080
25599DOD     C120616  17.436  14.049   9.243 -0.2248 -0.2296  0.0431
25599DOD     C220617  17.886  14.014   9.077  0.0841  0.1364  0.1957
25599DOD     C320618  18.269  14.265   9.053 -0.1433 -0.1245 -0.0254
25600DOD     C120619   6.758  10.913  17.753 -0.2278 -0.3028 -0.0387
25600DOD     C220620   6.902  11.308  17.489  0.2158 -0.0547 -0.0983
25600DOD     C320621   7.142  11.382  17.054 -0.3730  0.0034 -0.1395
25601DOD     C120622  28.946   0.385  24.777  0.2349 -0.0536 -0.1224
25601DOD     C220623  29.373   0.324  24.903  0.1583  0.0832 -0.1147
25601DOD     C320624  29.715   0.612  24.778 -0.1452 -0.2996 -0.4156
25602DOD     C120625  11.903  13.585  12.123  0.2332  0.0568 -0.2357
25602DOD     C220626  11.470  13.595  12.355  0.0091 -0.1152 -0.0282
25602DOD     C320627  11.003  13.519  12.380 -0.0712  0.2816  0.3733
25603DOD     C120628  28.613   2.404   1.427 -0.2389 -0.0149 -0.3073
25603DOD     C220629  28.224   2.146   1.286  0.0571 -0.0277 -0.1482
25603DOD     C320630  27.912   1.882   1.063 -0.0758 -0.1625 -0.2988
25604DOD     C120631  11.348   2.398  21.360 -0.3170  0.1454 -0.6228
25604DOD     C220632  11.059   2.196  21.020 -0.2339 -0.0804  0.1514
25604DOD     C320633  10.882   2.241  20.650  0.2924  0.0323  0.3758
25605DOD     C120634   7.470  26.753   0.147 -0.0821  0.3817  0.2632
25605DOD     C220635   7.732  26.744  30.056  0.2126 -0.0118  0.0642
25605DOD     C320636   7.945  27.091  29.815 -0.1126 -0.2805  0.0315
25606DOD     C120637   1.269   4.108  30.209  0.2870  0.3844 -0.3484
25606DOD     C220638   1.519   4.141  29.842 -0.0458  0.0873 -0.1883
25606DOD     C320639   1.973   4.253  29.884  0.0658  0.2443  0.2207
25607DOD     C120640   6.311   2.966  22.366 -0.2517  0.0665 -0.0831
25607DOD     C220641   5.928   3.015  22.169  0.0945  0.0537  0.0433
25607DOD     C320642   5.652   3.316  22.078  0.4286  0.1392 -0.0621
25608DOD     C120643   6.065  27.002  19.437  0.2230  0.3301 -0.2937
25608DOD     C220644   5.657  27.187  19.646 -0.1928  0.1256 -0.2523
25608DOD     C320645   5.255  27.367  19.630 -0.4034  0.2018  0.0277
25609DOD     C120646  22.970   9.807  14.512  0.2905  0.0512  0.1496
25609DOD     C220647  22.433   9.875  14.530  0.0341  0.0696  0.2687
25609DOD     C320648  22.159  10.231  14.649  0.0641 -0.1702  0.1288
25610DOD     C120649  22.728  16.569  12.788  0.1230 -0.0029  0.2969
25610DOD     C220650  22.985  16.390  12.389 -0.2276  0.2443  0.2083
25610DOD     C320651  23.253  16.060  12.155  0.0131  0.0028  0.1953
25611DOD     C120652  15.122  13.377  25.567 -0.2477 -0.0839 -0.1606
25611DOD     C220653  15.327  12.948  25.451 -0.3024 -0.0184  0.0021
25611DOD     C320654  15.437  12.543  25.641  0.2880 -0.5831 -0.2277
25612DOD     C120655   5.338  13.724   8.652  0.0132 -0.1890 -0.0799
25612DOD     C220656   5.367  14.005   8.355 -0.3139 -0.1194 -0.0535
25612DOD     C320657   5.737  14.315   8.423 -0.0728  0.1190 -0.1965
25613DOD     C120658   2.748  27.440   0.681 -0.0241 -0.2257 -0.2504
25613DOD     C220659   2.565  27.419   1.102  0.1577 -0.0501  0.0239
25613DOD     C320660   2.319  27.109   1.360  0.0844  0.1551  0.0853
25614DOD     C120661  16.305  14.585  29.886  0.3506 -0.3611  0.1201
25614DOD     C220662  16.487  14.373  30.249 -0.2327  0.1830 -0.1400
25614DOD     C320663  16.928  14.217  30.225 -0.1858  0.0319 -0.2955
25615DOD     C120664   0.427  11.578   4.153  0.0809  0.0213  0.2487
25615DOD     C220665   0.370  11.460   4.561  0.0150 -0.1155  0.0148
25615DOD     C320666   0.453  11.072   4.803  0.1576 -0.0318  0.0103
25616DOD     C120667   7.657  28.038  18.321 -0.1065  0.4324  0.0033
25616DOD     C220668   7.873  28.006  18.727  0.0860 -0.1896  0.0122
25616DOD     C320669   7.759  27.729  19.064  0.0746  0.2867  0.0041
25617DOD     C120670  28.655  10.275   4.171 -0.1308  0.1597 -0.2966
25617DOD     C220671  28.746   9.839   4.133  0.0585  0.3521 -0.0002
25617DOD     C320672  28.857   9.417   4.143  0.0023 -0.0774  0.1391
25618DOD     C120673  16.722  22.986   8.773  0.0271  0.0220 -0.1299
25618DOD     C220674  16.392  23.109   9.041  0.1020 -0.4544 -0.1583
25618DOD     C320675  16.012  23.177   9.290  0.0231  0.0085  0.1794
25619DOD     C120676  14.868   3.491  26.800  0.0489  0.0848 -0.0320
25619DOD     C220677  15.022   3.655  26.403 -0.1983 -0.0501 -0.2891
25619DOD     C320678  15.302   3.706  26.093  0.0686  0.0392 -0.1127
25620DOD     C120679  24.814  17.114   2.038 -0.1051  0.0225 -0.1106
25620DOD     C220680  24.662  17.342   1.672 -0.2439 -0.1027 -0.0994
25620DOD     C320681  24.810  17.480   1.232  0.2595  0.2923 -0.0959
25621DOD     C120682   2.783   7.736  14.317  0.1553 -0.1935 -0.0155
25621DOD     C220683   2.922   7.935  13.859 -0.0464  0.0070 -0.0876
25621DOD     C320684   2.760   7.961  13.420 -0.0603 -0.2525 -0.3881
25622DOD     C120685  14.526  25.603  21.736  0.1272  0.0505 -0.3915
25622DOD     C220686  14.629  25.889  21.418  0.1413 -0.2559 -0.3224
25622DOD     C320687  14.826  26.239  21.156  0.0318 -0.1064  0.2953
25623DOD     C120688  22.080   1.070  25.513 -0.2417 -0.0553  0.0011
25623DOD     C220689  21.859   0.977  25.872  0.1394 -0.3316 -0.3124
25623DOD     C320690  21.535   0.924  26.243  0.0335  0.1902  0.3578
25624DOD     C120691   3.780  17.157  22.433 -0.0355 -0.0345  0.1245
25624DOD     C220692   3.819  17.177  21.928 -0.1657  0.1722 -0.0756
25624DOD     C320693   3.773  17.211  21.449  0.3291 -0.2448 -0.0958
25625DOD     C120694  28.552   9.471   5.565  0.0815 -0.0745 -0.1091
25625DOD     C220695  28.418   9.890   5.333  0.0232 -0.0803 -0.3285
25625DOD     C320696  28.199  10.324   5.490  0.1805  0.1952 -0.1061
25626DOD     C120697   9.527  22.173  27.716 -0.1550 -0.1661 -0.0202
25626DOD     C220698   9.820  22.339  28.024  0.1581  0.0264 -0.2706
25626DOD     C320699  10.024  22.204  28.439 -0.1189  0.0469  0.0064
25627DOD     C120700  29.493   7.676   7.664 -0.1704  0.1680  0.0902
25627DOD     C220701  29.906   7.927   7.692  0.1573  0.2501 -0.2167
25627DOD     C320702  30.271   8.238   7.641  0.0537 -0.1009 -0.3853
25628DOD     C120703  29.068   5.569  16.997  0.2185 -0.2303  0.0200
25628DOD     C220704  29.062   5.173  16.939  0.0949 -0.2194  0.0508
25628DOD     C320705  28.965   4.751  16.831  0.1404 -0.1156  0.0620
25629DOD     C120706  16.879  16.063  22.372 -0.1782 -0.0153  0.2166
25629DOD     C220707  16.565  15.798  22.377 -0.1392  0.2273  0.2698
25629DOD     C320708  16.178  15.730  22.474  0.2594 -0.0065 -0.0550
25630DOD     C120709  14.458  28.888   4.657  0.0476  0.0707  0.1314
25630DOD     C220710  14.316  29.154   4.269  0.4567  0.0795 -0.2296
25630DOD     C320711  13.893  29.348   4.390  0.2117  0.0184  0.0531
25631DOD     C120712  24.808  12.045  17.023 -0.0522  0.3018  0.1037
25631DOD     C220713  24.895  12.067  16.555  0.1232  0.2130  0.0055
25631DOD     C320714  24.830  12.437  16.287  0.0990  0.0513 -0.2878
25632DOD     C120715  23.595   5.836  25.609 -0.0000 -0.0751 -0.0449
25632DOD     C220716  23.431   5.643  25.988 -0.2482 -0.3016  0.0679
25632DOD     C320717  23.148   5.328  26.003 -0.1423  0.0018  0.0639
25633DOD     C120718  23.330   4.460   1.096  0.0916  0.1485  0.2780
25633DOD     C220719  23.799   4.616   1.069 -0.0133 -0.1171  0.1544
25633DOD     C320720  24.186   4.395   1.022  0.0369 -0.0383  0.1220
25634DOD     C120721   8.453  20.026  28.697  0.2220  0.2740 -0.3082
25634DOD     C220722   8.662  19.624  28.727 -0.0613 -0.0868  0.1231
25634DOD     C320723   8.857  19.382  28.411 -0.0346  0.2993  0.2029
25635DOD     C120724  15.316  28.836  22.296  0.0189  0.0308  0.2368
25635DOD     C220725  15.760  28.810  22.459 -0.0027  0.1930  0.1472
25635DOD     C320726  16.197  28.750  22.465  0.1582  0.1215  0.1504
25636DOD     C120727  23.896   6.551  15.337 -0.0446  0.1996 -0.0912
25636DOD     C220728  24.127   6.659  15.730  0.1520 -0.1840  0.1365
25636DOD     C320729  24.457   6.898  15.924  0.0224  0.1985 -0.1277
25637DOD     C120730  24.570   8.214   8.573 -0.0519  0.1162 -0.0476
25637DOD     C220731  24.224   8.471   8.681  0.0348 -0.1078 -0.0297
25637DOD     C320732  23.895   8.705   8.558 -0.2964 -0.3457  0.1173
25638DOD     C120733   3.598  28.196  16.997  0.3429 -0.0176  0.0494
25638DOD     C220734   3.642  27.778  16.749  0.0032 -0.0245 -0.0706
25638DOD     C320735   3.663  27.516  16.359  0.1261  0.1604  0.0112
25639DOD     C120736   5.002  19.780  13.607  0.1465 -0.1043  0.0117
25639DOD     C220737   4.560  19.886  13.387 -0.2487  0.0690 -0.0151
25639DOD     C320738   4.149  19.715  13.189 -0.2147 -0.1720 -0.3177
25640DOD     C120739  14.626  22.948  28.589  0.0567  0.1455  0.0431
25640DOD     C220740  14.284  23.270  28.545  0.0942 -0.1333 -0.1178
25640DOD     C320741  13.880  23.543  28.546  0.0870  0.0669  0.0491
25641DOD     C120742  21.449  16.853  13.387  0.0473  0.1607  0.0074
25641DOD     C220743  21.350  16.379  13.332  0.2377 -0.2532 -0.1782
25641DOD     C320744  21.030  16.059  13.183 -0.1214  0.1088 -0.0476
25642DOD     C120745  16.499  16.871  14.973  0.2222  0.3515  0.0604
25642DOD     C220746  16.823  17.110  14.726 -0.1395 -0.1618  0.2551
25642DOD     C320747  17.283  17.151  14.617 -0.1355 -0.2527 -0.0857
25643DOD     C120748   2.242  24.069   6.761 -0.0144 -0.2607  0.2462
25643DOD     C220749   2.425  24.206   7.166 -0.0782 -0.1380  0.3482
25643DOD     C320750   2.559  24.462   7.522 -0.0370  0.0971  0.0086
25644DOD     C120751   0.766  21.983  24.071 -0.1205  0.0584  0.1484
25644DOD     C220752   0.678  21.841  24.537 -0.0399 -0.0868 -0.1487
25644DOD     C320753   0.220  21.963  24.718 -0.2463 -0.0200 -0.0953
25645DOD     C120754  25.713  28.824   9.440  0.1268 -0.2263  0.1559
25645DOD     C220755  25.535  28.853   9.004  0.1874  0.4976 -0.2561
25645DOD     C320756  25.391  28.635   8.609  0.0190  0.1396 -0.0458
25646DOD     C120757  10.349  26.827  30.339  0.0383 -0.2288  0.0086
25646DOD     C220758  10.164  26.436   0.120  0.1269 -0.1682  0.1889
25646DOD     C320759   9.787  26.198   0.146 -0.3079  0.1542 -0.0388
25647DOD     C120760   9.728  21.764  27.892 -0.0275 -0.0785  0.1320
25647DOD     C220761  10.132  21.861  28.062 -0.1912 -0.1635 -0.1514
25647DOD     C320762  10.396  22.213  28.078 -0.0440  0.1714 -0.1204
25648DOD     C120763   6.574   6.013  12.542 -0.1874 -0.1043  0.1727
25648DOD     C220764   6.603   6.289  12.180 -0.0310  0.2204  0.1355
25648DOD     C320765   6.414   6.422  11.820  0.1008  0.1297  0.1722
25649DOD     C120766   5.427   4.938  21.600  0.2490 -0.2418 -0.1310
25649DOD     C220767   5.853   4.984  21.386  0.3071  0.1513 -0.0052
25649DOD     C320768   6.167   4.885  21.058  0.2421 -0.1353  0.3366
25650DOD     C120769   7.432  30.159  21.108  0.0260 -0.1224  0.0151
25650DOD     C220770   7.453  29.884  21.488  0.0576 -0.0385 -0.0518
25650DOD     C320771   7.256  29.680  21.841 -0.1369  0.1386 -0.0646
25651DOD     C120772   9.290  10.514  28.484 -0.0630 -0.1001  0.3860
25651DOD     C220773   9.041  10.759  28.766 -0.0676  0.1271  0.2235
25651DOD     C320774   8.699  11.023  28.873 -0.0507  0.3691  0.2180
25652DOD     C120775  26.097   6.570   3.245 -0.3205 -0.1356  0.0709
25652DOD     C220776  25.942   7.016   3.133  0.1547  0.0382  0.0413
25652DOD     C320777  25.517   7.137   2.858  0.0470 -0.0140 -0.1156
25653DOD     C120778  16.100  10.942  17.718  0.3850 -0.2530 -0.2335
25653DOD     C220779  16.505  10.752  17.702 -0.1799  0.0396  0.1366
25653DOD     C320780  16.814  10.607  17.384  0.0571 -0.1461  0.1641
25654DOD     C120781  24.070   4.136   5.361 -0.2273  0.1901 -0.0437
25654DOD     C220782  24.045   3.824   5.023  0.0555  0.0592 -0.1131
25654DOD     C320783  24.066   3.400   4.854 -0.0067  0.4085 -0.0416
25655DOD     C120784   4.675  21.287   5.235 -0.1787  0.2282  0.0483
25655DOD     C220785   5.080  21.522   5.264  0.0724 -0.1345 -0.1005
25655DOD     C320786   5.471  21.832   5.170  0.1215  0.4759  0.0842
25656DOD     C120787  22.909  10.906  19.930  0.0479 -0.0392 -0.0143
25656DOD     C220788  22.495  10.632  19.983 -0.0920 -0.0379  0.3037
25656DOD     C320789  22.086  10.516  20.007  0.0730  0.0461  0.0387
25657DOD     C120790  14.253  14.258  22.986 -0.0011  0.0923  0.0055
25657DOD     C220791  14.535  13.980  22.855 -0.4164 -0.1963  0.0330
25657DOD     C320792  14.593  13.539  22.863  0.4543  0.1384 -0.0543
25658DOD     C120793  23.172  21.133   5.670  0.2193  0.4587  0.1030
25658DOD     C220794  22.997  21.443   5.347 -0.0726  0.3233 -0.1272
25658DOD     C320795  23.164  21.565   4.936 -0.0208  0.1835 -0.0070
25659DOD     C120796   0.642  27.309  15.846  0.0922 -0.1072 -0.3046
25659DOD     C220797   0.389  27.685  16.091  0.1258 -0.2864 -0.3471
25659DOD     C320798  30.351  27.790  16.385  0.3223  0.2382 -0.2491
25660DOD     C120799  20.621  12.679   3.025  0.0569 -0.1005  0.1196
25660DOD     C220800  20.332  12.342   2.781  0.2793  0.0682 -0.0577
25660DOD     C320801  20.172  12.269   2.290  0.0977  0.3227  0.3698
25661DOD     C120802  26.065  24.039  17.780 -0.1181 -0.0708  0.0776
25661DOD     C220803  26.252  23.549  17.840 -0.1508  0.1468 -0.2411
25661DOD     C320804  26.359  23.148  17.665  0.3987  0.2812  0.0354
25662DOD     C120805  18.603   7.324   9.683 -0.1817  0.2511 -0.0321
25662DOD     C220806  18.144   7.324   9.564 -0.1671  0.0629  0.0847
25662DOD     C320807  17.802   7.500   9.336 -0.0524 -0.4127  0.1792
25663DOD     C120808   6.266  28.539   2.767  0.0504  0.2858  0.1505
25663DOD     C220809   5.929  28.723   3.069 -0.0267 -0.1408  0.3647
25663DOD     C320810   6.144  28.960   3.368  0.2716 -0.1259  0.2288
25664DOD     C120811  22.700   3.950  23.933 -0.0517  0.0921  0.3142
25664DOD     C220812  22.699   3.527  24.192  0.1279 -0.2067  0.1804
25664DOD     C320813  22.385   3.520  24.517 -0.0082 -0.0614  0.1283
25665DOD     C120814  24.241   1.511  10.002 -0.0138  0.0637  0.0136
25665DOD     C220815  24.398   1.832   9.725 -0.2359  0.1765  0.2798
25665DOD     C320816  24.509   1.756   9.292 -0.0514 -0.1321  0.2987
25666DOD     C120817   7.963   8.102  11.205  0.0049 -0.0456 -0.1057
25666DOD     C220818   7.591   8.377  11.183 -0.3361 -0.0765  0.0749
25666DOD     C320819   7.177   8.455  11.137 -0.2155 -0.0273 -0.0530
25667DOD     C120820  13.600  20.015  19.005 -0.3450  0.1451 -0.2909
25667DOD     C220821  13.442  20.409  18.860 -0.0075 -0.1264  0.0192
25667DOD     C320822  13.239  20.808  18.958 -0.0108 -0.0736 -0.2281
25668DOD     C120823   6.796  16.971   3.217 -0.0814 -0.0519 -0.3429
25668DOD     C220824   6.859  17.086   3.695 -0.0737 -0.0483  0.1422
25668DOD     C320825   6.860  17.330   4.078 -0.3169  0.0950 -0.0552
25669DOD     C120826  15.654  16.363   3.692 -0.1353 -0.0324 -0.0926
25669DOD     C220827  15.489  15.940   3.569  0.1215  0.1424 -0.4288
25669DOD     C320828  15.254  15.588   3.662 -0.0779  0.0538 -0.1935
25670DOD     C120829   0.971  19.452  18.639 -0.2713 -0.0703  0.1852
25670DOD     C220830   1.175  19.568  19.024  0.2157 -0.2014 -0.3854
25670DOD     C320831   1.534  19.885  19.088  0.1229 -0.1532 -0.4566
25671DOD     C120832  17.179   9.845   2.209 -0.0352 -0.0529 -0.0385
25671DOD     C220833  16.730   9.847   2.418 -0.0118  0.0998  0.1110
25671DOD     C320834  16.376   9.873   2.757 -0.1570 -0.1838  0.2123
25672DOD     C120835   3.666  21.604  14.978  0.0018 -0.0156  0.0248
25672DOD     C220836   3.432  21.289  14.687  0.4044 -0.2063 -0.3820
25672DOD     C320837   3.094  21.004  14.541  0.2587 -0.0316 -0.1894
25673DOD     C120838   4.046  17.920   9.681 -0.1404  0.2475  0.1324
25673DOD     C220839   3.652  17.685   9.690  0.0230 -0.0096 -0.0964
25673DOD     C320840   3.323  17.423   9.519 -0.0475  0.3844  0.4210
25674DOD     C120841  20.636   6.196  24.164  0.0401 -0.1969 -0.1565
25674DOD     C220842  20.727   5.719  24.087 -0.2525 -0.1512 -0.3026
25674DOD     C320843  20.673   5.312  23.869 -0.0767 -0.0667  0.2555
25675DOD     C120844  11.758   2.812  23.739  0.2819  0.2656 -0.0614
25675DOD     C220845  11.585   2.815  23.338 -0.0251 -0.0883  0.0242
25675DOD     C320846  11.523   3.112  23.022 -0.0021 -0.1622 -0.2772
25676DOD     C120847   3.892   1.201  22.084  0.3974 -0.1383 -0.2102
25676DOD     C220848   3.756   1.663  21.941 -0.0103 -0.1999  0.2573
25676DOD     C320849   3.551   2.123  21.828  0.1324 -0.0780 -0.1211
25677DOD     C120850   8.810  21.067  26.357  0.2825  0.1759  0.6795
25677DOD     C220851   8.757  21.174  25.871 -0.2693 -0.1788 -0.0633
25677DOD     C320852   8.645  21.271  25.404 -0.3627  0.0073 -0.3422
25678DOD     C120853   3.833  18.843  24.177 -0.0256 -0.1669  0.0266
25678DOD     C220854   3.892  18.476  24.513 -0.0216 -0.2080  0.2214
25678DOD     C320855   3.937  18.085  24.604 -0.2786 -0.2173 -0.3363
25679DOD     C120856  22.202  21.172  22.737  0.0171 -0.0938  0.1561
25679DOD     C220857  22.299  21.156  22.280 -0.0329  0.2266 -0.0035
25679DOD     C320858  22.197  21.105  21.823 -0.0972  0.0953  0.0677
25680DOD     C120859   8.325  25.225   3.375 -0.4238 -0.4067 -0.1558
25680DOD     C220860   7.897  25.322   3.394  0.0952 -0.1743 -0.0654
25680DOD     C320861   7.488  25.149   3.332  0.0952  0.2202 -0.1219
25681DOD     C120862   5.526   3.639   3.679  0.0644  0.1053  0.0884
25681DOD     C220863   5.133   3.738   3.526 -0.1480 -0.1111 -0.1161
25681DOD     C320864   4.945   3.889   3.144 -0.1662 -0.3376 -0.0592
25682DOD     C120865   9.634  21.842  25.030  0.4070 -0.0728 -0.1035
25682DOD     C220866   9.184  21.989  24.974 -0.3482  0.3056  0.2512
25682DOD     C320867   8.758  22.132  24.884  0.2670  0.0468  0.1394
25683DOD     C120868  19.835   2.989  27.197 -0.0736 -0.0246  0.4713
25683DOD     C220869  19.640   2.554  27.333 -0.0315  0.0663 -0.0288
25683DOD     C320870  19.355   2.604  27.653  0.1236 -0.2608 -0.0366
25684DOD     C120871  21.170  24.241  15.469 -0.3068  0.0375  0.1617
25684DOD     C220872  21.188  24.716  15.445  0.2047  0.1520  0.0203
25684DOD     C320873  21.156  25.172  15.335 -0.1253 -0.0024 -0.0158
25685DOD     C120874   5.772  29.859  19.789 -0.2170 -0.2025  0.2086
25685DOD     C220875   5.646  30.182  19.512  0.0189  0.1276  0.1985
25685DOD     C320876   5.684   0.253  19.390 -0.0605 -0.2398 -0.0372
25686DOD     C120877   6.676  23.693  25.221 -0.1929  0.1144  0.1147
25686DOD     C220878   6.824  23.691  24.814 -0.0106  0.5079 -0.2166
25686DOD     C320879   7.119  23.670  24.475  0.1295 -0.3268 -0.0490
25687DOD     C120880   1.042  20.079   4.930  0.2073  0.1393 -0.1075
25687DOD     C220881   0.932  19.851   5.351 -0.2054  0.2641  0.0411
25687DOD     C320882   0.750  19.599   5.699 -0.0756 -0.2502  0.1192
25688DOD     C120883   5.226   1.597   2.875 -0.0806 -0.1711 -0.0084
25688DOD     C220884   4.851   1.748   2.664 -0.0255  0.1457  0.0584
25688DOD     C320885   4.592   2.095   2.809 -0.1221 -0.2239 -0.2007
25689DOD     C120886   1.443   9.789   4.963 -0.0810  0.0595 -0.1152
25689DOD     C220887   1.908   9.911   5.063 -0.0864  0.2099  0.0572
25689DOD     C320888   2.352  10.135   4.941  0.3915 -0.2519  0.2132
25690DOD     C120889  23.984   0.145   8.542 -0.0050  0.0682  0.3066
25690DOD     C220890  24.440   0.109   8.610 -0.1049 -0.0796  0.1985
25690DOD     C320891  24.889  -0.030   8.606  0.0124 -0.2339 -0.1031
25691DOD     C120892  25.388  10.720  21.343  0.0197  0.0509  0.0751
25691DOD     C220893  25.705  10.490  21.620  0.0850  0.0348 -0.1739
25691DOD     C320894  25.704  10.285  22.039  0.0362  0.0141 -0.1187
25692DOD     C120895  28.437   8.229   4.086 -0.2792  0.1546  0.0665
25692DOD     C220896  28.152   8.187   4.406 -0.0485 -0.3038 -0.1799
25692DOD     C320897  27.688   8.281   4.502  0.3338  0.1586  0.0126
25693DOD     C120898  20.463  14.050  26.401 -0.1192 -0.4271 -0.2323
25693DOD     C220899  20.530  14.099  26.868 -0.4197 -0.2437  0.0126
25693DOD     C320900  20.420  14.191  27.278  0.3371  0.0858 -0.1923
25694DOD     C120901  20.466  21.880  19.733 -0.1304 -0.1858  0.0068
25694DOD     C220902  20.817  22.122  19.915  0.0972 -0.2550 -0.1378
25694DOD     C320903  21.137  22.368  20.063 -0.0801  0.1912 -0.1265
25695DOD     C120904  11.850  30.102  25.338  0.1558 -0.1659  0.1647
25695DOD     C220905  11.503  30.065  25.665  0.3653  0.0134 -0.0024
25695DOD     C320906  11.237  30.258  25.987 -0.0377  0.1289 -0.0552
25696DOD     C120907  10.871  12.885  18.372  0.2397  0.1501 -0.3027
25696DOD     C220908  10.413  12.864  18.286 -0.0383  0.0892  0.2947
25696DOD     C320909  10.143  13.226  18.113 -0.3309  0.0612 -0.1281
25697DOD     C120910   6.403  15.026  24.620 -0.2919 -0.1658  0.0400
25697DOD     C220911   6.170  14.867  24.922 -0.0815 -0.2284 -0.5128
25697DOD     C320912   6.117  14.859  25.416 -0.1217  0.1292  0.3221
25698DOD     C120913  17.844  16.208  21.069 -0.2482 -0.1258  0.0646
25698DOD     C220914  17.609  16.630  21.084  0.0603  0.1161  0.0241
25698DOD     C320915  17.608  17.019  21.204 -0.0957  0.2373 -0.3207
25699DOD     C120916  10.995   1.637  17.285  0.0703  0.0697  0.2131
25699DOD     C220917  10.858   2.050  17.172  0.0199 -0.2348 -0.0344
25699DOD     C320918  10.676   2.406  17.372  0.0874  0.0376  0.0111
25700DOD     C120919  15.887  19.033  23.966 -0.2252 -0.0269 -0.2005
25700DOD     C220920  15.791  19.215  24.360 -0.0540  0.0573 -0.1279
25700DOD     C320921  15.588  19.681  24.482  0.0704 -0.0891 -0.1295
25701DOD     C120922  16.012   1.253  25.057  0.1174  0.0424  0.1240
25701DOD     C220923  15.631   1.528  25.211  0.0900 -0.4293  0.0140
25701DOD     C320924  15.300   1.870  25.230 -0.1914  0.1562  0.1700
25702DOD     C120925   7.405  13.765  13.442  0.0372  0.0213  0.1812
25702DOD     C220926   7.601  14.063  13.142 -0.0613 -0.0495 -0.2085
25702DOD     C320927   7.716  14.184  12.698  0.0887  0.1584  0.0777
25703DOD     C120928  17.174  25.365   5.772  0.2232  0.1150  0.2224
25703DOD     C220929  16.846  25.595   5.963 -0.0376  0.0405 -0.0104
25703DOD     C320930  16.571  25.637   6.343  0.3689 -0.1216  0.0256
25704DOD     C120931  21.642  14.917  25.410  0.0549 -0.2574  0.0470
25704DOD     C220932  21.195  15.050  25.634 -0.1806  0.1688 -0.0484
25704DOD     C320933  20.868  15.295  25.961 -0.1480  0.1329  0.0597
25705DOD     C120934  15.989  16.465  14.677 -0.1779  0.1519 -0.2414
25705DOD     C220935  15.741  16.218  15.004  0.3558  0.1109 -0.0065
25705DOD     C320936  15.407  15.903  15.093  0.0902 -0.2298  0.3461
25706DOD     C120937  28.811   4.368   8.136 -0.2651  0.0879  0.0449
25706DOD     C220938  28.716   4.663   7.805 -0.0382  0.0596 -0.1943
25706DOD     C320939  28.768   4.692   7.338 -0.3663  0.2917  0.0373
25707DOD     C120940  30.313   4.695  18.656 -0.1288 -0.2173 -0.0549
25707DOD     C220941   0.136   4.701  19.095  0.2651  0.1779  0.1826
25707DOD     C320942  30.120   4.649  19.392 -0.1922  0.1649 -0.0105
25708DOD     C120943  25.803  28.191  18.712  0.1631 -0.0600  0.0295
25708DOD     C220944  25.447  28.036  18.696  0.1475 -0.1323  0.2268
25708DOD     C320945  25.182  27.987  18.371 -0.0368 -0.0625  0.3151
25709DOD     C120946  18.163  21.733  20.119 -0.1831  0.0025  0.1961
25709DOD     C220947  17.840  21.432  19.914 -0.0535  0.1380  0.1064
25709DOD     C320948  17.663  21.072  19.662 -0.1987 -0.0136 -0.1888
25710DOD     C120949  15.380  22.486  29.712 -0.1654  0.0782 -0.0324
25710DOD     C220950  15.257  22.443  30.141 -0.0100 -0.2187 -0.0794
25710DOD     C320951  15.158  22.157   0.142 -0.0509  0.2116  0.1970
25711DOD     C120952  22.034   7.799  13.868 -0.1370 -0.2177 -0.0479
25711DOD     C220953  22.157   7.424  13.625 -0.2136  0.1565  0.0439
25711DOD     C320954  22.393   7.053  13.777  0.2635  0.1074  0.1804
25712DOD     C120955  29.025  29.841  12.342  0.1218 -0.1350  0.1033
25712DOD     C220956  28.983  29.441  12.571 -0.1019 -0.1284  0.1303
25712DOD     C320957  28.732  29.107  12.769  0.0765 -0.0070 -0.0304
25713DOD     C120958  11.154  13.647   6.435 -0.0009 -0.1251  0.0205
25713DOD     C220959  11.569  13.540   6.255  0.0802 -0.2001  0.1223
25713DOD     C320960  11.985  13.831   6.297  0.0272  0.0063 -0.1084
25714DOD     C120961  27.179   5.865  16.284  0.1873  0.0156  0.1401
25714DOD     C220962  27.267   6.290  16.293 -0.1599 -0.3972 -0.0410
25714DOD     C320963  27.477   6.725  16.381 -0.2275 -0.3146 -0.2234
25715DOD     C120964  25.353   3.988  15.119  0.0559  0.1734 -0.0054
25715DOD     C220965  25.383   3.561  14.964  0.0609  0.3354 -0.0717
25715DOD     C320966  24.988   3.326  14.752 -0.0730 -0.2721 -0.1449
25716DOD     C120967  14.330  15.914  27.249  0.4833 -0.2571 -0.1950
25716DOD     C220968  14.743  15.629  27.221  0.1623  0.0716 -0.0511
25716DOD     C320969  15.117  15.397  27.388 -0.0899  0.3300  0.0464
25717DOD     C120970  11.782  27.993  16.755  0.1110  0.2025  0.1317
25717DOD     C220971  11.586  28.433  16.780 -0.0488  0.0664  0.1894
25717DOD     C320972  11.827  28.801  16.859 -0.1072  0.0255 -0.1402
25718DOD     C120973  11.096   4.696  21.278  0.0665 -0.1174  0.2526
25718DOD     C220974  10.994   5.173  21.277 -0.3451 -0.0420  0.0590
25718DOD     C320975  11.231   5.578  21.327  0.1148 -0.0289 -0.0555
25719DOD     C120976   7.229  10.239  10.974 -0.2876  0.2932  0.0694
25719DOD     C220977   6.990   9.793  10.958 -0.2742 -0.0483 -0.2037
25719DOD     C320978   6.717   9.532  11.099 -0.3578 -0.0021 -0.0082
25720DOD     C120979  22.251  28.481   8.933 -0.1882  0.1875 -0.0035
25720DOD     C220980  22.069  28.245   9.295  0.0324  0.1595 -0.1053
25720DOD     C320981  21.741  28.054   9.459 -0.3949  0.0754 -0.2545
25721DOD     C120982   2.001  18.253  29.331  0.3857 -0.1441  0.0064
25721DOD     C220983   1.653  18.184  29.628  0.1645 -0.0763  0.0979
25721DOD     C320984   1.417  17.769  29.597  0.5724 -0.0356  0.0148
25722DOD     C120985  27.699  27.377  25.092 -0.0804  0.1441  0.0911
25722DOD     C220986  27.355  27.224  24.833  0.1075  0.1702 -0.1200
25722DOD     C320987  27.011  27.202  24.472  0.0143 -0.1496  0.3987
25723DOD     C120988  18.536  22.391   1.781 -0.0073  0.0233  0.5511
25723DOD     C220989  18.635  22.787   1.963 -0.1037 -0.3162  0.0173
25723DOD     C320990  18.945  23.050   2.279 -0.0522 -0.1373  0.2328
25724DOD     C120991  24.542  22.221  10.287  0.3672  0.0739 -0.0222
25724DOD     C220992  24.271  21.867  10.281  0.3759  0.0038 -0.2071
25724DOD     C320993  24.223  21.628  10.654  0.2643 -0.0387  0.2969
25725DOD     C120994  19.960  14.556  18.425 -0.3149 -0.0923 -0.0531
25725DOD     C220995  19.732  14.955  18.498  0.1477 -0.3790  0.2455
25725DOD     C320996  19.521  15.255  18.806 -0.2303 -0.0399 -0.1810
25726DOD     C120997  23.345   9.262  19.974  0.1112  0.1702 -0.0422
25726DOD     C220998  23.396   9.468  20.393 -0.1553 -0.2485 -0.4196
25726DOD     C320999  23.272   9.451  20.886  0.1120  0.3800 -0.0608
25727DOD     C121000   8.919  13.918  10.052  0.1149 -0.0865  0.0457
25727DOD     C221001   8.559  14.179  10.204  0.1280  0.1035 -0.0859
25727DOD     C321002   8.436  14.559  10.418  0.1731 -0.2097  0.0046
25728DOD     C121003  28.357  14.450  28.959  0.1162  0.1477  0.2378
25728DOD     C221004  28.024  14.510  28.680  0.0273 -0.2477  0.2905
25728DOD     C321005  27.597  14.561  28.497 -0.2143  0.0937 -0.1169
25729DOD     C121006  17.290  10.960  11.145  0.2340 -0.0817  0.0519
25729DOD     C221007  17.302  10.483  11.236 -0.2955 -0.1768  0.1329
25729DOD     C321008  17.045  10.213  10.962 -0.2596  0.2485  0.0524
25730DOD     C121009   8.284  15.200  14.071 -0.1912  0.0682  0.3658
25730DOD     C221010   8.304  15.575  14.410  0.1233  0.1441  0.0795
25730DOD     C321011   8.242  16.046  14.405  0.1847  0.3776  0.1937
25731DOD     C121012  27.652  14.091   4.207  0.3313  0.2107  0.1016
25731DOD     C221013  27.228  14.279   4.311 -0.0707 -0.0327  0.1757
25731DOD     C321014  27.038  14.590   3.997  0.0706 -0.1683 -0.0385
25732DOD     C121015  25.715   6.827  27.523  0.0665 -0.3391 -0.2197
25732DOD     C221016  26.161   6.775  27.665  0.1864  0.0529 -0.1556
25732DOD     C321017  26.563   6.784  27.935  0.0686  0.1483  0.1409
25733DOD     C121018  16.844  12.915  18.279 -0.2854 -0.2106  0.0661
25733DOD     C221019  16.482  12.647  18.421 -0.2672  0.0283 -0.0428
25733DOD     C321020  16.106  12.364  18.471  0.2333 -0.1226 -0.3889
25734DOD     C121021  24.048  16.961  19.752  0.1837  0.3229 -0.3337
25734DOD     C221022  23.619  16.802  19.788  0.1981 -0.1887  0.1424
25734DOD     C321023  23.205  16.928  19.933  0.0226  0.1018  0.1481
25735DOD     C121024  28.196  22.126  22.657 -0.0766  0.0990 -0.1819
25735DOD     C221025  28.636  22.371  22.558  0.0839  0.0224 -0.3020
25735DOD     C321026  29.036  22.590  22.443  0.1224 -0.2362  0.0486
25736DOD     C121027   4.107  15.852   6.955  0.1279 -0.0582  0.0534
25736DOD     C221028   4.360  16.238   6.877  0.1907 -0.1810 -0.1234
25736DOD     C321029   4.520  16.679   7.060  0.0786 -0.3286  0.0127
25737DOD     C121030  18.064   6.496  25.292 -0.1164 -0.1648  0.1838
25737DOD     C221031  18.076   6.058  25.062  0.1227  0.1705  0.1064
25737DOD     C321032  17.741   5.981  24.756 -0.4187  0.0975 -0.1154
25738DOD     C121033  23.579   4.979  26.814 -0.0097  0.0341 -0.0081
25738DOD     C221034  23.944   4.842  26.560  0.0729 -0.3221 -0.0790
25738DOD     C321035  24.379   4.696  26.656 -0.1916 -0.3095 -0.2333
25739DOD     C121036  24.768  11.328  26.755  0.1125  0.0584 -0.3120
25739DOD     C221037  24.390  11.451  26.938 -0.1629 -0.0951 -0.0186
25739DOD     C321038  24.145  11.488  27.333 -0.0979  0.0374  0.0958
25740DOD     C121039  20.464  24.336   6.290 -0.0440  0.1046  0.2733
25740DOD     C221040  20.673  23.989   6.538 -0.2090  0.0561 -0.2712
25740DOD     C321041  20.578  23.625   6.803  0.1056  0.1643  0.0358
25741DOD     C121042  14.412   3.215  13.906  0.0520  0.3852  0.2054
25741DOD     C221043  14.563   3.000  13.510 -0.1075 -0.1345  0.1775
25741DOD     C321044  14.619   2.514  13.420 -0.1114 -0.2518  0.1842
25742DOD     C121045  24.961  30.287  25.903 -0.2016  0.1969 -0.0628
25742DOD     C221046  25.306  30.315  26.305 -0.3607 -0.0648  0.2358
25742DOD     C321047  25.775   0.125  26.366  0.0550  0.1891  0.1742
25743DOD     C121048  22.094  10.756  19.122  0.2948  0.2983 -0.0259
25743DOD     C221049  21.969  11.200  19.085 -0.0790 -0.2701 -0.1814
25743DOD     C321050  21.770  11.647  19.102  0.1123  0.2803  0.4359
25744DOD     C121051   0.951  21.699  16.373  0.1734 -0.1202  0.1645
25744DOD     C221052   1.208  21.683  16.015  0.1324  0.0660  0.3457
25744DOD     C321053   1.471  21.374  15.743  0.0884 -0.2541  0.0421
25745DOD     C121054  14.289   7.779   4.046  0.0581  0.2673 -0.1251
25745DOD     C221055  14.317   7.500   3.711  0.1797 -0.3812  0.0907
25745DOD     C321056  14.042   7.382   3.318 -0.1026 -0.0063 -0.2821
25746DOD     C121057  18.135  24.502  27.186 -0.1963  0.0095 -0.1845
25746DOD     C221058  18.144  24.932  27.182 -0.2127  0.1115 -0.2026
25746DOD     C321059  18.510  25.218  27.162 -0.2051 -0.2331 -0.0944
25747DOD     C121060  12.284  22.343  26.784  0.1151  0.2678 -0.1352
25747DOD     C221061  12.380  22.404  26.334 -0.0233 -0.1528 -0.3256
25747DOD     C321062  12.196  22.633  25.961 -0.0279 -0.0473  0.0971
25748DOD     C121063  29.752   3.580  30.237  0.2101 -0.1530 -0.2831
25748DOD     C221064  29.828   3.844  29.864 -0.1559  0.0253  0.1577
25748DOD     C321065  29.649   4.126  29.490 -0.0732  0.0019  0.0047
25749DOD     C121066  19.970  28.003  11.354  0.1048 -0.1139 -0.0051
25749DOD     C221067  19.489  27.825  11.390  0.0403 -0.0747  0.2186
25749DOD     C321068  19.089  27.977  11.545  0.0057 -0.0958  0.2023
25750DOD     C121069  19.814   6.774   6.166 -0.2787  0.1144 -0.0739
25750DOD     C221070  19.410   6.551   6.091  0.3431  0.0796  0.2573
25750DOD     C321071  19.038   6.304   5.859 -0.4464  0.0937  0.0939
25751DOD     C121072  22.542  18.239   0.437  0.0707  0.0773  0.2009
25751DOD     C221073  22.484  18.584   0.088  0.2668 -0.0079 -0.0142
25751DOD     C321074  22.464  18.823  30.009 -0.0879  0.0938 -0.1365
25752DOD     C121075  27.623  11.466  18.398 -0.0388 -0.0229 -0.0579
25752DOD     C221076  27.741  11.877  18.288  0.2030  0.0670 -0.0868
25752DOD     C321077  27.792  12.272  18.070 -0.0858  0.1249 -0.3812
25753DOD     C121078  14.661   3.294  29.996  0.0645  0.2211 -0.3194
25753DOD     C221079  14.607   3.512  29.594 -0.2222  0.1419  0.0715
25753DOD     C321080  14.684   3.322  29.192  0.2270 -0.0729 -0.0638
25754DOD     C121081   2.693  27.653  15.406 -0.0924 -0.3158 -0.0182
25754DOD     C221082   2.642  27.414  14.959  0.4198 -0.0448 -0.0324
25754DOD     C321083   2.871  27.230  14.588 -0.0509  0.1646 -0.3342
25755DOD     C121084  10.006  24.191  27.692 -0.1930 -0.0795  0.2018
25755DOD     C221085   9.854  24.042  27.286 -0.3953  0.0369  0.1449
25755DOD     C321086  10.030  24.138  26.889  0.1946  0.0184 -0.3392
25756DOD     C121087   8.659  20.811  14.784 -0.0821 -0.0016  0.0198
25756DOD     C221088   8.678  20.734  15.272 -0.2736  0.0650  0.0849
25756DOD     C321089   8.559  20.705  15.767  0.1539 -0.0808 -0.1303
25757DOD     C121090  29.499  14.569   3.271 -0.1131 -0.0357  0.0302
25757DOD     C221091  29.308  14.361   2.885 -0.3874 -0.0222 -0.0497
25757DOD     C321092  29.046  14.493   2.542  0.0376 -0.1441  0.2624
25758DOD     C121093   7.331  26.748   6.244 -0.0880 -0.0997  0.1224
25758DOD     C221094   7.300  26.887   6.687  0.1008 -0.2678  0.1099
25758DOD     C321095   7.155  26.787   7.087  0.0746  0.0906 -0.1014
25759DOD     C121096  14.198   5.080  17.319 -0.2234  0.0327 -0.2600
25759DOD     C221097  14.240   5.547  17.469 -0.4991  0.1395 -0.1514
25759DOD     C321098  14.085   5.983  17.401 -0.0443 -0.0251 -0.2371
25760DOD     C121099  10.463   1.459  21.258 -0.4228 -0.1360 -0.0589
25760DOD     C221100  10.627   1.204  20.849 -0.0758  0.0818  0.1199
25760DOD     C321101  10.698   1.082  20.411 -0.4399 -0.0733  0.4004
25761DOD     C121102  17.394  22.890  16.228 -0.2620  0.1521  0.0712
25761DOD     C221103  17.156  22.610  16.531  0.5370 -0.1065 -0.0361
25761DOD     C321104  16.681  22.514  16.723  0.0633  0.1177 -0.3486
25762DOD     C121105   1.853  15.971  24.664  0.0292  0.2356 -0.2799
25762DOD     C221106   1.672  15.657  24.374  0.0825 -0.1897  0.0148
25762DOD     C321107   1.654  15.547  23.928 -0.3347 -0.1462 -0.0223
25763DOD     C121108  15.077   8.164   0.947 -0.2636 -0.0846  0.0072
25763DOD     C221109  14.741   7.850   0.842  0.0943  0.0186 -0.1020
25763DOD     C321110  14.638   7.405   0.889  0.0830  0.2359  0.0655
25764DOD     C121111  29.721  24.068  12.935 -0.0892  0.0552 -0.0154
25764DOD     C221112  29.366  24.251  13.069  0.1550 -0.0152 -0.1387
25764DOD     C321113  29.342  24.657  13.359  0.1089  0.0970 -0.2985
25765DOD     C121114  29.802   2.864  20.925 -0.1780 -0.0697 -0.0376
25765DOD     C221115  29.641   2.699  21.314 -0.1425  0.0788  0.0570
25765DOD     C321116  29.390   2.704  21.762  0.0906 -0.2172  0.3113
25766DOD     C121117   2.430  11.159  12.532 -0.2263  0.1923 -0.4494
25766DOD     C221118   2.333  10.869  12.242 -0.2775  0.1353  0.1311
25766DOD     C321119   2.529  10.500  12.017 -0.0963 -0.2628  0.4721
25767DOD     C121120   3.522   5.748   8.763  0.1125 -0.2153  0.1045
25767DOD     C221121   3.941   5.564   8.658  0.0996  0.1417 -0.3397
25767DOD     C321122   4.389   5.681   8.778  0.2500 -0.1780  0.1227
25768DOD     C121123  21.537  12.557  23.161 -0.0046  0.0817 -0.0922
25768DOD     C221124  21.722  12.531  22.724  0.0223  0.1665 -0.4559
25768DOD     C321125  21.861  12.384  22.332  0.1629 -0.1306  0.0615
25769DOD     C121126  29.308  29.965  21.492  0.2105  0.3570 -0.3324
25769DOD     C221127  29.042  29.645  21.737  0.1776 -0.2041 -0.0984
25769DOD     C321128  28.846  29.421  22.076 -0.0141 -0.1437 -0.0258
25770DOD     C121129  14.368  20.089  20.435 -0.3117  0.1660 -0.0035
25770DOD     C221130  14.626  20.382  20.754 -0.4371  0.2492 -0.1206
25770DOD     C321131  14.650  20.559  21.209  0.0034 -0.0106 -0.0214
25771DOD     C121132  26.720  15.805  17.145  0.0184 -0.0476  0.1763
25771DOD     C221133  26.768  15.450  16.845  0.0860 -0.3552 -0.0703
25771DOD     C321134  26.413  15.360  16.542 -0.3776 -0.1439  0.0968
25772DOD     C121135   0.576  26.427  17.530 -0.0425 -0.0047  0.2717
25772DOD     C221136   0.550  26.690  17.912 -0.1014  0.1090 -0.1070
25772DOD     C321137   0.182  26.634  18.238  0.3803 -0.3258  0.0890
25773DOD     C121138  22.831   5.954  10.376  0.1222  0.0063  0.2453
25773DOD     C221139  22.397   6.092  10.295  0.1497 -0.6206 -0.1741
25773DOD     C321140  21.960   6.206  10.409  0.2427  0.1798 -0.1337
25774DOD     C121141  11.946   1.537  30.324  0.4090 -0.0537 -0.1288
25774DOD     C221142  12.009   1.123  30.026 -0.0520 -0.0659 -0.1013
25774DOD     C321143  12.180   0.743  30.053 -0.2289  0.1554  0.3172
25775DOD     C121144  22.822  21.303  21.302  0.2672 -0.0654  0.0910
25775DOD     C221145  22.864  20.891  21.098 -0.1847  0.1429 -0.1879
25775DOD     C321146  22.831  20.401  21.036  0.0764  0.2025  0.0538
25776DOD     C121147  27.620  23.085   9.240  0.1864 -0.1833 -0.0884
25776DOD     C221148  27.211  22.811   9.274 -0.0180  0.0007 -0.1644
25776DOD     C321149  26.919  22.553   9.088  0.1255  0.2797 -0.2617
25777DOD     C121150  23.514  14.205  14.712  0.2138  0.3311  0.0887
25777DOD     C221151  23.711  14.356  14.299  0.1920  0.0330  0.1244
25777DOD     C321152  23.679  14.434  13.824 -0.0516  0.0128 -0.1703
25778DOD     C121153  23.393  10.939   9.218  0.0822 -0.1040 -0.1465
25778DOD     C221154  23.181  10.611   9.396  0.1030  0.0392  0.4183
25778DOD     C321155  23.015  10.232   9.615  0.2585 -0.1933 -0.1039
25779DOD     C121156   9.621   8.182   4.182 -0.0327  0.1950 -0.0819
25779DOD     C221157   9.716   8.593   4.337 -0.1280 -0.0028  0.2142
25779DOD     C321158   9.692   9.033   4.573 -0.0740 -0.0400  0.0001
25780DOD     C121159  22.072   0.050  22.005 -0.3021  0.0082  0.0724
25780DOD     C221160  21.755  30.265  22.316 -0.1440 -0.0823  0.2616
25780DOD     C321161  21.401  29.943  22.325  0.0120 -0.0761 -0.2654
25781DOD     C121162  19.223  21.793   4.302 -0.3346  0.1673 -0.0030
25781DOD     C221163  19.561  21.468   4.349  0.1868 -0.0491 -0.1108
25781DOD     C321164  19.892  21.350   4.083  0.2976 -0.1232 -0.2306
25782DOD     C121165   0.467  29.213  13.853  0.1305  0.1225 -0.2497
25782DOD     C221166   0.845  28.941  13.665  0.0269  0.1024  0.0289
25782DOD     C321167   1.256  28.861  13.557  0.1256 -0.3021  0.2212
25783DOD     C121168   5.241  17.737  19.681 -0.0370 -0.0136  0.1220
25783DOD     C221169   4.786  17.656  19.822 -0.1279  0.0328 -0.1415
25783DOD     C321170   4.482  17.926  20.075 -0.1065 -0.0374 -0.2728
25784DOD     C121171   6.964   3.536  20.701 -0.1782  0.0719 -0.0096
25784DOD     C221172   6.798   3.055  20.609 -0.0739 -0.3387  0.0461
25784DOD     C321173   6.829   2.603  20.763  0.2256 -0.0293  0.2209
25785DOD     C121174  27.412  21.505  22.125  0.0572 -0.3609 -0.1802
25785DOD     C221175  27.852  21.530  22.294  0.2177  0.1054 -0.1293
25785DOD     C321176  28.303  21.632  22.338  0.1197 -0.1559 -0.1584
25786DOD     C121177  27.674  28.039  26.488 -0.1775 -0.0448  0.0088
25786DOD     C221178  27.772  27.973  26.967 -0.0729  0.0127 -0.1023
25786DOD     C321179  27.843  27.866  27.426  0.1529 -0.0619 -0.3625
25787DOD     C121180  28.087   9.836  29.766 -0.2312 -0.2589  0.1274
25787DOD     C221181  28.444   9.510  29.815  0.3417 -0.1171 -0.0455
25787DOD     C321182  28.917   9.535  29.757  0.0089  0.1242  0.3454
25788DOD     C121183  24.255  29.637   1.155  0.1703 -0.1838  0.0124
25788DOD     C221184  24.279  29.152   1.152 -0.1482 -0.0705  0.1459
25788DOD     C321185  24.281  28.712   0.959 -0.2372 -0.1406  0.0907
25789DOD     C121186  22.589  29.347  15.582  0.0291  0.3863 -0.0864
25789DOD     C221187  23.077  29.591  15.557  0.0862  0.1376  0.2640
25789DOD     C321188  23.502  29.661  15.409  0.2060 -0.4396  0.1997
25790DOD     C121189  27.020  27.052  28.703 -0.1623  0.1798  0.0830
25790DOD     C221190  26.698  26.836  29.020  0.2966 -0.0685  0.1636
25790DOD     C321191  26.394  26.813  29.395  0.1118  0.0961 -0.0197
25791DOD     C121192  27.757   3.194  22.761 -0.0877  0.3661 -0.3603
25791DOD     C221193  27.520   2.915  23.058  0.1688 -0.1719 -0.0259
25791DOD     C321194  27.538   2.443  23.105  0.0902  0.2588  0.1470
25792DOD     C121195  28.091  16.328  23.769  0.1010  0.0083 -0.1641
25792DOD     C221196  27.712  16.264  23.544  0.2492  0.0555  0.0334
25792DOD     C321197  27.334  16.440  23.242  0.3300 -0.2225  0.1401
25793DOD     C121198  20.285   5.963   0.313 -0.0728 -0.2287 -0.1531
25793DOD     C221199  20.482   5.842  30.244  0.1310 -0.1829  0.3020
25793DOD     C321200  20.839   5.945  30.061 -0.0368 -0.4538  0.2402
25794DOD     C121201  27.073  16.087   6.072  0.0336 -0.1856 -0.0579
25794DOD     C221202  27.227  16.447   5.798  0.0304 -0.1035 -0.1463
25794DOD     C321203  27.584  16.699   5.850 -0.1778 -0.2525 -0.1669
25795DOD     C121204  21.285  21.654   5.704  0.0219  0.2199  0.0526
25795DOD     C221205  21.558  21.387   6.030  0.2823  0.1395  0.1998
25795DOD     C321206  21.934  21.252   6.252 -0.1567  0.2801 -0.1668
25796DOD     C121207   5.302  16.396  10.933 -0.2306 -0.0838  0.3109
25796DOD     C221208   5.490  16.192  10.548 -0.0307 -0.0362 -0.3045
25796DOD     C321209   5.683  16.267  10.102 -0.0212  0.2241 -0.1672
25797DOD     C121210  18.544   4.797   4.449 -0.0328  0.3028 -0.0109
25797DOD     C221211  18.934   5.026   4.296  0.1247  0.1471 -0.1507
25797DOD     C321212  19.361   5.044   4.145 -0.0965  0.1392 -0.1730
25798DOD     C121213  17.492  14.078  30.258 -0.3244  0.1131 -0.0166
25798DOD     C221214  17.352  14.421   0.159  0.1017  0.1570 -0.0910
25798DOD     C321215  17.214  14.538   0.582  0.1856  0.2388  0.0147
25799DOD     C121216   7.027  24.573   4.774  0.1779  0.0159  0.2509
25799DOD     C221217   7.411  24.428   4.983  0.0447  0.2471  0.3171
25799DOD     C321218   7.767  24.446   5.288 -0.2004  0.3722  0.0870
25800DOD     C121219   3.244  17.221  12.497  0.0107  0.4282  0.1366
25800DOD     C221220   3.543  16.892  12.334  0.1412 -0.1451 -0.2028
25800DOD     C321221   3.629  16.614  11.985 -0.0074 -0.2670  0.1825
25801DOD     C121222   3.665  16.335  18.701  0.5527 -0.1179 -0.0525
25801DOD     C221223   4.047  16.576  18.507  0.0738 -0.0088 -0.0664
25801DOD     C321224   4.462  16.791  18.415 -0.1638  0.2473  0.2246
25802DOD     C121225   8.519  13.151  27.103 -0.1256 -0.0337 -0.1839
25802DOD     C221226   8.322  12.774  26.908 -0.1760 -0.0801 -0.0733
25802DOD     C321227   8.106  12.387  26.850 -0.2125 -0.1170 -0.2761
25803DOD     C121228   1.330  29.874  14.691  0.1692 -0.1878 -0.0192
25803DOD     C221229   1.749  30.022  14.815  0.0020 -0.3212 -0.0503
25803DOD     C321230   2.188  30.181  14.749  0.0947  0.0113  0.1279
25804DOD     C121231  24.457  30.111  17.174 -0.0569 -0.0080 -0.1524
25804DOD     C221232  24.109   0.024  17.243  0.0393  0.0589  0.0498
25804DOD     C321233  23.779  30.259  17.604  0.0301  0.1429  0.2395
25805DOD     C121234  14.585  15.260  13.373  0.1772 -0.0850 -0.0031
25805DOD     C221235  14.258  15.222  13.000 -0.1329  0.3254  0.1457
25805DOD     C321236  13.843  15.061  12.906  0.1007  0.3549  0.2291
25806DOD     C121237  24.960   5.485   2.557  0.1322 -0.2356 -0.3003
25806DOD     C221238  25.401   5.431   2.720  0.0880  0.0810 -0.4909
25806DOD     C321239  25.807   5.312   2.731 -0.1962 -0.1530  0.2770
25807DOD     C121240  18.371   0.653   3.690 -0.3062 -0.1183 -0.0588
25807DOD     C221241  18.406   0.163   3.655  0.2434 -0.3526  0.0774
25807DOD     C321242  18.146  30.167   3.859 -0.3327  0.2043 -0.0064
25808DOD     C121243  12.162  11.978   6.970 -0.0435 -0.0105  0.2025
25808DOD     C221244  12.345  12.392   7.095 -0.2917  0.0378 -0.0239
25808DOD     C321245  12.265  12.835   7.193  0.0192 -0.0351 -0.3058
25809DOD     C121246   9.446  19.281  18.824 -0.0300  0.1078  0.2230
25809DOD     C221247   9.548  19.048  18.490 -0.1838 -0.1514 -0.1163
25809DOD     C321248   9.900  18.727  18.497  0.0818 -0.0120  0.2467
25810DOD     C121249  21.142  23.984  20.545 -0.0804  0.0212 -0.2088
25810DOD     C221250  21.297  23.580  20.816  0.2094  0.0654  0.0192
25810DOD     C321251  21.210  23.073  20.823 -0.0070  0.0297 -0.2717
25811DOD     C121252  18.540   7.151   9.157 -0.2687  0.3044 -0.2311
25811DOD     C221253  18.741   7.508   9.002 -0.0873  0.0122  0.5215
25811DOD     C321254  19.014   7.710   8.693 -0.1591  0.1674  0.3998
25812DOD     C121255  24.544   2.882  19.379  0.0501 -0.2627  0.0548
25812DOD     C221256  24.987   2.758  19.412  0.1503  0.1655 -0.3400
25812DOD     C321257  25.449   2.975  19.530  0.0861 -0.2491 -0.1092
25813DOD     C121258   0.587  17.095   4.971  0.2919  0.1348  0.1374
25813DOD     C221259   0.276  16.850   5.125  0.2569  0.2717 -0.2613
25813DOD     C321260   0.070  16.628   5.456 -0.0909  0.0207 -0.1703
25814DOD     C121261  26.338  25.616  24.286  0.0538  0.6387  0.2027
25814DOD     C221262  26.061  25.715  23.965  0.0736 -0.0910  0.0494
25814DOD     C321263  26.006  25.548  23.545 -0.2662 -0.1351 -0.2168
25815DOD     C121264   3.218  29.326  15.539 -0.0739 -0.3125 -0.1153
25815DOD     C221265   3.665  29.472  15.659  0.3028  0.2894 -0.0429
25815DOD     C321266   4.035  29.651  15.440 -0.2832  0.2658 -0.2406
25816DOD     C121267   1.058  18.392   3.750  0.1333  0.1542 -0.0159
25816DOD     C221268   1.063  17.918   3.873 -0.1487  0.0422  0.2826
25816DOD     C321269   1.013  17.555   3.562  0.1196  0.1987  0.1160
25817DOD     C121270  17.238  11.145  22.513  0.0668  0.0660  0.1350
25817DOD     C221271  16.866  11.241  22.211  0.0822 -0.0499  0.0633
25817DOD     C321272  16.810  11.592  21.898 -0.0314 -0.1657  0.0994
25818DOD     C121273  12.232   2.781  25.283 -0.1296  0.0905  0.1220
25818DOD     C221274  12.459   2.723  25.728 -0.1548 -0.2075 -0.1486
25818DOD     C321275  12.681   3.082  25.953  0.0874 -0.1882  0.0236
25819DOD     C121276   1.353  27.938   9.851  0.1805  0.0169 -0.1783
25819DOD     C221277   1.371  28.012   9.394 -0.3033  0.1197 -0.3455
25819DOD     C321278   1.590  28.026   8.977  0.1047  0.2239 -0.0348
25820DOD     C121279  14.846  26.186   0.947 -0.0621 -0.1562 -0.0921
25820DOD     C221280  15.117  26.118   1.318  0.0168  0.3151  0.1640
25820DOD     C321281  15.448  25.859   1.691  0.1962 -0.2266  0.1212
25821DOD     C121282  11.738  20.677  28.809  0.0860  0.1905  0.3996
25821DOD     C221283  11.636  21.015  28.561 -0.0389 -0.1752 -0.1502
25821DOD     C321284  11.663  21.438  28.565  0.0681  0.0146  0.1390
25822DOD     C121285  24.311  10.440  25.510  0.1569 -0.2597  0.1182
25822DOD     C221286  24.238  10.950  25.470  0.0123  0.0425  0.0236
25822DOD     C321287  24.223  11.375  25.456  0.1722 -0.2522 -0.1085
25823DOD     C121288  23.239   1.134   4.340  0.0249 -0.1628  0.2476
25823DOD     C221289  23.084   1.517   4.039  0.0147 -0.1499 -0.2648
25823DOD     C321290  22.799   1.869   3.999 -0.2390  0.1211 -0.1957
25824DOD     C121291  21.024  12.011   8.472  0.1770 -0.2345  0.1770
25824DOD     C221292  21.479  12.116   8.546 -0.0474  0.2853 -0.0081
25824DOD     C321293  21.773  11.996   8.165 -0.2458  0.0622  0.0209
25825DOD     C121294  29.606  22.375  12.994  0.3478 -0.1229  0.4765
25825DOD     C221295  29.321  22.259  13.280  0.0151 -0.0646  0.1809
25825DOD     C321296  28.923  22.242  13.589 -0.1546  0.0713  0.0785
25826DOD     C121297   6.358  19.749   3.206  0.2740 -0.2706  0.0081
25826DOD     C221298   5.953  19.640   3.508  0.1538  0.1937  0.0396
25826DOD     C321299   5.696  19.313   3.615 -0.0954 -0.1585  0.1018
25827DOD     C121300  15.041  -0.034   8.737 -0.0394 -0.0730  0.2437
25827DOD     C221301  15.509   0.141   8.829 -0.0975 -0.0362 -0.1274
25827DOD     C321302  15.823   0.252   9.148 -0.0072 -0.1263  0.0806
25828DOD     C121303  24.437   0.672   7.487 -0.1025  0.2303  0.2408
25828DOD     C221304  24.122   0.801   7.784  0.0961  0.3708  0.3798
25828DOD     C321305  23.828   1.116   7.856  0.2447  0.2398 -0.1295
25829DOD     C121306  18.819  15.766  22.286  0.0423 -0.1338  0.0501
25829DOD     C221307  18.616  15.647  22.677 -0.0237 -0.1951  0.0012
25829DOD     C321308  18.459  15.228  22.801  0.0752  0.0547  0.2185
25830DOD     C121309   6.670   8.868  20.249 -0.0344  0.1890 -0.0831
25830DOD     C221310   6.794   8.395  20.313 -0.0300 -0.1437  0.0502
25830DOD     C321311   7.141   8.099  20.131  0.0613  0.1965  0.0024
25831DOD     C121312   1.952  23.389  26.068 -0.2367  0.1835  0.1740
25831DOD     C221313   2.035  23.929  26.006 -0.2124 -0.2016  0.3617
25831DOD     C321314   1.897  24.348  25.829 -0.1982 -0.1359  0.0858
25832DOD     C121315  23.695  24.984  17.708 -0.1677 -0.1574 -0.1345
25832DOD     C221316  23.875  24.762  18.104 -0.1183  0.2373  0.1514
25832DOD     C321317  23.968  24.841  18.533  0.1416  0.0324 -0.0877
25833DOD     C121318   8.908  28.024   6.307 -0.1736  0.0396 -0.0825
25833DOD     C221319   8.468  27.904   6.304 -0.1559  0.0758  0.0926
25833DOD     C321320   8.152  27.600   6.508  0.0576 -0.2359  0.3599
25834DOD     C121321   6.545   4.247  14.053  0.0314 -0.1165  0.2881
25834DOD     C221322   6.221   3.973  13.838  0.1006 -0.3939  0.0908
25834DOD     C321323   5.938   3.766  13.527  0.1256  0.2109 -0.1673
25835DOD     C121324   9.949   7.360  27.950  0.0998 -0.0639 -0.1021
25835DOD     C221325  10.285   7.420  27.697  0.0017  0.0306 -0.0230
25835DOD     C321326  10.669   7.655  27.701  0.3227  0.4588 -0.0949
25836DOD     C121327  27.196  29.782   7.889  0.1020  0.2134 -0.0167
25836DOD     C221328  27.303  29.879   8.322 -0.0298  0.0626 -0.1470
25836DOD     C321329  27.494  30.038   8.765 -0.0181  0.3002  0.0201
25837DOD     C121330  23.570  22.299   6.936  0.1661  0.1809  0.1090
25837DOD     C221331  23.231  22.151   6.659  0.0595 -0.0812  0.0021
25837DOD     C321332  23.085  21.854   6.279 -0.0966 -0.2086 -0.0507
25838DOD     C121333   5.941   7.098  22.329  0.0907 -0.1643 -0.1573
25838DOD     C221334   5.961   7.219  22.829  0.0353  0.2496  0.3626
25838DOD     C321335   6.227   7.490  23.106  0.1713  0.3099  0.1580
25839DOD     C121336   4.099  16.238  14.251  0.3061  0.1260 -0.0665
25839DOD     C221337   3.658  16.424  14.171  0.0444 -0.0794  0.0805
25839DOD     C321338   3.224  16.368  14.305  0.1226  0.0219  0.1385
25840DOD     C121339   6.535  27.523   9.995  0.1571 -0.1720 -0.0034
25840DOD     C221340   6.146  27.665  10.169 -0.0660  0.0633  0.2551
25840DOD     C321341   5.775  27.851   9.994 -0.1001 -0.0504 -0.1993
25841DOD     C121342   8.487  10.804   8.399 -0.0881 -0.0070  0.1962
25841DOD     C221343   8.643  10.613   7.958  0.3156  0.0851 -0.2097
25841DOD     C321344   9.014  10.448   7.715  0.1192 -0.1737  0.0429
25842DOD     C121345   8.445  23.266  26.737 -0.1904 -0.2792  0.0745
25842DOD     C221346   8.831  23.100  26.915 -0.1080  0.1068  0.1715
25842DOD     C321347   8.997  23.102  27.390  0.0666  0.0696 -0.0599
25843DOD     C121348  22.876   6.353  18.581  0.1378 -0.0038  0.0759
25843DOD     C221349  23.006   6.332  18.172  0.0774  0.1283  0.1180
25843DOD     C321350  23.061   6.237  17.755 -0.3036  0.1360 -0.0489
25844DOD     C121351  23.896   7.613  17.355  0.0534  0.0723  0.0952
25844DOD     C221352  23.994   8.076  17.532 -0.2439 -0.0200 -0.3327
25844DOD     C321353  24.293   8.244  17.818 -0.0301 -0.4041  0.2514
25845DOD     C121354   6.096   0.194  27.601 -0.0988 -0.2618 -0.2977
25845DOD     C221355   6.528   0.133  27.685  0.2380 -0.1675  0.2802
25845DOD     C321356   6.828  30.187  27.498 -0.0404 -0.0786  0.3096
25846DOD     C121357  24.760  26.124  15.284  0.0296 -0.0072 -0.0555
25846DOD     C221358  24.427  26.130  14.982  0.0748  0.0515  0.1335
25846DOD     C321359  24.068  26.430  14.769 -0.0726 -0.1257  0.2040
25847DOD     C121360  13.865  28.559  21.047 -0.0176  0.1257 -0.0919
25847DOD     C221361  13.608  28.298  21.329  0.0205 -0.4579  0.1676
25847DOD     C321362  13.463  28.044  21.651 -0.3349  0.0926  0.2613
25848DOD     C121363   0.774  16.740  19.055  0.0346  0.4047 -0.1440
25848DOD     C221364   0.650  17.204  18.920  0.2243 -0.0026 -0.0271
25848DOD     C321365   0.613  17.576  18.581 -0.0057  0.1252  0.0051
25849DOD     C121366  29.633   3.479   4.076  0.0060  0.0147 -0.0959
25849DOD     C221367  29.230   3.638   4.036  0.1335  0.0002  0.0587
25849DOD     C321368  28.812   3.828   4.031  0.0588 -0.0233 -0.1762
25850DOD     C121369   0.988  24.783  21.559  0.2217 -0.0517  0.1304
25850DOD     C221370   1.023  24.312  21.702  0.1830 -0.2847 -0.0566
25850DOD     C321371   0.968  23.891  21.801 -0.0295 -0.2096 -0.0247
25851DOD     C121372  26.241   7.572  24.123  0.2179  0.0586 -0.1358
25851DOD     C221373  26.199   7.970  24.329  0.2830 -0.0169 -0.1184
25851DOD     C321374  26.181   8.463  24.167 -0.3677 -0.2037 -0.0210
25852DOD     C121375  22.077  18.359   0.251 -0.2421 -0.1473 -0.1406
25852DOD     C221376  21.828  18.212   0.685 -0.0717 -0.4616 -0.1668
25852DOD     C321377  21.577  18.219   1.081  0.0597 -0.0742  0.0855
25853DOD     C121378   3.527  14.665  18.366  0.3226 -0.2722 -0.1060
25853DOD     C221379   3.296  15.062  18.258 -0.0672  0.1524  0.2292
25853DOD     C321380   3.358  15.471  18.136  0.0624  0.1339 -0.0774
25854DOD     C121381  18.813  21.143  15.313  0.5261  0.0388 -0.3029
25854DOD     C221382  18.538  21.546  15.407 -0.0516 -0.0065  0.2298
25854DOD     C321383  18.456  21.919  15.609 -0.3668  0.3519 -0.1333
25855DOD     C121384   3.461  20.109  13.637 -0.0539 -0.0529  0.2042
25855DOD     C221385   3.314  19.716  13.832  0.1612 -0.0039  0.1385
25855DOD     C321386   3.299  19.349  14.101 -0.0764 -0.3608 -0.0195
25856DOD     C121387  19.660   5.795  25.202 -0.2769  0.2796  0.1351
25856DOD     C221388  19.515   6.015  24.792 -0.0523  0.2599  0.1229
25856DOD     C321389  19.322   6.282  24.476  0.0691  0.0934  0.2569
25857DOD     C121390  23.215   0.440  12.916  0.1018 -0.2199  0.0809
25857DOD     C221391  23.415   0.027  12.922  0.0276  0.1839  0.2129
25857DOD     C321392  23.171  30.050  13.176 -0.0838  0.0880 -0.1562
25858DOD     C121393  25.861   0.322   5.493  0.0159 -0.1604  0.1727
25858DOD     C221394  25.503   0.417   5.225  0.0209  0.3350  0.1305
25858DOD     C321395  25.060   0.458   5.091 -0.0409 -0.0432 -0.3590
25859DOD     C121396  10.000   8.926   8.063  0.2252  0.3225 -0.2462
25859DOD     C221397  10.180   8.628   7.788 -0.2893 -0.1245  0.2777
25859DOD     C321398  10.402   8.240   7.580  0.2537  0.0296  0.0043
25860DOD     C121399  17.594  21.005   8.100 -0.1726 -0.1739 -0.0297
25860DOD     C221400  17.659  20.732   7.744 -0.2015  0.0201 -0.1847
25860DOD     C321401  17.977  20.443   7.618 -0.0968  0.0704  0.4440
25861DOD     C121402  29.231   0.810   0.659 -0.1818  0.1596  0.2157
25861DOD     C221403  29.423   0.496   0.885 -0.0476  0.2436 -0.0768
25861DOD     C321404  29.403   0.408   1.363  0.2886  0.0272  0.1672
25862DOD     C121405  26.261  29.487   1.046 -0.1147 -0.1217  0.0457
25862DOD     C221406  26.598  29.148   1.137 -0.1784  0.2387  0.1708
25862DOD     C321407  26.996  28.888   1.072  0.1377  0.0340 -0.1054
25863DOD     C121408  13.012  18.626  27.184  0.2355  0.0349  0.1130
25863DOD     C221409  13.365  18.957  27.131  0.0836  0.1503  0.0391
25863DOD     C321410  13.320  19.425  27.152 -0.0805 -0.0239  0.1368
25864DOD     C121411  22.154  14.922  25.458  0.1720  0.3085 -0.4227
25864DOD     C221412  22.227  14.464  25.299  0.2126 -0.0139  0.0492
25864DOD     C321413  22.020  14.025  25.483 -0.2856 -0.1436 -0.0159
25865DOD     C121414   0.204   7.712  11.308  0.1975 -0.0166  0.1044
25865DOD     C221415   0.028   7.268  11.265 -0.1685  0.0643  0.0037
25865DOD     C321416  30.087   6.957  11.533 -0.0989  0.2173  0.2054
25866DOD     C121417  28.482  22.846  17.911 -0.1967 -0.2137 -0.0380
25866DOD     C221418  28.934  22.771  17.829  0.1934  0.1810 -0.0742
25866DOD     C321419  29.197  23.103  17.574  0.2426  0.0849  0.0468
25867DOD     C121420  13.359  27.641  11.301 -0.0973  0.1993 -0.0129
25867DOD     C221421  13.394  27.285  11.608  0.1206  0.1493 -0.2175
25867DOD     C321422  13.544  27.050  11.973  0.1935 -0.3549 -0.0933
25868DOD     C121423  14.766  19.038   2.063  0.1140  0.2141  0.2754
25868DOD     C221424  14.762  19.100   1.603  0.2740 -0.0633 -0.1373
25868DOD     C321425  14.703  18.955   1.203  0.0973 -0.0534  0.0480
25869DOD     C121426   4.284  13.577  23.055 -0.1100  0.3327 -0.1569
25869DOD     C221427   4.531  13.304  22.717 -0.3676  0.0885 -0.2936
25869DOD     C321428   4.815  13.431  22.367  0.0222 -0.2594 -0.2148
25870DOD     C121429  17.306   3.711  20.596  0.2337 -0.2195 -0.1693
25870DOD     C221430  17.680   3.451  20.821  0.1441 -0.2743  0.0207
25870DOD     C321431  17.693   2.971  20.854  0.0465 -0.1064  0.0834
25871DOD     C121432  13.537  29.695  11.403  0.0488 -0.0248  0.2551
25871DOD     C221433  13.192  29.662  11.088  0.0279 -0.0904 -0.1499
25871DOD     C321434  13.073  30.002  10.773  0.1378 -0.3854 -0.1928
25872DOD     C121435  11.329   7.299  29.298 -0.1686 -0.0744 -0.0782
25872DOD     C221436  11.255   7.590  28.879  0.0551  0.0166 -0.1341
25872DOD     C321437  10.862   7.834  28.602 -0.1606  0.0999  0.2205
25873DOD     C121438  26.577  24.969  25.136  0.2489 -0.2960 -0.3411
25873DOD     C221439  26.837  24.952  25.530  0.1968  0.0348  0.1635
25873DOD     C321440  26.977  25.275  25.771  0.0722  0.1560 -0.1399
25874DOD     C121441  16.896  20.711  20.600  0.3599 -0.0629  0.3152
25874DOD     C221442  16.430  20.745  20.584  0.2424 -0.0651 -0.0068
25874DOD     C321443  16.039  20.547  20.452 -0.3866 -0.0617 -0.0268
25875DOD     C121444  18.587  18.437  23.045 -0.0939  0.0724  0.2339
25875DOD     C221445  18.751  18.487  22.641 -0.0088 -0.0026  0.3165
25875DOD     C321446  18.840  18.793  22.343  0.0473  0.1013 -0.0098
25876DOD     C121447   9.051  19.512  25.842 -0.2122 -0.0098  0.2125
25876DOD     C221448   9.016  19.112  25.689  0.1939  0.0149  0.1082
25876DOD     C321449   9.146  18.663  25.756 -0.1961 -0.1667  0.3638
25877DOD     C121450  13.987  15.720  21.241  0.2438 -0.0745 -0.0421
25877DOD     C221451  13.573  15.974  21.133 -0.2045  0.1681  0.0203
25877DOD     C321452  13.076  15.994  21.089  0.1723 -0.0242 -0.0086
25878DOD     C121453  27.520  12.072   5.346  0.0740  0.2179  0.0847
25878DOD     C221454  27.206  11.997   5.703  0.1970 -0.0071 -0.2089
25878DOD     C321455  27.089  12.254   6.068  0.1833 -0.3551 -0.0336
25879DOD     C121456  12.561  25.979  24.911 -0.0917  0.1571 -0.2195
25879DOD     C221457  12.146  25.908  25.165  0.1743  0.0080  0.1172
25879DOD     C321458  11.682  25.926  25.104  0.3161  0.1400  0.0491
25880DOD     C121459  18.366  10.520  22.701  0.2242  0.0574 -0.0770
25880DOD     C221460  18.776  10.641  22.590 -0.2006  0.1814 -0.2469
25880DOD     C321461  18.748  10.724  22.173 -0.2158 -0.0976  0.1111
25881DOD     C121462   2.811  24.245   3.697  0.2561 -0.2238  0.0593
25881DOD     C221463   2.828  24.622   3.377 -0.2089  0.0018 -0.1073
25881DOD     C321464   2.603  24.720   2.988 -0.1002  0.2821  0.1789
25882DOD     C121465   8.690  17.421  26.557  0.1764  0.0471  0.0800
25882DOD     C221466   8.890  17.042  26.583  0.2002  0.2851 -0.1541
25882DOD     C321467   9.136  16.721  26.796 -0.2641 -0.1229 -0.2625
25883DOD     C121468  22.157   9.857  14.995  0.5219  0.0919 -0.1759
25883DOD     C221469  22.167   9.504  14.704  0.1113  0.0007 -0.0132
25883DOD     C321470  22.165   9.138  14.427  0.0323 -0.0063 -0.0162
25884DOD     C121471  24.147   1.557  23.862 -0.0273 -0.0769 -0.0334
25884DOD     C221472  23.867   1.815  23.922  0.2362 -0.1811 -0.0857
25884DOD     C321473  23.535   1.982  24.184 -0.3226  0.1417  0.0816
25885DOD     C121474   1.547  28.648  20.006  0.0968 -0.1414  0.0030
25885DOD     C221475   1.186  28.792  20.191  0.0594 -0.1312  0.2118
25885DOD     C321476   0.848  29.152  20.075  0.2289 -0.0490 -0.2107
25886DOD     C121477  28.185   2.110  23.988  0.0218 -0.0957 -0.2937
25886DOD     C221478  27.940   2.280  23.665  0.0557  0.1609  0.0228
25886DOD     C321479  27.954   2.132  23.234  0.0239 -0.1529  0.1075
25887DOD     C121480  20.501   9.144   5.655  0.0111 -0.2028  0.2380
25887DOD     C221481  20.375   9.608   5.630 -0.2246  0.1643 -0.3725
25887DOD     C321482  20.277   9.918   5.331  0.0129 -0.1941  0.3770
25888DOD     C121483   4.150   1.407   8.442  0.0168 -0.2449  0.1588
25888DOD     C221484   3.792   1.611   8.185  0.1442 -0.0265 -0.1417
25888DOD     C321485   3.627   1.544   7.740 -0.1671  0.1614  0.2411
25889DOD     C121486  27.382  17.328  14.743 -0.1729 -0.0320 -0.1242
25889DOD     C221487  27.540  17.599  14.385  0.0742  0.4724 -0.1306
25889DOD     C321488  27.353  17.945  14.115  0.0038 -0.1038  0.1196
25890DOD     C121489  13.046  21.052  22.613 -0.0894 -0.0538 -0.0554
25890DOD     C221490  12.789  21.395  22.481 -0.1504  0.0953  0.2489
25890DOD     C321491  12.621  21.847  22.451 -0.3495 -0.2474  0.1324
25891DOD     C121492   9.609  20.472  17.149  0.1911  0.2924 -0.2616
25891DOD     C221493   9.269  20.717  17.349 -0.3384 -0.3236  0.0729
25891DOD     C321494   8.756  20.725  17.383 -0.3298  0.0149  0.2093
25892DOD     C121495   1.940   0.164   1.231  0.2136 -0.2853  0.0167
25892DOD     C221496   2.201   0.075   0.837 -0.0828  0.1343  0.1155
25892DOD     C321497   2.604  30.221   0.736  0.1959  0.2341 -0.1780
25893DOD     C121498  14.445  24.169  17.170 -0.1604 -0.3472  0.1475
25893DOD     C221499  14.065  23.977  16.991 -0.1329  0.1356  0.1869
25893DOD     C321500  13.723  23.675  16.969 -0.0800  0.0074 -0.1499
25894DOD     C121501  10.469  11.873   9.053 -0.0044  0.1329  0.0608
25894DOD     C221502  10.182  11.687   9.413 -0.3143  0.4086 -0.0279
25894DOD     C321503   9.979  11.753   9.814  0.1911 -0.0880  0.3568
25895DOD     C121504  16.497  15.705  13.079  0.1398 -0.1143  0.0601
25895DOD     C221505  16.759  15.383  12.978  0.0099  0.2228 -0.1643
25895DOD     C321506  16.914  14.934  12.873  0.0427 -0.0051 -0.1446
25896DOD     C121507  10.153  13.503  10.109  0.2607 -0.3889  0.1190
25896DOD     C221508  10.538  13.739  10.078 -0.1911  0.2215  0.0452
25896DOD     C321509  10.654  14.062  10.369  0.0800  0.2215 -0.4220
25897DOD     C121510   6.055   0.131  21.734  0.0370  0.0388 -0.1424
25897DOD     C221511   5.760   0.405  21.960 -0.0981 -0.0409 -0.0870
25897DOD     C321512   5.782   0.863  21.742  0.2248  0.1727 -0.0382
25898DOD     C121513  19.300  12.226   4.420  0.0794  0.1175 -0.0325
25898DOD     C221514  19.608  12.632   4.402  0.0771 -0.1427 -0.2586
25898DOD     C321515  20.074  12.594   4.695  0.2601  0.0551  0.2777
25899DOD     C121516  19.159   9.298  18.780 -0.2260 -0.1952 -0.1211
25899DOD     C221517  19.556   9.101  18.806  0.2123 -0.2055  0.2609
25899DOD     C321518  19.858   8.773  18.992  0.0300  0.4514 -0.1783
25900DOD     C121519  14.196   7.641  24.160  0.1030  0.0912  0.0508
25900DOD     C221520  14.239   7.426  23.724 -0.3684  0.0591  0.1187
25900DOD     C321521  14.018   7.458  23.289 -0.0741  0.0031  0.2105
25901DOD     C121522  18.851  21.879   7.252  0.2011 -0.0289 -0.1249
25901DOD     C221523  18.952  22.155   7.575 -0.1153  0.3215  0.2206
25901DOD     C321524  18.883  22.489   7.913  0.1395  0.0846  0.2592
25902DOD     C121525  19.036   5.937  17.239 -0.0229 -0.1908  0.2635
25902DOD     C221526  18.944   6.234  16.903  0.0570 -0.0301 -0.1129
25902DOD     C321527  18.963   6.560  16.618 -0.0417 -0.2171  0.1886
25903DOD     C121528   5.433  16.609  29.666 -0.0088  0.0257  0.1767
25903DOD     C221529   5.042  16.591  29.417 -0.2443 -0.0510 -0.0503
25903DOD     C321530   4.896  16.799  29.036  0.1376  0.1436  0.4215
25904DOD     C121531  20.536  16.469  12.678  0.2592  0.3830  0.3308
25904DOD     C221532  20.708  16.022  12.693  0.0651  0.2114 -0.0084
25904DOD     C321533  20.975  15.662  12.792  0.1012 -0.2149 -0.0593
25905DOD     C121534  24.691  14.714  16.233 -0.2318 -0.4076 -0.1581
25905DOD     C221535  24.775  15.166  16.219 -0.1376  0.0926 -0.2049
25905DOD     C321536  25.160  15.417  16.313  0.0681  0.1214 -0.3756
25906DOD     C121537  20.217  29.028  23.432  0.3473  0.0959 -0.2753
25906DOD     C221538  20.231  29.223  23.886  0.0559 -0.0807  0.0989
25906DOD     C321539  19.976  29.284  24.357 -0.2527  0.0663 -0.1155
25907DOD     C121540  15.943   9.887   9.842  0.0788 -0.2143 -0.1897
25907DOD     C221541  16.165  10.229   9.656  0.0274 -0.3024 -0.0357
25907DOD     C321542  16.417  10.616   9.565  0.0843 -0.3491  0.1180
25908DOD     C121543  24.856   3.381  23.280  0.1631 -0.0534 -0.1800
25908DOD     C221544  25.031   3.803  23.371  0.0892  0.2207  0.0447
25908DOD     C321545  25.168   4.172  23.076  0.0647 -0.2467 -0.0489
25909DOD     C121546  22.869   4.087  15.149 -0.3128 -0.2190 -0.0490
25909DOD     C221547  22.424   4.096  15.160  0.0975 -0.0114  0.1045
25909DOD     C321548  22.030   3.927  15.057 -0.0974  0.1450 -0.0027
25910DOD     C121549   3.966  16.298   9.046 -0.2769 -0.4567  0.0165
25910DOD     C221550   3.982  16.056   9.506 -0.1222 -0.1811  0.1940
25910DOD     C321551   4.150  16.121   9.941 -0.0881 -0.0371 -0.3089
25911DOD     C121552  22.510  19.754  30.138  0.1426 -0.0260  0.2284
25911DOD     C221553  22.247  19.706   0.154  0.2226 -0.0757 -0.1677
25911DOD     C321554  21.908  19.662   0.535 -0.1172 -0.2098 -0.4422
25912DOD     C121555  28.884  30.176  18.420 -0.1870 -0.0490 -0.0512
25912DOD     C221556  28.554   0.207  18.291 -0.0710  0.0447  0.0827
25912DOD     C321557  28.445   0.596  18.035  0.1533 -0.0883 -0.0926
25913DOD     C121558  19.564  11.668  22.765 -0.0966 -0.3844  0.1242
25913DOD     C221559  19.233  11.333  22.700  0.1827 -0.0826  0.0067
25913DOD     C321560  19.072  10.957  22.442  0.2539 -0.1259  0.0063
25914DOD     C121561   7.301  12.570   9.205  0.0476 -0.0085  0.3854
25914DOD     C221562   7.544  12.904   9.012  0.2678 -0.2545  0.2023
25914DOD     C321563   7.975  13.148   8.907 -0.1657  0.0904  0.1770
25915DOD     C121564  13.165   5.013   9.323 -0.0275  0.2300 -0.0984
25915DOD     C221565  13.500   5.019   9.682  0.1269  0.0268 -0.0921
25915DOD     C321566  13.908   5.184   9.643 -0.3944  0.2718 -0.3437
25916DOD     C121567  29.922   1.547  18.417  0.3276  0.2419 -0.1911
25916DOD     C221568  30.203   1.894  18.544 -0.1445  0.0968 -0.0308
25916DOD     C321569   0.210   2.028  18.880 -0.4411  0.2067  0.1418
25917DOD     C121570  21.722   6.394  12.668  0.0085 -0.0016 -0.2608
25917DOD     C221571  21.463   6.061  12.892 -0.0634  0.3399  0.3735
25917DOD     C321572  21.190   6.065  13.276 -0.0031  0.0118  0.4446
25918DOD     C121573  29.179  13.984   5.762 -0.0989 -0.1570  0.1891
25918DOD     C221574  29.577  14.125   5.626  0.0941  0.2348 -0.2933
25918DOD     C321575  29.982  13.942   5.517  0.0250  0.2047  0.0875
25919DOD     C121576  11.129  15.587  12.601 -0.0551 -0.4275 -0.0396
25919DOD     C221577  10.687  15.715  12.607 -0.4745  0.1303 -0.0019
25919DOD     C321578  10.318  15.947  12.322 -0.2294  0.0153  0.1309
25920DOD     C121579   5.419  10.978  12.963 -0.0404  0.1543  0.2277
25920DOD     C221580   5.293  11.177  13.359 -0.1461 -0.2855  0.0639
25920DOD     C321581   4.949  11.411  13.540 -0.0449  0.0279  0.1866
25921DOD     C121582  24.330  11.494  21.224 -0.1399 -0.1767  0.0424
25921DOD     C221583  24.523  11.610  21.662 -0.1407 -0.1249  0.1220
25921DOD     C321584  24.930  11.798  21.858 -0.0125  0.1000  0.0751
25922DOD     C121585  29.200  19.200  10.511 -0.0840  0.1071  0.0567
25922DOD     C221586  29.576  19.123  10.285 -0.1952 -0.0351  0.0355
25922DOD     C321587  29.970  18.901  10.229  0.1841 -0.1505  0.0729
25923DOD     C121588  24.488   3.036  18.887  0.3389  0.3507 -0.1629
25923DOD     C221589  24.168   3.225  19.230  0.1045 -0.2691 -0.2736
25923DOD     C321590  23.995   2.959  19.596 -0.3116 -0.4298 -0.2184
25924DOD     C121591  20.744   2.214  12.337  0.0262 -0.1023 -0.1512
25924DOD     C221592  20.540   2.120  12.760  0.0822 -0.0064  0.2547
25924DOD     C321593  20.133   2.080  12.977  0.0480  0.1191 -0.1282
25925DOD     C121594   9.320  22.377  12.727  0.0067  0.0177 -0.0819
25925DOD     C221595   8.904  22.272  12.493  0.0264 -0.2001 -0.0894
25925DOD     C321596   8.470  22.441  12.632 -0.1080 -0.2564  0.2176
25926DOD     C121597  24.169  25.916  22.213  0.0099 -0.1749  0.0664
25926DOD     C221598  24.479  25.536  22.171  0.0935  0.0829  0.1245
25926DOD     C321599  24.815  25.237  22.326 -0.0157  0.1280  0.0699
25927DOD     C121600  23.203  10.979  15.687  0.2420  0.1879 -0.1610
25927DOD     C221601  22.847  11.178  15.460  0.1089 -0.1892  0.0696
25927DOD     C321602  22.551  11.575  15.518 -0.2471  0.0667 -0.2114
25928DOD     C121603  11.825  22.979  21.019 -0.1337  0.0626 -0.3007
25928DOD     C221604  11.771  23.389  21.181 -0.0641 -0.1468 -0.2010
25928DOD     C321605  11.567  23.785  21.316 -0.0538 -0.0897 -0.0935
25929DOD     C121606  15.854  14.877  24.350 -0.1828 -0.1528  0.1385
25929DOD     C221607  16.137  14.937  24.701  0.1602 -0.0294  0.0841
25929DOD     C321608  16.433  15.011  25.032  0.1098 -0.0386  0.0471
25930DOD     C121609  27.066  19.729   8.306  0.1009 -0.1386  0.0216
25930DOD     C221610  26.707  19.751   8.622  0.1047 -0.1197 -0.1456
25930DOD     C321611  26.564  20.029   9.003 -0.2026  0.3424  0.1843
25931DOD     C121612  17.574   5.158   5.712 -0.1126  0.1663 -0.3216
25931DOD     C221613  17.415   5.070   5.265 -0.1449  0.2681 -0.2602
25931DOD     C321614  17.326   4.666   5.025 -0.1677  0.0143  0.2692
25932DOD     C121615   7.760  26.207   0.266 -0.0286  0.0706 -0.0314
25932DOD     C221616   7.532  25.807   0.357  0.0765 -0.1118  0.0656
25932DOD     C321617   7.132  25.705   0.518 -0.0029  0.0991 -0.0107
25933DOD     C121618   8.671  20.496  19.961 -0.0003 -0.5203  0.0644
25933DOD     C221619   9.080  20.651  20.116  0.1000 -0.3536 -0.2100
25933DOD     C321620   9.453  20.979  20.161 -0.3548  0.2084  0.1603
25934DOD     C121621  25.901  26.205  20.210 -0.1391  0.1605 -0.1404
25934DOD     C221622  26.066  26.656  20.294 -0.0564 -0.0178 -0.0741
25934DOD     C321623  26.405  26.951  20.339 -0.0405  0.1706 -0.2055
25935DOD     C121624  17.603  12.355  19.967  0.1039 -0.1947 -0.1992
25935DOD     C221625  17.717  11.906  19.843  0.1120  0.3203  0.0783
25935DOD     C321626  17.947  11.454  19.846  0.0137 -0.1109  0.0242
25936DOD     C121627   2.613  14.655  23.166  0.2331 -0.0629 -0.0227
25936DOD     C221628   2.653  14.173  23.231 -0.0647  0.2168  0.0148
25936DOD     C321629   2.532  13.924  23.601  0.0041  0.0385 -0.2878
25937DOD     C121630  29.940  17.527  10.480 -0.1662  0.0586 -0.2464
25937DOD     C221631  30.180  17.492  10.096 -0.1490 -0.1025  0.0451
25937DOD     C321632   0.047  17.538   9.680  0.0412 -0.3280  0.0411
25938DOD     C121633   6.612  27.313   7.097  0.2053 -0.0089  0.2188
25938DOD     C221634   6.133  27.239   6.960 -0.1170  0.0263 -0.1706
25938DOD     C321635   5.664  27.198   6.976  0.1094 -0.1235  0.0231
25939DOD     C121636   8.421  25.488  -0.008 -0.2598 -0.3293 -0.0401
25939DOD     C221637   8.353  25.116   0.305  0.1273  0.2807  0.3321
25939DOD     C321638   8.093  24.864   0.580  0.1820 -0.0346  0.0163
25940DOD     C121639   9.428  13.923   6.011  0.0628  0.0719  0.2348
25940DOD     C221640   9.426  13.461   6.212  0.1161 -0.1295  0.3798
25940DOD     C321641   9.385  13.016   6.294  0.3488  0.1275  0.0062
25941DOD     C121642  22.059  22.324  20.306 -0.0880  0.0797 -0.3768
25941DOD     C221643  21.741  22.639  20.167  0.0770 -0.0321  0.0365
25941DOD     C321644  21.373  22.919  20.252 -0.1221 -0.0980 -0.1027
25942DOD     C121645  27.805  10.434  13.163  0.2051 -0.1302  0.0111
25942DOD     C221646  27.418  10.684  13.036  0.0853 -0.2951  0.0330
25942DOD     C321647  26.973  10.644  13.072  0.1060 -0.1432  0.2488
25943DOD     C121648   1.893  12.957   0.627 -0.1756 -0.1913  0.0504
25943DOD     C221649   2.332  13.056   0.653 -0.1293  0.0318 -0.1158
25943DOD     C321650   2.779  13.025   0.895  0.1332 -0.0951 -0.0031
25944DOD     C121651  23.785  10.059  14.831 -0.1805 -0.0053  0.1022
25944DOD     C221652  23.909  10.187  15.259  0.1490  0.0808 -0.3198
25944DOD     C321653  24.079  10.182  15.709 -0.1082 -0.1303 -0.0644
25945DOD     C121654  18.814   7.317  12.344 -0.0947 -0.1313 -0.0624
25945DOD     C221655  19.160   7.450  12.730 -0.0652  0.0474  0.1469
25945DOD     C321656  19.342   7.536  13.211  0.0953  0.4025  0.2138
25946DOD     C121657  18.313  24.248   6.866  0.1432 -0.2330 -0.2625
25946DOD     C221658  18.054  24.644   6.765 -0.1691  0.3231 -0.1291
25946DOD     C321659  17.865  25.023   6.667 -0.1198  0.0898  0.2757
25947DOD     C121660  17.077  17.633  23.088 -0.1379 -0.1300  0.0230
25947DOD     C221661  17.364  17.377  22.825  0.2898 -0.3374  0.3964
25947DOD     C321662  17.789  17.183  22.880 -0.4803 -0.0900  0.0692
25948DOD     C121663   7.454  10.809  15.471  0.1802 -0.1176  0.0689
25948DOD     C221664   7.603  11.218  15.322  0.0718  0.1315 -0.0173
25948DOD     C321665   7.731  11.678  15.287  0.1031 -0.0510  0.1138
25949DOD     C121666  17.301  10.595  13.431 -0.0496  0.0502  0.1101
25949DOD     C221667  17.099  10.304  13.730  0.1590 -0.2579  0.1129
25949DOD     C321668  16.992  10.219  14.218 -0.0818 -0.0082 -0.0335
25950DOD     C121669   8.995  12.030  17.755  0.1883 -0.1429  0.0586
25950DOD     C221670   9.324  11.811  17.970 -0.3648 -0.2517 -0.3316
25950DOD     C321671   9.381  11.578  18.403 -0.2262 -0.0304 -0.2347
25951DOD     C121672  28.176  15.216  29.478  0.1531  0.0581 -0.2402
25951DOD     C221673  28.311  14.721  29.441  0.2214 -0.1152 -0.1557
25951DOD     C321674  28.685  14.384  29.435 -0.1637 -0.1647  0.0081
25952DOD     C121675   3.152  24.986   0.389 -0.5025 -0.0739  0.2504
25952DOD     C221676   3.465  24.986   0.713  0.0066  0.1319  0.1414
25952DOD     C321677   3.567  25.331   0.986  0.0839 -0.1170  0.1361
25953DOD     C121678   5.461   8.292  12.608  0.5358 -0.1337  0.1599
25953DOD     C221679   5.870   8.134  12.767  0.1795 -0.1269  0.0367
25953DOD     C321680   6.215   7.936  13.036 -0.0117 -0.1404 -0.1069
25954DOD     C121681   9.168   7.013  18.066 -0.1725  0.0038  0.0695
25954DOD     C221682   9.436   7.120  17.688 -0.0060  0.2341  0.4383
25954DOD     C321683   9.614   7.513  17.441  0.0991  0.2006  0.0389
25955DOD     C121684  20.508   2.059  15.522  0.1370 -0.0578  0.2898
25955DOD     C221685  20.241   1.660  15.513  0.1666 -0.0911 -0.1336
25955DOD     C321686  20.252   1.194  15.564  0.3032 -0.1399  0.2158
25956DOD     C121687  12.357  16.020   0.035  0.1589  0.2073 -0.0459
25956DOD     C221688  12.746  15.767   0.080 -0.0038  0.0459 -0.0107
25956DOD     C321689  13.127  15.728  30.152 -0.2561  0.0849  0.2754
25957DOD     C121690  21.683   8.299  11.826  0.2795  0.1697  0.1239
25957DOD     C221691  21.636   7.806  11.838 -0.1859 -0.1888 -0.2438
25957DOD     C321692  21.642   7.329  11.914 -0.0900 -0.2514  0.0372
25958DOD     C121693   8.188  23.254  25.428 -0.1245 -0.1050 -0.1066
25958DOD     C221694   8.326  23.101  25.831 -0.0044  0.1243 -0.0818
25958DOD     C321695   8.420  22.938  26.260  0.0844 -0.0893 -0.1830
25959DOD     C121696  19.687  11.814  18.190 -0.2503  0.0449  0.3627
25959DOD     C221697  19.499  11.498  18.471  0.1082  0.0255 -0.2356
25959DOD     C321698  19.366  11.137  18.798  0.5223  0.3109 -0.1991
25960DOD     C121699  22.088   7.709  20.804 -0.1005 -0.2653  0.1377
25960DOD     C221700  21.977   8.063  20.471 -0.2170  0.1038 -0.0928
25960DOD     C321701  22.097   8.451  20.206  0.2181  0.0758  0.0365
25961DOD     C121702  25.725   3.091  16.758 -0.0062  0.2996  0.6007
25961DOD     C221703  25.375   2.989  17.036 -0.2972 -0.1822  0.3534
25961DOD     C321704  25.026   3.022  17.261  0.0724 -0.0538  0.2000
25962DOD     C121705  23.707  10.085  23.879  0.0724 -0.2035 -0.0009
25962DOD     C221706  23.682   9.653  23.942  0.1076 -0.0914 -0.1197
25962DOD     C321707  23.760   9.256  24.125  0.0929  0.2552 -0.1659
25963DOD     C121708  20.623   2.293  20.941 -0.0194  0.1289  0.2027
25963DOD     C221709  20.703   2.677  21.061 -0.1480 -0.2111  0.1125
25963DOD     C321710  20.630   2.700  21.498 -0.0690  0.1052  0.0294
25964DOD     C121711  14.312  18.476  24.147  0.1612  0.0702  0.1050
25964DOD     C221712  14.625  18.366  24.438 -0.1975 -0.0577  0.0302
25964DOD     C321713  14.805  18.273  24.858  0.1666  0.0098  0.2094
25965DOD     C121714  17.492  25.697  18.806 -0.1123  0.1533  0.0166
25965DOD     C221715  17.532  25.997  19.167  0.2162 -0.0706 -0.1239
25965DOD     C321716  17.822  26.224  19.390  0.0033 -0.3066 -0.0713
25966DOD     C121717  15.877   7.526  14.094 -0.2124 -0.1426  0.2389
25966DOD     C221718  16.076   7.242  13.759 -0.1929  0.2251 -0.0364
25966DOD     C321719  16.143   6.864  13.594  0.2157  0.3449  0.1660
25967DOD     C121720  21.490  17.322  12.083  0.0607  0.0293 -0.0792
25967DOD     C221721  21.418  17.718  11.839  0.1054  0.1025 -0.1435
25967DOD     C321722  21.219  18.136  11.724 -0.2296 -0.2257 -0.0025
25968DOD     C121723   4.957  11.022  10.218 -0.0018  0.1537 -0.0945
25968DOD     C221724   4.790  11.474  10.205 -0.0800  0.0986  0.1942
25968DOD     C321725   4.795  11.918  10.065  0.0903  0.1284 -0.0734
25969DOD     C121726  20.415   4.811  20.350 -0.1408 -0.1942  0.0080
25969DOD     C221727  20.581   4.376  20.312 -0.1617  0.0429 -0.1210
25969DOD     C321728  20.521   3.982  20.135 -0.1474  0.0960  0.1045
25970DOD     C121729  29.398  13.725  15.553 -0.0036 -0.2521 -0.2688
25970DOD     C221730  29.687  13.941  15.864  0.0190  0.0236 -0.1674
25970DOD     C321731  30.002  14.261  15.719  0.3564  0.2502  0.1654
25971DOD     C121732   5.531  29.399  29.481  0.0818 -0.1152 -0.2639
25971DOD     C221733   5.878  29.484  29.207  0.0477  0.1331  0.1165
25971DOD     C321734   6.259  29.667  29.227  0.0386  0.2555  0.1325
25972DOD     C121735  28.569   1.682  10.173  0.0329 -0.1530 -0.2789
25972DOD     C221736  28.686   2.070  10.144 -0.1100  0.0917  0.1277
25972DOD     C321737  28.899   2.342  10.441 -0.1236  0.3363 -0.0690
25973DOD     C121738   4.472  20.017  27.074  0.1564 -0.0833 -0.0692
25973DOD     C221739   4.548  20.401  27.396 -0.1219  0.1207  0.2308
25973DOD     C321740   4.930  20.683  27.416 -0.2022 -0.0353 -0.0356
25974DOD     C121741  14.205  11.793  30.247  0.0121 -0.1191 -0.0428
25974DOD     C221742  14.391  11.393  30.340 -0.1900  0.2517  0.0145
25974DOD     C321743  14.426  11.079   0.361  0.1592 -0.0037  0.2218
25975DOD     C121744  24.593  24.623  21.118  0.0827 -0.0131 -0.2089
25975DOD     C221745  24.938  24.372  21.278  0.1315 -0.1494  0.3044
25975DOD     C321746  25.324  24.398  21.476 -0.2353  0.0993  0.0632
25976DOD     C121747   7.137  29.535   5.357 -0.2695  0.4281  0.0161
25976DOD     C221748   7.628  29.526   5.372 -0.0862 -0.0220 -0.1917
25976DOD     C321749   8.066  29.509   5.574 -0.3043  0.1297  0.0234
25977DOD     C121750  22.561  18.278  14.165  0.0262  0.1202  0.1347
25977DOD     C221751  22.896  18.308  14.526  0.3301  0.0801 -0.0037
25977DOD     C321752  23.201  18.060  14.725 -0.0758 -0.1232  0.0918
25978DOD     C121753  22.265   5.287   8.848  0.0363  0.3812  0.0542
25978DOD     C221754  22.479   5.631   8.616 -0.0974  0.0727 -0.3484
25978DOD     C321755  22.538   6.062   8.425 -0.2132  0.2391 -0.1618
25979DOD     C121756   3.621   5.034  21.088  0.0797 -0.2802 -0.3227
25979DOD     C221757   4.064   4.936  20.997  0.0560  0.0724  0.1404
25979DOD     C321758   4.439   4.950  20.702 -0.2242  0.0852 -0.1318
25980DOD     C121759  24.674  12.706  17.527 -0.0005 -0.0246  0.0158
25980DOD     C221760  24.414  13.108  17.725 -0.2369 -0.0098  0.0878
25980DOD     C321761  24.033  13.153  17.990 -0.0701  0.0540 -0.1293
25981DOD     C121762   1.292   9.190  22.642  0.1092  0.3460  0.2352
25981DOD     C221763   1.109   9.636  22.565 -0.1928  0.1760  0.0297
25981DOD     C321764   0.692   9.668  22.812 -0.3322  0.3182 -0.2998
25982DOD     C121765  11.676  23.264   7.442 -0.1125  0.0584  0.0724
25982DOD     C221766  12.030  23.136   7.094 -0.2021 -0.0097  0.0487
25982DOD     C321767  12.309  22.973   6.750  0.2167 -0.1392  0.0295
25983DOD     C121768  24.553   3.495  28.364  0.0357 -0.1232 -0.0531
25983DOD     C221769  24.552   3.599  27.919 -0.2522 -0.1263 -0.0577
25983DOD     C321770  24.321   3.936  27.618  0.4054  0.1713  0.2374
25984DOD     C121771  19.547   3.478  23.939 -0.0214  0.0185 -0.1287
25984DOD     C221772  19.828   3.773  24.179 -0.3823 -0.3322 -0.3561
25984DOD     C321773  19.954   4.265  24.222 -0.1807 -0.0071  0.2951
25985DOD     C121774  10.019   4.143  21.079  0.3517  0.2887  0.0923
25985DOD     C221775  10.303   4.423  20.922  0.1107  0.0416 -0.3717
25985DOD     C321776  10.303   4.785  20.604  0.0124  0.1417 -0.0696
25986DOD     C121777  13.509  15.477  21.953 -0.1012 -0.0086 -0.1325
25986DOD     C221778  13.646  15.810  21.601 -0.2855 -0.0818 -0.0567
25986DOD     C321779  13.922  16.227  21.698  0.0469  0.1819 -0.2087
25987DOD     C121780  11.945  19.507  29.313  0.2548  0.1234  0.2208
25987DOD     C221781  12.149  19.795  28.937  0.2187  0.1038 -0.3765
25987DOD     C321782  12.182  20.286  28.815 -0.1406  0.0854 -0.0828
25988DOD     C121783   4.978  10.228  21.507 -0.0260  0.1272  0.0509
25988DOD     C221784   5.189  10.262  21.094 -0.0266  0.1876  0.0990
25988DOD     C321785   5.443  10.491  20.829  0.1701  0.0713  0.0529
25989DOD     C121786  21.907  13.730  20.693  0.0094  0.3239 -0.1692
25989DOD     C221787  21.704  13.601  21.079 -0.2259 -0.0741  0.0973
25989DOD     C321788  21.512  13.655  21.491 -0.3047  0.1474  0.4923
25990DOD     C121789  11.215  17.063  10.940  0.0695  0.3245  0.1522
25990DOD     C221790  10.815  16.795  10.951  0.1029  0.2697  0.2111
25990DOD     C321791  10.461  16.572  10.941  0.1484 -0.1513 -0.1375
25991DOD     C121792  12.478  22.342  20.631 -0.0970  0.3447 -0.1481
25991DOD     C221793  12.615  21.907  20.882 -0.0673 -0.0615  0.0438
25991DOD     C321794  12.459  21.487  20.909 -0.2882 -0.0607  0.1100
25992DOD     C121795   5.181   6.736   6.066 -0.0149  0.0121 -0.3606
25992DOD     C221796   5.480   6.345   5.978  0.1558 -0.0886 -0.2202
25992DOD     C321797   5.281   5.920   5.936  0.1020 -0.0469 -0.2463
25993DOD     C121798  23.152  25.803  13.499 -0.0507  0.3481 -0.2875
25993DOD     C221799  23.143  26.100  13.158  0.1151 -0.2657  0.0904
25993DOD     C321800  23.117  26.497  12.918 -0.0753  0.0647  0.0920
25994DOD     C121801  30.004   6.044  10.953  0.2366  0.0926  0.2203
25994DOD     C221802  29.969   5.698  10.647  0.1229  0.0825  0.1398
25994DOD     C321803  29.981   5.475  10.244 -0.1490 -0.3203 -0.2144
25995DOD     C121804  14.729   3.474  21.459 -0.1184  0.0695  0.1254
25995DOD     C221805  14.820   3.841  21.166 -0.0191 -0.0560  0.1487
25995DOD     C321806  15.017   3.909  20.740  0.5452 -0.2041 -0.1277
25996DOD     C121807   6.653  22.580  17.801 -0.1576 -0.0837 -0.4212
25996DOD     C221808   6.570  22.105  17.823  0.2458  0.0089  0.2326
25996DOD     C321809   6.480  21.722  18.038 -0.1362 -0.0583  0.0782
25997DOD     C121810  29.773   8.678  10.384  0.2795 -0.2629  0.0618
25997DOD     C221811  30.144   8.713  10.681 -0.0595 -0.2881 -0.1149
25997DOD     C321812   0.279   8.798  10.890 -0.0069 -0.0332  0.0156
25998DOD     C121813   5.318  22.843  27.089  0.0603 -0.2608  0.0013
25998DOD     C221814   5.623  22.800  26.810 -0.1354 -0.3495  0.0705
25998DOD     C321815   5.762  22.872  26.399 -0.1066  0.1792 -0.0502
25999DOD     C121816  25.937  24.477  16.707  0.1315  0.2139 -0.1588
25999DOD     C221817  25.777  24.047  16.661 -0.3650 -0.3323 -0.4148
25999DOD     C321818  25.792  23.596  16.900 -0.0172 -0.1469 -0.0407
26000DOD     C121819   8.525   5.471  27.205 -0.1342  0.3360  0.1159
26000DOD     C221820   9.013   5.695  27.119  0.3753 -0.0502  0.0032
26000DOD     C321821   9.204   6.119  26.965  0.1588 -0.0353  0.1556
26001DOD     C121822   8.187  28.661   3.666  0.2617 -0.1721 -0.1189
26001DOD     C221823   7.846  28.843   3.455  0.1433 -0.1048  0.0047
26001DOD     C321824   7.672  28.697   3.012  0.0850  0.1263 -0.2894
26002DOD     C121825  17.241  23.521  11.714 -0.1298 -0.1460 -0.0061
26002DOD     C221826  17.567  23.242  11.490  0.2111  0.0021 -0.0084
26002DOD     C321827  17.427  22.835  11.342 -0.1894  0.0506 -0.2423
26003DOD     C121828  18.806  29.194  18.602 -0.4246 -0.1844 -0.0928
26003DOD     C221829  18.840  29.213  19.057 -0.2536 -0.1388  0.0921
26003DOD     C321830  18.635  28.941  19.421  0.0219 -0.0547  0.2042
26004DOD     C121831   6.802  18.477  15.561  0.2286 -0.1511  0.0057
26004DOD     C221832   6.397  18.780  15.455 -0.0337  0.1742  0.0563
26004DOD     C321833   6.257  18.789  14.983  0.0967 -0.0144  0.0125
26005DOD     C121834  18.332  10.922  24.592 -0.3965 -0.1020 -0.2688
26005DOD     C221835  17.936  11.088  24.498 -0.1200  0.0800 -0.0629
26005DOD     C321836  17.473  11.122  24.483  0.0212  0.0736 -0.2767
26006DOD     C121837   5.009  23.647   3.470  0.0365 -0.1203 -0.3788
26006DOD     C221838   5.413  23.811   3.686 -0.1077  0.0129 -0.0916
26006DOD     C321839   5.772  24.162   3.727  0.2713  0.0563 -0.0119
26007DOD     C121840  25.175   2.023  12.274 -0.1711 -0.1241  0.3079
26007DOD     C221841  25.303   1.674  12.001 -0.2399 -0.1067  0.1337
26007DOD     C321842  25.188   1.292  11.826  0.3412  0.0409 -0.1404
26008DOD     C121843   1.557   8.582  19.760 -0.1182 -0.0509 -0.4262
26008DOD     C221844   2.039   8.669  19.728 -0.1084  0.6267  0.2313
26008DOD     C321845   2.246   8.488  20.173  0.2106 -0.0172 -0.1071
26009DOD     C121846  25.036   6.093  19.840  0.0446 -0.0962  0.2451
26009DOD     C221847  25.121   6.437  20.097  0.0385  0.0429  0.2126
26009DOD     C321848  25.089   6.601  20.539 -0.0691  0.1930  0.0829
26010DOD     C121849  13.705   9.599  10.938 -0.2073  0.1920  0.3631
26010DOD     C221850  13.657   9.430  11.377  0.1752 -0.3265 -0.1442
26010DOD     C321851  13.417   9.200  11.698 -0.0186 -0.0146 -0.0109
26011DOD     C121852   6.297   6.631  17.953 -0.1164  0.1167  0.0753
26011DOD     C221853   6.415   6.316  17.662  0.0790 -0.0298 -0.1187
26011DOD     C321854   6.331   5.867  17.522  0.3953 -0.1170  0.1028
26012DOD     C121855  16.545   9.678  15.142 -0.0282  0.0639 -0.0381
26012DOD     C221856  16.526   9.818  14.723 -0.0652 -0.2123  0.3639
26012DOD     C321857  16.497  10.121  14.379 -0.0089  0.1132 -0.1257
26013DOD     C121858   5.933   8.986   8.689 -0.1445 -0.0287  0.0645
26013DOD     C221859   5.655   9.338   8.504 -0.3215  0.2179 -0.2270
26013DOD     C321860   5.384   9.687   8.592 -0.0168  0.2120  0.0237
26014DOD     C121861  13.951  26.855  12.151  0.0361  0.2379 -0.0364
26014DOD     C221862  14.130  27.220  12.031 -0.0796 -0.2168 -0.0734
26014DOD     C321863  14.403  27.562  11.895 -0.1341 -0.1646 -0.3424
26015DOD     C121864  29.141  28.939  14.490  0.4031  0.0942  0.0936
26015DOD     C221865  28.985  28.573  14.356  0.2502  0.4254  0.0357
26015DOD     C321866  28.609  28.298  14.411  0.2332  0.0629  0.0204
26016DOD     C121867  27.006  29.208   3.616 -0.1997  0.0353  0.0929
26016DOD     C221868  27.375  28.997   3.449  0.0486  0.3174  0.0655
26016DOD     C321869  27.670  28.758   3.167 -0.0311 -0.0674 -0.1876
26017DOD     C121870  18.582   1.783  11.321  0.0431  0.0858  0.0661
26017DOD     C221871  18.980   1.906  11.179 -0.0229  0.1111  0.1281
26017DOD     C321872  19.308   2.032  10.889  0.1732 -0.4865  0.0977
26018DOD     C121873  20.049   8.813  21.616 -0.2074 -0.1922  0.0353
26018DOD     C221874  20.390   8.788  21.309 -0.0324  0.0607  0.1054
26018DOD     C321875  20.819   9.002  21.308 -0.1355 -0.2068  0.2013
26019DOD     C121876   1.057  28.222  18.839 -0.1169  0.0894 -0.0950
26019DOD     C221877   0.871  28.597  18.634 -0.1246  0.1282  0.0350
26019DOD     C321878   0.820  28.995  18.376 -0.3514 -0.0157 -0.0461
26020DOD     C121879  12.665  24.837  13.401  0.2533 -0.3185  0.2480
26020DOD     C221880  12.423  24.453  13.526  0.1800 -0.1525 -0.0066
26020DOD     C321881  12.073  24.324  13.768 -0.0385  0.0385  0.0503
26021DOD     C121882   0.304  13.891  16.544 -0.1214  0.1911  0.0988
26021DOD     C221883   0.474  13.448  16.610  0.2299  0.0935 -0.1608
26021DOD     C321884   0.581  13.012  16.719  0.0765 -0.0857 -0.1453
26022DOD     C121885   7.395  10.650  17.706 -0.3310 -0.1802  0.4116
26022DOD     C221886   7.699  10.298  17.959  0.1309 -0.0877  0.1225
26022DOD     C321887   7.536  10.022  18.264  0.4046 -0.1595  0.2007
26023DOD     C121888  27.600   9.866  22.627  0.0604  0.0055  0.0824
26023DOD     C221889  28.025   9.921  22.497  0.3237 -0.1822  0.2796
26023DOD     C321890  28.105  10.221  22.122 -0.2892 -0.1637  0.3018
26024DOD     C121891  22.503   4.262  28.035 -0.2646 -0.0411 -0.0342
26024DOD     C221892  22.675   3.938  27.729 -0.2284 -0.0470  0.0184
26024DOD     C321893  22.856   3.491  27.638  0.4471 -0.5200  0.1467
26025DOD     C121894  21.553   0.007   7.853  0.1072 -0.0300 -0.1988
26025DOD     C221895  21.693   0.341   8.195 -0.0092  0.0894  0.1436
26025DOD     C321896  21.967   0.764   8.172 -0.0435  0.0410 -0.0903
26026DOD     C121897  17.540  16.685  28.337  0.0865 -0.0232 -0.0401
26026DOD     C221898  17.860  16.554  28.091  0.3819  0.3554 -0.1749
26026DOD     C321899  18.186  16.724  27.796 -0.1184 -0.0264 -0.2493
26027DOD     C121900  22.966  14.215  20.150 -0.1718  0.3428 -0.1132
26027DOD     C221901  23.065  14.514  19.808 -0.0622  0.1392  0.3647
26027DOD     C321902  23.394  14.537  19.460 -0.0896 -0.0271 -0.0362
26028DOD     C121903  15.550  17.045  25.725 -0.0712  0.0569 -0.1206
26028DOD     C221904  15.263  16.876  25.427 -0.2424 -0.3246  0.1034
26028DOD     C321905  14.798  16.975  25.301 -0.3111  0.0499  0.0375
26029DOD     C121906  15.233  16.624  18.796 -0.2495 -0.1152 -0.1938
26029DOD     C221907  14.938  16.663  18.451 -0.0476  0.1583 -0.3127
26029DOD     C321908  14.513  16.509  18.408 -0.3630  0.3798  0.3086
26030DOD     C121909  13.568  22.211  11.865 -0.1742 -0.2750 -0.2519
26030DOD     C221910  13.769  22.285  12.264 -0.1104  0.0605  0.0492
26030DOD     C321911  14.158  22.268  12.560  0.0557 -0.1773  0.1251
26031DOD     C121912  11.949  16.473  11.170  0.2005 -0.0903 -0.1215
26031DOD     C221913  11.859  16.941  11.209 -0.0193 -0.0041 -0.1062
26031DOD     C321914  11.766  17.368  11.177  0.1165 -0.0217 -0.0311
26032DOD     C121915  20.848   4.264   7.195  0.2935 -0.4010  0.1807
26032DOD     C221916  20.592   3.854   7.159  0.1553 -0.2276 -0.1787
26032DOD     C321917  20.382   3.543   7.446 -0.0514 -0.1812 -0.1578
26033DOD     C121918  19.712  28.863  26.079 -0.0528 -0.3104 -0.0499
26033DOD     C221919  19.520  29.074  26.436 -0.0596 -0.0420 -0.0336
26033DOD     C321920  19.661  29.234  26.864  0.1629  0.0616 -0.0944
26034DOD     C121921   8.878   5.040  30.078 -0.1487  0.4675  0.0826
26034DOD     C221922   9.049   4.596  30.094 -0.1309 -0.0046 -0.0023
26034DOD     C321923   9.424   4.331  30.049  0.1203  0.2236  0.0097
26035DOD     C121924  15.794   9.027   6.758 -0.0290  0.0714 -0.0647
26035DOD     C221925  15.406   8.790   6.971  0.1178  0.2003 -0.1009
26035DOD     C321926  15.049   8.652   7.183  0.2314  0.1049 -0.0524
26036DOD     C121927  29.457  17.192  12.559  0.2808 -0.2720  0.0340
26036DOD     C221928  29.577  17.627  12.573  0.1970 -0.3783  0.0158
26036DOD     C321929  29.927  17.882  12.354 -0.2120 -0.1345 -0.2175
26037DOD     C121930  16.779  21.983  20.895 -0.3416  0.0538 -0.0283
26037DOD     C221931  17.161  22.181  20.630  0.3063 -0.0376 -0.1424
26037DOD     C321932  17.479  22.279  20.346 -0.0636 -0.2271  0.1259
26038DOD     C121933  27.637  21.227  22.681 -0.0304  0.2288  0.0590
26038DOD     C221934  27.700  20.982  22.291 -0.0156  0.2161  0.2771
26038DOD     C321935  28.155  21.136  22.165 -0.0171  0.3372 -0.0660
26039DOD     C121936  11.953  19.064  11.699  0.2838  0.1046 -0.2115
26039DOD     C221937  11.971  19.183  11.255  0.1494 -0.0298  0.3110
26039DOD     C321938  12.034  19.314  10.837 -0.3380 -0.0217 -0.1502
26040DOD     C121939  29.633  24.903  26.607 -0.0931 -0.1895  0.1674
26040DOD     C221940  29.724  24.593  26.914  0.0229  0.1432  0.2098
26040DOD     C321941  29.649  24.201  27.116 -0.3285 -0.0924 -0.1670
26041DOD     C121942  10.985   8.297   9.602 -0.2369 -0.2017  0.0448
26041DOD     C221943  10.935   8.060   9.990 -0.0419 -0.0862  0.2772
26041DOD     C321944  10.600   7.693  10.105 -0.1932  0.0457  0.2385
26042DOD     C121945   0.881   9.445  16.904  0.0419 -0.0615 -0.2982
26042DOD     C221946   1.292   9.545  17.122 -0.0168 -0.0251 -0.0005
26042DOD     C321947   1.541   9.937  17.084 -0.1989 -0.2615  0.0134
26043DOD     C121948   6.296   9.712  26.903 -0.0402 -0.3635  0.0811
26043DOD     C221949   6.749   9.568  26.866  0.2580  0.1037  0.3061
26043DOD     C321950   7.195   9.799  26.794 -0.0336  0.0695  0.0703
26044DOD     C121951   3.908   1.280   0.695  0.0123  0.0302  0.0227
26044DOD     C221952   4.159   1.627   0.796 -0.0639 -0.0475 -0.3494
26044DOD     C321953   4.378   1.987   0.960 -0.2306 -0.0736  0.1322
26045DOD     C121954  12.321  25.475  10.185  0.1934 -0.4373 -0.1699
26045DOD     C221955  12.786  25.671  10.362 -0.4265 -0.0544  0.2551
26045DOD     C321956  13.100  26.006  10.468 -0.1032  0.0292  0.1992
26046DOD     C121957  25.026  22.209  18.023  0.1706 -0.0500 -0.1242
26046DOD     C221958  24.688  22.462  17.824  0.0287  0.0124 -0.0783
26046DOD     C321959  24.459  22.519  17.426  0.1476 -0.0123 -0.0672
26047DOD     C121960   2.077  14.135   7.933  0.0571  0.1315 -0.1118
26047DOD     C221961   1.904  14.276   7.506  0.1190 -0.1629  0.0796
26047DOD     C321962   1.894  14.365   7.048  0.0304  0.0446  0.1685
26048DOD     C121963  21.009  13.877  17.879  0.1250  0.1942 -0.0696
26048DOD     C221964  20.883  13.521  17.651 -0.1662 -0.0646 -0.1834
26048DOD     C321965  20.608  13.224  17.416  0.1086 -0.2503  0.2005
26049DOD     C121966  11.578  24.815  15.081  0.0795  0.1801  0.2347
26049DOD     C221967  11.510  25.302  14.969 -0.0314  0.0434  0.0855
26049DOD     C321968  11.544  25.740  15.199  0.0581  0.0680  0.0756
26050DOD     C121969   1.871  27.797  11.741 -0.1449 -0.0629  0.0743
26050DOD     C221970   2.008  27.619  11.275 -0.0432  0.0250 -0.1625
26050DOD     C321971   1.878  27.377  10.886  0.1980  0.1163 -0.0643
26051DOD     C121972  12.534  19.900   0.627  0.2925  0.0378  0.0449
26051DOD     C221973  12.582  20.345   0.440  0.2330 -0.1272  0.0944
26051DOD     C321974  12.783  20.494   0.082  0.0437  0.1690  0.2678
26052DOD     C121975   2.674  18.896  13.232  0.0867 -0.3074  0.1696
26052DOD     C221976   2.415  19.110  13.590  0.3595  0.0814  0.1210
26052DOD     C321977   2.029  19.195  13.885 -0.0255 -0.0792  0.0058
26053DOD     C121978  27.863  13.416  26.922  0.0083 -0.0230 -0.0679
26053DOD     C221979  28.329  13.270  26.894 -0.0897  0.1660 -0.0832
26053DOD     C321980  28.616  13.031  26.628  0.1611 -0.2793 -0.0175
26054DOD     C121981   6.410   5.709   6.867  0.1650 -0.1329 -0.2107
26054DOD     C221982   6.135   6.060   7.027 -0.2249 -0.1006 -0.0588
26054DOD     C321983   6.278   6.339   7.360  0.1055 -0.0465  0.3232
26055DOD     C121984   1.257  21.548   4.307 -0.0236 -0.0128 -0.0064
26055DOD     C221985   0.763  21.639   4.399 -0.1937  0.0600 -0.0428
26055DOD     C321986   0.328  21.566   4.378  0.2714  0.0034 -0.1606
26056DOD     C121987   0.928  16.492  22.678 -0.0530  0.2752  0.3451
26056DOD     C221988   0.984  16.248  22.250  0.3691  0.0580  0.1967
26056DOD     C321989   0.888  15.894  21.998  0.1146  0.0559  0.1427
26057DOD     C121990  22.225  12.767   4.512 -0.1437 -0.1387 -0.2798
26057DOD     C221991  21.935  12.488   4.284 -0.1694  0.1034 -0.0386
26057DOD     C321992  21.985  12.233   3.902 -0.0934 -0.0895  0.2351
26058DOD     C121993  28.680  11.284   8.182  0.0894 -0.3157  0.2445
26058DOD     C221994  28.485  11.685   8.047  0.1084  0.1912  0.0177
26058DOD     C321995  28.068  11.846   8.077  0.1486  0.0285  0.4348
26059DOD     C121996  20.790  14.257   0.302  0.2034 -0.1724  0.1054
26059DOD     C221997  20.983  14.530   0.609 -0.0305 -0.2074 -0.1337
26059DOD     C321998  20.827  14.942   0.717  0.2786  0.0629  0.1155
26060DOD     C121999  12.761   0.075  11.969  0.1479  0.1737  0.0181
26060DOD     C222000  12.836   0.544  11.902  0.3071 -0.0570 -0.2849
26060DOD     C322001  12.606   0.810  12.175 -0.2164  0.2427 -0.3476
26061DOD     C122002  20.875  13.179   9.872  0.2399 -0.1094  0.1898
26061DOD     C222003  21.265  13.097   9.771 -0.2889  0.1165 -0.0977
26061DOD     C322004  21.442  13.011   9.388 -0.1534  0.1662  0.0115
26062DOD     C122005   5.119  25.198  11.757  0.0668 -0.1697  0.0691
26062DOD     C222006   4.922  25.594  11.601  0.1962 -0.1026  0.0106
26062DOD     C322007   4.912  25.801  11.179 -0.1749 -0.1048 -0.1720
26063DOD     C122008  20.195  18.987   3.360  0.2277  0.1422  0.0580
26063DOD     C222009  19.799  19.133   3.476 -0.3152  0.0166  0.2185
26063DOD     C322010  19.414  19.403   3.418 -0.0026  0.0945 -0.1260
26064DOD     C122011  19.512   5.016   3.593  0.3122  0.3168 -0.1843
26064DOD     C222012  19.874   5.010   3.861 -0.0152 -0.1952 -0.1243
26064DOD     C322013  20.367   5.017   3.788 -0.2046  0.4041 -0.4104
26065DOD     C122014  11.940  17.759   3.817 -0.0244 -0.0699  0.0763
26065DOD     C222015  11.533  17.842   3.954  0.0196 -0.2576  0.1429
26065DOD     C322016  11.369  17.642   4.345  0.0335 -0.1219  0.0550
26066DOD     C122017  15.276  10.399  18.572 -0.2215  0.0099 -0.1811
26066DOD     C222018  15.195  10.045  18.340  0.0387 -0.1572  0.1438
26066DOD     C322019  15.255   9.626  18.116 -0.0085 -0.1609  0.0160
26067DOD     C122020  10.786  25.515  27.214  0.0756 -0.0675 -0.0408
26067DOD     C222021  10.594  25.515  27.610  0.0247  0.2069 -0.1662
26067DOD     C322022  10.516  25.296  28.016  0.0108 -0.0452 -0.2174
26068DOD     C122023   1.034   2.783  22.236 -0.2237 -0.0541 -0.0957
26068DOD     C222024   0.951   2.820  21.780 -0.1514 -0.2042 -0.1341
26068DOD     C322025   0.588   2.821  21.526  0.0565 -0.0762 -0.0252
26069DOD     C122026   7.113   7.306   0.628 -0.2288 -0.0735 -0.2305
26069DOD     C222027   7.072   7.280   0.191 -0.1306  0.2242 -0.0991
26069DOD     C322028   7.190   7.440  30.111 -0.0718 -0.0687 -0.1389
26070DOD     C122029  16.761  12.339  28.253 -0.1670  0.0124 -0.1620
26070DOD     C222030  17.169  12.157  28.249 -0.0330  0.0354  0.0655
26070DOD     C322031  17.459  11.859  28.052 -0.0909 -0.0843  0.2173
26071DOD     C122032  21.825   8.379  27.854  0.2900 -0.1880 -0.0159
26071DOD     C222033  21.835   8.696  27.498  0.2532 -0.2151 -0.0260
26071DOD     C322034  22.202   8.709  27.175  0.6274  0.2975 -0.3258
26072DOD     C122035  16.606   8.104  10.107  0.0674  0.4179  0.2325
26072DOD     C222036  16.425   8.220   9.664  0.4108 -0.2449  0.0387
26072DOD     C322037  16.204   8.286   9.221  0.0261  0.3243 -0.1230
26073DOD     C122038  10.462   3.719  16.125 -0.3393 -0.2873  0.1390
26073DOD     C222039  10.824   3.726  16.464  0.1682  0.3722  0.1699
26073DOD     C322040  11.165   3.847  16.805  0.4118  0.1755 -0.1644
26074DOD     C122041   7.167   6.177   9.716  0.1759  0.1204  0.2425
26074DOD     C222042   7.508   5.940   9.915 -0.0903 -0.0308  0.3105
26074DOD     C322043   7.950   5.782   9.933  0.1552 -0.1042  0.2380
26075DOD     C122044  19.378  13.146   1.572 -0.1384  0.2453  0.0137
26075DOD     C222045  19.548  13.549   1.345  0.3732  0.2967 -0.0146
26075DOD     C322046  19.509  13.962   1.161  0.0817  0.1713  0.0387
26076DOD     C122047  17.664  26.416  24.710  0.1845 -0.1986  0.0958
26076DOD     C222048  18.127  26.331  24.688  0.1224  0.0917  0.1591
26076DOD     C322049  18.530  26.031  24.702  0.1835 -0.2026  0.3864
26077DOD     C122050  19.499  14.744  14.883 -0.0135 -0.0355  0.1433
26077DOD     C222051  19.885  14.631  14.644 -0.1626 -0.0021 -0.2194
26077DOD     C322052  20.012  14.169  14.505 -0.0529 -0.1131 -0.0690
26078DOD     C122053  23.740  15.992   3.464  0.1227 -0.0186 -0.3382
26078DOD     C222054  23.314  15.820   3.674 -0.0221 -0.3337 -0.1166
26078DOD     C322055  23.289  15.506   3.943  0.4375  0.3514 -0.1275
26079DOD     C122056  17.552   8.251  22.668 -0.4273  0.0735  0.2319
26079DOD     C222057  17.854   8.010  22.464 -0.0373 -0.2532  0.0453
26079DOD     C322058  18.070   8.046  22.025  0.0815 -0.0483 -0.1077
26080DOD     C122059  12.853  14.580  25.044 -0.0518 -0.0716 -0.0389
26080DOD     C222060  12.694  14.827  24.674  0.1714 -0.1549  0.0378
26080DOD     C322061  12.276  14.858  24.511 -0.1165 -0.1155  0.0765
26081DOD     C122062  30.292  17.590   2.799 -0.1431  0.2757  0.0647
26081DOD     C222063  29.890  17.650   2.588 -0.2303 -0.1414  0.1804
26081DOD     C322064  29.574  17.678   2.185 -0.0191 -0.1335 -0.3015
26082DOD     C122065  17.026  11.342  26.291  0.3168 -0.2473 -0.0133
26082DOD     C222066  16.877  11.772  26.265  0.1392 -0.2317 -0.0372
26082DOD     C322067  16.449  11.823  26.066  0.1754  0.1532  0.0938
26083DOD     C122068  15.291  26.425   6.414 -0.2398  0.2281  0.0151
26083DOD     C222069  14.995  26.221   6.687  0.2782  0.0722  0.1234
26083DOD     C322070  14.708  26.398   6.990  0.1453  0.0434 -0.0707
26084DOD     C122071   6.575  26.705   5.599 -0.0454 -0.0894 -0.2334
26084DOD     C222072   6.731  27.123   5.765 -0.2074 -0.1752  0.0519
26084DOD     C322073   7.178  27.153   5.913 -0.1166  0.1588 -0.1932
26085DOD     C122074  16.429   2.565  18.553 -0.1612  0.0691 -0.3762
26085DOD     C222075  16.244   2.849  18.237  0.1499  0.1131  0.1445
26085DOD     C322076  16.262   3.235  18.026 -0.0177  0.0732  0.2105
26086DOD     C122077  16.560  17.604  29.766 -0.1473  0.1540  0.1475
26086DOD     C222078  16.446  17.664  29.308 -0.0407 -0.1446  0.0149
26086DOD     C322079  16.688  18.003  29.079 -0.3252  0.1130  0.3101
26087DOD     C122080  17.874  24.702  12.482  0.1415  0.3677 -0.2826
26087DOD     C222081  17.626  24.988  12.699 -0.3541 -0.0345  0.0947
26087DOD     C322082  17.500  25.370  12.520  0.3283 -0.0705  0.1778
26088DOD     C122083  14.301  12.409  17.931  0.2335  0.0139 -0.0958
26088DOD     C222084  14.284  12.862  18.078  0.0341 -0.0993 -0.1027
26088DOD     C322085  14.322  13.313  18.001  0.0903 -0.2246 -0.0221
26089DOD     C122086  22.517  17.261   0.923  0.1187 -0.0403  0.2084
26089DOD     C222087  22.205  17.511   0.696 -0.2993  0.2341 -0.1303
26089DOD     C322088  22.138  17.892   0.466  0.1060 -0.2604 -0.1128
26090DOD     C122089   1.564  10.710   9.800 -0.0368  0.0953 -0.0515
26090DOD     C222090   1.852  10.564   9.468 -0.3945 -0.0737 -0.0577
26090DOD     C322091   1.794  10.584   8.988 -0.0356 -0.2073 -0.0378
26091DOD     C122092  16.183   4.821  10.066  0.2024  0.0567 -0.1892
26091DOD     C222093  16.056   4.674   9.681 -0.3571  0.0913  0.0313
26091DOD     C322094  16.061   4.378   9.336 -0.2358 -0.1558 -0.0568
26092DOD     C122095  22.364  15.803   0.701  0.0920 -0.0572  0.3441
26092DOD     C222096  22.019  15.832   0.992  0.1892 -0.1190 -0.0350
26092DOD     C322097  21.821  15.758   1.450 -0.0647 -0.4218  0.0490
26093DOD     C122098  22.804  20.467  27.676  0.0475 -0.2159 -0.0902
26093DOD     C222099  23.170  20.686  27.908 -0.3054  0.0088  0.0885
26093DOD     C322100  23.287  21.189  27.944 -0.0281 -0.2790 -0.0424
26094DOD     C122101  20.769   1.778  29.466 -0.2393  0.3980  0.1513
26094DOD     C222102  21.117   1.831  29.767 -0.0276 -0.0480  0.3397
26094DOD     C322103  21.575   2.001  29.896 -0.0363 -0.1680 -0.1888
26095DOD     C122104  11.735  26.303   0.279  0.0484 -0.3089  0.0250
26095DOD     C222105  11.931  26.725   0.242 -0.1491  0.0941  0.1912
26095DOD     C322106  11.895  27.094  30.271 -0.1529 -0.1510 -0.2157
26096DOD     C122107  12.592  13.795  24.443 -0.0915 -0.0059  0.5260
26096DOD     C222108  12.783  13.820  24.846  0.1944 -0.2000 -0.2585
26096DOD     C322109  12.647  13.629  25.233  0.0627  0.3715  0.1701
26097DOD     C122110   2.276  19.773   4.764 -0.1655 -0.5003 -0.1766
26097DOD     C222111   2.482  19.603   4.394 -0.2364  0.0409  0.0516
26097DOD     C322112   2.575  19.642   3.932 -0.0562 -0.0611  0.0894
26098DOD     C122113  29.502  28.324  12.775  0.0113  0.1717  0.1147
26098DOD     C222114  29.079  28.284  12.569 -0.0329  0.1800 -0.0772
26098DOD     C322115  28.748  28.284  12.268 -0.2452 -0.0310  0.0173
26099DOD     C122116  21.616  21.625  16.019  0.2978  0.1831  0.2005
26099DOD     C222117  21.483  21.163  16.130  0.0441  0.2390 -0.0086
26099DOD     C322118  21.675  20.767  16.079  0.2262 -0.0660 -0.1491
26100DOD     C122119  25.666   7.456  27.830  0.1560 -0.3769  0.4636
26100DOD     C222120  26.009   7.633  28.067 -0.0762 -0.0047 -0.0076
26100DOD     C322121  26.247   7.565  28.429 -0.0698 -0.1363  0.4765
26101DOD     C122122  19.797  21.998  29.729  0.1118  0.2044 -0.0179
26101DOD     C222123  19.579  22.421  29.845 -0.1668  0.1726 -0.5371
26101DOD     C322124  19.513  22.670  30.234 -0.0270 -0.0654  0.0999
26102DOD     C122125  27.855  18.263   1.527  0.0071 -0.1940 -0.1603
26102DOD     C222126  28.252  18.071   1.669 -0.0834  0.2748 -0.2466
26102DOD     C322127  28.545  18.010   2.046 -0.0571 -0.2679 -0.1378
26103DOD     C122128   3.864  22.145   8.423 -0.3128  0.2621 -0.0059
26103DOD     C222129   3.659  21.713   8.504 -0.0140 -0.0876 -0.0561
26103DOD     C322130   3.398  21.450   8.222 -0.0966  0.2627  0.2430
26104DOD     C122131   5.488   3.429  11.887 -0.1499 -0.2504 -0.0626
26104DOD     C222132   5.435   3.515  12.358 -0.3051  0.3209 -0.0990
26104DOD     C322133   5.458   3.916  12.600 -0.1457  0.1133 -0.0879
26105DOD     C122134  17.865  21.157  27.744 -0.0496  0.0059 -0.1773
26105DOD     C222135  17.755  21.471  28.102 -0.0491  0.2298 -0.0114
26105DOD     C322136  17.980  21.611  28.421 -0.0796  0.2088  0.1807
26106DOD     C122137  13.729  22.758  11.625 -0.0897 -0.0574 -0.2071
26106DOD     C222138  13.586  22.460  11.290  0.3307  0.0900 -0.3393
26106DOD     C322139  13.353  22.366  10.907 -0.0291 -0.2571 -0.1618
26107DOD     C122140  18.362   6.859   8.810  0.1088 -0.0770 -0.3205
26107DOD     C222141  18.067   6.794   8.452 -0.4249  0.0595  0.1090
26107DOD     C322142  18.048   6.612   8.063  0.1244 -0.1215  0.1030
26108DOD     C122143  16.340  23.712  18.947  0.0253 -0.0603  0.1732
26108DOD     C222144  16.273  23.555  19.351 -0.3893  0.0398 -0.0003
26108DOD     C322145  16.193  23.428  19.804  0.1540  0.0132 -0.4032
26109DOD     C122146   4.041  13.333  10.785 -0.0453  0.3229  0.0272
26109DOD     C222147   4.256  13.653  11.114  0.5198 -0.1244  0.0999
26109DOD     C322148   4.260  14.103  11.361 -0.0514 -0.1397 -0.2061
26110DOD     C122149  12.947  27.585   3.758  0.0249 -0.1790 -0.2354
26110DOD     C222150  12.505  27.505   3.818  0.4312  0.4671 -0.1760
26110DOD     C322151  12.194  27.333   4.141 -0.1666 -0.0233 -0.2022
26111DOD     C122152  16.688   9.627  14.283 -0.0494  0.1295  0.2781
26111DOD     C222153  16.824   9.881  13.885 -0.2567 -0.0181 -0.1817
26111DOD     C322154  16.881   9.721  13.465 -0.0768  0.0734 -0.1051
26112DOD     C122155   8.187  18.980  21.641  0.0555  0.2488 -0.0823
26112DOD     C222156   8.478  18.949  21.956  0.0427  0.1682  0.1823
26112DOD     C322157   8.951  18.902  22.085 -0.0851 -0.1288 -0.3224
26113DOD     C122158  20.677  25.259   5.399 -0.2083  0.2144  0.0077
26113DOD     C222159  20.242  25.338   5.303  0.3292 -0.0898  0.1605
26113DOD     C322160  19.852  25.510   5.091 -0.2833 -0.0579 -0.2504
26114DOD     C122161   0.539  21.431  24.838  0.2023  0.0341 -0.0318
26114DOD     C222162   0.232  21.084  24.810 -0.0950 -0.0436 -0.1559
26114DOD     C322163  30.212  21.026  24.467  0.2512  0.1772 -0.2777
26115DOD     C122164  10.208  19.843  12.006  0.0732 -0.0429 -0.0205
26115DOD     C222165   9.857  19.625  12.248  0.2017  0.1430  0.2250
26115DOD     C322166   9.456  19.452  12.395  0.0363  0.1418 -0.0924
26116DOD     C122167  11.234   6.652   2.423 -0.2514  0.2999 -0.0309
26116DOD     C222168  10.836   6.351   2.605 -0.2999  0.1815 -0.0132
26116DOD     C322169  10.675   6.057   2.297  0.4057  0.0380  0.1343
26117DOD     C122170   1.122   5.423  13.221  0.4766 -0.0712 -0.0024
26117DOD     C222171   1.267   5.837  13.197  0.0940  0.3627  0.2443
26117DOD     C322172   1.459   6.151  13.411 -0.4181  0.0654  0.0611
26118DOD     C122173  16.864  15.889   3.883 -0.4573  0.3545  0.0361
26118DOD     C222174  16.995  15.917   3.455 -0.2332 -0.0369 -0.1701
26118DOD     C322175  16.914  15.672   3.003  0.1700  0.1371  0.2053
26119DOD     C122176  15.977  13.789   0.170 -0.2286 -0.2379 -0.1401
26119DOD     C222177  15.857  13.940   0.567 -0.1973  0.1375  0.2622
26119DOD     C322178  15.762  13.750   0.987  0.0262  0.0784  0.1579
26120DOD     C122179  23.322  20.781  26.979  0.0307  0.2187  0.0947
26120DOD     C222180  23.155  20.936  26.579 -0.1380  0.0000  0.3091
26120DOD     C322181  22.926  20.984  26.159  0.1489 -0.1947  0.0370
26121DOD     C122182   4.804  10.739  23.245 -0.0215 -0.0562  0.0612
26121DOD     C222183   4.654  10.895  23.699  0.0564 -0.1232 -0.1208
26121DOD     C322184   4.266  11.093  23.960 -0.0826  0.1548 -0.3777
26122DOD     C122185  25.625  18.096   5.324  0.0049 -0.1065 -0.0231
26122DOD     C222186  25.588  18.240   5.794  0.0778 -0.2843  0.1016
26122DOD     C322187  25.592  18.359   6.317  0.0946 -0.0756 -0.1225
26123DOD     C122188  14.196  24.403   7.813  0.2655 -0.0548 -0.1431
26123DOD     C222189  14.509  24.359   8.104  0.2265 -0.3464  0.1734
26123DOD     C322190  14.805  24.034   8.137  0.2078 -0.0150 -0.1187
26124DOD     C122191  30.240  14.960  28.151 -0.1574  0.1042 -0.1853
26124DOD     C222192  29.933  15.278  28.294  0.0600  0.3285  0.2666
26124DOD     C322193  29.574  15.580  28.251  0.1728  0.0532 -0.0143
26125DOD     C122194  24.338  26.452  22.831 -0.0681  0.2290 -0.2166
26125DOD     C222195  24.318  26.116  23.071 -0.1267 -0.0358  0.2646
26125DOD     C322196  24.425  25.873  23.431 -0.0334  0.0185  0.0612
26126DOD     C122197  15.752  20.130  22.312 -0.0725  0.2167  0.0549
26126DOD     C222198  15.348  19.995  22.560  0.0413 -0.4271 -0.3746
26126DOD     C322199  14.901  20.112  22.620  0.1252 -0.2485 -0.0700
26127DOD     C122200  12.449   9.812  29.911 -0.2639 -0.0632  0.0707
26127DOD     C222201  12.714  10.059  29.654  0.1121  0.0361  0.0507
26127DOD     C322202  13.138  10.304  29.549  0.4264 -0.0164 -0.2591
26128DOD     C122203  23.589  29.375  24.849  0.4015  0.2974  0.0506
26128DOD     C222204  23.149  29.234  24.884 -0.0879  0.3033 -0.1313
26128DOD     C322205  22.852  29.231  24.602  0.0548  0.3748 -0.0672
26129DOD     C122206  14.370  19.412  20.989 -0.1748  0.1467  0.0343
26129DOD     C222207  14.220  19.134  20.626 -0.0297  0.0023 -0.2184
26129DOD     C322208  14.033  18.888  20.259  0.1618 -0.2272  0.1463
26130DOD     C122209  21.147  23.180   9.291 -0.0926 -0.0334 -0.0289
26130DOD     C222210  20.986  23.185   8.842 -0.3006  0.0639  0.2712
26130DOD     C322211  20.751  23.506   8.597  0.0970 -0.2056 -0.0123
26131DOD     C122212  29.591   2.539  10.465 -0.2395 -0.1155  0.2221
26131DOD     C222213  30.065   2.431  10.615 -0.0577 -0.1569 -0.2081
26131DOD     C322214   0.203   2.462  10.512 -0.2136  0.0067 -0.0069
26132DOD     C122215  21.717  18.108  11.916  0.3067  0.1266  0.2880
26132DOD     C222216  21.906  17.724  12.016 -0.2301 -0.1879 -0.2224
26132DOD     C322217  22.362  17.616  12.199  0.0712 -0.0042 -0.0999
26133DOD     C122218  22.035  27.746   9.886  0.0395  0.0800 -0.1567
26133DOD     C222219  22.252  27.810   9.471 -0.3026 -0.0928 -0.0708
26133DOD     C322220  22.042  27.792   9.056 -0.0740  0.2615 -0.1298
26134DOD     C122221  21.766  13.427  14.146 -0.2607  0.0977  0.0098
26134DOD     C222222  21.454  13.790  14.196  0.0276  0.1421  0.1157
26134DOD     C322223  21.038  13.876  14.312  0.3092 -0.3540 -0.2101
26135DOD     C122224   0.543  21.811  29.896  0.0618  0.0081 -0.2296
26135DOD     C222225   0.629  22.168  29.552 -0.1866  0.0344 -0.2129
26135DOD     C322226   0.462  22.576  29.336 -0.1152 -0.2167  0.0492
26136DOD     C122227   6.357  21.340  16.809 -0.2326 -0.3389 -0.2126
26136DOD     C222228   6.453  21.484  16.385 -0.3486  0.1876  0.0770
26136DOD     C322229   6.107  21.562  16.043  0.0798 -0.2105  0.2614
26137DOD     C122230  20.801  27.264  11.821 -0.1845 -0.0329  0.2791
26137DOD     C222231  20.745  27.103  11.389  0.1284  0.1256  0.1356
26137DOD     C322232  20.501  27.056  10.969  0.0098  0.0126 -0.1030
26138DOD     C122233  21.285  16.853   8.132  0.1651  0.0759  0.3763
26138DOD     C222234  21.411  16.433   8.224  0.2383  0.0958 -0.2456
26138DOD     C322235  21.718  16.047   8.151  0.3616  0.2656 -0.0652
26139DOD     C122236  26.523  24.285   8.623 -0.1122  0.4089  0.0869
26139DOD     C222237  26.126  24.112   8.690 -0.1153  0.2963  0.1918
26139DOD     C322238  26.039  23.607   8.684  0.2367  0.0248  0.0127
26140DOD     C122239  10.067   8.408  22.934  0.1641  0.0207 -0.0727
26140DOD     C222240   9.658   8.602  22.768 -0.1775  0.3814 -0.0829
26140DOD     C322241   9.566   8.978  22.516  0.0695 -0.1854 -0.0018
26141DOD     C122242   9.975   1.865  19.635 -0.2802  0.0980 -0.0420
26141DOD     C222243  10.182   2.265  19.493 -0.6375 -0.0895 -0.0499
26141DOD     C322244  10.196   2.635  19.252 -0.0088  0.2043  0.1039
26142DOD     C122245  26.594  18.226  25.246  0.1434 -0.0695 -0.2281
26142DOD     C222246  26.321  18.641  25.192  0.0027 -0.0541  0.3546
26142DOD     C322247  26.290  19.047  25.446  0.1315 -0.1776  0.4818
26143DOD     C122248   8.702   3.197   6.836 -0.0343 -0.0149  0.0997
26143DOD     C222249   8.791   3.518   7.124  0.1353 -0.0072 -0.2332
26143DOD     C322250   8.571   3.760   7.408  0.0365  0.1536  0.1236
26144DOD     C122251  27.339  13.381  18.211  0.2263 -0.3474  0.1596
26144DOD     C222252  27.419  13.007  17.983  0.0130 -0.0443  0.4282
26144DOD     C322253  27.697  12.834  17.625  0.1852  0.2536 -0.4094
26145DOD     C122254  11.329  26.250   0.567 -0.0155 -0.2605 -0.0664
26145DOD     C222255  10.925  25.999   0.537 -0.1935 -0.0459  0.1364
26145DOD     C322256  10.553  25.922   0.833 -0.1909 -0.3402 -0.1091
26146DOD     C122257   6.909   7.809  18.968 -0.1607  0.2078 -0.1909
26146DOD     C222258   6.969   8.169  19.246 -0.0968 -0.2583 -0.1854
26146DOD     C322259   7.166   8.483  19.601  0.2881  0.1106 -0.0490
26147DOD     C122260  20.385   3.173  22.590 -0.2128  0.1777 -0.0174
26147DOD     C222261  20.653   3.260  22.964 -0.0988 -0.1636  0.1227
26147DOD     C322262  20.718   3.697  23.133  0.0972 -0.3340 -0.2159
26148DOD     C122263  27.388  14.530  27.056  0.0449 -0.1626 -0.2054
26148DOD     C222264  27.682  14.249  26.856  0.0102  0.0397  0.1077
26148DOD     C322265  27.940  13.875  26.861 -0.0244 -0.1030 -0.1540
26149DOD     C122266   9.339  11.513  13.838 -0.0932 -0.2967 -0.1756
26149DOD     C222267   9.512  11.840  14.107  0.2568  0.0464  0.0699
26149DOD     C322268   9.490  12.320  14.323  0.0859 -0.3407 -0.3577
26150DOD     C122269  14.316  14.910  18.071  0.1248 -0.1625  0.0521
26150DOD     C222270  14.290  15.324  18.274 -0.0178  0.0082 -0.1150
26150DOD     C322271  14.197  15.649  18.565 -0.1216 -0.1533 -0.0745
26151DOD     C122272   2.628   3.672  11.959  0.2699 -0.1069 -0.0238
26151DOD     C222273   2.761   3.701  12.384 -0.2805 -0.0331 -0.2136
26151DOD     C322274   3.036   3.593  12.732  0.1203  0.0312  0.2529
26152DOD     C122275   5.400  24.488  19.888  0.2379 -0.3321  0.1504
26152DOD     C222276   5.268  24.125  19.653  0.0119 -0.1707 -0.2648
26152DOD     C322277   5.385  23.691  19.418  0.0628 -0.3307 -0.0359
26153DOD     C122278  10.073   3.810   7.197  0.1722  0.0348 -0.2227
26153DOD     C222279   9.736   4.195   7.259 -0.0357  0.0545 -0.0568
26153DOD     C322280   9.617   4.338   7.679  0.0411  0.0639  0.0891
26154DOD     C122281  15.234   5.854  15.445  0.1080  0.1055  0.0463
26154DOD     C222282  15.664   5.901  15.567  0.2138  0.0334  0.5887
26154DOD     C322283  16.068   6.074  15.745 -0.1351 -0.1027  0.0508
26155DOD     C122284  11.237  25.835  18.688 -0.2868  0.3508  0.0561
26155DOD     C222285  11.208  25.603  19.110  0.0309  0.1585  0.1927
26155DOD     C322286  10.893  25.345  19.379 -0.0204  0.0862 -0.1429
26156DOD     C122287  29.836  19.665  21.284 -0.1401 -0.1311 -0.1012
26156DOD     C222288  29.780  19.524  21.726 -0.1100 -0.1472  0.2528
26156DOD     C322289  29.382  19.650  21.974 -0.1026 -0.0989  0.0458
26157DOD     C122290   2.890   2.260  28.485  0.2017 -0.0252  0.1984
26157DOD     C222291   2.816   2.363  28.969 -0.1594  0.4898 -0.0383
26157DOD     C322292   2.751   2.721  29.237  0.1384 -0.0245  0.2407
26158DOD     C122293   1.049  26.572  24.960 -0.0682 -0.1435  0.0954
26158DOD     C222294   0.928  26.175  25.090  0.2669 -0.0371 -0.1031
26158DOD     C322295   0.642  25.772  25.229  0.1930 -0.2456 -0.2750
26159DOD     C122296  12.440   0.348   7.287 -0.0940  0.2838  0.1776
26159DOD     C222297  12.052   0.427   7.453  0.1254 -0.2228  0.3376
26159DOD     C322298  12.001   0.315   7.953 -0.1249 -0.0085  0.1274
26160DOD     C122299   8.137  15.467  13.002 -0.0303  0.1884  0.1045
26160DOD     C222300   8.504  15.569  12.746 -0.0750  0.3836 -0.1716
26160DOD     C322301   8.504  15.930  12.458 -0.1164  0.1006  0.0237
26161DOD     C122302   4.461  18.568  18.093  0.0610  0.0838  0.1256
26161DOD     C222303   4.395  18.120  18.148 -0.3045 -0.0456  0.1296
26161DOD     C322304   3.974  18.075  17.957  0.1936  0.0149 -0.1332
26162DOD     C122305  17.849  17.903  23.564 -0.2016  0.1393  0.1107
26162DOD     C222306  17.865  18.316  23.505  0.0464 -0.3941  0.0348
26162DOD     C322307  17.607  18.666  23.734  0.0128  0.0457  0.0415
26163DOD     C122308  20.903  20.330   4.053  0.2494  0.0335  0.0135
26163DOD     C222309  20.715  20.198   4.431 -0.2004  0.2189  0.3966
26163DOD     C322310  20.701  20.226   4.894  0.0348  0.1237  0.0236
26164DOD     C122311  11.011  16.936  11.827  0.2766  0.1352 -0.0084
26164DOD     C222312  11.094  16.825  11.386  0.1888  0.1360 -0.2245
26164DOD     C322313  11.478  16.673  11.289 -0.0557  0.1421 -0.1078
26165DOD     C122314  28.855  20.033  10.274 -0.4049 -0.1067 -0.2795
26165DOD     C222315  28.462  19.828  10.096 -0.0110  0.0919  0.1461
26165DOD     C322316  28.348  19.370   9.979  0.2153  0.0274  0.2144
26166DOD     C122317  10.303  10.771   9.029 -0.1339  0.0574  0.2780
26166DOD     C222318  10.003  11.050   8.904 -0.1588  0.0994  0.1372
26166DOD     C322319   9.991  11.532   8.857 -0.0557  0.0776 -0.4965
26167DOD     C122320  29.988  15.844  20.734 -0.2670  0.0005 -0.2611
26167DOD     C222321  30.205  15.540  21.064  0.0141 -0.2560  0.0094
26167DOD     C322322  30.232  15.166  21.308 -0.2795  0.1014  0.0274
26168DOD     C122323   1.427  17.711  13.846  0.0931  0.0642  0.2338
26168DOD     C222324   1.554  17.354  13.546  0.0015 -0.0210 -0.3621
26168DOD     C322325   1.642  17.188  13.105 -0.1612 -0.0467 -0.0619
26169DOD     C122326  21.622   8.095  10.620  0.3408  0.1558 -0.0172
26169DOD     C222327  22.126   8.162  10.723  0.0016  0.0608  0.0410
26169DOD     C322328  22.559   8.248  10.741  0.0470 -0.0414 -0.0577
26170DOD     C122329  28.027  19.348  21.533  0.2396 -0.3627 -0.1709
26170DOD     C222330  28.365  19.242  21.215  0.1196  0.3461  0.4359
26170DOD     C322331  28.654  18.959  21.136 -0.2628 -0.5429 -0.3136
26171DOD     C122332  20.960  11.067   0.550  0.0133 -0.0272  0.0017
26171DOD     C222333  21.016  10.754   0.153  0.1156  0.1627 -0.1568
26171DOD     C322334  21.050  10.386  30.201 -0.0967 -0.3400  0.1750
26172DOD     C122335   7.770  21.005   0.743 -0.1069  0.2457  0.2305
26172DOD     C222336   7.334  21.080   0.806 -0.1130  0.0610 -0.2718
26172DOD     C322337   6.865  21.109   0.737 -0.4079 -0.2058 -0.1061
26173DOD     C122338  12.324  14.538  25.517 -0.1198 -0.2998  0.0017
26173DOD     C222339  12.016  14.302  25.244  0.0855  0.2566  0.2703
26173DOD     C322340  12.014  14.403  24.746 -0.2155 -0.1638 -0.1367
26174DOD     C122341  24.022  22.073   9.022  0.2960 -0.1518 -0.1470
26174DOD     C222342  24.401  21.859   9.017  0.2259  0.0229  0.2223
26174DOD     C322343  24.741  21.588   9.065  0.1203 -0.1593 -0.0616
26175DOD     C122344   9.048   2.366   7.595 -0.0080  0.3874 -0.1050
26175DOD     C222345   9.422   2.595   7.552 -0.0326 -0.0037 -0.1564
26175DOD     C322346   9.573   2.837   7.951  0.2330 -0.1744 -0.0750
26176DOD     C122347  18.006   7.754  26.509  0.1228  0.0346  0.0306
26176DOD     C222348  18.140   7.445  26.163  0.2136 -0.1798  0.1690
26176DOD     C322349  18.086   7.007  26.101  0.0404 -0.4801 -0.0397
26177DOD     C122350  14.976  16.108  27.057 -0.1247 -0.0699  0.1077
26177DOD     C222351  14.612  15.909  26.825 -0.0942  0.3344  0.0159
26177DOD     C322352  14.257  15.595  26.800  0.3049 -0.2057  0.0660
26178DOD     C122353  21.984  18.940  13.064  0.0158  0.4091 -0.2125
26178DOD     C222354  21.774  18.979  12.650 -0.1336 -0.1525 -0.3067
26178DOD     C322355  21.774  18.839  12.189 -0.0353 -0.3184 -0.0138
26179DOD     C122356  10.338   8.514  17.872 -0.1287 -0.0845 -0.0543
26179DOD     C222357  10.641   8.669  17.611 -0.1573  0.0205  0.2426
26179DOD     C322358  10.706   8.939  17.286  0.1940  0.0163 -0.1832
26180DOD     C122359   1.930  25.709  19.621  0.1013 -0.2312  0.0591
26180DOD     C222360   2.037  25.549  20.035 -0.1550 -0.1984  0.3733
26180DOD     C322361   2.071  25.823  20.390  0.0566  0.2110 -0.4020
26181DOD     C122362  13.827  27.256  17.235 -0.0322 -0.1672 -0.1181
26181DOD     C222363  14.255  27.078  17.096 -0.1075 -0.3017 -0.1985
26181DOD     C322364  14.410  26.739  17.390  0.1313 -0.0798 -0.1623
26182DOD     C122365   7.721  19.265  16.002 -0.1698  0.1202  0.0007
26182DOD     C222366   7.448  19.417  15.655  0.3672  0.1762 -0.0607
26182DOD     C322367   7.206  19.763  15.478  0.1108 -0.0315  0.1196
26183DOD     C122368  11.102  30.228  15.087 -0.0283 -0.2507 -0.4585
26183DOD     C222369  11.256  29.801  15.022  0.2607 -0.0421 -0.2999
26183DOD     C322370  11.584  29.523  14.911  0.1063 -0.0757 -0.0350
26184DOD     C122371  23.620  16.378  27.283 -0.0954 -0.0223 -0.0782
26184DOD     C222372  24.058  16.230  27.434  0.2045 -0.1447 -0.2629
26184DOD     C322373  24.318  15.840  27.533 -0.0298 -0.0098 -0.1653
26185DOD     C122374  25.020  14.560   1.698 -0.3191 -0.3066 -0.1325
26185DOD     C222375  24.957  14.424   2.142  0.3655 -0.3838 -0.2001
26185DOD     C322376  25.340  14.332   2.420  0.2267  0.0239 -0.2226
26186DOD     C122377  13.814  28.242  10.896  0.1127  0.0415 -0.3160
26186DOD     C222378  14.224  28.431  11.091 -0.0642 -0.2844  0.1959
26186DOD     C322379  14.588  28.532  11.428  0.3832 -0.1733 -0.0388
26187DOD     C122380  12.189  27.855  13.635 -0.0233  0.0937  0.0437
26187DOD     C222381  12.283  27.426  13.520  0.1385 -0.3760  0.0484
26187DOD     C322382  12.306  27.104  13.190 -0.2521  0.1493 -0.1986
26188DOD     C122383  24.964  23.710  11.766  0.0518  0.1407  0.3069
26188DOD     C222384  25.355  24.062  11.713  0.3131 -0.1160 -0.2531
26188DOD     C322385  25.533  24.482  11.862 -0.3016  0.1869  0.1855
26189DOD     C122386  14.489  18.137   1.700  0.3485  0.2150 -0.3418
26189DOD     C222387  14.719  17.924   1.339 -0.0018 -0.0648  0.2905
26189DOD     C322388  15.029  17.588   1.219  0.1294  0.1370  0.1988
26190DOD     C122389   9.788   8.013  15.398  0.0541 -0.2714 -0.0200
26190DOD     C222390   9.355   8.186  15.184 -0.0579  0.1730  0.1095
26190DOD     C322391   8.946   8.326  15.246  0.0679  0.1107 -0.3622
26191DOD     C122392  21.663  27.351   9.693  0.1281  0.0651  0.4044
26191DOD     C222393  21.714  27.384   9.192 -0.0036  0.2119 -0.2161
26191DOD     C322394  21.693  27.457   8.720  0.0832 -0.1135 -0.0777
26192DOD     C122395  10.630  18.445   7.686  0.1149 -0.0904 -0.1425
26192DOD     C222396  10.904  18.814   7.608 -0.3584 -0.2452  0.2595
26192DOD     C322397  11.133  19.011   7.257  0.0177  0.2479 -0.0799
26193DOD     C122398   5.502  11.762  21.026 -0.0555 -0.0935  0.0087
26193DOD     C222399   5.450  11.821  21.561 -0.2336 -0.1621  0.0655
26193DOD     C322400   5.684  11.625  21.952 -0.1877 -0.0515  0.1221
26194DOD     C122401  20.498  24.620  16.114  0.2973 -0.0253  0.0233
26194DOD     C222402  20.318  25.031  15.930 -0.1500 -0.0379 -0.3942
26194DOD     C322403  20.183  25.310  15.568 -0.0573 -0.1647  0.0297
26195DOD     C122404  10.739   1.840  21.440 -0.2350  0.4008  0.0012
26195DOD     C222405  11.198   1.723  21.322 -0.1047  0.0674 -0.0982
26195DOD     C322406  11.657   1.719  21.155  0.0843 -0.0918  0.0687
26196DOD     C122407  10.143   1.048  26.224  0.0597 -0.1167 -0.2272
26196DOD     C222408  10.349   0.954  26.651  0.2791 -0.2821  0.1049
26196DOD     C322409  10.656   0.580  26.633 -0.1326  0.2402  0.2699
26197DOD     C122410  29.684  27.039  23.802 -0.0544 -0.1781  0.1631
26197DOD     C222411  29.824  27.455  23.955  0.2282  0.2212  0.1183
26197DOD     C322412  30.242  27.649  23.925  0.0296  0.0607 -0.1224
26198DOD     C122413  12.680  24.730  24.653 -0.0675  0.4873 -0.0780
26198DOD     C222414  12.512  24.293  24.544  0.1460 -0.0422 -0.3795
26198DOD     C322415  12.456  23.828  24.682 -0.3580  0.0160  0.0378
26199DOD     C122416   1.113  28.555  19.213  0.0941 -0.0492 -0.0729
26199DOD     C222417   1.448  28.785  18.932 -0.1027 -0.0968  0.1038
26199DOD     C322418   1.795  28.718  18.620  0.1341  0.0433  0.1406
26200DOD     C122419  29.395  29.739  10.672 -0.1793  0.0509  0.0071
26200DOD     C222420  29.195  29.553  10.321 -0.0119 -0.1132 -0.3676
26200DOD     C322421  28.699  29.575  10.297  0.1379 -0.0974 -0.2776
26201DOD     C122422  13.136   5.833  24.670  0.0182 -0.2516 -0.0282
26201DOD     C222423  13.373   6.038  24.991  0.0367 -0.2656 -0.1426
26201DOD     C322424  13.450   5.833  25.431 -0.1337  0.2085  0.2634
26202DOD     C122425   9.277  17.159  26.141  0.2145  0.2392  0.2769
26202DOD     C222426   8.826  17.111  26.081  0.0065  0.0362 -0.1949
26202DOD     C322427   8.383  17.311  26.107 -0.0703  0.0962 -0.3017
26203DOD     C122428  10.092  19.698  21.562  0.0983  0.5176  0.0997
26203DOD     C222429  10.429  20.009  21.405  0.1889  0.0317 -0.0934
26203DOD     C322430  10.577  20.481  21.306 -0.0370 -0.2338  0.1652
26204DOD     C122431  10.823  15.534   4.018 -0.1694 -0.3057 -0.5919
26204DOD     C222432  10.907  15.745   4.364  0.0175  0.0290  0.0110
26204DOD     C322433  11.262  15.927   4.620  0.0554 -0.0444  0.1766
26205DOD     C122434   6.406   5.512  29.691 -0.2286  0.0518  0.2228
26205DOD     C222435   6.315   5.942  29.559 -0.2010 -0.0010  0.1522
26205DOD     C322436   6.203   6.322  29.784  0.0635  0.0501  0.1539
26206DOD     C122437  12.226   2.159  19.983 -0.1018 -0.1142  0.2501
26206DOD     C222438  11.945   1.996  19.690 -0.0843 -0.1309 -0.0565
26206DOD     C322439  11.716   1.734  19.445  0.1477 -0.1727 -0.2318
26207DOD     C122440   0.433  25.575  11.419 -0.1668 -0.0802 -0.3958
26207DOD     C222441   0.130  25.552  11.869 -0.2465  0.0040  0.0993
26207DOD     C322442   0.219  25.506  12.307 -0.1226  0.2976  0.2519
26208DOD     C122443   2.151  24.571  10.201 -0.0927  0.1400 -0.1051
26208DOD     C222444   2.658  24.454  10.163  0.0480  0.0013  0.2989
26208DOD     C322445   2.982  24.420  10.543 -0.1106  0.0432  0.0193
26209DOD     C122446   0.037  21.424  29.373 -0.4802 -0.1734  0.2217
26209DOD     C222447   0.068  20.920  29.489  0.1999  0.2614  0.0451
26209DOD     C322448   0.079  20.557  29.766  0.0798  0.0944  0.1831
26210DOD     C122449  14.896   5.144   9.504  0.1103  0.0992  0.0008
26210DOD     C222450  14.800   5.223   9.003  0.1035  0.1466 -0.1563
26210DOD     C322451  14.823   5.179   8.545  0.2623  0.1336 -0.2464
26211DOD     C122452   9.237  15.873   1.547 -0.4481 -0.2371  0.0549
26211DOD     C222453   9.185  16.343   1.341  0.0200  0.2714 -0.0745
26211DOD     C322454   9.088  16.766   1.233 -0.1732 -0.0758  0.0805
26212DOD     C122455  16.554  22.882   4.413 -0.3715 -0.2274  0.2003
26212DOD     C222456  16.728  22.521   4.191 -0.0430  0.0494  0.0089
26212DOD     C322457  16.813  22.118   4.399  0.0781  0.5597  0.1533
26213DOD     C122458  12.256  19.257  24.697 -0.0513  0.1320  0.1630
26213DOD     C222459  12.539  18.879  24.548  0.0703  0.2070 -0.1348
26213DOD     C322460  12.663  18.445  24.511 -0.2590  0.0876 -0.1777
26214DOD     C122461  13.744  29.641  17.806 -0.2667 -0.0722  0.1818
26214DOD     C222462  13.672  29.194  17.733 -0.0368  0.0195 -0.0564
26214DOD     C322463  13.980  28.963  17.585  0.1336 -0.1894  0.1903
26215DOD     C122464   3.410  22.057  13.438 -0.0099  0.1685 -0.3081
26215DOD     C222465   3.815  21.982  13.695  0.3949 -0.1451 -0.3872
26215DOD     C322466   4.151  21.973  14.013 -0.0260  0.0318 -0.1186
26216DOD     C122467  21.494   4.017   5.991  0.1374  0.2120 -0.1587
26216DOD     C222468  21.280   4.042   6.412  0.0510  0.1410  0.0711
26216DOD     C322469  21.237   4.146   6.851 -0.2687 -0.1596 -0.0095
26217DOD     C122470  24.678  15.551  19.639  0.1400 -0.0064 -0.2611
26217DOD     C222471  24.737  15.307  19.279 -0.0888 -0.2181  0.1554
26217DOD     C322472  24.834  15.121  18.867  0.2436 -0.0545 -0.1289
26218DOD     C122473  23.500  11.374  15.522  0.0744  0.0766 -0.0217
26218DOD     C222474  23.926  11.431  15.274 -0.1198 -0.2947 -0.0820
26218DOD     C322475  24.039  11.374  14.824 -0.4287 -0.0735  0.0327
26219DOD     C122476  24.109  27.190  29.125 -0.1317 -0.1690  0.2269
26219DOD     C222477  23.896  26.789  29.004  0.3346  0.2236 -0.1292
26219DOD     C322478  23.501  26.547  29.017  0.0307 -0.3285  0.1944
26220DOD     C122479  21.883  15.821   8.769  0.4251  0.2556 -0.1191
26220DOD     C222480  22.248  15.551   8.801  0.0732  0.0651 -0.1371
26220DOD     C322481  22.467  15.207   8.686 -0.2723 -0.0145 -0.1157
26221DOD     C122482  21.361   8.672  18.016  0.2155  0.2019  0.2131
26221DOD     C222483  21.106   8.353  17.751  0.1024  0.0804  0.1349
26221DOD     C322484  20.855   7.990  17.514 -0.2529 -0.0286 -0.3542
26222DOD     C122485   8.444  13.018   1.095 -0.1074 -0.2615  0.1327
26222DOD     C222486   8.006  13.119   1.169  0.0866  0.0117 -0.0621
26222DOD     C322487   7.599  13.305   1.272  0.1055  0.2323  0.0240
26223DOD     C122488  14.015   9.341  28.692 -0.1398  0.1995  0.1025
26223DOD     C222489  14.195   9.763  28.787  0.0596  0.1240 -0.0283
26223DOD     C322490  14.037  10.128  29.084  0.1181  0.0445 -0.3519
26224DOD     C122491  22.465  25.678  17.904  0.1295 -0.1470 -0.0640
26224DOD     C222492  22.955  25.704  17.984 -0.1168 -0.1389 -0.3134
26224DOD     C322493  23.445  25.676  17.972  0.0465  0.0161 -0.0035
26225DOD     C122494   0.120   9.238   0.664  0.4448  0.1908  0.2693
26225DOD     C222495   0.169   9.433   1.069  0.1289  0.0832  0.2326
26225DOD     C322496   0.314   9.693   1.428  0.0082 -0.2112 -0.2160
26226DOD     C122497   1.662  18.706   7.046 -0.5274 -0.0534  0.0844
26226DOD     C222498   1.652  19.088   6.795 -0.2373  0.1878  0.2424
26226DOD     C322499   1.305  19.261   6.532 -0.5028 -0.1524 -0.1207
26227DOD     C122500  17.564   0.131   5.074  0.0567  0.1892 -0.0577
26227DOD     C222501  17.559  30.137   5.483  0.1929  0.4849  0.0563
26227DOD     C322502  17.780  29.724   5.644  0.1331  0.0449  0.0529
26228DOD     C122503  29.983  23.047   1.650 -0.2368  0.0783 -0.1007
26228DOD     C222504  30.105  23.471   1.782 -0.1841  0.2054 -0.1149
26228DOD     C322505   0.159  23.576   2.077 -0.2221 -0.1622  0.3086
26229DOD     C122506  11.436   5.003  22.849  0.2236 -0.0507 -0.0360
26229DOD     C222507  11.475   5.162  23.255 -0.0126  0.0318 -0.1231
26229DOD     C322508  11.756   4.983  23.653  0.0211  0.0725 -0.0335
26230DOD     C122509  29.276  16.036  29.273 -0.3742  0.2600 -0.2645
26230DOD     C222510  29.254  16.338  29.669 -0.0474 -0.3074 -0.0598
26230DOD     C322511  29.358  16.753  29.758  0.0782  0.2877 -0.2300
26231DOD     C122512   8.034  14.183   8.888 -0.1623 -0.1411 -0.0448
26231DOD     C222513   7.637  14.404   8.862  0.0730 -0.2939 -0.0446
26231DOD     C322514   7.255  14.651   8.809  0.3983  0.0917 -0.1000
26232DOD     C122515   2.691  25.605   5.023  0.0542 -0.0625 -0.0104
26232DOD     C222516   2.769  25.951   4.721 -0.0667  0.1503  0.1766
26232DOD     C322517   3.001  26.298   4.641 -0.1542 -0.0545 -0.1850
26233DOD     C122518  17.507   7.447  13.301 -0.0371 -0.1281  0.2474
26233DOD     C222519  17.701   7.370  12.862 -0.2546 -0.2344  0.2541
26233DOD     C322520  18.075   7.193  12.653  0.4114 -0.0595 -0.2870
26234DOD     C122521   5.052   2.160   6.955 -0.2206  0.1296  0.2220
26234DOD     C222522   4.835   2.215   7.377 -0.1406  0.3548  0.0863
26234DOD     C322523   4.772   1.829   7.659  0.1073  0.0469  0.0410
26235DOD     C122524  25.213  16.291  27.247 -0.1426  0.0408 -0.1001
26235DOD     C222525  25.272  15.832  27.110  0.4818 -0.1375  0.0769
26235DOD     C322526  25.592  15.643  26.820 -0.1980  0.1835  0.0569
26236DOD     C122527  21.995   8.089  16.686 -0.0158 -0.0580 -0.0157
26236DOD     C222528  21.593   7.852  16.464 -0.4479  0.1141 -0.0817
26236DOD     C322529  21.449   7.459  16.268 -0.1182  0.3995  0.4505
26237DOD     C122530   1.199  24.670  22.850  0.0364 -0.1192  0.2230
26237DOD     C222531   1.119  24.968  22.467  0.0824 -0.1449 -0.1479
26237DOD     C322532   0.960  25.033  22.010 -0.0108  0.2365  0.3647
26238DOD     C122533  23.374  22.079  28.465 -0.1277  0.0845 -0.0486
26238DOD     C222534  23.649  22.318  28.191  0.3829  0.1503 -0.3650
26238DOD     C322535  24.074  22.564  28.218 -0.1425  0.2683  0.0832
26239DOD     C122536  15.176   6.119   7.547  0.4151 -0.2728 -0.2213
26239DOD     C222537  14.844   5.913   7.756  0.3411  0.1684  0.1516
26239DOD     C322538  14.714   5.724   8.164  0.1206  0.3335 -0.3507
26240DOD     C122539  27.720   8.926   7.111 -0.0900 -0.1636  0.3647
26240DOD     C222540  27.341   8.961   6.848  0.1450 -0.1950  0.1321
26240DOD     C322541  26.923   9.230   6.861 -0.1100  0.0444 -0.1433
26241DOD     C122542   4.585  17.163   7.424  0.2309  0.2626 -0.0526
26241DOD     C222543   4.350  17.175   7.849 -0.0789  0.0893 -0.1779
26241DOD     C322544   4.051  17.504   7.944 -0.3546  0.0867 -0.2290
26242DOD     C122545  27.735  23.847  -0.029  0.2045  0.2067 -0.2236
26242DOD     C222546  27.697  24.104  29.869  0.0378  0.0340  0.0057
26242DOD     C322547  27.456  24.298  29.554 -0.0239 -0.0520  0.3405
26243DOD     C122548  15.119   5.570   9.286 -0.1492  0.0545  0.1062
26243DOD     C222549  15.297   5.430   8.898 -0.3041 -0.0006 -0.1030
26243DOD     C322550  15.633   5.316   8.556  0.5092 -0.4711 -0.3173
26244DOD     C122551   5.716  20.990  21.117 -0.2942  0.1508  0.0554
26244DOD     C222552   5.641  21.468  21.211  0.0241 -0.1361 -0.0058
26244DOD     C322553   5.340  21.722  21.004  0.0227  0.1135  0.2358
26245DOD     C122554  29.186  14.828  28.799  0.2923  0.2455  0.0290
26245DOD     C222555  28.899  14.834  28.458 -0.0497  0.2362 -0.1419
26245DOD     C322556  28.531  15.096  28.261 -0.1344  0.2389 -0.0207
26246DOD     C122557  22.224  28.004  28.962 -0.3349  0.3774 -0.1743
26246DOD     C222558  22.093  27.760  28.549 -0.0404  0.3532  0.0641
26246DOD     C322559  22.352  27.606  28.166  0.1309 -0.2311 -0.0115
26247DOD     C122560  16.919  20.863   9.993 -0.2507 -0.1914  0.1396
26247DOD     C222561  16.833  21.204  10.341 -0.2020  0.1714 -0.2664
26247DOD     C322562  16.461  21.399  10.449 -0.0246 -0.0048  0.1869
26248DOD     C122563  11.581   9.471  14.735 -0.0136 -0.0395 -0.2591
26248DOD     C222564  12.004   9.464  14.540  0.0534 -0.1082 -0.0452
26248DOD     C322565  12.458   9.568  14.603  0.0194  0.0544 -0.0664
26249DOD     C122566   9.435  28.603  17.441 -0.1755  0.0942  0.0553
26249DOD     C222567   9.581  28.878  17.823  0.1513 -0.1136 -0.0934
26249DOD     C322568   9.742  28.851  18.220  0.0320 -0.5839 -0.3258
26250DOD     C122569  18.841  23.466  10.644 -0.2128  0.2661  0.0514
26250DOD     C222570  19.000  23.602  10.178 -0.0300 -0.0560 -0.0034
26250DOD     C322571  19.335  23.877   9.916 -0.0202 -0.2337 -0.2716
26251DOD     C122572  13.657  14.201  23.675  0.0672  0.0523  0.0218
26251DOD     C222573  13.415  14.574  23.566  0.2810 -0.2421 -0.2955
26251DOD     C322574  13.080  14.864  23.490  0.0377  0.1032  0.0237
26252DOD     C122575   5.568  30.044  26.934  0.1111 -0.1083  0.1753
26252DOD     C222576   5.393  29.813  26.576 -0.0505  0.1549 -0.1236
26252DOD     C322577   5.464  29.370  26.484  0.1638  0.0695  0.0561
26253DOD     C122578   2.983  21.787   4.786  0.1015  0.1031 -0.2669
26253DOD     C222579   3.125  21.359   4.846  0.0894  0.0587 -0.1359
26253DOD     C322580   3.517  21.188   4.753  0.0447  0.0028  0.0603
26254DOD     C122581   1.262   6.718   6.348 -0.0499 -0.2770  0.1051
26254DOD     C222582   1.002   6.676   5.965 -0.0377  0.2424 -0.0626
26254DOD     C322583   0.882   6.453   5.580 -0.0023  0.2977 -0.0785
26255DOD     C122584   8.415   3.319  21.350  0.0654 -0.0460  0.2293
26255DOD     C222585   8.097   3.423  21.050  0.1315 -0.2103 -0.0109
26255DOD     C322586   7.634   3.437  21.132  0.1594 -0.0300 -0.1100
26256DOD     C122587  18.138  14.588   4.889  0.1578  0.2479  0.2251
26256DOD     C222588  18.447  14.604   5.211 -0.0756  0.2614  0.1680
26256DOD     C322589  18.671  14.825   5.525  0.0608 -0.2080 -0.0077
26257DOD     C122590  23.416  15.827  13.574 -0.0725 -0.1407 -0.1778
26257DOD     C222591  23.543  16.303  13.596  0.1123  0.1076  0.2028
26257DOD     C322592  24.001  16.459  13.582 -0.1742  0.0101 -0.0924
26258DOD     C122593  18.370  13.658  23.517 -0.1664  0.1221 -0.0245
26258DOD     C222594  18.094  13.325  23.663 -0.0350  0.0899  0.0280
26258DOD     C322595  17.705  13.065  23.833  0.1225 -0.1899  0.0202
26259DOD     C122596  19.469   0.247  27.274  0.1290 -0.3240  0.1616
26259DOD     C222597  19.492   0.549  26.930  0.1302  0.0525 -0.1845
26259DOD     C322598  19.468   0.461  26.437  0.0391  0.3545  0.1443
26260DOD     C122599   6.435  13.995  22.308 -0.2549 -0.2416 -0.0265
26260DOD     C222600   6.832  14.100  22.123 -0.0335  0.1508 -0.1263
26260DOD     C322601   7.087  14.224  21.785 -0.3962  0.0405 -0.0248
26261DOD     C122602   4.577  10.335   8.565 -0.1098  0.1948  0.0421
26261DOD     C222603   4.252   9.943   8.636  0.3246 -0.0364  0.0592
26261DOD     C322604   3.960   9.654   8.418 -0.2009  0.0204  0.0054
26262DOD     C122605   1.908  26.237  19.783 -0.0125  0.0359  0.0527
26262DOD     C222606   1.511  25.963  19.774 -0.0088  0.0639  0.0492
26262DOD     C322607   1.070  25.990  19.902 -0.4342  0.1216 -0.0591
26263DOD     C122608   6.701  28.014  17.796 -0.1090 -0.3092 -0.1195
26263DOD     C222609   6.687  27.599  17.592 -0.0574 -0.1018 -0.0929
26263DOD     C322610   6.677  27.315  17.228 -0.0584  0.0356  0.0166
26264DOD     C122611  23.709  28.359   5.496 -0.4287 -0.2367 -0.4337
26264DOD     C222612  23.897  28.813   5.400  0.2015 -0.1930 -0.0351
26264DOD     C322613  23.852  29.177   5.721  0.0406  0.2064  0.1134
26265DOD     C122614  20.113   5.453  25.121 -0.0920  0.0773 -0.1054
26265DOD     C222615  20.252   5.165  25.418 -0.0733  0.2571  0.0958
26265DOD     C322616  20.151   5.006  25.864 -0.1247 -0.0398 -0.1836
26266DOD     C122617   3.316  17.176   4.061 -0.0587  0.1410  0.1476
26266DOD     C222618   3.663  17.142   4.365 -0.0672  0.2320 -0.0897
26266DOD     C322619   3.817  16.896   4.715  0.1123 -0.0725  0.0944
26267DOD     C122620  14.535  17.696  13.407  0.3875 -0.1111 -0.1706
26267DOD     C222621  14.363  17.599  13.773  0.2988  0.3184 -0.0079
26267DOD     C322622  13.977  17.554  14.066 -0.1943  0.1551  0.0457
26268DOD     C122623   6.880  17.985   5.270 -0.1088 -0.0213  0.1741
26268DOD     C222624   7.280  17.939   5.523  0.0299 -0.2318 -0.4956
26268DOD     C322625   7.577  17.795   5.747  0.1767  0.1846 -0.2856
26269DOD     C122626  11.567  16.028  14.736 -0.1881  0.0667 -0.1541
26269DOD     C222627  11.855  15.918  15.029 -0.0975  0.0343  0.0901
26269DOD     C322628  12.088  16.166  15.383  0.4986 -0.1608  0.0359
26270DOD     C122629  20.927  17.745  30.203 -0.2570  0.1511 -0.0095
26270DOD     C222630  20.782  17.373  29.933  0.1840  0.1375 -0.2657
26270DOD     C322631  20.911  17.158  29.527  0.3624  0.1559  0.0122
26271DOD     C122632   3.667  25.939  29.519  0.1269  0.4561  0.0337
26271DOD     C222633   3.245  25.794  29.358  0.1993 -0.0716 -0.2880
26271DOD     C322634   3.082  25.650  28.938  0.2324  0.0354  0.0329
26272DOD     C122635  13.804  13.855  20.443  0.1277 -0.1348 -0.0900
26272DOD     C222636  13.970  14.212  20.345 -0.1033 -0.1209  0.3135
26272DOD     C322637  14.106  14.412  19.962  0.1130 -0.1200  0.1981
26273DOD     C122638  26.879   1.072   6.628 -0.2320 -0.0176  0.1026
26273DOD     C222639  26.545   0.968   6.926 -0.2671  0.2551 -0.2075
26273DOD     C322640  26.197   0.890   7.192  0.2875  0.3193 -0.0306
26274DOD     C122641   8.656  24.749  26.493 -0.1503  0.0832  0.1592
26274DOD     C222642   8.676  24.516  26.075 -0.0391  0.0539  0.1560
26274DOD     C322643   8.886  24.436  25.657  0.0827  0.4921 -0.2757
26275DOD     C122644   1.081   0.367   5.343  0.2275  0.0065  0.2509
26275DOD     C222645   0.820   0.416   5.677  0.0850 -0.1091 -0.1987
26275DOD     C322646   0.796   0.733   6.053 -0.1531 -0.0138  0.2804
26276DOD     C122647   6.961  13.568   0.578  0.0963 -0.1430  0.3155
26276DOD     C222648   7.139  13.376   0.967  0.3063 -0.2162 -0.1884
26276DOD     C322649   7.121  13.030   1.275  0.1592 -0.1479  0.1648
26277DOD     C122650  23.440  20.712  13.905 -0.4233 -0.0008  0.1369
26277DOD     C222651  23.382  20.608  14.315  0.0103 -0.0958 -0.0658
26277DOD     C322652  23.020  20.678  14.649  0.0853  0.0899 -0.1361
26278DOD     C122653   7.044  15.219  24.641  0.1305  0.1979 -0.0518
26278DOD     C222654   6.629  15.496  24.668 -0.0248  0.0867 -0.0028
26278DOD     C322655   6.153  15.435  24.778 -0.1245 -0.5415  0.1260
26279DOD     C122656  22.990  18.947   4.478  0.0445  0.3440  0.1120
26279DOD     C222657  22.690  18.938   4.801 -0.0814 -0.0160  0.3730
26279DOD     C322658  22.320  18.941   5.009 -0.4920 -0.0580  0.3218
26280DOD     C122659  12.909   2.363  15.300  0.3185  0.2288 -0.2436
26280DOD     C222660  12.657   2.738  15.097 -0.1707  0.2042  0.3513
26280DOD     C322661  12.317   3.031  14.897 -0.1758 -0.1644  0.0965
26281DOD     C122662   0.384  23.552  14.519  0.1338  0.1141  0.0303
26281DOD     C222663   0.328  23.693  15.007  0.1859 -0.2022 -0.0298
26281DOD     C322664   0.473  23.749  15.451 -0.0352 -0.4152 -0.3305
26282DOD     C122665  22.256  29.883   6.255  0.0398  0.1531 -0.2437
26282DOD     C222666  22.609  30.223   6.268  0.2424  0.0671  0.0845
26282DOD     C322667  22.879   0.156   6.024  0.0534  0.0047  0.2777
26283DOD     C122668  12.337   3.718  22.760 -0.0893  0.0622  0.0465
26283DOD     C222669  11.953   3.718  22.513 -0.0771  0.2256  0.0036
26283DOD     C322670  11.489   3.569  22.621 -0.0673 -0.2433 -0.1982
26284DOD     C122671  23.166   3.708  15.581 -0.0478  0.1895 -0.2703
26284DOD     C222672  22.715   3.712  15.494 -0.3248 -0.0377  0.0881
26284DOD     C322673  22.362   3.572  15.204 -0.1646 -0.2333 -0.0178
26285DOD     C122674  29.967  21.392   4.377  0.0121 -0.1059 -0.1535
26285DOD     C222675  29.624  21.416   4.685  0.0996  0.0737  0.0430
26285DOD     C322676  29.407  21.284   5.080 -0.1360 -0.2084 -0.0428
26286DOD     C122677  17.082  13.097  26.579 -0.1369 -0.0715 -0.1379
26286DOD     C222678  16.637  13.151  26.521 -0.0491 -0.1339 -0.2148
26286DOD     C322679  16.376  12.907  26.241 -0.0771 -0.0881  0.1903
26287DOD     C122680  25.343  25.187  24.618 -0.2016 -0.2145  0.0323
26287DOD     C222681  25.751  25.261  24.416 -0.1118  0.1440 -0.1847
26287DOD     C322682  26.123  25.430  24.686 -0.1434  0.0284 -0.2060
26288DOD     C122683  17.182   4.092   7.818 -0.2161 -0.1794  0.2538
26288DOD     C222684  17.487   3.913   8.120 -0.0756 -0.0889  0.2340
26288DOD     C322685  17.644   3.745   8.535  0.1837 -0.1041 -0.3964
26289DOD     C122686  17.414  24.788   7.592 -0.4193  0.0049  0.2276
26289DOD     C222687  17.213  25.226   7.698  0.1231  0.4676 -0.0662
26289DOD     C322688  17.019  25.583   7.816 -0.1093 -0.2081 -0.3654
26290DOD     C122689  18.428  18.603  12.190  0.3055  0.0608  0.2547
26290DOD     C222690  18.453  18.258  11.839 -0.1080  0.1229  0.1241
26290DOD     C322691  18.658  17.844  11.677  0.2734 -0.1813 -0.0021
26291DOD     C122692  15.364   7.583  25.657  0.0293 -0.2250  0.0304
26291DOD     C222693  15.129   7.400  26.010 -0.0697  0.1405  0.0768
26291DOD     C322694  14.788   7.170  26.283 -0.2164  0.3141  0.0211
26292DOD     C122695  18.930  21.804   0.536  0.2190  0.2243 -0.1476
26292DOD     C222696  18.617  21.858   0.877  0.2447  0.2192  0.1551
26292DOD     C322697  18.471  21.747   1.367 -0.3607  0.5119  0.1155
26293DOD     C122698   8.748   1.210  23.235  0.4433  0.1239  0.4080
26293DOD     C222699   8.464   0.910  23.458 -0.0122  0.0372  0.1999
26293DOD     C322700   8.488   0.447  23.422  0.0127  0.3434 -0.1673
26294DOD     C122701  22.041   8.161  14.309  0.0988  0.0609  0.0403
26294DOD     C222702  22.383   7.929  14.150 -0.0684 -0.0041 -0.1829
26294DOD     C322703  22.861   7.885  14.161  0.0883  0.2953  0.0023
26295DOD     C122704  15.179  21.739  10.559 -0.2018  0.1302 -0.2888
26295DOD     C222705  15.061  21.819  10.137 -0.0339  0.2043 -0.0253
26295DOD     C322706  15.024  22.185   9.879  0.1129  0.0519  0.2298
26296DOD     C122707  13.929  14.091  22.353  0.0315 -0.1055 -0.1126
26296DOD     C222708  13.771  14.012  22.766 -0.0437 -0.0089  0.0198
26296DOD     C322709  13.730  14.259  23.197 -0.2338 -0.3341 -0.1125
26297DOD     C122710  13.500  11.520   9.794  0.0405  0.2884 -0.0313
26297DOD     C222711  13.022  11.484   9.625 -0.0582 -0.0467  0.1593
26297DOD     C322712  12.832  11.143   9.320 -0.1427 -0.1703  0.1854
26298DOD     C122713  17.642  24.462   5.895  0.0062  0.0202 -0.1271
26298DOD     C222714  17.406  24.374   6.297 -0.4609 -0.1535  0.0597
26298DOD     C322715  17.168  24.254   6.691 -0.3360 -0.0258 -0.1923
26299DOD     C122716  23.353  12.537  14.752 -0.0128 -0.1954  0.0594
26299DOD     C222717  23.213  12.089  14.786  0.0627 -0.1742  0.0703
26299DOD     C322718  23.029  11.771  14.600 -0.2228 -0.0629  0.0237
26300DOD     C122719   4.873  18.158  22.339 -0.2844  0.1452 -0.1815
26300DOD     C222720   4.719  18.538  22.181  0.1044  0.1730 -0.1102
26300DOD     C322721   4.367  18.711  21.921  0.1739  0.3074 -0.0073
26301DOD     C122722   6.591  27.782  22.649 -0.0534  0.0815 -0.1199
26301DOD     C222723   7.055  27.711  22.635 -0.4174 -0.1931 -0.0393
26301DOD     C322724   7.094  27.244  22.481 -0.1439  0.0981  0.1958
26302DOD     C122725  27.889  20.169  21.284  0.3065 -0.1411  0.0091
26302DOD     C222726  27.565  20.478  21.404 -0.1737 -0.1307 -0.0189
26302DOD     C322727  27.384  20.649  21.819 -0.0313  0.1649 -0.0197
26303DOD     C122728  27.954  27.955  23.695 -0.1094  0.1352  0.3559
26303DOD     C222729  28.325  27.722  23.901  0.1019  0.0466 -0.1271
26303DOD     C322730  28.600  27.816  24.231  0.0967 -0.1681  0.1254
26304DOD     C122731  11.285  16.519  21.263 -0.1149  0.2867 -0.1435
26304DOD     C222732  11.253  16.852  21.581 -0.4430  0.1572  0.0957
26304DOD     C322733  11.067  17.162  21.899 -0.3816 -0.2470  0.1368
26305DOD     C122734   7.923  11.422  29.738  0.0448 -0.0607 -0.1165
26305DOD     C222735   8.294  11.221  29.910 -0.1149 -0.1084  0.0879
26305DOD     C322736   8.724  10.959  29.974 -0.0214 -0.1184 -0.1343
26306DOD     C122737  24.149   1.732  19.286 -0.0146 -0.0643  0.1921
26306DOD     C222738  23.942   2.138  19.090 -0.1382  0.0200  0.0210
26306DOD     C322739  23.779   2.414  18.693  0.1893  0.0618 -0.0993
26307DOD     C122740  20.791  29.481  21.508  0.1045  0.0555  0.2102
26307DOD     C222741  20.538  29.120  21.564 -0.0978  0.2251  0.2838
26307DOD     C322742  20.269  28.845  21.247 -0.0273 -0.0875  0.0204
26308DOD     C122743  26.770  28.546   7.084  0.0715 -0.0708 -0.3756
26308DOD     C222744  26.386  28.819   7.060  0.0037  0.2944 -0.1931
26308DOD     C322745  26.212  29.221   6.957 -0.1726 -0.1252  0.2721
26309DOD     C122746  12.702  20.871  27.388 -0.0246 -0.0079 -0.2415
26309DOD     C222747  12.915  20.663  27.024 -0.2296  0.0600 -0.1706
26309DOD     C322748  12.926  20.696  26.503 -0.4521  0.0022 -0.0580
26310DOD     C122749   4.115  17.268  27.324  0.3265  0.1046  0.1859
26310DOD     C222750   4.170  17.385  27.789 -0.0428  0.1999  0.2268
26310DOD     C322751   4.244  17.531  28.218  0.1561  0.1745  0.0423
26311DOD     C122752  25.209  20.260   2.595  0.1062 -0.3167 -0.0779
26311DOD     C222753  25.630  20.509   2.608  0.0014 -0.1067 -0.1379
26311DOD     C322754  26.079  20.339   2.598 -0.3364  0.3796  0.3705
26312DOD     C122755   1.955  11.819  17.204  0.0742 -0.2814  0.0518
26312DOD     C222756   2.337  11.816  17.393  0.0930  0.0404  0.4864
26312DOD     C322757   2.786  11.674  17.446 -0.0191 -0.0351  0.0733
26313DOD     C122758   3.241  14.147   5.288 -0.2343 -0.2486 -0.1957
26313DOD     C222759   2.749  14.096   5.338 -0.2432 -0.1078 -0.0841
26313DOD     C322760   2.452  14.205   5.647  0.5103  0.0613  0.2033
26314DOD     C122761  23.533  14.052   9.012  0.1352 -0.0986  0.1775
26314DOD     C222762  23.489  13.587   9.039  0.3163 -0.2977  0.1318
26314DOD     C322763  23.025  13.393   9.043 -0.0410 -0.1290  0.0686
26315DOD     C122764  10.444  10.200  21.033  0.0988  0.1788  0.2148
26315DOD     C222765  10.639  10.075  21.451  0.0457 -0.2068  0.0175
26315DOD     C322766  11.035   9.834  21.478 -0.1669  0.1738 -0.2574
26316DOD     C122767  29.910  10.757  26.556 -0.0526 -0.3254 -0.2466
26316DOD     C222768  29.938  11.119  26.297 -0.0067  0.1752  0.4069
26316DOD     C322769  30.090  11.512  26.305  0.0752  0.1649  0.1623
26317DOD     C122770  28.458  26.896  18.407 -0.3182  0.1105 -0.0996
26317DOD     C222771  28.541  26.543  18.027 -0.0995  0.1850 -0.2260
26317DOD     C322772  28.831  26.170  17.865  0.2349  0.3539 -0.1525
26318DOD     C122773   8.599  25.588  17.942 -0.1635 -0.1088 -0.1441
26318DOD     C222774   8.805  26.009  17.994 -0.1357  0.3313  0.3344
26318DOD     C322775   8.695  26.468  18.069 -0.0884  0.1825  0.0153
26319DOD     C122776  15.462   5.142   5.211 -0.0237  0.1135  0.1234
26319DOD     C222777  15.780   4.877   5.080  0.0702  0.3146 -0.0304
26319DOD     C322778  15.813   4.473   4.858 -0.0575 -0.1969 -0.1939
26320DOD     C122779   9.065   5.218  20.783  0.1596  0.0377  0.2364
26320DOD     C222780   9.157   5.452  20.363  0.0447  0.1029  0.1020
26320DOD     C322781   9.403   5.547  20.008  0.0182 -0.1107  0.1814
26321DOD     C122782  23.581  13.633   0.272  0.2890  0.2225 -0.1581
26321DOD     C222783  23.720  13.416   0.609 -0.1058 -0.0924  0.3106
26321DOD     C322784  24.041  13.267   0.873 -0.1153 -0.2855  0.3884
26322DOD     C122785  13.450   2.488  16.248 -0.0035 -0.0368  0.1834
26322DOD     C222786  13.431   2.590  15.838 -0.2213  0.0582 -0.1439
26322DOD     C322787  13.090   2.752  15.524 -0.1651  0.2579  0.1913
26323DOD     C122788   4.692  16.891  23.892  0.0651  0.0241 -0.1250
26323DOD     C222789   4.822  17.297  24.000 -0.0247 -0.0920  0.1290
26323DOD     C322790   5.273  17.362  24.199  0.1750  0.0668 -0.1907
26324DOD     C122791  16.716  11.106   8.632  0.0623 -0.0697 -0.0303
26324DOD     C222792  16.365  10.756   8.534  0.0878 -0.0351 -0.2272
26324DOD     C322793  16.225  10.365   8.760  0.0857  0.3344  0.0843
26325DOD     C122794   5.495  10.739   9.369 -0.0208 -0.0256  0.0408
26325DOD     C222795   5.588  11.092   9.639 -0.1029  0.2218  0.1773
26325DOD     C322796   5.589  11.079  10.155 -0.1893  0.0324  0.0124
26326DOD     C122797   9.143   9.982   7.537  0.1087  0.0855  0.2497
26326DOD     C222798   9.456   9.721   7.813 -0.1326  0.1488 -0.3295
26326DOD     C322799   9.903   9.530   7.988 -0.0212  0.2140 -0.0517
26327DOD     C122800   5.816  15.695   6.156 -0.1065 -0.2316 -0.2309
26327DOD     C222801   6.218  15.839   6.414  0.1685 -0.0893 -0.0956
26327DOD     C322802   6.362  15.933   6.864 -0.0807 -0.1459  0.1399
26328DOD     C122803   0.225   9.011   1.422 -0.2941  0.0158  0.2249
26328DOD     C222804   0.334   8.616   1.274  0.1187 -0.0483  0.2226
26328DOD     C322805   0.492   8.209   1.273  0.0247  0.0918 -0.1480
26329DOD     C122806   6.912  13.766   7.205  0.2782  0.1537 -0.0309
26329DOD     C222807   6.648  13.486   7.096  0.0032  0.3168 -0.1420
26329DOD     C322808   6.404  13.071   7.071 -0.2024 -0.2361  0.0399
26330DOD     C122809   5.212   7.293  16.590  0.0259 -0.0193 -0.1431
26330DOD     C222810   4.931   6.907  16.716 -0.0087 -0.0070 -0.2080
26330DOD     C322811   4.693   6.535  16.835  0.1814  0.0866 -0.1457
26331DOD     C122812   7.609   6.980  18.148  0.0689  0.0301 -0.3034
26331DOD     C222813   7.146   6.980  18.095  0.1583 -0.0144  0.2202
26331DOD     C322814   6.875   6.624  17.948 -0.1088 -0.0458  0.0059
26332DOD     C122815  17.727   6.408   4.112 -0.3220  0.0047  0.3807
26332DOD     C222816  17.252   6.467   4.067 -0.0862 -0.5205  0.1409
26332DOD     C322817  16.842   6.479   4.330  0.0114  0.2756  0.0592
26333DOD     C122818  22.393  19.806   7.701  0.0986  0.3369 -0.0243
26333DOD     C222819  22.486  19.501   8.020 -0.1701 -0.0129 -0.0473
26333DOD     C322820  22.756  19.320   8.347 -0.1032 -0.1156 -0.1537
26334DOD     C122821  28.408  29.119  28.392 -0.5335  0.0293  0.0236
26334DOD     C222822  28.323  28.924  27.978 -0.1762  0.1307 -0.0436
26334DOD     C322823  28.037  28.582  27.829 -0.1351  0.0936  0.3179
26335DOD     C122824  29.229  15.394  14.414  0.2382  0.1257 -0.0725
26335DOD     C222825  29.225  15.688  14.073  0.1865  0.0174 -0.1297
26335DOD     C322826  29.369  16.079  14.003 -0.1355  0.0758  0.0901
26336DOD     C122827  20.314  24.671  29.656  0.1732  0.1279  0.2104
26336DOD     C222828  19.933  24.738  29.364 -0.1186 -0.1393 -0.3393
26336DOD     C322829  19.750  24.350  29.104 -0.1940  0.0909  0.0419
26337DOD     C122830   8.787  23.121  17.335 -0.0125  0.1540 -0.2317
26337DOD     C222831   8.656  23.254  16.914  0.2740 -0.1598 -0.0460
26337DOD     C322832   8.382  23.336  16.524  0.1791 -0.2035 -0.0414
26338DOD     C122833  26.806  22.174   5.996  0.3185 -0.2522  0.3160
26338DOD     C222834  26.556  21.982   5.667 -0.3061 -0.0917 -0.1531
26338DOD     C322835  26.192  21.682   5.709  0.3203  0.1740 -0.0610
26339DOD     C122836  15.045   8.653  25.274 -0.0515 -0.0818 -0.2278
26339DOD     C222837  14.879   8.670  24.828  0.0508  0.0403 -0.1962
26339DOD     C322838  14.608   8.371  24.556 -0.1290  0.2775 -0.0730
26340DOD     C122839   9.077   8.604  10.979 -0.0809 -0.0593 -0.4171
26340DOD     C222840   8.766   8.500  10.684 -0.0827 -0.2760  0.0048
26340DOD     C322841   8.550   8.852  10.463  0.2832 -0.2410 -0.1146
26341DOD     C122842   2.308   4.105   7.020 -0.1054 -0.1167 -0.1643
26341DOD     C222843   2.655   4.241   7.307 -0.3501 -0.0280 -0.3815
26341DOD     C322844   2.899   4.403   7.692 -0.0168  0.0637  0.3431
26342DOD     C122845   1.513  10.271  18.209  0.2290  0.0902 -0.3068
26342DOD     C222846   1.431  10.742  18.290  0.4148  0.0723  0.0629
26342DOD     C322847   1.402  11.169  18.481  0.0596  0.0866  0.4164
26343DOD     C122848  21.719  16.455  14.959  0.0243 -0.1845 -0.0433
26343DOD     C222849  22.019  16.257  15.209 -0.3788 -0.1531  0.2534
26343DOD     C322850  22.200  15.889  15.503  0.1011 -0.0208 -0.0322
26344DOD     C122851  21.762  20.513   5.345  0.0495 -0.0171 -0.0641
26344DOD     C222852  21.981  20.567   5.780 -0.1990  0.0622 -0.2289
26344DOD     C322853  22.046  20.541   6.233  0.1895 -0.0287  0.1359
26345DOD     C122854  13.126  18.856  15.770  0.5082 -0.2045 -0.0921
26345DOD     C222855  13.551  18.717  15.691  0.0199 -0.0603 -0.0020
26345DOD     C322856  13.888  18.390  15.650  0.1231 -0.3074 -0.2615
26346DOD     C122857  22.367  19.381  25.266 -0.1338  0.0049 -0.0511
26346DOD     C222858  22.408  19.644  24.869  0.1425 -0.1801 -0.2287
26346DOD     C322859  22.699  19.964  24.663 -0.0373  0.1752  0.0026
26347DOD     C122860  28.371   7.451   0.519  0.0188  0.3431 -0.0865
26347DOD     C222861  28.745   7.501   0.815  0.0576 -0.0809  0.3698
26347DOD     C322862  28.847   7.688   1.203  0.1807 -0.1794 -0.1665
26348DOD     C122863  15.930   9.301  16.393 -0.1632 -0.1484 -0.1199
26348DOD     C222864  15.613   9.653  16.265 -0.2380 -0.3839 -0.0460
26348DOD     C322865  15.574   9.812  15.809  0.0286  0.0232 -0.2072
26349DOD     C122866   0.313  29.213  22.518  0.0530  0.1751 -0.0548
26349DOD     C222867   0.525  29.013  22.922 -0.0318 -0.0852  0.2347
26349DOD     C322868   0.877  28.709  22.952  0.1854  0.0096  0.0628
26350DOD     C122869  17.677  12.850  18.515 -0.0361 -0.0132  0.0976
26350DOD     C222870  17.979  13.120  18.717 -0.1028 -0.5018  0.0553
26350DOD     C322871  18.090  13.372  19.089  0.0688 -0.1298 -0.0583
26351DOD     C122872  25.280  28.101  14.362 -0.0589  0.0402 -0.0887
26351DOD     C222873  24.917  28.294  14.199 -0.0533 -0.0465  0.2093
26351DOD     C322874  24.600  28.440  13.923  0.1461 -0.0034  0.1620
26352DOD     C122875  17.951   4.765  14.386  0.3921  0.1147 -0.3139
26352DOD     C222876  18.220   4.848  14.762 -0.0064  0.0312  0.1726
26352DOD     C322877  18.070   4.804  15.154 -0.0185 -0.2297 -0.4025
26353DOD     C122878  20.952  14.421   2.869 -0.3686 -0.0077  0.0647
26353DOD     C222879  20.784  14.361   3.320 -0.1153 -0.0145  0.0145
26353DOD     C322880  20.952  14.379   3.737  0.1301 -0.0735  0.0396
26354DOD     C122881  29.066  12.573  20.909  0.1364 -0.0026 -0.1217
26354DOD     C222882  28.742  12.236  20.865  0.0147 -0.1250 -0.2500
26354DOD     C322883  28.354  11.964  20.859 -0.3936  0.2113 -0.0960
26355DOD     C122884   9.749   1.379  29.851  0.0832 -0.0042 -0.0128
26355DOD     C222885   9.987   1.656  29.624  0.2159 -0.0571 -0.3690
26355DOD     C322886  10.364   1.944  29.469  0.0204  0.1120 -0.0367
26356DOD     C122887  20.638  23.330  25.587 -0.2096  0.1260  0.0075
26356DOD     C222888  20.702  23.468  25.129 -0.1066 -0.0899 -0.0122
26356DOD     C322889  20.750  23.785  24.765 -0.2291 -0.0884  0.0224
26357DOD     C122890  19.916  16.604   1.275 -0.4111 -0.0890  0.2876
26357DOD     C222891  19.944  16.663   1.708 -0.3167  0.1049 -0.0200
26357DOD     C322892  19.904  16.510   2.124  0.2454 -0.0824  0.2607
26358DOD     C122893  15.205   6.530  22.455  0.3060 -0.2531  0.2132
26358DOD     C222894  15.452   6.891  22.527  0.1297 -0.0026  0.2056
26358DOD     C322895  15.246   7.350  22.418  0.0274  0.1236 -0.2219
26359DOD     C122896   1.140  22.328   3.098 -0.0202  0.1658 -0.0839
26359DOD     C222897   1.362  21.903   3.153  0.1440  0.0565 -0.2522
26359DOD     C322898   1.705  21.765   3.444  0.3011  0.1672 -0.0891
26360DOD     C122899   8.956  25.456   9.852  0.2973 -0.0390  0.0799
26360DOD     C222900   8.597  25.241   9.648 -0.0104 -0.0074  0.1434
26360DOD     C322901   8.536  24.928   9.347  0.0220  0.1082  0.1663
26361DOD     C122902  14.999   6.895   1.910  0.0816  0.1871  0.0217
26361DOD     C222903  15.216   6.453   1.875 -0.1509 -0.0961  0.0134
26361DOD     C322904  15.659   6.321   1.798  0.2023  0.1220 -0.0859
26362DOD     C122905   7.107  21.825  25.038 -0.2732  0.0596 -0.3668
26362DOD     C222906   7.077  21.525  24.713 -0.2762 -0.0809 -0.4719
26362DOD     C322907   7.101  21.539  24.248 -0.1199  0.0651  0.0877
26363DOD     C122908   3.266  29.164  29.512  0.1452  0.0096  0.0193
26363DOD     C222909   3.401  29.487  29.754  0.1219 -0.1856  0.1763
26363DOD     C322910   3.696  29.754  29.890  0.0221 -0.1455 -0.2533
26364DOD     C122911   2.347  27.782  29.920 -0.1382 -0.1881  0.0912
26364DOD     C222912   1.998  27.787  30.253  0.1319  0.2067  0.0131
26364DOD     C322913   1.952  27.467   0.283  0.2553  0.2086 -0.0392
26365DOD     C122914  22.760  15.314   5.976  0.2673  0.3229 -0.2740
26365DOD     C222915  23.177  15.201   5.885 -0.2816 -0.1076  0.1666
26365DOD     C322916  23.612  15.323   5.671 -0.2038 -0.2402  0.0263
26366DOD     C122917  27.392  11.220  28.373 -0.0828  0.0568  0.0437
26366DOD     C222918  27.507  11.254  27.937 -0.0840  0.0293 -0.0434
26366DOD     C322919  27.809  11.337  27.582 -0.0077 -0.0823 -0.0628
26367DOD     C122920  13.681   9.288  27.016  0.0023 -0.0016 -0.1176
26367DOD     C222921  13.667   8.853  26.903  0.3055  0.0917 -0.0429
26367DOD     C322922  13.899   8.633  27.225  0.2683  0.0133 -0.0909
26368DOD     C122923   7.124   3.084  23.997 -0.4991  0.0428 -0.1426
26368DOD     C222924   6.867   2.677  24.044  0.0802  0.0041 -0.0114
26368DOD     C322925   6.719   2.266  23.900 -0.2106  0.0381  0.4504
26369DOD     C122926  12.401   2.391  28.318  0.2290 -0.0723  0.0337
26369DOD     C222927  12.072   2.626  28.592  0.0371  0.2280  0.0045
26369DOD     C322928  11.732   2.869  28.781 -0.0031 -0.1474 -0.2452
26370DOD     C122929  30.274  12.628   7.036  0.2682 -0.0983 -0.0573
26370DOD     C222930  30.236  13.074   6.784  0.0786 -0.0703 -0.1783
26370DOD     C322931  30.218  13.402   6.426 -0.1700  0.1063  0.1007
26371DOD     C122932   0.944   1.146  14.101  0.0950  0.2941  0.0607
26371DOD     C222933   1.165   0.900  14.436 -0.1172 -0.1980 -0.0124
26371DOD     C322934   1.435   1.064  14.768 -0.0629 -0.0349 -0.2592
26372DOD     C122935   0.042  16.361   0.408  0.2542  0.1621  0.0822
26372DOD     C222936  29.970  16.411   0.691 -0.2863  0.0151 -0.1951
26372DOD     C322937  29.610  16.714   0.826 -0.2861  0.2447  0.0107
26373DOD     C122938  14.631  11.480  29.479  0.3134  0.0061 -0.1615
26373DOD     C222939  14.689  11.864  29.211  0.1403 -0.3643  0.1267
26373DOD     C322940  14.561  12.027  28.824 -0.1629 -0.3538 -0.2858
26374DOD     C122941  23.878  16.524  25.510  0.0573  0.2728 -0.2480
26374DOD     C222942  23.546  16.207  25.645 -0.0730 -0.1402  0.1172
26374DOD     C322943  23.375  15.762  25.542 -0.0995  0.1779  0.0258
26375DOD     C122944  29.733   8.282  28.027  0.0223  0.2024  0.0868
26375DOD     C222945  29.920   8.094  27.595  0.0894  0.3291 -0.2009
26375DOD     C322946  30.076   8.049  27.209  0.0938  0.2768 -0.0630
26376DOD     C122947   4.879  19.124  14.869  0.0268 -0.1093 -0.0364
26376DOD     C222948   4.501  18.883  14.924  0.1257  0.2583 -0.0311
26376DOD     C322949   4.360  18.400  14.846 -0.2253 -0.0839 -0.2474
26377DOD     C122950  25.680   0.053   4.082 -0.1564 -0.3318 -0.0076
26377DOD     C222951  26.107  30.136   3.967  0.1174 -0.0727  0.2281
26377DOD     C322952  26.522  29.949   3.772  0.2020  0.3468  0.1471
26378DOD     C122953  23.620   0.321  14.836 -0.0320  0.0510 -0.0998
26378DOD     C222954  23.952   0.389  14.448  0.4383  0.2577  0.1529
26378DOD     C322955  24.416   0.286  14.532  0.0165 -0.2058  0.1008
26379DOD     C122956   4.595   5.048  22.393 -0.2219  0.2668  0.0445
26379DOD     C222957   4.724   4.658  22.668 -0.2097 -0.1461 -0.0360
26379DOD     C322958   4.815   4.205  22.746 -0.2110  0.0729 -0.0491
26380DOD     C122959   6.693   2.257   5.804  0.1787 -0.0939 -0.0964
26380DOD     C222960   6.359   2.496   5.486  0.1568 -0.1436  0.0868
26380DOD     C322961   5.993   2.802   5.549 -0.1957 -0.1168  0.0997
26381DOD     C122962  21.281  24.512  16.071 -0.1263  0.1610  0.0897
26381DOD     C222963  21.570  24.698  15.772 -0.0668  0.0630 -0.1421
26381DOD     C322964  21.927  25.020  15.783 -0.2288  0.1094  0.1247
26382DOD     C122965   4.897   4.546  11.602 -0.1087  0.0975 -0.1391
26382DOD     C222966   5.018   4.111  11.649  0.4188 -0.3390  0.0255
26382DOD     C322967   5.186   3.676  11.540 -0.0953  0.0912 -0.0690
26383DOD     C122968   3.335  21.220  21.216 -0.0838 -0.4447 -0.3840
26383DOD     C222969   3.760  21.176  21.068  0.0540  0.0320  0.0433
26383DOD     C322970   4.219  21.164  20.933 -0.1727  0.0880  0.0286
26384DOD     C122971   8.637   7.452   3.195  0.3868 -0.2548  0.0496
26384DOD     C222972   8.463   7.755   2.887  0.4358  0.2942 -0.0017
26384DOD     C322973   8.047   8.004   2.755  0.0629 -0.2352  0.0056
26385DOD     C122974  26.581  17.814  13.314  0.0123 -0.2345 -0.2341
26385DOD     C222975  26.744  17.931  12.896  0.2222 -0.2833 -0.0391
26385DOD     C322976  26.614  17.843  12.527 -0.0650  0.3889  0.0975
26386DOD     C122977   6.874  27.339   0.013  0.0989  0.2011 -0.2014
26386DOD     C222978   7.349  27.255   0.209  0.0341 -0.0779 -0.4013
26386DOD     C322979   7.720  27.178   0.524  0.0461  0.0395 -0.0900
26387DOD     C122980  16.672  15.426   0.650  0.2742  0.3141 -0.0448
26387DOD     C222981  16.707  15.184   0.231 -0.0356  0.0823  0.0849
26387DOD     C322982  16.837  14.719   0.223 -0.1363  0.0373 -0.1796
26388DOD     C122983   7.710   1.478  12.234 -0.0328  0.3041 -0.1607
26388DOD     C222984   7.781   1.049  12.490 -0.2880  0.1029  0.1415
26388DOD     C322985   7.706   0.555  12.453 -0.0643 -0.0832 -0.0604
26389DOD     C122986  20.602  18.734  22.448 -0.1548  0.1455 -0.1283
26389DOD     C222987  20.209  18.855  22.482 -0.0270 -0.2371 -0.2949
26389DOD     C322988  20.008  18.942  22.826  0.3511 -0.0676  0.0793
26390DOD     C122989  27.115   0.914  15.860  0.3137 -0.1382  0.1975
26390DOD     C222990  27.232   0.791  16.304  0.0220 -0.3647  0.2348
26390DOD     C322991  26.860   0.822  16.554 -0.4808 -0.0432  0.0025
26391DOD     C122992  15.897   9.227  14.206 -0.1893  0.5294 -0.2109
26391DOD     C222993  16.066   9.042  14.628  0.0826  0.3779  0.0635
26391DOD     C322994  16.447   9.099  14.868 -0.1561 -0.2232 -0.2280
26392DOD     C122995  18.650   6.513  14.393 -0.1201 -0.0416  0.1942
26392DOD     C222996  18.674   6.102  14.228  0.2335  0.2224 -0.2714
26392DOD     C322997  18.589   5.689  14.113  0.1789 -0.2239 -0.0991
26393DOD     C122998  13.383   9.493  12.936 -0.3309 -0.2365  0.0833
26393DOD     C222999  13.404   9.937  13.183  0.0894 -0.0325  0.2584
26393DOD     C323000  13.739  10.258  13.124  0.1916 -0.2114 -0.1498
26394DOD     C123001  28.622  20.762  26.514  0.0009  0.1931  0.0654
26394DOD     C223002  28.295  20.995  26.314  0.0287  0.1392  0.0044
26394DOD     C323003  28.071  21.445  26.199  0.0129 -0.2032  0.1795
26395DOD     C123004   6.379  23.608   1.301 -0.0745  0.0367 -0.2140
26395DOD     C223005   6.157  23.369   1.674  0.2618 -0.0670 -0.0863
26395DOD     C323006   5.733  23.208   1.782  0.1654 -0.2929  0.3014
26396DOD     C123007  21.222  26.389  10.889 -0.1203  0.0843  0.0097
26396DOD     C223008  20.718  26.318  10.958 -0.1220 -0.3025  0.1278
26396DOD     C323009  20.278  26.456  11.056 -0.2252 -0.0696 -0.0296
26397DOD     C123010   5.785  24.861  22.613 -0.6485  0.0035 -0.2622
26397DOD     C223011   5.751  24.400  22.597  0.2415 -0.3693 -0.2656
26397DOD     C323012   5.759  23.941  22.733 -0.0151  0.0871 -0.0889
26398DOD     C123013  15.123   9.042   4.052  0.1936 -0.1805  0.1312
26398DOD     C223014  14.966   9.304   4.415  0.0019 -0.5534  0.1724
26398DOD     C323015  14.733   9.524   4.833 -0.1008  0.0211 -0.1151
26399DOD     C123016  15.914  17.206  24.872  0.1139  0.0035  0.0582
26399DOD     C223017  15.898  17.393  24.400  0.1930 -0.1113 -0.2213
26399DOD     C323018  16.259  17.459  24.120  0.0049  0.0209 -0.0223
26400DOD     C123019  23.951  29.260  26.678  0.1885  0.1622  0.0331
26400DOD     C223020  23.741  28.832  26.701  0.0255  0.0438  0.1718
26400DOD     C323021  23.599  28.517  27.048  0.0664 -0.1250 -0.2946
26401DOD     C123022  11.761  16.594  25.763  0.1430 -0.2451 -0.2098
26401DOD     C223023  11.390  16.895  25.747  0.1658  0.0478  0.0968
26401DOD     C323024  11.055  17.030  26.073 -0.0095 -0.1876  0.1759
26402DOD     C123025  18.008  15.684   6.732  0.1756  0.1237  0.1134
26402DOD     C223026  18.356  15.832   6.506  0.3997 -0.0595 -0.0521
26402DOD     C323027  18.823  15.949   6.363  0.0396  0.2065 -0.0813
26403DOD     C123028  18.581  10.168  10.388 -0.0342  0.1527 -0.0431
26403DOD     C223029  18.359   9.694  10.487 -0.1952 -0.1505  0.0380
26403DOD     C323030  18.337   9.283  10.406 -0.0792  0.0890  0.1359
26404DOD     C123031   9.724  11.514  20.504  0.0114  0.1652  0.2039
26404DOD     C223032   9.355  11.370  20.368 -0.1966  0.1037  0.1545
26404DOD     C323033   8.996  11.508  20.019  0.0565  0.2071  0.1644
26405DOD     C123034  23.119   9.884  15.686  0.4604 -0.0703  0.0594
26405DOD     C223035  22.819   9.986  15.374 -0.2075 -0.1528 -0.0050
26405DOD     C323036  22.652  10.058  14.930  0.2181  0.0276 -0.0708
26406DOD     C123037  22.975   0.308   8.086  0.3250  0.0715 -0.3127
26406DOD     C223038  23.142   0.624   8.369  0.3196 -0.1726  0.4333
26406DOD     C323039  23.238   1.041   8.540 -0.2315  0.0282  0.2612
26407DOD     C123040   7.761   4.936  19.753  0.0878 -0.2050  0.0444
26407DOD     C223041   7.498   4.828  20.186 -0.1099 -0.4959  0.3683
26407DOD     C323042   7.176   4.665  20.424 -0.2594 -0.0685 -0.0835
26408DOD     C123043  12.748  12.180  16.155 -0.1315 -0.0386 -0.0298
26408DOD     C223044  12.823  12.177  16.610 -0.1385  0.3184  0.2592
26408DOD     C323045  13.146  12.010  16.887  0.0328 -0.1083  0.1111
26409DOD     C123046   6.069   7.984   5.151 -0.0821 -0.2040 -0.1869
26409DOD     C223047   5.937   7.693   4.785 -0.2407 -0.1881  0.1138
26409DOD     C323048   5.541   7.625   4.565  0.3959 -0.0149 -0.0065
26410DOD     C123049   8.602  18.061   5.854 -0.2456  0.2307 -0.2143
26410DOD     C223050   8.244  18.263   6.133  0.0796 -0.1594  0.0236
26410DOD     C323051   8.219  18.711   6.247 -0.1120 -0.0577  0.0850
26411DOD     C123052   9.353  28.109  17.487 -0.1848  0.1225  0.1817
26411DOD     C223053   9.801  28.181  17.249  0.1699  0.0203  0.5029
26411DOD     C323054  10.312  28.210  17.238  0.0783 -0.0844  0.0637
26412DOD     C123055   3.259  26.840   3.394 -0.1666  0.0459 -0.0497
26412DOD     C223056   3.652  26.510   3.440 -0.2912 -0.1602  0.0998
26412DOD     C323057   3.898  26.112   3.512  0.1501  0.2423 -0.2743
26413DOD     C123058  14.896   0.669   5.821  0.1127 -0.1962 -0.0769
26413DOD     C223059  15.223   0.675   6.168  0.3104  0.1001  0.0424
26413DOD     C323060  15.561   0.872   6.443  0.1225 -0.1798  0.0156
26414DOD     C123061  28.526  19.328   2.665 -0.0252 -0.0857 -0.2375
26414DOD     C223062  28.148  19.180   2.533 -0.0427 -0.1247 -0.0599
26414DOD     C323063  28.071  18.837   2.246 -0.0957  0.0058  0.5106
26415DOD     C123064  17.783  20.950  10.386 -0.0890 -0.0400 -0.4159
26415DOD     C223065  17.713  21.196  10.037 -0.3364  0.0779  0.3287
26415DOD     C323066  17.606  21.527   9.637 -0.0312  0.1084  0.2142
26416DOD     C123067   4.902  11.784  22.460 -0.0619  0.2420 -0.2033
26416DOD     C223068   5.029  11.379  22.668  0.1466 -0.2038  0.2451
26416DOD     C323069   4.909  10.992  22.833 -0.3441  0.2318 -0.0164
26417DOD     C123070  26.509  14.024  23.695 -0.1276 -0.3511 -0.1011
26417DOD     C223071  26.379  13.841  24.138 -0.1388  0.1479 -0.0760
26417DOD     C323072  26.203  13.635  24.478  0.1811  0.2521 -0.0394
26418DOD     C123073  12.485  10.663  11.692 -0.1543 -0.4116 -0.0016
26418DOD     C223074  12.741  10.837  12.095 -0.0595  0.0638 -0.0661
26418DOD     C323075  13.173  10.894  12.345 -0.2952  0.1666  0.2581
26419DOD     C123076   9.360  25.093  22.223 -0.1478  0.2446 -0.1521
26419DOD     C223077   9.650  24.770  22.153 -0.0936 -0.1958 -0.0990
26419DOD     C323078   9.501  24.391  22.294 -0.2050 -0.0485  0.1645
26420DOD     C123079   2.128  26.696  16.138 -0.0711  0.0631 -0.2013
26420DOD     C223080   2.392  26.641  16.522  0.2777 -0.1708 -0.2254
26420DOD     C323081   2.217  26.726  16.954 -0.2082  0.2861  0.0975
26421DOD     C123082  19.323  18.294  26.858  0.0340  0.1066  0.0755
26421DOD     C223083  19.137  18.634  26.579 -0.3074  0.0500 -0.4767
26421DOD     C323084  18.881  18.815  26.248  0.0497 -0.1756  0.1087
26422DOD     C123085   2.802  25.104   5.429  0.3196 -0.2165  0.1696
26422DOD     C223086   2.311  25.154   5.409  0.2308  0.0498  0.0471
26422DOD     C323087   1.890  25.028   5.613  0.1003 -0.1537 -0.0087
26423DOD     C123088   1.481   5.616  15.160  0.6674  0.1191  0.2695
26423DOD     C223089   1.898   5.639  14.969 -0.0123 -0.1725 -0.3180
26423DOD     C323090   2.373   5.482  14.987 -0.2846  0.0991 -0.0137
26424DOD     C123091  17.093  24.165  16.961 -0.2748  0.2263  0.1256
26424DOD     C223092  17.331  24.027  16.558  0.3051 -0.0217 -0.0664
26424DOD     C323093  17.496  24.060  16.098  0.1398  0.0088 -0.0408
26425DOD     C123094   4.746  16.512   8.650  0.5855  0.0776 -0.1111
26425DOD     C223095   5.107  16.810   8.658 -0.0151 -0.0950 -0.1162
26425DOD     C323096   5.246  17.063   8.336  0.2461  0.0328 -0.0803
26426DOD     C123097  28.434   5.984  20.779 -0.0233  0.1643  0.0860
26426DOD     C223098  28.333   5.715  20.409  0.1669  0.2203  0.0046
26426DOD     C323099  27.889   5.570  20.226 -0.3657  0.1914 -0.0423
26427DOD     C123100   4.617   8.278  19.750  0.2087 -0.0172 -0.0942
26427DOD     C223101   4.849   7.972  20.008 -0.0394 -0.0250 -0.0038
26427DOD     C323102   4.931   7.789  20.445  0.0286 -0.2823  0.2677
26428DOD     C123103  18.512   3.713  23.506  0.1253 -0.0931  0.4408
26428DOD     C223104  18.291   3.353  23.335 -0.2808 -0.2300  0.3096
26428DOD     C323105  18.495   3.118  23.007 -0.2287 -0.1852 -0.0400
26429DOD     C123106  14.796   8.294  13.216  0.1897 -0.1315  0.2840
26429DOD     C223107  14.322   8.374  13.155 -0.2381 -0.2891 -0.1571
26429DOD     C323108  13.844   8.487  13.238  0.1270 -0.0952  0.0453
26430DOD     C123109  12.066  23.898  30.250 -0.0634  0.0748  0.1008
26430DOD     C223110  12.471  24.038  30.063 -0.1521 -0.1650  0.0353
26430DOD     C323111  12.860  24.250  30.279  0.0363  0.0569  0.2639
26431DOD     C123112  19.754   0.465   2.924  0.0924 -0.0039 -0.0398
26431DOD     C223113  19.520   0.105   3.166 -0.1700 -0.0683 -0.0288
26431DOD     C323114  19.258  30.215   3.434 -0.0675  0.0934  0.1435
26432DOD     C123115  17.886   8.296  28.113  0.0360 -0.0349 -0.0086
26432DOD     C223116  17.913   8.776  28.146  0.1000 -0.0519 -0.1527
26432DOD     C323117  17.600   9.027  28.272  0.2517 -0.2814  0.0629
26433DOD     C123118   9.639  23.741  10.755 -0.1471  0.3070 -0.2625
26433DOD     C223119   9.246  23.867  10.903  0.0557  0.0430  0.2112
26433DOD     C323120   8.782  23.804  10.857 -0.0337 -0.0604 -0.0007
26434DOD     C123121  15.779  11.671   8.201  0.2099 -0.2123 -0.0201
26434DOD     C223122  16.013  11.537   7.891  0.1528 -0.0663 -0.0286
26434DOD     C323123  15.990  11.192   7.519  0.2378  0.0097 -0.1553
26435DOD     C123124  14.660   5.601   3.325  0.1034 -0.1590 -0.3450
26435DOD     C223125  15.046   5.379   3.280  0.0719  0.1821 -0.0762
26435DOD     C323126  15.490   5.515   3.322 -0.2056 -0.2607  0.2892
26436DOD     C123127  13.509   5.925   3.901 -0.0058 -0.3734 -0.1234
26436DOD     C223128  13.723   5.560   3.887 -0.0027  0.1390 -0.1181
26436DOD     C323129  14.057   5.492   4.190 -0.2928  0.0640 -0.2167
26437DOD     C123130   6.088   9.869  22.137 -0.0568 -0.0633 -0.1025
26437DOD     C223131   5.717   9.932  21.817 -0.1566 -0.1168  0.0874
26437DOD     C323132   5.536  10.212  21.499 -0.3977 -0.0507 -0.0766
26438DOD     C123133   1.541  25.719  17.210  0.0012 -0.3045 -0.0083
26438DOD     C223134   1.319  26.142  17.152 -0.4330  0.2470  0.1240
26438DOD     C323135   0.940  26.372  17.077  0.1707  0.2450  0.1423
26439DOD     C123136  27.076   8.044  29.259 -0.1059  0.0418 -0.4959
26439DOD     C223137  27.106   8.039  28.809  0.5074  0.1405  0.2411
26439DOD     C323138  27.108   7.809  28.392 -0.0113  0.1754  0.1187
26440DOD     C123139  15.179  17.537   7.197 -0.0085  0.2344  0.0503
26440DOD     C223140  15.406  17.268   6.948  0.2622  0.0119  0.0930
26440DOD     C323141  15.482  17.352   6.505  0.0253 -0.2424  0.0724
26441DOD     C123142  15.992  18.512   8.140 -0.0377 -0.1713 -0.1357
26441DOD     C223143  15.940  18.589   7.709  0.0267 -0.6089 -0.0675
26441DOD     C323144  15.917  18.355   7.271  0.2055 -0.0429 -0.0510
26442DOD     C123145   1.792   2.386  22.399 -0.0091  0.0952 -0.0524
26442DOD     C223146   1.574   2.180  22.051  0.1479  0.0408 -0.1893
26442DOD     C323147   1.298   1.982  21.698 -0.1162  0.1544  0.3398
26443DOD     C123148   9.072  23.220  10.140 -0.1089  0.0417  0.0513
26443DOD     C223149   8.725  23.479   9.900  0.0619  0.1403  0.0717
26443DOD     C323150   8.302  23.541   9.823 -0.0907  0.2997  0.0522
26444DOD     C123151  21.349   8.026  22.266  0.1790 -0.0457 -0.3155
26444DOD     C223152  21.637   7.859  21.926 -0.2001  0.2779 -0.1029
26444DOD     C323153  21.778   7.479  21.910 -0.3705  0.1101  0.1592
26445DOD     C123154  30.019  24.441  28.906  0.0276 -0.1426  0.2826
26445DOD     C223155  29.688  24.105  28.946  0.0493 -0.2782 -0.1129
26445DOD     C323156  29.829  23.638  28.952  0.0344  0.1203  0.0029
26446DOD     C123157   7.959   9.395  14.740  0.1544 -0.1574 -0.1646
26446DOD     C223158   7.831   9.520  15.161 -0.0523 -0.0074  0.0064
26446DOD     C323159   7.753   9.811  15.480  0.0224 -0.0555  0.0190
26447DOD     C123160   1.295  27.717  14.432  0.4155  0.0424  0.1153
26447DOD     C223161   0.902  27.715  14.664 -0.2471  0.1918  0.0103
26447DOD     C323162   0.499  27.709  14.906  0.2284 -0.1598  0.0533
26448DOD     C123163  27.806  29.946  30.161  0.4146 -0.1793  0.0789
26448DOD     C223164  27.449  -0.036  -0.056  0.0264 -0.4057 -0.3217
26448DOD     C323165  27.502   0.430   0.062  0.0833 -0.0193 -0.0363
26449DOD     C123166   2.414  24.968  10.538  0.2800  0.2067  0.2962
26449DOD     C223167   2.556  25.390  10.517 -0.2029  0.1136 -0.2918
26449DOD     C323168   2.464  25.811  10.671 -0.0358  0.2347  0.0493
26450DOD     C123169  29.364  14.578   3.796 -0.3547 -0.2302 -0.1650
26450DOD     C223170  29.044  14.551   3.495  0.0964  0.2768 -0.0861
26450DOD     C323171  28.896  14.264   3.188 -0.1791  0.1427 -0.0376
26451DOD     C123172   6.247  29.648  18.966  0.1189 -0.0581 -0.1782
26451DOD     C223173   6.211  30.111  18.884  0.4491 -0.0534 -0.1253
26451DOD     C323174   6.019   0.004  18.485 -0.2997 -0.0131 -0.1586
26452DOD     C123175   6.649  21.064  13.146  0.0000  0.0062  0.1086
26452DOD     C223176   7.067  20.950  13.158  0.2075 -0.1434 -0.3092
26452DOD     C323177   7.485  20.920  13.242 -0.2287  0.0199 -0.1973
26453DOD     C123178   9.934  15.693  25.538 -0.2272 -0.0956 -0.2188
26453DOD     C223179  10.266  15.610  25.205  0.1885 -0.3729  0.3355
26453DOD     C323180  10.698  15.496  24.971 -0.3599  0.1766  0.0028
26454DOD     C123181  23.370  21.517  10.788  0.0410  0.0809  0.0719
26454DOD     C223182  23.057  21.219  10.534  0.1778 -0.0733  0.0399
26454DOD     C323183  22.610  21.154  10.442  0.1334  0.0706 -0.0701
26455DOD     C123184  16.119  22.578  11.083 -0.0785 -0.0947  0.1469
26455DOD     C223185  16.279  22.530  11.482 -0.4762 -0.2810  0.2731
26455DOD     C323186  16.539  22.756  11.782 -0.0255  0.0100  0.2027
26456DOD     C123187  29.944  12.427  21.993  0.0072 -0.1668  0.1412
26456DOD     C223188  30.295  12.109  22.132 -0.1264 -0.0594 -0.0476
26456DOD     C323189  30.282  11.650  22.178  0.0661  0.0062 -0.1676
26457DOD     C123190   7.916  20.493  14.190 -0.1641  0.1682 -0.2706
26457DOD     C223191   7.922  20.884  13.921 -0.1977  0.1504 -0.2641
26457DOD     C323192   7.610  21.130  13.708 -0.1285 -0.3099  0.1272
26458DOD     C123193  10.218  13.670  28.046  0.2506  0.1841 -0.0380
26458DOD     C223194  10.173  13.323  27.741 -0.0432  0.1700  0.1275
26458DOD     C323195  10.446  13.187  27.366 -0.3057  0.1760  0.3516
26459DOD     C123196   4.725  25.373   9.973  0.1162  0.0500 -0.3591
26459DOD     C223197   4.431  25.017  10.035  0.1610 -0.1863  0.2258
26459DOD     C323198   4.171  24.753   9.798 -0.0057 -0.2624 -0.0441
26460DOD     C123199   0.859   1.450  20.370 -0.1203 -0.0430  0.1264
26460DOD     C223200   0.820   1.715  20.027  0.0228  0.1675 -0.0338
26460DOD     C323201   0.474   1.995  19.836  0.0688  0.1323 -0.3741
26461DOD     C123202  14.982  29.525   6.859 -0.0745  0.1880  0.0040
26461DOD     C223203  14.647  29.217   6.847  0.0007 -0.0237 -0.0241
26461DOD     C323204  14.262  29.094   6.650 -0.0599 -0.2843  0.1449
26462DOD     C123205  29.361  24.556  12.510  0.1357 -0.0036 -0.0755
26462DOD     C223206  29.603  24.630  12.092  0.1785  0.3305  0.3061
26462DOD     C323207  29.627  24.454  11.668  0.2213 -0.0391  0.1021
26463DOD     C123208  17.972  15.820  15.692 -0.1015 -0.1229  0.0843
26463DOD     C223209  18.056  16.170  15.496  0.3042  0.1715  0.0129
26463DOD     C323210  18.024  16.340  15.064  0.1065 -0.2196 -0.3885
26464DOD     C123211   7.825   2.624   8.456 -0.1896  0.1440  0.0889
26464DOD     C223212   7.763   2.173   8.465  0.1019  0.1988  0.0880
26464DOD     C323213   7.742   1.816   8.788 -0.0300 -0.0510  0.2935
26465DOD     C123214   3.659  11.268  19.692  0.1550 -0.0740  0.3524
26465DOD     C223215   3.276  11.209  19.353 -0.1886  0.0388 -0.1289
26465DOD     C323216   3.058  11.071  19.012  0.0674 -0.1237  0.0735
26466DOD     C123217   1.379   1.422   2.025 -0.0090  0.2051 -0.1807
26466DOD     C223218   1.728   1.560   2.304 -0.0017 -0.2365 -0.2381
26466DOD     C323219   1.903   1.959   2.581 -0.5288  0.1458 -0.1683
26467DOD     C123220   6.452  10.850  29.065  0.1995  0.0738 -0.3732
26467DOD     C223221   6.707  10.944  28.712 -0.3251 -0.0485  0.1543
26467DOD     C323222   7.103  10.813  28.523  0.0087  0.0036  0.2272
26468DOD     C123223   7.282   2.843   3.210 -0.1967 -0.0493  0.1455
26468DOD     C223224   7.389   2.880   3.663  0.0524  0.2302  0.0086
26468DOD     C323225   7.226   2.981   4.049 -0.0614 -0.0158  0.1989
26469DOD     C123226  22.139  20.331   1.109 -0.0867 -0.0268 -0.0613
26469DOD     C223227  21.818  20.497   0.795 -0.2941  0.3279  0.3776
26469DOD     C323228  21.351  20.340   0.794 -0.0294  0.4125  0.2632
26470DOD     C123229   9.077  22.284   9.005 -0.1751 -0.1850  0.0789
26470DOD     C223230   8.895  21.864   9.018  0.2741 -0.1625 -0.4150
26470DOD     C323231   8.513  21.612   9.114 -0.0879  0.1221 -0.1142
26471DOD     C123232  14.935   0.919  30.206 -0.1614  0.5817 -0.0793
26471DOD     C223233  15.121   1.093  29.782  0.1404 -0.0303 -0.0325
26471DOD     C323234  14.897   1.233  29.420 -0.1804  0.0878  0.0400
26472DOD     C123235  27.867  23.512  26.405  0.3135  0.1089  0.1431
26472DOD     C223236  27.741  23.897  26.684 -0.2667  0.0148  0.1536
26472DOD     C323237  27.498  24.266  26.596 -0.1042  0.3122 -0.2247
26473DOD     C123238   9.208  29.316   3.905  0.3043 -0.0640  0.1969
26473DOD     C223239   9.569  29.186   4.217  0.2289 -0.4816 -0.0989
26473DOD     C323240   9.712  28.841   4.534 -0.2042  0.1414  0.0020
26474DOD     C123241  28.003  11.621   8.566  0.0496 -0.0572 -0.2876
26474DOD     C223242  27.655  11.354   8.595 -0.0773  0.0829  0.2164
26474DOD     C323243  27.441  10.958   8.736  0.3848 -0.1232 -0.0537
26475DOD     C123244  24.909  17.833  19.221  0.0393 -0.0147 -0.0184
26475DOD     C223245  25.033  18.077  18.809  0.0485 -0.1462 -0.1041
26475DOD     C323246  25.276  18.251  18.446 -0.0071  0.2360 -0.0307
26476DOD     C123247  23.571  19.282  10.173  0.0894 -0.0589 -0.1340
26476DOD     C223248  23.611  19.686  10.057 -0.0529  0.0656 -0.0069
26476DOD     C323249  23.797  20.012  10.351  0.0639  0.0861  0.0631
26477DOD     C123250  23.066   5.441  16.246 -0.1381 -0.1142 -0.0193
26477DOD     C223251  22.827   5.850  16.209  0.1892  0.1621  0.0810
26477DOD     C323252  22.423   5.804  16.073 -0.2440 -0.0022 -0.0906
26478DOD     C123253  29.644   4.548  17.146  0.0353  0.1544 -0.1785
26478DOD     C223254  29.565   4.991  16.987 -0.1120  0.0267 -0.1150
26478DOD     C323255  29.682   5.448  17.143 -0.2871  0.0909  0.1845
26479DOD     C123256   4.229   1.167   6.659  0.2075  0.0506 -0.2821
26479DOD     C223257   4.449   1.115   7.099 -0.1055  0.0941  0.0730
26479DOD     C323258   4.384   0.870   7.522 -0.0983 -0.1387  0.3383
26480DOD     C123259   4.974   4.253  21.696 -0.0075  0.0689  0.3400
26480DOD     C223260   5.300   4.449  21.463 -0.0741 -0.3608  0.0656
26480DOD     C323261   5.472   4.629  21.077  0.3691  0.0397  0.2839
26481DOD     C123262  15.126   5.029  23.899  0.0351 -0.2571  0.0235
26481DOD     C223263  15.059   4.884  24.351 -0.2271  0.1999 -0.1310
26481DOD     C323264  14.686   4.916  24.665  0.1181 -0.0095 -0.2647
26482DOD     C123265  26.084  25.322  12.111  0.0477 -0.0924 -0.0074
26482DOD     C223266  26.404  25.016  12.184 -0.1850 -0.0905  0.1029
26482DOD     C323267  26.867  24.862  12.022 -0.0184  0.0249  0.2344
26483DOD     C123268  26.000   4.829   2.760 -0.0251 -0.2558  0.1425
26483DOD     C223269  26.366   4.505   2.758  0.0260  0.0966 -0.1428
26483DOD     C323270  26.790   4.656   2.665  0.0437 -0.0105  0.1479
26484DOD     C123271   2.435  28.863  25.727 -0.0371  0.0022 -0.1154
26484DOD     C223272   2.748  29.222  25.814  0.1162 -0.1415  0.0365
26484DOD     C323273   2.550  29.589  26.046 -0.2465 -0.2030  0.1878
26485DOD     C123274  20.911   3.808   7.530  0.2668 -0.0524 -0.1070
26485DOD     C223275  20.741   3.939   7.930 -0.0627  0.0102  0.0384
26485DOD     C323276  20.998   4.170   8.203 -0.0880 -0.0530  0.1702
26486DOD     C123277   1.900   6.683   0.653  0.3099 -0.1187  0.1848
26486DOD     C223278   2.182   6.577   0.957 -0.3040 -0.0646  0.2169
26486DOD     C323279   2.299   6.536   1.403  0.0289 -0.0182  0.0004
26487DOD     C123280  17.578  29.053  20.054 -0.2517  0.0882 -0.0643
26487DOD     C223281  17.997  29.176  20.146 -0.0183 -0.0711 -0.1764
26487DOD     C323282  18.233  29.541  20.026 -0.2931  0.0932 -0.0143
26488DOD     C123283  12.040  10.148  28.858  0.1695 -0.0558 -0.0976
26488DOD     C223284  11.810  10.513  28.885  0.1714  0.1452 -0.3682
26488DOD     C323285  11.600  10.717  28.560  0.0398 -0.2666 -0.1158
26489DOD     C123286   9.967   5.680   9.623 -0.3227  0.0089 -0.0657
26489DOD     C223287   9.994   5.191   9.793 -0.0496  0.1286  0.2653
26489DOD     C323288   9.956   4.758   9.895  0.3805  0.1108  0.0894
26490DOD     C123289  25.862  27.682  18.902  0.1566 -0.4008  0.1435
26490DOD     C223290  25.633  27.958  19.200  0.0763  0.2305 -0.1976
26490DOD     C323291  25.456  28.231  19.530 -0.2491 -0.1215 -0.1221
26491DOD     C123292  26.078  16.983  13.746 -0.3629 -0.1700  0.1360
26491DOD     C223293  26.426  16.747  13.580  0.2650  0.1281 -0.0916
26491DOD     C323294  26.631  16.569  13.187  0.1455  0.0223  0.0333
26492DOD     C123295   0.946  12.916  25.262 -0.1353  0.1367 -0.0241
26492DOD     C223296   1.139  12.696  24.908  0.1323 -0.0880 -0.0158
26492DOD     C323297   1.572  12.597  24.846 -0.1902 -0.2986 -0.2058
26493DOD     C123298   6.881  25.763  25.400  0.0187  0.1822 -0.2262
26493DOD     C223299   7.123  26.169  25.568 -0.2435  0.1336 -0.2804
26493DOD     C323300   7.199  26.490  25.244 -0.0156 -0.1581  0.1287
26494DOD     C123301  30.196  22.159  25.491 -0.0526  0.2652 -0.0947
26494DOD     C223302  -0.035  21.879  25.180 -0.2521  0.2059 -0.0365
26494DOD     C323303  30.126  21.552  24.917  0.1880  0.0271  0.1302
26495DOD     C123304   8.971   8.141  25.141  0.3467  0.0012  0.1208
26495DOD     C223305   8.759   8.566  25.361 -0.3664  0.2616 -0.0759
26495DOD     C323306   8.327   8.726  25.359  0.1771  0.0575 -0.2044
26496DOD     C123307   6.837   9.962   8.069  0.2511  0.0486 -0.0199
26496DOD     C223308   6.629  10.355   8.050  0.1810  0.1053  0.3317
26496DOD     C323309   6.707  10.738   7.822 -0.1439 -0.3499 -0.2334
26497DOD     C123310  16.465  19.356  26.953 -0.1001 -0.2585  0.0541
26497DOD     C223311  16.128  19.259  27.270  0.4451 -0.0185  0.0597
26497DOD     C323312  16.071  18.941  27.560  0.0460 -0.1630  0.0395
26498DOD     C123313  17.581  20.908   4.382 -0.0642 -0.3412 -0.2116
26498DOD     C223314  17.585  20.842   3.963 -0.0747  0.3599  0.0204
26498DOD     C323315  17.558  20.682   3.505  0.0277 -0.2023  0.0225
26499DOD     C123316  16.941   6.146   3.882  0.2809  0.0292  0.1384
26499DOD     C223317  16.462   6.125   3.790  0.0587  0.4039  0.2733
26499DOD     C323318  16.015   6.180   3.688  0.0155 -0.1188  0.1662
26500DOD     C123319   7.895   6.829  18.879  0.1557  0.0369  0.1947
26500DOD     C223320   7.818   6.649  18.499 -0.0302  0.0968 -0.1328
26500DOD     C323321   8.012   6.521  18.125 -0.1357  0.2359  0.1099
26501DOD     C123322  18.921  19.366  13.165 -0.0186  0.1743 -0.0927
26501DOD     C223323  19.397  19.236  13.112  0.1349  0.1107 -0.0680
26501DOD     C323324  19.581  19.519  13.453  0.2481  0.0587  0.0207
26502DOD     C123325  29.371   1.252   6.534 -0.1920 -0.0468  0.2693
26502DOD     C223326  29.361   0.933   6.186  0.0193  0.0903 -0.0788
26502DOD     C323327  29.495   0.935   5.780 -0.1082  0.0484 -0.0848
26503DOD     C123328  17.619  25.587  17.502  0.1124 -0.1097  0.1039
26503DOD     C223329  17.490  25.707  17.028 -0.0187  0.0430  0.2563
26503DOD     C323330  17.477  25.609  16.549 -0.2986  0.1916 -0.0764
26504DOD     C123331  20.829  17.170  26.775 -0.0047 -0.2747 -0.0419
26504DOD     C223332  20.769  16.887  27.179 -0.1248  0.0764  0.1168
26504DOD     C323333  20.740  16.905  27.641 -0.0275 -0.0111 -0.0375
26505DOD     C123334  15.833  22.683   1.611  0.0849  0.3727 -0.2123
26505DOD     C223335  16.203  22.974   1.462  0.0778  0.0610  0.0804
26505DOD     C323336  16.668  23.019   1.578  0.3028  0.0443 -0.0054
26506DOD     C123337  22.067  11.024   4.410  0.1463 -0.0143 -0.1994
26506DOD     C223338  22.089  10.826   4.847  0.0421  0.2030  0.4292
26506DOD     C323339  22.153  10.547   5.254  0.0141 -0.0627 -0.2647
26507DOD     C123340  14.160  22.515   9.377  0.4782 -0.0934  0.1094
26507DOD     C223341  14.151  22.697   9.778  0.0201 -0.2089  0.0239
26507DOD     C323342  13.859  22.941  10.020  0.1600 -0.1872  0.0458
26508DOD     C123343  14.266  20.889  18.904 -0.1891  0.0303  0.3261
26508DOD     C223344  14.697  20.681  19.061  0.0708  0.0000 -0.0882
26508DOD     C323345  15.156  20.746  19.132 -0.0734  0.0438  0.0702
26509DOD     C123346   2.949  19.260   7.369 -0.0924  0.2136 -0.0422
26509DOD     C223347   3.358  19.478   7.515  0.0452  0.2964 -0.1065
26509DOD     C323348   3.547  19.848   7.650  0.0406  0.0644  0.0568
26510DOD     C123349   5.165  19.668   8.864 -0.0764 -0.1562  0.2823
26510DOD     C223350   4.922  19.637   9.254 -0.1275 -0.1157  0.1370
26510DOD     C323351   4.596  19.740   9.570  0.0539 -0.0432 -0.0145
26511DOD     C123352  14.544  10.061   2.428  0.3671  0.0980  0.1811
26511DOD     C223353  14.752   9.905   2.819  0.1064 -0.2223  0.0027
26511DOD     C323354  14.909   9.587   3.147 -0.0411 -0.1474 -0.0274
26512DOD     C123355  14.584  27.934   0.168 -0.1360  0.1512  0.0313
26512DOD     C223356  14.682  27.664  30.124 -0.0774  0.1080 -0.1813
26512DOD     C323357  14.742  27.350  29.698 -0.2313  0.0093 -0.0188
26513DOD     C123358  25.266  29.817  13.585  0.1631 -0.4135  0.3544
26513DOD     C223359  25.270  30.010  13.192 -0.0400 -0.2017  0.1425
26513DOD     C323360  25.187  29.935  12.710 -0.0031  0.0964 -0.0648
26514DOD     C123361   7.390  21.592  10.515  0.1130  0.3931 -0.0172
26514DOD     C223362   7.245  21.510  10.086  0.1404 -0.3113  0.0423
26514DOD     C323363   7.564  21.465   9.741  0.2697  0.0635  0.2385
26515DOD     C123364  10.459   9.875  14.278 -0.1895  0.1655  0.0697
26515DOD     C223365  10.556  10.287  14.450 -0.2540  0.0623  0.0843
26515DOD     C323366  10.974  10.516  14.462  0.1142 -0.0152 -0.1804
26516DOD     C123367  22.760   2.936  23.534 -0.2775  0.2543 -0.0633
26516DOD     C223368  22.883   2.994  23.955  0.0612 -0.1414 -0.2324
26516DOD     C323369  23.191   2.800  24.237  0.2922  0.0449  0.0350
26517DOD     C123370  17.813   6.495  23.218 -0.3100 -0.2822 -0.1810
26517DOD     C223371  17.983   6.647  23.623  0.0046 -0.0237 -0.2022
26517DOD     C323372  18.055   6.692  24.052 -0.1344  0.0212  0.0418
26518DOD     C123373   9.516   0.189   8.774 -0.0150  0.1108 -0.0296
26518DOD     C223374   9.639  30.105   8.923  0.2657  0.1962  0.2929
26518DOD     C323375   9.999  29.811   8.981 -0.3072 -0.1275 -0.2589
26519DOD     C123376   5.410   1.459  13.385  0.3158 -0.1804 -0.0586
26519DOD     C223377   5.577   1.058  13.333  0.1148  0.2452  0.2246
26519DOD     C323378   5.724   0.747  13.048  0.1671  0.0983 -0.2215
26520DOD     C123379  27.464   4.430  25.048 -0.2184 -0.0942  0.0523
26520DOD     C223380  27.383   3.976  24.871 -0.1239  0.3640 -0.0120
26520DOD     C323381  27.451   3.514  24.817 -0.3528  0.0117 -0.0139
26521DOD     C123382   5.132  21.939   9.215  0.0598  0.1812 -0.2847
26521DOD     C223383   5.078  21.794   9.680 -0.0242  0.1204 -0.0190
26521DOD     C323384   4.726  21.888   9.937 -0.0153  0.3468  0.0014
26522DOD     C123385   6.797  28.704  21.147 -0.0766  0.0082 -0.1146
26522DOD     C223386   7.167  28.467  20.893 -0.0367  0.1634  0.2727
26522DOD     C323387   7.406  28.268  20.615 -0.1117 -0.1234 -0.0694
26523DOD     C123388   2.202  29.716  16.494 -0.0083 -0.0618  0.0863
26523DOD     C223389   1.831  29.510  16.259  0.1399  0.4257 -0.1283
26523DOD     C323390   1.803  29.347  15.835 -0.0847  0.1848  0.2897
26524DOD     C123391   8.921   0.511  20.366 -0.0963 -0.0794 -0.1340
26524DOD     C223392   8.973   0.105  20.592  0.1691  0.3119  0.0550
26524DOD     C323393   9.075  30.110  20.909 -0.2561  0.1650  0.4408
26525DOD     C123394  24.726  11.166   7.665  0.0882  0.0707 -0.1351
26525DOD     C223395  24.825  11.440   7.314  0.4087 -0.0918  0.0831
26525DOD     C323396  24.786  11.733   6.945 -0.1543 -0.2209  0.1228
26526DOD     C123397  28.112  28.083   6.394 -0.1058 -0.3532 -0.1434
26526DOD     C223398  28.266  28.047   6.851  0.1459 -0.0394  0.1288
26526DOD     C323399  28.656  27.821   7.037  0.0058 -0.1200  0.0775
26527DOD     C123400  25.079  23.269  12.079 -0.4846 -0.1752 -0.3493
26527DOD     C223401  25.398  23.506  11.837 -0.1568 -0.0386  0.0436
26527DOD     C323402  25.493  23.670  11.318 -0.0511  0.2123 -0.1131
26528DOD     C123403   6.056  21.837   2.970 -0.1199 -0.0484 -0.0173
26528DOD     C223404   5.718  21.822   3.345  0.0720 -0.1483  0.1016
26528DOD     C323405   5.649  21.923   3.804 -0.0928 -0.1104  0.0901
26529DOD     C123406  20.237   2.705   3.741  0.0300 -0.1591  0.1121
26529DOD     C223407  20.625   2.727   3.961  0.0812  0.0084 -0.0025
26529DOD     C323408  21.001   3.006   3.941 -0.1944  0.3593 -0.2464
26530DOD     C123409  26.847   4.022   0.871  0.0621 -0.0166 -0.0340
26530DOD     C223410  26.822   4.400   1.142 -0.2274 -0.0954  0.0351
26530DOD     C323411  26.940   4.825   1.243 -0.0570 -0.0412  0.6695
26531DOD     C123412  24.576  25.461   9.998  0.2279 -0.0806 -0.3438
26531DOD     C223413  24.297  25.586  10.336  0.1453  0.0269 -0.0076
26531DOD     C323414  24.049  25.663  10.738  0.1056  0.1709 -0.1398
26532DOD     C123415  24.375  19.195   1.798  0.1376 -0.0175  0.1198
26532DOD     C223416  23.874  19.185   1.768  0.1135  0.1832 -0.1225
26532DOD     C323417  23.396  19.070   1.697  0.1570  0.0103 -0.0200
26533DOD     C123418   1.766   7.173  28.872 -0.0987 -0.2722  0.2361
26533DOD     C223419   1.587   6.805  28.687  0.1293 -0.2001  0.0264
26533DOD     C323420   1.221   6.797  28.411  0.1257 -0.4373 -0.0427
26534DOD     C123421  25.804  17.808   2.835 -0.2243 -0.2344 -0.4467
26534DOD     C223422  25.954  18.069   3.231  0.0425  0.1745  0.0344
26534DOD     C323423  26.406  18.174   3.369  0.1783 -0.0281 -0.0749
26535DOD     C123424  28.883   8.647  14.491  0.2144 -0.0302 -0.1631
26535DOD     C223425  28.516   8.495  14.276 -0.2983  0.2106  0.2702
26535DOD     C323426  28.075   8.287  14.227 -0.1291  0.0582 -0.1436
26536DOD     C123427  18.560  19.782   6.166  0.1057  0.1344 -0.2061
26536DOD     C223428  18.940  19.542   6.253 -0.2436 -0.0138 -0.0005
26536DOD     C323429  19.254  19.474   6.608 -0.3232  0.0131  0.0054
26537DOD     C123430   1.075   4.385  24.588  0.3837 -0.0411 -0.1686
26537DOD     C223431   0.647   4.231  24.497 -0.1058  0.1932 -0.1039
26537DOD     C323432   0.551   4.173  23.973 -0.6299  0.0442 -0.0356
26538DOD     C123433  11.157  14.615   3.636  0.0725  0.2695 -0.0701
26538DOD     C223434  11.585  14.652   3.763  0.0034  0.0609 -0.0864
26538DOD     C323435  12.044  14.501   3.701 -0.3369 -0.0835  0.1890
26539DOD     C123436   8.895   2.074  29.365  0.2606 -0.0088  0.1580
26539DOD     C223437   8.730   2.173  29.800  0.0446  0.1684 -0.0308
26539DOD     C323438   8.674   2.440  30.190  0.0546  0.2740 -0.1120
26540DOD     C123439  19.105   0.885   4.821 -0.2264  0.2700 -0.2367
26540DOD     C223440  19.443   1.195   4.810 -0.2031 -0.4185  0.3598
26540DOD     C323441  19.813   1.458   4.820 -0.3918  0.3079  0.0276
26541DOD     C123442  18.009   8.833  11.438 -0.0638 -0.2214 -0.0722
26541DOD     C223443  18.124   9.266  11.278 -0.1776  0.0139 -0.1364
26541DOD     C323444  18.402   9.567  11.525 -0.0006  0.0710  0.0683
26542DOD     C123445  27.158   0.154  10.340 -0.1005  0.0440 -0.0735
26542DOD     C223446  27.276  30.023  10.347  0.0285  0.0705 -0.0264
26542DOD     C323447  27.328  29.581  10.275  0.0091  0.0372 -0.2719
26543DOD     C123448  25.307  10.708  14.327  0.1105  0.2479  0.0721
26543DOD     C223449  25.146  10.432  14.661 -0.1361 -0.0563  0.2945
26543DOD     C323450  24.750  10.463  14.837 -0.0093 -0.0926 -0.0182
26544DOD     C123451  23.638   2.419   5.129 -0.0284 -0.0775 -0.1700
26544DOD     C223452  24.025   2.343   4.958 -0.2664 -0.0192  0.2115
26544DOD     C323453  24.288   1.993   5.028 -0.0208 -0.0876 -0.0541
26545DOD     C123454  23.218   1.063  26.534  0.0396 -0.5896 -0.2206
26545DOD     C223455  23.272   0.857  26.093 -0.3562 -0.0701 -0.3560
26545DOD     C323456  23.475   0.842  25.632  0.2704 -0.1194 -0.3100
26546DOD     C123457  23.211  13.528  17.886  0.0473 -0.0102 -0.1391
26546DOD     C223458  23.063  13.143  17.955  0.1222 -0.0902  0.1289
26546DOD     C323459  22.777  12.807  18.174  0.2536  0.0953 -0.3465
26547DOD     C123460   8.131  26.589  18.932  0.0704 -0.3762  0.3220
26547DOD     C223461   8.403  26.878  19.131 -0.3032  0.0754  0.2014
26547DOD     C323462   8.821  26.960  19.346  0.0413 -0.0643 -0.1866
26548DOD     C123463  26.076  29.572   1.962 -0.3807 -0.0502 -0.0477
26548DOD     C223464  26.292  29.318   1.650 -0.3872  0.1807  0.0433
26548DOD     C323465  26.419  28.964   1.994  0.0420  0.0672 -0.1976
26549DOD     C123466  27.360   1.778   6.215 -0.0556 -0.0548 -0.0578
26549DOD     C223467  27.449   1.435   5.918 -0.0924 -0.0844  0.0798
26549DOD     C323468  27.414   1.067   5.673  0.0908  0.1103 -0.3707
26550DOD     C123469  10.034  19.507  11.702 -0.0990  0.0279  0.3261
26550DOD     C223470  10.147  19.251  12.077 -0.4187 -0.1124  0.2054
26550DOD     C323471  10.543  19.025  12.245  0.2943  0.2021  0.1373
26551DOD     C123472   3.504  16.860   9.915  0.2307  0.2173  0.3734
26551DOD     C223473   3.926  17.021   9.670  0.0486  0.2876  0.1004
26551DOD     C323474   4.250  17.066   9.389 -0.1455  0.0326  0.0902
26552DOD     C123475  21.391  12.262   6.994  0.5333  0.2850 -0.1995
26552DOD     C223476  21.369  12.104   7.425 -0.2614  0.2130 -0.0254
26552DOD     C323477  21.603  11.836   7.721 -0.2672  0.0145 -0.0434
26553DOD     C123478  13.650   4.458   8.690  0.1652 -0.3813  0.0210
26553DOD     C223479  13.983   4.677   8.420 -0.1274 -0.0679 -0.0056
26553DOD     C323480  14.343   4.969   8.375 -0.0585  0.1771 -0.1974
26554DOD     C123481  17.663  15.626  19.879  0.3553 -0.1940  0.2929
26554DOD     C223482  17.737  15.200  19.714 -0.0770 -0.1874 -0.2986
26554DOD     C323483  17.980  14.983  19.409  0.1097  0.0414 -0.1392
26555DOD     C123484  28.882   7.547  28.359  0.3098 -0.2974 -0.1693
26555DOD     C223485  29.094   7.695  28.767  0.0177  0.1878  0.0078
26555DOD     C323486  29.260   7.679  29.243 -0.3440 -0.3189 -0.1218
26556DOD     C123487   1.530  11.487  15.406  0.0138  0.0258  0.0169
26556DOD     C223488   1.664  11.998  15.425 -0.0950  0.0056  0.3813
26556DOD     C323489   1.698  12.468  15.422 -0.2333  0.2143  0.0837
26557DOD     C123490  20.824  16.281  27.707  0.2134 -0.0290  0.3620
26557DOD     C223491  20.870  15.923  27.454 -0.4011  0.0424  0.1251
26557DOD     C323492  21.132  15.598  27.262  0.0246 -0.0102 -0.2271
26558DOD     C123493  14.067  28.787  21.392  0.1793 -0.0276  0.0885
26558DOD     C223494  13.789  29.048  21.141  0.0447  0.2375  0.2111
26558DOD     C323495  13.420  29.061  20.888  0.2734 -0.1521  0.1730
26559DOD     C123496  22.289  10.367  15.105 -0.0290  0.0559 -0.0233
26559DOD     C223497  22.565  10.544  14.769  0.1913  0.2319  0.1190
26559DOD     C323498  22.689  10.326  14.360 -0.0934  0.4047 -0.4761
26560DOD     C123499   2.800  12.536  24.420  0.0271 -0.1110 -0.1468
26560DOD     C223500   2.510  12.815  24.561  0.0210 -0.0302 -0.1033
26560DOD     C323501   2.184  13.082  24.760  0.1683 -0.1458  0.2536
26561DOD     C123502  22.540  18.515  10.786 -0.1316  0.0515 -0.0996
26561DOD     C223503  22.953  18.294  10.665 -0.2310 -0.1791 -0.0231
26561DOD     C323504  23.398  18.205  10.540 -0.0996  0.1209 -0.0618
26562DOD     C123505   2.758  22.694   6.036  0.1105  0.0425  0.3765
26562DOD     C223506   2.797  22.360   6.386  0.0087  0.0858  0.1388
26562DOD     C323507   2.577  21.946   6.474 -0.0655 -0.2642  0.1152
26563DOD     C123508  21.711   7.082  30.352 -0.0257 -0.0117  0.1935
26563DOD     C223509  21.706   7.252  29.903 -0.1677  0.1797  0.2874
26563DOD     C323510  21.832   7.470  29.506  0.2967  0.1094  0.4989
26564DOD     C123511   8.361   7.857  25.677 -0.0026 -0.1531 -0.1566
26564DOD     C223512   8.042   8.218  25.503 -0.0185  0.0425 -0.1029
26564DOD     C323513   7.541   8.316  25.522  0.1318  0.0660  0.2806
26565DOD     C123514  25.746  22.423   5.303 -0.1502  0.0907  0.1041
26565DOD     C223515  25.475  22.001   5.341 -0.0984  0.1634  0.1922
26565DOD     C323516  25.037  21.868   5.476 -0.0039  0.0856 -0.2426
26566DOD     C123517   5.802  18.819   9.228 -0.0642  0.3594 -0.3144
26566DOD     C223518   5.863  18.528   8.904 -0.1240 -0.1006 -0.2938
26566DOD     C323519   6.011  18.165   8.676 -0.0286  0.1032  0.3286
26567DOD     C123520  19.308   1.775  21.544 -0.2454  0.1280  0.0557
26567DOD     C223521  19.214   1.375  21.358 -0.2626  0.0836 -0.0111
26567DOD     C323522  18.982   1.045  21.505  0.1214  0.2521 -0.4293
26568DOD     C123523   1.334  25.440  11.335 -0.1228 -0.0086 -0.2678
26568DOD     C223524   1.168  25.079  11.148  0.0972 -0.0160 -0.0268
26568DOD     C323525   1.419  24.780  10.896  0.0222 -0.3373  0.1332
26569DOD     C123526   3.214   7.446   3.531 -0.0168  0.3255 -0.0519
26569DOD     C223527   2.833   7.603   3.745 -0.1368 -0.0081 -0.1984
26569DOD     C323528   2.614   7.474   4.153  0.0921 -0.1764  0.2574
26570DOD     C123529  19.151  22.180   8.715  0.0417  0.0261  0.0659
26570DOD     C223530  18.786  22.413   8.888  0.1004  0.0552  0.2502
26570DOD     C323531  18.514  22.783   8.754  0.2060 -0.0298 -0.0573
26571DOD     C123532   4.830  12.913  23.480 -0.0658  0.0732  0.5196
26571DOD     C223533   4.507  12.634  23.282  0.1331  0.1764 -0.2056
26571DOD     C323534   4.112  12.608  23.112 -0.2856  0.2004 -0.1371
26572DOD     C123535  20.549   5.910  12.509  0.0738 -0.1141 -0.0895
26572DOD     C223536  20.385   5.487  12.477  0.2068 -0.4241 -0.2490
26572DOD     C323537  20.362   5.083  12.661  0.2154  0.1564  0.0335
26573DOD     C123538   7.185  29.958  29.612  0.2234 -0.2811 -0.0510
26573DOD     C223539   7.383  29.879  29.171  0.1548 -0.0746 -0.2747
26573DOD     C323540   7.358  29.663  28.756 -0.0648  0.0640  0.2018
26574DOD     C123541  28.426  29.517   7.727  0.0218  0.1032  0.0809
26574DOD     C223542  28.019  29.398   7.703 -0.2660  0.1624  0.1549
26574DOD     C323543  27.761  29.015   7.939  0.2208  0.0683 -0.0880
26575DOD     C123544   1.809   0.740  12.544  0.2012  0.0936  0.3359
26575DOD     C223545   1.612   1.118  12.663  0.1947 -0.0333  0.2062
26575DOD     C323546   1.766   1.466  12.834  0.1292 -0.1826  0.1043
26576DOD     C123547   1.309   2.540  16.923 -0.1767  0.1104 -0.3929
26576DOD     C223548   0.955   2.425  16.618  0.0182 -0.0063 -0.0375
26576DOD     C323549   0.459   2.531  16.714  0.1681 -0.0933  0.1131
26577DOD     C123550  27.964  30.074   9.353  0.3103 -0.4016 -0.1047
26577DOD     C223551  28.089  29.878   9.780 -0.3366 -0.2116  0.2964
26577DOD     C323552  28.236  29.755  10.188 -0.1769  0.0101  0.0055
26578DOD     C123553   7.640   7.854  16.306 -0.0492  0.1250 -0.2196
26578DOD     C223554   7.287   8.052  16.508 -0.1179 -0.1687  0.0695
26578DOD     C323555   7.251   8.338  16.890 -0.1908 -0.3399 -0.0603
26579DOD     C123556  26.991   8.488  10.744 -0.0634  0.1884  0.0440
26579DOD     C223557  26.497   8.486  10.757 -0.1620 -0.0950 -0.0640
26579DOD     C323558  26.233   8.148  10.575  0.2103  0.1424 -0.0711
26580DOD     C123559   8.642  29.698   7.862  0.1786 -0.2554  0.1134
26580DOD     C223560   9.005  29.814   8.138 -0.0288  0.1170 -0.0804
26580DOD     C323561   9.334  30.089   8.117 -0.1440 -0.1801  0.2452
26581DOD     C123562  30.014  20.262  24.316  0.0115 -0.1504 -0.0739
26581DOD     C223563  29.991  19.827  24.464 -0.0495  0.1849  0.1710
26581DOD     C323564  29.817  19.489  24.745  0.1005 -0.0672 -0.1611
26582DOD     C123565  24.826  21.642   5.072  0.0855 -0.0892 -0.0131
26582DOD     C223566  24.461  21.533   4.821  0.0227 -0.1605  0.2748
26582DOD     C323567  24.029  21.579   4.739  0.4424  0.1865  0.2905
26583DOD     C123568  16.049  12.986  21.291 -0.1748 -0.2591 -0.4705
26583DOD     C223569  16.262  13.336  21.553 -0.2405 -0.0934  0.0266
26583DOD     C323570  16.094  13.542  21.889 -0.1131  0.1231  0.0446
26584DOD     C123571  17.294  13.242   0.067  0.1063 -0.0577  0.1118
26584DOD     C223572  16.962  13.196   0.332 -0.1103 -0.1907 -0.0173
26584DOD     C323573  16.496  13.370   0.395 -0.0973  0.1257  0.2864
26585DOD     C123574  28.024  11.713  22.438 -0.0923  0.2144 -0.1637
26585DOD     C223575  27.844  11.983  22.806  0.1900 -0.2144  0.1860
26585DOD     C323576  27.894  12.207  23.147  0.1303  0.2543 -0.0494
26586DOD     C123577  14.860  23.904  17.308 -0.1348 -0.0202 -0.1001
26586DOD     C223578  14.689  23.605  17.585  0.3557  0.0030 -0.0862
26586DOD     C323579  14.508  23.380  17.922 -0.3984 -0.0858  0.0574
26587DOD     C123580  22.187   8.694   1.812  0.1378  0.2309 -0.3207
26587DOD     C223581  21.901   8.458   1.542 -0.2449 -0.1633  0.1684
26587DOD     C323582  21.891   7.974   1.454  0.1333  0.1051  0.1910
26588DOD     C123583   6.244  20.185  15.224 -0.0076  0.3035 -0.2052
26588DOD     C223584   6.528  20.530  15.351  0.0584 -0.0982 -0.0833
26588DOD     C323585   6.970  20.547  15.425 -0.0954  0.0202  0.3305
26589DOD     C123586  12.073  22.252   2.864  0.0960 -0.0896 -0.1475
26589DOD     C223587  12.206  22.718   2.688 -0.2831  0.0767 -0.1564
26589DOD     C323588  12.002  22.904   2.358  0.1550  0.0561 -0.0891
26590DOD     C123589   7.303  23.622   1.588  0.1265  0.0647 -0.0251
26590DOD     C223590   7.636  23.582   1.196 -0.1312  0.0719 -0.3494
26590DOD     C323591   7.755  23.929   0.860  0.2128 -0.0313  0.3302
26591DOD     C123592  16.988  17.956  13.810 -0.0577  0.1318 -0.0127
26591DOD     C223593  17.368  18.123  13.735  0.3435  0.0802  0.1614
26591DOD     C323594  17.740  18.000  13.414  0.2831  0.2120 -0.1467
26592DOD     C123595  17.771  23.293   7.086  0.0241 -0.0211 -0.0333
26592DOD     C223596  17.702  23.224   6.589 -0.6224  0.1130 -0.1477
26592DOD     C323597  17.586  22.986   6.205  0.1184 -0.1520  0.1579
26593DOD     C123598  10.765  25.306   5.014  0.0461  0.3524 -0.2263
26593DOD     C223599  10.641  24.907   5.219  0.1838  0.2302  0.2350
26593DOD     C323600  10.580  24.437   5.173  0.0627 -0.4586 -0.1231
26594DOD     C123601  22.908  28.784  17.159 -0.3744 -0.0317 -0.2642
26594DOD     C223602  22.855  29.122  16.801  0.0094  0.0500  0.4433
26594DOD     C323603  22.585  28.962  16.434  0.2702  0.0229 -0.1627
26595DOD     C123604  21.366  16.067  22.068 -0.1004 -0.1716 -0.0683
26595DOD     C223605  21.173  16.183  21.720 -0.1081 -0.1181  0.1160
26595DOD     C323606  20.990  16.204  21.294 -0.1278 -0.2200 -0.4989
26596DOD     C123607  18.359  29.322  24.932 -0.0040  0.0123  0.0265
26596DOD     C223608  18.397  29.743  25.177  0.2399 -0.1110  0.1026
26596DOD     C323609  18.577  30.140  25.165  0.0464 -0.2071 -0.2714
26597DOD     C123610  19.462  12.893   1.974  0.0029  0.2375 -0.4703
26597DOD     C223611  19.456  12.531   2.298  0.3735 -0.0128  0.0103
26597DOD     C323612  19.197  12.126   2.323  0.2059 -0.1459 -0.1915
26598DOD     C123613  14.690  28.926   6.431  0.1843  0.0390  0.0716
26598DOD     C223614  14.595  29.380   6.342 -0.0110 -0.3481  0.0522
26598DOD     C323615  14.517  29.587   5.996  0.2404  0.2380  0.3921
26599DOD     C123616  24.198  19.209   5.032  0.0493  0.0626  0.1416
26599DOD     C223617  24.592  18.962   4.995 -0.0686 -0.0002  0.0722
26599DOD     C323618  24.827  18.557   5.022 -0.1924 -0.2288  0.1908
26600DOD     C123619   3.317  19.272   3.756  0.2470  0.0139  0.0883
26600DOD     C223620   3.487  18.867   3.839 -0.1598  0.1482  0.1959
26600DOD     C323621   3.624  18.429   3.813  0.0183 -0.0116 -0.3130
26601DOD     C123622  19.169   4.335  11.151  0.3575  0.1685  0.1243
26601DOD     C223623  19.608   4.475  11.345  0.0557 -0.3573 -0.2577
26601DOD     C323624  19.498   4.789  11.669 -0.1143 -0.0764  0.0580
26602DOD     C123625  10.534   2.930  10.820  0.0096 -0.1233 -0.1908
26602DOD     C223626  10.403   3.220  10.459  0.0561 -0.2267 -0.1161
26602DOD     C323627  10.394   3.170   9.918 -0.3790  0.0030 -0.2180
26603DOD     C123628   4.576  21.397  24.772 -0.1608 -0.0757 -0.0900
26603DOD     C223629   4.147  21.542  24.655  0.1498 -0.1030 -0.0979
26603DOD     C323630   3.990  21.858  24.339  0.0806  0.0026  0.0338
26604DOD     C123631   0.544  12.845  19.010  0.0025  0.2953 -0.0732
26604DOD     C223632   0.359  12.457  19.105 -0.0974  0.2387 -0.3237
26604DOD     C323633   0.139  12.191  18.798  0.2945  0.2339  0.0756
26605DOD     C123634  13.249  20.884  16.771 -0.2849  0.1033  0.1983
26605DOD     C223635  12.857  20.952  17.099  0.3892  0.0344 -0.0351
26605DOD     C323636  12.514  20.676  17.293 -0.0424 -0.0599 -0.1444
26606DOD     C123637  16.663   7.170   9.104  0.0245  0.1569  0.1854
26606DOD     C223638  16.611   7.270   8.646 -0.0134  0.2740 -0.1430
26606DOD     C323639  16.645   7.698   8.438  0.0892  0.1260 -0.3133
26607DOD     C123640  25.877   7.148  12.899  0.0586  0.0702  0.3220
26607DOD     C223641  25.981   7.584  12.751  0.0690  0.1949  0.0064
26607DOD     C323642  26.163   8.013  12.542 -0.0191 -0.0077 -0.2327
26608DOD     C123643  28.389  25.783   3.864  0.0409  0.0340 -0.0006
26608DOD     C223644  28.156  25.403   3.913  0.1202 -0.2610  0.1216
26608DOD     C323645  27.884  25.227   4.263  0.0204  0.4199 -0.1058
26609DOD     C123646  27.210   7.273   7.451 -0.0963 -0.2099 -0.2425
26609DOD     C223647  27.282   7.362   7.866  0.0378 -0.2133  0.0986
26609DOD     C323648  27.159   7.171   8.225 -0.0960 -0.2310 -0.1249
26610DOD     C123649   7.015  30.309  19.950 -0.0588  0.4579  0.1726
26610DOD     C223650   6.941   0.409  19.762  0.1172  0.0216  0.2379
26610DOD     C323651   7.021   0.937  19.778 -0.0881  0.0037  0.2145
26611DOD     C123652  17.994  29.694  24.775  0.1089 -0.0172 -0.2004
26611DOD     C223653  17.885  29.691  25.206 -0.1286 -0.0868 -0.0821
26611DOD     C323654  17.580  29.631  25.564 -0.0110  0.1001 -0.0392
26612DOD     C123655  29.730  14.371  17.126 -0.1562 -0.1664 -0.1320
26612DOD     C223656  29.757  14.005  16.970  0.2899 -0.2190 -0.2789
26612DOD     C323657  30.093  13.885  16.678 -0.3240  0.1409 -0.2656
26613DOD     C123658   4.568   5.897   3.190 -0.1515 -0.2416  0.4540
26613DOD     C223659   4.567   5.456   3.129 -0.3760  0.0828  0.0245
26613DOD     C323660   4.883   5.270   2.889  0.0211 -0.0430 -0.4083
26614DOD     C123661  10.223   0.719  15.903 -0.1334  0.0469  0.1168
26614DOD     C223662  10.599   0.477  16.154  0.1006 -0.0537 -0.3639
26614DOD     C323663  10.973   0.238  16.158 -0.1645  0.3176  0.0758
26615DOD     C123664   1.919   6.283  24.777  0.0179 -0.1593 -0.0707
26615DOD     C223665   2.174   5.883  24.704 -0.1195 -0.0429 -0.0772
26615DOD     C323666   2.460   5.485  24.579 -0.1050  0.1578 -0.1452
26616DOD     C123667  18.714  26.858   9.359  0.0813 -0.1066  0.1400
26616DOD     C223668  18.437  26.855   9.750 -0.1314  0.1341 -0.0391
26616DOD     C323669  17.980  26.923   9.822 -0.0901 -0.1135 -0.1182
26617DOD     C123670  20.456  21.459   9.887  0.1752  0.0733  0.1804
26617DOD     C223671  20.532  21.236   9.479 -0.2265  0.2447  0.1914
26617DOD     C323672  20.230  21.111   9.119 -0.0850  0.0013 -0.0444
26618DOD     C123673   3.812  16.549  24.170  0.0484  0.1130  0.1529
26618DOD     C223674   3.415  16.305  23.980  0.4193  0.0407 -0.3992
26618DOD     C323675   3.024  16.325  23.740 -0.3600  0.0570 -0.1175
26619DOD     C123676  29.078   4.539  14.923  0.0290  0.2426  0.2314
26619DOD     C223677  29.409   4.269  14.964  0.0548  0.0805 -0.1863
26619DOD     C323678  29.348   3.972  15.332  0.2555  0.0440  0.0666
26620DOD     C123679   7.646  12.273  25.548 -0.0815 -0.2999  0.1256
26620DOD     C223680   7.491  11.867  25.705  0.1478 -0.1355 -0.1786
26620DOD     C323681   7.398  11.449  25.442 -0.0304  0.2665 -0.0702
26621DOD     C123682   2.158  19.211   1.908  0.1383  0.0800 -0.0654
26621DOD     C223683   2.088  19.033   2.269 -0.0825 -0.0390 -0.2075
26621DOD     C323684   1.942  19.177   2.726 -0.0075  0.0595 -0.3925
26622DOD     C123685   6.561  18.715  12.604 -0.0200 -0.1120 -0.2304
26622DOD     C223686   6.316  18.585  12.259  0.2350  0.2572  0.2610
26622DOD     C323687   6.333  18.506  11.820 -0.1081  0.1250 -0.1704
26623DOD     C123688   1.959  15.084  19.355 -0.2361  0.0684 -0.1408
26623DOD     C223689   1.535  14.916  19.245 -0.0930  0.0232  0.1964
26623DOD     C323690   1.194  14.654  19.317  0.0780  0.1962  0.0418
26624DOD     C123691  26.146   6.309  13.491 -0.1156  0.3548 -0.1147
26624DOD     C223692  25.861   6.623  13.689  0.0230  0.2009  0.2096
26624DOD     C323693  25.671   6.956  14.002  0.1619 -0.1221  0.0712
26625DOD     C123694   0.939  22.680  12.656  0.2807 -0.0534  0.3410
26625DOD     C223695   1.396  22.606  12.769 -0.0852  0.3055  0.0600
26625DOD     C323696   1.689  22.387  13.027  0.2447  0.2277  0.0746
26626DOD     C123697  29.740  14.626  30.042  0.1324  0.3327  0.0842
26626DOD     C223698  30.013  14.893  29.847  0.1364  0.1186 -0.0533
26626DOD     C323699  30.231  15.312  29.765 -0.0653 -0.0304  0.0147
26627DOD     C123700   1.706   3.264  21.616  0.1239  0.1614  0.0059
26627DOD     C223701   1.707   3.148  21.130 -0.3394 -0.1482 -0.1214
26627DOD     C323702   1.793   2.932  20.683  0.2835 -0.0208  0.0175
26628DOD     C123703  29.665   0.199   3.984 -0.5964 -0.2114  0.2249
26628DOD     C223704  30.037  30.230   4.022  0.0807  0.0021 -0.1858
26628DOD     C323705   0.028  29.998   4.279 -0.2031 -0.0563 -0.0348
26629DOD     C123706  18.692  21.371  29.061  0.1140 -0.0958 -0.0968
26629DOD     C223707  18.808  21.480  28.584 -0.0688 -0.2624 -0.2022
26629DOD     C323708  18.773  21.406  28.114  0.1093  0.0565  0.0689
26630DOD     C123709  15.530   4.370  13.005  0.4637  0.2372 -0.1057
26630DOD     C223710  15.511   4.093  12.633 -0.0254 -0.3654  0.0772
26630DOD     C323711  15.511   3.932  12.182  0.0626  0.0139 -0.0276
26631DOD     C123712  27.474  23.847  21.979  0.0189  0.0952  0.0819
26631DOD     C223713  27.288  23.578  21.655  0.2278 -0.0386 -0.1319
26631DOD     C323714  27.199  23.150  21.422 -0.1065  0.1033 -0.1647
26632DOD     C123715   4.914   2.673   7.123  0.5176  0.2136 -0.0866
26632DOD     C223716   4.773   3.012   6.808  0.1120  0.3517 -0.2789
26632DOD     C323717   4.485   3.367   6.751  0.1943  0.1467 -0.1613
26633DOD     C123718  17.652  28.465  24.570  0.1514  0.0919 -0.1841
26633DOD     C223719  17.622  28.660  24.998 -0.0462  0.0279 -0.0821
26633DOD     C323720  17.689  28.746  25.410  0.3599  0.1784  0.3412
26634DOD     C123721  12.470  21.549   8.007 -0.2265  0.0566 -0.0031
26634DOD     C223722  12.389  21.088   7.867  0.0896 -0.2047  0.0116
26634DOD     C323723  12.212  20.693   8.100  0.1778 -0.1074  0.0846
26635DOD     C123724  26.212   8.330  28.660  0.2174 -0.1130 -0.2242
26635DOD     C223725  25.933   8.060  28.922  0.0412  0.1748  0.0265
26635DOD     C323726  25.753   7.683  29.154 -0.2711  0.0250 -0.0588
26636DOD     C123727  21.163  11.329  27.489 -0.0746 -0.1294  0.1592
26636DOD     C223728  21.183  11.762  27.764  0.0510 -0.0678 -0.0244
26636DOD     C323729  20.924  11.832  28.143  0.2322  0.0722  0.0756
26637DOD     C123730  17.750   9.289  15.453  0.1102 -0.3439 -0.1348
26637DOD     C223731  17.776   9.705  15.345  0.1840  0.1849 -0.3289
26637DOD     C323732  17.557   9.986  15.110  0.1369  0.2203  0.0183
26638DOD     C123733  28.370   1.180  24.295 -0.0380  0.0591  0.0654
26638DOD     C223734  28.164   0.884  24.685  0.1274  0.2353  0.3591
26638DOD     C323735  27.860   0.621  24.918 -0.3465  0.0651  0.1975
26639DOD     C123736  20.722   8.161  16.431  0.0581 -0.1049  0.1289
26639DOD     C223737  20.624   7.766  16.676 -0.0854  0.1296 -0.0717
26639DOD     C323738  20.675   7.294  16.837 -0.1257  0.1564  0.0633
26640DOD     C123739  13.583  21.141   0.946 -0.0834 -0.2112  0.2234
26640DOD     C223740  13.166  21.260   0.881  0.1177  0.1337  0.2270
26640DOD     C323741  12.763  21.044   0.899  0.2950  0.3090  0.3372
26641DOD     C123742  25.393   6.769  22.036  0.0092  0.3362  0.0727
26641DOD     C223743  24.988   6.649  21.839 -0.0745 -0.1135 -0.2435
26641DOD     C323744  24.568   6.689  22.059  0.1498  0.1614 -0.0842
26642DOD     C123745  20.960   8.318   3.995 -0.1529  0.0286 -0.0610
26642DOD     C223746  21.111   8.754   3.890  0.0477  0.0921  0.0641
26642DOD     C323747  21.441   8.830   3.545 -0.2945  0.0981  0.1558
26643DOD     C123748  15.329  19.950   1.892 -0.4327 -0.1648  0.0641
26643DOD     C223749  14.976  19.834   2.162 -0.0999  0.0054  0.3714
26643DOD     C323750  14.810  19.453   2.329  0.1938 -0.0302  0.2931
26644DOD     C123751  21.417  25.771  18.667  0.1639 -0.3245  0.0651
26644DOD     C223752  21.195  25.572  19.043 -0.1834 -0.0009 -0.0003
26644DOD     C323753  21.038  25.599  19.522 -0.1874 -0.1339 -0.4394
26645DOD     C123754   5.228  28.248  10.772 -0.2555  0.0870 -0.0518
26645DOD     C223755   5.381  28.639  10.660  0.1474  0.1310 -0.1225
26645DOD     C323756   5.546  29.054  10.406 -0.1063  0.3825  0.3243
26646DOD     C123757  20.769  11.837  23.232 -0.2600  0.2844 -0.0359
26646DOD     C223758  21.122  11.722  23.013 -0.1019  0.1248  0.1986
26646DOD     C323759  21.232  11.503  22.645 -0.0932  0.3609  0.1154
26647DOD     C123760   9.360   5.210  27.739  0.1139  0.0696 -0.1284
26647DOD     C223761   8.936   5.322  27.972 -0.1726 -0.2094 -0.2847
26647DOD     C323762   8.578   5.374  28.293  0.0627  0.1052  0.0319
26648DOD     C123763  16.179  25.819  28.521  0.0452 -0.3403 -0.0011
26648DOD     C223764  15.957  25.536  28.312  0.2487 -0.1993 -0.0989
26648DOD     C323765  15.524  25.565  28.467 -0.0736  0.1128  0.2932
26649DOD     C123766  16.862  24.532  27.964 -0.1367 -0.1469  0.1702
26649DOD     C223767  16.810  24.122  27.724  0.1010  0.0939 -0.0634
26649DOD     C323768  17.012  23.760  27.436 -0.1581  0.3316  0.1352
26650DOD     C123769  11.984   7.440  26.547 -0.0453  0.2272 -0.0802
26650DOD     C223770  11.896   7.902  26.567 -0.2525  0.0346  0.1363
26650DOD     C323771  11.902   8.321  26.380 -0.1740 -0.1980 -0.0424
26651DOD     C123772   3.806   5.225  10.012  0.1307  0.0473  0.0262
26651DOD     C223773   4.327   5.158   9.898 -0.1132  0.0686  0.0530
26651DOD     C323774   4.692   4.914   9.783 -0.2405  0.1925 -0.1130
26652DOD     C123775   2.130  13.399  12.573  0.0293  0.0189 -0.0086
26652DOD     C223776   1.931  13.690  12.877 -0.0041 -0.0570 -0.0893
26652DOD     C323777   1.829  13.851  13.342  0.0578  0.1014  0.2282
26653DOD     C123778  26.184  18.039  22.501 -0.2384  0.0126 -0.0781
26653DOD     C223779  26.270  18.486  22.471  0.1756 -0.1448 -0.4643
26653DOD     C323780  26.072  18.849  22.705 -0.1172 -0.1864  0.1651
26654DOD     C123781   7.206  21.472  27.760 -0.1323  0.1034 -0.0963
26654DOD     C223782   6.942  21.615  27.423  0.0796 -0.0040 -0.0611
26654DOD     C323783   6.759  21.375  27.072 -0.0754 -0.0408 -0.0218
26655DOD     C123784   7.223  24.645   2.200 -0.1514  0.2594 -0.0120
26655DOD     C223785   6.759  24.780   2.247 -0.0652 -0.0627  0.2214
26655DOD     C323786   6.329  24.611   2.265  0.0259 -0.1417  0.3597
26656DOD     C123787   2.715  20.854  16.553  0.0251 -0.1967  0.2044
26656DOD     C223788   2.804  21.330  16.594  0.0834  0.4453  0.0914
26656DOD     C323789   2.609  21.483  16.185 -0.1854 -0.0888  0.1867
26657DOD     C123790   6.196  25.740  21.076  0.1225  0.2524  0.0585
26657DOD     C223791   6.380  25.427  21.371  0.2606 -0.2104 -0.2757
26657DOD     C323792   6.475  25.290  21.798  0.0283  0.0587 -0.1156
26658DOD     C123793  29.029  10.725  23.675  0.0583  0.0162 -0.0875
26658DOD     C223794  28.918  11.130  23.909 -0.0962  0.2187  0.0446
26658DOD     C323795  28.818  11.541  23.801 -0.0461  0.0013 -0.2957
26659DOD     C123796  12.259   7.027  16.436 -0.0673  0.1150  0.3426
26659DOD     C223797  12.534   7.373  16.586 -0.3192 -0.0861 -0.0024
26659DOD     C323798  12.858   7.442  16.894  0.0038  0.0778 -0.0972
26660DOD     C123799  13.744  21.755  13.227 -0.1427  0.1536  0.1342
26660DOD     C223800  13.461  21.631  12.900 -0.1427  0.0756  0.2678
26660DOD     C323801  13.103  21.533  12.651  0.1628  0.0732 -0.0254
26661DOD     C123802   1.815  26.589  19.127 -0.2371  0.0935  0.2482
26661DOD     C223803   2.004  26.657  19.547  0.1933 -0.1122  0.3019
26661DOD     C323804   2.416  26.556  19.770  0.0752  0.0202 -0.1382
26662DOD     C123805   0.587  27.144  29.512  0.1332 -0.0150 -0.2325
26662DOD     C223806   0.321  26.818  29.619  0.0014 -0.1990  0.4051
26662DOD     C323807  30.190  26.820  29.605  0.1225 -0.2383  0.0761
26663DOD     C123808   3.177  25.186  29.107  0.0211  0.1087 -0.2261
26663DOD     C223809   3.503  25.342  28.813 -0.2016  0.1443 -0.1912
26663DOD     C323810   3.790  25.656  28.600 -0.0977 -0.0670 -0.0324
26664DOD     C123811  17.863  27.887  19.609 -0.3711 -0.1170  0.0545
26664DOD     C223812  17.914  28.360  19.658  0.1634  0.2332  0.0708
26664DOD     C323813  17.829  28.835  19.665 -0.0357 -0.1798  0.0818
26665DOD     C123814   0.154  29.284   0.614 -0.0185  0.1194  0.0220
26665DOD     C223815   0.474  29.482   0.851 -0.4746 -0.1484  0.3307
26665DOD     C323816   0.478  29.773   1.194 -0.0407 -0.0007  0.2258
26666DOD     C123817  13.228  22.885  25.058  0.3105  0.1943  0.0225
26666DOD     C223818  13.120  23.283  25.254  0.3260 -0.1371  0.0376
26666DOD     C323819  12.845  23.652  25.436  0.2602  0.1885 -0.0086
26667DOD     C123820  17.806   1.949  25.364  0.0306  0.0727  0.0296
26667DOD     C223821  17.832   1.475  25.386 -0.3436 -0.1396 -0.2014
26667DOD     C323822  17.677   1.003  25.235  0.0224 -0.0122 -0.1753
26668DOD     C123823  22.814  24.121  16.184 -0.1589  0.0378  0.1801
26668DOD     C223824  23.032  23.730  16.362 -0.2951  0.0537 -0.1726
26668DOD     C323825  22.936  23.369  16.600 -0.0814 -0.0506  0.1164
26669DOD     C123826  19.847  19.266   6.706  0.2450  0.0869 -0.0585
26669DOD     C223827  19.899  19.211   6.242 -0.0262 -0.2404 -0.3092
26669DOD     C323828  20.197  19.462   6.017  0.0393 -0.4106  0.0454
26670DOD     C123829  18.311  21.544   4.754 -0.0130 -0.0344  0.2374
26670DOD     C223830  18.602  21.356   5.071  0.2311  0.0884  0.2971
26670DOD     C323831  19.017  21.573   5.243  0.2446 -0.2519  0.2273
26671DOD     C123832  22.430   4.757  10.257  0.0499  0.0163 -0.1133
26671DOD     C223833  22.073   4.448  10.161 -0.0821  0.1274 -0.3322
26671DOD     C323834  21.873   3.994  10.185 -0.1539  0.0430  0.2426
26672DOD     C123835  24.492   1.889  28.315  0.0675  0.1833  0.1124
26672DOD     C223836  24.339   1.839  28.743 -0.0400 -0.1591 -0.0077
26672DOD     C323837  24.330   1.733  29.194  0.0260  0.0537 -0.1977
26673DOD     C123838   1.148  24.897  11.631  0.0540  0.0679 -0.0540
26673DOD     C223839   1.389  24.529  11.510 -0.3592  0.2418 -0.1124
26673DOD     C323840   1.552  24.122  11.773  0.1736 -0.1643 -0.1766
26674DOD     C123841  14.335   8.304  22.180 -0.2959 -0.1844 -0.0808
26674DOD     C223842  14.531   8.015  22.490 -0.0910  0.0269 -0.0267
26674DOD     C323843  14.581   7.539  22.490  0.0844 -0.1453 -0.0974
26675DOD     C123844  19.367   7.451   2.361  0.1535  0.0991 -0.2122
26675DOD     C223845  19.717   7.530   2.064 -0.2941 -0.2125  0.4047
26675DOD     C323846  20.089   7.803   2.082  0.2498 -0.0368 -0.0904
26676DOD     C123847   6.385   5.642   5.128  0.0161  0.4095 -0.0126
26676DOD     C223848   6.526   5.241   5.360 -0.1225  0.2564 -0.3012
26676DOD     C323849   6.489   4.821   5.574 -0.2278 -0.2765  0.0959
26677DOD     C123850  28.835  17.916  30.137  0.1235 -0.3740 -0.1366
26677DOD     C223851  28.881  17.453  30.138 -0.0431  0.1904  0.2227
26677DOD     C323852  29.198  17.142  30.019  0.0843 -0.0854 -0.1487
26678DOD     C123853  18.260   3.451   8.152 -0.1973  0.4460 -0.2161
26678DOD     C223854  18.461   3.386   7.734  0.2521  0.1149  0.0089
26678DOD     C323855  18.573   3.387   7.267  0.0680  0.4252 -0.0908
26679DOD     C123856  25.889  27.005  27.439 -0.1450 -0.1190  0.2249
26679DOD     C223857  26.200  26.971  27.079 -0.0596 -0.1841 -0.0973
26679DOD     C323858  26.362  26.660  26.709 -0.2561  0.2082  0.1408
26680DOD     C123859  19.259   0.195   7.657 -0.3826  0.1283  0.2012
26680DOD     C223860  19.276   0.364   8.085  0.1026 -0.0902 -0.3773
26680DOD     C323861  18.904   0.391   8.346 -0.1381 -0.1478  0.0804
26681DOD     C123862  26.867  16.528   5.501  0.1515 -0.0207 -0.3257
26681DOD     C223863  26.744  16.952   5.683 -0.3250 -0.1955 -0.2431
26681DOD     C323864  26.523  17.386   5.801 -0.1160 -0.1275  0.2934
26682DOD     C123865   3.470  17.776  24.947  0.3570 -0.0759  0.2169
26682DOD     C223866   3.120  17.990  24.800  0.3842  0.0623  0.0715
26682DOD     C323867   2.933  18.287  24.506  0.3446 -0.3578  0.1567
26683DOD     C123868   5.225  11.751   4.866 -0.2851 -0.0469  0.0240
26683DOD     C223869   5.317  12.010   4.467  0.0182  0.0059  0.2826
26683DOD     C323870   5.243  12.409   4.128 -0.2260 -0.2318 -0.4414
26684DOD     C123871  20.154  24.273   2.139  0.0831 -0.0436 -0.1189
26684DOD     C223872  19.948  24.650   2.250  0.1492 -0.0078 -0.0899
26684DOD     C323873  19.558  24.682   2.459 -0.1666 -0.2443 -0.1914
26685DOD     C123874   9.922   3.584  10.502  0.0458 -0.3578 -0.2142
26685DOD     C223875  10.051   4.046  10.522 -0.0437 -0.2259  0.1619
26685DOD     C323876  10.475   4.195  10.380 -0.2028 -0.0324  0.3154
26686DOD     C123877   7.400  14.454   7.253 -0.0775 -0.2683 -0.2892
26686DOD     C223878   7.089  14.331   7.487 -0.3524 -0.1199  0.1021
26686DOD     C323879   6.660  14.215   7.584  0.0175  0.1936 -0.1708
26687DOD     C123880   3.746  20.100   9.852 -0.3239 -0.0786  0.0667
26687DOD     C223881   3.379  20.172   9.587  0.0744 -0.0540 -0.1580
26687DOD     C323882   3.031  20.069   9.304 -0.0174  0.2471 -0.1008
26688DOD     C123883  24.750   4.570  12.479 -0.1563  0.0821 -0.0889
26688DOD     C223884  25.136   4.363  12.365 -0.1326 -0.1164 -0.0746
26688DOD     C323885  25.507   4.249  12.577  0.1060 -0.2044  0.0506
26689DOD     C123886   3.537  28.921  22.431 -0.1009 -0.1256  0.0099
26689DOD     C223887   3.985  29.084  22.491 -0.1969  0.3026  0.0778
26689DOD     C323888   4.463  29.096  22.252 -0.0727 -0.0268 -0.0629
26690DOD     C123889  28.114  15.416   9.682 -0.0983  0.1130  0.0687
26690DOD     C223890  28.506  15.270   9.573 -0.0447  0.2288  0.3309
26690DOD     C323891  28.725  14.845   9.657 -0.1613 -0.1463  0.0653
26691DOD     C123892   5.140  11.639   5.420 -0.0069 -0.0283  0.1328
26691DOD     C223893   4.977  11.221   5.580 -0.2184 -0.0350  0.2598
26691DOD     C323894   4.869  10.787   5.426  0.0906  0.1593  0.0249
26692DOD     C123895   7.959  22.558  17.440 -0.0474 -0.2417 -0.1253
26692DOD     C223896   8.111  22.615  17.893  0.2314  0.1424  0.1236
26692DOD     C323897   8.278  22.418  18.322 -0.1342 -0.1183 -0.2180
26693DOD     C123898  26.969   7.188  27.791 -0.0998  0.1564  0.0847
26693DOD     C223899  26.620   7.114  27.518 -0.3524 -0.1157 -0.0578
26693DOD     C323900  26.608   6.986  27.063 -0.0098 -0.2315  0.0777
26694DOD     C123901   8.200  23.573   7.719 -0.2294  0.1638 -0.0751
26694DOD     C223902   8.434  23.230   7.598  0.0683  0.0648  0.1477
26694DOD     C323903   8.704  22.900   7.472 -0.1976 -0.0680 -0.1985
26695DOD     C123904  22.569  10.283  23.464 -0.1560 -0.1285 -0.1667
26695DOD     C223905  22.794   9.831  23.546 -0.1602  0.0592  0.1503
26695DOD     C323906  23.037   9.559  23.848 -0.0213  0.1809 -0.2831
26696DOD     C123907   3.170   3.589   8.832 -0.2332 -0.2794 -0.0124
26696DOD     C223908   3.544   3.828   8.893 -0.0489  0.0488  0.0531
26696DOD     C323909   3.889   3.884   9.178  0.1130  0.1370  0.1919
26697DOD     C123910   6.693  12.941  22.217  0.3027 -0.0139  0.0378
26697DOD     C223911   6.343  12.640  22.274  0.2437  0.1672  0.2350
26697DOD     C323912   6.171  12.278  22.541 -0.2249  0.3916 -0.0249
26698DOD     C123913   3.094   0.318  15.782  0.1350 -0.1713  0.2453
26698DOD     C223914   3.545   0.189  15.855 -0.0192  0.0850 -0.0202
26698DOD     C323915   3.992   0.174  15.898 -0.2064  0.0638 -0.0833
26699DOD     C123916  26.731   0.578  18.695 -0.1046 -0.0373 -0.0020
26699DOD     C223917  26.732   0.094  18.649 -0.4771  0.0626  0.2083
26699DOD     C323918  26.951  30.067  18.865 -0.0159 -0.2921  0.2846
26700DOD     C123919   3.692   0.310  10.852  0.1372 -0.1327  0.2962
26700DOD     C223920   3.887  30.204  10.738  0.1743 -0.0576  0.1883
26700DOD     C323921   4.337  30.053  10.757 -0.2866  0.1922  0.1450
26701DOD     C123922   4.216  18.421  13.211 -0.2692  0.0498 -0.2785
26701DOD     C223923   4.082  18.007  13.096 -0.1388  0.1062 -0.0653
26701DOD     C323924   3.684  17.719  13.178 -0.0796 -0.2172  0.0285
26702DOD     C123925  24.051  30.270  27.089 -0.1055  0.1606  0.3548
26702DOD     C223926  24.446   0.184  26.927 -0.0579 -0.2625 -0.0188
26702DOD     C323927  24.713   0.190  26.576  0.2394  0.0359  0.0570
26703DOD     C123928  11.413   1.027  15.218  0.0643 -0.1933 -0.2279
26703DOD     C223929  11.445   0.758  14.899  0.2500  0.1811  0.0364
26703DOD     C323930  11.408   0.642  14.499  0.1460 -0.2834  0.0860
26704DOD     C123931   8.525  12.779   8.723 -0.2921 -0.2867 -0.0340
26704DOD     C223932   8.994  12.817   8.787  0.2957 -0.1045  0.1759
26704DOD     C323933   9.407  12.989   8.920 -0.3065  0.1234 -0.0200
26705DOD     C123934  18.795   4.978  27.488 -0.3715  0.2393  0.2144
26705DOD     C223935  19.010   4.543  27.340 -0.2538 -0.2050 -0.0020
26705DOD     C323936  19.374   4.429  27.146 -0.2837  0.2637  0.3221
26706DOD     C123937  21.663  14.424   7.697 -0.1105  0.0360  0.0948
26706DOD     C223938  21.281  14.563   7.535 -0.1921 -0.1352  0.0133
26706DOD     C323939  21.114  14.596   7.096 -0.6110 -0.0622 -0.3183
26707DOD     C123940  21.306  16.620  13.854 -0.0321  0.0968  0.1199
26707DOD     C223941  21.474  16.237  14.006 -0.0285  0.0291  0.1275
26707DOD     C323942  21.924  16.168  14.148 -0.3003 -0.2899 -0.1457
26708DOD     C123943  20.125   7.018  22.500 -0.0939  0.0538 -0.2623
26708DOD     C223944  19.853   7.066  22.087 -0.0789  0.2337 -0.1576
26708DOD     C323945  19.661   7.238  21.707 -0.1497 -0.5097  0.3543
26709DOD     C123946  23.454  24.202  24.786 -0.0260 -0.1320  0.0037
26709DOD     C223947  23.544  24.635  24.679  0.0939 -0.0088  0.0523
26709DOD     C323948  23.856  24.842  24.403 -0.0198  0.0945  0.0231
26710DOD     C123949  26.237   0.662   9.711 -0.0356 -0.1950  0.0010
26710DOD     C223950  25.965   0.467  10.044 -0.1829 -0.0385  0.3170
26710DOD     C323951  25.606   0.539  10.299 -0.2571 -0.3187 -0.4278
26711DOD     C123952  21.790  11.398  19.632  0.2373  0.0130 -0.0430
26711DOD     C223953  22.033  11.387  19.955 -0.0810  0.1809 -0.0135
26711DOD     C323954  22.426  11.172  19.970  0.1501 -0.2377  0.1464
26712DOD     C123955  10.502  20.180   4.970  0.0762 -0.2037  0.2089
26712DOD     C223956  10.960  20.170   5.118 -0.1133  0.0401  0.4522
26712DOD     C323957  11.349  20.410   5.329  0.0795 -0.0971 -0.0409
26713DOD     C123958   9.931  28.834   4.132 -0.2614  0.0244 -0.0486
26713DOD     C223959  10.396  28.856   4.041  0.4121  0.4339  0.1209
26713DOD     C323960  10.627  28.888   3.636  0.4337  0.0600  0.0795
26714DOD     C123961   6.384   5.705  26.833  0.2006 -0.0643  0.1635
26714DOD     C223962   6.902   5.724  26.763 -0.0846 -0.1158  0.1417
26714DOD     C323963   7.284   5.604  26.481 -0.1667 -0.0437  0.0822
26715DOD     C123964  18.146   8.426  27.733 -0.0829  0.0009  0.0750
26715DOD     C223965  18.030   8.676  27.346 -0.2105 -0.1954  0.0607
26715DOD     C323966  17.655   8.879  27.124  0.0567 -0.0241  0.3318
26716DOD     C123967  25.873   1.913  28.292  0.1459  0.1757  0.1824
26716DOD     C223968  25.518   1.688  28.534 -0.1256 -0.1639  0.0193
26716DOD     C323969  25.218   1.630  28.883  0.1762  0.0631  0.1815
26717DOD     C123970  24.193  28.092  17.908  0.0174  0.3265  0.0743
26717DOD     C223971  23.728  28.071  17.921  0.2835 -0.1261 -0.0916
26717DOD     C323972  23.258  28.132  17.805 -0.2800  0.1617 -0.2944
26718DOD     C123973  29.136  14.856   3.142  0.0467  0.1701  0.1271
26718DOD     C223974  28.800  14.812   2.835  0.3920 -0.1576  0.0204
26718DOD     C323975  28.797  14.972   2.419  0.1798 -0.0775  0.2071
26719DOD     C123976  29.459  25.222  10.650 -0.0973 -0.0257  0.0347
26719DOD     C223977  29.683  24.823  10.747  0.0110  0.2587 -0.1144
26719DOD     C323978  29.433  24.386  10.713 -0.1675  0.1018  0.1462
26720DOD     C123979  22.366   4.425  21.578  0.3075  0.1290  0.1588
26720DOD     C223980  22.419   4.593  22.040 -0.3834  0.1036 -0.1708
26720DOD     C323981  22.694   4.618  22.392 -0.0445  0.1201 -0.0923
26721DOD     C123982  17.601   8.896  20.719  0.1730 -0.0967  0.1593
26721DOD     C223983  17.371   9.108  20.362  0.0768  0.5301 -0.1176
26721DOD     C323984  17.458   9.069  19.934  0.2992 -0.0414 -0.2226
26722DOD     C123985  29.028  21.061   9.311 -0.1026  0.1250 -0.1400
26722DOD     C223986  29.380  21.119   9.585  0.0107 -0.1658  0.1067
26722DOD     C323987  29.526  21.277  10.024 -0.1209 -0.1610 -0.0166
26723DOD     C123988  28.646  19.501  11.952 -0.2975 -0.3264 -0.2852
26723DOD     C223989  28.805  19.216  12.236  0.0492  0.0033  0.1795
26723DOD     C323990  28.772  18.986  12.613  0.1178  0.1400  0.0693
26724DOD     C123991   7.109  27.838   8.251 -0.1279 -0.2556 -0.2027
26724DOD     C223992   7.310  27.921   8.668 -0.1624  0.2781 -0.2490
26724DOD     C323993   7.167  28.229   8.997 -0.2037 -0.1288  0.2905
26725DOD     C123994  19.488   9.651   6.979  0.0940 -0.2781 -0.1990
26725DOD     C223995  19.629   9.235   6.988  0.1677 -0.3128  0.0316
26725DOD     C323996  19.604   8.929   7.359 -0.2407  0.2181  0.1224
26726DOD     C123997  11.893  11.949  20.277  0.2515  0.0416  0.0248
26726DOD     C223998  11.894  12.291  19.967  0.0856  0.0972 -0.0671
26726DOD     C323999  12.151  12.398  19.594 -0.2184 -0.1618  0.1292
26727DOD     C124000  28.936  25.820   1.365 -0.2256  0.4551 -0.0857
26727DOD     C224001  29.273  26.095   1.431  0.0564  0.0496 -0.0477
26727DOD     C324002  29.584  26.428   1.381 -0.0679  0.3291  0.1972
26728DOD     C124003  24.960  29.786  25.365  0.0298 -0.1197 -0.1273
26728DOD     C224004  24.688  30.284  25.264  0.1190 -0.0757  0.0694
26728DOD     C324005  24.632   0.393  25.454  0.4444  0.3870  0.1452
26729DOD     C124006   5.178  10.077  27.549  0.0657 -0.1991 -0.0765
26729DOD     C224007   5.449   9.676  27.479  0.0908 -0.0196 -0.3394
26729DOD     C324008   5.715   9.593  27.823  0.0382  0.0966 -0.0210
26730DOD     C124009  21.883  24.112  26.836  0.0082 -0.0388 -0.2881
26730DOD     C224010  21.738  24.336  27.230 -0.1841  0.0917  0.3729
26730DOD     C324011  21.628  24.677  27.513  0.0480 -0.1326 -0.0075
26731DOD     C124012  18.827  21.792   3.937 -0.1963  0.0012 -0.3824
26731DOD     C224013  18.438  21.911   3.726  0.0067  0.1218  0.1335
26731DOD     C324014  18.076  21.708   3.769 -0.1656  0.0960 -0.1370
26732DOD     C124015   4.774  28.636  13.659 -0.0006  0.4002  0.2261
26732DOD     C224016   5.110  28.687  13.334 -0.1332  0.3523  0.3151
26732DOD     C324017   5.429  28.440  13.085 -0.1683  0.1605 -0.1888
26733DOD     C124018   9.274   6.327  29.219 -0.1006 -0.3454 -0.4314
26733DOD     C224019   8.977   6.567  28.970  0.0581 -0.1116  0.0525
26733DOD     C324020   8.589   6.762  28.787 -0.0430 -0.1361 -0.0785
26734DOD     C124021   0.506   2.964  17.990 -0.2276  0.1984 -0.2612
26734DOD     C224022   0.703   2.595  18.234 -0.1287 -0.0807  0.1160
26734DOD     C324023   0.825   2.374  18.580 -0.1287 -0.0361 -0.5264
26735DOD     C124024  13.490  12.680  10.598 -0.1486  0.2509 -0.1952
26735DOD     C224025  13.827  12.513  10.881  0.0956 -0.0050 -0.0500
26735DOD     C324026  14.337  12.437  10.942 -0.0951 -0.2187  0.0968
26736DOD     C124027   1.385  21.635   9.309 -0.0373  0.1714  0.2249
26736DOD     C224028   1.113  21.943   9.432 -0.0021  0.2753  0.2286
26736DOD     C324029   0.956  22.289   9.689 -0.2424 -0.1940 -0.0476
26737DOD     C124030  15.054   0.684   8.094 -0.2107 -0.0422  0.2424
26737DOD     C224031  14.970   0.204   8.194 -0.0347 -0.0173  0.1197
26737DOD     C324032  15.052  30.157   7.902 -0.2521 -0.1365  0.1955
26738DOD     C124033  29.797   7.898  11.456 -0.2642  0.0904 -0.1536
26738DOD     C224034  30.019   7.653  11.161  0.0996 -0.0410 -0.2381
26738DOD     C324035  30.199   7.401  10.803  0.1251  0.0247  0.2762
26739DOD     C124036   5.759  14.379   0.816  0.4015 -0.0585 -0.0612
26739DOD     C224037   5.909  14.820   0.614  0.0876  0.1864 -0.2863
26739DOD     C324038   5.812  15.159   0.354 -0.2157 -0.0136  0.0740
26740DOD     C124039   1.848   5.577  25.953 -0.0692 -0.0579 -0.1725
26740DOD     C224040   1.981   5.984  25.772  0.1300 -0.2780 -0.0628
26740DOD     C324041   2.081   6.439  25.702 -0.0563 -0.0933  0.0868
26741DOD     C124042  23.176  25.994   0.807 -0.4602  0.1464  0.2547
26741DOD     C224043  23.451  25.673   0.974  0.0530 -0.2147  0.0881
26741DOD     C324044  23.432  25.382   1.318  0.2028  0.1506 -0.0051
26742DOD     C124045  13.329  23.319  15.000 -0.1503  0.2102  0.2915
26742DOD     C224046  13.158  23.154  14.581 -0.2356 -0.0000 -0.1964
26742DOD     C324047  13.095  23.152  14.114 -0.0047  0.0199 -0.2405
26743DOD     C124048  17.999   7.344   8.269 -0.0652  0.0524 -0.0634
26743DOD     C224049  17.764   7.056   7.983 -0.1515 -0.1854 -0.2078
26743DOD     C324050  17.525   7.122   7.613 -0.0684 -0.0292 -0.1055
26744DOD     C124051  19.308  15.214  25.951  0.1648 -0.2040 -0.0224
26744DOD     C224052  19.102  15.048  25.561 -0.1669  0.1834  0.1700
26744DOD     C324053  18.828  14.811  25.204 -0.1872  0.3277 -0.0736
26745DOD     C124054   4.857  11.387  27.763  0.6439 -0.3139  0.0541
26745DOD     C224055   5.194  11.110  27.748 -0.0146  0.1519 -0.0201
26745DOD     C324056   5.500  11.020  28.072 -0.0058  0.1142 -0.0851
26746DOD     C124057  14.091  11.701  23.792  0.2511 -0.2978 -0.3868
26746DOD     C224058  13.950  12.081  23.951 -0.1163  0.1579 -0.1899
26746DOD     C324059  13.589  12.409  23.889 -0.1104  0.2904  0.1041
26747DOD     C124060  19.018  21.761   2.661  0.0303  0.3005  0.0285
26747DOD     C224061  19.074  22.167   2.855 -0.0028  0.0996  0.0996
26747DOD     C324062  19.418  22.437   2.704 -0.0002  0.0603 -0.1509
26748DOD     C124063   3.346   2.657   8.851 -0.0724  0.1574  0.2617
26748DOD     C224064   2.952   2.369   8.846 -0.2882  0.4849 -0.0723
26748DOD     C324065   2.793   1.987   9.045 -0.0009 -0.1925 -0.0540
26749DOD     C124066   0.947   1.774  16.585 -0.3339  0.1183  0.1321
26749DOD     C224067   0.629   2.070  16.377  0.0644 -0.1354 -0.1999
26749DOD     C324068   0.206   2.276  16.329  0.2342 -0.0918 -0.3049
26750DOD     C124069  10.276  18.843  25.961  0.0376 -0.1124 -0.1680
26750DOD     C224070  10.699  19.045  25.973 -0.0155  0.0594 -0.0999
26750DOD     C324071  11.149  19.051  25.887  0.1290 -0.3231  0.1107
26751DOD     C124072   1.525   4.596  24.647  0.1500 -0.0300  0.1864
26751DOD     C224073   1.611   5.058  24.523  0.0702 -0.1351  0.2791
26751DOD     C324074   1.934   5.437  24.587  0.1308 -0.1231  0.0401
26752DOD     C124075  20.413  27.209  28.761  0.2533  0.0082 -0.2227
26752DOD     C224076  20.451  27.176  29.237  0.0673  0.0886 -0.0150
26752DOD     C324077  20.218  27.043  29.624  0.0586 -0.1874  0.1222
26753DOD     C124078   7.891   1.423   0.772  0.0681  0.1057  0.0585
26753DOD     C224079   8.341   1.390   0.888  0.0973 -0.0554  0.2242
26753DOD     C324080   8.785   1.564   1.112 -0.0416 -0.1120 -0.0587
26754DOD     C124081   0.173   5.023  20.192  0.2145 -0.0589 -0.0127
26754DOD     C224082   0.366   4.579  20.213  0.1278  0.0490 -0.0506
26754DOD     C324083   0.521   4.241  20.514  0.0081 -0.0695  0.1434
26755DOD     C124084  20.533  13.764   6.472  0.1654 -0.1288  0.4416
26755DOD     C224085  20.472  13.339   6.341  0.1010 -0.1590 -0.3125
26755DOD     C324086  20.642  12.908   6.417 -0.2520  0.4117 -0.2444
26756DOD     C124087  29.319   1.987  10.167 -0.0051  0.2938  0.0354
26756DOD     C224088  29.004   1.937   9.806  0.1143  0.0369  0.0715
26756DOD     C324089  29.134   1.904   9.348  0.2725 -0.0330  0.3215
26757DOD     C124090  16.027  17.153  16.294  0.0231 -0.1927  0.2708
26757DOD     C224091  15.646  16.993  16.163  0.1106  0.0551 -0.1546
26757DOD     C324092  15.260  16.941  15.832  0.0622  0.1425  0.0133
26758DOD     C124093  26.560  12.386   7.300  0.1771  0.3247 -0.0822
26758DOD     C224094  26.708  12.359   6.879  0.0660 -0.1177  0.0539
26758DOD     C324095  26.408  12.093   6.602 -0.0464 -0.2789  0.1421
26759DOD     C124096  18.759  22.154  16.606 -0.1041 -0.0920  0.3234
26759DOD     C224097  19.054  22.530  16.628 -0.2920 -0.1805 -0.0886
26759DOD     C324098  19.520  22.683  16.640 -0.0333  0.0016  0.0734
26760DOD     C124099  29.415  22.866  29.868 -0.1165 -0.0405 -0.0786
26760DOD     C224100  29.753  22.521  29.764 -0.1214 -0.0350 -0.0604
26760DOD     C324101  29.802  22.014  29.698 -0.3443 -0.1789 -0.0232
26761DOD     C124102  29.607  16.855   9.977 -0.0844 -0.0360 -0.0858
26761DOD     C224103  29.614  17.281  10.226  0.1147  0.2134 -0.3280
26761DOD     C324104  29.394  17.600  10.479 -0.3884  0.0619 -0.4135
26762DOD     C124105   0.913  15.404  27.748 -0.2259 -0.0017 -0.0180
26762DOD     C224106   1.258  15.679  27.725  0.0404  0.1109 -0.0058
26762DOD     C324107   1.252  16.170  27.649 -0.3496 -0.1312  0.1956
26763DOD     C124108  29.552  16.757  24.293 -0.0329  0.1563  0.0260
26763DOD     C224109  29.506  17.102  24.589  0.4050 -0.2424  0.1422
26763DOD     C324110  29.385  17.536  24.745  0.1628  0.1661 -0.0688
26764DOD     C124111  16.289  24.036  24.433  0.1862 -0.0851 -0.0274
26764DOD     C224112  16.494  24.063  24.018 -0.2192  0.0843 -0.0994
26764DOD     C324113  16.631  23.892  23.627  0.1456 -0.0311  0.3014
26765DOD     C124114  30.120   1.718   6.795 -0.0475 -0.3265 -0.0350
26765DOD     C224115  29.969   1.636   7.209  0.2384  0.0809  0.0061
26765DOD     C324116  29.637   1.622   7.543  0.0259 -0.2112  0.3235
26766DOD     C124117  10.487   2.362   9.989  0.1066  0.1095 -0.0357
26766DOD     C224118  10.762   2.692   9.766  0.4670 -0.3923  0.0317
26766DOD     C324119  10.785   3.030   9.416  0.0372  0.1306  0.1322
26767DOD     C124120  10.204   5.556  18.355 -0.0170  0.2531  0.1711
26767DOD     C224121  10.453   5.655  18.703 -0.3175 -0.0853 -0.1125
26767DOD     C324122  10.492   6.025  19.010 -0.0741  0.1156  0.1647
26768DOD     C124123  10.351  18.149   6.987 -0.0874 -0.1598  0.4635
26768DOD     C224124  10.774  18.215   7.234 -0.1777 -0.0018  0.1628
26768DOD     C324125  11.152  18.456   7.350 -0.1166 -0.0588 -0.0077
26769DOD     C124126  15.972  20.713  25.957  0.0845 -0.1505 -0.0755
26769DOD     C224127  15.791  20.344  25.856  0.0827  0.0537  0.0746
26769DOD     C324128  15.613  19.892  25.722  0.1286 -0.5676 -0.2606
26770DOD     C124129  10.093   5.436  23.818 -0.0501 -0.0755  0.0593
26770DOD     C224130  10.048   4.954  23.769 -0.0793  0.0621  0.1309
26770DOD     C324131  10.239   4.595  23.473 -0.1746 -0.0583  0.0816
26771DOD     C124132  24.182   2.466   0.071 -0.1001  0.1029  0.1555
26771DOD     C224133  24.133   2.376   0.580 -0.4613 -0.0588 -0.0277
26771DOD     C324134  24.342   2.317   0.974 -0.1095  0.0050  0.0586
26772DOD     C124135   7.406  27.364  30.033  0.0629  0.1241 -0.1242
26772DOD     C224136   7.077  27.752  30.069 -0.1066  0.2802  0.0220
26772DOD     C324137   7.089  28.146   0.042 -0.2392 -0.3445 -0.0250
26773DOD     C124138   5.248  29.461   8.574 -0.1409 -0.0897  0.2473
26773DOD     C224139   5.614  29.707   8.348  0.3988 -0.0705 -0.3048
26773DOD     C324140   6.008  29.956   8.295 -0.1689 -0.1329  0.1052
26774DOD     C124141   8.363   1.362  13.102  0.2123 -0.1091  0.2074
26774DOD     C224142   8.518   0.957  12.938  0.3301 -0.1008  0.0834
26774DOD     C324143   8.675   0.497  13.007  0.0499 -0.1372 -0.0585
26775DOD     C124144   8.543  10.927  20.983 -0.0008 -0.1824  0.0530
26775DOD     C224145   8.923  10.725  21.037 -0.0774  0.2544 -0.0702
26775DOD     C324146   9.137  10.326  21.194  0.5920 -0.0665 -0.1587
26776DOD     C124147  30.068  23.286  20.747  0.0862 -0.1297  0.1815
26776DOD     C224148  29.804  23.603  20.874 -0.1913  0.1923 -0.1578
26776DOD     C324149  29.403  23.891  20.748  0.0859 -0.1952 -0.0001
26777DOD     C124150   5.240  14.764   2.775 -0.1242  0.3882  0.0506
26777DOD     C224151   4.937  14.415   2.533  0.1977 -0.0337 -0.1328
26777DOD     C324152   4.539  14.242   2.362  0.1210  0.1984 -0.2194
26778DOD     C124153  20.192   3.327   2.666  0.0911 -0.2894  0.1698
26778DOD     C224154  19.861   3.636   2.656 -0.1295  0.2810  0.1650
26778DOD     C324155  19.522   3.944   2.618  0.0253  0.2947  0.1165
26779DOD     C124156  21.788   2.093  19.823 -0.0545 -0.0877 -0.0030
26779DOD     C224157  22.028   1.711  19.998 -0.1597 -0.0008  0.2564
26779DOD     C324158  21.913   1.324  20.215  0.1383  0.1306 -0.2095
26780DOD     C124159  13.717   2.038  19.743 -0.2328  0.0937  0.1192
26780DOD     C224160  13.420   1.697  19.954  0.1469  0.2171 -0.0976
26780DOD     C324161  13.686   1.351  20.056  0.0066 -0.0115  0.2121
26781DOD     C124162  28.545  14.861  22.843  0.1090  0.5036  0.0953
26781DOD     C224163  28.392  14.452  22.805  0.1164  0.0048  0.0583
26781DOD     C324164  28.281  14.006  22.855  0.3129 -0.0904  0.1747
26782DOD     C124165   7.751   2.928  26.416 -0.0213  0.2777 -0.0526
26782DOD     C224166   7.708   2.991  25.955  0.0475 -0.1059 -0.0012
26782DOD     C324167   7.855   3.145  25.543  0.1144 -0.0796  0.4246
26783DOD     C124168  23.198  15.550  19.411  0.1929  0.1477  0.1405
26783DOD     C224169  22.811  15.389  19.540  0.0594  0.0465  0.0648
26783DOD     C324170  22.632  15.305  19.994  0.1872  0.1339  0.0079
26784DOD     C124171  19.074  20.877   7.106  0.2139  0.1395  0.1760
26784DOD     C224172  18.865  21.121   6.728  0.1368  0.2015  0.2126
26784DOD     C324173  18.835  21.264   6.259 -0.2204 -0.0627 -0.0301
26785DOD     C124174  17.697  22.628  27.931  0.1248  0.1308 -0.0417
26785DOD     C224175  17.471  22.929  27.629  0.0495 -0.0055  0.2865
26785DOD     C324176  17.768  23.019  27.250  0.0428 -0.1630  0.1613
26786DOD     C124177  13.964   9.760  29.476  0.2947  0.4317  0.2385
26786DOD     C224178  14.299   9.536  29.226 -0.1338 -0.0587 -0.1155
26786DOD     C324179  14.672   9.333  28.997 -0.0085  0.1009  0.1319
26787DOD     C124180   2.744  18.350   5.362  0.1748 -0.2560  0.0858
26787DOD     C224181   2.850  18.120   5.724 -0.2307  0.2838  0.0544
26787DOD     C324182   3.055  18.301   6.091 -0.2123  0.1031  0.0130
26788DOD     C124183  21.241  18.882   9.742 -0.0095  0.3074  0.1991
26788DOD     C224184  21.361  19.289   9.594 -0.0397 -0.2143 -0.2115
26788DOD     C324185  21.515  19.748   9.596 -0.0738  0.1235  0.0726
26789DOD     C124186  27.437   1.730  19.156  0.1314  0.1764  0.2622
26789DOD     C224187  27.828   1.589  18.940  0.2870 -0.1103  0.1643
26789DOD     C324188  28.185   1.839  18.833  0.1276 -0.0577 -0.0238
26790DOD     C124189  25.241  11.826   7.337 -0.2260 -0.2675 -0.0285
26790DOD     C224190  25.623  11.966   7.104 -0.4322 -0.1519  0.1764
26790DOD     C324191  25.967  12.258   6.904 -0.1614  0.0780  0.1890
26791DOD     C124192   9.811   2.437   9.431 -0.0249  0.0142 -0.2449
26791DOD     C224193   9.827   2.359   9.866 -0.1935 -0.0145  0.0429
26791DOD     C324194  10.067   2.377  10.314 -0.0463 -0.1307 -0.1083
26792DOD     C124195  24.160   4.556  17.446  0.0404  0.0686 -0.1506
26792DOD     C224196  24.089   4.767  16.998 -0.2057 -0.0434 -0.0557
26792DOD     C324197  24.067   4.870  16.523 -0.0556 -0.2616  0.0275
26793DOD     C124198   6.189  10.068  10.600  0.1168  0.2156 -0.0716
26793DOD     C224199   5.977  10.110  11.003  0.1052 -0.0780  0.2164
26793DOD     C324200   6.186  10.225  11.398 -0.2084 -0.0138  0.1424
26794DOD     C124201   3.057  26.454  12.284  0.0974 -0.0974 -0.2096
26794DOD     C224202   3.068  26.815  12.611 -0.1812 -0.5123  0.2291
26794DOD     C324203   2.957  26.761  13.062 -0.1331 -0.0031  0.2892
26795DOD     C124204  20.304  15.945  26.337 -0.0828 -0.0291  0.1461
26795DOD     C224205  20.753  15.984  26.523  0.1196  0.0032  0.3176
26795DOD     C324206  21.132  16.253  26.570  0.0839  0.0057 -0.2732
26796DOD     C124207  16.913   0.940  27.718  0.0861  0.1575 -0.0559
26796DOD     C224208  17.369   1.044  27.770  0.1001  0.0315  0.2397
26796DOD     C324209  17.744   1.337  27.810  0.0232 -0.2475  0.2105
26797DOD     C124210   7.073  19.907  28.193 -0.2876  0.0751 -0.0103
26797DOD     C224211   7.422  19.662  28.519  0.0877 -0.3347  0.2891
26797DOD     C324212   7.313  19.786  28.966  0.2259 -0.1008  0.2517
26798DOD     C124213  29.043  29.828  27.383 -0.1390  0.1466 -0.2929
26798DOD     C224214  28.797  29.950  26.992  0.0449  0.1732 -0.0608
26798DOD     C324215  28.964  29.951  26.586  0.0397 -0.1737 -0.2064
26799DOD     C124216  24.941  10.098  15.408 -0.0022  0.3187 -0.0735
26799DOD     C224217  24.540   9.924  15.549  0.0045 -0.1238 -0.2255
26799DOD     C324218  24.315   9.737  15.933 -0.0604 -0.1872  0.2503
26800DOD     C124219  26.706  14.060   1.610 -0.1608  0.1615  0.0430
26800DOD     C224220  26.937  13.885   1.917 -0.0290 -0.0568  0.0572
26800DOD     C324221  27.265  13.877   2.276  0.1006 -0.0273  0.3514
26801DOD     C124222   2.703   2.977  22.086  0.0877  0.3979 -0.1981
26801DOD     C224223   2.810   3.399  22.220  0.0226  0.1692  0.0586
26801DOD     C324224   2.651   3.845  22.197  0.1573  0.2469 -0.1462
26802DOD     C124225   5.346   4.837  17.156  0.0600  0.2657  0.2125
26802DOD     C224226   5.435   4.487  16.831  0.0398  0.0935  0.1064
26802DOD     C324227   5.629   4.348  16.447  0.2215 -0.1115 -0.0153
26803DOD     C124228  14.912  11.210  19.328 -0.2583  0.1552  0.0517
26803DOD     C224229  14.421  11.326  19.273  0.0397 -0.2838 -0.0304
26803DOD     C324230  14.000  11.502  19.070  0.1531 -0.1667  0.0717
26804DOD     C124231  13.549   5.892  22.370  0.3062  0.0415 -0.2600
26804DOD     C224232  13.533   6.388  22.348  0.2766 -0.1934 -0.0843
26804DOD     C324233  13.581   6.777  22.687  0.0801  0.1915  0.4308
26805DOD     C124234  11.467  24.475  11.038 -0.0281 -0.1421 -0.1233
26805DOD     C224235  11.931  24.362  11.218  0.0516 -0.1015 -0.4542
26805DOD     C324236  12.139  24.006  11.430  0.2223 -0.2950 -0.1042
26806DOD     C124237  17.130  10.758  28.517 -0.1725 -0.1824  0.2177
26806DOD     C224238  17.384  10.516  28.807  0.2250  0.2542 -0.2533
26806DOD     C324239  17.499  10.249  29.168  0.0648 -0.2267 -0.2878
26807DOD     C124240  25.476   5.336  26.426 -0.0473  0.0825  0.5144
26807DOD     C224241  25.263   5.336  26.845 -0.3515  0.1269 -0.0077
26807DOD     C324242  24.970   5.569  27.163  0.0806 -0.0584  0.1860
26808DOD     C124243  18.357  23.973  27.419  0.0416 -0.2334 -0.1438
26808DOD     C224244  18.122  23.822  27.766 -0.0453  0.0744 -0.0115
26808DOD     C324245  17.774  23.926  28.102 -0.0859 -0.0113  0.4359
26809DOD     C124246  29.513   5.132  26.384  0.0551  0.1887 -0.2324
26809DOD     C224247  29.065   5.055  26.231  0.0586 -0.1664  0.0904
26809DOD     C324248  28.716   5.275  26.069 -0.0685 -0.0278  0.0659
26810DOD     C124249   7.918   9.205  19.288 -0.1680 -0.2536  0.1630
26810DOD     C224250   7.751   9.318  19.692 -0.0204  0.1335  0.2661
26810DOD     C324251   7.474   9.464  20.095 -0.1618 -0.0110 -0.1000
26811DOD     C124252   4.227  16.244  24.533 -0.3510  0.0123 -0.1587
26811DOD     C224253   4.464  16.626  24.609 -0.0373 -0.1191  0.1084
26811DOD     C324254   4.706  17.033  24.794  0.0323  0.0508 -0.1117
26812DOD     C124255  16.114  25.145   4.318 -0.0338 -0.2064  0.2171
26812DOD     C224256  15.739  24.996   4.069  0.0217  0.0611 -0.4642
26812DOD     C324257  15.292  24.948   3.990  0.2872 -0.0022 -0.1183
26813DOD     C124258  17.042  18.642  22.858 -0.0519 -0.0713 -0.0738
26813DOD     C224259  17.280  18.257  22.832  0.3151 -0.1499 -0.1719
26813DOD     C324260  17.428  18.024  23.220 -0.2453 -0.0914  0.1562
26814DOD     C124261   3.963  26.773  22.693 -0.2581 -0.0421  0.5063
26814DOD     C224262   3.662  27.084  22.791 -0.2252 -0.1625  0.1325
26814DOD     C324263   3.479  27.492  22.896 -0.1101  0.0376  0.3400
26815DOD     C124264  28.217  26.451   6.561  0.0249  0.1904  0.1822
26815DOD     C224265  28.498  26.808   6.708 -0.2713 -0.0844  0.0720
26815DOD     C324266  28.683  27.130   6.411 -0.0999 -0.0324  0.0475
26816DOD     C124267  19.603  17.085   2.984 -0.0000  0.1563 -0.0345
26816DOD     C224268  20.005  17.297   2.851  0.0543 -0.0559 -0.0680
26816DOD     C324269  20.251  17.036   2.536  0.1184 -0.1253  0.0821
26817DOD     C124270   8.081  25.179  24.029 -0.3232 -0.0781  0.1799
26817DOD     C224271   7.614  25.148  24.006  0.0512 -0.0216 -0.2883
26817DOD     C324272   7.234  25.396  24.027  0.1276  0.1906  0.1371
26818DOD     C124273  15.640  18.670   0.157 -0.0622  0.0713 -0.0975
26818DOD     C224274  15.782  18.293   0.263  0.1170 -0.1366  0.0589
26818DOD     C324275  15.781  17.920   0.582  0.0296  0.4826 -0.1463
26819DOD     C124276  12.539   1.965  21.345 -0.1258  0.2601  0.0723
26819DOD     C224277  12.587   2.014  20.875  0.0890 -0.2065  0.0453
26819DOD     C324278  12.572   2.128  20.452  0.0512 -0.0197 -0.0696
26820DOD     C124279  27.917   0.807  11.628 -0.3388  0.0187 -0.0049
26820DOD     C224280  27.842   0.791  11.200 -0.0273 -0.0958 -0.2226
26820DOD     C324281  27.838   0.434  10.909 -0.2963  0.1020 -0.3843
26821DOD     C124282  16.141  23.614  17.174  0.0639  0.0106 -0.2223
26821DOD     C224283  15.958  23.640  17.556 -0.4053  0.1456  0.0817
26821DOD     C324284  15.609  23.807  17.816  0.0394 -0.1568 -0.0107
26822DOD     C124285  21.094  17.808   2.873 -0.0727  0.0510 -0.0136
26822DOD     C224286  20.636  17.906   2.889 -0.2106 -0.1828 -0.1727
26822DOD     C324287  20.319  18.229   3.046 -0.1471 -0.0745 -0.0191
26823DOD     C124288  11.645  17.706  29.474  0.0282 -0.1629 -0.1197
26823DOD     C224289  11.515  18.128  29.292 -0.2221  0.0572 -0.2104
26823DOD     C324290  11.192  18.259  29.060 -0.1287  0.1167 -0.2018
26824DOD     C124291  12.030  20.759   1.710 -0.1781  0.1180  0.1154
26824DOD     C224292  11.741  20.390   1.640  0.0671  0.0609  0.3454
26824DOD     C324293  11.561  20.012   1.491  0.3264 -0.0774  0.0956
26825DOD     C124294  16.218   3.436  23.119  0.1404 -0.3036 -0.0525
26825DOD     C224295  16.392   3.657  23.466  0.2537  0.4111  0.2214
26825DOD     C324296  16.305   3.723  23.968  0.0765  0.1731 -0.2346
26826DOD     C124297  17.966  21.788  21.609  0.0592 -0.1271  0.0352
26826DOD     C224298  17.746  22.066  21.301  0.0026  0.2079 -0.0567
26826DOD     C324299  17.606  22.273  20.884  0.0888 -0.0380 -0.3633
26827DOD     C124300  25.518  13.119   4.422  0.0965 -0.1127  0.1228
26827DOD     C224301  25.417  12.972   3.952  0.0240 -0.0085 -0.1106
26827DOD     C324302  25.103  12.714   3.719 -0.1374  0.0062  0.3711
26828DOD     C124303  27.530   3.862  21.576  0.2482 -0.3284  0.2532
26828DOD     C224304  27.960   3.781  21.567 -0.0137  0.4531 -0.3701
26828DOD     C324305  28.358   3.626  21.721 -0.2430 -0.1101 -0.2049
26829DOD     C124306  15.674  16.307  28.535 -0.1613 -0.2776 -0.1745
26829DOD     C224307  16.039  16.120  28.784 -0.1727 -0.1695  0.2996
26829DOD     C324308  16.234  15.738  29.003  0.2140 -0.2429  0.0156
26830DOD     C124309  20.691  28.402  12.159 -0.1526 -0.2466 -0.1143
26830DOD     C224310  20.560  28.885  12.126  0.0823 -0.2439 -0.0131
26830DOD     C324311  20.481  29.160  11.769  0.0423 -0.3549  0.1877
26831DOD     C124312   5.199  16.195   0.576 -0.0297  0.2212 -0.0536
26831DOD     C224313   5.254  16.089   1.015 -0.0862  0.1271  0.5228
26831DOD     C324314   5.339  15.684   1.146 -0.1113  0.0787 -0.1493
26832DOD     C124315  29.201  28.693  28.821  0.0240  0.2542  0.0024
26832DOD     C224316  29.041  28.280  29.028 -0.0291  0.0974  0.0457
26832DOD     C324317  29.226  27.848  29.193 -0.0596  0.0641 -0.0585
26833DOD     C124318  13.186   5.941  20.107 -0.0198  0.0982  0.3003
26833DOD     C224319  12.932   6.374  20.135 -0.1575 -0.0165 -0.0273
26833DOD     C324320  12.620   6.258  20.480  0.0519 -0.0257  0.2138
26834DOD     C124321  19.992  27.924  17.310 -0.1616 -0.1910 -0.3617
26834DOD     C224322  20.084  27.863  16.861 -0.1609  0.2536  0.4539
26834DOD     C324323  19.951  27.684  16.420 -0.1204  0.1541 -0.3578
26835DOD     C124324  24.902  26.145  25.084 -0.1124  0.1839  0.0645
26835DOD     C224325  24.605  26.256  25.449 -0.0410  0.1097  0.1408
26835DOD     C324326  24.244  26.325  25.779 -0.0274  0.0182  0.1400
26836DOD     C124327  12.808   1.174  22.735 -0.0971  0.3129  0.1354
26836DOD     C224328  12.436   0.996  22.980  0.1536 -0.0755 -0.0216
26836DOD     C324329  12.315   0.498  23.039  0.2163 -0.1599 -0.0016
26837DOD     C124330   7.079  21.984   3.580 -0.1985  0.2719 -0.1824
26837DOD     C224331   7.559  21.933   3.685 -0.0713  0.4833  0.1372
26837DOD     C324332   7.796  21.576   3.893 -0.0174 -0.3534  0.1252
26838DOD     C124333   1.260  15.469  25.671  0.1409  0.1376 -0.1008
26838DOD     C224334   1.228  15.287  26.109 -0.1475  0.0402  0.0492
26838DOD     C324335   0.896  15.001  26.278  0.1291 -0.1843 -0.1108
26839DOD     C124336  30.290   3.960  25.634 -0.0853  0.1303 -0.2653
26839DOD     C224337  30.236   4.426  25.638  0.0320 -0.2560  0.3041
26839DOD     C324338  29.763   4.593  25.730  0.2660  0.0826 -0.1888
26840DOD     C124339  20.243  16.655  11.792  0.2194  0.0070  0.0104
26840DOD     C224340  20.537  16.556  11.452  0.2689  0.4523 -0.3671
26840DOD     C324341  20.583  16.750  11.066 -0.1919  0.0311 -0.4357
26841DOD     C124342  11.271   7.125  11.230  0.0412 -0.2657 -0.3232
26841DOD     C224343  11.590   7.104  11.539 -0.1416  0.1464  0.0091
26841DOD     C324344  11.833   7.109  11.949  0.0735 -0.1929  0.0488
26842DOD     C124345  21.805  17.342   0.582 -0.0285 -0.1373 -0.0258
26842DOD     C224346  21.677  17.775   0.437 -0.3118 -0.1465  0.4360
26842DOD     C324347  21.414  18.116   0.329 -0.2656 -0.1547  0.0292
26843DOD     C124348   1.426   9.388  21.629  0.1553  0.1558 -0.0833
26843DOD     C224349   1.346   8.949  21.926  0.1393  0.2645 -0.0594
26843DOD     C324350   1.048   8.803  22.278  0.0544  0.0953  0.0549
26844DOD     C124351  16.265  14.269  11.118 -0.3657  0.2422 -0.0993
26844DOD     C224352  15.857  14.263  10.818  0.2750  0.2005 -0.0073
26844DOD     C324353  15.689  13.966  10.524 -0.2298  0.3008 -0.0559
26845DOD     C124354  11.759  12.041  10.981 -0.4540  0.0194 -0.1344
26845DOD     C224355  11.641  11.767  10.578 -0.1642 -0.1363  0.2405
26845DOD     C324356  11.725  11.622  10.122 -0.1503  0.1780  0.0262
26846DOD     C124357  22.975  16.803   5.916  0.3015  0.2043  0.0732
26846DOD     C224358  23.044  16.380   5.915  0.2105  0.1763  0.0664
26846DOD     C324359  23.315  16.049   6.006  0.0602 -0.0347 -0.0114
26847DOD     C124360   4.523  22.838   7.055 -0.0700 -0.2502 -0.1809
26847DOD     C224361   4.122  22.822   7.309  0.1247  0.1058  0.0726
26847DOD     C324362   3.934  22.495   7.518 -0.2077  0.1551 -0.1682
26848DOD     C124363  17.686   0.679  19.998 -0.0920 -0.2318 -0.5677
26848DOD     C224364  17.943   0.921  19.700 -0.3588  0.0128  0.0620
26848DOD     C324365  18.152   1.179  19.322 -0.0709 -0.0039 -0.1164
26849DOD     C124366  13.465   5.476  21.270  0.1695  0.1735 -0.0409
26849DOD     C224367  13.667   5.671  21.629 -0.1019  0.4178 -0.0373
26849DOD     C324368  13.942   5.677  22.015  0.0098  0.2342 -0.0200
26850DOD     C124369  21.430  26.324  13.185 -0.0714  0.2033 -0.0649
26850DOD     C224370  21.141  26.183  12.802  0.6388  0.1945 -0.2801
26850DOD     C324371  20.761  26.355  12.552 -0.0601  0.1607 -0.2244
26851DOD     C124372   6.260  10.594  17.667 -0.1379  0.0814 -0.0568
26851DOD     C224373   6.646  10.437  17.950 -0.3356 -0.0345 -0.3611
26851DOD     C324374   7.004  10.082  17.908 -0.1912 -0.0649 -0.1433
26852DOD     C124375  21.317  17.343   2.937  0.0944  0.1437  0.1044
26852DOD     C224376  21.377  17.144   3.352  0.0857 -0.2716  0.0033
26852DOD     C324377  21.326  16.937   3.729  0.1387 -0.0510  0.1718
26853DOD     C124378   5.042  23.192  11.682 -0.0838 -0.1564 -0.2487
26853DOD     C224379   4.824  22.768  11.828  0.1550 -0.1239 -0.1914
26853DOD     C324380   4.784  22.563  12.230  0.4120  0.0725  0.0301
26854DOD     C124381   8.299  20.544   3.216 -0.2462 -0.0194  0.0639
26854DOD     C224382   7.966  20.948   3.352 -0.0634  0.0522  0.1869
26854DOD     C324383   8.077  21.170   3.707 -0.0096  0.0234 -0.3596
26855DOD     C124384  28.970   2.639  26.531 -0.1432  0.2791  0.1261
26855DOD     C224385  29.378   2.477  26.522 -0.0418 -0.1063 -0.1901
26855DOD     C324386  29.532   2.093  26.708 -0.3036  0.2785 -0.1186
26856DOD     C124387  28.525  29.394   9.872 -0.0609 -0.0736 -0.2823
26856DOD     C224388  28.583  29.879   9.845 -0.1098 -0.0813  0.3054
26856DOD     C324389  28.408  30.236   9.538 -0.0232  0.0207  0.1316
26857DOD     C124390  19.482  16.566   1.546 -0.0126  0.0691  0.0475
26857DOD     C224391  19.060  16.581   1.758  0.1006 -0.4511 -0.2974
26857DOD     C324392  18.884  16.442   2.162  0.0798 -0.0744  0.2116
26858DOD     C124393  23.139  19.205  10.977 -0.1012  0.1722  0.3815
26858DOD     C224394  23.467  19.458  11.229  0.1018 -0.1328  0.3895
26858DOD     C324395  23.673  19.342  11.594  0.0480 -0.1972  0.0826
26859DOD     C124396  29.916  21.434   8.117 -0.0142 -0.1365 -0.2554
26859DOD     C224397  29.641  21.672   8.297  0.2440 -0.0395  0.0134
26859DOD     C324398  29.297  21.791   8.641 -0.2182  0.0225  0.1086
26860DOD     C124399   2.328  21.035   7.737 -0.0440 -0.0083 -0.0903
26860DOD     C224400   2.092  20.988   8.149  0.0956 -0.1313 -0.1232
26860DOD     C324401   2.159  20.787   8.628  0.0866  0.1002  0.3917
26861DOD     C124402  15.184  22.307  26.071  0.0510 -0.1644  0.4420
26861DOD     C224403  14.744  22.302  26.355  0.2242  0.0249 -0.1359
26861DOD     C324404  14.537  22.018  26.659  0.3853  0.1940 -0.1517
26862DOD     C124405  25.499  25.109  25.198  0.2116 -0.0902 -0.2031
26862DOD     C224406  25.607  25.370  25.615 -0.0683 -0.0923  0.0288
26862DOD     C324407  26.028  25.540  25.840 -0.1231  0.1497  0.1417
26863DOD     C124408  19.126  11.931   1.718 -0.2087  0.1011 -0.2006
26863DOD     C224409  19.479  11.654   1.496 -0.2342  0.0822  0.1571
26863DOD     C324410  19.845  11.461   1.779 -0.0941 -0.2111 -0.1134
26864DOD     C124411  21.580  12.690   3.065  0.1445 -0.0832 -0.0414
26864DOD     C224412  21.193  12.472   3.258  0.0458  0.0393  0.0835
26864DOD     C324413  20.817  12.287   3.510  0.0373 -0.1673  0.3545
26865DOD     C124414  11.225  23.320   6.547  0.0021  0.0003 -0.1371
26865DOD     C224415  11.676  23.270   6.487 -0.4796 -0.1283 -0.0440
26865DOD     C324416  11.944  22.955   6.377 -0.0033  0.0555  0.1370
26866DOD     C124417  18.645  26.383   5.892  0.1847  0.0349  0.2236
26866DOD     C224418  18.497  26.060   6.156  0.3866  0.0802  0.0450
26866DOD     C324419  18.456  25.578   6.319 -0.3850 -0.0668  0.2874
26867DOD     C124420  24.691  27.299  16.411  0.0710  0.0361  0.2273
26867DOD     C224421  24.273  27.423  16.367 -0.1866 -0.1115 -0.0953
26867DOD     C324422  23.932  27.464  16.720 -0.2590  0.1355 -0.2535
26868DOD     C124423  16.312  10.630   2.443  0.0037 -0.1114  0.2609
26868DOD     C224424  16.139  10.269   2.741 -0.1092 -0.4305 -0.1749
26868DOD     C324425  16.185  10.051   3.192  0.3510 -0.1907  0.2443
26869DOD     C124426  10.030   1.523  16.386  0.2540  0.0170  0.1228
26869DOD     C224427   9.692   1.465  16.689 -0.2128  0.1036  0.2396
26869DOD     C324428   9.434   1.704  16.987  0.0540  0.2294 -0.0540
26870DOD     C124429   3.605   1.745  27.350  0.1117 -0.3437 -0.0513
26870DOD     C224430   3.604   1.509  27.765 -0.1061 -0.2009  0.0534
26870DOD     C324431   3.409   1.089  27.836  0.2195 -0.0650  0.0160
26871DOD     C124432   2.581  19.317   1.437  0.4336  0.2243  0.0940
26871DOD     C224433   2.657  19.216   1.007  0.0523  0.2424  0.1720
26871DOD     C324434   3.018  19.325   0.741  0.0317 -0.0574  0.0074
26872DOD     C124435  29.320  23.924  21.653 -0.0898 -0.0248 -0.1507
26872DOD     C224436  29.603  24.276  21.690 -0.2189  0.0253 -0.1266
26872DOD     C324437  29.804  24.696  21.716  0.1168  0.0134  0.0535
26873DOD     C124438  17.704  26.269  27.565  0.3727 -0.0141 -0.2212
26873DOD     C224439  17.981  25.930  27.418 -0.1938  0.1134 -0.0846
26873DOD     C324440  18.274  25.640  27.234 -0.0411 -0.0432 -0.1998
26874DOD     C124441  15.792  16.705  18.335  0.4373  0.1971  0.1959
26874DOD     C224442  15.829  16.261  18.484  0.3656 -0.2010 -0.1984
26874DOD     C324443  15.862  15.834  18.403  0.3086  0.2055 -0.3236
26875DOD     C124444  29.896  13.821  28.769  0.1054  0.1113 -0.0343
26875DOD     C224445  29.862  13.442  28.457 -0.1536  0.0445  0.2872
26875DOD     C324446  29.716  12.990  28.455 -0.1783  0.0118 -0.0731
26876DOD     C124447   7.311   1.997  29.914  0.0708 -0.0255  0.1113
26876DOD     C224448   7.615   1.726  29.683 -0.2632 -0.3434  0.1698
26876DOD     C324449   7.836   1.384  29.825  0.2999 -0.0920  0.3068
26877DOD     C124450   1.869  29.066  18.023 -0.1431  0.2577  0.3424
26877DOD     C224451   1.896  28.967  17.610 -0.0695  0.0322  0.3114
26877DOD     C324452   2.122  28.709  17.284 -0.2084 -0.1197 -0.2075
26878DOD     C124453  11.412   3.438  26.106  0.0305 -0.2874  0.3355
26878DOD     C224454  11.289   3.696  26.488 -0.1325  0.4372  0.3660
26878DOD     C324455  11.193   4.030  26.759  0.0514  0.0234  0.1912
26879DOD     C124456  13.460  22.748  25.990  0.2123 -0.1370 -0.0448
26879DOD     C224457  13.133  22.917  26.291 -0.0794  0.1613 -0.1542
26879DOD     C324458  12.727  23.139  26.212 -0.1366  0.2021  0.1190
26880DOD     C124459   6.853  20.720   4.232  0.0220 -0.0173  0.2273
26880DOD     C224460   6.860  20.604   3.784  0.1939  0.0878  0.0395
26880DOD     C324461   6.783  20.680   3.370 -0.0004  0.4205  0.1056
26881DOD     C124462  21.111  22.425   0.731 -0.1527  0.1079 -0.0144
26881DOD     C224463  20.765  22.724   0.774 -0.0310  0.0014 -0.1641
26881DOD     C324464  20.579  23.127   0.535 -0.1665  0.1899 -0.2626
26882DOD     C124465  20.112  24.825  24.538  0.0837  0.0747  0.1518
26882DOD     C224466  20.126  24.477  24.836  0.2661  0.0399  0.0775
26882DOD     C324467  20.379  24.077  24.908  0.0499 -0.0361  0.1794
26883DOD     C124468  23.181  16.953  14.584  0.0132 -0.0441  0.1459
26883DOD     C224469  23.112  17.315  14.892  0.0107 -0.0813  0.1890
26883DOD     C324470  23.338  17.634  14.998  0.1993 -0.1571  0.0434
26884DOD     C124471   1.366  27.771   2.164  0.1301 -0.2230  0.0611
26884DOD     C224472   1.170  28.145   1.937 -0.3057 -0.2056 -0.2058
26884DOD     C324473   1.040  28.323   1.523 -0.0413  0.1989  0.0335
26885DOD     C124474   0.932   8.065  15.499  0.1578  0.0671 -0.1531
26885DOD     C224475   1.176   7.972  15.770  0.0477  0.0905 -0.0062
26885DOD     C324476   1.539   8.065  16.072 -0.1495  0.0153  0.0285
26886DOD     C124477  20.270   5.112   5.137  0.1396 -0.3282 -0.0914
26886DOD     C224478  20.092   5.301   5.542  0.2826  0.0527 -0.0939
26886DOD     C324479  20.008   5.100   5.939 -0.1479 -0.0783  0.1532
26887DOD     C124480   7.844  15.546   0.532  0.2435  0.0877 -0.1927
26887DOD     C224481   7.802  15.825   0.918  0.2584  0.0396  0.1546
26887DOD     C324482   7.797  15.924   1.375  0.1389  0.0945 -0.1394
26888DOD     C124483   5.167  25.913   4.431 -0.2454 -0.0443  0.0860
26888DOD     C224484   5.313  25.556   4.677 -0.3711 -0.1747 -0.0020
26888DOD     C324485   5.293  25.120   4.747 -0.2347 -0.3417 -0.2395
26889DOD     C124486  20.589  18.795  26.134 -0.0755 -0.4754  0.0051
26889DOD     C224487  20.828  18.892  26.488  0.1880 -0.0489  0.1557
26889DOD     C324488  21.177  19.153  26.473  0.2480  0.4047 -0.0717
26890DOD     C124489  13.047  24.535  21.724  0.0802 -0.1764 -0.0015
26890DOD     C224490  13.241  24.185  21.486  0.3329 -0.2804  0.1298
26890DOD     C324491  13.402  23.828  21.223  0.0531  0.0745  0.1556
26891DOD     C124492  15.561   3.287  10.072 -0.1315 -0.2022  0.1892
26891DOD     C224493  15.310   2.884   9.950 -0.1278  0.0495  0.2110
26891DOD     C324494  15.397   2.428   9.784 -0.1413  0.0808  0.0429
26892DOD     C124495  10.113  14.917  28.380 -0.0903  0.0844 -0.0600
26892DOD     C224496  10.024  15.071  28.820 -0.2523 -0.2256  0.0871
26892DOD     C324497  10.122  14.895  29.210  0.1536  0.1447  0.2408
26893DOD     C124498  26.129   8.460   7.319 -0.1882 -0.2286  0.3946
26893DOD     C224499  25.675   8.535   7.336 -0.0711  0.0575  0.2305
26893DOD     C324500  25.452   8.884   7.486  0.2253  0.0154 -0.3114
26894DOD     C124501   6.936   4.829  19.692  0.0976  0.0340  0.1281
26894DOD     C224502   6.978   5.027  20.086 -0.0473 -0.0330  0.0323
26894DOD     C324503   6.961   5.126  20.543 -0.0265  0.1710  0.0632
26895DOD     C124504  26.631  12.434  28.901  0.2745  0.1296 -0.0517
26895DOD     C224505  26.998  12.591  28.701 -0.1032 -0.1862 -0.1917
26895DOD     C324506  27.343  12.904  28.841  0.0207 -0.1099  0.0536
26896DOD     C124507  25.981   1.448  10.201  0.2063 -0.0223 -0.1173
26896DOD     C224508  26.045   1.906  10.265  0.1975  0.1624 -0.0228
26896DOD     C324509  26.302   2.144   9.949 -0.1593 -0.1910 -0.0338
26897DOD     C124510   0.481   8.024   4.844 -0.1574  0.2697 -0.1488
26897DOD     C224511   0.805   7.680   4.911 -0.0218 -0.3508  0.0871
26897DOD     C324512   1.178   7.427   4.668 -0.1604  0.1940 -0.0705
26898DOD     C124513  13.604  14.131  26.614 -0.1307  0.0842 -0.1409
26898DOD     C224514  14.004  14.164  26.829 -0.0966  0.3368 -0.2093
26898DOD     C324515  14.402  14.102  26.630  0.0241 -0.2340 -0.0301
26899DOD     C124516   8.660   1.728  15.277 -0.2365  0.3553  0.1833
26899DOD     C224517   8.782   2.185  15.285  0.2147 -0.1580 -0.4479
26899DOD     C324518   8.821   2.628  15.179 -0.2879 -0.0771  0.0795
26900DOD     C124519  29.902  14.098  20.198  0.3798 -0.2297  0.2880
26900DOD     C224520  29.699  13.771  19.945  0.2400  0.1513 -0.1452
26900DOD     C324521  29.724  13.331  19.998 -0.3401  0.0433  0.1474
26901DOD     C124522  11.911  17.605  15.532 -0.0500 -0.1283  0.3010
26901DOD     C224523  11.801  17.144  15.398 -0.0312  0.0919  0.1638
26901DOD     C324524  12.117  16.865  15.260 -0.2558 -0.2181 -0.0852
26902DOD     C124525  13.720  26.131  14.929  0.1242  0.0352 -0.0214
26902DOD     C224526  13.383  26.418  14.767  0.0411 -0.2125  0.1704
26902DOD     C324527  12.989  26.609  14.653  0.1040 -0.0413  0.2418
26903DOD     C124528   3.051  20.572   4.599  0.1921 -0.1093  0.3842
26903DOD     C224529   3.400  20.324   4.725 -0.0984  0.0682  0.0122
26903DOD     C324530   3.497  20.060   5.073 -0.0064  0.1256 -0.2551
26904DOD     C124531   8.013  29.050  20.449  0.0566  0.2039  0.4386
26904DOD     C224532   8.033  29.015  20.905 -0.1278  0.3039 -0.4173
26904DOD     C324533   7.876  28.659  21.250  0.1869  0.1381  0.1015
26905DOD     C124534  24.941   2.122  25.763  0.0543  0.0151 -0.2877
26905DOD     C224535  24.838   1.678  25.741  0.2124 -0.0199  0.0602
26905DOD     C324536  24.664   1.211  25.854 -0.1904  0.0330 -0.0662
26906DOD     C124537   4.845   0.525  27.460 -0.0982 -0.0522 -0.0143
26906DOD     C224538   5.228   0.726  27.615 -0.0675 -0.0248 -0.0231
26906DOD     C324539   5.426   0.974  27.980  0.0060  0.1135 -0.2388
26907DOD     C124540  19.970  30.203   7.660 -0.1044 -0.2542 -0.1502
26907DOD     C224541  19.502  30.158   7.833  0.2029 -0.0622  0.1913
26907DOD     C324542  19.276  29.733   7.919  0.0073 -0.3328  0.1174
26908DOD     C124543  29.748   1.659  23.341  0.0021  0.0737 -0.2506
26908DOD     C224544  30.096   1.365  23.549 -0.0012 -0.1189 -0.0731
26908DOD     C324545   0.047   1.397  23.897  0.1586  0.3039 -0.1602
26909DOD     C124546  15.363   6.612  26.807 -0.1686  0.0737  0.1606
26909DOD     C224547  15.404   6.201  26.642  0.0435  0.2986 -0.0278
26909DOD     C324548  15.241   6.118  26.218 -0.1560  0.0777  0.1921
26910DOD     C124549   7.765  23.056   0.137 -0.1699  0.5864 -0.1392
26910DOD     C224550   8.114  23.095   0.448 -0.0515  0.1155 -0.2055
26910DOD     C324551   8.591  23.166   0.522 -0.2637  0.0793  0.1597
26911DOD     C124552  17.694   2.226  22.949  0.0171 -0.0198  0.1488
26911DOD     C224553  18.091   2.314  22.715  0.1441 -0.0373 -0.2666
26911DOD     C324554  18.382   2.433  22.356 -0.0711 -0.2803  0.4119
26912DOD     C124555  21.787  11.825   7.275 -0.1093 -0.0915  0.0398
26912DOD     C224556  22.118  11.963   7.537 -0.1788 -0.3410  0.0582
26912DOD     C324557  22.239  12.013   7.996 -0.3849 -0.1061  0.2398
26913DOD     C124558  12.652   7.719  15.265 -0.2336 -0.1607 -0.1936
26913DOD     C224559  12.703   7.446  15.716 -0.0853  0.0586 -0.1541
26913DOD     C324560  12.881   7.301  16.144 -0.0957  0.2867  0.0765
26914DOD     C124561   9.124   9.706  29.928 -0.0219 -0.0233 -0.1430
26914DOD     C224562   9.306   9.442  29.551  0.2006 -0.2938 -0.0386
26914DOD     C324563   9.517   9.453  29.167 -0.0004  0.1932  0.1294
26915DOD     C124564  21.660  27.202   6.645 -0.2099  0.1437  0.0062
26915DOD     C224565  21.283  27.504   6.669  0.1654 -0.0292  0.1658
26915DOD     C324566  20.853  27.438   6.652  0.2455  0.3263  0.1817
26916DOD     C124567   8.544  10.820   4.339 -0.1516  0.0434  0.0367
26916DOD     C224568   8.947  10.617   4.530 -0.1441  0.3428  0.2536
26916DOD     C324569   9.305  10.510   4.770  0.0598 -0.1289 -0.0015
26917DOD     C124570  26.375  17.407   7.075 -0.0485  0.3661  0.0236
26917DOD     C224571  26.309  17.668   6.673  0.0219  0.0500  0.1800
26917DOD     C324572  26.454  17.776   6.240  0.3622 -0.2180 -0.0451
26918DOD     C124573   8.678   1.135  15.913  0.0811 -0.0509  0.0412
26918DOD     C224574   8.694   1.510  15.723  0.2287 -0.0898  0.0763
26918DOD     C324575   8.590   1.990  15.713  0.1773 -0.0806  0.3250
26919DOD     C124576  19.525  26.494  14.680  0.2919  0.0354 -0.1707
26919DOD     C224577  19.650  26.132  14.995 -0.3789  0.5241  0.0037
26919DOD     C324578  19.666  26.009  15.450  0.0858  0.0958 -0.2710
26920DOD     C124579  22.234  28.494   7.097  0.1739 -0.0411  0.1629
26920DOD     C224580  21.887  28.715   7.331 -0.0628 -0.0441  0.0927
26920DOD     C324581  21.518  29.009   7.315  0.3674  0.2499 -0.3318
26921DOD     C124582   1.301  22.837   6.563 -0.1096  0.0919  0.0099
26921DOD     C224583   1.362  22.445   6.274 -0.1922 -0.0922 -0.1303
26921DOD     C324584   1.677  22.139   6.350 -0.0874  0.0857  0.1621
26922DOD     C124585  29.030  10.474   3.852 -0.1209  0.1703  0.1535
26922DOD     C224586  29.247  10.269   3.517 -0.1763 -0.0147  0.1871
26922DOD     C324587  29.397  10.511   3.169  0.0044 -0.2262 -0.0249
26923DOD     C124588  22.374  15.844  15.009 -0.0969 -0.0824 -0.0471
26923DOD     C224589  22.807  16.052  14.889 -0.0487 -0.2042  0.0285
26923DOD     C324590  22.999  16.490  14.841  0.0211  0.0414  0.2612
26924DOD     C124591  21.537  25.316   8.710 -0.1210 -0.0212 -0.1448
26924DOD     C224592  21.277  24.949   8.679 -0.3973  0.1714  0.3290
26924DOD     C324593  21.028  24.676   8.411 -0.0798  0.1394  0.3556
26925DOD     C124594  16.122  24.415  12.721 -0.0507 -0.0775  0.0163
26925DOD     C224595  16.414  24.642  12.406  0.0415  0.2040 -0.0608
26925DOD     C324596  16.643  25.043  12.474  0.0253  0.1809 -0.2742
26926DOD     C124597   2.199  23.685  10.527  0.0548 -0.1721 -0.2627
26926DOD     C224598   2.571  23.958  10.345  0.4798  0.0092  0.1785
26926DOD     C324599   3.002  23.945  10.247  0.0051  0.3235 -0.1373
26927DOD     C124600  29.065  15.683   4.607 -0.0867 -0.2487  0.0628
26927DOD     C224601  29.226  15.451   4.278  0.1413  0.1063 -0.2418
26927DOD     C324602  29.422  15.623   3.889  0.0460 -0.1687 -0.2924
26928DOD     C124603  12.071   5.138   5.491  0.1662 -0.0322 -0.1046
26928DOD     C224604  11.757   5.015   5.176 -0.0307 -0.1963  0.2497
26928DOD     C324605  11.329   5.167   5.084  0.2035  0.2096  0.1589
26929DOD     C124606   3.544   6.149  23.347  0.2947 -0.1598 -0.2472
26929DOD     C224607   3.725   6.527  23.306 -0.1260 -0.0029  0.0620
26929DOD     C324608   3.969   6.908  23.255 -0.1581 -0.2370  0.2491
26930DOD     C124609  24.875   5.389   1.557 -0.0077  0.1844  0.0406
26930DOD     C224610  24.795   5.529   1.058 -0.0470 -0.3899 -0.1751
26930DOD     C324611  25.009   5.870   0.788  0.0037  0.1344 -0.3457
26931DOD     C124612  13.142  28.740  20.450  0.2022 -0.0880  0.2052
26931DOD     C224613  12.966  28.821  20.812  0.0889  0.1782 -0.2163
26931DOD     C324614  12.613  28.960  21.054 -0.1379  0.4902 -0.0880
26932DOD     C124615  23.353  29.131  26.668 -0.1554  0.2337 -0.0806
26932DOD     C224616  23.568  29.311  26.978 -0.1129 -0.3034 -0.0391
26932DOD     C324617  23.944  29.161  27.220 -0.1469 -0.2175 -0.1139
26933DOD     C124618  22.166  17.723  25.488 -0.0096 -0.0801  0.0003
26933DOD     C224619  22.056  18.026  25.181 -0.1124 -0.1338 -0.1560
26933DOD     C324620  22.055  18.479  25.114 -0.3666 -0.1629  0.0161
26934DOD     C124621  13.641  20.166   5.406  0.2435  0.3702  0.1010
26934DOD     C224622  13.619  20.048   5.890  0.1905 -0.0816 -0.2110
26934DOD     C324623  13.327  20.286   6.226 -0.0145  0.0558  0.0026
26935DOD     C124624  20.998  25.562  12.813  0.0923  0.1985 -0.2009
26935DOD     C224625  21.394  25.388  12.923 -0.0772 -0.0614  0.1828
26935DOD     C324626  21.752  25.077  13.094 -0.1302  0.0087  0.2447
26936DOD     C124627   2.967  18.370  21.446  0.2980  0.0807  0.3816
26936DOD     C224628   2.536  18.315  21.294  0.1011 -0.0867  0.0717
26936DOD     C324629   2.137  18.368  21.062 -0.1141 -0.1911  0.0126
26937DOD     C124630  22.243  15.758  23.341 -0.1262  0.2344  0.1719
26937DOD     C224631  22.646  15.829  23.180 -0.2109  0.0746  0.3556
26937DOD     C324632  23.107  15.860  23.305 -0.0411 -0.3798  0.2174
26938DOD     C124633  14.747  11.525  17.600  0.0158  0.0848 -0.0515
26938DOD     C224634  14.615  11.088  17.792  0.0061  0.0495  0.2214
26938DOD     C324635  14.248  10.930  17.984 -0.1382  0.1585  0.0742
26939DOD     C124636  21.674   9.978   7.402 -0.0794  0.2792 -0.0720
26939DOD     C224637  21.741   9.487   7.195 -0.2045 -0.0813  0.1060
26939DOD     C324638  21.883   9.044   7.288 -0.1182 -0.0725 -0.1272
26940DOD     C124639  18.865   8.221   1.007  0.0928  0.0728 -0.3028
26940DOD     C224640  18.485   8.454   1.160  0.0791  0.1813  0.1978
26940DOD     C324641  18.394   8.613   1.609  0.1633 -0.0371 -0.1425
26941DOD     C124642  18.935   3.960  18.599  0.0284  0.1885  0.0388
26941DOD     C224643  18.550   4.120  18.412 -0.0304  0.2913  0.3485
26941DOD     C324644  18.095   4.237  18.411 -0.1091 -0.0230 -0.0900
26942DOD     C124645  29.494   9.475  17.873 -0.0622 -0.0014  0.2600
26942DOD     C224646  29.516   9.658  17.402  0.1124  0.2478  0.3510
26942DOD     C324647  29.524   9.818  16.951  0.1926 -0.2666  0.2599
26943DOD     C124648   6.944  15.058   7.840 -0.0965 -0.2732  0.0350
26943DOD     C224649   7.281  14.699   7.784 -0.1276  0.3327 -0.2851
26943DOD     C324650   7.558  14.308   7.705 -0.2702 -0.1017  0.0137
26944DOD     C124651  20.652  15.119  26.363 -0.2087  0.0198 -0.1719
26944DOD     C224652  20.829  15.136  26.792  0.0933 -0.0246  0.1854
26944DOD     C324653  21.047  14.758  26.953  0.0416 -0.0855 -0.0249
26945DOD     C124654  13.339   1.390   8.134  0.0560 -0.3617 -0.0250
26945DOD     C224655  13.396   0.906   8.042 -0.0413  0.1233 -0.0622
26945DOD     C324656  13.434   0.415   7.915 -0.1994 -0.0372  0.2145
26946DOD     C124657   3.651   5.519   5.783  0.2210 -0.1264  0.0798
26946DOD     C224658   3.407   5.174   5.582  0.0986 -0.0574  0.0683
26946DOD     C324659   3.228   4.843   5.302 -0.3924 -0.0192 -0.0497
26947DOD     C124660  15.930  10.000  13.377  0.1601  0.1491  0.1082
26947DOD     C224661  16.016   9.516  13.269  0.2922 -0.1881  0.1650
26947DOD     C324662  16.114   9.149  13.511 -0.0123  0.0526  0.3343
26948DOD     C124663  10.890  15.448   4.910 -0.1136  0.0942 -0.2612
26948DOD     C224664  10.789  15.274   4.488  0.1120 -0.0868  0.1785
26948DOD     C324665  10.468  15.211   4.168  0.1633 -0.1675  0.1347
26949DOD     C124666  15.472  13.308  25.901 -0.2163 -0.1340 -0.2284
26949DOD     C224667  15.115  13.013  25.964 -0.1341 -0.0561  0.0172
26949DOD     C324668  15.064  12.586  26.193  0.0673  0.3185 -0.2178
26950DOD     C124669   3.675   2.601  28.065  0.0733 -0.2400 -0.0625
26950DOD     C224670   3.776   2.450  27.621 -0.1721  0.1420 -0.0430
26950DOD     C324671   3.854   2.406  27.165 -0.0223 -0.1671 -0.1004
26951DOD     C124672   4.946  20.444   8.189  0.4033  0.2846  0.1839
26951DOD     C224673   4.918  20.114   7.945  0.0953  0.0143 -0.1820
26951DOD     C324674   4.859  19.721   7.752  0.1112  0.1633  0.2210
26952DOD     C124675  22.757  11.462  21.102 -0.4512 -0.2212  0.0198
26952DOD     C224676  22.574  11.264  21.467  0.0067 -0.6457 -0.3868
26952DOD     C324677  22.570  10.860  21.742  0.0485 -0.1277  0.2680
26953DOD     C124678  23.223  19.212  21.460 -0.0250 -0.1233  0.1843
26953DOD     C224679  22.761  19.196  21.560 -0.0238 -0.2022  0.1591
26953DOD     C324680  22.379  19.081  21.362  0.0212 -0.1112 -0.0590
26954DOD     C124681  25.789  26.143  13.504 -0.3054 -0.0767 -0.1198
26954DOD     C224682  25.791  26.622  13.610  0.0763 -0.0252  0.2786
26954DOD     C324683  26.155  26.861  13.681  0.1029 -0.1353  0.0535
26955DOD     C124684  20.122  12.371   8.564 -0.0517 -0.0534 -0.0113
26955DOD     C224685  20.496  12.244   8.366 -0.1343  0.4638 -0.2821
26955DOD     C324686  20.809  12.165   7.948 -0.0627  0.4026 -0.0008
26956DOD     C124687  17.979  13.489   5.937  0.0193 -0.0843 -0.1567
26956DOD     C224688  18.343  13.182   5.990  0.2514 -0.0608 -0.2988
26956DOD     C324689  18.799  13.150   5.909  0.2169  0.3849  0.0361
26957DOD     C124690  27.101   5.135  20.341  0.0390 -0.0960 -0.1002
26957DOD     C224691  27.393   5.432  20.549 -0.1788  0.0285  0.2797
26957DOD     C324692  27.454   5.876  20.361 -0.2222 -0.2686  0.0213
26958DOD     C124693  23.909  15.757  28.925  0.4280 -0.0307 -0.1433
26958DOD     C224694  24.357  15.822  29.013 -0.3307 -0.2052 -0.0846
26958DOD     C324695  24.803  15.754  28.844 -0.3856 -0.3914 -0.0435
26959DOD     C124696   7.941  17.621   3.696 -0.0066  0.1419 -0.2780
26959DOD     C224697   7.740  17.540   3.352  0.2108  0.1683 -0.0135
26959DOD     C324698   7.396  17.613   3.050  0.3176  0.2361  0.3268
26960DOD     C124699   4.018  22.638   4.034  0.0973  0.2390  0.2670
26960DOD     C224700   3.696  22.873   3.736  0.0811  0.1253 -0.1153
26960DOD     C324701   3.218  22.932   3.752 -0.0419 -0.2278 -0.3738
26961DOD     C124702  25.940  22.189   0.697 -0.3162  0.0723  0.0047
26961DOD     C224703  26.298  22.267   0.422 -0.0501  0.0598  0.4421
26961DOD     C324704  26.712  22.252   0.173  0.0438 -0.1544 -0.0940
26962DOD     C124705   0.640   2.920  26.835 -0.3025  0.0816  0.2284
26962DOD     C224706   0.343   3.281  26.642  0.0092 -0.2842 -0.1527
26962DOD     C324707   0.287   3.670  26.418 -0.0503  0.0142  0.0608
26963DOD     C124708  19.089  23.420   1.540 -0.0886 -0.0436 -0.2257
26963DOD     C224709  19.056  22.982   1.712 -0.2829 -0.0682 -0.2141
26963DOD     C324710  19.225  22.702   2.017  0.3448  0.1078 -0.0441
26964DOD     C124711   3.278  30.149  13.330 -0.0024  0.3199  0.1257
26964DOD     C224712   3.097   0.197  13.578  0.1774  0.1714 -0.0865
26964DOD     C324713   2.757   0.466  13.686 -0.0642 -0.2485 -0.4123
26965DOD     C124714   5.959  28.811   3.950  0.0451  0.2163  0.0936
26965DOD     C224715   5.625  29.167   3.995  0.3487  0.0869 -0.2582
26965DOD     C324716   5.241  29.140   4.257 -0.0558  0.0493 -0.1794
26966DOD     C124717  26.440  20.642  13.613 -0.0410 -0.1835 -0.0804
26966DOD     C224718  25.942  20.566  13.727 -0.3001  0.0142 -0.2982
26966DOD     C324719  25.681  20.448  14.048  0.0896  0.1500 -0.1627
26967DOD     C124720   2.787   9.652   5.455 -0.2052 -0.1327 -0.1871
26967DOD     C224721   2.414   9.966   5.447  0.1992 -0.0014 -0.4538
26967DOD     C324722   2.044   9.952   5.792 -0.0009  0.0696 -0.0720
26968DOD     C124723   3.058  18.298   9.423 -0.0317  0.1671  0.4528
26968DOD     C224724   3.488  18.088   9.398 -0.0513 -0.1060  0.2452
26968DOD     C324725   3.879  17.860   9.152 -0.2628  0.1642 -0.1361
26969DOD     C124726  24.567  21.999  12.238 -0.1320  0.0744 -0.0911
26969DOD     C224727  24.115  22.180  12.165  0.0709  0.1985  0.0367
26969DOD     C324728  23.733  22.332  12.269  0.1328  0.2314 -0.1271
26970DOD     C124729  26.358  20.914  16.924 -0.2891  0.0975 -0.0401
26970DOD     C224730  26.048  21.155  16.733  0.1109  0.0619  0.1337
26970DOD     C324731  25.678  21.376  16.634 -0.2062 -0.0159  0.0021
26971DOD     C124732   1.082   4.588  11.838 -0.0260  0.1008 -0.0239
26971DOD     C224733   0.807   4.812  12.126  0.0170 -0.1932 -0.3570
26971DOD     C324734   0.421   5.025  12.094  0.0894 -0.2371 -0.2444
26972DOD     C124735  22.099  10.225   2.491  0.1752 -0.2862 -0.0332
26972DOD     C224736  22.505  10.060   2.395 -0.0251 -0.4286 -0.2139
26972DOD     C324737  22.901   9.883   2.237 -0.1619  0.0222  0.0359
26973DOD     C124738  16.623  23.207  20.103 -0.0945 -0.2918 -0.1182
26973DOD     C224739  16.232  23.266  20.387  0.0045  0.0058 -0.0475
26973DOD     C324740  15.823  23.046  20.413 -0.0886 -0.0151 -0.1513
26974DOD     C124741  29.692  12.812  20.090 -0.4863 -0.4202  0.0759
26974DOD     C224742  29.550  13.089  20.399 -0.2749 -0.1082 -0.0571
26974DOD     C324743  29.518  12.909  20.835 -0.0234  0.0580 -0.0208
26975DOD     C124744   2.917   7.410   5.069  0.3703  0.0500 -0.3658
26975DOD     C224745   2.764   7.750   5.367 -0.0654  0.1484  0.1643
26975DOD     C324746   2.641   8.194   5.425  0.0209 -0.0626 -0.1618
26976DOD     C124747  20.774  24.420   2.765 -0.0260  0.3433  0.2404
26976DOD     C224748  20.900  24.460   2.361  0.0709  0.0382 -0.1886
26976DOD     C324749  21.104  24.193   2.033 -0.0161  0.2770 -0.0542
26977DOD     C124750  20.888  27.280   0.516 -0.1079  0.0838 -0.0263
26977DOD     C224751  20.894  27.379   0.063  0.0917 -0.4510  0.2855
26977DOD     C324752  21.004  27.668  30.040  0.3378 -0.2376  0.0383
26978DOD     C124753   5.135  22.636  21.982  0.3835 -0.0269  0.1545
26978DOD     C224754   4.680  22.587  21.797  0.2498 -0.2666  0.2493
26978DOD     C324755   4.308  22.819  21.711  0.1963  0.1710  0.1037
26979DOD     C124756  21.319   8.582  10.484  0.0156  0.1353  0.0167
26979DOD     C224757  20.989   8.635  10.124  0.1451  0.1526 -0.0455
26979DOD     C324758  20.528   8.696  10.040 -0.0189  0.2169 -0.3687
26980DOD     C124759   2.395   5.815  11.032  0.0647 -0.0833  0.1708
26980DOD     C224760   2.087   5.563  10.744 -0.2500  0.0519 -0.1461
26980DOD     C324761   1.948   5.127  10.580 -0.4384  0.0895  0.0417
26981DOD     C124762   5.847  10.947   5.748  0.0654 -0.0046  0.1214
26981DOD     C224763   5.799  11.208   6.161 -0.0600  0.0773 -0.2395
26981DOD     C324764   5.946  11.645   6.296  0.0339 -0.0165  0.1103
26982DOD     C124765  14.800  14.569  11.061  0.0897  0.3436 -0.0747
26982DOD     C224766  15.162  14.442  11.315 -0.1302  0.1692 -0.2464
26982DOD     C324767  15.327  14.536  11.757 -0.1473 -0.0496  0.3313
26983DOD     C124768   9.324  22.483   2.480  0.5148 -0.0210 -0.0363
26983DOD     C224769   9.676  22.268   2.223  0.2205  0.0415  0.1605
26983DOD     C324770   9.915  22.471   1.833  0.0952  0.0524  0.0078
26984DOD     C124771   1.293   0.111  10.440  0.1940  0.0401  0.0326
26984DOD     C224772   1.129  30.009  10.307  0.1392  0.2305  0.0132
26984DOD     C324773   0.827  29.934   9.920  0.2667  0.3017 -0.2333
26985DOD     C124774  24.984   9.337   9.513  0.0831  0.0128 -0.1829
26985DOD     C224775  24.509   9.409   9.463 -0.0346  0.1568 -0.3383
26985DOD     C324776  24.021   9.438   9.459  0.1031  0.0699  0.2308
26986DOD     C124777  18.544   9.425  12.131  0.3789  0.0040  0.2858
26986DOD     C224778  18.722   9.436  12.546  0.0021  0.2387  0.0946
26986DOD     C324779  18.743   9.769  12.907 -0.0792 -0.0481 -0.1191
26987DOD     C124780  22.915  23.037   7.130 -0.0712 -0.1415  0.0994
26987DOD     C224781  23.117  23.272   6.773 -0.1421 -0.0331 -0.2390
26987DOD     C324782  23.484  23.104   6.536  0.0984  0.0938 -0.1278
26988DOD     C124783  25.228   9.090  21.482 -0.0604 -0.1497  0.3454
26988DOD     C224784  25.662   9.181  21.279  0.0467  0.0847 -0.2486
26988DOD     C324785  26.015   9.109  21.008 -0.3004  0.2531 -0.2269
26989DOD     C124786   1.940  13.610   7.751 -0.0593  0.0280  0.1578
26989DOD     C224787   1.796  13.522   8.166  0.1462  0.2124  0.3136
26989DOD     C324788   1.774  13.543   8.597  0.0404 -0.0313  0.0325
26990DOD     C124789  25.987   6.012  22.720  0.0077  0.1793  0.2099
26990DOD     C224790  25.739   5.632  22.665  0.1070  0.2245  0.1499
26990DOD     C324791  25.400   5.347  22.453  0.0518 -0.2403 -0.2002
26991DOD     C124792  12.719  20.455  12.743  0.2632 -0.0995 -0.0324
26991DOD     C224793  12.959  20.414  12.299 -0.0150  0.2812  0.2302
26991DOD     C324794  13.041  20.734  11.907  0.2449  0.0160  0.0219
26992DOD     C124795  20.412   3.761  28.062 -0.0212 -0.3059 -0.1657
26992DOD     C224796  20.402   4.219  28.030  0.2830  0.1649  0.5110
26992DOD     C324797  20.642   4.481  28.279 -0.2122  0.0503 -0.2230
26993DOD     C124798   5.500  24.153  28.829  0.1152 -0.0965  0.2277
26993DOD     C224799   5.505  24.162  29.287 -0.2334  0.0868 -0.1522
26993DOD     C324800   5.928  24.233  29.519 -0.1356 -0.3995  0.1550
26994DOD     C124801   0.390   3.937  25.252  0.0324  0.0849 -0.3878
26994DOD     C224802   0.443   4.351  25.488 -0.1607 -0.1174 -0.0267
26994DOD     C324803   0.318   4.743  25.646  0.1594 -0.1949 -0.0357
26995DOD     C124804  12.329  29.110  26.873  0.2214  0.3509 -0.0629
26995DOD     C224805  11.940  29.291  26.672 -0.0164 -0.2303  0.1023
26995DOD     C324806  11.424  29.265  26.742  0.1634  0.4098 -0.1551
26996DOD     C124807   2.458  15.404  12.053 -0.2472  0.1654 -0.2417
26996DOD     C224808   2.138  15.134  12.243  0.1583  0.2151  0.2071
26996DOD     C324809   1.822  14.828  12.331 -0.0063  0.0268  0.3777
26997DOD     C124810   6.099  15.790  -0.027  0.0946 -0.1334 -0.0703
26997DOD     C224811   6.218  15.497   0.270  0.1052 -0.2062 -0.2458
26997DOD     C324812   6.461  15.206   0.482 -0.1939  0.0074 -0.5460
26998DOD     C124813  20.690   2.451  27.247 -0.0717 -0.2411  0.0575
26998DOD     C224814  20.911   2.115  27.521 -0.1625  0.0608 -0.2082
26998DOD     C324815  20.772   1.848  27.863  0.2252 -0.0201  0.0988
26999DOD     C124816   8.512   4.264   7.866 -0.1488 -0.0830  0.0726
26999DOD     C224817   8.217   4.125   7.528 -0.0923 -0.1899 -0.0180
26999DOD     C324818   8.078   4.164   7.090 -0.0542 -0.3554  0.0499
27000DOD     C124819   0.049  13.610  12.978  0.0272 -0.0737  0.0011
27000DOD     C224820  30.271  13.165  13.098 -0.0820  0.3535 -0.1551
27000DOD     C324821  30.036  12.898  13.453 -0.0116  0.0520 -0.0491
27001DOD     C124822  19.373   3.004   5.857 -0.1522 -0.1575  0.1896
27001DOD     C224823  19.024   3.125   6.159  0.0292 -0.1873  0.0523
27001DOD     C324824  18.568   3.198   6.128 -0.0778  0.3022 -0.3380
27002DOD     C124825   9.077   8.499  27.249 -0.0840 -0.1053  0.2143
27002DOD     C224826   8.874   8.588  26.839  0.0710  0.2133 -0.1799
27002DOD     C324827   8.614   8.217  26.684 -0.0779  0.2422 -0.0731
27003DOD     C124828  15.931   6.595  23.941  0.2149 -0.2114 -0.2160
27003DOD     C224829  16.060   6.955  24.129 -0.1869  0.1261  0.1361
27003DOD     C324830  15.937   7.360  24.366  0.1389 -0.0878  0.0183
27004DOD     C124831   7.041  25.869   7.491  0.0342 -0.0705  0.0372
27004DOD     C224832   6.559  25.967   7.528 -0.1176  0.1674 -0.2398
27004DOD     C324833   6.303  26.325   7.463  0.0151 -0.2287 -0.0237
27005DOD     C124834  21.999  29.939  10.258 -0.2020  0.1379  0.0156
27005DOD     C224835  21.637  30.063   9.985  0.1594  0.1293 -0.1032
27005DOD     C324836  21.149  30.120   9.905 -0.0654 -0.0581  0.0673
27006DOD     C124837  20.078  20.767   4.151 -0.0319 -0.1231  0.1061
27006DOD     C224838  19.735  20.490   3.997  0.3290 -0.1683 -0.1553
27006DOD     C324839  19.280  20.293   3.901 -0.1881  0.1566  0.0528
27007DOD     C124840   7.345  12.623   5.624  0.0977  0.0224 -0.3959
27007DOD     C224841   7.046  12.915   5.869  0.2663 -0.2693 -0.0808
27007DOD     C324842   7.209  13.324   5.981  0.1113 -0.1613 -0.1051
27008DOD     C124843   8.156  21.995  23.141 -0.1414 -0.2416 -0.0441
27008DOD     C224844   8.392  21.626  23.256  0.0612  0.3807  0.2915
27008DOD     C324845   8.790  21.492  23.492 -0.3069  0.0783  0.1691
27009DOD     C124846  18.954  15.513  27.377 -0.2829 -0.1553  0.2637
27009DOD     C224847  19.139  15.913  27.248  0.0213 -0.2571 -0.1932
27009DOD     C324848  19.531  16.115  27.121  0.0096  0.2987  0.1389
27010DOD     C124849   1.631   1.567   3.051 -0.0333  0.0648  0.0663
27010DOD     C224850   1.523   1.241   2.753 -0.2384  0.1362 -0.1297
27010DOD     C324851   1.708   0.964   2.448 -0.0626 -0.1261  0.1048
27011DOD     C124852  27.005  18.772  28.700 -0.0248 -0.0265  0.0067
27011DOD     C224853  26.918  18.879  29.133 -0.0949 -0.0753  0.1444
27011DOD     C324854  26.880  19.263  29.409  0.0755 -0.1591  0.0951
27012DOD     C124855  18.666  23.870   8.430  0.1375 -0.2393  0.1972
27012DOD     C224856  18.249  23.976   8.245  0.0950 -0.0426 -0.0062
27012DOD     C324857  17.787  23.756   8.079  0.2493  0.2219 -0.2911
27013DOD     C124858   6.842  22.405  13.425 -0.2867 -0.1346  0.1647
27013DOD     C224859   6.900  22.557  12.998  0.0457  0.0237 -0.0529
27013DOD     C324860   6.976  22.337  12.574  0.0528  0.1187 -0.2788
27014DOD     C124861  17.884  12.538   7.875  0.1045 -0.1420  0.0329
27014DOD     C224862  18.211  12.735   8.148 -0.1411  0.0467  0.0024
27014DOD     C324863  18.714  12.869   8.229  0.0751  0.1009  0.3738
27015DOD     C124864  21.697   4.579   5.449  0.1941 -0.2862 -0.0957
27015DOD     C224865  21.265   4.453   5.626  0.2728 -0.0311 -0.0351
27015DOD     C324866  20.842   4.574   5.663  0.0484  0.0816  0.0790
27016DOD     C124867  25.376  22.353   5.849 -0.1254 -0.0679 -0.1328
27016DOD     C224868  25.290  22.322   6.275 -0.1665  0.2671 -0.0656
27016DOD     C324869  24.926  22.142   6.531 -0.2270  0.0528  0.0173
27017DOD     C124870  27.242   5.644  12.437  0.0804 -0.0254  0.0028
27017DOD     C224871  26.760   5.792  12.612 -0.5128 -0.0659  0.3384
27017DOD     C324872  26.585   6.153  12.867  0.3391  0.0533 -0.3046
27018DOD     C124873   4.983  22.156  13.878 -0.1713 -0.1687 -0.2510
27018DOD     C224874   4.918  22.148  13.398 -0.1573  0.0352 -0.3174
27018DOD     C324875   4.681  21.932  13.129  0.0301  0.1115  0.2334
27019DOD     C124876  13.895  27.661  14.595 -0.1262 -0.2475  0.0136
27019DOD     C224877  13.612  27.345  14.698 -0.0150  0.1434  0.0777
27019DOD     C324878  13.405  26.884  14.568 -0.4486 -0.1605 -0.0123
27020DOD     C124879  29.350   8.161  28.980  0.2645 -0.0783 -0.4155
27020DOD     C224880  29.441   8.493  29.243  0.0871 -0.0865 -0.2960
27020DOD     C324881  29.791   8.852  29.345 -0.1117  0.1820  0.0881
27021DOD     C124882   4.366   8.660  28.665 -0.2152  0.4741  0.2267
27021DOD     C224883   4.413   8.541  28.215 -0.0108 -0.1046  0.0242
27021DOD     C324884   4.739   8.729  27.969  0.2361 -0.1049 -0.4232
27022DOD     C124885   9.562   0.569  18.093  0.0263  0.0885  0.1312
27022DOD     C224886   9.151   0.449  17.805  0.2734  0.1426  0.2592
27022DOD     C324887   8.789   0.338  17.535 -0.2758  0.1001 -0.0244
27023DOD     C124888  17.658   1.442  26.817  0.2766 -0.2268  0.2287
27023DOD     C224889  17.329   1.113  26.824  0.0247  0.0799 -0.0582
27023DOD     C324890  16.949   0.822  26.761  0.3212  0.1780  0.2888
27024DOD     C124891  12.255  20.272  18.735 -0.3223  0.0121  0.2479
27024DOD     C224892  12.139  20.374  19.191  0.0752 -0.2398 -0.1083
27024DOD     C324893  11.701  20.301  19.421 -0.0268  0.0595 -0.3835
27025DOD     C124894  23.143  21.652  12.299  0.1333 -0.1744 -0.0200
27025DOD     C224895  22.769  21.440  12.437 -0.0561  0.3069  0.2014
27025DOD     C324896  22.500  21.066  12.453  0.0960  0.1496  0.0238
27026DOD     C124897   8.781  16.624  21.883 -0.1402  0.0663  0.2246
27026DOD     C224898   8.918  16.958  21.647  0.1546  0.0853 -0.2109
27026DOD     C324899   8.920  17.374  21.451 -0.1325  0.2006 -0.1915
27027DOD     C124900  11.768  10.260   1.767  0.0405 -0.1236  0.0745
27027DOD     C224901  12.098   9.944   2.007  0.0753  0.0029  0.1542
27027DOD     C324902  12.350   9.664   1.713  0.4925  0.1614 -0.0455
27028DOD     C124903  29.074   0.473   9.920 -0.0564 -0.3256 -0.0049
27028DOD     C224904  29.153   0.104  10.111 -0.1550  0.2286  0.0900
27028DOD     C324905  28.984  30.052  10.121  0.2419 -0.0452  0.0718
27029DOD     C124906   7.985   1.098   7.454 -0.0538 -0.0415 -0.1695
27029DOD     C224907   8.129   1.434   7.304  0.0277  0.0577 -0.0505
27029DOD     C324908   8.457   1.789   7.283  0.1412  0.1228  0.2040
27030DOD     C124909   1.085  14.929  28.508  0.1408 -0.1201 -0.2008
27030DOD     C224910   1.364  14.996  28.170  0.0083  0.1249 -0.0239
27030DOD     C324911   1.744  14.979  27.881 -0.0419 -0.0188 -0.0587
27031DOD     C124912  18.489  16.018  23.322  0.0531 -0.0327  0.0935
27031DOD     C224913  18.442  16.307  22.927 -0.0550  0.0010 -0.0781
27031DOD     C324914  18.517  16.199  22.504 -0.0969 -0.0341 -0.1256
27032DOD     C124915   9.769  10.092  21.843  0.2078  0.1649  0.2844
27032DOD     C224916   9.855  10.587  21.769  0.1303  0.1800 -0.0710
27032DOD     C324917  10.119  10.947  21.652  0.0835 -0.2909  0.0463
27033DOD     C124918  22.879  11.610  12.181  0.1555  0.0392  0.0054
27033DOD     C224919  22.647  11.239  12.329 -0.0772  0.1410 -0.3250
27033DOD     C324920  22.235  11.041  12.449  0.2663 -0.1931  0.0726
27034DOD     C124921  20.744   0.365   1.078  0.1617 -0.1829 -0.0144
27034DOD     C224922  20.506   0.164   1.502  0.0277  0.0954  0.0107
27034DOD     C324923  20.293  30.036   1.596  0.1461 -0.1046  0.1420
27035DOD     C124924  22.752  12.929   7.943  0.0344 -0.3032  0.0635
27035DOD     C224925  22.330  12.917   7.822 -0.2128 -0.0765  0.0116
27035DOD     C324926  21.881  12.804   7.725  0.0462 -0.0570 -0.0862
27036DOD     C124927  28.369   9.753  24.007 -0.2807 -0.1306  0.0685
27036DOD     C224928  28.460  10.097  24.305  0.0598  0.0991 -0.0527
27036DOD     C324929  28.602  10.482  24.510  0.1524  0.1552 -0.0894
27037DOD     C124930  25.277   4.610  29.223  0.0482  0.3004 -0.2685
27037DOD     C224931  25.597   4.281  29.239  0.3078  0.1143  0.1321
27037DOD     C324932  26.039   4.325  29.254  0.1630  0.1426 -0.2848
27038DOD     C124933  10.412  23.020  14.518 -0.0102 -0.1457  0.0701
27038DOD     C224934  10.047  23.074  14.822 -0.1048 -0.0281 -0.1729
27038DOD     C324935   9.622  23.166  14.780 -0.1379  0.0795 -0.0073
27039DOD     C124936   7.114  29.103   0.856 -0.1971  0.2412  0.1950
27039DOD     C224937   6.983  29.009   0.445 -0.0930  0.1015 -0.1682
27039DOD     C324938   6.563  29.057   0.303 -0.1959 -0.1428  0.2073
27040DOD     C124939  11.611   9.220  22.152 -0.0975  0.2848 -0.2883
27040DOD     C224940  12.044   9.254  22.359 -0.0881  0.0865  0.1163
27040DOD     C324941  12.538   9.289  22.403  0.1181  0.2812 -0.3425
27041DOD     C124942   8.637  26.295   0.866  0.3280  0.1019  0.0362
27041DOD     C224943   8.534  26.699   0.996 -0.0685  0.0203  0.0333
27041DOD     C324944   8.248  27.015   0.772  0.0479 -0.0433 -0.2700
27042DOD     C124945   9.194  15.632   9.073  0.3139  0.1478 -0.3297
27042DOD     C224946   9.465  16.005   9.176 -0.3015 -0.0346  0.0913
27042DOD     C324947   9.852  16.145   9.073  0.0458 -0.1172 -0.1983
27043DOD     C124948  15.263   9.812  25.373 -0.2181 -0.0051  0.1692
27043DOD     C224949  15.001   9.749  24.947  0.0799 -0.0219 -0.0623
27043DOD     C324950  14.985   9.500  24.555 -0.0502  0.1131 -0.0243
27044DOD     C124951   9.901  17.655  18.125  0.1724  0.0409  0.0644
27044DOD     C224952  10.356  17.717  18.187 -0.3106  0.0557  0.0348
27044DOD     C324953  10.824  17.697  18.144  0.1642  0.1013  0.2042
27045DOD     C124954  19.402  13.444  22.026  0.4571 -0.1629 -0.2090
27045DOD     C224955  19.855  13.365  22.131  0.0138 -0.0340 -0.0381
27045DOD     C324956  20.283  13.206  21.987  0.0686  0.1374 -0.1836
27046DOD     C124957  17.468  27.590   5.987 -0.2475  0.0101  0.2045
27046DOD     C224958  17.732  27.935   6.047 -0.0061  0.0717 -0.1822
27046DOD     C324959  17.784  28.384   5.849 -0.2095  0.0910  0.0374
27047DOD     C124960   5.913  25.154   7.519 -0.0777 -0.1009 -0.1280
27047DOD     C224961   5.780  24.919   7.882  0.1072 -0.1034 -0.2202
27047DOD     C324962   5.919  24.842   8.328 -0.0011 -0.2294 -0.2344
27048DOD     C124963  22.812   0.783   0.883 -0.0085 -0.2272 -0.1843
27048DOD     C224964  22.694   0.895   1.272  0.0120  0.2360  0.1973
27048DOD     C324965  22.704   0.773   1.723 -0.2140  0.2556 -0.0758
27049DOD     C124966   5.125  19.277   4.474 -0.3258 -0.0216 -0.2112
27049DOD     C224967   5.604  19.298   4.543 -0.1873 -0.1996  0.2986
27049DOD     C324968   5.854  19.406   4.884 -0.1101 -0.0472 -0.0960
27050DOD     C124969   4.562  27.751  19.235  0.0991 -0.0797  0.4198
27050DOD     C224970   4.535  27.303  19.052  0.0976  0.0602  0.1486
27050DOD     C324971   4.505  26.853  19.173  0.2366 -0.0037  0.2053
27051DOD     C124972   8.288   1.338  27.578 -0.2553  0.1182 -0.2083
27051DOD     C224973   8.413   0.935  27.797 -0.0985 -0.0784 -0.0907
27051DOD     C324974   8.325   0.521  27.962  0.1363  0.0451  0.0214
27052DOD     C124975   9.802  10.929  10.498 -0.0848  0.3412  0.2008
27052DOD     C224976   9.711  11.393  10.413  0.2466  0.1878 -0.1312
27052DOD     C324977   9.596  11.804  10.252 -0.1025 -0.0584 -0.2013
27053DOD     C124978  22.223  13.229   2.528 -0.0534  0.4195 -0.3525
27053DOD     C224979  21.821  13.529   2.559 -0.3139  0.3081  0.1333
27053DOD     C324980  21.585  13.781   2.868  0.1574  0.0108 -0.0794
27054DOD     C124981   1.085   0.063   8.000 -0.0129 -0.2443  0.0106
27054DOD     C224982   0.875  30.106   8.323  0.3922  0.3343  0.1223
27054DOD     C324983   0.793  29.757   8.613  0.2181  0.2196 -0.0865
27055DOD     C124984   6.223   0.799  29.385 -0.0279  0.2015  0.0575
27055DOD     C224985   6.574   0.732  29.088 -0.3628 -0.0005  0.1034
27055DOD     C324986   6.900   0.467  29.234 -0.1483 -0.1447 -0.2349
27056DOD     C124987  13.348  11.434   1.788  0.1108 -0.1995  0.1406
27056DOD     C224988  13.356  11.530   1.294 -0.2571  0.0547  0.1977
27056DOD     C324989  13.441  11.900   1.070  0.0511 -0.2011  0.0938
27057DOD     C124990  26.023  19.444   0.618  0.0236 -0.0781 -0.3592
27057DOD     C224991  26.283  19.315   0.243 -0.1827 -0.1331 -0.2743
27057DOD     C324992  26.687  19.482  30.320 -0.0199  0.1478  0.1672
27058DOD     C124993  22.318   2.207   5.754  0.1670 -0.2519  0.0952
27058DOD     C224994  22.097   2.026   6.124 -0.0105  0.1411  0.0259
27058DOD     C324995  21.911   1.722   6.452 -0.2788 -0.0151 -0.2391
27059DOD     C124996   6.579  14.498  22.401 -0.1411 -0.1008  0.1071
27059DOD     C224997   7.041  14.325  22.486  0.0328  0.0502 -0.2408
27059DOD     C324998   7.389  14.034  22.634 -0.2671 -0.1823 -0.1197
27060DOD     C124999  11.538   1.310  20.904 -0.2136 -0.0032  0.0546
27060DOD     C225000  11.833   1.468  20.602  0.1016 -0.1308 -0.2128
27060DOD     C325001  11.992   1.331  20.196  0.1548 -0.1525  0.0199
27061DOD     C125002   2.640   8.872  27.604 -0.0593  0.1814 -0.1934
27061DOD     C225003   2.328   9.234  27.594  0.1731 -0.0837 -0.0047
27061DOD     C325004   1.932   9.500  27.540 -0.0784 -0.2249 -0.1855
27062DOD     C125005  12.814   3.206  16.656  0.0787 -0.0039 -0.1448
27062DOD     C225006  12.784   2.955  17.069 -0.1397  0.0713  0.1830
27062DOD     C325007  12.755   2.643  17.409 -0.0702 -0.1389 -0.2110
27063DOD     C125008  22.309   6.808  11.909 -0.3108 -0.0031 -0.0792
27063DOD     C225009  22.512   6.602  12.250  0.0780  0.0132 -0.0698
27063DOD     C325010  22.648   6.374  12.627  0.2436 -0.2758  0.0874
27064DOD     C125011  28.178  13.419   8.568 -0.0110  0.2620 -0.3328
27064DOD     C225012  28.579  13.519   8.555  0.0383  0.0767 -0.1237
27064DOD     C325013  28.886  13.234   8.770  0.3233  0.1155 -0.0792
27065DOD     C125014  15.149  20.719  27.750  0.3069  0.0133 -0.1318
27065DOD     C225015  15.174  20.383  28.083 -0.2700 -0.2929 -0.3976
27065DOD     C325016  14.984  20.315  28.492 -0.5872 -0.0708  0.1097
27066DOD     C125017  15.882   7.586  20.191 -0.3529  0.1850 -0.1375
27066DOD     C225018  15.728   7.866  19.861  0.0892 -0.2363  0.1067
27066DOD     C325019  15.366   8.077  19.623 -0.2006 -0.1630 -0.0008
27067DOD     C125020  27.874  12.126  19.859  0.0871 -0.1515 -0.1209
27067DOD     C225021  28.072  12.361  19.496 -0.0117 -0.0221  0.3005
27067DOD     C325022  28.140  12.328  19.061 -0.2201  0.3067 -0.1520
27068DOD     C125023  15.706  23.017   7.560 -0.1892 -0.4395  0.2826
27068DOD     C225024  15.423  22.690   7.467  0.1877 -0.3778 -0.0373
27068DOD     C325025  15.277  22.499   7.097 -0.2485 -0.3757  0.3367
27069DOD     C125026   3.256   8.371  23.684  0.1756 -0.2282  0.1183
27069DOD     C225027   2.829   8.483  23.873  0.1341  0.0803  0.1312
27069DOD     C325028   2.506   8.695  23.684  0.1419  0.0224 -0.0197
27070DOD     C125029  28.541   9.018  26.487 -0.0902 -0.0456  0.3083
27070DOD     C225030  28.901   9.135  26.231  0.0250  0.0352 -0.0555
27070DOD     C325031  29.276   9.388  26.107  0.1002 -0.3963  0.0722
27071DOD     C125032  22.292   2.404  29.451  0.0561  0.1944 -0.2632
27071DOD     C225033  22.697   2.476  29.200  0.0999 -0.2930 -0.1704
27071DOD     C325034  22.974   2.189  28.954 -0.1085  0.2062 -0.1440
27072DOD     C125035  13.949  19.610  20.853  0.2688 -0.1581 -0.2140
27072DOD     C225036  13.715  19.436  20.445  0.0903 -0.1347 -0.2419
27072DOD     C325037  13.529  19.017  20.296 -0.1856 -0.2517  0.1599
27073DOD     C125038  13.039  29.342  23.490  0.2750 -0.1621 -0.0885
27073DOD     C225039  13.274  29.757  23.398 -0.0924  0.2604 -0.1008
27073DOD     C325040  13.005  30.139  23.224 -0.3929  0.1173 -0.2484
27074DOD     C125041  12.552  10.851  22.806  0.0505 -0.0406 -0.4399
27074DOD     C225042  12.360  11.225  22.579 -0.1247  0.1221  0.3162
27074DOD     C325043  12.001  11.292  22.246 -0.0930  0.2764  0.1967
27075DOD     C125044  10.945  16.634  29.183  0.0053 -0.2286  0.0555
27075DOD     C225045  10.890  17.011  28.981  0.0769 -0.1442  0.2396
27075DOD     C325046  10.772  17.172  28.600 -0.0609 -0.1990  0.2397
27076DOD     C125047   9.023  28.913   9.495 -0.2121 -0.2358  0.0005
27076DOD     C225048   9.251  28.526   9.516 -0.1410 -0.1242 -0.0190
27076DOD     C325049   9.524  28.153   9.707 -0.2518 -0.3504  0.0888
27077DOD     C125050   7.276  21.946  13.810  0.0740  0.0608  0.1269
27077DOD     C225051   6.996  22.296  13.916  0.0637 -0.0125  0.0690
27077DOD     C325052   6.743  22.550  14.256  0.2972 -0.1045  0.0500
27078DOD     C125053  14.596  30.120  15.886  0.0086 -0.1491 -0.3362
27078DOD     C225054  14.997  29.892  15.820  0.1801  0.0045 -0.1363
27078DOD     C325055  15.358  29.751  16.100  0.0092 -0.0164 -0.1488
27079DOD     C125056   3.708  16.185  24.629  0.1158 -0.1685 -0.1772
27079DOD     C225057   3.296  16.172  24.454 -0.0231  0.1394  0.1646
27079DOD     C325058   2.990  16.490  24.225 -0.0170 -0.1354 -0.0736
27080DOD     C125059  22.542  13.125  21.571  0.1179 -0.0149  0.1887
27080DOD     C225060  22.425  13.312  21.097 -0.0100 -0.3101  0.0215
27080DOD     C325061  22.323  13.466  20.628  0.0115  0.2174  0.2086
27081DOD     C125062  10.892  28.748  14.846 -0.1080 -0.1326  0.1844
27081DOD     C225063  11.166  28.418  14.976  0.1576  0.1412  0.0604
27081DOD     C325064  11.366  28.009  14.906  0.2567 -0.0083  0.2477
27082DOD     C125065   3.061  19.136  26.885  0.0484  0.1552 -0.2525
27082DOD     C225066   3.502  18.982  26.656 -0.3077 -0.0894 -0.0167
27082DOD     C325067   3.488  18.640  26.309 -0.0630 -0.1183 -0.2404
27083DOD     C125068  28.493  27.549  10.106  0.2038 -0.1415  0.0092
27083DOD     C225069  28.519  27.989  10.012 -0.0622 -0.2316  0.0667
27083DOD     C325070  28.217  28.330  10.222  0.2797 -0.2093 -0.0193
27084DOD     C125071  17.267  16.962  10.891 -0.0687  0.0412  0.2577
27084DOD     C225072  17.040  17.367  10.757 -0.2485 -0.1703  0.0962
27084DOD     C325073  16.572  17.466  10.704  0.0991 -0.1149 -0.3126
27085DOD     C125074  27.310  12.258  27.150  0.0305  0.2236 -0.1322
27085DOD     C225075  27.158  12.087  27.653 -0.2157  0.0158  0.1748
27085DOD     C325076  26.743  11.887  27.808 -0.1702  0.0981 -0.1496
27086DOD     C125077   9.441   3.309  15.279  0.2476 -0.1386 -0.1579
27086DOD     C225078   9.621   3.765  15.370 -0.1458 -0.2391  0.1695
27086DOD     C325079   9.843   4.124  15.187  0.1992  0.0306 -0.2263
27087DOD     C125080  25.852  17.899  14.321 -0.2380  0.1380  0.0369
27087DOD     C225081  26.065  18.170  14.022 -0.0809  0.0554  0.2450
27087DOD     C325082  26.366  18.386  13.732  0.1194 -0.2229  0.1783
27088DOD     C125083  28.420  21.383  11.743 -0.2850  0.6136 -0.0060
27088DOD     C225084  28.053  21.485  11.992 -0.3923 -0.1576 -0.1325
27088DOD     C325085  27.749  21.825  12.184  0.4145 -0.3820 -0.2586
27089DOD     C125086  24.776  23.761  26.966 -0.0270  0.0400  0.1043
27089DOD     C225087  25.188  23.519  27.109 -0.1466  0.1173  0.0743
27089DOD     C325088  25.636  23.408  27.243 -0.0426 -0.0622  0.0368
27090DOD     C125089  29.023   4.591  24.919  0.0439 -0.0016  0.1191
27090DOD     C225090  28.554   4.443  25.046 -0.0248 -0.1034 -0.2952
27090DOD     C325091  28.362   4.016  25.074 -0.0474  0.1343 -0.1533
27091DOD     C125092  18.139  21.685  22.143  0.0297 -0.1474  0.4177
27091DOD     C225093  18.074  21.305  21.802 -0.5351 -0.0498  0.1714
27091DOD     C325094  18.325  20.994  21.487 -0.0147 -0.1724 -0.2106
27092DOD     C125095   9.008   1.727   6.673 -0.0443 -0.0487 -0.1150
27092DOD     C225096   9.066   2.186   6.731  0.5446 -0.1414 -0.1551
27092DOD     C325097   8.932   2.608   6.614 -0.0928  0.2553  0.1159
27093DOD     C125098   7.439  26.017  23.912  0.3045  0.1223 -0.0945
27093DOD     C225099   7.716  25.920  23.538  0.0887 -0.0819  0.2284
27093DOD     C325100   8.163  25.881  23.546 -0.1145  0.0005  0.1649
27094DOD     C125101   6.622  24.017  24.473  0.2802  0.0232  0.0068
27094DOD     C225102   6.479  24.458  24.606 -0.1845 -0.1901  0.1092
27094DOD     C325103   6.473  24.932  24.679  0.1635 -0.2257 -0.3543
27095DOD     C125104  29.149  19.148   8.102  0.1828  0.2620  0.0570
27095DOD     C225105  28.698  19.218   8.136  0.1147  0.2597  0.0188
27095DOD     C325106  28.325  19.071   8.319  0.3674 -0.0437  0.1391
27096DOD     C125107   4.138  21.737  17.441 -0.1886  0.0973 -0.0033
27096DOD     C225108   4.301  21.360  17.228 -0.1496 -0.2155  0.1283
27096DOD     C325109   4.365  21.093  16.891 -0.1922 -0.0572  0.0288
27097DOD     C125110  10.971  11.498  14.790  0.1503 -0.2497 -0.1941
27097DOD     C225111  10.952  11.939  15.016  0.1408 -0.3903  0.0675
27097DOD     C325112  10.935  12.325  15.305  0.4586  0.2023  0.1282
27098DOD     C125113   0.233  13.073   2.854 -0.2455  0.0231  0.1618
27098DOD     C225114  30.181  13.349   2.952  0.2292 -0.3745 -0.1930
27098DOD     C325115  30.068  13.704   3.310 -0.0572  0.2824 -0.3656
27099DOD     C125116  16.753  27.548  13.620 -0.1406 -0.1369  0.1609
27099DOD     C225117  16.577  27.989  13.560 -0.1330 -0.0062  0.2383
27099DOD     C325118  16.448  28.379  13.828 -0.2449  0.0000 -0.0597
27100DOD     C125119   3.942  10.223  23.576  0.0965 -0.0207 -0.2660
27100DOD     C225120   4.157  10.202  23.999 -0.0952 -0.3634 -0.0265
27100DOD     C325121   4.202  10.023  24.442  0.0271  0.0772  0.2106
27101DOD     C125122   2.043   3.979  26.587  0.2682 -0.0907  0.0468
27101DOD     C225123   2.410   3.806  26.921  0.1504  0.1447  0.3115
27101DOD     C325124   2.611   3.560  27.283 -0.0130  0.1442  0.0630
27102DOD     C125125  29.755   9.185  18.583 -0.4131  0.1416  0.0280
27102DOD     C225126  29.900   9.477  18.920  0.0433  0.3355 -0.0991
27102DOD     C325127  30.059   9.900  19.176  0.1417 -0.1132 -0.2947
27103DOD     C125128  29.929  27.742   9.023  0.2102 -0.2610  0.3040
27103DOD     C225129  29.519  27.790   8.807  0.2775 -0.1229 -0.1574
27103DOD     C325130  29.129  27.959   8.633 -0.0497 -0.3027  0.1301
27104DOD     C125131  11.686  21.096   1.602 -0.1277 -0.1165  0.2089
27104DOD     C225132  11.458  20.822   1.880 -0.3293 -0.0992  0.0013
27104DOD     C325133  11.257  20.383   1.763  0.0068  0.0566  0.1302
27105DOD     C125134  18.738   2.343   2.850  0.1359 -0.1084  0.1652
27105DOD     C225135  18.452   2.017   3.096  0.2168  0.1239 -0.1329
27105DOD     C325136  18.540   1.613   3.366  0.0575  0.2499 -0.1889
27106DOD     C125137   5.115  29.759  23.782  0.3197 -0.3452  0.1613
27106DOD     C225138   5.286  30.168  23.739 -0.1967 -0.0080  0.1900
27106DOD     C325139   5.329   0.334  23.858  0.2247  0.0342 -0.0809
27107DOD     C125140   4.759   2.569  24.267  0.0617 -0.1818  0.3944
27107DOD     C225141   4.672   3.005  24.091  0.1800  0.2803 -0.0704
27107DOD     C325142   4.742   3.109  23.633 -0.1759  0.3094 -0.2438
27108DOD     C125143  12.374   7.383  21.126 -0.3215  0.0591 -0.0930
27108DOD     C225144  12.746   7.470  21.438 -0.1630 -0.0489  0.2667
27108DOD     C325145  13.180   7.393  21.517 -0.0446  0.0658  0.1597
27109DOD     C125146  23.238  25.103  24.916  0.0458 -0.1556 -0.2466
27109DOD     C225147  23.665  25.078  25.026 -0.1559 -0.0194  0.2153
27109DOD     C325148  24.037  25.039  24.860  0.1405  0.3142 -0.0741
27110DOD     C125149  22.116   6.772  19.359 -0.0615 -0.3180 -0.4188
27110DOD     C225150  21.848   6.490  19.585 -0.0826  0.2691  0.0878
27110DOD     C325151  21.364   6.532  19.600  0.2868  0.0077  0.1232
27111DOD     C125152   5.112  16.988  28.605 -0.2443 -0.0159 -0.1463
27111DOD     C225153   5.340  17.225  28.278 -0.2128 -0.0802 -0.0504
27111DOD     C325154   5.571  17.538  27.954  0.1050  0.5130 -0.0700
27112DOD     C125155  28.480  15.214  18.334 -0.3746  0.0399  0.0438
27112DOD     C225156  28.150  15.327  18.029 -0.0570 -0.2547  0.3838
27112DOD     C325157  27.880  15.151  17.716 -0.1572  0.1760  0.0109
27113DOD     C125158  19.367  13.377  24.110  0.1575  0.0640 -0.0906
27113DOD     C225159  19.078  13.389  24.504 -0.1833  0.0990 -0.1476
27113DOD     C325160  19.033  13.134  24.865  0.2146 -0.1618 -0.0840
27114DOD     C125161  18.970   4.439  22.840 -0.1066 -0.1805 -0.1128
27114DOD     C225162  19.322   4.128  22.634 -0.1140 -0.0210 -0.4766
27114DOD     C325163  19.513   3.825  22.339  0.1457  0.0006  0.3773
27115DOD     C125164   0.324   2.867  19.585 -0.3580 -0.3471 -0.0299
27115DOD     C225165   0.635   2.661  19.276 -0.3840  0.0264  0.0337
27115DOD     C325166   1.039   2.780  19.156 -0.1265  0.2489  0.0455
27116DOD     C125167  23.645  29.572   8.589  0.2491 -0.2136 -0.1917
27116DOD     C225168  23.422  29.454   8.203  0.2666  0.0792  0.0601
27116DOD     C325169  23.067  29.523   7.912 -0.2990 -0.0090 -0.2971
27117DOD     C125170   7.164  19.827  15.933  0.0517  0.2179 -0.2328
27117DOD     C225171   7.368  20.089  16.264  0.1710 -0.2306  0.0697
27117DOD     C325172   7.469  20.429  16.594 -0.1251 -0.2596 -0.1869
27118DOD     C125173  11.718  16.947  17.303  0.1873 -0.3146 -0.1169
27118DOD     C225174  12.178  16.989  17.243  0.0729  0.0728 -0.1132
27118DOD     C325175  12.455  17.414  17.081  0.0564  0.2307 -0.0006
27119DOD     C125176  18.224  23.297  19.928  0.2080 -0.0653 -0.2040
27119DOD     C225177  17.817  23.201  19.662 -0.1203  0.0933  0.1149
27119DOD     C325178  17.389  22.976  19.571  0.2481  0.1302  0.0095
27120DOD     C125179  28.411  21.760  12.176  0.4187 -0.1376  0.4176
27120DOD     C225180  28.176  21.880  12.586  0.1448  0.0905 -0.0575
27120DOD     C325181  27.813  21.983  12.815  0.1071  0.1223 -0.1710
27121DOD     C125182  14.027  28.656  15.679  0.2269 -0.0732  0.0063
27121DOD     C225183  13.721  28.427  15.964 -0.2501  0.2351 -0.0412
27121DOD     C325184  13.421  28.453  16.338  0.3126 -0.0355  0.0582
27122DOD     C125185  10.244   8.212   8.682 -0.0549 -0.1461 -0.1934
27122DOD     C225186  10.066   8.355   9.111 -0.0506  0.0603  0.1019
27122DOD     C325187  10.085   8.838   9.170  0.1516  0.2073  0.3899
27123DOD     C125188  23.813   9.018   8.141 -0.1692  0.3957 -0.1622
27123DOD     C225189  24.096   8.911   7.766 -0.1501  0.1858  0.0187
27123DOD     C325190  24.540   8.831   7.695 -0.0210 -0.0011  0.0666
27124DOD     C125191  22.386  24.188  17.170  0.4064  0.0820  0.1651
27124DOD     C225192  22.871  24.159  17.102 -0.1743 -0.0504 -0.3012
27124DOD     C325193  23.168  24.388  17.335  0.1229  0.0590 -0.0691
27125DOD     C125194  20.499  17.331   5.235  0.0782  0.3202  0.2610
27125DOD     C225195  20.706  17.211   4.826 -0.0653  0.3255 -0.1698
27125DOD     C325196  21.127  17.354   4.690 -0.2584 -0.3525  0.1270
27126DOD     C125197  24.212   9.341   2.997  0.0342  0.0234  0.1951
27126DOD     C225198  24.267   8.914   2.785 -0.1319 -0.0146  0.1138
27126DOD     C325199  24.184   8.454   2.928 -0.1261 -0.0895  0.1316
27127DOD     C125200  21.143  21.802  21.107  0.0395 -0.3975 -0.2753
27127DOD     C225201  21.353  21.934  20.667 -0.0063 -0.1205  0.2098
27127DOD     C325202  21.514  22.104  20.215  0.3573  0.1885 -0.1954
27128DOD     C125203  10.825  22.176  18.432 -0.0138  0.1866  0.1924
27128DOD     C225204  11.152  22.529  18.466 -0.1668  0.1731  0.0590
27128DOD     C325205  11.395  22.866  18.475  0.1432 -0.1833 -0.2838
27129DOD     C125206  17.282  21.682  26.855  0.3113 -0.0864  0.1915
27129DOD     C225207  16.925  21.404  26.950  0.1458  0.0930 -0.1583
27129DOD     C325208  16.758  21.023  26.691 -0.1165  0.4590  0.1432
27130DOD     C125209  27.135  29.325  10.644  0.0103  0.1007  0.2528
27130DOD     C225210  27.029  29.742  10.649 -0.0404  0.1465 -0.0447
27130DOD     C325211  26.800  30.114  10.518 -0.1553 -0.3427  0.2681
27131DOD     C125212  27.200  14.676  28.807  0.0902  0.1318  0.3850
27131DOD     C225213  27.615  14.796  28.980  0.0865  0.0281  0.0596
27131DOD     C325214  28.117  14.933  29.017 -0.1635 -0.2039 -0.0444
27132DOD     C125215  25.426  10.359   7.909 -0.0036 -0.0715 -0.2977
27132DOD     C225216  25.221   9.987   7.758 -0.0478  0.0724  0.1733
27132DOD     C325217  25.278   9.859   7.286 -0.2842  0.0716 -0.2854
27133DOD     C125218   1.784  21.929  28.764  0.2916 -0.0134 -0.1437
27133DOD     C225219   2.111  21.604  28.553  0.0545  0.0634  0.0255
27133DOD     C325220   2.259  21.175  28.335 -0.0008  0.2504  0.0021
27134DOD     C125221  25.503  13.628  25.536  0.0556  0.3916 -0.1533
27134DOD     C225222  25.233  13.551  25.944  0.0520 -0.0243 -0.0610
27134DOD     C325223  25.160  13.497  26.401 -0.1287  0.1197 -0.2034
27135DOD     C125224  17.356   5.716  14.593 -0.2226 -0.3242 -0.0655
27135DOD     C225225  17.816   5.606  14.597 -0.2518 -0.0591  0.2318
27135DOD     C325226  18.099   5.309  14.478  0.1413 -0.0447  0.1374
27136DOD     C125227  15.515  23.980  26.905  0.2512 -0.1063 -0.0144
27136DOD     C225228  15.237  23.667  26.830 -0.3529 -0.1605 -0.1142
27136DOD     C325229  14.780  23.693  26.717  0.1727  0.1740 -0.1485
27137DOD     C125230  22.518   6.578  29.914 -0.0583 -0.0417  0.2261
27137DOD     C225231  22.699   6.759  29.512 -0.0145  0.0533 -0.0638
27137DOD     C325232  23.034   6.488  29.323 -0.0812  0.2692 -0.3889
27138DOD     C125233  28.819  19.321  16.785  0.0327 -0.1203 -0.0543
27138DOD     C225234  28.513  18.982  16.722  0.0323  0.0743 -0.0314
27138DOD     C325235  28.043  18.940  16.584  0.1336  0.0977 -0.2797
27139DOD     C125236  27.149   4.217   6.164 -0.0252  0.0549  0.2713
27139DOD     C225237  27.083   3.989   6.608 -0.1114 -0.1746 -0.1686
27139DOD     C325238  27.036   3.532   6.546 -0.3331  0.1062 -0.0518
27140DOD     C125239  18.489  30.139   8.359 -0.1881  0.0054  0.0398
27140DOD     C225240  18.211   0.147   8.618  0.0826  0.0015 -0.1508
27140DOD     C325241  17.786   0.334   8.700  0.1802 -0.1720 -0.1778
27141DOD     C125242  20.389  24.071  23.503  0.0439  0.1507 -0.2172
27141DOD     C225243  20.565  23.741  23.804 -0.1917  0.0684 -0.0412
27141DOD     C325244  20.942  23.476  23.869  0.0269 -0.1623  0.1285
27142DOD     C125245   6.342  12.367  24.715 -0.1513  0.3213  0.0929
27142DOD     C225246   6.722  12.548  24.470 -0.2841  0.1431  0.0768
27142DOD     C325247   6.969  12.981  24.493  0.1717  0.2114  0.3894
27143DOD     C125248   2.832  16.156   3.813 -0.0750  0.0829 -0.0930
27143DOD     C225249   2.679  15.840   3.478 -0.2474  0.0346 -0.0965
27143DOD     C325250   2.250  15.858   3.318 -0.2753 -0.0331  0.2451
27144DOD     C125251  22.814   8.978  26.579  0.1921 -0.1940 -0.0037
27144DOD     C225252  23.109   9.320  26.562  0.3169  0.0142 -0.0196
27144DOD     C325253  23.399   9.686  26.615 -0.1972  0.2289 -0.2449
27145DOD     C125254  17.481  24.626   4.150  0.4796 -0.3449  0.1394
27145DOD     C225255  17.977  24.669   4.054  0.0419 -0.0850 -0.0870
27145DOD     C325256  18.300  25.014   4.128 -0.1062  0.2955  0.0377
27146DOD     C125257  13.121   2.904  19.579 -0.0372  0.1005  0.0943
27146DOD     C225258  13.142   2.471  19.618 -0.0895 -0.0643 -0.1611
27146DOD     C325259  13.221   2.108  19.833  0.1759 -0.0894 -0.2227
27147DOD     C125260  18.390  17.348   4.995 -0.1457  0.5060  0.1424
27147DOD     C225261  18.695  17.172   5.352 -0.2907  0.1023 -0.0886
27147DOD     C325262  18.623  17.142   5.823  0.0026 -0.0776 -0.1001
27148DOD     C125263   0.444  18.430  23.759  0.0043 -0.2241  0.2118
27148DOD     C225264   0.269  18.866  23.770 -0.1374  0.3368 -0.0524
27148DOD     C325265   0.415  19.253  23.597 -0.0140  0.0914  0.1886
27149DOD     C125266   7.812   5.734  28.088 -0.0407 -0.1689 -0.0124
27149DOD     C225267   7.703   6.140  28.112 -0.1731  0.0286 -0.2987
27149DOD     C325268   7.450   6.297  28.473 -0.3180 -0.3180 -0.1847
27150DOD     C125269  18.412   8.316  14.889  0.0503 -0.2825  0.3748
27150DOD     C225270  18.729   8.077  14.710  0.1223 -0.1782 -0.2590
27150DOD     C325271  18.875   7.734  14.918  0.1216  0.3876  0.1442
27151DOD     C125272   8.756  28.388  24.303  0.1693  0.2009 -0.1574
27151DOD     C225273   8.692  28.183  24.734  0.1890 -0.1993 -0.2530
27151DOD     C325274   8.671  28.018  25.192 -0.1547  0.0053  0.0677
27152DOD     C125275  24.525  10.697  19.998 -0.0036 -0.0559  0.1073
27152DOD     C225276  24.294  10.327  20.275 -0.3790  0.0834 -0.1085
27152DOD     C325277  24.051   9.951  20.211  0.1675  0.0619  0.1719
27153DOD     C125278  24.868  24.252  28.209 -0.1967  0.0569 -0.0091
27153DOD     C225279  24.817  24.111  28.647  0.1095  0.0538  0.1048
27153DOD     C325280  24.592  23.866  28.954  0.1850 -0.1248  0.1146
27154DOD     C125281  29.054  16.377  20.506 -0.0546  0.4034  0.2026
27154DOD     C225282  28.633  16.472  20.750 -0.6585 -0.1757 -0.0720
27154DOD     C325283  28.324  16.111  20.909 -0.2397 -0.1165  0.4214
27155DOD     C125284   8.822  12.704  26.868  0.0610  0.2294  0.0720
27155DOD     C225285   9.070  12.942  27.187 -0.1016 -0.2091 -0.2179
27155DOD     C325286   9.020  13.387  27.364  0.2738  0.0469  0.1597
27156DOD     C125287  20.952  22.324  12.753  0.0561 -0.0322  0.1996
27156DOD     C225288  20.547  22.517  12.844  0.0500  0.0277 -0.0530
27156DOD     C325289  20.261  22.755  13.104  0.3485  0.3524 -0.2182
27157DOD     C125290  15.929  21.294  15.402 -0.3871  0.0827  0.2586
27157DOD     C225291  16.247  21.533  15.629 -0.3853 -0.1515  0.0140
27157DOD     C325292  16.597  21.850  15.637 -0.3096  0.1287  0.2643
27158DOD     C125293  12.887  19.403  20.512  0.0329  0.0794  0.0092
27158DOD     C225294  12.473  19.503  20.689 -0.0301 -0.0321  0.1037
27158DOD     C325295  12.058  19.633  20.613  0.0296 -0.0400  0.0441
27159DOD     C125296  27.679  13.173  27.315 -0.0829 -0.0515 -0.1264
27159DOD     C225297  27.767  12.979  26.874 -0.2138 -0.1482 -0.1133
27159DOD     C325298  27.913  12.646  26.589 -0.1803  0.2724  0.0285
27160DOD     C125299  18.863  26.514   7.359  0.1803  0.0030 -0.1164
27160DOD     C225300  18.490  26.686   7.310 -0.3299 -0.3121 -0.0022
27160DOD     C325301  18.110  26.794   7.552  0.3566  0.0366  0.1325
27161DOD     C125302   1.496   0.202  18.803 -0.2541 -0.0205  0.0650
27161DOD     C225303   1.654   0.345  19.206 -0.0741  0.1435  0.1641
27161DOD     C325304   1.701   0.256  19.673 -0.0986 -0.0948  0.0965
27162DOD     C125305  21.033  17.871  28.760 -0.0508  0.3825  0.1224
27162DOD     C225306  20.848  17.943  29.192  0.1994 -0.3851 -0.1695
27162DOD     C325307  20.956  17.830  29.708 -0.1466 -0.2690  0.0427
27163DOD     C125308  29.856  13.326  13.183  0.0566 -0.0833  0.3209
27163DOD     C225309  29.787  13.325  13.618 -0.1768  0.1372  0.1307
27163DOD     C325310  29.978  13.485  14.011 -0.0292 -0.1538  0.1749
27164DOD     C125311  29.560  24.395  11.185  0.0417 -0.0449  0.0100
27164DOD     C225312  29.815  24.042  10.934 -0.0851 -0.1615 -0.1537
27164DOD     C325313  30.096  23.631  10.962 -0.0975 -0.0997 -0.1103
27165DOD     C125314  15.769  21.190  27.335 -0.0642 -0.1881  0.0121
27165DOD     C225315  16.190  21.386  27.380 -0.2125  0.2439  0.1636
27165DOD     C325316  16.630  21.248  27.322  0.1256 -0.3016 -0.2454
27166DOD     C125317  16.685  29.781   3.749  0.2494  0.0808 -0.1823
27166DOD     C225318  16.582  29.719   4.213  0.0313 -0.0527  0.1982
27166DOD     C325319  16.926  29.796   4.542 -0.4158 -0.1499  0.0932
27167DOD     C125320   4.723   9.194  16.838 -0.1240 -0.0877 -0.0932
27167DOD     C225321   4.384   9.486  17.144 -0.1841 -0.2116 -0.0573
27167DOD     C325322   4.014   9.488  17.469  0.0693 -0.1512  0.2316
27168DOD     C125323  14.726  11.650  19.001 -0.0667 -0.0234 -0.4349
27168DOD     C225324  15.175  11.827  18.970 -0.2145 -0.2052 -0.0171
27168DOD     C325325  15.652  11.841  19.099 -0.2127 -0.0272  0.0856
27169DOD     C125326  23.774   8.222  26.216  0.0481 -0.1831  0.1338
27169DOD     C225327  23.941   7.907  25.942 -0.0522 -0.0955  0.4016
27169DOD     C325328  23.754   7.492  25.801  0.2769  0.0476 -0.0793
27170DOD     C125329  20.733  14.608  22.365 -0.0099 -0.0468  0.2196
27170DOD     C225330  20.572  14.503  21.917  0.1177 -0.1241  0.0307
27170DOD     C325331  20.439  14.694  21.507  0.0133  0.2796 -0.0572
27171DOD     C125332  14.019  14.063  21.841 -0.2580 -0.0730  0.0143
27171DOD     C225333  13.848  13.692  21.977 -0.1826 -0.1395  0.1308
27171DOD     C325334  13.657  13.361  21.813 -0.0660 -0.0816 -0.2232
27172DOD     C125335  23.996  18.464  23.334 -0.1117  0.1461  0.4376
27172DOD     C225336  24.431  18.481  23.290 -0.1396  0.1518 -0.0156
27172DOD     C325337  24.884  18.305  23.122 -0.1472  0.2587 -0.2191
27173DOD     C125338   9.518   3.436  23.926 -0.2967 -0.2059 -0.0292
27173DOD     C225339   9.309   3.800  23.771 -0.0227  0.0821  0.0895
27173DOD     C325340   8.906   3.961  23.652 -0.0652 -0.0322  0.1783
27174DOD     C125341  25.401  27.601  16.635 -0.0902 -0.0567 -0.0462
27174DOD     C225342  25.428  28.034  16.822  0.3718  0.1448  0.1461
27174DOD     C325343  25.416  28.217  17.224  0.1572  0.0418  0.0368
27175DOD     C125344   8.898   9.728  20.148 -0.2990  0.3165  0.1140
27175DOD     C225345   9.369   9.626  20.220  0.0967  0.0288  0.1260
27175DOD     C325346   9.861   9.662  20.344  0.1375  0.2956 -0.1353
27176DOD     C125347  27.974  26.595  11.723  0.1308  0.0850  0.0044
27176DOD     C225348  27.980  26.929  12.066  0.0630 -0.1548 -0.2165
27176DOD     C325349  28.137  27.382  12.142  0.1668  0.0966 -0.1185
27177DOD     C125350  17.214  17.197   7.282  0.0425  0.1127 -0.1158
27177DOD     C225351  17.545  16.897   7.480 -0.0911 -0.5062 -0.0187
27177DOD     C325352  17.782  16.541   7.298 -0.0844 -0.1732 -0.2033
27178DOD     C125353  21.595   8.724  12.625 -0.0220 -0.3787  0.1006
27178DOD     C225354  22.019   8.824  12.697  0.0463 -0.0738 -0.1942
27178DOD     C325355  22.393   8.791  13.030 -0.5490  0.2963 -0.1337
27179DOD     C125356  25.544  12.833   7.366  0.1230 -0.0150 -0.2843
27179DOD     C225357  25.381  12.414   7.498  0.2690 -0.0784  0.2882
27179DOD     C325358  25.134  12.185   7.795 -0.4413  0.0131  0.0813
27180DOD     C125359   6.644  28.340   4.875 -0.0309  0.0594  0.1006
27180DOD     C225360   6.462  27.990   5.118 -0.1344 -0.0523  0.3165
27180DOD     C325361   6.451  27.843   5.543  0.5032  0.2143  0.0018
27181DOD     C125362  24.295  11.810   9.577 -0.1340  0.1785  0.0182
27181DOD     C225363  24.235  11.635  10.071 -0.1504  0.3236 -0.1488
27181DOD     C325364  24.166  11.414  10.485  0.2171  0.0210  0.3065
27182DOD     C125365  13.083   5.090  21.947 -0.2075  0.0656 -0.3679
27182DOD     C225366  13.391   5.276  21.694 -0.0953 -0.0832 -0.4022
27182DOD     C325367  13.781   5.237  21.896  0.4865 -0.0039 -0.0223
27183DOD     C125368  14.993   5.057  17.996 -0.0086 -0.2078 -0.0947
27183DOD     C225369  15.429   5.095  17.894 -0.1445  0.1647  0.0745
27183DOD     C325370  15.852   5.025  18.060 -0.1236 -0.3556  0.1267
27184DOD     C125371  25.285  18.168  19.249  0.2260  0.0151 -0.0284
27184DOD     C225372  25.532  18.233  18.905 -0.1374 -0.4445 -0.0926
27184DOD     C325373  25.743  18.515  18.575  0.3755 -0.1735  0.1263
27185DOD     C125374  21.009  27.561  15.502  0.0310 -0.1729 -0.1496
27185DOD     C225375  20.602  27.529  15.743  0.2780 -0.2191 -0.4797
27185DOD     C325376  20.388  27.454  16.146 -0.1896  0.0615  0.1169
27186DOD     C125377  19.477   4.823   2.614 -0.1387 -0.0343  0.1092
27186DOD     C225378  19.707   4.919   2.262 -0.3624  0.0811 -0.0949
27186DOD     C325379  20.159   4.955   2.082  0.0871  0.1012  0.0689
27187DOD     C125380  22.260   3.950  25.678  0.0800 -0.0264 -0.0998
27187DOD     C225381  22.675   4.080  25.717 -0.0836  0.1120  0.1576
27187DOD     C325382  22.860   4.379  25.351 -0.0388  0.2479  0.3371
27188DOD     C125383   3.863   2.364  26.642 -0.1255 -0.4523  0.0493
27188DOD     C225384   3.968   2.015  26.374  0.2376  0.1713 -0.0908
27188DOD     C325385   4.153   1.797  26.027 -0.1035 -0.0012  0.0502
27189DOD     C125386   6.090  11.898   1.456  0.1962  0.1757  0.0272
27189DOD     C225387   6.440  12.181   1.551  0.1652 -0.0244 -0.2418
27189DOD     C325388   6.711  12.604   1.608 -0.1002  0.1110  0.0558
27190DOD     C125389  21.913  19.482  10.513 -0.4012  0.1456 -0.0812
27190DOD     C225390  22.025  19.091  10.232  0.0940 -0.4852 -0.0565
27190DOD     C325391  21.872  18.613  10.302 -0.2071 -0.0094 -0.0228
27191DOD     C125392   0.114   1.937  17.810 -0.5419 -0.0260  0.0775
27191DOD     C225393  30.208   1.545  18.020 -0.1562  0.0927  0.2410
27191DOD     C325394  30.300   1.128  18.172  0.1062  0.0189  0.1497
27192DOD     C125395  17.315   0.157   7.508 -0.0330  0.0034 -0.1048
27192DOD     C225396  17.515   0.390   7.904  0.1784 -0.0629  0.2088
27192DOD     C325397  17.735   0.711   8.193  0.1387 -0.0495  0.0871
27193DOD     C125398  19.062  13.518  25.983 -0.0658 -0.0715  0.2723
27193DOD     C225399  19.035  13.983  26.111  0.2441  0.1564 -0.1514
27193DOD     C325400  18.952  14.432  25.971 -0.0882  0.1155 -0.1079
27194DOD     C125401  25.733   3.239  25.120 -0.0393  0.3373  0.1681
27194DOD     C225402  25.760   3.122  25.550  0.3302  0.4623  0.0444
27194DOD     C325403  25.736   3.071  26.046 -0.0235  0.2430  0.1981
27195DOD     C125404  29.717  10.314  29.602 -0.2653  0.2850 -0.1427
27195DOD     C225405  29.778   9.879  29.411 -0.0333  0.2833  0.1942
27195DOD     C325406  29.860   9.626  29.070  0.1238 -0.1184  0.1434
27196DOD     C125407  15.841  11.623   3.307  0.2684 -0.0940 -0.1879
27196DOD     C225408  15.669  11.865   3.675  0.0741  0.0725 -0.0009
27196DOD     C325409  15.642  12.034   4.129  0.1461  0.0408  0.0053
27197DOD     C125410   5.021   1.231   7.017 -0.1879  0.0036  0.0931
27197DOD     C225411   4.920   0.872   7.358  0.2252 -0.4031 -0.2537
27197DOD     C325412   4.723   0.735   7.805 -0.1791  0.2930 -0.2247
27198DOD     C125413  11.796  16.331  20.940  0.0096  0.1803  0.0763
27198DOD     C225414  11.885  16.162  20.518  0.2079 -0.0878 -0.2706
27198DOD     C325415  11.834  15.776  20.252  0.0353  0.3168  0.0344
27199DOD     C125416   3.295  15.270  12.458 -0.1266  0.0042  0.2532
27199DOD     C225417   2.873  15.086  12.355  0.0401  0.2875  0.4238
27199DOD     C325418   2.641  14.889  12.640  0.1038 -0.0727 -0.1833
27200DOD     C125419  17.483   1.851  14.288  0.2776  0.0151 -0.3693
27200DOD     C225420  17.633   1.837  14.709 -0.0930 -0.1028 -0.0330
27200DOD     C325421  17.469   1.951  15.165  0.0433  0.1734  0.0819
27201DOD     C125422  15.787  12.978   6.249  0.1170 -0.0570 -0.2745
27201DOD     C225423  15.973  12.692   5.910  0.1707  0.0243  0.1268
27201DOD     C325424  16.226  12.255   6.067 -0.3425 -0.2208  0.0048
27202DOD     C125425   6.428  18.511  27.679 -0.1429  0.0053  0.4760
27202DOD     C225426   6.819  18.583  27.325 -0.0719  0.1716  0.0541
27202DOD     C325427   7.161  18.878  27.240 -0.0874 -0.0484 -0.2625
27203DOD     C125428  23.798   4.070   1.095 -0.1205  0.3573  0.0920
27203DOD     C225429  23.712   4.307   1.444 -0.3277 -0.0384 -0.1948
27203DOD     C325430  23.561   4.700   1.519 -0.0124 -0.0541 -0.0288
27204DOD     C125431   2.791   7.704   7.480  0.1556  0.1196  0.2040
27204DOD     C225432   3.045   7.593   7.905  0.3515 -0.0346 -0.0721
27204DOD     C325433   3.535   7.739   7.997  0.3369  0.0581  0.4375
27205DOD     C125434  28.622  27.815  21.937  0.2458 -0.1362  0.2107
27205DOD     C225435  28.628  28.089  22.338 -0.1965  0.3878 -0.1023
27205DOD     C325436  28.240  28.166  22.557 -0.0943 -0.0143 -0.1021
27206DOD     C125437  17.599   6.870  22.957 -0.2287  0.2632  0.0043
27206DOD     C225438  17.662   7.324  22.963 -0.1259  0.1711 -0.1706
27206DOD     C325439  17.898   7.545  22.706  0.0667 -0.0876 -0.2334
27207DOD     C125440  16.818  15.325   3.612 -0.2341 -0.0791 -0.2691
27207DOD     C225441  16.655  15.477   4.002 -0.0710 -0.0442 -0.3269
27207DOD     C325442  16.349  15.800   4.199 -0.1270  0.0331  0.0909
27208DOD     C125443  29.856  26.698  15.181 -0.0027  0.0649 -0.0003
27208DOD     C225444  29.782  27.078  14.919  0.0049  0.2140  0.0308
27208DOD     C325445  29.376  27.190  14.717 -0.0829 -0.2743 -0.1091
27209DOD     C125446   3.443  18.597   4.264  0.0168  0.2964 -0.2107
27209DOD     C225447   3.234  18.972   4.512 -0.0668 -0.2729 -0.0646
27209DOD     C325448   2.756  18.956   4.616  0.0934  0.1167 -0.0513
27210DOD     C125449   9.045  26.920  25.941 -0.0342  0.1315 -0.1441
27210DOD     C225450   8.997  27.061  25.489  0.0637  0.0508 -0.1420
27210DOD     C325451   8.929  27.109  25.030  0.2409 -0.1221 -0.1490
27211DOD     C125452  23.004  16.281  25.575  0.0250  0.1655  0.1189
27211DOD     C225453  22.913  15.937  25.884  0.1139  0.2299  0.0240
27211DOD     C325454  22.707  15.518  25.886  0.0571 -0.1835 -0.1481
27212DOD     C125455  15.619  11.220   8.599 -0.1950  0.0142 -0.2057
27212DOD     C225456  15.437  11.404   8.993 -0.0070 -0.0139 -0.1141
27212DOD     C325457  15.288  11.639   9.400 -0.2422 -0.0025  0.2931
27213DOD     C125458  28.357  14.713  25.733  0.2628  0.0577 -0.1059
27213DOD     C225459  28.202  14.679  25.291 -0.1354  0.2125  0.2765
27213DOD     C325460  27.952  14.329  25.066 -0.5060 -0.1957 -0.0366
27214DOD     C125461   5.028  20.354   5.655 -0.0398  0.1345  0.0519
27214DOD     C225462   4.841  20.321   5.222  0.0420  0.1980 -0.0403
27214DOD     C325463   4.581  20.322   4.776 -0.2587 -0.2481  0.2328
27215DOD     C125464   5.593  20.525   2.164 -0.1583  0.1249  0.1065
27215DOD     C225465   6.020  20.454   1.949  0.0678 -0.2867 -0.0995
27215DOD     C325466   6.199  20.095   1.705  0.1100  0.0038  0.2071
27216DOD     C125467   7.868   9.326  13.356  0.3776 -0.0193  0.3005
27216DOD     C225468   8.293   9.409  13.402 -0.1637 -0.0950 -0.0168
27216DOD     C325469   8.617   9.233  13.218 -0.0373  0.1971  0.2518
27217DOD     C125470   8.406  24.014  20.201  0.0605  0.0301 -0.1328
27217DOD     C225471   8.313  23.802  19.778 -0.0253  0.2720  0.1433
27217DOD     C325472   8.539  23.680  19.390  0.0586  0.1394  0.0116
27218DOD     C125473   6.764   5.301  19.624 -0.0719  0.2209  0.2892
27218DOD     C225474   7.084   5.192  19.307 -0.0752 -0.0324 -0.1462
27218DOD     C325475   7.470   4.968  19.302  0.0723  0.2043 -0.1624
27219DOD     C125476   3.965  11.920  29.362  0.0141 -0.3525  0.2261
27219DOD     C225477   3.591  12.044  29.606  0.1959 -0.0274  0.0943
27219DOD     C325478   3.309  12.412  29.441 -0.2062 -0.2203 -0.4187
27220DOD     C125479  23.878  26.258  17.317 -0.1396  0.3986 -0.0762
27220DOD     C225480  24.347  26.157  17.232  0.0281 -0.0529 -0.1462
27220DOD     C325481  24.686  26.425  17.030  0.2816  0.0417  0.1330
27221DOD     C125482  26.578   4.337  25.150  0.0248 -0.1096  0.2206
27221DOD     C225483  27.018   4.249  25.169 -0.2320  0.3102  0.0443
27221DOD     C325484  27.347   4.073  25.366  0.2270 -0.1302 -0.1893
27222DOD     C125485  10.753  25.942  27.810 -0.1326  0.0159  0.1755
27222DOD     C225486  10.630  26.012  27.407  0.0066  0.0173 -0.2828
27222DOD     C325487  10.378  26.241  27.076  0.0094  0.1804 -0.2181
27223DOD     C125488  13.828  12.457  21.403  0.1576 -0.0956  0.1074
27223DOD     C225489  13.395  12.489  21.471 -0.1620  0.0446 -0.0203
27223DOD     C325490  13.165  12.155  21.616 -0.1304  0.2511  0.0949
27224DOD     C125491  16.359  19.980   5.209 -0.1418  0.3670  0.0738
27224DOD     C225492  16.037  19.879   4.941 -0.2172  0.0466 -0.0173
27224DOD     C325493  16.014  19.701   4.496 -0.0550  0.2843 -0.1325
27225DOD     C125494   7.866  20.644  21.423 -0.2520 -0.4343 -0.0603
27225DOD     C225495   7.911  20.218  21.641  0.1501 -0.4139 -0.0526
27225DOD     C325496   7.758  19.795  21.719 -0.0436  0.1217  0.0201
27226DOD     C125497  16.284  17.980  22.937 -0.0450 -0.1048 -0.1178
27226DOD     C225498  16.638  17.807  22.716  0.2293  0.1583  0.0743
27226DOD     C325499  16.945  17.515  22.619 -0.0399 -0.1974 -0.0161
27227DOD     C125500  17.685   4.297  23.645 -0.3836 -0.1280  0.0424
27227DOD     C225501  17.729   4.132  23.998 -0.3242  0.2017 -0.4231
27227DOD     C325502  18.005   3.772  24.102  0.1829  0.0244 -0.1207
27228DOD     C125503  21.040   6.460  14.461  0.2036 -0.1148 -0.1067
27228DOD     C225504  21.460   6.278  14.601 -0.1590  0.1782  0.2135
27228DOD     C325505  21.886   6.311  14.368  0.2698  0.1835  0.1266
27229DOD     C125506  11.756   4.192  20.111  0.0001  0.1503 -0.1770
27229DOD     C225507  11.426   4.474  20.034 -0.1064 -0.1579  0.2452
27229DOD     C325508  11.143   4.723  20.213 -0.1500  0.0532 -0.1261
27230DOD     C125509  29.143  21.974  17.489 -0.0423  0.0182  0.1830
27230DOD     C225510  29.422  21.754  17.837 -0.0506 -0.2837  0.2237
27230DOD     C325511  29.496  21.472  18.239 -0.0338 -0.3318  0.1380
27231DOD     C125512   8.900  13.903  27.420 -0.0034 -0.0369  0.1428
27231DOD     C225513   8.640  13.575  27.662  0.3809 -0.1687  0.0867
27231DOD     C325514   8.378  13.419  28.032 -0.0739 -0.0184  0.3899
27232DOD     C125515   7.535  10.109  27.778 -0.1743  0.0494 -0.2219
27232DOD     C225516   7.381  10.436  27.454 -0.1715 -0.0431 -0.0247
27232DOD     C325517   7.118  10.799  27.436  0.0111  0.0602 -0.0715
27233DOD     C125518  26.957  14.297  22.504  0.0013  0.1353  0.0096
27233DOD     C225519  27.177  13.907  22.533  0.1799  0.0391  0.1111
27233DOD     C325520  27.488  13.669  22.263 -0.2188  0.0982 -0.0091
27234DOD     C125521  17.970   5.246  13.826  0.1327  0.2875  0.1916
27234DOD     C225522  17.969   5.629  14.049 -0.1058  0.3541 -0.0218
27234DOD     C325523  17.702   6.012  14.237 -0.0313 -0.0279 -0.0788
27235DOD     C125524  26.238  18.736  14.314  0.0799  0.0551 -0.3071
27235DOD     C225525  26.610  18.481  14.166  0.1218 -0.2180 -0.0088
27235DOD     C325526  26.885  18.138  14.359  0.1382  0.1288 -0.3990
27236DOD     C125527  26.684   2.813   4.146 -0.0328  0.0901  0.0370
27236DOD     C225528  27.037   2.772   3.841 -0.1913 -0.0177 -0.1004
27236DOD     C325529  27.554   2.768   3.893  0.0814 -0.1691 -0.0640
27237DOD     C125530  25.366  21.771   3.382  0.2417 -0.1848  0.1450
27237DOD     C225531  25.183  21.431   3.156  0.0476  0.2932  0.2804
27237DOD     C325532  24.771  21.265   2.984  0.0076 -0.0273  0.2633
27238DOD     C125533   3.467  12.767  10.130  0.1622 -0.4619 -0.0970
27238DOD     C225534   3.131  12.461   9.926  0.1174  0.2299  0.1009
27238DOD     C325535   3.039  12.104   9.570  0.2778  0.0576 -0.0423
27239DOD     C125536  20.392   7.630  12.495  0.0101 -0.2131 -0.0299
27239DOD     C225537  20.667   7.550  12.873 -0.0949 -0.0388  0.0095
27239DOD     C325538  21.002   7.530  13.162 -0.0853 -0.2520  0.0932
27240DOD     C125539  16.683  23.533  15.330 -0.1916  0.0517  0.2313
27240DOD     C225540  16.378  23.398  15.698  0.0845  0.0696  0.0400
27240DOD     C325541  15.964  23.454  15.932 -0.1198  0.1693 -0.2609
27241DOD     C125542   8.608  12.769  29.216 -0.1578  0.1771  0.0727
27241DOD     C225543   8.854  12.438  29.285  0.0055 -0.1666  0.0956
27241DOD     C325544   9.029  12.023  29.419 -0.1139  0.0123 -0.2871
27242DOD     C125545  28.136  27.135   6.648  0.1766  0.1318 -0.0486
27242DOD     C225546  28.257  26.872   6.278 -0.4876 -0.0415  0.0348
27242DOD     C325547  28.248  26.766   5.862  0.0505  0.1973  0.1086
27243DOD     C125548  26.622  12.215   9.664 -0.3690 -0.1706  0.0806
27243DOD     C225549  26.752  12.143  10.090 -0.1073 -0.2144 -0.3682
27243DOD     C325550  26.822  12.431  10.510  0.1639  0.1915  0.0646
27244DOD     C125551  30.228  23.909  29.157  0.2627 -0.0797  0.3416
27244DOD     C225552  29.985  23.903  29.565  0.0462  0.1131 -0.2095
27244DOD     C325553  29.732  23.750  29.963 -0.0256 -0.0155 -0.0473
27245DOD     C125554  25.140  25.367  10.197  0.0641  0.0282 -0.0932
27245DOD     C225555  24.796  25.392  10.458  0.1155  0.3597  0.5365
27245DOD     C325556  24.741  25.839  10.756  0.1794  0.2651 -0.0224
27246DOD     C125557  16.580  17.964  17.899 -0.0653 -0.1708  0.1729
27246DOD     C225558  16.828  17.658  18.107  0.4391 -0.1482 -0.1046
27246DOD     C325559  17.018  17.950  18.380 -0.0579  0.1139  0.0630
27247DOD     C125560  12.647  21.439   1.832 -0.0189  0.0761 -0.1342
27247DOD     C225561  12.943  21.575   1.570 -0.0491  0.2941 -0.0290
27247DOD     C325562  13.404  21.574   1.360  0.0831 -0.2196  0.0497
27248DOD     C125563  22.294  29.953  16.572  0.2941 -0.2897 -0.0077
27248DOD     C225564  22.696  29.818  16.360 -0.1608  0.3061 -0.3228
27248DOD     C325565  22.831  29.794  15.942  0.1397  0.0204  0.2462
27249DOD     C125566   4.594   9.803   6.649  0.2663 -0.0441  0.2645
27249DOD     C225567   4.777  10.291   6.606  0.1519  0.1948 -0.1563
27249DOD     C325568   5.108  10.501   6.345 -0.0055 -0.2180  0.0336
27250DOD     C125569  28.534  16.614   5.524  0.2683  0.2465 -0.0436
27250DOD     C225570  28.440  17.045   5.695  0.1932 -0.0318  0.0861
27250DOD     C325571  28.362  17.315   6.048 -0.3736  0.1969 -0.0655
27251DOD     C125572   2.053  19.952  11.472  0.0720  0.2659 -0.0341
27251DOD     C225573   2.334  20.096  11.160 -0.1358 -0.2511 -0.0006
27251DOD     C325574   2.625  20.290  10.851 -0.2302  0.1594 -0.0134
27252DOD     C125575   3.765  12.143  19.298 -0.0057  0.2688 -0.1598
27252DOD     C225576   3.983  12.185  18.891  0.0019 -0.1097  0.2386
27252DOD     C325577   4.297  12.316  18.649 -0.0265 -0.0577 -0.1030
27253DOD     C125578  13.473  27.527   7.595 -0.2489  0.1764 -0.0509
27253DOD     C225579  13.650  27.876   7.906 -0.3723 -0.0111 -0.1406
27253DOD     C325580  13.539  28.261   8.166 -0.1603 -0.0044  0.0126
27254DOD     C125581  26.744  22.065  12.188 -0.0452 -0.2242  0.1453
27254DOD     C225582  26.519  22.232  11.839  0.3934 -0.1746 -0.1545
27254DOD     C325583  26.212  22.500  11.647 -0.2416 -0.4410 -0.0175
27255DOD     C125584   9.827  19.298  21.784  0.3381 -0.0267  0.3192
27255DOD     C225585  10.232  19.141  21.790  0.1545  0.1478 -0.1386
27255DOD     C325586  10.362  19.142  22.232  0.4821  0.1277  0.0907
27256DOD     C125587  20.541  28.903   8.266  0.0049 -0.1270 -0.2052
27256DOD     C225588  20.239  28.497   8.185 -0.0939  0.0797 -0.0174
27256DOD     C325589  20.158  28.073   8.365  0.1786  0.0539 -0.1691
27257DOD     C125590  29.095   4.829  27.044 -0.2987  0.0658 -0.0561
27257DOD     C225591  29.462   4.939  27.316 -0.1018 -0.0860 -0.1789
27257DOD     C325592  29.799   4.670  27.570 -0.0948 -0.0416 -0.4149
27258DOD     C125593  14.346  11.572  11.362  0.1130 -0.1424  0.2583
27258DOD     C225594  13.920  11.724  11.512  0.0738  0.0119 -0.0456
27258DOD     C325595  13.562  12.018  11.573  0.1597  0.1308 -0.1074
27259DOD     C125596   6.837  23.419  27.261  0.1623 -0.1734 -0.3311
27259DOD     C225597   6.629  23.649  27.605 -0.0782  0.0427 -0.0736
27259DOD     C325598   6.710  23.707  28.084  0.1831 -0.2615  0.0405
27260DOD     C125599   6.646   9.881  18.110  0.0311 -0.1260 -0.1756
27260DOD     C225600   6.797  10.237  18.422 -0.0367  0.2399  0.0166
27260DOD     C325601   6.856  10.612  18.676 -0.1540  0.2721 -0.0584
27261DOD     C125602   6.574  21.264   7.423  0.0530  0.2507  0.0824
27261DOD     C225603   6.732  20.934   7.157  0.1626  0.3541  0.0347
27261DOD     C325604   6.882  20.535   6.876  0.2807 -0.3524  0.1030
27262DOD     C125605  22.167  19.795  20.572  0.0731 -0.0117  0.1978
27262DOD     C225606  22.245  19.378  20.573 -0.1001  0.2889 -0.2914
27262DOD     C325607  22.245  18.875  20.560 -0.3053  0.1004  0.0037
27263DOD     C125608  25.924  10.400  13.804  0.2375  0.1193  0.2648
27263DOD     C225609  26.247  10.742  13.662  0.3685  0.2942  0.1095
27263DOD     C325610  26.306  11.020  13.279  0.0315 -0.2370  0.3756
27264DOD     C125611  15.092  20.018  12.993  0.0282  0.0031 -0.2973
27264DOD     C225612  15.464  19.977  12.735 -0.2084  0.1249 -0.2309
27264DOD     C325613  15.745  19.738  12.417 -0.0208 -0.0316  0.2380
27265DOD     C125614   4.657  19.742  19.212  0.0546 -0.0817 -0.1521
27265DOD     C225615   5.104  19.882  19.335 -0.1668 -0.0183 -0.1161
27265DOD     C325616   5.467  20.161  19.258  0.3090 -0.0320 -0.1032
27266DOD     C125617  12.072  27.255   9.691  0.0162 -0.0368 -0.1877
27266DOD     C225618  11.761  27.313   9.353 -0.2033 -0.0270 -0.0038
27266DOD     C325619  11.365  27.368   9.100 -0.0645 -0.3030  0.2524
27267DOD     C125620   8.140  28.279  18.279  0.1169  0.2592 -0.2152
27267DOD     C225621   8.215  28.374  18.731  0.3061 -0.1965 -0.1360
27267DOD     C325622   8.568  28.245  19.019 -0.0503  0.1298  0.0115
27268DOD     C125623  18.545  19.371   6.625  0.3816  0.0607  0.0479
27268DOD     C225624  18.523  19.251   6.184 -0.1247 -0.0877  0.1036
27268DOD     C325625  18.292  19.400   5.799 -0.2831  0.0078 -0.3166
27269DOD     C125626  27.574   2.786  12.255  0.2277 -0.0556 -0.0209
27269DOD     C225627  27.762   2.808  12.683 -0.4459 -0.1185 -0.0042
27269DOD     C325628  27.857   2.621  13.150 -0.0890  0.0131 -0.0537
27270DOD     C125629   8.427  11.963  22.339  0.0964  0.0999  0.2984
27270DOD     C225630   7.981  11.855  22.547  0.0244  0.0775 -0.0864
27270DOD     C325631   7.764  11.850  22.947  0.2069 -0.2688 -0.0995
27271DOD     C125632  21.422   5.326  26.921 -0.0290 -0.0513 -0.3517
27271DOD     C225633  21.394   5.255  26.413 -0.3343 -0.0032  0.0979
27271DOD     C325634  21.350   5.364  25.960  0.1682 -0.0635  0.1576
27272DOD     C125635  20.193   6.555  24.204 -0.0311  0.2959 -0.0151
27272DOD     C225636  19.959   6.318  24.543 -0.0639  0.0866  0.1682
27272DOD     C325637  20.066   5.973  24.853  0.1694 -0.0662 -0.0345
27273DOD     C125638  18.451  11.398   4.781  0.2860  0.0296  0.0627
27273DOD     C225639  18.638  11.838   4.798  0.4080  0.3879 -0.1629
27273DOD     C325640  18.701  12.251   4.845 -0.0308  0.2946  0.0769
27274DOD     C125641   6.155  29.658   6.305  0.0360  0.0471  0.0896
27274DOD     C225642   5.845  29.847   6.063  0.0841 -0.2549 -0.0891
27274DOD     C325643   5.501  30.114   5.940  0.3482  0.3155 -0.1516
27275DOD     C125644  29.582   7.984   6.900  0.0237 -0.1787 -0.2486
27275DOD     C225645  29.651   7.943   6.444 -0.1711 -0.0056  0.2363
27275DOD     C325646  29.941   7.863   6.082  0.6059  0.2663 -0.0561
27276DOD     C125647   3.109  10.999   0.293  0.4959  0.2016 -0.1451
27276DOD     C225648   2.745  11.130   0.530 -0.1667 -0.2749  0.0794
27276DOD     C325649   2.379  10.964   0.783  0.1073 -0.2298 -0.1060
27277DOD     C125650  13.464  16.927  22.001  0.0818 -0.0562  0.3429
27277DOD     C225651  13.377  17.387  22.023  0.1693  0.0005 -0.1725
27277DOD     C325652  13.527  17.715  21.860  0.0669  0.1145  0.2639
27278DOD     C125653   7.781   3.066  21.469 -0.1384  0.0337  0.1787
27278DOD     C225654   7.738   2.722  21.744 -0.0130 -0.0488  0.2594
27278DOD     C325655   7.695   2.442  22.143 -0.4401  0.2256  0.0481
27279DOD     C125656  29.513   8.814  14.216  0.1385  0.1276  0.4875
27279DOD     C225657  29.665   8.432  14.422 -0.4100 -0.2622  0.2295
27279DOD     C325658  29.721   8.016  14.661 -0.2419  0.1371  0.1162
27280DOD     C125659  19.573   6.177  11.391  0.0361 -0.0112  0.1773
27280DOD     C225660  19.236   6.163  11.073 -0.1123 -0.2185 -0.1970
27280DOD     C325661  18.971   5.875  10.854  0.2556 -0.0023  0.1343
27281DOD     C125662   6.043   5.566  11.335  0.0304  0.0140  0.0113
27281DOD     C225663   5.798   5.471  11.759  0.2696 -0.0499 -0.0265
27281DOD     C325664   5.437   5.464  12.082 -0.4682  0.1811 -0.0202
27282DOD     C125665  27.274  16.567   0.062  0.0678 -0.0856 -0.0027
27282DOD     C225666  27.284  16.148  30.263 -0.1323 -0.1899  0.0328
27282DOD     C325667  27.015  15.764   0.038 -0.0241  0.0263 -0.0645
27283DOD     C125668  30.200  14.839   1.855 -0.0213 -0.2701 -0.1666
27283DOD     C225669   0.115  14.483   1.970  0.1418  0.1580 -0.0529
27283DOD     C325670   0.263  14.071   1.902  0.0395  0.0189 -0.1181
27284DOD     C125671  21.367  27.063   5.072  0.1298 -0.3629  0.0123
27284DOD     C225672  20.930  27.144   4.879  0.2806  0.0858 -0.0112
27284DOD     C325673  20.842  27.053   4.419  0.2382 -0.3032  0.1716
27285DOD     C125674  23.300   2.066  18.249  0.2058  0.2531 -0.1138
27285DOD     C225675  23.109   2.209  18.610 -0.0995 -0.0559 -0.1356
27285DOD     C325676  22.636   2.213  18.571 -0.0712 -0.3234 -0.2152
27286DOD     C125677  25.538  29.725   7.987 -0.2460  0.0606  0.2702
27286DOD     C225678  25.387  29.278   8.047  0.1389  0.2771  0.1542
27286DOD     C325679  25.144  28.933   8.214 -0.1312 -0.1437 -0.0978
27287DOD     C125680  24.824   7.406  19.258  0.0973 -0.3176  0.2429
27287DOD     C225681  24.744   7.726  18.944  0.1348 -0.1714 -0.1526
27287DOD     C325682  24.879   7.838  18.534 -0.0871  0.1262 -0.0632
27288DOD     C125683   9.672  27.213   9.466  0.2410  0.0020  0.1638
27288DOD     C225684   9.328  27.556   9.445 -0.0694  0.0181  0.0427
27288DOD     C325685   8.986  27.634   9.721 -0.1521  0.0812 -0.0110
27289DOD     C125686   2.242  20.198   6.021  0.0914 -0.0011  0.1288
27289DOD     C225687   2.162  20.468   5.657 -0.0257 -0.1628  0.2656
27289DOD     C325688   1.806  20.502   5.348  0.0032 -0.0304  0.0791
27290DOD     C125689   6.532   8.685  18.032  0.1905  0.0155 -0.1846
27290DOD     C225690   6.168   9.025  17.941  0.1254  0.0935  0.0264
27290DOD     C325691   5.830   9.369  17.855  0.1519 -0.1942 -0.1981
27291DOD     C125692   0.129   8.029  13.415 -0.2435 -0.2803 -0.2157
27291DOD     C225693  30.201   8.109  13.002  0.2860 -0.0345  0.1129
27291DOD     C325694   0.092   8.502  12.723 -0.1357  0.1344  0.0220
27292DOD     C125695   2.654   0.720  10.806  0.0207  0.0930 -0.2434
27292DOD     C225696   2.505   0.812  11.223 -0.0767  0.0350 -0.2487
27292DOD     C325697   2.300   0.854  11.654 -0.2145 -0.0682  0.0521
27293DOD     C125698  27.823  17.519  12.303 -0.1124  0.1084  0.0146
27293DOD     C225699  27.845  17.862  12.018  0.1250 -0.3130  0.1758
27293DOD     C325700  27.994  18.223  11.784 -0.2032  0.2045 -0.2626
27294DOD     C125701  23.728  28.805  21.051 -0.2610  0.0979  0.2855
27294DOD     C225702  23.732  29.249  21.174 -0.0277  0.1617  0.2590
27294DOD     C325703  23.794  29.712  21.271  0.0128  0.1053 -0.3276
27295DOD     C125704  27.373   6.733  22.569  0.0777 -0.0605 -0.0280
27295DOD     C225705  27.740   6.909  22.526 -0.0218 -0.1053  0.3781
27295DOD     C325706  28.126   7.158  22.269 -0.0387 -0.0798  0.0859
27296DOD     C125707  11.893  14.781  29.614 -0.3158 -0.3157 -0.2249
27296DOD     C225708  11.847  15.215  29.751 -0.2918  0.0710  0.1409
27296DOD     C325709  12.049  15.494  30.032  0.0876  0.1165 -0.1987
27297DOD     C125710   9.596   4.175   4.574  0.0234  0.0302  0.3906
27297DOD     C225711   9.487   4.530   4.854  0.2278  0.1397 -0.0573
27297DOD     C325712   9.456   4.787   5.222  0.3197 -0.0814 -0.0563
27298DOD     C125713  23.236  19.114  27.188  0.0926  0.0822  0.2971
27298DOD     C225714  22.924  18.735  27.195  0.0584 -0.0917  0.1762
27298DOD     C325715  22.526  18.820  27.360  0.2413  0.3024  0.0131
27299DOD     C125716  15.855  22.852  14.599  0.0389  0.1337  0.1200
27299DOD     C225717  15.891  23.279  14.767  0.1282 -0.0843 -0.1180
27299DOD     C325718  15.673  23.422  15.164 -0.1417  0.1458 -0.0075
27300DOD     C125719  19.150  28.056  19.188  0.0286  0.1299  0.1988
27300DOD     C225720  19.330  28.390  19.327 -0.1278  0.1898  0.1391
27300DOD     C325721  19.641  28.733  19.254  0.0568  0.1226 -0.0536
27301DOD     C125722  30.282  23.624  14.094 -0.0288  0.1262  0.0570
27301DOD     C225723   0.249  23.858  13.791 -0.1338  0.0574  0.2326
27301DOD     C325724   0.442  23.717  13.413 -0.0370 -0.4439 -0.1032
27302DOD     C125725  11.467  16.160  10.901  0.1343 -0.4411  0.1161
27302DOD     C225726  11.433  15.743  10.761  0.0068  0.1392  0.4643
27302DOD     C325727  11.675  15.372  10.761 -0.3777 -0.1589 -0.0082
27303DOD     C125728  24.707  16.156   0.316 -0.0838  0.3131 -0.1151
27303DOD     C225729  25.124  16.195   0.196 -0.1398 -0.0128  0.3311
27303DOD     C325730  25.581  16.285   0.213 -0.1266  0.0961 -0.2018
27304DOD     C125731  12.993  13.677  24.159 -0.1377  0.1184  0.1113
27304DOD     C225732  12.613  13.849  23.893 -0.0373  0.0202 -0.0802
27304DOD     C325733  12.346  14.171  23.654 -0.1150 -0.1623 -0.1011
27305DOD     C125734   3.843  27.782  15.015  0.0627  0.0238  0.4926
27305DOD     C225735   4.051  27.873  14.561  0.2356  0.0132  0.2594
27305DOD     C325736   4.460  28.075  14.337 -0.1042 -0.0736 -0.0795
27306DOD     C125737  25.067  17.353  12.200 -0.0150 -0.2942  0.1734
27306DOD     C225738  24.946  17.070  11.824  0.0369 -0.1775 -0.1733
27306DOD     C325739  24.944  17.188  11.373 -0.1480 -0.1106 -0.0795
27307DOD     C125740  11.205   3.516  24.926 -0.2359 -0.0193 -0.1491
27307DOD     C225741  11.671   3.491  24.746 -0.0714  0.0843  0.1276
27307DOD     C325742  11.954   3.230  24.485 -0.1371 -0.0078 -0.2261
27308DOD     C125743  11.084   9.752  16.797  0.1169 -0.0501  0.1366
27308DOD     C225744  10.924  10.064  17.154 -0.2930 -0.2170  0.0236
27308DOD     C325745  10.620  10.410  17.253  0.4555  0.1725 -0.1238
27309DOD     C125746   5.462   8.737   4.110  0.3282  0.0524 -0.0974
27309DOD     C225747   5.271   8.439   3.735  0.0746  0.0212 -0.1471
27309DOD     C325748   5.401   8.481   3.267 -0.0976  0.1288 -0.0213
27310DOD     C125749  30.129   2.930  11.271 -0.0535  0.0264  0.0045
27310DOD     C225750  30.059   2.507  11.069 -0.0070  0.0201 -0.4438
27310DOD     C325751  30.329   2.132  11.021  0.2726 -0.0282  0.1922
27311DOD     C125752  24.455  13.742  27.032 -0.5865 -0.6289  0.0454
27311DOD     C225753  24.368  13.555  27.500 -0.1112  0.1259 -0.1835
27311DOD     C325754  24.192  13.448  27.936 -0.1695  0.4481 -0.1074
27312DOD     C125755   5.439  24.293   4.370 -0.2427 -0.0175  0.1998
27312DOD     C225756   4.981  24.136   4.298 -0.0681  0.0131 -0.2085
27312DOD     C325757   4.673  23.848   4.558  0.0014 -0.2176  0.1525
27313DOD     C125758  20.398  14.642  11.675 -0.0628  0.1582 -0.0737
27313DOD     C225759  19.986  14.778  11.523 -0.2488  0.2555 -0.3298
27313DOD     C325760  19.699  14.479  11.390  0.1666 -0.2398 -0.0647
27314DOD     C125761   3.108  10.105  19.062 -0.2641  0.1634  0.1163
27314DOD     C225762   3.509   9.839  19.062 -0.1587 -0.0094  0.1653
27314DOD     C325763   3.950   9.838  19.105 -0.3561  0.0473  0.0535
27315DOD     C125764  14.038   6.471   4.989 -0.0797 -0.0479 -0.0363
27315DOD     C225765  14.406   6.182   5.153 -0.3562 -0.0844 -0.0067
27315DOD     C325766  14.475   5.839   5.415  0.0931 -0.0472 -0.1364
27316DOD     C125767  24.349  19.181   2.652 -0.2942  0.2412 -0.2241
27316DOD     C225768  24.350  18.725   2.576 -0.1344  0.1244 -0.1667
27316DOD     C325769  24.684  18.396   2.604 -0.2861  0.3698 -0.3441
27317DOD     C125770  12.086  18.290  23.255  0.0289 -0.1456  0.1438
27317DOD     C225771  11.905  18.590  22.961 -0.1706 -0.1018  0.2458
27317DOD     C325772  11.781  19.002  22.783 -0.0078 -0.0747  0.0407
27318DOD     C125773  23.137  26.936  17.223 -0.1197  0.0245  0.0467
27318DOD     C225774  23.103  27.350  17.448  0.1937 -0.1086  0.1921
27318DOD     C325775  23.073  27.664  17.803  0.0001  0.0399  0.0073
27319DOD     C125776  24.844  27.313  22.770 -0.0338  0.0917 -0.0832
27319DOD     C225777  24.419  27.184  22.709  0.1543  0.1739 -0.0248
27319DOD     C325778  24.066  26.878  22.618  0.0147  0.2264  0.1070
27320DOD     C125779   9.293  18.801   0.928 -0.2424 -0.1379 -0.0514
27320DOD     C225780   8.986  18.841   1.338  0.1014  0.2558 -0.2750
27320DOD     C325781   9.180  18.662   1.769 -0.1174 -0.0201 -0.1626
27321DOD     C125782  25.689  16.480  28.724 -0.0401  0.0681  0.1120
27321DOD     C225783  25.665  16.193  28.361  0.1613 -0.2380  0.2905
27321DOD     C325784  25.554  15.952  27.990  0.2571 -0.0323  0.0684
27322DOD     C125785  15.711  11.509   2.679  0.0452 -0.1880  0.1923
27322DOD     C225786  15.592  11.504   2.248  0.2260  0.0243  0.1103
27322DOD     C325787  15.814  11.492   1.849  0.0629  0.2605 -0.1220
27323DOD     C125788  10.838   6.976   1.868  0.2087 -0.1931 -0.1800
27323DOD     C225789  11.221   7.138   2.147  0.2742 -0.2676 -0.0233
27323DOD     C325790  11.581   7.060   2.385  0.0449  0.0370 -0.1076
27324DOD     C125791   9.830   7.983   6.034  0.0858 -0.2179  0.2185
27324DOD     C225792   9.723   7.928   5.575  0.0697 -0.2215 -0.0610
27324DOD     C325793   9.486   8.164   5.333  0.0641 -0.2077  0.2503
27325DOD     C125794   3.242  16.873  16.261 -0.1283  0.1080  0.0203
27325DOD     C225795   3.349  16.937  15.790 -0.1734  0.0323 -0.2660
27325DOD     C325796   3.600  16.957  15.342  0.0096 -0.1096  0.1443
27326DOD     C125797   4.556  11.209  15.417 -0.0683 -0.0109 -0.0986
27326DOD     C225798   4.363  11.356  15.820  0.0647 -0.0391 -0.0231
27326DOD     C325799   4.482  11.786  15.946  0.1211  0.1147  0.0024
27327DOD     C125800  29.371   1.729   0.411  0.2093  0.0476  0.5329
27327DOD     C225801  29.045   1.868   0.131 -0.0158 -0.0746  0.1564
27327DOD     C325802  28.620   1.866  30.227  0.0072  0.0073 -0.3556
27328DOD     C125803   1.818  21.475   6.840  0.3159 -0.0982  0.0467
27328DOD     C225804   1.536  21.649   6.530  0.0414 -0.0027  0.0775
27328DOD     C325805   1.238  21.940   6.387 -0.1929 -0.0259  0.0490
27329DOD     C125806   3.755  10.132  14.952 -0.0746 -0.1002 -0.1417
27329DOD     C225807   4.225  10.092  14.930 -0.3587  0.2253 -0.0675
27329DOD     C325808   4.623   9.860  15.002  0.3346  0.0092  0.2866
27330DOD     C125809   6.580   1.922  11.019  0.0314 -0.1506 -0.0823
27330DOD     C225810   6.795   1.565  10.774 -0.1406  0.0997 -0.0064
27330DOD     C325811   7.216   1.514  10.502 -0.0541 -0.1951 -0.2103
27331DOD     C125812   5.069  17.752   8.875  0.1113  0.2109  0.1172
27331DOD     C225813   4.697  17.513   8.793 -0.2171  0.2376  0.0442
27331DOD     C325814   4.277  17.386   8.999 -0.2276 -0.0391 -0.0795
27332DOD     C125815  21.552  17.772  16.224  0.0185  0.0108 -0.4060
27332DOD     C225816  21.361  17.804  16.626  0.1628  0.0012 -0.2701
27332DOD     C325817  21.093  17.451  16.813 -0.2495  0.0179  0.0095
27333DOD     C125818   7.320  11.399   5.658 -0.1402 -0.3141  0.1191
27333DOD     C225819   7.687  11.337   5.312  0.3914  0.1545  0.1528
27333DOD     C325820   8.026  11.451   4.944  0.1990 -0.1323  0.2279
27334DOD     C125821   7.141   9.914   2.621  0.2937 -0.0354 -0.1166
27334DOD     C225822   7.040   9.659   2.266  0.2784 -0.0452  0.2344
27334DOD     C325823   6.930   9.174   2.277  0.3719 -0.2800 -0.1704
27335DOD     C125824   8.714   0.799  10.011 -0.0137 -0.0254  0.0115
27335DOD     C225825   8.885   0.896   9.520  0.3505  0.1667 -0.4628
27335DOD     C325826   8.917   0.839   9.055  0.0629 -0.1183  0.1440
27336DOD     C125827   4.559  14.005  21.277  0.0489  0.1036  0.2559
27336DOD     C225828   4.562  14.451  21.129 -0.1814  0.2647 -0.1126
27336DOD     C325829   4.438  14.847  20.913  0.0020 -0.1521  0.3140
27337DOD     C125830  24.328  28.937   6.778  0.1302 -0.4950  0.0373
27337DOD     C225831  24.471  28.918   7.217  0.2299 -0.2185  0.1562
27337DOD     C325832  24.467  28.489   7.484 -0.0674 -0.1873  0.1133
27338DOD     C125833   9.135   8.865   0.796  0.0093  0.2173  0.1564
27338DOD     C225834   9.097   9.347   0.723  0.1347 -0.0340 -0.2434
27338DOD     C325835   8.951   9.692   0.429 -0.2752 -0.0022 -0.0245
27339DOD     C125836   8.414  17.305  12.174 -0.1569  0.2246 -0.1821
27339DOD     C225837   7.967  17.317  12.132 -0.0615  0.0665 -0.0399
27339DOD     C325838   7.655  17.204  12.439 -0.0529 -0.0113  0.1623
27340DOD     C125839  17.429  17.784   1.273  0.1144  0.0219  0.0226
27340DOD     C225840  17.501  17.290   1.421  0.0266 -0.2887 -0.3193
27340DOD     C325841  17.647  16.967   1.718  0.0422 -0.0366 -0.0069
27341DOD     C125842  13.406  18.107   8.882  0.1733  0.0308 -0.1986
27341DOD     C225843  13.163  17.743   8.641  0.3532 -0.0349 -0.3610
27341DOD     C325844  12.945  17.607   8.239 -0.5240  0.3004 -0.1296
27342DOD     C125845  19.033  10.044  30.009 -0.0455 -0.2891 -0.0005
27342DOD     C225846  19.028   9.789  29.627 -0.1217 -0.1493 -0.1989
27342DOD     C325847  19.144   9.787  29.179  0.3244  0.1238 -0.0386
27343DOD     C125848   2.072   4.696  23.485 -0.0202 -0.0929  0.0321
27343DOD     C225849   1.792   4.415  23.598 -0.0943  0.0546  0.0178
27343DOD     C325850   1.640   4.020  23.656  0.1999  0.3174 -0.3146
27344DOD     C125851   6.722  13.145  14.837 -0.2894  0.1753  0.1437
27344DOD     C225852   6.327  13.154  14.651  0.1439 -0.2021  0.0271
27344DOD     C325853   5.881  13.157  14.449 -0.0075 -0.0420  0.0514
27345DOD     C125854   7.240  18.423   7.310  0.2060 -0.1851  0.3788
27345DOD     C225855   7.081  18.833   7.269 -0.0671  0.2277  0.0669
27345DOD     C325856   6.743  19.210   7.346 -0.1617  0.2395  0.1257
27346DOD     C125857  19.230   7.700  26.908  0.2404 -0.3640 -0.1916
27346DOD     C225858  19.287   8.149  27.156 -0.0336  0.0587 -0.0031
27346DOD     C325859  19.320   8.549  26.996  0.1946 -0.1726 -0.0372
27347DOD     C125860  23.722  26.890  15.503 -0.0699  0.0577 -0.1162
27347DOD     C225861  24.099  26.808  15.239 -0.2347  0.2726  0.1261
27347DOD     C325862  24.541  26.604  15.306 -0.1151 -0.0873  0.1209
27348DOD     C125863  20.328  12.739  26.967  0.3906 -0.0662 -0.0345
27348DOD     C225864  20.711  12.671  27.206  0.0079  0.1868 -0.3138
27348DOD     C325865  21.086  12.401  27.260 -0.4260  0.0853 -0.1952
27349DOD     C125866  16.875  18.178  15.588 -0.1075  0.1949 -0.1421
27349DOD     C225867  17.226  18.199  15.875  0.1996  0.1144  0.0652
27349DOD     C325868  17.629  18.333  16.092 -0.1351 -0.0771  0.0851
27350DOD     C125869   4.536   4.845   9.334  0.1668 -0.2975  0.2359
27350DOD     C225870   4.143   4.674   9.520 -0.2650  0.2676  0.1708
27350DOD     C325871   4.002   4.187   9.585  0.0164 -0.2745 -0.2154
27351DOD     C125872  21.321  12.791  14.876  0.2652  0.2853  0.3562
27351DOD     C225873  21.106  12.409  14.723 -0.0180  0.1339 -0.1407
27351DOD     C325874  20.952  11.941  14.860 -0.0567  0.0141 -0.0192
27352DOD     C125875  29.044  21.324  25.319 -0.2928  0.2076  0.2146
27352DOD     C225876  28.870  20.894  25.161  0.0817 -0.1034 -0.0459
27352DOD     C325877  28.942  20.419  25.255 -0.1514  0.1807  0.2702
27353DOD     C125878  19.431  20.241  24.456  0.1691  0.1333 -0.2794
27353DOD     C225879  19.757  20.008  24.697  0.0166 -0.2747 -0.2129
27353DOD     C325880  20.133  19.897  25.049  0.1541 -0.0535 -0.4105
27354DOD     C125881   3.691  21.007  21.532 -0.0879 -0.1466 -0.0678
27354DOD     C225882   3.392  21.276  21.808 -0.1301  0.2341 -0.3491
27354DOD     C325883   3.384  21.740  21.949 -0.0272  0.0526  0.2159
27355DOD     C125884  23.575   6.900  14.738  0.0317  0.0459  0.2724
27355DOD     C225885  23.660   7.172  14.402 -0.0968 -0.1476 -0.0466
27355DOD     C325886  23.947   7.396  14.129 -0.3331 -0.2362  0.1203
27356DOD     C125887  29.026  29.276  27.617 -0.1631 -0.0014 -0.0591
27356DOD     C225888  29.221  29.183  28.028 -0.0079  0.0214 -0.0114
27356DOD     C325889  29.474  29.197  28.414  0.2303 -0.1579  0.0974
27357DOD     C125890  10.145  10.375   8.780 -0.1067  0.1089  0.2633
27357DOD     C225891  10.433  10.104   8.533  0.3437  0.1602 -0.2291
27357DOD     C325892  10.684  10.042   8.171 -0.0608 -0.1829  0.1298
27358DOD     C125893   3.067  25.442   4.743 -0.4057  0.1135  0.0543
27358DOD     C225894   2.630  25.257   4.630  0.0654  0.0052  0.0150
27358DOD     C325895   2.255  25.322   4.934  0.2511  0.0081 -0.1793
27359DOD     C125896   4.625   0.395  13.035  0.2729 -0.2996 -0.1146
27359DOD     C225897   5.001   0.347  12.748 -0.0576  0.1784 -0.0886
27359DOD     C325898   5.035   0.293  12.290 -0.2667 -0.2319  0.0165
27360DOD     C125899   6.096  22.028  22.125 -0.1279  0.0914 -0.1560
27360DOD     C225900   6.394  21.832  21.857  0.0504 -0.4204 -0.0298
27360DOD     C325901   6.791  21.940  21.667 -0.2011 -0.1685  0.1085
27361DOD     C125902  23.360  26.269  30.138 -0.0068  0.1653 -0.1943
27361DOD     C225903  23.072  25.920  29.934 -0.2642 -0.0573  0.1566
27361DOD     C325904  22.826  25.782  29.535 -0.2634  0.0213  0.1476
27362DOD     C125905  11.535   4.499  26.252 -0.1409  0.2740  0.0590
27362DOD     C225906  11.116   4.363  26.405 -0.0274  0.2581  0.1008
27362DOD     C325907  10.764   4.507  26.613 -0.0570  0.1244  0.0720
27363DOD     C125908   4.762  27.437  27.386  0.0683  0.1629 -0.2139
27363DOD     C225909   4.684  27.812  27.745  0.0320 -0.0221  0.1672
27363DOD     C325910   4.324  27.997  28.025  0.0110  0.2488  0.4569
27364DOD     C125911   5.020   4.454  14.520 -0.3212 -0.2740 -0.1858
27364DOD     C225912   5.021   4.230  14.097  0.0648  0.0803  0.0470
27364DOD     C325913   5.019   4.152  13.653 -0.1538  0.1203  0.0576
27365DOD     C125914   3.441  11.757  30.009  0.2061  0.0909 -0.2015
27365DOD     C225915   3.335  11.981   0.139 -0.0459  0.0452  0.1477
27365DOD     C325916   3.607  12.242   0.414 -0.0378  0.2579 -0.1671
27366DOD     C125917   7.114   5.609   8.424 -0.0637 -0.1979  0.1772
27366DOD     C225918   7.313   5.967   8.300 -0.0148  0.0971  0.0201
27366DOD     C325919   7.638   6.104   7.940  0.2796  0.0201  0.0697
27367DOD     C125920  19.223   3.701  27.227  0.1286 -0.0415  0.0407
27367DOD     C225921  19.227   3.857  27.720 -0.2126 -0.0123 -0.0587
27367DOD     C325922  19.214   3.644  28.113 -0.2330 -0.1420  0.0746
27368DOD     C125923   8.861   6.556   4.558  0.3907  0.0043  0.0010
27368DOD     C225924   8.960   7.004   4.668  0.0513  0.4999  0.1001
27368DOD     C325925   9.203   7.257   4.923 -0.1232  0.1874  0.0453
27369DOD     C125926  22.208  18.565   7.309 -0.1245 -0.2412  0.3489
27369DOD     C225927  21.843  18.796   7.497 -0.3649  0.0649  0.1642
27369DOD     C325928  21.496  19.022   7.705  0.3109 -0.1652 -0.0367
27370DOD     C125929  29.083  28.170  11.667  0.1338 -0.2802 -0.0240
27370DOD     C225930  29.150  28.361  11.277  0.1461 -0.0282 -0.1718
27370DOD     C325931  29.168  28.742  11.065  0.3241 -0.1361 -0.0511
27371DOD     C125932  11.159  25.554  26.152  0.1294  0.1327  0.2250
27371DOD     C225933  11.565  25.533  25.848 -0.1243  0.0000 -0.0517
27371DOD     C325934  11.693  25.471  25.357 -0.1162  0.0085 -0.2625
27372DOD     C125935  23.610  14.100  29.456 -0.4983  0.3184  0.0621
27372DOD     C225936  23.863  13.712  29.394  0.0651  0.1794  0.0094
27372DOD     C325937  23.859  13.237  29.508 -0.1249 -0.0565 -0.1327
27373DOD     C125938  19.858  28.752  10.669  0.2100 -0.1368 -0.0211
27373DOD     C225939  19.688  29.153  10.848 -0.1361  0.1555  0.1040
27373DOD     C325940  19.650  29.277  11.278  0.2061  0.1664  0.3756
27374DOD     C125941  19.572   4.819  26.860 -0.0221  0.0264  0.0313
27374DOD     C225942  19.632   4.377  26.654 -0.2965  0.1209 -0.0325
27374DOD     C325943  19.578   4.062  26.294  0.1264  0.0354  0.0902
27375DOD     C125944  19.224  24.540  25.751  0.1244 -0.0582  0.3075
27375DOD     C225945  18.881  24.423  25.969  0.1228 -0.2224  0.0442
27375DOD     C325946  18.580  24.111  26.047  0.1401  0.0175  0.0584
27376DOD     C125947   3.332  20.409   5.497 -0.2124  0.2543  0.0391
27376DOD     C225948   3.382  19.912   5.527 -0.0269  0.0604  0.0066
27376DOD     C325949   3.460  19.512   5.269  0.0436 -0.0444 -0.2318
27377DOD     C125950  23.066   0.988  10.452  0.1701 -0.2075  0.2279
27377DOD     C225951  22.889   1.411  10.280 -0.0792  0.0783 -0.1727
27377DOD     C325952  22.841   1.777   9.957  0.1591 -0.1500  0.3123
27378DOD     C125953  15.228   5.149   7.178  0.1126  0.0209  0.1242
27378DOD     C225954  15.186   5.163   7.680 -0.0256  0.0091  0.0312
27378DOD     C325955  15.166   5.233   8.179 -0.3583 -0.3116 -0.1037
27379DOD     C125956   0.386  21.799  28.778 -0.1547  0.2278  0.0433
27379DOD     C225957   0.570  21.439  29.025 -0.1133  0.0221  0.1583
27379DOD     C325958   0.425  20.960  29.063  0.0030 -0.2571  0.1497
27380DOD     C125959  25.627  19.179  17.780 -0.1084  0.1400  0.1898
27380DOD     C225960  25.800  18.879  18.073 -0.0316 -0.1695  0.4070
27380DOD     C325961  26.141  18.636  18.338  0.0976  0.0458 -0.2061
27381DOD     C125962  11.480  30.018  17.433 -0.3403 -0.3982  0.0120
27381DOD     C225963  11.340  30.194  17.031 -0.2252  0.0036  0.1150
27381DOD     C325964  11.384   0.156  16.675  0.0739 -0.0961  0.2376
27382DOD     C125965  27.665  18.532   7.841  0.1758  0.3216  0.5760
27382DOD     C225966  27.724  18.929   8.066  0.0994 -0.1705  0.0547
27382DOD     C325967  27.471  19.335   8.086  0.0804 -0.1252 -0.2939
27383DOD     C125968  27.992  26.464  27.877 -0.5846  0.1790 -0.1839
27383DOD     C225969  28.211  26.254  28.233  0.2344 -0.0392 -0.1910
27383DOD     C325970  28.718  26.193  28.309  0.2264 -0.2544 -0.2299
27384DOD     C125971  10.281  15.283  19.035  0.1470 -0.0013  0.0854
27384DOD     C225972  10.503  15.286  19.413  0.0279 -0.0845  0.0465
27384DOD     C325973  10.836  15.598  19.559  0.0472 -0.3761 -0.0340
27385DOD     C125974   4.273  23.835  18.206 -0.1232 -0.3867  0.2119
27385DOD     C225975   4.266  23.641  18.661  0.2857 -0.0438 -0.1241
27385DOD     C325976   4.082  23.783  19.065  0.0999 -0.0091  0.0232
27386DOD     C125977  19.118   0.251  24.052 -0.2628  0.0652 -0.1006
27386DOD     C225978  19.013   0.030  24.426 -0.1957  0.0044  0.3143
27386DOD     C325979  18.987  30.066  24.716 -0.0917  0.0451 -0.0460
27387DOD     C125980   2.947   7.355  24.858  0.0008  0.0179 -0.0858
27387DOD     C225981   3.012   7.063  25.192  0.2018 -0.1077  0.0857
27387DOD     C325982   3.011   6.743  25.495 -0.1553  0.0198  0.1235
27388DOD     C125983  18.635  19.936  29.888 -0.0945 -0.1477  0.1457
27388DOD     C225984  18.765  20.331  30.168  0.1425  0.2246 -0.1361
27388DOD     C325985  18.622  20.768  30.262  0.2365  0.0403 -0.2869
27389DOD     C125986  -0.040  23.063  24.897 -0.3884  0.0062 -0.2405
27389DOD     C225987   0.319  22.776  25.066  0.0895 -0.1399 -0.0078
27389DOD     C325988   0.709  22.522  25.104 -0.1817  0.1337 -0.1831
27390DOD     C125989   7.860  19.022  11.928 -0.1101  0.0860  0.0519
27390DOD     C225990   7.681  18.747  11.596 -0.0539  0.0483  0.0796
27390DOD     C325991   7.371  18.439  11.353 -0.0002  0.1192  0.2080
27391DOD     C125992   3.383   8.505  12.237  0.1852  0.0111  0.0682
27391DOD     C225993   3.321   8.119  12.552 -0.0999 -0.0871  0.1826
27391DOD     C325994   3.053   8.139  12.979  0.1113  0.4336  0.0129
27392DOD     C125995  27.089  10.329  12.013  0.2414 -0.2683 -0.2106
27392DOD     C225996  27.200   9.899  12.154  0.2485  0.2503  0.2398
27392DOD     C325997  27.181   9.488  12.383  0.2119 -0.1209  0.0805
27393DOD     C125998  16.647  25.425  11.947  0.1693 -0.0431 -0.1165
27393DOD     C225999  16.369  25.428  12.322 -0.4984 -0.0284  0.2189
27393DOD     C326000  16.120  25.621  12.631  0.1518  0.3291  0.0481
27394DOD     C126001  16.071  22.699  20.785 -0.3482  0.0854 -0.0299
27394DOD     C226002  15.771  22.399  21.056 -0.0325  0.1748  0.1268
27394DOD     C326003  15.615  22.240  21.504 -0.0053  0.1735  0.1453
27395DOD     C126004  21.590   0.439   2.817 -0.0585  0.0709 -0.1360
27395DOD     C226005  21.687   0.245   2.398 -0.0052  0.1122 -0.2406
27395DOD     C326006  21.775   0.473   2.004 -0.1470  0.0437  0.0505
27396DOD     C126007   9.331  26.991  26.364  0.0681 -0.2397  0.0064
27396DOD     C226008   9.664  26.876  26.685  0.2242 -0.2627 -0.0210
27396DOD     C326009   9.798  26.658  27.013 -0.0754 -0.0058 -0.0625
27397DOD     C126010  20.871   4.321  17.869 -0.1219 -0.1098 -0.0464
27397DOD     C226011  20.532   4.103  17.578 -0.1613  0.2009 -0.3658
27397DOD     C326012  20.295   4.192  17.191  0.1354 -0.0797 -0.0721
27398DOD     C126013  25.935  27.772  12.140  0.0859 -0.0702  0.3972
27398DOD     C226014  25.515  27.882  12.026  0.0349 -0.0021 -0.1512
27398DOD     C326015  25.434  28.213  11.697  0.2095 -0.0490  0.2520
27399DOD     C126016  21.021  25.761  11.857 -0.1810  0.0033  0.2093
27399DOD     C226017  21.341  25.513  12.025 -0.1307 -0.0553  0.1054
27399DOD     C326018  21.621  25.484  12.356  0.0051  0.3861  0.1833
27400DOD     C126019  28.207   2.693   0.638 -0.1347 -0.0390 -0.2402
27400DOD     C226020  28.558   2.490   0.887  0.0520  0.1540  0.1253
27400DOD     C326021  29.028   2.628   0.873 -0.1382 -0.2071  0.1792
27401DOD     C126022   5.046  16.235  13.778 -0.0698 -0.4190 -0.0477
27401DOD     C226023   5.048  16.633  13.527 -0.3241 -0.0620 -0.1854
27401DOD     C326024   4.837  16.942  13.358 -0.0148 -0.1426  0.2058
27402DOD     C126025   3.947   6.045  16.822  0.0327  0.0646 -0.0710
27402DOD     C226026   4.370   6.101  16.650 -0.1275 -0.1094 -0.3081
27402DOD     C326027   4.538   6.084  16.198 -0.0662 -0.2433  0.0908
27403DOD     C126028  14.197  30.071  21.677  0.0487 -0.1673  0.0619
27403DOD     C226029  14.462  29.866  21.968  0.1724  0.2029  0.1152
27403DOD     C326030  14.874  29.632  21.975 -0.1935 -0.2754 -0.0314
27404DOD     C126031  26.834   0.691   9.688  0.0154 -0.2793  0.1940
27404DOD     C226032  27.000   1.093   9.995  0.4849  0.0885  0.3085
27404DOD     C326033  27.048   1.513   9.891  0.0712  0.0330 -0.2843
27405DOD     C126034  17.694   8.512  15.913  0.2763 -0.1248  0.2158
27405DOD     C226035  17.702   8.708  15.454  0.0916 -0.0009  0.1902
27405DOD     C326036  17.698   8.787  14.947 -0.0773 -0.1037 -0.0216
27406DOD     C126037   2.061   8.424  23.821 -0.2902  0.1022 -0.2095
27406DOD     C226038   2.374   8.126  23.909 -0.0274  0.2665 -0.3171
27406DOD     C326039   2.688   8.121  24.293  0.1462  0.2878  0.1621
27407DOD     C126040  23.631  24.119  15.940  0.0680  0.0518 -0.0611
27407DOD     C226041  23.884  24.496  15.747 -0.0259 -0.2334  0.0420
27407DOD     C326042  24.143  24.841  15.555 -0.1464  0.0222 -0.2965
27408DOD     C126043   1.363   3.496  22.215 -0.0829  0.1626  0.1597
27408DOD     C226044   1.412   3.102  21.999  0.1017  0.0630  0.1307
27408DOD     C326045   1.492   2.688  22.048 -0.2625  0.1156 -0.1062
27409DOD     C126046  22.736  17.623   5.110 -0.3097  0.2732 -0.1104
27409DOD     C226047  22.338  17.757   5.303  0.2840 -0.0705  0.1912
27409DOD     C326048  21.906  17.622   5.454  0.0487 -0.1104 -0.1071
27410DOD     C126049  25.854  16.015  26.450 -0.1495  0.1467 -0.2102
27410DOD     C226050  25.479  15.868  26.290 -0.1542 -0.0852 -0.1172
27410DOD     C326051  25.183  15.656  26.076  0.0090 -0.0709 -0.1067
27411DOD     C126052   4.215  22.240  20.908 -0.0537  0.1595 -0.2516
27411DOD     C226053   4.659  22.354  20.874  0.2334  0.3225  0.2472
27411DOD     C326054   5.083  22.329  20.975  0.0277  0.1582 -0.0952
27412DOD     C126055   5.613  26.480  25.680  0.0577 -0.1393 -0.0831
27412DOD     C226056   5.634  26.284  25.273  0.2541  0.1726  0.0008
27412DOD     C326057   5.863  26.018  24.973  0.0031  0.1411 -0.3736
27413DOD     C126058   4.517  29.350  24.012  0.1095  0.1140  0.0345
27413DOD     C226059   4.316  28.960  24.048  0.0090  0.3831  0.1598
27413DOD     C326060   4.050  28.597  23.907  0.1004 -0.1321 -0.3297
27414DOD     C126061  18.834  24.423  13.808  0.1342  0.0581 -0.2540
27414DOD     C226062  19.254  24.422  13.975  0.2177  0.3357  0.1011
27414DOD     C326063  19.677  24.564  14.116 -0.0415 -0.2565 -0.0135
27415DOD     C126064  26.427  25.111   6.863 -0.0948 -0.0960 -0.0264
27415DOD     C226065  26.261  25.500   7.039  0.2963 -0.0115  0.2598
27415DOD     C326066  25.938  25.615   7.423 -0.1984 -0.0065  0.0991
27416DOD     C126067  12.247  12.322  12.083 -0.0263  0.1944 -0.1494
27416DOD     C226068  11.946  12.401  11.685  0.0764  0.0981 -0.0159
27416DOD     C326069  11.671  12.443  11.327 -0.0540 -0.0744  0.0097
27417DOD     C126070  27.664  24.945  12.836 -0.1252  0.0180 -0.0185
27417DOD     C226071  27.684  25.428  12.772 -0.1768  0.1693  0.0694
27417DOD     C326072  27.855  25.765  12.495  0.1909  0.2919 -0.2204
27418DOD     C126073   8.569   5.224  17.077 -0.1765  0.0830  0.1279
27418DOD     C226074   8.584   5.346  16.673 -0.2171 -0.0324 -0.1888
27418DOD     C326075   8.881   5.409  16.330  0.1105  0.2939  0.0736
27419DOD     C126076   6.307  23.995  18.695 -0.1373 -0.0643 -0.0913
27419DOD     C226077   6.498  24.451  18.712  0.1012  0.1538 -0.1861
27419DOD     C326078   6.730  24.860  18.681  0.0314 -0.1279 -0.0273
27420DOD     C126079  27.591  20.270  10.002  0.1533  0.2563  0.1746
27420DOD     C226080  27.233  20.477  10.285 -0.1197 -0.1437  0.4583
27420DOD     C326081  27.172  20.872  10.443  0.0793 -0.1657 -0.3066
27421DOD     C126082  20.463   6.809   2.322  0.2901  0.1340 -0.1355
27421DOD     C226083  20.754   6.606   2.024 -0.1312  0.3589 -0.1022
27421DOD     C326084  21.091   6.352   1.966  0.0467 -0.3349  0.0690
27422DOD     C126085  10.408   0.144  12.444  0.0190  0.0828  0.1545
27422DOD     C226086   9.882   0.091  12.369 -0.0520  0.1330  0.0110
27422DOD     C326087   9.468   0.076  12.098  0.0448  0.1073 -0.1242
27423DOD     C126088   3.616  19.390   4.787 -0.0200 -0.2288 -0.0852
27423DOD     C226089   3.330  19.776   4.658 -0.2907  0.1118  0.2882
27423DOD     C326090   2.952  20.040   4.676 -0.1673 -0.0991 -0.3118
27424DOD     C126091  11.541   8.588  11.303 -0.1180  0.2484 -0.0743
27424DOD     C226092  11.509   8.348  11.706  0.0037 -0.1813 -0.0650
27424DOD     C326093  11.690   8.124  12.056 -0.1546  0.0525  0.1050
27425DOD     C126094  26.661   8.177  18.826  0.0587  0.0987 -0.0432
27425DOD     C226095  26.394   7.938  19.144  0.2523 -0.1443 -0.2175
27425DOD     C326096  26.034   8.020  19.495  0.0075  0.2645 -0.1031
27426DOD     C126097  18.504   4.685  16.552 -0.1247 -0.0215 -0.1143
27426DOD     C226098  18.142   4.560  16.946  0.0051 -0.2651 -0.0143
27426DOD     C326099  17.696   4.528  17.117 -0.3035 -0.1111 -0.2360
27427DOD     C126100   6.060   9.030  13.787  0.2873 -0.2848  0.0326
27427DOD     C226101   5.866   8.914  13.430 -0.0609 -0.3234 -0.1368
27427DOD     C326102   6.262   9.056  13.122  0.0205  0.0749 -0.0842
27428DOD     C126103  27.259  19.500  14.105 -0.1930  0.0650 -0.0475
27428DOD     C226104  26.832  19.710  14.195 -0.1188 -0.1967 -0.1662
27428DOD     C326105  26.418  19.747  13.992  0.0172  0.1109  0.0788
27429DOD     C126106  15.330  19.186   6.261 -0.0322 -0.0003 -0.2848
27429DOD     C226107  14.922  19.048   6.436 -0.1505 -0.2474  0.1419
27429DOD     C326108  14.466  18.967   6.503 -0.0096 -0.0731 -0.1973
27430DOD     C126109   9.714  10.409  28.778 -0.0215 -0.1923 -0.6303
27430DOD     C226110   9.416  10.059  28.621  0.0750  0.0740 -0.1878
27430DOD     C326111   9.165   9.884  28.984  0.0210  0.0133 -0.0001
27431DOD     C126112   6.833  25.299  22.554  0.0288 -0.2494 -0.1188
27431DOD     C226113   6.525  25.054  22.826  0.1180 -0.1250  0.2265
27431DOD     C326114   6.352  25.181  23.199  0.2384 -0.0403 -0.1482
27432DOD     C126115  14.294  17.767   8.062  0.0063 -0.2893  0.2008
27432DOD     C226116  13.943  17.829   7.781  0.0737 -0.3106  0.0014
27432DOD     C326117  13.559  17.741   7.852 -0.2049 -0.1671  0.2342
27433DOD     C126118  20.519  29.303  30.249  0.1116  0.1451 -0.1374
27433DOD     C226119  20.363  28.989  29.954  0.4032 -0.0281 -0.0527
27433DOD     C326120  20.099  28.805  29.584  0.2159  0.2717  0.0526
27434DOD     C126121  25.199  18.366  29.515 -0.1353 -0.1407 -0.1898
27434DOD     C226122  24.985  18.012  29.321  0.0750  0.2258 -0.0311
27434DOD     C326123  25.007  17.569  29.222 -0.2775  0.0693 -0.3543
27435DOD     C126124  15.387   6.611  21.849 -0.1748  0.1451 -0.2374
27435DOD     C226125  15.064   6.359  22.003 -0.0651  0.1689 -0.2308
27435DOD     C326126  14.860   6.051  21.730  0.0657 -0.2392  0.2925
27436DOD     C126127  20.370  15.887  23.519  0.1807  0.0141  0.1502
27436DOD     C226128  20.109  16.128  23.168  0.1649 -0.0890  0.3836
27436DOD     C326129  20.030  16.555  22.945  0.0826 -0.3041  0.1177
27437DOD     C126130  10.197   6.627   9.854 -0.1472  0.1481  0.0935
27437DOD     C226131  10.417   6.807   9.499 -0.1208 -0.0498 -0.0432
27437DOD     C326132  10.362   6.796   9.038 -0.0838 -0.3779  0.1383
27438DOD     C126133   0.068  10.162   4.834 -0.1065 -0.1547  0.0287
27438DOD     C226134   0.133  10.631   4.763 -0.0215 -0.0423  0.4135
27438DOD     C326135  30.262  11.066   4.617 -0.0758 -0.0739 -0.4203
27439DOD     C126136  19.064  14.180  13.546 -0.0120 -0.3259  0.3386
27439DOD     C226137  19.258  14.575  13.714 -0.1626 -0.0934 -0.2688
27439DOD     C326138  19.429  14.968  13.902 -0.1540 -0.0019 -0.0838
27440DOD     C126139  24.880  26.826  16.628  0.0715  0.0338  0.0855
27440DOD     C226140  24.532  26.552  16.577 -0.1186 -0.0789 -0.1230
27440DOD     C326141  24.245  26.232  16.781  0.1960  0.1799  0.1910
27441DOD     C126142   4.393  15.013   2.689 -0.0470 -0.0408 -0.2702
27441DOD     C226143   4.447  14.739   2.383  0.0139  0.0656  0.2584
27441DOD     C326144   4.690  14.566   2.038  0.0038  0.0503 -0.0302
27442DOD     C126145   5.587  22.869  29.711 -0.0874 -0.0365 -0.0634
27442DOD     C226146   5.123  22.715  29.620 -0.0180 -0.0654  0.0788
27442DOD     C326147   4.881  22.362  29.426  0.1221  0.0220  0.0799
27443DOD     C126148  26.177  26.912  11.420 -0.1959 -0.1348 -0.2343
27443DOD     C226149  26.408  26.957  11.812  0.3070 -0.0990  0.2309
27443DOD     C326150  26.355  26.840  12.299 -0.1517 -0.2359  0.0095
27444DOD     C126151  20.499   7.773  21.772 -0.0698  0.1818  0.0573
27444DOD     C226152  20.743   8.101  21.996  0.0152 -0.1730 -0.1067
27444DOD     C326153  20.978   8.363  22.333  0.0790 -0.1866  0.3689
27445DOD     C126154  15.520  18.405   8.523 -0.0112 -0.0694  0.0570
27445DOD     C226155  15.774  17.967   8.506 -0.1111  0.1312 -0.4264
27445DOD     C326156  16.254  17.826   8.608 -0.0828 -0.0369  0.1863
27446DOD     C126157  25.531  17.528  30.189 -0.2399  0.0938  0.0045
27446DOD     C226158  25.784  17.339   0.217  0.2326  0.3635  0.2453
27446DOD     C326159  25.907  17.337   0.679 -0.0918  0.2448  0.1758
27447DOD     C126160  12.388   9.276   8.036 -0.0972  0.2741  0.3031
27447DOD     C226161  11.924   9.116   8.023 -0.2360  0.1981 -0.1806
27447DOD     C326162  11.601   9.431   8.009  0.0347 -0.0474 -0.0154
27448DOD     C126163  29.648  12.105   5.019  0.0989  0.1484 -0.0109
27448DOD     C226164  29.848  11.929   4.631  0.2808 -0.1390  0.3621
27448DOD     C326165  30.239  11.671   4.622  0.3362  0.1836  0.1494
27449DOD     C126166  12.209   8.811  21.422  0.0694  0.0564 -0.0919
27449DOD     C226167  12.468   8.442  21.660  0.0707  0.0568 -0.0931
27449DOD     C326168  12.742   8.075  21.572  0.2883  0.0986 -0.1805
27450DOD     C126169  18.308  14.177  15.572 -0.2424 -0.1696  0.2517
27450DOD     C226170  17.912  14.162  15.381 -0.0137  0.0687 -0.0321
27450DOD     C326171  17.761  14.174  14.921 -0.1268 -0.3835 -0.0831
27451DOD     C126172   5.214   6.473   8.759  0.1029 -0.2418 -0.0449
27451DOD     C226173   4.944   6.313   8.396  0.2075 -0.1936 -0.1047
27451DOD     C326174   4.728   5.855   8.414  0.1025 -0.1823 -0.0863
27452DOD     C126175  19.694  22.576   2.161  0.0141 -0.0899  0.0023
27452DOD     C226176  19.871  22.160   2.442 -0.3977 -0.3723  0.0260
27452DOD     C326177  20.226  22.137   2.752 -0.0406 -0.1837 -0.0618
27453DOD     C126178   7.810  27.226   3.209  0.0374  0.1814  0.0656
27453DOD     C226179   7.885  27.549   2.846 -0.0391 -0.0548  0.1320
27453DOD     C326180   8.186  27.479   2.419  0.0722 -0.3148 -0.2405
27454DOD     C126181  24.303  12.101   1.067  0.0377  0.4511 -0.0724
27454DOD     C226182  24.207  11.842   0.613 -0.0802 -0.1825 -0.1635
27454DOD     C326183  24.270  11.558   0.253  0.1859  0.3217  0.1366
27455DOD     C126184   6.356  19.543  14.477 -0.2829  0.1434 -0.2131
27455DOD     C226185   6.533  19.827  14.149  0.0481  0.4964 -0.4500
27455DOD     C326186   6.423  20.140  13.840  0.0435  0.0120 -0.2458
27456DOD     C126187   5.286  17.783  27.693  0.0858  0.0632  0.2468
27456DOD     C226188   5.110  17.381  27.826 -0.2063 -0.3123  0.2456
27456DOD     C326189   4.915  16.941  27.883  0.1148  0.0666  0.2603
27457DOD     C126190   1.282  10.273  26.876 -0.1274 -0.0008 -0.0287
27457DOD     C226191   0.982  10.427  27.270 -0.0403 -0.1923 -0.0793
27457DOD     C326192   0.769  10.641  27.626 -0.2076 -0.0543 -0.1244
27458DOD     C126193  17.015  29.967  18.188  0.2303 -0.2832  0.0349
27458DOD     C226194  16.825   0.008  18.048 -0.1039 -0.0319 -0.1426
27458DOD     C326195  17.008   0.372  17.878  0.1793 -0.1021 -0.1427
27459DOD     C126196  20.140  30.274  22.815 -0.0076 -0.0827 -0.0823
27459DOD     C226197  20.183  29.772  22.890 -0.3174  0.0652 -0.0237
27459DOD     C326198  19.973  29.390  23.018 -0.0848  0.4161  0.1052
27460DOD     C126199   3.649  16.680  26.049  0.0110  0.0615  0.0339
27460DOD     C226200   3.928  17.062  25.898 -0.0492  0.0824 -0.4523
27460DOD     C326201   3.890  17.356  25.564  0.0879  0.0456 -0.0137
27461DOD     C126202  21.922   9.550   0.523  0.0206 -0.0406 -0.0967
27461DOD     C226203  22.312   9.356   0.350  0.1160 -0.2521  0.0936
27461DOD     C326204  22.486   9.261  30.253  0.0468 -0.0760  0.1663
27462DOD     C126205  18.727   3.984   7.899  0.0515  0.1487 -0.3318
27462DOD     C226206  18.365   4.158   8.110 -0.0054 -0.1313  0.0708
27462DOD     C326207  18.128   4.575   8.070  0.3594  0.1093  0.1500
27463DOD     C126208  21.272   4.385  26.476 -0.0554  0.1632 -0.0491
27463DOD     C226209  21.188   3.997  26.651  0.1242 -0.0239  0.0417
27463DOD     C326210  21.395   3.855  27.042  0.1590  0.1103 -0.0845
27464DOD     C126211   3.997  25.847  29.175 -0.2486  0.1717 -0.2808
27464DOD     C226212   4.002  25.404  29.119  0.1391 -0.2791  0.4050
27464DOD     C326213   4.104  25.033  28.856  0.3473  0.3303 -0.1054
27465DOD     C126214   7.097  22.677   8.837  0.0895 -0.3266  0.3703
27465DOD     C226215   7.519  22.749   8.661  0.2039  0.2023 -0.1324
27465DOD     C326216   7.870  22.943   8.436 -0.1115 -0.1310  0.2793
27466DOD     C126217   2.283  20.426  16.213 -0.0486  0.2063 -0.6452
27466DOD     C226218   2.464  20.278  16.634  0.1857 -0.0115 -0.1071
27466DOD     C326219   2.663  20.229  17.042  0.0068  0.0622  0.2268
27467DOD     C126220  16.262  27.224   7.457  0.0678 -0.1896  0.0402
27467DOD     C226221  15.932  27.561   7.569  0.2437 -0.1219  0.0232
27467DOD     C326222  15.735  27.958   7.376  0.0410  0.1409 -0.2068
27468DOD     C126223   3.275  14.969   0.438  0.2252  0.1398  0.2834
27468DOD     C226224   3.135  15.276   0.767  0.0986  0.1908 -0.1728
27468DOD     C326225   2.977  15.636   1.030 -0.1829 -0.2684  0.2968
27469DOD     C126226   9.368   6.801   6.945 -0.1690 -0.2295 -0.0241
27469DOD     C226227   8.965   6.860   6.959  0.1289  0.3368  0.0039
27469DOD     C326228   8.522   6.794   6.867  0.1843 -0.0002  0.0546
27470DOD     C126229  15.343  11.021   3.859 -0.2108  0.0732 -0.1671
27470DOD     C226230  15.203  11.383   4.169  0.3152 -0.0836  0.2772
27470DOD     C326231  14.969  11.773   4.346  0.1461  0.3683  0.2305
27471DOD     C126232   9.406   4.583  23.951 -0.0819 -0.1330 -0.0024
27471DOD     C226233   9.645   4.973  24.093  0.0964  0.1665  0.3344
27471DOD     C326234  10.084   5.140  24.250 -0.3296 -0.2780  0.2314
27472DOD     C126235  14.667   0.937  14.262 -0.0227  0.3165 -0.3089
27472DOD     C226236  15.087   0.787  14.305 -0.0019  0.2585 -0.0117
27472DOD     C326237  15.357   0.396  14.204 -0.2405 -0.0279 -0.0586
27473DOD     C126238  29.032  16.955  23.599  0.2839  0.0812  0.0915
27473DOD     C226239  29.078  16.591  23.916 -0.2324  0.0870  0.3192
27473DOD     C326240  28.991  16.095  23.950 -0.2308  0.0447  0.2165
27474DOD     C126241  25.308   8.872  12.786 -0.1905  0.1081  0.0996
27474DOD     C226242  25.587   8.711  13.133 -0.0514  0.3201 -0.1900
27474DOD     C326243  25.614   8.847  13.557 -0.1417  0.3624  0.0369
27475DOD     C126244   8.611  20.687  23.373  0.2849  0.2687 -0.3492
27475DOD     C226245   8.358  20.694  23.773  0.2515 -0.0554 -0.2249
27475DOD     C326246   8.086  21.093  23.918  0.4266  0.2709 -0.2631
27476DOD     C126247   4.780   8.983   8.456  0.1706  0.2681  0.3767
27476DOD     C226248   4.475   8.567   8.485 -0.0820  0.1562  0.0921
27476DOD     C326249   4.048   8.370   8.513 -0.0639  0.0829  0.0054
27477DOD     C126250  12.025   3.598  16.920  0.4759 -0.2231 -0.2089
27477DOD     C226251  12.238   3.392  17.266 -0.4110 -0.2099  0.2920
27477DOD     C326252  12.053   2.980  17.440  0.0084 -0.0834  0.0532
27478DOD     C126253  12.278  26.678   3.329  0.0062 -0.0691 -0.0139
27478DOD     C226254  12.445  27.109   3.414 -0.3021 -0.1420 -0.2741
27478DOD     C326255  12.651  27.515   3.315  0.0418 -0.0024 -0.0200
27479DOD     C126256   4.016  13.352   1.378  0.1529  0.0479 -0.2810
27479DOD     C226257   3.895  12.975   1.153 -0.0581  0.0447 -0.3359
27479DOD     C326258   3.548  12.692   1.077 -0.1480 -0.0047 -0.0267
27480DOD     C126259  28.094  11.761   3.352  0.0087 -0.0429  0.1882
27480DOD     C226260  27.826  11.490   3.072 -0.1534 -0.0234  0.0500
27480DOD     C326261  27.687  11.162   2.775  0.3773 -0.2555 -0.4151
27481DOD     C126262  20.641  29.878  25.963 -0.3021  0.1876 -0.0076
27481DOD     C226263  20.843   0.008  25.888  0.1018 -0.1063 -0.1945
27481DOD     C326264  21.174   0.334  25.901 -0.1763 -0.2778  0.0581
27482DOD     C126265  21.444  22.023  10.823 -0.0570  0.0827 -0.1189
27482DOD     C226266  21.368  22.325  10.506  0.3053  0.1655  0.1634
27482DOD     C326267  21.472  22.346  10.070  0.1354 -0.2401 -0.0333
27483DOD     C126268  10.884  15.128   6.407 -0.2785 -0.3268 -0.0794
27483DOD     C226269  10.569  14.886   6.106 -0.0019  0.2048  0.2010
27483DOD     C326270  10.670  14.507   5.793 -0.3593 -0.1182  0.1324
27484DOD     C126271  22.130   4.424  12.220  0.0857 -0.1594 -0.0852
27484DOD     C226272  22.009   4.655  11.821  0.0598 -0.0583 -0.0319
27484DOD     C326273  22.113   5.058  11.582 -0.0679 -0.0549  0.5053
27485DOD     C126274  24.970  13.622  27.401  0.0474  0.2923 -0.1916
27485DOD     C226275  24.954  14.024  27.118  0.0500  0.0077  0.2524
27485DOD     C326276  25.364  14.260  26.952  0.1804  0.1750 -0.0996
27486DOD     C126277   1.332  13.566   6.604 -0.0061 -0.0419  0.3197
27486DOD     C226278   1.358  13.119   6.524  0.1490 -0.0529  0.3225
27486DOD     C326279   1.288  12.801   6.218 -0.2401 -0.1192 -0.0271
27487DOD     C126280   8.075   0.894   5.400  0.1235 -0.1805  0.2478
27487DOD     C226281   7.631   0.957   5.272 -0.1342 -0.2722  0.0687
27487DOD     C326282   7.387   1.307   5.107 -0.1132  0.0912 -0.1989
27488DOD     C126283  16.121  12.383  19.354  0.1785  0.0536 -0.3256
27488DOD     C226284  15.882  12.283  18.941 -0.1824 -0.1899 -0.3024
27488DOD     C326285  15.557  12.192  18.669  0.0701  0.0324  0.2371
27489DOD     C126286   0.977  17.051  18.602  0.3077  0.1271  0.0134
27489DOD     C226287   1.277  16.938  18.963  0.3863  0.3651  0.1562
27489DOD     C326288   1.446  16.912  19.372  0.1571 -0.0172 -0.0044
27490DOD     C126289  12.703  15.466   9.734  0.1599  0.1508 -0.1174
27490DOD     C226290  13.188  15.368   9.799 -0.1378 -0.3041 -0.1153
27490DOD     C326291  13.496  15.448   9.435  0.2810 -0.1029 -0.1746
27491DOD     C126292  25.007  17.232  10.408 -0.2127  0.0628 -0.1899
27491DOD     C226293  24.843  16.819  10.342  0.2410 -0.2393  0.0549
27491DOD     C326294  24.713  16.427  10.144  0.1798  0.1929 -0.1075
27492DOD     C126295  19.233  17.596   4.686 -0.2439 -0.0113 -0.0538
27492DOD     C226296  18.830  17.337   4.530 -0.1663 -0.1959  0.1789
27492DOD     C326297  18.524  16.987   4.630  0.1755  0.3190 -0.0598
27493DOD     C126298   8.747  11.392   2.194 -0.1119  0.2588 -0.1551
27493DOD     C226299   8.418  11.443   1.909 -0.0895  0.0629 -0.1018
27493DOD     C326300   7.985  11.277   1.855 -0.0403  0.2828  0.2772
27494DOD     C126301   5.669  19.992  20.296  0.0027  0.4056 -0.0988
27494DOD     C226302   5.859  19.967  20.706 -0.3050 -0.2962  0.2706
27494DOD     C326303   6.004  20.112  21.077 -0.0863  0.0636  0.1876
27495DOD     C126304   0.682   9.939  11.488 -0.2342 -0.0866  0.0207
27495DOD     C226305   0.719   9.749  11.076  0.2971  0.1282 -0.1435
27495DOD     C326306   0.455   9.473  10.867 -0.0125  0.0160 -0.3402
27496DOD     C126307  10.311  16.227  15.671  0.1581 -0.1136  0.0388
27496DOD     C226308  10.580  16.390  15.366 -0.1629  0.2961  0.4570
27496DOD     C326309  10.944  16.647  15.199  0.0645 -0.1064  0.0579
27497DOD     C126310  28.913  13.019  14.032  0.0646 -0.0067  0.1303
27497DOD     C226311  29.171  12.722  13.896 -0.0458 -0.0564 -0.2351
27497DOD     C326312  29.409  12.407  14.158 -0.1759 -0.1537 -0.2469
27498DOD     C126313   5.599  25.556  28.141  0.0983  0.1836  0.1818
27498DOD     C226314   5.326  25.658  27.743  0.0446  0.3094  0.0013
27498DOD     C326315   4.990  25.556  27.358  0.0037 -0.0085 -0.2884
27499DOD     C126316   0.322  14.342  16.861  0.3535  0.2356  0.0991
27499DOD     C226317   0.608  13.993  17.022  0.2131 -0.0862  0.1105
27499DOD     C326318   0.867  13.630  16.852  0.2283  0.1044  0.0217
27500DOD     C126319  22.697  25.001  27.722  0.2240  0.0847  0.0522
27500DOD     C226320  22.442  24.811  28.082  0.0817 -0.1958  0.0434
27500DOD     C326321  22.066  24.888  28.300  0.1423  0.2160 -0.3530
27501DOD     C126322   3.794   2.778   4.713 -0.0358  0.0001  0.0148
27501DOD     C226323   3.593   2.884   5.117  0.2237  0.2561 -0.2520
27501DOD     C326324   3.291   2.816   5.448 -0.0988  0.1509  0.1324
27502DOD     C126325   1.541  12.698   0.782 -0.2069 -0.1394 -0.0920
27502DOD     C226326   1.212  13.049   0.611 -0.0617  0.1954  0.1574
27502DOD     C326327   0.898  13.424   0.596 -0.0701 -0.2743 -0.2270
27503DOD     C126328   5.866  27.491  16.896  0.0060  0.1658  0.3186
27503DOD     C226329   6.268  27.366  16.783  0.0769  0.5442  0.0746
27503DOD     C326330   6.711  27.503  16.670 -0.4692 -0.1024 -0.4812
27504DOD     C126331  20.454  27.623   6.936  0.3072 -0.0554 -0.1877
27504DOD     C226332  20.703  27.191   7.050  0.0468 -0.2182  0.0717
27504DOD     C326333  20.831  26.792   6.765  0.1533  0.0181 -0.1220
27505DOD     C126334  25.463  10.062   6.577 -0.1850 -0.1722  0.2387
27505DOD     C226335  25.383  10.355   6.912  0.0659  0.4427 -0.3854
27505DOD     C326336  25.261  10.771   7.068  0.0291  0.0670 -0.1724
27506DOD     C126337   1.191   1.159  11.879 -0.0571 -0.1102  0.1370
27506DOD     C226338   1.413   0.775  11.744  0.0305 -0.1171 -0.2404
27506DOD     C326339   1.849   0.674  11.645  0.1814 -0.0873  0.4455
27507DOD     C126340  13.039  26.387  17.948  0.0320 -0.2388  0.2834
27507DOD     C226341  13.176  26.848  17.871 -0.0696 -0.0411  0.1342
27507DOD     C326342  13.515  27.102  17.650 -0.3225  0.1206  0.0857
27508DOD     C126343  15.871  17.175  19.670 -0.0552  0.0783  0.1361
27508DOD     C226344  16.342  17.247  19.845 -0.1058  0.1359  0.2057
27508DOD     C326345  16.686  17.381  20.149 -0.0829 -0.0827 -0.1488
27509DOD     C126346  26.446  17.966  24.375 -0.5975  0.1070 -0.1326
27509DOD     C226347  26.485  18.315  24.700  0.1844  0.0153 -0.0390
27509DOD     C326348  26.580  18.745  24.795  0.1534  0.1442  0.0429
27510DOD     C126349  16.721  12.834   1.158  0.1689  0.0196 -0.0123
27510DOD     C226350  16.674  12.371   1.104 -0.0803 -0.1225  0.2540
27510DOD     C326351  16.470  12.008   1.363  0.0940  0.0981 -0.1393
27511DOD     C126352  28.700  18.158  12.381 -0.2239  0.0150  0.0946
27511DOD     C226353  28.803  18.029  11.907 -0.0543  0.1531 -0.1682
27511DOD     C326354  29.184  17.984  11.677  0.0769  0.3993 -0.0541
27512DOD     C126355   7.407  22.615   2.823  0.0790 -0.0397 -0.0407
27512DOD     C226356   7.698  22.603   3.179 -0.1623  0.3177  0.3703
27512DOD     C326357   7.773  22.351   3.521  0.1070 -0.0515  0.1447
27513DOD     C126358  25.089  26.348  19.815  0.0303  0.1357 -0.0735
27513DOD     C226359  25.366  26.531  19.517 -0.1862  0.1958  0.3577
27513DOD     C326360  25.365  26.820  19.073  0.0460 -0.3557  0.0855
27514DOD     C126361   3.691  20.126  21.317 -0.0489  0.1027  0.1342
27514DOD     C226362   3.367  20.054  21.639 -0.2422  0.0276 -0.0671
27514DOD     C326363   3.468  20.125  22.049 -0.1338 -0.0664 -0.2371
27515DOD     C126364  10.303  15.489   2.664 -0.1534 -0.0474 -0.2533
27515DOD     C226365  10.497  15.050   2.622  0.1603  0.1656  0.1805
27515DOD     C326366  10.697  14.668   2.778  0.0706 -0.1351  0.0534
27516DOD     C126367  28.185   1.409   4.587 -0.1505 -0.2993 -0.0940
27516DOD     C226368  28.226   1.752   4.286 -0.0778 -0.0396  0.2522
27516DOD     C326369  28.412   2.167   4.159 -0.1021  0.0790  0.0588
27517DOD     C126370   3.694   3.470  15.395  0.1566  0.3992  0.0517
27517DOD     C226371   3.538   3.831  15.236 -0.0974  0.0689 -0.1913
27517DOD     C326372   3.671   4.141  14.924 -0.1155  0.0511 -0.1722
27518DOD     C126373   7.999  15.581  20.072  0.1306  0.1665 -0.1017
27518DOD     C226374   8.105  15.153  19.903  0.1327 -0.2942  0.1486
27518DOD     C326375   8.136  14.668  19.786 -0.2364 -0.2257 -0.1095
27519DOD     C126376   1.832  16.820  27.838  0.0060  0.2397 -0.1048
27519DOD     C226377   1.447  16.824  28.182 -0.1983  0.0692 -0.1955
27519DOD     C326378   1.051  16.696  28.383  0.0758  0.0693 -0.1370
27520DOD     C126379  17.544   0.937  11.345  0.2901 -0.0139 -0.0393
27520DOD     C226380  17.151   1.114  11.457  0.0047 -0.3099 -0.0575
27520DOD     C326381  16.766   1.284  11.424  0.3615  0.0917  0.1398
27521DOD     C126382   7.224   1.270  10.064 -0.0463  0.1979  0.0397
27521DOD     C226383   6.831   1.503  10.231  0.0488  0.4545 -0.0987
27521DOD     C326384   6.742   1.972  10.048 -0.3228 -0.4202  0.0593
27522DOD     C126385  11.424   7.297   3.652  0.1479  0.0849 -0.3067
27522DOD     C226386  11.109   7.316   4.010 -0.1537 -0.2094 -0.1995
27522DOD     C326387  10.807   7.468   4.351 -0.3885 -0.1689 -0.1488
27523DOD     C126388   2.671  14.684  21.564 -0.1574  0.0006  0.1412
27523DOD     C226389   2.873  14.261  21.557  0.0413  0.1686  0.2578
27523DOD     C326390   3.265  13.971  21.606 -0.1464  0.2805 -0.0158
27524DOD     C126391   6.396  18.369   4.010 -0.0193  0.0518 -0.1394
27524DOD     C226392   6.641  18.372   4.471  0.0770 -0.0131  0.2007
27524DOD     C326393   7.165  18.446   4.451  0.1201  0.1737 -0.1327
27525DOD     C126394  25.427  11.872  29.807  0.2052 -0.0073  0.0818
27525DOD     C226395  25.124  11.968  30.171 -0.1988 -0.2057 -0.0643
27525DOD     C326396  24.756  11.725  30.289 -0.0730  0.0205 -0.0460
27526DOD     C126397  19.130  29.671  28.490 -0.0379 -0.1692 -0.1254
27526DOD     C226398  18.884  29.580  28.824  0.2536  0.2211 -0.2073
27526DOD     C326399  18.665  29.800  29.188  0.2352  0.1470 -0.0320
27527DOD     C126400   9.984  16.076  15.252 -0.1846  0.1742  0.2658
27527DOD     C226401  10.187  16.488  15.054  0.0664 -0.1403  0.0360
27527DOD     C326402  10.165  16.775  14.710 -0.0666  0.0352 -0.0242
27528DOD     C126403  16.408  16.541  28.702 -0.0022  0.0003 -0.1438
27528DOD     C226404  16.218  16.944  28.849  0.0789 -0.0341  0.0819
27528DOD     C326405  16.059  17.399  28.841 -0.2904 -0.0359 -0.1206
27529DOD     C126406  28.996   7.515  11.927 -0.3306  0.1647  0.1337
27529DOD     C226407  28.526   7.504  11.862  0.5053  0.0633 -0.3399
27529DOD     C326408  28.109   7.625  12.138  0.0057  0.1892 -0.1666
27530DOD     C126409  28.952  10.735  14.642 -0.0451 -0.2039 -0.0112
27530DOD     C226410  29.410  10.598  14.611 -0.3685  0.2480 -0.0138
27530DOD     C326411  29.829  10.482  14.465  0.0944  0.1449 -0.2482
27531DOD     C126412  10.448  23.695  22.332 -0.1068 -0.4633  0.2837
27531DOD     C226413  10.644  23.343  22.545 -0.0098  0.1350 -0.1832
27531DOD     C326414  11.057  23.125  22.677 -0.0655 -0.2809 -0.2199
27532DOD     C126415  14.199   4.577  26.874 -0.0709 -0.1009 -0.1788
27532DOD     C226416  14.535   4.796  26.742 -0.1917  0.0695 -0.6455
27532DOD     C326417  14.903   5.053  27.011  0.2931 -0.0501  0.1010
27533DOD     C126418  24.620  19.779   9.805  0.2130  0.3879  0.0316
27533DOD     C226419  24.910  19.706   9.527  0.2436  0.0515 -0.0638
27533DOD     C326420  24.930  19.345   9.231 -0.1622 -0.1201 -0.1920
27534DOD     C126421   8.018   8.854  14.600  0.1062 -0.3608  0.1960
27534DOD     C226422   7.720   8.856  14.930 -0.2469  0.2030  0.0733
27534DOD     C326423   7.364   8.984  15.190  0.0593  0.1578  0.0496
27535DOD     C126424  29.760  11.677  25.049  0.0544  0.0790 -0.0544
27535DOD     C226425  30.148  11.814  24.853  0.1088 -0.0500  0.1456
27535DOD     C326426   0.106  12.194  24.807  0.2872  0.2250  0.0537
27536DOD     C126427  16.084  18.899  11.557  0.2622 -0.1075  0.2991
27536DOD     C226428  15.650  19.071  11.608 -0.0089 -0.0313 -0.2878
27536DOD     C326429  15.386  19.360  11.905  0.0487 -0.1107  0.3248
27537DOD     C126430  26.471  14.512   8.138  0.0938  0.2281 -0.3601
27537DOD     C226431  26.367  14.653   8.561  0.1487 -0.0025 -0.0142
27537DOD     C326432  26.515  14.886   8.906  0.0598  0.0703  0.5359
27538DOD     C126433   0.561   2.735  30.024  0.3968  0.2180  0.0205
27538DOD     C226434   0.981   2.553  30.149 -0.3013 -0.1666 -0.2207
27538DOD     C326435   1.414   2.398  30.007  0.0185 -0.0685 -0.0402
27539DOD     C126436  15.122  11.281  13.968  0.1054  0.1169  0.1404
27539DOD     C226437  14.955  10.937  13.694  0.0049 -0.0401  0.2393
27539DOD     C326438  14.839  10.532  13.650 -0.1232 -0.0319 -0.1234
27540DOD     C126439   1.931   2.003  15.061  0.0788  0.0540  0.2429
27540DOD     C226440   2.047   1.792  15.410  0.2535  0.1828  0.0150
27540DOD     C326441   2.077   1.589  15.890 -0.0135  0.0218  0.2140
27541DOD     C126442  18.464  28.926   3.193 -0.0241  0.2371 -0.3761
27541DOD     C226443  18.576  29.348   3.503 -0.0036  0.0657  0.0579
27541DOD     C326444  18.678  29.356   3.950 -0.0399 -0.1868 -0.0165
27542DOD     C126445  22.766  14.727   5.497 -0.1658 -0.0576 -0.1420
27542DOD     C226446  22.425  14.496   5.825  0.2294  0.1405 -0.2803
27542DOD     C326447  22.143  14.456   6.265 -0.1104 -0.0286 -0.0046
27543DOD     C126448  11.679  27.603  14.901  0.2034  0.0083  0.3680
27543DOD     C226449  11.963  27.214  14.837 -0.1667  0.3201  0.1649
27543DOD     C326450  11.880  26.733  14.973  0.0627  0.2431 -0.2258
27544DOD     C126451  25.465  15.971   3.730  0.0305  0.1411  0.2769
27544DOD     C226452  25.506  15.507   3.697  0.1590  0.0057  0.0314
27544DOD     C326453  25.557  15.063   3.634  0.0652  0.0663  0.0835
27545DOD     C126454  22.132   0.863  29.050 -0.3384  0.0580 -0.0645
27545DOD     C226455  21.910   1.214  29.131  0.4736  0.1487  0.3261
27545DOD     C326456  21.454   1.257  29.213  0.0127 -0.3844 -0.1690
27546DOD     C126457  27.980  23.164   3.345  0.3135 -0.3280 -0.2539
27546DOD     C226458  27.780  23.419   2.988  0.1957 -0.4186 -0.0039
27546DOD     C326459  27.520  23.760   2.841 -0.0177 -0.2785  0.2254
27547DOD     C126460   0.185  26.379  22.411 -0.0930 -0.4627 -0.0518
27547DOD     C226461  -0.006  26.178  22.805 -0.2551  0.1415 -0.0581
27547DOD     C326462   0.121  25.760  22.969 -0.3417  0.0106  0.1160
27548DOD     C126463   0.238  12.484  26.733 -0.1698  0.0536 -0.1324
27548DOD     C226464   0.086  12.178  27.127 -0.0425 -0.0431  0.0466
27548DOD     C326465   0.190  11.829  27.464  0.2285  0.0746  0.0345
27549DOD     C126466   5.913  21.241  15.435 -0.2163  0.0376 -0.0709
27549DOD     C226467   5.995  20.945  15.767  0.1121 -0.2648  0.0340
27549DOD     C326468   6.235  20.656  16.055  0.2068 -0.3476 -0.0078
27550DOD     C126469  21.913  13.308  10.450 -0.1261  0.4036 -0.1216
27550DOD     C226470  21.652  13.209  10.767  0.0364 -0.0866 -0.3347
27550DOD     C326471  21.414  13.093  11.099 -0.0697  0.1623 -0.1875
27551DOD     C126472  27.236  16.661  26.582  0.0517  0.2090  0.0761
27551DOD     C226473  27.412  16.963  26.856 -0.2048  0.0686 -0.0287
27551DOD     C326474  27.772  17.268  26.956  0.0875 -0.0518 -0.1491
27552DOD     C126475   0.599  30.243   2.356  0.1501  0.2374 -0.0398
27552DOD     C226476   0.685  30.244   2.835 -0.2284 -0.0190  0.4195
27552DOD     C326477   1.005  30.067   3.067  0.0845  0.4121  0.0100
27553DOD     C126478   0.955   0.626  24.978  0.2000 -0.0670  0.0090
27553DOD     C226479   0.667   0.891  24.701  0.4074 -0.1088 -0.0258
27553DOD     C326480   0.310   0.999  24.430  0.0249  0.1321 -0.1464
27554DOD     C126481   2.864   3.809  25.407  0.4669 -0.1549  0.1844
27554DOD     C226482   2.999   4.259  25.263 -0.0772 -0.3248 -0.0611
27554DOD     C326483   2.952   4.501  24.839  0.2659 -0.0845 -0.1601
27555DOD     C126484  15.462  13.755   3.762 -0.3166  0.0702  0.3977
27555DOD     C226485  15.308  14.117   3.486 -0.1534  0.3384  0.0883
27555DOD     C326486  15.541  14.296   3.082  0.0195 -0.2611  0.2115
27556DOD     C126487  17.444  16.174   1.592  0.0552 -0.1785 -0.1568
27556DOD     C226488  17.160  16.067   1.982 -0.1280 -0.2844 -0.0090
27556DOD     C326489  16.976  16.384   2.296  0.2424  0.3830 -0.0204
27557DOD     C126490   8.022  14.568   2.131 -0.0984  0.1787 -0.1356
27557DOD     C226491   7.969  14.337   2.570 -0.2031 -0.3159 -0.0707
27557DOD     C326492   7.850  14.191   2.982 -0.0197 -0.0664  0.0583
27558DOD     C126493   9.070   3.316   4.450  0.0483 -0.2151  0.0295
27558DOD     C226494   8.809   3.729   4.381  0.1164 -0.2181 -0.2247
27558DOD     C326495   8.739   4.203   4.423  0.1576 -0.0330 -0.1146
27559DOD     C126496   3.079  11.600  19.662  0.0986 -0.0915  0.0827
27559DOD     C226497   2.725  11.840  19.902  0.3375 -0.3091 -0.1056
27559DOD     C326498   2.364  12.089  20.166 -0.1807 -0.2557 -0.1111
27560DOD     C126499   8.427  26.192   2.343 -0.2117  0.2526 -0.0056
27560DOD     C226500   7.999  26.268   2.441  0.1334 -0.3156  0.2223
27560DOD     C326501   7.606  26.383   2.661 -0.0315  0.5011 -0.1919
27561DOD     C126502  26.410  19.389  16.700 -0.2281  0.0718  0.2049
27561DOD     C226503  26.596  18.951  16.686  0.1290 -0.1149  0.0176
27561DOD     C326504  26.570  18.588  16.940 -0.1224  0.2726 -0.0854
27562DOD     C126505  28.969   0.889  29.858  0.1668 -0.0967  0.1413
27562DOD     C226506  28.653   0.709  29.595  0.0260 -0.1633 -0.3280
27562DOD     C326507  28.244   0.549  29.377  0.3504 -0.1165  0.0225
27563DOD     C126508  23.602  25.056  28.116 -0.0983  0.1738  0.1485
27563DOD     C226509  23.243  25.108  28.432 -0.1970 -0.2987 -0.0965
27563DOD     C326510  22.811  25.206  28.174  0.0157 -0.3846 -0.1442
27564DOD     C126511   0.358   3.372  17.776  0.0114 -0.0562  0.1031
27564DOD     C226512   0.716   3.712  17.784 -0.2825  0.0432 -0.0845
27564DOD     C326513   1.110   3.921  17.789 -0.1852  0.1478 -0.0074
27565DOD     C126514   8.815  23.259  21.418 -0.0739 -0.0413  0.1585
27565DOD     C226515   9.047  23.653  21.617  0.3008 -0.0379  0.5105
27565DOD     C326516   9.475  23.748  21.747 -0.1210  0.2545  0.0205
27566DOD     C126517   9.477   4.996  18.987  0.3975 -0.4433 -0.0083
27566DOD     C226518   9.816   5.186  19.193 -0.1969  0.1687 -0.3570
27566DOD     C326519   9.932   5.540  19.505  0.0960  0.3443 -0.1849
27567DOD     C126520  17.690  23.922  15.483  0.1357 -0.1221 -0.1470
27567DOD     C226521  18.055  23.741  15.774  0.0654  0.2052  0.2149
27567DOD     C326522  18.260  23.385  16.078  0.0668 -0.0817 -0.1058
27568DOD     C126523   4.599   6.791  23.924  0.0731  0.2051 -0.2493
27568DOD     C226524   4.696   7.010  24.336  0.1184 -0.0173  0.0865
27568DOD     C326525   4.741   7.357  24.645  0.4617  0.3464  0.0854
27569DOD     C126526  11.240  25.854   5.287  0.0843 -0.1735  0.0853
27569DOD     C226527  10.756  25.827   5.229  0.1964 -0.2313  0.0313
27569DOD     C326528  10.425  25.640   4.888 -0.0967  0.0441 -0.0437
27570DOD     C126529  19.246  14.172  17.399 -0.1077 -0.2457  0.0691
27570DOD     C226530  18.995  14.045  17.790  0.0148  0.1246  0.0273
27570DOD     C326531  18.625  14.301  18.056  0.0385  0.3108 -0.0044
27571DOD     C126532   1.564  13.298  12.179  0.2866 -0.0445 -0.1615
27571DOD     C226533   1.400  12.910  12.306 -0.0181  0.1081  0.3265
27571DOD     C326534   1.340  12.535  12.013 -0.0170 -0.0314 -0.0771
27572DOD     C126535  14.448   1.937  24.842  0.0066  0.1375 -0.4108
27572DOD     C226536  14.645   1.808  24.462 -0.2685  0.2667  0.0806
27572DOD     C326537  15.089   1.858  24.289 -0.1296 -0.0724 -0.1855
27573DOD     C126538  24.387  15.115   3.145 -0.0197 -0.0198 -0.0547
27573DOD     C226539  24.876  15.120   3.123 -0.1795  0.0446 -0.0484
27573DOD     C326540  25.170  15.143   2.729 -0.0826  0.1711  0.2248
27574DOD     C126541   8.979   0.594  11.343  0.1241  0.0555 -0.0744
27574DOD     C226542   8.756   0.205  11.225 -0.1751 -0.1207  0.0894
27574DOD     C326543   8.579  30.162  11.437  0.0631 -0.1220 -0.0481
27575DOD     C126544   5.448  12.961  25.170 -0.3538 -0.0377 -0.1490
27575DOD     C226545   5.029  13.055  25.304 -0.0491  0.0156 -0.2693
27575DOD     C326546   4.934  13.260  25.728 -0.0903 -0.1033  0.1253
27576DOD     C126547   4.125  19.496   2.781  0.1668  0.1699 -0.1339
27576DOD     C226548   4.228  19.595   2.344  0.1695 -0.1472 -0.2376
27576DOD     C326549   4.619  19.378   2.106 -0.1876  0.0998  0.2162
27577DOD     C126550  11.728  14.648   0.728 -0.1500  0.1080  0.0069
27577DOD     C226551  11.708  14.932   1.106 -0.1616  0.1032  0.0981
27577DOD     C326552  11.649  15.220   1.494  0.3218  0.1357 -0.0132
27578DOD     C126553  13.465  28.357   5.338 -0.0279 -0.1755  0.0774
27578DOD     C226554  13.675  28.759   5.205  0.0222  0.2968 -0.0718
27578DOD     C326555  14.138  28.956   5.110  0.0434 -0.2440  0.0703
27579DOD     C126556  22.920   2.055   9.381 -0.1453 -0.0047 -0.1048
27579DOD     C226557  23.141   1.678   9.210  0.2389 -0.0886 -0.0089
27579DOD     C326558  23.221   1.245   9.336  0.0401  0.3311 -0.0044
27580DOD     C126559  26.205   2.321  17.214 -0.2262 -0.0371  0.3812
27580DOD     C226560  26.459   2.007  16.970  0.0859  0.1579  0.1392
27580DOD     C326561  26.893   1.798  16.884 -0.1369 -0.0273 -0.3118
27581DOD     C126562  12.233  10.323  25.575 -0.1724  0.2454 -0.1508
27581DOD     C226563  12.472  10.118  25.215  0.0536  0.0245 -0.0535
27581DOD     C326564  12.597  10.342  24.859  0.0147 -0.1398  0.0861
27582DOD     C126565   3.878  18.164  27.529 -0.0568 -0.2632 -0.5867
27582DOD     C226566   4.094  18.556  27.542  0.3887 -0.0888  0.1327
27582DOD     C326567   4.216  18.935  27.838 -0.0721  0.1747 -0.0029
27583DOD     C126568  26.952   3.690   9.762  0.0438 -0.1159  0.0750
27583DOD     C226569  27.248   3.802  10.065 -0.0628 -0.0953  0.0216
27583DOD     C326570  27.381   3.695  10.498  0.2428 -0.2013 -0.0428
27584DOD     C126571  10.995  23.817  29.694  0.2000 -0.1073  0.0357
27584DOD     C226572  11.349  23.887  29.425  0.0738  0.1944  0.1398
27584DOD     C326573  11.800  24.008  29.232 -0.3645  0.1148 -0.0845
27585DOD     C126574  25.963  23.279  20.077 -0.2534 -0.2975  0.2226
27585DOD     C226575  25.923  23.731  19.901  0.0177  0.0536 -0.1936
27585DOD     C326576  26.039  24.158  19.888  0.0189  0.0496  0.2638
27586DOD     C126577  12.421  13.500   2.957 -0.3203  0.0671  0.1059
27586DOD     C226578  12.453  13.608   3.373  0.0274  0.1749 -0.0487
27586DOD     C326579  12.768  13.425   3.648 -0.0328 -0.1177  0.0421
27587DOD     C126580  16.421  27.003   6.917 -0.1392 -0.0844 -0.2737
27587DOD     C226581  16.142  27.074   6.578  0.3380 -0.0306 -0.0591
27587DOD     C326582  16.059  27.009   6.147  0.2030  0.0807  0.2950
27588DOD     C126583  24.135  12.822   4.147 -0.2110 -0.0537 -0.0564
27588DOD     C226584  23.698  12.692   4.303  0.0697 -0.1695 -0.0914
27588DOD     C326585  23.449  12.320   4.172 -0.0970  0.1549  0.2831
27589DOD     C126586  17.918  17.144  23.392 -0.0505 -0.0166 -0.0456
27589DOD     C226587  17.556  16.910  23.295 -0.1713 -0.0050  0.1285
27589DOD     C326588  17.428  16.809  22.858  0.2610 -0.1676 -0.0806
27590DOD     C126589  20.644  21.977  14.840 -0.0060 -0.1348 -0.1203
27590DOD     C226590  20.547  21.521  14.943  0.1074  0.2178  0.0957
27590DOD     C326591  20.256  21.185  15.083 -0.0144  0.2320  0.1724
27591DOD     C126592  19.271   8.255  25.718  0.1055  0.4277  0.1795
27591DOD     C226593  19.240   8.561  26.069 -0.1827  0.0564  0.0776
27591DOD     C326594  19.361   8.772  26.516  0.0057 -0.0417  0.1078
27592DOD     C126595  20.412   1.220  19.254  0.2795  0.0695 -0.2286
27592DOD     C226596  20.346   0.892  19.540  0.1353 -0.1602  0.1801
27592DOD     C326597  20.659   0.663  19.824  0.5199  0.0650 -0.1506
27593DOD     C126598  24.584   1.789   7.867  0.2395 -0.5215  0.1311
27593DOD     C226599  24.328   2.112   7.625  0.2036 -0.1117  0.0049
27593DOD     C326600  24.038   2.468   7.439 -0.0260 -0.1538 -0.2360
27594DOD     C126601  19.526  19.585  10.971  0.0826 -0.1836  0.1673
27594DOD     C226602  19.170  19.589  10.660  0.1711 -0.3352 -0.2025
27594DOD     C326603  18.913  19.292  10.389 -0.1954 -0.0585  0.2341
27595DOD     C126604  23.570  15.746  11.757  0.1206 -0.2192  0.2222
27595DOD     C226605  23.721  15.584  11.352  0.0870  0.0997  0.0701
27595DOD     C326606  23.791  15.511  10.843 -0.2524  0.0440  0.0898
27596DOD     C126607  25.896  10.506   7.227  0.0413 -0.0481  0.0947
27596DOD     C226608  25.503  10.352   7.418  0.3767 -0.0289  0.2404
27596DOD     C326609  25.041  10.265   7.317 -0.1289 -0.0099  0.3100
27597DOD     C126610  15.634  13.197   8.664  0.0436  0.2927  0.0105
27597DOD     C226611  15.675  13.562   8.898  0.2392 -0.0828 -0.0535
27597DOD     C326612  16.047  13.784   9.116  0.2140 -0.1563  0.1243
27598DOD     C126613   4.044  24.351   4.031 -0.1060 -0.0466 -0.0478
27598DOD     C226614   4.482  24.266   4.147 -0.1437 -0.0174 -0.1035
27598DOD     C326615   4.739  24.441   4.538  0.1718  0.0297 -0.2229
27599DOD     C126616  26.671   6.950  14.117  0.2130  0.1628 -0.1405
27599DOD     C226617  26.861   6.571  14.430  0.1266  0.1293 -0.0261
27599DOD     C326618  26.908   6.104  14.652 -0.1011 -0.3065 -0.1967
27600DOD     C126619   0.961  18.650   5.603 -0.3413 -0.0626  0.0641
27600DOD     C226620   1.012  18.812   5.197 -0.0146  0.0844  0.2868
27600DOD     C326621   1.157  19.086   4.863 -0.2405 -0.0559  0.1955
27601DOD     C126622  20.582   7.125   1.936  0.3279 -0.1597 -0.2032
27601DOD     C226623  20.604   7.340   2.407 -0.2779  0.3063 -0.0275
27601DOD     C326624  20.687   7.683   2.717 -0.1317  0.2019 -0.1430
27602DOD     C126625  23.322  25.717  12.876 -0.0045 -0.4369  0.1799
27602DOD     C226626  22.967  25.536  12.617  0.0724 -0.3619  0.1233
27602DOD     C326627  23.061  25.527  12.134  0.2787 -0.2090 -0.1696
27603DOD     C126628  23.735  18.326  13.814 -0.2842  0.1418 -0.3426
27603DOD     C226629  23.706  18.586  14.141 -0.0872 -0.1782 -0.2269
27603DOD     C326630  23.651  19.034  14.235  0.1020  0.0727  0.1731
27604DOD     C126631  11.289   5.193   2.266  0.1490  0.4039  0.0313
27604DOD     C226632  11.002   5.249   1.914 -0.1601 -0.0121  0.0138
27604DOD     C326633  10.603   5.287   1.599 -0.2639  0.1662  0.2471
27605DOD     C126634  20.623   3.708  18.016 -0.1505 -0.0722  0.1424
27605DOD     C226635  20.499   3.236  17.899 -0.0223  0.0406  0.2203
27605DOD     C326636  20.478   2.817  17.774 -0.2565  0.1442 -0.1837
27606DOD     C126637  25.779   8.254  24.335 -0.0142  0.1105  0.2174
27606DOD     C226638  25.840   8.322  23.859  0.3718  0.1996 -0.2894
27606DOD     C326639  25.914   8.096  23.464  0.2846 -0.0394  0.1057
27607DOD     C126640   9.918  10.879   2.070 -0.0966  0.2390  0.2944
27607DOD     C226641   9.680  11.263   1.944  0.0885 -0.0550  0.3425
27607DOD     C326642   9.456  11.527   2.224  0.3643  0.2157  0.2126
27608DOD     C126643  14.653  18.835  16.663  0.0446 -0.1062  0.1719
27608DOD     C226644  15.096  18.568  16.581 -0.0190 -0.1168  0.0140
27608DOD     C326645  15.095  18.183  16.655 -0.0163  0.2911 -0.1675
27609DOD     C126646  23.589  28.814  23.913  0.0303  0.0265 -0.0679
27609DOD     C226647  23.448  28.387  23.851  0.3981  0.3430 -0.1131
27609DOD     C326648  23.160  27.931  23.891  0.2958  0.0681 -0.0620
27610DOD     C126649  11.039  29.637  23.586 -0.0101 -0.0830  0.1737
27610DOD     C226650  10.635  29.606  23.740 -0.2889  0.1632  0.0483
27610DOD     C326651  10.206  29.483  23.620 -0.0888  0.0687  0.3245
27611DOD     C126652  19.594  11.346  24.689  0.0243 -0.1852  0.2151
27611DOD     C226653  19.330  10.947  24.488 -0.0331 -0.3087  0.1645
27611DOD     C326654  18.968  10.927  24.260 -0.3279  0.3673  0.2218
27612DOD     C126655  20.293   0.966  20.812  0.1494  0.0756  0.2211
27612DOD     C226656  19.886   0.893  20.536 -0.0766  0.1900  0.5452
27612DOD     C326657  19.432   1.068  20.579 -0.2715 -0.1832 -0.0523
27613DOD     C126658   2.460  10.437   3.893  0.0957 -0.1049  0.0573
27613DOD     C226659   1.974  10.548   3.805 -0.0446 -0.1361 -0.1948
27613DOD     C326660   1.651  10.337   3.650 -0.0248 -0.0829 -0.2473
27614DOD     C126661  28.678  21.093  25.896  0.0066  0.1916  0.0295
27614DOD     C226662  29.026  20.956  25.605 -0.1211  0.0953 -0.2133
27614DOD     C326663  29.357  20.701  25.452 -0.1607 -0.1809 -0.2393
27615DOD     C126664   0.106   8.335  21.407  0.2637 -0.0242  0.0731
27615DOD     C226665  29.968   8.482  21.556 -0.2378  0.1057 -0.0152
27615DOD     C326666  29.671   8.616  21.930 -0.2849  0.1614 -0.1983
27616DOD     C126667  28.853   1.099   6.413 -0.2586 -0.0633  0.2178
27616DOD     C226668  28.942   1.010   5.904 -0.3059 -0.2374 -0.0599
27616DOD     C326669  28.909   0.867   5.475 -0.1540 -0.1195  0.0556
27617DOD     C126670  11.963   9.052   7.395  0.1317 -0.1606  0.2560
27617DOD     C226671  11.564   8.932   7.616 -0.1784  0.0609 -0.2816
27617DOD     C326672  11.202   8.745   7.798 -0.1399  0.0656 -0.2355
27618DOD     C126673  22.252   8.422  22.821 -0.0669 -0.0122 -0.1459
27618DOD     C226674  22.688   8.333  22.626 -0.1050 -0.1312  0.1475
27618DOD     C326675  23.176   8.250  22.659  0.0877  0.1100 -0.1800
27619DOD     C126676   9.568   1.535  16.189 -0.0350 -0.0028 -0.2514
27619DOD     C226677   9.251   1.167  16.036 -0.1253 -0.0000 -0.3545
27619DOD     C326678   9.072   0.733  16.092  0.2623  0.0205  0.1122
27620DOD     C126679   9.648  18.380  23.492 -0.1796 -0.0056 -0.2884
27620DOD     C226680  10.016  18.447  23.775  0.0194  0.0862 -0.0878
27620DOD     C326681  10.422  18.473  24.033 -0.0442 -0.0045 -0.2326
27621DOD     C126682  28.907  23.844  16.781 -0.0895 -0.1240 -0.0728
27621DOD     C226683  28.434  23.761  16.820 -0.1116 -0.1795 -0.1908
27621DOD     C326684  28.176  23.358  16.763  0.3177  0.2007 -0.2712
27622DOD     C126685  23.721  26.723  14.271 -0.0547 -0.1711  0.0334
27622DOD     C226686  24.049  26.381  14.284  0.2190  0.0854 -0.1422
27622DOD     C326687  24.268  26.030  14.461 -0.3870 -0.1359 -0.0779
27623DOD     C126688  28.203   3.124  26.159 -0.0306 -0.1682 -0.1534
27623DOD     C226689  28.206   3.001  25.676 -0.1489  0.2083  0.2432
27623DOD     C326690  28.248   2.891  25.178 -0.1618 -0.0601 -0.3071
27624DOD     C126691   7.734  27.193   2.467  0.0446 -0.0457  0.1159
27624DOD     C226692   7.986  27.089   2.087 -0.0241 -0.1426  0.0678
27624DOD     C326693   8.428  27.149   1.878  0.2359  0.0402 -0.0330
27625DOD     C126694   9.763  20.747   6.999 -0.1433  0.0329  0.1974
27625DOD     C226695   9.818  20.576   7.494  0.1216 -0.1669  0.2644
27625DOD     C326696  10.102  20.290   7.726 -0.1942 -0.3952  0.1747
27626DOD     C126697  15.018   7.946  12.569 -0.0749  0.0781 -0.3099
27626DOD     C226698  14.965   7.810  12.995  0.1179  0.2283  0.0224
27626DOD     C326699  14.551   7.814  13.258 -0.0085 -0.0560 -0.2321
27627DOD     C126700   0.061   0.888  23.833  0.0093 -0.1407  0.2814
27627DOD     C226701   0.366   0.551  23.681  0.2156 -0.2037  0.0165
27627DOD     C326702   0.647   0.180  23.753  0.0198  0.1930  0.1518
27628DOD     C126703  11.272  10.713   4.646  0.2567 -0.0117  0.0494
27628DOD     C226704  11.488  10.711   4.269 -0.1768  0.1835  0.0949
27628DOD     C326705  11.414  10.892   3.850 -0.0918 -0.1734 -0.2001
27629DOD     C126706  23.133  17.449   5.299 -0.0054 -0.0855  0.2730
27629DOD     C226707  23.208  17.710   5.637 -0.2682  0.1888  0.0748
27629DOD     C326708  23.265  18.146   5.753  0.1299  0.0631  0.1809
27630DOD     C126709  29.493  23.329  10.078  0.2804 -0.0621 -0.2009
27630DOD     C226710  29.832  23.570  10.254  0.0150 -0.1522  0.1862
27630DOD     C326711  29.763  24.028  10.355  0.0513  0.0617 -0.1447
27631DOD     C126712  20.395  11.660  13.892 -0.0125 -0.2809 -0.1479
27631DOD     C226713  20.038  11.975  13.710 -0.1368  0.0967 -0.1620
27631DOD     C326714  19.804  12.347  13.853  0.3474 -0.2707 -0.2243
27632DOD     C126715  28.023  15.490   2.017 -0.0153  0.0117  0.3608
27632DOD     C226716  28.094  15.196   2.407 -0.1695  0.1595 -0.0291
27632DOD     C326717  28.298  15.047   2.751  0.0634 -0.7680 -0.0340
27633DOD     C126718  10.333  22.142  21.681  0.0829  0.1313 -0.1798
27633DOD     C226719  10.123  22.197  22.060 -0.1870 -0.0119 -0.2025
27633DOD     C326720   9.897  22.011  22.424  0.1356  0.1624  0.5004
27634DOD     C126721  15.729  22.822  27.622  0.2781  0.0487 -0.1000
27634DOD     C226722  15.435  22.629  27.358  0.0561  0.0546 -0.0152
27634DOD     C326723  15.224  22.246  27.186 -0.1660  0.1827  0.1805
27635DOD     C126724   8.171  25.725  29.875 -0.0178 -0.0225  0.1726
27635DOD     C226725   8.486  26.097  29.814 -0.3277 -0.1322 -0.0687
27635DOD     C326726   8.863  26.252  30.087  0.0609 -0.0989  0.2758
27636DOD     C126727  25.875  27.610  10.537 -0.1817 -0.0223 -0.2113
27636DOD     C226728  25.546  27.644  10.172 -0.0228 -0.0082 -0.1637
27636DOD     C326729  25.187  27.920   9.995 -0.3135 -0.2258  0.3158
27637DOD     C126730   1.684  10.094  23.675 -0.3600 -0.1859 -0.1701
27637DOD     C226731   1.556   9.992  23.249  0.2423  0.1037  0.1739
27637DOD     C326732   1.093   9.881  23.106 -0.0932  0.1544  0.2924
27638DOD     C126733  11.479   4.673  13.970  0.2038 -0.0838  0.2708
27638DOD     C226734  11.433   4.242  13.777  0.4059  0.1824 -0.0052
27638DOD     C326735  11.799   3.943  13.580 -0.1171 -0.0345  0.0475
27639DOD     C126736  30.201  25.730   3.749  0.0472  0.0817 -0.1900
27639DOD     C226737  30.212  25.886   4.186  0.1787 -0.2280 -0.2313
27639DOD     C326738   0.028  26.305   4.413 -0.3261 -0.0381 -0.0346
27640DOD     C126739   3.261  24.958   4.238 -0.1855 -0.1512 -0.2452
27640DOD     C226740   3.445  24.546   4.093  0.0617  0.2335  0.0437
27640DOD     C326741   3.586  24.061   4.136  0.0503  0.2460 -0.0754
27641DOD     C126742  15.955   2.975   0.972  0.1330 -0.0079  0.2688
27641DOD     C226743  15.619   2.615   0.963  0.1802 -0.1647 -0.1672
27641DOD     C326744  15.365   2.373   1.222  0.1749  0.1584  0.0008
27642DOD     C126745  12.322  20.826  26.952  0.1441 -0.0367 -0.1217
27642DOD     C226746  11.958  20.609  26.645  0.0698 -0.0658  0.1065
27642DOD     C326747  11.506  20.611  26.510 -0.0723 -0.2053  0.2155
27643DOD     C126748  13.394  29.244   5.198 -0.3115 -0.0129  0.0209
27643DOD     C226749  13.838  29.246   5.358 -0.0459 -0.1227  0.0562
27643DOD     C326750  14.261  29.467   5.543  0.1424 -0.0492  0.0646
27644DOD     C126751  25.332  14.105  28.946  0.2474  0.2145 -0.0728
27644DOD     C226752  25.533  14.413  28.663 -0.1166 -0.1349  0.0885
27644DOD     C326753  25.748  14.839  28.612 -0.0124  0.1232  0.1462
27645DOD     C126754  12.644   8.150  19.090  0.0817  0.1255  0.0029
27645DOD     C226755  12.679   8.492  18.738 -0.2423  0.2977 -0.1023
27645DOD     C326756  12.754   8.938  18.507  0.2061 -0.2282  0.1033
27646DOD     C126757   1.273  12.433  22.299  0.0089 -0.3499 -0.2099
27646DOD     C226758   1.022  12.423  22.691  0.3733 -0.4540  0.0078
27646DOD     C326759   0.931  12.499  23.176 -0.0189 -0.3278  0.2976
27647DOD     C126760  21.889   0.633  28.006 -0.1251  0.1628 -0.1152
27647DOD     C226761  22.010   0.245  27.865 -0.2422 -0.0174  0.2668
27647DOD     C326762  21.847   0.134  27.440 -0.0831  0.0321  0.0036
27648DOD     C126763  11.889  19.331  20.263 -0.0768 -0.0093  0.5155
27648DOD     C226764  11.419  19.365  20.145  0.1182  0.0456 -0.0563
27648DOD     C326765  11.023  19.456  19.927 -0.1143  0.2846  0.0095
27649DOD     C126766  26.743  12.363   0.783  0.1056  0.2135  0.2676
27649DOD     C226767  26.876  11.943   1.021  0.0205 -0.1943  0.1355
27649DOD     C326768  27.256  11.767   1.246 -0.1478 -0.0247 -0.0195
27650DOD     C126769  10.063  10.499  10.429  0.1240 -0.0045 -0.2439
27650DOD     C226770  10.055  10.159  10.119  0.1816 -0.0708 -0.1598
27650DOD     C326771   9.950   9.876   9.765  0.2468 -0.0708 -0.1715
27651DOD     C126772  11.523   1.744  26.849  0.5009  0.1418 -0.0617
27651DOD     C226773  11.402   1.355  26.629 -0.3229  0.2228 -0.0999
27651DOD     C326774  11.582   1.006  26.420 -0.2664  0.0873 -0.0379
27652DOD     C126775  30.208  19.618  10.609 -0.3395  0.0493 -0.1329
27652DOD     C226776  29.832  19.818  10.876  0.1033 -0.0293 -0.0311
27652DOD     C326777  29.383  19.560  10.933  0.2208 -0.0847  0.3987
27653DOD     C126778  29.223   4.455  24.486 -0.0690 -0.3050  0.3507
27653DOD     C226779  29.040   4.144  24.185 -0.2287  0.1648  0.3585
27653DOD     C326780  29.231   3.939  23.817 -0.0595 -0.2817 -0.1698
27654DOD     C126781   9.083  10.041  23.031 -0.0056 -0.2875 -0.3405
27654DOD     C226782   9.234   9.627  23.221 -0.0616  0.2018  0.2055
27654DOD     C326783   9.228   9.409  23.667  0.0380  0.1966 -0.0260
27655DOD     C126784  22.946  21.924  15.158  0.2355  0.3648  0.1121
27655DOD     C226785  22.658  22.305  15.193  0.1360  0.3737  0.2688
27655DOD     C326786  22.400  22.548  15.016 -0.1324 -0.2653  0.1799
27656DOD     C126787  21.825  26.260   1.330  0.1962  0.0678  0.5419
27656DOD     C226788  21.872  25.848   1.076  0.3571  0.1771 -0.2060
27656DOD     C326789  21.780  25.506   0.805  0.1130  0.0425 -0.2911
27657DOD     C126790  25.962  27.322  16.454  0.1187  0.2358  0.0402
27657DOD     C226791  25.691  27.229  16.829  0.3257 -0.1365  0.2553
27657DOD     C326792  25.707  27.177  17.290  0.2097  0.1456  0.1210
27658DOD     C126793  16.628  25.393  19.574 -0.1547 -0.2254  0.0949
27658DOD     C226794  17.098  25.405  19.694  0.1539 -0.2100 -0.1173
27658DOD     C326795  17.584  25.420  19.777 -0.2017 -0.1632 -0.0754
27659DOD     C126796  20.955  26.225   3.913 -0.0858  0.2636  0.0765
27659DOD     C226797  20.816  25.914   3.588 -0.0017  0.1164 -0.2553
27659DOD     C326798  20.671  25.741   3.168 -0.0781 -0.3059  0.1540
27660DOD     C126799  16.969  16.659  27.471 -0.0295 -0.2329  0.0487
27660DOD     C226800  17.056  16.186  27.315 -0.2452 -0.1407  0.0742
27660DOD     C326801  17.026  15.960  26.860 -0.1585 -0.0570  0.1650
27661DOD     C126802  17.630  10.507   6.420  0.0935  0.1557 -0.1476
27661DOD     C226803  17.196  10.535   6.219  0.1587 -0.0667  0.0740
27661DOD     C326804  16.999  10.276   5.886 -0.2926 -0.0588  0.2658
27662DOD     C126805  22.934  29.330   7.457 -0.1346 -0.0222 -0.0349
27662DOD     C226806  23.372  29.500   7.538  0.1381  0.2331 -0.1438
27662DOD     C326807  23.782  29.603   7.594 -0.2477 -0.1352  0.1682
27663DOD     C126808   7.470  20.529  17.113 -0.1375  0.3166 -0.1254
27663DOD     C226809   7.248  20.913  17.255 -0.0237  0.0532  0.0183
27663DOD     C326810   7.059  21.109  17.645 -0.2275 -0.1713 -0.0325
27664DOD     C126811   3.411  15.228  26.519 -0.0397  0.1132 -0.3443
27664DOD     C226812   3.220  15.707  26.631  0.0207 -0.0202  0.0650
27664DOD     C326813   3.036  16.083  26.447  0.0485 -0.2054 -0.2348
27665DOD     C126814   0.907  22.701   3.446 -0.2765  0.1885  0.0237
27665DOD     C226815   1.360  22.800   3.561 -0.1452  0.1559  0.1399
27665DOD     C326816   1.667  23.178   3.370 -0.1118  0.0884  0.5777
27666DOD     C126817  28.440   3.576  13.570  0.2835  0.0353 -0.1970
27666DOD     C226818  28.869   3.496  13.806  0.0605 -0.2162  0.0264
27666DOD     C326819  29.266   3.370  13.584  0.1183 -0.0964 -0.2159
27667DOD     C126820   6.508   3.073   7.058  0.2958  0.4784 -0.0453
27667DOD     C226821   6.354   3.124   6.584  0.0989 -0.2989  0.0113
27667DOD     C326822   6.215   3.453   6.293  0.1540  0.0502 -0.1496
27668DOD     C126823  20.438   0.470   0.680  0.4919  0.1237 -0.2090
27668DOD     C226824  20.289   0.676   0.292  0.0210 -0.0894  0.1717
27668DOD     C326825  20.210   1.081   0.078 -0.3745 -0.2827 -0.1101
27669DOD     C126826  15.857  21.133  25.685 -0.3314  0.1128  0.1213
27669DOD     C226827  15.509  21.046  25.304  0.1090  0.1088  0.1035
27669DOD     C326828  15.075  20.921  25.279  0.0152  0.2555 -0.0896
27670DOD     C126829   6.484  12.447   4.397  0.1139  0.0621 -0.0387
27670DOD     C226830   6.202  12.327   4.104  0.1961  0.0922  0.1164
27670DOD     C326831   5.832  12.279   3.757  0.0661 -0.2503  0.1649
27671DOD     C126832   5.567  14.949   5.546  0.1141 -0.0399 -0.0518
27671DOD     C226833   5.980  15.089   5.400 -0.0548  0.1008 -0.2961
27671DOD     C326834   6.156  15.512   5.217  0.0508 -0.1811  0.2887
27672DOD     C126835  22.854  24.611  16.070  0.3093  0.0131  0.0671
27672DOD     C226836  23.180  24.393  15.859 -0.1364  0.2941 -0.2208
27672DOD     C326837  23.371  24.166  15.494  0.2438  0.1204  0.0638
27673DOD     C126838  23.352  15.691   5.509 -0.0130 -0.1646 -0.1097
27673DOD     C226839  23.272  15.233   5.342  0.2005  0.0089  0.0911
27673DOD     C326840  23.146  14.811   5.085  0.1457  0.1876  0.2239
27674DOD     C126841   8.032  11.472  20.238  0.0293 -0.0196 -0.0141
27674DOD     C226842   7.722  11.129  20.277 -0.3014  0.0820  0.0613
27674DOD     C326843   7.272  11.074  20.223  0.1766  0.1642  0.3525
27675DOD     C126844  21.361  13.954   1.504  0.2465 -0.0920  0.0576
27675DOD     C226845  21.248  13.521   1.636  0.1829  0.2943  0.1440
27675DOD     C326846  21.362  13.118   1.897 -0.0217 -0.3335 -0.1174
27676DOD     C126847  19.402  27.407   3.797 -0.1585 -0.0569 -0.1463
27676DOD     C226848  18.997  27.645   3.650  0.1851  0.0266  0.0262
27676DOD     C326849  18.567  27.839   3.715  0.0371 -0.1780 -0.2870
27677DOD     C126850  17.233   9.015  10.393  0.2088 -0.0482 -0.1353
27677DOD     C226851  16.903   9.047  10.020  0.0809 -0.2136  0.0297
27677DOD     C326852  16.441   8.945  10.100  0.0786  0.0923 -0.3265
27678DOD     C126853  26.813  13.501   4.555 -0.2423  0.0170  0.1972
27678DOD     C226854  27.243  13.314   4.689  0.2134 -0.1621  0.2277
27678DOD     C326855  27.636  13.375   4.964 -0.0880  0.0158 -0.1175
27679DOD     C126856  16.441  15.687  11.334 -0.0856 -0.1160 -0.0961
27679DOD     C226857  16.427  15.448  10.923 -0.0893  0.1125 -0.2387
27679DOD     C326858  16.524  15.136  10.555  0.3693  0.1593  0.1992
27680DOD     C126859  18.616   5.742  11.921  0.1143 -0.0696 -0.3043
27680DOD     C226860  18.514   5.878  12.349  0.0309  0.0377 -0.2021
27680DOD     C326861  18.376   5.954  12.797 -0.1950  0.3006  0.5860
27681DOD     C126862   2.790  15.625  15.480  0.0514 -0.0508  0.0252
27681DOD     C226863   2.431  15.319  15.328  0.0518 -0.3106 -0.1756
27681DOD     C326864   2.281  15.092  14.940  0.0187 -0.0148  0.0714
27682DOD     C126865   4.616  21.845  18.312  0.1299  0.0851 -0.2038
27682DOD     C226866   4.747  21.905  18.696 -0.5303  0.2063 -0.3407
27682DOD     C326867   4.936  22.072  19.109  0.0210 -0.1081 -0.0765
27683DOD     C126868  26.553   9.215   6.014  0.3273  0.0363 -0.0989
27683DOD     C226869  26.373   8.917   6.303 -0.3138 -0.0818  0.3120
27683DOD     C326870  26.339   8.527   6.590  0.3425  0.4207  0.0342
27684DOD     C126871   8.434  15.123  21.849 -0.1238 -0.1012 -0.0922
27684DOD     C226872   8.824  15.140  22.108  0.1063 -0.0628  0.0676
27684DOD     C326873   8.948  14.940  22.579  0.3529  0.0405  0.1624
27685DOD     C126874  18.512  19.472  27.959 -0.2033  0.0128 -0.1629
27685DOD     C226875  18.681  19.307  27.560  0.1119  0.0296 -0.0017
27685DOD     C326876  18.617  18.833  27.451  0.0342 -0.1763 -0.2068
27686DOD     C126877  22.027  18.768  15.361 -0.0261 -0.2916 -0.3951
27686DOD     C226878  22.149  18.440  15.680 -0.2354  0.0566 -0.3294
27686DOD     C326879  22.223  17.997  15.809 -0.1393  0.4474  0.1123
27687DOD     C126880   7.652  28.498  18.529 -0.0983  0.2621  0.0654
27687DOD     C226881   7.733  28.398  18.990  0.1118 -0.0911 -0.0881
27687DOD     C326882   8.069  28.141  19.202  0.0534  0.1415  0.0354
27688DOD     C126883   4.719  15.479   8.348 -0.0414  0.0441 -0.2239
27688DOD     C226884   4.307  15.200   8.445 -0.0663 -0.1297 -0.3453
27688DOD     C326885   3.906  15.403   8.303  0.2746 -0.1828 -0.2899
27689DOD     C126886  15.700  15.147  28.218  0.0737  0.0019 -0.0574
27689DOD     C226887  15.971  15.171  27.826 -0.0925  0.1918  0.1261
27689DOD     C326888  16.359  15.033  27.684 -0.0152 -0.1003  0.2259
27690DOD     C126889   2.032  28.688  30.136 -0.0124 -0.0206 -0.1351
27690DOD     C226890   1.851  29.105  30.170 -0.1436  0.0845 -0.1549
27690DOD     C326891   1.582  29.368  29.927 -0.3689  0.1084  0.0032
27691DOD     C126892  16.044  22.876   6.170 -0.2422  0.0198  0.0504
27691DOD     C226893  16.201  23.204   6.295 -0.2958 -0.3105  0.1933
27691DOD     C326894  16.100  23.560   6.617  0.0018  0.0946  0.1327
27692DOD     C126895  20.499   5.696  20.704 -0.2938 -0.0842 -0.1159
27692DOD     C226896  20.752   5.358  20.927 -0.1121 -0.3118 -0.3467
27692DOD     C326897  21.027   5.384  21.337 -0.0345 -0.0652 -0.2062
27693DOD     C126898  14.069  16.971   8.131 -0.0280 -0.0894  0.0583
27693DOD     C226899  13.857  17.305   7.889 -0.0699  0.3525 -0.1948
27693DOD     C326900  13.743  17.472   7.449  0.2892  0.0378 -0.1175
27694DOD     C126901   5.364  29.624  19.979 -0.2020  0.1828  0.1195
27694DOD     C226902   5.676  29.578  20.311 -0.1003 -0.1021 -0.2221
27694DOD     C326903   5.555  29.429  20.738 -0.2612  0.0294  0.2643
27695DOD     C126904  23.550  19.595   3.843 -0.2395  0.1692 -0.0842
27695DOD     C226905  23.966  19.692   4.060  0.2741 -0.3828 -0.2111
27695DOD     C326906  24.316  19.981   3.933  0.4163 -0.1429 -0.1525
27696DOD     C126907  16.505   8.201  15.127 -0.2918  0.1682  0.0888
27696DOD     C226908  16.154   8.433  15.336  0.1499  0.0998  0.2460
27696DOD     C326909  15.745   8.604  15.383 -0.3295 -0.3874  0.3152
27697DOD     C126910   8.124  22.614   0.120 -0.0454 -0.0534  0.0744
27697DOD     C226911   7.872  22.222   0.398 -0.2219 -0.1852  0.2093
27697DOD     C326912   7.970  21.824   0.591 -0.0392 -0.2311  0.2247
27698DOD     C126913  10.247  16.450  21.005 -0.4026 -0.0822 -0.1756
27698DOD     C226914  10.131  16.108  20.736  0.2859 -0.2206  0.4012
27698DOD     C326915  10.219  15.665  20.614  0.0731 -0.0479 -0.1168
27699DOD     C126916   6.976  25.674  29.193  0.1721 -0.1349  0.0437
27699DOD     C226917   6.804  25.275  29.178  0.1545 -0.0837 -0.1171
27699DOD     C326918   6.416  25.094  29.211  0.0900 -0.2013  0.0995
27700DOD     C126919  19.573  15.441  11.225 -0.2039 -0.0577  0.1319
27700DOD     C226920  19.981  15.587  11.094  0.1089  0.2661 -0.1503
27700DOD     C326921  20.438  15.584  11.261 -0.0479 -0.1311  0.1353
27701DOD     C126922  28.208  17.391  16.155 -0.0586 -0.0782 -0.2669
27701DOD     C226923  27.925  17.747  15.992  0.1205  0.1364 -0.1347
27701DOD     C326924  27.506  17.729  15.796 -0.3292  0.1081 -0.0177
27702DOD     C126925  22.839   2.867  20.693 -0.0677 -0.0906  0.1449
27702DOD     C226926  22.798   3.309  20.523 -0.2362  0.1371 -0.0789
27702DOD     C326927  22.818   3.492  20.099  0.0517 -0.3237 -0.0696
27703DOD     C126928   4.697  18.874  25.977  0.1418  0.2672  0.0605
27703DOD     C226929   4.435  18.762  26.305 -0.1503 -0.2225  0.1005
27703DOD     C326930   3.998  18.594  26.275  0.0060 -0.3647 -0.0291
27704DOD     C126931  17.591   9.928  24.363  0.2103 -0.1470  0.0145
27704DOD     C226932  17.366   9.976  23.981  0.1180 -0.0885 -0.0973
27704DOD     C326933  17.045  10.203  23.777  0.1625  0.3809  0.0198
27705DOD     C126934  26.734  24.135  21.300 -0.0915  0.0778  0.0427
27705DOD     C226935  26.661  23.863  20.959 -0.2613  0.2185  0.0660
27705DOD     C326936  26.963  23.581  20.768 -0.0854 -0.0963  0.0889
27706DOD     C126937  27.060   9.534  19.812 -0.0398 -0.1782  0.1252
27706DOD     C226938  26.872   9.620  19.362  0.1499 -0.1679  0.2213
27706DOD     C326939  26.442   9.790  19.176 -0.1910  0.0461 -0.0003
27707DOD     C126940  15.751  15.163   6.149 -0.0555 -0.0320  0.1557
27707DOD     C226941  15.784  15.623   6.318  0.0991  0.1474 -0.1004
27707DOD     C326942  15.798  15.971   6.576 -0.1661 -0.0616 -0.1111
27708DOD     C126943  22.228  19.759  14.086  0.0498 -0.1219  0.1512
27708DOD     C226944  21.961  19.443  14.050 -0.0430 -0.2036 -0.0229
27708DOD     C326945  21.554  19.271  13.842  0.4718 -0.0357 -0.0097
27709DOD     C126946  28.362  29.857   8.109 -0.1253 -0.3438 -0.2355
27709DOD     C226947  28.515  29.491   8.270 -0.2436 -0.1155  0.2305
27709DOD     C326948  28.563  29.227   8.635 -0.2620  0.0316  0.1797
27710DOD     C126949  27.236  29.045   6.721  0.0549 -0.0080 -0.3673
27710DOD     C226950  27.218  28.529   6.732  0.1974  0.1377  0.1973
27710DOD     C326951  26.931  28.124   6.846 -0.0461 -0.1358  0.1662
27711DOD     C126952  19.002  22.595   0.105  0.0608  0.1853  0.4737
27711DOD     C226953  19.141  23.018   0.122 -0.2497 -0.3509 -0.2305
27711DOD     C326954  19.263  23.388  30.205  0.1631 -0.2694 -0.1434
27712DOD     C126955  19.737   0.476   6.413 -0.1803  0.1986  0.1803
27712DOD     C226956  19.711   0.550   5.967 -0.4941  0.0578 -0.0293
27712DOD     C326957  19.485   0.651   5.511  0.0193 -0.1048 -0.1299
27713DOD     C126958   1.047   0.522  11.568  0.0761  0.1745  0.0419
27713DOD     C226959   0.903   0.662  11.956  0.0698 -0.1380 -0.1412
27713DOD     C326960   0.767   0.730  12.338  0.0633 -0.2540  0.1843
27714DOD     C126961   5.433  16.701   0.341  0.1698 -0.2737 -0.2077
27714DOD     C226962   5.732  17.068   0.496  0.0806  0.3358 -0.0313
27714DOD     C326963   5.766  17.445   0.818  0.1933 -0.1568  0.0320
27715DOD     C126964  27.218  27.538  29.282  0.4723 -0.1188 -0.0924
27715DOD     C226965  27.489  27.370  29.642  0.2173 -0.0463 -0.0595
27715DOD     C326966  27.873  27.165  29.831  0.0471  0.1713  0.0226
27716DOD     C126967  27.912  16.849   7.119 -0.0558 -0.3842 -0.1805
27716DOD     C226968  28.316  17.091   7.055 -0.4616  0.1062 -0.3972
27716DOD     C326969  28.778  17.075   6.866  0.0299  0.2299  0.0243
27717DOD     C126970  10.583  24.787  26.925 -0.1715 -0.2495 -0.2650
27717DOD     C226971  10.107  24.664  26.873  0.0657  0.1057 -0.0115
27717DOD     C326972   9.610  24.664  26.818 -0.1482 -0.1932 -0.2131
27718DOD     C126973   2.605  25.176  19.160  0.1795 -0.0120  0.2343
27718DOD     C226974   2.778  25.476  18.799 -0.0805 -0.4115  0.1473
27718DOD     C326975   2.845  25.943  18.777 -0.0054 -0.2015  0.0417
27719DOD     C126976  13.462  10.781   1.951  0.0122  0.1104  0.0499
27719DOD     C226977  13.258  10.407   2.172  0.0840  0.0396 -0.1747
27719DOD     C326978  13.371  10.180   2.588 -0.1268  0.2460 -0.4673
27720DOD     C126979  24.850  16.837  15.920 -0.1533 -0.2793 -0.1417
27720DOD     C226980  24.642  17.205  16.118  0.2823  0.2517  0.0039
27720DOD     C326981  24.483  17.633  16.142  0.0844  0.1805 -0.1191
27721DOD     C126982  28.962  20.427   5.781 -0.1730 -0.0053 -0.1820
27721DOD     C226983  29.111  20.039   5.945 -0.0474  0.0113 -0.2424
27721DOD     C326984  28.805  19.836   6.214  0.2484  0.2215  0.2190
27722DOD     C126985  25.947  21.397  11.545 -0.0119 -0.2172 -0.0180
27722DOD     C226986  26.081  21.269  11.087 -0.0493 -0.1604 -0.1023
27722DOD     C326987  25.688  21.365  10.725 -0.2516 -0.2894  0.0452
27723DOD     C126988  29.749   2.358  18.377 -0.0614  0.0865 -0.0699
27723DOD     C226989  29.657   2.768  18.620 -0.0413  0.0505  0.3154
27723DOD     C326990  29.585   3.206  18.748 -0.0511 -0.0461  0.4157
27724DOD     C126991  25.351   8.068  18.629  0.0472  0.0619  0.0183
27724DOD     C226992  25.651   7.670  18.547  0.1131  0.1789  0.0105
27724DOD     C326993  26.072   7.455  18.516 -0.5769  0.0454 -0.2902
27725DOD     C126994  26.596   1.500   6.856  0.2424 -0.0018 -0.2177
27725DOD     C226995  26.365   1.765   7.215 -0.0718 -0.2567 -0.0937
27725DOD     C326996  26.186   2.144   7.421 -0.4132  0.2338  0.1729
27726DOD     C126997   3.379  16.599  13.731  0.1698  0.1531 -0.1863
27726DOD     C226998   3.809  16.685  13.719  0.0852 -0.1923 -0.0912
27726DOD     C326999   4.210  16.672  13.936  0.1192  0.0718 -0.0499
27727DOD     C127000  14.104   1.575   0.941 -0.0764 -0.3564  0.1124
27727DOD     C227001  14.383   1.843   1.224  0.0253 -0.1329 -0.0562
27727DOD     C327002  14.688   2.262   1.368  0.0218 -0.3142 -0.1066
27728DOD     C127003  23.380   5.503  29.996 -0.0370 -0.1179  0.0909
27728DOD     C227004  23.079   5.230  30.182 -0.0339  0.0698  0.0425
27728DOD     C327005  22.769   4.899  30.191 -0.1386  0.0161  0.0077
27729DOD     C127006  25.580  10.737  11.346 -0.0767  0.3357  0.0524
27729DOD     C227007  25.458  10.595  11.752 -0.0085  0.3807 -0.3237
27729DOD     C327008  25.200  10.658  12.129 -0.3566  0.0361 -0.3159
27730DOD     C127009  13.455  10.829   3.193  0.1354 -0.3072 -0.1345
27730DOD     C227010  13.894  10.688   3.102 -0.5030 -0.2142 -0.0973
27730DOD     C327011  14.277  10.647   3.458 -0.2184 -0.3377 -0.3642
27731DOD     C127012   1.851  28.579  22.747  0.1274 -0.0566 -0.1018
27731DOD     C227013   1.378  28.429  22.696 -0.2261 -0.0720 -0.0344
27731DOD     C327014   0.977  28.192  22.484 -0.0769 -0.1802 -0.0237
27732DOD     C127015  27.302  14.700  20.308  0.4374 -0.0305  0.0862
27732DOD     C227016  26.983  14.425  20.395 -0.2905 -0.0245  0.0201
27732DOD     C327017  26.689  14.080  20.396  0.3139  0.0394  0.1045
27733DOD     C127018  15.492   2.945  20.977 -0.1274  0.1041 -0.1606
27733DOD     C227019  15.366   3.211  20.624  0.0232 -0.1175  0.0162
27733DOD     C327020  15.386   3.639  20.552  0.0094 -0.0881 -0.2290
27734DOD     C127021  26.256  16.447  24.940  0.2476 -0.0225 -0.0312
27734DOD     C227022  26.083  16.204  25.319 -0.2185 -0.0571  0.0970
27734DOD     C327023  26.256  15.955  25.631 -0.0605  0.2993 -0.2594
27735DOD     C127024  18.305  24.486  10.725 -0.2209  0.3934  0.0079
27735DOD     C227025  17.900  24.176  10.680  0.0916 -0.1020  0.2554
27735DOD     C327026  17.631  23.807  10.618  0.0217  0.0450 -0.2075
27736DOD     C127027  29.676  11.100   1.936  0.0447  0.1885  0.0615
27736DOD     C227028  30.022  11.418   1.877  0.0036  0.4088 -0.2224
27736DOD     C327029   0.015  11.774   1.946 -0.0893 -0.1322 -0.2668
27737DOD     C127030  18.260  18.685  26.395 -0.0058  0.2038  0.3450
27737DOD     C227031  18.355  18.903  26.053  0.1133 -0.0700  0.1371
27737DOD     C327032  18.249  19.229  25.871  0.0696 -0.2477  0.1411
27738DOD     C127033  19.169  27.926  10.003 -0.0629 -0.3233 -0.2313
27738DOD     C227034  18.989  27.915  10.425 -0.1873 -0.1592  0.0840
27738DOD     C327035  19.107  27.953  10.898  0.0854  0.1332 -0.2055
27739DOD     C127036  12.246  24.617  24.905 -0.0880 -0.3160 -0.0464
27739DOD     C227037  12.165  24.149  24.916  0.1767  0.2705 -0.2341
27739DOD     C327038  12.108  23.657  24.985  0.3474 -0.3848  0.2204
27740DOD     C127039  30.252   6.968   0.375  0.1013  0.0233 -0.1058
27740DOD     C227040   0.311   7.091   0.100 -0.1162  0.0400 -0.2434
27740DOD     C327041   0.613   7.461  30.294 -0.1789  0.3427  0.1725
27741DOD     C127042   9.459  15.695  16.978  0.4706 -0.3782 -0.0585
27741DOD     C227043   9.793  15.491  17.294 -0.2562 -0.3904  0.1507
27741DOD     C327044   9.983  15.098  17.456 -0.0485  0.0300  0.1713
27742DOD     C127045   1.021  26.827  23.084  0.0137  0.2326 -0.0052
27742DOD     C227046   0.581  26.854  23.275  0.1554  0.1903 -0.5113
27742DOD     C327047   0.147  26.859  23.490 -0.0580  0.2206 -0.0228
27743DOD     C127048  28.253  19.951   5.295  0.2196 -0.0369  0.1125
27743DOD     C227049  28.193  20.308   5.535 -0.1062 -0.0527 -0.3064
27743DOD     C327050  27.823  20.533   5.682  0.0405 -0.0730 -0.0816
27744DOD     C127051  13.169  12.672   0.699  0.1031 -0.1512 -0.0568
27744DOD     C227052  13.235  12.672   0.231 -0.1184 -0.3068 -0.1148
27744DOD     C327053  13.229  12.588  30.102 -0.0622 -0.1747 -0.1384
27745DOD     C127054   5.738  16.954   1.876  0.3071  0.0092  0.2969
27745DOD     C227055   5.388  17.074   2.111  0.0139 -0.0645 -0.0114
27745DOD     C327056   5.136  17.211   2.490  0.0556 -0.0862  0.3163
27746DOD     C127057  28.094  19.227  24.133 -0.1054 -0.0641  0.1528
27746DOD     C227058  28.255  19.548  23.908 -0.0409 -0.1869 -0.0062
27746DOD     C327059  28.272  19.992  23.661  0.0962 -0.1146  0.0184
27747DOD     C127060  29.490   5.677  26.223 -0.2754  0.0202 -0.0078
27747DOD     C227061  29.133   5.794  26.546 -0.1655  0.0695  0.0051
27747DOD     C327062  29.023   5.964  26.988  0.1811 -0.0545  0.3291
27748DOD     C127063  23.024   0.864  17.406  0.1313  0.0575  0.1850
27748DOD     C227064  23.160   0.516  17.658  0.0421  0.1724  0.4512
27748DOD     C327065  23.533   0.311  17.873  0.1275 -0.5329  0.0029
27749DOD     C127066   1.750  30.193  20.356 -0.1975 -0.1121  0.1429
27749DOD     C227067   1.711   0.286  20.126 -0.0973 -0.0691 -0.0464
27749DOD     C327068   1.484   0.633  19.956 -0.0674  0.1947  0.1267
27750DOD     C127069   8.713  19.774   5.038  0.0077 -0.2334  0.1551
27750DOD     C227070   8.617  20.008   4.625  0.0669  0.1421 -0.2374
27750DOD     C327071   8.596  19.975   4.195  0.0770 -0.1170  0.0203
27751DOD     C127072  23.712   8.976   4.780 -0.1010  0.1025  0.0378
27751DOD     C227073  23.336   8.690   4.676  0.0748 -0.3003 -0.0918
27751DOD     C327074  22.992   8.398   4.840 -0.2717  0.2231  0.1187
27752DOD     C127075  12.820   3.383  19.058 -0.1174  0.0513  0.0264
27752DOD     C227076  12.778   2.964  19.181 -0.0580 -0.0637  0.4605
27752DOD     C327077  12.704   2.527  19.353 -0.3474  0.0915  0.1422
27753DOD     C127078  17.652   0.486  11.027  0.1645 -0.0780  0.1455
27753DOD     C227079  18.109   0.366  11.103 -0.2501 -0.3195  0.1954
27753DOD     C327080  18.504   0.133  10.898 -0.1117  0.1434 -0.1707
27754DOD     C127081   3.526  22.424  26.513 -0.2415  0.0421  0.1168
27754DOD     C227082   3.783  22.497  26.170 -0.4205  0.0983 -0.1437
27754DOD     C327083   4.135  22.600  25.930  0.0722  0.1060  0.1916
27755DOD     C127084  20.604  30.250   9.963  0.2906  0.1883  0.1393
27755DOD     C227085  20.468  30.087  10.370 -0.1818 -0.0842 -0.0031
27755DOD     C327086  20.162  30.087  10.720 -0.0983 -0.0543 -0.0344
27756DOD     C127087   3.652  18.662  24.911 -0.0833  0.3666  0.1460
27756DOD     C227088   3.872  18.279  25.117  0.2186  0.0041 -0.1015
27756DOD     C327089   4.030  17.805  25.052 -0.3037 -0.3618  0.3525
27757DOD     C127090   7.036   3.392  23.547 -0.3845  0.1075 -0.0217
27757DOD     C227091   7.406   3.635  23.333  0.1126 -0.2171  0.2436
27757DOD     C327092   7.732   3.385  23.056 -0.1920 -0.2265  0.0668
27758DOD     C127093   0.898   4.802   4.785 -0.0634 -0.0733  0.0217
27758DOD     C227094   0.818   4.791   4.300 -0.0582  0.2422  0.2613
27758DOD     C327095   0.879   4.887   3.853 -0.1588 -0.1825  0.2875
27759DOD     C127096  24.719  26.937  12.445  0.2331 -0.1365  0.2770
27759DOD     C227097  25.060  27.246  12.557  0.3800  0.1376 -0.3878
27759DOD     C327098  25.488  27.060  12.703  0.3015 -0.0001 -0.1976
27760DOD     C127099   3.486  10.886   8.592 -0.0321  0.0193  0.1458
27760DOD     C227100   3.924  10.741   8.378  0.2452  0.0579  0.0878
27760DOD     C327101   4.365  10.967   8.357  0.0216  0.1160  0.2236
27761DOD     C127102  15.660   3.952  26.358 -0.1527 -0.1075 -0.0363
27761DOD     C227103  16.121   4.040  26.286  0.2961 -0.3035  0.2744
27761DOD     C327104  16.561   3.935  26.244  0.0964 -0.0095  0.3877
27762DOD     C127105  17.481  27.365  13.658 -0.0030 -0.0516 -0.1315
27762DOD     C227106  17.289  26.956  13.520 -0.2126 -0.0219 -0.3145
27762DOD     C327107  17.222  26.520  13.376  0.5965 -0.0037 -0.1188
27763DOD     C127108  19.449   8.826  23.716 -0.0596 -0.2766 -0.5446
27763DOD     C227109  19.378   8.679  23.270 -0.1603  0.1141  0.2418
27763DOD     C327110  19.581   8.872  22.917  0.2258 -0.0415 -0.0597
27764DOD     C127111   7.717  13.635   2.105 -0.1153 -0.2761  0.1276
27764DOD     C227112   7.255  13.690   1.993  0.2116  0.0630 -0.0299
27764DOD     C327113   6.888  13.910   1.761 -0.2614  0.0817 -0.0053
27765DOD     C127114  27.522  13.135   2.651  0.0583 -0.0785 -0.0005
27765DOD     C227115  27.122  12.919   2.486  0.2097  0.0542 -0.0109
27765DOD     C327116  26.682  13.061   2.367  0.1143 -0.0779 -0.3965
27766DOD     C127117  28.096  14.981  10.587 -0.1383 -0.0305 -0.2840
27766DOD     C227118  27.828  15.154  10.236  0.1238  0.1295  0.0182
27766DOD     C327119  27.628  15.332   9.828 -0.3465  0.0628  0.2277
27767DOD     C127120   0.475  27.695  25.763 -0.0423  0.0573  0.1697
27767DOD     C227121   0.798  27.526  26.075  0.0478 -0.2371  0.1771
27767DOD     C327122   1.178  27.699  26.295 -0.1409  0.0128 -0.0305
27768DOD     C127123  20.404   1.931  25.154 -0.1715  0.1585  0.0790
27768DOD     C227124  20.244   2.078  24.800 -0.0972  0.0282  0.0372
27768DOD     C327125  19.847   2.140  24.531 -0.1853 -0.2049 -0.2400
27769DOD     C127126  11.340  29.153  16.865 -0.0237 -0.4032  0.0074
27769DOD     C227127  11.595  29.363  16.469 -0.1533  0.4249 -0.0429
27769DOD     C327128  11.660  29.698  16.178  0.2143 -0.0134 -0.1288
27770DOD     C127129  25.139   0.221  15.730 -0.0158  0.1067 -0.1436
27770DOD     C227130  25.354  30.220  15.440  0.1727 -0.1264 -0.1965
27770DOD     C327131  25.534  29.995  15.141  0.1403 -0.0244 -0.1308
27771DOD     C127132  12.627  14.622  23.767 -0.1038  0.1071 -0.1336
27771DOD     C227133  12.537  14.800  23.324  0.0819 -0.2292  0.2231
27771DOD     C327134  12.508  15.273  23.124  0.3840  0.1960 -0.0709
27772DOD     C127135   7.069  24.004  22.856  0.1266 -0.3282  0.1997
27772DOD     C227136   7.492  24.102  22.633  0.3989 -0.0361 -0.0812
27772DOD     C327137   7.904  24.204  22.431  0.0191 -0.0609  0.0270
27773DOD     C127138  13.317  11.028  15.313 -0.0732 -0.1599 -0.0423
27773DOD     C227139  13.727  11.046  15.523 -0.1435 -0.0335 -0.1192
27773DOD     C327140  13.996  10.989  15.916  0.0521 -0.0588 -0.3550
27774DOD     C127141   5.177  10.877   8.954 -0.0746 -0.0435  0.0548
27774DOD     C227142   5.278  10.633   8.542  0.4870  0.2186  0.4105
27774DOD     C327143   5.272  10.634   8.070  0.0028  0.3945  0.1521
27775DOD     C127144  26.170  24.900   5.511  0.1839  0.0293  0.0099
27775DOD     C227145  25.987  25.321   5.565  0.0761  0.1881 -0.3261
27775DOD     C327146  25.577  25.325   5.846  0.1206  0.1883  0.2086
27776DOD     C127147  27.997  24.194   4.587  0.0894  0.0445 -0.0353
27776DOD     C227148  27.896  24.313   4.123 -0.0431 -0.1845  0.0394
27776DOD     C327149  27.890  24.212   3.705 -0.2531  0.1894  0.2501
27777DOD     C127150  10.122   7.297  11.677  0.1123  0.3294 -0.1934
27777DOD     C227151  10.353   7.014  12.003  0.0933  0.0709  0.0959
27777DOD     C327152  10.358   6.571  11.948  0.2234 -0.1136  0.0362
27778DOD     C127153  17.165  25.577  17.903 -0.3040  0.0979 -0.1751
27778DOD     C227154  16.808  25.667  18.184  0.0739 -0.1626  0.1854
27778DOD     C327155  16.433  25.873  18.124  0.4842  0.0746  0.0993
27779DOD     C127156  28.259  13.615   0.889 -0.3136 -0.2218  0.1083
27779DOD     C227157  27.822  13.617   0.667 -0.2929  0.0794 -0.0049
27779DOD     C327158  27.506  13.709   0.291  0.0717  0.0607  0.2905
27780DOD     C127159  17.258   7.097  23.507  0.2110 -0.3024 -0.1125
27780DOD     C227160  17.719   7.035  23.388  0.0832  0.1056  0.2999
27780DOD     C327161  18.224   7.047  23.321 -0.2866  0.0973  0.0151
27781DOD     C127162  10.355  23.513  21.000 -0.1266  0.2325  0.1453
27781DOD     C227163  10.019  23.289  21.203 -0.0477  0.0089  0.0214
27781DOD     C327164   9.796  23.068  21.546 -0.0054  0.1606  0.1781
27782DOD     C127165   3.139   6.263  11.927  0.0995  0.4474 -0.3168
27782DOD     C227166   3.472   6.125  11.617 -0.1727  0.0359  0.1860
27782DOD     C327167   3.645   5.810  11.338 -0.0845  0.1480  0.2045
27783DOD     C127168  15.517  28.779  16.591  0.1196 -0.2225  0.1520
27783DOD     C227169  15.428  29.116  16.905 -0.0539  0.1848  0.1309
27783DOD     C327170  15.521  29.526  16.983 -0.0543 -0.4316  0.1442
27784DOD     C127171  20.071   8.145  17.164  0.2563  0.0369  0.1734
27784DOD     C227172  20.364   7.791  17.181 -0.1051  0.1287  0.1239
27784DOD     C327173  20.630   7.474  17.380  0.2335 -0.0738  0.1232
27785DOD     C127174  27.872  29.748   8.960 -0.0999  0.0081 -0.0583
27785DOD     C227175  27.546  29.567   8.707 -0.1864  0.0347 -0.2086
27785DOD     C327176  27.243  29.182   8.672  0.1664 -0.0711  0.1306
27786DOD     C127177  20.375   2.495  23.700 -0.4483 -0.0787  0.1513
27786DOD     C227178  20.377   2.309  23.309  0.1106  0.0439 -0.0105
27786DOD     C327179  20.452   1.884  23.103 -0.0231  0.0882 -0.3466
27787DOD     C127180   9.301  11.248  11.684 -0.0308 -0.1144 -0.4427
27787DOD     C227181   9.090  11.560  12.033 -0.2418 -0.1423  0.2918
27787DOD     C327182   9.087  11.775  12.439  0.1520 -0.0805 -0.0772
27788DOD     C127183  20.140   1.198  18.278  0.0637 -0.2055  0.0171
27788DOD     C227184  20.372   0.919  18.543  0.2623  0.1834  0.1170
27788DOD     C327185  20.418   0.716  18.968  0.1039 -0.0193  0.1541
27789DOD     C127186  26.853  27.568  13.673 -0.0402  0.1976  0.0726
27789DOD     C227187  27.240  27.682  13.927 -0.1596 -0.2522 -0.1138
27789DOD     C327188  27.587  27.952  14.129 -0.0893 -0.1115 -0.0913
27790DOD     C127189  10.690   9.097   6.072  0.0189 -0.0413 -0.2125
27790DOD     C227190  11.114   9.334   6.014 -0.3078 -0.2106  0.1429
27790DOD     C327191  11.426   9.605   6.205  0.2024 -0.0503 -0.0013
27791DOD     C127192  16.294  20.823  19.667 -0.0448 -0.2116 -0.1962
27791DOD     C227193  16.356  21.289  19.558  0.0359  0.5678 -0.2755
27791DOD     C327194  16.552  21.743  19.545  0.1147  0.1127 -0.0783
27792DOD     C127195   6.526  28.734  14.454  0.1670  0.0668 -0.2884
27792DOD     C227196   6.800  28.823  14.125  0.1477  0.1004 -0.0259
27792DOD     C327197   6.960  28.766  13.684  0.1521 -0.1881  0.1892
27793DOD     C127198  27.550   7.185  11.654  0.1811 -0.0303  0.2263
27793DOD     C227199  27.500   6.750  11.744  0.2640 -0.1475 -0.1153
27793DOD     C327200  27.312   6.438  12.043  0.0447 -0.1732  0.1662
27794DOD     C127201  11.846   9.011  18.151  0.1147 -0.1510 -0.5958
27794DOD     C227202  11.797   8.543  18.132 -0.3442 -0.0327  0.1254
27794DOD     C327203  11.834   8.051  18.069 -0.0548 -0.3165 -0.3276
27795DOD     C127204   9.945   0.576  16.328 -0.0406 -0.0981 -0.3443
27795DOD     C227205  10.257   0.237  16.471  0.2881 -0.1010  0.1086
27795DOD     C327206  10.570  30.227  16.379 -0.2107  0.2244  0.1464
27796DOD     C127207   5.491   7.695  11.897 -0.0559 -0.0332  0.2675
27796DOD     C227208   5.245   8.078  12.119  0.1957 -0.0512 -0.3051
27796DOD     C327209   4.970   8.466  12.292 -0.3120  0.2317 -0.0330
27797DOD     C127210  30.169   2.037   3.229  0.0695  0.1077  0.1705
27797DOD     C227211   0.040   1.639   3.068  0.0883 -0.1717  0.1038
27797DOD     C327212   0.175   1.494   2.638  0.1175  0.1525  0.0194
27798DOD     C127213   0.443  14.003   1.131 -0.4211 -0.1342  0.2792
27798DOD     C227214   0.809  14.261   1.140 -0.4959 -0.1544  0.5285
27798DOD     C327215   1.182  14.456   1.042 -0.0073 -0.2688  0.0613
27799DOD     C127216  17.597  10.782  12.062 -0.1941  0.1230  0.0573
27799DOD     C227217  17.500  11.187  11.832 -0.0211 -0.1365 -0.0642
27799DOD     C327218  17.493  11.627  11.864  0.0554  0.2594  0.1190
27800DOD     C127219  26.147  25.023  17.422 -0.3315  0.3633 -0.1046
27800DOD     C227220  26.600  24.962  17.212 -0.2166  0.0107 -0.1763
27800DOD     C327221  26.885  24.983  16.850 -0.2118  0.3388 -0.0947
27801DOD     C127222   9.285  24.847  25.417  0.0426  0.2498  0.0358
27801DOD     C227223   9.338  25.320  25.496 -0.0390  0.2796  0.0489
27801DOD     C327224   9.175  25.748  25.373 -0.0070  0.3542 -0.1426
27802DOD     C127225  15.990   4.835  26.876  0.0307 -0.0829  0.0679
27802DOD     C227226  16.076   4.538  26.502  0.1763  0.0899  0.0035
27802DOD     C327227  16.046   4.481  26.025  0.2246 -0.0724 -0.0730
27803DOD     C127228  29.541   9.412   6.515 -0.2309 -0.0087 -0.0318
27803DOD     C227229  29.891   9.228   6.823  0.2318  0.0054 -0.3419
27803DOD     C327230  29.840   8.945   7.189  0.3403 -0.0654 -0.0352
27804DOD     C127231   7.185   6.274   6.639  0.1514 -0.0265  0.0006
27804DOD     C227232   6.928   6.478   6.985 -0.1722 -0.2902 -0.0788
27804DOD     C327233   6.779   6.623   7.338 -0.0113 -0.3422 -0.3624
27805DOD     C127234  21.541  22.095  15.964 -0.0793 -0.2053 -0.1318
27805DOD     C227235  21.094  22.146  16.038 -0.1301  0.1049  0.0386
27805DOD     C327236  20.770  22.119  15.686  0.1080  0.0589 -0.0566
27806DOD     C127237  20.565  27.951  29.568 -0.2548 -0.0698  0.0887
27806DOD     C227238  20.464  27.728  29.148 -0.2703 -0.0621  0.2103
27806DOD     C327239  20.237  27.779  28.755  0.1855 -0.5375  0.2826
27807DOD     C127240  27.392  27.844  18.911 -0.0332 -0.2548  0.4351
27807DOD     C227241  27.390  28.325  18.925 -0.0602  0.2094  0.0989
27807DOD     C327242  27.168  28.585  19.285 -0.0548  0.0261 -0.3087
27808DOD     C127243  17.716   9.093  27.586  0.1468 -0.0462  0.0926
27808DOD     C227244  18.163   8.963  27.726 -0.1971 -0.2380  0.1090
27808DOD     C327245  18.633   9.047  27.751  0.2118 -0.1492 -0.4661
27809DOD     C127246  27.280  17.769   2.514  0.2087  0.2821 -0.0564
27809DOD     C227247  27.539  17.496   2.269 -0.0785 -0.0892 -0.1214
27809DOD     C327248  27.715  17.265   1.946  0.3562 -0.0046 -0.2364
27810DOD     C127249  15.357   7.461  13.953  0.3248  0.0018  0.4461
27810DOD     C227250  15.154   7.047  13.848  0.0251  0.0450 -0.0676
27810DOD     C327251  15.034   6.603  14.030 -0.1000 -0.0262  0.1398
27811DOD     C127252  28.006  11.661  21.006  0.1239 -0.0120  0.1333
27811DOD     C227253  27.953  11.372  20.681 -0.0810 -0.0544 -0.0829
27811DOD     C327254  27.675  11.338  20.304 -0.0037 -0.0596 -0.1098
27812DOD     C127255  18.840  20.111  28.608 -0.1207  0.1355 -0.0072
27812DOD     C227256  19.199  19.888  28.505  0.2035 -0.4292  0.1198
27812DOD     C327257  19.454  19.544  28.299 -0.3962 -0.0545 -0.0085
27813DOD     C127258  22.792   4.720  15.261 -0.3059  0.1700 -0.1406
27813DOD     C227259  23.151   4.981  15.288  0.4765  0.1005  0.2588
27813DOD     C327260  23.337   5.150  15.685 -0.1122  0.0423  0.4261
27814DOD     C127261  12.698  21.687  29.573 -0.2155  0.2450  0.1946
27814DOD     C227262  13.068  21.412  29.599 -0.4204 -0.0079  0.3201
27814DOD     C327263  13.464  21.278  29.676 -0.2801  0.2391  0.1442
27815DOD     C127264  19.857   0.799  18.390  0.1556  0.0771  0.1199
27815DOD     C227265  19.872   0.919  18.756  0.1308 -0.1789 -0.2423
27815DOD     C327266  19.956   0.844  19.242 -0.0005 -0.0115 -0.0332
27816DOD     C127267   2.017   7.515  15.026 -0.0533 -0.2548 -0.2709
27816DOD     C227268   2.376   7.236  14.853  0.4022 -0.1656  0.4240
27816DOD     C327269   2.403   6.832  14.664 -0.3254 -0.0595 -0.0990
27817DOD     C127270   0.218  24.156  13.340 -0.1262  0.2359  0.2276
27817DOD     C227271   0.096  24.517  13.593  0.0195 -0.0775  0.0050
27817DOD     C327272  30.397  24.732  14.001  0.4870  0.0303  0.4419
27818DOD     C127273  16.225  18.216   4.114  0.0412 -0.0115 -0.1047
27818DOD     C227274  16.177  18.388   4.539  0.0674 -0.0258 -0.3113
27818DOD     C327275  16.062  18.367   4.989 -0.3522 -0.3406 -0.1283
27819DOD     C127276  15.220  19.857  17.657 -0.0918 -0.0057  0.3192
27819DOD     C227277  15.128  19.604  18.055  0.1157 -0.2843  0.1186
27819DOD     C327278  15.223  19.248  18.257 -0.0970 -0.0515 -0.1243
27820DOD     C127279   4.039  21.506  13.843 -0.2278  0.2616  0.0927
27820DOD     C227280   4.207  21.479  14.277 -0.3859 -0.3168  0.0095
27820DOD     C327281   4.578  21.662  14.492  0.0729 -0.2400  0.1067
27821DOD     C127282   6.510  16.727   6.849 -0.0073 -0.1424  0.1771
27821DOD     C227283   6.705  16.319   6.870 -0.2802  0.1408  0.0203
27821DOD     C327284   7.044  15.965   6.821 -0.1482 -0.2657  0.0914
27822DOD     C127285  13.262  18.716  17.146  0.1784 -0.0153  0.2312
27822DOD     C227286  13.598  18.448  17.330  0.1411 -0.0212  0.0461
27822DOD     C327287  13.947  18.234  17.584 -0.0399 -0.3491 -0.0726
27823DOD     C127288  24.881   9.870  15.984 -0.0420 -0.2025 -0.3963
27823DOD     C227289  24.522  10.216  16.019 -0.0664  0.0397  0.1856
27823DOD     C327290  24.450  10.692  16.018  0.0051 -0.1394 -0.3050
27824DOD     C127291   4.502  11.452  22.456 -0.1463 -0.1635  0.0903
27824DOD     C227292   4.383  11.009  22.654 -0.1454  0.3137 -0.0431
27824DOD     C327293   4.537  10.609  22.764 -0.0695 -0.3372  0.0601
27825DOD     C127294  10.497  11.682  21.147 -0.0713 -0.1958 -0.0067
27825DOD     C227295  10.100  11.565  20.949  0.1794 -0.0074  0.2890
27825DOD     C327296   9.670  11.790  20.962  0.0414  0.0360  0.0517
27826DOD     C127297   0.476   3.469  25.539 -0.4100  0.3051 -0.2370
27826DOD     C227298   0.062   3.564  25.312 -0.0760 -0.0731  0.2658
27826DOD     C327299  30.146   3.808  24.962 -0.0334 -0.0899  0.0856
27827DOD     C127300  18.466   4.600  14.393  0.1420  0.0915  0.0739
27827DOD     C227301  18.895   4.449  14.321  0.0295  0.0432 -0.0282
27827DOD     C327302  19.168   4.386  13.904  0.3310 -0.0993  0.0389
27828DOD     C127303   5.208   6.131  20.658  0.1784 -0.1562  0.1943
27828DOD     C227304   5.457   6.542  20.678  0.1010  0.0941  0.0524
27828DOD     C327305   5.828   6.881  20.624 -0.0976  0.0453  0.0416
27829DOD     C127306  13.712  29.470  22.064 -0.2274  0.3643 -0.1495
27829DOD     C227307  14.017  29.566  21.727 -0.1347  0.2169  0.1001
27829DOD     C327308  14.128  29.636  21.274  0.0264 -0.1394 -0.0545
27830DOD     C127309  19.166   4.572   3.511  0.0028 -0.0424  0.2099
27830DOD     C227310  19.328   4.282   3.176 -0.1031 -0.2269  0.1385
27830DOD     C327311  19.602   4.400   2.775 -0.0058  0.2929 -0.3725
27831DOD     C127312  17.059  15.224   9.216 -0.0638 -0.0306 -0.2340
27831DOD     C227313  16.629  15.299   9.380  0.0262 -0.0500 -0.2706
27831DOD     C327314  16.542  15.163   9.812 -0.0411 -0.0542 -0.3436
27832DOD     C127315  20.413   5.685  16.411 -0.3598 -0.0559  0.3920
27832DOD     C227316  20.088   6.010  16.483 -0.0208 -0.0529  0.0818
27832DOD     C327317  19.720   6.091  16.704  0.1903  0.1964 -0.0308
27833DOD     C127318  20.665  24.172  22.965 -0.1055  0.0013 -0.2842
27833DOD     C227319  20.286  23.957  23.001  0.3020 -0.2418  0.0592
27833DOD     C327320  20.181  23.614  23.324 -0.1901  0.0561 -0.1806
27834DOD     C127321   8.781   0.014   7.895 -0.0842  0.0007 -0.0183
27834DOD     C227322   8.945   0.286   8.278 -0.0811  0.3300  0.0678
27834DOD     C327323   8.967   0.691   8.461  0.1798 -0.1697 -0.0554
27835DOD     C127324  16.903  17.669  10.342 -0.1689 -0.2252 -0.1600
27835DOD     C227325  16.706  17.277  10.261 -0.1958 -0.1100  0.3384
27835DOD     C327326  16.525  16.861  10.152  0.0616 -0.1755  0.2339
27836DOD     C127327  14.960  27.734   3.374  0.1045 -0.0660 -0.1111
27836DOD     C227328  14.530  27.612   3.196  0.0824  0.0180 -0.0658
27836DOD     C327329  14.395  27.584   2.772 -0.2861 -0.1121  0.1456
27837DOD     C127330  14.489  14.307  21.643 -0.1993 -0.0435 -0.4210
27837DOD     C227331  14.864  14.510  21.574 -0.1174  0.0758  0.2112
27837DOD     C327332  15.103  14.838  21.801  0.0104  0.2478  0.1923
27838DOD     C127333  24.679  17.574   7.645 -0.0464  0.0737 -0.0168
27838DOD     C227334  24.539  17.701   8.069  0.0002  0.0523 -0.2094
27838DOD     C327335  24.592  18.033   8.324  0.2992  0.2422 -0.2776
27839DOD     C127336  18.442  17.233   1.873  0.0294  0.1755 -0.2050
27839DOD     C227337  18.650  17.636   1.690  0.2450  0.0870 -0.0251
27839DOD     C327338  18.708  18.093   1.518 -0.0943  0.1431  0.1164
27840DOD     C127339  29.051  19.322  28.737 -0.1886 -0.0785  0.0496
27840DOD     C227340  28.645  19.383  28.926  0.2420  0.0882  0.3122
27840DOD     C327341  28.184  19.249  28.865 -0.1225 -0.2874  0.0169
27841DOD     C127342  25.186   5.454   8.253 -0.2163 -0.1640  0.1797
27841DOD     C227343  25.344   5.861   8.184 -0.1995 -0.0265  0.2712
27841DOD     C327344  25.774   5.948   8.091  0.0414 -0.1864  0.0858
27842DOD     C127345  14.070  30.341   3.419  0.1133 -0.0049  0.0002
27842DOD     C227346  14.221  30.102   3.814  0.0441 -0.0930 -0.4083
27842DOD     C327347  14.287  30.269   4.266 -0.3817  0.2339  0.1450
27843DOD     C127348  21.230  12.588  25.412 -0.3394 -0.1293 -0.3274
27843DOD     C227349  21.557  12.213  25.496 -0.0486 -0.0168 -0.1372
27843DOD     C327350  21.927  11.963  25.703  0.1339 -0.0817  0.0022
27844DOD     C127351  19.270  22.038   3.841  0.2450 -0.1506  0.1881
27844DOD     C227352  19.268  22.499   3.754  0.0697 -0.0841  0.2069
27844DOD     C327353  19.425  22.694   3.399  0.1788 -0.1175 -0.1383
27845DOD     C127354  15.133  19.267  24.507 -0.1081  0.0350  0.0069
27845DOD     C227355  14.677  19.244  24.556 -0.0780 -0.3076 -0.2358
27845DOD     C327356  14.405  19.257  24.953  0.2135 -0.0580  0.2576
27846DOD     C127357  21.394  14.496   3.511  0.1150  0.0896 -0.0295
27846DOD     C227358  21.380  14.685   3.080 -0.1260  0.1000 -0.0863
27846DOD     C327359  21.584  15.006   2.812  0.2570 -0.1668 -0.1966
27847DOD     C127360  23.932   9.366  28.429  0.0395 -0.2985 -0.0304
27847DOD     C227361  24.205   9.448  28.079  0.0371 -0.1378  0.0599
27847DOD     C327362  24.414   9.852  28.060  0.1731  0.0996  0.1387
27848DOD     C127363   4.579  20.775   1.837  0.2984 -0.0610 -0.1001
27848DOD     C227364   4.769  21.153   1.787  0.1861 -0.0560  0.1989
27848DOD     C327365   5.149  21.367   1.833 -0.0212  0.0569 -0.0693
27849DOD     C127366  15.570  15.990   2.509  0.1961 -0.1234 -0.2345
27849DOD     C227367  15.684  16.452   2.670  0.0974 -0.1374 -0.1298
27849DOD     C327368  15.794  16.882   2.581  0.4458  0.0404 -0.1912
27850DOD     C127369  18.744  21.300  10.113  0.2170  0.0833  0.1792
27850DOD     C227370  18.503  21.665  10.083  0.3819  0.0873 -0.0853
27850DOD     C327371  18.401  22.082  10.299  0.0767  0.3090 -0.1031
27851DOD     C127372  27.301  29.801  17.480  0.0286  0.0857  0.0973
27851DOD     C227373  27.523  29.506  17.738 -0.3518 -0.2559 -0.2016
27851DOD     C327374  27.472  29.442  18.231 -0.0222 -0.0990  0.0733
27852DOD     C127375  18.202  22.047  29.680 -0.1832  0.2615 -0.0112
27852DOD     C227376  18.647  21.981  29.563 -0.2138  0.0083 -0.2415
27852DOD     C327377  18.977  21.664  29.685 -0.1690  0.0390 -0.0858
27853DOD     C127378   9.705  11.685  26.158 -0.2203 -0.0134  0.0755
27853DOD     C227379   9.981  11.932  25.890 -0.1824  0.3230  0.1485
27853DOD     C327380  10.152  12.337  25.754  0.0740  0.2135 -0.1265
27854DOD     C127381  18.000  12.522  12.715  0.1557  0.2528 -0.1444
27854DOD     C227382  18.276  12.749  12.435  0.1108 -0.2730  0.0125
27854DOD     C327383  18.728  12.942  12.460 -0.0162  0.0682 -0.0588
27855DOD     C127384  13.028   9.589  29.560 -0.0822  0.2823  0.2176
27855DOD     C227385  12.649   9.683  29.362 -0.1352 -0.0209  0.1078
27855DOD     C327386  12.588   9.899  28.963  0.3003  0.3461 -0.1691
27856DOD     C127387   3.851  14.212  27.594  0.1165  0.3638 -0.0246
27856DOD     C227388   3.995  14.627  27.502 -0.0839  0.1882  0.0388
27856DOD     C327389   4.219  14.994  27.381 -0.0618  0.0687  0.4629
27857DOD     C127390   4.808  23.077  21.653  0.0051  0.1179 -0.0816
27857DOD     C227391   5.176  23.238  21.893 -0.0175 -0.0817 -0.1264
27857DOD     C327392   5.620  23.376  21.931 -0.0502  0.2264 -0.4044
27858DOD     C127393   3.136  13.561  21.853 -0.0672  0.2776  0.0137
27858DOD     C227394   3.142  13.171  21.576  0.1860 -0.1131 -0.0966
27858DOD     C327395   3.151  12.750  21.400 -0.0829 -0.2021  0.2359
27859DOD     C127396   4.570  28.507  26.720 -0.0679  0.0921 -0.0169
27859DOD     C227397   4.966  28.598  26.877 -0.1088 -0.0304  0.1090
27859DOD     C327398   5.202  28.597  27.253  0.1649 -0.2283 -0.0574
27860DOD     C127399  16.466   0.919  21.506 -0.0456  0.1083  0.1019
27860DOD     C227400  16.733   0.916  21.130 -0.1183  0.2646  0.0094
27860DOD     C327401  17.106   1.005  20.930 -0.2671 -0.1186  0.1699
27861DOD     C127402   4.213   4.064   1.176 -0.0997 -0.0769 -0.0796
27861DOD     C227403   4.078   4.394   1.488  0.0136  0.0112 -0.2686
27861DOD     C327404   3.970   4.707   1.780  0.0297  0.2605  0.0435
27862DOD     C127405  16.894  28.634  21.675 -0.1090  0.1731  0.0212
27862DOD     C227406  17.258  28.373  21.509  0.0442  0.1771  0.1322
27862DOD     C327407  17.668  28.178  21.451  0.1462  0.0044 -0.1086
27863DOD     C127408  22.917   0.446  14.264  0.2614  0.0248  0.1897
27863DOD     C227409  23.147   0.826  14.177  0.0650  0.0607 -0.0701
27863DOD     C327410  23.502   0.807  13.842 -0.1890 -0.0837 -0.0319
27864DOD     C127411   1.222  26.549  29.194  0.1933 -0.3722  0.5708
27864DOD     C227412   1.620  26.432  29.429  0.2256 -0.0401  0.0325
27864DOD     C327413   2.047  26.505  29.354  0.1018 -0.2380 -0.1318
27865DOD     C127414   1.572  13.822  26.600  0.0954  0.1155  0.2214
27865DOD     C227415   2.042  13.824  26.699 -0.0577  0.0563  0.0573
27865DOD     C327416   2.324  13.689  27.091 -0.1760 -0.0622 -0.2152
27866DOD     C127417  26.633  25.585   1.788 -0.0255  0.2172 -0.0702
27866DOD     C227418  26.494  25.791   2.148  0.0752  0.1019 -0.0958
27866DOD     C327419  26.527  26.195   2.393  0.2017 -0.0822  0.0911
27867DOD     C127420   5.707  28.377  10.390 -0.3588 -0.2783  0.1634
27867DOD     C227421   6.126  28.278  10.151 -0.2760 -0.3667 -0.1844
27867DOD     C327422   6.477  28.061   9.920 -0.2897 -0.1908  0.0990
27868DOD     C127423  14.879   2.492   6.514 -0.2678  0.0840  0.2060
27868DOD     C227424  14.824   2.119   6.277 -0.2551 -0.1817  0.3124
27868DOD     C327425  15.055   1.683   6.143 -0.0884 -0.1045  0.0479
27869DOD     C127426  18.956   7.196  25.299 -0.1336 -0.2901 -0.0666
27869DOD     C227427  19.081   6.887  24.981  0.0515 -0.0046 -0.1557
27869DOD     C327428  18.917   6.772  24.553 -0.0767 -0.0452  0.0761
27870DOD     C127429  15.617  17.656  27.870  0.0118 -0.2141 -0.1505
27870DOD     C227430  15.952  17.605  28.177  0.0378  0.2725  0.1109
27870DOD     C327431  16.235  17.323  28.406  0.2886  0.0737 -0.0302
27871DOD     C127432  27.307  20.534  23.777 -0.3670 -0.1205 -0.5251
27871DOD     C227433  27.277  20.339  24.212 -0.1383 -0.1772  0.1265
27871DOD     C327434  27.323  19.950  24.509  0.0510 -0.0635  0.0630
27872DOD     C127435  12.035  27.679  14.529  0.0849  0.4750  0.1787
27872DOD     C227436  12.104  28.046  14.231  0.1252 -0.0475  0.2235
27872DOD     C327437  12.271  28.507  14.280 -0.3148 -0.0931  0.0306
27873DOD     C127438  23.669   9.049  16.879  0.0497  0.0157  0.3526
27873DOD     C227439  23.453   8.704  16.859 -0.0068 -0.1358 -0.2672
27873DOD     C327440  23.119   8.381  16.933  0.0016 -0.1430  0.1139
27874DOD     C127441  22.552   6.701   4.190 -0.1168 -0.1615  0.1110
27874DOD     C227442  22.257   7.084   4.237 -0.2605  0.0562 -0.2683
27874DOD     C327443  22.247   7.327   3.850 -0.1540 -0.1257 -0.1091
27875DOD     C127444  13.918  23.141   1.131  0.3311  0.4344  0.1472
27875DOD     C227445  13.748  22.966   1.493 -0.0433  0.3699 -0.2109
27875DOD     C327446  13.439  22.677   1.720  0.1158  0.1764  0.1715
27876DOD     C127447  28.558   2.414   1.957  0.0063 -0.1086  0.0633
27876DOD     C227448  28.181   2.263   1.743  0.0321 -0.0671  0.1015
27876DOD     C327449  27.796   2.083   1.822  0.1620 -0.1673  0.0493
27877DOD     C127450  12.876   9.514  27.255  0.1246  0.0060  0.3166
27877DOD     C227451  12.899   9.406  26.810 -0.3611  0.2422  0.2639
27877DOD     C327452  12.592   9.080  26.589  0.0249  0.0489  0.3530
27878DOD     C127453  17.696  23.047   4.364  0.2126 -0.2378  0.0069
27878DOD     C227454  17.355  22.764   4.406  0.1834  0.1764  0.1982
27878DOD     C327455  17.255  22.340   4.420  0.1101 -0.0574  0.1025
27879DOD     C127456  27.536  15.244   6.491 -0.0030 -0.0712  0.3619
27879DOD     C227457  27.790  15.464   6.826  0.0438 -0.1707 -0.1588
27879DOD     C327458  28.041  15.685   7.119  0.1245 -0.1472 -0.2216
27880DOD     C127459  14.670  28.080  29.754 -0.0315 -0.1721  0.1434
27880DOD     C227460  14.781  27.862  29.348  0.3439 -0.0622 -0.1865
27880DOD     C327461  14.812  27.834  28.945  0.2359 -0.3927  0.2674
27881DOD     C127462  18.152  23.670  26.354 -0.3623  0.0930 -0.2009
27881DOD     C227463  17.807  23.831  26.061 -0.0497 -0.4051  0.1948
27881DOD     C327464  17.705  23.828  25.584 -0.0925 -0.1266  0.2095
27882DOD     C127465  21.399  29.004   9.397  0.0780  0.0916 -0.1866
27882DOD     C227466  21.470  28.610   9.605 -0.0488  0.1374 -0.0083
27882DOD     C327467  21.197  28.175   9.638  0.0990 -0.2634  0.0034
27883DOD     C127468  19.512  27.775   1.960  0.1538 -0.2447  0.0105
27883DOD     C227469  19.516  27.992   1.544  0.1116  0.0648  0.0251
27883DOD     C327470  19.240  28.030   1.196 -0.0003 -0.4893 -0.1389
27884DOD     C127471   4.361   0.196   9.837  0.3565 -0.0298 -0.0282
27884DOD     C227472   4.087   0.547  10.011  0.0737  0.1599  0.2455
27884DOD     C327473   3.936   0.604  10.463 -0.1982  0.0396  0.0376
27885DOD     C127474  23.788  28.153   7.055  0.1029 -0.1589 -0.5427
27885DOD     C227475  23.676  27.950   7.431 -0.0527  0.1221  0.0823
27885DOD     C327476  23.804  28.015   7.870  0.2125  0.1676 -0.0626
27886DOD     C127477  17.765  27.587  11.694 -0.0160 -0.1183 -0.0746
27886DOD     C227478  17.971  27.553  12.095 -0.0209 -0.0948 -0.0688
27886DOD     C327479  18.347  27.679  12.265 -0.2507 -0.1370  0.3452
27887DOD     C127480   7.344  26.823  20.027  0.0859  0.0042 -0.2138
27887DOD     C227481   7.615  26.787  19.678 -0.0637 -0.1388  0.1132
27887DOD     C327482   7.795  26.585  19.298  0.0208  0.2287  0.0594
27888DOD     C127483  11.844  23.920   6.602  0.1025 -0.0401 -0.1383
27888DOD     C227484  12.351  23.977   6.413  0.3257 -0.1294  0.0917
27888DOD     C327485  12.469  24.016   5.965  0.1977 -0.3481 -0.0705
27889DOD     C127486  13.260  26.660   3.001  0.0487  0.1926 -0.4690
27889DOD     C227487  12.976  26.677   2.645 -0.0970 -0.3478  0.2718
27889DOD     C327488  12.714  26.391   2.372 -0.0210 -0.1275 -0.1929
27890DOD     C127489   0.260  14.770  15.683 -0.1292  0.1185  0.2155
27890DOD     C227490  30.305  14.480  16.013  0.1546  0.1095  0.0033
27890DOD     C327491  30.250  14.440  16.475  0.0859  0.0329  0.1982
27891DOD     C127492   3.065  10.244  18.559 -0.1136  0.0514  0.0198
27891DOD     C227493   3.252   9.857  18.637 -0.1559  0.1607 -0.0059
27891DOD     C327494   3.659   9.737  18.551 -0.2939  0.4239  0.1364
27892DOD     C127495   2.790   7.252  18.424 -0.2553  0.0311 -0.3345
27892DOD     C227496   2.803   6.796  18.359 -0.1689 -0.0235  0.0835
27892DOD     C327497   2.643   6.368  18.418  0.0969  0.3437  0.0285
27893DOD     C127498  27.856  29.851  18.228 -0.1225  0.0449 -0.2260
27893DOD     C227499  28.021  29.524  17.884 -0.2522 -0.2930 -0.5274
27893DOD     C327500  28.422  29.312  17.880 -0.0620  0.0173 -0.0173
27894DOD     C127501  21.280  15.570  11.833 -0.0182 -0.1007 -0.2562
27894DOD     C227502  21.275  16.004  11.611 -0.3332  0.0254 -0.2942
27894DOD     C327503  21.372  16.126  11.185 -0.0590  0.2452  0.2195
27895DOD     C127504  14.098  20.223  21.917  0.3856 -0.0040  0.0800
27895DOD     C227505  13.899  19.919  21.616  0.1271  0.1529  0.1206
27895DOD     C327506  13.918  19.466  21.412 -0.2042 -0.1892  0.1858
27896DOD     C127507   4.701  27.281  28.510 -0.1767 -0.3216  0.2844
27896DOD     C227508   4.974  26.978  28.784 -0.0737  0.0471  0.2286
27896DOD     C327509   4.850  26.722  29.099  0.0939 -0.2136  0.1873
27897DOD     C127510   1.940  16.455  15.205  0.0939  0.0104 -0.2751
27897DOD     C227511   1.676  16.252  14.884 -0.0931 -0.3682  0.3671
27897DOD     C327512   1.313  16.047  14.712  0.1405 -0.2544 -0.2409
27898DOD     C127513  23.568   6.722   4.165 -0.0906 -0.0959  0.1218
27898DOD     C227514  23.591   6.656   3.752 -0.0321  0.1473 -0.1631
27898DOD     C327515  23.346   6.478   3.416  0.1131 -0.5353 -0.0789
27899DOD     C127516   0.242  15.582  23.219  0.0391  0.0925  0.2104
27899DOD     C227517  30.198  15.784  23.487 -0.1605 -0.1748  0.1608
27899DOD     C327518  29.794  15.941  23.480  0.0969  0.3523 -0.0139
27900DOD     C127519  12.612  25.691   4.555  0.2104  0.1402  0.1523
27900DOD     C227520  12.572  26.196   4.419  0.1517 -0.0511 -0.0832
27900DOD     C327521  12.566  26.602   4.516 -0.0999  0.0411  0.2367
27901DOD     C127522  20.410   8.283  23.313 -0.1026  0.3317 -0.0552
27901DOD     C227523  20.539   8.671  23.065  0.2935  0.0735 -0.0181
27901DOD     C327524  20.520   9.003  22.728 -0.1318 -0.0251 -0.0074
27902DOD     C127525  11.702  15.117  20.327 -0.1245 -0.1905 -0.0819
27902DOD     C227526  11.497  15.094  19.913 -0.3494 -0.2353  0.2135
27902DOD     C327527  11.091  15.176  19.698  0.1991 -0.2198 -0.0829
27903DOD     C127528  18.224   3.695  21.434 -0.4060 -0.0157 -0.3138
27903DOD     C227529  18.182   3.251  21.554 -0.3577  0.2491  0.0628
27903DOD     C327530  18.301   2.800  21.725 -0.1896 -0.1130 -0.0563
27904DOD     C127531   7.623  12.766  15.582 -0.3056  0.0058 -0.0723
27904DOD     C227532   7.200  12.799  15.421  0.2104 -0.0600 -0.3386
27904DOD     C327533   6.854  12.747  15.116  0.1458  0.1124  0.0889
27905DOD     C127534  13.449  12.461  28.276 -0.2246  0.0216  0.0951
27905DOD     C227535  13.567  12.497  28.726 -0.2814  0.1610  0.1264
27905DOD     C327536  13.797  12.382  29.113  0.0477  0.0275  0.0683
27906DOD     C127537  24.996   2.504  14.263  0.2106 -0.1030  0.0366
27906DOD     C227538  24.525   2.582  14.146 -0.0720 -0.3240 -0.3008
27906DOD     C327539  24.053   2.620  14.100 -0.3247 -0.0219  0.3713
27907DOD     C127540  24.146  21.194  26.736 -0.1479  0.0737  0.0934
27907DOD     C227541  24.276  20.798  26.497  0.3197  0.2250  0.2771
27907DOD     C327542  24.112  20.360  26.347  0.2056 -0.1040  0.1607
27908DOD     C127543  10.797  10.853   6.515 -0.1052  0.1948  0.3642
27908DOD     C227544  11.082  10.674   6.819 -0.4361  0.0645 -0.0599
27908DOD     C327545  11.378  10.273   6.780  0.1378 -0.0837 -0.3031
27909DOD     C127546   6.959   1.452  21.522  0.1910 -0.0338 -0.0467
27909DOD     C227547   7.088   1.603  21.946 -0.1134  0.0571  0.4940
27909DOD     C327548   7.402   1.627  22.212 -0.2044  0.2636 -0.2599
27910DOD     C127549  19.731  20.229  29.698  0.2893 -0.2642 -0.0724
27910DOD     C227550  20.173  20.280  29.667 -0.3605 -0.4527  0.1685
27910DOD     C327551  20.570  20.225  29.362  0.0660 -0.0544  0.0666
27911DOD     C127552   8.270  25.598  23.948  0.1757  0.2818 -0.1020
27911DOD     C227553   8.564  25.384  24.181  0.3225 -0.2759  0.0252
27911DOD     C327554   9.009  25.306  24.337  0.0258 -0.1139 -0.2561
27912DOD     C127555   3.827   3.920  10.633 -0.0098 -0.1928  0.3956
27912DOD     C227556   3.638   3.547  10.809 -0.2869 -0.0411  0.0405
27912DOD     C327557   3.209   3.379  10.812  0.0812 -0.1050 -0.0353
27913DOD     C127558  17.214  18.292   4.665 -0.3713  0.1234  0.2509
27913DOD     C227559  17.024  18.173   5.053 -0.1581  0.1977  0.1645
27913DOD     C327560  16.571  18.239   5.270  0.4523 -0.0487  0.0651
27914DOD     C127561  18.428  28.120  21.613 -0.0853  0.4075 -0.2004
27914DOD     C227562  18.547  28.550  21.583 -0.0229 -0.1428  0.0101
27914DOD     C327563  18.681  28.985  21.708 -0.1894 -0.2633 -0.0328
27915DOD     C127564   7.488  15.809  16.678  0.0181 -0.1898 -0.2135
27915DOD     C227565   7.800  15.578  16.390  0.0113 -0.0456 -0.3414
27915DOD     C327566   8.127  15.337  16.648  0.1419 -0.2181 -0.1147
27916DOD     C127567  17.250  14.829  13.432  0.1381 -0.3884  0.0412
27916DOD     C227568  17.293  14.531  13.017  0.0983 -0.1617  0.0280
27916DOD     C327569  17.214  14.077  12.828  0.5021  0.2570 -0.1922
27917DOD     C127570  20.020  29.955  14.886  0.1160  0.0175  0.0311
27917DOD     C227571  20.337  29.633  14.929  0.0321 -0.0738 -0.0628
27917DOD     C327572  20.768  29.663  14.989  0.1362 -0.2550 -0.0089
27918DOD     C127573  18.697  23.671  29.937 -0.1506 -0.0816 -0.2729
27918DOD     C227574  19.094  23.849  30.139  0.0726  0.0564  0.2139
27918DOD     C327575  19.322  24.114   0.135  0.1883  0.0264  0.1008
27919DOD     C127576  15.497  27.179  19.362 -0.0182  0.2350 -0.3401
27919DOD     C227577  15.621  27.107  19.826  0.1523  0.1503 -0.0123
27919DOD     C327578  15.816  27.194  20.206 -0.1069 -0.2170 -0.0674
27920DOD     C127579  28.038   4.603  24.272  0.0939 -0.1871 -0.1521
27920DOD     C227580  28.261   4.951  24.112 -0.1422  0.2385  0.1022
27920DOD     C327581  28.583   5.237  23.918  0.0948  0.2357 -0.1403
27921DOD     C127582  10.289  27.310  29.992 -0.1199 -0.1210  0.3401
27921DOD     C227583  10.598  27.616  29.847  0.1230  0.3675 -0.1466
27921DOD     C327584  10.814  27.821  29.506 -0.3693 -0.3307  0.0575
27922DOD     C127585   5.047  17.880  23.208  0.0034  0.0937 -0.0060
27922DOD     C227586   4.939  18.226  23.546 -0.2273 -0.0373  0.1341
27922DOD     C327587   4.746  18.627  23.758  0.0348  0.2829  0.1929
27923DOD     C127588  14.525   7.802   2.311 -0.1640  0.0216 -0.0659
27923DOD     C227589  14.396   8.189   2.511  0.1104 -0.0723  0.0419
27923DOD     C327590  14.257   8.492   2.826 -0.0748  0.0552  0.0072
27924DOD     C127591   1.820  27.851  23.885 -0.1096  0.0049  0.1743
27924DOD     C227592   1.457  28.077  23.673  0.0138  0.0684 -0.0955
27924DOD     C327593   1.135  28.376  23.893 -0.0260  0.1192  0.0423
27925DOD     C127594   8.258  10.453  29.681 -0.0510  0.3846 -0.0021
27925DOD     C227595   8.712  10.523  29.643 -0.2376 -0.1193  0.3496
27925DOD     C327596   9.120  10.787  29.787 -0.1163 -0.0711 -0.0895
27926DOD     C127597  16.052  11.306   6.177  0.0317 -0.1956  0.2435
27926DOD     C227598  15.874  10.887   6.081 -0.1684 -0.1457 -0.3668
27926DOD     C327599  15.913  10.452   5.864  0.0540 -0.1668  0.1703
27927DOD     C127600  13.005  18.705  10.223  0.0851  0.0201 -0.2145
27927DOD     C227601  13.399  18.503  10.029 -0.1264 -0.0987 -0.0138
27927DOD     C327602  13.770  18.366   9.753  0.1212  0.4389 -0.1916
27928DOD     C127603   3.229  11.309   4.101  0.4007  0.1887  0.1552
27928DOD     C227604   3.315  11.717   4.351  0.2428 -0.0389 -0.4807
27928DOD     C327605   3.270  11.841   4.793 -0.1117 -0.0550  0.0294
27929DOD     C127606   1.669  14.288   2.939 -0.1200  0.1259  0.1054
27929DOD     C227607   1.497  14.055   2.614  0.0588 -0.2424 -0.3054
27929DOD     C327608   1.342  13.844   2.230  0.3787  0.2111  0.2627
27930DOD     C127609  15.527  19.690   2.283  0.1013 -0.0160  0.2330
27930DOD     C227610  15.349  20.109   2.402 -0.1297  0.0012  0.2310
27930DOD     C327611  14.928  20.280   2.493 -0.0528  0.1607 -0.2726
27931DOD     C127612  11.474  10.348  14.719  0.0596  0.4498  0.1690
27931DOD     C227613  11.395  10.139  14.286 -0.0638 -0.1475 -0.3177
27931DOD     C327614  11.275   9.969  13.896  0.0338  0.2634 -0.3735
27932DOD     C127615   8.422  24.465  20.323  0.0712 -0.0493  0.0172
27932DOD     C227616   8.313  24.548  19.854  0.0990 -0.0710 -0.1437
27932DOD     C327617   8.497  24.773  19.524 -0.1876 -0.3161 -0.1298
27933DOD     C127618   2.759  15.324  27.593  0.2290 -0.1014 -0.0432
27933DOD     C227619   2.865  15.659  27.297  0.0797 -0.1224 -0.1572
27933DOD     C327620   2.769  16.067  27.100 -0.3640 -0.0380  0.1376
27934DOD     C127621  28.103  11.578   3.853 -0.1434  0.0201  0.1098
27934DOD     C227622  28.108  12.064   3.785 -0.1576 -0.1966 -0.1083
27934DOD     C327623  28.324  12.258   3.456 -0.0976  0.0223  0.0777
27935DOD     C127624   4.082  23.248   7.024  0.2908  0.0052 -0.1230
27935DOD     C227625   4.077  22.935   6.734 -0.1575 -0.3544 -0.0898
27935DOD     C327626   4.469  22.753   6.565 -0.3453  0.1554 -0.1296
27936DOD     C127627  19.490  27.506  24.955 -0.1211  0.0184  0.2288
27936DOD     C227628  19.294  27.171  24.705  0.1245  0.1166 -0.0395
27936DOD     C327629  18.917  26.893  24.839 -0.0245 -0.1634 -0.3412
27937DOD     C127630   3.886   0.766  18.200  0.3735  0.0986  0.1500
27937DOD     C227631   4.353   0.905  18.302 -0.0260 -0.0423  0.0783
27937DOD     C327632   4.745   1.121  18.345  0.1460 -0.2564 -0.1258
27938DOD     C127633  12.875  14.253  10.842 -0.1251 -0.0822 -0.0371
27938DOD     C227634  13.154  14.640  10.888 -0.0374  0.2869 -0.2801
27938DOD     C327635  13.423  14.707  11.256 -0.2574  0.2159  0.2527
27939DOD     C127636  16.910  22.221   2.705 -0.0996 -0.0099  0.2824
27939DOD     C227637  16.458  22.392   2.586 -0.0267 -0.0737 -0.2556
27939DOD     C327638  16.059  22.474   2.422  0.0688 -0.1928  0.1558
27940DOD     C127639   7.997  19.934  14.253  0.2527 -0.0731  0.4189
27940DOD     C227640   8.368  20.254  14.224  0.0462 -0.2315 -0.3702
27940DOD     C327641   8.783  20.071  14.186 -0.0154  0.0812 -0.0448
27941DOD     C127642  23.073  27.062  19.782 -0.1155 -0.2837  0.1699
27941DOD     C227643  22.958  27.438  20.041  0.1517 -0.1129  0.1747
27941DOD     C327644  22.782  27.869  20.145  0.2695  0.2666 -0.4468
27942DOD     C127645   9.977   7.543   1.404 -0.1582 -0.0575  0.1450
27942DOD     C227646   9.702   7.183   1.207  0.2155  0.1492  0.0507
27942DOD     C327647   9.335   6.863   1.128 -0.0050 -0.1177  0.0400
27943DOD     C127648  13.009   6.646  16.116 -0.3663 -0.2688  0.2609
27943DOD     C227649  13.293   7.015  16.249 -0.0359  0.0478  0.1331
27943DOD     C327650  13.321   7.374  16.610  0.1840 -0.1107  0.0938
27944DOD     C127651  27.659  28.487   7.715 -0.0724 -0.1027  0.0901
27944DOD     C227652  27.929  28.191   7.882  0.2711  0.2529 -0.1088
27944DOD     C327653  28.283  27.944   7.959  0.1287  0.0537 -0.1588
27945DOD     C127654   9.307   6.007   4.895  0.0833 -0.3245 -0.4265
27945DOD     C227655   9.071   6.377   5.015  0.3479 -0.0530  0.2097
27945DOD     C327656   9.157   6.790   5.238 -0.0935 -0.1267 -0.0050
27946DOD     C127657  15.037   4.483  10.767  0.1856 -0.2447 -0.0258
27946DOD     C227658  14.627   4.442  10.596 -0.1304 -0.3260  0.0920
27946DOD     C327659  14.338   4.581  10.315  0.1401  0.1122 -0.2056
27947DOD     C127660  17.560   6.673  21.918  0.0879  0.0232  0.1324
27947DOD     C227661  17.459   7.047  22.155  0.0734  0.0782  0.1037
27947DOD     C327662  17.450   7.493  22.123  0.1420 -0.0417 -0.1986
27948DOD     C127663   2.682  10.168  23.346 -0.0338 -0.0871  0.0788
27948DOD     C227664   2.627  10.124  23.784 -0.0238  0.0499 -0.2532
27948DOD     C327665   2.167   9.994  23.858 -0.2948  0.0339 -0.0392
27949DOD     C127666  28.316  14.087   6.341 -0.0917  0.0234 -0.0759
27949DOD     C227667  28.375  14.333   5.900  0.0499 -0.3354 -0.0411
27949DOD     C327668  28.513  14.778   5.833 -0.0178 -0.0886 -0.0483
27950DOD     C127669  18.584   3.009  10.676 -0.1682 -0.0424 -0.1362
27950DOD     C227670  18.179   2.957  10.985  0.1738 -0.0988  0.1909
27950DOD     C327671  17.914   3.142  11.332 -0.0425  0.1161  0.1982
27951DOD     C127672  29.499  13.851  27.558 -0.2230 -0.0365  0.2433
27951DOD     C227673  29.526  13.887  28.014  0.3335 -0.1860 -0.1612
27951DOD     C327674  29.498  13.997  28.498 -0.0766 -0.4013  0.1060
27952DOD     C127675   6.780  22.247   4.338 -0.1834 -0.1009  0.1582
27952DOD     C227676   6.944  22.347   3.940  0.1326  0.1982 -0.0628
27952DOD     C327677   6.797  22.359   3.551  0.2899 -0.1871  0.0408
27953DOD     C127678  17.391   1.916  25.696 -0.1772  0.3177 -0.1280
27953DOD     C227679  17.596   1.956  26.125  0.1312 -0.1858  0.1515
27953DOD     C327680  17.842   2.148  26.485  0.4863 -0.0212 -0.4617
27954DOD     C127681   5.925  10.936  27.051  0.4530  0.1222 -0.1490
27954DOD     C227682   5.895  11.183  27.422 -0.1257 -0.1229 -0.0670
27954DOD     C327683   5.591  11.385  27.583 -0.1257  0.1493  0.0188
27955DOD     C127684   2.388   8.052  21.427  0.3024 -0.0135  0.1056
27955DOD     C227685   2.154   8.245  21.746  0.1619  0.1285 -0.2442
27955DOD     C327686   1.984   8.175  22.183  0.1893  0.0308 -0.1582
27956DOD     C127687  11.701   9.381   3.327  0.3803 -0.0088 -0.0334
27956DOD     C227688  11.957   9.186   3.095 -0.0698  0.3415  0.1813
27956DOD     C327689  12.291   9.328   2.834 -0.1096 -0.0567  0.1482
27957DOD     C127690  18.676  26.807  22.407 -0.0850 -0.0698 -0.1624
27957DOD     C227691  18.338  26.541  22.617 -0.3906 -0.1044  0.3056
27957DOD     C327692  18.075  26.269  22.822  0.3173  0.0323 -0.1271
27958DOD     C127693   0.604  27.375  13.029 -0.0284  0.2507  0.1466
27958DOD     C227694   0.785  27.781  13.110  0.0538  0.1759  0.2186
27958DOD     C327695   0.857  28.045  13.494 -0.0791  0.0726 -0.1588
27959DOD     C127696  27.246   9.580  26.257 -0.1141  0.0853  0.0680
27959DOD     C227697  27.323   9.327  26.648  0.2526 -0.1012  0.0133
27959DOD     C327698  27.639   9.097  26.973  0.0252  0.1876 -0.0849
27960DOD     C127699  17.472  10.269  10.113  0.1440 -0.1424 -0.1809
27960DOD     C227700  17.304   9.887  10.103  0.0276 -0.2369  0.2394
27960DOD     C327701  17.159   9.467  10.235 -0.0335 -0.1852 -0.0593
27961DOD     C127702  11.295  27.148   8.693  0.1676 -0.2810  0.0443
27961DOD     C227703  11.651  26.999   8.942 -0.0048  0.1651 -0.4044
27961DOD     C327704  12.056  27.046   8.990  0.1092  0.0197  0.2081
27962DOD     C127705  28.201   4.538  12.392  0.3197  0.1812  0.2769
27962DOD     C227706  28.285   4.906  12.762 -0.0395  0.2058  0.5487
27962DOD     C327707  28.503   5.075  13.191  0.1395 -0.3124 -0.1191
27963DOD     C127708  23.849  24.307  22.912 -0.1174 -0.0624 -0.0956
27963DOD     C227709  24.125  24.018  22.608 -0.0858  0.0481  0.0172
27963DOD     C327710  24.214  23.762  22.231  0.2185 -0.0076  0.2307
27964DOD     C127711  15.912  13.712  19.813  0.0263 -0.2397 -0.0830
27964DOD     C227712  15.989  13.782  19.384  0.0985  0.0134 -0.1647
27964DOD     C327713  16.294  13.854  19.091  0.1306 -0.2391  0.0909
27965DOD     C127714  20.152  27.258  23.003  0.1041 -0.3722  0.0688
27965DOD     C227715  19.764  27.457  22.811  0.0413  0.0179 -0.1795
27965DOD     C327716  19.411  27.558  22.472 -0.1737 -0.3397  0.0919
27966DOD     C127717  12.680  10.435  25.630 -0.2852 -0.1627  0.0909
27966DOD     C227718  12.946  10.324  25.260  0.0413  0.1517 -0.1309
27966DOD     C327719  13.391  10.119  25.257 -0.2033  0.0138  0.2425
27967DOD     C127720   7.018  25.017  20.551 -0.3308 -0.0611  0.0939
27967DOD     C227721   6.594  24.808  20.421 -0.0457 -0.3712 -0.2402
27967DOD     C327722   6.206  24.531  20.519 -0.1650 -0.0460 -0.1174
27968DOD     C127723  17.776  20.726  22.842 -0.2962  0.2805 -0.0195
27968DOD     C227724  17.360  20.522  22.678 -0.1318 -0.0783  0.1399
27968DOD     C327725  16.959  20.426  22.440  0.3403  0.0306  0.0686
27969DOD     C127726  15.022  25.251  10.857  0.4174  0.1582 -0.2019
27969DOD     C227727  15.010  25.189  11.326  0.1257 -0.1162 -0.0586
27969DOD     C327728  15.072  25.422  11.706 -0.1279  0.0339 -0.0449
27970DOD     C127729  21.635  10.321   2.236 -0.1419  0.1616 -0.1366
27970DOD     C227730  21.414  10.678   2.096 -0.1016 -0.0477  0.5540
27970DOD     C327731  21.113  11.013   1.967  0.0216  0.0688 -0.1590
27971DOD     C127732   1.098  28.867  29.980  0.3358 -0.2543  0.0310
27971DOD     C227733   0.896  28.738   0.092  0.0008  0.1044 -0.1071
27971DOD     C327734   0.768  28.530   0.466  0.0495  0.2381 -0.1689
27972DOD     C127735   3.742   1.261  13.512 -0.0075 -0.3042 -0.1128
27972DOD     C227736   3.924   1.643  13.322  0.1921  0.0856 -0.0324
27972DOD     C327737   3.913   1.932  12.963 -0.2767  0.0684  0.3284
27973DOD     C127738   5.914  18.388  27.638 -0.1131  0.0161 -0.1825
27973DOD     C227739   5.519  18.370  27.798  0.0860  0.1453 -0.2302
27973DOD     C327740   5.292  18.484  28.194  0.3536 -0.1176  0.0137
27974DOD     C127741  29.210   1.060   8.684 -0.0078 -0.1527  0.3080
27974DOD     C227742  29.502   1.141   8.317 -0.0229  0.0562 -0.0988
27974DOD     C327743  29.833   1.014   8.033 -0.3252 -0.0218  0.2017
27975DOD     C127744  15.498   4.145  10.923  0.0304  0.0205 -0.0021
27975DOD     C227745  15.794   4.496  11.203  0.1565 -0.1152 -0.2465
27975DOD     C327746  16.001   4.928  11.125 -0.4222 -0.0783  0.1053
27976DOD     C127747   3.157  26.040  24.653 -0.0773 -0.0570  0.0372
27976DOD     C227748   3.322  26.215  25.130  0.2906  0.2589  0.0836
27976DOD     C327749   3.356  26.060  25.573 -0.2838  0.2136  0.0079
27977DOD     C127750   7.725  15.177  14.760 -0.0901  0.2065 -0.0471
27977DOD     C227751   8.082  15.101  14.541 -0.1121  0.0903 -0.1056
27977DOD     C327752   8.522  14.965  14.627 -0.1262 -0.0880  0.0053
27978DOD     C127753   8.508  10.215  14.998 -0.1703  0.1988  0.1269
27978DOD     C227754   8.498  10.143  14.514  0.1001  0.0504  0.0138
27978DOD     C327755   8.588  10.362  14.129 -0.2879 -0.1841  0.1281
27979DOD     C127756   3.944  17.187   5.853 -0.1823 -0.0847 -0.3378
27979DOD     C227757   4.268  17.113   6.225  0.2174 -0.0769 -0.2637
27979DOD     C327758   4.410  17.307   6.649  0.1179 -0.1322 -0.0504
27980DOD     C127759   2.623   6.538  26.456 -0.3198 -0.2731  0.3297
27980DOD     C227760   2.458   6.332  26.083 -0.1892 -0.0991  0.3491
27980DOD     C327761   2.401   5.865  25.963  0.0827  0.2677  0.2147
27981DOD     C127762  18.986   8.742  24.104 -0.3489  0.0742  0.1582
27981DOD     C227763  18.521   8.744  24.041  0.0111 -0.0168 -0.0459
27981DOD     C327764  18.159   8.500  24.000  0.0326  0.0402 -0.0227
27982DOD     C127765   4.611  14.151  26.745  0.0510 -0.1875 -0.2466
27982DOD     C227766   4.637  14.598  26.711  0.0008 -0.0574 -0.2254
27982DOD     C327767   4.593  15.043  26.678  0.1700  0.1215  0.2792
27983DOD     C127768  15.350  13.762   5.886 -0.1070 -0.0609 -0.1139
27983DOD     C227769  14.961  13.487   5.953  0.1665 -0.3306  0.0817
27983DOD     C327770  14.855  13.140   6.227  0.0424  0.0614  0.3271
27984DOD     C127771  23.877  21.643  11.077 -0.1889  0.2556  0.1587
27984DOD     C227772  23.589  21.627  11.449  0.0143 -0.0714 -0.0869
27984DOD     C327773  23.281  21.539  11.784  0.0598  0.1769 -0.1026
27985DOD     C127774  16.384  13.841  17.538 -0.0357  0.0501 -0.1248
27985DOD     C227775  16.638  14.081  17.913  0.0634  0.2194  0.0124
27985DOD     C327776  17.018  14.328  18.062 -0.3255 -0.1523  0.0518
27986DOD     C127777  20.550   3.054   0.468  0.1512  0.0888 -0.1870
27986DOD     C227778  20.492   3.214   0.006 -0.0338  0.2032 -0.1122
27986DOD     C327779  20.449   3.195  29.868  0.0490  0.1790  0.3930
27987DOD     C127780  27.242  15.681   6.541  0.0183 -0.0868  0.1770
27987DOD     C227781  27.214  16.152   6.586 -0.2652 -0.0024  0.1433
27987DOD     C327782  26.965  16.539   6.712 -0.0635  0.0511 -0.1833
27988DOD     C127783  19.442  26.035  24.715 -0.0595 -0.0857  0.0227
27988DOD     C227784  19.487  26.311  25.155 -0.0615  0.0206  0.2908
27988DOD     C327785  19.756  26.518  25.489 -0.0772 -0.0160  0.2472
27989DOD     C127786  17.683   9.833  10.899 -0.2774 -0.1666  0.2752
27989DOD     C227787  18.106   9.743  11.117  0.1155  0.3979  0.1389
27989DOD     C327788  18.469   9.412  10.951  0.1154  0.3106 -0.2078
27990DOD     C127789   1.877   0.432  23.492 -0.0358  0.0709 -0.2398
27990DOD     C227790   1.532   0.704  23.662 -0.0293  0.4242 -0.0091
27990DOD     C327791   1.177   0.781  24.020  0.0420 -0.2932  0.2000
27991DOD     C127792  29.640  16.515  22.820 -0.1079  0.0361  0.4290
27991DOD     C227793  30.016  16.306  22.775 -0.0481 -0.1450  0.1748
27991DOD     C327794  -0.012  15.924  22.805 -0.1785  0.2325 -0.6145
27992DOD     C127795  28.845  14.923  21.892  0.1897  0.0253 -0.1380
27992DOD     C227796  28.925  14.539  21.607  0.2116  0.1603 -0.0729
27992DOD     C327797  28.535  14.391  21.307  0.0029  0.1427 -0.1096
27993DOD     C127798   6.462  14.532  10.742  0.1983  0.0891  0.1746
27993DOD     C227799   6.215  14.746  11.055  0.0132  0.0760  0.1042
27993DOD     C327800   5.836  15.002  11.082 -0.1748 -0.2294 -0.1150
27994DOD     C127801   7.422   0.465  29.289  0.2121  0.4172 -0.1200
27994DOD     C227802   7.353   0.754  28.932  0.1988  0.0735 -0.0684
27994DOD     C327803   7.334   1.026  28.577  0.1041  0.2980 -0.0682
27995DOD     C127804  17.171   8.012  22.905 -0.0603  0.1990 -0.4558
27995DOD     C227805  17.401   8.350  23.177 -0.1012  0.1508  0.3831
27995DOD     C327806  17.457   8.732  23.448 -0.2457  0.0122 -0.1203
27996DOD     C127807  20.155  24.728   1.818 -0.5844 -0.1317  0.3087
27996DOD     C227808  20.402  25.170   1.827  0.0368  0.1865 -0.0971
27996DOD     C327809  20.428  25.514   1.502  0.1216  0.2895  0.0643
27997DOD     C127810   0.587   4.802   8.593  0.0702 -0.2317 -0.3535
27997DOD     C227811   0.894   5.141   8.434  0.2949 -0.0831  0.0424
27997DOD     C327812   1.084   5.449   8.183  0.0207 -0.2405 -0.0162
27998DOD     C127813  20.642   5.305  13.057 -0.0815 -0.2364 -0.1584
27998DOD     C227814  20.746   5.479  13.480  0.0817  0.2733 -0.0658
27998DOD     C327815  21.058   5.754  13.745 -0.0465  0.3774  0.0181
27999DOD     C127816  26.804  23.865  27.819  0.0639 -0.0717 -0.0298
27999DOD     C227817  27.071  23.529  28.039 -0.0325  0.1420 -0.0431
27999DOD     C327818  27.267  23.236  28.301  0.0611  0.0934  0.1275
28000DOD     C127819  30.154  10.166  16.983 -0.0582  0.2581  0.0562
28000DOD     C227820  29.960   9.755  17.178  0.1659 -0.2353  0.2972
28000DOD     C327821  30.220   9.529  17.516  0.0641  0.2329 -0.1599
28001DOD     C127822  19.192  16.980  28.940 -0.0632  0.0130 -0.1893
28001DOD     C227823  19.489  16.609  29.075  0.1193 -0.1076  0.0617
28001DOD     C327824  19.787  16.346  29.341 -0.1557 -0.2662  0.2778
28002DOD     C127825  15.636  14.132  26.677  0.2373 -0.1193  0.1379
28002DOD     C227826  16.079  14.204  26.530 -0.4670 -0.1970 -0.1450
28002DOD     C327827  16.447  14.132  26.751 -0.0913  0.1432 -0.0781
28003DOD     C127828  27.627  12.055   9.802 -0.1891 -0.0760 -0.1214
28003DOD     C227829  27.904  11.724  10.032 -0.6496 -0.3073 -0.1202
28003DOD     C327830  28.258  11.440  10.213  0.2205  0.0700 -0.0581
28004DOD     C127831  26.944  13.306  12.243 -0.1739  0.1419  0.0366
28004DOD     C227832  27.263  13.543  12.170  0.0167 -0.0899 -0.1218
28004DOD     C327833  27.572  13.885  12.249  0.1848  0.1543 -0.0932
28005DOD     C127834  29.855   1.922   2.212 -0.1512  0.2081  0.0143
28005DOD     C227835  30.119   2.212   2.046 -0.1062  0.1072 -0.1098
28005DOD     C327836   0.193   2.344   1.830 -0.0668 -0.0478 -0.1314
28006DOD     C127837  15.256   1.368  26.498  0.1811 -0.3660 -0.2446
28006DOD     C227838  15.177   0.906  26.556  0.0649 -0.0425 -0.3483
28006DOD     C327839  14.823   0.582  26.573 -0.1793 -0.1706  0.0491
28007DOD     C127840  13.387  12.388  17.809 -0.2290 -0.0331 -0.0430
28007DOD     C227841  12.892  12.487  18.031 -0.1994  0.0657  0.1648
28007DOD     C327842  12.833  12.402  18.525 -0.1413  0.0499 -0.1097
28008DOD     C127843  14.459  14.760  23.293  0.0642  0.1381 -0.2071
28008DOD     C227844  14.409  15.139  23.497  0.0355 -0.4560 -0.1241
28008DOD     C327845  14.464  15.625  23.443 -0.0133 -0.1781  0.2137
28009DOD     C127846  18.982  13.548  21.288 -0.1687 -0.1414  0.0024
28009DOD     C227847  19.275  13.699  21.014 -0.0998  0.0690 -0.0127
28009DOD     C327848  19.629  13.847  20.811 -0.1191  0.0475  0.0021
28010DOD     C127849  23.011  24.711  24.614 -0.1690  0.1364 -0.1436
28010DOD     C227850  22.661  24.688  24.895  0.2719 -0.1778  0.1521
28010DOD     C327851  22.295  24.877  25.065  0.0332  0.1903 -0.2354
28011DOD     C127852  24.873   9.554   0.249  0.2808  0.3525  0.0423
28011DOD     C227853  24.993   9.724   0.635  0.1931  0.0930 -0.2262
28011DOD     C327854  25.061   9.712   1.077 -0.0467  0.0946 -0.2655
28012DOD     C127855   0.551   0.068  22.083  0.0077  0.0232  0.0753
28012DOD     C227856   0.153   0.203  22.271 -0.1713 -0.1490  0.2404
28012DOD     C327857  30.019   0.138  22.357  0.0606 -0.1035 -0.2629
28013DOD     C127858  13.064  29.303  19.129  0.0701 -0.0191 -0.0168
28013DOD     C227859  12.666  29.506  19.226  0.0181  0.2554 -0.1490
28013DOD     C327860  12.213  29.669  19.349  0.2965 -0.0894  0.1092
28014DOD     C127861  19.121  24.567   7.682 -0.1291 -0.0753 -0.0443
28014DOD     C227862  19.055  24.981   7.956  0.2176 -0.0523 -0.0807
28014DOD     C327863  18.891  25.273   8.257 -0.5860 -0.2251 -0.1345
28015DOD     C127864   4.209  29.865  13.008 -0.1599  0.1509  0.0815
28015DOD     C227865   4.451  29.600  12.695 -0.0991 -0.1245  0.0444
28015DOD     C327866   4.417  29.459  12.258 -0.0989  0.0335  0.3613
28016DOD     C127867  27.077   4.224  26.229  0.1806  0.2249  0.0479
28016DOD     C227868  27.455   4.064  25.968  0.1266 -0.1738  0.2841
28016DOD     C327869  27.642   4.351  25.657 -0.0277 -0.1349  0.1291
28017DOD     C127870  19.278  11.128  17.262 -0.0289 -0.0997  0.0567
28017DOD     C227871  19.047  11.276  17.659 -0.1753 -0.0545 -0.0316
28017DOD     C327872  18.584  11.259  17.761  0.1822  0.0856 -0.1625
28018DOD     C127873   5.719   2.323   2.019  0.3382 -0.1664  0.2402
28018DOD     C227874   6.008   1.965   2.204  0.1226 -0.1476 -0.1701
28018DOD     C327875   6.228   1.684   2.504 -0.2115 -0.0052  0.1210
28019DOD     C127876  24.457  15.703   9.611 -0.0249  0.3891 -0.2178
28019DOD     C227877  24.149  15.942   9.875 -0.0382  0.0142 -0.1587
28019DOD     C327878  24.215  16.196  10.266  0.1032 -0.2731  0.1687
28020DOD     C127879  28.631   0.188  21.144 -0.0323  0.0373  0.0959
28020DOD     C227880  28.757  30.204  21.482  0.2475 -0.4760  0.2242
28020DOD     C327881  28.812  30.146  21.924  0.2459 -0.2446  0.2567
28021DOD     C127882   9.771   8.840   7.619  0.0381 -0.0670 -0.2471
28021DOD     C227883   9.757   8.760   7.189 -0.1309  0.1140 -0.0576
28021DOD     C327884  10.068   8.634   6.801  0.1228  0.1000 -0.1890
28022DOD     C127885  17.841  16.271   1.273 -0.1071  0.3764 -0.1460
28022DOD     C227886  17.494  16.090   1.055  0.3393  0.3227  0.0441
28022DOD     C327887  17.066  15.983   0.968  0.0966  0.3969  0.2341
28023DOD     C127888   0.325  25.362  21.403  0.0801  0.1122 -0.1615
28023DOD     C227889   0.579  25.067  21.629  0.1300 -0.1978  0.0808
28023DOD     C327890   0.373  24.735  21.873 -0.5119  0.0346 -0.1031
28024DOD     C127891   8.764  24.333  19.424  0.1155  0.1516 -0.1478
28024DOD     C227892   9.057  24.359  19.092  0.1234  0.2109  0.0594
28024DOD     C327893   9.516  24.525  18.955  0.2051  0.0839  0.1227
28025DOD     C127894   1.148  16.161  19.322 -0.2590 -0.0922 -0.0053
28025DOD     C227895   1.523  16.431  19.412  0.0707 -0.4503  0.2278
28025DOD     C327896   1.951  16.247  19.536  0.1641 -0.3541 -0.0591
28026DOD     C127897   5.969  19.276   0.429  0.0317 -0.2029  0.0833
28026DOD     C227898   6.453  19.184   0.332 -0.3012  0.1312 -0.1184
28026DOD     C327899   6.682  18.807   0.298  0.2173 -0.0217  0.0636
28027DOD     C127900  14.018   6.944  18.163 -0.1446  0.2170 -0.0246
28027DOD     C227901  13.837   6.662  17.817  0.0818  0.0577 -0.1751
28027DOD     C327902  14.227   6.528  17.505  0.0214  0.0522  0.2201
28028DOD     C127903  24.050  20.744  11.921  0.0262  0.0767  0.3327
28028DOD     C227904  24.361  20.861  11.577 -0.0306  0.1745 -0.1362
28028DOD     C327905  24.652  21.119  11.297  0.0997 -0.0692  0.0867
28029DOD     C127906  20.416  12.113  30.254 -0.0424 -0.0901  0.2507
28029DOD     C227907  20.213  12.501  30.199 -0.0056  0.0742  0.4932
28029DOD     C327908  20.037  12.933  30.132 -0.0839  0.0466  0.0360
28030DOD     C127909  25.628  15.672   4.181 -0.3907 -0.1501  0.0820
28030DOD     C227910  25.761  15.215   4.052  0.4348 -0.0659  0.3012
28030DOD     C327911  25.989  14.861   3.884 -0.1192 -0.0292  0.0968
28031DOD     C127912   8.195  15.754  10.930 -0.0943 -0.1504 -0.1554
28031DOD     C227913   7.918  15.411  10.922  0.0564  0.1410 -0.1376
28031DOD     C327914   7.500  15.166  10.838 -0.1567 -0.0829  0.0263
28032DOD     C127915  28.591  13.384  25.671 -0.0061 -0.1031 -0.0964
28032DOD     C227916  28.817  13.244  25.297  0.1844  0.1197  0.1310
28032DOD     C327917  29.089  12.884  25.151  0.2680 -0.2407 -0.4160
28033DOD     C127918   6.055  14.221  13.466  0.1155  0.0951  0.1154
28033DOD     C227919   5.981  14.618  13.653  0.4486 -0.1858  0.5197
28033DOD     C327920   5.814  14.762  14.091  0.0580  0.2271 -0.0902
28034DOD     C127921  28.552   9.516  24.590  0.2052 -0.1090  0.2798
28034DOD     C227922  28.865   9.823  24.618 -0.1058  0.0433 -0.0952
28034DOD     C327923  29.297   9.875  24.571 -0.1876 -0.0157 -0.0523
28035DOD     C127924   7.467  17.737   9.324  0.0928  0.0451  0.0780
28035DOD     C227925   7.135  17.782   8.991 -0.2760 -0.2747  0.0187
28035DOD     C327926   6.725  17.629   8.893 -0.1006 -0.0034  0.0089
28036DOD     C127927  26.432   2.984  14.291  0.0726 -0.0872  0.0016
28036DOD     C227928  26.286   3.409  14.406  0.0609  0.1460  0.1544
28036DOD     C327929  26.084   3.736  14.664 -0.3738 -0.0293  0.2278
28037DOD     C127930  16.733  10.748   6.026  0.1106 -0.2474  0.0385
28037DOD     C227931  16.663  10.626   6.466 -0.1127  0.1881  0.0903
28037DOD     C327932  16.419  10.586   6.817 -0.0561  0.1981  0.1657
28038DOD     C127933  11.149   1.811   8.764  0.2547 -0.0329  0.1124
28038DOD     C227934  11.158   2.074   8.322 -0.1307  0.0346  0.1154
28038DOD     C327935  11.419   2.337   8.023 -0.1803 -0.0020  0.2368
28039DOD     C127936   7.454  29.193  26.979  0.1455  0.1521  0.1552
28039DOD     C227937   7.675  28.835  26.800 -0.0019  0.2155  0.1138
28039DOD     C327938   8.028  28.628  26.916  0.3881 -0.0780  0.0808
28040DOD     C127939   1.615  17.464   2.865 -0.2714  0.2387 -0.2689
28040DOD     C227940   1.597  17.538   3.328 -0.0852 -0.0571  0.0912
28040DOD     C327941   1.956  17.729   3.543  0.0728 -0.0323  0.3907
28041DOD     C127942   0.719   1.104  12.025  0.0772 -0.0534 -0.0173
28041DOD     C227943   0.424   1.121  12.376 -0.0739  0.1279 -0.0273
28041DOD     C327944   0.361   1.061  12.844 -0.0765  0.5003  0.1545
28042DOD     C127945  17.637   2.376  14.635 -0.1266  0.3663  0.3616
28042DOD     C227946  17.389   2.382  15.027  0.0591  0.1012 -0.0513
28042DOD     C327947  17.447   2.292  15.503  0.0638 -0.0694 -0.2717
28043DOD     C127948   0.243  26.057  13.820 -0.0182  0.4461 -0.0195
28043DOD     C227949   0.704  26.233  13.946 -0.0879  0.0520  0.1270
28043DOD     C327950   1.064  26.495  13.798 -0.0497  0.1860 -0.0853
28044DOD     C127951  24.568  18.778  11.233 -0.4611 -0.0157 -0.1428
28044DOD     C227952  24.718  18.364  11.454  0.0359 -0.3028  0.4634
28044DOD     C327953  24.536  17.962  11.676 -0.0809 -0.0553 -0.0169
28045DOD     C127954  14.656  29.120   1.494  0.4050  0.3170 -0.0601
28045DOD     C227955  14.268  29.051   1.205  0.1604  0.0445 -0.1104
28045DOD     C327956  13.904  29.094   0.850  0.1160 -0.2906  0.3649
28046DOD     C127957   1.866   0.626  11.149  0.0198 -0.1524  0.4115
28046DOD     C227958   2.136   0.966  10.971  0.1041  0.0067  0.1514
28046DOD     C327959   2.225   1.378  11.037 -0.0650  0.0465  0.1960
28047DOD     C127960  18.216  22.851   9.801 -0.0990 -0.0225  0.2868
28047DOD     C227961  18.086  23.053   9.413 -0.0693  0.1045  0.2349
28047DOD     C327962  17.713  23.209   9.169  0.0156 -0.0545  0.1581
28048DOD     C127963  28.170   6.484   0.588 -0.1283  0.1900 -0.0366
28048DOD     C227964  28.053   6.123   0.744 -0.0377 -0.2326  0.1606
28048DOD     C327965  27.890   5.692   0.881  0.1377 -0.1193 -0.0086
28049DOD     C127966  16.557   0.972   1.729  0.2836 -0.3033  0.1251
28049DOD     C227967  16.876   1.307   1.593  0.1302  0.2094 -0.1106
28049DOD     C327968  16.910   1.576   1.178  0.1591 -0.3114 -0.0311
28050DOD     C127969  25.173   7.049  29.313 -0.1330 -0.1820  0.4147
28050DOD     C227970  25.621   7.228  29.222  0.2004 -0.0070  0.0271
28050DOD     C327971  26.083   7.212  29.046 -0.1441  0.0437 -0.1143
28051DOD     C127972  21.940   3.277  29.603 -0.0463  0.2309  0.3947
28051DOD     C227973  21.882   2.808  29.604 -0.0372 -0.2367 -0.0518
28051DOD     C327974  21.864   2.380  29.716  0.1453 -0.1991  0.3230
28052DOD     C127975  13.978  22.738  12.260  0.0772 -0.1833  0.0538
28052DOD     C227976  14.421  22.869  12.411 -0.2415  0.1453  0.2077
28052DOD     C327977  14.883  22.836  12.224 -0.0689 -0.2121  0.3174
28053DOD     C127978   6.550  29.019   3.619 -0.2540 -0.0318 -0.1447
28053DOD     C227979   7.007  29.100   3.555  0.4925  0.1761 -0.0393
28053DOD     C327980   7.429  29.055   3.321  0.3152 -0.2944  0.0890
28054DOD     C127981  18.031  11.437   3.326  0.1279  0.2363 -0.0445
28054DOD     C227982  18.117  11.667   3.726  0.1538  0.0897 -0.1620
28054DOD     C327983  17.862  12.066   3.806 -0.0790  0.2093 -0.0861
28055DOD     C127984   7.052  22.056   0.248  0.1173 -0.0839 -0.0926
28055DOD     C227985   6.735  21.792  30.311  0.1075 -0.0375  0.0170
28055DOD     C327986   6.671  21.778  29.852 -0.3167 -0.2617  0.1045
28056DOD     C127987  17.270  19.735   3.550 -0.3540 -0.0883 -0.0981
28056DOD     C227988  16.940  20.049   3.374  0.1655  0.0495 -0.3411
28056DOD     C327989  16.535  20.276   3.421 -0.3056  0.4499 -0.1224
28057DOD     C127990   1.743  26.405  12.913 -0.0937 -0.0037 -0.2415
28057DOD     C227991   1.917  26.087  12.682  0.0861  0.0094  0.1371
28057DOD     C327992   2.144  25.769  12.387  0.1698 -0.1874  0.0570
28058DOD     C127993   8.701  13.932  28.839  0.2004 -0.2644  0.1008
28058DOD     C227994   9.006  14.111  29.047 -0.2526 -0.1138  0.0473
28058DOD     C327995   9.366  14.328  28.785 -0.1081 -0.3830  0.0859
28059DOD     C127996  18.836  17.126   8.669 -0.1827 -0.0282  0.0456
28059DOD     C227997  18.816  16.842   9.068  0.0817  0.1146 -0.0726
28059DOD     C327998  19.075  16.713   9.410  0.1811 -0.0342 -0.0159
28060DOD     C127999   8.156  26.253  15.845  0.2224  0.0630  0.0362
28060DOD     C228000   8.354  26.450  15.460 -0.1076  0.0112 -0.2930
28060DOD     C328001   8.352  26.857  15.231 -0.0488  0.1529 -0.1455
28061DOD     C128002  22.045  25.890  14.341 -0.3220  0.1844  0.0762
28061DOD     C228003  21.866  25.515  14.648 -0.1893  0.1561 -0.0347
28061DOD     C328004  21.742  25.044  14.710  0.1376 -0.1957 -0.4024
28062DOD     C128005  12.383   5.475  17.328 -0.0499 -0.1115 -0.1318
28062DOD     C228006  12.203   5.633  17.777 -0.0972  0.0390  0.0565
28062DOD     C328007  11.847   5.816  17.974 -0.0732  0.1918  0.0574
28063DOD     C128008  13.700  12.056  21.617 -0.1058 -0.1573 -0.1260
28063DOD     C228009  13.992  11.699  21.550 -0.0093 -0.2027  0.0287
28063DOD     C328010  14.150  11.486  21.178 -0.4773  0.4540  0.0828
28064DOD     C128011  26.396  17.782  29.221  0.2337 -0.1542  0.0443
28064DOD     C228012  26.052  17.722  28.872  0.0733 -0.0448  0.1078
28064DOD     C328013  25.755  18.080  28.712  0.2648 -0.1183 -0.0019
28065DOD     C128014  19.939  25.397  19.236 -0.1561 -0.2170  0.0705
28065DOD     C228015  20.289  25.173  19.041  0.1365  0.3691  0.1042
28065DOD     C328016  20.537  25.309  18.677  0.0343 -0.1174 -0.0646
28066DOD     C128017   4.135  14.812   4.624 -0.1052  0.0713 -0.0650
28066DOD     C228018   3.763  14.584   4.509 -0.0587  0.0520  0.0363
28066DOD     C328019   3.439  14.231   4.313 -0.0861 -0.2260 -0.1872
28067DOD     C128020   6.560  23.451  26.829  0.2810 -0.0983  0.0522
28067DOD     C228021   6.168  23.567  27.063  0.2713 -0.2050 -0.2877
28067DOD     C328022   6.235  23.434  27.503  0.0557  0.0766  0.2276
28068DOD     C128023  27.406  24.948  25.587 -0.1897 -0.1087 -0.1216
28068DOD     C228024  27.704  25.050  25.223 -0.1117  0.2975  0.0199
28068DOD     C328025  27.681  24.967  24.772  0.1750  0.1000 -0.3275
28069DOD     C128026  26.144  10.569  22.076 -0.2888 -0.3927 -0.3185
28069DOD     C228027  26.117  10.854  22.410 -0.3340 -0.2266  0.0517
28069DOD     C328028  25.843  11.216  22.453  0.0731 -0.1146  0.0407
28070DOD     C128029   3.037  26.436  18.796 -0.0503 -0.0616  0.0427
28070DOD     C228030   2.922  26.232  18.368  0.0026 -0.2297  0.1555
28070DOD     C328031   2.768  26.143  17.983  0.0117  0.3145 -0.0196
28071DOD     C128032   1.761  10.687  21.926 -0.0785 -0.1182 -0.1583
28071DOD     C228033   1.417  10.384  22.051  0.2290 -0.1769 -0.2211
28071DOD     C328034   1.438   9.962  22.276  0.2175  0.0459  0.0180
28072DOD     C128035  22.127  20.377  14.610 -0.1413 -0.0059  0.0114
28072DOD     C228036  22.098  20.704  14.221  0.0093 -0.0343  0.0865
28072DOD     C328037  22.258  20.859  13.823 -0.3998  0.2567 -0.1208
28073DOD     C128038  26.270  28.941  28.295  0.2449  0.0397 -0.1069
28073DOD     C228039  26.185  28.857  27.823  0.0471  0.0449  0.0864
28073DOD     C328040  26.246  28.744  27.358  0.2234 -0.0645 -0.1039
28074DOD     C128041  11.529  18.440  24.290 -0.3546 -0.1500 -0.3527
28074DOD     C228042  11.232  18.093  24.319  0.2618 -0.0038 -0.1497
28074DOD     C328043  10.806  18.208  24.257 -0.0048 -0.0908  0.1908
28075DOD     C128044   2.239  21.789  17.087  0.1368 -0.3559 -0.1195
28075DOD     C228045   2.310  21.397  16.846  0.1404 -0.0464  0.1072
28075DOD     C328046   2.202  21.021  16.617  0.2278 -0.1085 -0.0437
28076DOD     C128047   7.795  12.890  28.685  0.1712 -0.1274  0.2091
28076DOD     C228048   7.638  13.316  28.539  0.4358 -0.0329  0.0401
28076DOD     C328049   7.510  13.718  28.675 -0.0752 -0.0543 -0.2917
28077DOD     C128050  27.567   4.066   6.387 -0.1973  0.1834  0.2622
28077DOD     C228051  27.947   4.219   6.510  0.0619  0.2775 -0.1578
28077DOD     C328052  28.223   4.012   6.812  0.3236  0.0561 -0.2003
28078DOD     C128053  22.414  18.993  25.557  0.2888  0.0912  0.0936
28078DOD     C228054  21.969  18.926  25.388 -0.0648 -0.0603 -0.1139
28078DOD     C328055  21.581  18.648  25.283 -0.0430 -0.0431  0.1196
28079DOD     C128056  14.957  21.654  21.424 -0.0554 -0.4733  0.1297
28079DOD     C228057  15.392  21.756  21.570 -0.0352 -0.1966  0.3124
28079DOD     C328058  15.825  21.634  21.395 -0.4085 -0.1660 -0.2629
28080DOD     C128059  26.180  21.630   6.659  0.2418  0.0775  0.1087
28080DOD     C228060  25.773  21.676   6.926  0.2364  0.1224 -0.0408
28080DOD     C328061  25.326  21.506   6.897 -0.0088 -0.0075 -0.3178
28081DOD     C128062   1.676  -0.012   1.611 -0.2483 -0.3164  0.0491
28081DOD     C228063   1.209  30.307   1.610  0.0699  0.1113 -0.0645
28081DOD     C328064   0.912   0.322   1.450 -0.0868  0.1697 -0.2039
28082DOD     C128065  29.153   0.073   6.450 -0.1365 -0.2839  0.1197
28082DOD     C228066  28.770  30.081   6.500 -0.0852  0.1331  0.1906
28082DOD     C328067  28.411  29.837   6.436  0.2103  0.0281  0.1366
28083DOD     C128068  26.956  13.986  18.719  0.1952 -0.0155  0.0423
28083DOD     C228069  26.962  13.759  19.115 -0.1371 -0.2790 -0.0315
28083DOD     C328070  26.810  13.448  19.459  0.2442 -0.3214  0.1626
28084DOD     C128071   6.904  27.136   2.952  0.0070 -0.1418  0.5011
28084DOD     C228072   6.988  27.302   2.548  0.2075 -0.1858  0.0674
28084DOD     C328073   7.309  27.450   2.272  0.1365 -0.0650  0.0430
28085DOD     C128074   1.231  19.217  11.853 -0.0016 -0.2948  0.4264
28085DOD     C228075   1.096  18.802  11.827  0.0534  0.0881 -0.0452
28085DOD     C328076   1.238  18.386  11.795 -0.1099 -0.1032  0.1850
28086DOD     C128077  11.214  13.105  21.570 -0.1250 -0.1288  0.1142
28086DOD     C228078  11.527  13.222  21.835 -0.1222 -0.1889  0.5619
28086DOD     C328079  11.567  13.368  22.265 -0.1552  0.0093  0.0582
28087DOD     C128080  29.942  24.443  13.416  0.2227 -0.1374  0.0071
28087DOD     C228081  29.600  24.210  13.669  0.1489 -0.2879  0.3963
28087DOD     C328082  29.210  24.089  13.855  0.1379  0.0296  0.2671
28088DOD     C128083   0.859   1.911  15.735  0.1444 -0.0503  0.1575
28088DOD     C228084   0.606   2.279  15.959  0.2872  0.1431 -0.1076
28088DOD     C328085   0.276   2.605  15.870 -0.0007 -0.1263  0.1967
28089DOD     C128086  24.340  12.219  14.861 -0.1394 -0.1090  0.0842
28089DOD     C228087  24.322  11.831  14.627  0.1535  0.0356 -0.1711
28089DOD     C328088  24.481  11.407  14.557 -0.1751  0.1896  0.1803
28090DOD     C128089   0.017  19.533   3.807 -0.1640  0.0227  0.0984
28090DOD     C228090  30.046  19.856   3.660  0.1435 -0.0464  0.0816
28090DOD     C328091  29.533  19.835   3.660  0.0161  0.1648  0.0102
28091DOD     C128092   7.003   6.017  27.520 -0.0956 -0.2385  0.0953
28091DOD     C228093   7.283   6.121  27.157  0.0310 -0.1300  0.1777
28091DOD     C328094   7.226   6.133  26.708 -0.0257  0.0086  0.0951
28092DOD     C128095   1.527   0.429   2.391 -0.2505  0.1370  0.1132
28092DOD     C228096   1.676   0.191   2.768  0.1057 -0.0626 -0.1277
28092DOD     C328097   1.476  30.256   3.134  0.1726  0.1023  0.0491
28093DOD     C128098  12.407   7.310  30.259  0.0250  0.2000 -0.4003
28093DOD     C228099  12.861   7.405  30.010 -0.1232 -0.0718 -0.4523
28093DOD     C328100  13.293   7.574  29.870  0.0188 -0.0747 -0.2699
28094DOD     C128101  17.861  25.632   3.090 -0.4615 -0.1048 -0.3044
28094DOD     C228102  17.793  25.156   3.241  0.0247 -0.0514  0.2684
28094DOD     C328103  17.981  24.735   3.352  0.1780 -0.0397 -0.1217
28095DOD     C128104  28.956   9.710   4.888  0.2729  0.0659 -0.0392
28095DOD     C228105  28.577   9.554   5.034 -0.0112 -0.0331  0.3068
28095DOD     C328106  28.149   9.421   5.177  0.1618  0.4691  0.1474
28096DOD     C128107   6.371  22.136  13.404  0.1518  0.1858 -0.0535
28096DOD     C228108   6.123  22.520  13.529 -0.0013 -0.0101 -0.1077
28096DOD     C328109   6.026  22.578  13.946 -0.0711  0.1485  0.3920
28097DOD     C128110  17.572  27.103   5.873  0.1015 -0.2828  0.1528
28097DOD     C228111  17.950  27.255   5.607  0.1015 -0.0089 -0.0734
28097DOD     C328112  18.301  27.082   5.334 -0.0971  0.1805 -0.0748
28098DOD     C128113   3.616   2.855  16.166 -0.0719 -0.0468  0.0279
28098DOD     C228114   3.525   2.824  15.664 -0.0620 -0.1849  0.0537
28098DOD     C328115   3.514   3.009  15.221 -0.0201 -0.1462 -0.1229
28099DOD     C128116  30.224   9.856  23.698 -0.0157  0.0751  0.1289
28099DOD     C228117   0.385   9.724  23.589  0.0747  0.0626  0.2701
28099DOD     C328118   0.759   9.646  23.443  0.0798  0.0462 -0.2518
28100DOD     C128119  11.052  19.691   7.802 -0.1156 -0.2301 -0.3235
28100DOD     C228120  10.899  19.254   7.949 -0.1737 -0.3372  0.0307
28100DOD     C328121  10.697  18.871   8.106  0.2096  0.1768  0.0363
28101DOD     C128122  16.473  20.760   3.737  0.0016 -0.2960  0.0434
28101DOD     C228123  16.246  20.882   4.115  0.2880 -0.2683  0.3794
28101DOD     C328124  15.954  21.271   4.235  0.0862  0.1974 -0.2156
28102DOD     C128125  16.126  24.726  25.192 -0.1470  0.0716 -0.2739
28102DOD     C228126  15.997  25.198  25.207  0.2348  0.0491 -0.0501
28102DOD     C328127  15.733  25.543  24.992  0.1231 -0.3525 -0.2680
28103DOD     C128128  23.542  28.947   4.029 -0.2315 -0.0828 -0.1676
28103DOD     C228129  23.370  29.356   4.104 -0.2174  0.1696 -0.1212
28103DOD     C328130  23.079  29.570   4.450  0.2914 -0.0670 -0.1356
28104DOD     C128131  19.926  29.508  18.761 -0.1076  0.0389 -0.0210
28104DOD     C228132  20.306  29.375  18.975  0.0302  0.1546  0.2169
28104DOD     C328133  20.503  28.931  19.037  0.1351 -0.1306  0.1517
28105DOD     C128134   4.341  25.753  18.848 -0.1330 -0.0254 -0.0842
28105DOD     C228135   4.651  25.641  19.209 -0.2032 -0.0846 -0.2072
28105DOD     C328136   4.886  25.946  19.443 -0.1182 -0.0518  0.2270
28106DOD     C128137  21.068  14.710  10.798 -0.0530 -0.1260 -0.0556
28106DOD     C228138  21.051  14.971  11.252  0.0114  0.1839  0.0370
28106DOD     C328139  21.197  14.922  11.710  0.0880 -0.1098 -0.1220
28107DOD     C128140  20.021   4.383  25.596  0.0956 -0.0095  0.2100
28107DOD     C228141  19.546   4.253  25.719  0.2673  0.1123  0.4171
28107DOD     C328142  19.173   4.168  25.922 -0.1099  0.2040  0.0362
28108DOD     C128143   4.232   5.494  16.851 -0.2422 -0.0365  0.2599
28108DOD     C228144   3.922   5.607  17.193  0.0869  0.2060 -0.2458
28108DOD     C328145   3.503   5.770  17.412 -0.0261  0.0260  0.2031
28109DOD     C128146  13.027  10.671   4.212  0.0686 -0.0355 -0.1897
28109DOD     C228147  12.656  10.427   4.360 -0.0139 -0.1611 -0.3294
28109DOD     C328148  12.246  10.550   4.679 -0.0242 -0.1325 -0.0476
28110DOD     C128149  20.125  27.839  23.908 -0.1281  0.0853 -0.0237
28110DOD     C228150  19.970  28.155  23.665 -0.4548 -0.1120  0.0492
28110DOD     C328151  19.831  28.474  23.385  0.2607 -0.0617  0.0309
28111DOD     C128152  26.667  25.843  19.559  0.3562 -0.3216 -0.1365
28111DOD     C228153  26.875  26.149  19.817  0.0130 -0.1682 -0.2623
28111DOD     C328154  27.352  26.220  19.867 -0.2394 -0.1058 -0.1675
28112DOD     C128155  24.655  15.804  29.404 -0.1900  0.0995 -0.3603
28112DOD     C228156  24.399  15.835  29.819  0.2342 -0.2534 -0.1690
28112DOD     C328157  24.250  15.866  30.227 -0.0098  0.1378 -0.2143
28113DOD     C128158   0.572  10.036  23.152 -0.1170 -0.1109 -0.1575
28113DOD     C228159   0.220  10.166  23.466 -0.1524 -0.1373 -0.1826
28113DOD     C328160   0.265  10.094  23.941 -0.1975  0.1103  0.0357
28114DOD     C128161   0.577   2.280   1.376 -0.0286 -0.2914  0.4031
28114DOD     C228162   1.022   2.152   1.443  0.1593  0.6240  0.1832
28114DOD     C328163   1.494   2.158   1.456  0.1434  0.0744 -0.1121
28115DOD     C128164   8.199  27.423  27.865 -0.0379 -0.1589  0.0669
28115DOD     C228165   8.640  27.312  27.745  0.0466  0.2292  0.0140
28115DOD     C328166   8.872  26.945  27.704  0.4212  0.0906  0.1963
28116DOD     C128167  22.571  28.604  23.744  0.3007  0.1247  0.1414
28116DOD     C228168  22.941  28.758  23.606 -0.4679 -0.0449 -0.0171
28116DOD     C328169  23.146  28.694  23.197  0.3326 -0.1941  0.0523
28117DOD     C128170   7.077  23.536  25.511 -0.0286  0.0768  0.0978
28117DOD     C228171   7.199  23.266  25.171 -0.1943  0.3400  0.0808
28117DOD     C328172   7.012  23.080  24.784 -0.1037  0.0873  0.0983
28118DOD     C128173  11.025  22.655   4.302  0.0583  0.2892  0.2682
28118DOD     C228174  10.616  22.814   4.368 -0.0025 -0.1683 -0.2679
28118DOD     C328175  10.135  22.774   4.291  0.0089 -0.1926  0.1006
28119DOD     C128176   2.155  10.461  24.752  0.0100 -0.0576  0.0990
28119DOD     C228177   2.625  10.291  24.898 -0.1219 -0.1207  0.3764
28119DOD     C328178   2.764  10.062  25.220 -0.1976  0.1732 -0.0104
28120DOD     C128179   2.010  20.996  21.991 -0.2800 -0.1238 -0.3488
28120DOD     C228180   2.125  20.590  21.791  0.1024 -0.2809  0.0492
28120DOD     C328181   2.014  20.362  21.369 -0.4696  0.1768 -0.0434
28121DOD     C128182   1.406  28.337   4.334 -0.1356  0.1588  0.0065
28121DOD     C228183   1.091  28.504   4.614  0.1765 -0.0409  0.1127
28121DOD     C328184   0.780  28.763   4.910  0.0913 -0.1262 -0.1540
28122DOD     C128185  19.103  18.290  22.948  0.1674  0.2973 -0.0024
28122DOD     C228186  19.127  17.873  22.710  0.2215  0.0679  0.3041
28122DOD     C328187  19.310  17.603  22.356 -0.2706 -0.0287 -0.1735
28123DOD     C128188   9.407  20.310  20.383 -0.3798  0.0366  0.0618
28123DOD     C228189   9.526  19.999  20.775 -0.0249 -0.1327  0.2655
28123DOD     C328190   9.828  19.724  20.893 -0.5927 -0.0153 -0.0805
28124DOD     C128191   7.910  20.942  12.794 -0.0903 -0.0643  0.0146
28124DOD     C228192   7.472  21.025  12.759 -0.0577 -0.1833  0.3330
28124DOD     C328193   7.114  21.231  12.511 -0.0599 -0.0435 -0.0457
28125DOD     C128194  21.245  24.484  28.816  0.0818 -0.0444  0.1421
28125DOD     C228195  21.411  24.841  28.545  0.3370  0.2005 -0.1877
28125DOD     C328196  21.667  25.203  28.474 -0.1357  0.2221 -0.0636
28126DOD     C128197  12.424  23.206  28.958 -0.1580  0.0065  0.0107
28126DOD     C228198  12.762  22.891  28.997 -0.3383  0.0044 -0.1940
28126DOD     C328199  13.118  22.681  29.261  0.2665  0.0363  0.1843
28127DOD     C128200   8.648  25.977   7.842 -0.0362  0.0586  0.1173
28127DOD     C228201   9.042  26.113   7.928  0.0790 -0.0742  0.1393
28127DOD     C328202   9.244  26.402   8.109 -0.1592 -0.1097 -0.0739
28128DOD     C128203  20.569   7.637   1.331 -0.0128 -0.2714  0.2381
28128DOD     C228204  20.505   7.602   1.793 -0.0857 -0.4690  0.0631
28128DOD     C328205  20.585   7.810   2.214  0.0712  0.2767  0.0604
28129DOD     C128206  24.948   7.245   8.672  0.0018 -0.1964 -0.2144
28129DOD     C228207  25.329   7.245   8.404 -0.2692  0.2140  0.3088
28129DOD     C328208  25.606   6.959   8.170 -0.1241 -0.0012 -0.0991
28130DOD     C128209   6.444  15.140  19.776 -0.3841 -0.0565  0.1600
28130DOD     C228210   6.423  15.185  19.328  0.1097  0.0541  0.0316
28130DOD     C328211   6.750  15.448  19.157 -0.0598  0.1590 -0.1964
28131DOD     C128212  29.695  11.256  11.398  0.1657 -0.1229  0.0232
28131DOD     C228213  29.367  11.221  11.811  0.1826  0.1438 -0.2086
28131DOD     C328214  28.872  11.130  11.817 -0.1649 -0.1300 -0.0376
28132DOD     C128215  25.898  25.128   7.236  0.0170  0.2507  0.3531
28132DOD     C228216  25.741  24.797   7.553 -0.0284 -0.1620 -0.0269
28132DOD     C328217  25.751  24.668   7.983 -0.0201 -0.1545  0.2082
28133DOD     C128218  27.564  18.090   4.173 -0.2419  0.2242 -0.1253
28133DOD     C228219  27.916  17.918   3.872  0.3508 -0.0176 -0.0831
28133DOD     C328220  28.102  17.553   3.781  0.1214 -0.1370  0.1738
28134DOD     C128221  29.785   0.514  23.322 -0.1772 -0.1601 -0.4560
28134DOD     C228222  29.453   0.268  23.066  0.0817  0.0361 -0.0652
28134DOD     C328223  29.338  30.149  23.015  0.0871  0.3149 -0.1312
28135DOD     C128224   9.843  10.632  27.459 -0.0977  0.0176  0.1379
28135DOD     C228225  10.076  11.049  27.378  0.3659 -0.1285 -0.3355
28135DOD     C328226  10.419  11.355  27.346  0.1057 -0.1998  0.3455
28136DOD     C128227  25.009   5.119  26.338 -0.3200  0.3864  0.0358
28136DOD     C228228  24.787   5.204  26.731  0.0802  0.2835 -0.3046
28136DOD     C328229  24.517   5.310  27.173  0.1500  0.0533  0.2221
28137DOD     C128230   4.785   9.157  11.201  0.3449  0.0249  0.0122
28137DOD     C228231   4.553   9.581  11.390  0.1573 -0.0796 -0.2584
28137DOD     C328232   4.205   9.835  11.437 -0.0734 -0.1382 -0.1588
28138DOD     C128233   9.439  10.860  22.434 -0.2268  0.1465 -0.1556
28138DOD     C228234   9.644  11.015  22.747  0.1042 -0.1995  0.1049
28138DOD     C328235   9.710  11.084  23.183 -0.3387 -0.0175  0.0079
28139DOD     C128236  22.697  17.961   7.424  0.0462 -0.0636  0.1236
28139DOD     C228237  22.892  17.899   7.024 -0.0267 -0.1430  0.2254
28139DOD     C328238  23.245  17.745   6.697 -0.2397 -0.3386  0.1133
28140DOD     C128239  29.729  18.718   6.275  0.0321  0.2301  0.1907
28140DOD     C228240  29.453  18.818   6.610 -0.2200 -0.2145  0.1325
28140DOD     C328241  29.064  18.896   6.817  0.0876  0.1073 -0.0599
28141DOD     C128242  20.081  18.598  22.110 -0.2009  0.2538  0.1022
28141DOD     C228243  19.663  18.476  22.164 -0.2910  0.3582 -0.3820
28141DOD     C328244  19.263  18.744  22.116  0.0152 -0.0036 -0.0947
28142DOD     C128245  14.228   3.062   9.717  0.0482 -0.1965 -0.2269
28142DOD     C228246  13.790   3.083   9.659 -0.3056  0.4192 -0.1368
28142DOD     C328247  13.317   3.139   9.774  0.1541  0.0270 -0.1051
28143DOD     C128248   9.525   1.017   3.344 -0.1990 -0.0423 -0.0457
28143DOD     C228249   9.084   1.009   3.201 -0.1601 -0.1936  0.0262
28143DOD     C328250   8.885   0.739   2.882 -0.0587 -0.1506 -0.0383
28144DOD     C128251  17.513  19.349  24.801 -0.3055  0.4216  0.0813
28144DOD     C228252  17.251  18.906  24.676 -0.0205  0.1029  0.3393
28144DOD     C328253  16.990  18.484  24.686 -0.3457 -0.1607  0.0953
28145DOD     C128254   3.881  18.782  21.904 -0.0390 -0.3941 -0.1449
28145DOD     C228255   3.775  18.763  21.451  0.1585 -0.4080  0.0198
28145DOD     C328256   3.907  18.570  21.087 -0.1290  0.3117 -0.0198
28146DOD     C128257   6.827  10.522   4.611 -0.0555 -0.0322 -0.1447
28146DOD     C228258   6.457  10.740   4.691 -0.1670  0.0830  0.2200
28146DOD     C328259   6.153  10.735   5.067 -0.2049 -0.1358  0.2902
28147DOD     C128260   8.402  26.009  10.338 -0.2362 -0.3212 -0.0594
28147DOD     C228261   8.387  26.396  10.517 -0.1585 -0.0079  0.0718
28147DOD     C328262   8.034  26.706  10.444  0.1475  0.1955 -0.0640
28148DOD     C128263  29.516  12.292  29.172  0.0946  0.4842  0.2292
28148DOD     C228264  29.448  12.397  28.722  0.0502  0.0989 -0.1810
28148DOD     C328265  29.323  12.095  28.384 -0.1804  0.1717 -0.1870
28149DOD     C128266  21.029   9.874   9.203 -0.2294 -0.0044  0.0173
28149DOD     C228267  20.754  10.046   8.884 -0.3957  0.3701  0.1896
28149DOD     C328268  20.349  10.030   8.673  0.0085 -0.3436 -0.1444
28150DOD     C128269   2.177   7.258  25.542  0.2217  0.0507 -0.2614
28150DOD     C228270   2.089   7.709  25.695  0.0199 -0.2080  0.2528
28150DOD     C328271   1.721   7.672  26.013 -0.0394  0.3627 -0.2678
28151DOD     C128272  13.775  23.753   2.875  0.0106  0.2244 -0.1239
28151DOD     C228273  13.741  23.450   3.261  0.3815 -0.1895 -0.1559
28151DOD     C328274  13.498  23.482   3.603  0.1929  0.0345  0.0412
28152DOD     C128275  11.284  14.048  24.734 -0.1877 -0.1635 -0.0206
28152DOD     C228276  11.546  14.240  25.051 -0.1877  0.1561 -0.0062
28152DOD     C328277  11.619  14.495  25.416 -0.0118 -0.0341 -0.3055
28153DOD     C128278  22.662  22.026   5.214  0.0247  0.0154  0.1893
28153DOD     C228279  22.546  22.288   5.565  0.0449  0.2803 -0.1667
28153DOD     C328280  22.762  22.653   5.808 -0.0815 -0.1333 -0.1607
28154DOD     C128281   8.859   9.109  23.885  0.1014  0.1786 -0.2069
28154DOD     C228282   8.688   9.399  23.597  0.0167  0.2126 -0.2063
28154DOD     C328283   8.349   9.762  23.495  0.1601 -0.0832  0.1836
28155DOD     C128284   6.269   6.682  14.092  0.0580  0.0688 -0.0844
28155DOD     C228285   6.361   6.774  13.641 -0.1738  0.2512 -0.0995
28155DOD     C328286   6.484   7.168  13.476  0.1191  0.0339 -0.0097
28156DOD     C128287  27.989  15.632  28.908 -0.2328 -0.0109  0.2128
28156DOD     C228288  28.381  15.647  29.196 -0.2293  0.1307 -0.2643
28156DOD     C328289  28.828  15.863  29.155  0.0052 -0.2655 -0.0496
28157DOD     C128290   0.305   4.639   4.577 -0.1137 -0.1511 -0.0001
28157DOD     C228291   0.556   4.446   4.938 -0.4152  0.1562  0.0274
28157DOD     C328292   0.423   4.104   5.221 -0.1876  0.2723 -0.1195
28158DOD     C128293   3.071   5.653   0.102  0.0747 -0.4126 -0.1741
28158DOD     C228294   3.080   5.990  30.138 -0.2312  0.3562  0.0833
28158DOD     C328295   3.074   6.369  29.879 -0.1897 -0.0922  0.1708
28159DOD     C128296   1.358   5.551   3.460  0.2422 -0.0439  0.3152
28159DOD     C228297   1.527   5.485   3.016 -0.0293 -0.0009  0.1834
28159DOD     C328298   1.702   5.217   2.709  0.0825 -0.1299  0.2153
28160DOD     C128299  10.408  16.591  15.991 -0.2915 -0.1861  0.1056
28160DOD     C228300  10.385  16.128  16.177 -0.0725  0.0243  0.1035
28160DOD     C328301   9.963  15.865  16.253 -0.1797 -0.1648  0.1028
28161DOD     C128302  28.902   3.484  28.890  0.1283  0.2297 -0.2268
28161DOD     C228303  28.494   3.598  28.692 -0.0232  0.2244  0.2427
28161DOD     C328304  28.198   3.464  28.374  0.1010  0.1602  0.1700
28162DOD     C128305   2.741  10.930  11.876  0.2160 -0.2145 -0.2361
28162DOD     C228306   2.862  10.856  12.337  0.0682 -0.0074 -0.1295
28162DOD     C328307   2.844  10.394  12.565 -0.3761  0.2163  0.5092
28163DOD     C128308  22.710  18.528  29.188 -0.1130 -0.3068  0.1503
28163DOD     C228309  22.259  18.488  29.083  0.1209 -0.0147  0.3660
28163DOD     C328310  22.025  18.194  28.809  0.0141 -0.3760  0.1006
28164DOD     C128311  20.453  10.322  21.070  0.0515 -0.1300 -0.0240
28164DOD     C228312  19.987  10.363  20.951 -0.0747  0.1882  0.0226
28164DOD     C328313  19.691  10.586  21.215 -0.0864 -0.2096  0.1100
28165DOD     C128314   1.646  22.783  28.303  0.0746  0.1551 -0.2219
28165DOD     C228315   1.433  23.157  28.190  0.2808 -0.2124  0.3940
28165DOD     C328316   1.022  23.343  28.358  0.1725 -0.0818 -0.1101
28166DOD     C128317  24.371   9.686  30.276  0.1710  0.2293 -0.0258
28166DOD     C228318  24.428   9.367   0.231 -0.2341  0.1824 -0.0237
28166DOD     C328319  24.766   9.119   0.424 -0.1026  0.0916 -0.1624
28167DOD     C128320   0.654  28.383   7.354 -0.1789 -0.0937  0.0899
28167DOD     C228321   1.117  28.224   7.207 -0.0976 -0.3932 -0.1232
28167DOD     C328322   1.472  27.967   7.347 -0.0085  0.0365  0.0262
28168DOD     C128323   2.084   5.197  19.705  0.3244  0.0594  0.3439
28168DOD     C228324   1.805   5.332  19.358  0.3601  0.4223  0.0671
28168DOD     C328325   1.739   5.747  19.262 -0.1021 -0.2020  0.1680
28169DOD     C128326   2.157  18.101   3.997 -0.2100  0.1403  0.3270
28169DOD     C228327   2.536  18.199   4.233  0.1700 -0.1357  0.2723
28169DOD     C328328   2.809  17.902   4.445  0.0210 -0.1966  0.1015
28170DOD     C128329   5.564   6.677   0.137 -0.1742  0.0161 -0.0308
28170DOD     C228330   5.729   6.269   0.344 -0.0078 -0.2717  0.0686
28170DOD     C328331   5.925   5.879   0.524 -0.1955 -0.2321 -0.0764
28171DOD     C128332   8.520  22.176  17.078 -0.0756 -0.0608  0.1046
28171DOD     C228333   9.005  22.011  17.022 -0.0043  0.1122 -0.0132
28171DOD     C328334   9.340  21.834  16.806 -0.0810 -0.0233 -0.2729
28172DOD     C128335  19.183  10.218  19.004 -0.1252  0.3881 -0.2002
28172DOD     C228336  19.027  10.664  18.807 -0.2390 -0.0350 -0.0862
28172DOD     C328337  19.079  10.943  18.403  0.0823 -0.2156 -0.0750
28173DOD     C128338   2.116  20.557   9.436  0.1096  0.0608  0.0734
28173DOD     C228339   1.996  20.237   9.039  0.0688  0.0771 -0.2752
28173DOD     C328340   2.036  20.057   8.579  0.2362 -0.1008 -0.1724
28174DOD     C128341  28.377  24.222  21.844  0.0254  0.3529  0.1574
28174DOD     C228342  28.072  24.591  21.960 -0.2557  0.0948 -0.3897
28174DOD     C328343  27.745  24.856  21.760 -0.0773  0.0070  0.0251
28175DOD     C128344   7.287  30.185  15.107 -0.0190 -0.1764 -0.0132
28175DOD     C228345   7.710  30.237  14.844  0.1502 -0.3931 -0.0505
28175DOD     C328346   8.163  30.227  15.072 -0.1337 -0.2063  0.2952
28176DOD     C128347  28.162   2.774   0.096  0.0198 -0.2514 -0.1878
28176DOD     C228348  28.542   3.069   0.167 -0.1704 -0.3164 -0.2026
28176DOD     C328349  28.679   3.432  30.303  0.2411 -0.0186 -0.1164
28177DOD     C128350  20.860  22.204   4.600 -0.0992 -0.0212 -0.0819
28177DOD     C228351  20.754  21.977   4.992  0.0300 -0.1054  0.3294
28177DOD     C328352  20.906  21.693   5.350  0.2295  0.0173  0.1409
28178DOD     C128353  27.209  14.983  13.714  0.1895 -0.1116 -0.1604
28178DOD     C228354  26.844  14.967  13.460 -0.1561 -0.1659 -0.0089
28178DOD     C328355  26.468  15.118  13.163 -0.2406 -0.0697 -0.4902
28179DOD     C128356  25.569  16.131  20.017  0.1344 -0.0797 -0.2591
28179DOD     C228357  25.658  16.094  19.620 -0.0022  0.1781  0.1750
28179DOD     C328358  25.792  16.196  19.199 -0.1850 -0.0212  0.0066
28180DOD     C128359   7.758  20.698   3.801 -0.1194 -0.0420  0.5499
28180DOD     C228360   7.554  21.118   3.734 -0.1601  0.0624 -0.1181
28180DOD     C328361   7.320  21.508   3.538 -0.1314 -0.0300 -0.2868
28181DOD     C128362  12.023   3.750  23.480 -0.1443  0.0920 -0.0545
28181DOD     C228363  11.580   3.670  23.242  0.1129 -0.3020  0.0999
28181DOD     C328364  11.074   3.569  23.179  0.2159  0.1048 -0.0295
28182DOD     C128365  25.775   4.604  14.129 -0.2392 -0.2326  0.4551
28182DOD     C228366  25.674   5.060  14.266  0.0495 -0.1256 -0.0758
28182DOD     C328367  25.855   5.458  14.229  0.2416  0.1706  0.1764
28183DOD     C128368   3.746  10.923   9.033  0.2074  0.2890 -0.2995
28183DOD     C228369   4.040  10.690   9.331 -0.0430 -0.2427 -0.2805
28183DOD     C328370   4.456  10.798   9.500  0.1568 -0.0236  0.1899
28184DOD     C128371   4.393  16.532  29.399  0.0024 -0.2188 -0.1096
28184DOD     C228372   4.727  16.261  29.219 -0.1752  0.0614 -0.0917
28184DOD     C328373   5.061  16.022  29.022 -0.0221  0.2090  0.0365
28185DOD     C128374  11.035  27.639  28.233  0.2868 -0.0055 -0.0271
28185DOD     C228375  10.704  27.909  28.488 -0.3608 -0.5097 -0.2455
28185DOD     C328376  10.234  27.957  28.583 -0.2717 -0.1889 -0.1331
28186DOD     C128377   2.792   1.716   6.132 -0.1165 -0.1372 -0.0066
28186DOD     C228378   2.449   1.331   6.056  0.0629  0.2368 -0.1169
28186DOD     C328379   2.180   1.035   5.744  0.0227  0.5615 -0.0162
28187DOD     C128380  11.497  13.567   5.539 -0.0924  0.3418 -0.1820
28187DOD     C228381  11.689  13.868   5.829  0.1363 -0.1271  0.1040
28187DOD     C328382  11.527  14.048   6.231  0.0840 -0.1266  0.0812
28188DOD     C128383  29.615  12.546   6.187 -0.2382 -0.1299 -0.2312
28188DOD     C228384  29.540  12.484   6.652  0.0712 -0.3531  0.0136
28188DOD     C328385  29.778  12.470   7.053  0.3029 -0.0499 -0.1551
28189DOD     C128386  15.244  16.414   5.469 -0.1877  0.0096 -0.0056
28189DOD     C228387  15.487  16.689   5.754 -0.0390 -0.0831 -0.2114
28189DOD     C328388  15.599  16.871   6.204  0.0623 -0.1397  0.3341
28190DOD     C128389   1.714  24.737  13.327 -0.1187 -0.1439  0.1685
28190DOD     C228390   1.951  24.553  13.712 -0.0770  0.0639 -0.2036
28190DOD     C328391   2.373  24.499  13.813 -0.2104 -0.1741  0.3849
28191DOD     C128392   9.425   5.620  12.582 -0.0049 -0.1608 -0.2543
28191DOD     C228393   9.080   5.750  12.836 -0.1855  0.1999  0.1346
28191DOD     C328394   8.716   5.840  12.554 -0.0874  0.0747  0.0755
28192DOD     C128395  17.400  11.806   2.985 -0.0780 -0.2544  0.0007
28192DOD     C228396  17.372  12.142   2.611 -0.0184  0.0941 -0.0062
28192DOD     C328397  17.254  12.410   2.267 -0.0708 -0.0020  0.1019
28193DOD     C128398  27.299   9.761  21.170 -0.1480  0.4701 -0.1282
28193DOD     C228399  27.215   9.309  21.218  0.2469  0.1653  0.2933
28193DOD     C328400  26.998   8.904  21.234 -0.0105 -0.0548  0.1579
28194DOD     C128401  22.285  13.483  12.731  0.0506  0.0482  0.1150
28194DOD     C228402  22.789  13.517  12.616  0.1208  0.1080  0.1231
28194DOD     C328403  23.211  13.336  12.487 -0.2086  0.1519 -0.0246
28195DOD     C128404  26.312   3.694  12.358 -0.0104  0.1271 -0.0728
28195DOD     C228405  26.525   3.439  12.013 -0.1547 -0.0452 -0.1807
28195DOD     C328406  26.439   3.112  11.631  0.3885 -0.1154 -0.3321
28196DOD     C128407  27.681  17.634   1.041 -0.0668 -0.1601  0.0070
28196DOD     C228408  27.802  17.552   0.603 -0.0164  0.2705  0.1271
28196DOD     C328409  27.956  17.279   0.283  0.0764 -0.1691 -0.0191
28197DOD     C128410   7.898  24.843  12.509 -0.0119  0.1837  0.0996
28197DOD     C228411   7.630  25.157  12.685  0.1421 -0.0121  0.0152
28197DOD     C328412   7.282  25.441  12.543 -0.1290  0.1429  0.0734
28198DOD     C128413  21.459  27.810  21.614 -0.0954 -0.0461 -0.1757
28198DOD     C228414  21.207  28.132  21.785  0.0981 -0.1521  0.1125
28198DOD     C328415  21.001  28.548  21.726 -0.0631  0.2665  0.3988
28199DOD     C128416   8.755  23.644  12.073  0.0797  0.0111  0.1227
28199DOD     C228417   8.418  23.578  11.731  0.0146  0.0676 -0.0561
28199DOD     C328418   8.190  23.247  11.505  0.2409 -0.3383 -0.0125
28200DOD     C128419   2.065  27.205  27.183  0.1254  0.0265  0.3682
28200DOD     C228420   2.155  27.603  27.396  0.2614 -0.3197 -0.1486
28200DOD     C328421   2.570  27.840  27.515 -0.3723 -0.0866  0.0031
28201DOD     C128422   1.393   9.893  16.173  0.1905 -0.0490  0.1530
28201DOD     C228423   1.786  10.058  16.313  0.2890  0.1570  0.4233
28201DOD     C328424   2.195  10.015  16.018  0.0030  0.0585  0.1338
28202DOD     C128425  28.790  26.621  10.095 -0.0798 -0.3828  0.0669
28202DOD     C228426  28.578  26.351  10.388 -0.1380  0.0325 -0.2834
28202DOD     C328427  28.398  26.225  10.815  0.0540  0.2536  0.3737
28203DOD     C128428   1.995   1.564  23.863 -0.0487  0.4572 -0.3934
28203DOD     C228429   1.968   1.994  23.851  0.3259  0.0174 -0.1397
28203DOD     C328430   1.854   2.396  24.089  0.1944 -0.1700 -0.1584
28204DOD     C128431  11.609   9.289  21.640  0.0057 -0.1510 -0.0718
28204DOD     C228432  11.991   9.087  21.817 -0.3007  0.0531  0.2636
28204DOD     C328433  12.373   9.310  21.941  0.1937 -0.1653 -0.1372
28205DOD     C128434  12.632  12.241   2.334  0.2344  0.0782  0.3721
28205DOD     C228435  12.335  12.519   2.595  0.3088  0.1844  0.0673
28205DOD     C328436  12.138  12.594   3.033  0.1456 -0.1443 -0.0603
28206DOD     C128437   1.938  23.739  29.960  0.1897 -0.1354  0.0603
28206DOD     C228438   2.133  23.306  29.852 -0.1643 -0.1872 -0.0241
28206DOD     C328439   2.492  22.957  29.839 -0.0531 -0.0959  0.1982
28207DOD     C128440  29.422  26.541  29.814 -0.0050 -0.0567 -0.0232
28207DOD     C228441  29.466  26.910  29.465  0.1880  0.4358  0.1811
28207DOD     C328442  29.427  27.325  29.647 -0.0814  0.0683  0.1190
28208DOD     C128443   9.061   7.520  18.285 -0.2104 -0.2367 -0.1769
28208DOD     C228444   9.065   7.441  17.777  0.0918 -0.0791 -0.0296
28208DOD     C328445   9.142   7.605  17.340  0.1701 -0.3782 -0.1844
28209DOD     C128446  13.299  26.453  16.313  0.1145  0.2196 -0.0471
28209DOD     C228447  12.997  26.363  16.035  0.0962 -0.1766  0.3309
28209DOD     C328448  12.799  26.037  15.818 -0.0174 -0.0374  0.1111
28210DOD     C128449  20.572  19.908  18.539  0.0501  0.3178 -0.0773
28210DOD     C228450  20.417  20.209  18.804 -0.1204 -0.2888  0.1124
28210DOD     C328451  20.396  20.690  19.044  0.1016  0.4290 -0.2260
28211DOD     C128452  20.906  19.854  26.147  0.0084 -0.1124  0.0792
28211DOD     C228453  21.187  19.667  26.537  0.2307 -0.1474  0.0578
28211DOD     C328454  21.560  19.434  26.626  0.3589  0.0238  0.1079
28212DOD     C128455  19.723   0.454   7.754 -0.0856 -0.1569 -0.1817
28212DOD     C228456  20.132   0.602   7.891 -0.1082  0.3869  0.0472
28212DOD     C328457  20.487   0.875   7.970 -0.0880  0.1110 -0.1058
28213DOD     C128458   6.230  15.231  11.307 -0.2845  0.2738 -0.1084
28213DOD     C228459   6.424  14.857  11.505 -0.0801  0.1538  0.3991
28213DOD     C328460   6.500  14.657  11.935 -0.4886 -0.1558 -0.2995
28214DOD     C128461   2.182   8.751  13.444  0.0111 -0.2579 -0.1279
28214DOD     C228462   2.311   8.374  13.328 -0.0912  0.0460  0.0023
28214DOD     C328463   2.507   8.099  12.950 -0.2294 -0.2172 -0.3364
28215DOD     C128464  29.315  11.408  22.868 -0.1626 -0.2419 -0.1166
28215DOD     C228465  29.668  11.680  22.751  0.0843  0.0682 -0.0785
28215DOD     C328466  30.095  11.728  22.629  0.0230  0.3554  0.1068
28216DOD     C128467  18.672  22.693   1.418  0.0861  0.0025  0.1038
28216DOD     C228468  18.718  22.223   1.290  0.0229 -0.1242  0.2461
28216DOD     C328469  18.934  21.809   1.329  0.2085 -0.2332 -0.3631
28217DOD     C128470  26.390   5.675  13.075 -0.0118 -0.0160 -0.0569
28217DOD     C228471  26.395   5.884  13.462 -0.0429 -0.1316 -0.3138
28217DOD     C328472  26.566   6.120  13.859  0.2420  0.0678  0.0970
28218DOD     C128473   2.792  17.275  22.115  0.0301  0.0846 -0.0231
28218DOD     C228474   2.917  17.272  22.536  0.2647 -0.2557 -0.2990
28218DOD     C328475   3.299  17.376  22.788  0.0326 -0.2183 -0.0786
28219DOD     C128476  11.271   9.100  27.257 -0.2139  0.3721 -0.2770
28219DOD     C228477  11.372   9.210  26.837  0.1524  0.1165  0.0673
28219DOD     C328478  11.123   9.409  26.484  0.2103 -0.2497  0.2758
28220DOD     C128479  24.748  28.090  19.373 -0.1628  0.0713 -0.0294
28220DOD     C228480  24.512  28.166  19.054  0.2516 -0.4076 -0.0271
28220DOD     C328481  24.202  27.943  18.794 -0.1901  0.0539  0.4231
28221DOD     C128482   6.169   6.276  28.634 -0.0987 -0.4400 -0.1384
28221DOD     C228483   6.387   6.587  28.881 -0.0992 -0.3085 -0.1071
28221DOD     C328484   6.456   7.054  28.929 -0.2802  0.1564  0.0381
28222DOD     C128485   6.546   8.390  21.866  0.3780 -0.1867  0.1275
28222DOD     C228486   7.011   8.592  21.756  0.1704  0.2518 -0.1658
28222DOD     C328487   7.368   8.704  21.405  0.3014 -0.0669  0.1819
28223DOD     C128488  19.852  24.228  20.695  0.0682  0.2800 -0.1322
28223DOD     C228489  20.207  24.350  20.956  0.1146 -0.0901 -0.3684
28223DOD     C328490  20.145  24.678  21.253 -0.0302 -0.2530  0.0415
28224DOD     C128491  28.830  22.990   6.421  0.1891 -0.0187 -0.0076
28224DOD     C228492  28.937  22.605   6.358  0.0431 -0.2377 -0.4281
28224DOD     C328493  29.063  22.336   6.001  0.0207 -0.2410 -0.0570
28225DOD     C128494   3.229   9.079  21.392 -0.0557  0.0588 -0.3198
28225DOD     C228495   3.628   9.379  21.503  0.1708 -0.0882 -0.1043
28225DOD     C328496   3.945   9.673  21.626  0.0978 -0.1557 -0.0488
28226DOD     C128497  18.534  26.913   2.610 -0.0529 -0.0176  0.0176
28226DOD     C228498  18.455  27.043   3.069  0.1787  0.0987 -0.1591
28226DOD     C328499  18.492  26.748   3.377 -0.0794 -0.0672  0.2262
28227DOD     C128500  20.499   1.804  20.774 -0.2528  0.1067  0.0776
28227DOD     C228501  20.051   1.910  20.629  0.0031 -0.2713  0.1137
28227DOD     C328502  19.764   2.200  20.854 -0.2747  0.1145 -0.1551
28228DOD     C128503  29.999   2.200  23.401 -0.0130 -0.4474  0.1694
28228DOD     C228504   0.151   2.195  23.380 -0.3559 -0.0416 -0.0741
28228DOD     C328505   0.464   2.542  23.426 -0.1757 -0.0727 -0.0356
28229DOD     C128506  26.203  15.196  26.983 -0.1069 -0.3705  0.1256
28229DOD     C228507  26.059  15.064  27.366  0.0747  0.2268 -0.3413
28229DOD     C328508  26.114  15.062  27.824  0.0099  0.3129  0.3391
28230DOD     C128509  21.495  15.289  10.017 -0.2839 -0.0933 -0.1639
28230DOD     C228510  21.274  14.892   9.943  0.0453  0.0352  0.0171
28230DOD     C328511  21.024  14.477  10.000 -0.1587 -0.3630 -0.1916
28231DOD     C128512  20.805  16.633  11.908 -0.0274  0.0830  0.0514
28231DOD     C228513  20.895  16.534  12.341  0.3298  0.1080 -0.1071
28231DOD     C328514  21.051  16.432  12.840 -0.2291  0.1156 -0.2594
28232DOD     C128515  11.225  29.285  19.723  0.0213 -0.0616 -0.1697
28232DOD     C228516  11.356  29.712  19.679 -0.1185 -0.1589  0.0383
28232DOD     C328517  11.515  30.148  19.807 -0.0245  0.3367 -0.4561
28233DOD     C128518  10.459  27.182  12.586 -0.2219 -0.0723  0.1930
28233DOD     C228519  10.705  26.745  12.575 -0.1781  0.1616 -0.1419
28233DOD     C328520  11.070  26.495  12.690  0.1233  0.1424 -0.1814
28234DOD     C128521  22.373  15.701  12.471 -0.1810  0.0208  0.1567
28234DOD     C228522  21.984  15.638  12.288 -0.2029 -0.1209 -0.3606
28234DOD     C328523  21.584  15.866  12.294 -0.0210 -0.3523 -0.0116
28235DOD     C128524  19.460  26.483  20.029 -0.0167 -0.0121  0.4020
28235DOD     C228525  19.299  26.925  19.752  0.1554  0.2363  0.1157
28235DOD     C328526  19.158  27.230  19.402 -0.0526 -0.2764 -0.1887
28236DOD     C128527  25.317  23.858   2.423  0.3958 -0.0934 -0.1984
28236DOD     C228528  25.384  24.271   2.209 -0.1529 -0.2308 -0.1042
28236DOD     C328529  25.358  24.734   2.032  0.0347 -0.0349 -0.0253
28237DOD     C128530   8.123   5.579  18.106  0.0041  0.1931 -0.1106
28237DOD     C228531   8.265   5.212  17.892 -0.0510  0.1220  0.1442
28237DOD     C328532   8.413   4.958  17.569  0.4083 -0.2460  0.2925
28238DOD     C128533   5.769  15.576  23.613 -0.4273 -0.0186  0.0766
28238DOD     C228534   6.221  15.586  23.720  0.0578 -0.5092  0.2154
28238DOD     C328535   6.608  15.625  23.462  0.0870  0.0850  0.4299
28239DOD     C128536   6.569  20.523   2.730  0.4413  0.2702  0.0128
28239DOD     C228537   6.811  20.087   2.820  0.0634 -0.4470  0.1487
28239DOD     C328538   6.874  19.765   3.132  0.1059  0.0736  0.0621
28240DOD     C128539  13.465  28.950  27.968 -0.1738 -0.0775 -0.0929
28240DOD     C228540  13.257  28.849  27.567 -0.1078 -0.1071  0.0805
28240DOD     C328541  12.961  28.623  27.246  0.0739 -0.0223 -0.3771
28241DOD     C128542  12.503  13.966  27.345 -0.1481  0.0647  0.1888
28241DOD     C228543  12.650  14.296  27.068  0.2038 -0.0750 -0.1411
28241DOD     C328544  13.024  14.590  26.979 -0.3590  0.0999 -0.2258
28242DOD     C128545  16.407  27.962  23.305  0.1058 -0.4786  0.0554
28242DOD     C228546  16.180  27.773  22.918  0.2458 -0.4787 -0.3788
28242DOD     C328547  15.901  27.824  22.620  0.0736 -0.0703  0.1146
28243DOD     C128548  23.134  12.047  21.656  0.2189 -0.1047  0.0403
28243DOD     C228549  23.209  12.498  21.820 -0.1850  0.0842  0.2684
28243DOD     C328550  23.328  12.938  21.816  0.0141  0.2905 -0.2678
28244DOD     C128551   5.298  30.300  28.167 -0.1315  0.0018  0.1307
28244DOD     C228552   5.724   0.148  28.142  0.0516 -0.1011 -0.1369
28244DOD     C328553   6.167   0.009  28.087  0.1734 -0.1806 -0.2454
28245DOD     C128554  29.655   0.237  12.851  0.1815 -0.0336  0.1437
28245DOD     C228555  29.333   0.586  12.831  0.0459  0.0624 -0.1378
28245DOD     C328556  28.910   0.672  13.064  0.1058 -0.1731 -0.3011
28246DOD     C128557   2.791  29.289   0.072  0.0031  0.3459  0.0763
28246DOD     C228558   3.209  29.512  30.225  0.0103 -0.4984 -0.3468
28246DOD     C328559   3.480  29.877   0.076 -0.0239 -0.2718  0.0687
28247DOD     C128560  15.747  26.002  28.424  0.0004  0.0466  0.0651
28247DOD     C228561  15.366  26.136  28.587  0.0947  0.0756 -0.3869
28247DOD     C328562  15.305  26.607  28.680 -0.0141 -0.0409  0.2521
28248DOD     C128563  14.697  15.667  10.316  0.1388  0.3482  0.0433
28248DOD     C228564  14.796  15.997   9.981  0.1824 -0.2618 -0.2509
28248DOD     C328565  14.746  16.330   9.744  0.1448  0.1067 -0.2474
28249DOD     C128566  10.725  21.131   8.454  0.1986  0.0558 -0.1999
28249DOD     C228567  10.587  20.772   8.256  0.0056 -0.0076 -0.1392
28249DOD     C328568  10.313  20.403   8.198  0.1496  0.0477 -0.1003
28250DOD     C128569   9.926   8.600   1.719 -0.2006 -0.0121  0.0872
28250DOD     C228570  10.242   8.872   1.918 -0.1355 -0.0215  0.0724
28250DOD     C328571  10.667   8.894   2.087  0.0508  0.2460  0.4119
28251DOD     C128572   9.594  28.084  29.427  0.0127  0.1469  0.1318
28251DOD     C228573   9.822  28.502  29.565  0.1081 -0.0508  0.4486
28251DOD     C328574   9.835  28.986  29.529  0.0865  0.0920 -0.4151
28252DOD     C128575  22.411  25.384   1.140 -0.1337 -0.1582  0.2124
28252DOD     C228576  22.102  25.115   0.975  0.0179 -0.0517  0.1607
28252DOD     C328577  21.673  24.985   0.928 -0.0448  0.1826 -0.3779
28253DOD     C128578   1.063  16.095  20.653  0.0388 -0.2429  0.0955
28253DOD     C228579   0.622  15.971  20.568 -0.2358  0.0755 -0.1054
28253DOD     C328580   0.141  16.093  20.602 -0.0833 -0.1211  0.6393
28254DOD     C128581   0.039   3.274  22.466  0.2384  0.1665  0.4004
28254DOD     C228582  30.201   3.246  22.033  0.2737  0.0970 -0.1352
28254DOD     C328583  29.953   3.535  21.748 -0.3466  0.0713 -0.4167
28255DOD     C128584  19.713  15.153   8.320  0.0232 -0.2126  0.0699
28255DOD     C228585  19.225  15.146   8.265 -0.1077 -0.4332  0.1762
28255DOD     C328586  18.948  15.504   8.316  0.1973  0.1220 -0.2440
28256DOD     C128587  27.839  21.849  29.357  0.0086 -0.0240  0.1198
28256DOD     C228588  27.658  22.284  29.277  0.0131 -0.2402 -0.1387
28256DOD     C328589  27.562  22.527  28.828 -0.0095  0.2141 -0.3553
28257DOD     C128590  20.468  24.383   7.516 -0.2571  0.0318 -0.1809
28257DOD     C228591  20.230  24.093   7.716  0.0630  0.0983 -0.2483
28257DOD     C328592  19.948  23.756   7.586  0.0030  0.0346  0.0698
28258DOD     C128593   4.096  21.022  23.108 -0.2647 -0.0904 -0.1773
28258DOD     C228594   4.394  21.200  22.739 -0.2728 -0.0629  0.2030
28258DOD     C328595   4.835  21.223  22.537  0.0105  0.1042 -0.1723
28259DOD     C128596   7.093  20.538   4.965 -0.0675 -0.2789 -0.0833
28259DOD     C228597   6.768  20.486   5.259  0.1739  0.0378  0.3613
28259DOD     C328598   6.314  20.503   5.531  0.1927  0.3151 -0.0979
28260DOD     C128599  11.829   0.447  25.202 -0.0493  0.0263  0.2383
28260DOD     C228600  11.899   0.811  25.509  0.1353  0.0430  0.2121
28260DOD     C328601  11.824   1.093  25.857 -0.2802  0.0155  0.0028
28261DOD     C128602  25.437  28.547  15.191  0.2543 -0.2675  0.0806
28261DOD     C228603  25.023  28.816  15.185  0.0046  0.1870  0.5047
28261DOD     C328604  24.593  28.819  15.140  0.0468 -0.1249 -0.0730
28262DOD     C128605  12.043  27.202   0.486  0.0958 -0.0144 -0.1188
28262DOD     C228606  12.444  27.444   0.463  0.2184  0.0398  0.0415
28262DOD     C328607  12.874  27.557   0.369  0.1279  0.0691  0.0621
28263DOD     C128608   5.947  27.973   9.117  0.0079 -0.0342 -0.0650
28263DOD     C228609   6.152  28.439   9.189  0.0526 -0.0406  0.0097
28263DOD     C328610   6.387  28.858   9.136  0.1825 -0.2487 -0.0004
28264DOD     C128611  11.737  15.350  15.185 -0.0126  0.1209  0.1174
28264DOD     C228612  11.446  14.983  15.019 -0.3279 -0.1935 -0.1134
28264DOD     C328613  11.109  14.712  15.131  0.1018  0.1139 -0.3309
28265DOD     C128614   3.091  19.463  17.490 -0.0562  0.0239 -0.0985
28265DOD     C228615   3.414  19.801  17.431  0.0395  0.2238 -0.3182
28265DOD     C328616   3.744  20.114  17.392  0.1378 -0.3194 -0.1054
28266DOD     C128617   7.265  14.403  24.461 -0.0243 -0.2957 -0.0445
28266DOD     C228618   7.197  14.432  24.951  0.1745 -0.1131 -0.3061
28266DOD     C328619   7.184  14.746  25.268  0.2186 -0.1148 -0.2695
28267DOD     C128620  21.981  28.648  14.830 -0.1565 -0.4745  0.0714
28267DOD     C228621  21.979  28.909  14.431  0.0719 -0.0679 -0.2971
28267DOD     C328622  21.656  29.036  14.129  0.0972  0.1040  0.0129
28268DOD     C128623   3.781  27.183  13.388  0.0941  0.1230 -0.2717
28268DOD     C228624   3.421  27.226  13.146 -0.4339  0.1878 -0.1600
28268DOD     C328625   3.080  27.346  13.477 -0.2367 -0.1590  0.1548
28269DOD     C128626   9.692  29.917   0.728  0.0824 -0.1432  0.2967
28269DOD     C228627   9.928  29.501   0.632  0.1268  0.2212 -0.2766
28269DOD     C328628   9.797  29.047   0.465 -0.0656  0.1702  0.2913
28270DOD     C128629  18.329   1.297  11.769 -0.4481 -0.0429  0.1880
28270DOD     C228630  18.463   1.362  12.193 -0.2107  0.1085 -0.1552
28270DOD     C328631  18.464   1.772  12.441  0.1459 -0.2277  0.1766
28271DOD     C128632  25.337   5.621  28.844  0.3145  0.2889  0.0725
28271DOD     C228633  24.950   5.548  28.574 -0.2238  0.1142  0.1803
28271DOD     C328634  24.625   5.709  28.282 -0.1724  0.2888  0.0374
28272DOD     C128635   4.020  18.396  18.348  0.1285 -0.1834 -0.0063
28272DOD     C228636   3.901  18.098  18.661 -0.0321 -0.0844  0.0890
28272DOD     C328637   3.659  17.903  19.033  0.1347  0.0706 -0.1480
28273DOD     C128638  24.068   6.785  16.242 -0.3722  0.2063 -0.2037
28273DOD     C228639  23.741   6.589  16.021  0.3569 -0.3009  0.0686
28273DOD     C328640  23.375   6.517  15.660  0.0303 -0.2321 -0.0763
28274DOD     C128641  13.270   0.932  22.544  0.1589 -0.1040  0.1991
28274DOD     C228642  13.260   1.364  22.632 -0.2096 -0.1235 -0.0616
28274DOD     C328643  13.249   1.867  22.675  0.0348  0.2413  0.5095
28275DOD     C128644  12.978  20.328  29.452 -0.0427  0.0633 -0.0876
28275DOD     C228645  13.381  20.583  29.356 -0.0720 -0.2181  0.1017
28275DOD     C328646  13.873  20.596  29.323 -0.0434 -0.2174  0.3634
28276DOD     C128647  29.034  19.782  25.740  0.0791  0.1186 -0.3330
28276DOD     C228648  29.323  19.514  25.516  0.1577 -0.0169  0.0570
28276DOD     C328649  29.660  19.242  25.459 -0.0510 -0.2401  0.1783
28277DOD     C128650  25.331   5.376   5.789  0.0252 -0.1489 -0.4859
28277DOD     C228651  25.167   5.789   5.686  0.1506 -0.1360 -0.1186
28277DOD     C328652  24.745   5.953   5.538 -0.0870 -0.0398 -0.0794
28278DOD     C128653  27.037  27.392   2.262 -0.3569  0.0542 -0.1642
28278DOD     C228654  27.030  27.074   2.552  0.2636 -0.0725 -0.3035
28278DOD     C328655  27.321  26.812   2.873  0.0428  0.1039 -0.1916
28279DOD     C128656  15.346  27.414  16.677  0.2606 -0.1843 -0.1672
28279DOD     C228657  15.342  26.956  16.822 -0.1712 -0.2694  0.0915
28279DOD     C328658  15.210  26.601  16.594 -0.3170 -0.0334 -0.0483
28280DOD     C128659   3.123  21.000   1.065 -0.0220 -0.1353  0.1031
28280DOD     C228660   3.187  20.634   0.767  0.0474 -0.3951  0.1254
28280DOD     C328661   3.278  20.242   0.507 -0.0417 -0.3756  0.0681
28281DOD     C128662   9.989  16.948  29.377 -0.0344  0.1155 -0.0624
28281DOD     C228663  10.047  17.349  29.633  0.0971  0.2312  0.1024
28281DOD     C328664  10.088  17.823  29.591 -0.0274 -0.0294 -0.0757
28282DOD     C128665   4.065  27.005   7.821  0.4005  0.0897 -0.0735
28282DOD     C228666   3.648  27.127   7.577  0.1030  0.5366  0.3319
28282DOD     C328667   3.232  27.123   7.757  0.0793 -0.0073  0.2567
28283DOD     C128668  18.014  16.778   2.109 -0.1495  0.0488  0.1474
28283DOD     C228669  18.474  16.729   2.043 -0.0961 -0.0983 -0.0578
28283DOD     C328670  18.901  16.905   2.177 -0.2187 -0.2029 -0.2696
28284DOD     C128671  29.138  29.165  21.749 -0.1754 -0.0946 -0.3722
28284DOD     C228672  28.698  28.985  21.889 -0.1664  0.0794  0.0814
28284DOD     C328673  28.327  28.895  21.973  0.1183  0.0091  0.2022
28285DOD     C128674  19.496  15.547   6.362 -0.0216  0.0308 -0.1029
28285DOD     C228675  19.798  15.261   6.602  0.2159  0.1840 -0.1357
28285DOD     C328676  20.119  15.034   6.808  0.2893  0.1577 -0.0620
28286DOD     C128677   9.105  18.106  17.492 -0.0887 -0.1361 -0.4552
28286DOD     C228678   8.891  17.870  17.882 -0.1198  0.1695 -0.1150
28286DOD     C328679   8.570  17.611  18.166  0.1334 -0.1102 -0.0580
28287DOD     C128680  17.556  13.661   2.067 -0.0468  0.2222  0.1828
28287DOD     C228681  17.532  13.772   1.609 -0.0100  0.0978  0.1746
28287DOD     C328682  17.357  14.005   1.260  0.1216  0.0990  0.1087
28288DOD     C128683   2.309  28.935  21.823  0.1723  0.0031  0.1251
28288DOD     C228684   2.622  28.810  21.388 -0.0026 -0.2055  0.1449
28288DOD     C328685   2.502  28.572  21.017 -0.1338 -0.0694 -0.0926
28289DOD     C128686  16.626  22.961  17.920 -0.0800 -0.0705  0.3982
28289DOD     C228687  16.690  23.138  17.553  0.1709 -0.1596  0.1987
28289DOD     C328688  16.947  23.067  17.221  0.0256 -0.3414  0.0863
28290DOD     C128689  10.464  21.495  18.084 -0.0179 -0.0054  0.3713
28290DOD     C228690  10.380  21.675  17.712 -0.0513  0.0582  0.0027
28290DOD     C328691  10.006  21.558  17.401  0.1322 -0.0642  0.0172
28291DOD     C128692  22.957  20.116   3.683 -0.2050 -0.0863 -0.2084
28291DOD     C228693  23.032  19.963   3.234 -0.1670 -0.0331 -0.1627
28291DOD     C328694  22.957  20.018   2.776 -0.1012  0.1298  0.1526
28292DOD     C128695  10.207   5.778  10.803  0.1447  0.0619 -0.0171
28292DOD     C228696  10.465   5.404  10.621 -0.1349  0.0250 -0.1796
28292DOD     C328697  10.721   5.207  10.309  0.3606 -0.2019 -0.1428
28293DOD     C128698  28.162  29.345  16.769 -0.2360 -0.2311  0.0580
28293DOD     C228699  27.906  29.172  16.394 -0.0661 -0.0711  0.1487
28293DOD     C328700  27.601  29.172  15.998  0.0927 -0.4069  0.2120
28294DOD     C128701   1.900  15.666  18.850 -0.3309 -0.0157  0.0896
28294DOD     C228702   1.647  15.447  19.130  0.1135  0.1543  0.2236
28294DOD     C328703   1.175  15.375  19.245  0.0901  0.0701 -0.2547
28295DOD     C128704  14.386   0.774  10.318  0.0143 -0.1857 -0.0923
28295DOD     C228705  14.137   0.623  10.677 -0.1235 -0.2902 -0.0010
28295DOD     C328706  13.870   0.401  11.024 -0.0108 -0.2495 -0.0262
28296DOD     C128707   1.361  22.634  17.121 -0.2722  0.2283 -0.0446
28296DOD     C228708   1.372  22.172  17.023 -0.0297  0.3881  0.0376
28296DOD     C328709   1.455  21.710  16.993 -0.2226 -0.1449  0.0535
28297DOD     C128710   8.811  13.932   5.948  0.2442  0.0365 -0.1822
28297DOD     C228711   8.663  14.320   6.198 -0.1007  0.0981  0.2290
28297DOD     C328712   8.659  14.363   6.679 -0.0788 -0.0051 -0.1452
28298DOD     C128713   5.039  12.401  27.325 -0.2374  0.3494 -0.1852
28298DOD     C228714   4.921  12.547  26.845  0.0053  0.1076 -0.0451
28298DOD     C328715   4.950  12.996  26.644 -0.1498 -0.0971 -0.0179
28299DOD     C128716  26.828  25.865  23.101  0.1813  0.3199 -0.0395
28299DOD     C228717  27.128  25.932  22.805 -0.0052  0.0395  0.0668
28299DOD     C328718  27.485  26.219  22.730 -0.1258  0.3198 -0.1934
28300DOD     C128719   7.025  12.635   3.521  0.1134 -0.0042  0.1659
28300DOD     C228720   7.514  12.635   3.557 -0.0513  0.0367  0.0720
28300DOD     C328721   7.950  12.473   3.598 -0.3130  0.0410 -0.1211
28301DOD     C128722  27.059  26.768  15.745 -0.0447  0.2271  0.2531
28301DOD     C228723  27.236  27.083  15.505 -0.3029 -0.0774  0.1158
28301DOD     C328724  27.537  27.357  15.277  0.1192  0.1854 -0.1461
28302DOD     C128725   9.336   8.684  17.745  0.1109  0.0480  0.1839
28302DOD     C228726   8.925   8.923  17.713 -0.1553  0.0385  0.0836
28302DOD     C328727   8.496   8.804  17.910  0.1075  0.0182  0.0690
28303DOD     C128728   2.656  19.230  30.269 -0.0363 -0.1106  0.0170
28303DOD     C228729   2.311  19.247  30.002 -0.1729 -0.0816 -0.0854
28303DOD     C328730   2.263  19.011  29.674 -0.3289 -0.0024  0.0481
28304DOD     C128731  16.920  27.459  16.312  0.1337 -0.1984  0.1774
28304DOD     C228732  16.465  27.249  16.506  0.1735  0.0301  0.0421
28304DOD     C328733  16.034  27.303  16.720 -0.0289 -0.2197 -0.3196
28305DOD     C128734  25.488  24.081  12.981 -0.0860  0.0796  0.0651
28305DOD     C228735  25.962  23.978  13.005  0.2466 -0.1179  0.1044
28305DOD     C328736  26.402  23.891  12.801  0.3009  0.0555  0.2085
28306DOD     C128737  17.417  28.768  13.627  0.1514 -0.2604  0.0127
28306DOD     C228738  17.847  28.750  13.888 -0.3562 -0.0214 -0.0293
28306DOD     C328739  18.202  29.009  14.198  0.1017  0.0301 -0.1985
28307DOD     C128740  28.347  28.213  27.809  0.1147  0.0609  0.0624
28307DOD     C228741  28.072  28.021  28.188  0.0642  0.3695 -0.1714
28307DOD     C328742  28.158  27.894  28.609  0.0517 -0.0792  0.4756
28308DOD     C128743  29.891   4.285  25.298 -0.0051  0.1082 -0.0179
28308DOD     C228744  29.515   3.954  25.320 -0.0328  0.1699 -0.3598
28308DOD     C328745  29.075   4.034  25.410  0.2217 -0.1878  0.2060
28309DOD     C128746  10.599   6.730   8.606 -0.0490 -0.0673  0.0893
28309DOD     C228747  10.448   6.560   8.244 -0.0230 -0.0139  0.0288
28309DOD     C328748  10.307   6.299   7.827  0.1209 -0.0328  0.4047
28310DOD     C128749  24.932  17.839  13.159  0.1566 -0.1344  0.0038
28310DOD     C228750  25.216  17.616  12.833  0.2047 -0.1384 -0.0282
28310DOD     C328751  25.329  17.168  12.699  0.3431 -0.1207  0.1135
28311DOD     C128752  22.665  25.845   0.804  0.0446  0.0130 -0.0834
28311DOD     C228753  22.269  26.060   0.585  0.0182  0.0518  0.1765
28311DOD     C328754  21.808  26.006   0.428  0.2278 -0.1231  0.1815
28312DOD     C128755  11.539   7.544  13.596 -0.0138 -0.1878 -0.1784
28312DOD     C228756  11.935   7.289  13.443  0.1440 -0.1582 -0.0446
28312DOD     C328757  12.183   7.105  13.102 -0.1787  0.1866 -0.1361
28313DOD     C128758  28.932  11.234  12.948 -0.3719  0.0247  0.1495
28313DOD     C228759  28.608  10.979  13.109  0.1077  0.2098  0.0278
28313DOD     C328760  28.274  10.828  13.442  0.0060 -0.2667  0.0739
28314DOD     C128761  18.943  26.922   8.206  0.1763 -0.1029 -0.3394
28314DOD     C228762  18.973  27.214   7.867 -0.0789  0.0688 -0.0535
28314DOD     C328763  19.222  27.496   7.547  0.0527  0.2447  0.0726
28315DOD     C128764   5.351   6.801  23.093  0.1052  0.0547 -0.0449
28315DOD     C228765   5.588   7.128  23.367 -0.1149 -0.0730 -0.0459
28315DOD     C328766   5.857   7.407  23.674 -0.0640  0.3030  0.2206
28316DOD     C128767  20.825  13.987  23.156 -0.0605  0.0882 -0.2049
28316DOD     C228768  21.252  14.102  23.280 -0.0841 -0.1630 -0.2631
28316DOD     C328769  21.535  14.425  23.576  0.0388 -0.3046  0.4265
28317DOD     C128770   1.900  12.813  21.411  0.0294 -0.0012  0.3474
28317DOD     C228771   1.872  13.197  21.619 -0.2188 -0.2883  0.2858
28317DOD     C328772   1.541  13.508  21.742 -0.0536  0.0661  0.2497
28318DOD     C128773   7.341   5.749  27.876  0.0694 -0.1276 -0.4030
28318DOD     C228774   7.605   5.638  27.443  0.2945 -0.0183 -0.0226
28318DOD     C328775   7.950   5.430  27.213 -0.0630 -0.0394  0.1482
28319DOD     C128776  23.853  26.498  19.134  0.0986  0.1397 -0.3542
28319DOD     C228777  24.055  26.297  18.717 -0.2062 -0.0792 -0.0018
28319DOD     C328778  24.182  26.050  18.358  0.0025  0.2654  0.2098
28320DOD     C128779  20.915   5.722  24.846  0.1166 -0.1323  0.0131
28320DOD     C228780  20.620   5.364  24.988  0.5142  0.0561 -0.1006
28320DOD     C328781  20.578   4.944  25.068 -0.1474  0.0574 -0.3180
28321DOD     C128782  22.101  15.261  26.589  0.0026 -0.0643 -0.0754
28321DOD     C228783  21.972  15.453  26.172 -0.1818 -0.1547 -0.0401
28321DOD     C328784  22.221  15.404  25.802 -0.1138 -0.0522 -0.1576
28322DOD     C128785   1.413  22.641  10.231 -0.3742  0.3491  0.1510
28322DOD     C228786   1.038  22.371  10.259 -0.0040  0.0376  0.1532
28322DOD     C328787   0.843  21.970  10.141 -0.0666 -0.1389 -0.2879
28323DOD     C128788  26.131  22.753  15.762  0.2829 -0.3818 -0.0763
28323DOD     C228789  25.984  22.293  15.632  0.0207 -0.0907  0.1145
28323DOD     C328790  26.073  21.853  15.815 -0.3780  0.2164 -0.1648
28324DOD     C128791  18.277  23.477   1.729  0.0996  0.4210  0.0007
28324DOD     C228792  18.185  23.940   1.676  0.0590  0.0588 -0.0036
28324DOD     C328793  18.108  24.370   1.616 -0.1996 -0.0081 -0.2707
28325DOD     C128794  15.990   8.989   4.429  0.1315  0.1320  0.2687
28325DOD     C228795  15.713   8.905   4.099 -0.1594  0.0087  0.0957
28325DOD     C328796  15.744   8.619   3.728 -0.0976  0.0922  0.0751
28326DOD     C128797   9.130  16.504   9.384  0.0064 -0.2119 -0.1563
28326DOD     C228798   8.927  16.542   9.738  0.1570  0.2905 -0.1782
28326DOD     C328799   8.656  16.588  10.155 -0.0670  0.0679  0.1468
28327DOD     C128800  12.141   1.712   1.258  0.0146 -0.2498 -0.2610
28327DOD     C228801  12.579   1.591   1.305 -0.1171  0.1269 -0.1351
28327DOD     C328802  12.748   1.153   1.303  0.2438 -0.2444  0.1045
28328DOD     C128803   3.778  24.398   9.990 -0.0395  0.2630  0.3255
28328DOD     C228804   3.350  24.476  10.071  0.1041 -0.1262 -0.3336
28328DOD     C328805   2.998  24.613   9.761  0.1825  0.0208  0.1772
28329DOD     C128806   5.370   5.401  26.160  0.0417  0.1631  0.1361
28329DOD     C228807   5.141   5.427  26.573  0.0858  0.0104  0.1214
28329DOD     C328808   5.130   5.261  27.028  0.0347 -0.0839 -0.2106
28330DOD     C128809  24.579  19.149  21.096 -0.0809 -0.1397 -0.1333
28330DOD     C228810  24.776  19.095  20.641  0.0971 -0.1883 -0.1890
28330DOD     C328811  24.735  19.432  20.332  0.0715 -0.1532  0.0692
28331DOD     C128812  26.465  27.495  10.370 -0.2568  0.0563  0.0884
28331DOD     C228813  26.762  27.411   9.977 -0.1765  0.3915 -0.3088
28331DOD     C328814  26.989  27.208   9.627  0.0057  0.0533  0.0910
28332DOD     C128815  27.904  16.188   6.184  0.0229 -0.0626 -0.0559
28332DOD     C228816  27.513  16.389   6.243 -0.0534 -0.0021 -0.0344
28332DOD     C328817  27.118  16.630   6.218  0.4241 -0.3136  0.1555
28333DOD     C128818  13.981   2.398  11.391  0.0208 -0.3143 -0.3016
28333DOD     C228819  13.682   2.358  11.026 -0.1442 -0.1506  0.0975
28333DOD     C328820  13.213   2.324  10.960 -0.3356 -0.0546 -0.1435
28334DOD     C128821  28.054   4.713  15.926  0.1810 -0.0002  0.2845
28334DOD     C228822  28.167   4.722  16.381  0.0213 -0.1986 -0.1095
28334DOD     C328823  28.525   4.651  16.729  0.4129 -0.0321 -0.1794
28335DOD     C128824  25.480   8.951  14.127 -0.1495 -0.0825  0.0887
28335DOD     C228825  25.908   8.949  13.883  0.0164  0.2175  0.3197
28335DOD     C328826  26.156   8.704  13.547  0.1933 -0.2924 -0.1702
28336DOD     C128827   7.061  17.679  15.834 -0.0368 -0.2017  0.0689
28336DOD     C228828   6.650  17.467  15.840 -0.0267  0.0642  0.1116
28336DOD     C328829   6.329  17.369  15.563  0.1674  0.1590  0.0359
28337DOD     C128830   6.222   9.942  12.921 -0.1619 -0.1650 -0.0668
28337DOD     C228831   6.411  10.245  12.632  0.1944 -0.0992  0.3578
28337DOD     C328832   6.620  10.420  12.247 -0.2711  0.0818  0.1122
28338DOD     C128833  11.488   6.895  21.011  0.0015 -0.0877 -0.2357
28338DOD     C228834  11.347   6.417  21.057  0.1568 -0.0622  0.3250
28338DOD     C328835  11.395   6.081  21.364  0.1252  0.0645 -0.2203
28339DOD     C128836  19.747   6.626   1.139  0.0046  0.1340  0.0037
28339DOD     C228837  19.945   6.562   1.585 -0.1460 -0.0773 -0.3185
28339DOD     C328838  20.185   6.778   1.905 -0.0038  0.0651 -0.0624
28340DOD     C128839   1.652  23.049  10.031 -0.0272 -0.3728  0.0118
28340DOD     C228840   1.947  23.246  10.387  0.1676  0.0289 -0.0346
28340DOD     C328841   1.935  23.281  10.856  0.0768  0.0902  0.0494
28341DOD     C128842  17.064   7.389   8.320  0.3875 -0.0999 -0.2273
28341DOD     C228843  17.471   7.480   8.090  0.2109 -0.0608 -0.2663
28341DOD     C328844  17.718   7.804   7.768 -0.0876 -0.0966 -0.2110
28342DOD     C128845   8.984  23.214   9.102 -0.0441  0.0720  0.0310
28342DOD     C228846   8.640  22.956   9.294 -0.0469  0.0539 -0.0688
28342DOD     C328847   8.418  22.554   9.242  0.0208  0.0215  0.1823
28343DOD     C128848  13.101   1.462  22.134 -0.1241 -0.1495  0.2712
28343DOD     C228849  12.668   1.451  22.331  0.0806 -0.3728  0.3258
28343DOD     C328850  12.339   1.334  22.634  0.2460  0.0064 -0.1240
28344DOD     C128851   3.428  15.099   1.709  0.2324  0.1320  0.0904
28344DOD     C228852   3.211  14.647   1.693 -0.0489 -0.0913  0.1414
28344DOD     C328853   3.114  14.199   1.815  0.0009 -0.0122  0.0165
28345DOD     C128854   7.491  13.769   1.089  0.0223 -0.0593  0.3551
28345DOD     C228855   7.565  13.523   0.667  0.0735  0.1769 -0.1315
28345DOD     C328856   7.902  13.378   0.425 -0.0756 -0.0240  0.0575
28346DOD     C128857   1.601  25.471  18.320 -0.1346 -0.0406  0.0011
28346DOD     C228858   1.952  25.277  18.492 -0.4764  0.0163 -0.0271
28346DOD     C328859   2.093  24.845  18.623 -0.0536  0.0042  0.0092
28347DOD     C128860   5.344   9.784   4.364 -0.0825  0.0447 -0.3013
28347DOD     C228861   5.242  10.010   4.765  0.1047  0.0610 -0.1245
28347DOD     C328862   5.072   9.897   5.168  0.0655  0.0314 -0.1718
28348DOD     C128863  24.613  25.415   3.181 -0.1301 -0.0034  0.0447
28348DOD     C228864  24.537  24.982   3.064 -0.0372  0.0469 -0.0375
28348DOD     C328865  24.929  24.709   2.951 -0.0211 -0.1957  0.2368
28349DOD     C128866  18.385   2.047  15.367 -0.0585 -0.3521 -0.2760
28349DOD     C228867  18.221   1.947  15.771 -0.1853 -0.0986 -0.1209
28349DOD     C328868  18.384   1.864  16.205 -0.0921 -0.1805  0.2802
28350DOD     C128869  16.325  10.010  24.290 -0.0439 -0.2496 -0.0289
28350DOD     C228870  16.740   9.836  24.210 -0.0051  0.0063 -0.2271
28350DOD     C328871  17.000   9.662  23.825 -0.1202 -0.1166 -0.1852
28351DOD     C128872  18.827  22.559  21.738 -0.2330  0.0252  0.0871
28351DOD     C228873  18.478  22.500  21.380 -0.2075  0.0065 -0.0755
28351DOD     C328874  18.255  22.866  21.124  0.1144 -0.0702 -0.0616
28352DOD     C128875  23.698  20.475  27.257 -0.0905 -0.1865 -0.1006
28352DOD     C228876  23.354  20.304  27.000  0.0354  0.0189  0.0957
28352DOD     C328877  22.983  20.079  26.805 -0.1508 -0.1699  0.2192
28353DOD     C128878  24.695  22.024   1.161 -0.0735 -0.3729 -0.0500
28353DOD     C228879  24.819  22.374   1.513  0.2200  0.1106 -0.0195
28353DOD     C328880  25.156  22.578   1.875  0.1818  0.0182 -0.3020
28354DOD     C128881  26.153  14.842  22.621 -0.1639 -0.0930 -0.0515
28354DOD     C228882  26.584  14.721  22.523 -0.2434 -0.4826  0.4332
28354DOD     C328883  27.006  14.850  22.707 -0.2081  0.1781 -0.3455
28355DOD     C128884   6.935   3.493  10.011 -0.0729 -0.0452  0.3543
28355DOD     C228885   6.681   3.814   9.709  0.0288 -0.3009  0.0994
28355DOD     C328886   6.404   3.940   9.358 -0.1446  0.0597  0.1203
28356DOD     C128887  27.658  22.252   7.457 -0.1029 -0.0921 -0.0977
28356DOD     C228888  27.960  22.371   7.838 -0.0740 -0.3315 -0.2609
28356DOD     C328889  28.307  22.211   8.182 -0.0993 -0.0606  0.1667
28357DOD     C128890  21.309   8.897   8.617  0.0849  0.1676  0.0341
28357DOD     C228891  21.230   9.326   8.641 -0.3220  0.2203 -0.3137
28357DOD     C328892  21.211   9.804   8.717  0.1988 -0.3008 -0.1110
28358DOD     C128893   7.735   0.492  28.752  0.2427  0.0150  0.1392
28358DOD     C228894   8.006   0.887  28.758 -0.1024 -0.1758 -0.1469
28358DOD     C328895   8.330   1.074  29.086 -0.3338 -0.2215  0.0008
28359DOD     C128896  13.795  11.576  24.181  0.0173 -0.2383  0.0189
28359DOD     C228897  13.661  11.121  24.232  0.1248  0.0944  0.0828
28359DOD     C328898  13.333  10.846  24.417  0.0153 -0.0972 -0.1106
28360DOD     C128899   2.883  24.252  18.597 -0.1083 -0.0652 -0.2559
28360DOD     C228900   2.829  24.575  18.307  0.0344  0.1099  0.2770
28360DOD     C328901   2.411  24.684  18.225 -0.0282  0.5131 -0.2361
28361DOD     C128902  19.741   0.444  13.324  0.2192 -0.2314  0.0776
28361DOD     C228903  19.891   0.220  13.032  0.1170  0.0975  0.1237
28361DOD     C328904  20.075  30.177  12.967 -0.0126  0.2927  0.0544
28362DOD     C128905   0.411  27.891  29.388  0.0295  0.0902 -0.0292
28362DOD     C228906   0.514  27.963  29.824  0.0000 -0.0340 -0.2292
28362DOD     C328907   0.197  27.940  30.154 -0.1829 -0.0778  0.2131
28363DOD     C128908  26.332  13.404  19.638  0.0702  0.3126 -0.0463
28363DOD     C228909  26.330  13.515  19.153  0.2638 -0.2075  0.0326
28363DOD     C328910  26.525  13.600  18.756  0.4320  0.0687 -0.2298
28364DOD     C128911  24.980  17.917  17.667  0.1324 -0.0576  0.0979
28364DOD     C228912  25.127  17.944  17.222  0.1177 -0.0538  0.0453
28364DOD     C328913  25.044  17.988  16.778 -0.0190 -0.1480 -0.1435
28365DOD     C128914   6.115   7.867   9.905  0.1237 -0.0250  0.0417
28365DOD     C228915   6.250   7.934   9.422 -0.2284 -0.0385 -0.1126
28365DOD     C328916   6.257   8.253   9.096 -0.0050  0.1353 -0.0148
28366DOD     C128917   8.117  14.534   9.885  0.1908  0.3341  0.2877
28366DOD     C228918   7.954  14.493  10.283  0.1922 -0.0548  0.0352
28366DOD     C328919   7.717  14.329  10.684  0.1983  0.1278  0.2051
28367DOD     C128920  13.920  18.639  26.282 -0.3860 -0.1830 -0.0488
28367DOD     C228921  14.257  18.958  26.148 -0.0043 -0.0651  0.1648
28367DOD     C328922  14.646  19.124  26.304  0.0251 -0.1007  0.0409
28368DOD     C128923   0.663  20.777  14.618  0.2244  0.0954  0.0299
28368DOD     C228924   1.075  20.639  14.782 -0.0240 -0.1072 -0.0096
28368DOD     C328925   1.464  20.396  14.789 -0.0356 -0.2209  0.1096
28369DOD     C128926  23.626   0.756  16.639 -0.1001 -0.1757 -0.0816
28369DOD     C228927  23.188   0.585  16.598  0.0752 -0.1249  0.1184
28369DOD     C328928  22.799   0.361  16.739  0.0467 -0.2809  0.0098
28370DOD     C128929  26.664  29.138  25.267 -0.4675  0.1276  0.0568
28370DOD     C228930  26.801  29.454  24.977  0.0098  0.0816  0.4043
28370DOD     C328931  27.179  29.763  24.901  0.1055  0.0915 -0.0266
28371DOD     C128932  25.411  22.211   9.186 -0.2285  0.2492 -0.0031
28371DOD     C228933  25.024  22.036   9.153  0.0010  0.0527  0.0047
28371DOD     C328934  24.672  21.899   9.445 -0.0042 -0.0380 -0.0997
28372DOD     C128935  28.616  22.718   0.480  0.3182 -0.0439  0.2276
28372DOD     C228936  28.928  22.598   0.195 -0.0606  0.0927  0.0470
28372DOD     C328937  29.197  22.463  30.184 -0.1091  0.1425 -0.1986
28373DOD     C128938  12.509  28.970  27.293 -0.1820 -0.2041 -0.2604
28373DOD     C228939  12.896  29.106  27.277 -0.3943  0.1902  0.1999
28373DOD     C328940  13.242  29.382  27.144 -0.2068 -0.2781 -0.1963
28374DOD     C128941   4.717   6.516  25.365 -0.2434  0.0686 -0.1093
28374DOD     C228942   5.203   6.508  25.290 -0.0740  0.1444 -0.0014
28374DOD     C328943   5.515   6.687  25.003  0.2127  0.0589  0.1992
28375DOD     C128944   3.270  20.560   3.387 -0.1613 -0.2644  0.2829
28375DOD     C228945   3.448  20.915   3.243 -0.0243 -0.0095 -0.0838
28375DOD     C328946   3.365  21.337   3.086 -0.2050 -0.0275 -0.3582
28376DOD     C128947   8.583   0.023  28.671  0.0363 -0.0015  0.1181
28376DOD     C228948   8.700   0.219  28.275  0.0382 -0.1547  0.1128
28376DOD     C328949   8.772   0.396  27.855 -0.0636  0.2994 -0.1545
28377DOD     C128950   4.820  23.776  15.949  0.1411 -0.1212  0.2866
28377DOD     C228951   4.773  24.142  16.258  0.0342 -0.0694 -0.0597
28377DOD     C328952   5.076  24.160  16.652  0.0574 -0.2131 -0.1199
28378DOD     C128953  25.294  24.433  25.850  0.1131  0.2605  0.5191
28378DOD     C228954  24.918  24.496  25.505  0.1404  0.0468  0.2710
28378DOD     C328955  24.734  24.448  25.092 -0.1288 -0.0053 -0.1610
28379DOD     C128956   0.514  17.053  28.853 -0.1303  0.1181 -0.0140
28379DOD     C228957   0.223  17.101  28.474  0.0240  0.1516  0.1814
28379DOD     C328958  30.256  17.181  28.107 -0.1667  0.4175 -0.4217
28380DOD     C128959  27.638  16.044   1.115  0.0954  0.1571 -0.0900
28380DOD     C228960  27.501  16.008   0.643  0.0605 -0.1497  0.1432
28380DOD     C328961  27.482  15.766   0.199 -0.0443  0.2222 -0.4205
28381DOD     C128962   0.562  12.274  27.048  0.0969 -0.0353  0.0754
28381DOD     C228963   0.535  12.274  27.457  0.0836 -0.0725 -0.1336
28381DOD     C328964   0.447  12.392  27.934 -0.4449 -0.1030 -0.1665
28382DOD     C128965   9.556  18.873  24.422  0.3720 -0.2363 -0.0101
28382DOD     C228966   9.496  18.674  24.057 -0.0400  0.3454  0.0988
28382DOD     C328967   9.543  18.208  24.009  0.4276  0.1429 -0.0957
28383DOD     C128968  15.529  13.871  16.987 -0.0027  0.2084 -0.0964
28383DOD     C228969  15.993  13.823  16.813 -0.1619  0.2010  0.0482
28383DOD     C328970  16.216  14.109  16.507  0.0318 -0.1573 -0.1390
28384DOD     C128971   5.621   4.623   6.934  0.0564  0.1135  0.0335
28384DOD     C228972   6.026   4.688   6.679 -0.1167  0.2253 -0.2724
28384DOD     C328973   6.381   4.499   6.491  0.3987  0.3101  0.1506
28385DOD     C128974  18.450  17.651   5.354 -0.0994 -0.1655 -0.1841
28385DOD     C228975  18.244  17.308   5.474  0.0277 -0.2745 -0.2838
28385DOD     C328976  17.819  17.189   5.672  0.1575 -0.2133  0.0660
28386DOD     C128977  14.053   8.610   9.090 -0.0625  0.0545 -0.0243
28386DOD     C228978  13.901   8.394   9.513  0.0451 -0.1154 -0.2031
28386DOD     C328979  13.821   8.137   9.933  0.2571  0.2010  0.2009
28387DOD     C128980   6.207  15.710   2.732 -0.1025  0.0161  0.1050
28387DOD     C228981   6.256  15.343   2.469 -0.1610  0.1412  0.2777
28387DOD     C328982   6.486  15.042   2.793  0.1183 -0.1014  0.3033
28388DOD     C128983  24.036  20.242   1.126 -0.0209 -0.0332  0.1213
28388DOD     C228984  23.963  19.796   1.052 -0.1338 -0.2894 -0.2700
28388DOD     C328985  23.939  19.466   1.319 -0.2943  0.0676 -0.0382
28389DOD     C128986   6.643  17.009   9.842 -0.1034  0.2513 -0.2041
28389DOD     C228987   6.973  17.062  10.189 -0.0752  0.4033  0.3018
28389DOD     C328988   7.315  17.350  10.325 -0.1157  0.0399  0.0991
28390DOD     C128989  22.458  25.300  20.033  0.4527 -0.0059 -0.1642
28390DOD     C228990  22.169  25.036  19.760 -0.1113  0.2388 -0.1745
28390DOD     C328991  21.870  24.812  19.520  0.2981 -0.0596 -0.1403
28391DOD     C128992  29.022  11.549   2.792  0.1433 -0.0635 -0.0649
28391DOD     C228993  29.116  11.364   2.335  0.0056  0.0676 -0.0422
28391DOD     C328994  29.201  10.968   2.036  0.3409  0.2767 -0.3152
28392DOD     C128995  24.917  13.932  26.261 -0.0564 -0.1812 -0.0712
28392DOD     C228996  24.767  14.160  26.664 -0.0993 -0.1985 -0.1742
28392DOD     C328997  24.469  14.211  26.985  0.2995  0.0518  0.0353
28393DOD     C128998  10.779   2.239  26.965  0.0029  0.0341 -0.1135
28393DOD     C228999  10.651   2.043  26.500  0.1622 -0.2746  0.2707
28393DOD     C329000  10.742   1.884  26.049 -0.2894 -0.2207  0.0300
28394DOD     C129001   9.341  21.700  13.986 -0.0765 -0.1077 -0.3468
28394DOD     C229002   9.617  21.943  13.709 -0.1056  0.1466 -0.2288
28394DOD     C329003   9.731  22.391  13.579  0.2845 -0.0758 -0.0510
28395DOD     C129004   6.719   0.090   4.404  0.0979 -0.0611  0.1926
28395DOD     C229005   6.689  30.290   4.820  0.2565  0.2023  0.2379
28395DOD     C329006   7.113   0.069   4.972 -0.1039  0.0926 -0.2367
28396DOD     C129007  15.265  21.474  11.827 -0.0436 -0.1705 -0.2518
28396DOD     C229008  15.190  21.942  11.824 -0.0086  0.2750 -0.1387
28396DOD     C329009  15.378  22.327  11.626 -0.1836  0.0833  0.2211
28397DOD     C129010   5.094  14.733  10.446 -0.0792  0.0548  0.1219
28397DOD     C229011   4.778  14.407  10.559 -0.3332  0.3420  0.1926
28397DOD     C329012   4.481  14.311  10.875 -0.2457 -0.0994  0.1775
28398DOD     C129013   5.117  16.106  19.832 -0.3125 -0.2482 -0.1488
28398DOD     C229014   4.861  16.046  20.184 -0.0413  0.1440  0.0589
28398DOD     C329015   4.745  15.677  20.388 -0.2209 -0.4527  0.2080
28399DOD     C129016  13.162  12.068  17.465  0.0272 -0.0032  0.0679
28399DOD     C229017  13.616  12.109  17.438 -0.2011  0.2477  0.2778
28399DOD     C329018  14.073  12.076  17.654 -0.0546  0.1082  0.0661
28400DOD     C129019  13.250   0.656   4.322  0.3515  0.0161 -0.2672
28400DOD     C229020  12.866   0.943   4.466  0.2479  0.1310 -0.2035
28400DOD     C329021  12.539   1.303   4.536  0.1567 -0.0229  0.1587
28401DOD     C129022  21.753   4.958  17.016 -0.0489  0.1214  0.4619
28401DOD     C229023  21.833   4.517  17.190 -0.2702 -0.0466 -0.0038
28401DOD     C329024  22.037   4.150  17.086  0.0866  0.1913  0.2783
28402DOD     C129025  13.457  25.522  25.480  0.0589  0.2836 -0.1615
28402DOD     C229026  13.811  25.251  25.601 -0.0313  0.2487  0.0441
28402DOD     C329027  14.185  25.026  25.743  0.1841  0.2048 -0.1344
28403DOD     C129028   6.101  14.600  26.210  0.1180  0.2749 -0.0226
28403DOD     C229029   6.562  14.547  26.088  0.1893  0.4029  0.0477
28403DOD     C329030   6.776  14.139  25.933  0.3033  0.0751 -0.2985
28404DOD     C129031  20.440  15.187   1.065 -0.1230 -0.0305 -0.2401
28404DOD     C229032  20.551  14.773   1.128  0.0933 -0.0515 -0.0172
28404DOD     C329033  20.522  14.461   1.509 -0.2863 -0.1610  0.0694
28405DOD     C129034  28.271   3.466  17.310 -0.1777 -0.0810 -0.1382
28405DOD     C229035  28.327   3.267  16.923 -0.0225 -0.0315 -0.0922
28405DOD     C329036  28.170   3.012  16.563  0.0066  0.1366  0.0198
28406DOD     C129037  24.356  27.283   3.913 -0.2196  0.1120  0.0108
28406DOD     C229038  24.048  27.097   4.213 -0.2040 -0.1296  0.0353
28406DOD     C329039  24.063  27.294   4.660  0.0815  0.0331  0.1964
28407DOD     C129040  25.250  11.693  25.606 -0.1053  0.1187  0.1363
28407DOD     C229041  25.732  11.755  25.464  0.3618  0.3001  0.1517
28407DOD     C329042  26.027  11.848  25.126  0.0073  0.2110  0.4584
28408DOD     C129043  28.488  20.541  10.976  0.3693 -0.2154 -0.1154
28408DOD     C229044  28.454  20.456  11.428 -0.1838  0.0727  0.0936
28408DOD     C329045  28.520  20.144  11.777  0.2828  0.1018 -0.2288
28409DOD     C129046  28.176  10.687   0.282  0.1207  0.1031  0.0649
28409DOD     C229047  28.532  10.395   0.215  0.1279 -0.0938 -0.0808
28409DOD     C329048  28.765  10.028   0.190 -0.2241  0.0083 -0.0880
28410DOD     C129049  25.203  19.463   3.101 -0.0634  0.3178 -0.2781
28410DOD     C229050  25.165  19.098   3.413  0.1622 -0.1174 -0.0945
28410DOD     C329051  25.240  19.159   3.848 -0.0872  0.0893 -0.2158
28411DOD     C129052   3.687  20.938  25.271 -0.1146  0.0588  0.0033
28411DOD     C229053   3.689  20.605  25.686 -0.1705 -0.4270  0.2714
28411DOD     C329054   3.526  20.629  26.156  0.0319  0.1166 -0.2205
28412DOD     C129055  17.322  11.488   8.200 -0.1095  0.0438 -0.1187
28412DOD     C229056  17.393  11.140   7.910 -0.0690 -0.2854 -0.1822
28412DOD     C329057  17.296  10.805   7.622  0.0293  0.1147 -0.1014
28413DOD     C129058  23.095  18.378  26.216  0.3558 -0.0111 -0.0154
28413DOD     C229059  22.815  18.577  25.862 -0.1248 -0.1713 -0.1319
28413DOD     C329060  22.663  18.963  26.047 -0.2309 -0.0461  0.0374
28414DOD     C129061   2.542  29.678  11.166 -0.0197  0.1667  0.2839
28414DOD     C229062   2.974  29.759  11.349 -0.0305 -0.0885 -0.0760
28414DOD     C329063   3.411  29.879  11.488 -0.0317 -0.0576 -0.1011
28415DOD     C129064  26.042  19.273  18.352 -0.1111 -0.1642  0.2876
28415DOD     C229065  25.699  19.050  18.625  0.1462 -0.0518 -0.0844
28415DOD     C329066  25.464  19.094  19.053 -0.0835 -0.0370  0.1959
28416DOD     C129067  26.700  12.393  10.985  0.2398 -0.1450  0.0196
28416DOD     C229068  26.627  12.607  11.392  0.0636 -0.1593  0.0270
28416DOD     C329069  26.553  12.976  11.646 -0.1572  0.0469 -0.1483
28417DOD     C129070  21.797   9.442   4.661  0.1247  0.2102  0.2994
28417DOD     C229071  21.957   9.583   4.280 -0.1752  0.0313  0.0934
28417DOD     C329072  22.229   9.769   3.898 -0.1558  0.1312  0.1118
28418DOD     C129073  25.361   4.971  13.733 -0.0874  0.0785 -0.2082
28418DOD     C229074  25.200   4.908  13.279 -0.2010  0.2680  0.0240
28418DOD     C329075  25.235   4.571  12.907 -0.1958  0.0056 -0.0638
28419DOD     C129076  23.497   5.695   7.015  0.0963 -0.3974 -0.0172
28419DOD     C229077  23.365   5.301   7.116  0.1712  0.0659  0.2174
28419DOD     C329078  23.069   5.009   7.005 -0.1590 -0.2904  0.0733
28420DOD     C129079  13.154  10.102   8.652 -0.1266  0.0434 -0.1042
28420DOD     C229080  12.954  10.407   8.349  0.2001  0.1602 -0.2439
28420DOD     C329081  12.676  10.693   8.159  0.0524 -0.0125  0.2812
28421DOD     C129082  24.043   3.469  26.850 -0.2878 -0.2791  0.0706
28421DOD     C229083  24.304   3.491  26.498  0.0111 -0.1221 -0.2766
28421DOD     C329084  24.554   3.340  26.147  0.0424  0.0876 -0.3235
28422DOD     C129085   5.792  11.408  28.531  0.1431  0.6359  0.1149
28422DOD     C229086   5.501  11.641  28.787  0.0593  0.2724  0.0592
28422DOD     C329087   5.509  12.095  28.944  0.2253  0.0128  0.2707
28423DOD     C129088  21.629  12.684  21.448  0.1324  0.0593 -0.0239
28423DOD     C229089  21.548  12.506  21.812 -0.1319 -0.1307  0.1294
28423DOD     C329090  21.378  12.447  22.235  0.0968  0.1773 -0.2004
28424DOD     C129091  24.213  14.651   2.766 -0.3035 -0.3518  0.1775
28424DOD     C229092  23.787  14.706   2.920  0.2497  0.0555 -0.1734
28424DOD     C329093  23.379  14.615   2.799 -0.1025 -0.0280 -0.2116
28425DOD     C129094   7.387  25.696  19.493 -0.0204 -0.0797  0.0455
28425DOD     C229095   7.429  26.067  19.192 -0.4678 -0.1723  0.2200
28425DOD     C329096   7.309  26.347  18.823  0.1835 -0.0679 -0.1752
28426DOD     C129097  20.474  11.860  11.553 -0.0340  0.1376 -0.2428
28426DOD     C229098  20.113  12.035  11.701  0.1775  0.1582  0.0679
28426DOD     C329099  19.963  12.290  12.082 -0.3646 -0.1142 -0.1049
28427DOD     C129100  19.845  20.362   1.429 -0.0405 -0.0540  0.0151
28427DOD     C229101  19.707  20.479   1.855 -0.0975  0.0094 -0.0830
28427DOD     C329102  19.329  20.639   2.035  0.1348 -0.0970 -0.1940
28428DOD     C129103  14.530  19.802  19.389 -0.3520  0.0264  0.2244
28428DOD     C229104  14.906  20.009  19.612  0.3274  0.0529  0.1937
28428DOD     C329105  15.388  20.108  19.634 -0.3943 -0.0137 -0.0482
28429DOD     C129106  28.841  30.094  29.121  0.1176 -0.3360 -0.0288
28429DOD     C229107  28.926   0.231  28.983 -0.0084 -0.0297 -0.0845
28429DOD     C329108  28.999   0.703  28.810 -0.1482  0.0114 -0.2654
28430DOD     C129109  22.668   5.907  21.379  0.0747  0.0195 -0.1603
28430DOD     C229110  22.991   5.901  20.979 -0.0643 -0.1378 -0.1755
28430DOD     C329111  23.301   6.238  20.837 -0.0694 -0.2096  0.1283
28431DOD     C129112  29.367   2.878  26.142  0.1555  0.2799  0.2831
28431DOD     C229113  29.106   2.475  26.053 -0.1358  0.3734 -0.1281
28431DOD     C329114  28.956   2.162  25.694  0.0731 -0.1137 -0.0421
28432DOD     C129115   9.358   9.578  28.684  0.4115  0.0054  0.0001
28432DOD     C229116   9.842   9.454  28.691  0.3220 -0.0582 -0.2348
28432DOD     C329117  10.190   9.164  28.677 -0.0395 -0.0166  0.3171
28433DOD     C129118  27.818  26.186  23.512  0.1039 -0.0857 -0.1443
28433DOD     C229119  27.872  26.653  23.621  0.0145 -0.1861  0.0401
28433DOD     C329120  27.897  26.998  23.332 -0.0528 -0.1773 -0.1650
28434DOD     C129121  10.330   2.465  15.779 -0.0382  0.4907 -0.1066
28434DOD     C229122  10.435   1.962  15.818 -0.0689 -0.3007 -0.3527
28434DOD     C329123  10.708   1.744  16.197 -0.0089  0.0183  0.2149
28435DOD     C129124   0.246  16.490  23.537 -0.1349 -0.1117  0.0409
28435DOD     C229125  30.267  16.209  23.801 -0.0257 -0.1580 -0.0304
28435DOD     C329126  29.947  15.912  23.944 -0.0216 -0.0074  0.3447
28436DOD     C129127  16.792  15.369  30.121  0.1660 -0.0527 -0.1799
28436DOD     C229128  16.360  15.594  30.119 -0.1322  0.0764 -0.0429
28436DOD     C329129  15.972  15.708  30.331 -0.1272  0.2290  0.1021
28437DOD     C129130  11.617   0.411   9.062  0.1316  0.2493  0.2282
28437DOD     C229131  11.475   0.118   9.450  0.0650 -0.0770 -0.0367
28437DOD     C329132  11.506  30.203   9.848 -0.0899  0.0185  0.0582
28438DOD     C129133   3.599  19.092   6.191  0.0844  0.1448 -0.2998
28438DOD     C229134   4.030  19.094   6.258 -0.1862  0.0594 -0.2019
28438DOD     C329135   4.446  19.020   6.056 -0.2553  0.1353 -0.0528
28439DOD     C129136   3.884  25.536   6.179 -0.0406  0.3325 -0.0264
28439DOD     C229137   4.074  25.927   6.385  0.0424  0.0228  0.3084
28439DOD     C329138   4.075  26.218   6.742  0.0378 -0.2681  0.0060
28440DOD     C129139   6.874  20.236   8.359  0.0170  0.0907 -0.0622
28440DOD     C229140   7.120  20.075   8.726  0.0920 -0.0046 -0.1534
28440DOD     C329141   7.271  19.910   9.039  0.1942 -0.0323  0.0371
28441DOD     C129142   8.987  15.976  19.760  0.0188  0.1458  0.0765
28441DOD     C229143   9.101  15.492  19.568  0.0959 -0.2457 -0.0172
28441DOD     C329144   9.475  15.189  19.601  0.1007  0.0532 -0.3386
28442DOD     C129145  16.948  22.386  12.729  0.1403  0.0251 -0.1537
28442DOD     C229146  17.035  22.367  13.159  0.0526 -0.3417  0.0246
28442DOD     C329147  17.365  22.158  13.443 -0.1702 -0.0785  0.0331
28443DOD     C129148  26.812   5.550   7.670 -0.2232 -0.1096  0.2690
28443DOD     C229149  26.851   5.728   7.214 -0.3569 -0.1871 -0.1237
28443DOD     C329150  26.651   5.625   6.807  0.0447 -0.1862 -0.3358
28444DOD     C129151   1.599  16.920  15.881 -0.1203  0.1791 -0.1425
28444DOD     C229152   1.954  16.689  15.765  0.1424  0.2752 -0.5173
28444DOD     C329153   2.234  16.333  15.654 -0.0243 -0.0649  0.2227
28445DOD     C129154   8.218   9.579  10.883 -0.0549 -0.1514 -0.3897
28445DOD     C229155   8.404   9.137  10.844  0.1382  0.2123  0.1011
28445DOD     C329156   8.847   9.048  10.842  0.1580  0.2210  0.0334
28446DOD     C129157  18.854   6.857  13.143 -0.1606 -0.1624  0.0826
28446DOD     C229158  18.620   7.065  13.444 -0.0705  0.0336 -0.0303
28446DOD     C329159  18.399   7.482  13.459 -0.2126 -0.0165  0.2481
28447DOD     C129160  22.811   3.834   7.321  0.2474 -0.1955 -0.1084
28447DOD     C229161  23.171   3.563   7.425 -0.4848  0.2525  0.0545
28447DOD     C329162  23.333   3.134   7.538 -0.2002  0.0096 -0.0925
28448DOD     C129163  10.166  21.131  11.489  0.1866  0.1391 -0.1985
28448DOD     C229164  10.062  21.308  11.928  0.0194  0.1600  0.2130
28448DOD     C329165  10.076  21.384  12.393 -0.1995 -0.1358  0.0235
28449DOD     C129166   3.240  20.604  25.451 -0.2689 -0.4410  0.2227
28449DOD     C229167   3.008  20.425  25.788  0.1353  0.2120  0.3554
28449DOD     C329168   2.621  20.336  26.005  0.1158 -0.0758  0.4638
28450DOD     C129169  17.907  15.869  26.128  0.1974  0.1095 -0.0064
28450DOD     C229170  17.603  15.603  26.321 -0.1210 -0.0825  0.2351
28450DOD     C329171  17.320  15.610  26.664  0.0830  0.2519  0.1647
28451DOD     C129172   4.578  23.998   9.769 -0.0353 -0.0871 -0.2531
28451DOD     C229173   4.389  23.668   9.569  0.0402 -0.0381 -0.4601
28451DOD     C329174   4.349  23.189   9.417  0.0126  0.2973 -0.1112
28452DOD     C129175   1.777  19.335  28.361  0.2844  0.2236  0.2718
28452DOD     C229176   2.095  18.970  28.331 -0.0307  0.1501  0.3323
28452DOD     C329177   2.397  18.555  28.281 -0.0110 -0.1929 -0.0194
28453DOD     C129178   4.941  12.334   2.817 -0.0324  0.2906 -0.1178
28453DOD     C229179   5.020  12.494   3.221 -0.0394 -0.0050  0.0989
28453DOD     C329180   5.241  12.915   3.237 -0.0453 -0.0488 -0.0447
28454DOD     C129181  27.105  18.721  22.586  0.1821  0.0360  0.1337
28454DOD     C229182  26.769  18.416  22.768  0.1332  0.1774  0.1046
28454DOD     C329183  26.445  18.180  23.002 -0.1620  0.1040 -0.0775
28455DOD     C129184  24.952  12.006  18.096 -0.0207  0.0482 -0.1740
28455DOD     C229185  25.300  12.027  17.727  0.0586 -0.3957 -0.1141
28455DOD     C329186  25.576  12.115  17.373 -0.0429  0.0906  0.0803
28456DOD     C129187  30.169  29.658  21.253 -0.1486 -0.0167 -0.0697
28456DOD     C229188  29.813  29.414  20.988 -0.0967 -0.1980 -0.1173
28456DOD     C329189  29.430  29.439  20.654 -0.2376 -0.0453 -0.2555
28457DOD     C129190   4.608   2.706  16.086  0.0079  0.1675  0.0458
28457DOD     C229191   4.831   2.624  15.672 -0.1381 -0.0809  0.2156
28457DOD     C329192   5.039   2.660  15.240  0.0022 -0.0421  0.0523
28458DOD     C129193  20.217  11.520   2.592 -0.0146 -0.0066 -0.1311
28458DOD     C229194  20.575  11.715   2.340  0.3375  0.1774  0.1804
28458DOD     C329195  20.739  12.095   2.484 -0.0445  0.0496  0.0273
28459DOD     C129196   4.197   4.855  21.901 -0.1399 -0.1872 -0.0457
28459DOD     C229197   4.299   4.685  21.483  0.1095 -0.0233 -0.2459
28459DOD     C329198   4.453   4.611  21.027 -0.1944 -0.0371 -0.3308
28460DOD     C129199  11.590   8.899  20.660  0.2391 -0.0972  0.0356
28460DOD     C229200  12.032   8.853  20.903  0.1656  0.1097 -0.0483
28460DOD     C329201  12.422   9.101  20.954  0.0760  0.0898 -0.5160
28461DOD     C129202   4.833   2.113  12.900  0.2497 -0.0074 -0.0044
28461DOD     C229203   4.941   2.134  12.498 -0.3326 -0.2646 -0.0337
28461DOD     C329204   5.046   1.777  12.182 -0.2604  0.0068  0.0636
28462DOD     C129205  10.949  16.069  19.832  0.1104 -0.2190 -0.0064
28462DOD     C229206  11.000  16.522  19.822 -0.2309  0.0576 -0.2322
28462DOD     C329207  11.212  16.842  19.473  0.2438  0.5007 -0.0480
28463DOD     C129208  30.278  18.965  19.181 -0.0030 -0.1285  0.0206
28463DOD     C229209  29.983  19.113  19.480  0.0027 -0.1517  0.1342
28463DOD     C329210  30.094  19.323  19.887 -0.2003 -0.2800  0.1736
28464DOD     C129211   9.940   0.027  27.198 -0.2382  0.1783  0.0097
28464DOD     C229212   9.760   0.211  27.635  0.0812 -0.0613  0.0824
28464DOD     C329213   9.545   0.285  27.974  0.0864  0.1391 -0.2135
28465DOD     C129214  26.910  19.840  13.386 -0.1469  0.3873  0.1368
28465DOD     C229215  27.122  19.904  13.800 -0.0271  0.0262 -0.3426
28465DOD     C329216  27.325  20.049  14.159  0.0752 -0.1038  0.0471
28466DOD     C129217   4.088  18.521   4.055  0.0428  0.3988  0.0438
28466DOD     C229218   3.890  18.908   4.167  0.1295 -0.2327 -0.3836
28466DOD     C329219   3.955  19.202   4.516  0.0092  0.1645  0.2226
28467DOD     C129220  15.435  23.035   9.403 -0.0423 -0.0370 -0.0058
28467DOD     C229221  15.600  23.286   9.029 -0.0372  0.1713  0.0748
28467DOD     C329222  15.417  23.601   8.768  0.2065 -0.2713 -0.1631
28468DOD     C129223  16.294  29.123  23.513  0.2633  0.1652 -0.1596
28468DOD     C229224  16.607  29.236  23.846  0.1837  0.1408  0.4749
28468DOD     C329225  16.915  29.531  24.071  0.2116 -0.3288 -0.1690
28469DOD     C129226  10.752  22.151   7.085  0.1485 -0.3010 -0.0673
28469DOD     C229227  11.125  21.949   7.059  0.2131 -0.2621  0.1651
28469DOD     C329228  11.569  21.808   7.050  0.2053 -0.0297 -0.0975
28470DOD     C129229  16.674  19.735   3.678 -0.2947  0.2638 -0.0241
28470DOD     C229230  16.643  19.746   3.192  0.1750  0.0460  0.1166
28470DOD     C329231  16.825  19.667   2.775 -0.0756  0.0794  0.1565
28471DOD     C129232   2.213  15.058  21.349  0.2253 -0.3512  0.1091
28471DOD     C229233   2.277  15.464  21.518 -0.3387  0.1388  0.2716
28471DOD     C329234   2.458  15.833  21.362 -0.0645  0.1007 -0.1403
28472DOD     C129235   6.117  27.107   1.747  0.1120  0.1043  0.1046
28472DOD     C229236   6.028  27.309   2.127 -0.2712  0.0111 -0.0261
28472DOD     C329237   5.663  27.550   2.327  0.0057  0.1082 -0.0057
28473DOD     C129238  27.249  18.576   6.169 -0.1689  0.2285  0.0332
28473DOD     C229239  27.652  18.652   6.066 -0.0431 -0.3510 -0.3622
28473DOD     C329240  27.887  19.008   6.116 -0.0562 -0.0591 -0.0819
28474DOD     C129241   5.028  26.594  25.989  0.2207  0.2905  0.1778
28474DOD     C229242   5.462  26.641  26.213 -0.2162 -0.1035 -0.2176
28474DOD     C329243   5.735  26.302  26.242  0.0218 -0.0342 -0.2899
28475DOD     C129244   7.324   0.059   8.533  0.1200  0.1083 -0.1771
28475DOD     C229245   6.969   0.275   8.357 -0.2779  0.2562 -0.0460
28475DOD     C329246   6.817   0.376   7.881  0.1211  0.1130 -0.0769
28476DOD     C129247  17.046   5.472   8.761 -0.2227 -0.0768 -0.3325
28476DOD     C229248  17.490   5.476   8.871  0.1546  0.1688  0.3173
28476DOD     C329249  17.822   5.573   8.521 -0.2354  0.0811  0.1161
28477DOD     C129250  11.754  11.151  22.754  0.2754  0.1939  0.1597
28477DOD     C229251  11.530  11.423  23.126  0.0786  0.1458 -0.1214
28477DOD     C329252  11.681  11.533  23.566 -0.0997  0.1731  0.2862
28478DOD     C129253  24.938  16.036  18.296 -0.1001 -0.1048 -0.1339
28478DOD     C229254  24.644  15.661  18.322 -0.1820  0.1244  0.0334
28478DOD     C329255  24.315  15.322  18.595 -0.1321 -0.1771  0.1561
28479DOD     C129256  19.170   2.157   0.879 -0.1921 -0.2629  0.1024
28479DOD     C229257  18.777   2.410   0.921 -0.0493 -0.1473 -0.2617
28479DOD     C329258  18.326   2.466   0.824 -0.2684  0.1348 -0.0396
28480DOD     C129259  14.577  13.859  29.255  0.0704 -0.1502  0.0958
28480DOD     C229260  14.666  14.264  29.094  0.0600 -0.2194 -0.2267
28480DOD     C329261  15.037  14.434  28.850  0.1123 -0.1503  0.0806
28481DOD     C129262  25.466   4.381  15.582  0.0632  0.1561 -0.0063
28481DOD     C229263  25.039   4.505  15.383  0.1450  0.0042  0.1072
28481DOD     C329264  24.589   4.538  15.468  0.2238 -0.0071  0.0305
28482DOD     C129265   5.314   8.494  29.442 -0.1587  0.1357 -0.2284
28482DOD     C229266   5.684   8.735  29.567 -0.0220  0.1788  0.0886
28482DOD     C329267   6.116   8.973  29.569  0.3818 -0.0698 -0.0199
28483DOD     C129268  25.840  28.453   8.348  0.1673  0.2069 -0.1652
28483DOD     C229269  25.684  28.889   8.280  0.0167  0.0727  0.5296
28483DOD     C329270  25.810  29.305   8.293 -0.0789 -0.1180  0.2745
28484DOD     C129271   7.068  17.256   7.180 -0.0079 -0.1477 -0.1032
28484DOD     C229272   6.642  17.065   7.268  0.1052 -0.1859  0.0305
28484DOD     C329273   6.156  17.020   7.089  0.2798 -0.1446 -0.0257
28485DOD     C129274   8.360  24.506  21.326 -0.1027  0.2385 -0.1512
28485DOD     C229275   8.820  24.643  21.163 -0.1763  0.0427  0.0193
28485DOD     C329276   9.230  24.523  21.202 -0.0057 -0.1280 -0.0740
28486DOD     C129277  24.490  27.691  15.303 -0.2932  0.1188 -0.0070
28486DOD     C229278  24.453  27.229  15.424  0.0169 -0.0101 -0.1234
28486DOD     C329279  24.444  26.900  15.783 -0.0225 -0.0991  0.0029
28487DOD     C129280   0.022   2.965  17.934 -0.0130 -0.0053  0.2306
28487DOD     C229281  30.086   2.624  18.080  0.0344 -0.2582 -0.1344
28487DOD     C329282  30.232   2.199  18.151  0.1002 -0.2352 -0.3530
28488DOD     C129283  18.045  10.081   2.681 -0.2638 -0.1488 -0.2363
28488DOD     C229284  17.716  10.337   2.893  0.0438  0.0390  0.2055
28488DOD     C329285  17.255  10.327   2.979 -0.0462 -0.2150  0.2562
28489DOD     C129286   3.020   4.198  20.052 -0.1290 -0.2959  0.3780
28489DOD     C229287   2.602   4.443  20.057 -0.0526 -0.1434 -0.0561
28489DOD     C329288   2.160   4.620  19.982  0.1089 -0.1320 -0.1819
28490DOD     C129289  30.052   5.669   6.965  0.0758 -0.0614  0.1083
28490DOD     C229290  29.776   5.563   6.611 -0.0721  0.3206  0.2819
28490DOD     C329291  29.724   5.355   6.214  0.0249 -0.1339 -0.2759
28491DOD     C129292   6.731   5.118  29.632 -0.3618 -0.0477 -0.0027
28491DOD     C229293   7.040   4.853  29.415  0.0568  0.1061  0.0722
28491DOD     C329294   7.464   4.867  29.196 -0.0096  0.0023  0.0235
28492DOD     C129295   4.220   6.088   8.141 -0.1691  0.5316  0.2390
28492DOD     C229296   4.103   6.030   8.573  0.0006 -0.1150  0.1668
28492DOD     C329297   3.948   6.039   8.980 -0.0158 -0.1809  0.0866
28493DOD     C129298  16.247  27.925  24.338 -0.0551 -0.3312 -0.0632
28493DOD     C229299  15.757  28.010  24.222 -0.0148  0.0416  0.0502
28493DOD     C329300  15.324  28.238  24.330 -0.1353  0.0661  0.1523
28494DOD     C129301  28.035   5.157   1.799 -0.0139  0.0389  0.1704
28494DOD     C229302  28.417   5.004   1.657  0.0248 -0.0045 -0.1430
28494DOD     C329303  28.858   4.891   1.730 -0.0150  0.0333 -0.1817
28495DOD     C129304  24.257  11.931  25.733  0.0547 -0.1586 -0.3027
28495DOD     C229305  24.330  11.907  25.330 -0.2635  0.3747  0.1613
28495DOD     C329306  24.568  11.839  24.881  0.0985  0.2382 -0.3811
28496DOD     C129307   2.003  24.272  15.516 -0.1694 -0.2080  0.0840
28496DOD     C229308   2.289  23.956  15.360 -0.0628  0.0106  0.0082
28496DOD     C329309   2.380  23.531  15.258  0.0212 -0.0449  0.1099
28497DOD     C129310   2.822  10.863  15.456 -0.1770  0.0743 -0.3330
28497DOD     C229311   2.869  11.379  15.502  0.5093  0.3086  0.0066
28497DOD     C329312   2.907  11.704  15.792  0.0367 -0.0667  0.3237
28498DOD     C129313  23.672  13.376  22.851  0.1100  0.1074 -0.1918
28498DOD     C229314  24.069  13.612  23.115 -0.0369 -0.0935  0.1127
28498DOD     C329315  24.239  14.052  23.064  0.1113 -0.3093 -0.3123
28499DOD     C129316  20.870   1.367   6.320  0.2066 -0.3741  0.0655
28499DOD     C229317  21.232   1.103   6.164  0.0671 -0.4727 -0.0193
28499DOD     C329318  21.656   1.215   6.066  0.3675 -0.1643 -0.0317
28500DOD     C129319  26.556  23.926   4.541 -0.3027  0.4244  0.1289
28500DOD     C229320  26.775  23.795   4.950  0.0884 -0.0895 -0.1839
28500DOD     C329321  26.919  23.354   5.067  0.2924 -0.1375  0.2116
28501DOD     C129322   4.452  21.608  12.869 -0.2571  0.0865 -0.0204
28501DOD     C229323   4.055  21.469  12.946 -0.0903 -0.1030 -0.0165
28501DOD     C329324   3.685  21.246  12.756  0.1767  0.0075 -0.0409
28502DOD     C129325  22.200  23.915   9.771  0.0912  0.1858 -0.2053
28502DOD     C229326  21.735  24.073   9.832 -0.0952 -0.1727  0.0461
28502DOD     C329327  21.323  24.389   9.864  0.1356 -0.2745  0.3206
28503DOD     C129328  29.679   8.137  12.881  0.0048  0.0602  0.0081
28503DOD     C229329  29.893   8.536  12.814  0.0145 -0.1697 -0.2638
28503DOD     C329330  30.139   8.901  12.849 -0.4493 -0.0780  0.0919
28504DOD     C129331   6.171  11.887   9.304  0.1045 -0.2442 -0.0747
28504DOD     C229332   6.259  11.761   9.793 -0.2669 -0.2458  0.1201
28504DOD     C329333   6.130  12.110  10.117  0.0601  0.0704  0.0004
28505DOD     C129334  27.121  17.996   5.066 -0.2715 -0.1927  0.0010
28505DOD     C229335  26.850  17.826   5.430  0.0635 -0.0694  0.3897
28505DOD     C329336  26.508  17.872   5.746  0.0500  0.2317 -0.2096
28506DOD     C129337  23.044  25.932   4.747  0.0567  0.0926  0.1497
28506DOD     C229338  23.334  26.288   4.796 -0.1800 -0.2296  0.2536
28506DOD     C329339  23.511  26.703   4.895 -0.0803  0.1560  0.0212
28507DOD     C129340  29.944  22.913  16.329 -0.0313 -0.3002 -0.0397
28507DOD     C229341  30.166  22.648  15.993 -0.2458  0.1104 -0.1939
28507DOD     C329342   0.111  22.262  15.829 -0.2312 -0.0081 -0.0382
28508DOD     C129343  24.018   2.283   1.346  0.1897 -0.0173  0.1902
28508DOD     C229344  23.749   2.170   1.027  0.1440 -0.0143 -0.1120
28508DOD     C329345  23.435   2.363   0.687 -0.1313 -0.2995  0.1269
28509DOD     C129346   9.968  19.277  11.061  0.2318 -0.3413  0.1967
28509DOD     C229347   9.921  19.017  10.644 -0.0077 -0.1807  0.0223
28509DOD     C329348  10.090  18.693  10.295  0.2504 -0.2397 -0.1109
28510DOD     C129349   4.009  21.631   5.875 -0.0721  0.1492  0.1093
28510DOD     C229350   3.992  21.168   5.835 -0.0238  0.0952 -0.0076
28510DOD     C329351   4.243  20.899   6.116 -0.0988 -0.0967  0.0353
28511DOD     C129352  23.591   2.917   7.903 -0.1332 -0.0814  0.0758
28511DOD     C229353  24.000   2.851   7.814 -0.0380 -0.1986 -0.0308
28511DOD     C329354  24.416   2.594   7.813 -0.0337 -0.0527 -0.2450
28512DOD     C129355   9.195   0.685  19.949 -0.0618 -0.1533  0.2721
28512DOD     C229356   8.759   0.544  19.792 -0.1911  0.0195 -0.2362
28512DOD     C329357   8.358   0.561  19.991 -0.0270 -0.0457 -0.2784
28513DOD     C129358  23.370  30.076  24.417 -0.0589  0.0911 -0.3757
28513DOD     C229359  23.278   0.042  24.067  0.1335 -0.1627  0.1107
28513DOD     C329360  23.136   0.071  23.613 -0.4135 -0.0686  0.0290
28514DOD     C129361  17.055  27.189  26.214  0.0117 -0.0955  0.0101
28514DOD     C229362  16.919  27.631  26.251 -0.0307  0.0132 -0.2377
28514DOD     C329363  16.574  27.877  26.372 -0.3288 -0.0807  0.0556
28515DOD     C129364   0.889   1.061  17.393 -0.1085 -0.0673  0.3374
28515DOD     C229365   0.533   1.360  17.249  0.0190 -0.0752  0.2431
28515DOD     C329366   0.116   1.423  17.497  0.1137  0.2739  0.2922
28516DOD     C129367   6.554  16.669   5.021  0.1800 -0.2447  0.0759
28516DOD     C229368   6.215  16.455   4.946 -0.2748 -0.1329  0.2004
28516DOD     C329369   6.044  16.117   4.641  0.1439 -0.0902  0.0131
28517DOD     C129370  20.904  25.255   1.587  0.3619 -0.0497 -0.0125
28517DOD     C229371  20.693  25.095   1.210  0.1749  0.0776 -0.0550
28517DOD     C329372  20.432  24.926   0.910  0.1048 -0.1650 -0.0353
28518DOD     C129373  17.738  24.950  29.138 -0.0472 -0.0007  0.1621
28518DOD     C229374  18.013  24.598  29.269 -0.0067  0.0159 -0.0097
28518DOD     C329375  18.455  24.374  29.242 -0.1056 -0.2272  0.0975
28519DOD     C129376  30.266  24.309  17.753 -0.1458 -0.2625  0.3327
28519DOD     C229377  30.204  23.942  17.361 -0.1627 -0.1044  0.3198
28519DOD     C329378  29.951  23.574  17.134  0.0104  0.0931 -0.0985
28520DOD     C129379  11.389  26.526  14.524  0.1487 -0.1562  0.0777
28520DOD     C229380  11.787  26.763  14.467  0.1238  0.1587 -0.0527
28520DOD     C329381  12.217  26.804  14.299 -0.2280  0.0962 -0.1290
28521DOD     C129382  24.764   7.033  18.924 -0.1396 -0.1852 -0.0249
28521DOD     C229383  24.373   7.298  18.963 -0.0208  0.2300  0.2456
28521DOD     C329384  24.032   7.358  18.659 -0.4436  0.1031 -0.2389
28522DOD     C129385  10.357  10.304   3.358 -0.0080 -0.0931  0.2192
28522DOD     C229386  10.505  10.108   3.786 -0.1392 -0.2950 -0.2468
28522DOD     C329387  10.650  10.138   4.272  0.1638 -0.0198  0.1733
28523DOD     C129388  29.264   4.679  13.260  0.3067  0.0433  0.1630
28523DOD     C229389  29.243   4.251  13.069  0.0409 -0.1555 -0.2716
28523DOD     C329390  28.862   4.030  12.992  0.0581  0.0695 -0.3401
28524DOD     C129391  28.580  26.153  14.964 -0.0390 -0.1765  0.0281
28524DOD     C229392  28.260  26.073  14.644  0.0962 -0.1151 -0.3730
28524DOD     C329393  27.819  26.137  14.464  0.0397 -0.1472  0.1141
28525DOD     C129394   6.327  16.924  21.613 -0.1628  0.1321  0.2075
28525DOD     C229395   6.143  16.912  22.047  0.1462  0.0328  0.1958
28525DOD     C329396   5.778  16.755  22.283 -0.0746 -0.0793 -0.0920
28526DOD     C129397  13.854  30.256  13.840  0.0580  0.2213  0.2746
28526DOD     C229398  13.833  29.845  13.579  0.4618 -0.2660  0.2856
28526DOD     C329399  14.017  29.398  13.530  0.3208  0.1029 -0.1946
28527DOD     C129400   8.058   7.916   3.221  0.3083  0.0305 -0.1996
28527DOD     C229401   7.960   7.565   2.978  0.0425 -0.1880  0.0134
28527DOD     C329402   7.760   7.348   2.650  0.2465 -0.1012  0.1904
28528DOD     C129403  17.286  19.304   9.994  0.1839 -0.1932  0.1409
28528DOD     C229404  17.616  19.184  10.260 -0.0675 -0.5001  0.3110
28528DOD     C329405  17.860  18.830  10.300 -0.3046  0.1453  0.1385
28529DOD     C129406  29.528  28.465   1.310  0.1844 -0.0639 -0.0289
28529DOD     C229407  29.702  28.769   1.067 -0.1149 -0.4921  0.3209
28529DOD     C329408  29.529  29.171   0.869 -0.1732  0.2062  0.0673
28530DOD     C129409  30.244  28.642  29.578  0.3532 -0.0996 -0.1669
28530DOD     C229410   0.252  28.595  29.878 -0.0229  0.1375 -0.0048
28530DOD     C329411   0.555  28.885  30.013  0.0003 -0.4944 -0.1912
28531DOD     C129412  29.196  20.261  24.277 -0.0323  0.2913  0.1216
28531DOD     C229413  28.802  20.371  24.197 -0.2378 -0.1883 -0.2063
28531DOD     C329414  28.537  20.530  23.821  0.4400 -0.0863  0.1907
28532DOD     C129415  14.096   1.517  24.911  0.0773 -0.1473 -0.1218
28532DOD     C229416  14.541   1.434  24.804 -0.1759  0.1055  0.1377
28532DOD     C329417  14.987   1.414  24.689 -0.0504  0.0480  0.0333
28533DOD     C129418   0.621   6.769  16.730 -0.2214 -0.1068 -0.0760
28533DOD     C229419   0.987   7.044  16.741 -0.1043  0.3440  0.3244
28533DOD     C329420   1.303   7.218  16.544 -0.1388  0.3839 -0.0140
28534DOD     C129421  28.212  16.938   8.595 -0.0537  0.2321 -0.1545
28534DOD     C229422  28.422  16.570   8.494 -0.1425  0.1966  0.0459
28534DOD     C329423  28.708  16.314   8.179 -0.2335  0.2390 -0.0501
28535DOD     C129424   6.439  21.978  14.705  0.1445 -0.0803 -0.1415
28535DOD     C229425   6.360  22.418  14.625  0.2363  0.0917 -0.1728
28535DOD     C329426   6.528  22.860  14.784  0.3074 -0.0921 -0.1490
28536DOD     C129427  11.183   1.305  19.940 -0.3068 -0.0687 -0.2395
28536DOD     C229428  11.007   0.916  20.076 -0.0166 -0.0325  0.2674
28536DOD     C329429  11.013   0.505  20.342 -0.2574  0.0264 -0.1658
28537DOD     C129430   9.060   7.771  24.798 -0.0285  0.0505 -0.0159
28537DOD     C229431   9.233   7.794  24.364 -0.0031 -0.1081 -0.1762
28537DOD     C329432   9.214   8.087  23.961  0.1067  0.3188 -0.1521
28538DOD     C129433   7.172  22.187  28.370 -0.1076 -0.0594 -0.0023
28538DOD     C229434   7.678  22.206  28.438 -0.2355  0.4959  0.3891
28538DOD     C329435   8.011  22.504  28.514  0.1448 -0.0114  0.0612
28539DOD     C129436  13.306   8.717   2.351  0.1973  0.1010 -0.2329
28539DOD     C229437  12.838   8.601   2.322  0.2931 -0.0848 -0.1418
28539DOD     C329438  12.390   8.719   2.243 -0.2158  0.0577  0.0795
28540DOD     C129439   4.793  11.562  15.125  0.2602 -0.0616 -0.0785
28540DOD     C229440   4.877  11.505  14.708  0.1268  0.1021 -0.2062
28540DOD     C329441   4.880  11.245  14.322 -0.1283  0.2084 -0.0434
28541DOD     C129442  28.163   4.393  28.689  0.3292  0.0832 -0.0248
28541DOD     C229443  27.703   4.423  28.647 -0.0692 -0.0122  0.1019
28541DOD     C329444  27.306   4.246  28.715 -0.0663 -0.2696 -0.0866
28542DOD     C129445  28.823  14.029  22.954  0.0002  0.0385  0.0174
28542DOD     C229446  28.919  14.450  22.877  0.1078  0.1231  0.1058
28542DOD     C329447  28.834  14.778  23.255 -0.0413 -0.0489  0.0085
28543DOD     C129448  13.142  20.457  10.703 -0.0048  0.2354 -0.0715
28543DOD     C229449  13.302  20.513  10.317  0.2503 -0.0645 -0.0679
28543DOD     C329450  13.367  20.854   9.971 -0.2934  0.0446  0.1059
28544DOD     C129451   3.368   6.971   8.664  0.0561 -0.0028 -0.1398
28544DOD     C229452   3.340   6.520   8.578  0.2382  0.2891 -0.3140
28544DOD     C329453   3.652   6.217   8.621 -0.1471 -0.0303  0.4102
28545DOD     C129454  27.240   8.706  30.273  0.2069 -0.0682 -0.0300
28545DOD     C229455  26.915   8.379  30.072 -0.0080  0.2153 -0.2020
28545DOD     C329456  26.741   8.162  29.718  0.1468 -0.1415  0.0202
28546DOD     C129457  14.477  29.708  20.348 -0.0488  0.2817  0.2480
28546DOD     C229458  14.265  29.304  20.457  0.1127  0.3017  0.2200
28546DOD     C329459  14.263  28.826  20.575  0.2707  0.0419 -0.1001
28547DOD     C129460   7.122  17.458   4.531 -0.0730 -0.2210 -0.2006
28547DOD     C229461   7.279  17.078   4.325 -0.1746 -0.1424  0.0249
28547DOD     C329462   7.559  16.791   4.115  0.0104 -0.2106 -0.1604
28548DOD     C129463   4.176   5.272   2.893 -0.2846 -0.1454  0.0967
28548DOD     C229464   4.033   4.897   3.036 -0.0877 -0.1613 -0.2232
28548DOD     C329465   3.869   4.510   3.129  0.0494 -0.0939 -0.0421
28549DOD     C129466  10.477   0.166   9.590  0.4474 -0.1759 -0.2422
28549DOD     C229467  10.366   0.605   9.752 -0.0860  0.2917 -0.4670
28549DOD     C329468  10.278   1.092   9.829 -0.1122 -0.2305 -0.1333
28550DOD     C129469  26.229  27.710   1.395 -0.0362 -0.0732 -0.1026
28550DOD     C229470  26.694  27.917   1.422 -0.1256  0.0089 -0.2811
28550DOD     C329471  27.093  28.166   1.336 -0.1989  0.0733  0.2423
28551DOD     C129472   5.295  23.847  20.582 -0.1258 -0.0215  0.0033
28551DOD     C229473   4.947  23.435  20.677 -0.1337  0.2230 -0.2015
28551DOD     C329474   4.593  23.234  20.910 -0.1736 -0.1264 -0.0866
28552DOD     C129475   7.249   8.136  11.668 -0.1261 -0.1797  0.0764
28552DOD     C229476   7.383   7.952  11.276  0.0758  0.0249 -0.2557
28552DOD     C329477   7.721   7.740  11.002  0.0868  0.2327  0.0387
28553DOD     C129478  29.786  24.536  26.300 -0.2373 -0.0691  0.0141
28553DOD     C229479  29.368  24.466  26.504 -0.1399  0.0410  0.2448
28553DOD     C329480  29.085  24.826  26.453  0.1552  0.3540 -0.0108
28554DOD     C129481  26.285  23.954  27.174  0.0545  0.0798  0.3267
28554DOD     C229482  26.682  24.033  27.341  0.0395 -0.2310 -0.1601
28554DOD     C329483  26.749  24.420  27.678 -0.0182  0.1735 -0.0167
28555DOD     C129484   5.133  17.564   8.384  0.0365 -0.1011  0.0595
28555DOD     C229485   4.760  17.827   8.422 -0.2090  0.1196  0.2599
28555DOD     C329486   4.331  18.097   8.327 -0.0871 -0.1751 -0.1577
28556DOD     C129487   2.255  28.804   6.906  0.0232  0.0071  0.1472
28556DOD     C229488   1.929  28.820   7.211  0.0088  0.1378  0.0466
28556DOD     C329489   1.557  28.556   7.339 -0.0337  0.0698  0.1800
28557DOD     C129490  19.770   5.677   7.863 -0.3416 -0.1545  0.1692
28557DOD     C229491  19.340   5.670   7.697  0.2620  0.1548  0.1956
28557DOD     C329492  18.875   5.726   7.713 -0.0072  0.2204  0.1616
28558DOD     C129493  19.184  22.288  26.616 -0.0547 -0.0935  0.2632
28558DOD     C229494  19.655  22.167  26.576 -0.0517  0.3995 -0.0062
28558DOD     C329495  20.008  21.925  26.546  0.3066 -0.3996  0.0196
28559DOD     C129496  25.751   5.115  12.671 -0.1892 -0.0773 -0.0256
28559DOD     C229497  25.940   5.523  12.419 -0.2136 -0.2344  0.0359
28559DOD     C329498  26.311   5.633  12.151 -0.2375  0.2935 -0.1472
28560DOD     C129499  14.937  20.621  15.734  0.0756 -0.4259  0.2043
28560DOD     C229500  15.010  21.044  15.661 -0.1963 -0.1256 -0.1145
28560DOD     C329501  14.817  21.447  15.524 -0.1838  0.1563 -0.5630
28561DOD     C129502  16.022  29.524  21.836 -0.1247  0.0278  0.1010
28561DOD     C229503  16.327  29.837  21.997 -0.1604 -0.1232 -0.1766
28561DOD     C329504  16.384  30.243  22.268 -0.0111 -0.0557 -0.3067
28562DOD     C129505  27.193   8.038  21.842  0.2562 -0.3080  0.1046
28562DOD     C229506  27.149   7.593  21.907  0.0752 -0.1040  0.0422
28562DOD     C329507  26.933   7.177  22.091  0.1429  0.0638 -0.0675
28563DOD     C129508   4.619   1.818  17.300  0.0596  0.0518  0.1644
28563DOD     C229509   4.547   1.349  17.415  0.0951 -0.0737  0.3510
28563DOD     C329510   4.302   1.021  17.232 -0.0677 -0.0512  0.1209
28564DOD     C129511  24.198   5.869   9.145  0.1471  0.2264 -0.0777
28564DOD     C229512  24.142   5.367   9.071 -0.0640  0.4411 -0.0830
28564DOD     C329513  24.313   4.977   9.061  0.0904  0.2204  0.0018
28565DOD     C129514   0.435  16.536   1.054  0.0801 -0.0425  0.0304
28565DOD     C229515   0.678  16.888   1.237 -0.4135  0.4061  0.2520
28565DOD     C329516   0.632  17.394   1.218 -0.1726  0.0278  0.1621
28566DOD     C129517   6.462   4.468  19.782  0.1935  0.1048  0.0382
28566DOD     C229518   6.110   4.280  19.710 -0.1976 -0.0493 -0.1675
28566DOD     C329519   5.685   4.369  19.486  0.0645 -0.1441 -0.0422
28567DOD     C129520  11.884  23.850  17.348  0.0950  0.2520  0.0059
28567DOD     C229521  11.596  23.758  17.695 -0.3152  0.3525 -0.0127
28567DOD     C329522  11.491  23.455  18.048  0.2235 -0.0231 -0.2146
28568DOD     C129523  29.582   5.912  22.476  0.0035  0.2561  0.0170
28568DOD     C229524  29.129   5.795  22.667  0.1603 -0.2806  0.1659
28568DOD     C329525  28.773   5.512  22.833 -0.1684  0.2000 -0.1197
28569DOD     C129526  10.777   8.812  30.144 -0.0334  0.2994 -0.1618
28569DOD     C229527  10.518   8.576   0.129 -0.0709 -0.1800 -0.0939
28569DOD     C329528  10.063   8.502   0.157 -0.2747  0.2553 -0.2541
28570DOD     C129529   0.568   2.379  10.097  0.2539  0.1997  0.0273
28570DOD     C229530   0.628   2.213  10.592 -0.3594 -0.0827 -0.2216
28570DOD     C329531   0.438   1.873  10.891  0.0351  0.3574 -0.0055
28571DOD     C129532  10.157  11.342  13.777  0.1751 -0.1708  0.0953
28571DOD     C229533   9.737  11.273  13.970 -0.0056  0.2179  0.0769
28571DOD     C329534   9.415  11.314  14.331  0.0509  0.1353 -0.1221
28572DOD     C129535  20.170  28.193  24.172 -0.0092 -0.2351  0.0547
28572DOD     C229536  20.495  28.098  23.880  0.1829  0.0084 -0.2539
28572DOD     C329537  20.538  28.142  23.416 -0.1799 -0.0633 -0.0820
28573DOD     C129538  11.368   7.561  22.882  0.1526  0.2263 -0.0005
28573DOD     C229539  11.363   7.380  23.318  0.2779  0.2591  0.3068
28573DOD     C329540  11.499   7.004  23.554 -0.1344  0.1005 -0.0378
28574DOD     C129541  23.840  16.792   0.083 -0.0274  0.1656  0.3191
28574DOD     C229542  23.471  16.849  30.156 -0.1801  0.1107  0.0391
28574DOD     C329543  23.377  16.926  29.722  0.1537  0.0989  0.0920
28575DOD     C129544   8.482   6.177  18.979 -0.1085  0.3515  0.0813
28575DOD     C229545   8.355   6.491  18.669  0.1160 -0.0810 -0.1651
28575DOD     C329546   8.420   6.905  18.448  0.0726  0.0469 -0.0765
28576DOD     C129547   6.030  29.960   2.812  0.1069  0.1230  0.1178
28576DOD     C229548   6.339  29.701   2.647 -0.0505  0.1035 -0.2710
28576DOD     C329549   6.556  29.302   2.721 -0.0180 -0.1548  0.0835
28577DOD     C129550  21.739  13.804   1.790  0.2563 -0.0426 -0.0042
28577DOD     C229551  22.140  13.634   1.592  0.3638  0.0998 -0.0849
28577DOD     C329552  22.455  13.558   1.238  0.3467  0.1527  0.2874
28578DOD     C129553  17.156  12.842  29.369  0.1032  0.2557  0.2555
28578DOD     C229554  17.395  12.628  29.688 -0.0608 -0.2405 -0.0254
28578DOD     C329555  17.618  12.321  29.702 -0.1289 -0.1534  0.1723
28579DOD     C129556  25.500   8.011   5.267 -0.1969 -0.1098 -0.3023
28579DOD     C229557  25.305   8.119   4.853 -0.0684  0.1073 -0.0590
28579DOD     C329558  25.335   8.307   4.434  0.3360  0.0301  0.1654
28580DOD     C129559  16.806  30.173  26.807  0.2833 -0.0912 -0.2502
28580DOD     C229560  16.684  30.304  26.370  0.0659  0.3453  0.0020
28580DOD     C329561  16.655   0.097  25.914  0.1056  0.0997  0.0880
28581DOD     C129562  28.523  10.115  19.455  0.0361  0.3029 -0.1796
28581DOD     C229563  28.293   9.824  19.660  0.1615 -0.0357 -0.2490
28581DOD     C329564  28.265   9.425  19.783  0.3530  0.0942  0.0259
28582DOD     C129565   6.833   2.316  18.007  0.3536 -0.3761 -0.1534
28582DOD     C229566   6.473   2.575  17.853 -0.0917  0.1497  0.3633
28582DOD     C329567   6.187   2.670  17.469  0.1858 -0.1095 -0.2234
28583DOD     C129568   2.031  11.437  20.395  0.1550 -0.1179 -0.3326
28583DOD     C229569   1.757  11.361  19.994  0.2960  0.1652  0.0624
28583DOD     C329570   1.319  11.212  19.917 -0.1822 -0.2329 -0.2644
28584DOD     C129571   7.445   1.044  25.336  0.0508  0.0159  0.2941
28584DOD     C229572   7.039   0.931  25.073  0.1314 -0.0953  0.3285
28584DOD     C329573   6.814   0.902  24.619 -0.3601 -0.0238  0.1002
28585DOD     C129574  29.666   0.905  22.047 -0.0777 -0.3050 -0.0207
28585DOD     C229575  29.492   0.591  21.733  0.1276 -0.2664  0.0991
28585DOD     C329576  29.349   0.159  21.491 -0.2268  0.0503 -0.3647
28586DOD     C129577   2.596  28.723   6.105 -0.1817  0.0585 -0.0451
28586DOD     C229578   2.793  28.961   6.462  0.1728  0.0635 -0.0447
28586DOD     C329579   3.053  29.128   6.768  0.0585 -0.0527 -0.0615
28587DOD     C129580  21.473   1.295   9.791 -0.1310 -0.1638  0.1249
28587DOD     C229581  21.467   1.771   9.784 -0.1017  0.0646 -0.2239
28587DOD     C329582  21.705   2.117   9.871  0.1198 -0.0273 -0.0767
28588DOD     C129583  15.690  10.043  23.008  0.0469 -0.0415 -0.2845
28588DOD     C229584  16.040   9.733  23.144  0.4104  0.2044 -0.1779
28588DOD     C329585  16.257   9.602  23.520  0.0748  0.0231  0.0781
28589DOD     C129586  21.201   7.447  29.743  0.3278  0.0002 -0.1584
28589DOD     C229587  20.917   7.865  29.768 -0.1632 -0.3645 -0.0758
28589DOD     C329588  20.903   8.188  29.436  0.0112  0.0673  0.0324
28590DOD     C129589  24.301   7.683  23.859 -0.1983  0.1929  0.2523
28590DOD     C229590  24.460   7.643  23.405  0.3603  0.3824  0.2214
28590DOD     C329591  24.162   7.642  23.063 -0.1212 -0.0839  0.0705
28591DOD     C129592  29.866   5.235  12.310  0.2569  0.1666  0.0413
28591DOD     C229593  29.519   5.115  12.605  0.2330  0.0057 -0.2593
28591DOD     C329594  29.201   5.109  12.938 -0.1759  0.0411 -0.0472
28592DOD     C129595  13.437  10.168  18.156  0.1321 -0.1023 -0.1823
28592DOD     C229596  13.184  10.346  18.453  0.3644 -0.3259 -0.0394
28592DOD     C329597  13.040  10.717  18.687 -0.3329 -0.5491 -0.2796
28593DOD     C129598  22.296   6.296  16.398 -0.1213 -0.0682 -0.0347
28593DOD     C229599  21.864   6.088  16.377  0.2213  0.1323  0.2816
28593DOD     C329600  21.562   5.755  16.332  0.0473 -0.2210  0.4462
28594DOD     C129601   0.506  10.745   2.490 -0.2182  0.0790 -0.0306
28594DOD     C229602   0.151  11.007   2.327 -0.0775  0.2798  0.0416
28594DOD     C329603  30.190  11.149   2.670 -0.0452  0.1494  0.1867
28595DOD     C129604   9.337  28.661  20.971  0.3041  0.0848 -0.1306
28595DOD     C229605   9.255  28.230  20.795  0.1174  0.0586  0.2166
28595DOD     C329606   9.006  27.814  20.802  0.1308  0.4635  0.1919
28596DOD     C129607   0.286  21.358  12.099 -0.2352 -0.0195 -0.1847
28596DOD     C229608   0.180  21.803  12.138  0.2573  0.3612  0.1788
28596DOD     C329609   0.233  22.159  11.790  0.0249 -0.0414 -0.0472
28597DOD     C129610   9.810  11.992  19.822 -0.1731  0.0679  0.2226
28597DOD     C229611   9.582  12.367  20.082 -0.2325 -0.2217 -0.0099
28597DOD     C329612   9.245  12.601  20.204  0.1612 -0.1724 -0.0606
28598DOD     C129613  13.048  27.129  17.238  0.1203  0.0099 -0.2115
28598DOD     C229614  13.057  26.815  16.895  0.2773  0.1517  0.0204
28598DOD     C329615  12.827  26.508  16.670  0.0486  0.2292 -0.0409
28599DOD     C129616  22.858  12.531   5.722  0.1498 -0.2050 -0.0144
28599DOD     C229617  23.273  12.742   5.821 -0.1505 -0.0001  0.4154
28599DOD     C329618  23.725  12.822   5.747 -0.0550 -0.4319 -0.0912
28600DOD     C129619  12.567   7.429   3.935  0.0681 -0.1375  0.2954
28600DOD     C229620  12.262   7.114   4.068 -0.1544  0.0629  0.3075
28600DOD     C329621  12.115   6.674   4.212  0.2673  0.0738  0.2177
28601DOD     C129622  15.298   3.800   6.055 -0.4353 -0.2337  0.0715
28601DOD     C229623  15.271   4.210   6.307 -0.1776  0.0201 -0.1579
28601DOD     C329624  15.318   4.613   6.514  0.0742  0.1117 -0.0157
28602DOD     C129625   6.489  22.500  10.784  0.1192  0.2100 -0.1907
28602DOD     C229626   6.834  22.407  10.489  0.2748 -0.1769  0.0581
28602DOD     C329627   7.146  22.590  10.118  0.0743 -0.1951  0.2793
28603DOD     C129628   1.146  10.363  10.712  0.1116 -0.1799 -0.0518
28603DOD     C229629   1.137  10.691  11.071  0.0988 -0.0143  0.2787
28603DOD     C329630   1.195  11.136  11.172  0.0467 -0.1126 -0.1140
28604DOD     C129631  14.594  16.206  29.328 -0.1417  0.0676 -0.1186
28604DOD     C229632  14.264  16.426  29.581  0.0480  0.0191 -0.0871
28604DOD     C329633  14.045  16.772  29.554 -0.0423  0.1797 -0.1501
28605DOD     C129634  21.845  30.289   4.243  0.2143  0.0285  0.1396
28605DOD     C229635  21.667   0.059   4.663  0.1707 -0.1317 -0.0546
28605DOD     C329636  21.891   0.166   5.093  0.1588 -0.1521 -0.0390
28606DOD     C129637   2.036  28.550  10.560  0.0766 -0.1140 -0.3121
28606DOD     C229638   2.334  28.929  10.544  0.3462  0.0263  0.0787
28606DOD     C329639   2.308  29.346  10.282  0.0805  0.3011 -0.3550
28607DOD     C129640   6.426  24.499   1.120 -0.1505  0.2626 -0.2267
28607DOD     C229641   6.507  24.225   1.472  0.0685 -0.0260  0.2274
28607DOD     C329642   6.558  23.804   1.797  0.0703 -0.1061 -0.0171
28608DOD     C129643   8.280  22.723  22.875 -0.1311  0.0100 -0.2128
28608DOD     C229644   7.979  22.389  22.810  0.0346 -0.1199  0.0676
28608DOD     C329645   7.815  22.028  22.535 -0.2616  0.0761  0.2628
28609DOD     C129646   5.122   5.582  21.357 -0.2775 -0.2118  0.0336
28609DOD     C229647   4.942   5.444  21.742  0.0731  0.0454  0.0772
28609DOD     C329648   4.755   5.018  21.886 -0.2395 -0.1797 -0.1878
28610DOD     C129649   7.708  23.031   9.144  0.0025  0.0708 -0.3842
28610DOD     C229650   8.071  22.959   9.313 -0.5085 -0.1726 -0.0531
28610DOD     C329651   8.332  23.061   9.703 -0.0308 -0.1945  0.1977
28611DOD     C129652  11.640   4.153  17.762 -0.3534 -0.3262 -0.1251
28611DOD     C229653  11.500   3.708  17.666  0.1269 -0.0926 -0.2132
28611DOD     C329654  11.549   3.239  17.816 -0.2282  0.0061  0.0884
28612DOD     C129655  13.067  17.654  15.706  0.2126 -0.0298  0.0406
28612DOD     C229656  12.642  17.566  15.659  0.0667 -0.1095 -0.2195
28612DOD     C329657  12.245  17.339  15.716 -0.1483 -0.0256  0.2140
28613DOD     C129658  17.621  18.823   3.939 -0.1518  0.1333  0.3539
28613DOD     C229659  17.885  19.027   4.216 -0.1182 -0.0159 -0.1367
28613DOD     C329660  18.126  19.080   4.675 -0.0207 -0.1215  0.0353
28614DOD     C129661  26.837  12.763  25.908 -0.3588  0.1252 -0.3356
28614DOD     C229662  26.885  12.797  26.414 -0.0265  0.2076  0.3573
28614DOD     C329663  27.057  12.620  26.822  0.2499  0.0889  0.0558
28615DOD     C129664   0.018  25.648   0.479  0.0669  0.0966  0.6563
28615DOD     C229665  30.291  25.342   0.837  0.3904  0.2131 -0.0124
28615DOD     C329666   0.089  25.083   1.203 -0.0167  0.0797 -0.2638
28616DOD     C129667   4.105  23.966  10.118 -0.0378 -0.2541 -0.2130
28616DOD     C229668   4.443  23.968  10.443  0.0971  0.2600  0.0297
28616DOD     C329669   4.667  24.335  10.730  0.0753 -0.2113  0.0045
28617DOD     C129670  22.991  28.390  24.046 -0.1424  0.2112 -0.0438
28617DOD     C229671  22.744  28.136  23.777 -0.0296 -0.3405  0.2741
28617DOD     C329672  22.632  27.977  23.328 -0.1795  0.1097  0.2138
28618DOD     C129673  22.879   8.893   3.739 -0.0718  0.0164  0.0027
28618DOD     C229674  22.663   8.653   4.057 -0.1584  0.0721  0.2916
28618DOD     C329675  22.792   8.310   4.393  0.1382 -0.1031 -0.0592
28619DOD     C129676  19.827   7.788  10.282 -0.3089  0.1632  0.1938
28619DOD     C229677  20.291   7.869  10.313 -0.1531 -0.1154 -0.1938
28619DOD     C329678  20.714   8.087  10.366 -0.0617  0.1064 -0.0693
28620DOD     C129679  14.339   9.613  10.835 -0.0473  0.0149 -0.2335
28620DOD     C229680  14.116   9.735  11.194  0.0377  0.1739  0.0240
28620DOD     C329681  14.141  10.025  11.552 -0.0116 -0.0210  0.1383
28621DOD     C129682  22.053  29.568   1.599  0.1233  0.2136 -0.1358
28621DOD     C229683  22.306  29.880   1.358 -0.0800  0.2386 -0.4791
28621DOD     C329684  22.277  30.316   1.147  0.2509 -0.0734 -0.0109
28622DOD     C129685   3.492  20.443  19.433  0.1991 -0.2588 -0.1940
28622DOD     C229686   3.306  20.059  19.238 -0.0618 -0.2032 -0.0909
28622DOD     C329687   3.011  19.654  19.277 -0.1558  0.1150  0.2694
28623DOD     C129688  13.595  24.165  26.463  0.1491  0.0986  0.0904
28623DOD     C229689  13.432  23.708  26.290 -0.2156  0.2372  0.0895
28623DOD     C329690  13.206  23.435  25.980 -0.1192 -0.1510 -0.1047
28624DOD     C129691   4.679  16.274   9.136  0.0353 -0.1402  0.0497
28624DOD     C229692   4.758  16.732   9.374  0.1229 -0.1854  0.3091
28624DOD     C329693   5.129  16.966   9.585  0.0699 -0.1100  0.0595
28625DOD     C129694  20.362  12.673  15.455 -0.1177 -0.1912 -0.0450
28625DOD     C229695  20.472  12.317  15.138  0.1476 -0.1618 -0.2072
28625DOD     C329696  20.432  11.907  14.944 -0.1580  0.0187  0.0838
28626DOD     C129697  26.089  13.121   1.550 -0.1662 -0.0203 -0.0563
28626DOD     C229698  26.202  13.411   1.901 -0.1961  0.2524 -0.0681
28626DOD     C329699  26.363  13.444   2.358  0.0079  0.3063 -0.1380
28627DOD     C129700  18.038  16.250   8.634  0.0335 -0.0484 -0.1690
28627DOD     C229701  17.628  16.490   8.721 -0.0655 -0.0113 -0.2432
28627DOD     C329702  17.218  16.572   8.646 -0.1603 -0.2714 -0.2054
28628DOD     C129703  30.136  11.361   8.698  0.2562  0.5268  0.0128
28628DOD     C229704  29.814  11.442   8.453  0.0264 -0.0184 -0.2296
28628DOD     C329705  29.666  11.458   7.997  0.3005 -0.1568  0.0101
28629DOD     C129706  19.867  25.006  22.549  0.2302  0.0548 -0.2580
28629DOD     C229707  20.256  24.683  22.605  0.0934 -0.1266 -0.3561
28629DOD     C329708  20.376  24.265  22.521 -0.2834 -0.3670 -0.2265
28630DOD     C129709   0.590   9.908   9.367  0.0104  0.2521 -0.5001
28630DOD     C229710   0.598   9.728   9.804 -0.2138  0.1087  0.0117
28630DOD     C329711   0.326   9.353   9.968 -0.0986 -0.1970 -0.0753
28631DOD     C129712   8.317  23.655  18.919 -0.1628 -0.2455 -0.1457
28631DOD     C229713   7.931  23.971  18.918 -0.0106 -0.3250  0.2223
28631DOD     C329714   7.840  24.060  18.437 -0.4683 -0.4580  0.0546
28632DOD     C129715  26.078  25.152  23.261 -0.0684 -0.3779 -0.2178
28632DOD     C229716  26.363  25.165  22.885  0.2396  0.0783 -0.2034
28632DOD     C329717  26.617  25.563  22.708  0.1231 -0.0777  0.1853
28633DOD     C129718  21.263  21.903  13.990  0.1350 -0.0324 -0.0752
28633DOD     C229719  21.026  21.519  13.913  0.2748  0.0215  0.0017
28633DOD     C329720  20.641  21.243  13.848  0.0524 -0.1102  0.0244
28634DOD     C129721  17.535   1.914  12.862  0.1692 -0.0402 -0.0754
28634DOD     C229722  17.098   1.761  12.831  0.0692 -0.1791 -0.0320
28634DOD     C329723  16.736   1.679  12.571 -0.2188  0.3251 -0.1429
28635DOD     C129724  15.112  23.689  14.693 -0.2429 -0.0036  0.2485
28635DOD     C229725  14.959  23.355  14.856  0.3063  0.3697 -0.0768
28635DOD     C329726  14.983  22.894  14.862  0.0497  0.0868  0.3062
28636DOD     C129727  23.680  25.856   6.651  0.0510  0.1807  0.1275
28636DOD     C229728  23.981  25.834   7.018 -0.1918 -0.0135 -0.2859
28636DOD     C329729  24.307  25.732   7.374  0.1386 -0.1328  0.1845
28637DOD     C129730  24.131  14.433  27.422 -0.0846  0.0035 -0.3329
28637DOD     C229731  24.164  13.985  27.327  0.1662  0.0934 -0.0766
28637DOD     C329732  23.854  13.597  27.212 -0.0299 -0.1894  0.1406
28638DOD     C129733  12.511  25.508   6.358  0.1495  0.1410 -0.0719
28638DOD     C229734  12.897  25.307   6.563  0.0422 -0.0129 -0.0196
28638DOD     C329735  13.338  25.390   6.668 -0.0940  0.1730 -0.0740
28639DOD     C129736  24.984   3.161   1.799  0.0675  0.0286  0.2585
28639DOD     C229737  25.189   2.910   1.487 -0.0891 -0.0767  0.0943
28639DOD     C329738  25.217   2.562   1.164 -0.0673 -0.2454 -0.1914
28640DOD     C129739  28.145   2.118  13.278 -0.2431 -0.3096 -0.1024
28640DOD     C229740  28.088   1.776  13.612 -0.2260  0.2342 -0.0714
28640DOD     C329741  28.075   1.375  13.814 -0.1131 -0.1411 -0.2123
28641DOD     C129742  16.563  28.608  22.749 -0.0821  0.0132 -0.0720
28641DOD     C229743  16.701  28.159  22.956  0.3034 -0.4459  0.0763
28641DOD     C329744  17.068  27.897  22.870 -0.4128 -0.0822 -0.1476
28642DOD     C129745  13.668  17.218   6.254  0.2519  0.1500  0.0955
28642DOD     C229746  13.741  16.983   6.639  0.0076 -0.1461 -0.0533
28642DOD     C329747  13.575  17.102   7.062  0.0760 -0.3761 -0.1944
28643DOD     C129748   9.774   7.089   7.060 -0.0712  0.0775 -0.1051
28643DOD     C229749   9.882   6.657   6.988  0.1820  0.0990 -0.2056
28643DOD     C329750  10.238   6.343   6.918  0.1813 -0.3977  0.1097
28644DOD     C129751   2.124  27.025  29.249 -0.1058  0.1424 -0.0097
28644DOD     C229752   2.597  27.038  29.234 -0.0355  0.0199 -0.1255
28644DOD     C329753   2.906  27.356  29.099 -0.0782  0.0485  0.0470
28645DOD     C129754  22.218  28.487  10.194 -0.0149 -0.0602 -0.2585
28645DOD     C229755  21.912  28.157  10.151  0.1200  0.3180  0.0076
28645DOD     C329756  21.477  28.223  10.037 -0.1564  0.5313 -0.0177
28646DOD     C129757  24.687  24.583  23.383  0.2983 -0.3072 -0.2249
28646DOD     C229758  24.537  24.244  23.652 -0.2313  0.0504  0.1507
28646DOD     C329759  24.298  23.908  23.687 -0.2736  0.2508  0.0317
28647DOD     C129760   0.424  16.778  20.650  0.1091  0.2182 -0.2142
28647DOD     C229761   0.905  16.862  20.620 -0.0875  0.0665 -0.1757
28647DOD     C329762   1.279  17.109  20.744  0.1234  0.2696  0.0757
28648DOD     C129763  18.025   3.783  13.433 -0.1603 -0.0161  0.1360
28648DOD     C229764  17.532   3.834  13.369 -0.0483  0.0957  0.1083
28648DOD     C329765  17.158   4.161  13.429  0.0261  0.2080  0.0963
28649DOD     C129766   5.526  14.971  29.107 -0.2393  0.1423  0.1102
28649DOD     C229767   5.139  14.999  29.354  0.1659 -0.1378  0.1225
28649DOD     C329768   4.836  15.376  29.501 -0.2503  0.0244 -0.1658
28650DOD     C129769   9.281  19.046  28.614 -0.2291  0.2115 -0.0356
28650DOD     C229770   9.014  19.192  28.985  0.1005 -0.1155  0.0162
28650DOD     C329771   8.731  19.311  29.341  0.1626  0.0288 -0.1112
28651DOD     C129772   0.373   0.504   5.795  0.0158  0.1003 -0.5224
28651DOD     C229773  30.310   0.411   5.600  0.0657 -0.0614 -0.2381
28651DOD     C329774  30.160   0.166   5.190 -0.0213 -0.0673 -0.1918
28652DOD     C129775  29.326   6.099  17.130  0.0154  0.1713  0.0847
28652DOD     C229776  29.392   6.497  17.343  0.1377  0.4699 -0.1222
28652DOD     C329777  29.577   6.944  17.454  0.1079  0.2097  0.0179
28653DOD     C129778  28.622  21.922  27.217  0.1147  0.1741 -0.1277
28653DOD     C229779  28.396  22.242  27.489  0.0237  0.1288 -0.1867
28653DOD     C329780  28.552  22.482  27.812  0.1786  0.1099  0.1454
28654DOD     C129781  23.307   4.904   0.186  0.2085 -0.5884  0.2212
28654DOD     C229782  22.897   4.873   0.378 -0.2047 -0.3428 -0.0668
28654DOD     C329783  22.834   4.795   0.849 -0.0410 -0.1227 -0.3649
28655DOD     C129784   2.856  20.929  25.103 -0.1238 -0.3303 -0.0131
28655DOD     C229785   2.602  21.265  24.964  0.0222 -0.2346  0.0086
28655DOD     C329786   2.511  21.281  24.454 -0.2222 -0.0627 -0.1707
28656DOD     C129787  14.471  26.895  21.901 -0.0930 -0.2212 -0.0040
28656DOD     C229788  14.734  27.007  22.267 -0.3479 -0.1522 -0.1233
28656DOD     C329789  15.220  27.027  22.335 -0.1940 -0.1165 -0.2249
28657DOD     C129790  20.321  21.247  29.122 -0.2758  0.2942 -0.1243
28657DOD     C229791  20.443  21.038  29.505  0.0671 -0.1628 -0.0782
28657DOD     C329792  20.436  20.671  29.820  0.2413 -0.2405  0.3779
28658DOD     C129793  11.026   8.973   1.132 -0.0669 -0.0681 -0.0840
28658DOD     C229794  11.391   8.766   0.956  0.3138 -0.1391  0.1514
28658DOD     C329795  11.649   8.335   1.030  0.1960 -0.0150  0.0842
28659DOD     C129796  10.193  27.480   2.694 -0.0776  0.1289  0.0753
28659DOD     C229797   9.802  27.425   2.911  0.0845  0.0233 -0.1458
28659DOD     C329798   9.421  27.209   3.164 -0.1309 -0.1495 -0.0988
28660DOD     C129799   7.014   1.647  19.349  0.1260  0.0160  0.1127
28660DOD     C229800   7.338   1.332  19.424 -0.0557  0.0535 -0.1613
28660DOD     C329801   7.566   1.129  19.803 -0.2177 -0.0426  0.0184
28661DOD     C129802  28.900  13.132  19.968  0.0631  0.1876  0.3160
28661DOD     C229803  29.067  12.939  20.350 -0.1366 -0.1223 -0.1962
28661DOD     C329804  28.853  13.006  20.732  0.1397  0.2400 -0.0960
28662DOD     C129805  11.650  16.973   8.504 -0.1072 -0.1551  0.3258
28662DOD     C229806  12.083  16.873   8.405  0.0469 -0.0744  0.0839
28662DOD     C329807  12.537  16.736   8.532  0.1547  0.0711 -0.2087
28663DOD     C129808   9.874  12.711  20.106 -0.0536  0.0239  0.3680
28663DOD     C229809   9.603  12.680  20.484  0.0755 -0.1113 -0.0039
28663DOD     C329810   9.169  12.653  20.682  0.3095 -0.0300 -0.4149
28664DOD     C129811   4.971  30.076  12.805 -0.0790 -0.0408  0.0943
28664DOD     C229812   5.378  30.254  12.574  0.1552  0.0660 -0.1328
28664DOD     C329813   5.820   0.169  12.682  0.1953  0.1372 -0.0373
28665DOD     C129814   4.304  23.675  27.375 -0.0125 -0.0843 -0.1451
28665DOD     C229815   3.844  23.776  27.328 -0.1549 -0.0089  0.2858
28665DOD     C329816   3.458  23.750  27.056  0.4380  0.1725 -0.0736
28666DOD     C129817   1.792  27.776   8.057  0.0574  0.0050  0.0533
28666DOD     C229818   1.476  27.793   8.446  0.1059  0.0244 -0.0058
28666DOD     C329819   1.087  27.780   8.743 -0.2555 -0.2164  0.0200
28667DOD     C129820   7.418  29.920   8.352 -0.0566  0.2485  0.1355
28667DOD     C229821   7.609  29.568   8.175 -0.1332  0.0390  0.0277
28667DOD     C329822   7.593  29.214   7.865  0.1308 -0.0314 -0.1291
28668DOD     C129823  23.265   6.464   2.598  0.0044 -0.1333  0.2594
28668DOD     C229824  23.588   6.334   2.959 -0.1165 -0.2482 -0.0844
28668DOD     C329825  23.846   6.683   3.114 -0.2777  0.1402  0.4807
28669DOD     C129826  20.222  27.922  15.375  0.0110  0.2795  0.2983
28669DOD     C229827  20.438  28.334  15.368  0.0870 -0.0323 -0.3672
28669DOD     C329828  20.694  28.707  15.222  0.0103  0.1149 -0.0933
28670DOD     C129829   6.203  27.814  29.665 -0.1107 -0.0970  0.1456
28670DOD     C229830   6.523  27.639  29.968 -0.2502 -0.0482 -0.0568
28670DOD     C329831   6.695  27.824   0.070  0.2498  0.0749 -0.2061
28671DOD     C129832  19.076  16.984   7.187  0.0393  0.1104  0.4440
28671DOD     C229833  19.566  17.051   7.317  0.0269 -0.2228  0.1827
28671DOD     C329834  19.964  16.806   7.346  0.1386  0.0268 -0.2957
28672DOD     C129835  20.817  12.241  16.624 -0.1350 -0.0452 -0.3020
28672DOD     C229836  20.660  11.821  16.461  0.3931 -0.0255 -0.0021
28672DOD     C329837  20.242  11.718  16.254 -0.0706  0.0805  0.2256
28673DOD     C129838   2.900  13.481  28.024 -0.3020  0.1216  0.0798
28673DOD     C229839   2.954  13.225  27.620  0.0533 -0.1441  0.0733
28673DOD     C329840   3.145  12.880  27.312 -0.3163  0.0307  0.1159
28674DOD     C129841  29.218  17.968  12.256  0.2211  0.0655 -0.0183
28674DOD     C229842  29.083  18.396  12.067 -0.0067  0.1269  0.1457
28674DOD     C329843  28.908  18.519  11.613  0.0982 -0.1150 -0.0888
28675DOD     C129844  20.943   8.610  21.042 -0.1722  0.0041  0.0011
28675DOD     C229845  21.251   8.579  20.628 -0.0638  0.1650 -0.1025
28675DOD     C329846  21.681   8.467  20.474 -0.2762  0.2453  0.1599
28676DOD     C129847  23.549   9.674   7.096 -0.1508 -0.2782  0.1437
28676DOD     C229848  24.061   9.598   7.109  0.1762  0.2422  0.0272
28676DOD     C329849  24.451   9.860   7.077 -0.5623 -0.1410 -0.0440
28677DOD     C129850  22.084  15.601  13.578  0.1009 -0.1034 -0.0879
28677DOD     C229851  22.202  16.008  13.376 -0.5218  0.1437 -0.0479
28677DOD     C329852  22.324  16.253  12.964 -0.1380 -0.1664  0.0427
28678DOD     C129853  20.756  15.261   8.842 -0.5407 -0.1291 -0.1468
28678DOD     C229854  20.776  15.342   8.400 -0.2224 -0.3041  0.0205
28678DOD     C329855  20.563  15.486   8.032 -0.0050 -0.4840  0.3133
28679DOD     C129856   5.808   4.357   0.857 -0.1236  0.0964 -0.0823
28679DOD     C229857   5.398   4.405   0.873 -0.0479  0.3363 -0.0478
28679DOD     C329858   4.988   4.482   0.828  0.0703  0.2146 -0.3385
28680DOD     C129859  16.738  10.373   2.402  0.0422  0.1454  0.4745
28680DOD     C229860  17.095  10.538   2.209 -0.0617  0.2213  0.0346
28680DOD     C329861  17.082  10.673   1.733  0.1693 -0.0947 -0.1890
28681DOD     C129862  26.009  21.653   4.228 -0.1972  0.0396 -0.0506
28681DOD     C229863  26.208  21.873   4.592 -0.0341  0.0402  0.0390
28681DOD     C329864  26.348  22.327   4.656 -0.0376  0.0275  0.0027
28682DOD     C129865  21.259  14.001   3.607 -0.0303  0.1655  0.0138
28682DOD     C229866  21.556  13.708   3.394 -0.2132 -0.0966  0.0135
28682DOD     C329867  21.691  13.270   3.473 -0.1318  0.0123 -0.2225
28683DOD     C129868  28.914  14.166   4.225  0.1950  0.1834 -0.2724
28683DOD     C229869  28.616  13.905   4.373 -0.1092  0.0985  0.1004
28683DOD     C329870  28.425  13.510   4.463  0.0868  0.0463 -0.1627
28684DOD     C129871  16.948  16.615   9.080  0.1928 -0.1676  0.0589
28684DOD     C229872  17.328  16.340   9.092  0.2013  0.2232  0.0010
28684DOD     C329873  17.720  16.136   9.051  0.0705  0.0018 -0.2648
28685DOD     C129874   7.781  16.718   4.565 -0.1385 -0.1801  0.0436
28685DOD     C229875   7.603  16.345   4.365 -0.1481  0.1782 -0.0093
28685DOD     C329876   7.724  15.920   4.088  0.2960  0.0670 -0.4858
28686DOD     C129877  21.559   7.534  11.406  0.1133  0.1491  0.0579
28686DOD     C229878  21.339   7.688  11.032 -0.0539 -0.2961  0.1819
28686DOD     C329879  21.385   7.470  10.575 -0.2592 -0.1116  0.1265
28687DOD     C129880  26.414   9.259  19.106 -0.0222 -0.4263  0.0263
28687DOD     C229881  26.753   9.086  19.336 -0.3464  0.0242  0.0222
28687DOD     C329882  26.742   9.077  19.861 -0.0368 -0.0799  0.2132
28688DOD     C129883   3.052  11.339  16.628  0.5426  0.0703  0.0083
28688DOD     C229884   3.039  11.129  16.284 -0.0861 -0.3135 -0.1999
28688DOD     C329885   3.175  11.279  15.850  0.0582 -0.0237  0.1166
28689DOD     C129886   1.458   1.247  27.523  0.1210 -0.3557 -0.1271
28689DOD     C229887   1.830   1.435  27.705  0.1607 -0.0725  0.2329
28689DOD     C329888   2.119   1.596  27.953 -0.2974  0.0274  0.1598
28690DOD     C129889  27.992   0.681  16.041  0.1528 -0.1323  0.0682
28690DOD     C229890  27.976   0.752  16.506 -0.0870  0.2391 -0.0902
28690DOD     C329891  28.277   0.713  16.866  0.0603  0.0260 -0.1784
28691DOD     C129892  24.879  16.054  26.877 -0.0741 -0.0157 -0.0609
28691DOD     C229893  25.347  16.125  26.718 -0.0821  0.0831  0.4376
28691DOD     C329894  25.607  16.460  26.456  0.2761 -0.2231  0.0659
28692DOD     C129895   1.151   0.423   4.698  0.0728  0.0429 -0.1558
28692DOD     C229896   0.937   0.751   4.942  0.4063 -0.1112 -0.0957
28692DOD     C329897   0.909   1.032   5.230 -0.0289 -0.0240  0.0022
28693DOD     C129898  15.989  22.153  17.807 -0.2357  0.1129  0.5055
28693DOD     C229899  16.279  21.795  17.829  0.1276  0.0088 -0.0097
28693DOD     C329900  16.654  21.512  17.902  0.0513  0.1289  0.1512
28694DOD     C129901   9.530  14.342  13.069 -0.0745 -0.2578 -0.0317
28694DOD     C229902   9.837  14.474  13.390 -0.0818  0.1065  0.1187
28694DOD     C329903  10.172  14.186  13.627  0.1109 -0.0842  0.1136
28695DOD     C129904  18.537   0.765  17.967  0.1650  0.1722 -0.1056
28695DOD     C229905  18.729   0.891  17.574 -0.1970 -0.0524 -0.0637
28695DOD     C329906  18.891   1.010  17.161  0.0059  0.3174 -0.2692
28696DOD     C129907   0.530   5.933   5.490  0.1343 -0.0264 -0.0628
28696DOD     C229908   0.911   5.864   5.764 -0.2049  0.1637 -0.1046
28696DOD     C329909   1.360   5.798   5.959 -0.0936 -0.1457 -0.0607
28697DOD     C129910  27.448  16.293   4.645  0.0159  0.1270 -0.0213
28697DOD     C229911  27.200  16.263   5.027  0.2539  0.3290 -0.1204
28697DOD     C329912  27.029  16.084   5.428 -0.4589  0.3075  0.3420
28698DOD     C129913  24.071  19.816  19.842  0.3105  0.1607  0.1270
28698DOD     C229914  23.668  19.972  19.634  0.1429  0.0039  0.1572
28698DOD     C329915  23.236  19.832  19.544  0.0082  0.1880 -0.0112
28699DOD     C129916  27.175  17.482   3.237 -0.0051  0.3310  0.1835
28699DOD     C229917  27.535  17.154   3.374 -0.0265 -0.1588  0.3493
28699DOD     C329918  27.681  16.740   3.350 -0.3277 -0.1443  0.1358
28700DOD     C129919   0.841  22.478   1.802  0.2912  0.3349 -0.2503
28700DOD     C229920   0.635  22.704   2.152 -0.2296 -0.0817 -0.0969
28700DOD     C329921   0.364  22.677   2.541  0.3764 -0.0015 -0.0632
28701DOD     C129922   5.170   5.427   0.755  0.0954  0.1405 -0.3369
28701DOD     C229923   5.091   5.632   1.173  0.1421  0.1058 -0.1458
28701DOD     C329924   4.751   5.895   1.317 -0.1082  0.2098  0.1333
28702DOD     C129925  12.009   1.597   8.286 -0.1514  0.0411 -0.1124
28702DOD     C229926  11.718   1.908   8.400 -0.1550  0.4958 -0.0457
28702DOD     C329927  11.547   2.320   8.541  0.0223 -0.0725  0.2904
28703DOD     C129928  25.893  28.006  22.338 -0.0001  0.0314 -0.2947
28703DOD     C229929  26.431  28.045  22.495  0.1841 -0.0588  0.1127
28703DOD     C329930  26.568  28.475  22.424  0.0455 -0.0415 -0.2017
28704DOD     C129931  23.790  10.786  11.493  0.1214 -0.1462  0.1561
28704DOD     C229932  24.053  10.912  11.842 -0.2792  0.2575 -0.0459
28704DOD     C329933  24.125  11.262  12.144 -0.1511  0.1043 -0.2207
28705DOD     C129934   0.341  16.307   8.649 -0.0885  0.2745 -0.2220
28705DOD     C229935   0.548  15.860   8.651 -0.1752 -0.1588  0.1679
28705DOD     C329936   0.713  15.445   8.453 -0.2336 -0.1506  0.0182
28706DOD     C129937  27.402  25.596   7.452 -0.3258 -0.0413  0.1651
28706DOD     C229938  27.094  25.685   7.109  0.0175  0.1594 -0.1598
28706DOD     C329939  26.703  25.595   6.854 -0.2341  0.0618  0.1870
28707DOD     C129940   5.141  23.212  14.977  0.1540  0.0867  0.0371
28707DOD     C229941   5.203  22.787  14.926 -0.2178 -0.1108  0.1409
28707DOD     C329942   5.555  22.491  14.809 -0.2364 -0.0971 -0.3083
28708DOD     C129943  11.709  18.626   6.069 -0.2134  0.0711 -0.2938
28708DOD     C229944  11.465  18.772   6.419 -0.3797 -0.1833 -0.0915
28708DOD     C329945  11.450  19.101   6.747  0.0481 -0.2337 -0.0059
28709DOD     C129946  20.144  14.496  11.073 -0.1640  0.1165  0.1016
28709DOD     C229947  19.977  14.163  10.777  0.0991  0.1340  0.1383
28709DOD     C329948  20.134  13.852  10.452 -0.0536  0.0409 -0.1150
28710DOD     C129949   6.008   0.554   6.084  0.0600  0.1017 -0.2257
28710DOD     C229950   6.262   0.862   6.331  0.1240 -0.0149  0.2305
28710DOD     C329951   6.472   0.994   6.737 -0.0785 -0.3852  0.3581
28711DOD     C129952  17.336   1.393  10.599 -0.4940 -0.0623  0.0948
28711DOD     C229953  17.635   1.140  10.667  0.0422  0.2310 -0.1819
28711DOD     C329954  17.931   0.836  10.893  0.0645 -0.0733 -0.0392
28712DOD     C129955  11.295  12.107  21.253  0.0761 -0.1215 -0.2167
28712DOD     C229956  11.398  11.931  20.799  0.1086  0.1025 -0.0985
28712DOD     C329957  11.592  11.532  20.732 -0.1020 -0.1126  0.2851
28713DOD     C129958  13.576   6.354  13.917  0.2695  0.1713 -0.1375
28713DOD     C229959  13.600   6.856  13.810 -0.1205 -0.1098  0.2215
28713DOD     C329960  13.749   7.213  13.518  0.0545 -0.0223 -0.1224
28714DOD     C129961   9.540   9.314  27.957 -0.0926 -0.1922 -0.1146
28714DOD     C229962   9.256   9.456  28.199 -0.1797 -0.0977  0.1127
28714DOD     C329963   9.071   9.852  28.370  0.3988 -0.1921  0.1025
28715DOD     C129964  20.513  28.385  24.527  0.2644 -0.1900  0.2420
28715DOD     C229965  20.882  28.646  24.598 -0.2981  0.2737 -0.0246
28715DOD     C329966  21.133  29.043  24.504 -0.2031 -0.0818 -0.1251
28716DOD     C129967  11.945   0.615   2.455  0.1193 -0.1167  0.0068
28716DOD     C229968  11.557   0.524   2.246 -0.0429 -0.0581 -0.0895
28716DOD     C329969  11.124   0.566   2.237 -0.0159 -0.2557 -0.1824
28717DOD     C129970  26.967   1.012   1.980  0.1726 -0.0822 -0.1480
28717DOD     C229971  27.321   1.303   1.939  0.0099 -0.2092  0.1779
28717DOD     C329972  27.379   1.810   1.877  0.2414  0.1780  0.0480
28718DOD     C129973  18.200   9.580  23.566  0.0503  0.2037 -0.0434
28718DOD     C229974  18.194   9.803  24.021 -0.3016 -0.1029 -0.2688
28718DOD     C329975  18.031  10.089  24.330 -0.0771 -0.0771  0.0555
28719DOD     C129976  25.131  19.418   7.384  0.0288 -0.0910  0.2566
28719DOD     C229977  24.717  19.652   7.614 -0.0910  0.0358  0.0417
28719DOD     C329978  24.556  19.920   7.871 -0.2198 -0.3535  0.2986
28720DOD     C129979   6.888  17.636  15.347  0.1047  0.2554 -0.1751
28720DOD     C229980   6.816  18.043  15.111 -0.0911 -0.1259  0.1564
28720DOD     C329981   6.609  18.469  15.079  0.2847  0.2184 -0.0789
28721DOD     C129982   0.518  18.795  14.833  0.2266  0.0459 -0.0150
28721DOD     C229983   0.138  18.513  14.685 -0.1918  0.3054  0.2381
28721DOD     C329984  30.325  18.094  14.687  0.2849  0.2478  0.0804
28722DOD     C129985  14.782   1.965   5.813 -0.0015  0.1259  0.1113
28722DOD     C229986  14.512   1.636   5.593  0.0250  0.1007 -0.2519
28722DOD     C329987  14.507   1.132   5.671  0.0071 -0.0412  0.1414
28723DOD     C129988  19.025  11.196  14.216 -0.0031 -0.0111 -0.2456
28723DOD     C229989  19.138  11.506  14.553  0.1062  0.1775  0.4177
28723DOD     C329990  19.067  11.843  14.855  0.0591  0.0876 -0.1419
28724DOD     C129991   7.870   4.296   8.295  0.2524 -0.0588 -0.1224
28724DOD     C229992   7.437   4.318   8.512  0.1067 -0.5015  0.1208
28724DOD     C329993   7.174   4.307   8.924  0.2186  0.0899 -0.1853
28725DOD     C129994   0.721  28.508  18.149 -0.1554  0.2912  0.2905
28725DOD     C229995   0.974  28.647  17.751 -0.1275 -0.3599 -0.0144
28725DOD     C329996   1.353  28.684  17.493 -0.0360 -0.2466 -0.1928
28726DOD     C129997  10.633  20.600  28.801 -0.2185  0.0387 -0.0283
28726DOD     C229998  10.525  20.547  29.241  0.0163 -0.0312  0.0656
28726DOD     C329999  10.771  20.342  29.628  0.1208 -0.1736  0.0420
28727DOD     C130000  16.675   6.662  25.225  0.1785  0.0949  0.3028
28727DOD     C230001  17.074   6.899  25.260 -0.1638  0.2789 -0.0286
28727DOD     C330002  17.463   7.109  25.400 -0.1457  0.2733  0.0704
28728DOD     C130003  26.344   9.390   7.850 -0.2679 -0.0288 -0.1593
28728DOD     C230004  26.552   9.667   7.598 -0.1203 -0.2363 -0.1631
28728DOD     C330005  26.886   9.964   7.550  0.1448 -0.0641  0.0752
28729DOD     C130006  20.858  25.394  21.346 -0.0979 -0.0545 -0.1106
28729DOD     C230007  20.968  25.295  21.778  0.1411 -0.3580 -0.0969
28729DOD     C330008  21.404  25.157  21.899 -0.0640 -0.1372  0.4126
28730DOD     C130009  15.078  12.553  28.115  0.1107  0.3691  0.2778
28730DOD     C230010  15.186  12.162  28.365  0.2510 -0.0380  0.0136
28730DOD     C330011  15.144  11.735  28.206  0.1217 -0.0144  0.0973
28731DOD     C130012  25.706   3.492  27.786  0.0331  0.1552  0.0921
28731DOD     C230013  25.908   3.917  27.874 -0.1782 -0.0578 -0.2507
28731DOD     C330014  26.173   4.329  28.047 -0.1314 -0.1967  0.0785
28732DOD     C130015   9.167  24.822   6.508  0.0507 -0.2487  0.0148
28732DOD     C230016   9.426  24.468   6.677  0.2046 -0.1181  0.0310
28732DOD     C330017   9.767  24.422   6.968 -0.1546  0.1169 -0.0780
28733DOD     C130018  18.119  29.878  11.195  0.3034  0.1505  0.1115
28733DOD     C230019  17.969  29.532  10.858  0.2372 -0.2681 -0.0647
28733DOD     C330020  17.729  29.177  10.609 -0.0487 -0.0844 -0.0603
28734DOD     C130021  20.986   0.978  26.664  0.2669 -0.1272  0.2120
28734DOD     C230022  20.692   0.634  26.634  0.1484  0.0319  0.3465
28734DOD     C330023  20.409   0.467  26.239 -0.1570  0.0919  0.0132
28735DOD     C130024  19.181  12.959  19.398  0.3861  0.1017  0.0273
28735DOD     C230025  19.595  12.873  19.188  0.1608  0.1822  0.0963
28735DOD     C330026  19.907  13.142  18.961 -0.3829 -0.0107  0.2330
28736DOD     C130027  27.448  23.994   1.800 -0.2867  0.0792 -0.0421
28736DOD     C230028  27.640  24.231   1.400 -0.1798  0.0665 -0.3596
28736DOD     C330029  27.964  24.512   1.167  0.1644 -0.2614  0.2274
28737DOD     C130030  22.328  27.202   4.753 -0.0247 -0.0802 -0.0570
28737DOD     C230031  22.319  27.176   5.227 -0.0222 -0.0115 -0.3160
28737DOD     C330032  21.910  27.084   5.429 -0.0502 -0.4397  0.0442
28738DOD     C130033  20.860  17.621  14.132  0.4144 -0.1541  0.0251
28738DOD     C230034  20.645  17.492  14.509  0.1751  0.2244  0.1689
28738DOD     C330035  20.560  17.490  14.992 -0.2090  0.1143 -0.0315
28739DOD     C130036  21.991  20.635  27.298 -0.0490 -0.2292 -0.0474
28739DOD     C230037  22.448  20.574  27.319 -0.2198 -0.2984  0.2412
28739DOD     C330038  22.887  20.483  27.107 -0.0750  0.1665 -0.0235
28740DOD     C130039  29.400   0.046  19.721  0.0856 -0.2602  0.1149
28740DOD     C230040  29.710   0.184  19.374  0.0499  0.1510  0.2264
28740DOD     C330041  30.110   0.212  19.086 -0.1392  0.0525  0.1603
28741DOD     C130042  26.505  12.943  15.720 -0.0642  0.0780  0.0849
28741DOD     C230043  26.807  13.319  15.723  0.2302  0.0342  0.0126
28741DOD     C330044  26.795  13.746  15.950  0.0052 -0.1255  0.3395
28742DOD     C130045  12.333  21.538  23.835  0.0821  0.0995  0.1198
28742DOD     C230046  12.665  21.618  24.155  0.0294  0.3017  0.0339
28742DOD     C330047  12.715  21.523  24.595  0.3402  0.0493 -0.3719
28743DOD     C130048  17.995   6.297   2.402 -0.3346  0.1532  0.3270
28743DOD     C230049  18.103   6.740   2.423  0.0247 -0.1231  0.0477
28743DOD     C330050  18.033   7.120   2.680 -0.1153  0.2924  0.0270
28744DOD     C130051  24.955   0.109  22.310  0.2069 -0.1241 -0.2582
28744DOD     C230052  24.996  30.240  21.903 -0.0188  0.1489  0.4244
28744DOD     C330053  25.120  30.155  21.455 -0.0438 -0.0488  0.0622
28745DOD     C130054  11.509  17.809  23.142  0.0627  0.0718  0.0536
28745DOD     C230055  11.242  17.821  23.514 -0.0389  0.2129 -0.0667
28745DOD     C330056  10.936  18.051  23.760  0.0164 -0.1959 -0.2358
28746DOD     C130057  17.759   2.812  12.618  0.3327  0.1196  0.2112
28746DOD     C230058  17.891   2.914  12.180  0.1216  0.0375 -0.2591
28746DOD     C330059  17.952   2.796  11.718 -0.0305 -0.0257 -0.2342
28747DOD     C130060  22.963  24.723  14.341  0.2853 -0.0152  0.2735
28747DOD     C230061  22.508  24.796  14.291  0.1160  0.1048 -0.1023
28747DOD     C330062  22.179  25.035  14.471 -0.4112  0.0690  0.2359
28748DOD     C130063  18.055  28.651  16.123  0.0777  0.0621 -0.0705
28748DOD     C230064  18.357  28.433  16.415  0.0805  0.2030  0.3318
28748DOD     C330065  18.276  28.342  16.899  0.0150  0.0742 -0.0973
28749DOD     C130066  11.729  11.328  13.131  0.1111 -0.2509  0.0951
28749DOD     C230067  11.889  11.586  12.794 -0.1296  0.0153 -0.1116
28749DOD     C330068  12.181  11.600  12.408 -0.3241  0.1083  0.1575
28750DOD     C130069   2.146  15.843  30.306 -0.0335 -0.4126  0.1708
28750DOD     C230070   2.247  15.381   0.005  0.2956  0.0507 -0.1918
28750DOD     C330071   2.614  15.120  30.262 -0.2172  0.0537  0.0835
28751DOD     C130072  17.588  13.661  23.991  0.1746 -0.0811  0.0165
28751DOD     C230073  17.203  13.701  24.181 -0.0715 -0.2219  0.0649
28751DOD     C330074  16.966  13.475  24.581  0.0282 -0.2242  0.0709
28752DOD     C130075  19.700  21.766  11.179 -0.1476 -0.1180 -0.1044
28752DOD     C230076  19.513  21.339  11.051  0.1326  0.1347  0.0298
28752DOD     C330077  19.289  21.023  10.812 -0.1633  0.2120  0.3635
28753DOD     C130078  27.065  18.023  27.756 -0.0278  0.0220 -0.3052
28753DOD     C230079  26.596  17.941  27.768 -0.0102  0.0171  0.3362
28753DOD     C330080  26.293  17.781  28.031  0.0585  0.1454  0.0455
28754DOD     C130081  18.053  10.233  29.747  0.2221  0.2821  0.1043
28754DOD     C230082  18.169   9.821  29.958  0.1875 -0.0728  0.2953
28754DOD     C330083  18.342   9.472  30.168 -0.2002 -0.0093 -0.0273
28755DOD     C130084  24.496   1.922  11.151 -0.1717  0.2522 -0.1191
28755DOD     C230085  24.952   1.981  11.318 -0.0818  0.0022  0.3190
28755DOD     C330086  25.338   1.727  11.405 -0.1473  0.0613 -0.0813
28756DOD     C130087  24.750  22.392   9.483  0.0487  0.0591  0.1315
28756DOD     C230088  24.623  22.367   9.064  0.3039  0.2243 -0.0680
28756DOD     C330089  24.319  22.410   8.701  0.0223  0.0301  0.0854
28757DOD     C130090   8.006   5.712  25.954 -0.0578  0.1677 -0.0062
28757DOD     C230091   8.192   6.041  26.166 -0.0178 -0.3228 -0.0666
28757DOD     C330092   8.408   6.407  26.432  0.0516  0.2457  0.0930
28758DOD     C130093  24.257  11.282   4.665 -0.2785  0.0552 -0.3563
28758DOD     C230094  24.321  11.722   4.752 -0.1590  0.0566  0.2045
28758DOD     C330095  24.227  12.204   4.850  0.0119 -0.4777  0.1431
28759DOD     C130096  15.504   6.533  22.889 -0.0117  0.0888  0.1462
28759DOD     C230097  15.526   6.046  22.846  0.0879 -0.0159  0.0461
28759DOD     C330098  15.793   5.691  23.058  0.1508  0.0859  0.2434
28760DOD     C130099   6.849  12.040   6.719 -0.2605 -0.3515  0.4244
28760DOD     C230100   6.906  12.409   7.038  0.3280 -0.0372  0.1651
28760DOD     C330101   6.822  12.368   7.448  0.0761 -0.3808  0.3156
28761DOD     C130102  12.756  10.496  21.390 -0.0125 -0.3074 -0.2608
28761DOD     C230103  12.891  10.725  21.017  0.1859 -0.0062  0.0230
28761DOD     C330104  12.621  10.463  20.685 -0.0570 -0.2672 -0.1845
28762DOD     C130105   6.117  25.560   1.970  0.0767 -0.0882 -0.0019
28762DOD     C230106   5.987  25.939   2.211  0.0715 -0.1865  0.0470
28762DOD     C330107   5.669  26.308   2.351 -0.2447  0.0111 -0.1960
28763DOD     C130108   6.241  15.988  13.293 -0.1071  0.0383 -0.2968
28763DOD     C230109   5.811  16.150  13.392 -0.1101  0.0885  0.3556
28763DOD     C330110   5.326  16.157  13.245 -0.0624 -0.1191 -0.1752
28764DOD     C130111  29.396   3.257  28.803  0.1475  0.4210 -0.0796
28764DOD     C230112  29.298   3.324  29.268 -0.0334  0.2021  0.0535
28764DOD     C330113  29.431   3.606  29.575  0.0395  0.0614 -0.2644
28765DOD     C130114  13.013  22.829  15.624  0.0132 -0.0452  0.0982
28765DOD     C230115  12.882  22.559  15.944 -0.1017  0.0557  0.0570
28765DOD     C330116  12.929  22.622  16.416  0.0164  0.2967 -0.3161
28766DOD     C130117  27.991   1.603  22.537  0.3053  0.2339  0.1024
28766DOD     C230118  28.455   1.534  22.611 -0.0214 -0.1069  0.2920
28766DOD     C330119  28.864   1.562  22.373  0.0707  0.3279  0.0938
28767DOD     C130120  26.932  27.646  21.244 -0.0236 -0.2396  0.1212
28767DOD     C230121  27.306  27.608  21.482  0.2280 -0.0790 -0.0049
28767DOD     C330122  27.667  27.280  21.609  0.2169  0.2734  0.2408
28768DOD     C130123  23.222  12.758   4.436  0.1189  0.0556 -0.0213
28768DOD     C230124  22.982  12.462   4.142 -0.0528 -0.0969 -0.0586
28768DOD     C330125  23.069  12.221   3.737  0.1290 -0.1949  0.1471
28769DOD     C130126   9.565  27.016   9.943 -0.1440  0.0866  0.1038
28769DOD     C230127   9.107  26.968  10.104  0.1685 -0.1887 -0.1195
28769DOD     C330128   8.753  26.596  10.234 -0.0560  0.1061 -0.1748
28770DOD     C130129  22.732  10.026   0.200 -0.3815  0.1208 -0.2819
28770DOD     C230130  23.000   9.999   0.600  0.0229  0.0063  0.1655
28770DOD     C330131  23.143   9.855   0.999 -0.0770  0.1455  0.1873
28771DOD     C130132  24.774  23.657  18.490  0.1758 -0.1801 -0.0828
28771DOD     C230133  25.021  23.310  18.735  0.0059 -0.0006  0.1917
28771DOD     C330134  25.369  23.019  19.007  0.0272  0.1331  0.1175
28772DOD     C130135  22.848  20.799  25.071  0.1554 -0.4524  0.0919
28772DOD     C230136  23.245  21.046  25.175  0.2105 -0.0883 -0.0285
28772DOD     C330137  23.647  21.120  24.975  0.0122 -0.2717 -0.0445
28773DOD     C130138  28.295   0.080  23.690 -0.0507  0.0273 -0.0590
28773DOD     C230139  28.770   0.099  23.776 -0.1972  0.0266 -0.0454
28773DOD     C330140  29.123  30.240  24.009 -0.1958  0.0729  0.3284
28774DOD     C130141  22.275  17.675  28.786  0.1052  0.0675  0.0842
28774DOD     C230142  22.256  17.327  29.069 -0.3473 -0.1257  0.2207
28774DOD     C330143  22.392  17.064  29.467  0.1872 -0.2962  0.0627
28775DOD     C130144  27.701  25.721   7.852  0.0921  0.1789 -0.1633
28775DOD     C230145  27.298  25.874   7.986 -0.0124  0.1455 -0.2271
28775DOD     C330146  26.823  26.017   8.038  0.0018  0.0907  0.0833
28776DOD     C130147  25.699   0.487  24.730  0.1085 -0.1049 -0.2044
28776DOD     C230148  26.162   0.343  24.624 -0.2443 -0.2299 -0.2446
28776DOD     C330149  26.341  30.301  24.843 -0.0944 -0.1518 -0.3902
28777DOD     C130150   5.475  30.107  11.735 -0.2344 -0.0255 -0.1619
28777DOD     C230151   5.330  29.918  12.087 -0.1796 -0.0072 -0.1381
28777DOD     C330152   5.176  29.702  12.472 -0.4083 -0.0757 -0.1097
28778DOD     C130153  14.761   9.443   7.012  0.4601 -0.3484 -0.3964
28778DOD     C230154  15.031   9.666   7.351  0.0719  0.0181  0.1071
28778DOD     C330155  15.172   9.945   7.677  0.0993  0.0724  0.3370
28779DOD     C130156   5.909  15.855  29.233 -0.0066  0.2034 -0.0068
28779DOD     C230157   6.303  15.732  28.998  0.1287 -0.3684 -0.4583
28779DOD     C330158   6.556  15.642  28.616 -0.1384  0.1075 -0.1640
28780DOD     C130159   3.666  11.620  21.758 -0.1581  0.1291  0.2491
28780DOD     C230160   4.052  11.863  21.692  0.0074  0.1038 -0.1622
28780DOD     C330161   4.446  12.093  21.722 -0.0175 -0.0837  0.2103
28781DOD     C130162  29.649   4.966   7.809  0.1881 -0.1171 -0.1513
28781DOD     C230163  29.432   5.060   7.419  0.0854 -0.0021  0.2538
28781DOD     C330164  29.166   4.884   7.049 -0.1711 -0.0193  0.0315
28782DOD     C130165   0.777  14.116  11.929  0.0101  0.1017  0.1328
28782DOD     C230166   1.192  13.994  12.183  0.2360  0.2224  0.0807
28782DOD     C330167   1.229  13.575  12.395 -0.1215 -0.2150 -0.1685
28783DOD     C130168   8.719   7.644   0.333 -0.0051 -0.0269  0.0129
28783DOD     C230169   8.630   7.859  30.202  0.1623 -0.1631  0.1650
28783DOD     C330170   8.743   8.238  29.915  0.0723  0.2175 -0.2299
28784DOD     C130171  27.203  12.571  11.360  0.1389 -0.0788 -0.1678
28784DOD     C230172  26.979  12.672  11.756  0.1305  0.1543 -0.0587
28784DOD     C330173  26.799  12.802  12.167 -0.0363  0.3334 -0.0185
28785DOD     C130174  26.122  26.390  11.448  0.0451 -0.1849 -0.4049
28785DOD     C230175  26.278  26.520  11.859 -0.1376 -0.0978 -0.1427
28785DOD     C330176  26.692  26.602  11.998 -0.3315 -0.2232 -0.0533
28786DOD     C130177   9.559  17.382  14.362  0.2077  0.0698 -0.2584
28786DOD     C230178   9.510  17.265  13.889  0.0853 -0.1647  0.1618
28786DOD     C330179   9.243  17.119  13.528  0.0175 -0.0597  0.1840
28787DOD     C130180  22.012  24.612  27.912 -0.0054 -0.3817  0.0437
28787DOD     C230181  21.627  24.842  27.956  0.3698 -0.2050 -0.1372
28787DOD     C330182  21.147  24.995  28.020 -0.2423  0.2062  0.3748
28788DOD     C130183  12.189  28.292  26.911  0.1182 -0.3550 -0.0166
28788DOD     C230184  12.336  27.910  26.625 -0.2234 -0.2875 -0.3121
28788DOD     C330185  12.413  27.576  26.268 -0.1657  0.1341  0.1690
28789DOD     C130186  24.833  10.057   4.745  0.1408  0.3383  0.2994
28789DOD     C230187  24.391  10.162   4.872  0.1805  0.1550  0.0964
28789DOD     C330188  23.985  10.311   5.071  0.1087 -0.1072 -0.1272
28790DOD     C130189  30.114   3.414   0.168  0.1294 -0.0678  0.0265
28790DOD     C230190  30.025   3.172  30.119 -0.4364  0.2042  0.1462
28790DOD     C330191  29.720   3.214  29.740 -0.0347  0.0760 -0.0854
28791DOD     C130192  12.016  23.911  21.020 -0.1983  0.0506  0.1537
28791DOD     C230193  12.242  23.608  21.330  0.1056 -0.1772 -0.2623
28791DOD     C330194  12.379  23.790  21.770 -0.4154  0.1914 -0.0234
28792DOD     C130195  22.753  13.684   3.435 -0.2839 -0.2861  0.1082
28792DOD     C230196  22.496  13.356   3.287 -0.1578  0.1430  0.4360
28792DOD     C330197  22.196  13.126   3.553 -0.0544 -0.1222  0.3402
28793DOD     C130198  23.965   9.958  17.654  0.1035  0.2086 -0.0785
28793DOD     C230199  24.382  10.172  17.662  0.1720 -0.0635 -0.2193
28793DOD     C330200  24.721  10.425  17.677  0.1251 -0.2880  0.1166
28794DOD     C130201  12.645   1.655   3.140 -0.1009 -0.1482  0.0696
28794DOD     C230202  13.028   1.863   3.286  0.0031 -0.0025 -0.3701
28794DOD     C330203  13.451   1.958   3.480 -0.1680 -0.0719 -0.0085
28795DOD     C130204  19.829  30.226   1.692 -0.0399  0.2501 -0.0516
28795DOD     C230205  19.967   0.370   1.670 -0.1525  0.1464 -0.3903
28795DOD     C330206  19.825   0.818   1.635  0.1366  0.2048 -0.1865
28796DOD     C130207  14.275  20.705  14.701 -0.1905  0.0303  0.0544
28796DOD     C230208  14.476  20.795  14.310  0.2108 -0.0943  0.0312
28796DOD     C330209  14.420  21.033  13.909 -0.0547 -0.1070  0.0681
28797DOD     C130210  14.241   0.347  11.908  0.0369  0.2629 -0.3480
28797DOD     C230211  14.396   0.577  11.533  0.1283 -0.0268 -0.2598
28797DOD     C330212  14.352   0.794  11.100 -0.0644 -0.1569 -0.1824
28798DOD     C130213  16.593  20.018  15.884 -0.1513 -0.1307  0.1145
28798DOD     C230214  16.783  20.433  15.973 -0.2593  0.1175  0.0461
28798DOD     C330215  17.070  20.766  16.230  0.2074  0.0373  0.2255
28799DOD     C130216   9.540   2.986  29.339  0.0466  0.2181  0.0338
28799DOD     C230217   9.485   3.245  29.716 -0.2479 -0.0455 -0.1536
28799DOD     C330218   9.400   3.663  29.854  0.1192 -0.1424 -0.1497
28800DOD     C130219   4.051  28.911  16.387  0.0503 -0.0798  0.0883
28800DOD     C230220   4.340  29.063  16.708 -0.0463  0.2232 -0.1958
28800DOD     C330221   4.526  29.465  16.895  0.0102  0.1506 -0.1241
28801DOD     C130222  17.422   8.033  19.000 -0.1221 -0.2899  0.0583
28801DOD     C230223  17.385   8.193  18.547  0.0903  0.3971  0.4150
28801DOD     C330224  17.804   8.196  18.247  0.2923 -0.3478 -0.1885
28802DOD     C130225   3.711  27.553  18.588  0.0676 -0.0544  0.0737
28802DOD     C230226   4.005  27.207  18.802  0.1264  0.2721  0.1104
28802DOD     C330227   3.976  26.911  19.186  0.0659  0.1132  0.1198
28803DOD     C130228  29.149  12.622   6.374  0.2470 -0.0287  0.1499
28803DOD     C230229  28.912  12.650   6.752  0.2105  0.1639  0.0864
28803DOD     C330230  28.670  12.231   6.984  0.2184  0.2626 -0.2564
28804DOD     C130231  17.241  23.036  25.069 -0.1998 -0.3468  0.2189
28804DOD     C230232  16.966  23.219  25.328  0.2287 -0.1994 -0.1448
28804DOD     C330233  16.509  23.175  25.349 -0.0071  0.1955 -0.2283
28805DOD     C130234  15.473  22.758   6.533  0.1255 -0.0495  0.1579
28805DOD     C230235  15.927  22.852   6.688  0.0692 -0.0421 -0.3316
28805DOD     C330236  16.357  22.977   6.723 -0.1332 -0.1657  0.1423
28806DOD     C130237  15.261  22.662  19.677 -0.2369 -0.0405  0.2446
28806DOD     C230238  15.326  22.883  20.078  0.4114  0.0361 -0.1154
28806DOD     C330239  15.321  22.934  20.558  0.0669 -0.0973  0.0223
28807DOD     C130240  16.995   4.532   7.999 -0.2017  0.2110  0.1546
28807DOD     C230241  17.237   4.901   8.010  0.0079 -0.0606  0.1653
28807DOD     C330242  17.620   4.970   8.219  0.1436  0.1812  0.2541
28808DOD     C130243  15.123  11.346  25.672  0.1721  0.0823  0.0500
28808DOD     C230244  15.366  10.890  25.748  0.1405  0.2775 -0.0701
28808DOD     C330245  15.510  10.489  25.971  0.2495  0.1371  0.0706
28809DOD     C130246  19.120   0.900  13.775 -0.1236  0.1982 -0.1807
28809DOD     C230247  18.858   0.706  13.498  0.2517  0.2440  0.0035
28809DOD     C330248  18.419   0.471  13.679 -0.0233 -0.1475  0.1876
28810DOD     C130249   8.295   2.092  12.533  0.2421 -0.0932 -0.2386
28810DOD     C230250   8.356   1.857  12.915  0.0955  0.4833 -0.0484
28810DOD     C330251   8.154   1.996  13.343 -0.0235  0.1106 -0.2141
28811DOD     C130252   5.488  10.170  11.129  0.1881  0.1845 -0.0320
28811DOD     C230253   5.104  10.043  11.324 -0.0818  0.1747  0.0275
28811DOD     C330254   4.652  10.102  11.341  0.0676  0.0512 -0.4471
28812DOD     C130255  10.731  30.143  29.646 -0.2558  0.0348  0.2233
28812DOD     C230256  11.084  29.868  29.713  0.2194 -0.2281  0.0825
28812DOD     C330257  11.470  29.648  29.640 -0.1819 -0.2417  0.1544
28813DOD     C130258  21.322  10.116  27.804 -0.3277 -0.0502 -0.3274
28813DOD     C230259  21.653   9.995  27.483 -0.3901  0.1331  0.1721
28813DOD     C330260  21.742   9.616  27.289 -0.1294 -0.0811  0.1530
28814DOD     C130261  12.453   8.711  14.127  0.0498  0.0708  0.0154
28814DOD     C230262  12.174   9.103  14.319 -0.2185  0.0702  0.1750
28814DOD     C330263  11.937   9.401  14.027  0.0909  0.1166  0.0730
28815DOD     C130264   2.631  17.751   1.743  0.2850 -0.0636 -0.0130
28815DOD     C230265   2.857  17.985   1.380 -0.0201  0.1831 -0.1959
28815DOD     C330266   2.880  18.306   1.001 -0.1716  0.0263  0.4762
28816DOD     C130267   0.171  10.933  12.033 -0.3560  0.1372 -0.0901
28816DOD     C230268   0.185  10.523  12.243 -0.1830 -0.4827 -0.2582
28816DOD     C330269  30.270  10.168  12.212 -0.1247 -0.0998 -0.0606
28817DOD     C130270   9.853   7.859  15.883 -0.0674 -0.1015 -0.1918
28817DOD     C230271   9.676   7.397  15.939 -0.2019 -0.2016  0.1185
28817DOD     C330272   9.331   7.169  15.750  0.2192 -0.0637  0.0332
28818DOD     C130273   4.860  29.620  25.173  0.0373 -0.1042 -0.4134
28818DOD     C230274   4.871  29.923  24.733 -0.3588 -0.0152 -0.1983
28818DOD     C330275   4.671  30.241  24.440  0.0121 -0.1094  0.1944
28819DOD     C130276  29.578  24.810  20.042 -0.0060  0.2200  0.0839
28819DOD     C230277  29.614  25.265  19.927  0.1391 -0.1374 -0.1346
28819DOD     C330278  29.456  25.607  19.673  0.0874  0.1034  0.0684
28820DOD     C130279   0.092  21.073  23.572 -0.0203  0.1136 -0.1151
28820DOD     C230280   0.234  21.521  23.523 -0.0513 -0.1015  0.0485
28820DOD     C330281   0.508  21.929  23.505  0.1423  0.2745  0.1266
28821DOD     C130282  29.694  25.883  15.220  0.2345  0.1831  0.1381
28821DOD     C230283  29.984  26.215  15.417  0.0891 -0.0539 -0.0862
28821DOD     C330284   0.087  26.270  15.565 -0.0406 -0.0606  0.0109
28822DOD     C130285   0.978   3.596  13.486  0.0956  0.0980  0.1017
28822DOD     C230286   1.104   3.845  13.117  0.0897 -0.1105 -0.0323
28822DOD     C330287   1.118   4.051  12.735 -0.0818 -0.2260  0.1078
28823DOD     C130288   6.986  23.898   2.881  0.1041  0.1655  0.0804
28823DOD     C230289   6.572  23.984   3.038  0.0861 -0.1174  0.2010
28823DOD     C330290   6.189  24.196   3.210  0.0163  0.0134 -0.2040
28824DOD     C130291  18.401  26.045  18.069 -0.2670  0.0540  0.1091
28824DOD     C230292  18.404  25.757  17.737  0.2454 -0.2564 -0.1387
28824DOD     C330293  18.385  25.956  17.331 -0.3743 -0.0662  0.0234
28825DOD     C130294  30.273   6.273  12.105 -0.1983  0.0911 -0.0010
28825DOD     C230295   0.161   6.110  12.491  0.0286 -0.0192  0.0134
28825DOD     C330296   0.067   5.832  12.842 -0.1024 -0.0504 -0.0673
28826DOD     C130297  20.931  15.132  21.839 -0.1788  0.0681 -0.0528
28826DOD     C230298  20.828  15.173  22.323  0.2963 -0.1930  0.1537
28826DOD     C330299  20.396  15.025  22.322 -0.0888 -0.2342 -0.2440
28827DOD     C130300  20.830   9.335  19.432 -0.2039 -0.1332 -0.0374
28827DOD     C230301  20.706   9.434  19.921  0.1742 -0.2812  0.0733
28827DOD     C330302  20.735   9.172  20.311  0.2739 -0.2792 -0.0878
28828DOD     C130303   6.065  16.197  28.868  0.3070 -0.3436  0.1245
28828DOD     C230304   6.257  16.026  28.496 -0.1287 -0.0132  0.0845
28828DOD     C330305   6.238  15.846  28.101  0.1264 -0.2931 -0.0211
28829DOD     C130306  28.902   7.632  22.112  0.0880 -0.1487 -0.5583
28829DOD     C230307  28.999   7.204  22.134  0.1865  0.0238 -0.1212
28829DOD     C330308  29.418   6.953  22.197  0.0294 -0.2262  0.1659
28830DOD     C130309  13.135   4.746   1.956  0.0542 -0.1987  0.3729
28830DOD     C230310  13.487   4.783   2.240  0.0585  0.0911  0.2022
28830DOD     C330311  13.500   4.844   2.692  0.3219 -0.0912 -0.1013
28831DOD     C130312  10.890   7.333   8.874 -0.1207  0.0709  0.0955
28831DOD     C230313  11.132   7.451   9.228 -0.0876 -0.0243 -0.1328
28831DOD     C330314  11.536   7.251   9.406 -0.0593  0.2564 -0.3232
28832DOD     C130315  25.824   8.658  14.802 -0.0968 -0.1453 -0.0727
28832DOD     C230316  25.322   8.689  14.827 -0.1587 -0.1407 -0.2620
28832DOD     C330317  24.938   8.879  15.000 -0.2459  0.2780  0.3093
28833DOD     C130318   2.409   3.081  19.636 -0.3302  0.0550  0.0058
28833DOD     C230319   1.932   3.232  19.587 -0.0332 -0.4445  0.1239
28833DOD     C330320   1.471   3.070  19.659  0.0034  0.1953  0.1792
28834DOD     C130321  18.934  17.879  16.876  0.0414  0.4983 -0.1761
28834DOD     C230322  19.240  17.764  16.542 -0.0686 -0.0887 -0.1646
28834DOD     C330323  19.452  17.876  16.095  0.1133 -0.2024  0.2973
28835DOD     C130324   0.285   7.180  18.337  0.3217 -0.2563 -0.4433
28835DOD     C230325   0.283   7.409  18.763 -0.1843 -0.2903 -0.0566
28835DOD     C330326   0.386   7.632  19.112 -0.3397 -0.0501 -0.1426
28836DOD     C130327  29.895  19.013  26.623 -0.0238 -0.0455  0.3385
28836DOD     C230328  30.160  18.611  26.573 -0.1831  0.0997  0.1079
28836DOD     C330329  29.942  18.178  26.628 -0.2671  0.1732  0.0355
28837DOD     C130330  21.254   7.280   7.671 -0.0729  0.1706  0.1218
28837DOD     C230331  21.037   6.928   7.891 -0.2589 -0.0077 -0.1877
28837DOD     C330332  20.575   6.873   7.912 -0.1175  0.0308  0.0248
28838DOD     C130333   0.121  28.363   1.979 -0.2791 -0.0731  0.1155
28838DOD     C230334   0.373  27.980   2.149 -0.2435  0.2018  0.1743
28838DOD     C330335   0.811  27.804   2.220 -0.1527 -0.0961  0.2010
28839DOD     C130336   0.344  19.546   3.244 -0.1395 -0.1111  0.1426
28839DOD     C230337   0.174  19.927   3.445 -0.1915  0.1889 -0.0977
28839DOD     C330338  30.256  20.293   3.547 -0.0486 -0.0163  0.0795
28840DOD     C130339   6.182   2.394  23.749 -0.0600 -0.1142  0.4802
28840DOD     C230340   6.071   2.142  24.093  0.2038  0.2154  0.2071
28840DOD     C330341   6.106   1.972  24.484  0.2281  0.1866 -0.0593
28841DOD     C130342  29.735   0.796  17.457  0.1451  0.0601 -0.1666
28841DOD     C230343  30.150   0.876  17.482  0.2968  0.1976  0.2968
28841DOD     C330344   0.192   0.649  17.572 -0.1121  0.0715  0.1192
28842DOD     C130345   1.774  10.399  15.927 -0.0013 -0.0037 -0.0782
28842DOD     C230346   1.331  10.403  16.010  0.1609 -0.1958 -0.2431
28842DOD     C330347   0.972  10.537  16.241  0.0186  0.2305 -0.2935
28843DOD     C130348  28.887  25.872   5.672  0.1099  0.0021 -0.2174
28843DOD     C230349  28.830  26.181   5.351 -0.3819 -0.0918 -0.0250
28843DOD     C330350  28.769  26.353   4.929 -0.2144 -0.2824 -0.0403
28844DOD     C130351   5.603   7.872   6.831  0.0873 -0.2526 -0.1132
28844DOD     C230352   5.950   8.081   6.644 -0.1052 -0.3405 -0.2192
28844DOD     C330353   5.969   8.399   6.314 -0.3729 -0.1285  0.0437
28845DOD     C130354  10.898  10.029   2.516 -0.1569 -0.1388  0.1520
28845DOD     C230355  10.505   9.835   2.496  0.1435 -0.0801  0.0064
28845DOD     C330356   9.994   9.947   2.468 -0.3975  0.0276 -0.1630
28846DOD     C130357  13.959   7.433  18.257  0.1845  0.1400 -0.1589
28846DOD     C230358  13.627   7.303  18.533  0.0206  0.3179  0.0639
28846DOD     C330359  13.166   7.300  18.513 -0.1591 -0.1798 -0.0431
28847DOD     C130360   1.723  28.501  13.952 -0.1577 -0.2170  0.2996
28847DOD     C230361   1.708  28.940  14.038  0.2137  0.1799  0.0800
28847DOD     C330362   1.833  29.370  14.142  0.1649 -0.0765  0.2154
28848DOD     C130363  21.127  15.986   4.626  0.0000  0.0687 -0.0434
28848DOD     C230364  21.063  15.706   4.956  0.1631 -0.1866 -0.0013
28848DOD     C330365  21.115  15.304   5.239  0.0524 -0.1072 -0.1016
28849DOD     C130366   9.407  10.535  16.725  0.0937  0.2349 -0.0116
28849DOD     C230367   9.172  10.637  16.292 -0.4412  0.1681 -0.0848
28849DOD     C330368   9.239  10.967  15.937  0.1126  0.0817 -0.2251
28850DOD     C130369   8.158   8.069   2.059 -0.0574  0.0627 -0.1999
28850DOD     C230370   8.048   8.380   2.352  0.2191  0.1591  0.0107
28850DOD     C330371   7.727   8.462   2.720  0.0093  0.1474 -0.0700
28851DOD     C130372  20.444  23.761  25.589  0.0744  0.0428 -0.2418
28851DOD     C230373  20.178  23.424  25.400 -0.0354  0.0821 -0.1031
28851DOD     C330374  19.942  23.035  25.355  0.1848 -0.0463  0.1477
28852DOD     C130375   2.484   1.738   6.595  0.0905  0.0117 -0.0149
28852DOD     C230376   2.846   2.084   6.543  0.1026 -0.1428 -0.0181
28852DOD     C330377   3.119   2.384   6.417  0.1792  0.2598 -0.1930
28853DOD     C130378  20.677  20.023   2.765  0.1023 -0.1936 -0.0962
28853DOD     C230379  20.762  20.242   3.173  0.3264 -0.0295  0.3921
28853DOD     C330380  20.587  20.216   3.650 -0.0021  0.4211  0.0289
28854DOD     C130381  24.524  15.126  17.938  0.0138 -0.0383  0.2419
28854DOD     C230382  24.356  14.966  18.261  0.1952  0.2009  0.0724
28854DOD     C330383  24.006  14.948  18.529  0.1115  0.1533 -0.0528
28855DOD     C130384  25.125  19.409  19.251  0.2532 -0.1824 -0.0863
28855DOD     C230385  25.006  19.568  18.797  0.0957  0.0922  0.0653
28855DOD     C330386  25.070  19.465  18.356 -0.0345  0.0150  0.0968
28856DOD     C130387  13.213  13.955  11.911  0.0407 -0.1594 -0.3218
28856DOD     C230388  13.122  13.606  11.629 -0.1747  0.0732 -0.0436
28856DOD     C330389  13.127  13.212  11.429  0.1071  0.0207  0.1599
28857DOD     C130390   9.900  18.948  22.226 -0.2564  0.1183  0.0352
28857DOD     C230391   9.638  18.741  21.889 -0.0499  0.0590  0.1615
28857DOD     C330392   9.278  18.627  21.672  0.0255  0.1738  0.0161
28858DOD     C130393   1.057   3.581  26.540  0.0421 -0.2024 -0.2312
28858DOD     C230394   0.778   3.938  26.605  0.0228  0.1834 -0.2931
28858DOD     C330395   0.363   4.081  26.752 -0.0280 -0.3227  0.1056
28859DOD     C130396  27.666  29.478  23.845 -0.2225 -0.0503 -0.0135
28859DOD     C230397  28.097  29.478  23.589  0.1889 -0.3381 -0.1982
28859DOD     C330398  28.399  29.662  23.266  0.2835 -0.1474 -0.1661
28860DOD     C130399  26.968  19.411  17.431  0.3328 -0.5227  0.2201
28860DOD     C230400  26.701  19.449  17.870 -0.0652  0.2114  0.2203
28860DOD     C330401  26.507  19.425  18.300  0.0889 -0.0021  0.1487
28861DOD     C130402  11.832  11.926   4.748 -0.2340 -0.5053  0.2519
28861DOD     C230403  11.666  11.492   4.837 -0.1718 -0.2468 -0.2262
28861DOD     C330404  11.803  11.065   5.035 -0.1863 -0.1513 -0.1310
28862DOD     C130405  26.633  21.762  25.940  0.1441 -0.1380  0.1333
28862DOD     C230406  26.655  21.801  25.410  0.0526 -0.0416 -0.3217
28862DOD     C330407  26.765  21.869  24.949  0.0189 -0.0212  0.1714
28863DOD     C130408  28.813  18.672  22.983  0.3838 -0.0768  0.1636
28863DOD     C230409  28.356  18.722  22.898  0.2526  0.1295 -0.0250
28863DOD     C330410  28.015  18.916  22.629 -0.2543 -0.2615  0.1739
28864DOD     C130411   0.845   2.060  30.027 -0.1304 -0.0633 -0.0348
28864DOD     C230412   1.279   1.913  30.029  0.0599 -0.2290 -0.1821
28864DOD     C330413   1.541   1.562  29.803 -0.1173  0.1375  0.0543
28865DOD     C130414  12.136  26.113   8.495 -0.1932  0.1549  0.1654
28865DOD     C230415  11.655  26.024   8.436 -0.1344  0.3211  0.2483
28865DOD     C330416  11.370  25.706   8.565  0.1469 -0.1067 -0.0306
28866DOD     C130417  17.172  21.157   0.189 -0.0286  0.0088 -0.4589
28866DOD     C230418  17.366  21.096  30.044  0.1975 -0.1584  0.0762
28866DOD     C330419  17.484  20.890  29.639 -0.2839 -0.3746  0.0313
28867DOD     C130420  17.900  28.352  25.871 -0.1444  0.0129  0.1269
28867DOD     C230421  18.127  28.481  25.494  0.0187 -0.0002  0.1686
28867DOD     C330422  18.133  28.912  25.275 -0.2112  0.0187 -0.0142
28868DOD     C130423  22.453  13.030   6.938  0.0387  0.0939  0.3880
28868DOD     C230424  22.718  13.436   7.012  0.2165  0.2943 -0.4540
28868DOD     C330425  23.131  13.577   7.116  0.3731 -0.1300  0.0635
28869DOD     C130426   4.909  16.623  28.244  0.3896 -0.3758  0.0036
28869DOD     C230427   4.692  16.531  28.673 -0.1214 -0.0690 -0.0830
28869DOD     C330428   4.281  16.593  28.902  0.2378 -0.2255  0.0903
28870DOD     C130429  24.009  13.075  19.146 -0.0452 -0.3518  0.1054
28870DOD     C230430  23.924  12.683  19.360 -0.0426  0.0299 -0.1484
28870DOD     C330431  23.599  12.392  19.495  0.0775  0.1124  0.1426
28871DOD     C130432  18.746   4.345  23.548  0.3095  0.1790  0.2294
28871DOD     C230433  19.089   4.324  23.913 -0.0908  0.1399 -0.1537
28871DOD     C330434  19.495   4.217  24.191  0.1215 -0.0317  0.0773
28872DOD     C130435   3.168   7.230   9.489 -0.1528  0.3954  0.4251
28872DOD     C230436   3.077   7.061   9.079 -0.2493  0.1838  0.3748
28872DOD     C330437   2.930   6.647   8.885 -0.0044 -0.1124  0.0166
28873DOD     C130438  21.194  24.660   6.476 -0.3507 -0.0163  0.2196
28873DOD     C230439  20.844  24.673   6.154  0.3762  0.3676 -0.0336
28873DOD     C330440  20.482  24.927   6.042 -0.1409  0.1231 -0.0459
28874DOD     C130441   1.594  17.219  14.355 -0.0465 -0.0538  0.1361
28874DOD     C230442   1.261  17.600  14.347 -0.1261  0.1635 -0.3341
28874DOD     C330443   1.133  18.001  14.426 -0.1196 -0.0805  0.1412
28875DOD     C130444  10.659  28.918  15.932  0.0236 -0.1393  0.0875
28875DOD     C230445  10.714  29.277  15.617  0.2375 -0.0551 -0.0480
28875DOD     C330446  10.546  29.632  15.462  0.0637 -0.0077 -0.1826
28876DOD     C130447  19.310  17.739   8.931 -0.0952  0.0560 -0.1332
28876DOD     C230448  19.239  17.345   9.107 -0.0012  0.2514  0.1027
28876DOD     C330449  19.406  16.907   9.154  0.2704 -0.0130  0.1435
28877DOD     C130450   3.875   6.095   0.712  0.0490 -0.0331 -0.0887
28877DOD     C230451   3.560   6.024   0.380  0.0385  0.1221 -0.0879
28877DOD     C330452   3.531   5.799  30.315 -0.2260  0.1144  0.3992
28878DOD     C130453  18.037  10.227  26.965 -0.1063 -0.1452  0.0538
28878DOD     C230454  18.316  10.226  27.341  0.4294  0.0364  0.2623
28878DOD     C330455  18.741  10.303  27.515  0.2054  0.1169  0.1333
28879DOD     C130456  29.582   2.479  12.531  0.0719  0.1137 -0.0712
28879DOD     C230457  29.548   2.328  12.948 -0.1603 -0.0065  0.2753
28879DOD     C330458  29.276   2.442  13.303  0.0922  0.2293  0.1934
28880DOD     C130459  10.898  20.103  12.726  0.1406 -0.3389  0.0218
28880DOD     C230460  10.677  19.756  12.571  0.0135 -0.0260 -0.2102
28880DOD     C330461  10.346  19.502  12.456 -0.5297 -0.1759  0.1072
28881DOD     C130462   9.256  24.617   0.670  0.0006  0.0566 -0.2833
28881DOD     C230463   8.951  24.973   0.560 -0.0533  0.0468  0.1489
28881DOD     C330464   8.832  25.392   0.293  0.0657  0.0735  0.1553
28882DOD     C130465  23.233   4.414  15.143 -0.0103 -0.1914  0.2181
28882DOD     C230466  23.437   4.354  15.569  0.0140  0.3244  0.0481
28882DOD     C330467  23.428   4.095  15.977 -0.0672  0.0122  0.1327
28883DOD     C130468  10.484  28.564  14.939 -0.1783 -0.1756 -0.0956
28883DOD     C230469  10.701  28.141  14.991 -0.1716  0.3195  0.0927
28883DOD     C330470  10.834  27.646  15.189  0.0386 -0.1599 -0.4357
28884DOD     C130471  10.356   6.105   3.577 -0.0753 -0.2578  0.2460
28884DOD     C230472  10.415   6.501   3.791  0.2342 -0.0226  0.0849
28884DOD     C330473  10.483   6.868   4.108 -0.1115  0.3413  0.4673
28885DOD     C130474   6.995   7.619  26.666  0.0691  0.2040  0.4147
28885DOD     C230475   7.161   7.709  26.200 -0.0968 -0.1897 -0.2094
28885DOD     C330476   7.372   7.551  25.812  0.2148  0.0504 -0.0105
28886DOD     C130477  17.611  16.734   5.380  0.0618 -0.2989  0.2938
28886DOD     C230478  17.716  16.275   5.309 -0.0640  0.0180  0.1619
28886DOD     C330479  17.825  15.896   5.071  0.1869 -0.1062  0.1883
28887DOD     C130480  17.270   4.067   9.834  0.0268 -0.0303 -0.2292
28887DOD     C230481  17.559   4.399   9.931  0.3238  0.0363  0.1143
28887DOD     C330482  17.968   4.532  10.096  0.0861 -0.0262 -0.1028
28888DOD     C130483  15.338   3.977  24.090  0.4293  0.1441 -0.2450
28888DOD     C230484  14.972   4.190  24.331  0.1733 -0.1421  0.0794
28888DOD     C330485  14.625   4.478  24.309 -0.0468  0.2440 -0.0133
28889DOD     C130486   0.561   5.981   9.786  0.2327 -0.1540 -0.3747
28889DOD     C230487   0.280   6.214   9.558 -0.0349 -0.2035  0.2140
28889DOD     C330488  30.275   6.474   9.267  0.1160  0.3311 -0.1458
28890DOD     C130489   3.330  28.712  21.996 -0.0420  0.0981 -0.0875
28890DOD     C230490   3.535  28.365  22.260  0.2043 -0.0187 -0.0069
28890DOD     C330491   3.799  28.261  22.632  0.1291  0.1750  0.2056
28891DOD     C130492  25.709  29.790  20.354  0.4203  0.0096 -0.2526
28891DOD     C230493  25.977  29.945  20.040 -0.0509 -0.0430  0.4119
28891DOD     C330494  26.173   0.047  20.101 -0.1384  0.1602  0.0857
28892DOD     C130495  16.815   6.372  12.830  0.2031 -0.0061 -0.1513
28892DOD     C230496  16.879   6.799  12.673  0.1717  0.1142 -0.1624
28892DOD     C330497  16.937   7.073  12.315 -0.2038  0.1696  0.0345
28893DOD     C130498  15.947   9.021  17.850  0.0472 -0.3551 -0.3731
28893DOD     C230499  15.693   8.999  17.512  0.3812 -0.1037 -0.0143
28893DOD     C330500  15.451   8.797  17.142 -0.0818  0.0806 -0.0782
28894DOD     C130501  24.139  27.215   6.114 -0.0668 -0.2025  0.1656
28894DOD     C230502  24.137  27.698   6.133  0.0369  0.2497 -0.0880
28894DOD     C330503  23.922  28.086   5.982 -0.1091  0.1973  0.2035
28895DOD     C130504  20.761  24.752  10.285 -0.1222 -0.0413 -0.2830
28895DOD     C230505  20.544  24.643  10.664  0.1078 -0.0259 -0.3191
28895DOD     C330506  20.352  24.584  11.111 -0.1478  0.1320 -0.0497
28896DOD     C130507   7.036   4.033   9.965 -0.1574  0.0422  0.0233
28896DOD     C230508   7.302   4.157  10.340  0.1650 -0.1687  0.0616
28896DOD     C330509   7.586   4.424  10.580 -0.0598 -0.1750  0.1580
28897DOD     C130510  24.424   9.776   3.187 -0.1890 -0.2751  0.1305
28897DOD     C230511  24.805   9.704   2.940  0.1458  0.1431  0.0396
28897DOD     C330512  25.150  10.004   2.779  0.3550 -0.0674  0.2296
28898DOD     C130513  20.263  14.249   5.667 -0.1330 -0.1821  0.2086
28898DOD     C230514  19.988  14.094   5.985 -0.0648  0.2948 -0.0428
28898DOD     C330515  19.575  13.907   6.085  0.3793  0.0008 -0.1431
28899DOD     C130516  17.642   3.102  30.081  0.3415  0.0304  0.0989
28899DOD     C230517  17.357   3.412   0.058  0.0951  0.3605 -0.1243
28899DOD     C330518  16.913   3.560   0.152  0.0237 -0.0748 -0.1378
28900DOD     C130519   0.922   2.268  23.269  0.1017 -0.0843 -0.0283
28900DOD     C230520   1.236   2.253  23.628 -0.1155 -0.0804  0.0620
28900DOD     C330521   1.509   1.910  23.814 -0.2419 -0.0248 -0.2941
28901DOD     C130522  10.824   8.763  16.850  0.1573 -0.0510  0.2427
28901DOD     C230523  10.566   8.442  17.101 -0.0302  0.0215 -0.1081
28901DOD     C330524  10.618   8.159  17.521  0.2739  0.0204  0.0523
28902DOD     C130525  26.562  28.884  22.164  0.1607  0.0115 -0.1014
28902DOD     C230526  26.710  29.311  22.319 -0.1131  0.3119  0.1950
28902DOD     C330527  27.083  29.458  22.495  0.1236 -0.2147  0.1162
28903DOD     C130528   2.776  19.050   9.723 -0.3521 -0.0427 -0.2181
28903DOD     C230529   3.081  18.805   9.469 -0.1361 -0.0988  0.0878
28903DOD     C330530   3.483  18.686   9.279  0.0863 -0.0421 -0.5207
28904DOD     C130531  19.772   0.187  16.750  0.1312 -0.2067  0.1334
28904DOD     C230532  19.691   0.711  16.744  0.0992 -0.1311  0.0366
28904DOD     C330533  19.743   1.071  16.951  0.2083  0.1226  0.1151
28905DOD     C130534  24.818  26.098  23.270 -0.1123  0.1217 -0.1152
28905DOD     C230535  25.277  26.173  23.185 -0.1377  0.0928  0.1998
28905DOD     C330536  25.638  26.444  23.303  0.1580 -0.2133  0.1347
28906DOD     C130537  27.467  10.611  15.881  0.0683 -0.2657 -0.1803
28906DOD     C230538  27.192  10.282  15.777 -0.0418  0.0935 -0.1389
28906DOD     C330539  27.188   9.968  15.414 -0.0031 -0.1531  0.2094
28907DOD     C130540  19.891  15.118  26.550 -0.1503  0.0931  0.2997
28907DOD     C230541  20.181  15.303  26.210  0.0938 -0.0862 -0.2463
28907DOD     C330542  20.504  15.573  26.083 -0.0078 -0.0096 -0.0307
28908DOD     C130543  28.243   4.946  25.719 -0.0864 -0.2916 -0.1370
28908DOD     C230544  28.534   4.834  26.070 -0.1599 -0.0962 -0.0184
28908DOD     C330545  28.919   4.588  26.098 -0.0798 -0.1800  0.2446
28909DOD     C130546  29.540   8.884   5.795  0.0655 -0.0172 -0.3671
28909DOD     C230547  29.779   9.305   5.786 -0.3273  0.0694  0.0974
28909DOD     C330548  30.066   9.688   5.848  0.1914  0.2057 -0.1888
28910DOD     C130549  22.215  18.847   4.537  0.0414  0.3101  0.1683
28910DOD     C230550  22.337  18.440   4.769 -0.2485  0.0863 -0.0119
28910DOD     C330551  22.290  17.946   4.807  0.0353 -0.0963  0.0951
28911DOD     C130552   0.786  26.203  26.491  0.2198 -0.1997  0.2323
28911DOD     C230553   0.828  25.797  26.594  0.0788  0.1383  0.0928
28911DOD     C330554   0.678  25.313  26.515 -0.1327 -0.2573 -0.1574
28912DOD     C130555   1.640  27.767  12.826 -0.2638 -0.2528 -0.0739
28912DOD     C230556   1.726  28.204  12.667 -0.0147  0.1185 -0.1450
28912DOD     C330557   1.789  28.666  12.617 -0.1630 -0.0771 -0.1960
28913DOD     C130558   8.372  26.973   0.047  0.1526  0.1507 -0.1628
28913DOD     C230559   8.225  27.377  30.129 -0.2404  0.0727  0.0703
28913DOD     C330560   8.192  27.836  29.976  0.3488  0.1390  0.0556
28914DOD     C130561   1.831   6.845   9.076 -0.2082 -0.1406  0.0532
28914DOD     C230562   2.241   6.667   9.091  0.2768 -0.0097  0.1393
28914DOD     C330563   2.592   6.367   9.285  0.2976  0.0593 -0.3235
28915DOD     C130564   0.377   6.098  28.117 -0.4083  0.1165  0.2796
28915DOD     C230565   0.236   5.708  27.941 -0.1634  0.0724  0.1840
28915DOD     C330566  30.129   5.494  27.980  0.0625  0.2952  0.1859
28916DOD     C130567   0.445  25.866  14.951  0.2473  0.2830  0.0787
28916DOD     C230568   0.571  26.180  15.192 -0.2368 -0.0615 -0.1549
28916DOD     C330569   0.722  26.582  15.232 -0.2284 -0.1097  0.0323
28917DOD     C130570  29.874  23.816  19.915  0.1225 -0.0476  0.3981
28917DOD     C230571  29.485  23.541  19.839  0.0994  0.0829  0.2163
28917DOD     C330572  29.293  23.105  19.954 -0.1437 -0.2142  0.0213
28918DOD     C130573  14.130  13.398  16.173  0.0266  0.1703  0.2019
28918DOD     C230574  13.845  13.472  16.569  0.1064  0.0132 -0.1050
28918DOD     C330575  13.528  13.849  16.639  0.2759  0.3174 -0.2424
28919DOD     C130576  21.323  11.415   9.375  0.1204 -0.0385 -0.1409
28919DOD     C230577  20.891  11.550   9.316 -0.0150  0.1737 -0.1903
28919DOD     C330578  20.398  11.687   9.349  0.0694 -0.0307 -0.1571
28920DOD     C130579  17.283  16.556  21.941  0.1202 -0.3660 -0.0760
28920DOD     C230580  16.885  16.539  22.128  0.1303 -0.1079  0.1186
28920DOD     C330581  16.491  16.746  21.910  0.3307  0.0526  0.2470
28921DOD     C130582  10.895  14.458   8.058  0.0959  0.0001 -0.0855
28921DOD     C230583  10.458  14.488   8.018 -0.1278 -0.0870  0.4155
28921DOD     C330584  10.062  14.608   8.188  0.3389 -0.0986  0.0120
28922DOD     C130585  12.611  23.997  22.836 -0.1422  0.0822 -0.1040
28922DOD     C230586  12.239  23.989  23.060  0.0125  0.0208 -0.1514
28922DOD     C330587  11.848  23.732  23.255  0.0763  0.3396 -0.2490
28923DOD     C130588   3.664  25.509  12.155  0.1696 -0.3165 -0.1950
28923DOD     C230589   4.009  25.333  11.921 -0.3669 -0.3018 -0.2236
28923DOD     C330590   4.122  25.441  11.526 -0.0643 -0.1588 -0.1388
28924DOD     C130591   6.098  24.609   8.998 -0.0444 -0.3434  0.1848
28924DOD     C230592   6.359  24.769   9.311 -0.1488  0.1260  0.1112
28924DOD     C330593   6.557  25.006   9.651  0.2140 -0.0557  0.2870
28925DOD     C130594  27.786  19.279  17.896  0.2133  0.0359 -0.0483
28925DOD     C230595  28.177  19.104  18.119  0.0387  0.3264 -0.1656
28925DOD     C330596  28.392  19.113  18.532  0.1062  0.1699  0.3033
28926DOD     C130597   6.115   4.547  29.852 -0.2788 -0.2370  0.1928
28926DOD     C230598   5.754   4.225  29.768 -0.2608 -0.0519 -0.2720
28926DOD     C330599   5.770   3.759  29.724  0.0411 -0.2334 -0.2009
28927DOD     C130600  19.441   3.105   0.967 -0.0854  0.0736 -0.0789
28927DOD     C230601  18.979   3.104   0.953  0.1220  0.1378 -0.0555
28927DOD     C330602  18.536   3.170   1.225 -0.0911  0.2354  0.4123
28928DOD     C130603  28.248  29.933  28.937 -0.0900 -0.0396  0.0861
28928DOD     C230604  28.166  29.905  29.375  0.2493  0.0828  0.0460
28928DOD     C330605  27.819  29.817  29.658  0.2269  0.0649 -0.1065
28929DOD     C130606  23.444  13.062   6.188  0.0733  0.1329  0.0730
28929DOD     C230607  23.324  12.776   6.533  0.0693 -0.1227 -0.1101
28929DOD     C330608  23.326  12.621   6.948 -0.1314  0.1936 -0.1347
28930DOD     C130609  16.256  23.794  24.857  0.2318 -0.0062 -0.0346
28930DOD     C230610  15.793  23.706  24.893 -0.0089  0.0024  0.1335
28930DOD     C330611  15.502  23.370  24.987  0.2193  0.2555  0.1093
28931DOD     C130612   7.663   2.444  26.200 -0.0022  0.2459 -0.2320
28931DOD     C230613   7.893   2.335  25.723  0.1118  0.0994  0.0445
28931DOD     C330614   7.836   2.244  25.254  0.0567  0.1532  0.2243
28932DOD     C130615  23.213   5.716  19.388 -0.0944  0.0069 -0.1743
28932DOD     C230616  23.015   5.829  18.933  0.0624  0.1724 -0.2100
28932DOD     C330617  22.664   5.932  18.556 -0.3054  0.1249  0.0534
28933DOD     C130618   8.766  10.981   1.843 -0.3896 -0.0796  0.0299
28933DOD     C230619   8.916  10.480   1.890 -0.0990 -0.4316  0.1592
28933DOD     C330620   8.634  10.118   1.735  0.2477 -0.0413  0.1044
28934DOD     C130621   2.003   2.446   9.048 -0.1591  0.3778  0.0303
28934DOD     C230622   2.421   2.337   9.127  0.2934  0.5878 -0.3961
28934DOD     C330623   2.738   2.276   9.479 -0.1427  0.0982 -0.1157
28935DOD     C130624  25.296  17.208  29.243  0.0643 -0.4404 -0.2516
28935DOD     C230625  24.840  17.187  29.449  0.3435  0.1776 -0.0717
28935DOD     C330626  24.797  16.841  29.774  0.0075 -0.3377 -0.3448
28936DOD     C130627  22.097   8.058  12.009  0.0957 -0.0055 -0.0875
28936DOD     C230628  22.468   8.035  11.794 -0.4194  0.1540 -0.1462
28936DOD     C330629  22.878   8.246  11.829 -0.1004  0.0842 -0.0504
28937DOD     C130630   3.717  28.463  17.451  0.0698  0.1395 -0.0360
28937DOD     C230631   3.554  28.033  17.609  0.3910  0.1256 -0.0324
28937DOD     C330632   3.304  27.602  17.608  0.0657 -0.1782  0.1190
28938DOD     C130633  11.054  26.173  18.214 -0.0062 -0.0005 -0.0232
28938DOD     C230634  11.484  26.140  18.334  0.0488 -0.0631 -0.2835
28938DOD     C330635  11.837  25.962  18.055  0.3065 -0.1721  0.0256
28939DOD     C130636   8.363   3.270   7.208  0.1838 -0.1917  0.0107
28939DOD     C230637   8.477   3.169   7.635  0.0228  0.3469 -0.1261
28939DOD     C330638   8.574   3.324   8.040  0.1475 -0.0698  0.0621
28940DOD     C130639  24.791   6.039  26.118  0.0404  0.0401  0.1780
28940DOD     C230640  25.089   6.183  26.461 -0.2111 -0.1477 -0.2733
28940DOD     C330641  25.278   6.329  26.847  0.0275  0.0352 -0.1349
28941DOD     C130642   6.856  22.319  20.581  0.0154  0.1935 -0.1307
28941DOD     C230643   7.149  22.676  20.700 -0.0212  0.1053  0.1393
28941DOD     C330644   7.394  22.997  20.884 -0.1196  0.0635 -0.2783
28942DOD     C130645  26.573   7.938  11.554  0.1221 -0.0288  0.1819
28942DOD     C230646  26.693   8.297  11.714  0.0868  0.3096  0.0584
28942DOD     C330647  26.826   8.752  11.821 -0.0394 -0.0220  0.1931
28943DOD     C130648   3.220  19.285   6.955 -0.2168 -0.0923 -0.0578
28943DOD     C230649   3.448  19.559   6.680 -0.0127  0.1329  0.2382
28943DOD     C330650   3.547  19.968   6.402  0.0135 -0.1107  0.4335
28944DOD     C130651   6.759  19.419  26.156  0.0249 -0.1580  0.1882
28944DOD     C230652   6.591  19.902  26.074 -0.3452  0.1025 -0.4878
28944DOD     C330653   6.223  20.269  26.161  0.2259  0.1077 -0.1595
28945DOD     C130654   3.750   9.506   3.546 -0.3005  0.1330  0.1698
28945DOD     C230655   4.124   9.159   3.558 -0.0353 -0.2087  0.3790
28945DOD     C330656   4.333   8.745   3.524 -0.1366 -0.3952 -0.0458
28946DOD     C130657  10.173  13.906   0.690 -0.1358 -0.0581  0.1906
28946DOD     C230658  10.227  13.505   0.376  0.0360  0.3210 -0.1002
28946DOD     C330659  10.275  13.390  30.267 -0.0347  0.0747 -0.0796
28947DOD     C130660  30.113  20.101  16.491  0.0242  0.0598 -0.0522
28947DOD     C230661  30.136  20.082  16.007 -0.0416 -0.2344 -0.1176
28947DOD     C330662  30.248  20.255  15.548 -0.0502  0.1497  0.1324
28948DOD     C130663  24.408  13.400  17.293  0.3091 -0.1222 -0.1215
28948DOD     C230664  24.791  13.537  17.576  0.3301  0.0099  0.1259
28948DOD     C330665  25.306  13.616  17.645  0.2974 -0.2032 -0.2091
28949DOD     C130666   0.484   3.751  13.975  0.0939 -0.2281  0.1269
28949DOD     C230667   0.299   3.979  13.651 -0.1156 -0.0408  0.1156
28949DOD     C330668  30.234   4.128  13.903  0.1220 -0.1603 -0.0504
28950DOD     C130669  17.991  12.483  14.687 -0.0282  0.0249  0.0061
28950DOD     C230670  18.361  12.467  15.003 -0.2808  0.1409 -0.0728
28950DOD     C330671  18.300  12.334  15.473  0.1587 -0.0812 -0.1790
28951DOD     C130672   8.599  22.036  22.794 -0.2213  0.1323  0.0666
28951DOD     C230673   8.216  21.812  22.699  0.1536  0.1548  0.1199
28951DOD     C330674   7.868  21.593  22.987 -0.1203  0.1197 -0.1431
28952DOD     C130675  26.207   8.658  15.607 -0.2226 -0.0319  0.0540
28952DOD     C230676  26.238   8.361  15.992 -0.0974  0.0854 -0.1463
28952DOD     C330677  26.459   8.136  16.340  0.0588  0.3201  0.1567
28953DOD     C130678   8.204   4.162  17.942  0.0987  0.0190 -0.1060
28953DOD     C230679   8.432   4.332  17.566 -0.2040 -0.0886 -0.0302
28953DOD     C330680   8.878   4.516  17.560  0.2344 -0.0826  0.0418
28954DOD     C130681  22.695   1.917  30.286 -0.1477 -0.2983  0.1332
28954DOD     C230682  23.084   2.029   0.113  0.0334 -0.1826 -0.0491
28954DOD     C330683  23.436   1.717   0.077 -0.1664  0.0863  0.2078
28955DOD     C130684   8.877  14.403  13.098 -0.0514  0.0477 -0.0352
28955DOD     C230685   8.468  14.328  13.325  0.1072 -0.0156  0.1683
28955DOD     C330686   8.043  14.355  13.490 -0.1877 -0.1710  0.1675
28956DOD     C130687  28.610  12.734  25.026  0.2107  0.0901  0.0615
28956DOD     C230688  28.648  12.740  24.562  0.3506 -0.3163 -0.0612
28956DOD     C330689  28.980  12.920  24.218 -0.2093 -0.1551 -0.3278
28957DOD     C130690   3.094  25.895  14.502  0.0220 -0.0576  0.0440
28957DOD     C230691   3.184  25.500  14.761 -0.2156 -0.2804  0.1189
28957DOD     C330692   3.550  25.222  14.965 -0.1329  0.2877  0.0625
28958DOD     C130693  23.600  13.063   6.821  0.1351  0.3129 -0.0595
28958DOD     C230694  23.862  13.448   6.880  0.1055 -0.0290  0.0037
28958DOD     C330695  23.758  13.720   7.207 -0.1284 -0.0513  0.1247
28959DOD     C130696   2.508  25.926  30.073 -0.0290  0.2757 -0.1061
28959DOD     C230697   2.373  25.456  30.119  0.0001  0.0938 -0.1951
28959DOD     C330698   2.599  25.048  30.243 -0.1026  0.0868  0.2278
28960DOD     C130699  29.758   0.486  20.319 -0.0424 -0.1820 -0.2518
28960DOD     C230700  29.799   0.511  19.830 -0.1549 -0.1274  0.0716
28960DOD     C330701  29.870   0.633  19.399  0.2595  0.3511 -0.2317
28961DOD     C130702   4.545  21.874   2.742 -0.0197  0.1133  0.0028
28961DOD     C230703   4.795  21.515   2.916 -0.0254  0.2068  0.3103
28961DOD     C330704   4.774  21.329   3.353  0.3446 -0.2040 -0.0658
28962DOD     C130705   5.576   3.685  22.518 -0.2645 -0.2501  0.1240
28962DOD     C230706   5.223   3.897  22.722 -0.3181 -0.2378 -0.1259
28962DOD     C330707   5.131   3.940  23.202 -0.0390 -0.2297  0.2035
28963DOD     C130708  11.704   8.455  17.162  0.0061 -0.1217 -0.4252
28963DOD     C230709  11.697   8.909  17.176  0.3040 -0.0732  0.0651
28963DOD     C330710  12.081   9.172  17.095 -0.3266  0.1475  0.2307
28964DOD     C130711  18.586  21.882   4.336  0.0687 -0.0560 -0.0083
28964DOD     C230712  18.981  22.161   4.420  0.1568  0.0522 -0.4103
28964DOD     C330713  19.411  22.255   4.328 -0.1860  0.0071  0.2409
28965DOD     C130714  28.841  12.294  11.355 -0.0729 -0.3694 -0.1038
28965DOD     C230715  29.148  11.930  11.217 -0.2178  0.1966 -0.1182
28965DOD     C330716  29.524  11.712  11.179  0.2048 -0.3701  0.4916
28966DOD     C130717   2.259   1.179  26.374  0.4300 -0.0804  0.2653
28966DOD     C230718   1.965   0.982  26.752 -0.1442 -0.1657  0.4226
28966DOD     C330719   1.801   0.617  26.959  0.2789  0.0755  0.0609
28967DOD     C130720   1.384   1.518  28.012 -0.1329  0.3885  0.0685
28967DOD     C230721   1.017   1.245  28.002  0.0229  0.3579 -0.2299
28967DOD     C330722   0.574   1.233  28.197 -0.2366  0.1568 -0.0239
28968DOD     C130723  26.923  12.970  30.194  0.2426 -0.0786 -0.2462
28968DOD     C230724  27.095  12.875  29.818 -0.1074  0.0975 -0.0217
28968DOD     C330725  27.448  12.986  29.528 -0.2154 -0.3228  0.1048
28969DOD     C130726  14.013   0.360  15.923 -0.1264 -0.1153 -0.3280
28969DOD     C230727  14.140  30.296  16.203  0.0891 -0.0057  0.1415
28969DOD     C330728  14.396  30.199  16.535  0.1165  0.2731 -0.0915
28970DOD     C130729  10.821   6.431  18.724 -0.1786  0.2156 -0.2059
28970DOD     C230730  11.076   6.662  18.378  0.2101 -0.1752 -0.0169
28970DOD     C330731  11.026   6.788  17.926 -0.0743 -0.0879  0.2544
28971DOD     C130732  24.759  15.949  27.949  0.1672 -0.3191  0.1084
28971DOD     C230733  24.323  16.135  27.971  0.0092 -0.1149  0.1828
28971DOD     C330734  23.956  16.520  28.126 -0.1702  0.0536  0.0913
28972DOD     C130735  16.245  21.091  10.002  0.1890 -0.1566  0.0103
28972DOD     C230736  16.266  20.971   9.548  0.0183  0.0076  0.0907
28972DOD     C330737  16.308  20.771   9.134  0.0419  0.2819 -0.0668
28973DOD     C130738  24.628  29.176   0.292 -0.0489 -0.0986  0.0189
28973DOD     C230739  24.521  29.430   0.691 -0.2089  0.2540 -0.1438
28973DOD     C330740  24.747  29.651   1.120 -0.1102  0.0508  0.2038
28974DOD     C130741   7.385  16.185  24.893 -0.3277 -0.1862  0.1424
28974DOD     C230742   7.425  16.537  24.592  0.0383  0.1325  0.0653
28974DOD     C330743   7.705  16.916  24.503 -0.0715 -0.2216  0.0019
28975DOD     C130744  16.191  22.489  17.123  0.3434 -0.2021  0.2020
28975DOD     C230745  16.636  22.638  17.244 -0.3913 -0.1972  0.0462
28975DOD     C330746  17.089  22.564  17.213  0.2830 -0.2485 -0.2555
28976DOD     C130747  22.974  25.651   1.159 -0.1018  0.3242  0.2806
28976DOD     C230748  22.589  25.755   1.497 -0.1629  0.0870 -0.1558
28976DOD     C330749  22.398  26.147   1.635 -0.3311  0.0144 -0.1928
28977DOD     C130750  30.185  27.236  23.594 -0.4078  0.0339  0.0226
28977DOD     C230751   0.206  27.275  23.928 -0.1147  0.3071  0.1108
28977DOD     C330752   0.545  27.630  24.074  0.5732  0.2565 -0.0414
28978DOD     C130753  27.245  11.787  29.824 -0.0384 -0.0617  0.1108
28978DOD     C230754  26.799  11.897  29.891  0.0297 -0.0086  0.0416
28978DOD     C330755  26.510  11.867  29.563  0.0904 -0.2212 -0.0834
28979DOD     C130756   1.805  13.851  26.164  0.1542 -0.1072  0.0685
28979DOD     C230757   1.697  13.809  25.747 -0.2693  0.0359  0.1641
28979DOD     C330758   1.533  13.887  25.363 -0.0478 -0.0751  0.0348
28980DOD     C130759  14.466   6.886  25.193  0.0457 -0.1100  0.1945
28980DOD     C230760  14.024   6.831  25.184 -0.2866 -0.3036  0.1318
28980DOD     C330761  13.579   6.757  25.275 -0.0032 -0.3458  0.0756
28981DOD     C130762  17.424  27.611  23.152  0.1701 -0.2180 -0.0323
28981DOD     C230763  17.805  27.679  23.467  0.0977  0.2830  0.1154
28981DOD     C330764  17.995  27.356  23.728 -0.0302  0.0536 -0.0384
28982DOD     C130765   9.033  16.333   8.346 -0.1093  0.0146  0.1136
28982DOD     C230766   9.033  16.136   8.830 -0.2603  0.0169 -0.1169
28982DOD     C330767   8.940  16.074   9.284 -0.1162  0.0788 -0.1861
28983DOD     C130768   4.937  13.048   0.341  0.0680  0.2206  0.0211
28983DOD     C230769   4.627  13.228   0.687 -0.2075  0.0075  0.1793
28983DOD     C330770   4.443  13.127   1.100  0.1849 -0.1148 -0.1125
28984DOD     C130771  20.558  17.098  10.734  0.1728  0.3366 -0.0311
28984DOD     C230772  20.982  16.887  10.799 -0.0049 -0.2005 -0.2548
28984DOD     C330773  21.347  16.643  11.017  0.3541 -0.0868 -0.0060
28985DOD     C130774  18.985  25.195  10.316 -0.0038  0.0906 -0.2139
28985DOD     C230775  19.430  25.124  10.252  0.2534 -0.0188 -0.0266
28985DOD     C330776  19.505  25.387   9.898  0.0961  0.1509 -0.2577
28986DOD     C130777  20.568  28.116  20.814 -0.0043  0.1424  0.1917
28986DOD     C230778  20.137  28.179  20.789  0.4059 -0.2337 -0.1158
28986DOD     C330779  19.895  28.564  20.940 -0.1253  0.0213 -0.0790
28987DOD     C130780  23.336  24.893  23.647  0.0261  0.0281 -0.0071
28987DOD     C230781  23.149  25.249  23.926 -0.0697  0.4833  0.3469
28987DOD     C330782  23.327  25.604  24.112  0.0925 -0.1409  0.2620
28988DOD     C130783  11.023  30.171  23.536  0.1067  0.3048 -0.1335
28988DOD     C230784  10.606  30.100  23.758  0.3095  0.5286 -0.0970
28988DOD     C330785  10.221  29.992  23.541 -0.0648  0.1785 -0.1833
28989DOD     C130786  10.584  26.332  19.532 -0.0631 -0.1960 -0.0713
28989DOD     C230787  10.711  26.566  19.909 -0.0397 -0.2211  0.2005
28989DOD     C330788  10.987  26.647  20.282  0.1570  0.1847  0.2108
28990DOD     C130789  24.064   6.637  26.484  0.2144 -0.2192  0.0613
28990DOD     C230790  23.972   6.331  26.176  0.1068  0.2718 -0.0199
28990DOD     C330791  23.795   6.276  25.762 -0.1968 -0.1783 -0.0728
28991DOD     C130792   5.785  21.465   7.217  0.1472 -0.1125 -0.3192
28991DOD     C230793   5.571  21.470   7.611 -0.0486  0.0574  0.0003
28991DOD     C330794   5.271  21.720   7.872 -0.2840 -0.0357 -0.1405
28992DOD     C130795  12.699  18.865   2.947 -0.2891  0.2200 -0.3630
28992DOD     C230796  13.054  19.199   2.788  0.0167  0.4120 -0.0442
28992DOD     C330797  13.263  19.571   2.961  0.3223  0.2597 -0.0671
28993DOD     C130798  11.621  11.313  29.398  0.1642 -0.3844  0.0487
28993DOD     C230799  11.412  10.987  29.684 -0.0299  0.0596  0.1387
28993DOD     C330800  11.551  10.874  30.080  0.0280  0.3118  0.2465
28994DOD     C130801   1.606  11.585  17.955  0.0179  0.1133 -0.0515
28994DOD     C230802   1.913  11.838  18.128 -0.2176 -0.2013  0.3113
28994DOD     C330803   2.272  11.819  18.430  0.0889 -0.4355  0.0064
28995DOD     C130804  21.521  19.998  20.927  0.3269 -0.2747 -0.3185
28995DOD     C230805  21.290  19.609  20.784  0.1307 -0.0405 -0.0603
28995DOD     C330806  21.317  19.148  20.872  0.0111  0.1509 -0.1170
28996DOD     C130807  29.049  13.029  15.630  0.1393  0.0715 -0.2112
28996DOD     C230808  28.710  12.845  15.404  0.0256 -0.1699  0.0920
28996DOD     C330809  28.328  12.565  15.541  0.0355 -0.0683 -0.1458
28997DOD     C130810  22.577   2.322   8.617 -0.3513 -0.0827  0.0348
28997DOD     C230811  23.036   2.473   8.613  0.0533 -0.2882 -0.1491
28997DOD     C330812  23.499   2.320   8.576  0.0709  0.0832  0.0474
28998DOD     C130813   6.750  27.827   4.749 -0.1404  0.2711 -0.1904
28998DOD     C230814   6.974  28.037   5.105 -0.1338 -0.0591  0.0320
28998DOD     C330815   7.454  28.175   5.071  0.2252 -0.0594 -0.2123
28999DOD     C130816  28.464   7.924  14.360  0.0162  0.1819  0.0532
28999DOD     C230817  28.843   8.088  14.203  0.0553 -0.2371  0.1036
28999DOD     C330818  28.911   8.458  13.969 -0.1248  0.1480 -0.1419
29000DOD     C130819   8.258  24.282  10.607 -0.2862  0.0922 -0.2124
29000DOD     C230820   8.571  24.549  10.692 -0.1020 -0.1470  0.2571
29000DOD     C330821   8.771  24.963  10.797 -0.0980  0.1991 -0.2737
29001DOD     C130822   7.178  11.627  12.273 -0.0832  0.0439  0.2183
29001DOD     C230823   7.627  11.795  12.299 -0.1474 -0.0039 -0.0628
29001DOD     C330824   8.059  11.663  12.046 -0.1539 -0.2927  0.0364
29002DOD     C130825  24.668  15.780  23.873  0.0378  0.0657 -0.0144
29002DOD     C230826  24.781  15.935  24.310  0.0200 -0.3191  0.0086
29002DOD     C330827  24.435  16.064  24.604 -0.3861  0.2546  0.1441
29003DOD     C130828  11.585  30.063   3.210 -0.0472  0.0048  0.2621
29003DOD     C230829  11.367  -0.006   2.911  0.2138 -0.1434 -0.0328
29003DOD     C330830  11.069   0.223   2.661 -0.1587  0.0772 -0.0190
29004DOD     C130831   7.648  23.926  20.856  0.3219 -0.1743  0.0827
29004DOD     C230832   7.603  24.217  20.524 -0.0231  0.0769  0.1992
29004DOD     C330833   7.401  24.109  20.155 -0.1024 -0.0847 -0.2137
29005DOD     C130834  23.200   0.964  12.981 -0.0270 -0.6707 -0.1503
29005DOD     C230835  23.226   0.671  13.423 -0.0512  0.1557  0.0843
29005DOD     C330836  23.130   0.503  13.803 -0.1861  0.1247  0.1539
29006DOD     C130837   2.640  16.929  29.730  0.1647 -0.0231 -0.0675
29006DOD     C230838   2.569  17.070  30.196 -0.1765 -0.0848 -0.3305
29006DOD     C330839   2.389  16.997   0.328  0.2722  0.0467 -0.0588
29007DOD     C130840   6.395  22.026  10.310  0.2134 -0.1471 -0.0595
29007DOD     C230841   6.727  21.795  10.126  0.1821  0.3120  0.0082
29007DOD     C330842   6.700  21.325  10.092 -0.3930  0.4381 -0.1104
29008DOD     C130843  13.387  12.544  16.697 -0.0239 -0.0276 -0.0005
29008DOD     C230844  13.760  12.786  16.553 -0.0388  0.0843 -0.1437
29008DOD     C330845  14.108  13.090  16.608 -0.1655 -0.1262 -0.1231
29009DOD     C130846  18.967  25.280   6.416 -0.1968  0.1685 -0.0996
29009DOD     C230847  19.143  25.004   6.146  0.0536  0.1872  0.3201
29009DOD     C330848  19.448  24.913   5.837  0.0053 -0.2162  0.0590
29010DOD     C130849   0.196   7.674   5.674  0.1096 -0.1821 -0.0602
29010DOD     C230850   0.216   7.653   6.136  0.0292 -0.0660 -0.0594
29010DOD     C330851   0.089   7.597   6.558 -0.1143  0.1935  0.1704
29011DOD     C130852  22.828  18.809  21.186 -0.2592  0.1019  0.0599
29011DOD     C230853  22.714  18.640  20.793 -0.0884  0.0867  0.0798
29011DOD     C330854  22.911  18.731  20.407 -0.0970  0.0940  0.0380
29012DOD     C130855  23.108  19.549   1.558  0.0301 -0.0574 -0.1372
29012DOD     C230856  23.455  19.617   1.272 -0.0182  0.0763  0.0173
29012DOD     C330857  23.529  19.592   0.874  0.0398 -0.1566 -0.0462
29013DOD     C130858   3.887   1.450   9.062 -0.0209 -0.0584 -0.0081
29013DOD     C230859   3.996   1.075   8.790 -0.0096  0.4368  0.1414
29013DOD     C330860   4.146   0.655   8.537  0.0195  0.2904 -0.0230
29014DOD     C130861  26.678  16.987  12.766 -0.2437  0.2552 -0.0820
29014DOD     C230862  26.960  16.942  12.451 -0.1167 -0.3051  0.0311
29014DOD     C330863  26.993  16.519  12.198  0.5927 -0.1525 -0.0107
29015DOD     C130864  15.637  28.910   3.442  0.1889 -0.0305  0.1979
29015DOD     C230865  15.458  29.266   3.686  0.0928 -0.0211  0.0394
29015DOD     C330866  15.354  29.481   4.090  0.0431  0.0548  0.1541
29016DOD     C130867  26.726  15.577   9.546 -0.2269  0.3400  0.1682
29016DOD     C230868  26.683  15.416   9.138  0.2472  0.0194 -0.1336
29016DOD     C330869  26.500  15.322   8.704  0.1495 -0.0584 -0.1048
29017DOD     C130870   7.365  12.832  19.267  0.1039 -0.1562 -0.3071
29017DOD     C230871   7.686  12.494  19.376  0.1618 -0.1708  0.0842
29017DOD     C330872   8.044  12.239  19.148  0.0856 -0.1422  0.0613
29018DOD     C130873   1.813  23.725  15.469 -0.0936 -0.1654 -0.1254
29018DOD     C230874   1.963  23.310  15.318 -0.0521  0.0330 -0.0146
29018DOD     C330875   2.178  22.899  15.290  0.1395  0.0133 -0.0594
29019DOD     C130876   2.833  15.947  25.179 -0.1382 -0.1541  0.0397
29019DOD     C230877   3.222  16.244  25.114  0.1876 -0.0716 -0.4199
29019DOD     C330878   3.585  16.493  24.985  0.1153 -0.1247  0.2693
29020DOD     C130879  20.068   1.693   4.122  0.0623  0.0607  0.1126
29020DOD     C230880  20.432   1.922   4.303 -0.0757 -0.0586  0.1158
29020DOD     C330881  20.730   2.209   4.572  0.0085 -0.1075  0.1043
29021DOD     C130882  28.117   8.595   1.968  0.0407 -0.1037  0.5064
29021DOD     C230883  28.395   8.244   2.088 -0.0528 -0.0667  0.0067
29021DOD     C330884  28.390   7.779   1.988  0.1446 -0.0854 -0.2132
29022DOD     C130885   0.838  18.545   4.819 -0.1408  0.0996  0.3043
29022DOD     C230886   0.629  18.190   4.672  0.0517 -0.0933 -0.1929
29022DOD     C330887   0.320  18.194   4.406  0.0903 -0.0361  0.1366
29023DOD     C130888  19.030  20.677  18.600 -0.1512 -0.0869  0.0759
29023DOD     C230889  18.925  20.240  18.792 -0.2329  0.1234 -0.0259
29023DOD     C330890  18.980  19.798  18.606  0.1483  0.0472 -0.3884
29024DOD     C130891  19.758  15.394  21.309 -0.1417 -0.3259  0.0166
29024DOD     C230892  19.339  15.480  21.185  0.0174  0.1683  0.0713
29024DOD     C330893  19.129  15.845  21.311 -0.0269  0.2009 -0.1229
29025DOD     C130894  22.417   0.621  12.671 -0.2304  0.1063 -0.4924
29025DOD     C230895  21.929   0.669  12.793  0.0228  0.1876 -0.0559
29025DOD     C330896  21.427   0.700  12.863 -0.0156 -0.1708  0.0679
29026DOD     C130897   0.839   7.882   0.196 -0.1090  0.1734 -0.1050
29026DOD     C230898   0.366   7.856   0.312 -0.3410 -0.0076  0.0348
29026DOD     C330899   0.070   7.517   0.315 -0.0283  0.1652  0.0100
29027DOD     C130900  12.730   5.342  19.391 -0.2063 -0.1692 -0.0860
29027DOD     C230901  12.694   5.113  19.778  0.0672 -0.1388 -0.0811
29027DOD     C330902  12.326   4.797  19.875  0.4567 -0.1017 -0.0966
29028DOD     C130903  12.616   3.400  15.893  0.0431  0.1282 -0.2979
29028DOD     C230904  12.580   2.947  15.804  0.0184 -0.1815 -0.0194
29028DOD     C330905  12.570   2.491  15.633 -0.0682 -0.0221  0.2602
29029DOD     C130906   0.841  28.978   7.859  0.0776 -0.1961  0.1074
29029DOD     C230907   0.640  28.855   7.436 -0.2502  0.0895  0.0536
29029DOD     C330908   0.634  28.798   6.938  0.0383 -0.0916 -0.1081
29030DOD     C130909  19.634  21.510  20.498 -0.0925  0.1967 -0.1709
29030DOD     C230910  19.655  21.308  20.930 -0.0681  0.4657  0.0048
29030DOD     C330911  19.608  21.083  21.330 -0.0933  0.0348 -0.0521
29031DOD     C130912   8.420   3.197  22.231 -0.1037  0.0439 -0.1735
29031DOD     C230913   8.162   2.998  22.597  0.0859 -0.1718 -0.0454
29031DOD     C330914   8.159   3.082  23.077  0.3257  0.0749 -0.0373
29032DOD     C130915   7.609  26.307  12.199  0.1855  0.0202 -0.2035
29032DOD     C230916   7.200  26.393  12.358 -0.1122  0.0302 -0.2007
29032DOD     C330917   6.899  26.837  12.332 -0.0422  0.0450  0.1827
29033DOD     C130918  21.463   6.017  11.092  0.1606  0.1282 -0.0226
29033DOD     C230919  21.402   5.678  11.427 -0.3332  0.2310  0.1153
29033DOD     C330920  21.314   5.220  11.494  0.0842 -0.0271 -0.3490
29034DOD     C130921  29.475  28.676  24.887 -0.2324 -0.2126  0.0240
29034DOD     C230922  29.843  28.811  24.612  0.1472 -0.0962 -0.1018
29034DOD     C330923  30.050  28.822  24.143 -0.0486  0.1545 -0.1148
29035DOD     C130924  14.867  14.084  12.123 -0.2409 -0.0190  0.0119
29035DOD     C230925  15.214  13.861  11.886 -0.1105  0.1990 -0.0251
29035DOD     C330926  15.623  14.060  11.756  0.1758  0.0636 -0.0178
29036DOD     C130927  27.766   7.590  14.357  0.0304 -0.2107  0.0067
29036DOD     C230928  27.477   7.407  13.965 -0.0583  0.0313  0.0267
29036DOD     C330929  27.383   7.615  13.563 -0.0175  0.1833 -0.0496
29037DOD     C130930  17.559  22.099   9.449  0.0231  0.1423  0.0481
29037DOD     C230931  17.993  21.962   9.465  0.3196 -0.3255 -0.2909
29037DOD     C330932  18.383  21.731   9.360  0.0935  0.0274 -0.2591
29038DOD     C130933  20.442  11.105  22.907  0.0818  0.2471 -0.0579
29038DOD     C230934  20.715  10.755  22.887  0.0529  0.0408 -0.1781
29038DOD     C330935  21.117  10.671  23.146  0.0620  0.1237  0.2317
29039DOD     C130936  13.820  12.535  17.898 -0.1847  0.3130 -0.3024
29039DOD     C230937  13.490  12.801  18.063  0.1353 -0.2722  0.0190
29039DOD     C330938  13.404  13.284  18.002 -0.0402 -0.0473 -0.4278
29040DOD     C130939   8.861  19.203  27.927 -0.1095  0.3428  0.2140
29040DOD     C230940   8.495  19.142  28.185  0.3885 -0.0608 -0.2208
29040DOD     C330941   8.052  19.017  28.242  0.0083 -0.0480  0.2150
29041DOD     C130942  10.029  20.428  10.328  0.1717  0.2367 -0.2028
29041DOD     C230943  10.309  20.595   9.971 -0.0517 -0.1964  0.0180
29041DOD     C330944  10.644  20.446   9.626  0.2589  0.4359 -0.2058
29042DOD     C130945   4.463  29.457   7.323 -0.0872  0.2672 -0.0505
29042DOD     C230946   4.775  29.445   7.651  0.2113  0.2368 -0.0015
29042DOD     C330947   4.854  29.909   7.689 -0.3076  0.2219 -0.0740
29043DOD     C130948   8.077  16.197   1.023  0.3582  0.1110  0.4804
29043DOD     C230949   8.377  16.467   1.167  0.2020  0.2068  0.0013
29043DOD     C330950   8.626  16.549   1.534  0.0810  0.1698 -0.1077
29044DOD     C130951  21.589  18.279  11.429  0.0708  0.1848 -0.1168
29044DOD     C230952  21.224  18.517  11.288 -0.0451 -0.2330 -0.4319
29044DOD     C330953  20.800  18.717  11.244  0.0248 -0.1094  0.1663
29045DOD     C130954  24.549  24.669   3.456  0.0437 -0.0793  0.2626
29045DOD     C230955  24.208  24.669   3.776  0.0365 -0.1613  0.0455
29045DOD     C330956  24.134  24.618   4.233 -0.0725  0.1385  0.2501
29046DOD     C130957  18.256  28.132  26.878 -0.2847  0.1680  0.2126
29046DOD     C230958  17.864  28.173  26.684  0.1278  0.1286  0.0924
29046DOD     C330959  17.765  27.874  26.363  0.0082  0.0117  0.2971
29047DOD     C130960  19.167  13.392  14.667 -0.2078  0.1491 -0.1718
29047DOD     C230961  19.048  13.420  15.155 -0.2211  0.1186  0.1892
29047DOD     C330962  18.771  13.401  15.525  0.0663 -0.0137  0.0475
29048DOD     C130963  10.759  24.247  11.450  0.0847 -0.2264 -0.0825
29048DOD     C230964  10.945  24.499  11.061 -0.6720 -0.2471  0.3906
29048DOD     C330965  11.178  24.814  10.786  0.3220 -0.2784 -0.0297
29049DOD     C130966   1.730  21.639  29.142  0.1056 -0.1167 -0.1362
29049DOD     C230967   1.337  21.839  29.304 -0.0108  0.0726 -0.0602
29049DOD     C330968   1.289  22.207  29.588  0.4065  0.1389 -0.0210
29050DOD     C130969   4.875  27.501   8.020 -0.0938  0.1884 -0.1360
29050DOD     C230970   5.142  27.319   8.367  0.0485 -0.0935  0.4413
29050DOD     C330971   5.315  27.264   8.802 -0.2657  0.1107 -0.1801
29051DOD     C130972  16.505   5.427   6.155 -0.0750 -0.1333  0.0741
29051DOD     C230973  16.837   5.136   6.085 -0.1085 -0.2214 -0.0635
29051DOD     C330974  17.089   5.172   5.725  0.1834  0.1872 -0.0183
29052DOD     C130975   3.181  27.695  26.441 -0.2372 -0.1740  0.1560
29052DOD     C230976   3.228  27.188  26.388 -0.3241  0.1517  0.0525
29052DOD     C330977   3.232  26.812  26.113  0.1884 -0.0159  0.0572
29053DOD     C130978  23.474  19.994   2.934  0.2321  0.0540  0.1582
29053DOD     C230979  23.352  20.355   3.256 -0.0099 -0.0554  0.0336
29053DOD     C330980  23.473  20.544   3.699  0.1562  0.3449  0.0371
29054DOD     C130981   2.162   9.269  23.770 -0.3649  0.0445  0.2175
29054DOD     C230982   2.527   9.222  23.458  0.0484 -0.1336  0.0088
29054DOD     C330983   2.565   9.185  22.980  0.0184  0.0718  0.0710
29055DOD     C130984  24.768  25.777  14.327  0.1433  0.2541  0.0746
29055DOD     C230985  24.668  25.815  14.773 -0.1611 -0.1277 -0.0783
29055DOD     C330986  24.352  25.594  15.032 -0.2017 -0.1261 -0.1916
29056DOD     C130987  25.565  22.742  18.615 -0.0343 -0.1502 -0.0234
29056DOD     C230988  25.502  22.624  18.116  0.1393  0.1338  0.0358
29056DOD     C330989  25.492  22.784  17.709 -0.0695 -0.0271  0.2538
29057DOD     C130990  22.202   8.282   9.458  0.2824 -0.2174  0.3490
29057DOD     C230991  21.956   8.595   9.149 -0.1026 -0.2024 -0.0711
29057DOD     C330992  21.550   8.799   9.030  0.6396  0.0710 -0.3937
29058DOD     C130993   0.074  29.764   0.936 -0.1002 -0.1233  0.1043
29058DOD     C230994   0.078  30.154   1.170 -0.3381 -0.1858 -0.0276
29058DOD     C330995   0.151   0.240   1.403  0.1907  0.4783  0.1145
29059DOD     C130996   0.920  12.861  22.351  0.1243 -0.3254  0.4843
29059DOD     C230997   0.582  12.793  22.624  0.0586 -0.1381  0.2028
29059DOD     C330998   0.409  12.653  23.064 -0.0927  0.0099 -0.1156
29060DOD     C130999  16.502  16.620  29.447 -0.0201 -0.0498 -0.2039
29060DOD     C231000  16.293  16.401  29.185  0.1359  0.0898  0.0526
29060DOD     C331001  15.858  16.192  29.286  0.2027  0.2692  0.1807
29061DOD     C131002  25.369  22.554  20.546 -0.3198  0.1854 -0.2735
29061DOD     C231003  25.436  22.762  20.184 -0.4286 -0.1244 -0.1024
29061DOD     C331004  25.385  22.984  19.774 -0.1569  0.0493  0.2249
29062DOD     C131005  24.676  13.548  21.215  0.0305 -0.1175  0.0616
29062DOD     C231006  24.334  13.256  21.088  0.1650  0.0889 -0.0864
29062DOD     C331007  24.065  13.063  20.763  0.2422 -0.1302 -0.3492
29063DOD     C131008   1.614   8.887  22.355 -0.1035 -0.1287 -0.4315
29063DOD     C231009   1.400   8.676  22.691  0.0883  0.1479 -0.0290
29063DOD     C331010   1.266   8.410  23.025 -0.2031  0.0140 -0.1922
29064DOD     C131011   0.699  24.234   2.697  0.0274  0.3232  0.0143
29064DOD     C231012   1.062  23.922   2.678 -0.3223  0.0055  0.0841
29064DOD     C331013   1.374  23.716   2.449  0.1429 -0.0665 -0.2613
29065DOD     C131014   9.055  11.636  27.570 -0.3182  0.1018  0.0193
29065DOD     C231015   8.916  12.070  27.719  0.1307  0.1559 -0.0214
29065DOD     C331016   8.463  12.307  27.773 -0.1033  0.1945  0.2468
29066DOD     C131017  27.777   0.535  21.704  0.0002  0.1237 -0.4768
29066DOD     C231018  27.980   0.429  21.238  0.0943  0.5463  0.1673
29066DOD     C331019  27.728   0.262  20.837  0.1211 -0.0581 -0.0002
29067DOD     C131020  20.135   1.503  30.006 -0.2734  0.0442  0.1073
29067DOD     C231021  20.335   1.505  29.558  0.0618  0.1704  0.2142
29067DOD     C331022  20.196   1.160  29.308 -0.3795  0.3338 -0.2241
29068DOD     C131023   9.965  16.834  20.824 -0.0600 -0.0565 -0.0227
29068DOD     C231024  10.062  16.644  20.427 -0.0095  0.2259  0.2800
29068DOD     C331025  10.351  16.323  20.262  0.0351  0.3916 -0.0971
29069DOD     C131026  14.661   0.615  22.835 -0.0450  0.5077  0.1770
29069DOD     C231027  14.638   0.178  22.598  0.1127  0.1258  0.1692
29069DOD     C331028  14.626  30.079  22.403 -0.0982  0.0810  0.2563
29070DOD     C131029  18.893   7.384  22.882  0.4408 -0.1314 -0.1706
29070DOD     C231030  18.987   6.976  22.668 -0.0200 -0.0646  0.1079
29070DOD     C331031  19.377   6.726  22.648  0.1762 -0.1639  0.0123
29071DOD     C131032  14.620  23.036  22.879  0.0269  0.0239 -0.2149
29071DOD     C231033  15.074  23.062  22.752 -0.0359 -0.0721  0.1355
29071DOD     C331034  15.459  23.250  22.589  0.0363 -0.0912 -0.0420
29072DOD     C131035  30.347  25.190  11.451  0.3039 -0.1802 -0.2150
29072DOD     C231036  29.986  25.438  11.765  0.1976 -0.0140  0.1867
29072DOD     C331037  29.790  25.785  11.814  0.0727  0.2064 -0.2898
29073DOD     C131038  16.936  27.512   1.851  0.1305 -0.1983 -0.1855
29073DOD     C231039  16.734  27.180   2.046 -0.3552 -0.0517 -0.0530
29073DOD     C331040  16.496  26.827   1.852 -0.0596  0.0560 -0.0371
29074DOD     C131041  26.275  21.275  23.845 -0.0399 -0.0598  0.0541
29074DOD     C231042  26.576  21.243  23.471 -0.2123 -0.0487 -0.0874
29074DOD     C331043  26.835  21.506  23.175 -0.0211 -0.0556  0.0751
29075DOD     C131044  27.773  27.240  20.605  0.0417  0.0531 -0.0493
29075DOD     C231045  28.074  27.398  20.293 -0.2414  0.2301  0.2471
29075DOD     C331046  28.143  27.463  19.838 -0.0331 -0.0927  0.0766
29076DOD     C131047  12.604  14.080  25.620 -0.0748 -0.3167 -0.1747
29076DOD     C231048  12.547  14.135  25.159  0.4206 -0.0649  0.2185
29076DOD     C331049  12.502  14.357  24.739  0.1673  0.1645 -0.2269
29077DOD     C131050  25.663  13.053  27.747 -0.2449  0.1415  0.3477
29077DOD     C231051  25.969  12.795  27.475 -0.0695  0.0313 -0.0822
29077DOD     C331052  26.263  12.407  27.572 -0.1347  0.0503  0.3777
29078DOD     C131053  13.901  20.548  23.255 -0.1967  0.1358  0.1986
29078DOD     C231054  13.970  20.151  23.455 -0.0693  0.1421 -0.3761
29078DOD     C331055  13.801  19.820  23.723 -0.1474 -0.2035  0.1178
29079DOD     C131056  25.382  18.170  23.021 -0.0734  0.0013 -0.0842
29079DOD     C231057  25.132  17.910  23.299  0.1481 -0.0703  0.2593
29079DOD     C331058  25.150  17.989  23.740  0.0485 -0.2686  0.0971
29080DOD     C131059   6.743  18.754   9.425 -0.0470 -0.1232  0.2912
29080DOD     C231060   6.437  18.723   9.782 -0.1239 -0.1690 -0.2341
29080DOD     C331061   6.169  18.757  10.142  0.1984 -0.0135 -0.0070
29081DOD     C131062  13.141  21.560  24.043 -0.5799  0.0863  0.1110
29081DOD     C231063  13.292  21.884  23.742 -0.2299 -0.2318  0.0012
29081DOD     C331064  13.420  22.240  23.423  0.0167  0.0574  0.1202
29082DOD     C131065  14.648  23.659   0.321  0.1398 -0.0510 -0.2154
29082DOD     C231066  14.318  23.667   0.607  0.1490  0.4460  0.0333
29082DOD     C331067  14.137  23.646   1.053  0.1149  0.3110  0.1882
29083DOD     C131068  20.887  23.112   1.073 -0.2846 -0.4163 -0.0972
29083DOD     C231069  21.116  23.347   0.752 -0.0898  0.2791  0.0321
29083DOD     C331070  21.162  23.532   0.322  0.2744 -0.2329 -0.5630
29084DOD     C131071  13.528  23.377  28.204  0.3059 -0.4133  0.1892
29084DOD     C231072  13.395  23.625  28.654  0.1051 -0.2719  0.5204
29084DOD     C331073  13.078  23.969  28.709  0.3406 -0.0534  0.0941
29085DOD     C131074  26.404  24.439  27.341  0.3409  0.0487 -0.3296
29085DOD     C231075  26.034  24.197  27.541  0.0033 -0.0882  0.1339
29085DOD     C331076  26.079  23.987  27.951 -0.3755 -0.2629  0.2492
29086DOD     C131077  12.298   5.056  28.207 -0.0219 -0.3339 -0.1270
29086DOD     C231078  11.901   5.143  28.373 -0.0238  0.2306 -0.1138
29086DOD     C331079  11.542   5.394  28.224  0.0008  0.1818  0.2845
29087DOD     C131080  25.409   6.035  11.888 -0.0608 -0.0179 -0.1434
29087DOD     C231081  25.247   6.445  11.826 -0.0596  0.1080  0.0731
29087DOD     C331082  25.096   6.874  12.007 -0.2363 -0.0067  0.0047
29088DOD     C131083  26.880  13.903  27.604 -0.1001  0.2896 -0.0917
29088DOD     C231084  26.991  13.750  28.014 -0.0341 -0.1413  0.1105
29088DOD     C331085  26.804  13.502  28.338  0.0356  0.0636  0.3826
29089DOD     C131086   4.811  14.251  14.788  0.0546  0.2892 -0.1189
29089DOD     C231087   4.721  14.480  15.185 -0.3000 -0.0327 -0.1459
29089DOD     C331088   4.626  14.437  15.629  0.3821 -0.0239  0.2986
29090DOD     C131089  20.748  26.904  23.320  0.1884  0.1784  0.2065
29090DOD     C231090  20.636  27.194  22.969 -0.0945  0.1642 -0.0668
29090DOD     C331091  20.887  27.389  22.580 -0.1284 -0.2256 -0.0066
29091DOD     C131092  17.185  23.560  21.459 -0.3824 -0.2970  0.0943
29091DOD     C231093  16.904  23.196  21.347 -0.1822  0.0328 -0.1899
29091DOD     C331094  16.876  22.770  21.085 -0.0129 -0.2349 -0.0100
29092DOD     C131095  29.916   4.044  28.895 -0.0535 -0.2117  0.1490
29092DOD     C231096  30.130   3.965  28.450 -0.0707 -0.2231 -0.2722
29092DOD     C331097   0.098   3.639  28.323  0.1317 -0.0062  0.1030
29093DOD     C131098  18.894   5.185   2.384  0.1367  0.1369 -0.1618
29093DOD     C231099  18.558   5.057   2.669 -0.1448  0.0474 -0.4389
29093DOD     C331100  18.554   5.064   3.102  0.0639  0.0461 -0.1816
29094DOD     C131101   3.780  25.045   8.362  0.0476  0.0529  0.1097
29094DOD     C231102   4.132  24.971   8.057 -0.2356 -0.0620  0.1233
29094DOD     C331103   4.447  24.747   7.733 -0.2646  0.0937  0.0083
29095DOD     C131104  20.009   5.454   1.979  0.1774  0.2235  0.3337
29095DOD     C231105  20.368   5.243   1.768 -0.1603 -0.0782  0.0031
29095DOD     C331106  20.672   5.050   1.485  0.0663 -0.1493 -0.0425
29096DOD     C131107  18.470   4.282   5.883  0.2168 -0.0383 -0.0454
29096DOD     C231108  18.324   4.205   6.367  0.0249  0.2687  0.1073
29096DOD     C331109  18.067   4.044   6.710 -0.4673 -0.1475 -0.3335
29097DOD     C131110  10.638  15.764  14.403  0.0849 -0.0655 -0.1474
29097DOD     C231111  11.039  15.615  14.185 -0.0592 -0.4433  0.1268
29097DOD     C331112  11.279  15.225  14.046  0.2368  0.0799 -0.0679
29098DOD     C131113  28.131   1.595   8.337  0.0536 -0.3432 -0.0661
29098DOD     C231114  27.658   1.616   8.296  0.1349 -0.0348  0.0108
29098DOD     C331115  27.317   1.821   7.995  0.1663  0.1661  0.0285
29099DOD     C131116   6.492  18.291  10.900  0.1363  0.1162 -0.1360
29099DOD     C231117   6.850  18.208  10.553  0.2162  0.0020  0.0835
29099DOD     C331118   7.300  18.344  10.394 -0.0170 -0.1872  0.0646
29100DOD     C131119   6.240  12.992  30.239  0.1552  0.3635  0.0698
29100DOD     C231120   6.618  12.700  30.077  0.1771 -0.0316 -0.0427
29100DOD     C331121   6.804  12.371  29.829 -0.0269 -0.0201  0.0616
29101DOD     C131122  27.846   8.200  19.949 -0.0364 -0.2444 -0.2550
29101DOD     C231123  28.029   8.634  19.787 -0.1035  0.2025 -0.1591
29101DOD     C331124  28.369   8.954  19.613 -0.2740 -0.1471  0.1997
29102DOD     C131125  23.753   3.381   7.389  0.2542 -0.0926  0.4187
29102DOD     C231126  23.976   3.138   7.090 -0.0952 -0.1004  0.0529
29102DOD     C331127  24.156   2.721   7.007 -0.0942  0.4346  0.1576
29103DOD     C131128  21.225  25.149  12.525  0.1491  0.1700 -0.0728
29103DOD     C231129  20.755  25.090  12.496  0.4953  0.0684 -0.2029
29103DOD     C331130  20.301  25.189  12.441  0.1964  0.0866 -0.1187
29104DOD     C131131  13.318  19.740   9.681  0.1821 -0.2879  0.2518
29104DOD     C231132  12.890  19.454   9.720 -0.2404 -0.1940  0.0721
29104DOD     C331133  12.722  19.031   9.758 -0.1375 -0.3335  0.0254
29105DOD     C131134   7.787   7.137  22.799  0.2408  0.0134  0.0855
29105DOD     C231135   7.553   7.408  22.445  0.0275  0.2433  0.2163
29105DOD     C331136   7.373   7.682  22.088 -0.1052 -0.0825  0.2888
29106DOD     C131137   8.279  26.814  15.839 -0.1237 -0.2752  0.1078
29106DOD     C231138   7.897  26.637  16.006 -0.0888 -0.0935  0.0434
29106DOD     C331139   7.630  26.314  16.285 -0.0958  0.0413  0.2338
29107DOD     C131140  27.457   6.048   8.794  0.1503 -0.1365  0.0007
29107DOD     C231141  27.470   5.902   8.353  0.0550 -0.0641  0.1503
29107DOD     C331142  27.579   6.099   7.922  0.3249  0.0287  0.1003
29108DOD     C131143  15.143  21.593  25.557 -0.0216 -0.0655 -0.1056
29108DOD     C231144  15.257  21.254  25.822  0.0817 -0.1413 -0.0405
29108DOD     C331145  15.058  20.881  25.945 -0.1327  0.0575  0.1057
29109DOD     C131146  29.782  25.924   1.307  0.1904 -0.2834 -0.0581
29109DOD     C231147  30.206  25.841   1.101  0.0958 -0.0551  0.2468
29109DOD     C331148   0.222  25.558   1.257  0.0305 -0.1067  0.1431
29110DOD     C131149  13.818   5.251  26.540 -0.0888  0.1446 -0.1436
29110DOD     C231150  13.385   5.379  26.475  0.1081 -0.0041  0.0201
29110DOD     C331151  13.004   5.565  26.244 -0.0793 -0.4231  0.1908
29111DOD     C131152  10.013  22.176  14.932  0.1354  0.0347 -0.4477
29111DOD     C231153   9.894  21.747  14.773 -0.3560 -0.0403  0.0612
29111DOD     C331154   9.778  21.329  14.621  0.0962 -0.3706  0.1682
29112DOD     C131155  14.010   8.897  12.276 -0.2606 -0.2427 -0.3424
29112DOD     C231156  14.150   9.150  12.615 -0.3049  0.1347  0.0671
29112DOD     C331157  14.177   9.584  12.652  0.0893  0.0591 -0.1582
29113DOD     C131158  13.394  21.333  16.282  0.0416 -0.0836 -0.1225
29113DOD     C231159  13.087  21.678  16.274 -0.2695 -0.2125  0.0411
29113DOD     C331160  13.036  22.142  16.282 -0.4676  0.3081 -0.2510
29114DOD     C131161   7.367  26.377  17.974  0.2646  0.0865 -0.1198
29114DOD     C231162   7.262  26.289  17.582  0.0092  0.0173  0.1273
29114DOD     C331163   6.872  26.063  17.456 -0.0789  0.2159 -0.1793
29115DOD     C131164  27.345   9.769  25.569  0.0923 -0.2100  0.0297
29115DOD     C231165  27.757   9.933  25.430 -0.1048 -0.3571 -0.3907
29115DOD     C331166  28.135  10.012  25.153  0.0780 -0.0744 -0.1273
29116DOD     C131167  15.111   4.531  12.668 -0.1995  0.2813  0.3357
29116DOD     C231168  14.811   4.259  12.870 -0.0196  0.2013 -0.0193
29116DOD     C331169  14.676   4.078  13.293  0.1430  0.0342  0.0552
29117DOD     C131170  10.629  27.000  26.828  0.3903  0.0876  0.0740
29117DOD     C231171  10.374  27.448  26.909 -0.2176 -0.1891 -0.1991
29117DOD     C331172   9.969  27.556  26.764  0.2300  0.1407  0.2358
29118DOD     C131173  11.220   2.091  29.142 -0.0465 -0.2405 -0.2959
29118DOD     C231174  11.512   1.759  28.907 -0.0997 -0.4661  0.1436
29118DOD     C331175  11.993   1.591  28.906 -0.0191 -0.1828 -0.0508
29119DOD     C131176  19.193  26.669   9.323  0.0647  0.0003  0.0015
29119DOD     C231177  19.419  26.588   9.770  0.4203  0.0070  0.1365
29119DOD     C331178  19.755  26.799   9.983 -0.1157  0.0157  0.0199
29120DOD     C131179  13.775   9.111   0.452 -0.0034 -0.0894 -0.2734
29120DOD     C231180  14.252   9.162   0.577  0.0331  0.1816 -0.0320
29120DOD     C331181  14.667   9.335   0.556 -0.1517  0.0700 -0.0063
29121DOD     C131182   2.742   9.166   7.257  0.4071  0.0597 -0.1317
29121DOD     C231183   3.133   9.418   7.200  0.2336 -0.3187 -0.0856
29121DOD     C331184   3.525   9.624   7.080  0.0393 -0.2243  0.1314
29122DOD     C131185  13.107  18.544  20.301 -0.1450  0.1456  0.0282
29122DOD     C231186  12.976  18.935  20.286 -0.3093 -0.0490 -0.1405
29122DOD     C331187  12.555  19.121  20.386 -0.1102  0.5820 -0.0863
29123DOD     C131188  29.524  28.667  18.577 -0.0609  0.1478 -0.0918
29123DOD     C231189  29.454  28.932  18.941  0.2433  0.1692 -0.2432
29123DOD     C331190  29.642  28.903  19.364 -0.2949  0.3080 -0.0103
29124DOD     C131191   6.578  18.046  13.220  0.1821  0.0078 -0.1062
29124DOD     C231192   6.484  17.651  13.360  0.0819 -0.2074 -0.2806
29124DOD     C331193   6.419  17.277  13.624  0.0846  0.0850  0.2974
29125DOD     C131194   1.341  29.190  10.711  0.0168  0.1157  0.4104
29125DOD     C231195   1.030  29.173  11.059 -0.0991 -0.4380 -0.1129
29125DOD     C331196   1.241  28.871  11.337 -0.1560  0.2711 -0.1299
29126DOD     C131197  23.300  19.171  22.910 -0.0257  0.2776  0.3292
29126DOD     C231198  23.072  18.878  22.626 -0.0917  0.0647 -0.1349
29126DOD     C331199  22.689  18.557  22.575 -0.1071 -0.0101  0.0991
29127DOD     C131200  21.215  19.997  17.106  0.3575 -0.1629 -0.2647
29127DOD     C231201  21.257  19.544  17.095  0.2039 -0.2250 -0.3288
29127DOD     C331202  21.092  19.184  17.322 -0.2201  0.3475 -0.1763
29128DOD     C131203  23.020  13.640   2.125 -0.5195  0.2438 -0.0642
29128DOD     C231204  22.750  13.479   2.442  0.2202 -0.1395 -0.3750
29128DOD     C331205  22.504  13.629   2.804  0.1492  0.0657 -0.1005
29129DOD     C131206  21.437  17.859  27.796  0.0957 -0.2381 -0.0462
29129DOD     C231207  21.439  17.633  27.439 -0.2637 -0.1217  0.4412
29129DOD     C331208  21.284  17.315  27.117 -0.0072  0.1170 -0.1291
29130DOD     C131209   2.145  25.821  11.073  0.0834 -0.0166  0.0404
29130DOD     C231210   1.961  25.909  10.585 -0.0196 -0.0050 -0.2050
29130DOD     C331211   2.094  25.534  10.308  0.1835  0.0603 -0.1090
29131DOD     C131212   1.614  26.718  13.655 -0.0318 -0.1849  0.2221
29131DOD     C231213   1.754  26.330  13.466 -0.0138 -0.1903  0.3377
29131DOD     C331214   2.071  26.066  13.415 -0.1853 -0.0109  0.0337
29132DOD     C131215  26.890  17.991   9.218  0.1892  0.2176 -0.0070
29132DOD     C231216  27.280  18.149   9.037  0.1025 -0.4181  0.0410
29132DOD     C331217  27.628  17.913   8.787  0.0807 -0.0223  0.2206
29133DOD     C131218   1.735  24.860  19.037  0.0851 -0.2977  0.1281
29133DOD     C231219   2.055  24.521  19.060 -0.1174  0.3165  0.4177
29133DOD     C331220   1.927  24.083  19.214  0.1418 -0.0456  0.1130
29134DOD     C131221   3.022  20.552  24.775 -0.5267 -0.0350  0.1653
29134DOD     C231222   2.562  20.573  24.781  0.0623 -0.0290 -0.0696
29134DOD     C331223   2.134  20.692  24.691  0.0977  0.0981  0.0705
29135DOD     C131224  23.313   7.648   1.974 -0.0864  0.1093 -0.0881
29135DOD     C231225  23.569   7.826   2.344  0.1187  0.1123  0.0367
29135DOD     C331226  23.634   7.742   2.812 -0.2146 -0.0415 -0.1071
29136DOD     C131227   9.643   2.759  20.088  0.1725  0.1824 -0.0882
29136DOD     C231228   9.277   2.596  19.848 -0.0476 -0.0144  0.3299
29136DOD     C331229   8.992   2.246  19.759  0.1554 -0.1919  0.0571
29137DOD     C131230  21.057   8.186  15.662 -0.0580  0.0905  0.1307
29137DOD     C231231  21.024   8.622  15.898 -0.1482  0.1350  0.0156
29137DOD     C331232  20.800   9.035  15.753  0.2881  0.4413 -0.4374
29138DOD     C131233   6.361   4.181  15.511  0.0002  0.0705 -0.1550
29138DOD     C231234   6.000   3.884  15.580 -0.1132  0.1695 -0.1759
29138DOD     C331235   5.573   3.947  15.556  0.1859 -0.0776  0.0106
29139DOD     C131236   4.392  11.684   9.852 -0.0080  0.0878  0.2778
29139DOD     C231237   4.195  11.308   9.693 -0.0125  0.2556 -0.0248
29139DOD     C331238   3.800  11.103   9.555  0.2851  0.0171 -0.0243
29140DOD     C131239  13.339  13.732  21.175 -0.0224  0.1314  0.0395
29140DOD     C231240  13.221  13.426  21.545 -0.0493  0.1036  0.0961
29140DOD     C331241  12.850  13.158  21.561 -0.2878 -0.2957  0.1178
29141DOD     C131242   6.628   0.673  22.033 -0.0419 -0.1962 -0.2121
29141DOD     C231243   6.273   0.603  21.744  0.0008  0.0919 -0.4678
29141DOD     C331244   5.968   0.563  21.378 -0.0040  0.2253  0.4287
29142DOD     C131245  16.249  23.990  28.768 -0.0991 -0.2670  0.0613
29142DOD     C231246  16.587  24.153  29.073 -0.2033 -0.3280 -0.2182
29142DOD     C331247  16.772  23.966  29.463 -0.2547 -0.2978 -0.1854
29143DOD     C131248  17.038  19.094  11.369 -0.0309  0.2720 -0.1513
29143DOD     C231249  17.260  18.767  11.662 -0.0662  0.1137 -0.1943
29143DOD     C331250  17.298  18.378  11.881  0.0270 -0.0080 -0.1952
29144DOD     C131251   4.121   3.089   1.225 -0.0916 -0.2348  0.0953
29144DOD     C231252   3.679   2.919   1.170  0.2248 -0.0111  0.1957
29144DOD     C331253   3.286   2.792   1.051  0.3748  0.2774  0.2297
29145DOD     C131254   4.914  11.325   5.050 -0.2777 -0.0022  0.2486
29145DOD     C231255   4.616  11.534   5.276  0.0437 -0.2564  0.1282
29145DOD     C331256   4.207  11.525   5.448  0.1298  0.3780 -0.0286
29146DOD     C131257  13.412  14.701  28.754  0.1087 -0.2476  0.1368
29146DOD     C231258  13.174  14.476  28.357 -0.1122 -0.2628 -0.0834
29146DOD     C331259  12.833  14.421  28.065 -0.2109  0.1122 -0.1050
29147DOD     C131260  24.486   7.470   0.358  0.0073  0.0534  0.1285
29147DOD     C231261  24.753   7.892   0.276 -0.1193 -0.2728 -0.0287
29147DOD     C331262  25.093   8.203   0.124 -0.3644  0.1567  0.1190
29148DOD     C131263  15.599  26.947  22.585 -0.1353  0.0306 -0.1909
29148DOD     C231264  15.625  26.534  22.829 -0.2003 -0.0142  0.0140
29148DOD     C331265  15.670  26.451  23.257 -0.1123 -0.3675 -0.2991
29149DOD     C131266  25.991  16.807   5.771 -0.2306 -0.2934  0.1120
29149DOD     C231267  25.893  17.058   6.196 -0.3634 -0.1329  0.0425
29149DOD     C331268  25.826  16.995   6.648  0.2397 -0.1529  0.0271
29150DOD     C131269   0.580  12.840  19.618 -0.1106 -0.1574  0.0020
29150DOD     C231270   0.198  13.029  19.407 -0.0275 -0.0428  0.2249
29150DOD     C331271   0.003  13.310  19.165 -0.0275 -0.3913  0.2931
29151DOD     C131272  10.243   8.225  27.581  0.1871  0.2004  0.1509
29151DOD     C231273  10.182   7.889  27.895 -0.3272 -0.1166  0.0645
29151DOD     C331274  10.192   7.612  28.277 -0.0307  0.2631 -0.1255
29152DOD     C131275   2.278  22.785  23.825  0.3808 -0.3682  0.2078
29152DOD     C231276   2.534  23.067  23.610  0.4197 -0.2156 -0.0713
29152DOD     C331277   2.898  23.323  23.418  0.2796 -0.1395  0.2063
29153DOD     C131278   6.111  26.909   7.325 -0.1847 -0.3087 -0.1983
29153DOD     C231279   5.804  26.651   7.626  0.2408  0.2458  0.3712
29153DOD     C331280   5.455  26.784   7.872 -0.1270  0.0452  0.1837
29154DOD     C131281   1.106  28.516  29.529 -0.2182  0.1520  0.0432
29154DOD     C231282   0.793  28.857  29.531  0.0312  0.0627 -0.1181
29154DOD     C331283   0.329  28.930  29.521 -0.1885  0.0407 -0.0045
29155DOD     C131284   3.858  21.257  20.605  0.1339  0.2493 -0.1297
29155DOD     C231285   3.495  21.077  20.376  0.2990  0.0633 -0.2008
29155DOD     C331286   3.109  21.040  20.169 -0.2292  0.1426  0.0958
29156DOD     C131287  24.211  11.782   8.712  0.2163  0.0418  0.0085
29156DOD     C231288  23.782  11.751   8.872  0.0191 -0.1988  0.1085
29156DOD     C331289  23.372  11.863   9.015  0.0284  0.1269  0.0006
29157DOD     C131290   8.629   3.420   4.714 -0.1392  0.1825 -0.2153
29157DOD     C231291   8.976   3.127   4.912 -0.6266 -0.0663 -0.0767
29157DOD     C331292   9.179   3.251   5.339 -0.1559  0.1028  0.0092
29158DOD     C131293  28.704  26.124  19.761 -0.2975  0.1574  0.0039
29158DOD     C231294  29.160  26.072  19.685  0.0250 -0.3741 -0.2193
29158DOD     C331295  29.590  26.214  19.872  0.2938  0.1927  0.3520
29159DOD     C131296   9.795   2.753  16.378 -0.2373  0.0820 -0.0826
29159DOD     C231297   9.789   3.227  16.366  0.0319 -0.0014 -0.1886
29159DOD     C331298   9.820   3.682  16.343  0.1895  0.3260 -0.0950
29160DOD     C131299  17.592   6.309  10.259  0.1954 -0.2595  0.1795
29160DOD     C231300  17.235   6.283  10.567 -0.0913  0.2795 -0.0719
29160DOD     C331301  16.970   6.503  10.894  0.3182  0.4230  0.0038
29161DOD     C131302  13.599   1.949  17.334  0.3085 -0.0896  0.0646
29161DOD     C231303  13.250   2.077  17.018  0.1520 -0.2299 -0.0288
29161DOD     C331304  13.001   1.738  16.692  0.1666  0.1336  0.2053
29162DOD     C131305  12.323   1.761  17.127 -0.2863 -0.0126  0.1066
29162DOD     C231306  12.155   1.333  16.933  0.3318 -0.2690 -0.0636
29162DOD     C331307  12.008   0.908  16.870  0.0963  0.2198 -0.0061
29163DOD     C131308   4.926  12.753   3.761  0.1222  0.1089  0.0469
29163DOD     C231309   5.326  12.628   3.622 -0.1679  0.4439  0.3762
29163DOD     C331310   5.730  12.609   3.369  0.2304 -0.3577 -0.2385
29164DOD     C131311  20.315   6.848  12.809 -0.0887 -0.1224  0.0208
29164DOD     C231312  20.273   7.233  13.095 -0.1316 -0.2619 -0.0813
29164DOD     C331313  20.154   7.685  12.973  0.0032  0.3171  0.1338
29165DOD     C131314  16.180  19.057  22.423  0.0327 -0.1434  0.1072
29165DOD     C231315  16.078  18.577  22.441 -0.0696  0.0363 -0.1313
29165DOD     C331316  15.998  18.181  22.630  0.0118 -0.2890  0.2285
29166DOD     C131317  18.252  24.511  20.423 -0.2875  0.1354 -0.1904
29166DOD     C231318  18.221  24.605  19.982  0.0795 -0.0781  0.0385
29166DOD     C331319  18.000  24.756  19.613 -0.0757  0.0408 -0.0112
29167DOD     C131320  20.553  18.185  22.471  0.1954  0.0091 -0.2082
29167DOD     C231321  20.684  17.774  22.289  0.1428 -0.1327  0.1970
29167DOD     C331322  20.661  17.299  22.130  0.1000 -0.1849  0.2691
29168DOD     C131323   3.234  29.914  19.829  0.0041 -0.0280  0.0382
29168DOD     C231324   3.604  30.012  20.153 -0.0838  0.4234 -0.0913
29168DOD     C331325   3.631  30.249  20.543 -0.1285 -0.2510 -0.0602
29169DOD     C131326  27.203  23.571   4.633 -0.2211 -0.0564 -0.0423
29169DOD     C231327  27.625  23.463   4.774 -0.2380  0.1118 -0.3052
29169DOD     C331328  28.072  23.359   4.866  0.1059  0.2638  0.0395
29170DOD     C131329   6.104   5.163  24.142  0.2365 -0.0700 -0.0447
29170DOD     C231330   6.302   5.480  23.887  0.2118 -0.0525 -0.0329
29170DOD     C331331   6.594   5.870  23.879 -0.0066  0.3255 -0.1379
29171DOD     C131332  29.802  15.290   5.162  0.0794  0.0057  0.3604
29171DOD     C231333  29.449  15.455   5.098  0.0802  0.2580 -0.2425
29171DOD     C331334  29.139  15.673   5.334  0.1555 -0.0615 -0.2739
29172DOD     C131335   8.241  15.541  21.658  0.0998 -0.1133  0.0064
29172DOD     C231336   8.509  15.491  21.221  0.2067 -0.1762  0.1263
29172DOD     C331337   8.568  15.591  20.761 -0.1954 -0.1354 -0.0752
29173DOD     C131338  10.229   3.666   1.061 -0.0499 -0.2201  0.1679
29173DOD     C231339  10.566   3.526   1.362  0.0086 -0.0296  0.1353
29173DOD     C331340  10.762   3.805   1.639 -0.1682  0.0274 -0.1316
29174DOD     C131341  10.908  30.292   9.907  0.0045 -0.0288  0.0562
29174DOD     C231342  10.962  30.245   9.481  0.0405  0.2461 -0.1416
29174DOD     C331343  11.164  30.094   9.107 -0.1792 -0.3276 -0.1422
29175DOD     C131344   6.612  12.654  23.110 -0.1214  0.1641  0.0941
29175DOD     C231345   6.253  12.721  22.785  0.0682 -0.1125  0.2184
29175DOD     C331346   5.799  12.673  22.992 -0.3623  0.2254  0.0097
29176DOD     C131347   5.648  10.314  26.592 -0.0277  0.0573 -0.2753
29176DOD     C231348   5.270  10.567  26.667 -0.1176 -0.2490 -0.1850
29176DOD     C331349   5.041  10.923  26.527  0.0237 -0.2257  0.1819
29177DOD     C131350   0.359  28.124  23.109 -0.0760  0.2289  0.1611
29177DOD     C231351   0.477  28.459  22.785 -0.2120 -0.0971 -0.2712
29177DOD     C331352   0.325  28.736  22.412 -0.1706 -0.0033 -0.0096
29178DOD     C131353  20.113   0.783  21.986 -0.1963  0.2315 -0.4025
29178DOD     C231354  19.808   0.842  21.610  0.1322 -0.3560  0.3911
29178DOD     C331355  19.577   0.972  21.253  0.0699  0.1453  0.0895
29179DOD     C131356  12.610  16.942  25.416  0.2993 -0.0759  0.2305
29179DOD     C231357  12.420  16.638  25.677  0.0690  0.1233  0.1773
29179DOD     C331358  12.739  16.292  25.738 -0.1671  0.1084 -0.1463
29180DOD     C131359  26.243   4.051   3.154  0.3923 -0.0050  0.2889
29180DOD     C231360  25.870   3.830   3.155 -0.3699 -0.1244  0.2950
29180DOD     C331361  25.578   3.497   3.289 -0.3358  0.0852 -0.0583
29181DOD     C131362  22.676  24.142  27.451  0.1467  0.3589 -0.2352
29181DOD     C231363  22.171  24.249  27.501 -0.1053  0.4026 -0.1325
29181DOD     C331364  21.789  24.216  27.713 -0.2672 -0.0788 -0.2049
29182DOD     C131365  10.953  23.685  29.072  0.1933 -0.1555 -0.6168
29182DOD     C231366  10.904  23.830  28.659 -0.5157 -0.3269  0.2558
29182DOD     C331367  11.145  23.692  28.254  0.1163  0.3294 -0.1612
29183DOD     C131368  10.995  10.716  21.814 -0.3856 -0.1521  0.4566
29183DOD     C231369  11.247  10.836  22.187  0.2599  0.2122 -0.0165
29183DOD     C331370  11.736  10.778  22.256 -0.1156 -0.0410 -0.1087
29184DOD     C131371  19.267  17.371  11.852 -0.3103 -0.1349 -0.1907
29184DOD     C231372  19.536  17.017  11.693  0.2725 -0.1358 -0.1376
29184DOD     C331373  19.752  16.643  11.846 -0.0462  0.1883  0.0192
29185DOD     C131374   0.930  14.519   8.599  0.0195  0.0694 -0.0459
29185DOD     C231375   1.245  14.839   8.667  0.0279 -0.2226  0.0528
29185DOD     C331376   1.486  15.081   9.009 -0.3663 -0.0797 -0.0489
29186DOD     C131377  11.081  28.866  16.564  0.1393  0.1943 -0.0905
29186DOD     C231378  11.205  28.417  16.378  0.1981 -0.1168  0.1391
29186DOD     C331379  11.059  28.068  16.672 -0.0892 -0.0241  0.1893
29187DOD     C131380   9.356  30.159   5.232 -0.1237  0.0268  0.1800
29187DOD     C231381   9.694  30.039   5.559  0.3993  0.0228  0.1649
29187DOD     C331382   9.949  30.097   5.930  0.2433  0.0634  0.1304
29188DOD     C131383   9.058  30.193  14.615 -0.3116  0.1921 -0.1622
29188DOD     C231384   8.977  29.792  14.389  0.0733 -0.0701 -0.2800
29188DOD     C331385   8.783  29.432  14.087  0.0005 -0.1392  0.0379
29189DOD     C131386  22.570   5.205   9.786 -0.2668 -0.0145 -0.0596
29189DOD     C231387  23.002   5.281   9.566 -0.0338 -0.2373 -0.2540
29189DOD     C331388  23.272   4.977   9.368 -0.1243  0.3279 -0.2669
29190DOD     C131389  30.025  17.531  27.759  0.1057 -0.0726  0.0590
29190DOD     C231390  29.963  17.479  27.320  0.0495  0.0308  0.0936
29190DOD     C331391  29.972  17.069  27.147 -0.0495  0.1516 -0.1192
29191DOD     C131392  25.449  23.550   5.500 -0.1780  0.3470 -0.2810
29191DOD     C231393  25.273  23.569   5.073 -0.0860 -0.0929  0.3035
29191DOD     C331394  25.238  24.020   4.819 -0.3214 -0.0253  0.3061
29192DOD     C131395   2.548  27.235   7.389  0.4135 -0.0388 -0.0623
29192DOD     C231396   2.726  27.182   7.852  0.1511 -0.0200  0.2768
29192DOD     C331397   3.015  27.101   8.197 -0.2539 -0.0573  0.2438
29193DOD     C131398  25.414   7.809  27.309  0.1339  0.3363 -0.1171
29193DOD     C231399  25.123   8.046  27.575 -0.2157  0.1722  0.2051
29193DOD     C331400  24.748   8.378  27.624 -0.0315 -0.0759 -0.0844
29194DOD     C131401  19.915  20.772  22.252 -0.1618 -0.0361  0.1004
29194DOD     C231402  20.364  20.816  22.082 -0.1253 -0.0025 -0.0409
29194DOD     C331403  20.841  21.014  22.078 -0.2010 -0.1306  0.0208
29195DOD     C131404   4.020  21.986  21.522 -0.1903  0.0637  0.0801
29195DOD     C231405   3.583  22.142  21.583  0.1659 -0.1302 -0.2292
29195DOD     C331406   3.449  22.565  21.461  0.2539  0.1289 -0.5397
29196DOD     C131407  10.651   8.982  12.091  0.2981 -0.1014 -0.2983
29196DOD     C231408  10.749   8.563  12.221  0.2764  0.2069 -0.0647
29196DOD     C331409  11.045   8.276  11.948 -0.1690  0.0421  0.0889
29197DOD     C131410  29.466  30.036  27.624 -0.0958 -0.0117  0.0470
29197DOD     C231411  29.615   0.148  27.747  0.3403 -0.2935  0.0124
29197DOD     C331412  29.532   0.589  27.649  0.1576  0.0418  0.2246
29198DOD     C131413  23.549  10.647   1.865  0.0960  0.1282  0.0639
29198DOD     C231414  23.572  10.795   1.405 -0.0024 -0.0966 -0.0421
29198DOD     C331415  23.383  10.612   1.031 -0.0942  0.3656  0.0362
29199DOD     C131416  27.144  29.799  30.270 -0.1632  0.2642  0.0091
29199DOD     C231417  27.330  29.989   0.349  0.2426  0.1630  0.1990
29199DOD     C331418  27.464  29.903   0.767  0.2259 -0.1994  0.1484
29200DOD     C131419  19.657  15.462  24.671 -0.0265 -0.1004 -0.1530
29200DOD     C231420  20.044  15.452  24.765  0.1752 -0.2872  0.0083
29200DOD     C331421  20.323  15.103  24.871 -0.1908 -0.2175  0.0020
29201DOD     C131422  10.275   2.457   4.053 -0.1485 -0.2735  0.2643
29201DOD     C231423   9.896   2.193   4.084 -0.1442 -0.0352  0.2047
29201DOD     C331424   9.703   1.826   4.209  0.0172  0.1533  0.2797
29202DOD     C131425   7.719  12.094   7.842 -0.3926  0.0145  0.1609
29202DOD     C231426   7.605  12.008   8.299  0.0114 -0.0406  0.1669
29202DOD     C331427   7.416  11.773   8.606  0.1182  0.1237 -0.0278
29203DOD     C131428   8.161  16.640  22.440  0.3490  0.0870 -0.2079
29203DOD     C231429   7.864  16.799  22.755  0.0122 -0.1650  0.0023
29203DOD     C331430   7.803  16.726  23.185  0.0100  0.1498  0.2297
29204DOD     C131431  19.279  30.053  24.156  0.2440  0.1957 -0.0900
29204DOD     C231432  19.365  29.738  23.849  0.1290 -0.0577  0.0543
29204DOD     C331433  19.293  29.557  23.436 -0.0059 -0.1355  0.0334
29205DOD     C131434  20.852  24.794  29.841 -0.0514 -0.0387 -0.2256
29205DOD     C231435  20.950  25.034  30.245 -0.2620 -0.0888 -0.3431
29205DOD     C331436  21.394  25.270  -0.005  0.3233 -0.2292  0.0058
29206DOD     C131437   7.324  18.531  27.801  0.0184 -0.1917 -0.0199
29206DOD     C231438   7.387  18.343  28.214 -0.0088  0.0486  0.1395
29206DOD     C331439   7.693  18.140  28.462 -0.1218  0.1067  0.0184
29207DOD     C131440  18.816   7.573  27.673  0.0076 -0.0514 -0.2300
29207DOD     C231441  19.271   7.720  27.471  0.1596 -0.3792  0.1060
29207DOD     C331442  19.558   8.022  27.633 -0.0429 -0.0649  0.0102
29208DOD     C131443  12.316  18.336  18.413  0.1818 -0.1284 -0.1870
29208DOD     C231444  12.169  17.890  18.349 -0.1736 -0.1745 -0.1359
29208DOD     C331445  12.318  17.515  18.356  0.2933  0.2158 -0.3524
29209DOD     C131446   9.661  24.463   0.256 -0.0874  0.0976  0.2201
29209DOD     C231447   9.514  24.120   0.025  0.0526 -0.0754  0.0950
29209DOD     C331448   9.704  23.830  30.134  0.2362  0.1547 -0.1102
29210DOD     C131449  14.273  11.382   4.262 -0.0159 -0.1375  0.0537
29210DOD     C231450  14.711  11.405   4.074  0.0047  0.2345  0.3381
29210DOD     C331451  14.958  11.280   3.674 -0.0498 -0.0165  0.0173
29211DOD     C131452  19.583  26.424  10.244  0.0316 -0.1508  0.1757
29211DOD     C231453  19.499  26.095  10.561  0.0436 -0.2220 -0.0237
29211DOD     C331454  19.689  26.145  10.974  0.1999 -0.1756 -0.2291
29212DOD     C131455  24.712   1.918   0.509 -0.0949 -0.1823  0.0017
29212DOD     C231456  24.315   1.934   0.344  0.2946 -0.1619 -0.1803
29212DOD     C331457  23.843   2.061   0.191  0.1462 -0.1209  0.1674
29213DOD     C131458   6.382   8.530  13.857 -0.0240 -0.1728 -0.1782
29213DOD     C231459   6.372   8.803  13.530 -0.0561  0.0810  0.3582
29213DOD     C331460   6.610   8.710  13.144  0.2910  0.3284 -0.1920
29214DOD     C131461  22.641   9.018   0.920 -0.2944  0.3300 -0.0605
29214DOD     C231462  22.629   8.540   0.975  0.1485 -0.0326  0.2221
29214DOD     C331463  22.901   8.129   1.168 -0.2918 -0.4605  0.1987
29215DOD     C131464  20.256  21.378  14.170 -0.1288  0.1047 -0.2216
29215DOD     C231465  20.162  21.564  13.773  0.1503 -0.2008  0.0854
29215DOD     C331466  20.000  21.667  13.375 -0.3089  0.1177  0.1504
29216DOD     C131467  19.125  27.836   4.190  0.0706 -0.0553 -0.1564
29216DOD     C231468  19.078  27.450   4.479 -0.0127 -0.1567  0.0567
29216DOD     C331469  18.975  27.340   4.881  0.1724  0.3007 -0.1065
29217DOD     C131470  10.714  13.668   6.685 -0.3215 -0.1986  0.1025
29217DOD     C231471  10.507  13.456   7.009 -0.0135 -0.1004  0.0542
29217DOD     C331472  10.311  13.490   7.433  0.0980 -0.0592  0.1890
29218DOD     C131473  17.386  23.523  25.363  0.1408  0.3140 -0.0542
29218DOD     C231474  17.374  23.478  25.850  0.0166  0.0441 -0.0056
29218DOD     C331475  17.599  23.434  26.235  0.0295  0.0034 -0.0987
29219DOD     C131476  27.453  11.129  23.064  0.1731 -0.2569 -0.0195
29219DOD     C231477  27.173  11.451  23.332  0.2145  0.2855  0.0934
29219DOD     C331478  27.041  11.262  23.764  0.1103  0.0793 -0.1151
29220DOD     C131479  23.496  25.546   7.134  0.0164 -0.0344 -0.4699
29220DOD     C231480  23.337  25.317   6.800  0.2288 -0.0733  0.0005
29220DOD     C331481  23.245  25.317   6.380  0.3600  0.0935  0.0375
29221DOD     C131482   4.229   9.894  15.772  0.2452  0.0847 -0.0131
29221DOD     C231483   3.755   9.803  15.840  0.1625 -0.1586 -0.1988
29221DOD     C331484   3.337   9.452  15.877  0.1357 -0.1015 -0.0270
29222DOD     C131485  20.927  16.868   7.380  0.2105 -0.1602  0.2838
29222DOD     C231486  20.511  17.013   7.493 -0.0563  0.1982  0.1062
29222DOD     C331487  20.369  17.293   7.826  0.0879 -0.1658  0.2160
29223DOD     C131488   9.772  17.092   8.985 -0.0178 -0.1766  0.2614
29223DOD     C231489  10.072  17.143   8.633  0.1807 -0.1079 -0.0257
29223DOD     C331490  10.209  17.265   8.197 -0.0997 -0.1036 -0.5404
29224DOD     C131491  29.523  14.279   8.930  0.2756 -0.1789 -0.0020
29224DOD     C231492  29.437  14.159   9.349  0.2094 -0.2674  0.2552
29224DOD     C331493  29.146  13.800   9.407  0.0183  0.3385 -0.1616
29225DOD     C131494   0.967  26.175  11.745 -0.3185 -0.1214 -0.1087
29225DOD     C231495   0.678  26.310  12.070 -0.1698 -0.1144  0.0377
29225DOD     C331496   0.253  26.453  12.072  0.1329 -0.0671  0.0688
29226DOD     C131497  11.292  11.954  26.262  0.3772 -0.2451 -0.0692
29226DOD     C231498  10.964  11.970  25.918 -0.5147  0.2820 -0.2646
29226DOD     C331499  10.734  11.672  25.626 -0.0374  0.2668 -0.0840
29227DOD     C131500   8.473   0.731  29.426  0.1360 -0.0426 -0.1476
29227DOD     C231501   8.831   0.829  29.115 -0.0510  0.1624 -0.0519
29227DOD     C331502   8.990   0.507  28.822  0.1941 -0.0875 -0.0098
29228DOD     C131503  12.465  17.975  23.558  0.2051  0.0361  0.2660
29228DOD     C231504  12.367  18.415  23.669 -0.0977  0.1163 -0.1726
29228DOD     C331505  12.309  18.631  24.116 -0.3191  0.0785 -0.0489
29229DOD     C131506  14.616   9.155   2.984  0.0223 -0.0759 -0.0374
29229DOD     C231507  14.849   9.445   2.646 -0.2593 -0.1245 -0.0175
29229DOD     C331508  14.864   9.280   2.172  0.1503  0.0321 -0.0771
29230DOD     C131509  26.901  22.682   5.258 -0.0912  0.1631 -0.1295
29230DOD     C231510  26.509  22.859   5.087 -0.1887  0.3078 -0.0361
29230DOD     C331511  26.226  23.068   4.765 -0.3211  0.2810 -0.1456
29231DOD     C131512  30.118   0.821   5.854  0.0573  0.1260 -0.1596
29231DOD     C231513   0.080   0.872   6.245  0.0599  0.1508  0.2458
29231DOD     C331514   0.263   1.022   6.597 -0.4006 -0.1289 -0.1164
29232DOD     C131515  14.178   5.478  20.544 -0.0031  0.1520 -0.0354
29232DOD     C231516  14.591   5.753  20.506  0.1797  0.0437 -0.2315
29232DOD     C331517  14.847   6.058  20.302  0.0283  0.1946 -0.0627
29233DOD     C131518  14.268  15.655   1.898 -0.2476 -0.0574  0.0030
29233DOD     C231519  14.174  15.731   2.342  0.1738  0.0558 -0.1415
29233DOD     C331520  13.946  15.482   2.718 -0.1452 -0.2066 -0.0914
29234DOD     C131521  17.158  23.264  27.233  0.0223  0.0178 -0.1154
29234DOD     C231522  16.683  23.259  27.383 -0.2098 -0.0536 -0.0230
29234DOD     C331523  16.233  23.336  27.507  0.1179 -0.1233  0.1417
29235DOD     C131524   2.361  25.144  14.641  0.2910  0.3611  0.4521
29235DOD     C231525   2.422  24.960  15.060  0.0844  0.3444  0.1414
29235DOD     C331526   2.480  24.539  15.291  0.1853  0.0790  0.2528
29236DOD     C131527  20.271   3.461   0.444 -0.1342  0.2150  0.1365
29236DOD     C231528  20.723   3.570   0.532 -0.2049  0.2782 -0.0957
29236DOD     C331529  20.887   3.782   0.953  0.0007 -0.1285  0.0086
29237DOD     C131530   6.724  29.813  22.249  0.2194 -0.0508  0.1174
29237DOD     C231531   7.102  30.002  22.382 -0.0985 -0.1137  0.0115
29237DOD     C331532   7.414  30.125  22.700  0.1040 -0.1828 -0.0925
29238DOD     C131533   0.545   5.216  14.156 -0.2848 -0.1831  0.1458
29238DOD     C231534   0.478   5.639  13.971  0.0313  0.1713  0.4606
29238DOD     C331535   0.630   6.053  13.976 -0.1029  0.3332  0.2859
29239DOD     C131536  17.698  23.098  10.993 -0.1155 -0.3442  0.1355
29239DOD     C231537  18.014  23.324  11.296 -0.0214 -0.0006 -0.0851
29239DOD     C331538  18.326  23.513  11.586  0.1228 -0.0167 -0.1344
29240DOD     C131539  15.061  13.127  19.512  0.3248 -0.2386 -0.1295
29240DOD     C231540  14.734  12.935  19.771 -0.2953 -0.1926 -0.1010
29240DOD     C331541  14.401  12.673  20.009  0.2128  0.0954  0.0572
29241DOD     C131542   5.849  16.781   8.465  0.0209  0.2034 -0.1472
29241DOD     C231543   6.294  16.854   8.653 -0.2498  0.3844 -0.1335
29241DOD     C331544   6.783  16.874   8.718 -0.1117  0.3248 -0.2396
29242DOD     C131545  26.097  29.597  18.241  0.4064  0.0955 -0.0188
29242DOD     C231546  26.025  29.571  18.689  0.4785  0.1908 -0.2051
29242DOD     C331547  26.154  29.763  19.053  0.0000  0.4057  0.0120
29243DOD     C131548   0.466  17.790  19.902  0.2823 -0.0002  0.0195
29243DOD     C231549   0.644  18.214  19.939 -0.0532 -0.1635  0.0600
29243DOD     C331550   0.564  18.649  19.959 -0.2127 -0.0991  0.3520
29244DOD     C131551   0.001  10.927  29.763 -0.2768  0.0366 -0.1838
29244DOD     C231552   0.024  11.360  29.589  0.0768  0.1618 -0.1055
29244DOD     C331553  30.217  11.578  29.171 -0.0419 -0.1558  0.0541
29245DOD     C131554  16.612  14.740  10.273  0.1673 -0.3230 -0.0080
29245DOD     C231555  16.211  14.752  10.071  0.2822  0.2504 -0.0317
29245DOD     C331556  15.771  14.769   9.918 -0.1639  0.0050  0.2084
29246DOD     C131557   6.005   8.810  22.840 -0.1375 -0.0597 -0.0278
29246DOD     C231558   5.661   8.487  22.902  0.1357  0.2047  0.1230
29246DOD     C331559   5.171   8.502  22.996 -0.0825 -0.1293  0.1905
29247DOD     C131560   6.692  26.968   4.581  0.3186 -0.0396  0.0652
29247DOD     C231561   7.018  27.239   4.763  0.0296 -0.1143 -0.4744
29247DOD     C331562   7.176  27.667   4.857 -0.2439  0.2687 -0.1818
29248DOD     C131563  10.965  27.453  17.651  0.1167 -0.0382  0.2944
29248DOD     C231564  10.689  27.400  17.258  0.0666  0.3052 -0.1145
29248DOD     C331565  10.550  27.618  16.891  0.1160 -0.2395  0.0353
29249DOD     C131566  18.411   2.740  17.875 -0.2235 -0.1586  0.0320
29249DOD     C231567  18.666   2.913  18.223 -0.0398 -0.1188 -0.0909
29249DOD     C331568  19.007   2.821  18.500 -0.3428  0.1922  0.1016
29250DOD     C131569   3.075   9.712  12.530 -0.2378 -0.0088 -0.0641
29250DOD     C231570   3.457   9.942  12.630  0.1116 -0.1411 -0.1228
29250DOD     C331571   3.892  10.086  12.814 -0.0986  0.1214  0.0572
29251DOD     C131572  11.263   3.163  27.799  0.4112 -0.1482  0.1624
29251DOD     C231573  10.793   3.205  27.822 -0.0379 -0.3561 -0.1066
29251DOD     C331574  10.552   2.876  27.973  0.0348 -0.0558 -0.0639
29252DOD     C131575  27.549  15.385  24.381  0.0990 -0.3932 -0.0927
29252DOD     C231576  27.221  15.434  24.727  0.2312  0.0606  0.2137
29252DOD     C331577  26.976  15.851  24.744  0.1789  0.2692  0.1951
29253DOD     C131578  29.825  20.885  27.762  0.2930 -0.1628 -0.1383
29253DOD     C231579  30.287  20.688  27.910  0.0377 -0.0875  0.1318
29253DOD     C331580   0.204  20.268  27.821 -0.0464  0.1045 -0.2090
29254DOD     C131581   2.139  29.175   9.138 -0.3384 -0.0090  0.2352
29254DOD     C231582   2.176  29.272   9.545  0.1790 -0.2203 -0.2122
29254DOD     C331583   2.206  29.647   9.810 -0.2980  0.5319 -0.2857
29255DOD     C131584  25.017   8.434   9.216  0.0277  0.0053 -0.0248
29255DOD     C231585  24.825   8.685   8.897 -0.0447 -0.0334 -0.0845
29255DOD     C331586  24.510   8.993   8.703  0.4871 -0.2939 -0.1151
29256DOD     C131587  17.914   8.911   7.028 -0.3406  0.2198  0.4408
29256DOD     C231588  17.747   9.301   7.127 -0.1222  0.3251 -0.0193
29256DOD     C331589  17.471   9.665   7.214  0.1085  0.2729 -0.0229
29257DOD     C131590   6.056  26.790  13.677 -0.2081  0.1858  0.0486
29257DOD     C231591   5.714  27.028  13.545  0.0424  0.0549  0.0711
29257DOD     C331592   5.588  27.388  13.277  0.0505  0.1563 -0.2010
29258DOD     C131593   0.174  26.205  29.464 -0.0654 -0.2007  0.1122
29258DOD     C231594   0.119  26.539  29.119 -0.0762  0.1876  0.1226
29258DOD     C331595   0.226  26.624  28.661  0.1657 -0.0907 -0.3161
29259DOD     C131596   6.655  15.712   9.924  0.1485 -0.0373  0.0762
29259DOD     C231597   6.560  16.136   9.769 -0.1041  0.2293 -0.1755
29259DOD     C331598   6.708  16.428   9.464 -0.2800 -0.3000 -0.2226
29260DOD     C131599  15.421  12.102  14.294  0.1631 -0.2560 -0.1710
29260DOD     C231600  14.978  12.078  14.343 -0.1351  0.3459 -0.3974
29260DOD     C331601  14.683  12.414  14.180 -0.0910 -0.0041  0.6111
29261DOD     C131602  28.488   3.789   0.291  0.0224 -0.1881  0.5049
29261DOD     C231603  28.301   3.474   0.575 -0.0314 -0.0225  0.2121
29261DOD     C331604  28.227   3.181   0.950 -0.0392 -0.1329 -0.0915
29262DOD     C131605   5.616   5.742   3.642  0.3005  0.0329  0.1320
29262DOD     C231606   5.927   6.091   3.444  0.2967 -0.1378  0.0974
29262DOD     C331607   5.976   6.566   3.453  0.3458  0.0108 -0.0508
29263DOD     C131608  14.726   5.340  23.624  0.0279  0.0738 -0.4290
29263DOD     C231609  14.973   5.139  23.260  0.0074 -0.0311  0.1815
29263DOD     C331610  14.982   4.687  23.009 -0.1063 -0.1398 -0.3103
29264DOD     C131611  26.314  17.603  11.636  0.2010 -0.1060  0.3337
29264DOD     C231612  26.597  17.286  11.439 -0.0470  0.3677  0.0755
29264DOD     C331613  26.712  16.925  11.264  0.0000 -0.2491 -0.3123
29265DOD     C131614   1.275  12.531  20.671  0.0906 -0.0710  0.2140
29265DOD     C231615   1.160  12.633  20.199 -0.3248 -0.1316  0.0540
29265DOD     C331616   0.878  12.977  20.028 -0.0843 -0.0807  0.1555
29266DOD     C131617   5.114  28.367   4.275 -0.0445  0.0951  0.0013
29266DOD     C231618   4.999  28.354   4.767  0.1225  0.0387 -0.0749
29266DOD     C331619   5.259  28.692   5.040 -0.0257  0.1426  0.2162
29267DOD     C131620  18.346  21.302   1.115  0.1767  0.1340 -0.0164
29267DOD     C231621  18.603  21.006   1.179 -0.0705  0.1259 -0.2325
29267DOD     C331622  18.500  20.559   1.376  0.1116 -0.2964  0.3008
29268DOD     C131623  17.816  29.382  25.946 -0.1403 -0.0807  0.1903
29268DOD     C231624  18.094  29.419  25.602  0.1295  0.0696 -0.1301
29268DOD     C331625  18.521  29.272  25.395  0.0608 -0.0963 -0.3339
29269DOD     C131626  23.756  10.400  24.281 -0.1650 -0.2084  0.0262
29269DOD     C231627  23.436  10.704  24.531  0.4645 -0.1743  0.2997
29269DOD     C331628  22.980  10.672  24.689 -0.2585  0.1348  0.1788
29270DOD     C131629   3.369  13.440  18.907 -0.0510  0.1549  0.2567
29270DOD     C231630   3.475  13.099  19.189  0.0222 -0.1032 -0.1345
29270DOD     C331631   3.772  12.681  19.242 -0.0026  0.1704  0.0264
29271DOD     C131632   6.253  18.812  15.932 -0.2027 -0.2543 -0.2537
29271DOD     C231633   6.526  18.540  16.082  0.1045  0.0523 -0.0940
29271DOD     C331634   6.800  18.176  15.951 -0.0313 -0.0108 -0.0683
29272DOD     C131635  13.727   8.367  14.268  0.0937  0.3311  0.2926
29272DOD     C231636  13.400   8.609  14.132 -0.1060  0.1269  0.1255
29272DOD     C331637  12.940   8.649  14.197 -0.2703  0.0042 -0.1446
29273DOD     C131638   5.077   3.425  28.345  0.0482 -0.1186 -0.0289
29273DOD     C231639   4.921   3.117  28.656 -0.0926  0.2672  0.1092
29273DOD     C331640   4.851   2.782  28.966  0.0079 -0.1516  0.1063
29274DOD     C131641  26.878  12.402  18.515  0.5272  0.0685  0.3303
29274DOD     C231642  26.519  12.685  18.756  0.1476 -0.3349  0.1934
29274DOD     C331643  26.035  12.657  18.717  0.2013  0.2491  0.3106
29275DOD     C131644  28.906  22.637  10.394 -0.1347 -0.0475 -0.2057
29275DOD     C231645  29.279  22.384  10.289  0.1510 -0.1444  0.2055
29275DOD     C331646  29.587  22.174  10.059  0.3994 -0.2142 -0.0685
29276DOD     C131647   5.863  26.925  24.564 -0.1295 -0.0716 -0.1438
29276DOD     C231648   5.757  27.208  24.892 -0.0223 -0.0420  0.2296
29276DOD     C331649   6.013  27.415  25.247 -0.2337 -0.0389  0.0126
29277DOD     C131650  23.600   1.775  25.938 -0.3449 -0.1254  0.2645
29277DOD     C231651  23.640   1.977  26.372  0.0776  0.2435 -0.0942
29277DOD     C331652  23.901   1.908  26.723 -0.3123 -0.1953  0.0207
29278DOD     C131653   1.910  15.925  16.330  0.1575 -0.0953 -0.0417
29278DOD     C231654   2.079  16.251  16.089  0.2621 -0.0621 -0.0042
29278DOD     C331655   2.346  16.647  16.154 -0.2353 -0.2382 -0.1911
29279DOD     C131656   4.668  30.202   8.637  0.0204 -0.0546  0.2531
29279DOD     C231657   4.856   0.293   8.708 -0.1688 -0.0070  0.1976
29279DOD     C331658   5.134   0.610   8.612 -0.3134 -0.0794  0.1908
29280DOD     C131659  13.011  20.143  30.066  0.1320  0.2612  0.0452
29280DOD     C231660  12.669  19.960   0.075 -0.1201  0.3006  0.3389
29280DOD     C331661  12.258  20.002   0.247  0.3055  0.1487 -0.3604
29281DOD     C131662   2.083  19.259  21.271 -0.0031  0.0345  0.3465
29281DOD     C231663   2.375  19.354  20.921 -0.0116  0.2932 -0.2446
29281DOD     C331664   2.432  19.517  20.547  0.0121 -0.2203 -0.0538
29282DOD     C131665  24.920   8.171  19.066 -0.2276 -0.0231 -0.2969
29282DOD     C231666  24.981   8.645  19.129 -0.2163  0.3923  0.0970
29282DOD     C331667  25.064   9.071  19.086  0.0980  0.1021  0.1907
29283DOD     C131668  15.032   1.262  19.232  0.0235 -0.1380 -0.1310
29283DOD     C231669  15.346   1.220  19.556 -0.0430 -0.2562  0.2889
29283DOD     C331670  15.760   1.355  19.699  0.0959 -0.1463  0.1588
29284DOD     C131671  16.448  29.893  16.838 -0.1358 -0.1191  0.2998
29284DOD     C231672  16.273  29.457  16.810  0.2015  0.4159  0.2004
29284DOD     C331673  16.379  29.066  16.633  0.1365 -0.0353  0.0898
29285DOD     C131674  26.404   6.447  22.658  0.1959 -0.1105  0.1256
29285DOD     C231675  26.329   6.101  22.351 -0.0352 -0.1278  0.3182
29285DOD     C331676  26.152   5.633  22.310 -0.2530  0.0596  0.0484
29286DOD     C131677   1.778  23.847  14.176 -0.1608 -0.2612  0.3093
29286DOD     C231678   1.901  23.565  13.852  0.1622 -0.3168 -0.2719
29286DOD     C331679   1.692  23.197  13.662 -0.0687 -0.3272 -0.0904
29287DOD     C131680   3.424  10.089  20.427  0.1764  0.0091 -0.2838
29287DOD     C231681   3.245  10.456  20.645  0.1665  0.0763  0.2105
29287DOD     C331682   3.238  10.910  20.715 -0.1175  0.1710 -0.0738
29288DOD     C131683  24.444  23.064  26.655  0.1391 -0.0408 -0.1976
29288DOD     C231684  24.548  22.582  26.658  0.2197  0.0784  0.0029
29288DOD     C331685  24.792  22.340  26.362 -0.2210  0.2643 -0.0101
29289DOD     C131686  29.944  13.219   3.501 -0.0499 -0.0456  0.1727
29289DOD     C231687  30.065  13.514   3.769 -0.1185  0.1647 -0.0278
29289DOD     C331688  30.076  13.915   4.004 -0.0536  0.1196  0.1581
29290DOD     C131689   3.087  10.716  11.250  0.3231  0.1025 -0.0449
29290DOD     C231690   2.905  10.552  11.634  0.1949 -0.0636 -0.4084
29290DOD     C331691   3.053  10.537  12.077  0.0252 -0.0395  0.2220
29291DOD     C131692  23.938   1.455  14.659  0.0262  0.5820  0.0761
29291DOD     C231693  23.842   1.906  14.648 -0.3010  0.3290 -0.0207
29291DOD     C331694  23.397   2.093  14.627 -0.0384  0.0855 -0.2137
29292DOD     C131695   9.174  10.951   0.906  0.1814 -0.1975  0.1601
29292DOD     C231696   9.614  10.868   0.936 -0.3787  0.1618 -0.0986
29292DOD     C331697  10.086  10.934   0.967  0.1974 -0.0456  0.2463
29293DOD     C131698  26.671  15.866  19.197  0.1698 -0.0380  0.2622
29293DOD     C231699  26.594  15.433  19.260 -0.0843  0.0994  0.0328
29293DOD     C331700  26.755  15.087  18.961  0.1620 -0.0438  0.2936
29294DOD     C131701  22.492   1.212   1.818  0.1939  0.0188  0.2796
29294DOD     C231702  22.202   1.209   1.462 -0.0548 -0.1444  0.2825
29294DOD     C331703  21.744   1.191   1.454 -0.2427 -0.1335  0.2144
29295DOD     C131704   8.190  26.410  14.421 -0.1479  0.0140 -0.2654
29295DOD     C231705   8.409  26.220  14.069 -0.1168  0.0499 -0.0100
29295DOD     C331706   8.844  26.185  13.858  0.2510  0.2686 -0.0132
29296DOD     C131707  20.435  17.032  14.603 -0.1361  0.1212  0.1630
29296DOD     C231708  20.073  17.331  14.450 -0.1909 -0.0031 -0.0314
29296DOD     C331709  19.790  17.680  14.324  0.0376 -0.3256 -0.2249
29297DOD     C131710  26.256  20.782   3.301  0.2337  0.2337 -0.1511
29297DOD     C231711  26.699  20.725   3.353  0.2185 -0.1325 -0.2138
29297DOD     C331712  27.142  20.718   3.447  0.0087 -0.2554 -0.1206
29298DOD     C131713   3.753  24.964   9.598  0.1781 -0.0949 -0.0999
29298DOD     C231714   3.752  25.055   9.117 -0.0925 -0.1119 -0.0636
29298DOD     C331715   3.513  25.139   8.763 -0.0097  0.0243 -0.0167
29299DOD     C131716  17.885  28.992  26.843 -0.2585  0.0175 -0.1704
29299DOD     C231717  18.127  29.023  27.220  0.0368  0.0931 -0.0032
29299DOD     C331718  18.103  29.247  27.600  0.1565 -0.1504 -0.0440
29300DOD     C131719  29.529  28.505   8.033  0.2306  0.0990 -0.0730
29300DOD     C231720  29.114  28.738   8.109  0.1182  0.1994 -0.0766
29300DOD     C331721  28.639  28.826   8.264  0.0581  0.0823  0.1118
29301DOD     C131722   6.364  11.419  19.681  0.0861  0.1687 -0.0371
29301DOD     C231723   6.617  11.637  19.990  0.0054 -0.1832  0.1895
29301DOD     C331724   6.832  12.063  19.941  0.1040  0.0241 -0.0289
29302DOD     C131725  23.389  21.857  27.992  0.1258  0.0712 -0.0672
29302DOD     C231726  23.247  21.587  28.322 -0.0939  0.0133  0.0872
29302DOD     C331727  22.953  21.164  28.358 -0.3957 -0.0662  0.0872
29303DOD     C131728   2.152  19.243  22.595  0.0255  0.1227 -0.1559
29303DOD     C231729   2.276  19.603  22.281  0.4834 -0.0169  0.0867
29303DOD     C331730   2.245  20.017  22.039 -0.1645  0.3157  0.0337
29304DOD     C131731  21.080  27.596  24.112 -0.0985  0.0226  0.1113
29304DOD     C231732  21.378  27.499  23.734 -0.0556 -0.0194 -0.0361
29304DOD     C331733  21.487  27.677  23.323 -0.0259 -0.2300 -0.1186
29305DOD     C131734  19.096   6.201  19.702  0.0093 -0.2451  0.0150
29305DOD     C231735  19.251   5.906  20.009  0.3351  0.4604 -0.1115
29305DOD     C331736  19.125   6.016  20.451 -0.3482 -0.1455 -0.0665
29306DOD     C131737  18.439  27.920  17.886  0.0671  0.2494 -0.2849
29306DOD     C231738  18.855  27.743  17.929 -0.0791 -0.0367 -0.0261
29306DOD     C331739  19.217  27.454  17.933 -0.2194 -0.3173 -0.1286
29307DOD     C131740   9.182   2.998  26.345 -0.0323 -0.0218  0.1426
29307DOD     C231741   9.280   3.434  26.514  0.1832 -0.2003  0.2751
29307DOD     C331742   9.145   3.763  26.806 -0.4439  0.1433 -0.1981
29308DOD     C131743  28.982  26.528   3.961 -0.2781 -0.0567  0.1176
29308DOD     C231744  28.605  26.271   4.037  0.0470 -0.1007 -0.1853
29308DOD     C331745  28.105  26.224   4.207 -0.0928  0.0884 -0.0168
29309DOD     C131746  15.102  25.023  24.919  0.0313  0.0332 -0.1097
29309DOD     C231747  15.429  25.175  24.690 -0.0724 -0.2760  0.1132
29309DOD     C331748  15.476  25.584  24.557  0.1242 -0.1595 -0.2065
29310DOD     C131749  30.145   9.920  18.098 -0.1583 -0.0596 -0.1592
29310DOD     C231750   0.095   9.493  17.999  0.1424  0.0365 -0.3573
29310DOD     C331751   0.351   9.178  18.263 -0.2512  0.0609  0.0151
29311DOD     C131752  13.343  10.269  20.145  0.2046 -0.1013  0.0068
29311DOD     C231753  13.666  10.552  19.985  0.0940  0.2715 -0.0475
29311DOD     C331754  14.003  10.832  20.191  0.1595 -0.0962  0.2297
29312DOD     C131755  30.100  15.932  14.371 -0.1933  0.1796 -0.0892
29312DOD     C231756  29.628  15.943  14.529 -0.1914  0.0789  0.1475
29312DOD     C331757  29.185  16.028  14.508  0.0899  0.1109  0.1548
29313DOD     C131758  18.150   0.917  29.450 -0.2081  0.1701 -0.1628
29313DOD     C231759  18.518   0.703  29.308  0.0535  0.2604 -0.0772
29313DOD     C331760  19.022   0.754  29.414  0.0629  0.2338 -0.0479
29314DOD     C131761  15.267  26.339  27.194  0.0986 -0.1745  0.0909
29314DOD     C231762  15.177  26.543  27.626 -0.2266 -0.1046  0.3139
29314DOD     C331763  15.432  26.848  27.888  0.2938 -0.0709  0.2673
29315DOD     C131764  19.446  27.141  18.953  0.0310  0.2944  0.1936
29315DOD     C231765  19.853  27.074  18.730  0.1774 -0.0179 -0.1229
29315DOD     C331766  20.067  27.490  18.648 -0.0482  0.2173  0.2908
29316DOD     C131767  25.515  20.099  25.059  0.1373 -0.0804  0.0696
29316DOD     C231768  25.672  20.280  24.696 -0.2566  0.2429  0.1031
29316DOD     C331769  25.738  20.299  24.209  0.4325 -0.1651  0.1265
29317DOD     C131770  27.292  15.673  27.417  0.0018  0.0235  0.4225
29317DOD     C231771  26.994  15.892  27.715  0.0919  0.2509  0.0240
29317DOD     C331772  26.868  16.333  27.881 -0.0200  0.3613  0.1104
29318DOD     C131773  15.495   4.021  13.858 -0.1446  0.1070  0.0064
29318DOD     C231774  15.804   3.657  13.931  0.2459  0.0168 -0.0711
29318DOD     C331775  16.124   3.566  14.166 -0.1228  0.1891 -0.0050
29319DOD     C131776  26.072  14.774  11.931 -0.1929  0.2968 -0.0811
29319DOD     C231777  26.266  15.057  12.233 -0.2385 -0.0617  0.3391
29319DOD     C331778  26.222  15.144  12.631 -0.3281 -0.3686 -0.0708
29320DOD     C131779  13.534  12.466  23.406 -0.2815  0.0461  0.2767
29320DOD     C231780  13.080  12.351  23.347  0.0567  0.0176  0.0594
29320DOD     C331781  12.659  12.217  23.364 -0.0262 -0.0376  0.0400
29321DOD     C131782  27.857   2.862   8.484  0.1205 -0.1098 -0.1697
29321DOD     C231783  27.751   3.301   8.717  0.0550  0.0647 -0.4170
29321DOD     C331784  27.627   3.704   8.802  0.0080  0.3751  0.0517
29322DOD     C131785  20.950  29.043   3.848  0.0001  0.1147  0.0922
29322DOD     C231786  21.332  28.783   3.904 -0.1264 -0.2049  0.0553
29322DOD     C331787  21.516  28.350   4.015  0.3074 -0.0146  0.0867
29323DOD     C131788  23.558  20.427  30.111 -0.1915 -0.0569 -0.1180
29323DOD     C231789  23.445  20.621  29.660 -0.1129 -0.1928  0.2500
29323DOD     C331790  23.508  20.942  29.248  0.0775  0.2160  0.3454
29324DOD     C131791  11.256  30.064  20.350  0.3227 -0.0483  0.0706
29324DOD     C231792  11.094   0.092  20.130  0.0200  0.0246  0.1545
29324DOD     C331793  11.038   0.288  19.708 -0.2469  0.2350 -0.1624
29325DOD     C131794  29.780   4.673   7.349 -0.0282 -0.0931 -0.0043
29325DOD     C231795  29.553   4.614   7.000 -0.1203  0.1984  0.1156
29325DOD     C331796  29.104   4.462   6.911  0.0262  0.3921  0.0757
29326DOD     C131797   4.757  25.688  22.892 -0.1564 -0.0688 -0.1401
29326DOD     C231798   5.125  25.422  22.732  0.3688 -0.2663  0.2474
29326DOD     C331799   5.537  25.373  22.654  0.0930 -0.1534  0.0970
29327DOD     C131800  11.823   0.193  23.034 -0.1902 -0.0006  0.0470
29327DOD     C231801  11.515   0.551  23.172  0.0808  0.4632  0.3092
29327DOD     C331802  11.546   0.962  23.423 -0.0090  0.2098  0.0802
29328DOD     C131803   2.829   5.146  21.674 -0.0072 -0.0488 -0.1988
29328DOD     C231804   2.472   5.457  21.771 -0.0054 -0.4751  0.1814
29328DOD     C331805   2.146   5.811  21.939 -0.0042  0.2272 -0.0723
29329DOD     C131806   4.576  27.007   1.762 -0.0052 -0.0257 -0.0160
29329DOD     C231807   4.850  27.326   1.619  0.1928  0.2303  0.2026
29329DOD     C331808   4.840  27.762   1.477  0.0559 -0.1718 -0.2310
29330DOD     C131809   7.720   4.905   4.284  0.0881  0.0677  0.0412
29330DOD     C231810   8.117   5.165   4.154 -0.2814  0.1569 -0.1054
29330DOD     C331811   8.261   5.265   4.581 -0.2504 -0.2707  0.0164
29331DOD     C131812  27.726  28.414   6.422 -0.1177  0.0057  0.0094
29331DOD     C231813  27.430  28.004   6.351  0.1144  0.2480  0.3832
29331DOD     C331814  27.204  27.683   6.120 -0.0781  0.0863  0.1606
29332DOD     C131815  20.183  22.936   4.505  0.0107  0.0338 -0.0739
29332DOD     C231816  20.197  23.392   4.334  0.2289 -0.1115 -0.3147
29332DOD     C331817  19.956  23.683   4.065  0.1505 -0.1653  0.3305
29333DOD     C131818   8.096  18.444  12.567  0.0438 -0.0483 -0.1746
29333DOD     C231819   8.255  17.987  12.674  0.3155 -0.1273 -0.0698
29333DOD     C331820   8.236  17.414  12.599  0.1202 -0.1776  0.1038
29334DOD     C131821  25.263   0.385   3.879 -0.0405  0.2158  0.1158
29334DOD     C231822  25.451   0.802   4.010 -0.0928 -0.4169 -0.0438
29334DOD     C331823  25.215   1.188   3.783 -0.0133 -0.0074  0.0289
29335DOD     C131824  29.576  20.518  24.349  0.0994 -0.0128 -0.2444
29335DOD     C231825  29.148  20.691  24.525  0.1801  0.0814  0.4686
29335DOD     C331826  28.724  20.731  24.726  0.0938  0.0492 -0.0955
29336DOD     C131827  26.534  30.050  12.959  0.1748 -0.1353 -0.0520
29336DOD     C231828  26.191  30.227  13.189 -0.5307  0.0107 -0.1238
29336DOD     C331829  25.746  30.136  13.197  0.1730  0.1675 -0.2233
29337DOD     C131830  21.774  18.496   2.729  0.1030  0.0283  0.1942
29337DOD     C231831  21.432  18.617   3.037 -0.1869  0.0568 -0.0968
29337DOD     C331832  21.010  18.510   2.936  0.0192  0.1555 -0.0100
29338DOD     C131833   8.685   3.940   0.185 -0.0727 -0.1576 -0.0451
29338DOD     C231834   8.667   3.633  30.144  0.1800 -0.3152  0.0195
29338DOD     C331835   8.457   3.463  29.730  0.3849  0.1339  0.0653
29339DOD     C131836   5.920  14.379  12.668 -0.1219 -0.0749  0.2455
29339DOD     C231837   5.705  14.010  12.519 -0.2317  0.1596 -0.2602
29339DOD     C331838   5.670  13.675  12.172  0.1430  0.1676 -0.3470
29340DOD     C131839  23.562  19.995  27.503 -0.0552  0.0933  0.0976
29340DOD     C231840  23.260  19.752  27.229  0.1052  0.1088 -0.3447
29340DOD     C331841  22.913  19.609  26.925  0.0487  0.0493  0.2519
29341DOD     C131842  15.115  16.820  10.498  0.1172  0.0530  0.2028
29341DOD     C231843  14.938  17.164  10.794  0.1245 -0.0882 -0.0477
29341DOD     C331844  14.660  17.299  11.096 -0.0825  0.0750  0.0453
29342DOD     C131845  16.512  25.012  25.326 -0.2410 -0.0346  0.0748
29342DOD     C231846  16.468  24.947  24.857 -0.2308  0.0178  0.1612
29342DOD     C331847  16.651  24.953  24.407 -0.0036 -0.2363 -0.1511
29343DOD     C131848  10.589  25.114  19.720 -0.1453 -0.1616 -0.1888
29343DOD     C231849  10.668  24.786  20.023  0.1214 -0.0181  0.0548
29343DOD     C331850  10.670  24.379  20.305 -0.0654  0.3523  0.0578
29344DOD     C131851   7.065  19.950  13.229  0.2660  0.1607  0.3223
29344DOD     C231852   6.893  20.181  13.630  0.3087  0.5198 -0.1431
29344DOD     C331853   6.888  20.507  13.950  0.1115 -0.1468  0.0295
29345DOD     C131854  15.671   9.642  25.651 -0.2036 -0.1937  0.0540
29345DOD     C231855  16.036   9.683  25.359 -0.1099 -0.1148 -0.0964
29345DOD     C331856  16.479   9.822  25.286  0.2039  0.0517 -0.0482
29346DOD     C131857  13.338   4.799  22.579  0.1914  0.0962 -0.0322
29346DOD     C231858  13.703   4.533  22.824 -0.1042  0.1826 -0.2076
29346DOD     C331859  13.888   4.098  22.831 -0.0110 -0.0127 -0.1357
29347DOD     C131860  22.327   1.252   8.529  0.2641  0.2341 -0.2579
29347DOD     C231861  22.728   0.967   8.635 -0.4228 -0.0473  0.4406
29347DOD     C331862  23.091   0.851   8.974  0.2187 -0.0790  0.0105
29348DOD     C131863  20.922  28.821  18.368 -0.2115 -0.2121  0.1433
29348DOD     C231864  20.532  29.103  18.454  0.0744 -0.0564 -0.1174
29348DOD     C331865  20.111  29.021  18.647  0.0645 -0.2190 -0.0174
29349DOD     C131866  29.393  17.495  29.078  0.3112 -0.0464 -0.2235
29349DOD     C231867  29.552  17.947  29.004 -0.1580  0.2803 -0.1044
29349DOD     C331868  29.654  18.361  29.093  0.3002 -0.0230  0.0602
29350DOD     C131869   3.711  19.279   2.515  0.1689  0.2193 -0.1521
29350DOD     C231870   3.746  19.736   2.607 -0.0519  0.1188  0.0622
29350DOD     C331871   3.808  20.140   2.853 -0.1041  0.1000 -0.1469
29351DOD     C131872  16.238  13.125  15.419 -0.1275  0.0376  0.4578
29351DOD     C231873  15.883  13.382  15.542  0.1253  0.1272 -0.2236
29351DOD     C331874  15.776  13.492  16.002 -0.1931  0.0592  0.1757
29352DOD     C131875  19.885   4.011  22.002 -0.1845 -0.0291  0.0865
29352DOD     C231876  19.927   3.522  21.928 -0.2675 -0.1492  0.2210
29352DOD     C331877  19.844   3.153  21.628  0.3211  0.1279  0.1645
29353DOD     C131878   2.612   1.781  26.904  0.1429 -0.3389 -0.1509
29353DOD     C231879   2.588   1.443  26.519  0.0434  0.0170  0.1652
29353DOD     C331880   2.874   1.132  26.399 -0.2596  0.0735 -0.1203
29354DOD     C131881  10.992  20.817  10.465 -0.1739  0.1084 -0.1760
29354DOD     C231882  10.867  20.571  10.149  0.3055  0.1139 -0.0275
29354DOD     C331883  10.514  20.156  10.146  0.0873  0.1606  0.0847
29355DOD     C131884  14.440  14.413  27.952 -0.0827 -0.2041  0.2935
29355DOD     C231885  14.067  14.664  28.061 -0.1533 -0.4201 -0.0149
29355DOD     C331886  13.879  15.071  27.922 -0.2279  0.2027 -0.0661
29356DOD     C131887   9.768  28.185  10.857  0.0520  0.3470  0.2521
29356DOD     C231888   9.739  28.559  10.563  0.2181 -0.0579  0.1204
29356DOD     C331889   9.402  28.902  10.480 -0.1274 -0.4663 -0.2132
29357DOD     C131890  17.272   8.055  21.203  0.2457  0.0992 -0.2746
29357DOD     C231891  17.064   7.669  21.051 -0.2606 -0.0825 -0.1916
29357DOD     C331892  17.180   7.231  20.861 -0.1073  0.2038  0.2892
29358DOD     C131893  27.468  23.618  14.207  0.3627  0.1084  0.0882
29358DOD     C231894  27.830  23.874  14.258  0.2091 -0.1297  0.0135
29358DOD     C331895  28.197  24.089  14.190 -0.1736 -0.1739 -0.0150
29359DOD     C131896  27.465  22.415   5.213  0.1131  0.3010  0.1347
29359DOD     C231897  27.195  22.234   4.872  0.0331 -0.1702 -0.0567
29359DOD     C331898  27.220  22.162   4.449 -0.0442  0.0579 -0.0517
29360DOD     C131899   8.432  24.247  26.500 -0.2490  0.0400  0.0118
29360DOD     C231900   8.158  24.676  26.398 -0.2631 -0.0390  0.0459
29360DOD     C331901   7.875  24.972  26.253  0.0127 -0.3058  0.4631
29361DOD     C131902  14.997  14.984   4.752  0.1116  0.0813 -0.0642
29361DOD     C231903  14.741  14.574   4.675  0.0270 -0.1973  0.0364
29361DOD     C331904  14.627  14.141   4.689  0.0461 -0.0515 -0.0413
29362DOD     C131905  18.024  14.550   0.322  0.2543  0.2888  0.1254
29362DOD     C231906  18.355  14.596   0.632 -0.0812  0.3841  0.2168
29362DOD     C331907  18.690  14.425   0.856  0.0816 -0.0349 -0.3836
29363DOD     C131908   5.894  23.583   1.152 -0.1237  0.2745 -0.4218
29363DOD     C231909   6.153  23.783   0.855 -0.2287 -0.0032  0.0041
29363DOD     C331910   6.095  23.888   0.440  0.2513 -0.1228 -0.2882
29364DOD     C131911   8.886  15.982   1.150 -0.0560 -0.0076 -0.3601
29364DOD     C231912   9.217  16.061   0.888 -0.0652  0.4396  0.2271
29364DOD     C331913   9.616  16.227   0.674  0.3610  0.0458  0.3732
29365DOD     C131914   8.031  29.038   1.610 -0.3595  0.0961 -0.0038
29365DOD     C231915   8.093  29.313   1.223  0.3276 -0.2513 -0.1122
29365DOD     C331916   8.172  29.757   1.374  0.3644 -0.1335  0.1279
29366DOD     C131917   2.662  29.529   8.269 -0.1090 -0.2513  0.0993
29366DOD     C231918   3.073  29.740   8.154 -0.1404 -0.0140  0.2363
29366DOD     C331919   3.147  30.077   7.847 -0.3404  0.0861  0.2545
29367DOD     C131920  14.420   5.468   8.605 -0.2951  0.3832 -0.1025
29367DOD     C231921  14.502   5.654   9.039 -0.0234 -0.1181  0.1079
29367DOD     C331922  14.660   5.618   9.422  0.0161  0.1678 -0.0828
29368DOD     C131923  20.000  26.266  14.636  0.2202  0.0465 -0.1920
29368DOD     C231924  19.997  25.787  14.714  0.0008 -0.1193  0.1508
29368DOD     C331925  19.857  25.310  14.676 -0.1950  0.0711  0.0487
29369DOD     C131926   0.312   3.866  22.103 -0.0107  0.0791  0.1141
29369DOD     C231927   0.184   3.524  21.827 -0.1745 -0.2608 -0.1130
29369DOD     C331928   0.206   3.206  21.502 -0.0139  0.2069  0.1215
29370DOD     C131929  23.081  27.244  29.909 -0.0516 -0.2626 -0.1675
29370DOD     C231930  23.234  27.329   0.036  0.0275 -0.1622 -0.0194
29370DOD     C331931  23.020  27.439   0.459  0.2341  0.0452 -0.1935
29371DOD     C131932  14.082  25.005  27.493  0.0631 -0.2055 -0.0524
29371DOD     C231933  14.558  24.950  27.394  0.0154  0.0195 -0.1839
29371DOD     C331934  15.028  24.887  27.469 -0.2336 -0.2302 -0.2882
29372DOD     C131935  10.110  17.174   6.640  0.3160 -0.0048 -0.0386
29372DOD     C231936  10.395  17.349   6.895  0.0436  0.0359  0.1903
29372DOD     C331937  10.620  17.678   7.063  0.0377  0.1058  0.0676
29373DOD     C131938   3.358   2.912   9.355 -0.1131 -0.1191 -0.0097
29373DOD     C231939   2.946   2.737   9.226 -0.0265 -0.0770 -0.2575
29373DOD     C331940   2.466   2.921   9.225  0.0541  0.2747  0.1884
29374DOD     C131941  15.267   5.522   0.976  0.1887 -0.2161 -0.0852
29374DOD     C231942  14.818   5.440   0.896 -0.1660 -0.0896  0.0349
29374DOD     C331943  14.451   5.539   1.099 -0.1459 -0.0981 -0.1913
29375DOD     C131944  27.731  27.851  24.849 -0.1666  0.0688 -0.0926
29375DOD     C231945  27.247  27.722  25.000  0.1479  0.0243 -0.2517
29375DOD     C331946  26.824  27.968  25.131  0.1582 -0.1983  0.0112
29376DOD     C131947  23.865  19.542   9.533 -0.0644 -0.0113  0.1592
29376DOD     C231948  24.258  19.739   9.464  0.3472  0.0332 -0.1499
29376DOD     C331949  24.524  19.775   9.091 -0.0561  0.0691  0.1399
29377DOD     C131950  22.717  18.070  12.948 -0.1176 -0.1234  0.0711
29377DOD     C231951  22.578  17.901  12.535 -0.0287 -0.4633 -0.0560
29377DOD     C331952  22.099  17.935  12.488 -0.0799 -0.0098  0.0135
29378DOD     C131953  10.250   4.526  22.709 -0.0522  0.1062  0.0394
29378DOD     C231954   9.882   4.447  23.043  0.4497 -0.0440  0.0979
29378DOD     C331955   9.561   4.117  23.031  0.2328 -0.0512  0.2172
29379DOD     C131956  13.781  23.598  14.914 -0.0033 -0.0867  0.0202
29379DOD     C231957  13.477  23.937  14.883 -0.0389 -0.3143  0.1053
29379DOD     C331958  13.174  24.242  15.031  0.1508 -0.1715  0.3165
29380DOD     C131959  20.524  18.082  15.810 -0.3710  0.2474 -0.0259
29380DOD     C231960  20.226  18.290  15.570 -0.3929 -0.0857 -0.0976
29380DOD     C331961  20.068  18.663  15.362 -0.0506 -0.0099 -0.0616
29381DOD     C131962  15.044  11.785  27.514 -0.1426 -0.1660  0.3252
29381DOD     C231963  14.875  12.098  27.890 -0.0564  0.0364 -0.2252
29381DOD     C331964  14.656  12.090  28.328  0.0526  0.0532  0.2556
29382DOD     C131965   3.460   2.146  24.336 -0.1263 -0.0927  0.1105
29382DOD     C231966   3.639   2.549  24.512 -0.0445 -0.0771  0.0312
29382DOD     C331967   3.931   2.885  24.629  0.0079 -0.0656 -0.0345
29383DOD     C131968  11.006  14.208  22.694 -0.2257  0.1676 -0.0923
29383DOD     C231969  11.197  13.799  22.834 -0.0536  0.1393 -0.0795
29383DOD     C331970  11.487  13.451  22.816  0.1419  0.0402 -0.2437
29384DOD     C131971  14.276  10.300   8.897  0.1898 -0.3102  0.0679
29384DOD     C231972  14.451  10.322   9.305  0.2838  0.0250 -0.0816
29384DOD     C331973  14.609  10.131   9.731  0.0326 -0.0195 -0.1314
29385DOD     C131974  10.036  21.874  13.964  0.2168  0.0062  0.0242
29385DOD     C231975   9.848  22.223  14.121 -0.4101 -0.1423  0.0840
29385DOD     C331976   9.489  22.461  14.064 -0.0359 -0.2986  0.0407
29386DOD     C131977   4.171  17.760  18.974 -0.1274  0.1916  0.0018
29386DOD     C231978   4.600  17.883  18.870  0.2436  0.1922  0.0683
29386DOD     C331979   4.740  18.294  19.103  0.2593  0.1337  0.0457
29387DOD     C131980   6.355  23.263   7.449 -0.0343 -0.1162 -0.0791
29387DOD     C231981   6.759  23.210   7.222  0.1000  0.1467 -0.1305
29387DOD     C331982   6.951  23.457   6.828 -0.0796  0.0234  0.2371
29388DOD     C131983  20.467  19.804  13.094  0.1143 -0.0927  0.0466
29388DOD     C231984  20.729  19.984  13.434  0.1218  0.0076 -0.0187
29388DOD     C331985  20.768  20.401  13.662  0.1113  0.1083  0.1471
29389DOD     C131986   7.968   0.087  29.048 -0.0858 -0.0875 -0.3448
29389DOD     C231987   7.973  -0.008  28.573  0.2499  0.0099 -0.2317
29389DOD     C331988   7.834  29.991  28.312 -0.1116  0.0867 -0.1647
29390DOD     C131989  16.201  16.046  12.140 -0.2098  0.3069  0.0627
29390DOD     C231990  16.598  16.251  12.351  0.1112 -0.1474 -0.2097
29390DOD     C331991  16.710  16.653  12.652 -0.1407 -0.1144  0.3171
29391DOD     C131992  11.588   3.987  10.654 -0.0162  0.2056 -0.0094
29391DOD     C231993  11.298   4.366  10.515  0.1894  0.4948 -0.0354
29391DOD     C331994  11.444   4.705  10.255 -0.1114  0.0321  0.2780
29392DOD     C131995  16.145  16.483  27.082 -0.1956  0.3738 -0.2424
29392DOD     C231996  16.311  16.914  27.015  0.0776  0.0892 -0.0903
29392DOD     C331997  16.471  17.199  26.700 -0.0918 -0.0123  0.0346
29393DOD     C131998  12.629  24.781  25.556 -0.0852 -0.0038 -0.1785
29393DOD     C231999  12.454  24.909  26.010  0.1130  0.0360  0.3659
29393DOD     C332000  12.373  24.569  26.373 -0.0877 -0.1226  0.2376
29394DOD     C132001   2.474  26.517  27.769 -0.2454 -0.0557  0.2545
29394DOD     C232002   2.572  26.410  27.293 -0.1322  0.1425 -0.3061
29394DOD     C332003   2.615  26.633  26.863  0.0351  0.1191  0.0487
29395DOD     C132004  19.586   5.550  28.718  0.0907 -0.0400 -0.1486
29395DOD     C232005  19.409   5.515  28.257 -0.2202  0.0085  0.0013
29395DOD     C332006  19.463   5.340  27.851 -0.0437  0.0711  0.0091
29396DOD     C132007  20.871  16.800   0.869 -0.0959  0.5095  0.0522
29396DOD     C232008  20.637  17.202   0.807 -0.1879  0.1882 -0.3533
29396DOD     C332009  20.226  17.164   0.579  0.3331 -0.1658 -0.0043
29397DOD     C132010   4.573   1.129  11.288  0.0571  0.2657  0.2015
29397DOD     C232011   4.657   1.219  11.731  0.2626 -0.1125 -0.0334
29397DOD     C332012   4.942   1.266  12.128 -0.0308  0.1424 -0.3721
29398DOD     C132013   2.051  29.383   1.826 -0.1015  0.3523 -0.0731
29398DOD     C232014   2.266  29.438   2.241 -0.0476 -0.3102  0.0833
29398DOD     C332015   2.435  29.332   2.680  0.2554 -0.1479  0.1399
29399DOD     C132016  11.671   3.318  17.270 -0.1356 -0.0628 -0.1953
29399DOD     C232017  11.271   3.517  17.122  0.5663 -0.2328 -0.2356
29399DOD     C332018  10.840   3.550  17.266 -0.0979 -0.1501 -0.0594
29400DOD     C132019  18.814   3.231   8.506 -0.2774 -0.2365  0.0072
29400DOD     C232020  19.114   3.038   8.259  0.1578  0.3115 -0.1389
29400DOD     C332021  19.492   2.742   8.164 -0.1070 -0.1014 -0.0958
29401DOD     C132022  27.508   2.563  14.023 -0.0093 -0.1706  0.1967
29401DOD     C232023  27.816   2.172  14.113 -0.1495 -0.0280 -0.1325
29401DOD     C332024  27.865   1.727  14.107  0.1122  0.3624 -0.1525
29402DOD     C132025  20.806   2.108   5.083 -0.0056  0.0822  0.1662
29402DOD     C232026  21.291   2.165   5.101 -0.1247  0.0144  0.0121
29402DOD     C332027  21.697   1.925   5.125  0.1182  0.0480  0.0511
29403DOD     C132028   3.476  27.130   2.181 -0.0766 -0.2371 -0.0289
29403DOD     C232029   3.233  26.847   2.448  0.1284  0.2432  0.0507
29403DOD     C332030   2.951  26.463   2.639  0.2356 -0.0611  0.3365
29404DOD     C132031  17.193  22.391   3.168  0.1486 -0.2187 -0.0384
29404DOD     C232032  17.474  22.390   3.559  0.2431  0.2239  0.1686
29404DOD     C332033  17.678  22.085   3.802 -0.0016  0.1925 -0.1663
29405DOD     C132034  12.792   6.100  11.877 -0.0325  0.2395  0.2235
29405DOD     C232035  13.047   5.922  11.549  0.1882  0.1369 -0.1846
29405DOD     C332036  13.312   5.744  11.183 -0.0709  0.1552 -0.0905
29406DOD     C132037  30.171   1.944  10.514  0.1391  0.0533 -0.3348
29406DOD     C232038  30.149   2.322  10.148 -0.0829  0.1262 -0.0419
29406DOD     C332039   0.131   2.685  10.003  0.1090  0.0461  0.0154
29407DOD     C132040   8.142   8.977  15.298  0.1602 -0.2735  0.0592
29407DOD     C232041   7.860   8.847  15.660 -0.2678  0.0192  0.3610
29407DOD     C332042   7.392   8.914  15.814  0.0053  0.0029 -0.0176
29408DOD     C132043   6.931  19.171  18.705 -0.2032 -0.1135 -0.1018
29408DOD     C232044   6.834  19.566  19.001  0.3251 -0.0525 -0.1502
29408DOD     C332045   6.706  20.000  19.010 -0.2053 -0.0509 -0.3268
29409DOD     C132046   3.776  11.996  15.471  0.0011 -0.0694 -0.0364
29409DOD     C232047   3.526  12.406  15.493  0.2410 -0.1852 -0.3228
29409DOD     C332048   3.098  12.642  15.531 -0.0005  0.2645 -0.1761
29410DOD     C132049  20.203   0.590   1.312 -0.1741 -0.0066  0.0707
29410DOD     C232050  19.952   0.232   1.200 -0.4281  0.1574 -0.0499
29410DOD     C332051  19.517  -0.005   1.219 -0.0689  0.0107  0.0456
29411DOD     C132052   1.092  29.780   6.523 -0.0300 -0.0067 -0.0863
29411DOD     C232053   1.467  29.689   6.816  0.1682 -0.2292 -0.0682
29411DOD     C332054   1.604  29.301   7.065 -0.1015  0.2025 -0.0939
29412DOD     C132055  10.951  21.973  15.294 -0.0460 -0.4981  0.2195
29412DOD     C232056  10.909  21.877  14.816 -0.3750  0.1869 -0.0485
29412DOD     C332057  11.016  22.023  14.417  0.0333 -0.3472  0.0038
29413DOD     C132058   7.426  29.913  10.801 -0.3502  0.0446 -0.0067
29413DOD     C232059   7.007  29.721  10.638 -0.0422 -0.1648  0.0689
29413DOD     C332060   6.558  29.661  10.512 -0.1093 -0.0400 -0.1754
29414DOD     C132061  24.586  20.959   2.658 -0.0969 -0.2151 -0.1545
29414DOD     C232062  24.352  20.623   2.875  0.0608  0.0696 -0.2463
29414DOD     C332063  24.084  20.298   2.868  0.2719  0.3921  0.0358
29415DOD     C132064  15.444  14.893  12.865 -0.2656  0.0279  0.0529
29415DOD     C232065  15.885  15.090  12.793  0.0125 -0.0572  0.2590
29415DOD     C332066  16.023  15.540  12.938  0.1014  0.0260  0.5029
29416DOD     C132067  29.709  17.889   7.355 -0.0017  0.3678 -0.0105
29416DOD     C232068  29.766  17.588   7.720  0.0270 -0.2350  0.0271
29416DOD     C332069  29.587  17.748   8.160 -0.4122 -0.0309  0.1309
29417DOD     C132070  22.141   2.834   5.797  0.0075 -0.0360 -0.2089
29417DOD     C232071  22.312   2.731   5.387 -0.1997  0.1781 -0.2025
29417DOD     C332072  22.556   2.452   5.218 -0.0452  0.0461 -0.2679
29418DOD     C132073  17.302   2.162   6.361 -0.0707 -0.0854 -0.1401
29418DOD     C232074  17.300   1.671   6.454  0.0512 -0.0474 -0.1579
29418DOD     C332075  17.237   1.249   6.527 -0.1990 -0.3082 -0.1713
29419DOD     C132076  26.117   5.966   1.865  0.0545  0.0301 -0.1613
29419DOD     C232077  25.912   6.282   2.222 -0.0267  0.0410 -0.2126
29419DOD     C332078  26.050   6.346   2.653 -0.1184 -0.3908 -0.1032
29420DOD     C132079  10.507   5.862  11.249 -0.4384  0.0907  0.0809
29420DOD     C232080  10.531   6.316  11.348  0.0156  0.0421 -0.0299
29420DOD     C332081  10.323   6.709  11.496 -0.1345  0.2346 -0.0833
29421DOD     C132082  19.057   2.013  10.375 -0.1682 -0.1850 -0.0001
29421DOD     C232083  18.866   1.627  10.234  0.0208 -0.4982 -0.2041
29421DOD     C332084  18.775   1.521   9.769  0.0789  0.0343  0.0528
29422DOD     C132085  22.441   7.747  28.798 -0.0718 -0.1511 -0.0116
29422DOD     C232086  22.012   7.738  28.602 -0.3077  0.1423  0.0082
29422DOD     C332087  21.648   7.609  28.360  0.2013 -0.0453 -0.2298
29423DOD     C132088  18.610   7.124  10.474 -0.1201 -0.0874  0.0625
29423DOD     C232089  18.874   7.369  10.190  0.0209 -0.3790 -0.1060
29423DOD     C332090  19.100   7.602   9.818 -0.0025  0.0348  0.0303
29424DOD     C132091  21.156   9.356  19.830 -0.0412 -0.0388 -0.2989
29424DOD     C232092  21.239   9.704  19.500  0.0091 -0.0980 -0.4540
29424DOD     C332093  21.025  10.081  19.312 -0.0347  0.0225  0.0574
29425DOD     C132094  17.040  22.005  15.360 -0.1613  0.1132 -0.2593
29425DOD     C232095  16.915  22.201  14.989  0.2961 -0.3688 -0.1738
29425DOD     C332096  16.751  22.551  14.702 -0.1620 -0.0693 -0.2073
29426DOD     C132097  14.222  14.883  18.628 -0.0861 -0.0277  0.1878
29426DOD     C232098  14.606  15.037  18.811 -0.0556 -0.0412 -0.1098
29426DOD     C332099  15.028  15.190  18.957  0.2368 -0.2824 -0.3143
29427DOD     C132100  24.719  30.080  30.297 -0.1014 -0.0292  0.3764
29427DOD     C232101  24.420   0.029   0.252 -0.0743 -0.4184 -0.0486
29427DOD     C332102  24.000  30.292   0.293 -0.0525  0.4118  0.1688
29428DOD     C132103   8.057  26.499  24.204  0.1460 -0.0105 -0.1599
29428DOD     C232104   8.233  26.810  23.892  0.1817  0.0908 -0.2543
29428DOD     C332105   8.388  26.938  23.505 -0.0130 -0.1396  0.0716
29429DOD     C132106  16.409  15.879  27.952 -0.1228  0.4176  0.1415
29429DOD     C232107  16.206  15.669  27.550 -0.3991 -0.1346 -0.4609
29429DOD     C332108  16.006  15.302  27.340  0.0976  0.1452  0.2364
29430DOD     C132109  14.244  21.579  13.910  0.0867  0.0328  0.0252
29430DOD     C232110  14.560  21.883  14.085 -0.0594 -0.1687 -0.0383
29430DOD     C332111  14.976  21.798  14.272 -0.0594 -0.2834  0.0918
29431DOD     C132112   3.097   2.385  19.438  0.0764  0.0381 -0.1513
29431DOD     C232113   3.072   2.684  19.816 -0.0478 -0.0893 -0.2832
29431DOD     C332114   2.679   2.934  20.067 -0.2182 -0.1125  0.0999
29432DOD     C132115  24.645  27.224  19.363 -0.2664 -0.0127 -0.2210
29432DOD     C232116  24.483  27.108  18.976  0.2895  0.1097  0.0758
29432DOD     C332117  24.568  27.165  18.520  0.0556 -0.0988  0.3506
29433DOD     C132118  18.991  11.121   0.441  0.3738 -0.3852 -0.2078
29433DOD     C232119  19.069  11.310   0.835 -0.1154 -0.1637  0.0793
29433DOD     C332120  19.182  11.697   1.082  0.0737  0.1283 -0.1299
29434DOD     C132121   4.338  13.470  24.673 -0.1180  0.0612 -0.2127
29434DOD     C232122   4.213  13.359  24.224 -0.1681  0.0630 -0.1699
29434DOD     C332123   4.001  13.231  23.861 -0.1408 -0.4355  0.0104
29435DOD     C132124  10.115  12.427  10.423 -0.2836 -0.0543 -0.0605
29435DOD     C232125  10.253  12.849  10.547  0.1968 -0.1517 -0.0667
29435DOD     C332126  10.108  13.298  10.555 -0.0685  0.1295 -0.0184
29436DOD     C132127   4.079   8.165  10.355 -0.0514  0.2153  0.0925
29436DOD     C232128   4.164   7.719  10.392 -0.1949  0.0714 -0.3351
29436DOD     C332129   4.418   7.332  10.381 -0.1890  0.1864  0.3518
29437DOD     C132130  21.510  12.541   4.635 -0.1204  0.0370 -0.0103
29437DOD     C232131  21.124  12.216   4.569 -0.1844  0.3199  0.2813
29437DOD     C332132  20.732  12.419   4.658 -0.0947  0.1542  0.2400
29438DOD     C132133  18.393   5.736  13.672  0.1998  0.1285 -0.1109
29438DOD     C232134  18.793   5.989  13.739  0.1058  0.0528 -0.2679
29438DOD     C332135  19.173   6.155  13.913  0.2129 -0.0903  0.1532
29439DOD     C132136   7.784   0.297   6.489 -0.0775  0.1829  0.3083
29439DOD     C232137   7.313   0.405   6.408 -0.1091 -0.1689 -0.1331
29439DOD     C332138   7.167   0.504   5.985  0.1210 -0.0786 -0.1513
29440DOD     C132139   9.722   3.959   1.683  0.1093 -0.2828 -0.0719
29440DOD     C232140   9.877   3.940   2.137 -0.1054 -0.0043 -0.2313
29440DOD     C332141  10.149   4.186   2.457  0.0619  0.0521  0.1433
29441DOD     C132142   8.296  25.133  25.454 -0.0147 -0.0209  0.0789
29441DOD     C232143   8.557  25.345  25.119  0.0785 -0.2279  0.1596
29441DOD     C332144   8.575  25.481  24.667  0.1959 -0.1016 -0.1336
29442DOD     C132145  19.262  12.324  11.460  0.1319 -0.1598 -0.2325
29442DOD     C232146  19.750  12.443  11.617  0.0138 -0.1974  0.4771
29442DOD     C332147  20.221  12.539  11.654  0.0957  0.1135  0.2082
29443DOD     C132148   0.267  30.020  12.908  0.0255  0.0236  0.1958
29443DOD     C232149   0.286  29.725  12.591 -0.0280 -0.0961  0.0918
29443DOD     C332150   0.134  29.329  12.432 -0.2556 -0.0005 -0.4087
29444DOD     C132151  20.271   7.814  17.725 -0.2052 -0.2478  0.1044
29444DOD     C232152  19.999   7.538  17.433  0.1869 -0.0165  0.0371
29444DOD     C332153  19.518   7.583  17.296 -0.1050  0.0235  0.1003
29445DOD     C132154  26.434   7.754  20.284  0.0120 -0.2012 -0.2276
29445DOD     C232155  26.308   7.825  19.866 -0.1819  0.0865  0.0140
29445DOD     C332156  26.175   7.488  19.568 -0.0196 -0.4080  0.0896
29446DOD     C132157   4.879  29.649  15.066 -0.1335  0.4557  0.3223
29446DOD     C232158   5.259  29.901  15.101  0.0714  0.1184 -0.1241
29446DOD     C332159   5.232  30.346  15.297  0.1812  0.1815  0.1214
29447DOD     C132160   3.629   4.393  24.473  0.1262  0.0728  0.2027
29447DOD     C232161   3.686   3.975  24.334 -0.0753 -0.3100  0.0333
29447DOD     C332162   3.761   3.863  23.894  0.4282  0.0829 -0.1145
29448DOD     C132163  21.994  26.777  22.714  0.1572 -0.2539 -0.0507
29448DOD     C232164  21.919  27.132  22.969  0.2183  0.0711  0.2615
29448DOD     C332165  21.471  27.253  23.015 -0.2078  0.0416 -0.0625
29449DOD     C132166  17.558  12.808  26.867 -0.0699 -0.1459  0.1080
29449DOD     C232167  17.978  12.641  26.997  0.0438  0.0892  0.2086
29449DOD     C332168  18.496  12.585  27.005  0.0856  0.0708 -0.1568
29450DOD     C132169   1.610  23.157   5.408 -0.0904  0.2558 -0.0509
29450DOD     C232170   2.080  23.107   5.456  0.3916  0.0871  0.1309
29450DOD     C332171   2.423  22.967   5.761 -0.2289 -0.1482 -0.4350
29451DOD     C132172  17.048  13.531  10.551  0.2289 -0.3235  0.1745
29451DOD     C232173  17.416  13.730  10.600  0.0140 -0.2282  0.0134
29451DOD     C332174  17.839  13.906  10.707  0.1842 -0.1959 -0.0886
29452DOD     C132175   2.689   3.927  14.516  0.2498 -0.1077 -0.1503
29452DOD     C232176   3.076   3.653  14.740  0.1959 -0.3640 -0.0484
29452DOD     C332177   3.275   3.398  15.090 -0.2822 -0.1266 -0.0559
29453DOD     C132178   8.849  16.465  20.296 -0.2828 -0.0485  0.2826
29453DOD     C232179   8.698  16.861  20.468  0.1775  0.0628 -0.1135
29453DOD     C332180   8.357  17.013  20.763  0.1348 -0.1269 -0.3373
29454DOD     C132181  26.560   7.624  13.317  0.2654  0.1075 -0.0132
29454DOD     C232182  26.821   7.218  13.252  0.1552 -0.1057  0.3411
29454DOD     C332183  27.167   7.108  13.563  0.1913 -0.0248 -0.0925
29455DOD     C132184  22.971  14.991  25.756 -0.0714  0.0680 -0.0845
29455DOD     C232185  23.255  14.710  25.493 -0.2019  0.0844  0.0801
29455DOD     C332186  23.243  14.547  25.079 -0.0536  0.0535 -0.0220
29456DOD     C132187   0.888  28.026  26.536 -0.1242 -0.5865 -0.0839
29456DOD     C232188   0.480  27.804  26.378  0.1380 -0.0249  0.1054
29456DOD     C332189   0.096  27.823  26.063  0.1662 -0.1123 -0.0291
29457DOD     C132190   2.434   7.430  15.327 -0.3266  0.2046  0.0037
29457DOD     C232191   2.387   7.648  15.745  0.3312  0.0258  0.0337
29457DOD     C332192   2.226   7.988  15.860 -0.0290 -0.0896 -0.1046
29458DOD     C132193  18.354  28.148  19.464  0.0657 -0.0730 -0.2740
29458DOD     C232194  18.221  27.846  19.188 -0.2334 -0.2758  0.0288
29458DOD     C332195  18.026  27.788  18.772  0.0599  0.1487  0.2328
29459DOD     C132196  24.971  18.147   6.353 -0.0642 -0.0471  0.0343
29459DOD     C232197  24.567  17.990   6.137 -0.1280 -0.0035 -0.1670
29459DOD     C332198  24.176  18.296   6.169 -0.2479 -0.1003  0.1868
29460DOD     C132199  18.732  16.593  10.283 -0.0925 -0.0053 -0.0067
29460DOD     C232200  18.417  16.870  10.514 -0.1944 -0.0713  0.1344
29460DOD     C332201  18.000  17.115  10.580  0.0362 -0.2808  0.3061
29461DOD     C132202  14.641   7.615  12.601 -0.1415 -0.1229 -0.3153
29461DOD     C232203  14.350   7.295  12.772  0.2481  0.2452  0.1907
29461DOD     C332204  13.914   7.129  12.685 -0.1236 -0.1036 -0.1753
29462DOD     C132205   3.207  28.843  11.851  0.3224 -0.0743 -0.3374
29462DOD     C232206   3.236  29.324  11.670  0.1659 -0.2102 -0.4090
29462DOD     C332207   3.021  29.734  11.848  0.0168 -0.2137  0.2635
29463DOD     C132208  17.574  16.099  26.951  0.2430  0.1873 -0.1131
29463DOD     C232209  17.389  16.094  26.526 -0.1021 -0.0825 -0.3143
29463DOD     C332210  17.205  16.155  26.072 -0.1087  0.1484  0.0941
29464DOD     C132211  15.928  23.758  27.613 -0.0285  0.0222 -0.0798
29464DOD     C232212  15.929  23.905  27.173  0.4099 -0.0854 -0.0276
29464DOD     C332213  16.326  24.028  26.964 -0.1032  0.3270  0.1215
29465DOD     C132214   1.520  16.982  22.179 -0.3848  0.0414  0.3157
29465DOD     C232215   1.209  17.113  21.843 -0.3706 -0.0238  0.1107
29465DOD     C332216   0.927  17.414  21.781  0.0793  0.1170  0.1275
29466DOD     C132217   3.685  28.171   7.873 -0.0482  0.1306  0.2346
29466DOD     C232218   4.130  28.182   7.741 -0.0828 -0.1733  0.1868
29466DOD     C332219   4.524  28.324   7.465  0.0339  0.2295  0.0369
29467DOD     C132220   6.411  22.702  30.125 -0.1439 -0.0169 -0.1048
29467DOD     C232221   6.104  22.909  29.833 -0.1119  0.0172 -0.1731
29467DOD     C332222   5.985  23.091  29.426  0.0503 -0.3091 -0.1449
29468DOD     C132223  16.840  10.086  17.729 -0.0577  0.3023  0.1505
29468DOD     C232224  17.214   9.776  17.607 -0.1534  0.1771 -0.0640
29468DOD     C332225  17.357   9.358  17.464 -0.1426 -0.1699 -0.0276
29469DOD     C132226   4.285  23.869  27.866 -0.0849 -0.0349  0.1582
29469DOD     C232227   4.253  23.432  27.880  0.1616  0.1644 -0.4422
29469DOD     C332228   4.195  23.016  27.766 -0.0401  0.3445  0.5900
29470DOD     C132229  20.506   5.444  11.488  0.1845  0.0983 -0.0970
29470DOD     C232230  20.909   5.482  11.260  0.3206 -0.2246 -0.4232
29470DOD     C332231  21.266   5.409  11.003 -0.0457  0.3051  0.2877
29471DOD     C132232  14.117   6.417   4.518  0.4225  0.0140 -0.1617
29471DOD     C232233  14.123   6.040   4.230  0.1084  0.1479  0.0598
29471DOD     C332234  14.156   5.834   3.782  0.2115  0.0736  0.0838
29472DOD     C132235  21.555  16.572  29.874 -0.0452 -0.2842 -0.3068
29472DOD     C232236  21.447  17.048  29.943  0.0509 -0.1148  0.4698
29472DOD     C332237  21.256  17.445  29.791  0.1527 -0.0212  0.1614
29473DOD     C132238   6.279   7.532  18.465  0.2670 -0.0450  0.2216
29473DOD     C232239   6.523   7.630  18.103 -0.2534  0.0362  0.1446
29473DOD     C332240   6.683   7.807  17.649 -0.1904  0.3308 -0.1285
29474DOD     C132241   9.059   0.498  23.892 -0.2612  0.2052  0.0184
29474DOD     C232242   9.268   0.844  24.056  0.3154 -0.2185 -0.1129
29474DOD     C332243   9.089   1.259  24.061 -0.2205  0.0883 -0.0292
29475DOD     C132244   7.452   2.007   0.488 -0.2782  0.0451 -0.3941
29475DOD     C232245   7.556   2.174   0.877 -0.2342 -0.2235  0.2741
29475DOD     C332246   7.498   1.967   1.274 -0.2708  0.0572  0.1116
29476DOD     C132247  19.705  25.498   2.489 -0.3394 -0.2321 -0.1674
29476DOD     C232248  19.443  25.910   2.331 -0.1024 -0.1262  0.1609
29476DOD     C332249  19.201  26.219   2.413  0.2745 -0.1952  0.3946
29477DOD     C132250  28.916  29.010  28.458  0.0032  0.0327 -0.1230
29477DOD     C232251  28.708  29.204  28.022 -0.0302 -0.2970 -0.0679
29477DOD     C332252  28.301  29.443  27.827  0.1360 -0.0096  0.1036
29478DOD     C132253   3.145  16.991  18.139 -0.0523  0.0042 -0.0039
29478DOD     C232254   3.404  16.556  18.216  0.1381 -0.3010  0.0042
29478DOD     C332255   3.654  16.247  17.996 -0.0753  0.0423 -0.1956
29479DOD     C132256  20.458   3.340  18.362  0.1480  0.3527 -0.0424
29479DOD     C232257  20.140   3.427  18.710 -0.0304 -0.1588  0.1473
29479DOD     C332258  20.260   3.338  19.167  0.0079  0.0639  0.1794
29480DOD     C132259  15.392   6.955  17.496  0.2382 -0.0608 -0.1106
29480DOD     C232260  14.981   7.157  17.369 -0.0156 -0.1649  0.2092
29480DOD     C332261  14.599   7.376  17.556  0.0820  0.0321  0.2471
29481DOD     C132262   8.853  28.508  22.594  0.3581 -0.0853  0.2355
29481DOD     C232263   8.588  28.154  22.927  0.1260 -0.1289 -0.0276
29481DOD     C332264   8.555  27.694  22.988 -0.0983  0.1061 -0.2584
29482DOD     C132265   1.759  21.717  16.000 -0.1176 -0.2603 -0.2122
29482DOD     C232266   2.203  21.610  15.883  0.2342  0.0356  0.0397
29482DOD     C332267   2.434  21.712  15.546 -0.0241  0.3081 -0.0331
29483DOD     C132268  19.838  10.444  13.698  0.1023 -0.1108  0.0664
29483DOD     C232269  20.301  10.560  13.724  0.1217 -0.0798 -0.2026
29483DOD     C332270  20.687  10.809  13.796  0.1684  0.1966 -0.0551
29484DOD     C132271  27.479  25.509  23.722  0.1811 -0.0751  0.0687
29484DOD     C232272  27.603  25.127  23.466  0.1183  0.0625  0.2993
29484DOD     C332273  27.961  24.800  23.558 -0.0364 -0.1369 -0.1526
29485DOD     C132274   9.770   0.313  23.856 -0.1704 -0.1710  0.1468
29485DOD     C232275   9.590   0.722  23.750  0.0492  0.0696  0.1410
29485DOD     C332276   9.608   1.180  23.885 -0.1338 -0.1442 -0.2672
29486DOD     C132277   5.566  15.329  18.565 -0.0286  0.0068 -0.1043
29486DOD     C232278   5.343  15.155  18.244  0.4059 -0.4444  0.1076
29486DOD     C332279   5.278  15.056  17.740 -0.4237  0.2294 -0.0077
29487DOD     C132280  11.140   3.438  19.887  0.0793 -0.1257  0.0351
29487DOD     C232281  11.596   3.313  19.731 -0.1102 -0.4181  0.0968
29487DOD     C332282  11.918   3.244  19.469 -0.2086 -0.4295 -0.2381
29488DOD     C132283  16.294  29.937  14.216 -0.0779 -0.0474  0.4881
29488DOD     C232284  16.277   0.098  14.145  0.0451 -0.2857  0.1083
29488DOD     C332285  16.348   0.307  13.700 -0.1723  0.0275  0.1996
29489DOD     C132286  11.751  25.401  14.434  0.3913  0.0471  0.0674
29489DOD     C232287  12.217  25.486  14.403 -0.0246 -0.1206 -0.1703
29489DOD     C332288  12.668  25.654  14.488 -0.0514 -0.1375  0.2509
29490DOD     C132289  18.073   5.105   2.758  0.1296 -0.1156  0.0911
29490DOD     C232290  17.735   5.247   2.545  0.2584  0.2235  0.1094
29490DOD     C332291  17.414   5.522   2.320  0.0752  0.1546  0.0240
29491DOD     C132292   0.805   3.834  22.139 -0.4604  0.2398 -0.3072
29491DOD     C232293   1.069   3.749  22.551  0.4597 -0.0790  0.0300
29491DOD     C332294   1.180   3.964  22.966 -0.0247  0.3368 -0.1581
29492DOD     C132295   5.156   7.622  12.380  0.3344 -0.0694 -0.2584
29492DOD     C232296   4.904   7.592  12.078  0.3365  0.0066  0.4362
29492DOD     C332297   4.488   7.472  11.857  0.0667  0.0695 -0.1941
29493DOD     C132298   0.840   4.228   0.610  0.1601 -0.2484  0.1562
29493DOD     C232299   0.768   3.763   0.854  0.0594  0.0845 -0.2888
29493DOD     C332300   0.838   3.535   1.219  0.0973  0.0365 -0.1432
29494DOD     C132301  10.774   2.414  15.340  0.2104 -0.0188  0.0700
29494DOD     C232302  10.706   2.501  14.889  0.1462  0.0570 -0.0588
29494DOD     C332303  10.631   2.482  14.442 -0.0755 -0.0890 -0.1649
29495DOD     C132304  24.004  30.013  18.034 -0.0021 -0.1125 -0.0429
29495DOD     C232305  23.637  30.163  18.093  0.2997 -0.1855 -0.1416
29495DOD     C332306  23.258  29.886  18.118  0.3810 -0.0541 -0.0024
29496DOD     C132307  25.501   1.639  21.623 -0.1164  0.1465  0.1936
29496DOD     C232308  25.542   1.825  22.006  0.1460 -0.0998  0.0064
29496DOD     C332309  25.195   1.842  22.273 -0.1132  0.0305  0.1584
29497DOD     C132310  13.570  16.179   3.348 -0.0584  0.0076 -0.0401
29497DOD     C232311  13.684  15.780   3.078 -0.0936 -0.1321 -0.0404
29497DOD     C332312  13.584  15.315   3.034 -0.0020  0.1719  0.0653
29498DOD     C132313  22.565  11.492   6.889  0.2107 -0.0990 -0.1607
29498DOD     C232314  22.206  11.314   6.611 -0.1833 -0.1846  0.1547
29498DOD     C332315  21.854  11.204   6.367 -0.1450  0.0022  0.0600
29499DOD     C132316  20.591  18.711   0.349 -0.2724 -0.0345 -0.3347
29499DOD     C232317  20.871  19.065   0.199 -0.1473 -0.3352  0.2383
29499DOD     C332318  20.893  19.506   0.327  0.1171 -0.3847  0.1217
29500DOD     C132319   2.593  24.895   5.005  0.3023  0.0247 -0.0373
29500DOD     C232320   2.946  24.575   4.967  0.2523 -0.3992  0.1287
29500DOD     C332321   2.882  24.125   5.138 -0.0033 -0.0576  0.2377
29501DOD     C132322  20.144  11.919   1.708  0.3553  0.0724 -0.0230
29501DOD     C232323  20.057  12.232   1.348 -0.0585 -0.1189 -0.0935
29501DOD     C332324  19.916  12.344   0.940  0.1193 -0.3702 -0.0501
29502DOD     C132325   0.241  27.443  12.661  0.0418 -0.1483  0.0097
29502DOD     C232326  30.199  27.250  12.387  0.1267  0.0364  0.1923
29502DOD     C332327  29.860  27.130  12.092 -0.1487  0.2972 -0.2520
29503DOD     C132328  22.767  29.915  29.741  0.0208  0.2702  0.4007
29503DOD     C232329  22.959  29.585  29.431  0.0788 -0.1337  0.0894
29503DOD     C332330  23.228  29.374  29.140  0.0183 -0.0791  0.4119
29504DOD     C132331  11.412  23.612  18.612 -0.1936 -0.0259 -0.1238
29504DOD     C232332  11.422  23.761  19.030  0.2413 -0.1063 -0.2124
29504DOD     C332333  11.540  24.185  19.253 -0.0095  0.1025 -0.0022
29505DOD     C132334  17.040   8.967  28.911  0.2440 -0.0027 -0.0558
29505DOD     C232335  16.670   9.003  28.537 -0.0683  0.2548  0.1038
29505DOD     C332336  16.555   8.727  28.188  0.1118 -0.0475  0.0239
29506DOD     C132337  24.185  20.474  28.589 -0.1117 -0.1112  0.2256
29506DOD     C232338  23.965  20.416  28.183  0.1037 -0.2151  0.0680
29506DOD     C332339  23.630  20.506  27.899 -0.1345 -0.0932 -0.1519
29507DOD     C132340   7.229   6.472   0.289  0.2256  0.1850 -0.0470
29507DOD     C232341   7.066   6.440  30.105 -0.1319  0.1181 -0.0770
29507DOD     C332342   7.013   6.756  29.735  0.0588  0.3371  0.0284
29508DOD     C132343  13.414   3.389  20.088  0.3862  0.0043  0.0663
29508DOD     C232344  13.582   3.869  19.995 -0.0147  0.3325 -0.0813
29508DOD     C332345  13.510   4.255  19.847  0.0388 -0.2517  0.4173
29509DOD     C132346  14.769  17.241  14.079 -0.3229 -0.0836 -0.2682
29509DOD     C232347  14.555  17.127  13.667 -0.0260  0.3294 -0.3509
29509DOD     C332348  14.531  16.744  13.403 -0.0978 -0.0905  0.2197
29510DOD     C132349  27.036  22.615  12.852 -0.1580 -0.1182  0.2681
29510DOD     C232350  27.309  22.767  12.395  0.2057 -0.2151  0.1684
29510DOD     C332351  27.647  22.760  12.216  0.0821  0.2459 -0.0966
29511DOD     C132352   2.787  12.365  20.863  0.0680 -0.0952  0.1554
29511DOD     C232353   2.384  12.146  20.696 -0.0426 -0.1582  0.2420
29511DOD     C332354   2.122  11.779  20.677  0.0861 -0.1125  0.0091
29512DOD     C132355  25.084   5.771  24.280 -0.2238 -0.1412  0.1257
29512DOD     C232356  24.771   5.645  23.970 -0.2796 -0.0676  0.0296
29512DOD     C332357  24.535   5.274  23.785 -0.3069 -0.2341  0.0710
29513DOD     C132358  16.651   3.779  25.235 -0.1390  0.1445 -0.2709
29513DOD     C232359  16.294   3.650  24.961 -0.0987  0.3334 -0.1132
29513DOD     C332360  16.222   3.651  24.496 -0.1947  0.1478 -0.0246
29514DOD     C132361   2.442  14.034   3.127 -0.1311 -0.0935 -0.5496
29514DOD     C232362   2.422  13.714   2.782  0.0349  0.1157  0.1058
29514DOD     C332363   2.159  13.330   2.810 -0.1174  0.1060 -0.0719
29515DOD     C132364   9.324  11.058   7.438  0.1685 -0.2101  0.0598
29515DOD     C232365   9.224  11.122   6.998 -0.3125  0.0396 -0.0437
29515DOD     C332366   9.218  10.995   6.504 -0.4245  0.0428 -0.2387
29516DOD     C132367  17.422  25.360   3.594  0.0297  0.3194 -0.0948
29516DOD     C232368  17.394  25.420   3.120 -0.1272 -0.2283 -0.0764
29516DOD     C332369  17.129  25.582   2.795  0.1588  0.0367 -0.1279
29517DOD     C132370  20.165  23.535  29.134  0.1985 -0.0027  0.2779
29517DOD     C232371  19.758  23.570  29.408 -0.1318 -0.0613  0.0876
29517DOD     C332372  19.384  23.576  29.742 -0.1337 -0.0769  0.2772
29518DOD     C132373   9.406  26.823  23.096  0.0402 -0.0099  0.0723
29518DOD     C232374   9.304  26.677  23.539  0.1775 -0.0691 -0.1847
29518DOD     C332375   9.172  26.559  23.994  0.3015  0.0082 -0.0481
29519DOD     C132376  26.877  19.685   2.988  0.1670  0.0089 -0.0861
29519DOD     C232377  27.030  19.770   2.567 -0.1652 -0.1997 -0.1278
29519DOD     C332378  27.075  19.971   2.137  0.0271 -0.0351  0.1437
29520DOD     C132379  23.214  25.335  15.454  0.1359 -0.0901 -0.0028
29520DOD     C232380  22.777  25.176  15.554 -0.2687  0.0830 -0.0168
29520DOD     C332381  22.315  25.131  15.468 -0.0031 -0.0474 -0.1310
29521DOD     C132382  25.570   0.909   2.140  0.0874  0.1595 -0.0226
29521DOD     C232383  25.681   0.899   2.613  0.1495 -0.0781 -0.0597
29521DOD     C332384  25.775   0.611   2.994 -0.0063 -0.2737 -0.3342
29522DOD     C132385  28.626  18.002  10.335 -0.1107  0.2760 -0.1191
29522DOD     C232386  28.905  17.710  10.615 -0.1413 -0.0476  0.0823
29522DOD     C332387  29.131  17.322  10.745 -0.0507  0.0642  0.0181
29523DOD     C132388  19.144   1.298   8.363 -0.0602  0.1641 -0.0221
29523DOD     C232389  19.293   0.902   8.078  0.2647  0.0197 -0.2609
29523DOD     C332390  19.320   0.728   7.643 -0.4007  0.2346 -0.0083
29524DOD     C132391   7.441  22.682   0.851 -0.0764  0.0785 -0.0436
29524DOD     C232392   7.375  22.442   0.478  0.1020  0.2306  0.3248
29524DOD     C332393   7.382  22.501   0.028 -0.0817 -0.3336 -0.1219
29525DOD     C132394   3.150   3.239   9.820  0.2022  0.1534  0.2792
29525DOD     C232395   3.294   3.709   9.819 -0.0086 -0.1313  0.0113
29525DOD     C332396   3.236   4.091  10.044 -0.3447  0.1966 -0.0651
29526DOD     C132397  21.286  14.366  22.875  0.2837 -0.0805 -0.0704
29526DOD     C232398  21.727  14.486  23.070 -0.0384 -0.1585 -0.1614
29526DOD     C332399  22.011  14.700  23.360  0.0216 -0.1150 -0.2025
29527DOD     C132400  10.104   5.112  15.585 -0.0676 -0.2028  0.1250
29527DOD     C232401   9.700   5.175  15.317  0.0653  0.2222  0.0116
29527DOD     C332402   9.375   5.531  15.339 -0.3769 -0.1169 -0.0246
29528DOD     C132403  18.730  16.823  29.199  0.2018 -0.3013 -0.0454
29528DOD     C232404  19.006  16.513  29.094 -0.1827 -0.0651 -0.0510
29528DOD     C332405  19.271  16.122  29.033 -0.2370 -0.1537 -0.0315
29529DOD     C132406  15.825  24.558  27.122  0.1801  0.0637  0.1158
29529DOD     C232407  15.755  24.320  27.488 -0.0691 -0.1962 -0.1757
29529DOD     C332408  15.557  24.096  27.866  0.0488  0.2681  0.1007
29530DOD     C132409  11.383   6.490  29.273 -0.1467 -0.0891 -0.0600
29530DOD     C232410  11.479   6.935  29.061 -0.1877  0.3716  0.0768
29530DOD     C332411  11.698   7.226  28.732  0.1255  0.1957 -0.1811
29531DOD     C132412  27.411  29.114   0.762  0.1472 -0.3450  0.2571
29531DOD     C232413  27.850  29.112   0.593  0.0922 -0.3231  0.1398
29531DOD     C332414  28.287  29.018   0.700  0.0470 -0.1655  0.1623
29532DOD     C132415   3.901   0.806  26.539 -0.0722 -0.0847 -0.1867
29532DOD     C232416   4.302   0.657  26.241  0.1996 -0.0689 -0.3926
29532DOD     C332417   4.623   0.567  25.904  0.0501 -0.0759  0.0688
29533DOD     C132418  21.905  13.769  28.596 -0.0343 -0.0916  0.1719
29533DOD     C232419  21.879  13.382  28.343  0.1582  0.0531 -0.2209
29533DOD     C332420  22.025  12.925  28.560 -0.0820 -0.0051 -0.1535
29534DOD     C132421  10.524   2.139  27.368  0.0817  0.2363 -0.1494
29534DOD     C232422  10.095   2.027  27.337  0.0933  0.3789  0.0121
29534DOD     C332423   9.715   2.061  27.045  0.0464  0.1687  0.0366
29535DOD     C132424   4.990  22.079   5.210 -0.1057  0.0054  0.0189
29535DOD     C232425   4.935  22.459   5.516  0.0580  0.7026  0.1431
29535DOD     C332426   4.965  22.527   5.971 -0.1509  0.2519 -0.1297
29536DOD     C132427  19.088   4.558  28.600  0.0002  0.1368  0.0120
29536DOD     C232428  18.699   4.356  28.493 -0.0382  0.3192 -0.1820
29536DOD     C332429  18.254   4.236  28.693  0.0404  0.1842  0.0941
29537DOD     C132430  23.895   6.676  24.796  0.4181  0.0219 -0.0287
29537DOD     C232431  23.798   7.046  24.572  0.1402 -0.4092 -0.0954
29537DOD     C332432  23.587   7.281  24.227 -0.2028 -0.3759 -0.2839
29538DOD     C132433   6.745   1.725  11.435 -0.2403 -0.3726 -0.2641
29538DOD     C232434   6.355   1.565  11.450  0.1936  0.1615  0.0192
29538DOD     C332435   6.214   1.146  11.612  0.0568 -0.0872  0.0142
29539DOD     C132436   8.267  29.719  18.562 -0.0982 -0.3862  0.1485
29539DOD     C232437   7.843  29.933  18.534  0.0411 -0.1641 -0.2283
29539DOD     C332438   7.831   0.047  18.405 -0.1245 -0.1568 -0.1446
29540DOD     C132439  19.866  25.268   2.963 -0.0793  0.0464  0.0478
29540DOD     C232440  19.794  24.846   3.197  0.0431  0.0729  0.1126
29540DOD     C332441  19.826  24.840   3.697 -0.0133  0.0287 -0.0771
29541DOD     C132442  12.182  16.300   6.307 -0.2550 -0.0284  0.0840
29541DOD     C232443  11.750  16.447   6.227  0.0117  0.2492 -0.1309
29541DOD     C332444  11.386  16.513   5.969  0.1761  0.0940 -0.3271
29542DOD     C132445  14.745  21.236  28.344 -0.2080  0.0653 -0.1908
29542DOD     C232446  14.969  20.992  28.645 -0.2917 -0.1637 -0.0262
29542DOD     C332447  14.920  20.576  28.871  0.0170  0.1486 -0.0790
29543DOD     C132448  14.271  24.394   7.259  0.0124  0.2819  0.1209
29543DOD     C232449  14.475  24.017   7.397 -0.2389  0.2674  0.4120
29543DOD     C332450  14.884  23.838   7.364  0.0726  0.1544  0.0948
29544DOD     C132451  30.341  17.358  18.003  0.0345 -0.2855 -0.0060
29544DOD     C232452   0.386  17.525  17.848 -0.0622 -0.1657 -0.4664
29544DOD     C332453   0.765  17.157  17.781  0.2091  0.0635 -0.0713
29545DOD     C132454  28.508  21.090  15.340  0.2716  0.1871 -0.2643
29545DOD     C232455  28.622  21.511  15.446  0.1493 -0.0386 -0.1861
29545DOD     C332456  29.039  21.741  15.555  0.0969  0.0281  0.2403
29546DOD     C132457  19.757  15.326  23.723 -0.0714 -0.0611 -0.0743
29546DOD     C232458  19.472  14.959  23.537 -0.0256 -0.3652 -0.1695
29546DOD     C332459  19.331  14.827  23.116 -0.1235 -0.1529  0.0381
29547DOD     C132460  23.607  15.696  25.092  0.0553 -0.1962  0.1518
29547DOD     C232461  23.719  15.342  24.850  0.1346 -0.0346 -0.1376
29547DOD     C332462  23.795  15.020  24.558 -0.1597 -0.3561  0.1315
29548DOD     C132463  18.221  23.441  12.833  0.2975 -0.2190  0.1911
29548DOD     C232464  17.882  23.726  12.659 -0.7616  0.2179  0.0312
29548DOD     C332465  17.590  23.965  12.428  0.1167  0.0082  0.1498
29549DOD     C132466  18.128  22.712  27.508 -0.1617  0.1865  0.1707
29549DOD     C232467  18.279  22.427  27.268 -0.1083 -0.0807  0.1657
29549DOD     C332468  18.289  22.219  26.829 -0.1377  0.0204  0.0547
29550DOD     C132469  10.036  15.143  20.209 -0.1932  0.1572  0.1483
29550DOD     C232470   9.740  15.386  19.958  0.1553  0.2507  0.1297
29550DOD     C332471   9.292  15.466  20.074  0.4110  0.1292  0.2438
29551DOD     C132472  19.078  26.111  20.115 -0.0412  0.0964 -0.0451
29551DOD     C232473  18.757  26.274  20.368  0.2003 -0.1269  0.0111
29551DOD     C332474  18.378  26.353  20.592 -0.0865  0.1995 -0.4072
29552DOD     C132475  26.879  27.025  10.768  0.0810 -0.2579 -0.0104
29552DOD     C232476  26.579  27.201  11.164 -0.0222  0.2381  0.4583
29552DOD     C332477  26.593  27.421  11.546  0.3768  0.4763  0.1434
29553DOD     C132478   0.771  29.337  21.325  0.1741  0.1260  0.0071
29553DOD     C232479   1.084  29.649  21.299  0.0723 -0.3469 -0.2353
29553DOD     C332480   1.266  30.054  21.017 -0.0664  0.2022  0.3350
29554DOD     C132481  14.216  14.407  18.488 -0.1842 -0.1567  0.1009
29554DOD     C232482  13.926  14.069  18.577 -0.0092  0.3070 -0.2160
29554DOD     C332483  13.599  13.782  18.743 -0.1920  0.1515  0.1842
29555DOD     C132484  16.000  20.807  13.990  0.2680  0.1938 -0.0669
29555DOD     C232485  15.975  21.112  14.323  0.1481 -0.0587 -0.2851
29555DOD     C332486  16.031  21.475  14.572  0.0633  0.1796 -0.2998
29556DOD     C132487  12.626   6.118  18.947 -0.2197  0.4728  0.3266
29556DOD     C232488  12.543   5.687  18.813  0.3584  0.4153 -0.1013
29556DOD     C332489  12.775   5.306  18.572  0.2087  0.0582  0.1945
29557DOD     C132490   2.640  12.365  11.828  0.2604  0.1261  0.2066
29557DOD     C232491   2.724  12.633  12.214 -0.0169  0.1127 -0.0667
29557DOD     C332492   2.815  12.618  12.662  0.0264 -0.0455  0.1517
29558DOD     C132493  11.974   4.800  26.354  0.1261 -0.1597 -0.0009
29558DOD     C232494  12.281   5.073  26.535  0.2523  0.5881  0.3517
29558DOD     C332495  12.469   5.486  26.491  0.2324 -0.0439  0.1851
29559DOD     C132496  17.485  10.980  16.842 -0.0820  0.3691  0.4262
29559DOD     C232497  17.789  11.340  16.771 -0.0633 -0.0422 -0.0320
29559DOD     C332498  18.028  11.435  16.367 -0.2204 -0.2246  0.0877
29560DOD     C132499   9.152  18.283  11.595  0.0371  0.1371  0.1358
29560DOD     C232500   9.017  18.001  11.936  0.2772  0.1721  0.3802
29560DOD     C332501   8.718  17.676  12.176 -0.2114 -0.3432  0.0235
29561DOD     C132502  18.593  28.340  15.961  0.0177  0.1401  0.0638
29561DOD     C232503  18.304  28.544  15.614  0.1517  0.2636 -0.3698
29561DOD     C332504  18.035  28.836  15.384 -0.1484  0.0884  0.0588
29562DOD     C132505  13.070  24.641  23.047  0.0602 -0.3260  0.5407
29562DOD     C232506  12.792  25.022  23.066  0.2317 -0.1713 -0.1284
29562DOD     C332507  12.433  25.338  23.016 -0.0760  0.0752  0.1949
29563DOD     C132508  18.478  16.026  12.469  0.0221 -0.1986  0.1500
29563DOD     C232509  18.308  16.325  12.147 -0.0388 -0.0689  0.0388
29563DOD     C332510  18.188  16.432  11.751  0.2527 -0.0744  0.2175
29564DOD     C132511   2.646  11.755   8.721 -0.0252 -0.1896  0.1595
29564DOD     C232512   3.065  11.886   8.891 -0.0204 -0.1052  0.1215
29564DOD     C332513   3.497  11.898   8.827  0.1872  0.0871  0.1159
29565DOD     C132514   3.145  10.559  16.034 -0.0581  0.3211 -0.0136
29565DOD     C232515   2.917  10.608  16.399  0.4627  0.0589 -0.1833
29565DOD     C332516   2.914  10.792  16.839 -0.1644 -0.2043  0.0415
29566DOD     C132517   4.593   3.844  21.986 -0.1602 -0.0122 -0.1065
29566DOD     C232518   4.356   3.800  21.570  0.0359 -0.1036 -0.0369
29566DOD     C332519   4.296   3.796  21.083  0.0925 -0.0165  0.0603
29567DOD     C132520  18.762  17.952   2.239  0.1460  0.2283 -0.0367
29567DOD     C232521  18.428  18.021   2.616  0.2914  0.1071 -0.0171
29567DOD     C332522  18.421  18.370   2.974 -0.1638  0.0946 -0.0175
29568DOD     C132523  12.273   6.482  11.370  0.1733 -0.1218  0.1635
29568DOD     C232524  12.321   6.332  10.961  0.0059  0.0659 -0.0312
29568DOD     C332525  12.330   6.140  10.564 -0.1788 -0.0865  0.1064
29569DOD     C132526  24.309  15.765  22.494 -0.2500 -0.1084  0.2937
29569DOD     C232527  23.937  15.921  22.654 -0.0551 -0.1431 -0.3704
29569DOD     C332528  23.498  15.797  22.838  0.2038  0.0635 -0.1981
29570DOD     C132529   9.444   7.300  30.203 -0.0039  0.1877 -0.1947
29570DOD     C232530   9.259   6.908   0.061  0.0721 -0.1041 -0.1742
29570DOD     C332531   9.166   6.480   0.025 -0.2508 -0.1361 -0.0576
29571DOD     C132532  15.594   7.662   0.416  0.0659 -0.3009 -0.0171
29571DOD     C232533  15.522   7.917   0.814  0.0641  0.0889  0.1548
29571DOD     C332534  15.532   7.841   1.300  0.2262 -0.1445 -0.0383
29572DOD     C132535  12.602  28.596  27.668  0.0860 -0.2080 -0.1623
29572DOD     C232536  12.147  28.561  27.793 -0.0633  0.2096  0.3160
29572DOD     C332537  11.892  28.246  28.038 -0.0484 -0.1149 -0.0602
29573DOD     C132538  18.387  20.937  21.959  0.1360 -0.0311  0.1577
29573DOD     C232539  18.585  21.303  21.781 -0.1645  0.1161  0.1413
29573DOD     C332540  18.492  21.782  21.775 -0.2413  0.0393  0.0659
29574DOD     C132541  25.104  11.079  21.922  0.0058 -0.1096  0.1850
29574DOD     C232542  25.288  10.629  21.899  0.0860  0.1654 -0.1105
29574DOD     C332543  25.251  10.227  21.654 -0.0322 -0.1186 -0.2498
29575DOD     C132544  16.611  10.832  20.751  0.3597  0.0952 -0.1495
29575DOD     C232545  16.526  11.229  20.515 -0.1784  0.1466 -0.0370
29575DOD     C332546  16.733  11.630  20.345 -0.0945 -0.1802 -0.2570
29576DOD     C132547  13.534  29.421  28.014 -0.0792 -0.1977  0.3332
29576DOD     C232548  13.575  29.220  28.404 -0.0650 -0.0025  0.6035
29576DOD     C332549  13.646  29.324  28.885  0.0539 -0.0828 -0.2246
29577DOD     C132550   1.337  20.844   2.591 -0.4545 -0.1779  0.0798
29577DOD     C232551   1.253  20.523   2.889  0.1495  0.0648  0.1836
29577DOD     C332552   0.904  20.375   3.180 -0.0447 -0.1825 -0.1027
29578DOD     C132553  28.533   3.352  13.042 -0.1572 -0.0288 -0.2806
29578DOD     C232554  28.367   3.774  13.133 -0.0472 -0.1357  0.1810
29578DOD     C332555  28.170   4.204  13.085  0.1289  0.0640 -0.0305
29579DOD     C132556  12.349   0.399   4.611 -0.6169  0.2515 -0.0159
29579DOD     C232557  12.278   0.210   4.202 -0.0461  0.4579  0.0951
29579DOD     C332558  12.090  30.077   4.182 -0.2852  0.3351 -0.1229
29580DOD     C132559  16.603  10.976  23.538 -0.2279 -0.0462 -0.0831
29580DOD     C232560  16.496  11.000  23.072 -0.2939  0.0278 -0.1896
29580DOD     C332561  16.176  10.815  22.726 -0.0579 -0.1291 -0.3935
29581DOD     C132562  10.595  24.620  25.198  0.1252 -0.1659  0.0924
29581DOD     C232563  10.948  24.656  24.842 -0.1225 -0.2250 -0.2321
29581DOD     C332564  11.130  24.980  24.601 -0.1608 -0.1272 -0.2581
29582DOD     C132565  29.346  15.067  28.286  0.0264 -0.3622 -0.0193
29582DOD     C232566  29.553  15.143  27.871  0.0704  0.3378  0.1280
29582DOD     C332567  29.732  15.432  27.570 -0.2607  0.1993  0.0512
29583DOD     C132568  29.729   7.403  18.456 -0.1953 -0.0137  0.1305
29583DOD     C232569  29.439   7.358  18.752 -0.3667 -0.2741  0.0254
29583DOD     C332570  29.094   7.365  19.087 -0.0510  0.0141  0.3524
29584DOD     C132571   2.157   2.766   2.978  0.0583  0.1795  0.0044
29584DOD     C232572   1.810   2.664   3.275  0.2045 -0.2883  0.0054
29584DOD     C332573   1.424   2.498   3.354  0.0171 -0.1836 -0.2006
29585DOD     C132574  17.924  29.582  28.544 -0.0915  0.0740 -0.4222
29585DOD     C232575  17.762  29.520  28.116  0.0033 -0.2664  0.3031
29585DOD     C332576  17.655  29.566  27.694  0.0022  0.3262 -0.0063
29586DOD     C132577   3.988  20.307  20.912  0.0256  0.2735 -0.0635
29586DOD     C232578   4.069  20.088  20.471  0.0183  0.0984 -0.1215
29586DOD     C332579   4.108  20.321  20.018 -0.2281  0.1458  0.0206
29587DOD     C132580  12.402  28.006   0.139 -0.1559  0.0912 -0.1944
29587DOD     C232581  12.133  28.271  30.194  0.0337 -0.1554 -0.0907
29587DOD     C332582  11.947  28.561  29.865  0.3249  0.3853  0.1375
29588DOD     C132583  10.078  26.979  16.676 -0.0423 -0.2329 -0.0978
29588DOD     C232584   9.914  27.156  16.262 -0.0228  0.1545 -0.0183
29588DOD     C332585  10.112  27.249  15.872  0.2121 -0.2156 -0.1542
29589DOD     C132586  13.167  22.942  16.070  0.0601 -0.0872  0.0764
29589DOD     C232587  12.991  23.347  16.095 -0.3210  0.2394 -0.0140
29589DOD     C332588  12.945  23.647  16.483  0.1774 -0.2763  0.3907
29590DOD     C132589   9.013   8.184  12.016  0.0920 -0.1355 -0.0985
29590DOD     C232590   8.712   8.499  12.143 -0.0716 -0.0621 -0.1648
29590DOD     C332591   8.583   8.968  12.076 -0.1348 -0.0211  0.1164
29591DOD     C132592   9.116   9.894   4.153 -0.0471  0.2651  0.1505
29591DOD     C232593   8.719  10.205   4.101 -0.1610 -0.2148 -0.0949
29591DOD     C332594   8.281  10.324   3.959 -0.3104  0.1020  0.1533
29592DOD     C132595  15.648  18.792  10.027 -0.3380 -0.0063  0.1864
29592DOD     C232596  16.052  18.881   9.881  0.1893 -0.0951  0.1922
29592DOD     C332597  16.439  19.067  10.062  0.5248 -0.2063  0.0006
29593DOD     C132598   0.720   5.544   7.824 -0.1989  0.0694 -0.3478
29593DOD     C232599   0.442   5.754   8.123  0.3380 -0.0049 -0.0958
29593DOD     C332600   0.128   5.837   8.504 -0.0614 -0.1281 -0.2432
29594DOD     C132601  17.831  14.857  17.458 -0.2530  0.4323 -0.0836
29594DOD     C232602  17.380  14.960  17.323 -0.1296  0.2175 -0.0046
29594DOD     C332603  17.066  15.050  16.952 -0.1947 -0.0391 -0.2628
29595DOD     C132604   6.443  27.408  26.899  0.0917 -0.2004  0.0694
29595DOD     C232605   6.808  27.493  27.210  0.2619 -0.2475  0.2555
29595DOD     C332606   7.230  27.427  27.432  0.2207  0.1207 -0.1846
29596DOD     C132607   0.865  21.380  28.641 -0.2915 -0.0521 -0.0407
29596DOD     C232608   1.100  21.685  28.352  0.0725 -0.2529  0.1364
29596DOD     C332609   1.396  22.078  28.416 -0.1266  0.1964 -0.0040
29597DOD     C132610   8.677  25.368  19.591 -0.3925 -0.0543  0.0016
29597DOD     C232611   8.460  25.172  19.286 -0.0261 -0.3389 -0.0456
29597DOD     C332612   8.102  25.108  19.059  0.0585 -0.0560  0.1240
29598DOD     C132613  20.251  12.875  16.537  0.0180  0.0233 -0.0741
29598DOD     C232614  20.694  13.040  16.396  0.1286 -0.1271 -0.0043
29598DOD     C332615  21.049  12.791  16.603 -0.1688 -0.0626  0.0853
29599DOD     C132616  10.769   7.074  11.562 -0.1226 -0.0535  0.1249
29599DOD     C232617  10.641   7.398  11.810 -0.0283  0.0491 -0.1157
29599DOD     C332618  10.322   7.729  11.939 -0.1108  0.2151 -0.1341
29600DOD     C132619  25.135  13.705   7.033 -0.0999  0.2087 -0.1319
29600DOD     C232620  25.484  13.368   6.891  0.0422 -0.0983  0.1263
29600DOD     C332621  25.740  13.264   6.477  0.0397  0.0666 -0.1789
29601DOD     C132622  27.923  16.651  10.928  0.0662 -0.1885  0.2652
29601DOD     C232623  28.077  16.580  11.347 -0.0775 -0.0166  0.2259
29601DOD     C332624  28.211  16.453  11.829  0.1150 -0.0146  0.2344
29602DOD     C132625  29.646   0.867  16.803 -0.2156  0.0662 -0.0651
29602DOD     C232626  29.807   0.420  16.772 -0.4039  0.0501 -0.2358
29602DOD     C332627  30.067  -0.012  16.747 -0.4050 -0.1273 -0.4222
29603DOD     C132628   7.994   4.416  25.460 -0.2934  0.0254 -0.2382
29603DOD     C232629   7.782   4.808  25.567  0.0004 -0.0849  0.4619
29603DOD     C332630   7.699   5.143  25.884 -0.1031  0.0474 -0.2479
29604DOD     C132631  10.749  10.274  11.236 -0.1979  0.2746  0.1633
29604DOD     C232632  11.135  10.347  11.042 -0.0469  0.2091  0.1904
29604DOD     C332633  11.566  10.255  10.853 -0.1316  0.0180  0.2651
29605DOD     C132634   9.421  21.044  24.292  0.2251  0.2044 -0.1909
29605DOD     C232635   9.695  21.198  24.609 -0.0359  0.0261  0.0631
29605DOD     C332636   9.897  21.444  24.971  0.1583  0.2557 -0.1259
29606DOD     C132637  15.705  20.876  10.734 -0.3037 -0.1712 -0.2096
29606DOD     C232638  15.561  20.418  10.550 -0.2109 -0.1596 -0.1494
29606DOD     C332639  15.302  20.021  10.602  0.1059 -0.0425 -0.1817
29607DOD     C132640  25.100  14.020   8.600 -0.0170  0.2154  0.0078
29607DOD     C232641  25.188  13.648   8.246 -0.0575  0.0355 -0.1996
29607DOD     C332642  25.302  13.561   7.767  0.0607 -0.0318 -0.2437
29608DOD     C132643  19.838   9.326   3.037 -0.0453  0.0267 -0.0667
29608DOD     C232644  20.095   9.390   2.629 -0.1883  0.1026 -0.2423
29608DOD     C332645  20.349   9.120   2.354  0.1387 -0.1946 -0.0571
29609DOD     C132646  12.008  30.081  25.812 -0.0090 -0.2610 -0.0775
29609DOD     C232647  11.873   0.116  26.126 -0.0755 -0.0238 -0.2672
29609DOD     C332648  11.901   0.151  26.621  0.2296 -0.1768 -0.1641
29610DOD     C132649   5.601   4.791   9.567 -0.0546  0.0140 -0.0226
29610DOD     C232650   5.971   5.044   9.439 -0.0728  0.0130  0.1946
29610DOD     C332651   6.052   5.215   8.991  0.2963 -0.2376  0.2002
29611DOD     C132652  16.404  30.032  19.301  0.0139  0.0894 -0.0895
29611DOD     C232653  16.159  29.838  19.694  0.1635 -0.3048  0.3017
29611DOD     C332654  15.765  30.122  19.784 -0.2091 -0.0265 -0.0006
29612DOD     C132655  11.184   8.886  10.465  0.0054  0.1333  0.0674
29612DOD     C232656  11.428   9.218  10.553  0.2013  0.0140  0.2666
29612DOD     C332657  11.820   9.447  10.646  0.1948 -0.2656 -0.1013
29613DOD     C132658  12.408   2.267   8.877  0.1955 -0.4115 -0.0090
29613DOD     C232659  12.372   2.157   9.312  0.1915  0.0204  0.3025
29613DOD     C332660  12.106   2.343   9.710  0.4328 -0.1571 -0.0845
29614DOD     C132661  20.829  24.597  11.164  0.1020 -0.0939 -0.1827
29614DOD     C232662  20.965  24.891  10.791  0.1199  0.0893 -0.0773
29614DOD     C332663  20.861  25.354  10.747  0.3237 -0.4409  0.0255
29615DOD     C132664  16.797   7.454  19.238 -0.3097  0.1518  0.2423
29615DOD     C232665  16.675   7.807  19.471 -0.3791 -0.0437  0.1305
29615DOD     C332666  16.286   7.950  19.672  0.2075  0.1268  0.0361
29616DOD     C132667  25.403  16.540  19.025 -0.1738  0.4179  0.0661
29616DOD     C232668  25.444  17.016  19.046  0.3547 -0.0585  0.0437
29616DOD     C332669  25.825  17.226  19.224  0.0780  0.0763  0.1130
29617DOD     C132670  16.864  11.089  12.546 -0.0444 -0.1034  0.2239
29617DOD     C232671  16.471  10.764  12.485 -0.1137  0.2946 -0.0838
29617DOD     C332672  16.102  10.605  12.661  0.2597 -0.1338  0.3416
29618DOD     C132673   8.395  14.245   2.837 -0.1730 -0.1440 -0.2041
29618DOD     C232674   8.358  13.908   3.188 -0.1250 -0.2424  0.4688
29618DOD     C332675   8.681  13.691   3.456  0.1482 -0.1169  0.0228
29619DOD     C132676   9.107   4.609  18.060 -0.1435  0.1050  0.1566
29619DOD     C232677   9.380   4.802  18.404  0.3574 -0.0890 -0.3626
29619DOD     C332678   9.689   5.097  18.445 -0.0278  0.2496 -0.0554
29620DOD     C132679  24.877  16.735   2.739  0.3390 -0.0821  0.0084
29620DOD     C232680  24.558  16.526   3.107  0.1053 -0.0469  0.0909
29620DOD     C332681  24.432  16.519   3.562  0.1678  0.0123  0.1846
29621DOD     C132682  27.154   2.487   7.605 -0.1690  0.0478 -0.0637
29621DOD     C232683  27.113   2.556   7.155 -0.0097 -0.0974 -0.1648
29621DOD     C332684  26.903   2.635   6.718  0.0548  0.2333 -0.1818
29622DOD     C132685  13.509   5.427  12.103 -0.0347 -0.1133  0.0406
29622DOD     C232686  13.657   5.058  12.327  0.0118 -0.2347 -0.2710
29622DOD     C332687  13.870   5.179  12.698  0.4017  0.3661  0.0031
29623DOD     C132688   1.735   7.671   7.394  0.0995  0.0364  0.1819
29623DOD     C232689   1.908   8.069   7.526  0.2267  0.0206 -0.0968
29623DOD     C332690   1.757   8.455   7.435 -0.0707  0.1138  0.0226
29624DOD     C132691   7.292  18.779   4.054 -0.0259  0.3012 -0.3628
29624DOD     C232692   6.870  18.749   4.199  0.0096 -0.0494  0.0222
29624DOD     C332693   6.531  18.890   4.494 -0.0324  0.0706 -0.0555
29625DOD     C132694  24.007  20.641  15.751 -0.1589  0.0879  0.1198
29625DOD     C232695  23.807  20.197  15.788 -0.2306 -0.0433  0.0004
29625DOD     C332696  23.904  19.805  15.920 -0.0068 -0.1159  0.0600
29626DOD     C132697  29.581   6.711  29.457 -0.0855 -0.1715  0.1243
29626DOD     C232698  29.813   6.887  29.092  0.0777  0.3781  0.1588
29626DOD     C332699  29.777   7.114  28.705  0.3623 -0.1430  0.0600
29627DOD     C132700   6.758  30.067   0.531 -0.0863  0.0851 -0.1185
29627DOD     C232701   6.309  29.908   0.490  0.1100 -0.0581  0.1926
29627DOD     C332702   6.102  29.598   0.212 -0.1543 -0.0004 -0.0570
29628DOD     C132703   7.431  22.109  12.514  0.0132 -0.0700  0.1089
29628DOD     C232704   7.575  21.653  12.622 -0.1058 -0.0271  0.0233
29628DOD     C332705   8.049  21.502  12.612  0.2020  0.2881 -0.5273
29629DOD     C132706  19.099  25.443   5.317 -0.3829  0.0310 -0.1860
29629DOD     C232707  18.730  25.693   5.054  0.0741 -0.0630  0.3098
29629DOD     C332708  18.378  25.810   4.806  0.2628 -0.0510 -0.1950
29630DOD     C132709  15.249  13.960  10.141  0.1354  0.3435 -0.2441
29630DOD     C232710  14.967  13.948   9.799  0.0141  0.1939 -0.0105
29630DOD     C332711  14.999  13.934   9.305  0.2138  0.0715  0.5645
29631DOD     C132712  24.510  22.721  19.369  0.2330 -0.1897  0.0574
29631DOD     C232713  24.185  22.970  19.508  0.3518 -0.2820 -0.1702
29631DOD     C332714  24.031  23.373  19.712 -0.0679  0.1615  0.5484
29632DOD     C132715  14.381   6.633  13.200 -0.1474  0.0301 -0.3252
29632DOD     C232716  14.840   6.559  13.048  0.1681 -0.3154  0.0832
29632DOD     C332717  15.309   6.375  12.975 -0.1097  0.2561  0.1529
29633DOD     C132718  28.568   1.332   4.201  0.0137 -0.0058 -0.0603
29633DOD     C232719  29.003   1.270   4.200 -0.1997 -0.1003 -0.2837
29633DOD     C332720  29.395   1.531   3.987  0.0182  0.1072  0.3793
29634DOD     C132721  30.150  21.056  27.309 -0.2774  0.0014 -0.5130
29634DOD     C232722  30.185  21.078  26.888  0.0003 -0.1682 -0.0230
29634DOD     C332723   0.045  21.055  26.432 -0.0234 -0.0760  0.1328
29635DOD     C132724  22.443   4.250  15.964  0.2241  0.1664 -0.0728
29635DOD     C232725  22.174   4.089  16.317 -0.0238  0.2745 -0.0924
29635DOD     C332726  22.118   3.794  16.625 -0.1241  0.1205  0.1716
29636DOD     C132727  24.551   6.815  13.285  0.1650 -0.3492  0.0864
29636DOD     C232728  24.121   7.020  13.190  0.4196  0.1089  0.2074
29636DOD     C332729  23.675   7.204  13.085 -0.1447 -0.0184 -0.1895
29637DOD     C132730   4.069   7.607  22.151  0.0350  0.1759 -0.2113
29637DOD     C232731   4.074   8.081  22.113 -0.1696 -0.0115 -0.1097
29637DOD     C332732   3.748   8.341  21.920 -0.2278  0.1372 -0.2085
29638DOD     C132733  26.697   6.058   3.962 -0.1084 -0.2219 -0.2595
29638DOD     C232734  27.007   5.807   3.706 -0.1085  0.1949 -0.3631
29638DOD     C332735  27.404   5.796   3.511  0.2396  0.3619 -0.3581
29639DOD     C132736  12.039  16.384  30.311 -0.0140  0.1290  0.0471
29639DOD     C232737  11.846  16.110  29.966  0.0726  0.0010 -0.1245
29639DOD     C332738  12.149  15.905  29.699 -0.0598 -0.2669  0.0085
29640DOD     C132739  10.117  22.969   9.724 -0.1696  0.0620 -0.2434
29640DOD     C232740  10.372  22.617   9.909 -0.1114  0.1646  0.1480
29640DOD     C332741  10.501  22.335  10.224 -0.1674  0.0838  0.0712
29641DOD     C132742  13.743  28.699  22.427 -0.0063  0.0430 -0.1351
29641DOD     C232743  14.095  29.005  22.303 -0.1034 -0.1247  0.3935
29641DOD     C332744  14.231  29.379  22.213  0.0705 -0.2288  0.0530
29642DOD     C132745  15.367  23.513   9.690 -0.4355 -0.1708 -0.1799
29642DOD     C232746  15.470  23.876   9.929  0.0420  0.1589 -0.0944
29642DOD     C332747  15.707  24.251  10.057 -0.0603 -0.1066  0.0457
29643DOD     C132748  19.606  14.758  16.083  0.0272  0.1192 -0.3026
29643DOD     C232749  19.353  14.356  16.062 -0.0552 -0.0734  0.0144
29643DOD     C332750  19.068  14.011  15.935 -0.0993  0.0480  0.0422
29644DOD     C132751  29.247  27.033  11.312 -0.2861 -0.2547 -0.1006
29644DOD     C232752  28.826  26.951  11.157 -0.2507 -0.0080 -0.0706
29644DOD     C332753  28.584  26.672  10.838 -0.1027 -0.2717 -0.2675
29645DOD     C132754  18.715  17.968   9.612 -0.1846  0.1630  0.0963
29645DOD     C232755  18.898  17.718   9.353 -0.1514  0.1858 -0.0576
29645DOD     C332756  18.743  17.458   9.010  0.1220  0.1109 -0.4198
29646DOD     C132757  24.445   8.922   0.016 -0.0084  0.5791 -0.0694
29646DOD     C232758  24.107   8.705  30.171  0.0397 -0.2359  0.2399
29646DOD     C332759  23.927   8.371  29.932 -0.0360 -0.1111  0.0294
29647DOD     C132760  11.306   7.633   3.121 -0.2603 -0.2501  0.0094
29647DOD     C232761  10.908   7.774   3.022 -0.0597 -0.1415  0.2204
29647DOD     C332762  10.722   8.015   2.706 -0.0306  0.0627 -0.1581
29648DOD     C132763  20.599  27.269   5.256 -0.2291  0.1105  0.1480
29648DOD     C232764  21.031  27.140   5.464  0.0271  0.1858  0.2516
29648DOD     C332765  21.424  27.205   5.688 -0.0353 -0.2890 -0.0724
29649DOD     C132766   6.119   3.415   5.342 -0.2773  0.0057 -0.0853
29649DOD     C232767   6.134   3.577   4.944 -0.3621 -0.3075 -0.1912
29649DOD     C332768   5.885   3.850   4.623  0.0253  0.2560 -0.1224
29650DOD     C132769  15.863  26.045  17.870 -0.0839 -0.0642 -0.0128
29650DOD     C232770  16.204  26.347  18.020  0.1502  0.2710 -0.0124
29650DOD     C332771  16.137  26.791  18.139 -0.1937  0.0764  0.2797
29651DOD     C132772  20.804  18.793  28.726  0.2887  0.0226  0.0739
29651DOD     C232773  21.253  18.838  28.575 -0.1234 -0.0927 -0.2236
29651DOD     C332774  21.415  18.839  28.152  0.0724  0.2049  0.0578
29652DOD     C132775   3.993  22.149  10.396  0.1664  0.0353 -0.0589
29652DOD     C232776   3.756  22.410  10.074  0.0183 -0.0419 -0.1301
29652DOD     C332777   4.002  22.540   9.663 -0.0493  0.0979 -0.2258
29653DOD     C132778  20.550  17.569  26.593  0.1150  0.3579 -0.3423
29653DOD     C232779  20.422  17.502  27.034 -0.0154  0.0130  0.0418
29653DOD     C332780  20.353  17.386  27.526  0.1210  0.4594 -0.0192
29654DOD     C132781  25.623  26.400  16.693  0.0011 -0.0018 -0.0008
29654DOD     C232782  25.645  26.503  17.128  0.0844 -0.2927 -0.2536
29654DOD     C332783  25.837  26.546  17.580  0.0547  0.2130 -0.2077
29655DOD     C132784  23.333  25.590   5.266  0.0321  0.1174 -0.0902
29655DOD     C232785  22.963  25.477   4.990 -0.1710  0.0507 -0.1314
29655DOD     C332786  22.596  25.719   4.860  0.1337 -0.4206 -0.2455
29656DOD     C132787  17.063  26.140   7.836 -0.0222 -0.2087 -0.1287
29656DOD     C232788  16.997  26.510   8.077 -0.2560 -0.0399 -0.3260
29656DOD     C332789  16.980  26.985   8.202 -0.2753 -0.0992 -0.1783
29657DOD     C132790  14.589  16.604  24.477  0.0433 -0.0162  0.0156
29657DOD     C232791  14.585  17.016  24.192  0.1124 -0.0237  0.3181
29657DOD     C332792  14.281  17.013  23.849  0.0329 -0.0356  0.0082
29658DOD     C132793   7.830  19.363  17.912  0.0292  0.4316 -0.0852
29658DOD     C232794   7.679  19.415  18.338 -0.2586 -0.2886 -0.1959
29658DOD     C332795   7.675  19.869  18.499  0.1495  0.0134  0.2674
29659DOD     C132796  13.562  24.678   8.283  0.2918  0.0378  0.2784
29659DOD     C232797  13.410  24.776   7.895  0.1794  0.0400 -0.2543
29659DOD     C332798  13.092  24.951   7.546  0.2566  0.1713 -0.2301
29660DOD     C132799  25.712  14.768   6.440  0.4221 -0.0925 -0.0029
29660DOD     C232800  25.711  15.125   6.112 -0.0893 -0.2563  0.0014
29660DOD     C332801  25.516  15.286   5.740 -0.0025 -0.0991  0.1808
29661DOD     C132802   9.410  25.218  26.828 -0.0447 -0.1437  0.1067
29661DOD     C232803   9.246  25.138  27.273 -0.0542  0.2309 -0.0045
29661DOD     C332804   8.874  25.327  27.478 -0.0318 -0.2112 -0.0658
29662DOD     C132805   4.607  21.638   1.777 -0.2457  0.5619 -0.0698
29662DOD     C232806   4.883  21.468   1.443  0.0951  0.1770  0.0484
29662DOD     C332807   5.130  21.194   1.127 -0.1176 -0.1395  0.2874
29663DOD     C132808  13.931  18.181   6.086  0.2225 -0.0551  0.3015
29663DOD     C232809  13.724  18.552   6.038  0.1295  0.0458  0.2295
29663DOD     C332810  13.284  18.687   5.997 -0.0656  0.3028 -0.0072
29664DOD     C132811  22.594  22.134   7.652  0.2157  0.2489 -0.0158
29664DOD     C232812  23.019  21.987   7.633 -0.2136  0.1683 -0.1773
29664DOD     C332813  23.475  21.916   7.478 -0.0191 -0.2155 -0.1300
29665DOD     C132814  15.097  12.692   3.039  0.2201 -0.2516 -0.1111
29665DOD     C232815  14.858  13.046   3.301 -0.1388  0.2337 -0.2535
29665DOD     C332816  14.621  13.087   3.712 -0.1423  0.1985  0.1872
29666DOD     C132817  29.374  29.156  24.176 -0.0832  0.1073  0.0712
29666DOD     C232818  29.532  28.675  24.199 -0.0511 -0.1607  0.0920
29666DOD     C332819  29.413  28.298  24.182 -0.3535  0.0334 -0.1566
29667DOD     C132820   4.259   6.073  27.875 -0.1277  0.0070  0.2690
29667DOD     C232821   4.735   6.207  27.792 -0.2755  0.0836  0.3613
29667DOD     C332822   5.196   6.381  27.727 -0.1117  0.1694 -0.0698
29668DOD     C132823  21.945   6.980  24.194 -0.3827 -0.2579 -0.0283
29668DOD     C232824  21.951   7.204  24.601  0.0395 -0.2182  0.1313
29668DOD     C332825  21.888   7.633  24.762  0.0187 -0.0561  0.2362
29669DOD     C132826  11.971  12.066   0.407 -0.0257 -0.0593  0.1757
29669DOD     C232827  11.809  12.511   0.345 -0.1197 -0.3664  0.2453
29669DOD     C332828  11.800  12.994   0.483 -0.0853 -0.1744 -0.3604
29670DOD     C132829  16.499  17.456   9.832  0.3572  0.0658  0.1705
29670DOD     C232830  16.391  17.128   9.480  0.4230 -0.1282  0.1666
29670DOD     C332831  16.429  16.665   9.252 -0.3653 -0.0983 -0.1953
29671DOD     C132832  29.642  16.133  20.006 -0.0018 -0.1014  0.1417
29671DOD     C232833  29.340  16.423  20.108 -0.3417  0.1828 -0.1331
29671DOD     C332834  29.202  16.837  20.028 -0.3685 -0.2144  0.2483
29672DOD     C132835  20.671  13.030  23.234 -0.2395  0.0927 -0.0263
29672DOD     C232836  20.522  12.633  23.385 -0.1754 -0.0320  0.2025
29672DOD     C332837  20.755  12.270  23.532  0.0918  0.1880  0.1687
29673DOD     C132838   8.914  21.336  15.142  0.2631 -0.1781 -0.0094
29673DOD     C232839   8.504  21.238  15.037  0.1605 -0.1655  0.0542
29673DOD     C332840   8.042  21.399  15.072  0.4679 -0.4599  0.0231
29674DOD     C132841   7.246   9.148   3.102 -0.1305 -0.1507 -0.0309
29674DOD     C232842   7.674   9.033   3.258  0.0064  0.2166 -0.0365
29674DOD     C332843   8.107   9.029   3.111 -0.0561 -0.2527  0.0543
29675DOD     C132844  12.566  30.174  10.545 -0.3847  0.0901 -0.1067
29675DOD     C232845  12.674  -0.049  11.013 -0.0819 -0.4334  0.0653
29675DOD     C332846  12.750   0.062  11.433 -0.2018 -0.0535  0.0701
29676DOD     C132847   5.425  22.144   0.176  0.0396 -0.1165  0.1391
29676DOD     C232848   5.727  21.955  30.184 -0.0616 -0.3017 -0.2391
29676DOD     C332849   6.156  21.968  29.985 -0.1644  0.0152 -0.1053
29677DOD     C132850   2.701  10.099   4.586  0.0673 -0.1736 -0.1036
29677DOD     C232851   2.866  10.563   4.642  0.1021 -0.1812 -0.1370
29677DOD     C332852   3.235  10.859   4.503  0.0985 -0.1452  0.4523
29678DOD     C132853  13.027  17.784   6.918 -0.0739 -0.0919  0.1805
29678DOD     C232854  12.802  17.421   6.724  0.1511  0.1174 -0.0278
29678DOD     C332855  12.376  17.172   6.807  0.2045  0.2796 -0.0205
29679DOD     C132856  17.469  23.548  19.830 -0.2749  0.1246  0.0398
29679DOD     C232857  17.703  23.282  20.155  0.3037  0.0846  0.2802
29679DOD     C332858  18.001  22.979  20.293  0.3144 -0.1835 -0.0805
29680DOD     C132859   7.197   8.561   7.087 -0.3380  0.4067 -0.0327
29680DOD     C232860   6.854   8.396   6.872  0.1388  0.1701  0.0655
29680DOD     C332861   6.395   8.270   6.760 -0.2816 -0.0337  0.1840
29681DOD     C132862  23.371  12.812   5.329 -0.1583  0.0592 -0.1412
29681DOD     C232863  22.964  12.932   5.437  0.0933  0.0592  0.0587
29681DOD     C332864  22.579  12.707   5.302 -0.3739  0.0234  0.0497
29682DOD     C132865   6.865  23.724  20.602  0.1192  0.1856 -0.2242
29682DOD     C232866   6.718  23.331  20.409  0.0239  0.1343  0.1524
29682DOD     C332867   6.650  22.868  20.571 -0.1572 -0.3584  0.1018
29683DOD     C132868  28.793  22.219   7.227 -0.3691 -0.1255  0.1591
29683DOD     C232869  29.045  22.614   7.343 -0.0374 -0.0632 -0.2236
29683DOD     C332870  29.456  22.629   7.225 -0.0814 -0.1959 -0.3312
29684DOD     C132871   8.670  10.536   5.544 -0.1823 -0.1585 -0.0292
29684DOD     C232872   9.005  10.835   5.561 -0.0651  0.0332 -0.0597
29684DOD     C332873   9.216  11.295   5.409 -0.1780  0.2166 -0.2425
29685DOD     C132874  28.191   2.421  12.845 -0.1177 -0.1913  0.0105
29685DOD     C232875  27.767   2.183  12.934  0.0592  0.0567  0.3852
29685DOD     C332876  27.674   1.981  13.321 -0.0530  0.3576 -0.0355
29686DOD     C132877  18.195  30.004  14.656  0.0154 -0.0948  0.1961
29686DOD     C232878  18.545  30.090  14.406  0.0673  0.1878 -0.0457
29686DOD     C332879  18.937  30.098  14.084 -0.0874  0.0117  0.1082
29687DOD     C132880   8.825  19.345   6.380 -0.0488 -0.1412  0.0654
29687DOD     C232881   8.741  18.980   5.955  0.1399 -0.2554 -0.1664
29687DOD     C332882   8.713  18.566   6.025 -0.0311 -0.1441 -0.3219
29688DOD     C132883  20.440   5.164  10.450 -0.1139  0.0040  0.1751
29688DOD     C232884  20.182   4.851  10.184 -0.0507 -0.1185  0.0459
29688DOD     C332885  19.806   4.763   9.852 -0.2947 -0.0197  0.2043
29689DOD     C132886   4.671   2.551  27.149  0.0982 -0.2242  0.3016
29689DOD     C232887   5.032   2.290  27.318  0.0352  0.3092 -0.1649
29689DOD     C332888   5.481   2.355  27.383 -0.0104  0.2264 -0.1373
29690DOD     C132889  29.394   6.323  13.975 -0.1285 -0.0046 -0.1414
29690DOD     C232890  29.320   6.754  13.902  0.0130 -0.0031  0.2452
29690DOD     C332891  29.055   7.104  13.793  0.2140 -0.2050 -0.3057
29691DOD     C132892  11.045  21.361  12.710  0.0057  0.1045 -0.1595
29691DOD     C232893  11.218  21.228  12.262  0.1097  0.0873 -0.0225
29691DOD     C332894  10.974  20.980  11.921  0.2579 -0.4866  0.3771
29692DOD     C132895   8.276   9.944  21.475 -0.0330  0.3102  0.2591
29692DOD     C232896   7.789   9.835  21.496 -0.0704  0.1212  0.0111
29692DOD     C332897   7.297   9.738  21.456 -0.0521 -0.1686  0.1158
29693DOD     C132898  28.945  29.068  13.416  0.2514  0.3526 -0.1408
29693DOD     C232899  28.676  28.725  13.575 -0.3825 -0.0456  0.1211
29693DOD     C332900  28.584  28.298  13.733  0.3834  0.1901 -0.0523
29694DOD     C132901  27.806  14.605  25.699  0.2040 -0.0213 -0.0015
29694DOD     C232902  28.107  14.254  25.866  0.0444  0.4011  0.1517
29694DOD     C332903  28.051  13.776  25.870 -0.0177 -0.1544  0.0972
29695DOD     C132904   8.404  29.185   4.390 -0.0339  0.0642  0.1991
29695DOD     C232905   8.683  28.772   4.487  0.0184 -0.1115  0.1925
29695DOD     C332906   8.903  28.318   4.399 -0.1486 -0.0187 -0.1185
29696DOD     C132907   8.480  20.138  19.037 -0.0369 -0.3265 -0.1133
29696DOD     C232908   8.858  20.081  18.844 -0.2235  0.0665  0.1870
29696DOD     C332909   8.907  20.023  18.385  0.0294 -0.1311 -0.0016
29697DOD     C132910   8.881   0.045  29.110  0.0128  0.1305  0.0649
29697DOD     C232911   8.803  29.880  28.954  0.0475 -0.1857 -0.0735
29697DOD     C332912   8.566  29.564  28.748 -0.1449  0.1507  0.1729
29698DOD     C132913  11.151   8.072   0.232  0.3343  0.0397  0.0638
29698DOD     C232914  11.127   8.533   0.163  0.1285 -0.2349 -0.1823
29698DOD     C332915  11.338   8.943  30.260 -0.1360  0.1072 -0.1862
29699DOD     C132916   0.165  22.189  10.763  0.1392 -0.2775 -0.0504
29699DOD     C232917   0.472  22.354  10.399 -0.1020  0.0603  0.1978
29699DOD     C332918   0.627  22.574  10.042 -0.1794 -0.1088  0.1492
29700DOD     C132919   4.266  14.566   1.074  0.1334  0.1078 -0.0605
29700DOD     C232920   4.269  15.005   1.284 -0.0151 -0.0312 -0.2732
29700DOD     C332921   4.535  15.259   1.552 -0.3460 -0.2627 -0.2225
29701DOD     C132922   5.904  14.457  20.092 -0.0921  0.1147 -0.4458
29701DOD     C232923   5.785  14.566  20.545  0.2356  0.2549  0.0211
29701DOD     C332924   5.735  14.225  20.821 -0.4715  0.1514  0.0255
29702DOD     C132925   0.324  26.953   4.901  0.0497 -0.2481 -0.0232
29702DOD     C232926   0.057  27.184   4.668 -0.0270 -0.0637 -0.1800
29702DOD     C332927  29.975  27.468   4.578  0.3318  0.0862 -0.4378
29703DOD     C132928   5.192   7.109   2.990  0.3381  0.2771  0.0212
29703DOD     C232929   4.930   7.355   3.285 -0.0769 -0.1166 -0.1479
29703DOD     C332930   4.496   7.369   3.384  0.1626 -0.1277 -0.0452
29704DOD     C132931  24.072  21.022  27.633  0.0945  0.2641 -0.0589
29704DOD     C232932  23.822  20.963  28.036  0.0538  0.1515  0.0236
29704DOD     C332933  23.983  20.870  28.438  0.0637  0.1445  0.0133
29705DOD     C132934  30.176  23.931  19.527 -0.4306  0.2694 -0.0914
29705DOD     C232935  29.935  23.503  19.514 -0.5962  0.3625 -0.0034
29705DOD     C332936  29.928  23.083  19.393  0.0375 -0.1063  0.1997
29706DOD     C132937  16.534   3.037   5.511 -0.0236  0.1250 -0.0413
29706DOD     C232938  16.716   3.338   5.782 -0.2870 -0.1787 -0.2095
29706DOD     C332939  17.040   3.545   6.072  0.4618 -0.1768 -0.0288
29707DOD     C132940   2.559  24.021  27.618 -0.3323  0.0786  0.1363
29707DOD     C232941   2.913  24.156  27.858 -0.0993  0.1168  0.0148
29707DOD     C332942   3.334  24.392  27.856  0.1407 -0.1312 -0.1349
29708DOD     C132943  13.815  27.611  18.609  0.2676 -0.2546 -0.1556
29708DOD     C232944  13.385  27.483  18.528 -0.0349  0.0444 -0.2905
29708DOD     C332945  13.256  27.101  18.763  0.3195  0.0265  0.2298
29709DOD     C132946  11.892  11.193  18.347  0.2927 -0.3442 -0.0356
29709DOD     C232947  11.784  10.947  17.995 -0.0888  0.2715 -0.1634
29709DOD     C332948  11.571  10.665  17.687  0.1176 -0.1237 -0.2660
29710DOD     C132949   5.202  21.050  19.881 -0.1522 -0.1075  0.2149
29710DOD     C232950   5.654  20.964  19.753 -0.2371  0.0962  0.0391
29710DOD     C332951   5.989  20.793  19.548  0.0477 -0.3119 -0.2247
29711DOD     C132952   6.912  22.868  27.393  0.0394  0.2267 -0.2930
29711DOD     C232953   6.854  23.112  27.732 -0.2358  0.1202 -0.0484
29711DOD     C332954   6.998  23.295  28.144  0.0052  0.1905 -0.3538
29712DOD     C132955  15.358  25.531   7.357  0.1866  0.2272 -0.1186
29712DOD     C232956  15.674  25.259   7.147  0.1492  0.0054  0.0146
29712DOD     C332957  15.976  25.134   6.845 -0.0450  0.0610  0.0780
29713DOD     C132958   7.137   9.842  15.633  0.0680  0.2306 -0.0104
29713DOD     C232959   7.233  10.085  15.183 -0.4029  0.1290  0.2073
29713DOD     C332960   7.010  10.252  14.780 -0.1237  0.1031  0.0257
29714DOD     C132961   9.455  19.198  27.948  0.2403  0.0005 -0.1197
29714DOD     C232962   9.205  18.824  28.152  0.1213  0.0946  0.0049
29714DOD     C332963   8.718  18.617  28.072 -0.2392 -0.0983 -0.3192
29715DOD     C132964  27.935  14.549  12.138  0.4106 -0.0135  0.4968
29715DOD     C232965  27.901  14.994  12.323 -0.1337 -0.0829  0.0278
29715DOD     C332966  28.141  15.308  12.578  0.1937  0.0611  0.1099
29716DOD     C132967   5.348  11.582  12.394  0.1138  0.0294 -0.2947
29716DOD     C232968   5.171  11.144  12.423  0.2955 -0.1051 -0.1235
29716DOD     C332969   4.835  11.015  12.731 -0.1190 -0.1891 -0.0026
29717DOD     C132970  30.216  25.723  28.364 -0.1160 -0.0886 -0.0820
29717DOD     C232971  30.178  25.270  28.512  0.1217 -0.1005  0.0859
29717DOD     C332972  30.253  24.825  28.537 -0.0699  0.2317 -0.2858
29718DOD     C132973  16.234   4.458  15.680 -0.2402 -0.0332  0.2201
29718DOD     C232974  16.001   3.996  15.621  0.1101  0.1117  0.1904
29718DOD     C332975  15.654   3.678  15.510 -0.2995 -0.3380  0.1629
29719DOD     C132976  24.613  26.076  26.972 -0.0027  0.0889 -0.1108
29719DOD     C232977  25.065  26.036  27.184  0.3583  0.0859  0.2153
29719DOD     C332978  25.497  26.012  27.140 -0.2607  0.1334  0.1534
29720DOD     C132979   4.644  21.352  18.661  0.1288 -0.1882 -0.1793
29720DOD     C232980   4.925  21.019  18.702 -0.0503 -0.1228  0.1728
29720DOD     C332981   5.126  20.644  18.931 -0.0070  0.2035  0.2124
29721DOD     C132982   3.321  22.056  20.713  0.1531  0.2273 -0.0268
29721DOD     C232983   3.227  22.240  21.154 -0.0244  0.0066  0.0140
29721DOD     C332984   2.968  22.463  21.494  0.2985  0.0854 -0.0792
29722DOD     C132985   7.977  17.652  24.121 -0.1848  0.1262 -0.0493
29722DOD     C232986   8.374  17.420  24.136  0.2842  0.1812  0.3481
29722DOD     C332987   8.826  17.402  24.207 -0.1079  0.1410 -0.2639
29723DOD     C132988  27.226   8.517   3.400 -0.0365  0.0289 -0.0492
29723DOD     C232989  27.089   8.905   3.501  0.4468  0.1871 -0.2185
29723DOD     C332990  26.841   9.214   3.311  0.0824  0.1006 -0.0715
29724DOD     C132991  21.293   8.555   1.584 -0.0780 -0.2453 -0.0240
29724DOD     C232992  21.078   8.959   1.620 -0.1553  0.3802  0.0279
29724DOD     C332993  20.929   9.346   1.403  0.1597  0.1140 -0.2506
29725DOD     C132994  27.269   2.317   1.809 -0.0492  0.0904  0.1243
29725DOD     C232995  27.632   2.532   1.948  0.0512  0.0636 -0.0311
29725DOD     C332996  28.015   2.416   2.195  0.1223 -0.0555 -0.2463
29726DOD     C132997   4.966   4.537  11.064 -0.3722  0.0735 -0.0803
29726DOD     C232998   5.335   4.316  11.271  0.1260 -0.2725 -0.0745
29726DOD     C332999   5.573   4.568  10.978 -0.0551 -0.0781  0.0665
29727DOD     C133000  14.897  13.944  27.596  0.1506  0.0347  0.1664
29727DOD     C233001  15.310  13.855  27.837  0.5134  0.0424 -0.0292
29727DOD     C333002  15.623  14.240  27.892  0.0516 -0.3364  0.0689
29728DOD     C133003  15.876  20.066  24.447 -0.0940 -0.3221 -0.1296
29728DOD     C233004  15.604  20.242  24.823  0.1976  0.1802 -0.0456
29728DOD     C333005  15.238  20.601  24.881 -0.0501  0.2170 -0.0309
29729DOD     C133006   7.608  11.955  22.233  0.0318  0.1405 -0.1966
29729DOD     C233007   8.020  11.970  22.082  0.1436  0.0063 -0.1377
29729DOD     C333008   8.229  12.222  21.774 -0.0063  0.0917 -0.0113
29730DOD     C133009  21.501   6.263  24.395 -0.2621  0.0091 -0.1991
29730DOD     C233010  21.526   5.936  24.067  0.0235 -0.1471  0.4004
29730DOD     C333011  21.527   5.484  24.160 -0.1735 -0.2864  0.3235
29731DOD     C133012  29.214  19.610  15.938 -0.3826 -0.0338 -0.0401
29731DOD     C233013  29.034  19.944  15.680  0.1198  0.4163 -0.2175
29731DOD     C333014  28.721  20.226  15.446 -0.1280 -0.2754  0.0031
29732DOD     C133015  17.002  22.810  19.883  0.0617 -0.2321  0.1140
29732DOD     C233016  17.066  22.436  20.114 -0.2720 -0.3285 -0.0853
29732DOD     C333017  17.220  22.001  20.026  0.2019  0.0421 -0.2299
29733DOD     C133018   6.000  15.570   9.100 -0.0084 -0.0537 -0.2514
29733DOD     C233019   6.004  15.419   9.576 -0.1909 -0.2163  0.2175
29733DOD     C333020   6.149  15.569   9.977  0.1011 -0.0201 -0.0566
29734DOD     C133021  13.539   2.458  10.132 -0.3374 -0.2106  0.4793
29734DOD     C233022  13.958   2.585   9.982  0.0365 -0.0692  0.0348
29734DOD     C333023  14.388   2.604  10.181 -0.3019  0.2781  0.1662
29735DOD     C133024  29.887  29.404  13.445  0.0736  0.1468  0.1262
29735DOD     C233025  30.116  29.601  13.101 -0.1340  0.1390 -0.1483
29735DOD     C333026  30.121  29.634  12.618  0.0158 -0.1557  0.1248
29736DOD     C133027  29.107  19.238  16.393 -0.0045  0.0759 -0.2068
29736DOD     C233028  29.073  19.709  16.388  0.1039  0.1809  0.1044
29736DOD     C333029  29.216  20.109  16.259 -0.1651  0.1940 -0.0472
29737DOD     C133030  10.062   6.543   3.319 -0.1543  0.0067 -0.1929
29737DOD     C233031   9.861   6.534   3.705 -0.1705  0.0405  0.0110
29737DOD     C333032  10.052   6.646   4.134 -0.1970  0.0056  0.0813
29738DOD     C133033   5.273  15.208   3.250  0.0797  0.1636  0.0872
29738DOD     C233034   5.446  15.291   2.852 -0.1206 -0.0662  0.2669
29738DOD     C333035   5.718  15.275   2.490  0.0066 -0.0230  0.1839
29739DOD     C133036  18.461  26.069   1.916 -0.2448 -0.1013  0.0815
29739DOD     C233037  18.183  25.674   1.806  0.1616 -0.1905 -0.0157
29739DOD     C333038  17.915  25.435   1.481 -0.2207 -0.0311 -0.3143
29740DOD     C133039   4.831  12.255  19.202 -0.0021 -0.0849 -0.0921
29740DOD     C233040   4.722  12.519  18.861  0.1423 -0.2116 -0.3855
29740DOD     C333041   4.645  12.652  18.403  0.1972 -0.0094 -0.2735
29741DOD     C133042   1.073  11.578   0.370  0.1958  0.1009  0.3613
29741DOD     C233043   1.380  11.842   0.103 -0.1597 -0.1695 -0.2000
29741DOD     C333044   1.603  11.973  30.054 -0.1316  0.0657  0.4981
29742DOD     C133045  29.764  27.833  16.620 -0.1996 -0.1208  0.3004
29742DOD     C233046  29.302  27.896  16.388  0.0330 -0.2368 -0.1938
29742DOD     C333047  28.830  27.990  16.537 -0.0730 -0.1979  0.3206
29743DOD     C133048  18.676  29.977  28.055 -0.1140  0.2211 -0.2404
29743DOD     C233049  18.581  29.814  27.613  0.1210 -0.0841  0.3780
29743DOD     C333050  18.294  29.767  27.257 -0.0365  0.0911 -0.0369
29744DOD     C133051   1.970   6.403  21.231  0.1999 -0.0044  0.0369
29744DOD     C233052   1.847   6.830  21.040 -0.0107 -0.0380  0.1823
29744DOD     C333053   1.778   7.212  20.783 -0.1203  0.0768 -0.0166
29745DOD     C133054  19.189  29.832  22.918  0.2713 -0.0136 -0.2950
29745DOD     C233055  19.318  30.157  22.599  0.2727  0.3620 -0.1381
29745DOD     C333056  19.411   0.171  22.310  0.1818 -0.2420  0.2206
29746DOD     C133057   4.347  18.581  25.110  0.0422  0.0109 -0.2312
29746DOD     C233058   4.346  18.191  24.958  0.1182 -0.1960  0.2952
29746DOD     C333059   4.374  17.880  24.677 -0.0196  0.2200 -0.0867
29747DOD     C133060   5.736  12.552   5.483 -0.1718  0.2130  0.0157
29747DOD     C233061   6.127  12.796   5.548  0.1101  0.1081 -0.1361
29747DOD     C333062   6.435  13.138   5.702  0.1280 -0.1072  0.1233
29748DOD     C133063   6.439   9.818  12.037 -0.3221 -0.1207  0.0393
29748DOD     C233064   6.021   9.998  12.200  0.2539 -0.2574 -0.3040
29748DOD     C333065   5.932  10.214  12.647 -0.0775  0.0585 -0.4138
29749DOD     C133066   3.684  12.294  19.810  0.3408  0.2026  0.3785
29749DOD     C233067   4.113  12.349  19.643 -0.2105 -0.0610 -0.3555
29749DOD     C333068   4.354  12.152  19.309  0.1242  0.1096  0.2549
29750DOD     C133069  30.113  10.466  30.348  0.0983  0.1697  0.2261
29750DOD     C233070   0.046  10.844  30.256  0.1787  0.1972  0.0999
29750DOD     C333071   0.350  11.171  30.023 -0.2455 -0.4551 -0.1280
29751DOD     C133072   9.201   4.112  25.042  0.1546  0.0359 -0.1161
29751DOD     C233073   9.265   3.854  24.683  0.1686  0.1319  0.1117
29751DOD     C333074   9.155   3.653  24.267  0.2642 -0.0019 -0.0923
29752DOD     C133075  16.597  13.554  28.708  0.0580  0.0287 -0.0462
29752DOD     C233076  16.495  13.408  29.125  0.5690  0.1816 -0.0789
29752DOD     C333077  16.674  13.020  29.401  0.0575  0.1942  0.0994
29753DOD     C133078  15.512   0.738  19.462 -0.2530  0.1655  0.2128
29753DOD     C233079  15.825   0.558  19.118 -0.2922 -0.1396  0.4201
29753DOD     C333080  16.108   0.339  18.747 -0.2014  0.1775  0.0487
29754DOD     C133081   4.429   7.484  24.288  0.0015 -0.0690 -0.2619
29754DOD     C233082   4.841   7.520  24.012  0.2830  0.2683 -0.1299
29754DOD     C333083   4.907   7.723  23.621  0.4247 -0.0739 -0.0778
29755DOD     C133084  10.249  30.087  11.306  0.1787 -0.0437 -0.0067
29755DOD     C233085  10.338   0.127  11.611  0.0231 -0.0329  0.2255
29755DOD     C333086  10.646   0.217  11.965  0.0899  0.0496  0.1341
29756DOD     C133087   3.990  19.102  25.135  0.0874  0.0109  0.4180
29756DOD     C233088   4.189  18.899  24.714  0.1285 -0.0511  0.4273
29756DOD     C333089   4.386  18.705  24.324  0.0310  0.3146  0.0432
29757DOD     C133090   7.309   3.287  16.359 -0.0056  0.1071 -0.3562
29757DOD     C233091   6.856   3.105  16.224  0.3008 -0.0200 -0.0389
29757DOD     C333092   6.626   3.005  15.841  0.0485 -0.1646 -0.2014
29758DOD     C133093  27.112  23.514  20.316  0.1929 -0.3946  0.2591
29758DOD     C233094  26.885  23.936  20.343  0.1276  0.2829  0.1523
29758DOD     C333095  26.614  24.353  20.358 -0.0210 -0.1789 -0.0012
29759DOD     C133096   4.886   0.212  14.899  0.0102  0.0232 -0.1583
29759DOD     C233097   5.027   0.552  14.651  0.1047  0.0321 -0.0609
29759DOD     C333098   5.061   0.630  14.177  0.0097  0.1183  0.1481
29760DOD     C133099  18.020   2.611   8.167  0.0128 -0.0199 -0.1580
29760DOD     C233100  18.306   2.933   8.466  0.2797  0.1217  0.0544
29760DOD     C333101  18.417   3.070   8.856 -0.0485 -0.1628 -0.3393
29761DOD     C133102   1.792   0.746  27.419 -0.0168 -0.0339 -0.1327
29761DOD     C233103   2.086   1.070  27.241 -0.1444 -0.2668 -0.1260
29761DOD     C333104   2.420   1.215  26.974 -0.0412  0.0352  0.1111
29762DOD     C133105  23.612   5.305  13.287  0.1099 -0.1048  0.1476
29762DOD     C233106  23.210   5.066  13.361  0.0650  0.0250 -0.0539
29762DOD     C333107  23.105   4.650  13.548 -0.0009 -0.2031 -0.0752
29763DOD     C133108  21.431   2.392   7.494 -0.0537  0.0066  0.0643
29763DOD     C233109  21.948   2.379   7.552  0.2119 -0.2037 -0.1335
29763DOD     C333110  22.331   2.250   7.402 -0.2836 -0.1348 -0.0276
29764DOD     C133111   9.568   4.341  28.573 -0.1896  0.3011  0.0666
29764DOD     C233112   9.689   4.410  28.093  0.2301  0.0110 -0.2969
29764DOD     C333113   9.566   4.092  27.762 -0.5140  0.2175 -0.0550
29765DOD     C133114  24.999   0.137  19.348  0.2415  0.0888  0.1123
29765DOD     C233115  25.127   0.591  19.320  0.2914 -0.1945  0.1172
29765DOD     C333116  25.301   0.985  19.399 -0.1541 -0.0224 -0.1305
29766DOD     C133117  13.168   4.504  14.454 -0.2695  0.1176 -0.1848
29766DOD     C233118  13.356   4.589  14.001  0.2768  0.0332 -0.2909
29766DOD     C333119  13.210   4.732  13.610  0.0002 -0.1682 -0.1095
29767DOD     C133120  19.488  29.318   0.876  0.0702  0.1144 -0.2011
29767DOD     C233121  19.128  29.066   0.764 -0.1121 -0.0438  0.1050
29767DOD     C333122  18.817  28.712   0.852 -0.1530  0.0825 -0.3076
29768DOD     C133123  29.583   7.255  29.374 -0.1225  0.2626  0.1199
29768DOD     C233124  29.772   7.122  29.774 -0.1992  0.2295 -0.0640
29768DOD     C333125  29.914   6.717  30.012  0.2576  0.1127 -0.0336
29769DOD     C133126  22.355  21.470   6.018 -0.0868 -0.3488  0.0491
29769DOD     C233127  22.341  21.958   6.025 -0.2422 -0.0598  0.2341
29769DOD     C333128  22.283  22.435   6.006 -0.3604  0.1017  0.3090
29770DOD     C133129  28.869  25.075  13.106 -0.1201 -0.1238 -0.1828
29770DOD     C233130  29.308  25.183  13.328 -0.1447  0.0893  0.3507
29770DOD     C333131  29.617  25.442  13.535  0.3096  0.3248 -0.2975
29771DOD     C133132  16.353   2.013  14.120 -0.1886 -0.2289  0.1261
29771DOD     C233133  16.152   2.461  14.083 -0.0907  0.0617 -0.0200
29771DOD     C333134  16.297   2.861  13.901  0.1895 -0.0355 -0.0326
29772DOD     C133135  27.501   8.228   1.993 -0.0033 -0.1202  0.0505
29772DOD     C233136  27.462   8.555   2.276  0.1323 -0.0522  0.1300
29772DOD     C333137  27.351   8.748   2.644  0.0138 -0.3435 -0.0585
29773DOD     C133138  22.457  26.645  29.702  0.2079  0.1131  0.1466
29773DOD     C233139  22.600  26.431  29.376 -0.0312 -0.1449 -0.0042
29773DOD     C333140  22.741  26.220  29.042 -0.0604  0.0570 -0.1858
29774DOD     C133141  19.715  24.742   0.925  0.1566 -0.0452 -0.1612
29774DOD     C233142  19.977  25.082   1.024  0.0797  0.3820 -0.0883
29774DOD     C333143  20.248  25.037   1.424 -0.0714 -0.0407 -0.0656
29775DOD     C133144  30.249  25.648   8.667 -0.0090 -0.2598 -0.2193
29775DOD     C233145  30.167  25.612   8.189  0.2876 -0.1479 -0.0663
29775DOD     C333146  30.291  25.562   7.761 -0.1039 -0.0213  0.1082
29776DOD     C133147  11.792  20.189  21.855 -0.1140  0.2362  0.2044
29776DOD     C233148  12.005  19.783  21.840  0.0675  0.0121 -0.0830
29776DOD     C333149  12.263  19.503  22.067 -0.0951 -0.2573  0.0937
29777DOD     C133150  26.241   7.335  15.315 -0.0850  0.3637 -0.4283
29777DOD     C233151  26.632   7.570  15.303 -0.3252 -0.2656 -0.2479
29777DOD     C333152  26.899   7.921  15.525 -0.0905 -0.1898  0.0239
29778DOD     C133153  11.684  28.877  15.958  0.1524 -0.1558 -0.0218
29778DOD     C233154  11.720  28.479  16.069  0.1508 -0.1355 -0.1122
29778DOD     C333155  11.577  28.077  16.259 -0.0182 -0.0534 -0.2057
29779DOD     C133156  14.137  12.139  15.262 -0.0646  0.0029  0.4754
29779DOD     C233157  13.777  11.933  15.007 -0.0869  0.0052 -0.0770
29779DOD     C333158  13.838  11.539  14.818 -0.2479  0.1165 -0.0257
29780DOD     C133159   2.032  24.477   6.422  0.0819  0.1027 -0.3817
29780DOD     C233160   2.113  24.660   5.978  0.0219  0.0129  0.1161
29780DOD     C333161   2.182  24.596   5.509 -0.0343  0.1505  0.0179
29781DOD     C133162  20.926   3.000  30.045 -0.0388  0.0005 -0.2609
29781DOD     C233163  21.004   2.534  29.849  0.1481 -0.2937 -0.1204
29781DOD     C333164  20.738   2.169  29.885 -0.0781 -0.1677  0.1551
29782DOD     C133165  17.287   5.242  24.241 -0.2588  0.2168  0.0536
29782DOD     C233166  17.249   4.777  24.399  0.0014  0.1297 -0.1112
29782DOD     C333167  16.998   4.579  24.705  0.2061  0.2681  0.2354
29783DOD     C133168  26.264  30.279  23.027  0.2308  0.1411  0.1202
29783DOD     C233169  25.931   0.231  22.880  0.0343  0.0368 -0.0380
29783DOD     C333170  25.557   0.429  22.674  0.3082  0.2310  0.2447
29784DOD     C133171   0.528  22.761  16.586 -0.0247  0.2075 -0.0423
29784DOD     C233172   0.577  22.440  16.199 -0.0008 -0.1024  0.5730
29784DOD     C333173   0.967  22.193  15.988 -0.0407 -0.3406  0.2072
29785DOD     C133174  24.356  10.390  27.987 -0.0006 -0.0888 -0.0654
29785DOD     C233175  24.379  10.582  27.565  0.4475 -0.1739  0.0595
29785DOD     C333176  24.259  11.064  27.457 -0.1708 -0.0297  0.1714
29786DOD     C133177  29.005  26.015  26.651 -0.0173  0.1128 -0.0022
29786DOD     C233178  29.166  25.521  26.590  0.0173 -0.1284 -0.0381
29786DOD     C333179  29.260  25.149  26.835 -0.2917  0.1991 -0.1435
29787DOD     C133180   6.988   6.019   1.582  0.0134  0.0102 -0.0695
29787DOD     C233181   7.181   6.242   1.952 -0.1820 -0.3133  0.2721
29787DOD     C333182   7.313   6.651   2.043  0.3119  0.1068  0.1826
29788DOD     C133183   6.098   0.077   9.934 -0.1626 -0.0393  0.3627
29788DOD     C233184   5.654  30.245   9.997  0.1286  0.0826 -0.0792
29788DOD     C333185   5.334  29.892   9.965 -0.1875 -0.1284 -0.1051
29789DOD     C133186  10.512  12.499  18.750  0.1166 -0.2974 -0.0378
29789DOD     C233187  10.546  12.342  18.309  0.0405 -0.0972 -0.0946
29789DOD     C333188  10.526  12.380  17.861  0.1530 -0.2652 -0.1245
29790DOD     C133189  11.063   1.500  27.293 -0.2958  0.1219 -0.0012
29790DOD     C233190  10.698   1.590  27.541 -0.3476  0.0164 -0.1333
29790DOD     C333191  10.285   1.373  27.534  0.0848  0.0247  0.0480
29791DOD     C133192  26.032  19.456  17.105  0.0467 -0.1541  0.2403
29791DOD     C233193  25.964  19.040  17.369  0.0900 -0.2714 -0.3334
29791DOD     C333194  26.146  18.759  17.735  0.1666  0.1202  0.1403
29792DOD     C133195  15.128  15.178  13.482 -0.1537 -0.1491 -0.1373
29792DOD     C233196  14.890  14.888  13.239 -0.0363 -0.2086  0.2236
29792DOD     C333197  14.461  14.792  13.011  0.2883 -0.2803 -0.0424
29793DOD     C133198   9.956   0.237  23.408  0.0215  0.0514 -0.1924
29793DOD     C233199  10.321   0.518  23.246 -0.1919  0.2977  0.0116
29793DOD     C333200  10.606   0.397  22.851 -0.1604  0.1053  0.3230
29794DOD     C133201  20.353  26.867  16.889  0.2374  0.1018  0.2918
29794DOD     C233202  20.179  26.420  16.991 -0.2787 -0.1771 -0.0753
29794DOD     C333203  20.322  25.992  16.997  0.4546 -0.1348 -0.1381
29795DOD     C133204  25.503  14.391  19.881 -0.2389  0.2288 -0.0099
29795DOD     C233205  25.889  14.192  19.733 -0.1937  0.2157 -0.0555
29795DOD     C333206  26.010  13.753  19.752  0.5638  0.3979 -0.0506
29796DOD     C133207   2.916  17.886  29.218  0.1804 -0.3756 -0.1215
29796DOD     C233208   2.475  17.888  29.515 -0.2638 -0.1612 -0.0369
29796DOD     C333209   2.431  17.810  29.951  0.0141 -0.1717  0.1537
29797DOD     C133210   9.644  29.436  27.154 -0.1443 -0.0827  0.3670
29797DOD     C233211  10.010  29.606  27.354 -0.0227  0.0916 -0.0567
29797DOD     C333212  10.474  29.680  27.530 -0.0898  0.0423 -0.0955
29798DOD     C133213   3.382  23.435   1.150  0.3361  0.1749  0.1253
29798DOD     C233214   3.198  23.461   1.575 -0.2193  0.1312  0.0387
29798DOD     C333215   3.190  23.638   2.011  0.0779 -0.0769 -0.0351
29799DOD     C133216  18.456   8.878  27.361 -0.2894 -0.1830  0.1793
29799DOD     C233217  18.838   9.142  27.274  0.3368  0.0674 -0.1912
29799DOD     C333218  19.140   9.508  27.241  0.1694 -0.2536 -0.2138
29800DOD     C133219  20.834  16.969   8.318 -0.2851 -0.0260 -0.0138
29800DOD     C233220  20.898  17.048   7.851  0.3573 -0.2465  0.1088
29800DOD     C333221  20.858  17.365   7.552 -0.0000  0.0116 -0.0032
29801DOD     C133222  13.919  27.676  27.477  0.0260  0.0494 -0.0125
29801DOD     C233223  13.434  27.840  27.486 -0.3395 -0.2179  0.0745
29801DOD     C333224  13.075  27.702  27.701 -0.2162 -0.0508 -0.3059
29802DOD     C133225  14.426   3.120   0.128 -0.0763  0.1009  0.1397
29802DOD     C233226  14.795   2.866   0.053  0.2987 -0.0313  0.1095
29802DOD     C333227  14.908   2.385  30.287  0.0742 -0.1331  0.2081
29803DOD     C133228  18.516  16.567   8.743  0.0656  0.0191  0.1080
29803DOD     C233229  18.941  16.533   8.565 -0.1198 -0.1785  0.0761
29803DOD     C333230  19.284  16.476   8.291  0.0376  0.3312  0.0654
29804DOD     C133231  15.670  20.470  15.056  0.5068 -0.0342  0.0814
29804DOD     C233232  15.924  20.186  15.314  0.1174 -0.2235  0.0490
29804DOD     C333233  16.130  20.009  15.677  0.1218  0.0854 -0.0828
29805DOD     C133234  24.257  19.493  20.769  0.1164 -0.0886  0.1642
29805DOD     C233235  23.812  19.399  20.815 -0.1121 -0.2438  0.0101
29805DOD     C333236  23.423  19.257  21.031 -0.1422  0.1415  0.2650
29806DOD     C133237  20.539  28.134   5.403  0.0698 -0.0489  0.0737
29806DOD     C233238  20.752  28.110   5.006  0.0121 -0.1207 -0.1514
29806DOD     C333239  20.990  27.901   4.677  0.1193  0.0565  0.0359
29807DOD     C133240   1.939   1.035   9.246 -0.3307 -0.0943 -0.0077
29807DOD     C233241   1.525   1.214   9.164 -0.0606 -0.1347 -0.2005
29807DOD     C333242   1.067   1.318   9.135 -0.2376 -0.3177  0.3218
29808DOD     C133243  18.297   0.672   8.917 -0.0070 -0.0482 -0.0762
29808DOD     C233244  18.193   1.080   9.137 -0.0691 -0.3171  0.1628
29808DOD     C333245  18.157   1.569   9.112  0.1165  0.1072 -0.0161
29809DOD     C133246  24.314  16.264  13.182  0.0272 -0.2225  0.1815
29809DOD     C233247  24.672  15.981  13.300 -0.1811  0.0711  0.0157
29809DOD     C333248  25.054  15.651  13.327 -0.0025 -0.1731 -0.0046
29810DOD     C133249  29.163   3.884  13.982 -0.1463  0.0881  0.0214
29810DOD     C233250  29.316   3.922  13.501 -0.3726  0.2967 -0.0821
29810DOD     C333251  29.444   3.761  13.063  0.0866 -0.0499 -0.2149
29811DOD     C133252  22.022  29.515   1.108  0.0996 -0.1914  0.2860
29811DOD     C233253  22.203  29.223   0.779 -0.0802  0.0903  0.0200
29811DOD     C333254  22.446  28.996   0.472  0.0967 -0.2736 -0.0359
29812DOD     C133255   9.176  11.531   4.430 -0.1272  0.0663  0.1856
29812DOD     C233256   9.416  11.451   3.974  0.1647 -0.2308 -0.2861
29812DOD     C333257   9.844  11.304   3.862  0.1567  0.0921  0.1649
29813DOD     C133258  17.257  11.949   2.148 -0.1486 -0.1355  0.1412
29813DOD     C233259  17.489  11.581   2.402 -0.1114 -0.3494  0.0421
29813DOD     C333260  17.779  11.570   2.776  0.5549  0.1731 -0.1850
29814DOD     C133261  23.344   9.808   2.493 -0.1848  0.0273  0.0082
29814DOD     C233262  23.199   9.439   2.734  0.1285  0.1815  0.0523
29814DOD     C333263  23.121   9.290   3.150 -0.0886 -0.0409  0.2217
29815DOD     C133264  20.390   3.979   0.381  0.0856  0.0715 -0.0816
29815DOD     C233265  20.311   4.364   0.147 -0.0090 -0.0095 -0.3562
29815DOD     C333266  20.432   4.739  30.298 -0.1439 -0.0533  0.0474
29816DOD     C133267   8.991  29.256   4.418 -0.1522  0.2258 -0.1929
29816DOD     C233268   8.759  29.633   4.618  0.0265  0.0296  0.2313
29816DOD     C333269   8.700  30.138   4.774 -0.0249  0.1291 -0.0534
29817DOD     C133270  25.095   1.377  10.039  0.3047  0.0801 -0.0996
29817DOD     C233271  25.047   1.309  10.514  0.1965 -0.0900  0.1967
29817DOD     C333272  24.791   1.299  10.887  0.3443  0.0817  0.2447
29818DOD     C133273  14.848  29.598   1.302  0.0998 -0.1120 -0.0504
29818DOD     C233274  14.993  29.527   0.916  0.0271 -0.1051  0.1426
29818DOD     C333275  15.238  29.253   0.716  0.0636  0.0099  0.2087
29819DOD     C133276   1.240  12.964  15.335 -0.3230  0.0237 -0.3772
29819DOD     C233277   0.864  13.189  15.401  0.3077  0.3167  0.0923
29819DOD     C333278   0.870  13.656  15.363  0.0433  0.1053  0.0175
29820DOD     C133279  12.581   3.501  12.722  0.0838 -0.2728 -0.2972
29820DOD     C233280  12.277   3.304  13.015  0.1142 -0.2409 -0.1613
29820DOD     C333281  11.971   2.961  13.025 -0.0303  0.0883  0.0344
29821DOD     C133282   0.472  11.423  12.504  0.0299  0.0843 -0.1712
29821DOD     C233283   0.283  11.290  12.998  0.3788  0.3620  0.1999
29821DOD     C333284   0.147  10.908  13.211 -0.2554 -0.1276 -0.2161
29822DOD     C133285  20.734  13.298  26.841  0.1020 -0.1445  0.1867
29822DOD     C233286  20.760  13.027  26.485 -0.1818 -0.1848  0.5259
29822DOD     C333287  20.892  12.672  26.116 -0.1922  0.0423  0.2453
29823DOD     C133288   5.768  25.500  10.833  0.0492 -0.2330 -0.1086
29823DOD     C233289   5.340  25.309  10.883  0.0662 -0.2430  0.0634
29823DOD     C333290   4.911  25.360  10.897 -0.0034 -0.1405 -0.2347
29824DOD     C133291  21.428  21.498  15.388 -0.1180 -0.1214 -0.2688
29824DOD     C233292  21.839  21.441  15.626 -0.0866 -0.1581  0.1271
29824DOD     C333293  22.173  21.558  15.895 -0.0805 -0.2450 -0.3344
29825DOD     C133294  11.766   2.411  18.093 -0.0133  0.1251 -0.1594
29825DOD     C233295  12.154   2.684  17.901  0.0261  0.0497  0.0597
29825DOD     C333296  12.645   2.597  17.899 -0.0604  0.3186  0.0576
29826DOD     C133297  22.283  10.645  28.485 -0.4817  0.0187 -0.0686
29826DOD     C233298  22.563  10.260  28.377  0.0821 -0.0566 -0.1899
29826DOD     C333299  22.595   9.859  28.638  0.0331  0.2963 -0.1073
29827DOD     C133300  13.821   2.055  21.777 -0.1686 -0.2133 -0.0540
29827DOD     C233301  13.981   2.045  22.230  0.2764  0.2695  0.0199
29827DOD     C333302  13.734   1.920  22.580  0.0002  0.0400  0.1233
29828DOD     C133303   6.934   1.062  16.550 -0.0467  0.3354  0.0308
29828DOD     C233304   7.233   1.016  16.155 -0.1751  0.2367  0.3920
29828DOD     C333305   7.380   0.799  15.772 -0.1078 -0.1555  0.0692
29829DOD     C133306  14.791  27.726  14.822 -0.1217  0.3348  0.0844
29829DOD     C233307  15.177  27.972  14.883 -0.0638 -0.4147  0.0862
29829DOD     C333308  15.609  28.163  14.840 -0.0050  0.0852 -0.1493
29830DOD     C133309  18.782  14.305  27.357  0.1965 -0.0872  0.4159
29830DOD     C233310  18.602  14.770  27.378  0.2260  0.1338  0.1189
29830DOD     C333311  18.273  14.978  27.120 -0.0725  0.0335  0.1006
29831DOD     C133312  22.852   5.176   5.452 -0.6203 -0.1359 -0.0491
29831DOD     C233313  22.758   4.790   5.719  0.2311 -0.1145 -0.2622
29831DOD     C333314  22.446   4.452   5.922  0.2175  0.0755 -0.0137
29832DOD     C133315   2.126  28.895   2.017 -0.0072  0.0613 -0.2640
29832DOD     C233316   2.254  28.531   2.251  0.0365  0.0922 -0.0758
29832DOD     C333317   2.525  28.201   2.258 -0.0110 -0.0842 -0.0279
29833DOD     C133318   3.522   8.492   6.835  0.2176  0.0029  0.2816
29833DOD     C233319   3.788   8.136   7.002  0.0307 -0.1672  0.0096
29833DOD     C333320   3.771   7.664   7.143 -0.4267  0.2037  0.1403
29834DOD     C133321  28.053  22.789  13.017 -0.4198 -0.0356  0.2992
29834DOD     C233322  28.521  22.719  12.843 -0.1680 -0.2925  0.4460
29834DOD     C333323  28.754  22.657  12.455  0.0936  0.0128  0.1597
29835DOD     C133324  17.458  13.516  29.978 -0.0889  0.0073 -0.1581
29835DOD     C233325  17.208  13.200  29.890  0.0148 -0.4474 -0.0636
29835DOD     C333326  17.020  13.349  29.526  0.2995  0.0168  0.3801
29836DOD     C133327  25.948   6.219  10.872  0.0064 -0.0183 -0.0101
29836DOD     C233328  25.447   6.344  10.793  0.2183 -0.0857  0.1921
29836DOD     C333329  25.125   6.075  10.972 -0.2113  0.2518  0.2081
29837DOD     C133330  19.551   6.530  14.563 -0.0982  0.2407  0.1159
29837DOD     C233331  19.754   6.897  14.339 -0.1402 -0.1015  0.4457
29837DOD     C333332  19.543   7.081  13.973  0.1600 -0.3167  0.1791
29838DOD     C133333  13.683  12.436  20.523 -0.0168 -0.1136 -0.0623
29838DOD     C233334  14.076  12.233  20.304 -0.0372  0.1773  0.0811
29838DOD     C333335  14.019  11.965  19.958  0.3544  0.0355  0.0605
29839DOD     C133336  25.053  20.835   7.139  0.0459 -0.2892  0.2473
29839DOD     C233337  25.127  20.399   7.118  0.1829  0.0158 -0.2301
29839DOD     C333338  25.200  19.954   6.998  0.3783  0.0853 -0.1190
29840DOD     C133339  19.233  15.654  11.633  0.1901 -0.1397  0.0022
29840DOD     C233340  18.921  15.482  11.908  0.0216  0.0216 -0.2196
29840DOD     C333341  18.762  15.387  12.351 -0.0840  0.1140 -0.2864
29841DOD     C133342  29.294   0.945  24.000  0.0492  0.0303 -0.0297
29841DOD     C233343  29.651   0.694  24.103  0.1602 -0.0533  0.1044
29841DOD     C333344  30.066   0.455  24.087  0.0224  0.0392 -0.2696
29842DOD     C133345   2.017  18.507  10.099  0.0062 -0.0645  0.0248
29842DOD     C233346   1.592  18.697  10.060  0.0842  0.3491  0.4798
29842DOD     C333347   1.297  18.813  10.431 -0.0425 -0.1711  0.1269
29843DOD     C133348  21.566  15.347  19.906 -0.1264 -0.5100  0.1129
29843DOD     C233349  21.985  15.268  19.744  0.1072  0.1183  0.0788
29843DOD     C333350  22.330  15.106  19.471  0.0536 -0.1444 -0.3035
29844DOD     C133351  23.985  14.295   4.122 -0.0832 -0.0295  0.0158
29844DOD     C233352  24.336  14.618   4.031  0.0434 -0.2972 -0.0965
29844DOD     C333353  24.759  14.562   3.765 -0.1852 -0.1773 -0.1172
29845DOD     C133354  27.290   0.601  25.636 -0.0316  0.0545 -0.0133
29845DOD     C233355  27.139   0.854  25.916  0.0396  0.2263 -0.0630
29845DOD     C333356  26.768   1.221  25.976  0.0886  0.0078 -0.0584
29846DOD     C133357  27.771  16.621  26.815  0.4415  0.0926  0.2953
29846DOD     C233358  27.575  16.573  27.262  0.1711 -0.0482 -0.2052
29846DOD     C333359  27.292  16.348  27.649 -0.0163  0.0444 -0.1653
29847DOD     C133360  24.814  26.342   2.026 -0.1918  0.1016 -0.0721
29847DOD     C233361  25.173  26.091   2.177 -0.2363 -0.0737  0.3975
29847DOD     C333362  25.611  25.993   2.177  0.1096  0.0999  0.0924
29848DOD     C133363   0.416  18.970  28.597  0.1992  0.4588  0.1165
29848DOD     C233364  30.361  18.733  28.672  0.0913  0.1895  0.0476
29848DOD     C333365  30.061  18.366  28.756  0.1021  0.0451 -0.2521
29849DOD     C133366  29.792   9.604  26.310 -0.2665 -0.2232  0.2408
29849DOD     C233367  29.909   9.970  26.078 -0.0474 -0.1243 -0.3787
29849DOD     C333368  29.788  10.295  25.761  0.0784 -0.1811 -0.2470
29850DOD     C133369  27.946  28.621   0.812 -0.1784 -0.0155 -0.0346
29850DOD     C233370  27.555  28.726   0.513 -0.1845  0.2615 -0.3934
29850DOD     C333371  27.182  28.903   0.308 -0.0265 -0.1080 -0.0279
29851DOD     C133372  18.493  21.116   8.628  0.4051  0.2188 -0.0082
29851DOD     C233373  18.354  21.142   8.195  0.0325 -0.2872 -0.2722
29851DOD     C333374  18.121  21.083   7.798  0.0731 -0.0736  0.0926
29852DOD     C133375  26.690  26.386   9.460  0.1149 -0.0319  0.1634
29852DOD     C233376  27.063  26.127   9.465 -0.0302  0.1616  0.0918
29852DOD     C333377  27.388  26.142   9.827 -0.3227  0.2616 -0.1955
29853DOD     C133378  26.624   9.057  24.481  0.2121  0.1750  0.1284
29853DOD     C233379  26.279   8.882  24.800 -0.2320  0.0861 -0.2945
29853DOD     C333380  26.277   9.017  25.199 -0.1401  0.0164  0.0969
29854DOD     C133381  16.311   2.932  20.242  0.0868 -0.1842 -0.2070
29854DOD     C233382  16.045   3.337  20.191  0.0781  0.2181 -0.1723
29854DOD     C333383  15.772   3.726  20.218  0.3574 -0.1082 -0.0164
29855DOD     C133384  22.075   1.808  12.882  0.0804 -0.0113 -0.0525
29855DOD     C233385  22.203   1.452  12.684  0.0829  0.1321  0.0685
29855DOD     C333386  22.127   1.046  12.460 -0.2263  0.0374 -0.2739
29856DOD     C133387   5.321  13.095   1.648 -0.1042 -0.2231  0.2691
29856DOD     C233388   5.532  13.460   1.423 -0.0747  0.4066  0.1141
29856DOD     C333389   5.697  13.479   1.021 -0.0186 -0.0562 -0.1478
29857DOD     C133390  18.610   1.249   8.499 -0.3261  0.0805  0.0242
29857DOD     C233391  18.363   0.907   8.336 -0.0929  0.2800  0.3081
29857DOD     C333392  18.352   0.451   8.250  0.2451 -0.1793 -0.3601
29858DOD     C133393   2.734  16.602  27.242  0.0045  0.0931 -0.1621
29858DOD     C233394   2.913  17.002  27.471  0.1892 -0.0292  0.3190
29858DOD     C333395   3.239  17.366  27.618 -0.0641 -0.0425  0.3709
29859DOD     C133396  28.256  11.122  17.676 -0.0550 -0.0802 -0.0043
29859DOD     C233397  28.405  11.377  17.323 -0.1667  0.0125  0.1710
29859DOD     C333398  28.386  11.845  17.191 -0.1795 -0.1325 -0.2356
29860DOD     C133399  12.253   5.580  14.897  0.1031  0.1485  0.0848
29860DOD     C233400  12.430   5.985  14.733 -0.1064 -0.2961  0.2443
29860DOD     C333401  12.875   6.231  14.621 -0.0402  0.1606 -0.0153
29861DOD     C133402  18.212  20.696   9.032  0.0339 -0.2924  0.0943
29861DOD     C233403  18.196  20.649   8.576 -0.1461  0.2854 -0.0936
29861DOD     C333404  18.380  20.266   8.349  0.1133  0.0999  0.1816
29862DOD     C133405   0.372  22.045  17.088  0.0772  0.1448  0.0689
29862DOD     C233406   0.486  21.756  17.411 -0.1968 -0.3191 -0.2068
29862DOD     C333407   0.469  21.904  17.884  0.1101 -0.1921 -0.0377
29863DOD     C133408  20.403  13.387   1.346  0.2748  0.0651 -0.0999
29863DOD     C233409  20.166  13.396   1.780  0.1298 -0.1202 -0.1956
29863DOD     C333410  19.721  13.348   1.913  0.0594  0.2953 -0.1187
29864DOD     C133411  19.830   0.162   2.123  0.2168  0.2327  0.1113
29864DOD     C233412  20.096  30.108   2.160  0.0418  0.2451 -0.1914
29864DOD     C333413  20.535  29.936   2.070  0.1562  0.3547  0.1945
29865DOD     C133414   0.318  12.556  23.842  0.0943 -0.1253  0.0717
29865DOD     C233415   0.322  13.019  23.897  0.0841  0.4210 -0.4151
29865DOD     C333416   0.451  13.434  23.796 -0.4487 -0.0982  0.0482
29866DOD     C133417   0.078  10.572   5.331  0.0708  0.0026  0.0363
29866DOD     C233418  30.091  10.838   5.500  0.1198  0.0274 -0.3811
29866DOD     C333419  29.797  11.166   5.379  0.0772 -0.2779  0.1734
29867DOD     C133420  16.198  18.011  21.824  0.3142 -0.1659 -0.3381
29867DOD     C233421  16.163  17.535  22.026  0.0970  0.3271 -0.0076
29867DOD     C333422  16.093  17.145  21.805  0.2182 -0.2314 -0.1044
29868DOD     C133423   6.238  23.733  22.838 -0.1315  0.1377  0.1330
29868DOD     C233424   6.713  23.606  22.838  0.0614  0.2236  0.0553
29868DOD     C333425   7.124  23.484  22.913  0.0336  0.1947 -0.0873
29869DOD     C133426  15.478   0.681   8.932 -0.2619  0.2089 -0.0723
29869DOD     C233427  15.807   0.727   9.319 -0.0018 -0.2817 -0.2018
29869DOD     C333428  16.125   0.911   9.574 -0.1998 -0.0363 -0.0716
29870DOD     C133429  25.001   7.461  27.758  0.0893 -0.0616  0.3498
29870DOD     C233430  24.700   7.840  27.643  0.0686 -0.1115 -0.5859
29870DOD     C333431  24.611   8.038  27.224  0.0266 -0.0438  0.0871
29871DOD     C133432  13.965   6.784   7.634  0.0906  0.0262  0.1817
29871DOD     C233433  14.055   6.328   7.672  0.1390  0.0902 -0.0158
29871DOD     C333434  13.848   5.933   7.798 -0.3730  0.2712 -0.1989
29872DOD     C133435  17.213  28.595   3.284  0.2736 -0.1636  0.1852
29872DOD     C233436  16.994  28.473   2.823 -0.2174 -0.0576 -0.3220
29872DOD     C333437  16.639  28.186   2.758  0.0066  0.0876  0.0890
29873DOD     C133438  27.326   9.478   1.813  0.1681  0.2263 -0.1195
29873DOD     C233439  26.870   9.408   1.914 -0.0467 -0.1760  0.0780
29873DOD     C333440  26.510   9.431   2.130 -0.0932  0.1589 -0.1980
29874DOD     C133441  23.083  18.799   2.942  0.1409  0.3045 -0.0935
29874DOD     C233442  23.272  18.733   3.390 -0.0765  0.3064 -0.0150
29874DOD     C333443  23.404  18.504   3.752  0.1879 -0.0154 -0.2842
29875DOD     C133444  30.012  21.730  23.922  0.2003 -0.1186  0.2049
29875DOD     C233445  29.880  21.414  24.264 -0.0300 -0.2248  0.0778
29875DOD     C333446  29.410  21.387  24.313  0.3469 -0.0001 -0.1472
29876DOD     C133447   0.701  29.466  22.919 -0.2093 -0.1029  0.0088
29876DOD     C233448   0.767  29.875  23.172  0.1990  0.0655 -0.0058
29876DOD     C333449   0.875  30.251  23.379 -0.0756 -0.1819  0.0304
29877DOD     C133450  27.276  23.998   3.206  0.2968 -0.1301 -0.1071
29877DOD     C233451  27.781  23.907   3.244 -0.1557 -0.0729  0.1020
29877DOD     C333452  28.025  23.685   3.519  0.2111 -0.1796  0.0747
29878DOD     C133453  16.576  15.595   1.236 -0.5304  0.2043  0.2506
29878DOD     C233454  16.474  15.357   1.672  0.3266 -0.0304  0.0307
29878DOD     C333455  16.744  15.246   1.928  0.2474 -0.2858  0.0610
29879DOD     C133456  18.944  29.566   1.722 -0.3282  0.0284 -0.1367
29879DOD     C233457  18.846  30.025   1.808 -0.0060 -0.2177  0.1576
29879DOD     C333458  18.905   0.165   1.678  0.1969 -0.2105 -0.1398
29880DOD     C133459  23.947   0.064  13.642  0.0585 -0.0931  0.1751
29880DOD     C233460  23.862   0.321  13.990  0.0771  0.0961 -0.5201
29880DOD     C333461  23.473   0.419  14.210  0.2789 -0.1561 -0.0845
29881DOD     C133462  21.891   7.564  13.088  0.1503  0.0405  0.0857
29881DOD     C233463  21.841   7.880  13.445  0.1208  0.0560  0.0165
29881DOD     C333464  21.509   7.762  13.805  0.1407 -0.0126  0.1234
29882DOD     C133465   9.440  13.252  28.799  0.0039 -0.0485  0.0004
29882DOD     C233466   9.633  13.281  29.254 -0.0452  0.2115 -0.1470
29882DOD     C333467   9.433  13.305  29.670 -0.0170  0.1296 -0.3029
29883DOD     C133468  24.534  19.716  15.276  0.0506 -0.0393 -0.0774
29883DOD     C233469  24.267  19.492  14.919  0.0104  0.2512 -0.1394
29883DOD     C333470  23.999  19.339  14.579 -0.2162  0.0240 -0.1055
29884DOD     C133471  15.269  21.771   7.456 -0.1695  0.0290 -0.1320
29884DOD     C233472  15.556  22.182   7.469  0.1114 -0.3977  0.0574
29884DOD     C333473  15.822  22.372   7.174  0.0312 -0.2546  0.0628
29885DOD     C133474  15.755  21.075  22.414  0.1758  0.1212 -0.0766
29885DOD     C233475  15.550  21.489  22.260  0.3100 -0.0423  0.0361
29885DOD     C333476  15.399  21.916  22.260  0.2482 -0.6475 -0.3615
29886DOD     C133477  23.509  16.554   7.908 -0.2580  0.1644  0.2720
29886DOD     C233478  23.926  16.319   7.961  0.0641 -0.0990  0.3522
29886DOD     C333479  24.383  16.280   7.742  0.0088  0.0591  0.1087
29887DOD     C133480  27.139  10.036  26.022  0.0939 -0.0834  0.2276
29887DOD     C233481  27.111  10.289  25.646  0.2327  0.1937  0.0063
29887DOD     C333482  27.375  10.252  25.263 -0.1619  0.1761  0.3232
29888DOD     C133483   4.278   1.450  20.789  0.1646  0.0096 -0.1688
29888DOD     C233484   4.504   1.082  20.812 -0.1169  0.1926 -0.1193
29888DOD     C333485   4.998   0.976  20.721  0.1400 -0.1655 -0.0205
29889DOD     C133486  10.768  23.011   2.562 -0.0938 -0.0582 -0.1066
29889DOD     C233487  10.556  22.755   2.937  0.4083  0.0130  0.2118
29889DOD     C333488  10.536  22.514   3.396 -0.2765 -0.3490 -0.1376
29890DOD     C133489   0.587  27.690   6.836  0.1975 -0.0930 -0.1472
29890DOD     C233490   0.335  27.587   6.446  0.0366 -0.0757  0.3705
29890DOD     C333491   0.118  27.616   6.050 -0.0065  0.2433 -0.2345
29891DOD     C133492   8.087  15.237  24.399 -0.1141  0.1434  0.0873
29891DOD     C233493   7.934  15.615  24.557  0.0157 -0.4041 -0.1173
29891DOD     C333494   7.666  15.941  24.495  0.0552  0.3210  0.3705
29892DOD     C133495  16.416   3.097  20.797  0.0694  0.3673 -0.1509
29892DOD     C233496  16.079   3.128  21.140  0.0161  0.4150  0.1681
29892DOD     C333497  15.657   3.294  21.290 -0.0496  0.1719 -0.0432
29893DOD     C133498  15.188  26.373  23.754  0.3851 -0.2874  0.1078
29893DOD     C233499  15.256  26.123  23.349  0.1273  0.2058 -0.0586
29893DOD     C333500  15.658  25.916  23.251  0.0599 -0.1628  0.0142
29894DOD     C133501  23.137   9.869   4.720  0.0178  0.2098  0.3012
29894DOD     C233502  22.986   9.749   4.289 -0.1941 -0.1920  0.1315
29894DOD     C333503  22.798   9.847   3.869  0.1418  0.3145  0.2133
29895DOD     C133504  24.771   3.322   1.014 -0.2883 -0.4095  0.1807
29895DOD     C233505  25.080   3.420   1.304 -0.1812 -0.0989 -0.0144
29895DOD     C333506  25.474   3.358   1.596 -0.0890 -0.0506  0.0645
29896DOD     C133507  19.020  23.369  12.670  0.0710 -0.0505 -0.1823
29896DOD     C233508  18.625  23.185  12.898  0.0682  0.1023  0.0714
29896DOD     C333509  18.233  22.942  12.723 -0.5126  0.0552 -0.1063
29897DOD     C133510   5.291   4.234   9.369 -0.1114  0.1024 -0.0659
29897DOD     C233511   5.651   4.259   9.673  0.3425  0.0848 -0.0107
29897DOD     C333512   5.956   4.478   9.977  0.4077  0.2179 -0.0578
29898DOD     C133513  14.333  27.102   2.257 -0.2674 -0.0324 -0.0635
29898DOD     C233514  14.344  26.967   2.692  0.0774 -0.1491 -0.0123
29898DOD     C333515  14.680  27.044   3.009  0.0231 -0.1606 -0.2544
29899DOD     C133516   8.565  22.491   5.594 -0.3332  0.1139  0.0094
29899DOD     C233517   8.799  22.843   5.857  0.1195  0.0296  0.0018
29899DOD     C333518   8.703  23.168   6.158 -0.3799 -0.0947 -0.0505
29900DOD     C133519   8.586  13.806  29.764  0.2624  0.1133 -0.1766
29900DOD     C233520   8.145  13.944  29.887  0.1205 -0.1507  0.0009
29900DOD     C333521   7.791  14.217  30.064 -0.0737  0.0333 -0.0037
29901DOD     C133522  23.174  15.028  14.278 -0.0128  0.2779 -0.1987
29901DOD     C233523  22.896  14.918  13.897 -0.1661 -0.2205 -0.0730
29901DOD     C333524  22.657  14.828  13.493  0.0355  0.0979 -0.3823
29902DOD     C133525  27.887  26.784  10.304 -0.0638  0.1006 -0.3314
29902DOD     C233526  28.147  26.858  10.700 -0.1460 -0.2497 -0.2173
29902DOD     C333527  28.322  27.083  11.082  0.1783 -0.0393  0.1405
29903DOD     C133528  26.096  12.996   5.638  0.2006 -0.0773 -0.0913
29903DOD     C233529  26.506  13.096   5.477  0.0554 -0.1658 -0.1968
29903DOD     C333530  26.917  13.028   5.353 -0.1448  0.0095  0.0723
29904DOD     C133531   0.153   4.169  29.980  0.3363  0.0615  0.1533
29904DOD     C233532  30.083   4.283  29.758 -0.2264 -0.0794 -0.1164
29904DOD     C333533  29.896   4.588  29.555 -0.0512 -0.0872 -0.1385
29905DOD     C133534  29.876  25.039  12.095  0.0622  0.3145 -0.2262
29905DOD     C233535  29.870  24.781  12.446  0.0126 -0.1938 -0.1060
29905DOD     C333536  29.738  24.603  12.856  0.0484  0.2582 -0.2362
29906DOD     C133537   1.543  12.571  22.790  0.0074 -0.0652 -0.1257
29906DOD     C233538   1.510  12.856  22.438  0.0059 -0.0566 -0.2709
29906DOD     C333539   1.326  13.164  22.087  0.3764  0.1492  0.1331
29907DOD     C133540  21.735  16.261  10.786 -0.1386 -0.2665  0.1394
29907DOD     C233541  22.089  16.573  10.828  0.0980 -0.0968 -0.3925
29907DOD     C333542  22.360  16.968  10.962  0.0934 -0.2038  0.0713
29908DOD     C133543   8.595  28.362   6.255 -0.4662 -0.0353 -0.4250
29908DOD     C233544   8.645  28.601   5.828 -0.1024  0.2559 -0.0493
29908DOD     C333545   8.710  28.500   5.423 -0.0236  0.0667 -0.1770
29909DOD     C133546   3.797  16.514  14.972  0.0193 -0.1908 -0.1355
29909DOD     C233547   3.431  16.295  15.186  0.1826  0.1879 -0.0326
29909DOD     C333548   3.132  15.920  15.280 -0.2291 -0.2256 -0.3155
29910DOD     C133549  14.330  13.034  29.981 -0.0071  0.1203 -0.0472
29910DOD     C233550  13.898  13.105  29.817  0.1952 -0.1437 -0.0934
29910DOD     C333551  13.419  13.183  29.732 -0.1109  0.2770  0.0269
29911DOD     C133552  21.523  20.016  26.770 -0.0575 -0.2449  0.1723
29911DOD     C233553  21.203  19.870  27.048  0.0616  0.0215 -0.1767
29911DOD     C333554  20.761  19.673  26.959 -0.2122 -0.0113  0.0471
29912DOD     C133555   8.991  26.790  12.998 -0.1389 -0.3294 -0.1159
29912DOD     C233556   9.298  26.564  13.339  0.0442  0.1021  0.0968
29912DOD     C333557   9.686  26.394  13.522  0.0354  0.2411  0.1853
29913DOD     C133558  14.522  12.341  10.451  0.1160  0.1596  0.2559
29913DOD     C233559  14.978  12.386  10.265  0.0905  0.0288 -0.0258
29913DOD     C333560  15.374  12.134  10.199  0.4645 -0.0732 -0.1883
29914DOD     C133561  15.763   8.715  14.336 -0.0803 -0.0536  0.4385
29914DOD     C233562  16.097   8.392  14.394  0.0433  0.0095  0.0696
29914DOD     C333563  16.500   8.354  14.193 -0.0830 -0.2486  0.2243
29915DOD     C133564  10.274  19.073  11.575  0.1115  0.2848 -0.2032
29915DOD     C233565  10.572  18.844  11.826 -0.0963  0.0249  0.3364
29915DOD     C333566  10.738  18.503  12.070 -0.0965 -0.0509 -0.1432
29916DOD     C133567  14.634  14.241   9.118  0.0479  0.0147  0.0505
29916DOD     C233568  14.400  14.047   8.746 -0.1383  0.1299  0.0631
29916DOD     C333569  14.298  13.585   8.760 -0.1623 -0.2721  0.2731
29917DOD     C133570  26.929   0.079  18.169  0.0449  0.1482 -0.1404
29917DOD     C233571  27.239   0.249  18.501  0.3917  0.0842  0.0249
29917DOD     C333572  27.232   0.408  18.914 -0.2732 -0.2967  0.0850
29918DOD     C133573  26.921  17.729  23.741  0.0034 -0.1855  0.1891
29918DOD     C233574  26.605  17.885  23.514  0.0207 -0.0559  0.0855
29918DOD     C333575  26.197  18.002  23.423  0.1168  0.0872  0.1505
29919DOD     C133576   9.029  26.305  12.894  0.0779 -0.2262  0.0538
29919DOD     C233577   9.221  25.847  12.849  0.1185  0.2053  0.0064
29919DOD     C333578   9.600  25.719  12.605  0.0926  0.1714 -0.1202
29920DOD     C133579  28.934  17.082  26.487 -0.0068  0.0225 -0.1809
29920DOD     C233580  28.767  17.350  26.787 -0.1919  0.1859 -0.1042
29920DOD     C333581  28.383  17.421  26.996 -0.1119 -0.3355  0.3831
29921DOD     C133582  16.323  16.429  15.171 -0.0740 -0.4356 -0.3468
29921DOD     C233583  15.930  16.700  15.112 -0.0050 -0.3314  0.2315
29921DOD     C333584  15.558  16.610  15.270  0.3911 -0.0362 -0.2551
29922DOD     C133585   6.801  25.807  20.066 -0.1283 -0.1649  0.1127
29922DOD     C233586   6.767  25.599  19.658  0.2965 -0.1898  0.1586
29922DOD     C333587   6.946  25.615  19.223  0.3204 -0.3185  0.0086
29923DOD     C133588  29.421  28.308  26.414  0.0271 -0.2387  0.2324
29923DOD     C233589  29.498  28.153  25.972 -0.0460  0.2235  0.3283
29923DOD     C333590  29.590  27.795  25.699  0.1760 -0.1026  0.1886
29924DOD     C133591   4.699   0.019  11.096  0.3652 -0.1867 -0.0658
29924DOD     C233592   5.057  30.073  11.150  0.0324  0.3380  0.0072
29924DOD     C333593   5.264  29.785  10.950 -0.1563 -0.0559  0.0644
29925DOD     C133594   1.017   6.655   0.069 -0.0913 -0.2291 -0.0102
29925DOD     C233595   1.196   7.053   0.083  0.0618  0.0775  0.2872
29925DOD     C333596   1.247   7.539  30.355  0.0700  0.2670  0.2022
29926DOD     C133597   1.859   3.919   3.979 -0.2354  0.0192  0.1285
29926DOD     C233598   1.476   4.051   3.791 -0.2583  0.0347  0.1006
29926DOD     C333599   1.072   4.050   3.666 -0.3308 -0.0828  0.1342
29927DOD     C133600  10.500  20.976   4.345  0.0448  0.1600  0.1855
29927DOD     C233601  10.477  21.173   3.935 -0.1215 -0.1365  0.0003
29927DOD     C333602  10.683  21.140   3.487  0.0599 -0.0987 -0.0519
29928DOD     C133603  13.686   9.245  12.667  0.1124 -0.0991  0.3999
29928DOD     C233604  13.645   9.540  12.325 -0.0332 -0.0564  0.2326
29928DOD     C333605  13.744   9.623  11.888  0.0427  0.2384  0.3280
29929DOD     C133606  10.161  26.516  29.964  0.3479  0.2309  0.0803
29929DOD     C233607   9.841  26.709  29.761 -0.2042 -0.0779  0.2990
29929DOD     C333608   9.731  26.686  29.275 -0.1379  0.0227 -0.0218
29930DOD     C133609  29.584   4.565  18.745  0.1005  0.2469  0.1724
29930DOD     C233610  29.832   4.953  18.663 -0.1002  0.0671 -0.2169
29930DOD     C333611  29.928   5.350  18.813  0.3355  0.1168 -0.1823
29931DOD     C133612  24.341  13.158   2.793 -0.0089  0.1535  0.0511
29931DOD     C233613  24.262  13.294   3.209 -0.0043  0.3620 -0.0260
29931DOD     C333614  24.022  13.667   3.401 -0.0126  0.1478  0.2090
29932DOD     C133615  24.835  25.070  11.954 -0.1777  0.1179 -0.0572
29932DOD     C233616  24.630  25.477  11.933 -0.0601 -0.1139 -0.2412
29932DOD     C333617  24.315  25.712  12.184 -0.1405 -0.2639  0.3049
29933DOD     C133618  26.469  29.697   8.889 -0.1498  0.3574  0.3033
29933DOD     C233619  26.695  29.498   8.551 -0.0772 -0.0222  0.2215
29933DOD     C333620  26.991  29.440   8.264 -0.1018  0.2493 -0.2113
29934DOD     C133621  24.249  17.208  23.487  0.1231  0.0306 -0.0743
29934DOD     C233622  24.282  16.972  23.882  0.2152 -0.0462  0.1973
29934DOD     C333623  23.935  16.707  24.054  0.3013  0.1601  0.5329
29935DOD     C133624   2.450   8.747   1.122 -0.2132  0.1571 -0.0287
29935DOD     C233625   2.750   8.702   1.529  0.0906  0.1575  0.1879
29935DOD     C333626   2.785   8.669   2.003  0.2590  0.3245  0.1305
29936DOD     C133627  28.825  29.787  14.497 -0.1698  0.3324  0.0805
29936DOD     C233628  29.120  29.437  14.419  0.0451 -0.3581  0.3010
29936DOD     C333629  29.540  29.385  14.229  0.0264  0.1326  0.1809
29937DOD     C133630  24.087   2.558  27.198 -0.0530 -0.4542  0.3327
29937DOD     C233631  23.988   2.787  27.580  0.2375 -0.1420 -0.0286
29937DOD     C333632  23.721   3.139  27.816 -0.1324  0.1330  0.1664
29938DOD     C133633  27.205  23.149  20.783  0.0538 -0.1528 -0.1000
29938DOD     C233634  27.517  23.139  20.406  0.1089 -0.0906  0.1440
29938DOD     C333635  27.584  23.412  20.051  0.1352 -0.2198  0.0587
29939DOD     C133636   8.606  23.767  29.528  0.2400 -0.2466  0.0912
29939DOD     C233637   8.674  24.087  29.210 -0.0623  0.0178  0.1107
29939DOD     C333638   8.899  24.377  28.954  0.0451 -0.1578  0.1031
29940DOD     C133639   4.019  16.083   4.164  0.0006  0.1322 -0.0225
29940DOD     C233640   4.428  16.301   4.113 -0.1483  0.1680 -0.2796
29940DOD     C333641   4.877  16.366   4.214 -0.1515  0.1221  0.0620
29941DOD     C133642  10.619   5.723   9.815  0.1689  0.0485 -0.1161
29941DOD     C233643  10.699   5.808  10.287  0.1558 -0.2120 -0.0115
29941DOD     C333644  11.029   5.953  10.551 -0.1322  0.0717  0.3457
29942DOD     C133645  13.762   7.780  17.450  0.2580  0.1338  0.1358
29942DOD     C233646  13.614   8.169  17.165 -0.3200  0.0380 -0.2596
29942DOD     C333647  13.375   8.295  16.806  0.2473  0.2057 -0.0197
29943DOD     C133648  13.446   3.389  26.594  0.2018 -0.0279  0.0994
29943DOD     C233649  13.219   3.660  26.235  0.0797 -0.1851  0.0833
29943DOD     C333650  12.811   3.791  26.174  0.3110  0.0330  0.1438
29944DOD     C133651   9.013   0.339  21.437  0.0722 -0.1438  0.0158
29944DOD     C233652   8.571   0.552  21.404 -0.0639  0.2157  0.2502
29944DOD     C333653   8.397   0.918  21.653 -0.2179  0.0794  0.0475
29945DOD     C133654   0.855  17.878   4.297  0.4712 -0.0645 -0.1826
29945DOD     C233655   0.413  17.742   4.135 -0.2200  0.2180  0.0086
29945DOD     C333656  30.329  17.693   4.263 -0.1370 -0.1648  0.0672
29946DOD     C133657   6.956  12.372   5.996 -0.1625  0.1227 -0.0074
29946DOD     C233658   7.183  12.583   6.306 -0.3964  0.0287 -0.0389
29946DOD     C333659   7.391  12.576   6.770  0.2331 -0.2046  0.3373
29947DOD     C133660   0.843  25.010  10.280  0.0717  0.1610 -0.1189
29947DOD     C233661   1.216  25.172  10.429  0.0047 -0.1850  0.2677
29947DOD     C333662   1.658  25.001  10.428 -0.2667  0.1752  0.0732
29948DOD     C133663   0.123   5.281  11.571  0.1365  0.2392  0.0994
29948DOD     C233664  30.107   5.003  11.430 -0.0648  0.2646 -0.1441
29948DOD     C333665  30.114   4.644  11.144 -0.3791  0.4264 -0.0987
29949DOD     C133666   9.906  20.148  10.946  0.0062  0.0645  0.0470
29949DOD     C233667  10.300  20.376  10.897 -0.3058 -0.4902  0.4050
29949DOD     C333668  10.681  20.435  10.694 -0.1320 -0.0008 -0.0315
29950DOD     C133669  17.294  19.277  30.361 -0.0739  0.0638  0.4926
29950DOD     C233670  16.862  19.452  30.201 -0.4257  0.1273 -0.1085
29950DOD     C333671  16.536  19.575  29.895 -0.2515 -0.0261 -0.1524
29951DOD     C133672  21.577  26.653  28.816 -0.0881 -0.0753 -0.0611
29951DOD     C233673  21.385  27.070  28.759 -0.1455  0.0757  0.0202
29951DOD     C333674  21.368  27.534  28.848  0.0875  0.2033  0.0009
29952DOD     C133675  12.610  15.300  27.650  0.0693  0.1890  0.2123
29952DOD     C233676  12.596  15.626  27.961  0.0283  0.1703  0.0081
29952DOD     C333677  12.754  16.053  27.924  0.2770 -0.0878  0.1613
29953DOD     C133678   3.384   3.089   4.588 -0.3700  0.0409  0.1539
29953DOD     C233679   3.741   3.380   4.475 -0.1795 -0.0302  0.0847
29953DOD     C333680   3.947   3.727   4.301 -0.1827 -0.1875 -0.2972
29954DOD     C133681   3.719  18.675   1.422  0.1097 -0.4020  0.2571
29954DOD     C233682   3.339  18.645   1.073 -0.1425  0.2919  0.3859
29954DOD     C333683   2.910  18.849   1.113  0.2636 -0.0148 -0.1043
29955DOD     C133684  10.891  22.603   7.857 -0.0829 -0.0081  0.1921
29955DOD     C233685  11.079  22.175   8.016 -0.1439  0.0250  0.0140
29955DOD     C333686  11.283  21.730   8.020  0.1115  0.3091  0.1068
29956DOD     C133687   7.973  12.205   7.437  0.2318  0.2997  0.1978
29956DOD     C233688   8.036  12.571   7.775 -0.2581 -0.0247  0.1051
29956DOD     C333689   8.236  12.710   8.180 -0.1610 -0.1226 -0.1455
29957DOD     C133690  26.859  20.573  18.585 -0.1596  0.1662  0.0570
29957DOD     C233691  27.121  20.500  18.972 -0.2505 -0.2562  0.0877
29957DOD     C333692  26.850  20.315  19.383 -0.0743 -0.0093 -0.0176
29958DOD     C133693   3.438   3.193  11.836 -0.0256  0.0131  0.6991
29958DOD     C233694   3.571   3.019  12.243 -0.3212 -0.0469 -0.0332
29958DOD     C333695   3.939   2.743  12.450 -0.3075 -0.1581 -0.3772
29959DOD     C133696  11.369  15.891  22.983  0.1198  0.0563  0.2129
29959DOD     C233697  11.490  16.087  23.385  0.1618  0.4029 -0.5784
29959DOD     C333698  11.855  15.991  23.686  0.2603 -0.0789  0.1020
29960DOD     C133699   2.777  11.696  26.485 -0.1698 -0.1725  0.1838
29960DOD     C233700   2.428  11.965  26.532  0.0519 -0.0595  0.0015
29960DOD     C333701   2.261  12.273  26.711  0.2808 -0.1668 -0.2207
29961DOD     C133702  23.822  16.311   1.380 -0.0893 -0.2350 -0.0345
29961DOD     C233703  23.554  16.633   1.627  0.0293 -0.2143 -0.0775
29961DOD     C333704  23.585  16.849   2.020  0.1720 -0.0959 -0.0691
29962DOD     C133705  26.821  22.751  15.977  0.0615  0.1550  0.3624
29962DOD     C233706  26.944  22.641  16.425 -0.5221 -0.0141 -0.2221
29962DOD     C333707  27.140  22.514  16.796  0.0623 -0.3034  0.0182
29963DOD     C133708  29.611  10.905  24.140  0.3497 -0.3075 -0.0558
29963DOD     C233709  29.426  10.477  24.120  0.1224 -0.1369 -0.2043
29963DOD     C333710  29.062  10.222  24.340  0.0177 -0.1946  0.0347
29964DOD     C133711  18.702  23.582  25.290  0.0374  0.1288  0.1997
29964DOD     C233712  18.325  23.526  25.032 -0.1812  0.1480  0.2309
29964DOD     C333713  18.172  23.911  24.859  0.0718  0.0206 -0.3116
29965DOD     C133714  23.589  14.927  25.184  0.0061 -0.0300  0.1442
29965DOD     C233715  23.664  15.332  25.466 -0.0975 -0.0784 -0.0710
29965DOD     C333716  23.430  15.188  25.855  0.3218  0.3460 -0.1070
29966DOD     C133717  18.788   6.396  18.559  0.0056  0.0383  0.0325
29966DOD     C233718  19.096   6.368  18.966  0.2171  0.4027  0.3054
29966DOD     C333719  19.548   6.332  18.993 -0.1602 -0.1439  0.0634
29967DOD     C133720  13.486  23.108  22.190  0.2124  0.1923  0.0164
29967DOD     C233721  13.302  23.437  22.516  0.1637 -0.1398 -0.1459
29967DOD     C333722  13.039  23.716  22.711  0.4506 -0.2545  0.0311
29968DOD     C133723  26.954   5.741  29.560 -0.2263 -0.1077  0.2082
29968DOD     C233724  27.300   5.656  29.278  0.0997 -0.1567  0.0374
29968DOD     C333725  27.337   5.365  28.893 -0.0100  0.1491  0.2526
29969DOD     C133726  25.732   9.043   9.608  0.1452 -0.1423  0.0929
29969DOD     C233727  25.669   9.007   9.138 -0.2872 -0.1963 -0.1698
29969DOD     C333728  25.778   9.018   8.679 -0.5304 -0.3077  0.0489
29970DOD     C133729  10.121  21.560  14.342  0.4591 -0.1917  0.0275
29970DOD     C233730   9.930  21.180  14.170 -0.0727 -0.3486 -0.1467
29970DOD     C333731   9.818  20.854  13.866  0.1180 -0.0143  0.0968
29971DOD     C133732   2.270   3.159  29.041  0.1104 -0.0358 -0.0375
29971DOD     C233733   2.042   3.407  29.298 -0.0137 -0.0863 -0.0446
29971DOD     C333734   1.677   3.654  29.532  0.1163  0.0118 -0.0877
29972DOD     C133735  14.753   3.275  26.068  0.0848  0.0510 -0.0656
29972DOD     C233736  15.034   3.159  26.426 -0.0723  0.1192  0.0430
29972DOD     C333737  15.080   3.041  26.805 -0.1719  0.0614  0.2531
29973DOD     C133738  13.770  10.243   7.873  0.0556 -0.0438 -0.2366
29973DOD     C233739  14.008  10.207   7.457 -0.1366  0.0060  0.2134
29973DOD     C333740  14.421  10.324   7.211  0.0132  0.0681 -0.1248
29974DOD     C133741   2.545  10.394   7.270 -0.1099 -0.0748 -0.0740
29974DOD     C233742   2.295  10.226   6.912 -0.0286  0.0467 -0.1719
29974DOD     C333743   1.850  10.331   6.786  0.2985  0.0217 -0.1911
29975DOD     C133744   1.119   5.334   5.906 -0.0236 -0.1466 -0.1005
29975DOD     C233745   0.656   5.417   5.937 -0.1074 -0.1732  0.2664
29975DOD     C333746   0.322   5.748   5.951  0.1882 -0.3659 -0.0560
29976DOD     C133747   7.300   9.083  21.164  0.0954 -0.1914 -0.1200
29976DOD     C233748   6.881   8.873  21.125  0.0149 -0.2000  0.2190
29976DOD     C333749   6.550   8.539  21.332  0.0360  0.1726  0.0227
29977DOD     C133750  21.767  10.517  29.518 -0.1664  0.1853 -0.0866
29977DOD     C233751  21.789  10.290  29.123  0.2215  0.2111 -0.4539
29977DOD     C333752  21.870   9.845  29.152 -0.0052  0.2777  0.2342
29978DOD     C133753   1.496  18.217   1.034  0.0500  0.0698 -0.1991
29978DOD     C233754   1.273  18.244   0.620  0.0746 -0.1214  0.1720
29978DOD     C333755   0.980  18.546   0.362  0.0613 -0.3165 -0.0510
29979DOD     C133756   6.715  23.456   3.029  0.0320 -0.1138  0.1915
29979DOD     C233757   6.287  23.280   3.251 -0.2366  0.0544  0.0348
29979DOD     C333758   5.944  23.218   3.543 -0.0220  0.0414  0.1860
29980DOD     C133759  25.389  14.992  15.694 -0.2446 -0.1499  0.1298
29980DOD     C233760  25.630  15.171  16.064 -0.1098  0.0950 -0.3211
29980DOD     C333761  25.908  15.428  16.397  0.4150 -0.0938 -0.1142
29981DOD     C133762  20.581  24.658  19.130  0.4128 -0.2479  0.4490
29981DOD     C233763  20.142  24.698  19.032  0.3411  0.0287 -0.1284
29981DOD     C333764  19.902  24.516  18.649 -0.0343 -0.2660 -0.1346
29982DOD     C133765  18.020   5.919  29.022 -0.0928  0.3104 -0.0362
29982DOD     C233766  18.164   5.592  28.733 -0.2859  0.2360  0.2863
29982DOD     C333767  18.353   5.222  28.956  0.1501 -0.0033 -0.4390
29983DOD     C133768  28.008  18.090   5.673  0.0129  0.2328 -0.0400
29983DOD     C233769  28.246  17.960   5.299 -0.0506 -0.0572  0.1198
29983DOD     C333770  28.606  17.793   5.095 -0.0794 -0.0847  0.0910
29984DOD     C133771   2.641  13.222   8.436  0.1443 -0.0172 -0.0241
29984DOD     C233772   2.823  13.598   8.660 -0.1310  0.2463 -0.1860
29984DOD     C333773   3.247  13.814   8.703  0.0603  0.2080  0.0746
29985DOD     C133774  11.374  29.407  27.447 -0.1132  0.1981 -0.0111
29985DOD     C233775  11.474  29.378  27.985  0.1247 -0.2173 -0.2104
29985DOD     C333776  11.432  28.985  28.204  0.1073  0.0874 -0.3670
29986DOD     C133777  29.736   5.388  27.516 -0.2178 -0.1205  0.0269
29986DOD     C233778  30.001   5.108  27.215  0.2533  0.0941 -0.2641
29986DOD     C333779  30.238   4.957  26.840  0.0314 -0.0821  0.3106
29987DOD     C133780  27.259   2.086  11.820  0.1889  0.0011 -0.0020
29987DOD     C233781  27.516   2.278  12.146  0.0294 -0.2076 -0.2904
29987DOD     C333782  27.847   2.299  12.466  0.2400  0.0914 -0.0622
29988DOD     C133783  12.415   3.190   0.999 -0.1293  0.2071  0.0833
29988DOD     C233784  12.639   3.273   1.366 -0.1490  0.1477 -0.2555
29988DOD     C333785  12.963   3.090   1.606  0.2103 -0.0756 -0.0152
29989DOD     C133786  15.649  17.841   6.856 -0.1900  0.0281  0.1423
29989DOD     C233787  15.527  18.008   7.303 -0.2167  0.1412 -0.0453
29989DOD     C333788  15.243  17.851   7.647  0.0213  0.0669  0.0359
29990DOD     C133789  15.365  23.712   6.858  0.2143  0.2459  0.2936
29990DOD     C233790  15.565  23.745   6.462 -0.1232 -0.0917  0.1830
29990DOD     C333791  15.774  23.786   6.009 -0.0307  0.0190  0.1320
29991DOD     C133792   5.991  27.374  20.481 -0.2338 -0.0886 -0.0519
29991DOD     C233793   6.087  27.819  20.329  0.0876  0.0061  0.1573
29991DOD     C333794   6.283  28.173  20.080  0.1446 -0.2433 -0.1977
29992DOD     C133795  29.714  28.174   6.703  0.1974 -0.1012  0.0396
29992DOD     C233796  29.409  28.232   6.364 -0.1421 -0.1654  0.2027
29992DOD     C333797  29.323  28.327   5.931  0.0491  0.1581 -0.1041
29993DOD     C133798  11.051  10.989   4.262 -0.0139 -0.0812  0.1579
29993DOD     C233799  11.138  11.271   3.887  0.2107  0.0129  0.0128
29993DOD     C333800  11.125  11.487   3.519 -0.2717  0.1609  0.0561
29994DOD     C133801   6.587  26.385  17.092 -0.2646  0.1953 -0.1362
29994DOD     C233802   6.595  26.185  16.674  0.1101 -0.1503 -0.1572
29994DOD     C333803   6.486  25.902  16.352 -0.2160 -0.1220 -0.3830
29995DOD     C133804  28.789   8.507  27.428 -0.0458 -0.3535  0.0375
29995DOD     C233805  28.398   8.707  27.281 -0.0980 -0.1500  0.3748
29995DOD     C333806  27.949   8.776  27.160 -0.1648 -0.2200 -0.2450
29996DOD     C133807   6.756   1.000   7.136 -0.0158 -0.2084  0.0874
29996DOD     C233808   6.329   0.816   7.178 -0.0932 -0.3875 -0.1556
29996DOD     C333809   5.984   0.615   7.305 -0.0967 -0.1025  0.1367
29997DOD     C133810  27.254  19.780   3.338  0.1170  0.1045  0.1206
29997DOD     C233811  27.657  19.766   3.552  0.1215 -0.2367  0.0854
29997DOD     C333812  28.016  19.777   3.812 -0.3674 -0.4967 -0.3610
29998DOD     C133813  11.397   2.457  20.721 -0.2245 -0.0643  0.3463
29998DOD     C233814  11.686   2.437  20.369  0.2481 -0.2071 -0.0454
29998DOD     C333815  11.802   2.572  19.931  0.1328 -0.0669  0.1702
29999DOD     C133816   4.386   8.587  18.161 -0.3976 -0.3465  0.0939
29999DOD     C233817   4.165   8.389  18.530 -0.0199  0.0645 -0.0059
29999DOD     C333818   4.239   8.224  18.969  0.0794 -0.0271 -0.0256
30000DOD     C133819  10.201  25.026  15.015 -0.2293 -0.2735 -0.1080
30000DOD     C233820  10.414  25.325  14.751  0.3008 -0.1383 -0.1491
30000DOD     C333821  10.196  25.716  14.645  0.3550  0.1185  0.2353
30001DOD     C133822   7.460  11.756  23.366 -0.2665  0.3068 -0.1465
30001DOD     C233823   7.359  11.522  23.767 -0.1303 -0.0301  0.1061
30001DOD     C333824   7.508  11.345  24.197  0.0015  0.0910  0.3742
30002DOD     C133825   5.285  20.399  10.661 -0.0511  0.0504  0.2599
30002DOD     C233826   5.435  20.200  11.008  0.0934 -0.1379  0.0348
30002DOD     C333827   5.758  20.058  11.227 -0.1389 -0.0058 -0.1114
30003DOD     C133828  21.072  14.712   4.081 -0.4672  0.2878  0.1587
30003DOD     C233829  20.688  14.964   4.096 -0.2127  0.0528  0.0758
30003DOD     C333830  20.231  14.924   3.984  0.1639  0.0338  0.2286
30004DOD     C133831   6.601  19.714  28.238 -0.2197  0.0223  0.1412
30004DOD     C233832   6.659  20.162  28.287  0.0025 -0.1662  0.2412
30004DOD     C333833   6.692  20.603  28.243 -0.0341  0.0429  0.1007
30005DOD     C133834   6.852   0.269  15.014  0.1452  0.0805  0.1847
30005DOD     C233835   6.528   0.216  15.318  0.0335 -0.2498  0.4275
30005DOD     C333836   6.289  30.178  15.420  0.0795 -0.0925  0.3288
30006DOD     C133837  26.621   2.999   3.731  0.1747 -0.0139  0.2474
30006DOD     C233838  27.022   3.274   3.665  0.2119  0.0091  0.2947
30006DOD     C333839  27.454   3.223   3.577  0.2155 -0.0850  0.0179
30007DOD     C133840  20.777  29.391   7.459  0.2270  0.0761 -0.1750
30007DOD     C233841  20.446  29.243   7.748  0.1823 -0.3582 -0.1812
30007DOD     C333842  19.997  29.105   7.902  0.1173 -0.0892  0.2663
30008DOD     C133843  10.928  12.682  25.796  0.0167  0.2220  0.0036
30008DOD     C233844  10.659  12.326  25.928 -0.0858  0.2271  0.1680
30008DOD     C333845  10.446  11.951  26.078 -0.0222 -0.0476 -0.3093
30009DOD     C133846  25.023  15.348  24.348  0.0797 -0.0795 -0.2799
30009DOD     C233847  24.880  15.678  24.727 -0.0879 -0.2336  0.0086
30009DOD     C333848  24.576  15.826  25.064 -0.1115  0.0339  0.0148
30010DOD     C133849   7.369  20.467   8.202  0.3073 -0.3384  0.3515
30010DOD     C233850   7.454  20.034   8.152 -0.2369 -0.1765 -0.3737
30010DOD     C333851   7.502  19.612   7.873 -0.1200 -0.2528 -0.1993
30011DOD     C133852  19.198  22.353   0.501  0.4178 -0.1165 -0.2674
30011DOD     C233853  19.184  22.602   0.985  0.0926  0.1816  0.0442
30011DOD     C333854  19.258  23.005   1.205 -0.2578  0.1344 -0.2027
30012DOD     C133855  17.407   2.326   0.775 -0.0526 -0.0441 -0.0057
30012DOD     C233856  17.009   2.388   0.558 -0.1369 -0.1710 -0.4350
30012DOD     C333857  16.573   2.548   0.455  0.3045 -0.0025 -0.1747
30013DOD     C133858  20.440  29.622   0.581  0.0719 -0.4294  0.0578
30013DOD     C233859  20.357  29.825   1.011  0.0459 -0.3754  0.0498
30013DOD     C333860  20.362  30.223   1.120  0.1338 -0.1731  0.0815
30014DOD     C133861  11.064  22.470  22.360  0.4179 -0.0402  0.1721
30014DOD     C233862  10.916  22.047  22.565  0.1867 -0.2170 -0.0548
30014DOD     C333863  10.839  21.774  22.923 -0.1990 -0.0664 -0.1411
30015DOD     C133864  15.381  24.263   7.460  0.0393 -0.3832  0.1508
30015DOD     C233865  15.627  24.001   7.166  0.1323 -0.2362  0.0763
30015DOD     C333866  15.864  24.108   6.821  0.0986  0.0683 -0.0247
30016DOD     C133867  15.942  24.242  26.763  0.0190 -0.1145  0.1967
30016DOD     C233868  16.328  24.493  26.564  0.0195  0.0859 -0.0758
30016DOD     C333869  16.615  24.774  26.602  0.2043 -0.2474 -0.1001
30017DOD     C133870   2.259   3.656  24.530 -0.0657  0.0290  0.1282
30017DOD     C233871   2.611   3.671  24.246 -0.2289 -0.2808  0.0355
30017DOD     C333872   2.576   3.858  23.775 -0.1654  0.0993  0.1359
30018DOD     C133873   2.431   2.045  14.436  0.1912 -0.0564 -0.2195
30018DOD     C233874   2.383   1.834  14.840  0.6058  0.1110  0.3358
30018DOD     C333875   2.676   1.753  15.219 -0.0578 -0.1534  0.2062
30019DOD     C133876  25.072   0.342   6.329 -0.0766  0.1147 -0.0115
30019DOD     C233877  24.804   0.663   6.208 -0.0540 -0.1457  0.1711
30019DOD     C333878  24.444   0.800   6.004 -0.1371 -0.2414  0.1844
30020DOD     C133879  23.770  23.209  25.352 -0.2252  0.1268 -0.0621
30020DOD     C233880  23.559  23.117  25.734  0.0289  0.1553  0.3528
30020DOD     C333881  23.727  22.984  26.088 -0.1766  0.2267  0.0219
30021DOD     C133882  17.628  26.577  18.191  0.0154 -0.0368 -0.2377
30021DOD     C233883  17.152  26.587  18.054 -0.0346  0.0099  0.1939
30021DOD     C333884  16.814  26.890  17.834  0.0888 -0.3104 -0.1133
30022DOD     C133885  15.641  21.901  22.672 -0.0089  0.1868  0.1316
30022DOD     C233886  15.798  22.205  23.009 -0.1151 -0.0408  0.4372
30022DOD     C333887  16.019  22.595  23.188  0.0631 -0.4255 -0.0127
30023DOD     C133888  17.949  11.582  26.983 -0.0420  0.1615 -0.1384
30023DOD     C233889  17.573  11.866  26.931  0.3011  0.0503 -0.2016
30023DOD     C333890  17.196  11.923  26.676 -0.3967  0.2209 -0.4835
30024DOD     C133891  25.435   7.360   6.981 -0.3400 -0.0307  0.1095
30024DOD     C233892  25.366   7.387   6.484 -0.0471 -0.0396  0.0192
30024DOD     C333893  25.232   7.082   6.137 -0.0863  0.0653 -0.2900
30025DOD     C133894  15.311  15.386  23.252 -0.0140 -0.1521  0.3105
30025DOD     C233895  15.546  15.805  23.381  0.1672 -0.2373  0.1405
30025DOD     C333896  15.736  16.192  23.567  0.1988  0.0556  0.1302
30026DOD     C133897  24.179   3.363   8.753 -0.2761  0.1859 -0.0188
30026DOD     C233898  24.592   3.356   8.971 -0.0678 -0.0101  0.1624
30026DOD     C333899  24.906   3.033   9.143  0.0242  0.0348  0.1743
30027DOD     C133900  10.408  26.924  21.227  0.1148  0.1475 -0.1955
30027DOD     C233901  10.315  26.936  20.763  0.0424  0.3375 -0.1764
30027DOD     C333902   9.982  26.806  20.395 -0.1296 -0.0956 -0.1960
30028DOD     C133903   2.666  27.439  26.524 -0.0856  0.0507 -0.0974
30028DOD     C233904   2.890  27.192  26.879 -0.2910 -0.3056  0.0034
30028DOD     C333905   2.981  26.842  27.269 -0.5455  0.0726  0.1559
30029DOD     C133906  17.038  20.329  29.550  0.1768 -0.0967  0.1241
30029DOD     C233907  17.368  20.385  29.927  0.0556  0.3815  0.0227
30029DOD     C333908  17.671  20.067  30.159  0.1835 -0.1115  0.0504
30030DOD     C133909   1.116   9.022  12.808  0.0106  0.0357 -0.0433
30030DOD     C233910   0.954   8.869  13.234  0.1662 -0.1254 -0.1695
30030DOD     C333911   0.707   8.682  13.625  0.1644 -0.0583  0.2114
30031DOD     C133912  26.591  24.711  23.838 -0.1250 -0.2332 -0.1108
30031DOD     C233913  26.865  24.361  23.626 -0.0483  0.1255 -0.1217
30031DOD     C333914  26.896  24.207  23.141  0.1989  0.1990 -0.0671
30032DOD     C133915  22.741  19.085   2.534  0.2903 -0.1098 -0.1108
30032DOD     C233916  22.674  19.333   2.141 -0.1528  0.1602 -0.1254
30032DOD     C333917  22.611  19.693   1.851  0.3271  0.4713  0.1401
30033DOD     C133918  17.123  20.337  15.636 -0.2562 -0.0887 -0.0335
30033DOD     C233919  16.863  20.002  15.481  0.1144  0.2745  0.1416
30033DOD     C333920  16.757  19.832  15.022  0.1655 -0.2184 -0.2174
30034DOD     C133921  17.456   2.854  16.091  0.0273 -0.0937  0.2284
30034DOD     C233922  17.511   2.401  16.028  0.1282  0.2206  0.0565
30034DOD     C333923  17.408   1.946  15.931  0.1110  0.4347  0.1015
30035DOD     C133924  11.064   3.980  21.094  0.0648 -0.0198 -0.0299
30035DOD     C233925  11.545   3.941  21.136  0.1110  0.0309  0.0643
30035DOD     C333926  11.920   3.865  20.948  0.1712 -0.1640 -0.0276
30036DOD     C133927   3.984   7.152  10.225 -0.0390 -0.0740 -0.0088
30036DOD     C233928   3.728   7.246  10.582 -0.0892  0.3331  0.1316
30036DOD     C333929   3.771   6.850  10.906  0.0586  0.2169  0.0646
30037DOD     C133930   2.415   4.841  12.455  0.0585  0.2870  0.1601
30037DOD     C233931   2.691   4.902  12.838  0.0455 -0.2243 -0.2432
30037DOD     C333932   3.108   5.021  12.952  0.1724 -0.0522 -0.2842
30038DOD     C133933   9.825  19.637   6.081  0.0278 -0.0847 -0.0225
30038DOD     C233934  10.203  19.352   6.058 -0.3534  0.0290 -0.2673
30038DOD     C333935  10.420  19.352   5.634 -0.0550 -0.1768  0.1706
30039DOD     C133936  30.234   7.175   1.225  0.1639  0.0680 -0.2362
30039DOD     C233937  30.175   7.610   1.181  0.0609 -0.0753  0.1124
30039DOD     C333938  29.868   7.968   1.111 -0.0201 -0.0686  0.1855
30040DOD     C133939  29.192  20.377   6.244 -0.0526  0.0730  0.0688
30040DOD     C233940  29.326  19.979   6.483 -0.0180  0.0025 -0.0595
30040DOD     C333941  29.680  19.770   6.693 -0.0541 -0.2882  0.2066
30041DOD     C133942   5.626  17.915  12.497  0.0945 -0.2904  0.0211
30041DOD     C233943   5.328  17.767  12.833  0.0659 -0.1880  0.1173
30041DOD     C333944   5.013  17.849  13.123  0.0759  0.2339  0.1253
30042DOD     C133945  24.455   3.153  14.568  0.0273 -0.3037 -0.3175
30042DOD     C233946  24.360   2.746  14.549 -0.3533 -0.1252 -0.0815
30042DOD     C333947  24.213   2.374  14.719 -0.0895  0.0505  0.0205
30043DOD     C133948  24.402  21.340  15.912  0.2659 -0.2216 -0.3605
30043DOD     C233949  24.642  21.583  16.209  0.3870  0.1649 -0.4257
30043DOD     C333950  24.611  21.613  16.683 -0.0295 -0.0966 -0.2660
30044DOD     C133951   7.076  28.232  13.544 -0.0451  0.1120  0.0983
30044DOD     C233952   7.347  28.515  13.391 -0.0361 -0.1484 -0.6647
30044DOD     C333953   7.217  28.945  13.317  0.1533 -0.0395  0.2187
30045DOD     C133954  22.258  17.606  11.686  0.1412  0.0311  0.3687
30045DOD     C233955  22.256  18.080  11.569  0.1910  0.0202  0.1086
30045DOD     C333956  22.029  18.366  11.203 -0.0186  0.2579 -0.0639
30046DOD     C133957  29.398  23.524  18.366  0.2448 -0.0126 -0.1028
30046DOD     C233958  29.569  23.841  18.051  0.0012 -0.1124 -0.1770
30046DOD     C333959  29.610  23.943  17.621 -0.0350 -0.0124 -0.2198
30047DOD     C133960  21.737   2.358  25.450 -0.1880 -0.0949  0.2389
30047DOD     C233961  21.555   2.776  25.576 -0.0295  0.3365 -0.1201
30047DOD     C333962  21.576   3.229  25.718 -0.1792 -0.1953  0.4036
30048DOD     C133963  10.257  15.415  17.010  0.4137  0.0417  0.1555
30048DOD     C233964  10.180  15.092  16.672  0.1949 -0.3467 -0.0461
30048DOD     C333965  10.112  14.720  16.405  0.0868 -0.3408 -0.0961
30049DOD     C133966  28.738   1.894   2.071 -0.1498  0.3351  0.1279
30049DOD     C233967  28.554   1.939   1.608  0.0943 -0.1636  0.2071
30049DOD     C333968  28.737   2.035   1.187 -0.0158  0.0586  0.1664
30050DOD     C133969   3.345  10.700  15.534 -0.1297  0.2167  0.0784
30050DOD     C233970   3.542  10.891  15.978  0.0124 -0.0169  0.1674
30050DOD     C333971   3.545  11.194  16.363 -0.2450 -0.0929  0.2590
30051DOD     C133972   5.462  14.788   6.915 -0.4216  0.0460  0.0335
30051DOD     C233973   5.127  15.001   7.177 -0.0231 -0.1834  0.1077
30051DOD     C333974   5.005  15.317   7.504  0.1816 -0.0363 -0.2850
30052DOD     C133975  14.210   6.886  21.811  0.2455 -0.0681  0.2459
30052DOD     C233976  14.450   6.830  22.167 -0.2464 -0.0255 -0.0142
30052DOD     C333977  14.714   6.489  22.369  0.2860 -0.0690 -0.1522
30053DOD     C133978  20.704  13.231   7.792  0.0333  0.1519 -0.0131
30053DOD     C233979  20.326  12.974   7.929 -0.0367  0.0923  0.0542
30053DOD     C333980  20.108  12.533   7.960 -0.1713 -0.0125 -0.3231
30054DOD     C133981  12.126  11.097  15.119 -0.2423  0.0017  0.0685
30054DOD     C233982  11.932  11.465  15.380  0.3390 -0.4060  0.1311
30054DOD     C333983  11.805  11.871  15.566 -0.0500 -0.0468  0.3816
30055DOD     C133984  17.503  16.511   7.773 -0.0283  0.0471  0.0093
30055DOD     C233985  17.221  16.457   8.110  0.1205  0.0875 -0.1037
30055DOD     C333986  16.811  16.249   8.303 -0.2629  0.0003  0.3164
30056DOD     C133987  14.400   3.525   8.940  0.1090  0.0921 -0.0751
30056DOD     C233988  14.472   3.142   9.148  0.0600 -0.0646  0.0618
30056DOD     C333989  14.352   2.685   9.038  0.2695 -0.1119  0.0415
30057DOD     C133990  14.338  27.941   1.688  0.0236 -0.0868 -0.1247
30057DOD     C233991  14.632  27.666   1.396 -0.2471 -0.1595  0.2552
30057DOD     C333992  14.701  27.535   0.981  0.1259 -0.1345 -0.3497
30058DOD     C133993   0.691  13.414  12.954  0.1232 -0.0724  0.2001
30058DOD     C233994   1.054  13.364  13.273  0.1620 -0.1431  0.2152
30058DOD     C333995   1.482  13.464  13.433 -0.1501 -0.0941  0.1877
30059DOD     C133996   7.122   5.763  23.565  0.1636  0.0920 -0.1695
30059DOD     C233997   7.082   5.791  23.096 -0.0935  0.0692 -0.1623
30059DOD     C333998   6.963   5.718  22.665 -0.2568 -0.0376  0.1343
30060DOD     C133999  12.942   0.209  21.485 -0.1585  0.0997 -0.1784
30060DOD     C234000  13.026   0.203  21.953 -0.1308 -0.1703 -0.0358
30060DOD     C334001  13.096   0.432  22.377 -0.1204  0.1318  0.3262
30061DOD     C134002  17.864  26.605   4.774  0.1117  0.2032  0.0717
30061DOD     C234003  18.209  26.591   4.451 -0.0694  0.1485  0.1135
30061DOD     C334004  18.683  26.531   4.474 -0.0147 -0.0477  0.0310
30062DOD     C134005   7.528   0.195  25.739  0.1689 -0.0244  0.1983
30062DOD     C234006   7.315   0.624  25.696  0.1005 -0.0952 -0.2418
30062DOD     C334007   7.014   0.929  25.574 -0.1696  0.0824 -0.4024
30063DOD     C134008   7.093  15.257  25.250 -0.1191  0.2844  0.1374
30063DOD     C234009   6.840  15.419  25.617 -0.0613  0.1273  0.0929
30063DOD     C334010   6.929  15.778  25.887 -0.1692  0.1070  0.3236
30064DOD     C134011  25.092   1.350  16.159 -0.1833 -0.1772 -0.1385
30064DOD     C234012  25.205   1.813  16.053  0.0711 -0.0178  0.2521
30064DOD     C334013  25.577   2.075  15.866  0.0328 -0.0490 -0.2209
30065DOD     C134014  12.329  10.948   5.649  0.3588  0.1075  0.0327
30065DOD     C234015  11.861  10.854   5.556 -0.1742 -0.3793 -0.2590
30065DOD     C334016  11.464  10.863   5.281 -0.0943  0.2688 -0.2878
30066DOD     C134017  26.781  16.459  29.082 -0.0165  0.0890 -0.2834
30066DOD     C234018  27.166  16.264  29.325 -0.2512 -0.2029 -0.1955
30066DOD     C334019  27.362  15.806  29.299 -0.1441  0.3618  0.2531
30067DOD     C134020  20.759  24.486   0.205  0.0158  0.2369  0.1711
30067DOD     C234021  20.579  24.178   0.496  0.0063 -0.1434 -0.1071
30067DOD     C334022  20.493  24.109   0.948 -0.0533  0.1562  0.0671
30068DOD     C134023  23.172  11.232  17.635  0.1493 -0.2962 -0.2660
30068DOD     C234024  23.367  10.828  17.439  0.1871 -0.1546 -0.0970
30068DOD     C334025  23.824  10.720  17.284  0.1653 -0.1586  0.2402
30069DOD     C134026  18.394   5.986   9.719 -0.2274  0.0003 -0.0638
30069DOD     C234027  18.701   6.260   9.978  0.1340 -0.1734 -0.0806
30069DOD     C334028  19.072   6.320  10.221 -0.0680 -0.2502 -0.3793
30070DOD     C134029   3.206  13.608  23.132 -0.0692  0.1736  0.1526
30070DOD     C234030   3.267  13.158  23.180  0.1027  0.2414  0.2807
30070DOD     C334031   3.119  12.763  23.368  0.3284  0.0432  0.4900
30071DOD     C134032  13.995  20.214  14.753 -0.0446 -0.2474  0.1136
30071DOD     C234033  14.494  20.182  14.867  0.1340  0.2779  0.1446
30071DOD     C334034  14.815  20.495  14.818 -0.6108  0.0557 -0.0219
30072DOD     C134035   7.403   3.753  18.784 -0.1019 -0.1543  0.2123
30072DOD     C234036   7.363   3.375  18.950 -0.0700 -0.0424 -0.2795
30072DOD     C334037   7.286   2.930  18.911 -0.0163  0.1624 -0.1562
30073DOD     C134038   7.590  13.770   4.732 -0.0728  0.0827 -0.0456
30073DOD     C234039   7.151  13.558   4.733 -0.0490  0.1884 -0.0991
30073DOD     C334040   6.868  13.267   5.020  0.3496 -0.0049  0.0393
30074DOD     C134041   1.751  27.805  28.234 -0.0724 -0.3758 -0.0425
30074DOD     C234042   1.538  27.390  28.425 -0.3491  0.0659  0.2540
30074DOD     C334043   1.721  27.237  28.868  0.5565  0.3899 -0.0716
30075DOD     C134044  24.014  10.300  17.271 -0.1361 -0.2108  0.1337
30075DOD     C234045  23.639  10.286  17.003  0.2545 -0.0076 -0.0301
30075DOD     C334046  23.218  10.526  17.001  0.1468 -0.1188  0.1882
30076DOD     C134047  19.806   2.833  20.028  0.0931 -0.2816 -0.4345
30076DOD     C234048  19.969   2.475  19.730  0.1236  0.0931 -0.1603
30076DOD     C334049  19.765   2.161  19.467  0.1707  0.0144 -0.1764
30077DOD     C134050  18.068   5.909  12.202 -0.0688  0.2069  0.0953
30077DOD     C234051  17.997   5.672  11.778 -0.4484  0.0219 -0.1897
30077DOD     C334052  17.654   5.497  11.550 -0.1961 -0.0784  0.2150
30078DOD     C134053  20.743  11.303  25.543  0.0568 -0.4180 -0.3578
30078DOD     C234054  21.066  11.263  25.225 -0.1971 -0.1248  0.1081
30078DOD     C334055  21.457  11.152  25.049  0.0904 -0.1662  0.2249
30079DOD     C134056   2.195  15.192   4.849  0.1466 -0.1076  0.0114
30079DOD     C234057   2.439  14.811   4.828  0.2285  0.2018 -0.0273
30079DOD     C334058   2.628  14.381   4.896 -0.0405 -0.0150 -0.0298
30080DOD     C134059  18.909  25.824  11.790  0.2103 -0.0476  0.1330
30080DOD     C234060  19.194  25.451  11.763  0.1114 -0.1426 -0.1962
30080DOD     C334061  19.208  25.119  11.467 -0.3859  0.1590 -0.1190
30081DOD     C134062  17.678  15.608   4.041  0.1173 -0.5089  0.2532
30081DOD     C234063  17.985  15.336   3.852 -0.0244 -0.0516 -0.0330
30081DOD     C334064  18.432  15.463   3.884 -0.0985 -0.0174  0.1200
30082DOD     C134065  24.290  22.509  30.106 -0.4122 -0.1180  0.0877
30082DOD     C234066  24.363  22.692  29.646  0.3392  0.2006  0.2195
30082DOD     C334067  24.273  23.095  29.418 -0.3042 -0.0207  0.0939
30083DOD     C134068  16.177  15.170   0.026 -0.2439 -0.2338  0.2286
30083DOD     C234069  16.130  14.715   0.023  0.1289 -0.1095  0.1829
30083DOD     C334070  15.979  14.279   0.118 -0.0476 -0.1344  0.1349
30084DOD     C134071  18.617   1.092  16.665  0.2067 -0.2983 -0.2553
30084DOD     C234072  18.520   1.318  16.252 -0.3260 -0.0730 -0.2488
30084DOD     C334073  18.503   1.504  15.844 -0.1182 -0.0918  0.5082
30085DOD     C134074  26.812   8.285   5.023 -0.0381  0.0383 -0.0328
30085DOD     C234075  27.074   8.302   5.426 -0.0818 -0.2159  0.0432
30085DOD     C334076  26.909   8.524   5.817 -0.1455  0.2307 -0.2168
30086DOD     C134077   8.217  28.442  14.984 -0.2046  0.2767 -0.0243
30086DOD     C234078   8.486  28.518  15.339  0.1450 -0.2772 -0.1169
30086DOD     C334079   8.599  28.747  15.723 -0.1577 -0.1686 -0.1991
30087DOD     C134080  11.028  14.291   9.493 -0.1821  0.2169  0.2186
30087DOD     C234081  10.598  14.113   9.557 -0.0452  0.1131  0.1589
30087DOD     C334082  10.328  13.795   9.349 -0.2385  0.2551 -0.0259
30088DOD     C134083  18.704  18.485  18.143  0.1292  0.2323  0.0450
30088DOD     C234084  18.487  18.103  18.070 -0.0192  0.1524 -0.0505
30088DOD     C334085  18.095  18.044  18.379 -0.1339  0.0616 -0.1584
30089DOD     C134086  16.922  25.413  21.076  0.2398  0.3397 -0.0463
30089DOD     C234087  16.601  25.632  21.218  0.0483  0.1870  0.2217
30089DOD     C334088  16.186  25.820  21.309 -0.3078 -0.3745  0.0070
30090DOD     C134089  26.333   3.886   5.979  0.0155 -0.0897 -0.3893
30090DOD     C234090  26.066   4.271   5.977 -0.0649  0.0307  0.0131
30090DOD     C334091  26.008   4.664   6.157  0.0545 -0.0788 -0.1023
30091DOD     C134092   2.297  11.490   5.929  0.1029  0.1925 -0.4402
30091DOD     C234093   2.194  11.370   5.465  0.0684  0.1439  0.2588
30091DOD     C334094   2.445  11.329   5.047 -0.1608  0.2692 -0.2467
30092DOD     C134095  19.519  22.923  18.896  0.1089 -0.1798  0.1846
30092DOD     C234096  19.691  23.212  18.591 -0.2929 -0.0044  0.1978
30092DOD     C334097  20.032  23.122  18.260  0.0284  0.0232  0.2230
30093DOD     C134098   7.500   6.939   3.927 -0.1303 -0.2690 -0.0481
30093DOD     C234099   7.393   6.732   3.517  0.2697 -0.1660  0.1105
30093DOD     C334100   7.443   6.426   3.173  0.1033 -0.0468  0.1654
30094DOD     C134101   9.491  17.587  18.450 -0.2390  0.0787 -0.0572
30094DOD     C234102   9.090  17.323  18.268 -0.2433 -0.1643  0.2153
30094DOD     C334103   8.913  17.204  17.880 -0.3098  0.0174  0.2711
30095DOD     C134104   4.438  16.322  18.646  0.0871 -0.1258 -0.1332
30095DOD     C234105   4.848  16.479  18.786  0.3791  0.0726  0.0960
30095DOD     C334106   5.205  16.772  18.848  0.0293 -0.0406 -0.0141
30096DOD     C134107  14.495  26.107  28.284 -0.2068 -0.0612  0.0286
30096DOD     C234108  14.926  25.919  28.162 -0.0773 -0.1203  0.0046
30096DOD     C334109  15.321  26.092  28.046  0.0599 -0.0541 -0.3775
30097DOD     C134110   0.110   2.480   0.386  0.3309  0.2179 -0.2680
30097DOD     C234111  30.167   2.184   0.196 -0.1768 -0.6271 -0.2216
30097DOD     C334112  30.118   1.813  30.241 -0.3162  0.3477 -0.3563
30098DOD     C134113  20.488  10.047  26.485 -0.0791  0.1680  0.0502
30098DOD     C234114  20.247  10.506  26.419  0.1060 -0.0681  0.1294
30098DOD     C334115  19.966  10.683  26.069  0.1205 -0.3148 -0.1174
30099DOD     C134116   1.809  25.782  22.124  0.2441 -0.1239  0.0820
30099DOD     C234117   1.385  25.886  22.302  0.1234  0.0875  0.2476
30099DOD     C334118   1.009  25.970  22.555  0.3893  0.1853  0.0841
30100DOD     C134119   4.667  25.679   7.804  0.0001  0.3049  0.1480
30100DOD     C234120   4.526  26.159   7.776 -0.2639  0.0936  0.0379
30100DOD     C334121   4.205  26.538   7.815  0.1757 -0.0143 -0.0689
30101DOD     C134122  27.039  11.263   5.697 -0.4615 -0.1294  0.1706
30101DOD     C234123  27.060  10.843   5.707 -0.0369  0.0653  0.3793
30101DOD     C334124  27.069  10.437   5.868 -0.1227  0.1765 -0.0420
30102DOD     C134125  13.920   3.470   8.887 -0.2701  0.0258  0.0225
30102DOD     C234126  14.040   3.437   9.380  0.2090  0.0640 -0.4522
30102DOD     C334127  14.100   3.651   9.781  0.2192  0.3799 -0.1112
30103DOD     C134128  26.489   4.589  12.273 -0.0866 -0.1588  0.2112
30103DOD     C234129  26.243   4.647  12.642 -0.2685 -0.1187 -0.1501
30103DOD     C334130  26.431   4.466  13.043 -0.2133 -0.3300 -0.1296
30104DOD     C134131  30.201   3.700   2.368  0.1367  0.0626 -0.2291
30104DOD     C234132  29.932   3.772   1.920  0.1120 -0.0643  0.0434
30104DOD     C334133  29.878   3.646   1.475  0.3522 -0.2418 -0.1060
30105DOD     C134134  17.367  25.567  15.283 -0.1620  0.0946 -0.3379
30105DOD     C234135  17.144  25.165  15.333 -0.2400  0.0891  0.1554
30105DOD     C334136  17.244  24.678  15.286 -0.0285  0.1333 -0.0391
30106DOD     C134137  30.306  14.921  17.862  0.2839  0.0908 -0.1886
30106DOD     C234138  30.283  15.113  17.417  0.1541 -0.0689  0.3537
30106DOD     C334139   0.389  15.178  17.185 -0.1478 -0.1296 -0.0232
30107DOD     C134140   1.517  19.760  20.805 -0.1506 -0.3115 -0.2606
30107DOD     C234141   1.563  19.717  20.351 -0.1110 -0.3137  0.0366
30107DOD     C334142   1.417  19.675  19.863 -0.0504  0.1761 -0.0551
30108DOD     C134143  27.622   7.068  14.350  0.0256  0.0526  0.0063
30108DOD     C234144  27.683   6.745  14.073 -0.0862  0.0056 -0.1290
30108DOD     C334145  27.709   6.286  13.870  0.3107 -0.3983 -0.1597
30109DOD     C134146   7.621  26.484  13.113 -0.0475 -0.0174 -0.0673
30109DOD     C234147   7.507  26.263  12.736 -0.3047 -0.0497  0.3510
30109DOD     C334148   7.460  25.796  12.809  0.4833 -0.0116 -0.2785
30110DOD     C134149  25.579  16.013  13.589 -0.1106  0.0309  0.0864
30110DOD     C234150  25.513  16.365  13.881 -0.0652 -0.0734  0.0812
30110DOD     C334151  25.098  16.427  14.109  0.1120  0.0299 -0.1679
30111DOD     C134152  21.596  13.757  22.066  0.0898 -0.0296 -0.0753
30111DOD     C234153  21.387  13.311  22.051 -0.1481 -0.3306 -0.0807
30111DOD     C334154  21.249  12.890  21.884 -0.2846 -0.4783 -0.0709
30112DOD     C134155  28.637  10.503  10.068  0.1187 -0.0820  0.0144
30112DOD     C234156  28.173  10.382  10.021  0.2235  0.0339  0.0048
30112DOD     C334157  27.876  10.536   9.716 -0.3129  0.1669 -0.0541
30113DOD     C134158  18.970   2.201  14.017  0.0484 -0.0153 -0.2864
30113DOD     C234159  19.191   1.780  14.096 -0.1421  0.0497 -0.0704
30113DOD     C334160  19.250   1.537  14.464  0.2007 -0.2368 -0.2061
30114DOD     C134161  21.769  25.988  29.502 -0.1392  0.0955 -0.1201
30114DOD     C234162  21.437  25.692  29.566 -0.0736  0.3684  0.1131
30114DOD     C334163  21.429  25.338  29.842  0.0147  0.1598 -0.0177
30115DOD     C134164  24.493  27.100   4.941  0.0024  0.0325 -0.1592
30115DOD     C234165  24.863  27.413   4.995 -0.1860  0.1913  0.2618
30115DOD     C334166  25.160  27.807   4.916  0.2666  0.1504  0.1240
30116DOD     C134167  21.016   4.438  25.293  0.0894 -0.3254  0.1224
30116DOD     C234168  21.362   4.130  25.438  0.0647  0.1180 -0.0560
30116DOD     C334169  21.543   3.681  25.312 -0.3232 -0.1630  0.2817
30117DOD     C134170  23.881  18.127  26.919 -0.0477 -0.2546 -0.0996
30117DOD     C234171  23.461  18.151  26.760  0.0822 -0.0510  0.0615
30117DOD     C334172  23.094  18.487  26.728  0.1985 -0.1576  0.2219
30118DOD     C134173  10.378  13.187  28.764  0.1710  0.1290  0.0253
30118DOD     C234174   9.922  13.291  28.816  0.1079  0.2198 -0.0222
30118DOD     C334175   9.624  13.685  28.919  0.1925 -0.0424  0.0089
30119DOD     C134176   3.650   0.723  21.154  0.1803  0.1729 -0.0576
30119DOD     C234177   3.597   0.633  21.593 -0.2624 -0.0578 -0.1016
30119DOD     C334178   3.537   0.745  22.025  0.2601  0.1427  0.2748
30120DOD     C134179  14.687   0.688  13.335  0.0142  0.0068  0.1635
30120DOD     C234180  15.077   0.895  13.331 -0.2236 -0.0958  0.0794
30120DOD     C334181  15.569   0.955  13.401 -0.1016 -0.1275 -0.1090
30121DOD     C134182  15.479   9.098  26.351  0.1675  0.0052 -0.2545
30121DOD     C234183  15.626   9.430  26.599 -0.2576 -0.2081  0.1822
30121DOD     C334184  15.776   9.888  26.691  0.1302  0.0525  0.0713
30122DOD     C134185  28.177  24.706  27.196  0.1853 -0.0233  0.0625
30122DOD     C234186  28.440  24.334  27.119  0.3979  0.2597  0.0278
30122DOD     C334187  28.888  24.179  26.971  0.1023 -0.0879  0.0713
30123DOD     C134188  17.234  22.198  26.752  0.0122  0.1710 -0.1371
30123DOD     C234189  17.458  22.013  27.143 -0.3061 -0.3601 -0.1156
30123DOD     C334190  17.515  22.042  27.543  0.2001 -0.1862 -0.1524
30124DOD     C134191   0.403  11.359   5.914 -0.1217 -0.0658  0.0052
30124DOD     C234192   0.515  10.985   6.146 -0.0977  0.2217 -0.1333
30124DOD     C334193   0.916  10.948   6.320 -0.1210  0.0719  0.1778
30125DOD     C134194  12.138  29.924  21.755  0.0089  0.0755  0.0260
30125DOD     C234195  11.999  29.968  22.178  0.3998  0.4773  0.2384
30125DOD     C334196  11.929  30.234  22.553 -0.2464  0.0991 -0.6855
30126DOD     C134197  26.669  20.559  17.043 -0.3499  0.3463  0.0965
30126DOD     C234198  26.781  20.686  16.633  0.0513  0.0077  0.1533
30126DOD     C334199  27.110  20.971  16.391 -0.0654  0.2164  0.1789
30127DOD     C134200   3.951  10.492  10.291 -0.0942  0.1043 -0.1552
30127DOD     C234201   4.073  10.936  10.058 -0.1898 -0.5435 -0.3745
30127DOD     C334202   4.244  11.367  10.199  0.0745  0.0718 -0.1522
30128DOD     C134203  12.269  16.780   2.820  0.0779  0.3019 -0.0862
30128DOD     C234204  12.112  17.178   3.038 -0.1048  0.1244  0.1252
30128DOD     C334205  11.814  17.498   3.043 -0.0839 -0.2980  0.0562
30129DOD     C134206  28.458   1.245  26.655 -0.0638  0.1520  0.1631
30129DOD     C234207  28.762   1.368  26.296  0.0075  0.1041 -0.0810
30129DOD     C334208  28.899   1.721  25.981  0.1603  0.1643 -0.3476
30130DOD     C134209  23.435   0.346  11.289  0.1579 -0.0794  0.1978
30130DOD     C234210  23.508   0.716  10.988  0.1992  0.2412  0.2002
30130DOD     C334211  23.909   0.767  10.825 -0.0379 -0.0528 -0.1006
30131DOD     C134212  11.837   8.786  18.619 -0.0754  0.0826 -0.0010
30131DOD     C234213  11.992   8.364  18.631 -0.0487  0.1501  0.1769
30131DOD     C334214  12.207   8.013  18.917 -0.1683  0.1923 -0.1117
30132DOD     C134215   4.015   8.960  28.435  0.3080 -0.1010 -0.1169
30132DOD     C234216   3.883   8.558  28.273  0.2351 -0.0683 -0.2159
30132DOD     C334217   4.021   8.318  27.926  0.1060 -0.0297 -0.2983
30133DOD     C134218   1.376   4.437   2.670 -0.3333 -0.3061 -0.0086
30133DOD     C234219   1.215   4.157   2.349 -0.1229 -0.0647 -0.2092
30133DOD     C334220   0.920   4.340   1.993 -0.1325 -0.1104 -0.1280
30134DOD     C134221   8.762  20.713  21.818 -0.3053 -0.2457  0.2228
30134DOD     C234222   9.020  20.573  22.108  0.0095  0.0628  0.1697
30134DOD     C334223   9.150  20.677  22.505  0.1109 -0.2586 -0.0443
30135DOD     C134224   8.101  26.505  12.876  0.1908 -0.3956 -0.0795
30135DOD     C234225   7.995  26.956  12.751  0.1892  0.1278  0.1619
30135DOD     C334226   8.229  27.293  13.015  0.3143  0.2539 -0.0844
30136DOD     C134227  16.327   6.690  26.239 -0.2011 -0.1059  0.2381
30136DOD     C234228  16.612   6.332  26.112 -0.1157 -0.1005  0.3566
30136DOD     C334229  16.888   6.270  25.755  0.1690  0.3329 -0.0467
30137DOD     C134230  15.581  17.176  22.495 -0.0597 -0.0060  0.0792
30137DOD     C234231  15.682  16.708  22.598 -0.1959 -0.2920  0.1244
30137DOD     C334232  15.845  16.513  23.003  0.0825  0.2391  0.1466
30138DOD     C134233   3.064   7.292  18.923 -0.2131 -0.1320 -0.1987
30138DOD     C234234   3.381   7.168  19.217 -0.0316  0.0753  0.1828
30138DOD     C334235   3.689   7.311  19.514  0.0598  0.1823 -0.2640
30139DOD     C134236  17.790   5.919  15.462 -0.0124 -0.0082 -0.1298
30139DOD     C234237  17.401   5.838  15.668  0.0181  0.2625  0.1575
30139DOD     C334238  17.183   5.517  15.912  0.1206  0.1574  0.1543
30140DOD     C134239  22.903  13.953   4.395 -0.1579 -0.0221 -0.0568
30140DOD     C234240  22.846  13.534   4.164 -0.0728  0.1010 -0.0194
30140DOD     C334241  22.943  13.135   4.293 -0.2004 -0.0224 -0.1554
30141DOD     C134242   1.061   5.176  25.800  0.0298 -0.0106 -0.1002
30141DOD     C234243   1.033   5.117  26.290  0.1612  0.0362 -0.3572
30141DOD     C334244   1.002   4.899  26.686  0.2017  0.0318 -0.3313
30142DOD     C134245  15.593  28.286  14.252 -0.1032  0.2283  0.0992
30142DOD     C234246  15.732  27.879  14.406 -0.2471 -0.2773 -0.1085
30142DOD     C334247  15.773  27.401  14.384 -0.1327  0.0164 -0.0825
30143DOD     C134248  25.833   8.650   0.294  0.0461 -0.0459 -0.1700
30143DOD     C234249  26.013   8.561  30.133  0.0597  0.3094  0.2897
30143DOD     C334250  26.334   8.306  30.037  0.3754 -0.0978  0.0136
30144DOD     C134251   1.343   8.450   5.808  0.1709  0.0510  0.3197
30144DOD     C234252   1.059   8.051   5.735 -0.2210 -0.2539  0.0878
30144DOD     C334253   0.915   7.911   5.352 -0.0401 -0.2105 -0.0895
30145DOD     C134254   9.877  18.700  15.610 -0.0761  0.0497 -0.0391
30145DOD     C234255   9.409  18.619  15.552 -0.0987 -0.0243  0.1381
30145DOD     C334256   8.988  18.817  15.432  0.0630  0.2131 -0.0508
30146DOD     C134257  27.914  30.102  22.909  0.4517  0.3314 -0.1014
30146DOD     C234258  28.271  30.304  23.095  0.1187  0.0729 -0.2421
30146DOD     C334259  28.703  -0.018  23.248  0.2889 -0.0736  0.0958
30147DOD     C134260   1.273   0.668  12.292 -0.1588 -0.0161  0.0160
30147DOD     C234261   1.544   1.007  12.176 -0.0829 -0.0951 -0.0365
30147DOD     C334262   1.910   1.152  11.892  0.1274 -0.1398  0.1799
30148DOD     C134263   1.832   4.762   0.171 -0.5222 -0.1724  0.0641
30148DOD     C234264   1.486   4.479   0.311 -0.1955  0.2198 -0.2150
30148DOD     C334265   1.039   4.397   0.201 -0.2501 -0.0914  0.0833
30149DOD     C134266   4.048  26.833  17.851 -0.2445 -0.0556  0.4349
30149DOD     C234267   4.006  26.450  17.578  0.1408  0.2774  0.1258
30149DOD     C334268   3.879  26.148  17.220  0.0123 -0.0446  0.2946
30150DOD     C134269  23.835  12.532  29.675  0.1202 -0.2881  0.2036
30150DOD     C234270  23.681  12.498  30.143  0.1266  0.1592  0.1136
30150DOD     C334271  23.503  12.614   0.204  0.0592  0.0490  0.0261
30151DOD     C134272  18.523   3.796  26.066  0.0783  0.3444  0.1335
30151DOD     C234273  18.455   3.559  26.471 -0.0476  0.0294  0.1273
30151DOD     C334274  18.415   3.309  26.856 -0.0046  0.1380  0.1384
30152DOD     C134275  28.310  21.175  23.679  0.1877 -0.2456 -0.0832
30152DOD     C234276  28.390  21.355  24.063  0.0099  0.3497 -0.3811
30152DOD     C334277  28.307  21.743  24.280 -0.1529  0.2876 -0.0120
30153DOD     C134278  23.577  23.923  11.110  0.2092  0.0207 -0.0069
30153DOD     C234279  23.166  23.686  11.186  0.0708 -0.1788 -0.2878
30153DOD     C334280  22.748  23.804  11.413 -0.0511 -0.1012  0.1656
30154DOD     C134281  24.264   5.890   5.387 -0.1267 -0.1426 -0.0199
30154DOD     C234282  24.054   5.702   5.026 -0.0698 -0.0978  0.1661
30154DOD     C334283  23.819   5.466   4.696 -0.0413  0.0548  0.1682
30155DOD     C134284  17.323   9.707  14.795  0.0343 -0.2303  0.0934
30155DOD     C234285  17.069   9.802  15.172 -0.0867  0.0780  0.1069
30155DOD     C334286  16.815   9.709  15.564 -0.1083  0.0569 -0.0497
30156DOD     C134287  26.099  20.194  26.490 -0.0550  0.1955  0.0540
30156DOD     C234288  26.162  19.740  26.458  0.3419  0.0391 -0.1691
30156DOD     C334289  26.037  19.307  26.662  0.1535 -0.0382  0.0958
30157DOD     C134290  28.083  28.999  15.880 -0.4758 -0.0097  0.1500
30157DOD     C234291  27.926  28.671  15.571 -0.0748 -0.0310 -0.1980
30157DOD     C334292  28.057  28.441  15.170 -0.4367  0.0074  0.0789
30158DOD     C134293  26.266  16.979  28.493 -0.0854  0.2491 -0.0993
30158DOD     C234294  25.878  17.258  28.537 -0.2566 -0.2583 -0.3005
30158DOD     C334295  25.596  17.612  28.621  0.1420  0.0917  0.2041
30159DOD     C134296   0.391  19.982   2.982  0.0499 -0.1965 -0.0593
30159DOD     C234297  30.270  19.884   2.930 -0.1025  0.0096  0.1004
30159DOD     C334298  29.856  20.078   3.124 -0.1300 -0.1193 -0.1262
30160DOD     C134299  28.511  25.284   9.909 -0.0898 -0.1518 -0.1826
30160DOD     C234300  28.067  25.191  10.040  0.0914 -0.0834  0.0842
30160DOD     C334301  27.606  25.256  10.160 -0.0916 -0.1732 -0.1580
30161DOD     C134302  15.925  11.791   5.876  0.0606 -0.0300 -0.0792
30161DOD     C234303  16.317  11.787   6.154  0.0108  0.1766  0.0240
30161DOD     C334304  16.523  11.517   6.502  0.1232 -0.0935  0.1215
30162DOD     C134305  25.228  14.048   6.358  0.4658 -0.2079  0.1184
30162DOD     C234306  25.279  13.534   6.404 -0.0568 -0.0040 -0.1487
30162DOD     C334307  25.393  13.270   6.077  0.1461 -0.1610  0.1326
30163DOD     C134308  14.071  13.355  13.209  0.0962 -0.0481 -0.0320
30163DOD     C234309  14.406  13.017  13.376  0.1757 -0.1232  0.1242
30163DOD     C334310  14.768  12.882  13.168  0.2648  0.0791 -0.0601
30164DOD     C134311  20.522  10.084  10.478  0.2146 -0.0873 -0.2605
30164DOD     C234312  20.186   9.844  10.467 -0.0665 -0.1296 -0.0611
30164DOD     C334313  20.066   9.548  10.128  0.0099 -0.0121 -0.0907
30165DOD     C134314   3.606   6.131   6.367 -0.0478  0.1862 -0.1582
30165DOD     C234315   3.416   6.197   6.796  0.0145  0.2447 -0.0901
30165DOD     C334316   3.301   6.145   7.283  0.1743 -0.0952 -0.0468
30166DOD     C134317  15.570  13.044  24.422 -0.0138  0.1073 -0.3709
30166DOD     C234318  15.085  13.057  24.367  0.2117  0.0684 -0.0048
30166DOD     C334319  14.657  13.220  24.453  0.0073  0.0838  0.1241
30167DOD     C134320   5.448  22.141  23.030 -0.0620  0.0140 -0.1679
30167DOD     C234321   5.447  21.673  23.021  0.0915 -0.0934 -0.2928
30167DOD     C334322   5.794  21.429  23.052  0.4194  0.0903 -0.1681
30168DOD     C134323  16.627   9.302  19.210  0.0691  0.0357 -0.2436
30168DOD     C234324  16.341   9.377  19.558 -0.1715 -0.2153  0.1621
30168DOD     C334325  16.050   9.532  19.889  0.5580 -0.1996 -0.0851
30169DOD     C134326   4.894  19.423   7.203 -0.1645 -0.3501  0.0745
30169DOD     C234327   4.907  19.265   6.810 -0.1000 -0.0112  0.1110
30169DOD     C334328   4.842  19.043   6.391  0.1056  0.0966  0.1578
30170DOD     C134329  25.517  13.831   6.720 -0.0420  0.3941  0.3406
30170DOD     C234330  25.582  13.875   7.173 -0.0127  0.1399 -0.1963
30170DOD     C334331  25.351  14.017   7.564 -0.0822  0.2628  0.2932
30171DOD     C134332  22.448  26.073  14.571  0.0963  0.0787 -0.0137
30171DOD     C234333  22.292  26.357  14.178  0.0232 -0.0938 -0.0367
30171DOD     C334334  22.097  26.768  14.116  0.3258 -0.1178 -0.0775
30172DOD     C134335   5.768   3.628   1.771 -0.2181  0.0214 -0.0386
30172DOD     C234336   5.745   3.823   2.211  0.2057  0.2829 -0.1237
30172DOD     C334337   5.806   4.172   2.513 -0.1700 -0.2916 -0.3278
30173DOD     C134338  28.142  25.972   0.754  0.0422 -0.0456 -0.0661
30173DOD     C234339  28.219  25.717   0.394  0.0088  0.2985  0.0334
30173DOD     C334340  28.520  25.410   0.205  0.1557 -0.0951  0.2313
30174DOD     C134341  23.455  28.163  10.834  0.3247 -0.4466 -0.0843
30174DOD     C234342  23.297  27.831  11.031 -0.0591 -0.1982 -0.0331
30174DOD     C334343  23.300  27.473  11.413 -0.2043  0.2835 -0.0537
30175DOD     C134344   6.440  12.528  18.506  0.0585 -0.1389  0.4823
30175DOD     C234345   6.115  12.346  18.816 -0.0321 -0.2792 -0.1120
30175DOD     C334346   5.734  12.226  18.982  0.0402  0.1478 -0.0196
30176DOD     C134347   8.038  12.683   9.757 -0.0221 -0.0336 -0.5605
30176DOD     C234348   8.329  12.346   9.600 -0.1309 -0.0377 -0.4530
30176DOD     C334349   8.821  12.270   9.683 -0.0298 -0.0254 -0.0687
30177DOD     C134350  29.385   7.344  15.706 -0.2183 -0.2980 -0.0933
30177DOD     C234351  29.553   7.748  15.750  0.1395  0.1700 -0.2270
30177DOD     C334352  29.793   8.044  15.970  0.1521  0.2718  0.0418
30178DOD     C134353  28.872  16.281  13.923 -0.0442  0.3253 -0.1811
30178DOD     C234354  28.731  15.878  13.816 -0.1593  0.0758  0.1502
30178DOD     C334355  28.953  15.514  13.717  0.2826  0.3185 -0.0654
30179DOD     C134356  18.169  19.571   6.374 -0.0899 -0.3221 -0.2031
30179DOD     C234357  17.823  19.274   6.524  0.2186  0.2671  0.0129
30179DOD     C334358  17.675  18.844   6.608 -0.0365  0.0628 -0.1700
30180DOD     C134359  20.914  28.656  19.535 -0.3931  0.1572  0.0507
30180DOD     C234360  21.166  28.367  19.383 -0.0326  0.3164 -0.2996
30180DOD     C334361  21.540  28.104  19.302 -0.0487  0.0763 -0.0287
30181DOD     C134362  22.523  26.283  16.219 -0.1822 -0.0515 -0.2508
30181DOD     C234363  22.996  26.415  16.297  0.1154 -0.2797 -0.1483
30181DOD     C334364  23.352  26.202  16.492  0.0959  0.3172 -0.0755
30182DOD     C134365  17.614   4.283  11.259  0.1501  0.0674 -0.1922
30182DOD     C234366  17.420   4.456  11.663 -0.1415  0.0494  0.1308
30182DOD     C334367  17.159   4.569  12.051 -0.0406  0.2087  0.2728
30183DOD     C134368  11.336  24.558  24.419 -0.1614  0.1975  0.1204
30183DOD     C234369  11.171  24.082  24.380 -0.3867 -0.3034  0.1675
30183DOD     C334370  11.103  23.723  24.118  0.1542 -0.0703 -0.2290
30184DOD     C134371  28.218  22.805  12.260 -0.2570  0.1207  0.0172
30184DOD     C234372  28.278  23.156  12.596 -0.1178 -0.0600 -0.0767
30184DOD     C334373  28.091  23.575  12.522  0.1454  0.1120 -0.1616
30185DOD     C134374   7.761   4.017   5.309  0.1654  0.1116 -0.3250
30185DOD     C234375   7.391   3.833   5.194 -0.0380 -0.0046 -0.0442
30185DOD     C334376   6.949   3.794   5.184 -0.3079  0.1207  0.1266
30186DOD     C134377  15.548  22.960  10.930  0.0698  0.1298 -0.0782
30186DOD     C234378  16.048  23.038  10.957  0.0440 -0.1286  0.1609
30186DOD     C334379  16.497  22.859  10.780  0.0796 -0.2599  0.2683
30187DOD     C134380  21.919  10.535  22.083 -0.4687  0.0889  0.1402
30187DOD     C234381  22.055  10.214  22.386  0.0994 -0.0517 -0.1036
30187DOD     C334382  22.106  10.015  22.820  0.0879 -0.2432  0.0846
30188DOD     C134383  19.795  19.495   2.084  0.0443  0.1068 -0.3136
30188DOD     C234384  20.037  19.167   2.300 -0.0684 -0.0338  0.0371
30188DOD     C334385  19.955  18.745   2.443  0.1166  0.0042  0.4070
30189DOD     C134386  26.919  23.838  15.030  0.0834 -0.0760 -0.2324
30189DOD     C234387  26.891  23.580  14.648 -0.1053 -0.0002 -0.1701
30189DOD     C334388  27.059  23.370  14.216  0.0499  0.2009  0.2546
30190DOD     C134389  30.209   1.113   3.711 -0.0693  0.2245  0.0195
30190DOD     C234390  29.930   0.878   3.378  0.6785  0.3367 -0.2759
30190DOD     C334391  29.610   0.977   3.074 -0.4057 -0.0143 -0.2813
30191DOD     C134392  26.732   6.558  19.887  0.0643 -0.1795 -0.2675
30191DOD     C234393  26.681   6.620  19.410 -0.1420 -0.1929  0.4137
30191DOD     C334394  26.789   6.769  18.981  0.0016 -0.0754 -0.2286
30192DOD     C134395  21.614  17.668  14.103 -0.0218  0.2525 -0.0437
30192DOD     C234396  21.454  17.980  13.781  0.1387  0.2520 -0.0139
30192DOD     C334397  21.171  18.369  13.779  0.2886 -0.3013 -0.1064
30193DOD     C134398   6.361  24.701  20.015  0.2722  0.0551  0.2136
30193DOD     C234399   6.625  25.117  19.907 -0.1646  0.2862  0.1650
30193DOD     C334400   7.041  25.367  20.019  0.2224 -0.0215  0.2535
30194DOD     C134401   4.954  23.663  16.465 -0.3428  0.0168 -0.2144
30194DOD     C234402   4.938  23.334  16.115 -0.0757  0.0337  0.2413
30194DOD     C334403   4.997  22.981  15.838 -0.1260  0.2717 -0.0691
30195DOD     C134404   2.707  12.086  21.686 -0.0110 -0.0851 -0.2385
30195DOD     C234405   2.814  11.675  21.853  0.3839  0.0505  0.2888
30195DOD     C334406   2.594  11.418  22.139 -0.0901  0.3281 -0.0621
30196DOD     C134407  30.280  17.371  22.851  0.2129  0.1228 -0.0189
30196DOD     C234408   0.263  17.099  23.111  0.1021  0.1789  0.1024
30196DOD     C334409   0.622  16.938  23.316 -0.0753 -0.0589 -0.1387
30197DOD     C134410  14.723   4.360  15.837  0.1636 -0.0899 -0.0414
30197DOD     C234411  15.170   4.494  15.755 -0.0567 -0.0013  0.0262
30197DOD     C334412  15.268   4.710  15.315  0.1540 -0.2618  0.1762
30198DOD     C134413  16.330  27.657  22.188  0.0510  0.0525  0.1669
30198DOD     C234414  16.445  27.456  22.604 -0.0248  0.3022 -0.0797
30198DOD     C334415  16.665  27.584  22.943  0.1792  0.4325  0.1977
30199DOD     C134416   4.337  12.845  23.767  0.1896 -0.0619  0.1077
30199DOD     C234417   4.503  12.887  24.174  0.1606  0.1489  0.0799
30199DOD     C334418   4.686  13.061  24.591 -0.1810 -0.0090  0.5920
30200DOD     C134419  27.028  28.218  22.258 -0.2195  0.1852 -0.1735
30200DOD     C234420  27.043  28.604  22.016 -0.0066 -0.1591  0.0614
30200DOD     C334421  27.311  28.910  21.827  0.3499 -0.1563 -0.1085
30201DOD     C134422  22.563  23.697  14.067 -0.1646  0.1961  0.1261
30201DOD     C234423  22.227  23.912  14.289 -0.3138  0.1371  0.0357
30201DOD     C334424  21.757  24.051  14.421  0.0807 -0.0333 -0.1023
30202DOD     C134425   4.305   8.075  26.346 -0.0003  0.2113  0.1248
30202DOD     C234426   4.144   7.962  25.924  0.1109  0.0475  0.0418
30202DOD     C334427   3.766   8.016  25.606 -0.2048  0.1299  0.2014
30203DOD     C134428  29.884  28.892  29.421  0.1147 -0.0724  0.1231
30203DOD     C234429  29.447  28.927  29.609  0.1081 -0.1170 -0.4299
30203DOD     C334430  29.054  28.769  29.341  0.1313 -0.1697  0.1543
30204DOD     C134431  10.598  16.928  29.744 -0.2216 -0.1535  0.0541
30204DOD     C234432  11.038  16.923  29.619  0.1596 -0.1860 -0.2023
30204DOD     C334433  11.355  16.494  29.510  0.0830 -0.0432  0.0065
30205DOD     C134434  20.299  18.671  18.496  0.0477 -0.0202  0.1561
30205DOD     C234435  20.284  18.508  18.025  0.1191  0.2248  0.2698
30205DOD     C334436  19.886  18.462  17.750  0.0494 -0.0624 -0.0172
30206DOD     C134437   6.712  17.087  19.454  0.0137  0.1541  0.0401
30206DOD     C234438   6.275  17.116  19.616 -0.0941  0.0780  0.0046
30206DOD     C334439   6.204  17.339  20.037  0.0932 -0.1440 -0.3665
30207DOD     C134440   9.972  23.783  24.630  0.0893  0.4137  0.1868
30207DOD     C234441  10.374  23.984  24.737  0.0540 -0.1008  0.0623
30207DOD     C334442  10.797  24.235  24.766 -0.0334 -0.0387  0.2446
30208DOD     C134443   5.168   6.027   3.673 -0.0106 -0.1281  0.0965
30208DOD     C234444   4.889   5.653   3.609 -0.0957  0.2449 -0.1017
30208DOD     C334445   4.486   5.419   3.621 -0.1837  0.2920  0.2431
30209DOD     C134446  23.041   3.922  14.261 -0.0256  0.0307 -0.1871
30209DOD     C234447  23.088   3.534  14.451  0.0191  0.0970  0.1833
30209DOD     C334448  23.325   3.301  14.807 -0.3217  0.0888 -0.0252
30210DOD     C134449   2.239  24.014  13.933  0.2890 -0.2269 -0.0198
30210DOD     C234450   1.834  24.081  13.733  0.3544  0.0706 -0.3562
30210DOD     C334451   1.478  24.282  13.551  0.2879  0.2196  0.0501
30211DOD     C134452  25.831   2.290  21.928 -0.1797  0.0763  0.3324
30211DOD     C234453  25.716   2.046  21.521 -0.1969 -0.3098  0.3939
30211DOD     C334454  25.514   1.879  21.170 -0.1560  0.3119  0.0455
30212DOD     C134455  22.969   9.086  25.425  0.0317 -0.4087  0.2659
30212DOD     C234456  22.600   8.841  25.306  0.1997 -0.0161  0.0861
30212DOD     C334457  22.247   8.675  25.448  0.1119 -0.0657  0.2438
30213DOD     C134458  17.699  19.688   9.765 -0.0314  0.1074  0.1635
30213DOD     C234459  17.499  19.728  10.205 -0.2447 -0.0286 -0.1070
30213DOD     C334460  17.322  19.447  10.574  0.0703 -0.1755  0.1170
30214DOD     C134461   0.607  18.609   3.392  0.2856 -0.1241 -0.0333
30214DOD     C234462   0.180  18.579   3.183 -0.0078 -0.2875  0.0089
30214DOD     C334463  30.150  18.259   3.039  0.0965  0.1419  0.3452
30215DOD     C134464   9.521   1.539   8.955 -0.1708  0.0925  0.1368
30215DOD     C234465   9.274   1.200   8.765  0.1631  0.1612  0.0637
30215DOD     C334466   9.350   0.693   8.830  0.2188 -0.2237  0.4099
30216DOD     C134467   5.616  20.353  10.272 -0.2333  0.3266  0.2200
30216DOD     C234468   5.714  20.292   9.816 -0.2542 -0.1021  0.0146
30216DOD     C334469   5.680  20.262   9.376  0.2070  0.0506 -0.3069
30217DOD     C134470  28.435  14.405  12.310 -0.1072  0.0306 -0.1354
30217DOD     C234471  28.165  14.588  12.620  0.0888 -0.2709  0.2281
30217DOD     C334472  28.013  14.948  12.942  0.0140 -0.2470 -0.0293
30218DOD     C134473  29.302   0.249  20.224  0.0491  0.1486 -0.0747
30218DOD     C234474  29.244   0.550  19.842 -0.1053  0.2009 -0.2854
30218DOD     C334475  29.316   0.706  19.403  0.2531  0.0947 -0.2825
30219DOD     C134476   6.391  29.262  20.720  0.1137  0.2263 -0.1727
30219DOD     C234477   6.404  29.659  20.493  0.0963 -0.3484 -0.2071
30219DOD     C334478   6.144  29.871  20.168  0.2323 -0.0893 -0.1584
30220DOD     C134479  20.412  26.993   1.170  0.2103  0.0540  0.0639
30220DOD     C234480  20.820  27.077   0.950 -0.1794  0.1553 -0.0966
30220DOD     C334481  21.284  26.960   0.804 -0.3231  0.0738  0.0417
30221DOD     C134482  22.420  24.721  11.059 -0.2371  0.2817  0.0420
30221DOD     C234483  22.838  24.674  10.999 -0.1222  0.0976  0.0108
30221DOD     C334484  23.195  24.534  10.739 -0.1709 -0.1175 -0.0379
30222DOD     C134485  10.252  16.095  11.741  0.1149  0.1265 -0.0560
30222DOD     C234486   9.863  16.234  12.052 -0.1862 -0.2909 -0.0631
30222DOD     C334487   9.531  16.549  11.928  0.0198  0.0233 -0.1422
30223DOD     C134488  15.780  21.688  27.078  0.1991 -0.0765  0.2484
30223DOD     C234489  16.007  21.914  26.752  0.0775 -0.1361  0.0440
30223DOD     C334490  15.976  22.222  26.435 -0.0854  0.2323 -0.1028
30224DOD     C134491   0.479  27.351   4.335  0.0714 -0.4332  0.0949
30224DOD     C234492   0.095  27.572   4.373 -0.2267  0.2604  0.2736
30224DOD     C334493  30.057  27.864   4.265  0.0384  0.2359  0.0310
30225DOD     C134494   1.858  12.669  14.591 -0.2451  0.0560 -0.0363
30225DOD     C234495   1.969  12.477  15.001  0.0761 -0.1797  0.3057
30225DOD     C334496   2.391  12.217  15.010 -0.1322  0.2426 -0.1525
30226DOD     C134497   2.579   1.101  15.260  0.0194 -0.1042  0.0016
30226DOD     C234498   2.751   0.946  15.685 -0.1072  0.2291  0.1285
30226DOD     C334499   3.062   0.820  15.999 -0.0093  0.0403 -0.0396
30227DOD     C134500  27.203  18.923  13.867  0.3227  0.0184  0.2796
30227DOD     C234501  27.487  18.950  14.288  0.1194 -0.0472  0.1122
30227DOD     C334502  27.899  19.059  14.485 -0.0082 -0.2911 -0.0482
30228DOD     C134503  20.723   0.194  23.572 -0.1219  0.1663 -0.0532
30228DOD     C234504  20.264   0.119  23.598  0.0345  0.0730  0.3727
30228DOD     C334505  19.938  30.149  23.771 -0.3258 -0.1414  0.1167
30229DOD     C134506   3.746  20.216  10.377  0.0509  0.1994 -0.1021
30229DOD     C234507   4.145  20.019  10.575 -0.0227  0.0747 -0.2844
30229DOD     C334508   4.267  19.758  10.928  0.4094  0.0369  0.0164
30230DOD     C134509  21.109  28.234  24.273 -0.1763 -0.0511 -0.1148
30230DOD     C234510  20.777  27.953  24.442  0.1896  0.1611  0.0510
30230DOD     C334511  20.364  27.736  24.522  0.1186 -0.0671 -0.4224
30231DOD     C134512   8.786   9.614   7.246  0.0926 -0.1673 -0.1547
30231DOD     C234513   9.037   9.288   7.529  0.1815  0.0555  0.1095
30231DOD     C334514   8.755   8.970   7.737 -0.1678 -0.0380  0.1737
30232DOD     C134515   6.106  13.503  25.517  0.0151 -0.0718 -0.0589
30232DOD     C234516   5.713  13.530  25.342 -0.1811 -0.4388 -0.0729
30232DOD     C334517   5.271  13.470  25.377  0.2486 -0.2742  0.4172
30233DOD     C134518  17.598  14.588   7.896 -0.1295 -0.2411 -0.4069
30233DOD     C234519  17.927  14.717   8.197  0.4507 -0.2589  0.3882
30233DOD     C334520  18.390  14.648   8.374  0.0800  0.1127 -0.1226
30234DOD     C134521  15.247  15.042  16.768  0.1564 -0.1643 -0.0214
30234DOD     C234522  14.915  14.818  17.058 -0.1746 -0.1204  0.1382
30234DOD     C334523  14.777  14.594  17.378 -0.1250 -0.0904 -0.1613
30235DOD     C134524  11.268  10.882  16.236 -0.1571  0.0410  0.0979
30235DOD     C234525  10.877  10.619  16.024  0.0270 -0.0425 -0.2198
30235DOD     C334526  10.405  10.761  15.917 -0.2919 -0.0191  0.0305
30236DOD     C134527  24.971   6.373  30.238 -0.0855  0.4298 -0.1026
30236DOD     C234528  24.603   6.339   0.181 -0.1698  0.3149 -0.1788
30236DOD     C334529  24.315   5.969   0.249 -0.1644  0.3047  0.1532
30237DOD     C134530  23.501  14.298   8.083 -0.1676  0.0242  0.2934
30237DOD     C234531  23.966  14.152   8.150 -0.0445  0.1245  0.2398
30237DOD     C334532  24.227  13.891   7.953  0.1390  0.2964 -0.0108
30238DOD     C134533   1.711  19.067  21.545  0.0917  0.1854  0.0773
30238DOD     C234534   1.894  18.739  21.819 -0.4335  0.2249  0.0881
30238DOD     C334535   1.684  18.359  21.945  0.1642 -0.0075  0.0264
30239DOD     C134536  17.539  16.247  25.233  0.0381  0.0818  0.2050
30239DOD     C234537  17.132  16.333  25.113 -0.0256 -0.2196  0.0498
30239DOD     C334538  16.701  16.588  25.292 -0.0084 -0.1071  0.0538
30240DOD     C134539  21.163  12.153  17.528 -0.1552  0.1076  0.1899
30240DOD     C234540  20.776  12.449  17.485 -0.1233  0.0434 -0.0999
30240DOD     C334541  20.647  12.823  17.736 -0.1402  0.1044 -0.1964
30241DOD     C134542  20.155  27.606  25.760 -0.0728  0.2727 -0.0929
30241DOD     C234543  19.780  27.876  25.685 -0.0871  0.3677  0.2152
30241DOD     C334544  19.349  28.100  25.617  0.1208 -0.3341  0.1684
30242DOD     C134545  16.887  30.063  19.435  0.1988  0.1917 -0.0210
30242DOD     C234546  17.040  29.637  19.539 -0.0418 -0.2617  0.1362
30242DOD     C334547  17.259  29.428  19.869 -0.0102 -0.0798  0.0854
30243DOD     C134548  10.318  16.987   1.818 -0.2306 -0.2081 -0.0959
30243DOD     C234549  10.324  17.214   2.163  0.1199  0.1206 -0.0462
30243DOD     C334550  10.584  17.466   2.402 -0.2461  0.0172  0.1602
30244DOD     C134551  13.260  10.932  10.506  0.0733 -0.1115  0.1452
30244DOD     C234552  13.503  11.307  10.284 -0.0946  0.2196  0.2615
30244DOD     C334553  13.788  11.705  10.252 -0.2091  0.0253 -0.2476
30245DOD     C134554  12.939   0.843   2.112  0.0551 -0.1315  0.1615
30245DOD     C234555  12.737   0.622   2.416 -0.0668  0.4784 -0.0448
30245DOD     C334556  12.368   0.590   2.749 -0.4964  0.1815 -0.1924
30246DOD     C134557   0.729  17.223   1.966  0.2713  0.2103 -0.3139
30246DOD     C234558   0.574  16.860   2.213  0.5174 -0.1053  0.0950
30246DOD     C334559   0.369  16.441   2.124 -0.0821  0.0141 -0.0642
30247DOD     C134560  11.827  16.968  12.575  0.1518 -0.1459  0.0348
30247DOD     C234561  11.826  17.126  12.167 -0.1970  0.3420  0.1358
30247DOD     C334562  11.496  17.412  12.019  0.2048 -0.0759  0.1092
30248DOD     C134563  14.256  20.955  28.166 -0.0939  0.2296  0.0739
30248DOD     C234564  14.010  20.720  28.482  0.3587  0.0708 -0.1993
30248DOD     C334565  13.981  20.462  28.863  0.0551 -0.2296 -0.0745
30249DOD     C134566  25.623  17.179  10.465 -0.1347  0.1586 -0.0925
30249DOD     C234567  25.596  17.101  10.883 -0.1946 -0.1099  0.1579
30249DOD     C334568  25.881  16.734  11.005 -0.0691  0.2238 -0.3251
30250DOD     C134569   6.918   5.069  28.504 -0.3651  0.0362  0.1671
30250DOD     C234570   7.280   5.270  28.306  0.1183  0.0604  0.1770
30250DOD     C334571   7.627   5.241  28.024  0.0262  0.3310 -0.1268
30251DOD     C134572   3.490  15.900  22.479 -0.1399 -0.0979 -0.3151
30251DOD     C234573   3.837  15.692  22.360  0.0056  0.1051  0.0323
30251DOD     C334574   3.894  15.276  22.141 -0.0425  0.1158  0.0273
30252DOD     C134575  23.770  11.908  19.494  0.2649 -0.0221 -0.2659
30252DOD     C234576  23.721  12.176  19.898  0.1216  0.0733  0.2349
30252DOD     C334577  23.461  12.114  20.252  0.0691  0.0658 -0.2434
30253DOD     C134578   3.193   6.402  18.835 -0.1699  0.0542 -0.0688
30253DOD     C234579   3.053   5.944  18.824 -0.0260 -0.2700 -0.2291
30253DOD     C334580   3.154   5.605  18.522  0.0050 -0.0212  0.0224
30254DOD     C134581   9.949  28.562   2.472 -0.2118 -0.1183  0.0414
30254DOD     C234582  10.367  28.757   2.642 -0.3194 -0.1290  0.0582
30254DOD     C334583  10.700  29.127   2.639  0.4183  0.2506 -0.0403
30255DOD     C134584  25.140  13.735  23.595  0.2369  0.1803 -0.1777
30255DOD     C234585  25.256  14.189  23.796  0.1140  0.3936 -0.1039
30255DOD     C334586  25.021  14.512  23.977 -0.2481  0.2315  0.2825
30256DOD     C134587   1.488  25.277  10.884 -0.2196  0.2525 -0.0642
30256DOD     C234588   1.500  25.648  10.594 -0.0141  0.0978 -0.1406
30256DOD     C334589   1.493  25.509  10.128  0.2657 -0.0161  0.0925
30257DOD     C134590  22.843  14.921  26.232 -0.1470 -0.2350  0.0950
30257DOD     C234591  23.075  15.334  26.175  0.1110 -0.1287 -0.0820
30257DOD     C334592  23.312  15.717  26.128 -0.1492  0.0618  0.0488
30258DOD     C134593   4.393  14.862  24.871  0.2971 -0.1513  0.0719
30258DOD     C234594   4.662  15.033  25.226 -0.1521 -0.2773  0.1365
30258DOD     C334595   4.604  15.407  25.547 -0.2275 -0.0571 -0.1844
30259DOD     C134596  17.338   9.444  22.959  0.1543  0.2157  0.2265
30259DOD     C234597  17.557   9.066  22.934 -0.0043 -0.2811  0.2053
30259DOD     C334598  17.782   8.652  22.957  0.0039 -0.0008 -0.2156
30260DOD     C134599   4.288   9.476   5.518  0.1278  0.3206 -0.3278
30260DOD     C234600   4.221   9.891   5.509  0.0331 -0.0614  0.1226
30260DOD     C334601   4.510  10.151   5.363  0.0469 -0.2090 -0.0470
30261DOD     C134602  27.103   9.322  11.131  0.0166  0.2513 -0.4052
30261DOD     C234603  27.344   9.352  10.684  0.0747  0.0474  0.0587
30261DOD     C334604  27.604   9.225  10.337 -0.0529 -0.2818  0.0542
30262DOD     C134605  28.250   3.168  29.389 -0.1016 -0.0446  0.0282
30262DOD     C234606  28.687   3.110  29.181 -0.1182  0.0494  0.0455
30262DOD     C334607  29.023   2.874  28.875  0.0309  0.4268 -0.3240
30263DOD     C134608  19.278  13.384  11.056 -0.1204  0.1209  0.1178
30263DOD     C234609  19.203  13.511  10.601  0.1772  0.2511  0.0562
30263DOD     C334610  19.070  13.331  10.211  0.1879  0.1070 -0.1626
30264DOD     C134611  11.287  14.195   8.798  0.3836  0.0528 -0.2777
30264DOD     C234612  11.521  13.832   8.641 -0.2669 -0.1096 -0.1243
30264DOD     C334613  11.554  13.357   8.643 -0.0264  0.2155 -0.0761
30265DOD     C134614   1.592  22.920  22.260  0.0255  0.3912  0.4219
30265DOD     C234615   1.200  23.130  22.175 -0.3351  0.1370 -0.0207
30265DOD     C334616   0.822  23.348  22.068 -0.3499  0.0648  0.1175
30266DOD     C134617  12.240   8.691  26.594  0.0648 -0.1620  0.2221
30266DOD     C234618  12.672   8.620  26.778  0.1113 -0.0395 -0.1787
30266DOD     C334619  12.729   8.526  27.286  0.2545 -0.1132  0.1157
30267DOD     C134620  25.372  26.013  25.008 -0.1431  0.0768  0.0784
30267DOD     C234621  25.151  26.074  24.629  0.4026  0.0723 -0.0377
30267DOD     C334622  25.037  26.546  24.511 -0.1935  0.1523 -0.0776
30268DOD     C134623  20.417  21.246   6.731 -0.1612  0.1807 -0.2403
30268DOD     C234624  20.422  20.776   6.546  0.1775 -0.1674 -0.4015
30268DOD     C334625  20.500  20.310   6.620 -0.0179 -0.0240  0.3175
30269DOD     C134626   4.346  21.426  17.779  0.0137 -0.0703  0.1107
30269DOD     C234627   4.745  21.244  17.587 -0.0058  0.0177  0.1457
30269DOD     C334628   5.057  20.920  17.712 -0.0556  0.0199 -0.0852
30270DOD     C134629  22.246   4.517  22.549  0.0069 -0.0958  0.1760
30270DOD     C234630  21.789   4.543  22.551 -0.2541 -0.0864 -0.2216
30270DOD     C334631  21.428   4.453  22.327  0.0213  0.1181 -0.0079
30271DOD     C134632  17.581  23.351  22.936  0.1375 -0.2833  0.3365
30271DOD     C234633  17.932  22.990  22.969 -0.3464  0.1293 -0.3320
30271DOD     C334634  18.377  22.983  22.773 -0.0257 -0.1775 -0.0130
30272DOD     C134635  10.469  25.495  18.430 -0.1261 -0.1835 -0.2168
30272DOD     C234636  10.012  25.359  18.466  0.2130 -0.1380 -0.3202
30272DOD     C334637   9.854  25.481  18.925  0.0000  0.0200  0.1693
30273DOD     C134638   2.391   1.826   5.861 -0.0351 -0.0634 -0.4474
30273DOD     C234639   2.295   2.005   6.284  0.1405  0.0184  0.1905
30273DOD     C334640   1.949   2.033   6.557 -0.0533 -0.0554 -0.0495
30274DOD     C134641  12.539   8.386  15.352 -0.0768 -0.0791 -0.2098
30274DOD     C234642  12.713   8.164  15.728 -0.1370 -0.0302  0.1521
30274DOD     C334643  13.091   7.971  15.942 -0.4713 -0.1494 -0.0114
30275DOD     C134644  27.006  15.112  12.386  0.2833 -0.2485 -0.0939
30275DOD     C234645  26.792  14.808  12.156  0.0143 -0.1156 -0.1393
30275DOD     C334646  26.620  14.642  11.742 -0.1232 -0.2189  0.1768
30276DOD     C134647  25.181  24.450  23.262  0.0740 -0.0845  0.0731
30276DOD     C234648  25.035  24.903  23.064 -0.4891  0.2493 -0.1856
30276DOD     C334649  25.179  25.058  22.613 -0.4789 -0.4357 -0.0313
30277DOD     C134650   8.645   8.859   4.873  0.3274 -0.0098  0.0387
30277DOD     C234651   8.331   8.501   4.789  0.1867 -0.0921 -0.1694
30277DOD     C334652   7.859   8.537   4.686 -0.1444  0.1441 -0.0936
30278DOD     C134653  22.756  27.559  23.446 -0.0136  0.0046 -0.1755
30278DOD     C234654  22.973  27.221  23.151  0.1532 -0.1996  0.2462
30278DOD     C334655  23.072  26.789  22.911 -0.0958  0.1298 -0.1220
30279DOD     C134656  23.726   6.165   6.643  0.0088 -0.2345 -0.0115
30279DOD     C234657  23.859   6.447   6.324  0.0631 -0.0880  0.0118
30279DOD     C334658  24.013   6.885   6.185 -0.1059 -0.1489  0.2051
30280DOD     C134659  13.254  27.000  23.589  0.0568 -0.1773  0.0606
30280DOD     C234660  13.241  26.621  23.358  0.2255 -0.4239  0.0031
30280DOD     C334661  13.012  26.555  22.979 -0.0790 -0.2570  0.2281
30281DOD     C134662  12.838  17.355   6.206  0.0798 -0.1663  0.1071
30281DOD     C234663  12.850  16.916   6.459  0.0829  0.0060  0.0476
30281DOD     C334664  12.796  16.495   6.248 -0.2254  0.4812  0.1880
30282DOD     C134665  14.960  18.515   0.103  0.0457 -0.2485 -0.0111
30282DOD     C234666  15.309  18.343  30.198 -0.1803  0.0257  0.1913
30282DOD     C334667  15.602  18.448  29.890 -0.1183 -0.0052  0.0269
30283DOD     C134668  12.203   5.328  13.291  0.2826 -0.1185 -0.1231
30283DOD     C234669  12.533   5.178  12.975  0.0140  0.4560 -0.0310
30283DOD     C334670  12.610   4.747  12.778 -0.3190  0.0313  0.0370
30284DOD     C134671  27.932  29.439   4.143 -0.0962  0.0164  0.1156
30284DOD     C234672  27.804  29.070   3.837  0.0410 -0.1662  0.2505
30284DOD     C334673  27.802  28.640   3.685 -0.1296  0.2294 -0.1259
30285DOD     C134674  28.441  28.368  23.697 -0.1235  0.0560 -0.0820
30285DOD     C234675  28.314  28.840  23.641 -0.2442 -0.0392 -0.1427
30285DOD     C334676  27.872  29.001  23.728 -0.2220 -0.2321  0.0935
30286DOD     C134677  18.583   5.854  28.334 -0.6398  0.0973  0.3182
30286DOD     C234678  18.918   5.644  28.173 -0.0435  0.3075  0.1516
30286DOD     C334679  18.980   5.418  27.794  0.1475  0.0360 -0.1763
30287DOD     C134680   3.295  28.706   6.767  0.0811  0.1435  0.1296
30287DOD     C234681   3.308  28.877   6.315 -0.3165 -0.0514 -0.1416
30287DOD     C334682   3.177  29.231   5.989 -0.2057 -0.2193  0.0929
30288DOD     C134683  15.501  28.009  29.613 -0.0823 -0.0456 -0.0254
30288DOD     C234684  15.276  27.710  29.304  0.1992 -0.2091 -0.0524
30288DOD     C334685  15.341  27.238  29.272 -0.0869  0.0661  0.0795
30289DOD     C134686  20.187  15.804   9.466  0.0363  0.0595 -0.3680
30289DOD     C234687  20.384  15.976   9.050 -0.1414  0.2885  0.0129
30289DOD     C334688  20.345  16.190   8.617  0.0005  0.3757  0.1487
30290DOD     C134689  15.389   2.155  12.275 -0.1056  0.1253 -0.1362
30290DOD     C234690  15.778   1.957  12.168  0.3051 -0.1572  0.0031
30290DOD     C334691  15.908   1.560  12.018  0.3759 -0.0217  0.0076
30291DOD     C134692  16.919  15.144   3.143  0.2681  0.0424 -0.0396
30291DOD     C234693  16.528  15.425   3.182 -0.3875  0.0304 -0.0100
30291DOD     C334694  16.456  15.572   2.729  0.0552 -0.3506 -0.3454
30292DOD     C134695  14.624  17.619  22.410  0.0726  0.0410 -0.1491
30292DOD     C234696  14.185  17.699  22.437 -0.1947  0.2995  0.0423
30292DOD     C334697  13.714  17.617  22.288 -0.0596 -0.3780 -0.0460
30293DOD     C134698  19.426   2.219   6.322 -0.0232  0.2343  0.2150
30293DOD     C234699  19.250   2.656   6.253  0.1853 -0.0175  0.1255
30293DOD     C334700  18.792   2.764   6.406 -0.1671 -0.1354  0.2633
30294DOD     C134701   8.268  12.377   9.113  0.0960  0.1565 -0.0880
30294DOD     C234702   8.568  12.700   9.271  0.1671  0.0128 -0.1617
30294DOD     C334703   8.875  13.050   9.335 -0.1300  0.1089 -0.3595
30295DOD     C134704  19.892  23.405  15.222  0.0534 -0.2293 -0.3013
30295DOD     C234705  20.224  23.156  15.390  0.0771 -0.0511 -0.2557
30295DOD     C334706  20.588  22.824  15.308  0.3363  0.0522 -0.2412
30296DOD     C134707   9.733  21.376   4.565  0.0386 -0.0315 -0.1778
30296DOD     C234708   9.614  20.942   4.549  0.0396 -0.1250  0.1517
30296DOD     C334709   9.462  20.501   4.505  0.0890  0.0679 -0.0526
30297DOD     C134710  10.958  20.708   5.769 -0.3601  0.1386  0.1032
30297DOD     C234711  11.214  21.071   5.867  0.0430 -0.0049 -0.1014
30297DOD     C334712  11.683  21.221   5.715  0.1517  0.3638 -0.0533
30298DOD     C134713  10.470  14.538  18.500 -0.0123  0.0758  0.1497
30298DOD     C234714  10.167  14.572  18.181  0.0577  0.1109 -0.3437
30298DOD     C334715   9.845  14.726  17.831 -0.0684  0.2377 -0.0367
30299DOD     C134716  29.358  17.015  16.711 -0.0032 -0.0512 -0.1603
30299DOD     C234717  29.710  17.159  16.997  0.1322 -0.0794  0.0415
30299DOD     C334718  29.902  17.604  17.022 -0.0195  0.0919  0.0282
30300DOD     C134719  10.071  22.498  11.656  0.1175 -0.0040 -0.0757
30300DOD     C234720  10.518  22.603  11.563 -0.3428  0.0607 -0.0540
30300DOD     C334721  10.990  22.570  11.736 -0.0115  0.1477 -0.0926
30301DOD     C134722  10.615   1.905  28.502  0.0727 -0.1483 -0.1026
30301DOD     C234723  11.072   1.935  28.653 -0.0845  0.0221  0.0718
30301DOD     C334724  11.406   2.258  28.627 -0.4447  0.1019  0.2179
30302DOD     C134725  27.149  12.284   1.246  0.2158  0.1311  0.1296
30302DOD     C234726  27.221  12.285   0.829  0.2020  0.2841 -0.0781
30302DOD     C334727  27.039  12.147   0.396  0.1718 -0.0075 -0.1672
30303DOD     C134728  21.831   1.362   3.186  0.1581 -0.0456 -0.1059
30303DOD     C234729  21.650   1.741   2.954  0.1331 -0.2408 -0.1750
30303DOD     C334730  21.226   1.955   2.814  0.0270 -0.3014  0.1386
30304DOD     C134731   8.414  21.368   5.240  0.2110  0.1268 -0.1782
30304DOD     C234732   8.711  21.093   5.017  0.1893 -0.0107  0.1936
30304DOD     C334733   8.941  20.672   5.140  0.1435 -0.1701 -0.2242
30305DOD     C134734  29.585  11.486   0.021 -0.1988  0.0151 -0.2255
30305DOD     C234735  29.500  11.101   0.254 -0.0370  0.1293  0.1720
30305DOD     C334736  29.559  10.964   0.694 -0.2154 -0.0887 -0.3757
30306DOD     C134737   0.503  13.651  27.996 -0.0920 -0.0601 -0.0684
30306DOD     C234738   0.466  14.038  27.659  0.1182  0.3661  0.2055
30306DOD     C334739   0.291  14.153  27.269  0.0587  0.2391 -0.4111
30307DOD     C134740  29.140  12.494  16.132 -0.1251  0.1042  0.2398
30307DOD     C234741  29.342  12.212  15.850  0.2209  0.2434  0.2616
30307DOD     C334742  29.710  12.116  15.564 -0.0150 -0.2119 -0.3604
30308DOD     C134743   3.649   6.083  15.285  0.0482 -0.2378 -0.2495
30308DOD     C234744   3.639   5.724  15.102 -0.0678 -0.1305 -0.0367
30308DOD     C334745   3.709   5.259  15.016  0.1284  0.0450  0.1121
30309DOD     C134746  16.381  29.809  27.477 -0.3187  0.0653  0.0733
30309DOD     C234747  16.717  29.453  27.403 -0.2839 -0.0825  0.0608
30309DOD     C334748  16.887  29.179  27.751  0.0049  0.0963 -0.1112
30310DOD     C134749  15.027  11.821  13.901 -0.1345 -0.1702 -0.1414
30310DOD     C234750  15.421  12.019  13.665 -0.0513 -0.1609  0.1402
30310DOD     C334751  15.840  12.125  13.442  0.2365  0.2050  0.0366
30311DOD     C134752  20.864  14.531  24.258 -0.0960 -0.0256  0.0133
30311DOD     C234753  20.651  14.639  23.855  0.1292 -0.0191 -0.0386
30311DOD     C334754  20.606  14.880  23.443 -0.3716  0.0701  0.1247
30312DOD     C134755  28.706   9.867  13.208 -0.1976  0.2198 -0.1546
30312DOD     C234756  28.865   9.395  13.235 -0.2280 -0.1770 -0.2423
30312DOD     C334757  29.229   9.077  13.121  0.1577 -0.3296  0.0762
30313DOD     C134758  22.878  17.043  29.477 -0.1291 -0.1384  0.1891
30313DOD     C234759  22.829  16.654  29.734  0.1642 -0.2102 -0.0859
30313DOD     C334760  22.698  16.215  29.590 -0.1668  0.3709 -0.2167
30314DOD     C134761  28.174   5.908   4.710  0.2727 -0.0826  0.1332
30314DOD     C234762  28.496   5.702   4.935 -0.0668 -0.0826  0.1810
30314DOD     C334763  28.952   5.772   5.116 -0.0266  0.0399  0.1568
30315DOD     C134764  13.733   8.791  12.905  0.2151  0.2289 -0.1279
30315DOD     C234765  13.632   8.605  12.477 -0.0670  0.0750 -0.0708
30315DOD     C334766  13.720   8.562  12.051 -0.1933  0.0966  0.1097
30316DOD     C134767  15.331   1.204  29.103  0.0296  0.1854  0.0243
30316DOD     C234768  15.230   1.586  28.873 -0.0856 -0.2118 -0.0798
30316DOD     C334769  14.978   1.686  28.442 -0.0605  0.3190 -0.5095
30317DOD     C134770  29.906  13.914  14.275  0.0133  0.0592 -0.1712
30317DOD     C234771  30.201  14.269  14.408 -0.0767  0.2339 -0.0117
30317DOD     C334772   0.108  14.620  14.616  0.0948 -0.1575 -0.0273
30318DOD     C134773  25.653  26.184  22.854  0.2372  0.0841  0.3337
30318DOD     C234774  25.811  25.888  22.536 -0.0957 -0.2161  0.0299
30318DOD     C334775  26.021  25.950  22.102  0.0791 -0.1091  0.0456
30319DOD     C134776   4.252  13.908  17.504 -0.0984 -0.0998 -0.0033
30319DOD     C234777   4.619  14.231  17.478 -0.1850 -0.0582 -0.0151
30319DOD     C334778   4.970  14.564  17.544 -0.1260 -0.0969  0.0309
30320DOD     C134779   5.995   7.265   8.642  0.0673 -0.1631 -0.2246
30320DOD     C234780   6.454   7.466   8.661 -0.2181 -0.5115  0.1499
30320DOD     C334781   6.754   7.453   9.000 -0.1301  0.1260  0.1671
30321DOD     C134782  28.869  28.326  13.214 -0.3578 -0.2388  0.0517
30321DOD     C234783  28.540  28.671  13.100 -0.0344  0.2149  0.4169
30321DOD     C334784  28.204  28.993  12.829 -0.1432 -0.4938 -0.4680
30322DOD     C134785  14.578  25.288  14.743 -0.0991  0.1647 -0.0302
30322DOD     C234786  14.625  25.702  14.425  0.0764 -0.0269 -0.3120
30322DOD     C334787  14.691  26.174  14.464  0.0387 -0.1572  0.1021
30323DOD     C134788  28.911  12.159  13.277 -0.1729  0.0757 -0.1951
30323DOD     C234789  28.635  12.436  12.995  0.0456  0.0144 -0.3563
30323DOD     C334790  28.276  12.577  12.776  0.1624 -0.0117  0.0791
30324DOD     C134791  23.646   7.226  17.316  0.1626  0.0763 -0.0152
30324DOD     C234792  23.846   7.370  16.885 -0.1835  0.0349 -0.1212
30324DOD     C334793  23.868   7.253  16.422 -0.2966 -0.0955  0.0321
30325DOD     C134794  22.057  29.056  19.168 -0.1383 -0.2397  0.4962
30325DOD     C234795  21.829  28.943  19.562  0.2474 -0.0705 -0.1265
30325DOD     C334796  21.442  28.895  19.843  0.2821 -0.0663 -0.4373
30326DOD     C134797  22.082  28.581  21.599 -0.1789 -0.0442  0.1418
30326DOD     C234798  22.502  28.749  21.594  0.0715  0.3133 -0.0882
30326DOD     C334799  22.882  28.606  21.845  0.0044  0.1172 -0.1012
30327DOD     C134800   8.902  11.856  20.448 -0.0769 -0.0986 -0.1156
30327DOD     C234801   8.891  11.407  20.503  0.1087 -0.2371 -0.0842
30327DOD     C334802   9.102  11.026  20.761  0.0468  0.1353 -0.2306
30328DOD     C134803  12.390  13.823   1.890 -0.1631  0.0119  0.2021
30328DOD     C234804  12.139  13.866   1.482 -0.1090  0.1284  0.1243
30328DOD     C334805  12.178  13.768   1.024  0.0822  0.2222  0.1238
30329DOD     C134806  21.090   2.167  30.231  0.1035  0.1391  0.0249
30329DOD     C234807  20.702   2.042   0.154  0.3517  0.0213  0.1517
30329DOD     C334808  20.381   2.067   0.476  0.1746  0.0077 -0.0950
30330DOD     C134809  14.518  24.097  27.942 -0.1659 -0.0077 -0.0745
30330DOD     C234810  14.050  23.995  27.848 -0.1755  0.1495 -0.2502
30330DOD     C334811  13.762  23.820  28.154  0.2762  0.0674  0.4867
30331DOD     C134812  28.185  10.479  18.370 -0.0972 -0.1973  0.0050
30331DOD     C234813  27.969  10.123  18.296  0.0675 -0.1747 -0.0381
30331DOD     C334814  27.578   9.870  18.209 -0.1697  0.1886 -0.1364
30332DOD     C134815  18.538  27.295  19.062  0.2830  0.1641 -0.0747
30332DOD     C234816  18.701  27.601  18.800  0.0516 -0.0490  0.2331
30332DOD     C334817  19.036  27.775  18.483 -0.1109  0.1136  0.0589
30333DOD     C134818  27.797  23.689   1.507 -0.1293  0.1187  0.0720
30333DOD     C234819  28.137  23.428   1.604 -0.1066  0.0944 -0.1075
30333DOD     C334820  28.546  23.243   1.401  0.0442  0.0169 -0.0772
30334DOD     C134821  21.104  21.929   0.772  0.1393 -0.1655  0.0414
30334DOD     C234822  21.227  21.734   0.377  0.0642  0.2512  0.1409
30334DOD     C334823  21.249  21.482   0.004 -0.1622  0.0231 -0.3007
30335DOD     C134824   4.500   7.449  23.031  0.1138  0.0929  0.0577
30335DOD     C234825   4.200   7.733  22.842 -0.2731  0.0372 -0.0003
30335DOD     C334826   3.949   8.096  23.006  0.2418 -0.0453  0.2640
30336DOD     C134827  28.476  26.705  11.404 -0.0452 -0.0894  0.1086
30336DOD     C234828  28.447  26.757  11.868  0.1132  0.1187  0.2283
30336DOD     C334829  28.602  27.074  12.173  0.1341 -0.0612  0.0272
30337DOD     C134830  30.079  25.253  13.965  0.3311 -0.0156  0.0062
30337DOD     C234831  29.953  25.026  13.576 -0.4843 -0.1012  0.0278
30337DOD     C334832  30.132  24.851  13.162  0.0070  0.0286  0.2760
30338DOD     C134833   9.334  13.014  11.733 -0.0144 -0.0243  0.0177
30338DOD     C234834   9.491  13.182  12.110 -0.0585 -0.1845  0.3620
30338DOD     C334835   9.564  13.095  12.558 -0.0612  0.2083 -0.0679
30339DOD     C134836  15.645   8.762   8.045 -0.2083 -0.1048 -0.1102
30339DOD     C234837  15.358   8.421   8.050 -0.0444 -0.0953 -0.4146
30339DOD     C334838  14.908   8.487   8.158  0.1727  0.0869 -0.4989
30340DOD     C134839  13.713   0.639   6.490  0.0895  0.0783  0.1285
30340DOD     C234840  14.162   0.680   6.377  0.0970 -0.1282 -0.0209
30340DOD     C334841  14.489   0.749   6.169 -0.0502 -0.2513 -0.1103
30341DOD     C134842  10.077   6.749   6.513  0.0882  0.0843  0.0856
30341DOD     C234843  10.258   7.206   6.467 -0.0138 -0.2373  0.0731
30341DOD     C334844  10.720   7.251   6.457  0.0626 -0.0830 -0.0749
30342DOD     C134845   8.844  15.172  21.506  0.2176 -0.0289 -0.1905
30342DOD     C234846   8.859  15.024  21.105 -0.2080  0.0377 -0.0456
30342DOD     C334847   8.628  15.110  20.727  0.2068 -0.1106 -0.2671
30343DOD     C134848   9.007   5.580   3.963 -0.2566 -0.0824 -0.0188
30343DOD     C234849   9.050   5.983   3.685  0.0721  0.2051 -0.0876
30343DOD     C334850   9.057   6.410   3.449 -0.0257  0.1654  0.1595
30344DOD     C134851  23.634   4.047   8.047  0.0237  0.2189  0.0632
30344DOD     C234852  23.436   3.723   8.329  0.1473 -0.1821  0.0295
30344DOD     C334853  23.343   3.358   8.537 -0.1169  0.1299 -0.1797
30345DOD     C134854   8.540  27.707  27.316  0.0215 -0.0628  0.1343
30345DOD     C234855   8.489  27.732  26.866 -0.0352  0.1055  0.0582
30345DOD     C334856   8.251  28.025  26.538  0.1286 -0.1374 -0.0695
30346DOD     C134857  28.987  28.872  22.279 -0.0507  0.2465  0.0828
30346DOD     C234858  29.233  28.661  21.970  0.1142  0.0556 -0.1017
30346DOD     C334859  29.644  28.475  22.006  0.0865 -0.0398 -0.2317
30347DOD     C134860  10.492  12.864  14.299  0.2547 -0.1580 -0.1387
30347DOD     C234861  10.330  12.664  14.688 -0.0737 -0.0760  0.0996
30347DOD     C334862   9.902  12.534  14.737 -0.0181  0.0600 -0.3874
30348DOD     C134863   3.890   9.239   6.670 -0.0085 -0.0901  0.0060
30348DOD     C234864   3.583   9.235   6.323  0.0157  0.1752 -0.0740
30348DOD     C334865   3.276   9.295   5.948 -0.1012  0.2894 -0.0613
30349DOD     C134866   5.010  25.399   5.008 -0.0122  0.0803 -0.2625
30349DOD     C234867   4.688  25.042   5.139  0.1042  0.3511 -0.0519
30349DOD     C334868   4.422  24.721   4.939  0.2959  0.2043 -0.0198
30350DOD     C134869  25.226   2.336  26.614 -0.0351  0.1851  0.0987
30350DOD     C234870  25.148   2.758  26.789 -0.1527  0.0913 -0.2952
30350DOD     C334871  24.809   3.099  26.658  0.3330  0.0775  0.0356
30351DOD     C134872   8.449  24.652  13.278 -0.3220 -0.2269  0.0119
30351DOD     C234873   8.202  24.232  13.293  0.0410  0.1609  0.1042
30351DOD     C334874   8.033  23.808  13.046 -0.1217  0.1156  0.1626
30352DOD     C134875  29.998  13.950  28.222 -0.1803 -0.0413 -0.1560
30352DOD     C234876  30.337  13.778  27.904  0.1414  0.1765  0.1001
30352DOD     C334877   0.132  13.747  27.430 -0.1889  0.2402  0.0267
30353DOD     C134878   6.610  24.310  29.953  0.3659  0.2987 -0.2805
30353DOD     C234879   6.973  24.067  29.770  0.0418  0.0089  0.1786
30353DOD     C334880   7.353  23.845  29.627 -0.0101 -0.1244 -0.0666
30354DOD     C134881   0.596  21.542  24.032 -0.1025  0.1123  0.1013
30354DOD     C234882   0.238  21.876  24.022 -0.0858  0.1784 -0.1977
30354DOD     C334883   0.264  22.269  23.774  0.2069  0.2568 -0.0085
30355DOD     C134884  25.005   0.390  26.244  0.1660 -0.0314  0.0714
30355DOD     C234885  25.396   0.697  26.366  0.0443  0.0702 -0.0976
30355DOD     C334886  25.735   0.921  26.594 -0.1747  0.1334 -0.1377
30356DOD     C134887  24.388   7.630  15.453 -0.1361  0.1151 -0.0930
30356DOD     C234888  24.144   7.755  15.776 -0.2829 -0.0197 -0.1456
30356DOD     C334889  23.730   8.076  15.758 -0.1417  0.0200  0.0505
30357DOD     C134890  23.841  10.061  12.979  0.1157  0.0970  0.3948
30357DOD     C234891  23.670  10.042  12.565 -0.2503 -0.1746 -0.0926
30357DOD     C334892  23.462   9.707  12.357 -0.0052  0.5041 -0.3014
30358DOD     C134893   5.141  13.826  25.767  0.2247 -0.2386  0.1220
30358DOD     C234894   5.449  13.517  25.896  0.3366 -0.0281  0.2439
30358DOD     C334895   5.823  13.278  26.011 -0.0815  0.2310  0.0639
30359DOD     C134896  19.017   8.883  19.208 -0.2173  0.0554 -0.1531
30359DOD     C234897  18.761   8.549  18.983  0.3370 -0.0337 -0.0005
30359DOD     C334898  18.631   8.200  18.700 -0.0929 -0.2181 -0.2639
30360DOD     C134899  22.648  23.981  28.326  0.2187  0.1748 -0.2662
30360DOD     C234900  22.889  24.428  28.293 -0.1032  0.1251 -0.1521
30360DOD     C334901  23.162  24.758  28.136  0.1618  0.3585  0.1048
30361DOD     C134902  29.234  12.035  25.380  0.2749 -0.0995 -0.0262
30361DOD     C234903  29.095  12.489  25.484  0.3043  0.0559  0.1137
30361DOD     C334904  28.710  12.720  25.514  0.0139 -0.2816  0.0706
30362DOD     C134905  24.147  27.736   7.276  0.0558  0.0172 -0.0743
30362DOD     C234906  23.809  27.557   7.102  0.0229 -0.2432  0.0320
30362DOD     C334907  23.551  27.387   6.729  0.1545  0.0512  0.0530
30363DOD     C134908  13.397   5.771   3.466 -0.0192  0.1166 -0.1305
30363DOD     C234909  13.056   5.501   3.308 -0.3001 -0.1811 -0.2208
30363DOD     C334910  12.964   5.060   3.466  0.1138 -0.3111  0.1559
30364DOD     C134911   2.765   1.013  22.991 -0.1236 -0.1576 -0.2856
30364DOD     C234912   2.556   1.288  22.671  0.0727  0.0509 -0.0082
30364DOD     C334913   2.256   0.951  22.596  0.0522  0.1152  0.0034
30365DOD     C134914  22.478  15.857   0.142  0.4186  0.0285  0.1817
30365DOD     C234915  22.799  16.181   0.289  0.1295  0.0048  0.6611
30365DOD     C334916  22.911  16.492   0.593 -0.0568  0.0057 -0.0053
30366DOD     C134917   9.380  26.225   1.317 -0.0094  0.1440 -0.2001
30366DOD     C234918   9.827  26.270   1.421  0.0435  0.1302  0.0123
30366DOD     C334919  10.108  26.355   1.815 -0.1449 -0.1963  0.0010
30367DOD     C134920  16.452   8.865  14.271 -0.0639  0.0027  0.1479
30367DOD     C234921  16.725   9.128  14.424  0.0645  0.0668  0.1538
30367DOD     C334922  16.898   9.398  14.714 -0.2007 -0.0228  0.3028
30368DOD     C134923  26.826  12.581   4.040 -0.0155  0.3545 -0.1604
30368DOD     C234924  26.379  12.402   4.022 -0.1813  0.1898 -0.5351
30368DOD     C334925  25.988  12.321   3.812 -0.1932 -0.4361 -0.2736
30369DOD     C134926  26.924  21.628  27.599 -0.2162  0.2581 -0.1275
30369DOD     C234927  27.214  21.739  27.239  0.1804 -0.2802  0.1482
30369DOD     C334928  27.580  21.855  27.074  0.2106  0.0125  0.0376
30370DOD     C134929   2.573  17.585  30.352 -0.0958  0.0142  0.1727
30370DOD     C234930   3.034  17.698  30.217  0.1093 -0.2341  0.2765
30370DOD     C334931   3.446  17.522  30.274 -0.0317  0.1629 -0.2165
30371DOD     C134932  13.224   8.478  23.066 -0.0918  0.2196 -0.0542
30371DOD     C234933  13.411   8.013  23.043 -0.0366  0.1134  0.1675
30371DOD     C334934  13.822   8.013  23.371 -0.2299 -0.0278  0.3092
30372DOD     C134935   1.775  19.512  26.122  0.1219  0.0589  0.2024
30372DOD     C234936   2.133  19.218  26.073  0.0198 -0.1140 -0.1646
30372DOD     C334937   2.369  18.822  26.205  0.0631 -0.2334 -0.0465
30373DOD     C134938   8.546  10.471  16.448 -0.1300 -0.1460  0.0872
30373DOD     C234939   8.704  10.040  16.430  0.1789  0.0142 -0.0745
30373DOD     C334940   8.943   9.689  16.320  0.2602  0.0975 -0.2530
30374DOD     C134941  24.970  25.863   9.297 -0.0996 -0.0490 -0.1345
30374DOD     C234942  24.720  25.647   8.999 -0.0692 -0.1177  0.1541
30374DOD     C334943  24.811  25.638   8.546 -0.0208 -0.0443  0.2119
30375DOD     C134944   4.538  24.290   5.152  0.0928  0.1669  0.0126
30375DOD     C234945   4.328  24.307   5.614  0.0295 -0.0906 -0.1281
30375DOD     C334946   3.975  24.317   5.925  0.0386  0.0416 -0.1722
30376DOD     C134947  19.464   7.853   7.395  0.1622 -0.0539 -0.0926
30376DOD     C234948  19.692   7.743   7.088 -0.3101 -0.0446  0.1542
30376DOD     C334949  19.974   7.416   6.977 -0.0773  0.0232 -0.4824
30377DOD     C134950  25.154  12.538  16.756 -0.2550  0.1484 -0.1115
30377DOD     C234951  25.302  12.179  16.984  0.1753  0.0513 -0.0262
30377DOD     C334952  25.153  11.839  17.265 -0.0212 -0.0633  0.1978
30378DOD     C134953  17.277  16.838  21.527 -0.0901 -0.1605 -0.0853
30378DOD     C234954  16.925  17.121  21.438  0.0011  0.0361 -0.2278
30378DOD     C334955  16.574  17.220  21.706  0.0825 -0.1191  0.0249
30379DOD     C134956  29.332   4.281   4.158 -0.3242  0.1451  0.0310
30379DOD     C234957  29.549   3.885   4.334 -0.0187  0.1899 -0.0412
30379DOD     C334958  29.753   3.488   4.582  0.0775 -0.1059 -0.1122
30380DOD     C134959  15.507   4.659  25.345 -0.2112  0.1601 -0.0728
30380DOD     C234960  15.771   4.282  25.172  0.1513  0.3040  0.1478
30380DOD     C334961  16.069   4.092  24.817 -0.0783 -0.1454 -0.2325
30381DOD     C134962  24.349   1.004   1.063 -0.0424  0.0306  0.0602
30381DOD     C234963  24.201   0.754   0.646  0.3957 -0.1019  0.0537
30381DOD     C334964  24.285   0.691   0.153  0.1583 -0.2232  0.0782
30382DOD     C134965  19.074  17.470  29.309  0.0003  0.2005 -0.1058
30382DOD     C234966  19.355  17.772  29.571 -0.2831 -0.3246 -0.0334
30382DOD     C334967  19.595  17.774  29.950 -0.1231 -0.1519  0.0421
30383DOD     C134968   9.718  25.014  16.242 -0.0067 -0.0803 -0.2159
30383DOD     C234969   9.735  25.301  16.598 -0.1689 -0.0344 -0.0030
30383DOD     C334970   9.943  25.469  16.959 -0.0713 -0.0932  0.0115
30384DOD     C134971   7.869  12.151   6.022 -0.2413 -0.0057  0.1767
30384DOD     C234972   7.851  11.853   6.396  0.1425  0.0124  0.0272
30384DOD     C334973   7.434  11.717   6.602 -0.0161  0.2643 -0.0454
30385DOD     C134974  16.631   7.214  27.388  0.1543 -0.0100  0.4951
30385DOD     C234975  16.996   7.103  27.124  0.2335  0.1917 -0.2706
30385DOD     C334976  17.373   7.098  26.831 -0.0860  0.2392  0.0540
30386DOD     C134977  28.953  15.344   9.341  0.3607 -0.0184  0.2421
30386DOD     C234978  28.929  14.874   9.219  0.2837 -0.0417  0.0685
30386DOD     C334979  29.071  14.429   9.125  0.3749  0.2582  0.0949
30387DOD     C134980  26.288  29.733  23.592 -0.1845 -0.1036  0.0330
30387DOD     C234981  26.375  29.256  23.782 -0.0390 -0.3992  0.0379
30387DOD     C334982  26.296  28.820  23.615  0.2578  0.1179 -0.4659
30388DOD     C134983  13.126  14.848  20.567 -0.2149 -0.1168 -0.1346
30388DOD     C234984  12.673  14.856  20.418  0.0385 -0.3433  0.0379
30388DOD     C334985  12.219  14.875  20.385 -0.3744 -0.0446 -0.1826
30389DOD     C134986  23.132  21.473  15.382 -0.2604 -0.1149 -0.1839
30389DOD     C234987  23.434  21.713  15.622 -0.0145  0.3178 -0.3130
30389DOD     C334988  23.553  22.141  15.737  0.0308 -0.0053 -0.5351
30390DOD     C134989   1.181  29.700   9.639  0.1706  0.0313 -0.1550
30390DOD     C234990   1.195  29.557  10.045 -0.2325 -0.2267  0.0162
30390DOD     C334991   1.456  29.227  10.143  0.0453  0.1363  0.1043
30391DOD     C134992  15.566   3.973   0.135 -0.0774  0.2771  0.0734
30391DOD     C234993  16.033   4.102   0.170 -0.0136  0.0084  0.2062
30391DOD     C334994  16.437   4.277   0.306  0.2097 -0.2159  0.0485
30392DOD     C134995  18.784   7.865  14.258 -0.0197  0.1718 -0.0635
30392DOD     C234996  19.174   8.033  14.446  0.0052  0.2148 -0.2058
30392DOD     C334997  19.554   8.284  14.437 -0.1249 -0.0364 -0.3397
30393DOD     C134998  27.656   9.222   8.374 -0.2055  0.0600  0.1775
30393DOD     C234999  27.459   8.850   8.110 -0.1010  0.1830  0.0804
30393DOD     C335000  27.389   8.423   8.029  0.0437 -0.0305  0.2184
30394DOD     C135001   0.448  12.038   5.328  0.0996  0.3408 -0.0141
30394DOD     C235002   0.397  12.428   5.113 -0.1805 -0.1162  0.0624
30394DOD     C335003   0.606  12.789   4.961  0.0723  0.3486  0.0447
30395DOD     C135004  11.263   6.684   1.902  0.2623  0.3314 -0.0513
30395DOD     C235005  11.620   6.529   2.159 -0.2326 -0.1328  0.1337
30395DOD     C335006  11.895   6.720   2.535 -0.1149 -0.2521  0.0836
30396DOD     C135007   4.620  13.740   9.834  0.2564  0.0911 -0.0713
30396DOD     C235008   4.150  13.698   9.742 -0.2904  0.1376  0.0176
30396DOD     C335009   3.833  13.658   9.421 -0.0941 -0.0623 -0.0664
30397DOD     C135010   9.475  16.356  10.598 -0.1386 -0.2074  0.0382
30397DOD     C235011   9.586  16.275  10.170  0.2181  0.1583 -0.0535
30397DOD     C335012   9.813  16.442   9.766 -0.2619 -0.4138 -0.0288
30398DOD     C135013   9.523  13.410   1.712 -0.2852  0.1375  0.1235
30398DOD     C235014   9.158  13.585   1.973  0.2990 -0.0148  0.6462
30398DOD     C335015   8.759  13.407   2.125  0.2008  0.2759 -0.0583
30399DOD     C135016   1.034   1.009  19.436 -0.2053 -0.0898 -0.2853
30399DOD     C235017   0.579   0.986  19.581  0.1322 -0.0847  0.0236
30399DOD     C335018   0.178   0.959  19.733 -0.0381 -0.3397  0.0408
30400DOD     C135019  20.646  10.387  14.945 -0.0686 -0.0254  0.3439
30400DOD     C235020  21.058  10.519  14.759  0.1902  0.1563 -0.0859
30400DOD     C335021  21.325  10.635  15.106  0.0407  0.0733  0.0996
30401DOD     C135022  21.573  26.629   6.311  0.3474 -0.0371 -0.1691
30401DOD     C235023  21.943  26.829   6.483 -0.0959  0.1780  0.0739
30401DOD     C335024  22.341  27.082   6.507 -0.2491 -0.2821  0.3178
30402DOD     C135025   3.689  25.764  15.075 -0.1699  0.2940  0.3935
30402DOD     C235026   3.477  26.187  14.893 -0.2656  0.0625  0.2116
30402DOD     C335027   3.419  26.337  14.460  0.1005  0.2684 -0.2205
30403DOD     C135028  27.969  14.177  19.131  0.0754 -0.0847 -0.3036
30403DOD     C235029  27.988  14.253  18.650  0.1139 -0.4168  0.2399
30403DOD     C335030  27.750  14.269  18.252 -0.1425 -0.2325  0.0226
30404DOD     C135031  24.797   9.338   2.101 -0.1619 -0.1558 -0.2101
30404DOD     C235032  25.033   9.607   1.792 -0.1618 -0.1052  0.2647
30404DOD     C335033  25.245  10.005   1.497  0.1972  0.2090  0.1758
30405DOD     C135034  28.291   4.124   0.663  0.1836  0.0479  0.1286
30405DOD     C235035  28.383   4.283   1.097  0.1138  0.0889 -0.0407
30405DOD     C335036  28.549   4.545   1.450 -0.0972  0.0014  0.0985
30406DOD     C135037  10.014  10.837   8.458 -0.0246  0.0632 -0.1157
30406DOD     C235038  10.345  11.045   8.182  0.2639  0.2013  0.3738
30406DOD     C335039  10.655  11.304   7.864 -0.0673  0.0350 -0.1384
30407DOD     C135040   2.278  11.580   4.164 -0.3635 -0.1239  0.0205
30407DOD     C235041   2.521  11.510   3.759  0.0449 -0.4418  0.0950
30407DOD     C335042   2.814  11.788   3.667  0.3052 -0.1003  0.0941
30408DOD     C135043  17.575  30.131  25.408 -0.1634  0.0481 -0.2683
30408DOD     C235044  17.391   0.099  25.682  0.0315  0.1215 -0.2608
30408DOD     C335045  17.546   0.495  25.908 -0.0113 -0.3035  0.2984
30409DOD     C135046  21.323   9.327  27.306 -0.2463  0.0957 -0.0546
30409DOD     C235047  21.645   9.086  27.124  0.2533 -0.0439 -0.0597
30409DOD     C335048  21.907   9.317  26.881  0.2052  0.1061  0.3299
30410DOD     C135049   2.994  26.948   6.085 -0.0220  0.1936  0.0143
30410DOD     C235050   3.151  26.482   6.200  0.2807 -0.0249  0.1134
30410DOD     C335051   2.880  26.144   6.397  0.0492  0.0586  0.1966
30411DOD     C135052   9.165  20.834  29.319  0.3773  0.4424 -0.2808
30411DOD     C235053   8.882  20.585  29.564  0.1371 -0.0788  0.0232
30411DOD     C335054   8.684  20.230  29.768 -0.0664 -0.2560  0.2171
30412DOD     C135055   2.242   8.448   7.577  0.2255  0.2758 -0.0723
30412DOD     C235056   2.428   8.720   7.262 -0.1818  0.3151 -0.0243
30412DOD     C335057   2.417   8.867   6.806 -0.0293  0.1411  0.1155
30413DOD     C135058   5.753   1.186  11.805 -0.1651 -0.0950  0.2859
30413DOD     C235059   5.898   0.896  12.139  0.0845 -0.0341 -0.0795
30413DOD     C335060   5.869   0.672  12.549 -0.1112  0.1459  0.2182
30414DOD     C135061  24.858  21.167  15.912 -0.0560 -0.1256 -0.1273
30414DOD     C235062  25.053  20.698  15.867 -0.4519  0.3266 -0.1165
30414DOD     C335063  25.107  20.248  15.838  0.0319 -0.0775  0.0231
30415DOD     C135064  22.578   9.548  15.047 -0.0915 -0.4246  0.0670
30415DOD     C235065  22.522   9.168  14.723 -0.1824  0.0972 -0.3968
30415DOD     C335066  22.695   8.848  14.435 -0.1427  0.0335 -0.1368
30416DOD     C135067   3.092   7.941  23.396  0.0453 -0.1310 -0.4048
30416DOD     C235068   2.718   8.202  23.405  0.1504  0.1210 -0.0104
30416DOD     C335069   2.264   8.359  23.379  0.0938  0.1987 -0.1126
30417DOD     C135070  29.958   3.604  25.784  0.2746 -0.0403  0.0248
30417DOD     C235071  29.909   3.552  25.335  0.1256 -0.0278  0.1239
30417DOD     C335072  29.959   3.375  24.881 -0.0541  0.0221  0.2853
30418DOD     C135073  22.186  26.637  19.918  0.0068  0.3600  0.3402
30418DOD     C235074  22.034  26.173  19.809 -0.0282  0.2246 -0.2051
30418DOD     C335075  21.897  25.731  19.657  0.0786  0.0011  0.0518
30419DOD     C135076  22.547  13.889   6.875 -0.2370  0.0192 -0.0735
30419DOD     C235077  23.039  13.870   6.635 -0.1415  0.2864 -0.0264
30419DOD     C335078  23.363  14.125   6.435 -0.2065 -0.0181  0.0742
30420DOD     C135079   2.268   2.677   3.674 -0.0026  0.2308 -0.1082
30420DOD     C235080   2.014   2.295   3.610 -0.1957  0.4529 -0.1391
30420DOD     C335081   1.924   1.796   3.445 -0.1032 -0.1796 -0.1817
30421DOD     C135082  27.227   4.608   2.150  0.0550  0.2825  0.0663
30421DOD     C235083  26.801   4.743   2.133 -0.2122 -0.2800  0.1697
30421DOD     C335084  26.402   4.813   2.387  0.1589  0.0189  0.2067
30422DOD     C135085  13.771  14.627   7.352  0.1464 -0.0946  0.1304
30422DOD     C235086  13.715  14.248   7.083 -0.0827 -0.1093 -0.1695
30422DOD     C335087  13.820  13.824   6.959 -0.1752  0.0168 -0.0514
30423DOD     C135088   4.375  17.342  13.266 -0.1723 -0.0211 -0.0718
30423DOD     C235089   4.012  17.462  13.589  0.3703  0.2464 -0.0423
30423DOD     C335090   3.984  17.660  13.996 -0.0721  0.0707 -0.1566
30424DOD     C135091  11.884   2.078  17.016 -0.1550 -0.0438  0.3209
30424DOD     C235092  11.973   1.781  16.712 -0.0607  0.1101  0.1173
30424DOD     C335093  11.619   1.644  16.417  0.1134 -0.2350  0.0435
30425DOD     C135094   5.244  15.325  20.966 -0.1388  0.1582 -0.3543
30425DOD     C235095   5.658  15.516  21.091 -0.3095 -0.0322  0.1162
30425DOD     C335096   6.044  15.732  21.328 -0.0692 -0.1748  0.1040
30426DOD     C135097   5.267   9.066  24.323 -0.1822  0.1758 -0.1806
30426DOD     C235098   4.980   8.917  23.959 -0.1615 -0.3710 -0.2018
30426DOD     C335099   4.586   8.639  24.066 -0.3248 -0.0686  0.2208
30427DOD     C135100  18.714  21.051   4.617 -0.0637 -0.0632 -0.2148
30427DOD     C235101  18.253  21.040   4.584 -0.2101 -0.2078  0.1871
30427DOD     C335102  17.884  20.869   4.792 -0.1602 -0.1717 -0.0253
30428DOD     C135103   6.793   8.979   8.456 -0.1061 -0.1519 -0.0307
30428DOD     C235104   7.070   8.823   8.815  0.0982  0.1053 -0.1227
30428DOD     C335105   7.438   8.963   8.992  0.0428  0.2001  0.0685
30429DOD     C135106   9.939  12.705   2.933  0.2297  0.1299 -0.0401
30429DOD     C235107  10.437  12.652   2.980  0.2148  0.0157  0.1055
30429DOD     C335108  10.727  12.322   2.827  0.1738 -0.2525  0.0695
30430DOD     C135109   7.386   3.044   4.551  0.2464  0.0250 -0.1340
30430DOD     C235110   7.809   3.078   4.761 -0.1051 -0.0216 -0.1478
30430DOD     C335111   8.261   3.025   4.833 -0.1998  0.0098  0.0888
30431DOD     C135112  22.432  14.928  14.029 -0.0897 -0.1403  0.4684
30431DOD     C235113  22.127  15.159  13.787 -0.2252  0.2173  0.3290
30431DOD     C335114  21.743  15.027  13.525 -0.2924  0.1033  0.0588
30432DOD     C135115  11.217  10.744  24.114  0.0412 -0.0817 -0.2120
30432DOD     C235116  11.018  10.316  23.994  0.0440 -0.1358  0.0111
30432DOD     C335117  11.137   9.931  23.721 -0.3841  0.4021  0.1719
30433DOD     C135118  28.286  16.677  21.999  0.1815  0.0932  0.3888
30433DOD     C235119  27.891  16.413  22.139 -0.0072  0.1354  0.0213
30433DOD     C335120  27.464  16.455  22.088 -0.1297  0.0216 -0.0638
30434DOD     C135121   2.833  11.562   4.874 -0.0588 -0.2318 -0.1607
30434DOD     C235122   3.288  11.324   4.704 -0.0164  0.0033  0.1112
30434DOD     C335123   3.605  11.234   4.397 -0.1275 -0.1179 -0.0302
30435DOD     C135124  20.391  21.320   7.363  0.1615 -0.1572  0.0311
30435DOD     C235125  20.021  21.299   7.072  0.0000  0.2919  0.1559
30435DOD     C335126  19.948  21.439   6.654  0.0182  0.0693 -0.1319
30436DOD     C135127  10.818   6.901   2.480 -0.2536 -0.3461 -0.2154
30436DOD     C235128  10.365   7.090   2.399 -0.0361 -0.0153  0.3366
30436DOD     C335129  10.091   7.402   2.296  0.0515  0.0295 -0.1243
30437DOD     C135130   1.645  14.603   8.900  0.0416  0.0141  0.0030
30437DOD     C235131   1.563  14.298   9.276  0.3814  0.1563  0.0620
30437DOD     C335132   1.792  13.857   9.337 -0.0451  0.1701 -0.2171
30438DOD     C135133  22.708  19.973  13.860 -0.0633  0.0069  0.1920
30438DOD     C235134  23.036  19.683  13.758 -0.0187 -0.0081 -0.4879
30438DOD     C335135  23.154  19.325  13.450  0.1458  0.2896 -0.3363
30439DOD     C135136  10.623  11.133  22.838  0.0067 -0.0501  0.0390
30439DOD     C235137  10.504  11.127  23.328 -0.0356  0.2168 -0.1773
30439DOD     C335138  10.765  11.177  23.718  0.1575 -0.0984  0.4839
30440DOD     C135139  19.371   6.975   1.397 -0.1569 -0.0345  0.1732
30440DOD     C235140  19.847   7.043   1.399 -0.0241  0.1761  0.1020
30440DOD     C335141  20.244   7.235   1.563 -0.0636 -0.0365  0.0508
30441DOD     C135142  14.589  29.652   3.824  0.2269 -0.0269 -0.2381
30441DOD     C235143  14.499  29.833   3.438  0.0076  0.0289 -0.1474
30441DOD     C335144  14.268  29.882   3.061  0.1527 -0.2104 -0.4099
30442DOD     C135145  20.545   0.529  25.439 -0.2133 -0.0598  0.2076
30442DOD     C235146  20.739   0.572  25.854 -0.0740  0.1844  0.1477
30442DOD     C335147  21.031   0.780  26.221  0.0476 -0.1703 -0.3333
30443DOD     C135148   5.455  20.580  18.023 -0.0305  0.2387  0.3181
30443DOD     C235149   5.850  20.345  18.037  0.1859 -0.3772 -0.2500
30443DOD     C335150   6.119  20.345  18.398  0.1282  0.3351  0.0600
30444DOD     C135151  22.938  26.360   8.465 -0.2995 -0.0968  0.1722
30444DOD     C235152  22.926  26.387   8.011  0.0709 -0.0050 -0.0468
30444DOD     C335153  23.248  26.557   7.774 -0.0337 -0.0480 -0.0223
30445DOD     C135154  28.470  11.610  18.552 -0.0953 -0.0848 -0.1068
30445DOD     C235155  28.130  11.825  18.781  0.0721  0.1340 -0.0445
30445DOD     C335156  27.805  12.185  18.729  0.1650  0.0732  0.2304
30446DOD     C135157  19.918  19.665  11.324 -0.0672  0.0539  0.3063
30446DOD     C235158  20.280  19.400  11.350 -0.1295 -0.1625  0.2014
30446DOD     C335159  20.497  19.026  11.442 -0.2340 -0.2453  0.0741
30447DOD     C135160   5.662  14.663  14.631  0.2179  0.0747  0.1097
30447DOD     C235161   5.387  14.262  14.638  0.0785 -0.0603 -0.1669
30447DOD     C335162   5.408  13.883  14.415  0.0108 -0.1573 -0.1075
30448DOD     C135163  16.732  26.690   6.597  0.2958  0.0354 -0.0140
30448DOD     C235164  17.068  26.383   6.459 -0.0105 -0.0653  0.3256
30448DOD     C335165  17.509  26.288   6.413 -0.0899 -0.1192  0.0253
30449DOD     C135166  29.742  29.663  26.127 -0.0338  0.0753 -0.0633
30449DOD     C235167  29.864  29.957  26.482  0.2653 -0.1440 -0.1166
30449DOD     C335168  29.679   0.021  26.728 -0.1689  0.0168 -0.3653
30450DOD     C135169  13.001  22.240   4.891  0.0621 -0.0836 -0.1452
30450DOD     C235170  13.443  22.032   4.812  0.3146  0.1749  0.2303
30450DOD     C335171  13.843  21.829   4.940  0.0778 -0.1643  0.1708
30451DOD     C135172  17.322   0.555   3.888 -0.1805 -0.1419  0.1253
30451DOD     C235173  17.469   0.784   4.264 -0.0696 -0.1801  0.3884
30451DOD     C335174  17.550   1.088   4.593  0.1126  0.0762 -0.0095
30452DOD     C135175  17.115  24.376   7.710 -0.2269 -0.0599 -0.0551
30452DOD     C235176  16.722  24.613   7.767 -0.0872  0.2666 -0.3309
30452DOD     C335177  16.726  25.048   7.681  0.0837  0.1994 -0.0089
30453DOD     C135178   4.677  14.694  12.658 -0.0388 -0.0694 -0.3985
30453DOD     C235179   4.986  14.816  12.374  0.2948  0.4748  0.1754
30453DOD     C335180   5.405  15.028  12.293  0.0481 -0.1106 -0.1770
30454DOD     C135181  24.326  15.132   4.899 -0.0108 -0.2323  0.4019
30454DOD     C235182  23.957  15.269   4.575 -0.0896  0.0759 -0.0931
30454DOD     C335183  23.696  15.512   4.253 -0.4697  0.0223  0.1928
30455DOD     C135184  13.865   8.218  22.280  0.0428  0.0453  0.3002
30455DOD     C235185  13.921   8.239  21.786  0.0865  0.1050 -0.0085
30455DOD     C335186  14.206   8.315  21.503 -0.1567 -0.1720  0.1108
30456DOD     C135187  13.241   5.952  25.862  0.2951 -0.2486 -0.0153
30456DOD     C235188  13.100   5.550  25.774  0.2117  0.3073  0.2163
30456DOD     C335189  13.172   5.137  25.572 -0.2950 -0.1119  0.2802
30457DOD     C135190  24.003  17.778  29.411 -0.0210  0.1662  0.1728
30457DOD     C235191  24.140  17.613  29.785 -0.2220 -0.0489  0.3069
30457DOD     C335192  24.475  17.786  30.098  0.2872 -0.0362  0.1277
30458DOD     C135193  26.243  10.061  14.029 -0.1081  0.1684 -0.1531
30458DOD     C235194  26.350  10.142  14.473  0.1907 -0.1818  0.0636
30458DOD     C335195  26.170  10.359  14.806  0.2292  0.1338 -0.2747
30459DOD     C135196  27.738  19.047   4.170 -0.4169 -0.1054  0.2633
30459DOD     C235197  28.117  19.380   4.195  0.2656  0.2923  0.1275
30459DOD     C335198  28.103  19.839   4.288  0.0722 -0.2757  0.1685
30460DOD     C135199  24.997  26.055  10.302 -0.1198 -0.1369 -0.2675
30460DOD     C235200  25.300  26.385  10.106 -0.3361  0.0025 -0.0264
30460DOD     C335201  25.554  26.676   9.926  0.1730  0.1449 -0.0569
30461DOD     C135202  13.063   8.680  21.550 -0.2196  0.1049  0.0807
30461DOD     C235203  12.795   8.994  21.312  0.1813 -0.2185  0.1808
30461DOD     C335204  12.889   9.335  20.948 -0.0443 -0.0037 -0.4528
30462DOD     C135205  20.769   9.169   6.718  0.2279  0.1107 -0.2724
30462DOD     C235206  20.989   8.905   6.397  0.0019 -0.0635  0.0980
30462DOD     C335207  21.006   8.543   6.138  0.0204  0.1990  0.1643
30463DOD     C135208   5.023  28.078  14.508  0.1464  0.0350 -0.0414
30463DOD     C235209   4.919  27.969  14.962 -0.2063 -0.3723 -0.0190
30463DOD     C335210   4.746  27.533  15.100 -0.0504 -0.2542 -0.1533
30464DOD     C135211  21.118  21.539  16.951  0.0134  0.0790 -0.1234
30464DOD     C235212  20.853  21.341  17.289 -0.0489 -0.2068 -0.0294
30464DOD     C335213  20.863  20.865  17.429 -0.0984  0.0813  0.1096
30465DOD     C135214  13.013  28.162   8.119  0.1544 -0.0517 -0.0314
30465DOD     C235215  13.032  27.744   8.311  0.4003  0.0410 -0.1477
30465DOD     C335216  13.050  27.593   8.729  0.5154 -0.0730  0.1745
30466DOD     C135217  16.210  21.333  25.355  0.1128 -0.3025  0.2285
30466DOD     C235218  16.204  20.960  25.065  0.2296  0.0322  0.3729
30466DOD     C335219  16.551  20.837  24.772 -0.1908  0.1764  0.2047
30467DOD     C135220   3.159  23.509  16.336 -0.1584 -0.0697  0.2244
30467DOD     C235221   2.997  23.135  16.126 -0.0830  0.2309 -0.3010
30467DOD     C335222   2.775  23.022  15.730 -0.1159  0.0221  0.3378
30468DOD     C135223   0.254  27.154  16.633  0.0067  0.1161  0.2014
30468DOD     C235224   0.298  27.553  16.903 -0.0779  0.0467 -0.1729
30468DOD     C335225   0.428  27.960  16.741  0.0161  0.0145  0.0732
30469DOD     C135226   0.248   2.187  21.476 -0.3384 -0.2994  0.1395
30469DOD     C235227   0.172   2.277  20.998 -0.2257  0.2105 -0.1398
30469DOD     C335228   0.271   2.567  20.641 -0.0043  0.0174 -0.2291
30470DOD     C135229  17.762   6.338   1.650  0.0592 -0.2526  0.0206
30470DOD     C235230  17.655   6.320   1.168  0.0897 -0.2609 -0.0283
30470DOD     C335231  17.640   6.030   0.775 -0.0408  0.0049  0.0605
30471DOD     C135232  26.104  17.533   9.646 -0.1204  0.1673  0.1055
30471DOD     C235233  26.332  17.436   9.287  0.0556  0.0923 -0.1517
30471DOD     C335234  26.670  17.528   8.956  0.0474 -0.0341  0.0757
30472DOD     C135235   0.624  10.132   1.283  0.0395 -0.1694  0.1185
30472DOD     C235236   0.887   9.822   1.494  0.0536  0.1636  0.1623
30472DOD     C335237   0.975   9.401   1.779 -0.4184 -0.1473 -0.1252
30473DOD     C135238  21.761   9.926   1.596 -0.4112  0.0778 -0.2092
30473DOD     C235239  21.752  10.400   1.729 -0.0393  0.1954  0.3154
30473DOD     C335240  21.879  10.897   1.797 -0.3290 -0.3803 -0.0233
30474DOD     C135241  15.860  26.166  27.892  0.2943  0.2134 -0.3638
30474DOD     C235242  16.009  25.951  27.456  0.2666 -0.1863 -0.0520
30474DOD     C335243  16.334  25.836  27.197 -0.2840 -0.0178 -0.2139
30475DOD     C135244  24.590   7.393  28.615  0.4453  0.0624  0.0941
30475DOD     C235245  24.662   7.094  28.224  0.0812 -0.2748 -0.0563
30475DOD     C335246  24.911   6.799  27.972 -0.0905  0.1272 -0.1282
30476DOD     C135247   6.040   6.867   5.414  0.3364  0.1010 -0.3183
30476DOD     C235248   5.979   6.517   5.692 -0.2428 -0.1422 -0.0133
30476DOD     C335249   6.191   6.150   5.703 -0.0251 -0.3404  0.0042
30477DOD     C135250  23.883  22.035   0.307  0.3906  0.2744  0.1185
30477DOD     C235251  24.296  22.079   0.141 -0.2113  0.0030  0.2327
30477DOD     C335252  24.742  22.216   0.262 -0.3182  0.1521 -0.1717
30478DOD     C135253  21.350  23.124   9.826  0.1847  0.1364 -0.2253
30478DOD     C235254  21.350  22.817  10.185  0.1310  0.0944 -0.1259
30478DOD     C335255  21.229  22.767  10.641 -0.0075 -0.4212  0.1016
30479DOD     C135256  23.142   7.512   6.148 -0.0888 -0.1639  0.0046
30479DOD     C235257  23.272   7.441   5.672 -0.1384 -0.0196  0.4254
30479DOD     C335258  23.319   7.319   5.180  0.1693 -0.2161 -0.0592
30480DOD     C135259   5.288   8.286  17.134 -0.0276 -0.1183  0.0406
30480DOD     C235260   5.538   8.110  16.759  0.2958  0.0084 -0.0320
30480DOD     C335261   5.982   8.167  16.498 -0.0381  0.4325 -0.2169
30481DOD     C135262  20.029   9.226  18.883 -0.3232 -0.4059 -0.0341
30481DOD     C235263  20.391   8.980  19.119  0.0201  0.2448  0.0145
30481DOD     C335264  20.839   8.920  19.150 -0.1749 -0.1191  0.2394
30482DOD     C135265  12.160  26.006  12.988 -0.4359  0.1531  0.0962
30482DOD     C235266  11.799  25.994  13.286 -0.1393  0.0629 -0.1010
30482DOD     C335267  11.546  25.654  13.448  0.0643  0.0148 -0.0150
30483DOD     C135268   8.821  22.338   7.484  0.0376 -0.1303 -0.1530
30483DOD     C235269   8.376  22.458   7.696 -0.1679 -0.3033 -0.0113
30483DOD     C335270   8.077  22.549   7.997  0.3389  0.1599  0.1669
30484DOD     C135271  20.203   8.643  13.175  0.1365  0.3348  0.0962
30484DOD     C235272  20.242   9.095  13.281  0.0545 -0.1355  0.2035
30484DOD     C335273  20.010   9.442  13.449 -0.0272 -0.0650  0.0823
30485DOD     C135274  23.540   1.403   0.745  0.0860 -0.0470  0.3109
30485DOD     C235275  23.363   1.782   0.556 -0.0129 -0.0480  0.0780
30485DOD     C335276  22.927   1.643   0.423  0.0513 -0.0238 -0.0477
30486DOD     C135277  23.789  24.962  11.444  0.0104 -0.1378 -0.0063
30486DOD     C235278  23.324  25.092  11.593 -0.1775  0.0311 -0.2388
30486DOD     C335279  23.003  25.054  11.979 -0.1873  0.0189 -0.1479
30487DOD     C135280  15.014  30.130  26.945  0.0737  0.0759  0.0312
30487DOD     C235281  14.644  30.038  26.816 -0.0046 -0.1256 -0.0804
30487DOD     C335282  14.442  29.757  26.475  0.1977 -0.3326  0.0706
30488DOD     C135283  24.406   3.450  24.571  0.1942  0.0259 -0.0206
30488DOD     C235284  24.468   3.029  24.291 -0.0254  0.2536 -0.1196
30488DOD     C335285  24.814   2.724  24.400 -0.1981 -0.1710 -0.1260
30489DOD     C135286   6.358  16.034  16.462  0.1751  0.0187  0.0668
30489DOD     C235287   6.056  15.690  16.556 -0.0115 -0.0182 -0.0283
30489DOD     C335288   5.840  15.365  16.315  0.1714  0.2755 -0.0742
30490DOD     C135289  17.354  11.458  16.939 -0.2687  0.0188 -0.0165
30490DOD     C235290  17.113  11.204  16.625 -0.1727 -0.0493 -0.1357
30490DOD     C335291  16.699  11.159  16.456 -0.1430  0.0774 -0.0031
30491DOD     C135292  15.157  28.461   2.119 -0.4723 -0.1578 -0.1248
30491DOD     C235293  14.898  28.371   1.739 -0.0175 -0.0775 -0.0800
30491DOD     C335294  14.799  28.657   1.314 -0.0650 -0.4347  0.1586
30492DOD     C135295  12.930  22.107  26.895  0.2508  0.0731  0.0967
30492DOD     C235296  12.956  22.363  27.298 -0.0398  0.3696  0.1174
30492DOD     C335297  13.032  22.697  27.670  0.0329  0.1189 -0.1999
30493DOD     C135298  27.350   3.560   9.500  0.0890 -0.0680 -0.2292
30493DOD     C235299  27.690   3.802   9.338  0.1385 -0.2756  0.0748
30493DOD     C335300  28.097   4.041   9.398 -0.0618  0.0445 -0.1307
30494DOD     C135301  12.948  16.147   7.742  0.0847  0.0949  0.1307
30494DOD     C235302  13.216  16.519   7.728 -0.2282 -0.0010  0.1395
30494DOD     C335303  13.437  16.874   7.553  0.3025 -0.2592 -0.0921
30495DOD     C135304  20.223  30.011  27.819 -0.1878 -0.0879  0.1929
30495DOD     C235305  19.811  29.893  27.584 -0.0683 -0.1818 -0.2368
30495DOD     C335306  19.411  30.167  27.523  0.0631  0.2442  0.3898
30496DOD     C135307  11.313  20.475  14.873  0.0915 -0.1625  0.0127
30496DOD     C235308  11.004  20.594  15.205 -0.0326 -0.1679  0.2090
30496DOD     C335309  10.731  20.670  15.576  0.1682  0.2893 -0.2195
30497DOD     C135310  13.181  13.313  18.584  0.1117  0.1990  0.4947
30497DOD     C235311  12.881  13.386  18.232 -0.2202 -0.1010  0.2931
30497DOD     C335312  12.792  13.413  17.746 -0.0735 -0.0516 -0.1302
30498DOD     C135313  13.743   7.258  17.774  0.1600  0.0107  0.1175
30498DOD     C235314  13.379   7.476  18.001 -0.2891 -0.3021 -0.1637
30498DOD     C335315  12.949   7.548  17.887 -0.0265 -0.0677 -0.0216
30499DOD     C135316   3.830  16.433  11.260  0.1759  0.0710  0.3465
30499DOD     C235317   4.240  16.260  11.319  0.2321  0.1060  0.1642
30499DOD     C335318   4.628  16.051  11.241  0.2078 -0.0417  0.4045
30500DOD     C135319  21.547  22.786   6.726  0.1595  0.2250 -0.2030
30500DOD     C235320  21.895  22.695   6.419 -0.0863  0.0693 -0.1388
30500DOD     C335321  22.012  22.872   5.991 -0.1892  0.0858  0.0261
30501DOD     C135322  15.232  27.669  18.181 -0.0511 -0.0348  0.2202
30501DOD     C235323  15.033  28.074  18.052  0.0835 -0.0916  0.1671
30501DOD     C335324  14.755  28.359  18.255 -0.1630  0.2319  0.0272
30502DOD     C135325  11.934  29.680   6.006  0.3438 -0.2722  0.3913
30502DOD     C235326  11.546  29.504   6.240 -0.2108 -0.1060  0.1722
30502DOD     C335327  11.452  29.474   6.681 -0.0378  0.1232 -0.0767
30503DOD     C135328   4.087  25.385  12.843 -0.2559  0.0819 -0.0388
30503DOD     C235329   4.431  25.154  12.743  0.0978  0.2129  0.1679
30503DOD     C335330   4.751  24.966  12.461  0.0409 -0.1665  0.3418
30504DOD     C135331  23.819  27.209  14.113 -0.0550  0.2640  0.0439
30504DOD     C235332  23.348  27.102  14.070 -0.1131  0.1383  0.1097
30504DOD     C335333  22.922  27.049  13.959 -0.0352  0.3400 -0.0040
30505DOD     C135334  16.982   8.238  24.723 -0.0479 -0.2780 -0.0635
30505DOD     C235335  17.416   8.347  24.576 -0.1075  0.1863 -0.0916
30505DOD     C335336  17.723   8.452  24.849 -0.5574 -0.0258 -0.0662
30506DOD     C135337  10.171   0.366   1.240  0.3211  0.1390  0.0264
30506DOD     C235338  10.046   0.841   1.116  0.0668 -0.1457 -0.3497
30506DOD     C335339   9.751   1.175   1.308  0.2120 -0.0323  0.0436
30507DOD     C135340  30.294  28.633  21.208 -0.0958 -0.2310  0.1448
30507DOD     C235341  30.209  28.196  21.331 -0.1489 -0.0291 -0.1624
30507DOD     C335342  29.914  28.190  21.724 -0.1314 -0.1334 -0.0131
30508DOD     C135343  25.143  15.548   2.161  0.4314 -0.1712  0.0080
30508DOD     C235344  25.413  15.891   1.984 -0.1544 -0.1656  0.1353
30508DOD     C335345  25.231  16.357   2.025 -0.1534  0.2392  0.2201
30509DOD     C135346   6.944  21.141  29.566  0.2608  0.2784 -0.5104
30509DOD     C235347   7.111  20.915  29.997  0.0424 -0.0293  0.1455
30509DOD     C335348   7.518  20.773  30.050 -0.1938 -0.1028  0.0476
30510DOD     C135349   2.440  22.666  11.326  0.0012  0.2575 -0.0242
30510DOD     C235350   2.106  22.979  11.416  0.0488  0.1082  0.2399
30510DOD     C335351   2.057  23.408  11.389  0.1164  0.1591  0.2256
30511DOD     C135352   4.313  20.153   9.545 -0.0575  0.0340 -0.0442
30511DOD     C235353   4.009  19.780   9.536 -0.2075 -0.2682  0.2085
30511DOD     C335354   3.704  19.473   9.606  0.1266 -0.0903 -0.1930
30512DOD     C135355  16.759   6.594  21.667  0.2110  0.0443  0.3007
30512DOD     C235356  16.792   6.210  21.990  0.2014 -0.1113 -0.0961
30512DOD     C335357  16.766   6.344  22.427  0.0646 -0.1830 -0.4323
30513DOD     C135358  11.354  22.270  12.053 -0.0655  0.4503 -0.5203
30513DOD     C235359  11.085  22.601  12.234  0.1697 -0.2865  0.0227
30513DOD     C335360  10.878  23.029  12.140  0.0388 -0.0733  0.0756
30514DOD     C135361   7.228  20.166  27.094  0.1220 -0.1638  0.1892
30514DOD     C235362   7.719  20.307  27.203 -0.2248  0.2426 -0.0558
30514DOD     C335363   8.115  20.466  27.413 -0.3635 -0.2781  0.3204
30515DOD     C135364   7.808  29.409  20.237  0.0440  0.1085 -0.0480
30515DOD     C235365   7.390  29.572  20.462  0.2889  0.1456 -0.2913
30515DOD     C335366   7.290  29.646  20.929  0.1343 -0.2226  0.3399
30516DOD     C135367  28.037  20.456  21.808  0.0024  0.0499  0.1881
30516DOD     C235368  27.796  20.844  21.696 -0.1906  0.1436  0.4021
30516DOD     C335369  27.806  21.287  21.842  0.0403 -0.1055  0.0569
30517DOD     C135370  25.961   8.939   7.458  0.1353  0.0752 -0.0992
30517DOD     C235371  26.170   8.933   7.881  0.0681  0.0043  0.3622
30517DOD     C335372  26.023   8.727   8.259 -0.0576 -0.0195 -0.0085
30518DOD     C135373  12.478   1.476   2.707  0.0598  0.2681 -0.1666
30518DOD     C235374  12.808   1.383   2.383  0.1646  0.0513  0.1150
30518DOD     C335375  13.205   1.413   2.186 -0.2292 -0.1142  0.0878
30519DOD     C135376  24.943   9.929  29.146 -0.0362 -0.1359 -0.0789
30519DOD     C235377  25.027   9.806  29.618 -0.2233  0.1064 -0.2332
30519DOD     C335378  24.864   9.760  30.054  0.0782 -0.0958  0.0218
30520DOD     C135379  24.144  22.793  18.889 -0.4027 -0.0874  0.0442
30520DOD     C235380  23.978  22.508  18.583 -0.0902  0.0478 -0.0110
30520DOD     C335381  23.727  22.375  18.254 -0.1395  0.0075 -0.1839
30521DOD     C135382   6.028   9.311  15.699  0.1483  0.0838 -0.0885
30521DOD     C235383   6.218   8.924  15.725 -0.1893  0.3725 -0.1103
30521DOD     C335384   6.556   8.598  15.559 -0.1503  0.1273 -0.0205
30522DOD     C135385  18.770  27.752  21.574 -0.0587 -0.0693  0.2398
30522DOD     C235386  18.816  28.019  21.970 -0.1090 -0.2765 -0.0084
30522DOD     C335387  18.496  28.274  22.205 -0.0479 -0.1243 -0.0740
30523DOD     C135388   7.465  29.093   9.742  0.1125 -0.0012  0.1725
30523DOD     C235389   7.439  28.981   9.313 -0.0609 -0.0401  0.1200
30523DOD     C335390   7.353  28.862   8.844  0.0737  0.0937  0.3137
30524DOD     C135391  26.208   9.584   5.859  0.1483 -0.2141  0.1049
30524DOD     C235392  26.131  10.029   5.595 -0.1801  0.0357  0.2446
30524DOD     C335393  26.139  10.200   5.178  0.0628 -0.1724 -0.0471
30525DOD     C135394  14.712  23.287  19.957  0.0254  0.2122  0.0727
30525DOD     C235395  14.881  23.131  20.368  0.2935  0.0966 -0.3695
30525DOD     C335396  14.856  22.647  20.550 -0.1054  0.4775  0.0409
30526DOD     C135397   8.910  16.000  18.087 -0.0022 -0.0822 -0.0584
30526DOD     C235398   8.587  16.246  18.399  0.2996  0.0605  0.0053
30526DOD     C335399   8.446  16.257  18.807  0.0350  0.0009  0.1622
30527DOD     C135400  10.215  22.509  18.322  0.0426 -0.1781  0.2319
30527DOD     C235401  10.160  22.661  17.854 -0.0490 -0.1474 -0.0993
30527DOD     C335402  10.379  22.672  17.452 -0.0612  0.3173  0.3591
30528DOD     C135403  18.636  27.840   6.790  0.2806 -0.2164 -0.2082
30528DOD     C235404  18.900  27.975   7.185  0.2704 -0.0418  0.2266
30528DOD     C335405  19.018  27.929   7.620  0.1461 -0.0418 -0.1731
30529DOD     C135406  27.790  18.324  10.601 -0.3429 -0.2749  0.2399
30529DOD     C235407  28.085  18.589  10.885  0.0391  0.0265 -0.1049
30529DOD     C335408  28.267  18.952  11.092  0.2059  0.0763 -0.1363
30530DOD     C135409   2.338  24.856  21.003 -0.1469 -0.1224  0.0116
30530DOD     C235410   2.242  24.401  21.004  0.1633 -0.4349 -0.1101
30530DOD     C335411   2.023  24.105  21.390  0.2238  0.1490  0.1713
30531DOD     C135412   4.018  25.632  20.864 -0.2995  0.0154  0.0331
30531DOD     C235413   4.024  25.462  20.428  0.0374 -0.1256  0.1925
30531DOD     C335414   4.092  25.335  19.974  0.1987 -0.0847  0.3051
30532DOD     C135415  15.443  22.580  23.009  0.2085  0.1471 -0.1429
30532DOD     C235416  15.246  22.810  23.391  0.1650  0.0328  0.2440
30532DOD     C335417  15.439  23.167  23.629  0.1580 -0.0112  0.1019
30533DOD     C135418  16.086  12.083  12.646  0.1158 -0.1847 -0.0519
30533DOD     C235419  16.046  11.738  13.018 -0.1486  0.0604  0.2010
30533DOD     C335420  16.153  11.349  13.283 -0.0371  0.1069 -0.1523
30534DOD     C135421   0.978  25.211  19.588 -0.0769  0.5145  0.1111
30534DOD     C235422   1.250  25.624  19.519  0.3371  0.0555  0.0648
30534DOD     C335423   1.210  26.067  19.389 -0.0185 -0.4336  0.1780
30535DOD     C135424   3.819   3.775   1.202  0.4022  0.3368 -0.0918
30535DOD     C235425   4.276   3.600   1.306 -0.0904  0.2867 -0.0415
30535DOD     C335426   4.624   3.343   1.134 -0.0495  0.0505  0.0790
30536DOD     C135427  11.914  28.199  11.986 -0.0735  0.0319 -0.1077
30536DOD     C235428  12.301  28.464  11.948  0.0889 -0.2571 -0.2480
30536DOD     C335429  12.736  28.596  11.965  0.3752  0.0937  0.0358
30537DOD     C135430  26.003  13.828   2.251  0.2919 -0.0045 -0.2688
30537DOD     C235431  25.675  13.805   2.566 -0.2683 -0.4823 -0.0041
30537DOD     C335432  25.303  13.859   2.817 -0.0124 -0.0494 -0.0801
30538DOD     C135433  12.232   2.459  29.083 -0.1278 -0.0455  0.2074
30538DOD     C235434  12.358   2.156  28.789  0.2226 -0.1809 -0.0528
30538DOD     C335435  12.137   1.852  28.505 -0.4525  0.0252 -0.1901
30539DOD     C135436  13.693  23.537  17.591  0.0324 -0.1791  0.0885
30539DOD     C235437  14.037  23.547  17.911  0.1809 -0.0018  0.1308
30539DOD     C335438  14.192  23.990  17.972 -0.0285 -0.1556 -0.1254
30540DOD     C135439   5.644  27.737  28.955  0.0975  0.0381  0.0951
30540DOD     C235440   5.692  27.361  28.657  0.3321  0.0705  0.1656
30540DOD     C335441   5.672  27.158  28.223 -0.0022  0.2555  0.1691
30541DOD     C135442   9.800   5.125   6.046 -0.3700  0.0758 -0.1413
30541DOD     C235443  10.053   5.003   5.725 -0.0109  0.0247 -0.0285
30541DOD     C335444  10.436   5.075   5.409  0.0181  0.5323 -0.0012
30542DOD     C135445  14.833   9.060  18.439  0.1689  0.1259 -0.0658
30542DOD     C235446  15.079   8.862  18.736  0.1457  0.0684  0.2460
30542DOD     C335447  15.502   8.714  18.688  0.0323 -0.4518  0.1709
30543DOD     C135448  22.216  15.685  24.447  0.1618  0.1224 -0.4070
30543DOD     C235449  21.905  15.564  24.812 -0.0162  0.1008  0.0881
30543DOD     C335450  21.621  15.447  25.207  0.2730 -0.1147  0.0168
30544DOD     C135451  23.302   6.113  11.591 -0.0797 -0.0606  0.2100
30544DOD     C235452  23.226   5.666  11.740 -0.2647 -0.3226  0.2314
30544DOD     C335453  23.209   5.254  11.667  0.2194 -0.1766 -0.0160
30545DOD     C135454  27.012   5.750  30.147 -0.1021 -0.2564 -0.1011
30545DOD     C235455  27.135   5.291  30.318  0.0132 -0.1063  0.2136
30545DOD     C335456  27.074   4.875   0.160 -0.0639 -0.2336  0.0542
30546DOD     C135457  18.667   5.901  25.059 -0.2199  0.1421 -0.0171
30546DOD     C235458  18.806   5.480  24.921  0.0269 -0.0484 -0.1239
30546DOD     C335459  19.021   5.099  24.981 -0.1466  0.0038 -0.1278
30547DOD     C135460   6.874  26.184  28.369 -0.1643 -0.0979  0.0416
30547DOD     C235461   6.471  26.263  28.457  0.2705 -0.1903 -0.2877
30547DOD     C335462   6.257  26.164  28.853 -0.1198 -0.0453 -0.0750
30548DOD     C135463   3.938  28.757  22.876 -0.0009 -0.0686 -0.1489
30548DOD     C235464   3.717  29.134  22.987 -0.2135 -0.0615 -0.0946
30548DOD     C335465   3.637  29.561  23.189  0.4987  0.0138 -0.1253
30549DOD     C135466   2.822  18.204  30.113 -0.0900 -0.1899 -0.4651
30549DOD     C235467   2.535  18.339  29.798 -0.1092 -0.1553  0.1632
30549DOD     C335468   2.509  18.356  29.288  0.1149  0.0903  0.0598
30550DOD     C135469   8.797  11.789  19.638 -0.0312  0.0093  0.1561
30550DOD     C235470   8.623  12.174  19.863  0.0379  0.2872 -0.2153
30550DOD     C335471   8.692  12.689  19.955  0.0254 -0.1856 -0.1159
30551DOD     C135472  17.707  22.905  18.436 -0.0011  0.0358  0.2052
30551DOD     C235473  17.383  22.617  18.563  0.0404  0.2302  0.0919
30551DOD     C335474  17.317  22.151  18.768 -0.1928 -0.4288 -0.1732
30552DOD     C135475  25.585  18.890  15.270  0.1151 -0.3181 -0.4876
30552DOD     C235476  25.790  19.230  15.037  0.4124 -0.1499  0.2571
30552DOD     C335477  25.811  19.685  14.919 -0.0057  0.2255 -0.0673
30553DOD     C135478  11.179  27.982   8.920  0.1789  0.2055 -0.2237
30553DOD     C235479  11.656  27.961   8.917  0.1001  0.0149 -0.2494
30553DOD     C335480  12.049  28.055   8.825 -0.3319 -0.1070  0.2157
30554DOD     C135481  22.027  14.000  27.240  0.0323 -0.2516 -0.1141
30554DOD     C235482  22.389  13.798  27.081 -0.1401  0.0353  0.1964
30554DOD     C335483  22.816  13.999  27.110  0.1934 -0.1670 -0.1057
30555DOD     C135484   8.422   3.908  15.369 -0.2651 -0.0860  0.0868
30555DOD     C235485   8.749   4.223  15.337 -0.4225 -0.0933 -0.1642
30555DOD     C335486   9.100   4.252  15.039 -0.4437  0.3146  0.1078
30556DOD     C135487  29.951   2.573   6.563  0.1415  0.0526  0.1639
30556DOD     C235488  30.065   2.917   6.261 -0.0262  0.0147 -0.2669
30556DOD     C335489  30.291   3.037   5.845 -0.0217 -0.1078  0.2665
30557DOD     C135490  24.404  11.290  20.793 -0.2910 -0.1204  0.2289
30557DOD     C235491  24.530  11.024  21.171  0.2248  0.1589 -0.1317
30557DOD     C335492  24.318  10.632  21.354  0.0938  0.0725 -0.0395
30558DOD     C135493   8.915  25.813   0.115  0.0405 -0.1963 -0.2196
30558DOD     C235494   8.756  25.862   0.573 -0.2327 -0.1043  0.0727
30558DOD     C335495   8.592  25.800   1.003  0.3266 -0.1503  0.1875
30559DOD     C135496  21.690  24.219  16.265  0.2015 -0.0889  0.0772
30559DOD     C235497  21.390  24.261  16.621 -0.2255 -0.2004  0.1467
30559DOD     C335498  21.022  24.102  16.810  0.1108 -0.0110 -0.5120
30560DOD     C135499  11.654  23.897   4.959  0.1361  0.2315  0.1552
30560DOD     C235500  11.281  23.557   5.071 -0.1531 -0.3109 -0.2739
30560DOD     C335501  10.910  23.284   5.026 -0.0218 -0.1331 -0.1636
30561DOD     C135502   4.896   3.399   6.391 -0.0906  0.2550  0.2725
30561DOD     C235503   5.244   3.262   6.661  0.1694 -0.1034 -0.3602
30561DOD     C335504   5.646   3.011   6.638 -0.1947  0.1581 -0.3463
30562DOD     C135505   8.132  15.265  11.538  0.1452 -0.3873  0.1267
30562DOD     C235506   7.851  15.599  11.459  0.0960  0.0220  0.0001
30562DOD     C335507   7.436  15.930  11.511 -0.3210 -0.0187  0.3571
30563DOD     C135508  19.588  18.926  27.456  0.3101  0.5071  0.3403
30563DOD     C235509  19.735  18.542  27.700  0.0487 -0.0866 -0.1039
30563DOD     C335510  19.852  18.152  27.687 -0.1697  0.0417 -0.0575
30564DOD     C135511  28.702   9.382  17.233 -0.0082 -0.1284 -0.1075
30564DOD     C235512  28.822   9.583  16.884  0.0523 -0.2953  0.2160
30564DOD     C335513  29.074   9.978  16.806 -0.0767  0.0268 -0.3829
30565DOD     C135514  28.898   8.874  11.974 -0.2237 -0.0548 -0.0368
30565DOD     C235515  29.153   8.542  11.829 -0.0552  0.1699 -0.1452
30565DOD     C335516  29.414   8.178  11.709  0.0612 -0.1390 -0.0610
30566DOD     C135517  16.331  24.748   7.490 -0.1764  0.1442  0.1991
30566DOD     C235518  16.333  24.942   7.914 -0.0808  0.0038  0.0006
30566DOD     C335519  16.192  25.063   8.335 -0.0399 -0.0998  0.3063
30567DOD     C135520  16.308  27.254  13.165 -0.0044  0.0470  0.0571
30567DOD     C235521  16.511  27.657  13.091 -0.0714 -0.3718 -0.1431
30567DOD     C335522  16.666  28.001  12.795  0.1157 -0.0919  0.1341
30568DOD     C135523   0.916   9.516  19.401 -0.2959 -0.2461 -0.0331
30568DOD     C235524   0.810   9.283  19.816  0.0948 -0.0550  0.2950
30568DOD     C335525   0.796   8.879  19.968 -0.2528  0.3112 -0.0499
30569DOD     C135526  16.132  18.276   0.697  0.0673 -0.0239  0.2355
30569DOD     C235527  16.033  18.175   1.163  0.2352  0.0099 -0.1447
30569DOD     C335528  16.044  18.031   1.612  0.1538 -0.1286 -0.1073
30570DOD     C135529   9.674   1.145   3.779  0.2104 -0.1639 -0.0791
30570DOD     C235530   9.514   1.323   4.208 -0.0401 -0.2991 -0.0779
30570DOD     C335531   9.188   1.424   4.532 -0.0707  0.0224  0.2458
30571DOD     C135532   4.661   0.852  26.587  0.1873 -0.2119 -0.0152
30571DOD     C235533   4.391   1.147  26.809  0.1502 -0.1671 -0.0775
30571DOD     C335534   4.372   1.593  26.906  0.2084 -0.1901 -0.0811
30572DOD     C135535   3.800  24.352   5.350  0.0648  0.2474  0.1073
30572DOD     C235536   3.508  24.315   4.972 -0.1927  0.0519 -0.0489
30572DOD     C335537   3.227  24.496   4.585  0.0089 -0.2166  0.1963
30573DOD     C135538  12.621  12.410   4.462  0.1602 -0.2907  0.0302
30573DOD     C235539  12.616  12.534   4.038  0.1330  0.1956  0.2870
30573DOD     C335540  12.615  12.434   3.654  0.1455  0.1804 -0.1075
30574DOD     C135541   4.181  18.124  17.207 -0.1190 -0.2697 -0.1038
30574DOD     C235542   4.294  17.835  17.577  0.0069  0.1371  0.2963
30574DOD     C335543   4.473  17.631  17.919  0.1901 -0.0550  0.1579
30575DOD     C135544   4.277  17.577   7.545 -0.1471  0.1171  0.1473
30575DOD     C235545   3.973  17.363   7.282  0.0223 -0.0316  0.1749
30575DOD     C335546   3.668  17.027   7.272  0.1616  0.0404 -0.2991
30576DOD     C135547  13.119  14.597  24.637 -0.0786 -0.0515 -0.0953
30576DOD     C235548  13.304  14.913  24.971  0.1487  0.1825  0.2587
30576DOD     C335549  13.604  15.186  25.129  0.1234 -0.1725  0.0392
30577DOD     C135550   4.452   6.935   1.086  0.0944 -0.0963  0.0835
30577DOD     C235551   4.093   6.705   1.338  0.0509 -0.0182  0.0551
30577DOD     C335552   3.648   6.547   1.503  0.3522 -0.1796  0.0389
30578DOD     C135553   1.593   2.377  21.562 -0.0176  0.0093  0.1103
30578DOD     C235554   1.111   2.434  21.406 -0.1928 -0.0677  0.0056
30578DOD     C335555   0.732   2.125  21.266 -0.1189  0.1634 -0.0109
30579DOD     C135556  19.445   3.730  21.867  0.1635  0.0234  0.2201
30579DOD     C235557  19.360   3.296  21.936  0.4311  0.1948  0.0656
30579DOD     C335558  19.629   2.860  21.929 -0.1025  0.0001 -0.3109
30580DOD     C135559  15.846  16.055   4.456  0.1001 -0.0660 -0.1777
30580DOD     C235560  15.540  15.812   4.749  0.1454 -0.3164 -0.1489
30580DOD     C335561  15.376  16.012   5.150  0.4042 -0.3253 -0.0082
30581DOD     C135562   5.870  15.104   9.087  0.1681  0.4502 -0.2700
30581DOD     C235563   5.912  14.625   9.158 -0.1532  0.3226  0.0004
30581DOD     C335564   5.894  14.277   8.857 -0.3046 -0.4538 -0.0151
30582DOD     C135565  18.441   8.375  27.234  0.1547 -0.1847 -0.1614
30582DOD     C235566  18.724   8.648  26.964 -0.0431 -0.5191 -0.2092
30582DOD     C335567  19.082   8.972  26.841 -0.0314 -0.0088 -0.3304
30583DOD     C135568  27.034   1.018  29.889  0.0027 -0.0520  0.1140
30583DOD     C235569  26.863   1.186  30.300 -0.0729  0.1960  0.0335
30583DOD     C335570  26.664   1.347   0.408 -0.0853  0.0170  0.0937
30584DOD     C135571  23.173  25.556  11.101 -0.0905 -0.0892  0.0645
30584DOD     C235572  23.596  25.464  11.337 -0.0975  0.0500  0.3813
30584DOD     C335573  24.051  25.352  11.282 -0.0547 -0.2470 -0.0823
30585DOD     C135574  27.901  16.375   1.486 -0.2438 -0.4024 -0.0124
30585DOD     C235575  27.745  16.531   1.040 -0.2765  0.0533 -0.0955
30585DOD     C335576  27.573  16.493   0.583 -0.1088  0.0779  0.2611
30586DOD     C135577  13.561  27.788  19.997 -0.3386 -0.0046 -0.2537
30586DOD     C235578  13.941  27.524  19.952 -0.1592  0.1785 -0.2066
30586DOD     C335579  14.228  27.169  20.103 -0.1299 -0.1153 -0.1379
30587DOD     C135580   9.171   5.473  16.773 -0.2791 -0.2524 -0.2336
30587DOD     C235581   9.400   5.387  16.374 -0.1386  0.0559 -0.0267
30587DOD     C335582   9.682   5.032  16.297 -0.1440 -0.0804  0.2071
30588DOD     C135583   0.335  16.222  21.519  0.0990  0.3856 -0.2717
30588DOD     C235584  30.223  16.335  21.720 -0.1344  0.0221  0.0260
30588DOD     C335585  29.923  16.525  22.079 -0.0149  0.1890 -0.2348
30589DOD     C135586   9.045  25.745  15.705 -0.3413 -0.0488  0.0360
30589DOD     C235587   8.809  25.618  15.315 -0.2516 -0.0919  0.2271
30589DOD     C335588   8.447  25.600  14.989  0.0185  0.4060 -0.1588
30590DOD     C135589  18.420  12.512   3.294  0.1094  0.3649  0.1449
30590DOD     C235590  18.232  12.106   3.207 -0.2964 -0.0663  0.0362
30590DOD     C335591  17.824  11.879   3.295  0.0529  0.0615 -0.0051
30591DOD     C135592   0.619   3.326   4.820  0.1258  0.2474 -0.2458
30591DOD     C235593   0.823   2.880   4.888  0.2014  0.1907  0.0606
30591DOD     C335594   0.981   2.611   5.277 -0.0162  0.3485  0.1185
30592DOD     C135595   5.932  11.767  12.848 -0.3218  0.1543  0.0196
30592DOD     C235596   5.770  11.429  12.592  0.2372 -0.0645 -0.1854
30592DOD     C335597   5.778  11.012  12.631  0.3598  0.0702  0.1437
30593DOD     C135598  15.863   2.267  28.123 -0.1023  0.3276 -0.1840
30593DOD     C235599  15.897   1.754  28.136  0.0438 -0.1076  0.0229
30593DOD     C335600  16.009   1.389  28.264  0.2674  0.1778 -0.1227
30594DOD     C135601  24.939  27.772  17.871 -0.0711  0.1055 -0.4603
30594DOD     C235602  25.308  27.474  17.687 -0.2140 -0.1804 -0.4111
30594DOD     C335603  25.761  27.457  17.733  0.1974  0.0043  0.0833
30595DOD     C135604  12.002  18.249  24.044  0.0398  0.0576  0.1520
30595DOD     C235605  12.417  18.135  24.144 -0.2862  0.1730 -0.1428
30595DOD     C335606  12.702  17.756  24.023 -0.5925  0.3408 -0.1141
30596DOD     C135607  17.585  26.352   1.434  0.1427 -0.0529  0.2172
30596DOD     C235608  17.845  26.755   1.319 -0.1373  0.0661  0.0155
30596DOD     C335609  17.995  27.099   1.058 -0.0744 -0.1396 -0.2749
30597DOD     C135610  19.011  13.877  19.348 -0.0098  0.0039 -0.0849
30597DOD     C235611  18.876  13.754  18.920 -0.0453  0.3125  0.3483
30597DOD     C335612  18.692  13.950  18.510  0.1187 -0.1246 -0.2823
30598DOD     C135613  10.174  16.011  24.234  0.0940 -0.0986  0.2196
30598DOD     C235614  10.374  16.332  24.569 -0.1006 -0.1239 -0.1991
30598DOD     C335615  10.083  16.505  24.916  0.2013 -0.1388 -0.1770
30599DOD     C135616   5.510  20.333   5.815 -0.2845  0.1165  0.3299
30599DOD     C235617   5.476  19.888   5.673 -0.2705 -0.1218  0.1176
30599DOD     C335618   5.363  19.472   5.840 -0.1264  0.2523  0.1248
30600DOD     C135619  21.046  24.633  16.836 -0.2839  0.3209 -0.1463
30600DOD     C235620  21.401  24.441  17.135  0.1086 -0.3887 -0.3358
30600DOD     C335621  21.574  24.122  17.446  0.1234  0.0968  0.0338
30601DOD     C135622  16.466   9.085  24.638  0.0177 -0.3779 -0.0019
30601DOD     C235623  16.456   9.163  24.211 -0.1716  0.2046  0.2574
30601DOD     C335624  16.902   9.238  24.076  0.3125 -0.2332  0.3249
30602DOD     C135625  12.075  12.445  20.516  0.4356 -0.1034 -0.4147
30602DOD     C235626  11.972  12.499  20.974 -0.0622  0.0315 -0.1036
30602DOD     C335627  11.865  12.199  21.369  0.1172 -0.2494  0.1947
30603DOD     C135628   5.527  28.923   1.224 -0.1223  0.0294  0.2803
30603DOD     C235629   5.151  29.152   1.323  0.0924 -0.1599 -0.2861
30603DOD     C335630   4.675  29.223   1.394  0.0193 -0.0775  0.1053
30604DOD     C135631   9.698  16.812  21.234  0.2059 -0.0453  0.1385
30604DOD     C235632   9.978  16.586  21.609 -0.1444  0.1201 -0.0068
30604DOD     C335633  10.383  16.407  21.534  0.2531  0.0636 -0.1489
30605DOD     C135634  25.219  28.884  23.550 -0.4439 -0.0091  0.1834
30605DOD     C235635  25.257  28.639  23.988  0.3394 -0.0495  0.0697
30605DOD     C335636  25.477  28.616  24.359  0.0850  0.0395 -0.2566
30606DOD     C135637  18.636  26.176  28.288  0.1360  0.1313 -0.0083
30606DOD     C235638  18.562  26.646  28.281 -0.1764  0.1811 -0.2916
30606DOD     C335639  18.536  27.089  28.104 -0.1822 -0.0896 -0.0951
30607DOD     C135640  22.666  22.954  27.161  0.2822  0.0700 -0.1347
30607DOD     C235641  22.380  23.125  27.494 -0.4718 -0.0055 -0.2616
30607DOD     C335642  21.973  23.253  27.614  0.1590 -0.2786 -0.3507
30608DOD     C135643  15.693   8.947   0.963  0.2347 -0.1622 -0.1832
30608DOD     C235644  15.234   9.028   1.010 -0.0932  0.5662 -0.1250
30608DOD     C335645  14.840   9.101   1.247 -0.3478 -0.1658  0.0008
30609DOD     C135646  29.398   4.578   3.170  0.4490 -0.0209  0.2142
30609DOD     C235647  29.520   4.846   2.768 -0.0564  0.2030  0.1892
30609DOD     C335648  29.535   5.213   2.572 -0.0447  0.1188 -0.0420
30610DOD     C135649  28.549  19.844  15.085 -0.1724  0.1221  0.0006
30610DOD     C235650  28.095  19.887  15.045  0.0154  0.1140 -0.1224
30610DOD     C335651  27.626  19.974  15.108 -0.3385 -0.0210  0.2899
30611DOD     C135652  16.890   1.299  21.919 -0.2969  0.0048  0.0755
30611DOD     C235653  16.696   1.217  22.381 -0.0385  0.2619  0.0238
30611DOD     C335654  16.362   0.922  22.618 -0.0113 -0.0114 -0.0877
30612DOD     C135655   8.297   1.065  22.457 -0.1948 -0.0595 -0.2758
30612DOD     C235656   8.593   1.132  22.097  0.3412 -0.3196 -0.0996
30612DOD     C335657   8.827   1.307  21.703  0.2428 -0.0430  0.0223
30613DOD     C135658  28.589   7.333  27.937  0.0287  0.0746  0.3085
30613DOD     C235659  28.177   7.491  27.716  0.0073  0.1771  0.1274
30613DOD     C335660  27.742   7.546  27.610 -0.0093  0.0930  0.0276
30614DOD     C135661  22.719  12.621  18.767  0.2192  0.0876  0.1208
30614DOD     C235662  22.541  12.357  18.443 -0.2157  0.4430  0.0668
30614DOD     C335663  22.638  12.179  18.015  0.0656 -0.3692 -0.2165
30615DOD     C135664   3.753   4.704  13.601  0.0933  0.1071 -0.2551
30615DOD     C235665   3.971   4.265  13.568  0.1947  0.1997  0.1123
30615DOD     C335666   4.186   3.859  13.367 -0.2117  0.1123  0.1786
30616DOD     C135667  12.498   1.370  28.883  0.0536  0.0369  0.0606
30616DOD     C235668  12.951   1.400  28.939  0.1106 -0.0510 -0.1552
30616DOD     C335669  13.150   1.510  28.513 -0.0845 -0.2386  0.2201
30617DOD     C135670  26.724  14.033  25.789  0.1971  0.0577 -0.0882
30617DOD     C235671  27.096  14.131  25.718 -0.3411 -0.0997  0.0220
30617DOD     C335672  27.265  14.489  25.520  0.2520 -0.1811  0.3332
30618DOD     C135673   4.137   0.086   1.099  0.1892 -0.2966  0.1936
30618DOD     C235674   4.219   0.153   1.526 -0.3373 -0.0796  0.0213
30618DOD     C335675   4.235   0.514   1.824  0.1334 -0.0241  0.0125
30619DOD     C135676  18.652  26.504  24.573 -0.0685 -0.0136 -0.1755
30619DOD     C235677  18.755  26.814  24.254 -0.2145 -0.0200 -0.0630
30619DOD     C335678  18.909  26.720  23.843  0.1796 -0.0338 -0.0660
30620DOD     C135679  17.790  21.315  24.023 -0.1312  0.0324 -0.4161
30620DOD     C235680  17.692  21.497  24.454  0.0593  0.0154  0.1793
30620DOD     C335681  17.605  21.898  24.653 -0.0681 -0.2679  0.2638
30621DOD     C135682  19.308  21.486  13.701  0.0657  0.4708  0.1287
30621DOD     C235683  18.992  21.620  13.444 -0.0977  0.1060  0.0596
30621DOD     C335684  18.619  21.895  13.390  0.1294  0.1305  0.1244
30622DOD     C135685  17.072  29.817  18.859  0.1110 -0.2137  0.1988
30622DOD     C235686  16.820  29.535  18.547  0.0600  0.2648 -0.3153
30622DOD     C335687  16.407  29.436  18.566 -0.1462 -0.0928  0.2203
30623DOD     C135688   1.938   6.391  13.140 -0.2347 -0.0243  0.2155
30623DOD     C235689   1.933   6.854  13.039  0.2307 -0.1367 -0.1339
30623DOD     C335690   1.939   7.236  12.779 -0.0306  0.3137 -0.0467
30624DOD     C135691  21.840  10.183  10.786 -0.1353  0.2469  0.3401
30624DOD     C235692  21.434  10.163  11.034 -0.0036 -0.1666 -0.0122
30624DOD     C335693  21.105  10.315  11.239  0.2066  0.1337  0.0177
30625DOD     C135694   6.484   5.248   5.849 -0.0879 -0.0797 -0.1111
30625DOD     C235695   6.916   5.128   5.732  0.0847  0.0407 -0.0050
30625DOD     C335696   7.131   4.793   5.531 -0.4128 -0.1809  0.1172
30626DOD     C135697   8.441  13.713  10.356 -0.0139  0.0598  0.2299
30626DOD     C235698   8.011  13.498  10.424 -0.0657 -0.1099 -0.2788
30626DOD     C335699   7.839  13.054  10.586 -0.1901  0.0673 -0.1395
30627DOD     C135700   7.364  14.187  25.763 -0.0490 -0.1434  0.0584
30627DOD     C235701   7.575  14.463  25.433 -0.1184 -0.3196  0.2725
30627DOD     C335702   7.688  14.485  24.933  0.2471  0.1781 -0.2209
30628DOD     C135703   6.411   5.184  12.418  0.0694 -0.1400  0.3951
30628DOD     C235704   6.743   5.393  12.249  0.0743  0.0681 -0.0932
30628DOD     C335705   6.920   5.853  12.175  0.0292  0.0307  0.0309
30629DOD     C135706   1.689  16.963  30.040 -0.1507 -0.0514  0.2461
30629DOD     C235707   2.109  16.988  29.828  0.1646  0.3362  0.0459
30629DOD     C335708   2.140  17.161  29.389  0.0419 -0.1122 -0.0096
30630DOD     C135709  26.027   3.511   2.821 -0.1804  0.4166  0.1489
30630DOD     C235710  26.395   3.771   2.805  0.1590 -0.1047  0.0157
30630DOD     C335711  26.730   3.931   3.080 -0.1215  0.0140 -0.1127
30631DOD     C135712   7.690   9.872  26.669 -0.0066  0.2235 -0.2330
30631DOD     C235713   7.673  10.324  26.423  0.0189 -0.2221  0.2962
30631DOD     C335714   7.615  10.737  26.561  0.0680 -0.2020 -0.0716
30632DOD     C135715  21.523   5.529  21.341 -0.2048  0.0546  0.0128
30632DOD     C235716  21.973   5.362  21.423 -0.0333 -0.0835 -0.4963
30632DOD     C335717  22.400   5.448  21.546  0.0216  0.1939  0.3227
30633DOD     C135718  26.519  15.140  11.545  0.1273  0.5355 -0.0366
30633DOD     C235719  26.886  14.949  11.372 -0.1509  0.1086  0.0105
30633DOD     C335720  27.280  14.802  11.166 -0.3203 -0.3761  0.1446
30634DOD     C135721  18.188  15.032   4.734  0.1907  0.0767 -0.0692
30634DOD     C235722  18.006  15.010   5.191 -0.1136 -0.1203  0.3657
30634DOD     C335723  17.798  14.693   5.379  0.3240 -0.2313  0.0403
30635DOD     C135724  14.080   3.046  20.603  0.3018  0.0399  0.0373
30635DOD     C235725  14.533   2.947  20.730  0.1391  0.0667 -0.0538
30635DOD     C335726  14.995   2.906  20.711  0.0551  0.1843  0.1316
30636DOD     C135727  15.796  17.570  27.311  0.2330 -0.1781  0.0458
30636DOD     C235728  15.533  17.206  27.459  0.1553  0.1912  0.0153
30636DOD     C335729  15.452  16.726  27.633 -0.0936  0.0366  0.0620
30637DOD     C135730  22.084  29.995   5.600  0.1549 -0.1928 -0.0180
30637DOD     C235731  21.736  29.649   5.556 -0.1357  0.0399  0.1922
30637DOD     C335732  21.573  29.331   5.848  0.1715 -0.1733  0.0693
30638DOD     C135733  24.055   0.401  24.529 -0.0923  0.0169  0.0486
30638DOD     C235734  24.455   0.451  24.813  0.0023  0.0385 -0.1725
30638DOD     C335735  24.804   0.631  25.045 -0.2775 -0.0917 -0.2566
30639DOD     C135736  19.844  21.570  29.950  0.1433  0.3412  0.0734
30639DOD     C235737  19.681  21.126  29.903  0.0488  0.1528  0.0597
30639DOD     C335738  19.449  20.788  30.117 -0.0571  0.2824  0.4130
30640DOD     C135739  25.091  24.221  17.191  0.1619 -0.2230  0.0968
30640DOD     C235740  25.436  23.872  17.178  0.1161 -0.1724  0.2081
30640DOD     C335741  25.712  23.725  17.519  0.1860 -0.1890  0.1636
30641DOD     C135742  26.497  27.792  28.948  0.2409 -0.1084 -0.2410
30641DOD     C235743  26.772  27.533  28.707  0.1057 -0.2072  0.1474
30641DOD     C335744  27.259  27.506  28.715 -0.3538 -0.1197  0.1150
30642DOD     C135745   3.875  17.748  27.892 -0.2484 -0.1133 -0.1336
30642DOD     C235746   3.723  17.341  27.739  0.2778  0.0695  0.0032
30642DOD     C335747   3.646  16.967  27.458  0.1124 -0.3842  0.2583
30643DOD     C135748  29.206  20.437   7.970  0.1192  0.1052  0.0915
30643DOD     C235749  29.534  20.388   8.285  0.2198  0.0933 -0.1708
30643DOD     C335750  29.815  20.230   8.594 -0.0450  0.1807 -0.0132
30644DOD     C135751  24.231  28.746  24.564  0.0764  0.1518  0.0386
30644DOD     C235752  24.410  28.690  24.166 -0.0554  0.2334 -0.2129
30644DOD     C335753  24.664  28.672  23.786 -0.1482 -0.2448 -0.3308
30645DOD     C135754   3.935  25.975  13.539  0.2294 -0.0524 -0.0561
30645DOD     C235755   4.147  25.569  13.409 -0.3249 -0.0953 -0.3112
30645DOD     C335756   4.179  25.084  13.283  0.0754  0.1926 -0.2723
30646DOD     C135757  27.735  25.040  28.012 -0.2611  0.1745 -0.3278
30646DOD     C235758  27.647  25.461  28.156  0.0633  0.0775  0.1237
30646DOD     C335759  27.375  25.726  28.377 -0.4100  0.0921 -0.0091
30647DOD     C135760  18.163   0.467  10.584  0.0179  0.0407 -0.0764
30647DOD     C235761  18.330   0.126  10.367  0.0778  0.0122  0.0278
30647DOD     C335762  18.436  30.025  10.545 -0.1357  0.3337  0.2797
30648DOD     C135763  18.144  17.882  16.499 -0.2071  0.0952 -0.0607
30648DOD     C235764  18.146  18.159  16.146  0.2828  0.2218  0.1416
30648DOD     C335765  18.124  18.547  15.885  0.0648 -0.0751  0.1756
30649DOD     C135766   4.883  26.450  29.805  0.1179 -0.1956  0.0460
30649DOD     C235767   5.069  26.819  30.046 -0.0120  0.0220  0.0875
30649DOD     C335768   5.040  27.266  29.934  0.0834  0.2842  0.1707
30650DOD     C135769   7.565  21.819   5.686  0.0659 -0.1516  0.3056
30650DOD     C235770   7.499  21.606   5.264  0.1401  0.2682 -0.3444
30650DOD     C335771   7.408  21.733   4.810  0.0992 -0.0690  0.1980
30651DOD     C135772   4.276   2.430   9.090 -0.1635  0.1588 -0.2509
30651DOD     C235773   3.813   2.247   8.940 -0.0933 -0.0624  0.1248
30651DOD     C335774   3.359   2.132   8.918 -0.2032  0.2615 -0.0949
30652DOD     C135775   3.354   8.411   0.841 -0.1588 -0.1298  0.0716
30652DOD     C235776   3.151   8.009   0.813 -0.0165 -0.0018  0.0963
30652DOD     C335777   2.657   7.800   0.723 -0.4116 -0.0981  0.1245
30653DOD     C135778  19.364  11.326   1.864 -0.2865  0.1444  0.1298
30653DOD     C235779  19.022  11.444   1.585 -0.2589 -0.3152  0.1405
30653DOD     C335780  18.768  11.187   1.257 -0.1689  0.3727  0.2671
30654DOD     C135781  29.818   6.200   0.920  0.1583  0.2154  0.2110
30654DOD     C235782  29.672   6.550   0.683 -0.0079 -0.2428  0.0112
30654DOD     C335783  29.816   6.739   0.263 -0.0416 -0.2288 -0.0965
30655DOD     C135784  19.995  16.110  16.628 -0.1626  0.0963 -0.1162
30655DOD     C235785  20.222  15.871  16.232  0.1597 -0.1428  0.2219
30655DOD     C335786  20.108  15.577  15.875  0.1895  0.3103  0.1281
30656DOD     C135787   0.222  19.277   7.041 -0.1516 -0.1465  0.0700
30656DOD     C235788   0.621  19.068   7.200  0.0317  0.0210 -0.1370
30656DOD     C335789   0.784  18.693   7.066  0.1590  0.1022 -0.2786
30657DOD     C135790  28.315  23.078   9.744  0.2432  0.4195  0.1232
30657DOD     C235791  28.005  22.879   9.513 -0.0367 -0.1107 -0.2646
30657DOD     C335792  27.562  22.838   9.645  0.2095  0.2351 -0.3357
30658DOD     C135793  26.957  18.565  21.829  0.1503 -0.1852  0.1182
30658DOD     C235794  26.599  18.730  22.120  0.0741 -0.1411  0.0046
30658DOD     C335795  26.301  19.036  22.266 -0.0522 -0.1749  0.0991
30659DOD     C135796   4.908  12.720   9.613 -0.0757  0.0045 -0.0213
30659DOD     C235797   4.646  12.549   9.989 -0.1264  0.3546 -0.2563
30659DOD     C335798   4.308  12.202   9.949  0.2985  0.5879  0.1118
30660DOD     C135799  13.647  11.475   0.786 -0.1003 -0.0808  0.5635
30660DOD     C235800  13.565  11.689   0.397 -0.3585  0.3866 -0.1251
30660DOD     C335801  13.602  11.421   0.044 -0.0063 -0.1003 -0.0774
30661DOD     C135802  11.663  25.427  24.548  0.2867 -0.2191  0.0661
30661DOD     C235803  11.560  25.894  24.545 -0.1977 -0.0911  0.1839
30661DOD     C335804  11.202  26.161  24.417  0.1075  0.1700 -0.0844
30662DOD     C135805  11.936   6.334  26.450 -0.2320 -0.1140  0.1226
30662DOD     C235806  12.013   6.725  26.669  0.0274  0.2519  0.0055
30662DOD     C335807  12.331   7.083  26.688  0.0084 -0.1044  0.0879
30663DOD     C135808  15.774  22.880  19.912  0.2008 -0.1457  0.1596
30663DOD     C235809  15.710  22.601  20.281 -0.0122 -0.3187 -0.3736
30663DOD     C335810  15.926  22.260  20.542  0.0786  0.3493 -0.2702
30664DOD     C135811   3.156  10.260  23.611  0.2002 -0.1695  0.0468
30664DOD     C235812   3.158  10.683  23.679  0.2400 -0.0251  0.0430
30664DOD     C335813   2.989  11.122  23.855  0.0166 -0.1484  0.3000
30665DOD     C135814   9.768  28.548  21.219 -0.0603 -0.0291 -0.0279
30665DOD     C235815   9.690  28.844  21.591  0.0180  0.0982 -0.3555
30665DOD     C335816   9.395  28.913  21.989  0.0300  0.3407 -0.2596
30666DOD     C135817  14.529  21.218  21.923 -0.1315 -0.0598 -0.0764
30666DOD     C235818  14.455  21.039  21.511  0.0052  0.4985 -0.0317
30666DOD     C335819  14.180  20.870  21.151 -0.0847 -0.0636  0.2301
30667DOD     C135820   8.045  12.907  13.401  0.0886  0.0979 -0.3531
30667DOD     C235821   7.733  12.561  13.488  0.0520 -0.1209  0.0038
30667DOD     C335822   7.660  12.371  13.895  0.3120  0.0637  0.2267
30668DOD     C135823  29.288  19.863  19.018  0.0754  0.2466 -0.0369
30668DOD     C235824  29.424  19.440  18.805 -0.0263  0.1975  0.0324
30668DOD     C335825  29.280  19.039  18.611  0.4248 -0.0096  0.0305
30669DOD     C135826  18.311  25.670  14.934  0.0632 -0.2833 -0.0732
30669DOD     C235827  18.245  25.424  14.571 -0.1753  0.2516  0.2222
30669DOD     C335828  18.286  25.422  14.115 -0.0295  0.0796  0.0494
30670DOD     C135829  21.792   6.367  18.720  0.3765 -0.2421  0.2708
30670DOD     C235830  21.994   6.351  19.139 -0.0986 -0.0510 -0.2071
30670DOD     C335831  22.300   6.260  19.432 -0.3757 -0.1862 -0.0287
30671DOD     C135832  17.343   7.924  19.823  0.0132  0.0108 -0.0807
30671DOD     C235833  17.097   8.138  20.172 -0.2064 -0.0373  0.1464
30671DOD     C335834  16.838   8.398  20.384  0.2656 -0.0649 -0.1571
30672DOD     C135835  18.075  26.447   9.717 -0.4300 -0.1848 -0.0050
30672DOD     C235836  18.536  26.368   9.546  0.2018 -0.0093 -0.0952
30672DOD     C335837  18.867  26.233   9.243 -0.3216  0.2327  0.0933
30673DOD     C135838  11.963  29.880  13.535  0.3709  0.0916  0.2710
30673DOD     C235839  11.892  29.442  13.329 -0.2271  0.2150 -0.0366
30673DOD     C335840  11.627  29.046  13.230  0.2088  0.0625 -0.1428
30674DOD     C135841  26.167  21.864  25.181  0.1446  0.2859  0.3789
30674DOD     C235842  25.735  22.075  25.342  0.0403 -0.2629 -0.1446
30674DOD     C335843  25.331  22.057  25.092  0.3473 -0.0474 -0.0356
30675DOD     C135844  15.219  10.275  30.167 -0.1807  0.0212  0.1981
30675DOD     C235845  15.442  10.153   0.244  0.0358  0.0980 -0.0969
30675DOD     C335846  15.833  10.216   0.591 -0.1424 -0.0279 -0.1012
30676DOD     C135847  21.520  16.791  11.938  0.1122  0.0629  0.2200
30676DOD     C235848  21.408  17.034  11.559 -0.1361  0.0643  0.0091
30676DOD     C335849  21.556  17.227  11.121 -0.0688  0.3020 -0.3362
30677DOD     C135850   6.186  29.941  11.158  0.2111  0.0908  0.0732
30677DOD     C235851   6.496  30.017  10.878  0.0740  0.0006  0.2097
30677DOD     C335852   6.889  30.164  10.673  0.3376  0.0699 -0.1448
30678DOD     C135853   1.595   1.484   5.857 -0.1382  0.1275  0.2035
30678DOD     C235854   1.464   1.270   5.462  0.1226 -0.2700  0.0539
30678DOD     C335855   1.463   0.883   5.218 -0.0550  0.2637  0.0232
30679DOD     C135856  16.616  13.221   2.460 -0.2228 -0.0625  0.0558
30679DOD     C235857  16.273  13.465   2.635 -0.0602 -0.4497  0.0439
30679DOD     C335858  16.148  13.881   2.755  0.0841 -0.3275 -0.1074
30680DOD     C135859   3.036   5.010  10.109 -0.1649 -0.0160  0.1159
30680DOD     C235860   2.974   5.278  10.508  0.1039 -0.0746  0.2763
30680DOD     C335861   2.986   5.567  10.871  0.0278 -0.2027  0.0749
30681DOD     C135862   7.857  17.083   3.740  0.0278  0.0652 -0.0728
30681DOD     C235863   8.119  17.152   3.366  0.2565 -0.0631 -0.0464
30681DOD     C335864   8.011  17.415   2.948 -0.0669 -0.1500 -0.1220
30682DOD     C135865   3.449   6.272   9.135  0.0667  0.1870 -0.3535
30682DOD     C235866   3.073   6.451   9.414  0.0530 -0.0013 -0.1522
30682DOD     C335867   2.801   6.863   9.447  0.1263  0.1087 -0.0717
30683DOD     C135868  21.488  18.404  18.543 -0.4042 -0.2078 -0.2410
30683DOD     C235869  21.422  18.443  18.985 -0.1729 -0.3306 -0.3108
30683DOD     C335870  21.323  18.295  19.445 -0.3438 -0.0227  0.3291
30684DOD     C135871   2.131   1.550   7.481 -0.1622 -0.0347 -0.2446
30684DOD     C235872   1.692   1.375   7.584 -0.1304  0.0875  0.0646
30684DOD     C335873   1.544   1.270   7.998  0.1855 -0.0479  0.0495
30685DOD     C135874  26.027  14.104   8.177  0.1141  0.2299  0.3898
30685DOD     C235875  26.318  14.157   8.506  0.0726 -0.2838  0.0085
30685DOD     C335876  26.644  14.016   8.733 -0.1630 -0.0878 -0.1221
30686DOD     C135877  15.580  20.560   5.356 -0.0275  0.0947  0.1058
30686DOD     C235878  15.810  21.009   5.198  0.0572  0.0436  0.0990
30686DOD     C335879  15.728  21.416   5.434  0.3098 -0.0023  0.0542
30687DOD     C135880  23.184  11.749  10.361  0.0693  0.0884 -0.2039
30687DOD     C235881  23.406  11.895   9.993 -0.3538  0.2533 -0.1351
30687DOD     C335882  23.315  11.911   9.519  0.3453 -0.1370 -0.1972
30688DOD     C135883   8.080  25.187  22.049  0.1007  0.0708 -0.0878
30688DOD     C235884   8.187  25.592  21.918  0.1027 -0.1051 -0.0618
30688DOD     C335885   8.490  25.717  21.591  0.0992  0.2906 -0.1162
30689DOD     C135886   2.956  16.426  17.304  0.0319  0.0705  0.0956
30689DOD     C235887   2.481  16.517  17.165  0.0594 -0.0306  0.3063
30689DOD     C335888   2.084  16.645  17.407  0.0745 -0.2824  0.0565
30690DOD     C135889  25.857   5.226  29.490 -0.0439 -0.1059 -0.0400
30690DOD     C235890  25.925   5.197  29.922 -0.1295  0.0641 -0.0258
30690DOD     C335891  25.919   5.490  30.276  0.1852  0.0392  0.1184
30691DOD     C135892  13.388  25.953  16.430  0.0634 -0.0797  0.1282
30691DOD     C235893  13.233  25.852  16.007 -0.4311  0.0072 -0.2296
30691DOD     C335894  13.010  25.579  15.724 -0.3794  0.1344 -0.2224
30692DOD     C135895  14.464  14.280  20.462  0.1445  0.0295  0.0714
30692DOD     C235896  14.475  14.709  20.296 -0.0766  0.2407  0.0676
30692DOD     C335897  14.423  15.097  20.102 -0.0127 -0.2055  0.1578
30693DOD     C135898  21.481   3.281  29.346  0.0124  0.2714 -0.1074
30693DOD     C235899  21.623   3.068  28.947 -0.2022  0.0808 -0.1771
30693DOD     C335900  21.992   3.024  28.699 -0.1204 -0.2794  0.0698
30694DOD     C135901  13.503   2.327  20.974  0.0435  0.1419  0.1928
30694DOD     C235902  13.834   2.629  20.823  0.1683  0.0960 -0.3638
30694DOD     C335903  14.249   2.487  20.881 -0.1342 -0.2492  0.1297
30695DOD     C135904  12.122  28.214   2.112  0.1705  0.2123  0.1514
30695DOD     C235905  12.422  28.492   1.886 -0.1261 -0.2356  0.0925
30695DOD     C335906  12.394  28.584   1.408  0.0183 -0.0039 -0.1480
30696DOD     C135907  21.962   5.001  27.849 -0.1190  0.2987  0.1369
30696DOD     C235908  22.209   5.171  28.176 -0.1736  0.0589  0.1504
30696DOD     C335909  22.583   5.232  28.483 -0.0935  0.0643 -0.1368
30697DOD     C135910  25.259   7.615  29.408 -0.1922  0.1180  0.0908
30697DOD     C235911  25.312   7.478  28.968  0.0672 -0.0223  0.3181
30697DOD     C335912  25.723   7.412  28.649 -0.0362 -0.3248 -0.0911
30698DOD     C135913   6.893  18.668  14.758 -0.1855 -0.1795 -0.1749
30698DOD     C235914   7.074  18.514  15.116 -0.3187 -0.0150  0.2358
30698DOD     C335915   7.326  18.528  15.534 -0.0151  0.0776 -0.3959
30699DOD     C135916   1.958   2.539  17.462  0.1642 -0.0171 -0.0329
30699DOD     C235917   1.636   2.266  17.307 -0.0592  0.1782  0.1428
30699DOD     C335918   1.280   1.999  17.122 -0.0538 -0.2601  0.1455
30700DOD     C135919  18.099  23.035   5.219  0.1684 -0.0892 -0.0483
30700DOD     C235920  17.933  22.848   4.849  0.1274  0.1077  0.1630
30700DOD     C335921  17.823  22.594   4.523  0.1922  0.2003  0.3072
30701DOD     C135922  11.630   1.117  13.882 -0.0819  0.1190  0.1524
30701DOD     C235923  12.029   1.111  14.207  0.1527  0.1060  0.1312
30701DOD     C335924  12.335   1.276  14.502 -0.1655  0.0764 -0.0741
30702DOD     C135925  19.373   1.062  28.297  0.1748  0.1738  0.0245
30702DOD     C235926  19.379   1.328  27.945 -0.1830  0.0916  0.2976
30702DOD     C335927  19.220   1.345  27.556 -0.1769 -0.0721  0.1088
30703DOD     C135928  15.356   8.347   9.211  0.2066 -0.0423  0.0129
30703DOD     C235929  15.514   8.100   8.877 -0.0256  0.0967  0.1874
30703DOD     C335930  15.478   7.593   8.893  0.0159 -0.2140 -0.0631
30704DOD     C135931  18.834  15.372  29.685  0.0271 -0.0054  0.0544
30704DOD     C235932  18.835  15.720  29.947 -0.1172  0.1036  0.5236
30704DOD     C335933  18.574  15.924  30.322 -0.2059 -0.0056  0.0180
30705DOD     C135934   8.596  11.117   5.137  0.1433  0.2093 -0.1382
30705DOD     C235935   8.163  11.007   5.003 -0.1406 -0.2094 -0.1407
30705DOD     C335936   7.707  10.960   4.995  0.3231 -0.1235 -0.0529
30706DOD     C135937   2.729   7.648   3.238 -0.0333  0.1348  0.0755
30706DOD     C235938   2.483   7.410   2.949 -0.2414  0.2491  0.3994
30706DOD     C335939   2.545   7.193   2.552 -0.0429 -0.1775 -0.2769
30707DOD     C135940  21.548   4.746  25.257  0.1158  0.0545 -0.0069
30707DOD     C235941  21.847   4.533  25.573 -0.0487 -0.2371 -0.1458
30707DOD     C335942  22.352   4.456  25.605  0.1550  0.1881  0.1291
30708DOD     C135943  23.179  28.167  20.530 -0.0334 -0.1012 -0.3723
30708DOD     C235944  23.317  28.579  20.392  0.0417  0.0143  0.1969
30708DOD     C335945  23.449  28.957  20.225 -0.1305  0.2097 -0.1445
30709DOD     C135946  10.229  24.971  12.589  0.4762 -0.0380  0.1426
30709DOD     C235947  10.484  25.128  12.977  0.1195 -0.1825  0.0551
30709DOD     C335948  10.842  25.318  12.909  0.2598  0.0899 -0.3296
30710DOD     C135949  26.924   6.162  18.927 -0.1421 -0.1715  0.0224
30710DOD     C235950  27.158   6.549  19.202 -0.2975  0.1380 -0.1868
30710DOD     C335951  27.392   6.883  19.132  0.1723 -0.1119  0.2751
30711DOD     C135952  26.159   9.394  10.130 -0.1045  0.1447 -0.0129
30711DOD     C235953  26.359   9.133  10.449  0.1832  0.2659 -0.1490
30711DOD     C335954  26.729   8.833  10.385 -0.1724  0.2411 -0.2094
30712DOD     C135955   9.414   0.560  12.919 -0.0571  0.1778 -0.3889
30712DOD     C235956   9.726   0.749  13.211  0.3246  0.3200 -0.1883
30712DOD     C335957   9.901   0.937  13.581 -0.1142 -0.0974  0.1547
30713DOD     C135958  19.396  19.083  29.383 -0.1460 -0.0801 -0.1039
30713DOD     C235959  18.938  19.136  29.587  0.0981 -0.2927  0.0583
30713DOD     C335960  18.610  18.839  29.702 -0.3362  0.3577  0.0061
30714DOD     C135961  17.839  28.998   0.198  0.0810 -0.4607 -0.1006
30714DOD     C235962  17.980  29.469   0.151 -0.2674  0.2312 -0.2469
30714DOD     C335963  18.313  29.780   0.112 -0.3192  0.0347 -0.0554
30715DOD     C135964  22.903   8.562  26.177 -0.1830 -0.0125  0.2495
30715DOD     C235965  22.812   8.451  26.632  0.1715 -0.1325 -0.1398
30715DOD     C335966  22.654   8.313  27.001  0.2306  0.0509 -0.1986
30716DOD     C135967   0.810  16.932  21.646  0.0259  0.0264 -0.0293
30716DOD     C235968   1.183  16.567  21.581 -0.0810 -0.1842  0.0192
30716DOD     C335969   1.552  16.407  21.399  0.1370  0.1058 -0.0655
30717DOD     C135970  26.046  17.520  23.538  0.1605 -0.0922 -0.1514
30717DOD     C235971  26.116  17.184  23.826 -0.0983  0.3619 -0.1250
30717DOD     C335972  26.254  17.107  24.276  0.0403  0.0156  0.1495
30718DOD     C135973  14.866  10.879  20.739  0.0300 -0.4540 -0.1684
30718DOD     C235974  14.980  10.411  20.740 -0.0672 -0.2682 -0.1101
30718DOD     C335975  15.170  10.094  21.021 -0.1462 -0.2262 -0.1817
30719DOD     C135976   2.209  29.143  18.930  0.0291  0.0121 -0.0228
30719DOD     C235977   2.636  29.138  18.735  0.3491  0.2246  0.0925
30719DOD     C335978   2.968  28.786  18.774 -0.0087 -0.1807  0.0485
30720DOD     C135979  25.822   2.230  19.296  0.0143 -0.3357 -0.0021
30720DOD     C235980  25.506   2.012  19.634  0.0296  0.0655 -0.1558
30720DOD     C335981  25.521   1.921  20.100  0.0464 -0.0079  0.1308
30721DOD     C135982   1.772  25.074  22.489 -0.0225 -0.0166 -0.1207
30721DOD     C235983   1.893  24.798  22.807  0.0899 -0.0677 -0.0829
30721DOD     C335984   2.168  24.534  23.139  0.3279  0.1075 -0.0194
30722DOD     C135985   6.635  22.597  22.412  0.0303 -0.0801  0.2892
30722DOD     C235986   6.189  22.457  22.356  0.1516  0.1352  0.0801
30722DOD     C335987   5.761  22.330  22.504  0.4098  0.2505  0.0772
30723DOD     C135988   7.831  23.721  16.151 -0.4447 -0.0130  0.0471
30723DOD     C235989   7.832  23.327  16.398  0.2491  0.1491 -0.2485
30723DOD     C335990   8.013  22.926  16.465  0.2162 -0.1023 -0.1883
30724DOD     C135991   5.124  11.541   0.433  0.0300 -0.1196  0.3695
30724DOD     C235992   5.008  11.195   0.150  0.0633 -0.1031 -0.4602
30724DOD     C335993   5.090  10.667   0.106  0.4034 -0.1703 -0.1935
30725DOD     C135994   8.726   4.730  12.584 -0.3601 -0.3017 -0.1648
30725DOD     C235995   9.073   4.545  12.285 -0.0772 -0.1331  0.0370
30725DOD     C335996   9.252   4.344  11.869  0.0389  0.2139  0.1763
30726DOD     C135997  24.524  14.775  26.988  0.0614  0.0650  0.1661
30726DOD     C235998  24.505  14.738  27.495  0.0155  0.1977 -0.2400
30726DOD     C335999  24.589  14.723  28.005 -0.1648 -0.0807 -0.1036
30727DOD     C136000  30.260   6.687  28.781  0.0064 -0.1618 -0.0105
30727DOD     C236001  30.077   6.701  28.301  0.1511 -0.1505 -0.0278
30727DOD     C336002  29.639   6.522  28.092 -0.1140 -0.0629  0.3285
30728DOD     C136003   0.889  25.944   4.789  0.0840 -0.2535 -0.0147
30728DOD     C236004   0.645  26.212   5.100 -0.0390 -0.0226 -0.0131
30728DOD     C336005   0.308  26.512   5.151 -0.3281  0.1339  0.2497
30729DOD     C136006  22.782  22.062  28.999  0.0664  0.2102  0.0942
30729DOD     C236007  22.402  22.183  28.735  0.0052  0.0271  0.1928
30729DOD     C336008  22.054  22.033  28.491 -0.0972 -0.0740 -0.1133
30730DOD     C136009   8.999   5.761   2.117 -0.0367 -0.2093 -0.0914
30730DOD     C236010   9.263   5.529   2.383 -0.0915 -0.1661  0.1631
30730DOD     C336011   9.688   5.529   2.544 -0.1176  0.0100 -0.1049
30731DOD     C136012  10.175  12.331  27.912 -0.0500 -0.0288  0.0340
30731DOD     C236013   9.824  12.279  27.707 -0.3519  0.3013 -0.0043
30731DOD     C336014   9.329  12.279  27.687 -0.1479 -0.0051  0.1318
30732DOD     C136015   2.389   6.176  16.517  0.2624 -0.0456 -0.0880
30732DOD     C236016   2.359   6.685  16.591 -0.0448  0.1145 -0.0347
30732DOD     C336017   2.276   7.166  16.501 -0.1859  0.0473  0.0258
30733DOD     C136018  29.148   4.033   3.664  0.2356  0.3555  0.0797
30733DOD     C236019  29.326   4.072   3.250  0.0043  0.1456  0.0054
30733DOD     C336020  29.106   4.036   2.877 -0.2280 -0.0315  0.0192
30734DOD     C136021  25.531   4.825  17.609  0.3546  0.1148 -0.2178
30734DOD     C236022  25.098   4.601  17.460  0.0370 -0.2783 -0.2510
30734DOD     C336023  24.927   4.299  17.187 -0.0119 -0.4555  0.0492
30735DOD     C136024  13.774  29.361  19.471  0.1190  0.1906  0.0117
30735DOD     C236025  13.424  29.628  19.289 -0.0359 -0.0086  0.0810
30735DOD     C336026  13.065  29.773  19.409  0.0414  0.1563 -0.0771
30736DOD     C136027  19.425  25.310  16.515  0.1251 -0.1683  0.3090
30736DOD     C236028  19.423  25.743  16.745  0.0587  0.3327  0.0942
30736DOD     C336029  19.539  25.860  17.185  0.0552 -0.0121  0.0621
30737DOD     C136030  10.295  16.016  21.241 -0.2263 -0.0473 -0.0723
30737DOD     C236031  10.267  15.738  21.645 -0.1278 -0.0888 -0.1386
30737DOD     C336032  10.590  15.673  22.014 -0.2025 -0.1947  0.3436
30738DOD     C136033  10.927  11.313  26.768 -0.2436  0.0850  0.0912
30738DOD     C236034  11.285  11.529  26.759  0.1803  0.2298  0.0140
30738DOD     C336035  11.661  11.858  26.653 -0.0614  0.2534  0.2620
30739DOD     C136036  25.541   7.342  19.723 -0.2293  0.1375 -0.0861
30739DOD     C236037  25.291   7.066  20.072  0.1970  0.1076 -0.0947
30739DOD     C336038  25.208   7.072  20.562 -0.1311  0.1330  0.0485
30740DOD     C136039  27.667  23.671  14.834  0.1563  0.1190 -0.3272
30740DOD     C236040  27.390  23.916  15.075  0.1326  0.0551  0.0164
30740DOD     C336041  27.186  23.937  15.488  0.1004 -0.3702 -0.1882
30741DOD     C136042   8.222   1.200   1.840  0.0952  0.1762 -0.1466
30741DOD     C236043   8.112   0.702   1.879  0.0505  0.1465 -0.1723
30741DOD     C336044   8.243   0.382   1.579  0.1601  0.2398  0.0423
30742DOD     C136045   6.264  18.192  13.701 -0.1911  0.0636 -0.0828
30742DOD     C236046   6.113  18.573  13.495 -0.1238  0.1804  0.0194
30742DOD     C336047   5.840  18.598  13.111  0.1197  0.0349 -0.0298
30743DOD     C136048   6.247   0.179  21.139  0.1009 -0.2106 -0.3518
30743DOD     C236049   6.656  30.242  21.021 -0.1334  0.2693  0.0000
30743DOD     C336050   6.882  29.957  20.735  0.0283 -0.2372  0.1164
30744DOD     C136051   1.917  10.667  12.228  0.3583  0.0098 -0.2864
30744DOD     C236052   1.803  10.533  12.672  0.1197 -0.0520  0.4051
30744DOD     C336053   1.415  10.507  12.881 -0.1571 -0.1457 -0.0454
30745DOD     C136054   8.374   1.960  26.603 -0.0234 -0.0145 -0.3343
30745DOD     C236055   8.376   2.410  26.580  0.2366  0.0079  0.1296
30745DOD     C336056   8.251   2.824  26.464  0.1199 -0.1216 -0.0154
30746DOD     C136057   3.497   5.029  17.637 -0.3087 -0.0198  0.0938
30746DOD     C236058   3.024   5.178  17.733  0.2202 -0.3230  0.0500
30746DOD     C336059   2.708   5.509  17.829 -0.3076 -0.2223 -0.0240
30747DOD     C136060  17.434  19.008  12.573  0.0803  0.0585 -0.1339
30747DOD     C236061  17.603  18.730  12.887  0.1806 -0.0413 -0.0336
30747DOD     C336062  17.620  18.259  12.996 -0.2359 -0.0505  0.1561
30748DOD     C136063   3.737  19.701  13.498 -0.0153  0.0525  0.2472
30748DOD     C236064   3.823  19.735  13.938 -0.0262  0.2041  0.2057
30748DOD     C336065   4.194  19.853  14.182  0.0532 -0.1301 -0.1204
30749DOD     C136066  13.167   0.834  12.213 -0.1811  0.0984 -0.2012
30749DOD     C236067  13.091   0.958  11.785 -0.0088  0.3127  0.1709
30749DOD     C336068  13.102   0.968  11.319  0.2560 -0.1723  0.0471
30750DOD     C136069   9.010  29.445  11.708  0.0777  0.0731 -0.0897
30750DOD     C236070   9.138  29.039  11.934 -0.3666  0.2443  0.3243
30750DOD     C336071   9.130  28.658  12.086  0.0625 -0.1043  0.0341
30751DOD     C136072  29.137   9.671   4.434 -0.0757 -0.2223 -0.1842
30751DOD     C236073  29.420   9.950   4.648  0.0803 -0.0339  0.0014
30751DOD     C336074  29.881   9.932   4.738  0.0536 -0.2107  0.2350
30752DOD     C136075   9.214   1.542  18.335  0.0660  0.3080 -0.1243
30752DOD     C236076   9.071   1.365  18.778  0.0397  0.2450  0.1130
30752DOD     C336077   9.194   1.083  19.146 -0.0839 -0.2134  0.1223
30753DOD     C136078   1.162   5.310   8.851  0.0297  0.0049 -0.1081
30753DOD     C236079   1.393   5.110   8.464  0.0453 -0.0022 -0.1515
30753DOD     C336080   1.374   5.055   8.007  0.1421 -0.1810 -0.1312
30754DOD     C136081  24.083   4.638   8.851  0.4202  0.0877 -0.0791
30754DOD     C236082  24.188   5.100   8.649 -0.1358 -0.1478 -0.0984
30754DOD     C336083  24.116   5.462   8.321  0.0101  0.0668  0.1108
30755DOD     C136084  30.247  18.121  30.205  0.0466 -0.1372 -0.5048
30755DOD     C236085  29.852  18.228   0.078 -0.0813 -0.0309 -0.1468
30755DOD     C336086  29.575  18.501   0.307  0.0528 -0.3240 -0.2457
30756DOD     C136087   1.459  24.041   1.917 -0.1467  0.4330  0.0467
30756DOD     C236088   1.051  24.235   1.806 -0.1609 -0.0568 -0.0084
30756DOD     C336089   0.613  24.405   1.806 -0.0032  0.0514  0.0659
30757DOD     C136090   0.227  20.087  17.841 -0.0623 -0.1016 -0.0614
30757DOD     C236091   0.148  20.094  17.313 -0.0998  0.0116 -0.0046
30757DOD     C336092  30.138  20.004  16.979  0.2627 -0.2474 -0.1063
30758DOD     C136093  15.569   7.498  22.117 -0.3303 -0.0907 -0.0997
30758DOD     C236094  15.407   7.031  22.069 -0.1370 -0.0121 -0.1924
30758DOD     C336095  14.956   6.931  22.175  0.0565 -0.0081 -0.1919
30759DOD     C136096   5.246   1.502   9.725 -0.0077  0.4595 -0.3989
30759DOD     C236097   5.531   1.107   9.687 -0.0072  0.1386  0.2060
30759DOD     C336098   5.915   0.895   9.760  0.0453 -0.1601  0.2061
30760DOD     C136099  11.935  25.644   3.791 -0.2747 -0.2516 -0.3559
30760DOD     C236100  11.727  25.621   3.394 -0.0019  0.0249  0.1559
30760DOD     C336101  11.820  25.733   2.882 -0.0571  0.0160 -0.1490
30761DOD     C136102  10.938   2.798  20.550 -0.0019 -0.0233 -0.1446
30761DOD     C236103  11.125   3.107  20.832  0.0363  0.0349  0.0270
30761DOD     C336104  11.209   3.050  21.260  0.0753 -0.0783 -0.1228
30762DOD     C136105  26.772   1.112  27.140 -0.2108 -0.0015  0.0751
30762DOD     C236106  26.635   0.695  26.872  0.1951 -0.3735  0.1612
30762DOD     C336107  26.874   0.354  26.735 -0.1890 -0.2878 -0.3433
30763DOD     C136108   2.118   1.436   8.369  0.2054 -0.0044 -0.2835
30763DOD     C236109   1.694   1.647   8.433 -0.0054 -0.0281  0.1191
30763DOD     C336110   1.385   1.970   8.627  0.0656  0.1294 -0.0449
30764DOD     C136111  16.015  30.211  12.733  0.1589  0.0214 -0.2531
30764DOD     C236112  15.833   0.063  12.320  0.1633 -0.0738 -0.2370
30764DOD     C336113  15.525   0.368  12.175 -0.1703 -0.0317  0.1461
30765DOD     C136114  17.119   6.672   5.708  0.1811 -0.1610 -0.0414
30765DOD     C236115  16.924   6.264   5.567 -0.1131  0.2426 -0.1682
30765DOD     C336116  16.782   5.917   5.265  0.0786 -0.1274 -0.2598
30766DOD     C136117   1.443   1.367  17.201 -0.0626 -0.0718 -0.2774
30766DOD     C236118   1.351   1.472  17.724  0.0807 -0.3739  0.2187
30766DOD     C336119   1.253   1.410  18.154  0.0836  0.1244  0.1929
30767DOD     C136120   2.676  19.230  14.868  0.4721 -0.0161 -0.0588
30767DOD     C236121   2.590  18.800  14.964  0.0614 -0.0591  0.0597
30767DOD     C336122   2.299  18.427  15.071  0.2644  0.1601  0.1104
30768DOD     C136123  17.225   2.044  14.646  0.2046  0.0335  0.2801
30768DOD     C236124  17.042   1.625  14.480  0.0422 -0.3326  0.2491
30768DOD     C336125  16.716   1.670  14.131 -0.2624  0.0323  0.2825
30769DOD     C136126  24.495  10.402  12.191  0.0282 -0.3490 -0.0293
30769DOD     C236127  24.137  10.686  12.328  0.1185  0.0376 -0.1512
30769DOD     C336128  23.670  10.536  12.304  0.1373  0.1224 -0.0717
30770DOD     C136129  27.336  13.130  25.692  0.0828 -0.0162 -0.1050
30770DOD     C236130  27.369  12.820  26.058 -0.1658 -0.2625 -0.1065
30770DOD     C336131  27.562  12.437  26.242 -0.0742  0.2153  0.2058
30771DOD     C136132  22.024  10.721  17.935  0.0861 -0.0059 -0.5093
30771DOD     C236133  21.843  10.953  18.345  0.0552 -0.0178 -0.0046
30771DOD     C336134  21.806  11.364  18.607  0.4620  0.0719  0.1449
30772DOD     C136135  10.140  29.906  24.954 -0.1521  0.0710 -0.1083
30772DOD     C236136  10.513  30.125  24.802  0.2243  0.1124  0.2066
30772DOD     C336137  10.959  30.062  24.919  0.1553 -0.2169 -0.0349
30773DOD     C136138  16.275  16.158   5.692 -0.2435  0.2979  0.1104
30773DOD     C236139  16.360  16.336   6.094 -0.0345  0.3366  0.0534
30773DOD     C336140  16.650  16.437   6.464  0.0964 -0.3559 -0.0204
30774DOD     C136141   8.237   7.462  25.176  0.0891 -0.0755 -0.1306
30774DOD     C236142   8.558   7.840  25.138 -0.0655  0.1347 -0.0492
30774DOD     C336143   8.410   8.242  25.230  0.1155 -0.1867  0.3573
30775DOD     C136144   4.051  16.497  27.429  0.1343 -0.1304 -0.2305
30775DOD     C236145   4.483  16.298  27.429 -0.0602 -0.0517 -0.0050
30775DOD     C336146   4.789  16.495  27.142  0.0625 -0.0126 -0.0813
30776DOD     C136147  18.518  21.086  17.468  0.0093 -0.2498  0.0403
30776DOD     C236148  18.883  20.826  17.617 -0.3762 -0.1160  0.0528
30776DOD     C336149  18.815  20.651  18.040 -0.3895 -0.1909 -0.0275
30777DOD     C136150  19.146  24.311   9.805 -0.0980  0.0853  0.2679
30777DOD     C236151  19.218  24.038   9.457  0.4552 -0.1505  0.2557
30777DOD     C336152  19.487  23.844   9.211 -0.3087  0.0734 -0.0776
30778DOD     C136153   7.385   5.253   5.715  0.1403  0.0232 -0.0305
30778DOD     C236154   7.298   5.273   6.213 -0.0902  0.1074 -0.2542
30778DOD     C336155   7.366   5.378   6.686  0.0138  0.1112  0.3461
30779DOD     C136156  21.840  17.318   3.150 -0.0771 -0.2042  0.0408
30779DOD     C236157  22.261  17.190   3.310 -0.0054 -0.1652  0.1952
30779DOD     C336158  22.695  17.108   3.387 -0.1183 -0.0706 -0.1084
30780DOD     C136159  15.167  24.522  21.319  0.2169 -0.2393  0.4458
30780DOD     C236160  15.531  24.567  21.585 -0.0070  0.0218 -0.2014
30780DOD     C336161  15.931  24.483  21.541  0.1142 -0.0420 -0.4955
30781DOD     C136162  19.019  14.671  12.378 -0.3212 -0.1608 -0.2115
30781DOD     C236163  19.058  14.988  12.007 -0.1774  0.1720 -0.0886
30781DOD     C336164  19.339  15.250  11.865 -0.2912 -0.0968  0.2419
30782DOD     C136165   1.054   4.401  17.437 -0.1703 -0.0745 -0.2270
30782DOD     C236166   1.469   4.569  17.279  0.2231 -0.1160 -0.3844
30782DOD     C336167   1.984   4.509  17.316  0.0282 -0.0305  0.2131
30783DOD     C136168   6.791   7.419  27.073 -0.0216 -0.1439 -0.0331
30783DOD     C236169   6.907   7.291  27.497 -0.0083  0.1051 -0.1916
30783DOD     C336170   6.991   7.263  27.994  0.1068  0.0023  0.3421
30784DOD     C136171  18.683  25.076  12.548  0.0628 -0.0131 -0.3427
30784DOD     C236172  18.497  24.884  12.151  0.0148 -0.1892  0.1983
30784DOD     C336173  18.093  24.633  12.032  0.0990 -0.1051 -0.0598
30785DOD     C136174  29.748  11.538   6.576  0.1459 -0.1164 -0.2687
30785DOD     C236175  29.336  11.454   6.351 -0.0561  0.0626 -0.2231
30785DOD     C336176  29.138  11.347   5.917 -0.2747  0.0028 -0.0740
30786DOD     C136177  16.580  29.536   4.730 -0.1267  0.1605 -0.0832
30786DOD     C236178  16.117  29.732   4.648 -0.1598  0.2036  0.1038
30786DOD     C336179  15.793  29.732   4.986  0.0571  0.0736 -0.0822
30787DOD     C136180  18.529   2.150  26.910 -0.1212 -0.2464 -0.1735
30787DOD     C236181  18.100   1.969  26.896  0.1480 -0.1967  0.0643
30787DOD     C336182  17.837   1.721  27.178  0.1066  0.0512 -0.0158
30788DOD     C136183  29.621  29.166   4.830 -0.0783  0.0411  0.1348
30788DOD     C236184  29.877  29.043   4.432  0.1406 -0.1717 -0.0933
30788DOD     C336185  30.255  28.802   4.427 -0.0550  0.0983 -0.0394
30789DOD     C136186   6.753   4.720  20.815  0.1788 -0.3044 -0.1495
30789DOD     C236187   6.765   4.689  21.274  0.2634 -0.1949 -0.1338
30789DOD     C336188   6.776   5.040  21.646  0.3289 -0.1262 -0.1454
30790DOD     C136189   1.746  14.343   6.048 -0.1167  0.0216 -0.1259
30790DOD     C236190   1.900  14.052   5.683 -0.2687  0.0660  0.1702
30790DOD     C336191   2.091  13.956   5.215 -0.0434 -0.1296 -0.1259
30791DOD     C136192   8.715   7.396  23.055 -0.0508  0.1574 -0.1121
30791DOD     C236193   9.156   7.239  23.205 -0.2123 -0.0477  0.1815
30791DOD     C336194   9.482   7.318  23.532  0.2554  0.1669  0.0120
30792DOD     C136195  21.603  12.952   5.610  0.0306 -0.1226  0.0458
30792DOD     C236196  21.391  12.699   5.973 -0.0264 -0.1645 -0.1689
30792DOD     C336197  21.128  12.743   6.323  0.0592  0.0968  0.0070
30793DOD     C136198  28.194   6.018  12.254 -0.3669 -0.1394 -0.2929
30793DOD     C236199  28.507   5.693  12.076  0.1576  0.2798  0.0322
30793DOD     C336200  28.806   5.347  12.041  0.1548  0.3431 -0.2926
30794DOD     C136201   0.790   9.735  20.490 -0.0737  0.0587 -0.2033
30794DOD     C236202   0.629  10.023  20.758 -0.1916  0.1162  0.0464
30794DOD     C336203   0.405  10.435  20.852 -0.0633 -0.0595 -0.1340
30795DOD     C136204  29.078  18.640  10.992  0.0059 -0.2043 -0.2128
30795DOD     C236205  28.779  18.861  11.289  0.0715  0.1916 -0.3097
30795DOD     C336206  28.854  18.971  11.801  0.0230 -0.1175 -0.0306
30796DOD     C136207  17.515  17.450  23.295  0.0927  0.2825  0.0321
30796DOD     C236208  17.145  17.162  23.287 -0.2095 -0.2827  0.1701
30796DOD     C336209  17.106  16.702  23.252  0.0908 -0.0051  0.1728
30797DOD     C136210  21.746   0.322  24.568  0.0846  0.1242  0.2786
30797DOD     C236211  21.600   0.375  25.003 -0.0489 -0.4393 -0.0691
30797DOD     C336212  21.463   0.171  25.322 -0.0802  0.0334 -0.2269
30798DOD     C136213  10.118  17.009  28.735 -0.1150 -0.0479  0.1426
30798DOD     C236214   9.744  17.199  29.045  0.1667  0.0854  0.0053
30798DOD     C336215   9.356  17.518  29.014  0.2731 -0.0891 -0.0111
30799DOD     C136216  19.931  14.879  19.805  0.0299  0.1075 -0.1896
30799DOD     C236217  20.266  14.883  19.484 -0.2537 -0.0636 -0.1090
30799DOD     C336218  20.436  15.124  19.123 -0.0645 -0.1050  0.0210
30800DOD     C136219   4.554  12.210  21.201  0.2331  0.0916 -0.0931
30800DOD     C236220   4.965  12.210  21.029 -0.0894  0.5178 -0.4499
30800DOD     C336221   5.325  12.169  21.257 -0.1784 -0.1678 -0.1394
30801DOD     C136222  18.013  22.390  15.321  0.0596  0.0383 -0.0648
30801DOD     C236223  18.138  22.521  14.886 -0.0928 -0.2316  0.3158
30801DOD     C336224  18.271  22.904  14.634  0.0927 -0.1497  0.2063
30802DOD     C136225  10.747  21.831  10.135 -0.0414  0.1792  0.0382
30802DOD     C236226  10.945  22.171  10.463 -0.0129  0.0761  0.1093
30802DOD     C336227  10.923  22.519  10.809 -0.1538 -0.0367  0.0590
30803DOD     C136228  22.636   9.900  20.027 -0.0744 -0.2759 -0.1396
30803DOD     C236229  22.269  10.031  19.745  0.0709  0.1121  0.1247
30803DOD     C336230  21.889  10.206  19.593 -0.0580  0.0675 -0.0320
30804DOD     C136231   7.926   6.163   8.601 -0.0185 -0.1837 -0.1518
30804DOD     C236232   8.024   6.396   8.196  0.1545  0.5417 -0.2725
30804DOD     C336233   8.335   6.802   8.239  0.4272 -0.1977  0.0343
30805DOD     C136234  18.235  11.649  10.670 -0.2322 -0.0432  0.1903
30805DOD     C236235  18.331  11.693  10.202  0.1066  0.2399 -0.3770
30805DOD     C336236  18.560  11.548   9.796  0.3255 -0.1120  0.0142
30806DOD     C136237  27.274  15.628   5.066  0.3482 -0.2127  0.0931
30806DOD     C236238  26.838  15.881   4.990 -0.2478  0.0103 -0.3614
30806DOD     C336239  26.698  16.261   5.026 -0.0839 -0.0427 -0.0319
30807DOD     C136240  12.229   9.824  28.525 -0.1846  0.1175  0.0378
30807DOD     C236241  11.790   9.646  28.615  0.3034 -0.1955 -0.0590
30807DOD     C336242  11.312   9.554  28.810  0.0373  0.1695 -0.0695
30808DOD     C136243   0.789  20.081  13.342  0.0764  0.0268  0.3397
30808DOD     C236244   0.440  20.359  13.543  0.1587 -0.0260  0.2268
30808DOD     C336245   0.378  20.839  13.572 -0.0031 -0.0021 -0.0398
30809DOD     C136246  12.719   6.121  10.136  0.1120  0.2121 -0.0641
30809DOD     C236247  12.779   6.522  10.005  0.1232 -0.0758  0.0740
30809DOD     C336248  13.221   6.620   9.915  0.3438  0.0418  0.1650
30810DOD     C136249  21.381  24.719   2.318 -0.2472  0.1108 -0.0648
30810DOD     C236250  21.623  24.530   2.655  0.0647 -0.0432 -0.1134
30810DOD     C336251  21.920  24.385   2.942  0.0626 -0.0681 -0.3996
30811DOD     C136252   7.765   1.980  11.683 -0.1006 -0.1215  0.1143
30811DOD     C236253   7.676   2.053  12.158  0.0392  0.3579 -0.2098
30811DOD     C336254   7.808   2.022  12.577  0.0665 -0.2599  0.1797
30812DOD     C136255  25.068   2.390  20.292 -0.0708  0.3647 -0.3796
30812DOD     C236256  24.697   2.677  20.339  0.0672  0.1087 -0.0163
30812DOD     C336257  24.216   2.593  20.489  0.0233 -0.2436  0.0674
30813DOD     C136258  14.581  15.731  27.661 -0.0434 -0.0625 -0.1490
30813DOD     C236259  14.801  15.709  28.106  0.0816  0.2110  0.2560
30813DOD     C336260  14.909  15.726  28.584 -0.2221  0.0807 -0.6552
30814DOD     C136261   3.535  18.568  17.128  0.0631  0.4812  0.1551
30814DOD     C236262   3.113  18.704  17.074  0.1217  0.2270  0.1205
30814DOD     C336263   2.911  19.130  17.146 -0.2211 -0.1589  0.3631
30815DOD     C136264  11.311  21.643  12.921  0.0220  0.2360  0.0002
30815DOD     C236265  11.418  21.712  12.427  0.2696 -0.0825 -0.2556
30815DOD     C336266  11.327  21.744  11.979  0.0744 -0.0954 -0.1431
30816DOD     C136267   1.857  29.858  24.862 -0.0306 -0.0314 -0.0047
30816DOD     C236268   1.658  30.269  25.056  0.1271  0.0445 -0.1793
30816DOD     C336269   1.657   0.049  25.509  0.1958 -0.0439  0.2902
30817DOD     C136270  19.086  24.552  22.629  0.0925  0.0076  0.0791
30817DOD     C236271  18.852  24.373  22.957  0.0172 -0.2513 -0.0290
30817DOD     C336272  18.598  24.268  23.354  0.0997 -0.0292  0.0321
30818DOD     C136273  21.114  26.407   1.558  0.1423  0.0603 -0.2887
30818DOD     C236274  21.591  26.583   1.574  0.4533 -0.0158  0.0387
30818DOD     C336275  22.025  26.507   1.771 -0.3462 -0.2541  0.1354
30819DOD     C136276  10.526   8.528  26.233  0.1174  0.2576 -0.0258
30819DOD     C236277  10.836   8.879  26.092 -0.1760  0.0710  0.1736
30819DOD     C336278  10.962   9.322  25.936 -0.3046  0.2850  0.0653
30820DOD     C136279  29.672  20.901  26.908  0.2910  0.1009  0.0530
30820DOD     C236280  29.977  20.709  26.627 -0.0628  0.3619  0.1858
30820DOD     C336281  30.336  20.562  26.325  0.0835 -0.0192  0.0621
30821DOD     C136282  17.631  16.414  13.394  0.0916  0.0606 -0.1973
30821DOD     C236283  17.346  16.776  13.281 -0.0409  0.3225 -0.1015
30821DOD     C336284  17.122  16.981  12.962  0.1084 -0.3069  0.0009
30822DOD     C136285   1.402   6.426  24.546 -0.3459  0.0207  0.0766
30822DOD     C236286   1.662   6.241  24.245 -0.2683  0.1471 -0.2635
30822DOD     C336287   1.908   5.839  24.191  0.1159 -0.2842  0.0081
30823DOD     C136288  27.575  11.981   9.301  0.1170 -0.2245  0.2715
30823DOD     C236289  27.618  11.573   9.027  0.3343  0.0147 -0.1845
30823DOD     C336290  27.861  11.156   9.010  0.1110  0.3063  0.1235
30824DOD     C136291  28.500   7.349  22.011  0.2316  0.1827 -0.1708
30824DOD     C236292  28.489   6.854  22.189  0.1822  0.0051  0.1196
30824DOD     C336293  28.156   6.525  22.244  0.2668  0.2059  0.0311
30825DOD     C136294   4.109  22.884   1.147 -0.0381 -0.0818  0.1408
30825DOD     C236295   3.669  22.992   1.214 -0.2650  0.0813  0.1297
30825DOD     C336296   3.314  22.967   1.499  0.1424  0.0193  0.0056
30826DOD     C136297  19.391   4.316  15.568  0.0858 -0.1227  0.2247
30826DOD     C236298  19.596   4.437  15.223 -0.1350 -0.3853  0.0270
30826DOD     C336299  20.097   4.412  15.265  0.1850  0.0961 -0.0144
30827DOD     C136300  25.350   3.344  20.073  0.0668 -0.2218 -0.4806
30827DOD     C236301  25.587   3.544  19.764  0.0819  0.0270 -0.0898
30827DOD     C336302  25.663   3.376  19.334 -0.1345  0.0395 -0.1461
30828DOD     C136303  13.392  15.711   4.483  0.2693  0.3685 -0.1442
30828DOD     C236304  13.153  15.560   4.182  0.0127 -0.2347 -0.1719
30828DOD     C336305  13.127  15.391   3.720 -0.3081  0.0095  0.1310
30829DOD     C136306   7.831  24.293  11.517 -0.0520  0.0368 -0.2841
30829DOD     C236307   8.158  24.649  11.517  0.0793  0.3780 -0.1445
30829DOD     C336308   8.464  24.761  11.162 -0.1089  0.0473 -0.0209
30830DOD     C136309  22.499  22.908  25.238  0.0990 -0.0344 -0.2686
30830DOD     C236310  22.878  22.645  25.146  0.0496  0.2205 -0.0980
30830DOD     C336311  23.269  22.517  24.873  0.0050 -0.0026  0.2888
30831DOD     C136312  16.589  29.766  14.822  0.1948 -0.3344 -0.1805
30831DOD     C236313  16.161  29.951  14.846  0.1197 -0.2134 -0.0301
30831DOD     C336314  15.876  30.017  14.459  0.0522  0.0599  0.4038
30832DOD     C136315  28.251   3.661   4.863  0.0543 -0.1577  0.0383
30832DOD     C236316  28.024   3.528   4.494  0.1515  0.1695 -0.1382
30832DOD     C336317  27.881   3.506   4.049  0.3732 -0.0417  0.2715
30833DOD     C136318   0.510   6.721  21.385 -0.0666 -0.0312  0.0838
30833DOD     C236319   0.647   7.049  21.668  0.0190  0.0068 -0.0801
30833DOD     C336320   0.842   7.369  21.513  0.1351  0.1894  0.0726
30834DOD     C136321  19.022  24.241  21.285 -0.0059 -0.0428  0.2317
30834DOD     C236322  18.796  24.558  21.040 -0.0690  0.1438  0.1125
30834DOD     C336323  18.475  24.868  20.867 -0.2724 -0.0272  0.1217
30835DOD     C136324  28.764  21.741  17.259  0.3042 -0.0731 -0.1829
30835DOD     C236325  29.073  21.414  17.221 -0.0008  0.1383 -0.2138
30835DOD     C336326  29.440  21.279  16.963 -0.1094  0.1179 -0.0166
30836DOD     C136327  29.426  12.599  28.189 -0.0988  0.2854  0.0392
30836DOD     C236328  29.232  13.012  28.356 -0.0795 -0.0048  0.1490
30836DOD     C336329  28.862  13.267  28.377 -0.0082  0.0237  0.0822
30837DOD     C136330   8.645  16.218   2.516  0.2387  0.2788  0.2162
30837DOD     C236331   8.885  15.900   2.288  0.3995 -0.0381 -0.4258
30837DOD     C336332   9.157  15.578   2.401 -0.0402 -0.0548  0.2782
30838DOD     C136333   6.071   9.763  20.830 -0.1706  0.5061  0.1170
30838DOD     C236334   6.420   9.504  20.841 -0.0040 -0.3936  0.1754
30838DOD     C336335   6.804   9.265  20.784 -0.1888  0.6282 -0.2420
30839DOD     C136336   4.781   3.427  20.198 -0.0473 -0.3054 -0.0393
30839DOD     C236337   4.995   2.996  20.032  0.0629 -0.1150  0.0646
30839DOD     C336338   5.066   2.693  19.714 -0.0310  0.1201  0.0652
30840DOD     C136339   0.838  10.384  22.935 -0.1021 -0.1584 -0.2883
30840DOD     C236340   1.310  10.202  22.828 -0.0150  0.2731 -0.1597
30840DOD     C336341   1.551   9.736  22.800  0.0113  0.0698 -0.0772
30841DOD     C136342  25.707   4.769   9.229 -0.0370  0.0599 -0.0848
30841DOD     C236343  25.962   4.383   9.177 -0.0815 -0.1895 -0.1735
30841DOD     C336344  26.196   3.937   9.180 -0.0701  0.0241 -0.2639
30842DOD     C136345  29.260  27.200  23.962 -0.2261 -0.1194  0.2350
30842DOD     C236346  29.553  27.275  24.389  0.1796  0.1078 -0.1322
30842DOD     C336347  29.768  27.569  24.652  0.4787 -0.1386  0.2368
30843DOD     C136348  22.663  25.022  24.364 -0.2789  0.0349 -0.1391
30843DOD     C236349  22.497  25.213  23.957  0.0574 -0.1930 -0.1897
30843DOD     C336350  22.339  25.523  23.733  0.0164 -0.2372  0.2364
30844DOD     C136351  15.172  26.792   3.148  0.0379  0.1473  0.0631
30844DOD     C236352  15.552  26.815   3.425  0.1241 -0.0508  0.2242
30844DOD     C336353  15.473  26.967   3.858  0.0401 -0.2395 -0.0602
30845DOD     C136354  23.242  17.307  18.690 -0.0631  0.0931  0.0319
30845DOD     C236355  22.986  17.451  18.329 -0.1274 -0.0310  0.1803
30845DOD     C336356  23.181  17.351  17.903  0.0117  0.0476 -0.2936
30846DOD     C136357  21.914  16.446  23.522 -0.1068  0.2379 -0.0922
30846DOD     C236358  22.356  16.268  23.668  0.2192  0.1219  0.2377
30846DOD     C336359  22.464  16.163  24.120 -0.0315 -0.0583 -0.1230
30847DOD     C136360   9.093  14.668   8.442  0.1270 -0.0970 -0.0223
30847DOD     C236361   8.727  14.496   8.594  0.1331 -0.0257 -0.3587
30847DOD     C336362   8.571  14.138   8.684  0.0251  0.1557 -0.0276
30848DOD     C136363  23.823  20.916   4.578  0.2081 -0.0204 -0.2220
30848DOD     C236364  23.989  20.623   4.847  0.0094 -0.2731 -0.0997
30848DOD     C336365  24.335  20.460   5.204  0.0018  0.3635  0.0357
30849DOD     C136366  26.084   4.671   8.774  0.0032 -0.0278  0.0554
30849DOD     C236367  25.939   4.836   8.339  0.3915  0.0604  0.1430
30849DOD     C336368  25.788   5.077   7.885  0.2121 -0.0402 -0.2051
30850DOD     C136369  19.857  25.895  29.784  0.0351  0.2597  0.0838
30850DOD     C236370  19.962  26.155  30.111 -0.0711 -0.1808  0.0948
30850DOD     C336371  19.817  26.349   0.224  0.0649 -0.0797  0.1084
30851DOD     C136372  30.260  20.548  22.042  0.0216 -0.1288 -0.1829
30851DOD     C236373  30.332  20.387  21.615  0.0374 -0.2092 -0.1228
30851DOD     C336374  30.141  20.477  21.211  0.3579 -0.0748  0.0573
30852DOD     C136375  19.728  11.130  21.313  0.2481 -0.0172  0.0762
30852DOD     C236376  20.038  11.260  21.058  0.0281  0.0501  0.1007
30852DOD     C336377  20.211  11.238  20.632 -0.3513 -0.2216  0.1396
30853DOD     C136378  18.441   3.623  18.428 -0.0438  0.0410 -0.1255
30853DOD     C236379  18.162   3.775  18.092  0.3753 -0.0608 -0.0872
30853DOD     C336380  18.375   4.158  17.887  0.2008 -0.1571 -0.0751
30854DOD     C136381  16.521  23.826  10.647  0.0685 -0.3471  0.0830
30854DOD     C236382  16.146  23.555  10.611 -0.0502 -0.0138  0.1936
30854DOD     C336383  15.747  23.447  10.792  0.2152 -0.1517 -0.0642
30855DOD     C136384  15.474   6.482  25.880  0.1345 -0.2431  0.0212
30855DOD     C236385  15.539   6.602  26.302 -0.2652 -0.1304 -0.0681
30855DOD     C336386  15.894   6.712  26.595 -0.0787 -0.0426 -0.0624
30856DOD     C136387  17.069  20.824   1.171  0.2259 -0.1754  0.1427
30856DOD     C236388  16.860  20.431   1.233  0.0500 -0.1629  0.0767
30856DOD     C336389  16.756  19.979   1.294 -0.1077 -0.1640 -0.0402
30857DOD     C136390   4.989   7.269  20.183 -0.1380  0.2512  0.2110
30857DOD     C236391   4.915   6.905  19.871  0.0195 -0.0911 -0.4028
30857DOD     C336392   4.932   6.876  19.387 -0.0052  0.1796 -0.0562
30858DOD     C136393   8.247  19.663   9.851  0.0979  0.1935 -0.2528
30858DOD     C236394   8.216  19.910   9.481 -0.1042 -0.2906 -0.0271
30858DOD     C336395   8.078  20.373   9.426 -0.1495  0.0487 -0.0820
30859DOD     C136396  17.056   4.410   4.607 -0.2250  0.2030 -0.2719
30859DOD     C236397  17.234   4.119   4.965  0.0059 -0.0028  0.1975
30859DOD     C336398  17.151   3.928   5.374  0.1060 -0.0851 -0.2822
30860DOD     C136399  22.077  28.001   6.783  0.3075 -0.1629  0.2267
30860DOD     C236400  21.966  28.120   7.242 -0.3091 -0.1450  0.0091
30860DOD     C336401  21.742  27.821   7.517 -0.0483 -0.0801  0.4413
30861DOD     C136402   6.763  10.490  21.176 -0.0921  0.1780  0.1468
30861DOD     C236403   6.968  10.322  20.780  0.0633 -0.1989  0.2167
30861DOD     C336404   7.316  10.547  20.653 -0.3081 -0.4029  0.3625
30862DOD     C136405  14.272  15.925  29.789 -0.1433 -0.1733 -0.0911
30862DOD     C236406  13.852  16.166  29.792 -0.0929 -0.2737  0.0851
30862DOD     C336407  13.620  16.515  29.604  0.1655  0.1597  0.0522
30863DOD     C136408  27.390  17.797  23.525  0.1237  0.2124 -0.0961
30863DOD     C236409  27.108  18.126  23.428  0.0052  0.0575 -0.2600
30863DOD     C336410  27.199  18.464  23.115  0.1320  0.0545 -0.0450
30864DOD     C136411   8.059   7.115  24.812  0.1658 -0.1416 -0.2697
30864DOD     C236412   8.400   7.199  24.520 -0.0750  0.2873 -0.0722
30864DOD     C336413   8.715   7.087  24.193  0.0001 -0.1262 -0.0578
30865DOD     C136414   2.643  19.733  21.239  0.1464  0.3664 -0.2266
30865DOD     C236415   2.982  19.962  21.327 -0.0034 -0.2092  0.0162
30865DOD     C336416   2.992  20.414  21.375  0.0292 -0.0437  0.1221
30866DOD     C136417   4.932   2.134  14.377  0.0268 -0.0824  0.1044
30866DOD     C236418   4.973   2.580  14.477 -0.0270 -0.0583 -0.0231
30866DOD     C336419   4.885   2.920  14.197 -0.3318 -0.2180  0.3780
30867DOD     C136420  26.055  22.875   2.019 -0.0320  0.4576  0.0799
30867DOD     C236421  25.965  23.316   2.217 -0.0749  0.1264  0.2147
30867DOD     C336422  25.750  23.753   2.298  0.4004 -0.1172  0.4773
30868DOD     C136423   1.617   6.832  16.917 -0.1042  0.0881 -0.0786
30868DOD     C236424   1.754   7.183  16.746  0.1651 -0.0359 -0.0542
30868DOD     C336425   1.929   7.637  16.635 -0.0511 -0.1372  0.0589
30869DOD     C136426   4.569   7.996  12.419  0.2238 -0.3251 -0.2623
30869DOD     C236427   4.937   7.903  12.683 -0.1984 -0.0380 -0.0280
30869DOD     C336428   5.320   7.806  12.905 -0.1736  0.0083 -0.0431
30870DOD     C136429  10.997  17.413  12.079 -0.1435 -0.0358 -0.1304
30870DOD     C236430  10.783  17.370  11.709  0.0186 -0.1029 -0.1626
30870DOD     C336431  10.623  17.759  11.500 -0.0691  0.0260  0.1034
30871DOD     C136432   0.559   6.178  26.865 -0.1284 -0.0134  0.1300
30871DOD     C236433   0.459   6.033  27.301  0.0063  0.0774  0.0402
30871DOD     C336434   0.103   6.054  27.616 -0.1536 -0.1688 -0.1736
30872DOD     C136435  14.232   9.190   8.445  0.1819  0.1939 -0.1581
30872DOD     C236436  13.818   9.260   8.752  0.0876  0.1606 -0.1079
30872DOD     C336437  13.373   9.442   8.914 -0.0298  0.2071  0.4320
30873DOD     C136438   7.744  15.377  19.091  0.0362 -0.1453 -0.1512
30873DOD     C236439   8.147  15.656  19.108  0.0661 -0.0597  0.2653
30873DOD     C336440   8.339  16.047  19.357  0.0059  0.0046  0.0944
30874DOD     C136441  20.081  12.695   6.845  0.1330 -0.0186  0.2467
30874DOD     C236442  20.097  12.223   6.763  0.1648  0.2257 -0.4014
30874DOD     C336443  19.937  11.814   6.703  0.0291  0.1121 -0.0509
30875DOD     C136444  27.036   1.480  28.473 -0.1692  0.0393  0.4484
30875DOD     C236445  26.836   1.107  28.618  0.1736  0.1595 -0.2612
30875DOD     C336446  26.558   0.723  28.706  0.0473 -0.0749  0.0710
30876DOD     C136447  27.483  28.630  21.336 -0.1698  0.2574  0.0584
30876DOD     C236448  27.617  29.038  21.422  0.0634  0.1466 -0.0349
30876DOD     C336449  27.826  29.417  21.403  0.1431 -0.3181 -0.2098
30877DOD     C136450  13.458   0.611   4.751  0.1645 -0.1628 -0.2778
30877DOD     C236451  13.735   0.841   5.020 -0.1151 -0.2288 -0.0357
30877DOD     C336452  13.830   1.309   5.077 -0.0859  0.1442  0.1989
30878DOD     C136453   7.012  12.207   5.532  0.0798 -0.4700  0.2529
30878DOD     C236454   6.924  12.014   5.078  0.0586  0.0788 -0.2238
30878DOD     C336455   7.178  11.782   4.753  0.2306 -0.1169  0.0886
30879DOD     C136456  13.530  24.927  11.236  0.1382 -0.0581  0.2655
30879DOD     C236457  13.385  25.182  10.934  0.1155  0.2365  0.0865
30879DOD     C336458  13.247  25.560  10.707  0.0840  0.1145 -0.1735
30880DOD     C136459  13.676   2.511   4.450 -0.1722  0.2782  0.1796
30880DOD     C236460  13.373   2.207   4.279 -0.1066 -0.0183 -0.0768
30880DOD     C336461  13.130   2.152   3.883 -0.0846 -0.0262  0.2988
30881DOD     C136462   8.244   7.215  18.953 -0.1603  0.3345 -0.0382
30881DOD     C236463   7.958   7.347  19.298  0.0887  0.2802 -0.2485
30881DOD     C336464   7.730   7.574  19.606  0.1445 -0.0193 -0.0472
30882DOD     C136465   4.358   2.509   9.597  0.1605  0.0272  0.0773
30882DOD     C236466   4.220   2.637   9.970  0.0438  0.3345 -0.1757
30882DOD     C336467   3.955   2.469  10.272 -0.3924  0.0437  0.0974
30883DOD     C136468  15.235  20.445   0.600 -0.3372 -0.2510  0.1112
30883DOD     C236469  14.767  20.337   0.522 -0.0148 -0.0778 -0.1953
30883DOD     C336470  14.356  20.087   0.345 -0.0896 -0.1804  0.0119
30884DOD     C136471   3.870  20.614  24.451 -0.1697  0.0994 -0.0533
30884DOD     C236472   4.048  20.282  24.760  0.1602 -0.1165  0.0359
30884DOD     C336473   4.027  20.039  25.110 -0.1640  0.0501 -0.0061
30885DOD     C136474  12.069   1.034  15.511 -0.1419  0.1268 -0.3085
30885DOD     C236475  12.080   0.560  15.519  0.2354 -0.1683 -0.1352
30885DOD     C336476  11.835   0.165  15.556  0.1536 -0.1402 -0.1434
30886DOD     C136477   2.405  18.163  22.479  0.0450 -0.1794  0.1690
30886DOD     C236478   2.696  18.488  22.276 -0.3346 -0.1308  0.1454
30886DOD     C336479   3.019  18.564  21.944  0.2313  0.1433  0.4075
30887DOD     C136480   2.762  27.805   3.768  0.0452  0.3222 -0.3124
30887DOD     C236481   2.960  27.426   3.935  0.0577 -0.0709 -0.5646
30887DOD     C336482   3.127  27.199   4.314  0.3629  0.0658  0.1683
30888DOD     C136483  11.049  11.715   4.047 -0.0056 -0.0732 -0.2223
30888DOD     C236484  10.785  11.393   4.269  0.0226 -0.1742 -0.2226
30888DOD     C336485  10.446  11.106   4.106 -0.2344  0.1879  0.1335
30889DOD     C136486   6.098  19.106  21.075  0.1610 -0.1213 -0.1463
30889DOD     C236487   6.208  19.035  20.645 -0.0043  0.2405 -0.4160
30889DOD     C336488   6.347  18.804  20.300  0.1447 -0.1658  0.1937
30890DOD     C136489   2.474  11.540  23.185  0.2819 -0.0774 -0.0490
30890DOD     C236490   2.221  11.913  23.170 -0.1183 -0.2160  0.2188
30890DOD     C336491   1.774  11.952  23.114  0.0184  0.0865  0.1082
30891DOD     C136492  10.656   2.557   5.852 -0.0124  0.1129 -0.1866
30891DOD     C236493  11.021   2.560   5.619 -0.1050 -0.0034  0.1139
30891DOD     C336494  11.483   2.725   5.664 -0.0102 -0.4086 -0.2033
30892DOD     C136495   8.899  10.768  13.949 -0.1703  0.0814  0.1972
30892DOD     C236496   9.037  11.030  14.366  0.2190 -0.2704  0.1998
30892DOD     C336497   9.130  10.990  14.811 -0.1000 -0.2135  0.1175
30893DOD     C136498   0.547  20.375  27.068  0.1348  0.2288 -0.2379
30893DOD     C236499   0.131  20.128  27.190  0.0367 -0.0669  0.0004
30893DOD     C336500  29.964  20.220  27.308  0.0130  0.2939 -0.0689
30894DOD     C136501   9.660  12.191   8.543  0.1240  0.1516  0.1947
30894DOD     C236502   9.373  12.445   8.257 -0.1430 -0.2767  0.1939
30894DOD     C336503   9.030  12.354   7.910 -0.1066 -0.1811  0.3954
30895DOD     C136504   3.905   2.883  18.819 -0.0445 -0.3004 -0.2324
30895DOD     C236505   4.167   2.561  18.580  0.2801  0.0369 -0.1098
30895DOD     C336506   4.269   2.336  18.173  0.4348 -0.1837  0.1455
30896DOD     C136507  25.437  20.006   8.050  0.1313  0.1660 -0.4414
30896DOD     C236508  25.697  19.684   8.261 -0.0477 -0.2558  0.1443
30896DOD     C336509  25.772  19.308   8.123 -0.2559 -0.0367 -0.1246
30897DOD     C136510  11.667  23.120  21.827 -0.1669 -0.3384 -0.0282
30897DOD     C236511  11.826  22.829  22.153 -0.0336  0.1620 -0.3478
30897DOD     C336512  11.916  22.536  22.499  0.0989 -0.1696  0.0472
30898DOD     C136513  30.278  17.504   5.114 -0.1320 -0.3281  0.2264
30898DOD     C236514  30.065  17.071   4.931 -0.1131 -0.0270  0.1255
30898DOD     C336515  29.722  16.763   4.778  0.1553 -0.0286  0.0343
30899DOD     C136516  30.298   3.156  26.287 -0.0107 -0.0206 -0.0234
30899DOD     C236517  30.137   3.573  26.316  0.0710 -0.0928 -0.1531
30899DOD     C336518  30.308   3.953  26.163 -0.0128 -0.2223  0.2482
30900DOD     C136519  10.545  29.572  25.070  0.1181  0.1404  0.1115
30900DOD     C236520  10.728  29.840  25.361 -0.1773  0.0167  0.1828
30900DOD     C336521  11.103  30.144  25.436  0.1494  0.1855 -0.1410
30901DOD     C136522   2.794  16.345  11.504  0.0968 -0.1308 -0.3196
30901DOD     C236523   2.565  16.623  11.263 -0.2736  0.0382 -0.0265
30901DOD     C336524   2.183  16.586  10.977  0.0142 -0.2561 -0.0164
30902DOD     C136525  12.329  26.875  -0.042 -0.0222 -0.0633 -0.3363
30902DOD     C236526  12.007  26.514  30.126  0.2825 -0.1337  0.1514
30902DOD     C336527  11.731  26.152  30.041  0.0809  0.0310  0.1597
30903DOD     C136528  13.154   0.654   6.586 -0.1024  0.3938 -0.0933
30903DOD     C236529  12.983   0.302   6.357  0.2460  0.0502  0.0427
30903DOD     C336530  12.690   0.234   5.975  0.1593  0.0073 -0.0969
30904DOD     C136531   1.881  27.722  25.823  0.0439 -0.3350 -0.2309
30904DOD     C236532   1.444  27.847  25.770 -0.1255  0.0292  0.1455
30904DOD     C336533   0.994  27.967  25.876 -0.0089 -0.0348  0.1694
30905DOD     C136534  13.212  21.071   7.277  0.1566  0.2364  0.1850
30905DOD     C236535  13.264  20.780   7.618  0.1484  0.0834 -0.1630
30905DOD     C336536  13.564  20.727   7.993 -0.2138 -0.2390  0.0937
30906DOD     C136537  28.111  27.812  17.811 -0.1966  0.3492  0.0215
30906DOD     C236538  28.496  27.979  17.999  0.0294  0.1749 -0.0170
30906DOD     C336539  28.677  28.336  18.166 -0.0802  0.1982  0.2271
30907DOD     C136540  16.518   0.287   3.711 -0.0400  0.2980 -0.2542
30907DOD     C236541  16.518  30.187   3.518  0.0863 -0.1000 -0.0172
30907DOD     C336542  16.849  29.884   3.293  0.0601  0.4029 -0.0224
30908DOD     C136543   2.293  21.085  30.111  0.0321  0.1203  0.1703
30908DOD     C236544   2.126  21.034   0.175 -0.2755  0.0548 -0.1500
30908DOD     C336545   2.258  20.823   0.558 -0.0358  0.2786  0.0301
30909DOD     C136546  10.121   5.524   7.560  0.0203 -0.0870  0.0260
30909DOD     C236547   9.831   5.264   7.403 -0.2122 -0.0659  0.1349
30909DOD     C336548   9.880   5.026   7.011 -0.6719  0.0579  0.1251
30910DOD     C136549   4.042  15.338   1.566 -0.1912  0.0282 -0.0094
30910DOD     C236550   3.876  15.288   2.039 -0.0260  0.3973 -0.1003
30910DOD     C336551   3.538  15.495   2.251  0.0944 -0.0670 -0.0534
30911DOD     C136552  12.837   1.050  17.837  0.2703  0.1727 -0.1598
30911DOD     C236553  13.085   1.312  17.551  0.0603  0.0028  0.0005
30911DOD     C336554  13.334   1.433  17.140  0.1379 -0.0839 -0.0229
30912DOD     C136555   9.094  18.407  11.034  0.3632 -0.0185 -0.0538
30912DOD     C236556   9.283  18.791  11.158  0.2388 -0.4369 -0.0771
30912DOD     C336557   9.731  18.835  11.055  0.0905  0.0864 -0.1619
30913DOD     C136558  25.542  28.402  11.231 -0.1216 -0.0610  0.1109
30913DOD     C236559  26.003  28.534  11.397  0.0728 -0.2093 -0.1282
30913DOD     C336560  26.369  28.480  11.687  0.0074  0.0674 -0.0584
30914DOD     C136561  15.632  15.630   0.792  0.1931 -0.0234  0.1281
30914DOD     C236562  15.207  15.483   0.910  0.1552  0.0873  0.2027
30914DOD     C336563  15.062  15.070   1.046  0.0833  0.0867  0.1386
30915DOD     C136564   5.441  26.332   7.381  0.0372  0.4605 -0.3402
30915DOD     C236565   5.430  25.900   7.424 -0.1492  0.3129 -0.0372
30915DOD     C336566   5.474  25.428   7.273 -0.1506  0.1570  0.2235
30916DOD     C136567   6.666  26.906   9.802  0.3782  0.0907  0.2334
30916DOD     C236568   6.248  27.117   9.852  0.2219  0.1910 -0.3078
30916DOD     C336569   5.829  27.368   9.783  0.0873 -0.1213 -0.0669
30917DOD     C136570   1.863  27.909  17.750  0.1789 -0.0607  0.2832
30917DOD     C236571   2.068  27.722  17.366 -0.3012  0.3064 -0.0525
30917DOD     C336572   1.946  27.376  17.068 -0.1955  0.0311 -0.0946
30918DOD     C136573   7.409  18.891  14.826  0.0123 -0.2207  0.0449
30918DOD     C236574   7.793  18.738  15.047 -0.1183 -0.1782  0.1705
30918DOD     C336575   8.048  18.350  14.852 -0.3664  0.0386 -0.0360
30919DOD     C136576   7.921  23.103  12.098  0.0463 -0.0055  0.1073
30919DOD     C236577   7.868  23.478  11.871 -0.0293 -0.1153 -0.0456
30919DOD     C336578   7.901  23.735  11.496 -0.1058 -0.0079  0.1233
30920DOD     C136579  22.956  30.362   3.965  0.2141  0.2460 -0.1133
30920DOD     C236580  22.687  30.246   3.560  0.0012 -0.0966 -0.2041
30920DOD     C336581  22.581  30.135   3.181  0.0661  0.2199  0.0177
30921DOD     C136582  27.380   4.603  26.016 -0.0515 -0.2063  0.0858
30921DOD     C236583  27.534   4.904  26.309 -0.1037 -0.1574 -0.1850
30921DOD     C336584  27.552   5.417  26.406  0.1501  0.1871  0.0423
30922DOD     C136585  20.167  22.475   1.462  0.1114 -0.1474 -0.1091
30922DOD     C236586  20.022  22.322   1.876  0.0835  0.0195  0.0617
30922DOD     C336587  19.705  21.974   2.031  0.0374 -0.0975  0.0908
30923DOD     C136588   7.568  21.909   3.187  0.3498  0.0580  0.0543
30923DOD     C236589   8.065  22.010   3.232  0.1905 -0.1204 -0.1235
30923DOD     C336590   8.439  22.165   3.421 -0.0507 -0.1863  0.0353
30924DOD     C136591   4.856   5.172  20.924  0.1571 -0.2644  0.3607
30924DOD     C236592   4.811   5.249  20.441 -0.1491 -0.0501 -0.0939
30924DOD     C336593   4.872   5.367  20.045  0.0811 -0.0467  0.2992
30925DOD     C136594  25.534  16.282  23.900  0.2629  0.1046  0.1633
30925DOD     C236595  25.662  15.988  24.257  0.0899  0.2364  0.0763
30925DOD     C336596  25.590  15.544  24.509  0.3989 -0.0819 -0.2156
30926DOD     C136597  21.552  12.938  29.353  0.0178 -0.0430  0.0127
30926DOD     C236598  21.792  13.265  29.536 -0.4312 -0.2096  0.1617
30926DOD     C336599  22.051  13.468  29.820  0.0188 -0.1820 -0.4283
30927DOD     C136600   2.584   5.675   1.272 -0.1067 -0.2198  0.1291
30927DOD     C236601   2.998   5.893   1.421 -0.3534 -0.0318 -0.2938
30927DOD     C336602   3.354   6.158   1.453  0.2246 -0.0075 -0.2243
30928DOD     C136603  28.793   1.505  19.043 -0.1399 -0.1318 -0.1778
30928DOD     C236604  28.758   1.977  18.943  0.3009 -0.4225  0.1181
30928DOD     C336605  28.484   2.299  18.818 -0.1072  0.1337  0.1403
30929DOD     C136606   2.924  28.723   5.106  0.0065  0.1246 -0.0016
30929DOD     C236607   2.681  28.593   4.721 -0.0425 -0.0429 -0.0185
30929DOD     C336608   2.450  28.386   4.403  0.0585  0.0615 -0.1046
30930DOD     C136609  18.841  16.601   2.688  0.1495 -0.1078  0.1796
30930DOD     C236610  18.803  16.158   2.579  0.0305  0.1742 -0.1981
30930DOD     C336611  18.372  15.978   2.613 -0.1127  0.0294  0.2299
30931DOD     C136612  12.408  10.875  28.244 -0.0764 -0.2030 -0.2223
30931DOD     C236613  12.628  10.476  28.363  0.0729  0.2615  0.2152
30931DOD     C336614  12.712  10.048  28.513  0.0747  0.0379  0.2393
30932DOD     C136615  29.075  24.492  29.218  0.0447 -0.0223 -0.2717
30932DOD     C236616  29.292  24.415  28.781 -0.0138 -0.0999 -0.0765
30932DOD     C336617  29.683  24.340  28.477 -0.1390 -0.0681  0.0314
30933DOD     C136618   4.779   3.740  18.020  0.4577  0.1152 -0.0910
30933DOD     C236619   4.710   3.700  17.591  0.2689  0.0361  0.2323
30933DOD     C336620   4.984   3.595  17.205  0.1628 -0.2514  0.1477
30934DOD     C136621  12.141  10.500   9.562  0.0958 -0.0389  0.2153
30934DOD     C236622  12.226  10.845   9.352  0.2109 -0.0511 -0.0630
30934DOD     C336623  11.897  11.154   9.185  0.1155  0.1634 -0.2069
30935DOD     C136624  27.296  18.660  11.290  0.1984 -0.2175  0.1315
30935DOD     C236625  27.148  18.222  11.247  0.1009  0.0307 -0.2169
30935DOD     C336626  26.776  17.989  11.251 -0.1227 -0.0419  0.2165
30936DOD     C136627  10.041   3.752   9.686 -0.2615 -0.0676  0.0676
30936DOD     C236628   9.735   4.006   9.405 -0.0759  0.1061 -0.0504
30936DOD     C336629   9.306   4.041   9.231  0.5232  0.1840  0.0079
30937DOD     C136630  12.782  12.968   8.327  0.1513  0.1346 -0.0198
30937DOD     C236631  12.327  13.001   8.444 -0.0470  0.0536 -0.1004
30937DOD     C336632  11.843  13.026   8.377  0.2662  0.4854 -0.1225
30938DOD     C136633  28.970  17.204  10.067  0.0447 -0.0778 -0.1635
30938DOD     C236634  28.668  17.410   9.735 -0.1673  0.1157  0.0437
30938DOD     C336635  28.232  17.512   9.575 -0.0716  0.2307  0.1094
30939DOD     C136636  24.936   1.877  18.903 -0.0728  0.0824  0.0643
30939DOD     C236637  25.098   1.434  18.953 -0.0918  0.1416 -0.1348
30939DOD     C336638  25.124   1.039  18.666  0.3472 -0.2425 -0.2401
30940DOD     C136639  28.978   9.692   7.930  0.1347 -0.1102  0.0531
30940DOD     C236640  28.846  10.120   7.865 -0.1928  0.2091  0.1595
30940DOD     C336641  28.614  10.253   8.161 -0.1801 -0.2609 -0.1604
30941DOD     C136642  30.132  24.607  29.795 -0.1984 -0.2278  0.0321
30941DOD     C236643  29.856  24.955  29.985 -0.2464 -0.1152 -0.1380
30941DOD     C336644  29.486  25.031  30.154  0.6482 -0.0196 -0.0448
30942DOD     C136645  27.531  26.701  19.679  0.0079 -0.5212 -0.3025
30942DOD     C236646  27.721  26.510  20.075 -0.1121  0.2483 -0.1922
30942DOD     C336647  28.163  26.360  20.153 -0.0054  0.3104  0.0513
30943DOD     C136648   2.950  22.033  22.698 -0.3347 -0.1661 -0.0549
30943DOD     C236649   2.744  22.483  22.797 -0.1562  0.0342 -0.2490
30943DOD     C336650   2.757  22.945  22.566 -0.1507  0.0481  0.0198
30944DOD     C136651  29.170  16.602  26.359 -0.0565 -0.0559 -0.0240
30944DOD     C236652  28.884  16.204  26.379  0.1352  0.0765 -0.0706
30944DOD     C336653  28.608  16.016  26.744  0.0069  0.2681  0.2220
30945DOD     C136654  16.535  29.819   5.619 -0.0913  0.3043 -0.0616
30945DOD     C236655  16.479  29.457   5.330 -0.0832 -0.0718 -0.0943
30945DOD     C336656  16.137  29.387   5.032  0.1274  0.3177 -0.0244
30946DOD     C136657  19.869  17.619  24.007  0.1087  0.1527 -0.0693
30946DOD     C236658  19.865  18.039  23.783 -0.0369  0.0989  0.0928
30946DOD     C336659  19.954  18.476  23.733 -0.1565  0.1197  0.3764
30947DOD     C136660  12.906  13.834  27.639 -0.2073  0.0765  0.0625
30947DOD     C236661  12.779  13.517  27.376 -0.1787 -0.1303 -0.0412
30947DOD     C336662  12.682  13.042  27.206  0.2125  0.1543 -0.1453
30948DOD     C136663  22.712  24.377  20.747 -0.1207  0.0767  0.3494
30948DOD     C236664  22.453  24.466  20.353  0.3262 -0.0599  0.1189
30948DOD     C336665  22.413  24.474  19.951 -0.1259  0.2597 -0.4079
30949DOD     C136666  12.080   8.449  25.098 -0.0746  0.0825  0.0731
30949DOD     C236667  11.657   8.401  24.974  0.2455 -0.0652  0.0331
30949DOD     C336668  11.235   8.297  24.748  0.1058  0.0834  0.3722
30950DOD     C136669  17.231  24.206  15.077 -0.1764  0.1456  0.1140
30950DOD     C236670  16.848  24.068  15.339  0.2259  0.0758  0.1539
30950DOD     C336671  16.632  23.906  15.700 -0.1239  0.2398 -0.1912
30951DOD     C136672  12.948  27.928   1.021 -0.0446 -0.1775  0.0365
30951DOD     C236673  12.646  27.603   1.151  0.2877  0.0607  0.1171
30951DOD     C336674  12.608  27.209   1.403 -0.1119 -0.2986  0.2210
30952DOD     C136675   5.853  25.310  18.545  0.0712  0.1013  0.0735
30952DOD     C236676   6.317  25.347  18.606  0.1993  0.0907  0.1003
30952DOD     C336677   6.597  25.639  18.885 -0.0481 -0.5725 -0.0271
30953DOD     C136678  18.265  23.006   1.244  0.1297  0.2853 -0.0713
30953DOD     C236679  18.220  23.457   1.125 -0.1265 -0.0737 -0.0241
30953DOD     C336680  18.310  23.847   1.102  0.1532 -0.0507 -0.1299
30954DOD     C136681  20.490   6.536  21.834  0.2534 -0.0670  0.0751
30954DOD     C236682  20.853   6.684  21.901 -0.1459 -0.0826 -0.1246
30954DOD     C336683  21.104   7.011  22.147 -0.1203 -0.2048 -0.0565
30955DOD     C136684  19.377  15.259  29.504  0.0283 -0.1660 -0.0067
30955DOD     C236685  19.334  14.782  29.404 -0.0867 -0.0836 -0.1336
30955DOD     C336686  19.583  14.391  29.250  0.0355  0.2111 -0.0139
30956DOD     C136687  30.005  11.997  28.958  0.0144 -0.1459 -0.1111
30956DOD     C236688  29.590  11.894  28.852 -0.0223  0.0232  0.0674
30956DOD     C336689  29.340  11.508  28.837  0.2285 -0.4470 -0.3016
30957DOD     C136690  16.496  20.034  19.211 -0.0503  0.0656  0.2115
30957DOD     C236691  16.869  19.783  19.100 -0.0572  0.1765  0.2016
30957DOD     C336692  17.336  19.769  19.223 -0.1821  0.3501  0.1344
30958DOD     C136693   4.445  13.797   2.479  0.0066  0.3138 -0.1102
30958DOD     C236694   4.886  13.884   2.365  0.0673  0.1789  0.3480
30958DOD     C336695   5.069  14.156   2.029 -0.0292 -0.0864 -0.1055
30959DOD     C136696  29.418  18.033  26.838  0.2192  0.0280 -0.1248
30959DOD     C236697  29.782  17.933  27.164 -0.0492 -0.2506 -0.0955
30959DOD     C336698  29.958  18.112  27.552  0.0580  0.0005 -0.1054
30960DOD     C136699  11.708  18.190   8.611  0.0245  0.0431  0.2033
30960DOD     C236700  12.170  18.036   8.494 -0.0992  0.5506  0.2890
30960DOD     C336701  12.609  17.890   8.573  0.0767 -0.2158 -0.2874
30961DOD     C136702   0.855  22.548  19.631 -0.2179 -0.1423 -0.2748
30961DOD     C236703   0.867  22.755  19.184  0.2180  0.1904  0.0725
30961DOD     C336704   0.950  22.877  18.732 -0.0241  0.4462 -0.1549
30962DOD     C136705  14.417   4.015  18.946 -0.1578 -0.1334 -0.1729
30962DOD     C236706  13.976   4.110  19.116 -0.1401 -0.0891  0.2430
30962DOD     C336707  13.555   4.128  19.361  0.0483 -0.2176  0.0882
30963DOD     C136708   5.962  12.304   9.190  0.0790 -0.0103  0.1193
30963DOD     C236709   5.617  12.089   9.334 -0.0120 -0.0615 -0.0720
30963DOD     C336710   5.236  11.846   9.159  0.2920  0.1634  0.0405
30964DOD     C136711  16.485   2.668  23.386  0.2554 -0.0841  0.0992
30964DOD     C236712  16.504   2.489  22.953 -0.1273  0.0059 -0.0157
30964DOD     C336713  16.180   2.532  22.623 -0.3255 -0.0922  0.2490
30965DOD     C136714  16.901  19.825   7.549 -0.0833  0.0252 -0.0896
30965DOD     C236715  17.228  19.877   7.188 -0.0441 -0.2415  0.0784
30965DOD     C336716  17.500  19.575   7.043 -0.2051 -0.3913 -0.1114
30966DOD     C136717   1.851   8.806   7.024  0.0576 -0.1806 -0.1791
30966DOD     C236718   1.435   8.684   7.129  0.1082 -0.2286  0.2323
30966DOD     C336719   1.054   8.580   6.902  0.0229 -0.0394 -0.0281
30967DOD     C136720   3.426   8.143   0.380  0.4379  0.1503  0.0583
30967DOD     C236721   3.597   7.735   0.517 -0.0039  0.1077 -0.0479
30967DOD     C336722   3.906   7.395   0.538  0.1237 -0.1339  0.2120
30968DOD     C136723  19.817  13.818  25.441 -0.1264 -0.1669  0.4289
30968DOD     C236724  20.079  14.148  25.417 -0.4396 -0.2848  0.2177
30968DOD     C336725  20.455  14.139  25.655 -0.1257 -0.0594 -0.0057
30969DOD     C136726   2.863  13.361  22.335  0.0487 -0.1536  0.1418
30969DOD     C236727   2.478  13.616  22.476 -0.0943 -0.0020  0.0049
30969DOD     C336728   2.001  13.698  22.439 -0.1152 -0.2030  0.0086
30970DOD     C136729   0.289  14.518  14.137  0.0990 -0.0828 -0.1188
30970DOD     C236730   0.092  14.890  14.184  0.1867 -0.1336  0.1061
30970DOD     C336731  30.169  15.092  14.544 -0.3036  0.0071  0.1627
30971DOD     C136732  22.161  19.537   3.235  0.1238  0.1056  0.2030
30971DOD     C236733  21.794  19.319   3.300  0.1963 -0.1511 -0.0152
30971DOD     C336734  21.403  19.047   3.235 -0.0928 -0.2782 -0.0103
30972DOD     C136735  27.555  16.498   3.792  0.1557  0.0484 -0.0782
30972DOD     C236736  27.932  16.333   3.567  0.1540  0.1285  0.3842
30972DOD     C336737  28.177  15.912   3.585 -0.0026 -0.2813  0.1155
30973DOD     C136738   3.447   6.753   6.718  0.2179 -0.1891  0.1381
30973DOD     C236739   3.247   7.104   6.920 -0.1818  0.2101  0.0072
30973DOD     C336740   3.223   7.556   6.991 -0.0446 -0.0014  0.0125
30974DOD     C136741  20.189  23.477  19.409  0.3228 -0.0065 -0.1325
30974DOD     C236742  20.392  23.768  19.658 -0.3632 -0.0931  0.0705
30974DOD     C336743  20.462  23.936  20.163 -0.2160  0.1114 -0.1205
30975DOD     C136744  21.409   0.637   4.059 -0.0105 -0.0419  0.1306
30975DOD     C236745  21.167   0.326   3.846  0.1620 -0.1131  0.0351
30975DOD     C336746  21.075  30.173   3.827 -0.1095 -0.4376 -0.0784
30976DOD     C136747  17.372  24.081  25.915 -0.1227 -0.0776  0.0365
30976DOD     C236748  17.436  24.506  25.788  0.0417 -0.2107  0.0555
30976DOD     C336749  17.865  24.698  25.660  0.2382 -0.3887 -0.2333
30977DOD     C136750   1.857  13.673  14.313 -0.4762  0.1334 -0.0441
30977DOD     C236751   2.125  14.076  14.362  0.1252  0.2222 -0.1258
30977DOD     C336752   2.513  14.383  14.416  0.1118  0.1890 -0.0268
30978DOD     C136753  11.112  21.092   6.946 -0.2692  0.0505 -0.2614
30978DOD     C236754  10.934  21.420   7.168 -0.1510  0.0219 -0.2991
30978DOD     C336755  10.658  21.764   7.342  0.0078 -0.2447 -0.2318
30979DOD     C136756  18.184   2.395   7.484  0.0072  0.0241 -0.3151
30979DOD     C236757  18.560   2.082   7.498  0.0833  0.1290  0.5736
30979DOD     C336758  18.907   1.793   7.479  0.2612 -0.1684  0.2813
30980DOD     C136759  22.965  24.041  26.310 -0.0262 -0.0086 -0.1344
30980DOD     C236760  22.897  23.614  26.081 -0.2454 -0.2657  0.2856
30980DOD     C336761  23.176  23.249  25.993 -0.1278 -0.0071 -0.0495
30981DOD     C136762  18.442   5.974  16.812  0.0644 -0.0547  0.2640
30981DOD     C236763  18.494   6.417  16.751  0.1453 -0.4531 -0.0396
30981DOD     C336764  18.682   6.857  16.850  0.1262 -0.0769  0.0679
30982DOD     C136765  12.787   2.406  16.064 -0.1248  0.3737  0.2699
30982DOD     C236766  13.040   2.824  16.017 -0.2840 -0.0856 -0.0039
30982DOD     C336767  13.448   3.023  16.101  0.0189  0.2595  0.2183
30983DOD     C136768  18.897  14.670  17.519  0.0254 -0.0919  0.0342
30983DOD     C236769  18.684  14.279  17.488  0.1540  0.1342  0.2132
30983DOD     C336770  18.424  13.886  17.614 -0.1716 -0.3167  0.2002
30984DOD     C136771  17.255  15.593   0.597 -0.2069 -0.3388 -0.1929
30984DOD     C236772  17.663  15.878   0.652 -0.2273  0.1393 -0.6747
30984DOD     C336773  17.856  16.253   0.750 -0.0252  0.1916  0.0505
30985DOD     C136774  10.023  30.261   4.484  0.0022  0.1121  0.3029
30985DOD     C236775  10.044  30.018   4.071  0.0846 -0.2131  0.1674
30985DOD     C336776  10.105  29.757   3.650 -0.4310  0.0554 -0.2556
30986DOD     C136777  17.617   0.028  22.948  0.0567  0.0485  0.1617
30986DOD     C236778  17.541  30.247  23.363  0.1830  0.0304 -0.1373
30986DOD     C336779  17.386  30.338  23.791 -0.1036  0.0711  0.2303
30987DOD     C136780   5.483   6.027  16.733  0.0583 -0.2433 -0.2356
30987DOD     C236781   5.693   6.331  16.996  0.3471 -0.2064  0.1277
30987DOD     C336782   5.958   6.393  17.377  0.3677  0.0125 -0.2833
30988DOD     C136783  24.050  25.369  13.307 -0.1045  0.2500  0.0935
30988DOD     C236784  24.097  25.734  13.542 -0.1252  0.2688 -0.2650
30988DOD     C336785  24.182  26.040  13.914  0.2583  0.0784 -0.0511
30989DOD     C136786   3.505  10.897   2.234  0.3816  0.0841  0.3121
30989DOD     C236787   3.513  10.485   2.332 -0.3091  0.3192  0.0724
30989DOD     C336788   3.576  10.020   2.432 -0.2271 -0.2121  0.3321
30990DOD     C136789  25.124  21.877  17.073  0.0056 -0.3301 -0.0163
30990DOD     C236790  25.535  21.930  16.910  0.2021  0.0553 -0.1727
30990DOD     C336791  25.909  21.689  17.065  0.1276  0.1540 -0.0617
30991DOD     C136792  11.259  16.305   3.982  0.1132 -0.1881 -0.3074
30991DOD     C236793  11.686  16.498   4.128  0.0701  0.1597  0.0195
30991DOD     C336794  12.175  16.521   4.314 -0.1656  0.2110  0.1537
30992DOD     C136795   7.037   9.995  10.452 -0.0935  0.1127  0.0134
30992DOD     C236796   7.310   9.635  10.440 -0.1622  0.0554  0.4088
30992DOD     C336797   7.770   9.587  10.416 -0.0370 -0.1865  0.0169
30993DOD     C136798  26.477  26.979   9.258 -0.3991 -0.1345  0.3101
30993DOD     C236799  26.178  26.589   9.109  0.1700 -0.2022 -0.2270
30993DOD     C336800  25.815  26.268   9.230 -0.2726 -0.1736  0.1942
30994DOD     C136801  13.648   0.391  20.547 -0.0385  0.2737  0.0297
30994DOD     C236802  13.888   0.827  20.554 -0.0584 -0.2870  0.0952
30994DOD     C336803  13.723   1.210  20.585  0.2121 -0.1125 -0.0298
30995DOD     C136804  20.538   4.957  24.174  0.0609  0.2076 -0.2077
30995DOD     C236805  20.484   5.372  24.326 -0.0939  0.0221 -0.1658
30995DOD     C336806  20.475   5.809  24.538 -0.4524 -0.0469 -0.1269
30996DOD     C136807  26.034  14.998   5.409  0.1913 -0.3800 -0.0472
30996DOD     C236808  26.068  15.302   5.704 -0.2574 -0.1296  0.0378
30996DOD     C336809  26.239  15.731   5.782  0.3676 -0.4226 -0.2650
30997DOD     C136810  12.926  26.711  15.133 -0.4808 -0.1250 -0.1691
30997DOD     C236811  12.778  26.308  15.366  0.1161  0.1949 -0.0228
30997DOD     C336812  12.857  25.840  15.344 -0.0151 -0.3838 -0.0542
30998DOD     C136813  27.405  13.606   4.342 -0.1154 -0.0414 -0.1676
30998DOD     C236814  27.007  13.857   4.190  0.3183 -0.0423  0.0816
30998DOD     C336815  26.776  14.186   3.991 -0.2293 -0.1720 -0.1034
30999DOD     C136816  25.921  21.829   1.053 -0.1420  0.1115 -0.3048
30999DOD     C236817  25.682  22.235   1.155 -0.0442  0.0170 -0.1574
30999DOD     C336818  25.584  22.584   0.823 -0.1454 -0.0090  0.2137
31000DOD     C136819  10.106  23.580  13.334  0.3840  0.2225 -0.1497
31000DOD     C236820  10.412  23.334  13.116 -0.1472  0.1205  0.1783
31000DOD     C336821  10.614  23.133  12.752  0.2886  0.0856 -0.0408
31001DOD     C136822  27.780  13.147   0.339 -0.1444 -0.0670 -0.2468
31001DOD     C236823  27.462  12.842   0.497  0.0614  0.0639 -0.1895
31001DOD     C336824  27.016  12.758   0.638 -0.3426  0.2279 -0.0862
31002DOD     C136825   9.438   0.398   4.272  0.1892  0.1968  0.2142
31002DOD     C236826   8.997   0.467   4.490 -0.0215 -0.1099  0.1303
31002DOD     C336827   8.603   0.558   4.729  0.1405  0.4527 -0.0954
31003DOD     C136828   9.269   8.158   4.929  0.0772 -0.0462  0.2910
31003DOD     C236829   9.502   8.565   4.988  0.0464  0.1891  0.0639
31003DOD     C336830   9.904   8.799   5.007  0.3154  0.1705  0.0582
31004DOD     C136831  19.437   2.697  10.163  0.0293 -0.0956 -0.0750
31004DOD     C236832  19.070   2.873   9.974  0.1208  0.2179  0.0258
31004DOD     C336833  18.672   2.924   9.726  0.0597 -0.2989  0.2200
31005DOD     C136834  16.349   5.348  20.722 -0.2275 -0.0890  0.2353
31005DOD     C236835  16.138   4.909  20.678 -0.1071 -0.0260 -0.0664
31005DOD     C336836  15.858   4.478  20.563 -0.3160  0.0638 -0.4877
31006DOD     C136837   2.962   9.047   3.534 -0.0285  0.3294 -0.2045
31006DOD     C236838   3.165   8.637   3.700  0.1472 -0.2425  0.0180
31006DOD     C336839   3.514   8.286   3.768 -0.2973 -0.1037 -0.1901
31007DOD     C136840   8.013  24.891  22.564  0.0715 -0.0523 -0.0097
31007DOD     C236841   8.046  24.568  22.895  0.1247  0.1120 -0.2013
31007DOD     C336842   7.907  24.128  22.955 -0.2486 -0.1270  0.5846
31008DOD     C136843  15.485  28.059  17.731 -0.0260 -0.0364 -0.0688
31008DOD     C236844  15.601  28.375  17.402  0.2821  0.3111  0.1675
31008DOD     C336845  15.717  28.622  17.043  0.0186  0.0274  0.0503
31009DOD     C136846   1.486   1.255   1.413  0.2230 -0.0657 -0.1721
31009DOD     C236847   1.144   1.042   1.669  0.2671  0.1295  0.3048
31009DOD     C336848   0.758   0.919   1.905  0.1279 -0.1308 -0.2971
31010DOD     C136849  25.575   4.537  13.659 -0.1473 -0.0321 -0.2498
31010DOD     C236850  25.478   4.308  13.244  0.0066  0.0614 -0.0955
31010DOD     C336851  25.318   4.017  12.977  0.0687 -0.1123 -0.1791
31011DOD     C136852  25.140   9.192   0.822 -0.2247  0.2022 -0.2129
31011DOD     C236853  24.995   8.790   0.644 -0.1513  0.0067  0.1229
31011DOD     C336854  24.838   8.292   0.546  0.0166  0.0004  0.1500
31012DOD     C136855  26.381   3.527  26.733 -0.2086 -0.2014 -0.0989
31012DOD     C236856  26.160   3.779  26.420 -0.2334  0.2427 -0.3073
31012DOD     C336857  26.261   3.819  25.950 -0.2656 -0.2215 -0.0334
31013DOD     C136858  14.797  21.159  16.139  0.1021  0.1355  0.0272
31013DOD     C236859  15.029  21.536  15.960 -0.0206 -0.0373 -0.0231
31013DOD     C336860  15.277  21.841  15.597 -0.2952  0.0787 -0.1484
31014DOD     C136861   0.715  25.160  11.510 -0.0386 -0.1340  0.1420
31014DOD     C236862   0.803  25.403  11.115 -0.0593  0.0562 -0.2677
31014DOD     C336863   0.575  25.459  10.736  0.0574  0.1174  0.1860
31015DOD     C136864  20.888  11.719  17.453 -0.0915 -0.1721  0.3297
31015DOD     C236865  20.699  11.340  17.678 -0.1638 -0.0273 -0.1303
31015DOD     C336866  20.311  11.139  17.814  0.0696  0.1422  0.0748
31016DOD     C136867  21.358   5.681  15.372  0.0530  0.0351  0.2035
31016DOD     C236868  21.316   5.227  15.177  0.3210 -0.1077 -0.1535
31016DOD     C336869  21.097   4.984  14.926 -0.0461  0.0689  0.0969
31017DOD     C136870   8.982  23.892  17.100  0.3727 -0.0980  0.2994
31017DOD     C236871   9.107  23.473  17.140  0.1783 -0.0232  0.1719
31017DOD     C336872   9.210  23.167  16.727 -0.1372 -0.1058  0.1490
31018DOD     C136873  15.935  15.257  22.102  0.2277 -0.0710  0.1835
31018DOD     C236874  15.611  14.957  22.099  0.1375  0.0939  0.2065
31018DOD     C336875  15.198  14.898  22.282  0.2650 -0.0020  0.0231
31019DOD     C136876  14.402  21.247  26.235 -0.1928  0.3947  0.0244
31019DOD     C236877  13.994  21.415  26.406  0.1758  0.2048  0.2757
31019DOD     C336878  13.573  21.398  26.474  0.0159  0.2633 -0.0878
31020DOD     C136879   8.134  19.324  17.365 -0.3871 -0.0458 -0.2798
31020DOD     C236880   7.891  19.084  17.039 -0.2508  0.0437 -0.0155
31020DOD     C336881   7.451  19.080  16.910  0.0589 -0.0062 -0.1007
31021DOD     C136882   0.536  18.907  22.429 -0.0543  0.0035 -0.2821
31021DOD     C236883   0.561  18.444  22.248  0.1930  0.0789  0.0126
31021DOD     C336884   0.800  18.042  22.308 -0.0487  0.0716 -0.1791
31022DOD     C136885   9.830   5.251  22.857  0.3587  0.1400  0.1052
31022DOD     C236886   9.681   4.786  22.716  0.1395  0.0999 -0.1016
31022DOD     C336887   9.549   4.497  22.381 -0.1949 -0.0043  0.0500
31023DOD     C136888  16.601  16.969  13.289 -0.1432 -0.1876 -0.0347
31023DOD     C236889  16.165  17.027  13.459 -0.1096 -0.0071 -0.0266
31023DOD     C336890  16.003  17.411  13.709 -0.1534  0.1044 -0.0332
31024DOD     C136891  14.353  25.529  23.298  0.3577 -0.1766  0.2572
31024DOD     C236892  14.027  25.612  23.013 -0.2327 -0.1331 -0.0969
31024DOD     C336893  14.072  25.891  22.615 -0.0841  0.1562  0.0080
31025DOD     C136894  12.500  23.458  18.655 -0.1201 -0.1021  0.1661
31025DOD     C236895  12.227  23.178  18.909 -0.0628 -0.0664  0.2248
31025DOD     C336896  12.153  23.382  19.331 -0.0783 -0.2008 -0.2265
31026DOD     C136897   5.138  18.043  18.785 -0.3628 -0.1913  0.2632
31026DOD     C236898   5.145  18.127  19.277 -0.1615 -0.0055 -0.1457
31026DOD     C336899   5.458  18.378  19.527  0.4556 -0.2156  0.1329
31027DOD     C136900  11.815  12.838   7.831 -0.1554  0.0397  0.1562
31027DOD     C236901  11.834  12.592   7.415  0.1189  0.1336  0.1413
31027DOD     C336902  11.936  12.583   6.947  0.1871  0.0542  0.2595
31028DOD     C136903  24.726  25.039  12.475  0.1667  0.3680  0.1981
31028DOD     C236904  25.120  24.865  12.322  0.1798  0.0117  0.1124
31028DOD     C336905  25.388  24.543  12.570 -0.2642 -0.0854 -0.0946
31029DOD     C136906  12.321   8.168  20.072 -0.0384 -0.0547  0.0453
31029DOD     C236907  12.558   8.330  20.426 -0.0763 -0.3007  0.2737
31029DOD     C336908  12.727   8.160  20.837  0.2350  0.1396 -0.0174
31030DOD     C136909   5.955   4.763  26.322 -0.0495  0.0758 -0.3423
31030DOD     C236910   6.081   4.867  25.938 -0.2229 -0.2692  0.0417
31030DOD     C336911   5.862   5.024  25.598 -0.1237 -0.2798  0.0740
31031DOD     C136912  16.499  22.721   6.220  0.0468  0.1203 -0.2882
31031DOD     C236913  16.818  22.687   5.955  0.0162 -0.0117  0.2669
31031DOD     C336914  17.276  22.631   5.908  0.0310 -0.1475  0.0497
31032DOD     C136915  28.280  16.727  10.543 -0.0847  0.1000  0.2058
31032DOD     C236916  28.402  16.818  10.994  0.2519 -0.4100 -0.1584
31032DOD     C336917  28.707  17.107  11.218 -0.0325  0.0128 -0.1201
31033DOD     C136918  29.331   8.221  16.771 -0.3665 -0.1698 -0.0138
31033DOD     C236919  29.702   8.270  16.439 -0.2885  0.2663  0.1351
31033DOD     C336920  29.988   8.491  16.137 -0.0837  0.0845  0.2853
31034DOD     C136921  28.392   2.111   0.508 -0.2664  0.0163 -0.3017
31034DOD     C236922  28.059   2.195   0.744 -0.0536 -0.2311  0.2185
31034DOD     C336923  27.563   2.206   0.831  0.0192 -0.0919 -0.0206
31035DOD     C136924  23.759   7.010  13.903 -0.1562 -0.0808 -0.2353
31035DOD     C236925  23.756   6.928  13.486 -0.2320 -0.4487 -0.0792
31035DOD     C336926  23.724   6.662  13.012 -0.3300  0.3327 -0.1603
31036DOD     C136927  21.114   4.938  14.423 -0.3653 -0.0920 -0.1245
31036DOD     C236928  21.497   5.139  14.209 -0.1207  0.2030  0.1290
31036DOD     C336929  21.721   4.962  13.828 -0.2251 -0.1739 -0.0942
31037DOD     C136930   0.807  14.281  14.174 -0.1476 -0.3261  0.0235
31037DOD     C236931   0.658  14.180  14.634 -0.0667  0.0139  0.6141
31037DOD     C336932   0.291  14.268  14.898  0.0247  0.0631  0.1639
31038DOD     C136933  15.812  18.913  21.583 -0.0211  0.1826 -0.1231
31038DOD     C236934  15.827  18.784  22.076  0.0468 -0.1579 -0.1386
31038DOD     C336935  15.650  19.044  22.480 -0.0167  0.2184  0.0319
31039DOD     C136936  23.701  19.147  28.324 -0.0112  0.1379 -0.0488
31039DOD     C236937  23.371  19.113  28.010 -0.0075 -0.0162 -0.2179
31039DOD     C336938  23.293  19.352  27.607 -0.0249 -0.1477 -0.1423
31040DOD     C136939  25.718   9.875  11.737  0.0458  0.0292 -0.1084
31040DOD     C236940  25.847  10.376  11.856 -0.1756  0.2032  0.0113
31040DOD     C336941  25.732  10.652  12.197  0.0563 -0.1150 -0.2139
31041DOD     C136942  22.414   1.571   3.677  0.1240 -0.0636  0.0452
31041DOD     C236943  22.588   1.601   3.213 -0.1414 -0.0516  0.1469
31041DOD     C336944  22.678   1.491   2.810  0.0365 -0.0698 -0.3758
31042DOD     C136945   2.337   7.966  16.702 -0.0759  0.1850 -0.2322
31042DOD     C236946   2.091   7.864  17.071 -0.1217 -0.1071 -0.4455
31042DOD     C336947   2.059   7.923  17.548 -0.1103  0.1399 -0.2876
31043DOD     C136948   0.460  27.617  13.532  0.0753  0.1166  0.0820
31043DOD     C236949   0.226  27.945  13.290  0.2066  0.0213  0.0119
31043DOD     C336950   0.048  28.307  13.063  0.1056  0.0818 -0.0766
31044DOD     C136951   9.574   0.858   4.297  0.2468 -0.2169  0.0605
31044DOD     C236952   9.122   0.943   4.273 -0.1201  0.0033  0.0733
31044DOD     C336953   8.713   1.040   4.544 -0.2335 -0.1145 -0.3077
31045DOD     C136954  10.353   4.282  18.424  0.2523  0.3252 -0.2297
31045DOD     C236955  10.564   4.637  18.243 -0.0643  0.1289  0.1947
31045DOD     C336956  10.820   4.799  17.883  0.1557  0.2560 -0.0464
31046DOD     C136957  25.870  12.656  23.913 -0.0691 -0.0825 -0.0099
31046DOD     C236958  25.414  12.733  24.031  0.0133  0.2526  0.3239
31046DOD     C336959  25.108  12.522  24.282  0.1115  0.1199 -0.1674
31047DOD     C136960  12.341  15.547  19.866  0.1607 -0.1854  0.1336
31047DOD     C236961  12.185  15.392  20.240 -0.2146  0.1024 -0.2799
31047DOD     C336962  11.961  15.428  20.649 -0.1480  0.1581  0.0525
31048DOD     C136963   7.944   0.519  17.817  0.1441 -0.1247 -0.0244
31048DOD     C236964   8.154   0.371  18.212 -0.2164  0.0679 -0.2398
31048DOD     C336965   8.187   0.363  18.694  0.2854 -0.0139 -0.0129
31049DOD     C136966  25.382   3.866  11.113 -0.0918  0.2472  0.1280
31049DOD     C236967  25.723   3.590  11.023  0.1772  0.1228  0.3764
31049DOD     C336968  26.135   3.459  11.142  0.0943  0.0497  0.1964
31050DOD     C136969  17.015  15.784   8.480 -0.0524  0.0487 -0.3233
31050DOD     C236970  17.147  15.959   8.077 -0.0808  0.1230 -0.0745
31050DOD     C336971  16.950  16.215   7.753 -0.3136  0.1924 -0.0607
31051DOD     C136972  11.310  17.795   6.540 -0.0012 -0.1362 -0.1421
31051DOD     C236973  10.913  17.661   6.518 -0.0965  0.1220  0.0132
31051DOD     C336974  10.452  17.836   6.571  0.2919 -0.3326 -0.0412
31052DOD     C136975   0.881  25.216  28.016  0.0221 -0.0193 -0.0858
31052DOD     C236976   1.074  25.561  28.292 -0.2173 -0.0320  0.0202
31052DOD     C336977   0.742  25.864  28.436 -0.1624 -0.1366 -0.3050
31053DOD     C136978  17.083  26.031  15.745 -0.0205  0.2108  0.0918
31053DOD     C236979  17.140  26.455  15.592  0.1812  0.1131  0.0186
31053DOD     C336980  17.292  26.939  15.549  0.2186 -0.1606  0.2204
31054DOD     C136981   1.074  28.419  10.586  0.0592 -0.0593 -0.1319
31054DOD     C236982   1.229  28.018  10.402 -0.0338 -0.0194 -0.0660
31054DOD     C336983   1.112  27.636  10.133 -0.0199 -0.0761  0.0420
31055DOD     C136984  16.209  21.669  29.513 -0.0454  0.1878  0.0258
31055DOD     C236985  15.985  21.891  29.147  0.0820  0.3173 -0.1395
31055DOD     C336986  15.712  21.760  28.771 -0.1541  0.3488 -0.2396
31056DOD     C136987   7.182  14.996  15.135 -0.0887  0.6548  0.0248
31056DOD     C236988   7.279  15.426  14.969  0.2062 -0.0127 -0.2313
31056DOD     C336989   7.166  15.882  14.936 -0.0782 -0.1902  0.0853
31057DOD     C136990  27.316  16.935  14.510  0.1391  0.0145  0.1190
31057DOD     C236991  27.529  16.669  14.841 -0.3322 -0.0370  0.0856
31057DOD     C336992  27.521  16.195  14.888  0.0400  0.1544  0.0813
31058DOD     C136993  13.256   4.061   6.802 -0.0734 -0.2760 -0.1387
31058DOD     C236994  12.916   4.063   6.483  0.3002  0.3713 -0.1177
31058DOD     C336995  12.677   3.961   6.118  0.2026 -0.2157 -0.0331
31059DOD     C136996  16.729  17.357  21.084  0.1182  0.0242  0.1270
31059DOD     C236997  17.213  17.331  20.980  0.0855  0.0528 -0.2343
31059DOD     C336998  17.610  17.286  20.820  0.0835 -0.1993 -0.0716
31060DOD     C136999  10.984  12.471  22.773 -0.0707 -0.1014 -0.0015
31060DOD     C237000  10.715  12.204  23.072 -0.0904 -0.3698 -0.0107
31060DOD     C337001  10.660  12.023  23.518 -0.3513  0.0499  0.2154
31061DOD     C137002   6.984  13.073  27.090 -0.2462  0.1008  0.2605
31061DOD     C237003   6.771  13.283  26.730 -0.2002 -0.1946  0.0771
31061DOD     C337004   6.646  13.592  26.373  0.2049 -0.1378  0.0331
31062DOD     C137005   9.669  22.215  19.804  0.1136  0.0454  0.1229
31062DOD     C237006   9.527  21.947  20.162  0.1939 -0.0656  0.1619
31062DOD     C337007   9.452  22.103  20.604 -0.2989 -0.2780 -0.0237
31063DOD     C137008  27.570   8.943  22.145 -0.1487 -0.2121  0.0577
31063DOD     C237009  27.217   9.168  22.303  0.1293  0.1719 -0.5357
31063DOD     C337010  26.778   9.453  22.144  0.0706 -0.2451 -0.0078
31064DOD     C137011   3.764   0.155  10.315 -0.0840  0.0323  0.2648
31064DOD     C237012   4.213   0.132  10.498  0.0278 -0.1490  0.1835
31064DOD     C337013   4.597   0.041  10.322  0.1335 -0.2513 -0.1649
31065DOD     C137014  25.143  24.769  11.062  0.1946 -0.0224  0.1360
31065DOD     C237015  25.420  24.604  10.742  0.2567 -0.1413 -0.2509
31065DOD     C337016  25.800  24.412  10.612 -0.2140 -0.1713  0.1650
31066DOD     C137017   8.417  25.850  24.944 -0.0339 -0.1571  0.1625
31066DOD     C237018   8.135  25.737  24.572  0.2366 -0.1367 -0.1870
31066DOD     C337019   7.906  25.838  24.207  0.1281  0.0293 -0.0268
31067DOD     C137020  22.555  21.534  18.494 -0.3595  0.5479  0.0384
31067DOD     C237021  22.234  21.648  18.854  0.2224  0.0305  0.0692
31067DOD     C337022  21.854  21.596  19.123 -0.0570 -0.2367 -0.1560
31068DOD     C137023   1.457  25.286  15.528  0.1543 -0.2198 -0.0739
31068DOD     C237024   1.395  25.496  15.104  0.2642  0.1353 -0.1748
31068DOD     C337025   1.387  25.595  14.614 -0.2219 -0.0758  0.1260
31069DOD     C137026  18.410   0.331  28.973 -0.0987  0.1483  0.2487
31069DOD     C237027  18.854   0.288  29.265  0.2689  0.1537  0.1119
31069DOD     C337028  19.031   0.348  29.723  0.4493  0.1519  0.2260
31070DOD     C137029  10.531  10.307   5.298 -0.0051  0.0576 -0.0029
31070DOD     C237030  10.700   9.894   5.503 -0.0486 -0.2551 -0.0068
31070DOD     C337031  11.104   9.660   5.592 -0.0185 -0.2456  0.2614
31071DOD     C137032   7.566  29.185   1.647  0.0115 -0.2488 -0.2996
31071DOD     C237033   7.481  28.716   1.726 -0.2920 -0.2055  0.1659
31071DOD     C337034   7.905  28.497   1.665  0.1033 -0.3154  0.3224
31072DOD     C137035   2.775  21.391  26.058  0.1459 -0.1423  0.0417
31072DOD     C237036   3.208  21.254  26.126  0.0723  0.0882 -0.0412
31072DOD     C337037   3.645  21.134  26.227 -0.0120  0.0983  0.3755
31073DOD     C137038  10.276  22.652   8.917  0.1186  0.0848  0.0127
31073DOD     C237039  10.672  22.864   8.828  0.2334  0.2253 -0.0105
31073DOD     C337040  11.155  23.043   8.749  0.0738  0.2369  0.2755
31074DOD     C137041  29.199   1.049  12.801  0.0464 -0.2312 -0.3711
31074DOD     C237042  28.782   1.039  12.684  0.0975  0.3015  0.0141
31074DOD     C337043  28.383   0.960  12.455  0.0758  0.3969  0.1060
31075DOD     C137044  23.557   7.233   0.311 -0.7882 -0.2666 -0.1810
31075DOD     C237045  24.052   7.160   0.212  0.1377  0.0054  0.1895
31075DOD     C337046  24.089   6.928  30.115  0.2687 -0.4445 -0.0333
31076DOD     C137047  27.331   6.749  10.620  0.1243  0.0088 -0.0224
31076DOD     C237048  27.137   7.016  10.331  0.0366 -0.1667  0.2434
31076DOD     C337049  27.084   7.425  10.120 -0.0614  0.0661  0.0192
31077DOD     C137050  12.412   7.132   6.737 -0.2178 -0.1354 -0.1515
31077DOD     C237051  12.575   6.771   6.687  0.0298 -0.0737  0.1501
31077DOD     C337052  12.465   6.295   6.714 -0.2842 -0.0631 -0.2510
31078DOD     C137053  11.639  20.549  15.854 -0.3083  0.0410 -0.1735
31078DOD     C237054  11.963  20.876  15.793 -0.1451  0.0002  0.1761
31078DOD     C337055  12.412  20.875  15.568  0.2639 -0.2954  0.1093
31079DOD     C137056   3.687  25.047   0.209  0.0783 -0.1566  0.0411
31079DOD     C237057   3.726  25.517   0.038 -0.3947  0.0725  0.2521
31079DOD     C337058   3.921  25.909   0.284  0.0627 -0.0045 -0.0414
31080DOD     C137059  24.851   0.260  21.386 -0.0952  0.0255  0.0652
31080DOD     C237060  25.236   0.541  21.436  0.0177  0.1446  0.1103
31080DOD     C337061  25.519   1.002  21.403 -0.1991 -0.1062  0.0475
31081DOD     C137062   2.003  10.968  12.759  0.1265  0.0787  0.2309
31081DOD     C237063   2.176  11.004  13.198 -0.1529 -0.0890 -0.0771
31081DOD     C337064   2.087  10.860  13.613 -0.1675 -0.1902 -0.0785
31082DOD     C137065  22.288   6.163  20.579 -0.1253 -0.0450  0.3287
31082DOD     C237066  21.873   6.349  20.663 -0.3684 -0.0252  0.0970
31082DOD     C337067  21.455   6.256  20.506  0.1224 -0.0139 -0.0691
31083DOD     C137068  12.383   1.408  25.474 -0.2658 -0.1381  0.0016
31083DOD     C237069  12.692   1.751  25.441  0.0417  0.0834  0.1439
31083DOD     C337070  12.990   2.049  25.647  0.0910  0.0844 -0.4372
31084DOD     C137071  17.820  29.379   4.074 -0.0391  0.2551 -0.2673
31084DOD     C237072  17.435  29.187   3.838  0.3827  0.0054 -0.0336
31084DOD     C337073  17.048  29.024   3.700  0.1024  0.1371  0.1165
31085DOD     C137074   3.047   5.534  28.724  0.1468 -0.1251 -0.1429
31085DOD     C237075   3.029   5.556  28.241  0.0423  0.0078  0.0945
31085DOD     C337076   2.859   5.356  27.834  0.1491 -0.0309 -0.3325
31086DOD     C137077  21.038  22.993   7.855 -0.2094 -0.3523  0.1231
31086DOD     C237078  20.701  23.232   8.102  0.1067  0.2372  0.3010
31086DOD     C337079  20.325  23.320   8.392  0.2375  0.1477 -0.0936
31087DOD     C137080  22.728  23.394  18.220 -0.0585 -0.1737 -0.6532
31087DOD     C237081  22.702  22.960  18.320 -0.1773 -0.3066 -0.0947
31087DOD     C337082  23.002  22.596  18.199  0.0042 -0.0115 -0.2376
31088DOD     C137083   1.927  10.533  23.737  0.0384  0.1426  0.1469
31088DOD     C237084   1.638  10.537  23.366 -0.1104 -0.0940 -0.1638
31088DOD     C337085   1.372  10.657  22.990  0.0060 -0.0105  0.1483
31089DOD     C137086  24.324   5.483   2.438 -0.0941 -0.0594  0.3628
31089DOD     C237087  24.609   5.810   2.287 -0.1428 -0.0288 -0.0843
31089DOD     C337088  24.982   6.068   2.243  0.0618  0.1094  0.2669
31090DOD     C137089  27.637  16.391  26.440  0.2549 -0.0072  0.1040
31090DOD     C237090  27.391  16.606  26.052 -0.1649  0.1827  0.0615
31090DOD     C337091  27.170  16.978  25.817 -0.0470  0.0339  0.0881
31091DOD     C137092  16.527  11.431  21.126 -0.0392 -0.2782 -0.3419
31091DOD     C237093  16.657  11.730  20.807 -0.2089 -0.1149 -0.1615
31091DOD     C337094  16.407  11.989  20.562 -0.0719  0.0997 -0.0039
31092DOD     C137095  24.367  24.022   9.404 -0.0457 -0.3545 -0.0777
31092DOD     C237096  23.991  23.739   9.571 -0.0367  0.0041 -0.0179
31092DOD     C337097  23.574  23.515   9.774  0.0197 -0.0490  0.1849
31093DOD     C137098  25.421  14.549  23.547 -0.1002 -0.0975 -0.1468
31093DOD     C237099  25.493  14.863  23.210 -0.2326  0.0771 -0.1305
31093DOD     C337100  25.099  14.965  22.927  0.3127 -0.0539  0.0413
31094DOD     C137101   8.626  28.142  20.661 -0.0510 -0.0875  0.2016
31094DOD     C237102   8.346  27.818  20.744  0.0397 -0.1090 -0.2581
31094DOD     C337103   7.998  27.550  20.963 -0.1261  0.2956  0.0101
31095DOD     C137104   6.755  28.063   2.808 -0.1830  0.2077  0.1942
31095DOD     C237105   6.451  28.220   3.172  0.3395  0.2748  0.1821
31095DOD     C337106   6.241  28.456   3.482 -0.0374  0.0532 -0.0052
31096DOD     C137107   6.299  10.479  25.990  0.0905  0.0004  0.2584
31096DOD     C237108   6.273   9.987  26.089 -0.0991 -0.0047  0.1067
31096DOD     C337109   6.554   9.718  26.412  0.1917 -0.0016  0.0033
31097DOD     C137110   6.491  16.985  15.862 -0.1557  0.1591 -0.0497
31097DOD     C237111   6.087  16.727  15.833  0.1619 -0.1776  0.0286
31097DOD     C337112   5.601  16.661  15.871 -0.0801  0.0768 -0.2453
31098DOD     C137113   6.377   9.300  18.707  0.1049  0.1305 -0.1742
31098DOD     C237114   6.728   9.558  18.520  0.0752 -0.0081 -0.1872
31098DOD     C337115   7.102   9.792  18.344 -0.0066 -0.0627 -0.1032
31099DOD     C137116  22.297   2.386   4.828  0.3703  0.0646 -0.3186
31099DOD     C237117  22.618   2.476   4.520  0.3033  0.0348 -0.1363
31099DOD     C337118  22.753   2.340   4.160 -0.3243 -0.0386 -0.0150
31100DOD     C137119   0.045  23.299   8.154 -0.3271  0.1751  0.2812
31100DOD     C237120   0.128  23.344   8.653 -0.1144  0.1195 -0.2375
31100DOD     C337121   0.499  23.469   8.868  0.0214 -0.3854  0.1321
31101DOD     C137122   1.773   7.114  24.181  0.1883  0.1812  0.3351
31101DOD     C237123   1.545   6.700  24.113 -0.2851  0.0947  0.1122
31101DOD     C337124   1.131   6.496  24.147 -0.1266 -0.1710 -0.0812
31102DOD     C137125  28.744   0.106   4.248 -0.2927 -0.0725 -0.0212
31102DOD     C237126  28.332  30.275   4.136 -0.1086  0.0890 -0.2102
31102DOD     C337127  28.005  30.371   3.827 -0.0967  0.5119 -0.0325
31103DOD     C137128  14.888   0.514  15.578  0.0982 -0.5710 -0.0502
31103DOD     C237129  15.213   0.140  15.462  0.3075  0.2684 -0.1552
31103DOD     C337130  15.357  30.039  15.271  0.0348 -0.1603 -0.0777
31104DOD     C137131  25.410  17.943   6.172 -0.1743 -0.1880 -0.0046
31104DOD     C237132  25.356  17.932   6.618  0.2551  0.1556 -0.0048
31104DOD     C337133  25.302  17.734   7.043  0.0320  0.3497 -0.2623
31105DOD     C137134   5.421  27.519  16.591  0.3399  0.0680  0.1381
31105DOD     C237135   5.395  27.496  16.102 -0.0414 -0.0194 -0.0057
31105DOD     C337136   5.521  27.707  15.727 -0.1714 -0.1500 -0.0307
31106DOD     C137137   8.239  27.330  20.492  0.0623  0.2522 -0.1608
31106DOD     C237138   7.768  27.309  20.606  0.0867 -0.1315  0.0438
31106DOD     C337139   7.298  27.399  20.548 -0.0683  0.0971 -0.0352
31107DOD     C137140  23.692  16.160  10.267 -0.1763 -0.0232 -0.0051
31107DOD     C237141  23.342  15.872  10.377 -0.1116  0.1241  0.2638
31107DOD     C337142  22.906  15.777  10.419 -0.1129 -0.1486 -0.1927
31108DOD     C137143  25.128  19.336   9.912  0.4082  0.1560 -0.1534
31108DOD     C237144  24.704  19.376  10.202  0.1273 -0.1108 -0.0645
31108DOD     C337145  24.429  19.406  10.592  0.1649 -0.3101 -0.2852
31109DOD     C137146  18.936  20.030  21.578  0.0043 -0.0655 -0.1354
31109DOD     C237147  19.422  20.239  21.648 -0.1770  0.1285  0.0254
31109DOD     C337148  19.709  20.594  21.724  0.1722  0.1462 -0.1167
31110DOD     C137149   7.231  21.880   9.594 -0.1472 -0.1100  0.2807
31110DOD     C237150   7.555  21.613   9.271  0.0087 -0.0133  0.0285
31110DOD     C337151   7.951  21.673   9.057  0.0382  0.0752  0.1343
31111DOD     C137152  16.584  15.161  28.481 -0.2050  0.0441 -0.1045
31111DOD     C237153  16.294  15.312  28.825 -0.3045  0.0046  0.0135
31111DOD     C337154  16.275  15.304  29.300 -0.1996  0.0793  0.0646
31112DOD     C137155  11.999  25.616  13.684 -0.0801  0.0495  0.3788
31112DOD     C237156  11.625  25.423  13.953 -0.0840 -0.0511  0.0464
31112DOD     C337157  11.326  25.558  14.217  0.0659  0.0953  0.0950
31113DOD     C137158   8.765   0.806   3.520 -0.4178 -0.0554 -0.1388
31113DOD     C237159   8.385   0.579   3.658 -0.0854 -0.2011 -0.0585
31113DOD     C337160   8.130   0.234   3.492 -0.2912  0.1617  0.1598
31114DOD     C137161   3.115  18.205  17.276  0.0616  0.0041  0.1098
31114DOD     C237162   3.354  17.840  17.200  0.0447 -0.4067 -0.2835
31114DOD     C337163   3.466  17.373  17.188  0.2233 -0.1175 -0.0871
31115DOD     C137164  12.589  11.981   4.205 -0.1506  0.1675 -0.0581
31115DOD     C237165  12.785  11.907   3.789 -0.2160  0.0188  0.0403
31115DOD     C337166  12.800  11.974   3.310  0.0817  0.2382  0.0512
31116DOD     C137167   7.630  11.005  10.028 -0.1386 -0.1641  0.0591
31116DOD     C237168   8.011  11.201   9.876 -0.2544 -0.0929  0.2236
31116DOD     C337169   8.335  11.609   9.823 -0.0298 -0.1696  0.1043
31117DOD     C137170  12.471  19.830   7.710 -0.0401 -0.2259 -0.2393
31117DOD     C237171  12.423  19.812   8.267  0.0299 -0.0776  0.1059
31117DOD     C337172  12.569  20.135   8.594  0.2976 -0.0220  0.0020
31118DOD     C137173   8.678  10.992  21.951 -0.2529  0.2079  0.1343
31118DOD     C237174   8.393  10.883  22.277  0.0304  0.0994 -0.1485
31118DOD     C337175   8.129  10.894  22.701  0.5148 -0.0230 -0.0037
31119DOD     C137176  12.602   2.721  14.028 -0.3176 -0.0204 -0.0787
31119DOD     C237177  12.564   2.216  13.987  0.1206  0.1164 -0.2998
31119DOD     C337178  12.619   1.754  13.822 -0.2493 -0.0574 -0.2778
31120DOD     C137179  25.970  22.638  26.209  0.0474 -0.1923 -0.0511
31120DOD     C237180  26.257  22.690  26.595  0.1927  0.0466 -0.0556
31120DOD     C337181  26.507  22.899  26.928 -0.0731 -0.1427  0.1882
31121DOD     C137182  28.800  14.905  16.307  0.0990 -0.0338  0.0284
31121DOD     C237183  29.182  14.906  16.013 -0.2645 -0.1367 -0.0083
31121DOD     C337184  29.516  14.828  15.809 -0.2778  0.1031  0.0531
31122DOD     C137185  14.152  14.928  28.472  0.0246 -0.0970  0.2268
31122DOD     C237186  14.293  14.475  28.461 -0.1341 -0.0943  0.1310
31122DOD     C337187  14.352  14.123  28.762 -0.1209  0.3405 -0.1605
31123DOD     C137188   4.741  29.703   1.193 -0.1362  0.0647  0.0417
31123DOD     C237189   4.733  29.931   1.601 -0.1306 -0.0956  0.1315
31123DOD     C337190   4.690  29.985   2.097 -0.0468  0.3355  0.0351
31124DOD     C137191   6.475   0.432   4.750 -0.0322  0.0522  0.0699
31124DOD     C237192   6.206   0.100   4.901 -0.2498  0.0523  0.1132
31124DOD     C337193   5.941  30.044   5.042  0.3485 -0.1022 -0.0483
31125DOD     C137194  20.701  26.777  18.278 -0.2132  0.4747 -0.0219
31125DOD     C237195  20.620  27.135  17.937  0.1154  0.3857  0.1049
31125DOD     C337196  20.542  27.486  17.609 -0.0169  0.0713 -0.1726
31126DOD     C137197   7.394   4.342  24.570 -0.1504  0.1074 -0.1117
31126DOD     C237198   7.230   4.639  24.849  0.3188 -0.2130 -0.0733
31126DOD     C337199   6.867   4.927  24.949  0.6039  0.3414  0.0261
31127DOD     C137200  18.018   5.045   0.548 -0.1364 -0.0814 -0.1584
31127DOD     C237201  17.640   4.966   0.839  0.1357 -0.2147 -0.0034
31127DOD     C337202  17.199   5.098   0.719  0.2466 -0.0929  0.0512
31128DOD     C137203  27.764  24.821  13.693 -0.1955 -0.3189  0.0669
31128DOD     C237204  27.363  24.547  13.688 -0.0341  0.3830  0.1330
31128DOD     C337205  27.132  24.157  13.507 -0.0656 -0.0151 -0.1151
31129DOD     C137206   7.601  14.047   0.654 -0.1509 -0.0163  0.0186
31129DOD     C237207   7.316  14.420   0.561 -0.0621 -0.0418 -0.3157
31129DOD     C337208   7.303  14.774   0.820 -0.1052 -0.0483 -0.1655
31130DOD     C137209  24.165  29.684   4.705  0.0479  0.1462 -0.1444
31130DOD     C237210  24.199  30.006   4.388  0.1181  0.0149  0.0499
31130DOD     C337211  24.277  30.294   4.018  0.1415  0.3310  0.0823
31131DOD     C137212   8.135  21.811  10.154  0.1902  0.1428  0.3792
31131DOD     C237213   8.586  21.760  10.136  0.3314  0.1523 -0.0593
31131DOD     C337214   8.992  21.856   9.997  0.1512  0.0889 -0.1818
31132DOD     C137215  19.999  13.309  14.511 -0.1835  0.2807 -0.0741
31132DOD     C237216  20.172  13.720  14.457 -0.1066 -0.0202  0.4447
31132DOD     C337217  20.413  13.995  14.178  0.0126  0.1613 -0.2321
31133DOD     C137218  26.984  23.585  23.433  0.0796  0.0666  0.3609
31133DOD     C237219  27.293  23.217  23.554  0.1957 -0.0530 -0.0501
31133DOD     C337220  27.514  22.816  23.670 -0.0469  0.1407 -0.1318
31134DOD     C137221  19.445   9.774  16.268 -0.1345 -0.2062 -0.0025
31134DOD     C237222  19.700   9.720  16.641  0.1710  0.0321 -0.2207
31134DOD     C337223  20.029   9.608  16.913  0.2693 -0.1086  0.0640
31135DOD     C137224  19.143  21.076   4.284 -0.2352 -0.0819 -0.0059
31135DOD     C237225  18.804  21.429   4.334 -0.0372 -0.0123 -0.0111
31135DOD     C337226  18.407  21.455   4.146  0.1458 -0.2129 -0.0447
31136DOD     C137227   9.193  14.791  15.251 -0.1396 -0.2478 -0.2010
31136DOD     C237228   9.462  15.133  15.408  0.0774 -0.0168 -0.0243
31136DOD     C337229   9.785  15.258  15.727  0.2645 -0.1462  0.1117
31137DOD     C137230   9.392  17.794  14.610  0.0198 -0.0202  0.1299
31137DOD     C237231   9.115  17.450  14.632 -0.1990  0.2961  0.0365
31137DOD     C337232   9.058  17.053  14.936  0.0307  0.4864  0.2152
31138DOD     C137233   3.173   8.782  24.012 -0.1601  0.4196  0.0838
31138DOD     C237234   2.994   8.807  23.554 -0.0157 -0.4825 -0.0397
31138DOD     C337235   2.751   8.758  23.102  0.1016  0.0017  0.0685
31139DOD     C137236  27.918  12.693  14.999 -0.1323  0.0475  0.0622
31139DOD     C237237  28.147  13.027  14.765  0.2417  0.0564 -0.1487
31139DOD     C337238  28.266  13.414  14.519 -0.0273  0.1276  0.2822
31140DOD     C137239  15.499  25.141  14.273  0.1831 -0.1443 -0.1251
31140DOD     C237240  15.330  25.471  14.001 -0.2852 -0.1926  0.2407
31140DOD     C337241  15.229  25.907  13.876  0.2306  0.2467 -0.1597
31141DOD     C137242  18.039  18.566   0.728  0.2047  0.2625 -0.0505
31141DOD     C237243  17.737  18.859   0.613  0.1644 -0.0138  0.0843
31141DOD     C337244  17.610  19.276   0.513 -0.0256 -0.1128 -0.0461
31142DOD     C137245   5.899  16.322   6.047 -0.0947 -0.2244 -0.1086
31142DOD     C237246   5.799  16.219   5.651 -0.1440 -0.2117 -0.1738
31142DOD     C337247   5.736  16.419   5.211 -0.2090 -0.1833  0.0658
31143DOD     C137248   8.456  27.819   8.891  0.2203  0.2823 -0.0032
31143DOD     C237249   8.309  28.195   8.660  0.2423 -0.1006 -0.1723
31143DOD     C337250   7.992  28.373   8.411  0.2956 -0.4294 -0.0072
31144DOD     C137251   3.989  18.448  29.649  0.0616  0.0632  0.2047
31144DOD     C237252   4.416  18.614  29.464 -0.0163  0.0674  0.0463
31144DOD     C337253   4.825  18.517  29.252 -0.1024  0.1505  0.0767
31145DOD     C137254  18.188   0.327   4.294 -0.0657 -0.3562  0.0853
31145DOD     C237255  17.774   0.124   4.243 -0.0833 -0.1531  0.0953
31145DOD     C337256  17.401   0.110   3.966 -0.1103  0.2476 -0.2083
31146DOD     C137257  26.027  19.635  19.324  0.1212 -0.1344 -0.2799
31146DOD     C237258  25.563  19.533  19.371 -0.0536 -0.0496 -0.3894
31146DOD     C337259  25.457  19.094  19.539 -0.3564 -0.0610  0.3114
31147DOD     C137260   9.883   3.318  22.193  0.5205 -0.1253  0.1796
31147DOD     C237261   9.935   3.052  22.533  0.0418  0.5887 -0.0252
31147DOD     C337262   9.875   2.724  22.908 -0.0104 -0.1925  0.1255
31148DOD     C137263  14.551  23.225   2.758 -0.1127 -0.2922  0.0068
31148DOD     C237264  14.355  23.654   2.873 -0.1552 -0.1995  0.1303
31148DOD     C337265  14.248  24.104   2.886  0.0224  0.1507  0.1913
31149DOD     C137266  23.199   5.853  16.997 -0.0641 -0.1011 -0.1126
31149DOD     C237267  22.845   5.880  17.334  0.2148 -0.0855 -0.1411
31149DOD     C337268  22.572   5.597  17.594 -0.0803  0.2176 -0.2752
31150DOD     C137269  27.214  20.470  14.381 -0.0559  0.0471 -0.1729
31150DOD     C237270  26.856  20.227  14.220 -0.1408  0.2192  0.0754
31150DOD     C337271  26.464  20.048  14.416 -0.0300 -0.2835  0.0710
31151DOD     C137272  16.168  20.769  21.007 -0.4745 -0.2855 -0.1831
31151DOD     C237273  16.065  21.089  20.641 -0.0090 -0.1159  0.1222
31151DOD     C337274  15.895  21.436  20.329  0.0167  0.0851  0.1574
31152DOD     C137275   3.836   8.520  23.609 -0.0643  0.2465 -0.2171
31152DOD     C237276   3.939   8.048  23.560  0.0354  0.0056  0.2231
31152DOD     C337277   4.212   7.743  23.408 -0.3150  0.1759  0.1579
31153DOD     C137278  27.709  15.671   5.182  0.1587  0.0560  0.0321
31153DOD     C237279  27.614  15.194   5.055  0.1516 -0.0169  0.0135
31153DOD     C337280  27.388  14.800   4.872 -0.1695 -0.1260 -0.1762
31154DOD     C137281  25.718  17.583   7.815  0.0761 -0.2133 -0.0110
31154DOD     C237282  25.708  17.282   8.181  0.0709  0.0613  0.0189
31154DOD     C337283  25.693  17.292   8.674 -0.1945 -0.3365  0.0964
31155DOD     C137284  20.616  27.866   8.536 -0.0797  0.0669  0.3676
31155DOD     C237285  20.568  27.846   8.040  0.0885  0.0146 -0.0651
31155DOD     C337286  20.615  27.709   7.671 -0.1281  0.1130 -0.0043
31156DOD     C137287  28.904  11.420  22.464 -0.0365  0.1009  0.0491
31156DOD     C237288  28.580  11.749  22.612  0.0867  0.1605  0.2925
31156DOD     C337289  28.266  12.093  22.635 -0.2758  0.0096  0.0730
31157DOD     C137290  29.624  20.145   2.095 -0.2689  0.0356  0.1037
31157DOD     C237291  29.277  19.908   2.323  0.0484 -0.2535  0.1049
31157DOD     C337292  29.128  19.875   2.724 -0.0131  0.2767 -0.2911
31158DOD     C137293   1.298   1.383   8.649 -0.0636  0.1052 -0.2261
31158DOD     C237294   1.628   1.046   8.609 -0.1801 -0.0682  0.2316
31158DOD     C337295   1.627   0.788   8.929  0.2102  0.0131  0.0748
31159DOD     C137296  25.542  18.730  25.696  0.1359  0.0785 -0.0618
31159DOD     C237297  26.035  18.799  25.781  0.3216  0.1575 -0.1605
31159DOD     C337298  26.467  18.671  25.748  0.0242  0.1065 -0.1693
31160DOD     C137299  19.040   5.791  10.327  0.2564  0.3484 -0.0325
31160DOD     C237300  19.138   5.390  10.160  0.1210  0.2504 -0.2894
31160DOD     C337301  19.483   5.065  10.220  0.1007 -0.2055  0.2670
31161DOD     C137302  23.109  13.028   7.107 -0.4083  0.0209 -0.0060
31161DOD     C237303  22.838  12.694   7.018  0.1464 -0.1454  0.0207
31161DOD     C337304  22.918  12.404   6.713 -0.3550  0.1363 -0.2389
31162DOD     C137305  20.926   9.905   9.702 -0.1835  0.1728  0.0188
31162DOD     C237306  20.711   9.736  10.079  0.2289 -0.4158 -0.1810
31162DOD     C337307  20.501   9.400  10.367 -0.2439 -0.2227  0.0594
31163DOD     C137308  30.207  27.887  14.694 -0.0100 -0.1370  0.1171
31163DOD     C237309   0.249  28.170  14.753 -0.0281 -0.0944  0.3589
31163DOD     C337310   0.729  28.217  14.772 -0.0382  0.2317 -0.3809
31164DOD     C137311   9.877   0.698   2.002  0.1861 -0.0013  0.0383
31164DOD     C237312   9.425   0.761   2.227 -0.0294  0.2577  0.1792
31164DOD     C337313   8.936   0.709   2.231 -0.0260 -0.1742  0.0291
31165DOD     C137314  10.519  22.474  29.037  0.1603 -0.1485 -0.1149
31165DOD     C237315  10.496  22.139  28.773  0.2093  0.3749  0.2256
31165DOD     C337316  10.354  21.795  28.512 -0.3016  0.0523  0.0365
31166DOD     C137317  13.338  28.861  24.986 -0.0545 -0.0701 -0.1238
31166DOD     C237318  12.975  28.723  24.757  0.1725 -0.0498  0.0793
31166DOD     C337319  12.648  28.396  24.672  0.4428 -0.1362 -0.0553
31167DOD     C137320  24.264  12.406  27.960  0.1400  0.1369  0.2902
31167DOD     C237321  24.121  12.774  27.694  0.0823  0.0400 -0.0663
31167DOD     C337322  24.140  13.121  27.373 -0.4258  0.1402 -0.2095
31168DOD     C137323   7.564  21.450  22.059 -0.0838  0.2527 -0.3367
31168DOD     C237324   7.544  21.054  22.235 -0.1680  0.2396  0.0046
31168DOD     C337325   7.544  20.893  22.684  0.0134  0.1881  0.1062
31169DOD     C137326   5.098  21.413   7.293 -0.0535  0.0212  0.0593
31169DOD     C237327   5.206  21.863   7.352  0.0108  0.0949 -0.1648
31169DOD     C337328   5.354  22.167   7.651 -0.0579 -0.3425 -0.1900
31170DOD     C137329  17.092   2.473  21.662 -0.0340 -0.1900  0.0663
31170DOD     C237330  17.021   2.926  21.568  0.0376 -0.0694 -0.0684
31170DOD     C337331  17.107   3.395  21.431  0.2754 -0.1002  0.0549
31171DOD     C137332   2.439  24.101  18.196 -0.2345  0.0860  0.3393
31171DOD     C237333   2.733  23.830  18.421 -0.0765  0.2133  0.0274
31171DOD     C337334   3.206  23.781  18.384 -0.2429  0.0149 -0.0622
31172DOD     C137335  27.184  17.578   5.718  0.1785 -0.1082  0.2709
31172DOD     C237336  27.614  17.744   5.776  0.4035 -0.3515 -0.1484
31172DOD     C337337  28.089  17.591   5.701  0.3172  0.3273 -0.1367
31173DOD     C137338  26.062   6.872  15.163 -0.0949 -0.4324 -0.1952
31173DOD     C237339  25.791   6.890  14.782 -0.0236 -0.2108 -0.2310
31173DOD     C337340  25.786   6.531  14.478  0.1537  0.0652 -0.1612
31174DOD     C137341   6.593  15.840  17.165  0.1519  0.3485  0.0493
31174DOD     C237342   6.594  16.158  17.550  0.1886  0.0201 -0.0137
31174DOD     C337343   6.611  16.243  17.997 -0.1309 -0.0423 -0.2729
31175DOD     C137344  30.187   9.425  11.367  0.1864  0.0735 -0.2132
31175DOD     C237345   0.060   9.440  11.785  0.1912  0.0555  0.2692
31175DOD     C337346   0.244   9.756  12.147  0.2299  0.1619  0.0068
31176DOD     C137347   6.322  19.186  19.715 -0.0878 -0.2308 -0.0228
31176DOD     C237348   6.651  18.986  19.945  0.0836 -0.1548 -0.4474
31176DOD     C337349   7.049  18.786  19.866  0.1778 -0.0836 -0.0983
31177DOD     C137350  13.086  26.721   0.598 -0.1740 -0.3393  0.0727
31177DOD     C237351  13.068  26.249   0.678  0.4381 -0.1339  0.0511
31177DOD     C337352  13.207  25.810   0.675 -0.1361 -0.1974  0.0307
31178DOD     C137353  25.848  19.610  20.091  0.2007  0.3030  0.2712
31178DOD     C237354  25.957  19.303  19.727  0.0827  0.3043  0.3210
31178DOD     C337355  25.902  18.854  19.714 -0.1076  0.0130 -0.0911
31179DOD     C137356  17.141  19.115  26.172 -0.1078  0.0480  0.1674
31179DOD     C237357  17.330  19.180  26.604  0.3600  0.1005  0.3008
31179DOD     C337358  17.700  19.430  26.777  0.2404  0.0096  0.0973
31180DOD     C137359  10.390  17.817  16.945  0.0009  0.0859 -0.5426
31180DOD     C237360  10.036  17.736  17.225 -0.0202  0.1829  0.1549
31180DOD     C337361   9.786  17.713  17.642 -0.1347 -0.0082 -0.1935
31181DOD     C137362   3.570  13.414  22.903 -0.3635  0.0618  0.5751
31181DOD     C237363   3.331  13.573  22.552 -0.0138  0.0906 -0.1357
31181DOD     C337364   2.971  13.879  22.392 -0.0585 -0.3100  0.0542
31182DOD     C137365  10.211  20.873   7.590  0.0006  0.3128 -0.1024
31182DOD     C237366  10.449  20.511   7.386  0.2526  0.1462 -0.1972
31182DOD     C337367  10.431  20.026   7.373  0.1678 -0.1942  0.1223
31183DOD     C137368  14.630  18.077   2.690 -0.1314 -0.0912 -0.1165
31183DOD     C237369  14.573  18.529   2.866 -0.1274 -0.0723 -0.0889
31183DOD     C337370  14.492  18.886   3.100  0.1846  0.0747 -0.0388
31184DOD     C137371  28.204  22.126  11.107  0.0122 -0.0364  0.2835
31184DOD     C237372  28.643  21.981  11.077  0.2412  0.1292 -0.2349
31184DOD     C337373  29.116  21.991  11.263 -0.1908  0.0301 -0.1034
31185DOD     C137374  20.024   5.603  30.136 -0.0843 -0.2356 -0.0742
31185DOD     C237375  20.122   5.921  29.832 -0.0703 -0.3005  0.0733
31185DOD     C337376  20.252   6.334  29.800 -0.2901 -0.2561  0.1622
31186DOD     C137377  22.762   6.433  28.845  0.0482  0.2757  0.0268
31186DOD     C237378  22.437   6.682  29.078 -0.1599  0.2967 -0.0178
31186DOD     C337379  21.999   6.665  29.343  0.3074  0.0253  0.0926
31187DOD     C137380  16.833  16.891  24.861 -0.2071 -0.2249  0.2965
31187DOD     C237381  17.218  16.617  24.662  0.1837  0.1262 -0.0769
31187DOD     C337382  17.342  16.167  24.482 -0.2800  0.0093  0.1105
31188DOD     C137383  10.629  26.003  14.489 -0.2635  0.1135 -0.1301
31188DOD     C237384  10.984  26.263  14.674 -0.2233 -0.0870 -0.1346
31188DOD     C337385  11.404  26.325  14.928 -0.0788  0.2241 -0.0261
31189DOD     C137386  28.510  14.837  17.117 -0.0838  0.2562 -0.0783
31189DOD     C237387  28.358  14.425  16.949 -0.0282  0.3637  0.0346
31189DOD     C337388  28.051  14.143  16.793  0.3505 -0.0715 -0.0131
31190DOD     C137389   9.384   4.552  16.261 -0.0290  0.0041  0.2378
31190DOD     C237390   9.200   4.187  16.462  0.1270 -0.0990  0.2081
31190DOD     C337391   9.206   4.366  16.864  0.0778  0.0440 -0.3408
31191DOD     C137392  27.623   6.512   8.187  0.2361  0.2902  0.1322
31191DOD     C237393  27.692   6.932   8.012  0.0063 -0.3073 -0.1256
31191DOD     C337394  27.687   7.072   7.586 -0.0394 -0.0792  0.4297
31192DOD     C137395  18.164  14.184  24.506 -0.3649  0.0709  0.1115
31192DOD     C237396  17.946  13.797  24.374  0.0036  0.0066 -0.4233
31192DOD     C337397  17.889  13.352  24.264  0.0590 -0.3101 -0.0549
31193DOD     C137398  30.217  21.809   4.221  0.1864  0.0363  0.2386
31193DOD     C237399   0.166  21.728   3.896  0.2154  0.0641  0.2438
31193DOD     C337400   0.572  21.453   3.869  0.0689 -0.3668 -0.2187
31194DOD     C137401   5.708   1.535  20.318  0.0702  0.0292 -0.4312
31194DOD     C237402   5.388   1.479  19.939 -0.0620 -0.1641 -0.1393
31194DOD     C337403   5.211   1.277  19.560  0.3315  0.1221 -0.1614
31195DOD     C137404  25.164  17.267  19.376 -0.1794 -0.2175  0.4212
31195DOD     C237405  24.940  16.936  19.207 -0.0345  0.1751 -0.1139
31195DOD     C337406  24.969  16.641  18.898 -0.1507 -0.5737 -0.0179
31196DOD     C137407  22.265  19.451   4.617  0.1256 -0.0489  0.1146
31196DOD     C237408  22.675  19.348   4.451  0.4723 -0.0275  0.0608
31196DOD     C337409  22.752  19.241   4.009 -0.0057  0.1955  0.0841
31197DOD     C137410  12.452  23.302   4.486  0.1561  0.3537 -0.2390
31197DOD     C237411  12.432  22.851   4.526  0.1467 -0.0006  0.0129
31197DOD     C337412  12.160  22.534   4.327  0.2489 -0.0689  0.2153
31198DOD     C137413   6.601  24.296  14.310  0.0555 -0.2216  0.2872
31198DOD     C237414   6.913  24.347  14.620  0.5248  0.1195  0.1562
31198DOD     C337415   7.296  24.186  14.783  0.0862  0.0594  0.0745
31199DOD     C137416  28.614  15.857  24.151 -0.1007  0.2437 -0.0620
31199DOD     C237417  28.239  15.868  23.962 -0.0203 -0.1095  0.0174
31199DOD     C337418  27.943  15.803  23.617 -0.2772  0.0772 -0.4063
31200DOD     C137419   6.583  15.813  23.957  0.1337  0.2914 -0.0623
31200DOD     C237420   6.644  15.352  23.911 -0.1236  0.2090 -0.0003
31200DOD     C337421   6.577  14.898  24.158 -0.1806  0.0076 -0.3070
31201DOD     C137422   9.087  16.812  25.826 -0.1009  0.1204 -0.3684
31201DOD     C237423   8.778  16.486  25.961 -0.0568 -0.1331  0.0501
31201DOD     C337424   8.554  16.085  25.898 -0.2158 -0.1693 -0.3397
31202DOD     C137425   5.526   3.184  29.046  0.4625 -0.1627 -0.3815
31202DOD     C237426   5.209   2.872  29.236 -0.1594  0.1171 -0.0358
31202DOD     C337427   5.082   2.692  29.631  0.0051 -0.0119  0.1068
31203DOD     C137428   8.435  10.698  14.776 -0.2201 -0.1424 -0.1500
31203DOD     C237429   8.061  10.462  14.973 -0.0100 -0.0666  0.0027
31203DOD     C337430   7.742  10.317  15.267  0.2855 -0.0487 -0.1265
31204DOD     C137431  23.589   0.268   1.183 -0.2103  0.2475  0.1472
31204DOD     C237432  23.878   0.229   0.808 -0.0532 -0.0702 -0.4466
31204DOD     C337433  24.330   0.279   0.647  0.1924 -0.0755 -0.1339
31205DOD     C137434  21.416   8.163  24.902  0.0134 -0.1155  0.0723
31205DOD     C237435  21.331   8.384  24.477 -0.1991  0.2360  0.2544
31205DOD     C337436  21.260   8.793  24.262 -0.2103 -0.2565  0.3575
31206DOD     C137437  21.475   9.510  15.592  0.0896 -0.0469 -0.2851
31206DOD     C237438  21.248   9.822  15.295  0.3452 -0.0869  0.0517
31206DOD     C337439  21.066  10.044  14.959  0.2139 -0.1761  0.1580
31207DOD     C137440  10.892  13.213   8.144  0.3271 -0.0129 -0.2296
31207DOD     C237441  10.681  12.799   8.176 -0.0151 -0.1536  0.0483
31207DOD     C337442  10.620  12.373   8.069  0.3983 -0.1311 -0.5034
31208DOD     C137443  11.409   8.134   9.792  0.1453  0.1073 -0.1491
31208DOD     C237444  11.427   8.280   9.303  0.0293 -0.2501  0.1347
31208DOD     C337445  11.145   8.453   8.931 -0.2389  0.1917  0.1914
31209DOD     C137446  20.543   7.404  13.934 -0.0031  0.0338 -0.1416
31209DOD     C237447  20.641   6.963  14.100  0.0778 -0.1503  0.0638
31209DOD     C337448  20.703   6.757  14.496 -0.0125 -0.1901  0.2405
31210DOD     C137449  28.739  25.053  24.552  0.1960 -0.1506  0.2527
31210DOD     C237450  28.435  24.926  24.887 -0.3877 -0.0827 -0.1336
31210DOD     C337451  28.003  24.695  25.013 -0.3522 -0.0827  0.1030
31211DOD     C137452  28.331  12.434  16.006  0.1817  0.0067  0.0455
31211DOD     C237453  27.992  12.195  15.718  0.3425 -0.0897  0.0547
31211DOD     C337454  27.584  12.184  15.548  0.3418  0.0188  0.0910
31212DOD     C137455  23.491  24.792   0.561 -0.2183  0.1092  0.1174
31212DOD     C237456  23.321  24.377   0.559 -0.1437 -0.0641 -0.0103
31212DOD     C337457  23.243  23.987   0.289 -0.3031  0.0665 -0.1807
31213DOD     C137458  17.483   2.950  25.179 -0.0773  0.1823  0.1052
31213DOD     C237459  17.288   3.153  25.516  0.2535  0.0448 -0.1596
31213DOD     C337460  17.154   3.151  25.969  0.1670  0.1153 -0.1808
31214DOD     C137461  15.168  14.399   8.925 -0.3097 -0.0522 -0.0115
31214DOD     C237462  15.200  14.719   8.516  0.0611  0.3162 -0.4707
31214DOD     C337463  15.303  15.178   8.380 -0.2690  0.0801  0.0094
31215DOD     C137464   3.993  20.333  22.358  0.0565  0.1740  0.0984
31215DOD     C237465   4.158  20.758  22.391 -0.2455  0.1305  0.6938
31215DOD     C337466   4.317  21.162  22.214  0.1043 -0.3290  0.1749
31216DOD     C137467   4.541   4.454  24.612  0.0502 -0.1590 -0.1970
31216DOD     C237468   4.490   4.368  24.122  0.1701 -0.2640  0.0204
31216DOD     C337469   4.215   4.403  23.712 -0.0400  0.0756 -0.0986
31217DOD     C137470  29.517  11.078  10.914 -0.1216 -0.0880  0.1398
31217DOD     C237471  29.251  10.967  10.525  0.2320 -0.1485 -0.1757
31217DOD     C337472  28.971  11.075  10.196 -0.0890  0.2481  0.1191
31218DOD     C137473   4.826  24.151  17.917 -0.0149  0.2365  0.1490
31218DOD     C237474   4.904  24.468  17.595  0.0467 -0.1264 -0.0825
31218DOD     C337475   5.039  24.749  17.176 -0.3659 -0.0929 -0.0491
31219DOD     C137476  26.447   1.315  22.619  0.0236  0.1386 -0.0032
31219DOD     C237477  26.357   0.987  22.934  0.3181  0.3866  0.0778
31219DOD     C337478  26.263   0.594  23.211 -0.0033 -0.0459  0.3279
31220DOD     C137479   3.598   7.777  10.550 -0.3094  0.1188  0.0037
31220DOD     C237480   3.438   8.006  10.199 -0.0766  0.1079 -0.1271
31220DOD     C337481   3.252   8.316   9.900  0.1101 -0.2219  0.1441
31221DOD     C137482  24.581  22.737   7.671  0.0220  0.2046 -0.4315
31221DOD     C237483  24.925  23.015   7.697 -0.0207  0.1958  0.1425
31221DOD     C337484  24.901  23.478   7.536  0.3161  0.2732  0.1753
31222DOD     C137485  25.009  13.549  12.073  0.0778 -0.0099  0.0620
31222DOD     C237486  25.388  13.346  12.336  0.4435 -0.2505  0.2572
31222DOD     C337487  25.736  13.131  12.526 -0.2499  0.3031 -0.3375
31223DOD     C137488   1.164  19.265  10.090  0.2100 -0.1025  0.0900
31223DOD     C237489   1.453  19.653  10.114 -0.1454 -0.2423 -0.0049
31223DOD     C337490   1.901  19.734  10.106 -0.1631 -0.2137  0.1489
31224DOD     C137491  28.403  15.484  26.455  0.0600  0.1661  0.0026
31224DOD     C237492  28.541  15.448  26.866  0.0184 -0.2776  0.1226
31224DOD     C337493  28.805  15.677  27.115 -0.0908  0.0110 -0.1260
31225DOD     C137494  23.296  10.202   3.287 -0.2302 -0.2059  0.0520
31225DOD     C237495  22.841  10.255   3.405 -0.2698  0.1676 -0.0782
31225DOD     C337496  22.592  10.665   3.439  0.0067  0.2557 -0.0636
31226DOD     C137497   4.783  25.913   1.165  0.2646 -0.3020 -0.2594
31226DOD     C237498   4.786  25.514   1.340 -0.2334 -0.1083  0.1283
31226DOD     C337499   4.642  25.271   1.681 -0.1895  0.0529  0.0565
31227DOD     C137500  23.012  13.573   3.008 -0.0482 -0.2640  0.4285
31227DOD     C237501  22.890  13.165   2.803 -0.0114 -0.1546 -0.1371
31227DOD     C337502  23.022  12.779   2.577 -0.0850  0.1671  0.0249
31228DOD     C137503  20.909   2.415  11.917 -0.0726 -0.0515 -0.1558
31228DOD     C237504  21.009   2.634  11.567  0.2542 -0.1573  0.0602
31228DOD     C337505  21.028   2.443  11.125  0.1742 -0.3112  0.2379
31229DOD     C137506  10.111  21.290  21.350  0.3722  0.0852 -0.1944
31229DOD     C237507  10.423  21.417  21.662 -0.0687  0.1297  0.2681
31229DOD     C337508  10.182  21.706  22.002 -0.3426  0.1074  0.0768
31230DOD     C137509  22.686  24.900   7.232 -0.1469  0.0703  0.0525
31230DOD     C237510  23.069  24.689   7.448  0.2189 -0.0491 -0.2053
31230DOD     C337511  23.558  24.555   7.474  0.0427 -0.1589  0.0065
31231DOD     C137512  27.048  19.207  20.879 -0.0133 -0.0170 -0.1833
31231DOD     C237513  26.861  19.410  20.533  0.0087 -0.1575 -0.1689
31231DOD     C337514  26.609  19.488  20.148 -0.3031 -0.2166  0.1932
31232DOD     C137515  15.220   4.669   7.914  0.0874 -0.3627 -0.1509
31232DOD     C237516  15.165   4.616   7.476  0.0934  0.0823 -0.0763
31232DOD     C337517  15.300   4.499   7.040  0.2343 -0.2544  0.0797
31233DOD     C137518  20.614  17.521  18.752 -0.3580  0.0367  0.1056
31233DOD     C237519  20.771  17.939  18.634 -0.0574 -0.1972 -0.0536
31233DOD     C337520  21.046  18.298  18.614  0.5724  0.0783 -0.1578
31234DOD     C137521  10.689  26.618  13.044  0.3107 -0.0895  0.3675
31234DOD     C237522  11.109  26.835  13.022 -0.1081 -0.1018  0.0859
31234DOD     C337523  11.598  26.872  13.050 -0.2665 -0.2000 -0.1893
31235DOD     C137524  11.128  27.191  11.898 -0.1997  0.0743 -0.0668
31235DOD     C237525  11.565  27.212  11.928  0.0434 -0.1805 -0.3367
31235DOD     C337526  11.751  27.306  12.391  0.1884 -0.1820  0.1850
31236DOD     C137527  18.065  21.699  23.329  0.1479  0.2429  0.4723
31236DOD     C237528  18.402  21.485  23.070  0.3013 -0.0083  0.1230
31236DOD     C337529  18.760  21.157  22.837  0.3784 -0.0975  0.0684
31237DOD     C137530  15.428   8.804   9.562 -0.4098  0.4495 -0.1883
31237DOD     C237531  15.110   8.891   9.273  0.0876  0.1207  0.0183
31237DOD     C337532  14.871   9.172   8.951  0.1791  0.0262  0.0261
31238DOD     C137533  14.906   7.474  14.505 -0.2048 -0.0016  0.0490
31238DOD     C237534  15.021   7.776  14.168 -0.0330  0.1158  0.2758
31238DOD     C337535  15.025   7.800  13.686 -0.1578 -0.1192 -0.3391
31239DOD     C137536  11.063  30.114  19.688  0.0779  0.1689  0.0504
31239DOD     C237537  10.877  29.773  19.958  0.1619  0.3087  0.2463
31239DOD     C337538  10.455  29.761  20.121 -0.1764 -0.4081  0.0189
31240DOD     C137539  27.675  23.330  29.254  0.0634 -0.3795 -0.2078
31240DOD     C237540  28.060  23.111  29.085 -0.1992 -0.1143 -0.3933
31240DOD     C337541  28.405  22.874  29.324  0.0555  0.1619  0.1554
31241DOD     C137542   0.925   4.532  18.812  0.0745 -0.0246 -0.2698
31241DOD     C237543   1.254   4.889  18.748 -0.1088 -0.1886 -0.0979
31241DOD     C337544   1.475   5.281  18.534 -0.3599 -0.1018 -0.0827
31242DOD     C137545  23.066   1.874  12.516  0.3515 -0.1107 -0.2707
31242DOD     C237546  23.521   1.947  12.504  0.1633  0.3294 -0.0365
31242DOD     C337547  23.984   1.880  12.280 -0.0319 -0.1443 -0.0124
31243DOD     C137548   5.397  18.137  22.404 -0.0365 -0.3088 -0.2557
31243DOD     C237549   5.644  18.570  22.422 -0.0993  0.1451 -0.0368
31243DOD     C337550   6.064  18.678  22.291 -0.1563  0.3811  0.0665
31244DOD     C137551  15.553   9.127   2.782 -0.2076  0.1871 -0.4363
31244DOD     C237552  15.292   9.524   2.800  0.1952  0.3588  0.3258
31244DOD     C337553  15.236   9.996   2.958  0.2117  0.2587 -0.0632
31245DOD     C137554   9.860  26.445  24.831 -0.1199  0.2586  0.0251
31245DOD     C237555   9.776  26.765  25.090 -0.2759 -0.0928 -0.1783
31245DOD     C337556  10.057  26.967  25.489 -0.2026 -0.1784 -0.2348
31246DOD     C137557  11.044   1.564  28.979 -0.3687  0.1539  0.0952
31246DOD     C237558  11.144   1.451  29.401  0.1896 -0.0069 -0.3495
31246DOD     C337559  11.279   1.672  29.761  0.2075  0.1295 -0.1957
31247DOD     C137560  17.781  17.013  18.494 -0.1928  0.1411 -0.0383
31247DOD     C237561  17.844  16.742  18.112 -0.0992 -0.2043 -0.0611
31247DOD     C337562  17.804  16.566  17.646 -0.0859 -0.2490  0.2539
31248DOD     C137563  24.390  11.775  13.040 -0.0396  0.1467  0.3243
31248DOD     C237564  24.678  11.545  13.341 -0.1360 -0.1786 -0.0167
31248DOD     C337565  24.980  11.516  13.700 -0.0823  0.3094  0.0484
31249DOD     C137566  12.871  13.555  23.172 -0.1069 -0.3128  0.2278
31249DOD     C237567  12.676  13.409  22.734  0.0518  0.2202 -0.0466
31249DOD     C337568  12.534  13.318  22.316 -0.0552 -0.0645  0.2344
31250DOD     C137569  14.097   8.833  10.598 -0.1459 -0.2802 -0.0511
31250DOD     C237570  14.419   8.615  10.345 -0.2199  0.0093  0.0066
31250DOD     C337571  14.650   8.365  10.088 -0.1643  0.0240  0.2007
31251DOD     C137572  26.021  19.197   4.325  0.0787 -0.0812 -0.1696
31251DOD     C237573  25.926  19.654   4.397  0.1940  0.3564 -0.0595
31251DOD     C337574  25.905  20.093   4.241  0.0177  0.1062 -0.0168
31252DOD     C137575  21.719   3.048   4.808  0.1188  0.1201  0.1816
31252DOD     C237576  21.812   2.725   5.145 -0.3847  0.1181  0.0013
31252DOD     C337577  21.582   2.399   5.468  0.0206  0.0342 -0.1180
31253DOD     C137578  17.706  22.544  29.343  0.1414  0.4458  0.2272
31253DOD     C237579  17.990  22.526  29.679 -0.0933 -0.0506 -0.0385
31253DOD     C337580  18.089  22.371  30.086  0.0644 -0.2008  0.2029
31254DOD     C137581   0.308  28.387   0.520  0.0491 -0.0641 -0.4020
31254DOD     C237582   0.576  28.386   0.882  0.3056  0.0751 -0.0251
31254DOD     C337583   0.980  28.538   1.021  0.0519  0.3334 -0.0494
31255DOD     C137584  27.009  20.832  19.788 -0.2593 -0.0746  0.1567
31255DOD     C237585  27.106  20.566  20.220  0.0485  0.0352 -0.2774
31255DOD     C337586  27.184  20.215  20.518  0.1126 -0.0907  0.3493
31256DOD     C137587   5.959  19.946  13.761 -0.2070 -0.2065  0.1785
31256DOD     C237588   5.521  20.096  13.575 -0.0055 -0.0737 -0.0599
31256DOD     C337589   5.325  20.484  13.414 -0.0455 -0.1919 -0.2131
31257DOD     C137590   7.976   5.388  24.052 -0.1440 -0.2715 -0.0419
31257DOD     C237591   7.798   5.526  23.666 -0.4742  0.2508  0.1862
31257DOD     C337592   7.593   5.506  23.260  0.0761 -0.1325 -0.0684
31258DOD     C137593  24.449   0.336  18.155  0.1115  0.1063  0.1179
31258DOD     C237594  24.166   0.677  18.267  0.3447 -0.1171  0.1773
31258DOD     C337595  24.278   1.027  18.506  0.3175  0.0574 -0.4792
31259DOD     C137596   4.936   9.282  25.590  0.0122  0.0783  0.1743
31259DOD     C237597   5.034   9.708  25.715  0.0532  0.2284 -0.3103
31259DOD     C337598   5.395  10.033  25.875  0.0926  0.0680  0.2933
31260DOD     C137599  28.740   2.819  26.095 -0.1429  0.0463 -0.2500
31260DOD     C237600  28.407   2.581  25.888 -0.0087 -0.3434 -0.2705
31260DOD     C337601  28.398   2.172  25.758 -0.1299 -0.2386 -0.0239
31261DOD     C137602  26.327  13.635  28.400 -0.0079  0.1175 -0.1285
31261DOD     C237603  26.388  14.015  28.650  0.1319  0.0129 -0.2104
31261DOD     C337604  26.551  14.393  28.911 -0.0149  0.0124 -0.0820
31262DOD     C137605  27.396  17.016  20.960  0.1629 -0.3295  0.0478
31262DOD     C237606  27.374  16.661  20.670 -0.2915 -0.4103  0.0802
31262DOD     C337607  27.284  16.438  20.276 -0.1933  0.2062 -0.0532
31263DOD     C137608  11.574   6.589   4.283 -0.0079 -0.0554 -0.1952
31263DOD     C237609  11.715   7.001   4.068 -0.1528  0.3139 -0.0137
31263DOD     C337610  11.769   7.469   4.143 -0.1428 -0.1178 -0.1556
31264DOD     C137611   7.197  21.172  27.194  0.2362  0.1963 -0.2327
31264DOD     C237612   7.069  21.266  26.705 -0.2802  0.0586  0.2298
31264DOD     C337613   7.291  21.170  26.309 -0.0234 -0.0807 -0.3237
31265DOD     C137614   7.873  26.998  24.325  0.0581  0.0607 -0.0638
31265DOD     C237615   7.649  26.734  24.618 -0.0049 -0.0029 -0.1425
31265DOD     C337616   7.258  26.504  24.642 -0.1459  0.2268  0.0488
31266DOD     C137617  28.373  24.020  28.098 -0.2623  0.0198  0.2875
31266DOD     C237618  28.064  24.386  28.049 -0.1445  0.2675 -0.1190
31266DOD     C337619  27.628  24.515  28.109  0.3156  0.0492 -0.1989
31267DOD     C137620   5.718   6.773  26.637 -0.1956 -0.0987  0.1274
31267DOD     C237621   6.089   6.999  26.511 -0.1079 -0.2970  0.1697
31267DOD     C337622   6.523   7.123  26.598  0.0814 -0.1634 -0.3007
31268DOD     C137623  17.495  18.452  25.080 -0.1220 -0.0076 -0.1590
31268DOD     C237624  17.429  18.184  24.723  0.3370  0.1513  0.1642
31268DOD     C337625  17.278  18.294  24.295  0.2178  0.1241 -0.4526
31269DOD     C137626  12.687  23.855  17.404  0.0607 -0.1373 -0.2216
31269DOD     C237627  12.600  24.269  17.217 -0.1738  0.0101  0.0217
31269DOD     C337628  12.796  24.559  16.889 -0.1184 -0.0146  0.2232
31270DOD     C137629  26.300  20.797  14.477  0.3060 -0.0594  0.0923
31270DOD     C237630  26.654  20.557  14.644  0.0027  0.0004  0.0671
31270DOD     C337631  27.052  20.689  14.775  0.0282  0.2482  0.2132
31271DOD     C137632  17.810  18.197  22.808  0.3747 -0.0017  0.2922
31271DOD     C237633  18.226  18.019  22.761  0.2407  0.0030  0.1701
31271DOD     C337634  18.675  17.920  22.936  0.0565 -0.0062  0.0332
31272DOD     C137635   7.862  22.183  15.420  0.2660  0.1760 -0.0987
31272DOD     C237636   8.200  21.832  15.436 -0.1265  0.3618 -0.2856
31272DOD     C337637   8.604  21.686  15.301 -0.0722 -0.0329  0.2957
31273DOD     C137638  19.588  18.469  20.894 -0.2774 -0.2566 -0.0623
31273DOD     C237639  19.415  18.102  21.195 -0.2015 -0.2961  0.1693
31273DOD     C337640  19.419  17.892  21.572  0.0896  0.3334 -0.0918
31274DOD     C137641  28.962   1.252   9.139  0.1303  0.0085  0.1625
31274DOD     C237642  28.675   1.033   8.825 -0.1529  0.1005  0.0892
31274DOD     C337643  28.380   0.675   8.846 -0.1582  0.1982  0.0927
31275DOD     C137644   3.608  17.704   8.150  0.1883  0.2327 -0.3829
31275DOD     C237645   3.714  17.310   8.389 -0.1897  0.3814  0.1498
31275DOD     C337646   3.883  17.003   8.744  0.1237  0.2269 -0.3479
31276DOD     C137647   4.958  17.926  28.687  0.1979  0.0014  0.1375
31276DOD     C237648   5.180  18.315  28.640  0.0012 -0.2752  0.0607
31276DOD     C337649   5.574  18.563  28.586  0.0579  0.0219 -0.1724
31277DOD     C137650   6.803  19.699  16.285 -0.0695  0.2472 -0.0712
31277DOD     C237651   6.760  19.340  16.624  0.0618 -0.1841 -0.0850
31277DOD     C337652   7.026  18.968  16.704  0.0784  0.2713 -0.0160
31278DOD     C137653  19.235   7.472  18.727  0.4608 -0.0457  0.0001
31278DOD     C237654  19.370   7.239  18.334 -0.3304  0.0609  0.2508
31278DOD     C337655  19.038   6.920  18.236 -0.1077 -0.1638  0.2050
31279DOD     C137656   8.817  17.228  22.059  0.2784  0.0349 -0.0599
31279DOD     C237657   8.417  17.469  22.217 -0.1185  0.1571  0.1177
31279DOD     C337658   8.599  17.911  22.310  0.2162  0.2267  0.1321
31280DOD     C137659  24.361  17.470   8.658 -0.1021  0.0629  0.0574
31280DOD     C237660  24.274  17.282   8.218  0.0240  0.0599  0.2604
31280DOD     C337661  24.201  17.259   7.707  0.0197 -0.0474  0.0644
31281DOD     C137662   3.963   1.188   4.003  0.1322  0.0348  0.0101
31281DOD     C237663   3.710   1.255   4.413  0.0695 -0.0883  0.2682
31281DOD     C337664   3.683   1.356   4.861 -0.2348 -0.0886  0.2463
31282DOD     C137665  29.860   6.126  18.534  0.0338 -0.1719  0.1800
31282DOD     C237666   0.013   6.158  18.477  0.1530 -0.1072  0.1525
31282DOD     C337667   0.495   6.237  18.605  0.0471  0.1261  0.2447
31283DOD     C137668  29.706  25.974  13.325 -0.0654  0.2442  0.0548
31283DOD     C237669  30.068  26.124  13.596 -0.1263  0.3130 -0.3625
31283DOD     C337670  30.209  26.288  14.017  0.0830  0.2740 -0.3168
31284DOD     C137671  22.777  27.809   8.711 -0.0873  0.1402  0.0804
31284DOD     C237672  23.108  27.921   8.979  0.1229 -0.1560  0.1952
31284DOD     C337673  23.357  27.926   9.408 -0.2287 -0.1219 -0.1847
31285DOD     C137674   0.195   9.222  28.516  0.2926 -0.0060 -0.2472
31285DOD     C237675   0.239   8.966  28.147  0.0679 -0.2468 -0.0190
31285DOD     C337676   0.517   8.718  27.873 -0.0318  0.1644  0.0515
31286DOD     C137677  11.654  23.582   0.234  0.0754  0.3200 -0.0575
31286DOD     C237678  11.527  24.007   0.091  0.1557  0.1273 -0.1000
31286DOD     C337679  11.392  24.411   0.318  0.0383  0.0760 -0.3496
31287DOD     C137680  13.353  16.183  21.557 -0.2127 -0.0476 -0.1618
31287DOD     C237681  13.450  16.387  21.951 -0.2414 -0.0394  0.0455
31287DOD     C337682  13.398  16.596  22.399  0.1234  0.0115 -0.0099
31288DOD     C137683   1.577   2.134   9.104  0.0408  0.2939  0.2015
31288DOD     C237684   1.555   1.676   9.014  0.0307  0.1269 -0.0008
31288DOD     C337685   1.926   1.453   8.844  0.1016 -0.1716  0.0500
31289DOD     C137686  29.848  17.387  11.753 -0.2788  0.2663 -0.2117
31289DOD     C237687  29.831  17.345  12.269 -0.0564  0.0078  0.1559
31289DOD     C337688  29.977  17.037  12.560  0.0048  0.2163 -0.1595
31290DOD     C137689  22.980  19.490   2.840 -0.0399  0.2472  0.1954
31290DOD     C237690  23.015  19.626   2.403  0.2312  0.2908  0.0683
31290DOD     C337691  23.093  19.784   1.985  0.2423  0.2301  0.0836
31291DOD     C137692   1.329  16.764  25.496 -0.0603  0.3950  0.1001
31291DOD     C237693   1.253  16.860  25.075 -0.0665  0.0412  0.0202
31291DOD     C337694   0.934  16.874  24.755  0.1664  0.3724  0.1888
31292DOD     C137695  11.210   0.057  19.303  0.0070  0.1913  0.1399
31292DOD     C237696  10.807   0.350  19.245  0.0239  0.3047 -0.0369
31292DOD     C337697  10.410   0.285  19.295 -0.0272 -0.1569  0.1185
31293DOD     C137698  20.615  26.111  26.668  0.3549  0.0380  0.0585
31293DOD     C237699  21.076  25.992  26.666  0.2626  0.2288 -0.3860
31293DOD     C337700  21.416  25.882  26.368  0.1725  0.0116 -0.3035
31294DOD     C137701  22.029  26.179  14.794  0.0886  0.2147  0.0141
31294DOD     C237702  22.175  25.770  14.888 -0.2411  0.2015 -0.1323
31294DOD     C337703  22.628  25.645  14.910  0.0063  0.0850 -0.3384
31295DOD     C137704  21.415  21.760  27.579 -0.1383 -0.0831  0.2183
31295DOD     C237705  21.406  22.190  27.808 -0.1316  0.0480  0.0555
31295DOD     C337706  21.290  22.634  27.915 -0.1227  0.1261  0.4912
31296DOD     C137707  20.250   9.557   4.971 -0.1451 -0.1660 -0.0497
31296DOD     C237708  19.931   9.450   4.635  0.1078 -0.0616 -0.0300
31296DOD     C337709  19.679   9.249   4.306  0.0085 -0.0331  0.1595
31297DOD     C137710   6.305  26.715   2.121  0.2226  0.1448 -0.0254
31297DOD     C237711   5.942  26.815   2.313 -0.2121  0.4171  0.2310
31297DOD     C337712   5.527  27.078   2.319 -0.2046  0.5800  0.2117
31298DOD     C137713   9.988  29.553  12.667  0.0136 -0.0591 -0.2179
31298DOD     C237714  10.053  29.456  12.189  0.0939  0.3678  0.0489
31298DOD     C337715   9.949  29.164  11.816 -0.0830 -0.0004 -0.0563
31299DOD     C137716  24.381   0.313   7.853  0.2561  0.0725  0.1230
31299DOD     C237717  24.749   0.175   7.618 -0.1782  0.3422  0.1136
31299DOD     C337718  25.155   0.052   7.404  0.2581  0.3065  0.0577
31300DOD     C137719   1.604  17.756  26.618  0.0119  0.0295 -0.1210
31300DOD     C237720   1.279  17.807  26.965  0.2903  0.0831  0.0396
31300DOD     C337721   1.295  18.254  27.058  0.2660  0.0880 -0.1631
31301DOD     C137722  20.618  17.072   1.816  0.1676 -0.0529  0.0031
31301DOD     C237723  20.784  16.679   1.830 -0.1526  0.0740 -0.0923
31301DOD     C337724  20.710  16.331   2.193  0.0559  0.1123 -0.1577
31302DOD     C137725   7.815  11.455  14.765 -0.0235  0.1577  0.0052
31302DOD     C237726   8.181  11.270  14.930  0.3625 -0.3348  0.0994
31302DOD     C337727   8.579  11.152  15.030  0.1079 -0.1630 -0.0291
31303DOD     C137728  27.148  29.102   2.023  0.0599  0.0090  0.3840
31303DOD     C237729  26.779  29.162   2.342  0.1018 -0.1667  0.1692
31303DOD     C337730  26.826  29.011   2.801  0.0306  0.2297 -0.0542
31304DOD     C137731  16.788  18.983  16.242 -0.0252 -0.1217 -0.1200
31304DOD     C237732  16.575  19.041  15.800 -0.2230 -0.2085  0.1591
31304DOD     C337733  16.303  19.213  15.477  0.2818  0.1367 -0.0901
31305DOD     C137734  20.541  18.564  13.110  0.1917 -0.2817  0.0014
31305DOD     C237735  20.706  18.987  13.047  0.1057  0.1619 -0.0840
31305DOD     C337736  20.720  19.346  13.336 -0.2225  0.1270 -0.2937
31306DOD     C137737  25.535  17.457  11.342  0.4689  0.1806 -0.0576
31306DOD     C237738  25.983  17.515  11.224  0.0984 -0.0901  0.0837
31306DOD     C337739  26.396  17.599  11.011 -0.1258  0.0723 -0.0218
31307DOD     C137740   2.356  11.405  18.664 -0.3015  0.2034  0.0195
31307DOD     C237741   2.255  11.329  19.103 -0.0514 -0.0276  0.1987
31307DOD     C337742   1.916  11.195  19.325  0.1780  0.2952  0.2125
31308DOD     C137743  12.045   8.421  11.864  0.0094  0.4622 -0.0943
31308DOD     C237744  12.531   8.371  11.760 -0.2760  0.1534  0.2450
31308DOD     C337745  12.925   8.233  11.989  0.2342  0.1431  0.1072
31309DOD     C137746   3.752  11.287  10.929  0.2685 -0.1688 -0.3802
31309DOD     C237747   3.419  11.565  10.719 -0.1583  0.1990  0.0731
31309DOD     C337748   3.218  11.891  10.497  0.2067  0.1935  0.1469
31310DOD     C137749   5.005  13.692  11.621  0.2658 -0.2704  0.2206
31310DOD     C237750   4.795  13.349  11.781 -0.0582 -0.3200  0.2953
31310DOD     C337751   4.803  13.109  12.161  0.4036  0.0161 -0.1700
31311DOD     C137752  28.983   4.918  20.576  0.0665  0.4696 -0.3059
31311DOD     C237753  28.810   5.013  20.166  0.2115 -0.0808 -0.0871
31311DOD     C337754  29.011   5.154  19.782 -0.1452 -0.1915 -0.0994
31312DOD     C137755  28.208   6.775  10.944  0.1730  0.0403 -0.2476
31312DOD     C237756  27.826   6.616  10.638  0.0012 -0.0545  0.0128
31312DOD     C337757  27.570   6.410  10.248  0.1405  0.0719  0.1566
31313DOD     C137758  13.838  18.217  13.956 -0.3029 -0.3444 -0.4329
31313DOD     C237759  14.109  18.506  14.186 -0.1749  0.0071  0.1120
31313DOD     C337760  14.361  18.757  14.527  0.2717  0.4747  0.4282
31314DOD     C137761   1.091  14.910  24.443  0.0612 -0.3234 -0.0201
31314DOD     C237762   0.869  14.688  24.055 -0.0890 -0.3324  0.0845
31314DOD     C337763   0.570  14.731  23.687  0.0249  0.0410 -0.0261
31315DOD     C137764   8.258  19.110  29.445 -0.0314  0.3678  0.1229
31315DOD     C237765   8.007  19.266  29.846 -0.0276 -0.2068  0.2683
31315DOD     C337766   7.985  19.505  30.221 -0.0203 -0.2567 -0.0898
31316DOD     C137767  27.651   8.710  10.905 -0.1743  0.4070 -0.2359
31316DOD     C237768  27.847   8.334  11.070 -0.0004 -0.0198 -0.0917
31316DOD     C337769  28.161   8.168  11.388 -0.1509  0.0739  0.0367
31317DOD     C137770  11.698   5.498  13.866 -0.0916  0.0276  0.0862
31317DOD     C237771  11.265   5.492  13.748  0.3625  0.1797  0.3607
31317DOD     C337772  11.204   5.537  13.333 -0.0818  0.0568 -0.0846
31318DOD     C137773  26.881  24.305  25.732 -0.0036 -0.0885 -0.3014
31318DOD     C237774  27.172  24.557  25.456  0.4351 -0.2625  0.0637
31318DOD     C337775  27.187  24.901  25.095 -0.1259  0.0212  0.0644
31319DOD     C137776  10.902   6.844  27.867  0.2506 -0.0905 -0.1827
31319DOD     C237777  10.738   7.239  28.030 -0.0540  0.0825  0.2303
31319DOD     C337778  10.628   7.349  28.439  0.0558 -0.1321  0.5062
31320DOD     C137779   1.689  13.381  14.690 -0.3901 -0.3583  0.2333
31320DOD     C237780   1.533  12.973  14.870  0.0109  0.1322  0.0988
31320DOD     C337781   1.436  12.555  15.017 -0.2142 -0.4285  0.0310
31321DOD     C137782  11.981  24.459  10.710  0.0848  0.3706 -0.1153
31321DOD     C237783  11.567  24.557  10.487  0.0649 -0.0481  0.5196
31321DOD     C337784  11.472  24.963  10.283 -0.1620 -0.1218  0.0686
31322DOD     C137785  16.410  24.738   0.541  0.2164 -0.1253  0.2189
31322DOD     C237786  16.144  24.503   0.175  0.6042  0.0214  0.2971
31322DOD     C337787  15.693  24.352   0.061 -0.1290 -0.1635  0.0967
31323DOD     C137788   1.850  18.267  11.818  0.1203  0.2374  0.1008
31323DOD     C237789   1.603  18.136  11.463  0.0408 -0.2306 -0.0569
31323DOD     C337790   1.490  18.416  11.081 -0.0668  0.1637 -0.0644
31324DOD     C137791  12.279  20.139  22.149  0.4525 -0.2054 -0.1421
31324DOD     C237792  12.534  20.328  22.437 -0.1989 -0.3984 -0.3543
31324DOD     C337793  12.810  20.609  22.692  0.0256  0.1715  0.2829
31325DOD     C137794  27.165  15.856  16.882  0.1759  0.0677  0.0187
31325DOD     C237795  27.026  16.268  16.684  0.3393  0.3463  0.0633
31325DOD     C337796  27.035  16.664  16.608 -0.1772 -0.3422  0.1649
31326DOD     C137797  21.171  24.435  15.045 -0.3784 -0.1442 -0.0101
31326DOD     C237798  21.329  24.479  14.613  0.0405 -0.3609 -0.4505
31326DOD     C337799  21.817  24.602  14.412  0.1483 -0.0770  0.1498
31327DOD     C137800  24.902  16.219  29.151 -0.0554 -0.2210 -0.0210
31327DOD     C237801  24.992  16.632  29.373 -0.1194 -0.0664  0.0659
31327DOD     C337802  25.307  16.870  29.638 -0.0973 -0.0500 -0.0513
31328DOD     C137803   3.047   5.632  17.538  0.0645  0.0743  0.0738
31328DOD     C237804   3.063   5.823  17.961  0.0815 -0.0006 -0.0335
31328DOD     C337805   3.092   6.128  18.329  0.0112  0.4091  0.0399
31329DOD     C137806   3.422   6.032   4.030 -0.1026 -0.0639 -0.0651
31329DOD     C237807   3.821   6.313   3.983 -0.0872 -0.0440 -0.0858
31329DOD     C337808   3.968   6.776   3.976 -0.0973 -0.0841 -0.0347
31330DOD     C137809  18.102   2.476   2.106  0.0181  0.1138 -0.0811
31330DOD     C237810  18.162   2.460   1.627  0.0775  0.1852 -0.2419
31330DOD     C337811  18.378   2.680   1.310 -0.0234 -0.1355  0.1765
31331DOD     C137812  10.102  29.007  26.530 -0.1470  0.1428  0.1051
31331DOD     C237813   9.684  29.039  26.742 -0.0995 -0.3979 -0.1753
31331DOD     C337814   9.276  28.982  26.959 -0.0266 -0.1502  0.3183
31332DOD     C137815  18.026  17.077   0.224  0.0618  0.1032 -0.0484
31332DOD     C237816  17.962  16.657   0.411 -0.1125 -0.0685  0.1085
31332DOD     C337817  18.037  16.223   0.230  0.0410 -0.1393  0.1479
31333DOD     C137818  10.629   5.188   5.836  0.0999  0.2616 -0.1506
31333DOD     C237819  10.989   4.897   5.980 -0.1036  0.3162 -0.1542
31333DOD     C337820  11.164   4.607   6.292 -0.1161  0.1668 -0.0823
31334DOD     C137821  11.448  23.454  23.619  0.0054  0.0629  0.2829
31334DOD     C237822  11.147  23.136  23.464  0.1894  0.0117 -0.0055
31334DOD     C337823  10.817  22.801  23.430  0.0572  0.0119 -0.1080
31335DOD     C137824  26.381  29.777  27.467 -0.3282  0.1096 -0.1059
31335DOD     C237825  26.013  29.546  27.297 -0.0025  0.0400  0.2449
31335DOD     C337826  25.590  29.505  27.483  0.0229 -0.0778 -0.0807
31336DOD     C137827   6.617  27.759  21.098 -0.1662  0.0774 -0.0848
31336DOD     C237828   6.518  27.480  21.383 -0.0847  0.2320 -0.1460
31336DOD     C337829   6.738  27.337  21.734  0.1816 -0.1051  0.1213
31337DOD     C137830   8.424  10.835  18.805  0.1938  0.0948  0.0412
31337DOD     C237831   8.234  10.772  18.434 -0.2435  0.0496 -0.0668
31337DOD     C337832   8.107  10.991  18.036 -0.1862  0.1018 -0.2374
31338DOD     C137833   8.433   9.952  23.987 -0.3612 -0.3299 -0.0034
31338DOD     C237834   8.522   9.510  24.058 -0.0526  0.1039 -0.0720
31338DOD     C337835   8.402   9.067  24.121  0.0176  0.0928  0.0214
31339DOD     C137836  30.032  20.173  23.736 -0.3226  0.1028  0.0345
31339DOD     C237837  30.138  19.767  23.920 -0.0243 -0.2908 -0.2369
31339DOD     C337838  -0.015  19.308  23.906 -0.2295 -0.2716 -0.0364
31340DOD     C137839   5.186   7.639   9.740  0.1147 -0.0748 -0.1862
31340DOD     C237840   4.881   7.963   9.649  0.0628 -0.2384  0.0571
31340DOD     C337841   4.489   8.256   9.808  0.3346  0.0261  0.1208
31341DOD     C137842   7.999  29.564  10.230 -0.4862 -0.1585  0.1902
31341DOD     C237843   8.274  29.179  10.277 -0.0596 -0.2173 -0.0782
31341DOD     C337844   8.346  28.871  10.660 -0.1421 -0.1932  0.1510
31342DOD     C137845  17.715  14.012   9.730 -0.0225 -0.0451 -0.1881
31342DOD     C237846  17.861  14.406   9.440  0.1932 -0.3107  0.0648
31342DOD     C337847  18.143  14.786   9.462  0.2683 -0.1430 -0.0304
31343DOD     C137848  27.906  18.119   8.315  0.0157 -0.0449 -0.2298
31343DOD     C237849  27.832  18.057   7.857  0.0579 -0.2781 -0.0974
31343DOD     C337850  27.435  17.884   7.779 -0.1948 -0.2253 -0.1288
31344DOD     C137851  17.053   2.404   0.062 -0.0418  0.3696  0.2393
31344DOD     C237852  16.654   2.194   0.044  0.1852  0.2060  0.0576
31344DOD     C337853  16.176   2.133  30.314  0.2674  0.0906  0.0190
31345DOD     C137854  29.102   8.879   5.331  0.4416 -0.0832 -0.2048
31345DOD     C237855  29.284   8.549   5.090 -0.0988  0.0560  0.2520
31345DOD     C337856  29.459   8.173   5.216 -0.3071  0.2624 -0.1968
31346DOD     C137857  28.799   8.674  11.166 -0.0630  0.0660  0.1896
31346DOD     C237858  28.739   8.316  11.463 -0.1055 -0.0952 -0.0356
31346DOD     C337859  28.957   7.996  11.739 -0.5742  0.1087  0.1559
31347DOD     C137860  14.112   8.722  21.935  0.3304 -0.0288 -0.1858
31347DOD     C237861  13.683   8.954  21.906 -0.1004  0.0842 -0.0162
31347DOD     C337862  13.315   9.090  21.608  0.0867  0.2682  0.0601
31348DOD     C137863   6.082  20.992  23.293  0.2195 -0.1725  0.0204
31348DOD     C237864   6.044  20.587  23.100 -0.1857 -0.0505 -0.0070
31348DOD     C337865   6.087  20.135  23.022  0.1753 -0.2325 -0.0208
31349DOD     C137866  18.310   1.313   2.399 -0.0519 -0.1111 -0.2631
31349DOD     C237867  17.971   1.510   2.540  0.1160  0.0249  0.3497
31349DOD     C337868  17.909   1.831   2.893 -0.0362  0.2327 -0.4171
31350DOD     C137869   5.234  13.880  18.796  0.1143  0.2828 -0.3372
31350DOD     C237870   5.318  14.084  19.192 -0.1485  0.1802  0.0339
31350DOD     C337871   5.477  14.485  19.313 -0.1506 -0.1807 -0.0437
31351DOD     C137872   6.012  11.634  21.008  0.2660  0.2204  0.2300
31351DOD     C237873   6.080  11.212  20.826 -0.2121 -0.5506 -0.1933
31351DOD     C337874   5.997  10.747  20.688  0.1066 -0.1044  0.4848
31352DOD     C137875   0.721  12.837   5.540  0.2691 -0.0470  0.0706
31352DOD     C237876   0.520  13.209   5.330 -0.0272 -0.3399 -0.1189
31352DOD     C337877   0.087  13.299   5.365  0.1172 -0.1874  0.1183
31353DOD     C137878  28.897  15.991   7.508  0.1320  0.0247 -0.0902
31353DOD     C237879  28.762  16.258   7.171 -0.0578  0.4169 -0.0350
31353DOD     C337880  28.460  16.613   7.027 -0.2393  0.2686 -0.1839
31354DOD     C137881  28.902  17.574   4.757 -0.0774 -0.1006  0.2443
31354DOD     C237882  29.230  17.675   5.071  0.0613 -0.0020  0.3535
31354DOD     C337883  29.459  17.902   5.386  0.1161 -0.2040  0.1762
31355DOD     C137884  27.944  28.699  17.431 -0.1689 -0.4495  0.2075
31355DOD     C237885  27.994  29.091  17.654 -0.0585 -0.0440 -0.1851
31355DOD     C337886  27.978  29.089  18.179  0.2501  0.0080  0.0432
31356DOD     C137887   0.952  29.311   2.338 -0.1337  0.3649  0.1526
31356DOD     C237888   1.221  29.710   2.255  0.1816 -0.1548  0.3849
31356DOD     C337889   0.948  30.044   2.043 -0.0542  0.0571 -0.0406
31357DOD     C137890   6.627  24.296   2.041  0.1065 -0.1213 -0.2490
31357DOD     C237891   6.334  24.006   2.252 -0.2681 -0.2246 -0.0958
31357DOD     C337892   6.466  23.733   2.617 -0.1212  0.0373  0.2048
31358DOD     C137893  28.106  10.921   6.653 -0.0686 -0.1968  0.1439
31358DOD     C237894  27.806  11.301   6.800 -0.2539  0.0731  0.0768
31358DOD     C337895  27.697  11.717   6.974 -0.3623  0.3131 -0.0726
31359DOD     C137896  24.669  19.649   1.752 -0.2289  0.0289 -0.1205
31359DOD     C237897  25.039  19.659   2.014 -0.2389 -0.1552  0.0182
31359DOD     C337898  25.271  19.778   2.459  0.4133  0.0051 -0.4636
31360DOD     C137899  26.591   4.657  26.266 -0.3609  0.2739  0.0966
31360DOD     C237900  26.867   4.761  25.927  0.3327  0.1140 -0.0487
31360DOD     C337901  27.199   5.098  25.918  0.2043  0.1363 -0.0092
31361DOD     C137902  26.438  20.834   3.800 -0.2027  0.6155  0.2349
31361DOD     C237903  26.133  21.134   3.980 -0.1758  0.0594  0.1238
31361DOD     C337904  25.821  21.418   3.831 -0.0495  0.3355  0.0137
31362DOD     C137905  18.939  13.632  23.314  0.3161  0.2458 -0.0441
31362DOD     C237906  18.833  13.405  23.659  0.1166 -0.2937  0.0110
31362DOD     C337907  18.981  13.095  23.970  0.0001  0.0134 -0.0169
31363DOD     C137908   1.464   5.304   5.433  0.3579 -0.1505  0.1562
31363DOD     C237909   1.790   4.969   5.388  0.2839  0.5019 -0.1722
31363DOD     C337910   1.990   4.573   5.303 -0.5876 -0.0611 -0.0882
31364DOD     C137911  28.624   8.231   6.689  0.3200 -0.0820 -0.0963
31364DOD     C237912  28.281   8.134   7.007  0.1105  0.0476  0.3101
31364DOD     C337913  28.085   8.434   7.308  0.0623  0.0885 -0.1066
31365DOD     C137914   8.227   7.656   6.889 -0.1696  0.0008  0.0748
31365DOD     C237915   7.841   7.907   6.821 -0.0957 -0.2177 -0.1115
31365DOD     C337916   7.392   8.163   6.819 -0.1027 -0.1330  0.0722
31366DOD     C137917   0.688   8.810   9.218  0.1449 -0.1031 -0.0569
31366DOD     C237918   0.226   8.690   9.290 -0.1100 -0.1619 -0.2794
31366DOD     C337919   0.110   8.548   9.699  0.3046  0.3343  0.4123
31367DOD     C137920  16.743  20.733  27.127  0.2161  0.0189  0.3906
31367DOD     C237921  16.392  20.783  27.417 -0.0479 -0.3066  0.1363
31367DOD     C337922  16.037  20.787  27.688 -0.0038 -0.1321 -0.0009
31368DOD     C137923  11.653  12.138  22.316  0.0782 -0.2776  0.0756
31368DOD     C237924  11.865  12.257  21.919  0.0187  0.1700 -0.2110
31368DOD     C337925  12.174  12.500  21.724  0.2194 -0.0661  0.0193
31369DOD     C137926  23.465  21.528   2.674 -0.3599  0.1019  0.3548
31369DOD     C237927  23.358  21.292   2.255  0.1163 -0.1308  0.2118
31369DOD     C337928  23.221  20.877   2.196  0.0142  0.1525  0.0029
31370DOD     C137929   0.142  27.476  15.618  0.0072 -0.0320 -0.0994
31370DOD     C237930  30.084  27.577  15.890  0.0954 -0.2712  0.1650
31370DOD     C337931  29.867  27.411  16.322 -0.1046 -0.0636  0.1692
31371DOD     C137932   1.138  17.640  23.184 -0.0431  0.0726  0.0629
31371DOD     C237933   1.014  17.605  23.643 -0.3038 -0.1926  0.0181
31371DOD     C337934   0.678  17.385  23.945 -0.2665  0.0097  0.0866
31372DOD     C137935   3.938  24.478   6.402  0.0429 -0.3120 -0.0682
31372DOD     C237936   4.218  24.181   6.601 -0.0579  0.2205 -0.0523
31372DOD     C337937   4.575  23.841   6.557  0.1530 -0.2211 -0.3171
31373DOD     C137938  12.835  13.287  28.794 -0.0127 -0.1244 -0.2205
31373DOD     C237939  13.190  13.359  28.492 -0.3890 -0.2086 -0.2070
31373DOD     C337940  13.510  13.766  28.363 -0.0517  0.1302 -0.4370
31374DOD     C137941   3.586  26.424  15.454  0.1704  0.1154  0.2423
31374DOD     C237942   3.820  26.601  15.824 -0.0431  0.2591  0.0553
31374DOD     C337943   3.523  26.885  15.992 -0.1060  0.1025  0.1948
31375DOD     C137944  15.839  16.019  29.874 -0.2122 -0.0829 -0.1451
31375DOD     C237945  16.091  16.257  30.190 -0.0729 -0.2433  0.1692
31375DOD     C337946  16.240  16.667  30.158  0.0862 -0.0295  0.1669
31376DOD     C137947  24.641   7.059   4.880 -0.1999  0.2141 -0.0214
31376DOD     C237948  24.682   6.904   4.379 -0.2090  0.2079  0.1467
31376DOD     C337949  24.727   6.747   3.926 -0.2716  0.1974 -0.3149
31377DOD     C137950   8.314  22.661  23.611  0.0869  0.2288 -0.1265
31377DOD     C237951   8.327  22.698  24.098  0.0679  0.2436 -0.2862
31377DOD     C337952   8.297  22.820  24.580 -0.2234  0.0319 -0.1076
31378DOD     C137953   4.347  22.436  10.101 -0.0657 -0.1814  0.0400
31378DOD     C237954   4.179  22.869  10.039  0.1893  0.2126  0.4629
31378DOD     C337955   3.979  23.177   9.739  0.1652  0.1520 -0.0277
31379DOD     C137956  16.060  12.834  24.629  0.0833 -0.0629  0.0967
31379DOD     C237957  16.476  12.810  24.807  0.1928  0.1028 -0.0511
31379DOD     C337958  16.937  12.908  24.737 -0.0161  0.1301 -0.0779
31380DOD     C137959  16.856   2.445  15.442 -0.0690  0.1347  0.0021
31380DOD     C237960  16.764   2.910  15.501 -0.0741  0.1076  0.1219
31380DOD     C337961  16.800   3.384  15.385 -0.3424  0.0254  0.0694
31381DOD     C137962  28.902  17.446   3.874  0.0078  0.3026 -0.0276
31381DOD     C237963  28.661  17.274   3.494  0.1031  0.2270  0.2068
31381DOD     C337964  28.562  17.003   3.081 -0.0927  0.1166  0.3027
31382DOD     C137965  26.777  27.981  30.166  0.0445  0.1921 -0.1917
31382DOD     C237966  27.141  27.907  29.873  0.0695  0.0594  0.1440
31382DOD     C337967  27.593  27.785  29.965 -0.0828 -0.2248 -0.1918
31383DOD     C137968   2.586  28.345   5.215  0.0708  0.2297 -0.0471
31383DOD     C237969   2.856  27.922   5.290  0.1176 -0.2321  0.1452
31383DOD     C337970   3.296  27.794   5.174 -0.0919 -0.4493  0.0061
31384DOD     C137971  21.060   2.161   0.758  0.1816  0.1141 -0.2765
31384DOD     C237972  21.247   2.566   0.732 -0.2812 -0.1470 -0.1385
31384DOD     C337973  21.498   2.969   0.751 -0.0472 -0.1215  0.2591
31385DOD     C137974  15.150   8.703  21.005  0.4010  0.2936  0.0374
31385DOD     C237975  15.153   9.103  20.897 -0.0529 -0.0845  0.2994
31385DOD     C337976  15.459   9.388  20.590  0.0408 -0.0935 -0.0888
31386DOD     C137977   1.347  27.244  23.272 -0.0695  0.1416 -0.1444
31386DOD     C237978   0.888  27.290  23.364  0.2178  0.1953 -0.2192
31386DOD     C337979   0.473  27.451  23.568  0.1237  0.1073 -0.0898
31387DOD     C137980  26.421   4.762   7.099 -0.0701  0.0180  0.0790
31387DOD     C237981  26.717   5.039   6.811  0.2617  0.3804 -0.0743
31387DOD     C337982  26.917   4.938   6.415  0.2387  0.2022 -0.2083
31388DOD     C137983  18.046   1.806   3.419  0.1980 -0.2596  0.0315
31388DOD     C237984  17.871   1.964   3.829 -0.3459  0.2479 -0.3445
31388DOD     C337985  18.067   2.229   4.157  0.0560 -0.0186  0.2455
31389DOD     C137986  21.273   0.083  21.196  0.0954  0.0890  0.2140
31389DOD     C237987  21.198   0.315  21.619 -0.0537  0.0155 -0.0125
31389DOD     C337988  20.881   0.400  21.967 -0.1959 -0.0750  0.0934
31390DOD     C137989  28.350  22.286   0.307 -0.3750  0.0640 -0.1850
31390DOD     C237990  28.454  22.612  30.335 -0.2256 -0.0418  0.3148
31390DOD     C337991  28.388  22.968  30.068 -0.0231  0.4189 -0.3319
31391DOD     C137992  16.645  19.200  22.336 -0.0370 -0.1274  0.0351
31391DOD     C237993  16.546  19.018  22.717 -0.3427 -0.0480 -0.1679
31391DOD     C337994  16.387  19.080  23.088  0.0419 -0.3363 -0.2710
31392DOD     C137995  16.476  26.795  11.985  0.2220  0.0437  0.4919
31392DOD     C237996  16.575  26.353  11.818  0.1342  0.1391  0.1125
31392DOD     C337997  16.941  26.096  11.671 -0.2228  0.0271 -0.0787
31393DOD     C137998   7.027  21.482  16.228  0.3626 -0.0267 -0.0315
31393DOD     C237999   6.976  21.016  16.219  0.1966  0.0334  0.0966
31393DOD     C338000   6.863  20.609  16.497 -0.1146  0.3301  0.0044
31394DOD     C138001  15.045   8.570  28.339  0.1959 -0.0054 -0.0727
31394DOD     C238002  15.424   8.698  28.607 -0.1716  0.0460  0.2762
31394DOD     C338003  15.470   8.705  29.037  0.2195  0.0440  0.0765
31395DOD     C138004   2.679  20.773   0.859  0.0451 -0.0070 -0.0737
31395DOD     C238005   2.451  21.182   0.971 -0.0610 -0.0249  0.3154
31395DOD     C338006   2.450  21.437   1.460  0.4014  0.0684 -0.1291
31396DOD     C138007  12.836   1.781  26.580 -0.0162  0.0943  0.0660
31396DOD     C238008  12.361   1.727  26.424 -0.1064 -0.2429 -0.1783
31396DOD     C338009  11.894   1.735  26.494 -0.0276  0.1433  0.4060
31397DOD     C138010  29.476  24.977  22.044  0.1102  0.0903 -0.0389
31397DOD     C238011  29.384  25.047  21.582  0.2076  0.1734  0.2702
31397DOD     C338012  29.511  24.721  21.324  0.3206 -0.2760  0.2460
31398DOD     C138013  22.626  28.892  13.132 -0.0256  0.2026  0.3734
31398DOD     C238014  22.834  28.721  12.726  0.0200  0.1064  0.4473
31398DOD     C338015  22.895  28.488  12.341  0.0258  0.1398  0.0014
31399DOD     C138016  28.130  27.540   8.718  0.1615 -0.1361 -0.1342
31399DOD     C238017  28.588  27.657   8.737 -0.0190 -0.1936 -0.3258
31399DOD     C338018  28.725  27.803   8.316 -0.0530 -0.1608  0.2136
31400DOD     C138019   3.413  15.434  15.247  0.0999 -0.2178 -0.4111
31400DOD     C238020   3.548  15.192  15.605 -0.0268  0.1633 -0.2212
31400DOD     C338021   3.387  14.842  15.855 -0.2732 -0.0222 -0.0872
31401DOD     C138022  15.212  16.642   8.863 -0.0524 -0.0049  0.2325
31401DOD     C238023  14.919  16.442   9.161 -0.0513 -0.3225 -0.2226
31401DOD     C338024  14.748  16.005   9.329 -0.0126 -0.1619 -0.1811
31402DOD     C138025   0.459   0.591   1.464 -0.2798 -0.0153  0.3906
31402DOD     C238026   0.232   0.570   1.090  0.0615 -0.3357  0.1410
31402DOD     C338027   0.201   0.628   0.619  0.0010  0.1148 -0.2527
31403DOD     C138028   3.770   8.231  29.177 -0.1881  0.0782 -0.0548
31403DOD     C238029   3.894   8.375  28.741  0.3726 -0.1940  0.0301
31403DOD     C338030   3.976   8.082  28.399 -0.0244  0.0250  0.2295
31404DOD     C138031  12.231  17.340  14.947 -0.1730  0.0656 -0.1014
31404DOD     C238032  12.420  17.193  14.484  0.0151 -0.0001 -0.2637
31404DOD     C338033  12.398  17.299  14.031  0.0667  0.1949  0.4149
31405DOD     C138034  13.326  16.753   3.181  0.0116  0.1077  0.2298
31405DOD     C238035  13.102  17.127   3.175  0.2498  0.1666 -0.5019
31405DOD     C338036  12.688  17.323   3.283 -0.4267 -0.1217 -0.1159
31406DOD     C138037   8.173  30.191  15.609 -0.1689  0.0772  0.0257
31406DOD     C238038   8.608  30.205  15.466  0.1297 -0.0247 -0.1406
31406DOD     C338039   9.070  30.119  15.353 -0.3028  0.0003  0.0413
31407DOD     C138040   5.297  18.025  25.046  0.0918  0.1296  0.0891
31407DOD     C238041   5.626  17.716  25.241  0.0194 -0.0901 -0.0836
31407DOD     C338042   5.728  17.298  25.106 -0.0883 -0.0328  0.0759
31408DOD     C138043   1.372   1.826  20.078  0.3953 -0.0147 -0.0876
31408DOD     C238044   1.754   2.004  20.246 -0.0266 -0.3778  0.0954
31408DOD     C338045   1.936   2.429  20.466 -0.2505 -0.2653  0.1636
31409DOD     C138046  17.265   8.943  14.016 -0.0700  0.2357  0.0125
31409DOD     C238047  17.310   8.954  14.467 -0.0233  0.3136 -0.0287
31409DOD     C338048  17.436   9.216  14.824  0.0427 -0.2017 -0.0307
31410DOD     C138049  22.046   7.650  20.080 -0.1066  0.2285 -0.0203
31410DOD     C238050  22.407   7.717  20.328  0.1907  0.1842  0.2090
31410DOD     C338051  22.508   7.529  20.699 -0.1169 -0.0405  0.0046
31411DOD     C138052   0.691   3.308  29.975 -0.3619  0.0010 -0.1145
31411DOD     C238053   0.847   3.265   0.074  0.1675 -0.0347  0.0080
31411DOD     C338054   1.130   2.938   0.188  0.0432  0.3177  0.1720
31412DOD     C138055  11.535   8.867  29.773  0.4850  0.1299 -0.1252
31412DOD     C238056  11.936   8.648  29.842 -0.1532 -0.1263 -0.0686
31412DOD     C338057  12.086   8.233  29.868  0.0894  0.0738 -0.1405
31413DOD     C138058  11.799   0.207  10.263 -0.1403 -0.0357 -0.4376
31413DOD     C238059  12.077   0.438  10.624 -0.1966  0.0451  0.1803
31413DOD     C338060  12.481   0.479  10.799 -0.0764  0.0552 -0.0841
31414DOD     C138061  20.779   4.644   1.019  0.1429  0.2567 -0.0823
31414DOD     C238062  20.830   4.524   1.483  0.2706 -0.1362 -0.1299
31414DOD     C338063  21.238   4.491   1.713  0.1042  0.2954  0.1538
31415DOD     C138064   7.812  24.040   1.420  0.1237  0.2080  0.1369
31415DOD     C238065   7.469  24.144   1.180  0.0052 -0.0440  0.0742
31415DOD     C338066   7.297  24.434   0.948  0.4132  0.1072  0.1540
31416DOD     C138067   7.652  26.425  28.691 -0.3731  0.0494 -0.0108
31416DOD     C238068   7.902  26.292  29.053  0.1422  0.0317 -0.1616
31416DOD     C338069   8.156  26.437  29.400 -0.0345 -0.1459  0.0032
31417DOD     C138070  12.222   6.739  21.793  0.0372 -0.0399  0.4467
31417DOD     C238071  12.452   6.925  22.150 -0.0190  0.0032  0.3853
31417DOD     C338072  12.840   7.131  22.017  0.1285 -0.1634 -0.1045
31418DOD     C138073  24.665  19.217   7.104 -0.0676  0.1668  0.0007
31418DOD     C238074  24.360  19.525   7.023 -0.0750  0.1946  0.0610
31418DOD     C338075  23.912  19.489   6.772 -0.1346 -0.0211  0.2616
31419DOD     C138076   2.806  28.410  29.239 -0.3444  0.4328  0.1054
31419DOD     C238077   2.678  28.571  28.819  0.3000 -0.1158 -0.1857
31419DOD     C338078   2.490  28.668  28.343  0.0057  0.2610 -0.0090
31420DOD     C138079  29.126  28.036  14.560 -0.2055 -0.0926  0.3021
31420DOD     C238080  29.287  27.623  14.451 -0.1354  0.0792  0.0383
31420DOD     C338081  29.134  27.276  14.206  0.3071  0.0890  0.1672
31421DOD     C138082   4.879  20.775  16.674  0.0437 -0.3065  0.2209
31421DOD     C238083   4.843  21.148  16.366 -0.2757  0.3970  0.2631
31421DOD     C338084   4.991  21.263  15.957 -0.0624 -0.1845  0.1058
31422DOD     C138085  18.743   0.182  18.608  0.3717 -0.1847  0.1864
31422DOD     C238086  18.734   0.421  18.206 -0.1347  0.2079  0.1696
31422DOD     C338087  18.964   0.524  17.837 -0.1362 -0.1345  0.2257
31423DOD     C138088   5.201   2.439   4.937  0.0718  0.1973 -0.0851
31423DOD     C238089   5.609   2.264   4.890  0.1492  0.1702 -0.1250
31423DOD     C338090   5.810   1.866   4.970  0.2839  0.0318  0.3862
31424DOD     C138091  18.699  16.505   4.757  0.2493  0.3186 -0.0635
31424DOD     C238092  18.856  16.828   5.047  0.3291 -0.0713  0.0165
31424DOD     C338093  19.144  17.218   5.057  0.0550 -0.0339 -0.0644
31425DOD     C138094  14.926   0.445   1.301 -0.0960 -0.0829  0.1168
31425DOD     C238095  15.225   0.649   0.973  0.2482  0.2274  0.0071
31425DOD     C338096  15.540   0.869   0.720  0.2211 -0.1096 -0.1364
31426DOD     C138097   0.858   1.103  12.956  0.2915 -0.2169 -0.1744
31426DOD     C238098   1.081   0.714  12.758  0.2304 -0.0598 -0.3045
31426DOD     C338099   1.423   0.401  12.692  0.6381 -0.1536  0.4595
31427DOD     C138100  19.727  12.461  -0.010 -0.0004 -0.0148 -0.2911
31427DOD     C238101  19.740  12.090  30.028  0.1638  0.0313  0.0809
31427DOD     C338102  19.561  11.744  29.696 -0.3247  0.1189 -0.0987
31428DOD     C138103  13.798   1.103  22.430 -0.0495 -0.0116 -0.0543
31428DOD     C238104  13.585   0.700  22.234 -0.2006 -0.0814  0.0772
31428DOD     C338105  13.498   0.202  22.141 -0.0030  0.0993  0.1848
31429DOD     C138106   9.736  28.867  19.295 -0.1598  0.0757  0.0470
31429DOD     C238107   9.454  28.604  19.094 -0.1790  0.0334  0.0347
31429DOD     C338108   9.089  28.394  19.121  0.1313 -0.3099 -0.1503
31430DOD     C138109  16.242   0.923  16.851 -0.0698  0.2113  0.1864
31430DOD     C238110  15.861   0.856  17.130  0.0434 -0.1792 -0.1763
31430DOD     C338111  15.718   0.939  17.589 -0.3692  0.1196 -0.1142
31431DOD     C138112  10.678  20.740   1.504  0.3034  0.0658 -0.1824
31431DOD     C238113  10.753  21.107   1.171 -0.2129  0.0468 -0.2581
31431DOD     C338114  11.094  21.315   0.901  0.1134  0.0583 -0.2165
31432DOD     C138115  12.805   2.912  20.492 -0.6038  0.2043 -0.1183
31432DOD     C238116  12.397   3.179  20.486  0.0272  0.3054 -0.0172
31432DOD     C338117  12.150   3.593  20.456  0.0183 -0.1121 -0.0634
31433DOD     C138118   2.779  26.777   3.537 -0.0456  0.3191 -0.0126
31433DOD     C238119   2.639  26.532   3.890 -0.3738 -0.2831  0.0094
31433DOD     C338120   2.528  26.191   4.203 -0.0232 -0.0818 -0.2267
31434DOD     C138121  22.943  15.201   8.853  0.0899 -0.1375  0.0402
31434DOD     C238122  23.097  15.425   8.481 -0.1143  0.0029 -0.1563
31434DOD     C338123  23.325  15.833   8.364  0.1083 -0.0159 -0.0081
31435DOD     C138124  22.654  25.669  22.715 -0.3567  0.1010  0.0810
31435DOD     C238125  22.344  25.386  22.590  0.2582  0.2700 -0.0787
31435DOD     C338126  21.988  25.304  22.818 -0.0174 -0.0355  0.3297
31436DOD     C138127  26.108  28.506   4.607 -0.3567  0.1426  0.2042
31436DOD     C238128  25.787  28.540   4.246 -0.0039 -0.3236 -0.1971
31436DOD     C338129  25.418  28.316   4.179  0.0823 -0.1006 -0.0885
31437DOD     C138130   5.222  23.157  30.239 -0.0919 -0.0711  0.0534
31437DOD     C238131   5.463  22.973   0.252  0.1944 -0.0674 -0.1707
31437DOD     C338132   5.658  22.597   0.346  0.0289  0.0694 -0.1116
31438DOD     C138133   6.728  22.785  11.854  0.0614  0.1776  0.1659
31438DOD     C238134   6.563  23.004  12.205 -0.0935  0.1536 -0.1429
31438DOD     C338135   6.567  23.261  12.564  0.1265  0.1166  0.0789
31439DOD     C138136   7.957  29.216   8.332 -0.1223 -0.0470  0.0476
31439DOD     C238137   8.089  29.408   7.963  0.1635 -0.0588  0.2333
31439DOD     C338138   8.064  29.752   7.678 -0.0831 -0.0015 -0.2121
31440DOD     C138139   1.393  29.916  19.671 -0.0392 -0.2657  0.0962
31440DOD     C238140   1.040  29.847  19.402 -0.0937 -0.2628  0.0300
31440DOD     C338141   0.656  30.079  19.221 -0.1204  0.0711  0.3062
31441DOD     C138142  13.252   6.925  25.780  0.1922 -0.0896  0.2262
31441DOD     C238143  13.109   6.624  25.474  0.0511  0.1014 -0.5511
31441DOD     C338144  12.983   6.306  25.136  0.1834 -0.1171 -0.0273
31442DOD     C138145  26.329  23.794   5.912 -0.1521 -0.5122 -0.0535
31442DOD     C238146  25.964  23.753   5.521  0.0165 -0.1677  0.2239
31442DOD     C338147  25.624  23.935   5.240  0.2139  0.0084 -0.0373
31443DOD     C138148  26.376  13.002  23.654  0.0627  0.0791  0.1543
31443DOD     C238149  26.085  12.714  23.470  0.2166  0.0773  0.0910
31443DOD     C338150  25.647  12.891  23.435  0.1349 -0.1540 -0.1396
31444DOD     C138151  27.028  29.094  22.904 -0.2448 -0.3537 -0.0712
31444DOD     C238152  26.624  28.939  22.702 -0.0824  0.3366 -0.4139
31444DOD     C338153  26.191  28.754  22.581 -0.1503 -0.1604  0.0086
31445DOD     C138154  15.889   0.891  20.859  0.3029  0.1137 -0.1857
31445DOD     C238155  16.108   0.690  21.226  0.3028 -0.1813  0.3319
31445DOD     C338156  15.908   0.788  21.597 -0.2116  0.1651  0.0691
31446DOD     C138157  25.650  25.159  30.139  0.0771  0.1566 -0.1220
31446DOD     C238158  25.588  25.476  29.826 -0.2369 -0.0507 -0.3073
31446DOD     C338159  25.477  25.858  29.547 -0.2112 -0.2164 -0.1925
31447DOD     C138160  13.115  20.872   5.308  0.0287 -0.0497  0.2138
31447DOD     C238161  13.110  20.350   5.345  0.0003  0.0305  0.0922
31447DOD     C338162  13.179  19.934   5.478 -0.3175  0.0804  0.1567
31448DOD     C138163  13.533  24.011  29.085  0.1241  0.0145  0.0224
31448DOD     C238164  13.222  23.679  29.102 -0.0463  0.2677  0.1312
31448DOD     C338165  12.950  23.368  29.022 -0.0640  0.1212 -0.1483
31449DOD     C138166  28.797   9.181  10.455 -0.3072  0.0667  0.2179
31449DOD     C238167  28.435   9.296  10.124  0.2161  0.2224  0.0670
31449DOD     C338168  28.266   9.203   9.701 -0.2421 -0.0374  0.0347
31450DOD     C138169  19.978  22.374  10.730 -0.0105 -0.1410  0.0867
31450DOD     C238170  20.053  22.351  10.312  0.1837 -0.0148 -0.0890
31450DOD     C338171  20.512  22.333  10.148  0.0616  0.0087  0.0839
31451DOD     C138172   3.392   2.642   1.521  0.1765  0.1420 -0.0895
31451DOD     C238173   3.751   2.466   1.342  0.0888  0.0719 -0.1531
31451DOD     C338174   3.790   2.061   1.103  0.0905 -0.3259 -0.1343
31452DOD     C138175  17.968  21.004  15.776 -0.0108  0.0160  0.1533
31452DOD     C238176  18.216  20.678  15.491 -0.1506  0.1904  0.0195
31452DOD     C338177  18.569  20.436  15.194  0.0709  0.0213  0.1806
31453DOD     C138178   5.626   8.120   5.001 -0.0962  0.2278 -0.2562
31453DOD     C238179   5.416   8.322   4.618 -0.0947  0.0665  0.0112
31453DOD     C338180   5.198   8.292   4.193  0.1979 -0.0898 -0.1244
31454DOD     C138181  21.587   3.562   4.688 -0.3013 -0.0170  0.3264
31454DOD     C238182  21.652   3.413   5.128  0.1259 -0.2852 -0.1014
31454DOD     C338183  21.543   3.548   5.546  0.0724 -0.2723 -0.1115
31455DOD     C138184  24.016   2.269  28.691  0.1170 -0.1813  0.1189
31455DOD     C238185  23.934   2.713  28.633  0.0246  0.0520 -0.1041
31455DOD     C338186  23.644   2.960  28.345 -0.1836  0.1631 -0.1028
31456DOD     C138187   4.158  11.258  19.741  0.0189  0.1484  0.0029
31456DOD     C238188   4.252  11.277  20.188  0.0220 -0.1130  0.1262
31456DOD     C338189   4.578  11.327  20.485 -0.0546 -0.0061  0.1092
31457DOD     C138190   2.082  16.595  27.274  0.0724  0.1658  0.1377
31457DOD     C238191   2.220  16.856  26.877 -0.0781  0.0858  0.0985
31457DOD     C338192   2.056  17.063  26.532 -0.1908  0.0364 -0.1886
31458DOD     C138193  27.783   3.246  29.255 -0.0449 -0.3103 -0.0704
31458DOD     C238194  27.400   3.328  28.987 -0.0410 -0.1802 -0.0749
31458DOD     C338195  26.942   3.188  28.959  0.1458  0.0717 -0.1669
31459DOD     C138196  16.506   8.091  11.301 -0.0736 -0.0490 -0.1006
31459DOD     C238197  16.995   8.191  11.458 -0.2665 -0.1319 -0.0199
31459DOD     C338198  17.269   8.536  11.659  0.2540 -0.1427  0.0935
31460DOD     C138199  30.085  29.845  28.116  0.1515  0.4378  0.0579
31460DOD     C238200  30.326  30.173  28.373 -0.1372 -0.0344 -0.2829
31460DOD     C338201  30.296   0.357  28.396  0.1450  0.0063 -0.1403
31461DOD     C138202  19.343  22.236   3.315  0.3559 -0.1270 -0.1683
31461DOD     C238203  18.937  22.458   3.223  0.0429  0.1244  0.0338
31461DOD     C338204  18.487  22.495   3.080  0.2149  0.1168  0.0609
31462DOD     C138205  11.908  11.233  23.878  0.6578 -0.2094 -0.3110
31462DOD     C238206  11.750  10.775  23.887 -0.0616  0.3748  0.2802
31462DOD     C338207  11.492  10.392  23.840 -0.0466 -0.2729  0.1162
31463DOD     C138208  14.791  22.954  27.725  0.0062  0.2785 -0.0593
31463DOD     C238209  14.436  23.186  27.598  0.1538  0.3355  0.0462
31463DOD     C338210  14.116  23.481  27.507  0.0082  0.3450  0.1498
31464DOD     C138211  21.211   0.267   8.043  0.3638  0.1366  0.2087
31464DOD     C238212  21.397   0.533   7.690  0.2823 -0.1612  0.1402
31464DOD     C338213  21.812   0.436   7.494 -0.0752  0.1309  0.0533
31465DOD     C138214   6.086  10.013  24.608  0.1839 -0.2009  0.1086
31465DOD     C238215   5.759  10.367  24.796  0.0200 -0.0490 -0.1535
31465DOD     C338216   5.451  10.706  24.934  0.0260  0.1557 -0.2057
31466DOD     C138217  17.367  24.658  18.389 -0.0090 -0.2708 -0.2551
31466DOD     C238218  17.014  24.307  18.432 -0.3814 -0.0488 -0.0862
31466DOD     C338219  16.716  23.898  18.488 -0.2257 -0.1219  0.0069
31467DOD     C138220   1.286  12.068  20.533 -0.1067 -0.1632 -0.1942
31467DOD     C238221   1.390  12.098  20.950  0.3497 -0.1497 -0.1531
31467DOD     C338222   1.151  12.078  21.348  0.4082  0.1571 -0.1941
31468DOD     C138223   5.153  25.993  27.280  0.2210  0.4375  0.0155
31468DOD     C238224   4.807  26.237  27.441  0.0500  0.0918  0.2360
31468DOD     C338225   4.437  26.365  27.683  0.1193 -0.0934 -0.0400
31469DOD     C138226  10.788  17.327   1.959  0.0891 -0.0643  0.0162
31469DOD     C238227  10.432  17.661   1.945  0.1362 -0.1096 -0.0707
31469DOD     C338228  10.020  17.736   2.146 -0.1252 -0.0030 -0.2060
31470DOD     C138229   8.278  29.549  20.444 -0.0452 -0.0176  0.2505
31470DOD     C238230   8.646  29.395  20.282 -0.0410  0.3517 -0.2024
31470DOD     C338231   9.071  29.501  20.432 -0.3446 -0.2892  0.0737
31471DOD     C138232   7.442   5.126  29.641  0.2127  0.1203 -0.2095
31471DOD     C238233   7.524   4.785  29.900 -0.1368 -0.0459  0.2573
31471DOD     C338234   7.674   4.418  30.106 -0.0785  0.3684 -0.1781
31472DOD     C138235  23.380  23.349  17.613 -0.0323  0.0031  0.0172
31472DOD     C238236  23.123  22.943  17.567  0.0969 -0.1122  0.0838
31472DOD     C338237  23.029  22.539  17.701  0.0907  0.1557  0.3292
31473DOD     C138238   1.692   4.818  28.654 -0.2966  0.0781  0.1104
31473DOD     C238239   1.578   5.006  28.217 -0.2581  0.0736 -0.2226
31473DOD     C338240   1.590   5.214  27.809 -0.0934 -0.0255 -0.0526
31474DOD     C138241   9.212   8.665  12.101 -0.2602 -0.0244  0.2063
31474DOD     C238242   9.073   9.044  11.794 -0.1392 -0.1185 -0.1607
31474DOD     C338243   8.797   9.420  11.876 -0.2354 -0.2466  0.0785
31475DOD     C138244  17.054  25.456  13.482  0.2586 -0.0822 -0.3857
31475DOD     C238245  16.540  25.584  13.467  0.0125  0.2929 -0.4452
31475DOD     C338246  16.169  25.741  13.567  0.0281  0.1362 -0.1862
31476DOD     C138247  20.109  29.007  20.677  0.1037  0.2985  0.3539
31476DOD     C238248  19.823  29.084  21.039  0.0237  0.1306  0.2191
31476DOD     C338249  19.449  28.986  21.318 -0.1088 -0.1645  0.2578
31477DOD     C138250  15.124  10.750  14.148 -0.3041 -0.4162 -0.2906
31477DOD     C238251  15.425  10.413  13.988 -0.1169  0.0475  0.1811
31477DOD     C338252  15.683  10.305  13.611 -0.0025 -0.0002 -0.1682
31478DOD     C138253   2.948   1.691  16.556  0.3349 -0.2934 -0.2432
31478DOD     C238254   2.656   1.390  16.693  0.1635  0.0843 -0.0014
31478DOD     C338255   2.347   1.258  17.046 -0.0997 -0.1468  0.1780
31479DOD     C138256   4.072  22.384  18.141  0.3191 -0.2397 -0.0454
31479DOD     C238257   4.194  22.071  18.496  0.0907 -0.2278  0.3355
31479DOD     C338258   4.364  22.071  18.928 -0.0909 -0.1470 -0.1285
31480DOD     C138259  24.368   4.847  28.880 -0.3769  0.0767  0.1512
31480DOD     C238260  24.761   5.044  28.716  0.0501  0.1051 -0.0961
31480DOD     C338261  25.186   5.104  28.955 -0.2059 -0.0466 -0.1910
31481DOD     C138262  10.865  13.880  26.916  0.1603 -0.0387 -0.0192
31481DOD     C238263  11.253  13.684  26.732 -0.2675  0.1415  0.0218
31481DOD     C338264  11.424  13.343  26.521 -0.2482  0.1182  0.0624
31482DOD     C138265   5.117  23.889  26.174 -0.3427  0.1715 -0.4741
31482DOD     C238266   5.446  23.678  26.506  0.0322 -0.2555  0.2142
31482DOD     C338267   5.593  23.307  26.691  0.0159  0.3829  0.2538
31483DOD     C138268  11.130   0.839   3.465  0.2481  0.4960 -0.3114
31483DOD     C238269  10.929   1.253   3.463 -0.2326 -0.0265 -0.2851
31483DOD     C338270  11.252   1.574   3.633  0.0445 -0.0853  0.1579
31484DOD     C138271  15.951  11.268  11.089 -0.1589  0.1718 -0.2128
31484DOD     C238272  15.694  11.528  10.897 -0.0285 -0.2099 -0.3735
31484DOD     C338273  15.237  11.650  10.897  0.0304  0.2275  0.1235
31485DOD     C138274   7.612  20.912   1.452  0.1648  0.0102  0.0811
31485DOD     C238275   7.263  21.241   1.415 -0.0745 -0.0145 -0.2712
31485DOD     C338276   7.113  21.430   1.052  0.1328  0.1253  0.0976
31486DOD     C138277   4.420  28.745  17.955  0.0844 -0.3698 -0.1002
31486DOD     C238278   4.171  28.496  17.688  0.0727  0.1319 -0.1307
31486DOD     C338279   4.096  28.047  17.532 -0.0686  0.0001 -0.0671
31487DOD     C138280  28.234  11.568   0.193 -0.1743 -0.0896 -0.2766
31487DOD     C238281  27.991  11.768   0.527 -0.0217 -0.2013 -0.1245
31487DOD     C338282  27.796  11.917   0.938 -0.0114  0.3455  0.1775
31488DOD     C138283   9.582  13.507  11.239 -0.0329  0.1001  0.0939
31488DOD     C238284   9.500  13.901  11.455  0.1133 -0.1320  0.1347
31488DOD     C338285   9.445  14.163  11.870  0.0181 -0.0583 -0.0462
31489DOD     C138286  27.306   7.435  12.623 -0.0541 -0.2826  0.1386
31489DOD     C238287  27.001   7.094  12.733  0.2686  0.1391  0.2128
31489DOD     C338288  27.021   6.784  13.079 -0.3423 -0.3117  0.1303
31490DOD     C138289   1.177   8.893  14.095 -0.0696  0.2858  0.2562
31490DOD     C238290   1.470   8.580  14.037  0.3549  0.0647 -0.2237
31490DOD     C338291   1.780   8.498  13.752  0.0160  0.0453  0.2738
31491DOD     C138292  24.485  28.414  10.997  0.1941 -0.0108 -0.0196
31491DOD     C238293  24.888  28.156  11.117 -0.1755 -0.0396  0.0775
31491DOD     C338294  25.307  27.987  11.030  0.0996 -0.0310 -0.1077
31492DOD     C138295   6.859   0.733   8.971  0.2033 -0.1672  0.0032
31492DOD     C238296   7.315   0.679   9.135 -0.0760  0.0549  0.1724
31492DOD     C338297   7.706   0.590   9.335  0.2418 -0.0844  0.2040
31493DOD     C138298  19.445  23.695   3.768  0.1574  0.0133  0.2915
31493DOD     C238299  19.085  23.515   3.523 -0.1023  0.2163  0.1311
31493DOD     C338300  18.639  23.410   3.463  0.0175  0.1400  0.2847
31494DOD     C138301   2.239   5.619  10.276 -0.0774  0.2291 -0.1925
31494DOD     C238302   2.556   5.517  10.616 -0.0724 -0.0334  0.0502
31494DOD     C338303   2.638   5.210  10.957 -0.1195 -0.4058 -0.0530
31495DOD     C138304  20.093  26.288  15.205  0.1283 -0.1340 -0.2030
31495DOD     C238305  20.483  26.287  15.400 -0.2961  0.0437  0.0288
31495DOD     C338306  20.562  26.433  15.870 -0.2689 -0.1413 -0.1127
31496DOD     C138307  19.719   5.484   6.275  0.2237  0.1481  0.2756
31496DOD     C238308  20.102   5.761   6.406  0.1735 -0.0424 -0.0746
31496DOD     C338309  20.333   6.023   6.713 -0.3200  0.1537 -0.2169
31497DOD     C138310  13.565  27.276  15.255  0.0007 -0.0147  0.2790
31497DOD     C238311  13.943  27.120  14.987  0.0198 -0.0001  0.1353
31497DOD     C338312  13.981  26.984  14.503  0.0245 -0.0797 -0.3569
31498DOD     C138313  15.966  18.859   5.845 -0.0816  0.1032 -0.2255
31498DOD     C238314  15.901  18.635   5.394  0.0007  0.1150  0.0205
31498DOD     C338315  15.812  18.820   4.963 -0.2198 -0.1502 -0.1352
31499DOD     C138316  11.398  13.405   7.071 -0.0156  0.2042 -0.0211
31499DOD     C238317  11.323  13.631   7.502 -0.1998 -0.1735 -0.0509
31499DOD     C338318  11.499  14.014   7.735 -0.1998  0.2664  0.4307
31500DOD     C138319   4.967   9.422  20.748 -0.0819  0.0260  0.1121
31500DOD     C238320   4.943   9.616  21.154 -0.0127 -0.1152 -0.0023
31500DOD     C338321   5.303   9.783  21.422  0.0162  0.0333  0.1427
31501DOD     C138322  14.966  10.287  14.207 -0.0860 -0.3077  0.1372
31501DOD     C238323  14.557  10.279  14.466  0.1026  0.1667 -0.1851
31501DOD     C338324  14.502  10.239  14.905 -0.0556  0.0435 -0.3310
31502DOD     C138325  27.292  18.754  12.096  0.0241 -0.1166  0.0707
31502DOD     C238326  26.953  18.714  11.772 -0.0414  0.2140  0.0061
31502DOD     C338327  26.558  18.912  11.549 -0.0308 -0.0068  0.1937
31503DOD     C138328  20.662   6.202  11.863  0.0520 -0.2999  0.0854
31503DOD     C238329  20.934   6.538  11.946  0.1125  0.3189  0.0098
31503DOD     C338330  21.038   6.803  12.311  0.0416 -0.0673  0.0520
31504DOD     C138331  15.193   0.306  17.564  0.2534  0.0388 -0.3330
31504DOD     C238332  15.618   0.471  17.756  0.1525  0.2176  0.3521
31504DOD     C338333  15.961   0.675  17.922 -0.2172  0.0404 -0.1658
31505DOD     C138334   8.703   2.754  17.688 -0.0785 -0.3684  0.1892
31505DOD     C238335   8.402   2.380  17.656  0.0521 -0.0771  0.1273
31505DOD     C338336   8.045   2.106  17.518  0.0932  0.0494  0.0053
31506DOD     C138337   0.901   5.111   6.267  0.2161  0.2219  0.0883
31506DOD     C238338   0.740   5.404   6.645  0.0164  0.2221  0.1107
31506DOD     C338339   0.650   5.831   6.783 -0.3047  0.0254  0.0655
31507DOD     C138340  26.089   8.982  21.529 -0.1017  0.1116  0.0584
31507DOD     C238341  26.347   8.880  21.866  0.4191 -0.0190 -0.0893
31507DOD     C338342  26.762   8.906  22.102  0.1201 -0.2277  0.2404
31508DOD     C138343  17.471  14.115  26.609  0.1997 -0.2330 -0.0834
31508DOD     C238344  17.010  13.926  26.665  0.1507  0.2835  0.2576
31508DOD     C338345  16.743  13.874  27.054 -0.3672 -0.1551 -0.1357
31509DOD     C138346  29.698  19.750   2.784 -0.4211  0.1320 -0.0672
31509DOD     C238347  29.439  19.725   3.137 -0.0190  0.0551 -0.0517
31509DOD     C338348  29.075  19.644   3.392  0.2447 -0.2030 -0.0395
31510DOD     C138349   7.129  17.058   5.223  0.0538 -0.0062  0.2567
31510DOD     C238350   7.032  16.602   5.224 -0.0551  0.3788 -0.0663
31510DOD     C338351   7.366  16.278   5.475 -0.1869 -0.0536  0.1787
31511DOD     C138352   7.933  23.316   1.458 -0.0016 -0.0765  0.1550
31511DOD     C238353   7.487  23.165   1.383 -0.0627  0.0067 -0.0419
31511DOD     C338354   7.133  23.058   1.712 -0.1245  0.1054 -0.3734
31512DOD     C138355  11.946  12.019  12.296 -0.1521 -0.0722  0.4785
31512DOD     C238356  11.671  12.076  11.916 -0.1441 -0.3084  0.0237
31512DOD     C338357  11.730  11.796  11.486  0.1778  0.1454  0.1251
31513DOD     C138358  19.810  15.310  12.238 -0.0583 -0.0283 -0.0159
31513DOD     C238359  19.849  15.242  11.785 -0.1785 -0.0792  0.0281
31513DOD     C338360  19.569  14.992  11.529 -0.0841  0.1207  0.1001
31514DOD     C138361   4.413  15.090  11.840 -0.2181 -0.1537  0.0680
31514DOD     C238362   4.664  14.720  11.700  0.4005 -0.0201  0.0111
31514DOD     C338363   4.746  14.561  11.276 -0.1118 -0.1388  0.1262
31515DOD     C138364  28.847   6.739  14.094  0.1010 -0.3415 -0.1494
31515DOD     C238365  28.494   6.528  13.909 -0.2449 -0.0846  0.3002
31515DOD     C338366  28.114   6.625  13.691  0.0595 -0.2364  0.0687
31516DOD     C138367   1.520   6.884  10.221  0.1889  0.0506  0.0157
31516DOD     C238368   1.651   6.898   9.789  0.0629  0.3389  0.0672
31516DOD     C338369   1.388   6.881   9.399 -0.0474 -0.1531 -0.1226
31517DOD     C138370   4.799  23.552  21.956 -0.0385 -0.0492  0.1133
31517DOD     C238371   4.337  23.687  22.072 -0.2993 -0.3114 -0.0952
31517DOD     C338372   3.875  23.576  22.146 -0.1397 -0.3170 -0.0112
31518DOD     C138373  10.516   1.152   1.556  0.2845 -0.0624  0.0649
31518DOD     C238374  10.971   1.098   1.439  0.2674 -0.0456  0.2519
31518DOD     C338375  11.173   1.272   1.144  0.1223 -0.0022  0.1993
31519DOD     C138376  20.718   1.924  11.427  0.1955  0.0743 -0.0548
31519DOD     C238377  20.622   1.674  11.056 -0.0333 -0.0931 -0.0460
31519DOD     C338378  20.546   1.713  10.631  0.1089  0.1231  0.0957
31520DOD     C138379  23.777   0.821  24.231  0.1895  0.0474  0.2643
31520DOD     C238380  23.464   0.588  24.461  0.0070  0.2125 -0.0591
31520DOD     C338381  23.072   0.573  24.225  0.0125  0.2274  0.1144
31521DOD     C138382  14.071  23.456  21.647  0.1984  0.2419 -0.2584
31521DOD     C238383  13.611  23.457  21.654  0.4672  0.0237  0.1723
31521DOD     C338384  13.364  23.813  21.797 -0.1269  0.1648  0.2101
31522DOD     C138385  25.888  15.687  13.741 -0.0253 -0.1979  0.2796
31522DOD     C238386  25.902  15.649  14.168  0.1512  0.1731 -0.1316
31522DOD     C338387  26.030  15.429  14.550 -0.0876 -0.1700  0.1157
31523DOD     C138388   1.246  17.701   8.043  0.0848 -0.3210 -0.1334
31523DOD     C238389   1.356  17.548   8.446 -0.0885  0.0800 -0.1446
31523DOD     C338390   1.382  17.517   8.881 -0.0879  0.1145  0.0616
31524DOD     C138391  11.482  23.517  25.406  0.0403  0.1647 -0.1078
31524DOD     C238392  11.963  23.488  25.455 -0.1749 -0.1466  0.1419
31524DOD     C338393  12.432  23.377  25.381 -0.0820 -0.0337 -0.0796
31525DOD     C138394  24.229  10.752   6.432 -0.0963 -0.2647 -0.3039
31525DOD     C238395  24.389  10.526   6.819 -0.0283  0.3861 -0.2167
31525DOD     C338396  24.153  10.267   7.114  0.3143  0.2314 -0.0567
31526DOD     C138397  23.117  12.899   7.615  0.0125 -0.2030  0.2904
31526DOD     C238398  23.138  13.277   7.930  0.0961  0.4669  0.1064
31526DOD     C338399  22.833  13.375   8.249 -0.0603  0.1659 -0.0143
31527DOD     C138400  26.582   1.613  10.054  0.0785  0.1104  0.3196
31527DOD     C238401  26.552   1.176  10.226  0.3386  0.1906 -0.0150
31527DOD     C338402  26.346   0.819  10.421 -0.0417 -0.1956  0.0119
31528DOD     C138403  28.246  24.065  25.743  0.1373 -0.3354  0.0491
31528DOD     C238404  28.135  24.269  25.341 -0.1745 -0.0044 -0.2790
31528DOD     C338405  28.460  24.287  24.950 -0.0848  0.0209  0.0813
31529DOD     C138406  25.197   1.676   2.438 -0.2133 -0.1321  0.2968
31529DOD     C238407  25.540   1.995   2.311  0.1393 -0.0536  0.1062
31529DOD     C338408  25.954   2.100   2.090  0.1377 -0.0485  0.0412
31530DOD     C138409  25.381  26.716  10.969 -0.1877 -0.1681  0.1331
31530DOD     C238410  25.491  27.166  11.042  0.1933 -0.0846  0.0754
31530DOD     C338411  25.706  27.631  11.061  0.4645  0.0974  0.0857
31531DOD     C138412  24.837  29.229  18.819 -0.4570  0.1190 -0.5050
31531DOD     C238413  25.311  29.208  18.749  0.0551 -0.1332  0.1367
31531DOD     C338414  25.660  29.319  18.378 -0.1484 -0.2886 -0.4205
31532DOD     C138415   8.294  26.297  18.479  0.0608  0.2572  0.0434
31532DOD     C238416   8.197  25.995  18.803 -0.0078 -0.3752  0.0076
31532DOD     C338417   8.309  25.550  18.798 -0.2513  0.0033 -0.0209
31533DOD     C138418   2.548  13.966  19.013 -0.3103  0.1003  0.1633
31533DOD     C238419   2.553  13.814  18.590  0.2037  0.0497 -0.2837
31533DOD     C338420   2.791  13.930  18.229  0.3305 -0.0109 -0.0287
31534DOD     C138421  24.251  25.514   8.586  0.1604 -0.0828 -0.1185
31534DOD     C238422  24.215  25.292   8.934 -0.1128 -0.3081  0.2709
31534DOD     C338423  24.392  24.859   9.121 -0.0676 -0.0793 -0.0259
31535DOD     C138424  10.979  23.561   1.756 -0.2348  0.1606 -0.1176
31535DOD     C238425  10.562  23.402   1.657 -0.1610  0.0708  0.1145
31535DOD     C338426  10.063  23.276   1.535 -0.0289 -0.1242  0.1088
31536DOD     C138427  13.276  19.687  18.779  0.0814 -0.0239 -0.3496
31536DOD     C238428  13.571  19.696  18.420 -0.1458  0.0142 -0.3225
31536DOD     C338429  13.638  19.427  18.053  0.0728  0.3237 -0.5425
31537DOD     C138430  11.129  20.421  18.435  0.1329 -0.0944 -0.1750
31537DOD     C238431  10.988  20.822  18.187  0.1697  0.1152  0.3179
31537DOD     C338432  10.838  20.952  17.753 -0.2752  0.0295 -0.0391
31538DOD     C138433  28.688  25.098  16.221  0.1608 -0.0550  0.1919
31538DOD     C238434  29.017  24.854  16.108 -0.0091 -0.0632  0.0782
31538DOD     C338435  29.464  24.815  15.948 -0.2777 -0.0044  0.2444
31539DOD     C138436  18.747  11.950   1.178  0.5603  0.2359  0.1961
31539DOD     C238437  18.711  12.192   1.541 -0.0320 -0.0961 -0.3583
31539DOD     C338438  18.985  12.414   1.839 -0.2497  0.1048  0.3465
31540DOD     C138439   2.718   2.474   7.475 -0.2219 -0.0624  0.2911
31540DOD     C238440   2.901   2.889   7.540  0.0212  0.0380 -0.0360
31540DOD     C338441   3.018   3.267   7.316 -0.1190  0.2467  0.1070
31541DOD     C138442  25.505  16.962  28.748  0.0171 -0.3036  0.3713
31541DOD     C238443  25.143  16.779  28.924 -0.2459 -0.1039 -0.2798
31541DOD     C338444  24.844  16.595  28.697 -0.2184  0.2637 -0.1723
31542DOD     C138445  26.335   7.376   7.029  0.2241 -0.0330 -0.2112
31542DOD     C238446  26.192   7.546   6.579  0.0055 -0.0678  0.2061
31542DOD     C338447  26.221   7.582   6.144 -0.1053  0.0491  0.2790
31543DOD     C138448  11.668  18.817  15.124 -0.1132  0.3010  0.1231
31543DOD     C238449  11.418  18.503  15.370  0.1600 -0.0173 -0.1176
31543DOD     C338450  11.066  18.435  15.681  0.1543  0.3474 -0.1350
31544DOD     C138451   4.043  28.777   4.735  0.0084 -0.0266  0.3250
31544DOD     C238452   4.306  29.194   4.732 -0.2465 -0.2696  0.0726
31544DOD     C338453   4.724  29.307   4.839 -0.0726  0.1429  0.5146
31545DOD     C138454  17.462  14.943   0.141  0.0495 -0.1407 -0.0801
31545DOD     C238455  17.158  15.008   0.507 -0.2042 -0.0970 -0.0878
31545DOD     C338456  16.766  14.900   0.730 -0.1539 -0.1896 -0.2530
31546DOD     C138457  18.424  24.241   8.851  0.2203 -0.2767  0.2410
31546DOD     C238458  17.963  24.513   8.749 -0.0044 -0.1000 -0.2189
31546DOD     C338459  17.579  24.292   8.902 -0.0885 -0.1089  0.0592
31547DOD     C138460  23.627  14.111  27.544  0.1778 -0.3464  0.0035
31547DOD     C238461  23.495  13.671  27.571  0.0333 -0.0095 -0.0135
31547DOD     C338462  23.525  13.238  27.652  0.2132 -0.1384  0.0140
31548DOD     C138463  24.473  24.924  16.596 -0.0713 -0.0857  0.0945
31548DOD     C238464  24.428  25.070  17.077  0.3466  0.1743  0.3121
31548DOD     C338465  24.685  25.131  17.476  0.1866 -0.0680  0.2181
31549DOD     C138466  12.452  15.856  28.962 -0.1418 -0.0137  0.4727
31549DOD     C238467  12.874  16.026  29.117 -0.2579 -0.1965 -0.0969
31549DOD     C338468  13.304  16.259  29.285  0.0975 -0.1146  0.0055
31550DOD     C138469   3.068   1.668   6.568  0.0300 -0.0578 -0.0263
31550DOD     C238470   3.346   1.904   6.897  0.1713 -0.0180 -0.1069
31550DOD     C338471   3.552   2.320   7.046 -0.1315  0.1253  0.0193
31551DOD     C138472   2.864  13.992  26.135  0.0824  0.1939  0.2927
31551DOD     C238473   2.998  14.247  25.773 -0.0754 -0.1636 -0.0522
31551DOD     C338474   3.067  14.569  25.410 -0.1694 -0.1527  0.3289
31552DOD     C138475   6.769   6.251  29.166 -0.0194 -0.0828 -0.0727
31552DOD     C238476   6.479   6.010  29.034  0.1145 -0.0399 -0.1160
31552DOD     C338477   6.062   5.928  28.921 -0.2402  0.0600  0.0306
31553DOD     C138478   7.001  -0.003  29.308 -0.0294 -0.1132  0.2353
31553DOD     C238479   6.880   0.235  29.749  0.2614 -0.2889 -0.4329
31553DOD     C338480   7.030   0.448  30.163  0.2229  0.0470 -0.0727
31554DOD     C138481  21.330  19.590  14.879  0.0508 -0.2389 -0.0357
31554DOD     C238482  21.741  19.646  15.071  0.2706 -0.2320 -0.3594
31554DOD     C338483  22.155  19.556  15.068 -0.1538  0.1559  0.2965
31555DOD     C138484  12.532  16.600   7.539  0.3439  0.0677 -0.0897
31555DOD     C238485  12.498  16.673   7.068 -0.1456  0.3529  0.0910
31555DOD     C338486  12.488  16.639   6.626  0.1869  0.0011 -0.1923
31556DOD     C138487   7.333  25.295  13.125  0.0309  0.0008  0.2176
31556DOD     C238488   7.160  24.902  13.178 -0.1016  0.0217 -0.2286
31556DOD     C338489   7.146  24.440  13.206 -0.0616  0.1334 -0.1180
31557DOD     C138490  10.673  11.177  24.958  0.2715  0.4189  0.1975
31557DOD     C238491  10.680  11.592  25.129  0.0758 -0.0532  0.1300
31557DOD     C338492  11.058  11.722  25.117 -0.2293 -0.1408 -0.0669
31558DOD     C138493  29.286  21.491  12.268 -0.3163 -0.0148 -0.0503
31558DOD     C238494  28.989  21.864  12.386  0.1373 -0.2299  0.0836
31558DOD     C338495  28.699  22.069  12.701 -0.0534  0.0380 -0.1662
31559DOD     C138496  11.115   8.844  17.539 -0.2703 -0.2744 -0.1022
31559DOD     C238497  10.829   9.181  17.684  0.0868 -0.2087 -0.1590
31559DOD     C338498  10.472   9.402  17.466 -0.0955  0.0229 -0.1944
31560DOD     C138499  20.850  16.581  24.029  0.1060 -0.0366 -0.0337
31560DOD     C238500  20.712  16.749  23.606  0.0458 -0.1202 -0.0961
31560DOD     C338501  20.875  17.074  23.334 -0.0931  0.1266  0.0280
31561DOD     C138502   4.109  10.003  29.135 -0.0871  0.2182 -0.0074
31561DOD     C238503   4.429   9.885  28.871  0.1345 -0.1449  0.0505
31561DOD     C338504   4.745  10.103  28.535 -0.1309  0.0989 -0.3427
31562DOD     C138505  17.634  19.056  21.060  0.2043  0.2494 -0.1678
31562DOD     C238506  17.887  19.336  21.342  0.0203  0.1572 -0.1652
31562DOD     C338507  18.182  19.459  21.698  0.3948  0.1432 -0.0135
31563DOD     C138508   3.879  21.930  29.571 -0.0499 -0.0368 -0.1365
31563DOD     C238509   3.964  21.593  29.292  0.0285  0.1510 -0.0913
31563DOD     C338510   4.232  21.202  29.273  0.2146  0.1127  0.0924
31564DOD     C138511  29.631  13.303   3.021  0.1976 -0.2945  0.2200
31564DOD     C238512  29.378  12.951   3.047 -0.0276 -0.2009  0.2292
31564DOD     C338513  29.006  12.873   3.277  0.0726  0.0251  0.0408
31565DOD     C138514  27.874   2.132  20.673  0.2297  0.2063 -0.0223
31565DOD     C238515  27.571   2.447  20.489 -0.1016  0.1877 -0.1065
31565DOD     C338516  27.269   2.699  20.222  0.0167  0.0689 -0.0056
31566DOD     C138517  23.940  19.945   9.805  0.0890 -0.1450  0.0086
31566DOD     C238518  23.750  20.291   9.624  0.0022  0.2605  0.0733
31566DOD     C338519  23.724  20.756   9.547 -0.1649  0.2701 -0.1568
31567DOD     C138520  26.458   3.092  28.002 -0.0177  0.2724 -0.0729
31567DOD     C238521  26.649   2.796  28.307 -0.3686 -0.1410 -0.1741
31567DOD     C338522  26.463   2.815  28.760 -0.1488 -0.2775 -0.2660
31568DOD     C138523   8.824  24.195  20.812 -0.1477  0.0412  0.1631
31568DOD     C238524   8.478  24.505  20.851 -0.0193  0.0865 -0.1012
31568DOD     C338525   8.137  24.794  20.645  0.1347  0.0361 -0.2708
31569DOD     C138526  14.621  23.678  11.856 -0.0987  0.2675 -0.0663
31569DOD     C238527  14.542  23.210  11.817  0.1008 -0.0956 -0.2465
31569DOD     C338528  14.245  22.890  11.834 -0.1672 -0.0552 -0.1231
31570DOD     C138529  18.449  24.484  15.457 -0.0726 -0.1164 -0.4604
31570DOD     C238530  18.371  24.579  15.860 -0.1213 -0.2118 -0.1613
31570DOD     C338531  18.402  24.468  16.349  0.0449  0.0882  0.4655
31571DOD     C138532  23.044  16.631  11.985 -0.3138  0.5037  0.1437
31571DOD     C238533  23.420  16.541  11.927  0.4418 -0.2010 -0.1717
31571DOD     C338534  23.591  16.688  11.558  0.0304  0.0434 -0.0161
31572DOD     C138535  27.365   6.299  11.524 -0.0238 -0.1871 -0.0142
31572DOD     C238536  27.006   6.521  11.544  0.0594 -0.1841 -0.0365
31572DOD     C338537  26.762   6.595  11.176  0.2303 -0.1070 -0.3043
31573DOD     C138538  29.209  26.044   3.999  0.0070  0.1309  0.1874
31573DOD     C238539  29.326  25.818   4.403 -0.1480 -0.0513 -0.1133
31573DOD     C338540  29.337  25.369   4.445 -0.0601  0.3000 -0.3432
31574DOD     C138541   7.184  21.518   4.006  0.2710 -0.0757 -0.3402
31574DOD     C238542   6.946  21.855   4.079 -0.1220 -0.2778 -0.2552
31574DOD     C338543   6.490  21.884   4.250 -0.1686  0.1495 -0.3091
31575DOD     C138544  26.850   3.540   2.781 -0.1735 -0.1801  0.0921
31575DOD     C238545  27.197   3.333   3.018 -0.0116  0.2062 -0.3184
31575DOD     C338546  27.662   3.227   3.143 -0.4092  0.1198  0.1800
31576DOD     C138547  29.560  11.566   5.026 -0.1512  0.4679  0.1654
31576DOD     C238548  29.986  11.374   4.970 -0.0529 -0.1068  0.0939
31576DOD     C338549  30.337  11.030   5.084  0.1780  0.1567  0.3051
31577DOD     C138550  11.549  10.049   0.317 -0.0670  0.0322  0.1974
31577DOD     C238551  11.161  10.393   0.349 -0.2798 -0.1284  0.0729
31577DOD     C338552  10.823  10.676   0.449 -0.3097  0.1218  0.3519
31578DOD     C138553  27.114  17.022  23.408 -0.0023 -0.1593 -0.2388
31578DOD     C238554  27.560  16.844  23.548  0.0839  0.2141 -0.2235
31578DOD     C338555  27.722  16.622  23.949  0.0455 -0.0836  0.0892
31579DOD     C138556   2.176   6.280  24.324 -0.1128  0.0730  0.0668
31579DOD     C238557   2.577   6.392  24.175 -0.1197  0.3278 -0.0367
31579DOD     C338558   2.967   6.543  23.916 -0.0584 -0.0671 -0.2596
31580DOD     C138559  24.074  28.230  25.403 -0.0371 -0.0879  0.1225
31580DOD     C238560  24.465  28.396  25.377 -0.0375  0.0005  0.1896
31580DOD     C338561  24.822  28.719  25.318 -0.0313 -0.0573 -0.1048
31581DOD     C138562  20.334  25.440  23.170  0.3098 -0.2195  0.0649
31581DOD     C238563  20.749  25.777  23.125  0.1274  0.1443 -0.1939
31581DOD     C338564  21.065  26.103  23.041  0.2577 -0.0768 -0.1042
31582DOD     C138565   6.327   2.442  20.735  0.2053  0.2464 -0.1051
31582DOD     C238566   5.878   2.311  20.902  0.3191  0.0349 -0.0445
31582DOD     C338567   5.525   2.309  20.665 -0.0031 -0.0967  0.0599
31583DOD     C138568   0.051  19.554  20.745  0.0266  0.0175  0.0307
31583DOD     C238569  29.980  19.386  20.440 -0.0223 -0.0667  0.0640
31583DOD     C338570  29.675  19.629  20.140  0.0336 -0.0424  0.0707
31584DOD     C138571   3.388   4.525   4.759  0.2415 -0.0405 -0.3415
31584DOD     C238572   3.706   4.619   4.450  0.2742 -0.0895  0.0050
31584DOD     C338573   4.095   4.379   4.287  0.1190  0.2215 -0.1452
31585DOD     C138574   2.710  13.411  12.603  0.2628 -0.0866 -0.0604
31585DOD     C238575   3.143  13.538  12.723 -0.2845 -0.0567  0.0430
31585DOD     C338576   3.495  13.777  12.854  0.1276 -0.3448 -0.1567
31586DOD     C138577  17.646  12.614  24.114  0.3892  0.2144 -0.0407
31586DOD     C238578  17.264  12.906  23.910  0.1293  0.0746 -0.2520
31586DOD     C338579  17.045  13.277  24.032 -0.1728 -0.0687 -0.0916
31587DOD     C138580   7.562  30.154  28.858 -0.2637 -0.2951  0.0251
31587DOD     C238581   7.295   0.231  28.904  0.2430 -0.1388  0.1797
31587DOD     C338582   6.845   0.341  28.781  0.3031  0.1578 -0.0388
31588DOD     C138583   0.418   7.661  13.421 -0.1768  0.0098 -0.0141
31588DOD     C238584   0.882   7.646  13.277  0.1310 -0.1977 -0.2325
31588DOD     C338585   0.951   7.375  12.871  0.0101  0.1611 -0.1981
31589DOD     C138586  19.232  15.230  15.976 -0.1859  0.0713  0.2703
31589DOD     C238587  18.905  15.465  15.708 -0.1219  0.1912  0.0725
31589DOD     C338588  18.649  15.820  15.632 -0.1523 -0.2390 -0.0726
31590DOD     C138589  20.408   7.827  16.242 -0.0701 -0.0273  0.1150
31590DOD     C238590  20.090   8.067  16.551 -0.0620 -0.0114  0.2429
31590DOD     C338591  19.791   8.310  16.766 -0.0550  0.0377 -0.2107
31591DOD     C138592  12.324  13.514  21.772 -0.1653 -0.1436  0.0301
31591DOD     C238593  12.071  13.415  22.159 -0.0573 -0.0231  0.0091
31591DOD     C338594  12.127  13.419  22.643  0.1089  0.0511 -0.4023
31592DOD     C138595   8.873  10.111  24.246  0.0398 -0.1504  0.3128
31592DOD     C238596   8.777  10.327  23.873  0.0125 -0.1583  0.3045
31592DOD     C338597   9.055  10.402  23.487  0.3689 -0.4986 -0.1116
31593DOD     C138598  28.076  13.746   6.740  0.1414  0.4566  0.0420
31593DOD     C238599  27.626  13.700   6.764 -0.2989  0.1243  0.0506
31593DOD     C338600  27.569  13.651   7.254 -0.1507  0.1099  0.1276
31594DOD     C138601   6.904  12.267  12.341 -0.1060 -0.1797  0.0341
31594DOD     C238602   7.246  12.108  12.490  0.2611  0.2099 -0.0733
31594DOD     C338603   7.574  12.001  12.783 -0.1239  0.0583 -0.1368
31595DOD     C138604  12.849  16.174  12.990 -0.3034  0.0435  0.1515
31595DOD     C238605  13.077  15.811  13.171  0.3431  0.0390  0.3944
31595DOD     C338606  13.185  15.504  13.529 -0.5172  0.0075 -0.1036
31596DOD     C138607  28.710   5.184   8.619 -0.1075  0.0992  0.2170
31596DOD     C238608  28.475   4.833   8.347 -0.1356 -0.0342  0.1703
31596DOD     C338609  28.153   4.885   7.973 -0.3523 -0.0709 -0.3433
31597DOD     C138610  13.492  16.730  29.152  0.3533 -0.0095  0.1080
31597DOD     C238611  13.908  17.003  29.146 -0.1308 -0.0778  0.3322
31597DOD     C338612  13.963  17.434  28.976  0.1440  0.1673 -0.0935
31598DOD     C138613  24.708  15.226  21.244  0.0328 -0.0887 -0.1161
31598DOD     C238614  24.470  14.836  21.395 -0.0399 -0.1024 -0.1841
31598DOD     C338615  24.036  14.737  21.388  0.0960  0.0001  0.2979
31599DOD     C138616  22.231   6.181  12.454  0.2536  0.1654  0.0223
31599DOD     C238617  22.600   5.990  12.328 -0.0761  0.0947  0.4213
31599DOD     C338618  23.025   6.231  12.333 -0.5184 -0.0900  0.0771
31600DOD     C138619  14.251  16.433  26.061  0.1610  0.0683  0.2309
31600DOD     C238620  14.591  16.740  26.125  0.0671  0.0722 -0.0802
31600DOD     C338621  15.012  16.868  26.109  0.1428  0.0247  0.0541
31601DOD     C138622   3.456  13.054  13.882  0.0522  0.0420 -0.2585
31601DOD     C238623   3.466  13.547  14.037 -0.1313  0.0193 -0.0619
31601DOD     C338624   3.756  13.787  14.360 -0.0731  0.3020  0.1958
31602DOD     C138625  24.835   0.864   2.686 -0.2566  0.1572  0.3154
31602DOD     C238626  25.005   1.217   2.969 -0.0040  0.0166 -0.4108
31602DOD     C338627  25.312   1.374   3.325 -0.2087  0.0708 -0.1030
31603DOD     C138628   7.413   6.160  16.714 -0.1481  0.0758 -0.1968
31603DOD     C238629   7.124   6.382  17.055 -0.1855  0.0948  0.1979
31603DOD     C338630   6.731   6.626  17.148  0.0232 -0.1617 -0.0292
31604DOD     C138631   8.230  14.207  15.496 -0.0112 -0.0807 -0.0530
31604DOD     C238632   8.182  14.032  15.935 -0.1475 -0.0966 -0.1324
31604DOD     C338633   8.437  13.862  16.279 -0.2961 -0.1256 -0.1129
31605DOD     C138634  17.234  16.365  14.195 -0.1435 -0.0581  0.0628
31605DOD     C238635  17.462  16.746  14.352  0.1992  0.0948 -0.0360
31605DOD     C338636  17.597  17.146  14.187 -0.0664 -0.3607 -0.2012
31606DOD     C138637  14.762  14.199  17.115  0.0444 -0.1033  0.1437
31606DOD     C238638  15.191  14.352  17.113  0.2627  0.0353 -0.1374
31606DOD     C338639  15.543  14.697  16.967 -0.1424  0.0203 -0.3045
31607DOD     C138640  23.043  29.638  16.679  0.4707 -0.4601 -0.2317
31607DOD     C238641  22.555  29.597  16.876 -0.1197 -0.0094 -0.1015
31607DOD     C338642  22.098  29.593  16.940  0.2724  0.0161  0.1627
31608DOD     C138643  12.371  19.332   8.381 -0.4216 -0.1933  0.1272
31608DOD     C238644  12.001  19.105   8.383  0.2837 -0.2464  0.1579
31608DOD     C338645  11.593  19.130   8.662 -0.0075  0.2090 -0.0000
31609DOD     C138646   1.187  12.563   1.311 -0.2835 -0.1756 -0.0648
31609DOD     C238647   1.621  12.387   1.355 -0.1951  0.2455 -0.1412
31609DOD     C338648   2.093  12.208   1.324  0.2116  0.1007 -0.2818
31610DOD     C138649   3.043  12.068  25.553  0.2729  0.1261  0.0768
31610DOD     C238650   2.734  12.382  25.397 -0.2647  0.0141  0.2197
31610DOD     C338651   2.455  12.628  25.114 -0.0495  0.1844 -0.2372
31611DOD     C138652  15.029   5.022  16.540  0.0581  0.2221  0.0781
31611DOD     C238653  15.263   4.765  16.762  0.0972  0.3579 -0.1089
31611DOD     C338654  15.617   4.518  16.891 -0.0507 -0.1112 -0.1153
31612DOD     C138655  22.044   7.479  28.076  0.2544  0.1255  0.3752
31612DOD     C238656  21.865   7.476  27.641 -0.3373  0.0431 -0.0416
31612DOD     C338657  21.656   7.442  27.263  0.0636  0.0489 -0.0742
31613DOD     C138658   4.421   2.521  12.453  0.0124 -0.2740 -0.1861
31613DOD     C238659   4.513   2.632  12.028  0.0274  0.2284  0.3736
31613DOD     C338660   4.663   3.066  11.875 -0.1238 -0.0873 -0.0739
31614DOD     C138661  11.768  19.637   1.251  0.0348 -0.2426  0.1020
31614DOD     C238662  11.680  19.387   0.883  0.0830  0.0262  0.0595
31614DOD     C338663  11.516  19.164   0.493 -0.0686  0.2778 -0.1353
31615DOD     C138664  10.143  10.091  20.269  0.0324 -0.1504 -0.1098
31615DOD     C238665  10.521  10.281  20.038  0.1465  0.2790 -0.1624
31615DOD     C338666  10.746  10.631  19.810 -0.1463  0.1503 -0.2273
31616DOD     C138667  18.071  25.590  24.907 -0.3221 -0.0057 -0.2248
31616DOD     C238668  18.059  25.520  24.414 -0.1077  0.0892 -0.0386
31616DOD     C338669  17.992  25.202  24.114 -0.0774  0.1501 -0.3213
31617DOD     C138670   4.186  21.058   6.676 -0.0275  0.0328 -0.1997
31617DOD     C238671   4.416  20.663   6.540 -0.0040  0.2502 -0.3707
31617DOD     C338672   4.797  20.397   6.520 -0.1607 -0.1233  0.0023
31618DOD     C138673  22.280  29.319  17.479 -0.0915 -0.1020 -0.2613
31618DOD     C238674  21.996  29.072  17.660 -0.0495 -0.1563 -0.2908
31618DOD     C338675  21.573  28.994  17.790  0.0663 -0.2060 -0.0169
31619DOD     C138676  29.155  12.169   6.795  0.1608 -0.0528  0.0670
31619DOD     C238677  29.380  11.790   6.992  0.0170  0.0551 -0.2172
31619DOD     C338678  29.478  11.356   7.016  0.2943  0.5721  0.0315
31620DOD     C138679  10.876  16.767  15.755  0.1646  0.1490  0.2177
31620DOD     C238680  10.762  17.090  15.438 -0.1718 -0.0786  0.2194
31620DOD     C338681  10.855  17.451  15.095  0.4007  0.0057  0.4144
31621DOD     C138682  30.199  16.629  12.495  0.0494 -0.2544  0.1378
31621DOD     C238683   0.244  16.786  12.273  0.1110  0.2288  0.2016
31621DOD     C338684   0.424  16.925  11.864  0.2905 -0.1765  0.3397
31622DOD     C138685  17.006  11.507  13.208 -0.1168 -0.1528 -0.1702
31622DOD     C238686  17.243  11.231  12.891 -0.1204 -0.1988 -0.1077
31622DOD     C338687  17.340  10.957  12.446  0.0504 -0.0517  0.0584
31623DOD     C138688  22.114  23.435   2.014 -0.3217  0.0563 -0.3295
31623DOD     C238689  22.013  23.324   2.488  0.2117 -0.1781 -0.0888
31623DOD     C338690  21.950  23.216   3.001 -0.0981  0.0616  0.0351
31624DOD     C138691  17.964  12.173  19.495  0.0326 -0.3481 -0.1743
31624DOD     C238692  18.042  12.441  19.133 -0.0404  0.0078 -0.1103
31624DOD     C338693  18.120  12.670  18.750  0.0292  0.1791  0.1647
31625DOD     C138694  21.910   6.448  17.304  0.0744 -0.1496 -0.1070
31625DOD     C238695  21.748   6.014  17.317 -0.2271  0.2348 -0.1094
31625DOD     C338696  21.804   5.583  17.116 -0.0294  0.2229 -0.1209
31626DOD     C138697   2.708  26.607  16.938  0.2289  0.0890 -0.1601
31626DOD     C238698   2.616  27.013  16.742  0.1915 -0.0197 -0.0415
31626DOD     C338699   2.142  27.141  16.675  0.0811  0.4843 -0.2321
31627DOD     C138700  15.210  19.772  26.057 -0.1140 -0.0466 -0.0932
31627DOD     C238701  14.920  19.959  25.780  0.0384 -0.2275  0.1173
31627DOD     C338702  14.784  19.992  25.319  0.1713  0.0687 -0.0603
31628DOD     C138703   7.604  23.921   1.936 -0.2890  0.1446 -0.1650
31628DOD     C238704   7.395  24.133   2.295  0.2676 -0.0181  0.1623
31628DOD     C338705   7.131  24.354   2.621 -0.2515 -0.1351 -0.0641
31629DOD     C138706  11.343  26.549   9.771  0.2305 -0.0317 -0.1542
31629DOD     C238707  10.938  26.720   9.682  0.2619  0.0119  0.2980
31629DOD     C338708  10.722  27.154   9.682  0.1087 -0.0245 -0.2893
31630DOD     C138709  29.829  29.219   6.552 -0.1163 -0.0780 -0.0955
31630DOD     C238710  29.362  29.217   6.650  0.0868  0.2006 -0.6557
31630DOD     C338711  29.133  29.650   6.591 -0.2087  0.2554  0.3029
31631DOD     C138712   7.561  27.997   4.647 -0.1965  0.0096  0.0803
31631DOD     C238713   7.918  28.331   4.646 -0.0154 -0.1918 -0.0947
31631DOD     C338714   8.195  28.713   4.591  0.1076 -0.0807 -0.1152
31632DOD     C138715  20.951  12.739  20.794 -0.1871 -0.1236  0.0175
31632DOD     C238716  20.778  12.438  21.123 -0.3378  0.1936 -0.2192
31632DOD     C338717  20.886  11.990  21.298 -0.4153  0.0585  0.2148
31633DOD     C138718  10.596   0.167  23.460  0.1872 -0.0079 -0.0181
31633DOD     C238719  10.970   0.180  23.156  0.2697  0.0810 -0.0549
31633DOD     C338720  11.190  30.306  22.773 -0.1618  0.1124  0.0281
31634DOD     C138721  25.005  29.654  12.274  0.3058  0.0769 -0.1668
31634DOD     C238722  25.273  29.383  12.062  0.1662  0.1844  0.1153
31634DOD     C338723  25.662  29.161  12.049  0.0437  0.2262 -0.2120
31635DOD     C138724   4.922   6.592   3.869 -0.2131 -0.1065 -0.1255
31635DOD     C238725   5.288   6.888   4.087  0.0820  0.0027 -0.1615
31635DOD     C338726   5.565   7.247   4.074  0.1832  0.2628  0.1161
31636DOD     C138727  28.812   6.950   6.790  0.2516  0.0305 -0.4357
31636DOD     C238728  29.067   7.328   6.717 -0.0350 -0.2525 -0.0520
31636DOD     C338729  29.409   7.563   6.629  0.0510  0.1748 -0.0166
31637DOD     C138730  11.070  18.412  26.680 -0.0558  0.0283 -0.1409
31637DOD     C238731  11.420  18.576  26.951  0.1312 -0.0420  0.0270
31637DOD     C338732  11.307  18.679  27.390 -0.1735 -0.0844  0.0892
31638DOD     C138733  25.956  19.272  11.378  0.0910 -0.0274 -0.0483
31638DOD     C238734  25.634  18.905  11.427 -0.2437  0.1135  0.1645
31638DOD     C338735  25.573  18.472  11.208 -0.2541  0.0030  0.0448
31639DOD     C138736  15.164   3.828  16.846  0.0463  0.0476 -0.2397
31639DOD     C238737  15.075   4.278  16.883 -0.0106 -0.0183  0.1638
31639DOD     C338738  14.922   4.619  17.118  0.1556 -0.0912  0.1100
31640DOD     C138739   9.811   5.815  19.868  0.0214 -0.0200  0.1713
31640DOD     C238740   9.417   5.981  19.672 -0.0732 -0.2267 -0.5354
31640DOD     C338741   9.213   6.014  19.259  0.1650  0.1109  0.1950
31641DOD     C138742  27.762  20.997  10.522  0.2454  0.5692  0.0487
31641DOD     C238743  27.733  20.578  10.360 -0.2444 -0.0018  0.0381
31641DOD     C338744  28.088  20.232  10.228  0.0102 -0.3386  0.4906
31642DOD     C138745   9.530   7.363   2.114 -0.3044 -0.0571  0.4175
31642DOD     C238746   9.172   6.987   2.106 -0.2325 -0.3462 -0.1323
31642DOD     C338747   8.734   6.970   2.256 -0.1279 -0.3122  0.0575
31643DOD     C138748  12.785  22.459  11.617 -0.0297  0.1143 -0.1780
31643DOD     C238749  13.074  22.166  11.925 -0.0032 -0.2329  0.1166
31643DOD     C338750  13.231  22.252  12.371  0.1018  0.2878  0.2283
31644DOD     C138751   0.354  11.384  16.529 -0.0079 -0.0727 -0.1871
31644DOD     C238752   0.170  10.967  16.447  0.1982  0.0786  0.0195
31644DOD     C338753  30.045  10.890  16.465 -0.1633  0.2909 -0.0360
31645DOD     C138754   6.992  21.974   2.022 -0.0643 -0.0512 -0.0266
31645DOD     C238755   6.716  21.642   2.048  0.2857  0.0121 -0.1727
31645DOD     C338756   6.396  21.320   2.097  0.0352  0.3686 -0.1432
31646DOD     C138757  29.398  22.118   0.933  0.0307  0.0707  0.2295
31646DOD     C238758  29.538  22.310   1.305 -0.2586  0.3336 -0.1608
31646DOD     C338759  29.835  22.498   1.673 -0.1589 -0.0149 -0.1950
31647DOD     C138760  23.874  25.719  24.138  0.2652 -0.1507 -0.1231
31647DOD     C238761  23.901  25.934  23.733  0.1096  0.0529  0.0110
31647DOD     C338762  23.854  26.103  23.310  0.0855 -0.0431 -0.1033
31648DOD     C138763  28.608  17.680  16.380  0.2130  0.1062 -0.0312
31648DOD     C238764  28.585  18.102  16.203 -0.0054  0.0052  0.0203
31648DOD     C338765  28.682  18.448  15.890 -0.2416 -0.1635  0.0503
31649DOD     C138766  25.843  20.614  21.217  0.1873 -0.1670  0.1673
31649DOD     C238767  25.733  20.817  21.589  0.0701  0.0044 -0.1654
31649DOD     C338768  25.636  21.001  21.991  0.1988 -0.1657 -0.0330
31650DOD     C138769  20.908  13.405  17.056 -0.0029 -0.4297 -0.1205
31650DOD     C238770  21.304  13.632  17.045 -0.0196 -0.3270 -0.0606
31650DOD     C338771  21.584  14.026  17.056 -0.3427 -0.0447  0.1390
31651DOD     C138772  20.405   2.036   7.795 -0.0316  0.0570 -0.1486
31651DOD     C238773  19.965   2.116   7.722  0.0444  0.0028 -0.0964
31651DOD     C338774  19.634   2.272   8.056 -0.0716 -0.0942 -0.1170
31652DOD     C138775  25.296  28.853   7.699 -0.0940 -0.1042  0.0392
31652DOD     C238776  24.869  28.750   7.765 -0.1403 -0.4241  0.1727
31652DOD     C338777  24.592  28.664   8.090  0.1645 -0.0099 -0.0367
31653DOD     C138778  17.423  16.718   1.296 -0.0841  0.0604  0.4312
31653DOD     C238779  17.502  16.975   0.959 -0.0354  0.0177 -0.0126
31653DOD     C338780  17.477  17.393   0.697  0.0071 -0.2358 -0.0257
31654DOD     C138781  21.188  25.204  24.184  0.4184  0.0629 -0.1174
31654DOD     C238782  20.972  25.415  23.818 -0.0624  0.0442 -0.2084
31654DOD     C338783  20.566  25.698  23.691  0.0082  0.1341  0.0767
31655DOD     C138784  11.310  21.044  25.898 -0.3762 -0.0246  0.4894
31655DOD     C238785  11.544  21.434  25.976 -0.0923 -0.0173 -0.0080
31655DOD     C338786  11.625  21.874  25.881  0.2063 -0.0652  0.2042
31656DOD     C138787  11.860  13.396   6.624 -0.4319  0.1283 -0.3095
31656DOD     C238788  12.034  13.008   6.597  0.0937  0.0982 -0.0231
31656DOD     C338789  12.260  12.561   6.566 -0.2422 -0.0220  0.2649
31657DOD     C138790  19.430   2.888  20.908  0.0656  0.2168 -0.0050
31657DOD     C238791  19.761   2.693  20.661 -0.5483  0.1879  0.1215
31657DOD     C338792  20.159   2.454  20.717  0.0444 -0.0449 -0.1245
31658DOD     C138793  25.331  28.828  25.256 -0.2138 -0.1996 -0.0786
31658DOD     C238794  25.289  28.421  25.378  0.0622  0.0708 -0.0825
31658DOD     C338795  25.519  28.078  25.558 -0.1398  0.1003 -0.1368
31659DOD     C138796  16.722  22.068   9.823 -0.0725  0.0287  0.1479
31659DOD     C238797  16.944  22.186  10.280 -0.3272 -0.1735  0.0258
31659DOD     C338798  16.938  22.386  10.680 -0.0346 -0.0768  0.0351
31660DOD     C138799   2.709  21.029  12.414  0.0784  0.0326  0.1099
31660DOD     C238800   2.860  20.616  12.433  0.0471 -0.0291 -0.1694
31660DOD     C338801   3.152  20.241  12.522 -0.1773 -0.0865  0.2442
31661DOD     C138802  17.894  20.880   6.457  0.1071  0.3033 -0.0336
31661DOD     C238803  17.760  21.175   6.764  0.0568 -0.3389 -0.1302
31661DOD     C338804  17.708  21.654   6.777  0.2931 -0.0362  0.1038
31662DOD     C138805  19.782   4.881   4.337 -0.0238 -0.1626 -0.2177
31662DOD     C238806  20.161   5.168   4.284 -0.1183  0.0476 -0.0927
31662DOD     C338807  20.514   5.401   4.058 -0.2628 -0.2473  0.0087
31663DOD     C138808  11.670  17.344  15.903 -0.0003 -0.2428  0.1842
31663DOD     C238809  11.520  17.802  15.900  0.0364 -0.2165  0.0133
31663DOD     C338810  11.492  18.217  15.746  0.1426  0.0675 -0.2383
31664DOD     C138811  16.711   2.435  29.839 -0.2688 -0.2869 -0.0172
31664DOD     C238812  16.807   2.858  29.781  0.1842  0.0561  0.0562
31664DOD     C338813  16.749   3.309  29.541 -0.4326 -0.1111 -0.3450
31665DOD     C138814  28.850  28.552  16.872 -0.1305  0.1967 -0.2690
31665DOD     C238815  28.972  28.890  17.130 -0.0048 -0.0680  0.0033
31665DOD     C338816  29.118  29.365  16.998  0.1827  0.0968  0.1009
31666DOD     C138817   9.659   8.963   6.691  0.3062 -0.0678  0.1961
31666DOD     C238818   9.561   8.553   6.767  0.2304 -0.0142 -0.1284
31666DOD     C338819   9.833   8.199   6.650  0.1237 -0.0751 -0.1001
31667DOD     C138820  25.153  19.606  23.158  0.1420 -0.2590  0.2746
31667DOD     C238821  24.838  19.832  23.445 -0.1613  0.0929  0.1205
31667DOD     C338822  24.888  19.870  23.893  0.1199  0.0580  0.1829
31668DOD     C138823   2.454  19.494  16.370 -0.1245 -0.0275  0.1234
31668DOD     C238824   2.664  19.852  16.576 -0.0250  0.2104 -0.1471
31668DOD     C338825   2.978  20.205  16.623  0.1866 -0.0855 -0.3324
31669DOD     C138826   5.380  13.732   2.317 -0.1295 -0.5302 -0.0536
31669DOD     C238827   5.810  13.610   2.377 -0.3216  0.2811  0.0279
31669DOD     C338828   6.212  13.471   2.202 -0.1902 -0.1953 -0.0799
31670DOD     C138829  18.769  13.091  13.923  0.0625  0.0630 -0.1229
31670DOD     C238830  19.125  12.763  13.892  0.0657  0.1364  0.0429
31670DOD     C338831  19.419  12.640  14.132 -0.0684  0.0466 -0.2191
31671DOD     C138832  27.271  29.159  11.769 -0.2724 -0.0201 -0.0684
31671DOD     C238833  27.218  28.771  11.564  0.3528  0.0460 -0.1580
31671DOD     C338834  27.223  28.517  11.114  0.1222 -0.1332  0.0313
31672DOD     C138835   5.677   4.104  16.914  0.3617  0.1009  0.4803
31672DOD     C238836   5.225   4.036  16.932 -0.2028  0.2551 -0.0980
31672DOD     C338837   4.954   3.710  16.744 -0.1127  0.1995  0.0175
31673DOD     C138838  15.471  17.892   0.137 -0.0435 -0.1692 -0.0730
31673DOD     C238839  15.741  17.696  30.172 -0.1130 -0.1304 -0.3109
31673DOD     C338840  16.104  17.601  29.899  0.0359 -0.0041 -0.1066
31674DOD     C138841  24.831   5.799   1.841 -0.0196 -0.0149  0.1510
31674DOD     C238842  24.546   6.109   1.899  0.1076 -0.3137 -0.0633
31674DOD     C338843  24.215   6.430   2.075  0.0755 -0.0800  0.2416
31675DOD     C138844  15.633   7.065  21.651 -0.0573 -0.0623 -0.0024
31675DOD     C238845  15.201   7.044  21.526 -0.0271 -0.1575 -0.2837
31675DOD     C338846  14.863   7.329  21.450 -0.0214  0.0713 -0.4544
31676DOD     C138847  22.699  15.112  29.040  0.1306  0.1486  0.3907
31676DOD     C238848  22.883  15.524  28.853  0.2149  0.0856 -0.3103
31676DOD     C338849  23.090  15.903  28.739 -0.0812 -0.0348  0.0609
31677DOD     C138850  13.611  15.433   8.966 -0.0079 -0.1707 -0.0713
31677DOD     C238851  14.057  15.525   8.931 -0.2739  0.5364 -0.0071
31677DOD     C338852  14.495  15.761   8.792 -0.1611  0.1475 -0.2279
31678DOD     C138853  20.244  18.747  24.101  0.0836  0.1667  0.2968
31678DOD     C238854  19.783  18.746  24.146  0.1060 -0.0617  0.1795
31678DOD     C338855  19.419  18.757  24.486 -0.1833  0.4060  0.0794
31679DOD     C138856  13.091  30.033   8.404 -0.0329 -0.2107  0.0655
31679DOD     C238857  13.532  30.140   8.530 -0.2206  0.1895  0.0829
31679DOD     C338858  13.917   0.055   8.575 -0.1337 -0.5863  0.2912
31680DOD     C138859  28.940   7.073   1.131  0.1034  0.0529 -0.0526
31680DOD     C238860  29.368   7.080   0.998 -0.1815  0.0228 -0.1846
31680DOD     C338861  29.788   7.032   0.787 -0.0617  0.0954 -0.0070
31681DOD     C138862  18.851  23.788   5.084 -0.0700 -0.0554 -0.0612
31681DOD     C238863  19.261  23.720   5.276 -0.0085  0.1187  0.1708
31681DOD     C338864  19.673  23.851   5.128 -0.1987  0.4404 -0.1095
31682DOD     C138865  10.452   9.464  10.620  0.3225 -0.1586 -0.0334
31682DOD     C238866  10.533   9.255  10.192 -0.1216 -0.1969 -0.2077
31682DOD     C338867  10.976   9.230  10.073  0.1804  0.0966  0.0343
31683DOD     C138868   5.528  25.291  13.089 -0.2398 -0.4586  0.2412
31683DOD     C238869   5.305  24.880  12.912  0.1154 -0.2125 -0.0422
31683DOD     C338870   5.232  24.417  12.949  0.2794  0.0264 -0.0097
31684DOD     C138871  27.183   5.037  12.245  0.0035 -0.0461  0.1011
31684DOD     C238872  27.568   5.355  12.179 -0.1469 -0.0423 -0.0654
31684DOD     C338873  27.850   5.690  12.233 -0.1551  0.2084 -0.1579
31685DOD     C138874   5.832  19.045   2.273  0.1683  0.1671  0.0191
31685DOD     C238875   5.985  18.924   2.703 -0.0793 -0.1235 -0.0675
31685DOD     C338876   6.283  18.831   3.119 -0.1888  0.1329  0.1841
31686DOD     C138877  22.486   5.199  21.984  0.2803 -0.0756  0.0802
31686DOD     C238878  22.146   4.948  21.773 -0.2861 -0.2465 -0.0357
31686DOD     C338879  22.128   4.748  21.339  0.0632 -0.1127  0.1162
31687DOD     C138880  18.255  27.994  16.183 -0.0270  0.1211  0.1667
31687DOD     C238881  18.661  27.825  16.116 -0.0670  0.1075  0.0444
31687DOD     C338882  19.079  27.656  16.196 -0.0857  0.2311 -0.2201
31688DOD     C138883  12.424  28.226  12.610 -0.1613  0.1810  0.0594
31688DOD     C238884  12.711  28.305  12.952 -0.2871  0.4273 -0.1393
31688DOD     C338885  12.731  28.597  13.353  0.0199 -0.0565  0.1529
31689DOD     C138886   3.747  12.120  14.185  0.2807 -0.0002  0.0402
31689DOD     C238887   3.658  12.295  13.763  0.1666 -0.1166  0.1135
31689DOD     C338888   3.740  12.747  13.676  0.1594 -0.1923  0.1569
31690DOD     C138889   7.976   2.791   7.988  0.0190  0.1238 -0.1269
31690DOD     C238890   7.572   2.972   7.969 -0.2196  0.2169 -0.0894
31690DOD     C338891   7.188   3.002   7.706 -0.1430 -0.1993  0.1611
31691DOD     C138892   3.614   4.086   7.622  0.0969 -0.1754  0.0240
31691DOD     C238893   3.889   4.113   8.017  0.0001 -0.1712  0.1214
31691DOD     C338894   3.744   4.183   8.447 -0.1241  0.0231 -0.2104
31692DOD     C138895   6.107  29.847  12.129  0.0388  0.0661  0.0015
31692DOD     C238896   6.383  30.084  11.795 -0.1086  0.0665  0.1103
31692DOD     C338897   6.743  30.043  11.583  0.2769 -0.1187 -0.1303
31693DOD     C138898   8.963  23.499  26.028 -0.2166 -0.1020  0.3317
31693DOD     C238899   8.575  23.601  25.778  0.3115  0.3407  0.0920
31693DOD     C338900   8.359  23.803  25.408 -0.0635 -0.1129  0.1353
31694DOD     C138901  19.063  19.680   0.497 -0.0966  0.0991 -0.1403
31694DOD     C238902  19.366  19.960   0.334  0.0449 -0.1458 -0.1063
31694DOD     C338903  19.820  20.028   0.236  0.1738 -0.0359  0.2162
31695DOD     C138904  17.963   8.197  13.231 -0.2018 -0.0008 -0.0086
31695DOD     C238905  17.616   7.973  13.004 -0.2880  0.0165 -0.2855
31695DOD     C338906  17.233   7.719  12.972 -0.1689 -0.0446 -0.0325
31696DOD     C138907   0.499   0.619   6.494 -0.0473  0.0413 -0.1378
31696DOD     C238908   0.257   0.188   6.555  0.0833  0.3460  0.1466
31696DOD     C338909   0.214  30.206   6.171  0.1753  0.1156 -0.0639
31697DOD     C138910   5.437  22.830   4.070 -0.1695  0.2931  0.1779
31697DOD     C238911   5.896  22.710   4.041  0.0552 -0.3599 -0.1834
31697DOD     C338912   6.310  22.599   4.200  0.0817 -0.1749 -0.2023
31698DOD     C138913  28.081  18.205  16.308 -0.1459 -0.0749 -0.2589
31698DOD     C238914  27.801  18.314  16.650  0.3680 -0.1198  0.3238
31698DOD     C338915  27.385  18.329  16.808  0.0491  0.2049 -0.0757
31699DOD     C138916  10.337  23.858   1.328 -0.1970 -0.1679  0.0610
31699DOD     C238917   9.966  23.659   1.146 -0.0556  0.1912 -0.1682
31699DOD     C338918   9.668  23.620   0.782 -0.0281  0.1475  0.1295
31700DOD     C138919  12.549  17.441  16.563  0.0152  0.1238  0.0229
31700DOD     C238920  12.581  17.242  16.122  0.0888  0.0113 -0.0117
31700DOD     C338921  12.563  16.882  15.881  0.0955  0.1671 -0.3674
31701DOD     C138922  20.810  14.280   4.401 -0.2027 -0.0856 -0.0227
31701DOD     C238923  20.720  14.727   4.561  0.1257 -0.2773  0.2982
31701DOD     C338924  20.785  14.956   4.996  0.2628  0.0438 -0.0759
31702DOD     C138925   4.449  17.567  13.816 -0.0307 -0.0362 -0.1812
31702DOD     C238926   4.209  17.196  14.021 -0.0337  0.1119 -0.3311
31702DOD     C338927   3.789  17.017  14.087  0.0929  0.0863 -0.0891
31703DOD     C138928  28.899  29.533   5.770 -0.0654  0.0543  0.1236
31703DOD     C238929  29.178  29.576   5.411  0.2182  0.5098  0.2515
31703DOD     C338930  29.220  29.493   4.959 -0.3224 -0.2570  0.2357
31704DOD     C138931  15.308   2.434   6.311 -0.0489  0.2154  0.2064
31704DOD     C238932  15.522   2.803   6.127  0.1318  0.0671 -0.2477
31704DOD     C338933  15.911   2.995   6.258  0.2285  0.1094  0.1284
31705DOD     C138934  28.300  16.108  19.894 -0.1197  0.2372  0.1682
31705DOD     C238935  28.345  16.474  20.192 -0.2185  0.0909  0.3465
31705DOD     C338936  28.189  16.626  20.619  0.3561 -0.2498  0.1445
31706DOD     C138937  17.065  14.739  17.809 -0.0415  0.0620 -0.2759
31706DOD     C238938  17.528  14.709  17.853 -0.0264  0.1039 -0.3703
31706DOD     C338939  17.943  14.909  17.981  0.0544 -0.3918  0.2215
31707DOD     C138940   7.766  16.681  29.345 -0.2700  0.0164  0.5444
31707DOD     C238941   8.044  16.993  29.241  0.1888  0.0087  0.3666
31707DOD     C338942   8.343  17.149  28.908  0.0491 -0.0774 -0.0432
31708DOD     C138943   6.299  11.231  17.764 -0.0550  0.1447 -0.0067
31708DOD     C238944   5.868  11.359  17.950 -0.2458  0.1961 -0.2391
31708DOD     C338945   5.830  11.792  18.115  0.2941  0.0921  0.1937
31709DOD     C138946   9.731  18.466   4.158 -0.1900  0.2549 -0.2894
31709DOD     C238947   9.316  18.658   4.060  0.0439 -0.0825 -0.0279
31709DOD     C338948   8.941  18.610   4.188  0.3939 -0.3344 -0.1626
31710DOD     C138949   7.901  29.091   4.462 -0.4524 -0.1380  0.0042
31710DOD     C238950   8.140  29.139   4.856  0.2680 -0.1118  0.0579
31710DOD     C338951   8.369  29.127   5.236 -0.0282 -0.1224  0.0905
31711DOD     C138952  20.090   5.494  10.613 -0.1788 -0.4110  0.1316
31711DOD     C238953  20.074   5.855  10.360  0.0263 -0.3435 -0.1828
31711DOD     C338954  19.912   6.249  10.473  0.0423  0.0445 -0.0005
31712DOD     C138955  15.072   7.289  10.747 -0.2465  0.1775 -0.5635
31712DOD     C238956  14.917   7.449  10.299 -0.2696  0.0635  0.2623
31712DOD     C338957  14.899   7.569   9.824  0.0366  0.3569  0.2451
31713DOD     C138958   8.269   8.804   6.663  0.1053 -0.2259 -0.1588
31713DOD     C238959   8.354   8.688   7.098 -0.3358 -0.3617  0.3476
31713DOD     C338960   8.549   8.591   7.532  0.0107  0.3260 -0.1984
31714DOD     C138961  16.408  20.233  15.298 -0.0340  0.1297  0.0836
31714DOD     C238962  16.862  20.309  15.059  0.0523 -0.2223 -0.1031
31714DOD     C338963  17.363  20.249  15.039  0.0414  0.0187 -0.1979
31715DOD     C138964   1.894  21.680  16.768  0.2540 -0.2170 -0.1039
31715DOD     C238965   1.847  21.370  17.156 -0.0437  0.0464  0.0309
31715DOD     C338966   1.465  21.148  17.273 -0.1356 -0.1992 -0.1098
31716DOD     C138967  29.236   4.459  21.437  0.1859 -0.1637  0.2006
31716DOD     C238968  29.067   4.819  21.160  0.0865 -0.1829 -0.0605
31716DOD     C338969  28.895   5.231  21.036  0.0358 -0.3128 -0.2081
31717DOD     C138970  21.294  27.238   8.942  0.0602 -0.4644  0.3539
31717DOD     C238971  21.220  27.443   9.352  0.2396 -0.0812 -0.2485
31717DOD     C338972  20.873  27.580   9.678 -0.1968  0.1518 -0.1007
31718DOD     C138973  20.573  15.324   3.739  0.0723  0.1828  0.0765
31718DOD     C238974  20.434  15.620   3.361  0.1636  0.1054  0.0614
31718DOD     C338975  20.223  16.013   3.237 -0.2264  0.0445  0.0331
31719DOD     C138976   8.060  10.500  19.578  0.2534 -0.1404  0.1179
31719DOD     C238977   8.323  10.550  19.220 -0.0124 -0.0702  0.1460
31719DOD     C338978   8.385  10.254  18.820 -0.0712  0.3650  0.3071
31720DOD     C138979   2.177  24.984  29.007  0.1452  0.0693  0.1332
31720DOD     C238980   2.551  24.698  29.039 -0.0262  0.2875 -0.0222
31720DOD     C338981   2.936  24.503  28.837 -0.0889  0.4563  0.2923
31721DOD     C138982  17.874  28.711   4.608 -0.0303 -0.1229  0.1791
31721DOD     C238983  17.960  28.224   4.470  0.0998  0.0869 -0.1414
31721DOD     C338984  17.811  27.977   4.093  0.1061  0.1563  0.1025
31722DOD     C138985  22.574  17.514   2.369 -0.2198 -0.2553  0.3583
31722DOD     C238986  22.778  17.729   2.770  0.1170 -0.0073 -0.1681
31722DOD     C338987  23.121  17.891   3.070  0.0228  0.1905 -0.0187
31723DOD     C138988   6.403   5.305   0.862  0.2447  0.3257  0.2342
31723DOD     C238989   6.412   5.743   0.866  0.1639 -0.2060  0.2325
31723DOD     C338990   6.514   6.168   0.820  0.2860 -0.0885  0.1607
31724DOD     C138991  16.095  22.025  19.162  0.1327 -0.3585  0.3640
31724DOD     C238992  16.593  22.127  19.157 -0.0970 -0.0404 -0.0489
31724DOD     C338993  17.060  22.331  19.156  0.0465 -0.3609 -0.0384
31725DOD     C138994  27.166   1.106  22.549 -0.2195  0.1370  0.1813
31725DOD     C238995  27.398   0.666  22.679 -0.2619 -0.2607 -0.0356
31725DOD     C338996  27.282   0.244  22.753 -0.0492 -0.2766  0.0143
31726DOD     C138997  26.191  24.925   4.180 -0.0212 -0.0084  0.0873
31726DOD     C238998  25.822  24.807   3.892  0.1043  0.0045  0.3332
31726DOD     C338999  25.379  24.652   3.673  0.1930 -0.3414 -0.0588
31727DOD     C139000   7.398  24.690   8.033 -0.0872  0.1678  0.0417
31727DOD     C239001   7.476  25.141   7.922 -0.1007 -0.0894  0.0252
31727DOD     C339002   7.438  25.649   8.001  0.0085  0.0367 -0.3653
31728DOD     C139003  14.602  12.887  29.109 -0.2459 -0.0795 -0.3046
31728DOD     C239004  14.955  12.963  28.840 -0.5651 -0.1929  0.2094
31728DOD     C339005  14.973  13.055  28.355 -0.0646  0.0616  0.1848
31729DOD     C139006  22.070  21.662   5.178 -0.1146  0.3705 -0.1973
31729DOD     C239007  22.321  21.827   4.822  0.0965 -0.1088  0.1569
31729DOD     C339008  22.617  21.613   4.559  0.2115  0.0296 -0.0256
31730DOD     C139009  24.431  20.901  12.137  0.1838 -0.1054 -0.0521
31730DOD     C239010  24.014  20.992  12.336  0.1616  0.0527  0.1591
31730DOD     C339011  23.629  20.825  12.524  0.3211  0.2538 -0.0032
31731DOD     C139012  26.218  21.248  18.776 -0.1462  0.1760  0.2543
31731DOD     C239013  25.754  21.182  18.796  0.1448  0.1711  0.0561
31731DOD     C339014  25.557  21.337  18.428 -0.1591 -0.2705 -0.1818
31732DOD     C139015  14.974  16.592   1.004  0.1010 -0.1561  0.0718
31732DOD     C239016  14.699  16.182   1.093 -0.0869  0.1579  0.0611
31732DOD     C339017  14.359  15.879   1.138 -0.1234 -0.2666  0.0634
31733DOD     C139018  23.144   8.061  14.548 -0.2655  0.0423 -0.0928
31733DOD     C239019  23.302   8.280  15.013 -0.1129 -0.0925 -0.0479
31733DOD     C339020  23.512   8.414  15.415 -0.2648  0.0966  0.0266
31734DOD     C139021  23.056  17.750  10.659 -0.2060 -0.0815 -0.2015
31734DOD     C239022  22.914  17.972  11.038  0.0494  0.1255 -0.2303
31734DOD     C339023  22.692  18.279  11.261 -0.3198 -0.0611 -0.1571
31735DOD     C139024  19.263  15.854   1.179  0.2943  0.1905  0.3864
31735DOD     C239025  19.296  15.454   1.344  0.0826 -0.0686  0.3300
31735DOD     C339026  19.217  15.171   1.738  0.0206  0.1445  0.0614
31736DOD     C139027  23.882  25.758   1.349  0.1549 -0.2675 -0.4367
31736DOD     C239028  23.884  25.270   1.417  0.0776 -0.2571 -0.0624
31736DOD     C339029  23.605  24.962   1.629 -0.1310 -0.3838  0.3356
31737DOD     C139030  19.070   3.395   4.149  0.4073  0.1517 -0.2636
31737DOD     C239031  18.693   3.373   4.387  0.0044 -0.2411  0.2365
31737DOD     C339032  18.425   3.004   4.498 -0.1493 -0.0298 -0.2540
31738DOD     C139033  14.780  29.950  13.593 -0.2647  0.0351 -0.3838
31738DOD     C239034  14.890  29.482  13.712 -0.0725  0.0543  0.2667
31738DOD     C339035  14.925  29.093  13.485  0.0106 -0.1147  0.1512
31739DOD     C139036  26.792  10.130   3.467  0.0962  0.1671  0.0569
31739DOD     C239037  26.707   9.674   3.334  0.1121  0.2784 -0.1146
31739DOD     C339038  26.358   9.401   3.088 -0.1602  0.2452 -0.5185
31740DOD     C139039   3.502  18.094  29.536  0.1941  0.0714  0.3411
31740DOD     C239040   3.738  18.308  29.219  0.1354 -0.2806  0.2523
31740DOD     C339041   4.191  18.281  29.142  0.2144  0.1957 -0.3273
31741DOD     C139042   3.843   4.855  28.202 -0.1232  0.1339 -0.4258
31741DOD     C239043   3.765   5.174  27.935 -0.1547  0.0945  0.1179
31741DOD     C339044   3.808   5.548  27.689 -0.1341  0.1908 -0.3375
31742DOD     C139045  12.781   9.616  15.957 -0.4699  0.0487 -0.0180
31742DOD     C239046  13.215   9.760  15.889  0.1842  0.2642  0.2716
31742DOD     C339047  13.619   9.670  15.644  0.2877  0.0722  0.0326
31743DOD     C139048   7.359  13.787  12.512  0.0303  0.0714 -0.0098
31743DOD     C239049   7.784  13.607  12.680 -0.2634 -0.0585  0.1135
31743DOD     C339050   8.014  13.473  13.060 -0.1543 -0.0402  0.0337
31744DOD     C139051   6.281  29.147  18.849  0.3518 -0.0710  0.3396
31744DOD     C239052   6.415  29.401  18.467 -0.2073 -0.2822 -0.0261
31744DOD     C339053   6.885  29.506  18.378  0.3252 -0.1062  0.0939
31745DOD     C139054  18.191  19.897  16.307 -0.0854 -0.0888 -0.0601
31745DOD     C239055  18.277  20.062  15.911 -0.1549  0.0339 -0.2323
31745DOD     C339056  18.151  20.175  15.460  0.1469  0.1293 -0.1329
31746DOD     C139057  10.691  23.684  12.369  0.1879 -0.0967  0.0443
31746DOD     C239058  10.499  23.972  12.057  0.0885 -0.2770 -0.2087
31746DOD     C339059  10.419  24.341  11.779  0.1665 -0.2467 -0.1775
31747DOD     C139060  19.299  17.465  26.684  0.1213  0.1324  0.2355
31747DOD     C239061  19.248  17.733  26.268 -0.1519 -0.0029  0.1074
31747DOD     C339062  18.884  17.912  26.115  0.2947 -0.2263  0.1904
31748DOD     C139063   2.109  11.780   2.015 -0.2141 -0.3241 -0.0883
31748DOD     C239064   2.298  11.780   1.592 -0.0244 -0.0922  0.1174
31748DOD     C339065   2.408  11.872   1.134  0.2087 -0.0081  0.0873
31749DOD     C139066  16.914  13.845   9.212  0.0512  0.0163 -0.1569
31749DOD     C239067  16.544  13.987   8.972 -0.0507 -0.1625  0.1802
31749DOD     C339068  16.212  14.150   8.709 -0.1778 -0.2161  0.0015
31750DOD     C139069  22.296   7.865   0.906  0.0541 -0.0693 -0.2709
31750DOD     C239070  22.046   7.539   1.182 -0.0011  0.1538  0.4207
31750DOD     C339071  21.628   7.684   1.188  0.1169 -0.4168  0.1373
31751DOD     C139072   2.863  12.422  19.000  0.0783 -0.0925  0.2586
31751DOD     C239073   2.983  12.026  18.973  0.0504  0.0696 -0.2882
31751DOD     C339074   2.921  11.542  19.189 -0.0383  0.1593  0.1190
31752DOD     C139075   5.259  23.831  21.934  0.1858  0.0931 -0.0842
31752DOD     C239076   5.691  23.888  21.761  0.3395  0.0569 -0.0061
31752DOD     C339077   6.028  24.122  21.494  0.0702  0.0196 -0.0742
31753DOD     C139078   9.314   1.204  22.566 -0.6728 -0.1671 -0.2631
31753DOD     C239079   8.920   1.363  22.674 -0.0231 -0.0135 -0.1412
31753DOD     C339080   8.479   1.536  22.658  0.2476 -0.0942  0.1821
31754DOD     C139081  14.825   6.483  10.431  0.0242 -0.1810  0.1216
31754DOD     C239082  14.479   6.254  10.215  0.0250  0.0156  0.0241
31754DOD     C339083  14.068   6.092  10.094  0.0084 -0.3577 -0.0654
31755DOD     C139084  16.113  19.111  26.526  0.4561  0.0077  0.1817
31755DOD     C239085  15.941  18.613  26.520 -0.0929 -0.0708  0.0235
31755DOD     C339086  15.690  18.195  26.329 -0.0779  0.3132  0.1396
31756DOD     C139087   7.731  20.871  17.404  0.1779  0.0829 -0.0782
31756DOD     C239088   7.783  20.942  17.856 -0.2408 -0.1137  0.1503
31756DOD     C339089   7.771  21.349  18.083  0.0386 -0.0959 -0.1102
31757DOD     C139090   8.184  20.212   7.322 -0.0203 -0.1726  0.2225
31757DOD     C239091   8.300  20.642   7.297 -0.2600  0.0993  0.0494
31757DOD     C339092   8.128  20.962   7.562 -0.0588  0.5228  0.1205
31758DOD     C139093  17.793  29.942  23.976  0.2196  0.1600  0.2926
31758DOD     C239094  18.171  29.889  24.285 -0.1791  0.0612 -0.1791
31758DOD     C339095  18.470  29.949  24.637 -0.1685 -0.1806  0.0839
31759DOD     C139096  21.507  17.163  17.212 -0.1551 -0.4423 -0.0776
31759DOD     C239097  21.473  17.118  16.769  0.0701 -0.1550  0.0087
31759DOD     C339098  21.539  17.196  16.310  0.0893 -0.0167  0.0734
31760DOD     C139099  13.496  15.710  11.791 -0.4187  0.1817  0.1236
31760DOD     C239100  13.457  15.727  11.309  0.2022  0.3198  0.0378
31760DOD     C339101  13.615  15.607  10.887  0.1933 -0.1891  0.1127
31761DOD     C139102   5.637   3.242  25.595  0.1539 -0.1887 -0.0855
31761DOD     C239103   5.936   3.227  26.009  0.0589 -0.2704 -0.0470
31761DOD     C339104   6.213   3.311  26.408 -0.1061 -0.1258 -0.0629
31762DOD     C139105  27.438  11.047  19.376 -0.2333 -0.2194  0.0823
31762DOD     C239106  27.767  11.061  18.988 -0.1458  0.0292 -0.2799
31762DOD     C339107  27.988  11.191  18.676  0.2565  0.1976  0.2153
31763DOD     C139108  15.978   8.593  27.367  0.2225  0.1956 -0.3319
31763DOD     C239109  15.756   8.214  27.284  0.1436 -0.0905  0.0135
31763DOD     C339110  15.702   8.032  26.894  0.0049  0.1337  0.3048
31764DOD     C139111  27.259  19.379  22.123  0.3358  0.2054  0.2814
31764DOD     C239112  27.133  19.646  21.714 -0.3373  0.2896 -0.2145
31764DOD     C339113  27.244  19.474  21.282  0.0300  0.2249 -0.1391
31765DOD     C139114   9.931  13.960  15.266 -0.1108 -0.0111  0.2524
31765DOD     C239115   9.810  14.394  15.153  0.0199 -0.1020 -0.0444
31765DOD     C339116   9.591  14.817  15.006  0.0487 -0.0916 -0.0097
31766DOD     C139117  21.420  28.785   7.899  0.3000  0.3262 -0.0793
31766DOD     C239118  21.337  28.373   7.628  0.1627  0.2392  0.1267
31766DOD     C339119  21.257  28.005   7.295  0.2175 -0.1888  0.2972
31767DOD     C139120   3.472   8.393  27.906  0.2472  0.0603  0.1388
31767DOD     C239121   3.293   8.512  28.336 -0.0997 -0.1187 -0.0532
31767DOD     C339122   3.112   8.797  28.709  0.0400  0.0035 -0.1702
31768DOD     C139123  23.074   9.673  28.170  0.0972  0.2850  0.0568
31768DOD     C239124  22.968  10.109  28.127  0.0009 -0.1311 -0.0057
31768DOD     C339125  23.183  10.498  28.305 -0.0164  0.0569  0.1159
31769DOD     C139126   1.395  23.608  22.045 -0.1019 -0.1420  0.2010
31769DOD     C239127   1.681  23.438  22.402  0.5227  0.0303 -0.0537
31769DOD     C339128   1.865  23.235  22.822 -0.0996 -0.2548  0.0740
31770DOD     C139129  27.090  15.196  13.126  0.4324 -0.1941  0.0498
31770DOD     C239130  27.263  14.957  12.779  0.3854  0.3013 -0.2233
31770DOD     C339131  27.582  14.677  12.589 -0.1173 -0.0420  0.3340
31771DOD     C139132  20.145  26.113   6.876  0.2057  0.1666  0.1142
31771DOD     C239133  19.930  26.339   7.174 -0.1700 -0.2049 -0.0219
31771DOD     C339134  19.779  26.619   7.478  0.3118  0.1758  0.1043
31772DOD     C139135  28.177  15.490  23.115  0.0083 -0.1975 -0.0609
31772DOD     C239136  27.788  15.722  23.024 -0.3555 -0.1016  0.0778
31772DOD     C339137  27.450  16.011  23.012 -0.1852  0.1057  0.3827
31773DOD     C139138   3.812  11.895   3.667 -0.2389 -0.0010 -0.1515
31773DOD     C239139   4.181  11.885   3.346  0.2164 -0.1562  0.1987
31773DOD     C339140   4.349  11.503   3.090  0.0206  0.2408  0.0003
31774DOD     C139141  20.235   4.390  19.920  0.0996 -0.2772  0.2299
31774DOD     C239142  20.453   4.138  19.632 -0.0249  0.3238  0.1778
31774DOD     C339143  20.725   4.030  19.285 -0.2661 -0.2403 -0.0111
31775DOD     C139144  10.342  12.551   0.317  0.0137 -0.0305  0.6730
31775DOD     C239145  10.269  12.307  30.245 -0.4046 -0.0784 -0.1410
31775DOD     C339146  10.445  12.143  29.840 -0.1570 -0.3233 -0.0494
31776DOD     C139147  15.782  29.596   8.857  0.1977 -0.0445 -0.2781
31776DOD     C239148  15.953  29.199   8.765 -0.3282 -0.0100  0.2233
31776DOD     C339149  16.399  29.354   8.564 -0.2250  0.0848 -0.2177
31777DOD     C139150  14.903  29.601  24.637 -0.2309  0.2287  0.0960
31777DOD     C239151  14.632  29.914  24.815  0.1189 -0.0725  0.0388
31777DOD     C339152  14.539  30.081  25.219 -0.0740 -0.0081 -0.1260
31778DOD     C139153  19.786   4.381  14.749 -0.0717 -0.2342 -0.0061
31778DOD     C239154  19.851   4.313  14.258 -0.0818  0.1044 -0.3712
31778DOD     C339155  20.091   4.076  13.925  0.1308 -0.0396 -0.1072
31779DOD     C139156  16.257  13.799  11.395  0.1405 -0.1898  0.0724
31779DOD     C239157  16.464  14.159  11.662  0.2082  0.0163  0.0119
31779DOD     C339158  16.591  14.467  11.967  0.0629  0.2151  0.1489
31780DOD     C139159  20.890  17.010  16.849 -0.1480 -0.2317  0.1679
31780DOD     C239160  20.696  17.317  16.525 -0.0009  0.0144  0.0296
31780DOD     C339161  20.574  17.455  16.118 -0.1464  0.0577  0.0388
31781DOD     C139162  29.486  12.491  23.187 -0.1165 -0.1098  0.1496
31781DOD     C239163  29.308  12.208  23.482  0.1993  0.1156 -0.1772
31781DOD     C339164  28.952  11.903  23.485 -0.1652  0.1265 -0.3623
31782DOD     C139165  27.058  16.334  25.698  0.1465 -0.0062  0.3469
31782DOD     C239166  27.077  16.662  25.327 -0.4115 -0.1711  0.0254
31782DOD     C339167  27.354  16.877  25.000  0.0624  0.3371 -0.0530
31783DOD     C139168   8.792  25.868  23.947 -0.0410 -0.2523 -0.1628
31783DOD     C239169   8.392  26.091  23.953 -0.0274 -0.1359 -0.1621
31783DOD     C339170   8.053  26.332  23.753  0.0076  0.0892 -0.0046
31784DOD     C139171  27.978  26.170  28.811 -0.1222 -0.2222 -0.0607
31784DOD     C239172  27.785  25.751  28.660 -0.1288 -0.0841  0.4310
31784DOD     C339173  27.545  25.355  28.760  0.0397 -0.1913  0.3510
31785DOD     C139174   9.012  13.574  14.551 -0.5552 -0.0332  0.0546
31785DOD     C239175   8.973  13.497  14.062  0.0656  0.2700  0.3887
31785DOD     C339176   8.894  13.575  13.617 -0.0192 -0.0811  0.0426
31786DOD     C139177  26.166   7.700  11.730 -0.1136  0.3124 -0.1709
31786DOD     C239178  25.758   7.862  11.558 -0.0740  0.0019  0.1553
31786DOD     C339179  25.336   7.977  11.626  0.4623  0.0163  0.2762
31787DOD     C139180  13.411  23.952  10.563 -0.2249  0.1144  0.3341
31787DOD     C239181  13.402  23.799  10.088 -0.0622  0.0605  0.1067
31787DOD     C339182  13.399  23.311   9.897 -0.3577 -0.1309  0.3545
31788DOD     C139183  26.163   3.079  28.447 -0.1139  0.2327  0.1152
31788DOD     C239184  25.969   3.506  28.639  0.1078  0.1751  0.2269
31788DOD     C339185  25.949   3.731  29.029 -0.1466  0.2347  0.1296
31789DOD     C139186  13.929  16.473  27.599 -0.1397 -0.0175 -0.4359
31789DOD     C239187  14.169  16.048  27.696  0.0054  0.0610 -0.0178
31789DOD     C339188  14.079  15.590  27.754 -0.0353 -0.1089 -0.0698
31790DOD     C139189  26.160   2.346   4.607  0.2004  0.2577  0.0236
31790DOD     C239190  26.225   2.616   4.206  0.1168 -0.3789 -0.0558
31790DOD     C339191  26.351   2.428   3.764 -0.1696  0.2913 -0.0239
31791DOD     C139192   9.358  10.702  19.701  0.3293 -0.1988  0.5145
31791DOD     C239193   9.451  11.016  19.992 -0.1454 -0.1890 -0.0321
31791DOD     C339194   9.514  11.505  19.902  0.1686  0.2874  0.1177
31792DOD     C139195  18.213   1.966  22.262  0.0823 -0.0363  0.2881
31792DOD     C239196  17.872   1.921  21.959 -0.0981 -0.0396 -0.0647
31792DOD     C339197  17.781   1.689  21.613  0.1131  0.1118  0.0760
31793DOD     C139198  16.045  20.418  18.418  0.0584  0.0720  0.0292
31793DOD     C239199  15.980  20.520  18.886  0.0126 -0.0334  0.0114
31793DOD     C339200  15.666  20.792  19.096 -0.0447  0.0721  0.0948
31794DOD     C139201  27.983   9.371  28.576 -0.0702  0.0895 -0.1340
31794DOD     C239202  28.034   8.913  28.610 -0.1154  0.1267 -0.1411
31794DOD     C339203  28.274   8.505  28.438 -0.1982 -0.0159 -0.3578
31795DOD     C139204  29.191  10.481  10.332  0.1529  0.1060 -0.0051
31795DOD     C239205  28.985  10.144  10.080  0.1153 -0.3575 -0.3041
31795DOD     C339206  28.932   9.764   9.845  0.2411 -0.4160 -0.1287
31796DOD     C139207  17.091  13.835  17.910 -0.1471  0.0759 -0.1675
31796DOD     C239208  17.145  14.201  17.576 -0.1058  0.0324 -0.3147
31796DOD     C339209  17.524  14.352  17.334  0.1826  0.3122 -0.1510
31797DOD     C139210  26.431  18.009   0.224 -0.2005  0.0733 -0.0218
31797DOD     C239211  26.129  18.276   0.483  0.1436  0.0950 -0.1437
31797DOD     C339212  26.173  18.559   0.885 -0.2994  0.2305 -0.0026
31798DOD     C139213  28.715   5.628   2.202 -0.1935  0.0143  0.1923
31798DOD     C239214  28.806   6.062   2.001  0.4630  0.0499 -0.0802
31798DOD     C339215  28.979   6.502   1.931  0.4831  0.0879  0.2815
31799DOD     C139216  26.669  10.535  22.205 -0.1275 -0.0094  0.4402
31799DOD     C239217  27.101  10.378  21.990 -0.0732  0.1709  0.2250
31799DOD     C339218  27.502  10.589  21.886  0.0924  0.1567  0.0337
31800DOD     C139219   3.884  27.315  12.812  0.1464  0.1664 -0.1856
31800DOD     C239220   3.622  27.515  12.474 -0.1824  0.0391 -0.2184
31800DOD     C339221   3.676  27.592  11.994 -0.0888 -0.3157  0.0747
31801DOD     C139222   4.670  10.821  26.854  0.0245 -0.2360  0.1480
31801DOD     C239223   4.427  10.600  27.193  0.2293  0.3687 -0.1543
31801DOD     C339224   4.219  10.332  27.564  0.2368  0.0809 -0.2872
31802DOD     C139225   5.318  21.182  10.907 -0.0562 -0.0442  0.0582
31802DOD     C239226   5.179  20.892  10.584 -0.1041 -0.0942 -0.1589
31802DOD     C339227   5.013  20.665  10.216 -0.5054  0.1536  0.2679
31803DOD     C139228  19.735  12.039  17.429 -0.0521 -0.0777  0.1458
31803DOD     C239229  19.861  11.679  17.136  0.0297  0.1037  0.2215
31803DOD     C339230  20.092  11.361  16.959  0.0914  0.1225  0.3835
31804DOD     C139231  12.826  13.397  19.402  0.0235  0.3612  0.2320
31804DOD     C239232  12.479  13.130  19.226  0.2124  0.3454 -0.1712
31804DOD     C339233  12.097  12.788  19.222  0.3653 -0.0474 -0.3011
31805DOD     C139234   0.890  17.797  20.155 -0.2425 -0.0563 -0.2313
31805DOD     C239235   1.041  17.717  20.513 -0.0457 -0.1714  0.1308
31805DOD     C339236   1.085  17.535  20.939  0.2826 -0.0769 -0.1695
31806DOD     C139237  14.160  29.325  27.188  0.2813 -0.0830 -0.0152
31806DOD     C239238  14.234  29.299  27.591  0.2061  0.2081  0.1902
31806DOD     C339239  14.440  29.161  27.956 -0.0269 -0.0956  0.0274
31807DOD     C139240  25.825  28.353  27.390 -0.3087 -0.0178  0.1494
31807DOD     C239241  25.763  27.976  27.689  0.0255  0.1941  0.0795
31807DOD     C339242  25.500  27.754  28.070  0.0365  0.2064  0.3432
31808DOD     C139243   2.980   2.676  27.646  0.1995 -0.1764  0.3691
31808DOD     C239244   3.409   2.813  27.410  0.1665  0.1642  0.1910
31808DOD     C339245   3.805   2.964  27.186  0.5166 -0.1692 -0.2206
31809DOD     C139246  22.830  17.329   8.265  0.0926 -0.0718  0.0277
31809DOD     C239247  22.953  17.730   8.334 -0.4325  0.2387 -0.0592
31809DOD     C339248  23.134  17.955   8.734 -0.0043 -0.0327 -0.0976
31810DOD     C139249  22.932  20.137  13.464 -0.0371  0.1394  0.1511
31810DOD     C239250  23.109  20.247  13.886  0.1281 -0.1711  0.2289
31810DOD     C339251  23.533  20.216  14.038 -0.1496 -0.1231  0.0092
31811DOD     C139252  10.335  15.340   3.614 -0.4026  0.2825  0.0275
31811DOD     C239253  10.105  15.015   3.887 -0.0979  0.0473  0.1645
31811DOD     C339254   9.688  14.739   3.897  0.3109  0.2041 -0.1644
31812DOD     C139255  16.146   6.131   6.845  0.0627 -0.1752 -0.1127
31812DOD     C239256  15.949   5.713   7.041  0.0508 -0.0666  0.1207
31812DOD     C339257  16.271   5.401   7.088  0.2319 -0.0323  0.2567
31813DOD     C139258  18.184   6.490   1.274  0.1651 -0.0802 -0.2135
31813DOD     C239259  18.018   6.627   0.885 -0.3861 -0.3588  0.0573
31813DOD     C339260  17.823   6.704   0.428  0.0132 -0.0137  0.0723
31814DOD     C139261  23.198  24.918   1.345 -0.1413  0.0098  0.2086
31814DOD     C239262  23.081  25.126   1.747  0.0675  0.0664 -0.0491
31814DOD     C339263  23.337  25.247   2.071 -0.0238 -0.1405 -0.0650
31815DOD     C139264  29.409  18.047  30.012 -0.0057  0.1539  0.2416
31815DOD     C239265  29.879  18.073  29.902 -0.1973 -0.1085  0.2942
31815DOD     C339266  30.144  18.492  29.897  0.2997  0.2007 -0.0558
31816DOD     C139267  17.451   8.685  27.983 -0.0934  0.2460 -0.1751
31816DOD     C239268  17.268   8.793  27.586  0.0122 -0.1608 -0.3937
31816DOD     C339269  17.232   9.060  27.233 -0.1194 -0.1746  0.1015
31817DOD     C139270  21.848   8.821  10.220  0.2255 -0.0171 -0.0193
31817DOD     C239271  22.087   8.985   9.878 -0.1193  0.4417 -0.0032
31817DOD     C339272  22.162   8.967   9.398 -0.0202  0.1306 -0.0454
31818DOD     C139273  16.116   6.300   9.963 -0.0625  0.0327 -0.1732
31818DOD     C239274  16.511   6.126   9.878 -0.0169  0.2044  0.2774
31818DOD     C339275  16.936   5.970   9.995  0.3869 -0.0542  0.0403
31819DOD     C139276   4.286  12.623  17.561  0.0476 -0.0273  0.3756
31819DOD     C239277   4.449  12.527  17.116 -0.1238 -0.1405 -0.0032
31819DOD     C339278   4.528  12.443  16.666  0.1328  0.1483 -0.0359
31820DOD     C139279  24.689  12.901  17.029  0.0857 -0.0719 -0.2530
31820DOD     C239280  24.419  12.830  16.617 -0.2025 -0.0313 -0.0446
31820DOD     C339281  24.259  12.920  16.179  0.1398  0.0180 -0.1783
31821DOD     C139282  19.016   5.060   9.170 -0.0886  0.0234 -0.1165
31821DOD     C239283  18.792   5.460   9.327 -0.2380 -0.2958  0.1695
31821DOD     C339284  18.782   5.959   9.436  0.0968 -0.1963 -0.0028
31822DOD     C139285  11.793   4.183  25.416 -0.1170  0.2044 -0.1335
31822DOD     C239286  11.938   3.843  25.714  0.3018  0.1267 -0.0273
31822DOD     C339287  11.883   3.458  26.016 -0.4512  0.4338 -0.0870
31823DOD     C139288   4.965   9.433  13.552 -0.0933 -0.2016  0.3350
31823DOD     C239289   4.658   9.104  13.703  0.4832 -0.0996 -0.3513
31823DOD     C339290   4.270   9.017  13.963  0.1307 -0.2055 -0.2245
31824DOD     C139291  13.035   9.105   8.429 -0.1514  0.0621 -0.2108
31824DOD     C239292  13.421   9.337   8.466  0.0412 -0.0474 -0.1226
31824DOD     C339293  13.843   9.387   8.268  0.0562  0.1129 -0.0909
31825DOD     C139294  19.158  18.785  13.103 -0.4335 -0.1405 -0.0196
31825DOD     C239295  18.724  18.882  12.962  0.1827  0.1225 -0.4292
31825DOD     C339296  18.489  18.993  12.541 -0.1119 -0.2270 -0.4422
31826DOD     C139297  17.421  16.348  28.856  0.2292 -0.0025 -0.2820
31826DOD     C239298  17.125  16.232  29.151 -0.1827 -0.2071  0.1779
31826DOD     C339299  16.691  16.135  29.348 -0.0413 -0.0978 -0.0866
31827DOD     C139300   7.288  19.356   4.042 -0.2059  0.1851 -0.0589
31827DOD     C239301   7.233  19.167   3.625  0.2763  0.1556 -0.1747
31827DOD     C339302   7.167  19.209   3.141  0.3243 -0.0840 -0.1416
31828DOD     C139303  12.691  26.505  17.643  0.1627  0.1033  0.2142
31828DOD     C239304  13.082  26.555  17.400 -0.1286 -0.1178 -0.0324
31828DOD     C339305  13.434  26.796  17.176  0.0564  0.1424  0.2859
31829DOD     C139306  13.442  13.351  16.261 -0.4516 -0.3032  0.2477
31829DOD     C239307  13.248  12.987  16.310 -0.0779 -0.0132 -0.1240
31829DOD     C339308  12.901  12.681  16.406 -0.0189 -0.0549  0.3693
31830DOD     C139309  16.584   3.707  16.193 -0.0556 -0.0176  0.1146
31830DOD     C239310  16.197   4.019  16.125  0.0963  0.4277  0.0135
31830DOD     C339311  15.822   4.205  16.064 -0.0315 -0.2498  0.0620
31831DOD     C139312  13.721  18.009   2.460  0.2433 -0.3367  0.1119
31831DOD     C239313  13.331  17.764   2.372 -0.0341  0.0076 -0.2005
31831DOD     C339314  12.881  17.814   2.360 -0.3407 -0.0907 -0.0672
31832DOD     C139315   9.802   1.770   1.295 -0.0327  0.2137  0.4413
31832DOD     C239316   9.396   1.793   1.445  0.2501  0.0753  0.1883
31832DOD     C339317   8.987   1.870   1.596  0.0267  0.1823  0.2869
31833DOD     C139318  29.882  24.087  20.825 -0.0655 -0.1548  0.1215
31833DOD     C239319  30.251  23.818  20.908 -0.3022 -0.3258 -0.2063
31833DOD     C339320   0.410  23.711  20.885  0.2241 -0.0987 -0.0050
31834DOD     C139321  24.461  24.721  21.665 -0.0113 -0.2505  0.1517
31834DOD     C239322  24.477  25.114  21.423  0.1557 -0.1820 -0.1430
31834DOD     C339323  24.817  25.312  21.192  0.0186 -0.3007 -0.1112
31835DOD     C139324  26.266  15.626  17.245 -0.2290 -0.1419  0.1188
31835DOD     C239325  26.379  15.173  17.059 -0.1444 -0.1680 -0.4844
31835DOD     C339326  26.427  14.905  16.719 -0.1550 -0.0985 -0.2211
31836DOD     C139327  24.294  21.876  15.171 -0.1497  0.1748 -0.1040
31836DOD     C239328  23.867  22.022  15.110  0.1386 -0.4022 -0.0366
31836DOD     C339329  23.479  22.027  15.238 -0.0577  0.3233  0.0870
31837DOD     C139330  25.751   0.762  19.083  0.0537  0.1457  0.2160
31837DOD     C239331  25.392   0.529  18.886  0.2857  0.1866  0.0794
31837DOD     C339332  25.130   0.546  18.439 -0.0007  0.2867 -0.2031
31838DOD     C139333   3.751   2.787  25.101  0.2165 -0.1029  0.4358
31838DOD     C239334   3.300   2.674  25.030  0.1283 -0.1090 -0.0297
31838DOD     C339335   2.820   2.820  25.049  0.1751 -0.0450  0.0932
31839DOD     C139336   9.273  27.130  20.790  0.0694  0.0377 -0.0037
31839DOD     C239337   9.660  27.159  20.527 -0.2158 -0.1334 -0.2743
31839DOD     C339338  10.044  27.437  20.614  0.0485 -0.2968 -0.1450
31840DOD     C139339   4.024  11.365  22.369  0.2464 -0.0137 -0.1631
31840DOD     C239340   3.987  11.758  22.165 -0.1422  0.0485 -0.1098
31840DOD     C339341   4.085  12.215  22.130 -0.1725 -0.0866  0.0313
31841DOD     C139342  25.772  21.951   3.873 -0.2472 -0.1709  0.3126
31841DOD     C239343  25.470  21.653   4.093  0.0510  0.1327  0.0671
31841DOD     C339344  25.578  21.309   4.447  0.0823 -0.0792  0.0165
31842DOD     C139345  17.613  22.247  12.796  0.0486 -0.0024 -0.2521
31842DOD     C239346  17.286  22.196  12.464 -0.1196  0.0308 -0.0226
31842DOD     C339347  16.853  22.025  12.415  0.0831 -0.3261 -0.0004
31843DOD     C139348  16.505  18.059  26.636 -0.1572  0.0856 -0.0239
31843DOD     C239349  16.410  17.956  27.115 -0.0205 -0.2021  0.0736
31843DOD     C339350  16.351  17.623  27.432 -0.1684 -0.3783 -0.2694
31844DOD     C139351  10.259  18.895  23.658  0.1229 -0.1051 -0.1649
31844DOD     C239352   9.824  18.997  23.800 -0.2543  0.1400  0.1563
31844DOD     C339353   9.450  19.248  23.810 -0.2043 -0.2637  0.2335
31845DOD     C139354  14.543   2.865  26.119  0.2368  0.0882  0.0105
31845DOD     C239355  14.162   2.868  26.449 -0.3044 -0.3089  0.2352
31845DOD     C339356  13.926   3.201  26.688  0.3620  0.0103 -0.1378
31846DOD     C139357  27.591  20.911  19.575 -0.0426 -0.0380  0.0321
31846DOD     C239358  27.433  21.011  20.028 -0.0182  0.1709 -0.1264
31846DOD     C339359  27.482  21.268  20.421 -0.1961 -0.0008  0.1692
31847DOD     C139360   0.707  27.544   9.862 -0.0591 -0.1521  0.0233
31847DOD     C239361   0.896  27.876   9.602 -0.0516  0.1138 -0.0730
31847DOD     C339362   0.850  28.231   9.252 -0.1602  0.3137 -0.0560
31848DOD     C139363  18.053   2.374  23.232 -0.1145 -0.0010 -0.2714
31848DOD     C239364  18.474   2.544  23.016  0.2599 -0.1936 -0.0963
31848DOD     C339365  18.912   2.682  22.973 -0.3098  0.0601 -0.3241
31849DOD     C139366  22.577  19.667   6.228  0.1235  0.1525 -0.1758
31849DOD     C239367  22.240  19.640   5.864 -0.1214  0.0058 -0.2308
31849DOD     C339368  22.123  19.409   5.454 -0.0731  0.1276  0.0904
31850DOD     C139369  13.943   0.570  24.698  0.1124  0.0175  0.1966
31850DOD     C239370  13.926   0.997  24.531  0.0473  0.3456  0.2910
31850DOD     C339371  13.604   1.264  24.569  0.1189 -0.2458 -0.2870
31851DOD     C139372  27.608  19.594  20.217 -0.1378  0.1539 -0.3030
31851DOD     C239373  27.163  19.764  20.228  0.2574  0.0342  0.1862
31851DOD     C339374  26.727  19.937  20.460 -0.0355 -0.1522 -0.1530
31852DOD     C139375   4.990  26.654  11.796 -0.3296 -0.1205 -0.3801
31852DOD     C239376   4.810  26.993  11.982 -0.0387  0.2303  0.0049
31852DOD     C339377   5.049  27.318  12.165  0.1948  0.1900 -0.3860
31853DOD     C139378   8.020  24.271  17.431  0.0239  0.0219  0.0146
31853DOD     C239379   8.368  23.972  17.304 -0.0029 -0.1134  0.0613
31853DOD     C339380   8.603  23.616  17.509  0.0894  0.1172 -0.1209
31854DOD     C139381  15.297  24.491  13.462 -0.1468  0.3456 -0.3500
31854DOD     C239382  14.829  24.560  13.302  0.0438  0.1427 -0.0408
31854DOD     C339383  14.454  24.756  13.329 -0.0737 -0.3008  0.2071
31855DOD     C139384   9.321  13.901  12.246  0.4014  0.0232  0.2271
31855DOD     C239385   9.143  13.734  11.784 -0.1593  0.4178  0.3277
31855DOD     C339386   9.109  13.345  11.537 -0.1453 -0.3281  0.1576
31856DOD     C139387  21.038  14.210  12.266  0.0473  0.1131  0.1432
31856DOD     C239388  20.601  14.226  12.416  0.0717  0.0674  0.0303
31856DOD     C339389  20.156  14.292  12.561 -0.1263  0.3695  0.2241
31857DOD     C139390  30.112   6.340  27.980 -0.1146  0.2388 -0.0786
31857DOD     C239391  29.766   6.022  28.136 -0.1902 -0.0269  0.0435
31857DOD     C339392  29.485   6.146  28.511  0.0995  0.2339  0.0439
31858DOD     C139393  25.556  21.869  19.588 -0.0845  0.1023  0.0680
31858DOD     C239394  25.759  22.237  19.365 -0.0488  0.2618  0.1556
31858DOD     C339395  25.879  22.445  18.961  0.0476 -0.0336  0.4019
31859DOD     C139396  22.986  23.305   3.967 -0.0911 -0.1783  0.0712
31859DOD     C239397  22.831  22.943   4.116  0.1282  0.1554  0.1797
31859DOD     C339398  22.940  22.504   4.344 -0.3824  0.1152 -0.5205
31860DOD     C139399   1.378  29.716   9.109 -0.3351  0.1647 -0.1146
31860DOD     C239400   1.830  29.720   8.864  0.3967 -0.1689 -0.0785
31860DOD     C339401   2.130  29.632   8.485  0.0001 -0.2225 -0.3061
31861DOD     C139402  27.601  21.626  13.571  0.2283  0.0026 -0.1772
31861DOD     C239403  27.507  21.755  13.153  0.1113  0.0194  0.2373
31861DOD     C339404  27.260  21.889  12.759 -0.0242 -0.2060  0.2586
31862DOD     C139405  21.560   4.542   2.640  0.3688  0.0430 -0.1605
31862DOD     C239406  21.115   4.761   2.720 -0.4532 -0.0963  0.0340
31862DOD     C339407  20.719   4.847   2.817 -0.0020  0.0160 -0.5848
31863DOD     C139408  18.198  25.895  22.253 -0.1848 -0.0378 -0.1131
31863DOD     C239409  18.030  25.629  21.895  0.3366 -0.0721  0.0017
31863DOD     C339410  17.717  25.430  21.603  0.2142  0.1218 -0.0983
31864DOD     C139411  12.774   6.039  13.693 -0.3362 -0.0732  0.0435
31864DOD     C239412  12.942   5.596  13.675  0.0189 -0.0361  0.0665
31864DOD     C339413  12.954   5.154  13.822  0.2314 -0.0586 -0.0820
31865DOD     C139414  16.287  25.051  23.748  0.0622 -0.0086 -0.1336
31865DOD     C239415  16.048  25.428  23.951 -0.3319  0.0541  0.2264
31865DOD     C339416  16.139  25.712  24.331 -0.0116 -0.1764 -0.0199
31866DOD     C139417  10.645  14.324  27.023 -0.2157 -0.2360 -0.4871
31866DOD     C239418  11.019  14.556  26.964 -0.2154 -0.0812 -0.0904
31866DOD     C339419  11.460  14.664  26.831  0.1580  0.0498 -0.1378
31867DOD     C139420  27.285  21.142   3.642  0.4103 -0.4092 -0.0794
31867DOD     C239421  27.173  21.115   3.177 -0.0659  0.1637  0.1709
31867DOD     C339422  27.390  20.863   2.855  0.0755 -0.1160 -0.2062
31868DOD     C139423   8.608  15.011   6.713 -0.3350 -0.1894  0.0990
31868DOD     C239424   8.387  15.360   6.478 -0.1362  0.1261 -0.1498
31868DOD     C339425   8.407  15.819   6.420 -0.0226  0.0162 -0.0068
31869DOD     C139426   2.381  16.053  17.029  0.2011 -0.2583  0.0519
31869DOD     C239427   2.733  15.855  17.224  0.0639 -0.1361 -0.0094
31869DOD     C339428   3.003  15.439  17.163 -0.1337 -0.1260  0.1115
31870DOD     C139429   9.392  25.221   7.886 -0.0762 -0.1706 -0.0153
31870DOD     C239430   9.593  25.349   8.241  0.0097 -0.0734 -0.1676
31870DOD     C339431   9.925  25.679   8.369 -0.1569 -0.1961 -0.3405
31871DOD     C139432  10.651  23.343  15.065 -0.2997 -0.3350  0.0338
31871DOD     C239433  11.145  23.264  15.085  0.1275  0.0061  0.1376
31871DOD     C339434  11.587  23.252  14.987  0.0689 -0.2543  0.0222
31872DOD     C139435   9.149  24.787  18.820 -0.0494 -0.4659 -0.1344
31872DOD     C239436   8.764  24.770  19.136 -0.2941  0.2594 -0.1826
31872DOD     C339437   8.340  24.644  19.101 -0.1546  0.1296  0.1259
31873DOD     C139438  13.108   0.703  18.987 -0.1030 -0.0982  0.0975
31873DOD     C239439  12.984   0.830  18.514 -0.3241  0.4979 -0.1383
31873DOD     C339440  13.227   1.164  18.230  0.0891  0.0552  0.1435
31874DOD     C139441  28.088  25.618  20.851  0.0448 -0.0762  0.1827
31874DOD     C239442  28.343  25.714  20.479 -0.2255  0.0765  0.0365
31874DOD     C339443  28.472  25.943  20.128  0.1686 -0.1071  0.1852
31875DOD     C139444   6.036   7.949  17.421  0.2880  0.1476  0.1857
31875DOD     C239445   5.729   8.284  17.298  0.1020  0.2760 -0.2838
31875DOD     C339446   5.427   8.486  17.588 -0.0225  0.1275  0.0459
31876DOD     C139447  21.196  27.745  13.235 -0.0175 -0.0626 -0.0829
31876DOD     C239448  21.077  28.210  13.185 -0.1342  0.2234 -0.3225
31876DOD     C339449  21.068  28.737  13.063  0.1150  0.4839  0.1116
31877DOD     C139450  28.526  12.128  14.571 -0.1237 -0.0223  0.2257
31877DOD     C239451  28.141  11.911  14.748  0.1439 -0.1899 -0.3661
31877DOD     C339452  27.778  11.647  14.876  0.0231  0.0663  0.1112
31878DOD     C139453  28.051   2.629   9.724 -0.2886 -0.1548 -0.1398
31878DOD     C239454  28.264   2.253   9.885 -0.1826 -0.1563  0.1579
31878DOD     C339455  28.265   2.053  10.370 -0.3496 -0.1471 -0.1487
31879DOD     C139456  16.424  13.059  20.227  0.1064 -0.2056  0.0708
31879DOD     C239457  16.697  13.152  20.562  0.0008 -0.0888  0.0022
31879DOD     C339458  17.154  13.093  20.592  0.0384  0.3362 -0.1665
31880DOD     C139459   7.987  24.196  27.837 -0.1544  0.2567 -0.1268
31880DOD     C239460   7.675  24.374  27.521  0.2044 -0.0018 -0.1635
31880DOD     C339461   7.455  24.818  27.470 -0.2112 -0.0755  0.0445
31881DOD     C139462  30.257  28.582   5.280  0.0875  0.1419 -0.1193
31881DOD     C239463  30.127  28.430   5.661 -0.1066  0.1859  0.5433
31881DOD     C339464  30.205  28.037   5.888  0.2678  0.2163 -0.2196
31882DOD     C139465   9.647   9.126  29.656  0.1653 -0.2385  0.0766
31882DOD     C239466   9.836   9.601  29.604  0.0991 -0.0776 -0.0662
31882DOD     C339467   9.903  10.082  29.645  0.0507 -0.0380  0.0302
31883DOD     C139468  16.151   8.888   1.372  0.2136  0.2121 -0.2135
31883DOD     C239469  15.821   8.674   1.593  0.0372  0.2465  0.2495
31883DOD     C339470  15.698   8.603   2.033  0.0565 -0.1524 -0.1748
31884DOD     C139471  25.387  22.814  26.388  0.3231 -0.0557 -0.1449
31884DOD     C239472  25.617  22.362  26.406 -0.1137  0.0750  0.0013
31884DOD     C339473  26.053  22.188  26.515  0.1403 -0.0892 -0.0711
31885DOD     C139474   9.207   5.904  30.030  0.3991  0.0776  0.0357
31885DOD     C239475   8.981   5.545  30.232  0.0707  0.2241  0.1853
31885DOD     C339476   8.984   5.257   0.234 -0.0525  0.1494 -0.2332
31886DOD     C139477  14.939   2.191  26.174 -0.1791  0.1378  0.0064
31886DOD     C239478  14.845   2.499  25.867  0.0016 -0.2299  0.1845
31886DOD     C339479  14.772   2.884  25.692  0.2532  0.0721  0.1731
31887DOD     C139480  28.886   2.700  13.472 -0.1099  0.1089 -0.3061
31887DOD     C239481  28.797   3.182  13.450  0.3150  0.0522 -0.1724
31887DOD     C339482  28.897   3.618  13.291  0.1824 -0.4197  0.2392
31888DOD     C139483   1.897  16.078   6.010 -0.2051 -0.1866  0.0151
31888DOD     C239484   2.089  16.264   6.404 -0.1633  0.1084 -0.0629
31888DOD     C339485   1.848  16.597   6.681 -0.1269  0.0107 -0.1393
31889DOD     C139486   7.508  27.786  29.771  0.0774  0.0573 -0.0757
31889DOD     C239487   7.558  28.034  30.194  0.1055 -0.4292 -0.0149
31889DOD     C339488   7.553  28.446   0.092 -0.1680 -0.3040 -0.0094
31890DOD     C139489  30.172  28.372  28.269 -0.1125 -0.0809  0.0864
31890DOD     C239490  30.273  28.723  28.556  0.1186  0.1103 -0.0989
31890DOD     C339491   0.100  29.145  28.426 -0.3341  0.0170 -0.0226
31891DOD     C139492  22.336  18.900  25.034  0.2480  0.2225 -0.2983
31891DOD     C239493  21.981  19.152  24.888  0.0832 -0.0601  0.1352
31891DOD     C339494  21.978  19.244  24.397 -0.0516 -0.2835 -0.1771
31892DOD     C139495  21.149  15.971  20.886 -0.3005  0.2794  0.2754
31892DOD     C239496  21.028  15.643  21.173 -0.0457 -0.3676 -0.1335
31892DOD     C339497  20.754  15.303  21.405 -0.2270  0.2939 -0.0231
31893DOD     C139498  25.383   5.295  14.782  0.0771  0.0383  0.0065
31893DOD     C239499  24.895   5.133  14.699 -0.0415 -0.0134  0.0396
31893DOD     C339500  24.453   5.149  14.931  0.1085  0.0298 -0.0126
31894DOD     C139501  15.589   5.277  28.013  0.1073  0.2816  0.0930
31894DOD     C239502  15.743   5.568  28.367  0.3430 -0.0871  0.0443
31894DOD     C339503  15.572   6.018  28.286 -0.1002 -0.0663 -0.0400
31895DOD     C139504   8.755   7.205  26.283 -0.1687 -0.1756 -0.3421
31895DOD     C239505   8.481   6.999  26.601 -0.1466 -0.0496  0.1404
31895DOD     C339506   8.262   7.208  26.951  0.0227  0.3742 -0.2550
31896DOD     C139507  12.699   2.679  23.931 -0.0762  0.1072  0.0638
31896DOD     C239508  12.620   2.203  23.787 -0.0096  0.3072 -0.3042
31896DOD     C339509  12.567   1.752  23.631 -0.0147 -0.1797  0.0166
31897DOD     C139510  26.107   2.414   1.528  0.1514 -0.1716  0.0914
31897DOD     C239511  25.905   1.974   1.474 -0.3172  0.4166 -0.3769
31897DOD     C339512  25.501   1.739   1.458 -0.0240  0.2099 -0.2414
31898DOD     C139513  20.794  26.989  29.554 -0.1177  0.3372 -0.0661
31898DOD     C239514  20.733  26.857  29.999  0.1206 -0.4225  0.2735
31898DOD     C339515  20.901  26.893   0.149 -0.1530  0.3660 -0.0053
31899DOD     C139516  20.644  12.817  29.181  0.0315  0.0039 -0.1110
31899DOD     C239517  20.375  12.687  28.940  0.4311 -0.1213  0.0590
31899DOD     C339518  20.237  12.812  28.552  0.0832 -0.4215 -0.1240
31900DOD     C139519  30.078  28.194  16.577  0.0426  0.0823  0.2704
31900DOD     C239520  -0.014  28.441  16.257 -0.2886 -0.3047  0.2037
31900DOD     C339521   0.347  28.682  16.068  0.0997  0.0167 -0.0573
31901DOD     C139522  17.865  26.238  25.500 -0.1984 -0.0200  0.0342
31901DOD     C239523  17.768  25.949  25.197  0.0798  0.1093  0.0533
31901DOD     C339524  17.523  25.931  24.778 -0.2186 -0.0870  0.1556
31902DOD     C139525  13.513  23.354   5.437  0.2163  0.1322  0.1877
31902DOD     C239526  13.775  23.221   5.826 -0.2625 -0.0184  0.1669
31902DOD     C339527  14.195  23.147   5.932  0.3109  0.1261 -0.1260
31903DOD     C139528  29.875  10.852  19.287  0.2113  0.1836  0.0810
31903DOD     C239529  29.716  10.923  19.716  0.1518  0.0338  0.3238
31903DOD     C339530  29.716  10.759  20.157 -0.1994  0.1745 -0.0552
31904DOD     C139531  25.395   3.657   0.474 -0.1180  0.2088  0.0498
31904DOD     C239532  25.188   3.467   0.817  0.1330 -0.1446  0.1603
31904DOD     C339533  25.343   3.078   1.057  0.0779  0.1496 -0.2645
31905DOD     C139534  23.706   6.296  28.524  0.0041  0.0428 -0.0192
31905DOD     C239535  23.331   6.408  28.397  0.0142  0.1621 -0.0569
31905DOD     C339536  23.160   6.537  27.994  0.0160  0.1021  0.1173
31906DOD     C139537  19.789  28.373   7.616 -0.0608  0.1131 -0.0471
31906DOD     C239538  19.623  27.962   7.604 -0.0812  0.1612  0.0943
31906DOD     C339539  19.729  27.514   7.597 -0.1580  0.0848  0.0107
31907DOD     C139540  26.544  10.057  18.275  0.0308 -0.1648  0.3194
31907DOD     C239541  26.434   9.584  18.153  0.1827 -0.2144  0.0556
31907DOD     C339542  26.426   9.138  18.150  0.2239  0.1074  0.1839
31908DOD     C139543   2.028   9.498  26.949 -0.0892  0.0255  0.2134
31908DOD     C239544   2.266   9.729  27.258  0.0839 -0.2781  0.1521
31908DOD     C339545   2.626   9.966  27.318 -0.0722 -0.1565  0.0938
31909DOD     C139546  11.432   7.676  24.767 -0.0348 -0.0079 -0.1235
31909DOD     C239547  11.569   8.047  24.513 -0.0913 -0.2049  0.1202
31909DOD     C339548  11.634   8.420  24.304 -0.1182  0.0611  0.0899
31910DOD     C139549  19.968  14.839  21.362  0.0249  0.1990 -0.0952
31910DOD     C239550  19.655  14.469  21.313  0.0968 -0.0051  0.0352
31910DOD     C339551  19.391  14.105  21.209 -0.1512  0.0472 -0.0436
31911DOD     C139552  23.380   2.949  16.456 -0.1055 -0.1441 -0.0441
31911DOD     C239553  23.815   2.774  16.317  0.0364 -0.5123 -0.2453
31911DOD     C339554  24.164   2.423  16.357  0.3621 -0.1202 -0.0319
31912DOD     C139555  26.005  22.230  22.868 -0.2244  0.2641  0.1569
31912DOD     C239556  26.254  21.973  23.189 -0.1474 -0.0688  0.0635
31912DOD     C339557  26.100  21.631  23.497  0.3210  0.1149  0.4694
31913DOD     C139558   7.103  28.048  29.010  0.1093 -0.0200 -0.1270
31913DOD     C239559   7.314  28.425  29.038  0.1584 -0.0934  0.0373
31913DOD     C339560   7.431  28.872  28.926 -0.1453 -0.0892 -0.1138
31914DOD     C139561  22.058  14.295   1.637 -0.2626 -0.2444 -0.0137
31914DOD     C239562  21.988  14.017   1.325  0.0242 -0.1314  0.1888
31914DOD     C339563  21.666  14.014   0.964 -0.3213 -0.2886  0.0019
31915DOD     C139564  26.205  18.361  30.118  0.0551  0.1960  0.1095
31915DOD     C239565  26.220  18.818  30.185 -0.1897 -0.1526  0.3237
31915DOD     C339566  26.603  18.998  30.100  0.2758 -0.1760 -0.0017
31916DOD     C139567   5.239  15.076  20.045 -0.1186 -0.0993 -0.0212
31916DOD     C239568   5.446  15.314  19.693  0.0508  0.2120 -0.2440
31916DOD     C339569   5.622  15.718  19.452 -0.0426  0.2274 -0.3214
31917DOD     C139570  16.326  21.565  20.953 -0.1376 -0.3040  0.0699
31917DOD     C239571  16.052  21.808  20.658  0.1839 -0.0863 -0.0934
31917DOD     C339572  15.614  21.792  20.523  0.0721 -0.0829  0.1480
31918DOD     C139573  17.390  17.535  21.447  0.0214  0.1026 -0.2432
31918DOD     C239574  16.967  17.567  21.668 -0.2529  0.4880  0.7256
31918DOD     C339575  16.582  17.684  21.906 -0.2120  0.3087  0.1095
31919DOD     C139576  16.802  15.565   8.978  0.1647 -0.2880  0.0524
31919DOD     C239577  16.887  15.749   9.372 -0.3910  0.1892  0.0292
31919DOD     C339578  17.021  16.094   9.584  0.0052  0.3686 -0.2825
31920DOD     C139579  19.286  14.127   4.288 -0.1181 -0.0869  0.1070
31920DOD     C239580  19.453  14.346   3.890  0.1496  0.0100 -0.0910
31920DOD     C339581  19.570  14.786   3.632  0.0119 -0.0664  0.0964
31921DOD     C139582   7.752  10.526   5.882 -0.0078  0.1665  0.0197
31921DOD     C239583   7.608  10.554   6.268 -0.0225  0.3606  0.2837
31921DOD     C339584   7.390  10.771   6.645 -0.2201 -0.2179 -0.4124
31922DOD     C139585  17.722  27.257   4.065 -0.1056  0.0586 -0.2251
31922DOD     C239586  17.792  26.960   4.404  0.4249 -0.0601 -0.3069
31922DOD     C339587  17.720  26.479   4.331 -0.2872 -0.0356  0.1532
31923DOD     C139588  25.227  16.250   7.842  0.1473 -0.0688 -0.2697
31923DOD     C239589  25.388  15.853   7.941  0.0624  0.1556  0.1737
31923DOD     C339590  25.798  15.599   7.941 -0.0434  0.0048 -0.0564
31924DOD     C139591  12.021  14.280  29.830  0.1982  0.1013  0.0832
31924DOD     C239592  12.296  14.533  29.483 -0.0159 -0.0179 -0.0390
31924DOD     C339593  12.494  14.756  29.101 -0.0516 -0.2401 -0.1706
31925DOD     C139594   6.995   4.518  21.929 -0.1728 -0.2291 -0.0788
31925DOD     C239595   7.071   4.979  21.993 -0.0962 -0.2465  0.0023
31925DOD     C339596   7.100   5.399  21.764  0.1901 -0.0556 -0.0903
31926DOD     C139597  28.577  20.856  14.905 -0.0580  0.2662 -0.1228
31926DOD     C239598  28.859  20.884  14.526  0.2763 -0.2562 -0.3026
31926DOD     C339599  28.838  20.987  14.101  0.1182 -0.1024 -0.2117
31927DOD     C139600  15.928   5.835  26.682  0.0036  0.1950 -0.1137
31927DOD     C239601  15.760   5.429  26.909 -0.0509 -0.0138  0.2271
31927DOD     C339602  15.353   5.194  26.807 -0.3796  0.1962 -0.0816
31928DOD     C139603   1.301  12.200  18.698  0.1706  0.0725 -0.0763
31928DOD     C239604   1.401  11.724  18.745 -0.1789  0.2465 -0.0508
31928DOD     C339605   1.487  11.269  19.000  0.2485  0.1241 -0.1302
31929DOD     C139606  28.045  29.613   0.607 -0.1806 -0.2926 -0.0173
31929DOD     C239607  27.641  29.575   0.305  0.0232  0.0644 -0.1127
31929DOD     C339608  27.243  29.379   0.268 -0.1565 -0.1060  0.0076
31930DOD     C139609   2.658  17.293  12.719  0.0515  0.0697  0.2730
31930DOD     C239610   2.246  17.280  12.869  0.1714  0.1867  0.1360
31930DOD     C339611   2.042  17.437  13.263 -0.1584  0.0030  0.2610
31931DOD     C139612  13.198  18.055  14.352 -0.0381  0.0689  0.0803
31931DOD     C239613  12.836  18.071  14.670 -0.1915 -0.0154  0.0119
31931DOD     C339614  12.888  17.970  15.128  0.0768 -0.0227 -0.0754
31932DOD     C139615   6.801  27.063  24.238 -0.0690 -0.2116  0.0093
31932DOD     C239616   6.319  27.189  24.347  0.0068  0.0372  0.1502
31932DOD     C339617   5.913  27.505  24.455 -0.0954 -0.1039  0.2211
31933DOD     C139618   9.977   1.260  19.557 -0.2397  0.5661  0.0605
31933DOD     C239619  10.010   1.610  19.223  0.0656 -0.1310  0.0856
31933DOD     C339620   9.818   2.032  19.107 -0.1598 -0.1687  0.0907
31934DOD     C139621  24.748  18.544  15.086 -0.3890  0.1482 -0.1297
31934DOD     C239622  24.535  18.185  15.106  0.2165  0.1778 -0.0381
31934DOD     C339623  24.317  17.834  15.262 -0.1609  0.0871  0.1571
31935DOD     C139624  29.263   6.102   1.775 -0.2199  0.0028  0.1619
31935DOD     C239625  28.901   6.145   1.435  0.1033  0.2899  0.2882
31935DOD     C339626  28.547   5.960   1.518  0.1719 -0.1980  0.1586
31936DOD     C139627  14.769  17.527   2.467 -0.0027 -0.0613  0.3109
31936DOD     C239628  14.972  17.226   2.117  0.2354  0.0290 -0.0362
31936DOD     C339629  14.855  16.890   1.795 -0.0510  0.0105  0.0806
31937DOD     C139630  20.602  13.080  19.710  0.2872 -0.0418 -0.1427
31937DOD     C239631  21.064  13.210  19.668 -0.1429 -0.3524  0.2627
31937DOD     C339632  21.386  13.015  19.350 -0.3660 -0.1115  0.0388
31938DOD     C139633  11.868  19.671  17.309 -0.0023 -0.1947 -0.1078
31938DOD     C239634  11.428  19.672  17.418 -0.0598 -0.2372  0.0277
31938DOD     C339635  11.079  19.584  17.081  0.1241 -0.0029  0.0727
31939DOD     C139636  15.596   8.215  24.784 -0.0230  0.2334  0.0254
31939DOD     C239637  15.592   8.490  25.157 -0.3345  0.2400 -0.3131
31939DOD     C339638  15.470   8.878  25.317 -0.1829  0.1038 -0.1676
31940DOD     C139639  27.166  25.462  19.101  0.0192 -0.1256  0.0839
31940DOD     C239640  27.624  25.634  19.178 -0.0177  0.0227  0.0657
31940DOD     C339641  28.057  25.820  19.303 -0.1259  0.2257 -0.0009
31941DOD     C139642  26.329  24.398  26.547 -0.0204  0.2432 -0.0066
31941DOD     C239643  25.953  24.649  26.546  0.2638  0.0420  0.2686
31941DOD     C339644  25.601  24.696  26.275  0.0552 -0.1355 -0.0245
31942DOD     C139645  20.833  27.725  20.514 -0.1268  0.2676 -0.2808
31942DOD     C239646  20.602  28.082  20.331  0.3683  0.2740  0.2478
31942DOD     C339647  20.222  28.273  20.081 -0.2432  0.1877 -0.0587
31943DOD     C139648  18.826   5.343  27.032 -0.1511  0.0458 -0.1307
31943DOD     C239649  19.147   5.276  27.264  0.0567 -0.1002  0.2253
31943DOD     C339650  19.676   5.315  27.314 -0.3688 -0.0549  0.0603
31944DOD     C139651   2.343  22.106  26.103  0.4904  0.2061  0.0155
31944DOD     C239652   1.961  22.393  26.009 -0.2243  0.1802 -0.0872
31944DOD     C339653   1.603  22.674  25.867 -0.2089  0.2536  0.1286
31945DOD     C139654  17.130   5.172  30.127 -0.0423 -0.1665 -0.2058
31945DOD     C239655  17.035   5.575  30.330  0.2723  0.1337  0.0187
31945DOD     C339656  16.658   5.779  30.212 -0.0528  0.0652  0.0072
31946DOD     C139657   8.229  22.927   6.312 -0.2729 -0.2089 -0.0676
31946DOD     C239658   8.394  23.026   6.733 -0.0472 -0.0635 -0.1806
31946DOD     C339659   8.584  23.189   7.105 -0.0926 -0.3409  0.0165
31947DOD     C139660   6.854  16.305  23.729 -0.2320 -0.1088  0.3469
31947DOD     C239661   6.873  16.370  23.226 -0.2389  0.1522  0.4373
31947DOD     C339662   6.541  16.354  22.818  0.0240 -0.0350  0.0826
31948DOD     C139663  19.760  16.418   6.485 -0.2054 -0.1449 -0.1815
31948DOD     C239664  19.364  16.619   6.351 -0.1497  0.1001 -0.0015
31948DOD     C339665  19.129  16.803   6.010 -0.2858  0.1193  0.0664
31949DOD     C139666   0.818  25.000  18.004 -0.0031  0.1891  0.0346
31949DOD     C239667   0.632  24.869  17.573  0.1265 -0.0617 -0.1405
31949DOD     C339668   0.813  25.210  17.247  0.1624 -0.3337 -0.1409
31950DOD     C139669  26.096   4.792  29.420 -0.5300  0.0296  0.1041
31950DOD     C239670  26.386   5.039  29.687  0.2274  0.4713  0.0205
31950DOD     C339671  26.402   5.218  30.140 -0.1663  0.4042  0.1828
31951DOD     C139672   0.170   1.209  26.503  0.2076  0.0264 -0.2915
31951DOD     C239673   0.257   0.862  26.838  0.2165 -0.1843  0.1415
31951DOD     C339674   0.440   0.444  26.761 -0.3241 -0.0751 -0.1058
31952DOD     C139675   6.676   1.745   7.110  0.1180  0.2374  0.2986
31952DOD     C239676   6.238   1.707   7.325  0.2732  0.0337  0.1403
31952DOD     C339677   5.899   1.952   7.507 -0.0620 -0.0477  0.1345
31953DOD     C139678   0.931   3.421  12.658 -0.0330  0.0398 -0.5548
31953DOD     C239679   0.889   2.969  12.832 -0.1603  0.1878 -0.0215
31953DOD     C339680   0.563   2.650  13.000 -0.3097  0.2680 -0.1444
31954DOD     C139681  18.967   6.854  11.513  0.0196 -0.1051 -0.1191
31954DOD     C239682  18.965   6.371  11.485 -0.2132  0.0369  0.1746
31954DOD     C339683  18.627   6.024  11.420  0.0275  0.0917 -0.0159
31955DOD     C139684  14.517   0.974  28.307 -0.0884  0.0553 -0.0057
31955DOD     C239685  14.465   1.038  28.800  0.3312 -0.3200 -0.1746
31955DOD     C339686  14.560   1.424  29.011  0.0055  0.1749 -0.2015
31956DOD     C139687   6.135  18.825  28.476 -0.3396 -0.0839  0.0931
31956DOD     C239688   6.182  18.364  28.606  0.2887  0.0919  0.1513
31956DOD     C339689   6.254  18.045  28.924 -0.3929 -0.1147 -0.1595
31957DOD     C139690  11.847   5.790  21.512 -0.1092 -0.2096 -0.1260
31957DOD     C239691  11.773   6.026  21.119 -0.0621  0.2091 -0.0850
31957DOD     C339692  11.520   6.091  20.707  0.0536  0.0221  0.2918
31958DOD     C139693  30.272  29.140  21.139  0.1337  0.3416 -0.1615
31958DOD     C239694  30.166  29.039  21.597  0.4122  0.2626 -0.1891
31958DOD     C339695   0.050  29.008  21.994  0.0135 -0.0075  0.4241
31959DOD     C139696   1.399   6.113  28.373 -0.0515  0.0872 -0.1074
31959DOD     C239697   1.671   5.835  28.606 -0.0903 -0.1912 -0.0512
31959DOD     C339698   1.617   5.471  28.822 -0.1049 -0.0241  0.1105
31960DOD     C139699  13.475  10.343   8.297 -0.2117  0.0529  0.1206
31960DOD     C239700  13.620  10.713   8.100  0.2168  0.3205  0.1040
31960DOD     C339701  13.500  11.088   7.926 -0.0057 -0.1549 -0.4749
31961DOD     C139702   3.991  15.005   6.622  0.0095 -0.0010 -0.1859
31961DOD     C239703   4.042  15.461   6.616  0.1802  0.1980  0.1333
31961DOD     C339704   4.069  15.697   6.194  0.3190  0.0454 -0.1062
31962DOD     C139705  28.185  25.169  20.350 -0.0146 -0.1640  0.0524
31962DOD     C239706  28.076  25.394  19.886  0.2036 -0.0641  0.0296
31962DOD     C339707  27.794  25.510  19.595 -0.0754 -0.3253  0.1286
31963DOD     C139708  21.024  16.657  23.176 -0.0305  0.0444  0.0602
31963DOD     C239709  21.258  16.604  23.551 -0.2266 -0.0545  0.1245
31963DOD     C339710  21.578  16.555  23.917 -0.1194 -0.0695  0.1102
31964DOD     C139711  20.657  13.582  19.832  0.4025 -0.1259  0.0157
31964DOD     C239712  20.213  13.501  19.650 -0.1806 -0.2244  0.2649
31964DOD     C339713  19.838  13.335  19.429 -0.2646  0.0617  0.3101
31965DOD     C139714  28.274  12.783  10.529 -0.0066  0.1543  0.4250
31965DOD     C239715  28.441  13.165  10.351  0.1784  0.6266 -0.0901
31965DOD     C339716  28.283  13.498  10.160 -0.0117 -0.3893 -0.0346
31966DOD     C139717   3.783  18.021  17.485 -0.1198 -0.1203  0.1355
31966DOD     C239718   3.655  18.422  17.596  0.2587 -0.1051 -0.2569
31966DOD     C339719   3.590  18.482  18.073  0.0727 -0.3883 -0.0122
31967DOD     C139720  24.815  15.903   9.357  0.1745 -0.2059 -0.1166
31967DOD     C239721  25.068  16.096   9.016  0.1190  0.1920 -0.0436
31967DOD     C339722  25.425  16.025   8.761  0.0151  0.0144 -0.3998
31968DOD     C139723   1.627   2.993   0.431  0.0949 -0.0553  0.3605
31968DOD     C239724   2.095   2.955   0.514 -0.3232  0.0049  0.2078
31968DOD     C339725   2.490   2.611   0.482 -0.2317  0.4007 -0.0414
31969DOD     C139726  12.364   4.865  19.354 -0.1907  0.0606  0.0238
31969DOD     C239727  12.038   4.831  19.018  0.0392 -0.1140  0.0899
31969DOD     C339728  11.637   4.596  19.076  0.1900  0.3541 -0.0478
31970DOD     C139729  24.760  13.811  13.741  0.0023  0.2021 -0.1686
31970DOD     C239730  25.095  13.721  13.389 -0.0317 -0.0625 -0.0076
31970DOD     C339731  25.538  13.720  13.199  0.2296  0.1353 -0.2929
31971DOD     C139732   5.573  23.106  20.605  0.4302  0.0192  0.2645
31971DOD     C239733   5.762  22.889  20.234 -0.1152  0.2048  0.0453
31971DOD     C339734   5.857  22.762  19.811  0.1740 -0.0789  0.3523
31972DOD     C139735  28.633  27.487  23.002 -0.0734  0.3199 -0.1576
31972DOD     C239736  28.320  27.762  22.820 -0.1443  0.1845 -0.0037
31972DOD     C339737  27.898  27.955  22.837  0.1405 -0.0708 -0.4009
31973DOD     C139738  22.275   9.193  27.774 -0.0056 -0.2452 -0.1966
31973DOD     C239739  22.163   9.324  27.295  0.1531 -0.1304 -0.2353
31973DOD     C339740  22.171   9.757  27.068 -0.0276 -0.0930  0.0056
31974DOD     C139741  29.343   7.303  18.190  0.0044 -0.0204  0.1254
31974DOD     C239742  29.232   6.908  18.356  0.0637 -0.0072  0.0076
31974DOD     C339743  28.969   6.504  18.305  0.2299 -0.0396  0.0124
31975DOD     C139744  30.114  15.433  23.953 -0.0111 -0.1261 -0.2603
31975DOD     C239745  30.260  15.536  24.388  0.2110  0.1807  0.4225
31975DOD     C339746   0.379  15.671  24.497 -0.2207  0.0379  0.1639
31976DOD     C139747  24.869  28.530  20.011 -0.2277 -0.1305 -0.0943
31976DOD     C239748  25.335  28.465  19.928  0.0628 -0.0043  0.1901
31976DOD     C339749  25.796  28.570  19.866  0.0768  0.1009 -0.0733
31977DOD     C139750  24.912   0.614   0.714 -0.3629 -0.1298  0.0762
31977DOD     C239751  25.167   0.277   0.798 -0.4506  0.1489 -0.0241
31977DOD     C339752  25.389  30.251   0.594 -0.0377  0.2939  0.0936
31978DOD     C139753   0.856  22.265  23.702  0.2061  0.1309 -0.0373
31978DOD     C239754   0.757  22.377  23.213  0.2723  0.1055 -0.0121
31978DOD     C339755   0.763  22.657  22.733 -0.1200 -0.0434  0.2221
31979DOD     C139756  24.516  22.975  13.696  0.2291 -0.0110 -0.0475
31979DOD     C239757  24.631  22.537  13.866 -0.0700 -0.1509  0.3301
31979DOD     C339758  24.823  22.128  13.744 -0.2459  0.0160  0.0992
31980DOD     C139759   2.202   9.169  28.538  0.1349 -0.0225  0.2821
31980DOD     C239760   2.336   8.743  28.633 -0.1031 -0.0412 -0.1388
31980DOD     C339761   2.218   8.276  28.671  0.0884 -0.0112 -0.0485
31981DOD     C139762   9.581   0.419  30.088 -0.0885  0.0690  0.0351
31981DOD     C239763   9.649  30.297  29.954 -0.2306 -0.0528 -0.1114
31981DOD     C339764   9.616  29.854  29.887 -0.2492  0.1307  0.1523
31982DOD     C139765  11.220   4.563  25.900  0.1274  0.2962  0.3059
31982DOD     C239766  11.317   4.161  25.633  0.0391  0.3270  0.1396
31982DOD     C339767  11.438   3.719  25.651  0.1459  0.0990  0.0089
31983DOD     C139768  18.662   6.548  13.433  0.2480 -0.0779 -0.0652
31983DOD     C239769  18.325   6.299  13.683 -0.1112  0.0324 -0.0860
31983DOD     C339770  18.162   6.208  14.157  0.1348  0.1369 -0.1194
31984DOD     C139771  20.045  11.413  25.691  0.0268  0.0900 -0.0247
31984DOD     C239772  19.724  11.689  25.911 -0.0033  0.2124  0.2362
31984DOD     C339773  19.474  12.116  25.987 -0.2047  0.2603 -0.1584
31985DOD     C139774  24.483   0.675  13.220 -0.0926  0.1234 -0.0949
31985DOD     C239775  24.798   0.319  13.140  0.0384  0.0674 -0.3444
31985DOD     C339776  24.915   0.039  12.803  0.0924  0.0546 -0.0345
31986DOD     C139777  15.630  11.230   6.475 -0.0815  0.0350  0.6467
31986DOD     C239778  15.214  11.162   6.604 -0.0550 -0.2551  0.0476
31986DOD     C339779  14.836  11.451   6.711 -0.0963  0.2246 -0.1070
31987DOD     C139780  14.293  13.981   9.763  0.0754  0.1105  0.2610
31987DOD     C239781  14.407  13.769   9.360 -0.0096  0.0525 -0.0163
31987DOD     C339782  14.668  13.730   9.016 -0.0074 -0.2668 -0.2826
31988DOD     C139783  26.080  20.497   3.663 -0.1013  0.2199 -0.2481
31988DOD     C239784  25.670  20.334   3.763  0.1810  0.0927 -0.0855
31988DOD     C339785  25.288  20.157   3.849  0.0571  0.0669 -0.2605
31989DOD     C139786  13.434  27.365  24.365  0.0494  0.0454  0.3098
31989DOD     C239787  13.648  27.215  23.956  0.1368  0.0123  0.0566
31989DOD     C339788  13.713  26.859  23.681  0.0631 -0.0688 -0.3238
31990DOD     C139789   5.030  25.380  12.264 -0.2065 -0.3843  0.1004
31990DOD     C239790   5.185  24.903  12.266 -0.1504 -0.3322  0.2369
31990DOD     C339791   5.415  24.555  12.462  0.0752  0.0267 -0.2576
31991DOD     C139792  28.936  20.460  11.695 -0.0491  0.1695 -0.0353
31991DOD     C239793  29.351  20.406  11.585 -0.2107 -0.0652 -0.1553
31991DOD     C339794  29.774  20.454  11.462 -0.3195 -0.0913 -0.4779
31992DOD     C139795  19.065  10.078  23.369 -0.1041 -0.3930  0.1213
31992DOD     C239796  19.180   9.680  23.142  0.1122  0.1227 -0.0816
31992DOD     C339797  19.166   9.225  23.008  0.1624 -0.0543  0.0312
31993DOD     C139798   7.647   5.008  23.939  0.1222  0.0409 -0.0800
31993DOD     C239799   7.175   5.071  24.042 -0.1292  0.2140 -0.1388
31993DOD     C339800   6.723   5.137  24.161  0.2045 -0.0568  0.1473
31994DOD     C139801   5.366  22.541  30.204  0.1924 -0.2069  0.0599
31994DOD     C239802   5.269  22.216  29.866 -0.0349 -0.1798 -0.1548
31994DOD     C339803   5.310  21.830  29.632  0.2735 -0.1245  0.1715
31995DOD     C139804  21.520  22.487   2.967  0.1262  0.1088  0.0690
31995DOD     C239805  21.935  22.403   3.120  0.1343 -0.0396 -0.1871
31995DOD     C339806  22.031  22.389   3.542 -0.0856  0.0944 -0.1188
31996DOD     C139807   4.372   2.796   4.388  0.2250  0.0043 -0.0577
31996DOD     C239808   4.162   3.103   4.595 -0.3569 -0.0597  0.0148
31996DOD     C339809   4.235   3.513   4.744  0.1503 -0.1750 -0.0234
31997DOD     C139810   8.275  10.188  18.351 -0.1569  0.0877  0.0580
31997DOD     C239811   8.402   9.732  18.371  0.0658 -0.0161  0.0814
31997DOD     C339812   8.109   9.383  18.270  0.0979 -0.2436  0.0755
31998DOD     C139813  21.834   4.943   6.400  0.2355 -0.0574  0.1572
31998DOD     C239814  22.032   4.726   6.783  0.1087 -0.3604  0.0783
31998DOD     C339815  22.130   4.763   7.267 -0.2361 -0.0337  0.0673
31999DOD     C139816   7.441   0.816  19.473 -0.4379 -0.1493 -0.1241
31999DOD     C239817   7.120   0.502  19.286  0.1934 -0.1366 -0.1716
31999DOD     C339818   7.009   0.416  18.836  0.1946 -0.1839 -0.2516
32000DOD     C139819  19.702  18.726   3.216  0.1600  0.1070  0.2996
32000DOD     C239820  19.967  18.399   3.488 -0.5292  0.0363  0.0190
32000DOD     C339821  19.942  17.959   3.517  0.3424  0.2246 -0.0395
32001DOD     C139822  10.324  24.918  22.714 -0.1593  0.2760  0.0956
32001DOD     C239823  10.311  24.485  22.865 -0.0777 -0.0658  0.1376
32001DOD     C339824  10.082  24.168  23.106 -0.1283  0.3171  0.0746
32002DOD     C139825   9.211   4.553  24.738  0.0066  0.1548 -0.2096
32002DOD     C239826   9.314   4.571  25.167  0.1768  0.0898  0.0207
32002DOD     C339827   9.193   4.933  25.514 -0.1660  0.1012 -0.1594
32003DOD     C139828  23.588  21.502   6.939 -0.0458  0.0238 -0.0725
32003DOD     C239829  23.202  21.462   6.718 -0.2225  0.1038  0.0130
32003DOD     C339830  22.892  21.404   6.346 -0.0534  0.1570  0.2353
32004DOD     C139831   2.643  10.997  22.378  0.5542 -0.3335 -0.0633
32004DOD     C239832   2.848  10.858  22.020 -0.2190  0.3538  0.1456
32004DOD     C339833   3.019  10.528  21.724 -0.0663  0.0571 -0.2090
32005DOD     C139834  22.716  26.153   0.347  0.0311  0.1548  0.0387
32005DOD     C239835  23.191  26.261   0.287 -0.0271  0.2539 -0.1921
32005DOD     C339836  23.635  26.390   0.209 -0.1473  0.0745  0.0279
32006DOD     C139837  20.060  19.196   8.487  0.1320  0.1645 -0.1206
32006DOD     C239838  19.684  19.469   8.414 -0.0454  0.3745  0.2005
32006DOD     C339839  19.311  19.442   8.131 -0.0787 -0.0086  0.2395
32007DOD     C139840   4.283   4.616  22.852 -0.0318 -0.0727 -0.0719
32007DOD     C239841   4.371   4.282  22.570  0.2500 -0.0269 -0.3240
32007DOD     C339842   4.516   3.913  22.450  0.2289  0.2183 -0.0112
32008DOD     C139843   4.037  23.526   2.566 -0.0079  0.2026 -0.0680
32008DOD     C239844   3.729  23.336   2.273 -0.3077 -0.2589  0.2007
32008DOD     C339845   3.510  23.237   1.878 -0.0490 -0.0513 -0.1535
32009DOD     C139846  29.297  24.062  26.746  0.0032  0.2589 -0.0204
32009DOD     C239847  29.318  23.870  27.185 -0.0244 -0.0009  0.4084
32009DOD     C339848  29.098  23.522  27.432  0.0415  0.1078  0.2599
32010DOD     C139849   1.910  20.581  12.535 -0.2896  0.0557  0.1980
32010DOD     C239850   1.880  20.324  12.157  0.0237  0.2469 -0.0168
32010DOD     C339851   1.800  20.430  11.692  0.0462  0.1740  0.2293
32011DOD     C139852   8.997  19.617  12.713 -0.2114  0.0922  0.2399
32011DOD     C239853   9.300  19.912  12.541  0.0374 -0.0629  0.1134
32011DOD     C339854   9.289  20.320  12.566  0.2917  0.1991 -0.0581
32012DOD     C139855  13.141  28.943  10.662  0.1971 -0.1730 -0.0624
32012DOD     C239856  13.245  28.664  10.334  0.0052  0.2469  0.0752
32012DOD     C339857  13.244  28.897   9.942  0.2273 -0.0610 -0.0635
32013DOD     C139858  20.335  25.371  27.927 -0.1596  0.1416  0.1819
32013DOD     C239859  20.127  25.775  27.909  0.1238  0.2325  0.2258
32013DOD     C339860  19.851  26.007  27.571 -0.0053 -0.0587 -0.1675
32014DOD     C139861  11.660  24.388   9.512  0.2151 -0.1950 -0.1379
32014DOD     C239862  11.678  24.807   9.756 -0.1371  0.2099  0.1061
32014DOD     C339863  11.562  25.298   9.844  0.1688  0.1052 -0.1098
32015DOD     C139864  28.437   0.942  18.605 -0.0416  0.0984  0.0505
32015DOD     C239865  28.544   1.044  18.134  0.0208  0.2061  0.0729
32015DOD     C339866  28.508   1.017  17.677 -0.2246 -0.0913 -0.0587
32016DOD     C139867  30.013  28.923   3.967 -0.0991  0.1873 -0.1647
32016DOD     C239868  29.749  29.350   3.955 -0.1258  0.0432  0.0751
32016DOD     C339869  29.381  29.436   3.570 -0.0637 -0.1705 -0.3621
32017DOD     C139870   7.929  27.149  16.023  0.0333  0.1103  0.2022
32017DOD     C239871   7.635  27.481  16.261 -0.1610  0.0247  0.2487
32017DOD     C339872   7.392  27.830  16.359 -0.1350  0.0055 -0.1610
32018DOD     C139873  30.049   5.865   1.242  0.1366  0.2839  0.0344
32018DOD     C239874  30.332   5.856   1.587  0.2420  0.1767 -0.0740
32018DOD     C339875   0.392   5.956   1.823  0.0382 -0.3718  0.0464
32019DOD     C139876   3.409  29.742  26.833 -0.0429 -0.1617  0.2952
32019DOD     C239877   3.093  29.532  26.949  0.0512 -0.1815 -0.0599
32019DOD     C339878   2.683  29.452  27.139 -0.0159  0.2439 -0.1216
32020DOD     C139879  26.535  11.758  20.104  0.1027  0.1041 -0.0893
32020DOD     C239880  26.349  12.109  19.801  0.1403  0.1793 -0.1375
32020DOD     C339881  26.078  12.439  19.669  0.0913 -0.0059 -0.2825
32021DOD     C139882  26.046  28.988  13.826 -0.1429  0.0445 -0.0092
32021DOD     C239883  26.407  29.081  14.119 -0.3484  0.1412 -0.1155
32021DOD     C339884  26.914  29.146  14.040 -0.1059 -0.0451  0.2001
32022DOD     C139885  16.591  19.877   8.350 -0.0206 -0.2181 -0.2276
32022DOD     C239886  16.173  19.621   8.442  0.0396 -0.0336 -0.2197
32022DOD     C339887  15.859  19.403   8.665  0.1172  0.0679 -0.1032
32023DOD     C139888  23.978   5.379   4.143  0.0568  0.1050  0.1356
32023DOD     C239889  23.729   5.766   4.025 -0.0676 -0.0813  0.0709
32023DOD     C339890  23.291   5.763   3.773 -0.3668 -0.0315 -0.1126
32024DOD     C139891  16.734  19.700  16.365 -0.1875 -0.2037  0.1082
32024DOD     C239892  17.131  19.421  16.279  0.1708  0.0890  0.1851
32024DOD     C339893  17.231  19.024  16.507 -0.1418 -0.2574  0.1933
32025DOD     C139894  13.781  24.300  19.598 -0.1888 -0.0363 -0.2057
32025DOD     C239895  13.474  24.024  19.747 -0.2545  0.4875  0.2767
32025DOD     C339896  13.248  23.579  19.705 -0.1591 -0.3293  0.0793
32026DOD     C139897  25.188  21.370  28.635  0.1537 -0.0224 -0.2477
32026DOD     C239898  25.028  21.004  28.914 -0.0009 -0.0450  0.0713
32026DOD     C339899  24.652  20.922  29.177 -0.0492  0.0373 -0.1091
32027DOD     C139900  29.448  16.490  13.690 -0.1414 -0.2291  0.0084
32027DOD     C239901  29.680  16.580  13.285  0.0844 -0.0434  0.1618
32027DOD     C339902  30.009  16.718  12.965 -0.0545 -0.1251  0.1122
32028DOD     C139903  25.989  12.295   6.333 -0.2258  0.0063  0.2592
32028DOD     C239904  26.175  11.991   6.007 -0.1194 -0.1929  0.2893
32028DOD     C339905  26.114  11.565   5.769  0.0163 -0.0290  0.1048
32029DOD     C139906   5.227   2.767  25.534  0.0726  0.1029 -0.0261
32029DOD     C239907   5.555   2.819  25.871 -0.0995  0.2834 -0.1651
32029DOD     C339908   5.861   2.805  26.220  0.1932  0.3479  0.2109
32030DOD     C139909   4.591  21.318   6.538  0.3947  0.0969 -0.2304
32030DOD     C239910   4.648  20.986   6.925  0.1632 -0.2346 -0.0835
32030DOD     C339911   4.463  20.791   7.288 -0.0784 -0.1419  0.2357
32031DOD     C139912  13.711  21.679  19.442 -0.1372  0.1503 -0.2049
32031DOD     C239913  13.881  21.278  19.494 -0.2244  0.2926  0.1350
32031DOD     C339914  14.218  21.035  19.730  0.0038  0.0403  0.1164
32032DOD     C139915  18.343  19.511   2.304 -0.0513 -0.0073 -0.3443
32032DOD     C239916  18.523  19.625   2.703 -0.0283 -0.1541  0.0194
32032DOD     C339917  18.769  19.372   2.991 -0.0621 -0.1973 -0.4551
32033DOD     C139918  20.176   8.967   9.152 -0.2898 -0.1570 -0.2060
32033DOD     C239919  19.758   8.763   9.102  0.3233 -0.2524 -0.1950
32033DOD     C339920  19.321   8.914   9.014  0.3709  0.2193 -0.1609
32034DOD     C139921  26.223  10.261  12.249  0.3122 -0.1531  0.2813
32034DOD     C239922  26.633  10.559  12.265 -0.0892  0.1498 -0.3012
32034DOD     C339923  26.989  10.520  12.556  0.0557  0.0383  0.0478
32035DOD     C139924   0.134   8.283  17.456  0.0500 -0.2542  0.1759
32035DOD     C239925  30.182   8.233  17.118 -0.0876 -0.2394  0.1725
32035DOD     C339926  29.775   8.434  16.939  0.0999  0.0704  0.3697
32036DOD     C139927   4.899  21.055   5.688 -0.2882 -0.4302  0.2364
32036DOD     C239928   4.450  21.170   5.660  0.0736  0.1101  0.1417
32036DOD     C339929   4.158  21.330   5.390  0.2008 -0.1524 -0.2825
32037DOD     C139930  26.475  22.291   5.200 -0.0351  0.0116  0.1243
32037DOD     C239931  26.370  21.822   5.137  0.2013 -0.1740 -0.0668
32037DOD     C339932  26.267  21.337   5.250  0.0162 -0.1410  0.0344
32038DOD     C139933   3.348  27.397   5.454  0.1904  0.1629 -0.0319
32038DOD     C239934   3.240  27.294   5.902  0.0230 -0.0367  0.0452
32038DOD     C339935   3.182  27.283   6.384  0.1107 -0.3944  0.3080
32039DOD     C139936  20.996  29.553   3.896 -0.0524 -0.0622  0.0027
32039DOD     C239937  20.572  29.557   3.738 -0.1344 -0.0627  0.2008
32039DOD     C339938  20.181  29.584   3.972 -0.1850  0.0281 -0.3495
32040DOD     C139939  18.551  23.986   3.627 -0.0852  0.1098 -0.2274
32040DOD     C239940  18.714  23.843   3.234 -0.2856 -0.0247  0.0818
32040DOD     C339941  18.926  23.522   3.047 -0.1061  0.2403  0.5138
32041DOD     C139942  21.840   6.252  13.183 -0.0491  0.0102  0.3771
32041DOD     C239943  21.737   5.942  13.504 -0.2640 -0.0121 -0.3103
32041DOD     C339944  21.624   5.576  13.842  0.2463  0.1530  0.1786
32042DOD     C139945  26.274   0.564  22.666 -0.3348  0.1189 -0.1909
32042DOD     C239946  26.595   0.305  22.777 -0.0846  0.0730 -0.1347
32042DOD     C339947  26.885  30.261  22.941 -0.1082  0.2871 -0.1569
32043DOD     C139948  22.408  21.307   8.070  0.2777  0.2190  0.0060
32043DOD     C239949  22.419  20.949   7.819  0.2911 -0.1688  0.0020
32043DOD     C339950  22.471  20.686   7.475 -0.0900 -0.2013  0.0060
32044DOD     C139951  24.671  22.014   4.786  0.0287  0.0477  0.3083
32044DOD     C239952  24.200  21.993   4.937 -0.2296 -0.1178 -0.0187
32044DOD     C339953  23.815  21.939   5.170  0.0581  0.1243  0.0158
32045DOD     C139954  13.001   8.053   1.512  0.1026  0.1323  0.2772
32045DOD     C239955  13.153   7.878   1.038  0.3012 -0.1069 -0.3160
32045DOD     C339956  13.546   7.787   0.878  0.2671 -0.1398 -0.0416
32046DOD     C139957  25.513   4.386  30.234  0.0593  0.0987  0.1852
32046DOD     C239958  25.559   4.658   0.296 -0.1287 -0.1131  0.0262
32046DOD     C339959  25.730   4.980   0.621 -0.2388 -0.2891  0.3944
32047DOD     C139960  28.333  11.132  14.983 -0.2952 -0.1195 -0.0394
32047DOD     C239961  28.699  10.857  15.104  0.2815  0.0429 -0.0792
32047DOD     C339962  28.793  10.423  14.932  0.2060 -0.1518  0.1510
32048DOD     C139963  26.644  15.612  13.141 -0.0381 -0.1242 -0.4588
32048DOD     C239964  26.253  15.711  12.938  0.0168  0.0650  0.1675
32048DOD     C339965  25.877  15.539  12.796  0.0136  0.1255 -0.1484
32049DOD     C139966  29.577  15.582   3.400 -0.1944  0.0262 -0.2963
32049DOD     C239967  29.470  15.767   2.952 -0.2148 -0.0441  0.0109
32049DOD     C339968  29.622  15.448   2.630 -0.0210 -0.1628  0.2029
32050DOD     C139969  13.800  10.188  15.430  0.0451  0.4229  0.2710
32050DOD     C239970  14.243  10.219  15.417 -0.2310  0.0663  0.0002
32050DOD     C339971  14.549  10.055  15.706  0.0722  0.1221 -0.1064
32051DOD     C139972   7.845  24.961  11.958 -0.0475  0.0181  0.1111
32051DOD     C239973   7.700  24.569  12.027 -0.2011  0.3417 -0.0454
32051DOD     C339974   7.446  24.292  12.322  0.0436 -0.1469 -0.1432
32052DOD     C139975  29.767  16.190  20.456 -0.0786  0.0026 -0.1457
32052DOD     C239976  30.049  16.532  20.623  0.0692 -0.0153 -0.0293
32052DOD     C339977  30.217  16.905  20.787 -0.1768  0.0766  0.0939
32053DOD     C139978  25.496   6.245  24.311  0.2129  0.1826 -0.0504
32053DOD     C239979  25.868   6.394  24.224 -0.0545  0.0101  0.2572
32053DOD     C339980  26.324   6.463  24.194  0.0414 -0.1787  0.2134
32054DOD     C139981   4.706   2.433  18.070  0.1371  0.0039 -0.2811
32054DOD     C239982   4.610   2.345  18.538 -0.2724  0.0012 -0.0479
32054DOD     C339983   4.300   2.134  18.829 -0.0571  0.1086  0.1597
32055DOD     C139984  19.448  18.831  27.017  0.2631  0.0994  0.2799
32055DOD     C239985  19.903  18.696  27.191 -0.1409 -0.0576  0.1999
32055DOD     C339986  20.335  18.827  27.230  0.0255  0.3031  0.0260
32056DOD     C139987  23.495   0.836  28.665  0.0073 -0.1165  0.1461
32056DOD     C239988  23.441   1.070  29.054  0.2983 -0.0511  0.0978
32056DOD     C339989  23.410   1.503  29.267 -0.1920  0.1444  0.0493
32057DOD     C139990  15.392   5.492  15.833  0.2783 -0.2570  0.0275
32057DOD     C239991  15.722   5.425  15.501  0.1286 -0.2029 -0.0292
32057DOD     C339992  15.938   5.316  15.106  0.0143  0.1051 -0.0279
32058DOD     C139993  21.797   6.783  13.108 -0.1808  0.0210 -0.0726
32058DOD     C239994  21.841   7.143  12.741  0.0031  0.1244 -0.0171
32058DOD     C339995  22.264   7.328  12.672 -0.0799 -0.1703 -0.0859
32059DOD     C139996  17.615  13.994  23.230  0.0767 -0.2694  0.4423
32059DOD     C239997  17.231  13.680  23.143  0.1934 -0.1377 -0.3949
32059DOD     C339998  16.934  13.392  22.861  0.0939  0.0435  0.0796
32060DOD     C139999  17.388  24.664  29.364  0.3818  0.4055 -0.0413
32060DOD     C240000  17.648  24.632  29.739  0.0538  0.1087 -0.2251
32060DOD     C340001  17.755  24.608  30.204 -0.0436 -0.0546 -0.0223
32061DOD     C140002  18.720  14.622  13.469 -0.1089 -0.1326 -0.1947
32061DOD     C240003  18.604  14.209  13.382 -0.2046  0.1050  0.0988
32061DOD     C340004  18.521  13.739  13.378  0.0041 -0.1660 -0.1124
32062DOD     C140005  23.400  12.351  18.978  0.1929 -0.1247  0.0253
32062DOD     C240006  23.581  12.080  18.616  0.1467  0.0716 -0.0437
32062DOD     C340007  23.759  11.765  18.341  0.2825 -0.0868  0.3709
32063DOD     C140008  14.580   8.592   7.545 -0.0529  0.2061  0.0838
32063DOD     C240009  14.898   8.811   7.814  0.1064 -0.1364  0.1926
32063DOD     C340010  15.243   8.894   8.208  0.0583 -0.1552 -0.0747
32064DOD     C140011   6.106  13.480  21.998 -0.1602 -0.3178 -0.1243
32064DOD     C240012   5.701  13.400  22.147  0.1162  0.0268  0.0600
32064DOD     C340013   5.601  13.610  22.595  0.0974 -0.1751 -0.1786
32065DOD     C140014  11.184  12.422   1.584 -0.1464  0.2740 -0.0800
32065DOD     C240015  10.846  12.769   1.609 -0.1562  0.0960 -0.0158
32065DOD     C340016  10.440  12.979   1.669 -0.3345  0.0601  0.2185
32066DOD     C140017  17.916  17.710   0.085 -0.1604 -0.2241  0.2124
32066DOD     C240018  17.582  17.350   0.183 -0.0344 -0.0808 -0.2287
32066DOD     C340019  17.148  17.269   0.199  0.2528 -0.2734  0.2317
32067DOD     C140020  23.359  26.491  18.114  0.0761  0.1063 -0.0811
32067DOD     C240021  23.682  26.408  17.784  0.1584 -0.0002  0.0870
32067DOD     C340022  23.881  25.969  17.679  0.0257 -0.2615  0.1703
32068DOD     C140023   9.626  28.301  14.722 -0.2321 -0.1907 -0.2052
32068DOD     C240024   9.254  28.011  14.724 -0.1196  0.0210 -0.0961
32068DOD     C340025   8.846  27.754  14.832 -0.4051 -0.3345  0.2552
32069DOD     C140026  24.656  18.425   3.536 -0.0674 -0.3135 -0.2157
32069DOD     C240027  24.257  18.196   3.753  0.0674  0.1538 -0.1179
32069DOD     C340028  23.879  18.430   3.996  0.1127  0.2604  0.0116
32070DOD     C140029  27.970  15.825  20.726  0.1018 -0.2563 -0.0780
32070DOD     C240030  27.977  15.351  20.604  0.3376  0.0305  0.0768
32070DOD     C340031  28.236  14.920  20.609 -0.3803 -0.1647  0.5055
32071DOD     C140032   9.073  18.764  12.645 -0.1504  0.1509  0.1665
32071DOD     C240033   9.462  18.755  12.947  0.4253 -0.0251  0.0268
32071DOD     C340034   9.484  18.352  13.168 -0.3356 -0.1237  0.0978
32072DOD     C140035  15.796   6.890  19.477 -0.2880  0.3285  0.2312
32072DOD     C240036  15.847   7.100  19.099 -0.0336  0.0610 -0.1793
32072DOD     C340037  15.874   7.146  18.682 -0.3111  0.3383  0.1513
32073DOD     C140038   1.599   4.318   7.164 -0.1842 -0.0070 -0.1719
32073DOD     C240039   1.434   4.015   7.411 -0.2167  0.1137 -0.2800
32073DOD     C340040   1.514   3.666   7.662 -0.1425  0.0214 -0.4149
32074DOD     C140041  11.344   2.854  14.852 -0.2505  0.2307 -0.0291
32074DOD     C240042  11.231   2.787  15.258 -0.1047  0.0218  0.3437
32074DOD     C340043  10.875   2.917  15.543  0.2906  0.3186  0.2775
32075DOD     C140044  17.265  18.637  20.760 -0.1356 -0.2603  0.1749
32075DOD     C240045  16.863  18.307  20.784  0.3891 -0.1690 -0.2028
32075DOD     C340046  16.884  17.808  20.728  0.2441 -0.1024 -0.0605
32076DOD     C140047  27.685  29.699  17.247 -0.2746  0.0232  0.0048
32076DOD     C240048  28.084  29.857  17.120 -0.1041 -0.0119 -0.0364
32076DOD     C340049  28.501  30.103  17.210  0.1587  0.1540  0.0630
32077DOD     C140050   6.247  19.316  29.682 -0.1032 -0.1215 -0.0512
32077DOD     C240051   5.905  19.184  29.349  0.2846 -0.2070 -0.0004
32077DOD     C340052   5.728  18.879  28.977 -0.2205  0.1067 -0.2060
32078DOD     C140053  29.307  14.782  19.829 -0.0629 -0.2056 -0.2297
32078DOD     C240054  29.400  14.317  19.782  0.2437  0.0558  0.0529
32078DOD     C340055  29.388  13.907  19.551 -0.1006 -0.3053  0.0733
32079DOD     C140056  23.024   8.113  28.025 -0.0846  0.1497  0.0112
32079DOD     C240057  23.172   7.653  27.880  0.3492 -0.1486  0.0931
32079DOD     C340058  22.926   7.385  27.588 -0.0784 -0.2408  0.3203
32080DOD     C140059   0.984   5.243  20.428 -0.0778 -0.0424  0.0174
32080DOD     C240060   0.885   5.621  20.220  0.0766 -0.0476  0.1452
32080DOD     C340061   1.019   5.772  19.800 -0.3574 -0.0078 -0.3867
32081DOD     C140062  23.530  22.438  24.054  0.1829  0.0423  0.2638
32081DOD     C240063  23.649  22.678  23.622 -0.0776  0.1004  0.0931
32081DOD     C340064  23.369  22.930  23.326 -0.1784  0.1881 -0.2356
32082DOD     C140065  25.463  20.279  22.750 -0.0238 -0.1958 -0.0105
32082DOD     C240066  25.559  19.878  22.984  0.0472 -0.2181 -0.3289
32082DOD     C340067  25.726  19.496  23.199 -0.0832  0.0981 -0.1132
32083DOD     C140068   3.180   0.778   8.889 -0.0072 -0.6226  0.0557
32083DOD     C240069   2.765   0.903   8.683 -0.0484  0.2616 -0.0183
32083DOD     C340070   2.525   1.170   8.417  0.1053  0.1016 -0.1314
32084DOD     C140071   3.363  26.422  26.526  0.3539 -0.1110  0.2195
32084DOD     C240072   3.179  26.784  26.765  0.0438 -0.0433 -0.1039
32084DOD     C340073   3.389  27.259  26.823  0.1642 -0.1171  0.2354
32085DOD     C140074  27.676  18.831  10.991  0.0407 -0.2724 -0.1344
32085DOD     C240075  27.843  18.966  11.373 -0.1451 -0.1801 -0.1365
32085DOD     C340076  28.039  19.354  11.435 -0.2558  0.2870 -0.2107
32086DOD     C140077  14.349  16.970  18.057 -0.1444 -0.0907  0.1338
32086DOD     C240078  14.660  17.103  18.419 -0.2628  0.2103  0.2220
32086DOD     C340079  15.025  17.140  18.762 -0.2067  0.1569  0.2473
32087DOD     C140080  28.034  25.413  18.975  0.1402 -0.2699  0.2483
32087DOD     C240081  27.712  25.373  18.655  0.0151  0.1058 -0.1159
32087DOD     C340082  27.567  25.040  18.444 -0.1239  0.0717 -0.0403
32088DOD     C140083  13.652  11.714   7.963  0.0383  0.3502  0.0431
32088DOD     C240084  13.662  11.476   7.540  0.0975 -0.4740  0.0229
32088DOD     C340085  13.501  11.319   7.115  0.1649 -0.3627  0.0830
32089DOD     C140086  23.275  28.518   0.648 -0.1275 -0.2483 -0.1020
32089DOD     C240087  23.622  28.172   0.653  0.2754  0.1596 -0.3979
32089DOD     C340088  23.724  27.742   0.652  0.2888  0.3827  0.2697
32090DOD     C140089  22.034  12.379  13.700  0.0946 -0.1023  0.1202
32090DOD     C240090  22.045  12.710  13.331 -0.1093 -0.2236  0.0461
32090DOD     C340091  22.255  13.116  13.171  0.0052 -0.0671 -0.0098
32091DOD     C140092  14.982   5.668  22.849  0.0949 -0.5089  0.2340
32091DOD     C240093  14.600   5.502  23.062 -0.0089 -0.3232 -0.2050
32091DOD     C340094  14.349   5.609  23.401 -0.2288  0.2657 -0.1907
32092DOD     C140095   2.202  24.423  28.783 -0.0773  0.0669  0.0014
32092DOD     C240096   2.155  24.557  29.280 -0.0295 -0.0330  0.0115
32092DOD     C340097   1.989  24.493  29.678 -0.0477  0.1399 -0.0462
32093DOD     C140098  26.581  24.219   0.312 -0.3692  0.0711 -0.0666
32093DOD     C240099  26.927  24.294  30.275 -0.2338  0.3738 -0.0285
32093DOD     C340100  27.222  23.998  30.023 -0.2247 -0.0295 -0.0803
32094DOD     C140101  16.805  19.195   6.250 -0.0938  0.0109  0.1671
32094DOD     C240102  16.937  19.303   5.751  0.0619 -0.0812  0.1758
32094DOD     C340103  17.232  19.173   5.411  0.0581  0.1372 -0.1482
32095DOD     C140104   3.006  13.243  29.043 -0.1619 -0.1300 -0.0600
32095DOD     C240105   3.178  13.318  28.590 -0.1947 -0.2273  0.0258
32095DOD     C340106   3.284  13.753  28.379  0.0944  0.3487  0.0984
32096DOD     C140107  28.187  24.516   7.914 -0.0573 -0.0900  0.2401
32096DOD     C240108  28.462  24.169   7.792  0.0415 -0.1220  0.1240
32096DOD     C340109  28.852  23.916   7.951 -0.0933 -0.4469  0.0421
32097DOD     C140110   1.911   7.187   0.612  0.2146 -0.0735 -0.0090
32097DOD     C240111   1.537   7.236   0.394 -0.1513 -0.1108  0.1778
32097DOD     C340112   1.241   7.559   0.534 -0.1157  0.0557 -0.1034
32098DOD     C140113  30.305  11.855  18.414 -0.0665 -0.0531 -0.0144
32098DOD     C240114  30.279  12.303  18.317  0.2115 -0.0847 -0.1647
32098DOD     C340115  30.144  12.520  17.928  0.1203  0.1786  0.0764
32099DOD     C140116  24.689  28.060   4.511  0.3856 -0.0959  0.0566
32099DOD     C240117  24.919  28.088   4.098 -0.1223 -0.0915 -0.0288
32099DOD     C340118  25.090  28.419   3.776 -0.0880  0.1731  0.2118
32100DOD     C140119  26.722  12.200  30.293 -0.0936 -0.3081 -0.0358
32100DOD     C240120  27.070  12.513  30.269 -0.0015  0.0963  0.2083
32100DOD     C340121  27.440  12.791  30.206 -0.1414 -0.0115  0.0816
32101DOD     C140122  18.116  28.090   8.666  0.2706  0.0353  0.1069
32101DOD     C240123  18.581  28.050   8.770  0.1203  0.1050 -0.1149
32101DOD     C340124  19.052  28.080   8.621 -0.0016  0.1850 -0.0051
32102DOD     C140125  13.286  25.640   6.147  0.2018 -0.0943  0.1247
32102DOD     C240126  13.025  25.833   6.519 -0.3209  0.1150  0.0430
32102DOD     C340127  12.588  25.878   6.669 -0.1358  0.1694  0.3208
32103DOD     C140128   0.672  16.602  16.476 -0.0028  0.2434 -0.0524
32103DOD     C240129   0.836  16.784  16.081 -0.1337  0.1773  0.0916
32103DOD     C340130   1.026  17.211  15.898 -0.0406  0.0334 -0.2834
32104DOD     C140131   1.863  23.948  10.222 -0.3962 -0.0304 -0.1583
32104DOD     C240132   2.161  24.066   9.933 -0.3983  0.1330  0.0767
32104DOD     C340133   2.102  24.292   9.548  0.0822  0.0100  0.3204
32105DOD     C140134  15.089   4.637  25.712  0.3480 -0.0465 -0.0908
32105DOD     C240135  14.995   4.701  26.191  0.3818  0.2443 -0.0798
32105DOD     C340136  15.028   4.736  26.622  0.0682  0.2392 -0.0667
32106DOD     C140137  24.765  11.849  14.975 -0.1952 -0.0241 -0.1490
32106DOD     C240138  24.523  11.482  15.161  0.1933 -0.0409 -0.1278
32106DOD     C340139  24.402  11.069  15.317 -0.1878 -0.1406 -0.0819
32107DOD     C140140   7.447   5.568  17.555 -0.2542  0.2029  0.0354
32107DOD     C240141   7.374   5.253  17.903  0.0395  0.0560  0.0832
32107DOD     C340142   6.971   5.055  17.905 -0.0652  0.1287 -0.2551
32108DOD     C140143  22.195  24.379  13.384  0.2758  0.2798  0.1318
32108DOD     C240144  21.869  24.590  13.032 -0.1097 -0.2926  0.0803
32108DOD     C340145  21.473  24.582  12.811  0.0456 -0.1651 -0.0102
32109DOD     C140146   7.643  11.467   9.217 -0.1524 -0.1220 -0.3884
32109DOD     C240147   7.214  11.418   9.453 -0.2856 -0.1167 -0.0200
32109DOD     C340148   7.041  11.644   9.848  0.3064 -0.0565  0.2744
32110DOD     C140149  10.444  15.573  10.851 -0.2813  0.1564 -0.1422
32110DOD     C240150  10.196  15.896  10.561 -0.0853 -0.0934  0.2592
32110DOD     C340151  10.171  16.142  10.184  0.0837  0.1267 -0.0970
32111DOD     C140152  21.182   3.803   3.795  0.1126 -0.1433 -0.2100
32111DOD     C240153  21.206   3.411   3.941 -0.0330 -0.2692  0.0383
32111DOD     C340154  21.353   3.197   4.368  0.0164 -0.1264 -0.1171
32112DOD     C140155   9.790   2.275  28.076 -0.0672  0.1015  0.0345
32112DOD     C240156   9.594   2.253  28.502 -0.0385 -0.0816  0.0919
32112DOD     C340157   9.811   2.181  28.971  0.2566  0.0511  0.1409
32113DOD     C140158  15.414  20.833   0.340 -0.0828  0.0891  0.0254
32113DOD     C240159  15.754  20.918   0.089 -0.1921  0.2496 -0.0153
32113DOD     C340160  16.012  20.877  30.043 -0.0845  0.0094  0.1782
32114DOD     C140161  13.800   4.225  11.705 -0.2377  0.0277  0.0295
32114DOD     C240162  13.404   4.450  11.591  0.2761  0.1448 -0.2615
32114DOD     C340163  13.046   4.745  11.506  0.2008 -0.1320 -0.1235
32115DOD     C140164  11.845  19.967  19.012  0.1579 -0.1915  0.2146
32115DOD     C240165  12.109  19.806  19.371 -0.1341 -0.0697 -0.0953
32115DOD     C340166  12.441  19.719  19.699  0.3343 -0.1537 -0.1412
32116DOD     C140167  10.404  12.138  10.715 -0.0830 -0.1255 -0.0106
32116DOD     C240168  10.140  11.887  10.990 -0.1668 -0.2194  0.1065
32116DOD     C340169  10.264  11.684  11.442  0.2492 -0.1080  0.0976
32117DOD     C140170  21.623  23.485  27.926 -0.0197  0.1447  0.2006
32117DOD     C240171  21.564  23.792  27.528  0.0133  0.1991 -0.1986
32117DOD     C340172  21.567  23.793  27.068 -0.0668  0.1912  0.1703
32118DOD     C140173  18.052  30.082   8.268 -0.2603  0.2971  0.0462
32118DOD     C240174  17.969  29.855   7.851  0.1813  0.2817 -0.1236
32118DOD     C340175  17.634  29.521   7.688 -0.2303  0.2190 -0.3319
32119DOD     C140176  29.304   2.236  15.843 -0.3101 -0.0282  0.2673
32119DOD     C240177  29.044   2.647  15.883 -0.0615 -0.1664  0.0991
32119DOD     C340178  29.032   3.071  16.089 -0.1228  0.0335  0.0135
32120DOD     C140179  19.299  26.056  25.567  0.1022 -0.0365 -0.0541
32120DOD     C240180  18.810  25.996  25.697 -0.0493 -0.1915  0.3809
32120DOD     C340181  18.445  25.748  25.876  0.0019  0.1606  0.0043
32121DOD     C140182   3.850  22.096  23.859  0.1665  0.1078  0.0902
32121DOD     C240183   4.215  21.920  23.688 -0.1251  0.0486 -0.2370
32121DOD     C340184   4.564  21.808  23.375 -0.0558 -0.2901  0.0545
32122DOD     C140185  16.015   8.033  14.030  0.0490  0.0038  0.1408
32122DOD     C240186  15.979   7.846  14.451 -0.6181  0.1857  0.2168
32122DOD     C340187  15.752   7.877  14.851  0.0525 -0.0582 -0.2714
32123DOD     C140188  17.579  23.217  21.487  0.0024 -0.2562 -0.0087
32123DOD     C240189  17.396  23.410  21.061 -0.1430 -0.1219  0.0898
32123DOD     C340190  17.022  23.659  20.949 -0.2859 -0.2330  0.0357
32124DOD     C140191   2.492   7.395  12.430 -0.0448  0.0065  0.0452
32124DOD     C240192   2.857   7.181  12.615  0.2861  0.0582 -0.1915
32124DOD     C340193   2.839   6.790  12.845  0.1028 -0.3461 -0.2697
32125DOD     C140194   4.219  18.144  12.648  0.0657 -0.0779 -0.0243
32125DOD     C240195   4.304  18.307  12.191  0.0655  0.1344 -0.4644
32125DOD     C340196   4.472  18.774  12.160  0.0306 -0.0320 -0.2026
32126DOD     C140197   6.719  22.020  14.320 -0.0261 -0.1917 -0.0662
32126DOD     C240198   7.124  21.916  14.283  0.2399 -0.0275 -0.1386
32126DOD     C340199   7.345  21.517  14.052  0.0503  0.1792 -0.0076
32127DOD     C140200  13.782   8.868   0.879 -0.1030 -0.0545  0.0876
32127DOD     C240201  13.671   8.541   1.141  0.0137 -0.1621  0.0105
32127DOD     C340202  13.429   8.165   1.310  0.2409 -0.1570 -0.1693
32128DOD     C140203  26.450  12.796  20.615  0.0293  0.2551  0.0751
32128DOD     C240204  26.446  13.288  20.620  0.2858 -0.0925  0.0586
32128DOD     C340205  26.550  13.729  20.688 -0.1334 -0.4104 -0.1393
32129DOD     C140206  15.592   0.708  18.688  0.0195  0.0450 -0.1484
32129DOD     C240207  15.502   1.098  18.948 -0.1762  0.3199  0.2102
32129DOD     C340208  15.709   1.394  19.115  0.1822 -0.0320 -0.0196
32130DOD     C140209   8.819   5.371  15.527  0.1232  0.1934 -0.1170
32130DOD     C240210   9.206   5.059  15.483  0.0239 -0.1125  0.0655
32130DOD     C340211   9.130   4.715  15.165 -0.0768 -0.2753  0.1653
32131DOD     C140212  12.552   8.304   9.911  0.0721 -0.0886  0.2893
32131DOD     C240213  12.803   8.194  10.342 -0.2784 -0.2733  0.0716
32131DOD     C340214  13.060   7.808  10.463 -0.0217  0.1543  0.0872
32132DOD     C140215  23.240  28.538  11.738 -0.0274  0.0479  0.4262
32132DOD     C240216  23.649  28.305  11.834 -0.0136  0.0109 -0.0427
32132DOD     C340217  24.090  28.416  11.893 -0.3802 -0.3210  0.1844
32133DOD     C140218  26.296  20.196  29.366 -0.2157 -0.1498  0.2377
32133DOD     C240219  26.111  19.965  28.947  0.3508 -0.0709  0.0293
32133DOD     C340220  25.918  19.567  29.087  0.3032 -0.1707 -0.0779
32134DOD     C140221  20.127  13.637  22.559 -0.4203 -0.0892 -0.0473
32134DOD     C240222  20.347  13.868  22.953  0.2108  0.0071  0.1113
32134DOD     C340223  20.053  14.242  23.021 -0.1951  0.0987  0.2923
32135DOD     C140224   6.728  21.465  25.839 -0.1122  0.1838  0.4619
32135DOD     C240225   6.485  21.513  25.470  0.0628 -0.3617 -0.1066
32135DOD     C340226   6.612  21.593  25.032 -0.0761  0.0256  0.0084
32136DOD     C140227   3.058  19.256   2.439  0.1886 -0.1239 -0.0388
32136DOD     C240228   3.318  19.315   2.848  0.1112 -0.0622  0.0764
32136DOD     C340229   3.255  19.549   3.196  0.1123 -0.2437 -0.3839
32137DOD     C140230  29.712   2.280  21.525  0.0809 -0.0658 -0.0594
32137DOD     C240231  29.317   2.193  21.685 -0.1859  0.0689 -0.1067
32137DOD     C340232  28.880   2.075  21.763 -0.0719 -0.0351  0.2169
32138DOD     C140233   5.730  28.590  30.230 -0.0388 -0.2173 -0.1650
32138DOD     C240234   5.714  28.205  30.025 -0.1721  0.1213  0.0627
32138DOD     C340235   5.678  27.757  29.870  0.1200  0.2717 -0.0144
32139DOD     C140236  25.306   2.088  11.698  0.1709  0.1783  0.1858
32139DOD     C240237  24.864   2.035  11.811 -0.3177  0.0135 -0.2086
32139DOD     C340238  24.409   2.025  11.697 -0.1638  0.0738 -0.0565
32140DOD     C140239  28.188  18.732  21.085  0.0579  0.3375  0.0279
32140DOD     C240240  27.904  19.053  21.096 -0.0786 -0.0610  0.0375
32140DOD     C340241  27.679  19.442  21.100 -0.0924  0.2128  0.2074
32141DOD     C140242  28.591   1.626  24.492  0.0914 -0.2533  0.0411
32141DOD     C240243  28.415   1.642  24.038  0.0473  0.0709  0.2714
32141DOD     C340244  28.637   1.542  23.648  0.0983 -0.3349 -0.1889
32142DOD     C140245   1.125  24.482   8.869  0.0192  0.5394 -0.1084
32142DOD     C240246   0.943  24.430   9.300 -0.1168  0.0125  0.0577
32142DOD     C340247   0.481  24.458   9.281 -0.0897  0.0853  0.0853
32143DOD     C140248  29.889  24.390  29.345 -0.0013  0.2249  0.2332
32143DOD     C240249  29.573  24.621  29.163  0.1963  0.0876 -0.2627
32143DOD     C340250  29.347  24.941  28.927  0.4171 -0.0067  0.1154
32144DOD     C140251  28.867   2.227  16.164  0.1383  0.0968  0.0304
32144DOD     C240252  28.538   2.240  16.534 -0.3085 -0.2272  0.2980
32144DOD     C340253  28.601   2.128  16.949  0.0223 -0.0327  0.1173
32145DOD     C140254   4.479  22.818  21.053  0.0229  0.2981 -0.1487
32145DOD     C240255   4.857  22.810  20.798  0.0060  0.0506 -0.0289
32145DOD     C340256   5.387  22.744  20.857  0.2632 -0.1858  0.3168
32146DOD     C140257  17.084  21.605  23.761 -0.3357  0.2705 -0.3012
32146DOD     C240258  17.104  21.511  23.300 -0.2614 -0.1371 -0.0500
32146DOD     C340259  16.938  21.121  23.216  0.2257  0.0066  0.2379
32147DOD     C140260  19.290   6.608  19.350 -0.0022  0.2082  0.1861
32147DOD     C240261  19.647   6.238  19.490  0.0241 -0.0235  0.4234
32147DOD     C340262  20.064   6.268  19.633  0.3410 -0.2124 -0.1098
32148DOD     C140263  15.164   8.192  26.651 -0.0495 -0.2807 -0.0741
32148DOD     C240264  15.119   7.848  26.262 -0.1028 -0.0107 -0.0657
32148DOD     C340265  15.279   8.029  25.882 -0.0355 -0.2419 -0.1873
32149DOD     C140266  18.643  23.751   7.896  0.0178 -0.0045  0.0342
32149DOD     C240267  18.496  23.372   7.801 -0.1994 -0.0787  0.3774
32149DOD     C340268  18.100  23.314   8.006  0.3296 -0.1614  0.2175
32150DOD     C140269   1.681  10.010  26.903 -0.3340 -0.1448  0.1915
32150DOD     C240270   1.610  10.279  27.244  0.0495 -0.2258  0.1063
32150DOD     C340271   1.574  10.669  27.565  0.0072 -0.0828  0.1219
32151DOD     C140272   0.946  10.869   3.970 -0.2085  0.0480 -0.1055
32151DOD     C240273   1.223  10.838   4.353 -0.1257  0.0321  0.1733
32151DOD     C340274   1.375  10.570   4.696 -0.0696 -0.1082  0.1226
32152DOD     C140275   2.341  17.871  16.725  0.0303  0.0856  0.2290
32152DOD     C240276   2.272  17.467  16.490 -0.1796 -0.1294  0.0095
32152DOD     C340277   2.360  17.246  16.039 -0.1058 -0.0925 -0.0542
32153DOD     C140278  24.521   9.073  20.929  0.0867 -0.1969 -0.6777
32153DOD     C240279  24.840   9.323  21.145 -0.0374 -0.0847  0.1680
32153DOD     C340280  25.161   9.603  21.285  0.1333 -0.0888  0.1900
32154DOD     C140281   7.594  26.223   9.747  0.3491 -0.2726 -0.0741
32154DOD     C240282   7.537  26.163  10.134 -0.0476  0.0953 -0.1459
32154DOD     C340283   7.478  25.787  10.411  0.2698 -0.1524 -0.0412
32155DOD     C140284  25.803  17.227   9.930  0.0144  0.1017 -0.1053
32155DOD     C240285  25.463  17.512  10.130 -0.1119 -0.0781  0.0437
32155DOD     C340286  25.224  17.874  10.256  0.0167  0.0221  0.2224
32156DOD     C140287   0.274  21.905  15.012 -0.0752  0.2626  0.2418
32156DOD     C240288   0.041  21.916  15.403 -0.2726 -0.0899 -0.0092
32156DOD     C340289  30.108  21.921  15.788  0.0589 -0.2843  0.1735
32157DOD     C140290  25.301  15.508  15.820  0.2367 -0.2407 -0.0795
32157DOD     C240291  25.452  15.963  15.600 -0.2871 -0.0574 -0.1458
32157DOD     C340292  25.760  16.236  15.815 -0.0008 -0.2059 -0.1722
32158DOD     C140293  11.030  16.752   1.207 -0.2184  0.1055  0.4693
32158DOD     C240294  11.099  16.446   0.884 -0.0241 -0.0495 -0.1418
32158DOD     C340295  10.940  16.141   0.603 -0.0606 -0.0746 -0.0730
32159DOD     C140296   2.785   0.070  22.961 -0.2384  0.2239  0.2340
32159DOD     C240297   2.895  30.174  23.358  0.1884  0.0073 -0.0179
32159DOD     C340298   2.687  30.094  23.748  0.0919  0.0197 -0.2159
32160DOD     C140299  14.227  21.977  23.278  0.1467 -0.0708  0.0542
32160DOD     C240300  13.896  22.326  23.245 -0.2820  0.2909 -0.2232
32160DOD     C340301  13.824  22.728  23.508  0.1216 -0.1355 -0.3531
32161DOD     C140302  19.020  12.303   6.922  0.0813 -0.2640 -0.1663
32161DOD     C240303  19.226  12.589   6.604  0.0949  0.0930 -0.0884
32161DOD     C340304  19.519  12.966   6.520 -0.2136 -0.1412  0.1160
32162DOD     C140305   8.128   9.859  13.260 -0.2230 -0.0188 -0.0598
32162DOD     C240306   8.274  10.321  13.356 -0.0837  0.1426  0.0014
32162DOD     C340307   8.492  10.573  13.675  0.1189  0.0522  0.1660
32163DOD     C140308   2.516  24.168  23.960  0.0481  0.2493  0.0705
32163DOD     C240309   2.198  24.196  23.585  0.0341  0.0527  0.1184
32163DOD     C340310   1.786  24.108  23.393 -0.1348 -0.0598  0.0594
32164DOD     C140311   3.090  13.776   9.163  0.1597 -0.1901  0.1343
32164DOD     C240312   3.522  13.501   9.060 -0.2115 -0.0047  0.3732
32164DOD     C340313   3.933  13.255   9.029 -0.0874  0.1805  0.0199
32165DOD     C140314  15.778   3.995  11.356  0.0993 -0.1442 -0.1909
32165DOD     C240315  16.204   4.218  11.297  0.0164  0.0693  0.2143
32165DOD     C340316  16.592   4.233  11.049  0.1023 -0.0649  0.2568
32166DOD     C140317   7.523  18.161   6.127  0.1523  0.2186 -0.2194
32166DOD     C240318   7.844  18.231   6.472 -0.0313  0.0882 -0.2868
32166DOD     C340319   7.984  18.535   6.806  0.0989 -0.0747  0.2439
32167DOD     C140320  10.953  10.042   0.690 -0.4516  0.3426 -0.1249
32167DOD     C240321  10.763   9.637   0.529 -0.1276 -0.1968  0.3845
32167DOD     C340322  10.779   9.218   0.766  0.1151  0.1580 -0.3284
32168DOD     C140323  17.936  25.651  13.186  0.0659 -0.0007  0.1962
32168DOD     C240324  17.696  25.647  12.828  0.0351 -0.0655  0.1812
32168DOD     C340325  17.542  26.016  12.571 -0.2633 -0.1804 -0.1356
32169DOD     C140326  27.417  21.670  17.805 -0.0387 -0.0612  0.1705
32169DOD     C240327  27.140  21.364  17.548  0.1418 -0.1109 -0.0027
32169DOD     C340328  26.858  21.071  17.693  0.0712 -0.2683 -0.2727
32170DOD     C140329  22.149  29.413  28.618 -0.1543  0.0669  0.1870
32170DOD     C240330  22.274  29.417  29.010  0.1252 -0.2120 -0.2311
32170DOD     C340331  22.676  29.188  29.140  0.2069  0.2598  0.1115
32171DOD     C140332   4.148   0.812  24.274 -0.2118 -0.0871  0.0191
32171DOD     C240333   3.943   0.361  24.241 -0.1348 -0.4053  0.0691
32171DOD     C340334   3.844  30.272  24.289  0.0800  0.1166 -0.1200
32172DOD     C140335  27.363  17.457  18.161 -0.3035  0.2654  0.0110
32172DOD     C240336  27.772  17.303  17.964 -0.0405  0.0846 -0.0416
32172DOD     C340337  28.165  17.277  18.136 -0.2234  0.1333  0.2584
32173DOD     C140338  16.154   5.505  18.945 -0.5429 -0.0787  0.1796
32173DOD     C240339  15.898   5.689  18.574  0.1532  0.0184 -0.0660
32173DOD     C340340  15.608   5.900  18.311  0.2093  0.3255  0.1130
32174DOD     C140341  25.210  16.929  13.191 -0.3284  0.2268  0.0884
32174DOD     C240342  24.792  16.866  13.006 -0.3904  0.0606  0.0873
32174DOD     C340343  24.548  16.565  12.699 -0.1777  0.0342  0.2395
32175DOD     C140344  21.542  17.542   7.308 -0.3528 -0.1390 -0.1046
32175DOD     C240345  21.798  17.387   7.602  0.0144 -0.1181 -0.1925
32175DOD     C340346  21.729  17.260   8.015  0.2053 -0.1464  0.0620
32176DOD     C140347  14.477   1.341  17.086 -0.2844  0.1552  0.1146
32176DOD     C240348  14.736   1.045  16.932 -0.1306  0.1042  0.1415
32176DOD     C340349  14.897   0.585  16.915 -0.0103  0.1671 -0.1205
32177DOD     C140350  21.574  14.277   7.189 -0.0404 -0.0630 -0.0665
32177DOD     C240351  21.808  13.897   7.104 -0.2382  0.0765  0.1411
32177DOD     C340352  22.090  13.564   6.929 -0.0307  0.1020  0.0694
32178DOD     C140353  14.752   4.404   7.202 -0.1363 -0.3845  0.1169
32178DOD     C240354  14.452   4.400   6.944 -0.0230 -0.0089  0.0810
32178DOD     C340355  14.160   4.110   6.728  0.1340  0.0240 -0.1675
32179DOD     C140356  18.577  28.489   3.845  0.0530 -0.2361  0.3589
32179DOD     C240357  18.226  28.581   3.580  0.0277  0.0600  0.1651
32179DOD     C340358  17.834  28.560   3.352  0.0384  0.1300 -0.3629
32180DOD     C140359  11.046  14.857  27.396 -0.0520 -0.0691 -0.0974
32180DOD     C240360  10.693  15.033  27.177  0.0027 -0.0389  0.0168
32180DOD     C340361  10.473  15.404  27.004 -0.0175  0.3014 -0.0449
32181DOD     C140362  22.120  26.729  23.989 -0.0153  0.0049  0.1114
32181DOD     C240363  21.851  27.098  23.897 -0.3518 -0.0613 -0.3048
32181DOD     C340364  21.732  27.202  23.487 -0.3884  0.0715  0.3126
32182DOD     C140365   2.674  27.909  26.310  0.0238  0.5693  0.2815
32182DOD     C240366   2.282  27.713  26.335 -0.0573 -0.2426 -0.1812
32182DOD     C340367   1.975  27.459  26.479  0.3813  0.1706  0.6379
32183DOD     C140368  16.264  21.307   3.780 -0.0637 -0.0504 -0.1507
32183DOD     C240369  16.424  21.429   4.194  0.0905  0.2238 -0.0840
32183DOD     C340370  16.543  21.532   4.663  0.1400 -0.3537 -0.2829
32184DOD     C140371  13.950  25.140  10.946  0.3294  0.2094 -0.2165
32184DOD     C240372  14.048  24.781  11.276  0.0981 -0.0724 -0.0079
32184DOD     C340373  13.988  24.368  11.557 -0.0830 -0.0889  0.1760
32185DOD     C140374   8.496  29.693  11.671 -0.1145 -0.2750  0.0814
32185DOD     C240375   8.150  29.514  11.636  0.2655 -0.1319  0.0014
32185DOD     C340376   7.935  29.189  11.841 -0.0449  0.0907  0.0686
32186DOD     C140377  22.961   7.617   7.544  0.1071 -0.1838  0.2892
32186DOD     C240378  22.793   7.959   7.801 -0.1625  0.3339  0.0406
32186DOD     C340379  22.569   8.259   8.076 -0.1433 -0.1027 -0.2724
32187DOD     C140380   5.598   9.559  16.859  0.2336 -0.2149 -0.1646
32187DOD     C240381   5.984   9.709  16.607  0.0264 -0.3293  0.0115
32187DOD     C340382   6.407   9.581  16.477  0.2279 -0.0497  0.1431
32188DOD     C140383   2.271  20.230   3.231  0.3268 -0.1553 -0.0393
32188DOD     C240384   1.977  20.169   2.825 -0.0434 -0.4043 -0.1109
32188DOD     C340385   1.662  19.937   2.612 -0.0494  0.1193  0.0222
32189DOD     C140386   1.247  21.225   8.682 -0.5355 -0.2075 -0.2628
32189DOD     C240387   0.817  21.093   8.895 -0.1502  0.1496 -0.0181
32189DOD     C340388   0.870  20.813   9.317 -0.0209 -0.2651  0.0323
32190DOD     C140389  22.867  24.380  19.809 -0.1814 -0.2765  0.1481
32190DOD     C240390  23.017  24.738  19.509 -0.3344 -0.3393 -0.0755
32190DOD     C340391  22.786  24.955  19.143  0.1609  0.1559 -0.1071
32191DOD     C140392   7.246  21.341  28.247 -0.2899  0.1463 -0.2729
32191DOD     C240393   7.084  21.718  28.191 -0.0972 -0.1031 -0.0009
32191DOD     C340394   6.778  22.084  28.077  0.1029  0.0786  0.1008
32192DOD     C140395  22.584   5.343  29.945  0.1796 -0.2058  0.1000
32192DOD     C240396  22.445   4.980  29.687 -0.0081 -0.0808  0.3028
32192DOD     C340397  22.479   4.812  29.230  0.0298 -0.0222  0.1667
32193DOD     C140398  27.809  25.851  29.189 -0.1108  0.1882  0.0350
32193DOD     C240399  28.133  25.493  29.213 -0.0862  0.2686  0.1597
32193DOD     C340400  28.487  25.266  29.140 -0.0666 -0.1199  0.1506
32194DOD     C140401   5.818   6.703   1.037 -0.0674  0.0731  0.1277
32194DOD     C240402   5.819   7.090   1.314  0.1918  0.2381 -0.0985
32194DOD     C340403   5.907   7.544   1.438 -0.0671  0.3180  0.0836
32195DOD     C140404  17.691  14.784  11.331  0.0128 -0.2368 -0.0914
32195DOD     C240405  17.279  14.655  11.151 -0.1916  0.4499  0.0560
32195DOD     C340406  17.003  14.312  11.007 -0.1073 -0.0893  0.1485
32196DOD     C140407  27.529  13.365   8.977 -0.0298  0.0356  0.0577
32196DOD     C240408  27.541  12.933   8.934  0.1307 -0.0388 -0.0032
32196DOD     C340409  27.541  12.599   8.617 -0.1020 -0.3712  0.1397
32197DOD     C140410  21.856  22.934   5.499  0.3627  0.2187 -0.1541
32197DOD     C240411  21.982  22.545   5.267 -0.4042  0.2718  0.3014
32197DOD     C340412  22.130  22.111   5.242  0.0056 -0.0462 -0.1263
32198DOD     C140413  13.351   8.829   7.400 -0.0667 -0.0408  0.0424
32198DOD     C240414  12.895   8.657   7.464  0.3556 -0.2108 -0.1760
32198DOD     C340415  12.417   8.475   7.461  0.1794  0.0481  0.0163
32199DOD     C140416  13.394   0.266   3.981 -0.1378  0.2482  0.1788
32199DOD     C240417  13.080   0.571   3.775  0.1975 -0.0145  0.2007
32199DOD     C340418  13.001   0.868   3.410  0.0813  0.0781 -0.2256
32200DOD     C140419  24.305  10.022  11.156  0.0158 -0.0908  0.2752
32200DOD     C240420  24.744  10.042  11.088  0.0061 -0.0238 -0.1850
32200DOD     C340421  25.060  10.038  10.726  0.1182  0.5161 -0.0850
32201DOD     C140422  19.210   9.308   9.332 -0.0433 -0.0817 -0.0356
32201DOD     C240423  19.470   9.400   9.001 -0.1103  0.0019  0.0572
32201DOD     C340424  19.864   9.171   8.773 -0.1156 -0.1015 -0.1591
32202DOD     C140425  12.352  19.267  10.494 -0.1427 -0.1966  0.1088
32202DOD     C240426  12.513  18.981  10.221 -0.2945  0.1556 -0.2296
32202DOD     C340427  12.556  18.606   9.985  0.3504 -0.1431 -0.0334
32203DOD     C140428   8.056   0.450  17.297  0.5221 -0.1310 -0.0590
32203DOD     C240429   7.997   0.169  16.914 -0.1489  0.1167  0.3288
32203DOD     C340430   7.793   0.075  16.513 -0.3115  0.0324  0.2387
32204DOD     C140431  25.865   2.197   2.536 -0.2203  0.0122 -0.0834
32204DOD     C240432  26.046   1.801   2.617  0.1580  0.1847  0.0094
32204DOD     C340433  26.120   1.358   2.351 -0.0145  0.3916  0.0365
32205DOD     C140434  17.792   3.804   0.531  0.0114  0.1684  0.0043
32205DOD     C240435  17.778   4.267   0.629  0.0558  0.0506  0.4656
32205DOD     C340436  17.949   4.573   0.855  0.1220 -0.2631  0.1293
32206DOD     C140437   9.298  28.445  14.334 -0.2028  0.1153  0.2470
32206DOD     C240438   9.105  28.862  14.451  0.1333  0.1114  0.0123
32206DOD     C340439   8.993  29.106  14.857 -0.1109 -0.0767 -0.1947
32207DOD     C140440  12.773  24.512  23.911 -0.3396 -0.0699  0.0886
32207DOD     C240441  12.737  24.118  24.164  0.1571 -0.1234  0.1928
32207DOD     C340442  12.834  23.777  24.351  0.0041  0.2920 -0.0306
32208DOD     C140443  10.206  23.319   8.185 -0.4330 -0.0951 -0.3075
32208DOD     C240444   9.807  23.347   8.460 -0.2885  0.0524  0.1262
32208DOD     C340445   9.802  23.546   8.892  0.0947  0.0370  0.0389
32209DOD     C140446   0.859  13.361   6.718  0.1742  0.1136  0.2966
32209DOD     C240447   0.736  13.272   7.140  0.0355  0.0474 -0.1679
32209DOD     C340448   0.908  13.053   7.535 -0.0215 -0.0586 -0.1072
32210DOD     C140449  29.431  24.209  26.059 -0.2142 -0.1486 -0.1353
32210DOD     C240450  29.384  24.704  26.041  0.1557  0.0282  0.0965
32210DOD     C340451  29.629  25.105  26.147 -0.1953  0.1092  0.0206
32211DOD     C140452  13.998  22.006   6.129  0.2278 -0.1150  0.2035
32211DOD     C240453  13.767  22.191   5.700  0.2365  0.1817  0.0172
32211DOD     C340454  13.770  22.351   5.247  0.1449  0.1231 -0.1315
32212DOD     C140455  29.411  29.427   6.242  0.3477  0.1348  0.0566
32212DOD     C240456  29.859  29.591   6.235  0.0433 -0.2296 -0.2984
32212DOD     C340457  30.034  30.027   6.389  0.1703  0.0127  0.2674
32213DOD     C140458  20.095  24.453  21.727  0.3148  0.1013  0.2524
32213DOD     C240459  19.679  24.586  21.967 -0.0559  0.5363  0.3535
32213DOD     C340460  19.263  24.782  22.074 -0.1426  0.2385 -0.0518
32214DOD     C140461  12.471  16.984  28.318  0.1300  0.0997 -0.0267
32214DOD     C240462  12.558  16.636  27.975  0.1698  0.1637  0.0902
32214DOD     C340463  12.443  16.362  27.608 -0.0867  0.0057 -0.3856
32215DOD     C140464  11.486   8.086  19.491 -0.2154 -0.0611 -0.0233
32215DOD     C240465  11.176   7.776  19.571  0.2774  0.3053  0.3481
32215DOD     C340466  10.691   7.710  19.606 -0.1045 -0.1413  0.4509
32216DOD     C140467  22.173  13.060  14.269 -0.2128  0.0331 -0.3756
32216DOD     C240468  21.846  12.750  14.048 -0.0290  0.1510 -0.0374
32216DOD     C340469  21.759  12.258  14.127  0.1064  0.1865  0.5360
32217DOD     C140470  20.977   9.638  23.118  0.1447 -0.1937  0.1459
32217DOD     C240471  21.389   9.685  23.345 -0.0691  0.0481  0.1362
32217DOD     C340472  21.524   9.963  23.708  0.0467  0.0180 -0.0136
32218DOD     C140473  10.207  15.647  15.306  0.1009  0.0335 -0.0657
32218DOD     C240474  10.512  15.850  15.479  0.1054  0.0769  0.2750
32218DOD     C340475  10.708  15.891  15.900  0.1811 -0.0953 -0.1638
32219DOD     C140476  23.746  13.287  12.378  0.0905 -0.0047  0.5669
32219DOD     C240477  23.598  13.146  12.784  0.0904 -0.0197  0.1653
32219DOD     C340478  23.496  12.863  13.152  0.1432 -0.0099 -0.2727
32220DOD     C140479  29.038  22.018  22.386 -0.1101 -0.0972 -0.1577
32220DOD     C240480  28.727  21.889  22.663  0.1608  0.0143  0.1832
32220DOD     C340481  28.404  21.815  23.020 -0.4416  0.2470  0.0301
32221DOD     C140482   2.868   6.382  10.408 -0.0199  0.3515  0.0473
32221DOD     C240483   3.253   6.690  10.377 -0.1483  0.3473 -0.1394
32221DOD     C340484   3.454   7.040  10.189  0.0295  0.1805  0.1815
32222DOD     C140485  28.306  20.130  14.696 -0.0978  0.0488 -0.1106
32222DOD     C240486  27.845  20.145  14.653  0.2568 -0.2845 -0.2251
32222DOD     C340487  27.435  19.825  14.573 -0.0760  0.0660 -0.4883
32223DOD     C140488   9.663  22.970  10.575  0.2203  0.0555 -0.1719
32223DOD     C240489   9.316  22.899  10.375  0.0538 -0.0038 -0.1644
32223DOD     C340490   8.871  22.842  10.478  0.2542 -0.3215  0.0120
32224DOD     C140491   5.714  19.892   0.570  0.1622  0.1107 -0.0506
32224DOD     C240492   6.109  19.775   0.356 -0.1616 -0.0963  0.0680
32224DOD     C340493   6.083  19.520  30.249 -0.1166  0.0234  0.1460
32225DOD     C140494  30.291  13.162  18.671 -0.0571  0.1431 -0.1609
32225DOD     C240495  29.866  13.145  18.444  0.0641 -0.0740 -0.0066
32225DOD     C340496  29.733  12.714  18.225 -0.2275 -0.1907  0.0886
32226DOD     C140497   1.116   2.128  26.661  0.2217  0.3236 -0.0747
32226DOD     C240498   0.852   1.767  26.446 -0.0676 -0.0774  0.3654
32226DOD     C340499   0.732   1.313  26.375  0.1432 -0.3896 -0.3253
32227DOD     C140500  10.659   8.422  10.650  0.2533  0.1208  0.1758
32227DOD     C240501  11.066   8.443  10.797 -0.0868  0.2116  0.2273
32227DOD     C340502  11.534   8.476  10.770 -0.0804  0.2231 -0.1373
32228DOD     C140503  28.388   5.419  24.395  0.0857  0.0343 -0.0556
32228DOD     C240504  27.957   5.353  24.212  0.1385 -0.1585  0.2889
32228DOD     C340505  27.702   5.036  24.320  0.0577 -0.0146 -0.1983
32229DOD     C140506   1.574  20.065  19.583 -0.1910  0.0426 -0.2636
32229DOD     C240507   1.865  20.396  19.588  0.0504  0.2587  0.1886
32229DOD     C340508   2.273  20.512  19.553  0.0823  0.1110  0.2749
32230DOD     C140509  29.133  29.696  11.546  0.0736  0.1364  0.0759
32230DOD     C240510  29.246  30.000  11.904 -0.1475  0.0509  0.1116
32230DOD     C340511  29.556  29.996  12.234  0.1605 -0.0517 -0.2044
32231DOD     C140512   5.972   1.740  21.650 -0.1502  0.2601  0.1419
32231DOD     C240513   6.146   1.584  21.240  0.3100 -0.1746 -0.0936
32231DOD     C340514   5.910   1.342  20.894  0.1685  0.0287 -0.0994
32232DOD     C140515  22.791   0.384  20.804 -0.1901 -0.0716  0.1077
32232DOD     C240516  22.825   0.441  20.332 -0.1883 -0.0495 -0.5032
32232DOD     C340517  23.146   0.349  19.961 -0.0032  0.1944  0.0513
32233DOD     C140518  24.731  10.509  18.114  0.0967  0.0599  0.0646
32233DOD     C240519  24.747  10.881  17.797 -0.0591 -0.2019  0.0009
32233DOD     C340520  24.461  11.186  17.599  0.0395 -0.0147  0.3119
32234DOD     C140521   1.849  13.772  10.542 -0.1861  0.0320  0.0263
32234DOD     C240522   1.900  13.307  10.377  0.0406  0.0221  0.1628
32234DOD     C340523   1.651  12.956  10.382 -0.1248 -0.1188  0.0378
32235DOD     C140524   8.527   8.584  23.844 -0.3165 -0.2305  0.0311
32235DOD     C240525   8.872   8.583  24.190  0.0266 -0.0005 -0.0260
32235DOD     C340526   9.185   8.392  24.560  0.3818 -0.2096  0.0377
32236DOD     C140527  22.531  10.825  16.231  0.0472  0.2270 -0.3740
32236DOD     C240528  22.586  10.864  15.775 -0.3974  0.0950 -0.1172
32236DOD     C340529  22.637  10.451  15.554 -0.1321  0.0019  0.1201
32237DOD     C140530   1.502   5.497   1.519 -0.0231  0.1110 -0.1920
32237DOD     C240531   1.777   5.584   1.917 -0.0422  0.1302  0.2743
32237DOD     C340532   2.095   5.446   2.268 -0.0762  0.0058  0.0064
32238DOD     C140533   6.213  20.095   9.459 -0.2720 -0.0184 -0.2435
32238DOD     C240534   6.672  20.037   9.537  0.1019 -0.2817  0.0503
32238DOD     C340535   7.086  19.857   9.493  0.3108  0.1520 -0.0821
32239DOD     C140536  17.732   4.806   2.196  0.1575  0.1502 -0.1539
32239DOD     C240537  18.080   5.011   2.194 -0.0812 -0.2705  0.1830
32239DOD     C340538  18.332   5.389   2.407  0.1102  0.0168 -0.1454
32240DOD     C140539  17.668   1.260  22.460 -0.0625 -0.0885  0.0738
32240DOD     C240540  18.136   1.174  22.405 -0.0730  0.0197 -0.1859
32240DOD     C340541  18.392   1.440  22.108 -0.2739  0.3241 -0.2770
32241DOD     C140542  19.925  13.580  28.953  0.0788  0.1305  0.2434
32241DOD     C240543  20.370  13.548  29.085  0.1539 -0.1820  0.2669
32241DOD     C340544  20.669  13.741  29.350  0.1407  0.2485 -0.2871
32242DOD     C140545  19.728   6.050   9.290 -0.1969 -0.5152  0.1541
32242DOD     C240546  19.444   6.065   9.652 -0.2721  0.1898  0.1898
32242DOD     C340547  19.093   5.850   9.816 -0.0083  0.0389 -0.0762
32243DOD     C140548   2.160  15.279  18.953 -0.1240 -0.2252  0.0867
32243DOD     C240549   2.009  15.339  18.489  0.0534  0.1064 -0.2605
32243DOD     C340550   1.710  15.322  18.113 -0.1251 -0.0401 -0.0768
32244DOD     C140551  20.301  11.521   6.604  0.0435  0.0630  0.0493
32244DOD     C240552  20.741  11.420   6.656 -0.0650  0.0123 -0.1932
32244DOD     C340553  21.068  11.397   6.347  0.3139  0.1535  0.1462
32245DOD     C140554  12.175  25.540  11.238 -0.0616  0.0464 -0.2480
32245DOD     C240555  12.026  25.124  11.434  0.0708 -0.1950 -0.5447
32245DOD     C340556  12.129  24.718  11.539  0.2569  0.0163  0.1830
32246DOD     C140557   7.711   2.769  23.122  0.1798  0.1292 -0.1811
32246DOD     C240558   7.778   2.662  23.606 -0.1571  0.0364 -0.5021
32246DOD     C340559   7.634   2.532  24.029  0.0814 -0.1309 -0.3300
32247DOD     C140560  24.123   6.287   0.681 -0.1190 -0.1200  0.1101
32247DOD     C240561  24.570   6.185   0.717 -0.3373  0.2170 -0.0240
32247DOD     C340562  24.933   6.298   0.985 -0.2065 -0.0462  0.0492
32248DOD     C140563   5.364  20.174  21.573 -0.1732 -0.0129 -0.1226
32248DOD     C240564   5.688  20.130  21.900 -0.1089 -0.0816 -0.0355
32248DOD     C340565   6.129  20.277  22.093  0.2350  0.0352  0.0260
32249DOD     C140566  27.915   0.662  15.376 -0.0263  0.3757  0.3654
32249DOD     C240567  28.285   0.444  15.548  0.1654 -0.0951  0.1614
32249DOD     C340568  28.755   0.440  15.624 -0.1243 -0.2416  0.0012
32250DOD     C140569   3.112  11.628  29.654 -0.0919  0.2902 -0.1808
32250DOD     C240570   3.057  11.969  29.354  0.1844 -0.1460 -0.0354
32250DOD     C340571   3.009  12.235  28.992 -0.0694 -0.1914  0.1202
32251DOD     C140572  23.894   6.896  18.915  0.3071 -0.0591  0.0030
32251DOD     C240573  24.303   6.816  18.835 -0.0350  0.3516  0.0122
32251DOD     C340574  24.628   6.584  18.588 -0.1482 -0.5213 -0.2263
32252DOD     C140575  17.943  26.537  27.972  0.0140 -0.0603  0.2053
32252DOD     C240576  18.384  26.639  27.837 -0.0665 -0.0259  0.2439
32252DOD     C340577  18.715  26.374  27.751  0.4079 -0.0802  0.0470
32253DOD     C140578  10.951  15.809  12.195  0.1181  0.2013  0.1427
32253DOD     C240579  10.718  15.940  11.767 -0.2024 -0.1691 -0.1701
32253DOD     C340580  10.457  15.769  11.413 -0.2785  0.2072  0.0522
32254DOD     C140581  11.884   0.805  15.147  0.0916 -0.1421  0.0197
32254DOD     C240582  11.934   0.864  14.656  0.5394 -0.0975 -0.1619
32254DOD     C340583  11.846   0.630  14.273  0.1132  0.0225 -0.1116
32255DOD     C140584  19.920   7.439   3.106  0.1628 -0.1295  0.0230
32255DOD     C240585  20.237   7.755   3.069 -0.2014 -0.0402  0.2651
32255DOD     C340586  20.445   8.100   3.264 -0.1337 -0.0180 -0.1327
32256DOD     C140587  28.622  17.612   8.190 -0.0515 -0.0179 -0.0327
32256DOD     C240588  28.437  17.357   8.541 -0.0153  0.0399  0.1372
32256DOD     C340589  28.330  17.424   9.044  0.1089  0.0438 -0.1285
32257DOD     C140590  21.048   2.977  29.466 -0.0461 -0.0141  0.2707
32257DOD     C240591  20.897   3.352  29.686 -0.0269 -0.0717  0.0730
32257DOD     C340592  20.781   3.564  30.067 -0.1002  0.1527 -0.0669
32258DOD     C140593  14.046   6.192  21.754  0.1314 -0.0817  0.1433
32258DOD     C240594  13.591   6.102  21.908 -0.0633  0.1439 -0.3053
32258DOD     C340595  13.148   6.137  22.081  0.0034 -0.1662  0.0217
32259DOD     C140596  10.802  15.013   8.307  0.0535  0.2927  0.0664
32259DOD     C240597  11.110  14.916   7.999 -0.0999  0.0042 -0.0638
32259DOD     C340598  11.380  14.882   7.609  0.1493 -0.2141  0.0689
32260DOD     C140599  17.678   5.793  20.889 -0.0758  0.1121  0.0279
32260DOD     C240600  17.336   5.971  20.611  0.0876  0.0695  0.2343
32260DOD     C340601  17.004   5.955  20.234 -0.2052 -0.0399 -0.3478
32261DOD     C140602   5.073  17.483  18.234 -0.1482 -0.0433  0.0311
32261DOD     C240603   4.696  17.706  18.323  0.2106 -0.3230 -0.1948
32261DOD     C340604   4.287  17.728  18.515 -0.1484 -0.2484  0.3793
32262DOD     C140605   1.628  22.979  24.984 -0.1482  0.2369 -0.1616
32262DOD     C240606   1.138  22.825  24.984 -0.0557  0.0865  0.2782
32262DOD     C340607   0.822  22.772  24.619  0.1407  0.3211 -0.0883
32263DOD     C140608  23.541   2.990  23.172  0.2167 -0.1050 -0.1692
32263DOD     C240609  23.451   2.767  22.772  0.1563  0.2489 -0.1246
32263DOD     C340610  23.246   2.930  22.336  0.1172 -0.2941 -0.0985
32264DOD     C140611  21.246  20.657  13.665  0.0576 -0.3769 -0.1103
32264DOD     C240612  21.349  21.134  13.768  0.2543 -0.1039  0.0180
32264DOD     C340613  21.535  21.581  13.704 -0.4554  0.0496  0.1275
32265DOD     C140614  11.759   9.885  13.861 -0.0452 -0.1023  0.1545
32265DOD     C240615  12.209   9.992  13.819  0.2112  0.1780  0.2400
32265DOD     C340616  12.658   9.824  13.719  0.1619 -0.0964 -0.1499
32266DOD     C140617   3.530  16.745  21.576 -0.0404 -0.0265 -0.4080
32266DOD     C240618   3.170  17.059  21.626  0.0554 -0.3063 -0.2287
32266DOD     C340619   2.708  17.207  21.527  0.2584  0.1137  0.0354
32267DOD     C140620  22.864  24.556  27.747 -0.0169  0.1220 -0.0739
32267DOD     C240621  22.492  24.304  27.897 -0.0238  0.0414  0.1937
32267DOD     C340622  22.224  24.012  28.135 -0.1139 -0.0473  0.2459
32268DOD     C140623  23.974   4.831  25.922 -0.0062  0.0727 -0.1140
32268DOD     C240624  23.602   4.594  26.126 -0.0370  0.2222  0.5488
32268DOD     C340625  23.617   4.398  26.508  0.0840  0.2801 -0.0182
32269DOD     C140626   6.551  13.606   1.563  0.1402 -0.1836  0.1417
32269DOD     C240627   6.705  13.480   2.003 -0.1763  0.0261  0.3155
32269DOD     C340628   7.092  13.226   2.105 -0.0619 -0.0201  0.0541
32270DOD     C140629  17.351  13.702   9.649  0.2196  0.1300  0.2937
32270DOD     C240630  17.731  13.474   9.443 -0.2739 -0.2064 -0.0400
32270DOD     C340631  17.850  13.188   9.116  0.0220 -0.1291 -0.0538
32271DOD     C140632  20.691  29.714   6.406  0.1036 -0.0076  0.0182
32271DOD     C240633  20.298  29.915   6.191  0.1966  0.2273  0.1038
32271DOD     C340634  20.431  30.346   5.944 -0.1815  0.0892  0.0531
32272DOD     C140635   1.591   2.838  25.709  0.1668  0.1800 -0.1461
32272DOD     C240636   1.229   2.738  25.419  0.2142 -0.2136  0.2403
32272DOD     C340637   1.086   2.741  24.958  0.2713 -0.0959  0.0252
32273DOD     C140638   7.609  25.245  28.715  0.0007 -0.3084 -0.0412
32273DOD     C240639   7.134  25.267  28.740 -0.1216 -0.2132 -0.0252
32273DOD     C340640   7.020  25.698  28.527  0.3165  0.1457 -0.2553
32274DOD     C140641  20.885  14.792  15.120 -0.1016 -0.0846 -0.1721
32274DOD     C240642  21.044  15.154  15.357  0.1771 -0.2433  0.0851
32274DOD     C340643  21.142  15.608  15.435 -0.0848 -0.2324 -0.0640
32275DOD     C140644  13.438  16.676  23.224  0.0319 -0.1082  0.2098
32275DOD     C240645  13.386  16.370  22.859  0.1823 -0.0710 -0.1547
32275DOD     C340646  13.420  15.969  22.682  0.2666  0.1417  0.0904
32276DOD     C140647  28.743   2.289   2.447  0.0823 -0.3139 -0.2861
32276DOD     C240648  29.145   2.552   2.505 -0.1421 -0.0802 -0.3143
32276DOD     C340649  29.493   2.820   2.366 -0.0437 -0.0654  0.0286
32277DOD     C140650  24.952  16.202  23.883 -0.0395 -0.0011 -0.1248
32277DOD     C240651  24.720  16.098  23.467  0.1255  0.0679  0.3624
32277DOD     C340652  24.404  16.074  23.038  0.0606 -0.2194  0.3017
32278DOD     C140653  11.070  20.943  13.273 -0.0400 -0.2561  0.0198
32278DOD     C240654  11.516  20.886  13.108  0.0985  0.2505  0.3337
32278DOD     C340655  11.968  20.934  12.938  0.0712  0.3331  0.2476
32279DOD     C140656   1.414   5.972  10.352 -0.0852  0.1201 -0.3488
32279DOD     C240657   1.850   5.943  10.089  0.1425  0.1130  0.1401
32279DOD     C340658   2.203   5.891   9.889  0.1466  0.0629  0.0401
32280DOD     C140659  17.647  25.926   2.047 -0.0003 -0.2151 -0.3456
32280DOD     C240660  18.091  26.045   2.215  0.1427  0.2173  0.6233
32280DOD     C340661  18.523  26.156   2.396 -0.1121  0.0287  0.1942
32281DOD     C140662  19.574  22.424   8.539  0.0319 -0.0503  0.1480
32281DOD     C240663  19.327  22.266   8.165 -0.1517 -0.0569 -0.0470
32281DOD     C340664  19.358  21.968   7.808 -0.0609 -0.0282 -0.1239
32282DOD     C140665  18.566   2.693  20.900 -0.2266 -0.1990 -0.2590
32282DOD     C240666  18.111   2.592  20.799  0.2404 -0.1698 -0.0599
32282DOD     C340667  17.761   2.362  20.829 -0.0177 -0.2503 -0.1135
32283DOD     C140668  18.554   3.723   5.091  0.1655 -0.0435  0.2274
32283DOD     C240669  18.760   3.294   4.933 -0.0767 -0.0159  0.0941
32283DOD     C340670  18.704   2.860   5.039 -0.0374  0.0272 -0.2975
32284DOD     C140671  20.707  16.546  28.543 -0.2616 -0.1332  0.2626
32284DOD     C240672  20.301  16.369  28.522 -0.0804  0.2727  0.1388
32284DOD     C340673  20.041  16.537  28.172 -0.0597  0.0106  0.0859
32285DOD     C140674   1.689   7.374  18.546 -0.3738  0.4727  0.1670
32285DOD     C240675   1.279   7.459  18.840 -0.1011  0.0604 -0.3204
32285DOD     C340676   0.952   7.511  19.157 -0.1687 -0.2745 -0.1532
32286DOD     C140677   0.334  15.939  21.011  0.0380 -0.2046  0.3744
32286DOD     C240678   0.731  15.737  20.979 -0.2104  0.2614 -0.4256
32286DOD     C340679   1.134  15.689  20.813 -0.0658 -0.1358 -0.2950
32287DOD     C140680   2.775   8.528   3.002 -0.2134 -0.2762 -0.0791
32287DOD     C240681   2.579   8.122   3.112  0.2764 -0.1788 -0.2007
32287DOD     C340682   2.250   7.849   3.243 -0.4951 -0.0321  0.1552
32288DOD     C140683   9.715  14.295  16.816 -0.1583  0.1134 -0.3654
32288DOD     C240684   9.708  14.718  16.663  0.2435 -0.2149 -0.0798
32288DOD     C340685   9.627  15.101  16.453  0.1425 -0.2777 -0.1718
32289DOD     C140686   8.142  12.156  27.405 -0.0889 -0.0597 -0.2957
32289DOD     C240687   8.369  12.011  27.048  0.0935 -0.0721 -0.0409
32289DOD     C340688   8.641  11.809  26.712 -0.2798  0.0716  0.1357
32290DOD     C140689   9.975  28.485   9.605 -0.1921  0.1156  0.0193
32290DOD     C240690   9.939  28.529   9.130 -0.0235 -0.2533  0.0488
32290DOD     C340691   9.793  28.396   8.706 -0.0933  0.0041 -0.0475
32291DOD     C140692  21.833   0.657  15.849  0.1366  0.0643 -0.4425
32291DOD     C240693  21.868   0.713  16.258 -0.0255  0.4805 -0.0051
32291DOD     C340694  21.845   0.420  16.630 -0.2733 -0.0857 -0.0165
32292DOD     C140695  13.806  12.722   3.567  0.0048 -0.1728  0.0737
32292DOD     C240696  13.545  12.465   3.223 -0.3105  0.0453  0.0406
32292DOD     C340697  13.151  12.317   3.000  0.2304  0.0500  0.2000
32293DOD     C140698  23.473  15.340  20.713 -0.0178 -0.0163 -0.3143
32293DOD     C240699  23.880  15.237  20.517 -0.0749  0.1012 -0.0188
32293DOD     C340700  23.981  14.965  20.161 -0.3548 -0.2416 -0.3604
32294DOD     C140701  -0.009  15.678  25.509 -0.1228 -0.2220  0.1969
32294DOD     C240702  30.243  15.312  25.254 -0.0372  0.2180 -0.1511
32294DOD     C340703  30.091  14.894  25.225  0.2458  0.0430  0.3777
32295DOD     C140704  29.595   4.297  11.871  0.0870 -0.0423  0.3197
32295DOD     C240705  29.937   3.987  11.814 -0.0873 -0.5082 -0.2254
32295DOD     C340706  30.247   3.687  11.807 -0.3569 -0.1216 -0.1347
32296DOD     C140707   8.149   9.910  19.840  0.0636  0.4159 -0.1981
32296DOD     C240708   7.766  10.132  19.737 -0.1801  0.0409  0.3839
32296DOD     C340709   7.387  10.302  19.697  0.2794 -0.2179 -0.0180
32297DOD     C140710   4.570  13.284  15.627 -0.0107 -0.1201 -0.0390
32297DOD     C240711   4.788  12.948  15.830  0.0185  0.1258  0.0441
32297DOD     C340712   4.606  12.757  16.244  0.1347 -0.3341 -0.2882
32298DOD     C140713  24.077   8.728  20.887  0.1845  0.2729  0.0565
32298DOD     C240714  24.216   9.017  20.548  0.0837  0.0892  0.1964
32298DOD     C340715  24.482   9.246  20.227  0.1822  0.2485 -0.1314
32299DOD     C140716  26.061  10.373  20.172 -0.1336 -0.1768  0.4773
32299DOD     C240717  25.687  10.106  20.063 -0.2065  0.1991  0.1566
32299DOD     C340718  25.368  10.161  19.828  0.1594 -0.0631 -0.2182
32300DOD     C140719  24.881  20.874  20.384  0.0687  0.0336 -0.0650
32300DOD     C240720  24.453  20.911  20.262 -0.1450  0.0174  0.0364
32300DOD     C340721  24.044  20.696  20.294 -0.1381  0.0188  0.2516
32301DOD     C140722   8.357   1.892  29.228  0.0814  0.1384 -0.1596
32301DOD     C240723   8.684   1.680  29.485 -0.0616 -0.1270 -0.0882
32301DOD     C340724   8.732   1.514  29.948  0.2778  0.1513 -0.1916
32302DOD     C140725   0.923  28.298  20.975  0.2558 -0.0445 -0.1436
32302DOD     C240726   1.149  27.902  20.941 -0.2053  0.0103  0.0508
32302DOD     C340727   1.517  27.647  20.873 -0.0549  0.1201 -0.1096
32303DOD     C140728  13.719  17.911  14.368 -0.1794  0.1826 -0.0012
32303DOD     C240729  13.644  17.713  14.741  0.2624  0.0907 -0.0195
32303DOD     C340730  13.649  17.268  14.919 -0.4652  0.1338 -0.1235
32304DOD     C140731   7.930  13.125  29.394 -0.3539 -0.2355 -0.0274
32304DOD     C240732   7.764  12.697  29.568  0.0283  0.0721  0.0506
32304DOD     C340733   7.498  12.302  29.707  0.2054 -0.0052  0.0538
32305DOD     C140734  16.551  27.411  14.984  0.1714 -0.1946  0.0238
32305DOD     C240735  16.950  27.322  15.199 -0.0605 -0.0391 -0.2449
32305DOD     C340736  17.404  27.260  15.121  0.0133  0.1572  0.0656
32306DOD     C140737   9.894  20.059  13.249  0.3171  0.2555  0.0161
32306DOD     C240738   9.853  19.929  13.668  0.1674 -0.2557 -0.0157
32306DOD     C340739   9.626  19.683  13.933  0.2398  0.0712  0.1327
32307DOD     C140740  19.342  20.405   3.334  0.3112  0.0008 -0.5408
32307DOD     C240741  19.829  20.328   3.410  0.1982 -0.3041 -0.2096
32307DOD     C340742  20.210  20.509   3.632 -0.2089  0.0578  0.1478
32308DOD     C140743  26.663  22.027   7.386  0.0418 -0.2503 -0.1705
32308DOD     C240744  26.518  22.268   7.750  0.1521  0.2738  0.3035
32308DOD     C340745  26.251  22.567   8.024  0.0051  0.0630  0.0048
32309DOD     C140746  28.138  27.245   1.195 -0.1612 -0.1026 -0.2010
32309DOD     C240747  27.822  27.035   0.939  0.1903  0.1462 -0.0404
32309DOD     C340748  27.618  26.656   0.964  0.0841  0.0979  0.0359
32310DOD     C140749  20.704  13.685  24.436  0.2291 -0.3303  0.1457
32310DOD     C240750  20.535  14.008  24.155  0.0446 -0.0636  0.0579
32310DOD     C340751  20.172  14.045  23.915 -0.0758 -0.1114 -0.0750
32311DOD     C140752  24.834  22.253   5.998 -0.2381 -0.1721  0.0572
32311DOD     C240753  24.966  22.336   5.566 -0.0953  0.0121  0.1380
32311DOD     C340754  24.996  22.318   5.090  0.3477  0.0790  0.3350
32312DOD     C140755   0.646  17.967  17.783 -0.1552 -0.2297  0.1174
32312DOD     C240756   0.858  18.029  17.386 -0.1848 -0.3692  0.1614
32312DOD     C340757   1.074  18.193  17.022 -0.0151 -0.2308 -0.1665
32313DOD     C140758   6.108   6.951  23.263  0.0020 -0.3888 -0.0560
32313DOD     C240759   6.479   6.752  23.069 -0.1656  0.2433  0.2002
32313DOD     C340760   6.698   6.641  22.686 -0.0907  0.3335  0.5641
32314DOD     C140761  24.304  15.165  19.572 -0.0376  0.0830  0.4843
32314DOD     C240762  24.232  15.395  19.947  0.2419 -0.1566  0.1331
32314DOD     C340763  24.120  15.609  20.383  0.1250  0.0172 -0.1120
32315DOD     C140764  22.542  26.804   4.466  0.0404 -0.3411 -0.0185
32315DOD     C240765  22.328  26.465   4.618 -0.0571 -0.2845 -0.0180
32315DOD     C340766  21.965  26.215   4.706 -0.0265 -0.2174  0.1765
32316DOD     C140767  14.707   9.717  18.107 -0.1246  0.1626  0.1391
32316DOD     C240768  14.666   9.850  17.679  0.4277  0.0552  0.1571
32316DOD     C340769  14.685  10.272  17.424 -0.1728  0.4270  0.0715
32317DOD     C140770  24.098   1.068   8.293 -0.1344  0.0913 -0.2434
32317DOD     C240771  24.467   0.809   8.148  0.3459  0.1892 -0.2105
32317DOD     C340772  24.882   0.633   7.970 -0.2155  0.0731 -0.0174
32318DOD     C140773  29.006   2.223  30.103  0.0520  0.0496  0.0972
32318DOD     C240774  28.820   2.312   0.231  0.1964  0.3081  0.2374
32318DOD     C340775  28.684   2.733   0.469  0.0432  0.2068  0.0993
32319DOD     C140776   1.045  12.200  25.776  0.0448  0.2091  0.3474
32319DOD     C240777   1.222  12.416  25.385 -0.0763 -0.1232 -0.0554
32319DOD     C340778   1.397  12.853  25.320 -0.0221  0.4450  0.0090
32320DOD     C140779  21.583  28.242  29.722  0.1015  0.1839  0.2310
32320DOD     C240780  21.602  28.729  29.665  0.1075 -0.2704  0.0581
32320DOD     C340781  21.322  29.133  29.762  0.2885  0.2262 -0.2157
32321DOD     C140782  10.651  11.775  16.875  0.1930 -0.0484  0.1562
32321DOD     C240783  10.725  11.594  17.314 -0.1646  0.1653  0.3020
32321DOD     C340784  10.917  11.415  17.680 -0.2571 -0.1888 -0.1250
32322DOD     C140785  14.640  24.053  24.925  0.0406  0.0311 -0.0178
32322DOD     C240786  14.601  23.597  24.814 -0.0055  0.1841 -0.0288
32322DOD     C340787  14.518  23.273  24.491  0.1043  0.0921 -0.0686
32323DOD     C140788  16.661  10.875  29.590 -0.1655 -0.1582  0.1014
32323DOD     C240789  16.504  10.398  29.694  0.1931  0.1279 -0.0282
32323DOD     C340790  16.517  10.211  30.153 -0.0798  0.0282 -0.0823
32324DOD     C140791  16.467   5.860  27.438  0.2132  0.0903  0.4050
32324DOD     C240792  16.467   5.987  27.861 -0.0122  0.2246 -0.1675
32324DOD     C340793  16.751   5.921  28.230 -0.2802  0.3105 -0.0711
32325DOD     C140794  20.112  26.430   5.152  0.3986 -0.0399 -0.2756
32325DOD     C240795  20.171  26.515   5.605  0.0811 -0.1285  0.1834
32325DOD     C340796  20.515  26.602   5.977  0.0802  0.2015  0.1762
32326DOD     C140797  11.731  10.525   8.469 -0.0681  0.0075 -0.3326
32326DOD     C240798  11.442  10.420   8.115  0.1441 -0.2993 -0.2532
32326DOD     C340799  11.274  10.334   7.731  0.1722 -0.0951  0.0063
32327DOD     C140800   8.284  22.740   4.008 -0.1212  0.1071 -0.1677
32327DOD     C240801   8.263  23.145   3.838  0.2430  0.3553 -0.2028
32327DOD     C340802   8.239  23.509   3.555  0.0376 -0.1698 -0.3405
32328DOD     C140803   1.871  24.675   9.762  0.3779 -0.0901 -0.0462
32328DOD     C240804   1.937  25.042   9.385 -0.2073 -0.0421  0.0329
32328DOD     C340805   1.761  25.240   8.992  0.0559 -0.0370 -0.1591
32329DOD     C140806   5.007  16.449  22.957  0.1250  0.3267 -0.0265
32329DOD     C240807   5.081  16.783  22.588 -0.1356  0.2098  0.1611
32329DOD     C340808   5.320  16.872  22.179 -0.0171 -0.1750 -0.2417
32330DOD     C140809  29.355  23.743  14.241  0.1921  0.0382 -0.2805
32330DOD     C240810  29.069  23.503  14.537 -0.2226 -0.1396 -0.0856
32330DOD     C340811  28.638  23.375  14.515  0.1058 -0.0504  0.1458
32331DOD     C140812  30.007   3.400  11.495 -0.0499  0.1504  0.2645
32331DOD     C240813  29.762   3.556  11.825 -0.0095  0.1338  0.1046
32331DOD     C340814  29.361   3.440  11.952  0.0480 -0.2448 -0.0137
32332DOD     C140815  28.934  26.883  24.238 -0.3542  0.0447  0.1282
32332DOD     C240816  28.822  27.234  24.487  0.3088 -0.2864 -0.0782
32332DOD     C340817  28.864  27.436  24.982  0.1004 -0.2273  0.2421
32333DOD     C140818  28.670  14.644  18.284 -0.0213  0.0648  0.2279
32333DOD     C240819  28.873  14.661  17.847 -0.2054  0.1070 -0.3449
32333DOD     C340820  28.938  14.768  17.392  0.1314  0.2233  0.0648
32334DOD     C140821  22.313  13.702   4.189  0.1498  0.2794  0.1147
32334DOD     C240822  22.043  13.355   4.427  0.1695  0.2276  0.1670
32334DOD     C340823  21.676  13.051   4.641 -0.0928  0.1789 -0.0305
32335DOD     C140824   6.194  25.737  10.892  0.1118 -0.3242 -0.0994
32335DOD     C240825   6.405  25.362  11.120 -0.2516  0.1471  0.0430
32335DOD     C340826   6.463  25.434  11.630  0.0200  0.0224 -0.2191
32336DOD     C140827  11.697  30.195  29.506  0.1429  0.1100  0.1336
32336DOD     C240828  11.439   0.201  29.241 -0.0472  0.1653  0.1611
32336DOD     C340829  11.113   0.496  29.005 -0.1442 -0.0229 -0.0239
32337DOD     C140830   0.619   9.066  11.745  0.0496  0.0436  0.1853
32337DOD     C240831   0.543   8.801  12.125 -0.0448  0.0422  0.0244
32337DOD     C340832   0.347   8.408  12.173  0.0101  0.0063 -0.4837
32338DOD     C140833  10.976  11.048   6.047 -0.1577  0.0744  0.2561
32338DOD     C240834  10.725  11.289   5.737 -0.1710  0.2740 -0.0818
32338DOD     C340835  10.421  11.412   5.379 -0.3579  0.0252 -0.4490
32339DOD     C140836  11.353  20.361   9.476 -0.1475 -0.0085  0.3973
32339DOD     C240837  11.216  20.698   9.666  0.0014  0.2527  0.2563
32339DOD     C340838  11.069  20.989  10.003 -0.2769 -0.2444 -0.1067
32340DOD     C140839   1.585  27.536  30.236  0.0258 -0.0278 -0.3694
32340DOD     C240840   1.228  27.516   0.177  0.1589 -0.0211 -0.1097
32340DOD     C340841   0.999  27.572   0.581  0.3456  0.4318 -0.0072
32341DOD     C140842   6.887   0.843   1.585  0.1309  0.1414 -0.0331
32341DOD     C240843   6.911   1.310   1.625 -0.0308 -0.1323  0.1350
32341DOD     C340844   7.006   1.749   1.816 -0.0939  0.0283 -0.0663
32342DOD     C140845   3.834  12.623   2.552  0.0643  0.2556  0.0145
32342DOD     C240846   3.921  12.176   2.687  0.2414 -0.0599 -0.6157
32342DOD     C340847   3.635  11.835   2.460 -0.1650  0.3157 -0.0945
32343DOD     C140848  16.811   6.626  15.531 -0.1206  0.0271  0.0249
32343DOD     C240849  17.211   6.547  15.320  0.1227  0.1272  0.3963
32343DOD     C340850  17.470   6.562  14.936 -0.2626  0.1385  0.0219
32344DOD     C140851  10.744   8.350   2.061  0.1799  0.1272  0.1342
32344DOD     C240852  10.794   8.025   1.792 -0.0986 -0.0424  0.0967
32344DOD     C340853  10.784   7.513   1.774  0.0358  0.2906  0.1107
32345DOD     C140854  10.519  15.181  23.767  0.2729  0.1579 -0.0902
32345DOD     C240855  10.684  15.583  23.553  0.0663  0.0860  0.0282
32345DOD     C340856  10.570  16.002  23.418 -0.3070  0.1660  0.2296
32346DOD     C140857  15.421  15.244  19.345  0.2511  0.2018  0.1701
32346DOD     C240858  15.661  14.841  19.290 -0.0673 -0.0241 -0.1521
32346DOD     C340859  16.072  14.668  19.489 -0.1335  0.0972 -0.0501
32347DOD     C140860  17.290   6.510   9.309  0.3450  0.2352  0.0055
32347DOD     C240861  17.278   6.078   9.387  0.0413  0.3080  0.2004
32347DOD     C340862  17.153   5.591   9.281 -0.1091  0.3335  0.0921
32348DOD     C140863   6.224  29.282  10.942  0.3501 -0.0475 -0.3127
32348DOD     C240864   6.301  29.075  10.480  0.2089 -0.0094 -0.3379
32348DOD     C340865   6.506  28.771  10.185 -0.1642  0.0185  0.1900
32349DOD     C140866  16.511   8.788  15.861  0.0385  0.2669 -0.2691
32349DOD     C240867  16.352   8.405  16.057 -0.0744 -0.0103 -0.0405
32349DOD     C340868  16.084   8.057  16.115 -0.0619 -0.0394  0.0873
32350DOD     C140869  19.674   2.914  23.233  0.0355  0.0185  0.0450
32350DOD     C240870  19.394   2.838  22.865  0.0848  0.0589  0.0417
32350DOD     C340871  19.195   2.532  22.561 -0.2756 -0.0989  0.0584
32351DOD     C140872  17.040  25.304  24.580  0.2920  0.0870 -0.1814
32351DOD     C240873  17.104  25.600  24.257 -0.2081 -0.0814  0.1229
32351DOD     C340874  17.355  26.001  24.346  0.0365  0.1846  0.0301
32352DOD     C140875  28.570  16.249  16.309 -0.1724 -0.0509  0.0687
32352DOD     C240876  28.573  16.246  16.773 -0.1964 -0.0013 -0.0627
32352DOD     C340877  28.222  16.362  17.097  0.1486  0.0138 -0.1621
32353DOD     C140878  15.389   5.130  22.456 -0.1357 -0.0356  0.0564
32353DOD     C240879  14.974   4.978  22.629 -0.3062  0.0362 -0.2144
32353DOD     C340880  14.540   4.853  22.814  0.0054 -0.4371  0.2373
32354DOD     C140881  19.022   1.464   4.631 -0.2002  0.2908 -0.0233
32354DOD     C240882  18.943   1.762   4.301  0.2417 -0.0624 -0.1485
32354DOD     C340883  18.900   2.210   4.231 -0.1520 -0.0283 -0.0675
32355DOD     C140884  24.650  17.082   7.943 -0.2595  0.3850  0.0577
32355DOD     C240885  24.748  17.137   7.500  0.1333 -0.1064  0.1371
32355DOD     C340886  24.976  16.994   7.137  0.2877 -0.0532 -0.0157
32356DOD     C140887   8.172   3.217  16.610  0.0223 -0.1008 -0.0193
32356DOD     C240888   8.065   3.416  16.201  0.1889  0.1538 -0.0551
32356DOD     C340889   7.698   3.447  15.876 -0.1891  0.0405  0.2444
32357DOD     C140890  11.841  19.941   8.340 -0.1268  0.0498 -0.2406
32357DOD     C240891  11.503  19.970   8.058 -0.1247 -0.1653  0.0886
32357DOD     C340892  11.497  19.782   7.642  0.2499  0.1729 -0.0020
32358DOD     C140893  24.907   8.270  14.018  0.2108  0.0513 -0.1168
32358DOD     C240894  25.341   8.214  13.894 -0.1591 -0.0673 -0.1814
32358DOD     C340895  25.574   8.318  13.477  0.0710  0.1423 -0.1971
32359DOD     C140896  23.595  13.978   8.419 -0.0413  0.2959 -0.0482
32359DOD     C240897  23.193  14.055   8.313  0.2943  0.0652 -0.0670
32359DOD     C340898  22.718  14.040   8.351  0.1345  0.1710  0.0734
32360DOD     C140899   7.887  26.215   7.241  0.3977  0.0452  0.1244
32360DOD     C240900   7.907  26.413   7.610  0.0160  0.0014  0.2225
32360DOD     C340901   7.802  26.839   7.800 -0.1410 -0.2517  0.1489
32361DOD     C140902  11.082  18.923  14.436 -0.5688 -0.1280  0.2237
32361DOD     C240903  11.031  18.787  14.875  0.1448 -0.1646 -0.1642
32361DOD     C340904  11.077  18.889  15.302 -0.0072  0.0483  0.3626
32362DOD     C140905  19.791   4.337  18.562 -0.4305  0.2068  0.5575
32362DOD     C240906  19.495   4.178  18.911 -0.2714  0.3657  0.0242
32362DOD     C340907  19.562   4.014  19.336 -0.1687 -0.1016  0.3432
32363DOD     C140908  25.102  16.075   1.611 -0.1896 -0.1779 -0.0991
32363DOD     C240909  25.163  15.869   1.224  0.1949 -0.1395 -0.1409
32363DOD     C340910  25.387  15.511   1.011  0.0312  0.0228 -0.2532
32364DOD     C140911  11.733   3.425  12.773  0.1187 -0.1308 -0.0471
32364DOD     C240912  12.107   3.628  12.644  0.0428 -0.1004  0.0772
32364DOD     C340913  12.075   4.131  12.793  0.1844  0.0300 -0.0558
32365DOD     C140914   8.292  15.464  29.307 -0.1772  0.1328 -0.1982
32365DOD     C240915   8.733  15.562  29.388 -0.0157  0.1451 -0.1553
32365DOD     C340916   9.233  15.604  29.596  0.0427  0.1811  0.1170
32366DOD     C140917   0.633   6.539  20.901  0.0273 -0.4507 -0.3920
32366DOD     C240918   0.699   7.040  20.895  0.0824  0.0076 -0.1362
32366DOD     C340919   0.840   7.453  21.003 -0.0874  0.2667  0.0384
32367DOD     C140920   1.281  11.879   5.056  0.2467 -0.1438 -0.2487
32367DOD     C240921   1.147  11.928   4.604  0.0088  0.0743 -0.4139
32367DOD     C340922   0.817  11.630   4.453  0.1504 -0.1371  0.1581
32368DOD     C140923   0.406  26.963  17.423  0.0483  0.0696  0.3724
32368DOD     C240924   0.106  27.122  17.089  0.2089 -0.1104 -0.0234
32368DOD     C340925  30.110  27.329  16.807 -0.1826  0.3997  0.0873
32369DOD     C140926  16.722  16.946  18.532 -0.1655 -0.2400 -0.3100
32369DOD     C240927  17.072  16.698  18.291 -0.1302  0.2953 -0.2291
32369DOD     C340928  17.440  16.951  18.128  0.5902  0.0135 -0.0305
32370DOD     C140929  15.532   3.388  23.805  0.1815 -0.0154  0.1184
32370DOD     C240930  15.731   3.015  23.657 -0.1332  0.0722 -0.2209
32370DOD     C340931  15.603   2.691  23.281  0.4862  0.0515 -0.2223
32371DOD     C140932  10.815  12.074  26.390 -0.2679  0.0517 -0.1140
32371DOD     C240933  10.397  11.991  26.620 -0.1726 -0.0462  0.0141
32371DOD     C340934  10.105  11.648  26.545  0.0259  0.1335  0.0522
32372DOD     C140935   3.798   4.343   1.090  0.1485  0.1818  0.0527
32372DOD     C240936   3.812   4.700   0.798 -0.1622 -0.0207  0.0433
32372DOD     C340937   3.666   5.130   0.819  0.3334  0.0199 -0.0650
32373DOD     C140938  19.013  10.187  12.192  0.0078 -0.1936  0.1385
32373DOD     C240939  19.114   9.845  12.569  0.0325  0.1996 -0.2145
32373DOD     C340940  19.421   9.655  12.789 -0.0186 -0.0425 -0.1726
32374DOD     C140941   6.223   0.954  10.603 -0.3337  0.0753  0.1249
32374DOD     C240942   6.541   1.140  10.869  0.3470  0.1620 -0.1069
32374DOD     C340943   6.989   1.096  10.879 -0.0032  0.1687 -0.0340
32375DOD     C140944   4.707   1.939   9.002  0.2398 -0.0768 -0.1310
32375DOD     C240945   4.542   1.810   9.441  0.1239 -0.0761  0.0789
32375DOD     C340946   4.704   1.472   9.668  0.1060 -0.1257  0.2536
32376DOD     C140947  27.661  27.594  25.880 -0.1697  0.0401  0.2128
32376DOD     C240948  27.918  27.215  25.620 -0.2822  0.1019 -0.2447
32376DOD     C340949  28.146  27.116  25.209  0.0085  0.1834  0.0475
32377DOD     C140950  12.618  10.466  29.334 -0.1459 -0.0489  0.1309
32377DOD     C240951  12.910  10.412  28.921  0.1255  0.2574  0.0432
32377DOD     C340952  13.152  10.660  28.668  0.0834 -0.0916  0.1284
32378DOD     C140953   2.957  23.219  26.224  0.1555  0.1148 -0.0274
32378DOD     C240954   3.377  23.452  26.150  0.0516 -0.0020  0.2233
32378DOD     C340955   3.770  23.206  26.033  0.2007 -0.0770 -0.0306
32379DOD     C140956  23.920  21.592   7.313 -0.1052  0.1606 -0.2044
32379DOD     C240957  24.151  21.903   7.642  0.0207 -0.0535  0.0732
32379DOD     C340958  24.314  22.002   8.080 -0.0196  0.2266 -0.0638
32380DOD     C140959   2.094  29.321  29.731  0.1233  0.2707 -0.0411
32380DOD     C240960   1.798  28.926  29.752 -0.0057 -0.1742 -0.1201
32380DOD     C340961   1.529  28.620  29.911  0.1375  0.0334 -0.0575
32381DOD     C140962   8.307  27.185  26.157 -0.1600 -0.0677  0.0530
32381DOD     C240963   8.056  26.808  26.118 -0.2624  0.0568 -0.0909
32381DOD     C340964   7.793  26.601  26.468 -0.1368  0.1350  0.5258
32382DOD     C140965  24.649   4.115   2.380 -0.1250  0.1349  0.1491
32382DOD     C240966  25.067   4.118   2.573  0.0464  0.0975 -0.3086
32382DOD     C340967  25.403   4.143   2.848 -0.3487 -0.0092 -0.1406
32383DOD     C140968  19.491  20.837  20.116  0.0407 -0.0535 -0.2460
32383DOD     C240969  19.106  21.039  20.431 -0.4042 -0.0288  0.3224
32383DOD     C340970  18.867  21.287  20.726 -0.1241 -0.3212  0.1074
32384DOD     C140971  21.632  26.408  24.023 -0.1002  0.2194  0.2633
32384DOD     C240972  22.075  26.219  23.973  0.0910 -0.3097 -0.2560
32384DOD     C340973  22.491  25.979  24.038 -0.0664 -0.0972 -0.0460
32385DOD     C140974   9.904  22.804  28.399  0.1033  0.2430 -0.2354
32385DOD     C240975   9.525  22.717  28.104  0.0056 -0.0313  0.0122
32385DOD     C340976   9.275  22.943  27.835 -0.1293  0.2078  0.1179
32386DOD     C140977  21.702   1.895  23.537 -0.3265 -0.0885 -0.4247
32386DOD     C240978  21.910   1.538  23.346  0.0518  0.1268  0.2499
32386DOD     C340979  21.981   1.286  22.970  0.1853  0.0283 -0.0756
32387DOD     C140980  25.920  27.420  19.434 -0.2870 -0.0677  0.0898
32387DOD     C240981  26.230  27.370  19.080  0.0341  0.2938 -0.0914
32387DOD     C340982  26.600  27.183  18.830  0.3284 -0.4436 -0.0042
32388DOD     C140983  14.315   4.499  12.940 -0.1871  0.0808  0.5845
32388DOD     C240984  13.912   4.690  12.944  0.0414 -0.0475  0.4399
32388DOD     C340985  13.531   4.592  13.201 -0.1759 -0.4422  0.0686
32389DOD     C140986  26.126  20.347   7.266 -0.0157  0.1694  0.0479
32389DOD     C240987  26.340  20.331   7.723  0.1095 -0.0790 -0.1923
32389DOD     C340988  26.720  20.243   7.960 -0.0553  0.1561 -0.0649
32390DOD     C140989  14.837  22.994   1.162 -0.0958 -0.1011  0.0598
32390DOD     C240990  14.692  22.758   0.797 -0.0932 -0.1476  0.0839
32390DOD     C340991  14.785  22.638   0.299 -0.0094 -0.1157 -0.0814
32391DOD     C140992  17.172  19.578  16.823  0.0030 -0.2577 -0.1216
32391DOD     C240993  17.191  19.954  16.614 -0.0843  0.1730  0.1490
32391DOD     C340994  16.863  20.194  16.393  0.0319 -0.3167 -0.0595
32392DOD     C140995  22.559  20.326  18.671  0.3419  0.2798  0.1402
32392DOD     C240996  22.351  19.904  18.530  0.2079  0.0195 -0.0376
32392DOD     C340997  21.948  19.656  18.504 -0.1695 -0.2791 -0.1738
32393DOD     C140998  20.770   8.041  23.570  0.1205  0.0070  0.2385
32393DOD     C240999  20.443   8.222  23.810 -0.1005 -0.2537  0.1546
32393DOD     C341000  20.251   8.045  24.168  0.2219 -0.2208 -0.2368
32394DOD     C141001  20.958   9.388  18.437  0.3097  0.0190  0.0881
32394DOD     C241002  21.313   9.299  18.710  0.0374  0.3617 -0.0086
32394DOD     C341003  21.767   9.285  18.847  0.2036 -0.2316 -0.0049
32395DOD     C141004  14.820  25.170  28.911 -0.2752  0.0561  0.1760
32395DOD     C241005  14.474  25.341  28.659 -0.1366  0.1398  0.1748
32395DOD     C341006  14.234  25.660  28.476 -0.1181  0.1679 -0.0975
32396DOD     C141007  15.945  23.798  24.216 -0.0618 -0.1113  0.2330
32396DOD     C241008  16.209  23.690  23.832  0.1949 -0.0589  0.2813
32396DOD     C341009  16.249  23.761  23.363  0.2570 -0.1013  0.0253
32397DOD     C141010   0.050  24.249   9.107  0.1259 -0.1945 -0.0264
32397DOD     C241011  30.131  24.471   9.366 -0.1754 -0.1962 -0.4718
32397DOD     C341012  29.738  24.569   9.496 -0.0498 -0.1784  0.1353
32398DOD     C141013   1.875  26.356   8.239 -0.1214  0.2313 -0.0812
32398DOD     C241014   2.355  26.435   8.136 -0.1169  0.1984 -0.0919
32398DOD     C341015   2.722  26.624   7.907 -0.1137 -0.0244  0.0446
32399DOD     C141016  23.529   6.824  16.641  0.3177 -0.1936 -0.5014
32399DOD     C241017  23.871   6.551  16.659 -0.0780  0.0099 -0.0233
32399DOD     C341018  24.246   6.444  16.845  0.1618 -0.0077 -0.0507
32400DOD     C141019  25.488   1.965   6.270 -0.0992  0.2121  0.0930
32400DOD     C241020  25.630   2.010   5.900 -0.1463 -0.0579  0.1378
32400DOD     C341021  25.990   1.955   5.553 -0.1796 -0.0712  0.1404
32401DOD     C141022  20.456  11.281   0.543  0.1994  0.1257 -0.1654
32401DOD     C241023  20.483  10.830   0.445 -0.1227 -0.2020  0.1514
32401DOD     C341024  20.431  10.471   0.145 -0.1505  0.0924 -0.1813
32402DOD     C141025  15.572  15.987  17.979  0.3007  0.2512  0.1086
32402DOD     C241026  15.652  15.544  18.055  0.1905 -0.1196  0.2375
32402DOD     C341027  15.545  15.213  17.746 -0.1784 -0.3653 -0.1529
32403DOD     C141028  17.444  18.319  27.716  0.5059 -0.2421 -0.1194
32403DOD     C241029  17.316  17.852  27.724  0.1077  0.2800 -0.0742
32403DOD     C341030  16.843  17.648  27.546  0.2992 -0.0405 -0.1672
32404DOD     C141031  27.011  24.605  16.175  0.0431 -0.1211  0.0306
32404DOD     C241032  26.872  25.017  16.362  0.2261 -0.1383  0.0171
32404DOD     C341033  26.782  25.514  16.298  0.3989 -0.1841  0.1009
32405DOD     C141034   4.641  22.934   1.764  0.0253  0.1720 -0.1608
32405DOD     C241035   4.589  23.337   1.940 -0.0134  0.0404 -0.2267
32405DOD     C341036   4.510  23.738   1.672 -0.1638 -0.3556 -0.0266
32406DOD     C141037  20.268   1.033  23.085 -0.2304  0.0729  0.1811
32406DOD     C241038  19.994   0.795  23.344  0.2607  0.1146 -0.2134
32406DOD     C341039  19.541   0.723  23.335  0.0008  0.1736  0.1953
32407DOD     C141040  18.442  20.350   3.507 -0.2262  0.0041 -0.3145
32407DOD     C241041  18.258  20.552   3.151  0.2160 -0.0342 -0.0997
32407DOD     C341042  18.352  20.937   2.814  0.2968 -0.2313 -0.2640
32408DOD     C141043  11.849  29.271  17.128 -0.0259 -0.1461  0.1117
32408DOD     C241044  12.058  29.206  16.734 -0.0623  0.1583 -0.4298
32408DOD     C341045  12.481  29.430  16.632  0.2415  0.1763  0.1806
32409DOD     C141046   9.654  17.543   0.773 -0.0406 -0.0737 -0.3272
32409DOD     C241047   9.782  17.486   1.240 -0.3771 -0.0536  0.0333
32409DOD     C341048  10.101  17.542   1.603 -0.0330 -0.0505 -0.0166
32410DOD     C141049   7.999  24.830  13.033  0.3282  0.0571 -0.1747
32410DOD     C241050   8.063  24.433  12.857 -0.0484  0.3232  0.0630
32410DOD     C341051   7.931  24.339  12.432 -0.1469 -0.1206 -0.0735
32411DOD     C141052   1.398   1.721  22.287 -0.0004  0.1209 -0.0268
32411DOD     C241053   1.259   2.088  22.531  0.2552  0.2804 -0.0277
32411DOD     C341054   1.161   2.560  22.660  0.0379  0.3294 -0.1789
32412DOD     C141055  13.828  16.569   6.414 -0.2035  0.2327 -0.1244
32412DOD     C241056  14.041  16.541   6.053  0.3249  0.4807  0.3398
32412DOD     C341057  14.328  16.783   5.863 -0.2236 -0.0769 -0.0761
32413DOD     C141058  29.963  24.841  21.255  0.0167  0.2626 -0.0916
32413DOD     C241059  29.804  25.239  21.440 -0.0305 -0.1386  0.3405
32413DOD     C341060  29.926  25.696  21.433  0.1692  0.2281 -0.0179
32414DOD     C141061  15.394  12.905  14.892  0.1372  0.0818  0.2907
32414DOD     C241062  14.996  13.152  14.717 -0.3002  0.0272  0.3112
32414DOD     C341063  14.978  13.555  14.410  0.0455 -0.2128 -0.1748
32415DOD     C141064   1.992  20.686   4.589 -0.0763  0.1502  0.2672
32415DOD     C241065   1.835  21.023   4.863 -0.1461  0.3468 -0.0130
32415DOD     C341066   1.532  21.087   5.217  0.2053 -0.0832 -0.2786
32416DOD     C141067  20.022   4.042   4.526  0.1741 -0.1989  0.0434
32416DOD     C241068  19.808   4.082   4.113 -0.4603  0.0328  0.0927
32416DOD     C341069  19.410   3.826   3.974 -0.0961 -0.2795 -0.1489
32417DOD     C141070  16.720  25.862  17.725 -0.0061  0.0738 -0.0000
32417DOD     C241071  16.591  26.010  17.315 -0.0579  0.0421  0.3313
32417DOD     C341072  16.711  26.204  16.893  0.1388 -0.0888 -0.0028
32418DOD     C141073   6.815  23.309  16.230  0.2482  0.0724 -0.0365
32418DOD     C241074   6.544  23.131  15.849 -0.2574 -0.3342 -0.1891
32418DOD     C341075   6.525  22.756  15.621 -0.0092 -0.0044 -0.0608
32419DOD     C141076   6.189  13.680   6.894  0.0904  0.1086  0.2691
32419DOD     C241077   6.095  14.126   6.729 -0.2883  0.2102 -0.1193
32419DOD     C341078   5.703  14.356   6.739  0.0930  0.0759 -0.3051
32420DOD     C141079  19.590   3.130   9.227  0.1453 -0.1186 -0.0307
32420DOD     C241080  19.929   3.099   8.931  0.1800 -0.1541 -0.2190
32420DOD     C341081  20.248   2.858   8.796 -0.1269  0.0818 -0.4739
32421DOD     C141082  29.121   0.289  27.727  0.0580 -0.2836 -0.0792
32421DOD     C241083  29.075   0.793  27.780 -0.1221  0.1784  0.2261
32421DOD     C341084  28.789   1.111  27.967  0.0887 -0.1826  0.0068
32422DOD     C141085  23.757  20.685   8.728 -0.1575 -0.1638  0.0825
32422DOD     C241086  23.866  20.996   9.056  0.1790  0.2663 -0.0171
32422DOD     C341087  23.963  21.166   9.457  0.1561  0.0886  0.0956
32423DOD     C141088   8.766   8.318   3.747 -0.2157 -0.2334 -0.0791
32423DOD     C241089   8.723   8.715   3.977  0.1858  0.0355  0.0353
32423DOD     C341090   8.821   8.989   4.347  0.2763 -0.0275 -0.1259
32424DOD     C141091  25.291  24.668  20.258  0.3679 -0.0776 -0.0262
32424DOD     C241092  25.548  24.539  20.638  0.0941  0.1106  0.1803
32424DOD     C341093  25.884  24.319  20.941 -0.1655 -0.1070 -0.0831
32425DOD     C141094   4.358  25.251   1.173 -0.2185  0.0030 -0.0862
32425DOD     C241095   4.488  25.216   0.771 -0.1571  0.0202  0.2006
32425DOD     C341096   4.772  25.292   0.428 -0.1850 -0.0018 -0.2018
32426DOD     C141097  27.606  28.826   6.274 -0.3241 -0.6868  0.2025
32426DOD     C241098  27.674  28.847   6.737  0.1077  0.2002  0.0472
32426DOD     C341099  27.850  28.849   7.158  0.1900  0.0692 -0.0236
32427DOD     C141100  22.055  27.463  16.850 -0.0037 -0.0294 -0.2476
32427DOD     C241101  21.686  27.609  16.630  0.0717 -0.0315 -0.0963
32427DOD     C341102  21.577  27.544  16.186 -0.2667  0.2097  0.0222
32428DOD     C141103  14.813   7.102  27.312 -0.0667  0.2953 -0.0696
32428DOD     C241104  14.990   7.489  27.072 -0.0789  0.5077 -0.3833
32428DOD     C341105  15.279   7.686  26.770  0.3500  0.1223 -0.0403
32429DOD     C141106   5.728  26.036  16.815 -0.0380 -0.1803 -0.1443
32429DOD     C241107   5.921  26.172  17.235  0.1156  0.1821 -0.0449
32429DOD     C341108   5.993  26.009  17.677 -0.3397 -0.1699 -0.3344
32430DOD     C141109  18.102  10.059   9.186  0.1853 -0.0088  0.0330
32430DOD     C241110  18.223  10.366   9.448  0.2987 -0.1358 -0.2572
32430DOD     C341111  18.524  10.110   9.734  0.1367 -0.0515  0.0924
32431DOD     C141112  25.833  21.630  19.083 -0.2887 -0.3179  0.0434
32431DOD     C241113  25.877  21.175  19.246  0.0564  0.0468  0.1076
32431DOD     C341114  25.634  20.870  19.498  0.0336 -0.0291 -0.1700
32432DOD     C141115  23.962  14.852  13.775  0.0865 -0.0552  0.1525
32432DOD     C241116  23.763  14.923  14.201  0.2828 -0.0111 -0.2743
32432DOD     C341117  23.687  14.905  14.673 -0.0410  0.2876 -0.0954
32433DOD     C141118  23.102  28.286  15.163 -0.1924 -0.1606 -0.0626
32433DOD     C241119  23.269  28.022  14.904  0.0898 -0.1539 -0.2025
32433DOD     C341120  23.377  27.871  14.521 -0.1246 -0.0354 -0.1505
32434DOD     C141121   4.175  27.560  20.750 -0.2713 -0.0290 -0.4199
32434DOD     C241122   4.128  27.570  21.246 -0.0787  0.4654  0.1324
32434DOD     C341123   4.073  27.474  21.733  0.0113 -0.0464 -0.0047
32435DOD     C141124  19.874  11.773  24.838 -0.1053  0.0579  0.0616
32435DOD     C241125  19.526  11.740  25.138 -0.0225  0.1249  0.0914
32435DOD     C341126  19.367  11.738  25.559 -0.0744 -0.1823  0.0890
32436DOD     C141127  17.864  22.222  19.973 -0.1911 -0.1822  0.1799
32436DOD     C241128  17.767  21.940  19.618  0.1288 -0.2017  0.0307
32436DOD     C341129  18.112  21.733  19.399  0.4089 -0.1964 -0.0735
32437DOD     C141130  23.613  18.946  17.057  0.0004 -0.1748  0.1247
32437DOD     C241131  23.184  18.894  17.082  0.2081  0.0419  0.2917
32437DOD     C341132  22.754  18.906  17.324  0.1235  0.0532 -0.1044
32438DOD     C141133  20.846  26.445   2.831 -0.0912  0.1012  0.2101
32438DOD     C241134  21.075  26.439   3.224 -0.2446 -0.1532  0.0981
32438DOD     C341135  21.009  26.666   3.679  0.1819  0.0397 -0.1970
32439DOD     C141136  27.272   5.871  21.383 -0.0655  0.0515  0.0951
32439DOD     C241137  27.119   5.432  21.377  0.1110  0.0989  0.2138
32439DOD     C341138  26.819   5.024  21.310 -0.1518 -0.2833 -0.1154
32440DOD     C141139   0.777   3.040   1.676 -0.1603 -0.0179 -0.0946
32440DOD     C241140   0.758   3.500   1.750  0.1196  0.0592 -0.1132
32440DOD     C341141   1.085   3.652   2.081  0.2070 -0.2846 -0.0432
32441DOD     C141142  17.300  30.221  10.140 -0.1411 -0.0291  0.1011
32441DOD     C241143  17.535   0.218   9.829 -0.1448  0.3659 -0.1807
32441DOD     C341144  17.709   0.287   9.375  0.3847 -0.0584 -0.1719
32442DOD     C141145  24.493  18.179  25.103 -0.0186  0.0350  0.2519
32442DOD     C241146  24.698  18.534  25.340  0.2127  0.2246 -0.0135
32442DOD     C341147  24.933  18.862  25.593  0.0772 -0.1700  0.0500
32443DOD     C141148   3.181  27.324  18.692 -0.0855 -0.0057 -0.1549
32443DOD     C241149   3.543  27.307  18.996 -0.1410  0.1423  0.0944
32443DOD     C341150   3.882  27.525  19.187  0.1294  0.1168  0.0071
32444DOD     C141151  18.481  24.490  25.578 -0.2458 -0.0121  0.1904
32444DOD     C241152  18.265  24.533  25.961 -0.2580  0.0698  0.1094
32444DOD     C341153  18.538  24.512  26.335 -0.2117 -0.1330  0.1138
32445DOD     C141154  11.719   1.952  13.552 -0.1247  0.0098  0.0160
32445DOD     C241155  11.732   1.660  13.846 -0.2648  0.0781 -0.0900
32445DOD     C341156  11.648   1.516  14.279 -0.0924  0.2903 -0.1785
32446DOD     C141157   8.854  10.027  22.094  0.2907  0.1533  0.0453
32446DOD     C241158   8.858  10.480  22.137  0.1140  0.4184  0.0413
32446DOD     C341159   8.986  10.769  22.402  0.0837  0.2068  0.1105
32447DOD     C141160   1.804  22.750   3.113  0.0928  0.4115 -0.0682
32447DOD     C241161   1.825  22.745   2.616 -0.2569  0.1775 -0.0858
32447DOD     C341162   1.716  22.785   2.162 -0.1300 -0.0900  0.2559
32448DOD     C141163  16.479  15.213  13.901  0.2267 -0.1781  0.0648
32448DOD     C241164  16.480  14.740  13.922  0.1819 -0.2290 -0.1651
32448DOD     C341165  16.637  14.316  13.835  0.1610 -0.0060 -0.2835
32449DOD     C141166   1.870   7.604   9.863  0.1965 -0.1321 -0.2666
32449DOD     C241167   2.021   7.167   9.952 -0.3384 -0.2549  0.1651
32449DOD     C341168   1.995   6.848  10.327 -0.3704 -0.0878 -0.0905
32450DOD     C141169  22.716  15.104  23.789  0.2430 -0.0866  0.0589
32450DOD     C241170  22.776  15.572  23.718  0.1299  0.0279  0.1643
32450DOD     C341171  22.843  16.057  23.732 -0.0063  0.1104 -0.4598
32451DOD     C141172  27.616  21.747   2.453  0.3077 -0.1079  0.1655
32451DOD     C241173  27.203  21.547   2.454 -0.0224  0.2633  0.2790
32451DOD     C341174  26.839  21.901   2.312  0.2592  0.1548 -0.0212
32452DOD     C141175  21.711  17.592  28.049  0.0977 -0.0129 -0.1265
32452DOD     C241176  21.634  17.249  27.721 -0.0158  0.0751 -0.0396
32452DOD     C341177  21.799  16.782  27.653 -0.0597 -0.1717  0.0971
32453DOD     C141178   6.885   1.303   6.688  0.2370 -0.1524 -0.5220
32453DOD     C241179   6.557   1.501   6.458  0.1342  0.0790 -0.0528
32453DOD     C341180   6.457   1.401   6.033  0.4568  0.1395 -0.1735
32454DOD     C141181  15.783  26.946  23.129 -0.2108  0.0800  0.1034
32454DOD     C241182  16.117  26.748  22.874  0.2362  0.0168  0.2495
32454DOD     C341183  16.064  26.667  22.402  0.2844  0.0490 -0.1756
32455DOD     C141184  16.445  25.375  18.207  0.4426  0.1295  0.1314
32455DOD     C241185  16.024  25.152  18.223 -0.0430 -0.1830  0.1412
32455DOD     C341186  15.556  25.229  18.172 -0.1868  0.0369 -0.0579
32456DOD     C141187   0.456  27.527  30.078  0.2923  0.3231 -0.1208
32456DOD     C241188   0.827  27.255  30.047 -0.2594 -0.2806 -0.0205
32456DOD     C341189   1.267  27.144  30.122 -0.0193  0.3104 -0.0860
32457DOD     C141190  23.141   0.248  26.778 -0.2044  0.0714 -0.1171
32457DOD     C241191  22.900   0.582  26.501  0.0419 -0.1203 -0.1838
32457DOD     C341192  22.514   0.877  26.420 -0.0919 -0.2636 -0.2203
32458DOD     C141193  17.805  26.413   2.453 -0.0586  0.0417 -0.1831
32458DOD     C241194  17.672  26.403   2.034 -0.1424  0.0766  0.4473
32458DOD     C341195  17.305  26.276   1.878 -0.0875  0.1280  0.1199
32459DOD     C141196  13.739  23.410   8.667 -0.2237  0.1824  0.1202
32459DOD     C241197  14.194  23.467   8.776  0.2147 -0.2329  0.2118
32459DOD     C341198  14.616  23.397   9.107  0.0138  0.0060  0.1245
32460DOD     C141199  24.708  23.869  16.379 -0.1896 -0.2104  0.0088
32460DOD     C241200  25.011  23.557  16.489  0.1994  0.0100  0.3089
32460DOD     C341201  25.339  23.513  16.808  0.1881  0.1101  0.0359
32461DOD     C141202   6.486   3.758   6.043 -0.1610  0.3665 -0.0804
32461DOD     C241203   6.817   3.910   6.340  0.3800 -0.2712  0.1102
32461DOD     C341204   6.872   4.374   6.474 -0.0230 -0.1639  0.0892
32462DOD     C141205  28.972  23.207   2.746  0.0561  0.4623 -0.1403
32462DOD     C241206  29.450  23.251   2.762 -0.2862 -0.3100  0.2534
32462DOD     C341207  29.842  23.514   2.714  0.2105 -0.3888  0.1023
32463DOD     C141208   2.674  27.875   1.024  0.2307 -0.1667 -0.1668
32463DOD     C241209   2.428  28.249   0.889  0.2697 -0.1686  0.2481
32463DOD     C341210   2.230  28.666   0.959 -0.1685 -0.0736 -0.0937
32464DOD     C141211  27.605   7.593   9.980  0.0397  0.0597 -0.1928
32464DOD     C241212  27.749   8.018  10.119 -0.0274  0.1112  0.1794
32464DOD     C341213  27.973   8.420  10.138  0.0821  0.0606  0.1358
32465DOD     C141214   3.827  23.996  30.106  0.1155  0.0334 -0.1790
32465DOD     C241215   4.192  23.806  29.872 -0.0506 -0.1349  0.1572
32465DOD     C341216   4.432  23.520  29.523  0.2289 -0.2851 -0.0882
32466DOD     C141217   0.698  10.885  10.476 -0.0173  0.0114  0.1590
32466DOD     C241218   0.575  10.480  10.634  0.0800 -0.0509  0.0302
32466DOD     C341219   0.506  10.021  10.765  0.2187  0.2954  0.2860
32467DOD     C141220  28.283   6.446  13.234  0.0146  0.0802  0.0029
32467DOD     C241221  28.637   6.633  13.419 -0.0202  0.0240 -0.0289
32467DOD     C341222  29.042   6.510  13.582 -0.0047  0.0677  0.0853
32468DOD     C141223  21.630  26.190   1.843  0.0615  0.1821 -0.0595
32468DOD     C241224  21.614  26.584   2.108 -0.3189 -0.0757 -0.4198
32468DOD     C341225  21.674  26.957   2.420 -0.0770  0.2404  0.0337
32469DOD     C141226  27.091  29.735  14.346 -0.0688  0.2369 -0.0343
32469DOD     C241227  26.897  29.866  14.713  0.2760 -0.0062  0.1538
32469DOD     C341228  26.458  30.000  14.803 -0.3590  0.0434  0.1496
32470DOD     C141229  23.049  20.081   5.677  0.0100  0.0962 -0.0229
32470DOD     C241230  22.733  20.047   5.947 -0.2020 -0.0652 -0.0802
32470DOD     C341231  22.285  20.087   6.122  0.1003 -0.0936  0.0481
32471DOD     C141232  28.645   8.425  11.962  0.1416 -0.0164 -0.3134
32471DOD     C241233  28.226   8.479  11.927 -0.1705  0.0266  0.0037
32471DOD     C341234  27.817   8.458  11.667  0.0274  0.3452 -0.3790
32472DOD     C141235  28.690  25.731  10.926 -0.0808  0.3528  0.2141
32472DOD     C241236  28.354  25.422  10.895  0.3303  0.2121  0.0304
32472DOD     C341237  27.927  25.255  10.968 -0.0038 -0.4165  0.0846
32473DOD     C141238   5.530   7.588  22.590  0.1079 -0.0583  0.1763
32473DOD     C241239   5.447   7.235  22.865  0.2449 -0.1525 -0.1658
32473DOD     C341240   5.129   7.207  23.288 -0.0329 -0.0622  0.1551
32474DOD     C141241  29.985  13.867  27.533  0.5012 -0.4780  0.1486
32474DOD     C241242  29.769  14.211  27.784 -0.2570 -0.1641 -0.1534
32474DOD     C341243  29.837  14.673  27.773 -0.0939  0.0999  0.1349
32475DOD     C141244  12.762  14.458  29.384  0.1087  0.1374  0.2948
32475DOD     C241245  12.764  14.054  29.112  0.1156  0.0832  0.2147
32475DOD     C341246  12.890  14.227  28.687 -0.0489  0.0036 -0.0991
32476DOD     C141247  22.818   3.373  11.518  0.0417 -0.0960 -0.1663
32476DOD     C241248  23.020   3.666  11.241 -0.1462 -0.0217  0.3121
32476DOD     C341249  22.972   3.932  10.802  0.2230 -0.0822 -0.1701
32477DOD     C141250  29.887  12.819  11.912  0.1323 -0.0901 -0.1425
32477DOD     C241251  29.744  13.225  11.806  0.1203 -0.0936 -0.2496
32477DOD     C341252  29.668  13.688  11.742 -0.3158  0.3192  0.1623
32478DOD     C141253   2.112  15.552  28.297  0.0838  0.1069  0.0395
32478DOD     C241254   2.135  15.907  27.992  0.0955 -0.0699  0.1796
32478DOD     C341255   2.114  15.766  27.522 -0.4242  0.0348  0.1494
32479DOD     C141256  21.436  29.428   3.154  0.2882 -0.1789 -0.0064
32479DOD     C241257  21.363  29.441   2.711  0.0801 -0.2541  0.4461
32479DOD     C341258  21.637  29.682   2.381  0.1803  0.0414 -0.1902
32480DOD     C141259  22.391  29.877  30.267 -0.0325 -0.1986 -0.1522
32480DOD     C241260  22.164  29.535  30.014  0.0913  0.0396 -0.3725
32480DOD     C341261  21.919  29.174  29.798 -0.0949 -0.1111 -0.2536
32481DOD     C141262  24.529  17.635  13.059  0.0561  0.1702  0.0532
32481DOD     C241263  24.433  18.094  13.058 -0.0946  0.1410  0.1321
32481DOD     C341264  24.220  18.436  12.772  0.1770 -0.1165  0.0452
32482DOD     C141265   5.764   5.272  30.271  0.1914 -0.1754 -0.0218
32482DOD     C241266   6.244   5.336  30.323  0.3277  0.0865  0.0303
32482DOD     C341267   6.668   5.380  30.104  0.0606 -0.0325 -0.1137
32483DOD     C141268   2.382   9.067  20.284  0.1925  0.2263 -0.1014
32483DOD     C241269   2.123   9.155  20.705 -0.0831  0.1117  0.3582
32483DOD     C341270   2.162   8.974  21.111  0.0099  0.2130 -0.0971
32484DOD     C141271  14.582  12.275   6.420 -0.0241  0.4660  0.1784
32484DOD     C241272  14.973  12.405   6.636 -0.2870  0.3041  0.2297
32484DOD     C341273  15.348  12.151   6.696 -0.1812 -0.3437 -0.4061
32485DOD     C141274  25.782  15.575  26.039 -0.2370  0.1467 -0.0785
32485DOD     C241275  26.171  15.442  25.866 -0.1113  0.0864  0.1689
32485DOD     C341276  26.646  15.282  25.926  0.3088  0.0790  0.1992
32486DOD     C141277  12.048  18.578  13.656  0.0025 -0.0952 -0.2345
32486DOD     C241278  12.442  18.297  13.565 -0.3048 -0.0412  0.2952
32486DOD     C341279  12.927  18.261  13.537  0.0969  0.1517 -0.1425
32487DOD     C141280  27.462  28.864   1.733  0.1121 -0.1607 -0.2875
32487DOD     C241281  27.133  28.552   1.595 -0.2290 -0.2231 -0.1790
32487DOD     C341282  27.139  28.210   1.914  0.2475 -0.1285  0.0682
32488DOD     C141283   1.178  19.087  10.971 -0.1814 -0.0881  0.0935
32488DOD     C241284   0.991  18.682  10.866 -0.1908 -0.0555  0.1572
32488DOD     C341285   0.723  18.362  10.764 -0.1328  0.0609 -0.0813
32489DOD     C141286  25.054   0.325  10.233 -0.1126  0.1420  0.3444
32489DOD     C241287  24.955   0.377  10.695  0.2814 -0.0291  0.0012
32489DOD     C341288  25.146   0.176  11.089 -0.0554 -0.0631 -0.4366
32490DOD     C141289  19.768   8.453  25.862  0.0841  0.1696  0.1314
32490DOD     C241290  19.887   8.832  26.089  0.0269  0.1642 -0.0555
32490DOD     C341291  20.102   9.220  25.994  0.0982 -0.2135  0.2199
32491DOD     C141292   4.950  25.216  26.459  0.0355 -0.0831 -0.1055
32491DOD     C241293   4.607  25.519  26.297 -0.1543 -0.3995 -0.0423
32491DOD     C341294   4.418  25.945  26.325 -0.0469  0.3668 -0.0683
32492DOD     C141295   5.392  12.128   3.277  0.0102 -0.1709 -0.1935
32492DOD     C241296   5.573  12.293   2.877 -0.1195  0.0352 -0.2475
32492DOD     C341297   5.710  12.307   2.395  0.1055 -0.2824  0.1305
32493DOD     C141298   3.933  11.931  17.714  0.0836 -0.0244  0.1155
32493DOD     C241299   3.693  11.528  17.669  0.0124 -0.1225 -0.0877
32493DOD     C341300   3.309  11.342  17.431 -0.0749 -0.1869  0.1943
32494DOD     C141301  15.508  25.296   1.570 -0.2316  0.4261  0.3271
32494DOD     C241302  15.428  24.841   1.416 -0.2256  0.1912  0.2339
32494DOD     C341303  15.244  24.467   1.588  0.2455 -0.0855 -0.0347
32495DOD     C141304   7.744  19.168   0.779  0.2339 -0.2987  0.0039
32495DOD     C241305   7.987  19.019   1.159  0.2876 -0.1319 -0.2937
32495DOD     C341306   8.320  18.815   1.386  0.0154  0.0298  0.2265
32496DOD     C141307   5.030   7.379  18.251  0.0813 -0.0296  0.1531
32496DOD     C241308   4.634   7.613  18.367 -0.0951  0.2557 -0.3147
32496DOD     C341309   4.286   7.878  18.515 -0.1399 -0.2519  0.2038
32497DOD     C141310  28.193  10.404   2.052  0.0127 -0.1722  0.0661
32497DOD     C241311  28.168  10.638   1.667  0.0846  0.1962  0.0560
32497DOD     C341312  28.249  10.652   1.213 -0.1212 -0.0055 -0.0905
32498DOD     C141313   2.428  29.075  26.342  0.1825 -0.2821  0.0375
32498DOD     C241314   2.082  29.284  26.616 -0.0516  0.2819 -0.0787
32498DOD     C341315   2.138  29.445  27.041  0.1530  0.0476 -0.0957
32499DOD     C141316  17.792   1.097   1.095 -0.0268 -0.1105 -0.2145
32499DOD     C241317  17.782   0.737   0.816  0.1825  0.0227  0.0063
32499DOD     C341318  17.978   0.551   0.474  0.0539 -0.1843  0.0684
32500DOD     C141319  13.339   6.853  23.878  0.1796  0.1270  0.0987
32500DOD     C241320  13.332   7.323  23.883  0.3433  0.0560 -0.0347
32500DOD     C341321  13.755   7.543  23.899  0.0478  0.1165  0.1114
32501DOD     C141322  27.346  18.457  10.782  0.1870 -0.0728  0.4509
32501DOD     C241323  27.625  18.307  11.101 -0.0742  0.2623  0.1061
32501DOD     C341324  28.042  18.164  11.191 -0.0565 -0.1710  0.2118
32502DOD     C141325  27.827  24.293  23.085 -0.4020 -0.2154 -0.0071
32502DOD     C241326  28.045  24.074  23.456  0.1302 -0.1525  0.0505
32502DOD     C341327  27.905  23.928  23.863 -0.1213  0.3823  0.1984
32503DOD     C141328  19.345   7.274  26.595  0.0274  0.1431  0.1489
32503DOD     C241329  19.021   7.379  26.318 -0.0795 -0.1682 -0.2009
32503DOD     C341330  18.817   7.383  25.856  0.2587 -0.3879 -0.1198
32504DOD     C141331  10.837  12.727   9.149  0.0780 -0.0592 -0.0552
32504DOD     C241332  10.969  13.050   9.447 -0.0705 -0.1360 -0.1905
32504DOD     C341333  11.306  13.152   9.766 -0.0038  0.1005 -0.0967
32505DOD     C141334  20.337  26.348   0.412  0.0304  0.3042  0.4149
32505DOD     C241335  20.567  26.009   0.649 -0.0992  0.5014 -0.2452
32505DOD     C341336  21.001  25.896   0.605  0.2161 -0.2709 -0.0674
32506DOD     C141337   1.311  11.188  10.131  0.0506 -0.0320  0.0545
32506DOD     C241338   1.752  11.310  10.095  0.1825 -0.1027 -0.1133
32506DOD     C341339   2.048  11.521   9.829  0.0460  0.1031 -0.1106
32507DOD     C141340   1.640  13.279  12.620  0.3936 -0.0426  0.0178
32507DOD     C241341   1.408  13.548  12.932  0.0505 -0.1044 -0.0222
32507DOD     C341342   1.345  13.846  13.231 -0.0099  0.0018 -0.0866
32508DOD     C141343   8.220   1.000   0.542 -0.1204 -0.0262 -0.2399
32508DOD     C241344   8.191   1.461   0.339  0.2501 -0.1289 -0.3295
32508DOD     C341345   8.006   1.857   0.255  0.0378  0.0566 -0.1029
32509DOD     C141346  13.748  19.279  21.952 -0.0012 -0.0177 -0.2526
32509DOD     C241347  13.602  19.727  22.009  0.0520  0.0111 -0.3263
32509DOD     C341348  13.428  20.185  22.078 -0.2425  0.1781  0.4522
32510DOD     C141349  14.791  17.021   6.127 -0.2763  0.0657 -0.0874
32510DOD     C241350  14.790  17.154   5.710  0.2286 -0.0714 -0.2353
32510DOD     C341351  14.809  17.212   5.305 -0.4399 -0.0547 -0.1652
32511DOD     C141352  17.352  27.178   9.702 -0.1770  0.2016 -0.2133
32511DOD     C241353  17.472  26.801   9.895 -0.3011  0.0331  0.2650
32511DOD     C341354  17.645  26.525  10.212  0.0556 -0.0020  0.0871
32512DOD     C141355  16.334  29.399  12.603  0.1921  0.1446  0.2159
32512DOD     C241356  16.646  29.436  12.979  0.0626  0.1869  0.0953
32512DOD     C341357  16.836  29.468  13.404  0.2013  0.2363  0.3302
32513DOD     C141358  29.558  11.846  24.537  0.0401 -0.5109 -0.0468
32513DOD     C241359  29.363  12.270  24.418  0.0914 -0.1494 -0.0318
32513DOD     C341360  29.289  12.731  24.503 -0.1192  0.2616 -0.0177
32514DOD     C141361  16.365  20.773  28.664 -0.3290  0.1528  0.0662
32514DOD     C241362  16.349  20.834  29.131  0.0907 -0.1117  0.0726
32514DOD     C341363  16.143  20.750  29.582 -0.2316  0.2661 -0.0073
32515DOD     C141364  17.840   8.671  19.257 -0.1572  0.2164  0.3496
32515DOD     C241365  17.403   8.495  19.187  0.0897  0.0210  0.3491
32515DOD     C341366  17.105   8.206  19.365 -0.0656 -0.1962  0.2244
32516DOD     C141367  17.643  12.161   6.742  0.1301  0.2261  0.0167
32516DOD     C241368  17.422  11.727   6.796  0.0076  0.2099  0.0712
32516DOD     C341369  17.259  11.263   6.731  0.1368 -0.1835 -0.0396
32517DOD     C141370   4.985  30.267   9.987 -0.0311  0.1238  0.1547
32517DOD     C241371   5.272  30.270  10.346  0.1445  0.0750 -0.0221
32517DOD     C341372   5.574  30.171  10.712  0.0172  0.0511 -0.2380
32518DOD     C141373  24.677  16.187  15.292 -0.0423  0.1881  0.2795
32518DOD     C241374  24.726  16.664  15.356 -0.2868 -0.2147 -0.0392
32518DOD     C341375  24.391  16.969  15.531 -0.2287 -0.0246  0.2426
32519DOD     C141376   3.372   6.414   4.813  0.1700 -0.0353  0.0401
32519DOD     C241377   3.598   6.424   4.428 -0.0033 -0.1820  0.0683
32519DOD     C341378   3.799   6.816   4.444  0.0161 -0.2329 -0.1378
32520DOD     C141379  27.783   9.967   0.693  0.0793  0.0938 -0.0594
32520DOD     C241380  27.319   9.977   0.703  0.0001  0.1759 -0.1636
32520DOD     C341381  26.817  10.010   0.649  0.1002 -0.2535  0.0838
32521DOD     C141382  10.670  21.855  25.352 -0.0933 -0.2134  0.0484
32521DOD     C241383  10.526  22.164  24.966 -0.2202  0.1410 -0.1506
32521DOD     C341384  10.553  22.642  24.892  0.1133  0.1471  0.0982
32522DOD     C141385  25.714   2.832   1.335 -0.0259 -0.0102  0.2261
32522DOD     C241386  25.590   2.436   1.646 -0.1401  0.1060  0.3880
32522DOD     C341387  25.516   2.034   1.830 -0.1330 -0.1454  0.0197
32523DOD     C141388  28.444  11.369  16.406  0.0506 -0.0458 -0.2898
32523DOD     C241389  28.640  11.558  16.773  0.2461  0.1890  0.2467
32523DOD     C341390  28.754  12.015  16.811  0.4089  0.0740  0.0811
32524DOD     C141391   8.135  17.718   9.394 -0.1664  0.0159 -0.0433
32524DOD     C241392   8.519  17.564   9.131  0.1774 -0.5320 -0.1936
32524DOD     C341393   8.980  17.433   9.065 -0.2733 -0.0930  0.0121
32525DOD     C141394  27.086  10.620   3.116 -0.1435  0.0667  0.2808
32525DOD     C241395  27.202  10.425   3.529 -0.0192  0.0520 -0.3500
32525DOD     C341396  27.380  10.160   3.876  0.0636 -0.1090 -0.2384
32526DOD     C141397  15.396  14.944  18.137 -0.0671  0.1502 -0.0573
32526DOD     C241398  15.105  15.108  17.833  0.1277 -0.3470  0.3248
32526DOD     C341399  14.930  15.309  17.446 -0.1020  0.1105 -0.1144
32527DOD     C141400  27.315  10.560  11.646 -0.1068 -0.4113  0.1775
32527DOD     C241401  27.472  11.024  11.713 -0.1778 -0.0984  0.0430
32527DOD     C341402  27.693  11.245  12.059 -0.2334 -0.0806 -0.0455
32528DOD     C141403  26.949   4.872  17.668 -0.0169  0.1090 -0.1375
32528DOD     C241404  26.952   4.554  17.360 -0.0457 -0.3866  0.1589
32528DOD     C341405  27.167   4.171  17.249  0.0108  0.3256 -0.3799
32529DOD     C141406  13.129  15.657  25.600 -0.1888  0.1894 -0.0235
32529DOD     C241407  13.065  15.343  25.249 -0.1600 -0.3761  0.0109
32529DOD     C341408  12.932  15.276  24.833 -0.1722  0.2322  0.3038
32530DOD     C141409  15.285  19.769  11.490 -0.1360  0.0009 -0.1136
32530DOD     C241410  14.851  19.925  11.402  0.2292  0.1969  0.1649
32530DOD     C341411  14.490  19.649  11.131 -0.1517  0.0930 -0.1581
32531DOD     C141412   5.672  27.243   5.984 -0.0116 -0.2395  0.0630
32531DOD     C241413   5.459  27.340   5.541 -0.0473 -0.0906  0.4500
32531DOD     C341414   5.590  27.195   5.098  0.1625 -0.1992 -0.0301
32532DOD     C141415   0.650  14.916  25.576  0.1020 -0.0017  0.3123
32532DOD     C241416   1.105  14.944  25.709 -0.1080 -0.1407  0.1503
32532DOD     C341417   1.317  14.692  25.974 -0.2520 -0.0840 -0.0198
32533DOD     C141418  24.653  25.653   7.708 -0.2763 -0.0104  0.0710
32533DOD     C241419  25.140  25.529   7.707 -0.1336 -0.3195 -0.4152
32533DOD     C341420  25.440  25.692   8.053 -0.0654  0.2219  0.0612
32534DOD     C141421   1.707  20.301  13.950 -0.0030  0.3226 -0.0239
32534DOD     C241422   1.337  20.266  14.222 -0.2155  0.0713 -0.0814
32534DOD     C341423   0.967  20.282  14.506 -0.1611 -0.1019 -0.2711
32535DOD     C141424  11.713  20.259   7.760 -0.2352 -0.2613 -0.0151
32535DOD     C241425  11.944  19.881   7.881  0.0185  0.1466  0.3815
32535DOD     C341426  11.905  19.484   8.058 -0.0536 -0.3144 -0.0743
32536DOD     C141427   0.218   6.838  17.838  0.0013  0.2267  0.0270
32536DOD     C241428   0.409   6.882  17.402 -0.1954 -0.1169 -0.0338
32536DOD     C341429   0.189   6.920  17.009 -0.2656 -0.1982  0.2635
32537DOD     C141430  13.256  26.693  13.473 -0.2250  0.0981  0.0435
32537DOD     C241431  13.189  26.182  13.574 -0.0561 -0.0079 -0.0249
32537DOD     C341432  12.937  25.869  13.740  0.0359  0.3280 -0.4516
32538DOD     C141433  16.863  14.075   1.846  0.1327 -0.3496  0.1019
32538DOD     C241434  17.095  13.659   1.907  0.0735  0.0652 -0.0324
32538DOD     C341435  17.330  13.274   1.834 -0.1102 -0.0205  0.0270
32539DOD     C141436  25.445  24.117  13.737  0.3313 -0.0153  0.4658
32539DOD     C241437  25.083  24.328  13.574  0.0468 -0.1417  0.4564
32539DOD     C341438  24.642  24.349  13.710  0.1184  0.0477  0.0494
32540DOD     C141439   4.783   4.685  21.497 -0.3666  0.2795 -0.1450
32540DOD     C241440   4.950   4.621  21.108 -0.1528 -0.2402  0.2888
32540DOD     C341441   4.877   4.729  20.676  0.2899  0.0628 -0.1117
32541DOD     C141442   4.338  26.335  15.229  0.0158  0.0040 -0.1714
32541DOD     C241443   3.938  26.285  14.986  0.1429 -0.0057  0.0616
32541DOD     C341444   3.781  26.617  14.681 -0.1765  0.0572  0.2041
32542DOD     C141445  10.154   3.623  21.970 -0.0296  0.0320 -0.2693
32542DOD     C241446  10.310   3.424  21.589  0.0457 -0.1359 -0.3625
32542DOD     C341447  10.349   3.442  21.167  0.0587  0.1628 -0.0555
32543DOD     C141448  13.291   1.522  26.119  0.0073 -0.0588  0.0618
32543DOD     C241449  13.334   1.607  26.562 -0.0082 -0.0193  0.0320
32543DOD     C341450  13.116   1.562  26.972 -0.1010 -0.1090 -0.1129
32544DOD     C141451  27.031  26.494  26.130  0.0407  0.1225  0.2654
32544DOD     C241452  26.870  26.881  26.370  0.2335 -0.2512  0.4392
32544DOD     C341453  26.535  27.115  26.593  0.0787 -0.1610  0.0623
32545DOD     C141454  15.247  11.104  15.650 -0.0281 -0.0504 -0.1054
32545DOD     C241455  14.794  10.949  15.446 -0.0631 -0.0931 -0.0069
32545DOD     C341456  14.395  11.162  15.281  0.0508 -0.0410  0.3289
32546DOD     C141457  23.434   9.783   3.062  0.3845  0.2159  0.0879
32546DOD     C241458  23.452   9.548   3.463  0.1170  0.0919  0.1202
32546DOD     C341459  23.378   9.161   3.735  0.2501 -0.0456 -0.1133
32547DOD     C141460  28.708  21.600   8.422 -0.1466  0.0903 -0.0366
32547DOD     C241461  28.662  21.872   8.076  0.0433  0.0054  0.1730
32547DOD     C341462  28.674  22.202   7.746 -0.1870 -0.2244  0.2365
32548DOD     C141463  22.064  20.157   2.562  0.0651  0.4384 -0.3093
32548DOD     C241464  22.262  19.976   2.943  0.2062  0.2205  0.0136
32548DOD     C341465  22.585  19.662   3.172 -0.0745 -0.0945  0.2220
32549DOD     C141466  24.201  17.135  27.275  0.2316 -0.0640 -0.0621
32549DOD     C241467  24.617  16.924  27.184  0.0308  0.0221  0.0330
32549DOD     C341468  24.873  16.635  27.063 -0.2208  0.0375  0.1324
32550DOD     C141469   8.739   5.947   5.056  0.1924  0.1313  0.0221
32550DOD     C241470   8.770   5.884   4.581  0.1958  0.0379 -0.1138
32550DOD     C341471   8.666   5.992   4.116 -0.1337 -0.1755  0.1536
32551DOD     C141472  14.984   6.098   9.118 -0.1260  0.1277 -0.3960
32551DOD     C241473  15.478   6.050   9.192 -0.1067 -0.1562  0.1542
32551DOD     C341474  15.915   5.972   9.250 -0.1500  0.1049  0.1632
32552DOD     C141475  13.449  18.795  25.095  0.0135 -0.2505 -0.2304
32552DOD     C241476  13.620  18.357  25.046  0.0561 -0.2634  0.0467
32552DOD     C341477  13.552  17.926  25.180 -0.2124  0.2830  0.0761
32553DOD     C141478   7.515  11.537   9.888 -0.0874  0.0502 -0.0724
32553DOD     C241479   7.867  11.790  10.089 -0.1230 -0.1630 -0.1428
32553DOD     C341480   8.262  11.848  10.385 -0.2845  0.0678 -0.3004
32554DOD     C141481   1.907  22.341  19.780 -0.0684  0.2148 -0.1028
32554DOD     C241482   2.253  22.541  19.578 -0.0256 -0.4242  0.3573
32554DOD     C341483   2.485  22.773  19.230  0.0904  0.0494 -0.2135
32555DOD     C141484  17.606  16.039  25.817  0.0382  0.1504 -0.0564
32555DOD     C241485  17.608  16.455  25.663 -0.3735  0.2741  0.1568
32555DOD     C341486  17.978  16.725  25.678 -0.2403 -0.0048  0.1735
32556DOD     C141487   6.599  25.278  20.381 -0.1329  0.1063  0.1908
32556DOD     C241488   6.468  25.032  20.799 -0.0660 -0.0578 -0.4527
32556DOD     C341489   6.448  24.964  21.298 -0.2614  0.1412 -0.1057
32557DOD     C141490  13.714  13.168  27.292 -0.3174 -0.1651  0.2419
32557DOD     C241491  13.518  12.954  27.639  0.0329 -0.1864 -0.0014
32557DOD     C341492  13.696  12.522  27.646 -0.2792  0.2104 -0.1164
32558DOD     C141493  16.754   6.037   3.403 -0.0335 -0.1641  0.1726
32558DOD     C241494  16.535   5.656   3.288 -0.1841 -0.2804 -0.3774
32558DOD     C341495  16.242   5.299   3.138 -0.0296 -0.1141  0.0544
32559DOD     C141496   6.521  21.356  28.775  0.1918  0.1892 -0.0950
32559DOD     C241497   6.813  21.528  29.046 -0.3768  0.0238  0.1250
32559DOD     C341498   7.200  21.738  28.966 -0.0099  0.1365  0.0761
32560DOD     C141499   6.096  22.039   0.876 -0.0891  0.0131 -0.1055
32560DOD     C241500   6.167  22.517   0.859 -0.1304  0.0286  0.1546
32560DOD     C341501   5.857  22.813   0.910  0.0887  0.3412  0.2700
32561DOD     C141502  25.305  11.176  23.190 -0.1103  0.1844  0.3372
32561DOD     C241503  25.221  10.729  23.171 -0.0504 -0.1030 -0.1893
32561DOD     C341504  25.243  10.328  23.439  0.2384 -0.5420  0.0810
32562DOD     C141505  13.252  29.755  30.208  0.1247 -0.3570 -0.1839
32562DOD     C241506  13.259  29.742  29.774  0.0497 -0.2967 -0.0364
32562DOD     C341507  13.239  29.786  29.328  0.0066  0.0685  0.0345
32563DOD     C141508  20.178  18.494  26.789  0.4351  0.4042 -0.2952
32563DOD     C241509  20.166  18.560  26.342 -0.3732  0.2733  0.0852
32563DOD     C341510  20.058  18.730  25.851  0.1461  0.0738 -0.0080
32564DOD     C141511   4.759  18.283   8.198 -0.2713  0.0800 -0.0782
32564DOD     C241512   4.476  18.664   8.278  0.1369  0.0084  0.2667
32564DOD     C341513   4.336  19.039   8.584  0.2613 -0.3137 -0.1913
32565DOD     C141514  13.151  23.197   0.913 -0.0323 -0.0966 -0.1147
32565DOD     C241515  13.359  23.354   0.617  0.0138  0.2187 -0.1886
32565DOD     C341516  13.655  23.262   0.258 -0.0289  0.0482 -0.2740
32566DOD     C141517  21.214  23.555   9.744 -0.1458 -0.0016  0.0718
32566DOD     C241518  21.282  23.899   9.547  0.5183  0.0598  0.0473
32566DOD     C341519  21.490  24.033   9.216 -0.0455  0.0330  0.4652
32567DOD     C141520  22.016   3.218  24.451  0.1927  0.3682  0.0485
32567DOD     C241521  21.675   3.551  24.403  0.0903 -0.1215 -0.4332
32567DOD     C341522  21.394   3.908  24.249  0.4704  0.0553  0.2697
32568DOD     C141523  27.986  13.806  14.693  0.1576  0.0574  0.0037
32568DOD     C241524  28.051  13.975  15.155 -0.0002  0.0632 -0.0559
32568DOD     C341525  28.059  14.344  15.434  0.4377 -0.0720 -0.1091
32569DOD     C141526  20.065   6.928  29.907 -0.0559  0.4068  0.0779
32569DOD     C241527  20.002   6.647  29.526 -0.3216  0.0141 -0.1705
32569DOD     C341528  20.017   6.203  29.346 -0.3245 -0.0110  0.1520
32570DOD     C141529  18.670  25.366  23.628 -0.1326 -0.0449 -0.0896
32570DOD     C241530  18.396  25.508  23.951  0.0756 -0.0694 -0.0537
32570DOD     C341531  18.403  25.914  24.226 -0.2048  0.2758  0.1842
32571DOD     C141532   9.350  27.235  24.905  0.3737  0.2321 -0.0855
32571DOD     C241533   9.419  27.204  24.465  0.2118  0.1502 -0.0405
32571DOD     C341534   9.517  26.847  24.158 -0.1072 -0.0140 -0.2169
32572DOD     C141535  30.307  22.288  16.286  0.0341  0.1931 -0.2656
32572DOD     C241536  29.845  22.357  16.240 -0.0281 -0.0575 -0.0602
32572DOD     C341537  29.392  22.394  16.037 -0.0686 -0.0851  0.0903
32573DOD     C141538  10.291   9.987  21.864 -0.2503  0.1764 -0.1745
32573DOD     C241539  10.097  10.322  22.200 -0.4481 -0.0975 -0.1121
32573DOD     C341540   9.653  10.379  22.270  0.0559 -0.0468 -0.0759
32574DOD     C141541  16.430  14.678   2.084 -0.1798 -0.1048 -0.3044
32574DOD     C241542  16.749  14.717   2.449  0.0468 -0.2657 -0.0834
32574DOD     C341543  17.042  14.875   2.779 -0.2108 -0.3580 -0.2264
32575DOD     C141544  21.238  28.079  30.115 -0.1146 -0.0430  0.1463
32575DOD     C241545  20.791  28.049  30.193  0.0273  0.0634 -0.3687
32575DOD     C341546  20.391  27.815  30.168  0.1533  0.3306  0.2999
32576DOD     C141547   4.188  15.216  30.049 -0.1055  0.2841 -0.3432
32576DOD     C241548   4.653  15.399  30.037 -0.1747 -0.0957  0.3007
32576DOD     C341549   5.027  15.668  30.092  0.0417 -0.3142 -0.3413
32577DOD     C141550   7.846  20.170  16.307  0.1723 -0.2967  0.1123
32577DOD     C241551   7.839  20.663  16.411 -0.2962  0.0253 -0.2780
32577DOD     C341552   8.104  21.056  16.462 -0.0597 -0.2858 -0.2214
32578DOD     C141553   5.498  23.085  27.889  0.0029  0.0978 -0.2877
32578DOD     C241554   5.572  23.469  28.153 -0.1028 -0.1684  0.0310
32578DOD     C341555   5.742  23.727  28.560 -0.1489  0.1251 -0.1601
32579DOD     C141556  12.987  25.955   5.844  0.0570 -0.0306  0.1840
32579DOD     C241557  13.130  26.340   6.061  0.0702 -0.0744 -0.1124
32579DOD     C341558  13.217  26.794   6.065 -0.1827  0.2421 -0.3187
32580DOD     C141559   6.211   4.806   6.074 -0.1090  0.0211  0.0009
32580DOD     C241560   6.650   4.598   6.064  0.2001  0.3640 -0.0552
32580DOD     C341561   6.979   4.415   5.832 -0.1177 -0.0454  0.3130
32581DOD     C141562  23.947   5.685  25.922  0.0387  0.2581 -0.1769
32581DOD     C241563  24.071   5.416  26.261 -0.4292 -0.3280 -0.0435
32581DOD     C341564  24.303   5.172  26.613  0.1549 -0.3219  0.1337
32582DOD     C141565   5.814   9.937  26.890  0.0285 -0.0305 -0.1880
32582DOD     C241566   5.480   9.703  26.932  0.2221  0.0120  0.1355
32582DOD     C341567   5.092   9.530  26.719  0.0694 -0.0681 -0.1062
32583DOD     C141568  11.477   9.305   9.183 -0.2285 -0.0090  0.0021
32583DOD     C241569  11.698   9.152   8.777  0.0641  0.1827  0.0279
32583DOD     C341570  11.797   8.862   8.491 -0.0495  0.0220 -0.0873
32584DOD     C141571  22.066  17.779   3.206  0.3155 -0.0476 -0.0003
32584DOD     C241572  22.130  18.124   2.869 -0.0033  0.0514  0.0577
32584DOD     C341573  22.452  18.336   2.528  0.1501  0.1898  0.1809
32585DOD     C141574   4.672   3.929   1.326 -0.0680  0.1449  0.1399
32585DOD     C241575   4.942   3.703   0.930  0.0646  0.0415  0.2454
32585DOD     C341576   5.228   3.640   0.597  0.3453  0.0473 -0.1434
32586DOD     C141577   0.993   7.103  28.045 -0.0909 -0.1827  0.1648
32586DOD     C241578   0.667   7.414  27.925  0.2228 -0.2505 -0.1600
32586DOD     C341579   0.377   7.784  27.753 -0.0310 -0.2633  0.0167
32587DOD     C141580  14.293  21.273  16.852 -0.1873 -0.0006  0.2305
32587DOD     C241581  14.582  20.950  16.588  0.3975 -0.2064 -0.1908
32587DOD     C341582  14.795  20.689  16.236  0.1288 -0.0469 -0.0890
32588DOD     C141583   5.947  27.435  15.761 -0.0326  0.1677 -0.0164
32588DOD     C241584   5.720  27.046  15.975 -0.1648 -0.3097  0.1839
32588DOD     C341585   5.829  26.585  16.085  0.2735  0.1734  0.1558
32589DOD     C141586  23.711   8.557  18.567 -0.2926 -0.1637  0.1146
32589DOD     C241587  23.758   9.045  18.639  0.0891  0.0794  0.0729
32589DOD     C341588  23.813   9.570  18.737  0.4021  0.2030 -0.2453
32590DOD     C141589  16.772  19.311  14.276  0.2535  0.0245  0.1474
32590DOD     C241590  16.910  18.862  14.148 -0.1969  0.1484  0.1386
32590DOD     C341591  17.183  18.624  13.883 -0.1648  0.0405  0.1178
32591DOD     C141592  14.990  12.179  26.516  0.1661 -0.0678 -0.0577
32591DOD     C241593  14.964  11.925  26.110  0.1400  0.0142 -0.1222
32591DOD     C341594  14.833  11.507  26.060 -0.0871 -0.0147 -0.0387
32592DOD     C141595  19.699  21.905   5.783 -0.1997  0.1911 -0.0659
32592DOD     C241596  19.667  22.324   5.723 -0.1281  0.1367  0.2031
32592DOD     C341597  19.927  22.689   5.660 -0.0120 -0.1020  0.0463
32593DOD     C141598   9.947   3.032  19.179 -0.2614 -0.0058 -0.1833
32593DOD     C241599   9.710   2.746  18.940 -0.0293  0.0489 -0.2156
32593DOD     C341600   9.460   2.347  18.795  0.3731 -0.0165 -0.2074
32594DOD     C141601   7.176  19.135  10.962 -0.0904  0.3273 -0.0190
32594DOD     C241602   6.732  19.313  10.961 -0.0158  0.1154  0.0339
32594DOD     C341603   6.607  19.785  10.912 -0.0720  0.1636 -0.0839
32595DOD     C141604  16.504   7.404  10.375  0.2511  0.1962 -0.0233
32595DOD     C241605  16.839   7.731  10.359  0.0723 -0.3155  0.0487
32595DOD     C341606  17.138   8.015  10.459 -0.4365 -0.2341 -0.0709
32596DOD     C141607   9.755  12.755  10.321  0.3568 -0.1412  0.3691
32596DOD     C241608   9.536  12.675   9.958  0.2295  0.0177  0.3903
32596DOD     C341609   9.325  12.325   9.835  0.3870  0.0706  0.0271
32597DOD     C141610  19.506  23.458  26.759  0.0892 -0.2016 -0.1024
32597DOD     C241611  19.066  23.293  26.626  0.3764 -0.0111  0.2237
32597DOD     C341612  18.687  22.932  26.484  0.0012 -0.4689  0.1571
32598DOD     C141613  13.021   9.937  29.190 -0.2090 -0.1606 -0.0356
32598DOD     C241614  13.443   9.795  29.357  0.0341 -0.0607 -0.1018
32598DOD     C341615  13.565   9.372  29.567 -0.0018  0.0507  0.1507
32599DOD     C141616  20.120   3.883  14.691  0.0889  0.1979 -0.0763
32599DOD     C241617  20.306   3.514  14.930 -0.1358  0.2487  0.1028
32599DOD     C341618  20.638   3.186  14.862  0.1368  0.0246  0.1139
32600DOD     C141619  23.021   0.426   1.614  0.1523  0.0566 -0.3566
32600DOD     C241620  23.153   0.015   1.395 -0.0750 -0.0250  0.2627
32600DOD     C341621  23.457  30.045   1.138  0.0552  0.0465  0.0165
32601DOD     C141622   3.686  27.725  20.979 -0.2450 -0.0593 -0.1611
32601DOD     C241623   3.798  27.222  20.954 -0.1109  0.2349 -0.4911
32601DOD     C341624   4.126  26.819  20.928  0.0637 -0.0316  0.3873
32602DOD     C141625  20.475  21.284  21.779  0.0757 -0.3034  0.0033
32602DOD     C241626  20.471  20.758  21.638 -0.0716  0.0468  0.1023
32602DOD     C341627  20.211  20.308  21.568 -0.1820  0.4071 -0.2223
32603DOD     C141628  17.791  10.593  29.375  0.1579  0.3600 -0.1504
32603DOD     C241629  17.938  11.059  29.289  0.0197  0.1236  0.1846
32603DOD     C341630  17.791  11.419  29.094  0.0850  0.0253 -0.0155
32604DOD     C141631  28.123  27.533   3.743  0.2209  0.3758  0.1365
32604DOD     C241632  28.103  27.589   4.179  0.1609 -0.0974  0.1743
32604DOD     C341633  27.833  27.826   4.441  0.4182 -0.0774  0.1833
32605DOD     C141634   6.872  27.237   3.434  0.0606  0.0983  0.1055
32605DOD     C241635   7.098  27.308   3.840  0.1385 -0.3064 -0.0652
32605DOD     C341636   7.470  27.398   4.122  0.1513 -0.1683 -0.0594
32606DOD     C141637   9.933  28.445   0.416 -0.0677  0.1394  0.2293
32606DOD     C241638  10.165  28.653   0.093  0.0417 -0.0631 -0.0812
32606DOD     C341639   9.942  28.847  30.030 -0.1497 -0.2204  0.2191
32607DOD     C141640   5.816   4.310  14.532 -0.0492  0.2184  0.0519
32607DOD     C241641   5.895   3.913  14.356  0.1378 -0.0062 -0.0336
32607DOD     C341642   5.714   3.516  14.110 -0.1942  0.1129  0.0686
32608DOD     C141643  23.590  26.360  26.722 -0.0143 -0.1135 -0.1001
32608DOD     C241644  23.259  26.644  26.899  0.3344  0.5191 -0.1091
32608DOD     C341645  22.957  26.703  27.193 -0.1217  0.3017 -0.2118
32609DOD     C141646  19.604  17.299  16.765 -0.2008 -0.1029 -0.0069
32609DOD     C241647  19.159  17.298  16.755 -0.2459  0.0730  0.2020
32609DOD     C341648  18.788  17.268  16.987  0.0836  0.3537  0.2494
32610DOD     C141649   0.793  17.626   3.035  0.1650 -0.5621 -0.3448
32610DOD     C241650   0.839  18.085   2.969  0.3256  0.1137 -0.0655
32610DOD     C341651   0.791  18.549   2.895  0.0346 -0.1374 -0.1545
32611DOD     C141652  15.784   6.056  22.296 -0.1415 -0.0082 -0.0881
32611DOD     C241653  15.520   6.184  22.006 -0.0783 -0.0151  0.0870
32611DOD     C341654  15.330   6.063  21.573  0.2693  0.0821 -0.2936
32612DOD     C141655  11.228  11.895  12.228 -0.0800  0.0501 -0.1638
32612DOD     C241656  11.497  11.859  12.612  0.3313 -0.1870 -0.0008
32612DOD     C341657  11.417  11.810  13.037  0.2500 -0.0065  0.1631
32613DOD     C141658  27.849  19.561  14.763  0.2379  0.1633 -0.0811
32613DOD     C241659  27.436  19.449  14.967  0.1875  0.0314 -0.1098
32613DOD     C341660  26.974  19.342  14.829  0.1994 -0.0917  0.2277
32614DOD     C141661   3.083  27.081  15.114 -0.3043  0.1118 -0.1727
32614DOD     C241662   2.727  27.106  15.445  0.2427 -0.3263 -0.0159
32614DOD     C341663   2.299  27.323  15.382 -0.2835 -0.0032 -0.0693
32615DOD     C141664  25.378   6.394   9.063 -0.2666  0.1509 -0.0222
32615DOD     C241665  25.679   6.636   8.762  0.0619  0.3483  0.1676
32615DOD     C341666  26.035   6.794   8.525  0.0290 -0.0674 -0.1954
32616DOD     C141667   9.088  27.075   6.233 -0.0436 -0.2143  0.5069
32616DOD     C241668   9.243  27.435   5.972  0.1840  0.0728 -0.1078
32616DOD     C341669   9.320  27.888   5.917 -0.3569  0.2907  0.0487
32617DOD     C141670  23.118  29.790   7.192 -0.0108 -0.1159  0.0366
32617DOD     C241671  22.950  30.236   6.999  0.0183  0.2503 -0.0858
32617DOD     C341672  23.122   0.319   6.954  0.2209  0.2580 -0.0653
32618DOD     C141673  29.845  26.681  26.792 -0.0813  0.0108 -0.1644
32618DOD     C241674  30.050  26.279  26.622  0.3158  0.0165 -0.0563
32618DOD     C341675  29.908  26.017  26.249 -0.0993  0.2140 -0.1093
32619DOD     C141676  25.918   4.343   0.539  0.0713  0.1451  0.1472
32619DOD     C241677  25.617   4.137   0.334  0.0551 -0.1363 -0.0017
32619DOD     C341678  25.214   4.156   0.335  0.0937  0.2301  0.3343
32620DOD     C141679  17.746  28.024   0.459 -0.0019  0.4936 -0.3393
32620DOD     C241680  18.123  27.928   0.202 -0.0678 -0.0755  0.1294
32620DOD     C341681  18.252  27.810  30.087  0.0148  0.3136  0.0250
32621DOD     C141682  12.729  17.880  26.395 -0.3130  0.0825 -0.0226
32621DOD     C241683  12.354  18.111  26.246 -0.3008  0.0092 -0.3936
32621DOD     C341684  11.965  18.351  26.074 -0.0271  0.0882  0.3334
32622DOD     C141685   0.571  29.948  23.693 -0.2646 -0.1461 -0.1904
32622DOD     C241686   0.171  29.753  23.589  0.1504 -0.0457 -0.0617
32622DOD     C341687  30.083  29.689  23.764  0.0318  0.1073 -0.1586
32623DOD     C141688  24.289  16.555   1.108 -0.0080 -0.0112 -0.2392
32623DOD     C241689  24.395  16.405   1.481  0.1552 -0.0127  0.0228
32623DOD     C341690  24.756  16.360   1.815 -0.0576 -0.0891  0.2080
32624DOD     C141691  22.444  17.939   2.176  0.1460 -0.2402 -0.0889
32624DOD     C241692  22.111  17.855   1.880  0.0900  0.0926 -0.1084
32624DOD     C341693  21.946  17.955   1.398  0.0709 -0.1025 -0.1111
32625DOD     C141694  27.696  26.243  29.730  0.0906  0.1974 -0.1608
32625DOD     C241695  27.525  26.321  29.297 -0.1025  0.0797  0.3284
32625DOD     C341696  27.464  26.177  28.865 -0.1111 -0.1401 -0.1626
32626DOD     C141697   4.258   3.953  29.375  0.2406 -0.0745 -0.0643
32626DOD     C241698   4.257   3.456  29.382  0.4266 -0.1998 -0.0091
32626DOD     C341699   4.487   3.193  29.088 -0.1322 -0.0317 -0.2971
32627DOD     C141700  29.453  22.460   0.329  0.0526  0.2821 -0.0563
32627DOD     C241701  29.303  22.828   0.582 -0.0460 -0.1479 -0.1201
32627DOD     C341702  28.956  22.894   0.856 -0.1946  0.4202  0.0626
32628DOD     C141703   6.619   6.274  18.256  0.2518  0.0292 -0.1698
32628DOD     C241704   6.658   5.814  18.215  0.0613  0.0900 -0.0660
32628DOD     C341705   6.673   5.482  17.884 -0.1114 -0.7723  0.2417
32629DOD     C141706  24.145  28.359   7.910  0.0576 -0.0857 -0.1286
32629DOD     C241707  23.990  28.575   8.285  0.0199  0.1689  0.1111
32629DOD     C341708  23.849  28.477   8.705  0.0043  0.1651 -0.2897
32630DOD     C141709  11.711  20.776  15.163  0.0191  0.0742 -0.3992
32630DOD     C241710  11.296  20.976  15.019  0.1820 -0.0663  0.0850
32630DOD     C341711  11.136  21.144  14.633  0.2213  0.0738  0.2608
32631DOD     C141712  18.024  16.761  18.892 -0.1372 -0.1374  0.0177
32631DOD     C241713  18.450  16.731  18.820 -0.2377  0.0327 -0.4786
32631DOD     C341714  18.740  17.002  18.556 -0.1445 -0.2762 -0.0280
32632DOD     C141715  19.848   5.057  10.593  0.0438  0.1127 -0.0442
32632DOD     C241716  20.174   5.027  10.847  0.2355 -0.0231 -0.2054
32632DOD     C341717  20.501   5.288  11.025  0.1678  0.2123  0.3312
32633DOD     C141718   6.644  14.082  22.816  0.0261  0.0194  0.1799
32633DOD     C241719   6.885  14.417  22.951 -0.2511 -0.2280 -0.2568
32633DOD     C341720   7.123  14.627  23.292 -0.1435 -0.0453 -0.3792
32634DOD     C141721  27.094  22.345  28.556  0.1933  0.0969 -0.5307
32634DOD     C241722  27.035  22.210  28.112 -0.1058  0.6457  0.1215
32634DOD     C341723  26.697  21.988  27.865  0.2083  0.0344  0.0965
32635DOD     C141724  14.726  11.701  11.653 -0.3102  0.0357  0.1925
32635DOD     C241725  15.047  11.526  11.922 -0.2492 -0.1112 -0.0943
32635DOD     C341726  15.389  11.363  12.200 -0.3993 -0.2669 -0.0207
32636DOD     C141727  17.971   1.094   2.860  0.2636 -0.1300 -0.1211
32636DOD     C241728  18.293   1.444   2.908 -0.0030  0.1817 -0.0489
32636DOD     C341729  18.524   1.732   2.659  0.1300  0.2941 -0.0376
32637DOD     C141730  16.659   0.522  26.262 -0.3632  0.3313 -0.0605
32637DOD     C241731  16.937   0.356  26.540 -0.0222  0.1599  0.2508
32637DOD     C341732  17.065   0.295  26.972 -0.0155  0.3154  0.2297
32638DOD     C141733  15.611   3.631   9.711 -0.2878 -0.0139  0.2634
32638DOD     C241734  15.337   3.790  10.034 -0.0702  0.0992 -0.2060
32638DOD     C341735  15.292   4.051  10.401 -0.2450 -0.1268  0.0214
32639DOD     C141736  26.229  15.881  23.446 -0.0029  0.2696  0.3662
32639DOD     C241737  26.053  15.473  23.430  0.1023 -0.1790  0.4601
32639DOD     C341738  25.781  15.145  23.573 -0.1634 -0.3024 -0.3815
32640DOD     C141739   5.992  16.541  12.548 -0.1574 -0.2861 -0.2608
32640DOD     C241740   6.029  16.467  13.004  0.3704 -0.0674  0.0117
32640DOD     C341741   6.253  16.457  13.424  0.0477  0.0319 -0.2080
32641DOD     C141742  14.745  19.944   7.391 -0.0619 -0.0067 -0.0662
32641DOD     C241743  14.379  20.160   7.611  0.1792 -0.2573  0.1625
32641DOD     C341744  14.044  20.429   7.808  0.3763 -0.1299  0.0604
32642DOD     C141745   5.988  25.247  15.138  0.0865  0.1856 -0.1753
32642DOD     C241746   5.962  25.179  15.577  0.1906 -0.1440  0.3030
32642DOD     C341747   5.828  25.502  15.854  0.3374 -0.2446  0.2063
32643DOD     C141748   5.164  28.109   6.667 -0.1496  0.1490 -0.0596
32643DOD     C241749   4.958  27.766   6.395  0.0765 -0.3540  0.1719
32643DOD     C341750   4.591  27.497   6.318  0.1963 -0.3102 -0.2308
32644DOD     C141751  11.266  26.233   8.673 -0.5892  0.0327  0.1142
32644DOD     C241752  11.585  25.970   8.964  0.0392  0.1589 -0.0601
32644DOD     C341753  11.970  25.704   8.959  0.0779 -0.0345  0.1726
32645DOD     C141754   6.834  13.613  29.837 -0.1216 -0.0034 -0.0910
32645DOD     C241755   6.530  13.740  30.107 -0.2239 -0.1604  0.2406
32645DOD     C341756   6.474  14.045   0.133  0.0143  0.3462  0.0063
32646DOD     C141757  29.346  17.902  22.763  0.0121  0.1400 -0.0123
32646DOD     C241758  29.481  18.086  23.179 -0.0275  0.0957 -0.2011
32646DOD     C341759  29.856  18.093  23.437  0.0532 -0.3431  0.0386
32647DOD     C141760  12.349  11.257  11.016  0.3302 -0.0929  0.4312
32647DOD     C241761  12.333  11.756  10.810  0.2926 -0.0173 -0.1517
32647DOD     C341762  12.597  12.121  10.757  0.1200 -0.0063  0.0652
32648DOD     C141763  15.387  25.505  26.807  0.1167 -0.0445 -0.1924
32648DOD     C241764  15.536  25.528  26.442  0.1720 -0.1237  0.0932
32648DOD     C341765  15.727  25.643  26.012  0.2896  0.0124 -0.0445
32649DOD     C141766  16.251   7.525  26.443  0.0280  0.0692  0.1611
32649DOD     C241767  16.491   7.131  26.391 -0.0834  0.3473  0.2318
32649DOD     C341768  16.820   6.800  26.299 -0.0115 -0.2672  0.1649
32650DOD     C141769  16.026  22.027  17.291 -0.0833 -0.0622  0.0538
32650DOD     C241770  16.146  21.935  16.822  0.1778  0.1532 -0.0814
32650DOD     C341771  16.328  22.252  16.542  0.0030  0.1529 -0.0314
32651DOD     C141772  23.383  22.478  25.862  0.1801  0.1163  0.1851
32651DOD     C241773  23.201  22.787  25.531  0.0061  0.1710 -0.2121
32651DOD     C341774  23.286  23.141  25.278  0.1177 -0.1032 -0.0331
32652DOD     C141775  10.395   3.443   9.465  0.0453 -0.1382 -0.1427
32652DOD     C241776  10.641   3.597   9.795  0.2676  0.2350 -0.1399
32652DOD     C341777  10.761   3.483  10.244  0.0901 -0.1546  0.0993
32653DOD     C141778   8.251   1.468  25.496  0.2436 -0.1158  0.2515
32653DOD     C241779   8.167   1.758  25.154  0.0082  0.0496  0.1301
32653DOD     C341780   7.990   2.095  24.835 -0.3517  0.0898  0.1066
32654DOD     C141781   6.139  12.721   3.670 -0.0821  0.1641  0.3586
32654DOD     C241782   6.192  12.455   3.298 -0.0305 -0.2703 -0.1489
32654DOD     C341783   6.389  12.180   2.975 -0.2612 -0.4249  0.2940
32655DOD     C141784  26.870  11.915   8.290  0.1566  0.0181 -0.0463
32655DOD     C241785  26.423  11.724   8.166 -0.0240 -0.1986  0.3058
32655DOD     C341786  25.972  11.679   8.234  0.1230  0.0689  0.3114
32656DOD     C141787   5.018  17.363  10.585  0.1076  0.5433 -0.1075
32656DOD     C241788   5.280  17.694  10.753 -0.0256  0.1517 -0.0860
32656DOD     C341789   5.509  18.048  10.651  0.1440  0.2605 -0.0888
32657DOD     C141790  12.671  18.253  10.533  0.2603  0.1278 -0.0602
32657DOD     C241791  12.270  18.354  10.401 -0.0765 -0.3138 -0.0603
32657DOD     C341792  11.863  18.330  10.663 -0.1063 -0.1418 -0.1807
32658DOD     C141793   6.117  22.482  15.663 -0.2877 -0.0667  0.0107
32658DOD     C241794   6.072  22.884  15.921 -0.0553 -0.1808  0.0999
32658DOD     C341795   5.861  23.278  16.070 -0.0029  0.2256  0.2782
32659DOD     C141796   1.173  27.908  12.524 -0.0043 -0.0102 -0.2020
32659DOD     C241797   1.134  28.183  12.904  0.3147  0.1697  0.0479
32659DOD     C341798   1.401  28.531  12.967  0.0213 -0.3832 -0.0733
32660DOD     C141799  24.286   3.555  16.951  0.1214 -0.1393 -0.1164
32660DOD     C241800  24.264   3.944  16.710 -0.3416  0.1017 -0.2899
32660DOD     C341801  24.273   4.393  16.570  0.0737  0.0974  0.1021
32661DOD     C141802  17.328  29.830  25.144 -0.1132 -0.0434 -0.1560
32661DOD     C241803  17.603  30.050  24.855 -0.1913 -0.1822 -0.0804
32661DOD     C341804  17.945  30.223  24.627 -0.0669  0.1154  0.1093
32662DOD     C141805   4.612  23.484  22.986 -0.0037  0.1943 -0.2942
32662DOD     C241806   4.630  23.803  23.351  0.3086 -0.3031  0.1512
32662DOD     C341807   4.473  24.259  23.258  0.0370 -0.1243  0.0261
32663DOD     C141808   4.890  26.664  13.855  0.0072 -0.1614  0.0148
32663DOD     C241809   5.324  26.769  13.787  0.1906 -0.1087  0.0086
32663DOD     C341810   5.699  26.853  14.023  0.0360 -0.0598 -0.0188
32664DOD     C141811  21.898   3.722  18.201 -0.0997  0.0456  0.0345
32664DOD     C241812  21.966   3.272  18.185  0.2245 -0.1930 -0.1855
32664DOD     C341813  22.307   2.912  18.033  0.1933 -0.0380 -0.1369
32665DOD     C141814  25.225  10.367  18.235  0.1191  0.2502  0.1306
32665DOD     C241815  25.243  10.324  17.764 -0.2065  0.1075 -0.1443
32665DOD     C341816  25.159  10.443  17.335  0.2879  0.1978 -0.2572
32666DOD     C141817  20.638  19.907  12.033 -0.0025  0.2136  0.2972
32666DOD     C241818  20.453  19.851  11.573  0.1319 -0.0103 -0.0378
32666DOD     C341819  20.410  19.829  11.105  0.1704 -0.3492  0.5858
32667DOD     C141820   0.012  27.648  23.361  0.0043 -0.2063  0.0522
32667DOD     C241821   0.135  27.251  23.194 -0.1971  0.1027  0.1621
32667DOD     C341822   0.035  27.056  22.774  0.1088 -0.1750 -0.3747
32668DOD     C141823   3.150  13.849  25.567 -0.1873 -0.0522 -0.0972
32668DOD     C241824   3.596  13.972  25.595 -0.0398 -0.0687 -0.1037
32668DOD     C341825   3.957  14.298  25.506  0.0651 -0.3914 -0.2568
32669DOD     C141826   1.066  19.198  27.813 -0.0301 -0.0544  0.0422
32669DOD     C241827   1.504  19.067  27.754 -0.2011 -0.2005  0.0598
32669DOD     C341828   2.026  19.058  27.844 -0.4807  0.0027  0.2366
32670DOD     C141829  10.692  27.656   3.625 -0.1141 -0.4123 -0.1655
32670DOD     C241830  10.821  28.131   3.658  0.0429 -0.0303  0.0141
32670DOD     C341831  10.790  28.433   3.928 -0.1618 -0.1463  0.0502
32671DOD     C141832   6.018   8.371  10.810 -0.0202 -0.0175  0.1109
32671DOD     C241833   5.884   8.027  10.990 -0.1294 -0.2061  0.2397
32671DOD     C341834   5.590   7.686  11.055  0.0052 -0.1749  0.0435
32672DOD     C141835  12.230  13.933  24.726 -0.1986  0.0892 -0.0919
32672DOD     C241836  12.108  13.777  25.113  0.3736  0.2237 -0.1618
32672DOD     C341837  11.752  13.543  25.438 -0.1408  0.0438  0.1407
32673DOD     C141838  22.292  19.684  10.841  0.3394  0.2285  0.0776
32673DOD     C241839  22.138  20.104  10.900 -0.0312  0.2381 -0.0719
32673DOD     C341840  21.999  20.540  10.862  0.2620 -0.0167 -0.1809
32674DOD     C141841   7.726  17.853  24.560  0.0409  0.1988  0.0326
32674DOD     C241842   7.529  17.459  24.384  0.0712  0.0948  0.1513
32674DOD     C341843   7.218  17.216  24.239  0.2057 -0.2705  0.2526
32675DOD     C141844   8.322  23.753  28.039 -0.1532 -0.2203  0.1504
32675DOD     C241845   8.526  23.690  28.462  0.1937  0.0543  0.2568
32675DOD     C341846   8.811  23.583  28.773  0.1361 -0.3135 -0.2030
32676DOD     C141847  24.795   4.653  29.891  0.2117 -0.1579  0.0679
32676DOD     C241848  25.096   4.685  30.250  0.3441  0.0003 -0.0876
32676DOD     C341849  25.381   5.044  30.106 -0.2529  0.1145 -0.1375
32677DOD     C141850   2.818  15.800  18.688  0.3069 -0.0397 -0.0717
32677DOD     C241851   2.744  16.139  19.017  0.0845 -0.1637 -0.0580
32677DOD     C341852   2.934  16.521  19.186 -0.1927  0.0266  0.3098
32678DOD     C141853  25.073  11.228  15.997 -0.1078 -0.0461 -0.0070
32678DOD     C241854  25.058  11.099  16.466 -0.0597  0.0557  0.1285
32678DOD     C341855  25.185  11.093  16.882  0.1478 -0.1576  0.1568
32679DOD     C141856   2.942  14.898  14.785 -0.1330  0.1347  0.1063
32679DOD     C241857   2.695  15.284  14.694  0.0970  0.6844  0.1345
32679DOD     C341858   2.720  15.652  14.385  0.1146 -0.0033 -0.2133
32680DOD     C141859  10.351  20.873  26.895 -0.2131 -0.0063 -0.3601
32680DOD     C241860  10.466  20.894  26.419 -0.1404  0.3244  0.1151
32680DOD     C341861  10.765  20.899  26.090  0.1859  0.0792  0.1666
32681DOD     C141862   5.162   2.081   3.638  0.0326 -0.0239  0.2720
32681DOD     C241863   4.784   1.817   3.556  0.0730  0.1180 -0.2048
32681DOD     C341864   4.387   1.884   3.223 -0.0040 -0.2763  0.2021
32682DOD     C141865  21.749  25.380  17.793  0.5673 -0.1224 -0.1029
32682DOD     C241866  21.644  25.615  18.221 -0.0192 -0.0886  0.1895
32682DOD     C341867  21.805  26.026  18.338 -0.1108 -0.2165  0.0090
32683DOD     C141868  15.501  16.136  24.765  0.1282 -0.1862 -0.1540
32683DOD     C241869  15.841  16.158  24.490  0.1558  0.2319  0.1190
32683DOD     C341870  16.101  15.962  24.154 -0.3689  0.1771 -0.0712
32684DOD     C141871  19.172  15.359  28.582  0.0685  0.0062 -0.0878
32684DOD     C241872  18.803  15.585  28.707  0.0466 -0.1209  0.1753
32684DOD     C341873  18.379  15.571  28.981  0.0970  0.0158  0.2071
32685DOD     C141874  13.890  11.740   2.830  0.0338  0.0017 -0.0254
32685DOD     C241875  13.456  11.535   2.700 -0.2642  0.0164 -0.2295
32685DOD     C341876  13.038  11.513   2.896  0.1199 -0.3293 -0.0340
32686DOD     C141877  29.979  14.176  23.788  0.0349  0.0170  0.0790
32686DOD     C241878  29.935  13.761  24.017  0.1975 -0.0186  0.3185
32686DOD     C341879  30.094  13.634  24.432 -0.1413 -0.1029  0.3137
32687DOD     C141880  14.532  11.173   3.510  0.5343  0.1057  0.1431
32687DOD     C241881  14.754  10.751   3.594 -0.0298 -0.4545 -0.2061
32687DOD     C341882  15.058  10.529   3.858 -0.0109  0.1871 -0.0170
32688DOD     C141883  16.889  26.228  12.821 -0.0061  0.2156 -0.1947
32688DOD     C241884  17.199  26.486  12.640 -0.1352 -0.0769 -0.1051
32688DOD     C341885  17.305  26.865  12.367 -0.1952  0.0317 -0.1955
32689DOD     C141886  26.297  30.014   6.490 -0.0530  0.0756 -0.0610
32689DOD     C241887  25.799  30.113   6.420  0.1553 -0.0489 -0.0467
32689DOD     C341888  25.508  30.239   6.752  0.0847 -0.1906  0.1950
32690DOD     C141889  17.745  28.499  22.420  0.0033  0.2755  0.1201
32690DOD     C241890  18.006  28.321  22.052  0.2155 -0.0001 -0.1957
32690DOD     C341891  18.013  27.947  21.805 -0.1454 -0.0788  0.0398
32691DOD     C141892  29.111  28.767  12.464  0.0591 -0.3645 -0.0024
32691DOD     C241893  29.393  29.124  12.357 -0.3642 -0.1123 -0.2609
32691DOD     C341894  29.435  29.589  12.477 -0.0191  0.3697 -0.0798
32692DOD     C141895   8.965  11.163  10.335 -0.0859  0.0646 -0.0129
32692DOD     C241896   8.974  10.692  10.382 -0.1086 -0.1784 -0.1231
32692DOD     C341897   8.936  10.250  10.222 -0.0541 -0.0678  0.2294
32693DOD     C141898  15.405  28.187  27.849  0.0904  0.2654  0.2189
32693DOD     C241899  15.654  27.780  27.817  0.0930 -0.2258  0.0495
32693DOD     C341900  16.049  27.609  27.905  0.0275  0.1034 -0.0424
32694DOD     C141901  30.131   3.280  12.109  0.0632 -0.0153  0.0872
32694DOD     C241902  29.807   3.447  12.403  0.1056 -0.2734 -0.1073
32694DOD     C341903  29.755   3.788  12.709  0.2680  0.3229  0.2630
32695DOD     C141904  13.745  14.585   2.278 -0.1587 -0.0704 -0.1464
32695DOD     C241905  13.904  14.216   2.523 -0.0750 -0.0745 -0.0174
32695DOD     C341906  13.774  13.828   2.741 -0.0593 -0.4790  0.3393
32696DOD     C141907   3.197  30.139   8.927 -0.2763 -0.0578  0.3180
32696DOD     C241908   2.923  29.955   8.557  0.0274  0.3625  0.0823
32696DOD     C341909   2.494  30.030   8.399 -0.0973  0.2506  0.4429
32697DOD     C141910   1.765   4.444   7.702 -0.0889 -0.0912  0.0526
32697DOD     C241911   1.388   4.725   7.533  0.0263 -0.1417 -0.2947
32697DOD     C341912   1.281   5.100   7.451 -0.1831 -0.2372 -0.0388
32698DOD     C141913   1.151  16.149  28.552  0.1640  0.0832  0.1090
32698DOD     C241914   1.462  16.486  28.546 -0.1453 -0.0643 -0.2088
32698DOD     C341915   1.922  16.559  28.573 -0.1526  0.0990 -0.0812
32699DOD     C141916  30.135  23.889  12.710 -0.1053 -0.0427 -0.2716
32699DOD     C241917   0.051  24.288  12.544 -0.3419  0.1466 -0.0913
32699DOD     C341918   0.306  24.615  12.267 -0.0408  0.2886 -0.0585
32700DOD     C141919   5.498  14.994   8.094 -0.0629 -0.0259 -0.2865
32700DOD     C241920   5.838  14.696   8.114 -0.0161 -0.2712 -0.0883
32700DOD     C341921   6.220  14.494   8.278 -0.0275 -0.1649  0.3575
32701DOD     C141922  14.088  11.555  27.241  0.0334  0.0942  0.1245
32701DOD     C241923  13.993  11.389  26.808 -0.2469  0.3098 -0.0598
32701DOD     C341924  14.055  11.673  26.413 -0.0680 -0.0332  0.4608
32702DOD     C141925  28.086  30.155  16.289  0.1304 -0.1620 -0.1614
32702DOD     C241926  27.993   0.298  16.349 -0.1155  0.1199 -0.2314
32702DOD     C341927  27.732   0.349  16.758  0.2231  0.2084 -0.2249
32703DOD     C141928   9.665  14.624  25.342  0.3576 -0.3380 -0.0421
32703DOD     C241929   9.824  14.210  25.455  0.3547 -0.1905 -0.2526
32703DOD     C341930   9.856  13.815  25.667 -0.1457  0.2030 -0.0680
32704DOD     C141931   6.334  29.974   6.615  0.0715 -0.2190  0.0423
32704DOD     C241932   6.060  30.225   6.309 -0.0537  0.2607  0.0726
32704DOD     C341933   5.911   0.071   5.920  0.0294 -0.1474  0.0753
32705DOD     C141934  29.598  14.547  20.862 -0.2697 -0.1842  0.1040
32705DOD     C241935  29.752  14.794  21.258  0.2206 -0.1403  0.0447
32705DOD     C341936  29.721  15.171  21.527 -0.0547 -0.4584 -0.0463
32706DOD     C141937  18.222  27.097  16.417  0.0780  0.2425 -0.2176
32706DOD     C241938  17.838  27.308  16.666  0.0900  0.1436  0.0769
32706DOD     C341939  17.530  27.121  16.976  0.0710  0.3344  0.0150
32707DOD     C141940  18.668  15.814  28.154 -0.0283  0.1461 -0.1725
32707DOD     C241941  19.038  15.553  28.002  0.0301  0.2324 -0.1322
32707DOD     C341942  19.414  15.540  27.761 -0.0366 -0.1385 -0.0283
32708DOD     C141943   3.761  23.879  19.615 -0.5163  0.1733  0.0272
32708DOD     C241944   3.608  23.718  20.036  0.0636  0.1405  0.1020
32708DOD     C341945   3.421  23.295  20.096 -0.0002 -0.0577 -0.0975
32709DOD     C141946   9.473  17.310  27.134 -0.1239  0.0340  0.0632
32709DOD     C241947   9.872  17.044  27.198  0.0136 -0.3131  0.1017
32709DOD     C341948  10.323  17.202  27.190  0.2341  0.1548  0.0276
32710DOD     C141949  19.294  16.339   1.125 -0.1669  0.0219  0.0215
32710DOD     C241950  19.152  16.165   1.577 -0.1430  0.0254  0.0759
32710DOD     C341951  18.813  16.042   1.822  0.4809 -0.0008  0.2424
32711DOD     C141952   6.520   7.336  14.988  0.2159  0.0201 -0.1311
32711DOD     C241953   6.208   7.247  15.348 -0.1232  0.3020  0.1469
32711DOD     C341954   6.100   7.127  15.782  0.0116  0.1694  0.1701
32712DOD     C141955   7.658  26.969  22.284 -0.0204 -0.0564  0.0985
32712DOD     C241956   7.557  27.387  22.308 -0.2228  0.0309 -0.1253
32712DOD     C341957   7.218  27.629  22.081 -0.0332 -0.3878 -0.0427
32713DOD     C141958  24.443  16.276  23.878 -0.4061  0.2888  0.0320
32713DOD     C241959  24.692  16.446  24.304  0.0307 -0.0504  0.2321
32713DOD     C341960  24.741  16.753  24.777 -0.1020  0.0164  0.0038
32714DOD     C141961  18.414   0.982   7.681  0.1546 -0.0782  0.3589
32714DOD     C241962  18.090   0.885   7.378  0.3434 -0.0052  0.2061
32714DOD     C341963  17.820   0.954   6.980  0.2449  0.2896 -0.1217
32715DOD     C141964  19.013  13.735  12.471  0.0537 -0.3726  0.0775
32715DOD     C241965  19.077  13.287  12.473  0.1992  0.2908 -0.0388
32715DOD     C341966  19.268  12.819  12.420 -0.1123 -0.4112  0.0319
32716DOD     C141967   9.201  27.265  23.909 -0.1372 -0.0365 -0.2042
32716DOD     C241968   9.425  27.253  23.454  0.1075 -0.3206 -0.0528
32716DOD     C341969   9.766  27.217  23.122 -0.0266  0.1185 -0.1837
32717DOD     C141970   2.895  25.894  14.965  0.1608 -0.0733 -0.0148
32717DOD     C241971   3.249  26.021  15.335  0.1679  0.2546 -0.1185
32717DOD     C341972   3.557  25.716  15.597  0.1986 -0.1691 -0.2490
32718DOD     C141973   7.866  24.409   0.803  0.2157  0.0744 -0.1440
32718DOD     C241974   7.676  24.345   0.413 -0.2085  0.1909  0.0995
32718DOD     C341975   7.438  23.995   0.243  0.0298  0.1321  0.1006
32719DOD     C141976  11.180  17.713  11.754  0.0210 -0.2308 -0.0049
32719DOD     C241977  10.776  17.944  11.976  0.1033  0.1603 -0.0360
32719DOD     C341978  10.466  17.986  12.291  0.0087 -0.0121 -0.1209
32720DOD     C141979   0.782  17.568  17.414  0.2425  0.0760  0.2875
32720DOD     C241980   1.140  17.698  17.715 -0.0362 -0.1052  0.2806
32720DOD     C341981   1.574  17.564  17.930  0.0559  0.0228  0.3773
32721DOD     C141982  26.687  29.265   7.052 -0.1861 -0.1236 -0.1049
32721DOD     C241983  26.512  29.628   6.797  0.0289 -0.1932  0.0852
32721DOD     C341984  26.753  30.008   6.795  0.1420 -0.1189  0.0165
32722DOD     C141985  15.903  13.136  11.853  0.2727 -0.1734 -0.0664
32722DOD     C241986  15.673  13.283  12.249 -0.3963 -0.0065  0.2026
32722DOD     C341987  15.372  13.415  12.542 -0.3050 -0.4032  0.0417
32723DOD     C141988  22.727  23.411   4.472 -0.0263  0.2278 -0.1620
32723DOD     C241989  22.432  23.690   4.641 -0.0409 -0.2505 -0.3883
32723DOD     C341990  22.065  23.754   4.911  0.1091  0.1708  0.3261
32724DOD     C141991  24.955   3.147  25.972  0.2222  0.1102 -0.1154
32724DOD     C241992  24.923   2.926  25.525  0.0156  0.2646  0.3079
32724DOD     C341993  24.892   3.214  25.156  0.2881 -0.6471  0.0451
32725DOD     C141994  28.781   7.297  13.140 -0.2507 -0.0260 -0.0946
32725DOD     C241995  28.439   7.562  13.298 -0.0875 -0.2560 -0.3957
32725DOD     C341996  28.167   7.915  13.516  0.2511 -0.0554 -0.1464
32726DOD     C141997   5.381  21.414  11.381 -0.0681 -0.6040  0.1657
32726DOD     C241998   5.039  21.050  11.445 -0.0651 -0.0457 -0.0509
32726DOD     C341999   4.828  20.856  11.699 -0.1438  0.2943  0.1197
32727DOD     C142000   4.674  13.819  25.948 -0.1079 -0.0768 -0.1066
32727DOD     C242001   4.872  13.476  26.193  0.1543  0.2573 -0.1572
32727DOD     C342002   5.270  13.300  26.333 -0.1070 -0.1581  0.3046
32728DOD     C142003   3.246   1.483   7.325 -0.2175  0.0845  0.0118
32728DOD     C242004   2.951   1.058   7.398 -0.0698  0.0433  0.2822
32728DOD     C342005   2.535   1.051   7.553 -0.2041  0.2152 -0.1978
32729DOD     C142006  25.050   7.380  19.757 -0.3036  0.0017  0.0085
32729DOD     C242007  24.653   7.594  19.910  0.4564 -0.0909  0.0751
32729DOD     C342008  24.533   8.024  20.049  0.1033 -0.1538 -0.0242
32730DOD     C142009  19.162   5.817  15.344 -0.1751 -0.3828  0.3732
32730DOD     C242010  19.212   5.399  15.592  0.2207 -0.3320  0.1086
32730DOD     C342011  19.315   5.203  15.979  0.0490  0.1222 -0.0367
32731DOD     C142012  12.852   4.017  16.974  0.0124  0.3817 -0.3040
32731DOD     C242013  12.681   4.257  16.703  0.2860  0.2781 -0.0473
32731DOD     C342014  12.739   4.491  16.319 -0.0392 -0.1223  0.2330
32732DOD     C142015  12.208  15.057  12.590  0.1091 -0.1754 -0.0330
32732DOD     C242016  12.455  15.450  12.738 -0.0072 -0.1043  0.4132
32732DOD     C342017  12.605  15.767  13.020  0.0143  0.1269  0.1663
32733DOD     C142018  24.265  22.901  23.418 -0.1723 -0.0108  0.2046
32733DOD     C242019  23.871  23.183  23.494 -0.1167 -0.2635  0.0056
32733DOD     C342020  23.788  23.647  23.527  0.0737  0.0130  0.1640
32734DOD     C142021   7.346  12.301   5.179  0.0132  0.0359 -0.2012
32734DOD     C242022   7.583  12.218   5.525  0.1801  0.2852  0.0658
32734DOD     C342023   7.409  11.984   5.861 -0.3511 -0.2555  0.0321
32735DOD     C142024   8.558  16.478  19.731  0.3755  0.2155  0.2545
32735DOD     C242025   8.333  16.518  20.116 -0.1504 -0.0559 -0.3063
32735DOD     C342026   8.130  16.773  20.428  0.4989  0.3222  0.0194
32736DOD     C142027   4.813   9.489  21.946 -0.0947  0.0339 -0.2208
32736DOD     C242028   5.024   9.185  21.668 -0.0855  0.1795  0.1192
32736DOD     C342029   5.066   9.071  21.203 -0.0006 -0.3200 -0.0304
32737DOD     C142030  30.015  29.439  14.066  0.2497 -0.1059 -0.2516
32737DOD     C242031  29.950  29.024  14.307 -0.1411 -0.1542 -0.0732
32737DOD     C342032  29.678  28.799  14.584  0.1761  0.0695  0.0921
32738DOD     C142033  16.820  20.721   8.922  0.2595  0.2950 -0.0556
32738DOD     C242034  16.524  20.375   8.680 -0.0905 -0.1144  0.0716
32738DOD     C342035  16.095  20.152   8.491 -0.0642 -0.3071  0.0354
32739DOD     C142036   6.614   6.736   0.464  0.2133 -0.0925 -0.0347
32739DOD     C242037   6.625   7.206   0.536  0.1756 -0.0426  0.1330
32739DOD     C342038   6.686   7.398   0.937  0.2369  0.0929  0.0274
32740DOD     C142039   0.266  20.142  14.830 -0.0120 -0.2455  0.1765
32740DOD     C242040   0.542  19.747  14.864  0.0564  0.1010  0.0131
32740DOD     C342041   0.851  19.380  14.789 -0.1408  0.0006 -0.1662
32741DOD     C142042  29.333  15.525   9.105 -0.1738 -0.1170 -0.0568
32741DOD     C242043  29.506  15.084   9.162 -0.0826  0.1719 -0.3499
32741DOD     C342044  29.596  14.690   9.453  0.0007  0.2539  0.0519
32742DOD     C142045  24.420  25.231  30.106 -0.0151  0.2481 -0.1979
32742DOD     C242046  24.416  24.873  29.756  0.0609 -0.2001  0.2171
32742DOD     C342047  24.604  24.861  29.273  0.2754  0.2214  0.3162
32743DOD     C142048   7.162  10.740  10.957 -0.1023 -0.4405  0.0359
32743DOD     C242049   7.425  10.945  11.303  0.4067 -0.0923 -0.3045
32743DOD     C342050   7.672  11.131  11.612 -0.2239  0.0588 -0.5400
32744DOD     C142051  19.280  16.477  28.607 -0.2968  0.1134  0.0467
32744DOD     C242052  18.845  16.270  28.721  0.1888 -0.2283  0.2984
32744DOD     C342053  18.413  16.037  28.687  0.0759 -0.2765  0.0488
32745DOD     C142054  28.555   3.246   9.619  0.1096 -0.1133  0.2460
32745DOD     C242055  28.869   2.881   9.682  0.1467 -0.1348  0.0961
32745DOD     C342056  28.974   2.451   9.744  0.0563  0.1731 -0.1029
32746DOD     C142057  24.348  29.446  13.846  0.1451  0.0458 -0.1401
32746DOD     C242058  24.800  29.364  13.655  0.0150  0.2053 -0.3793
32746DOD     C342059  25.179  29.336  13.406 -0.4562  0.2715 -0.1583
32747DOD     C142060  15.016  19.614  13.400 -0.0264 -0.0995  0.1601
32747DOD     C242061  15.100  19.398  13.846  0.2346 -0.0575  0.1690
32747DOD     C342062  15.402  19.074  14.005  0.3801  0.1205  0.1600
32748DOD     C142063   9.588  10.812  15.580 -0.0916 -0.0953  0.0448
32748DOD     C242064   9.721  11.227  15.601 -0.1315  0.0251 -0.1486
32748DOD     C342065   9.884  11.641  15.811  0.0770  0.2770 -0.0958
32749DOD     C142066  12.200  29.782  24.360 -0.0604 -0.2788  0.1892
32749DOD     C242067  12.253  30.128  24.692  0.0465  0.0203 -0.1740
32749DOD     C342068  12.153   0.236  24.890  0.0194 -0.0860  0.2664
32750DOD     C142069  21.773  10.634  17.439  0.0941 -0.0387 -0.1085
32750DOD     C242070  21.418  10.644  17.137 -0.0997  0.2827  0.1077
32750DOD     C342071  21.249  10.599  16.762  0.1541 -0.3197 -0.1032
32751DOD     C142072   9.394  29.313  23.041  0.2182 -0.3048 -0.1004
32751DOD     C242073   9.307  29.752  22.901  0.1436  0.0325 -0.0548
32751DOD     C342074   9.015  30.041  23.143  0.1874 -0.0411 -0.0940
32752DOD     C142075  27.317  23.204  29.729  0.0433  0.1293  0.1981
32752DOD     C242076  27.580  22.841  29.838  0.1964  0.1189  0.1160
32752DOD     C342077  27.781  22.430  29.759 -0.1502 -0.1003  0.2367
32753DOD     C142078  27.739  12.222   1.330 -0.0375 -0.0386  0.0052
32753DOD     C242079  27.560  11.983   1.690 -0.1755 -0.4416  0.0062
32753DOD     C342080  27.323  11.732   2.018  0.0342  0.0483  0.0887
32754DOD     C142081  22.658  24.008  21.230  0.0470  0.2876 -0.0623
32754DOD     C242082  22.421  23.983  21.582 -0.0847  0.0528  0.0424
32754DOD     C342083  22.364  23.920  22.010  0.1071 -0.0330 -0.1336
32755DOD     C142084  23.942  14.555  20.517 -0.1216 -0.3088  0.0310
32755DOD     C242085  23.802  14.872  20.886  0.0721 -0.0990  0.3702
32755DOD     C342086  23.824  15.264  21.109  0.0059  0.0776 -0.0626
32756DOD     C142087  23.706  21.736  22.950  0.0516  0.4471  0.1249
32756DOD     C242088  23.654  22.176  23.098  0.2955  0.1958  0.1191
32756DOD     C342089  23.777  22.611  23.160  0.2007 -0.1628 -0.0760
32757DOD     C142090  27.220   1.180  26.964 -0.2904 -0.1286 -0.2171
32757DOD     C242091  27.668   1.021  27.163  0.0891 -0.0350  0.1681
32757DOD     C342092  28.057   0.907  27.392 -0.2100  0.2596  0.1518
32758DOD     C142093   5.766  18.231  23.693  0.0559  0.1134 -0.1610
32758DOD     C242094   6.108  17.850  23.693 -0.1435  0.0087 -0.3015
32758DOD     C342095   6.595  17.778  23.565 -0.0340 -0.1531  0.0400
32759DOD     C142096  25.805  19.467  12.863 -0.0983  0.0556 -0.2033
32759DOD     C242097  25.652  19.736  13.222  0.0289  0.0366 -0.1031
32759DOD     C342098  25.372  20.056  13.449  0.3870 -0.0073 -0.2835
32760DOD     C142099   0.553   3.860   4.828 -0.4375  0.4120 -0.1946
32760DOD     C242100   0.901   3.927   5.086 -0.0415 -0.0029 -0.2313
32760DOD     C342101   1.270   3.969   5.320 -0.2222 -0.0011 -0.2060
32761DOD     C142102  18.855  16.704  21.845  0.0783 -0.3232  0.0646
32761DOD     C242103  18.600  16.610  21.477 -0.2331  0.2862  0.0160
32761DOD     C342104  18.286  16.459  21.183  0.2659 -0.2855  0.2043
32762DOD     C142105   5.239  10.999   2.842 -0.0222  0.0677 -0.0795
32762DOD     C242106   5.538  11.299   2.939  0.3431 -0.2461  0.0968
32762DOD     C342107   5.639  11.661   3.161  0.2141  0.0875  0.3122
32763DOD     C142108  28.207  18.072  29.552  0.0323 -0.0864  0.1090
32763DOD     C242109  28.166  18.185  29.149  0.0855  0.1574  0.1709
32763DOD     C342110  27.739  18.224  28.984 -0.1594  0.0333  0.0338
32764DOD     C142111   1.587  28.911   8.235  0.2770  0.1969  0.0000
32764DOD     C242112   2.005  28.753   8.001  0.1475 -0.1284  0.0354
32764DOD     C342113   2.216  28.512   7.649  0.1072  0.4706  0.0089
32765DOD     C142114   6.712  23.555   8.349  0.1677  0.0352  0.1778
32765DOD     C242115   6.315  23.777   8.459  0.0664 -0.1352  0.2246
32765DOD     C342116   5.966  23.934   8.205 -0.1154  0.2171 -0.5068
32766DOD     C142117  15.814  13.149   5.577  0.0705  0.1077  0.0568
32766DOD     C242118  15.718  13.455   5.832  0.1202 -0.1680 -0.2718
32766DOD     C342119  15.779  13.854   6.116 -0.0586  0.1421  0.0521
32767DOD     C142120  21.374   7.254   9.766  0.1262 -0.1620 -0.2933
32767DOD     C242121  21.607   7.649  10.012  0.0611  0.0315 -0.0332
32767DOD     C342122  21.974   7.902  10.237  0.0037 -0.2292 -0.2507
32768DOD     C142123   6.232  28.319  13.205  0.2941  0.1636 -0.0529
32768DOD     C242124   6.106  28.719  13.461  0.1146  0.0203 -0.0427
32768DOD     C342125   6.064  29.223  13.382 -0.1345  0.0969  0.3829
32769DOD     C142126  19.155  27.139  27.739  0.3788  0.2812 -0.0649
32769DOD     C242127  19.438  27.142  28.049  0.0200  0.0336  0.2434
32769DOD     C342128  19.787  27.431  28.080  0.0493  0.1135  0.0752
32770DOD     C142129  29.357  30.187  28.167  0.2081 -0.2032  0.1885
32770DOD     C242130  28.992  30.157  27.827 -0.1044  0.1508 -0.2589
32770DOD     C342131  28.616  30.015  27.539  0.4810 -0.3015 -0.0384
32771DOD     C142132  26.885  14.462   8.788 -0.3029 -0.4728 -0.0246
32771DOD     C242133  26.936  14.374   8.352  0.1643 -0.1985  0.1188
32771DOD     C342134  27.310  14.466   8.096  0.1092 -0.1542 -0.0155
32772DOD     C142135  23.742  11.762  18.955 -0.1958  0.1140 -0.1039
32772DOD     C242136  23.887  12.193  19.030  0.3070 -0.0997  0.1461
32772DOD     C342137  23.998  12.588  18.806  0.0916  0.0099 -0.1188
32773DOD     C142138   3.716   3.725  28.529  0.0345  0.2648 -0.1826
32773DOD     C242139   3.226   3.541  28.575  0.2713 -0.1217 -0.1190
32773DOD     C342140   2.815   3.733  28.442 -0.0171 -0.0008  0.1078
32774DOD     C142141  23.705  19.436  24.111 -0.2731 -0.3678 -0.0060
32774DOD     C242142  24.085  19.706  23.996 -0.1083  0.1256  0.0861
32774DOD     C342143  24.481  19.936  24.241  0.0637  0.1058  0.2755
32775DOD     C142144  19.061  24.835  13.682 -0.0108  0.4444 -0.1306
32775DOD     C242145  18.907  25.180  13.978  0.0364  0.0149  0.2837
32775DOD     C342146  18.720  25.303  14.365 -0.1988  0.1055  0.1472
32776DOD     C142147  11.762   7.533  16.617 -0.0055  0.2618  0.1808
32776DOD     C242148  11.678   7.422  16.164 -0.0157  0.0842  0.0487
32776DOD     C342149  11.379   7.300  15.868  0.0757  0.0161  0.0476
32777DOD     C142150   6.066  16.018   5.174 -0.0798 -0.0217  0.2177
32777DOD     C242151   5.657  15.944   5.023  0.0660 -0.2925  0.1832
32777DOD     C342152   5.506  15.558   4.714 -0.1820 -0.1416 -0.0189
32778DOD     C142153  26.763  12.193   5.693 -0.0545 -0.0137 -0.2677
32778DOD     C242154  26.503  11.845   5.550  0.0339  0.2917 -0.2893
32778DOD     C342155  26.600  11.412   5.357  0.3297  0.1844  0.1131
32779DOD     C142156   0.302  29.126  19.949  0.2109  0.0234  0.0283
32779DOD     C242157   0.165  28.666  19.934  0.0512  0.0699 -0.2992
32779DOD     C342158   0.023  28.344  20.286 -0.0766  0.2933 -0.0008
32780DOD     C142159  18.649  22.115  16.062  0.0127 -0.1962 -0.0543
32780DOD     C242160  18.749  22.549  15.808 -0.0713  0.2758 -0.0981
32780DOD     C342161  19.042  22.899  15.816 -0.1121  0.1637 -0.0018
32781DOD     C142162  10.461   0.668  17.416 -0.0464 -0.0899 -0.0894
32781DOD     C242163  10.329   1.090  17.685  0.2156  0.0687  0.3674
32781DOD     C342164  10.306   1.423  17.968 -0.0923  0.1438 -0.3249
32782DOD     C142165  21.261  11.970  11.853 -0.3070 -0.0718  0.0993
32782DOD     C242166  21.062  12.173  12.206 -0.5106 -0.1507 -0.2587
32782DOD     C342167  20.757  12.209  12.564  0.1208 -0.0574 -0.1224
32783DOD     C142168   5.194   8.001  27.558  0.2051  0.2497 -0.3011
32783DOD     C242169   5.500   7.662  27.751  0.2246  0.1288 -0.1166
32783DOD     C342170   5.866   7.626  28.023  0.1849  0.1658  0.2342
32784DOD     C142171  21.126  22.856   7.045 -0.1018 -0.3804 -0.1329
32784DOD     C242172  21.403  22.503   7.090 -0.2365  0.2706  0.1702
32784DOD     C342173  21.728  22.290   6.831  0.2246  0.1210  0.1767
32785DOD     C142174  10.211   2.135  25.649  0.5348  0.2845 -0.0684
32785DOD     C242175  10.072   2.037  26.081 -0.1237  0.0654  0.1029
32785DOD     C342176   9.848   2.206  26.495 -0.1261  0.2073  0.1436
32786DOD     C142177   0.542  27.086  24.299  0.1793  0.0166  0.1501
32786DOD     C242178   0.214  26.802  24.591 -0.1529 -0.3880 -0.0655
32786DOD     C342179  30.141  26.538  24.592  0.0901  0.1234  0.1966
32787DOD     C142180   0.413   9.998  18.830  0.2174  0.0992 -0.0492
32787DOD     C242181   0.841  10.128  19.032  0.3832  0.0124 -0.0698
32787DOD     C342182   1.282  10.313  18.895 -0.0741  0.0626 -0.2639
32788DOD     C142183  15.711  11.609  11.908 -0.0317 -0.2117  0.2593
32788DOD     C242184  16.065  11.425  12.147 -0.0815 -0.3971 -0.1874
32788DOD     C342185  16.445  11.181  12.189 -0.0249  0.1986  0.0324
32789DOD     C142186  15.151  16.831  16.320  0.2308 -0.1382 -0.2749
32789DOD     C242187  15.479  16.640  16.575 -0.0138  0.1814  0.0889
32789DOD     C342188  15.806  16.416  16.875 -0.2448 -0.0865 -0.2964
32790DOD     C142189  11.592  21.413   9.368  0.0371  0.1890 -0.0243
32790DOD     C242190  11.562  20.955   9.244 -0.2712 -0.1988  0.1334
32790DOD     C342191  11.584  20.566   8.903  0.1116 -0.0539 -0.0952
32791DOD     C142192  23.917   7.750   4.595  0.1313  0.1906 -0.0204
32791DOD     C242193  23.820   8.047   4.989 -0.2436 -0.1281 -0.0478
32791DOD     C342194  23.531   8.316   5.245  0.0236  0.0282 -0.0073
32792DOD     C142195  16.600  10.786  22.511  0.0872  0.2646  0.0065
32792DOD     C242196  16.646  11.241  22.666 -0.0361  0.3204  0.1750
32792DOD     C342197  16.677  11.747  22.714 -0.1973  0.1185 -0.0682
32793DOD     C142198  21.199  19.382  14.449  0.3205 -0.0354 -0.2195
32793DOD     C242199  21.090  19.824  14.454  0.3173 -0.0733 -0.0123
32793DOD     C342200  21.090  20.297  14.578  0.0974  0.0010  0.0815
32794DOD     C142201   0.548  24.535   7.225 -0.2209 -0.0331  0.1846
32794DOD     C242202   0.267  24.182   6.951 -0.0987  0.0024  0.1052
32794DOD     C342203   0.035  24.163   6.536 -0.0678 -0.0007 -0.1525
32795DOD     C142204  21.327  22.488  24.161  0.1387 -0.1263 -0.1362
32795DOD     C242205  20.941  22.565  23.898  0.0544 -0.0973  0.2930
32795DOD     C342206  20.677  22.647  23.533  0.0773 -0.3737 -0.3159
32796DOD     C142207  25.094  16.156   9.870  0.2427 -0.1290 -0.2305
32796DOD     C242208  24.950  15.708   9.787  0.2200 -0.1130  0.5165
32796DOD     C342209  24.643  15.394  10.040 -0.2075  0.5691  0.3404
32797DOD     C142210  11.543   9.439  22.836 -0.0423 -0.0660  0.0731
32797DOD     C242211  11.691   9.810  23.101 -0.0033  0.0243 -0.0399
32797DOD     C342212  11.479  10.112  23.332  0.0452 -0.4342  0.2031
32798DOD     C142213  29.928  18.946  23.828 -0.0563 -0.1794  0.1099
32798DOD     C242214  30.163  18.538  23.809 -0.1987 -0.1188  0.1587
32798DOD     C342215   0.034  18.355  23.420  0.0602 -0.0088 -0.4062
32799DOD     C142216  23.531  13.669   3.522 -0.0626 -0.1102  0.2292
32799DOD     C242217  23.172  13.983   3.421  0.1010  0.0084  0.1688
32799DOD     C342218  22.868  14.036   3.070  0.2407  0.2191 -0.1989
32800DOD     C142219  20.059  23.053   8.772 -0.2769  0.0441  0.0450
32800DOD     C242220  19.873  23.399   8.584 -0.4335 -0.2318 -0.1709
32800DOD     C342221  19.461  23.454   8.397 -0.1100  0.1901 -0.0085
32801DOD     C142222   4.164   6.253  22.594  0.1563 -0.0226  0.0195
32801DOD     C242223   4.288   6.201  22.112  0.0016 -0.0649 -0.2501
32801DOD     C342224   4.580   6.447  21.860 -0.1398  0.4345 -0.0482
32802DOD     C142225  15.649  22.265   0.156  0.1066  0.1210  0.1481
32802DOD     C242226  15.738  22.241  30.005  0.1286  0.1115  0.0482
32802DOD     C342227  15.820  22.039  29.593 -0.2726 -0.0888 -0.3054
32803DOD     C142228   0.415  28.462  29.424 -0.0714  0.0324  0.1246
32803DOD     C242229   0.050  28.188  29.613  0.1049 -0.1542 -0.3800
32803DOD     C342230  30.091  27.908  29.837  0.0077 -0.4421 -0.2556
32804DOD     C142231  26.049  27.460  23.649  0.1804  0.0247  0.0905
32804DOD     C242232  25.914  27.903  23.565 -0.0163 -0.1825 -0.1956
32804DOD     C342233  26.012  28.282  23.349  0.3117 -0.0277 -0.0242
32805DOD     C142234  22.227   6.149  27.700 -0.1203 -0.1171  0.0230
32805DOD     C242235  22.072   5.996  28.122 -0.0702  0.0226  0.0641
32805DOD     C342236  21.889   5.784  28.513  0.0580 -0.1556  0.1792
32806DOD     C142237  11.818  25.535  11.606  0.0044 -0.0973 -0.1429
32806DOD     C242238  11.684  25.598  11.159  0.0585 -0.1909 -0.1549
32806DOD     C342239  11.343  25.902  10.947 -0.3180  0.1040  0.2665
32807DOD     C142240  13.893  13.828   1.792  0.0349  0.1092 -0.0894
32807DOD     C242241  14.284  13.593   1.637 -0.1454  0.2276 -0.0015
32807DOD     C342242  14.508  13.287   1.423 -0.2285  0.4341  0.1971
32808DOD     C142243   0.884   4.402  10.422 -0.0364  0.0115 -0.0229
32808DOD     C242244   0.477   4.262  10.189  0.0838 -0.2371  0.3924
32808DOD     C342245   0.285   3.968   9.867  0.0884 -0.0656 -0.1188
32809DOD     C142246  12.500  24.117  12.904  0.2065  0.2304  0.1515
32809DOD     C242247  12.691  23.727  12.691  0.2822 -0.1885 -0.0796
32809DOD     C342248  12.973  23.412  12.457 -0.1478 -0.1732 -0.1913
32810DOD     C142249  24.765  19.330  25.707 -0.0132 -0.0175 -0.2698
32810DOD     C242250  24.907  19.728  25.846 -0.3348 -0.0438 -0.0129
32810DOD     C342251  24.859  19.801  26.315 -0.0024  0.2513 -0.1446
32811DOD     C142252  28.444  10.380  29.726 -0.0183  0.1554 -0.0599
32811DOD     C242253  28.651  10.016  29.964 -0.2711 -0.1384 -0.1107
32811DOD     C342254  28.552   9.643  30.252  0.2580 -0.0140  0.1777
32812DOD     C142255  11.993  11.647  23.162 -0.0544  0.1138  0.5251
32812DOD     C242256  11.693  12.041  23.201  0.1214  0.2970 -0.0377
32812DOD     C342257  11.602  12.403  22.915  0.1436  0.2371  0.0642
32813DOD     C142258   7.317  11.365  30.240 -0.1172  0.1106  0.0595
32813DOD     C242259   7.458  11.441  29.791  0.0691  0.1585 -0.1146
32813DOD     C342260   7.485  11.729  29.435  0.1946  0.0785  0.2908
32814DOD     C142261   1.350   3.818  16.112 -0.0909  0.0299 -0.1097
32814DOD     C242262   1.562   3.944  16.544 -0.0864 -0.0292  0.0458
32814DOD     C342263   1.754   4.323  16.793 -0.0896  0.1037  0.0726
32815DOD     C142264  17.979  20.778  20.623  0.1491  0.1270 -0.1137
32815DOD     C242265  17.876  20.310  20.698 -0.6419  0.0028 -0.3642
32815DOD     C342266  17.536  20.108  20.880 -0.1993 -0.2966 -0.1525
32816DOD     C142267  17.594  13.136   7.158 -0.0439  0.0244 -0.1417
32816DOD     C242268  17.654  13.412   6.827 -0.1439 -0.1030  0.2727
32816DOD     C342269  17.726  13.739   6.526 -0.1208  0.0833 -0.0461
32817DOD     C142270  21.377  22.137  12.862 -0.0208  0.3606 -0.1964
32817DOD     C242271  21.057  21.839  12.735  0.2267 -0.0904  0.3880
32817DOD     C342272  20.755  21.726  13.050  0.1194  0.2583 -0.0757
32818DOD     C142273  20.619  17.893   4.283 -0.0633  0.4002  0.1782
32818DOD     C242274  20.656  17.678   4.723 -0.0377  0.0794  0.0659
32818DOD     C342275  20.932  17.639   5.088 -0.0820  0.2007 -0.4672
32819DOD     C142276   7.371  16.299  17.256 -0.1248 -0.3657  0.1028
32819DOD     C242277   7.781  16.071  17.414  0.1176 -0.1176  0.3062
32819DOD     C342278   8.212  15.971  17.422 -0.3215 -0.0808  0.0694
32820DOD     C142279  28.432   4.948  20.824  0.3792 -0.4055 -0.1018
32820DOD     C242280  28.474   4.715  20.424  0.1560  0.2182  0.0816
32820DOD     C342281  28.576   4.525  20.012 -0.1843 -0.0749  0.1479
32821DOD     C142282   6.006   3.257  20.658  0.0553 -0.0733 -0.0678
32821DOD     C242283   5.946   3.707  20.407  0.0737  0.0729  0.2960
32821DOD     C342284   6.110   3.791  19.937  0.1583  0.1278 -0.2104
32822DOD     C142285  22.360  29.457  27.881 -0.1324  0.5169 -0.2265
32822DOD     C242286  21.969  29.437  27.745 -0.0654  0.0335 -0.0858
32822DOD     C342287  21.600  29.205  27.865 -0.0658 -0.4463  0.1708
32823DOD     C142288  17.894   9.262   2.773  0.2136  0.1657  0.0192
32823DOD     C242289  17.837   8.861   3.011 -0.0791  0.1745 -0.3328
32823DOD     C342290  17.454   8.630   3.100  0.1858 -0.2952 -0.0951
32824DOD     C142291   3.690   1.625  24.571 -0.0126 -0.2327  0.0148
32824DOD     C242292   3.306   1.814  24.695  0.1178  0.1528 -0.0901
32824DOD     C342293   2.850   1.903  24.593 -0.0521 -0.0961 -0.3389
32825DOD     C142294  29.730  26.150  15.859  0.0122  0.2843  0.1327
32825DOD     C242295  29.881  26.581  15.749 -0.2350  0.1638 -0.0237
32825DOD     C342296  30.297  26.763  15.567  0.1010  0.1866  0.1005
32826DOD     C142297  17.971  12.427  22.624 -0.3027  0.1653  0.1228
32826DOD     C242298  18.462  12.582  22.510 -0.0453 -0.1295 -0.4286
32826DOD     C342299  18.596  12.748  22.119 -0.0003 -0.1404  0.1425
32827DOD     C142300   1.980  20.392  10.855 -0.2244  0.0725 -0.0322
32827DOD     C242301   1.889  19.955  10.862 -0.0878 -0.2275  0.1730
32827DOD     C342302   1.500  19.765  10.710 -0.3502 -0.0946 -0.1687
32828DOD     C142303  26.548  16.209   8.116 -0.1299  0.1721 -0.2840
32828DOD     C242304  26.590  16.474   8.517  0.2187  0.0570  0.0037
32828DOD     C342305  26.857  16.823   8.803  0.3865 -0.1600  0.3757
32829DOD     C142306  18.756  14.984   8.846 -0.1396 -0.0652 -0.1290
32829DOD     C242307  18.371  14.777   8.973  0.0018  0.0737 -0.1843
32829DOD     C342308  17.924  14.718   8.950 -0.4745 -0.4963 -0.0725
32830DOD     C142309  18.617  14.027  12.548  0.0446  0.1132  0.1736
32830DOD     C242310  18.492  13.635  12.375 -0.0365  0.0401  0.2549
32830DOD     C342311  18.344  13.206  12.531 -0.0538  0.1096  0.1574
32831DOD     C142312  17.226  16.363  10.081 -0.1052 -0.1852 -0.3010
32831DOD     C242313  17.362  15.933  10.093  0.2694 -0.0716 -0.0450
32831DOD     C342314  17.661  15.701  10.314 -0.0989 -0.1624  0.1679
32832DOD     C142315   6.788  24.827  15.178 -0.0496  0.0065  0.0461
32832DOD     C242316   7.167  24.692  14.944 -0.0694  0.0012  0.0607
32832DOD     C342317   7.507  24.645  14.650 -0.1399 -0.1094 -0.0805
32833DOD     C142318  17.752  20.613  12.342  0.1440 -0.2256 -0.1150
32833DOD     C242319  17.778  21.044  12.485  0.1218 -0.0713 -0.1634
32833DOD     C342320  17.874  21.154  12.909 -0.0503  0.2406 -0.3009
32834DOD     C142321   4.650   9.680  17.510 -0.0215 -0.0962  0.0822
32834DOD     C242322   5.018   9.477  17.254 -0.2502  0.2678 -0.0535
32834DOD     C342323   5.391   9.207  17.216  0.1673  0.0193  0.2025
32835DOD     C142324  17.104  15.988  28.705 -0.1686 -0.1981  0.1685
32835DOD     C242325  16.983  15.759  29.137 -0.0928  0.0743 -0.0995
32835DOD     C342326  16.692  15.684  29.508  0.3339  0.4040  0.1571
32836DOD     C142327  20.645  12.600   7.902  0.1210 -0.1505 -0.0146
32836DOD     C242328  20.988  12.488   8.237  0.1984 -0.2560 -0.0348
32836DOD     C342329  21.228  12.674   8.575 -0.0509  0.1937 -0.0620
32837DOD     C142330  15.077   7.201  12.933 -0.2727 -0.0707  0.1086
32837DOD     C242331  15.546   7.224  13.089  0.1222  0.1447 -0.0581
32837DOD     C342332  15.999   7.218  13.107 -0.0868  0.3674  0.0840
32838DOD     C142333   7.425  16.545  20.436  0.1167  0.2321  0.0249
32838DOD     C242334   7.674  16.155  20.396  0.1276 -0.0991 -0.1680
32838DOD     C342335   7.599  15.686  20.373  0.0845 -0.1157 -0.2713
32839DOD     C142336   3.377  17.578  13.591  0.2011 -0.0758  0.2649
32839DOD     C242337   3.483  17.473  14.024  0.2175 -0.1103 -0.0288
32839DOD     C342338   3.533  17.292  14.495 -0.1085  0.0413 -0.2783
32840DOD     C142339  21.123  29.931   2.491 -0.1773 -0.3998  0.2293
32840DOD     C242340  21.236   0.044   2.535  0.0420  0.1752 -0.0662
32840DOD     C342341  21.143   0.449   2.763  0.1543 -0.0054 -0.0054
32841DOD     C142342   2.753  12.276  23.138 -0.0834 -0.1692  0.1696
32841DOD     C242343   2.456  12.689  23.017 -0.1033 -0.3372 -0.0897
32841DOD     C342344   2.389  13.054  22.675  0.3123  0.3871  0.1725
32842DOD     C142345   5.899   6.459  13.271  0.0643 -0.1668  0.2730
32842DOD     C242346   6.224   6.753  13.097  0.3480 -0.3342  0.0979
32842DOD     C342347   6.665   6.848  13.060  0.0632 -0.0936 -0.3901
32843DOD     C142348  14.437   6.234   3.439 -0.1732  0.0363  0.1557
32843DOD     C242349  14.800   6.204   3.612  0.1964 -0.0630 -0.0376
32843DOD     C342350  15.056   6.151   3.944 -0.1072  0.1674  0.2458
32844DOD     C142351  23.496   1.024   0.174  0.2188 -0.2719 -0.1598
32844DOD     C242352  23.418   1.258  30.135  0.2002 -0.0012  0.2412
32844DOD     C342353  23.344   1.114  29.716 -0.1570  0.1882 -0.0837
32845DOD     C142354  15.457   5.559  22.602  0.3032  0.0523  0.0117
32845DOD     C242355  15.609   5.473  22.146 -0.0283 -0.2219 -0.2816
32845DOD     C342356  15.654   5.715  21.804 -0.2760  0.2656 -0.4677
32846DOD     C142357   0.425  13.337  15.209  0.2357 -0.1884  0.2025
32846DOD     C242358  30.315  13.335  15.080  0.0039 -0.0218 -0.0541
32846DOD     C342359  29.895  13.547  15.021 -0.3976 -0.0406 -0.2286
32847DOD     C142360   1.629  25.740  11.047 -0.0830 -0.0484  0.1133
32847DOD     C242361   1.393  25.965  11.358 -0.1954  0.1763 -0.2050
32847DOD     C342362   1.524  26.217  11.664 -0.1825  0.0188 -0.1637
32848DOD     C142363  19.335   7.655  21.568 -0.1253 -0.3041  0.1547
32848DOD     C242364  18.951   7.444  21.537 -0.1478 -0.4467 -0.1556
32848DOD     C342365  18.798   7.064  21.501 -0.0609  0.2253 -0.1186
32849DOD     C142366  11.888  29.637  29.320  0.0732 -0.1423 -0.2893
32849DOD     C242367  11.789  29.502  28.872 -0.2346 -0.2365 -0.1368
32849DOD     C342368  11.624  29.361  28.502 -0.0101 -0.0024 -0.0171
32850DOD     C142369  11.105  27.543   0.378 -0.0066 -0.0450  0.2321
32850DOD     C242370  11.574  27.562   0.445  0.2963  0.1084 -0.1195
32850DOD     C342371  12.003  27.707   0.373 -0.2840 -0.1460 -0.0664
32851DOD     C142372  25.690  15.833  24.914  0.2811  0.1276  0.1626
32851DOD     C242373  25.366  15.996  24.665  0.2270  0.0363 -0.0344
32851DOD     C342374  24.916  16.197  24.680  0.2589 -0.1476  0.0782
32852DOD     C142375  10.825  22.359   5.685 -0.0850  0.1037 -0.1378
32852DOD     C242376  10.620  22.496   6.109  0.2045  0.2073  0.3608
32852DOD     C342377  10.340  22.742   6.369 -0.0365 -0.0603  0.1571
32853DOD     C142378  29.763  24.739  24.145 -0.1088  0.1278  0.0761
32853DOD     C242379  30.049  24.863  24.515  0.2752 -0.2751 -0.1027
32853DOD     C342380   0.076  25.056  24.742  0.3932 -0.1281 -0.2124
32854DOD     C142381   8.059  28.323  29.715 -0.0696 -0.0518  0.0259
32854DOD     C242382   7.953  27.947  29.481  0.1276  0.1399 -0.1375
32854DOD     C342383   7.883  27.537  29.616 -0.0952 -0.1830 -0.0878
32855DOD     C142384  19.940  28.384  15.489  0.0905 -0.1741 -0.0200
32855DOD     C242385  19.541  28.227  15.707 -0.2352 -0.0938  0.0279
32855DOD     C342386  19.192  27.926  15.769  0.0577  0.1080 -0.1912
32856DOD     C142387  30.323  22.558   2.878  0.3105  0.1333 -0.0480
32856DOD     C242388  30.235  22.892   2.554 -0.0071  0.3749 -0.0276
32856DOD     C342389  30.322  23.338   2.477  0.1086  0.1962  0.0806
32857DOD     C142390   9.894   9.074  11.585 -0.1813 -0.2023  0.0072
32857DOD     C242391   9.683   9.165  11.177 -0.2619  0.0307  0.0795
32857DOD     C342392   9.490   9.012  10.784  0.2078  0.2445 -0.0883
32858DOD     C142393  28.498  17.628  21.945  0.2698 -0.1270 -0.1288
32858DOD     C242394  28.962  17.546  22.015 -0.1991  0.2429  0.1081
32858DOD     C342395  29.138  17.187  22.205  0.1572 -0.1356  0.2337
32859DOD     C142396  26.830  11.809  17.518 -0.0708 -0.2457 -0.2864
32859DOD     C242397  26.672  11.570  17.144 -0.2275 -0.1114 -0.0803
32859DOD     C342398  26.253  11.477  16.946  0.2412  0.1015  0.0198
32860DOD     C142399  24.599  23.090  27.470  0.1097  0.1873  0.2278
32860DOD     C242400  24.729  23.507  27.434 -0.1615  0.1520 -0.1431
32860DOD     C342401  24.983  23.872  27.396  0.0362  0.1759  0.0211
32861DOD     C142402   1.401   5.007   1.588  0.2242 -0.3012 -0.1464
32861DOD     C242403   1.041   5.273   1.546 -0.1054  0.3823  0.2755
32861DOD     C342404   0.599   5.245   1.453 -0.2259  0.1888  0.1004
32862DOD     C142405   5.633   1.673  16.409 -0.1440  0.1181 -0.1239
32862DOD     C242406   6.043   1.520  16.534  0.3274 -0.1227 -0.1327
32862DOD     C342407   6.371   1.749  16.785 -0.0428  0.0909  0.0268
32863DOD     C142408  25.126  16.242  27.745  0.0351 -0.1973 -0.1397
32863DOD     C242409  25.465  16.520  27.965  0.0739  0.1446 -0.1204
32863DOD     C342410  25.618  16.862  28.305  0.0761 -0.0492 -0.1506
32864DOD     C142411   2.144  17.981  11.477  0.2462 -0.0005  0.2154
32864DOD     C242412   1.957  18.202  11.078 -0.3003 -0.2806 -0.2061
32864DOD     C342413   1.560  17.964  10.878 -0.0909  0.0955 -0.1322
32865DOD     C142414  26.480  27.494  18.389 -0.2334 -0.1406  0.3921
32865DOD     C242415  26.267  27.176  18.094 -0.1402  0.1916 -0.1445
32865DOD     C342416  26.181  26.754  17.972  0.1520 -0.2216 -0.0538
32866DOD     C142417  20.742   9.416  27.494 -0.4416 -0.1222  0.1119
32866DOD     C242418  20.478   9.539  27.082  0.3313  0.2444 -0.2372
32866DOD     C342419  20.194   9.570  26.722  0.0903  0.2682 -0.0818
32867DOD     C142420  13.678   8.646  15.903  0.0202  0.3263  0.0200
32867DOD     C242421  13.395   8.467  15.550  0.3514 -0.3805 -0.3811
32867DOD     C342422  13.051   8.104  15.378 -0.1510  0.1942  0.1892
32868DOD     C142423  21.828  12.915  23.882 -0.1258 -0.0255 -0.1519
32868DOD     C242424  22.191  12.630  23.763  0.0116 -0.0428 -0.0018
32868DOD     C342425  22.365  12.226  23.557 -0.1980  0.0129 -0.2079
32869DOD     C142426   8.089   8.896  22.431  0.2628  0.1966  0.1850
32869DOD     C242427   7.734   9.245  22.367 -0.0207 -0.2016 -0.1901
32869DOD     C342428   7.779   9.693  22.391  0.1841 -0.0559  0.2150
32870DOD     C142429   9.653  27.185  16.920  0.5657 -0.2999 -0.0913
32870DOD     C242430   9.897  27.511  16.781 -0.1182 -0.0206  0.0741
32870DOD     C342431  10.248  27.600  16.477  0.0371 -0.0521 -0.1178
32871DOD     C142432   5.439   9.936  26.383  0.3304  0.0407  0.1927
32871DOD     C242433   4.949   9.906  26.313  0.0368 -0.2090  0.1205
32871DOD     C342434   4.589   9.962  26.068 -0.1873  0.0576 -0.2301
32872DOD     C142435   0.703  11.233   3.692 -0.1314  0.0779 -0.1895
32872DOD     C242436   0.963  11.359   4.036  0.0094 -0.1598  0.0451
32872DOD     C342437   1.307  11.337   4.280 -0.0934  0.1035  0.0421
32873DOD     C142438  15.053  25.526  30.049 -0.1919  0.2016 -0.1009
32873DOD     C242439  15.168  25.178  29.802 -0.0047 -0.0096  0.4163
32873DOD     C342440  15.432  24.948  29.488  0.2793 -0.2011 -0.1737
32874DOD     C142441  20.816   4.802  25.622 -0.1704 -0.0873 -0.1282
32874DOD     C242442  20.435   4.626  25.402  0.0553  0.1024  0.2182
32874DOD     C342443  20.195   4.671  24.970  0.2108  0.3474 -0.1759
32875DOD     C142444  27.332   1.218   7.482 -0.1442 -0.0127  0.3058
32875DOD     C242445  27.381   1.350   7.870 -0.1660  0.1263  0.1709
32875DOD     C342446  26.979   1.389   8.172 -0.3349  0.0604 -0.2618
32876DOD     C142447  27.622  14.304  20.181 -0.0854  0.1857 -0.0273
32876DOD     C242448  27.225  14.200  19.978 -0.1905 -0.0273 -0.1560
32876DOD     C342449  26.968  14.037  19.645 -0.1865 -0.0465 -0.3001
32877DOD     C142450   5.448   2.541   2.382 -0.0307 -0.1611 -0.1068
32877DOD     C242451   5.543   2.695   2.768 -0.1252 -0.3071 -0.3129
32877DOD     C342452   5.241   2.873   3.002  0.2469 -0.4218 -0.0078
32878DOD     C142453   4.278   6.075   0.402  0.1552  0.2386  0.0490
32878DOD     C242454   4.040   6.465   0.304 -0.0644  0.0695 -0.3632
32878DOD     C342455   4.021   6.590   0.754  0.3330 -0.3234  0.3404
32879DOD     C142456   4.796  11.556  10.729  0.1381 -0.3448  0.1831
32879DOD     C242457   4.373  11.558  10.854 -0.2334  0.0418 -0.3702
32879DOD     C342458   3.970  11.710  10.724 -0.0600 -0.0288 -0.4429
32880DOD     C142459   1.404   9.159  23.704 -0.0641  0.2517  0.0989
32880DOD     C242460   1.796   8.845  23.609 -0.2500 -0.2996  0.1216
32880DOD     C342461   1.754   8.385  23.446  0.0375  0.1697  0.4316
32881DOD     C142462  15.625  20.315  17.629  0.0521 -0.0212 -0.1224
32881DOD     C242463  15.634  20.569  18.026 -0.0549 -0.0823  0.2012
32881DOD     C342464  15.977  20.828  18.136  0.1257 -0.0398 -0.3793
32882DOD     C142465  18.962  21.952  13.968  0.3470 -0.1506  0.3678
32882DOD     C242466  18.927  22.432  14.086  0.1099 -0.0679 -0.3648
32882DOD     C342467  18.819  22.830  14.343 -0.0361 -0.0870 -0.0918
32883DOD     C142468   3.726  24.214  27.050  0.1152 -0.1496  0.1106
32883DOD     C242469   3.317  24.485  27.041 -0.1029 -0.0768 -0.1413
32883DOD     C342470   3.057  24.532  26.622  0.0556 -0.0883 -0.1556
32884DOD     C142471  21.491  28.336  25.378 -0.0492  0.2017 -0.1922
32884DOD     C242472  21.564  27.876  25.439  0.2267 -0.0972  0.4222
32884DOD     C342473  21.400  27.471  25.092  0.1446 -0.0284  0.0283
32885DOD     C142474   2.935  20.431  27.653  0.0174 -0.0209  0.3257
32885DOD     C242475   3.051  20.748  27.322  0.1926 -0.0706  0.1665
32885DOD     C342476   3.146  20.654  26.895  0.1956 -0.3261 -0.0877
32886DOD     C142477  24.057  15.149   2.592 -0.0394  0.1216 -0.1660
32886DOD     C242478  23.906  14.893   2.225 -0.0332 -0.1007 -0.0015
32886DOD     C342479  23.861  14.716   1.825  0.0935  0.2459 -0.1246
32887DOD     C142480  29.950   3.076   5.507 -0.0150 -0.1122 -0.1324
32887DOD     C242481  29.954   2.651   5.636 -0.0082  0.0168 -0.3324
32887DOD     C342482  29.882   2.441   6.056 -0.4565 -0.1425 -0.3847
32888DOD     C142483  11.389  16.556  12.912  0.1013 -0.2266 -0.0790
32888DOD     C242484  11.508  16.154  13.127  0.0154  0.0228 -0.0934
32888DOD     C342485  11.640  15.791  13.425  0.0444 -0.0767  0.1002
32889DOD     C142486   0.220   9.928  16.694  0.0574 -0.1121 -0.0223
32889DOD     C242487   0.668   9.918  16.751 -0.0192  0.0954  0.0930
32889DOD     C342488   1.035  10.078  16.975  0.1423  0.0370  0.0366
32890DOD     C142489  18.084   4.812   9.214  0.1474 -0.1529  0.6230
32890DOD     C242490  17.809   5.177   9.378  0.0251  0.0103 -0.1975
32890DOD     C342491  17.476   5.284   9.662  0.0120 -0.0101  0.0292
32891DOD     C142492  26.008  22.210   7.824 -0.2370  0.3076 -0.1738
32891DOD     C242493  25.701  22.572   7.985 -0.0375 -0.0956 -0.1208
32891DOD     C342494  25.426  22.856   7.745 -0.0645  0.0318  0.1884
32892DOD     C142495  10.445   1.732  19.600  0.1323 -0.1463 -0.0358
32892DOD     C242496  10.252   1.475  19.894 -0.0411 -0.0346 -0.1280
32892DOD     C342497   9.848   1.298  20.093 -0.4308 -0.0922  0.0009
32893DOD     C142498  27.572  11.282  28.886  0.5166  0.1521 -0.0017
32893DOD     C242499  27.725  11.591  28.525 -0.2244 -0.0135  0.1260
32893DOD     C342500  28.090  11.664  28.245  0.1585  0.1014 -0.0582
32894DOD     C142501  16.665  26.851  23.393  0.1537  0.0888  0.1305
32894DOD     C242502  16.699  26.448  23.203  0.0231 -0.0356  0.2638
32894DOD     C342503  16.677  26.045  22.892  0.1140 -0.1912  0.3041
32895DOD     C142504  10.782  16.527   0.289 -0.1912  0.1465  0.2991
32895DOD     C242505  11.000  16.237  -0.010 -0.0303  0.0592 -0.0474
32895DOD     C342506  11.188  16.286  29.872  0.4019 -0.1431 -0.0830
32896DOD     C142507  28.093   7.204   9.821 -0.0778 -0.4695  0.1829
32896DOD     C242508  28.516   7.356  10.048 -0.0825  0.0055 -0.2510
32896DOD     C342509  28.984   7.483  10.072  0.0330  0.3327  0.1163
32897DOD     C142510   3.232  27.055  29.932  0.0787  0.1118 -0.0372
32897DOD     C242511   3.102  26.571  30.015  0.1530 -0.1253  0.1537
32897DOD     C342512   3.072  26.199  30.281 -0.1051 -0.0180 -0.0969
32898DOD     C142513  22.956  11.858  28.419 -0.2721  0.0175 -0.1763
32898DOD     C242514  23.248  11.643  28.123  0.2082 -0.0884 -0.3259
32898DOD     C342515  23.540  11.278  28.061 -0.2196 -0.1914 -0.1364
32899DOD     C142516  28.156  20.022   6.964 -0.0647 -0.1694 -0.1649
32899DOD     C242517  27.819  19.962   7.265 -0.0793  0.0507 -0.1065
32899DOD     C342518  27.468  19.911   7.585 -0.2484 -0.3132  0.1264
32900DOD     C142519   4.738  23.797   5.616 -0.0512 -0.0520 -0.1347
32900DOD     C242520   4.694  23.351   5.603  0.0818 -0.2746  0.0977
32900DOD     C342521   4.691  22.954   5.346  0.3384  0.4304 -0.1878
32901DOD     C142522   5.588  20.611  22.966 -0.2828  0.1867 -0.0460
32901DOD     C242523   5.578  20.978  23.250 -0.0946 -0.0670 -0.2375
32901DOD     C342524   5.683  21.304  23.515 -0.1160  0.0021 -0.1315
32902DOD     C142525  19.215  18.572  18.031 -0.1161  0.1607 -0.1592
32902DOD     C242526  19.216  18.276  18.454 -0.1540 -0.0551 -0.2217
32902DOD     C342527  19.582  18.027  18.598 -0.0292  0.0168  0.1699
32903DOD     C142528   3.264   2.633  24.116 -0.2599 -0.0202  0.0854
32903DOD     C242529   3.102   2.630  24.535 -0.0970 -0.3333  0.0385
32903DOD     C342530   2.987   2.304  24.908  0.2410 -0.3245  0.1426
32904DOD     C142531  -0.004   8.459  16.602 -0.1735  0.0582  0.0705
32904DOD     C242532  29.993   8.790  16.571 -0.0518  0.1290 -0.1928
32904DOD     C342533  29.873   9.145  16.282  0.0834 -0.3701  0.0305
32905DOD     C142534  27.592  15.105  20.056 -0.1105 -0.1023 -0.1901
32905DOD     C242535  27.558  14.694  19.774 -0.0397  0.1389 -0.0608
32905DOD     C342536  27.630  14.268  19.664 -0.1755  0.0944  0.3529
32906DOD     C142537   2.259  15.169  16.186  0.0501 -0.2823  0.2950
32906DOD     C242538   1.868  15.412  16.182 -0.0612  0.1809 -0.1220
32906DOD     C342539   1.636  15.751  15.941 -0.0716  0.1822  0.1815
32907DOD     C142540  13.893   1.001  19.019  0.1763  0.0220 -0.1287
32907DOD     C242541  13.532   1.278  18.941 -0.0581 -0.2511  0.0451
32907DOD     C342542  13.463   1.745  18.862  0.4051 -0.2554  0.0419
32908DOD     C142543  15.333  13.067  16.394  0.2290  0.1774  0.0657
32908DOD     C242544  15.084  12.812  16.087 -0.1352 -0.0043  0.1187
32908DOD     C342545  14.716  12.563  15.903 -0.1025  0.1498  0.2195
32909DOD     C142546  13.310  12.658  11.310 -0.0646 -0.2264  0.2147
32909DOD     C242547  13.590  12.495  11.616  0.0206 -0.1499 -0.0026
32909DOD     C342548  13.787  12.191  11.928  0.1292 -0.1319 -0.0097
32910DOD     C142549   1.333   8.605  13.003 -0.0095  0.1352  0.2349
32910DOD     C242550   1.502   8.174  12.909 -0.2010  0.2506 -0.1416
32910DOD     C342551   1.311   7.714  13.083  0.2138  0.1029 -0.0945
32911DOD     C142552  27.103  16.175   0.412  0.1576  0.0005  0.2442
32911DOD     C242553  26.824  15.860   0.502 -0.1007 -0.2482 -0.3221
32911DOD     C342554  26.658  15.485   0.751 -0.0467 -0.1825 -0.0734
32912DOD     C142555  13.418   3.967   5.355 -0.5196  0.1651  0.1092
32912DOD     C242556  13.504   3.511   5.430  0.0183 -0.2545  0.0770
32912DOD     C342557  13.471   3.133   5.241 -0.0429 -0.1048  0.1615
32913DOD     C142558  12.528  30.105  21.405 -0.1593  0.1128  0.0661
32913DOD     C242559  12.632  30.233  21.822  0.1710  0.0558 -0.0018
32913DOD     C342560  12.729  30.005  22.160  0.2487 -0.0559 -0.2050
32914DOD     C142561  25.880  28.106  29.453  0.0863 -0.0043  0.0476
32914DOD     C242562  25.517  27.884  29.310 -0.1191  0.0767 -0.0467
32914DOD     C342563  25.484  27.490  29.086  0.0014 -0.2114 -0.1880
32915DOD     C142564  29.131  23.411   1.701  0.0172 -0.0081  0.1388
32915DOD     C242565  28.857  23.644   2.002 -0.2786  0.1423 -0.0934
32915DOD     C342566  28.859  23.972   2.285 -0.3456 -0.1965  0.1215
32916DOD     C142567  10.108   7.085  22.746 -0.0033 -0.0264 -0.3673
32916DOD     C242568  10.312   7.217  23.144  0.2122  0.1329 -0.0427
32916DOD     C342569  10.621   7.410  23.439 -0.2527 -0.0832  0.3992
32917DOD     C142570  10.121  11.129  20.680 -0.2731  0.1573 -0.2738
32917DOD     C242571  10.311  10.799  20.344 -0.0768 -0.0990 -0.0909
32917DOD     C342572  10.780  10.695  20.385 -0.0896  0.0135 -0.4519
32918DOD     C142573  29.877  18.154  13.708  0.2324 -0.0470 -0.2319
32918DOD     C242574  29.607  18.136  14.128 -0.0624  0.1780 -0.0261
32918DOD     C342575  29.174  18.178  14.145  0.3292 -0.1932  0.1440
32919DOD     C142576  24.649  29.777  20.761 -0.2834 -0.0660 -0.3089
32919DOD     C242577  25.003  29.865  21.026  0.0600  0.0578  0.1191
32919DOD     C342578  25.322  29.597  21.221 -0.0762  0.2274  0.0526
32920DOD     C142579   7.774   0.026  24.364 -0.1262  0.0274 -0.1654
32920DOD     C242580   8.123  30.151  24.143  0.0437 -0.1841  0.1227
32920DOD     C342581   8.510  30.079  23.962  0.2167  0.0628 -0.3449
32921DOD     C142582  28.807  15.660  24.564 -0.1894  0.1071  0.0963
32921DOD     C242583  28.352  15.691  24.656 -0.0642  0.1041 -0.1160
32921DOD     C342584  27.928  15.705  24.564  0.0014 -0.1603  0.2564
32922DOD     C142585  25.511  19.392   9.105  0.2186  0.0799  0.2847
32922DOD     C242586  25.766  19.391   8.716  0.3354  0.0180 -0.2265
32922DOD     C342587  26.206  19.543   8.544  0.3402 -0.1384  0.1391
32923DOD     C142588  23.966   6.285   3.801  0.1128 -0.1154 -0.1829
32923DOD     C242589  23.592   6.127   3.644 -0.0876 -0.1463 -0.0142
32923DOD     C342590  23.467   5.915   3.239 -0.2507  0.0421  0.0867
32924DOD     C142591  26.033  14.933  14.678  0.1011 -0.1846  0.0309
32924DOD     C242592  25.957  14.503  14.810  0.2323 -0.1584  0.1474
32924DOD     C342593  25.710  14.087  14.810  0.0705  0.0861  0.1604
32925DOD     C142594   5.265  17.339  25.393 -0.2451 -0.1398  0.0780
32925DOD     C242595   4.987  17.663  25.207  0.1594  0.0748 -0.1157
32925DOD     C342596   4.550  17.752  25.286  0.1160 -0.1857 -0.0114
32926DOD     C142597  13.616  24.072   4.247  0.2870  0.3491 -0.1617
32926DOD     C242598  13.743  23.862   3.859 -0.1389 -0.2641 -0.0777
32926DOD     C342599  14.005  23.605   3.608 -0.1338  0.1336 -0.0262
32927DOD     C142600  19.249  19.439   7.297 -0.0431  0.0669  0.1696
32927DOD     C242601  19.377  19.784   7.015 -0.2631  0.2062 -0.1120
32927DOD     C342602  19.844  19.723   6.894 -0.0301 -0.0088  0.2539
32928DOD     C142603  17.840  13.248  24.840  0.4361 -0.3233  0.0393
32928DOD     C242604  18.231  13.283  24.624 -0.0221 -0.2754  0.0587
32928DOD     C342605  18.649  13.072  24.477 -0.1264 -0.2565 -0.0640
32929DOD     C142606  18.219  20.563   4.507 -0.0911 -0.0260  0.0329
32929DOD     C242607  18.085  20.664   4.126 -0.0373  0.1268  0.0068
32929DOD     C342608  18.025  20.570   3.672 -0.1832 -0.0622  0.2976
32930DOD     C142609  25.665  11.647  26.657 -0.2120  0.1698  0.0350
32930DOD     C242610  25.974  11.706  27.030 -0.0185 -0.1395  0.2361
32930DOD     C342611  25.883  11.739  27.485  0.0539 -0.1370 -0.3288
32931DOD     C142612  20.920   4.235   4.660 -0.1960  0.0744  0.1020
32931DOD     C242613  20.731   4.348   5.081 -0.0699 -0.0628 -0.0683
32931DOD     C342614  20.412   4.303   5.438 -0.0426  0.1119 -0.0014
32932DOD     C142615   0.079  17.172  26.755  0.1629  0.1237  0.0340
32932DOD     C242616   0.128  16.889  27.119 -0.0832 -0.0391 -0.0276
32932DOD     C342617   0.242  16.631  27.452 -0.1367 -0.2520 -0.2061
32933DOD     C142618  20.556  21.354  22.743 -0.0681  0.1110  0.2583
32933DOD     C242619  20.940  21.236  22.473  0.0436  0.2727  0.0506
32933DOD     C342620  21.214  21.486  22.162  0.0541  0.1747 -0.1912
32934DOD     C142621  27.789  25.598  24.119  0.3694 -0.0595 -0.0071
32934DOD     C242622  27.971  25.974  24.018 -0.1429 -0.2428  0.3921
32934DOD     C342623  27.995  26.408  24.077  0.1434 -0.1588  0.1288
32935DOD     C142624   2.814   4.408  17.800 -0.3156 -0.2586  0.0899
32935DOD     C242625   2.890   3.943  17.987 -0.1774 -0.1322 -0.2640
32935DOD     C342626   3.027   3.506  18.000 -0.0039  0.1107  0.0336
32936DOD     C142627  24.563  26.765  26.336  0.1551 -0.0172 -0.0276
32936DOD     C242628  24.977  26.621  26.498  0.0955  0.2712  0.2109
32936DOD     C342629  25.212  26.494  26.836  0.1526  0.2111 -0.1751
32937DOD     C142630  19.793   9.765   2.558  0.0859 -0.0781 -0.0735
32937DOD     C242631  19.532   9.425   2.683  0.2439 -0.3349  0.2611
32937DOD     C342632  19.283   9.294   3.067  0.0399  0.2327 -0.3501
32938DOD     C142633  14.096  12.272  25.541 -0.1292 -0.0956  0.0303
32938DOD     C242634  14.125  12.167  25.139  0.1601  0.1374  0.1168
32938DOD     C342635  14.188  12.391  24.715  0.0195  0.0832  0.0355
32939DOD     C142636  13.489  24.716  16.787 -0.1371 -0.3954 -0.3071
32939DOD     C242637  13.735  24.657  16.376 -0.0013  0.0483  0.0046
32939DOD     C342638  13.645  24.250  16.175  0.0233  0.0169 -0.0597
32940DOD     C142639   9.776   9.836   3.086 -0.0707 -0.2178 -0.0094
32940DOD     C242640  10.230   9.890   2.925  0.0107 -0.1617 -0.2995
32940DOD     C342641  10.374  10.280   2.717 -0.0487 -0.1976  0.1684
32941DOD     C142642  19.606  25.778  22.003 -0.0909 -0.0861 -0.2292
32941DOD     C242643  20.013  25.610  21.965  0.0806  0.0546  0.0050
32941DOD     C342644  20.387  25.931  21.955  0.1350 -0.1227 -0.1275
32942DOD     C142645  28.019  12.119   6.523 -0.0125 -0.1928  0.0132
32942DOD     C242646  28.148  12.294   6.913 -0.3400  0.2448 -0.1775
32942DOD     C342647  28.260  12.369   7.386  0.0922 -0.0253 -0.0752
32943DOD     C142648   2.815  18.842  28.406 -0.1137 -0.2123 -0.2390
32943DOD     C242649   2.789  19.351  28.306  0.1182 -0.3174 -0.0147
32943DOD     C342650   2.927  19.902  28.305 -0.1579 -0.1893  0.0649
32944DOD     C142651   2.143   5.701  26.464 -0.0722  0.2734 -0.1275
32944DOD     C242652   1.723   5.851  26.395 -0.0555  0.1525  0.0321
32944DOD     C342653   1.537   5.937  25.980  0.3720 -0.1129 -0.0180
32945DOD     C142654  17.099  22.133   3.881 -0.2307  0.0206  0.1670
32945DOD     C242655  17.161  22.594   3.948 -0.2525 -0.3560  0.2628
32945DOD     C342656  17.439  23.006   3.861 -0.2714 -0.1396  0.0645
32946DOD     C142657  11.079   2.733  23.701  0.1709 -0.5017  0.2605
32946DOD     C242658  11.349   2.797  24.045 -0.0271 -0.2222  0.1432
32946DOD     C342659  11.793   2.836  24.265  0.0820 -0.0594  0.0792
32947DOD     C142660  18.515  26.180  26.088 -0.1659  0.0933  0.0331
32947DOD     C242661  18.685  26.511  25.816  0.1205  0.2109  0.1823
32947DOD     C342662  18.871  26.890  25.525 -0.0827 -0.1371 -0.0947
32948DOD     C142663  24.503  13.445  18.035  0.1312 -0.1217 -0.0387
32948DOD     C242664  24.318  13.709  17.683 -0.0206  0.0873  0.0811
32948DOD     C342665  24.109  13.890  17.329 -0.0885  0.0479 -0.0791
32949DOD     C142666  17.697   2.740  10.085 -0.0254  0.0081  0.1448
32949DOD     C242667  18.094   2.832  10.266 -0.4824 -0.3731 -0.2623
32949DOD     C342668  18.559   2.799  10.216  0.1335 -0.1057  0.1417
32950DOD     C142669   0.814  26.527  10.068 -0.3034  0.0156  0.0690
32950DOD     C242670   0.977  27.011   9.986 -0.1760  0.0650  0.0627
32950DOD     C342671   1.247  27.134  10.323 -0.2448  0.1305 -0.0566
32951DOD     C142672  28.332  16.124  15.245  0.0140 -0.0990  0.0573
32951DOD     C242673  28.756  16.286  15.278  0.2775  0.0643  0.1682
32951DOD     C342674  29.064  16.230  14.943  0.1103 -0.1186 -0.1424
32952DOD     C142675   9.108  25.937  21.565  0.1988  0.2416  0.0858
32952DOD     C242676   9.147  26.414  21.483 -0.0030  0.0431 -0.0732
32952DOD     C342677   8.987  26.868  21.578  0.1875  0.2179  0.1063
32953DOD     C142678  19.839  11.832  14.324 -0.1315  0.3851  0.0701
32953DOD     C242679  19.851  11.450  14.034  0.0479 -0.1215 -0.2579
32953DOD     C342680  19.659  11.350  13.659  0.1884 -0.0266  0.0255
32954DOD     C142681   9.999  21.854   3.118 -0.0280  0.0386  0.0485
32954DOD     C242682  10.060  21.506   2.791 -0.0311 -0.1915 -0.1695
32954DOD     C342683  10.254  21.133   2.582  0.0004  0.0653 -0.1632
32955DOD     C142684  25.250  17.969   2.146 -0.2889 -0.0482 -0.0864
32955DOD     C242685  24.996  18.343   2.022 -0.2969  0.2667  0.1066
32955DOD     C342686  24.775  18.720   2.241 -0.0124  0.0647  0.0065
32956DOD     C142687  23.732  13.913  21.782 -0.0565 -0.1233  0.0077
32956DOD     C242688  23.898  14.129  21.427 -0.0569 -0.1159 -0.0570
32956DOD     C342689  24.001  14.335  21.026  0.1475 -0.1362  0.0785
32957DOD     C142690  27.087  27.071  29.300  0.0178 -0.0437  0.0695
32957DOD     C242691  26.731  27.370  29.267 -0.0378 -0.0351 -0.0839
32957DOD     C342692  26.275  27.577  29.329  0.0153 -0.1508  0.0010
32958DOD     C142693  13.575   0.896  10.040  0.3816  0.1364 -0.1525
32958DOD     C242694  13.911   1.047  10.350  0.1566 -0.0315  0.0317
32958DOD     C342695  14.286   1.152  10.635 -0.0012 -0.3928 -0.1345
32959DOD     C142696   0.736   2.861  20.665  0.0065 -0.1684  0.2358
32959DOD     C242697   0.969   3.066  20.357 -0.2200  0.1697  0.0178
32959DOD     C342698   1.249   2.933  20.055 -0.0034 -0.1113 -0.2197
32960DOD     C142699   4.438   4.241  21.728 -0.1317  0.2156 -0.0557
32960DOD     C242700   4.052   4.240  21.505  0.1956 -0.2879  0.0013
32960DOD     C342701   3.603   4.225  21.564 -0.1863 -0.1091  0.0302
32961DOD     C142702  22.098  14.471   7.474 -0.2593 -0.1815 -0.0852
32961DOD     C242703  21.781  14.727   7.315 -0.0027 -0.0238  0.1895
32961DOD     C342704  21.556  14.929   6.944 -0.0383  0.1172 -0.0095
32962DOD     C142705   5.104   2.022   3.096 -0.0361  0.0430 -0.1400
32962DOD     C242706   5.458   2.209   2.894  0.1547  0.0143 -0.0698
32962DOD     C342707   5.876   2.135   2.747 -0.1702 -0.0838  0.0604
32963DOD     C142708  18.767   0.608   0.228 -0.0140  0.0796  0.2053
32963DOD     C242709  18.535   0.603   0.572  0.1505 -0.0305 -0.0404
32963DOD     C342710  18.261   0.787   0.907 -0.3542  0.0454 -0.0562
32964DOD     C142711   2.648  14.835  15.317 -0.0414 -0.0797 -0.0366
32964DOD     C242712   2.886  15.207  15.233  0.0484  0.2575  0.0245
32964DOD     C342713   2.991  15.577  14.989 -0.0208  0.1177  0.0823
32965DOD     C142714  15.096  10.019  23.002 -0.1817 -0.3827  0.3731
32965DOD     C242715  15.288  10.459  22.946  0.0044 -0.1718  0.0117
32965DOD     C342716  15.342  10.943  23.027  0.2190 -0.0340  0.1205
32966DOD     C142717   9.081  20.811  21.381 -0.0842 -0.0927 -0.0920
32966DOD     C242718   9.178  21.165  20.991 -0.4521 -0.1374  0.3092
32966DOD     C342719   9.445  21.208  20.615 -0.2048  0.1765 -0.1112
32967DOD     C142720   3.592  19.111  18.649  0.0226  0.1412 -0.2708
32967DOD     C242721   3.470  19.232  18.215  0.1428  0.0424 -0.1256
32967DOD     C342722   3.092  19.308  17.925  0.0061  0.2363 -0.1355
32968DOD     C142723   4.975  27.447   1.029 -0.2327  0.3662  0.0278
32968DOD     C242724   5.271  27.460   1.437 -0.4287  0.1722  0.2262
32968DOD     C342725   5.590  27.590   1.807  0.3552 -0.3517 -0.0196
32969DOD     C142726  22.149   0.238  22.589  0.1183  0.1850 -0.0793
32969DOD     C242727  21.863   0.552  22.757  0.1512  0.2247  0.0826
32969DOD     C342728  21.770   0.931  22.532  0.1940 -0.3277  0.0143
32970DOD     C142729  29.522   1.113  24.556  0.2141 -0.0437  0.1382
32970DOD     C242730  29.225   0.707  24.465 -0.0612  0.1341  0.1587
32970DOD     C342731  29.319   0.264  24.331  0.2216  0.0284 -0.1431
32971DOD     C142732  28.647   7.753  13.847  0.1423  0.1884  0.2119
32971DOD     C242733  28.970   7.518  13.568  0.0335 -0.0282 -0.3046
32971DOD     C342734  29.349   7.500  13.258  0.1182  0.3366 -0.2549
32972DOD     C142735  10.284  20.461  12.915 -0.1285  0.0804  0.0270
32972DOD     C242736  10.308  19.996  12.990 -0.0484 -0.0675  0.0637
32972DOD     C342737  10.329  19.532  12.928  0.1213 -0.0634  0.0477
32973DOD     C142738  29.825  27.064  21.746 -0.0814 -0.0126  0.1112
32973DOD     C242739  29.561  26.803  21.495 -0.0640  0.1510  0.2062
32973DOD     C342740  29.786  26.551  21.160  0.1951 -0.1775 -0.2526
32974DOD     C142741   1.062  23.490  26.879 -0.0106  0.0258 -0.0768
32974DOD     C242742   0.830  23.526  26.498  0.0484 -0.1855 -0.1170
32974DOD     C342743   0.995  23.469  26.060 -0.1557 -0.2192 -0.0579
32975DOD     C142744  15.787   2.318  10.159  0.0387  0.2327  0.0525
32975DOD     C242745  15.773   2.194  10.626  0.2012 -0.1539  0.0997
32975DOD     C342746  15.847   1.810  10.928  0.0221 -0.1369  0.4025
32976DOD     C142747  17.111   7.327  14.068 -0.2138 -0.0950 -0.0069
32976DOD     C242748  17.032   7.456  13.694  0.1741  0.0875 -0.0889
32976DOD     C342749  16.882   7.384  13.260 -0.0648 -0.0504  0.3628
32977DOD     C142750   0.696   7.676   1.299  0.0344  0.0096 -0.0134
32977DOD     C242751   0.402   7.538   0.956 -0.3006  0.0867  0.1283
32977DOD     C342752   0.417   7.205   0.599 -0.0518  0.2466  0.1887
32978DOD     C142753  21.017  13.196  24.788  0.0835  0.1759 -0.4637
32978DOD     C242754  20.937  12.760  24.960 -0.3657 -0.1453  0.0254
32978DOD     C342755  20.805  12.360  25.159 -0.1990  0.2903 -0.0390
32979DOD     C142756  15.629  16.016  25.213  0.0350  0.1959  0.0820
32979DOD     C242757  15.923  16.333  25.161  0.0086  0.1783  0.2083
32979DOD     C342758  16.220  16.484  25.457  0.1424 -0.1266  0.1382
32980DOD     C142759  20.330  29.438  13.158 -0.1337  0.0011 -0.1345
32980DOD     C242760  20.029  29.302  12.856  0.0159 -0.1327  0.0526
32980DOD     C342761  19.882  28.897  12.641  0.0044 -0.0968  0.1876
32981DOD     C142762  14.870  22.517  25.603 -0.0227 -0.2165 -0.0594
32981DOD     C242763  15.084  22.601  25.212 -0.2241 -0.0576  0.1501
32981DOD     C342764  15.370  22.510  24.808 -0.0169 -0.1746  0.2555
32982DOD     C142765  23.776  18.501   5.125 -0.4555 -0.2614 -0.1395
32982DOD     C242766  24.122  18.391   5.377  0.1050  0.0093  0.0443
32982DOD     C342767  24.259  18.595   5.726 -0.0556  0.1650  0.5224
32983DOD     C142768  12.041   8.552  24.591  0.0580  0.1837  0.0116
32983DOD     C242769  12.045   8.137  24.643 -0.1747 -0.1171  0.0215
32983DOD     C342770  11.963   7.685  24.694 -0.0548  0.0566  0.2691
32984DOD     C142771  12.061  29.422  12.553 -0.2256  0.1069  0.2113
32984DOD     C242772  12.004  29.149  12.162 -0.0265  0.1483 -0.0290
32984DOD     C342773  12.353  29.012  11.841 -0.0314  0.2930  0.0877
32985DOD     C142774  26.971   3.445  27.926 -0.1495 -0.2132 -0.1380
32985DOD     C242775  26.671   3.486  27.564 -0.0595 -0.1562 -0.1414
32985DOD     C342776  26.464   3.727  27.191  0.0245  0.1725 -0.0601
32986DOD     C142777  22.804   0.617   5.674 -0.0444  0.0299  0.1130
32986DOD     C242778  22.367   0.569   5.865 -0.0072 -0.2146 -0.0428
32986DOD     C342779  22.145   0.758   6.272 -0.1110  0.3027 -0.0603
32987DOD     C142780   2.501  11.430   2.650  0.0117  0.2241 -0.2165
32987DOD     C242781   2.389  11.139   2.983  0.0879 -0.2340  0.3211
32987DOD     C342782   2.351  11.135   3.467  0.1392 -0.3621  0.1500
32988DOD     C142783  18.258  16.953  29.044 -0.1207  0.3384  0.1823
32988DOD     C242784  18.028  17.309  28.977 -0.1043  0.0104 -0.2657
32988DOD     C342785  17.538  17.322  29.108 -0.2156  0.3231 -0.0973
32989DOD     C142786   4.841  28.905   9.300 -0.0689  0.0352 -0.1968
32989DOD     C242787   4.446  29.064   9.051 -0.0536  0.0445  0.1722
32989DOD     C342788   3.941  29.212   9.164  0.1353 -0.0006  0.2242
32990DOD     C142789  28.371  19.057  30.168 -0.2880 -0.0234 -0.0685
32990DOD     C242790  27.995  19.307  30.080  0.4211  0.2178 -0.1942
32990DOD     C342791  27.664  19.631  30.010  0.1583 -0.1848  0.1711
32991DOD     C142792  25.989  25.123   1.222  0.0540  0.1536 -0.0690
32991DOD     C242793  25.519  25.054   1.337  0.1585  0.2131 -0.0991
32991DOD     C342794  25.058  24.937   1.372  0.0438 -0.3631 -0.0830
32992DOD     C142795  28.800  24.841  29.105  0.1160 -0.2391  0.3555
32992DOD     C242796  29.000  25.221  29.215 -0.1431  0.4204 -0.0050
32992DOD     C342797  29.000  25.539  29.522  0.0904  0.1170 -0.2493
32993DOD     C142798   6.741  26.990   5.137 -0.0406 -0.0834  0.1436
32993DOD     C242799   7.087  27.249   5.323 -0.2100  0.0205 -0.0390
32993DOD     C342800   7.315  27.664   5.388  0.0529  0.2257 -0.0714
32994DOD     C142801  23.127  25.443  29.753  0.2197 -0.1948  0.0290
32994DOD     C242802  23.243  25.501  29.302  0.1075 -0.2131 -0.1451
32994DOD     C342803  23.133  25.791  28.899  0.1264 -0.1428  0.2730
32995DOD     C142804  18.551   2.669  16.408  0.2073 -0.1279 -0.0423
32995DOD     C242805  19.066   2.721  16.516 -0.1445 -0.2735 -0.0629
32995DOD     C342806  19.522   2.840  16.535 -0.2878  0.1028 -0.1997
32996DOD     C142807  19.226  18.802   1.420 -0.0517  0.0220  0.0619
32996DOD     C242808  18.865  18.580   1.609 -0.1251  0.0733  0.0422
32996DOD     C342809  18.706  18.374   1.982 -0.1078  0.1317 -0.0899
32997DOD     C142810  16.108   2.818  29.131  0.0093  0.1648 -0.1971
32997DOD     C242811  16.048   3.144  28.799 -0.0841 -0.1785 -0.2763
32997DOD     C342812  16.054   3.390  28.421 -0.1703 -0.0308  0.0002
32998DOD     C142813  13.322   9.368  22.066 -0.0564 -0.0809  0.0750
32998DOD     C242814  13.410   9.644  21.711  0.0259  0.1019  0.0263
32998DOD     C342815  13.437  10.037  21.655 -0.1733 -0.3237 -0.1046
32999DOD     C142816  21.292  27.084   9.920  0.1319 -0.2700 -0.0331
32999DOD     C242817  21.181  27.504  10.099  0.0630 -0.1330  0.1271
32999DOD     C342818  20.989  27.954  10.059 -0.1669 -0.1021 -0.1108
33000DOD     C142819   7.424  14.142  19.886 -0.1922 -0.0656 -0.3394
33000DOD     C242820   7.335  14.401  20.330 -0.2779 -0.0212  0.2431
33000DOD     C342821   7.040  14.527  20.646  0.1741  0.0193  0.1784
33001DOD     C142822  13.977  21.235   6.423  0.3234  0.0057  0.0215
33001DOD     C242823  13.554  21.434   6.287 -0.0804 -0.0720  0.0719
33001DOD     C342824  13.253  21.820   6.422 -0.0303 -0.1520 -0.1742
33002DOD     C142825   9.697   9.744  26.444 -0.1791 -0.0224  0.0288
33002DOD     C242826   9.906  10.126  26.612  0.1926 -0.3309  0.0779
33002DOD     C342827  10.102  10.518  26.521  0.0332  0.0802 -0.1690
33003DOD     C142828  28.635  25.862  27.197  0.2543  0.2534 -0.0645
33003DOD     C242829  28.307  25.647  26.950 -0.0561  0.0191  0.1403
33003DOD     C342830  28.227  25.453  26.505 -0.0330 -0.0347 -0.0989
33004DOD     C142831  25.143  12.390   1.182  0.0562  0.1350  0.1493
33004DOD     C242832  25.045  12.050   0.887  0.0523  0.1950  0.2117
33004DOD     C342833  25.184  11.786   0.478 -0.1010 -0.2302 -0.0517
33005DOD     C142834  11.236  21.596  21.965 -0.0491 -0.4248  0.0995
33005DOD     C242835  10.841  21.628  22.190 -0.0250  0.0248 -0.3216
33005DOD     C342836  10.461  21.358  22.196  0.1976  0.0305 -0.1482
33006DOD     C142837  27.727  26.278  10.326 -0.1098  0.1529 -0.0483
33006DOD     C242838  27.668  25.819  10.124 -0.1014 -0.0654 -0.0591
33006DOD     C342839  27.560  25.653   9.669  0.2472 -0.3481  0.4106
33007DOD     C142840   2.865  20.377  29.468 -0.0600 -0.2164  0.1943
33007DOD     C242841   2.562  20.138  29.673  0.1463  0.0743 -0.1635
33007DOD     C342842   2.164  19.920  29.653 -0.2500 -0.1367  0.1446
33008DOD     C142843  28.387  20.160  21.436  0.1906  0.0530 -0.0044
33008DOD     C242844  28.037  19.880  21.635  0.0390  0.0781 -0.0967
33008DOD     C342845  27.641  19.765  21.459 -0.1217  0.1785 -0.0427
33009DOD     C142846  27.412   7.408  24.053  0.4718  0.1783 -0.1757
33009DOD     C242847  27.551   7.393  24.500 -0.0311  0.0379 -0.2007
33009DOD     C342848  27.555   7.161  24.894  0.0314  0.3465  0.0889
33010DOD     C142849  12.109   1.507  15.278  0.1594  0.1530 -0.0038
33010DOD     C242850  12.278   1.795  14.930  0.1131  0.4635  0.1723
33010DOD     C342851  12.371   2.257  14.892 -0.1485 -0.0654  0.0788
33011DOD     C142852   5.262  23.233  25.556 -0.2487 -0.1011 -0.0967
33011DOD     C242853   5.409  23.552  25.796 -0.1961 -0.3751 -0.0641
33011DOD     C342854   5.891  23.724  25.741  0.1477  0.0604  0.2700
33012DOD     C142855   8.334  10.558   5.229  0.3053 -0.1703  0.1602
33012DOD     C242856   8.040  10.503   4.851  0.0698  0.1109  0.2469
33012DOD     C342857   8.219  10.288   4.467 -0.1367 -0.1509 -0.2038
33013DOD     C142858  22.481  12.049  15.129  0.0373  0.2422 -0.3594
33013DOD     C242859  22.907  11.806  15.101  0.1194 -0.0316 -0.0158
33013DOD     C342860  23.183  11.415  15.132 -0.0408  0.0387 -0.3157
33014DOD     C142861  23.951   4.132  19.139  0.1846  0.1172 -0.0438
33014DOD     C242862  23.808   4.180  19.579  0.0494  0.1970 -0.1091
33014DOD     C342863  23.975   4.172  20.041 -0.1930  0.3240 -0.0195
33015DOD     C142864   3.627   8.458  15.740 -0.0633 -0.0320 -0.2294
33015DOD     C242865   3.752   8.345  16.110 -0.2785 -0.0615  0.0703
33015DOD     C342866   3.916   8.431  16.538  0.3049  0.0909  0.0954
33016DOD     C142867  29.171  15.288  27.037  0.0334 -0.0328  0.0388
33016DOD     C242868  28.777  15.147  27.244 -0.0479  0.0190  0.2084
33016DOD     C342869  28.742  14.822  27.575 -0.1264  0.1301  0.0836
33017DOD     C142870   9.256   1.417   1.746  0.1189 -0.2871  0.0286
33017DOD     C242871   9.719   1.539   1.734 -0.1153  0.1285 -0.1983
33017DOD     C342872  10.143   1.517   1.548 -0.2637  0.1426  0.1661
33018DOD     C142873  21.842   1.581  12.000 -0.1757 -0.1089  0.2182
33018DOD     C242874  21.829   1.766  12.449  0.0765  0.0863  0.1926
33018DOD     C342875  21.658   2.043  12.758  0.0746 -0.0023 -0.1296
33019DOD     C142876  23.255   8.383  29.023 -0.0407  0.1523 -0.2363
33019DOD     C242877  23.653   8.191  29.157  0.3132  0.0431 -0.2214
33019DOD     C342878  24.000   8.191  28.824 -0.1215  0.3452  0.0249
33020DOD     C142879   4.995   8.211  29.874  0.3896  0.1612 -0.0269
33020DOD     C242880   4.521   8.351  29.902 -0.1716  0.0655 -0.1726
33020DOD     C342881   4.133   8.334  30.107 -0.1079 -0.0971 -0.3248
33021DOD     C142882  27.879  28.358   7.087 -0.0564 -0.1623  0.0733
33021DOD     C242883  28.140  28.520   6.774  0.0999 -0.2026  0.2410
33021DOD     C342884  28.065  28.776   6.432  0.0748  0.1214 -0.2163
33022DOD     C142885   4.567  21.139  21.678 -0.0265  0.2528  0.3131
33022DOD     C242886   4.312  20.926  21.347  0.0638  0.0050 -0.1738
33022DOD     C342887   3.983  20.762  21.085  0.0444  0.0042  0.0584
33023DOD     C142888  19.830   5.301  11.524 -0.2561 -0.1079  0.0498
33023DOD     C242889  19.698   5.244  11.953 -0.2756 -0.1065  0.0340
33023DOD     C342890  19.421   5.176  12.299  0.0236 -0.1259  0.3483
33024DOD     C142891  26.477  26.326  19.426 -0.1826 -0.0795  0.0881
33024DOD     C242892  26.620  26.641  19.732  0.0208 -0.0830 -0.2045
33024DOD     C342893  26.762  27.044  19.844  0.0379  0.0979 -0.0453
33025DOD     C142894  27.319  21.575   6.318  0.0451 -0.0132 -0.2825
33025DOD     C242895  26.975  21.891   6.360  0.0573 -0.1365 -0.0030
33025DOD     C342896  26.652  22.167   6.513 -0.1702 -0.0232 -0.1300
33026DOD     C142897  14.151  19.704   1.101 -0.0459 -0.1468  0.1056
33026DOD     C242898  13.741  19.664   1.320 -0.1566  0.3202 -0.1648
33026DOD     C342899  13.469  19.951   1.617  0.1398 -0.0652  0.1460
33027DOD     C142900   3.694   3.528  11.386  0.0527  0.1757 -0.3170
33027DOD     C242901   3.998   3.404  11.764  0.2115  0.1383  0.2451
33027DOD     C342902   4.397   3.508  12.007 -0.1459  0.1864  0.0838
33028DOD     C142903  12.085  11.364   5.381 -0.0059 -0.2011  0.0856
33028DOD     C242904  12.189  11.687   5.734 -0.0333  0.1293 -0.2372
33028DOD     C342905  12.267  11.715   6.190  0.3695  0.3334 -0.1146
33029DOD     C142906  21.249  15.068  12.575 -0.2460 -0.1217  0.1542
33029DOD     C242907  21.278  15.443  12.337 -0.2494  0.0879 -0.0665
33029DOD     C342908  21.088  15.884  12.262 -0.0160  0.0786  0.2574
33030DOD     C142909  27.442  18.626  28.812 -0.2162 -0.1528  0.0881
33030DOD     C242910  27.428  18.553  29.321 -0.0370  0.3543  0.0448
33030DOD     C342911  27.210  18.408  29.674  0.3207 -0.0105  0.3153
33031DOD     C142912   4.714  24.983  29.397 -0.2193 -0.2551 -0.0875
33031DOD     C242913   4.263  24.988  29.401  0.0702  0.3139  0.1717
33031DOD     C342914   3.964  24.592  29.320 -0.1392 -0.1169 -0.1415
33032DOD     C142915  22.655   0.693  19.969 -0.1393  0.2172 -0.0488
33032DOD     C242916  22.366   0.771  19.608  0.0355  0.0852 -0.0569
33032DOD     C342917  22.210   1.006  19.224  0.1616 -0.0085 -0.0816
33033DOD     C142918  15.688   7.423  23.797  0.1011 -0.1785 -0.2073
33033DOD     C242919  15.623   7.696  24.170 -0.1997  0.1078 -0.1779
33033DOD     C342920  15.297   7.880  24.437 -0.1864  0.1125  0.0256
33034DOD     C142921  25.706  24.673  21.200  0.1720  0.0764  0.0918
33034DOD     C242922  25.786  24.274  21.449 -0.1328  0.1454 -0.0471
33034DOD     C342923  25.697  23.891  21.199 -0.0853  0.2792  0.0794
33035DOD     C142924   7.281  10.509   8.773 -0.1887 -0.0669 -0.1252
33035DOD     C242925   7.239  10.473   9.277  0.1015 -0.1606  0.0088
33035DOD     C342926   6.942  10.551   9.650 -0.2915  0.1282 -0.0092
33036DOD     C142927  18.442  16.404  29.026  0.3165  0.1591 -0.0388
33036DOD     C242928  18.639  16.426  29.443  0.3203 -0.0493  0.0156
33036DOD     C342929  18.536  16.356  29.931  0.0989  0.0359 -0.2951
33037DOD     C142930   4.730   0.410   0.429  0.0685 -0.1392  0.4109
33037DOD     C242931   4.771   0.575   0.904 -0.5807 -0.1289  0.3534
33037DOD     C342932   4.836   1.021   1.161  0.0039 -0.2432  0.0575
33038DOD     C142933  10.351  20.749  23.577  0.0239  0.0959 -0.0506
33038DOD     C242934  10.572  21.090  23.681  0.2060 -0.1896 -0.0067
33038DOD     C342935  10.813  21.465  23.923 -0.5581 -0.1949  0.2382
33039DOD     C142936  24.412  29.621  20.322 -0.1841  0.1767  0.2107
33039DOD     C242937  24.828  29.792  20.351  0.1259 -0.0314 -0.0177
33039DOD     C342938  25.181  29.667  20.590 -0.2864  0.2127 -0.0644
33040DOD     C142939  18.616  28.987   1.256  0.1328 -0.2194 -0.2144
33040DOD     C242940  18.525  29.263   0.858  0.1755 -0.1830 -0.2978
33040DOD     C342941  18.383  29.556   0.574 -0.0286 -0.0479  0.2374
33041DOD     C142942  14.017  24.019   0.737  0.3489  0.0422 -0.3011
33041DOD     C242943  14.287  24.357   0.546 -0.0406  0.1207  0.2005
33041DOD     C342944  14.701  24.501   0.732 -0.1909 -0.0312  0.1755
33042DOD     C142945  24.919  11.337  11.972  0.0870  0.1616  0.1479
33042DOD     C242946  24.614  10.939  11.922 -0.0734 -0.0302 -0.1947
33042DOD     C342947  24.384  10.616  11.692  0.3870  0.0235 -0.2484
33043DOD     C142948  20.166   6.317   2.165  0.2320  0.1304 -0.1112
33043DOD     C242949  19.679   6.337   1.987  0.1364 -0.0304 -0.2019
33043DOD     C342950  19.461   6.538   1.680  0.0634  0.1852 -0.0576
33044DOD     C142951   6.577   4.110   8.001  0.0349  0.1842 -0.2165
33044DOD     C242952   6.941   4.259   7.783  0.0786  0.1442 -0.0813
33044DOD     C342953   7.373   4.355   7.606  0.1490 -0.3067 -0.2240
33045DOD     C142954  15.153   8.373  12.834  0.0188 -0.0994 -0.1795
33045DOD     C242955  15.497   8.092  12.803  0.1616 -0.0716 -0.4423
33045DOD     C342956  15.976   8.159  12.743 -0.0705  0.2238 -0.1470
33046DOD     C142957   7.456  16.375   2.297  0.1382  0.0350 -0.1001
33046DOD     C242958   7.822  16.087   2.242 -0.2315 -0.0717  0.3529
33046DOD     C342959   8.009  15.853   1.892 -0.0869 -0.1641  0.0020
33047DOD     C142960  16.271   1.151   0.241  0.3118 -0.2779  0.0709
33047DOD     C242961  16.465   1.383  30.259  0.0455 -0.0254  0.0179
33047DOD     C342962  16.309   1.512  29.855  0.2222 -0.0739  0.2269
33048DOD     C142963   0.427   5.688   1.245  0.1030  0.0655 -0.2063
33048DOD     C242964   0.147   5.354   1.479 -0.2782 -0.2311  0.0281
33048DOD     C342965  30.026   5.407   1.597  0.0148 -0.3044  0.1712
33049DOD     C142966  23.199  16.116  21.270 -0.0006 -0.0845  0.1847
33049DOD     C242967  23.670  16.161  21.385  0.1422  0.0338  0.1317
33049DOD     C342968  24.114  16.020  21.433  0.1332 -0.1153 -0.0670
33050DOD     C142969  26.212  12.600   1.618 -0.1264 -0.0581  0.0078
33050DOD     C242970  26.136  12.319   1.242 -0.0801 -0.2338  0.1999
33050DOD     C342971  25.989  11.942   0.996 -0.1060  0.0186  0.3168
33051DOD     C142972   1.096  19.661   9.221 -0.1157 -0.3534  0.3548
33051DOD     C242973   0.846  19.955   9.446  0.2232 -0.0932 -0.0859
33051DOD     C342974   0.482  20.159   9.560  0.0450 -0.0850 -0.1559
33052DOD     C142975  18.572  19.887  22.899  0.0176  0.0959  0.1026
33052DOD     C242976  18.358  20.236  23.099 -0.1613  0.0048  0.0093
33052DOD     C342977  18.217  20.653  23.110 -0.0844  0.0893  0.0437
33053DOD     C142978   7.408  11.079   6.061  0.1054  0.0191 -0.0830
33053DOD     C242979   7.199  11.486   6.130  0.1661 -0.3446  0.1257
33053DOD     C342980   7.099  11.902   6.312 -0.2009 -0.2934 -0.2112
33054DOD     C142981  15.871  12.944  25.428 -0.3154  0.1294  0.2454
33054DOD     C242982  15.853  13.401  25.599 -0.1757  0.1761  0.1597
33054DOD     C342983  15.604  13.755  25.800 -0.2813 -0.1553 -0.0007
33055DOD     C142984  29.782  11.581  29.783 -0.0756  0.2286  0.0744
33055DOD     C242985  29.862  11.146  29.734  0.1848 -0.1101  0.0168
33055DOD     C342986  29.928  10.707  29.947  0.1386 -0.3086 -0.1726
33056DOD     C142987  18.515   0.139  14.777 -0.1090 -0.0163 -0.0077
33056DOD     C242988  18.608  30.030  14.977 -0.0279 -0.1754  0.0986
33056DOD     C342989  18.495  29.600  15.007 -0.1140  0.1167  0.1207
33057DOD     C142990  21.571  11.019  19.396  0.1085  0.2989  0.1204
33057DOD     C242991  21.560  10.602  19.633 -0.0625  0.0082 -0.3217
33057DOD     C342992  21.346  10.191  19.693 -0.1160 -0.2437  0.2155
33058DOD     C142993  17.336  12.479  18.754 -0.3016  0.2187 -0.2699
33058DOD     C242994  17.651  12.740  19.006 -0.1902  0.0106  0.1642
33058DOD     C342995  17.653  13.102  19.301  0.3394 -0.1633  0.0773
33059DOD     C142996  23.112  23.447   4.764 -0.2406 -0.1210  0.0313
33059DOD     C242997  23.118  23.019   5.053 -0.0287 -0.1585 -0.4712
33059DOD     C342998  23.137  22.882   5.489  0.3390 -0.0237  0.1214
33060DOD     C142999  10.117  14.175   5.138 -0.3870 -0.2305  0.1461
33060DOD     C243000  10.041  14.683   5.067  0.0858  0.0312 -0.1589
33060DOD     C343001   9.942  15.097   5.268 -0.1608  0.0853 -0.0363
33061DOD     C143002   5.570  19.534  22.142 -0.0602 -0.1573  0.2772
33061DOD     C243003   5.196  19.291  21.912  0.2065 -0.1480  0.2109
33061DOD     C343004   4.745  19.379  21.842  0.1741  0.2651  0.0905
33062DOD     C143005  21.901   6.928   5.406 -0.2162  0.1614 -0.2062
33062DOD     C243006  22.179   6.569   5.536 -0.0646 -0.3386 -0.2073
33062DOD     C343007  22.307   6.148   5.505 -0.0122  0.1502 -0.1517
33063DOD     C143008  15.232  23.263   7.202 -0.2262  0.0495 -0.1328
33063DOD     C243009  15.544  23.506   7.537 -0.0489  0.0120  0.1180
33063DOD     C343010  15.784  23.911   7.642 -0.1106 -0.0933  0.0015
33064DOD     C143011  27.647  19.224  25.513  0.1001  0.1462 -0.0165
33064DOD     C243012  28.072  18.999  25.606  0.3229  0.1635 -0.1535
33064DOD     C343013  28.538  18.917  25.643  0.0696  0.0534  0.3305
33065DOD     C143014   5.423  26.591  23.257 -0.0542  0.0762  0.0887
33065DOD     C243015   5.326  26.173  23.464  0.1914 -0.2533 -0.0076
33065DOD     C343016   5.029  26.016  23.838  0.0734  0.0570 -0.0898
33066DOD     C143017  22.921  13.373  26.142 -0.2074  0.0211 -0.0647
33066DOD     C243018  22.683  13.667  25.833  0.0608  0.0502  0.3289
33066DOD     C343019  22.484  14.075  25.678  0.2272  0.2065 -0.2646
33067DOD     C143020   3.512   8.412   8.726  0.1192  0.0269  0.2405
33067DOD     C243021   3.614   8.582   8.283  0.1225  0.3434  0.1924
33067DOD     C343022   3.959   8.664   8.088  0.0854  0.0407 -0.0405
33068DOD     C143023  10.595  29.078   7.941 -0.1194  0.1099  0.2024
33068DOD     C243024  10.456  28.707   8.211 -0.1606  0.0306  0.0623
33068DOD     C343025  10.280  28.497   8.631  0.1776 -0.0483  0.2223
33069DOD     C143026   3.015  22.545  17.537 -0.1869 -0.0838 -0.3635
33069DOD     C243027   3.337  22.854  17.685  0.1718  0.1954  0.0436
33069DOD     C343028   3.509  23.275  17.792  0.0845 -0.4114  0.1929
33070DOD     C143029   7.176  27.773  18.511 -0.1896 -0.0907 -0.0806
33070DOD     C243030   7.274  28.215  18.671 -0.3912  0.0687 -0.1097
33070DOD     C343031   7.015  28.521  18.925  0.2059  0.1351  0.0447
33071DOD     C143032  27.764  17.845   5.157  0.1304 -0.2792  0.2242
33071DOD     C243033  27.564  18.161   5.427  0.2672  0.0316  0.1775
33071DOD     C343034  27.409  18.562   5.667  0.0111 -0.0302  0.1404
33072DOD     C143035   5.954   2.860   4.617  0.3523  0.1093 -0.1193
33072DOD     C243036   6.017   2.408   4.609 -0.1602  0.2194 -0.2290
33072DOD     C343037   6.230   2.146   4.862  0.2895  0.0195  0.3369
33073DOD     C143038  25.880  11.987  22.937 -0.1563 -0.0860 -0.3155
33073DOD     C243039  25.601  12.369  23.053 -0.2824  0.2095  0.1961
33073DOD     C343040  25.400  12.819  23.006  0.3411 -0.1434 -0.1646
33074DOD     C143041  20.517   6.197   0.752 -0.3135  0.1465 -0.1559
33074DOD     C243042  20.788   5.957   0.390  0.1370  0.0636 -0.0565
33074DOD     C343043  20.795   5.543   0.152 -0.0451 -0.2011 -0.1665
33075DOD     C143044  24.250  27.951   6.811  0.2224  0.1998 -0.2486
33075DOD     C243045  24.618  28.208   6.727  0.0269 -0.0616  0.0699
33075DOD     C343046  24.678  28.560   6.476  0.0900  0.5246  0.1322
33076DOD     C143047  14.123   6.089  15.561  0.0145 -0.1664 -0.0471
33076DOD     C243048  14.114   6.446  15.842 -0.3330 -0.3650  0.0123
33076DOD     C343049  13.908   6.795  16.116 -0.0721 -0.2211  0.0860
33077DOD     C143050  21.019  19.592  18.433 -0.2171 -0.0194 -0.0128
33077DOD     C243051  21.065  19.857  18.825 -0.0152 -0.1385  0.1663
33077DOD     C343052  21.223  20.126  19.162 -0.0061 -0.1337 -0.0391
33078DOD     C143053  14.074  29.431  26.630  0.2220 -0.2586  0.2393
33078DOD     C243054  14.228  29.751  27.001  0.0617  0.1481 -0.0671
33078DOD     C343055  14.232  29.838  27.494  0.2033 -0.0709  0.3870
33079DOD     C143056  16.839  23.799   2.262  0.0342 -0.0049  0.0812
33079DOD     C243057  17.271  23.773   2.081  0.1142 -0.1398 -0.3065
33079DOD     C343058  17.581  23.998   2.345  0.0834 -0.0384  0.1178
33080DOD     C143059   7.364   4.309   5.194 -0.2833  0.0045 -0.2761
33080DOD     C243060   7.159   4.087   5.559  0.1472 -0.0728  0.0293
33080DOD     C343061   6.987   3.682   5.828  0.1951  0.1451 -0.1242
33081DOD     C143062  11.751  28.030   2.453 -0.0700  0.2096  0.2521
33081DOD     C243063  11.882  28.488   2.480  0.4090 -0.0424  0.0845
33081DOD     C343064  11.927  28.917   2.537  0.1958 -0.1175 -0.3028
33082DOD     C143065  21.770  29.065  21.715 -0.1573  0.1186  0.2312
33082DOD     C243066  22.173  29.147  21.409 -0.1376 -0.1828  0.0337
33082DOD     C343067  22.658  29.214  21.392 -0.0278 -0.0814 -0.0629
33083DOD     C143068  23.593  17.958  18.997 -0.1511 -0.2490 -0.2217
33083DOD     C243069  23.346  18.346  18.845  0.0006  0.0152 -0.0054
33083DOD     C343070  22.962  18.447  18.566  0.1037 -0.0106 -0.1445
33084DOD     C143071  12.135  10.175  16.681  0.0034  0.1399 -0.3420
33084DOD     C243072  12.037  10.601  16.806 -0.1416  0.0476 -0.1977
33084DOD     C343073  12.145  11.057  16.594  0.2034  0.0281 -0.1794
33085DOD     C143074  12.613  26.525  14.293 -0.1886  0.1112  0.2597
33085DOD     C243075  12.239  26.215  14.118  0.0047  0.2340  0.0154
33085DOD     C343076  11.928  25.848  14.148 -0.0051 -0.0661 -0.0488
33086DOD     C143077   3.160  19.641   9.505  0.0094  0.1951  0.0069
33086DOD     C243078   3.417  19.690   9.937 -0.0909 -0.0542 -0.0433
33086DOD     C343079   3.513  19.350  10.229 -0.2698  0.2699 -0.2616
33087DOD     C143080  27.391   9.871  13.458  0.1068 -0.1889 -0.1518
33087DOD     C243081  27.759   9.824  13.182  0.3816  0.0690  0.0136
33087DOD     C343082  28.044   9.664  12.796 -0.1751 -0.1627  0.4884
33088DOD     C143083  28.240  29.428   8.944 -0.0628  0.4150 -0.1744
33088DOD     C243084  27.844  29.248   8.948  0.2803  0.2339 -0.1701
33088DOD     C343085  27.628  28.979   9.254 -0.0958  0.0784 -0.0531
33089DOD     C143086  15.806   3.125  18.113 -0.0637  0.2319  0.1666
33089DOD     C243087  15.443   3.459  17.956  0.1017 -0.0877 -0.0308
33089DOD     C343088  15.549   3.908  17.805 -0.0426 -0.2551 -0.2298
33090DOD     C143089  13.359  19.026   3.711  0.0916  0.0546  0.1067
33090DOD     C243090  13.503  18.669   3.411  0.0525  0.1388 -0.1175
33090DOD     C343091  13.766  18.388   3.129 -0.2712 -0.0213 -0.2138
33091DOD     C143092  19.353   5.491  17.079 -0.1272  0.1688 -0.1402
33091DOD     C243093  19.262   5.832  16.778 -0.0225 -0.1135  0.0418
33091DOD     C343094  19.223   6.171  16.393 -0.1747 -0.1350 -0.0910
33092DOD     C143095  18.673  24.162   4.785 -0.0974  0.1118 -0.0468
33092DOD     C243096  18.731  24.631   4.765  0.1125  0.2770  0.0369
33092DOD     C343097  18.800  25.127   4.851  0.1089  0.0294 -0.4730
33093DOD     C143098  24.743  18.264  13.484  0.2404  0.2262 -0.1221
33093DOD     C243099  24.555  18.154  13.939  0.2464 -0.3039 -0.1897
33093DOD     C343100  24.164  18.334  14.219 -0.2057  0.0089 -0.2129
33094DOD     C143101   5.857  17.792  26.066 -0.1762  0.0487  0.2285
33094DOD     C243102   6.017  17.656  25.560 -0.3440  0.1511 -0.0440
33094DOD     C343103   6.332  17.349  25.385  0.1067 -0.0087 -0.2276
33095DOD     C143104  14.032  19.338  22.416 -0.3214  0.2495 -0.3093
33095DOD     C243105  14.010  19.643  22.750  0.4762 -0.2048  0.1704
33095DOD     C343106  14.032  20.033  22.995  0.0643 -0.0123  0.1352
33096DOD     C143107   0.918  15.213  12.365 -0.0824 -0.0069  0.0093
33096DOD     C243108   0.808  14.904  12.670  0.2176  0.3784 -0.0584
33096DOD     C343109   0.901  14.424  12.676 -0.2687  0.1990 -0.1658
33097DOD     C143110  25.119  12.325  21.004 -0.1029 -0.0709  0.0376
33097DOD     C243111  25.265  12.744  20.918 -0.0075 -0.2758  0.4837
33097DOD     C343112  25.597  13.083  20.780 -0.0459  0.1156 -0.1572
33098DOD     C143113  10.577  30.065  24.242  0.1760  0.1687  0.0783
33098DOD     C243114  10.228  29.813  24.083 -0.4450  0.2685  0.0285
33098DOD     C343115  10.057  29.399  24.078  0.1213 -0.0665 -0.4799
33099DOD     C143116   5.700  18.394   5.099 -0.0181 -0.0371 -0.0417
33099DOD     C243117   5.494  18.081   5.381 -0.0219 -0.1665  0.0553
33099DOD     C343118   5.679  17.934   5.803 -0.1351  0.2054  0.0377
33100DOD     C143119  18.146   5.624  20.595 -0.1549  0.0489 -0.1432
33100DOD     C243120  18.213   5.862  20.964  0.0341  0.2033 -0.4355
33100DOD     C343121  18.494   5.783  21.344 -0.0547  0.0917 -0.1276
33101DOD     C143122   8.670  28.466  20.167 -0.1546  0.2250 -0.0371
33101DOD     C243123   8.268  28.206  20.324  0.3327 -0.1834 -0.3043
33101DOD     C343124   8.010  28.171  20.689 -0.0695  0.2272  0.2743
33102DOD     C143125  26.033  14.844   6.837  0.1002  0.0234  0.4187
33102DOD     C243126  26.254  14.497   6.615  0.0715  0.2865 -0.0787
33102DOD     C343127  26.174  14.094   6.286 -0.2010  0.1953 -0.2926
33103DOD     C143128  30.275  15.220   5.876  0.0570 -0.1035  0.2446
33103DOD     C243129  30.205  15.156   5.420  0.1168  0.0586 -0.2962
33103DOD     C343130  30.245  14.984   4.981 -0.0245 -0.2176 -0.0288
33104DOD     C143131  17.866  14.370  18.145  0.1431  0.1167  0.0452
33104DOD     C243132  17.888  14.157  18.553 -0.0106 -0.1703  0.0537
33104DOD     C343133  18.006  14.339  18.967 -0.3018  0.2413 -0.3389
33105DOD     C143134  29.041  29.247  24.492  0.4878 -0.0806 -0.3199
33105DOD     C243135  29.469  29.206  24.669  0.0250 -0.1533 -0.2689
33105DOD     C343136  29.926  29.267  24.591 -0.0053 -0.0738  0.0778
33106DOD     C143137  15.277   3.729  24.708 -0.2324 -0.2508  0.0192
33106DOD     C243138  15.335   4.216  24.845  0.0744 -0.1711 -0.0365
33106DOD     C343139  15.137   4.588  24.760 -0.0918 -0.2029  0.0320
33107DOD     C143140  29.057  20.714  13.318  0.1574  0.0959  0.0218
33107DOD     C243141  29.481  20.561  13.411  0.0996 -0.0635 -0.4171
33107DOD     C343142  29.905  20.436  13.411  0.0501  0.0104  0.0046
33108DOD     C143143  26.596  18.506  28.706  0.1826  0.0394  0.2019
33108DOD     C243144  26.491  18.648  29.110 -0.0966  0.1247  0.2069
33108DOD     C343145  26.309  18.431  29.523  0.0760 -0.0783  0.4130
33109DOD     C143146  12.696  27.859  16.752  0.3296  0.1638  0.4046
33109DOD     C243147  12.289  28.078  16.609  0.1027  0.1725 -0.0133
33109DOD     C343148  12.051  28.409  16.481  0.1828  0.1199 -0.0056
33110DOD     C143149  13.036  18.934   7.115 -0.0112  0.2246 -0.3382
33110DOD     C243150  12.853  18.514   7.276 -0.0826  0.0594  0.0639
33110DOD     C343151  12.678  18.061   7.200 -0.2588  0.0833 -0.4544
33111DOD     C143152  18.241  15.708  18.124 -0.1319 -0.0604  0.1946
33111DOD     C243153  18.439  15.658  17.724  0.1243 -0.0913  0.1516
33111DOD     C343154  18.372  15.493  17.369  0.0734  0.1454 -0.1401
33112DOD     C143155   5.705  29.004  15.351  0.1087 -0.2052  0.0641
33112DOD     C243156   5.508  29.345  15.518 -0.0887 -0.0002 -0.0783
33112DOD     C343157   5.106  29.606  15.613  0.0987  0.0039 -0.0229
33113DOD     C143158   2.630  11.565   6.329  0.0570  0.3697  0.0158
33113DOD     C243159   2.790  11.330   5.974  0.1303  0.2380 -0.1720
33113DOD     C343160   2.631  11.205   5.564 -0.1283 -0.2789 -0.0507
33114DOD     C143161  20.643  29.366  23.255 -0.1376 -0.0630 -0.4389
33114DOD     C243162  20.728  29.801  23.102 -0.3040  0.0997  0.2936
33114DOD     C343163  20.926  30.159  23.282 -0.1659  0.0267 -0.0676
33115DOD     C143164  23.814  26.077  27.151 -0.2308  0.1064 -0.2724
33115DOD     C243165  24.221  25.776  27.032  0.0365  0.1319 -0.0287
33115DOD     C343166  24.593  25.558  27.081 -0.2433  0.0851  0.0462
33116DOD     C143167  28.584   6.165   7.748  0.0221 -0.3447 -0.5845
33116DOD     C243168  28.394   5.900   8.060  0.1197  0.1071 -0.2049
33116DOD     C343169  28.025   5.642   8.284 -0.2281 -0.2323 -0.1936
33117DOD     C143170  14.344  17.351   5.955 -0.1285  0.1882 -0.2645
33117DOD     C243171  13.951  17.124   5.819 -0.1212  0.0729 -0.0205
33117DOD     C343172  13.763  16.988   5.371 -0.2948 -0.2306 -0.3810
33118DOD     C143173  19.103  24.261  16.321  0.2011 -0.1474 -0.3172
33118DOD     C243174  18.724  24.084  16.247 -0.2207 -0.1734  0.2921
33118DOD     C343175  18.288  24.067  16.050 -0.1147  0.3383  0.0382
33119DOD     C143176   8.424  11.255   4.248 -0.4092 -0.3800  0.2451
33119DOD     C243177   8.446  11.695   4.414 -0.0849 -0.1812  0.1077
33119DOD     C343178   8.335  12.065   4.680  0.2302 -0.2361 -0.0585
33120DOD     C143179   9.513  20.516  11.652 -0.2105  0.2722  0.3069
33120DOD     C243180   9.580  20.485  11.204 -0.3124 -0.0025 -0.0312
33120DOD     C343181   9.335  20.483  10.850 -0.0642 -0.0171  0.3697
33121DOD     C143182  12.760  16.198  14.769  0.1813  0.1942 -0.0561
33121DOD     C243183  12.865  16.647  14.682  0.2176 -0.1790 -0.4618
33121DOD     C343184  13.017  17.024  14.525  0.0474  0.2002 -0.1915
33122DOD     C143185  26.635   7.368  14.427 -0.0170  0.0396  0.0248
33122DOD     C243186  26.803   7.690  14.765  0.3037 -0.0866  0.0597
33122DOD     C343187  26.765   8.092  15.002  0.1243 -0.1592 -0.0469
33123DOD     C143188  20.380   8.590  18.086 -0.1766  0.0246 -0.2400
33123DOD     C243189  20.150   8.220  18.269 -0.1480  0.0275  0.2201
33123DOD     C343190  19.929   7.967  18.600  0.0089  0.3519  0.0996
33124DOD     C143191  20.887  11.745  19.894  0.1903 -0.0474  0.3505
33124DOD     C243192  20.818  11.697  19.451 -0.0983 -0.0489 -0.1420
33124DOD     C343193  20.743  11.489  19.030  0.0100 -0.0286  0.0461
33125DOD     C143194  20.086   4.071  18.049 -0.1723  0.0637 -0.2655
33125DOD     C243195  19.920   4.498  18.060  0.2816  0.0287 -0.0046
33125DOD     C343196  19.521   4.701  18.178 -0.1484  0.2374 -0.0010
33126DOD     C143197  15.931  26.281  14.453 -0.0789  0.1206 -0.0654
33126DOD     C243198  15.852  26.666  14.178  0.2079 -0.0135  0.1078
33126DOD     C343199  15.961  27.079  13.993 -0.1535 -0.1719 -0.1693
33127DOD     C143200   1.952  15.933   1.304  0.0272  0.0598  0.1066
33127DOD     C243201   1.799  15.654   0.958  0.2808 -0.1330 -0.2374
33127DOD     C343202   1.501  15.706   0.580  0.1860  0.0086  0.1213
33128DOD     C143203  22.717  28.171  17.920 -0.2017 -0.3236  0.2211
33128DOD     C243204  22.257  28.168  17.928 -0.0421 -0.1271 -0.1573
33128DOD     C343205  21.859  28.115  17.616  0.0343 -0.1412 -0.0053
33129DOD     C143206   7.289   4.645  15.806  0.3152 -0.1023  0.1663
33129DOD     C243207   7.579   4.898  15.493 -0.3304  0.1923  0.0697
33129DOD     C343208   7.779   5.317  15.333  0.1462 -0.3411 -0.0237
33130DOD     C143209  29.224  13.556  19.970  0.2680 -0.2631  0.1366
33130DOD     C243210  29.083  13.482  20.360 -0.1779 -0.0111 -0.2918
33130DOD     C343211  29.289  13.339  20.751 -0.2108  0.0022 -0.1080
33131DOD     C143212  19.337  29.894  14.315  0.0052 -0.1316 -0.1599
33131DOD     C243213  19.446  29.768  14.785  0.3393  0.1980 -0.0451
33131DOD     C343214  19.066  29.538  14.983  0.0984 -0.2418  0.2428
33132DOD     C143215  25.323  14.819   2.311  0.0895  0.0757  0.1940
33132DOD     C243216  24.911  14.943   2.415 -0.3536  0.1298 -0.1037
33132DOD     C343217  24.590  15.189   2.667 -0.0481  0.0889  0.0989
33133DOD     C143218   4.894  16.685  10.003  0.0716 -0.3599 -0.2231
33133DOD     C243219   4.811  16.875  10.369  0.1075 -0.1755  0.1104
33133DOD     C343220   4.490  16.972  10.657 -0.0878  0.0225  0.3195
33134DOD     C143221   2.495  16.292  28.884  0.0041  0.2188 -0.1511
33134DOD     C243222   2.669  16.356  28.470 -0.2213 -0.1425 -0.2336
33134DOD     C343223   2.828  16.308  27.980 -0.0179  0.1450 -0.2832
33135DOD     C143224  30.107   6.700  29.486 -0.1525  0.1632 -0.1136
33135DOD     C243225  30.303   6.895  29.829  0.0673  0.3406 -0.2581
33135DOD     C343226  30.295   7.318  30.080  0.0203  0.4049 -0.1125
33136DOD     C143227   3.702   0.616   3.804 -0.1873  0.1037  0.1083
33136DOD     C243228   4.114   0.689   4.009  0.0154 -0.0017  0.2973
33136DOD     C343229   4.536   0.525   3.934  0.0763 -0.0006 -0.4227
33137DOD     C143230  13.753  15.296  28.802  0.0493  0.0032 -0.0484
33137DOD     C243231  13.594  15.079  28.444  0.2187 -0.2549 -0.3180
33137DOD     C343232  13.314  14.975  28.090  0.0590  0.0305 -0.0900
33138DOD     C143233  11.282  11.067  17.593  0.2703 -0.1144  0.0839
33138DOD     C243234  11.524  10.969  17.241 -0.0012 -0.1172 -0.2177
33138DOD     C343235  11.966  11.039  17.094 -0.1707 -0.1151  0.0285
33139DOD     C143236  18.757  19.429  18.860  0.0842 -0.0779  0.2800
33139DOD     C243237  18.348  19.458  18.627  0.0298 -0.1035  0.2087
33139DOD     C343238  18.147  19.351  18.196 -0.2573 -0.0496  0.0950
33140DOD     C143239   8.428   3.216  26.733 -0.0119  0.1594  0.1593
33140DOD     C243240   8.672   3.382  27.093  0.3862 -0.1957 -0.1703
33140DOD     C343241   8.963   3.267  27.521  0.0309  0.5532  0.1110
33141DOD     C143242   4.078  17.730  11.606 -0.0438  0.2786  0.0666
33141DOD     C243243   3.794  17.495  11.828 -0.0624 -0.0664  0.0255
33141DOD     C343244   3.546  17.481  12.213  0.2171 -0.1475  0.3535
33142DOD     C143245   2.371   9.603  15.171  0.0984 -0.1973  0.0306
33142DOD     C243246   2.067   9.273  15.092 -0.3176  0.1507 -0.0454
33142DOD     C343247   1.814   8.897  14.980 -0.0936 -0.1898  0.2112
33143DOD     C143248  10.631  27.241  10.928  0.0708 -0.0565 -0.1378
33143DOD     C243249  10.651  27.642  10.627 -0.1972  0.1471 -0.0740
33143DOD     C343250  10.866  27.830  10.221  0.0434 -0.3574  0.0031
33144DOD     C143251  21.260   1.954   7.668  0.1652 -0.1295  0.0639
33144DOD     C243252  21.264   1.958   7.198  0.2107 -0.0113 -0.1356
33144DOD     C343253  21.581   1.901   6.821 -0.2439  0.1873 -0.4215
33145DOD     C143254   8.731   8.074   2.194  0.0626  0.0253 -0.0363
33145DOD     C243255   8.412   7.832   2.378  0.2410  0.6528 -0.1306
33145DOD     C343256   7.985   7.638   2.356 -0.0889 -0.1159  0.2127
33146DOD     C143257  12.274   8.619  11.440  0.1780  0.1409 -0.0473
33146DOD     C243258  12.337   8.864  11.849 -0.0731  0.1913  0.0196
33146DOD     C343259  12.072   8.811  12.175  0.1051 -0.0437 -0.1176
33147DOD     C143260  10.168  11.960   8.612  0.2695  0.1129  0.5255
33147DOD     C243261  10.656  12.091   8.598  0.1288  0.1357  0.1810
33147DOD     C343262  10.929  12.495   8.584  0.0211  0.2550 -0.1471
33148DOD     C143263  11.651  21.195  23.224 -0.2665  0.0948 -0.0885
33148DOD     C243264  11.440  21.166  22.816  0.1586  0.2494 -0.1304
33148DOD     C343265  11.174  20.956  22.507 -0.1909  0.4818 -0.1052
33149DOD     C143266   3.847   8.912  15.301  0.0801  0.4694 -0.0455
33149DOD     C243267   3.982   8.843  15.737  0.0441  0.0652 -0.0335
33149DOD     C343268   3.972   8.776  16.206 -0.0310  0.2722 -0.3318
33150DOD     C143269   5.783  28.898   4.442  0.1480 -0.0425 -0.1410
33150DOD     C243270   5.358  28.691   4.548 -0.3042  0.1562 -0.1122
33150DOD     C343271   4.957  28.862   4.573  0.2575 -0.3231  0.0575
33151DOD     C143272  17.943  18.660  16.913 -0.0759 -0.1405  0.2767
33151DOD     C243273  18.159  18.642  17.351  0.0687 -0.0273 -0.0823
33151DOD     C343274  18.345  18.504  17.769  0.1804  0.1337  0.0739
33152DOD     C143275  21.895  21.729  15.015 -0.0142  0.1461 -0.1070
33152DOD     C243276  21.794  21.873  14.565  0.2180  0.1334 -0.2222
33152DOD     C343277  21.653  22.082  14.170  0.2866 -0.2957  0.1009
33153DOD     C143278  15.154   4.874   9.987 -0.1371  0.2688  0.0323
33153DOD     C243279  14.665   4.908   9.952  0.1932 -0.0805  0.3671
33153DOD     C343280  14.326   4.775   9.686 -0.0974 -0.0289  0.2888
33154DOD     C143281  11.044   6.775  13.206 -0.1196 -0.0006 -0.2172
33154DOD     C243282  10.667   6.852  12.924  0.0019  0.1708 -0.1978
33154DOD     C343283  10.574   7.062  12.515 -0.1889  0.4591  0.0576
33155DOD     C143284  27.159  24.409  24.852  0.0282  0.3498 -0.0650
33155DOD     C243285  27.631  24.454  24.748 -0.0086 -0.3313 -0.1095
33155DOD     C343286  28.065  24.363  24.630  0.2841 -0.1043 -0.1884
33156DOD     C143287  25.639  14.637   7.398  0.2584  0.0610  0.0790
33156DOD     C243288  25.229  14.909   7.525  0.3263 -0.1519  0.0825
33156DOD     C343289  24.838  14.994   7.792  0.0563 -0.1817 -0.0448
33157DOD     C143290   6.489  23.833   9.436 -0.2250 -0.2391 -0.1162
33157DOD     C243291   6.523  23.879   9.899 -0.0657  0.0535  0.0026
33157DOD     C343292   6.800  23.865  10.254  0.0605  0.1969 -0.3727
33158DOD     C143293  23.524  21.172  10.258  0.2103  0.2495 -0.2198
33158DOD     C243294  23.296  20.764  10.136  0.2050  0.4191 -0.0380
33158DOD     C343295  23.518  20.362  10.043 -0.0113 -0.1480  0.3361
33159DOD     C143296  20.819   3.485   8.126  0.1043  0.1101 -0.1883
33159DOD     C243297  21.067   3.765   8.417 -0.2863  0.0304 -0.1339
33159DOD     C343298  21.360   4.096   8.500  0.1007 -0.2099  0.1009
33160DOD     C143299  25.021   2.378  18.920  0.3221  0.1413  0.2680
33160DOD     C243300  24.640   2.560  18.876 -0.1179 -0.1625  0.2466
33160DOD     C343301  24.295   2.397  18.604 -0.1757 -0.2109 -0.0797
33161DOD     C143302   0.501  22.402  24.243  0.2353 -0.0887 -0.1594
33161DOD     C243303   0.373  22.817  24.061 -0.1315  0.1603  0.1430
33161DOD     C343304   0.174  23.146  23.807  0.0314 -0.0336 -0.2827
33162DOD     C143305   3.913  28.117  22.067 -0.1723  0.2796 -0.1372
33162DOD     C243306   4.042  27.822  22.429  0.0563  0.1394 -0.2118
33162DOD     C343307   3.905  27.754  22.862 -0.1131 -0.0182  0.2988
33163DOD     C143308   6.219  16.706   4.528 -0.1718  0.2349  0.0576
33163DOD     C243309   6.313  17.143   4.674 -0.0594  0.0903 -0.4742
33163DOD     C343310   6.564  17.481   4.479 -0.4236  0.1069  0.0694
33164DOD     C143311  12.740  22.871   5.527  0.3009 -0.3006 -0.0618
33164DOD     C243312  12.584  23.252   5.337 -0.1590 -0.0360 -0.0747
33164DOD     C343313  12.722  23.705   5.097 -0.1597  0.0814 -0.0301
33165DOD     C143314  16.380  28.201  19.288  0.1563 -0.0691  0.0906
33165DOD     C243315  16.130  27.924  19.605  0.3119 -0.2952 -0.1327
33165DOD     C343316  16.005  27.767  19.975  0.2648  0.1367 -0.2067
33166DOD     C143317  20.465   8.465  14.216 -0.0861 -0.1485  0.0922
33166DOD     C243318  20.111   8.207  13.998 -0.0683 -0.0444 -0.2884
33166DOD     C343319  19.961   7.758  13.878 -0.0714  0.2420 -0.0615
33167DOD     C143320  26.380   1.869  29.798  0.3846 -0.1747 -0.1298
33167DOD     C243321  26.103   1.802  30.202  0.0302 -0.3418 -0.0243
33167DOD     C343322  25.980   1.961   0.326 -0.0475  0.3385  0.3925
33168DOD     C143323  17.741   4.040  27.625  0.3878 -0.1549  0.0287
33168DOD     C243324  17.518   3.821  27.213  0.2806 -0.2457 -0.0693
33168DOD     C343325  17.270   3.810  26.801  0.0290 -0.1211  0.2096
33169DOD     C143326  16.816  25.976  22.441  0.2748 -0.0994  0.2849
33169DOD     C243327  16.797  26.223  21.972  0.0963 -0.0016  0.0951
33169DOD     C343328  16.724  26.520  21.680  0.0483 -0.4624  0.1495
33170DOD     C143329  25.464  21.885   0.699  0.2254 -0.1336 -0.1948
33170DOD     C243330  25.314  22.274   0.511  0.2415  0.0605  0.3567
33170DOD     C343331  25.104  22.588   0.363 -0.0302  0.4932  0.1896
33171DOD     C143332  11.160   7.626  25.664 -0.4212  0.0070 -0.3096
33171DOD     C243333  11.385   7.990  25.800  0.2994 -0.4081 -0.0244
33171DOD     C343334  11.745   8.241  25.903 -0.1858  0.0492 -0.0539
33172DOD     C143335  16.116   4.320  23.255  0.0798 -0.1023 -0.1590
33172DOD     C243336  15.843   4.649  23.108  0.2388  0.1425 -0.1396
33172DOD     C343337  15.501   4.888  23.329  0.1259 -0.0639  0.1750
33173DOD     C143338   8.701  20.078  17.284  0.1753 -0.1800  0.1245
33173DOD     C243339   8.429  20.499  17.113 -0.2500 -0.0672 -0.1439
33173DOD     C343340   8.277  20.895  16.910 -0.1996  0.2086  0.0035
33174DOD     C143341  23.572  18.161  26.187 -0.0290 -0.2898  0.0627
33174DOD     C243342  23.830  18.471  26.480  0.1191 -0.0693  0.1579
33174DOD     C343343  24.010  18.855  26.652  0.0294  0.1914 -0.2532
33175DOD     C143344  17.186  23.743   1.065 -0.1463  0.1567 -0.3352
33175DOD     C243345  17.374  23.430   1.384  0.0181 -0.0704  0.0550
33175DOD     C343346  17.108  23.054   1.342 -0.2392  0.1873 -0.1555
33176DOD     C143347  27.032  25.623  26.429  0.0271  0.0669 -0.3055
33176DOD     C243348  27.486  25.770  26.488  0.1415 -0.1154  0.2497
33176DOD     C343349  27.853  25.808  26.748 -0.0565 -0.0319 -0.0485
33177DOD     C143350  27.096   1.111  11.162 -0.1744 -0.3898 -0.1494
33177DOD     C243351  27.113   1.301  10.776  0.0520 -0.4154  0.4482
33177DOD     C343352  26.886   1.452  10.392 -0.2719 -0.2031 -0.1661
33178DOD     C143353   6.130  26.689  10.083 -0.0819  0.1161  0.1518
33178DOD     C243354   6.409  26.352  10.175 -0.1609 -0.2760  0.1860
33178DOD     C343355   6.652  25.978  10.079 -0.1099  0.0082  0.0416
33179DOD     C143356  17.219  19.135   6.868  0.0771 -0.0363  0.1359
33179DOD     C243357  17.648  19.060   7.063 -0.1208  0.1866 -0.0926
33179DOD     C343358  18.027  18.875   7.242  0.2511 -0.1619 -0.3518
33180DOD     C143359   9.699   4.141  26.990  0.1695  0.0269  0.1317
33180DOD     C243360   9.301   4.131  27.238 -0.1786  0.0599  0.1609
33180DOD     C343361   9.104   4.261  27.596  0.1165 -0.0525  0.0214
33181DOD     C143362  29.172   1.154   1.661  0.0062  0.0702  0.1153
33181DOD     C243363  29.656   1.114   1.572 -0.3498 -0.0006  0.2173
33181DOD     C343364  29.769   1.376   1.157 -0.0448  0.3060  0.4010
33182DOD     C143365   3.712   1.025  20.351  0.0923  0.4764 -0.0451
33182DOD     C243366   3.368   1.233  20.136  0.0209  0.1213  0.1155
33182DOD     C343367   3.032   1.196  19.866 -0.1769  0.3182  0.3661
33183DOD     C143368   8.688  13.160  11.042  0.3196 -0.0394 -0.2829
33183DOD     C243369   8.538  13.579  11.037 -0.0855 -0.1486 -0.3228
33183DOD     C343370   8.555  14.032  10.782  0.0492  0.0515 -0.1898
33184DOD     C143371  23.698   3.912  15.526 -0.0568 -0.1631  0.0231
33184DOD     C243372  23.924   3.629  15.771 -0.2018 -0.0489  0.1573
33184DOD     C343373  24.221   3.301  15.657  0.0284 -0.2320  0.0929
33185DOD     C143374   5.388  18.107   4.861  0.0254 -0.0271 -0.0756
33185DOD     C243375   5.115  18.319   5.166 -0.4686 -0.0100  0.0987
33185DOD     C343376   4.747  18.278   5.499 -0.0241 -0.1554  0.5798
33186DOD     C143377   6.895  17.492  25.281  0.2933  0.1300  0.0431
33186DOD     C243378   6.685  17.114  25.088  0.0724 -0.0988  0.0887
33186DOD     C343379   6.488  17.042  24.605 -0.3130 -0.1204 -0.0216
33187DOD     C143380  23.270  10.688  21.106  0.0129 -0.2051  0.3948
33187DOD     C243381  23.366  10.309  21.335 -0.0172  0.2177 -0.2497
33187DOD     C343382  23.415   9.903  21.131 -0.2898  0.0805  0.0343
33188DOD     C143383   6.431  19.357  20.248 -0.1577  0.2119 -0.1537
33188DOD     C243384   6.025  19.535  20.218  0.1937  0.1652 -0.0319
33188DOD     C343385   5.690  19.538  20.543  0.0567 -0.0291  0.0570
33189DOD     C143386   9.698   9.990  10.408  0.2412  0.0316  0.1829
33189DOD     C243387   9.589   9.633  10.126 -0.2498  0.1446  0.0073
33189DOD     C343388   9.309   9.365   9.848  0.1869 -0.2347  0.0544
33190DOD     C143389  10.083  26.328  17.391  0.1593  0.2120  0.1523
33190DOD     C243390  10.283  26.629  17.126  0.1099  0.1515  0.2324
33190DOD     C343391  10.698  26.883  17.132 -0.0418 -0.4377 -0.0657
33191DOD     C143392   4.987  11.870  19.987  0.0850 -0.2620  0.2783
33191DOD     C243393   5.150  12.302  20.061  0.1345  0.3860  0.0786
33191DOD     C343394   5.121  12.694  20.300  0.1029  0.0210 -0.2655
33192DOD     C143395  18.038   6.233  21.213  0.0109 -0.0473 -0.1564
33192DOD     C243396  17.786   6.425  21.470  0.1459 -0.0981 -0.1584
33192DOD     C343397  17.284   6.428  21.575 -0.1772  0.1337  0.2248
33193DOD     C143398   6.622  11.634  25.305 -0.0971  0.0341 -0.1970
33193DOD     C243399   6.444  11.158  25.293 -0.2237 -0.3646 -0.0262
33193DOD     C343400   6.526  10.857  24.947  0.2488  0.1546  0.3256
33194DOD     C143401  16.813  26.427  12.229 -0.0244  0.1876  0.1150
33194DOD     C243402  16.367  26.594  12.466 -0.3308  0.0854 -0.1265
33194DOD     C343403  15.915  26.600  12.516  0.0940 -0.0071  0.2738
33195DOD     C143404  15.783   3.462  20.871  0.0344  0.1805  0.0180
33195DOD     C243405  15.872   3.044  20.669 -0.0270 -0.0847  0.2685
33195DOD     C343406  15.655   2.634  20.543 -0.0397 -0.0460  0.1021
33196DOD     C143407  21.988  15.695  12.851  0.4521  0.0332 -0.1040
33196DOD     C243408  21.849  16.097  12.685 -0.3190 -0.0174  0.0644
33196DOD     C343409  22.016  16.542  12.657  0.0904 -0.2439 -0.0278
33197DOD     C143410  29.680  18.618   2.736 -0.0114 -0.1484  0.0800
33197DOD     C243411  29.660  18.367   3.130  0.1466  0.0015 -0.0817
33197DOD     C343412  29.446  18.370   3.601  0.0408  0.1001 -0.1957
33198DOD     C143413  24.737  29.660   9.350 -0.0301  0.2307 -0.1247
33198DOD     C243414  25.045  29.303   9.515 -0.0312  0.0532  0.0203
33198DOD     C343415  25.166  28.906   9.422  0.0018  0.0187 -0.1671
33199DOD     C143416  14.314  24.619  18.988  0.2633 -0.1090  0.1120
33199DOD     C243417  14.016  24.308  19.022 -0.1708 -0.2537  0.1092
33199DOD     C343418  13.514  24.259  19.174 -0.0751 -0.0465  0.3721
33200DOD     C143419   2.285  11.152  18.143  0.1279  0.0924  0.0564
33200DOD     C243420   2.714  11.029  18.290  0.0230 -0.2083  0.0351
33200DOD     C343421   3.004  10.903  18.597 -0.0076 -0.1472 -0.2969
33201DOD     C143422   2.090  17.409  15.279  0.0260 -0.2308 -0.1069
33201DOD     C243423   2.316  17.006  15.307 -0.0479 -0.3576 -0.2340
33201DOD     C343424   2.384  16.864  15.690 -0.1335  0.1534 -0.3237
33202DOD     C143425   4.256  29.026  28.033  0.2100  0.2072  0.1516
33202DOD     C243426   4.706  28.901  28.058 -0.0821  0.1408 -0.0791
33202DOD     C343427   5.002  28.759  27.709 -0.0244  0.3157  0.2138
33203DOD     C143428  13.380  11.923   3.128  0.1996  0.0675  0.2095
33203DOD     C243429  13.269  11.724   3.482  0.0135 -0.3020 -0.0668
33203DOD     C343430  13.048  11.491   3.824 -0.0028 -0.0414  0.2570
33204DOD     C143431   2.079  21.828   6.554  0.1304 -0.0551 -0.0225
33204DOD     C243432   2.136  21.421   6.309  0.2302  0.0984 -0.2271
33204DOD     C343433   2.233  21.052   6.427  0.0511  0.2161  0.0268
33205DOD     C143434   0.375  19.874  13.375  0.3639  0.1400 -0.3765
33205DOD     C243435  30.302  20.040  13.476  0.1483  0.0574 -0.1317
33205DOD     C343436  29.936  20.112  13.789 -0.0602 -0.0205 -0.1155
33206DOD     C143437  18.822  19.649  27.181  0.0668  0.0331  0.0604
33206DOD     C243438  19.049  19.581  26.787 -0.1041  0.1254  0.1344
33206DOD     C343439  19.400  19.749  26.565  0.1293  0.2337  0.1821
33207DOD     C143440  12.137  24.002  13.260 -0.1595  0.2065 -0.1366
33207DOD     C243441  12.111  23.755  12.870  0.1341  0.1403  0.2474
33207DOD     C343442  12.118  23.299  12.761 -0.1046 -0.1098 -0.1124
33208DOD     C143443   1.409  29.223  23.029 -0.0188  0.2417  0.2841
33208DOD     C243444   1.057  29.177  22.740  0.2231 -0.1650 -0.2720
33208DOD     C343445   0.744  28.976  22.486  0.1206 -0.2102 -0.1091
33209DOD     C143446  19.951  25.547  22.774  0.0330 -0.0220  0.4157
33209DOD     C243447  19.730  25.592  23.200 -0.4270  0.0029 -0.1288
33209DOD     C343448  19.327  25.767  23.169 -0.1490 -0.0871  0.0004
33210DOD     C143449  24.428  30.064  11.475 -0.0045  0.1563  0.0277
33210DOD     C243450  24.391   0.172  11.655 -0.2295 -0.1249 -0.0806
33210DOD     C343451  24.266   0.600  11.694  0.0667 -0.1323  0.3319
33211DOD     C143452   7.313  28.719  17.049 -0.2173  0.3109  0.1001
33211DOD     C243453   7.188  29.128  17.089 -0.0033  0.0191  0.2748
33211DOD     C343454   7.213  29.458  17.430 -0.0094 -0.3109 -0.1735
33212DOD     C143455   4.756  23.587  12.946 -0.0559 -0.2175 -0.3835
33212DOD     C243456   5.050  23.734  12.600  0.0320 -0.0439  0.1243
33212DOD     C343457   5.074  23.902  12.131  0.0215 -0.0946 -0.1059
33213DOD     C143458   7.120  16.009  12.157 -0.0508  0.0897  0.0968
33213DOD     C243459   7.333  16.365  12.447  0.1762  0.1092  0.1400
33213DOD     C343460   7.040  16.647  12.728  0.0330  0.2316 -0.2295
33214DOD     C143461  14.471   9.512  15.896 -0.0983  0.4337  0.0734
33214DOD     C243462  14.287   9.370  16.328  0.3339  0.1552  0.3373
33214DOD     C343463  14.077   9.548  16.708  0.0141 -0.1537  0.1773
33215DOD     C143464   4.553  24.435  18.425 -0.2603  0.1908 -0.2217
33215DOD     C243465   4.761  23.930  18.395 -0.0851 -0.0176  0.0374
33215DOD     C343466   4.806  23.508  18.618  0.2172  0.0515  0.1907
33216DOD     C143467  27.482  24.982  22.668  0.2060  0.1604 -0.2442
33216DOD     C243468  27.854  25.169  22.922  0.1465 -0.0941 -0.0883
33216DOD     C343469  28.171  25.184  23.277  0.1996 -0.4306 -0.2062
33217DOD     C143470  11.249   6.939  16.184  0.0162 -0.0303 -0.1786
33217DOD     C243471  11.094   6.713  16.525  0.1404  0.1006  0.1550
33217DOD     C343472  11.367   6.465  16.808 -0.4731 -0.0717  0.4201
33218DOD     C143473  28.809   3.780  28.410  0.1510  0.1297 -0.1555
33218DOD     C243474  29.277   3.880  28.576 -0.0241  0.0144 -0.1080
33218DOD     C343475  29.705   3.694  28.632  0.0048  0.0089 -0.1960
33219DOD     C143476  17.040   6.719  23.757 -0.0802  0.2311  0.0060
33219DOD     C243477  17.208   6.617  24.175 -0.0022  0.0412  0.1826
33219DOD     C343478  17.586   6.671  24.478 -0.3819  0.0971 -0.2169
33220DOD     C143479   7.155   2.456   2.192 -0.1260 -0.1198 -0.0547
33220DOD     C243480   6.988   2.050   2.367 -0.0210  0.0156  0.0372
33220DOD     C343481   6.884   1.704   2.671 -0.1017 -0.1342 -0.0432
33221DOD     C143482  23.919  15.544   3.291  0.1233 -0.0016 -0.1720
33221DOD     C243483  24.243  15.342   3.553  0.2377 -0.0951  0.0784
33221DOD     C343484  24.525  15.054   3.785  0.2223 -0.0029 -0.2897
33222DOD     C143485  16.535  29.071  28.734  0.0721 -0.2707 -0.0121
33222DOD     C243486  16.191  29.298  28.985  0.2587 -0.0704  0.1589
33222DOD     C343487  16.021  29.640  29.261  0.2379  0.2914 -0.2340
33223DOD     C143488  24.280  17.759  17.628  0.2192 -0.1116  0.1937
33223DOD     C243489  24.140  17.476  17.968 -0.2396  0.0189 -0.0082
33223DOD     C343490  24.145  16.965  17.930  0.0405 -0.0065 -0.2327
33224DOD     C143491  20.086  26.643  18.596  0.1220  0.0653  0.1202
33224DOD     C243492  20.066  26.794  18.163  0.1299  0.3015 -0.2107
33224DOD     C343493  19.976  26.969  17.752 -0.0420  0.1571  0.1442
33225DOD     C143494   7.054   4.623  28.891 -0.1384 -0.0899  0.1983
33225DOD     C243495   6.679   4.618  28.611 -0.0050 -0.2820 -0.1954
33225DOD     C343496   6.565   4.403  28.250  0.0881  0.1197 -0.2604
33226DOD     C143497  21.853  19.350  27.869 -0.0123 -0.1207  0.0417
33226DOD     C243498  21.789  19.737  27.650  0.2475 -0.2531  0.1832
33226DOD     C343499  21.704  20.069  27.335  0.0235  0.1956  0.2815
33227DOD     C143500   9.048  26.609   1.154  0.2534 -0.1044  0.3737
33227DOD     C243501   8.987  26.605   0.664 -0.1376  0.1434 -0.3518
33227DOD     C343502   8.868  26.288   0.334  0.1700  0.0120  0.1365
33228DOD     C143503  19.046  13.589  22.408  0.3640 -0.1141 -0.2683
33228DOD     C243504  18.865  13.883  22.052 -0.0469  0.1970 -0.0524
33228DOD     C343505  18.806  14.171  21.654  0.1525  0.1050 -0.0978
33229DOD     C143506  20.734   7.704   4.057  0.2150  0.1049 -0.0387
33229DOD     C243507  21.035   7.909   4.369 -0.1366  0.1142 -0.0535
33229DOD     C343508  21.230   7.757   4.751  0.1228  0.0774  0.0493
33230DOD     C143509  18.075   7.889   7.420  0.3363  0.2470  0.0098
33230DOD     C243510  18.543   7.815   7.443 -0.1255  0.0473  0.0469
33230DOD     C343511  19.004   7.741   7.667  0.1298 -0.3504 -0.0254
33231DOD     C143512  14.841   3.476  14.178  0.0059  0.0785 -0.1736
33231DOD     C243513  14.684   3.643  14.631 -0.2761  0.0633  0.3180
33231DOD     C343514  15.005   3.786  14.988  0.2765 -0.3814  0.2053
33232DOD     C143515  18.076  24.328   7.925 -0.0183 -0.0913  0.0013
33232DOD     C243516  17.882  24.586   7.662  0.1584  0.0568 -0.0787
33232DOD     C343517  17.818  24.745   7.231 -0.1517  0.0492  0.0729
33233DOD     C143518   9.182  28.043  27.079  0.0062 -0.1582 -0.3632
33233DOD     C243519   9.466  27.767  26.766 -0.3768 -0.1157 -0.0938
33233DOD     C343520   9.650  27.432  26.444  0.2164  0.2397 -0.0290
33234DOD     C143521   3.266   4.010  26.529  0.2639  0.0959 -0.3483
33234DOD     C243522   3.361   3.665  26.776 -0.0227 -0.2595  0.0131
33234DOD     C343523   3.393   3.257  27.022  0.3886 -0.1109 -0.1153
33235DOD     C143524   8.515  23.112   4.298  0.3083 -0.1365 -0.1216
33235DOD     C243525   8.872  22.961   4.542 -0.1298  0.2645 -0.2835
33235DOD     C343526   9.336  22.956   4.553  0.2853  0.0962 -0.0628
33236DOD     C143527  25.092   6.794   4.860 -0.2116  0.0205 -0.1340
33236DOD     C243528  25.028   7.185   4.626  0.0850  0.2748  0.0907
33236DOD     C343529  24.905   7.501   4.366  0.0120 -0.0741 -0.0045
33237DOD     C143530  26.925   1.688  14.553  0.0174 -0.0722 -0.1094
33237DOD     C243531  26.576   1.753  14.818 -0.0827  0.2196 -0.0021
33237DOD     C343532  26.108   1.809  14.898  0.0354 -0.0210 -0.1329
33238DOD     C143533  10.765  12.326  27.213  0.4388 -0.1908 -0.0420
33238DOD     C243534  10.749  11.971  27.471  0.2348  0.1912 -0.0260
33238DOD     C343535  10.774  11.562  27.722  0.2214 -0.1666  0.0387
33239DOD     C143536   5.823  11.575  19.531  0.1143  0.0051  0.0449
33239DOD     C243537   5.636  11.647  19.091 -0.3104  0.3189 -0.0261
33239DOD     C343538   5.309  11.888  18.971  0.0788  0.0884 -0.2147
33240DOD     C143539  11.815  13.237  19.280 -0.1039  0.0782  0.1192
33240DOD     C243540  11.956  13.608  19.049 -0.3354  0.1145 -0.0066
33240DOD     C343541  12.448  13.631  19.047  0.3824 -0.1512  0.2064
33241DOD     C143542   2.968  26.268   9.482 -0.0660 -0.1319 -0.3254
33241DOD     C243543   2.917  26.745   9.529  0.1747 -0.0560 -0.1731
33241DOD     C343544   2.552  27.091   9.494  0.1001 -0.3622 -0.0677
33242DOD     C143545  23.283   3.129   1.292 -0.0816  0.0904  0.1804
33242DOD     C243546  23.422   3.071   1.740 -0.0648  0.2124  0.0725
33242DOD     C343547  23.843   3.111   2.011 -0.3486  0.0869  0.3652
33243DOD     C143548  13.604   2.698  13.039 -0.0615 -0.2068 -0.0136
33243DOD     C243549  13.297   2.998  13.214 -0.1305 -0.1291 -0.2426
33243DOD     C343550  13.130   3.314  13.455 -0.3409  0.2462  0.0098
33244DOD     C143551  11.580  25.766  11.975 -0.1751  0.1750  0.2106
33244DOD     C243552  11.489  25.645  12.462 -0.0585 -0.0970 -0.0267
33244DOD     C343553  11.497  26.052  12.713  0.0331 -0.0716 -0.3208
33245DOD     C143554   0.655  22.581  28.425 -0.1390  0.2119 -0.0965
33245DOD     C243555   0.460  22.780  28.040 -0.1262 -0.1042  0.1872
33245DOD     C343556   0.216  23.109  27.739  0.1934 -0.2092 -0.1589
33246DOD     C143557  19.331  13.694  17.412 -0.1351 -0.0943 -0.1731
33246DOD     C243558  18.917  13.615  17.598  0.4234  0.0517  0.2615
33246DOD     C343559  18.682  13.632  18.029 -0.0030  0.0944  0.0679
33247DOD     C143560  25.532  21.484  11.268  0.1025  0.0182  0.4434
33247DOD     C243561  25.166  21.710  11.412  0.3099 -0.1639 -0.0985
33247DOD     C343562  24.848  21.460  11.603  0.2317  0.1891 -0.1575
33248DOD     C143563  24.909   8.390  20.338 -0.1307 -0.0695  0.1558
33248DOD     C243564  25.061   8.555  19.920 -0.0089  0.0121  0.2269
33248DOD     C343565  25.268   8.803  19.601  0.0485  0.5448  0.0379
33249DOD     C143566   0.458  21.590  21.307  0.1893 -0.2610  0.1442
33249DOD     C243567   0.647  21.458  20.855  0.1713  0.0256 -0.1544
33249DOD     C343568   0.998  21.202  20.666  0.0912 -0.1700  0.0677
33250DOD     C143569  20.016   3.040  11.993 -0.1292  0.2487 -0.0692
33250DOD     C243570  19.864   2.622  12.039  0.1527 -0.0955  0.2655
33250DOD     C343571  20.157   2.256  11.999 -0.0608 -0.1407  0.1570
33251DOD     C143572  28.178  10.473   4.033  0.0119 -0.0210  0.1048
33251DOD     C243573  28.354  10.558   4.450  0.3556 -0.0242 -0.1305
33251DOD     C343574  28.107  10.885   4.713  0.2274 -0.0990  0.0943
33252DOD     C143575   8.683   4.883  18.136  0.1417  0.0089  0.0203
33252DOD     C243576   8.375   4.638  17.942 -0.0743  0.0129  0.0581
33252DOD     C343577   7.914   4.595  18.051  0.0128 -0.2462 -0.1205
33253DOD     C143578  28.637  26.219  11.392 -0.0517 -0.2540  0.1553
33253DOD     C243579  28.856  26.196  11.840  0.0033  0.2420 -0.2205
33253DOD     C343580  29.172  26.002  12.140 -0.2028 -0.1052 -0.2453
33254DOD     C143581  23.069  10.808  29.312 -0.1432 -0.0238 -0.3557
33254DOD     C243582  23.179  11.054  28.912 -0.4837  0.1219 -0.1918
33254DOD     C343583  23.433  10.984  28.520 -0.0083  0.0133  0.1551
33255DOD     C143584  21.718   8.617  26.197  0.3348  0.2230 -0.2277
33255DOD     C243585  21.360   8.402  26.386 -0.1753  0.1580 -0.0231
33255DOD     C343586  21.035   8.487  26.747 -0.1136  0.1398 -0.0520
33256DOD     C143587  22.722  17.872   0.874 -0.1428 -0.3060 -0.0856
33256DOD     C243588  22.645  17.749   0.398 -0.0175  0.3734 -0.3466
33256DOD     C343589  22.831  18.023   0.078  0.0431 -0.0475 -0.1317
33257DOD     C143590  23.680  18.127   0.557 -0.1719  0.1762  0.0682
33257DOD     C243591  23.341  18.361   0.343 -0.0707  0.0661  0.2231
33257DOD     C343592  22.977  18.517   0.441 -0.0938  0.2028 -0.1204
33258DOD     C143593  10.337  28.944  16.917  0.1930 -0.0603  0.0439
33258DOD     C243594  10.731  28.682  16.993 -0.0363 -0.0756 -0.2535
33258DOD     C343595  11.194  28.613  17.009 -0.0438 -0.0233  0.1472
33259DOD     C143596   5.954   3.521  16.020 -0.0058 -0.1173  0.2691
33259DOD     C243597   5.642   3.602  16.362 -0.0057  0.2849  0.2890
33259DOD     C343598   5.513   3.616  16.778  0.1580  0.1213  0.1461
33260DOD     C143599   0.037   3.128  15.084  0.0803 -0.0547  0.0483
33260DOD     C243600   0.074   2.676  15.044  0.0535  0.1227  0.0080
33260DOD     C343601   0.065   2.320  15.324  0.0596 -0.2948  0.0470
33261DOD     C143602   4.121  23.390   5.757 -0.2199 -0.3485 -0.4294
33261DOD     C243603   4.240  22.956   5.708  0.1583  0.0234  0.1266
33261DOD     C343604   4.461  22.606   5.684  0.1304 -0.0839  0.1558
33262DOD     C143605  25.585  13.200  13.011  0.0448  0.1849  0.4096
33262DOD     C243606  25.444  13.222  13.434 -0.1749  0.1454 -0.3726
33262DOD     C343607  25.504  12.941  13.780 -0.0963  0.1692 -0.0034
33263DOD     C143608  13.528  26.491  26.007 -0.0308 -0.0554 -0.1421
33263DOD     C243609  13.172  26.297  26.217 -0.0302 -0.3583  0.2154
33263DOD     C343610  12.901  26.334  26.600  0.1237  0.0421 -0.0484
33264DOD     C143611  20.828  19.858  19.393  0.0225  0.0633  0.0437
33264DOD     C243612  20.936  19.490  19.652 -0.2269  0.2095 -0.0954
33264DOD     C343613  20.842  19.147  19.993  0.1326 -0.0055  0.2170
33265DOD     C143614  15.521  15.909   8.015 -0.0816  0.2932  0.2322
33265DOD     C243615  15.731  15.813   8.377  0.0065 -0.1142  0.0439
33265DOD     C343616  16.117  15.680   8.565 -0.0958  0.1634 -0.3268
33266DOD     C143617   9.249   6.887  27.856 -0.1465  0.3521  0.0240
33266DOD     C243618   9.077   6.966  27.413  0.0775 -0.0322  0.0697
33266DOD     C343619   8.802   7.155  27.068 -0.0042  0.1640  0.1795
33267DOD     C143620  21.162  27.626  16.387 -0.1099  0.2590  0.0245
33267DOD     C243621  21.082  27.396  16.020 -0.4285  0.0173 -0.0196
33267DOD     C343622  20.903  27.098  15.670 -0.1137 -0.2707 -0.0659
33268DOD     C143623   9.402  15.187  17.055  0.1277 -0.2711  0.0437
33268DOD     C243624   9.802  15.092  17.016  0.1424  0.1281  0.2714
33268DOD     C343625  10.212  14.793  17.058  0.2075  0.3273 -0.0766
33269DOD     C143626   5.541  23.967  21.138 -0.0676 -0.2703  0.1265
33269DOD     C243627   5.857  23.662  21.351  0.2448  0.2325  0.0573
33269DOD     C343628   6.200  23.297  21.371 -0.3617  0.1071  0.2889
33270DOD     C143629  12.469  27.928   3.094  0.0192  0.0693 -0.1399
33270DOD     C243630  12.087  28.084   3.305  0.0371 -0.0439 -0.1343
33270DOD     C343631  11.839  28.444   3.383 -0.0585 -0.2233 -0.2222
33271DOD     C143632  10.263   2.875  16.659 -0.2353  0.2221 -0.0720
33271DOD     C243633  10.446   3.004  17.071 -0.1409  0.0097  0.3660
33271DOD     C343634  10.389   3.293  17.415  0.0674  0.0950  0.0457
33272DOD     C143635   2.881  20.320  25.173 -0.0996 -0.1592  0.0727
33272DOD     C243636   2.976  20.007  24.820  0.2204  0.0871  0.2302
33272DOD     C343637   3.240  19.702  24.614  0.0721  0.2046  0.0564
33273DOD     C143638  16.330  22.587   9.864  0.2548 -0.1765 -0.1937
33273DOD     C243639  16.422  23.010   9.598 -0.3660 -0.4353  0.0430
33273DOD     C343640  16.467  23.461   9.728 -0.0259  0.1046  0.3761
33274DOD     C143641  20.457   6.254  14.657  0.4768 -0.1283 -0.0791
33274DOD     C243642  20.355   6.306  15.121 -0.3586 -0.0906  0.1312
33274DOD     C343643  20.368   6.162  15.570  0.1299  0.1061  0.1997
33275DOD     C143644   3.493   5.608   0.794 -0.0361 -0.0179  0.1705
33275DOD     C243645   3.716   5.867   1.110 -0.1430 -0.3784 -0.2659
33275DOD     C343646   3.612   6.342   1.039  0.1289 -0.1459  0.0226
33276DOD     C143647   2.133  20.293  25.821 -0.1054  0.0731 -0.0445
33276DOD     C243648   2.074  20.057  26.211  0.2590  0.1015  0.2816
33276DOD     C343649   2.015  19.729  26.531 -0.2643 -0.0120 -0.3263
33277DOD     C143650  16.864   1.494  29.467  0.1924  0.0468 -0.0031
33277DOD     C243651  17.022   1.721  29.088  0.0788 -0.2989 -0.4163
33277DOD     C343652  16.824   2.057  28.873  0.1867  0.2653  0.1473
33278DOD     C143653  29.455   9.175   5.381 -0.0619 -0.0480  0.1422
33278DOD     C243654  29.947   9.112   5.254  0.1390 -0.0549 -0.0876
33278DOD     C343655  30.250   9.233   5.022  0.2412  0.3066 -0.1516
33279DOD     C143656  17.143   9.468  22.137  0.3364 -0.0778  0.4260
33279DOD     C243657  17.169   9.329  21.673 -0.1864  0.1053 -0.3138
33279DOD     C343658  17.051   8.880  21.580 -0.0249  0.1252 -0.1017
33280DOD     C143659  21.033  28.914   7.492  0.1146  0.2955 -0.1834
33280DOD     C243660  20.600  28.853   7.299 -0.2337 -0.1312  0.1184
33280DOD     C343661  20.399  29.117   6.983  0.2342 -0.2001  0.2172
33281DOD     C143662  28.669  13.136   3.526 -0.2077  0.0329  0.2409
33281DOD     C243663  28.631  12.637   3.586  0.1922  0.0798  0.2188
33281DOD     C343664  28.826  12.219   3.494  0.1677  0.0813 -0.0158
33282DOD     C143665   0.637   2.160  27.569 -0.0183 -0.0457  0.1584
33282DOD     C243666   0.466   2.161  27.988 -0.2482 -0.0694 -0.2245
33282DOD     C343667   0.278   1.912  28.354 -0.1862 -0.0799 -0.2827
33283DOD     C143668  12.501  12.220  21.347 -0.1289  0.2044 -0.1848
33283DOD     C243669  12.256  11.989  21.059  0.0112 -0.0153 -0.3002
33283DOD     C343670  11.979  11.992  20.753  0.0652 -0.1258  0.0009
33284DOD     C143671  29.647   7.078   7.507 -0.1225 -0.2958 -0.1029
33284DOD     C243672  29.275   7.347   7.364  0.4642  0.1598  0.0631
33284DOD     C343673  29.079   7.682   7.114  0.3591  0.2733 -0.0741
33285DOD     C143674  21.458  12.775   4.187 -0.4389 -0.1560 -0.2033
33285DOD     C243675  21.315  13.165   3.989  0.1401  0.2182  0.2281
33285DOD     C343676  21.418  13.565   3.814 -0.1241 -0.0350 -0.3640
33286DOD     C143677   6.038   9.565  10.856  0.2039 -0.2533 -0.1216
33286DOD     C243678   6.086   9.244  11.195  0.1119 -0.1058  0.1136
33286DOD     C343679   6.208   8.942  11.547 -0.1657 -0.2149  0.2032
33287DOD     C143680  11.270   4.121   7.973 -0.1939  0.0334 -0.0560
33287DOD     C243681  11.282   4.127   7.480  0.2640  0.0867 -0.1652
33287DOD     C343682  11.517   3.766   7.232 -0.1031  0.3146  0.3592
33288DOD     C143683  22.717   4.837   8.614 -0.1731  0.1247  0.2455
33288DOD     C243684  22.736   4.475   8.382  0.0997 -0.4435  0.0488
33288DOD     C343685  22.610   4.229   8.008 -0.0760  0.0161  0.0443
33289DOD     C143686  19.262  24.813  18.679  0.0595  0.0820 -0.2097
33289DOD     C243687  19.340  25.199  18.467  0.2522 -0.3371 -0.2260
33289DOD     C343688  19.039  25.565  18.338 -0.0645  0.0745  0.1890
33290DOD     C143689  29.323  15.115  26.524  0.0676 -0.0474 -0.1430
33290DOD     C243690  29.464  14.803  26.786  0.0435  0.1550  0.1640
33290DOD     C343691  29.362  14.316  26.782  0.1192  0.1232 -0.1108
33291DOD     C143692  27.985  24.460  19.641  0.1751  0.0514 -0.0109
33291DOD     C243693  27.803  24.124  19.407  0.0097  0.1222 -0.0167
33291DOD     C343694  27.632  23.743  19.328 -0.1673  0.4518  0.1514
33292DOD     C143695   9.180  22.011   8.609  0.2052 -0.2720  0.1058
33292DOD     C243696   8.894  21.802   8.322  0.4746  0.1236  0.1482
33292DOD     C343697   8.481  21.550   8.156 -0.1951  0.1439 -0.0016
33293DOD     C143698  12.829  21.592  18.847 -0.0654  0.0469  0.2543
33293DOD     C243699  13.338  21.797  18.767  0.2220  0.2031  0.0847
33293DOD     C343700  13.530  22.151  18.579  0.5579 -0.1893  0.0301
33294DOD     C143701  16.580  27.882  29.908 -0.0309  0.1243  0.1072
33294DOD     C243702  16.337  27.570  29.644  0.1370 -0.0367 -0.1865
33294DOD     C343703  16.199  27.108  29.593  0.1053  0.0329  0.0855
33295DOD     C143704  25.927  28.979  16.404 -0.5163  0.1664  0.1399
33295DOD     C243705  26.309  28.770  16.309 -0.0121 -0.0264  0.2908
33295DOD     C343706  26.627  28.541  16.108 -0.0757  0.2025 -0.2587
33296DOD     C143707  24.561   2.774  27.373 -0.1937 -0.1843  0.1210
33296DOD     C243708  24.506   2.646  26.950  0.2520  0.2702  0.2967
33296DOD     C343709  24.718   2.429  26.564  0.1431  0.0420  0.0929
33297DOD     C143710  25.123  21.841  26.028  0.0104 -0.0101 -0.3108
33297DOD     C243711  24.778  22.169  25.871  0.2013 -0.0039  0.2023
33297DOD     C343712  24.420  22.516  25.848  0.0540 -0.3060  0.1563
33298DOD     C143713  26.120   9.475   1.397 -0.0284 -0.1875  0.0145
33298DOD     C243714  26.420   9.247   1.687 -0.4119  0.0381  0.0958
33298DOD     C343715  26.758   8.947   1.863 -0.1412  0.3189 -0.1175
33299DOD     C143716  27.125  22.541  22.335  0.0801 -0.2573 -0.2464
33299DOD     C243717  27.140  22.894  22.053  0.0211  0.1013  0.0125
33299DOD     C343718  27.437  23.134  21.872  0.2840 -0.0049  0.1865
33300DOD     C143719  29.566  11.271  28.018  0.0889  0.3305 -0.2033
33300DOD     C243720  29.567  11.034  27.666 -0.1243  0.3104  0.1181
33300DOD     C343721  29.871  10.698  27.468 -0.0987 -0.0328  0.0598
33301DOD     C143722  19.514  29.594  12.872  0.3337  0.3923  0.1355
33301DOD     C243723  19.913  29.664  13.171  0.2087 -0.0230  0.0025
33301DOD     C343724  20.057  29.747  13.595  0.0387 -0.2106 -0.1401
33302DOD     C143725  16.235  13.765  12.361 -0.0178 -0.1425  0.0882
33302DOD     C243726  15.965  14.103  12.550 -0.1624  0.0726 -0.0747
33302DOD     C343727  15.762  14.548  12.576  0.0563 -0.1748  0.1961
33303DOD     C143728   6.321  26.215  25.136 -0.0657  0.2065  0.2546
33303DOD     C243729   6.623  25.842  24.978  0.0278  0.3279  0.1025
33303DOD     C343730   6.643  25.446  25.141  0.0069 -0.2106 -0.1269
33304DOD     C143731  28.454   3.993  14.353  0.1450 -0.1506  0.2158
33304DOD     C243732  28.373   4.106  14.790 -0.0167  0.1684  0.2246
33304DOD     C343733  28.554   4.298  15.119  0.1394 -0.0363  0.1655
33305DOD     C143734  11.357   7.637   4.430  0.0376  0.0158  0.1162
33305DOD     C243735  11.372   7.860   4.061 -0.0703 -0.0872  0.0880
33305DOD     C343736  11.328   7.986   3.631  0.1273  0.0948 -0.1566
33306DOD     C143737  16.778  15.233  21.024 -0.0042  0.1476 -0.0488
33306DOD     C243738  16.954  14.936  21.389  0.2540 -0.1190  0.0871
33306DOD     C343739  17.027  14.738  21.829  0.1577  0.0629 -0.2120
33307DOD     C143740  22.470  16.112  22.261  0.0212  0.0602  0.1764
33307DOD     C243741  22.798  15.971  21.998  0.0863  0.1409 -0.2099
33307DOD     C343742  23.160  16.113  21.815  0.2367  0.0447 -0.0413
33308DOD     C143743   9.956  26.400  18.731 -0.1805 -0.1741  0.0211
33308DOD     C243744  10.286  26.210  18.422  0.0371 -0.0969  0.0435
33308DOD     C343745  10.632  25.939  18.624  0.2917 -0.0904  0.4488
33309DOD     C143746   8.076  26.198  28.020  0.3174 -0.2289  0.3201
33309DOD     C243747   7.610  26.151  27.940 -0.0581 -0.2516  0.0276
33309DOD     C343748   7.287  26.005  27.646 -0.2297  0.0279 -0.2134
33310DOD     C143749   0.689  25.022  13.258  0.1241 -0.1289  0.1874
33310DOD     C243750   0.885  24.821  13.667 -0.4397  0.2835 -0.0697
33310DOD     C343751   0.883  24.422  13.917 -0.2082 -0.1184 -0.0621
33311DOD     C143752  17.528  22.189  18.337 -0.0257 -0.0551  0.0972
33311DOD     C243753  17.833  22.337  18.675 -0.1126 -0.1944 -0.0461
33311DOD     C343754  18.155  22.709  18.793 -0.1085 -0.0324 -0.2637
33312DOD     C143755   5.542   3.767   7.562 -0.0805 -0.3807 -0.2989
33312DOD     C243756   5.937   3.566   7.575  0.0124  0.1600 -0.1688
33312DOD     C343757   6.332   3.263   7.492 -0.3384 -0.3021 -0.2668
33313DOD     C143758  27.137  17.757  14.801 -0.1452 -0.0419  0.0521
33313DOD     C243759  27.445  18.057  14.597 -0.1722 -0.1687 -0.2076
33313DOD     C343760  27.655  18.303  14.256  0.1009 -0.0346 -0.0940
33314DOD     C143761  16.910  15.452  10.801 -0.0714  0.2275 -0.2723
33314DOD     C243762  17.034  14.995  10.719  0.1819  0.0052 -0.1154
33314DOD     C343763  17.072  14.631  10.468 -0.3337 -0.2851 -0.1897
33315DOD     C143764   1.356  19.391   7.326 -0.1697 -0.1232  0.0944
33315DOD     C243765   1.717  19.116   7.299 -0.3065 -0.3561  0.0888
33315DOD     C343766   2.135  18.962   7.254 -0.1113  0.2476 -0.1612
33316DOD     C143767   1.798   2.690  22.913  0.0417 -0.0083 -0.2707
33316DOD     C243768   1.802   2.231  22.881  0.0100 -0.1240 -0.0533
33316DOD     C343769   1.852   1.916  22.541  0.2009 -0.4364  0.0129
33317DOD     C143770  19.263   3.900  15.097 -0.2861  0.3645  0.1179
33317DOD     C243771  19.286   3.480  14.927 -0.0140 -0.3113  0.1584
33317DOD     C343772  19.499   3.287  14.528  0.0138  0.1939  0.0085
33318DOD     C143773  26.077  13.502  17.262  0.0176 -0.0891 -0.0061
33318DOD     C243774  26.254  13.109  17.165 -0.1414 -0.2473 -0.1993
33318DOD     C343775  26.482  12.674  17.194 -0.0999 -0.2429  0.3401
33319DOD     C143776  11.995  13.527  20.353  0.0887 -0.4302  0.0669
33319DOD     C243777  12.337  13.430  20.000 -0.0414 -0.3380 -0.0412
33319DOD     C343778  12.575  13.123  19.757  0.0192  0.1877  0.0712
33320DOD     C143779  18.594  14.644  14.443  0.0480  0.2848  0.0415
33320DOD     C243780  18.836  14.205  14.422  0.1415 -0.1327  0.1485
33320DOD     C343781  19.124  13.844  14.458 -0.0339  0.1413 -0.2514
33321DOD     C143782  10.325  24.552   5.642 -0.0093 -0.1051 -0.0725
33321DOD     C243783  10.632  24.558   6.041 -0.1037 -0.0930  0.1804
33321DOD     C343784  10.824  24.826   6.341  0.0945  0.2549 -0.1284
33322DOD     C143785  16.286  23.300  25.978 -0.0919  0.0897  0.1120
33322DOD     C243786  16.388  23.385  26.457  0.1470 -0.0318 -0.0206
33322DOD     C343787  16.514  23.811  26.501  0.1088  0.2252 -0.0543
33323DOD     C143788   3.341  22.050  25.166  0.0444  0.1199 -0.0155
33323DOD     C243789   3.377  21.929  25.644 -0.0583 -0.1957 -0.2666
33323DOD     C343790   3.674  21.983  26.038  0.1323 -0.2948 -0.1164
33324DOD     C143791  23.551  12.069  10.628  0.2361 -0.3138  0.0037
33324DOD     C243792  23.616  12.549  10.709 -0.0561 -0.0600  0.0111
33324DOD     C343793  24.006  12.802  10.783 -0.3244 -0.2941  0.2853
33325DOD     C143794  19.404   1.437  15.380 -0.1257 -0.0656 -0.1118
33325DOD     C243795  19.296   1.593  15.834  0.3280  0.1178  0.0753
33325DOD     C343796  19.437   2.042  15.956 -0.4501  0.0390 -0.2811
33326DOD     C143797  26.749  28.364  12.549 -0.1540 -0.1640 -0.2773
33326DOD     C243798  27.087  28.705  12.673  0.0066 -0.4817  0.2369
33326DOD     C343799  27.166  28.952  13.050 -0.0185  0.1227  0.0653
33327DOD     C143800  23.271  30.107  18.660 -0.1049 -0.1142  0.3382
33327DOD     C243801  23.309  29.614  18.617 -0.1360 -0.0050 -0.1067
33327DOD     C343802  23.272  29.200  18.754  0.1908 -0.1348  0.3389
33328DOD     C143803  18.189  23.310   4.795 -0.1055 -0.0674  0.1383
33328DOD     C243804  18.218  22.969   4.488 -0.0495 -0.0914 -0.0438
33328DOD     C343805  18.235  22.701   4.077 -0.1978 -0.1197  0.1325
33329DOD     C143806  13.743  28.903  23.326  0.1571 -0.1301 -0.0126
33329DOD     C243807  14.009  28.709  23.680  0.4852 -0.0154  0.0036
33329DOD     C343808  14.390  28.513  23.906  0.0075 -0.0811 -0.1860
33330DOD     C143809  25.142  21.109   6.672 -0.0274  0.0175  0.1964
33330DOD     C243810  25.183  21.467   6.367  0.3066  0.0638 -0.2287
33330DOD     C343811  25.131  21.639   5.946  0.1641 -0.0564  0.3523
33331DOD     C143812   8.613  18.656  22.389 -0.1352 -0.1000 -0.2040
33331DOD     C243813   8.477  18.272  22.632  0.1169 -0.1910 -0.3105
33331DOD     C343814   8.575  17.998  22.956  0.1121  0.2251 -0.1721
33332DOD     C143815  20.729  12.308  22.864  0.1286 -0.2633 -0.1973
33332DOD     C243816  20.326  12.139  22.729  0.1673 -0.3039 -0.1792
33332DOD     C343817  19.858  12.195  22.831 -0.0570  0.1920  0.1366
33333DOD     C143818  17.354  11.168  13.806  0.2042  0.0943 -0.0592
33333DOD     C243819  17.585  11.586  14.029 -0.2218  0.0978  0.2774
33333DOD     C343820  17.534  12.005  14.288  0.0284  0.2839 -0.1336
33334DOD     C143821  24.221   9.079   1.800 -0.2441 -0.3608  0.3656
33334DOD     C243822  23.795   8.903   1.951  0.0629 -0.4056 -0.0621
33334DOD     C343823  23.477   8.771   2.184  0.0113  0.0589  0.1212
33335DOD     C143824   5.817  17.566  24.054 -0.0096  0.0051  0.1349
33335DOD     C243825   5.892  18.008  24.174  0.0573  0.1796 -0.1890
33335DOD     C343826   5.963  18.419  24.120  0.2187  0.2255  0.1960
33336DOD     C143827  25.387  29.796   4.041  0.0877  0.1860 -0.0302
33336DOD     C243828  25.856  29.754   4.071 -0.1092 -0.1771 -0.1174
33336DOD     C343829  26.288  29.645   4.248  0.1258  0.2945 -0.1018
33337DOD     C143830   1.911   6.976  14.229 -0.1449 -0.0349  0.1512
33337DOD     C243831   1.921   6.833  14.679 -0.0983  0.0197  0.0245
33337DOD     C343832   2.110   6.616  15.040 -0.0419 -0.0815 -0.1807
33338DOD     C143833   5.075  11.307  20.693  0.1018  0.0159  0.1030
33338DOD     C243834   5.423  11.293  21.020  0.1346 -0.0386  0.2857
33338DOD     C343835   5.613  11.267  21.430 -0.1952  0.3249  0.2057
33339DOD     C143836   0.428  19.927  22.651  0.3624 -0.0722 -0.0870
33339DOD     C243837   0.410  19.699  22.231  0.0293 -0.1996  0.0624
33339DOD     C343838   0.739  19.389  22.131  0.1143 -0.0352  0.0579
33340DOD     C143839  19.711  14.028  19.325 -0.0468  0.1004 -0.1475
33340DOD     C243840  19.777  13.646  19.012  0.0475 -0.2195  0.0042
33340DOD     C343841  19.607  13.434  18.664  0.0547 -0.0637  0.1250
33341DOD     C143842  17.285  26.619  11.672  0.0234 -0.2497  0.0173
33341DOD     C243843  16.963  26.806  11.983  0.0219  0.0076 -0.1989
33341DOD     C343844  16.816  26.950  12.411 -0.0184  0.1035  0.1671
33342DOD     C143845  20.494   6.919  17.100 -0.0931  0.0239 -0.1861
33342DOD     C243846  20.091   6.649  17.132 -0.0641  0.0309 -0.0561
33342DOD     C343847  19.695   6.529  17.361 -0.0844 -0.2530 -0.1414
33343DOD     C143848  25.800  10.857  28.165  0.1324  0.0286 -0.2266
33343DOD     C243849  25.536  10.669  28.446  0.1777  0.0121 -0.0974
33343DOD     C343850  25.220  10.691  28.823 -0.0112 -0.1685  0.1639
33344DOD     C143851  15.047  19.145  22.383 -0.1258  0.1156 -0.3865
33344DOD     C243852  15.279  19.362  22.742 -0.0226 -0.0648 -0.0531
33344DOD     C343853  15.240  19.644  23.137 -0.0379 -0.0111  0.1758
33345DOD     C143854  28.432  29.153  18.811 -0.1517 -0.1802 -0.0984
33345DOD     C243855  28.669  29.454  19.112 -0.4070 -0.0482  0.0762
33345DOD     C343856  28.942  29.746  19.349 -0.1571  0.0858 -0.0043
33346DOD     C143857  23.231   2.311  28.548 -0.1979  0.0856  0.0452
33346DOD     C243858  23.647   2.387  28.419  0.0827  0.1816 -0.0140
33346DOD     C343859  23.923   2.567  28.047 -0.1971  0.0236 -0.1860
33347DOD     C143860  10.778  25.491   3.667 -0.0792 -0.0366  0.0985
33347DOD     C243861  11.058  25.756   3.413  0.2152  0.2964  0.0823
33347DOD     C343862  11.346  25.635   3.094  0.0588  0.0849 -0.1405
33348DOD     C143863   0.156  29.660  15.256 -0.1703  0.1602  0.1398
33348DOD     C243864  30.327  30.137  15.296  0.2386  0.1604 -0.0314
33348DOD     C343865   0.096   0.249  15.477 -0.0072 -0.1270  0.1471
33349DOD     C143866  28.530   6.077  28.356  0.4830  0.0774  0.1585
33349DOD     C243867  29.002   6.149  28.285  0.1557  0.1678 -0.3166
33349DOD     C343868  29.237   6.520  28.336  0.0174 -0.0216 -0.0512
33350DOD     C143869  17.239  10.405   8.605  0.2879  0.0281 -0.2811
33350DOD     C243870  17.090  10.275   9.057  0.4736 -0.1082  0.0609
33350DOD     C343871  16.923  10.479   9.419  0.0824 -0.0018 -0.1365
33351DOD     C143872  16.138  17.310  10.461 -0.0603  0.1464  0.0770
33351DOD     C243873  16.231  17.794  10.553 -0.0866 -0.2474 -0.0581
33351DOD     C343874  16.525  18.071  10.326  0.2445 -0.3580  0.1348
33352DOD     C143875  22.299   8.004  29.310 -0.0800  0.0734  0.2128
33352DOD     C243876  22.337   7.618  29.657 -0.2183  0.0787  0.0664
33352DOD     C343877  22.165   7.394  30.037 -0.1954 -0.1130 -0.0711
33353DOD     C143878  11.696   8.741   6.577  0.1355 -0.1227  0.0643
33353DOD     C243879  11.372   8.846   6.253  0.1108 -0.2310  0.0190
33353DOD     C343880  11.173   8.767   5.847 -0.0046  0.0277 -0.1600
33354DOD     C143881  14.321  16.783  21.986 -0.2743  0.1695  0.1233
33354DOD     C243882  14.299  17.128  21.692 -0.0109  0.0320 -0.1255
33354DOD     C343883  13.996  17.461  21.546  0.4354  0.0756 -0.1600
33355DOD     C143884   2.249   9.076  14.194  0.0242  0.2583 -0.3369
33355DOD     C243885   2.683   8.940  14.353  0.3998  0.3564 -0.3988
33355DOD     C343886   3.180   8.955  14.270  0.0239 -0.1259 -0.1588
33356DOD     C143887  12.129  29.903  17.473  0.1864 -0.1053 -0.0398
33356DOD     C243888  12.373  30.043  17.103  0.2387 -0.5168 -0.0615
33356DOD     C343889  12.667  29.824  16.889 -0.2288  0.2011  0.2727
33357DOD     C143890  18.142  25.782  12.001 -0.1381  0.0836 -0.0599
33357DOD     C243891  18.379  25.943  11.660  0.4445 -0.1698  0.1507
33357DOD     C343892  18.733  25.868  11.340  0.3361 -0.2621 -0.2375
33358DOD     C143893  27.752  23.132  28.202  0.0518 -0.2291  0.2001
33358DOD     C243894  27.540  23.547  27.961  0.0779 -0.0625 -0.0259
33358DOD     C343895  27.240  23.626  27.581 -0.1634 -0.1811 -0.0232
33359DOD     C143896  10.314   2.560  27.658  0.0452  0.0074 -0.1622
33359DOD     C243897  10.041   2.508  27.290  0.2504  0.2451 -0.0694
33359DOD     C343898   9.755   2.581  26.895 -0.0018 -0.0993  0.0573
33360DOD     C143899   7.684  17.419  19.105 -0.1441 -0.1819  0.1834
33360DOD     C243900   7.550  17.459  19.523  0.0520 -0.2468  0.2186
33360DOD     C343901   7.369  17.392  19.947 -0.0153 -0.3099 -0.0163
33361DOD     C143902  22.667  23.205  27.997 -0.1297 -0.0898  0.0004
33361DOD     C243903  22.875  23.650  27.998 -0.0936  0.0163 -0.0015
33361DOD     C343904  22.959  24.078  27.898 -0.0849  0.0637 -0.2615
33362DOD     C143905  26.881  14.618  26.852 -0.2593 -0.0559 -0.0210
33362DOD     C243906  26.966  14.192  26.911  0.1402 -0.1042 -0.2049
33362DOD     C343907  26.954  13.764  27.049  0.0338 -0.1459 -0.0139
33363DOD     C143908   3.294  10.979  10.588 -0.1653  0.0218 -0.0810
33363DOD     C243909   3.566  10.563  10.625  0.4637  0.1649  0.0493
33363DOD     C343910   3.418  10.117  10.631 -0.0075 -0.1077 -0.0439
33364DOD     C143911   0.338  23.931   4.942  0.2751 -0.2975 -0.1068
33364DOD     C243912   0.566  23.878   4.518  0.0126  0.0639 -0.2137
33364DOD     C343913   0.749  23.750   4.112 -0.2749  0.1302  0.0248
33365DOD     C143914  24.264  10.312  19.637  0.2158 -0.0462 -0.0573
33365DOD     C243915  23.918   9.955  19.701 -0.1666 -0.1504  0.1314
33365DOD     C343916  23.736   9.634  19.967  0.1942 -0.0346 -0.4512
33366DOD     C143917  14.621  14.490  18.835 -0.0328  0.1142 -0.2764
33366DOD     C243918  14.957  14.231  18.714  0.1682 -0.1258 -0.2833
33366DOD     C343919  15.063  14.215  18.247 -0.1995 -0.0820  0.2236
33367DOD     C143920  18.610  27.356   6.120 -0.0856  0.0500 -0.3091
33367DOD     C243921  18.399  27.403   5.757  0.3003  0.3747  0.1608
33367DOD     C343922  18.191  27.617   5.403  0.0057 -0.1097  0.0316
33368DOD     C143923  30.086  16.697  27.472  0.1879  0.0571  0.2283
33368DOD     C243924  29.721  16.433  27.356 -0.1522  0.0062 -0.0903
33368DOD     C343925  29.307  16.225  27.154 -0.0079 -0.1446  0.0057
33369DOD     C143926  15.508  21.580   2.918 -0.0068 -0.1535 -0.3428
33369DOD     C243927  15.646  21.801   2.576 -0.0265 -0.0777 -0.0719
33369DOD     C343928  16.029  21.930   2.265 -0.3059 -0.1781  0.1187
33370DOD     C143929  26.227  12.821   1.192 -0.1639 -0.0183  0.0626
33370DOD     C243930  26.291  13.313   1.104 -0.1628  0.1926  0.0913
33370DOD     C343931  26.564  13.688   1.053  0.1138 -0.1184  0.0197
33371DOD     C143932  15.619  21.440  26.082  0.1970 -0.0461  0.1841
33371DOD     C243933  15.510  20.971  26.161 -0.0975  0.0068  0.2648
33371DOD     C343934  15.519  20.499  26.268 -0.0150 -0.4956  0.1122
33372DOD     C143935   1.676   7.943   4.127  0.1924 -0.1388  0.0154
33372DOD     C243936   1.847   7.682   4.487  0.0333 -0.3676  0.0321
33372DOD     C343937   2.298   7.457   4.665 -0.0664 -0.0957 -0.3012
33373DOD     C143938  30.203   3.047  14.114 -0.1000  0.1565  0.1329
33373DOD     C243939   0.226   2.765  14.161  0.0879  0.0696  0.0656
33373DOD     C343940   0.428   2.301  14.122  0.1569  0.2261  0.1508
33374DOD     C143941  20.340   3.720   2.390 -0.2029  0.1994  0.1373
33374DOD     C243942  19.953   3.643   2.166 -0.0273  0.0527 -0.1505
33374DOD     C343943  19.996   3.277   1.941 -0.3480 -0.0674 -0.3092
33375DOD     C143944   3.346   6.705   5.232  0.3897  0.0585 -0.3059
33375DOD     C243945   3.659   6.914   4.933  0.0337 -0.2157  0.1218
33375DOD     C343946   3.909   7.247   4.714  0.2388  0.1054 -0.1177
33376DOD     C143947  24.513  25.241  26.746  0.1041  0.0469 -0.2073
33376DOD     C243948  24.932  25.195  26.849  0.1869 -0.0156 -0.2366
33376DOD     C343949  25.388  25.096  27.053  0.1208  0.3282 -0.0903
33377DOD     C143950   5.982   3.769  30.205  0.2084  0.0823 -0.2361
33377DOD     C243951   6.035   3.820   0.362  0.0935  0.2813 -0.0882
33377DOD     C343952   5.996   3.884   0.785  0.1529  0.3462  0.2687
33378DOD     C143953  10.045  26.609   2.818  0.2787 -0.0194  0.0444
33378DOD     C243954  10.128  26.982   2.567  0.0365 -0.0306  0.0413
33378DOD     C343955   9.950  27.287   2.287  0.3019 -0.1753  0.4920
33379DOD     C143956  10.010  22.353   8.107  0.2143 -0.1176  0.1123
33379DOD     C243957   9.552  22.135   7.968  0.0180  0.0491 -0.2962
33379DOD     C343958   9.381  22.260   7.570  0.1927 -0.1883  0.1021
33380DOD     C143959  25.225   4.065  10.679 -0.0917 -0.1087  0.2102
33380DOD     C243960  25.696   3.908  10.641 -0.2346 -0.0946 -0.0010
33380DOD     C343961  25.953   4.178  10.336 -0.1807 -0.2686  0.3145
33381DOD     C143962  17.652   1.176  19.149  0.0889 -0.1748  0.2239
33381DOD     C243963  17.256   1.363  19.393  0.2139  0.0977  0.0066
33381DOD     C343964  16.823   1.493  19.325  0.3069  0.1589  0.0741
33382DOD     C143965   9.111   6.039   5.387 -0.0637 -0.0313  0.1985
33382DOD     C243966   8.733   5.868   5.680  0.1492  0.0829  0.0047
33382DOD     C343967   8.467   5.520   5.901  0.0574  0.1145 -0.3423
33383DOD     C143968  20.332   1.938  12.389  0.2431 -0.1063 -0.1480
33383DOD     C243969  19.846   1.903  12.299  0.0014 -0.0448 -0.1996
33383DOD     C343970  19.539   2.247  12.359  0.0274  0.1109  0.1269
33384DOD     C143971  23.928   4.468  20.529  0.0435 -0.2111  0.2707
33384DOD     C243972  23.884   4.746  20.156 -0.1168 -0.1619 -0.2498
33384DOD     C343973  24.074   5.117  19.885  0.0614 -0.1292  0.3607
33385DOD     C143974  29.239   1.604  22.918  0.1189 -0.2227  0.6716
33385DOD     C243975  29.214   1.757  23.383 -0.0733 -0.0488  0.1190
33385DOD     C343976  28.954   1.994  23.722 -0.2856 -0.0598 -0.1696
33386DOD     C143977  19.499  12.021  20.442  0.1240 -0.3467 -0.1575
33386DOD     C243978  19.150  12.278  20.445 -0.2049 -0.4016 -0.0438
33386DOD     C343979  19.075  12.720  20.631  0.0366  0.0268 -0.2206
33387DOD     C143980  30.247   5.878  29.716 -0.1791  0.3040 -0.3045
33387DOD     C243981  30.295   6.226  29.362 -0.0577  0.1038  0.1419
33387DOD     C343982  29.935   6.336  29.161 -0.1290  0.0051 -0.1628
33388DOD     C143983  18.991   8.473  23.660 -0.2185 -0.2505 -0.2155
33388DOD     C243984  18.682   8.282  23.963  0.0671  0.2532 -0.0618
33388DOD     C343985  18.698   8.423  24.435  0.0968 -0.0458 -0.0291
33389DOD     C143986  27.254  26.390  20.418 -0.3475  0.3204  0.0573
33389DOD     C243987  26.921  26.823  20.505 -0.2087 -0.0147  0.1917
33389DOD     C343988  26.777  27.119  20.844  0.1518  0.1547 -0.1442
33390DOD     C143989   1.729   3.541  12.262  0.0136  0.2381 -0.1106
33390DOD     C243990   2.053   3.403  11.968 -0.1011  0.0093 -0.1978
33390DOD     C343991   2.343   3.531  11.544 -0.2315 -0.2133  0.0618
33391DOD     C143992   4.264  20.843  27.815  0.1001  0.0605 -0.3614
33391DOD     C243993   3.840  21.091  27.790  0.0166  0.0702 -0.2039
33391DOD     C343994   3.599  20.947  27.398  0.0401  0.0521  0.1865
33392DOD     C143995  17.523  26.350  21.359  0.1460 -0.1654  0.1214
33392DOD     C243996  17.444  25.869  21.388  0.0572 -0.1098  0.0219
33392DOD     C343997  17.210  25.481  21.546 -0.1347  0.0623  0.0394
33393DOD     C143998  17.669  28.533   4.190  0.0830  0.1853  0.1782
33393DOD     C243999  17.663  28.324   3.772 -0.0557 -0.0017 -0.0542
33393DOD     C344000  17.253  28.177   3.584  0.0271 -0.4197 -0.1768
33394DOD     C144001  28.219  13.620  21.426 -0.1677  0.1097  0.1247
33394DOD     C244002  28.575  13.372  21.662  0.3991 -0.1651 -0.2883
33394DOD     C344003  28.820  13.089  21.884  0.1514  0.1545 -0.0115
33395DOD     C144004  27.976  26.354   8.201  0.2738 -0.0215 -0.1047
33395DOD     C244005  27.812  26.821   8.354  0.0402 -0.0303 -0.1097
33395DOD     C344006  28.046  27.183   8.167 -0.2682 -0.1155  0.1376
33396DOD     C144007  16.928  28.722  11.836  0.0476  0.0781 -0.1798
33396DOD     C244008  16.846  28.799  12.239  0.0540 -0.0938 -0.1596
33396DOD     C344009  16.961  28.824  12.681 -0.1409 -0.0991 -0.1134
33397DOD     C144010  22.358  25.303  28.075 -0.0560 -0.1910 -0.1139
33397DOD     C244011  21.858  25.286  28.029 -0.2016  0.1945  0.1467
33397DOD     C344012  21.453  25.536  28.086  0.1874 -0.1130  0.1790
33398DOD     C144013  20.105  15.992   1.599 -0.0105  0.2426 -0.3699
33398DOD     C244014  19.716  15.677   1.423 -0.2086  0.0118  0.0609
33398DOD     C344015  19.690  15.674   0.947 -0.1153 -0.0004 -0.0387
33399DOD     C144016  26.553  20.761   5.232  0.0011 -0.0391  0.0138
33399DOD     C244017  26.993  20.933   5.334 -0.2335  0.1091  0.1045
33399DOD     C344018  27.273  21.241   5.309 -0.0138  0.2165  0.3057
33400DOD     C144019  24.569   6.631  18.021  0.0308  0.2835  0.4233
33400DOD     C244020  24.310   6.889  17.729 -0.1604  0.2530 -0.1714
33400DOD     C344021  23.834   6.914  17.769  0.2416 -0.0164  0.0391
33401DOD     C144022   1.918   2.941  24.123  0.0951  0.3216  0.0292
33401DOD     C244023   1.867   2.789  24.567 -0.0628 -0.0806  0.2401
33401DOD     C344024   1.651   2.805  25.028 -0.4534  0.1288 -0.1343
33402DOD     C144025  17.718  20.636   9.971 -0.0651 -0.1956 -0.0009
33402DOD     C244026  17.366  20.716  10.244  0.1043 -0.1171  0.2285
33402DOD     C344027  17.000  20.748  10.470  0.0747  0.2118 -0.0116
33403DOD     C144028   4.862  16.524   6.710  0.0286 -0.0276 -0.0185
33403DOD     C244029   4.944  16.081   6.933  0.3823 -0.2807 -0.0466
33403DOD     C344030   4.783  15.808   7.291 -0.0635  0.1141  0.0206
33404DOD     C144031   2.510   3.250  25.426  0.2578 -0.2051  0.2775
33404DOD     C244032   2.915   3.369  25.145  0.3264 -0.2635 -0.2211
33404DOD     C344033   3.123   3.774  25.002 -0.3343 -0.0217 -0.1123
33405DOD     C144034  12.740  23.031   4.187  0.0948 -0.3939  0.0128
33405DOD     C244035  13.043  22.754   3.967  0.0852  0.2360 -0.2118
33405DOD     C344036  13.193  22.461   3.668  0.0215  0.2079  0.1390
33406DOD     C144037  17.499   8.862  24.530  0.2150  0.1214  0.0567
33406DOD     C244038  17.147   9.249  24.460  0.2477 -0.0026  0.1405
33406DOD     C344039  17.186   9.668  24.305  0.0227 -0.0611 -0.3016
33407DOD     C144040  18.193   9.716   4.015 -0.0964  0.7056 -0.1178
33407DOD     C244041  18.126   9.269   4.253  0.1098 -0.0767 -0.1537
33407DOD     C344042  18.310   8.955   4.569 -0.0113 -0.3668 -0.0708
33408DOD     C144043  19.074  25.279  12.314 -0.0626 -0.1184  0.1360
33408DOD     C244044  19.488  25.505  12.524  0.0993 -0.2093 -0.0736
33408DOD     C344045  19.921  25.671  12.546  0.2986 -0.2794 -0.0469
33409DOD     C144046   0.834  28.584  20.490 -0.3412  0.0137 -0.0981
33409DOD     C244047   0.804  28.981  20.667 -0.3554  0.2325 -0.1185
33409DOD     C344048   0.959  29.439  20.837  0.0259  0.0629  0.1522
33410DOD     C144049   6.028  11.445  24.058 -0.1191 -0.1421 -0.0646
33410DOD     C244050   6.134  11.832  24.252  0.1338 -0.2136  0.3548
33410DOD     C344051   6.380  12.219  24.018 -0.1754 -0.0232 -0.0909
33411DOD     C144052  26.910  15.112   9.615 -0.0824 -0.0924  0.0435
33411DOD     C244053  27.180  15.405   9.356  0.1073 -0.1575 -0.1284
33411DOD     C344054  27.581  15.645   9.290 -0.0303 -0.1481  0.1752
33412DOD     C144055  28.246  11.570  29.711 -0.0612 -0.0098  0.1218
33412DOD     C244056  28.357  12.093  29.764 -0.2327  0.2457  0.0263
33412DOD     C344057  28.699  12.427  29.753  0.0378 -0.1733  0.0520
33413DOD     C144058  26.864  19.746  10.201 -0.2768 -0.0060 -0.1630
33413DOD     C244059  26.956  20.216   9.997  0.3084 -0.0909  0.1246
33413DOD     C344060  26.904  20.567   9.706  0.2009 -0.0818 -0.0995
33414DOD     C144061   5.204   9.748  13.962 -0.1042 -0.0838 -0.1697
33414DOD     C244062   4.730   9.620  13.993 -0.1607 -0.1263  0.0128
33414DOD     C344063   4.319   9.503  14.107  0.0316  0.1507 -0.1451
33415DOD     C144064  20.532  18.101   6.064 -0.2526 -0.2144 -0.0238
33415DOD     C244065  20.915  18.354   6.114  0.0498 -0.2773  0.0936
33415DOD     C344066  21.363  18.388   6.138 -0.0450  0.2861  0.4447
33416DOD     C144067  10.238   8.225  12.066 -0.1138 -0.5038 -0.1309
33416DOD     C244068  10.667   8.011  12.133 -0.2047  0.2497 -0.2496
33416DOD     C344069  11.049   7.727  12.146  0.1378  0.0246 -0.0353
33417DOD     C144070  25.847  18.398  13.142 -0.4738  0.2817 -0.1128
33417DOD     C244071  25.557  18.120  13.054 -0.1490  0.1619  0.0141
33417DOD     C344072  25.653  17.779  12.831 -0.0940 -0.0143 -0.1106
33418DOD     C144073   9.940   3.442  29.847 -0.0678 -0.0876 -0.1794
33418DOD     C244074  10.301   3.102  29.962  0.0415 -0.1208  0.0300
33418DOD     C344075  10.289   2.645  30.013 -0.0369 -0.1653 -0.1205
33419DOD     C144076   8.459  13.929   6.311  0.0051  0.1315  0.2067
33419DOD     C244077   8.219  13.515   6.178  0.1692  0.0432 -0.0408
33419DOD     C344078   8.131  13.146   6.431  0.0650 -0.1646  0.3212
33420DOD     C144079  11.097   0.511  13.033 -0.0246 -0.0789 -0.1421
33420DOD     C244080  11.245   0.884  12.710  0.0821  0.3065  0.2575
33420DOD     C344081  11.669   0.881  12.498  0.3297  0.0681  0.0224
33421DOD     C144082  12.336  21.987  24.338 -0.0718  0.1122  0.0852
33421DOD     C244083  11.979  21.944  24.620 -0.0520 -0.1402  0.0854
33421DOD     C344084  11.872  21.842  25.068 -0.0736  0.3540 -0.1063
33422DOD     C144085   8.768   7.563  23.912  0.1485 -0.3755 -0.1195
33422DOD     C244086   8.664   7.574  24.399 -0.1114  0.1725  0.1064
33422DOD     C344087   8.329   7.688  24.676  0.3167  0.0340 -0.0151
33423DOD     C144088  18.730   8.427  11.824 -0.1614  0.0749 -0.2071
33423DOD     C244089  18.570   8.727  11.508  0.0286  0.1667  0.0123
33423DOD     C344090  18.407   8.908  11.079 -0.0050 -0.0139  0.0149
33424DOD     C144091  25.207  18.697  14.317  0.0061 -0.0691 -0.1922
33424DOD     C244092  25.390  19.065  14.023 -0.1797  0.3153  0.2305
33424DOD     C344093  25.327  19.515  13.782  0.0309  0.1228 -0.1482
33425DOD     C144094   3.258   7.037  21.231  0.1285  0.0896  0.0623
33425DOD     C244095   3.312   6.574  21.369  0.0117 -0.2315 -0.1340
33425DOD     C344096   3.254   6.478  21.816 -0.3658 -0.2139 -0.1617
33426DOD     C144097   4.852  20.133  27.769  0.0994  0.0215 -0.1323
33426DOD     C244098   4.966  20.152  27.276  0.1341 -0.2050 -0.0820
33426DOD     C344099   4.859  20.464  26.938  0.1022 -0.0155 -0.2250
33427DOD     C144100  27.291  21.717   6.859 -0.1008  0.3124 -0.1028
33427DOD     C244101  27.520  21.782   7.264  0.0196  0.1519 -0.0497
33427DOD     C344102  27.772  21.583   7.619  0.1800  0.1340  0.0014
33428DOD     C144103  24.803  15.135  29.483 -0.1244  0.0946  0.2661
33428DOD     C244104  24.988  15.540  29.600 -0.0259  0.0033 -0.4337
33428DOD     C344105  25.421  15.811  29.632 -0.2369  0.2971 -0.1597
33429DOD     C144106   0.392  15.460  27.691  0.0529  0.1823  0.1439
33429DOD     C244107   0.113  15.754  27.449  0.0203 -0.2391 -0.1762
33429DOD     C344108  30.291  16.200  27.314 -0.2049 -0.0286 -0.0589
33430DOD     C144109  21.640   8.705   6.155 -0.0206 -0.0198  0.2331
33430DOD     C244110  21.774   8.484   5.729 -0.2694 -0.3409 -0.2361
33430DOD     C344111  21.567   8.519   5.257 -0.2327  0.0348  0.0347
33431DOD     C144112  11.522  11.376  11.333 -0.0621 -0.0850  0.2271
33431DOD     C244113  11.424  11.314  10.915  0.0456 -0.0435  0.1966
33431DOD     C344114  11.600  11.290  10.479 -0.1243  0.1492  0.0401
33432DOD     C144115   7.853  23.734  22.627 -0.1905  0.0272 -0.1591
33432DOD     C244116   7.773  23.328  22.361  0.4075 -0.1449  0.3844
33432DOD     C344117   7.595  22.918  22.215  0.1256  0.0920  0.1968
33433DOD     C144118  17.613  20.088   2.468  0.0302  0.0563  0.1991
33433DOD     C244119  17.876  20.075   2.033 -0.2807  0.1836 -0.2731
33433DOD     C344120  18.137  20.403   1.905  0.1691  0.1599 -0.0859
33434DOD     C144121   0.593  16.008  25.948  0.2864 -0.0646  0.3045
33434DOD     C244122   0.865  15.932  25.508 -0.0652  0.2736 -0.1513
33434DOD     C344123   0.949  15.729  25.090 -0.0733 -0.0094 -0.0194
33435DOD     C144124  10.232  25.843  17.184 -0.1553 -0.1459 -0.0788
33435DOD     C244125  10.508  26.097  17.457  0.0114  0.2045 -0.0814
33435DOD     C344126  10.937  26.198  17.705  0.0535  0.0399 -0.3279
33436DOD     C144127   6.887   9.142   9.242  0.0163  0.0969  0.2529
33436DOD     C244128   6.560   9.000   9.580 -0.3082 -0.2168  0.1130
33436DOD     C344129   6.308   9.044  10.049  0.0259 -0.1893 -0.1553
33437DOD     C144130  16.844  16.051  10.055  0.1102  0.1306 -0.0534
33437DOD     C244131  17.008  16.011  10.536 -0.0731 -0.1917  0.0125
33437DOD     C344132  17.074  16.184  10.993 -0.1146  0.3460 -0.2039
33438DOD     C144133  21.063   9.783  16.615 -0.0049  0.1175  0.3947
33438DOD     C244134  20.802   9.720  16.253 -0.3180  0.0075  0.0359
33438DOD     C344135  20.455   9.428  16.099 -0.0391 -0.1842 -0.1159
33439DOD     C144136  29.210  15.358   2.924 -0.0038  0.1593  0.3302
33439DOD     C244137  29.066  15.594   3.355 -0.2960  0.3197  0.1886
33439DOD     C344138  28.752  15.490   3.651 -0.1688 -0.0176  0.2556
33440DOD     C144139  28.650  15.552   4.201  0.0477  0.0266 -0.4102
33440DOD     C244140  28.339  15.832   4.487 -0.0044 -0.0741 -0.0360
33440DOD     C344141  28.037  16.154   4.593 -0.0024 -0.3645  0.0270
33441DOD     C144142   2.317   8.442  12.492 -0.2744 -0.1455 -0.1349
33441DOD     C244143   2.638   8.811  12.449 -0.1581 -0.0525 -0.2736
33441DOD     C344144   2.752   9.035  12.840 -0.0125 -0.0223  0.0114
33442DOD     C144145   8.416  26.024   7.160  0.1540  0.0056  0.3838
33442DOD     C244146   8.681  26.422   6.993  0.1090 -0.1901  0.2575
33442DOD     C344147   8.886  26.481   6.598  0.1286 -0.3057  0.0776
33443DOD     C144148  22.320  16.692  13.849 -0.1004 -0.2930  0.2225
33443DOD     C244149  22.389  16.986  13.543  0.1616 -0.3435  0.2515
33443DOD     C344150  22.269  17.233  13.125  0.0187  0.0133 -0.2618
33444DOD     C144151  25.264   0.224  20.939  0.1994  0.2312 -0.3246
33444DOD     C244152  25.600   0.341  20.628 -0.1871 -0.1153 -0.1257
33444DOD     C344153  25.894   0.439  20.299  0.1192 -0.0223  0.1356
33445DOD     C144154   9.767   6.114  10.812 -0.0993  0.3624 -0.0003
33445DOD     C244155   9.827   5.955  11.269 -0.2987 -0.0259 -0.1025
33445DOD     C344156   9.923   6.055  11.741  0.3406  0.1818 -0.2125
33446DOD     C144157  27.729  20.197   6.111 -0.0658 -0.1272  0.0111
33446DOD     C244158  27.882  19.779   5.941  0.5601 -0.0352 -0.1674
33446DOD     C344159  28.297  19.558   5.919 -0.0230 -0.0372  0.0301
33447DOD     C144160   7.302   1.488  23.106 -0.2347 -0.1056  0.0335
33447DOD     C244161   7.146   1.636  22.688 -0.0485 -0.0244 -0.0850
33447DOD     C344162   6.941   2.032  22.536 -0.1815 -0.1177  0.3908
33448DOD     C144163  14.438  19.090   4.926 -0.3593  0.1267  0.0034
33448DOD     C244164  14.780  18.842   4.721  0.2367 -0.4697 -0.2448
33448DOD     C344165  14.941  18.509   4.461  0.1419  0.2069 -0.1204
33449DOD     C144166   1.225   6.352  12.518 -0.1592 -0.3073  0.3290
33449DOD     C244167   1.486   6.105  12.844  0.4242  0.1608 -0.0023
33449DOD     C344168   1.744   5.855  13.158 -0.3122  0.0053  0.0322
33450DOD     C144169  13.236  19.422  20.878  0.0906  0.0711  0.0355
33450DOD     C244170  12.938  19.757  20.932 -0.2679 -0.0246 -0.2031
33450DOD     C344171  12.891  20.257  20.708  0.0451 -0.0593 -0.0438
33451DOD     C144172  30.353  23.829  18.700  0.2162 -0.2775  0.0465
33451DOD     C244173   0.321  23.768  18.340  0.0745  0.0392 -0.1981
33451DOD     C344174   0.525  24.027  17.974  0.1349  0.2133 -0.3591
33452DOD     C144175  12.124   9.824  27.712 -0.0386  0.2782  0.0648
33452DOD     C244176  12.419  10.134  27.544  0.0354 -0.1202 -0.2342
33452DOD     C344177  12.695  10.349  27.198 -0.3308  0.1302  0.0958
33453DOD     C144178   8.092   4.233  28.337  0.1550  0.1218 -0.0854
33453DOD     C244179   7.644   4.319  28.473 -0.2660 -0.2681 -0.2262
33453DOD     C344180   7.569   4.589  28.856 -0.1110  0.1033  0.0561
33454DOD     C144181  17.730  14.551  16.086  0.2530 -0.3296 -0.1864
33454DOD     C244182  17.632  14.689  16.514 -0.0539 -0.0608 -0.3011
33454DOD     C344183  17.344  14.647  16.836 -0.0689 -0.0039 -0.0409
33455DOD     C144184  23.987  19.816  15.243 -0.1120 -0.0202 -0.0001
33455DOD     C244185  24.117  20.133  14.907  0.0237 -0.0241 -0.3408
33455DOD     C344186  24.189  20.567  14.663  0.1062 -0.0495 -0.2035
33456DOD     C144187   2.779  10.801   5.600  0.0262 -0.0014  0.0303
33456DOD     C244188   2.515  10.755   5.183 -0.0527  0.1126  0.5847
33456DOD     C344189   2.346  10.840   4.767  0.0427  0.1267  0.0262
33457DOD     C144190  27.475   4.892  29.172 -0.1301  0.2669  0.0456
33457DOD     C244191  27.710   4.482  29.122  0.0110  0.2021 -0.1620
33457DOD     C344192  28.175   4.296  29.185  0.0258  0.0252 -0.1797
33458DOD     C144193  10.187  27.856   9.958  0.0698 -0.1997  0.3005
33458DOD     C244194  10.189  28.013   9.520 -0.1759 -0.2820  0.1178
33458DOD     C344195   9.750  28.032   9.290  0.1099 -0.0620 -0.2100
33459DOD     C144196  21.623  24.697   3.213  0.2363 -0.0012  0.2210
33459DOD     C244197  22.029  24.609   3.435 -0.2306  0.0993  0.0224
33459DOD     C344198  22.153  24.296   3.773  0.0018 -0.1705  0.1787
33460DOD     C144199  19.560   8.819  19.990  0.2110  0.4247 -0.1164
33460DOD     C244200  19.650   9.184  19.784 -0.3309 -0.3656  0.0363
33460DOD     C344201  19.724   9.539  19.478 -0.0610 -0.2209  0.0993
33461DOD     C144202   5.186  14.206  10.466 -0.2745  0.2353  0.1115
33461DOD     C244203   5.132  14.454  10.024  0.0945 -0.3702  0.0430
33461DOD     C344204   5.294  14.583   9.561 -0.0444 -0.0084 -0.2361
33462DOD     C144205  10.807  24.451  27.327 -0.0198  0.1350  0.1586
33462DOD     C244206  10.382  24.605  27.367  0.0683 -0.0208 -0.2702
33462DOD     C344207   9.920  24.559  27.268  0.5351  0.1116  0.0930
33463DOD     C144208  16.025   3.182  21.648 -0.1498 -0.0290 -0.2351
33463DOD     C244209  16.316   3.439  21.863 -0.0244  0.1751  0.2793
33463DOD     C344210  16.616   3.658  22.202  0.0058  0.0640 -0.0613
33464DOD     C144211  26.759   5.752  12.011  0.0436 -0.0138  0.2350
33464DOD     C244212  26.924   5.954  11.647 -0.3454  0.2752  0.0958
33464DOD     C344213  27.003   6.156  11.201  0.1096 -0.1198  0.0408
33465DOD     C144214  27.630   0.982  15.970 -0.1366  0.4512 -0.0244
33465DOD     C244215  28.016   1.031  15.687  0.0483 -0.0341 -0.2697
33465DOD     C344216  28.319   1.162  15.372 -0.0679  0.0068 -0.1474
33466DOD     C144217  18.479  10.227  18.312 -0.2661  0.3169  0.1172
33466DOD     C244218  18.637  10.619  18.499  0.1492 -0.0961  0.2272
33466DOD     C344219  18.632  11.085  18.686 -0.2443  0.0290  0.0683
33467DOD     C144220   7.438  27.754   0.242 -0.1934  0.2266  0.0557
33467DOD     C244221   7.078  27.774   0.496  0.1032  0.0838 -0.3067
33467DOD     C344222   6.772  27.744   0.818 -0.1576  0.3799  0.1054
33468DOD     C144223  28.768   0.638   7.759 -0.0333  0.2889 -0.0488
33468DOD     C244224  28.775   0.308   7.442 -0.0906 -0.1524 -0.1250
33468DOD     C344225  28.955   0.032   7.127  0.3323 -0.0499 -0.2210
33469DOD     C144226   2.065  13.448  15.280  0.2991  0.1402  0.0103
33469DOD     C244227   1.891  13.829  15.099  0.0791 -0.1761  0.2287
33469DOD     C344228   1.630  13.913  14.703  0.0370  0.2316  0.2969
33470DOD     C144229   1.704   1.712  10.547  0.1141 -0.1428 -0.1710
33470DOD     C244230   1.263   1.927  10.606  0.0759  0.0541 -0.1492
33470DOD     C344231   0.961   1.896  10.903  0.6539 -0.1605 -0.2304
33471DOD     C144232  13.122  23.770  27.232  0.0702  0.1813 -0.0005
33471DOD     C244233  13.145  23.338  26.986 -0.0398 -0.0333  0.2844
33471DOD     C344234  13.022  22.968  26.755 -0.2235 -0.0466  0.0223
33472DOD     C144235  12.787   3.295  22.260 -0.2015 -0.2116 -0.1179
33472DOD     C244236  13.181   3.249  22.038 -0.0869  0.2578  0.0111
33472DOD     C344237  13.446   3.511  21.759 -0.2963 -0.0244  0.0605
33473DOD     C144238  12.947   7.995   8.955  0.2744  0.0553  0.3133
33473DOD     C244239  12.761   8.292   8.697  0.1820  0.2835  0.0217
33473DOD     C344240  12.673   8.746   8.663 -0.0270 -0.1827  0.2103
33474DOD     C144241  11.643   4.594   2.676  0.0861 -0.1736  0.0064
33474DOD     C244242  11.243   4.715   2.450  0.0200 -0.0741  0.0712
33474DOD     C344243  11.016   4.722   2.011 -0.0672  0.1314  0.0888
33475DOD     C144244  26.655  25.859  11.140  0.0164 -0.1049 -0.0108
33475DOD     C244245  26.245  25.833  11.288 -0.2232  0.2339  0.1462
33475DOD     C344246  25.833  25.949  11.388  0.0579  0.0909 -0.0442
33476DOD     C144247  23.448  19.312   8.161 -0.3669 -0.0355  0.1391
33476DOD     C244248  23.102  19.561   8.107  0.2122  0.1982 -0.0092
33476DOD     C344249  22.861  19.857   8.379  0.0223 -0.2243  0.0188
33477DOD     C144250  27.116  21.419  17.030  0.1899 -0.2954  0.0212
33477DOD     C244251  26.739  21.257  17.228  0.0417  0.0326 -0.0553
33477DOD     C344252  26.525  20.874  17.405  0.2108 -0.1561  0.0629
33478DOD     C144253   5.507   3.198  28.496  0.2398  0.3250 -0.1673
33478DOD     C244254   5.479   2.794  28.754 -0.0714 -0.2344  0.2485
33478DOD     C344255   5.400   2.438  29.036  0.0550  0.1800  0.3520
33479DOD     C144256  17.107  14.332  11.908  0.1824 -0.3037 -0.3436
33479DOD     C244257  16.842  14.475  11.522 -0.2130  0.1538  0.0436
33479DOD     C344258  16.772  14.765  11.170 -0.0081 -0.0677 -0.2494
33480DOD     C144259  22.798  15.245  29.570  0.1024  0.2225 -0.3368
33480DOD     C244260  23.165  14.963  29.461  0.3594  0.2676  0.0114
33480DOD     C344261  23.274  14.517  29.379  0.3499 -0.1015  0.1099
33481DOD     C144262  22.740   8.739  16.265 -0.3092  0.1207  0.1643
33481DOD     C244263  23.032   8.540  16.012 -0.0422 -0.0468 -0.0077
33481DOD     C344264  23.501   8.484  15.903  0.3122 -0.0429  0.1092
33482DOD     C144265  13.791  14.071  28.078  0.3565 -0.0531  0.2687
33482DOD     C244266  14.004  14.246  27.661 -0.1782  0.0366 -0.2448
33482DOD     C344267  14.045  14.494  27.275 -0.1965  0.0023  0.0140
33483DOD     C144268   9.375  19.775  13.431  0.1481 -0.1946  0.3847
33483DOD     C244269   8.932  19.859  13.238  0.0383 -0.4179 -0.0474
33483DOD     C344270   8.510  19.825  13.420 -0.1866 -0.3056  0.0889
33484DOD     C144271   9.551  28.426   6.103  0.2918 -0.3090 -0.1008
33484DOD     C244272   9.868  28.466   6.461 -0.3620  0.0501 -0.2945
33484DOD     C344273  10.047  28.852   6.707 -0.2741 -0.0658  0.2093
33485DOD     C144274  13.189   5.956  18.015  0.0858 -0.1692 -0.0386
33485DOD     C244275  13.485   6.182  17.708  0.0274 -0.1846  0.0188
33485DOD     C344276  13.722   6.381  17.342 -0.0129 -0.3601  0.2463
33486DOD     C144277   3.381  10.219  17.380 -0.0820  0.3129 -0.0816
33486DOD     C244278   3.337  10.681  17.251  0.1373  0.0827  0.0209
33486DOD     C344279   3.306  11.073  16.947 -0.4911  0.2328  0.3648
33487DOD     C144280  19.654  16.940   6.570 -0.2538  0.0893 -0.1324
33487DOD     C244281  19.175  17.019   6.481 -0.0620 -0.1774 -0.0651
33487DOD     C344282  18.771  16.826   6.415  0.0415  0.1509 -0.4149
33488DOD     C144283   1.194  18.205  13.954 -0.1296 -0.3577  0.0488
33488DOD     C244284   1.503  18.485  14.157 -0.1133  0.2677 -0.1623
33488DOD     C344285   1.582  18.865  13.911  0.0327  0.2404 -0.1421
33489DOD     C144286   5.160  22.612  26.296 -0.1104 -0.1361 -0.1180
33489DOD     C244287   5.590  22.436  26.473  0.0605 -0.0263  0.3223
33489DOD     C344288   5.952  22.498  26.718 -0.0801  0.0458  0.1917
33490DOD     C144289  19.447   3.618  14.190  0.0950 -0.3050  0.1459
33490DOD     C244290  19.519   3.968  13.980 -0.0070 -0.0854  0.0454
33490DOD     C344291  19.395   4.152  13.510 -0.3351  0.1915 -0.1671
33491DOD     C144292  27.554   4.782  15.576  0.1025  0.0222 -0.1854
33491DOD     C244293  27.291   4.569  15.278 -0.1420  0.0022  0.2697
33491DOD     C344294  27.043   4.745  14.929  0.0184  0.0259 -0.0971
33492DOD     C144295  12.524   1.793  14.527  0.0558  0.0264  0.0429
33492DOD     C244296  12.281   2.106  14.408  0.1573 -0.0433 -0.4358
33492DOD     C344297  12.166   2.481  14.097 -0.0502 -0.4867  0.0359
33493DOD     C144298   8.524   0.241  23.855 -0.0603  0.3215  0.1599
33493DOD     C244299   8.369  30.279  23.461  0.1204 -0.2540  0.0408
33493DOD     C344300   8.119  30.018  23.074 -0.0127 -0.2605  0.0655
33494DOD     C144301  15.569  27.587  20.042  0.0764  0.3401  0.2161
33494DOD     C244302  15.508  27.623  19.592 -0.0211 -0.0407  0.2331
33494DOD     C344303  15.412  27.646  19.112  0.0864  0.0892  0.0787
33495DOD     C144304  26.226   1.125  19.782  0.1624  0.1140  0.2491
33495DOD     C244305  26.192   1.450  19.471 -0.0824 -0.1288  0.2527
33495DOD     C344306  26.011   1.669  19.128  0.0149  0.0974  0.0587
33496DOD     C144307  16.984  22.953  26.598  0.0505 -0.2980 -0.1373
33496DOD     C244308  17.333  23.182  26.785  0.0105  0.0752  0.2316
33496DOD     C344309  17.398  23.628  26.927  0.1616 -0.0715  0.2215
33497DOD     C144310   5.443  27.288   4.465 -0.4007  0.2288  0.1566
33497DOD     C244311   5.280  26.985   4.788 -0.1324 -0.1287 -0.1228
33497DOD     C344312   5.186  26.916   5.253  0.1299 -0.4031  0.1284
33498DOD     C144313  24.389  20.788  18.494 -0.1673  0.0638  0.0458
33498DOD     C244314  24.083  20.401  18.563  0.1286  0.0115  0.2816
33498DOD     C344315  23.612  20.368  18.721 -0.1034 -0.1836 -0.1903
33499DOD     C144316   6.559  28.359  19.300 -0.3313 -0.0577  0.1891
33499DOD     C244317   6.217  28.260  19.033  0.2873 -0.3922 -0.1595
33499DOD     C344318   5.768  28.086  18.887 -0.0261  0.0629  0.2329
33500DOD     C144319   4.866  28.327  22.540 -0.0444 -0.0777 -0.2958
33500DOD     C244320   4.879  28.557  22.958  0.0363 -0.0815  0.2737
33500DOD     C344321   4.833  28.684  23.398 -0.1852  0.0225  0.0586
33501DOD     C144322   3.439   0.181  22.584 -0.3056  0.0869 -0.0979
33501DOD     C244323   3.034   0.444  22.802 -0.0421  0.0928  0.2499
33501DOD     C344324   2.672   0.629  22.573 -0.3263  0.0786  0.0098
33502DOD     C144325  17.623  12.666  25.460  0.1776 -0.2121  0.0923
33502DOD     C244326  18.036  12.829  25.343 -0.0532 -0.1454  0.2609
33502DOD     C344327  18.445  12.855  25.486  0.1801  0.0991  0.0519
33503DOD     C144328  28.850  10.446   5.732  0.1976  0.2004 -0.1188
33503DOD     C244329  28.759  10.818   5.978 -0.0129  0.0184 -0.0422
33503DOD     C344330  28.933  11.086   6.348 -0.3035  0.3319 -0.0312
33504DOD     C144331  26.967  16.062   1.878  0.1083 -0.1065 -0.1678
33504DOD     C244332  27.003  15.588   1.752 -0.0339  0.1193 -0.2578
33504DOD     C344333  27.127  15.163   1.525 -0.1272 -0.0528  0.2681
33505DOD     C144334  27.019   4.359   5.746 -0.1413  0.0642 -0.3074
33505DOD     C244335  27.053   4.096   5.300  0.1214  0.0920 -0.1681
33505DOD     C344336  26.907   3.891   4.894  0.0217  0.1578 -0.2247
33506DOD     C144337   7.697  13.304  30.252  0.1358 -0.0162 -0.1834
33506DOD     C244338   7.244  13.197  30.252 -0.0365  0.0317  0.1378
33506DOD     C344339   6.843  13.156  30.021  0.2921 -0.0670 -0.0091
33507DOD     C144340   5.594   1.447  12.969 -0.2231  0.0959 -0.0280
33507DOD     C244341   5.696   1.827  13.219  0.0902  0.1789  0.0388
33507DOD     C344342   6.092   1.862  13.541 -0.0640  0.1519 -0.4395
33508DOD     C144343   1.556  20.703  30.071  0.1455  0.1014 -0.0803
33508DOD     C244344   1.558  20.396  29.759  0.2516  0.1011  0.0110
33508DOD     C344345   1.679  19.948  29.699  0.0865 -0.0327 -0.0505
33509DOD     C144346  30.047  23.346  26.351  0.0507 -0.0263 -0.3519
33509DOD     C244347  30.165  23.210  25.925  0.0028 -0.1225 -0.1501
33509DOD     C344348  -0.077  23.166  25.481 -0.3652 -0.0725  0.1800
33510DOD     C144349  19.155  23.257  26.116 -0.0592  0.0264 -0.2436
33510DOD     C244350  18.970  23.134  25.703 -0.2346 -0.0409  0.0157
33510DOD     C344351  18.891  23.065  25.261  0.1279 -0.3156  0.0071
33511DOD     C144352   0.764   2.854   6.008  0.3240 -0.1181 -0.1657
33511DOD     C244353   0.406   3.142   6.156  0.0028 -0.0573 -0.1955
33511DOD     C344354   0.231   3.372   6.559 -0.4003 -0.2459 -0.2464
33512DOD     C144355  12.194  15.308  27.943  0.3395 -0.2656 -0.2728
33512DOD     C244356  11.830  15.001  27.853  0.0881 -0.0547  0.0486
33512DOD     C344357  11.417  14.825  27.715 -0.3416 -0.1236 -0.0806
33513DOD     C144358  18.388  19.510  23.184  0.2248 -0.0645  0.1635
33513DOD     C244359  18.408  19.288  23.600 -0.1158  0.2444 -0.1580
33513DOD     C344360  18.799  19.232  23.890  0.2457  0.4303  0.0682
33514DOD     C144361  29.053  11.322   7.352  0.0039  0.0353  0.2773
33514DOD     C244362  28.909  10.961   7.664  0.0312 -0.2361  0.0466
33514DOD     C344363  28.676  10.700   7.958  0.1731 -0.1133 -0.0325
33515DOD     C144364  19.702  16.147   2.718 -0.0108  0.0666  0.2633
33515DOD     C244365  20.091  15.948   2.593  0.0361 -0.1309 -0.0840
33515DOD     C344366  20.397  15.580   2.785  0.0470 -0.0046  0.0800
33516DOD     C144367  14.509  13.297   5.149 -0.1208  0.0852  0.0548
33516DOD     C244368  14.783  13.274   5.542  0.1556  0.1472  0.0966
33516DOD     C344369  14.983  12.961   5.804  0.1961 -0.1524 -0.1352
33517DOD     C144370   2.050   4.435  27.754 -0.0786 -0.1104  0.2589
33517DOD     C244371   2.538   4.372  27.775  0.1051 -0.1365 -0.2251
33517DOD     C344372   2.954   4.400  27.644 -0.1455 -0.0880 -0.0190
33518DOD     C144373   9.699  12.252  24.407  0.0395  0.1611 -0.1774
33518DOD     C244374   9.581  11.795  24.488  0.1173 -0.1771  0.0390
33518DOD     C344375   9.766  11.329  24.457 -0.0520  0.3452  0.3345
33519DOD     C144376  11.484  29.902  21.863 -0.0290  0.0311 -0.1112
33519DOD     C244377  11.141  29.741  22.142  0.0870 -0.2376  0.0390
33519DOD     C344378  10.892  30.010  22.431 -0.2293  0.1244 -0.2020
33520DOD     C144379   6.731   9.177  27.182 -0.1357  0.2825 -0.4352
33520DOD     C244380   6.365   9.416  27.288 -0.2869 -0.0486 -0.1411
33520DOD     C344381   5.902   9.608  27.283 -0.1723  0.0954 -0.1295
33521DOD     C144382  29.777  28.572  26.148 -0.1511  0.0013 -0.0703
33521DOD     C244383  30.133  28.724  25.955 -0.0705 -0.0816 -0.0089
33521DOD     C344384   0.168  28.611  25.783  0.1197 -0.0076 -0.1560
33522DOD     C144385  18.249  21.506  13.989  0.2025  0.1344  0.0316
33522DOD     C244386  18.470  21.471  13.628 -0.0113  0.1389  0.1909
33522DOD     C344387  18.646  21.464  13.158 -0.1180  0.3786 -0.2677
33523DOD     C144388  20.138  16.745   6.746  0.2622 -0.0716  0.2224
33523DOD     C244389  20.320  17.066   6.979  0.0944  0.0828  0.0069
33523DOD     C344390  20.726  17.280   7.096 -0.1172  0.4603  0.1341
33524DOD     C144391  16.187   9.755   9.456 -0.1407  0.2804 -0.2017
33524DOD     C244392  16.610   9.786   9.547 -0.0240  0.0090 -0.0801
33524DOD     C344393  16.952   9.544   9.306  0.3626 -0.0773  0.1648
33525DOD     C144394  23.146   2.761   7.275  0.0194  0.1255 -0.1122
33525DOD     C244395  23.579   2.723   7.298  0.0497  0.5038 -0.0094
33525DOD     C344396  23.728   2.357   7.017  0.0816 -0.0536 -0.0029
33526DOD     C144397  11.884  14.883   0.266 -0.0359 -0.0933 -0.0609
33526DOD     C244398  12.176  14.656   0.549 -0.6297 -0.0319 -0.1114
33526DOD     C344399  12.584  14.558   0.733  0.1430  0.3190 -0.2120
33527DOD     C144400  28.995  25.839  26.093  0.2103  0.2151  0.1652
33527DOD     C244401  28.638  26.189  26.149  0.1803 -0.2651  0.1270
33527DOD     C344402  28.200  26.371  26.235  0.0870 -0.1858  0.3723
33528DOD     C144403  12.123  10.730  12.289  0.0730  0.1028 -0.1125
33528DOD     C244404  11.976  10.548  11.913 -0.0207  0.3168 -0.2513
33528DOD     C344405  11.590  10.378  11.757  0.1204  0.0792  0.2627
33529DOD     C144406  14.298  11.442  15.802 -0.1103 -0.1597 -0.0285
33529DOD     C244407  14.490  11.036  15.880  0.0189  0.1527 -0.0623
33529DOD     C344408  14.339  10.549  15.838 -0.0897  0.1706  0.1337
33530DOD     C144409  12.955  26.894  16.336  0.1333 -0.2417 -0.0784
33530DOD     C244410  13.269  26.857  16.036  0.1128 -0.0437  0.1154
33530DOD     C344411  13.483  26.955  15.625 -0.4291  0.1221  0.0451
33531DOD     C144412   2.233  24.062  23.135 -0.1866  0.0226 -0.2050
33531DOD     C244413   2.316  24.147  22.733 -0.1364 -0.4540 -0.1374
33531DOD     C344414   2.692  23.894  22.622 -0.0843  0.0553  0.0832
33532DOD     C144415  10.410  25.274  27.047  0.2031 -0.2290 -0.1431
33532DOD     C244416  10.759  25.251  26.743  0.0306  0.4757 -0.2095
33532DOD     C344417  11.173  25.399  26.643 -0.0903 -0.1131  0.0376
33533DOD     C144418  27.401  14.735  23.519 -0.1294  0.4325 -0.1071
33533DOD     C244419  27.383  14.335  23.674  0.1783  0.0069  0.0270
33533DOD     C344420  27.497  13.894  23.848  0.1361  0.0824  0.0975
33534DOD     C144421   6.742   7.631   4.481 -0.0821  0.0467  0.1174
33534DOD     C244422   6.497   7.389   4.694  0.1207  0.0828  0.1449
33534DOD     C344423   6.183   7.083   4.845  0.0540 -0.0026 -0.0571
33535DOD     C144424  29.902  24.829   9.068  0.1906  0.0886  0.0259
33535DOD     C244425  30.199  24.671   8.703 -0.0251  0.0387  0.0017
33535DOD     C344426   0.224  24.858   8.345 -0.3505 -0.1061 -0.2867
33536DOD     C144427  14.302  23.032  17.498  0.0481 -0.0319  0.1061
33536DOD     C244428  14.365  22.760  17.867  0.1052  0.0569 -0.1424
33536DOD     C344429  14.581  22.484  18.222 -0.0800 -0.0408  0.1181
33537DOD     C144430  13.998  13.493  18.907  0.2840  0.2034  0.0990
33537DOD     C244431  13.684  13.197  18.647 -0.0338  0.0526  0.0823
33537DOD     C344432  13.426  12.863  18.671  0.0968  0.4287  0.1550
33538DOD     C144433  13.616  19.333  23.478 -0.0619 -0.1875 -0.1800
33538DOD     C244434  13.908  19.588  23.266  0.0824  0.0765  0.3181
33538DOD     C344435  14.315  19.674  23.191  0.0304  0.1209 -0.1927
33539DOD     C144436  14.427  20.858   8.782  0.1625 -0.1949  0.1913
33539DOD     C244437  14.467  20.543   9.088  0.1773  0.1748 -0.0944
33539DOD     C344438  14.584  20.186   9.407 -0.0170 -0.2671  0.1067
33540DOD     C144439  11.536   6.425  22.989 -0.2899 -0.4820 -0.1125
33540DOD     C244440  11.845   6.109  23.046 -0.1035  0.0053  0.2417
33540DOD     C344441  12.141   6.115  23.372 -0.1249 -0.1535 -0.0996
33541DOD     C144442  18.499   7.686  12.565  0.2755 -0.1447 -0.1461
33541DOD     C244443  18.399   7.791  12.141  0.0583  0.1524  0.2989
33541DOD     C344444  17.946   7.808  11.972  0.3266 -0.4896  0.1891
33542DOD     C144445   5.484   6.432  26.229  0.1766  0.3392  0.1081
33542DOD     C244446   5.224   6.734  26.438 -0.2729 -0.2544  0.0277
33542DOD     C344447   4.938   7.145  26.406  0.1198  0.0700  0.3140
33543DOD     C144448   6.022  16.782  20.417  0.1486 -0.3636 -0.0823
33543DOD     C244449   6.360  16.674  20.686  0.3255 -0.1512 -0.0298
33543DOD     C344450   6.659  16.898  20.812  0.1093  0.0057 -0.2301
33544DOD     C144451  28.131  24.551  23.957 -0.0944 -0.0033  0.0756
33544DOD     C244452  27.734  24.371  23.723 -0.0916 -0.1768 -0.3030
33544DOD     C344453  27.418  24.124  23.571 -0.0573 -0.0694  0.1822
33545DOD     C144454  18.232  13.240  10.129  0.0471  0.0951 -0.1069
33545DOD     C244455  18.479  12.830  10.262 -0.2828  0.5041  0.3087
33545DOD     C344456  18.666  12.626  10.651  0.1759  0.1158 -0.1020
33546DOD     C144457  16.584   6.083   2.897  0.1023  0.1328 -0.0884
33546DOD     C244458  16.281   6.069   3.266 -0.0719 -0.0673 -0.0526
33546DOD     C344459  16.030   5.687   3.397 -0.1053 -0.2145 -0.0605
33547DOD     C144460   9.968  12.022  23.458 -0.1918 -0.2076 -0.1811
33547DOD     C244461  10.257  11.738  23.209  0.0188  0.1016  0.1984
33547DOD     C344462  10.383  11.557  22.748  0.3264  0.1005  0.0002
33548DOD     C144463  28.108  27.667  29.700  0.0098  0.0183 -0.1209
33548DOD     C244464  28.565  27.617  29.833  0.0293  0.0118 -0.0075
33548DOD     C344465  28.911  27.660  30.148  0.2166  0.1604 -0.1808
33549DOD     C144466  30.053  18.934  28.086 -0.1768 -0.1483 -0.0235
33549DOD     C244467   0.132  18.746  28.180  0.2236  0.1339  0.0377
33549DOD     C344468   0.531  18.583  27.938 -0.1677  0.2811 -0.2539
33550DOD     C144469   4.760  20.593   9.156  0.0423  0.0869 -0.1038
33550DOD     C244470   4.394  20.345   9.037 -0.1959  0.0023 -0.2290
33550DOD     C344471   4.130  19.969   9.091 -0.1238 -0.0468 -0.0513
33551DOD     C144472  25.505  12.140  16.548  0.1338  0.0462 -0.2003
33551DOD     C244473  25.675  12.259  16.096 -0.1726  0.0846 -0.0327
33551DOD     C344474  25.715  11.882  15.790 -0.3097 -0.3976 -0.1181
33552DOD     C144475  13.633   4.129  25.995 -0.2479  0.1649  0.1210
33552DOD     C244476  13.920   4.054  25.617  0.1296 -0.0490 -0.1238
33552DOD     C344477  14.131   4.208  25.222 -0.0519 -0.2582 -0.1316
33553DOD     C144478   1.808  18.981  29.665 -0.4205  0.3643 -0.2566
33553DOD     C244479   1.613  19.289  29.968 -0.1835  0.2145  0.4820
33553DOD     C344480   1.440  19.673  30.123 -0.1011 -0.3242  0.0238
33554DOD     C144481  21.961  18.916  11.552 -0.1069  0.1247 -0.1120
33554DOD     C244482  21.594  18.653  11.716 -0.0667 -0.0991 -0.1223
33554DOD     C344483  21.446  18.481  12.087 -0.1673  0.0828 -0.0508
33555DOD     C144484  12.697  19.342  16.716  0.1203  0.1620  0.1141
33555DOD     C244485  13.146  19.304  16.842  0.1343 -0.3125  0.0275
33555DOD     C344486  13.484  19.242  17.209 -0.0057 -0.3684  0.2558
33556DOD     C144487  25.177  19.314  25.399 -0.0145  0.1131  0.0559
33556DOD     C244488  25.211  19.291  25.846  0.1061 -0.2731 -0.1220
33556DOD     C344489  25.226  19.452  26.228 -0.0626  0.1424 -0.2823
33557DOD     C144490   7.278  19.404  17.794  0.1395 -0.1751  0.0437
33557DOD     C244491   7.355  19.300  17.368  0.0599  0.1296 -0.1884
33557DOD     C344492   7.099  19.413  16.961 -0.1601 -0.3231  0.0078
33558DOD     C144493  19.139   4.614  13.445 -0.0233  0.2350 -0.2572
33558DOD     C244494  18.834   4.502  13.125  0.3967 -0.1735  0.0339
33558DOD     C344495  18.431   4.657  13.056  0.0116  0.0297  0.0127
33559DOD     C144496  27.534  29.195   4.456  0.0812  0.1607 -0.0634
33559DOD     C244497  27.299  29.569   4.343 -0.1563 -0.0217 -0.0294
33559DOD     C344498  27.358  30.021   4.123 -0.1200  0.0506 -0.0615
33560DOD     C144499  17.994  26.338  20.894  0.0723 -0.0017  0.2495
33560DOD     C244500  18.213  26.477  21.267  0.0996  0.0008 -0.1782
33560DOD     C344501  18.198  26.773  21.625  0.0278  0.1253 -0.3538
33561DOD     C144502   5.616  29.582  18.831 -0.1307  0.1541 -0.0384
33561DOD     C244503   5.792  29.313  18.478  0.2446  0.1008 -0.1409
33561DOD     C344504   5.650  28.949  18.178  0.2429  0.1168  0.0164
33562DOD     C144505   4.263  15.750  24.389  0.1582  0.0046 -0.0896
33562DOD     C244506   3.853  15.604  24.517 -0.2552  0.3869  0.2922
33562DOD     C344507   3.562  15.258  24.568 -0.0643 -0.0359  0.1413
33563DOD     C144508   4.895  23.345   9.111  0.0434  0.2544 -0.0887
33563DOD     C244509   5.240  23.645   9.023 -0.2478  0.1396 -0.0057
33563DOD     C344510   5.584  23.830   9.156  0.2548 -0.1596  0.0479
33564DOD     C144511   1.281  19.222  13.241  0.2119 -0.4862 -0.3879
33564DOD     C244512   1.589  19.493  13.474  0.1788 -0.0384 -0.2018
33564DOD     C344513   1.688  19.898  13.292  0.0415 -0.0402  0.1432
33565DOD     C144514  27.546  10.181  23.441 -0.0508 -0.2721  0.3241
33565DOD     C244515  27.541  10.499  23.795  0.2501 -0.0914 -0.2673
33565DOD     C344516  27.220  10.689  24.105  0.0647 -0.0959  0.0858
33566DOD     C144517  13.950   6.181  26.302  0.1417  0.0282  0.0783
33566DOD     C244518  13.761   6.548  26.486 -0.0472 -0.1088  0.0954
33566DOD     C344519  13.437   6.801  26.231 -0.2393  0.1904 -0.0660
33567DOD     C144520  10.042  12.318  28.771 -0.0548  0.2826 -0.0514
33567DOD     C244521   9.613  12.256  28.703 -0.2578 -0.2596  0.1587
33567DOD     C344522   9.194  12.302  28.501  0.1894  0.1037 -0.2230
33568DOD     C144523  28.537  15.333   9.083 -0.2678  0.2240  0.0180
33568DOD     C244524  28.283  15.049   8.800 -0.3482 -0.2295 -0.1287
33568DOD     C344525  27.837  14.872   8.833  0.1485 -0.1905 -0.3647
33569DOD     C144526  17.430  10.085  24.836  0.1634  0.5301  0.1198
33569DOD     C244527  17.749  10.340  24.697  0.2866  0.1529  0.0381
33569DOD     C344528  18.033  10.569  24.436 -0.1558 -0.0405 -0.0101
33570DOD     C144529   5.840   2.099   9.140 -0.0010  0.0438 -0.3554
33570DOD     C244530   5.645   2.199   8.686 -0.1740 -0.1596  0.0602
33570DOD     C344531   5.360   2.578   8.750  0.0653 -0.1787  0.1348
33571DOD     C144532   3.781  19.728  19.567  0.0003  0.3147 -0.2378
33571DOD     C244533   3.641  20.164  19.768 -0.2527  0.3462 -0.0037
33571DOD     C344534   3.601  20.241  20.189  0.0337 -0.0529 -0.1120
33572DOD     C144535   4.485  13.287   8.808 -0.1103 -0.1937 -0.1817
33572DOD     C244536   4.834  13.575   8.823  0.0989 -0.0963  0.2215
33572DOD     C344537   4.917  14.012   8.660  0.2098  0.1803 -0.3335
33573DOD     C144538  27.710  20.955  16.650  0.2878  0.1128  0.2854
33573DOD     C244539  28.017  20.915  17.023  0.0741 -0.0152 -0.0619
33573DOD     C344540  28.385  20.622  16.989  0.1332 -0.2438  0.4454
33574DOD     C144541  11.633  23.285  16.209 -0.0691 -0.0223  0.2044
33574DOD     C244542  11.494  23.338  16.657  0.1106  0.0782  0.0108
33574DOD     C344543  11.560  23.502  17.129  0.2342 -0.0926 -0.0578
33575DOD     C144544  14.730   1.366  10.314 -0.1119 -0.0937  0.2998
33575DOD     C244545  14.622   1.061   9.986  0.1515  0.1496 -0.0209
33575DOD     C344546  14.579   1.057   9.562 -0.0818  0.0031 -0.0144
33576DOD     C144547  10.869  20.162   2.454 -0.2049  0.0590  0.0959
33576DOD     C244548  10.797  20.466   2.781  0.1067 -0.0859  0.1926
33576DOD     C344549  10.667  20.892   2.844 -0.2145 -0.3330 -0.1004
33577DOD     C144550  13.411  14.285   6.569 -0.0840 -0.4132 -0.2424
33577DOD     C244551  13.573  14.646   6.762 -0.1961  0.0103 -0.1339
33577DOD     C344552  14.010  14.758   6.919  0.2038  0.1658  0.1132
33578DOD     C144553  27.988  11.846   2.715  0.2021 -0.1214 -0.1634
33578DOD     C244554  27.902  11.856   2.256 -0.0278 -0.1468  0.2297
33578DOD     C344555  27.967  11.459   1.966 -0.0773 -0.0752  0.2031
33579DOD     C144556   5.978   8.278   9.700  0.0532  0.2687 -0.1764
33579DOD     C244557   5.753   8.446   9.292 -0.0740  0.0332 -0.2198
33579DOD     C344558   5.707   8.537   8.791  0.0153  0.0012 -0.2696
33580DOD     C144559   1.219  21.720   8.772 -0.0626  0.3386 -0.0309
33580DOD     C244560   1.549  22.070   8.889 -0.0653  0.0485 -0.1246
33580DOD     C344561   1.786  22.341   8.627  0.0428  0.0994 -0.0746
33581DOD     C144562  28.447  19.218  20.525 -0.3673 -0.0456  0.0183
33581DOD     C244563  28.433  19.604  20.781  0.3058 -0.0318  0.0777
33581DOD     C344564  28.114  19.733  21.108 -0.3312  0.6348  0.1292
33582DOD     C144565  13.731  25.706  12.334 -0.2018  0.1285  0.0456
33582DOD     C244566  13.923  25.695  11.878 -0.2079 -0.2644 -0.1781
33582DOD     C344567  14.044  25.276  11.635  0.1310  0.1658 -0.0918
33583DOD     C144568  20.732   2.859   8.500 -0.1915  0.0333  0.2247
33583DOD     C244569  20.523   3.130   8.204  0.0596 -0.1405  0.0109
33583DOD     C344570  20.288   3.446   7.939  0.2051  0.1424 -0.1730
33584DOD     C144571  15.995  13.197  29.521 -0.0602 -0.0184  0.1594
33584DOD     C244572  15.853  13.042  29.159  0.1384  0.3731 -0.0269
33584DOD     C344573  15.978  12.721  28.808  0.2207  0.1483  0.3648
33585DOD     C144574   8.713   0.191  26.132 -0.0108  0.1759 -0.2139
33585DOD     C244575   8.345   0.303  25.902 -0.1549 -0.0742  0.1061
33585DOD     C344576   7.980   0.363  25.629  0.0814 -0.1289  0.3982
33586DOD     C144577   5.613  13.404  14.827 -0.0578 -0.2020 -0.1648
33586DOD     C244578   5.703  13.829  14.779  0.0344  0.4195  0.0606
33586DOD     C344579   5.865  14.226  15.021  0.0058  0.1456  0.0225
33587DOD     C144580   7.845  28.142  26.866 -0.3695 -0.0345 -0.0563
33587DOD     C244581   7.444  28.438  26.918  0.2553  0.0256 -0.3545
33587DOD     C344582   7.069  28.728  26.863 -0.0824 -0.1865  0.1041
33588DOD     C144583  10.139  27.553  25.455 -0.0421  0.1936  0.1857
33588DOD     C244584   9.780  27.499  25.731  0.1204  0.1955 -0.1823
33588DOD     C344585   9.460  27.249  25.945  0.3376 -0.1600 -0.0066
33589DOD     C144586   9.718  15.600  20.402 -0.1966  0.1348 -0.0545
33589DOD     C244587   9.794  15.285  20.685 -0.1335  0.2502  0.0968
33589DOD     C344588   9.882  15.034  21.156 -0.0637 -0.4230  0.3640
33590DOD     C144589  10.221  10.742   9.556 -0.0526 -0.1357  0.1943
33590DOD     C244590   9.830  11.064   9.548 -0.3571 -0.0662  0.0708
33590DOD     C344591   9.539  11.341   9.673  0.2916 -0.0079 -0.1687
33591DOD     C144592  26.031  23.838   0.657 -0.1191  0.0789  0.2045
33591DOD     C244593  25.912  23.456   0.934  0.0112  0.3385 -0.1442
33591DOD     C344594  25.936  23.024   0.737 -0.2118 -0.0145  0.0922
33592DOD     C144595  17.603   1.910  28.007 -0.1205  0.0312  0.2505
33592DOD     C244596  17.820   2.342  27.984  0.0248  0.0633  0.0838
33592DOD     C344597  17.925   2.800  28.007 -0.0008 -0.2066  0.2834
33593DOD     C144598  13.496  12.350  18.293 -0.1933  0.1628  0.1161
33593DOD     C244599  13.892  12.663  18.371 -0.3218  0.0696  0.0046
33593DOD     C344600  14.189  12.879  18.722 -0.2332 -0.0320  0.0712
33594DOD     C144601  27.282  15.137  22.324  0.2456 -0.0865 -0.1119
33594DOD     C244602  27.502  15.476  22.056  0.1187  0.1050  0.0459
33594DOD     C344603  27.750  15.686  21.744  0.1284 -0.0033  0.0751
33595DOD     C144604  16.062   4.552  29.772  0.0133 -0.2206  0.3130
33595DOD     C244605  16.168   4.971  29.581  0.0665  0.0411 -0.1670
33595DOD     C344606  16.369   5.278  29.293 -0.3372  0.1696  0.2008
33596DOD     C144607  21.502  25.367  15.051 -0.0585  0.1615  0.3132
33596DOD     C244608  21.925  25.495  15.228  0.1753  0.1510 -0.3115
33596DOD     C344609  22.047  25.827  15.576  0.1016  0.1558  0.1397
33597DOD     C144610   9.054  19.634  12.167  0.0967  0.1953 -0.3577
33597DOD     C244611   8.607  19.574  12.283  0.0441 -0.2410  0.0718
33597DOD     C344612   8.148  19.590  12.422 -0.1088 -0.2871  0.3784
33598DOD     C144613  25.566   1.835  13.178  0.3946  0.1311  0.1754
33598DOD     C244614  25.320   2.290  13.255 -0.0711  0.0556 -0.3566
33598DOD     C344615  24.878   2.259  13.469 -0.1423  0.1276 -0.0810
33599DOD     C144616  23.298  18.277  16.329  0.0011 -0.1225  0.1428
33599DOD     C244617  23.538  18.583  16.618 -0.0946 -0.4557  0.0706
33599DOD     C344618  23.942  18.602  16.747 -0.2684 -0.2511  0.4461
33600DOD     C144619   4.184   0.991  17.732  0.1094  0.1442 -0.0972
33600DOD     C244620   3.963   0.632  17.728 -0.0826  0.0954 -0.2042
33600DOD     C344621   3.737   0.347  18.035  0.0805  0.0041 -0.1759
33601DOD     C144622  28.695  26.267   1.353 -0.1135  0.0602 -0.2098
33601DOD     C244623  28.291  26.301   1.115  0.0437  0.0443 -0.0244
33601DOD     C344624  27.872  26.096   1.182  0.1064 -0.1243 -0.0104
33602DOD     C144625  18.867  19.876  17.518  0.1290  0.0465  0.3437
33602DOD     C244626  19.018  20.303  17.704  0.1439  0.2060 -0.1062
33602DOD     C344627  19.413  20.500  17.785 -0.0216  0.2477 -0.0887
33603DOD     C144628  15.966  10.070  29.554 -0.2110  0.1643 -0.4033
33603DOD     C244629  16.097   9.960  29.106 -0.0600  0.0601 -0.2331
33603DOD     C344630  16.077   9.830  28.654 -0.0837 -0.1088  0.1951
33604DOD     C144631  16.761   3.794   7.771 -0.3965 -0.1726 -0.1818
33604DOD     C244632  17.115   3.599   8.012  0.2543 -0.2559 -0.1032
33604DOD     C344633  17.115   3.570   8.454  0.1547 -0.2048  0.0508
33605DOD     C144634  18.879   2.781   8.840  0.0261  0.1895  0.1927
33605DOD     C244635  18.881   2.909   9.269 -0.3461 -0.2050  0.2662
33605DOD     C344636  19.216   3.034   9.523 -0.0504 -0.0054 -0.0103
33606DOD     C144637  20.562  17.205  13.759 -0.0575 -0.3422 -0.0747
33606DOD     C244638  20.979  17.052  13.864 -0.0938  0.2032  0.0552
33606DOD     C344639  21.441  17.151  13.883 -0.0878  0.1736 -0.2609
33607DOD     C144640  20.013  29.012  19.245 -0.3295  0.0518  0.2082
33607DOD     C244641  19.670  29.310  19.124 -0.2541  0.1511 -0.2662
33607DOD     C344642  19.460  29.691  18.972  0.0138 -0.3162  0.0964
33608DOD     C144643   3.682  29.691  28.761 -0.1341  0.1827  0.0569
33608DOD     C244644   4.053  29.568  28.966 -0.0867 -0.0355 -0.2794
33608DOD     C344645   4.365  29.879  29.105 -0.1524  0.1720  0.0713
33609DOD     C144646   7.851  24.916   2.874 -0.3481 -0.2279  0.0466
33609DOD     C244647   7.550  24.832   2.517 -0.1029  0.0934 -0.2075
33609DOD     C344648   7.135  25.062   2.527 -0.0483  0.1720  0.0833
33610DOD     C144649   1.143  14.443  28.290 -0.4442 -0.2640  0.2439
33610DOD     C244650   0.732  14.678  28.311  0.2025  0.2280  0.1819
33610DOD     C344651   0.312  14.731  28.464 -0.1650 -0.1252  0.0428
33611DOD     C144652  10.273  21.765   8.208  0.1153 -0.0598 -0.2546
33611DOD     C244653  10.370  21.458   8.499 -0.2296  0.0607 -0.2747
33611DOD     C344654  10.333  21.155   8.839 -0.0457 -0.1248  0.2499
33612DOD     C144655  23.864  26.508   6.978 -0.1200 -0.0283  0.2032
33612DOD     C244656  23.932  26.226   7.401  0.2345 -0.1122 -0.0660
33612DOD     C344657  23.738  26.260   7.845 -0.0383  0.0315  0.2513
33613DOD     C144658   9.552  19.078  19.340  0.0136 -0.2586 -0.2543
33613DOD     C244659   9.976  19.283  19.324 -0.0979 -0.0334 -0.0973
33613DOD     C344660  10.214  19.705  19.480 -0.3456  0.3518  0.2258
33614DOD     C144661  11.591  22.229  25.331  0.1657  0.0308 -0.0646
33614DOD     C244662  11.252  22.594  25.453 -0.1048 -0.2081  0.0481
33614DOD     C344663  10.826  22.857  25.357  0.1099 -0.1248 -0.0327
33615DOD     C144664   6.102  27.554  26.225 -0.0241  0.0413  0.0954
33615DOD     C244665   6.157  27.788  26.633 -0.0979  0.5198  0.2977
33615DOD     C344666   6.420  27.926  27.024  0.0781  0.0235 -0.0393
33616DOD     C144667  17.576  16.936  12.303 -0.2654 -0.1908 -0.1343
33616DOD     C244668  17.269  17.009  11.933  0.1912 -0.0545  0.1567
33616DOD     C344669  16.870  16.963  11.718  0.0864 -0.0008 -0.2553
33617DOD     C144670   9.154  13.579  24.850 -0.1997  0.2121 -0.0819
33617DOD     C244671   9.426  13.941  24.961 -0.1952  0.0739 -0.1327
33617DOD     C344672   9.572  14.342  24.980 -0.0790  0.0294 -0.0454
33618DOD     C144673  24.012  23.542   7.661 -0.1870 -0.1871  0.1331
33618DOD     C244674  23.887  23.720   7.221 -0.0410 -0.1025  0.0017
33618DOD     C344675  23.644  23.513   6.830  0.2666  0.1368  0.0020
33619DOD     C144676  30.291   1.075  10.280 -0.1824  0.3288  0.1030
33619DOD     C244677  30.025   1.439  10.475  0.2256 -0.3245  0.2684
33619DOD     C344678  29.861   1.595  10.892 -0.0815  0.0054  0.0572
33620DOD     C144679   0.907  10.379  12.772 -0.1303 -0.0116 -0.1438
33620DOD     C244680   0.646  10.273  12.418 -0.2291 -0.0068  0.1276
33620DOD     C344681   0.765   9.986  12.100 -0.2259  0.1814 -0.3027
33621DOD     C144682   9.805  15.443  21.957  0.2165 -0.3874 -0.2335
33621DOD     C244683  10.193  15.303  21.843  0.1001 -0.0868 -0.0333
33621DOD     C344684  10.345  15.269  21.436  0.1920  0.0117  0.0693
33622DOD     C144685   3.783  17.418  10.777 -0.0670  0.2895  0.1847
33622DOD     C244686   4.143  17.443  10.488  0.2632  0.1059  0.2555
33622DOD     C344687   4.575  17.441  10.490  0.4214  0.2701 -0.0102
33623DOD     C144688  15.873   3.507  12.328 -0.0939 -0.3442 -0.1197
33623DOD     C244689  15.918   3.632  11.871 -0.3147  0.1843 -0.1949
33623DOD     C344690  16.066   3.523  11.434 -0.3061  0.1774  0.0352
33624DOD     C144691  23.814   5.377   9.656 -0.2408 -0.3296  0.2670
33624DOD     C244692  23.570   5.023   9.719 -0.2214  0.0597  0.2423
33624DOD     C344693  23.313   4.674   9.897 -0.3020  0.0230  0.1443
33625DOD     C144694  28.404  17.093   0.120 -0.0531  0.1869 -0.2618
33625DOD     C244695  28.324  17.420  30.090  0.4387 -0.0989 -0.0565
33625DOD     C344696  28.302  17.900  30.015 -0.0836 -0.0621 -0.0607
33626DOD     C144697   9.129  20.512  17.845  0.1519  0.2994 -0.1707
33626DOD     C244698   8.736  20.309  17.785  0.0057  0.2024 -0.0684
33626DOD     C344699   8.420  20.373  18.152  0.0252 -0.1941 -0.2708
33627DOD     C144700  15.765  25.931  15.337 -0.2855 -0.0094  0.1935
33627DOD     C244701  15.823  25.441  15.305 -0.1660 -0.2230 -0.0334
33627DOD     C344702  16.026  25.026  15.230  0.0528 -0.0154 -0.1396
33628DOD     C144703  21.539   9.921  12.442  0.1346 -0.0245 -0.0542
33628DOD     C244704  21.575  10.107  12.834 -0.0310 -0.1140 -0.0216
33628DOD     C344705  21.871  10.104  13.168 -0.2239 -0.0530  0.2231
33629DOD     C144706   8.074  12.424   2.781 -0.1269  0.1412  0.1644
33629DOD     C244707   8.333  12.711   2.526 -0.1717  0.1026 -0.0846
33629DOD     C344708   8.729  12.837   2.209 -0.0285 -0.2835  0.0626
33630DOD     C144709  10.800  19.996  15.632  0.1808 -0.1351  0.1250
33630DOD     C244710  10.395  19.858  15.789  0.0542 -0.0156 -0.0079
33630DOD     C344711  10.072  19.837  16.042  0.0862  0.0935 -0.0108
33631DOD     C144712   6.376   6.012  26.114  0.1619  0.1123 -0.1847
33631DOD     C244713   6.525   5.642  26.365 -0.0110  0.0137  0.1897
33631DOD     C344714   6.527   5.236  26.654 -0.0789  0.0451 -0.0722
33632DOD     C144715   8.189  17.612   0.959  0.0603 -0.5351  0.1647
33632DOD     C244716   8.228  17.353   1.328  0.1017 -0.2015  0.2128
33632DOD     C344717   8.370  17.030   1.658 -0.0377 -0.0693 -0.2123
33633DOD     C144718   8.060  27.418   8.934 -0.1583  0.1714 -0.1718
33633DOD     C244719   8.022  27.584   9.397  0.1035  0.0494 -0.1152
33633DOD     C344720   8.062  27.517   9.906  0.2021 -0.3948 -0.0891
33634DOD     C144721   3.745  16.899   5.461  0.0176  0.2196  0.0226
33634DOD     C244722   3.533  16.472   5.610  0.1080 -0.1630  0.0167
33634DOD     C344723   3.483  16.041   5.568 -0.1481  0.1003 -0.1534
33635DOD     C144724  18.964  26.133   5.192 -0.0241 -0.2526 -0.1643
33635DOD     C244725  19.246  25.796   4.896 -0.1828 -0.4380 -0.0018
33635DOD     C344726  19.377  25.327   4.859  0.0690  0.1117  0.1261
33636DOD     C144727  19.606  13.016  26.452  0.2734  0.1034 -0.0533
33636DOD     C244728  19.326  12.701  26.734 -0.1363 -0.2060  0.2332
33636DOD     C344729  19.038  12.538  27.091  0.1783 -0.1120 -0.1472
33637DOD     C144730  12.343   3.218  16.751 -0.1807 -0.1667 -0.1018
33637DOD     C244731  11.965   3.112  16.941 -0.0116  0.0149 -0.1313
33637DOD     C344732  11.597   2.884  17.135 -0.2059  0.2145  0.0678
33638DOD     C144733  12.457  19.460  19.252  0.1183 -0.0705  0.0407
33638DOD     C244734  12.579  19.144  19.541 -0.2371  0.0466  0.1217
33638DOD     C344735  12.735  18.836  19.843  0.0362  0.0374  0.0788
33639DOD     C144736  24.934   2.268  24.116  0.0206  0.1245 -0.1524
33639DOD     C244737  25.251   2.525  24.114  0.4440 -0.2452  0.0124
33639DOD     C344738  25.509   2.800  24.312 -0.2462 -0.1960  0.1665
33640DOD     C144739  19.744   6.731  20.368  0.2544  0.3544  0.0638
33640DOD     C244740  19.617   7.085  20.150 -0.2224 -0.0704  0.1007
33640DOD     C344741  19.778   7.550  20.226  0.2464  0.0220 -0.0772
33641DOD     C144742  27.645   1.434   5.478 -0.1883  0.0201 -0.1523
33641DOD     C244743  27.254   1.241   5.223 -0.1680 -0.1754  0.1853
33641DOD     C344744  27.015   1.354   4.829  0.0084 -0.1153 -0.1074
33642DOD     C144745  11.402  19.380   7.289 -0.1841  0.1979  0.1377
33642DOD     C244746  11.288  19.236   7.690 -0.0249  0.1368  0.0784
33642DOD     C344747  11.184  18.810   7.968  0.0130  0.0861  0.1332
33643DOD     C144748  10.666  17.545  16.265 -0.1893  0.1409 -0.1473
33643DOD     C244749  10.622  17.966  16.319 -0.1618  0.0514 -0.4290
33643DOD     C344750  10.796  18.261  16.686  0.1094 -0.0572  0.3225
33644DOD     C144751  28.627  18.793  25.093  0.0659  0.0175  0.0648
33644DOD     C244752  28.930  19.090  24.933  0.0690  0.1900  0.2098
33644DOD     C344753  29.391  19.048  24.953  0.1076 -0.0927  0.2340
33645DOD     C144754  19.660  12.134   8.694  0.0552 -0.2245  0.1693
33645DOD     C244755  19.827  11.724   8.650  0.0799 -0.1290 -0.0165
33645DOD     C344756  20.082  11.369   8.542 -0.1863 -0.0643 -0.0214
33646DOD     C144757   5.081  29.745   9.512 -0.0993 -0.0482  0.1821
33646DOD     C244758   5.158  29.346   9.647  0.1240 -0.5558 -0.1292
33646DOD     C344759   5.537  29.210   9.841 -0.1201  0.0135  0.0030
33647DOD     C144760  19.865  28.967   9.071 -0.1215  0.0331  0.1080
33647DOD     C244761  19.483  28.748   8.897  0.2055 -0.3426 -0.2114
33647DOD     C344762  19.487  28.369   8.654 -0.2018  0.0344  0.2537
33648DOD     C144763   6.897  28.937  15.783 -0.2201 -0.2779 -0.0784
33648DOD     C244764   6.727  29.078  16.180  0.1279 -0.4200  0.2013
33648DOD     C344765   6.819  29.115  16.654  0.0002 -0.2315  0.2390
33649DOD     C144766  15.564  18.589  24.727 -0.1539  0.1037  0.1452
33649DOD     C244767  15.527  19.011  24.726 -0.0290 -0.0296  0.2595
33649DOD     C344768  15.472  19.317  25.055 -0.0299  0.2377 -0.2970
33650DOD     C144769  15.273  11.482  20.847 -0.0964  0.1649 -0.1789
33650DOD     C244770  15.283  11.113  20.605 -0.0355 -0.0107  0.0018
33650DOD     C344771  15.039  11.090  20.188  0.2387  0.0762 -0.1645
33651DOD     C144772   7.612  15.262  18.535 -0.1222  0.2197  0.2505
33651DOD     C244773   7.969  15.453  18.249  0.2174 -0.0879 -0.1438
33651DOD     C344774   8.231  15.764  18.487  0.0141  0.2394 -0.0031
33652DOD     C144775   9.248  22.213   2.005  0.2559  0.0390  0.3218
33652DOD     C244776   9.198  21.802   1.725 -0.3550  0.0746  0.0749
33652DOD     C344777   9.112  21.475   1.394  0.1871  0.1628  0.2550
33653DOD     C144778  28.812   9.255  12.269  0.0002 -0.3563 -0.1970
33653DOD     C244779  29.243   8.978  12.321  0.1731  0.2716 -0.1863
33653DOD     C344780  29.694   8.932  12.213 -0.2555  0.2526 -0.1763
33654DOD     C144781  18.644   1.207   0.105 -0.2266 -0.0355  0.1139
33654DOD     C244782  18.376   0.839   0.114  0.1270 -0.1410  0.2047
33654DOD     C344783  18.316   0.406   0.105 -0.0467 -0.2467 -0.0835
33655DOD     C144784  13.435   4.373  22.268  0.1274 -0.1144  0.1680
33655DOD     C244785  13.324   4.137  22.645 -0.1006 -0.0331  0.1513
33655DOD     C344786  13.134   3.892  22.975  0.2628 -0.1311 -0.1032
33656DOD     C144787  26.987  21.564  18.015  0.0067 -0.0370  0.3257
33656DOD     C244788  27.002  21.929  17.721  0.1105 -0.0964  0.2190
33656DOD     C344789  27.101  21.966  17.254 -0.1109  0.0653  0.1830
33657DOD     C144790  12.920  13.881   3.413  0.1618  0.3121 -0.0552
33657DOD     C244791  12.526  14.166   3.527 -0.1104 -0.0567 -0.0023
33657DOD     C344792  12.319  14.408   3.294 -0.0411  0.0923 -0.1109
33658DOD     C144793  27.547  12.297  23.980 -0.1557 -0.3034 -0.0553
33658DOD     C244794  27.562  12.766  24.156  0.0432  0.0089 -0.3529
33658DOD     C344795  27.599  13.151  24.276  0.1525  0.1019  0.0330
33659DOD     C144796   8.793   6.251  16.123 -0.2339 -0.2538 -0.0562
33659DOD     C244797   8.944   6.392  16.557 -0.0880  0.1713 -0.0615
33659DOD     C344798   9.054   6.633  16.999 -0.1171 -0.0197 -0.3503
33660DOD     C144799  14.657  19.314  19.447  0.1984  0.3448  0.1350
33660DOD     C244800  14.822  19.234  18.989 -0.0379 -0.0612  0.1971
33660DOD     C344801  14.865  19.048  18.587 -0.2118  0.0418  0.0302
33661DOD     C144802   6.539   0.144  13.190 -0.0742  0.0024  0.0796
33661DOD     C244803   6.980   0.321  13.250 -0.0738 -0.0916 -0.1454
33661DOD     C344804   7.133   0.747  13.393 -0.1471 -0.1878  0.0299
33662DOD     C144805  24.211   3.627  21.410 -0.1975  0.0378 -0.0926
33662DOD     C244806  24.511   3.823  21.066  0.0116 -0.0826 -0.0511
33662DOD     C344807  24.657   3.728  20.642  0.2204 -0.1270 -0.1195
33663DOD     C144808  28.289  12.196  11.783  0.1103  0.0598 -0.3401
33663DOD     C244809  28.188  12.210  11.331  0.2393  0.2206 -0.0778
33663DOD     C344810  28.449  12.021  11.048  0.1879 -0.1458  0.1407
33664DOD     C144811  24.641   0.525   7.054  0.2315  0.1768  0.1293
33664DOD     C244812  24.998   0.629   7.329  0.0180  0.0641  0.1786
33664DOD     C344813  25.290   0.516   7.645 -0.0225 -0.0080 -0.2171
33665DOD     C144814  16.947  10.764  14.053 -0.0304 -0.3970  0.0581
33665DOD     C244815  16.522  10.896  14.124  0.0411 -0.2132  0.2744
33665DOD     C344816  16.075  10.984  14.149 -0.1081 -0.1643 -0.3334
33666DOD     C144817  11.051   8.133  23.919 -0.0199 -0.0250 -0.0514
33666DOD     C244818  11.343   7.831  24.113 -0.2385  0.1033  0.2255
33666DOD     C344819  11.628   7.555  24.320 -0.0350  0.2257 -0.1228
33667DOD     C144820   5.653   2.638  12.670  0.1131  0.1049 -0.0834
33667DOD     C244821   5.394   2.383  12.412  0.0248 -0.0152 -0.1240
33667DOD     C344822   5.132   2.270  12.053  0.1876 -0.1350 -0.1486
33668DOD     C144823   6.700  16.795   4.508 -0.2062 -0.2880 -0.1472
33668DOD     C244824   6.547  16.368   4.574  0.0747  0.1355  0.2674
33668DOD     C344825   6.478  15.980   4.862  0.0774  0.0066 -0.0415
33669DOD     C144826   1.274  12.955  24.419 -0.1460  0.2666  0.0764
33669DOD     C244827   1.310  12.817  24.006  0.3867 -0.0644  0.3989
33669DOD     C344828   1.143  12.482  23.648 -0.0824  0.2277 -0.0489
33670DOD     C144829  28.212  11.307  23.691 -0.0324 -0.1537  0.2582
33670DOD     C244830  28.543  11.320  23.359  0.0922  0.1912 -0.1829
33670DOD     C344831  28.753  11.477  22.960 -0.1328  0.1263  0.0357
33671DOD     C144832  18.592  26.025  27.385  0.0145 -0.2629 -0.2616
33671DOD     C244833  18.496  26.124  26.883  0.0448  0.0267 -0.0215
33671DOD     C344834  18.563  25.876  26.530  0.0005  0.1216  0.0540
33672DOD     C144835  18.300  16.523   9.891 -0.0464  0.0694 -0.0684
33672DOD     C244836  18.156  16.176   9.630  0.0907  0.1174  0.2024
33672DOD     C344837  18.339  15.776   9.510  0.0765  0.3648 -0.0530
33673DOD     C144838  13.899   6.355  19.213 -0.2729  0.0424 -0.1151
33673DOD     C244839  13.857   6.641  19.636  0.2437 -0.2666 -0.0376
33673DOD     C344840  13.859   6.825  20.087  0.0483  0.0419  0.0141
33674DOD     C144841   7.611  24.560  16.468  0.2435  0.0268  0.0568
33674DOD     C244842   7.741  24.598  16.026 -0.1714 -0.0041 -0.0562
33674DOD     C344843   7.633  24.567  15.569  0.3945 -0.1511  0.2122
33675DOD     C144844  18.047  30.288  15.914 -0.0935  0.0028  0.0599
33675DOD     C244845  17.853   0.000  15.472 -0.1233  0.0955 -0.3580
33675DOD     C344846  18.057  30.318  15.022  0.0735  0.1462 -0.0198
33676DOD     C144847  16.010  25.089  19.507  0.0857 -0.0178  0.0505
33676DOD     C244848  15.855  25.093  19.053  0.2122  0.0591 -0.2844
33676DOD     C344849  15.791  24.910  18.670 -0.1849 -0.1206  0.2575
33677DOD     C144850  13.859  17.476  24.005 -0.2208  0.3023  0.2537
33677DOD     C244851  13.800  16.990  24.073 -0.0153 -0.0829  0.5214
33677DOD     C344852  13.641  16.556  24.259  0.0047  0.0871  0.0988
33678DOD     C144853  11.008  24.765  17.985 -0.0257 -0.2557  0.0253
33678DOD     C244854  11.289  24.473  18.201  0.0119 -0.1773  0.1156
33678DOD     C344855  11.600  24.105  18.061 -0.1836 -0.2153 -0.0043
33679DOD     C144856  12.558  25.738  24.277  0.0856  0.3970  0.2704
33679DOD     C244857  12.697  26.127  24.449 -0.0430  0.2636  0.1587
33679DOD     C344858  12.968  26.351  24.730 -0.0976  0.1084 -0.2914
33680DOD     C144859   5.876  29.668  29.695 -0.0360  0.1184 -0.1915
33680DOD     C244860   5.846  29.816  30.114 -0.3606 -0.1308  0.1444
33680DOD     C344861   5.861  30.046   0.202 -0.0070 -0.1269 -0.1982
33681DOD     C144862   3.223  23.712  19.695 -0.0835 -0.0259  0.0303
33681DOD     C244863   3.082  23.851  19.253 -0.2916  0.0042 -0.0775
33681DOD     C344864   2.817  23.734  18.911 -0.0873  0.1671 -0.0938
33682DOD     C144865   3.668  28.407  17.946  0.1208  0.0150 -0.0821
33682DOD     C244866   4.034  28.548  18.236 -0.0874 -0.2248  0.1798
33682DOD     C344867   4.461  28.680  18.464  0.2921 -0.2430 -0.0235
33683DOD     C144868  12.156  29.138   5.299 -0.5017 -0.0307 -0.1416
33683DOD     C244869  12.447  29.241   5.639 -0.1378 -0.3208 -0.5661
33683DOD     C344870  12.863  29.384   5.884 -0.0603 -0.1390 -0.1004
33684DOD     C144871  10.519  11.205  16.080  0.3760 -0.1545  0.1410
33684DOD     C244872  10.778  10.953  16.406  0.0572  0.0697  0.2568
33684DOD     C344873  10.984  10.565  16.528  0.1344  0.2377 -0.4188
33685DOD     C144874  25.626  16.881   1.144 -0.0965 -0.0773  0.1629
33685DOD     C244875  25.911  16.513   1.199 -0.0420  0.1985  0.0663
33685DOD     C344876  26.069  16.100   1.305  0.0269 -0.1967  0.2843
33686DOD     C144877  24.208  18.849  14.320  0.1467  0.1472 -0.0387
33686DOD     C244878  24.050  18.866  13.898 -0.2495  0.1568 -0.3107
33686DOD     C344879  24.018  19.047  13.462  0.0682  0.0809  0.3383
33687DOD     C144880  12.320   9.176  13.220  0.0298 -0.0075 -0.0109
33687DOD     C244881  12.351   9.439  13.624  0.0816 -0.3827 -0.2503
33687DOD     C344882  12.476   9.554  14.086  0.1594 -0.0467  0.0642
33688DOD     C144883   4.539  14.425   3.274  0.1270  0.0803  0.0266
33688DOD     C244884   4.259  14.128   3.512  0.0053  0.0095  0.0215
33688DOD     C344885   4.035  13.726   3.689 -0.0020 -0.1187 -0.0686
33689DOD     C144886   6.155  13.708  26.072  0.0008  0.0492 -0.0601
33689DOD     C244887   6.360  14.059  26.208  0.0489  0.0156 -0.0943
33689DOD     C344888   6.782  14.228  26.466  0.1425 -0.4079  0.0057
33690DOD     C144889  25.659  24.588  17.097 -0.1964  0.0110 -0.0987
33690DOD     C244890  25.376  24.414  16.787 -0.2132  0.3272  0.1780
33690DOD     C344891  25.180  24.424  16.390  0.1474  0.0075 -0.1486
33691DOD     C144892   4.773  24.315   6.435  0.1957  0.3595  0.4050
33691DOD     C244893   4.880  24.772   6.354 -0.0248 -0.0299  0.0813
33691DOD     C344894   4.857  25.251   6.459 -0.0274  0.1814 -0.0658
33692DOD     C144895  18.768  22.947   7.738  0.0341  0.2245 -0.2989
33692DOD     C244896  19.146  22.757   7.568 -0.1087 -0.0451 -0.2028
33692DOD     C344897  19.513  22.524   7.667 -0.1094 -0.0299  0.0829
33693DOD     C144898   6.052   1.519  15.495 -0.0548  0.1216  0.2042
33693DOD     C244899   5.673   1.450  15.743 -0.1011 -0.3023 -0.1626
33693DOD     C344900   5.200   1.322  15.709 -0.0049  0.2109 -0.0090
33694DOD     C144901   1.980   6.156  29.331  0.0579  0.0842  0.0865
33694DOD     C244902   2.388   5.867  29.273 -0.2346 -0.2663  0.0506
33694DOD     C344903   2.849   5.822  29.117  0.0723  0.3228 -0.0346
33695DOD     C144904  19.801  14.224   1.995  0.1021  0.0985 -0.1379
33695DOD     C244905  19.610  14.128   2.458  0.1561  0.0255 -0.0395
33695DOD     C344906  19.441  14.310   2.854 -0.4316 -0.2771  0.1749
33696DOD     C144907   9.395   9.886  26.072 -0.1934 -0.2369 -0.0712
33696DOD     C244908   8.955   9.848  26.159 -0.1535 -0.1430  0.1184
33696DOD     C344909   8.581   9.878  26.406 -0.0794  0.0138 -0.0175
33697DOD     C144910  15.038  23.022  25.668  0.1621  0.1543 -0.1284
33697DOD     C244911  15.230  23.496  25.626  0.2862 -0.2740 -0.1318
33697DOD     C344912  15.326  23.895  25.890 -0.0817  0.0666  0.0995
33698DOD     C144913   5.118  13.352   4.767 -0.0914  0.1044 -0.0667
33698DOD     C244914   4.935  12.906   4.878 -0.2443 -0.0482 -0.0640
33698DOD     C344915   4.835  12.630   5.265 -0.0976  0.1744 -0.4446
33699DOD     C144916  30.209  18.792  21.123 -0.2935  0.3618 -0.1854
33699DOD     C244917   0.144  19.157  21.105  0.0766 -0.1394  0.4570
33699DOD     C344918   0.061  19.570  21.292 -0.3964 -0.2367 -0.1305
33700DOD     C144919   2.401   3.568   6.318 -0.0324  0.0925 -0.1993
33700DOD     C244920   2.540   3.154   6.518  0.1704 -0.0359  0.1983
33700DOD     C344921   2.813   2.841   6.529 -0.0441 -0.1829  0.0276
33701DOD     C144922  27.938  14.475   0.294 -0.2335  0.1317 -0.2101
33701DOD     C244923  28.196  14.716   0.575 -0.1085  0.2217  0.0617
33701DOD     C344924  28.340  14.495   0.953  0.0979 -0.0393  0.0397
33702DOD     C144925  10.187   0.436  26.599 -0.3347 -0.3388  0.0716
33702DOD     C244926   9.850   0.770  26.566  0.0503 -0.0673 -0.1268
33702DOD     C344927   9.831   1.219  26.657 -0.0621  0.4040  0.1179
33703DOD     C144928   5.750   4.643  19.018  0.3428  0.4472  0.0919
33703DOD     C244929   5.369   4.738  18.783  0.0325 -0.0174  0.1365
33703DOD     C344930   4.999   5.069  18.774 -0.4542 -0.1008  0.1855
33704DOD     C144931   2.610   2.508  12.106 -0.5802 -0.0871  0.0205
33704DOD     C244932   2.902   2.156  12.308  0.3326  0.0590  0.0905
33704DOD     C344933   3.107   1.779  12.127  0.0416  0.0491  0.0865
33705DOD     C144934  16.500  28.559  12.756 -0.0292 -0.2454 -0.0134
33705DOD     C244935  16.602  28.286  12.404  0.0496  0.0342 -0.1182
33705DOD     C344936  16.670  28.349  11.961  0.3301  0.1189 -0.1267
33706DOD     C144937   5.696   6.757  13.681  0.2785 -0.1727 -0.1026
33706DOD     C244938   5.861   7.017  13.996 -0.0299 -0.3860  0.1013
33706DOD     C344939   5.967   7.483  14.002 -0.3492  0.0380 -0.0326
33707DOD     C144940  23.772   8.797  11.189  0.0613 -0.0168 -0.1407
33707DOD     C244941  23.871   8.379  11.330  0.2501  0.2368 -0.2049
33707DOD     C344942  23.875   7.983  11.583  0.0091  0.0615  0.1329
33708DOD     C144943  13.389   0.451  21.684 -0.0762  0.0600  0.2834
33708DOD     C244944  13.363   0.903  21.516 -0.3473  0.3042  0.1456
33708DOD     C344945  13.033   1.118  21.269  0.1759  0.1571 -0.2692
33709DOD     C144946   4.481  25.846   7.268 -0.2714  0.2312 -0.0083
33709DOD     C244947   4.667  26.100   6.918 -0.3050  0.2692  0.2656
33709DOD     C344948   4.857  26.286   6.528 -0.0373  0.1561  0.2160
33710DOD     C144949  21.136   7.643  29.278 -0.0324  0.4324 -0.3121
33710DOD     C244950  21.453   7.258  29.241 -0.1369 -0.0355  0.1041
33710DOD     C344951  21.633   6.902  29.513  0.0502 -0.1695  0.0441
33711DOD     C144952  26.632  24.868  19.583 -0.1147 -0.0064  0.1529
33711DOD     C244953  26.563  24.387  19.689 -0.0411  0.1777  0.0007
33711DOD     C344954  26.469  23.958  19.779  0.0842  0.0350  0.2293
33712DOD     C144955  19.101  16.220   7.085  0.2783 -0.0244 -0.0840
33712DOD     C244956  18.674  16.227   6.882 -0.4653 -0.1115 -0.2177
33712DOD     C344957  18.486  16.422   6.529 -0.0335  0.4591  0.2725
33713DOD     C144958   7.318  11.498  14.922 -0.0866 -0.0179 -0.1537
33713DOD     C244959   7.344  10.995  14.969 -0.2099  0.0081  0.3040
33713DOD     C344960   7.419  10.544  14.959  0.2042  0.2348  0.0166
33714DOD     C144961   3.933  27.474  15.468  0.3856  0.2234  0.0313
33714DOD     C244962   3.844  27.919  15.523  0.0350  0.3912  0.1076
33714DOD     C344963   4.200  28.263  15.481  0.5515 -0.0506 -0.0165
33715DOD     C144964  21.857  29.120  28.326 -0.1086  0.3874  0.0388
33715DOD     C244965  21.942  29.006  28.776 -0.1406  0.1470 -0.5111
33715DOD     C344966  22.076  29.044  29.274 -0.0066 -0.0944 -0.2254
33716DOD     C144967   1.700  12.972  15.486  0.0222 -0.1150 -0.0594
33716DOD     C244968   2.102  12.885  15.399  0.2006  0.2072  0.3063
33716DOD     C344969   2.392  12.484  15.437  0.0991 -0.0478  0.0835
33717DOD     C144970  11.757  26.692  21.405  0.1909 -0.1386 -0.1293
33717DOD     C244971  11.329  26.550  21.574  0.1376 -0.0564  0.0139
33717DOD     C344972  10.839  26.516  21.489  0.0701  0.0035  0.0002
33718DOD     C144973   5.115   2.191   7.801 -0.0485  0.1570 -0.2381
33718DOD     C244974   5.240   2.472   7.439  0.0543  0.0607 -0.1575
33718DOD     C344975   5.642   2.713   7.392 -0.1075  0.2678  0.1847
33719DOD     C144976   2.444  26.481  17.334 -0.0524  0.2271  0.0775
33719DOD     C244977   2.032  26.684  17.436 -0.3343  0.0925  0.0676
33719DOD     C344978   1.825  27.121  17.509 -0.1921 -0.0811  0.0011
33720DOD     C144979  15.655   7.028  16.563 -0.1408 -0.0973 -0.1664
33720DOD     C244980  15.628   6.628  16.324 -0.1387  0.1598  0.0904
33720DOD     C344981  15.752   6.164  16.141  0.0951 -0.0129 -0.0894
33721DOD     C144982  25.478  12.823  19.670  0.1575 -0.1429 -0.0177
33721DOD     C244983  25.584  12.399  19.539 -0.3410  0.0312 -0.0146
33721DOD     C344984  25.859  12.063  19.397  0.1027 -0.0331  0.0907
33722DOD     C144985   1.508  27.156  27.248 -0.2073 -0.1205 -0.1182
33722DOD     C244986   1.735  27.454  27.536  0.0869 -0.1389 -0.1444
33722DOD     C344987   1.724  27.894  27.749  0.0323 -0.3270 -0.0153
33723DOD     C144988  16.324  23.326  22.790 -0.0035  0.4524 -0.2434
33723DOD     C244989  16.161  23.210  23.187  0.0700 -0.0112  0.3893
33723DOD     C344990  15.999  23.151  23.581 -0.0386  0.0089 -0.0482
33724DOD     C144991   5.150   9.486   2.685  0.1959 -0.2498 -0.2653
33724DOD     C244992   5.403   9.221   2.946  0.2160  0.1603 -0.0689
33724DOD     C344993   5.715   8.908   2.828 -0.0523  0.0290 -0.1966
33725DOD     C144994  10.934  24.592  21.364  0.0444  0.0883  0.1762
33725DOD     C244995  10.749  24.208  21.535  0.1227  0.1684  0.0169
33725DOD     C344996  10.606  23.843  21.804  0.2975  0.1810 -0.0750
33726DOD     C144997   6.955  25.509  25.983  0.1008 -0.1543  0.1360
33726DOD     C244998   6.680  25.882  25.872 -0.2023 -0.3498 -0.0719
33726DOD     C344999   6.360  26.228  26.079 -0.2142  0.0543 -0.1326
33727DOD     C145000   9.526  26.881  14.822 -0.0125  0.3923 -0.0645
33727DOD     C245001   9.918  27.188  14.763  0.1549 -0.2902 -0.0606
33727DOD     C345002  10.092  27.566  14.562  0.0933  0.0113  0.2982
33728DOD     C145003  17.768  16.492  16.514 -0.0966 -0.3746 -0.0836
33728DOD     C245004  17.703  16.125  16.778  0.4016 -0.2733 -0.0549
33728DOD     C345005  17.525  15.712  16.940 -0.2397 -0.2044  0.1450
33729DOD     C145006  24.010   2.697   0.942  0.0654  0.0016  0.0832
33729DOD     C245007  24.396   2.925   0.864 -0.1890 -0.1313  0.0545
33729DOD     C345008  24.848   2.810   0.880 -0.1599 -0.0452  0.1680
33730DOD     C145009  24.927   9.367  14.933  0.2281 -0.1094 -0.2414
33730DOD     C245010  24.855   9.608  14.529  0.1503  0.1533 -0.2202
33730DOD     C345011  24.909   9.760  14.143  0.2017 -0.2915  0.2937
33731DOD     C145012   1.822  26.354  22.861  0.0994 -0.1642  0.1283
33731DOD     C245013   2.189  26.174  22.715 -0.2891  0.0122  0.2390
33731DOD     C345014   2.581  26.052  22.498  0.1386 -0.2114  0.0565
33732DOD     C145015  10.497  12.509  20.744  0.3454 -0.0107 -0.0378
33732DOD     C245016  10.448  12.285  20.378 -0.0014  0.1433 -0.2846
33732DOD     C345017  10.203  12.193  19.965 -0.0163  0.1159 -0.1940
33733DOD     C145018  22.579  29.878   4.642 -0.1372  0.2612  0.0516
33733DOD     C245019  22.978  29.817   4.842  0.1716 -0.1716  0.1623
33733DOD     C345020  23.175  29.905   5.206 -0.3995 -0.0383  0.2063
33734DOD     C145021  27.713  16.269  22.541  0.1294  0.0743 -0.3102
33734DOD     C245022  27.643  16.664  22.777 -0.1593  0.0303  0.0515
33734DOD     C345023  27.407  16.886  23.077 -0.1777  0.0920 -0.1644
33735DOD     C145024  26.160  26.978  25.558 -0.2781 -0.0696  0.3095
33735DOD     C245025  26.631  27.135  25.559 -0.0438 -0.0892  0.1043
33735DOD     C345026  26.887  27.412  25.292  0.1071  0.0537 -0.2194
33736DOD     C145027   2.308  24.426  26.108  0.1973  0.0622  0.1782
33736DOD     C245028   2.228  24.826  25.932  0.0661  0.1668 -0.3244
33736DOD     C345029   2.129  25.292  25.759 -0.0254 -0.1704 -0.1137
33737DOD     C145030  18.834  14.058   7.108  0.0615 -0.0472 -0.2838
33737DOD     C245031  19.145  13.818   6.891 -0.0202 -0.0391 -0.3060
33737DOD     C345032  19.319  13.451   6.757 -0.0511 -0.1294  0.1590
33738DOD     C145033   1.806  23.888  15.940  0.1745 -0.1495  0.0735
33738DOD     C245034   1.998  24.257  16.097  0.1163 -0.0673  0.1907
33738DOD     C345035   2.161  24.673  16.241 -0.0963  0.3896 -0.1159
33739DOD     C145036  29.753  15.043  20.166 -0.1495  0.0177  0.2467
33739DOD     C245037  29.987  15.365  19.939  0.2263 -0.2036 -0.3594
33739DOD     C345038  30.056  15.663  19.602  0.0188 -0.0131  0.2453
33740DOD     C145039  26.474  28.743  29.256  0.3501  0.2247  0.1558
33740DOD     C245040  26.849  28.843  29.342 -0.1184 -0.1592 -0.3816
33740DOD     C345041  27.306  28.671  29.278  0.1648  0.1105  0.4027
33741DOD     C145042  28.962  28.724  27.978 -0.1429 -0.3222  0.0777
33741DOD     C245043  29.287  28.499  28.186 -0.0351 -0.2844 -0.1972
33741DOD     C345044  29.675  28.659  28.439 -0.0111  0.0538  0.1251
33742DOD     C145045   6.120  26.378  16.728  0.0427  0.0954 -0.1665
33742DOD     C245046   6.334  26.481  16.290 -0.1297  0.2672 -0.0178
33742DOD     C345047   6.313  26.584  15.835 -0.0211  0.0055  0.1914
33743DOD     C145048   5.340  21.181  12.698 -0.2826 -0.4012 -0.1180
33743DOD     C245049   5.346  21.405  13.089  0.1796 -0.1608  0.0482
33743DOD     C345050   5.358  21.823  13.316 -0.0299  0.0651 -0.1514
33744DOD     C145051   3.556  25.549  17.080 -0.2915 -0.2079  0.2250
33744DOD     C245052   3.929  25.746  16.813  0.0519 -0.1789 -0.2003
33744DOD     C345053   4.113  25.702  16.393 -0.1837 -0.1541  0.3259
33745DOD     C145054   1.514  13.704  16.761  0.1709  0.2912 -0.1162
33745DOD     C245055   1.637  13.281  16.629 -0.0492  0.0212 -0.0616
33745DOD     C345056   1.741  12.835  16.759  0.1877  0.3390  0.2658
33746DOD     C145057  11.070   6.584  20.101  0.0106 -0.0708 -0.4120
33746DOD     C245058  10.607   6.663  20.289  0.0631 -0.0912 -0.3490
33746DOD     C345059  10.324   7.028  20.274 -0.2422 -0.1894 -0.1390
33747DOD     C145060   1.875   3.844   5.159 -0.2512  0.1824  0.0205
33747DOD     C245061   1.989   3.473   4.846 -0.1213  0.2531 -0.3739
33747DOD     C345062   2.357   3.164   4.828  0.0211 -0.2832  0.2407
33748DOD     C145063   0.350   8.079  10.877 -0.2929  0.1613  0.1137
33748DOD     C245064   0.136   8.365  10.566  0.0976 -0.0127  0.0413
33748DOD     C345065   0.223   8.702  10.209 -0.0048  0.1746  0.1875
33749DOD     C145066   0.019  26.673  13.569 -0.0710  0.0229 -0.0230
33749DOD     C245067   0.214  26.644  13.995 -0.3725 -0.0196 -0.2214
33749DOD     C345068   0.591  26.715  14.355 -0.0660  0.3662  0.1705
33750DOD     C145069  19.082  22.572  23.648  0.0937 -0.4439  0.3106
33750DOD     C245070  19.218  22.987  23.392 -0.0111  0.1576  0.2896
33750DOD     C345071  19.286  23.308  23.049  0.0371 -0.1379 -0.0653
33751DOD     C145072  12.384  19.843  22.522 -0.3692 -0.2289 -0.1651
33751DOD     C245073  12.100  19.485  22.542  0.1166  0.3335  0.0126
33751DOD     C345074  11.608  19.431  22.468 -0.3539  0.3786  0.5005
33752DOD     C145075  25.181  10.644  15.497 -0.1457 -0.2649 -0.0574
33752DOD     C245076  25.366  10.681  15.953  0.0963  0.2061 -0.0215
33752DOD     C345077  25.665  10.827  16.314  0.3699 -0.2831 -0.1600
33753DOD     C145078   1.875  21.144   7.403  0.2154  0.1208 -0.1721
33753DOD     C245079   1.594  21.263   7.745  0.0449  0.2916 -0.1770
33753DOD     C345080   1.470  21.377   8.188 -0.2233  0.1186 -0.0513
33754DOD     C145081  14.475  29.851   4.552  0.3492  0.0442  0.1005
33754DOD     C245082  14.580  30.110   4.902 -0.3388 -0.1595 -0.1081
33754DOD     C345083  14.439  30.303   5.310  0.0817  0.1577 -0.2192
33755DOD     C145084  24.269  22.544  18.169  0.1034 -0.0999 -0.1518
33755DOD     C245085  23.909  22.808  18.002 -0.2674  0.0285 -0.2337
33755DOD     C345086  23.640  23.162  18.029  0.1395  0.0117  0.1381
33756DOD     C145087  19.572   7.359  19.144  0.3896 -0.2455 -0.0304
33756DOD     C245088  19.731   7.480  18.711 -0.0328 -0.0586 -0.1611
33756DOD     C345089  19.756   7.574  18.275 -0.2279 -0.0396  0.2397
33757DOD     C145090  27.390  26.190  23.293  0.2439 -0.1433  0.0855
33757DOD     C245091  27.124  26.420  23.047 -0.0141  0.1967 -0.0011
33757DOD     C345092  26.728  26.516  22.847  0.2247  0.0151  0.0843
33758DOD     C145093  14.446  21.358  29.308  0.1249  0.0901  0.0576
33758DOD     C245094  14.356  21.844  29.499  0.0463  0.4858 -0.3429
33758DOD     C345095  14.438  22.150  29.777 -0.0024  0.0780 -0.0721
33759DOD     C145096   8.722  27.479   4.404 -0.1089 -0.1929  0.1182
33759DOD     C245097   9.036  27.354   4.720 -0.2419 -0.1187  0.0822
33759DOD     C345098   9.349  27.181   4.986  0.1450 -0.0810  0.0312
33760DOD     C145099  26.925  13.662  19.985  0.0657  0.1450  0.1049
33760DOD     C245100  26.497  13.483  20.118 -0.0140 -0.0557 -0.1640
33760DOD     C345101  26.076  13.347  20.098 -0.0386 -0.1745  0.4734
33761DOD     C145102  16.494   2.588  27.244 -0.1657 -0.2081 -0.0473
33761DOD     C245103  16.054   2.396  27.270 -0.3293  0.1073 -0.0566
33761DOD     C345104  15.937   2.035  27.503  0.0654  0.2752 -0.3053
33762DOD     C145105  10.779  17.975  21.858  0.3019  0.0321 -0.0285
33762DOD     C245106  10.443  18.339  21.768 -0.1101  0.2233 -0.3347
33762DOD     C345107  10.361  18.755  21.569  0.0980 -0.0495 -0.1707
33763DOD     C145108   2.272  25.387  29.544  0.0853  0.2135 -0.0342
33763DOD     C245109   1.880  25.452  29.848  0.0048  0.2493 -0.3769
33763DOD     C345110   1.687  25.552  30.279  0.2018  0.0014  0.0632
33764DOD     C145111  22.857  11.161   7.239  0.2979 -0.0581 -0.1089
33764DOD     C245112  22.494  11.127   7.515 -0.0640  0.2802 -0.0845
33764DOD     C345113  22.032  11.237   7.584 -0.0446  0.3746 -0.1861
33765DOD     C145114   4.473  13.544   3.534 -0.1772  0.0123 -0.2789
33765DOD     C245115   4.706  13.899   3.324 -0.4839 -0.1049 -0.1505
33765DOD     C345116   4.586  14.064   2.898 -0.0040  0.0823  0.3363
33766DOD     C145117  21.887   2.417  10.872 -0.0913 -0.2037 -0.0396
33766DOD     C245118  21.560   2.832  11.005 -0.0519  0.0295 -0.1791
33766DOD     C345119  21.193   2.948  11.202  0.2290 -0.1985  0.0589
33767DOD     C145120  24.779  12.739  14.378  0.1850 -0.2447 -0.2997
33767DOD     C245121  24.618  13.037  14.669  0.1616 -0.1876 -0.0896
33767DOD     C345122  24.728  13.125  15.107 -0.2160  0.0517 -0.0667
33768DOD     C145123   9.495  11.739  23.526  0.1153 -0.0500 -0.1635
33768DOD     C245124   9.734  11.751  23.081 -0.1672 -0.3148  0.1717
33768DOD     C345125   9.927  11.441  22.771  0.0989 -0.1121  0.0975
33769DOD     C145126  18.303  28.830   4.785  0.0180  0.1063  0.1016
33769DOD     C245127  18.156  29.215   4.572  0.2361  0.1556 -0.3263
33769DOD     C345128  17.948  29.630   4.467 -0.3090 -0.1461  0.0464
33770DOD     C145129   1.611  17.905   4.697 -0.1123  0.3287  0.1700
33770DOD     C245130   2.015  17.713   4.961  0.1873  0.0444 -0.1228
33770DOD     C345131   2.418  17.505   5.146  0.0054 -0.3013  0.0475
33771DOD     C145132   0.996  16.825  21.157  0.0967 -0.2563 -0.1894
33771DOD     C245133   1.484  16.847  21.146  0.0511  0.0249 -0.3120
33771DOD     C345134   1.782  16.631  20.897  0.1745  0.1458  0.2063
33772DOD     C145135   8.621  15.861  14.108  0.1708 -0.0961 -0.1693
33772DOD     C245136   8.462  16.173  13.904 -0.0702  0.0802 -0.0145
33772DOD     C345137   8.368  16.580  13.924  0.2796 -0.0561  0.0498
33773DOD     C145138   9.330  11.850   7.882 -0.2331 -0.1880 -0.0940
33773DOD     C245139   9.726  11.980   8.027 -0.2117 -0.2062 -0.1038
33773DOD     C345140  10.092  11.754   8.154 -0.1815  0.0810 -0.2947
33774DOD     C145141  27.681  15.349  24.909  0.0662 -0.1337 -0.2010
33774DOD     C245142  27.941  15.673  25.060  0.0560  0.4217  0.3118
33774DOD     C345143  28.299  15.763  25.303 -0.1393  0.0818  0.0045
33775DOD     C145144   1.537   9.484  22.277 -0.0186 -0.2586 -0.1474
33775DOD     C245145   1.971   9.707  22.319  0.0958  0.2022  0.1392
33775DOD     C345146   2.296   9.762  22.007  0.3125 -0.0293  0.0008
33776DOD     C145147  29.451   6.034   2.228  0.2106  0.1585 -0.2652
33776DOD     C245148  29.260   5.620   2.408 -0.2279 -0.1331  0.2847
33776DOD     C345149  28.919   5.356   2.561 -0.0919  0.1692 -0.1747
33777DOD     C145150  21.921  18.779   1.861 -0.1231 -0.1405  0.1338
33777DOD     C245151  21.862  18.845   1.431  0.1199 -0.1663 -0.1405
33777DOD     C345152  22.002  19.137   1.088  0.1869 -0.1419  0.0776
33778DOD     C145153  22.625   1.957  13.848  0.0041 -0.0919 -0.0430
33778DOD     C245154  22.539   1.933  14.307  0.0545  0.1253  0.1105
33778DOD     C345155  22.367   1.795  14.743  0.1337 -0.0452  0.3095
33779DOD     C145156  28.546   1.266  24.854  0.0137 -0.1004 -0.1534
33779DOD     C245157  28.583   0.818  24.917  0.0567 -0.0046  0.0239
33779DOD     C345158  28.339   0.416  24.763 -0.0449 -0.1810 -0.0806
33780DOD     C145159   6.347  28.694  15.943 -0.1148  0.0322 -0.3484
33780DOD     C245160   6.235  29.069  16.166  0.3151  0.0357  0.0588
33780DOD     C345161   6.063  29.349  16.565 -0.2975  0.1707  0.0360
33781DOD     C145162   6.108   3.552   4.308  0.2284  0.0346  0.1599
33781DOD     C245163   6.455   3.308   4.547  0.1459  0.0278  0.2258
33781DOD     C345164   6.852   3.164   4.379  0.0052  0.0966 -0.0851
33782DOD     C145165  21.877  27.346   7.520 -0.1471 -0.0647 -0.1098
33782DOD     C245166  21.402  27.424   7.328 -0.1106 -0.1617 -0.1321
33782DOD     C345167  20.997  27.579   7.190 -0.3006  0.0206  0.1501
33783DOD     C145168  28.017   0.154  22.478  0.3109  0.2091  0.0510
33783DOD     C245169  28.073  29.996  22.423  0.0611 -0.2487 -0.0986
33783DOD     C345170  28.323  29.709  22.754 -0.2134  0.1529 -0.0193
33784DOD     C145171  11.030  12.482  21.427  0.0882  0.0123  0.3198
33784DOD     C245172  10.730  12.375  21.766 -0.1310  0.1023 -0.2243
33784DOD     C345173  10.362  12.663  21.842  0.2465 -0.0201 -0.0224
33785DOD     C145174  27.382   7.237   6.364  0.0151 -0.1823 -0.3198
33785DOD     C245175  27.080   7.102   6.719  0.1258  0.1075 -0.1246
33785DOD     C345176  26.828   7.038   7.147 -0.1696 -0.0528 -0.0629
33786DOD     C145177  11.636  16.024   6.033 -0.2670 -0.2377  0.0348
33786DOD     C245178  11.692  15.541   5.983  0.0044 -0.0393 -0.0296
33786DOD     C345179  11.439  15.360   5.645 -0.0254  0.0982  0.0320
33787DOD     C145180  12.187  14.419   8.438 -0.2285 -0.4570 -0.0846
33787DOD     C245181  11.984  14.396   8.020  0.0406 -0.3437  0.4425
33787DOD     C345182  11.832  14.450   7.574 -0.1233  0.0205 -0.0639
33788DOD     C145183  27.254  17.906   6.433  0.3205 -0.1261 -0.0042
33788DOD     C245184  27.525  18.294   6.445  0.0739  0.0541 -0.0438
33788DOD     C345185  27.983  18.372   6.350  0.5829 -0.1453 -0.0920
33789DOD     C145186  25.711  16.915  20.861 -0.3355  0.0802 -0.0249
33789DOD     C245187  26.087  16.994  20.537  0.0199  0.1807 -0.3098
33789DOD     C345188  26.478  17.085  20.680 -0.0778  0.0663 -0.1581
33790DOD     C145189   6.241   7.484  21.226 -0.1451 -0.3499  0.1717
33790DOD     C245190   5.904   7.198  21.192  0.0219 -0.1251  0.0190
33790DOD     C345191   5.787   6.752  21.251 -0.1170 -0.1745 -0.0535
33791DOD     C145192   3.532   5.991  18.581 -0.0686 -0.1916 -0.0335
33791DOD     C245193   3.540   6.104  18.147 -0.2364  0.0591  0.1567
33791DOD     C345194   3.391   6.203  17.690 -0.0389  0.2350 -0.2227
33792DOD     C145195  14.230  25.577  11.257  0.0989 -0.2739  0.1388
33792DOD     C245196  14.253  25.964  11.499  0.3313  0.0086  0.2234
33792DOD     C345197  14.203  26.229  11.906 -0.0777 -0.0111  0.4190
33793DOD     C145198  18.668  27.517   3.264  0.0899 -0.0623  0.3938
33793DOD     C245199  18.572  27.361   3.719  0.2192  0.0921 -0.0110
33793DOD     C345200  18.222  27.152   3.971 -0.0029  0.0054 -0.1777
33794DOD     C145201  22.345  15.519  13.166  0.2125  0.0610 -0.0261
33794DOD     C245202  22.232  15.048  13.185  0.0110 -0.1121 -0.1696
33794DOD     C345203  21.884  14.839  12.924 -0.1048  0.1708 -0.2703
33795DOD     C145204  29.912  25.599   2.438  0.0786  0.3113 -0.0543
33795DOD     C245205  29.774  25.340   2.041 -0.0266 -0.2983 -0.0426
33795DOD     C345206  29.395  25.287   1.722 -0.2208  0.2198  0.0434
33796DOD     C145207  14.414  13.215  13.890 -0.0988 -0.1121 -0.1974
33796DOD     C245208  13.939  13.094  13.766  0.2717  0.0388  0.0982
33796DOD     C345209  13.518  12.827  13.720  0.0047 -0.0679  0.3910
33797DOD     C145210  21.495  15.181  20.459 -0.0092 -0.1090 -0.1317
33797DOD     C245211  21.322  14.721  20.507 -0.0781 -0.0847  0.3241
33797DOD     C345212  21.134  14.439  20.243  0.1468 -0.0375  0.4340
33798DOD     C145213  30.261   3.601   9.836  0.2953 -0.3125  0.2611
33798DOD     C245214  29.979   3.420  10.164  0.1325  0.2152 -0.2850
33798DOD     C345215  29.806   3.331  10.628 -0.1578  0.0245 -0.0888
33799DOD     C145216   5.451   4.397  13.760  0.1327 -0.1112 -0.0802
33799DOD     C245217   5.470   4.400  13.267  0.2816 -0.0134  0.0644
33799DOD     C345218   5.612   4.368  12.809 -0.1441  0.0068  0.1138
33800DOD     C145219   0.648  21.548  11.010 -0.2303 -0.0353 -0.0432
33800DOD     C245220   0.202  21.678  10.859  0.1003 -0.0420 -0.0770
33800DOD     C345221  30.263  21.733  10.484 -0.0788  0.0235 -0.0154
33801DOD     C145222  15.040  18.246  11.466  0.1489  0.0374 -0.1272
33801DOD     C245223  14.561  18.095  11.467 -0.0979 -0.2225  0.0726
33801DOD     C345224  14.097  18.141  11.392 -0.0626  0.0993 -0.1562
33802DOD     C145225   9.585   9.757   0.835  0.1854 -0.3106  0.0712
33802DOD     C245226   9.883   9.742   1.172 -0.2281 -0.1309 -0.0107
33802DOD     C345227  10.198   9.542   1.490 -0.0838 -0.1145 -0.1630
33803DOD     C145228  27.073  24.045  29.279  0.0333  0.1702  0.1021
33803DOD     C245229  27.242  23.731  28.933 -0.1625  0.2133 -0.1402
33803DOD     C345230  27.388  23.795  28.523  0.2426  0.3211  0.1056
33804DOD     C145231  27.456  27.150  13.478  0.1698  0.0394 -0.2897
33804DOD     C245232  27.768  26.928  13.208 -0.2830 -0.1343 -0.1992
33804DOD     C345233  27.971  26.665  12.882 -0.1837  0.0770  0.1897
33805DOD     C145234   7.695   3.625  27.649 -0.2506 -0.2573 -0.1048
33805DOD     C245235   7.929   3.237  27.738  0.0647  0.0741  0.3673
33805DOD     C345236   8.364   3.137  27.627  0.0848 -0.1388 -0.0514
33806DOD     C145237  13.637  16.415  13.513  0.3092 -0.1142 -0.0688
33806DOD     C245238  13.986  16.483  13.238 -0.0439  0.2121 -0.1531
33806DOD     C345239  14.195  16.605  12.869  0.1310  0.1197 -0.0973
33807DOD     C145240   1.156   2.171  28.918  0.0158 -0.1392 -0.1511
33807DOD     C245241   1.336   2.554  29.175  0.1220 -0.1267 -0.0914
33807DOD     C345242   1.678   2.563  29.561 -0.0105 -0.1359 -0.0298
33808DOD     C145243  29.417   3.594   1.009 -0.2994  0.0650  0.1955
33808DOD     C245244  28.975   3.547   1.052  0.0986 -0.1558 -0.0831
33808DOD     C345245  28.527   3.498   1.234 -0.3053  0.1009 -0.1346
33809DOD     C145246   8.520  29.112  29.484 -0.1350 -0.2178  0.1443
33809DOD     C245247   8.220  29.303  29.797  0.0368  0.0830 -0.2167
33809DOD     C345248   7.930  29.562  30.039  0.2400 -0.0689  0.0296
33810DOD     C145249   8.106   8.126   4.136  0.1979 -0.1579 -0.1775
33810DOD     C245250   8.233   8.556   4.191  0.2055  0.0123  0.0090
33810DOD     C345251   8.183   8.938   4.471  0.0493 -0.0736 -0.2302
33811DOD     C145252  12.291   6.060  21.376  0.2921 -0.0013 -0.3986
33811DOD     C245253  12.670   5.809  21.374  0.0890  0.1587  0.0160
33811DOD     C345254  12.944   5.428  21.400  0.0511  0.1281 -0.1487
33812DOD     C145255   4.372  26.061  10.295  0.1564  0.0072  0.1874
33812DOD     C245256   4.005  26.294  10.183  0.0670 -0.5783  0.0124
33812DOD     C345257   3.714  26.720  10.141 -0.0598  0.1228 -0.0407
33813DOD     C145258  29.731  12.645  19.271  0.1066  0.2929 -0.1612
33813DOD     C245259  29.836  12.979  19.520 -0.1044  0.2235 -0.0166
33813DOD     C345260  29.755  13.431  19.411  0.1572  0.0233 -0.0291
33814DOD     C145261  29.429  16.463   5.028  0.0903 -0.0607  0.2948
33814DOD     C245262  29.591  16.303   4.626 -0.0164 -0.2990  0.3006
33814DOD     C345263  29.970  16.139   4.394  0.2268  0.1220  0.2470
33815DOD     C145264   1.604   6.097  27.050 -0.3028  0.1685  0.1603
33815DOD     C245265   1.576   5.649  26.827 -0.1220 -0.0607  0.1729
33815DOD     C345266   1.753   5.286  27.031 -0.2622 -0.1924 -0.0650
33816DOD     C145267   8.354   3.758   2.525  0.1679  0.2119 -0.0431
33816DOD     C245268   8.026   4.043   2.731 -0.1897  0.1291 -0.1045
33816DOD     C345269   7.922   4.417   2.948 -0.1070 -0.0592  0.2510
33817DOD     C145270  19.821   1.951   5.577 -0.1535 -0.0342 -0.2735
33817DOD     C245271  19.672   1.611   5.299  0.1030  0.1584  0.3825
33817DOD     C345272  19.710   1.119   5.262  0.2371  0.0011 -0.4072
33818DOD     C145273   3.808  26.152  20.111 -0.1892 -0.1657 -0.0990
33818DOD     C245274   3.753  25.719  20.099  0.1081 -0.0876  0.0808
33818DOD     C345275   3.598  25.235  20.122 -0.1127 -0.1188  0.0468
33819DOD     C145276   1.041   0.226  30.087 -0.0195  0.1196 -0.0282
33819DOD     C245277   0.860   0.312   0.194 -0.4693  0.0969 -0.2309
33819DOD     C345278   0.629   0.214   0.599 -0.2340 -0.1091  0.1446
33820DOD     C145279   9.645   5.254  15.799 -0.1352  0.1573  0.0984
33820DOD     C245280   9.948   5.496  15.937 -0.3596 -0.1312  0.3139
33820DOD     C345281  10.395   5.619  15.754  0.1402  0.1283 -0.2148
33821DOD     C145282  10.999  18.054   3.054  0.0936 -0.1652 -0.1286
33821DOD     C245283  10.509  18.229   3.054 -0.0953 -0.0903 -0.2820
33821DOD     C345284  10.092  18.366   2.821 -0.1577 -0.3455 -0.1656
33822DOD     C145285  18.075   6.454  10.875  0.0031 -0.4731  0.1383
33822DOD     C245286  17.883   6.035  10.663 -0.0347 -0.0872  0.0090
33822DOD     C345287  17.984   5.936  10.160  0.1555  0.1350 -0.5147
33823DOD     C145288   0.421  25.417  26.117 -0.1928  0.1017  0.1105
33823DOD     C245289   0.811  25.484  25.832 -0.0442  0.3723 -0.0872
33823DOD     C345290   0.984  25.447  25.406  0.3185  0.2268 -0.3201
33824DOD     C145291  15.697  29.080  13.172  0.0699  0.2173  0.0903
33824DOD     C245292  15.278  29.318  13.225  0.0622  0.0867  0.2876
33824DOD     C345293  15.011  29.703  13.276 -0.1178 -0.0235 -0.0248
33825DOD     C145294  24.464   9.662  17.836  0.2851 -0.0357 -0.1155
33825DOD     C245295  24.153   9.641  18.199 -0.0976 -0.0167  0.2478
33825DOD     C345296  23.751   9.400  18.260  0.1627 -0.1068 -0.0246
33826DOD     C145297  21.004  10.799   7.476  0.3106  0.2360  0.0613
33826DOD     C245298  20.948  10.402   7.211 -0.2331 -0.1203 -0.0672
33826DOD     C345299  20.888   9.928   7.159  0.0338 -0.2078 -0.2177
33827DOD     C145300   9.513   6.090  28.376  0.0230  0.2255 -0.1604
33827DOD     C245301   9.749   6.159  27.968 -0.2834 -0.3950  0.0772
33827DOD     C345302   9.814   5.906  27.585  0.3010 -0.1024  0.1429
33828DOD     C145303  14.167  10.909  26.685 -0.0433  0.2760  0.2890
33828DOD     C245304  14.414  11.094  27.021  0.0762  0.2561 -0.0674
33828DOD     C345305  14.394  10.923  27.454 -0.2162 -0.3324 -0.2568
33829DOD     C145306   1.400  12.145  28.030 -0.0368  0.0740 -0.0657
33829DOD     C245307   1.895  12.079  27.987 -0.0385  0.2859  0.2319
33829DOD     C345308   2.365  12.204  28.048 -0.1674 -0.0014  0.0051
33830DOD     C145309  29.698  10.438  29.162 -0.1577  0.4103 -0.1081
33830DOD     C245310  29.301  10.160  29.352 -0.3028 -0.0109  0.1051
33830DOD     C345311  28.852  10.140  29.409  0.4105 -0.1501 -0.2614
33831DOD     C145312  29.446   3.442   6.631  0.1079  0.1984  0.2635
33831DOD     C245313  29.210   3.435   7.039 -0.1626 -0.0432 -0.2027
33831DOD     C345314  28.957   3.720   7.303  0.1113 -0.2350 -0.2944
33832DOD     C145315   7.943   2.913  12.666  0.0659 -0.0897 -0.0483
33832DOD     C245316   8.259   2.857  13.031  0.0338  0.3632 -0.2830
33832DOD     C345317   8.631   2.849  13.373  0.1081  0.1799 -0.1241
33833DOD     C145318   6.688  16.913   1.113 -0.0373  0.0267 -0.2242
33833DOD     C245319   7.051  17.143   0.857  0.0388 -0.2126  0.0053
33833DOD     C345320   7.490  17.024   0.703  0.1600  0.1287 -0.0809
33834DOD     C145321   2.767   4.532  12.360  0.0464 -0.1066 -0.1230
33834DOD     C245322   3.186   4.518  12.154 -0.2406 -0.0880  0.0060
33834DOD     C345323   3.526   4.635  11.795 -0.0162  0.0856 -0.3568
33835DOD     C145324  24.159   8.809  27.261  0.0141  0.0055 -0.0601
33835DOD     C245325  23.864   9.100  27.150  0.2263  0.0438  0.0781
33835DOD     C345326  23.482   9.236  26.911 -0.3934 -0.2821 -0.6245
33836DOD     C145327   1.801   2.150   0.924  0.0909  0.2385  0.3056
33836DOD     C245328   2.038   2.020   1.308  0.2816 -0.0216 -0.0239
33836DOD     C345329   1.836   1.827   1.681  0.1557  0.1864 -0.1600
33837DOD     C145330  27.045  17.306  29.007  0.2686 -0.0401  0.3509
33837DOD     C245331  26.609  17.476  28.858 -0.0996 -0.1608 -0.1368
33837DOD     C345332  26.334  17.467  28.470  0.0516  0.1278  0.0014
33838DOD     C145333  21.770   9.442   5.598 -0.0185 -0.1386  0.0038
33838DOD     C245334  22.047   9.286   5.248  0.1230 -0.1151  0.2373
33838DOD     C345335  22.153   9.074   4.809  0.2330  0.1609  0.3254
33839DOD     C145336   1.638  12.089  19.072  0.1020 -0.2329 -0.2081
33839DOD     C245337   1.378  12.429  19.255 -0.0230  0.1825  0.1445
33839DOD     C345338   1.173  12.597  19.684  0.0600 -0.3309 -0.2812
33840DOD     C145339   3.996  20.739  10.424 -0.2986  0.4468 -0.0411
33840DOD     C245340   3.880  21.143  10.607 -0.2595 -0.0739 -0.4178
33840DOD     C345341   3.847  21.404  11.060  0.3082 -0.4845  0.3696
33841DOD     C145342  29.979   9.677  12.159 -0.1210  0.1116  0.0045
33841DOD     C245343  29.726  10.009  12.009  0.3904  0.0714  0.0469
33841DOD     C345344  29.294   9.924  11.722  0.1173  0.3905  0.1437
33842DOD     C145345  17.285   1.246  16.970 -0.1335  0.0134 -0.2191
33842DOD     C245346  17.191   0.879  17.264 -0.1640 -0.1585 -0.1582
33842DOD     C345347  17.310   0.392  17.324 -0.4845 -0.0327  0.1996
33843DOD     C145348  13.108   3.684   5.746  0.1836  0.0055  0.0550
33843DOD     C245349  13.223   4.162   5.745 -0.0645 -0.1507 -0.0337
33843DOD     C345350  13.209   4.517   6.026 -0.1916  0.0586  0.0195
33844DOD     C145351  15.045  11.833   2.403  0.1040 -0.0235 -0.0315
33844DOD     C245352  15.232  11.452   2.589 -0.0344 -0.2879 -0.1953
33844DOD     C345353  15.372  10.997   2.412  0.0261 -0.0537 -0.1286
33845DOD     C145354  26.623   5.541  19.466  0.0232 -0.2224  0.2762
33845DOD     C245355  26.925   5.933  19.468 -0.0407 -0.1972 -0.0471
33845DOD     C345356  27.143   6.292  19.628  0.0679 -0.1776  0.3223
33846DOD     C145357   3.620   3.283  23.270 -0.2953  0.1414  0.2706
33846DOD     C245358   3.720   3.637  23.405  0.0454 -0.1031 -0.0010
33846DOD     C345359   4.171   3.828  23.478 -0.1002 -0.0799  0.0471
33847DOD     C145360  25.195  26.724   4.948 -0.1070 -0.2629  0.0482
33847DOD     C245361  25.004  26.277   4.920  0.1454  0.1822 -0.0736
33847DOD     C345362  24.637  25.994   4.820 -0.0942  0.0196  0.1220
33848DOD     C145363  14.194   5.631   6.356  0.0861  0.3997  0.1041
33848DOD     C245364  13.912   5.436   6.029 -0.3340  0.1665 -0.1214
33848DOD     C345365  13.635   5.370   5.570  0.0552 -0.1396 -0.0629
33849DOD     C145366  13.439   1.231   7.661 -0.0276 -0.2163  0.1084
33849DOD     C245367  13.322   1.669   7.511  0.0020  0.0802 -0.2704
33849DOD     C345368  13.660   1.923   7.224  0.0661  0.3780 -0.0558
33850DOD     C145369  18.376  22.678  20.676 -0.2962  0.2837  0.0338
33850DOD     C245370  18.680  22.970  20.848 -0.0207  0.2060 -0.1383
33850DOD     C345371  19.104  23.123  20.695 -0.2549 -0.1146 -0.1493
33851DOD     C145372   9.736  26.539   7.989  0.0190 -0.1763  0.4562
33851DOD     C245373   9.638  26.201   7.716  0.1242  0.1262 -0.1067
33851DOD     C345374   9.330  25.916   7.487  0.0230 -0.1190 -0.0757
33852DOD     C145375  28.678  16.042  25.588 -0.0357 -0.0014 -0.0563
33852DOD     C245376  28.349  16.264  25.549 -0.0893  0.0913  0.0135
33852DOD     C345377  28.041  16.564  25.414  0.0705  0.3963 -0.3778
33853DOD     C145378  11.110  12.359  23.383  0.1033 -0.0981  0.1722
33853DOD     C245379  11.531  12.471  23.404  0.2391 -0.0820  0.1566
33853DOD     C345380  11.831  12.777  23.378 -0.2254  0.2358  0.2141
33854DOD     C145381  20.455  24.680   8.331  0.0062  0.1405 -0.1646
33854DOD     C245382  20.681  24.509   7.964  0.0118  0.3759 -0.3144
33854DOD     C345383  20.770  24.099   7.761  0.2033 -0.0928 -0.0392
33855DOD     C145384  21.188  25.549  29.078  0.0911  0.0342  0.0095
33855DOD     C245385  21.432  25.898  29.129 -0.1268  0.1890 -0.2110
33855DOD     C345386  21.698  26.158  28.825 -0.1568  0.0947  0.5274
33856DOD     C145387  26.344  20.531   8.180 -0.0490  0.0984 -0.1431
33856DOD     C245388  26.298  20.882   8.484  0.0465 -0.0865 -0.0808
33856DOD     C345389  26.149  21.325   8.513 -0.2613 -0.0053  0.0451
33857DOD     C145390  29.061   1.665  20.178  0.2702 -0.0527 -0.1183
33857DOD     C245391  28.890   1.329  19.910 -0.2915 -0.1957  0.2036
33857DOD     C345392  28.929   0.909  19.763 -0.0686 -0.0228  0.0661
33858DOD     C145393  29.425  15.446  17.594  0.0818 -0.0413  0.1694
33858DOD     C245394  29.649  15.713  17.955  0.1641 -0.1945  0.1053
33858DOD     C345395  29.692  16.129  18.198 -0.0117  0.1092  0.1390
33859DOD     C145396  18.596  29.011   4.363  0.0252  0.4601 -0.1576
33859DOD     C245397  18.882  28.762   4.533  0.0561  0.0030 -0.2343
33859DOD     C345398  19.328  28.712   4.649 -0.0611  0.1167 -0.2835
33860DOD     C145399   0.560  14.203  20.931 -0.0630  0.0395 -0.1313
33860DOD     C245400   0.732  13.977  21.274 -0.1925 -0.3058 -0.3129
33860DOD     C345401   0.605  13.792  21.679  0.1120  0.0268 -0.2210
33861DOD     C145402   0.126  17.269  20.511  0.1163  0.0052  0.0270
33861DOD     C245403   0.194  16.976  20.225  0.1244  0.1868 -0.1552
33861DOD     C345404   0.606  16.805  20.164  0.1941 -0.0693 -0.3203
33862DOD     C145405  27.030   0.132  11.672  0.2378 -0.3200  0.3569
33862DOD     C245406  27.128   0.590  11.801 -0.0119  0.0464  0.0608
33862DOD     C345407  27.062   1.063  11.777  0.2780 -0.2699 -0.1478
33863DOD     C145408  14.155  25.781  25.104  0.1480  0.5241 -0.0607
33863DOD     C245409  13.846  25.442  25.114 -0.0578  0.5446  0.0671
33863DOD     C345410  13.560  25.063  25.166  0.1744 -0.1446  0.0718
33864DOD     C145411   3.974  11.862  23.751 -0.0400  0.0856  0.0365
33864DOD     C245412   4.249  11.598  23.425  0.0834  0.2164 -0.3752
33864DOD     C345413   4.499  11.676  23.018  0.1824  0.0838  0.1317
33865DOD     C145414  23.213  17.704  11.604  0.1951  0.1995  0.0762
33865DOD     C245415  23.557  17.442  11.503 -0.1092  0.1732  0.1148
33865DOD     C345416  23.886  17.146  11.386 -0.0432 -0.1959 -0.0501
33866DOD     C145417  23.202   7.060  23.605 -0.3863 -0.0385  0.1598
33866DOD     C245418  23.137   6.845  24.032 -0.0980  0.0158 -0.2041
33866DOD     C345419  22.944   6.682  24.406  0.0185  0.0679 -0.0297
33867DOD     C145420  10.263  23.280   8.985 -0.0251 -0.0107  0.0959
33867DOD     C245421  10.012  22.966   9.143 -0.0508 -0.0192  0.0542
33867DOD     C345422   9.859  22.499   9.156 -0.0782 -0.1071  0.3730
33868DOD     C145423  15.871   0.970   3.339  0.1199 -0.2983 -0.0514
33868DOD     C245424  16.181   0.776   3.624 -0.0607 -0.0198 -0.0855
33868DOD     C345425  16.559   0.834   3.928 -0.0331  0.1636  0.1615
33869DOD     C145426  15.051   0.959  28.263  0.0527 -0.1519 -0.0457
33869DOD     C245427  15.388   1.230  28.495  0.1272  0.1785  0.0390
33869DOD     C345428  15.705   1.542  28.655  0.0170  0.2484 -0.2212
33870DOD     C145429  26.270   2.960   8.958  0.0915 -0.0322 -0.2240
33870DOD     C245430  25.997   2.687   8.670 -0.2048  0.2159 -0.1879
33870DOD     C345431  25.629   2.591   8.367 -0.2987 -0.0477 -0.0083
33871DOD     C145432   6.239  16.735  17.782  0.0120  0.1524 -0.0479
33871DOD     C245433   6.524  16.885  17.393  0.2053 -0.1688 -0.0737
33871DOD     C345434   6.881  17.118  17.185 -0.0582 -0.3152 -0.1331
33872DOD     C145435  18.125  10.165  19.567 -0.0398 -0.0440 -0.1595
33872DOD     C245436  17.795  10.265  19.824  0.3498  0.0530  0.0162
33872DOD     C345437  17.478  10.366  20.227  0.0779  0.0045 -0.2433
33873DOD     C145438  28.342  30.148  20.502 -0.2773  0.0946 -0.2500
33873DOD     C245439  28.102  30.204  20.083 -0.1117  0.2884  0.0654
33873DOD     C345440  27.766  30.135  19.763  0.0558 -0.2689  0.1276
33874DOD     C145441  11.890  14.393   6.931 -0.0697 -0.3331  0.0640
33874DOD     C245442  11.963  14.306   6.487  0.0346  0.3791  0.2849
33874DOD     C345443  12.252  14.305   6.133  0.1281  0.0514  0.0066
33875DOD     C145444  20.723  24.202  15.288  0.2261  0.1240  0.0930
33875DOD     C245445  20.716  24.517  15.639  0.1776 -0.0881 -0.0610
33875DOD     C345446  20.822  24.980  15.824 -0.1414  0.1440  0.1924
33876DOD     C145447  18.590   9.343   6.456  0.1579  0.2969 -0.3393
33876DOD     C245448  18.645   9.772   6.502  0.3008 -0.1247  0.0831
33876DOD     C345449  18.449  10.186   6.465  0.0426 -0.0470 -0.1895
33877DOD     C145450   0.772   3.760  14.980  0.1456 -0.2454 -0.2171
33877DOD     C245451   1.148   3.543  15.179 -0.2655 -0.1284 -0.1776
33877DOD     C345452   1.417   3.257  15.227 -0.0360 -0.0047 -0.1043
33878DOD     C145453  20.811  20.571   5.629 -0.1211  0.0185 -0.0410
33878DOD     C245454  20.807  20.663   5.169  0.0802 -0.3911  0.2425
33878DOD     C345455  20.958  20.969   4.807 -0.1955  0.1458 -0.1543
33879DOD     C145456  19.560  20.334  30.209 -0.1001  0.0046 -0.0184
33879DOD     C245457  19.542  19.845  29.967 -0.3669  0.2712 -0.1497
33879DOD     C345458  19.416  19.386  29.856 -0.1039  0.0532  0.1025
33880DOD     C145459   4.563  19.538  28.990  0.0149 -0.0973 -0.0475
33880DOD     C245460   4.834  19.233  28.732 -0.0135  0.1872 -0.1315
33880DOD     C345461   4.827  19.218  28.252  0.3453 -0.1650  0.0911
33881DOD     C145462  29.521   9.492  12.067 -0.1186 -0.1646  0.1746
33881DOD     C245463  29.077   9.455  11.889 -0.1356 -0.1402 -0.2926
33881DOD     C345464  28.611   9.537  11.779  0.0665  0.2165 -0.1700
33882DOD     C145465  18.925  16.551  14.072 -0.1033  0.0345 -0.3032
33882DOD     C245466  18.855  16.511  13.623  0.1402  0.1823  0.2057
33882DOD     C345467  18.861  16.516  13.172  0.2111  0.0041  0.2093
33883DOD     C145468   7.421  24.836  21.271 -0.0010 -0.0778  0.1498
33883DOD     C245469   7.366  24.332  21.186 -0.1258  0.0045  0.1600
33883DOD     C345470   7.459  23.826  21.278 -0.0463  0.2343 -0.0453
33884DOD     C145471   5.399  11.528  29.592  0.0259  0.0187  0.2764
33884DOD     C245472   5.321  11.777  29.274 -0.3069  0.0610 -0.0454
33884DOD     C345473   5.038  12.093  29.033 -0.5323 -0.3195 -0.0109
33885DOD     C145474   3.844  27.089  26.715  0.2031 -0.2887 -0.1896
33885DOD     C245475   3.902  26.578  26.737 -0.1067  0.3298  0.1611
33885DOD     C345476   4.174  26.420  26.390  0.2177 -0.0862 -0.0251
33886DOD     C145477  19.108   0.049  21.750  0.0283  0.1031 -0.0749
33886DOD     C245478  18.750   0.433  21.614  0.2333 -0.0893  0.3921
33886DOD     C345479  18.761   0.692  21.244  0.0453 -0.1002  0.2311
33887DOD     C145480  18.757  17.217  17.493 -0.1076 -0.2102 -0.1781
33887DOD     C245481  18.682  17.112  17.965 -0.2667 -0.1204 -0.1812
33887DOD     C345482  18.873  16.663  18.083  0.1139 -0.2152 -0.3288
33888DOD     C145483  16.199  30.051   2.730  0.0383 -0.0131  0.0136
33888DOD     C245484  16.195  30.017   2.283  0.2342 -0.0875  0.0276
33888DOD     C345485  16.523  29.998   1.912  0.0047  0.1939  0.1254
33889DOD     C145486   2.307  21.460   0.465 -0.0340 -0.1292  0.1636
33889DOD     C245487   2.741  21.359   0.221 -0.1538 -0.1112  0.0665
33889DOD     C345488   2.899  21.121  30.151 -0.0989 -0.2068  0.0282
33890DOD     C145489   6.297  13.382  24.748 -0.3972  0.0679 -0.0101
33890DOD     C245490   6.746  13.370  24.795  0.2537  0.0828  0.0814
33890DOD     C345491   7.132  13.391  25.047  0.0166  0.2265  0.0378
33891DOD     C145492  22.504  23.718  25.104 -0.1785  0.0542 -0.0192
33891DOD     C245493  22.590  23.287  24.937 -0.0744  0.1062 -0.2466
33891DOD     C345494  22.917  22.998  24.814  0.1952 -0.2585  0.0250
33892DOD     C145495  21.745   8.918  20.124  0.1317  0.2639 -0.2131
33892DOD     C245496  21.587   9.396  20.063  0.1838  0.2349  0.2965
33892DOD     C345497  21.701   9.789  19.816 -0.0911  0.2098 -0.1731
33893DOD     C145498   4.321  17.457  19.882 -0.0854  0.0053  0.2175
33893DOD     C245499   4.218  17.541  20.337  0.0925  0.1741 -0.1641
33893DOD     C345500   4.013  17.789  20.723 -0.1433  0.3799  0.0990
33894DOD     C145501  30.238  14.403  15.340  0.0598  0.0413  0.2169
33894DOD     C245502   0.137  14.819  15.227  0.0525 -0.0288 -0.3967
33894DOD     C345503   0.534  14.978  15.316  0.0428  0.0682 -0.1756
33895DOD     C145504   8.510  16.809  26.276  0.0357  0.2216 -0.1856
33895DOD     C245505   8.132  16.939  26.598 -0.0950  0.0507 -0.0554
33895DOD     C345506   7.916  17.178  26.929 -0.2924 -0.1096  0.2723
33896DOD     C145507   1.836   7.536  25.251  0.1404 -0.1120 -0.1586
33896DOD     C245508   2.091   7.534  24.932  0.0006 -0.2856  0.2702
33896DOD     C345509   2.303   7.811  24.566  0.1780  0.0074 -0.1492
33897DOD     C145510  12.005   1.166  29.084  0.1240 -0.2971 -0.1675
33897DOD     C245511  12.364   0.931  29.208  0.0518 -0.1552  0.1052
33897DOD     C345512  12.746   1.131  29.315 -0.2114 -0.0838 -0.2227
33898DOD     C145513  16.690  19.331  15.001 -0.1725  0.1150 -0.1885
33898DOD     C245514  16.839  18.901  15.279  0.2002  0.1764 -0.2149
33898DOD     C345515  17.134  18.483  15.245 -0.3957 -0.5464  0.0225
33899DOD     C145516   5.101   7.163  13.447 -0.0616 -0.0329  0.1529
33899DOD     C245517   5.246   7.017  13.013  0.2687  0.0403  0.1224
33899DOD     C345518   5.387   7.231  12.681 -0.1145 -0.1081  0.1612
33900DOD     C145519  18.319   5.100  11.314  0.2366 -0.0643  0.0911
33900DOD     C245520  17.882   5.100  11.356  0.1767 -0.2360 -0.0408
33900DOD     C345521  17.441   5.039  11.509 -0.0100 -0.1576  0.0905
33901DOD     C145522  26.316   5.469  13.924 -0.4335 -0.0275 -0.0111
33901DOD     C245523  26.105   5.887  13.879  0.2650 -0.0255 -0.0435
33901DOD     C345524  26.040   6.280  14.097 -0.1952  0.1766  0.1033
33902DOD     C145525   2.805  13.774  16.829  0.0086  0.1460  0.2388
33902DOD     C245526   2.760  14.132  17.138  0.0880  0.0020  0.0070
33902DOD     C345527   2.495  14.489  17.110  0.1996  0.0107  0.3950
33903DOD     C145528   5.273  27.372   7.235  0.0861  0.2291 -0.1123
33903DOD     C245529   4.923  27.531   6.970  0.0616  0.0650 -0.2867
33903DOD     C345530   4.578  27.767   6.779  0.1975  0.0431  0.1353
33904DOD     C145531  29.230  11.457  21.881  0.1094  0.0599  0.3677
33904DOD     C245532  29.479  11.770  21.646  0.1548  0.1069 -0.1625
33904DOD     C345533  29.893  11.913  21.818 -0.0429 -0.0020  0.1175
33905DOD     C145534   2.921   7.400  11.019  0.0766 -0.0057 -0.1023
33905DOD     C245535   3.150   7.076  11.304 -0.2242 -0.0874  0.0741
33905DOD     C345536   3.404   6.748  11.239  0.1743  0.2827 -0.1176
33906DOD     C145537  19.891   5.719   5.682 -0.0200  0.0170  0.1473
33906DOD     C245538  20.301   5.562   5.859  0.2783  0.0293 -0.0974
33906DOD     C345539  20.575   5.651   6.234  0.0973 -0.0810 -0.0335
33907DOD     C145540  10.311   8.730   7.313 -0.0892 -0.0422  0.1215
33907DOD     C245541  10.017   8.341   7.291 -0.0496 -0.1650  0.1356
33907DOD     C345542   9.975   7.994   7.568  0.0388 -0.0921 -0.1290
33908DOD     C145543  21.985  25.363   9.519 -0.0224 -0.2251 -0.1142
33908DOD     C245544  21.889  25.153   9.088  0.0181  0.2566 -0.0541
33908DOD     C345545  21.815  24.912   8.708 -0.2547 -0.4954  0.0536
33909DOD     C145546  26.555  15.591  25.429 -0.0250 -0.0954  0.0508
33909DOD     C245547  26.436  15.200  25.451  0.2400 -0.1048 -0.1133
33909DOD     C345548  26.352  14.722  25.380 -0.5102  0.3593 -0.0624
33910DOD     C145549   3.922  25.734  25.697 -0.1906  0.0178  0.1434
33910DOD     C245550   4.334  25.926  25.837  0.3583  0.0379  0.1293
33910DOD     C345551   4.753  26.078  25.911  0.1435 -0.3340  0.1864
33911DOD     C145552  25.911   6.852   2.631  0.2035 -0.1425 -0.0094
33911DOD     C245553  25.663   6.623   2.911  0.1751 -0.1760  0.3014
33911DOD     C345554  25.450   6.593   3.248  0.1640 -0.0770 -0.0131
33912DOD     C145555  10.109  13.556  19.897 -0.0624  0.0794  0.0020
33912DOD     C245556   9.987  13.860  20.196  0.1755  0.1115  0.4514
33912DOD     C345557  10.009  14.289  20.396 -0.1071  0.0839 -0.1094
33913DOD     C145558  25.396  28.050  22.097 -0.0733 -0.1165 -0.5777
33913DOD     C245559  24.875  28.018  22.220 -0.1281 -0.2412 -0.0743
33913DOD     C345560  24.402  28.076  22.209  0.1144  0.0056  0.0546
33914DOD     C145561   2.547  16.534  30.078  0.1905  0.0419 -0.2341
33914DOD     C245562   2.901  16.674  -0.016 -0.0251  0.1042 -0.3081
33914DOD     C345563   3.106  17.106  30.117  0.1612 -0.0197  0.2122
33915DOD     C145564   0.392  17.551  29.621  0.1969 -0.0173  0.3150
33915DOD     C245565   0.328  17.150  29.381  0.2196  0.1182  0.2193
33915DOD     C345566   0.055  16.977  29.098 -0.1478  0.0083  0.0895
33916DOD     C145567  14.421  25.976   1.395  0.1492  0.1775 -0.1841
33916DOD     C245568  14.433  26.387   1.193 -0.3110  0.0565  0.2203
33916DOD     C345569  14.544  26.632   0.819 -0.0607  0.3146 -0.1112
33917DOD     C145570  28.203  14.120  27.391 -0.2242 -0.0724  0.1621
33917DOD     C245571  28.495  13.956  27.644  0.0122  0.1111 -0.0040
33917DOD     C345572  28.635  13.984  28.073  0.3244 -0.1796  0.0261
33918DOD     C145573   9.348   4.892   7.015 -0.0015  0.1650 -0.1019
33918DOD     C245574   9.221   4.447   7.193  0.0163  0.3639 -0.1201
33918DOD     C345575   8.873   4.190   7.102  0.0847  0.1444  0.1504
33919DOD     C145576  22.331  13.216  30.198 -0.2670 -0.1197  0.1138
33919DOD     C245577  22.732  13.030  29.951 -0.2539 -0.1133 -0.0617
33919DOD     C345578  23.154  12.860  29.789 -0.2012  0.1122  0.0634
33920DOD     C145579  10.382  28.602  29.897 -0.0312 -0.2025  0.0722
33920DOD     C245580  10.619  28.423  30.280 -0.0258  0.1230  0.0688
33920DOD     C345581  11.055  28.218  30.312 -0.3281  0.1855  0.1001
33921DOD     C145582  13.483  23.954   0.431  0.2735 -0.3290  0.2142
33921DOD     C245583  13.324  23.755   0.070 -0.0414  0.5379 -0.1057
33921DOD     C345584  12.874  23.709  30.199  0.0151 -0.0788 -0.0581
33922DOD     C145585  11.099  18.873   9.366  0.1398  0.0018  0.1501
33922DOD     C245586  11.299  19.148   9.125  0.3718 -0.1795  0.0609
33922DOD     C345587  11.766  18.998   9.241 -0.0903 -0.1359 -0.1316
33923DOD     C145588  28.208  21.106  23.219  0.2845  0.1786  0.0812
33923DOD     C245589  28.050  20.747  23.487  0.1814 -0.0767 -0.1447
33923DOD     C345590  28.055  20.443  23.844 -0.2609  0.0624  0.4371
33924DOD     C145591  11.833   5.928  14.821 -0.1045  0.2014 -0.0517
33924DOD     C245592  11.438   6.019  15.043  0.0061  0.1107 -0.1461
33924DOD     C345593  11.032   6.078  15.326  0.0383  0.1138 -0.1664
33925DOD     C145594  23.651  22.733  25.185  0.3129  0.1007 -0.0487
33925DOD     C245595  24.037  22.502  25.187  0.1186  0.0129  0.1500
33925DOD     C345596  24.352  22.232  25.375 -0.2506  0.0694 -0.2354
33926DOD     C145597   9.725   1.219  14.046  0.2518  0.1428 -0.1334
33926DOD     C245598   9.523   1.637  13.947 -0.0260 -0.1317 -0.1984
33926DOD     C345599   9.088   1.737  14.039  0.2674  0.3612 -0.2467
33927DOD     C145600  10.697   6.423   9.681 -0.2340  0.1539 -0.0885
33927DOD     C245601  10.954   6.012   9.639  0.1333 -0.0325 -0.1507
33927DOD     C345602  11.287   5.735   9.519 -0.1098  0.2654 -0.1949
33928DOD     C145603  20.520  12.717   8.347 -0.0844 -0.3272  0.0840
33928DOD     C245604  20.826  12.940   8.653  0.3123  0.2695  0.3627
33928DOD     C345605  20.553  13.284   8.912 -0.1752 -0.0851  0.0202
33929DOD     C145606  28.224   3.426   8.061  0.1076 -0.2074 -0.0871
33929DOD     C245607  27.899   3.204   8.016 -0.0359 -0.1189  0.0892
33929DOD     C345608  27.709   2.783   7.893  0.3173  0.1586 -0.2599
33930DOD     C145609   0.008  28.691  20.705 -0.4651 -0.0452  0.2065
33930DOD     C245610  30.225  28.251  20.851 -0.2001 -0.1030  0.0068
33930DOD     C345611  29.811  28.075  20.835 -0.2573  0.0358  0.1670
33931DOD     C145612  27.657  27.405  30.343 -0.5926  0.2364  0.1655
33931DOD     C245613  27.899  27.789   0.012  0.1280  0.2597  0.1712
33931DOD     C345614  27.890  28.279   0.135 -0.2453  0.0733  0.3127
33932DOD     C145615   7.781   1.124  24.438  0.2788  0.0780 -0.1466
33932DOD     C245616   7.414   1.412  24.352  0.1513 -0.1390  0.2236
33932DOD     C345617   7.584   1.735  23.996 -0.1418  0.0688 -0.1114
33933DOD     C145618   8.454  23.107  10.198 -0.1236  0.1390 -0.0973
33933DOD     C245619   8.417  22.645  10.228  0.2979  0.0076 -0.3569
33933DOD     C345620   8.676  22.242  10.240  0.1013 -0.2519  0.2744
33934DOD     C145621   0.169   7.945   7.025 -0.0985 -0.1555 -0.0515
33934DOD     C245622   0.493   8.080   7.289  0.0683 -0.0804  0.1750
33934DOD     C345623   0.904   7.950   7.452  0.1198  0.0599 -0.0599
33935DOD     C145624  27.024  24.628  17.258  0.0300  0.1618  0.0832
33935DOD     C245625  26.705  24.484  17.041  0.5317  0.2292 -0.1191
33935DOD     C345626  26.387  24.295  16.746 -0.2661 -0.4105 -0.1397
33936DOD     C145627   7.375  29.190  20.001  0.2640  0.2700  0.0429
33936DOD     C245628   6.941  29.071  20.149 -0.0934 -0.1307  0.0438
33936DOD     C345629   6.508  29.199  20.246  0.1239  0.1418 -0.2514
33937DOD     C145630  18.599  14.567   1.315  0.0898 -0.1798  0.1026
33937DOD     C245631  18.209  14.642   1.578  0.1319 -0.0198 -0.0518
33937DOD     C345632  18.084  14.343   1.949 -0.1696 -0.1120 -0.0653
33938DOD     C145633  27.134  28.656  27.926  0.2623 -0.1284 -0.1913
33938DOD     C245634  27.475  28.379  27.773  0.1857  0.1750 -0.0230
33938DOD     C345635  27.730  27.982  27.862 -0.0722 -0.1758 -0.2626
33939DOD     C145636  15.536  12.098  11.266  0.1204 -0.1585 -0.0413
33939DOD     C245637  15.924  12.430  11.371 -0.2413 -0.0030  0.1005
33939DOD     C345638  16.314  12.679  11.459  0.1580 -0.2776 -0.1578
33940DOD     C145639  13.228  11.940  15.001 -0.1691 -0.0585 -0.1105
33940DOD     C245640  13.334  11.611  15.292 -0.1022  0.4137 -0.0321
33940DOD     C345641  13.272  11.495  15.740  0.3142 -0.1705  0.1639
33941DOD     C145642   6.349  15.187   9.134  0.0864 -0.2100 -0.2252
33941DOD     C245643   6.625  15.247   8.688  0.2360 -0.2291 -0.0875
33941DOD     C345644   6.897  15.365   8.314  0.0812  0.2708 -0.1758
33942DOD     C145645  22.965  10.371   0.923  0.3435 -0.0682  0.1241
33942DOD     C245646  22.575  10.313   0.654  0.1799  0.2580  0.1236
33942DOD     C345647  22.306   9.976   0.430  0.0838  0.0484 -0.0639
33943DOD     C145648   4.059   9.433   0.752 -0.0135  0.0234  0.1485
33943DOD     C245649   4.164   9.892   0.692 -0.0304  0.1897  0.3091
33943DOD     C345650   4.125  10.335   0.715  0.0240 -0.2104  0.0596
33944DOD     C145651  14.234  22.884   2.953  0.2790 -0.1142  0.0754
33944DOD     C245652  14.618  22.884   3.197 -0.0751 -0.4237  0.2174
33944DOD     C345653  15.026  23.118   3.191 -0.0941  0.2908 -0.1695
33945DOD     C145654   4.616  21.387  21.267 -0.1283 -0.1488  0.0226
33945DOD     C245655   4.810  20.936  21.264 -0.0951  0.4109 -0.1897
33945DOD     C345656   5.000  20.511  21.455 -0.0143 -0.3506 -0.0228
33946DOD     C145657  20.487  18.026  26.859 -0.5487 -0.0562 -0.0804
33946DOD     C245658  20.038  17.953  26.880 -0.3036  0.1134  0.1918
33946DOD     C345659  19.753  18.194  27.131  0.0090  0.0672 -0.1638
33947DOD     C145660   5.419  19.946   6.619 -0.2402  0.0220 -0.4948
33947DOD     C245661   5.235  20.303   6.874  0.1548 -0.2258 -0.2151
33947DOD     C345662   4.783  20.469   7.033 -0.1510  0.3518  0.0719
33948DOD     C145663  15.458   9.921  21.867 -0.1667 -0.2542  0.0692
33948DOD     C245664  15.469   9.499  21.723 -0.4145  0.1936  0.1381
33948DOD     C345665  15.470   9.194  21.334  0.0589 -0.1240 -0.1282
33949DOD     C145666   9.870  12.829   9.047  0.1329  0.2500 -0.0606
33949DOD     C245667  10.011  13.127   9.293 -0.2257 -0.1301 -0.0790
33949DOD     C345668  10.023  13.486   9.648  0.1380 -0.3444  0.0739
33950DOD     C145669  17.809  29.325  19.662 -0.1750  0.2606 -0.2344
33950DOD     C245670  17.670  29.557  20.060 -0.0975 -0.1933  0.0915
33950DOD     C345671  17.504  29.524  20.528  0.0912  0.2035 -0.2646
33951DOD     C145672  12.687   5.234   0.129  0.1243  0.3204  0.0554
33951DOD     C245673  12.574   4.758   0.136  0.0622  0.1164  0.1259
33951DOD     C345674  12.706   4.326   0.254 -0.3035 -0.2379 -0.2290
33952DOD     C145675  21.032  17.056  24.229  0.1238  0.1092 -0.0712
33952DOD     C245676  21.245  16.648  24.386  0.1026 -0.0400 -0.1304
33952DOD     C345677  21.690  16.627  24.612  0.1412 -0.2856  0.0030
33953DOD     C145678  12.319  29.516  17.728 -0.2566  0.0430  0.0929
33953DOD     C245679  12.766  29.333  17.612  0.1385  0.0817 -0.2047
33953DOD     C345680  13.056  29.474  17.247  0.1064 -0.0405 -0.1665
33954DOD     C145681  13.098  24.072   8.489 -0.0262  0.0973 -0.0176
33954DOD     C245682  12.756  24.040   8.179  0.0028  0.1835 -0.3453
33954DOD     C345683  12.392  24.365   8.044  0.2905 -0.0681  0.2967
33955DOD     C145684  28.663  22.091  15.249  0.0582  0.2074  0.3601
33955DOD     C245685  29.044  22.321  15.358  0.0749  0.1418  0.0484
33955DOD     C345686  29.392  22.591  15.560  0.3296 -0.2356 -0.0645
33956DOD     C145687   8.782   9.776  15.348 -0.3047  0.2681 -0.0993
33956DOD     C245688   9.087  10.030  15.060 -0.2100 -0.0090 -0.0294
33956DOD     C345689   8.929  10.265  14.708 -0.1925  0.3495  0.1135
33957DOD     C145690  15.273  19.279   2.300  0.0066  0.1422  0.0154
33957DOD     C245691  15.711  19.086   2.272 -0.0258  0.1334 -0.0305
33957DOD     C345692  15.942  19.003   2.702  0.0121  0.3592 -0.1611
33958DOD     C145693   9.933   8.453   0.686 -0.2373 -0.0981 -0.3851
33958DOD     C245694  10.346   8.449   0.597  0.0337 -0.2887 -0.0993
33958DOD     C345695  10.698   8.188   0.412  0.0094  0.2498  0.1189
33959DOD     C145696  14.540  13.341  18.842  0.2978 -0.2651 -0.2965
33959DOD     C245697  14.235  13.339  18.491  0.0373  0.2592 -0.0747
33959DOD     C345698  13.820  13.408  18.220 -0.1298  0.1881 -0.0978
33960DOD     C145699   1.720  26.982  16.871  0.0050 -0.1873  0.0001
33960DOD     C245700   1.680  26.689  16.517  0.0033  0.2138  0.2549
33960DOD     C345701   1.372  26.462  16.318  0.0825  0.1368  0.1054
33961DOD     C145702   8.451   4.507  26.045  0.0657  0.3529 -0.0192
33961DOD     C245703   8.883   4.375  26.062 -0.2924  0.2573  0.0979
33961DOD     C345704   9.298   4.532  26.288 -0.0352  0.1017  0.1073
33962DOD     C145705  22.468   8.842  17.357 -0.1315  0.1847 -0.1847
33962DOD     C245706  22.324   9.048  17.785  0.3669  0.1725 -0.0288
33962DOD     C345707  22.550   8.906  18.117 -0.1501 -0.1880  0.0328
33963DOD     C145708  26.539   8.529   5.452  0.3687  0.1904 -0.2523
33963DOD     C245709  26.433   8.258   5.751 -0.0593 -0.0494  0.4717
33963DOD     C345710  26.295   8.379   6.147 -0.1093  0.0045  0.0021
33964DOD     C145711  23.988  11.044  26.463 -0.0576 -0.0529  0.3301
33964DOD     C245712  24.020  11.117  26.931  0.2412  0.2543  0.0811
33964DOD     C345713  24.009  10.738  27.210 -0.2536  0.0951 -0.0613
33965DOD     C145714   8.312  27.033  20.098 -0.4029  0.0103  0.1916
33965DOD     C245715   7.864  27.083  20.149 -0.2356 -0.3191 -0.0004
33965DOD     C345716   7.474  27.288  20.072  0.0483 -0.1569 -0.0148
33966DOD     C145717  28.231  25.503   2.558 -0.0507  0.0089 -0.2968
33966DOD     C245718  28.015  25.134   2.626 -0.1383 -0.0862 -0.0762
33966DOD     C345719  27.866  24.745   2.754  0.0368 -0.0335  0.2289
33967DOD     C145720  29.964   5.995  12.584  0.1310 -0.0550 -0.1212
33967DOD     C245721  30.165   5.747  12.286 -0.2993 -0.0220 -0.0292
33967DOD     C345722  30.313   5.875  11.824  0.1231  0.0666  0.1411
33968DOD     C145723  21.375   0.814  26.969  0.0958  0.0663  0.3881
33968DOD     C245724  21.602   0.668  27.302  0.0263 -0.0340 -0.2053
33968DOD     C345725  22.007   0.650  27.512  0.3544  0.1181 -0.0525
33969DOD     C145726  12.891  28.689  24.208  0.0499  0.2684 -0.1714
33969DOD     C245727  12.438  28.770  24.361  0.2684 -0.1972  0.3560
33969DOD     C345728  12.053  28.824  24.593  0.0775 -0.1997 -0.2386
33970DOD     C145729  15.067   9.611   3.988  0.0556  0.1150 -0.0407
33970DOD     C245730  14.921  10.031   3.874 -0.1954 -0.0879  0.2249
33970DOD     C345731  14.588  10.323   3.734 -0.2406 -0.1568  0.0453
33971DOD     C145732   3.888  16.594  25.564 -0.0694  0.3035  0.0412
33971DOD     C245733   4.049  16.617  25.107  0.1348  0.1264 -0.0472
33971DOD     C345734   3.926  16.658  24.655 -0.2039 -0.0259  0.0645
33972DOD     C145735   2.234   4.536  25.639 -0.0430 -0.1703  0.1123
33972DOD     C245736   2.648   4.732  25.622 -0.3285  0.0211  0.1360
33972DOD     C345737   3.018   4.599  25.873  0.0833 -0.2871 -0.2014
33973DOD     C145738   0.101   8.473  11.760  0.1944 -0.0038  0.0278
33973DOD     C245739   0.158   8.228  11.388  0.4653 -0.1779 -0.0114
33973DOD     C345740  30.188   8.063  11.050 -0.0052 -0.0584 -0.0003
33974DOD     C145741  11.300   8.628   1.392  0.0500 -0.1221 -0.1636
33974DOD     C245742  11.158   8.435   1.822 -0.1482  0.0557 -0.1172
33974DOD     C345743  11.260   8.113   2.118  0.0028  0.1756 -0.1659
33975DOD     C145744  15.308  20.072  24.339 -0.2048  0.1527 -0.0383
33975DOD     C245745  14.998  20.389  24.415 -0.0017  0.2586 -0.3680
33975DOD     C345746  14.624  20.641  24.519 -0.3136 -0.1128  0.2203
33976DOD     C145747  14.552  27.424  16.268 -0.1461 -0.0084  0.0225
33976DOD     C245748  14.958  27.297  16.097 -0.2462  0.2074  0.3388
33976DOD     C345749  15.393  27.168  15.917  0.1414  0.5235 -0.2410
33977DOD     C145750  19.899   2.469  26.084  0.0606  0.0638 -0.1354
33977DOD     C245751  19.935   2.656  26.471 -0.1444 -0.0502 -0.1194
33977DOD     C345752  20.150   2.963  26.733  0.1439  0.0164 -0.0609
33978DOD     C145753   3.207  13.314  16.900 -0.1504 -0.0558 -0.0160
33978DOD     C245754   3.605  13.141  16.796 -0.0936  0.0861  0.1129
33978DOD     C345755   3.976  13.143  17.053 -0.3741 -0.2144 -0.2102
33979DOD     C145756   8.401  26.184  11.030  0.2382 -0.3221  0.3670
33979DOD     C245757   8.113  26.388  11.420 -0.5956 -0.2284 -0.0827
33979DOD     C345758   7.998  26.444  11.899 -0.0534  0.0581  0.0521
33980DOD     C145759  23.753  11.142  10.645 -0.0452  0.0249 -0.0694
33980DOD     C245760  23.647  11.587  10.800 -0.2110 -0.0353 -0.0376
33980DOD     C345761  23.326  11.780  11.090 -0.1719  0.0087  0.1387
33981DOD     C145762  20.972  21.360  21.005 -0.1573 -0.0105 -0.1316
33981DOD     C245763  21.203  21.481  20.641 -0.0523  0.4212 -0.1073
33981DOD     C345764  21.323  21.637  20.251  0.2119 -0.0109 -0.0729
33982DOD     C145765  10.377  28.360   2.263 -0.1843 -0.3118 -0.1267
33982DOD     C245766  10.230  28.140   1.842 -0.0184 -0.1170 -0.2257
33982DOD     C345767  10.329  27.776   1.564 -0.0961  0.1373 -0.0204
33983DOD     C145768  24.167   8.067  30.261  0.3172  0.0841  0.2357
33983DOD     C245769  24.252   7.981  29.806  0.0370 -0.0774  0.0426
33983DOD     C345770  24.293   8.028  29.343  0.0758  0.0341  0.0595
33984DOD     C145771  24.157  16.630  14.313  0.0996  0.3066 -0.1067
33984DOD     C245772  23.799  16.936  14.372  0.1642 -0.2451 -0.0870
33984DOD     C345773  23.550  17.309  14.606  0.2168 -0.1561  0.1644
33985DOD     C145774   4.022  17.462  21.049  0.0107 -0.2810 -0.4150
33985DOD     C245775   3.723  17.358  20.691 -0.1073 -0.0161 -0.2155
33985DOD     C345776   3.431  17.260  20.387  0.0381  0.1057 -0.0327
33986DOD     C145777  10.779   8.869  18.061 -0.0740 -0.1607  0.2227
33986DOD     C245778  11.234   8.843  18.124 -0.0528  0.0195  0.0948
33986DOD     C345779  11.401   8.979  18.500 -0.2396  0.2807 -0.2654
33987DOD     C145780   7.184   0.529  23.616 -0.0833 -0.1693  0.0685
33987DOD     C245781   7.597   0.475  23.832  0.0238  0.2713  0.1879
33987DOD     C345782   8.012   0.290  23.781 -0.1833  0.2753  0.1657
33988DOD     C145783  27.945  25.336  23.734  0.2478 -0.1968 -0.3440
33988DOD     C245784  27.898  25.647  23.438  0.2337  0.0981  0.1097
33988DOD     C345785  27.732  25.961  23.071  0.2333 -0.1077  0.0124
33989DOD     C145786  18.451  16.797   8.301  0.0746 -0.0240  0.2326
33989DOD     C245787  18.282  17.178   8.431 -0.4413  0.1425 -0.0324
33989DOD     C345788  17.893  17.398   8.589  0.1644 -0.1626  0.0741
33990DOD     C145789  10.044  15.531  18.461 -0.0075  0.2802 -0.0176
33990DOD     C245790   9.774  15.746  18.136 -0.2167  0.2629  0.0130
33990DOD     C345791   9.820  16.105  17.843  0.1507 -0.0777 -0.1793
33991DOD     C145792  14.163  16.555  24.082 -0.1922 -0.0435 -0.0417
33991DOD     C245793  14.446  16.180  24.089  0.1349  0.2385  0.0111
33991DOD     C345794  14.870  16.066  24.210 -0.0992  0.1424 -0.1164
33992DOD     C145795  17.050  30.037   7.701  0.0229  0.0159  0.1035
33992DOD     C245796  16.834   0.035   7.394 -0.1175  0.0831 -0.0320
33992DOD     C345797  16.843   0.374   7.081  0.0811  0.1625 -0.1649
33993DOD     C145798  22.944   0.063  19.014 -0.2078 -0.0009  0.0647
33993DOD     C245799  23.123  -0.007  19.484 -0.4308 -0.1292  0.3820
33993DOD     C345800  23.192  30.182  19.949 -0.0443 -0.2035 -0.2107
33994DOD     C145801  22.126   3.442  21.042  0.0453 -0.0690 -0.1684
33994DOD     C245802  22.181   3.059  21.330 -0.2647 -0.0177  0.1106
33994DOD     C345803  22.122   2.986  21.757 -0.1734  0.0422  0.0595
33995DOD     C145804   3.770  15.955  15.185 -0.0247 -0.1659  0.1881
33995DOD     C245805   4.039  15.983  14.802 -0.1503  0.0235  0.0083
33995DOD     C345806   4.068  15.748  14.418  0.1069  0.1760  0.0207
33996DOD     C145807  10.436   7.471  18.140 -0.0682  0.0225  0.0149
33996DOD     C245808  10.492   7.019  18.157  0.1692  0.3135  0.2674
33996DOD     C345809  10.590   6.587  18.296 -0.2816  0.0718 -0.2049
33997DOD     C145810  19.061  25.765   9.151  0.1869  0.2561 -0.2083
33997DOD     C245811  19.052  25.314   9.054 -0.2428 -0.1828 -0.2710
33997DOD     C345812  19.141  25.048   8.701  0.1560 -0.1760  0.1379
33998DOD     C145813  12.430   0.744   1.180 -0.1558 -0.1285 -0.0541
33998DOD     C245814  12.125   0.606   1.525 -0.2506 -0.1904 -0.3662
33998DOD     C345815  11.893   0.368   1.898  0.3405  0.0050  0.0009
33999DOD     C145816  26.030  24.651   7.078  0.0246 -0.1489  0.1857
33999DOD     C245817  26.346  24.530   6.758 -0.2106 -0.1316 -0.0585
33999DOD     C345818  26.322  24.280   6.409  0.0032  0.4465 -0.1486
34000DOD     C145819   8.172  23.782  17.747  0.1117 -0.0411 -0.0144
34000DOD     C245820   8.524  23.545  18.046 -0.3122 -0.2134  0.0216
34000DOD     C345821   8.999  23.665  17.999 -0.0878  0.0809  0.1012
34001DOD     C145822  17.858   3.938   7.254 -0.0250  0.0645 -0.3557
34001DOD     C245823  17.630   4.270   7.545  0.2452  0.0259 -0.1048
34001DOD     C345824  17.572   4.511   7.916 -0.2415 -0.0731 -0.1963
34002DOD     C145825  20.731   7.953   7.382 -0.0932  0.0721  0.3180
34002DOD     C245826  20.762   7.540   7.126 -0.3169  0.3271 -0.4619
34002DOD     C345827  20.611   7.116   7.059  0.4087  0.3249  0.1823
34003DOD     C145828  13.866  22.947  16.314  0.1637  0.1072  0.0100
34003DOD     C245829  13.867  22.454  16.370 -0.2997  0.1943  0.1056
34003DOD     C345830  13.615  22.081  16.281  0.2158  0.2599  0.0384
34004DOD     C145831   6.809   4.464   8.438 -0.0181  0.2264  0.3945
34004DOD     C245832   6.721   4.654   8.000  0.1820 -0.2693  0.3152
34004DOD     C345833   6.415   4.468   7.655 -0.0138 -0.3248 -0.2915
34005DOD     C145834  13.994  18.476   8.569 -0.1021  0.0487 -0.1014
34005DOD     C245835  13.923  18.008   8.510  0.3878 -0.0252  0.3670
34005DOD     C345836  13.885  17.585   8.362 -0.0413 -0.1375  0.1555
34006DOD     C145837   6.658   1.953  27.217 -0.1101 -0.1382  0.1205
34006DOD     C245838   6.910   1.563  27.326 -0.0512  0.0959 -0.3495
34006DOD     C345839   7.281   1.606  27.661  0.0109 -0.3115  0.1445
34007DOD     C145840   6.733   2.077   4.131  0.2074  0.0268  0.0400
34007DOD     C245841   6.612   2.141   4.565  0.1248 -0.1488  0.1210
34007DOD     C345842   6.484   1.753   4.784 -0.1723 -0.2480 -0.0947
34008DOD     C145843  23.750  30.165   4.474  0.1670 -0.0786  0.1194
34008DOD     C245844  23.844  30.064   4.930 -0.0184  0.1719 -0.1523
34008DOD     C345845  23.930  30.118   5.404  0.2572  0.2803  0.1464
34009DOD     C145846   6.496  18.877  22.124  0.0049 -0.0158 -0.1330
34009DOD     C245847   6.251  18.849  21.790 -0.1388  0.0522  0.0657
34009DOD     C345848   5.871  18.791  21.598  0.2044  0.3755  0.0566
34010DOD     C145849  17.231  18.395  21.344  0.1810  0.1937 -0.0204
34010DOD     C245850  17.262  18.074  21.016  0.1214 -0.1748 -0.2876
34010DOD     C345851  17.231  18.115  20.520  0.0614 -0.0684 -0.0619
34011DOD     C145852  30.262  25.481  19.050  0.0557 -0.1693  0.0045
34011DOD     C245853   0.053  25.085  19.307 -0.4591  0.0102  0.1797
34011DOD     C345854   0.160  24.793  19.630  0.1726 -0.5243  0.1674
34012DOD     C145855   5.879  19.014   7.894  0.0478  0.1067  0.2481
34012DOD     C245856   5.643  18.681   7.759 -0.2476 -0.1504  0.2063
34012DOD     C345857   5.599  18.212   7.907  0.1546  0.0810 -0.0196
34013DOD     C145858  25.005   4.417   7.511 -0.3671  0.0099 -0.1502
34013DOD     C245859  25.358   4.237   7.728 -0.2683 -0.0089 -0.1738
34013DOD     C345860  25.461   3.937   8.097  0.0436 -0.1508 -0.1235
34014DOD     C145861  11.355  23.628  13.441 -0.3917  0.3669  0.0770
34014DOD     C245862  10.890  23.770  13.403 -0.0338  0.0163  0.2894
34014DOD     C345863  10.536  23.685  13.662 -0.1394 -0.1837 -0.1933
34015DOD     C145864   9.682  24.839   6.478  0.1449 -0.3750  0.0036
34015DOD     C245865  10.054  25.016   6.711 -0.0161 -0.2170  0.2724
34015DOD     C345866  10.300  24.973   7.102 -0.0626  0.4598 -0.1801
34016DOD     C145867   5.451  26.302   6.092  0.0759  0.0763 -0.0877
34016DOD     C245868   5.403  26.466   6.534 -0.1948 -0.0149 -0.1806
34016DOD     C345869   5.453  26.738   6.939 -0.0553 -0.0008  0.0143
34017DOD     C145870  15.544  19.313   2.738 -0.1897 -0.2494 -0.0448
34017DOD     C245871  15.416  18.813   2.724  0.2845  0.1277  0.0239
34017DOD     C345872  15.667  18.488   2.981 -0.0772 -0.2382 -0.2679
34018DOD     C145873  28.579  22.618   1.834 -0.1076 -0.2396  0.0230
34018DOD     C245874  28.502  22.522   1.380  0.1848  0.0029  0.1916
34018DOD     C345875  28.436  22.290   1.014 -0.1677  0.0907  0.1510
34019DOD     C145876  21.041   7.529   0.661 -0.1661 -0.2179 -0.3004
34019DOD     C245877  20.768   7.822   0.324  0.0293 -0.2309 -0.0467
34019DOD     C345878  20.584   7.919  30.222  0.0733 -0.0299  0.1851
34020DOD     C145879   5.615   3.153   4.462  0.0204 -0.3989 -0.3322
34020DOD     C245880   5.546   3.562   4.363  0.0069 -0.1264 -0.0049
34020DOD     C345881   5.763   3.851   4.099  0.2657 -0.2887 -0.4932
34021DOD     C145882  29.699  12.169  11.305  0.1860  0.3142  0.0106
34021DOD     C245883  29.318  12.388  11.225 -0.1135 -0.0356 -0.1078
34021DOD     C345884  28.990  12.688  10.984  0.0279  0.0274  0.1366
34022DOD     C145885   9.560  20.498   6.611  0.0997  0.3855  0.2148
34022DOD     C245886   9.796  20.487   6.237  0.2061 -0.1362 -0.2716
34022DOD     C345887   9.856  20.644   5.788 -0.0708 -0.1861  0.2343
34023DOD     C145888  10.833  18.554  22.950 -0.5651 -0.0537  0.3386
34023DOD     C245889  11.164  18.832  23.153  0.2017  0.1143 -0.4142
34023DOD     C345890  11.240  18.885  23.601 -0.2440  0.3647 -0.0638
34024DOD     C145891  16.645  14.659  18.134 -0.0238  0.1029  0.2932
34024DOD     C245892  16.748  14.354  18.471 -0.0124 -0.0644  0.0845
34024DOD     C345893  16.967  13.906  18.390  0.0399 -0.3904 -0.0667
34025DOD     C145894  12.866  15.565  28.912  0.1289 -0.0785 -0.2647
34025DOD     C245895  12.499  15.287  29.058  0.1293 -0.4469  0.1854
34025DOD     C345896  12.087  15.082  29.209  0.0793 -0.1584  0.0075
34026DOD     C145897  21.781   1.078  21.595  0.1952 -0.2421  0.0940
34026DOD     C245898  22.101   0.995  21.244  0.2589 -0.0603  0.0687
34026DOD     C345899  22.506   0.960  21.339 -0.1626 -0.0092 -0.1400
34027DOD     C145900  17.644  11.380  17.324 -0.1081 -0.0637 -0.0325
34027DOD     C245901  17.451  11.837  17.228 -0.4143  0.1985  0.1941
34027DOD     C345902  17.498  12.250  17.368  0.1117  0.0664 -0.3051
34028DOD     C145903  13.874  18.032  19.843  0.1821 -0.1643  0.0075
34028DOD     C245904  14.113  17.630  19.841 -0.0983 -0.2724 -0.2673
34028DOD     C345905  14.036  17.160  19.868  0.1419 -0.0625  0.1920
34029DOD     C145906  14.631  24.755  23.621  0.1523  0.0625  0.0783
34029DOD     C245907  14.575  25.158  23.791 -0.2744  0.2039 -0.0945
34029DOD     C345908  14.695  25.597  23.719 -0.1472  0.0152  0.0319
34030DOD     C145909   7.217  11.723   5.314 -0.3859  0.1468 -0.0018
34030DOD     C245910   7.576  11.840   5.037 -0.1354  0.0613  0.0168
34030DOD     C345911   7.828  11.908   4.669 -0.2905  0.2026 -0.0623
34031DOD     C145912  14.894  20.684  26.966  0.0455 -0.3028  0.0534
34031DOD     C245913  15.211  20.939  27.187 -0.1140  0.2510 -0.0402
34031DOD     C345914  15.257  21.183  27.574  0.3048 -0.1833  0.0595
34032DOD     C145915   6.351   8.010  13.610 -0.1213 -0.0065 -0.1720
34032DOD     C245916   6.148   7.665  13.499  0.1077 -0.0079  0.3160
34032DOD     C345917   5.967   7.299  13.373 -0.1699  0.0370 -0.0858
34033DOD     C145918  15.656  12.336  24.657  0.0884 -0.0259  0.1905
34033DOD     C245919  15.750  12.097  24.235 -0.0512 -0.0094  0.2375
34033DOD     C345920  15.616  11.787  23.927  0.0211 -0.3017  0.2376
34034DOD     C145921   5.539  21.009  25.530  0.2063 -0.0269 -0.1398
34034DOD     C245922   5.472  20.661  25.276 -0.1195  0.0422 -0.0490
34034DOD     C345923   5.211  20.262  25.139 -0.0710  0.0856 -0.3243
34035DOD     C145924  17.412  14.253  15.787 -0.4029  0.2293  0.2632
34035DOD     C245925  17.004  14.517  15.649 -0.1075 -0.0713 -0.0874
34035DOD     C345926  16.607  14.603  15.391 -0.0684 -0.2193 -0.0377
34036DOD     C145927   7.312  16.383   3.968 -0.2075  0.0024 -0.3171
34036DOD     C245928   7.080  16.515   4.355  0.2988 -0.1267  0.2352
34036DOD     C345929   7.245  16.798   4.738 -0.3203 -0.0397 -0.0996
34037DOD     C145930   7.525  11.546   1.196 -0.1391  0.2097 -0.0343
34037DOD     C245931   7.783  11.205   1.271  0.1218  0.2168  0.0055
34037DOD     C345932   8.109  10.871   1.070 -0.0742  0.1318 -0.1222
34038DOD     C145933  27.643  25.136  17.899  0.0415  0.2917  0.0781
34038DOD     C245934  27.202  25.002  18.084 -0.2060 -0.2360 -0.2313
34038DOD     C345935  26.770  24.783  18.149 -0.0709  0.0051 -0.1955
34039DOD     C145936  10.487  14.553  24.978 -0.1950 -0.0775  0.0297
34039DOD     C245937  10.274  14.224  25.088  0.1206 -0.0962  0.1156
34039DOD     C345938  10.180  13.805  25.246 -0.0214  0.1978 -0.1301
34040DOD     C145939   1.226  29.312  19.490  0.1587  0.1460 -0.1736
34040DOD     C245940   1.482  29.276  19.116 -0.1376  0.0495 -0.1197
34040DOD     C345941   1.565  29.519  18.750  0.1017  0.3114  0.3644
34041DOD     C145942  17.184  22.569  22.460 -0.1152  0.5490 -0.0035
34041DOD     C245943  16.814  22.829  22.535 -0.1189 -0.1329 -0.1229
34041DOD     C345944  16.596  23.212  22.394 -0.1899  0.1002  0.0707
34042DOD     C145945  10.177  21.725   1.741 -0.3267 -0.0502 -0.0200
34042DOD     C245946  10.489  21.864   1.398 -0.0746  0.1186  0.1069
34042DOD     C345947  10.828  21.597   1.188  0.0866  0.0127 -0.2113
34043DOD     C145948   0.046  22.328  24.471 -0.0657 -0.0329  0.0780
34043DOD     C245949  30.195  22.697  24.203 -0.1408  0.0495  0.0761
34043DOD     C345950  30.336  22.682  23.717  0.4272 -0.0420  0.1739
34044DOD     C145951  20.123   4.611   0.837 -0.3062 -0.1147  0.2640
34044DOD     C245952  19.834   4.308   0.742  0.5110 -0.1516 -0.3414
34044DOD     C345953  19.340   4.289   0.854  0.0096 -0.0431 -0.1114
34045DOD     C145954   0.933  12.357  28.215  0.1823 -0.2249 -0.1385
34045DOD     C245955   1.249  12.440  28.542 -0.2545 -0.2090  0.0606
34045DOD     C345956   1.583  12.687  28.749 -0.0095 -0.1167  0.2967
34046DOD     C145957   6.847  27.625  20.188 -0.2489  0.1490 -0.0477
34046DOD     C245958   6.408  27.664  19.966  0.1073  0.4446 -0.0264
34046DOD     C345959   5.977  27.481  19.850  0.1257  0.1208 -0.4433
34047DOD     C145960  30.132   2.593   4.466 -0.1374  0.1975 -0.2149
34047DOD     C245961  29.670   2.637   4.650  0.0358  0.1860  0.0161
34047DOD     C345962  29.247   2.647   4.487 -0.2530  0.1022 -0.0928
34048DOD     C145963  26.740   7.478  15.782  0.0601 -0.2020  0.0059
34048DOD     C245964  26.825   7.086  15.564 -0.0558 -0.2634  0.1185
34048DOD     C345965  27.096   6.805  15.359  0.2599 -0.0861  0.2073
34049DOD     C145966  10.489  24.355   1.214 -0.2239 -0.2015 -0.2298
34049DOD     C245967  10.701  24.726   0.997  0.3052  0.2369  0.2802
34049DOD     C345968  11.068  24.973   1.033 -0.0265 -0.0161 -0.2272
34050DOD     C145969  21.562  23.356  27.295 -0.0140 -0.0932 -0.0505
34050DOD     C245970  21.387  23.085  27.630  0.0910 -0.1805 -0.0732
34050DOD     C345971  20.963  23.088  27.709  0.1195  0.1091  0.1813
34051DOD     C145972  18.759  27.127  26.418 -0.2780 -0.1762 -0.0405
34051DOD     C245973  18.595  27.019  25.970  0.3746  0.2254 -0.1605
34051DOD     C345974  18.282  26.859  25.673 -0.2982 -0.1826 -0.1074
34052DOD     C145975  25.142  29.716   7.449 -0.2092 -0.0238  0.0931
34052DOD     C245976  25.071  29.653   7.870  0.2013 -0.0276 -0.2317
34052DOD     C345977  24.965  29.474   8.320  0.0063  0.1544  0.0983
34053DOD     C145978   3.932  19.616  20.874  0.2220  0.0429 -0.1539
34053DOD     C245979   4.314  19.947  20.939 -0.1317  0.1676 -0.3446
34053DOD     C345980   4.761  20.095  20.814 -0.0906  0.1141  0.1460
34054DOD     C145981   4.738   9.858  16.902 -0.0040 -0.2130 -0.1291
34054DOD     C245982   5.067   9.600  16.730  0.3381 -0.1902  0.0163
34054DOD     C345983   5.228   9.166  16.712 -0.0716  0.3159  0.4668
34055DOD     C145984  23.586  27.363   4.666 -0.2629  0.2044  0.0052
34055DOD     C245985  23.637  27.685   4.976  0.0188 -0.2611  0.1075
34055DOD     C345986  23.869  27.927   5.301  0.2416  0.2686  0.2895
34056DOD     C145987  12.651  27.878   9.855 -0.1360  0.0662 -0.0431
34056DOD     C245988  12.711  27.869  10.308 -0.0818  0.0794 -0.0725
34056DOD     C345989  13.059  27.581  10.484  0.0867 -0.4433 -0.1036
34057DOD     C145990  21.304   7.696  22.701  0.2696  0.3595 -0.2170
34057DOD     C245991  21.333   7.517  22.295 -0.1152 -0.1473  0.0543
34057DOD     C345992  21.355   7.306  21.845 -0.0703 -0.1656  0.1653
34058DOD     C145993  24.012  29.784  19.954  0.1836 -0.3759 -0.3156
34058DOD     C245994  23.707  30.117  20.045  0.1636 -0.0768 -0.0029
34058DOD     C345995  23.616   0.192  19.809 -0.1237 -0.2433 -0.0561
34059DOD     C145996  26.073  16.311   7.315  0.0562  0.1227 -0.2720
34059DOD     C245997  25.734  16.066   7.067  0.0465 -0.1248  0.3703
34059DOD     C345998  25.515  15.755   6.807 -0.1402  0.1109  0.3310
34060DOD     C145999  17.904   8.947   6.177 -0.1755 -0.4601 -0.2867
34060DOD     C246000  17.573   8.865   6.466 -0.4563  0.0243  0.1546
34060DOD     C346001  17.457   9.059   6.840 -0.0698 -0.0826 -0.2889
34061DOD     C146002  21.211  27.381   3.685 -0.0990 -0.0670  0.1090
34061DOD     C246003  21.246  27.870   3.606 -0.4014 -0.0256 -0.3791
34061DOD     C346004  21.347  28.352   3.562  0.0463 -0.1392  0.1466
34062DOD     C146005   7.551  21.396   0.483 -0.0151  0.1555 -0.2926
34062DOD     C246006   7.721  21.487   0.878  0.1218  0.0740  0.2428
34062DOD     C346007   7.691  21.658   1.286  0.0818  0.1180 -0.1445
34063DOD     C146008  19.643  17.240  24.452  0.2785 -0.1594 -0.0572
34063DOD     C246009  20.088  17.184  24.249 -0.1653 -0.0836 -0.1519
34063DOD     C346010  20.442  17.430  24.302  0.1229  0.0860  0.0365
34064DOD     C146011   3.160  19.403  15.275 -0.2624  0.0451 -0.1500
34064DOD     C246012   3.532  19.416  15.535 -0.1452  0.1176 -0.3511
34064DOD     C346013   3.878  19.127  15.654 -0.1271  0.0094  0.1730
34065DOD     C146014   1.558   3.364   5.328  0.0053  0.1550 -0.2480
34065DOD     C246015   2.007   3.277   5.399 -0.0117  0.3272  0.0289
34065DOD     C346016   2.392   3.396   5.308 -0.0910 -0.1967  0.3206
34066DOD     C146017  27.842  11.036  19.854  0.0573  0.3254  0.0098
34066DOD     C246018  28.009  10.661  20.005  0.0283 -0.1289 -0.1952
34066DOD     C346019  28.362  10.314  19.900  0.0526 -0.0063  0.0847
34067DOD     C146020   7.476  12.914  12.122  0.1327 -0.1932  0.0933
34067DOD     C246021   7.704  13.036  12.434 -0.2955 -0.1577 -0.3586
34067DOD     C346022   8.125  13.180  12.625  0.1400  0.3716 -0.3961
34068DOD     C146023   9.181   3.040   6.971  0.0563 -0.0688  0.1782
34068DOD     C246024   9.031   2.966   7.400 -0.0196  0.0395 -0.1643
34068DOD     C346025   9.042   2.977   7.885  0.1395  0.1809 -0.1236
34069DOD     C146026  25.520   9.764  19.064 -0.0535 -0.2072 -0.2085
34069DOD     C246027  25.540   9.835  19.518 -0.0114  0.2999 -0.2071
34069DOD     C346028  25.512   9.635  19.953 -0.0233 -0.2344  0.1736
34070DOD     C146029   5.707  13.337   9.453 -0.2965  0.1643  0.1851
34070DOD     C246030   6.063  13.114   9.209  0.0288 -0.1892 -0.2457
34070DOD     C346031   6.266  12.753   9.043 -0.3474 -0.0842  0.1188
34071DOD     C146032   0.002  20.740   3.793  0.0178 -0.1919 -0.3505
34071DOD     C246033  -0.001  20.780   3.323  0.1041  0.0456  0.0707
34071DOD     C346034   0.116  21.230   3.106 -0.4417  0.1729 -0.2507
34072DOD     C146035   6.776   9.847   6.533  0.0514 -0.0128 -0.2339
34072DOD     C246036   7.116   9.944   6.328 -0.0725  0.2239 -0.2638
34072DOD     C346037   7.328  10.232   6.035  0.0591  0.3795  0.0825
34073DOD     C146038  25.460  17.063  30.158 -0.0020 -0.0188 -0.0696
34073DOD     C246039  24.976  17.087  30.161  0.1411  0.1157 -0.0797
34073DOD     C346040  24.602  17.298  29.988 -0.0442 -0.2047 -0.0132
34074DOD     C146041  20.031   7.919  23.757 -0.1547  0.3244  0.2216
34074DOD     C246042  19.919   8.216  23.399  0.0605 -0.0811 -0.0022
34074DOD     C346043  20.041   8.519  23.037 -0.1314 -0.1549 -0.2342
34075DOD     C146044  26.994   3.141   1.600 -0.1106 -0.1932  0.2059
34075DOD     C246045  26.674   3.103   1.899  0.0329  0.2364  0.1059
34075DOD     C346046  26.430   3.507   2.059 -0.1724  0.1844 -0.3017
34076DOD     C146047   0.233  15.819  11.989  0.1024 -0.2345  0.3517
34076DOD     C246048   0.508  15.821  11.583 -0.1462  0.0417 -0.1427
34076DOD     C346049   0.676  15.498  11.352 -0.0890  0.1315 -0.1402
34077DOD     C146050   2.227   9.982  25.037  0.1378  0.0804 -0.0971
34077DOD     C246051   2.269  10.325  25.342 -0.2657 -0.3581 -0.2540
34077DOD     C346052   2.456  10.698  25.550  0.1908 -0.0447  0.1000
34078DOD     C146053   0.512   7.770  20.752  0.1577 -0.2481  0.1591
34078DOD     C246054   0.825   7.514  20.536  0.0873 -0.2821 -0.1104
34078DOD     C346055   0.972   7.092  20.441 -0.1463 -0.1031  0.3363
34079DOD     C146056  28.055  28.076  21.983  0.1887 -0.0469  0.1771
34079DOD     C246057  28.066  27.764  21.697  0.2934  0.2608 -0.1421
34079DOD     C346058  28.299  27.683  21.291  0.1380  0.0964 -0.2220
34080DOD     C146059  14.797  18.821  19.383 -0.0719  0.2048 -0.0248
34080DOD     C246060  14.661  18.407  19.587 -0.2298 -0.1574  0.0895
34080DOD     C346061  14.376  18.063  19.612  0.2978  0.0612 -0.0854
34081DOD     C146062   1.176  25.401   2.011  0.1013  0.1221  0.0918
34081DOD     C246063   1.097  25.588   1.556  0.0007 -0.2505 -0.3263
34081DOD     C346064   0.727  25.656   1.258 -0.1412  0.3956  0.3919
34082DOD     C146065  14.574   8.366   5.461  0.3138 -0.0065 -0.1777
34082DOD     C246066  14.802   8.182   5.797 -0.1628  0.3285 -0.0581
34082DOD     C346067  14.675   8.169   6.248  0.1508 -0.2532  0.3001
34083DOD     C146068  16.471   7.206  22.278  0.0314  0.1108 -0.0592
34083DOD     C246069  16.183   7.470  22.568  0.0821  0.0324 -0.2134
34083DOD     C346070  16.082   7.563  23.013 -0.1740  0.0498 -0.1511
34084DOD     C146071  14.547   1.635  22.031 -0.2765 -0.2207  0.0368
34084DOD     C246072  14.854   1.855  21.683  0.1973 -0.0188  0.2567
34084DOD     C346073  15.342   1.934  21.594  0.1432 -0.6492 -0.1154
34085DOD     C146074  29.624   5.658  18.504 -0.1635 -0.0821  0.0063
34085DOD     C246075  29.346   5.988  18.535  0.0139 -0.0422  0.2214
34085DOD     C346076  29.067   6.175  18.901 -0.0276  0.2098  0.0550
34086DOD     C146077  30.205  15.579  29.347  0.0963  0.0587  0.1485
34086DOD     C246078   0.313  15.625  29.574  0.2563 -0.0597  0.0759
34086DOD     C346079   0.785  15.666  29.644  0.3097 -0.2547 -0.1216
34087DOD     C146080   7.205   2.110  20.842 -0.1033 -0.1392  0.0006
34087DOD     C246081   7.025   2.231  20.458 -0.1121  0.2385 -0.1876
34087DOD     C346082   6.933   2.666  20.252  0.0809  0.0646 -0.0975
34088DOD     C146083  19.857   0.134  17.374  0.1938 -0.1623  0.0523
34088DOD     C246084  19.469  30.227  17.183  0.1982 -0.2768  0.0118
34088DOD     C346085  19.246  29.884  17.021 -0.1957 -0.2838  0.0308
34089DOD     C146086   7.675  11.396  10.352  0.0656 -0.0117 -0.2126
34089DOD     C246087   7.337  11.345  10.668  0.4108  0.0401 -0.0005
34089DOD     C346088   6.975  11.208  10.879  0.0365  0.2561  0.1525
34090DOD     C146089  21.783  16.313  21.715 -0.0503 -0.0092  0.0665
34090DOD     C246090  21.746  16.796  21.564 -0.2082  0.3958 -0.2670
34090DOD     C346091  21.365  17.069  21.501 -0.0867 -0.0894 -0.1417
34091DOD     C146092   8.083  11.934   5.177 -0.0472 -0.0800  0.2246
34091DOD     C246093   8.508  12.155   5.260 -0.0225 -0.0788  0.1626
34091DOD     C346094   8.845  12.394   5.435 -0.0817 -0.1569 -0.1537
34092DOD     C146095  13.025  16.660   4.695  0.0859 -0.2081 -0.0411
34092DOD     C246096  12.955  16.216   4.683  0.1807 -0.2188 -0.2441
34092DOD     C346097  12.569  15.936   4.818  0.1614  0.0888 -0.0794
34093DOD     C146098  16.139   6.190   4.177  0.3499 -0.0332 -0.3017
34093DOD     C246099  16.561   6.074   4.323  0.1381 -0.3093  0.3022
34093DOD     C346100  17.041   5.952   4.318 -0.0311  0.0206 -0.1720
34094DOD     C146101  28.176  12.761  27.258  0.0414 -0.3118  0.0088
34094DOD     C246102  27.962  12.398  27.079 -0.4758 -0.0630  0.2932
34094DOD     C346103  28.159  11.978  27.248 -0.0640  0.0163 -0.0163
34095DOD     C146104   8.823   8.977  19.032 -0.0708 -0.4298 -0.4878
34095DOD     C246105   8.830   9.464  19.043  0.0808 -0.1246 -0.0400
34095DOD     C346106   8.857   9.702  19.468  0.1538  0.0490 -0.3376
34096DOD     C146107  12.185   3.502   1.648 -0.0265  0.1146 -0.3514
34096DOD     C246108  11.907   3.897   1.777 -0.1283  0.0178  0.0963
34096DOD     C346109  11.748   4.321   1.672 -0.0710 -0.1676  0.1368
34097DOD     C146110  22.760   1.169  11.817 -0.1224 -0.1137  0.0130
34097DOD     C246111  22.848   1.144  11.379 -0.0940 -0.2442  0.0437
34097DOD     C346112  22.654   0.810  11.056 -0.3964 -0.4017 -0.0081
34098DOD     C146113  27.048  12.671   8.492  0.0607  0.2018 -0.1367
34098DOD     C246114  26.823  12.446   8.158  0.1302 -0.1415  0.2145
34098DOD     C346115  26.472  12.456   7.832  0.1784  0.1529  0.2651
34099DOD     C146116  10.263   9.342   6.077 -0.0797  0.2541 -0.3211
34099DOD     C246117  10.377   9.715   5.934 -0.0409  0.5150  0.0652
34099DOD     C346118  10.221   9.984   5.655  0.0928  0.1195  0.1708
34100DOD     C146119  26.348   7.704  25.366  0.1873  0.0779  0.2222
34100DOD     C246120  26.317   8.199  25.296  0.0665 -0.0013 -0.3773
34100DOD     C346121  26.204   8.555  25.167  0.3342 -0.2408  0.0232
34101DOD     C146122  14.183  15.319  22.555 -0.0505  0.0711  0.0055
34101DOD     C246123  14.466  15.463  22.244  0.1103  0.1564 -0.1348
34101DOD     C346124  14.903  15.352  22.083  0.0224  0.2357 -0.1398
34102DOD     C146125   5.324  21.270  30.019  0.1656  0.2513 -0.4280
34102DOD     C246126   5.713  21.522  29.898  0.0079  0.0539  0.1834
34102DOD     C346127   6.156  21.512  29.754 -0.2313 -0.3345 -0.1831
34103DOD     C146128  10.800  20.023   6.176  0.2975  0.4116 -0.0274
34103DOD     C246129  10.556  20.344   6.422  0.0388  0.1141  0.1313
34103DOD     C346130  10.284  20.763   6.498 -0.0716 -0.0012 -0.1186
34104DOD     C146131  28.949   0.346  15.019 -0.0746  0.2324  0.0549
34104DOD     C246132  28.527   0.138  15.257 -0.1927  0.0660  0.4874
34104DOD     C346133  28.345  30.072  15.340 -0.2004  0.1301  0.0566
34105DOD     C146134  26.417  21.593   7.109  0.4314  0.1157 -0.0813
34105DOD     C246135  26.870  21.409   7.124  0.0551  0.2572  0.1698
34105DOD     C346136  27.162  21.220   6.778  0.1876 -0.1617  0.3119
34106DOD     C146137  10.400   3.465   6.056  0.2312 -0.0562  0.2778
34106DOD     C246138  10.851   3.381   5.929  0.4306  0.1238  0.1347
34106DOD     C346139  11.165   3.030   5.858  0.2929  0.1787  0.0106
34107DOD     C146140  13.488  29.150   2.207 -0.3195  0.2897  0.0012
34107DOD     C246141  13.771  29.490   2.320  0.0661 -0.0436  0.1629
34107DOD     C346142  13.886  29.905   2.357  0.0206 -0.0937 -0.1302
34108DOD     C146143  17.921   7.083  24.289  0.0635 -0.1924  0.1266
34108DOD     C246144  17.884   7.340  24.644 -0.1623 -0.0255  0.0116
34108DOD     C346145  17.823   7.603  25.023 -0.0101 -0.0458  0.0588
34109DOD     C146146  11.147  28.603  29.499 -0.3394  0.3689 -0.1268
34109DOD     C246147  11.185  28.637  29.961  0.1304 -0.0119 -0.2092
34109DOD     C346148  11.075  28.738   0.106 -0.1396  0.0243  0.4857
34110DOD     C146149  15.515  26.011  13.456  0.0009 -0.0604  0.0864
34110DOD     C246150  15.069  26.061  13.327  0.1085 -0.0577 -0.0383
34110DOD     C346151  14.649  26.041  13.498  0.1201  0.1087  0.0189
34111DOD     C146152  21.154  15.668  23.238 -0.1391 -0.0730  0.0978
34111DOD     C246153  21.370  15.281  23.225 -0.1362  0.2178  0.1305
34111DOD     C346154  21.596  14.999  23.561 -0.0938 -0.2250  0.1753
34112DOD     C146155  22.858  29.571  11.830  0.0266 -0.1113  0.0780
34112DOD     C246156  22.482  29.764  12.077 -0.0691 -0.1035 -0.0378
34112DOD     C346157  22.542  29.929  12.457  0.1231 -0.2779 -0.0022
34113DOD     C146158  24.820  15.232   0.223  0.2645  0.3670  0.0529
34113DOD     C246159  24.704  15.285   0.668  0.0554 -0.0988 -0.1353
34113DOD     C346160  24.752  15.130   1.098  0.1005  0.1870  0.0364
34114DOD     C146161  25.015  16.423  10.590 -0.2192 -0.0031  0.1813
34114DOD     C246162  25.207  16.567  10.176 -0.1284  0.0191 -0.2002
34114DOD     C346163  25.407  16.907   9.971  0.0706 -0.1277  0.1155
34115DOD     C146164   9.092  17.724  13.878 -0.0150  0.4279 -0.0770
34115DOD     C246165   9.314  17.642  13.466  0.0093  0.1682 -0.1388
34115DOD     C346166   9.499  17.766  13.104  0.4743 -0.0609  0.2325
34116DOD     C146167   5.944  20.036  23.883 -0.5115 -0.1432 -0.2572
34116DOD     C246168   6.100  20.445  24.079  0.1956  0.2524 -0.0339
34116DOD     C346169   6.123  20.875  24.217 -0.0123  0.2182  0.3791
34117DOD     C146170  19.460   8.537   0.254  0.0998  0.3331  0.3465
34117DOD     C246171  19.258   8.956   0.138  0.2206 -0.4321  0.0773
34117DOD     C346172  19.432   9.263  30.115 -0.0463 -0.1988 -0.1217
34118DOD     C146173  14.047   7.000   5.010  0.0469  0.0872 -0.0164
34118DOD     C246174  14.254   6.920   4.625  0.1669  0.0266  0.1454
34118DOD     C346175  14.650   6.752   4.405  0.4339 -0.1155  0.0246
34119DOD     C146176  28.477   7.337  26.777  0.2937 -0.1330  0.0026
34119DOD     C246177  28.572   7.306  26.316  0.2603  0.0468  0.0867
34119DOD     C346178  28.197   7.147  26.008  0.3342  0.1004 -0.1131
34120DOD     C146179  22.022   7.319  25.088 -0.1225 -0.0123  0.2029
34120DOD     C246180  22.119   7.358  25.507 -0.2182 -0.1896 -0.0629
34120DOD     C346181  22.295   6.997  25.708 -0.1715 -0.1995 -0.1895
34121DOD     C146182  20.849  22.407  22.071  0.0153  0.0790  0.1710
34121DOD     C246183  20.576  22.756  22.217  0.0620  0.0413 -0.1454
34121DOD     C346184  20.119  22.726  22.154 -0.2866 -0.1925  0.1546
34122DOD     C146185   9.191   5.315  29.179 -0.0486 -0.2703  0.0461
34122DOD     C246186   9.476   5.145  29.489  0.2604 -0.1709  0.1164
34122DOD     C346187   9.368   4.795  29.771  0.0745  0.1449 -0.2783
34123DOD     C146188  29.793  14.188  21.164 -0.1878  0.1053  0.0215
34123DOD     C246189  29.393  14.108  21.009 -0.1991 -0.2221 -0.3092
34123DOD     C346190  29.156  13.848  20.692  0.0932  0.1015 -0.0532
34124DOD     C146191   6.039  18.993  10.627 -0.0146 -0.2063  0.1561
34124DOD     C246192   6.192  19.156  11.057 -0.1358 -0.1473  0.0488
34124DOD     C346193   6.146  19.309  11.535  0.1726  0.0976  0.1395
34125DOD     C146194   5.709  28.299   2.265  0.0238 -0.0198  0.0345
34125DOD     C246195   5.413  27.946   2.168  0.1862  0.1390 -0.1385
34125DOD     C346196   5.121  27.685   1.921 -0.0912 -0.0155 -0.1932
34126DOD     C146197  14.077   7.244   9.806 -0.2307  0.1607  0.0431
34126DOD     C246198  14.520   7.257   9.610  0.0267 -0.2131  0.2670
34126DOD     C346199  14.663   7.247   9.198  0.0227 -0.1810  0.3669
34127DOD     C146200  10.268  26.385   9.508 -0.0208  0.1189 -0.0606
34127DOD     C246201  10.193  25.949   9.792 -0.0595 -0.4072  0.0505
34127DOD     C346202  10.310  25.497   9.964 -0.0648 -0.2988  0.0544
34128DOD     C146203   9.071  23.957   0.083  0.0662  0.0303  0.2036
34128DOD     C246204   9.120  24.376   0.269 -0.0247 -0.1203 -0.0141
34128DOD     C346205   9.272  24.818   0.218 -0.3375  0.0325 -0.3756
34129DOD     C146206  17.261  26.664  28.556  0.0212 -0.0537  0.3948
34129DOD     C246207  16.841  26.730  28.710 -0.0951  0.1087  0.4343
34129DOD     C346208  16.548  26.615  29.048 -0.1396 -0.1004 -0.4855
34130DOD     C146209  19.183  24.676  28.153  0.4615 -0.3678  0.1015
34130DOD     C246210  19.594  24.707  27.873  0.2546  0.1104 -0.0090
34130DOD     C346211  19.876  25.100  27.924 -0.0696  0.0201 -0.1187
34131DOD     C146212  25.743  27.159  15.377  0.2766  0.2663 -0.1365
34131DOD     C246213  25.739  27.243  15.821  0.0560  0.0562  0.1122
34131DOD     C346214  25.550  27.419  16.217 -0.1749 -0.1185  0.2076
34132DOD     C146215  11.183   0.642   6.676 -0.0642  0.1584  0.3231
34132DOD     C246216  11.087   0.941   7.044  0.0314  0.3346  0.1437
34132DOD     C346217  10.731   0.840   7.326 -0.3226 -0.1548 -0.2935
34133DOD     C146218  10.492  12.494  24.595  0.2298  0.0648  0.0748
34133DOD     C246219  10.035  12.534  24.703 -0.1985 -0.2872 -0.2479
34133DOD     C346220   9.596  12.705  24.763  0.0320 -0.1291 -0.1434
34134DOD     C146221   5.857  30.255   4.624  0.1917 -0.1811  0.1395
34134DOD     C246222   5.686   0.240   4.302 -0.0249  0.0004 -0.1456
34134DOD     C346223   5.362   0.327   3.981 -0.0186 -0.3656 -0.1128
34135DOD     C146224  17.245  20.675  27.264  0.1247 -0.0315  0.2392
34135DOD     C246225  17.734  20.478  27.238 -0.2614  0.0473  0.0226
34135DOD     C346226  18.105  20.210  27.437  0.2901 -0.3455  0.0095
34136DOD     C146227   0.478  23.657  27.706 -0.1161  0.0467 -0.4921
34136DOD     C246228   0.423  23.391  28.147 -0.1066 -0.1795 -0.2280
34136DOD     C346229   0.584  23.123  28.483 -0.0623 -0.1001 -0.1518
34137DOD     C146230  29.247   9.365   6.039  0.3752  0.1118 -0.1926
34137DOD     C246231  29.203   9.542   5.617 -0.1669  0.1946  0.2340
34137DOD     C346232  28.960   9.858   5.409  0.0217 -0.0436 -0.1961
34138DOD     C146233  15.574   9.718  30.207  0.2667  0.2741  0.0220
34138DOD     C246234  15.922   9.394  30.067 -0.3174 -0.2063  0.0941
34138DOD     C346235  16.349   9.419  29.897  0.0872 -0.1129  0.2831
34139DOD     C146236   7.395   0.351  19.721 -0.0468 -0.0330  0.0991
34139DOD     C246237   7.265   0.050  19.369 -0.2908  0.0300  0.0061
34139DOD     C346238   7.030  30.165  19.027  0.1305 -0.1452 -0.1243
34140DOD     C146239  16.139  28.837  14.789  0.1630 -0.0762 -0.0089
34140DOD     C246240  15.855  28.970  15.111 -0.0528 -0.0876 -0.0846
34140DOD     C346241  15.878  29.389  15.335  0.0515  0.0515  0.1439
34141DOD     C146242   5.543   3.829  17.429 -0.4116 -0.2535  0.3746
34141DOD     C246243   5.794   3.907  17.840 -0.0069  0.1385 -0.1029
34141DOD     C346244   5.860   3.854  18.293  0.0062  0.0690  0.1727
34142DOD     C146245  28.072  25.609  22.726 -0.1734 -0.0571 -0.2809
34142DOD     C246246  28.183  25.564  22.216 -0.1022 -0.0502 -0.0837
34142DOD     C346247  28.374  25.699  21.774 -0.1536 -0.1226 -0.2588
34143DOD     C146248  21.820   2.911   3.638 -0.2578 -0.0327 -0.0953
34143DOD     C246249  21.385   3.056   3.628  0.3000  0.1106  0.1873
34143DOD     C346250  21.108   3.266   3.364  0.1740  0.0483  0.4258
34144DOD     C146251   0.157  28.086   4.009  0.0405  0.2186 -0.1880
34144DOD     C246252   0.228  28.248   4.404  0.2893  0.1215  0.0673
34144DOD     C346253   0.640  28.339   4.645  0.1955  0.0024 -0.2693
34145DOD     C146254   3.942  10.148  24.814  0.0490 -0.0812  0.3199
34145DOD     C246255   4.313   9.853  24.942  0.1936  0.1065  0.1060
34145DOD     C346256   4.475   9.414  24.915 -0.1278  0.0123 -0.1985
34146DOD     C146257  27.805  14.410   5.093  0.0767 -0.3230  0.3352
34146DOD     C246258  28.118  14.687   5.329 -0.0670  0.1612  0.1876
34146DOD     C346259  28.409  14.983   5.019  0.2014 -0.0196 -0.0923
34147DOD     C146260   4.669   8.902  17.415 -0.1581  0.1065 -0.2164
34147DOD     C246261   4.220   8.950  17.261 -0.1409 -0.3424 -0.0225
34147DOD     C346262   3.962   9.286  16.988 -0.0285 -0.1012 -0.0529
34148DOD     C146263   4.343  15.903  20.736  0.0992 -0.0861  0.0319
34148DOD     C246264   4.232  15.956  20.313 -0.0050 -0.0409 -0.4418
34148DOD     C346265   4.506  15.789  19.959  0.0606 -0.0509 -0.2101
34149DOD     C146266  21.597  26.202   3.351  0.1382  0.2865 -0.0147
34149DOD     C246267  21.427  26.561   3.564 -0.3788  0.1360 -0.0401
34149DOD     C346268  21.509  26.906   3.946 -0.3038  0.2707 -0.4646
34150DOD     C146269   6.710  10.208  10.854 -0.4597  0.1466 -0.0173
34150DOD     C246270   7.074  10.455  10.554 -0.0744 -0.2813 -0.3349
34150DOD     C346271   7.395  10.859  10.515  0.2119 -0.0319  0.0721
34151DOD     C146272  15.796   7.251  23.248 -0.0792 -0.2168  0.0009
34151DOD     C246273  15.913   6.984  23.554  0.2740  0.0114 -0.1006
34151DOD     C346274  16.094   6.641  23.456  0.0261  0.2178 -0.2586
34152DOD     C146275  19.020  23.905  13.898  0.0062 -0.0975  0.1884
34152DOD     C246276  19.104  24.002  14.340  0.0397  0.1211 -0.0296
34152DOD     C346277  18.919  24.059  14.732  0.0982 -0.0185  0.0506
34153DOD     C146278   4.248  18.205   4.538 -0.0480  0.0407  0.3738
34153DOD     C246279   4.195  18.141   5.012  0.0404  0.2184  0.0485
34153DOD     C346280   4.253  18.269   5.427 -0.2075 -0.1068 -0.4109
34154DOD     C146281  22.758  10.150  25.864  0.0699  0.0143  0.1056
34154DOD     C246282  23.133   9.904  25.908  0.0027 -0.1477 -0.1397
34154DOD     C346283  23.432   9.574  26.105  0.0316  0.0574 -0.1530
34155DOD     C146284  21.693   5.822  21.744  0.4301 -0.3138  0.2354
34155DOD     C246285  21.330   6.084  21.953  0.3003  0.0867 -0.0165
34155DOD     C346286  20.905   6.180  22.109 -0.0048 -0.0732 -0.0937
34156DOD     C146287  22.467   5.833  29.539 -0.2497 -0.1097 -0.1867
34156DOD     C246288  22.710   6.073  29.190  0.0717 -0.1048  0.0247
34156DOD     C346289  23.129   6.148  28.996 -0.0647 -0.0485 -0.0338
34157DOD     C146290   8.709   0.774  28.233 -0.0390 -0.1330 -0.0398
34157DOD     C246291   8.584   0.713  28.674 -0.0474  0.0419  0.0914
34157DOD     C346292   8.386   0.378  28.964 -0.0204  0.3012 -0.0550
34158DOD     C146293   2.536   2.327  10.723  0.1453  0.1753  0.1895
34158DOD     C246294   2.045   2.367  10.701  0.4671 -0.0573 -0.1777
34158DOD     C346295   1.581   2.338  10.456  0.2141 -0.1096  0.1945
34159DOD     C146296   9.767   0.329  15.623 -0.0550 -0.1923 -0.0831
34159DOD     C246297  10.188   0.283  15.477  0.1321 -0.2796 -0.1523
34159DOD     C346298  10.436   0.392  15.043  0.0454 -0.2436  0.0142
34160DOD     C146299   4.081   7.649   0.063 -0.1136 -0.2914  0.0723
34160DOD     C246300   4.436   7.871  30.172 -0.2032 -0.1171  0.2501
34160DOD     C346301   4.829   7.767  30.063 -0.0408  0.0601  0.1531
34161DOD     C146302  11.008   5.203  14.517  0.1395 -0.0317 -0.3418
34161DOD     C246303  10.591   5.241  14.273 -0.1993 -0.2499 -0.1333
34161DOD     C346304  10.287   5.269  13.966 -0.1625 -0.1858 -0.1405
34162DOD     C146305   6.124  17.673  19.719 -0.0524 -0.1771  0.2886
34162DOD     C246306   6.140  18.147  19.754 -0.3059 -0.4268 -0.0970
34162DOD     C346307   5.937  18.521  19.488 -0.2768 -0.4108  0.1874
34163DOD     C146308  11.269   9.743   6.689  0.0872 -0.0573  0.1830
34163DOD     C246309  11.426   9.535   7.062 -0.0560 -0.1758 -0.1233
34163DOD     C346310  11.484   9.104   7.146 -0.1137 -0.1069 -0.1701
34164DOD     C146311   3.113  16.654  22.947 -0.2236  0.0925 -0.0677
34164DOD     C246312   2.909  16.693  23.378  0.1455 -0.1840 -0.0850
34164DOD     C346313   2.573  16.930  23.508  0.0198  0.0924 -0.0053
34165DOD     C146314  22.791  20.802   2.437 -0.0442 -0.2044 -0.0095
34165DOD     C246315  23.196  20.691   2.645 -0.2148 -0.2214  0.2227
34165DOD     C346316  23.598  20.529   2.809 -0.2577  0.3445  0.2005
34166DOD     C146317   1.444  25.231   9.616  0.0743 -0.0794 -0.1525
34166DOD     C246318   1.411  24.938   9.956 -0.2534 -0.0624 -0.1238
34166DOD     C346319   1.062  24.611  10.091  0.1693 -0.0877  0.1004
34167DOD     C146320  20.532   2.408   3.444  0.1107 -0.1212 -0.1192
34167DOD     C246321  20.498   1.947   3.385  0.1662 -0.1030  0.1047
34167DOD     C346322  20.559   1.522   3.177  0.2461 -0.0455  0.0601
34168DOD     C146323   3.552  26.916  22.277 -0.3211 -0.0685  0.0711
34168DOD     C246324   3.615  27.391  22.404 -0.2948  0.4468 -0.0819
34168DOD     C346325   3.547  27.862  22.365  0.0484  0.2458 -0.0101
34169DOD     C146326   3.982  24.223  29.639  0.1631 -0.0050  0.2889
34169DOD     C246327   3.755  23.848  29.590  0.0121  0.1136  0.0760
34169DOD     C346328   3.422  23.651  29.847  0.1892 -0.2136  0.0795
34170DOD     C146329  24.841  26.287   2.654  0.0885 -0.1806  0.2298
34170DOD     C246330  25.246  26.211   2.881 -0.0219  0.0262  0.3241
34170DOD     C346331  25.712  26.202   2.797 -0.0316 -0.1445 -0.0320
34171DOD     C146332  14.394  16.726   0.140 -0.0429  0.1489  0.1874
34171DOD     C246333  14.313  17.114  30.282  0.0680 -0.2386  0.1027
34171DOD     C346334  14.143  17.470  30.107 -0.3498  0.4019 -0.1523
34172DOD     C146335   8.481   2.047  20.930 -0.0396  0.3490 -0.0465
34172DOD     C246336   8.303   1.572  21.012 -0.3040 -0.2237  0.0754
34172DOD     C346337   8.329   1.151  21.253  0.1838 -0.0520 -0.1367
34173DOD     C146338  13.245  27.931   0.390  0.0897  0.0503  0.3953
34173DOD     C246339  12.825  27.992   0.584  0.1934  0.1088 -0.2666
34173DOD     C346340  12.398  27.956   0.579  0.1292  0.1164 -0.0115
34174DOD     C146341   0.155  22.339  12.353  0.1003 -0.2111 -0.0970
34174DOD     C246342   0.095  21.915  12.646 -0.3648  0.3232  0.2219
34174DOD     C346343  30.038  21.589  12.638  0.0832  0.1699  0.0742
34175DOD     C146344   6.233  24.485   8.276  0.1859 -0.1159 -0.2658
34175DOD     C246345   5.856  24.395   7.995 -0.7016 -0.0328 -0.0341
34175DOD     C346346   5.414  24.588   7.735 -0.1392  0.1924  0.1689
34176DOD     C146347  16.507  15.925   3.186  0.1142 -0.0077  0.2467
34176DOD     C246348  16.556  16.440   3.036 -0.0336 -0.0822  0.0703
34176DOD     C346349  16.838  16.756   3.253 -0.0802 -0.2509  0.0017
34177DOD     C146350   0.484  24.983  15.673  0.1430  0.1042 -0.1261
34177DOD     C246351   0.228  24.626  15.894 -0.0947  0.2985 -0.3377
34177DOD     C346352  30.222  24.417  16.165 -0.0316  0.1196 -0.0261
34178DOD     C146353  22.498  15.296  16.576  0.1102 -0.0874  0.0951
34178DOD     C246354  22.469  14.852  16.487  0.0873 -0.3043  0.0513
34178DOD     C346355  22.442  14.672  16.066  0.1550 -0.4058  0.0429
34179DOD     C146356  15.073  22.752  14.019  0.0595 -0.2483 -0.1023
34179DOD     C246357  15.059  22.351  14.245  0.0340  0.2520  0.2642
34179DOD     C346358  15.433  22.157  14.387  0.1520 -0.0104  0.0792
34180DOD     C146359   0.087  17.657   3.732 -0.2278 -0.1260 -0.0847
34180DOD     C246360  -0.043  17.817   3.282 -0.0178  0.2848  0.3178
34180DOD     C346361  29.912  17.778   3.021 -0.0937 -0.3630 -0.1109
34181DOD     C146362  24.865  25.767   2.937  0.2670 -0.1599  0.1741
34181DOD     C246363  24.590  25.580   2.605  0.2680  0.1058  0.1008
34181DOD     C346364  24.534  25.317   2.167  0.2383 -0.0410  0.1732
34182DOD     C146365  16.820  11.834  29.206 -0.2316 -0.2627  0.3606
34182DOD     C246366  16.751  12.269  28.981  0.0958 -0.2263  0.3026
34182DOD     C346367  17.062  12.628  28.941 -0.1581 -0.1880 -0.0599
34183DOD     C146368   5.845   2.492  10.098 -0.1703  0.0936 -0.1246
34183DOD     C246369   5.746   2.002  10.046  0.1318 -0.3423  0.3383
34183DOD     C346370   5.316   1.935   9.999  0.1643 -0.0797  0.1916
34184DOD     C146371   2.385   5.685  16.091 -0.3487 -0.2625  0.1151
34184DOD     C246372   2.529   5.665  15.628 -0.0230  0.0988  0.0102
34184DOD     C346373   2.292   5.883  15.296  0.2766  0.0863 -0.1681
34185DOD     C146374   1.508   7.101   8.837  0.1684  0.2449 -0.3583
34185DOD     C246375   1.625   6.668   8.619 -0.1175 -0.2208  0.2812
34185DOD     C346376   1.492   6.215   8.637 -0.0555 -0.0596  0.2390
34186DOD     C146377   9.103  10.635   7.211 -0.1264 -0.0640 -0.2389
34186DOD     C246378   8.637  10.702   7.198  0.1575 -0.3609  0.1187
34186DOD     C346379   8.369  10.847   6.885  0.2505  0.0266 -0.1771
34187DOD     C146380   0.204   1.019  11.880  0.1653 -0.0013  0.2247
34187DOD     C246381   0.381   0.633  11.854  0.0283 -0.1349  0.0613
34187DOD     C346382   0.548   0.290  11.610  0.0450  0.2460 -0.3896
34188DOD     C146383   7.171   8.009  14.752 -0.1263  0.2011 -0.1726
34188DOD     C246384   7.282   7.989  15.234 -0.0823 -0.1230 -0.1075
34188DOD     C346385   7.390   7.948  15.687 -0.0546 -0.0302  0.0544
34189DOD     C146386  14.642  30.053  27.750  0.0703 -0.0214  0.0270
34189DOD     C246387  14.514   0.168  27.791 -0.3480  0.0633  0.2683
34189DOD     C346388  14.159   0.438  27.947 -0.2521 -0.1990  0.4667
34190DOD     C146389  12.532  23.453  22.240 -0.0312 -0.0468 -0.0169
34190DOD     C246390  12.687  23.900  22.244 -0.0573  0.0684 -0.0688
34190DOD     C346391  12.960  24.040  21.865 -0.0783 -0.0788 -0.1641
34191DOD     C146392  16.381  10.099  24.835  0.4288  0.4145  0.1041
34191DOD     C246393  16.586  10.523  24.768 -0.2527  0.3566  0.2934
34191DOD     C346394  16.646  10.931  24.482  0.2650  0.0898 -0.0196
34192DOD     C146395   9.855  24.623  29.860 -0.0955 -0.0218 -0.3159
34192DOD     C246396   9.789  24.168  29.824 -0.2880 -0.2582  0.0216
34192DOD     C346397   9.610  23.964  29.484 -0.2387  0.6368  0.0719
34193DOD     C146398  26.076  27.768  26.316 -0.0299  0.0054 -0.1691
34193DOD     C246399  25.709  27.442  26.376  0.0675  0.3204  0.1521
34193DOD     C346400  25.811  27.039  26.555  0.0839  0.3634  0.1079
34194DOD     C146401  15.143  15.224  19.751  0.1376  0.0173 -0.1330
34194DOD     C246402  15.029  15.028  20.189 -0.0192 -0.3405 -0.2386
34194DOD     C346403  14.700  15.092  20.511  0.2589 -0.0575 -0.1014
34195DOD     C146404  26.491  11.326  28.177 -0.1075  0.1448 -0.0179
34195DOD     C246405  26.431  11.369  28.599  0.2525  0.1126 -0.1075
34195DOD     C346406  26.205  11.332  29.014  0.1063  0.2671  0.0521
34196DOD     C146407   9.359   7.895   6.159  0.2157 -0.0300  0.0699
34196DOD     C246408   9.368   7.489   6.396  0.2243  0.1728 -0.2156
34196DOD     C346409   9.385   7.340   6.832 -0.1499 -0.2765 -0.1661
34197DOD     C146410  30.104   4.646  24.868  0.1427 -0.2044  0.1805
34197DOD     C246411  29.777   4.836  25.195  0.0717 -0.0262 -0.0907
34197DOD     C346412  29.342   4.980  25.366  0.1933 -0.0352  0.2245
34198DOD     C146413   5.534  10.799  27.275  0.0085  0.3866  0.1399
34198DOD     C246414   5.358  10.565  27.582 -0.1944  0.0694  0.3062
34198DOD     C346415   5.448  10.470  27.994 -0.1183 -0.1704 -0.1240
34199DOD     C146416  24.029  17.779   4.367  0.3113  0.1835  0.1916
34199DOD     C246417  24.306  17.706   4.763  0.0032 -0.3551 -0.1857
34199DOD     C346418  24.239  17.545   5.253 -0.0990  0.0084  0.0388
34200DOD     C146419  13.240   1.571  24.748  0.3220  0.2920 -0.0809
34200DOD     C246420  13.158   1.811  25.097  0.0664 -0.0466  0.0455
34200DOD     C346421  13.434   2.062  25.408  0.1808  0.1072  0.1716
34201DOD     C146422  15.423   6.888  11.172  0.0770  0.1667 -0.1085
34201DOD     C246423  15.496   6.461  11.067 -0.0144 -0.0167 -0.1388
34201DOD     C346424  15.888   6.237  10.876  0.1225  0.3130 -0.1431
34202DOD     C146425  13.343  15.682   3.419  0.0105  0.3694 -0.0770
34202DOD     C246426  13.140  15.980   3.810 -0.2473  0.1113  0.0126
34202DOD     C346427  13.106  16.096   4.230 -0.1084 -0.3094  0.0526
34203DOD     C146428  16.170  27.256  28.265  0.1188 -0.1080 -0.0582
34203DOD     C246429  15.929  26.846  28.372  0.1312  0.0937  0.0243
34203DOD     C346430  15.589  26.479  28.296 -0.2997  0.1869 -0.1161
34204DOD     C146431  23.887  15.881   2.377  0.2359 -0.0363 -0.1401
34204DOD     C246432  23.649  16.207   2.178  0.0290  0.0646  0.1563
34204DOD     C346433  23.520  16.132   1.730 -0.3068 -0.0594 -0.1369
34205DOD     C146434  26.319  22.379  21.903  0.2902 -0.3663  0.0206
34205DOD     C246435  25.907  22.246  21.736 -0.1064  0.2327 -0.3319
34205DOD     C346436  25.467  22.200  21.658 -0.3153  0.0330 -0.3225
34206DOD     C146437  12.819  27.787  11.896  0.0788  0.1576  0.1104
34206DOD     C246438  13.023  27.993  11.539 -0.0525  0.4668 -0.0722
34206DOD     C346439  13.449  28.072  11.482  0.0391  0.1487  0.2865
34207DOD     C146440  27.994  29.460  23.100  0.0902 -0.1938 -0.1851
34207DOD     C246441  28.184  29.204  22.747 -0.0929 -0.0412 -0.2840
34207DOD     C346442  28.480  29.151  22.389  0.1347 -0.2337 -0.1592
34208DOD     C146443  24.736   1.057  16.421 -0.2614 -0.1572  0.0872
34208DOD     C246444  24.591   1.422  16.178  0.1349 -0.1592 -0.1776
34208DOD     C346445  24.677   1.785  15.851  0.2447  0.0145 -0.2064
34209DOD     C146446  24.761  25.341   3.601  0.1220  0.0680 -0.1124
34209DOD     C246447  25.018  25.111   3.310  0.1366  0.3923 -0.2115
34209DOD     C346448  25.380  24.922   3.127 -0.0287  0.0651 -0.3549
34210DOD     C146449  21.671  24.199  19.755  0.1352  0.1532  0.1063
34210DOD     C246450  21.336  24.158  20.092  0.0055  0.0061 -0.0987
34210DOD     C346451  20.950  23.947  20.088  0.0172 -0.0057  0.0469
34211DOD     C146452   1.807  25.302  14.646  0.0569  0.0547  0.1960
34211DOD     C246453   1.888  25.683  14.900 -0.0816  0.1350 -0.3890
34211DOD     C346454   1.623  26.030  15.037  0.4080 -0.0399 -0.0638
34212DOD     C146455  11.320   7.097  28.125  0.0444 -0.2914 -0.0514
34212DOD     C246456  11.142   7.157  28.608 -0.0262  0.1396 -0.2459
34212DOD     C346457  11.011   6.891  29.017  0.0496  0.1971  0.0731
34213DOD     C146458  19.543   9.559  12.266 -0.1826 -0.2503  0.4648
34213DOD     C246459  19.910   9.456  12.456  0.2789  0.2156  0.2817
34213DOD     C346460  20.200   9.488  12.804  0.1111 -0.1982 -0.1967
34214DOD     C146461  11.822   0.787   6.426  0.0386 -0.0201 -0.1351
34214DOD     C246462  11.683   0.692   6.817  0.3822  0.1481  0.4782
34214DOD     C346463  11.591   0.617   7.255 -0.1176 -0.0599 -0.1290
34215DOD     C146464  17.891  24.915  15.972  0.0337 -0.0945  0.1488
34215DOD     C246465  17.871  24.506  16.118 -0.0519 -0.0194  0.0668
34215DOD     C346466  17.960  24.132  16.420  0.2559 -0.0796 -0.1800
34216DOD     C146467   2.582  23.600  27.367 -0.1582  0.0556 -0.0713
34216DOD     C246468   2.141  23.498  27.197 -0.1680  0.0704 -0.2885
34216DOD     C346469   1.904  23.483  26.888 -0.0212 -0.2294  0.0835
34217DOD     C146470   7.165  23.470  13.163  0.0687 -0.1060 -0.1564
34217DOD     C246471   7.159  23.424  13.630 -0.1484  0.0492  0.0291
34217DOD     C346472   7.043  23.561  14.029  0.1117  0.2649 -0.1527
34218DOD     C146473  27.498  10.433  15.178 -0.0701  0.1298  0.2724
34218DOD     C246474  27.458  10.886  15.385  0.0796  0.0358 -0.0107
34218DOD     C346475  27.283  11.073  15.817  0.1321 -0.1770  0.1036
34219DOD     C146476   2.489  22.603   8.733  0.1208 -0.0419  0.0524
34219DOD     C246477   2.020  22.732   8.780 -0.2019  0.0691  0.2454
34219DOD     C346478   1.757  23.012   9.048 -0.2243 -0.2221  0.0755
34220DOD     C146479  24.284  20.017  15.569  0.2845  0.3100 -0.0493
34220DOD     C246480  24.242  19.559  15.620  0.1285  0.1084  0.1383
34220DOD     C346481  24.007  19.286  15.912  0.2855  0.1380  0.1837
34221DOD     C146482  14.104  15.700  24.509  0.0037 -0.2164 -0.2591
34221DOD     C246483  13.894  15.518  24.795  0.0773 -0.0425  0.0473
34221DOD     C346484  13.565  15.665  25.101  0.1582 -0.0488  0.3275
34222DOD     C146485   4.578   1.213  12.652  0.1988 -0.0613 -0.0341
34222DOD     C246486   4.740   1.038  13.050 -0.1709 -0.0504 -0.1111
34222DOD     C346487   4.738   0.722  13.412  0.0503 -0.0125  0.0676
34223DOD     C146488  14.923  24.756  11.465  0.1846  0.0966  0.2393
34223DOD     C246489  14.961  24.367  11.788  0.1282  0.1549  0.1776
34223DOD     C346490  14.614  24.153  11.994 -0.0069 -0.2184 -0.3954
34224DOD     C146491  30.063  27.788  29.394  0.2571  0.2114 -0.2800
34224DOD     C246492   0.108  27.500  29.583  0.0773  0.1149  0.0146
34224DOD     C346493   0.146  27.171  29.935 -0.0895 -0.1151  0.0335
34225DOD     C146494  12.957  20.961   9.159  0.3003 -0.0395  0.0198
34225DOD     C246495  12.765  20.583   9.439  0.1303 -0.0803  0.0553
34225DOD     C346496  12.789  20.485   9.926 -0.1006  0.0461  0.0893
34226DOD     C146497  11.700  23.294  25.827  0.0996  0.0581 -0.1216
34226DOD     C246498  12.128  23.179  25.866 -0.1764 -0.2101 -0.1273
34226DOD     C346499  12.520  23.071  25.727  0.2918  0.2600 -0.0198
34227DOD     C146500  17.379  10.017  18.041 -0.1346 -0.1598  0.1116
34227DOD     C246501  17.340  10.077  18.565 -0.1328 -0.1384 -0.1393
34227DOD     C346502  17.072   9.922  18.880  0.0237 -0.0165 -0.1240
34228DOD     C146503  25.280   8.133  17.799  0.4125  0.1093 -0.0842
34228DOD     C246504  25.338   8.436  18.166 -0.1444 -0.0636 -0.1556
34228DOD     C346505  25.033   8.484  18.540  0.0480  0.0324  0.0174
34229DOD     C146506  17.931   0.008  26.080 -0.2637 -0.0094  0.0017
34229DOD     C246507  18.145   0.444  26.002  0.0747 -0.1501 -0.1741
34229DOD     C346508  18.549   0.702  26.182 -0.0274 -0.0576 -0.0850
34230DOD     C146509  29.975   3.354  28.393  0.1863  0.0081 -0.1498
34230DOD     C246510  29.733   2.930  28.363  0.1425 -0.0368 -0.2645
34230DOD     C346511  29.910   2.472  28.336  0.0873  0.1891 -0.1391
34231DOD     C146512   8.280   1.413  23.423 -0.1561  0.0748 -0.0754
34231DOD     C246513   8.327   1.820  23.281 -0.1838  0.0117  0.2274
34231DOD     C346514   8.634   2.163  23.265  0.1590  0.1904  0.3533
34232DOD     C146515  30.323  19.567  19.459  0.0823  0.1426 -0.1855
34232DOD     C246516  30.184  19.870  19.774 -0.0608 -0.3273  0.2548
34232DOD     C346517  29.945  20.171  19.985  0.0212 -0.2797 -0.2065
34233DOD     C146518   1.996   4.288  21.827  0.1743  0.1786  0.1155
34233DOD     C246519   1.913   4.658  21.555  0.1973  0.0643  0.3363
34233DOD     C346520   1.953   5.049  21.330  0.1036 -0.2565 -0.3300
34234DOD     C146521  17.695  23.356  10.563  0.0680  0.1802 -0.1429
34234DOD     C246522  17.294  23.412  10.779  0.0821 -0.2758  0.0536
34234DOD     C346523  17.054  23.302  11.185  0.5856 -0.3479  0.0430
34235DOD     C146524  16.965  25.343  29.534  0.1705 -0.2091  0.0840
34235DOD     C246525  17.200  25.357  29.998 -0.2868 -0.0612 -0.1352
34235DOD     C346526  17.577  25.195  30.233  0.0204  0.0274  0.2833
34236DOD     C146527  26.593  27.263  23.092 -0.0277  0.3312  0.2224
34236DOD     C246528  26.570  27.396  23.578  0.1458 -0.0655  0.0857
34236DOD     C346529  26.704  27.375  23.989 -0.0054  0.1580 -0.1434
34237DOD     C146530  14.121  10.378  30.091  0.0230  0.3110 -0.0566
34237DOD     C246531  14.012  10.723  29.741  0.5788 -0.1561  0.1696
34237DOD     C346532  13.817  11.107  29.607  0.0646 -0.0937  0.0039
34238DOD     C146533  14.004  15.212  27.189  0.1092  0.0619  0.0926
34238DOD     C246534  13.648  14.918  27.241 -0.0181  0.0579  0.1645
34238DOD     C346535  13.618  14.455  27.039 -0.0780  0.2778  0.3159
34239DOD     C146536   1.954  17.328   4.490  0.3088 -0.2480 -0.0469
34239DOD     C246537   1.543  17.374   4.762 -0.0699 -0.1674 -0.1416
34239DOD     C346538   1.561  17.000   5.090  0.0622  0.3143 -0.0455
34240DOD     C146539  25.520  18.725   7.978  0.2079  0.0905  0.0152
34240DOD     C246540  25.917  18.911   7.880 -0.0535  0.0709  0.0778
34240DOD     C346541  26.318  18.930   7.631 -0.0012  0.1107  0.2989
34241DOD     C146542   8.051  23.769  29.445 -0.0612  0.0485  0.3688
34241DOD     C246543   7.717  23.521  29.741 -0.0170  0.1881  0.0125
34241DOD     C346544   7.577  23.416  30.194  0.1568 -0.0551 -0.1230
34242DOD     C146545  18.527  26.293  30.069  0.0739 -0.0386  0.1111
34242DOD     C246546  18.976  26.345  30.207 -0.1540 -0.3623 -0.1467
34242DOD     C346547  19.409  26.235  30.228 -0.1546 -0.1323 -0.0236
34243DOD     C146548  20.072  18.487  13.431  0.2687 -0.0354 -0.0857
34243DOD     C246549  19.951  18.071  13.289  0.0397 -0.1776 -0.1877
34243DOD     C346550  20.161  17.672  13.327 -0.2656 -0.2248 -0.1799
34244DOD     C146551  15.982   0.928   6.661  0.0871  0.0163  0.1950
34244DOD     C246552  16.063   0.584   6.374 -0.1406  0.1635  0.2370
34244DOD     C346553  16.141   0.242   6.038 -0.1675  0.3237  0.1725
34245DOD     C146554  21.476  27.438   0.581  0.0369  0.0521  0.0269
34245DOD     C246555  21.449  27.327   0.124 -0.0365  0.1548  0.3193
34245DOD     C346556  21.206  27.105  30.136  0.2161  0.0693 -0.1106
34246DOD     C146557  18.049  15.525  18.605  0.0180 -0.0198 -0.0164
34246DOD     C246558  18.547  15.496  18.559  0.1638 -0.2085 -0.1662
34246DOD     C346559  19.026  15.469  18.622  0.0075 -0.1254 -0.0222
34247DOD     C146560  19.669  30.323   7.295 -0.0663 -0.1921  0.2665
34247DOD     C246561  19.669   0.448   7.229 -0.3630 -0.0153 -0.0864
34247DOD     C346562  19.868   0.706   6.874 -0.2972  0.3374  0.2728
34248DOD     C146563  15.271   8.100  16.177  0.1028  0.2246  0.1593
34248DOD     C246564  15.656   7.831  16.190 -0.0922 -0.2398 -0.1927
34248DOD     C346565  15.978   7.674  16.517  0.0226  0.1754 -0.1124
34249DOD     C146566  30.090   4.774  13.346  0.0790  0.0299  0.1160
34249DOD     C246567  30.051   4.845  13.781 -0.1102  0.0188  0.0799
34249DOD     C346568  29.921   4.972  14.154 -0.1307  0.0879 -0.2054
34250DOD     C146569   7.650   0.795  14.598  0.1916 -0.4180  0.0205
34250DOD     C246570   7.911   1.122  14.416  0.0939  0.1524  0.0453
34250DOD     C346571   8.394   1.277  14.418 -0.1358  0.0733 -0.0646
34251DOD     C146572   8.462  10.780  27.554 -0.1799  0.3560  0.0658
34251DOD     C246573   8.861  10.532  27.625 -0.0506 -0.1742 -0.2882
34251DOD     C346574   9.098  10.225  27.945  0.1667 -0.0939  0.1170
34252DOD     C146575  26.604  16.155   3.518  0.1647  0.0024 -0.0082
34252DOD     C246576  26.191  15.910   3.392 -0.1477  0.1743 -0.0628
34252DOD     C346577  25.958  15.841   3.827 -0.1974 -0.0519  0.1315
34253DOD     C146578   8.482   0.419  14.878  0.2191 -0.1136 -0.1458
34253DOD     C246579   8.202   0.810  14.854  0.1189  0.1064  0.0306
34253DOD     C346580   8.080   1.095  15.204 -0.0172 -0.1509  0.1436
34254DOD     C146581  19.100  11.317  19.426  0.1029 -0.1548 -0.0766
34254DOD     C246582  18.888  11.084  19.059 -0.1526  0.0054 -0.0928
34254DOD     C346583  18.522  10.744  18.963 -0.0372  0.0099 -0.1674
34255DOD     C146584  29.703   9.779  12.537  0.2053  0.0412 -0.3410
34255DOD     C246585  29.684   9.339  12.623 -0.0044 -0.1184 -0.2343
34255DOD     C346586  29.592   8.885  12.686  0.0663  0.0413  0.1455
34256DOD     C146587  23.942   1.782  29.634  0.0423 -0.0874  0.0597
34256DOD     C246588  23.476   1.679  29.730  0.0409  0.3550 -0.0653
34256DOD     C346589  23.079   1.715  29.880  0.0603  0.1114 -0.0646
34257DOD     C146590  26.769  24.052  19.412  0.0103  0.0094  0.1191
34257DOD     C246591  26.976  24.135  19.902  0.1178  0.0036  0.2495
34257DOD     C346592  27.192  24.369  20.253 -0.0259 -0.2825  0.0062
34258DOD     C146593   4.852   4.625  15.915 -0.0656  0.1996  0.0157
34258DOD     C246594   4.701   4.222  16.173  0.1097 -0.0042 -0.2157
34258DOD     C346595   4.890   4.234  16.598 -0.0840 -0.1483 -0.2722
34259DOD     C146596  16.299  27.048  23.729 -0.1505  0.0330  0.2214
34259DOD     C246597  16.167  26.719  23.461 -0.0253 -0.1904  0.0601
34259DOD     C346598  16.178  26.294  23.254  0.3385 -0.1727 -0.2228
34260DOD     C146599   8.344  16.550   9.748 -0.1385 -0.2185 -0.0532
34260DOD     C246600   7.884  16.469   9.591 -0.2649 -0.1736  0.1035
34260DOD     C346601   7.531  16.342   9.270 -0.0607  0.3489  0.3457
34261DOD     C146602   2.670  28.714  -0.015 -0.2773 -0.2013 -0.2257
34261DOD     C246603   2.883  28.322   0.183  0.2863  0.2921  0.1064
34261DOD     C346604   3.143  27.987   0.020  0.0827  0.1073 -0.1711
34262DOD     C146605   8.883  16.154   1.680  0.2398  0.1439  0.2081
34262DOD     C246606   8.498  15.963   1.893 -0.3818 -0.0567 -0.1355
34262DOD     C346607   8.372  15.513   1.911 -0.0906 -0.1353  0.4040
34263DOD     C146608   3.673  15.962  18.352  0.0149  0.2357 -0.3699
34263DOD     C246609   3.242  15.887  18.469  0.0305  0.2379 -0.0264
34263DOD     C346610   2.918  16.134  18.350 -0.2384  0.0139  0.0159
34264DOD     C146611   9.711  12.859  29.032  0.0174 -0.1039  0.0150
34264DOD     C246612  10.162  12.756  29.055 -0.1742 -0.3423 -0.2050
34264DOD     C346613  10.581  12.864  29.189  0.3516 -0.0865 -0.0819
34265DOD     C146614   0.196  29.528   9.643  0.0458  0.2391  0.2462
34265DOD     C246615   0.376  29.743  10.014 -0.1308 -0.2955  0.0170
34265DOD     C346616   0.698  29.763  10.348  0.1226 -0.0833  0.1431
34266DOD     C146617  21.422  23.038   2.721  0.0762 -0.0968 -0.0965
34266DOD     C246618  21.475  23.387   3.014  0.2801  0.2802  0.1697
34266DOD     C346619  21.817  23.726   3.031  0.1484  0.1922  0.2284
34267DOD     C146620  24.686   4.436  25.251  0.0122 -0.1637 -0.2185
34267DOD     C246621  24.570   4.305  25.697  0.0405  0.0718 -0.0296
34267DOD     C346622  24.656   4.024  26.063  0.0263  0.0579 -0.0717
34268DOD     C146623   9.360  19.369  19.715  0.0378 -0.2386  0.1554
34268DOD     C246624   8.913  19.191  19.696  0.0348  0.2241  0.1139
34268DOD     C346625   8.703  18.777  19.680  0.0632 -0.1464 -0.0306
34269DOD     C146626  23.890  22.204  13.858 -0.2014 -0.0763 -0.0721
34269DOD     C246627  23.618  22.097  14.275  0.0728  0.0637  0.1369
34269DOD     C346628  23.593  21.921  14.644  0.0448 -0.4678  0.1526
34270DOD     C146629   9.284   6.634   1.621 -0.2120 -0.1976  0.0192
34270DOD     C246630   9.268   7.094   1.596  0.1392 -0.2245  0.0924
34270DOD     C346631   9.386   7.518   1.604 -0.2038  0.2132 -0.2327
34271DOD     C146632  18.762  28.950  27.352 -0.1436 -0.2088 -0.0627
34271DOD     C246633  18.961  29.045  27.781 -0.0642 -0.1569  0.1700
34271DOD     C346634  19.112  28.851  28.193  0.0258 -0.0912 -0.0167
34272DOD     C146635   9.274  10.987  12.891  0.1664 -0.0199 -0.1263
34272DOD     C246636   9.405  10.623  12.629  0.0334 -0.4693  0.0408
34272DOD     C346637   9.303  10.348  12.323 -0.3465 -0.2436 -0.1175
34273DOD     C146638  29.702   8.883  13.140 -0.0598  0.0723 -0.1503
34273DOD     C246639  29.657   9.230  13.416  0.0368 -0.0491  0.1470
34273DOD     C346640  29.300   9.508  13.391  0.0233  0.1083 -0.1570
34274DOD     C146641  24.430   5.949  27.821  0.0974 -0.5257 -0.2659
34274DOD     C246642  24.523   6.457  27.853  0.1584 -0.1476 -0.2804
34274DOD     C346643  24.433   6.943  27.785 -0.0098 -0.2175  0.0431
34275DOD     C146644  15.420  21.404  13.455 -0.0277  0.0349 -0.1984
34275DOD     C246645  15.746  21.697  13.681  0.3255  0.1154 -0.3577
34275DOD     C346646  15.803  22.171  13.637  0.0119  0.0471 -0.0630
34276DOD     C146647  25.743   4.979  25.523  0.1658 -0.2840 -0.1169
34276DOD     C246648  25.445   5.192  25.254 -0.0203 -0.1002 -0.2313
34276DOD     C346649  25.071   5.260  24.982  0.2847  0.0364  0.0102
34277DOD     C146650  21.971   8.678  10.711 -0.0362 -0.0408  0.1216
34277DOD     C246651  22.080   8.387  10.298  0.0218  0.0440 -0.1580
34277DOD     C346652  22.286   8.150   9.942  0.1122  0.0445  0.0207
34278DOD     C146653  19.645   6.585  11.686 -0.4438  0.3577 -0.0030
34278DOD     C246654  19.928   6.767  11.313 -0.2381 -0.1415  0.2385
34278DOD     C346655  20.351   6.919  11.321  0.0400  0.1205  0.2221
34279DOD     C146656   4.402  19.176   6.609 -0.1302  0.1834 -0.1892
34279DOD     C246657   4.354  19.331   7.090 -0.0231 -0.3619  0.0092
34279DOD     C346658   4.521  19.440   7.564  0.0238  0.0284 -0.0162
34280DOD     C146659   6.387  24.082  29.341 -0.0955 -0.1791 -0.0359
34280DOD     C246660   6.556  23.829  29.653  0.2601  0.1874  0.0817
34280DOD     C346661   6.557  23.684  30.080  0.3727 -0.1294  0.1090
34281DOD     C146662  25.566   4.537  22.718  0.0294 -0.1653  0.1085
34281DOD     C246663  25.662   4.965  22.728  0.2120 -0.0887  0.0701
34281DOD     C346664  26.024   5.233  22.649 -0.0562  0.1880  0.1539
34282DOD     C146665   9.804  19.695   7.609 -0.3583 -0.0635 -0.0749
34282DOD     C246666   9.424  19.719   7.867  0.3782  0.3296  0.4812
34282DOD     C346667   9.276  20.000   8.125  0.2514  0.1741 -0.1570
34283DOD     C146668   2.159   8.768   1.537  0.2620 -0.2894  0.1153
34283DOD     C246669   1.804   8.557   1.842 -0.0017 -0.0005 -0.2544
34283DOD     C346670   1.455   8.642   2.158  0.1044 -0.1517  0.1307
34284DOD     C146671   0.678  18.921   0.169 -0.1261 -0.1975  0.0675
34284DOD     C246672   1.062  19.000  30.246  0.0589  0.0666 -0.1942
34284DOD     C346673   1.541  18.868  30.329 -0.0063  0.0323  0.1189
34285DOD     C146674   2.401  12.541  22.495 -0.0566  0.1703 -0.0105
34285DOD     C246675   2.452  12.171  22.746  0.0081 -0.2712 -0.1479
34285DOD     C346676   2.755  11.807  22.863 -0.0437  0.1082  0.0995
34286DOD     C146677   5.129   9.674   0.562 -0.1588 -0.0030 -0.0746
34286DOD     C246678   4.782   9.367   0.527 -0.2497 -0.0042  0.0516
34286DOD     C346679   4.400   9.130   0.360 -0.1836  0.0918  0.1807
34287DOD     C146680  26.557  27.177  21.655 -0.2207 -0.0087 -0.0948
34287DOD     C246681  26.843  27.124  21.335 -0.0846  0.0811  0.0172
34287DOD     C346682  27.183  27.246  21.067  0.1969 -0.2582  0.0738
34288DOD     C146683  21.858   8.454  23.165 -0.3961 -0.1502 -0.1925
34288DOD     C246684  22.044   8.495  23.585  0.0198 -0.0681  0.0079
34288DOD     C346685  22.069   8.586  24.047 -0.0905  0.0836  0.1469
34289DOD     C146686  28.126  28.379   1.663 -0.1674  0.0416  0.1817
34289DOD     C246687  27.839  28.158   1.365 -0.5119  0.0783  0.0700
34289DOD     C346688  27.512  27.920   1.113 -0.0714 -0.0945  0.2064
34290DOD     C146689   5.351  23.177  23.184  0.1180  0.3916 -0.0154
34290DOD     C246690   5.198  22.938  23.549  0.1676  0.1414 -0.0678
34290DOD     C346691   5.453  22.741  23.935  0.3387 -0.1139 -0.0522
34291DOD     C146692   3.836   3.555   5.041  0.1478 -0.2396  0.0756
34291DOD     C246693   4.200   3.817   5.224 -0.0439 -0.0369  0.3419
34291DOD     C346694   4.640   3.882   5.169 -0.0384  0.2615 -0.2101
34292DOD     C146695  28.006  15.948   9.272 -0.1986  0.0237 -0.1826
34292DOD     C246696  28.195  16.350   9.194  0.0761 -0.2716  0.1754
34292DOD     C346697  28.451  16.644   9.043  0.0558  0.0277  0.0022
34293DOD     C146698   1.172  27.237  13.283  0.0854  0.2587  0.0844
34293DOD     C246699   1.234  27.659  13.110 -0.1062 -0.2702 -0.1234
34293DOD     C346700   1.382  28.051  13.282 -0.1529 -0.0881  0.3041
34294DOD     C146701   4.743  13.034  19.958 -0.0405 -0.2626  0.4603
34294DOD     C246702   4.699  12.933  19.457  0.0491  0.0349  0.0704
34294DOD     C346703   4.734  13.032  19.014  0.1918  0.0371 -0.0111
34295DOD     C146704  23.366   1.945  27.599 -0.1723 -0.0387 -0.3486
34295DOD     C246705  23.792   1.801  27.764 -0.0067 -0.2859 -0.1224
34295DOD     C346706  24.325   1.932  27.806  0.0958  0.0166 -0.0279
34296DOD     C146707  16.034  16.421  11.553  0.2256 -0.1446 -0.0389
34296DOD     C246708  16.341  16.061  11.641 -0.2222  0.1443  0.0912
34296DOD     C346709  16.328  15.598  11.859 -0.2409 -0.2425 -0.2761
34297DOD     C146710  22.853   9.797  26.699 -0.0403  0.0211 -0.1119
34297DOD     C246711  23.148  10.045  26.412  0.0180 -0.1104 -0.0121
34297DOD     C346712  23.123  10.395  26.115 -0.0528 -0.1937  0.0251
34298DOD     C146713  27.150  18.473   1.208 -0.0210 -0.1087  0.1202
34298DOD     C246714  27.494  18.569   0.842  0.0571 -0.1801  0.1064
34298DOD     C346715  27.685  19.016   0.814 -0.2332 -0.2530 -0.2048
34299DOD     C146716  10.444  28.381  24.148  0.0107 -0.2984 -0.0564
34299DOD     C246717  10.258  28.343  24.514  0.1457  0.2365  0.0318
34299DOD     C346718   9.847  28.513  24.582 -0.0665 -0.2504  0.0746
34300DOD     C146719  13.654   6.240   7.426  0.4590  0.2136 -0.0201
34300DOD     C246720  13.385   5.822   7.589  0.0957 -0.2375  0.0639
34300DOD     C346721  12.918   5.681   7.493 -0.0618 -0.5178  0.2343
34301DOD     C146722  17.699  23.823   3.135 -0.0929  0.2795 -0.0394
34301DOD     C246723  17.755  23.680   2.699  0.0994  0.1873  0.1078
34301DOD     C346724  17.573  23.421   2.374 -0.0020  0.1435 -0.2695
34302DOD     C146725   1.192   9.186  12.358 -0.0327  0.1170  0.0703
34302DOD     C246726   1.232   9.599  12.527  0.2854 -0.0562 -0.2955
34302DOD     C346727   1.230  10.057  12.362 -0.0147 -0.1948  0.0577
34303DOD     C146728   1.771   6.522  30.086 -0.0585  0.3960 -0.0403
34303DOD     C246729   1.510   6.703   0.058  0.0199 -0.1564  0.2335
34303DOD     C346730   1.245   6.719   0.505  0.2773 -0.0747  0.0611
34304DOD     C146731  16.011  27.747  13.130  0.2329 -0.3196  0.0060
34304DOD     C246732  16.189  27.582  13.523 -0.0518  0.3246 -0.0849
34304DOD     C346733  16.408  27.242  13.787 -0.2391  0.2052  0.1965
34305DOD     C146734  25.615  24.931  12.374 -0.0023  0.1019  0.0596
34305DOD     C246735  26.056  24.893  12.496  0.3003 -0.0964  0.3462
34305DOD     C346736  26.387  24.728  12.691 -0.2167 -0.1381  0.0951
34306DOD     C146737  15.675   0.079  11.787  0.4021  0.1979 -0.1330
34306DOD     C246738  15.960  30.061  11.684 -0.1942  0.0463 -0.0176
34306DOD     C346739  16.393  30.085  11.530  0.2943 -0.0449 -0.2784
34307DOD     C146740  17.444  10.576  15.990 -0.3459  0.0585 -0.2136
34307DOD     C246741  17.649  10.560  16.445 -0.0936 -0.0400 -0.1666
34307DOD     C346742  18.069  10.446  16.439  0.4450 -0.4302 -0.1705
34308DOD     C146743  19.504  14.214   8.386  0.0877 -0.2072  0.0166
34308DOD     C246744  19.626  13.832   8.154 -0.1018  0.0377  0.2823
34308DOD     C346745  19.987  13.713   7.921 -0.2674  0.0385  0.0249
34309DOD     C146746  27.049   9.237   2.766  0.3035 -0.2934 -0.2380
34309DOD     C246747  27.199   9.504   3.138 -0.0548 -0.0753  0.2249
34309DOD     C346748  27.190   9.402   3.587 -0.0631  0.0138 -0.2618
34310DOD     C146749   3.725  19.091  12.194  0.0574  0.1259 -0.0577
34310DOD     C246750   3.433  19.227  12.470 -0.1977 -0.1455  0.1440
34310DOD     C346751   3.359  19.558  12.761  0.1669 -0.0157 -0.0137
34311DOD     C146752  11.319   4.091   2.068 -0.0561 -0.0659 -0.0183
34311DOD     C246753  11.060   3.949   2.433 -0.0580  0.1815 -0.0675
34311DOD     C346754  10.569   3.884   2.519 -0.3430  0.1543  0.2801
34312DOD     C146755   8.296   4.840  24.779  0.0968 -0.0658 -0.0443
34312DOD     C246756   8.715   4.643  24.644 -0.0706  0.1126  0.2232
34312DOD     C346757   8.871   4.179  24.578  0.0129  0.1883 -0.0256
34313DOD     C146758  24.824  24.061   0.112  0.0510 -0.3331  0.0604
34313DOD     C246759  25.224  24.076   0.305 -0.0265 -0.1729 -0.0205
34313DOD     C346760  25.714  24.105   0.294  0.1888  0.2206 -0.0497
34314DOD     C146761   2.914  24.166   8.476  0.1620 -0.3430 -0.1115
34314DOD     C246762   2.889  24.281   8.912 -0.2204 -0.0393 -0.1128
34314DOD     C346763   2.869  24.614   9.254  0.0911 -0.1100  0.1632
34315DOD     C146764  25.303  18.862  19.931  0.0352  0.1882  0.0454
34315DOD     C246765  25.581  18.642  20.128  0.0330 -0.1095 -0.0076
34315DOD     C346766  25.775  18.462  20.509  0.1202  0.0858  0.2709
34316DOD     C146767   3.992  13.226  25.816 -0.0695 -0.0855 -0.1148
34316DOD     C246768   3.784  13.481  25.460 -0.1769  0.1716 -0.1092
34316DOD     C346769   3.817  13.881  25.181  0.1201  0.2604  0.2741
34317DOD     C146770  28.856  13.947   1.048 -0.2019 -0.3284 -0.2387
34317DOD     C246771  28.805  13.640   0.819  0.3421 -0.0582 -0.1722
34317DOD     C346772  28.551  13.569   0.423 -0.1236 -0.1839  0.2257
34318DOD     C146773  26.486   1.940   6.663  0.0063  0.2251  0.1514
34318DOD     C246774  26.097   1.920   6.738  0.0839 -0.1103 -0.0682
34318DOD     C346775  25.855   1.911   7.138  0.0283  0.0767 -0.1707
34319DOD     C146776  17.163  19.462  23.450  0.0866 -0.2999 -0.2138
34319DOD     C246777  16.955  19.921  23.417  0.1553  0.0903  0.1566
34319DOD     C346778  16.643  20.159  23.164  0.1397 -0.4471 -0.1777
34320DOD     C146779   4.169  25.270  10.604  0.0071 -0.0835  0.0948
34320DOD     C246780   4.009  25.710  10.529  0.2159  0.4436 -0.1774
34320DOD     C346781   3.797  26.107  10.633  0.2006  0.0301 -0.0425
34321DOD     C146782  14.110   1.378  11.753  0.0232 -0.0249 -0.0928
34321DOD     C246783  14.034   0.943  11.573 -0.2261 -0.2723  0.0745
34321DOD     C346784  13.959   0.441  11.544  0.0544 -0.3312  0.0513
34322DOD     C146785  13.946   9.344  15.914 -0.1600 -0.0029 -0.0336
34322DOD     C246786  13.737   9.607  16.226 -0.5461 -0.1213  0.0518
34322DOD     C346787  13.526   9.708  16.647  0.1875 -0.3017 -0.1393
34323DOD     C146788   9.280   8.940   6.346  0.0235  0.1925  0.1494
34323DOD     C246789   9.426   9.055   5.871  0.0486  0.1437 -0.0307
34323DOD     C346790   9.433   9.237   5.465  0.2070  0.1923  0.3187
34324DOD     C146791  25.603  20.177   6.022 -0.1875  0.1610  0.1771
34324DOD     C246792  25.471  20.631   5.973  0.0438  0.1667  0.3487
34324DOD     C346793  25.426  20.999   6.216  0.1886  0.1654  0.2735
34325DOD     C146794  26.668  25.515   3.641  0.2937  0.0201 -0.2141
34325DOD     C246795  26.339  25.784   3.843  0.1473  0.1541  0.1922
34325DOD     C346796  26.051  25.656   4.201 -0.0971 -0.0232 -0.0822
34326DOD     C146797  17.342  26.755  14.848  0.3081 -0.0208 -0.0512
34326DOD     C246798  17.025  26.592  15.107  0.0092  0.0179 -0.1930
34326DOD     C346799  17.009  26.115  15.198 -0.0256 -0.1256 -0.0247
34327DOD     C146800   3.582  10.466  27.450  0.1761  0.1788  0.1973
34327DOD     C246801   3.475  10.103  27.795 -0.1162  0.2816  0.1119
34327DOD     C346802   3.562   9.781  28.140  0.0471  0.3542 -0.0091
34328DOD     C146803   6.109  25.337  10.507 -0.1769 -0.2123 -0.0345
34328DOD     C246804   6.374  25.310  10.162  0.0958 -0.2675 -0.1518
34328DOD     C346805   6.499  25.508   9.733 -0.2611 -0.1753 -0.1640
34329DOD     C146806  21.649  11.505  15.631 -0.0377  0.0920  0.0318
34329DOD     C246807  21.730  11.080  15.506 -0.0264 -0.1641 -0.1161
34329DOD     C346808  21.497  10.692  15.579 -0.0623 -0.0847 -0.1379
34330DOD     C146809  29.463   6.297   3.581  0.0448  0.1283 -0.6219
34330DOD     C246810  29.889   6.343   3.848  0.0626 -0.0347 -0.1594
34330DOD     C346811  30.083   6.080   4.192  0.1212 -0.2087  0.0235
34331DOD     C146812   9.485  27.685  24.891 -0.3215 -0.0308  0.0488
34331DOD     C246813   9.028  27.653  24.997  0.2281  0.1988 -0.0567
34331DOD     C346814   8.547  27.627  24.809  0.0950  0.0349 -0.0584
34332DOD     C146815  24.318  19.821  14.124  0.0234 -0.0521  0.1101
34332DOD     C246816  24.549  19.909  14.487  0.0832 -0.1019 -0.3417
34332DOD     C346817  24.753  19.662  14.801  0.0032  0.2655 -0.0826
34333DOD     C146818  29.596   5.744  19.256 -0.4102 -0.0708 -0.1016
34333DOD     C246819  29.540   5.895  19.679  0.0504  0.0483 -0.1372
34333DOD     C346820  29.496   6.289  19.976  0.0405  0.0264  0.0184
34334DOD     C146821  26.489  15.689  24.425 -0.3262 -0.0073 -0.2729
34334DOD     C246822  26.498  16.188  24.426  0.0113  0.0601 -0.0237
34334DOD     C346823  26.148  16.556  24.353 -0.3980 -0.4144  0.1884
34335DOD     C146824  19.936  11.268   7.750 -0.1860 -0.0740 -0.3146
34335DOD     C246825  19.929  11.656   8.004  0.0566 -0.0472 -0.1363
34335DOD     C346826  20.156  12.026   7.795 -0.1646  0.3165 -0.2356
34336DOD     C146827   4.037   5.645   3.320  0.2431 -0.0796  0.1758
34336DOD     C246828   3.720   5.326   3.418 -0.2272  0.1568  0.0468
34336DOD     C346829   3.514   5.195   3.808  0.0237  0.1719 -0.0713
34337DOD     C146830  24.440  27.844  16.046  0.3948  0.4062 -0.0863
34337DOD     C246831  24.087  27.697  15.768  0.2726 -0.0069 -0.1301
34337DOD     C346832  24.013  27.528  15.348 -0.3514 -0.3839  0.0882
34338DOD     C146833   7.543  24.667  23.789 -0.1216  0.1028 -0.0223
34338DOD     C246834   7.157  24.412  23.947 -0.1254 -0.1856  0.0810
34338DOD     C346835   6.689  24.361  23.894  0.1629 -0.2242  0.1291
34339DOD     C146836   1.061  11.501  15.537 -0.0835  0.1572 -0.0300
34339DOD     C246837   0.736  11.323  15.232  0.0378 -0.1762  0.1067
34339DOD     C346838   0.366  11.459  15.014  0.2171 -0.2287  0.3606
34340DOD     C146839  21.273  22.656  24.598 -0.0796 -0.0018 -0.3360
34340DOD     C246840  20.869  22.450  24.625  0.0704 -0.1146 -0.1405
34340DOD     C346841  20.612  22.453  24.219  0.1298  0.1318 -0.1342
34341DOD     C146842  21.396  23.208  25.840 -0.2549 -0.1665  0.0466
34341DOD     C246843  21.878  23.137  25.759 -0.0829 -0.0853  0.0394
34341DOD     C346844  22.286  23.227  25.616  0.2187 -0.3268 -0.2539
34342DOD     C146845   4.514  13.491   8.289 -0.0763  0.2156  0.1756
34342DOD     C246846   4.951  13.452   8.302  0.0309 -0.0479  0.1823
34342DOD     C346847   5.353  13.310   8.089  0.0417 -0.0175  0.2680
34343DOD     C146848  18.642  17.237  23.732  0.1596  0.0928 -0.1411
34343DOD     C246849  19.004  17.531  23.787  0.4273  0.0490  0.0952
34343DOD     C346850  19.395  17.832  23.726 -0.1514 -0.1478  0.2018
34344DOD     C146851  23.319  17.852   0.906 -0.0039 -0.0705 -0.0505
34344DOD     C246852  23.440  17.635   0.495 -0.0327  0.0722  0.1892
34344DOD     C346853  23.348  17.865   0.074  0.2480  0.1591  0.0572
34345DOD     C146854   9.758   6.410   7.774 -0.0502  0.3518  0.1385
34345DOD     C246855   9.561   6.706   7.448 -0.1281 -0.0732 -0.1905
34345DOD     C346856   9.240   7.008   7.382 -0.1042 -0.2320 -0.3041
34346DOD     C146857  11.876   3.596   6.380 -0.0918 -0.3255  0.1350
34346DOD     C246858  12.373   3.614   6.346  0.3542  0.1287  0.0525
34346DOD     C346859  12.605   3.208   6.374  0.0885  0.2499 -0.0471
34347DOD     C146860  24.917  30.159  12.302 -0.2738 -0.0509  0.1585
34347DOD     C246861  24.644  30.094  11.929  0.1052  0.0829  0.0859
34347DOD     C346862  24.346  29.730  11.824 -0.0380 -0.2354 -0.2653
34348DOD     C146863  21.622   0.910  22.979  0.2584 -0.2270 -0.0608
34348DOD     C246864  21.247   0.632  22.889 -0.0580  0.2116  0.1237
34348DOD     C346865  21.157   0.184  22.671  0.0268 -0.0461  0.1796
34349DOD     C146866  16.903  24.901  21.910  0.1391 -0.0700  0.0313
34349DOD     C246867  17.131  24.939  21.549  0.0594  0.1295  0.2277
34349DOD     C346868  17.461  24.862  21.362 -0.0480  0.3560 -0.2463
34350DOD     C146869  29.481   2.011   1.854  0.2253 -0.0370 -0.2278
34350DOD     C246870  29.632   1.564   1.987 -0.2150  0.1240  0.4192
34350DOD     C346871  29.926   1.469   2.344  0.1624  0.1745  0.3107
34351DOD     C146872  14.800  27.162   1.938 -0.1232 -0.0294 -0.1178
34351DOD     C246873  14.491  27.518   1.914  0.2379 -0.1454 -0.0677
34351DOD     C346874  14.236  27.744   2.191  0.4371 -0.0377 -0.2338
34352DOD     C146875  26.685  13.866  18.012 -0.0797  0.0395 -0.0288
34352DOD     C246876  26.807  14.132  17.623 -0.1128 -0.0542  0.0645
34352DOD     C346877  26.705  14.430  17.247  0.4478 -0.1546 -0.0092
34353DOD     C146878   4.336   2.097  19.343 -0.0704 -0.1044  0.1237
34353DOD     C246879   4.742   1.969  19.193  0.0551  0.1496  0.1428
34353DOD     C346880   5.190   2.109  19.281 -0.2095  0.0481  0.1128
34354DOD     C146881  16.103  20.863   2.619 -0.0118  0.0748 -0.0497
34354DOD     C246882  15.914  21.213   2.870  0.0657  0.1100 -0.0490
34354DOD     C346883  16.049  21.683   2.868  0.3301  0.1414  0.2323
34355DOD     C146884  12.405   3.449  23.269 -0.1510 -0.1134  0.1424
34355DOD     C246885  12.637   3.041  23.185  0.0611  0.1231  0.1149
34355DOD     C346886  12.749   2.637  23.432 -0.3119  0.0584 -0.2285
34356DOD     C146887  23.500  25.062   7.334 -0.4661 -0.0136 -0.0442
34356DOD     C246888  23.374  24.910   7.778 -0.0911 -0.1671 -0.0452
34356DOD     C346889  22.940  25.058   7.962 -0.2183  0.0611  0.0282
34357DOD     C146890  24.583   4.886  21.594 -0.1375 -0.0776 -0.1605
34357DOD     C246891  24.692   4.784  21.185  0.0870 -0.2355 -0.1060
34357DOD     C346892  24.785   4.910  20.714 -0.0912 -0.3759 -0.0853
34358DOD     C146893  25.160   5.765   1.360 -0.1876  0.2549  0.1170
34358DOD     C246894  25.435   6.126   1.190  0.0057  0.1856 -0.0421
34358DOD     C346895  25.408   6.528   0.936 -0.0473  0.1628 -0.0401
34359DOD     C146896  21.284  19.901  29.150 -0.0514 -0.1675 -0.1970
34359DOD     C246897  21.546  20.176  29.443  0.2666 -0.0897 -0.0273
34359DOD     C346898  21.403  20.521  29.652 -0.0242  0.0915 -0.0637
34360DOD     C146899  21.258   9.083   2.118 -0.0221  0.2464 -0.1206
34360DOD     C246900  21.451   8.786   2.376 -0.1520  0.1936 -0.0985
34360DOD     C346901  21.439   8.426   2.060 -0.2415  0.0237 -0.0752
34361DOD     C146902  18.575  27.810  11.058 -0.0753  0.2105  0.5326
34361DOD     C246903  18.166  28.055  10.968  0.0058 -0.1742 -0.1957
34361DOD     C346904  17.765  28.200  10.742 -0.0155 -0.1680  0.0539
34362DOD     C146905  12.522   9.727   7.799 -0.1157 -0.2300 -0.1062
34362DOD     C246906  12.123   9.569   7.708 -0.2763  0.0018 -0.2124
34362DOD     C346907  11.701   9.458   7.543  0.2753 -0.1082 -0.1029
34363DOD     C146908  18.505  18.780   0.628  0.0317 -0.3169  0.1251
34363DOD     C246909  18.311  18.569   0.202  0.0716  0.2682 -0.0164
34363DOD     C346910  18.320  18.128  30.295  0.3182 -0.2054  0.0217
34364DOD     C146911  16.245  30.034   6.636 -0.0324 -0.0059 -0.0314
34364DOD     C246912  16.242   0.149   6.634 -0.0836  0.3351  0.0072
34364DOD     C346913  16.341   0.586   6.784 -0.4586 -0.0687 -0.1191
34365DOD     C146914  16.312  13.216   3.452  0.0581  0.1252 -0.3063
34365DOD     C246915  15.887  13.287   3.256  0.0065 -0.1057 -0.3032
34365DOD     C346916  15.467  13.046   3.200  0.1864 -0.1555 -0.2942
34366DOD     C146917  24.941  13.021   5.735 -0.1041  0.3818 -0.0050
34366DOD     C246918  24.886  13.322   6.162  0.3940 -0.2635  0.0603
34366DOD     C346919  24.822  13.519   6.582 -0.2032  0.0806 -0.2140
34367DOD     C146920  27.291  19.965  22.781  0.0982 -0.2608  0.3139
34367DOD     C246921  27.488  20.400  22.849  0.3541  0.3034  0.0193
34367DOD     C346922  27.932  20.440  22.883 -0.2323 -0.2192  0.1851
34368DOD     C146923  28.456   2.774  26.588 -0.3246  0.0135  0.1565
34368DOD     C246924  28.495   2.337  26.367 -0.0201  0.3282 -0.0728
34368DOD     C346925  28.502   1.866  26.262  0.1797 -0.0249  0.0843
34369DOD     C146926   8.118  26.891   5.972  0.0553 -0.0303  0.0018
34369DOD     C246927   7.821  26.842   6.330 -0.1507  0.0592  0.0428
34369DOD     C346928   7.836  27.169   6.631  0.2123  0.2396 -0.0249
34370DOD     C146929  27.896  15.893  22.173  0.2982 -0.0053 -0.1240
34370DOD     C246930  27.650  15.727  22.531  0.0453  0.2095 -0.2731
34370DOD     C346931  27.453  15.350  22.741 -0.0465 -0.1039 -0.1286
34371DOD     C146932   6.354   3.060  21.333  0.0468  0.1455 -0.1208
34371DOD     C246933   5.930   2.873  21.288 -0.0208 -0.0280 -0.1023
34371DOD     C346934   5.556   2.661  21.132  0.2893  0.1416 -0.0951
34372DOD     C146935  22.455  14.300   7.183  0.1943  0.0823  0.1546
34372DOD     C246936  22.817  14.549   7.036 -0.0423 -0.0728  0.0786
34372DOD     C346937  23.159  14.386   6.766 -0.3570  0.1714 -0.2003
34373DOD     C146938  26.327  15.282  28.199 -0.0522 -0.0941 -0.1488
34373DOD     C246939  25.879  15.265  28.340 -0.2567 -0.2421 -0.2676
34373DOD     C346940  25.433  15.175  28.226  0.0782 -0.0088  0.1477
34374DOD     C146941  24.818  12.714  27.049 -0.0107  0.0343 -0.1943
34374DOD     C246942  24.821  13.201  27.159 -0.1297  0.2803  0.2390
34374DOD     C346943  24.911  13.572  26.869  0.0099  0.0213  0.0085
34375DOD     C146944  26.265  19.077  27.082 -0.4137  0.0623  0.0330
34375DOD     C246945  26.601  19.070  27.348  0.0705  0.0780 -0.3089
34375DOD     C346946  26.953  19.129  27.636  0.0997  0.0405  0.0581
34376DOD     C146947  26.597   8.072  26.801 -0.1318  0.2595  0.1396
34376DOD     C246948  26.959   8.194  27.023  0.2779  0.2364 -0.1715
34376DOD     C346949  27.332   8.434  26.985 -0.2144  0.0917 -0.2632
34377DOD     C146950  13.827  16.891  29.958  0.2217  0.2171 -0.0561
34377DOD     C246951  13.722  16.774   0.070 -0.1560 -0.0240  0.0855
34377DOD     C346952  13.437  16.736   0.398  0.3889 -0.0935 -0.0310
34378DOD     C146953  18.981  26.763   5.785 -0.1101 -0.2619  0.1403
34378DOD     C246954  18.499  26.866   5.714 -0.2890 -0.5481 -0.0622
34378DOD     C346955  18.097  26.830   5.852 -0.0496 -0.1525  0.0591
34379DOD     C146956  15.662   2.912  16.853  0.0326  0.0395  0.1235
34379DOD     C246957  15.343   2.787  17.230 -0.3329  0.2400 -0.2108
34379DOD     C346958  15.088   2.917  17.600  0.1141 -0.1598 -0.0700
34380DOD     C146959  19.164  27.770  25.146  0.0033  0.0711 -0.3031
34380DOD     C246960  19.373  27.513  25.504 -0.2490  0.0576  0.0697
34380DOD     C346961  19.333  27.085  25.686  0.1765  0.0970 -0.2273
34381DOD     C146962   0.677  28.339  15.840 -0.0185  0.0821 -0.0086
34381DOD     C246963   0.781  28.775  15.657 -0.0421  0.0681 -0.2759
34381DOD     C346964   1.141  29.089  15.603 -0.0523 -0.4544  0.1462
34382DOD     C146965  16.205   6.938  22.669  0.0494 -0.0194  0.0630
34382DOD     C246966  16.665   6.843  22.634  0.0885 -0.0017  0.1253
34382DOD     C346967  17.125   6.710  22.678  0.0745 -0.2208  0.1684
34383DOD     C146968   6.737   8.273  17.814  0.3509 -0.2720 -0.3430
34383DOD     C246969   7.070   8.518  17.754 -0.0383  0.2294  0.1850
34383DOD     C346970   7.053   8.711  17.294  0.1031 -0.0931 -0.3145
34384DOD     C146971  11.775  12.284  16.288  0.3252  0.0601 -0.0702
34384DOD     C246972  11.945  12.275  16.712 -0.0749  0.2227  0.0517
34384DOD     C346973  12.224  12.352  17.090  0.4642  0.2567  0.0627
34385DOD     C146974   9.599  29.967   3.775  0.0576 -0.1272 -0.0978
34385DOD     C246975   9.196  30.081   3.888 -0.0204  0.2488 -0.0787
34385DOD     C346976   8.964   0.029   4.183 -0.1022  0.2330  0.0771
34386DOD     C146977   0.870   5.775   2.215 -0.1059 -0.1037  0.0229
34386DOD     C246978   0.798   5.725   1.714 -0.0434  0.2828  0.0063
34386DOD     C346979   0.683   6.046   1.457 -0.1500 -0.0618 -0.2327
34387DOD     C146980  21.917  18.017   5.143 -0.1189 -0.0604  0.0428
34387DOD     C246981  21.796  18.258   4.784 -0.1115  0.3331  0.0634
34387DOD     C346982  21.419  18.303   4.546  0.0007  0.1059 -0.1870
34388DOD     C146983   8.162  24.823  21.665 -0.0530  0.2194 -0.0927
34388DOD     C246984   7.843  24.490  21.467 -0.1742 -0.0090  0.2375
34388DOD     C346985   7.480  24.476  21.653 -0.1281 -0.0741  0.0282
34389DOD     C146986  20.702   2.760  18.408  0.0764  0.1184  0.2651
34389DOD     C246987  20.907   3.121  18.213  0.1328  0.1994 -0.1697
34389DOD     C346988  21.438   3.178  18.183 -0.2662 -0.0339 -0.0085
34390DOD     C146989  15.190   2.438  23.100  0.1316 -0.0565 -0.1010
34390DOD     C246990  15.143   2.124  23.424  0.2400 -0.0489  0.2099
34390DOD     C346991  15.329   2.067  23.879  0.2167 -0.0014  0.0925
34391DOD     C146992  18.550   0.804  20.858  0.1064 -0.0791  0.2015
34391DOD     C246993  18.267   0.629  21.140 -0.1707 -0.0109  0.2346
34391DOD     C346994  18.204   0.442  21.578 -0.0715  0.1207  0.0663
34392DOD     C146995  20.401  26.599   6.449 -0.0686 -0.1612  0.1482
34392DOD     C246996  19.970  26.605   6.633  0.2789 -0.1070 -0.0337
34392DOD     C346997  19.514  26.470   6.725 -0.2249 -0.2552  0.0847
34393DOD     C146998   7.126  13.289  13.344  0.2016 -0.0741  0.0501
34393DOD     C246999   7.439  12.948  13.263  0.1421 -0.0483 -0.1231
34393DOD     C347000   7.776  12.968  12.990  0.1621  0.0650  0.1782
34394DOD     C147001  26.177  10.207  24.268 -0.2778  0.1376  0.1513
34394DOD     C247002  25.905   9.941  24.604  0.1911  0.0118  0.1233
34394DOD     C347003  25.666   9.897  25.041  0.0491 -0.2626  0.2502
34395DOD     C147004  25.836  20.281   3.048 -0.0932  0.0785 -0.3659
34395DOD     C247005  25.803  20.017   3.401 -0.2506 -0.3413  0.0753
34395DOD     C347006  25.714  19.844   3.869 -0.0958  0.0515  0.2731
34396DOD     C147007  17.297  26.199  27.341  0.0441  0.0339 -0.0344
34396DOD     C247008  17.507  26.339  26.870 -0.0053 -0.0174  0.2586
34396DOD     C347009  17.666  26.543  26.539 -0.2636 -0.1510  0.3239
34397DOD     C147010   9.046  25.379  29.770 -0.0580 -0.1455  0.0712
34397DOD     C247011   9.526  25.429  29.831  0.1589  0.0902 -0.1698
34397DOD     C347012   9.918  25.178  29.778 -0.1525  0.1704 -0.0313
34398DOD     C147013   2.994  17.697  27.241  0.1938 -0.0503 -0.0777
34398DOD     C247014   2.669  17.370  27.175  0.1305  0.0360  0.2236
34398DOD     C347015   2.363  17.064  27.351 -0.3572  0.0752  0.1417
34399DOD     C147016  17.918  26.324   5.212  0.2213  0.2557  0.2248
34399DOD     C247017  18.050  26.168   4.796  0.3112  0.1017 -0.1260
34399DOD     C347018  18.064  26.027   4.357 -0.0730 -0.3311 -0.0640
34400DOD     C147019  25.914   7.503  13.253 -0.0148  0.2214 -0.3191
34400DOD     C247020  25.551   7.568  12.943 -0.1241 -0.2718 -0.0468
34400DOD     C347021  25.178   7.410  12.640  0.0896  0.2185 -0.0339
34401DOD     C147022   4.701  23.973  26.810  0.1780 -0.0301 -0.2256
34401DOD     C247023   4.877  24.281  26.566 -0.1648 -0.1918  0.2803
34401DOD     C347024   4.691  24.705  26.416  0.0598  0.0610  0.0114
34402DOD     C147025   7.339  28.130  19.132 -0.2218 -0.1869  0.0479
34402DOD     C247026   7.396  28.192  19.607 -0.1691 -0.1281 -0.0972
34402DOD     C347027   7.651  28.272  20.009 -0.1230  0.1070 -0.2557
34403DOD     C147028  13.226  21.612  22.588 -0.0136 -0.0079  0.3697
34403DOD     C247029  13.510  21.787  22.813  0.0618 -0.1152  0.2062
34403DOD     C347030  13.693  21.867  23.206 -0.1923  0.0109 -0.0515
34404DOD     C147031   7.418   6.574  21.943 -0.2001 -0.3127  0.1111
34404DOD     C247032   7.074   6.321  21.676  0.1597  0.2145 -0.4005
34404DOD     C347033   6.818   5.979  21.475  0.0577  0.1892 -0.2790
34405DOD     C147034   7.845   0.262   1.992  0.1445 -0.0870 -0.3289
34405DOD     C247035   8.027   0.461   2.373  0.2806 -0.1468  0.2335
34405DOD     C347036   8.018   0.907   2.554 -0.1131 -0.2093  0.0733
34406DOD     C147037  29.156  26.854  30.252  0.0277 -0.1173 -0.1583
34406DOD     C247038  29.347  27.250  30.178  0.2028 -0.0494  0.1898
34406DOD     C347039  29.617  27.621  30.166 -0.0692  0.0310 -0.2171
34407DOD     C147040  22.073  27.917  29.751 -0.3982  0.0288  0.5388
34407DOD     C247041  21.973  28.190  29.377  0.0310  0.0701 -0.2315
34407DOD     C347042  21.941  28.588  29.212  0.1194 -0.1702  0.1224
34408DOD     C147043  21.794   4.926  10.777 -0.1559  0.0608  0.0098
34408DOD     C247044  21.319   4.888  10.844 -0.0850  0.1731 -0.0029
34408DOD     C347045  20.915   5.048  10.993  0.2488  0.3288  0.2445
34409DOD     C147046  21.997  11.349  11.624 -0.0298 -0.0152 -0.1921
34409DOD     C247047  21.688  11.309  11.320 -0.1859  0.4073  0.0145
34409DOD     C347048  21.439  11.365  10.948  0.0422 -0.1978 -0.1544
34410DOD     C147049  23.706  26.036   9.411 -0.0346 -0.0518 -0.0242
34410DOD     C247050  23.960  26.442   9.530 -0.0438 -0.2272  0.0331
34410DOD     C347051  24.009  26.826   9.786  0.1684  0.1214  0.4250
34411DOD     C147052   4.340  26.126  27.215  0.1231 -0.3601  0.0792
34411DOD     C247053   4.564  25.746  27.164 -0.0853  0.0706  0.1944
34411DOD     C347054   4.804  25.360  26.949 -0.0119  0.0885  0.0397
34412DOD     C147055  26.267  17.225   1.888  0.0240 -0.2202  0.0030
34412DOD     C247056  26.666  17.422   1.872  0.2327 -0.1986 -0.0827
34412DOD     C347057  27.138  17.456   2.004 -0.1677  0.0429 -0.0551
34413DOD     C147058   8.311   1.227  29.686 -0.3195 -0.0268 -0.1332
34413DOD     C247059   8.742   1.082  29.565 -0.2389 -0.2657  0.1056
34413DOD     C347060   9.189   0.945  29.470 -0.0515  0.0616 -0.1056
34414DOD     C147061  17.035  25.436  16.975  0.0907 -0.0091 -0.1155
34414DOD     C247062  16.997  24.954  17.118 -0.2015  0.3799 -0.0760
34414DOD     C347063  16.795  24.581  16.812 -0.0819 -0.2865  0.0547
34415DOD     C147064  17.195  26.669  13.911  0.0289 -0.0557  0.0769
34415DOD     C247065  16.754  26.742  13.834 -0.2527  0.0992  0.0177
34415DOD     C347066  16.314  26.576  13.963 -0.0781  0.0075 -0.2145
34416DOD     C147067   1.882  26.935   0.263 -0.3426  0.1660 -0.1286
34416DOD     C247068   1.881  26.570  30.297  0.1984  0.2891 -0.1255
34416DOD     C347069   2.121  26.393  29.900 -0.0692 -0.0428  0.1724
34417DOD     C147070   1.446  22.234   9.914 -0.0461 -0.0738  0.1615
34417DOD     C247071   1.614  22.039   9.471  0.0514 -0.0249  0.2511
34417DOD     C347072   1.846  21.772   9.150  0.0464 -0.0779 -0.2507
34418DOD     C147073  26.988  12.979  22.455 -0.1005  0.0686 -0.0918
34418DOD     C247074  26.815  12.555  22.325  0.1930  0.3667 -0.1013
34418DOD     C347075  26.410  12.423  22.141 -0.0797  0.1080 -0.0059
34419DOD     C147076  19.153   7.236   0.169  0.0714 -0.3502 -0.2559
34419DOD     C247077  19.150   7.742   0.208 -0.0861  0.2327 -0.1843
34419DOD     C347078  19.067   8.190   0.159 -0.1922  0.0620 -0.1663
34420DOD     C147079   8.081  26.268  20.273 -0.0991  0.0084 -0.0536
34420DOD     C247080   8.384  26.519  20.502  0.2210 -0.2728 -0.3373
34420DOD     C347081   8.694  26.895  20.510  0.1398  0.1806 -0.2329
34421DOD     C147082   9.575  15.553   9.437  0.1895 -0.0499  0.0895
34421DOD     C247083   9.998  15.802   9.428  0.1003 -0.4885 -0.0401
34421DOD     C347084  10.286  16.179   9.351 -0.0293 -0.3602  0.0083
34422DOD     C147085  19.486  22.601   4.763 -0.0675  0.0774  0.0316
34422DOD     C247086  19.845  22.887   4.880  0.1000  0.5461  0.0820
34422DOD     C347087  20.014  23.308   4.884 -0.0859  0.0423  0.2248
34423DOD     C147088  19.252   2.754  13.088 -0.1549 -0.1167 -0.1219
34423DOD     C247089  19.483   3.134  13.096  0.2623  0.2443  0.1053
34423DOD     C347090  19.841   3.337  13.200  0.1629 -0.2449  0.0012
34424DOD     C147091  12.224   7.575   8.761  0.0266  0.0711  0.2064
34424DOD     C247092  11.989   7.949   8.558  0.0769 -0.2485  0.0838
34424DOD     C347093  11.766   8.393   8.699  0.1256 -0.1070  0.2295
34425DOD     C147094   6.318  10.252  28.993  0.0740 -0.1539 -0.1625
34425DOD     C247095   6.185  10.614  28.671  0.2499  0.0626 -0.1698
34425DOD     C347096   5.930  10.852  28.369 -0.0556 -0.1277 -0.0372
34426DOD     C147097   0.542   7.778  15.705  0.0655  0.0929 -0.1778
34426DOD     C247098   0.717   8.069  16.008 -0.3587 -0.0603  0.1480
34426DOD     C347099   1.126   8.420  15.978  0.0661 -0.3243 -0.2366
34427DOD     C147100   1.576  28.567  23.650 -0.0116 -0.0369  0.2017
34427DOD     C247101   1.155  28.482  23.419 -0.2428  0.1739 -0.1008
34427DOD     C347102   0.865  28.209  23.102 -0.0546  0.1527 -0.2302
34428DOD     C147103  29.766  21.145  15.150  0.0113 -0.0741  0.0519
34428DOD     C247104  29.743  21.089  15.610 -0.0607 -0.2497 -0.0540
34428DOD     C347105  29.716  21.071  16.066 -0.1284  0.2107 -0.3382
34429DOD     C147106  26.105   6.790  14.110  0.1185  0.3283  0.0040
34429DOD     C247107  26.439   6.603  13.830 -0.1139 -0.1968 -0.0047
34429DOD     C347108  26.882   6.725  13.672 -0.5229  0.0371 -0.2178
34430DOD     C147109   3.092  30.072  15.064 -0.1658 -0.0653  0.1871
34430DOD     C247110   3.428  29.766  15.240  0.0595  0.1167 -0.1249
34430DOD     C347111   3.717  29.400  15.106  0.2114 -0.0009 -0.2088
34431DOD     C147112   7.659   6.872   5.103 -0.2535 -0.0069 -0.3007
34431DOD     C247113   7.381   6.565   4.846  0.1121  0.1235  0.2019
34431DOD     C347114   7.086   6.380   4.541 -0.0572 -0.0947 -0.2724
34432DOD     C147115  21.656  24.743  16.359  0.2551  0.2466 -0.0301
34432DOD     C247116  21.987  24.537  16.008 -0.4112 -0.0952 -0.2473
34432DOD     C347117  22.159  24.496  15.574  0.0291  0.2096  0.0402
34433DOD     C147118  15.815  15.228   9.983 -0.2954 -0.0903 -0.0257
34433DOD     C247119  16.051  15.098   9.587  0.0010  0.2210  0.2399
34433DOD     C347120  16.392  14.839   9.474 -0.0720 -0.2433  0.1864
34434DOD     C147121   2.213   6.501   6.945 -0.3479  0.0400 -0.2103
34434DOD     C247122   2.662   6.335   7.022  0.2052 -0.1840 -0.0820
34434DOD     C347123   2.900   6.037   6.810 -0.0139 -0.1069  0.0129
34435DOD     C147124  19.866  16.551  13.784  0.1323  0.1527  0.2083
34435DOD     C247125  20.044  16.956  13.511  0.0263  0.2902  0.0942
34435DOD     C347126  20.198  17.214  13.164 -0.4025 -0.0385  0.2175
34436DOD     C147127   1.790   8.980  27.622  0.2855 -0.4420 -0.1603
34436DOD     C247128   1.803   8.530  27.593 -0.0314  0.3330  0.2561
34436DOD     C347129   1.957   8.078  27.389  0.0279 -0.0615 -0.0634
34437DOD     C147130  15.239   3.912   6.790 -0.0088 -0.1941 -0.1248
34437DOD     C247131  14.989   3.601   6.971 -0.1859  0.1898  0.0872
34437DOD     C347132  14.791   3.467   7.396  0.3783  0.0740 -0.2129
34438DOD     C147133   5.715  19.979  15.136  0.0014 -0.0533  0.0176
34438DOD     C247134   5.813  20.391  15.057 -0.0595  0.0490  0.0321
34438DOD     C347135   5.583  20.803  14.883 -0.0728 -0.1191 -0.0122
34439DOD     C147136   3.988  29.710  21.680  0.1503  0.0595 -0.1779
34439DOD     C247137   3.830  29.515  21.256  0.0979 -0.0551 -0.0560
34439DOD     C347138   3.886  29.164  20.973  0.2826  0.0099  0.0850
34440DOD     C147139  27.483  17.653  22.080 -0.0197 -0.3512  0.2918
34440DOD     C247140  27.258  17.581  22.461  0.1092  0.3372  0.0584
34440DOD     C347141  26.838  17.527  22.681 -0.1685  0.0289 -0.1255
34441DOD     C147142  11.005  11.970  29.491 -0.1432 -0.1393 -0.0156
34441DOD     C247143  10.579  11.998  29.263 -0.2007  0.1872  0.0406
34441DOD     C347144  10.236  11.724  29.194  0.0393  0.1008 -0.0418
34442DOD     C147145  21.048   5.343  27.336  0.2265 -0.0962 -0.0288
34442DOD     C247146  20.798   5.154  27.690 -0.2988 -0.1395  0.1561
34442DOD     C347147  20.404   4.961  27.742 -0.2017  0.2690 -0.0408
34443DOD     C147148  26.243  19.664   6.731  0.0851 -0.2305  0.0138
34443DOD     C247149  26.062  19.485   6.343 -0.2942 -0.0926  0.2048
34443DOD     C347150  25.985  19.140   6.009 -0.2661  0.2439 -0.0548
34444DOD     C147151  20.359   5.549   9.883  0.0513  0.2343 -0.0393
34444DOD     C247152  20.561   5.120   9.960 -0.0006 -0.0428 -0.0419
34444DOD     C347153  20.803   4.734   9.905 -0.3126  0.3056  0.0080
34445DOD     C147154   3.508  28.551  28.085  0.3414 -0.1165 -0.0656
34445DOD     C247155   3.747  28.953  28.172 -0.2716  0.1572  0.0626
34445DOD     C347156   4.083  28.820  28.500  0.1522 -0.1185 -0.1932
34446DOD     C147157  21.989  22.909   0.661 -0.1568 -0.2862  0.1108
34446DOD     C247158  21.825  23.347   0.815 -0.2522 -0.2432 -0.4598
34446DOD     C347159  21.579  23.590   1.202  0.0409  0.0212 -0.0407
34447DOD     C147160  23.067  15.579  21.996  0.1682  0.0160 -0.3072
34447DOD     C247161  22.678  15.550  22.270  0.1466 -0.1684 -0.0086
34447DOD     C347162  22.258  15.621  22.367  0.3223  0.1798 -0.3208
34448DOD     C147163   6.823  15.831  15.917 -0.1691  0.4645 -0.1990
34448DOD     C247164   6.691  16.179  16.097  0.1403  0.0688 -0.3762
34448DOD     C347165   6.316  16.408  16.115  0.1092  0.0725  0.2003
34449DOD     C147166  20.741  19.701   8.161 -0.0056  0.0872  0.0102
34449DOD     C247167  21.154  19.563   8.294 -0.0360 -0.1385  0.2044
34449DOD     C347168  21.503  19.380   8.100  0.0281  0.1227 -0.0873
34450DOD     C147169   3.617   7.053  20.516  0.2150 -0.2426 -0.1755
34450DOD     C247170   3.235   7.043  20.759  0.3825  0.1535  0.0733
34450DOD     C347171   2.778   7.028  20.969 -0.0210 -0.3057 -0.3002
34451DOD     C147172   8.683   0.737   5.644 -0.1686 -0.0619 -0.0853
34451DOD     C247173   8.759   0.325   5.438  0.1197  0.1450 -0.1953
34451DOD     C347174   8.480   0.047   5.230 -0.0044  0.0094  0.1216
34452DOD     C147175   4.641  28.735   6.086  0.0310 -0.0285  0.0589
34452DOD     C247176   4.661  28.320   5.969  0.1267 -0.1040  0.4004
34452DOD     C347177   4.262  28.206   5.774 -0.0215  0.0829 -0.0501
34453DOD     C147178   4.548  23.775  20.804 -0.1724  0.2406 -0.0209
34453DOD     C247179   4.839  23.975  20.463 -0.1392 -0.3060  0.1077
34453DOD     C347180   5.039  24.240  20.136 -0.1278  0.0427  0.2044
34454DOD     C147181  25.331   9.990  28.144  0.1658 -0.2070  0.0179
34454DOD     C247182  25.330  10.236  28.523  0.1501  0.2873 -0.4283
34454DOD     C347183  25.344  10.217  28.969  0.2021 -0.2448 -0.0245
34455DOD     C147184   4.079  28.103  29.382  0.5614  0.2558  0.0581
34455DOD     C247185   4.161  28.280  28.975  0.1369 -0.2059 -0.0576
34455DOD     C347186   4.178  28.190  28.525  0.1103  0.3042 -0.0213
34456DOD     C147187  22.177  28.561  24.597  0.1095 -0.1721 -0.0916
34456DOD     C247188  21.805  28.331  24.682  0.2078 -0.2163 -0.0946
34456DOD     C347189  21.595  28.006  24.976  0.2072 -0.0965 -0.1667
34457DOD     C147190  26.613   8.991   8.131  0.0481  0.2613  0.1647
34457DOD     C247191  26.505   8.522   7.954 -0.1957  0.0682 -0.2814
34457DOD     C347192  26.443   8.126   8.246  0.0858 -0.0379 -0.2772
34458DOD     C147193   2.191  21.540  23.989 -0.1014 -0.0322 -0.1667
34458DOD     C247194   2.211  21.090  24.128 -0.0725 -0.1610  0.0547
34458DOD     C347195   2.486  20.748  24.263 -0.2809 -0.1159 -0.0653
34459DOD     C147196   0.095  26.632  23.084 -0.0202 -0.2149  0.1360
34459DOD     C247197   0.441  26.544  22.874 -0.1757 -0.0041 -0.1157
34459DOD     C347198   0.898  26.381  22.865 -0.2233 -0.0691  0.0880
34460DOD     C147199  17.529   5.609   4.873 -0.3001  0.3436 -0.0849
34460DOD     C247200  17.584   5.598   5.353  0.2027 -0.3809 -0.1268
34460DOD     C347201  17.659   5.778   5.776  0.2226 -0.1508 -0.0465
34461DOD     C147202   5.966  28.556  18.034 -0.2169  0.2166  0.2722
34461DOD     C247203   6.119  29.016  17.940  0.1113  0.2718 -0.0825
34461DOD     C347204   6.438  29.428  17.979 -0.1339  0.0497 -0.0488
34462DOD     C147205  22.346  19.228   3.643 -0.3716  0.2098  0.0410
34462DOD     C247206  21.967  19.386   3.818 -0.1387  0.0575 -0.0946
34462DOD     C347207  21.721  19.557   4.142 -0.2203 -0.0524 -0.1073
34463DOD     C147208  17.364  21.031   8.531 -0.1286 -0.1768 -0.4168
34463DOD     C247209  16.946  21.216   8.538  0.1782  0.0891 -0.0693
34463DOD     C347210  16.593  21.167   8.256  0.0454  0.1348  0.1810
34464DOD     C147211   2.196  21.021  10.336  0.3323  0.0644 -0.0116
34464DOD     C247212   2.389  20.603  10.503 -0.0655  0.3639  0.2485
34464DOD     C347213   2.654  20.255  10.245 -0.3207  0.2325 -0.0077
34465DOD     C147214  10.718   2.991   3.724  0.0659 -0.0249 -0.1793
34465DOD     C247215  10.469   3.370   3.714  0.2684 -0.1464 -0.1402
34465DOD     C347216  10.370   3.644   4.040  0.1672 -0.2645  0.2028
34466DOD     C147217  17.450   2.741   7.122 -0.0093  0.3834 -0.0822
34466DOD     C247218  17.140   2.890   7.409 -0.1852  0.0580  0.1940
34466DOD     C347219  17.145   3.023   7.821 -0.5274  0.1037  0.1291
34467DOD     C147220  17.137  18.345  12.976 -0.0864  0.0799 -0.2621
34467DOD     C247221  16.770  18.139  13.081 -0.1180 -0.0187 -0.0225
34467DOD     C347222  16.533  18.170  13.498  0.1230 -0.1534  0.4109
34468DOD     C147223  24.975  24.646  15.029 -0.0022 -0.1903  0.1418
34468DOD     C247224  24.968  24.946  14.744  0.1551 -0.0846 -0.3055
34468DOD     C347225  24.652  25.304  14.661  0.0488 -0.0332  0.1025
34469DOD     C147226  20.387   9.519   8.280 -0.1929  0.0406  0.1754
34469DOD     C247227  20.477   9.097   8.009 -0.0099  0.1427 -0.1320
34469DOD     C347228  20.673   8.881   7.665 -0.0335 -0.2816 -0.1148
34470DOD     C147229   8.301   7.385   6.341 -0.5072 -0.3713  0.0534
34470DOD     C247230   8.509   7.314   5.981 -0.3864 -0.0632 -0.0178
34470DOD     C347231   8.397   7.224   5.498 -0.0519  0.1059  0.0429
34471DOD     C147232   4.383  18.156  27.741  0.3684 -0.3476  0.0838
34471DOD     C247233   4.535  18.575  27.753  0.1425  0.2434 -0.0477
34471DOD     C347234   4.849  18.775  28.040 -0.0587  0.0694  0.0576
34472DOD     C147235   9.412  14.386  29.811  0.1089 -0.0253 -0.1303
34472DOD     C247236   9.797  14.589  29.908 -0.0811 -0.0224 -0.0426
34472DOD     C347237  10.121  14.764  29.656 -0.1731 -0.1297 -0.2164
34473DOD     C147238   1.878  12.855  15.984 -0.0007 -0.0284 -0.1562
34473DOD     C247239   2.149  12.521  15.862  0.2579  0.1438  0.0539
34473DOD     C347240   2.179  12.117  15.694 -0.1933  0.1456 -0.0005
34474DOD     C147241  29.966  16.430  28.352 -0.0420 -0.1104  0.4236
34474DOD     C247242  30.062  16.153  28.695 -0.0746  0.2020 -0.0232
34474DOD     C347243  29.959  15.893  29.081  0.0548 -0.0088 -0.1206
34475DOD     C147244   2.783  24.104  15.240 -0.0211  0.1084 -0.1192
34475DOD     C247245   3.080  24.038  14.893  0.4479  0.1211  0.0044
34475DOD     C347246   3.362  23.872  14.565 -0.2347 -0.1560  0.1230
34476DOD     C147247  15.230  30.092  19.668  0.0655 -0.3299 -0.0804
34476DOD     C247248  15.483  30.129  19.261 -0.1665  0.0815 -0.0482
34476DOD     C347249  15.860  29.868  19.216 -0.1157  0.3967 -0.1451
34477DOD     C147250   2.441  22.700   0.546 -0.0718 -0.0786  0.3067
34477DOD     C247251   2.834  22.742   0.751 -0.0752 -0.0747  0.1274
34477DOD     C347252   3.123  23.071   0.938  0.0940 -0.0828 -0.0671
34478DOD     C147253  17.246   0.819   8.239 -0.0890  0.0681 -0.2678
34478DOD     C247254  17.432   0.699   8.636  0.0118 -0.0984 -0.3355
34478DOD     C347255  17.853   0.824   8.797  0.2033  0.2700 -0.3898
34479DOD     C147256  25.100   7.845   6.562 -0.1493 -0.0707  0.0742
34479DOD     C247257  25.004   7.602   6.157 -0.0285 -0.0911 -0.0477
34479DOD     C347258  24.792   7.516   5.696 -0.1061  0.1488 -0.0046
34480DOD     C147259  25.324   1.607  23.503  0.4185  0.0913  0.2472
34480DOD     C247260  25.375   2.059  23.444  0.1597  0.0038 -0.0990
34480DOD     C347261  25.164   2.489  23.584 -0.0995  0.1948  0.0938
34481DOD     C147262  21.337  17.165   7.629 -0.3951  0.0236 -0.0569
34481DOD     C247263  21.213  17.212   7.181  0.2577  0.0104  0.1672
34481DOD     C347264  21.039  17.304   6.712  0.0465 -0.0939  0.1269
34482DOD     C147265  16.775  12.045  13.738 -0.0702  0.0907  0.1391
34482DOD     C247266  16.386  11.880  13.883  0.0141  0.2629  0.0451
34482DOD     C347267  16.132  11.475  13.944  0.1268  0.1360 -0.0510
34483DOD     C147268  21.752  26.120  15.256  0.0390 -0.3603 -0.0645
34483DOD     C247269  21.628  26.025  15.698 -0.0372  0.1755  0.2159
34483DOD     C347270  21.276  25.934  15.983  0.0072  0.2474 -0.0766
34484DOD     C147271  29.898  12.826  16.030  0.1477  0.0832  0.0256
34484DOD     C247272  30.323  12.984  16.041  0.0983 -0.1755  0.1712
34484DOD     C347273   0.306  13.065  16.302 -0.0727 -0.3523 -0.2039
34485DOD     C147274   0.503  29.447  25.407 -0.2898 -0.0371 -0.0744
34485DOD     C247275   0.959  29.221  25.583  0.0808 -0.1617 -0.0013
34485DOD     C347276   1.405  29.303  25.541 -0.2437 -0.1533  0.0810
34486DOD     C147277  24.597  25.345  24.204  0.1962  0.1510  0.1254
34486DOD     C247278  24.375  25.030  24.466 -0.2400 -0.0017  0.1000
34486DOD     C347279  24.349  24.570  24.571 -0.0127 -0.3069  0.2878
34487DOD     C147280  10.036  21.201   7.105  0.3117 -0.1842  0.4754
34487DOD     C247281   9.598  21.124   7.235  0.1190 -0.3596 -0.1631
34487DOD     C347282   9.319  21.252   7.550 -0.0925  0.1943 -0.0563
34488DOD     C147283   5.777  10.650  18.774  0.0342  0.0362 -0.0305
34488DOD     C247284   5.344  10.707  18.593  0.0951 -0.0014 -0.1103
34488DOD     C347285   4.950  10.609  18.268 -0.3549  0.2799  0.0738
34489DOD     C147286  17.829  20.239   3.409  0.4483 -0.0838 -0.1373
34489DOD     C247287  18.193  19.951   3.420 -0.0434 -0.1128 -0.2631
34489DOD     C347288  18.541  19.739   3.260  0.1593 -0.0818 -0.2061
34490DOD     C147289   6.342   2.928  20.862 -0.0147  0.3789 -0.1035
34490DOD     C247290   6.346   2.878  20.410  0.1047  0.2198  0.0487
34490DOD     C347291   6.509   2.913  19.994 -0.0478  0.2696  0.1865
34491DOD     C147292  11.709  13.005  25.247 -0.0722  0.2872  0.2973
34491DOD     C247293  11.371  13.220  25.006  0.1569  0.1673  0.3499
34491DOD     C347294  10.915  13.075  24.899  0.1201 -0.1991 -0.1508
34492DOD     C147295  25.657   8.946   6.079 -0.0319  0.0478  0.1158
34492DOD     C247296  25.500   8.903   6.532 -0.0177 -0.0117  0.0345
34492DOD     C347297  25.122   8.970   6.774 -0.3258 -0.2950  0.1184
34493DOD     C147298   9.787  18.656  29.856  0.1084  0.0112 -0.0549
34493DOD     C247299   9.881  18.614  -0.013 -0.2201 -0.3817 -0.2826
34493DOD     C347300   9.721  18.273   0.272  0.1277 -0.2821 -0.1667
34494DOD     C147301  15.578  30.094   3.077  0.0164 -0.0768  0.2043
34494DOD     C247302  15.800  29.785   3.311  0.1888 -0.0730  0.0003
34494DOD     C347303  15.862  29.355   3.382  0.4807  0.0037 -0.2154
34495DOD     C147304   1.376   8.000  14.716  0.0947 -0.0794 -0.3521
34495DOD     C247305   1.057   7.613  14.586 -0.0092  0.1466  0.0673
34495DOD     C347306   0.581   7.603  14.666  0.2399  0.1080 -0.2111
34496DOD     C147307  23.724  14.902   5.487  0.2568  0.0935 -0.0244
34496DOD     C247308  23.990  15.232   5.311 -0.0422  0.2507  0.2652
34496DOD     C347309  23.826  15.684   5.267 -0.2683  0.1241 -0.2194
34497DOD     C147310  13.900   0.403  29.498  0.0734  0.2357  0.1995
34497DOD     C247311  13.692   0.500  29.895  0.1518 -0.1231 -0.0406
34497DOD     C347312  13.465   0.392  30.293  0.4872  0.1394 -0.0765
34498DOD     C147313  22.222   3.287  14.223  0.1496 -0.1345  0.1406
34498DOD     C247314  22.115   3.657  13.983 -0.2466 -0.2204 -0.1017
34498DOD     C347315  22.321   3.862  13.575 -0.0067 -0.1761 -0.2228
34499DOD     C147316  23.031   2.123  24.068 -0.1555  0.3185 -0.0267
34499DOD     C247317  23.328   1.889  23.758 -0.0845 -0.2697  0.1026
34499DOD     C347318  23.535   1.475  23.599  0.1058  0.1973  0.3931
34500DOD     C147319   6.630  21.511   2.525 -0.0290  0.0768  0.2104
34500DOD     C247320   6.944  21.863   2.476  0.2554 -0.3038 -0.0199
34500DOD     C347321   7.175  22.274   2.388  0.0399  0.0756 -0.0941
34501DOD     C147322  11.859  24.082  20.476  0.1990 -0.0698  0.1042
34501DOD     C247323  11.558  24.188  20.832  0.0141 -0.3410  0.2329
34501DOD     C347324  11.327  24.204  21.227  0.0866 -0.2625 -0.1829
34502DOD     C147325   4.010  27.485  15.931 -0.3230 -0.0976 -0.3359
34502DOD     C247326   4.439  27.565  16.078 -0.0575 -0.1168 -0.4809
34502DOD     C347327   4.788  27.218  16.060  0.2858 -0.2723 -0.2518
34503DOD     C147328   8.211   3.655  27.537 -0.1091  0.3527  0.2850
34503DOD     C247329   7.966   4.067  27.490 -0.0111  0.0545 -0.0704
34503DOD     C347330   7.620   4.206  27.226  0.0879  0.0855  0.3682
34504DOD     C147331   9.693   2.999   7.446 -0.2918 -0.1325 -0.0702
34504DOD     C247332   9.478   3.295   7.808 -0.0747 -0.1759 -0.0306
34504DOD     C347333   9.562   3.557   8.125 -0.0648  0.3271 -0.0593
34505DOD     C147334  26.666  16.502   5.967  0.0853 -0.0930 -0.0627
34505DOD     C247335  26.315  16.232   5.976 -0.1250  0.1581  0.1067
34505DOD     C347336  25.881  16.201   5.992 -0.2696  0.0100 -0.2193
34506DOD     C147337  20.353  19.770  25.510 -0.1354  0.1865 -0.2520
34506DOD     C247338  20.652  19.601  25.849  0.0891  0.0131 -0.1386
34506DOD     C347339  20.920  19.325  26.107 -0.1405  0.2956 -0.3249
34507DOD     C147340  16.478  15.111  15.480  0.1128 -0.0761 -0.0374
34507DOD     C247341  16.354  14.895  15.895  0.3119  0.2039 -0.1854
34507DOD     C347342  16.254  14.447  16.073  0.2855  0.1887  0.3552
34508DOD     C147343   1.677  10.200  14.861  0.0559  0.1045  0.1719
34508DOD     C247344   1.589  10.209  15.277  0.4256  0.0489  0.0486
34508DOD     C347345   1.462  10.584  15.562 -0.0369  0.1501 -0.0234
34509DOD     C147346  22.756  27.422   6.576 -0.0743 -0.2332  0.1996
34509DOD     C247347  23.191  27.321   6.356  0.0021 -0.2566  0.1206
34509DOD     C347348  23.179  27.003   6.011  0.0086 -0.0369  0.0038
34510DOD     C147349   4.174  26.120  29.584  0.0914  0.2005  0.0912
34510DOD     C247350   4.514  26.398  29.460  0.1390 -0.2685  0.1532
34510DOD     C347351   4.488  26.856  29.429  0.3624  0.3589 -0.1121
34511DOD     C147352  14.888  10.136  16.946  0.1745  0.0995 -0.4131
34511DOD     C247353  15.258  10.316  16.961  0.1507  0.2775  0.0457
34511DOD     C347354  15.654  10.497  16.814  0.0478 -0.2702  0.0272
34512DOD     C147355   3.936  28.551  30.195  0.0140  0.0643  0.2199
34512DOD     C247356   4.409  28.561  30.202  0.1275 -0.0298  0.0435
34512DOD     C347357   4.752  28.887  30.145  0.2988  0.1574  0.1411
34513DOD     C147358  24.419   2.030  29.618 -0.3921  0.0886 -0.0955
34513DOD     C247359  24.230   2.432  29.746  0.2701 -0.0464 -0.2489
34513DOD     C347360  23.933   2.733  30.029  0.0639  0.0408 -0.0511
34514DOD     C147361   8.510   8.091  26.231 -0.0916 -0.0191 -0.0880
34514DOD     C247362   8.447   8.543  26.282  0.1909  0.0656 -0.0400
34514DOD     C347363   8.790   8.858  26.224 -0.1620  0.2097  0.0584
34515DOD     C147364   9.985  10.573  20.054 -0.1940 -0.1980 -0.1126
34515DOD     C247365   9.516  10.529  20.191  0.1589  0.1097 -0.1210
34515DOD     C347366   9.199  10.765  20.370  0.0254  0.0999 -0.0182
34516DOD     C147367  18.434  13.355  27.993 -0.2970 -0.3057 -0.0556
34516DOD     C247368  18.691  12.973  28.149 -0.1748 -0.0734 -0.1765
34516DOD     C347369  19.014  12.680  28.357  0.2255  0.2306 -0.0301
34517DOD     C147370  24.371   6.687   4.777 -0.0838 -0.3341  0.0101
34517DOD     C247371  23.908   6.683   4.828 -0.0345 -0.0535  0.0396
34517DOD     C347372  23.590   7.031   4.705 -0.0039  0.1022 -0.0482
34518DOD     C147373  10.407  29.078  19.947 -0.3257  0.1008  0.0479
34518DOD     C247374  10.447  29.004  19.534 -0.0406 -0.0721  0.4870
34518DOD     C347375  10.176  29.126  19.186  0.1245 -0.0863  0.1113
34519DOD     C147376   8.396  29.966   5.622  0.1034 -0.2238 -0.0333
34519DOD     C247377   8.848  30.146   5.678  0.1770 -0.2201  0.2843
34519DOD     C347378   9.284  30.112   5.812  0.1068  0.1900  0.1205
34520DOD     C147379  21.628   3.549  11.971 -0.1173  0.0966 -0.1637
34520DOD     C247380  21.433   3.140  12.157 -0.0843  0.1086  0.0731
34520DOD     C347381  21.129   2.992  12.522 -0.3808  0.0794  0.2667
34521DOD     C147382   0.478   8.959  29.151  0.1189 -0.1176 -0.0611
34521DOD     C247383   0.206   9.141  29.513  0.1046  0.1116  0.2005
34521DOD     C347384   0.133   9.420  29.883 -0.2678  0.1175  0.2709
34522DOD     C147385  10.990  10.542   2.405 -0.0785  0.0160 -0.3785
34522DOD     C247386  11.390  10.312   2.205 -0.0654 -0.0579 -0.3732
34522DOD     C347387  11.831  10.456   2.307  0.0371 -0.0316  0.2467
34523DOD     C147388  28.793   5.228  16.420  0.1488 -0.1765  0.0505
34523DOD     C247389  29.079   5.569  16.495 -0.0003  0.1056  0.1331
34523DOD     C347390  29.365   5.891  16.654 -0.2627  0.2493 -0.0978
34524DOD     C147391  21.961  26.167   2.948  0.1120 -0.0629  0.0472
34524DOD     C247392  21.610  25.845   2.867  0.3112 -0.2936 -0.1613
34524DOD     C347393  21.445  25.657   2.431 -0.1256  0.0663 -0.0765
34525DOD     C147394  28.649   7.385  28.847  0.0251  0.0880  0.0762
34525DOD     C247395  28.786   7.736  29.144 -0.1264  0.1025 -0.1031
34525DOD     C347396  28.495   8.097  29.285 -0.1103  0.0281  0.0636
34526DOD     C147397   3.391  23.202  21.352 -0.2763 -0.1098  0.0179
34526DOD     C247398   2.930  23.330  21.516  0.1340  0.1554  0.1917
34526DOD     C347399   2.495  23.418  21.415  0.1481 -0.2160  0.0774
34527DOD     C147400  16.319  22.232  27.740 -0.3113  0.2441  0.0693
34527DOD     C247401  16.592  22.437  28.013  0.0349  0.0634  0.4117
34527DOD     C347402  16.531  22.899  28.118 -0.0986 -0.0423  0.2914
34528DOD     C147403  15.622   6.840  24.302 -0.0180  0.2786  0.1362
34528DOD     C247404  15.458   7.234  24.191  0.4126  0.2417  0.3688
34528DOD     C347405  15.203   7.453  23.886  0.5303  0.1987 -0.0012
34529DOD     C147406   9.031  19.990  14.669 -0.1646  0.0766 -0.2558
34529DOD     C247407   9.043  19.757  15.075 -0.1467 -0.1596 -0.0658
34529DOD     C347408   8.753  19.746  15.439  0.0097  0.0539  0.0121
34530DOD     C147409  30.080  29.279  26.090  0.1359  0.0632 -0.2058
34530DOD     C247410  29.998  28.947  26.403  0.1949 -0.1334 -0.1878
34530DOD     C347411  29.942  28.577  26.677 -0.0404 -0.0288  0.5407
34531DOD     C147412   7.341  12.468  23.977  0.1608 -0.2360  0.0444
34531DOD     C247413   7.177  12.404  24.434  0.0072 -0.0883  0.2294
34531DOD     C347414   7.277  12.625  24.837  0.0537  0.0402 -0.0544
34532DOD     C147415   9.527   8.382  23.346  0.2233  0.2537 -0.0568
34532DOD     C247416   9.143   8.128  23.226 -0.0911 -0.1295 -0.3919
34532DOD     C347417   8.897   7.802  23.482 -0.0390  0.0706  0.0627
34533DOD     C147418  19.643   5.730  22.236  0.2491 -0.0453 -0.0534
34533DOD     C247419  19.715   6.212  22.174  0.1117  0.1720 -0.1713
34533DOD     C347420  19.817   6.584  22.486 -0.1216  0.2449  0.1662
34534DOD     C147421  22.585  21.946  15.875 -0.1550 -0.1472 -0.1903
34534DOD     C247422  22.705  21.584  15.701  0.1238 -0.1225  0.1259
34534DOD     C347423  22.933  21.202  15.871 -0.0013 -0.1227  0.1241
34535DOD     C147424  21.691  29.385  28.980 -0.1741  0.0811 -0.1187
34535DOD     C247425  21.370  29.724  28.973  0.1051  0.2607 -0.0687
34535DOD     C347426  21.083  30.019  28.764  0.0916 -0.0496  0.0034
34536DOD     C147427  12.524   0.532  21.877 -0.3979  0.2353 -0.1989
34536DOD     C247428  12.653   0.268  22.253 -0.1847  0.2796 -0.0460
34536DOD     C347429  12.494   0.238  22.679 -0.0756 -0.2026  0.0648
34537DOD     C147430   1.519  27.212   0.392  0.1676  0.1236 -0.2791
34537DOD     C247431   1.555  27.645   0.534 -0.1416  0.0054 -0.2608
34537DOD     C347432   1.624  28.096   0.421 -0.5632  0.3861 -0.0912
34538DOD     C147433  18.124   6.673  19.454 -0.0664 -0.3029  0.2286
34538DOD     C247434  18.426   6.958  19.298  0.0712 -0.0161 -0.2577
34538DOD     C347435  18.382   7.399  19.231 -0.3066 -0.0762  0.4624
34539DOD     C147436  26.337  14.523  21.082 -0.2669 -0.0808  0.5957
34539DOD     C247437  25.914  14.437  21.230  0.0836  0.1741  0.1790
34539DOD     C347438  25.720  14.027  21.070  0.1474  0.0177 -0.0506
34540DOD     C147439  12.596  23.589  20.437  0.2600  0.1801  0.1693
34540DOD     C247440  13.030  23.596  20.332  0.0500  0.0274  0.1032
34540DOD     C347441  13.517  23.675  20.301 -0.1250 -0.2013  0.3689
34541DOD     C147442  28.426  27.890  18.464  0.1097  0.0591 -0.1324
34541DOD     C247443  28.689  28.230  18.615  0.1110 -0.1209 -0.1752
34541DOD     C347444  28.957  28.567  18.603  0.0343  0.0701  0.0731
34542DOD     C147445  24.786   2.361  29.824 -0.0431 -0.0710  0.0790
34542DOD     C247446  25.041   2.077  30.058  0.3620 -0.1351 -0.1684
34542DOD     C347447  25.362   1.772  29.925 -0.0785 -0.1171  0.0919
34543DOD     C147448  16.467  30.254  29.607 -0.0853 -0.1794 -0.0107
34543DOD     C247449  16.193  29.924  29.676  0.1213  0.1820 -0.0859
34543DOD     C347450  15.980  29.564  29.758  0.0780  0.1986  0.0139
34544DOD     C147451   3.196  28.631  13.708  0.2663 -0.1711 -0.0179
34544DOD     C247452   2.848  28.783  13.422 -0.0931  0.0665  0.1007
34544DOD     C347453   2.629  28.913  13.022 -0.2573  0.3214 -0.0987
34545DOD     C147454  10.277  22.239   7.255  0.2520 -0.1228  0.0804
34545DOD     C247455  10.140  21.941   7.681  0.0376 -0.2330  0.1354
34545DOD     C347456   9.871  21.765   7.960  0.3570  0.0407 -0.0733
34546DOD     C147457  14.588  17.587  19.676 -0.2276 -0.1571 -0.2228
34546DOD     C247458  14.736  17.964  19.916 -0.0629 -0.0109 -0.0961
34546DOD     C347459  15.183  18.146  19.868 -0.0857  0.3002  0.0027
34547DOD     C147460   9.752   7.303  11.325 -0.1105  0.2053 -0.0889
34547DOD     C247461   9.930   6.874  11.272  0.2864 -0.1253  0.1598
34547DOD     C347462   9.994   6.447  11.279  0.0538 -0.0295  0.2009
34548DOD     C147463  27.399  22.136   5.865  0.1173 -0.1740  0.1495
34548DOD     C247464  27.087  21.738   5.900  0.2685 -0.0822 -0.4601
34548DOD     C347465  26.857  21.468   6.187  0.1459  0.2788 -0.1146
34549DOD     C147466  18.577  17.081   7.339  0.0703  0.3068  0.2219
34549DOD     C247467  18.863  17.164   7.648  0.1912 -0.2308  0.1281
34549DOD     C347468  19.264  17.326   7.607  0.1841 -0.0634  0.1168
34550DOD     C147469  28.887  30.102   2.941 -0.1825 -0.0406 -0.3231
34550DOD     C247470  28.782  29.739   3.202  0.1388 -0.0430  0.1904
34550DOD     C347471  28.991  29.370   3.322  0.1853  0.0001  0.0832
34551DOD     C147472  26.386   4.644  20.660  0.3491 -0.0093 -0.3911
34551DOD     C247473  26.432   4.607  20.242  0.1195 -0.0697 -0.0234
34551DOD     C347474  26.708   4.597  19.846 -0.1554  0.1031  0.3822
34552DOD     C147475  10.114  15.795  14.308 -0.3112  0.5011  0.1431
34552DOD     C247476  10.252  15.376  14.405  0.4665  0.2154 -0.0083
34552DOD     C347477  10.109  15.081  14.750 -0.1291 -0.0439  0.0117
34553DOD     C147478   5.379  23.589  29.924 -0.3670 -0.2440 -0.2349
34553DOD     C247479   5.265  23.632   0.047  0.2186 -0.0816 -0.5751
34553DOD     C347480   5.282  23.932   0.427 -0.0937  0.0129  0.0103
34554DOD     C147481   2.591   6.058  30.070  0.1080  0.0561 -0.2171
34554DOD     C247482   2.309   6.144   0.120  0.4953  0.2218 -0.5088
34554DOD     C347483   2.211   6.290   0.514  0.3467 -0.0088  0.1329
34555DOD     C147484  26.458  25.070   5.920  0.1488  0.3569  0.2490
34555DOD     C247485  26.301  25.206   6.341 -0.1705  0.2168 -0.0095
34555DOD     C347486  25.977  24.952   6.591 -0.0325  0.1804 -0.3227
34556DOD     C147487  22.342  21.662  29.743 -0.0513  0.3190  0.0224
34556DOD     C247488  22.149  21.734  30.115 -0.0188 -0.0244  0.0472
34556DOD     C347489  21.751  21.588   0.059  0.1321  0.1049  0.1282
34557DOD     C147490   4.118   7.967  29.677 -0.2232  0.0930 -0.1209
34557DOD     C247491   3.807   7.845  29.967  0.0536  0.0376  0.1428
34557DOD     C347492   3.384   7.812  30.280 -0.1852  0.1425  0.0148
34558DOD     C147493  26.606  23.188   6.402 -0.3874 -0.0756  0.3495
34558DOD     C247494  26.216  23.308   6.155  0.1047  0.2977 -0.0960
34558DOD     C347495  25.806  23.443   5.944  0.1507  0.0758  0.0629
34559DOD     C147496   1.570   5.042  25.999  0.5532 -0.1889  0.0528
34559DOD     C247497   1.773   5.218  25.602 -0.1161  0.2886  0.0293
34559DOD     C347498   2.009   5.146  25.163 -0.0876 -0.2394 -0.0166
34560DOD     C147499  24.229  20.824  24.788  0.1335 -0.1397 -0.3043
34560DOD     C247500  24.608  21.023  25.015 -0.2134 -0.1707  0.1564
34560DOD     C347501  25.068  20.973  24.943  0.1742  0.1766 -0.0491
34561DOD     C147502  11.452  17.807  28.912  0.2310  0.1020  0.0616
34561DOD     C247503  11.068  17.871  28.643  0.4166  0.0813  0.0510
34561DOD     C347504  10.579  17.938  28.604 -0.0191 -0.1714  0.1198
34562DOD     C147505  28.462  22.572   3.001 -0.0705 -0.0271 -0.0671
34562DOD     C247506  28.890  22.496   3.169  0.0195  0.0973 -0.4603
34562DOD     C347507  29.335  22.291   3.179  0.2183 -0.0226  0.0085
34563DOD     C147508   6.149  27.473  17.308  0.1758 -0.0783 -0.2802
34563DOD     C247509   5.733  27.591  17.513  0.3428 -0.1370 -0.0759
34563DOD     C347510   5.691  27.763  17.939 -0.1501  0.0140 -0.3971
34564DOD     C147511  24.505   4.111  28.292 -0.1711  0.0923  0.1325
34564DOD     C247512  24.373   4.412  27.960 -0.0571  0.1236 -0.0059
34564DOD     C347513  24.238   4.454  27.497  0.0690  0.0058 -0.0382
34565DOD     C147514  12.672   5.468   3.646 -0.0601  0.0708  0.1218
34565DOD     C247515  12.248   5.498   3.835  0.1628 -0.0493  0.1598
34565DOD     C347516  12.054   5.630   4.217 -0.0003  0.2143  0.2082
34566DOD     C147517  25.822  22.681   7.477  0.0553  0.0721  0.0841
34566DOD     C247518  26.252  22.507   7.320  0.1581  0.0535  0.0229
34566DOD     C347519  26.402  22.233   6.991  0.0607  0.1211  0.1501
34567DOD     C147520   7.157  18.629  10.013  0.0706 -0.1573 -0.0097
34567DOD     C247521   7.493  18.309   9.916 -0.0999  0.1926 -0.1976
34567DOD     C347522   7.708  18.088  10.227  0.1493 -0.1511 -0.0204
34568DOD     C147523  10.173  24.564   0.931  0.2483 -0.2547 -0.1391
34568DOD     C247524  10.169  24.531   0.432 -0.3586 -0.1599 -0.0088
34568DOD     C347525   9.974  24.798   0.058 -0.2554  0.1192 -0.0705
34569DOD     C147526  27.510   6.409  18.433 -0.3062 -0.0037 -0.0565
34569DOD     C247527  27.116   6.620  18.565 -0.1104 -0.0332  0.0780
34569DOD     C347528  26.889   6.996  18.384  0.1387 -0.4389 -0.1419
34570DOD     C147529  25.612  25.824  14.807  0.2589 -0.0001 -0.0371
34570DOD     C247530  25.905  25.517  14.682 -0.2287  0.0399 -0.0511
34570DOD     C347531  26.043  25.134  14.430 -0.1908 -0.1558 -0.0652
34571DOD     C147532   1.479  22.369   6.752  0.0833 -0.0518  0.0354
34571DOD     C247533   1.421  22.375   7.190  0.1164  0.1620 -0.0682
34571DOD     C347534   1.570  22.712   7.473 -0.0424 -0.0012 -0.0259
34572DOD     C147535   6.642  15.156  25.063  0.3385  0.1288  0.0436
34572DOD     C247536   6.294  15.303  25.374  0.0124 -0.0663 -0.2095
34572DOD     C347537   5.964  15.265  25.701 -0.0819 -0.4439  0.1125
34573DOD     C147538   1.259  28.204  26.783 -0.0633  0.0424  0.0647
34573DOD     C247539   1.554  27.878  26.758  0.2001  0.0073  0.2748
34573DOD     C347540   1.771  27.505  26.946 -0.1277  0.2782  0.0760
34574DOD     C147541  16.895   5.240  29.119  0.1067  0.0924 -0.0935
34574DOD     C247542  16.588   5.130  28.764 -0.0948 -0.2416 -0.3881
34574DOD     C347543  16.517   5.279  28.360 -0.0903  0.2262  0.0849
34575DOD     C147544   0.842  12.985   6.050  0.1680 -0.1758  0.0481
34575DOD     C247545   0.605  12.830   6.410  0.1663 -0.0817 -0.3410
34575DOD     C347546   0.171  12.699   6.584  0.0760  0.1633  0.2160
34576DOD     C147547  21.467  30.195  29.124 -0.2792  0.1118 -0.0078
34576DOD     C247548  21.234   0.212  28.932 -0.0733  0.3127 -0.1569
34576DOD     C347549  20.849   0.238  28.669  0.0342 -0.0845 -0.0267
34577DOD     C147550  15.852  11.647   4.921  0.0380 -0.1888  0.1875
34577DOD     C247551  16.024  12.043   4.987  0.0093  0.1036 -0.0000
34577DOD     C347552  16.276  12.404   5.104  0.1088  0.1630 -0.0036
34578DOD     C147553  27.136   4.545  27.091  0.2911  0.0106 -0.0339
34578DOD     C247554  26.862   4.182  27.154 -0.1379  0.0006 -0.1384
34578DOD     C347555  26.964   3.708  27.073  0.0825 -0.4363 -0.0904
34579DOD     C147556   4.053   3.838  25.129 -0.2300  0.0629  0.1941
34579DOD     C247557   3.657   4.061  25.291  0.1010 -0.0023  0.3417
34579DOD     C347558   3.452   4.398  25.053  0.0498 -0.1991  0.2133
34580DOD     C147559  24.138  28.870  11.404  0.5176  0.0228 -0.3554
34580DOD     C247560  24.454  28.591  11.458 -0.0579 -0.3629 -0.0775
34580DOD     C347561  24.644  28.506  11.903 -0.1492 -0.3572  0.0566
34581DOD     C147562  20.093  27.572  15.760 -0.0130  0.2345  0.4145
34581DOD     C247563  20.235  27.962  15.931  0.0398 -0.0664  0.3097
34581DOD     C347564  20.015  28.400  16.010  0.0423  0.2339  0.1520
34582DOD     C147565  27.819  20.053  14.125 -0.0838  0.1940  0.1672
34582DOD     C247566  28.087  20.410  14.279  0.0792  0.4399 -0.1747
34582DOD     C347567  28.447  20.593  14.495  0.1486  0.0339 -0.2644
34583DOD     C147568  22.062  27.547  24.226  0.0951 -0.0093  0.0173
34583DOD     C247569  22.372  27.219  24.048  0.2263 -0.2027 -0.2535
34583DOD     C347570  22.831  27.265  23.861  0.0527  0.0236 -0.1341
34584DOD     C147571  14.142  13.682  22.673  0.0820 -0.0062 -0.0421
34584DOD     C247572  13.743  13.631  22.443  0.0965  0.1556  0.1925
34584DOD     C347573  13.340  13.465  22.399 -0.0666 -0.3645 -0.0597
34585DOD     C147574  22.877  11.246  15.984  0.2400  0.3122 -0.0143
34585DOD     C247575  22.789  11.239  16.433  0.0186 -0.0449  0.0306
34585DOD     C347576  22.768  10.930  16.753 -0.1998 -0.0139 -0.1348
34586DOD     C147577   1.010  14.451  26.279 -0.1504  0.0025 -0.2271
34586DOD     C247578   0.904  14.743  26.671 -0.2156  0.2176  0.0174
34586DOD     C347579   0.723  14.826  27.035  0.1582 -0.1352 -0.3375
34587DOD     C147580  18.038  23.439  25.435 -0.1566  0.2149  0.0396
34587DOD     C247581  17.953  23.287  25.900  0.4024 -0.1664 -0.2771
34587DOD     C347582  18.047  23.158  26.324 -0.1237  0.1533  0.0808
34588DOD     C147583  20.593   6.512   9.382 -0.2518 -0.1907  0.1894
34588DOD     C247584  20.244   6.542   9.711 -0.1287  0.0966  0.1261
34588DOD     C347585  19.735   6.692   9.615  0.0945  0.2148  0.0211
34589DOD     C147586   2.237   0.072   2.460 -0.0947 -0.2507 -0.1577
34589DOD     C247587   2.554  30.236   2.787  0.1668  0.2927  0.0093
34589DOD     C347588   2.658  30.071   3.221 -0.0481 -0.3433 -0.0400
34590DOD     C147589  25.880   6.770  16.373 -0.0672  0.0927 -0.0164
34590DOD     C247590  26.002   7.143  16.729  0.4482 -0.1645  0.1438
34590DOD     C347591  25.767   7.433  17.021  0.1648  0.0577 -0.0833
34591DOD     C147592   0.622  28.349  15.259  0.2102 -0.1540  0.0432
34591DOD     C247593   0.828  27.957  15.286  0.0791 -0.2942 -0.2606
34591DOD     C347594   0.963  27.621  15.606  0.2858 -0.1325 -0.1939
34592DOD     C147595   2.082  22.263   2.132  0.2360 -0.0598 -0.1824
34592DOD     C247596   2.359  21.898   1.950 -0.1265  0.0930  0.1972
34592DOD     C347597   2.600  21.519   1.986  0.2281 -0.2980  0.0725
34593DOD     C147598   7.533  14.835  14.396 -0.2512 -0.3438  0.0587
34593DOD     C247599   7.544  15.026  13.976  0.0710  0.0711 -0.2318
34593DOD     C347600   7.300  15.004  13.563 -0.2441 -0.0814 -0.1753
34594DOD     C147601  21.396  25.925  19.659 -0.0321  0.0427  0.2100
34594DOD     C247602  21.592  25.871  20.078 -0.0779  0.0657  0.2187
34594DOD     C347603  22.015  25.643  20.127 -0.1228  0.1366  0.0164
34595DOD     C147604   4.915  26.257  29.164 -0.0212 -0.0432 -0.1674
34595DOD     C247605   4.862  26.238  28.740 -0.1260 -0.4367 -0.0508
34595DOD     C347606   4.688  26.616  28.518  0.1584 -0.2752  0.0670
34596DOD     C147607   9.804   6.465  27.354  0.2975  0.0100 -0.1794
34596DOD     C247608   9.384   6.525  27.164 -0.0109  0.0262 -0.2368
34596DOD     C347609   9.043   6.651  26.936 -0.0323 -0.0524  0.1105
34597DOD     C147610   9.839   5.389  28.192 -0.0356  0.3887  0.3456
34597DOD     C247611   9.553   5.655  27.980  0.0838 -0.2527  0.0779
34597DOD     C347612   9.163   5.998  27.923 -0.2029 -0.0618  0.0664
34598DOD     C147613   4.495  11.363  28.235  0.0886 -0.1322 -0.1290
34598DOD     C247614   4.084  11.525  28.382 -0.0880 -0.1140  0.0300
34598DOD     C347615   3.678  11.338  28.494 -0.1270 -0.1289  0.0694
34599DOD     C147616  23.212  12.753   8.812 -0.1686 -0.0106  0.1461
34599DOD     C247617  23.036  12.770   9.241 -0.0263  0.1649 -0.3308
34599DOD     C347618  22.911  12.787   9.711 -0.3331  0.0742  0.3032
34600DOD     C147619  22.214  21.838   7.340  0.1141  0.1508  0.1216
34600DOD     C247620  22.181  22.028   6.914  0.0692  0.3987 -0.1217
34600DOD     C347621  22.238  22.401   6.775  0.1312 -0.0728  0.0172
34601DOD     C147622  21.648  23.226  20.572 -0.0494 -0.2157  0.0414
34601DOD     C247623  21.736  23.176  21.034 -0.0136  0.0530  0.4854
34601DOD     C347624  21.902  23.206  21.422  0.0581  0.2334 -0.1173
34602DOD     C147625  25.159  25.782  29.018  0.1562  0.1950 -0.1834
34602DOD     C247626  25.488  25.511  29.116  0.1653  0.1848 -0.0620
34602DOD     C347627  25.849  25.460  29.406 -0.2073  0.0821  0.0205
34603DOD     C147628  11.742  20.231   0.977  0.1506 -0.0455 -0.2054
34603DOD     C247629  11.679  19.834   0.720  0.1724 -0.1964 -0.1467
34603DOD     C347630  11.628  19.585   0.296  0.0222 -0.0044  0.0689
34604DOD     C147631   2.183   9.517   5.095  0.1095 -0.0280  0.3267
34604DOD     C247632   2.231   9.484   5.551  0.1696  0.0652 -0.0831
34604DOD     C347633   2.456   9.624   5.923 -0.1376 -0.1141 -0.0332
34605DOD     C147634   0.506   3.417   5.756  0.0107  0.1098 -0.0466
34605DOD     C247635   0.740   3.531   5.389 -0.0531  0.2321  0.1895
34605DOD     C347636   1.048   3.327   5.191  0.1835  0.0469 -0.1513
34606DOD     C147637  16.778  13.019  12.189  0.0682  0.2375 -0.0729
34606DOD     C247638  16.581  12.885  12.618 -0.0416 -0.0017 -0.2709
34606DOD     C347639  16.661  12.558  12.932  0.1567  0.1152  0.1646
34607DOD     C147640   0.638  12.289  17.431 -0.0469  0.0795 -0.1612
34607DOD     C247641   0.814  12.698  17.637 -0.2110 -0.4633  0.0520
34607DOD     C347642   0.773  12.919  17.975 -0.0547  0.1240  0.0602
34608DOD     C147643   9.781  25.865   9.599 -0.4412  0.0660  0.0549
34608DOD     C247644  10.062  26.030   9.245 -0.0643  0.1876  0.0083
34608DOD     C347645  10.162  26.107   8.736 -0.4008  0.1619  0.0606
34609DOD     C147646  24.053  15.691  26.632  0.1329 -0.0389 -0.2330
34609DOD     C247647  24.553  15.698  26.530 -0.2492  0.0981  0.2097
34609DOD     C347648  25.008  15.916  26.423  0.1129  0.2593  0.1672
34610DOD     C147649  10.392   2.817  17.509 -0.3228 -0.1312 -0.0012
34610DOD     C247650  10.892   2.889  17.514 -0.0179  0.1213  0.1719
34610DOD     C347651  11.246   3.144  17.457 -0.0254  0.2095  0.1781
34611DOD     C147652   4.240  14.707  29.311  0.0591 -0.0612 -0.5689
34611DOD     C247653   4.171  15.128  29.165 -0.0196 -0.0497  0.0902
34611DOD     C347654   4.058  15.619  29.190 -0.3720 -0.4025  0.0350
34612DOD     C147655   6.794   6.101  27.990  0.3397  0.1687 -0.1887
34612DOD     C247656   6.507   6.393  28.146  0.3734  0.1362 -0.0013
34612DOD     C347657   6.338   6.816  27.959 -0.3540  0.0895 -0.0433
34613DOD     C147658  25.963  20.242  11.021 -0.0672  0.1572  0.1633
34613DOD     C247659  26.309  20.280  11.346 -0.0398  0.1643  0.2703
34613DOD     C347660  26.717  20.105  11.448  0.0818  0.0890  0.1222
34614DOD     C147661  11.635  10.035  15.374  0.2157 -0.0328  0.0004
34614DOD     C247662  11.738  10.427  15.089 -0.1847  0.1957  0.0472
34614DOD     C347663  11.837  10.777  14.853  0.0270  0.1724  0.3534
34615DOD     C147664   9.664   8.191  18.626 -0.0460 -0.2397  0.1604
34615DOD     C247665   9.859   8.154  19.054  0.0899 -0.1424  0.0614
34615DOD     C347666   9.915   8.009  19.417 -0.0948  0.0285 -0.0987
34616DOD     C147667  21.182  10.800  25.632 -0.0651  0.1583  0.2698
34616DOD     C247668  20.935  10.844  26.010  0.1520 -0.2071 -0.2218
34616DOD     C347669  20.733  10.515  26.299  0.0173 -0.3708  0.1496
34617DOD     C147670  13.259  21.288   3.563 -0.1805  0.6249 -0.0972
34617DOD     C247671  13.535  21.604   3.294 -0.0094  0.0860  0.1758
34617DOD     C347672  13.536  21.921   2.956 -0.0557  0.3447 -0.0280
34618DOD     C147673  28.536  24.402   5.498  0.2358 -0.0017  0.0244
34618DOD     C247674  28.369  24.671   5.135  0.1480 -0.2127  0.3575
34618DOD     C347675  28.148  24.909   4.836 -0.1816  0.1841 -0.0431
34619DOD     C147676   0.840  27.596  29.258 -0.1781  0.0909 -0.0426
34619DOD     C247677   0.827  27.613  29.678 -0.0441  0.1020 -0.3373
34619DOD     C347678   0.901  27.784  30.124  0.1863 -0.1150 -0.1000
34620DOD     C147679  29.100  27.595  27.116 -0.0479  0.0390 -0.1243
34620DOD     C247680  29.126  27.929  27.487  0.0551  0.0321 -0.2621
34620DOD     C347681  29.078  28.286  27.761  0.1038 -0.0746  0.0206
34621DOD     C147682  26.267  12.392   5.156  0.2484 -0.0765 -0.3893
34621DOD     C247683  26.610  12.223   5.203  0.2695  0.4648 -0.0845
34621DOD     C347684  27.059  12.066   5.146  0.2743  0.3116 -0.0345
34622DOD     C147685   9.280   9.087  28.762  0.0903  0.1182 -0.1391
34622DOD     C247686   9.011   9.173  28.484 -0.0506 -0.0120 -0.0318
34622DOD     C347687   8.731   9.505  28.240 -0.0511 -0.2256  0.0218
34623DOD     C147688  29.323   9.954  18.642  0.0120  0.1070 -0.2287
34623DOD     C247689  29.461  10.328  18.419  0.2147 -0.2784 -0.3658
34623DOD     C347690  29.587  10.776  18.509  0.2819 -0.0373  0.0135
34624DOD     C147691  14.519   4.581   9.260  0.1162 -0.0483  0.2740
34624DOD     C247692  14.895   4.776   9.092 -0.1904  0.1005 -0.2936
34624DOD     C347693  15.270   4.892   8.813 -0.0424 -0.1266 -0.1819
34625DOD     C147694   1.481   6.856  29.520 -0.3156 -0.3185 -0.0539
34625DOD     C247695   1.368   7.043  29.139  0.0071 -0.0381 -0.2111
34625DOD     C347696   1.000   6.924  28.945 -0.1189  0.1535 -0.0745
34626DOD     C147697  23.721  15.585  10.298  0.1765  0.0069 -0.1425
34626DOD     C247698  23.910  15.937  10.616  0.1630  0.0451  0.1355
34626DOD     C347699  24.179  15.849  10.947 -0.0073  0.1461 -0.2168
34627DOD     C147700   8.251  12.663   5.058 -0.0375 -0.1581 -0.0285
34627DOD     C247701   8.694  12.473   4.925  0.0235 -0.0002 -0.0286
34627DOD     C347702   9.117  12.273   4.885  0.1542 -0.1841 -0.0193
34628DOD     C147703  11.293  11.558  14.356 -0.0000  0.3779 -0.1482
34628DOD     C247704  11.495  11.959  14.430  0.0187 -0.0065  0.1675
34628DOD     C347705  11.385  12.101  14.866 -0.2102 -0.0104 -0.1856
34629DOD     C147706  28.959   0.628   6.302  0.0052  0.1571 -0.0983
34629DOD     C247707  29.022   0.529   6.721  0.0879  0.2155  0.0964
34629DOD     C347708  29.203   0.535   7.165  0.0093 -0.0450  0.0899
34630DOD     C147709  13.504   2.972  17.504  0.1566 -0.1308  0.0317
34630DOD     C247710  13.798   2.891  17.818  0.2196 -0.0478  0.0143
34630DOD     C347711  14.171   2.728  18.007  0.0863  0.1556 -0.0084
34631DOD     C147712   6.971  11.710  25.799  0.0915 -0.3346  0.0037
34631DOD     C247713   7.111  12.075  26.107 -0.2270  0.0473  0.1258
34631DOD     C347714   7.527  12.354  26.000 -0.3009  0.1443  0.2456
34632DOD     C147715  16.018   6.485  20.596  0.1690 -0.1890 -0.1031
34632DOD     C247716  16.129   6.404  20.181  0.0478 -0.1031 -0.0958
34632DOD     C347717  16.201   6.141  19.800 -0.1278  0.5116  0.0784
34633DOD     C147718   3.798   9.663  27.721  0.1148  0.1421  0.0872
34633DOD     C247719   3.953   9.216  27.863 -0.3773  0.0083 -0.1249
34633DOD     C347720   4.118   8.773  27.836  0.0649 -0.0248  0.1943
34634DOD     C147721  11.547  18.090  29.849  0.2068 -0.0145  0.0312
34634DOD     C247722  11.847  18.308  29.573  0.0265 -0.1786  0.1089
34634DOD     C347723  11.818  18.584  29.237 -0.1353 -0.0674 -0.0745
34635DOD     C147724  28.818  27.444   4.767  0.0411  0.0141  0.4210
34635DOD     C247725  28.834  27.413   5.259 -0.1105 -0.1120 -0.2725
34635DOD     C347726  28.848  27.551   5.673 -0.0591  0.0302  0.1138
34636DOD     C147727   4.343  25.373  17.495  0.1237  0.1676 -0.4382
34636DOD     C247728   4.252  25.541  17.949  0.3646  0.1517  0.3915
34636DOD     C347729   4.330  25.762  18.343  0.0090 -0.1056 -0.2612
34637DOD     C147730  13.150  26.389   1.255  0.2317 -0.0019 -0.2247
34637DOD     C247731  13.097  25.915   1.213 -0.1381  0.3042 -0.0015
34637DOD     C347732  13.008  25.452   1.020 -0.0918  0.2117 -0.0573
34638DOD     C147733  26.097  28.212  16.767  0.0015  0.2174  0.3002
34638DOD     C247734  25.739  28.503  16.790 -0.0810  0.0007 -0.0882
34638DOD     C347735  25.286  28.625  16.881 -0.1364  0.1080  0.1762
34639DOD     C147736   9.136  28.655  26.569 -0.1508  0.1332 -0.0231
34639DOD     C247737   8.907  28.567  26.980  0.4334 -0.0515  0.1591
34639DOD     C347738   9.166  28.543  27.336 -0.1464  0.0849  0.0429
34640DOD     C147739   8.833  19.173  26.445 -0.4555 -0.1195  0.0439
34640DOD     C247740   9.081  19.535  26.336  0.0473  0.2840  0.0241
34640DOD     C347741   9.029  20.008  26.408  0.2332 -0.2360 -0.0010
34641DOD     C147742   4.089  15.901   3.238 -0.1991  0.0432  0.1877
34641DOD     C247743   3.995  16.141   2.913  0.0758  0.2123 -0.1606
34641DOD     C347744   4.014  16.590   2.857 -0.1265  0.0887 -0.0083
34642DOD     C147745  16.591  25.577   5.051 -0.2027  0.0537  0.1023
34642DOD     C247746  16.976  25.416   4.806 -0.0429 -0.3035  0.1189
34642DOD     C347747  17.233  25.419   4.432  0.1762 -0.2006  0.0528
34643DOD     C147748   5.022  21.914   2.661 -0.2717  0.1229 -0.0599
34643DOD     C247749   4.940  22.062   2.184 -0.3047  0.0178  0.3620
34643DOD     C347750   5.068  21.945   1.795 -0.1608  0.0844  0.1470
34644DOD     C147751  15.994  21.369  13.356  0.0401  0.2633 -0.0523
34644DOD     C247752  16.122  21.289  12.886 -0.0881 -0.0877  0.1681
34644DOD     C347753  16.098  21.592  12.582  0.2746 -0.1184  0.0814
34645DOD     C147754  15.284  29.110   6.877  0.0707 -0.2337 -0.2994
34645DOD     C247755  15.055  28.765   7.062 -0.0709  0.0584 -0.1134
34645DOD     C347756  14.988  28.436   7.431 -0.0341 -0.2380  0.0591
34646DOD     C147757   9.513   5.244  12.059  0.0805 -0.0461 -0.2106
34646DOD     C247758   9.230   5.324  11.671  0.1501  0.0252 -0.2802
34646DOD     C347759   8.942   5.265  11.408 -0.0404  0.1815 -0.3650
34647DOD     C147760   9.732  14.881  13.217  0.0301 -0.0608  0.2013
34647DOD     C247761  10.153  14.875  13.461 -0.0932  0.0553 -0.1532
34647DOD     C347762  10.577  15.017  13.539  0.0535  0.0754  0.0270
34648DOD     C147763  17.435  28.686  21.089 -0.1993  0.3599  0.1785
34648DOD     C247764  16.996  28.714  21.207  0.2116  0.0336  0.1950
34648DOD     C347765  16.579  28.470  21.159  0.1924 -0.3963  0.1846
34649DOD     C147766  30.245  18.519   5.383 -0.0878 -0.2917 -0.1073
34649DOD     C247767  30.347  18.926   5.181  0.1742 -0.0681 -0.1759
34649DOD     C347768   0.112  19.046   4.740  0.0204 -0.0924  0.0683
34650DOD     C147769  27.809  18.355  17.790 -0.0706  0.1565 -0.0499
34650DOD     C247770  28.011  18.785  17.662  0.0815  0.0996 -0.1853
34650DOD     C347771  28.117  19.036  17.254  0.1245 -0.0415 -0.4307
34651DOD     C147772   9.639  17.297   8.124 -0.3103  0.3294 -0.0616
34651DOD     C247773   9.340  17.632   7.878  0.0261 -0.0190 -0.0737
34651DOD     C347774   9.146  17.925   7.497 -0.0139 -0.0509  0.0396
34652DOD     C147775   7.827  27.457  15.638 -0.1355  0.0068 -0.1724
34652DOD     C247776   8.136  27.485  15.309 -0.0208  0.1054 -0.0841
34652DOD     C347777   8.372  27.432  14.866  0.0358 -0.0286  0.2113
34653DOD     C147778  15.299  10.682  12.894 -0.0471  0.0213  0.0326
34653DOD     C247779  15.001  10.878  13.231  0.1399 -0.0609  0.1905
34653DOD     C347780  14.537  10.854  13.313 -0.0925 -0.0810 -0.2451
34654DOD     C147781   8.210  30.331   2.217  0.0719  0.2390 -0.2124
34654DOD     C247782   8.353   0.123   2.640  0.0298 -0.0705  0.3756
34654DOD     C347783   8.285  30.246   3.000  0.3357 -0.0464 -0.1634
34655DOD     C147784   9.038   6.716  17.502 -0.0105 -0.2213 -0.2195
34655DOD     C247785   8.901   7.156  17.425 -0.0323 -0.0848  0.0077
34655DOD     C347786   8.698   7.505  17.168  0.2059  0.0082 -0.1755
34656DOD     C147787  25.202  30.134  30.159 -0.0997 -0.0421 -0.2162
34656DOD     C247788  25.121  29.921   0.260 -0.3563 -0.0058  0.2285
34656DOD     C347789  24.970  29.499   0.398  0.2476  0.2095 -0.3325
34657DOD     C147790   0.199  17.538   1.324 -0.0045  0.0510  0.2048
34657DOD     C247791   0.044  17.282   0.948  0.0516  0.2945  0.0074
34657DOD     C347792  29.902  17.171   0.970  0.3528  0.0104 -0.0965
34658DOD     C147793   9.089   9.104  25.752  0.0901 -0.0539  0.4367
34658DOD     C247794   9.081   9.207  25.282 -0.0053  0.1221  0.0531
34658DOD     C347795   9.055   9.303  24.838  0.1478 -0.1076  0.3195
34659DOD     C147796  26.290  25.134   3.675  0.2916  0.1822 -0.0058
34659DOD     C247797  26.723  25.049   3.734 -0.1611  0.0598 -0.4502
34659DOD     C347798  27.132  24.955   3.541 -0.0340 -0.0315 -0.0048
34660DOD     C147799  10.185  12.115  16.151  0.0922  0.1140  0.0672
34660DOD     C247800  10.484  12.466  15.936 -0.1728 -0.0474 -0.1882
34660DOD     C347801  10.792  12.784  15.966 -0.1443 -0.1744 -0.1902
34661DOD     C147802  19.254   3.624  26.533 -0.0538 -0.0245 -0.1846
34661DOD     C247803  19.128   3.707  26.095 -0.2369  0.0803 -0.0496
34661DOD     C347804  18.870   3.859  25.722  0.1660 -0.0764  0.2858
34662DOD     C147805   4.185   4.356  17.588  0.0160 -0.0490 -0.0574
34662DOD     C247806   4.594   4.141  17.575 -0.2574  0.0153  0.2857
34662DOD     C347807   4.859   4.167  17.227 -0.1322  0.1393  0.1446
34663DOD     C147808   4.894   8.932   9.041  0.1071  0.2282 -0.0508
34663DOD     C247809   5.146   9.169   9.342 -0.2562  0.0489 -0.0778
34663DOD     C347810   5.449   9.425   9.533  0.0435 -0.0132  0.1534
34664DOD     C147811  12.814  10.135  10.537 -0.2048 -0.1485 -0.1841
34664DOD     C247812  12.990  10.514  10.676  0.0486 -0.1434  0.2183
34664DOD     C347813  13.121  10.724  11.055  0.4236 -0.3093  0.1269
34665DOD     C147814   8.078  12.582  29.133 -0.1783 -0.0726 -0.0868
34665DOD     C247815   8.446  12.434  28.919  0.0017 -0.1910 -0.2543
34665DOD     C347816   8.712  12.208  28.593  0.1406 -0.0958 -0.0699
34666DOD     C147817  21.407   2.322   0.294  0.1479 -0.0555 -0.1298
34666DOD     C247818  21.194   1.875   0.363  0.1644 -0.2396  0.1423
34666DOD     C347819  20.970   1.533   0.241  0.0653  0.1072 -0.0691
34667DOD     C147820  22.167   2.518   3.546 -0.1414 -0.0087 -0.0532
34667DOD     C247821  21.885   2.480   3.949  0.0006 -0.1134  0.1390
34667DOD     C347822  21.632   2.194   4.230 -0.0778  0.1548 -0.0463
34668DOD     C147823   0.582   5.684  13.015  0.0418  0.2670  0.0178
34668DOD     C247824   0.455   5.744  12.557 -0.0970 -0.1396 -0.0116
34668DOD     C347825   0.310   5.548  12.187 -0.2024  0.1296  0.0110
34669DOD     C147826   6.010   7.218  14.896 -0.0077 -0.2223  0.0821
34669DOD     C247827   5.684   7.288  15.275  0.1246  0.1912 -0.0399
34669DOD     C347828   5.315   7.444  15.465  0.0618  0.4020 -0.0891
34670DOD     C147829  27.742   8.097  12.457  0.0917 -0.0903 -0.1407
34670DOD     C247830  27.637   7.716  12.295  0.0342 -0.3932 -0.1966
34670DOD     C347831  27.676   7.705  11.795  0.0067  0.0194  0.1250
34671DOD     C147832  20.268  20.387  14.236  0.1806  0.3399  0.0761
34671DOD     C247833  20.505  20.118  14.533  0.4491  0.1191  0.0502
34671DOD     C347834  20.496  20.068  15.001  0.0607  0.0386  0.0309
34672DOD     C147835   6.155  23.035  24.781  0.0550 -0.1148  0.0120
34672DOD     C247836   6.468  22.734  24.544  0.0539 -0.0200 -0.0792
34672DOD     C347837   6.857  22.675  24.277 -0.2594  0.0104  0.1608
34673DOD     C147838  24.888  26.350  22.853  0.1353  0.0825 -0.1419
34673DOD     C247839  24.811  26.607  23.249  0.3019 -0.0802  0.3514
34673DOD     C347840  24.638  26.683  23.670  0.0520 -0.2257 -0.3282
34674DOD     C147841  26.004   0.816  21.404 -0.0460 -0.0654  0.0019
34674DOD     C247842  25.723   0.555  21.741  0.1240  0.1579 -0.0233
34674DOD     C347843  25.536   0.148  21.603 -0.1392 -0.0052 -0.1991
34675DOD     C147844   1.109   6.033   5.241  0.1238 -0.0224  0.0872
34675DOD     C247845   1.458   5.844   5.427 -0.2579 -0.0225  0.0608
34675DOD     C347846   1.893   5.842   5.654 -0.1807 -0.2646  0.2256
34676DOD     C147847  15.705   2.530  26.963  0.1880  0.0571  0.2008
34676DOD     C247848  15.601   2.494  27.433 -0.1410  0.0819  0.1223
34676DOD     C347849  15.788   2.644  27.825  0.0346 -0.0373  0.0172
34677DOD     C147850  19.335  19.572  29.371 -0.3406 -0.1136  0.0038
34677DOD     C247851  19.766  19.653  29.557  0.1465 -0.2489  0.2207
34677DOD     C347852  20.045  19.792  29.856 -0.0357  0.0079  0.0009
34678DOD     C147853  17.416   3.914  11.566 -0.1598 -0.2269  0.0558
34678DOD     C247854  17.654   3.566  11.732  0.1326  0.0255 -0.1623
34678DOD     C347855  17.593   3.106  11.837 -0.2772 -0.1116  0.0379
34679DOD     C147856   7.996   9.710  15.918 -0.1655  0.1517  0.2467
34679DOD     C247857   8.081  10.141  15.956 -0.0311  0.2254 -0.3913
34679DOD     C347858   8.403  10.465  15.945  0.3550 -0.1229 -0.1703
34680DOD     C147859  13.381  24.484  29.443  0.2006 -0.1693  0.2905
34680DOD     C247860  13.696  24.207  29.580  0.2827 -0.1492 -0.0951
34680DOD     C347861  14.068  23.893  29.552 -0.1004 -0.2673 -0.0612
34681DOD     C147862   1.304  15.349   6.483 -0.1776 -0.0233  0.0337
34681DOD     C247863   1.360  14.957   6.718  0.0448 -0.0162  0.1369
34681DOD     C347864   1.509  14.670   7.100 -0.1061 -0.1796 -0.1475
34682DOD     C147865  17.417  25.248  27.526 -0.0130  0.0591 -0.1091
34682DOD     C247866  17.113  25.015  27.370  0.1363  0.0224  0.0624
34682DOD     C347867  16.710  24.947  27.102  0.2041  0.0389  0.3362
34683DOD     C147868  23.603   5.687  17.400  0.2197  0.0965 -0.1355
34683DOD     C247869  23.602   6.105  17.448 -0.0456 -0.2485 -0.2608
34683DOD     C347870  23.537   6.497  17.690 -0.0777  0.3122 -0.1993
34684DOD     C147871   1.311  16.451  12.684  0.1744 -0.1675 -0.1990
34684DOD     C247872   1.195  16.936  12.646  0.0942 -0.2414  0.0701
34684DOD     C347873   1.117  17.162  13.073  0.2406 -0.0630 -0.0048
34685DOD     C147874  19.866  12.334  14.318 -0.2007  0.2649  0.1777
34685DOD     C247875  20.274  12.130  14.335 -0.1766  0.0431 -0.0623
34685DOD     C347876  20.663  12.236  14.587  0.2394  0.1078 -0.0875
34686DOD     C147877  24.152  19.157  15.309 -0.1800 -0.1274  0.3481
34686DOD     C247878  23.910  18.803  15.436  0.2211 -0.1256  0.0346
34686DOD     C347879  23.539  18.494  15.491 -0.0153  0.0841 -0.2621
34687DOD     C147880  28.342  12.420  20.604  0.1450  0.2513 -0.1947
34687DOD     C247881  28.791  12.538  20.384 -0.1045  0.0147 -0.0016
34687DOD     C347882  29.095  12.530  19.996  0.0884  0.4139  0.1114
34688DOD     C147883  16.305  10.369   0.328 -0.0103  0.2272  0.3093
34688DOD     C247884  16.260  10.697  -0.030 -0.1392 -0.0920 -0.2526
34688DOD     C347885  16.312  11.006  30.012  0.2222  0.2098 -0.3947
34689DOD     C147886   5.725  19.093  17.121 -0.1491  0.0673 -0.2038
34689DOD     C247887   5.930  18.684  16.999 -0.0526 -0.0960  0.2856
34689DOD     C347888   5.993  18.272  16.842 -0.0187  0.3033  0.0677
34690DOD     C147889  16.874   7.651  22.016  0.2224 -0.1568  0.0614
34690DOD     C247890  16.787   8.096  21.955 -0.1194 -0.2805 -0.2219
34690DOD     C347891  16.947   8.527  21.923  0.0788 -0.1786  0.0067
34691DOD     C147892   3.128  27.592   1.071  0.2808 -0.1038  0.0796
34691DOD     C247893   3.355  27.191   0.995  0.0259  0.1071  0.1559
34691DOD     C347894   3.500  26.928   0.702 -0.1381  0.1804 -0.0439
34692DOD     C147895  24.239  12.676  27.088 -0.1476 -0.0215  0.0860
34692DOD     C247896  24.513  12.299  27.130 -0.1885 -0.1945 -0.4030
34692DOD     C347897  24.655  11.825  27.016 -0.2242  0.1841  0.2381
34693DOD     C147898  25.684  12.541   1.053  0.1862  0.0317 -0.3552
34693DOD     C247899  25.610  12.192   0.732 -0.1324  0.0085 -0.2668
34693DOD     C347900  25.979  12.028   0.424  0.0650 -0.2311 -0.0193
34694DOD     C147901  10.900   1.027  13.196  0.1719  0.0290  0.1429
34694DOD     C247902  10.648   0.689  13.249  0.0995  0.2631 -0.3388
34694DOD     C347903  10.680   0.306  13.478 -0.1302 -0.0317  0.1284
34695DOD     C147904  10.259   0.166  24.196 -0.0812  0.2946  0.3424
34695DOD     C247905   9.995  30.192  24.001  0.0347  0.1960 -0.0533
34695DOD     C347906   9.692  29.864  23.980  0.1006  0.3572 -0.0571
34696DOD     C147907  29.893  23.185  14.001  0.0029 -0.0052  0.1071
34696DOD     C247908  30.100  22.792  13.784 -0.2824 -0.0245  0.0662
34696DOD     C347909   0.138  22.426  13.742  0.0687 -0.2197 -0.0777
34697DOD     C147910  29.289  16.935   6.834 -0.1866  0.1524 -0.0874
34697DOD     C247911  29.170  16.513   6.993  0.0015  0.3017 -0.1250
34697DOD     C347912  29.241  16.386   7.453 -0.2045  0.1986  0.0959
34698DOD     C147913  19.911  21.194  25.584  0.0474  0.3480  0.1616
34698DOD     C247914  19.914  21.345  25.994 -0.0745  0.0625 -0.1537
34698DOD     C347915  20.049  21.820  26.051  0.0543 -0.0816  0.0532
34699DOD     C147916   5.211  11.699  16.615 -0.0086 -0.0969 -0.1789
34699DOD     C247917   5.579  11.363  16.707  0.0486 -0.2139 -0.0298
34699DOD     C347918   5.760  10.964  16.669 -0.1444 -0.0825 -0.1070
34700DOD     C147919  29.651  29.003  21.739 -0.1769  0.0182 -0.2538
34700DOD     C247920  29.741  29.042  21.288  0.1225 -0.1775 -0.1097
34700DOD     C347921  29.859  28.784  20.943 -0.0699 -0.2189  0.0015
34701DOD     C147922   3.152   9.194   2.380 -0.0249 -0.0841  0.0253
34701DOD     C247923   3.485   8.955   2.668 -0.1578 -0.2402  0.1223
34701DOD     C347924   3.656   9.020   3.098  0.0243  0.2642  0.0417
34702DOD     C147925   5.898  20.692   9.278 -0.2603 -0.4071 -0.2015
34702DOD     C247926   6.316  20.951   9.344 -0.1435  0.0182 -0.1149
34702DOD     C347927   6.768  21.011   9.190 -0.1201  0.1241 -0.1311
34703DOD     C147928  10.145  28.107   2.707  0.1707  0.0881  0.0980
34703DOD     C247929  10.288  27.884   2.311  0.0483  0.1926  0.0192
34703DOD     C347930  10.576  27.814   1.975 -0.1901 -0.1940  0.2627
34704DOD     C147931  20.487  11.194  25.106 -0.1549 -0.1742  0.0121
34704DOD     C247932  20.746  10.915  25.271 -0.1074 -0.0522 -0.2244
34704DOD     C347933  20.919  10.468  25.344 -0.0940  0.0488 -0.2909
34705DOD     C147934  18.179  19.619  29.973  0.4624 -0.0974 -0.3919
34705DOD     C247935  18.117  19.165  30.002 -0.0348  0.2443  0.0223
34705DOD     C347936  18.034  18.857  29.665 -0.3695 -0.2827 -0.0365
34706DOD     C147937   5.020  20.455  26.106  0.1539 -0.3426  0.0379
34706DOD     C247938   5.060  20.782  25.815 -0.0794 -0.2307  0.1540
34706DOD     C347939   4.979  21.206  25.672  0.1156 -0.0785 -0.2030
34707DOD     C147940  16.079   0.033   8.524  0.2143 -0.3121 -0.0026
34707DOD     C247941  15.711   0.197   8.350  0.0555  0.1624  0.0121
34707DOD     C347942  15.347   0.425   8.405 -0.0053  0.0287  0.0111
34708DOD     C147943   6.149  12.390  27.152 -0.0249  0.1759 -0.2995
34708DOD     C247944   5.982  12.004  27.307 -0.1705  0.4402 -0.1031
34708DOD     C347945   5.896  11.779  27.700  0.2637  0.3703  0.0796
34709DOD     C147946  29.569  13.851  18.026  0.1188  0.1316  0.0499
34709DOD     C247947  29.891  13.581  17.864  0.2710  0.0181 -0.1531
34709DOD     C347948  29.891  13.340  17.498  0.0773 -0.5513 -0.1507
34710DOD     C147949  27.945  24.257  27.010  0.3311 -0.0754  0.0605
34710DOD     C247950  27.767  24.673  26.869  0.1796 -0.0941 -0.0708
34710DOD     C347951  27.631  25.077  26.671 -0.0126 -0.0741 -0.3057
34711DOD     C147952   8.580  27.336   9.424  0.3993 -0.1481  0.1263
34711DOD     C247953   8.934  27.314   9.105  0.0270  0.0514 -0.1942
34711DOD     C347954   9.264  27.579   8.889 -0.0062  0.0267  0.4508
34712DOD     C147955  10.622  12.300   6.851 -0.0175  0.0013 -0.3657
34712DOD     C247956  10.973  12.562   6.648 -0.0652  0.0389 -0.2059
34712DOD     C347957  11.466  12.659   6.616 -0.0740 -0.4261  0.1029
34713DOD     C147958  10.545  29.207  24.367  0.0940  0.2086 -0.0199
34713DOD     C247959  10.831  29.260  24.706  0.2825  0.3398  0.0616
34713DOD     C347960  11.233  29.046  24.872 -0.0274 -0.2709 -0.1525
34714DOD     C147961  12.524   2.150  16.806  0.1579  0.2140 -0.2891
34714DOD     C247962  12.584   2.524  16.466 -0.0545 -0.0141 -0.0451
34714DOD     C347963  12.492   2.928  16.345 -0.0754 -0.0733  0.1480
34715DOD     C147964  22.873   4.199   6.963  0.2098 -0.0232 -0.0282
34715DOD     C247965  23.246   4.130   7.280  0.1878  0.2452 -0.2163
34715DOD     C347966  23.515   4.365   7.600 -0.0955  0.0197 -0.0478
34716DOD     C147967   2.683  16.866   5.583 -0.2168  0.0656  0.0242
34716DOD     C247968   2.406  17.010   5.293  0.1608 -0.0137  0.2955
34716DOD     C347969   2.006  17.250   5.161 -0.2045  0.1097  0.1882
34717DOD     C147970  24.788  10.837   6.599  0.0577 -0.3772 -0.2565
34717DOD     C247971  25.058  11.187   6.772  0.0832  0.0496 -0.0420
34717DOD     C347972  25.427  11.479   6.943  0.2693  0.1169  0.3915
34718DOD     C147973  15.613   6.794   3.766  0.0893  0.0556  0.2597
34718DOD     C247974  15.300   6.578   4.050 -0.0004 -0.5099  0.1749
34718DOD     C347975  15.106   6.475   4.435 -0.0240 -0.0893 -0.0809
34719DOD     C147976   1.792  13.080   9.609  0.3312  0.2623  0.3258
34719DOD     C247977   1.670  13.238   9.197  0.2065 -0.0508 -0.0566
34719DOD     C347978   1.317  13.301   8.853 -0.2580  0.0043 -0.0167
34720DOD     C147979  22.591  17.770  18.075 -0.0247 -0.1245  0.0137
34720DOD     C247980  22.728  17.968  18.503 -0.1453 -0.0165  0.1675
34720DOD     C347981  23.127  17.903  18.655 -0.1553 -0.1547  0.0490
34721DOD     C147982  14.431  11.367  18.679  0.1928 -0.2576  0.3900
34721DOD     C247983  14.352  11.813  18.770  0.4421  0.2344 -0.1224
34721DOD     C347984  14.275  12.301  18.841 -0.0413 -0.2155 -0.2965
34722DOD     C147985  28.594  25.397  20.910  0.1100 -0.1161  0.3096
34722DOD     C247986  28.939  25.616  20.671  0.1014 -0.5340  0.0016
34722DOD     C347987  29.369  25.805  20.641  0.1598 -0.0090 -0.2818
34723DOD     C147988  14.071   6.321  30.304 -0.0988 -0.3039  0.1776
34723DOD     C247989  13.670   6.465  30.057  0.0548 -0.0064  0.0564
34723DOD     C347990  13.297   6.615  30.251  0.0787 -0.4992 -0.0400
34724DOD     C147991  28.582   1.367  22.038  0.0499  0.1149 -0.1052
34724DOD     C247992  28.351   1.754  22.091  0.1284  0.1134  0.1052
34724DOD     C347993  28.314   1.953  21.656  0.0948 -0.0181  0.0221
34725DOD     C147994   3.553   1.330  25.313  0.0228  0.1009  0.0435
34725DOD     C247995   3.670   1.114  24.887  0.0521 -0.2248 -0.0795
34725DOD     C347996   3.716   0.993  24.406  0.0923 -0.0872 -0.1152
34726DOD     C147997  10.831  13.552   7.581  0.0167 -0.1431 -0.2825
34726DOD     C247998  10.981  14.017   7.531 -0.3892 -0.2446 -0.3840
34726DOD     C347999  11.146  14.444   7.618  0.3696  0.1634 -0.1307
34727DOD     C148000  21.603  14.065  11.277  0.3290  0.1435  0.0029
34727DOD     C248001  22.000  13.765  11.435  0.2321  0.0507 -0.0997
34727DOD     C348002  22.310  13.578  11.249 -0.1389 -0.0162 -0.0577
34728DOD     C148003  10.510   5.088   6.647  0.0577 -0.1474 -0.1376
34728DOD     C248004  10.706   5.399   6.940  0.1589  0.2232 -0.3450
34728DOD     C348005  10.913   5.816   7.052 -0.0851 -0.3607 -0.4467
34729DOD     C148006  26.790  12.442   3.037 -0.0185  0.2288 -0.2355
34729DOD     C248007  27.155  12.751   3.004  0.1521 -0.1557  0.0411
34729DOD     C348008  27.412  13.096   3.122  0.0889  0.1283  0.0461
34730DOD     C148009  25.637  12.512  26.230 -0.0958 -0.2055  0.1641
34730DOD     C248010  25.804  12.730  25.870 -0.1577 -0.0749  0.4192
34730DOD     C348011  25.921  12.873  25.390 -0.1805  0.1523 -0.0224
34731DOD     C148012  18.493  11.192  16.264 -0.0831  0.0328  0.1740
34731DOD     C248013  18.162  10.877  16.093  0.1453 -0.1271  0.2182
34731DOD     C348014  17.876  10.817  15.684  0.1665 -0.0648  0.2069
34732DOD     C148015   7.623  22.658   1.595 -0.2904 -0.1965 -0.0045
34732DOD     C248016   7.606  23.044   1.868  0.0314  0.1026  0.4734
34732DOD     C348017   7.510  23.415   2.149 -0.2494 -0.0364  0.1048
34733DOD     C148018  12.537   5.368   1.273 -0.1098  0.1716  0.2664
34733DOD     C248019  12.606   5.039   0.985  0.2343 -0.1001  0.0505
34733DOD     C348020  12.742   4.959   0.561 -0.1902 -0.0578  0.1425
34734DOD     C148021  23.944  12.984   2.301  0.0124 -0.0265 -0.1664
34734DOD     C248022  24.084  12.763   2.718 -0.2060 -0.2197  0.1162
34734DOD     C348023  24.188  12.784   3.207  0.3568 -0.2652 -0.0521
34735DOD     C148024   8.535  29.384   1.080  0.0882  0.1628  0.3107
34735DOD     C248025   8.638  29.838   1.130  0.2064  0.1392  0.2792
34735DOD     C348026   8.859  30.186   1.309 -0.4123 -0.1589  0.1534
34736DOD     C148027  26.113   9.747  14.624 -0.1608  0.3002  0.2329
34736DOD     C248028  26.460   9.902  14.960 -0.0747  0.1104  0.0000
34736DOD     C348029  26.761  10.204  15.021  0.1396 -0.0434 -0.1204
34737DOD     C148030  26.507   6.679  13.370 -0.2007  0.0383 -0.2607
34737DOD     C248031  26.810   6.321  13.268  0.0913  0.0356 -0.1391
34737DOD     C348032  26.946   5.889  13.185  0.0557  0.1173  0.2618
34738DOD     C148033  15.931  22.645  15.038 -0.1443  0.1481  0.0176
34738DOD     C248034  16.178  22.980  14.958  0.0912 -0.0166 -0.0003
34738DOD     C348035  16.246  23.397  15.023 -0.0747 -0.1061  0.0958
34739DOD     C148036   9.359  29.658  16.168  0.1133  0.1517 -0.1275
34739DOD     C248037   9.208  29.812  16.592 -0.0439  0.3454 -0.0099
34739DOD     C348038   9.142  30.246  16.734 -0.1651 -0.2089  0.0032
34740DOD     C148039  15.031  13.853  28.957  0.0531 -0.5425  0.0750
34740DOD     C248040  15.207  14.017  28.596  0.0997  0.3124  0.0265
34740DOD     C348041  15.278  14.220  28.225 -0.1410  0.1575  0.0758
34741DOD     C148042  26.607  26.284  24.285  0.0096  0.2448 -0.0988
34741DOD     C248043  27.053  26.252  24.058  0.0105 -0.1236 -0.0019
34741DOD     C348044  27.392  25.995  23.808  0.2097 -0.0880 -0.0406
34742DOD     C148045   5.094   2.523  13.939  0.0843 -0.0818  0.0240
34742DOD     C248046   5.407   2.756  14.310 -0.0252  0.2007  0.0464
34742DOD     C348047   5.735   2.748  14.601  0.3044  0.4722  0.0601
34743DOD     C148048  20.000  21.323  22.114 -0.0652  0.1506 -0.1134
34743DOD     C248049  20.200  21.681  21.826  0.0157  0.0610  0.0970
34743DOD     C348050  20.577  21.966  21.701 -0.0425  0.3276 -0.0367
34744DOD     C148051   2.746   6.013  15.227  0.0803 -0.1049  0.1043
34744DOD     C248052   3.014   6.127  15.597  0.0053 -0.0973 -0.0156
34744DOD     C348053   3.195   6.150  16.024 -0.0372  0.2140 -0.1908
34745DOD     C148054  21.843   0.742  12.140  0.0629 -0.0445  0.1162
34745DOD     C248055  21.686   0.386  11.852 -0.2022  0.1179 -0.0485
34745DOD     C348056  21.535   0.247  11.421  0.0088 -0.1375 -0.0224
34746DOD     C148057  13.225   7.684  17.079 -0.2132  0.2814  0.1968
34746DOD     C248058  12.880   7.514  17.401  0.2747 -0.0303 -0.0492
34746DOD     C348059  12.426   7.635  17.547 -0.0286  0.1206 -0.2438
34747DOD     C148060   7.321  22.462  13.328 -0.5215 -0.1322  0.0930
34747DOD     C248061   7.761  22.517  13.153  0.1295 -0.1060  0.0983
34747DOD     C348062   7.892  22.395  12.720 -0.3796 -0.2538  0.0523
34748DOD     C148063  25.311  17.289   0.210 -0.0198 -0.0717 -0.2550
34748DOD     C248064  24.930  17.434   0.381 -0.2362  0.1371  0.3322
34748DOD     C348065  24.638  17.761   0.246 -0.0979 -0.1773  0.0707
34749DOD     C148066  13.060   7.041  28.601  0.3009  0.2984  0.0264
34749DOD     C248067  13.166   6.995  28.173 -0.2430  0.0786 -0.0568
34749DOD     C348068  13.531   7.085  27.832 -0.1471  0.3411  0.2768
34750DOD     C148069   1.168   0.149  12.189  0.3031 -0.0603 -0.0686
34750DOD     C248070   0.908   0.256  12.570 -0.1639 -0.2771 -0.2447
34750DOD     C348071   0.670   0.547  12.865 -0.1188 -0.1707 -0.0769
34751DOD     C148072   7.479   1.858   0.026 -0.3158  0.1779 -0.1111
34751DOD     C248073   7.915   1.746  30.124  0.0822  0.1503  0.2365
34751DOD     C348074   8.227   1.460  30.155  0.2848  0.0237 -0.1079
34752DOD     C148075  24.478  22.645   0.309 -0.0258 -0.0646  0.0385
34752DOD     C248076  24.466  22.862   0.726  0.0372 -0.0713  0.4689
34752DOD     C348077  24.551  22.940   1.207 -0.1413 -0.1823 -0.2109
34753DOD     C148078   2.431  11.009  26.105 -0.0492  0.0262 -0.0540
34753DOD     C248079   2.110  11.262  25.788  0.0286 -0.0785 -0.1228
34753DOD     C348080   1.900  11.040  25.367  0.3192 -0.2248 -0.0728
34754DOD     C148081  28.198   8.359   6.009 -0.0677 -0.1089 -0.0574
34754DOD     C248082  27.950   7.997   6.070  0.4619  0.0296  0.0655
34754DOD     C348083  27.898   7.575   5.851  0.0999 -0.0176 -0.1775
34755DOD     C148084   2.581   2.234   3.680  0.2024  0.0334 -0.2931
34755DOD     C248085   2.385   1.957   3.337  0.1446 -0.3463 -0.1378
34755DOD     C348086   2.197   1.757   2.990  0.0032  0.2344 -0.2271
34756DOD     C148087  18.008  19.482   7.258  0.0458 -0.1746 -0.1409
34756DOD     C248088  18.138  19.229   6.873  0.1142  0.0509 -0.1391
34756DOD     C348089  18.296  18.917   6.599  0.0542  0.0957  0.2455
34757DOD     C148090  25.798  28.187  10.841 -0.1927  0.0594  0.0254
34757DOD     C248091  26.193  28.432  10.982  0.1912 -0.2062  0.3029
34757DOD     C348092  26.407  28.822  10.938  0.0669  0.1994 -0.0092
34758DOD     C148093  10.550  13.887  11.836 -0.3815  0.2850 -0.4244
34758DOD     C248094  10.969  13.904  12.081 -0.1507  0.1959 -0.0650
34758DOD     C348095  11.364  14.076  12.253 -0.1012  0.0103  0.0779
34759DOD     C148096   6.990  21.006  25.909  0.0404 -0.0496  0.1331
34759DOD     C248097   6.503  20.973  25.953  0.0300 -0.0179  0.1523
34759DOD     C348098   6.272  21.379  25.953  0.1443 -0.0175  0.0242
34760DOD     C148099  28.873  16.539   4.947 -0.1364 -0.2882 -0.1278
34760DOD     C248100  29.211  16.757   4.668 -0.0054  0.0534  0.1263
34760DOD     C348101  29.436  17.094   4.510 -0.2114  0.0566  0.1194
34761DOD     C148102  27.690  11.669  25.518 -0.3739  0.1926  0.0303
34761DOD     C248103  27.648  12.168  25.433 -0.1017 -0.0675  0.2148
34761DOD     C348104  27.649  12.519  25.107 -0.1262 -0.0532 -0.1362
34762DOD     C148105  19.418  24.730   8.250 -0.1127 -0.1374  0.2617
34762DOD     C248106  19.850  24.604   8.210  0.2069 -0.0979 -0.1574
34762DOD     C348107  20.157  24.586   7.866  0.2192 -0.0836 -0.2162
34763DOD     C148108   5.095   4.167   8.347 -0.0194 -0.0707  0.1917
34763DOD     C248109   5.244   4.552   8.180  0.1061 -0.1787  0.0023
34763DOD     C348110   5.256   4.863   7.785 -0.2218  0.0240 -0.0562
34764DOD     C148111  15.287  10.962   6.141 -0.1700  0.1255 -0.1815
34764DOD     C248112  14.925  10.733   6.063 -0.1729  0.1789  0.1274
34764DOD     C348113  14.727  10.327   5.928  0.1731 -0.0120 -0.1439
34765DOD     C148114  24.830  30.391  28.537  0.1084  0.3758  0.1735
34765DOD     C248115  24.653  -0.057  28.927  0.0543 -0.2618 -0.1324
34765DOD     C348116  24.630  30.221  29.356  0.0503  0.1469 -0.1643
34766DOD     C148117  23.874   2.046   5.350  0.1119 -0.5132  0.1346
34766DOD     C248118  24.056   2.435   5.462  0.1890 -0.0119 -0.0671
34766DOD     C348119  24.325   2.686   5.765  0.0823 -0.0332 -0.0230
34767DOD     C148120   4.390  15.289  16.266 -0.1533  0.3362  0.1970
34767DOD     C248121   4.052  15.667  16.364  0.0661 -0.1692  0.3716
34767DOD     C348122   3.756  16.028  16.469 -0.0924  0.1760 -0.2613
34768DOD     C148123  24.736   3.813  14.109 -0.2352  0.0372  0.4376
34768DOD     C248124  24.684   3.633  14.499 -0.1448  0.1646  0.0183
34768DOD     C348125  24.288   3.538  14.813  0.1837  0.0736 -0.1406
34769DOD     C148126  18.663  12.419  30.280  0.0886  0.1959 -0.2511
34769DOD     C248127  18.520  12.685  29.957 -0.0373 -0.2117 -0.1861
34769DOD     C348128  18.294  12.538  29.559 -0.1264  0.0732 -0.2048
34770DOD     C148129  12.312  11.133   5.062 -0.0498 -0.1883  0.1713
34770DOD     C248130  12.587  11.461   5.228 -0.2789 -0.1555  0.0907
34770DOD     C348131  12.551  11.843   5.420  0.1099 -0.1022  0.1953
34771DOD     C148132  15.979  10.923   7.099  0.0047 -0.0018 -0.1620
34771DOD     C248133  16.398  10.847   7.277 -0.1318 -0.1360  0.0402
34771DOD     C348134  16.842  10.724   7.377 -0.1299  0.4244  0.1734
34772DOD     C148135  26.865   6.110  27.418  0.0392  0.0221  0.2543
34772DOD     C248136  26.718   6.093  27.825  0.1302  0.1687  0.3042
34772DOD     C348137  26.412   6.094  28.252  0.3443  0.1976 -0.1185
34773DOD     C148138   5.780  26.357  12.078  0.1094 -0.1979  0.0919
34773DOD     C248139   5.947  26.359  11.632  0.1145  0.1499  0.1182
34773DOD     C348140   5.891  25.954  11.281 -0.1682 -0.2877  0.1750
34774DOD     C148141  13.820  23.071  17.495  0.0129  0.1512  0.1728
34774DOD     C248142  13.484  22.889  17.213  0.2015 -0.0189 -0.1104
34774DOD     C348143  13.238  22.477  17.177 -0.2073 -0.0120  0.1865
34775DOD     C148144  26.381   5.053  26.087  0.0958 -0.0674  0.0157
34775DOD     C248145  26.651   5.221  25.702  0.0162  0.0283 -0.0050
34775DOD     C348146  26.757   5.381  25.291  0.3684 -0.4769  0.0862
34776DOD     C148147  10.667  14.005  28.190  0.2362  0.3329 -0.0709
34776DOD     C248148  10.693  13.599  28.432 -0.1639 -0.3256  0.0783
34776DOD     C348149  10.813  13.365  28.782 -0.0342 -0.1798  0.0770
34777DOD     C148150  13.467  17.341  14.207  0.0490  0.1145  0.0179
34777DOD     C248151  13.060  17.252  14.036  0.1314  0.6045 -0.0777
34777DOD     C348152  12.901  17.163  13.601 -0.1252  0.1175 -0.1025
34778DOD     C148153  10.165  23.464  29.909  0.1577 -0.0135 -0.0805
34778DOD     C248154   9.898  23.433   0.036  0.0833  0.0096  0.0115
34778DOD     C348155  10.117  23.516   0.462 -0.0380  0.1397 -0.1655
34779DOD     C148156  27.267  13.082  17.003 -0.0432 -0.0100 -0.0813
34779DOD     C248157  27.287  13.136  17.482 -0.0963  0.0088 -0.2361
34779DOD     C348158  27.015  13.264  17.888 -0.0800 -0.1832  0.1598
34780DOD     C148159   6.308  13.835  20.894  0.0480 -0.1621  0.0437
34780DOD     C248160   6.206  14.308  21.003  0.0792  0.1454  0.0436
34780DOD     C348161   5.934  14.718  21.004  0.0536  0.0126  0.1592
34781DOD     C148162  21.131  24.897  27.500  0.1358  0.1724 -0.1800
34781DOD     C248163  20.733  25.022  27.667  0.1024 -0.0857 -0.1600
34781DOD     C348164  20.346  24.839  27.944  0.0244 -0.2633  0.1343
34782DOD     C148165   8.714   6.458  15.658 -0.1561 -0.1077 -0.0833
34782DOD     C248166   8.267   6.639  15.737  0.1591 -0.2847 -0.1393
34782DOD     C348167   7.987   6.630  16.163  0.0456 -0.1564  0.0846
34783DOD     C148168  27.107   6.525  28.725 -0.4065  0.3244  0.2900
34783DOD     C248169  27.205   7.027  28.676 -0.2195  0.1302 -0.0159
34783DOD     C348170  27.391   7.433  28.539  0.1470 -0.1577 -0.1406
34784DOD     C148171   4.998  11.742  20.854 -0.0728 -0.3444 -0.3583
34784DOD     C248172   5.234  11.780  20.461  0.0965  0.1029 -0.1689
34784DOD     C348173   5.650  11.821  20.220 -0.2901 -0.0704 -0.1194
34785DOD     C148174  17.971  20.463  15.994  0.0776 -0.1643  0.1822
34785DOD     C248175  17.742  20.206  16.360  0.1783 -0.2550 -0.2547
34785DOD     C348176  17.539  19.782  16.215  0.3401 -0.1762  0.1005
34786DOD     C148177   3.770  26.865  20.461  0.1395 -0.0041  0.2067
34786DOD     C248178   4.046  26.743  20.047  0.3060 -0.0581 -0.0157
34786DOD     C348179   4.347  26.858  19.682 -0.1884  0.1064  0.0030
34787DOD     C148180  25.358  21.196  19.053  0.0427  0.2831 -0.0263
34787DOD     C248181  25.422  21.357  19.492  0.0711  0.0425  0.1318
34787DOD     C348182  25.791  21.468  19.759 -0.2633  0.0776 -0.2314
34788DOD     C148183  25.881   7.183   4.352  0.0611 -0.1078  0.4384
34788DOD     C248184  25.583   6.988   4.007  0.1515 -0.1334  0.1808
34788DOD     C348185  25.395   6.696   3.758  0.2577  0.1690  0.1316
34789DOD     C148186  25.006  14.630  27.809  0.1705 -0.1154 -0.1240
34789DOD     C248187  25.045  15.087  27.869 -0.0855  0.1173 -0.0126
34789DOD     C348188  25.040  15.512  27.999 -0.1747 -0.2426 -0.1780
34790DOD     C148189  22.005  15.662  22.840 -0.1372 -0.0288 -0.1473
34790DOD     C248190  22.050  15.231  22.666 -0.0080 -0.1257  0.3551
34790DOD     C348191  21.848  15.238  22.263 -0.0563 -0.0813 -0.0864
34791DOD     C148192  26.867  26.712   3.481 -0.0355  0.1945 -0.1907
34791DOD     C248193  26.620  26.855   3.146  0.0442 -0.2130  0.1982
34791DOD     C348194  26.419  27.326   3.080  0.1215 -0.1776  0.2497
34792DOD     C148195  13.539  18.926   8.238 -0.0609  0.1275  0.2912
34792DOD     C248196  13.642  18.880   7.769 -0.1425 -0.0186 -0.2540
34792DOD     C348197  13.643  18.864   7.325  0.2199  0.0024  0.2535
34793DOD     C148198   3.017  17.349  14.722  0.0768  0.1042  0.2797
34793DOD     C248199   2.896  17.683  14.915  0.0437 -0.3847 -0.0192
34793DOD     C348200   3.106  17.849  15.288  0.1114 -0.0176  0.2148
34794DOD     C148201  21.163  24.905   3.159  0.0788 -0.0396 -0.0637
34794DOD     C248202  20.921  25.288   3.325 -0.2516 -0.0443  0.0664
34794DOD     C348203  20.593  25.447   3.610  0.1801 -0.0268 -0.0247
34795DOD     C148204  10.739  19.305  22.928 -0.2130  0.0425  0.1713
34795DOD     C248205  10.315  19.117  22.886 -0.1207 -0.2737  0.0801
34795DOD     C348206   9.940  19.007  23.162 -0.4175 -0.0433 -0.1988
34796DOD     C148207  23.396  18.840  28.973  0.0450  0.0660  0.2040
34796DOD     C248208  23.744  18.575  28.791  0.1467  0.1638  0.0901
34796DOD     C348209  24.064  18.216  28.755  0.1391  0.0806 -0.1496
34797DOD     C148210   0.262   9.105   8.826 -0.3085 -0.2433 -0.0551
34797DOD     C248211   0.228   8.680   8.746 -0.3649 -0.1415 -0.1768
34797DOD     C348212   0.137   8.257   8.540  0.0375  0.0058 -0.0350
34798DOD     C148213   0.255   2.396  19.474 -0.2461  0.0950 -0.1744
34798DOD     C248214   0.210   2.467  19.922  0.0820  0.0241  0.1472
34798DOD     C348215   0.463   2.246  20.282  0.0752 -0.0874  0.2458
34799DOD     C148216  14.916  10.929  14.579 -0.1835 -0.0112  0.1725
34799DOD     C248217  14.669  11.050  14.228 -0.2100  0.0562  0.1075
34799DOD     C348218  14.395  10.915  13.828 -0.0186  0.0370 -0.0858
34800DOD     C148219  23.443   2.456  16.184  0.1860 -0.0685 -0.0117
34800DOD     C248220  23.126   2.737  16.086 -0.1087 -0.1722 -0.2297
34800DOD     C348221  22.875   2.775  15.738 -0.0217 -0.4131  0.1010
34801DOD     C148222   7.003  26.131   5.188 -0.2042 -0.1577 -0.0434
34801DOD     C248223   7.036  25.972   5.636 -0.1696  0.0862  0.0059
34801DOD     C348224   7.123  25.914   6.098  0.1520  0.0963 -0.1123
34802DOD     C148225  16.432  22.903   4.854  0.2376 -0.1900 -0.2062
34802DOD     C248226  16.084  22.769   4.671  0.0696  0.1444  0.1460
34802DOD     C348227  15.738  22.721   4.321  0.4520 -0.2191 -0.1019
34803DOD     C148228   5.068  14.851   7.861  0.3059 -0.0101 -0.0551
34803DOD     C248229   4.771  14.853   7.507  0.0259  0.0212  0.4898
34803DOD     C348230   4.438  14.899   7.161  0.1706 -0.3691  0.0851
34804DOD     C148231  21.005   4.239  24.093  0.1972 -0.0691  0.3797
34804DOD     C248232  21.050   4.673  24.278 -0.2500 -0.1547  0.0753
34804DOD     C348233  21.057   5.112  24.043  0.1277 -0.1678 -0.2171
34805DOD     C148234   1.689  11.835  13.999 -0.1553 -0.3332  0.2027
34805DOD     C248235   1.542  11.760  13.579 -0.0612 -0.2463 -0.4289
34805DOD     C348236   1.171  11.830  13.266  0.1461 -0.3563 -0.2687
34806DOD     C148237   1.540  13.403  25.561  0.1517  0.0933 -0.0804
34806DOD     C248238   1.590  13.022  25.741 -0.0436 -0.1450 -0.1874
34806DOD     C348239   1.690  12.581  25.622  0.1528  0.1973 -0.0240
34807DOD     C148240   6.789  18.098   7.592 -0.0902  0.1152 -0.1390
34807DOD     C248241   7.032  17.805   7.344 -0.1398 -0.3043 -0.1073
34807DOD     C348242   7.350  17.765   7.040 -0.0869 -0.1828  0.1251
34808DOD     C148243   0.966   6.416   3.372 -0.2911 -0.2809  0.0502
34808DOD     C248244   0.754   6.462   2.956  0.0261 -0.1020  0.0717
34808DOD     C348245   0.567   6.481   2.487 -0.2195 -0.0691  0.1396
34809DOD     C148246  27.952  26.163   8.677 -0.0653  0.0001 -0.1929
34809DOD     C248247  28.067  26.620   8.735 -0.1770 -0.2422  0.2311
34809DOD     C348248  28.082  26.995   8.995 -0.0551 -0.1010 -0.1263
34810DOD     C148249  21.683  15.802  15.414 -0.0317 -0.0723 -0.1108
34810DOD     C248250  21.367  16.090  15.107 -0.2756 -0.1445 -0.1351
34810DOD     C348251  20.983  16.362  15.078  0.2893  0.0957  0.0936
34811DOD     C148252  27.071   8.872  25.591  0.1083 -0.2551 -0.4143
34811DOD     C248253  27.219   8.574  25.941  0.0820  0.1070 -0.0289
34811DOD     C348254  27.382   8.364  26.313 -0.3073 -0.1196 -0.2477
34812DOD     C148255  22.711  29.526  20.963 -0.4078 -0.3581  0.2418
34812DOD     C248256  23.057  29.292  20.822 -0.0445  0.0264  0.0491
34812DOD     C348257  23.461  29.141  20.732  0.1412  0.1110  0.1007
34813DOD     C148258  12.125  10.044   9.075  0.1455  0.0180  0.0005
34813DOD     C248259  12.258   9.692   8.828 -0.1700 -0.1511 -0.0376
34813DOD     C348260  12.181   9.218   8.980  0.0062 -0.1041  0.0936
34814DOD     C148261  22.577  24.515  12.840  0.0566  0.2163  0.1350
34814DOD     C248262  22.395  24.781  13.129  0.0617 -0.1450 -0.0272
34814DOD     C348263  22.045  24.827  13.475 -0.3104 -0.1199 -0.1916
34815DOD     C148264  10.560   0.534  20.007  0.0064 -0.0688  0.1048
34815DOD     C248265  10.481   0.201  20.258 -0.3588  0.0863 -0.1884
34815DOD     C348266  10.214  30.165  20.348  0.2457  0.0106 -0.0732
34816DOD     C148267  16.202   8.022   4.067  0.2646  0.0649 -0.0540
34816DOD     C248268  16.257   8.185   4.471 -0.0383 -0.1800 -0.0351
34816DOD     C348269  16.028   8.119   4.856 -0.0288  0.1402 -0.2511
34817DOD     C148270  14.116   0.737  14.409 -0.1134  0.4137  0.0503
34817DOD     C248271  14.311   1.113  14.618 -0.0026 -0.1385  0.0546
34817DOD     C348272  14.515   1.070  15.004  0.1484  0.0036 -0.1718
34818DOD     C148273  27.039  22.046  26.351 -0.1733  0.2071  0.1638
34818DOD     C248274  27.157  21.640  26.104 -0.1970  0.0060  0.0302
34818DOD     C348275  26.992  21.220  26.135  0.0492  0.2739 -0.0472
34819DOD     C148276  20.978   7.410  24.628  0.0411  0.1505 -0.1300
34819DOD     C248277  21.176   7.563  24.204  0.1995 -0.1548  0.1316
34819DOD     C348278  21.181   8.026  24.031 -0.0215 -0.1185  0.3549
34820DOD     C148279  24.952  20.086  15.337  0.3423 -0.2358  0.0986
34820DOD     C248280  25.039  19.618  15.184  0.0368 -0.1438 -0.0645
34820DOD     C348281  25.413  19.364  15.364  0.0078 -0.2901 -0.0090
34821DOD     C148282  24.603  20.343  18.410  0.0443  0.1028 -0.2859
34821DOD     C248283  24.776  19.929  18.482 -0.3598  0.1716 -0.0602
34821DOD     C348284  24.494  19.605  18.710 -0.0672  0.0089 -0.0496
34822DOD     C148285  10.741  17.614  28.917  0.1075  0.0741 -0.1958
34822DOD     C248286  11.109  17.447  28.840  0.0790 -0.1041  0.0886
34822DOD     C348287  11.317  16.999  28.748  0.0464 -0.3284 -0.0183
34823DOD     C148288  11.529  28.664  21.015 -0.1074 -0.1065  0.3223
34823DOD     C248289  11.146  28.634  21.193 -0.2254 -0.1964  0.0391
34823DOD     C348290  10.794  28.809  21.455  0.0994 -0.2251 -0.2247
34824DOD     C148291   9.596   9.725  30.048 -0.1091 -0.1021  0.1541
34824DOD     C248292   9.423   9.939  29.649 -0.0681 -0.2427 -0.0955
34824DOD     C348293   9.036   9.887  29.425  0.1027  0.2270 -0.0591
34825DOD     C148294  29.678   6.445  21.438 -0.3348 -0.3584 -0.2600
34825DOD     C248295  29.288   6.213  21.579 -0.0625 -0.1872 -0.0919
34825DOD     C348296  29.091   5.826  21.585  0.1777 -0.1412  0.0740
34826DOD     C148297  26.316   8.290  29.520 -0.0777 -0.0667 -0.0172
34826DOD     C248298  26.226   7.889  29.342  0.0622  0.1950  0.3583
34826DOD     C348299  26.317   7.736  28.920 -0.0227 -0.2808 -0.0455
34827DOD     C148300  20.516   2.783  15.783 -0.2405  0.1735  0.0247
34827DOD     C248301  20.230   2.443  15.663 -0.0583 -0.1197 -0.3612
34827DOD     C348302  19.827   2.284  15.712 -0.0415  0.1031 -0.0140
34828DOD     C148303   6.853  12.295  13.422  0.0074  0.0252  0.0950
34828DOD     C248304   6.807  11.911  13.348 -0.1947 -0.1496 -0.0042
34828DOD     C348305   6.512  11.559  13.170 -0.1568  0.0388  0.2147
34829DOD     C148306  25.517   3.595  27.336  0.0134  0.1077  0.1536
34829DOD     C248307  25.899   3.447  27.134 -0.0848 -0.1121 -0.2178
34829DOD     C348308  26.146   3.104  26.883 -0.0430  0.1381 -0.3731
34830DOD     C148309   4.518   7.496  12.415 -0.0391 -0.1014 -0.1232
34830DOD     C248310   4.064   7.625  12.547 -0.1252 -0.0715 -0.1425
34830DOD     C348311   3.674   7.810  12.364 -0.2333 -0.1930  0.1104
34831DOD     C148312  10.517   8.596  24.033 -0.0533  0.1782  0.2582
34831DOD     C248313  10.152   8.474  24.413  0.1844 -0.3271  0.2188
34831DOD     C348314   9.839   8.168  24.603  0.1641  0.5529 -0.0365
34832DOD     C148315  22.174  21.727   9.871 -0.0435  0.0945 -0.1338
34832DOD     C248316  21.721  21.811   9.945 -0.0932 -0.0407  0.0286
34832DOD     C348317  21.444  21.828  10.324  0.0827 -0.0218 -0.0110
34833DOD     C148318   4.012  16.695  21.339 -0.1967  0.0683 -0.0194
34833DOD     C248319   4.301  16.677  20.949 -0.1089  0.0764  0.1005
34833DOD     C348320   4.706  16.891  20.987 -0.0077  0.1087  0.0895
34834DOD     C148321   6.533  24.475  25.514 -0.4492  0.1825 -0.0492
34834DOD     C248322   6.081  24.593  25.504 -0.2690 -0.0779  0.1121
34834DOD     C348323   5.650  24.544  25.383 -0.3122  0.1299  0.0502
34835DOD     C148324  12.046  24.953   0.448  0.1671  0.1902  0.0196
34835DOD     C248325  11.641  24.770   0.599 -0.2415 -0.1990  0.0012
34835DOD     C348326  11.454  24.612   1.028  0.0142  0.1268  0.2987
34836DOD     C148327   0.128  16.477  20.254  0.1568 -0.2274  0.0537
34836DOD     C248328  30.025  16.476  20.093 -0.0664 -0.0033 -0.0051
34836DOD     C348329  29.689  16.656  19.854 -0.0501  0.1691  0.3893
34837DOD     C148330  22.513   7.599  19.862  0.0905 -0.5291  0.2216
34837DOD     C248331  22.193   7.337  19.544 -0.1735 -0.1893 -0.1294
34837DOD     C348332  21.934   7.189  19.186 -0.0420 -0.3062  0.1972
34838DOD     C148333   1.688  18.012  14.319 -0.1714  0.0087  0.1806
34838DOD     C248334   2.086  17.773  14.227 -0.0840 -0.2017 -0.1860
34838DOD     C348335   2.432  17.537  14.050 -0.1290  0.0399  0.0289
34839DOD     C148336   2.197   1.505  18.986 -0.1867  0.1792  0.2119
34839DOD     C248337   2.254   1.405  18.529 -0.0186 -0.3238  0.1665
34839DOD     C348338   2.234   1.234  18.085  0.0471 -0.2009  0.2799
34840DOD     C148339  21.899  27.048  20.139 -0.2151 -0.0539 -0.0375
34840DOD     C248340  21.947  27.258  20.539 -0.2037 -0.2838 -0.0610
34840DOD     C348341  22.071  27.296  20.943 -0.1002  0.1749 -0.1738
34841DOD     C148342  14.609  21.935  19.540  0.2681 -0.2168 -0.1016
34841DOD     C248343  14.568  21.694  19.147  0.0504 -0.3111  0.2289
34841DOD     C348344  14.389  21.600  18.695 -0.1032 -0.2330 -0.3642
34842DOD     C148345  27.745   7.391   0.108  0.3610  0.0856  0.0223
34842DOD     C248346  28.197   7.283   0.130 -0.1837 -0.1505  0.0363
34842DOD     C348347  28.490   6.923   0.220  0.0643 -0.3415  0.2240
34843DOD     C148348  11.059  12.203   0.809  0.2280  0.1674  0.0041
34843DOD     C248349  11.094  11.826   1.019 -0.2727  0.1736  0.1718
34843DOD     C348350  11.477  11.670   1.073 -0.1951 -0.0098  0.1137
34844DOD     C148351  19.546   0.508   0.643 -0.1027 -0.1198 -0.0096
34844DOD     C248352  19.868   0.747   0.884 -0.0069 -0.2309 -0.1303
34844DOD     C348353  20.242   0.975   0.641 -0.2143 -0.3453 -0.3213
34845DOD     C148354  14.903   1.228  20.149  0.0230  0.2397 -0.0842
34845DOD     C248355  15.041   1.548  19.828 -0.0790  0.1299 -0.2978
34845DOD     C348356  15.341   1.793  19.597  0.4011  0.2733  0.1514
34846DOD     C148357   0.851  23.787   0.539 -0.1156 -0.0282  0.0839
34846DOD     C248358   0.670  23.365   0.524  0.3554  0.0840 -0.1387
34846DOD     C348359   0.360  23.180   0.246  0.3052  0.4726  0.1240
34847DOD     C148360   0.043  22.815  16.512  0.0361 -0.0577  0.0512
34847DOD     C248361  29.967  22.966  16.831  0.0849 -0.3100  0.1922
34847DOD     C348362  29.758  23.075  17.250  0.2304  0.1533 -0.0650
34848DOD     C148363  25.783  17.501   7.344 -0.0609 -0.2750 -0.0911
34848DOD     C248364  25.908  17.127   7.090  0.2223 -0.2650  0.1510
34848DOD     C348365  25.535  16.846   7.187 -0.0346 -0.1215 -0.1330
34849DOD     C148366  29.101  14.900  22.537 -0.1107 -0.1766  0.2323
34849DOD     C248367  29.069  15.219  22.851 -0.2529 -0.0176  0.2569
34849DOD     C348368  28.691  15.422  23.109  0.0149 -0.2788  0.0101
34850DOD     C148369  19.211  13.341  17.091 -0.0777  0.4126  0.1645
34850DOD     C248370  19.387  13.736  16.881  0.0845 -0.0012 -0.1426
34850DOD     C348371  19.411  14.167  16.908 -0.1739 -0.1243 -0.0917
34851DOD     C148372  15.320  14.224  16.659  0.1187 -0.1157 -0.1874
34851DOD     C248373  15.085  14.583  16.589  0.1008  0.2711 -0.1886
34851DOD     C348374  14.783  14.881  16.418  0.4200  0.1451 -0.4507
34852DOD     C148375  26.313  14.611  18.213 -0.3485  0.2138  0.0575
34852DOD     C248376  26.708  14.816  18.348 -0.2225 -0.0610  0.0490
34852DOD     C348377  27.016  14.962  18.035  0.1770  0.3260  0.0866
34853DOD     C148378  10.033  28.591  14.613  0.1482 -0.3196 -0.3248
34853DOD     C248379  10.381  28.885  14.428 -0.0595  0.2089  0.0374
34853DOD     C348380  10.671  29.234  14.309 -0.0512  0.0056 -0.1334
34854DOD     C148381  15.364   2.540   5.744 -0.1385 -0.3474 -0.2910
34854DOD     C248382  15.812   2.460   5.801  0.1888 -0.1940  0.0419
34854DOD     C348383  16.257   2.416   5.788  0.0617 -0.1012 -0.0919
34855DOD     C148384  16.499  29.547  14.401  0.1369  0.2175  0.1437
34855DOD     C248385  16.054  29.503  14.542  0.0288 -0.2528  0.0360
34855DOD     C348386  15.781  29.603  14.848  0.3077  0.0003 -0.1460
34856DOD     C148387  29.155  12.624   9.889  0.1685 -0.2244  0.0555
34856DOD     C248388  29.440  12.501  10.261  0.0193  0.1167 -0.2101
34856DOD     C348389  29.350  12.462  10.718  0.0976 -0.1167  0.2630
34857DOD     C148390  14.250   3.384  16.628 -0.3111  0.1235 -0.0619
34857DOD     C248391  13.858   3.530  16.634  0.2961  0.2455  0.0274
34857DOD     C348392  13.500   3.263  16.581 -0.0975 -0.1891  0.1182
34858DOD     C148393   9.205  10.217   3.806  0.1919  0.2946  0.0340
34858DOD     C248394   9.220  10.637   3.731 -0.1996 -0.0563  0.2827
34858DOD     C348395   9.125  11.017   3.604  0.0414 -0.0114  0.0496
34859DOD     C148396   4.924   6.491  10.192  0.1934  0.1403 -0.0111
34859DOD     C248397   5.238   6.159  10.194  0.0753 -0.2833  0.1713
34859DOD     C348398   5.366   5.729   9.996 -0.1657 -0.0002  0.1958
34860DOD     C148399  23.516   9.057  11.639  0.0787  0.0696 -0.1627
34860DOD     C248400  23.411   8.872  12.068  0.1880 -0.0485 -0.1436
34860DOD     C348401  23.486   8.483  12.312 -0.2155 -0.2358  0.1125
34861DOD     C148402   8.466   3.793  23.505 -0.1964 -0.0933  0.0660
34861DOD     C248403   8.276   3.584  23.134  0.1195  0.3102  0.0987
34861DOD     C348404   8.128   3.537  22.665  0.0897 -0.0444 -0.1058
34862DOD     C148405   5.430   3.260  13.392  0.1709  0.0965 -0.0640
34862DOD     C248406   5.250   2.927  13.141  0.3481  0.2693 -0.1668
34862DOD     C348407   5.263   2.493  12.994  0.0097  0.1642 -0.2723
34863DOD     C148408  22.199  22.109  10.749  0.0118  0.1709 -0.0938
34863DOD     C248409  22.580  22.461  10.821  0.0373  0.1716  0.1099
34863DOD     C348410  22.770  22.851  10.687  0.1080  0.3034  0.3480
34864DOD     C148411  14.331  21.313  19.203 -0.2606 -0.1214 -0.2407
34864DOD     C248412  13.940  21.524  19.028 -0.1532 -0.1439  0.4738
34864DOD     C348413  13.471  21.383  18.987  0.0663  0.2070  0.0905
34865DOD     C148414   5.939   1.061  19.653 -0.1251 -0.1310  0.1982
34865DOD     C248415   5.732   0.643  19.837  0.1702  0.1839 -0.2008
34865DOD     C348416   5.910   0.168  19.861  0.0161  0.1041 -0.0179
34866DOD     C148417  25.578  19.302   6.492  0.1142  0.2762 -0.0067
34866DOD     C248418  25.456  18.930   6.286  0.0206 -0.1411 -0.2830
34866DOD     C348419  25.180  18.595   6.058  0.1201  0.2067  0.0377
34867DOD     C148420   9.689  21.172  13.403 -0.0311  0.0803 -0.3465
34867DOD     C248421   9.327  20.991  13.168  0.0060  0.1936 -0.1769
34867DOD     C348422   8.995  20.791  12.854 -0.0239 -0.0635 -0.1080
34868DOD     C148423  15.096   5.323  12.217  0.2186 -0.0193 -0.1345
34868DOD     C248424  14.664   5.383  12.374  0.2303  0.0629  0.0295
34868DOD     C348425  14.283   5.512  12.534 -0.0035  0.0047  0.0970
34869DOD     C148426  21.031   3.753  25.195  0.1672  0.0099 -0.0373
34869DOD     C248427  21.078   3.952  24.784 -0.0216  0.0245 -0.0757
34869DOD     C348428  21.181   4.308  24.603 -0.4463  0.1489  0.0719
34870DOD     C148429  30.082  25.984  27.576 -0.2445 -0.4602 -0.0602
34870DOD     C248430  29.676  25.858  27.776 -0.0269 -0.0530  0.2134
34870DOD     C348431  29.481  25.495  27.971 -0.0147 -0.1129 -0.0762
34871DOD     C148432   8.124   2.915  21.016 -0.1439 -0.3377 -0.0702
34871DOD     C248433   7.779   3.083  20.807  0.0930 -0.1733  0.1716
34871DOD     C348434   7.777   3.294  20.396  0.0467 -0.0147 -0.1079
34872DOD     C148435  30.247   9.713   4.971 -0.1554  0.0868  0.1918
34872DOD     C248436  30.080  10.075   5.229  0.0843 -0.0218 -0.1509
34872DOD     C348437  29.964  10.298   5.605 -0.2604 -0.2278 -0.1122
34873DOD     C148438   6.078  16.392  23.606  0.0391 -0.1048 -0.1114
34873DOD     C248439   6.372  16.707  23.751 -0.1555  0.1314  0.4209
34873DOD     C348440   6.488  16.964  24.040 -0.0485 -0.0296 -0.1655
34874DOD     C148441  19.272   9.287  15.252 -0.0731  0.2092 -0.1634
34874DOD     C248442  19.003   8.975  15.270  0.2453 -0.2053  0.1688
34874DOD     C348443  18.845   8.577  15.160  0.1871 -0.1529  0.2226
34875DOD     C148444  21.130  18.088  27.427 -0.0151 -0.2412  0.2924
34875DOD     C248445  21.280  18.517  27.193 -0.1289  0.1040 -0.0602
34875DOD     C348446  21.389  18.838  26.873  0.1665  0.2036 -0.1531
34876DOD     C148447  26.448  27.542  12.117 -0.0690 -0.0049 -0.1680
34876DOD     C248448  26.063  27.240  12.179 -0.2876 -0.2052  0.2000
34876DOD     C348449  25.666  27.445  12.432  0.0201 -0.1007 -0.0046
34877DOD     C148450  18.225  19.280  10.924  0.1743  0.3061  0.1724
34877DOD     C248451  17.908  19.100  11.189 -0.0661 -0.0295 -0.0191
34877DOD     C348452  17.467  18.938  11.139  0.2786 -0.0948 -0.0236
34878DOD     C148453   5.283  29.210   6.556  0.0182 -0.0581 -0.2860
34878DOD     C248454   4.992  29.041   6.265  0.0456 -0.3589 -0.1179
34878DOD     C348455   4.917  29.111   5.766 -0.1096  0.2522 -0.1572
34879DOD     C148456  25.868   9.477  16.843  0.1491  0.3823  0.0744
34879DOD     C248457  25.883   9.070  16.998 -0.0674 -0.0229  0.0922
34879DOD     C348458  25.824   8.844  17.411  0.2183 -0.1321 -0.2963
34880DOD     C148459  11.017   1.074  14.659  0.2296  0.1516 -0.0548
34880DOD     C248460  10.894   0.669  14.864  0.0176 -0.1822  0.0707
34880DOD     C348461  10.720   0.357  14.584 -0.1452  0.1606  0.0908
34881DOD     C148462  22.360  22.040  18.295  0.0239 -0.2614  0.1201
34881DOD     C248463  22.331  21.893  17.826  0.0079  0.1166  0.2121
34881DOD     C348464  22.552  21.468  17.640  0.0515  0.2242 -0.0969
34882DOD     C148465   8.313  15.825  13.487  0.1486 -0.1958 -0.1189
34882DOD     C248466   8.653  15.801  13.144 -0.1806 -0.0780  0.0681
34882DOD     C348467   8.859  16.085  12.853  0.2679 -0.0362  0.0759
34883DOD     C148468  18.516  22.561  30.317  0.0982  0.1682  0.2489
34883DOD     C248469  18.188  22.873  30.273  0.0228  0.1385 -0.0651
34883DOD     C348470  17.794  23.097   0.165 -0.1027 -0.0366  0.0753
34884DOD     C148471  22.171  15.645   3.010 -0.1153  0.1459  0.0981
34884DOD     C248472  21.881  15.837   3.337 -0.0396  0.0604 -0.1745
34884DOD     C348473  21.739  16.131   3.636  0.1769  0.1438  0.2104
34885DOD     C148474   2.625   4.372   4.703 -0.0917  0.0001 -0.1932
34885DOD     C248475   2.856   4.765   4.686 -0.2132  0.0834 -0.1768
34885DOD     C348476   2.809   5.126   4.958  0.3183  0.0142 -0.2318
34886DOD     C148477  -0.001   6.572  20.067  0.0342 -0.0351  0.0087
34886DOD     C248478   0.149   6.855  20.408 -0.0579 -0.0234 -0.0974
34886DOD     C348479   0.250   6.949  20.880 -0.2401 -0.1619  0.0889
34887DOD     C148480   6.178  23.392  29.004  0.0503 -0.0044  0.0315
34887DOD     C248481   6.455  23.328  28.568 -0.1665 -0.3656  0.1415
34887DOD     C348482   6.799  23.027  28.470  0.2004  0.2851  0.0714
34888DOD     C148483  18.782  20.964  10.659 -0.0946 -0.1579  0.1183
34888DOD     C248484  18.478  21.304  10.556  0.1074  0.3172  0.1634
34888DOD     C348485  18.088  21.363  10.332  0.0291 -0.0038 -0.2146
34889DOD     C148486   2.978  24.262  23.555 -0.2017  0.2038 -0.0318
34889DOD     C248487   2.622  24.053  23.430  0.3416  0.0428 -0.1737
34889DOD     C348488   2.431  23.662  23.505 -0.0792 -0.0672 -0.0767
34890DOD     C148489  17.086   1.009  16.598  0.1342  0.2676 -0.2421
34890DOD     C248490  16.802   1.128  16.935  0.1015 -0.0929  0.0158
34890DOD     C348491  16.401   1.401  16.955 -0.0695 -0.5156 -0.0186
34891DOD     C148492  16.775  27.977  10.561 -0.0196  0.1841 -0.2706
34891DOD     C248493  16.542  27.590  10.551  0.1111 -0.2986 -0.1119
34891DOD     C348494  16.230  27.282  10.626  0.4418  0.0721  0.1906
34892DOD     C148495  20.510  12.958   1.784  0.0929  0.1451  0.0562
34892DOD     C248496  20.725  13.351   1.731  0.2668  0.2660  0.0912
34892DOD     C348497  20.821  13.811   1.866 -0.0456  0.3554  0.0076
34893DOD     C148498   8.093  11.006  27.806 -0.0668  0.0060  0.0830
34893DOD     C248499   7.978  10.659  28.132 -0.2469 -0.0738 -0.0242
34893DOD     C348500   7.780  10.561  28.624  0.1244  0.0284  0.0858
34894DOD     C148501  25.950  20.251  17.869 -0.2373  0.0910 -0.0329
34894DOD     C248502  26.116  20.521  18.271 -0.0286 -0.1658 -0.1366
34894DOD     C348503  26.158  20.671  18.684  0.2348  0.1683 -0.0521
34895DOD     C148504   1.144   5.940  27.998  0.3057 -0.0829  0.0360
34895DOD     C248505   0.731   5.997  27.751 -0.1581  0.1895  0.0491
34895DOD     C348506   0.534   6.413  27.731  0.2379 -0.1941 -0.0067
34896DOD     C148507  27.631  15.507   7.385  0.0503 -0.1121  0.1630
34896DOD     C248508  27.964  15.655   7.652 -0.1514  0.1776 -0.4492
34896DOD     C348509  28.404  15.580   7.835 -0.1825  0.3771  0.2300
34897DOD     C148510  11.559  23.013  14.525  0.1412  0.1861  0.1346
34897DOD     C248511  11.814  22.817  14.866  0.2385 -0.0858 -0.1917
34897DOD     C348512  11.770  22.611  15.272  0.0328 -0.0081  0.0916
34898DOD     C148513  14.595  12.723   6.235 -0.1715 -0.0541  0.0340
34898DOD     C248514  14.261  12.424   6.041 -0.3462 -0.1379 -0.1130
34898DOD     C348515  13.985  12.221   5.738  0.2600 -0.0959  0.3315
34899DOD     C148516   4.187  20.421  26.924  0.1387 -0.0962  0.0599
34899DOD     C248517   4.534  20.322  26.575 -0.2023 -0.1661 -0.2663
34899DOD     C348518   4.578  20.309  26.087  0.1430  0.0014  0.0600
34900DOD     C148519  16.475  23.996  17.978  0.2605  0.1605  0.0602
34900DOD     C248520  16.311  24.115  17.522 -0.2317 -0.4445  0.2258
34900DOD     C348521  16.062  24.187  17.189  0.0497  0.2649 -0.2673
34901DOD     C148522   2.944  19.505  25.986  0.0499 -0.1538 -0.1260
34901DOD     C248523   2.912  19.947  26.149  0.1675 -0.1958  0.2449
34901DOD     C348524   3.101  20.334  26.314 -0.0494 -0.2672 -0.0375
34902DOD     C148525  12.978  13.276  17.271 -0.1944 -0.2536  0.1421
34902DOD     C248526  13.040  13.025  17.609  0.0181  0.0966  0.3492
34902DOD     C348527  12.643  12.941  17.903 -0.1283 -0.1401  0.0349
34903DOD     C148528  17.336   5.097  13.107  0.2017  0.0989  0.0743
34903DOD     C248529  17.228   4.850  13.489  0.0508 -0.2428  0.0890
34903DOD     C348530  17.301   4.962  13.936  0.1133 -0.1112  0.0100
34904DOD     C148531  18.882  13.103  16.857  0.1553  0.2044 -0.0285
34904DOD     C248532  18.790  13.034  16.409 -0.0655 -0.0318  0.3024
34904DOD     C348533  18.777  13.108  15.918  0.2794  0.1783  0.2240
34905DOD     C148534   2.932   0.973  19.020 -0.2389  0.0478  0.1007
34905DOD     C248535   3.201   1.307  18.778  0.1150  0.1483  0.1681
34905DOD     C348536   3.564   1.601  18.577 -0.2112 -0.1369 -0.1315
34906DOD     C148537  12.173  20.260   8.242  0.1351  0.2229 -0.2921
34906DOD     C248538  11.778  20.560   8.337  0.1955  0.0348  0.2807
34906DOD     C348539  11.627  20.904   8.135 -0.0293  0.0094  0.3116
34907DOD     C148540  10.456   1.401   2.256  0.2283  0.2200 -0.0058
34907DOD     C248541   9.964   1.380   2.192  0.3677  0.2190  0.0879
34907DOD     C348542   9.494   1.363   2.159  0.0953 -0.3312  0.1656
34908DOD     C148543   9.600  20.396  23.010 -0.0138  0.0613 -0.2111
34908DOD     C248544   9.270  20.239  22.716 -0.2923 -0.3460 -0.0414
34908DOD     C348545   9.085  20.034  22.323  0.0221 -0.0772 -0.3534
34909DOD     C148546   8.240   4.689  27.527 -0.0232  0.0224  0.1162
34909DOD     C248547   8.230   5.040  27.204 -0.2297 -0.0068  0.0657
34909DOD     C348548   8.044   5.205  26.797  0.0524 -0.0069  0.1054
34910DOD     C148549   5.912   0.451  20.280  0.2103  0.0926 -0.0042
34910DOD     C248550   5.528   0.709  20.355  0.1473  0.1857 -0.0953
34910DOD     C348551   5.370   1.167  20.429 -0.1381  0.4678 -0.2651
34911DOD     C148552   8.058  21.391  21.661 -0.2325  0.3701 -0.2824
34911DOD     C248553   7.782  21.757  21.722  0.1944  0.1411  0.2138
34911DOD     C348554   7.969  22.138  21.799 -0.1749  0.0897  0.2238
34912DOD     C148555   7.849   6.804   2.465  0.3634 -0.0105  0.0828
34912DOD     C248556   7.732   6.333   2.274  0.2993 -0.0635 -0.2690
34912DOD     C348557   7.376   6.085   2.435  0.1375 -0.1707 -0.2147
34913DOD     C148558  10.051  23.091  12.635 -0.0114  0.1067 -0.2012
34913DOD     C248559  10.352  23.139  12.246  0.2166 -0.3715  0.0285
34913DOD     C348560  10.297  23.000  11.831 -0.0101  0.1646 -0.0734
34914DOD     C148561   4.859  11.622  29.200 -0.1997  0.0567  0.0250
34914DOD     C248562   4.615  11.233  29.112 -0.2149 -0.0437 -0.0575
34914DOD     C348563   4.513  11.111  28.681 -0.0589  0.1467  0.1282
34915DOD     C148564  18.107  20.929  19.888 -0.2184  0.1224 -0.1430
34915DOD     C248565  17.824  21.051  20.234  0.0465  0.0700  0.0622
34915DOD     C348566  17.605  21.402  20.457 -0.1466 -0.0913 -0.2844
34916DOD     C148567   6.203  15.176  12.487  0.3309 -0.1810  0.1071
34916DOD     C248568   6.091  14.868  12.771  0.2189  0.2570 -0.4222
34916DOD     C348569   5.950  14.587  13.158 -0.2682  0.0822  0.3970
34917DOD     C148570  22.602   3.186   2.367  0.1903 -0.1170  0.1013
34917DOD     C248571  22.676   3.556   2.604 -0.0320 -0.2732  0.1743
34917DOD     C348572  23.011   3.963   2.732 -0.1481  0.1295  0.1799
34918DOD     C148573  21.996  12.774   6.712  0.0939  0.0445  0.0096
34918DOD     C248574  22.097  12.405   6.439 -0.0985 -0.1943 -0.0512
34918DOD     C348575  21.902  12.011   6.381 -0.0535 -0.3356  0.0630
34919DOD     C148576  18.633  11.932  15.384  0.2218  0.0776  0.0804
34919DOD     C248577  19.115  11.974  15.447 -0.1390  0.1494 -0.0285
34919DOD     C348578  19.574  11.833  15.510  0.0854  0.0106 -0.0866
34920DOD     C148579   9.438  22.860  28.631 -0.2616  0.1781  0.0736
34920DOD     C248580   9.060  22.630  28.709  0.4612 -0.1000  0.2314
34920DOD     C348581   8.863  22.315  28.898  0.2050  0.1323 -0.4216
34921DOD     C148582   2.000   6.041  10.563 -0.0203 -0.3061  0.0982
34921DOD     C248583   2.455   6.173  10.675  0.2152  0.3129  0.0683
34921DOD     C348584   2.926   6.132  10.791  0.2612  0.1717  0.2420
34922DOD     C148585  13.164   4.831  27.729  0.1306  0.2306 -0.0462
34922DOD     C248586  13.480   5.017  27.440  0.1161  0.2762  0.1491
34922DOD     C348587  13.728   5.448  27.497 -0.3882  0.1267  0.1567
34923DOD     C148588  25.814  12.354  15.552  0.0374  0.0473  0.0399
34923DOD     C248589  26.125  11.990  15.524  0.2193 -0.3434  0.2601
34923DOD     C348590  26.329  11.600  15.545 -0.2311 -0.2028  0.0603
34924DOD     C148591  14.379   1.037  24.054  0.2100  0.0319 -0.1108
34924DOD     C248592  14.150   0.873  23.667  0.0109 -0.3532 -0.1796
34924DOD     C348593  14.113   0.520  23.476 -0.1494  0.0622  0.2580
34925DOD     C148594   6.333   9.861  18.575  0.0185  0.1527  0.1566
34925DOD     C248595   5.948   9.569  18.500 -0.3592  0.1204 -0.0440
34925DOD     C348596   5.448   9.553  18.491  0.1807  0.1470  0.1834
34926DOD     C148597   4.346  17.078  10.164 -0.0337 -0.2605 -0.0965
34926DOD     C248598   4.462  16.830   9.810  0.0818  0.1071  0.1645
34926DOD     C348599   4.363  16.472   9.494 -0.0432  0.2111 -0.0936
34927DOD     C148600  10.651   3.120   7.375  0.3415 -0.1640  0.0239
34927DOD     C248601  10.740   2.866   6.992  0.0218 -0.1067 -0.1019
34927DOD     C348602  10.673   2.492   6.828 -0.0589  0.0265 -0.1315
34928DOD     C148603  20.341  20.272  11.930  0.1469 -0.5475  0.1514
34928DOD     C248604  19.891  20.244  12.134  0.1740  0.0973  0.0912
34928DOD     C348605  19.532  20.360  12.372 -0.0423 -0.5172 -0.1139
34929DOD     C148606  10.790  15.578  16.446  0.2133  0.0481  0.1088
34929DOD     C248607  10.295  15.553  16.473  0.2243  0.3227  0.1064
34929DOD     C348608   9.843  15.575  16.722 -0.0385  0.1220  0.3724
34930DOD     C148609  19.457  27.433  16.404 -0.0204 -0.1011 -0.3478
34930DOD     C248610  19.290  27.421  16.852  0.5307 -0.0770 -0.3596
34930DOD     C348611  19.290  27.600  17.267 -0.0521  0.1551 -0.0052
34931DOD     C148612   9.668   2.331  14.795 -0.2030 -0.0181  0.0593
34931DOD     C248613   9.875   2.568  15.108 -0.1307 -0.0224  0.2394
34931DOD     C348614   9.942   2.701  15.543  0.3639 -0.0427 -0.1931
34932DOD     C148615   4.111   2.955   5.066 -0.1816 -0.0507  0.0741
34932DOD     C248616   4.492   3.105   5.292  0.0768  0.3745  0.2337
34932DOD     C348617   4.707   3.418   5.505  0.0970 -0.1721 -0.2294
34933DOD     C148618  19.791   3.548  14.836 -0.0797  0.1332 -0.0190
34933DOD     C248619  19.579   3.530  15.320 -0.0262 -0.4254 -0.1510
34933DOD     C348620  19.182   3.676  15.522  0.0886  0.2592  0.0009
34934DOD     C148621  28.567  -0.028  11.350 -0.0745 -0.0351  0.4292
34934DOD     C248622  28.393  29.908  11.485  0.3042 -0.0593 -0.3093
34934DOD     C348623  28.067  29.652  11.709 -0.0354  0.0468 -0.3370
34935DOD     C148624   9.940  23.326  19.765 -0.0077 -0.0455  0.0707
34935DOD     C248625   9.995  23.089  19.362 -0.2764  0.0474  0.0504
34935DOD     C348626  10.200  23.126  18.948 -0.1938 -0.0634  0.3143
34936DOD     C148627  12.844  18.815  25.028  0.1616  0.0252 -0.0195
34936DOD     C248628  12.407  18.869  25.251 -0.0907 -0.0223  0.1814
34936DOD     C348629  12.067  18.686  25.463 -0.1436  0.1826  0.2490
34937DOD     C148630  22.321   4.363   2.952  0.3568  0.1449  0.1088
34937DOD     C248631  22.309   4.455   3.345 -0.1986 -0.0174 -0.3773
34937DOD     C348632  22.219   4.885   3.483  0.1374 -0.1162 -0.2150
34938DOD     C148633  12.782  19.440   1.553 -0.2945 -0.1018  0.0686
34938DOD     C248634  12.858  19.247   1.111 -0.0666  0.1487  0.0442
34938DOD     C348635  12.915  19.111   0.627 -0.1048 -0.1462  0.1012
34939DOD     C148636   7.969  20.760   1.125  0.2647 -0.1208  0.0577
34939DOD     C248637   8.301  20.626   1.403 -0.3002 -0.1858  0.0373
34939DOD     C348638   8.689  20.800   1.341  0.0940 -0.2554  0.0411
34940DOD     C148639  23.412  22.939  22.837 -0.1592 -0.0647  0.0076
34940DOD     C248640  23.492  23.035  22.383  0.0386 -0.2169 -0.0667
34940DOD     C348641  23.407  23.002  21.931 -0.1857 -0.3028  0.1425
34941DOD     C148642   6.849   9.935  16.514 -0.0637  0.4428  0.1215
34941DOD     C248643   7.240  10.092  16.238 -0.0547 -0.0367  0.0906
34941DOD     C348644   7.680  10.030  16.250  0.2755 -0.0729  0.5085
34942DOD     C148645  13.489  18.118  16.433 -0.0348 -0.1910  0.0581
34942DOD     C248646  13.392  18.509  16.598  0.0849 -0.1788  0.2627
34942DOD     C348647  13.463  18.921  16.664  0.1131  0.1818 -0.5415
34943DOD     C148648   8.334  15.448  24.793  0.0214 -0.4067  0.1618
34943DOD     C248649   8.082  15.401  25.144  0.3865  0.0574  0.2219
34943DOD     C348650   7.590  15.480  25.254  0.2856 -0.0181  0.1581
34944DOD     C148651  22.307   5.371   7.161 -0.1508 -0.0043 -0.2640
34944DOD     C248652  22.651   5.656   7.001  0.1852  0.0006 -0.1412
34944DOD     C348653  23.064   5.686   6.815  0.0012  0.0369  0.0323
34945DOD     C148654  17.478   5.117   4.670  0.1820  0.1411  0.2403
34945DOD     C248655  17.780   4.759   4.797  0.2476  0.0966  0.0656
34945DOD     C348656  18.265   4.611   4.827 -0.3248 -0.0981  0.2084
34946DOD     C148657  24.403   9.746  24.712  0.1106  0.2725  0.2692
34946DOD     C248658  24.061   9.790  25.009  0.1768  0.6380  0.1022
34946DOD     C348659  23.613   9.944  25.232 -0.3038  0.1264  0.2519
34947DOD     C148660   8.499  24.944  22.902  0.1396  0.0593  0.1735
34947DOD     C248661   8.346  24.703  23.292  0.1335  0.3249  0.1279
34947DOD     C348662   8.182  24.805  23.699 -0.0409 -0.2726 -0.1277
34948DOD     C148663  12.826  19.345   6.276 -0.0254 -0.1275 -0.0070
34948DOD     C248664  12.850  18.908   6.188 -0.1662  0.0670 -0.1489
34948DOD     C348665  12.669  18.525   6.220 -0.0841  0.2154 -0.2265
34949DOD     C148666   7.871  13.117   6.028  0.4953  0.3961  0.0325
34949DOD     C248667   7.529  13.000   6.355 -0.1980 -0.0246  0.1881
34949DOD     C348668   7.354  13.129   6.760 -0.2181  0.0798 -0.1131
34950DOD     C148669  11.268  15.193  17.347 -0.0225 -0.3496 -0.0138
34950DOD     C248670  10.850  15.330  17.293 -0.1735  0.0427  0.1311
34950DOD     C348671  10.653  15.609  16.930  0.1661  0.0719  0.0702
34951DOD     C148672  16.777  20.967  27.659 -0.1144  0.1088  0.2103
34951DOD     C248673  16.828  21.438  27.822  0.1683  0.2260  0.1251
34951DOD     C348674  16.717  21.876  27.692 -0.0980  0.1697 -0.0018
34952DOD     C148675   6.080  22.934   4.891 -0.1627 -0.2062  0.1538
34952DOD     C248676   6.054  22.818   5.330 -0.0429  0.1084 -0.0522
34952DOD     C348677   5.703  22.944   5.573 -0.1201 -0.1290 -0.1665
34953DOD     C148678  16.574  11.621  17.418  0.2765 -0.0216  0.2123
34953DOD     C248679  16.693  11.503  17.817 -0.1868 -0.2136 -0.2368
34953DOD     C348680  17.157  11.507  17.982 -0.3316 -0.0204 -0.3654
34954DOD     C148681  18.978   2.481  16.084  0.0316 -0.3369 -0.1002
34954DOD     C248682  18.544   2.279  16.080 -0.0618 -0.0745  0.0540
34954DOD     C348683  18.188   2.383  16.298 -0.0724 -0.0368 -0.1054
34955DOD     C148684  19.365   4.753  23.795  0.3985  0.3919 -0.0743
34955DOD     C248685  19.738   4.984  23.901 -0.0933 -0.3225  0.2066
34955DOD     C348686  20.202   5.164  23.851  0.0138 -0.5582 -0.2219
34956DOD     C148687   7.191  16.244  14.524  0.0429 -0.1963  0.0847
34956DOD     C248688   7.197  16.611  14.287  0.2039 -0.0002 -0.0987
34956DOD     C348689   7.205  17.053  14.104 -0.2221  0.0667 -0.1830
34957DOD     C148690  21.305   2.137  28.999  0.2301  0.0250  0.1894
34957DOD     C248691  20.933   2.342  28.818 -0.0566  0.1058 -0.0314
34957DOD     C348692  20.635   2.601  28.609  0.1029 -0.2078  0.0122
34958DOD     C148693   3.353   4.290  18.789  0.0394 -0.0151 -0.1840
34958DOD     C248694   3.677   4.025  18.643 -0.0094 -0.0994  0.0923
34958DOD     C348695   3.986   3.825  18.307 -0.0330  0.1929  0.0137
34959DOD     C148696  22.148  21.219   0.829  0.0637 -0.2560 -0.0466
34959DOD     C248697  21.921  20.965   1.069  0.1120 -0.0284 -0.1018
34959DOD     C348698  21.711  20.681   1.280  0.3845 -0.0229  0.3191
34960DOD     C148699   1.783   4.257  20.674  0.0168  0.1777 -0.2510
34960DOD     C248700   1.442   4.428  20.430  0.0038 -0.0458 -0.1279
34960DOD     C348701   1.218   4.787  20.236  0.1495  0.1278  0.0675
34961DOD     C148702   3.565  27.112  18.452 -0.3418  0.2580 -0.0131
34961DOD     C248703   3.422  27.451  18.192  0.1256  0.3238 -0.0217
34961DOD     C348704   3.448  27.952  18.150 -0.0027  0.3346  0.0392
34962DOD     C148705   2.581  21.732  24.652 -0.1054 -0.2167  0.0486
34962DOD     C248706   2.390  21.710  25.125 -0.2248 -0.2641  0.2363
34962DOD     C348707   2.144  21.910  25.436 -0.3433  0.1818  0.0349
34963DOD     C148708   6.897   7.758  21.856  0.1961 -0.0712  0.0040
34963DOD     C248709   6.760   7.559  21.498  0.0839 -0.1281 -0.0860
34963DOD     C348710   6.934   7.213  21.290 -0.0575  0.2148 -0.0519
34964DOD     C148711  21.747   9.119  10.989 -0.2256 -0.0849  0.2046
34964DOD     C248712  21.674   9.494  10.689 -0.0753 -0.1309  0.3354
34964DOD     C348713  21.459   9.903  10.610 -0.1482  0.1041  0.0842
34965DOD     C148714  14.452   2.655   4.629  0.1385  0.0680  0.0868
34965DOD     C248715  14.711   2.903   4.934 -0.1138 -0.3092 -0.0183
34965DOD     C348716  14.512   3.335   5.044 -0.2843 -0.0998  0.0771
34966DOD     C148717  25.755   9.926  15.969 -0.1409  0.0412 -0.1303
34966DOD     C248718  25.915  10.011  15.501  0.2406  0.1127  0.2596
34966DOD     C348719  25.943   9.948  15.053 -0.5013  0.0056 -0.1547
34967DOD     C148720   7.214  14.885  29.176  0.0050  0.0553  0.4165
34967DOD     C248721   6.919  15.152  29.355 -0.1166 -0.2717 -0.1729
34967DOD     C348722   6.469  15.340  29.237 -0.2011  0.0749  0.2818
34968DOD     C148723  24.036  22.665  12.368 -0.0084 -0.2366  0.1959
34968DOD     C248724  24.047  22.665  11.919  0.0471 -0.1746  0.2903
34968DOD     C348725  23.814  23.024  11.706  0.1693 -0.0498 -0.2293
34969DOD     C148726  30.233  25.129  25.931  0.0704 -0.0582  0.0677
34969DOD     C248727  30.280  25.089  25.470 -0.2021  0.1819 -0.5983
34969DOD     C348728   0.298  24.911  25.172 -0.1241  0.1673 -0.2344
34970DOD     C148729  18.711  21.383  25.351  0.2124  0.1692 -0.3347
34970DOD     C248730  18.991  21.652  25.649 -0.2295 -0.2398  0.0909
34970DOD     C348731  19.360  21.782  25.898  0.1905 -0.1641 -0.0293
34971DOD     C148732   1.416   6.098   3.431 -0.1456 -0.1564  0.0520
34971DOD     C248733   1.796   5.844   3.311  0.0309  0.3147 -0.0243
34971DOD     C348734   2.003   5.613   2.905 -0.1094 -0.0984 -0.2334
34972DOD     C148735  15.418  12.318   3.762  0.3679  0.0371 -0.1193
34972DOD     C248736  15.070  12.037   3.896 -0.1162 -0.2274 -0.0997
34972DOD     C348737  14.731  11.769   3.732 -0.1548 -0.2652 -0.1784
34973DOD     C148738   7.236  30.266  11.587 -0.1424  0.0645 -0.1194
34973DOD     C248739   6.931   0.079  11.886 -0.2576 -0.0582  0.1655
34973DOD     C348740   6.508   0.201  11.972 -0.0899 -0.0716  0.2722
34974DOD     C148741  22.154  12.016  20.543  0.1075  0.1404  0.1483
34974DOD     C248742  21.833  12.372  20.433  0.2215 -0.2174  0.1750
34974DOD     C348743  21.348  12.344  20.289 -0.4503  0.0435  0.1331
34975DOD     C148744   2.778  28.571  20.257 -0.1097  0.2239  0.1065
34975DOD     C248745   2.536  28.717  19.908  0.1363  0.0854  0.3462
34975DOD     C348746   2.180  28.972  19.718  0.4734 -0.0905 -0.1562
34976DOD     C148747  19.982  13.684  21.223  0.0341 -0.0512 -0.0476
34976DOD     C248748  19.764  13.330  21.078  0.3419  0.1154 -0.3139
34976DOD     C348749  19.883  12.933  20.867  0.3254 -0.1082 -0.0967
34977DOD     C148750  23.647   4.690  10.854  0.1522  0.0882  0.1507
34977DOD     C248751  23.552   4.562  10.412 -0.2082  0.0911 -0.2248
34977DOD     C348752  23.647   4.290  10.073 -0.1992  0.3485  0.1578
34978DOD     C148753   8.260   8.231  19.466 -0.1850 -0.0741  0.0340
34978DOD     C248754   7.786   8.086  19.485 -0.2088 -0.1289  0.0611
34978DOD     C348755   7.481   8.270  19.179  0.2192  0.0559  0.2463
34979DOD     C148756  11.635  14.754  17.650 -0.0017  0.1790  0.0792
34979DOD     C248757  11.887  14.441  17.988 -0.0807  0.0999 -0.2250
34979DOD     C348758  12.154  14.067  18.092 -0.0171  0.0576  0.2470
34980DOD     C148759   1.465  26.977  24.406  0.0849 -0.0903 -0.1533
34980DOD     C248760   1.294  26.521  24.447  0.0718 -0.1916 -0.1600
34980DOD     C348761   1.311  26.140  24.770  0.1468 -0.4008 -0.0548
34981DOD     C148762  16.141  20.349  27.043  0.0792  0.1174 -0.1503
34981DOD     C248763  15.800  20.170  26.786 -0.3861 -0.2461  0.2289
34981DOD     C348764  15.629  20.011  26.347 -0.0658  0.2501 -0.1206
34982DOD     C148765  27.505   8.809  17.306  0.2752  0.1978 -0.2430
34982DOD     C248766  27.174   8.511  17.371 -0.1398 -0.2948 -0.1092
34982DOD     C348767  26.822   8.256  17.249 -0.0020  0.0280 -0.0529
34983DOD     C148768   3.867  11.511  30.218 -0.0974  0.0795  0.3344
34983DOD     C248769   3.429  11.473   0.143  0.1798  0.0176  0.0201
34983DOD     C348770   3.054  11.543   0.423 -0.0018  0.1102  0.1061
34984DOD     C148771   9.049  26.301  25.950 -0.1649 -0.2650  0.0805
34984DOD     C248772   9.339  26.116  26.255 -0.2417 -0.0097 -0.1630
34984DOD     C348773   9.459  25.951  26.691  0.3503 -0.2760  0.1054
34985DOD     C148774  20.558   0.137  11.989 -0.1210 -0.1210  0.3643
34985DOD     C248775  20.735   0.188  12.378 -0.4310 -0.1386  0.0614
34985DOD     C348776  20.356   0.147  12.641 -0.0972 -0.1518  0.0642
34986DOD     C148777  17.567  10.263  27.186 -0.0280 -0.1206  0.2001
34986DOD     C248778  17.297   9.911  27.201 -0.2851  0.1609 -0.1763
34986DOD     C348779  17.109   9.569  27.026 -0.2479  0.1080 -0.1654
34987DOD     C148780   6.728   4.240  30.048 -0.0141 -0.2580  0.1101
34987DOD     C248781   6.810   4.005   0.214 -0.0319  0.0916  0.3033
34987DOD     C348782   6.479   4.050   0.551 -0.1198 -0.1754  0.1357
34988DOD     C148783  13.685  20.433  20.675  0.1264  0.0926 -0.4433
34988DOD     C248784  13.730  20.689  20.261  0.1752  0.0874  0.2780
34988DOD     C348785  13.728  20.944  19.879 -0.0908  0.0422 -0.0349
34989DOD     C148786  10.168  23.139   6.657  0.0774 -0.0160  0.0892
34989DOD     C248787   9.716  23.245   6.526  0.0947 -0.0664  0.0464
34989DOD     C348788   9.636  23.203   6.014 -0.1593  0.0915  0.0329
34990DOD     C148789  20.152  24.296  10.782 -0.0445 -0.0339 -0.0667
34990DOD     C248790  20.177  24.499  10.325  0.1228  0.1743 -0.1364
34990DOD     C348791  20.359  24.562   9.939  0.2339 -0.1131  0.2490
34991DOD     C148792   0.042  12.624  13.218  0.0520  0.1561  0.2759
34991DOD     C248793   0.490  12.711  13.307  0.0652  0.2286 -0.0728
34991DOD     C348794   0.891  12.893  13.131  0.0722 -0.1303  0.3249
34992DOD     C148795  19.023   4.827  12.695 -0.1211  0.2829 -0.0601
34992DOD     C248796  19.330   4.605  12.446  0.3122  0.1206 -0.0726
34992DOD     C348797  19.643   4.752  12.153 -0.1177  0.2528 -0.3546
34993DOD     C148798  24.272  17.026   2.125  0.0244 -0.2951 -0.1466
34993DOD     C248799  24.421  16.924   1.707  0.2160  0.0058 -0.1429
34993DOD     C348800  24.756  16.937   1.351  0.3767  0.0353  0.2752
34994DOD     C148801  14.343   0.163  14.140 -0.1567 -0.3295  0.1223
34994DOD     C248802  14.379   0.341  14.555 -0.1034  0.2140 -0.1169
34994DOD     C348803  14.663   0.651  14.695  0.1697 -0.0989  0.1534
34995DOD     C148804  28.477   8.454  23.209 -0.2718 -0.1411  0.0404
34995DOD     C248805  28.527   8.590  23.607  0.0631  0.2026  0.1239
34995DOD     C348806  28.378   8.792  24.032 -0.1028  0.0296 -0.2913
34996DOD     C148807  30.031  18.578  26.050  0.0881  0.2784 -0.1596
34996DOD     C248808  29.780  18.185  26.068  0.3434 -0.3136  0.1411
34996DOD     C348809  29.893  17.781  25.815  0.0224 -0.2018  0.0734
34997DOD     C148810  24.658   3.434  19.079 -0.0782  0.2213 -0.2527
34997DOD     C248811  24.551   3.642  19.467 -0.0471  0.1312  0.1886
34997DOD     C348812  24.120   3.800  19.609 -0.4233 -0.0964 -0.0674
34998DOD     C148813   4.536  21.714  15.059  0.2096 -0.0069 -0.0328
34998DOD     C248814   4.568  21.964  15.444 -0.2773 -0.0822 -0.1812
34998DOD     C348815   4.855  21.997  15.821 -0.2765  0.1354 -0.3020
34999DOD     C148816   3.166  13.737   4.467 -0.0246  0.0836  0.0026
34999DOD     C248817   3.428  13.536   4.804 -0.1800  0.0218  0.1080
34999DOD     C348818   3.702  13.223   4.978 -0.2366  0.1809 -0.1826
35000DOD     C148819   7.782  23.073   4.875  0.0525 -0.0737  0.0727
35000DOD     C248820   7.346  23.164   5.016  0.3474 -0.4362 -0.3161
35000DOD     C348821   6.931  23.232   5.291  0.0735  0.2055  0.0776
35001DOD     C148822   5.980   6.258   4.516  0.0143 -0.0035  0.1391
35001DOD     C248823   5.785   5.815   4.662  0.3989 -0.3782  0.2614
35001DOD     C348824   5.466   5.525   4.508  0.0129 -0.0058  0.1814
35002DOD     C148825  23.083  18.673  12.003  0.2393  0.2992 -0.1706
35002DOD     C248826  23.217  18.547  12.457 -0.1673 -0.0608  0.2249
35002DOD     C348827  23.564  18.722  12.783  0.0060  0.0337 -0.3712
35003DOD     C148828  23.389  11.113  20.223  0.1274  0.1508 -0.1309
35003DOD     C248829  23.530  11.348  19.902 -0.0056 -0.0793  0.0942
35003DOD     C348830  23.390  11.751  19.839 -0.1406  0.1438 -0.0445
35004DOD     C148831   9.527   9.214  24.641  0.0581 -0.0535 -0.3368
35004DOD     C248832   9.340   9.604  24.481 -0.2349 -0.1394 -0.1050
35004DOD     C348833   9.046   9.660  24.125  0.0679 -0.1495  0.0587
35005DOD     C148834  17.238  22.811  22.045 -0.2984  0.0402 -0.0099
35005DOD     C248835  17.030  23.174  22.129  0.2237 -0.0718 -0.0122
35005DOD     C348836  16.732  23.332  21.817 -0.0682  0.0334 -0.1745
35006DOD     C148837   1.550  13.840  22.485  0.1786  0.3044 -0.0335
35006DOD     C248838   1.826  13.796  22.880 -0.4513  0.2981 -0.1760
35006DOD     C348839   2.102  13.430  22.916  0.0523 -0.1218 -0.3845
35007DOD     C148840  29.306  25.080  25.631 -0.3512 -0.1404 -0.0799
35007DOD     C248841  29.292  25.575  25.696  0.1314  0.1134 -0.0204
35007DOD     C348842  29.146  25.987  25.637 -0.0560 -0.1549  0.1415
35008DOD     C148843  17.471  13.895  12.452  0.3525  0.0645  0.4292
35008DOD     C248844  17.027  14.032  12.409 -0.4345  0.0086 -0.2266
35008DOD     C348845  16.600  14.093  12.296  0.2242  0.0819  0.1328
35009DOD     C148846  10.132   5.787  28.126 -0.2295  0.2884 -0.1349
35009DOD     C248847  10.242   5.679  27.666 -0.0168  0.2095  0.1077
35009DOD     C348848  10.056   5.553  27.306 -0.0192 -0.1933 -0.0663
35010DOD     C148849   9.048  20.072  10.577  0.1569  0.2646 -0.2192
35010DOD     C248850   9.416  19.955  10.915  0.2020  0.0924 -0.0732
35010DOD     C348851   9.355  20.081  11.379 -0.0621  0.0661 -0.2152
35011DOD     C148852  17.867  18.125   7.817  0.1077  0.1699 -0.0593
35011DOD     C248853  17.534  18.297   7.523 -0.0149 -0.1914 -0.2375
35011DOD     C348854  17.075  18.273   7.272 -0.0679 -0.0357 -0.2781
35012DOD     C148855   0.799  29.521  20.411  0.1382 -0.2184 -0.0152
35012DOD     C248856   0.431  29.257  20.389  0.2264 -0.0038  0.0041
35012DOD     C348857   0.413  28.770  20.389 -0.1307 -0.1736 -0.3161
35013DOD     C148858  25.859   4.258  29.684  0.2252  0.0980  0.0655
35013DOD     C248859  26.352   4.330  29.799  0.0191  0.3990  0.3405
35013DOD     C348860  26.811   4.275  29.819 -0.1166 -0.0401  0.3310
35014DOD     C148861   0.702  11.906  13.610 -0.0904 -0.1722  0.2641
35014DOD     C248862   0.443  12.038  13.202 -0.0884 -0.1363  0.1227
35014DOD     C348863   0.389  11.965  12.749 -0.2830  0.0596 -0.1544
35015DOD     C148864  13.015  12.496   4.944 -0.0645 -0.2285  0.0193
35015DOD     C248865  13.009  12.169   5.287  0.1026  0.0885 -0.1965
35015DOD     C348866  12.982  11.921   5.680 -0.0508  0.1722 -0.1347
35016DOD     C148867   0.573  27.986  27.391 -0.2842  0.1662 -0.0737
35016DOD     C248868   0.651  27.552  27.600 -0.0695  0.3165  0.2056
35016DOD     C348869   0.729  27.244  27.900  0.2457 -0.1398 -0.2759
35017DOD     C148870  12.397   6.568   8.370  0.1503 -0.1209  0.0643
35017DOD     C248871  12.770   6.656   8.619 -0.0476  0.0607 -0.0602
35017DOD     C348872  13.025   6.465   8.979 -0.2782 -0.1069  0.0683
35018DOD     C148873  23.318   3.328  24.916 -0.0527  0.3138  0.2722
35018DOD     C248874  23.024   2.946  25.023  0.1168 -0.0197 -0.0610
35018DOD     C348875  22.622   2.711  25.032  0.1719 -0.1514  0.1532
35019DOD     C148876  24.099  27.321  10.731  0.1578  0.2405 -0.0860
35019DOD     C248877  24.143  27.109  11.142 -0.0067 -0.1448  0.0136
35019DOD     C348878  23.812  26.800  11.247 -0.1026 -0.0009 -0.1949
35020DOD     C148879  13.768  23.865  14.051 -0.1416 -0.1191 -0.0677
35020DOD     C248880  13.600  24.056  13.707  0.0369 -0.3576  0.0765
35020DOD     C348881  13.442  24.330  13.339  0.0791 -0.3074 -0.1069
35021DOD     C148882  13.722   2.428   3.244  0.0660 -0.0713 -0.2139
35021DOD     C248883  13.297   2.635   3.382 -0.2634 -0.0228  0.0324
35021DOD     C348884  13.111   2.329   3.435  0.0325  0.0068  0.1281
35022DOD     C148885  22.940   1.431  26.432 -0.1617  0.1416  0.1204
35022DOD     C248886  22.961   1.876  26.589  0.3827  0.0235  0.1453
35022DOD     C348887  22.746   2.208  26.909  0.4591 -0.0900  0.1525
35023DOD     C148888  19.151   9.303   5.421 -0.1009 -0.0610  0.1900
35023DOD     C248889  18.934   8.914   5.247  0.0618 -0.1791  0.0079
35023DOD     C348890  18.822   8.632   5.527 -0.3805  0.2010 -0.0230
35024DOD     C148891   1.911  19.666  27.054  0.0142 -0.3490  0.0666
35024DOD     C248892   1.892  19.846  27.514  0.2572  0.0337  0.2645
35024DOD     C348893   1.920  20.117  27.854  0.2883  0.2593  0.0185
35025DOD     C148894  28.789   1.289  22.848  0.0784  0.2448  0.0369
35025DOD     C248895  29.140   1.146  22.650  0.1183  0.0271 -0.1079
35025DOD     C348896  29.507   0.957  22.511  0.1458  0.1392 -0.0939
35026DOD     C148897  28.155  18.077   8.758 -0.0265  0.1077  0.2151
35026DOD     C248898  28.017  17.796   9.080 -0.0269 -0.1999 -0.3744
35026DOD     C348899  27.665  17.518   9.118 -0.0688  0.3172  0.2254
35027DOD     C148900  29.027  10.424  22.188 -0.0392  0.0689 -0.3138
35027DOD     C248901  28.844  10.004  22.400  0.2303 -0.0204 -0.0433
35027DOD     C348902  28.473   9.926  22.648  0.0737 -0.0217 -0.1544
35028DOD     C148903   5.590   5.914  16.130 -0.1276  0.0583 -0.1624
35028DOD     C248904   5.167   6.049  16.302 -0.0756  0.1736  0.0626
35028DOD     C348905   4.929   5.952  16.597  0.1308  0.0801 -0.0720
35029DOD     C148906   5.977  19.547  16.823 -0.1693  0.2364 -0.1347
35029DOD     C248907   6.275  19.225  16.878  0.2998  0.1545  0.0981
35029DOD     C348908   6.506  19.009  17.229 -0.0123 -0.1432 -0.2453
35030DOD     C148909   6.024   3.015  19.608 -0.0756 -0.2468  0.1893
35030DOD     C248910   5.979   2.689  19.918  0.0549  0.2020  0.0366
35030DOD     C348911   6.240   2.429  20.247 -0.0700  0.1909 -0.1168
35031DOD     C148912  14.776   1.442  26.914  0.1892  0.2538  0.0028
35031DOD     C248913  14.964   1.752  27.200 -0.0752 -0.0378 -0.1103
35031DOD     C348914  14.911   2.189  27.323 -0.0584  0.2605  0.0383
35032DOD     C148915  21.931  16.765  23.179  0.2253  0.0623  0.0754
35032DOD     C248916  22.261  16.819  23.534  0.0550 -0.4201  0.2014
35032DOD     C348917  22.472  17.057  23.821  0.1334 -0.1289  0.0246
35033DOD     C148918   7.495   5.784  28.390  0.1746  0.0370 -0.1207
35033DOD     C248919   7.040   5.734  28.291  0.0695 -0.1699 -0.2345
35033DOD     C348920   6.647   5.539  28.080 -0.0523 -0.0093 -0.0269
35034DOD     C148921   1.961   2.344   7.884  0.3484 -0.1061 -0.0101
35034DOD     C248922   1.979   2.788   7.804 -0.0631 -0.0271 -0.0313
35034DOD     C348923   1.719   3.127   7.977 -0.0253 -0.2313 -0.0809
35035DOD     C148924  18.287   8.896  14.236 -0.2906 -0.0424 -0.1612
35035DOD     C248925  18.662   9.115  14.476 -0.1124 -0.2284  0.0423
35035DOD     C348926  19.101   9.193  14.700  0.0023  0.0215 -0.1548
35036DOD     C148927  20.236  25.671   1.966  0.1274 -0.0891  0.1906
35036DOD     C248928  20.185  25.706   2.430  0.0208  0.0385 -0.1187
35036DOD     C348929  19.960  25.804   2.839  0.0795  0.0304 -0.1057
35037DOD     C148930  13.758  18.613  23.038 -0.1801  0.3416  0.1995
35037DOD     C248931  13.731  18.596  23.483  0.0786 -0.2044  0.2333
35037DOD     C348932  13.927  18.864  23.802 -0.2115  0.1517  0.2288
35038DOD     C148933   1.632   9.339   6.736  0.2476  0.3169 -0.3229
35038DOD     C248934   1.208   9.575   6.765  0.2049 -0.2873 -0.1081
35038DOD     C348935   0.992   9.848   6.427 -0.1394 -0.1799  0.0362
35039DOD     C148936  14.219   6.284  27.111  0.0657 -0.0797 -0.0282
35039DOD     C248937  13.947   6.071  26.825  0.1708 -0.3707 -0.2183
35039DOD     C348938  13.730   5.783  26.497 -0.0995 -0.1230 -0.1188
35040DOD     C148939  16.529  17.159  26.079 -0.1227 -0.1402 -0.0643
35040DOD     C248940  17.034  17.040  25.985  0.1078 -0.0573 -0.2374
35040DOD     C348941  17.444  16.947  25.726 -0.2269  0.0989 -0.0243
35041DOD     C148942  18.819  19.110   1.668  0.0846  0.0396  0.0784
35041DOD     C248943  18.960  19.339   1.281 -0.2456 -0.0289 -0.0202
35041DOD     C348944  19.028  19.797   1.027  0.2126 -0.1499  0.0826
35042DOD     C148945  18.965  16.207  21.998  0.0501 -0.0799 -0.1804
35042DOD     C248946  18.838  16.144  21.574 -0.0629  0.0886 -0.1298
35042DOD     C348947  18.779  16.238  21.108  0.1205 -0.0794  0.1383
35043DOD     C148948  11.256  11.785  11.718  0.2455 -0.0758 -0.1509
35043DOD     C248949  11.189  12.244  11.733  0.0777 -0.0155  0.0460
35043DOD     C348950  11.498  12.563  11.875 -0.0153  0.0196  0.1093
35044DOD     C148951  26.598  20.053   2.394 -0.3942  0.1726  0.1204
35044DOD     C248952  26.625  20.096   2.811  0.2725  0.1582 -0.2173
35044DOD     C348953  26.834  20.214   3.209 -0.1390  0.2480  0.0913
35045DOD     C148954  17.666   7.477  19.740 -0.1360 -0.2767  0.4629
35045DOD     C248955  17.426   7.087  19.842  0.1783  0.2796  0.0833
35045DOD     C348956  17.119   6.646  19.877  0.1808 -0.1295 -0.1434
35046DOD     C148957  21.906  17.129  20.092  0.0594  0.0380  0.0716
35046DOD     C248958  21.628  17.010  19.770 -0.2224 -0.0070  0.1617
35046DOD     C348959  21.440  17.363  19.481  0.0543  0.2849 -0.3188
35047DOD     C148960   8.379  27.949   0.575 -0.0111 -0.2254 -0.0649
35047DOD     C248961   8.314  27.820   1.014 -0.3117 -0.1943  0.1487
35047DOD     C348962   8.617  27.828   1.378  0.1310 -0.2627 -0.1907
35048DOD     C148963   4.020  27.800  26.800 -0.2540  0.2317  0.1804
35048DOD     C248964   4.377  27.818  26.476 -0.1131 -0.1509  0.0385
35048DOD     C348965   4.772  27.716  26.323  0.2265  0.0386  0.1975
35049DOD     C148966  16.659   8.062  19.979 -0.3516 -0.0891  0.1796
35049DOD     C248967  16.932   7.703  19.925 -0.2192 -0.1838  0.2345
35049DOD     C348968  16.969   7.293  19.677 -0.1660  0.0839  0.1524
35050DOD     C148969  17.656  29.823  19.619 -0.1974 -0.3418  0.1232
35050DOD     C248970  17.409  30.145  19.475 -0.3421  0.2888  0.0260
35050DOD     C348971  17.135   0.095  19.208 -0.0362  0.3393 -0.0825
35051DOD     C148972   4.394   5.755  23.401 -0.1696  0.3278  0.0341
35051DOD     C248973   4.715   5.623  23.125 -0.1264  0.1895 -0.2113
35051DOD     C348974   4.782   5.496  22.673  0.0997  0.1041  0.0437
35052DOD     C148975  27.815   4.845   0.573 -0.1066 -0.1316 -0.0314
35052DOD     C248976  27.625   4.714   0.985  0.4102 -0.1766 -0.1081
35052DOD     C348977  27.398   4.543   1.300  0.0073 -0.2432 -0.4025
35053DOD     C148978   4.021   9.588  30.206  0.0904 -0.0681  0.4603
35053DOD     C248979   4.319   9.561  29.881  0.2267  0.2633 -0.1931
35053DOD     C348980   4.281   9.160  29.609  0.0140  0.0790  0.0516
35054DOD     C148981   8.819  30.080   3.483 -0.2857  0.3935 -0.3010
35054DOD     C248982   8.589   0.101   3.323 -0.0122 -0.1077  0.2644
35054DOD     C348983   8.506   0.481   3.163 -0.0613 -0.0788  0.2886
35055DOD     C148984  23.239   4.826   4.127  0.0813  0.2788 -0.1308
35055DOD     C248985  22.750   4.887   4.124 -0.1509 -0.1156  0.2016
35055DOD     C348986  22.288   4.784   4.088 -0.3084 -0.0881 -0.0855
35056DOD     C148987  18.351   6.744  14.119 -0.0228  0.0254 -0.0063
35056DOD     C248988  18.783   6.573  13.913 -0.2029  0.2758  0.0261
35056DOD     C348989  19.138   6.679  13.592  0.3813 -0.1690  0.0891
35057DOD     C148990   3.734  15.905   6.519  0.1393  0.1648 -0.0323
35057DOD     C248991   3.299  15.854   6.711  0.0427  0.1258  0.3277
35057DOD     C348992   3.092  15.382   6.768 -0.1692  0.0818 -0.0011
35058DOD     C148993   6.207  28.097  23.730  0.0788  0.1401  0.1839
35058DOD     C248994   6.649  28.164  23.537  0.0800 -0.2826  0.1482
35058DOD     C348995   6.924  28.451  23.570 -0.0660  0.0114 -0.5690
35059DOD     C148996  16.674  20.924  19.332  0.2025  0.0666  0.0483
35059DOD     C248997  16.234  21.014  19.154  0.2042 -0.2900 -0.0669
35059DOD     C348998  16.007  21.448  19.238 -0.4031 -0.2430 -0.4063
35060DOD     C148999  17.765  26.666  11.956  0.1080  0.2588 -0.0078
35060DOD     C249000  17.792  26.544  12.410 -0.1050  0.1607 -0.0320
35060DOD     C349001  17.635  26.610  12.836  0.1649  0.1178 -0.0569
35061DOD     C149002  21.606   9.229   3.142  0.0510 -0.4585 -0.1677
35061DOD     C249003  22.021   9.039   3.220 -0.0061  0.2030 -0.1807
35061DOD     C349004  22.416   8.820   3.016  0.1970 -0.0143 -0.2211
35062DOD     C149005   2.292  26.204  16.227 -0.3335 -0.2636  0.1079
35062DOD     C249006   1.968  26.261  16.589 -0.0531  0.1960  0.3526
35062DOD     C349007   1.781  26.451  17.013  0.1103  0.3449 -0.2745
35063DOD     C149008   8.435   0.569  26.394  0.1552 -0.1535 -0.0773
35063DOD     C249009   8.150   0.772  26.045 -0.0303 -0.1608  0.3191
35063DOD     C349010   8.018   0.939  25.591  0.0115  0.0868 -0.1090
35064DOD     C149011   2.079  28.336  11.404 -0.2458 -0.1722 -0.1060
35064DOD     C249012   2.388  28.290  11.777  0.2037 -0.1085  0.0643
35064DOD     C349013   2.876  28.190  11.902 -0.1021  0.2499 -0.0515
35065DOD     C149014  17.006   9.126  11.038  0.0607 -0.1338  0.1022
35065DOD     C249015  16.911   9.356  10.645 -0.0693  0.2772 -0.0179
35065DOD     C349016  16.640   9.510  10.299 -0.5498 -0.3210  0.0587
35066DOD     C149017  28.215  14.255  14.619 -0.0452  0.2109 -0.2077
35066DOD     C249018  28.504  14.399  14.969 -0.2209 -0.0477  0.1053
35066DOD     C349019  28.812  14.412  15.295  0.0555  0.0625  0.0359
35067DOD     C149020   8.759  22.193  26.777 -0.0768 -0.1237  0.2102
35067DOD     C249021   8.993  21.801  26.729 -0.2687 -0.1402  0.0797
35067DOD     C349022   9.144  21.334  26.660  0.0242 -0.4928 -0.4802
35068DOD     C149023  16.711  22.762   0.243  0.0592  0.1324 -0.5524
35068DOD     C249024  16.246  22.683   0.388 -0.1661 -0.1315 -0.0130
35068DOD     C349025  15.918  22.560   0.664  0.2005 -0.1567 -0.0525
35069DOD     C149026  10.430  25.723   9.436 -0.1094 -0.2897  0.2138
35069DOD     C249027  10.906  25.677   9.389 -0.0188  0.0559  0.4283
35069DOD     C349028  11.378  25.771   9.483 -0.1148  0.0635  0.1729
35070DOD     C149029   7.801   4.390   4.832 -0.1589  0.0213  0.1068
35070DOD     C249030   7.936   3.952   4.790  0.0107  0.1606 -0.2602
35070DOD     C349031   8.103   3.481   4.690  0.0487  0.1117 -0.1111
35071DOD     C149032   0.944  27.800   7.406  0.2861  0.2308  0.3024
35071DOD     C249033   0.519  27.526   7.357 -0.0716 -0.0240 -0.2963
35071DOD     C349034   0.199  27.432   7.088 -0.0935 -0.0581  0.2246
35072DOD     C149035  28.956  21.516   4.930  0.1311  0.1375  0.0761
35072DOD     C249036  28.545  21.596   5.175  0.2191  0.1072 -0.0074
35072DOD     C349037  28.315  21.797   5.550  0.2220  0.0522 -0.2123
35073DOD     C149038  24.741  25.192  26.252  0.0594  0.0646 -0.1195
35073DOD     C249039  24.550  24.796  26.472  0.0871 -0.0078 -0.2186
35073DOD     C349040  24.475  24.446  26.800  0.0576 -0.1469  0.2109
35074DOD     C149041  25.898   4.992  27.465 -0.0773  0.0895  0.3793
35074DOD     C249042  25.695   5.060  27.887 -0.2237 -0.0686  0.1832
35074DOD     C349043  25.826   5.412  28.124 -0.1571 -0.2259 -0.1170
35075DOD     C149044  17.816  13.990   1.057  0.0345 -0.0058  0.0110
35075DOD     C249045  17.635  13.554   1.188  0.0603 -0.3338 -0.3161
35075DOD     C349046  17.213  13.386   1.285  0.2333  0.1359  0.1278
35076DOD     C149047   4.919   8.455   9.387  0.0404 -0.1130  0.1647
35076DOD     C249048   5.231   8.720   9.313  0.0070  0.0404  0.0342
35076DOD     C349049   5.672   8.934   9.267 -0.1551  0.1643  0.1409
35077DOD     C149050  11.610  15.468  15.755  0.2111  0.0292 -0.2948
35077DOD     C249051  11.275  15.354  15.446 -0.0076  0.1421 -0.1836
35077DOD     C349052  11.053  15.229  15.099 -0.1458 -0.0872 -0.0640
35078DOD     C149053  11.363  11.256   5.759  0.3253  0.0068  0.0046
35078DOD     C249054  11.472  11.284   6.260 -0.1065 -0.0540 -0.0499
35078DOD     C349055  11.629  11.324   6.722  0.0711  0.1928 -0.1495
35079DOD     C149056   3.285  30.268  15.489  0.3027 -0.2412  0.0546
35079DOD     C249057   3.162  30.139  15.990 -0.3075 -0.2223 -0.1864
35079DOD     C349058   2.823  30.205  16.332 -0.1314 -0.0890  0.1548
35080DOD     C149059   7.232   4.936  25.735 -0.0665 -0.1041  0.2295
35080DOD     C249060   7.453   4.613  25.875  0.0736  0.0150 -0.0134
35080DOD     C349061   7.819   4.476  26.137  0.0360  0.4458 -0.2406
35081DOD     C149062  19.748  24.109  11.261  0.2131  0.4183  0.0912
35081DOD     C249063  19.353  23.819  11.324  0.2353 -0.2362  0.0541
35081DOD     C349064  18.917  23.891  11.089  0.2467 -0.1514 -0.0562
35082DOD     C149065  18.642  11.175  25.847  0.0009 -0.0056  0.1022
35082DOD     C249066  18.804  10.701  25.781 -0.3659 -0.0677  0.0895
35082DOD     C349067  19.010  10.341  25.979 -0.0990  0.0709 -0.1887
35083DOD     C149068  15.092  25.033   2.343 -0.1029 -0.0356  0.1800
35083DOD     C249069  14.720  25.236   2.248 -0.0516 -0.0183  0.0336
35083DOD     C349070  14.615  25.424   1.807  0.0887  0.1647 -0.0020
35084DOD     C149071  11.122  21.201  16.346  0.0224 -0.1503  0.1017
35084DOD     C249072  11.264  21.597  16.124  0.2625 -0.2735 -0.1079
35084DOD     C349073  11.657  21.820  16.035 -0.1092 -0.1663 -0.3064
35085DOD     C149074  27.317   9.213  19.471  0.2346  0.1945 -0.0279
35085DOD     C249075  27.259   9.041  19.941 -0.3491  0.2421  0.0140
35085DOD     C349076  26.977   8.885  20.233  0.0821 -0.1625 -0.2196
35086DOD     C149077  15.510  16.972   8.714  0.1348  0.3368  0.2599
35086DOD     C249078  15.484  16.697   8.377  0.1261 -0.0014 -0.1319
35086DOD     C349079  15.391  16.237   8.342 -0.2225 -0.1187  0.0250
35087DOD     C149080   7.457  16.267   9.797 -0.2063 -0.0905  0.1138
35087DOD     C249081   7.524  15.915   9.523  0.0864  0.1418 -0.2269
35087DOD     C349082   7.748  15.486   9.451  0.0880 -0.4810  0.1226
35088DOD     C149083  20.394   4.404   2.237 -0.2864 -0.0797  0.1677
35088DOD     C249084  19.907   4.450   2.284 -0.0292 -0.1807 -0.0730
35088DOD     C349085  19.426   4.442   2.298  0.0269  0.0352  0.1041
35089DOD     C149086   9.561   5.961   9.382 -0.0850 -0.1098  0.0139
35089DOD     C249087   9.889   6.348   9.500  0.2403 -0.1354 -0.0863
35089DOD     C349088   9.911   6.783   9.459  0.0030 -0.1987 -0.0458
35090DOD     C149089  14.475  10.564  25.547  0.0702  0.5562  0.1070
35090DOD     C249090  14.051  10.634  25.363  0.1626 -0.3231  0.2189
35090DOD     C349091  13.698  10.472  25.125  0.0651  0.2765 -0.0931
35091DOD     C149092   1.459  16.393  18.792 -0.1421 -0.3572  0.1932
35091DOD     C249093   1.018  16.415  18.698 -0.0109 -0.0333  0.3758
35091DOD     C349094   0.666  16.247  18.978 -0.0516  0.2529 -0.0082
35092DOD     C149095   2.056  10.392  28.714  0.0225 -0.1105  0.1964
35092DOD     C249096   1.944  10.150  28.335  0.2438  0.0554  0.2567
35092DOD     C349097   1.835   9.824  28.007  0.1137  0.0145 -0.2620
35093DOD     C149098  19.185  16.171   2.880 -0.2105  0.3228 -0.0708
35093DOD     C249099  19.325  16.372   2.486  0.2780 -0.0502  0.0113
35093DOD     C349100  19.422  16.524   2.060 -0.2975 -0.2579 -0.0598
35094DOD     C149101  16.482  11.521  14.360  0.2037  0.2412 -0.2267
35094DOD     C249102  16.296  11.139  14.548 -0.1405  0.0640 -0.1567
35094DOD     C349103  16.322  10.709  14.632 -0.1651 -0.1614  0.3530
35095DOD     C149104   1.757   7.167   3.591  0.1741  0.2325 -0.0962
35095DOD     C249105   1.765   7.502   3.935 -0.0432 -0.0019  0.0830
35095DOD     C349106   2.176   7.742   4.096 -0.1173  0.0092  0.1184
35096DOD     C149107   5.640  29.166  22.843  0.0320 -0.0517  0.0836
35096DOD     C249108   6.110  29.187  22.969  0.1250 -0.1356 -0.2388
35096DOD     C349109   6.561  29.248  23.042  0.1206  0.3822  0.0091
35097DOD     C149110  23.428  21.824  23.361  0.1012 -0.1934  0.5266
35097DOD     C249111  23.642  21.563  23.665 -0.1066 -0.1208 -0.0408
35097DOD     C349112  23.731  21.407  24.104  0.2092 -0.1562  0.2205
35098DOD     C149113  28.571   3.311  15.888 -0.0769  0.1229 -0.3805
35098DOD     C249114  28.216   3.310  16.180 -0.1491  0.0958  0.1541
35098DOD     C349115  27.731   3.172  16.169  0.1308 -0.1466  0.3619
35099DOD     C149116   4.667   1.793  23.120  0.0092 -0.2112  0.0822
35099DOD     C249117   5.090   2.034  23.128 -0.1297 -0.0679 -0.0673
35099DOD     C349118   5.487   2.018  23.233  0.0044 -0.3295  0.0022
35100DOD     C149119  24.722  23.852   6.783 -0.1845  0.0699 -0.0079
35100DOD     C249120  25.170  24.003   6.838  0.0454 -0.0713 -0.2274
35100DOD     C349121  25.482  24.367   6.830 -0.1288 -0.0148 -0.1274
35101DOD     C149122   1.081  17.969  11.702  0.2362  0.2119 -0.1997
35101DOD     C249123   0.810  17.722  11.389  0.0746  0.1350  0.1608
35101DOD     C349124   0.474  17.423  11.334 -0.0159  0.2414 -0.0537
35102DOD     C149125  10.187  24.668  20.277  0.1616 -0.0295 -0.1370
35102DOD     C249126   9.932  24.946  20.562 -0.2027 -0.3024 -0.2041
35102DOD     C349127   9.604  24.746  20.905  0.1068  0.0321  0.0235
35103DOD     C149128  20.766  18.118  13.979  0.2107  0.1503 -0.4018
35103DOD     C249129  20.876  17.978  13.574  0.1669  0.0997  0.1248
35103DOD     C349130  21.077  17.763  13.204 -0.0850  0.1413 -0.3737
35104DOD     C149131   1.860  28.401  27.303  0.1851  0.0674 -0.0333
35104DOD     C249132   1.424  28.256  27.312  0.1414 -0.0227 -0.1059
35104DOD     C349133   1.031  28.067  27.166  0.0741 -0.0977 -0.1983
35105DOD     C149134   3.438   0.878  16.874  0.1470 -0.0835  0.0826
35105DOD     C249135   3.060   0.728  16.655 -0.0747 -0.1634  0.1308
35105DOD     C349136   2.601   0.534  16.776  0.0373 -0.0727 -0.2321
35106DOD     C149137  29.281  12.502  18.320 -0.1422 -0.0844  0.0619
35106DOD     C249138  29.243  12.122  18.077  0.4393 -0.0660  0.0675
35106DOD     C349139  29.198  11.864  17.702  0.0278 -0.0127  0.0947
35107DOD     C149140  13.678   4.289  10.725 -0.1622  0.0566 -0.0566
35107DOD     C249141  13.460   4.121  11.114  0.0009 -0.1402  0.0302
35107DOD     C349142  13.401   3.963  11.523 -0.3157 -0.0704  0.1909
35108DOD     C149143  10.975  28.632  15.398 -0.1193  0.1223 -0.0595
35108DOD     C249144  10.557  28.838  15.391 -0.1781 -0.0829  0.1161
35108DOD     C349145  10.158  28.832  15.207 -0.1708  0.1161  0.0259
35109DOD     C149146  27.194  12.361   6.618  0.0077  0.3254  0.0112
35109DOD     C249147  26.951  11.943   6.561 -0.1746  0.0834  0.0179
35109DOD     C349148  26.627  11.600   6.473 -0.4973  0.3064  0.0352
35110DOD     C149149   5.013  18.796   5.033  0.0667  0.1014 -0.3622
35110DOD     C249150   4.700  18.995   4.724  0.0668  0.0806  0.0590
35110DOD     C349151   4.639  19.284   4.345 -0.1425 -0.2490 -0.0351
35111DOD     C149152   6.191  28.448  28.362  0.1040  0.1364 -0.1748
35111DOD     C249153   6.477  28.451  28.059  0.2741  0.0311 -0.0462
35111DOD     C349154   6.888  28.570  27.817 -0.0312 -0.0547 -0.0986
35112DOD     C149155   4.025  23.590  26.890  0.0612 -0.1387 -0.0844
35112DOD     C249156   4.161  23.383  26.557 -0.0370 -0.0942  0.0531
35112DOD     C349157   4.234  23.122  26.199  0.2113  0.0575 -0.0458
35113DOD     C149158  11.920  10.575  10.528 -0.0514  0.0346 -0.1401
35113DOD     C249159  11.551  10.381  10.330 -0.1055  0.0222 -0.0713
35113DOD     C349160  11.362  10.382   9.936  0.2043  0.2619 -0.0732
35114DOD     C149161  23.507   7.559  18.289 -0.0240  0.0689  0.0589
35114DOD     C249162  23.909   7.287  18.153 -0.1310  0.0784 -0.2567
35114DOD     C349163  24.160   6.993  18.350  0.2796 -0.2439 -0.2666
35115DOD     C149164  14.662  26.208  13.017  0.0324 -0.3887 -0.0900
35115DOD     C249165  14.457  25.980  12.632 -0.1916 -0.0183  0.1072
35115DOD     C349166  14.351  25.788  12.189 -0.1246  0.1339 -0.3840
35116DOD     C149167  19.660   7.477   4.234  0.1433 -0.1832 -0.1243
35116DOD     C249168  19.508   7.786   4.606  0.1555  0.0345 -0.4184
35116DOD     C349169  19.360   8.215   4.707  0.2453  0.0284 -0.0489
35117DOD     C149170  28.731  13.212   4.258 -0.0267 -0.0015 -0.1975
35117DOD     C249171  28.385  12.940   4.475 -0.0866  0.0350  0.0273
35117DOD     C349172  28.034  12.633   4.509  0.0692 -0.3094 -0.2104
35118DOD     C149173  19.320   9.055  24.323  0.4318 -0.1278  0.2930
35118DOD     C249174  19.686   9.207  24.071 -0.0680  0.1361  0.0993
35118DOD     C349175  19.991   9.069  23.797  0.2462  0.3490  0.1373
35119DOD     C149176  12.206   5.895  15.237 -0.0538  0.0339 -0.1045
35119DOD     C249177  12.641   6.066  15.138 -0.0396  0.0731 -0.1081
35119DOD     C349178  12.785   6.506  15.022 -0.1851 -0.1642  0.0898
35120DOD     C149179   9.077   4.144   3.509 -0.0369  0.1392 -0.1999
35120DOD     C249180   9.439   3.887   3.601  0.0609 -0.2129 -0.2584
35120DOD     C349181   9.889   3.763   3.703 -0.0162 -0.1797 -0.1604
35121DOD     C149182  16.894  23.065  10.668 -0.2271  0.0018 -0.1143
35121DOD     C249183  17.008  22.817  11.033  0.3516  0.0606  0.0395
35121DOD     C349184  17.168  22.422  11.223  0.1202  0.3054 -0.2340
35122DOD     C149185   2.856   5.041  28.309 -0.0284 -0.0468  0.0803
35122DOD     C249186   2.846   4.662  28.541  0.3284  0.2255  0.0599
35122DOD     C349187   2.824   4.211  28.712 -0.1124 -0.0044 -0.0746
35123DOD     C149188  27.607   7.506   2.998  0.2137 -0.2018 -0.1174
35123DOD     C249189  27.471   7.578   2.573 -0.3753  0.0956 -0.1677
35123DOD     C349190  27.354   7.816   2.203  0.1502  0.0878 -0.2033
35124DOD     C149191  11.944   1.437   8.937 -0.0401 -0.1364 -0.0888
35124DOD     C249192  11.606   1.484   8.660  0.1028  0.4604  0.1834
35124DOD     C349193  11.454   1.302   8.261 -0.2068 -0.2010 -0.3004
35125DOD     C149194   3.927  17.629  14.482 -0.2791 -0.3648 -0.0247
35125DOD     C249195   4.393  17.482  14.393 -0.1502  0.0672  0.0335
35125DOD     C349196   4.764  17.703  14.183 -0.0980 -0.0544  0.1127
35126DOD     C149197  30.164  29.199   7.269 -0.0970 -0.1133  0.2774
35126DOD     C249198   0.192  28.887   7.216 -0.1062 -0.0264  0.0078
35126DOD     C349199   0.190  28.475   6.890  0.0755  0.0040  0.2439
35127DOD     C149200  24.437  25.414  16.722  0.1091  0.1248  0.2829
35127DOD     C249201  24.624  25.395  16.295 -0.1520 -0.0495  0.2096
35127DOD     C349202  24.956  25.460  15.950 -0.0262  0.3138 -0.4308
35128DOD     C149203  18.224  15.552  27.979  0.2742 -0.0102 -0.1216
35128DOD     C249204  17.759  15.498  28.120 -0.1165 -0.1744  0.1247
35128DOD     C349205  17.284  15.546  28.070  0.1314  0.0513 -0.1164
35129DOD     C149206   2.343  11.033  21.966 -0.1284  0.1885  0.1805
35129DOD     C249207   2.285  10.605  21.883  0.0131 -0.0968 -0.0154
35129DOD     C349208   2.038  10.590  21.456  0.1252  0.1800  0.2601
35130DOD     C149209  27.286   9.921   7.270 -0.3305 -0.0294 -0.2185
35130DOD     C249210  26.940  10.150   6.980 -0.3453 -0.3078  0.1861
35130DOD     C349211  26.537  10.181   6.794 -0.2529 -0.1164  0.0432
35131DOD     C149212  12.282  15.454   5.925  0.0298  0.0303 -0.1815
35131DOD     C249213  11.951  15.176   5.766  0.3462 -0.2371  0.0801
35131DOD     C349214  11.768  14.943   5.451 -0.0761  0.0696 -0.0954
35132DOD     C149215  23.373  16.332   5.594  0.4194 -0.4282  0.1111
35132DOD     C249216  23.252  16.137   5.200  0.1105  0.1153 -0.0689
35132DOD     C349217  23.396  16.215   4.742  0.1448  0.0526 -0.0130
35133DOD     C149218   8.038  18.120  18.486 -0.0599  0.0726  0.0174
35133DOD     C249219   8.256  17.688  18.536 -0.1488 -0.0858 -0.1954
35133DOD     C349220   8.639  17.545  18.747 -0.3594 -0.3651 -0.0003
35134DOD     C149221  23.305  25.964  10.219 -0.5978 -0.3362  0.1792
35134DOD     C249222  23.729  26.109  10.389  0.0747 -0.1369 -0.1677
35134DOD     C349223  23.979  26.288  10.742  0.0486  0.2307 -0.0803
35135DOD     C149224  24.363  11.525  12.557  0.2862  0.0512  0.1206
35135DOD     C249225  24.638  11.244  12.455 -0.2472 -0.0116  0.2421
35135DOD     C349226  24.790  10.846  12.482 -0.1923 -0.1267 -0.1439
35136DOD     C149227  24.626   9.745  20.316  0.2905 -0.4538  0.1302
35136DOD     C249228  24.275   9.858  20.602 -0.1399 -0.0875 -0.3763
35136DOD     C349229  23.964  10.227  20.659  0.0838 -0.0200  0.0920
35137DOD     C149230   0.835   4.682  25.565 -0.0675 -0.0234  0.1874
35137DOD     C249231   1.263   4.831  25.507 -0.0242  0.2461  0.1957
35137DOD     C349232   1.701   4.681  25.620  0.1118 -0.6028  0.4317
35138DOD     C149233  22.068  23.416  18.234  0.1184  0.1721  0.0732
35138DOD     C249234  22.279  23.092  17.922 -0.1419  0.3464 -0.1378
35138DOD     C349235  22.728  22.880  17.835  0.1787 -0.0782  0.0644
35139DOD     C149236   3.316  11.130  22.923 -0.3759 -0.3663 -0.1818
35139DOD     C249237   3.594  11.085  22.531 -0.0948  0.0260  0.2434
35139DOD     C349238   3.663  11.144  22.069  0.1142 -0.3872 -0.0211
35140DOD     C149239  16.631   6.250  16.435 -0.1136  0.0268 -0.3453
35140DOD     C249240  17.009   5.958  16.350  0.1696 -0.1342 -0.1000
35140DOD     C349241  17.335   5.572  16.337  0.1755 -0.1466  0.0046
35141DOD     C149242  16.879   0.832   7.350 -0.1562 -0.2287 -0.2769
35141DOD     C249243  17.225   0.628   7.244  0.1076  0.2163 -0.1840
35141DOD     C349244  17.311   0.279   6.985  0.1410  0.2682 -0.0615
35142DOD     C149245  27.854  13.300   7.027  0.0243  0.0996 -0.0808
35142DOD     C249246  28.030  12.866   7.009 -0.1578  0.1345  0.1390
35142DOD     C349247  28.466  12.710   6.945 -0.1665  0.0396  0.1755
35143DOD     C149248  18.711   0.076  27.751 -0.4772 -0.1188  0.1295
35143DOD     C249249  18.288  30.198  27.911 -0.0015 -0.2160  0.0815
35143DOD     C349250  18.102  29.794  27.734 -0.2854  0.1318 -0.0789
35144DOD     C149251   8.516  27.346   1.061 -0.0425 -0.0496  0.1297
35144DOD     C249252   8.401  27.001   1.347  0.1891 -0.2901 -0.1990
35144DOD     C349253   8.136  26.733   1.636 -0.1592 -0.0654  0.1429
35145DOD     C149254   0.280  11.886  28.049 -0.1398 -0.1033  0.2217
35145DOD     C249255   0.110  11.675  28.411  0.1109 -0.0518  0.0076
35145DOD     C349256  29.975  11.628  28.498  0.0988 -0.4137 -0.0590
35146DOD     C149257  10.571  21.306   8.003  0.2550 -0.0728  0.0608
35146DOD     C249258  10.310  21.451   7.617 -0.2699  0.3118  0.0225
35146DOD     C349259   9.916  21.568   7.417 -0.0270 -0.0164 -0.0216
35147DOD     C149260  14.946  14.409  26.492 -0.0373 -0.0014  0.3078
35147DOD     C249261  15.370  14.575  26.390 -0.0667 -0.1107 -0.4135
35147DOD     C349262  15.659  14.900  26.480  0.2532 -0.1424 -0.2392
35148DOD     C149263   4.182   6.502   8.390  0.1134  0.1038  0.3202
35148DOD     C249264   4.091   6.883   8.174 -0.1787 -0.0796 -0.1856
35148DOD     C349265   4.243   7.338   8.233  0.1087  0.0982 -0.1973
35149DOD     C149266  19.496   8.080   7.941 -0.0250 -0.2687 -0.1434
35149DOD     C249267  19.431   7.665   7.880  0.1581 -0.1676 -0.0488
35149DOD     C349268  19.296   7.330   7.638 -0.4398 -0.0677  0.2587
35150DOD     C149269   0.866  19.817   3.258 -0.0031  0.1295  0.1179
35150DOD     C249270   0.683  19.686   2.793 -0.2630  0.3172  0.1643
35150DOD     C349271   0.494  19.763   2.408  0.0231  0.2391  0.4105
35151DOD     C149272  27.200   9.026  16.862  0.1117  0.1504  0.0433
35151DOD     C249273  27.357   8.554  16.808 -0.2712 -0.0735  0.1470
35151DOD     C349274  27.298   8.105  17.039  0.1109 -0.0791  0.1495
35152DOD     C149275  13.676  11.992  15.532  0.4109 -0.3823  0.3139
35152DOD     C249276  13.828  11.544  15.405  0.1975 -0.1120 -0.4316
35152DOD     C349277  13.931  11.194  15.121  0.1135 -0.0453 -0.1250
35153DOD     C149278   7.343  15.050   5.583  0.1713  0.0791  0.1323
35153DOD     C249279   7.375  14.788   5.214  0.0117 -0.1591 -0.1391
35153DOD     C349280   7.281  14.660   4.781  0.0931  0.1481 -0.0896
35154DOD     C149281  19.767   4.802   8.478 -0.3440 -0.0934 -0.1908
35154DOD     C249282  19.307   5.005   8.292 -0.1496  0.0088  0.1411
35154DOD     C349283  19.057   5.236   8.657 -0.0812  0.2659 -0.2293
35155DOD     C149284  15.618  25.082  24.250 -0.0827 -0.1099 -0.0697
35155DOD     C249285  15.722  24.674  24.289  0.0119 -0.0987 -0.1197
35155DOD     C349286  15.469  24.254  24.176 -0.4259 -0.1734  0.0309
35156DOD     C149287  19.741  27.895  16.020  0.1188  0.0740  0.0684
35156DOD     C249288  19.688  27.809  15.557  0.0095 -0.1714 -0.0317
35156DOD     C349289  19.770  28.044  15.179  0.1315 -0.1735 -0.1171
35157DOD     C149290  14.068  17.906  20.284 -0.0602  0.1272 -0.0110
35157DOD     C249291  13.928  18.349  20.237 -0.0358 -0.1789 -0.2650
35157DOD     C349292  13.597  18.622  20.009 -0.0636 -0.1437  0.0081
35158DOD     C149293  17.752  23.465   5.088  0.0239 -0.0241  0.0460
35158DOD     C249294  17.580  23.769   5.385  0.1419 -0.2801  0.2335
35158DOD     C349295  17.448  24.223   5.497 -0.0136 -0.0517  0.0386
35159DOD     C149296  11.362   4.915  18.734  0.0441 -0.3371 -0.3277
35159DOD     C249297  11.018   4.752  19.004 -0.0604 -0.1294 -0.1481
35159DOD     C349298  10.703   4.660  19.324  0.0543  0.0406 -0.0106
35160DOD     C149299   4.760  25.861  25.278  0.1102 -0.0143  0.3396
35160DOD     C249300   4.777  25.506  24.980  0.0399 -0.3386  0.0329
35160DOD     C349301   5.036  25.480  24.632  0.1706  0.4158 -0.4331
35161DOD     C149302  10.832  10.060  24.508 -0.2665  0.2397 -0.0314
35161DOD     C249303  10.726   9.924  24.137  0.2353 -0.3006  0.0437
35161DOD     C349304  10.531   9.847  23.724 -0.1382 -0.1077  0.2042
35162DOD     C149305  17.096  11.994  13.335  0.0012 -0.1749  0.2750
35162DOD     C249306  17.171  11.711  13.677 -0.2393  0.0923  0.1713
35162DOD     C349307  17.100  11.735  14.149 -0.0266  0.2500  0.0398
35163DOD     C149308   4.327  10.709  16.511 -0.2515 -0.1583 -0.3154
35163DOD     C249309   4.174  10.446  16.872 -0.4374 -0.1570 -0.2084
35163DOD     C349310   3.805  10.347  17.204 -0.1750 -0.3273 -0.4088
35164DOD     C149311  20.194   6.638  13.760  0.3476  0.2661 -0.0852
35164DOD     C249312  19.864   6.984  13.621  0.0827  0.1786  0.1015
35164DOD     C349313  20.076   7.407  13.612  0.2495  0.2096  0.2114
35165DOD     C149314  20.462  20.082  28.013 -0.1158 -0.2640  0.1187
35165DOD     C249315  20.190  20.011  27.659 -0.1026 -0.3033 -0.0431
35165DOD     C349316  19.765  19.882  27.858 -0.1655  0.1686  0.1697
35166DOD     C149317  24.756   4.811  14.137 -0.3623  0.0471  0.2214
35166DOD     C249318  24.925   4.658  14.564 -0.3098 -0.0221  0.3102
35166DOD     C349319  25.135   4.414  14.891  0.0166  0.2600  0.0281
35167DOD     C149320   5.734  18.766  28.077  0.1686 -0.0167  0.0839
35167DOD     C249321   5.371  19.032  28.021 -0.0546 -0.0760  0.2673
35167DOD     C349322   5.026  19.273  27.760  0.3631  0.1075  0.1795
35168DOD     C149323   0.852  14.338   1.807  0.1162  0.2197  0.1410
35168DOD     C249324   1.141  14.587   1.557  0.1715  0.0442  0.0519
35168DOD     C349325   1.427  14.853   1.299 -0.3984  0.2355  0.1551
35169DOD     C149326  20.038  28.212  26.494  0.0933 -0.1107  0.2775
35169DOD     C249327  19.759  28.036  26.262 -0.0675  0.0236  0.3133
35169DOD     C349328  19.529  27.637  25.998 -0.1114  0.0153  0.0874
35170DOD     C149329  14.749   7.957  18.264  0.1710 -0.3528  0.2429
35170DOD     C249330  14.466   7.586  18.187  0.0528  0.2716 -0.4215
35170DOD     C349331  14.554   7.143  18.273 -0.3098 -0.3939 -0.1432
35171DOD     C149332  16.630   4.395   9.380  0.0339  0.0263 -0.1560
35171DOD     C249333  16.537   3.979   9.151  0.0226  0.0152 -0.4231
35171DOD     C349334  16.367   3.618   8.990 -0.0150  0.0886  0.2793
35172DOD     C149335  15.935  25.834   5.045  0.1992 -0.0569  0.2466
35172DOD     C249336  15.589  26.104   5.204 -0.1288 -0.0455 -0.1187
35172DOD     C349337  15.465  26.423   5.535 -0.3545  0.3448  0.1998
35173DOD     C149338  16.401   3.587   5.196 -0.1828 -0.1081 -0.0879
35173DOD     C249339  16.676   3.873   5.001  0.0734  0.3388 -0.0447
35173DOD     C349340  16.531   4.320   4.830 -0.0743  0.4950  0.0716
35174DOD     C149341  13.612  13.530   9.667  0.3039  0.0352 -0.3028
35174DOD     C249342  13.277  13.602   9.387  0.0753 -0.1706 -0.0931
35174DOD     C349343  13.156  13.481   8.933  0.0976 -0.2232 -0.0662
35175DOD     C149344   6.268  23.657  16.032  0.1010  0.1796 -0.0449
35175DOD     C249345   6.580  23.788  16.370  0.3042 -0.0374  0.1724
35175DOD     C349346   6.839  24.082  16.590 -0.2760 -0.3319  0.4633
35176DOD     C149347   1.014  17.179   9.327 -0.0424 -0.0921  0.2629
35176DOD     C249348   0.594  17.342   9.275  0.1644  0.0319  0.0152
35176DOD     C349349   0.410  17.798   9.284  0.6022  0.0433  0.1882
35177DOD     C149350  14.536  11.448  27.541  0.2745  0.1624  0.1359
35177DOD     C249351  14.159  11.706  27.707  0.0723 -0.1003 -0.0732
35177DOD     C349352  13.813  12.039  27.802  0.1089 -0.0109  0.0210
35178DOD     C149353  19.499   9.976  29.481  0.3352 -0.1093 -0.0227
35178DOD     C249354  19.179  10.274  29.561  0.2397 -0.2495 -0.0997
35178DOD     C349355  18.970  10.659  29.438 -0.1335 -0.2778 -0.3329
35179DOD     C149356  13.833  22.469  18.769  0.1165 -0.2295  0.0629
35179DOD     C249357  14.045  22.869  18.785 -0.0830 -0.0634 -0.0613
35179DOD     C349358  13.964  23.323  18.757 -0.2238 -0.0864  0.0759
35180DOD     C149359   8.467   5.492   0.309 -0.1606  0.1227  0.0054
35180DOD     C249360   8.523   5.351  30.173  0.0722  0.1445  0.2362
35180DOD     C349361   8.252   5.410  29.775 -0.2945  0.2135 -0.0330
35181DOD     C149362  29.392   1.290  20.022  0.0507  0.2437  0.1991
35181DOD     C249363  29.478   1.118  19.556 -0.0046 -0.0641  0.0775
35181DOD     C349364  29.674   1.046  19.171  0.1150 -0.2034 -0.0476
35182DOD     C149365   4.939  19.225  20.940 -0.2513 -0.1146  0.0896
35182DOD     C249366   4.711  18.981  21.305 -0.1163 -0.1313  0.3206
35182DOD     C349367   4.283  18.858  21.417 -0.0801  0.2185 -0.1635
35183DOD     C149368  21.877  28.766   9.223 -0.0965 -0.1155 -0.3470
35183DOD     C249369  21.779  29.188   9.189  0.0339 -0.1060  0.0365
35183DOD     C349370  21.542  29.441   9.566 -0.1378  0.2126  0.3589
35184DOD     C149371  20.430  20.697  19.579 -0.1249  0.3790 -0.3682
35184DOD     C249372  20.543  20.926  20.025 -0.1203 -0.0512  0.2288
35184DOD     C349373  20.890  21.220  20.215 -0.1942 -0.1945  0.1906
35185DOD     C149374  12.936   1.389  16.333 -0.0219 -0.2262  0.0535
35185DOD     C249375  12.694   0.964  16.286  0.1717 -0.5009 -0.2500
35185DOD     C349376  12.814   0.530  16.340 -0.0953  0.4907 -0.2360
35186DOD     C149377  21.260  17.158  15.438  0.1410 -0.2882  0.0684
35186DOD     C249378  21.062  17.521  15.605 -0.0270  0.1377  0.2798
35186DOD     C349379  20.991  17.824  15.984 -0.0115 -0.3625 -0.1757
35187DOD     C149380  14.474  28.128   2.567 -0.1580 -0.0957 -0.0104
35187DOD     C249381  14.447  28.215   3.033 -0.1640  0.1124 -0.1113
35187DOD     C349382  14.356  28.551   3.379 -0.0805  0.1522 -0.0077
35188DOD     C149383  24.966  13.801  28.861  0.0395  0.1595  0.4630
35188DOD     C249384  24.565  13.559  28.696  0.2700  0.0809 -0.0188
35188DOD     C349385  24.329  13.288  28.383  0.1064  0.2799  0.0398
35189DOD     C149386   5.460   8.346  25.581  0.1189 -0.1582  0.1981
35189DOD     C249387   5.101   8.126  25.590  0.0054  0.0917  0.1877
35189DOD     C349388   4.615   8.137  25.731  0.1357 -0.1331  0.1837
35190DOD     C149389   4.732  14.590  14.227 -0.3675  0.2073 -0.3068
35190DOD     C249390   4.622  14.896  14.617 -0.0299  0.2192  0.0761
35190DOD     C349391   4.878  14.889  14.993  0.1969  0.1375 -0.1250
35191DOD     C149392  16.690   2.809  23.805  0.2433  0.1759  0.1732
35191DOD     C249393  17.067   2.638  23.820 -0.0996  0.0844 -0.0031
35191DOD     C349394  17.205   2.318  24.158 -0.0184 -0.0324  0.0551
35192DOD     C149395  22.899  11.730   3.575 -0.1456 -0.1941  0.0446
35192DOD     C249396  23.210  11.447   3.591 -0.3192  0.2074 -0.1064
35192DOD     C349397  23.517  11.091   3.424  0.1210  0.1460 -0.0775
35193DOD     C149398   3.717  20.636   9.700 -0.1710  0.1925 -0.1167
35193DOD     C249399   3.501  20.443  10.008 -0.1573  0.0029 -0.1162
35193DOD     C349400   3.248  20.191  10.213  0.2220 -0.1371 -0.0198
35194DOD     C149401   7.043  26.005  24.118  0.0892  0.0998  0.0675
35194DOD     C249402   6.850  26.096  23.695  0.1698 -0.1431 -0.0637
35194DOD     C349403   6.667  26.156  23.345 -0.0537 -0.1496 -0.1346
35195DOD     C149404  28.303  17.991  16.676  0.0859  0.6400 -0.1719
35195DOD     C249405  28.107  18.226  17.012  0.4137  0.1062 -0.2084
35195DOD     C349406  27.814  18.427  17.289 -0.1610 -0.1166 -0.0052
35196DOD     C149407  14.414   2.106  10.518 -0.1632  0.3741  0.0242
35196DOD     C249408  14.861   2.190  10.533  0.1420 -0.0189  0.1917
35196DOD     C349409  15.319   2.300  10.397 -0.1891  0.2413 -0.0834
35197DOD     C149410  26.148  29.664   3.671  0.0266  0.2926  0.0757
35197DOD     C249411  25.664  29.565   3.595 -0.0724 -0.0130  0.3580
35197DOD     C349412  25.206  29.522   3.642 -0.0646  0.0957  0.6043
35198DOD     C149413   2.287  18.852  19.021 -0.1167  0.3393 -0.1467
35198DOD     C249414   1.860  19.050  18.937  0.1102  0.0160  0.2114
35198DOD     C349415   1.589  19.306  19.251  0.0159  0.0653  0.0447
35199DOD     C149416  22.579   1.663   9.380  0.2109  0.1740  0.2084
35199DOD     C249417  22.511   2.003   9.088  0.0116 -0.1468  0.0061
35199DOD     C349418  22.072   2.091   8.855  0.0795  0.0235  0.2040
35200DOD     C149419   5.333   5.590  19.373 -0.2730  0.2204 -0.1117
35200DOD     C249420   5.051   5.482  19.015 -0.1668  0.2554 -0.0699
35200DOD     C349421   4.714   5.529  18.676  0.1242 -0.2765 -0.1132
35201DOD     C149422  26.757   8.904  17.044  0.0224 -0.0197  0.2284
35201DOD     C249423  26.700   8.864  17.508 -0.1719  0.4247  0.2225
35201DOD     C349424  26.764   8.795  18.003 -0.2615  0.1759 -0.2581
35202DOD     C149425  14.992  13.366  19.031 -0.0927  0.1940 -0.0856
35202DOD     C249426  15.401  13.165  19.057  0.0933  0.0724 -0.1026
35202DOD     C349427  15.788  13.483  19.016  0.0807 -0.0244 -0.0954
35203DOD     C149428   2.162  21.201   4.021 -0.2909 -0.4008  0.5165
35203DOD     C249429   1.878  21.128   3.676  0.0687  0.1245 -0.1903
35203DOD     C349430   1.602  20.773   3.570  0.1514  0.0372 -0.1264
35204DOD     C149431   9.390  29.154   7.992  0.1342  0.1941 -0.0813
35204DOD     C249432   8.967  29.339   8.198  0.0307  0.3251 -0.0565
35204DOD     C349433   8.499  29.330   8.234 -0.1752  0.1438 -0.0689
35205DOD     C149434   6.124  26.319  22.414 -0.3451 -0.0358 -0.0797
35205DOD     C249435   5.778  26.461  22.151 -0.1249 -0.1332 -0.1663
35205DOD     C349436   5.504  26.639  21.828 -0.0322 -0.0133 -0.0014
35206DOD     C149437  18.152   4.771   3.251  0.0425 -0.1199 -0.0255
35206DOD     C249438  17.716   4.960   3.126 -0.1696 -0.0098  0.1475
35206DOD     C349439  17.305   5.100   3.240  0.0189  0.2553  0.0534
35207DOD     C149440   7.526   0.059   5.433  0.1399 -0.2363 -0.1160
35207DOD     C249441   7.142   0.195   5.587 -0.1063  0.3393 -0.2374
35207DOD     C349442   6.783   0.497   5.664  0.2566 -0.1848 -0.2117
35208DOD     C149443  19.140   3.367  25.330  0.2154  0.0481 -0.1789
35208DOD     C249444  18.780   3.042  25.386  0.0526  0.0274 -0.0514
35208DOD     C349445  18.540   2.750  25.734  0.1241  0.2180 -0.1591
35209DOD     C149446  15.457   8.153  24.034  0.1742  0.3880  0.0764
35209DOD     C249447  15.049   7.951  23.961  0.0523  0.1652  0.2381
35209DOD     C349448  14.740   8.057  23.594  0.0591 -0.0750  0.2460
35210DOD     C149449   1.944   1.388   3.744 -0.1955  0.3105  0.1666
35210DOD     C249450   2.259   1.034   3.964 -0.1576  0.3326  0.1557
35210DOD     C349451   2.495   0.664   4.207 -0.0109  0.0553  0.0840
35211DOD     C149452  24.587  26.082   8.690 -0.0176  0.0044 -0.0504
35211DOD     C249453  25.114  26.043   8.786  0.2885 -0.1239 -0.2886
35211DOD     C349454  25.541  26.017   8.853  0.0879 -0.1423 -0.0484
35212DOD     C149455   5.167  14.004  22.876 -0.0442  0.1455 -0.0577
35212DOD     C249456   4.808  13.722  22.942 -0.0260  0.2439  0.0271
35212DOD     C349457   4.815  13.313  23.155 -0.3485 -0.0849 -0.0950
35213DOD     C149458  17.729  12.718   2.116 -0.3602 -0.2720  0.0699
35213DOD     C249459  17.737  12.563   2.574  0.0629  0.1777 -0.1915
35213DOD     C349460  18.122  12.544   2.887 -0.1899 -0.1010  0.2379
35214DOD     C149461   9.008   5.426  17.322  0.0444  0.0758  0.0560
35214DOD     C249462   8.825   5.736  17.046 -0.0552 -0.1299  0.1604
35214DOD     C349463   8.705   6.198  16.933 -0.0407 -0.1537  0.1431
35215DOD     C149464   1.117   0.647  10.326 -0.2378 -0.0714  0.0023
35215DOD     C249465   1.154   0.468  10.787 -0.0503 -0.0769 -0.2341
35215DOD     C349466   1.417   0.410  11.152  0.1828 -0.2588 -0.2062
35216DOD     C149467  29.156  29.543   1.703 -0.1152 -0.1242 -0.0677
35216DOD     C249468  29.556  29.823   1.593 -0.1345  0.1257 -0.0239
35216DOD     C349469  29.806  30.046   1.313 -0.1800  0.1271 -0.2794
35217DOD     C149470  13.157  14.184   8.136 -0.1975 -0.2744 -0.1705
35217DOD     C249471  12.722  14.054   8.230  0.1154  0.0730 -0.0504
35217DOD     C349472  12.267  13.976   8.210 -0.2341  0.2696 -0.0071
35218DOD     C149473  29.827  22.174  30.204 -0.0986 -0.0017  0.0026
35218DOD     C249474  29.434  21.979  29.993 -0.1424  0.0543 -0.0739
35218DOD     C349475  29.343  21.865  29.575 -0.2438 -0.2018  0.1531
35219DOD     C149476  30.236  13.668  13.469  0.2234  0.0719  0.0165
35219DOD     C249477   0.061  13.344  13.738  0.0576 -0.1207  0.1399
35219DOD     C349478   0.288  12.928  13.750  0.1410  0.0086 -0.0051
35220DOD     C149479  11.808   2.597  13.283 -0.0707 -0.1122  0.1032
35220DOD     C249480  11.781   2.922  13.648  0.2506  0.3690  0.1342
35220DOD     C349481  12.018   3.242  13.575 -0.0481  0.1004  0.0220
35221DOD     C149482   0.105  15.938  18.353  0.0331  0.2693  0.0508
35221DOD     C249483   0.225  16.251  18.713  0.3066  0.3469  0.1728
35221DOD     C349484   0.126  16.653  18.885  0.1481  0.1007 -0.3050
35222DOD     C149485   5.193  24.213  20.853  0.1468 -0.0404 -0.0308
35222DOD     C249486   5.286  24.576  21.108  0.0822 -0.3918 -0.2520
35222DOD     C349487   5.207  24.979  21.380 -0.1592 -0.0910  0.0533
35223DOD     C149488   0.756  27.326  20.949  0.0017  0.0817 -0.1190
35223DOD     C249489   0.612  26.892  20.733 -0.2176  0.1885  0.0389
35223DOD     C349490   0.661  26.766  20.301 -0.0320  0.1771  0.0645
35224DOD     C149491  11.932   5.559  17.239  0.2287 -0.0636  0.1144
35224DOD     C249492  11.735   5.944  17.450 -0.3723  0.1484 -0.1357
35224DOD     C349493  11.920   6.265  17.772 -0.0289  0.0928  0.1267
35225DOD     C149494   4.860  23.924  19.826 -0.1659 -0.2241  0.3066
35225DOD     C249495   4.818  23.889  19.346  0.3628 -0.1894 -0.1857
35225DOD     C349496   4.567  23.928  18.954  0.0224 -0.1016 -0.0664
35226DOD     C149497  21.835  19.633   6.290 -0.0039  0.0137  0.0800
35226DOD     C249498  22.100  19.258   6.335 -0.2074  0.1770  0.1239
35226DOD     C349499  22.141  19.110   6.750  0.1676 -0.1862 -0.0284
35227DOD     C149500   5.590  24.777  26.079 -0.0916 -0.2130  0.1424
35227DOD     C249501   5.646  24.911  26.544  0.0424  0.0634  0.0241
35227DOD     C349502   5.879  24.925  26.985 -0.0828  0.0134  0.0678
35228DOD     C149503  25.093  21.142  29.414  0.1406 -0.0236  0.1768
35228DOD     C249504  25.244  21.108  29.885  0.1158  0.0289  0.0102
35228DOD     C349505  25.425  21.435  30.119 -0.0103  0.0383 -0.4309
35229DOD     C149506  29.454  25.142  24.690  0.3130  0.0570 -0.0885
35229DOD     C249507  29.766  25.234  24.316  0.1460 -0.1516 -0.1321
35229DOD     C349508  29.695  25.143  23.847 -0.0704  0.3447  0.0957
35230DOD     C149509  16.020  14.287  10.368 -0.1088 -0.1260  0.1194
35230DOD     C249510  16.164  13.919  10.105  0.0981  0.1045 -0.0045
35230DOD     C349511  16.070  13.521  10.256  0.0275 -0.0386  0.1428
35231DOD     C149512  28.604  12.789   6.334 -0.1010 -0.3416 -0.0734
35231DOD     C249513  28.830  13.135   6.110 -0.0087  0.1383 -0.1634
35231DOD     C349514  28.938  13.526   5.913 -0.0567 -0.0484 -0.3150
35232DOD     C149515   6.801  16.449  29.149 -0.0608  0.1678  0.0499
35232DOD     C249516   6.690  16.832  29.367 -0.0380 -0.3723 -0.2831
35232DOD     C349517   6.804  16.988  29.831 -0.3959 -0.0878 -0.1419
35233DOD     C149518  30.073   7.579  13.700 -0.1354  0.1648  0.0303
35233DOD     C249519  30.222   7.689  14.148 -0.1656  0.0524 -0.0770
35233DOD     C349520   0.264   7.858  14.382 -0.2133  0.1089 -0.2085
35234DOD     C149521  19.959   9.271  11.916  0.0759  0.2833  0.0176
35234DOD     C249522  20.338   9.018  11.855  0.0478 -0.1733  0.1294
35234DOD     C349523  20.480   8.618  11.853  0.0300 -0.1554  0.1287
35235DOD     C149524  29.760   0.362   3.396 -0.1423  0.0803 -0.0023
35235DOD     C249525  29.561   0.631   3.742 -0.1582 -0.0161 -0.0766
35235DOD     C349526  29.271   0.839   4.012 -0.1323 -0.0288 -0.0783
35236DOD     C149527  22.741  10.964  28.313 -0.1024 -0.1774 -0.3385
35236DOD     C249528  23.097  11.003  28.088 -0.2710  0.1405  0.1760
35236DOD     C349529  23.361  11.043  27.671  0.0512  0.1248 -0.0226
35237DOD     C149530   1.215   0.592  19.562 -0.1694 -0.2185 -0.4373
35237DOD     C249531   0.817   0.553  19.751 -0.2250 -0.0326 -0.0209
35237DOD     C349532   0.340   0.416  19.840 -0.2407  0.0436  0.0431
35238DOD     C149533  19.818  24.705  17.330  0.3516 -0.1432  0.1133
35238DOD     C249534  19.991  24.772  17.764 -0.0682 -0.0184  0.1651
35238DOD     C349535  20.257  25.040  18.076  0.1098  0.1479  0.0782
35239DOD     C149536  22.978   6.317  22.041 -0.1397  0.1743 -0.0872
35239DOD     C249537  23.039   5.984  21.716  0.1259 -0.1520  0.4694
35239DOD     C349538  23.338   5.684  21.442 -0.0194 -0.2056 -0.2535
35240DOD     C149539  21.682  19.582   8.586  0.3416 -0.2193 -0.2420
35240DOD     C249540  21.356  19.198   8.552  0.2831  0.3486  0.0263
35240DOD     C349541  21.308  18.949   8.188  0.0058 -0.3435  0.0441
35241DOD     C149542  18.388   3.868  13.734 -0.1323 -0.0200  0.3314
35241DOD     C249543  18.622   3.750  13.359  0.2427  0.2948 -0.1719
35241DOD     C349544  18.360   3.530  13.029 -0.0357  0.0491  0.0105
35242DOD     C149545  29.196  14.645   5.695  0.3638  0.0090  0.2793
35242DOD     C249546  28.983  14.822   5.308  0.0734  0.0982  0.1912
35242DOD     C349547  28.850  15.192   5.036  0.1347  0.1386  0.1329
35243DOD     C149548  25.790  16.913  26.436 -0.1108  0.0012 -0.0254
35243DOD     C249549  25.510  17.141  26.089  0.0362  0.1879 -0.1474
35243DOD     C349550  25.498  17.245  25.633  0.0983 -0.0103 -0.0889
35244DOD     C149551   1.220  16.187   0.625  0.0580 -0.1237 -0.1626
35244DOD     C249552   1.577  16.211   0.364  0.1637  0.1010  0.1223
35244DOD     C349553   1.770  16.213  30.290  0.1811 -0.0230 -0.1716
35245DOD     C149554   1.268  15.033  11.179 -0.0253  0.1341 -0.0889
35245DOD     C249555   0.966  15.025  11.528 -0.1197 -0.0954 -0.0762
35245DOD     C349556   0.705  15.215  11.772  0.1881  0.2580  0.0091
35246DOD     C149557  15.365  10.406  19.063 -0.3015  0.2447  0.0530
35246DOD     C249558  15.535  10.052  18.794 -0.0706 -0.1352  0.0887
35246DOD     C349559  15.705   9.832  18.377 -0.4230  0.0821  0.3466
35247DOD     C149560   8.785  13.408  19.905 -0.2290 -0.0499 -0.2481
35247DOD     C249561   8.713  13.185  19.488  0.3620  0.1087  0.2122
35247DOD     C349562   8.382  13.204  19.232 -0.1500  0.1048  0.5249
35248DOD     C149563  15.184   2.655  20.307  0.1510 -0.2661  0.1458
35248DOD     C249564  15.469   2.373  20.100  0.0389 -0.1408  0.1750
35248DOD     C349565  15.683   1.952  20.001 -0.1146 -0.1500  0.0639
35249DOD     C149566  13.281  30.224   6.112  0.0420  0.0756  0.0734
35249DOD     C249567  13.410   0.361   6.052  0.3292 -0.1998 -0.1697
35249DOD     C349568  13.837   0.560   5.973 -0.2115  0.0767  0.0783
35250DOD     C149569  14.311  26.621  27.001 -0.2498 -0.1964  0.0827
35250DOD     C249570  13.846  26.572  27.132  0.0583 -0.1075 -0.0106
35250DOD     C349571  13.705  26.251  27.442  0.1554  0.2412  0.1493
35251DOD     C149572  29.845   1.601  29.562  0.0235 -0.1792  0.0901
35251DOD     C249573  29.621   1.742  29.942 -0.0325  0.2813  0.2058
35251DOD     C349574  29.535   2.018  30.267 -0.1443 -0.0585 -0.2434
35252DOD     C149575  14.150  24.251  11.038  0.1530  0.2266 -0.1406
35252DOD     C249576  13.920  24.293  10.648  0.1069 -0.0538 -0.2388
35252DOD     C349577  13.604  24.248  10.260 -0.2520  0.2630  0.2662
35253DOD     C149578  22.934  23.340  22.365  0.1701 -0.0816  0.1894
35253DOD     C249579  23.293  23.523  22.173  0.0686  0.1254 -0.1975
35253DOD     C349580  23.383  23.984  22.041  0.3176  0.3092 -0.2991
35254DOD     C149581   3.510  12.090   7.401  0.2400 -0.0173  0.1257
35254DOD     C249582   3.936  11.940   7.588 -0.2458  0.0468 -0.0026
35254DOD     C349583   4.399  11.925   7.532  0.1321 -0.2072 -0.2141
35255DOD     C149584  13.428   9.203  21.093  0.2065  0.2845 -0.1641
35255DOD     C249585  13.199   8.854  20.972 -0.3157  0.0267 -0.2709
35255DOD     C349586  12.941   8.595  20.705  0.2474 -0.1429  0.1518
35256DOD     C149587  10.614  13.564   8.840  0.2376  0.3164  0.0858
35256DOD     C249588  10.555  13.308   9.273 -0.1075 -0.1800 -0.2043
35256DOD     C349589  10.508  13.134   9.700 -0.2000  0.1806  0.3458
35257DOD     C149590   8.715   4.965  26.941  0.0942  0.0504  0.2750
35257DOD     C249591   8.616   5.308  26.631  0.3323  0.0683 -0.0479
35257DOD     C349592   8.219   5.505  26.445 -0.1417  0.3221 -0.1081
35258DOD     C149593  18.378   0.569   5.150 -0.1269  0.2223 -0.3287
35258DOD     C249594  18.744   0.846   5.162  0.3841 -0.0718  0.1503
35258DOD     C349595  19.089   0.880   5.333 -0.1851 -0.0859 -0.0719
35259DOD     C149596  18.197  25.460  25.503 -0.0525  0.0330 -0.0567
35259DOD     C249597  18.627  25.593  25.351  0.0640  0.3326 -0.3319
35259DOD     C349598  18.822  25.959  25.200 -0.2754 -0.2190 -0.0172
35260DOD     C149599  19.790  16.318  19.941  0.1606  0.2023  0.2989
35260DOD     C249600  20.070  16.250  20.301 -0.1656 -0.1761  0.2718
35260DOD     C349601  20.418  16.442  20.457 -0.2304 -0.3705  0.2101
35261DOD     C149602  24.111  27.500   8.272  0.2569 -0.1534  0.0403
35261DOD     C249603  24.077  27.104   8.078 -0.2619 -0.1552 -0.3231
35261DOD     C349604  24.294  26.756   7.830  0.1907 -0.0466  0.0802
35262DOD     C149605  16.463  13.878  29.064 -0.1046  0.2042  0.0896
35262DOD     C249606  16.129  13.850  28.707  0.1565 -0.2484  0.0389
35262DOD     C349607  15.753  14.133  28.563 -0.0664  0.2443 -0.1848
35263DOD     C149608  16.861  15.075  29.723  0.0951 -0.1220 -0.0683
35263DOD     C249609  16.578  14.767  29.546 -0.0154 -0.2447 -0.0959
35263DOD     C349610  16.209  14.573  29.369  0.0194 -0.0370  0.0975
35264DOD     C149611   0.075   7.172  24.885 -0.0419 -0.3153  0.4280
35264DOD     C249612   0.272   6.781  24.662  0.4711 -0.0610 -0.2092
35264DOD     C349613   0.410   6.316  24.601 -0.2664 -0.0682  0.1581
35265DOD     C149614  26.227   7.345  23.049  0.1182  0.0469 -0.2213
35265DOD     C249615  26.086   7.665  22.717  0.0399 -0.3257 -0.1597
35265DOD     C349616  26.163   7.740  22.284 -0.0886 -0.1177  0.3095
35266DOD     C149617  16.260  10.059  20.140 -0.0595  0.0123  0.0218
35266DOD     C249618  16.293   9.700  20.383  0.3826  0.1901  0.0700
35266DOD     C349619  16.597   9.365  20.441 -0.3431 -0.1758  0.1813
35267DOD     C149620   8.356  25.584  27.275  0.1473  0.0152  0.0033
35267DOD     C249621   8.477  25.534  27.681 -0.1606  0.1113 -0.1499
35267DOD     C349622   8.785  25.448  28.029  0.0366  0.3216 -0.2163
35268DOD     C149623  26.809  27.683  18.981 -0.1028 -0.0694  0.0943
35268DOD     C249624  26.911  27.973  18.617 -0.2749 -0.4481 -0.0010
35268DOD     C349625  27.132  28.337  18.385  0.3952 -0.1311 -0.0856
35269DOD     C149626   5.781  27.900  29.367 -0.0536  0.1885  0.1069
35269DOD     C249627   5.582  27.472  29.426 -0.0575 -0.1562 -0.0794
35269DOD     C349628   5.151  27.335  29.463  0.2039  0.3038  0.2253
35270DOD     C149629   2.405  13.886   8.788 -0.1033  0.1178 -0.1687
35270DOD     C249630   2.337  13.913   9.204 -0.1287 -0.1349 -0.2382
35270DOD     C349631   2.160  14.131   9.535  0.0894  0.2077 -0.1258
35271DOD     C149632  15.590  29.752  13.171 -0.0157 -0.0674 -0.1427
35271DOD     C249633  15.265  30.161  13.192 -0.1580 -0.0388 -0.4795
35271DOD     C349634  14.800   0.049  13.214  0.2148  0.0685 -0.3464
35272DOD     C149635  29.142   7.479  29.744 -0.2554 -0.1741  0.0446
35272DOD     C249636  29.083   7.960  29.869  0.3055 -0.1289 -0.0137
35272DOD     C349637  28.849   8.137  30.276  0.2725 -0.2497  0.1678
35273DOD     C149638  22.412  23.784  18.054  0.2183  0.1427  0.0377
35273DOD     C249639  22.146  23.528  17.699 -0.0398 -0.2848 -0.1454
35273DOD     C349640  21.918  23.273  17.340 -0.0867 -0.1791  0.1442
35274DOD     C149641  23.068  17.994  18.156  0.1048 -0.0091 -0.2461
35274DOD     C249642  23.427  17.695  18.312  0.0643 -0.3478  0.3577
35274DOD     C349643  23.692  17.546  18.668 -0.2698 -0.1866 -0.0598
35275DOD     C149644   5.017   6.234  26.265  0.2234 -0.2406  0.0190
35275DOD     C249645   4.873   6.650  26.122  0.0917 -0.0748  0.2078
35275DOD     C349646   4.466   6.916  26.070  0.2391  0.4256  0.1978
35276DOD     C149647   0.992  26.812  24.216  0.2846  0.0555 -0.1728
35276DOD     C249648   0.744  26.666  24.533  0.3283  0.2337  0.1258
35276DOD     C349649   0.535  26.460  24.912  0.0419  0.0578 -0.1501
35277DOD     C149650  26.225   1.498   1.022 -0.0215  0.0958 -0.0738
35277DOD     C249651  26.470   1.469   1.396 -0.2026  0.2289  0.1558
35277DOD     C349652  26.363   1.580   1.858  0.1050  0.0222 -0.2174
35278DOD     C149653  26.058  10.403  11.347  0.1585 -0.2369  0.1259
35278DOD     C249654  25.665  10.148  11.293 -0.0014 -0.2160 -0.2779
35278DOD     C349655  25.329   9.910  11.128  0.0455 -0.3662  0.2293
35279DOD     C149656  25.186  25.535   0.785  0.1022 -0.0594 -0.0085
35279DOD     C249657  25.272  25.081   0.879  0.1050  0.1684  0.1407
35279DOD     C349658  25.597  24.799   0.871  0.1233  0.1135  0.1846
35280DOD     C149659  28.642   3.935  13.865 -0.1485 -0.1775  0.0211
35280DOD     C249660  28.702   4.364  13.960 -0.0585  0.2985 -0.1617
35280DOD     C349661  28.730   4.784  13.763  0.0606  0.1318 -0.1578
35281DOD     C149662  16.132  12.244  28.985 -0.1189  0.1198 -0.0509
35281DOD     C249663  15.709  12.275  28.742 -0.0323 -0.2060  0.1009
35281DOD     C349664  15.289  12.546  28.717 -0.0268 -0.0954  0.2400
35282DOD     C149665  13.041  24.986  28.954 -0.0654 -0.1692 -0.2053
35282DOD     C249666  12.974  25.097  28.546  0.1498 -0.0602 -0.2703
35282DOD     C349667  13.073  24.947  28.114  0.2100  0.1440  0.1487
35283DOD     C149668  10.150   2.900   5.432 -0.0219 -0.3805 -0.2810
35283DOD     C249669  10.120   3.247   5.748 -0.1220 -0.0999 -0.3835
35283DOD     C349670   9.916   3.583   5.941 -0.2950  0.3149  0.1759
35284DOD     C149671  19.819  28.633  23.872 -0.1036  0.1069 -0.3941
35284DOD     C249672  19.567  28.874  24.081 -0.2338  0.1282 -0.1431
35284DOD     C349673  19.375  29.270  24.159  0.2071  0.0395  0.1634
35285DOD     C149674  14.449   8.736  15.398 -0.5170  0.0460 -0.0061
35285DOD     C249675  14.739   8.401  15.644 -0.0689  0.1139  0.0447
35285DOD     C349676  15.141   8.380  15.811  0.0732  0.1902 -0.0773
35286DOD     C149677  28.817  13.054   4.751 -0.0633 -0.1518  0.2039
35286DOD     C249678  28.865  13.067   5.214 -0.0947 -0.3222 -0.2025
35286DOD     C349679  28.769  12.829   5.638  0.3122 -0.0926 -0.1488
35287DOD     C149680   6.712   9.043  24.648  0.0354 -0.0345  0.0212
35287DOD     C249681   6.563   9.239  24.227 -0.3365 -0.1340 -0.0833
35287DOD     C349682   6.286   9.521  23.980  0.3251  0.2463  0.0568
35288DOD     C149683  15.868  12.440   2.105  0.1087 -0.0171 -0.1050
35288DOD     C249684  15.777  12.848   2.215 -0.0083  0.1430 -0.0599
35288DOD     C349685  15.835  13.305   2.172  0.1418 -0.0470  0.1066
35289DOD     C149686  18.842   2.829   3.156  0.0909  0.0967 -0.1855
35289DOD     C249687  19.263   2.861   2.924  0.2721 -0.2012  0.1331
35289DOD     C349688  19.685   2.967   2.859 -0.0982  0.2597  0.1727
35290DOD     C149689   3.588  22.148   1.796  0.0572  0.3201 -0.2791
35290DOD     C249690   3.866  21.956   2.084 -0.0416 -0.0828  0.0662
35290DOD     C349691   4.227  21.696   2.158 -0.0896 -0.2391 -0.1991
35291DOD     C149692   5.932  25.224  22.945  0.1006 -0.0289 -0.1026
35291DOD     C249693   6.224  25.453  22.654  0.3974 -0.3311  0.0445
35291DOD     C349694   6.474  25.822  22.570  0.2136  0.1681  0.0890
35292DOD     C149695  22.248  20.987  27.525 -0.2733  0.1726  0.1319
35292DOD     C249696  22.538  21.283  27.837  0.1379  0.0646  0.1418
35292DOD     C349697  22.790  21.573  28.136  0.2070 -0.1257 -0.0565
35293DOD     C149698  27.595  14.415   3.124 -0.0841 -0.0594 -0.2428
35293DOD     C249699  28.041  14.560   3.099  0.3401 -0.1273 -0.4028
35293DOD     C349700  28.357  14.488   2.829 -0.0392 -0.2886 -0.0404
35294DOD     C149701  12.069  19.207   1.337 -0.0092  0.1935  0.0879
35294DOD     C249702  11.864  18.955   1.018 -0.0749  0.2908  0.1200
35294DOD     C349703  12.033  18.802   0.603  0.0509 -0.3903  0.0436
35295DOD     C149704  21.048   5.460   8.458  0.0617  0.3345  0.0196
35295DOD     C249705  20.972   5.592   8.946  0.0875 -0.1918  0.1099
35295DOD     C349706  21.136   5.619   9.362 -0.3680 -0.0868  0.2288
35296DOD     C149707   2.169   9.441  25.044  0.2514  0.2929 -0.2527
35296DOD     C249708   1.794   9.669  24.884  0.2536 -0.2124  0.0449
35296DOD     C349709   1.427   9.915  24.671 -0.2248 -0.0830 -0.1290
35297DOD     C149710   6.773  28.726  26.430  0.2055  0.0009 -0.0386
35297DOD     C249711   6.509  28.415  26.616 -0.2350 -0.3235 -0.1842
35297DOD     C349712   6.141  28.302  26.902  0.0663  0.1425  0.3349
35298DOD     C149713  29.213   1.652   4.503 -0.2130 -0.1032 -0.3459
35298DOD     C249714  29.324   1.390   4.904  0.2532 -0.2942  0.0881
35298DOD     C349715  29.011   1.481   5.182  0.1989  0.3058  0.0527
35299DOD     C149716   7.202  21.376  25.542 -0.2234 -0.0427  0.0203
35299DOD     C249717   7.464  21.491  25.170 -0.1545  0.1096 -0.2290
35299DOD     C349718   7.911  21.334  25.064 -0.3352 -0.1379 -0.3784
35300DOD     C149719  29.820  11.178   1.476  0.2563 -0.0177  0.1665
35300DOD     C249720  29.650  11.611   1.564  0.0264 -0.3504 -0.3622
35300DOD     C349721  29.851  11.909   1.846  0.1164 -0.1203 -0.1449
35301DOD     C149722  22.868  17.205   2.921 -0.0273 -0.4005 -0.0826
35301DOD     C249723  23.058  17.168   2.505  0.0437 -0.1223  0.1616
35301DOD     C349724  23.135  17.501   2.246 -0.1917  0.0085 -0.1123
35302DOD     C149725   0.379  13.525  16.082  0.1005 -0.0790  0.0869
35302DOD     C249726   0.560  13.185  15.858  0.2511 -0.1009  0.2669
35302DOD     C349727   0.786  12.862  15.805 -0.0433  0.0708  0.1705
35303DOD     C149728   6.513  17.901  15.608  0.0998  0.1841  0.1887
35303DOD     C249729   6.331  18.308  15.709 -0.1271  0.2476  0.0656
35303DOD     C349730   5.985  18.413  15.956 -0.2609  0.2050  0.0355
35304DOD     C149731   6.410  19.085  25.998  0.0022 -0.1693  0.1542
35304DOD     C249732   6.266  19.447  26.260 -0.1147  0.3251 -0.0902
35304DOD     C349733   6.263  19.788  26.532 -0.0942  0.1293  0.0828
35305DOD     C149734   2.800  20.416   5.889  0.2440 -0.2462  0.1838
35305DOD     C249735   2.873  20.060   5.603  0.1700 -0.0386  0.0431
35305DOD     C349736   2.949  19.577   5.544  0.1202 -0.3678  0.0957
35306DOD     C149737  28.379  26.066  30.311 -0.0188 -0.0364  0.0663
35306DOD     C249738  28.134  26.476   0.140  0.2658  0.0721 -0.0046
35306DOD     C349739  28.119  26.911   0.243 -0.0986  0.3283 -0.3919
35307DOD     C149740   4.248   3.730  20.556  0.0358  0.0211  0.1146
35307DOD     C249741   4.300   3.428  20.188 -0.1741  0.3991 -0.1054
35307DOD     C349742   4.418   3.059  20.068  0.0104  0.1186 -0.0133
35308DOD     C149743   8.463  18.280  18.826  0.0565 -0.3077 -0.1943
35308DOD     C249744   8.505  17.948  19.036  0.0723  0.0315  0.1927
35308DOD     C349745   8.920  17.766  19.218 -0.3372 -0.0739  0.2334
35309DOD     C149746   9.584   3.480  21.724 -0.1328  0.0878 -0.1807
35309DOD     C249747   9.158   3.552  21.928 -0.1273 -0.1539 -0.0635
35309DOD     C349748   9.052   3.653  22.421  0.0737 -0.2986  0.0743
35310DOD     C149749  28.549  10.134  26.442  0.0161  0.1009  0.0738
35310DOD     C249750  28.435   9.871  26.073  0.3309  0.0149  0.0031
35310DOD     C349751  28.278   9.713  25.635  0.2944  0.1503  0.0421
35311DOD     C149752  17.231  30.224   4.352 -0.0848 -0.0691  0.1195
35311DOD     C249753  17.229  29.976   3.945  0.0464 -0.2013  0.1423
35311DOD     C349754  17.474  29.657   3.701 -0.2423  0.1478  0.2085
35312DOD     C149755  20.173  16.912   3.060  0.0157 -0.2854  0.1521
35312DOD     C249756  19.918  16.564   2.848 -0.0113  0.2965 -0.0373
35312DOD     C349757  19.435  16.596   2.906 -0.3769 -0.0723 -0.1311
35313DOD     C149758  17.818  17.299  18.117  0.0474 -0.1320  0.1898
35313DOD     C249759  18.017  17.050  17.777  0.2769  0.0712 -0.1611
35313DOD     C349760  18.280  17.055  17.401  0.0339 -0.1123  0.3809
35314DOD     C149761  17.760  11.333   6.910  0.0818 -0.2149 -0.1678
35314DOD     C249762  18.076  11.225   6.603  0.0861 -0.0598  0.0918
35314DOD     C349763  18.314  11.493   6.287  0.0764  0.0272 -0.1050
35315DOD     C149764  29.642  30.214  23.904  0.2598 -0.0635 -0.0027
35315DOD     C249765  29.738   0.363  23.755 -0.0596  0.2430 -0.1594
35315DOD     C349766  29.913   0.827  23.772  0.1846  0.2111  0.2758
35316DOD     C149767   8.156   3.274  21.775  0.1546 -0.1461 -0.1588
35316DOD     C249768   7.977   3.596  21.484  0.2867 -0.2793  0.0530
35316DOD     C349769   7.965   3.964  21.216 -0.0327  0.3450  0.1319
35317DOD     C149770  24.953   1.167   6.234 -0.0763 -0.0447  0.3357
35317DOD     C249771  24.799   1.342   6.625 -0.2177  0.1950  0.0415
35317DOD     C349772  24.387   1.573   6.685 -0.0726 -0.0395 -0.0220
35318DOD     C149773  12.467  23.996  15.690  0.2499 -0.1429 -0.1489
35318DOD     C249774  12.786  24.331  15.759 -0.2193 -0.0695  0.0494
35318DOD     C349775  12.924  24.772  15.794 -0.0344  0.1144  0.0982
35319DOD     C149776  22.796   5.225   8.341  0.0102 -0.2871 -0.1953
35319DOD     C249777  23.222   5.360   8.408 -0.1790  0.3372 -0.0798
35319DOD     C349778  23.649   5.564   8.257  0.3260  0.3103 -0.1278
35320DOD     C149779   1.145  11.349  16.936  0.0506 -0.3841 -0.1945
35320DOD     C249780   0.873  11.471  16.575 -0.0581 -0.1481 -0.1993
35320DOD     C349781   0.643  11.606  16.217 -0.1404  0.0208  0.0009
35321DOD     C149782  26.712  26.667   4.434  0.0226  0.0668 -0.1930
35321DOD     C249783  27.126  26.409   4.455 -0.3391  0.0768 -0.2485
35321DOD     C349784  27.407  26.220   4.212  0.0328  0.2480 -0.0473
35322DOD     C149785  25.146   5.504   8.943  0.0617  0.1096 -0.1110
35322DOD     C249786  25.226   5.071   9.117  0.4240 -0.0854  0.2416
35322DOD     C349787  25.132   4.595   9.105 -0.0849  0.2515 -0.0239
35323DOD     C149788  25.863  16.911  22.370 -0.0472  0.0611  0.3388
35323DOD     C249789  26.331  16.889  22.176 -0.1933  0.0410  0.1786
35323DOD     C349790  26.757  16.807  22.321 -0.0451 -0.0394 -0.1055
35324DOD     C149791  28.886  25.557  12.020  0.1791  0.1301  0.0015
35324DOD     C249792  28.982  25.617  11.596  0.2357 -0.1993  0.2877
35324DOD     C349793  29.078  25.945  11.312 -0.0309  0.2720 -0.1193
35325DOD     C149794  15.191  18.457  26.633  0.0543 -0.2066  0.0552
35325DOD     C249795  15.458  18.823  26.610 -0.2945 -0.2186 -0.1642
35325DOD     C349796  15.735  19.006  26.209 -0.0913 -0.3656  0.2103
35326DOD     C149797  25.388  27.108  21.175  0.0108 -0.1559 -0.1623
35326DOD     C249798  25.534  26.678  21.018  0.0634  0.1371  0.1686
35326DOD     C349799  25.473  26.427  20.591 -0.2456  0.0021  0.2475
35327DOD     C149800   2.622  14.840   8.548  0.0711 -0.0803 -0.2316
35327DOD     C249801   2.535  14.402   8.686  0.0947 -0.1984  0.1049
35327DOD     C349802   2.864  14.174   8.995 -0.0041 -0.1535 -0.0974
35328DOD     C149803  17.692  19.217  16.451  0.1585  0.0611  0.1339
35328DOD     C249804  18.100  19.316  16.409  0.0244  0.1843  0.1810
35328DOD     C349805  18.547  19.388  16.285  0.0089 -0.1879 -0.1914
35329DOD     C149806  10.378   1.908   3.922 -0.1572 -0.0687 -0.1576
35329DOD     C249807  10.620   2.294   3.738  0.1193 -0.2759  0.1085
35329DOD     C349808  10.731   2.331   3.245 -0.1589  0.3864  0.0216
35330DOD     C149809  19.573   3.398  10.943 -0.0197  0.2217  0.0416
35330DOD     C249810  19.899   3.409  11.230  0.0111 -0.1277 -0.1369
35330DOD     C349811  20.279   3.232  11.463  0.1508  0.1397 -0.0329
35331DOD     C149812  25.286   7.183  14.936 -0.3975  0.1051  0.1152
35331DOD     C249813  25.271   7.071  15.426  0.2655 -0.1172 -0.0602
35331DOD     C349814  25.405   7.158  15.868 -0.2806 -0.1203  0.1792
35332DOD     C149815  24.857   0.948   1.145  0.0543  0.1539  0.1642
35332DOD     C249816  24.804   1.088   0.719 -0.0826  0.2170  0.0395
35332DOD     C349817  24.527   1.022   0.368 -0.0514 -0.1865 -0.2238
35333DOD     C149818  18.819   6.400  12.438  0.0765 -0.0696  0.1567
35333DOD     C249819  18.482   6.398  12.147 -0.0666 -0.2329  0.0197
35333DOD     C349820  18.280   6.120  11.795 -0.2072  0.0999  0.0632
35334DOD     C149821  18.389   7.130  25.720 -0.0808  0.0538 -0.1047
35334DOD     C249822  18.361   7.014  25.274  0.0836 -0.0427  0.3357
35334DOD     C349823  18.487   6.849  24.847 -0.0879  0.2059 -0.1336
35335DOD     C149824   1.287  25.154  16.704  0.1537  0.1311 -0.0099
35335DOD     C249825   1.066  25.141  16.286  0.0075  0.0436 -0.0205
35335DOD     C349826   0.624  24.969  16.185 -0.0940  0.4437 -0.1208
35336DOD     C149827  10.183  19.535  15.532  0.2486  0.0416 -0.0324
35336DOD     C249828  10.356  19.248  15.164  0.3458  0.0479  0.1615
35336DOD     C349829  10.569  18.910  14.930  0.0824  0.0774  0.0328
35337DOD     C149830  15.652   4.000  24.489 -0.2515 -0.1005  0.2504
35337DOD     C249831  15.782   3.707  24.211 -0.1020  0.0551  0.1068
35337DOD     C349832  15.995   3.308  23.997 -0.1918  0.0108  0.2215
35338DOD     C149833  22.253  11.820  24.051 -0.2381 -0.1921  0.1721
35338DOD     C249834  21.842  12.033  23.898  0.0978 -0.2160  0.0928
35338DOD     C349835  21.801  12.324  23.521 -0.1302  0.2369  0.0712
35339DOD     C149836  21.967  21.103  15.929  0.0272  0.1840 -0.2629
35339DOD     C249837  22.408  21.118  16.096 -0.2133  0.0568 -0.0207
35339DOD     C349838  22.853  21.042  16.317 -0.0773 -0.3290  0.0995
35340DOD     C149839   4.864  13.697  14.465  0.1966 -0.0558 -0.0885
35340DOD     C249840   5.064  13.775  14.055 -0.0650 -0.2767 -0.4136
35340DOD     C349841   5.297  13.706  13.679  0.2290 -0.0220 -0.2337
35341DOD     C149842  26.552  12.885  28.363  0.2438 -0.2720  0.2551
35341DOD     C249843  26.525  12.806  27.871 -0.0426  0.0934  0.1544
35341DOD     C349844  26.522  12.813  27.398 -0.2161  0.3858 -0.0406
35342DOD     C149845  19.191  29.629  13.864  0.1701  0.0937  0.0189
35342DOD     C249846  19.576  29.416  13.834  0.2370  0.0202  0.2490
35342DOD     C349847  19.953  29.510  14.122  0.2144  0.1369  0.2329
35343DOD     C149848   7.874   8.327  13.313  0.0573  0.0359 -0.1670
35343DOD     C249849   7.879   8.219  13.791 -0.2293 -0.2698  0.0982
35343DOD     C349850   8.077   8.213  14.228 -0.1077 -0.0189  0.0833
35344DOD     C149851   6.482   5.230  26.091  0.0902 -0.3969  0.2119
35344DOD     C249852   6.720   5.189  25.729  0.1385  0.0851 -0.2947
35344DOD     C349853   6.963   5.227  25.349 -0.1198  0.1696  0.1492
35345DOD     C149854   3.723  22.090  18.621  0.3567 -0.0185  0.0616
35345DOD     C249855   3.613  22.571  18.422 -0.0961  0.1749 -0.3851
35345DOD     C349856   3.874  22.909  18.170 -0.0059 -0.1872  0.1650
35346DOD     C149857  18.428   2.950   7.993  0.1147 -0.2609  0.1586
35346DOD     C249858  18.003   2.829   7.743 -0.0841 -0.0693  0.1934
35346DOD     C349859  17.577   2.952   7.571 -0.2777 -0.0503  0.2257
35347DOD     C149860  27.700  24.987  27.253 -0.0196  0.1129 -0.2096
35347DOD     C249861  28.067  25.085  27.470 -0.2087 -0.2153 -0.1350
35347DOD     C349862  28.501  25.303  27.398 -0.0310  0.0663  0.0326
35348DOD     C149863  15.692  28.195  21.638  0.1936  0.2180 -0.0215
35348DOD     C249864  15.439  28.126  21.272 -0.1921  0.2467 -0.1109
35348DOD     C349865  15.177  27.798  21.034  0.1990  0.1877  0.0195
35349DOD     C149866   9.136  16.084  25.328  0.0965 -0.2745  0.1553
35349DOD     C249867   9.164  16.299  25.752  0.3577  0.1315 -0.2597
35349DOD     C349868   9.479  16.524  25.993  0.0823  0.0427 -0.3428
35350DOD     C149869  22.611  27.564  22.204 -0.1521 -0.1909  0.0759
35350DOD     C249870  23.045  27.751  22.327  0.1964 -0.1017 -0.0004
35350DOD     C349871  23.408  27.978  22.589 -0.3558 -0.0795 -0.1288
35351DOD     C149872  22.876  10.027  19.200  0.1137 -0.1452 -0.1442
35351DOD     C249873  22.830   9.840  18.767 -0.2453 -0.0102 -0.3046
35351DOD     C349874  22.421   9.583  18.757  0.0001 -0.3121 -0.0815
35352DOD     C149875   8.918  24.972   8.977 -0.2047 -0.0392 -0.1070
35352DOD     C249876   8.805  24.535   9.215 -0.0724 -0.1888 -0.0033
35352DOD     C349877   8.828  24.156   9.492 -0.4972 -0.0484 -0.2865
35353DOD     C149878  20.051  16.074  11.936  0.0445 -0.0265 -0.1130
35353DOD     C249879  20.328  16.121  11.620  0.0154  0.2559  0.2722
35353DOD     C349880  20.356  16.122  11.212  0.1983  0.0123 -0.1699
35354DOD     C149881  25.597   3.789  21.040 -0.0002  0.2017 -0.0634
35354DOD     C249882  25.488   3.719  20.589  0.1275  0.0502 -0.2305
35354DOD     C349883  25.506   3.945  20.200 -0.1424 -0.0310 -0.0908
35355DOD     C149884  24.630  12.022   1.476  0.0578  0.2858  0.3260
35355DOD     C249885  24.317  11.917   1.823 -0.2048  0.0138 -0.1285
35355DOD     C349886  23.911  12.021   2.050  0.2220 -0.0169  0.2207
35356DOD     C149887  15.792  11.033  19.611  0.0586 -0.0181 -0.0936
35356DOD     C249888  15.813  11.350  19.241 -0.1165  0.1456  0.1225
35356DOD     C349889  16.038  11.545  18.895 -0.0705 -0.0167  0.5818
35357DOD     C149890  10.248  10.378   7.347 -0.1994 -0.1965  0.1078
35357DOD     C249891  10.047  10.736   7.265  0.1716  0.1320 -0.3116
35357DOD     C349892  10.129  11.087   6.975  0.1165 -0.3105  0.0685
35358DOD     C149893   3.109  13.268  18.476  0.1519 -0.0304  0.3120
35358DOD     C249894   3.017  13.137  18.952  0.2956  0.1569  0.0054
35358DOD     C349895   3.067  12.979  19.399  0.1633  0.0336 -0.0184
35359DOD     C149896  20.643   1.423   0.913  0.0365  0.4411  0.0723
35359DOD     C249897  20.638   1.164   0.516  0.0700 -0.0917  0.0682
35359DOD     C349898  20.775   1.128   0.088 -0.0364  0.1205 -0.2333
35360DOD     C149899   5.023   1.036  28.429  0.0555  0.0790  0.2265
35360DOD     C249900   4.916   0.626  28.187  0.3070  0.0295 -0.1467
35360DOD     C349901   5.037   0.325  27.892 -0.0973 -0.1292 -0.3525
35361DOD     C149902  23.835  19.246  27.830 -0.0140  0.0033  0.2033
35361DOD     C249903  24.069  19.494  28.134 -0.0026 -0.1487 -0.0327
35361DOD     C349904  24.144  19.928  28.302  0.0739  0.2526 -0.0410
35362DOD     C149905   0.945   1.685   0.102 -0.6647 -0.0310  0.2567
35362DOD     C249906   0.561   1.495   0.257  0.2726  0.1029 -0.3265
35362DOD     C349907   0.170   1.476   0.511 -0.1078 -0.3731  0.0429
35363DOD     C149908  12.428  18.925   1.152 -0.0819  0.0731  0.2305
35363DOD     C249909  12.156  18.532   1.110  0.1326  0.1633 -0.1858
35363DOD     C349910  11.951  18.331   1.495 -0.1462  0.2621  0.1580
35364DOD     C149911  15.009  21.814  29.420  0.0075 -0.0679  0.2949
35364DOD     C249912  14.758  21.498  29.667  0.3781  0.1256  0.0204
35364DOD     C349913  14.350  21.368  29.789 -0.2893  0.2368  0.0751
35365DOD     C149914   5.637   3.477   7.103 -0.0259 -0.1873 -0.4317
35365DOD     C249915   5.848   3.063   7.076  0.1452  0.2155  0.2438
35365DOD     C349916   6.181   2.759   6.939 -0.0717  0.1845 -0.1131
35366DOD     C149917   2.610   1.033  -0.000  0.2185  0.0728 -0.2028
35366DOD     C249918   2.228   1.281   0.164 -0.1191 -0.0209  0.1264
35366DOD     C349919   1.857   1.199  30.216  0.2418  0.1346 -0.2782
35367DOD     C149920   0.379  12.654  16.004 -0.1557  0.0540 -0.2283
35367DOD     C249921  30.354  12.433  16.117  0.2842  0.2114 -0.1240
35367DOD     C349922  29.840  12.331  16.037 -0.1831 -0.0530  0.0557
35368DOD     C149923  30.240  26.350  21.097 -0.1151  0.1412  0.0293
35368DOD     C249924  30.179  26.795  21.040  0.3806  0.0660 -0.4654
35368DOD     C349925  30.142  27.197  21.354 -0.1712  0.1877 -0.0326
35369DOD     C149926   1.032  27.051  24.677  0.2506 -0.0998  0.1228
35369DOD     C249927   0.999  27.427  24.951 -0.2284 -0.0649 -0.4897
35369DOD     C349928   0.712  27.525  25.308 -0.2647  0.0631 -0.1188
35370DOD     C149929  13.380   7.349  17.343  0.1819 -0.1206 -0.2066
35370DOD     C249930  13.003   7.081  17.202 -0.0197 -0.0743  0.1523
35370DOD     C349931  12.955   6.624  17.052 -0.1286  0.0286 -0.1135
35371DOD     C149932  27.556  18.370  23.533 -0.1824  0.2594  0.1324
35371DOD     C249933  27.384  18.134  23.889  0.0333  0.0364  0.2648
35371DOD     C349934  27.491  17.932  24.310 -0.0336  0.1662 -0.2718
35372DOD     C149935  24.861   2.896   3.216 -0.0691 -0.0413 -0.0437
35372DOD     C249936  24.769   2.825   2.780  0.2590 -0.3915 -0.0754
35372DOD     C349937  24.408   2.923   2.507  0.2811 -0.3717  0.0130
35373DOD     C149938  13.686   1.636  13.378  0.2298  0.0600 -0.0655
35373DOD     C249939  13.477   1.473  13.778 -0.0616  0.1970 -0.2114
35373DOD     C349940  13.077   1.151  13.823 -0.3250  0.2258 -0.1544
35374DOD     C149941  18.443  16.233   2.194  0.1550 -0.0600  0.3436
35374DOD     C249942  18.168  15.848   2.080  0.1287  0.2111  0.0323
35374DOD     C349943  18.053  15.435   2.258  0.0155  0.0362  0.0647
35375DOD     C149944  19.491  16.256  24.029 -0.0454  0.3280 -0.1170
35375DOD     C249945  19.506  15.860  23.734  0.1544 -0.0578  0.0133
35375DOD     C349946  19.834  15.782  23.342 -0.1546  0.0814 -0.3087
35376DOD     C149947   2.680   6.524  22.486 -0.3681 -0.2716  0.0928
35376DOD     C249948   2.833   6.084  22.622 -0.1554 -0.0799  0.0368
35376DOD     C349949   2.799   5.621  22.601 -0.4759 -0.0214  0.0501
35377DOD     C149950   1.200   9.815   0.201 -0.0578  0.0495  0.0113
35377DOD     C249951   1.000  10.132   0.464  0.0288 -0.2070 -0.4013
35377DOD     C349952   0.686  10.384   0.270 -0.3518  0.2146  0.0089
35378DOD     C149953  19.634  13.994  18.330  0.2797  0.0188 -0.2710
35378DOD     C249954  19.227  13.730  18.505  0.0030 -0.0933  0.2551
35378DOD     C349955  18.875  13.409  18.444  0.1373  0.0231  0.4364
35379DOD     C149956   3.465  24.734  15.056  0.1543 -0.0225 -0.0724
35379DOD     C249957   3.633  24.348  14.879  0.1405  0.0291 -0.1280
35379DOD     C349958   3.633  23.918  15.008 -0.2315 -0.1609  0.1080
35380DOD     C149959   1.265  14.298  23.402 -0.1029  0.0831  0.1008
35380DOD     C249960   1.075  14.609  23.064 -0.2412  0.1329 -0.2756
35380DOD     C349961   1.236  14.964  22.825 -0.1606  0.0438  0.1189
35381DOD     C149962  18.429   7.047   2.199  0.2649  0.2610  0.1340
35381DOD     C249963  18.708   6.675   2.087  0.0064 -0.1824 -0.0993
35381DOD     C349964  19.162   6.537   2.053 -0.1382  0.0596 -0.0539
35382DOD     C149965   4.982  24.847  19.391 -0.1476 -0.0582  0.0267
35382DOD     C249966   5.145  24.719  18.952 -0.0060  0.0986 -0.1118
35382DOD     C349967   5.199  24.536  18.532  0.1037  0.0464 -0.2175
35383DOD     C149968  23.526  12.868   2.545  0.1790  0.2381 -0.3050
35383DOD     C249969  23.409  13.301   2.596  0.1689  0.0416 -0.1592
35383DOD     C349970  23.209  13.680   2.566  0.0795 -0.0894  0.3646
35384DOD     C149971   7.477  18.987  19.815  0.2135  0.0592  0.0399
35384DOD     C249972   7.656  19.324  19.548 -0.1227  0.1133 -0.2264
35384DOD     C349973   7.948  19.599  19.699  0.1479 -0.0339  0.0921
35385DOD     C149974  10.686  29.952  23.256 -0.3395 -0.0309 -0.4011
35385DOD     C249975  10.345  29.676  23.128  0.0633  0.0182  0.2071
35385DOD     C349976   9.877  29.620  23.110 -0.2743 -0.3058 -0.2617
35386DOD     C149977  23.630  25.419  16.831  0.3092 -0.1465 -0.1138
35386DOD     C249978  23.473  25.725  16.524  0.0508  0.1667  0.0103
35386DOD     C349979  23.445  26.000  16.063  0.0709  0.3336 -0.6629
35387DOD     C149980   8.150   7.749   5.289 -0.2690  0.1911 -0.0442
35387DOD     C249981   8.445   7.542   5.014  0.1736 -0.0838 -0.0101
35387DOD     C349982   8.543   7.355   4.621 -0.0052  0.1921 -0.1970
35388DOD     C149983   2.198  22.836  21.422  0.0089  0.1880 -0.0959
35388DOD     C249984   2.036  22.444  21.115 -0.2002  0.1214  0.3208
35388DOD     C349985   1.795  22.217  20.837  0.0252 -0.2944 -0.1102
35389DOD     C149986  30.075  12.361  19.169  0.0018  0.1122  0.0820
35389DOD     C249987  29.815  12.273  19.535  0.2836  0.2128  0.1034
35389DOD     C349988  29.506  11.966  19.644  0.0801  0.0607  0.0957
35390DOD     C149989  24.980   5.377  13.288 -0.1344 -0.2019 -0.1764
35390DOD     C249990  24.645   5.014  13.300 -0.0924  0.1313 -0.0354
35390DOD     C349991  24.532   4.579  13.505 -0.0185 -0.1685 -0.1779
35391DOD     C149992  27.925  19.765  12.749  0.3140  0.1823 -0.0350
35391DOD     C249993  27.465  19.699  12.732  0.0668  0.0541  0.0159
35391DOD     C349994  27.046  19.682  12.476  0.3373  0.2210 -0.2263
35392DOD     C149995   5.251  12.723  23.882  0.1758 -0.0408 -0.1111
35392DOD     C249996   5.586  12.960  24.041 -0.2728  0.1103 -0.0724
35392DOD     C349997   5.958  12.970  24.324  0.1394 -0.1207  0.0231
35393DOD     C149998  26.163  16.167  22.435  0.0189  0.1663  0.0847
35393DOD     C249999  26.263  16.579  22.581 -0.3508  0.3164 -0.0192
35393DOD     C350000  26.554  16.726  22.844 -0.0850  0.0627  0.1092
35394DOD     C150001   1.778  23.393  13.163  0.1223 -0.1089 -0.2226
35394DOD     C250002   1.326  23.524  13.066  0.1970 -0.1657  0.2883
35394DOD     C350003   1.096  23.829  12.811 -0.0213 -0.2073  0.1177
35395DOD     C150004  26.929  20.040  27.222  0.0389 -0.4222  0.0187
35395DOD     C250005  27.332  19.780  27.286  0.1030 -0.1386 -0.2283
35395DOD     C350006  27.771  19.865  27.223  0.2809 -0.0739 -0.2845
35396DOD     C150007  19.915  22.817  10.596 -0.2658 -0.1377 -0.1399
35396DOD     C250008  19.778  23.234  10.779 -0.0226 -0.0768  0.2485
35396DOD     C350009  19.384  23.504  10.782  0.0515 -0.4116 -0.1615
35397DOD     C150010   5.639  29.784  23.838  0.2593 -0.0644 -0.0525
35397DOD     C250011   5.463  29.742  23.368  0.1897 -0.1138  0.0660
35397DOD     C350012   5.804  29.939  23.006  0.2354 -0.1219  0.1140
35398DOD     C150013  26.875  18.751  19.583 -0.1230  0.0143  0.2093
35398DOD     C250014  26.665  18.504  19.933  0.1619 -0.1209  0.3009
35398DOD     C350015  26.372  18.156  20.040  0.0404  0.0245 -0.0135
35399DOD     C150016  12.009  28.999  20.734 -0.3745  0.0005 -0.1338
35399DOD     C250017  11.581  29.062  20.684  0.1088 -0.0289  0.0895
35399DOD     C350018  11.192  29.389  20.737  0.1907 -0.0390 -0.3998
35400DOD     C150019  21.830  30.037  24.547  0.2332  0.2410  0.1266
35400DOD     C250020  21.810  30.097  25.016  0.1031  0.1986  0.1974
35400DOD     C350021  21.889   0.028  25.421 -0.2571  0.0708  0.0099
35401DOD     C150022  15.121  24.190   4.239 -0.0358 -0.0309  0.0272
35401DOD     C250023  15.261  23.883   4.580 -0.2021 -0.2889  0.4998
35401DOD     C350024  15.526  23.546   4.730  0.0923 -0.1011 -0.0884
35402DOD     C150025  16.390  14.003  27.493  0.0188 -0.3636 -0.1183
35402DOD     C250026  16.130  14.423  27.544  0.0596 -0.3846  0.3436
35402DOD     C350027  16.141  14.770  27.251 -0.2761 -0.0020  0.0174
35403DOD     C150028  28.705   1.254  15.035  0.2199 -0.1225  0.2887
35403DOD     C250029  28.434   1.626  14.922 -0.2102  0.2781 -0.0106
35403DOD     C350030  28.177   1.904  15.211  0.0468 -0.1842  0.0278
35404DOD     C150031  26.217  26.433   3.098  0.1291  0.1724  0.1416
35404DOD     C250032  25.847  26.711   3.182 -0.1051 -0.0976 -0.2001
35404DOD     C350033  25.528  26.979   3.359  0.3359 -0.1109 -0.0905
35405DOD     C150034  12.466   6.374   1.083 -0.2048 -0.2195 -0.1508
35405DOD     C250035  12.707   6.295   0.724 -0.1188  0.0672  0.0516
35405DOD     C350036  12.956   6.156   0.415 -0.2276 -0.0207 -0.0026
35406DOD     C150037  30.290   0.808   8.352 -0.0056 -0.2337 -0.0416
35406DOD     C250038  30.102   0.388   8.326 -0.0595  0.0099  0.2210
35406DOD     C350039  29.880   0.098   8.018 -0.0547  0.1568  0.0621
35407DOD     C150040  26.257  18.856   1.613  0.0969  0.2963  0.0037
35407DOD     C250041  26.355  19.037   1.219 -0.2042 -0.0417 -0.1078
35407DOD     C350042  26.389  19.086   0.772 -0.1174  0.0749  0.4770
35408DOD     C150043  15.021   3.212  13.844 -0.4624  0.0613 -0.1108
35408DOD     C250044  15.090   2.787  13.682 -0.1896  0.1533 -0.2224
35408DOD     C350045  15.128   2.533  13.281 -0.3444 -0.0798 -0.1601
35409DOD     C150046  14.647  19.472  15.695  0.1068  0.0694  0.0800
35409DOD     C250047  15.007  19.618  15.928  0.2615 -0.1160  0.0835
35409DOD     C350048  15.359  19.783  16.250  0.5301  0.0800 -0.2444
35410DOD     C150049  16.279   3.281  26.860 -0.1045 -0.1661  0.0331
35410DOD     C250050  16.485   3.187  26.493 -0.0186 -0.3407 -0.1732
35410DOD     C350051  16.623   2.910  26.200  0.1054  0.1077  0.0810
35411DOD     C150052   4.074   6.080  28.798  0.2039  0.5031 -0.0613
35411DOD     C250053   4.242   5.719  28.537  0.1489 -0.4433 -0.1905
35411DOD     C350054   4.086   5.307  28.397 -0.3647  0.1589 -0.0258
35412DOD     C150055  13.543  18.260   7.692  0.2981 -0.0379 -0.2699
35412DOD     C250056  13.355  18.448   7.327 -0.3591 -0.0562 -0.0077
35412DOD     C350057  13.467  18.623   6.889  0.1277 -0.2852 -0.1588
35413DOD     C150058  15.594  16.910  17.005  0.0829 -0.3094  0.1475
35413DOD     C250059  16.005  16.866  16.865 -0.0255 -0.1033  0.2033
35413DOD     C350060  16.447  16.849  16.814 -0.0213 -0.1827  0.1384
35414DOD     C150061  27.211  12.307   7.218 -0.1910  0.2383 -0.1420
35414DOD     C250062  27.486  11.949   7.339 -0.2900  0.1942 -0.0314
35414DOD     C350063  27.693  11.912   7.725 -0.1708  0.1593 -0.2467
35415DOD     C150064   9.584  17.896  14.173  0.0114  0.0240  0.0359
35415DOD     C250065  10.034  17.752  14.289  0.0571 -0.3713 -0.2386
35415DOD     C350066  10.359  17.411  14.257  0.1067  0.0426 -0.0653
35416DOD     C150067   1.147  15.069  24.986 -0.2053  0.2057  0.2672
35416DOD     C250068   1.449  15.029  25.351 -0.2589 -0.2434 -0.0710
35416DOD     C350069   1.721  14.767  25.624  0.2350  0.0567 -0.0242
35417DOD     C150070  20.408   2.329   6.042 -0.0481 -0.1573  0.2175
35417DOD     C250071  20.701   2.048   5.833 -0.1194 -0.0452 -0.0386
35417DOD     C350072  20.941   1.783   5.504 -0.1082 -0.1794 -0.3450
35418DOD     C150073  23.414   9.195   6.298 -0.2572 -0.0582  0.2065
35418DOD     C250074  23.662   9.509   6.040  0.0208 -0.1821  0.1093
35418DOD     C350075  23.491   9.843   5.792  0.0669 -0.0427 -0.1102
35419DOD     C150076   0.425  25.694  17.122 -0.0833 -0.1071  0.0869
35419DOD     C250077  30.365  25.535  17.221  0.2758  0.0030  0.0574
35419DOD     C350078  29.855  25.604  17.163 -0.0036  0.2589  0.0096
35420DOD     C150079   6.470  20.494   1.571 -0.1631 -0.0677 -0.0896
35420DOD     C250080   6.419  20.208   1.189  0.1881 -0.1888  0.0324
35420DOD     C350081   6.160  20.076   0.753 -0.1366 -0.3437 -0.1439
35421DOD     C150082   9.395   8.383  21.866 -0.1028  0.2550 -0.1376
35421DOD     C250083   9.303   8.777  21.612  0.1201  0.0799 -0.4170
35421DOD     C350084   9.269   9.047  21.270  0.1055 -0.1891 -0.0675
35422DOD     C150085  14.380   1.413  25.902  0.0203 -0.0174 -0.0182
35422DOD     C250086  13.987   1.431  25.699  0.2047  0.1275  0.2690
35422DOD     C350087  13.599   1.185  25.779  0.1291  0.0144  0.1013
35423DOD     C150088  20.223   9.019  17.966 -0.2197 -0.0744  0.0210
35423DOD     C250089  20.589   9.192  17.768 -0.0585  0.0392 -0.0938
35423DOD     C350090  20.816   9.295  17.371  0.1016  0.0441  0.1400
35424DOD     C150091  18.913   0.275  13.738 -0.0736  0.2628  0.0152
35424DOD     C250092  19.284  30.306  13.674  0.0587 -0.0672 -0.0587
35424DOD     C350093  19.731  30.202  13.519  0.0659  0.1976  0.1385
35425DOD     C150094  21.860  27.581   7.971 -0.2400  0.1527 -0.0024
35425DOD     C250095  22.256  27.454   7.827  0.1304 -0.1988  0.0135
35425DOD     C350096  22.580  27.378   7.513 -0.1735  0.0842  0.0722
35426DOD     C150097  19.335   8.395   5.494  0.2930 -0.0046 -0.0398
35426DOD     C250098  19.369   8.834   5.717  0.2679 -0.3432 -0.2427
35426DOD     C350099  19.659   9.086   6.044 -0.1338  0.0742 -0.1467
35427DOD     C150100  19.124   9.806   6.204  0.2395  0.1340  0.1908
35427DOD     C250101  19.139   9.571   6.632 -0.0010 -0.1574 -0.1294
35427DOD     C350102  19.019   9.555   7.064  0.1852  0.2373 -0.1089
35428DOD     C150103  19.672  27.295  10.065  0.0606  0.1129 -0.0222
35428DOD     C250104  19.611  27.580   9.759  0.0895 -0.0134 -0.1069
35428DOD     C350105  19.587  28.006   9.517 -0.2259  0.1835 -0.0012
35429DOD     C150106  23.040  11.993  18.757 -0.1452  0.3254 -0.1135
35429DOD     C250107  22.582  11.946  18.923  0.0804  0.2062 -0.1646
35429DOD     C350108  22.494  12.046  19.320 -0.0059  0.2957  0.0582
35430DOD     C150109  22.281   1.156   3.340 -0.0190 -0.0380  0.0204
35430DOD     C250110  22.374   0.692   3.404 -0.0571  0.0519  0.1473
35430DOD     C350111  22.494   0.307   3.269 -0.1897 -0.1812  0.1255
35431DOD     C150112  20.482   7.016  21.494  0.0899  0.3272  0.4552
35431DOD     C250113  20.156   6.916  21.209 -0.1608  0.3855  0.2727
35431DOD     C350114  19.975   6.635  20.876 -0.2722 -0.2444  0.0572
35432DOD     C150115  16.512  29.762  21.000  0.3553 -0.2229  0.0319
35432DOD     C250116  16.870  29.730  21.326 -0.2476  0.0147  0.0546
35432DOD     C350117  17.276  29.726  21.561 -0.0572 -0.1885  0.0602
35433DOD     C150118  14.156  14.767  24.298  0.0077 -0.4035 -0.1265
35433DOD     C250119  14.403  14.733  23.872 -0.0346 -0.0782  0.0135
35433DOD     C350120  14.795  14.810  23.762  0.0633  0.2613 -0.1089
35434DOD     C150121  20.479   1.098   2.852 -0.0245  0.0546  0.1130
35434DOD     C250122  20.645   0.731   3.116  0.0049  0.0764 -0.0327
35434DOD     C350123  21.013   0.443   3.216 -0.1856 -0.1964 -0.3113
35435DOD     C150124  28.793  17.657  25.670  0.2475 -0.0372 -0.1970
35435DOD     C250125  29.247  17.491  25.776  0.1612 -0.1146 -0.2985
35435DOD     C350126  29.564  17.274  25.966 -0.5111  0.3205 -0.1588
35436DOD     C150127   8.396  18.352   1.218  0.1429  0.2457  0.2623
35436DOD     C250128   8.646  18.020   0.970 -0.1332 -0.1036  0.1576
35436DOD     C350129   8.659  17.548   0.875  0.3018  0.2808  0.0737
35437DOD     C150130  15.794   7.798  27.532 -0.0008 -0.4337 -0.0776
35437DOD     C250131  15.613   7.652  27.903 -0.0100  0.0773  0.1089
35437DOD     C350132  15.763   7.451  28.275 -0.1576  0.0363 -0.1343
35438DOD     C150133  21.463  14.096   4.533  0.0418 -0.2121 -0.0277
35438DOD     C250134  21.323  14.307   4.979  0.1314 -0.0801  0.0275
35438DOD     C350135  21.391  14.413   5.426 -0.0231  0.1919 -0.0259
35439DOD     C150136   0.815  12.649  25.630  0.0677  0.2005  0.0027
35439DOD     C250137   0.546  12.303  25.800  0.0368  0.0787  0.0609
35439DOD     C350138   0.683  11.995  26.159  0.0089 -0.2823  0.0548
35440DOD     C150139  27.962  23.858   8.816 -0.3101 -0.0169  0.0690
35440DOD     C250140  28.064  24.087   8.434 -0.1501 -0.0351 -0.2184
35440DOD     C350141  27.959  24.064   7.974  0.0452 -0.2003 -0.5556
35441DOD     C150142  11.267   2.764   6.762  0.0797  0.1404 -0.0851
35441DOD     C250143  11.092   2.461   7.127 -0.2101  0.3730 -0.0577
35441DOD     C350144  11.184   2.217   7.581  0.1550  0.0813  0.2987
35442DOD     C150145   4.744  25.363  28.198 -0.1846 -0.0540 -0.1861
35442DOD     C250146   4.527  25.322  27.792  0.0532  0.1195 -0.1973
35442DOD     C350147   4.100  25.399  27.523 -0.1006  0.2878 -0.0539
35443DOD     C150148  29.931   1.940  26.918 -0.0739 -0.3145  0.0585
35443DOD     C250149   0.058   2.068  27.055 -0.0816  0.4280 -0.1095
35443DOD     C350150   0.410   2.374  27.183 -0.3737 -0.2354  0.0993
35444DOD     C150151   5.468  16.806   1.491  0.1958  0.0639  0.4052
35444DOD     C250152   5.314  16.599   1.954  0.0985 -0.1136 -0.0795
35444DOD     C350153   5.033  16.298   2.198  0.0113 -0.5916 -0.0333
35445DOD     C150154   8.617  15.629  19.573  0.1013 -0.4322 -0.1250
35445DOD     C250155   8.534  15.349  19.887  0.0021  0.1427 -0.0743
35445DOD     C350156   8.670  15.022  20.208 -0.0623 -0.2527 -0.0516
35446DOD     C150157  14.547   9.731  11.496  0.0133  0.1374 -0.1325
35446DOD     C250158  14.147   9.484  11.626  0.0039 -0.0712  0.1495
35446DOD     C350159  13.872   9.119  11.773 -0.0394 -0.2244  0.1104
35447DOD     C150160  11.027  17.349   1.042  0.0523 -0.1586 -0.0732
35447DOD     C250161  11.033  17.353   1.466  0.0176 -0.1795 -0.2437
35447DOD     C350162  11.107  17.694   1.766 -0.0544 -0.1757  0.1817
35448DOD     C150163  30.155  23.243   2.990  0.1404  0.1716  0.1154
35448DOD     C250164   0.259  23.012   3.028  0.1831  0.0947  0.0312
35448DOD     C350165   0.503  22.663   3.011 -0.1315  0.1216 -0.3432
35449DOD     C150166  16.386   4.346  17.399  0.2583  0.2174 -0.1872
35449DOD     C250167  16.481   4.293  16.949  0.1505 -0.2042  0.0970
35449DOD     C350168  16.169   4.335  16.607 -0.2827  0.3646  0.4873
35450DOD     C150169   4.082  15.866  24.884 -0.2495  0.1834 -0.3753
35450DOD     C250170   3.879  15.495  24.966 -0.0508  0.1693 -0.0418
35450DOD     C350171   3.406  15.413  25.065  0.0241 -0.2268  0.2775
35451DOD     C150172  19.532  17.279   8.039  0.0966  0.0299  0.1829
35451DOD     C250173  19.461  16.855   7.873 -0.0959  0.0312 -0.1112
35451DOD     C350174  19.050  16.719   7.672  0.1226  0.1096  0.0947
35452DOD     C150175  27.050  20.343  11.106 -0.1740 -0.1833  0.2098
35452DOD     C250176  27.424  20.082  11.156 -0.1753  0.3206 -0.1737
35452DOD     C350177  27.678  19.726  11.317 -0.0839 -0.3722 -0.0812
35453DOD     C150178   4.840   8.421  28.951  0.0891  0.0033 -0.0868
35453DOD     C250179   5.265   8.371  28.935 -0.0632 -0.1847  0.3430
35453DOD     C350180   5.478   8.793  28.970  0.3114 -0.1808  0.1999
35454DOD     C150181   6.023  15.752  25.392  0.0424  0.0279 -0.0496
35454DOD     C250182   6.241  15.841  25.789 -0.2156  0.3940  0.2286
35454DOD     C350183   6.425  15.433  25.954  0.0358 -0.1617  0.1127
35455DOD     C150184  22.094  20.922   8.891  0.3785  0.4200  0.0590
35455DOD     C250185  22.130  20.526   8.827 -0.1147  0.2321  0.2431
35455DOD     C350186  22.362  20.131   9.004  0.0419 -0.0146 -0.2470
35456DOD     C150187  25.330  20.024  26.341 -0.0938 -0.2044  0.0602
35456DOD     C250188  25.286  19.706  26.614 -0.3394  0.1153 -0.2549
35456DOD     C350189  24.923  19.411  26.636  0.2855 -0.3118  0.0074
35457DOD     C150190  11.729   9.699   9.753  0.0401 -0.0925  0.1341
35457DOD     C250191  11.455   9.393   9.923 -0.1683 -0.0862 -0.0627
35457DOD     C350192  11.379   8.950   9.917  0.2241 -0.0673  0.0836
35458DOD     C150193   1.885   3.273   6.589  0.2324  0.1407 -0.4121
35458DOD     C250194   1.449   3.232   6.447 -0.1224 -0.4111 -0.0144
35458DOD     C350195   1.199   2.837   6.358 -0.0811  0.0089 -0.2275
35459DOD     C150196   8.300   6.225  27.920 -0.0761  0.2124 -0.0216
35459DOD     C250197   8.354   6.433  27.478 -0.3696 -0.0134 -0.0900
35459DOD     C350198   8.529   6.656  27.097  0.2566 -0.2273 -0.2828
35460DOD     C150199  14.745  24.443   9.054  0.0336  0.1514  0.1249
35460DOD     C250200  14.924  24.729   9.412 -0.2999 -0.1762 -0.1548
35460DOD     C350201  14.803  24.909   9.800 -0.2570  0.1801 -0.2185
35461DOD     C150202  12.070   6.875   5.368  0.0100  0.2890 -0.0041
35461DOD     C250203  12.115   6.553   5.019  0.0005  0.0957 -0.2048
35461DOD     C350204  12.187   6.384   4.615 -0.1335  0.1444 -0.2203
35462DOD     C150205   2.128  19.680   2.699 -0.2316  0.0220  0.0881
35462DOD     C250206   2.229  19.987   2.398  0.0504 -0.1057  0.0684
35462DOD     C350207   2.393  19.997   1.936 -0.0251  0.0070  0.1229
35463DOD     C150208   2.238   7.127   3.217  0.2963  0.0890  0.2433
35463DOD     C250209   1.808   6.987   3.112 -0.1113  0.0954 -0.0808
35463DOD     C350210   1.687   6.780   2.650 -0.0582 -0.4708 -0.1897
35464DOD     C150211   8.813   5.515  11.861 -0.0959 -0.1351 -0.3184
35464DOD     C250212   8.769   5.035  11.804 -0.2678  0.2619  0.0949
35464DOD     C350213   8.800   4.699  11.468 -0.2474 -0.0638 -0.1986
35465DOD     C150214  29.964  14.674  16.825  0.2134  0.2800 -0.0866
35465DOD     C250215  29.622  15.000  16.668 -0.1073  0.0435 -0.1170
35465DOD     C350216  29.705  15.309  16.314 -0.0047  0.1238  0.1097
35466DOD     C150217  19.501   5.684  25.692  0.0470  0.0158 -0.1454
35466DOD     C250218  19.785   5.942  26.058 -0.1587  0.2321 -0.4669
35466DOD     C350219  20.029   5.964  26.463 -0.2590 -0.1168  0.0541
35467DOD     C150220   2.921   3.551   8.416 -0.0009  0.0048 -0.0970
35467DOD     C250221   2.882   3.907   8.126 -0.2467 -0.0776 -0.0598
35467DOD     C350222   2.629   4.007   7.747 -0.3005  0.3306 -0.0436
35468DOD     C150223  27.913   0.879  13.816  0.2059  0.0465 -0.0898
35468DOD     C250224  28.329   0.808  13.795 -0.1610 -0.1412 -0.1414
35468DOD     C350225  28.697   0.709  14.022 -0.3355  0.0344  0.1003
35469DOD     C150226   7.297   3.078  23.145  0.2581  0.0183 -0.0502
35469DOD     C250227   6.824   3.212  23.128 -0.0754  0.4688  0.1941
35469DOD     C350228   6.499   3.350  23.450  0.0640 -0.0958  0.1420
35470DOD     C150229  27.172   2.489   4.233  0.1532  0.1498  0.2239
35470DOD     C250230  27.475   2.258   4.444  0.0519  0.1567 -0.2025
35470DOD     C350231  27.957   2.210   4.418  0.0061 -0.0348  0.2756
35471DOD     C150232  25.035   7.789   7.146 -0.0059 -0.1671  0.2512
35471DOD     C250233  24.709   8.023   6.935  0.3202 -0.1281 -0.0496
35471DOD     C350234  24.275   8.241   6.860  0.0726 -0.1585  0.2075
35472DOD     C150235   4.097  11.441  18.331  0.1072  0.1599 -0.0975
35472DOD     C250236   3.740  11.343  18.099  0.0669 -0.0803  0.2078
35472DOD     C350237   3.287  11.484  17.974 -0.1893 -0.2845  0.0433
35473DOD     C150238   9.589   2.223   1.695 -0.1730 -0.1519  0.0961
35473DOD     C250239   9.131   2.343   1.843  0.0599  0.2352 -0.2051
35473DOD     C350240   8.875   2.506   2.206 -0.0257 -0.1211  0.0202
35474DOD     C150241  11.108  21.313  23.431 -0.1242 -0.1508 -0.0526
35474DOD     C250242  11.459  21.150  23.681  0.1135 -0.1056 -0.2562
35474DOD     C350243  11.435  20.944  24.140 -0.3782  0.0754  0.0428
35475DOD     C150244  27.692  27.484  11.402 -0.0419  0.0683  0.0752
35475DOD     C250245  28.150  27.492  11.219 -0.1923 -0.0771  0.2783
35475DOD     C350246  28.475  27.848  11.132 -0.0113 -0.0031 -0.1956
35476DOD     C150247  15.505  25.893  20.494  0.3121  0.5634  0.0684
35476DOD     C250248  15.374  25.827  20.921  0.1833 -0.0982  0.0285
35476DOD     C350249  14.904  25.789  21.020  0.0679 -0.0671 -0.0246
35477DOD     C150250   9.625  19.379  28.964 -0.1587  0.0735 -0.2981
35477DOD     C250251   9.319  19.397  29.274  0.2733 -0.2973  0.1632
35477DOD     C350252   9.209  19.257  29.705 -0.3191 -0.2327 -0.0027
35478DOD     C150253  15.081  16.574   4.506 -0.2300  0.1525 -0.0372
35478DOD     C250254  15.416  16.286   4.641  0.2822 -0.2143  0.1015
35478DOD     C350255  15.802  16.286   4.922 -0.0086 -0.2333 -0.0135
35479DOD     C150256  12.972  23.485   0.352  0.1760  0.0362  0.2176
35479DOD     C250257  13.152  23.306  -0.011 -0.0950  0.0747 -0.6008
35479DOD     C350258  13.411  22.964  30.085  0.3452  0.2082 -0.0403
35480DOD     C150259   8.916  29.910   7.533  0.3271  0.1757  0.1912
35480DOD     C250260   9.298  30.100   7.603  0.2059 -0.0941 -0.0601
35480DOD     C350261   9.682   0.020   7.768 -0.1775 -0.2904  0.0873
35481DOD     C150262  10.635  18.117  17.284 -0.1474  0.1775  0.0878
35481DOD     C250263  10.844  18.506  17.142  0.0919 -0.0816  0.1126
35481DOD     C350264  11.183  18.840  17.247 -0.3928  0.1212 -0.1217
35482DOD     C150265   5.925  21.742  18.957 -0.1141  0.2809 -0.0749
35482DOD     C250266   5.845  21.929  19.358 -0.0246  0.1418  0.1302
35482DOD     C350267   5.821  21.907  19.792  0.1421 -0.0608  0.3064
35483DOD     C150268  30.221   5.112  17.040  0.0960  0.0486  0.2661
35483DOD     C250269  30.030   5.482  16.806 -0.1970 -0.0269  0.2446
35483DOD     C350270  29.812   5.752  16.554 -0.1910 -0.1286  0.3513
35484DOD     C150271  27.844   4.998  14.100  0.0056 -0.0280 -0.1374
35484DOD     C250272  27.970   4.933  14.541  0.1626  0.0823  0.1971
35484DOD     C350273  27.962   5.170  14.938 -0.0675 -0.0604  0.0566
35485DOD     C150274  13.314  10.778  22.993  0.1480  0.0192  0.4169
35485DOD     C250275  13.169  10.878  23.458 -0.1410 -0.0350 -0.0771
35485DOD     C350276  13.359  10.852  23.905  0.0243  0.1086 -0.0741
35486DOD     C150277   9.911  19.951  12.713  0.1800  0.1786  0.1136
35486DOD     C250278   9.864  19.475  12.688 -0.4089  0.3303 -0.1223
35486DOD     C350279  10.081  19.098  12.523 -0.2212  0.3327  0.0522
35487DOD     C150280  21.533  23.581  21.733 -0.1692 -0.0655  0.2402
35487DOD     C250281  21.719  23.156  21.928 -0.1139  0.1149  0.0344
35487DOD     C350282  22.046  22.941  22.252 -0.1009 -0.1564 -0.3210
35488DOD     C150283  13.728  16.751  22.730 -0.2243  0.2320 -0.1174
35488DOD     C250284  13.886  17.053  22.383 -0.0206  0.2588 -0.0220
35488DOD     C350285  13.846  17.267  21.966  0.0104  0.2484  0.1790
35489DOD     C150286   8.758   9.793   6.022 -0.0622 -0.2241  0.1385
35489DOD     C250287   8.530   9.948   6.412 -0.1369  0.2883 -0.0369
35489DOD     C350288   8.661   9.840   6.841 -0.0027  0.1245  0.0918
35490DOD     C150289   3.432  20.568   9.243 -0.1157 -0.5511 -0.0422
35490DOD     C250290   3.386  20.653   8.782 -0.2448 -0.2094  0.1663
35490DOD     C350291   3.284  20.359   8.404  0.3190  0.1861  0.0757
35491DOD     C150292   2.880   1.951   7.420  0.0286 -0.3815  0.3377
35491DOD     C250293   2.828   1.529   7.606  0.0320  0.0077  0.3961
35491DOD     C350294   2.770   1.309   8.034 -0.0057 -0.0403  0.0143
35492DOD     C150295   3.379  16.579  25.478 -0.0744  0.2692 -0.0997
35492DOD     C250296   3.485  16.987  25.667 -0.1887 -0.1117 -0.1137
35492DOD     C350297   3.327  17.457  25.742 -0.1565  0.1121 -0.2314
35493DOD     C150298  21.473   0.416  12.403  0.0481 -0.3118 -0.1239
35493DOD     C250299  21.203   0.258  12.706  0.0560 -0.0653  0.0927
35493DOD     C350300  20.836  30.317  12.867 -0.4979 -0.0797  0.1680
35494DOD     C150301   5.418  25.880  17.178 -0.1856 -0.2320  0.0592
35494DOD     C250302   5.161  25.639  17.452  0.0048 -0.2418  0.0524
35494DOD     C350303   4.721  25.647  17.643 -0.1085 -0.3963  0.0924
35495DOD     C150304  22.181  29.022  11.315  0.1220  0.3632 -0.0309
35495DOD     C250305  22.233  29.335  10.992 -0.1273 -0.1169  0.1916
35495DOD     C350306  22.011  29.354  10.524  0.2405 -0.0739  0.1573
35496DOD     C150307  12.779  20.084  10.861 -0.0041  0.0206 -0.2727
35496DOD     C250308  12.436  20.280  10.669  0.0822  0.0354  0.0689
35496DOD     C350309  12.019  20.238  10.372  0.2413  0.0305  0.0134
35497DOD     C150310   9.265  26.186   0.084  0.1775  0.0934  0.2573
35497DOD     C250311   9.368  25.722   0.297  0.2984  0.0381 -0.0002
35497DOD     C350312   9.446  25.250   0.363 -0.0514 -0.1532  0.0169
35498DOD     C150313   0.284   9.225   4.287  0.3157  0.1291  0.1297
35498DOD     C250314   0.268   8.824   4.484 -0.1722  0.1131  0.1479
35498DOD     C350315   0.261   8.352   4.462 -0.2884 -0.3172  0.0830
35499DOD     C150316   9.136  28.409  29.545  0.1321 -0.1472 -0.0139
35499DOD     C250317   9.456  28.546  29.255 -0.1099 -0.2864 -0.0641
35499DOD     C350318   9.591  28.497  28.827  0.0406  0.1129 -0.0657
35500DOD     C150319   6.082  25.388   7.959  0.2148 -0.2618 -0.4698
35500DOD     C250320   5.772  25.339   8.275 -0.1566 -0.0356 -0.2292
35500DOD     C350321   5.342  25.170   8.308 -0.1307  0.2314  0.1356
35501DOD     C150322  29.363   5.961   2.801  0.2164  0.0525 -0.1376
35501DOD     C250323  29.298   6.370   3.023 -0.2816 -0.2751 -0.2330
35501DOD     C350324  29.388   6.756   3.254  0.1977  0.1612 -0.1661
35502DOD     C150325  29.059  26.559  29.451 -0.1164  0.1594  0.0275
35502DOD     C250326  28.737  26.789  29.703  0.2760 -0.1079 -0.0272
35502DOD     C350327  28.551  27.189  29.515  0.1055  0.0557  0.0198
35503DOD     C150328   2.688  23.580  11.588 -0.1316  0.0572  0.2191
35503DOD     C250329   2.287  23.708  11.742  0.1345  0.4418  0.1155
35503DOD     C350330   1.998  24.019  11.468  0.1004 -0.3211 -0.0531
35504DOD     C150331   4.594   4.176  23.349  0.0574  0.0145  0.0974
35504DOD     C250332   4.625   4.022  23.813 -0.1129  0.2151  0.1644
35504DOD     C350333   4.192   4.007  24.102 -0.0366  0.2485  0.0909
35505DOD     C150334  13.227  12.023  23.878 -0.0519 -0.0897  0.1660
35505DOD     C250335  13.263  11.810  24.292 -0.1664  0.3283  0.1921
35505DOD     C350336  13.654  11.799  24.575  0.3960 -0.1113  0.0553
35506DOD     C150337  17.645   6.222   3.636 -0.0001 -0.2702 -0.0805
35506DOD     C250338  17.788   6.019   3.210 -0.0135  0.2244 -0.1866
35506DOD     C350339  18.186   6.063   2.975 -0.0194  0.0038 -0.0551
35507DOD     C150340   8.134  29.328  25.275 -0.1479 -0.1040  0.2176
35507DOD     C250341   8.430  28.990  25.089  0.3287 -0.2096  0.5568
35507DOD     C350342   8.524  28.696  24.723 -0.6852 -0.2582  0.3023
35508DOD     C150343  18.009  21.827  17.558  0.4065 -0.1377  0.3437
35508DOD     C250344  17.610  21.970  17.383  0.1827  0.0669  0.0699
35508DOD     C350345  17.583  21.997  16.940 -0.4719  0.1736 -0.0824
35509DOD     C150346   2.754   4.982  26.100 -0.0621  0.0326 -0.1774
35509DOD     C250347   3.221   4.938  26.205  0.1788  0.2760 -0.0034
35509DOD     C350348   3.551   5.150  25.960  0.1688  0.2431 -0.1489
35510DOD     C150349  24.095  25.211   4.051  0.1140  0.2848 -0.1895
35510DOD     C250350  24.507  24.962   4.144 -0.1663 -0.2991  0.1175
35510DOD     C350351  24.989  24.974   4.236  0.0304  0.0561  0.0315
35511DOD     C150352  20.815   4.615  19.194 -0.0022 -0.0921 -0.4742
35511DOD     C250353  20.345   4.628  19.350 -0.0496  0.0798 -0.1115
35511DOD     C350354  20.015   4.391  19.514 -0.3481  0.3059  0.1432
35512DOD     C150355   7.801   5.740  20.376  0.0130  0.0277  0.0139
35512DOD     C250356   7.773   6.128  20.674 -0.1384  0.3603  0.0315
35512DOD     C350357   7.943   6.551  20.532  0.3037 -0.0327 -0.1429
35513DOD     C150358   3.516  22.250   7.399  0.0400 -0.1949 -0.1218
35513DOD     C250359   3.105  22.011   7.260  0.1683 -0.0346  0.0671
35513DOD     C350360   2.932  21.513   7.271 -0.2403 -0.1245  0.0530
35514DOD     C150361  23.870  18.289   9.130  0.0162 -0.0105 -0.2262
35514DOD     C250362  23.597  17.871   9.068 -0.1328 -0.1104 -0.1945
35514DOD     C350363  23.243  17.645   9.230  0.2692  0.1175  0.2582
35515DOD     C150364  18.982  18.910  24.247  0.1514  0.3002 -0.0950
35515DOD     C250365  19.112  18.807  23.818  0.0864 -0.1551  0.0515
35515DOD     C350366  19.208  19.008  23.407  0.0527  0.0932 -0.0495
35516DOD     C150367  13.434  11.338  12.287  0.0356 -0.1580  0.0522
35516DOD     C250368  13.840  11.129  12.257 -0.5542  0.3201  0.0056
35516DOD     C350369  14.094  10.910  11.900 -0.1517  0.1394 -0.0512
35517DOD     C150370  23.124  16.874  15.243  0.1172 -0.0752 -0.1922
35517DOD     C250371  22.710  16.602  15.363  0.1247 -0.0005 -0.0267
35517DOD     C350372  22.523  16.199  15.282  0.0886 -0.2156 -0.0126
35518DOD     C150373   3.704  21.725  12.499  0.0185 -0.1134  0.0580
35518DOD     C250374   4.032  22.014  12.703  0.0086 -0.0469  0.1410
35518DOD     C350375   4.193  22.349  12.919 -0.3323 -0.1192  0.2099
35519DOD     C150376   3.734   8.864  21.668  0.1836 -0.0660 -0.3847
35519DOD     C250377   3.586   8.721  21.203  0.3165  0.2968 -0.3574
35519DOD     C350378   3.639   8.702  20.748  0.1080 -0.0686 -0.2675
35520DOD     C150379   4.504  26.446   4.186  0.0918  0.0264  0.0469
35520DOD     C250380   4.400  26.241   3.786 -0.0225  0.2516  0.1277
35520DOD     C350381   4.470  26.071   3.344 -0.2985  0.2364 -0.0071
35521DOD     C150382  26.057  14.810  17.828 -0.2919 -0.1598 -0.0013
35521DOD     C250383  26.040  15.163  18.070  0.0014 -0.0508  0.0202
35521DOD     C350384  26.078  15.375  18.452  0.2696 -0.2901 -0.1239
35522DOD     C150385   1.510   0.124  27.197 -0.0355  0.0333 -0.4863
35522DOD     C250386   1.899   0.280  27.348 -0.0080  0.0911  0.1170
35522DOD     C350387   2.358   0.167  27.456 -0.2654  0.2396 -0.1759
35523DOD     C150388   0.263   0.762  10.572  0.0503  0.0234  0.0756
35523DOD     C250389   0.711   0.760  10.544 -0.0782 -0.2659 -0.0396
35523DOD     C350390   1.106   1.036  10.662 -0.0009 -0.1900 -0.0006
35524DOD     C150391   8.864  15.860   4.985 -0.1189 -0.2565 -0.0772
35524DOD     C250392   9.275  16.040   4.935 -0.3224  0.1804  0.1602
35524DOD     C350393   9.777  15.957   5.085 -0.0693 -0.0071 -0.0515
35525DOD     C150394  12.567  21.829   7.604 -0.0009  0.1053 -0.2318
35525DOD     C250395  12.255  21.960   7.864 -0.0276  0.0489  0.1442
35525DOD     C350396  11.885  21.676   7.847  0.0455  0.3931  0.1449
35526DOD     C150397  28.080   4.527  14.917  0.0985 -0.1078  0.0104
35526DOD     C250398  27.729   4.749  15.147 -0.3945  0.1672 -0.1787
35526DOD     C350399  27.476   5.090  14.972 -0.1160 -0.0393  0.0649
35527DOD     C150400  15.182  12.051  14.802 -0.2591 -0.1048  0.1782
35527DOD     C250401  14.727  11.914  14.766  0.3576 -0.0474  0.1204
35527DOD     C350402  14.255  11.839  14.873 -0.0838  0.1051 -0.0836
35528DOD     C150403  16.796  25.676  14.854 -0.0532 -0.0042  0.1259
35528DOD     C250404  16.815  25.219  14.940 -0.2932  0.3280 -0.0516
35528DOD     C350405  16.732  24.759  15.087 -0.0308 -0.0717 -0.0520
35529DOD     C150406  26.987   9.390  25.572  0.3135  0.0271 -0.2446
35529DOD     C250407  26.527   9.483  25.351 -0.1033 -0.0618  0.0920
35529DOD     C350408  26.494   9.419  24.860  0.0675 -0.0383 -0.0320
35530DOD     C150409  11.148  22.008  24.154 -0.1168 -0.2344 -0.1294
35530DOD     C250410  11.179  21.730  24.483  0.0460  0.1444  0.0266
35530DOD     C350411  11.463  21.660  24.787 -0.0547  0.2006 -0.0647
35531DOD     C150412  26.417   5.519  16.407 -0.1762  0.2087 -0.1907
35531DOD     C250413  26.118   5.855  16.225  0.1932 -0.3168 -0.0707
35531DOD     C350414  25.861   5.803  15.862  0.1205  0.0172 -0.0726
35532DOD     C150415  23.721  16.021  11.057 -0.1918  0.0093  0.1830
35532DOD     C250416  23.652  16.336  10.736 -0.1787  0.1800  0.3596
35532DOD     C350417  23.745  16.640  10.462 -0.0518 -0.1602  0.2509
35533DOD     C150418  21.755   2.286  30.270 -0.0833 -0.3572  0.2609
35533DOD     C250419  21.800   2.776  30.218 -0.1442  0.4188  0.1925
35533DOD     C350420  22.147   3.091  30.013 -0.0924  0.0897 -0.0284
35534DOD     C150421  11.479  10.707  22.666 -0.1996  0.0358 -0.0875
35534DOD     C250422  11.464  10.361  22.391  0.0122 -0.3063  0.2127
35534DOD     C350423  11.734  10.210  22.100 -0.0507  0.0492  0.0297
35535DOD     C150424  10.068  23.193   4.643 -0.2660  0.1568  0.3323
35535DOD     C250425   9.908  22.784   4.727  0.4771  0.1765  0.0613
35535DOD     C350426   9.475  22.684   4.979 -0.1165  0.0182  0.2759
35536DOD     C150427  29.448  17.999   5.872  0.0281  0.2000  0.3630
35536DOD     C250428  29.179  17.597   5.888  0.1549 -0.1296  0.2217
35536DOD     C350429  28.896  17.196   5.843  0.1670  0.3134  0.2370
35537DOD     C150430  30.098  25.692  28.891  0.1415  0.0205  0.0264
35537DOD     C250431  29.743  25.576  28.617  0.2080 -0.1484 -0.2977
35537DOD     C350432  29.323  25.412  28.454 -0.1968 -0.1024  0.0490
35538DOD     C150433  20.583   5.212   7.495  0.0191  0.1679 -0.1892
35538DOD     C250434  20.411   4.991   7.892  0.0460  0.1622  0.1199
35538DOD     C350435  20.253   4.717   8.289  0.1545 -0.2109  0.0338
35539DOD     C150436  29.444   0.953   1.150  0.0234  0.3442 -0.1195
35539DOD     C250437  29.814   0.695   1.258 -0.3698 -0.0740  0.2105
35539DOD     C350438  30.048   0.562   1.665  0.1351 -0.0641  0.0811
35540DOD     C150439  15.781  13.355  27.577 -0.4401 -0.0069 -0.0607
35540DOD     C250440  15.494  13.297  27.938  0.1941 -0.1798  0.0402
35540DOD     C350441  15.427  12.930  28.251 -0.0056  0.0227  0.4004
35541DOD     C150442   3.581  18.725  20.686 -0.0608  0.0456  0.0068
35541DOD     C250443   3.288  18.789  21.087  0.1108  0.1221 -0.1548
35541DOD     C350444   3.049  18.815  21.468  0.1284  0.0522  0.1401
35542DOD     C150445  21.467  21.142   7.258 -0.3330 -0.0115 -0.4863
35542DOD     C250446  21.504  21.086   7.753 -0.1084 -0.1866 -0.0661
35542DOD     C350447  21.501  21.143   8.168  0.1103 -0.0117  0.1144
35543DOD     C150448  20.060  11.978   5.682 -0.1553  0.0297  0.2373
35543DOD     C250449  19.680  11.818   5.895  0.1754 -0.1415 -0.0773
35543DOD     C350450  19.329  11.539   6.065  0.0368 -0.2152  0.2912
35544DOD     C150451   1.152  17.931   2.588 -0.2203 -0.2668 -0.0000
35544DOD     C250452   1.300  18.365   2.801 -0.2372  0.1168 -0.2086
35544DOD     C350453   1.250  18.762   2.938  0.1877 -0.0908 -0.1507
35545DOD     C150454   4.622  17.837  28.323  0.0753  0.0941  0.1307
35545DOD     C250455   4.216  18.046  28.238  0.0656 -0.1438  0.2480
35545DOD     C350456   3.929  18.345  27.989  0.0274 -0.2966 -0.0398
35546DOD     C150457  23.424  19.408  24.700 -0.0894  0.0061 -0.1914
35546DOD     C250458  23.690  19.199  25.035  0.1468  0.0878  0.1820
35546DOD     C350459  23.927  18.975  25.366  0.2354 -0.0123  0.0467
35547DOD     C150460  29.013   3.065   5.789 -0.0118  0.1166 -0.3238
35547DOD     C250461  28.823   2.701   5.508  0.2270  0.1759 -0.1529
35547DOD     C350462  28.549   2.627   5.124 -0.3223 -0.2308  0.1134
35548DOD     C150463   0.360  24.073  27.352  0.1489  0.1989 -0.3118
35548DOD     C250464   0.331  24.563  27.275  0.2579  0.2178  0.1234
35548DOD     C350465   0.176  24.726  26.842 -0.0396  0.0906  0.1893
35549DOD     C150466  29.897  16.312   9.336 -0.5410 -0.2358 -0.1606
35549DOD     C250467  29.790  16.357   9.766  0.3091  0.0609  0.0038
35549DOD     C350468  29.516  16.348  10.164 -0.1695  0.2205 -0.1217
35550DOD     C150469  19.672  20.877  20.666 -0.3577  0.2705  0.0251
35550DOD     C250470  19.736  20.687  21.037 -0.0829 -0.4305 -0.2516
35550DOD     C350471  19.737  20.313  21.318 -0.2888  0.0518  0.0570
35551DOD     C150472  28.635  24.208  11.603  0.1422 -0.2006  0.1248
35551DOD     C250473  28.914  23.928  11.347  0.1007  0.2764  0.0841
35551DOD     C350474  29.335  23.947  11.223 -0.0716  0.0887  0.3001
35552DOD     C150475  26.114  17.850  17.996 -0.1878 -0.1015  0.0105
35552DOD     C250476  26.247  18.102  17.634  0.0442  0.0629  0.0620
35552DOD     C350477  26.303  18.187  17.162 -0.1120  0.0866  0.2760
35553DOD     C150478  29.764   0.442  11.297 -0.0380 -0.1036 -0.1465
35553DOD     C250479  29.975   0.873  11.237  0.1401 -0.3258 -0.0140
35553DOD     C350480  30.134   1.242  11.420 -0.0180  0.0095  0.0071
35554DOD     C150481   7.266  15.427   2.697 -0.1171  0.2247  0.2910
35554DOD     C250482   7.752  15.371   2.650 -0.2152  0.1606 -0.0530
35554DOD     C350483   8.046  15.052   2.641  0.2206  0.0396  0.2558
35555DOD     C150484  19.457  18.747   0.355 -0.2209  0.2149  0.2866
35555DOD     C250485  19.857  18.475   0.270  0.0629  0.1048  0.1040
35555DOD     C350486  19.846  18.051   0.349  0.3614 -0.0628  0.0884
35556DOD     C150487   4.658  13.489  16.589  0.0367  0.0255 -0.1206
35556DOD     C250488   4.509  13.945  16.626  0.0214 -0.0049 -0.3722
35556DOD     C350489   4.348  14.228  16.965  0.2026 -0.0315  0.1491
35557DOD     C150490  17.047  22.721  20.572 -0.0612  0.2593 -0.0372
35557DOD     C250491  17.488  22.771  20.486  0.0066  0.0237  0.0832
35557DOD     C350492  17.901  22.526  20.340 -0.0369  0.0728  0.0126
35558DOD     C150493   4.747  10.987  27.962 -0.0890  0.3220  0.1325
35558DOD     C250494   4.415  10.645  27.917 -0.0597  0.0107 -0.2461
35558DOD     C350495   4.557  10.258  28.012  0.0139 -0.1479  0.1178
35559DOD     C150496   0.446  11.314   2.697  0.2282  0.1273 -0.1436
35559DOD     C250497   0.845  11.602   2.756  0.0218  0.1013 -0.1618
35559DOD     C350498   0.923  11.952   2.442  0.1185 -0.0059  0.3021
35560DOD     C150499   0.172   1.804   8.024 -0.0477 -0.2131 -0.3730
35560DOD     C250500   0.394   1.474   7.740  0.0065 -0.2243 -0.2264
35560DOD     C350501   0.572   1.064   7.572 -0.0082 -0.0960 -0.0426
35561DOD     C150502   9.120  14.142  19.551 -0.1400 -0.0459 -0.1065
35561DOD     C250503   9.037  13.836  19.877 -0.2495  0.1558  0.0646
35561DOD     C350504   9.214  13.553  20.254 -0.2596  0.2039 -0.1736
35562DOD     C150505   3.642  28.603  13.917 -0.0393  0.1185  0.1775
35562DOD     C250506   3.401  28.191  13.770  0.0303  0.0505  0.0096
35562DOD     C350507   3.261  27.812  13.479 -0.0472 -0.0678 -0.2067
35563DOD     C150508  23.769  18.530   4.456 -0.0687  0.0354 -0.3386
35563DOD     C250509  23.961  18.877   4.166  0.2699  0.0200 -0.2289
35563DOD     C350510  24.160  19.230   3.991 -0.0731 -0.1311  0.0678
35564DOD     C150511   7.630   2.254  21.021 -0.1105 -0.2516  0.0108
35564DOD     C250512   7.993   1.999  20.859  0.3195 -0.1420  0.2163
35564DOD     C350513   8.134   2.044  20.403  0.1048 -0.1913  0.1538
35565DOD     C150514  13.135   9.927   1.816 -0.0936  0.0091 -0.2372
35565DOD     C250515  12.673  10.042   1.961  0.1669 -0.0652 -0.3476
35565DOD     C350516  12.364  10.349   1.839 -0.0271 -0.4100 -0.1511
35566DOD     C150517  17.657  13.856  13.798 -0.0957  0.3564 -0.2390
35566DOD     C250518  17.961  13.751  14.146 -0.0233 -0.2855 -0.2461
35566DOD     C350519  18.171  13.404  14.338 -0.1294 -0.2449  0.1449
35567DOD     C150520  12.183  28.105  29.040  0.0914  0.0867  0.1750
35567DOD     C250521  12.604  28.142  29.231  0.0183 -0.0148 -0.0761
35567DOD     C350522  12.806  28.416  29.529 -0.1657 -0.1537  0.1361
35568DOD     C150523  14.854  17.360  24.895  0.1919 -0.0202 -0.3460
35568DOD     C250524  14.474  17.068  24.727  0.0301 -0.1545 -0.2079
35568DOD     C350525  14.114  16.856  24.535  0.1144 -0.0456 -0.0451
35569DOD     C150526  24.894   0.250  23.661  0.2674 -0.0015  0.1645
35569DOD     C250527  25.146   0.380  23.293 -0.1768 -0.1185 -0.1011
35569DOD     C350528  25.240   0.671  22.976 -0.3119 -0.0195  0.0506
35570DOD     C150529   1.625   7.323   7.769 -0.1811  0.0086  0.2962
35570DOD     C250530   2.016   7.153   7.507 -0.0614  0.2867  0.1689
35570DOD     C350531   2.341   7.067   7.179 -0.2256 -0.0154 -0.1267
35571DOD     C150532  10.704  18.508  17.690 -0.0874  0.3230 -0.2547
35571DOD     C250533  10.925  18.931  17.634  0.1454 -0.1376  0.2692
35571DOD     C350534  11.071  19.386  17.570 -0.1998  0.0763 -0.3167
35572DOD     C150535   6.231  12.856   4.187 -0.0105 -0.1101 -0.0486
35572DOD     C250536   6.654  12.989   4.274 -0.4404  0.1462  0.2733
35572DOD     C350537   7.055  13.116   4.465 -0.0358 -0.0650 -0.0080
35573DOD     C150538  22.483   6.731  15.726 -0.1868  0.3049  0.1112
35573DOD     C250539  22.665   7.170  15.716  0.2005 -0.1261 -0.2234
35573DOD     C350540  22.912   7.435  15.360 -0.0751 -0.1531 -0.0187
35574DOD     C150541   8.934  25.285  26.591  0.1569 -0.1063 -0.0589
35574DOD     C250542   8.883  24.937  26.941 -0.0073  0.1522  0.2072
35574DOD     C350543   8.783  24.767  27.371 -0.0709 -0.2648  0.1262
35575DOD     C150544  23.289  14.169  21.676  0.1214 -0.0076  0.1457
35575DOD     C250545  23.103  14.430  21.971  0.0502  0.2864  0.0466
35575DOD     C350546  22.656  14.467  22.065 -0.1226  0.3441 -0.0196
35576DOD     C150547   8.330  25.215  29.496 -0.0313  0.2800 -0.0164
35576DOD     C250548   8.586  24.819  29.591 -0.0568 -0.3092  0.0315
35576DOD     C350549   8.795  24.415  29.559  0.1122 -0.1320  0.1954
35577DOD     C150550   9.914  25.238  20.937 -0.1204 -0.1328  0.1710
35577DOD     C250551  10.362  25.348  21.054  0.1432  0.0069  0.3376
35577DOD     C350552  10.728  25.471  21.322  0.1840  0.4551 -0.0335
35578DOD     C150553   7.468   0.381   8.118 -0.1793 -0.1582 -0.0214
35578DOD     C250554   7.628   0.808   8.287 -0.3664 -0.0737 -0.1946
35578DOD     C350555   7.658   1.220   8.521 -0.1426  0.3846  0.1280
35579DOD     C150556  25.667  19.554  22.635 -0.2309 -0.2768 -0.0328
35579DOD     C250557  26.026  19.857  22.648 -0.2073 -0.1433 -0.2762
35579DOD     C350558  26.071  20.295  22.844 -0.2270  0.2523 -0.0618
35580DOD     C150559  16.710   8.556  10.011  0.3063 -0.0713 -0.0945
35580DOD     C250560  16.649   8.807   9.630  0.6241  0.2164 -0.1320
35580DOD     C350561  16.508   9.166   9.318 -0.0601  0.1675  0.1888
35581DOD     C150562  29.900  13.543  12.703  0.0118  0.4847  0.1060
35581DOD     C250563  29.893  13.894  13.033 -0.1482  0.1303  0.0457
35581DOD     C350564  30.153  14.158  13.365  0.0556  0.0705  0.2729
35582DOD     C150565   4.317  17.745  26.260  0.0896  0.0111 -0.0936
35582DOD     C250566   4.090  18.095  26.005 -0.1322 -0.0413  0.0784
35582DOD     C350567   3.648  18.282  25.989  0.1889 -0.0695 -0.1433
35583DOD     C150568   4.891   1.519  13.158  0.1181  0.2392 -0.1808
35583DOD     C250569   4.636   1.268  13.431  0.1324 -0.0455  0.0342
35583DOD     C350570   4.238   0.951  13.612 -0.3103 -0.1388  0.0182
35584DOD     C150571  18.667  25.340  11.260 -0.2917  0.0552  0.0725
35584DOD     C250572  18.207  25.468  11.473 -0.0396 -0.3163 -0.4624
35584DOD     C350573  17.820  25.609  11.730  0.0764  0.3181  0.0843
35585DOD     C150574  17.565   9.673   2.964  0.1075  0.1215  0.1975
35585DOD     C250575  17.984   9.744   3.056 -0.0207  0.1730 -0.2311
35585DOD     C350576  18.155   9.740   3.508  0.0830 -0.0382 -0.0537
35586DOD     C150577  17.374  12.232  13.880 -0.0553  0.1300  0.2718
35586DOD     C250578  17.012  12.244  14.147 -0.0415  0.2117  0.1240
35586DOD     C350579  16.622  12.162  14.228  0.2242 -0.0538 -0.0107
35587DOD     C150580  14.208   0.039  22.246  0.3831 -0.0058  0.0735
35587DOD     C250581  14.025   0.475  22.466  0.1599  0.0308  0.1086
35587DOD     C350582  13.883   0.767  22.777  0.1060 -0.0507 -0.0853
35588DOD     C150583  15.705  14.302   6.633  0.3028 -0.2525 -0.0706
35588DOD     C250584  15.295  14.161   6.803  0.0652  0.1977  0.0445
35588DOD     C350585  15.182  13.972   7.174 -0.2698  0.2580 -0.2269
35589DOD     C150586  29.580   8.696  23.547  0.2831  0.2612 -0.0915
35589DOD     C250587  29.467   8.284  23.380 -0.1635  0.1409 -0.0311
35589DOD     C350588  29.561   7.897  23.121 -0.2804  0.0124  0.0516
35590DOD     C150589  24.565   9.259   7.140  0.0194 -0.0049 -0.3540
35590DOD     C250590  24.202   8.889   7.274 -0.5002 -0.1675  0.0393
35590DOD     C350591  24.064   8.512   7.477  0.2651 -0.1727 -0.3810
35591DOD     C150592  22.270  13.986  20.478  0.0282  0.3505  0.0208
35591DOD     C250593  22.734  13.858  20.455 -0.2120  0.1682  0.0413
35591DOD     C350594  22.966  13.690  20.834  0.0002 -0.0573 -0.0261
35592DOD     C150595   1.324  25.629  13.926  0.0087  0.2059 -0.1903
35592DOD     C250596   1.145  25.868  14.248  0.0980  0.0991  0.2420
35592DOD     C350597   1.037  26.300  14.288 -0.0894 -0.0411  0.0150
35593DOD     C150598   3.606  17.750   2.671  0.1278  0.0704 -0.0584
35593DOD     C250599   3.168  17.582   2.561 -0.1994 -0.0378  0.1553
35593DOD     C350600   2.809  17.552   2.884  0.0146  0.1770 -0.1022
35594DOD     C150601  22.787  16.896  17.026 -0.2389 -0.1894  0.2658
35594DOD     C250602  22.839  17.179  17.363 -0.0260 -0.2701  0.4921
35594DOD     C350603  22.680  17.430  17.734 -0.2861  0.1626  0.0864
35595DOD     C150604   7.923  12.836  24.123  0.1436  0.0638  0.0995
35595DOD     C250605   8.314  12.589  24.066  0.1615 -0.2953  0.1171
35595DOD     C350606   8.725  12.336  24.231  0.3119 -0.0971  0.0505
35596DOD     C150607  10.346  22.578   4.918 -0.0904  0.1572 -0.0027
35596DOD     C250608  10.459  22.812   5.292  0.2648  0.1891  0.1308
35596DOD     C350609  10.602  22.846   5.705  0.0453  0.0069  0.0420
35597DOD     C150610   9.724  27.178  15.436 -0.1626  0.0996 -0.1593
35597DOD     C250611   9.613  27.330  15.858  0.0212  0.6007 -0.0461
35597DOD     C350612   9.203  27.183  16.031  0.2841  0.1673  0.1427
35598DOD     C150613   5.043  11.363  20.181  0.1931  0.0788  0.1995
35598DOD     C250614   4.672  11.506  20.017  0.1674  0.0357 -0.1521
35598DOD     C350615   4.346  11.770  20.230 -0.1564 -0.1190 -0.0119
35599DOD     C150616  21.956  29.000  23.585  0.1233  0.1362  0.0492
35599DOD     C250617  22.184  29.352  23.298  0.2350 -0.0772 -0.0131
35599DOD     C350618  22.263  29.606  22.963  0.1853 -0.1599  0.1193
35600DOD     C150619  14.260   9.953  25.364  0.0455  0.0081  0.1179
35600DOD     C250620  13.834   9.994  25.062  0.1065 -0.0543  0.2493
35600DOD     C350621  13.476   9.853  24.822  0.1464 -0.1428 -0.1122
35601DOD     C150622   6.812   1.903  17.759  0.1157 -0.1886  0.0801
35601DOD     C250623   6.786   1.729  17.316  0.0727 -0.3264 -0.0602
35601DOD     C350624   6.846   1.451  16.932  0.3136 -0.0468  0.0508
35602DOD     C150625  26.635  27.667  27.771 -0.1922  0.1411  0.1216
35602DOD     C250626  26.648  28.165  27.960  0.2430 -0.1242 -0.1008
35602DOD     C350627  26.562  28.561  28.184  0.2289 -0.0747  0.0309
35603DOD     C150628   0.511  19.852  27.314  0.1328 -0.0209  0.1196
35603DOD     C250629   0.678  19.914  26.903  0.1562 -0.1374  0.0281
35603DOD     C350630   0.758  19.968  26.443 -0.0249 -0.0029 -0.1431
35604DOD     C150631  21.368  10.039  18.107  0.0918  0.2012 -0.4464
35604DOD     C250632  21.046   9.962  17.867  0.0335  0.1721  0.0547
35604DOD     C350633  21.006   9.969  17.453 -0.0272 -0.1679 -0.1191
35605DOD     C150634  14.183  16.267  24.511 -0.1227 -0.2228  0.0347
35605DOD     C250635  14.559  16.125  24.668 -0.1086 -0.1609  0.0575
35605DOD     C350636  14.997  16.333  24.695 -0.1416  0.1490 -0.2230
35606DOD     C150637  24.295  20.787   9.365  0.0517  0.5152  0.0639
35606DOD     C250638  24.007  20.477   9.147 -0.0966 -0.3713 -0.0528
35606DOD     C350639  23.930  20.051   9.234  0.3078 -0.0020  0.0515
35607DOD     C150640  24.870  16.149  12.849 -0.0900  0.1385  0.1406
35607DOD     C250641  24.974  16.459  13.242  0.1040 -0.0091  0.1776
35607DOD     C350642  25.049  16.261  13.622  0.3274  0.2764 -0.2097
35608DOD     C150643   2.947   8.430  12.343  0.0539  0.1689  0.1284
35608DOD     C250644   3.128   8.130  12.006  0.1644  0.0633  0.0600
35608DOD     C350645   3.301   7.941  11.550  0.0223 -0.0324  0.4658
35609DOD     C150646  13.900   9.064  25.575  0.1259  0.0824 -0.0816
35609DOD     C250647  13.688   8.843  25.209  0.1756 -0.2880  0.1236
35609DOD     C350648  13.368   8.676  24.883  0.0180 -0.0996  0.0352
35610DOD     C150649  21.575  25.637   6.291  0.1747  0.0861  0.0456
35610DOD     C250650  21.197  25.625   6.556 -0.1302 -0.1887  0.1972
35610DOD     C350651  20.887  25.450   6.881 -0.2154  0.4463 -0.2769
35611DOD     C150652  18.749  17.029  23.163  0.0936  0.2456 -0.0021
35611DOD     C250653  18.295  16.954  22.999 -0.2421  0.0859 -0.2586
35611DOD     C350654  17.875  16.704  22.983  0.0499  0.1746  0.0326
35612DOD     C150655   1.462   6.666  12.991  0.0208  0.2013 -0.1766
35612DOD     C250656   1.093   6.436  13.087  0.1635 -0.2023  0.0188
35612DOD     C350657   0.928   6.052  12.857 -0.1678 -0.0609 -0.1207
35613DOD     C150658  11.208  18.970  18.540 -0.0636  0.1614  0.2519
35613DOD     C250659  11.439  18.599  18.565 -0.0272 -0.1093 -0.0712
35613DOD     C350660  11.353  18.066  18.492  0.1055  0.2098  0.1035
35614DOD     C150661  10.912  12.837  21.852 -0.0285 -0.1466  0.0638
35614DOD     C250662  10.925  12.945  22.317  0.2641 -0.2623 -0.1100
35614DOD     C350663  11.297  13.086  22.552  0.1306  0.1099  0.2117
35615DOD     C150664  15.661   0.479  26.601  0.0918  0.1555  0.1062
35615DOD     C250665  15.766   0.433  26.147  0.0751  0.3482 -0.0362
35615DOD     C350666  15.867   0.468  25.651 -0.0030 -0.0695 -0.0206
35616DOD     C150667  16.563  24.317  26.073  0.1979 -0.2442 -0.0098
35616DOD     C250668  16.862  23.923  26.169  0.1181  0.3194 -0.0065
35616DOD     C350669  17.006  23.426  26.184  0.0831  0.0170  0.1007
35617DOD     C150670  24.582   7.175  23.136 -0.2004  0.0841 -0.0277
35617DOD     C250671  24.357   6.773  23.143 -0.2066 -0.3640  0.3309
35617DOD     C350672  23.986   6.463  23.169 -0.3201 -0.1557 -0.1780
35618DOD     C150673  25.440   8.787  21.772 -0.0942 -0.1005 -0.1924
35618DOD     C250674  25.441   8.320  21.867  0.0255  0.1064 -0.1033
35618DOD     C350675  25.319   8.086  22.232  0.1157 -0.0330  0.2414
35619DOD     C150676  13.171  19.157   5.854 -0.2326 -0.1421 -0.2034
35619DOD     C250677  13.600  19.059   5.982 -0.1126 -0.2642 -0.0949
35619DOD     C350678  13.938  19.376   5.907  0.2471  0.0385 -0.1001
35620DOD     C150679   2.203   1.893  18.562 -0.1262  0.0317  0.0178
35620DOD     C250680   2.327   1.799  18.128  0.1429  0.1816 -0.3542
35620DOD     C350681   2.548   1.736  17.708  0.1747 -0.4260 -0.0757
35621DOD     C150682   6.504  27.121  13.622 -0.1612  0.1996 -0.0643
35621DOD     C250683   6.672  27.500  13.656 -0.0386  0.2260  0.0556
35621DOD     C350684   6.980  27.693  13.994  0.2868 -0.0875  0.1268
35622DOD     C150685  11.020  23.397  26.369 -0.1792  0.1118 -0.0679
35622DOD     C250686  11.275  23.571  26.729 -0.3945  0.0392 -0.0243
35622DOD     C350687  11.331  23.927  27.016 -0.2485 -0.1884  0.2097
35623DOD     C150688  11.116  29.533  12.303  0.0198 -0.3697 -0.1225
35623DOD     C250689  10.836  29.525  12.645  0.1380 -0.0486 -0.0159
35623DOD     C350690  10.424  29.381  12.765 -0.1585 -0.1370  0.2423
35624DOD     C150691  14.919  19.297  30.323  0.2421  0.2236 -0.1384
35624DOD     C250692  15.060  19.106   0.343 -0.0694  0.1690 -0.0532
35624DOD     C350693  15.350  18.795   0.534 -0.0610  0.1421  0.2045
35625DOD     C150694  18.963  29.351  12.956 -0.0336 -0.3489  0.3318
35625DOD     C250695  18.965  29.630  12.566 -0.2411  0.1313  0.1545
35625DOD     C350696  19.060  29.891  12.209 -0.1234  0.2012  0.1775
35626DOD     C150697  11.949  28.217  26.486 -0.1212  0.1302 -0.0924
35626DOD     C250698  11.835  27.764  26.350  0.1066  0.1343  0.0395
35626DOD     C350699  11.537  27.416  26.496  0.0309  0.0050 -0.1702
35627DOD     C150700   7.543  10.504   8.309  0.2616  0.2556 -0.1760
35627DOD     C250701   7.471  10.923   8.523  0.0670  0.0394 -0.2524
35627DOD     C350702   7.276  11.312   8.702  0.0130 -0.2724 -0.1214
35628DOD     C150703  15.536  19.264  17.032 -0.0736 -0.2242 -0.1745
35628DOD     C250704  15.615  19.645  17.275 -0.0481 -0.0120 -0.4322
35628DOD     C350705  15.871  20.059  17.322  0.2691  0.1028 -0.1495
35629DOD     C150706   9.300  11.534  25.935 -0.0313 -0.1105  0.2208
35629DOD     C250707   9.591  11.545  25.582 -0.1714 -0.2755 -0.0578
35629DOD     C350708  10.061  11.418  25.440  0.4820  0.2289 -0.1761
35630DOD     C150709  17.110  26.970  25.306 -0.0596 -0.3929 -0.2544
35630DOD     C250710  17.312  27.099  25.707 -0.0469 -0.0313 -0.1453
35630DOD     C350711  17.510  27.013  26.127 -0.1604 -0.2797 -0.4327
35631DOD     C150712   0.416  12.474  29.083  0.0713 -0.1805 -0.0779
35631DOD     C250713   0.646  12.259  29.378  0.1028  0.0457  0.3191
35631DOD     C350714   0.930  11.938  29.583 -0.0375  0.0211  0.0655
35632DOD     C150715  14.738  14.089  10.536  0.0847  0.3542  0.1679
35632DOD     C250716  14.832  14.568  10.537  0.0628  0.1894 -0.0384
35632DOD     C350717  15.207  14.809  10.571 -0.3007 -0.1389  0.0818
35633DOD     C150718   1.842   1.792  19.300  0.2555  0.0745  0.2452
35633DOD     C250719   1.709   2.277  19.369 -0.0076 -0.0978 -0.0223
35633DOD     C350720   1.690   2.670  19.127 -0.1409  0.2282  0.0161
35634DOD     C150721  28.589  25.206  21.489 -0.0867  0.0130  0.1724
35634DOD     C250722  28.166  25.234  21.662  0.2058 -0.1280  0.0952
35634DOD     C350723  27.852  25.493  21.914 -0.4790  0.5170  0.1467
35635DOD     C150724  14.016  27.646  22.557  0.3474  0.2268 -0.1475
35635DOD     C250725  13.815  27.680  22.978 -0.0689  0.1530  0.1110
35635DOD     C350726  13.873  27.753  23.442  0.1899  0.0009  0.2793
35636DOD     C150727  29.512  17.622  18.355  0.1054  0.3931  0.0840
35636DOD     C250728  29.647  17.977  18.074 -0.0167 -0.3450 -0.0638
35636DOD     C350729  29.883  18.328  17.831  0.0071  0.1160 -0.0743
35637DOD     C150730  26.692  14.639   2.452  0.0941 -0.0765 -0.0190
35637DOD     C250731  26.285  14.377   2.513  0.0977  0.1345 -0.0401
35637DOD     C350732  25.790  14.377   2.574 -0.0032  0.1974  0.0481
35638DOD     C150733  25.487  21.892   6.175 -0.2528  0.0061  0.1384
35638DOD     C250734  25.402  21.944   6.665 -0.1804  0.1670 -0.0101
35638DOD     C350735  25.221  22.155   7.032 -0.3352 -0.0677  0.2701
35639DOD     C150736  16.556  16.089   6.910  0.5575 -0.5080 -0.0877
35639DOD     C250737  16.980  16.244   7.029 -0.4205 -0.1449  0.2256
35639DOD     C350738  17.426  16.396   6.986  0.2780  0.1230 -0.6324
35640DOD     C150739  19.307  26.283  15.647  0.2312  0.0548 -0.5584
35640DOD     C250740  18.962  26.596  15.494  0.0717 -0.0965  0.0631
35640DOD     C350741  18.851  26.790  15.109 -0.0400 -0.1231  0.4376
35641DOD     C150742  29.708   7.639  16.259 -0.2051 -0.0280 -0.0581
35641DOD     C250743  29.370   7.817  16.445  0.2312  0.1982  0.0048
35641DOD     C350744  28.969   7.663  16.714  0.2717  0.2774  0.1145
35642DOD     C150745  24.624   3.290   4.388  0.0323  0.2327  0.1325
35642DOD     C250746  24.355   2.928   4.508  0.0153 -0.2676 -0.1561
35642DOD     C350747  23.980   2.849   4.708 -0.1250  0.2752  0.3397
35643DOD     C150748   0.895  13.950   2.068  0.1240  0.0920 -0.1177
35643DOD     C250749   0.898  13.814   2.491 -0.2635  0.6097  0.0007
35643DOD     C350750   0.724  13.786   2.863 -0.2302 -0.0044 -0.1197
35644DOD     C150751   4.883  20.042   2.831  0.0966  0.1932  0.1829
35644DOD     C250752   5.327  19.917   2.744 -0.0405  0.0534  0.1099
35644DOD     C350753   5.760  19.773   2.959  0.4492  0.2398  0.0114
35645DOD     C150754  11.816  25.036   6.683 -0.1438  0.0680 -0.3034
35645DOD     C250755  12.225  24.819   6.491 -0.1570  0.1768 -0.1096
35645DOD     C350756  12.369  24.447   6.186  0.1810 -0.0863 -0.0263
35646DOD     C150757  26.439  15.063   9.444 -0.1105 -0.0403 -0.1614
35646DOD     C250758  26.181  15.193   9.083 -0.1722  0.1484 -0.1272
35646DOD     C350759  25.702  15.231   9.058  0.3006  0.0315 -0.0352
35647DOD     C150760  26.658  22.223   0.794 -0.1340 -0.4852 -0.2663
35647DOD     C250761  26.710  22.584   1.103 -0.4782 -0.4265  0.1998
35647DOD     C350762  26.775  22.986   1.350  0.6107 -0.0014  0.1085
35648DOD     C150763   3.037  27.029  19.037 -0.1405  0.0213  0.0677
35648DOD     C250764   2.673  26.877  18.749  0.2268  0.0277  0.1093
35648DOD     C350765   2.228  26.666  18.749  0.0219  0.0828 -0.1995
35649DOD     C150766   7.240  24.063   0.648 -0.2790 -0.0084  0.1048
35649DOD     C250767   7.106  23.733   1.005 -0.0645  0.0199 -0.1377
35649DOD     C350768   6.835  23.803   1.397  0.2267  0.2497 -0.0009
35650DOD     C150769   6.821  12.731  27.931  0.0017  0.2279 -0.2322
35650DOD     C250770   6.813  13.090  27.701  0.0624 -0.1909  0.2324
35650DOD     C350771   6.531  13.239  27.369 -0.1321 -0.1707 -0.0985
35651DOD     C150772  26.143   4.247   5.498  0.0916 -0.1505 -0.3327
35651DOD     C250773  26.490   4.473   5.253  0.3955 -0.0658 -0.5239
35651DOD     C350774  26.845   4.719   5.408 -0.1149 -0.1487 -0.0945
35652DOD     C150775   9.092   5.947  20.112 -0.1586  0.0630  0.1335
35652DOD     C250776   8.818   6.282  20.285  0.1521  0.1369  0.2072
35652DOD     C350777   8.387   6.391  20.225 -0.1039  0.3399 -0.2266
35653DOD     C150778   7.485  10.164   6.687  0.0993  0.2240  0.0240
35653DOD     C250779   7.735  10.097   7.037  0.3176 -0.0501 -0.0337
35653DOD     C350780   7.966  10.122   7.488  0.0707 -0.0064  0.1787
35654DOD     C150781   3.207   6.141  27.778  0.1849  0.1167 -0.1828
35654DOD     C250782   2.890   6.105  28.065 -0.1042  0.0757 -0.0469
35654DOD     C350783   2.409   6.153  28.082 -0.1679 -0.4102  0.1455
35655DOD     C150784   0.766  20.561  21.868  0.0304  0.1209  0.2041
35655DOD     C250785   0.995  20.479  21.481  0.1553 -0.3350  0.0898
35655DOD     C350786   0.996  20.418  21.010 -0.1093  0.1052  0.0219
35656DOD     C150787  22.780  17.748  19.453 -0.1049  0.1207  0.0500
35656DOD     C250788  23.246  17.761  19.628  0.0923 -0.0399 -0.1107
35656DOD     C350789  23.575  17.638  19.383  0.2694  0.0285  0.0096
35657DOD     C150790   0.853  21.900  23.055 -0.0037  0.2461 -0.0706
35657DOD     C250791   1.020  21.879  23.476  0.0971  0.1746 -0.1648
35657DOD     C350792   1.486  22.015  23.639  0.2238 -0.0671  0.1711
35658DOD     C150793   0.165  24.053  28.113 -0.0100  0.1952 -0.0284
35658DOD     C250794   0.179  24.457  27.792 -0.3248 -0.1613  0.3313
35658DOD     C350795   0.363  24.861  27.843 -0.0291 -0.2389  0.0196
35659DOD     C150796  23.089  12.615   1.819  0.0851  0.1318  0.0440
35659DOD     C250797  22.734  12.663   2.090  0.0425  0.1037 -0.1336
35659DOD     C350798  22.360  12.752   2.350  0.0799  0.0833  0.0193
35660DOD     C150799  30.235   6.108   3.034 -0.1229  0.2518  0.0329
35660DOD     C250800   0.376   6.012   2.909  0.0218  0.0847  0.2066
35660DOD     C350801   0.828   6.014   2.668  0.1649 -0.2477 -0.0896
35661DOD     C150802  17.659   2.472   1.699  0.0121 -0.2038 -0.0610
35661DOD     C250803  17.523   2.081   1.532 -0.3783  0.0338 -0.2990
35661DOD     C350804  17.189   1.760   1.530  0.2103 -0.0175 -0.2461
35662DOD     C150805  21.779   9.438   7.691  0.0552 -0.0435  0.2116
35662DOD     C250806  21.927   9.558   8.115 -0.0968  0.2869 -0.1363
35662DOD     C350807  22.164   9.655   8.479 -0.1065 -0.0900  0.0205
35663DOD     C150808  29.796  11.348  19.403  0.1886 -0.0200 -0.1362
35663DOD     C250809  29.858  11.561  19.768 -0.1665 -0.1371  0.2584
35663DOD     C350810  30.078  11.997  19.832  0.1077 -0.1006  0.2581
35664DOD     C150811  28.868  16.104   5.724  0.2759  0.2377 -0.2880
35664DOD     C250812  29.284  15.961   5.903  0.3716  0.2252 -0.0911
35664DOD     C350813  29.342  15.548   5.992 -0.1399 -0.0512 -0.2284
35665DOD     C150814   6.959  11.872  20.390 -0.1122 -0.0296 -0.1925
35665DOD     C250815   7.356  11.724  20.417  0.2046  0.2264 -0.1558
35665DOD     C350816   7.680  11.771  20.112  0.2231  0.0415  0.1593
35666DOD     C150817   8.215  17.819  12.212 -0.2921  0.0069  0.0902
35666DOD     C250818   7.797  17.802  12.424 -0.0278  0.0636  0.2732
35666DOD     C350819   7.388  17.609  12.586  0.0033 -0.0769 -0.3166
35667DOD     C150820  10.811   0.319  25.872 -0.0111 -0.0418  0.1396
35667DOD     C250821  10.735  30.201  25.732 -0.1108 -0.1279 -0.3191
35667DOD     C350822  10.358  30.072  25.998 -0.5363 -0.1310 -0.4025
35668DOD     C150823  20.771  15.330  29.459 -0.1727 -0.1057  0.2470
35668DOD     C250824  20.975  14.872  29.607  0.0483 -0.0515  0.1310
35668DOD     C350825  21.077  14.478  29.861 -0.0487  0.0423  0.1652
35669DOD     C150826  26.764   9.299  21.528  0.2341  0.0615  0.0677
35669DOD     C250827  26.954   9.734  21.620 -0.2124 -0.4254 -0.0612
35669DOD     C350828  27.324   9.986  21.737 -0.1357  0.2236 -0.0810
35670DOD     C150829   8.111  24.679  14.611  0.1540  0.0608  0.0192
35670DOD     C250830   7.890  24.513  14.225 -0.0883 -0.0029  0.2047
35670DOD     C350831   8.082  24.529  13.776 -0.3077  0.2900  0.0291
35671DOD     C150832  20.045   8.431  29.920 -0.3487 -0.2621  0.0704
35671DOD     C250833  19.624   8.311  29.772  0.1140 -0.0754 -0.1139
35671DOD     C350834  19.355   8.009  29.508 -0.4381  0.0241 -0.1339
35672DOD     C150835  30.216   4.695  19.898  0.0333  0.0375  0.1128
35672DOD     C250836  29.929   4.900  20.223 -0.2780 -0.1813  0.0183
35672DOD     C350837  29.658   5.297  20.248  0.3628 -0.0441  0.0555
35673DOD     C150838  29.625  16.393  11.958  0.1250 -0.1940 -0.1187
35673DOD     C250839  29.832  16.830  12.067 -0.0697 -0.0028  0.1826
35673DOD     C350840  30.187  17.068  11.933  0.0426  0.2527  0.1112
35674DOD     C150841  15.038  25.352  27.615 -0.1759  0.1208 -0.0340
35674DOD     C250842  14.979  25.085  27.978 -0.1182  0.2230  0.0354
35674DOD     C350843  15.283  24.917  28.232 -0.3024  0.2395  0.1139
35675DOD     C150844  19.593  15.501   0.075 -0.1828  0.2479 -0.0624
35675DOD     C250845  19.503  15.318   0.460  0.0524 -0.2893  0.0713
35675DOD     C350846  19.222  15.349   0.799 -0.0039  0.1721 -0.2026
35676DOD     C150847  23.455  20.037   1.573 -0.2324  0.0975  0.0984
35676DOD     C250848  23.528  20.468   1.384 -0.4714 -0.0738 -0.0449
35676DOD     C350849  23.593  20.509   0.962  0.1121  0.2989  0.0327
35677DOD     C150850  22.029  25.267   6.234  0.1383  0.0796  0.0439
35677DOD     C250851  22.121  24.944   6.444 -0.3385 -0.2969  0.1396
35677DOD     C350852  22.305  24.480   6.485 -0.0673 -0.2391  0.1704
35678DOD     C150853  19.597  20.281  23.382  0.0757 -0.2666  0.1106
35678DOD     C250854  19.403  20.398  22.994  0.1455 -0.2583  0.0474
35678DOD     C350855  19.640  20.649  22.629  0.1179 -0.2240  0.1683
35679DOD     C150856   7.243  18.289  28.684 -0.2687 -0.1701 -0.1448
35679DOD     C250857   7.035  18.552  29.002 -0.0790 -0.0804  0.2721
35679DOD     C350858   6.947  18.976  28.943  0.2619 -0.1657 -0.2019
35680DOD     C150859  27.701   2.513  10.932 -0.0241  0.0973 -0.0050
35680DOD     C250860  27.258   2.397  10.988 -0.4252  0.3730 -0.2131
35680DOD     C350861  26.808   2.397  10.901 -0.3271  0.2659 -0.1757
35681DOD     C150862   1.990  26.947  21.012  0.3294  0.2727  0.0593
35681DOD     C250863   2.056  26.576  20.722  0.2168  0.0304  0.1689
35681DOD     C350864   2.365  26.413  20.391  0.1761 -0.0786  0.0741
35682DOD     C150865  10.639  29.062  25.204 -0.1406  0.2322 -0.2158
35682DOD     C250866  10.356  29.349  25.490 -0.1504  0.4092 -0.1195
35682DOD     C350867  10.224  29.415  26.015 -0.0509  0.0690 -0.2661
35683DOD     C150868  15.824  19.524   8.170 -0.1137 -0.1011 -0.1861
35683DOD     C250869  15.719  19.261   7.817 -0.2570 -0.2019  0.3224
35683DOD     C350870  15.535  18.871   7.599 -0.1586  0.1177  0.4659
35684DOD     C150871   9.173   2.332  16.660 -0.2942 -0.1388 -0.1283
35684DOD     C250872   9.466   2.045  16.514 -0.1913 -0.1053  0.1297
35684DOD     C350873   9.807   1.976  16.202 -0.0932 -0.2749 -0.2649
35685DOD     C150874  27.191   9.093  29.015 -0.0408 -0.0215  0.1455
35685DOD     C250875  27.619   9.071  29.144 -0.1038 -0.0479  0.1273
35685DOD     C350876  28.093   9.209  29.041 -0.2872  0.0901 -0.3048
35686DOD     C150877   5.112   3.820   6.254  0.0390  0.0680 -0.0410
35686DOD     C250878   5.494   4.056   6.367  0.2743 -0.1242  0.0984
35686DOD     C350879   5.767   4.177   6.750 -0.0223 -0.1717 -0.1061
35687DOD     C150880   8.149  17.154  22.555  0.2692  0.2974  0.1202
35687DOD     C250881   7.830  16.985  22.235 -0.3564 -0.2339  0.4888
35687DOD     C350882   7.983  17.023  21.813 -0.0216 -0.0657 -0.0150
35688DOD     C150883  12.783  26.627   3.526 -0.0751 -0.0421 -0.0306
35688DOD     C250884  12.508  26.266   3.370  0.2073 -0.3242  0.1770
35688DOD     C350885  12.255  25.941   3.467 -0.0435  0.1139 -0.2009
35689DOD     C150886  17.915  24.321  11.704 -0.0296 -0.2409  0.4886
35689DOD     C250887  18.335  24.356  11.682  0.0699 -0.0990 -0.1532
35689DOD     C350888  18.750  24.543  11.860 -0.1063  0.0473 -0.2884
35690DOD     C150889   6.093  20.937  11.311 -0.1254  0.0734 -0.2030
35690DOD     C250890   6.314  20.613  11.043  0.1961 -0.1556  0.0714
35690DOD     C350891   6.250  20.257  10.806  0.3526  0.2372  0.1698
35691DOD     C150892  14.218  10.497   2.329  0.0844 -0.0112 -0.4413
35691DOD     C250893  13.811  10.310   2.078 -0.1365 -0.1471  0.0134
35691DOD     C350894  13.646   9.870   1.974  0.2004 -0.1508 -0.1062
35692DOD     C150895  20.376  21.116  17.931 -0.2304  0.0043  0.0118
35692DOD     C250896  20.631  20.758  18.178  0.3336  0.1696  0.1850
35692DOD     C350897  20.779  20.407  18.526 -0.1925  0.1302 -0.2583
35693DOD     C150898  19.937  26.435  10.652 -0.2292  0.1939  0.1963
35693DOD     C250899  19.970  25.997  10.409  0.1572 -0.0370  0.2993
35693DOD     C350900  19.897  25.857   9.977 -0.3276 -0.1233  0.1869
35694DOD     C150901  20.480   7.664  23.775  0.1716  0.2175 -0.2142
35694DOD     C250902  20.735   7.800  24.104 -0.0687  0.1706 -0.1352
35694DOD     C350903  20.938   7.992  24.515 -0.0007 -0.0363 -0.1964
35695DOD     C150904  17.026  17.028   1.185 -0.0971 -0.3968  0.1202
35695DOD     C250905  17.077  17.056   0.712  0.0704  0.2608  0.0962
35695DOD     C350906  17.021  16.752   0.430  0.4780 -0.0990  0.1958
35696DOD     C150907   6.142   8.263  27.930  0.0061 -0.0787 -0.0760
35696DOD     C250908   6.229   7.864  27.703 -0.1994 -0.0560  0.2284
35696DOD     C350909   6.616   7.718  27.471 -0.0024 -0.3360  0.1422
35697DOD     C150910  28.413   1.571  29.665  0.0430 -0.2325 -0.1248
35697DOD     C250911  28.162   1.857  29.965  0.0683  0.2514  0.0556
35697DOD     C350912  27.689   1.770  29.901  0.0192 -0.1741  0.1215
35698DOD     C150913   3.397  20.356   4.211  0.2458 -0.0208  0.1510
35698DOD     C250914   3.042  20.635   4.123 -0.0743 -0.1857  0.1425
35698DOD     C350915   2.632  20.824   4.073 -0.2165 -0.1626  0.0246
35699DOD     C150916  20.370  19.855  23.792 -0.1301  0.1738 -0.1190
35699DOD     C250917  20.017  19.975  24.031  0.1974 -0.4267  0.1713
35699DOD     C350918  19.617  20.224  23.993  0.0987  0.0613  0.0151
35700DOD     C150919  15.675   0.807  20.441  0.0312  0.0365  0.0018
35700DOD     C250920  15.405   0.730  20.806 -0.2680 -0.1453  0.0764
35700DOD     C350921  15.552   0.642  21.251 -0.2088 -0.0583 -0.3285
35701DOD     C150922   8.576  19.636  18.854 -0.2946  0.0398 -0.1623
35701DOD     C250923   8.445  19.971  18.539  0.1241 -0.2772 -0.2357
35701DOD     C350924   8.135  19.859  18.196 -0.2061  0.1373  0.1921
35702DOD     C150925   5.292  28.817  23.699 -0.0962 -0.1028 -0.0363
35702DOD     C250926   5.303  28.645  23.246  0.2018  0.1897 -0.0052
35702DOD     C350927   5.289  28.269  23.019  0.0466  0.1161  0.0808
35703DOD     C150928  20.220   8.506  25.012  0.2515 -0.0396 -0.3470
35703DOD     C250929  19.966   8.909  25.024  0.1242  0.0888 -0.3068
35703DOD     C350930  19.697   9.235  25.196  0.1939 -0.1825  0.0917
35704DOD     C150931  27.709  15.290  16.339 -0.0349  0.1359  0.0061
35704DOD     C250932  27.369  15.566  16.166 -0.0710 -0.0771  0.1625
35704DOD     C350933  27.049  15.682  15.855 -0.2617  0.0260  0.0605
35705DOD     C150934  29.248  20.809  13.837 -0.1423 -0.0494 -0.2167
35705DOD     C250935  29.099  20.420  13.742 -0.1547 -0.0653  0.1090
35705DOD     C350936  28.872  20.014  13.703 -0.2504 -0.0530 -0.1679
35706DOD     C150937  28.037  29.434   7.242 -0.2148 -0.0849 -0.1343
35706DOD     C250938  27.607  29.310   7.092  0.1086  0.2849 -0.0716
35706DOD     C350939  27.166  29.166   7.181 -0.0636 -0.0792 -0.2792
35707DOD     C150940  15.236  18.076  21.268  0.2384  0.0881 -0.1637
35707DOD     C250941  15.431  17.743  21.517 -0.0842 -0.2248 -0.1473
35707DOD     C350942  15.904  17.644  21.540  0.0963  0.0858 -0.1874
35708DOD     C150943   0.574  27.093  22.849 -0.1375  0.1978  0.0778
35708DOD     C250944   0.397  26.832  22.477  0.0587  0.4415  0.2028
35708DOD     C350945   0.429  26.636  22.067 -0.0373  0.1501 -0.3328
35709DOD     C150946  26.786  11.901   4.389  0.0539 -0.4924 -0.0500
35709DOD     C250947  26.339  11.929   4.175 -0.0309  0.2721 -0.3732
35709DOD     C350948  26.000  11.660   3.933  0.1606 -0.0426 -0.3966
35710DOD     C150949   3.216  21.740  26.692  0.0607  0.1821 -0.3025
35710DOD     C250950   2.943  21.679  27.113 -0.0813  0.0699 -0.0775
35710DOD     C350951   2.516  21.610  27.320 -0.1630 -0.1154 -0.2035
35711DOD     C150952  11.670  12.987  15.088  0.2672  0.2454 -0.1946
35711DOD     C250953  11.704  12.709  15.465 -0.0157 -0.0020  0.1782
35711DOD     C350954  11.607  12.366  15.799  0.1785  0.0817 -0.4443
35712DOD     C150955  23.053  29.946  17.352  0.0254  0.0506  0.0147
35712DOD     C250956  23.552  29.899  17.336  0.0346 -0.2068 -0.2035
35712DOD     C350957  23.982  29.780  17.422  0.2489 -0.3953 -0.2028
35713DOD     C150958  29.351  16.341  10.992  0.0082 -0.0743  0.1100
35713DOD     C250959  29.583  16.016  10.723 -0.5199 -0.0243  0.0536
35713DOD     C350960  29.785  15.629  10.622 -0.0505 -0.1636 -0.3935
35714DOD     C150961  23.412  20.537  25.754 -0.0839 -0.0082  0.1535
35714DOD     C250962  23.328  20.675  26.172  0.1677  0.0330  0.0795
35714DOD     C350963  23.632  20.867  26.531 -0.0366  0.0769  0.0883
35715DOD     C150964  26.928  16.942  21.255  0.1538  0.1922  0.2700
35715DOD     C250965  27.115  16.584  21.063  0.0181 -0.0209  0.3131
35715DOD     C350966  27.015  16.328  20.681 -0.1619  0.0436  0.0356
35716DOD     C150967  28.875  22.873   1.515  0.1180  0.1926  0.2408
35716DOD     C250968  28.710  23.099   1.908 -0.1621  0.1203 -0.1080
35716DOD     C350969  28.387  23.405   2.018  0.4148 -0.0822 -0.0743
35717DOD     C150970   1.295  22.088  14.993 -0.2652 -0.0076 -0.0779
35717DOD     C250971   1.652  21.794  15.044 -0.0662 -0.1400  0.3070
35717DOD     C350972   2.162  21.810  15.144 -0.2333  0.1953  0.0567
35718DOD     C150973  12.697  13.106   6.019 -0.1543 -0.2217  0.2626
35718DOD     C250974  13.143  13.320   6.019 -0.0209 -0.3218  0.1311
35718DOD     C350975  13.545  13.467   5.912 -0.0721  0.0622  0.1860
35719DOD     C150976  11.966  29.386  11.681 -0.2887 -0.0426 -0.0480
35719DOD     C250977  12.428  29.537  11.560 -0.1492  0.2489 -0.2824
35719DOD     C350978  12.693  29.851  11.320 -0.3519  0.0441  0.1752
35720DOD     C150979   0.305  25.418  29.906  0.3319  0.3379  0.1998
35720DOD     C250980   0.245  25.933  29.928 -0.3664 -0.1949 -0.1080
35720DOD     C350981   0.205  26.384  29.918  0.1553 -0.0537 -0.1714
35721DOD     C150982  22.929  18.401  17.303 -0.2381  0.0048 -0.0287
35721DOD     C250983  22.615  18.507  17.638 -0.2150 -0.0398  0.0940
35721DOD     C350984  22.556  18.759  17.958  0.0655 -0.2604 -0.0586
35722DOD     C150985   1.394  24.597  25.617  0.1320  0.1345  0.1423
35722DOD     C250986   0.968  24.533  25.847 -0.2289  0.0912 -0.1253
35722DOD     C350987   0.596  24.324  25.870  0.0699  0.0826 -0.2496
35723DOD     C150988   5.583  15.860  24.534 -0.0439  0.0446  0.0500
35723DOD     C250989   5.744  15.422  24.537 -0.1280  0.0838  0.2143
35723DOD     C350990   5.716  14.977  24.734  0.1713 -0.0072  0.0124
35724DOD     C150991  12.217   9.976   7.442 -0.1413  0.4655  0.0230
35724DOD     C250992  12.017   9.904   7.047 -0.0376  0.0219 -0.2954
35724DOD     C350993  11.733   9.773   6.733 -0.0178 -0.3805  0.0119
35725DOD     C150994  22.646  23.336  18.699 -0.2116 -0.2773  0.0166
35725DOD     C250995  23.050  23.421  18.872 -0.1493  0.3231  0.0422
35725DOD     C350996  23.540  23.468  18.885  0.0646  0.0199 -0.3288
35726DOD     C150997  14.537   4.524  19.116 -0.0518  0.1350 -0.3121
35726DOD     C250998  14.469   4.790  19.469 -0.0091  0.1845  0.0694
35726DOD     C350999  14.164   4.836  19.795  0.0510  0.2963  0.2980
35727DOD     C151000   6.238  10.697  29.559 -0.3104  0.3148 -0.0379
35727DOD     C251001   5.904  10.587  29.210 -0.2818  0.0293 -0.2303
35727DOD     C351002   5.822  10.265  28.903  0.0015 -0.4285 -0.1288
35728DOD     C151003  16.469  23.853  25.854 -0.1373  0.0642  0.0991
35728DOD     C251004  16.594  24.154  25.528  0.1703 -0.2051  0.0941
35728DOD     C351005  16.481  24.389  25.151  0.0866 -0.0711  0.0756
35729DOD     C151006  13.921   9.693  24.530 -0.2048 -0.0887  0.0653
35729DOD     C251007  13.669   9.401  24.272  0.2230  0.0139 -0.1055
35729DOD     C351008  13.697   9.120  23.904  0.1147  0.0601  0.2449
35730DOD     C151009  10.240   4.330  21.500  0.1511 -0.1043 -0.0974
35730DOD     C251010  10.008   4.656  21.786 -0.2115 -0.4143  0.4136
35730DOD     C351011   9.900   4.827  22.200 -0.1008  0.2139 -0.0934
35731DOD     C151012   1.988  11.395  15.556  0.0818  0.0315 -0.0711
35731DOD     C251013   2.367  11.132  15.466 -0.0239 -0.0955 -0.0176
35731DOD     C351014   2.668  11.140  15.067  0.0142  0.0474 -0.2154
35732DOD     C151015  25.470   4.355  21.530 -0.2097  0.0488 -0.2798
35732DOD     C251016  25.849   4.119  21.629 -0.1156  0.2302  0.1815
35732DOD     C351017  25.834   3.639  21.579  0.1713  0.0413 -0.1263
35733DOD     C151018  24.033   7.754  20.165 -0.0950 -0.1166  0.0991
35733DOD     C251019  23.707   7.956  19.870  0.0491 -0.3554  0.1137
35733DOD     C351020  23.658   8.380  19.780 -0.1406 -0.1298 -0.0925
35734DOD     C151021  23.926  20.797  18.129 -0.0031 -0.1019 -0.3191
35734DOD     C251022  24.253  21.136  18.124  0.3157 -0.1395 -0.0940
35734DOD     C351023  24.433  21.470  17.861 -0.2444 -0.0943 -0.1838
35735DOD     C151024  27.961   1.414  22.108  0.0429 -0.1898  0.0866
35735DOD     C251025  28.221   1.407  21.673 -0.0892 -0.0630 -0.0769
35735DOD     C351026  28.595   1.156  21.558  0.1229  0.0686  0.4434
35736DOD     C151027  24.601  10.389   5.835 -0.0468 -0.1355 -0.0698
35736DOD     C251028  24.202  10.375   6.106 -0.2880  0.2297 -0.0418
35736DOD     C351029  23.795  10.538   6.148 -0.0499  0.0362 -0.0913
35737DOD     C151030  29.665   3.071  27.133  0.0056 -0.1975  0.0498
35737DOD     C251031  29.926   3.167  27.524  0.3210 -0.0670 -0.0699
35737DOD     C351032  30.244   2.953  27.594 -0.3530 -0.0531 -0.3812
35738DOD     C151033  25.807  15.358   6.564  0.1308 -0.0922  0.1494
35738DOD     C251034  25.914  15.686   6.256  0.1669  0.0570  0.1825
35738DOD     C351035  25.748  15.764   5.823  0.0083 -0.2085  0.2615
35739DOD     C151036  12.765  13.727  29.897 -0.2252 -0.1095  0.1669
35739DOD     C251037  12.996  14.023  29.596  0.1658  0.0366  0.0393
35739DOD     C351038  13.271  14.077  29.185 -0.0829 -0.2138 -0.0698
35740DOD     C151039  23.096  20.252  16.592 -0.0899  0.0179  0.2647
35740DOD     C251040  23.104  19.878  16.314  0.2327 -0.1960  0.5700
35740DOD     C351041  22.901  19.504  16.392 -0.2805  0.1120 -0.2549
35741DOD     C151042  14.032   4.857  18.214  0.1382  0.0060 -0.4082
35741DOD     C251043  13.958   4.443  18.351 -0.3825  0.0961  0.0472
35741DOD     C351044  14.175   4.062  18.521 -0.1101 -0.1522  0.1069
35742DOD     C151045   5.652  12.766  18.025 -0.3583 -0.1994  0.0670
35742DOD     C251046   5.279  13.097  18.043 -0.4042  0.1053 -0.0081
35742DOD     C351047   4.945  13.325  17.849  0.0652 -0.1069 -0.0499
35743DOD     C151048   5.692  27.119   3.210 -0.4717  0.1657  0.3231
35743DOD     C251049   5.672  27.020   3.623  0.2041  0.0684 -0.0015
35743DOD     C351050   5.355  26.935   3.952  0.1022 -0.0572  0.2909
35744DOD     C151051  17.073  24.085  14.549 -0.0323 -0.1208 -0.1619
35744DOD     C251052  17.317  23.911  14.256 -0.2192  0.0585  0.1885
35744DOD     C351053  17.103  23.694  13.889 -0.0822 -0.2545  0.2622
35745DOD     C151054   6.759  13.626  10.374  0.0288 -0.0664 -0.1281
35745DOD     C251055   6.405  13.370  10.558  0.1239  0.3369 -0.3542
35745DOD     C351056   6.146  13.479  10.961  0.1045  0.4741  0.2605
35746DOD     C151057  15.374  12.483  15.682 -0.1641  0.0502 -0.1332
35746DOD     C251058  15.279  12.876  15.424  0.0452  0.0525 -0.2200
35746DOD     C351059  15.524  13.240  15.192  0.0571  0.0464 -0.1594
35747DOD     C151060  19.191   0.763  20.913  0.1285  0.0349  0.0872
35747DOD     C251061  18.992   0.374  20.780 -0.1682 -0.1688  0.1654
35747DOD     C351062  18.612   0.268  20.909 -0.1000 -0.2407 -0.1294
35748DOD     C151063  26.569  16.379   6.486  0.1322 -0.0564 -0.0305
35748DOD     C251064  26.277  16.642   6.796  0.0282 -0.0928 -0.1914
35748DOD     C351065  25.903  16.613   6.976  0.1936 -0.0227 -0.0213
35749DOD     C151066  28.150  25.041   0.247 -0.0168 -0.2252 -0.1201
35749DOD     C251067  28.158  24.739   0.636 -0.1525 -0.2878  0.0838
35749DOD     C351068  28.377  24.344   0.869 -0.1185 -0.0827  0.1945
35750DOD     C151069  19.270  16.336   5.950  0.0137  0.0406  0.0972
35750DOD     C251070  19.322  16.105   6.306 -0.1480  0.2331 -0.0270
35750DOD     C351071  19.463  16.097   6.755  0.1955  0.0350 -0.0287
35751DOD     C151072   0.242   1.862  23.806  0.0096 -0.1063  0.2970
35751DOD     C251073   0.640   2.084  23.807 -0.1642 -0.1049  0.1502
35751DOD     C351074   0.802   2.526  23.851  0.1771 -0.0497 -0.1962
35752DOD     C151075  18.090  27.767   0.759 -0.1297  0.1099  0.0528
35752DOD     C251076  18.571  27.901   0.852  0.1846  0.1022 -0.0954
35752DOD     C351077  18.923  28.154   0.793  0.1993 -0.1640 -0.1247
35753DOD     C151078  18.720   3.185  14.400 -0.0284 -0.2538 -0.0220
35753DOD     C251079  18.809   3.559  14.091  0.0010 -0.2637  0.3204
35753DOD     C351080  18.829   3.385  13.639 -0.1368 -0.0511  0.0430
35754DOD     C151081   4.118  26.138  19.050  0.6436  0.3287 -0.3117
35754DOD     C251082   3.758  26.419  18.926 -0.2749  0.2745  0.1439
35754DOD     C351083   3.488  26.789  18.959  0.1221  0.1234 -0.3564
35755DOD     C151084  18.739  26.838  21.505 -0.2868  0.1004  0.1591
35755DOD     C251085  18.652  26.364  21.428  0.0178 -0.1758  0.5386
35755DOD     C351086  18.471  26.026  21.138  0.0125  0.1153  0.1954
35756DOD     C151087  25.745  15.816  25.482 -0.3432  0.2423 -0.0265
35756DOD     C251088  25.562  16.296  25.460 -0.1103  0.2470  0.0806
35756DOD     C351089  25.335  16.710  25.477 -0.0080  0.1696  0.1639
35757DOD     C151090  18.898  22.510   9.657 -0.0016  0.3331 -0.1219
35757DOD     C251091  18.844  22.873   9.375 -0.2433 -0.2098 -0.0597
35757DOD     C351092  18.808  23.135   9.012 -0.0628  0.1705  0.2438
35758DOD     C151093  19.129   3.154   6.642 -0.2796 -0.1815 -0.1657
35758DOD     C251094  18.678   3.104   6.821 -0.3169 -0.1261  0.1240
35758DOD     C351095  18.272   3.168   6.910  0.2229  0.0814  0.0314
35759DOD     C151096  24.172  16.649   4.861 -0.0206  0.0439 -0.0235
35759DOD     C251097  24.251  16.711   4.447 -0.2919  0.1539  0.2721
35759DOD     C351098  24.548  16.679   4.040 -0.4175  0.0572 -0.0296
35760DOD     C151099  11.366  18.719  28.905  0.0970  0.0384  0.0454
35760DOD     C251100  10.952  18.669  29.019 -0.0354 -0.3203  0.1971
35760DOD     C351101  10.680  18.336  29.218 -0.1487  0.1834  0.0170
35761DOD     C151102   2.596  16.705  13.073 -0.1412 -0.0399 -0.5914
35761DOD     C251103   2.410  16.754  12.660  0.1017  0.2212 -0.1979
35761DOD     C351104   2.309  17.121  12.377  0.1455  0.2168  0.1074
35762DOD     C151105   6.456  26.234  18.877  0.0600  0.1251 -0.1221
35762DOD     C251106   6.779  26.519  18.870 -0.2870 -0.0445  0.0991
35762DOD     C351107   7.073  26.809  18.728 -0.0555 -0.0551 -0.1569
35763DOD     C151108  23.366   3.969  19.097  0.3211 -0.0930 -0.0435
35763DOD     C251109  23.370   4.320  19.402 -0.0338  0.0858  0.1751
35763DOD     C351110  23.176   4.763  19.501  0.0609 -0.1293 -0.1110
35764DOD     C151111  11.606  24.057  10.802 -0.0206 -0.4357  0.0355
35764DOD     C251112  11.205  24.066  11.035 -0.0859  0.3893 -0.0271
35764DOD     C351113  10.738  23.981  10.978 -0.1126  0.1122  0.1362
35765DOD     C151114  28.307  23.330  24.443  0.0780 -0.1614  0.0245
35765DOD     C251115  28.076  23.605  24.729 -0.2622 -0.0127 -0.1481
35765DOD     C351116  27.925  24.002  24.884  0.3074  0.0212  0.0932
35766DOD     C151117  22.005  30.111   2.304  0.4175 -0.0662 -0.1141
35766DOD     C251118  22.168   0.253   2.335 -0.3131  0.1754  0.1592
35766DOD     C351119  22.375   0.710   2.339  0.2237  0.0885 -0.3610
35767DOD     C151120  10.194  29.258   6.475  0.0206  0.0720 -0.0371
35767DOD     C251121   9.826  29.317   6.768  0.2031 -0.1438  0.1637
35767DOD     C351122   9.701  29.349   7.187  0.2621  0.1662  0.2758
35768DOD     C151123  13.419  18.779   2.938  0.1250  0.1717 -0.0592
35768DOD     C251124  13.490  19.167   3.125  0.1464 -0.0934  0.5550
35768DOD     C351125  13.577  19.571   3.351  0.1563 -0.1114  0.3101
35769DOD     C151126  26.104  10.073  16.756  0.0245 -0.0278  0.0087
35769DOD     C251127  26.205  10.493  16.639 -0.1820 -0.0566 -0.0758
35769DOD     C351128  26.530  10.730  16.438  0.1053  0.0247 -0.2349
35770DOD     C151129  17.705  25.695   6.449  0.0424  0.4257  0.1264
35770DOD     C251130  18.066  26.017   6.490 -0.2391 -0.1773 -0.2054
35770DOD     C351131  18.072  26.423   6.668  0.3031 -0.4205  0.2810
35771DOD     C151132   3.656  15.094   7.253  0.0500 -0.0163 -0.2922
35771DOD     C251133   3.953  14.780   7.048  0.0647  0.0677 -0.3927
35771DOD     C351134   3.847  14.507   6.704  0.0421 -0.0283 -0.0399
35772DOD     C151135   0.043  22.882   7.316 -0.0473 -0.0942  0.1569
35772DOD     C251136   0.376  23.147   7.196  0.0838  0.0005 -0.1610
35772DOD     C351137   0.833  23.269   7.168 -0.0493 -0.0110  0.4017
35773DOD     C151138  12.711  26.158  18.205 -0.0002 -0.3065 -0.1602
35773DOD     C251139  12.864  26.077  18.639 -0.1987 -0.0933 -0.2110
35773DOD     C351140  12.801  26.163  19.079  0.2874  0.0392 -0.1178
35774DOD     C151141  18.414   0.486  12.291 -0.1616  0.2550  0.0591
35774DOD     C251142  18.676   0.536  12.655  0.1918  0.1856  0.0154
35774DOD     C351143  18.981   0.609  12.999 -0.2477  0.0392 -0.3141
35775DOD     C151144  14.341  14.829   0.299  0.3307 -0.0258  0.0220
35775DOD     C251145  13.944  14.790   0.532  0.2315 -0.0299 -0.0676
35775DOD     C351146  13.449  14.905   0.544 -0.1525 -0.0002  0.0335
35776DOD     C151147  11.500  21.818   9.626 -0.0921  0.3377  0.1978
35776DOD     C251148  11.440  21.986   9.225 -0.0519 -0.1030 -0.0915
35776DOD     C351149  11.401  22.221   8.795 -0.2597 -0.0150 -0.1492
35777DOD     C151150  11.516  12.543   0.827  0.1545 -0.2311  0.0353
35777DOD     C251151  11.496  12.197   0.481  0.2313 -0.1795 -0.2447
35777DOD     C351152  11.428  12.123   0.004 -0.0813 -0.3276 -0.0438
35778DOD     C151153   8.901   2.869   0.483  0.1425  0.3309 -0.0350
35778DOD     C251154   8.498   2.826   0.299 -0.2015  0.2618 -0.0810
35778DOD     C351155   8.060   2.845   0.418 -0.1110 -0.0044  0.2539
35779DOD     C151156  12.544  20.882   0.351 -0.2971 -0.0345  0.1052
35779DOD     C251157  12.991  20.772   0.483  0.1568  0.4194  0.0437
35779DOD     C351158  13.421  20.658   0.598 -0.4074 -0.2697 -0.0883
35780DOD     C151159  20.063   2.730   0.550 -0.1403  0.0934 -0.1780
35780DOD     C251160  20.482   2.575   0.370 -0.0534  0.2910  0.2805
35780DOD     C351161  20.588   2.605  30.217 -0.1485  0.2156  0.1622
35781DOD     C151162   5.175  18.964   0.531  0.0137  0.1084  0.2651
35781DOD     C251163   5.499  19.292   0.630  0.1985 -0.1800 -0.1295
35781DOD     C351164   5.777  19.536   0.966 -0.3193 -0.2942  0.0768
35782DOD     C151165  25.168  22.431  17.636  0.0473 -0.0609  0.3167
35782DOD     C251166  24.953  22.363  17.244  0.0866 -0.0527  0.3144
35782DOD     C351167  24.635  22.024  17.052  0.1319 -0.1809 -0.3044
35783DOD     C151168  28.961   8.790  16.115  0.2660  0.0988 -0.0505
35783DOD     C251169  29.044   9.253  16.190  0.1882  0.1910 -0.0568
35783DOD     C351170  28.875   9.711  16.413 -0.1479  0.2289  0.1755
35784DOD     C151171  10.045  21.742  16.237 -0.0637 -0.1567 -0.0395
35784DOD     C251172   9.797  21.598  16.614 -0.0040  0.1906  0.4371
35784DOD     C351173   9.435  21.337  16.781 -0.1456  0.0752  0.1336
35785DOD     C151174  28.963   0.853  17.945 -0.1777 -0.0218  0.0340
35785DOD     C251175  28.966   0.847  17.504  0.2198  0.0280 -0.0779
35785DOD     C351176  28.727   0.766  17.081 -0.2373 -0.0908 -0.3456
35786DOD     C151177  29.011  17.498  16.724  0.3595  0.1772 -0.1991
35786DOD     C251178  29.033  17.196  17.022 -0.1774 -0.3528  0.1498
35786DOD     C351179  28.890  16.905  17.307 -0.0227 -0.0136  0.3142
35787DOD     C151180  15.570  18.358  15.189  0.2162 -0.2466 -0.1147
35787DOD     C251181  15.502  18.577  14.794  0.0461 -0.2439  0.0929
35787DOD     C351182  15.433  18.830  14.459  0.2307  0.2302  0.0009
35788DOD     C151183  27.701  16.577   4.320 -0.1101  0.2470 -0.2914
35788DOD     C251184  27.237  16.529   4.277 -0.2385  0.0669 -0.3554
35788DOD     C351185  26.930  16.912   4.235  0.1624  0.2867  0.1473
35789DOD     C151186   9.206  22.356   5.252 -0.0214  0.0674  0.3088
35789DOD     C251187   9.166  21.926   5.068 -0.3259 -0.0035  0.0965
35789DOD     C351188   8.810  21.653   5.018  0.1911  0.0620 -0.2501
35790DOD     C151189  20.181   1.005   6.682  0.0929 -0.2002  0.0367
35790DOD     C251190  20.214   0.615   6.358 -0.0724  0.0509 -0.1731
35790DOD     C351191  20.221   0.557   5.925  0.1161 -0.0579 -0.0543
35791DOD     C151192  20.658  10.546  18.922  0.1984  0.1269  0.1333
35791DOD     C251193  20.948  10.783  18.694  0.4748  0.2705 -0.1047
35791DOD     C351194  21.322  10.905  18.416  0.0643 -0.1447 -0.3921
35792DOD     C151195  13.780  25.956  17.078 -0.0766 -0.0866 -0.1152
35792DOD     C251196  13.408  26.125  17.306 -0.1085 -0.0312  0.2474
35792DOD     C351197  13.063  25.965  17.482 -0.3918 -0.1614 -0.0659
35793DOD     C151198  13.385  12.178   8.710  0.1175 -0.0651  0.0349
35793DOD     C251199  13.083  11.909   8.478  0.1704  0.0921  0.2929
35793DOD     C351200  12.783  11.535   8.373  0.1336 -0.1118 -0.1387
35794DOD     C151201  15.772   5.261   7.447  0.3148  0.1256 -0.5083
35794DOD     C251202  16.077   5.105   7.754  0.5141 -0.0980  0.0170
35794DOD     C351203  15.990   4.826   8.137 -0.1081  0.0618 -0.0839
35795DOD     C151204  30.228  26.142   9.920  0.1165  0.1750 -0.1085
35795DOD     C251205   0.066  26.283   9.471  0.3120  0.2313 -0.0142
35795DOD     C351206   0.332  26.592   9.206  0.1725 -0.3091  0.0710
35796DOD     C151207  22.331  19.324  23.434 -0.0255  0.1317 -0.1289
35796DOD     C251208  22.396  19.690  23.725  0.2301 -0.2692  0.0470
35796DOD     C351209  22.818  19.927  23.858  0.3329  0.0192  0.0509
35797DOD     C151210  22.942  16.981   6.927  0.0660  0.0540 -0.2630
35797DOD     C251211  22.896  17.448   6.850  0.3165 -0.0713 -0.3637
35797DOD     C351212  22.742  17.819   6.554 -0.2026  0.1614  0.1617
35798DOD     C151213  25.276  24.767   7.999 -0.1956 -0.0081  0.5372
35798DOD     C251214  25.035  24.407   7.879 -0.1064 -0.0312 -0.1602
35798DOD     C351215  24.634  24.268   8.172 -0.2081 -0.2815 -0.1662
35799DOD     C151216  22.023   2.689   3.110 -0.0841 -0.0791  0.4321
35799DOD     C251217  21.705   2.635   2.741 -0.1080 -0.4297 -0.1959
35799DOD     C351218  21.898   2.727   2.339 -0.1090 -0.1787  0.0031
35800DOD     C151219   4.785  14.140   1.166  0.1615  0.0782  0.3243
35800DOD     C251220   5.137  14.025   1.402  0.1122 -0.0504 -0.0024
35800DOD     C351221   5.444  14.004   1.687 -0.1210 -0.0864 -0.0438
35801DOD     C151222  11.594  19.541   9.091  0.0461  0.2199  0.1660
35801DOD     C251223  12.040  19.492   9.148  0.1296  0.0029 -0.2915
35801DOD     C351224  12.319  19.831   9.292 -0.3622  0.0567  0.0336
35802DOD     C151225  29.742  12.761  21.629 -0.0083 -0.0603  0.0483
35802DOD     C251226  29.764  12.701  21.192 -0.1170  0.4040 -0.2731
35802DOD     C351227  30.069  12.687  20.877 -0.5530  0.0813 -0.1671
35803DOD     C151228  13.216  16.060   8.653 -0.0231 -0.2241 -0.0976
35803DOD     C251229  13.093  16.250   8.198  0.0056 -0.0283 -0.4801
35803DOD     C351230  12.702  16.497   8.081 -0.3535  0.0639 -0.1544
35804DOD     C151231  26.153  14.701  24.423  0.0089 -0.0743  0.1010
35804DOD     C251232  26.471  14.791  24.791 -0.0389 -0.2878  0.0543
35804DOD     C351233  26.848  15.080  24.793 -0.1016  0.0739  0.1624
35805DOD     C151234  19.973   9.991  17.848  0.1945  0.1122 -0.0519
35805DOD     C251235  19.684   9.676  18.088  0.1657  0.2998  0.2497
35805DOD     C351236  19.607   9.267  17.855  0.3806 -0.2752  0.0847
35806DOD     C151237  24.764   2.541   9.070 -0.3188 -0.0634 -0.4028
35806DOD     C251238  24.558   2.267   8.820 -0.1703  0.1533  0.2361
35806DOD     C351239  24.368   1.868   8.642 -0.0534 -0.4872 -0.0422
35807DOD     C151240   8.584   2.385  26.065 -0.1597 -0.1685 -0.1267
35807DOD     C251241   8.823   2.173  26.464 -0.2205  0.0008 -0.3292
35807DOD     C351242   8.754   2.138  26.919  0.1510  0.1451  0.1064
35808DOD     C151243  20.221   8.923  15.095  0.0167 -0.0927 -0.4167
35808DOD     C251244  19.769   9.075  15.073  0.0892 -0.0895  0.1722
35808DOD     C351245  19.623   9.427  14.784 -0.2842 -0.0356 -0.2143
35809DOD     C151246  16.131  20.239  29.398  0.1424  0.2005 -0.0180
35809DOD     C251247  16.036  19.806  29.288  0.1415  0.1767 -0.2924
35809DOD     C351248  15.699  19.546  29.199  0.0911  0.2799 -0.1367
35810DOD     C151249   1.876   8.957   6.449 -0.0120 -0.0965  0.3763
35810DOD     C251250   2.091   8.542   6.504  0.3012  0.1485 -0.1585
35810DOD     C351251   2.314   8.177   6.658 -0.0886 -0.1643 -0.1607
35811DOD     C151252   8.692  11.214   5.640  0.0512 -0.2865 -0.0137
35811DOD     C251253   8.675  10.880   5.955 -0.0826  0.2050  0.2440
35811DOD     C351254   9.011  10.664   6.212  0.0758  0.0965 -0.2141
35812DOD     C151255   0.554  29.456  10.851  0.0825  0.1132  0.0756
35812DOD     C251256   0.436  29.407  11.335  0.1743  0.3035 -0.0998
35812DOD     C351257   0.329  29.255  11.796  0.3275  0.2153 -0.1692
35813DOD     C151258  12.589   7.744  25.876 -0.0976 -0.1315 -0.0472
35813DOD     C251259  12.294   7.764  25.454 -0.3068 -0.2603  0.0024
35813DOD     C351260  12.307   8.003  25.051 -0.0759  0.1959 -0.0998
35814DOD     C151261  25.141  21.375   5.333 -0.3653 -0.2105  0.1609
35814DOD     C251262  25.572  21.276   5.231  0.2996  0.2690  0.1486
35814DOD     C351263  25.921  20.994   5.151  0.1305 -0.1684 -0.2023
35815DOD     C151264  21.766  28.158   8.855  0.2140  0.2078  0.1951
35815DOD     C251265  21.396  28.339   9.144  0.3049 -0.2803 -0.0488
35815DOD     C351266  21.002  28.613   9.337 -0.1783  0.1324 -0.1630
35816DOD     C151267  11.010  23.413   6.955 -0.1799  0.0453 -0.0135
35816DOD     C251268  11.281  23.745   6.773  0.0237 -0.3725 -0.0875
35816DOD     C351269  11.250  24.150   6.499  0.0386 -0.0661  0.0004
35817DOD     C151270  15.932  16.834  17.474 -0.1070  0.3042  0.1483
35817DOD     C251271  16.127  16.469  17.303 -0.2416  0.0465  0.0211
35817DOD     C351272  16.420  16.341  16.969  0.0782  0.0258 -0.2087
35818DOD     C151273   8.841  21.474   2.102 -0.0279 -0.3174 -0.0049
35818DOD     C251274   8.636  21.819   1.771  0.0560  0.1556 -0.2646
35818DOD     C351275   8.437  22.153   1.468 -0.1598  0.1948  0.0228
35819DOD     C151276  14.837  19.643   3.815 -0.2750 -0.0609  0.3208
35819DOD     C251277  14.741  19.863   3.358  0.1218 -0.1311  0.1777
35819DOD     C351278  14.906  19.844   2.948  0.0070  0.2403 -0.0741
35820DOD     C151279  16.086   3.353  12.739  0.1334 -0.1773 -0.0408
35820DOD     C251280  16.130   3.819  12.647 -0.2354 -0.2238 -0.5583
35820DOD     C351281  16.062   4.270  12.788 -0.3843 -0.1861 -0.1441
35821DOD     C151282  26.228   7.518  17.993  0.0874 -0.0086  0.1139
35821DOD     C251283  26.074   7.900  18.280  0.0200 -0.1657 -0.2900
35821DOD     C351284  26.032   7.957  18.758  0.0989  0.1202  0.1232
35822DOD     C151285  18.720  16.314  16.724  0.0516  0.2438 -0.1817
35822DOD     C251286  18.424  16.579  16.932 -0.1460  0.1640  0.0473
35822DOD     C351287  18.198  16.525  17.328  0.0835  0.1054 -0.0577
35823DOD     C151288  12.985   4.759  13.109  0.1931  0.2414  0.1515
35823DOD     C251289  12.662   4.947  13.469  0.2092 -0.0807  0.0079
35823DOD     C351290  12.181   4.842  13.518  0.1688  0.3203  0.0365
35824DOD     C151291  18.295   8.035  12.887 -0.1773 -0.1217  0.1737
35824DOD     C251292  18.566   8.085  13.284  0.1950 -0.3858 -0.0921
35824DOD     C351293  18.999   8.177  13.348  0.0940  0.1025  0.3516
35825DOD     C151294  30.011  18.148  10.866  0.3137  0.0008 -0.0354
35825DOD     C251295  30.100  18.553  11.011  0.1329 -0.0608 -0.1560
35825DOD     C351296  30.135  18.868  11.361 -0.0313  0.1007 -0.1008
35826DOD     C151297  20.922  29.581   4.912  0.1616  0.2483 -0.2204
35826DOD     C251298  20.807  29.754   5.322 -0.0074 -0.3553 -0.0440
35826DOD     C351299  20.763  29.894   5.813  0.2842 -0.1580  0.1286
35827DOD     C151300   0.759  12.295   3.488  0.2702 -0.3494 -0.0085
35827DOD     C251301   0.529  12.366   3.912  0.0583  0.3614 -0.1480
35827DOD     C351302   0.489  12.067   4.266 -0.2379  0.1233 -0.3005
35828DOD     C151303  27.711  11.604  18.898 -0.0037  0.0876  0.0161
35828DOD     C251304  27.313  11.801  18.749  0.0159  0.0658  0.1178
35828DOD     C351305  26.884  11.846  18.550 -0.1190  0.2556  0.1927
35829DOD     C151306  20.313  17.467   9.761  0.0880 -0.1297  0.1638
35829DOD     C251307  20.204  17.034   9.544 -0.1501  0.3214 -0.1685
35829DOD     C351308  19.951  16.850   9.133 -0.1458  0.0652 -0.1039
35830DOD     C151309  10.921  10.903  29.852  0.0258 -0.2723 -0.1094
35830DOD     C251310  10.865  10.652  29.478  0.2107  0.1760  0.0146
35830DOD     C351311  10.748  10.389  29.114  0.1633  0.0686 -0.4472
35831DOD     C151312   2.138   1.024   8.738 -0.0031  0.1264  0.3345
35831DOD     C251313   2.451   0.982   9.052 -0.1483  0.1850  0.2910
35831DOD     C351314   2.786   0.619   9.074 -0.1033  0.1600 -0.1567
35832DOD     C151315  16.094   1.216  17.867 -0.1251 -0.0468 -0.1302
35832DOD     C251316  15.702   1.445  17.705 -0.0469 -0.1078  0.1625
35832DOD     C351317  15.654   1.862  17.479  0.4123  0.1175  0.3361
35833DOD     C151318  11.947  20.674   3.366  0.4405 -0.0006  0.4105
35833DOD     C251319  12.029  20.192   3.536 -0.2241 -0.0148  0.2639
35833DOD     C351320  12.223  20.011   3.957  0.0515  0.2454  0.1560
35834DOD     C151321  21.234  19.054  12.929 -0.2307  0.0058 -0.2969
35834DOD     C251322  21.211  19.242  13.391  0.1183  0.2366 -0.1136
35834DOD     C351323  21.032  19.330  13.815 -0.1042  0.0392 -0.1482
35835DOD     C151324  19.238  24.105  26.072 -0.2273  0.1915 -0.0815
35835DOD     C251325  18.933  24.174  26.439 -0.1990  0.0187 -0.0443
35835DOD     C351326  18.538  23.932  26.530  0.1512 -0.0610  0.1265
35836DOD     C151327  27.050  18.019  13.649  0.0980 -0.1643  0.1252
35836DOD     C251328  27.454  18.211  13.596  0.3038  0.0970 -0.0054
35836DOD     C351329  27.517  18.698  13.442  0.3688  0.0160  0.2317
35837DOD     C151330  29.251   4.606   7.474 -0.3789  0.1431 -0.0339
35837DOD     C251331  29.180   4.735   7.948  0.2063 -0.3088  0.4254
35837DOD     C351332  29.295   4.527   8.338 -0.2251  0.3278 -0.1040
35838DOD     C151333   0.129  27.940  26.801 -0.0847  0.1903  0.1309
35838DOD     C251334   0.054  28.433  26.834  0.0011  0.2106  0.1548
35838DOD     C351335   0.105  28.799  26.572 -0.1081 -0.1589 -0.2738
35839DOD     C151336  10.330  19.062  20.467  0.1968 -0.0505  0.0401
35839DOD     C251337  10.676  18.728  20.360 -0.0785 -0.0625 -0.1690
35839DOD     C351338  10.825  18.259  20.293 -0.2601 -0.2617 -0.0896
35840DOD     C151339   3.604  17.558   3.641 -0.1867 -0.0856  0.0313
35840DOD     C251340   4.059  17.646   3.609 -0.1224  0.1872 -0.0073
35840DOD     C351341   4.512  17.591   3.747 -0.4048 -0.3787  0.1863
35841DOD     C151342  12.942  16.329  21.829  0.1670  0.1841  0.2465
35841DOD     C251343  12.660  16.030  21.987 -0.0892  0.0676 -0.1807
35841DOD     C351344  12.685  15.843  22.429 -0.1167  0.1072 -0.0549
35842DOD     C151345  17.594  11.868   1.458 -0.1807 -0.2450  0.3671
35842DOD     C251346  17.287  12.171   1.685 -0.5445 -0.2059  0.0896
35842DOD     C351347  17.038  12.545   1.462  0.0496 -0.1441  0.2072
35843DOD     C151348  23.728  11.826  15.680 -0.0419 -0.0726  0.2855
35843DOD     C251349  23.912  11.431  15.874 -0.0551 -0.1599  0.2772
35843DOD     C351350  24.187  11.103  15.835 -0.0228  0.0867  0.2271
35844DOD     C151351  15.620  13.129  28.722 -0.2193  0.2338  0.0666
35844DOD     C251352  15.211  13.365  28.732 -0.0070 -0.4012 -0.1773
35844DOD     C351353  15.067  13.611  28.342  0.0981 -0.0744 -0.5344
35845DOD     C151354  24.088  19.040  19.779  0.0408 -0.0108  0.0276
35845DOD     C251355  24.409  19.419  19.777 -0.1657 -0.0268  0.0891
35845DOD     C351356  24.806  19.678  19.532  0.3323 -0.0389 -0.1285
35846DOD     C151357  17.661  26.616  20.495  0.0620  0.0058  0.0499
35846DOD     C251358  17.458  26.294  20.238 -0.2822  0.1435  0.2743
35846DOD     C351359  17.069  26.287  19.996 -0.2089  0.0795 -0.0653
35847DOD     C151360  21.483   2.369  21.596  0.2153 -0.0686  0.3309
35847DOD     C251361  21.609   2.615  21.234 -0.0725 -0.2696  0.0961
35847DOD     C351362  22.016   2.672  21.070 -0.0213 -0.0570 -0.1994
35848DOD     C151363  14.803  23.444  24.096  0.2212  0.0753 -0.1353
35848DOD     C251364  14.310  23.553  24.085 -0.2600 -0.1100 -0.0711
35848DOD     C351365  13.848  23.552  24.084 -0.1101  0.4045 -0.1683
35849DOD     C151366  14.500  14.079  13.628  0.2982  0.0206 -0.2069
35849DOD     C251367  14.514  13.857  13.188 -0.0183 -0.0762 -0.3051
35849DOD     C351368  14.673  13.898  12.766 -0.2724  0.1038 -0.1520
35850DOD     C151369  24.121  11.855  26.992  0.1085  0.3761  0.0194
35850DOD     C251370  24.363  11.952  27.407  0.1098 -0.1750 -0.0478
35850DOD     C351371  24.638  12.206  27.692 -0.2555 -0.2611 -0.0367
35851DOD     C151372   0.691  13.282  14.551  0.2153  0.1209  0.1160
35851DOD     C251373   0.669  13.610  14.828  0.2402 -0.1441 -0.0121
35851DOD     C351374   0.449  13.878  15.153 -0.0895  0.0738 -0.3943
35852DOD     C151375  26.956  15.241  25.264  0.0069  0.1146 -0.2574
35852DOD     C251376  26.667  15.496  24.922  0.1918 -0.0237 -0.0671
35852DOD     C351377  26.446  15.917  24.931  0.0524 -0.1377 -0.3845
35853DOD     C151378  28.683  11.067  21.074  0.0187 -0.3487 -0.1504
35853DOD     C251379  28.441  10.739  21.340 -0.1558 -0.0542  0.1711
35853DOD     C351380  28.255  10.506  21.629  0.1231  0.2024  0.0720
35854DOD     C151381  10.195   4.636   6.658  0.3408 -0.0307  0.0808
35854DOD     C251382  10.326   4.806   7.045  0.0599  0.0927 -0.0743
35854DOD     C351383  10.372   5.161   7.333  0.2562 -0.2303  0.1187
35855DOD     C151384  15.046  16.801  27.416  0.0073 -0.1217 -0.0872
35855DOD     C251385  15.216  17.068  27.047  0.1579 -0.1661  0.0232
35855DOD     C351386  15.389  17.486  27.002  0.0075 -0.3352  0.0309
35856DOD     C151387  12.760   9.248  11.857 -0.1654 -0.1498  0.1489
35856DOD     C251388  12.675   9.682  11.872 -0.0031 -0.0613 -0.2450
35856DOD     C351389  12.976  10.079  11.788 -0.3784 -0.1362  0.1383
35857DOD     C151390   7.872   6.814  13.555  0.0360  0.1719  0.4785
35857DOD     C251391   8.047   6.474  13.868 -0.0811 -0.0330  0.3788
35857DOD     C351392   8.202   6.161  14.151  0.1452 -0.0239  0.1801
35858DOD     C151393   9.548  28.044   5.506  0.3267  0.1010  0.1452
35858DOD     C251394   9.435  27.577   5.458  0.0533 -0.2545  0.0056
35858DOD     C351395   9.077  27.281   5.499 -0.2711  0.1230 -0.2157
35859DOD     C151396  23.440  25.479   4.790 -0.0316  0.0165  0.0481
35859DOD     C251397  23.074  25.270   4.524 -0.3139 -0.1254  0.1185
35859DOD     C351398  22.808  25.577   4.371 -0.0941 -0.1272 -0.2419
35860DOD     C151399  26.437   9.834  15.600  0.0424 -0.0995  0.1811
35860DOD     C251400  26.788   9.606  15.339  0.0173 -0.1273  0.1010
35860DOD     C351401  27.004   9.427  14.969  0.1584 -0.0161  0.1911
35861DOD     C151402  14.777  13.966  21.942 -0.0280 -0.1356 -0.0883
35861DOD     C251403  15.149  14.129  21.738 -0.1134  0.2118 -0.2605
35861DOD     C351404  15.392  14.443  21.525  0.0533  0.1737 -0.0119
35862DOD     C151405  27.343  13.552  29.314 -0.1733  0.2841  0.0381
35862DOD     C251406  27.001  13.236  29.407  0.0710 -0.2847 -0.1813
35862DOD     C351407  26.719  12.829  29.440 -0.1604  0.0707  0.1123
35863DOD     C151408   6.766  28.257  14.447 -0.1679  0.1346 -0.2001
35863DOD     C251409   6.652  28.287  14.030 -0.0108 -0.0420  0.1886
35863DOD     C351410   6.518  28.519  13.723 -0.0420  0.0617 -0.1552
35864DOD     C151411   9.950  28.284  11.836  0.0469 -0.1445  0.0135
35864DOD     C251412  10.088  28.685  12.039  0.4100 -0.2852 -0.1625
35864DOD     C351413  10.349  29.052  12.283  0.1054  0.2200  0.0962
35865DOD     C151414  14.185   0.352   6.793 -0.0681  0.0154 -0.1644
35865DOD     C251415  13.940   0.694   6.933  0.2323 -0.1187  0.0776
35865DOD     C351416  13.569   1.035   6.973  0.0170  0.4330 -0.1701
35866DOD     C151417  25.628  21.869   9.709 -0.1544  0.0896  0.0851
35866DOD     C251418  25.366  21.524   9.921 -0.2078 -0.1917  0.3348
35866DOD     C351419  25.201  21.321  10.335  0.1589 -0.2155 -0.1877
35867DOD     C151420  16.855  15.824  25.790 -0.0224 -0.0020 -0.0176
35867DOD     C251421  17.311  15.652  25.895 -0.2094  0.3057  0.1380
35867DOD     C351422  17.697  15.484  25.817  0.0050 -0.1344  0.3317
35868DOD     C151423  19.957   0.536  17.880  0.0925  0.3300 -0.1727
35868DOD     C251424  19.962   1.034  17.827 -0.1677  0.0828  0.1921
35868DOD     C351425  20.076   1.530  17.911 -0.1086 -0.1286  0.0823
35869DOD     C151426   5.322   0.648  16.313 -0.1143  0.2308  0.0471
35869DOD     C251427   4.913   0.585  16.577  0.2069 -0.0073  0.0742
35869DOD     C351428   4.680   0.381  16.879 -0.4585  0.0700  0.1154
35870DOD     C151429  17.683   1.670  19.214  0.1258  0.0475  0.0833
35870DOD     C251430  17.797   2.095  19.155 -0.2165 -0.0597 -0.0916
35870DOD     C351431  17.934   2.346  18.773  0.1256  0.0421  0.3679
35871DOD     C151432  23.198  17.307  19.450  0.0300 -0.0202  0.0292
35871DOD     C251433  22.964  17.067  19.152 -0.2072 -0.2598 -0.0375
35871DOD     C351434  22.558  16.870  19.303  0.0596  0.2279 -0.0104
35872DOD     C151435  17.754  27.526  13.228 -0.1127 -0.1470  0.2227
35872DOD     C251436  17.881  27.906  13.485 -0.1504  0.0499 -0.0344
35872DOD     C351437  18.037  27.819  13.906  0.1053 -0.1114  0.0387
35873DOD     C151438   6.067  13.385   3.207  0.0488 -0.1253 -0.1749
35873DOD     C251439   6.407  13.205   3.393 -0.2463  0.3326 -0.2475
35873DOD     C351440   6.812  13.367   3.510  0.1969  0.3071  0.1978
35874DOD     C151441  22.218   7.582  23.224  0.0789 -0.1465  0.2520
35874DOD     C251442  22.280   7.632  22.705 -0.1435  0.0781 -0.1916
35874DOD     C351443  22.214   7.664  22.237  0.1269 -0.0321  0.0863
35875DOD     C151444  30.065  29.158   0.851 -0.0784 -0.0580 -0.2468
35875DOD     C251445  30.067  29.565   0.498 -0.1743 -0.0449  0.1554
35875DOD     C351446  30.108  30.037   0.542  0.2325 -0.1792  0.2778
35876DOD     C151447  18.612   8.549  22.818  0.0563 -0.1617 -0.6293
35876DOD     C251448  18.428   8.946  22.608 -0.0140  0.2448 -0.3177
35876DOD     C351449  18.460   9.319  22.386  0.0394 -0.3044 -0.0588
35877DOD     C151450  10.624  27.934  16.383 -0.2477 -0.0351  0.3064
35877DOD     C251451  10.666  28.389  16.393 -0.0690 -0.0062  0.3237
35877DOD     C351452  10.563  28.788  16.526 -0.0938  0.3024 -0.4368
35878DOD     C151453   6.281  18.857  30.232  0.1886  0.3158  0.1267
35878DOD     C251454   5.887  19.039  -0.028 -0.0690 -0.0014 -0.1305
35878DOD     C351455   5.671  18.846   0.347  0.0515 -0.1747 -0.0859
35879DOD     C151456  29.403  25.858  22.461  0.3020 -0.0337  0.1443
35879DOD     C251457  29.157  25.915  22.052 -0.1607 -0.1281  0.0259
35879DOD     C351458  28.799  26.067  21.736 -0.1860 -0.1013 -0.1104
35880DOD     C151459  22.537  23.369  11.028 -0.0424  0.0897 -0.0834
35880DOD     C251460  22.628  23.252  11.453  0.0776  0.1299  0.1207
35880DOD     C351461  22.806  23.047  11.877 -0.3057 -0.0167  0.1112
35881DOD     C151462   2.313  22.680   4.324  0.0745 -0.0556  0.1996
35881DOD     C251463   2.358  22.691   3.856 -0.0883  0.0575  0.1370
35881DOD     C351464   2.279  22.724   3.367 -0.1072 -0.1072  0.1043
35882DOD     C151465  26.556  12.341  28.441  0.0082  0.0575  0.0605
35882DOD     C251466  26.549  12.346  28.021  0.1517  0.1193  0.0017
35882DOD     C351467  26.806  12.427  27.678 -0.0331 -0.2627  0.3000
35883DOD     C151468   7.043  22.153   9.928 -0.0098  0.1461 -0.0390
35883DOD     C251469   7.125  22.033  10.379  0.0445  0.4175 -0.0668
35883DOD     C351470   7.378  22.034  10.727 -0.1038  0.3648  0.0536
35884DOD     C151471  18.622   5.877  20.697 -0.1045  0.0873 -0.2688
35884DOD     C251472  18.533   5.437  20.907  0.2111  0.0209  0.2196
35884DOD     C351473  18.462   4.987  21.011  0.1830  0.0981 -0.0745
35885DOD     C151474  17.598  20.514  22.218 -0.1139 -0.3048  0.2871
35885DOD     C251475  17.961  20.369  22.000  0.1599 -0.0820 -0.0305
35885DOD     C351476  18.293  20.498  21.699  0.3801 -0.3431 -0.4748
35886DOD     C151477  23.625  29.453  18.220 -0.1071 -0.3608  0.1582
35886DOD     C251478  23.708  29.853  18.472 -0.1388  0.1377 -0.1361
35886DOD     C351479  24.015  30.182  18.633  0.3911  0.0529 -0.1840
35887DOD     C151480  28.661   9.920   5.845 -0.0096  0.0905 -0.0712
35887DOD     C251481  28.710   9.862   6.294  0.1723  0.0584 -0.1936
35887DOD     C351482  28.434   9.838   6.698 -0.0441 -0.1909  0.1017
35888DOD     C151483  30.086  17.619   7.075 -0.1257 -0.1424 -0.2034
35888DOD     C251484  30.172  17.355   7.485 -0.0168  0.2129  0.2640
35888DOD     C351485   0.127  17.414   7.847  0.0355 -0.0912  0.1547
35889DOD     C151486   1.151  28.251  16.114 -0.2190 -0.2790  0.2469
35889DOD     C251487   0.852  27.881  15.996 -0.1936  0.1394 -0.1864
35889DOD     C351488   0.480  27.912  15.688 -0.0290 -0.1109  0.1166
35890DOD     C151489  25.454   2.404   2.596  0.3644  0.3033  0.0812
35890DOD     C251490  25.571   1.947   2.796  0.1714  0.0506  0.1004
35890DOD     C351491  25.735   1.763   3.208  0.2183 -0.1928  0.0132
35891DOD     C151492   7.783  24.044  26.504 -0.4025  0.0253 -0.3070
35891DOD     C251493   8.037  24.338  26.796 -0.0723  0.2436 -0.2067
35891DOD     C351494   8.047  24.211  27.260  0.2532  0.2051 -0.1512
35892DOD     C151495  13.455  27.339  27.743 -0.3129 -0.1108  0.2665
35892DOD     C251496  13.318  27.563  28.145 -0.1805  0.0835  0.0842
35892DOD     C351497  13.186  27.645  28.595 -0.0241 -0.2373  0.2111
35893DOD     C151498  20.704   1.134   5.135  0.2168 -0.2429  0.1647
35893DOD     C251499  20.886   1.286   5.541  0.1281  0.2467  0.0081
35893DOD     C351500  20.762   1.494   5.899 -0.0138  0.1699  0.0618
35894DOD     C151501  10.642  25.553  22.664 -0.3225 -0.2501  0.0267
35894DOD     C251502  10.483  25.594  22.200  0.1600  0.2112 -0.0813
35894DOD     C351503  10.704  25.615  21.769 -0.2008 -0.1756 -0.1789
35895DOD     C151504  11.184  23.571  25.027 -0.0399  0.0268  0.0788
35895DOD     C251505  11.612  23.397  24.923  0.1329  0.3697 -0.3153
35895DOD     C351506  11.900  23.084  24.665  0.1162 -0.1290 -0.2540
35896DOD     C151507   7.744   6.142  10.326 -0.2607  0.0305  0.0862
35896DOD     C251508   7.606   6.448  10.009  0.0679  0.2621 -0.2049
35896DOD     C351509   7.584   6.506   9.550  0.3292 -0.0431  0.1244
35897DOD     C151510   5.580  15.128   2.019  0.0801 -0.0684 -0.0365
35897DOD     C251511   5.386  14.876   1.653  0.0235 -0.2176 -0.1035
35897DOD     C351512   5.189  14.452   1.657 -0.0211 -0.3641  0.2277
35898DOD     C151513  22.475  27.379  13.943 -0.1884 -0.0669  0.2969
35898DOD     C251514  22.676  27.644  13.647 -0.2403  0.1039  0.0761
35898DOD     C351515  22.916  27.952  13.350  0.2357 -0.0445  0.1049
35899DOD     C151516  15.853   7.204   3.797  0.0601  0.0091  0.2637
35899DOD     C251517  16.026   7.281   3.367  0.2668  0.1594 -0.0897
35899DOD     C351518  16.448   7.291   3.168 -0.0855  0.0334  0.0177
35900DOD     C151519  19.981  14.490   2.652 -0.2263  0.1902  0.0197
35900DOD     C251520  19.854  14.844   2.918  0.0778  0.0888  0.2125
35900DOD     C351521  19.994  14.756   3.310  0.1823  0.2247 -0.1969
35901DOD     C151522   5.807  14.185  11.808  0.0540  0.0344 -0.3175
35901DOD     C251523   6.088  14.343  12.146 -0.0115  0.0569  0.0268
35901DOD     C351524   6.353  14.579  12.480  0.1387  0.4687 -0.2409
35902DOD     C151525  11.310  10.463  12.210 -0.3025  0.0054 -0.4259
35902DOD     C251526  11.069  10.748  11.935  0.0496 -0.4916 -0.1845
35902DOD     C351527  10.728  10.960  11.635  0.3999 -0.0698  0.2265
35903DOD     C151528  28.378  27.765  20.428  0.0299  0.5046 -0.0491
35903DOD     C251529  28.255  27.350  20.760  0.0174 -0.1358  0.0243
35903DOD     C351530  28.394  26.900  20.808 -0.2926  0.0384 -0.0891
35904DOD     C151531   1.092  22.064  24.861 -0.4256  0.1211 -0.1282
35904DOD     C251532   0.952  22.282  24.457  0.2769 -0.2646 -0.2427
35904DOD     C351533   1.030  22.622  24.124 -0.0297 -0.0675 -0.1696
35905DOD     C151534  17.383  11.468  15.360 -0.0052  0.1320 -0.0460
35905DOD     C251535  17.658  11.688  15.612 -0.0950 -0.0973  0.1333
35905DOD     C351536  17.843  12.092  15.613  0.0154 -0.0819  0.0170
35906DOD     C151537  16.170   9.570  18.488  0.3461 -0.0456 -0.2307
35906DOD     C251538  16.367   9.295  18.760  0.0915  0.1278 -0.1315
35906DOD     C351539  16.706   8.922  18.734 -0.2372 -0.3102 -0.1749
35907DOD     C151540   5.647   0.697   7.629 -0.0117 -0.2342  0.1071
35907DOD     C251541   5.221   0.549   7.633 -0.0703  0.2371 -0.1345
35907DOD     C351542   4.933   0.184   7.688  0.0140  0.0795 -0.0191
35908DOD     C151543  25.935  21.911  19.959  0.0555 -0.1448 -0.2538
35908DOD     C251544  26.051  21.904  19.542 -0.0920  0.1889 -0.0199
35908DOD     C351545  26.172  22.052  19.139  0.1527 -0.2524  0.0972
35909DOD     C151546  28.476  25.577  28.640 -0.0469 -0.2392 -0.0783
35909DOD     C251547  28.239  25.749  28.276 -0.1779  0.3890 -0.0866
35909DOD     C351548  28.050  25.809  27.902  0.3294  0.1720 -0.3642
35910DOD     C151549   6.392  14.798  22.064  0.1453  0.1636 -0.1199
35910DOD     C251550   6.359  14.330  21.851  0.0550  0.1457  0.1187
35910DOD     C351551   6.098  13.932  21.943 -0.1289 -0.2449  0.0381
35911DOD     C151552   6.481   4.374  11.627 -0.0464 -0.0549  0.0260
35911DOD     C251553   6.823   4.088  11.588 -0.2354  0.0961  0.1960
35911DOD     C351554   7.063   3.651  11.700 -0.2149 -0.1090 -0.1795
35912DOD     C151555   6.522  24.376  13.196 -0.2786 -0.0883 -0.0725
35912DOD     C251556   6.817  24.660  12.911  0.2015  0.2339  0.2618
35912DOD     C351557   7.077  24.921  12.643 -0.0034 -0.2901 -0.2004
35913DOD     C151558   9.369   7.778  20.420  0.0215 -0.3863  0.3501
35913DOD     C251559   9.731   7.582  20.194  0.1381 -0.1692  0.2760
35913DOD     C351560  10.100   7.787  19.937  0.0439  0.0777 -0.1061
35914DOD     C151561  13.038  26.461  22.049  0.1677 -0.0327  0.1539
35914DOD     C251562  13.192  26.748  21.705 -0.0151  0.3177  0.1056
35914DOD     C351563  13.385  27.158  21.626 -0.0089  0.0396  0.0872
35915DOD     C151564  14.290   0.722  21.747 -0.0302 -0.0611  0.1681
35915DOD     C251565  14.284   1.196  21.817  0.6213  0.3370  0.2483
35915DOD     C351566  13.989   1.587  21.794 -0.4783 -0.1540 -0.1516
35916DOD     C151567  19.081   4.916  26.857  0.3516  0.0499 -0.2300
35916DOD     C251568  18.623   4.715  27.056  0.2617 -0.4263 -0.1306
35916DOD     C351569  18.451   4.498  27.379  0.2153 -0.0416  0.0551
35917DOD     C151570   0.247  10.930  25.944 -0.0306  0.2912  0.3450
35917DOD     C251571   0.042  10.927  26.368 -0.2144 -0.1055  0.1468
35917DOD     C351572   0.027  10.688  26.776  0.0473  0.2971 -0.0530
35918DOD     C151573  25.083  30.012  18.491  0.0699 -0.0218  0.1295
35918DOD     C251574  25.534  29.933  18.538  0.2591 -0.0258  0.4448
35918DOD     C351575  25.933  30.213  18.601  0.3833  0.1336 -0.0306
35919DOD     C151576  15.181   0.927   7.348 -0.0035  0.0220  0.2235
35919DOD     C251577  14.952   1.279   7.430 -0.1563 -0.1690  0.1123
35919DOD     C351578  14.644   1.538   7.224 -0.0752  0.1462  0.1337
35920DOD     C151579  18.080  19.560  25.402  0.1011  0.6291  0.2336
35920DOD     C251580  17.680  19.803  25.509 -0.0941  0.0958  0.0570
35920DOD     C351581  17.243  19.983  25.565  0.4644  0.2655  0.2119
35921DOD     C151582  14.832   7.168  22.743  0.2261 -0.0020 -0.1865
35921DOD     C251583  15.267   7.069  22.925  0.0785  0.0918  0.0432
35921DOD     C351584  15.377   6.780  23.315 -0.2730 -0.1040  0.2686
35922DOD     C151585  25.533  19.835   5.579 -0.1878 -0.0773  0.0697
35922DOD     C251586  25.969  19.833   5.735 -0.0859  0.2367 -0.0679
35922DOD     C351587  26.282  19.505   5.828  0.1474  0.1748 -0.0605
35923DOD     C151588  16.856  27.690  28.760  0.3509  0.2123  0.0117
35923DOD     C251589  17.194  27.592  29.153  0.2247  0.0975 -0.1478
35923DOD     C351590  17.432  27.672  29.522 -0.0194  0.0742 -0.1215
35924DOD     C151591   2.274  27.280  27.724 -0.0694  0.4531  0.3016
35924DOD     C251592   1.968  27.002  27.651  0.2482  0.3294  0.0510
35924DOD     C351593   1.613  26.775  27.477  0.0702 -0.1572 -0.0506
35925DOD     C151594  13.544  21.058  27.649 -0.2888 -0.4114 -0.0190
35925DOD     C251595  13.807  20.715  27.443 -0.1119  0.0020 -0.4005
35925DOD     C351596  13.951  20.339  27.269  0.0584 -0.0309  0.3428
35926DOD     C151597   0.660   2.817  14.817  0.0254 -0.0139 -0.0729
35926DOD     C251598   0.380   3.126  14.695  0.0906  0.0798 -0.1395
35926DOD     C351599   0.288   3.378  14.306 -0.4445  0.1917  0.0544
35927DOD     C151600  29.567  17.662  15.761  0.1652  0.0060  0.0209
35927DOD     C251601  29.462  17.370  15.339  0.0184  0.0020 -0.0294
35927DOD     C351602  29.398  16.977  15.035  0.0181 -0.1037  0.2495
35928DOD     C151603  18.530  10.391  11.176 -0.3231 -0.1738  0.0816
35928DOD     C251604  18.805  10.587  10.825 -0.3683  0.2255  0.1119
35928DOD     C351605  19.017  11.017  10.747  0.0122 -0.1096  0.0850
35929DOD     C151606  21.897  16.139  22.859 -0.2078 -0.2454 -0.1213
35929DOD     C251607  21.441  16.008  22.897 -0.3363  0.0221  0.0904
35929DOD     C351608  21.094  16.074  22.570  0.0597 -0.0845 -0.1881
35930DOD     C151609  27.612  21.567  27.441  0.0217 -0.1523 -0.2883
35930DOD     C251610  27.259  21.251  27.493 -0.0425 -0.0242 -0.1300
35930DOD     C351611  26.852  21.130  27.660  0.0408  0.0968 -0.0582
35931DOD     C151612  27.635  24.647   9.505 -0.1572  0.0036 -0.2879
35931DOD     C251613  28.102  24.725   9.372 -0.1487  0.1262 -0.0900
35931DOD     C351614  28.520  24.655   9.541 -0.0110 -0.0650  0.2129
35932DOD     C151615   6.547  27.547   0.395 -0.0864  0.2198  0.1037
35932DOD     C251616   6.547  27.208   0.763  0.0939  0.3213 -0.0963
35932DOD     C351617   6.714  26.782   0.796 -0.0229 -0.1162 -0.2020
35933DOD     C151618   7.394  18.244  26.261 -0.1915 -0.0393  0.0838
35933DOD     C251619   7.319  17.985  25.864 -0.0571 -0.0956  0.2282
35933DOD     C351620   7.171  17.864  25.434  0.0147  0.0868  0.0950
35934DOD     C151621   0.434  14.588  16.432 -0.2381 -0.1127 -0.0263
35934DOD     C251622   0.177  14.920  16.174 -0.1966 -0.1463  0.1211
35934DOD     C351623   0.352  15.374  16.203 -0.1867  0.0180  0.0372
35935DOD     C151624   7.577  23.510  12.888 -0.3266  0.2912  0.3467
35935DOD     C251625   7.586  23.769  13.227 -0.1866 -0.0922 -0.1237
35935DOD     C351626   7.767  24.054  13.543  0.1517 -0.1144 -0.2677
35936DOD     C151627  26.614  16.596  20.926 -0.0866  0.1953 -0.1611
35936DOD     C251628  26.942  16.870  20.674 -0.0492 -0.0574  0.0401
35936DOD     C351629  27.274  17.054  20.393 -0.3427  0.0332  0.0261
35937DOD     C151630  26.721   1.837  29.390 -0.0900  0.0407  0.1184
35937DOD     C251631  26.540   2.305  29.308 -0.1951 -0.0367 -0.1183
35937DOD     C351632  26.705   2.706  29.205  0.1361 -0.0057  0.2504
35938DOD     C151633   8.621  10.842  23.776 -0.1998  0.2687 -0.1897
35938DOD     C251634   8.356  10.479  23.970  0.0469 -0.1045  0.1061
35938DOD     C351635   7.909  10.457  24.127  0.2855 -0.3155 -0.0272
35939DOD     C151636   1.975   4.491  16.362 -0.2505 -0.1352 -0.2290
35939DOD     C251637   1.708   4.747  16.018 -0.1835  0.1272 -0.1872
35939DOD     C351638   1.454   4.844  15.684 -0.0620  0.2419  0.3293
35940DOD     C151639  16.434  11.569  29.879 -0.1322  0.1900  0.2083
35940DOD     C251640  16.072  11.454  30.165 -0.3072 -0.0036  0.0383
35940DOD     C351641  15.742  11.089  30.246  0.0560  0.0058 -0.0137
35941DOD     C151642  14.156  16.647   6.762  0.1162 -0.1597 -0.2765
35941DOD     C251643  14.103  17.046   7.022  0.1580 -0.1205 -0.0744
35941DOD     C351644  14.495  17.185   7.231  0.3422  0.0992  0.2308
35942DOD     C151645  28.210  23.312  21.245  0.1707 -0.3029  0.0089
35942DOD     C251646  27.921  23.573  21.551  0.2685 -0.2496 -0.1096
35942DOD     C351647  27.649  23.962  21.517 -0.1623 -0.0720 -0.1556
35943DOD     C151648   4.527   1.784  24.929 -0.1140 -0.0219  0.0491
35943DOD     C251649   4.631   2.110  25.226 -0.1258 -0.2387  0.1553
35943DOD     C351650   4.611   2.501  25.366 -0.1463 -0.1128  0.1835
35944DOD     C151651  19.086   5.859  11.554 -0.3774 -0.1542  0.0064
35944DOD     C251652  19.383   5.719  11.230 -0.0582  0.3462  0.1778
35944DOD     C351653  19.411   5.578  10.759  0.1727  0.1732  0.0898
35945DOD     C151654   4.232   4.934  12.982  0.0149 -0.3168  0.2615
35945DOD     C251655   4.316   4.580  12.743 -0.2641 -0.3215  0.0101
35945DOD     C351656   4.391   4.305  12.370 -0.0982 -0.0961  0.1790
35946DOD     C151657  26.678  16.831   1.704  0.0690 -0.1058 -0.1113
35946DOD     C251658  26.730  16.384   1.630 -0.1818  0.3765 -0.1421
35946DOD     C351659  26.611  15.914   1.561  0.2413  0.1674  0.0325
35947DOD     C151660  21.670  14.796  16.831  0.2939  0.0235  0.2350
35947DOD     C251661  21.445  14.533  17.160  0.0676  0.1023  0.1209
35947DOD     C351662  21.282  14.509  17.610 -0.0580 -0.1394  0.1332
35948DOD     C151663  25.504   9.992  22.572  0.2219 -0.0889  0.3373
35948DOD     C251664  25.576   9.793  22.120  0.0892 -0.1347  0.0491
35948DOD     C351665  25.490   9.830  21.650 -0.0801  0.1643 -0.1132
35949DOD     C151666  24.051  23.798   0.534 -0.2356  0.0601 -0.0781
35949DOD     C251667  23.768  24.181   0.507  0.1757  0.2790 -0.1437
35949DOD     C351668  23.757  24.509   0.274 -0.1136  0.0519  0.1531
35950DOD     C151669  27.156   0.946  24.567 -0.3409  0.1514 -0.1194
35950DOD     C251670  27.244   1.153  24.978 -0.2505  0.2197  0.1051
35950DOD     C351671  27.504   1.477  25.232 -0.0517  0.0437  0.0246
35951DOD     C151672   3.154  14.357  29.324 -0.0466 -0.0155  0.0516
35951DOD     C251673   3.069  14.227  28.944 -0.4044 -0.0197 -0.0889
35951DOD     C351674   2.815  14.054  28.577  0.2771  0.2070  0.2620
35952DOD     C151675   9.107  15.303   7.158 -0.3650  0.0589 -0.0760
35952DOD     C251676   9.125  15.327   7.640  0.0699 -0.1231 -0.3952
35952DOD     C351677   9.424  15.285   8.000  0.1612 -0.0256  0.1486
35953DOD     C151678  27.241  13.431   3.460 -0.1369 -0.1831 -0.3121
35953DOD     C251679  27.719  13.548   3.453  0.1353 -0.4208 -0.0145
35953DOD     C351680  28.153  13.685   3.522  0.1922 -0.2439  0.1632
35954DOD     C151681  13.302  27.264  22.652 -0.0637 -0.0532  0.0992
35954DOD     C251682  13.724  27.207  22.727 -0.4156  0.0319 -0.1106
35954DOD     C351683  14.179  27.233  22.887  0.2080 -0.2098  0.1317
35955DOD     C151684   6.025  17.002   8.000  0.1556 -0.0902  0.2877
35955DOD     C251685   6.115  17.520   8.028  0.1367  0.1219 -0.0610
35955DOD     C351686   5.842  17.809   7.711  0.3022 -0.4085 -0.2341
35956DOD     C151687  23.160  15.507   0.130  0.1975 -0.2125  0.0790
35956DOD     C251688  22.824  15.715  30.102 -0.1397  0.3262 -0.0485
35956DOD     C351689  22.457  15.794  29.857 -0.0362  0.0447 -0.2786
35957DOD     C151690  12.567  12.151  21.860  0.0734  0.2128 -0.1548
35957DOD     C251691  12.846  12.504  21.650 -0.0940 -0.0405  0.2045
35957DOD     C351692  12.974  12.777  21.280  0.2227  0.3252  0.1797
35958DOD     C151693   8.646  19.045  20.098 -0.0061  0.0712  0.1020
35958DOD     C251694   8.794  19.274  20.556  0.1842 -0.1545  0.1052
35958DOD     C351695   8.902  19.482  20.948 -0.0014  0.4016  0.1051
35959DOD     C151696  16.061  29.708   5.464 -0.0123  0.2141 -0.0278
35959DOD     C251697  15.984  29.508   5.895 -0.2268  0.3401  0.1146
35959DOD     C351698  15.866  29.162   6.201  0.0470 -0.0328  0.0572
35960DOD     C151699   0.326  18.318  28.828  0.0753 -0.3140 -0.0427
35960DOD     C251700   0.046  18.083  29.117 -0.0910  0.0154  0.1535
35960DOD     C351701  29.999  18.181  29.396 -0.1106 -0.2600  0.2281
35961DOD     C151702  20.124  15.313   8.040 -0.2206  0.1175 -0.1921
35961DOD     C251703  19.944  15.653   8.288  0.1857 -0.3294 -0.2161
35961DOD     C351704  20.019  15.829   8.757 -0.4480 -0.0955 -0.1011
35962DOD     C151705   2.293  23.643  22.401  0.0024  0.2351 -0.1590
35962DOD     C251706   2.643  23.331  22.219 -0.1855 -0.1536  0.0414
35962DOD     C351707   2.981  23.157  22.025  0.0540 -0.0018 -0.2231
35963DOD     C151708   4.342   0.059   5.262 -0.0064  0.1074 -0.0651
35963DOD     C251709   4.162   0.319   5.597  0.1976  0.0560  0.0583
35963DOD     C351710   3.857   0.470   5.932 -0.3077  0.1295 -0.0596
35964DOD     C151711   3.987  15.667  11.779  0.5244  0.0766  0.0903
35964DOD     C251712   4.309  16.037  11.761  0.2960  0.1736  0.0001
35964DOD     C351713   4.714  16.217  11.725 -0.1288  0.0700 -0.1006
35965DOD     C151714  11.451  22.612   3.135 -0.1952  0.2288 -0.0080
35965DOD     C251715  11.073  22.377   2.999  0.0579 -0.1441  0.1556
35965DOD     C351716  10.772  22.411   2.683 -0.2997  0.2858 -0.1831
35966DOD     C151717   1.335  12.844  29.251  0.0385 -0.2471 -0.2225
35966DOD     C251718   1.608  12.477  29.273 -0.0038 -0.3499  0.2331
35966DOD     C351719   1.498  12.082  29.353  0.1065 -0.1549  0.3004
35967DOD     C151720   8.082  21.554   1.958 -0.0400  0.0332  0.1635
35967DOD     C251721   8.148  21.627   1.566  0.0152 -0.0622  0.0128
35967DOD     C351722   8.126  21.875   1.188  0.3752 -0.1522 -0.0923
35968DOD     C151723   6.156  19.047   1.517 -0.0649 -0.0386  0.0907
35968DOD     C251724   6.156  19.248   1.153  0.0190 -0.0839  0.4532
35968DOD     C351725   6.414  19.430   0.822  0.0033  0.1088  0.4343
35969DOD     C151726  11.238   8.201   3.153  0.5386 -0.0607 -0.1935
35969DOD     C251727  10.895   8.462   3.019 -0.3105 -0.0501 -0.1754
35969DOD     C351728  10.637   8.629   2.640 -0.0293  0.1689  0.3984
35970DOD     C151729   1.029  25.118  18.942 -0.0617 -0.0390  0.0740
35970DOD     C251730   1.225  24.720  18.749 -0.2386 -0.3926 -0.0159
35970DOD     C351731   1.107  24.635  18.342 -0.0771  0.1260  0.1861
35971DOD     C151732  20.624  25.310  11.295 -0.0330 -0.0055  0.3694
35971DOD     C251733  20.583  24.883  11.505  0.1589  0.4151  0.1996
35971DOD     C351734  20.511  24.350  11.565  0.0198 -0.0802 -0.0645
35972DOD     C151735  25.580   6.271  24.933  0.3189  0.0333 -0.0608
35972DOD     C251736  25.278   5.982  24.691  0.2189  0.0468 -0.1802
35972DOD     C351737  24.925   5.667  24.759  0.4416 -0.1754 -0.0321
35973DOD     C151738   6.407  22.424   5.684 -0.0713 -0.5312 -0.1855
35973DOD     C251739   6.544  22.680   5.332  0.0652  0.0198  0.0109
35973DOD     C351740   6.508  23.077   5.060  0.1425 -0.3351 -0.0781
35974DOD     C151741  12.723  15.169  23.683 -0.1530 -0.1803 -0.2669
35974DOD     C251742  12.461  15.541  23.512  0.1721  0.1234 -0.0462
35974DOD     C351743  12.173  15.762  23.176 -0.0341 -0.0713 -0.0297
35975DOD     C151744  27.023  11.553  10.938 -0.1725 -0.2741  0.0548
35975DOD     C251745  27.314  11.838  10.640  0.1806  0.1957  0.1763
35975DOD     C351746  27.220  12.009  10.188  0.0109 -0.1919 -0.1371
35976DOD     C151747   9.455  15.945  15.404 -0.0427 -0.0277  0.1891
35976DOD     C251748   9.738  15.555  15.300 -0.0420 -0.1717  0.1438
35976DOD     C351749   9.972  15.111  15.247  0.1759 -0.2474 -0.1646
35977DOD     C151750  28.651  29.642   4.809  0.0252 -0.0856  0.0024
35977DOD     C251751  28.246  29.518   4.591 -0.1554 -0.3028  0.0695
35977DOD     C351752  27.812  29.557   4.622  0.0039 -0.1079  0.1142
35978DOD     C151753  29.065   9.196   9.818  0.0651  0.0590 -0.3854
35978DOD     C251754  29.194   8.855   9.497  0.1274  0.0538 -0.1915
35978DOD     C351755  29.060   8.507   9.175 -0.2046  0.2317 -0.0420
35979DOD     C151756   8.312  10.939  13.893 -0.3076  0.2573 -0.2394
35979DOD     C251757   7.908  11.094  13.775 -0.0468  0.1718  0.1320
35979DOD     C351758   7.608  11.489  13.711  0.1160  0.0827 -0.1066
35980DOD     C151759  18.539   9.139  26.774 -0.1398 -0.0117 -0.1287
35980DOD     C251760  18.124   9.218  27.009 -0.1879 -0.0229 -0.1194
35980DOD     C351761  18.141   9.400  27.448  0.5762 -0.0528 -0.0943
35981DOD     C151762  27.831  20.440   6.516 -0.2627  0.0331  0.0272
35981DOD     C251763  28.168  20.110   6.332  0.0204  0.0593 -0.2970
35981DOD     C351764  28.448  20.110   5.930  0.3586 -0.3339 -0.0638
35982DOD     C151765   5.534  25.243  13.987  0.1102  0.1082  0.0174
35982DOD     C251766   5.889  25.164  14.253 -0.0815 -0.0994  0.1614
35982DOD     C351767   6.085  24.982  14.631  0.0397 -0.0307 -0.0026
35983DOD     C151768  16.601  20.799  14.985  0.4113 -0.3005 -0.0280
35983DOD     C251769  16.957  21.121  15.181 -0.0734  0.0186 -0.0205
35983DOD     C351770  17.404  21.157  15.050 -0.0484  0.1642  0.1003
35984DOD     C151771   4.309  22.836  19.620 -0.0764  0.1083  0.0052
35984DOD     C251772   4.235  22.520  19.928 -0.3995  0.2229  0.0205
35984DOD     C351773   4.298  22.057  19.963 -0.0701 -0.3498  0.1377
35985DOD     C151774  13.567  28.313   2.894 -0.2095  0.0128  0.1178
35985DOD     C251775  13.238  28.689   2.861  0.1142  0.1615 -0.0322
35985DOD     C351776  13.123  29.078   3.045  0.4126 -0.0398  0.1089
35986DOD     C151777  22.095   8.624   1.040 -0.3008 -0.2192 -0.0456
35986DOD     C251778  22.305   8.271   1.262 -0.0233 -0.0053  0.1957
35986DOD     C351779  22.388   7.830   1.388  0.0210  0.2606 -0.2335
35987DOD     C151780  18.370  26.007   0.848 -0.0271  0.2113  0.2483
35987DOD     C251781  18.631  26.375   0.854  0.0163  0.0730  0.0416
35987DOD     C351782  18.960  26.645   1.096  0.0136  0.1093 -0.0759
35988DOD     C151783  22.049  29.500  15.553  0.0600  0.1794  0.1417
35988DOD     C251784  22.305  29.631  15.175 -0.0836  0.1582 -0.0454
35988DOD     C351785  22.397  29.751  14.722  0.0113  0.0907  0.0170
35989DOD     C151786   7.798   5.939  23.431 -0.2620  0.0099 -0.0169
35989DOD     C251787   7.970   5.864  23.063 -0.4141 -0.3417 -0.0985
35989DOD     C351788   7.955   5.464  22.802  0.1879  0.1101  0.0134
35990DOD     C151789  14.605   7.934   8.289  0.1252 -0.0406  0.0093
35990DOD     C251790  15.063   8.002   8.216 -0.0071  0.2509  0.4164
35990DOD     C351791  15.386   7.773   8.472  0.0890  0.2290  0.0144
35991DOD     C151792  16.695  28.748  28.023  0.1755  0.0790 -0.5736
35991DOD     C251793  16.455  28.364  28.115 -0.3068 -0.1351  0.0016
35991DOD     C351794  16.270  28.056  27.825  0.0375  0.2445 -0.1535
35992DOD     C151795   1.794  26.313  21.598 -0.1475 -0.1480  0.1709
35992DOD     C251796   1.400  26.097  21.784  0.0213  0.3577 -0.2834
35992DOD     C351797   1.013  26.096  21.474  0.4649  0.3316  0.3326
35993DOD     C151798   1.086  19.894  19.447 -0.2801  0.2575 -0.1475
35993DOD     C251799   0.910  20.320  19.591 -0.1712 -0.0124 -0.0440
35993DOD     C351800   0.534  20.437  19.844 -0.1208  0.0911 -0.2832
35994DOD     C151801  20.939  28.534  18.776 -0.1315 -0.2403  0.1770
35994DOD     C251802  21.328  28.566  18.458  0.2612 -0.1283 -0.1580
35994DOD     C351803  21.732  28.510  18.395  0.1127  0.1684  0.5194
35995DOD     C151804   9.815   9.310  14.070  0.4727  0.1042 -0.1883
35995DOD     C251805   9.489   9.116  13.781  0.0552 -0.0184 -0.0627
35995DOD     C351806   9.017   8.994  13.732 -0.2434  0.1838 -0.1022
35996DOD     C151807  19.750  22.744   6.162 -0.0801 -0.1598  0.0491
35996DOD     C251808  19.504  22.594   6.516 -0.2930 -0.0620  0.1198
35996DOD     C351809  19.337  22.797   6.876  0.0499 -0.5099 -0.4410
35997DOD     C151810  13.049   9.915  23.464 -0.1324 -0.0307 -0.0881
35997DOD     C251811  12.624   9.639  23.481 -0.1796  0.0545  0.0594
35997DOD     C351812  12.356   9.310  23.597  0.0892  0.3469  0.1483
35998DOD     C151813  22.599  13.084  13.490 -0.0307 -0.1198  0.0217
35998DOD     C251814  22.551  12.670  13.286  0.3276  0.1545  0.0892
35998DOD     C351815  22.370  12.245  13.367 -0.3045 -0.0059 -0.2268
35999DOD     C151816  26.441   2.836   8.278 -0.2257  0.1092  0.0569
35999DOD     C251817  26.606   2.909   7.850 -0.0873 -0.1242  0.0417
35999DOD     C351818  26.948   3.025   7.601  0.0431 -0.2586  0.0665
36000DOD     C151819  11.618  24.807  15.572  0.1918 -0.2290  0.1690
36000DOD     C251820  11.480  24.601  15.984  0.2267  0.2124  0.2830
36000DOD     C351821  11.444  24.242  16.274 -0.3866  0.3400  0.1325
36001DOD     C151822   7.125  12.769  27.456 -0.0737  0.1631 -0.0104
36001DOD     C251823   7.277  13.210  27.456 -0.1123  0.0097  0.0546
36001DOD     C351824   7.675  13.424  27.253  0.0325 -0.1518  0.4378
36002DOD     C151825   8.344  22.556  24.952 -0.0530 -0.1839 -0.0573
36002DOD     C251826   8.660  22.406  25.278 -0.0752  0.1213 -0.0682
36002DOD     C351827   9.048  22.186  25.392 -0.0360  0.0184 -0.3136
36003DOD     C151828  26.051   0.470  16.903 -0.1355  0.0644  0.1255
36003DOD     C251829  26.164   0.294  16.461  0.1995 -0.1888 -0.1908
36003DOD     C351830  26.343   0.270  16.006  0.2564 -0.0423 -0.0076
36004DOD     C151831   0.428  21.073  25.793  0.1519 -0.1498  0.0424
36004DOD     C251832   0.015  21.296  25.863 -0.0137 -0.1265  0.1804
36004DOD     C351833  29.987  21.188  26.129  0.1440 -0.0279 -0.0562
36005DOD     C151834  12.633   8.909  17.077 -0.0546 -0.1314  0.3407
36005DOD     C251835  12.659   8.445  17.122  0.1374  0.2289  0.4088
36005DOD     C351836  12.665   8.003  17.240 -0.0954  0.1924 -0.3174
36006DOD     C151837  11.849  10.969  29.079  0.0133  0.1208 -0.0199
36006DOD     C251838  11.575  10.650  29.297  0.0079 -0.2031 -0.0020
36006DOD     C351839  11.728  10.228  29.439  0.0253 -0.1520  0.4507
36007DOD     C151840  29.875   7.144  30.290 -0.1987  0.1005 -0.1587
36007DOD     C251841  29.460   7.073   0.146 -0.0912  0.0792  0.0185
36007DOD     C351842  28.960   7.222   0.159  0.1585  0.0708 -0.2475
36008DOD     C151843  28.201   1.695   7.387 -0.2466  0.0402  0.1324
36008DOD     C251844  28.510   1.556   7.729 -0.1444  0.1694 -0.0823
36008DOD     C351845  28.600   1.617   8.160 -0.5225  0.2358 -0.2458
36009DOD     C151846  20.952  20.495  13.213 -0.0668 -0.0332  0.0411
36009DOD     C251847  21.401  20.273  13.198  0.1812  0.0673  0.2808
36009DOD     C351848  21.434  19.783  13.156  0.1264 -0.1794 -0.1493
36010DOD     C151849  26.789   5.976  24.295 -0.0187 -0.1590  0.3412
36010DOD     C251850  27.127   5.711  24.501  0.0891 -0.1495  0.0047
36010DOD     C351851  27.554   5.500  24.460 -0.2884 -0.2346  0.1511
36011DOD     C151852   2.489  10.573   8.918  0.0266 -0.0346  0.3557
36011DOD     C251853   2.454  10.916   8.574 -0.1726 -0.0051 -0.2696
36011DOD     C351854   2.146  11.116   8.316 -0.0387 -0.1807  0.1525
36012DOD     C151855   2.906   3.172  23.371 -0.1674 -0.2410  0.0576
36012DOD     C251856   2.554   3.237  23.020  0.3634  0.0545  0.4841
36012DOD     C351857   2.206   3.132  22.704 -0.0779  0.1532  0.2860
36013DOD     C151858  22.313  24.834  20.782  0.0605  0.0691 -0.0999
36013DOD     C251859  22.771  24.872  20.975  0.0768 -0.0170  0.1726
36013DOD     C351860  23.174  24.871  21.203  0.1299  0.0511 -0.1878
36014DOD     C151861  16.098   9.490  12.803 -0.1868  0.0411 -0.2963
36014DOD     C251862  16.370   9.805  12.979 -0.0883 -0.2158  0.0158
36014DOD     C351863  16.336  10.244  12.982  0.2187 -0.1193  0.0956
36015DOD     C151864  28.272  18.737  12.962  0.1326  0.1288  0.1143
36015DOD     C251865  28.036  18.937  13.327  0.0726  0.2154 -0.1897
36015DOD     C351866  27.744  19.088  13.670  0.0383  0.2966  0.0897
36016DOD     C151867  12.100  11.048  11.895 -0.0555 -0.1344 -0.0228
36016DOD     C251868  11.842  11.436  11.926 -0.2474  0.2962 -0.1549
36016DOD     C351869  11.565  11.534  12.259  0.1219  0.4694 -0.2275
36017DOD     C151870  25.414  24.643  14.159  0.3096 -0.0278  0.0734
36017DOD     C251871  25.628  24.221  14.191  0.0343  0.2090  0.0772
36017DOD     C351872  25.642  23.750  14.065  0.0107 -0.1302 -0.0817
36018DOD     C151873  12.216  22.548  10.339 -0.4648  0.0604  0.0901
36018DOD     C251874  11.970  22.617   9.934  0.2155  0.0386 -0.0454
36018DOD     C351875  11.581  22.458   9.701  0.0127 -0.1905  0.1362
36019DOD     C151876  20.860   7.067  15.630  0.0783 -0.0659  0.4014
36019DOD     C251877  21.228   6.742  15.774  0.1647  0.0464  0.1704
36019DOD     C351878  21.475   6.348  15.651  0.1240 -0.1073  0.0121
36020DOD     C151879  18.273  28.848   4.008 -0.1988  0.0392 -0.2162
36020DOD     C251880  17.831  28.879   3.882  0.3180  0.0436  0.1104
36020DOD     C351881  17.384  28.703   3.809 -0.0755 -0.4531  0.2869
36021DOD     C151882  25.559  13.043  11.789 -0.0469 -0.0493 -0.3661
36021DOD     C251883  25.660  12.637  11.652 -0.2489  0.0320 -0.1425
36021DOD     C351884  25.535  12.251  11.437  0.1471 -0.2906  0.1297
36022DOD     C151885  12.020  23.663  20.368 -0.0451  0.0697 -0.0293
36022DOD     C251886  11.590  23.562  20.235  0.0789  0.1170  0.2208
36022DOD     C351887  11.212  23.492  19.995  0.2839  0.0155  0.1970
36023DOD     C151888   8.598  22.746  26.685  0.3741 -0.2916  0.3612
36023DOD     C251889   8.237  22.783  26.917 -0.1372 -0.1876  0.0302
36023DOD     C351890   7.754  22.743  27.120 -0.0201  0.0590  0.2015
36024DOD     C151891  26.386  21.069   4.873 -0.1584  0.0267  0.3045
36024DOD     C251892  26.856  20.995   4.776  0.0749  0.3514  0.1601
36024DOD     C351893  27.305  21.208   4.787 -0.2531  0.1861 -0.0137
36025DOD     C151894  26.378   2.080   1.842 -0.1073  0.1740  0.2506
36025DOD     C251895  26.381   1.932   1.408 -0.1100  0.6004 -0.2102
36025DOD     C351896  26.110   2.012   1.050  0.2856  0.2003  0.2445
36026DOD     C151897  11.247  13.129  10.336 -0.2891  0.1799 -0.2618
36026DOD     C251898  11.496  13.403  10.148 -0.1404  0.2106 -0.2661
36026DOD     C351899  11.756  13.734  10.350 -0.0949 -0.0985  0.3924
36027DOD     C151900  24.260   1.232  14.236  0.0981 -0.4503  0.3354
36027DOD     C251901  23.864   1.251  13.995 -0.0368  0.0621  0.0056
36027DOD     C351902  23.357   1.279  14.030  0.0621 -0.2906 -0.2473
36028DOD     C151903  28.415   0.112  30.148 -0.1893  0.0122 -0.0973
36028DOD     C251904  28.164   0.058   0.197  0.0194 -0.2166 -0.0976
36028DOD     C351905  27.832  30.151   0.434  0.0293 -0.1786 -0.0993
36029DOD     C151906   2.786   1.725  12.543  0.1088  0.0313 -0.1146
36029DOD     C251907   2.836   1.228  12.506  0.0410  0.2749 -0.1789
36029DOD     C351908   2.904   0.865  12.138 -0.0873  0.2266  0.1243
36030DOD     C151909  29.499   5.896  10.932  0.2238 -0.3486 -0.1599
36030DOD     C251910  29.458   6.056  11.359  0.0180 -0.0276 -0.1950
36030DOD     C351911  29.319   5.852  11.756  0.0317 -0.2280 -0.0813
36031DOD     C151912   2.018   6.962   8.610 -0.1004 -0.2491 -0.1007
36031DOD     C251913   2.128   6.648   8.316 -0.3190 -0.0966 -0.0628
36031DOD     C351914   1.960   6.361   8.077  0.0418 -0.2764  0.1964
36032DOD     C151915  20.998  12.769  27.632  0.1281  0.0420  0.1423
36032DOD     C251916  21.372  12.997  27.843 -0.1636  0.1149 -0.3914
36032DOD     C351917  21.434  13.294  28.170  0.2929 -0.3840  0.3581
36033DOD     C151918  21.046   0.433  24.099  0.0343 -0.2908  0.2721
36033DOD     C251919  21.514   0.450  24.174  0.2618 -0.0723 -0.1534
36033DOD     C351920  21.917   0.668  24.266 -0.1472 -0.1784 -0.2108
36034DOD     C151921  24.637  16.219   9.719 -0.3809  0.1458  0.2043
36034DOD     C251922  24.352  16.532   9.873 -0.2556 -0.0052 -0.1640
36034DOD     C351923  23.864  16.473   9.942  0.1489  0.1513  0.2669
36035DOD     C151924  21.367  30.144  29.968 -0.1868  0.1144  0.0307
36035DOD     C251925  20.956  30.040  29.904  0.1941 -0.2147  0.0487
36035DOD     C351926  20.649  29.722  29.990 -0.0676  0.0148 -0.2374
36036DOD     C151927  20.035  12.248   6.132 -0.3029 -0.1272 -0.0253
36036DOD     C251928  20.374  11.993   6.301  0.0752 -0.0687 -0.0424
36036DOD     C351929  20.851  11.948   6.373  0.3026 -0.0250 -0.0941
36037DOD     C151930  18.308  25.277   5.071 -0.3648  0.1219  0.0958
36037DOD     C251931  18.653  25.258   5.331 -0.3666  0.3050 -0.0909
36037DOD     C351932  18.847  25.253   5.754  0.0734 -0.0851  0.1188
36038DOD     C151933   3.116  16.292   8.992 -0.0968  0.0726  0.3874
36038DOD     C251934   3.258  15.850   8.936 -0.1229  0.0627  0.0124
36038DOD     C351935   3.581  15.532   8.778  0.1607 -0.3626  0.0788
36039DOD     C151936   1.392  18.311  16.626 -0.0404  0.2451  0.3395
36039DOD     C251937   1.537  18.028  16.962 -0.0981  0.0219 -0.4190
36039DOD     C351938   1.402  18.003  17.363  0.0050 -0.1099 -0.0927
36040DOD     C151939   1.747   0.595  24.272  0.1873  0.2121 -0.1325
36040DOD     C251940   1.518   0.994  24.278  0.0378  0.0778 -0.0703
36040DOD     C351941   1.523   1.476  24.126 -0.0813  0.1265 -0.2870
36041DOD     C151942  15.930  20.039   1.014  0.1289 -0.0596  0.0864
36041DOD     C251943  16.175  20.051   1.438  0.1086 -0.0741 -0.2207
36041DOD     C351944  16.500  20.395   1.577  0.0177 -0.1002  0.4196
36042DOD     C151945  23.297   4.867  26.464  0.0627 -0.2754 -0.2251
36042DOD     C251946  23.234   4.525  26.827  0.0730  0.0049  0.0152
36042DOD     C351947  23.296   4.383  27.295  0.0975 -0.2040 -0.1367
36043DOD     C151948  10.268   8.736  15.803  0.0299  0.2243  0.1579
36043DOD     C251949  10.106   8.485  15.398  0.0045  0.0687 -0.1576
36043DOD     C351950  10.195   8.119  15.154 -0.3195 -0.1351  0.3090
36044DOD     C151951   8.959  12.901  24.573 -0.1218 -0.3411 -0.2286
36044DOD     C251952   9.195  12.569  24.308 -0.0519  0.1210 -0.0437
36044DOD     C351953   9.048  12.357  23.915 -0.0329 -0.2147 -0.2467
36045DOD     C151954  15.695  27.415  13.235 -0.1515 -0.2501 -0.1344
36045DOD     C251955  15.891  27.020  13.421 -0.0098  0.4722 -0.0771
36045DOD     C351956  15.909  26.526  13.547  0.0378  0.1731 -0.2588
36046DOD     C151957   8.545  21.250   1.519  0.2302 -0.0247 -0.0977
36046DOD     C251958   8.431  21.165   1.967  0.3012 -0.0447 -0.0785
36046DOD     C351959   8.304  21.341   2.387  0.2680 -0.2432 -0.0914
36047DOD     C151960  19.036  14.778   5.180  0.0305  0.1077 -0.1402
36047DOD     C251961  19.175  14.554   5.652  0.0868 -0.3340 -0.0105
36047DOD     C351962  19.570  14.293   5.784 -0.1541  0.2470 -0.2275
36048DOD     C151963  12.293  29.492  17.149 -0.1990 -0.3299 -0.1109
36048DOD     C251964  11.966  29.739  16.916 -0.0702  0.1136 -0.0888
36048DOD     C351965  11.889  30.190  17.011 -0.1415  0.2945  0.0766
36049DOD     C151966  20.456   6.971  24.686  0.3960  0.0029 -0.1844
36049DOD     C251967  20.485   6.888  25.159 -0.0415  0.1634 -0.3841
36049DOD     C351968  20.337   6.695  25.549 -0.0301  0.0562 -0.0561
36050DOD     C151969  21.480  26.969   7.489  0.1797  0.0596 -0.1428
36050DOD     C251970  21.515  27.256   7.865 -0.0190 -0.3249 -0.1045
36050DOD     C351971  21.414  27.586   8.175 -0.0935  0.3517  0.1009
36051DOD     C151972   2.807  25.445  23.378  0.3044  0.2239 -0.2086
36051DOD     C251973   2.324  25.231  23.435 -0.2052 -0.0504  0.1002
36051DOD     C351974   1.960  24.887  23.428 -0.1050 -0.0869  0.1297
36052DOD     C151975   5.969   3.306  23.547  0.1131  0.0326 -0.1308
36052DOD     C251976   5.939   2.899  23.429 -0.2766  0.2687  0.1241
36052DOD     C351977   5.779   2.459  23.364 -0.0383 -0.3395  0.0830
36053DOD     C151978  22.012   5.220  18.318 -0.0948  0.1634  0.4047
36053DOD     C251979  22.331   5.512  18.325  0.4686 -0.0251  0.0922
36053DOD     C351980  22.568   5.863  18.101  0.1905 -0.6097 -0.0806
36054DOD     C151981  23.411   2.776  30.175 -0.1770  0.0614 -0.2724
36054DOD     C251982  23.698   3.128   0.032 -0.0194  0.3691  0.0177
36054DOD     C351983  23.726   3.583  30.275 -0.1189  0.2401 -0.1327
36055DOD     C151984  16.387  21.106   5.698  0.2435 -0.1244 -0.0805
36055DOD     C251985  16.769  21.088   5.434 -0.2641 -0.3591 -0.0777
36055DOD     C351986  16.809  21.033   4.983 -0.0468  0.0668  0.0943
36056DOD     C151987   1.801  15.593  14.423  0.2002  0.1510 -0.1529
36056DOD     C251988   2.030  15.808  14.730  0.0813 -0.0877  0.1279
36056DOD     C351989   2.215  16.063  15.095 -0.0473  0.0887 -0.2365
36057DOD     C151990  21.341  12.039  27.070  0.0584  0.2262 -0.0523
36057DOD     C251991  20.983  11.816  27.288  0.3261 -0.0496  0.2999
36057DOD     C351992  20.599  11.547  27.268  0.0062  0.0983 -0.2619
36058DOD     C151993  18.077   6.761   6.113  0.1034 -0.1730  0.0971
36058DOD     C251994  18.401   6.918   6.382 -0.0432  0.1872  0.0564
36058DOD     C351995  18.850   6.885   6.492 -0.0927  0.2320  0.2894
36059DOD     C151996  29.633  22.972   4.815 -0.0198  0.0434  0.0939
36059DOD     C251997  29.754  22.930   5.246 -0.0022 -0.1503 -0.0278
36059DOD     C351998  29.704  23.073   5.699  0.3053  0.2339  0.0383
36060DOD     C151999   1.447   4.707   9.106  0.1579 -0.1088 -0.1692
36060DOD     C252000   1.236   4.410   9.376  0.1075  0.2141  0.0875
36060DOD     C352001   1.358   4.120   9.698 -0.1400 -0.3745  0.2209
36061DOD     C152002   7.675  19.800  21.147  0.0692  0.0452 -0.2115
36061DOD     C252003   8.031  20.148  21.197 -0.2442  0.0201  0.0454
36061DOD     C352004   8.255  20.472  21.013  0.4240  0.0160 -0.0332
36062DOD     C152005   7.591  13.629  11.144 -0.2174 -0.2577  0.0520
36062DOD     C252006   7.460  13.283  11.408  0.0521 -0.0318  0.4580
36062DOD     C352007   7.396  12.878  11.505  0.1506 -0.1379 -0.1405
36063DOD     C152008  29.856   6.491  17.390 -0.1866  0.3125  0.3152
36063DOD     C252009   0.038   6.465  17.520  0.1598  0.2487  0.1434
36063DOD     C352010   0.502   6.430  17.629  0.1198  0.4630  0.0350
36064DOD     C152011   4.300  15.119  14.897 -0.1211  0.0444 -0.1556
36064DOD     C252012   4.122  14.934  14.458  0.0298  0.3089 -0.1212
36064DOD     C352013   4.127  15.240  14.137 -0.0713 -0.2645  0.4982
36065DOD     C152014   0.801  18.706  10.365 -0.0871  0.1268  0.0104
36065DOD     C252015   0.613  19.115  10.164 -0.1130  0.2927  0.0022
36065DOD     C352016   0.756  19.278   9.740  0.0817  0.1285 -0.1290
36066DOD     C152017   9.446  22.081  24.063  0.0180 -0.0625 -0.0197
36066DOD     C252018   9.173  22.048  23.718 -0.1501 -0.0669  0.1175
36066DOD     C352019   9.016  22.470  23.555  0.1039 -0.0364 -0.0107
36067DOD     C152020  25.959  10.408  23.861 -0.4543  0.0755  0.2850
36067DOD     C252021  26.448  10.471  23.809 -0.2666 -0.1594 -0.1374
36067DOD     C352022  26.730  10.627  24.157 -0.3096  0.2386 -0.4066
36068DOD     C152023  24.775  16.625   2.216 -0.1938  0.2604  0.1529
36068DOD     C252024  25.161  16.847   2.281 -0.2015 -0.2177 -0.0007
36068DOD     C352025  25.573  16.633   2.229 -0.2183  0.2399 -0.0412
36069DOD     C152026   1.981  14.101  25.395  0.4288 -0.5379 -0.0987
36069DOD     C252027   2.251  13.980  25.023 -0.0449  0.2106  0.0794
36069DOD     C352028   2.430  13.546  24.975  0.0299  0.0559 -0.0230
36070DOD     C152029  20.429  20.280  28.483  0.0676 -0.4776 -0.2494
36070DOD     C252030  20.306  20.125  28.918 -0.1464  0.2374 -0.0125
36070DOD     C352031  19.921  19.988  29.217 -0.0245  0.0112 -0.0760
36071DOD     C152032  20.755  11.142   9.004 -0.1787  0.3062 -0.3151
36071DOD     C252033  20.992  10.934   9.337 -0.0174 -0.1482 -0.2059
36071DOD     C352034  21.375  10.864   9.585 -0.0172  0.2242 -0.1640
36072DOD     C152035  21.800   8.792  15.449  0.1365 -0.2016 -0.0962
36072DOD     C252036  21.588   9.153  15.317 -0.1387  0.0460  0.0246
36072DOD     C352037  21.695   9.555  15.169  0.0630  0.2818 -0.0097
36073DOD     C152038   8.785   4.740  10.927 -0.0860 -0.1260 -0.0699
36073DOD     C252039   8.907   4.444  10.525 -0.1276 -0.0366  0.0137
36073DOD     C352040   9.136   4.287  10.111  0.0773 -0.0394 -0.1065
36074DOD     C152041  20.129   9.527  15.060  0.0676  0.0945 -0.0514
36074DOD     C252042  20.170   9.982  15.085  0.0984  0.0633 -0.0017
36074DOD     C352043  20.060  10.454  15.183 -0.1335  0.2073 -0.2462
36075DOD     C152044  24.395   2.823  18.359 -0.1417  0.0654  0.3689
36075DOD     C252045  24.843   2.715  18.419  0.0735  0.1849 -0.1239
36075DOD     C352046  25.233   2.916  18.291  0.1819  0.2299 -0.2314
36076DOD     C152047   2.627  21.767   0.688 -0.0609 -0.0005 -0.0541
36076DOD     C252048   2.578  21.827   0.249  0.4091 -0.1035 -0.1739
36076DOD     C352049   2.337  21.936  30.148  0.1064 -0.4762 -0.2406
36077DOD     C152050  16.028  23.150  29.757  0.1477 -0.2376 -0.2664
36077DOD     C252051  16.314  22.850  29.537  0.2810 -0.2513 -0.1832
36077DOD     C352052  16.451  22.562  29.234 -0.2021  0.0134 -0.1591
36078DOD     C152053  13.956   7.323  11.179  0.0477  0.1484 -0.2753
36078DOD     C252054  13.562   7.515  11.046  0.3222  0.0603 -0.1668
36078DOD     C352055  13.182   7.412  10.808 -0.0103  0.3012  0.1745
36079DOD     C152056   8.866   4.801   0.393  0.2541  0.0444 -0.0695
36079DOD     C252057   8.809   4.733   0.880 -0.4355  0.1778 -0.0772
36079DOD     C352058   9.029   4.362   1.214 -0.3359  0.2672 -0.3566
36080DOD     C152059  25.943  18.386  11.921  0.1323  0.0834  0.0650
36080DOD     C252060  26.254  18.244  12.255 -0.0353 -0.1045 -0.0044
36080DOD     C352061  26.408  18.232  12.719  0.2403 -0.0221 -0.0026
36081DOD     C152062   1.857   0.599   6.412 -0.0921 -0.1327  0.2319
36081DOD     C252063   1.955   1.035   6.201  0.0460  0.7547 -0.0629
36081DOD     C352064   2.000   1.475   6.272  0.0644 -0.1618 -0.0726
36082DOD     C152065  12.729  13.099  28.278  0.1698 -0.1994  0.0163
36082DOD     C252066  12.472  13.460  28.302  0.0072  0.1794  0.0014
36082DOD     C352067  12.205  13.802  28.223  0.1464  0.0135 -0.0560
36083DOD     C152068  21.729   9.582  13.516 -0.1462  0.2534  0.0144
36083DOD     C252069  21.607   9.199  13.305  0.0824 -0.1403 -0.1926
36083DOD     C352070  21.456   8.867  13.069 -0.0139 -0.1377  0.2921
36084DOD     C152071   5.840   6.402  22.401  0.0616  0.1894  0.1464
36084DOD     C252072   5.893   6.447  21.949  0.2077  0.2482  0.2212
36084DOD     C352073   6.102   6.439  21.515 -0.2389  0.0486 -0.0413
36085DOD     C152074  14.868  15.420  23.051 -0.3026  0.2178 -0.0468
36085DOD     C252075  14.486  15.606  22.852 -0.1759 -0.1148  0.1148
36085DOD     C352076  14.346  15.882  22.457 -0.3587  0.0509 -0.5224
36086DOD     C152077  19.397  14.745   3.132  0.3941  0.1058 -0.1430
36086DOD     C252078  19.100  15.038   3.322 -0.1117 -0.0158 -0.2748
36086DOD     C352079  18.708  15.235   3.509 -0.0596 -0.2218  0.1791
36087DOD     C152080  22.678   8.980  22.105 -0.1632  0.2622 -0.0052
36087DOD     C252081  22.207   9.053  22.026  0.1514  0.0211 -0.1094
36087DOD     C352082  21.879   9.155  21.683  0.1691  0.0100  0.0759
36088DOD     C152083  14.481   3.841  12.084  0.0335 -0.3686 -0.1023
36088DOD     C252084  14.301   4.227  12.381 -0.0741 -0.1556  0.1330
36088DOD     C352085  14.045   4.627  12.464 -0.1209  0.2931  0.0651
36089DOD     C152086  25.687   5.006  26.093  0.0787  0.0544 -0.1781
36089DOD     C252087  25.956   5.325  25.887 -0.0447 -0.1915 -0.0352
36089DOD     C352088  25.864   5.765  25.929  0.1486  0.0843 -0.1493
36090DOD     C152089   4.172  13.960  27.986 -0.1987 -0.0666  0.3232
36090DOD     C252090   3.865  13.644  28.147 -0.1480  0.1351  0.2615
36090DOD     C352091   3.761  13.278  28.344  0.0092  0.1878  0.1799
36091DOD     C152092   6.702  26.328  24.118 -0.0311  0.1864  0.0448
36091DOD     C252093   6.512  26.501  23.734 -0.0496 -0.1145 -0.0424
36091DOD     C352094   6.425  26.742  23.422  0.2365 -0.0181  0.4268
36092DOD     C152095  16.582  24.843  23.449 -0.0015  0.2928 -0.0500
36092DOD     C252096  16.380  24.414  23.428 -0.0267 -0.3354 -0.3950
36092DOD     C352097  16.011  24.166  23.508 -0.0673  0.0076 -0.1081
36093DOD     C152098  22.393  13.948  25.029 -0.0854 -0.0698 -0.0432
36093DOD     C252099  22.570  13.546  24.882 -0.2747 -0.0166 -0.0460
36093DOD     C352100  22.805  13.125  25.030  0.3839  0.0397  0.0397
36094DOD     C152101  27.847  25.645  25.180 -0.1765  0.0011  0.2632
36094DOD     C252102  27.653  25.988  24.974  0.2649  0.0021  0.1885
36094DOD     C352103  27.806  26.249  24.604  0.1892  0.0734 -0.2189
36095DOD     C152104  18.223   6.675  27.297 -0.2210 -0.0171 -0.1384
36095DOD     C252105  18.400   6.853  26.933 -0.0758 -0.0399  0.3118
36095DOD     C352106  18.183   7.111  26.603 -0.1607 -0.0246  0.0479
36096DOD     C152107  21.944   4.236  13.686 -0.3152  0.2502  0.2888
36096DOD     C252108  22.156   4.120  14.078 -0.0019  0.3596 -0.0797
36096DOD     C352109  22.331   3.961  14.482  0.1016 -0.2665 -0.1848
36097DOD     C152110   2.184  18.185  21.541 -0.1931 -0.0579 -0.0194
36097DOD     C252111   2.530  18.297  21.793 -0.2182 -0.2476 -0.1363
36097DOD     C352112   2.982  18.104  21.822 -0.2010  0.0483 -0.2120
36098DOD     C152113  29.605   3.594  13.900 -0.2543 -0.1173  0.2228
36098DOD     C252114  29.844   3.800  14.291  0.0619  0.0191 -0.0383
36098DOD     C352115  30.097   3.708  14.658 -0.0748  0.1138  0.0206
36099DOD     C152116  27.797  24.765   9.965  0.1939  0.2350  0.2342
36099DOD     C252117  27.349  24.679   9.945  0.0051 -0.0498 -0.0511
36099DOD     C352118  26.932  24.784  10.057 -0.0483  0.1628  0.1265
36100DOD     C152119  27.016  18.784  27.951 -0.0593 -0.3190 -0.2222
36100DOD     C252120  26.836  19.176  28.146  0.0286 -0.2309  0.0977
36100DOD     C352121  26.389  19.346  28.220  0.2250 -0.1842  0.0514
36101DOD     C152122  13.724  10.201  10.773  0.0427  0.2306 -0.0281
36101DOD     C252123  13.569  10.014  11.175 -0.0735 -0.2235  0.2101
36101DOD     C352124  13.466   9.982  11.595  0.0415  0.0343  0.2142
36102DOD     C152125   6.621  14.812  29.052  0.1160  0.1059 -0.0960
36102DOD     C252126   6.751  14.694  28.655  0.3274  0.0363  0.0577
36102DOD     C352127   6.543  14.432  28.266  0.0615  0.0300  0.1515
36103DOD     C152128  18.913  15.401   2.518  0.0103  0.2171 -0.0669
36103DOD     C252129  18.698  15.200   2.921  0.0488  0.1651  0.1794
36103DOD     C352130  18.263  15.184   3.197  0.1174 -0.0981 -0.0979
36104DOD     C152131  10.154  21.795  21.403 -0.0827 -0.0309 -0.2212
36104DOD     C252132   9.797  21.974  21.666  0.1161 -0.0410  0.1164
36104DOD     C352133   9.625  22.233  22.029  0.2123  0.3877 -0.0629
36105DOD     C152134   2.902  26.933   5.563  0.3126 -0.0184  0.1292
36105DOD     C252135   3.232  26.584   5.653 -0.0162 -0.0396  0.0882
36105DOD     C352136   3.663  26.417   5.666 -0.3119  0.1175  0.0466
36106DOD     C152137   7.380  22.086  15.510 -0.0046 -0.1684  0.1107
36106DOD     C252138   7.235  21.882  15.078  0.1583  0.1499 -0.0939
36106DOD     C352139   6.926  21.786  14.746  0.3082 -0.0284 -0.2333
36107DOD     C152140   5.520  27.364  12.290  0.0813 -0.1076 -0.0733
36107DOD     C252141   5.460  27.573  11.861 -0.3657  0.0596  0.3441
36107DOD     C352142   5.244  27.911  11.607 -0.0150  0.0033  0.1470
36108DOD     C152143  10.285   4.243   8.869 -0.0391 -0.1124 -0.2250
36108DOD     C252144   9.806   4.203   8.954 -0.0914 -0.0017  0.3871
36108DOD     C352145   9.609   3.743   9.008 -0.1085 -0.0688  0.1505
36109DOD     C152146  17.350  27.105  11.905 -0.0454 -0.2189  0.0492
36109DOD     C252147  17.109  27.141  11.588 -0.0706 -0.0057  0.0790
36109DOD     C352148  16.837  27.429  11.360  0.2705 -0.0050  0.3040
36110DOD     C152149   9.110  22.384  20.319  0.2787  0.1425 -0.0520
36110DOD     C252150   9.527  22.509  20.162  0.3984 -0.0635  0.1523
36110DOD     C352151   9.916  22.668  20.020  0.1532  0.1879  0.3318
36111DOD     C152152   6.033  10.471  15.509  0.0633 -0.0144 -0.2558
36111DOD     C252153   6.102  10.894  15.783 -0.1489  0.2220  0.1836
36111DOD     C352154   6.197  11.302  16.034  0.2194 -0.3183 -0.1762
36112DOD     C152155  26.610   0.213  17.325  0.0481 -0.0101  0.0438
36112DOD     C252156  26.634  30.114  17.538 -0.1926 -0.0637 -0.0760
36112DOD     C352157  26.347  30.042  17.878 -0.4599  0.1293 -0.1602
36113DOD     C152158  12.992  18.103  30.346 -0.0665 -0.3419 -0.0756
36113DOD     C252159  12.865  18.586  30.210  0.0435 -0.1785  0.1672
36113DOD     C352160  12.967  18.937  29.967 -0.1898  0.0377 -0.3534
36114DOD     C152161  24.555  29.668  16.204  0.0962 -0.1308 -0.1058
36114DOD     C252162  24.895  29.990  16.366 -0.3067 -0.1022  0.0353
36114DOD     C352163  24.843   0.051  16.646 -0.0123 -0.2202  0.1835
36115DOD     C152164  24.702  19.307   2.137 -0.3546 -0.2833 -0.0718
36115DOD     C252165  24.989  19.057   1.974  0.0034  0.1457  0.1815
36115DOD     C352166  25.302  18.825   1.738 -0.1937  0.2812  0.0628
36116DOD     C152167  16.305   9.289  26.995 -0.0294  0.0032 -0.2334
36116DOD     C252168  15.847   9.350  27.049  0.1384  0.0315 -0.2070
36116DOD     C352169  15.422   9.570  27.112  0.1387 -0.0106  0.1029
36117DOD     C152170  15.173  17.535  28.154 -0.0285  0.0128  0.2140
36117DOD     C252171  15.201  17.473  27.699  0.1908 -0.1264 -0.2620
36117DOD     C352172  14.953  17.530  27.283 -0.0149 -0.0986 -0.1610
36118DOD     C152173  28.756  12.702  26.067  0.3929  0.1408 -0.1271
36118DOD     C252174  28.397  12.714  26.349  0.0725  0.1566 -0.0710
36118DOD     C352175  28.372  12.638  26.846  0.0539  0.2195 -0.0293
36119DOD     C152176  19.787  17.444   3.849  0.1967  0.0413 -0.1669
36119DOD     C252177  19.422  17.657   3.713 -0.0739  0.0467 -0.0399
36119DOD     C352178  19.015  17.894   3.736 -0.4599 -0.2475  0.0023
36120DOD     C152179  14.706  14.694  26.864  0.2225 -0.1729 -0.1525
36120DOD     C252180  14.264  14.571  26.752  0.0908 -0.0498 -0.0422
36120DOD     C352181  13.964  14.451  26.425  0.3586 -0.0620 -0.0513
36121DOD     C152182  13.496  16.181   6.710  0.0707 -0.2325 -0.3746
36121DOD     C252183  13.324  16.275   7.054  0.1638  0.2868 -0.0082
36121DOD     C352184  13.386  16.067   7.431  0.2980  0.2151 -0.3866
36122DOD     C152185  14.603  23.980  10.813  0.1075  0.2205 -0.2314
36122DOD     C252186  14.426  24.311  10.568 -0.1302  0.0219  0.4182
36122DOD     C352187  14.299  24.746  10.612  0.0829 -0.2538  0.1873
36123DOD     C152188   9.894  19.256  25.930  0.0649  0.0476 -0.1303
36123DOD     C252189   9.974  19.676  25.907  0.3661 -0.0464  0.0518
36123DOD     C352190   9.721  20.037  25.698 -0.0523 -0.2175  0.0798
36124DOD     C152191   1.752   4.263   8.808  0.0426 -0.1173  0.1989
36124DOD     C252192   1.722   4.479   8.419  0.2592  0.2817 -0.1516
36124DOD     C352193   1.763   4.835   8.196 -0.2761  0.2731  0.2609
36125DOD     C152194   8.530  17.118   9.533  0.0640  0.0756 -0.3382
36125DOD     C252195   8.981  17.038   9.475  0.2815 -0.0743 -0.1109
36125DOD     C352196   9.359  16.904   9.685  0.0003 -0.1443  0.0915
36126DOD     C152197   6.617  17.507   9.961  0.0013  0.0701 -0.2506
36126DOD     C252198   6.202  17.641  10.173 -0.0706  0.1198  0.0763
36126DOD     C352199   5.840  17.922  10.245 -0.0539 -0.0646 -0.0538
36127DOD     C152200  26.479   5.010  29.122 -0.1523 -0.1270 -0.0033
36127DOD     C252201  26.733   5.273  29.387  0.0337  0.2081 -0.0827
36127DOD     C352202  26.871   5.182  29.852 -0.2001 -0.2004  0.1331
36128DOD     C152203  10.532  12.363   8.980 -0.0620 -0.2027 -0.3379
36128DOD     C252204  10.047  12.363   8.775 -0.1002 -0.4545 -0.2534
36128DOD     C352205   9.821  12.689   8.491  0.1471  0.1294  0.2373
36129DOD     C152206  23.820   3.765  18.774 -0.2811  0.0194 -0.0836
36129DOD     C252207  23.821   3.619  19.213  0.0840  0.0749  0.1008
36129DOD     C352208  23.709   3.396  19.595  0.2666  0.1519  0.1157
36130DOD     C152209  17.211  27.916  25.740 -0.1834  0.2372 -0.1125
36130DOD     C252210  17.034  27.484  25.763 -0.1962  0.0133 -0.0400
36130DOD     C352211  16.596  27.305  25.782  0.1110 -0.2469  0.5405
36131DOD     C152212  15.146  28.744  17.244 -0.2854 -0.0305 -0.1974
36131DOD     C252213  15.112  29.211  17.293  0.1594  0.0252  0.0696
36131DOD     C352214  15.009  29.602  17.011  0.2644  0.3399  0.2640
36132DOD     C152215   2.412   7.531   9.916 -0.1198 -0.0645  0.0588
36132DOD     C252216   2.290   7.659   9.458  0.0986 -0.3303  0.3212
36132DOD     C352217   2.016   7.613   9.084  0.0457 -0.0559 -0.2111
36133DOD     C152218  29.258  28.034   9.145 -0.1181 -0.3699  0.2890
36133DOD     C252219  29.659  28.268   9.266  0.1937  0.1134 -0.0837
36133DOD     C352220  29.892  28.664   9.440  0.1967  0.1476  0.0051
36134DOD     C152221   1.192  21.707  23.987  0.1417  0.1254 -0.0438
36134DOD     C252222   1.032  21.392  23.787  0.0511  0.1409 -0.0655
36134DOD     C352223   0.676  21.073  23.817  0.0833 -0.4406 -0.1784
36135DOD     C152224   7.972   9.605   2.311 -0.1235 -0.0384 -0.2020
36135DOD     C252225   7.997   9.288   2.641 -0.1615 -0.2226 -0.1857
36135DOD     C352226   7.998   8.832   2.566  0.2778 -0.2080 -0.2727
36136DOD     C152227  21.398  22.720   2.371  0.1875 -0.1277 -0.2258
36136DOD     C252228  20.965  22.831   2.575 -0.1715  0.2608 -0.0649
36136DOD     C352229  20.786  22.691   2.986 -0.0498  0.1638 -0.0841
36137DOD     C152230  26.957  25.241  22.679 -0.3118  0.2022 -0.1159
36137DOD     C252231  26.805  25.360  23.074  0.1746 -0.2232  0.1212
36137DOD     C352232  26.568  25.319  23.428  0.0867  0.2585 -0.0765
36138DOD     C152233   9.834  25.785  23.089 -0.0602 -0.7034 -0.0358
36138DOD     C252234   9.840  26.109  22.761 -0.0682 -0.0281  0.0212
36138DOD     C352235  10.194  26.184  22.451 -0.0269 -0.2356 -0.0509
36139DOD     C152236  25.193  25.953   7.326  0.2507  0.1963  0.3745
36139DOD     C252237  24.880  26.036   6.975 -0.0605  0.1686  0.0629
36139DOD     C352238  24.619  26.252   6.613 -0.0253 -0.0668 -0.2241
36140DOD     C152239  22.923  28.723  16.000 -0.0433 -0.0476 -0.1012
36140DOD     C252240  22.634  28.881  15.709 -0.2801  0.0817 -0.1541
36140DOD     C352241  22.236  28.914  15.415  0.1428 -0.2245 -0.3280
36141DOD     C152242   0.397   1.835  18.384  0.0267  0.3297 -0.0270
36141DOD     C252243   0.348   2.273  18.418 -0.1272  0.1420  0.0892
36141DOD     C352244   0.361   2.505  18.878 -0.2968  0.0364 -0.0247
36142DOD     C152245   5.902  20.779  21.592  0.0459  0.2059  0.1569
36142DOD     C252246   5.713  20.482  21.243  0.4224  0.1334  0.1892
36142DOD     C352247   5.532  20.074  21.082 -0.3809 -0.0592 -0.0401
36143DOD     C152248  12.581  14.867   1.584 -0.0501  0.0337  0.1550
36143DOD     C252249  12.795  14.523   1.307  0.1090  0.3671  0.1451
36143DOD     C352250  12.510  14.195   1.150 -0.0006 -0.0642  0.5150
36144DOD     C152251  20.839  22.864  14.401  0.0615 -0.1949 -0.0564
36144DOD     C252252  20.774  23.290  14.233 -0.0683 -0.2925  0.0480
36144DOD     C352253  20.483  23.596  13.957 -0.2027 -0.0275 -0.0712
36145DOD     C152254   6.394  18.528   3.547  0.0278 -0.0590 -0.4670
36145DOD     C252255   6.007  18.346   3.355 -0.1767  0.1994 -0.2938
36145DOD     C352256   5.644  18.094   3.498 -0.0852 -0.3239 -0.2115
36146DOD     C152257  18.813   5.402  22.626  0.0829  0.0563 -0.2722
36146DOD     C252258  18.634   5.158  22.944 -0.1206  0.0815 -0.1284
36146DOD     C352259  18.663   4.729  23.184 -0.1812  0.0052  0.0001
36147DOD     C152260   9.236  18.900  10.671 -0.0620  0.0560  0.1939
36147DOD     C252261   8.861  18.912  10.932  0.2216  0.1780 -0.0923
36147DOD     C352262   8.408  18.941  11.043  0.1073  0.1243 -0.0279
36148DOD     C152263  12.387  12.187   7.821  0.3370  0.4554  0.1494
36148DOD     C252264  12.490  11.879   7.520  0.1987 -0.1659  0.1984
36148DOD     C352265  12.661  11.877   7.043  0.1542 -0.1075 -0.3462
36149DOD     C152266  15.742   6.182   7.850 -0.0820 -0.2004 -0.1728
36149DOD     C252267  15.550   6.613   7.861  0.0938  0.0756 -0.1427
36149DOD     C352268  15.293   6.953   7.837 -0.0233  0.1162  0.3933
36150DOD     C152269   3.032  13.995   1.051 -0.0709 -0.0578 -0.0297
36150DOD     C252270   2.809  14.015   1.458 -0.0476 -0.0562  0.3882
36150DOD     C352271   2.598  14.257   1.793  0.1096 -0.0673  0.0628
36151DOD     C152272   3.490  23.198  10.667  0.0009  0.1135  0.0385
36151DOD     C252273   3.103  23.209  11.010  0.2925  0.4511  0.1331
36151DOD     C352274   2.934  23.667  11.131  0.1549 -0.2396  0.1766
36152DOD     C152275  23.999   1.690  13.641  0.2701  0.1315 -0.1938
36152DOD     C252276  24.051   1.704  14.124 -0.0047  0.3440  0.1422
36152DOD     C352277  24.232   2.070  14.285 -0.1693 -0.0352 -0.3297
36153DOD     C152278  17.163   5.494  21.742 -0.1585  0.0817  0.2588
36153DOD     C252279  16.949   5.496  21.280  0.3156 -0.0553  0.0107
36153DOD     C352280  16.532   5.654  21.071  0.0164 -0.1066  0.1149
36154DOD     C152281   4.796   7.345  18.782 -0.1335  0.0871  0.0216
36154DOD     C252282   4.704   7.230  19.210 -0.0001 -0.2679  0.3578
36154DOD     C352283   4.474   6.955  19.548 -0.1478  0.0998 -0.1914
36155DOD     C152284  27.289  13.300  20.251 -0.0699  0.0584 -0.2266
36155DOD     C252285  26.865  13.140  20.209  0.1351  0.2286  0.3902
36155DOD     C352286  26.483  12.986  20.014  0.2709  0.2682 -0.3801
36156DOD     C152287  19.548   7.846  20.684  0.0339 -0.0888  0.3219
36156DOD     C252288  19.276   7.979  21.016  0.2206  0.0410 -0.5306
36156DOD     C352289  19.212   8.156  21.427  0.2498  0.0970  0.0295
36157DOD     C152290  10.861   5.794  14.949  0.2160 -0.0662  0.0468
36157DOD     C252291  10.384   5.784  14.999 -0.1993 -0.0992  0.0632
36157DOD     C352292  10.071   5.493  15.169  0.2528  0.1816  0.0934
36158DOD     C152293  10.499  11.238  25.448  0.0037  0.0685 -0.3064
36158DOD     C252294  10.585  11.330  25.939 -0.0869  0.1333 -0.2790
36158DOD     C352295  10.857  11.078  26.231 -0.0868 -0.0214 -0.2526
36159DOD     C152296   4.193  27.693   1.819 -0.1322  0.0842 -0.2441
36159DOD     C252297   4.072  27.746   1.371 -0.0098  0.0233 -0.1454
36159DOD     C352298   4.116  27.656   0.936 -0.0514 -0.0841  0.0329
36160DOD     C152299  10.521   7.957  17.971  0.2513 -0.1540  0.1363
36160DOD     C252300  10.073   8.058  17.856 -0.0346  0.1808 -0.1636
36160DOD     C352301   9.685   8.211  18.080  0.3398  0.0513  0.2483
36161DOD     C152302  13.563  10.551  21.575 -0.2808  0.0459 -0.0155
36161DOD     C252303  14.013  10.467  21.667 -0.0903 -0.0995 -0.0660
36161DOD     C352304  14.232  10.256  22.019 -0.0452  0.1270  0.0508
36162DOD     C152305  25.138   3.745  19.816 -0.0885 -0.0436 -0.3994
36162DOD     C252306  25.070   3.278  19.656  0.0531 -0.1034  0.0076
36162DOD     C352307  25.130   2.916  19.917 -0.2650 -0.0589  0.0631
36163DOD     C152308  21.242   5.011  27.959  0.3763  0.0913  0.1165
36163DOD     C252309  20.841   4.936  28.164  0.1441  0.0087  0.0217
36163DOD     C352310  20.385   4.902  28.260 -0.0726  0.2466  0.1541
36164DOD     C152311   5.768   5.185  19.230 -0.0304  0.2574 -0.0221
36164DOD     C252312   5.528   5.174  18.821 -0.2884 -0.1928 -0.1620
36164DOD     C352313   5.255   5.495  18.607 -0.2507  0.0591  0.0836
36165DOD     C152314   6.100   6.825  25.402  0.0598 -0.0515 -0.0455
36165DOD     C252315   5.870   7.252  25.461 -0.1522 -0.0950  0.0478
36165DOD     C352316   5.537   7.342  25.806 -0.0701  0.1862  0.2444
36166DOD     C152317  11.665  28.810  30.186  0.3203 -0.2401  0.1614
36166DOD     C252318  11.533  29.032   0.226 -0.0594 -0.1985  0.0350
36166DOD     C352319  11.708  29.351   0.525  0.1731  0.2939  0.0413
36167DOD     C152320  13.804  25.316  14.114 -0.0359 -0.1724  0.0190
36167DOD     C252321  13.525  25.628  14.322 -0.3878  0.1385 -0.3382
36167DOD     C352322  13.509  26.018  14.512  0.2254 -0.1160  0.0353
36168DOD     C152323  23.576  13.771  26.103 -0.1460 -0.1429 -0.0198
36168DOD     C252324  23.470  14.212  26.121 -0.4452 -0.0622 -0.2827
36168DOD     C352325  23.133  14.526  25.989 -0.1529  0.1114 -0.1751
36169DOD     C152326  25.435  29.312   7.522 -0.2964 -0.0861 -0.1485
36169DOD     C252327  25.778  29.058   7.804 -0.0997 -0.1902 -0.0752
36169DOD     C352328  26.076  28.736   7.975 -0.2984  0.3802 -0.0948
36170DOD     C152329   6.613  27.128   1.676  0.2134 -0.0424  0.2283
36170DOD     C252330   6.577  27.213   2.073 -0.0672  0.1058 -0.0547
36170DOD     C352331   6.644  26.881   2.452 -0.0101  0.0645 -0.2458
36171DOD     C152332  17.355  10.274  16.861 -0.0982 -0.2981 -0.0816
36171DOD     C252333  17.526   9.871  17.042 -0.0358  0.0897  0.0606
36171DOD     C352334  17.819   9.628  17.241 -0.0492  0.0636 -0.0128
36172DOD     C152335  23.543   0.509  23.940 -0.3982 -0.0455 -0.2141
36172DOD     C252336  23.972   0.351  23.984 -0.0944 -0.0583 -0.1084
36172DOD     C352337  24.368   0.205  24.088 -0.0237  0.0729 -0.2869
36173DOD     C152338  19.514  11.144   7.340  0.2205  0.1606 -0.0764
36173DOD     C252339  19.608  11.588   7.435  0.0552 -0.1451 -0.4195
36173DOD     C352340  19.784  11.984   7.420  0.0181  0.0016 -0.1667
36174DOD     C152341  13.450  23.186  26.576  0.2517  0.1442 -0.2952
36174DOD     C252342  13.515  22.718  26.503  0.0198 -0.0065 -0.0875
36174DOD     C352343  13.768  22.383  26.767  0.1808  0.1121 -0.1310
36175DOD     C152344  11.186  18.308   7.842 -0.0108 -0.2993 -0.2888
36175DOD     C252345  11.409  18.101   7.495 -0.0223  0.1774 -0.4025
36175DOD     C352346  11.839  17.935   7.365  0.3311 -0.1402 -0.0128
36176DOD     C152347  16.207   7.129  29.676 -0.0666  0.0010 -0.0024
36176DOD     C252348  16.511   6.759  29.804 -0.2818 -0.1429 -0.2845
36176DOD     C352349  16.938   6.550  29.810  0.0034  0.2836 -0.1339
36177DOD     C152350  16.770  24.661   7.258  0.1623  0.1948 -0.4063
36177DOD     C252351  17.053  25.001   7.286  0.0781  0.1481 -0.0146
36177DOD     C352352  17.473  25.189   7.118 -0.0080  0.4472 -0.1147
36178DOD     C152353  18.203  22.274  23.926 -0.1689  0.1627 -0.1127
36178DOD     C252354  18.140  22.702  23.693 -0.3058  0.0896 -0.1552
36178DOD     C352355  18.248  23.012  23.341 -0.2233  0.0479  0.0266
36179DOD     C152356  16.197  13.343  11.435  0.0174 -0.0612  0.0303
36179DOD     C252357  16.601  13.157  11.662 -0.0385  0.0201  0.1540
36179DOD     C352358  16.798  12.681  11.616  0.2519 -0.3684  0.2090
36180DOD     C152359  16.678  11.997  13.029  0.0219 -0.0965 -0.3828
36180DOD     C252360  16.436  11.954  13.349 -0.0475 -0.1625 -0.0365
36180DOD     C352361  16.558  11.552  13.577  0.0804  0.1421  0.2659
36181DOD     C152362  10.033   7.782   2.806 -0.1469  0.1927  0.1410
36181DOD     C252363  10.321   7.399   2.793 -0.0522 -0.4433  0.1070
36181DOD     C352364  10.568   7.035   2.917 -0.0934  0.2494  0.0102
36182DOD     C152365  16.686  15.051   5.958 -0.0921 -0.0854 -0.1479
36182DOD     C252366  16.864  15.414   6.126  0.2116 -0.0464 -0.2972
36182DOD     C352367  16.804  15.789   6.472  0.0618  0.0938  0.2573
36183DOD     C152368   0.017  22.942  12.818  0.0632 -0.0728 -0.0033
36183DOD     C252369  30.270  23.244  13.179  0.1004 -0.6846 -0.0988
36183DOD     C352370  30.335  23.437  13.612  0.0986  0.0392  0.1641
36184DOD     C152371  16.628   0.374  18.528 -0.1710 -0.0169 -0.4292
36184DOD     C252372  17.054   0.367  18.371  0.0143 -0.1035 -0.0369
36184DOD     C352373  17.319   0.046  18.151 -0.1462  0.0533  0.0232
36185DOD     C152374   1.183  28.793   8.619 -0.1033  0.2507 -0.2068
36185DOD     C252375   1.059  28.564   8.257  0.2922 -0.1797  0.0554
36185DOD     C352376   0.923  28.444   7.773  0.0478 -0.0302 -0.3557
36186DOD     C152377  26.559   0.349   9.925  0.1060 -0.2412  0.1371
36186DOD     C252378  26.833   0.598  10.183 -0.0440  0.0573  0.3233
36186DOD     C352379  26.833   0.892  10.578 -0.1137  0.2379  0.2902
36187DOD     C152380   1.160  16.720   9.582 -0.0628 -0.1649  0.0577
36187DOD     C252381   1.361  17.111   9.712 -0.2871  0.0445 -0.1973
36187DOD     C352382   1.836  17.269   9.693  0.0932 -0.3112  0.1019
36188DOD     C152383  20.933  28.024  14.572  0.1949 -0.1745 -0.1093
36188DOD     C252384  21.326  28.053  14.728 -0.1820 -0.1860  0.1024
36188DOD     C352385  21.699  28.267  14.628  0.1994  0.1996 -0.1695
36189DOD     C152386  17.390  23.157   4.831 -0.0785  0.1993 -0.0524
36189DOD     C252387  17.320  23.548   4.827 -0.1766  0.2010  0.2448
36189DOD     C352388  17.258  23.932   4.628 -0.0286  0.1687  0.1955
36190DOD     C152389  18.586  20.293   1.739 -0.5242 -0.1830  0.0087
36190DOD     C252390  18.796  20.600   2.036  0.1369 -0.2592  0.0138
36190DOD     C352391  18.684  20.883   2.411  0.1762 -0.1844  0.0391
36191DOD     C152392   1.803   7.068  23.266 -0.4404 -0.2322 -0.2010
36191DOD     C252393   2.027   7.063  22.842 -0.1870  0.0036 -0.1864
36191DOD     C352394   1.903   7.325  22.441  0.1527  0.0752  0.2028
36192DOD     C152395   3.383  26.970  25.156  0.0774 -0.1939 -0.0690
36192DOD     C252396   3.716  27.195  25.284  0.2709 -0.2064  0.1064
36192DOD     C352397   4.144  27.068  25.251  0.3823  0.0841 -0.3609
36193DOD     C152398   3.568   7.299   0.087  0.3239 -0.1565  0.0127
36193DOD     C252399   3.804   7.322  30.018 -0.1084 -0.0257 -0.0192
36193DOD     C352400   3.930   7.381  29.541 -0.2273  0.0537 -0.0843
36194DOD     C152401  24.175  26.500   0.268 -0.1668  0.0386 -0.0919
36194DOD     C252402  24.552  26.634   0.541  0.2151  0.2598 -0.1632
36194DOD     C352403  24.865  26.839   0.835 -0.0594 -0.0912  0.0439
36195DOD     C152404  22.218  29.624  19.043 -0.2748 -0.2128 -0.0045
36195DOD     C252405  22.071  29.971  19.270 -0.0884  0.0259 -0.3178
36195DOD     C352406  21.965   0.095  19.174  0.0449  0.0618  0.1088
36196DOD     C152407  20.356  27.776  22.136 -0.0238 -0.0375  0.2435
36196DOD     C252408  20.052  27.807  21.704  0.2353 -0.0328  0.1660
36196DOD     C352409  19.960  27.930  21.244  0.1735 -0.1392  0.0232
36197DOD     C152410  24.352   9.162   5.564 -0.1059 -0.3681 -0.1915
36197DOD     C252411  24.770   8.995   5.479 -0.0619  0.3030 -0.3142
36197DOD     C352412  25.142   8.798   5.581  0.2789  0.3903 -0.5558
36198DOD     C152413  20.239  30.234  28.699 -0.2943 -0.1661  0.0756
36198DOD     C252414  20.485   0.054  29.061 -0.0146 -0.2344 -0.1104
36198DOD     C352415  20.905  30.218  29.239 -0.1731 -0.2831 -0.1436
36199DOD     C152416  11.095   1.134  28.654 -0.3167  0.0911 -0.1167
36199DOD     C252417  10.728   1.178  28.892 -0.3451  0.3672 -0.2159
36199DOD     C352418  10.309   0.953  28.871 -0.0285  0.0669 -0.0255
36200DOD     C152419  18.095  10.803  28.443  0.1699  0.2336 -0.1864
36200DOD     C252420  18.297  10.917  28.032 -0.0030 -0.0355  0.1712
36200DOD     C352421  18.273  10.694  27.608  0.0001  0.0394  0.1764
36201DOD     C152422  13.900   5.572   2.287  0.2222  0.0389  0.2200
36201DOD     C252423  13.989   5.835   1.914 -0.2068  0.0291  0.1913
36201DOD     C352424  14.105   5.668   1.492  0.0867 -0.0906 -0.0330
36202DOD     C152425  30.115   7.952   0.310  0.1664 -0.3883 -0.0572
36202DOD     C252426   0.045   7.958  30.268 -0.0448  0.1418 -0.1628
36202DOD     C352427   0.147   8.212  29.898  0.0909 -0.6424 -0.1502
36203DOD     C152428  29.013  30.243  17.515 -0.1444 -0.4122  0.0609
36203DOD     C252429  29.438  30.299  17.603 -0.1169  0.1234 -0.2732
36203DOD     C352430  29.731  29.974  17.431  0.1239  0.1136 -0.1322
36204DOD     C152431  22.962  21.837  23.416 -0.1998 -0.1516  0.0293
36204DOD     C252432  22.732  21.587  23.124 -0.0971 -0.0773  0.0787
36204DOD     C352433  22.730  21.224  22.895  0.0418 -0.0116  0.2960
36205DOD     C152434  27.434  22.009  28.272 -0.1736 -0.0194  0.0205
36205DOD     C252435  27.408  21.588  28.474 -0.0600  0.1455  0.1543
36205DOD     C352436  27.327  21.414  28.889  0.0684  0.0798  0.1495
36206DOD     C152437  10.649  16.238  18.990  0.1836 -0.0305  0.1311
36206DOD     C252438  10.946  16.042  19.315  0.0754 -0.0203 -0.0928
36206DOD     C352439  11.320  15.838  19.523  0.1202  0.2587  0.3407
36207DOD     C152440   5.151  14.488  16.562 -0.3737 -0.2201  0.1878
36207DOD     C252441   5.624  14.544  16.456 -0.1879 -0.0699  0.1337
36207DOD     C352442   5.914  14.904  16.379 -0.0272  0.0560  0.1567
36208DOD     C152443   8.399  13.946   6.842  0.3008 -0.1732  0.2395
36208DOD     C252444   8.305  13.512   6.845 -0.2222 -0.0361  0.0302
36208DOD     C352445   8.622  13.182   6.703  0.1065 -0.2770 -0.2833
36209DOD     C152446   4.617  26.470  10.431  0.1528 -0.2730 -0.0087
36209DOD     C252447   4.397  26.524  10.011  0.2208  0.3596  0.1430
36209DOD     C352448   4.458  26.601   9.540 -0.0446 -0.1789  0.1410
36210DOD     C152449  19.340   1.588   8.752  0.3138 -0.0794  0.2036
36210DOD     C252450  19.625   1.788   9.021  0.0456  0.0647  0.1419
36210DOD     C352451  20.078   1.851   9.235  0.0038 -0.0069 -0.0369
36211DOD     C152452   8.556   2.056   5.392 -0.0603 -0.1619  0.0053
36211DOD     C252453   8.774   1.692   5.168  0.0321  0.1364  0.1151
36211DOD     C352454   8.591   1.446   4.839 -0.2324 -0.1785  0.1241
36212DOD     C152455  14.742   7.155  28.120 -0.0282 -0.3913  0.0675
36212DOD     C252456  14.482   7.403  28.407 -0.2321  0.1880 -0.0754
36212DOD     C352457  14.315   7.813  28.613  0.4045 -0.1412  0.0832
36213DOD     C152458   8.195  28.447  29.198  0.1515  0.0834  0.0513
36213DOD     C252459   8.506  28.721  29.029 -0.0735 -0.0251  0.0581
36213DOD     C352460   8.841  28.842  29.265 -0.0470  0.0278  0.2342
36214DOD     C152461  20.600   8.360   2.004 -0.2693  0.0601  0.0378
36214DOD     C252462  20.738   8.555   1.565  0.2216  0.1436 -0.0197
36214DOD     C352463  20.721   8.886   1.208 -0.1443  0.1648 -0.1437
36215DOD     C152464   2.136  28.207  21.191  0.0927 -0.1727 -0.2282
36215DOD     C252465   2.018  28.664  21.283 -0.0504 -0.1369 -0.2386
36215DOD     C352466   1.714  28.950  21.486  0.1618 -0.1408  0.0232
36216DOD     C152467   9.016   7.552  27.354 -0.1443  0.5052 -0.0276
36216DOD     C252468   8.870   7.671  26.945 -0.2350 -0.0901 -0.0049
36216DOD     C352469   8.476   7.677  26.635  0.1114 -0.0219 -0.0588
36217DOD     C152470  23.092   5.136  10.096 -0.2095  0.5209 -0.1091
36217DOD     C252471  22.761   5.395  10.357 -0.1532 -0.0623  0.0201
36217DOD     C352472  22.452   5.679  10.559 -0.0731  0.1369  0.2366
36218DOD     C152473  25.501  30.088  27.374 -0.0598 -0.3247 -0.1244
36218DOD     C252474  25.964  30.034  27.281  0.0986 -0.1693  0.1527
36218DOD     C352475  26.347  29.903  26.979 -0.0719  0.0320  0.1142
36219DOD     C152476  16.141  17.152  23.328  0.0713 -0.0478 -0.0658
36219DOD     C252477  16.252  17.566  23.520 -0.0844  0.2674 -0.4530
36219DOD     C352478  16.441  17.854  23.802 -0.0946 -0.2719 -0.2943
36220DOD     C152479   3.975  22.097   7.932 -0.1022 -0.0275 -0.0980
36220DOD     C252480   4.358  22.233   7.642  0.2460  0.3389  0.2816
36220DOD     C352481   4.637  22.471   7.364  0.2571  0.1493 -0.3004
36221DOD     C152482  14.690  11.049  21.462  0.0892  0.3601  0.0370
36221DOD     C252483  14.412  10.683  21.319  0.1716  0.1634  0.1033
36221DOD     C352484  13.901  10.670  21.269 -0.4165  0.2431 -0.2777
36222DOD     C152485  21.943  21.557   3.502  0.3595 -0.2525 -0.0167
36222DOD     C252486  22.171  21.080   3.477 -0.1972  0.0257 -0.3580
36222DOD     C352487  22.465  20.806   3.278  0.0396  0.6765  0.1077
36223DOD     C152488  19.559  14.032   7.594  0.1822  0.0797 -0.2660
36223DOD     C252489  19.326  14.188   7.281  0.0895 -0.1300  0.4620
36223DOD     C352490  19.234  14.307   6.849 -0.4751 -0.0132  0.0154
36224DOD     C152491  12.538  12.273  22.487 -0.0400  0.1323 -0.1319
36224DOD     C252492  12.443  12.601  22.130 -0.2840  0.1163  0.0888
36224DOD     C352493  12.393  13.005  21.909 -0.0925 -0.0160 -0.0605
36225DOD     C152494  21.303  24.680  21.378 -0.0841  0.1395  0.2183
36225DOD     C252495  20.909  24.499  21.349  0.0569  0.4488 -0.3902
36225DOD     C352496  20.602  24.593  21.021  0.0787  0.0832  0.1228
36226DOD     C152497   2.597  14.197  22.657 -0.5069  0.1784  0.1196
36226DOD     C252498   2.323  13.950  22.818 -0.1501  0.0729  0.2283
36226DOD     C352499   2.194  13.904  23.233 -0.3082 -0.0376  0.0017
36227DOD     C152500  14.785  15.717  22.500 -0.0488 -0.0536  0.2002
36227DOD     C252501  14.784  15.239  22.543 -0.0039 -0.0948  0.1522
36227DOD     C352502  14.528  14.856  22.351  0.2762 -0.3022  0.0187
36228DOD     C152503   6.515  10.135  16.789 -0.3517 -0.0328 -0.2926
36228DOD     C252504   6.010  10.196  16.895  0.0352  0.3467  0.0630
36228DOD     C352505   5.655  10.465  17.039  0.1034  0.2214 -0.1173
36229DOD     C152506   7.855  14.122  28.603  0.0064 -0.2013 -0.3053
36229DOD     C252507   7.507  14.371  28.375 -0.2362 -0.0630  0.1369
36229DOD     C352508   7.442  14.556  27.943 -0.0190 -0.1096  0.0693
36230DOD     C152509  17.266  24.021   9.887 -0.3929  0.2897 -0.0614
36230DOD     C252510  17.419  24.163  10.290  0.2619 -0.1784  0.4429
36230DOD     C352511  17.259  24.477  10.620 -0.0971 -0.0538 -0.0355
36231DOD     C152512  14.549  16.492  16.136 -0.0678  0.0640 -0.1855
36231DOD     C252513  14.225  16.546  15.813  0.1072 -0.1522 -0.0391
36231DOD     C352514  13.991  16.621  15.405 -0.0905  0.0652 -0.3401
36232DOD     C152515  11.063  29.522  26.496  0.3555 -0.2380  0.0780
36232DOD     C252516  10.933  29.389  26.088 -0.2027  0.1394  0.2517
36232DOD     C352517  10.718  29.729  25.865 -0.2109 -0.0857  0.1897
36233DOD     C152518  10.339  20.561  25.975  0.0935 -0.1414  0.1014
36233DOD     C252519  10.785  20.371  25.921  0.0950  0.0145  0.0240
36233DOD     C352520  11.071  20.046  25.834 -0.0336 -0.0097  0.0910
36234DOD     C152521  15.018  23.100   0.435 -0.0236 -0.1936 -0.0641
36234DOD     C252522  14.683  23.090   0.072  0.1185  0.0772  0.0339
36234DOD     C352523  14.337  22.798  30.324  0.2950  0.2251  0.0278
36235DOD     C152524  20.882   7.618  28.130 -0.2098 -0.0588  0.0531
36235DOD     C252525  21.184   7.773  28.410 -0.2101  0.4101  0.0337
36235DOD     C352526  21.426   7.764  28.853 -0.2088  0.0022 -0.0329
36236DOD     C152527  23.245  21.011  22.872  0.2839 -0.1280 -0.3895
36236DOD     C252528  23.156  21.123  22.414 -0.0844  0.2135 -0.0548
36236DOD     C352529  22.756  21.286  22.261 -0.1397  0.0957 -0.0197
36237DOD     C152530  23.243  21.615  29.933 -0.1004  0.3301 -0.0441
36237DOD     C252531  23.457  21.797  30.240  0.1828  0.1400 -0.0735
36237DOD     C352532  23.661  21.599   0.309 -0.0053 -0.1829 -0.2062
36238DOD     C152533  18.527  12.081  22.211  0.1180 -0.2253  0.0532
36238DOD     C252534  18.849  12.385  22.203  0.1347  0.0868  0.1596
36238DOD     C352535  19.267  12.574  22.276 -0.3809 -0.2757 -0.1037
36239DOD     C152536  17.373   9.146  23.934  0.0540  0.0888 -0.0422
36239DOD     C252537  17.692   9.212  23.572  0.0224  0.1467  0.1304
36239DOD     C352538  18.067   9.041  23.791  0.3290  0.1017 -0.0815
36240DOD     C152539   1.980  22.932  26.172  0.1736  0.0925 -0.1272
36240DOD     C252540   1.629  22.769  26.365  0.1408 -0.0871  0.0593
36240DOD     C352541   1.209  22.753  26.176  0.0304  0.2597 -0.0875
36241DOD     C152542  26.236   1.093  17.698  0.1241  0.1237  0.2042
36241DOD     C252543  26.553   1.305  17.406 -0.1331  0.0042 -0.0111
36241DOD     C352544  26.501   1.460  16.958 -0.0184  0.0888  0.2855
36242DOD     C152545  17.408  14.940  20.000 -0.1818  0.0644 -0.1004
36242DOD     C252546  17.494  14.654  19.674 -0.0985  0.0789  0.0520
36242DOD     C352547  17.604  14.567  19.198  0.1300 -0.1070  0.0276
36243DOD     C152548  13.089  14.344  19.684  0.0556 -0.1103 -0.2337
36243DOD     C252549  13.035  13.917  19.783  0.1161  0.1930  0.3734
36243DOD     C352550  12.817  13.540  19.941 -0.1854  0.2466 -0.1048
36244DOD     C152551  19.937  20.615  13.846  0.2100 -0.1476  0.1361
36244DOD     C252552  20.451  20.699  13.908  0.1602 -0.0612  0.3875
36244DOD     C352553  20.896  20.827  13.972 -0.0236  0.1466 -0.1268
36245DOD     C152554  15.638  27.441  16.306  0.0660  0.3050 -0.0479
36245DOD     C252555  16.032  27.220  16.146 -0.0873  0.0006  0.2310
36245DOD     C352556  16.297  27.115  15.794  0.0256 -0.1249  0.0059
36246DOD     C152557  25.378  18.029   4.054 -0.0922  0.0264 -0.0458
36246DOD     C252558  25.031  17.930   4.363 -0.3696 -0.0417 -0.0150
36246DOD     C352559  24.546  17.773   4.352 -0.3037  0.0054 -0.2393
36247DOD     C152560   2.832  14.789  26.980 -0.1313 -0.2611  0.1527
36247DOD     C252561   2.881  14.429  26.718 -0.4075 -0.0634 -0.0553
36247DOD     C352562   2.917  13.957  26.606 -0.1643 -0.0092 -0.2583
36248DOD     C152563  26.008   4.957  17.730  0.1214 -0.2404  0.0551
36248DOD     C252564  26.496   5.094  17.770 -0.1319 -0.2640 -0.3909
36248DOD     C352565  26.822   5.302  17.468 -0.1777  0.0205  0.1421
36249DOD     C152566  23.146  24.080  26.887 -0.0216 -0.5475  0.4560
36249DOD     C252567  23.583  24.094  27.037 -0.3806 -0.0168  0.0533
36249DOD     C352568  23.831  24.457  27.256 -0.2586  0.0746  0.1802
36250DOD     C152569   0.514  10.304   5.309 -0.0114 -0.2292  0.3112
36250DOD     C252570   0.552  10.237   4.796  0.0776 -0.3382  0.3027
36250DOD     C352571   0.765   9.939   4.522  0.0118  0.1214  0.3213
36251DOD     C152572  13.332  14.047  24.693 -0.4058  0.2283 -0.2398
36251DOD     C252573  13.282  13.627  24.630  0.2050  0.0229  0.0430
36251DOD     C352574  13.319  13.317  24.326 -0.2190 -0.0811  0.1488
36252DOD     C152575  10.360   3.312  19.997 -0.0499  0.0431 -0.3013
36252DOD     C252576  10.764   3.078  20.075 -0.1281 -0.0629 -0.2127
36252DOD     C352577  11.181   3.188  20.308 -0.0190 -0.0089 -0.4198
36253DOD     C152578   0.692  29.604  11.714  0.1683 -0.1101 -0.2122
36253DOD     C252579   0.815  29.619  11.253  0.1789  0.3124  0.1922
36253DOD     C352580   1.072  29.689  10.868 -0.0287  0.0591  0.0280
36254DOD     C152581   6.552  28.945   7.765 -0.0657  0.1040 -0.0600
36254DOD     C252582   6.186  28.744   7.569 -0.0959 -0.0757  0.1935
36254DOD     C352583   5.920  28.323   7.721 -0.0972  0.0766 -0.1874
36255DOD     C152584  18.332  25.422   9.192  0.2109 -0.1483  0.1836
36255DOD     C252585  18.578  25.827   9.091 -0.0734 -0.1460 -0.0197
36255DOD     C352586  18.736  26.187   8.791  0.2653  0.2609  0.3173
36256DOD     C152587  26.883   7.893  19.926 -0.1587  0.1463  0.1665
36256DOD     C252588  27.189   7.674  19.607 -0.1177  0.1444 -0.2057
36256DOD     C352589  27.151   7.311  19.251 -0.3097 -0.0127 -0.1732
36257DOD     C152590  15.583   1.157   4.664 -0.3380  0.2233  0.1031
36257DOD     C252591  15.587   0.664   4.788  0.1947 -0.0040 -0.0567
36257DOD     C352592  15.601   0.250   4.606 -0.0515  0.0530 -0.0090
36258DOD     C152593   1.060   6.151   7.353  0.0897  0.1027 -0.2390
36258DOD     C252594   0.835   6.231   6.988  0.1787 -0.0984  0.3823
36258DOD     C352595   0.911   6.320   6.536  0.2025  0.1644  0.0041
36259DOD     C152596   7.483  16.038  17.882  0.2557 -0.1642  0.1922
36259DOD     C252597   7.115  16.282  17.740 -0.3269  0.2079 -0.1211
36259DOD     C352598   6.842  16.635  17.682 -0.3404 -0.4637  0.2688
36260DOD     C152599  20.982  28.890  20.083  0.1781 -0.0908 -0.0829
36260DOD     C252600  21.232  29.268  20.126  0.1798  0.0138 -0.0848
36260DOD     C352601  21.303  29.567  19.812 -0.0826  0.4392 -0.0039
36261DOD     C152602  14.237   2.192   0.840 -0.0068  0.2457  0.0028
36261DOD     C252603  14.592   2.107   0.471  0.2102  0.0205 -0.2563
36261DOD     C352604  15.037   2.100   0.373 -0.0567  0.2697 -0.1902
36262DOD     C152605   5.150  16.216  29.886  0.0167 -0.0765  0.1927
36262DOD     C252606   4.745  16.470  29.782 -0.3145 -0.0611 -0.3290
36262DOD     C352607   4.577  16.897  29.762  0.2165 -0.0874  0.1755
36263DOD     C152608   4.020  19.488   7.522  0.1791 -0.0059  0.1115
36263DOD     C252609   3.914  19.909   7.286 -0.0626  0.0867 -0.1303
36263DOD     C352610   3.944  19.864   6.829 -0.0553  0.0985  0.0549
36264DOD     C152611  13.469  18.382   1.118 -0.0969  0.1440  0.2922
36264DOD     C252612  13.665  17.924   1.186  0.0826  0.0268  0.0647
36264DOD     C352613  13.837  17.723   1.532  0.1261  0.2040 -0.1463
36265DOD     C152614   5.382   2.607  16.189  0.1693 -0.0000  0.0169
36265DOD     C252615   5.451   2.949  15.907  0.3862  0.2345 -0.0741
36265DOD     C352616   5.210   3.126  15.490 -0.0422 -0.0011  0.1298
36266DOD     C152617  23.952  14.379  26.942 -0.2041  0.0202  0.0221
36266DOD     C252618  24.003  14.751  26.688  0.2734  0.0071 -0.0007
36266DOD     C352619  23.965  15.105  26.421 -0.2923 -0.0177 -0.3053
36267DOD     C152620   0.151  28.385   8.671 -0.1360 -0.0155 -0.0792
36267DOD     C252621   0.116  27.962   8.705  0.0533  0.1541  0.0302
36267DOD     C352622   0.140  27.649   9.063 -0.1427 -0.0328 -0.0074
36268DOD     C152623  10.851  22.505  20.907  0.0517  0.2493 -0.1220
36268DOD     C252624  10.589  22.604  20.575  0.1487  0.1050  0.0404
36268DOD     C352625  10.316  22.338  20.282  0.1631  0.2801 -0.1565
36269DOD     C152626   3.955  16.756   6.457  0.0779 -0.3652 -0.1307
36269DOD     C252627   3.822  17.241   6.422  0.2863  0.1976 -0.1699
36269DOD     C352628   3.678  17.654   6.238 -0.0415  0.2528 -0.2604
36270DOD     C152629   0.444   1.133  23.739 -0.1931 -0.0791 -0.0240
36270DOD     C252630   0.589   1.561  23.639  0.1262  0.0795 -0.1051
36270DOD     C352631   0.583   1.853  23.258 -0.2640 -0.1907  0.2923
36271DOD     C152632  11.773   7.015  10.040 -0.0687 -0.1003 -0.1494
36271DOD     C252633  12.216   7.079  10.003 -0.0077  0.1773  0.0214
36271DOD     C352634  12.477   7.033  10.381 -0.2869 -0.0245 -0.1375
36272DOD     C152635  15.026  27.483  22.499  0.0200 -0.0469 -0.1398
36272DOD     C252636  15.455  27.417  22.722 -0.0796 -0.0224  0.2521
36272DOD     C352637  15.686  27.582  23.132  0.0850  0.3482  0.1494
36273DOD     C152638  26.189  12.363   0.756  0.3855  0.1080 -0.1188
36273DOD     C252639  25.859  12.525   0.493 -0.0652 -0.1338  0.3041
36273DOD     C352640  25.567  12.580   0.160 -0.1253  0.0055 -0.3117
36274DOD     C152641   9.313  21.150   9.083 -0.0571 -0.0961 -0.0179
36274DOD     C252642   9.743  21.278   8.871 -0.2863  0.1202 -0.0115
36274DOD     C352643   9.886  21.487   8.478 -0.0078  0.1217  0.2338
36275DOD     C152644  23.661  10.969  22.618  0.0418 -0.1513  0.3810
36275DOD     C252645  23.219  10.802  22.447 -0.2697 -0.1686  0.0446
36275DOD     C352646  23.028  10.852  22.019  0.0399 -0.2948 -0.0336
36276DOD     C152647  19.214   1.851   6.696  0.1531 -0.0040 -0.6246
36276DOD     C252648  19.681   1.913   6.647  0.0224  0.0114 -0.2096
36276DOD     C352649  20.051   2.004   6.313 -0.2770  0.3376 -0.1155
36277DOD     C152650  19.741  23.559  21.612  0.1273  0.1069 -0.0500
36277DOD     C252651  19.903  23.188  21.417 -0.0205 -0.1485  0.3103
36277DOD     C352652  19.788  22.748  21.551  0.1743 -0.1366 -0.1999
36278DOD     C152653  20.257  11.890  16.774 -0.2478 -0.2884  0.3930
36278DOD     C252654  20.097  12.203  17.056 -0.1264  0.2210  0.0238
36278DOD     C352655  19.798  12.519  17.326 -0.4154  0.2336 -0.3314
36279DOD     C152656  20.898  21.227   5.254 -0.0504 -0.0153  0.0345
36279DOD     C252657  21.206  21.052   5.636  0.0505 -0.1375  0.0526
36279DOD     C352658  21.660  20.985   5.694 -0.0566 -0.2368 -0.1543
36280DOD     C152659  26.988  10.400  14.601  0.1551  0.0035  0.1209
36280DOD     C252660  26.605  10.613  14.502  0.2393 -0.1139 -0.0812
36280DOD     C352661  26.294  10.536  14.179  0.4526  0.2874 -0.2180
36281DOD     C152662   6.522  28.675  18.747  0.3022 -0.0068  0.0396
36281DOD     C252663   6.700  28.223  18.684  0.0329 -0.1254  0.0807
36281DOD     C352664   6.943  27.890  18.911 -0.2038 -0.1475  0.0173
36282DOD     C152665  18.719   4.230   6.777 -0.1407 -0.1313  0.3160
36282DOD     C252666  18.794   4.006   6.367 -0.0074  0.0562 -0.2144
36282DOD     C352667  18.950   4.076   5.914 -0.0598  0.0390  0.0914
36283DOD     C152668   8.172  27.375   0.471  0.0476 -0.6459  0.3939
36283DOD     C252669   8.611  27.426   0.547  0.1982 -0.0846 -0.0248
36283DOD     C352670   9.108  27.523   0.565 -0.1278 -0.1607  0.0473
36284DOD     C152671   8.103  12.596  27.721  0.1576  0.2566 -0.0432
36284DOD     C252672   7.708  12.320  27.639 -0.0159  0.1640  0.3593
36284DOD     C352673   7.408  12.546  27.947  0.0632 -0.2685 -0.0328
36285DOD     C152674   6.089  29.352  17.521  0.2314  0.1101  0.1448
36285DOD     C252675   6.128  28.907  17.349 -0.0459 -0.1831 -0.0514
36285DOD     C352676   6.376  28.667  16.979 -0.1825  0.3670 -0.0925
36286DOD     C152677  17.503   3.624   7.311  0.1041  0.0557  0.2637
36286DOD     C252678  17.544   3.546   7.729 -0.1353  0.1315 -0.0850
36286DOD     C352679  17.671   3.302   8.105 -0.1000  0.2240  0.2795
36287DOD     C152680   7.101  11.604  20.004 -0.2928  0.1305  0.0438
36287DOD     C252681   6.894  11.384  20.366  0.0153  0.4283 -0.0907
36287DOD     C352682   6.614  11.249  20.763 -0.2934  0.3251  0.2287
36288DOD     C152683  19.816  26.029  12.902  0.1618 -0.2526  0.2951
36288DOD     C252684  19.651  26.207  13.312 -0.2584 -0.0406  0.4539
36288DOD     C352685  19.716  26.295  13.753 -0.1950 -0.3466  0.2404
36289DOD     C152686  24.739   2.002   7.415  0.0937  0.2052  0.0608
36289DOD     C252687  24.763   2.258   7.813 -0.0480  0.2135  0.1067
36289DOD     C352688  24.665   2.118   8.260 -0.2500  0.0374  0.0843
36290DOD     C152689  15.836   6.431  27.026  0.0264 -0.2346  0.3953
36290DOD     C252690  15.369   6.294  27.161 -0.3632  0.3165 -0.0530
36290DOD     C352691  15.188   6.251  27.610  0.0357  0.0066 -0.0816
36291DOD     C152692   8.224  25.450   8.348 -0.1248 -0.2759 -0.1297
36291DOD     C252693   8.262  25.898   8.249 -0.2354  0.0632  0.0765
36291DOD     C352694   8.196  26.340   8.132  0.1394 -0.0432 -0.0601
36292DOD     C152695  14.245  11.063   1.210 -0.3544  0.0293 -0.0871
36292DOD     C252696  14.245  11.092   1.663 -0.0534  0.3252  0.2058
36292DOD     C352697  14.309  11.116   2.159  0.1682  0.2525 -0.1052
36293DOD     C152698   9.758  22.660   6.745 -0.0795  0.4022  0.2977
36293DOD     C252699   9.672  22.603   7.185  0.0501  0.0941 -0.3259
36293DOD     C352700   9.767  22.564   7.645 -0.0609 -0.0305 -0.1878
36294DOD     C152701  14.608   0.517  28.615  0.0198 -0.0302 -0.1098
36294DOD     C252702  14.700   0.547  28.090 -0.1545  0.2619 -0.1812
36294DOD     C352703  14.760   0.862  27.782 -0.0577 -0.3793 -0.2969
36295DOD     C152704   8.466  20.679  12.828  0.1243  0.0249  0.0753
36295DOD     C252705   8.193  20.590  12.413  0.2747  0.2250  0.0534
36295DOD     C352706   8.110  20.864  12.007  0.0582  0.0036  0.0218
36296DOD     C152707  14.713  18.542  20.651  0.0878 -0.2064 -0.0698
36296DOD     C252708  15.136  18.461  20.859 -0.3619  0.1697 -0.0536
36296DOD     C352709  15.580  18.371  20.858 -0.0255  0.1221 -0.2839
36297DOD     C152710  19.993  11.518  26.327  0.1784  0.3819 -0.1133
36297DOD     C252711  20.307  11.711  26.030  0.1557  0.3114 -0.2460
36297DOD     C352712  20.501  11.759  25.615  0.0701  0.3180  0.0305
36298DOD     C152713   5.214  24.744  27.336  0.2307 -0.2236  0.0028
36298DOD     C252714   5.667  24.719  27.539 -0.1407 -0.1176 -0.1681
36298DOD     C352715   6.052  24.803  27.815  0.1045 -0.0289  0.0936
36299DOD     C152716  24.547   6.912  21.155  0.1942 -0.2558 -0.3286
36299DOD     C252717  24.696   6.586  21.441  0.0120 -0.1420  0.0980
36299DOD     C352718  24.548   6.302  21.776 -0.1138 -0.1103 -0.0455
36300DOD     C152719  27.701  25.421  27.573  0.0095  0.1974  0.1273
36300DOD     C252720  28.086  25.594  27.407 -0.1111  0.0020 -0.2585
36300DOD     C352721  28.111  26.022  27.235  0.0497  0.1338  0.3390
36301DOD     C152722   2.539  23.404  20.101 -0.0442 -0.0853 -0.4918
36301DOD     C252723   2.955  23.478  20.321  0.2444  0.0777  0.1859
36301DOD     C352724   3.362  23.648  20.523  0.0572 -0.0161 -0.2084
36302DOD     C152725   2.924  23.456  10.580  0.3076  0.0193  0.1084
36302DOD     C252726   2.484  23.316  10.524  0.0334  0.3523  0.1197
36302DOD     C352727   2.298  22.899  10.543 -0.3581  0.2840  0.2218
36303DOD     C152728  22.783  26.433  15.339 -0.3162  0.0754  0.1248
36303DOD     C252729  23.201  26.304  15.113  0.1879 -0.3396  0.1220
36303DOD     C352730  23.500  26.341  14.722  0.0832  0.1694  0.1138
36304DOD     C152731  26.471  11.114  17.275  0.0020  0.0227 -0.2269
36304DOD     C252732  26.800  10.859  17.060 -0.0598  0.1048 -0.0934
36304DOD     C352733  26.981  10.862  16.611  0.1320  0.0269 -0.0282
36305DOD     C152734   9.084  22.725  25.312  0.2029 -0.0354 -0.0234
36305DOD     C252735   9.060  22.500  24.920 -0.3787  0.0771  0.0356
36305DOD     C352736   9.134  22.232  24.602  0.1484  0.1082 -0.1592
36306DOD     C152737  24.495  19.060   7.526 -0.3294  0.1355  0.0656
36306DOD     C252738  24.673  19.113   7.914  0.1602 -0.0073 -0.3449
36306DOD     C352739  24.494  19.014   8.333  0.4842 -0.1018 -0.2052
36307DOD     C152740  11.525   7.154   7.519  0.0011 -0.0985 -0.2046
36307DOD     C252741  11.547   6.693   7.719  0.3801 -0.4249  0.0212
36307DOD     C352742  11.819   6.299   7.591 -0.1497 -0.0193  0.0879
36308DOD     C152743   3.074   4.300  15.513  0.1063 -0.5299  0.2925
36308DOD     C252744   3.252   4.734  15.563 -0.0952  0.1789  0.4229
36308DOD     C352745   3.202   5.026  15.949  0.0380  0.2277  0.0336
36309DOD     C152746  26.559  26.115   5.837  0.0881  0.3451  0.1639
36309DOD     C252747  26.159  26.321   5.583  0.0090 -0.1797 -0.3972
36309DOD     C352748  26.010  26.623   5.231  0.0968  0.0577  0.1604
36310DOD     C152749   4.740  18.002  12.235 -0.0050 -0.2911  0.2442
36310DOD     C252750   4.753  17.763  12.634 -0.2054  0.1286 -0.0173
36310DOD     C352751   4.470  17.750  13.011 -0.0244 -0.0259 -0.0365
36311DOD     C152752   6.901  15.982   1.143  0.3941 -0.1262 -0.1327
36311DOD     C252753   6.588  16.059   1.501  0.0930  0.0980 -0.0130
36311DOD     C352754   6.598  16.119   1.922 -0.0193  0.1634  0.1100
36312DOD     C152755   2.916  19.990  18.301  0.0333  0.1397 -0.1484
36312DOD     C252756   3.083  19.543  18.380 -0.3373  0.0764  0.0478
36312DOD     C352757   3.093  19.397  18.789 -0.0632  0.1180 -0.1483
36313DOD     C152758  14.339  28.089  29.039 -0.0812 -0.1244  0.2220
36313DOD     C252759  14.129  28.374  29.363  0.0886  0.2209 -0.0010
36313DOD     C352760  13.744  28.574  29.498  0.0651 -0.0597  0.2276
36314DOD     C152761   9.315   5.003   4.688 -0.0590  0.0228 -0.0782
36314DOD     C252762   9.130   4.995   4.273 -0.1926  0.1140  0.1343
36314DOD     C352763   9.119   5.100   3.805  0.0437 -0.0550  0.0259
36315DOD     C152764   2.618  29.750  13.534  0.2487 -0.1327 -0.0016
36315DOD     C252765   2.745  30.104  13.288  0.3304  0.0308  0.0145
36315DOD     C352766   2.929   0.111  12.982  0.1043 -0.0118  0.2043
36316DOD     C152767   0.857  15.961   4.305 -0.0828 -0.2657  0.0697
36316DOD     C252768   0.941  15.475   4.320  0.1079 -0.3580 -0.3253
36316DOD     C352769   1.015  15.153   4.037 -0.1366 -0.3642  0.0785
36317DOD     C152770  29.221   0.453   7.712  0.1072 -0.2317  0.2664
36317DOD     C252771  29.162   0.823   8.034  0.1488  0.0801 -0.1472
36317DOD     C352772  28.839   0.955   8.331  0.0864  0.3326  0.2931
36318DOD     C152773  19.472   5.433   9.101  0.1850  0.0487  0.0276
36318DOD     C252774  19.663   5.188   8.775 -0.1705  0.2390  0.0272
36318DOD     C352775  20.094   5.182   8.620 -0.1545  0.1651 -0.1529
36319DOD     C152776  24.843  10.134  20.541 -0.2039  0.0607  0.1051
36319DOD     C252777  24.686  10.582  20.460  0.1162  0.0819 -0.1547
36319DOD     C352778  24.360  10.864  20.511  0.1240 -0.1169  0.0423
36320DOD     C152779  14.622  11.573   4.590 -0.1765  0.4396  0.0782
36320DOD     C252780  14.959  11.281   4.853 -0.3964 -0.2379  0.1871
36320DOD     C352781  15.150  11.079   5.206  0.3734 -0.0030  0.1947
36321DOD     C152782  14.536  12.948  27.806  0.2224 -0.2334 -0.2404
36321DOD     C252783  14.315  12.585  27.740  0.0787  0.1472  0.0243
36321DOD     C352784  14.396  12.149  27.867  0.1894 -0.0082  0.2770
36322DOD     C152785  19.070  20.415   1.214  0.0318  0.1462  0.1479
36322DOD     C252786  18.939  20.775   1.506 -0.0816  0.1506 -0.2299
36322DOD     C352787  18.857  21.060   1.880  0.1268  0.0330  0.0585
36323DOD     C152788   2.625  14.790  13.988 -0.0117 -0.1043 -0.1651
36323DOD     C252789   2.509  14.865  14.450  0.0228 -0.2520  0.0626
36323DOD     C352790   2.536  14.627  14.852  0.2034 -0.2772  0.0265
36324DOD     C152791  14.920  17.319   7.605  0.0910 -0.1234  0.2189
36324DOD     C252792  14.715  17.722   7.737 -0.0318 -0.0042 -0.0850
36324DOD     C352793  14.731  18.210   7.737 -0.0517  0.0712  0.2481
36325DOD     C152794   1.015   5.410  14.260 -0.2742 -0.0394 -0.3180
36325DOD     C252795   1.079   5.863  14.224  0.1853 -0.1247  0.1161
36325DOD     C352796   1.158   6.208  13.990 -0.0126  0.0134 -0.3438
36326DOD     C152797  24.157  10.990  16.433 -0.0158 -0.0565  0.0625
36326DOD     C252798  23.784  11.011  16.248 -0.0983  0.1149  0.0010
36326DOD     C352799  23.453  11.271  16.057 -0.1031  0.1328 -0.0440
36327DOD     C152800  25.436  12.159  11.948 -0.1874  0.0828 -0.0847
36327DOD     C252801  25.228  11.767  12.026  0.3682 -0.2797  0.0946
36327DOD     C352802  25.182  11.540  12.455 -0.0184  0.0429 -0.1253
36328DOD     C152803  11.132   2.322   4.764 -0.1787 -0.0901 -0.0849
36328DOD     C252804  10.822   2.591   4.946  0.2005 -0.3500 -0.0151
36328DOD     C352805  10.614   2.664   5.344  0.0351 -0.1092 -0.1911
36329DOD     C152806  26.655  29.563  25.499  0.1210  0.1931 -0.0201
36329DOD     C252807  26.926  29.263  25.755 -0.1756  0.0540  0.0930
36329DOD     C352808  26.901  29.140  26.233  0.0024  0.1518 -0.0405
36330DOD     C152809  24.773  25.328  19.663 -0.0357  0.2068 -0.0141
36330DOD     C252810  24.461  25.113  19.980 -0.1806  0.2250  0.3298
36330DOD     C352811  24.192  25.108  20.367 -0.1386 -0.1890  0.0199
36331DOD     C152812  16.985  25.857  27.542 -0.0627  0.2181  0.0215
36331DOD     C252813  16.934  26.308  27.674 -0.0158 -0.2888  0.2080
36331DOD     C352814  16.639  26.664  27.570 -0.1923  0.1853  0.0191
36332DOD     C152815  12.894   7.935   9.911 -0.0139  0.1005  0.0134
36332DOD     C252816  13.041   8.369   9.931 -0.1703  0.1305  0.0743
36332DOD     C352817  13.476   8.529   9.936  0.1208 -0.3807  0.2158
36333DOD     C152818   5.356  23.454   6.990 -0.0065 -0.1676  0.7616
36333DOD     C252819   5.535  23.247   7.359  0.0232  0.1853 -0.2265
36333DOD     C352820   5.477  23.185   7.782  0.0026  0.2244 -0.1014
36334DOD     C152821   7.275  20.974   1.829  0.1624 -0.1030  0.2186
36334DOD     C252822   7.230  20.593   1.626 -0.3382  0.3206  0.1375
36334DOD     C352823   7.257  20.103   1.554 -0.1322 -0.1785 -0.1505
36335DOD     C152824   8.082   8.577   1.834 -0.0171  0.2106 -0.0568
36335DOD     C252825   8.207   8.941   1.628  0.1976 -0.1648 -0.1992
36335DOD     C352826   8.317   9.148   1.205  0.1565  0.1944  0.0504
36336DOD     C152827  26.354   2.150  14.620 -0.0419 -0.0713 -0.0523
36336DOD     C252828  26.240   2.492  14.354  0.1650  0.0106  0.0320
36336DOD     C352829  26.192   2.688  13.943 -0.1321  0.2080 -0.0530
36337DOD     C152830  10.132   5.180  28.894  0.0933 -0.1943 -0.3913
36337DOD     C252831   9.769   5.494  29.111 -0.1517 -0.0037 -0.0440
36337DOD     C352832   9.563   5.750  29.457  0.2426  0.0745 -0.0350
36338DOD     C152833  29.084  26.941  25.702  0.1974  0.0029 -0.3844
36338DOD     C252834  29.365  27.221  25.856  0.0303 -0.1858  0.0182
36338DOD     C352835  29.308  27.602  26.114 -0.0783 -0.0043 -0.3162
36339DOD     C152836  24.693  17.976  19.706  0.3161  0.1589 -0.1601
36339DOD     C252837  24.353  18.143  19.379 -0.2222  0.2209  0.1208
36339DOD     C352838  24.173  18.135  18.909 -0.2000  0.1127 -0.0847
36340DOD     C152839  22.843  29.678  26.597 -0.0505  0.4574 -0.3573
36340DOD     C252840  22.876  29.883  27.013 -0.0865 -0.3515  0.3580
36340DOD     C352841  22.903  29.945  27.499  0.1216  0.0366 -0.2799
36341DOD     C152842  24.702  21.762   7.666 -0.0809 -0.0579 -0.3792
36341DOD     C252843  24.917  22.180   7.724  0.0987  0.1749  0.0805
36341DOD     C352844  25.008  22.597   7.931 -0.1751  0.0770 -0.1732
36342DOD     C152845   6.120  10.954  24.711 -0.3857  0.1529 -0.0428
36342DOD     C252846   6.013  11.430  24.610 -0.0896  0.0530  0.2061
36342DOD     C352847   5.724  11.772  24.664  0.0664 -0.0260 -0.0935
36343DOD     C152848   1.811  17.999  21.129  0.2552  0.0540  0.1626
36343DOD     C252849   2.035  17.599  21.230 -0.0877 -0.0774 -0.0386
36343DOD     C352850   2.503  17.512  21.213  0.1812 -0.0859 -0.0106
36344DOD     C152851  11.726   5.081  17.405  0.1160 -0.0472  0.1723
36344DOD     C252852  11.534   4.844  17.775 -0.0592 -0.0281 -0.0572
36344DOD     C352853  11.652   4.527  18.091  0.1176  0.1448 -0.2298
36345DOD     C152854  15.507   5.650  26.422  0.0427  0.3164  0.2716
36345DOD     C252855  15.141   5.610  26.061 -0.1404  0.0527  0.1255
36345DOD     C352856  15.103   5.492  25.620  0.1612  0.1303 -0.0585
36346DOD     C152857  11.431  25.042   4.481 -0.0205 -0.0781  0.0320
36346DOD     C252858  11.377  24.646   4.814 -0.0726  0.3218  0.0438
36346DOD     C352859  11.595  24.357   5.109  0.0171 -0.0868 -0.1890
36347DOD     C152860  23.770  30.172  22.181 -0.0343 -0.3526  0.3325
36347DOD     C252861  23.406  30.125  21.850  0.1754  0.0877  0.1284
36347DOD     C352862  23.271  30.241  21.388  0.2472 -0.1993  0.0508
36348DOD     C152863   3.395  25.588  23.457  0.2168 -0.0946  0.0231
36348DOD     C252864   3.662  25.342  23.714 -0.1152 -0.0644 -0.1332
36348DOD     C352865   3.711  24.851  23.828 -0.2976  0.2082  0.1287
36349DOD     C152866   0.945  29.211  15.156 -0.0727 -0.0451  0.3811
36349DOD     C252867   0.623  29.312  14.815  0.2243 -0.0465 -0.1220
36349DOD     C352868   0.206  29.560  14.764  0.0090  0.1220 -0.0315
36350DOD     C152869  24.934  26.982   6.461  0.1481  0.0336 -0.0947
36350DOD     C252870  24.936  27.395   6.689  0.0946 -0.0960  0.0329
36350DOD     C352871  24.738  27.800   6.465  0.0388 -0.1424 -0.0965
36351DOD     C152872  23.470  16.742  13.358  0.0586 -0.2532 -0.4519
36351DOD     C252873  23.028  16.571  13.380  0.0833 -0.0818  0.1565
36351DOD     C352874  22.570  16.531  13.391  0.0738  0.3446  0.0825
36352DOD     C152875  16.950  19.199   9.601  0.2597 -0.1050 -0.1380
36352DOD     C252876  17.343  19.391   9.428  0.3521  0.2365 -0.0136
36352DOD     C352877  17.823  19.438   9.340 -0.2705  0.2683 -0.1729
36353DOD     C152878  25.097   5.766  29.554 -0.1616 -0.0029  0.1850
36353DOD     C252879  25.126   6.022  29.170 -0.0383  0.0777 -0.0001
36353DOD     C352880  25.233   6.474  28.911  0.1563  0.2797 -0.2013
36354DOD     C152881  25.003  11.014  14.719  0.2427  0.0342 -0.0915
36354DOD     C252882  25.254  10.753  15.006 -0.2289 -0.1451 -0.2881
36354DOD     C352883  25.283  10.321  15.091 -0.1453 -0.0865 -0.3088
36355DOD     C152884  11.895  14.540   9.813 -0.0821  0.1389 -0.1873
36355DOD     C252885  12.008  14.308   9.398 -0.0078 -0.0537  0.3717
36355DOD     C352886  12.214  14.074   9.098  0.0720 -0.2195  0.1317
36356DOD     C152887  12.698   1.140  20.940  0.0554 -0.0767  0.2260
36356DOD     C252888  12.915   0.783  20.881  0.0771  0.2080 -0.1331
36356DOD     C352889  13.184   0.576  21.207 -0.2578 -0.3177  0.1915
36357DOD     C152890  30.236  29.512  22.323 -0.2332  0.1099 -0.0651
36357DOD     C252891  29.962  29.363  21.969  0.2859 -0.1836 -0.1196
36357DOD     C352892  29.570  29.663  21.935  0.3853 -0.1197  0.1725
36358DOD     C152893   6.623  28.420  10.501  0.0843 -0.2153  0.2143
36358DOD     C252894   6.182  28.541  10.654 -0.0441 -0.2345 -0.1074
36358DOD     C352895   5.915  28.883  10.710  0.0509  0.1362 -0.1640
36359DOD     C152896  18.772  25.460   9.463  0.0473  0.5332 -0.2185
36359DOD     C252897  18.689  24.997   9.283  0.1200 -0.3652 -0.1742
36359DOD     C352898  18.760  24.687   8.943 -0.2132  0.0535  0.0875
36360DOD     C152899   6.846   4.400  17.072 -0.2863  0.0551 -0.5119
36360DOD     C252900   6.433   4.683  17.204 -0.1625  0.1552  0.0950
36360DOD     C352901   6.461   5.067  17.422  0.1083 -0.1351  0.2269
36361DOD     C152902  12.681  22.263  21.220  0.1943 -0.0356  0.1063
36361DOD     C252903  13.083  22.476  21.377 -0.0020  0.2828  0.3004
36361DOD     C352904  13.373  22.837  21.369  0.2814  0.0789 -0.0199
36362DOD     C152905  15.163   0.444  19.702  0.2076  0.1464  0.2362
36362DOD     C252906  15.397   0.124  19.962  0.0151 -0.2795  0.3127
36362DOD     C352907  15.176   0.063  20.364 -0.2021  0.0927 -0.1861
36363DOD     C152908  29.376   0.956  25.397 -0.0561 -0.1290 -0.0198
36363DOD     C252909  29.164   0.914  25.765 -0.1552 -0.1113 -0.2778
36363DOD     C352910  28.878   0.875  26.127 -0.0015  0.1480  0.0516
36364DOD     C152911  29.931  20.392  14.872 -0.0061  0.4205  0.0862
36364DOD     C252912  30.138  20.051  14.670 -0.0343  0.0003 -0.2883
36364DOD     C352913   0.043  19.716  14.930 -0.1682  0.1510  0.3069
36365DOD     C152914   1.797  22.259  15.240 -0.2165  0.2281  0.0073
36365DOD     C252915   1.644  22.385  14.805  0.4170  0.0519  0.3754
36365DOD     C352916   1.333  22.756  14.770  0.1305  0.1521 -0.2738
36366DOD     C152917  29.981  27.913   0.519 -0.2492  0.1158 -0.0257
36366DOD     C252918  29.601  27.748   0.478 -0.1152  0.3498 -0.2737
36366DOD     C352919  29.233  27.711   0.735  0.1882  0.0494 -0.1187
36367DOD     C152920  19.672   5.267  19.841 -0.1546  0.2211 -0.3166
36367DOD     C252921  19.976   5.121  20.101 -0.0793 -0.2260  0.0006
36367DOD     C352922  20.295   4.852  19.872  0.0983  0.2052  0.1256
36368DOD     C152923  11.894  27.706  13.256 -0.1320 -0.0079  0.0910
36368DOD     C252924  11.753  27.340  13.010 -0.4561  0.1300 -0.0505
36368DOD     C352925  11.385  27.214  12.702  0.0579  0.0538 -0.1631
36369DOD     C152926  18.633   8.958   1.290  0.2007  0.2134 -0.1406
36369DOD     C252927  18.923   8.882   0.983  0.1903  0.1392 -0.2223
36369DOD     C352928  19.069   8.601   0.595  0.2089  0.1878 -0.3025
36370DOD     C152929   9.653  14.176   8.028  0.2215 -0.1000  0.0770
36370DOD     C252930   9.599  14.452   8.398  0.1426  0.0510  0.2100
36370DOD     C352931   9.777  14.867   8.524  0.3519 -0.0145 -0.0121
36371DOD     C152932   6.457   0.674  21.182 -0.2968 -0.2429  0.0094
36371DOD     C252933   6.142   1.012  21.246  0.1086  0.2153  0.0396
36371DOD     C352934   5.714   1.175  21.387 -0.2177  0.0386  0.0926
36372DOD     C152935  24.193  10.888   5.240 -0.1405  0.0848 -0.0492
36372DOD     C252936  24.436  10.815   4.871  0.2856 -0.0818  0.0021
36372DOD     C352937  24.583  10.595   4.503 -0.0987 -0.1568  0.2505
36373DOD     C152938  19.828   4.173  28.574  0.0294 -0.4066 -0.1730
36373DOD     C252939  19.631   4.541  28.403  0.0830  0.2333  0.0901
36373DOD     C352940  19.591   4.911  28.123 -0.0595 -0.1093 -0.3014
36374DOD     C152941   4.011  23.297  27.373  0.0546  0.0328 -0.0069
36374DOD     C252942   3.584  23.254  27.108  0.0243  0.1692 -0.0172
36374DOD     C352943   3.187  23.195  26.827 -0.3309  0.0277 -0.1059
36375DOD     C152944  18.096  11.224  27.396 -0.3371  0.2367 -0.0636
36375DOD     C252945  18.011  11.707  27.508  0.1429 -0.3340 -0.0819
36375DOD     C352946  17.841  12.145  27.674  0.2480  0.0017  0.0771
36376DOD     C152947  25.227  20.687   2.343  0.2133  0.1003  0.2925
36376DOD     C252948  25.642  20.953   2.345  0.0872  0.0433  0.2969
36376DOD     C352949  25.785  21.345   2.122 -0.1327  0.1513  0.1955
36377DOD     C152950  22.710  17.216  29.924 -0.0563  0.2444  0.0822
36377DOD     C252951  22.313  17.263  30.144 -0.1110 -0.2155 -0.1394
36377DOD     C352952  22.020  17.451   0.147 -0.0332  0.0902  0.1048
36378DOD     C152953  10.546  23.235   8.495 -0.0665 -0.2156 -0.0677
36378DOD     C252954  10.790  23.458   8.804 -0.1254 -0.0255 -0.1142
36378DOD     C352955  11.215  23.514   9.034 -0.2090 -0.1324 -0.3770
36379DOD     C152956  17.286  21.036  18.559  0.0702 -0.1668 -0.1124
36379DOD     C252957  16.962  21.339  18.548 -0.0530 -0.3715  0.0524
36379DOD     C352958  16.558  21.612  18.560  0.0540  0.1343 -0.0361
36380DOD     C152959   2.094   3.400   1.104  0.1074  0.1060  0.1067
36380DOD     C252960   2.095   3.814   1.362  0.0222 -0.2440 -0.1372
36380DOD     C352961   2.134   3.979   1.762  0.2243  0.0903 -0.0072
36381DOD     C152962   2.907  20.173  23.433  0.1433 -0.1217  0.2441
36381DOD     C252963   2.472  20.271  23.409 -0.1274  0.2240 -0.2067
36381DOD     C352964   2.058  20.258  23.379  0.2420  0.1545  0.0162
36382DOD     C152965   4.337   4.988  23.827 -0.3254 -0.0381 -0.2099
36382DOD     C252966   4.343   5.518  23.811  0.0976  0.2902 -0.0119
36382DOD     C352967   4.358   5.913  23.838 -0.0468  0.1517  0.0628
36383DOD     C152968  20.871  23.071  25.961 -0.1629 -0.1923  0.1945
36383DOD     C252969  21.206  22.743  25.979  0.0148 -0.2669  0.1541
36383DOD     C352970  21.700  22.727  25.983 -0.0534 -0.0650  0.3459
36384DOD     C152971  20.854  11.865  21.764  0.3083  0.2046 -0.2609
36384DOD     C252972  20.578  12.168  21.637  0.1422 -0.2667  0.1104
36384DOD     C352973  20.547  12.567  21.496  0.1388  0.2706 -0.1978
36385DOD     C152974  18.467  13.087  19.495  0.0208  0.0345  0.1137
36385DOD     C252975  18.709  12.701  19.507 -0.0927 -0.4142  0.1005
36385DOD     C352976  18.982  12.379  19.245 -0.0559  0.0461 -0.1320
36386DOD     C152977  19.507   0.542  25.517  0.2298 -0.0104 -0.0282
36386DOD     C252978  19.849   0.381  25.241  0.0087 -0.1711  0.0356
36386DOD     C352979  20.136   0.688  25.018 -0.0856 -0.2342 -0.1661
36387DOD     C152980  23.573  13.980  13.642 -0.0189 -0.1430 -0.0635
36387DOD     C252981  23.877  13.558  13.607 -0.0112 -0.0577  0.1155
36387DOD     C352982  23.946  13.187  13.964 -0.1462 -0.2574  0.1298
36388DOD     C152983  16.503  27.871  23.805  0.0928  0.1771  0.0950
36388DOD     C252984  16.164  27.592  23.865  0.1522  0.1500  0.1971
36388DOD     C352985  15.931  27.208  23.984 -0.1962 -0.4605 -0.2435
36389DOD     C152986   1.227  20.281  25.575  0.0349  0.1854  0.1134
36389DOD     C252987   0.951  19.937  25.584 -0.2358 -0.0643  0.0206
36389DOD     C352988   0.607  19.882  25.256 -0.1424  0.2017 -0.0279
36390DOD     C152989  23.981  10.744  27.780 -0.0318 -0.1314 -0.3054
36390DOD     C252990  23.559  10.591  27.946  0.1234  0.1087 -0.1483
36390DOD     C352991  23.172  10.462  27.763 -0.0867  0.0730 -0.1969
36391DOD     C152992  12.119  30.096  10.175 -0.2354  0.1068  0.2020
36391DOD     C252993  12.034  30.232  10.646 -0.0435 -0.2469 -0.0850
36391DOD     C352994  12.125   0.120  11.048 -0.1467  0.1523  0.0131
36392DOD     C152995  24.476   6.354  11.619 -0.2667  0.4298  0.0277
36392DOD     C252996  24.608   5.935  11.483  0.0221  0.1436 -0.1494
36392DOD     C352997  24.862   5.549  11.338 -0.0448  0.2661  0.0065
36393DOD     C152998  25.905   9.859   9.807 -0.1376  0.2087  0.1979
36393DOD     C252999  25.892   9.963   9.358 -0.2137  0.0953  0.1754
36393DOD     C353000  25.669  10.080   8.980 -0.1968  0.3641 -0.0788
36394DOD     C153001  12.198  19.332  25.203  0.0237 -0.0828 -0.1087
36394DOD     C253002  12.302  19.815  25.160  0.2941  0.2823  0.2177
36394DOD     C353003  12.442  20.255  25.190 -0.0062 -0.0187 -0.4227
36395DOD     C153004  25.080  19.698  20.596 -0.1402 -0.0005 -0.0830
36395DOD     C253005  24.707  19.990  20.543  0.1262 -0.1983 -0.1649
36395DOD     C353006  24.246  20.052  20.543 -0.0617 -0.0753  0.0559
36396DOD     C153007   5.612  15.960   8.035  0.2671  0.2638  0.1305
36396DOD     C253008   5.108  16.117   8.050 -0.3553 -0.0307  0.1628
36396DOD     C353009   4.814  16.111   8.379 -0.0371 -0.0639 -0.1306
36397DOD     C153010  14.451  22.784  24.541  0.1217 -0.0490 -0.0276
36397DOD     C253011  14.831  22.517  24.627  0.2881 -0.1617 -0.2106
36397DOD     C353012  14.867  22.206  25.019 -0.0695 -0.1019  0.1520
36398DOD     C153013  27.499  18.940   9.282 -0.1837 -0.2336 -0.1446
36398DOD     C253014  27.086  18.677   9.366  0.0124  0.3199  0.0790
36398DOD     C353015  26.725  18.436   9.505 -0.0766  0.1653  0.2088
36399DOD     C153016  24.060  21.176   6.339 -0.0418 -0.0134 -0.0391
36399DOD     C253017  23.730  20.973   6.109  0.1146  0.2003 -0.0938
36399DOD     C353018  23.781  20.819   5.684  0.2260 -0.0357  0.0415
36400DOD     C153019  20.682  24.243  20.580  0.1851  0.2483 -0.0232
36400DOD     C253020  20.740  24.356  20.126 -0.1868  0.1806  0.2852
36400DOD     C353021  20.992  24.270  19.748 -0.0752  0.3049  0.2037
36401DOD     C153022  11.268   6.126  17.647  0.0196 -0.0008 -0.2793
36401DOD     C253023  11.426   6.142  18.150  0.2065 -0.1081 -0.3847
36401DOD     C353024  11.288   6.125  18.566  0.1230 -0.3380 -0.0130
36402DOD     C153025  21.653  17.633  22.100 -0.0101 -0.2959  0.2735
36402DOD     C253026  22.139  17.630  21.934  0.2988  0.0298  0.1621
36402DOD     C353027  22.422  17.956  21.728  0.3838  0.0834  0.0733
36403DOD     C153028  10.640  28.839  12.686 -0.0170 -0.0197 -0.0917
36403DOD     C253029  10.477  28.534  12.341 -0.2239 -0.1450 -0.0666
36403DOD     C353030  10.475  28.214  11.985  0.1314  0.0852  0.2052
36404DOD     C153031   2.444  28.954  23.298 -0.0576 -0.2974  0.0632
36404DOD     C253032   2.300  28.740  22.894  0.0794  0.0729 -0.1457
36404DOD     C353033   2.501  28.531  22.550 -0.0396 -0.2242 -0.0632
36405DOD     C153034   3.501  27.691   8.023  0.1155 -0.2402 -0.0589
36405DOD     C253035   3.896  27.742   7.752 -0.0372  0.2490  0.1150
36405DOD     C353036   4.362  27.724   7.616  0.3400 -0.1289 -0.2108
36406DOD     C153037  22.377   9.530  20.606  0.4097 -0.0302  0.3614
36406DOD     C253038  22.739   9.221  20.688 -0.3371  0.0898  0.4098
36406DOD     C353039  23.046   8.903  20.684 -0.0311 -0.2955  0.3897
36407DOD     C153040   0.873  29.778   0.676  0.1426 -0.1338 -0.0149
36407DOD     C253041   0.461  30.069   0.729  0.0865  0.0006 -0.1583
36407DOD     C353042   0.139   0.124   0.785 -0.0317  0.2030  0.0818
36408DOD     C153043  13.568  19.982  17.943 -0.1642  0.0174 -0.1385
36408DOD     C253044  13.909  19.794  17.803  0.0057 -0.1682 -0.1126
36408DOD     C353045  14.282  19.525  17.603 -0.0037 -0.2343 -0.1477
36409DOD     C153046  13.380  11.554  25.547  0.0637 -0.1071 -0.1161
36409DOD     C253047  13.218  11.191  25.629  0.0514  0.3516 -0.1641
36409DOD     C353048  13.116  10.736  25.759 -0.2131 -0.0867  0.2817
36410DOD     C153049   9.839   5.982   1.971  0.0348  0.1343 -0.2654
36410DOD     C253050   9.765   5.519   1.998 -0.0204 -0.1353  0.0923
36410DOD     C353051   9.420   5.220   1.929 -0.0199 -0.4213  0.3640
36411DOD     C153052   2.703  15.668  21.763 -0.1509 -0.0831  0.1234
36411DOD     C253053   3.159  15.735  21.857  0.2981  0.0170  0.2025
36411DOD     C353054   3.597  15.827  21.951 -0.1581 -0.2764  0.3240
36412DOD     C153055  27.483  28.818  15.364  0.0765 -0.1878  0.2133
36412DOD     C253056  27.725  28.852  14.945 -0.1996 -0.0065  0.1349
36412DOD     C353057  28.111  28.657  14.659 -0.1179 -0.0659 -0.1480
36413DOD     C153058  21.796  14.538  13.344 -0.2764 -0.1774 -0.0949
36413DOD     C253059  22.238  14.540  13.462 -0.0010  0.0315  0.0175
36413DOD     C353060  22.528  14.380  13.810 -0.1657 -0.1660 -0.1304
36414DOD     C153061   0.841  18.755  29.782  0.2689  0.1560 -0.0293
36414DOD     C253062   0.536  19.042  29.894 -0.0011  0.2201  0.1675
36414DOD     C353063   0.305  19.362  30.159  0.1681 -0.1663  0.0280
36415DOD     C153064  20.790   4.566  24.782 -0.1557 -0.4296  0.0304
36415DOD     C253065  20.549   4.298  24.442  0.2240 -0.3308 -0.0709
36415DOD     C353066  20.457   4.242  24.011 -0.0387 -0.0237  0.0645
36416DOD     C153067   2.558   5.740  26.827 -0.1404  0.0079  0.1987
36416DOD     C253068   2.222   6.106  26.726  0.0369 -0.0723  0.0250
36416DOD     C353069   2.024   6.485  26.629 -0.0589  0.1301  0.1155
36417DOD     C153070  11.711  28.826  10.871  0.0634  0.1527  0.1675
36417DOD     C253071  11.883  28.420  10.848  0.4111  0.0880  0.0612
36417DOD     C353072  12.136  28.080  10.924 -0.3033  0.1704 -0.0720
36418DOD     C153073  19.677  29.128  15.545 -0.2895  0.2218  0.2131
36418DOD     C253074  20.119  28.917  15.563 -0.1525 -0.2244  0.1450
36418DOD     C353075  20.420  28.648  15.794 -0.1346  0.1550 -0.0448
36419DOD     C153076  24.644  29.334  14.431  0.1129  0.1305  0.1706
36419DOD     C253077  24.485  29.328  14.862 -0.0277  0.0887 -0.0096
36419DOD     C353078  24.535  29.543  15.253 -0.3164 -0.0272  0.0428
36420DOD     C153079   5.310  12.603  20.797  0.0580 -0.0416 -0.2008
36420DOD     C253080   5.095  12.282  20.562 -0.2763 -0.2338 -0.0770
36420DOD     C353081   4.768  11.972  20.454 -0.0190 -0.1789 -0.2548
36421DOD     C153082  13.317  23.917   5.346  0.0911 -0.1507 -0.3054
36421DOD     C253083  13.359  24.356   5.121 -0.2544 -0.3094  0.1310
36421DOD     C353084  13.051  24.706   4.964  0.0731  0.1903  0.2493
36422DOD     C153085  26.229  18.294  21.947  0.0279  0.3057  0.0252
36422DOD     C253086  26.588  18.186  22.228 -0.0802  0.3378 -0.0377
36422DOD     C353087  26.700  17.931  22.590 -0.2658 -0.1129  0.1035
36423DOD     C153088  19.381  24.236   8.291 -0.1595 -0.1437 -0.2743
36423DOD     C253089  18.931  24.240   8.215 -0.1657 -0.0549  0.1237
36423DOD     C353090  18.502  24.389   8.203 -0.0971 -0.0024 -0.0125
36424DOD     C153091   0.049   3.888   5.654  0.1104 -0.3337  0.1838
36424DOD     C253092  30.263   3.988   5.202 -0.0644 -0.1671  0.2042
36424DOD     C353093   0.079   4.383   4.928 -0.3462  0.1166 -0.0933
36425DOD     C153094   0.208   8.663   6.017 -0.2415 -0.0962  0.1228
36425DOD     C253095   0.333   8.385   5.645 -0.2008  0.2585  0.0251
36425DOD     C353096   0.538   8.195   5.280 -0.2383 -0.0281 -0.1125
36426DOD     C153097  24.415  11.666  28.622 -0.2487  0.2453 -0.0325
36426DOD     C253098  24.727  11.350  28.815  0.0794  0.1111  0.1235
36426DOD     C353099  25.167  11.579  28.925  0.3002  0.2396  0.0101
36427DOD     C153100  16.925   3.242  28.060  0.0783 -0.2749  0.2047
36427DOD     C253101  17.046   3.053  28.411  0.0317  0.2411  0.1462
36427DOD     C353102  16.887   2.757  28.744  0.0730 -0.1195 -0.2185
36428DOD     C153103   8.274  17.516  26.916 -0.4176 -0.1133 -0.1483
36428DOD     C253104   8.522  17.823  26.728  0.0440  0.1952  0.2182
36428DOD     C353105   8.953  17.869  26.672  0.2021 -0.2139 -0.1539
36429DOD     C153106  19.542   3.292  20.016  0.1549 -0.0051 -0.1482
36429DOD     C253107  19.201   3.596  19.851  0.0625 -0.2627 -0.2824
36429DOD     C353108  19.150   4.089  19.986 -0.2156 -0.0387  0.3493
36430DOD     C153109   7.135   4.670  15.338  0.2305 -0.1803  0.0696
36430DOD     C253110   7.423   4.341  15.407 -0.0862  0.1642  0.0259
36430DOD     C353111   7.372   3.904  15.323  0.2247  0.1336 -0.0314
36431DOD     C153112   9.448  21.718   7.691  0.0272  0.1754  0.0021
36431DOD     C253113   9.056  21.879   7.552 -0.0315  0.0202  0.0204
36431DOD     C353114   8.678  21.955   7.835  0.0905  0.0252 -0.1016
36432DOD     C153115  22.188  16.007  26.617 -0.0376 -0.1322  0.0908
36432DOD     C253116  22.040  16.381  26.391  0.0238 -0.1261  0.1398
36432DOD     C353117  22.033  16.818  26.467 -0.0992  0.1373  0.0279
36433DOD     C153118  29.649  12.342  20.006 -0.0691  0.2464 -0.2158
36433DOD     C253119  30.046  12.517  19.882  0.0334  0.1374  0.0952
36433DOD     C353120   0.063  12.631  19.623  0.1336 -0.1592 -0.1214
36434DOD     C153121   9.320   1.636  21.769 -0.0328 -0.0673  0.4406
36434DOD     C253122   9.510   1.933  22.053  0.0837 -0.1371 -0.1398
36434DOD     C353123   9.673   2.282  22.232 -0.1350 -0.5790 -0.1833
36435DOD     C153124   7.379  14.477   8.307 -0.0319  0.1380  0.0208
36435DOD     C253125   7.834  14.338   8.341  0.1323  0.0387  0.2886
36435DOD     C353126   8.273  14.474   8.354 -0.0992  0.0170  0.0904
36436DOD     C153127  14.641  12.351   3.082 -0.4256  0.0279 -0.3199
36436DOD     C253128  14.951  12.108   2.831  0.3457 -0.0332 -0.2137
36436DOD     C353129  15.384  12.212   2.640  0.0452  0.2512 -0.1685
36437DOD     C153130   4.687   1.311  21.555 -0.0156 -0.0630 -0.2145
36437DOD     C253131   5.096   1.503  21.541  0.2605  0.0885  0.0855
36437DOD     C353132   5.431   1.649  21.295  0.0706  0.1551  0.0023
36438DOD     C153133   3.123   8.849   0.723 -0.0536  0.2504  0.0145
36438DOD     C253134   2.662   8.975   0.710  0.3460 -0.0453 -0.2373
36438DOD     C353135   2.307   9.210   0.902 -0.0496 -0.2725  0.0265
36439DOD     C153136  10.419  17.434  21.210 -0.0166  0.1412  0.1595
36439DOD     C253137  10.481  17.155  20.892  0.0495 -0.0580 -0.0211
36439DOD     C353138  10.500  16.776  20.605  0.2805  0.4677 -0.5842
36440DOD     C153139   6.054  16.896  16.874  0.2716 -0.0517  0.0376
36440DOD     C253140   5.603  16.905  16.702 -0.1612  0.0360  0.5467
36440DOD     C353141   5.166  16.836  16.533 -0.1374  0.0550 -0.3362
36441DOD     C153142  25.461  27.221   2.886  0.2434 -0.0466  0.0851
36441DOD     C253143  25.429  27.525   3.226 -0.4934 -0.3029 -0.4707
36441DOD     C353144  25.701  27.914   3.300  0.0989 -0.0875 -0.2357
36442DOD     C153145  28.003  22.410  26.047  0.1406 -0.3770  0.0539
36442DOD     C253146  27.661  22.313  25.765  0.0079  0.3087 -0.1448
36442DOD     C353147  27.255  22.263  25.955 -0.2649 -0.1242  0.0611
36443DOD     C153148  23.485  27.903   5.709 -0.4926 -0.1781  0.0502
36443DOD     C253149  23.365  27.565   5.413 -0.1768  0.1297  0.0845
36443DOD     C353150  23.503  27.107   5.569  0.4432 -0.2343 -0.0284
36444DOD     C153151   7.536  24.920   1.979 -0.1568  0.1054 -0.0262
36444DOD     C253152   7.701  24.879   1.568 -0.1221 -0.1446 -0.1958
36444DOD     C353153   7.611  24.627   1.263  0.4819  0.4865 -0.0237
36445DOD     C153154  22.179  17.407  24.028 -0.2235  0.0375 -0.0237
36445DOD     C253155  22.267  17.371  24.435  0.1190 -0.0911  0.0380
36445DOD     C353156  22.629  17.413  24.729  0.0184  0.0572  0.1383
36446DOD     C153157  17.725  21.565  14.722  0.0570  0.0566  0.1418
36446DOD     C253158  17.568  21.852  14.378 -0.0091 -0.0317 -0.1454
36446DOD     C353159  17.396  22.045  13.987  0.0089 -0.2035 -0.0821
36447DOD     C153160  21.020  22.900   0.365  0.4204 -0.1837 -0.0321
36447DOD     C253161  21.442  23.093   0.309  0.2059 -0.0751  0.2559
36447DOD     C353162  21.979  23.242   0.282  0.1253  0.3483 -0.0683
36448DOD     C153163  14.784  25.187  18.480  0.1924  0.1067  0.1691
36448DOD     C253164  15.138  25.461  18.665 -0.2378  0.3409 -0.0095
36448DOD     C353165  15.289  25.699  19.022 -0.1763  0.0449  0.1944
36449DOD     C153166  19.326   0.554   3.130  0.0686 -0.0415  0.2648
36449DOD     C253167  18.893   0.535   3.440 -0.3361 -0.0550 -0.1751
36449DOD     C353168  18.894   0.149   3.734  0.1948  0.0654  0.0320
36450DOD     C153169  25.874  27.585  25.896  0.0917 -0.3362  0.3768
36450DOD     C253170  25.445  27.762  26.001 -0.0456  0.0371  0.0377
36450DOD     C353171  24.982  27.897  26.004 -0.1680  0.0418 -0.0167
36451DOD     C153172   5.749  23.125  23.658  0.0588  0.1593  0.0767
36451DOD     C253173   5.957  22.687  23.692  0.1355 -0.1554 -0.0112
36451DOD     C353174   5.712  22.275  23.761  0.0581 -0.0287 -0.4701
36452DOD     C153175  18.848  17.572  11.008  0.1045  0.1974  0.3280
36452DOD     C253176  18.678  17.170  11.215  0.4144 -0.0361 -0.0123
36452DOD     C353177  18.314  16.919  11.474  0.2954  0.3356  0.0964
36453DOD     C153178  14.030  20.933   4.087 -0.1222  0.0665  0.1220
36453DOD     C253179  13.614  20.753   4.169  0.0202 -0.1153 -0.2679
36453DOD     C353180  13.289  20.464   4.163 -0.0665 -0.2039 -0.0605
36454DOD     C153181  20.317  11.575   0.113  0.0438  0.0604  0.0875
36454DOD     C253182  20.503  11.665  30.033  0.2888  0.1253  0.0449
36454DOD     C353183  20.321  11.451  29.660 -0.0032 -0.1493 -0.2904
36455DOD     C153184  18.427  14.835  28.384 -0.3554  0.4285  0.0585
36455DOD     C253185  18.684  15.090  28.747  0.1963  0.0528 -0.1785
36455DOD     C353186  18.833  15.304  29.099  0.0902  0.2845 -0.1234
36456DOD     C153187   6.023   5.139  23.638  0.1890  0.2516  0.0682
36456DOD     C253188   6.153   4.720  23.779  0.1271  0.2758 -0.0191
36456DOD     C353189   6.020   4.381  24.066 -0.3231  0.2910 -0.0091
36457DOD     C153190   7.130   6.013   0.169 -0.1242  0.1425  0.2724
36457DOD     C253191   6.747   5.776   0.091  0.0137 -0.1357 -0.0635
36457DOD     C353192   6.374   5.774   0.358 -0.0790  0.0536  0.1369
36458DOD     C153193   0.405  22.814  25.535  0.0666  0.0684  0.0646
36458DOD     C253194   0.683  23.190  25.308  0.1080  0.1230  0.3258
36458DOD     C353195   1.042  23.521  25.477  0.1023 -0.0870  0.0100
36459DOD     C153196   8.231   4.225  11.786  0.1452 -0.1502 -0.0364
36459DOD     C253197   8.354   4.294  12.244  0.4216  0.1695  0.0422
36459DOD     C353198   8.646   4.184  12.569  0.0251  0.1587 -0.2470
36460DOD     C153199  19.330   4.149  24.932  0.3467  0.2797  0.1315
36460DOD     C253200  19.186   3.697  24.943  0.0746 -0.1035  0.0975
36460DOD     C353201  19.082   3.285  24.816 -0.1552 -0.1733 -0.3308
36461DOD     C153202  28.604  16.991  25.035 -0.0867 -0.1283 -0.2986
36461DOD     C253203  28.940  16.566  25.050  0.0644  0.2687 -0.1440
36461DOD     C353204  28.990  16.080  25.023  0.1269 -0.3995  0.0794
36462DOD     C153205   2.057   0.575  14.451  0.0554  0.3349 -0.1463
36462DOD     C253206   2.416   0.309  14.554  0.3120  0.3445  0.0757
36462DOD     C353207   2.671  30.213  14.577  0.0343  0.0083  0.2275
36463DOD     C153208  27.196  17.137   6.700  0.0196 -0.1295 -0.1630
36463DOD     C253209  27.344  17.556   6.878  0.1625  0.0093  0.1177
36463DOD     C353210  27.620  17.972   6.805  0.4156  0.2315 -0.2169
36464DOD     C153211  25.507  13.050  15.003 -0.2130 -0.0574 -0.0437
36464DOD     C253212  25.176  12.764  15.214  0.2349 -0.0136  0.2042
36464DOD     C353213  24.868  12.737  15.555  0.0101 -0.0444  0.1114
36465DOD     C153214   3.175  11.470   1.675 -0.3774  0.3382 -0.1799
36465DOD     C253215   3.165  11.085   1.942 -0.1294  0.0319  0.0229
36465DOD     C353216   3.011  10.760   2.215  0.0225  0.0743  0.3707
36466DOD     C153217   1.338   2.971  22.988  0.2592 -0.1546 -0.1089
36466DOD     C253218   1.608   2.881  23.415 -0.1378  0.1308  0.2039
36466DOD     C353219   1.442   2.725  23.838  0.0679  0.3974 -0.0029
36467DOD     C153220  11.557  16.708  18.239  0.0254 -0.2205  0.2522
36467DOD     C253221  11.583  17.015  17.914 -0.3968  0.4693  0.0337
36467DOD     C353222  11.992  17.172  17.653  0.1018 -0.2652  0.2463
36468DOD     C153223  17.760   2.771  15.747 -0.1858 -0.0159 -0.0602
36468DOD     C253224  18.111   2.546  15.509 -0.1471 -0.2069 -0.1938
36468DOD     C353225  18.589   2.557  15.578 -0.1346  0.2394 -0.0060
36469DOD     C153226  16.919  21.136  12.257 -0.1382 -0.1516 -0.1234
36469DOD     C253227  16.468  21.103  12.209 -0.1972 -0.0438 -0.1853
36469DOD     C353228  16.123  21.155  12.387 -0.0276 -0.0744  0.1150
36470DOD     C153229  21.919   6.712  27.815  0.3240  0.0609 -0.0283
36470DOD     C253230  22.096   7.012  27.527 -0.1535  0.1370 -0.0277
36470DOD     C353231  21.977   7.134  27.086  0.2087  0.2396 -0.0207
36471DOD     C153232  19.856  19.855   4.737  0.1088 -0.3347  0.0878
36471DOD     C253233  19.570  19.896   4.358 -0.3214 -0.2558 -0.2019
36471DOD     C353234  19.125  20.099   4.333 -0.0189  0.0806  0.1310
36472DOD     C153235   3.657  15.507  14.008 -0.2822 -0.2344 -0.2803
36472DOD     C253236   3.601  15.872  14.289 -0.1965 -0.0448 -0.0242
36472DOD     C353237   3.613  16.242  14.624  0.3936 -0.1875  0.0047
36473DOD     C153238  14.467  27.685   8.514  0.1122  0.0020 -0.1124
36473DOD     C253239  14.372  27.445   8.906  0.2937 -0.0456 -0.2748
36473DOD     C353240  14.371  27.524   9.404  0.0901  0.2431  0.0630
36474DOD     C153241   5.288  13.300  23.511 -0.0609 -0.1482  0.0396
36474DOD     C253242   5.235  13.051  23.166 -0.0249  0.0915  0.2511
36474DOD     C353243   4.926  12.951  22.761 -0.1526 -0.1831 -0.0180
36475DOD     C153244   0.608  24.963  25.984 -0.1004 -0.2969 -0.0395
36475DOD     C253245   0.393  25.240  25.652  0.0264  0.1172 -0.2514
36475DOD     C353246   0.173  25.506  25.305  0.0589 -0.3332  0.0430
36476DOD     C153247  18.317  10.147  21.763 -0.1572  0.2557  0.0415
36476DOD     C253248  18.462  10.514  21.823  0.0795 -0.1188 -0.1997
36476DOD     C353249  18.263  10.900  21.974 -0.2710 -0.1354 -0.2154
36477DOD     C153250  13.397  16.181   1.866  0.0296 -0.1660  0.0249
36477DOD     C253251  13.542  16.282   1.485 -0.1409 -0.0716 -0.0084
36477DOD     C353252  13.320  16.406   1.133  0.3892  0.1560 -0.1635
36478DOD     C153253  26.740   0.482  14.961  0.0100 -0.0810  0.0768
36478DOD     C253254  26.484   0.874  14.942  0.3628 -0.1065  0.3435
36478DOD     C353255  26.711   1.287  14.861  0.0747  0.4431  0.2157
36479DOD     C153256  16.313  12.190  21.929 -0.4458 -0.0105  0.0514
36479DOD     C253257  16.443  11.773  22.175 -0.1690  0.1755 -0.1950
36479DOD     C353258  16.252  11.372  22.406 -0.3317  0.0802 -0.4335
36480DOD     C153259  16.763  21.201  21.946  0.3241 -0.1450 -0.0830
36480DOD     C253260  17.063  21.404  21.647 -0.1936 -0.1246 -0.1082
36480DOD     C353261  17.271  21.323  21.220  0.0321 -0.0900  0.0092
36481DOD     C153262   5.873  20.410  27.311 -0.1882 -0.0928  0.0476
36481DOD     C253263   6.236  20.529  27.048 -0.0632 -0.1210  0.0500
36481DOD     C353264   6.440  20.286  26.661  0.0327  0.1214 -0.0816
36482DOD     C153265   4.219  12.932  27.359  0.1603 -0.2408 -0.1174
36482DOD     C253266   4.548  13.319  27.410  0.0047  0.0808  0.1949
36482DOD     C353267   4.350  13.744  27.573 -0.0761 -0.2153  0.2644
36483DOD     C153268   0.178   5.373  13.042 -0.1871  0.0841  0.1497
36483DOD     C253269   0.069   5.277  13.509 -0.2101  0.2104 -0.0866
36483DOD     C353270   0.081   5.258  13.953 -0.0489 -0.1083  0.5190
36484DOD     C153271   6.090   5.922  26.489  0.2985 -0.1709  0.3574
36484DOD     C253272   5.849   5.869  26.127  0.0347  0.1317  0.1509
36484DOD     C353273   5.472   5.836  25.835  0.0130  0.0835  0.3967
36485DOD     C153274   6.056   9.922  19.544  0.3503 -0.1564  0.2343
36485DOD     C253275   6.544   9.888  19.382  0.1733  0.0129 -0.1939
36485DOD     C353276   6.685   9.577  19.062  0.3592 -0.1445  0.2014
36486DOD     C153277  19.738  25.566   1.984  0.5267 -0.0388  0.1727
36486DOD     C253278  19.855  26.010   1.838  0.0703  0.0274  0.1168
36486DOD     C353279  20.233  26.236   1.976  0.2202  0.1274 -0.0520
36487DOD     C153280  25.999   8.918   1.476 -0.0983 -0.4060 -0.3558
36487DOD     C253281  25.680   9.170   1.196 -0.0676  0.1093 -0.3496
36487DOD     C353282  25.540   9.517   0.863  0.0187  0.2347  0.0151
36488DOD     C153283   1.391  14.439   2.027  0.0339  0.1189  0.1220
36488DOD     C253284   1.086  14.285   2.373  0.0971 -0.1682 -0.0939
36488DOD     C353285   0.924  14.335   2.811 -0.2987 -0.0207 -0.0097
36489DOD     C153286  17.086  10.828  20.804  0.3149 -0.0626  0.2985
36489DOD     C253287  16.870  10.946  21.214 -0.1739  0.0716 -0.1838
36489DOD     C353288  16.642  10.704  21.537 -0.1135 -0.2998  0.0243
36490DOD     C153289   1.965  10.694  18.241  0.0370  0.0243  0.3013
36490DOD     C253290   2.288  10.747  18.554 -0.0461 -0.1657 -0.0208
36490DOD     C353291   2.527  10.996  18.909 -0.0066  0.2617 -0.0367
36491DOD     C153292   8.069  12.655  23.358  0.2477 -0.0778 -0.4162
36491DOD     C253293   8.044  12.253  23.153 -0.0944 -0.0833 -0.1405
36491DOD     C353294   8.319  11.983  22.898 -0.0412 -0.1205 -0.1293
36492DOD     C153295   6.610   8.716  26.496 -0.1405 -0.1549 -0.2350
36492DOD     C253296   6.788   9.117  26.679  0.1399  0.0209  0.0381
36492DOD     C353297   7.147   9.398  26.542  0.1112 -0.2648  0.1116
36493DOD     C153298  28.701  16.976  11.735  0.2013 -0.0203 -0.0384
36493DOD     C253299  29.095  17.077  11.597  0.2627 -0.1769 -0.0142
36493DOD     C353300  29.529  16.978  11.610 -0.1603  0.1211 -0.1924
36494DOD     C153301  10.850  12.092  20.052  0.3246 -0.1325  0.2038
36494DOD     C253302  10.785  12.516  19.927  0.2302  0.1930 -0.1816
36494DOD     C353303  10.366  12.731  20.029 -0.1745 -0.1589 -0.1767
36495DOD     C153304   4.386   5.481  18.316 -0.2340 -0.1291 -0.0760
36495DOD     C253305   4.491   5.417  17.894  0.0854 -0.0418  0.0620
36495DOD     C353306   4.805   5.190  17.665 -0.0158 -0.0168  0.0457
36496DOD     C153307   1.759   4.438  28.230 -0.1006 -0.1313  0.0989
36496DOD     C253308   1.537   4.283  28.612 -0.0449 -0.0432  0.0946
36496DOD     C353309   1.436   4.245  29.040  0.0222  0.1578 -0.3374
36497DOD     C153310  30.080  27.453  30.213 -0.3010 -0.0261  0.3585
36497DOD     C253311  30.123  27.002  30.290 -0.2009 -0.1969  0.0787
36497DOD     C353312  30.006  26.589  30.108  0.0754 -0.1894 -0.0452
36498DOD     C153313  12.980  20.285   0.914 -0.0611  0.1216 -0.0005
36498DOD     C253314  12.622  20.546   0.891 -0.1207 -0.0436 -0.2092
36498DOD     C353315  12.278  20.858   0.791  0.0939  0.3046 -0.2421
36499DOD     C153316   2.691  12.870  22.295  0.1216 -0.1822  0.1527
36499DOD     C253317   2.855  12.422  22.274 -0.1471  0.3173  0.0708
36499DOD     C353318   2.882  11.979  22.316 -0.0562 -0.1862 -0.0810
36500DOD     C153319  10.979  19.649  16.460  0.0546  0.0905  0.1399
36500DOD     C253320  10.878  19.222  16.245 -0.0790 -0.1316  0.0709
36500DOD     C353321  11.015  18.777  16.087  0.1744  0.0399  0.1000
36501DOD     C153322  16.628  18.918  26.662 -0.1746  0.3621  0.0559
36501DOD     C253323  17.053  18.903  26.941  0.1874  0.0654 -0.0699
36501DOD     C353324  17.402  19.072  27.222  0.1336  0.0681 -0.0083
36502DOD     C153325  21.985   8.883  19.195  0.3272  0.0439  0.0013
36502DOD     C253326  21.507   8.825  19.148 -0.2123 -0.1059 -0.2006
36502DOD     C353327  21.289   9.200  19.164 -0.0901  0.0389  0.2346
36503DOD     C153328   2.691  22.444  10.908  0.0908 -0.1594 -0.1640
36503DOD     C253329   2.884  22.484  10.509  0.1689 -0.0906 -0.1904
36503DOD     C353330   2.685  22.802  10.250  0.0636 -0.1778 -0.0050
36504DOD     C153331   9.959  16.044   4.009 -0.1179  0.0245  0.1802
36504DOD     C253332  10.112  15.746   3.647  0.2056 -0.0590  0.2858
36504DOD     C353333  10.320  15.784   3.232 -0.0253 -0.0268 -0.3365
36505DOD     C153334  28.028   3.613  22.881 -0.0340 -0.0705 -0.1160
36505DOD     C253335  27.867   3.746  22.467  0.1595 -0.1608 -0.3521
36505DOD     C353336  27.762   3.613  22.062 -0.0213  0.4751  0.3050
36506DOD     C153337  16.790  19.656   2.256 -0.0820  0.3402 -0.3506
36506DOD     C253338  16.492  19.455   2.512 -0.0588 -0.0713  0.0887
36506DOD     C353339  16.021  19.419   2.465 -0.1553 -0.0245 -0.0477
36507DOD     C153340  15.985  29.018  27.797  0.1110  0.2383 -0.1578
36507DOD     C253341  16.004  28.889  27.339 -0.0748  0.1871  0.3156
36507DOD     C353342  16.317  28.670  27.134  0.2832 -0.1083  0.0421
36508DOD     C153343   2.237  26.025  27.090 -0.0321  0.1237 -0.1183
36508DOD     C253344   2.400  25.659  27.376  0.1408 -0.0577  0.0493
36508DOD     C353345   2.749  25.445  27.281 -0.0782 -0.1122 -0.2450
36509DOD     C153346  14.605   2.179  12.506 -0.2474 -0.0903  0.2025
36509DOD     C253347  14.988   2.476  12.503 -0.2238  0.0647  0.1339
36509DOD     C353348  15.088   2.948  12.394 -0.0300  0.0846 -0.0444
36510DOD     C153349  15.248   7.773  10.654 -0.1740 -0.0965  0.3515
36510DOD     C253350  14.990   7.997  10.348 -0.1351 -0.1286  0.2015
36510DOD     C353351  14.606   7.873  10.173 -0.0898 -0.0720 -0.1499
36511DOD     C153352  20.206   3.723   2.975 -0.1766  0.1048 -0.2128
36511DOD     C253353  20.588   4.022   2.925  0.1722 -0.1595 -0.0913
36511DOD     C353354  20.840   4.387   3.137  0.2013  0.3360 -0.0010
36512DOD     C153355  22.727  14.087  29.127  0.0328  0.0696 -0.1888
36512DOD     C253356  22.834  13.690  29.226  0.2894  0.1288 -0.3677
36512DOD     C353357  22.569  13.270  29.232 -0.4012 -0.1666  0.0206
36513DOD     C153358  30.143   3.769  15.793  0.1005 -0.0047 -0.1109
36513DOD     C253359  29.815   3.916  16.079 -0.1666  0.0258 -0.0655
36513DOD     C353360  29.786   4.333  16.275 -0.2245  0.1743  0.0156
36514DOD     C153361  22.593  23.198   2.314  0.1013 -0.0070 -0.0854
36514DOD     C253362  22.989  22.982   2.447 -0.1355  0.0616  0.2791
36514DOD     C353363  22.987  22.584   2.742 -0.2057  0.1394 -0.0494
36515DOD     C153364   6.893  23.268  30.306 -0.1348 -0.1381  0.1921
36515DOD     C253365   7.273  23.507   0.232 -0.2825  0.0061  0.2807
36515DOD     C353366   7.704  23.519   0.367 -0.2705  0.0121  0.1805
36516DOD     C153367  21.759  18.004  26.750 -0.0759  0.0009  0.0557
36516DOD     C253368  21.388  18.273  26.535 -0.0945 -0.0099  0.0329
36516DOD     C353369  21.084  18.256  26.143  0.1197  0.0580  0.1833
36517DOD     C153370  15.493  23.910  30.234 -0.0619  0.0211 -0.0165
36517DOD     C253371  15.415  23.804  29.845 -0.1509 -0.2672  0.0293
36517DOD     C353372  15.241  23.926  29.403  0.0236 -0.3480 -0.1866
36518DOD     C153373  12.541  27.706  14.667 -0.0959 -0.1880 -0.2351
36518DOD     C253374  12.886  27.418  14.642 -0.0580 -0.0686  0.2135
36518DOD     C353375  12.984  27.030  14.386 -0.0003 -0.0617 -0.1581
36519DOD     C153376  28.105  24.794  21.394  0.2192  0.2942  0.0506
36519DOD     C253377  28.466  24.716  21.723  0.2012  0.1055 -0.1678
36519DOD     C353378  28.781  24.483  21.950  0.0871 -0.0022 -0.5122
36520DOD     C153379  22.175  26.215  28.545 -0.1325 -0.0710  0.0445
36520DOD     C253380  22.345  25.856  28.247 -0.3891 -0.0683  0.1102
36520DOD     C353381  22.220  25.689  27.824  0.2164 -0.1406  0.0277
36521DOD     C153382  26.127  17.077   8.324 -0.0688 -0.3458 -0.0633
36521DOD     C253383  26.412  16.786   8.132 -0.1499 -0.1648  0.0553
36521DOD     C353384  26.694  16.627   7.780 -0.0074 -0.0765  0.0413
36522DOD     C153385  14.956  13.450   0.843  0.0079 -0.1155 -0.0149
36522DOD     C253386  14.863  13.863   0.712 -0.1376  0.1159 -0.4093
36522DOD     C353387  14.866  14.302   0.833  0.1266 -0.2114 -0.3811
36523DOD     C153388  27.768  27.746  19.268  0.3480 -0.0833 -0.0023
36523DOD     C253389  27.695  27.604  19.662  0.1255 -0.0410  0.2164
36523DOD     C353390  27.592  27.582  20.093  0.0846  0.3706 -0.3416
36524DOD     C153391  11.496   4.426   3.575  0.2108 -0.0152 -0.2696
36524DOD     C253392  11.114   4.727   3.563  0.0947 -0.3356  0.0464
36524DOD     C353393  10.773   4.939   3.764  0.1974 -0.5612  0.0252
36525DOD     C153394   2.594  30.013  22.629  0.2006 -0.2105  0.0844
36525DOD     C253395   2.745   0.171  22.443 -0.2111 -0.0723 -0.2269
36525DOD     C353396   3.113   0.397  22.234  0.1544  0.2050 -0.1426
36526DOD     C153397  21.201   0.861  23.325 -0.0160 -0.0628 -0.1463
36526DOD     C253398  21.333   1.311  23.312 -0.0813 -0.0949 -0.1789
36526DOD     C353399  21.488   1.687  23.013  0.0124 -0.0427  0.3015
36527DOD     C153400  28.673   3.055   2.988 -0.2169  0.4102 -0.1038
36527DOD     C253401  28.526   3.218   2.586  0.1238 -0.2563  0.1646
36527DOD     C353402  28.644   3.225   2.132 -0.1612  0.1377 -0.1540
36528DOD     C153403  20.308   9.965  29.715  0.1212 -0.1323  0.1720
36528DOD     C253404  19.860  10.171  29.820  0.0281  0.0560 -0.1244
36528DOD     C353405  19.521  10.449  29.947  0.0292 -0.0777  0.3508
36529DOD     C153406  20.937   2.238  20.484  0.1418  0.1629  0.2675
36529DOD     C253407  21.125   2.572  20.724 -0.0595 -0.0973  0.0149
36529DOD     C353408  21.147   3.024  20.911  0.1377 -0.2076  0.1727
36530DOD     C153409  17.125  27.338  13.281 -0.0071  0.1588  0.1338
36530DOD     C253410  16.797  27.089  13.456 -0.1818  0.3635  0.1718
36530DOD     C353411  16.412  26.821  13.497 -0.3065 -0.0999  0.0731
36531DOD     C153412  22.337   7.005  29.724  0.0995  0.1241  0.0209
36531DOD     C253413  21.990   6.709  29.851 -0.0170 -0.1586 -0.2887
36531DOD     C353414  21.546   6.606  30.052  0.0526  0.2769  0.0944
36532DOD     C153415  26.051  22.709  28.239  0.0070  0.2885 -0.1431
36532DOD     C253416  26.046  22.264  28.477 -0.0923 -0.1102  0.0249
36532DOD     C353417  26.213  21.926  28.677 -0.3322  0.0679  0.1159
36533DOD     C153418  16.999  23.594   9.808  0.2121  0.0528 -0.1436
36533DOD     C253419  16.916  23.191   9.645 -0.0032  0.1872  0.4845
36533DOD     C353420  16.804  22.931   9.301  0.0378 -0.1076  0.3527
36534DOD     C153421  19.963   7.567  28.872 -0.0989  0.2475  0.0758
36534DOD     C253422  20.310   7.692  29.111 -0.2815 -0.2195 -0.0466
36534DOD     C353423  20.601   7.803  29.392  0.0928 -0.1976 -0.0198
36535DOD     C153424  11.270  19.624   6.835 -0.0060 -0.2035  0.1819
36535DOD     C253425  11.681  19.731   7.052 -0.2297  0.1942 -0.0392
36535DOD     C353426  11.939  20.045   7.297 -0.3343 -0.1884  0.0366
36536DOD     C153427  25.617  22.988   9.761  0.0456 -0.0842 -0.2094
36536DOD     C253428  25.598  23.237   9.404  0.1130 -0.3512 -0.0386
36536DOD     C353429  25.651  23.554   9.037  0.0187 -0.3374  0.0087
36537DOD     C153430  20.523   5.134  19.278 -0.3029  0.0228  0.1646
36537DOD     C253431  20.762   5.006  19.660 -0.1500 -0.0883  0.0752
36537DOD     C353432  20.862   4.890  20.204  0.0509  0.2726  0.5949
36538DOD     C153433   9.200   1.383  16.533  0.0398 -0.2481 -0.3059
36538DOD     C253434   9.521   1.013  16.657 -0.1589 -0.3303  0.3734
36538DOD     C353435   9.994   1.036  16.635  0.1027  0.1327  0.2101
36539DOD     C153436  25.663   5.565  27.022 -0.0670 -0.0964  0.1344
36539DOD     C253437  25.866   5.921  27.325  0.1361 -0.2204  0.3556
36539DOD     C353438  26.212   6.140  27.377 -0.1764 -0.1453 -0.0534
36540DOD     C153439  12.505   2.970   1.762 -0.1728  0.1584  0.2000
36540DOD     C253440  12.162   3.021   1.428  0.0320  0.1497 -0.1971
36540DOD     C353441  11.801   3.072   1.167 -0.3158 -0.0805 -0.2658
36541DOD     C153442  27.552   1.544   7.048 -0.0738  0.0437 -0.2371
36541DOD     C253443  27.518   1.840   6.722  0.0537 -0.2049  0.1232
36541DOD     C353444  27.521   2.180   6.482  0.0205  0.1262  0.0226
36542DOD     C153445  29.893  20.084  18.490  0.0694 -0.0545 -0.0215
36542DOD     C253446  29.915  19.689  18.722 -0.1862  0.2035 -0.0673
36542DOD     C353447  29.781  19.542  19.151  0.3965  0.1355 -0.2873
36543DOD     C153448   5.871  14.107   8.005  0.0206 -0.0783 -0.0155
36543DOD     C253449   5.423  14.373   7.920  0.0598  0.1108 -0.0947
36543DOD     C353450   5.334  14.606   8.351  0.2605 -0.1774  0.4489
36544DOD     C153451   2.047   2.562   6.321  0.0707  0.1216 -0.1534
36544DOD     C253452   1.570   2.403   6.348 -0.1258 -0.1538 -0.3549
36544DOD     C353453   1.441   2.017   6.608 -0.3032  0.0671  0.1150
36545DOD     C153454  17.114   9.060  28.347 -0.0169 -0.0085 -0.0880
36545DOD     C253455  17.153   8.587  28.486 -0.2854 -0.1231 -0.0819
36545DOD     C353456  17.370   8.176  28.412  0.1194  0.2313  0.4089
36546DOD     C153457  20.391  28.439  10.717 -0.0992 -0.0547 -0.2708
36546DOD     C253458  20.769  28.631  10.641 -0.0388  0.0095 -0.0535
36546DOD     C353459  20.970  28.943  10.369  0.0871  0.0634  0.0433
36547DOD     C153460   9.414  22.317  15.038  0.2231  0.1261  0.0923
36547DOD     C253461   9.466  22.134  14.638 -0.2776  0.0303 -0.4719
36547DOD     C353462   9.679  21.748  14.355 -0.4457 -0.0284  0.0465
36548DOD     C153463  29.144   6.350  23.160  0.0968 -0.1460  0.0374
36548DOD     C253464  28.690   6.461  23.120  0.1569 -0.0567  0.0717
36548DOD     C353465  28.249   6.313  23.174 -0.4547  0.0770 -0.2556
36549DOD     C153466   8.674  17.139  19.144 -0.1723  0.0374  0.0091
36549DOD     C253467   8.320  16.936  18.886 -0.0056 -0.1019  0.0265
36549DOD     C353468   8.388  16.714  18.515 -0.4043 -0.0505  0.1911
36550DOD     C153469  18.391  20.404  25.634 -0.2090  0.0626  0.1514
36550DOD     C253470  18.611  20.036  25.390  0.1700 -0.3136  0.0756
36550DOD     C353471  18.654  19.801  25.004 -0.1081  0.2112 -0.0680
36551DOD     C153472  16.122  25.403   6.310 -0.2542 -0.2551 -0.0556
36551DOD     C253473  16.394  25.385   6.723  0.1969  0.6214  0.0570
36551DOD     C353474  16.789  25.518   6.879  0.3601 -0.0010  0.0103
36552DOD     C153475  25.452  18.628  24.783 -0.0474  0.1510 -0.0309
36552DOD     C253476  25.781  18.897  24.705  0.0668 -0.4624 -0.1688
36552DOD     C353477  26.201  18.828  24.464 -0.1261  0.2366 -0.3597
36553DOD     C153478   7.559  24.999  22.980  0.0057 -0.2244 -0.2072
36553DOD     C253479   7.970  25.074  23.103 -0.2855 -0.1315  0.1201
36553DOD     C353480   8.323  25.236  23.406  0.0131  0.2380  0.4269
36554DOD     C153481  15.236  27.835   9.691 -0.4618  0.3778 -0.2446
36554DOD     C253482  15.668  28.064   9.585 -0.0548  0.0857  0.0901
36554DOD     C353483  16.054  28.293   9.406  0.3133  0.0123 -0.1369
36555DOD     C153484   4.105  20.774  16.657 -0.2137 -0.0676  0.0256
36555DOD     C253485   3.701  20.602  16.637 -0.3311  0.1010 -0.0516
36555DOD     C353486   3.526  20.263  16.839 -0.0733  0.1340  0.0825
36556DOD     C153487  25.285   3.748  25.140 -0.1874  0.1938 -0.2900
36556DOD     C253488  25.329   3.364  25.366  0.0634 -0.0955 -0.0421
36556DOD     C353489  25.301   3.436  25.792 -0.1538 -0.0335 -0.0239
36557DOD     C153490   4.424  20.578   2.289 -0.0311 -0.2942 -0.1608
36557DOD     C253491   4.794  20.693   2.524  0.0608 -0.1584 -0.0098
36557DOD     C353492   5.232  20.743   2.613  0.0735 -0.1828 -0.1222
36558DOD     C153493  15.638  17.509  18.900 -0.1378 -0.2133 -0.3133
36558DOD     C253494  15.538  17.046  18.776 -0.1673  0.1416  0.1310
36558DOD     C353495  15.772  16.641  18.846  0.0263 -0.0034 -0.1978
36559DOD     C153496  17.387  17.739  16.732  0.1084 -0.2408 -0.0859
36559DOD     C253497  17.482  17.631  17.205 -0.0587  0.2663 -0.1361
36559DOD     C353498  17.538  17.883  17.568 -0.1024 -0.1001 -0.3964
36560DOD     C153499  19.826  14.095  14.929 -0.2855  0.0181  0.1376
36560DOD     C253500  19.518  14.288  14.549 -0.1352 -0.1434  0.0968
36560DOD     C353501  19.198  14.400  14.208 -0.0771  0.0084  0.0037
36561DOD     C153502  30.074   1.444  26.699 -0.0556  0.1484  0.1342
36561DOD     C253503  30.301   1.625  26.312  0.1982  0.0349 -0.1744
36561DOD     C353504   0.291   1.482  26.082  0.0821  0.1459  0.0880
36562DOD     C153505   9.968   8.889  16.151  0.1347  0.1478 -0.1790
36562DOD     C253506  10.088   9.219  15.800 -0.1153  0.3458  0.1962
36562DOD     C353507  10.405   9.277  15.427 -0.0542 -0.0861  0.1089
36563DOD     C153508  24.597  13.949   8.872 -0.1729 -0.1541  0.0941
36563DOD     C253509  24.653  13.980   8.363 -0.1247 -0.0620  0.0911
36563DOD     C353510  24.654  14.254   7.980 -0.2656 -0.0134 -0.3146
36564DOD     C153511  14.557  12.810  22.795 -0.0438  0.1085  0.0457
36564DOD     C253512  14.421  12.775  23.210 -0.2977  0.1150 -0.1308
36564DOD     C353513  14.203  12.986  23.585 -0.2202 -0.2149 -0.2271
36565DOD     C153514  25.346   6.527  14.729 -0.1652 -0.1068  0.2035
36565DOD     C253515  25.435   6.869  14.397 -0.0437  0.2681 -0.0213
36565DOD     C353516  25.346   7.275  14.167 -0.1536 -0.1825  0.1896
36566DOD     C153517  21.194  11.548  17.069 -0.0699 -0.1815 -0.0303
36566DOD     C253518  21.396  11.639  17.445 -0.0091  0.0280 -0.0419
36566DOD     C353519  21.812  11.664  17.590 -0.2897 -0.0452  0.3801
36567DOD     C153520  29.052  15.846   4.074  0.1743 -0.0952 -0.2377
36567DOD     C253521  28.688  16.101   4.210  0.1589 -0.1757  0.2406
36567DOD     C353522  28.707  16.537   4.462 -0.0605  0.1214  0.3035
36568DOD     C153523  28.706  16.927   3.989  0.1581  0.4649  0.0633
36568DOD     C253524  28.812  16.784   3.539  0.0833  0.1437 -0.0394
36568DOD     C353525  29.066  16.658   3.158 -0.1245 -0.0526  0.0965
36569DOD     C153526  24.555  23.879   7.687  0.0787 -0.0475  0.0505
36569DOD     C253527  24.126  24.035   7.619 -0.1355  0.0820 -0.2591
36569DOD     C353528  23.702  23.942   7.774 -0.0588 -0.0877 -0.0590
36570DOD     C153529  25.696   6.585   4.264 -0.1231 -0.0838 -0.2084
36570DOD     C253530  26.120   6.800   4.149 -0.0155 -0.2569  0.0172
36570DOD     C353531  26.483   7.083   4.008 -0.0018  0.2903 -0.0439
36571DOD     C153532  20.660  25.797   7.791 -0.3284 -0.0147 -0.0323
36571DOD     C253533  20.804  25.343   7.828 -0.1181 -0.0210 -0.1856
36571DOD     C353534  21.271  25.261   7.703 -0.1216 -0.0404 -0.1907
36572DOD     C153535  22.716  14.952  20.719  0.1354  0.1662 -0.3382
36572DOD     C253536  22.324  14.835  20.461 -0.2064 -0.1189  0.1153
36572DOD     C353537  22.116  14.476  20.277  0.0401  0.2301 -0.1145
36573DOD     C153538   5.400  16.664  24.380 -0.0089  0.0135 -0.1717
36573DOD     C253539   5.597  17.032  24.536 -0.1470 -0.0370  0.2812
36573DOD     C353540   5.608  17.458  24.562  0.0343  0.1383 -0.0810
36574DOD     C153541  26.568  27.875   7.483 -0.1042 -0.1903  0.3571
36574DOD     C253542  26.450  28.092   7.039 -0.1514 -0.0363  0.1855
36574DOD     C353543  26.391  28.407   6.706 -0.0239 -0.0946  0.1119
36575DOD     C153544   8.951   7.001  24.876 -0.2299 -0.1387 -0.0358
36575DOD     C253545   8.603   7.017  25.264  0.3006 -0.3658  0.1278
36575DOD     C353546   8.365   7.289  25.660 -0.3851 -0.0915 -0.1224
36576DOD     C153547  23.604  22.953  24.729 -0.0090  0.0276 -0.1227
36576DOD     C253548  23.599  22.805  24.295 -0.2316  0.1562  0.2077
36576DOD     C353549  23.397  22.990  23.880 -0.0187 -0.2258 -0.2140
36577DOD     C153550  30.107  10.422  26.142  0.0060 -0.2297 -0.0609
36577DOD     C253551  30.241  10.102  26.414  0.1085 -0.0784  0.2852
36577DOD     C353552  30.330   9.653  26.282 -0.1507 -0.2021  0.2275
36578DOD     C153553  24.312  12.080   6.157 -0.2386  0.1145 -0.1019
36578DOD     C253554  24.665  12.289   6.099 -0.0131 -0.2155  0.0908
36578DOD     C353555  25.010  12.464   5.838 -0.0536 -0.0194  0.2972
36579DOD     C153556   9.706  30.163  28.001 -0.0941 -0.0612  0.0270
36579DOD     C253557  10.091   0.117  27.986  0.0186 -0.0767 -0.2350
36579DOD     C353558  10.512  30.345  27.809 -0.1523  0.0673  0.0726
36580DOD     C153559  11.786  23.251  23.322 -0.1804 -0.0945 -0.4630
36580DOD     C253560  12.204  23.234  23.100 -0.2147 -0.0603 -0.1287
36580DOD     C353561  12.514  22.868  23.163  0.0289  0.1610  0.1253
36581DOD     C153562  25.395   7.706   9.777  0.3387  0.3272  0.3128
36581DOD     C253563  25.824   7.711   9.955 -0.1926 -0.5978 -0.1086
36581DOD     C353564  26.239   7.524  10.052 -0.1337  0.5508 -0.0016
36582DOD     C153565  17.679  26.332  13.315  0.1479  0.0481 -0.0826
36582DOD     C253566  17.530  25.980  13.100 -0.0652 -0.1129  0.0269
36582DOD     C353567  17.160  25.758  12.842 -0.0733  0.3128 -0.1803
36583DOD     C153568  24.473  12.820  26.621 -0.1540 -0.1329  0.0670
36583DOD     C253569  24.736  13.218  26.557  0.3300  0.3464 -0.1048
36583DOD     C353570  24.505  13.615  26.486  0.0356  0.1358 -0.1674
36584DOD     C153571   3.992  20.566  17.537  0.5861 -0.0428  0.1905
36584DOD     C253572   3.614  20.393  17.768 -0.0690 -0.0223  0.0212
36584DOD     C353573   3.228  20.232  17.687 -0.1107 -0.1173  0.0346
36585DOD     C153574  25.149  28.426  18.032 -0.1046 -0.2090  0.1363
36585DOD     C253575  25.590  28.332  18.191 -0.1877  0.0351  0.0799
36585DOD     C353576  26.069  28.185  18.212 -0.3044 -0.3265 -0.3759
36586DOD     C153577  24.661  14.198  27.712  0.0198  0.0618  0.1015
36586DOD     C253578  24.776  14.239  28.168  0.1456 -0.1216 -0.0315
36586DOD     C353579  24.688  14.061  28.563  0.0452 -0.2270  0.1087
36587DOD     C153580   7.082  14.096  28.132  0.1062  0.1968  0.2559
36587DOD     C253581   7.147  14.096  27.636  0.0825 -0.1619 -0.1121
36587DOD     C353582   7.201  14.195  27.222  0.1513 -0.1081  0.0098
36588DOD     C153583  19.069  21.093   9.219 -0.2124 -0.0045  0.0167
36588DOD     C253584  18.651  21.115   9.165 -0.1904  0.0215 -0.0122
36588DOD     C353585  18.239  21.251   9.119 -0.2110  0.2027  0.0901
36589DOD     C153586  23.440  17.798   7.147 -0.1011 -0.0159  0.4120
36589DOD     C253587  23.837  17.786   6.942  0.0444 -0.2026  0.1608
36589DOD     C353588  23.986  17.490   6.649  0.0879  0.1001  0.0102
36590DOD     C153589   7.020  13.576  24.097  0.1168  0.4310  0.1337
36590DOD     C253590   6.647  13.640  24.385 -0.0715 -0.2703  0.1245
36590DOD     C353591   6.292  13.908  24.580 -0.2197  0.2275  0.1635
36591DOD     C153592  30.182  19.334  27.770 -0.1962 -0.2141  0.0395
36591DOD     C253593  -0.054  19.609  27.371 -0.2187 -0.3244  0.0171
36591DOD     C353594  30.084  19.744  27.029 -0.1261 -0.1462 -0.1245
36592DOD     C153595  10.876  15.366  14.598 -0.1633 -0.3130  0.1353
36592DOD     C253596  10.522  15.379  14.883  0.1610 -0.2131  0.2589
36592DOD     C353597  10.174  15.634  14.812  0.0580 -0.0540  0.1855
36593DOD     C153598  21.130  15.722   8.130  0.1932  0.1082  0.2524
36593DOD     C253599  21.319  16.023   8.423 -0.0803 -0.1527  0.1188
36593DOD     C353600  21.497  16.273   8.791 -0.0738  0.0877 -0.2139
36594DOD     C153601   2.327  29.438  24.429 -0.1055  0.2074  0.1349
36594DOD     C253602   1.910  29.620  24.430  0.0857  0.1805  0.1550
36594DOD     C353603   1.570  29.916  24.516  0.4015 -0.2737  0.2102
36595DOD     C153604  25.787  20.039  27.590 -0.0752 -0.0927  0.1960
36595DOD     C253605  25.475  20.247  27.244  0.1955 -0.1221 -0.1848
36595DOD     C353606  25.292  20.295  26.821 -0.2843 -0.0434  0.0877
36596DOD     C153607  14.618  20.332   5.569 -0.5329  0.3137  0.3812
36596DOD     C253608  14.846  20.038   5.876 -0.0058 -0.0476 -0.0327
36596DOD     C353609  15.070  19.641   5.979 -0.1948 -0.1082  0.2685
36597DOD     C153610  18.283  26.988  14.667  0.0903 -0.2687 -0.0249
36597DOD     C253611  18.476  26.597  14.781  0.0276 -0.0656  0.0526
36597DOD     C353612  18.348  26.164  14.860  0.0492  0.1029 -0.1216
36598DOD     C153613  24.490   1.106   4.639 -0.2337 -0.0797 -0.2094
36598DOD     C253614  24.398   0.698   4.496 -0.1618  0.4322  0.0827
36598DOD     C353615  24.500   0.273   4.369 -0.1923  0.2387 -0.1867
36599DOD     C153616  20.130  18.005  22.123 -0.0063 -0.0908 -0.4173
36599DOD     C253617  20.184  17.563  22.248  0.1489  0.4087  0.1829
36599DOD     C353618  20.321  17.264  22.572 -0.0086  0.2339  0.2323
36600DOD     C153619   3.970   3.485  21.335  0.0802 -0.0644  0.0659
36600DOD     C253620   4.189   3.117  21.123  0.2330 -0.1981 -0.1497
36600DOD     C353621   4.607   2.905  21.108 -0.2600 -0.0898 -0.2894
36601DOD     C153622  18.963  11.688  28.488  0.0838 -0.2966  0.1625
36601DOD     C253623  19.342  11.709  28.339 -0.1327 -0.0673  0.3432
36601DOD     C353624  19.609  11.397  28.194  0.0222  0.1868  0.4221
36602DOD     C153625   6.283   7.135  25.898 -0.1700 -0.0704  0.2490
36602DOD     C253626   6.721   7.230  26.071 -0.2524  0.0812 -0.2701
36602DOD     C353627   7.149   7.225  26.274  0.1584  0.4350 -0.2142
36603DOD     C153628  29.814   6.069  16.961 -0.1180 -0.1064 -0.2083
36603DOD     C253629  30.190   5.899  17.095  0.2164 -0.2504 -0.1575
36603DOD     C353630   0.043   5.552  17.279 -0.0416 -0.3330  0.0235
36604DOD     C153631  29.518  21.865  14.758 -0.2501  0.0371 -0.2839
36604DOD     C253632  29.410  21.533  14.444  0.0447 -0.1945 -0.0765
36604DOD     C353633  29.271  21.354  13.965  0.1740 -0.0522  0.1163
36605DOD     C153634   5.436  13.236  28.574 -0.1264  0.1370  0.0850
36605DOD     C253635   5.108  13.005  28.826 -0.2093 -0.0793  0.0621
36605DOD     C353636   4.798  12.780  29.121 -0.2174 -0.1542 -0.6223
36606DOD     C153637   0.359   6.609  19.379 -0.0626 -0.0012 -0.0399
36606DOD     C253638   0.126   6.382  19.068  0.1206 -0.0574 -0.1816
36606DOD     C353639  30.025   6.465  18.904 -0.0788  0.1804  0.0238
36607DOD     C153640  12.479  14.149  18.787 -0.0479 -0.1850 -0.1455
36607DOD     C253641  11.985  14.074  18.909  0.3214  0.1331  0.1394
36607DOD     C353642  11.501  13.914  18.822 -0.3452 -0.0126  0.2249
36608DOD     C153643  24.688  26.822   3.217  0.0297  0.1521 -0.2438
36608DOD     C253644  25.070  26.682   3.418  0.0227  0.1727 -0.0894
36608DOD     C353645  25.387  26.594   3.780 -0.1698  0.1780  0.2414
36609DOD     C153646  25.377   5.778  27.590 -0.1468 -0.0494 -0.1248
36609DOD     C253647  25.077   5.763  27.872  0.1138  0.1057 -0.2375
36609DOD     C353648  24.694   5.531  27.829 -0.1107  0.0260  0.1515
36610DOD     C153649  28.106  10.800   8.005  0.0057  0.1392  0.2322
36610DOD     C253650  27.818  10.753   7.555 -0.1219 -0.2001 -0.0102
36610DOD     C353651  27.667  11.080   7.185 -0.0263 -0.0609 -0.1220
36611DOD     C153652  12.928  12.831  22.034 -0.1145 -0.0347 -0.0365
36611DOD     C253653  12.972  13.283  22.007 -0.1440  0.5276  0.0773
36611DOD     C353654  13.168  13.662  21.973  0.3037  0.0964 -0.1198
36612DOD     C153655  17.827  28.988  20.537  0.5795 -0.3718  0.1821
36612DOD     C253656  17.816  29.133  20.976  0.1002  0.2789 -0.1906
36612DOD     C353657  17.459  29.287  21.280 -0.0942  0.1153 -0.0188
36613DOD     C153658   2.817  23.441  15.531  0.1778 -0.0508 -0.1775
36613DOD     C253659   3.271  23.340  15.362 -0.0016  0.3770  0.0437
36613DOD     C353660   3.411  23.477  14.920  0.1724  0.0388 -0.4542
36614DOD     C153661   3.396  27.521   4.752  0.2078  0.0739  0.0904
36614DOD     C253662   2.960  27.577   4.674  0.2981  0.0213 -0.1997
36614DOD     C353663   2.639  27.509   4.340  0.0414 -0.0306  0.2546
36615DOD     C153664  24.746  10.237  20.064  0.0166 -0.2358 -0.1695
36615DOD     C253665  24.861  10.236  19.633  0.0626  0.1049 -0.2338
36615DOD     C353666  25.132  10.349  19.309 -0.1245 -0.1637 -0.1841
36616DOD     C153667  27.800   8.604  27.818 -0.1451  0.0424  0.1746
36616DOD     C253668  28.086   9.010  27.728 -0.0831  0.1332 -0.0986
36616DOD     C353669  27.994   9.463  27.571  0.0926  0.2006  0.0680
36617DOD     C153670   0.461  20.843  17.210 -0.1623  0.0927 -0.0117
36617DOD     C253671   0.602  21.228  17.463  0.0182 -0.6257 -0.2603
36617DOD     C353672   1.003  21.371  17.635  0.1088 -0.0973 -0.3035
36618DOD     C153673  26.168   5.277   2.410 -0.0344  0.1089  0.2586
36618DOD     C253674  25.865   5.411   2.054  0.0610 -0.1002  0.0844
36618DOD     C353675  25.529   5.336   1.704 -0.0982  0.0402 -0.0178
36619DOD     C153676  21.065  26.490  24.150  0.2822 -0.2760 -0.1562
36619DOD     C253677  21.046  26.696  23.760 -0.0701 -0.1945  0.0261
36619DOD     C353678  21.207  26.546  23.332  0.0130  0.2145 -0.0796
36620DOD     C153679  14.646  26.947  27.570  0.2912  0.1556 -0.0034
36620DOD     C253680  14.849  26.660  27.215  0.3302  0.0258 -0.2690
36620DOD     C353681  14.693  26.293  26.977  0.2256  0.0741 -0.1747
36621DOD     C153682  24.753  12.996  11.417 -0.0276  0.0615 -0.0525
36621DOD     C253683  25.141  13.249  11.515  0.1347 -0.0842 -0.1620
36621DOD     C353684  25.506  13.509  11.304  0.2394 -0.1543 -0.0292
36622DOD     C153685  13.916  27.030  27.369  0.1809 -0.0148  0.2021
36622DOD     C253686  13.868  26.689  27.677  0.0773 -0.2127  0.1253
36622DOD     C353687  13.765  26.282  27.894 -0.3005  0.2332 -0.3365
36623DOD     C153688   9.896  25.985  28.447  0.0543  0.2340 -0.1345
36623DOD     C253689  10.007  26.274  28.791  0.0966  0.1513  0.0170
36623DOD     C353690  10.191  26.689  29.054  0.1147 -0.3013 -0.1093
36624DOD     C153691   1.486  11.391   3.779 -0.0639 -0.1467 -0.1022
36624DOD     C253692   1.247  11.100   3.542 -0.0717 -0.0728 -0.1754
36624DOD     C353693   0.878  10.816   3.460  0.0482 -0.2471  0.2334
36625DOD     C153694  30.178  18.817  14.019 -0.0026  0.0809 -0.1954
36625DOD     C253695   0.231  18.659  14.213  0.0103 -0.0428 -0.1213
36625DOD     C353696   0.519  18.358  14.390  0.0195 -0.1278 -0.0328
36626DOD     C153697   6.880   9.983  18.903  0.0816  0.2186  0.1654
36626DOD     C253698   6.508  10.286  18.867  0.4403  0.2652 -0.0449
36626DOD     C353699   6.337  10.725  18.949 -0.1349 -0.0518  0.0189
36627DOD     C153700  30.053  15.056  12.316  0.0378  0.1653  0.0942
36627DOD     C253701   0.032  14.797  12.056 -0.1522 -0.0781  0.0962
36627DOD     C353702   0.458  14.736  11.797  0.0305 -0.0227 -0.0993
36628DOD     C153703  28.183  16.739  13.075 -0.0377 -0.0394  0.4800
36628DOD     C253704  27.792  16.956  13.035 -0.2772  0.1816  0.0331
36628DOD     C353705  27.610  17.375  13.232 -0.0069  0.0600 -0.2750
36629DOD     C153706  17.093  21.697  14.843 -0.2305  0.2880  0.2019
36629DOD     C253707  17.173  22.079  14.607 -0.1559 -0.2358 -0.0205
36629DOD     C353708  17.537  22.337  14.412  0.0910 -0.3204  0.0326
36630DOD     C153709  19.310   3.696   6.143  0.0454 -0.3697 -0.1233
36630DOD     C253710  19.807   3.765   6.168 -0.0859 -0.0748  0.1758
36630DOD     C353711  20.226   3.699   6.089 -0.0246  0.1404  0.3313
36631DOD     C153712   0.602  10.569  21.636  0.1301  0.0874  0.1977
36631DOD     C253713   0.856  10.654  22.008  0.0854  0.0570 -0.2043
36631DOD     C353714   1.116  10.642  22.361  0.0775  0.2165 -0.1053
36632DOD     C153715  14.998   1.607  14.614  0.1486  0.1217 -0.0774
36632DOD     C253716  14.655   1.407  14.415  0.0418  0.0118 -0.2129
36632DOD     C353717  14.281   1.256  14.191 -0.0553 -0.0328  0.0300
36633DOD     C153718   7.113  25.027  30.045 -0.3608  0.2936 -0.2419
36633DOD     C253719   6.985  24.687  29.797 -0.0966 -0.1647 -0.1323
36633DOD     C353720   6.707  24.421  29.483 -0.1902  0.0351  0.3431
36634DOD     C153721  29.541  29.116   8.405 -0.1879 -0.0091 -0.0046
36634DOD     C253722  29.398  28.695   8.495 -0.2047 -0.2701 -0.0280
36634DOD     C353723  29.370  28.368   8.782  0.2954  0.0930 -0.2858
36635DOD     C153724  22.463   6.276  23.215 -0.4315 -0.1920 -0.0298
36635DOD     C253725  22.141   5.903  23.163 -0.1549  0.1724  0.1079
36635DOD     C353726  21.673   5.809  23.200 -0.4872  0.1723 -0.1619
36636DOD     C153727   2.735  19.280  21.446  0.3165 -0.3549 -0.0239
36636DOD     C253728   2.783  18.980  21.088  0.1089 -0.1396 -0.0318
36636DOD     C353729   2.870  18.559  20.888  0.1998 -0.0294 -0.0838
36637DOD     C153730  21.591  29.459  22.094  0.2230  0.1332 -0.0295
36637DOD     C253731  21.405  29.436  22.552  0.3201  0.0702  0.2136
36637DOD     C353732  21.488  29.391  23.053  0.1688  0.0623 -0.0876
36638DOD     C153733  20.955  17.208  25.730  0.1755 -0.0867 -0.3580
36638DOD     C253734  21.199  17.017  26.053 -0.0653  0.0061  0.0788
36638DOD     C353735  21.562  16.818  26.268  0.2531 -0.2693  0.1574
36639DOD     C153736  23.116  18.840  26.209 -0.2292 -0.2746 -0.1490
36639DOD     C253737  23.126  19.333  26.063 -0.0947 -0.0631  0.2895
36639DOD     C353738  23.000  19.739  25.844 -0.1604  0.0932  0.3589
36640DOD     C153739  19.102  28.598  18.088  0.3908 -0.1612 -0.0474
36640DOD     C253740  19.418  28.713  18.358 -0.0583  0.3681 -0.1431
36640DOD     C353741  19.689  28.776  18.749  0.1274 -0.2414  0.1272
36641DOD     C153742  14.648  20.608   2.156 -0.2289  0.3233 -0.0605
36641DOD     C253743  14.454  20.289   2.466 -0.0034  0.2529  0.1944
36641DOD     C353744  14.449  19.841   2.546  0.1995 -0.1148 -0.1770
36642DOD     C153745   2.168  20.613  22.305  0.1239 -0.1464  0.2040
36642DOD     C253746   1.842  20.353  22.102  0.0703  0.1501  0.0502
36642DOD     C353747   1.675  19.875  22.137  0.0866  0.1449 -0.2305
36643DOD     C153748  29.146   6.976   1.896  0.3169 -0.1385  0.0393
36643DOD     C253749  28.984   6.731   1.494  0.4690 -0.0098 -0.1195
36643DOD     C353750  28.574   6.564   1.330 -0.0007 -0.4966 -0.3866
36644DOD     C153751  10.335  27.634  25.970  0.1803 -0.0439 -0.1522
36644DOD     C253752  10.054  27.973  26.128 -0.0856  0.0375  0.1160
36644DOD     C353753   9.966  28.115  26.534  0.0747  0.2412  0.0642
36645DOD     C153754  15.122  26.624  17.194  0.1323 -0.2257  0.0534
36645DOD     C253755  14.768  26.555  16.948 -0.0884 -0.0908 -0.2645
36645DOD     C353756  14.541  26.173  16.809  0.2031  0.1258  0.2531
36646DOD     C153757  23.873  14.285  22.241 -0.1049  0.0955 -0.0633
36646DOD     C253758  24.150  14.101  22.533 -0.3883  0.1770  0.0227
36646DOD     C353759  24.527  13.884  22.715  0.0240  0.2031 -0.1625
36647DOD     C153760  16.488   9.872  19.451 -0.1982  0.1304 -0.0794
36647DOD     C253761  16.417   9.708  19.052  0.0853 -0.1983  0.0097
36647DOD     C353762  16.548   9.845  18.672 -0.3098  0.0988  0.0172
36648DOD     C153763   5.854  24.427  29.037  0.3145 -0.0168 -0.2478
36648DOD     C253764   5.943  24.869  28.982  0.0713 -0.0069 -0.1866
36648DOD     C353765   6.219  25.116  28.687 -0.1088  0.0006  0.2221
36649DOD     C153766  24.417  15.640   0.883  0.0300  0.0669 -0.1928
36649DOD     C253767  24.852  15.792   0.769 -0.3314  0.0668 -0.0957
36649DOD     C353768  25.344  15.852   0.617  0.0079 -0.2935 -0.1364
36650DOD     C153769  20.355  19.336  22.788 -0.0146 -0.0457  0.3083
36650DOD     C253770  20.244  19.141  23.173 -0.2107 -0.1189 -0.0409
36650DOD     C353771  20.202  19.037  23.678 -0.3259  0.1454 -0.1300
36651DOD     C153772   3.189  19.050  14.899  0.2023 -0.0518 -0.2928
36651DOD     C253773   3.309  18.976  14.464 -0.1631 -0.1791 -0.0736
36651DOD     C353774   3.678  18.860  14.177 -0.1880 -0.3818  0.0164
36652DOD     C153775  23.012   3.280  22.614 -0.1114 -0.2961  0.2284
36652DOD     C253776  23.311   3.544  22.321 -0.0768  0.0726  0.1825
36652DOD     C353777  23.724   3.585  22.244 -0.0010 -0.1906 -0.1314
36653DOD     C153778  12.213  15.468  18.444 -0.0456  0.1705 -0.0498
36653DOD     C253779  12.289  15.827  18.642 -0.0281  0.0177 -0.3117
36653DOD     C353780  12.115  16.257  18.645 -0.2364  0.0814 -0.1800
36654DOD     C153781  21.113  23.863   5.654  0.0913  0.2164  0.0759
36654DOD     C253782  21.120  23.900   5.145 -0.0779 -0.0553  0.0582
36654DOD     C353783  21.176  23.754   4.721  0.0406 -0.1112  0.1698
36655DOD     C153784  24.258  29.046  22.444 -0.2767  0.0652 -0.3541
36655DOD     C253785  24.356  28.962  22.900 -0.1921 -0.1012  0.1249
36655DOD     C353786  24.699  28.912  23.247  0.0882 -0.4093  0.1603
36656DOD     C153787  16.261   5.998  16.180  0.3404  0.0090 -0.0400
36656DOD     C253788  16.133   5.579  16.399  0.0921 -0.5897  0.1410
36656DOD     C353789  15.664   5.657  16.586 -0.3079 -0.0081  0.0609
36657DOD     C153790  23.305  24.773  11.190 -0.1297  0.2344  0.0715
36657DOD     C253791  23.746  24.666  11.018  0.2760 -0.0343  0.1895
36657DOD     C353792  23.957  24.453  10.659  0.0942 -0.1232  0.0285
36658DOD     C153793  27.528  25.386  20.711  0.0109 -0.1915  0.1529
36658DOD     C253794  27.733  24.968  20.626  0.2353  0.0780  0.1059
36658DOD     C353795  27.946  24.671  20.887 -0.1612 -0.1781  0.1816
36659DOD     C153796  26.051  12.490  16.389  0.1826 -0.1038 -0.2604
36659DOD     C253797  25.595  12.671  16.511  0.2208 -0.1079  0.0152
36659DOD     C353798  25.255  12.778  16.226  0.0394 -0.0064 -0.1395
36660DOD     C153799  23.265   2.416  15.682  0.1441 -0.2189  0.0369
36660DOD     C253800  23.117   2.162  16.086  0.0715 -0.1996  0.1657
36660DOD     C353801  23.295   2.169  16.588 -0.2407 -0.1775  0.0807
36661DOD     C153802   7.968  14.728   4.367  0.2490 -0.3060 -0.0096
36661DOD     C253803   7.752  14.878   3.964 -0.1747  0.0044  0.3257
36661DOD     C353804   7.412  14.864   3.689 -0.2883 -0.0922  0.1574
36662DOD     C153805   3.071  28.847  28.164  0.4454  0.0367 -0.1566
36662DOD     C253806   2.931  28.460  27.858 -0.2744 -0.3229 -0.2374
36662DOD     C353807   3.273  28.216  27.617  0.0396 -0.0655  0.0187
36663DOD     C153808  21.767  22.549   4.566  0.3331  0.0086 -0.1810
36663DOD     C253809  22.127  22.273   4.753 -0.1871  0.0465 -0.0454
36663DOD     C353810  22.568  22.284   4.563 -0.0635  0.1259  0.1224
36664DOD     C153811  27.339  14.911   7.933  0.1590 -0.2622 -0.2947
36664DOD     C253812  26.875  14.789   7.942  0.0034  0.0814 -0.2071
36664DOD     C353813  26.469  14.710   7.683  0.0773 -0.2294 -0.1599
36665DOD     C153814  28.923  24.428  27.456 -0.2890 -0.0314  0.3056
36665DOD     C253815  28.828  23.938  27.469 -0.1240 -0.1740  0.2188
36665DOD     C353816  28.443  23.680  27.513 -0.1284  0.1173 -0.1506
36666DOD     C153817  12.787  19.336  19.976 -0.0703  0.0953  0.4087
36666DOD     C253818  12.339  19.398  20.064 -0.2403  0.1300 -0.1466
36666DOD     C353819  12.053  19.778  20.049  0.3548  0.0008  0.1155
36667DOD     C153820  13.709  15.190  14.644  0.0507  0.2780 -0.0608
36667DOD     C253821  13.878  14.767  14.518 -0.2683  0.1226 -0.1902
36667DOD     C353822  13.941  14.333  14.716  0.1405 -0.1357  0.1760
36668DOD     C153823  19.175   5.400  12.900  0.3250  0.2446  0.0791
36668DOD     C253824  19.161   5.582  12.452  0.2303 -0.2303  0.2836
36668DOD     C353825  18.980   5.998  12.171  0.1032 -0.3311  0.0793
36669DOD     C153826   9.525   5.777   1.074 -0.1458 -0.6392  0.1222
36669DOD     C253827   9.623   6.006   1.456  0.2727 -0.0364 -0.1775
36669DOD     C353828   9.352   6.156   1.775 -0.3410 -0.0642  0.0898
36670DOD     C153829   2.694  11.056   8.137  0.3355  0.0453  0.0992
36670DOD     C253830   2.716  11.363   7.753 -0.1014 -0.0965  0.0794
36670DOD     C353831   2.572  11.579   7.378 -0.1152  0.1267 -0.3370
36671DOD     C153832  20.282  27.565  29.612  0.0671 -0.0225  0.1278
36671DOD     C253833  19.984  27.359  29.939  0.0102  0.0007  0.3638
36671DOD     C353834  19.693  27.198  30.219 -0.1281  0.2459 -0.1219
36672DOD     C153835   5.331  11.073  18.094  0.0822  0.1187 -0.2466
36672DOD     C253836   5.643  10.709  18.199 -0.0280  0.3346 -0.1140
36672DOD     C353837   5.918  10.415  18.048  0.2879 -0.1744  0.4848
36673DOD     C153838  21.389  22.763  30.257  0.2159  0.1003 -0.0065
36673DOD     C253839  20.943  22.562  30.279 -0.1897  0.0675 -0.0162
36673DOD     C353840  20.692  22.165  30.093 -0.0381  0.2047  0.3223
36674DOD     C153841   1.493  19.377  27.123 -0.0900 -0.1211 -0.3751
36674DOD     C253842   1.346  19.612  27.530 -0.1755 -0.1815  0.3831
36674DOD     C353843   1.364  19.958  27.730 -0.0600 -0.1034  0.1353
36675DOD     C153844  11.505  20.398   3.509 -0.1173 -0.1227 -0.0470
36675DOD     C253845  11.165  20.550   3.778 -0.2966  0.0096  0.0818
36675DOD     C353846  10.813  20.819   3.869 -0.7265 -0.3487 -0.0610
36676DOD     C153847   0.822  23.943  17.610 -0.0277 -0.1442  0.4356
36676DOD     C253848   0.751  24.068  17.138 -0.1763 -0.0387 -0.0587
36676DOD     C353849   0.846  24.438  16.809 -0.1665  0.0049  0.0382
36677DOD     C153850  20.755   8.215  17.112  0.1425 -0.1222 -0.0160
36677DOD     C253851  21.203   8.464  17.233 -0.1217  0.0042 -0.4160
36677DOD     C353852  21.579   8.725  17.226 -0.3854  0.1208 -0.2488
36678DOD     C153853  28.515   4.349   1.967 -0.1029  0.1647 -0.0301
36678DOD     C253854  28.870   4.578   2.177 -0.2182 -0.1043 -0.1294
36678DOD     C353855  29.269   4.893   2.270  0.1886 -0.1215 -0.2855
36679DOD     C153856   8.329  19.779   2.816 -0.2224 -0.1229  0.0651
36679DOD     C253857   8.089  19.478   2.515 -0.2943  0.1392  0.0554
36679DOD     C353858   8.300  19.124   2.401  0.2110  0.0632 -0.1577
36680DOD     C153859  26.982  26.455  28.114 -0.1166 -0.5500  0.0114
36680DOD     C253860  26.952  26.909  28.172  0.2167 -0.1296 -0.0583
36680DOD     C353861  26.913  27.396  28.166  0.0948  0.0915 -0.0273
36681DOD     C153862  28.280  29.212  19.882 -0.0218 -0.2854 -0.0168
36681DOD     C253863  28.246  28.874  19.671 -0.0875  0.1044 -0.2082
36681DOD     C353864  28.165  28.468  19.380 -0.0319 -0.2751 -0.3382
36682DOD     C153865  18.253  28.273  21.142 -0.4031  0.1664  0.2489
36682DOD     C253866  17.839  28.395  21.042 -0.2084 -0.1821  0.1112
36682DOD     C353867  17.451  28.124  20.971  0.3378  0.5459 -0.1652
36683DOD     C153868  25.188  11.361  24.497  0.1109  0.3839 -0.3003
36683DOD     C253869  25.620  11.250  24.367  0.1921 -0.1980  0.0234
36683DOD     C353870  26.099  11.279  24.341 -0.0124 -0.3249  0.0196
36684DOD     C153871  29.352  13.466   8.759 -0.2778  0.2633 -0.0142
36684DOD     C253872  29.102  13.576   8.387  0.1404  0.0842 -0.0682
36684DOD     C353873  28.846  13.790   8.080  0.0630 -0.1744  0.1941
36685DOD     C153874  22.621  28.795  17.729  0.0122  0.3147  0.0596
36685DOD     C253875  22.525  28.383  17.506  0.1191 -0.1738 -0.1777
36685DOD     C353876  22.754  27.981  17.451  0.1513 -0.3099  0.1597
36686DOD     C153877  26.625  21.030   0.015  0.1710 -0.1230 -0.1266
36686DOD     C253878  26.322  20.895   0.311  0.5086  0.4395  0.0057
36686DOD     C353879  25.953  20.823   0.602 -0.3210 -0.3604  0.1544
36687DOD     C153880  11.746  28.752   5.584  0.2108 -0.2153 -0.1403
36687DOD     C253881  12.146  28.499   5.700  0.2977 -0.0801 -0.2113
36687DOD     C353882  12.333  28.444   6.134  0.0792  0.0914 -0.1638
36688DOD     C153883  27.615  28.169  13.580  0.3495 -0.1369  0.1147
36688DOD     C253884  27.727  27.681  13.571 -0.1794  0.3735  0.1679
36688DOD     C353885  27.997  27.319  13.590 -0.1343 -0.0366  0.3858
36689DOD     C153886  13.129   1.521  15.146  0.0108 -0.1081  0.1589
36689DOD     C253887  13.236   1.792  15.521 -0.2417 -0.1356  0.1049
36689DOD     C353888  13.280   1.597  15.975 -0.3109 -0.2138 -0.3726
36690DOD     C153889  20.605   0.415  14.536  0.2569 -0.0377 -0.1473
36690DOD     C253890  20.626   0.885  14.544 -0.1505 -0.1553 -0.0199
36690DOD     C353891  20.775   1.342  14.654 -0.1332 -0.1633 -0.5030
36691DOD     C153892  28.566   2.735  27.613 -0.0736 -0.0967  0.1253
36691DOD     C253893  28.849   2.942  27.297  0.3332  0.2332  0.1560
36691DOD     C353894  29.088   3.321  27.148  0.0612 -0.2179 -0.0129
36692DOD     C153895  12.423  25.856  13.717  0.1701  0.1306  0.0081
36692DOD     C253896  12.576  25.474  14.004 -0.1380  0.1069  0.0305
36692DOD     C353897  12.533  25.085  14.238  0.1647  0.0335  0.1462
36693DOD     C153898   0.709  26.240  10.449 -0.1440 -0.0364  0.0375
36693DOD     C253899   0.410  25.870  10.424  0.0294  0.2598  0.0720
36693DOD     C353900   0.157  25.601  10.101  0.0114 -0.3194 -0.3418
36694DOD     C153901  17.786   7.765  15.652 -0.2084  0.2243  0.0465
36694DOD     C253902  17.337   7.787  15.473  0.0039 -0.1132  0.0692
36694DOD     C353903  16.834   7.902  15.394  0.3567  0.0101 -0.1304
36695DOD     C153904  29.316  10.553  19.788 -0.2258  0.1115 -0.2892
36695DOD     C253905  29.301  10.462  19.315  0.1646 -0.2512 -0.2298
36695DOD     C353906  29.163  10.382  18.887  0.0263 -0.1209  0.2755
36696DOD     C153907  20.797   7.059   0.593 -0.4729 -0.0750  0.3887
36696DOD     C253908  20.342   7.131   0.473  0.0669 -0.3206  0.0790
36696DOD     C353909  19.986   7.423   0.628  0.0214 -0.1323  0.0457
36697DOD     C153910   5.526  21.789  18.308 -0.2171  0.1028 -0.2610
36697DOD     C253911   5.566  21.489  18.653  0.0456  0.0144 -0.1905
36697DOD     C353912   5.521  21.106  18.892 -0.0586 -0.1278  0.0524
36698DOD     C153913   2.483  28.847   1.387 -0.0937 -0.0408 -0.3358
36698DOD     C253914   2.670  28.442   1.269  0.2513  0.0373 -0.1138
36698DOD     C353915   3.027  28.168   1.371 -0.4191 -0.1625  0.0234
36699DOD     C153916  18.274  24.870  25.314 -0.0563  0.1208  0.1088
36699DOD     C253917  17.996  25.092  25.079  0.1794 -0.1265  0.0804
36699DOD     C353918  17.766  24.969  24.657 -0.3415 -0.0531 -0.2311
36700DOD     C153919  13.388   9.149  13.436  0.2716  0.0734  0.1591
36700DOD     C253920  13.780   9.226  13.226  0.2141 -0.2046  0.0077
36700DOD     C353921  14.121   8.946  13.198  0.0590 -0.0380 -0.0291
36701DOD     C153922  12.372   9.287  18.781  0.2453  0.2933  0.0586
36701DOD     C253923  12.085   9.653  18.902  0.1153 -0.0039  0.0189
36701DOD     C353924  11.685   9.893  19.038 -0.0855 -0.0196 -0.2026
36702DOD     C153925   4.689  13.755  23.407 -0.1385 -0.3548 -0.1630
36702DOD     C253926   4.832  13.434  23.680 -0.0765  0.2858  0.1380
36702DOD     C353927   4.865  13.071  23.946  0.1784  0.1397  0.1902
36703DOD     C153928  28.526  17.734  27.445  0.3752  0.1058  0.2950
36703DOD     C253929  28.506  18.203  27.382 -0.3671 -0.0878  0.0774
36703DOD     C353930  28.734  18.603  27.504  0.0904 -0.1789  0.4415
36704DOD     C153931  21.664  29.554  23.545 -0.1751 -0.1411  0.0673
36704DOD     C253932  21.802  29.394  24.049 -0.1398 -0.1609  0.1019
36704DOD     C353933  21.687  29.135  24.412  0.1345 -0.1758  0.0334
36705DOD     C153934  28.186  17.792  12.650 -0.2080 -0.0397 -0.2484
36705DOD     C253935  27.873  17.437  12.853 -0.0529  0.0385  0.0647
36705DOD     C353936  27.433  17.232  12.813  0.1165 -0.5641 -0.1488
36706DOD     C153937  25.867  21.883   1.722  0.1700 -0.0055  0.1131
36706DOD     C253938  26.262  22.046   1.731 -0.2038 -0.2515 -0.0208
36706DOD     C353939  26.681  21.808   1.712 -0.2839 -0.1767  0.0079
36707DOD     C153940   0.299   6.100  21.612 -0.2678  0.4011  0.2036
36707DOD     C253941   0.354   6.417  22.009  0.0435  0.1643  0.0656
36707DOD     C353942   0.233   6.870  21.868  0.2417  0.0459 -0.0587
36708DOD     C153943  19.939   4.210  27.134  0.1131  0.0816  0.1378
36708DOD     C253944  19.920   4.569  27.426 -0.0296  0.1946 -0.2569
36708DOD     C353945  19.760   5.003  27.649  0.0985  0.3607 -0.2660
36709DOD     C153946   4.089  12.770  10.555  0.1945  0.1001 -0.4085
36709DOD     C253947   3.663  12.601  10.648  0.0815  0.0885  0.0508
36709DOD     C353948   3.704  12.130  10.762 -0.0340  0.1599  0.0729
36710DOD     C153949  15.440  19.064  21.985 -0.0645 -0.0809 -0.3318
36710DOD     C253950  15.788  19.374  21.990 -0.0796  0.1868 -0.1659
36710DOD     C353951  15.819  19.775  21.875  0.0390 -0.0110 -0.0288
36711DOD     C153952  12.913  17.513  12.509 -0.3738 -0.0339  0.3088
36711DOD     C253953  13.223  17.847  12.676  0.0819  0.0889 -0.4628
36711DOD     C353954  13.488  18.202  12.509  0.0479  0.0809  0.1194
36712DOD     C153955  13.794  16.848  26.793 -0.1758  0.2408 -0.0951
36712DOD     C253956  13.988  16.881  27.209  0.0182 -0.1168  0.3317
36712DOD     C353957  14.334  16.790  27.523  0.3335  0.3688  0.0369
36713DOD     C153958  14.350  15.958   6.923 -0.0554  0.0507  0.2615
36713DOD     C253959  14.020  15.652   6.806  0.1175 -0.0957 -0.1530
36713DOD     C353960  13.701  15.789   6.504  0.0760 -0.0026  0.0203
36714DOD     C153961  11.560  15.994  17.713  0.3685  0.0838 -0.0327
36714DOD     C253962  11.409  16.185  17.312  0.2736  0.1104 -0.1472
36714DOD     C353963  11.334  16.563  17.149 -0.0638 -0.2592 -0.2557
36715DOD     C153964   5.308   0.459   1.958 -0.0018  0.0305 -0.1793
36715DOD     C253965   5.090   0.704   2.292  0.0346 -0.0239 -0.0020
36715DOD     C353966   4.757   0.666   2.612  0.0026  0.1235  0.1940
36716DOD     C153967  30.166   5.680  13.292  0.1750  0.2227 -0.1227
36716DOD     C253968  30.197   5.777  13.757 -0.1336 -0.0238 -0.2498
36716DOD     C353969  29.838   6.046  13.935  0.2877  0.0222 -0.1917
36717DOD     C153970   3.876  14.492  20.057  0.3149 -0.1965  0.1872
36717DOD     C253971   4.338  14.479  20.152  0.0007  0.2833 -0.0612
36717DOD     C353972   4.575  14.502  20.571 -0.0476 -0.0349 -0.0400
36718DOD     C153973  20.028  23.644   0.302 -0.0714 -0.0404 -0.0797
36718DOD     C253974  20.093  23.281   0.516 -0.0859  0.1925 -0.0578
36718DOD     C353975  19.771  23.216   0.865  0.2106 -0.0471  0.2179
36719DOD     C153976   4.813  24.416   8.876 -0.0465  0.1813  0.0647
36719DOD     C253977   4.522  24.271   8.587 -0.0887 -0.1824 -0.2653
36719DOD     C353978   4.376  23.845   8.486 -0.1511 -0.2839  0.0827
36720DOD     C153979   5.452  12.897   2.807  0.0738  0.0544  0.0784
36720DOD     C253980   5.271  12.592   2.630  0.1026  0.0896  0.0880
36720DOD     C353981   5.184  12.348   2.259 -0.4130  0.0712  0.2939
36721DOD     C153982  14.258   8.853  28.084 -0.1468 -0.0670 -0.1722
36721DOD     C253983  13.875   8.682  27.846  0.1708  0.0900 -0.0745
36721DOD     C353984  13.432   8.746  27.985  0.0047  0.2227  0.0921
36722DOD     C153985   6.699   8.974  18.818  0.2274  0.1777 -0.0202
36722DOD     C253986   6.796   8.662  18.494 -0.0052 -0.0174  0.1775
36722DOD     C353987   7.108   8.355  18.207 -0.2125  0.1149  0.2355
36723DOD     C153988   8.582  30.190  17.663  0.1426  0.1987  0.0844
36723DOD     C253989   8.387  30.257  17.240  0.0288  0.2044 -0.4377
36723DOD     C353990   8.333  30.159  16.809  0.0833 -0.2865 -0.1865
36724DOD     C153991  14.233  30.086  25.579 -0.1223 -0.1996  0.3348
36724DOD     C253992  13.852   0.020  25.519  0.2527  0.0054  0.2723
36724DOD     C353993  13.633   0.438  25.403 -0.0871  0.3528  0.4969
36725DOD     C153994  12.142   3.993  16.710 -0.1049  0.1432  0.2539
36725DOD     C253995  12.282   4.170  16.325 -0.0583  0.1834 -0.3110
36725DOD     C353996  12.302   4.278  15.845  0.1789 -0.0155 -0.1666
36726DOD     C153997  21.042   4.669   9.445 -0.0120  0.2879 -0.0942
36726DOD     C253998  20.792   4.410   9.172  0.4663  0.2615 -0.0302
36726DOD     C353999  20.478   4.042   9.066  0.0805  0.1821 -0.0185
36727DOD     C154000  19.409  19.585   1.154  0.1055  0.2577 -0.2407
36727DOD     C254001  19.542  19.666   0.727 -0.1905 -0.2925  0.2762
36727DOD     C354002  19.679  19.552   0.284 -0.2185  0.0234 -0.1113
36728DOD     C154003  18.640  28.151  26.186 -0.1221  0.2175  0.4115
36728DOD     C254004  18.311  28.051  25.848 -0.0385 -0.0976  0.2288
36728DOD     C354005  17.983  27.767  25.777  0.0700  0.0838 -0.1022
36729DOD     C154006  28.926  20.538  15.763  0.0326 -0.0313 -0.1033
36729DOD     C254007  28.703  20.816  16.138 -0.2135  0.1861  0.2218
36729DOD     C354008  28.578  21.214  16.406  0.0085  0.0015  0.0068
36730DOD     C154009  21.339   0.153  19.950  0.1050  0.0411  0.0139
36730DOD     C254010  21.550   0.213  20.364 -0.1736  0.1026  0.0053
36730DOD     C354011  21.521   0.594  20.577  0.1407 -0.4399 -0.2702
36731DOD     C154012  15.916   8.882   7.629 -0.1509 -0.1882 -0.1418
36731DOD     C254013  15.513   9.146   7.696 -0.2085 -0.1766  0.1036
36731DOD     C354014  15.113   9.270   7.786  0.3946  0.1423  0.0058
36732DOD     C154015   5.368  26.717   1.993  0.2880  0.6019 -0.0711
36732DOD     C254016   5.500  26.614   1.582 -0.3105  0.1027  0.0652
36732DOD     C354017   5.192  26.416   1.236  0.1138  0.0746 -0.1870
36733DOD     C154018  12.317  19.784   4.981  0.0702 -0.1488  0.0416
36733DOD     C254019  12.153  20.186   4.989 -0.2209  0.0480  0.0640
36733DOD     C354020  11.937  20.548   4.772  0.0304  0.0488  0.1528
36734DOD     C154021   9.842  19.441   1.066 -0.2135 -0.0636  0.0362
36734DOD     C254022   9.852  19.030   1.232 -0.0519  0.0146 -0.0774
36734DOD     C354023   9.583  18.755   1.470  0.0166  0.1342  0.2660
36735DOD     C154024  24.412  19.411   6.228  0.0429  0.1672  0.0262
36735DOD     C254025  24.251  19.137   5.913 -0.3133  0.1631  0.2771
36735DOD     C354026  24.490  19.066   5.499  0.0852 -0.2819  0.3176
36736DOD     C154027  29.456  16.708  17.164 -0.2485  0.0613  0.3395
36736DOD     C254028  29.546  16.556  16.709 -0.3343  0.1091 -0.0067
36736DOD     C354029  29.582  16.332  16.284 -0.0402  0.3062 -0.0772
36737DOD     C154030  23.710   2.749  15.624 -0.1676 -0.1409 -0.2178
36737DOD     C254031  23.277   2.816  15.403 -0.1017 -0.0307  0.0350
36737DOD     C354032  22.907   2.747  15.248 -0.1215  0.3465 -0.0962
36738DOD     C154033   0.415  13.191  13.394 -0.0753 -0.0289  0.1781
36738DOD     C254034   0.452  13.607  13.480  0.0798  0.1576 -0.0157
36738DOD     C354035   0.418  14.036  13.420  0.1102 -0.0089 -0.2980
36739DOD     C154036   2.640   4.252  25.674  0.0206 -0.2125 -0.1129
36739DOD     C254037   2.500   3.828  25.857  0.1480 -0.0992 -0.3657
36739DOD     C354038   2.491   3.373  25.940  0.0793 -0.1348 -0.0737
36740DOD     C154039   7.266  20.086  17.663  0.0738 -0.0817 -0.0670
36740DOD     C254040   7.076  19.907  18.068 -0.1959  0.1197  0.0349
36740DOD     C354041   7.147  19.478  18.296 -0.2085  0.1218  0.1359
36741DOD     C154042  24.268  19.925  18.302  0.1330 -0.1686 -0.2114
36741DOD     C254043  24.666  19.985  17.982  0.1826  0.2609  0.0439
36741DOD     C354044  25.065  20.055  18.073  0.0141 -0.1908  0.2896
36742DOD     C154045  29.299  29.291  16.270  0.0282  0.1089  0.0340
36742DOD     C254046  28.855  29.111  16.156 -0.0308  0.1801  0.2980
36742DOD     C354047  28.438  28.983  16.224 -0.0339 -0.0737  0.4004
36743DOD     C154048   0.847   7.677  29.469  0.0886 -0.0583  0.0397
36743DOD     C254049   1.181   7.975  29.524 -0.2886 -0.1016 -0.3551
36743DOD     C354050   1.633   8.082  29.452  0.0534 -0.1320 -0.1196
36744DOD     C154051  28.651  20.972   6.536 -0.1181  0.0812 -0.0226
36744DOD     C254052  28.801  21.283   6.832 -0.0598  0.0260 -0.0480
36744DOD     C354053  28.903  21.363   7.297 -0.1725  0.2237 -0.0528
36745DOD     C154054  11.029  11.586   5.159 -0.2833 -0.0561  0.0197
36745DOD     C254055  11.128  11.695   5.629 -0.2152  0.1129 -0.4431
36745DOD     C354056  11.172  11.738   6.079 -0.0614 -0.0306 -0.1714
36746DOD     C154057   6.272   8.864  19.870 -0.1422 -0.2720 -0.0455
36746DOD     C254058   6.648   9.202  19.834  0.1087  0.0701  0.1989
36746DOD     C354059   6.978   9.570  19.954  0.4074 -0.2423  0.1434
36747DOD     C154060  18.396  25.599  23.293 -0.0284  0.0225 -0.1463
36747DOD     C254061  18.477  25.383  22.850 -0.1981 -0.0132  0.1590
36747DOD     C354062  18.296  25.074  22.647 -0.0745 -0.0055  0.0616
36748DOD     C154063  12.294   7.272  17.854  0.0180  0.0172 -0.2328
36748DOD     C254064  12.710   7.118  17.774 -0.1994 -0.0513 -0.0739
36748DOD     C354065  13.140   7.096  17.683 -0.3813  0.0837 -0.2715
36749DOD     C154066   4.211   8.212  14.979  0.2044  0.2591 -0.0566
36749DOD     C254067   4.119   7.829  15.234  0.2377 -0.0170 -0.0547
36749DOD     C354068   4.375   7.479  15.403  0.2851 -0.1110 -0.1392
36750DOD     C154069  30.287   4.567  14.094  0.0601 -0.1842  0.0234
36750DOD     C254070  29.820   4.443  14.107  0.1225 -0.0149 -0.1224
36750DOD     C354071  29.540   4.183  13.837 -0.0921 -0.2536  0.1041
36751DOD     C154072  25.711  28.646  14.690 -0.1256 -0.3723 -0.0342
36751DOD     C254073  25.833  28.228  14.912 -0.1495 -0.0819  0.1293
36751DOD     C354074  25.763  27.827  15.055  0.0087  0.0740 -0.1718
36752DOD     C154075  18.579   2.656   2.287  0.1358 -0.0713  0.0712
36752DOD     C254076  18.878   2.806   2.569 -0.1006  0.2037 -0.0338
36752DOD     C354077  18.854   3.194   2.806 -0.1421 -0.0180 -0.1577
36753DOD     C154078   0.012  10.528  13.617  0.0671  0.0921 -0.2785
36753DOD     C254079  30.212  10.518  14.042 -0.0364 -0.0032  0.0479
36753DOD     C354080  30.290  10.783  14.360  0.0231  0.0854 -0.1281
36754DOD     C154081  23.127  10.749  17.875 -0.0761 -0.0176 -0.0189
36754DOD     C254082  22.659  10.661  17.780 -0.1531 -0.0094  0.4210
36754DOD     C354083  22.299  10.513  17.490  0.0726  0.0257 -0.0404
36755DOD     C154084   4.602  11.667   3.548  0.4326 -0.0624 -0.4568
36755DOD     C254085   4.587  11.946   3.926 -0.1165  0.1104  0.3491
36755DOD     C354086   4.464  12.357   4.080  0.1442  0.0309 -0.2460
36756DOD     C154087   1.307   2.629   5.924 -0.2212  0.0154  0.0289
36756DOD     C254088   0.862   2.478   5.734 -0.2835 -0.2145 -0.1829
36756DOD     C354089   0.514   2.319   5.426 -0.0417  0.0562  0.1430
36757DOD     C154090   6.157   3.617  14.723  0.0779  0.1187  0.0784
36757DOD     C254091   6.527   3.391  14.923  0.1249  0.3028 -0.1552
36757DOD     C354092   6.703   3.086  15.274 -0.1608 -0.2046  0.0175
36758DOD     C154093  15.244  13.375  21.026 -0.0851  0.1216 -0.2039
36758DOD     C254094  15.120  13.138  21.426  0.4000  0.0968  0.0690
36758DOD     C354095  15.077  12.806  21.744 -0.0660  0.0933 -0.1311
36759DOD     C154096  19.034   2.758   6.865 -0.0049  0.1610 -0.3101
36759DOD     C254097  19.302   2.685   7.332  0.3534 -0.0458 -0.0540
36759DOD     C354098  19.462   2.885   7.690  0.1983 -0.2352 -0.1212
36760DOD     C154099  29.362   5.827  14.739 -0.1110 -0.2589 -0.0058
36760DOD     C254100  29.161   5.632  14.374  0.0349 -0.2306  0.0172
36760DOD     C354101  28.806   5.620  14.077  0.0543 -0.1696  0.0406
36761DOD     C154102  23.622   0.197  18.498 -0.1135 -0.1888 -0.1835
36761DOD     C254103  23.227   0.364  18.660 -0.0934 -0.2331 -0.1689
36761DOD     C354104  22.779   0.517  18.574 -0.1395  0.2008 -0.0490
36762DOD     C154105   8.785  28.906  20.424 -0.1798  0.1694  0.0643
36762DOD     C254106   8.499  29.129  20.710 -0.1598 -0.3017 -0.0673
36762DOD     C354107   8.357  29.461  21.028 -0.2583  0.1990 -0.0431
36763DOD     C154108  20.078  14.600  22.665  0.4235 -0.3977 -0.1734
36763DOD     C254109  19.972  14.674  22.221  0.1826  0.0935  0.1410
36763DOD     C354110  19.910  14.612  21.792 -0.2661 -0.1805 -0.2850
36764DOD     C154111  28.332  13.256   6.290 -0.1581 -0.3447 -0.0873
36764DOD     C254112  28.281  13.276   6.788 -0.3297  0.1445  0.0578
36764DOD     C354113  28.287  13.362   7.258 -0.3220  0.3572  0.1083
36765DOD     C154114  30.211  17.889   0.327 -0.1063 -0.0004  0.0940
36765DOD     C254115  29.969  18.219   0.581 -0.1229 -0.2335 -0.1252
36765DOD     C354116  29.712  18.511   0.850 -0.0941 -0.2046 -0.1307
36766DOD     C154117   1.019  18.498  19.572 -0.1423 -0.0615  0.1185
36766DOD     C254118   1.139  18.186  19.942  0.4072 -0.0555  0.0736
36766DOD     C354119   1.391  17.918  20.215 -0.0844 -0.2828  0.1291
36767DOD     C154120  16.125  24.632  17.405 -0.2898  0.1538 -0.3273
36767DOD     C254121  16.165  25.024  17.638  0.2535 -0.0515 -0.0579
36767DOD     C354122  15.904  25.376  17.792  0.0003  0.2788 -0.1808
36768DOD     C154123   5.524  16.113  28.858  0.1730  0.1115  0.2002
36768DOD     C254124   5.712  15.880  28.493 -0.0500  0.1674 -0.0773
36768DOD     C354125   5.963  15.500  28.396 -0.1861  0.0842 -0.0875
36769DOD     C154126  24.815  22.010  24.964  0.0179 -0.0219 -0.0052
36769DOD     C254127  24.823  22.346  25.284  0.0214 -0.3872 -0.1636
36769DOD     C354128  24.937  22.604  25.618 -0.0322  0.2678 -0.0869
36770DOD     C154129  27.976   8.821  14.520  0.1763  0.1114  0.3855
36770DOD     C254130  27.614   8.590  14.680 -0.0229 -0.0883  0.2736
36770DOD     C354131  27.672   8.197  14.925 -0.0050  0.0903 -0.1824
36771DOD     C154132  18.974   4.744  12.139  0.0222 -0.1338  0.0574
36771DOD     C254133  18.816   4.981  11.819 -0.0898  0.2219  0.0602
36771DOD     C354134  18.842   5.048  11.337  0.0710  0.1388 -0.2905
36772DOD     C154135   3.742   8.506  11.196  0.0033  0.2792 -0.1948
36772DOD     C254136   3.481   8.783  10.936  0.3630 -0.2997  0.1513
36772DOD     C354137   3.093   9.041  10.839  0.1393  0.1146 -0.0999
36773DOD     C154138  18.428  25.048   8.289 -0.0059 -0.2186  0.0200
36773DOD     C254139  18.383  24.744   8.596 -0.0229 -0.0469 -0.2914
36773DOD     C354140  18.246  24.769   9.040 -0.3039  0.1673  0.0142
36774DOD     C154141   4.305  28.640   7.841 -0.2725  0.0105  0.3415
36774DOD     C254142   3.846  28.648   7.671  0.1523 -0.0554  0.1129
36774DOD     C354143   3.531  28.950   7.541 -0.1871  0.0236 -0.0634
36775DOD     C154144   4.855  23.260   0.274 -0.2763  0.0454 -0.1677
36775DOD     C254145   5.292  23.368   0.515  0.4453 -0.0994  0.1114
36775DOD     C354146   5.647  23.639   0.714  0.0388 -0.1718  0.1454
36776DOD     C154147  24.796   6.351   9.766 -0.1578  0.4631  0.1807
36776DOD     C254148  25.009   6.408   9.389  0.1659 -0.1366  0.1022
36776DOD     C354149  24.912   6.325   8.927  0.0030  0.1474 -0.0466
36777DOD     C154150   3.452   8.216  14.600 -0.1283 -0.3709  0.1082
36777DOD     C254151   3.229   7.993  14.303  0.2046 -0.1676  0.1007
36777DOD     C354152   3.420   7.741  14.010 -0.0311  0.1742  0.1414
36778DOD     C154153  14.958   4.800   6.904  0.1104  0.1226 -0.2277
36778DOD     C254154  14.681   5.184   6.882 -0.0002  0.0346  0.1353
36778DOD     C354155  14.408   5.463   7.047  0.0813 -0.3773 -0.0821
36779DOD     C154156   8.981  25.454   8.736 -0.1790 -0.0991 -0.2979
36779DOD     C254157   8.649  25.803   8.677  0.1696 -0.0386 -0.0509
36779DOD     C354158   8.306  26.152   8.649  0.1583  0.3412 -0.2865
36780DOD     C154159   7.429  24.478  22.984 -0.1379  0.1671  0.1265
36780DOD     C254160   7.595  24.596  22.607  0.1952 -0.0400  0.2283
36780DOD     C354161   7.466  24.471  22.166  0.0375 -0.3883  0.0159
36781DOD     C154162  25.000   8.533  21.593 -0.2377 -0.0426 -0.1861
36781DOD     C254163  25.375   8.588  21.332 -0.2849 -0.3088  0.3235
36781DOD     C354164  25.812   8.685  21.281 -0.0532 -0.1054 -0.0861
36782DOD     C154165  14.226  21.832   0.491 -0.1882  0.0124  0.0538
36782DOD     C254166  14.573  21.858   0.136 -0.1207  0.0269 -0.3169
36782DOD     C354167  14.675  21.775  30.034 -0.0717 -0.0914  0.1535
36783DOD     C154168   0.524   8.895   3.120  0.1398  0.1726 -0.1979
36783DOD     C254169   0.170   9.186   3.051 -0.2880  0.1884  0.1391
36783DOD     C354170  30.286   9.475   3.353 -0.0866  0.0791 -0.1551
36784DOD     C154171   2.147   2.511  16.164  0.0446 -0.0429  0.1773
36784DOD     C254172   2.079   2.148  16.353 -0.1611 -0.3797 -0.0965
36784DOD     C354173   1.824   1.796  16.319 -0.0589 -0.5275 -0.0960
36785DOD     C154174   2.956  19.575  23.543  0.2253 -0.1262  0.0655
36785DOD     C254175   3.270  19.878  23.672  0.0794  0.1727  0.2372
36785DOD     C354176   3.474  20.220  23.398  0.0435 -0.1956  0.1563
36786DOD     C154177  13.308   3.252  29.945  0.1452 -0.1245 -0.1975
36786DOD     C254178  13.130   2.874  29.840 -0.0977  0.0750 -0.2840
36786DOD     C354179  12.795   2.628  29.665 -0.1124  0.2384 -0.0196
36787DOD     C154180  22.346  22.248  11.242  0.0321 -0.5381  0.1506
36787DOD     C254181  22.398  22.207  11.706  0.0940 -0.0090 -0.1093
36787DOD     C354182  22.389  21.956  12.095 -0.2098 -0.0180  0.0440
36788DOD     C154183  17.474  24.894  21.970  0.2209  0.2575 -0.0165
36788DOD     C254184  17.158  24.549  22.106  0.0226  0.0633  0.1392
36788DOD     C354185  16.794  24.254  22.245  0.2351 -0.0983  0.1052
36789DOD     C154186  29.164  23.626  17.675 -0.0675 -0.0231 -0.1467
36789DOD     C254187  29.559  23.424  17.776 -0.3266  0.2186 -0.0840
36789DOD     C354188  30.052  23.403  17.673  0.0019  0.4154 -0.0149
36790DOD     C154189  14.835  22.959  18.067 -0.2016  0.0425 -0.0635
36790DOD     C254190  15.088  23.293  17.873  0.1085 -0.3220  0.0970
36790DOD     C354191  15.193  23.651  17.606  0.0334  0.2212  0.1103
36791DOD     C154192  25.363  25.461   3.127 -0.0341  0.0546  0.0999
36791DOD     C254193  25.573  25.217   3.497 -0.3476 -0.2982 -0.2006
36791DOD     C354194  25.772  25.300   3.920 -0.0594  0.2129 -0.1114
36792DOD     C154195  22.470  12.544   6.704  0.1985  0.2818 -0.2240
36792DOD     C254196  22.392  12.592   7.192  0.2206 -0.0548 -0.0576
36792DOD     C354197  22.266  12.431   7.611  0.0655 -0.0919  0.0542
36793DOD     C154198  27.197   1.752   8.537  0.3379 -0.1519 -0.1101
36793DOD     C254199  27.599   1.947   8.677  0.0587  0.4915  0.1748
36793DOD     C354200  28.005   2.086   8.861 -0.0538 -0.0664 -0.1391
36794DOD     C154201  15.081   5.651  23.360 -0.1162 -0.0272  0.1068
36794DOD     C254202  14.671   6.000  23.325 -0.2571 -0.0293  0.1170
36794DOD     C354203  14.510   6.428  23.325  0.0986  0.0161  0.2112
36795DOD     C154204  30.373  26.836  10.307  0.3710 -0.1363  0.2853
36795DOD     C254205   0.333  26.534  10.118 -0.0009 -0.1401 -0.3245
36795DOD     C354206   0.522  26.470   9.681 -0.2603 -0.0140 -0.3631
36796DOD     C154207  28.288   7.584  29.215 -0.0063 -0.0043 -0.2038
36796DOD     C254208  28.285   7.425  29.613  0.1391 -0.0369 -0.0097
36796DOD     C354209  28.139   7.615  30.043 -0.1686 -0.1364 -0.0663
36797DOD     C154210  10.208  21.233   0.408  0.3990 -0.0350 -0.2328
36797DOD     C254211  10.535  21.048   0.177  0.1424  0.0266  0.0511
36797DOD     C354212  10.929  21.066   0.416  0.2681 -0.0150 -0.0486
36798DOD     C154213   6.735  22.223   5.387  0.2292 -0.0174  0.1794
36798DOD     C254214   6.950  21.797   5.580 -0.5126  0.3275  0.0758
36798DOD     C354215   7.187  21.510   5.836  0.2706 -0.1585 -0.0216
36799DOD     C154216   4.129   1.541  16.310  0.0103  0.2730 -0.3814
36799DOD     C254217   4.446   1.552  15.963  0.1664  0.0001  0.0602
36799DOD     C354218   4.881   1.749  15.883 -0.2105  0.2533 -0.0094
36800DOD     C154219  17.143  -0.035   2.795 -0.1794 -0.2558  0.1501
36800DOD     C254220  17.323   0.380   2.667 -0.1129 -0.2213  0.0671
36800DOD     C354221  17.295   0.813   2.444 -0.1430 -0.2378 -0.1247
36801DOD     C154222   8.819   6.847   5.564 -0.0767  0.0877  0.0523
36801DOD     C254223   8.910   6.869   6.037  0.2667 -0.0443  0.0992
36801DOD     C354224   8.873   6.999   6.509  0.1195  0.3935 -0.0853
36802DOD     C154225   4.852   4.441  18.503  0.0389 -0.1960  0.0690
36802DOD     C254226   5.155   4.226  18.771 -0.0194 -0.1751  0.1380
36802DOD     C354227   5.651   4.166  18.812  0.0373 -0.1152 -0.0520
36803DOD     C154228  16.371  13.134  16.211 -0.0289 -0.1077 -0.1540
36803DOD     C254229  16.405  12.739  15.936  0.0304 -0.5300 -0.0130
36803DOD     C354230  16.522  12.424  15.682 -0.1464  0.1007 -0.1042
36804DOD     C154231   3.068  10.812   3.321  0.0159  0.1496 -0.0271
36804DOD     C254232   2.834  10.845   2.976 -0.2293  0.0142  0.0801
36804DOD     C354233   2.588  10.883   2.574 -0.4179  0.0435  0.0381
36805DOD     C154234   1.340  12.632  13.235  0.0306 -0.1673  0.1170
36805DOD     C254235   1.009  12.628  13.521  0.0279  0.2993 -0.2663
36805DOD     C354236   0.655  12.561  13.804 -0.2640  0.1131  0.2630
36806DOD     C154237  18.440  10.479  29.229  0.1727  0.2049 -0.0158
36806DOD     C254238  18.362  10.674  29.654  0.1561  0.1385  0.0406
36806DOD     C354239  18.236  10.604  30.119  0.0539 -0.0558 -0.2106
36807DOD     C154240   1.825  17.598   8.692 -0.4469 -0.3766 -0.0107
36807DOD     C254241   1.857  17.527   8.230 -0.0152  0.0316 -0.1363
36807DOD     C354242   1.765  17.498   7.798 -0.2075  0.1357  0.2060
36808DOD     C154243  22.788  29.548  28.834 -0.1554  0.0517  0.0299
36808DOD     C254244  22.474  29.841  28.696  0.1646  0.0890  0.2081
36808DOD     C354245  22.252  30.221  28.668  0.3414  0.2148 -0.1076
36809DOD     C154246   9.530  14.156  29.271 -0.2662  0.1377 -0.1460
36809DOD     C254247   9.804  14.139  29.688 -0.0131 -0.0639 -0.1725
36809DOD     C354248  10.100  14.264  30.056  0.0032 -0.0552  0.1027
36810DOD     C154249  16.474  14.565  23.259 -0.1879 -0.0871 -0.1708
36810DOD     C254250  16.772  14.499  22.863  0.2549  0.1710 -0.0525
36810DOD     C354251  17.091  14.402  22.549 -0.2322 -0.1872 -0.1948
36811DOD     C154252  12.375   8.660   7.996 -0.0644 -0.0464 -0.2364
36811DOD     C254253  12.667   8.370   7.846  0.0415  0.0479  0.0760
36811DOD     C354254  12.559   8.030   7.542 -0.1312 -0.3609 -0.0097
36812DOD     C154255  27.534   5.686  17.684 -0.0259 -0.1674  0.1071
36812DOD     C254256  27.250   5.703  18.034 -0.1415  0.1718  0.0730
36812DOD     C354257  27.046   5.610  18.456  0.1381 -0.1140  0.0966
36813DOD     C154258  18.234  18.293  16.778  0.1005  0.0781  0.0011
36813DOD     C254259  17.877  18.306  16.545  0.2626  0.1710  0.0354
36813DOD     C354260  17.433  18.163  16.492 -0.1123 -0.1210 -0.1319
36814DOD     C154261  24.588   2.840  29.606  0.2118 -0.0676 -0.1430
36814DOD     C254262  24.624   2.476  29.357 -0.3184  0.0854 -0.0119
36814DOD     C354263  24.643   2.112  29.072 -0.2917  0.1990 -0.2899
36815DOD     C154264  14.375  12.191  14.478 -0.1132 -0.3855  0.0915
36815DOD     C254265  14.059  12.309  14.725 -0.0704 -0.2001 -0.0545
36815DOD     C354266  13.820  12.463  15.095 -0.3178 -0.2003  0.0044
36816DOD     C154267   5.148  14.399  15.531  0.2097 -0.2823  0.0413
36816DOD     C254268   4.899  14.066  15.336 -0.1435 -0.2073 -0.1739
36816DOD     C354269   4.729  13.719  15.050  0.1189 -0.0653  0.1318
36817DOD     C154270  29.322   2.595  14.707 -0.2734 -0.0698 -0.5340
36817DOD     C254271  28.860   2.684  14.763 -0.0446 -0.4591  0.1795
36817DOD     C354272  28.455   2.587  14.589 -0.0742 -0.1002  0.2106
36818DOD     C154273  28.969  21.377  11.793 -0.0274 -0.0163  0.3410
36818DOD     C254274  28.790  21.678  11.490  0.3032 -0.0252  0.0790
36818DOD     C354275  28.696  22.118  11.602  0.1874 -0.1034  0.0104
36819DOD     C154276  15.079   9.082   3.111  0.0968 -0.1048 -0.0195
36819DOD     C254277  15.419   9.378   3.249 -0.1114  0.4093  0.1381
36819DOD     C354278  15.613   9.769   3.242  0.2073  0.2658 -0.2680
36820DOD     C154279  21.789  28.598  19.219  0.0534  0.0992 -0.0351
36820DOD     C254280  21.497  28.628  18.916  0.0325 -0.0573  0.0690
36820DOD     C354281  21.326  29.044  18.714  0.0415  0.0130  0.1074
36821DOD     C154282  18.418  22.241  21.806  0.1076  0.2611  0.4396
36821DOD     C254283  18.389  22.001  21.360 -0.1281  0.1355  0.3234
36821DOD     C354284  18.497  22.206  20.928  0.1006  0.3323 -0.1243
36822DOD     C154285  23.982  25.407  22.275  0.2042 -0.0637  0.0623
36822DOD     C254286  23.703  25.843  22.371  0.3340  0.1390 -0.1337
36822DOD     C354287  23.356  26.159  22.541 -0.0180 -0.0348 -0.1564
36823DOD     C154288   6.549   1.203  27.717 -0.0702  0.1658 -0.1103
36823DOD     C254289   6.387   1.607  27.542 -0.2725 -0.2933  0.0539
36823DOD     C354290   6.229   1.675  27.126 -0.1136 -0.0894  0.0287
36824DOD     C154291   7.759   7.147  15.179  0.2315  0.2281  0.2004
36824DOD     C254292   7.818   7.540  14.918 -0.1043  0.0394 -0.1343
36824DOD     C354293   7.672   7.939  14.916 -0.1980 -0.0799  0.0964
36825DOD     C154294  27.919  14.124   6.043  0.1750  0.0721  0.1092
36825DOD     C254295  27.530  14.363   6.202 -0.0611  0.3073  0.1783
36825DOD     C354296  27.098  14.476   6.308 -0.2382 -0.2037 -0.2202
36826DOD     C154297  18.071  24.093  29.180 -0.0264 -0.0138  0.0387
36826DOD     C254298  17.900  23.867  29.536 -0.0544 -0.0536 -0.0377
36826DOD     C354299  17.490  23.633  29.558 -0.0411  0.1400 -0.0691
36827DOD     C154300  19.270  19.152  26.573 -0.1250  0.1935 -0.1733
36827DOD     C254301  18.820  19.193  26.574 -0.1149  0.0762 -0.0614
36827DOD     C354302  18.354  19.208  26.514  0.1896 -0.1785  0.3311
36828DOD     C154303   1.535  14.598  11.056 -0.1603  0.1849  0.1997
36828DOD     C254304   1.336  14.183  11.132  0.0729 -0.0342 -0.0190
36828DOD     C354305   1.352  13.746  10.983  0.0313  0.2283  0.2395
36829DOD     C154306   2.582  15.284  25.830  0.1475 -0.3128 -0.1546
36829DOD     C254307   2.476  15.385  25.387 -0.2742 -0.0647 -0.3118
36829DOD     C354308   2.763  15.342  24.960 -0.0409 -0.4845 -0.0155
36830DOD     C154309   2.519  27.689  12.531 -0.6958  0.1498 -0.2044
36830DOD     C254310   2.612  27.556  12.071  0.0919 -0.1092  0.2898
36830DOD     C354311   2.336  27.373  11.705 -0.1042  0.0110 -0.1168
36831DOD     C154312  28.925  20.484  23.017 -0.0038  0.0630  0.2830
36831DOD     C254313  29.344  20.656  23.215 -0.2047  0.1742  0.0275
36831DOD     C354314  29.784  20.608  23.170  0.1018 -0.2903 -0.2145
36832DOD     C154315  13.730   8.017  19.804  0.0641 -0.1262 -0.0917
36832DOD     C254316  13.761   7.888  20.275  0.0044  0.0561 -0.1095
36832DOD     C354317  13.766   8.096  20.686  0.0277 -0.4879  0.2195
36833DOD     C154318  24.359  29.448  19.567  0.1869 -0.2864 -0.1504
36833DOD     C254319  24.331  29.869  19.497 -0.0670  0.0927 -0.1579
36833DOD     C354320  24.549  30.210  19.310 -0.3110  0.2490 -0.1672
36834DOD     C154321  19.138   4.244  12.820  0.1121 -0.0911  0.0072
36834DOD     C254322  19.453   3.973  12.605  0.0708  0.0394  0.2919
36834DOD     C354323  19.518   3.656  12.252 -0.0463  0.3534 -0.1706
36835DOD     C154324  10.546  24.146  29.019  0.0173 -0.2018 -0.1673
36835DOD     C254325  10.537  23.812  29.340  0.1179 -0.2161 -0.1900
36835DOD     C354326  10.657  23.323  29.341 -0.1211 -0.1449 -0.0507
36836DOD     C154327   0.295  21.037  14.506 -0.1106 -0.0173  0.2878
36836DOD     C254328   0.046  20.878  14.123 -0.0892  0.0434  0.0103
36836DOD     C354329  30.177  21.073  13.738 -0.1334  0.2248 -0.1513
36837DOD     C154330  24.513   0.936   6.679  0.0172  0.2481 -0.0811
36837DOD     C254331  24.141   1.197   6.625 -0.0327  0.1759  0.3605
36837DOD     C354332  23.944   1.479   6.905 -0.2151 -0.0795 -0.4694
36838DOD     C154333  23.694  19.276  12.527 -0.0426  0.0272  0.1004
36838DOD     C254334  24.006  19.543  12.381 -0.4113  0.0032 -0.0467
36838DOD     C354335  24.321  19.607  12.771  0.2011  0.0555 -0.0970
36839DOD     C154336   0.818  13.649  11.680  0.1310 -0.0819 -0.2161
36839DOD     C254337   0.661  13.672  12.137 -0.0438  0.0113 -0.1406
36839DOD     C354338   0.636  14.043  12.454  0.1355 -0.0557  0.1307
36840DOD     C154339  22.069  16.634  30.086 -0.1643  0.1936  0.0153
36840DOD     C254340  21.876  16.432   0.168  0.0500 -0.1167 -0.0691
36840DOD     C354341  21.870  15.998   0.385  0.3685 -0.2553  0.1284
36841DOD     C154342   0.307  17.203  25.328 -0.1875  0.1330  0.4267
36841DOD     C254343   0.153  17.167  25.792 -0.1624 -0.2526 -0.0196
36841DOD     C354344  30.085  17.346  26.006 -0.0509 -0.0489 -0.0230
36842DOD     C154345  14.748   4.757  12.973 -0.0116 -0.1125  0.1320
36842DOD     C254346  14.999   4.472  13.237 -0.1082  0.1435 -0.2973
36842DOD     C354347  15.220   4.108  13.398 -0.3276  0.2636  0.3107
36843DOD     C154348  26.492   6.817   3.453 -0.2992  0.1019  0.0521
36843DOD     C254349  26.330   7.280   3.456  0.3785 -0.1357 -0.2748
36843DOD     C354350  26.151   7.731   3.376  0.0407  0.1534  0.0097
36844DOD     C154351  21.907   9.069   4.262 -0.0906 -0.0960  0.2314
36844DOD     C254352  22.125   8.960   3.889 -0.2079  0.1893 -0.2610
36844DOD     C354353  22.436   8.948   3.511  0.2759 -0.1772 -0.1480
36845DOD     C154354  21.831  17.816  21.592  0.2161 -0.1967  0.1824
36845DOD     C254355  21.597  17.480  21.329 -0.2409 -0.0279 -0.3950
36845DOD     C354356  21.418  17.478  20.910 -0.2099  0.2206 -0.0091
36846DOD     C154357  19.224   3.208  27.481  0.0877  0.1037 -0.0096
36846DOD     C254358  19.252   2.870  27.206  0.0387 -0.1533 -0.1796
36846DOD     C354359  19.165   2.863  26.714 -0.0550 -0.2833  0.0203
36847DOD     C154360  22.263   3.301  10.663 -0.3279 -0.1903  0.2023
36847DOD     C254361  22.055   3.341  10.243  0.0048 -0.2724  0.2479
36847DOD     C354362  21.990   3.574   9.870  0.0146 -0.1527  0.0297
36848DOD     C154363  22.827  30.156  16.771  0.0197  0.2108 -0.1724
36848DOD     C254364  22.704  30.291  16.322  0.0071 -0.1120 -0.0527
36848DOD     C354365  22.615  30.308  15.853 -0.3918 -0.0823  0.1181
36849DOD     C154366  28.281  26.570   1.800 -0.0750 -0.0655 -0.1150
36849DOD     C254367  28.130  26.217   1.559  0.2485  0.0770  0.1831
36849DOD     C354368  28.376  25.869   1.414  0.2642  0.1711 -0.1678
36850DOD     C154369  23.576   4.942  18.416  0.1226  0.2354  0.0240
36850DOD     C254370  23.284   5.185  18.175  0.1103  0.0649 -0.1262
36850DOD     C354371  23.007   5.174  17.756 -0.3525 -0.0561  0.0322
36851DOD     C154372   4.013  18.952  17.937  0.1456  0.3217  0.1298
36851DOD     C254373   3.992  19.393  18.066  0.1212 -0.1073 -0.0107
36851DOD     C354374   3.697  19.689  18.314 -0.1133  0.0298 -0.0509
36852DOD     C154375   3.776  20.495   5.233  0.2435  0.0746  0.1056
36852DOD     C254376   3.783  20.937   5.326  0.0759 -0.0528 -0.2911
36852DOD     C354377   3.636  21.336   5.570 -0.1083  0.4098  0.3404
36853DOD     C154378  20.475  26.448  26.109 -0.0055 -0.2375 -0.0302
36853DOD     C254379  20.213  26.600  25.783  0.1502  0.1851 -0.2101
36853DOD     C354380  20.079  26.876  25.359  0.0996 -0.1518 -0.1361
36854DOD     C154381  12.015  21.563   5.614 -0.1437  0.4189 -0.5492
36854DOD     C254382  12.070  21.240   5.975 -0.0440  0.1149 -0.2708
36854DOD     C354383  12.073  20.928   6.323  0.3059 -0.0372 -0.1048
36855DOD     C154384  15.468  26.443  14.383 -0.1082  0.0084  0.0794
36855DOD     C254385  15.048  26.387  14.164  0.1450 -0.0998  0.1442
36855DOD     C354386  14.975  26.417  13.678 -0.1270 -0.1402 -0.1307
36856DOD     C154387  21.324  23.603  13.204 -0.0723 -0.0369 -0.3069
36856DOD     C254388  21.191  23.202  13.372  0.3416 -0.1884  0.1593
36856DOD     C354389  21.141  22.791  13.544  0.1152  0.2271  0.0268
36857DOD     C154390  26.513  21.145  28.302 -0.1830 -0.2573  0.2143
36857DOD     C254391  26.790  20.838  28.127 -0.0540  0.1335  0.4802
36857DOD     C354392  27.223  20.591  28.199  0.1281 -0.2591 -0.0711
36858DOD     C154393  27.108  24.908  29.890  0.1512 -0.1352 -0.0378
36858DOD     C254394  27.212  25.302  30.186  0.0618 -0.2104 -0.2061
36858DOD     C354395  27.512  25.684   0.086  0.4892  0.1091  0.1115
36859DOD     C154396  23.610  12.368   5.549 -0.3005 -0.1317 -0.3310
36859DOD     C254397  23.785  12.078   5.828  0.0622  0.3463  0.0269
36859DOD     C354398  23.707  12.013   6.220 -0.0559  0.0133  0.0139
36860DOD     C154399  27.511  26.375  24.251 -0.1345  0.2047 -0.1571
36860DOD     C254400  27.199  26.677  24.366 -0.2230  0.0634 -0.0955
36860DOD     C354401  26.806  26.618  24.589  0.2227  0.0253  0.0394
36861DOD     C154402  17.113   8.513  26.357  0.0383 -0.2193  0.2019
36861DOD     C254403  17.542   8.248  26.299 -0.0946  0.0462 -0.3080
36861DOD     C354404  17.983   8.253  26.542 -0.1087 -0.0816 -0.0296
36862DOD     C154405  23.290  26.575  24.741  0.0111  0.1754 -0.3359
36862DOD     C254406  22.982  26.289  24.891  0.1123  0.1455 -0.1152
36862DOD     C354407  22.528  26.211  24.963  0.1655  0.2545  0.1199
36863DOD     C154408   2.197  14.368  21.853 -0.2246  0.0921  0.0648
36863DOD     C254409   2.465  14.039  21.746  0.0566 -0.0495  0.1312
36863DOD     C354410   2.695  13.713  22.002  0.3299  0.0855  0.1128
36864DOD     C154411  14.234   1.047  24.944  0.0148 -0.0909  0.1723
36864DOD     C254412  14.468   0.975  24.583  0.2993 -0.2856  0.1205
36864DOD     C354413  14.857   0.722  24.322 -0.2700 -0.1387  0.0945
36865DOD     C154414  28.820  26.534  20.817 -0.1544  0.1438 -0.3081
36865DOD     C254415  28.912  26.812  20.448 -0.0900 -0.1897  0.2707
36865DOD     C354416  28.850  26.922  19.985  0.0628  0.0743  0.0873
36866DOD     C154417  25.163  22.478  26.086 -0.0778  0.0065 -0.0082
36866DOD     C254418  24.754  22.742  26.105  0.0513  0.1483  0.0221
36866DOD     C354419  24.381  23.009  26.206  0.3688 -0.0465  0.2023
36867DOD     C154420  14.451   6.826  25.691 -0.1703  0.2615 -0.2383
36867DOD     C254421  14.856   6.951  25.472  0.0833 -0.0986 -0.0548
36867DOD     C354422  15.286   6.767  25.500 -0.0210 -0.2235  0.0788
36868DOD     C154423  10.888  29.738  13.247  0.0417 -0.0437  0.1862
36868DOD     C254424  11.119  29.880  12.917  0.1040  0.2418  0.2782
36868DOD     C354425  11.230  30.242  12.594  0.3169 -0.1908  0.0041
36869DOD     C154426  29.218  23.778  26.032  0.2155 -0.3536  0.0838
36869DOD     C254427  28.904  23.595  25.655 -0.0269  0.1271  0.3394
36869DOD     C354428  28.607  23.428  25.302  0.2820 -0.3438 -0.0121
36870DOD     C154429  26.686   1.660  28.186  0.3389 -0.0037 -0.0040
36870DOD     C254430  26.465   1.425  28.589  0.0658  0.0546 -0.3196
36870DOD     C354431  26.185   1.040  28.691 -0.1986  0.1490  0.1365
36871DOD     C154432  10.928   7.844  20.673  0.1482 -0.2694  0.2292
36871DOD     C254433  11.092   8.283  20.706  0.4817 -0.4381 -0.3164
36871DOD     C354434  11.282   8.576  21.082 -0.4539 -0.1819 -0.1120
36872DOD     C154435  26.760  24.518  25.186 -0.0114 -0.0080 -0.2661
36872DOD     C254436  26.788  24.740  24.765  0.0203 -0.4241  0.0007
36872DOD     C354437  26.870  24.633  24.301 -0.1662 -0.0943  0.0673
36873DOD     C154438  14.245  28.558   6.008  0.1002 -0.1508 -0.1815
36873DOD     C254439  14.579  28.357   5.792  0.0039  0.3584  0.1490
36873DOD     C354440  14.543  28.076   5.379 -0.1511 -0.1214 -0.1081
36874DOD     C154441   2.831   2.440  18.556  0.0465  0.1419 -0.3532
36874DOD     C254442   3.237   2.385  18.393  0.2876 -0.1350  0.0523
36874DOD     C354443   3.642   2.591  18.548  0.0771 -0.1925  0.3613
36875DOD     C154444  11.064   3.920  10.626 -0.1924  0.3201  0.3423
36875DOD     C254445  11.211   3.742  11.055 -0.1449  0.2038 -0.0701
36875DOD     C354446  11.377   3.769  11.462 -0.0209  0.1209 -0.0727
36876DOD     C154447  26.208  28.538  26.865 -0.1518  0.3730 -0.0748
36876DOD     C254448  25.924  28.628  26.522  0.0060 -0.1431  0.0502
36876DOD     C354449  25.750  28.600  26.071  0.0768 -0.1463  0.2132
36877DOD     C154450  18.914   7.862  25.945 -0.0546  0.0984 -0.1505
36877DOD     C254451  18.829   8.314  26.036  0.3284 -0.0434  0.1764
36877DOD     C354452  18.908   8.635  26.408 -0.1523 -0.1342  0.2229
36878DOD     C154453  23.666  13.790   7.895 -0.1912 -0.2092  0.1841
36878DOD     C254454  23.993  13.514   8.089  0.2123  0.0060 -0.4025
36878DOD     C354455  24.452  13.496   8.108  0.0318 -0.2496  0.1527
36879DOD     C154456   6.231   4.488  19.152  0.0817 -0.0620 -0.1011
36879DOD     C254457   6.000   4.090  19.156  0.1004  0.0567 -0.0432
36879DOD     C354458   5.903   3.722  19.063 -0.0743  0.0382 -0.1496
36880DOD     C154459  15.446   8.339  20.053  0.0819  0.2861 -0.1189
36880DOD     C254460  15.094   8.056  20.236  0.1263 -0.2134  0.0942
36880DOD     C354461  14.723   8.062  20.027  0.0357 -0.0822  0.2438
36881DOD     C154462  25.348  15.719   7.416 -0.0123  0.1085 -0.0542
36881DOD     C254463  25.455  15.326   7.566 -0.3794  0.1195  0.2278
36881DOD     C354464  25.783  15.066   7.774 -0.1271 -0.0715 -0.0920
36882DOD     C154465   4.492  27.344  29.519 -0.1853  0.0281  0.1186
36882DOD     C254466   4.362  27.697  29.231  0.0350  0.1093  0.1168
36882DOD     C354467   4.391  27.823  28.813 -0.0730  0.0036 -0.0482
36883DOD     C154468   9.717  21.845   2.674  0.1663  0.3068  0.0845
36883DOD     C254469   9.559  21.592   2.990  0.0655 -0.1830  0.2223
36883DOD     C354470   9.800  21.262   3.157  0.1236  0.1297  0.1091
36884DOD     C154471   4.882  10.579  10.467 -0.2582 -0.0333 -0.3075
36884DOD     C254472   5.255  10.289  10.632  0.2640  0.1202  0.1153
36884DOD     C354473   5.572  10.021  10.633 -0.2378 -0.3840 -0.2349
36885DOD     C154474   1.586  21.943  21.774  0.1072  0.0242  0.1117
36885DOD     C254475   1.323  22.271  21.566  0.2399  0.1181 -0.0597
36885DOD     C354476   1.086  22.620  21.579  0.0585 -0.0334  0.0288
36886DOD     C154477  20.971  19.454  24.177 -0.1626 -0.1991 -0.0981
36886DOD     C254478  20.670  19.434  24.507  0.1969  0.1729 -0.0785
36886DOD     C354479  20.399  19.248  24.824  0.3288 -0.0555 -0.0431
36887DOD     C154480   0.456   1.083  30.287 -0.2416  0.0030  0.1724
36887DOD     C254481   0.065   0.959  30.058 -0.0783  0.0359 -0.1963
36887DOD     C354482  29.921   0.944  30.061  0.2138 -0.1497 -0.2973
36888DOD     C154483   3.270  14.501   9.048 -0.2191  0.3196  0.2396
36888DOD     C254484   3.525  14.212   8.746 -0.2189 -0.0999  0.2580
36888DOD     C354485   3.768  14.047   8.331 -0.2098  0.2041 -0.0140
36889DOD     C154486  29.289  13.180  28.985 -0.0164 -0.0156  0.4042
36889DOD     C254487  29.057  12.808  28.933 -0.3807  0.0327  0.3627
36889DOD     C354488  29.017  12.395  29.016 -0.0439 -0.2131  0.3117
36890DOD     C154489  27.096   4.651  28.025 -0.2319  0.3381  0.0702
36890DOD     C254490  27.471   4.514  28.206 -0.0545  0.2076  0.3324
36890DOD     C354491  27.928   4.333  28.205 -0.0193 -0.0786 -0.3378
36891DOD     C154492  25.790  16.761   3.264 -0.1941 -0.0984 -0.1376
36891DOD     C254493  25.371  16.957   3.266 -0.1114  0.0575 -0.1355
36891DOD     C354494  24.893  16.947   3.317  0.1701 -0.2652  0.1803
36892DOD     C154495  27.917  23.467   3.947  0.0506 -0.0155 -0.1551
36892DOD     C254496  28.134  23.873   4.028 -0.1913  0.0568  0.1055
36892DOD     C354497  28.394  24.199   4.294 -0.0872  0.2066  0.2298
36893DOD     C154498   3.313   0.530  27.501 -0.3210 -0.0880  0.0137
36893DOD     C254499   3.595   0.507  27.879 -0.2186 -0.0639  0.4303
36893DOD     C354500   4.050   0.618  28.060 -0.2815  0.1035  0.0024
36894DOD     C154501  15.550  29.739  15.617 -0.0629  0.0900 -0.0503
36894DOD     C254502  15.468  30.169  15.821 -0.1937 -0.0156 -0.3225
36894DOD     C354503  15.095   0.104  15.970  0.0003 -0.0492 -0.1873
36895DOD     C154504   5.832   6.950   7.197  0.2819  0.0920  0.0360
36895DOD     C254505   5.802   7.024   6.839 -0.0172 -0.0906  0.2250
36895DOD     C354506   5.886   7.268   6.501 -0.5011  0.1076 -0.1033
36896DOD     C154507  10.071  11.109   5.106  0.0156  0.0261 -0.1937
36896DOD     C254508  10.009  11.497   4.978 -0.1732  0.2048 -0.1183
36896DOD     C354509   9.887  11.955   5.117  0.3419 -0.1259 -0.0350
36897DOD     C154510  17.523  16.015   9.504  0.0680 -0.1140 -0.3681
36897DOD     C254511  17.812  15.899   9.830 -0.2582 -0.2038  0.0536
36897DOD     C354512  18.093  16.027  10.154  0.0801  0.2324 -0.3176
36898DOD     C154513  30.236  28.691   3.366  0.0318 -0.0370 -0.0512
36898DOD     C254514  30.060  28.720   2.949 -0.0877  0.0711  0.1834
36898DOD     C354515  29.662  28.578   2.758 -0.3105  0.0788  0.0537
36899DOD     C154516  10.168  22.285  12.067  0.2153  0.0958 -0.2288
36899DOD     C254517   9.966  22.722  12.144  0.2923 -0.3110 -0.3173
36899DOD     C354518   9.841  23.172  12.107  0.1446  0.0319 -0.0213
36900DOD     C154519   3.153   6.720  29.541 -0.0398  0.1467 -0.0252
36900DOD     C254520   3.331   6.451  29.183 -0.2527  0.0341  0.3904
36900DOD     C354521   3.808   6.485  29.063  0.1147  0.0874  0.0427
36901DOD     C154522  26.457  15.061   0.600  0.2396  0.1642  0.2655
36901DOD     C254523  26.411  14.655   0.371  0.3555 -0.0012 -0.0034
36901DOD     C354524  26.376  14.246   0.131 -0.1874 -0.2178  0.0009
36902DOD     C154525  20.358  17.030   8.757 -0.2069 -0.1415  0.0736
36902DOD     C254526  20.583  16.631   8.694  0.0989  0.0710 -0.0544
36902DOD     C354527  20.831  16.271   8.939  0.2145 -0.0795  0.1393
36903DOD     C154528   0.955  11.305  12.633 -0.3771 -0.1540  0.1858
36903DOD     C254529   0.950  11.112  12.217 -0.1308  0.1649 -0.1092
36903DOD     C354530   0.803  10.712  12.084 -0.0074  0.0078  0.0150
36904DOD     C154531   5.459  24.459  22.225  0.2407  0.3613  0.3131
36904DOD     C254532   5.634  24.059  22.213  0.0778 -0.1454  0.3263
36904DOD     C354533   5.869  23.709  22.279 -0.1494  0.1489 -0.2055
36905DOD     C154534  14.701  11.168  21.979 -0.0987  0.1878 -0.0060
36905DOD     C254535  14.806  10.860  22.350 -0.1705 -0.0688  0.0044
36905DOD     C354536  15.199  10.650  22.511  0.0832  0.0969 -0.0744
36906DOD     C154537  30.276   4.832  15.003  0.1384 -0.1727 -0.4695
36906DOD     C254538   0.369   4.858  15.169  0.0274  0.2848  0.1220
36906DOD     C354539   0.637   5.257  15.245 -0.0565 -0.1404  0.0253
36907DOD     C154540  12.409  18.789   2.462 -0.3342  0.3150  0.0900
36907DOD     C254541  12.229  18.990   2.781  0.0570 -0.1473 -0.2497
36907DOD     C354542  11.819  19.034   3.047 -0.1779 -0.4018 -0.2054
36908DOD     C154543   5.124   9.989  22.433  0.2214  0.4297 -0.0042
36908DOD     C254544   4.897  10.447  22.374 -0.0863  0.0465  0.3791
36908DOD     C354545   4.970  10.716  22.028  0.1933 -0.0175 -0.0707
36909DOD     C154546   9.377  26.100  21.939 -0.0995  0.2428  0.1795
36909DOD     C254547   9.598  26.234  22.342 -0.0938 -0.0268 -0.3913
36909DOD     C354548   9.664  26.620  22.619 -0.0180 -0.1104 -0.1655
36910DOD     C154549  23.427  10.319   7.715 -0.0763 -0.1169  0.2715
36910DOD     C254550  23.752  10.196   7.449 -0.2092  0.0300 -0.1912
36910DOD     C354551  24.184  10.042   7.569 -0.0774  0.3995 -0.1031
36911DOD     C154552   3.456  17.774   8.625 -0.3669 -0.1642 -0.0677
36911DOD     C254553   3.821  17.542   8.826  0.2814 -0.0168  0.2361
36911DOD     C354554   3.785  17.277   9.214  0.0367  0.0191 -0.0951
36912DOD     C154555  20.604   4.765   5.296  0.1048 -0.1379  0.0595
36912DOD     C254556  20.160   4.615   5.112 -0.1263 -0.0385 -0.1433
36912DOD     C354557  19.786   4.562   4.851 -0.0937 -0.0206  0.2317
36913DOD     C154558  26.484  25.465  17.412 -0.0942  0.3288  0.0528
36913DOD     C254559  26.860  25.451  17.162  0.2539 -0.0077 -0.0227
36913DOD     C354560  27.047  25.519  16.706  0.0972  0.0038 -0.3926
36914DOD     C154561  16.494  22.468  21.108 -0.3449 -0.3383  0.1646
36914DOD     C254562  16.702  22.065  21.343 -0.1517 -0.0022  0.2490
36914DOD     C354563  16.626  21.675  21.671  0.1195  0.1868 -0.0134
36915DOD     C154564  21.401  16.104  16.304  0.1597  0.1896  0.3213
36915DOD     C254565  21.446  15.687  16.051 -0.0259 -0.0018  0.1169
36915DOD     C354566  21.507  15.234  15.885  0.2111  0.4164  0.3498
36916DOD     C154567  12.318   9.764  12.323  0.2310  0.1693  0.0460
36916DOD     C254568  12.789   9.604  12.387  0.2733 -0.3567 -0.1691
36916DOD     C354569  13.177   9.548  12.495 -0.0053  0.0005 -0.1626
36917DOD     C154570   4.265  10.013  30.208 -0.2533 -0.0480  0.0345
36917DOD     C254571   3.861  10.106  29.989  0.1799  0.0618  0.1545
36917DOD     C354572   3.944  10.323  29.598  0.1080  0.0643 -0.1803
36918DOD     C154573  11.886  16.202   9.025 -0.2194  0.2206  0.0781
36918DOD     C254574  11.545  16.137   9.289  0.0438  0.0893 -0.1473
36918DOD     C354575  11.326  15.739   9.471  0.3932 -0.3784 -0.1560
36919DOD     C154576   1.051  25.896  23.264  0.0675 -0.0196  0.0769
36919DOD     C254577   0.931  25.457  23.256  0.0105 -0.0003  0.1342
36919DOD     C354578   0.715  25.035  23.248 -0.0475  0.1482  0.1151
36920DOD     C154579   7.456  11.180   4.077  0.2273 -0.2381  0.0852
36920DOD     C254580   7.399  11.491   3.733  0.0091  0.0177 -0.2026
36920DOD     C354581   7.427  11.720   3.356  0.0368 -0.2392  0.0175
36921DOD     C154582  14.499  19.347  29.050 -0.1067 -0.0376  0.2310
36921DOD     C254583  14.191  18.940  29.133 -0.0763 -0.1191 -0.0191
36921DOD     C354584  14.152  18.473  29.034  0.0929 -0.2912 -0.1413
36922DOD     C154585   8.293   8.036  13.472  0.1502 -0.3990 -0.0814
36922DOD     C254586   8.389   8.320  13.100 -0.3993 -0.2097 -0.2224
36922DOD     C354587   8.460   8.199  12.615 -0.0417 -0.0253  0.1187
36923DOD     C154588  18.488  25.554   2.170 -0.2585  0.0930 -0.0917
36923DOD     C254589  18.056  25.536   2.278  0.0258 -0.0894 -0.1536
36923DOD     C354590  17.853  25.330   2.660  0.0521 -0.2631  0.0930
36924DOD     C154591  20.115  27.435  22.480 -0.2854 -0.1344  0.0810
36924DOD     C254592  20.509  27.726  22.592  0.1389 -0.0353  0.0725
36924DOD     C354593  20.593  27.782  23.068 -0.0415  0.1665 -0.1733
36925DOD     C154594   0.220  30.042  24.284  0.0234  0.0064  0.1251
36925DOD     C254595   0.661  -0.031  24.252  0.2092 -0.2791  0.0240
36925DOD     C354596   1.038   0.277  24.277 -0.2174 -0.1428  0.1831
36926DOD     C154597  13.966   3.161   5.108 -0.1145  0.1796  0.1511
36926DOD     C254598  14.130   3.490   4.780 -0.0373 -0.2298 -0.1075
36926DOD     C354599  14.109   3.937   4.851 -0.0719 -0.1224 -0.0641
36927DOD     C154600   5.182  21.640   2.283  0.1489  0.2637  0.0068
36927DOD     C254601   5.541  21.821   2.049  0.0267  0.0651  0.3593
36927DOD     C354602   5.634  22.232   1.838  0.0631 -0.1461  0.3559
36928DOD     C154603   9.233  20.325  18.594 -0.0405  0.1105 -0.1972
36928DOD     C254604   9.362  19.916  18.849  0.1154  0.0840  0.0086
36928DOD     C354605   9.621  19.679  19.193 -0.2476  0.1374 -0.1501
36929DOD     C154606   8.663   6.954  27.706 -0.3069 -0.0575  0.0984
36929DOD     C254607   8.285   6.970  27.488  0.1547  0.1832 -0.0122
36929DOD     C354608   8.067   7.342  27.443 -0.0763 -0.0084 -0.2748
36930DOD     C154609  11.607  20.903   4.959  0.2224 -0.0536  0.1833
36930DOD     C254610  11.754  20.941   4.470 -0.3445  0.1264  0.1922
36930DOD     C354611  11.913  20.640   4.133  0.0159 -0.0777 -0.2317
36931DOD     C154612   6.326   8.957  16.603 -0.0350  0.1105 -0.1467
36931DOD     C254613   6.629   9.265  16.774 -0.1827  0.4093 -0.0942
36931DOD     C354614   6.697   9.681  16.996 -0.0543 -0.1492 -0.2575
36932DOD     C154615  20.559  14.842  16.594  0.2036 -0.6020  0.5925
36932DOD     C254616  20.293  14.685  16.911  0.0060 -0.0737 -0.3434
36932DOD     C354617  20.343  14.248  17.177 -0.1496  0.1834 -0.0620
36933DOD     C154618   8.097  20.236   6.605  0.3356  0.0125  0.0517
36933DOD     C254619   7.698  20.433   6.715 -0.3608 -0.1572 -0.2920
36933DOD     C354620   7.341  20.687   6.855  0.0630 -0.0206 -0.0007
36934DOD     C154621   2.237  13.240   4.107 -0.0566 -0.0653 -0.0983
36934DOD     C254622   1.819  13.526   4.174 -0.2567 -0.1066 -0.0508
36934DOD     C354623   1.368  13.514   3.938  0.2198  0.2177  0.1099
36935DOD     C154624  10.897   9.116  24.553  0.1745 -0.3560  0.3291
36935DOD     C254625  10.787   8.709  24.424 -0.1690  0.4281 -0.0787
36935DOD     C354626  10.752   8.214  24.578  0.1937  0.0322 -0.0807
36936DOD     C154627  16.194  22.090   9.647  0.3777 -0.2920  0.0520
36936DOD     C254628  16.391  21.663   9.780 -0.1774  0.1478  0.2331
36936DOD     C354629  16.682  21.273   9.829  0.1965 -0.1112  0.0368
36937DOD     C154630  14.135  14.283  24.434 -0.0235  0.2129  0.2430
36937DOD     C254631  14.319  14.027  24.772 -0.0312  0.0598 -0.3083
36937DOD     C354632  14.113  13.704  25.083 -0.2432 -0.1107 -0.0131
36938DOD     C154633  10.600  21.670  18.612  0.0228  0.3051 -0.1166
36938DOD     C254634  10.380  21.381  18.963 -0.0889 -0.2912  0.0596
36938DOD     C354635   9.955  21.167  19.039  0.1392 -0.1880  0.1688
36939DOD     C154636  13.235  12.374  26.899  0.1188 -0.0313 -0.2485
36939DOD     C254637  13.345  11.963  26.836 -0.2343  0.0601  0.0956
36939DOD     C354638  13.559  11.610  26.619  0.2649  0.0660 -0.0400
36940DOD     C154639   6.292   3.196  19.098 -0.0060  0.0288 -0.3249
36940DOD     C254640   5.775   3.246  18.987 -0.2238  0.1581 -0.0018
36940DOD     C354641   5.372   3.043  18.981 -0.0120  0.6936 -0.2110
36941DOD     C154642  19.908  21.061  28.053 -0.0181  0.1020  0.3084
36941DOD     C254643  19.800  20.764  28.365 -0.0522  0.3066 -0.0393
36941DOD     C354644  19.964  20.529  28.709  0.4054  0.0046 -0.5059
36942DOD     C154645  21.206  29.918   8.586 -0.1815 -0.2371 -0.2444
36942DOD     C254646  20.970  29.546   8.644 -0.0165  0.2503  0.2884
36942DOD     C354647  20.764  29.135   8.662 -0.0918 -0.1734 -0.5208
36943DOD     C154648  21.519   9.845   7.862 -0.0580  0.1392 -0.4943
36943DOD     C254649  21.297   9.640   7.501 -0.0361  0.0488 -0.2418
36943DOD     C354650  21.329   9.201   7.410 -0.1383 -0.2654 -0.1814
36944DOD     C154651  21.701  14.411  25.367 -0.1709 -0.0809 -0.1567
36944DOD     C254652  21.466  14.016  25.463  0.2372 -0.0443 -0.0898
36944DOD     C354653  21.526  13.513  25.424  0.0477  0.1135  0.2061
36945DOD     C154654   6.222  21.550   1.104 -0.1594  0.0616 -0.0471
36945DOD     C254655   6.298  21.715   0.644 -0.2446  0.0902 -0.1091
36945DOD     C354656   6.250  21.815   0.218  0.0454  0.0454  0.4207
36946DOD     C154657  20.203  21.365   8.620  0.0018  0.0503  0.1277
36946DOD     C254658  19.989  21.666   8.821  0.0561 -0.2588 -0.1015
36946DOD     C354659  19.736  22.075   8.879 -0.1993 -0.3391 -0.0543
36947DOD     C154660  25.810  23.172   4.500  0.0781  0.0194  0.0440
36947DOD     C254661  25.491  23.202   4.209  0.0772 -0.1604  0.0022
36947DOD     C354662  25.259  22.963   3.866 -0.1664  0.0208 -0.0824
36948DOD     C154663  21.224  24.275  23.976 -0.0136  0.1044  0.2127
36948DOD     C254664  21.244  24.068  24.410  0.0313  0.0338  0.0993
36948DOD     C354665  21.262  23.747  24.762  0.1890  0.0993  0.2407
36949DOD     C154666  16.553   8.898  29.799 -0.0221 -0.0809 -0.2049
36949DOD     C254667  16.887   9.186  29.737 -0.1104 -0.3006  0.0873
36949DOD     C354668  17.344   9.258  29.673  0.0349 -0.0168  0.2401
36950DOD     C154669  13.526   2.939   4.276  0.2493  0.0295  0.2410
36950DOD     C254670  13.382   3.251   3.960 -0.0734 -0.0261  0.3229
36950DOD     C354671  13.177   3.669   3.701 -0.1122  0.0310 -0.0288
36951DOD     C154672  12.083  24.995  23.279 -0.1000  0.1066 -0.2507
36951DOD     C254673  12.084  25.363  23.547  0.0168  0.2053 -0.1797
36951DOD     C354674  12.422  25.599  23.719 -0.0126  0.2795 -0.0926
36952DOD     C154675  21.632  25.818  14.937 -0.0858 -0.1878  0.0376
36952DOD     C254676  21.523  25.982  14.510  0.0266 -0.0941 -0.0421
36952DOD     C354677  21.320  26.139  14.145 -0.1138 -0.0894 -0.0202
36953DOD     C154678  14.689  10.437   4.229  0.2594  0.0275  0.0555
36953DOD     C254679  14.522  10.147   4.508 -0.2718  0.0874  0.1148
36953DOD     C354680  14.469  10.038   4.922 -0.1585  0.1448 -0.2125
36954DOD     C154681  30.052   0.162  20.998 -0.0798 -0.3772 -0.0822
36954DOD     C254682  30.144   0.559  20.720  0.0597  0.1721 -0.2596
36954DOD     C354683  29.798   0.854  20.611  0.2582 -0.0130  0.0659
36955DOD     C154684   1.510  29.643  10.508 -0.3889  0.1506 -0.1675
36955DOD     C254685   1.843  29.667  10.184  0.1321 -0.0037 -0.1999
36955DOD     C354686   1.715  29.606   9.726 -0.3175 -0.0008 -0.0041
36956DOD     C154687  21.849  21.724  22.916 -0.0721  0.3194  0.3806
36956DOD     C254688  22.208  21.940  22.771  0.1060 -0.1975 -0.1526
36956DOD     C354689  22.321  22.204  22.478 -0.0967  0.2126 -0.0337
36957DOD     C154690  22.941   6.553  14.918  0.0936 -0.1859 -0.0455
36957DOD     C254691  22.565   6.629  14.580 -0.1714 -0.2766  0.1560
36957DOD     C354692  22.111   6.699  14.450 -0.1426  0.0844  0.0098
36958DOD     C154693  11.838  25.893   9.414  0.0190  0.1148 -0.1697
36958DOD     C254694  11.475  26.283   9.329 -0.1671 -0.0320 -0.2451
36958DOD     C354695  11.389  26.740   9.265 -0.2872  0.0495  0.0140
36959DOD     C154696  29.876  15.552   0.766  0.3326  0.0332 -0.2504
36959DOD     C254697  30.013  15.913   0.465 -0.2782  0.0116 -0.3170
36959DOD     C354698  29.980  16.274   0.128 -0.2952 -0.0564 -0.3127
36960DOD     C154699   9.798  14.948  14.223  0.2431 -0.2151  0.2324
36960DOD     C254700   9.770  15.401  14.459  0.0485  0.0489  0.2315
36960DOD     C354701   9.650  15.837  14.672 -0.0661 -0.3892  0.1671
36961DOD     C154702   5.499   4.630  25.438 -0.0479 -0.1364 -0.3441
36961DOD     C254703   5.988   4.622  25.344 -0.1042  0.3479 -0.0639
36961DOD     C354704   6.343   4.933  25.499  0.3326 -0.0287 -0.0043
36962DOD     C154705  29.353  17.079   5.899  0.0333  0.2879 -0.0641
36962DOD     C254706  29.714  17.312   5.819  0.0934 -0.2356 -0.0940
36962DOD     C354707  29.986  17.620   6.068  0.2517 -0.1219  0.0109
36963DOD     C154708  28.344   6.622   6.883  0.0066  0.2347  0.1953
36963DOD     C254709  28.305   6.475   7.305 -0.0513  0.0919 -0.1310
36963DOD     C354710  28.040   6.374   7.729  0.2513  0.1761  0.0227
36964DOD     C154711  26.934   8.610  13.390 -0.1081 -0.0820 -0.0449
36964DOD     C254712  27.196   9.043  13.346  0.0051  0.1429  0.2410
36964DOD     C354713  27.537   9.343  13.328  0.2237 -0.1812  0.0183
36965DOD     C154714  23.756  15.413  13.852 -0.2091  0.1251 -0.1995
36965DOD     C254715  23.653  15.246  13.402 -0.1766 -0.0818  0.0027
36965DOD     C354716  23.383  15.092  13.022 -0.1132 -0.2402 -0.1951
36966DOD     C154717   8.195  21.733  28.948 -0.2116  0.0064 -0.1962
36966DOD     C254718   8.351  21.920  29.350  0.3057  0.1476  0.0185
36966DOD     C354719   8.544  22.352  29.522  0.1510 -0.0195 -0.1479
36967DOD     C154720  15.707  22.320  28.796  0.3637  0.0779 -0.2049
36967DOD     C254721  16.159  22.267  28.788  0.2594  0.4358  0.3567
36967DOD     C354722  16.216  21.766  28.698 -0.1607  0.3443 -0.0665
36968DOD     C154723  21.726   4.023   9.643  0.1224  0.0878  0.0860
36968DOD     C254724  22.073   4.324   9.691  0.2013 -0.2403  0.0575
36968DOD     C354725  22.171   4.774   9.839 -0.1399 -0.1839  0.1444
36969DOD     C154726   5.203  18.576   5.622 -0.0495  0.2150  0.0430
36969DOD     C254727   5.517  18.418   5.916 -0.1332  0.1689  0.0728
36969DOD     C354728   5.924  18.403   6.128  0.1845 -0.0168  0.1368
36970DOD     C154729   5.763  20.881   1.718  0.2451 -0.1807 -0.2498
36970DOD     C254730   5.369  20.793   1.801 -0.1846 -0.0597  0.2027
36970DOD     C354731   4.997  20.798   2.088 -0.0254 -0.2637 -0.0076
36971DOD     C154732  22.722  29.446  23.325  0.0170  0.1867 -0.1231
36971DOD     C254733  22.793  29.547  23.804 -0.2960  0.0667  0.0543
36971DOD     C354734  22.674  29.558  24.197  0.2121  0.0913 -0.0101
36972DOD     C154735  26.456  28.265   2.783 -0.0923 -0.0787  0.0484
36972DOD     C254736  26.900  28.435   2.894 -0.0844 -0.2300  0.4364
36972DOD     C354737  27.206  28.745   2.903 -0.1372  0.2622  0.2064
36973DOD     C154738   1.882  11.696  24.807 -0.0447  0.2402  0.0426
36973DOD     C254739   2.356  11.608  25.020 -0.0231  0.2071  0.0334
36973DOD     C354740   2.715  11.660  25.307  0.1398 -0.2199  0.2532
36974DOD     C154741   8.486  15.574   4.739 -0.0202 -0.0624 -0.2118
36974DOD     C254742   8.322  15.934   5.004  0.1821 -0.0721  0.1147
36974DOD     C354743   8.367  16.372   5.076  0.2312  0.0375  0.0066
36975DOD     C154744   6.899   4.521  11.965  0.1711  0.1516 -0.3999
36975DOD     C254745   7.098   4.804  11.633 -0.1768 -0.2216  0.2082
36975DOD     C354746   7.428   4.829  11.290 -0.0023 -0.1532 -0.0426
36976DOD     C154747  11.641   7.964   8.909  0.1698 -0.1846 -0.2752
36976DOD     C254748  12.039   8.014   9.086 -0.0788  0.1540 -0.0262
36976DOD     C354749  12.489   8.011   9.195 -0.2358  0.2065 -0.1191
36977DOD     C154750   3.412   3.479  27.501 -0.3488  0.0449  0.1128
36977DOD     C254751   3.572   3.822  27.256 -0.1208 -0.1438  0.0716
36977DOD     C354752   3.330   4.206  27.070 -0.0006  0.0225  0.2196
36978DOD     C154753  11.904  25.283  10.246  0.1638  0.2642 -0.0644
36978DOD     C254754  11.581  25.406  10.518  0.0679  0.5416 -0.1395
36978DOD     C354755  11.227  25.435  10.846 -0.0140 -0.1381 -0.1719
36979DOD     C154756  28.843   1.721  15.117  0.2721 -0.4071 -0.0112
36979DOD     C254757  28.490   1.642  15.444 -0.2026  0.0261  0.0046
36979DOD     C354758  28.131   1.508  15.673 -0.0654 -0.0287  0.1011
36980DOD     C154759  19.415  27.352   8.003 -0.1191 -0.1736 -0.2747
36980DOD     C254760  19.492  26.980   8.246  0.0826  0.0912 -0.1464
36980DOD     C354761  19.246  26.747   8.543  0.1052 -0.0200  0.1157
36981DOD     C154762  29.172  20.976   8.813  0.1658  0.0602  0.1049
36981DOD     C254763  29.185  21.310   8.469 -0.1658 -0.0595  0.2105
36981DOD     C354764  29.138  21.626   8.127  0.1203  0.1138 -0.0278
36982DOD     C154765   2.451   4.349   5.213  0.0474 -0.2547  0.1548
36982DOD     C254766   2.942   4.362   5.122  0.0999  0.0807  0.0703
36982DOD     C354767   3.365   4.312   5.343 -0.0853 -0.0053 -0.0212
36983DOD     C154768  12.073  26.991   3.802  0.2317  0.1584  0.2269
36983DOD     C254769  11.775  26.987   4.177 -0.1434 -0.1670 -0.2428
36983DOD     C354770  11.634  27.127   4.579 -0.3921 -0.0273  0.1631
36984DOD     C154771  29.310   8.143  22.037  0.2716 -0.3547  0.1995
36984DOD     C254772  29.576   8.108  21.640  0.1751  0.2557  0.2553
36984DOD     C354773  29.987   8.028  21.329 -0.1305 -0.0361  0.1436
36985DOD     C154774   2.524  25.916  13.280  0.2110 -0.2532 -0.2031
36985DOD     C254775   2.839  25.806  13.631  0.0688 -0.0126  0.0282
36985DOD     C354776   2.752  25.720  14.134 -0.1927 -0.0830 -0.0336
36986DOD     C154777  10.472   4.193  13.082  0.1237 -0.1149 -0.2510
36986DOD     C254778  10.605   4.065  12.659 -0.1612 -0.3614 -0.2203
36986DOD     C354779  10.831   3.859  12.298 -0.0493  0.1425  0.0958
36987DOD     C154780  25.784  13.205  23.061  0.5876 -0.0890 -0.0508
36987DOD     C254781  25.997  13.391  23.447 -0.0610 -0.0337  0.1060
36987DOD     C354782  26.039  13.850  23.616  0.1834  0.0667  0.1609
36988DOD     C154783   1.251  17.888  15.460  0.1633 -0.1055  0.2464
36988DOD     C254784   1.553  18.281  15.433 -0.3218  0.3072  0.0155
36988DOD     C354785   1.970  18.532  15.409  0.0130 -0.0599 -0.0241
36989DOD     C154786   5.172  24.736  26.505 -0.1502 -0.1083 -0.0424
36989DOD     C254787   5.398  24.560  26.854 -0.1520  0.1406  0.0316
36989DOD     C354788   5.648  24.343  27.224  0.0978 -0.3077  0.2623
36990DOD     C154789   4.500   6.824   8.407  0.1535  0.1559  0.2605
36990DOD     C254790   4.850   6.745   8.678 -0.0104  0.2469 -0.0481
36990DOD     C354791   4.842   6.674   9.159  0.2003  0.0554  0.0924
36991DOD     C154792  16.297   6.405  24.231  0.1388 -0.0287  0.0442
36991DOD     C254793  16.558   6.004  24.038 -0.0364 -0.0081 -0.2617
36991DOD     C354794  16.623   5.715  23.650  0.1319  0.0894  0.2865
36992DOD     C154795  24.381  25.599  19.798  0.0140  0.0082 -0.0379
36992DOD     C254796  24.271  25.966  19.532 -0.0276  0.3112  0.3163
36992DOD     C354797  24.062  25.978  19.125  0.1784 -0.0838 -0.1533
36993DOD     C154798   2.344  29.871   5.269 -0.1324  0.0821  0.1714
36993DOD     C254799   2.243  30.046   5.690  0.0874  0.0003  0.3121
36993DOD     C354800   2.434  30.116   6.090  0.2159 -0.1977  0.1586
36994DOD     C154801  20.369  14.899  20.017 -0.0527  0.2933  0.1813
36994DOD     C254802  20.653  15.158  19.745  0.3040 -0.1610 -0.0091
36994DOD     C354803  21.068  15.379  19.847  0.1380  0.3053 -0.2842
36995DOD     C154804   1.656  16.915  29.551 -0.0138  0.2605  0.0384
36995DOD     C254805   1.223  16.843  29.408  0.0652  0.1150 -0.2600
36995DOD     C354806   0.801  16.928  29.219  0.0905 -0.0261 -0.1296
36996DOD     C154807  18.890  23.644  25.803 -0.0526  0.0598 -0.0166
36996DOD     C254808  18.891  24.058  25.601 -0.1884 -0.0073  0.0570
36996DOD     C354809  18.978  24.460  25.298  0.0724  0.3805  0.3202
36997DOD     C154810  11.741  17.672  20.626  0.1147 -0.1268 -0.2836
36997DOD     C254811  11.948  18.077  20.485 -0.0842 -0.0078  0.0531
36997DOD     C354812  12.007  18.433  20.213  0.0974 -0.0737  0.1606
36998DOD     C154813  16.679  17.799  14.151  0.1894 -0.2569 -0.0370
36998DOD     C254814  16.323  17.472  14.192  0.1400 -0.0001  0.2768
36998DOD     C354815  16.131  17.096  14.078 -0.0238 -0.2565  0.1550
36999DOD     C154816   9.943   7.941  17.439  0.5755  0.2299 -0.2205
36999DOD     C254817   9.567   7.873  17.777 -0.0520 -0.1143  0.2078
36999DOD     C354818   9.550   7.515  18.084 -0.3206  0.1675 -0.1740
37000DOD     C154819  19.288  12.182  28.607  0.1887 -0.0410 -0.4517
37000DOD     C254820  19.571  12.245  28.949  0.2041  0.1946  0.1305
37000DOD     C354821  19.668  12.170  29.399  0.0751 -0.1078 -0.1621
37001DOD     C154822  23.581  21.251   4.086 -0.0625 -0.3923  0.0103
37001DOD     C254823  23.948  21.511   3.851  0.0619 -0.2619  0.3728
37001DOD     C354824  24.336  21.566   3.893 -0.0332 -0.1570  0.0317
37002DOD     C154825  15.910  26.879  11.492 -0.0283  0.0306 -0.1794
37002DOD     C254826  16.294  26.585  11.437  0.3669  0.1301 -0.3435
37002DOD     C354827  16.525  26.214  11.290 -0.2169  0.0957 -0.2551
37003DOD     C154828  20.626  27.237   9.979  0.0695  0.2172 -0.1311
37003DOD     C254829  20.852  26.928   9.700  0.3166 -0.0797  0.0830
37003DOD     C354830  20.855  26.618   9.349 -0.1483 -0.0783 -0.1376
37004DOD     C154831   0.282  13.255  29.452  0.1684 -0.0968  0.0091
37004DOD     C254832   0.338  13.712  29.535 -0.0770  0.0177 -0.0013
37004DOD     C354833   0.254  14.070  29.807 -0.1138  0.2814  0.0827
37005DOD     C154834  22.241  23.717   3.262 -0.0651  0.2269 -0.1671
37005DOD     C254835  21.883  23.998   3.443 -0.2237 -0.3473  0.2697
37005DOD     C354836  21.589  24.342   3.530 -0.0007 -0.0857 -0.0509
37006DOD     C154837   1.651  27.643  14.083  0.2057  0.2153 -0.1213
37006DOD     C254838   2.063  27.360  14.151  0.1811  0.1097  0.3136
37006DOD     C354839   2.091  26.894  14.105 -0.1292  0.0755  0.1639
37007DOD     C154840   9.326  16.053  20.948  0.1648 -0.2602 -0.2862
37007DOD     C254841   9.400  16.161  21.449  0.0134  0.2036 -0.0456
37007DOD     C354842   9.567  16.047  21.917 -0.0112  0.0828  0.2542
37008DOD     C154843  24.236   6.569  12.879  0.0391  0.0874  0.2078
37008DOD     C254844  23.851   6.241  12.817 -0.1388  0.0923 -0.1662
37008DOD     C354845  23.490   6.149  13.121  0.1547 -0.1937  0.0265
37009DOD     C154846  24.277  17.206   1.266  0.0856  0.2098  0.1507
37009DOD     C254847  24.069  17.190   0.867  0.1320 -0.0882  0.1174
37009DOD     C354848  23.686  17.071   0.615 -0.2191 -0.2127 -0.1533
37010DOD     C154849   7.739  10.612  18.338  0.1034 -0.0240 -0.2138
37010DOD     C254850   7.732  10.376  18.783 -0.0323 -0.0479  0.4190
37010DOD     C354851   7.973  10.147  19.122  0.0998 -0.0301 -0.0142
37011DOD     C154852  29.827  20.563  12.893 -0.1808 -0.1561  0.0169
37011DOD     C254853  29.441  20.326  12.995  0.0213 -0.1658  0.1316
37011DOD     C354854  28.972  20.271  13.036 -0.2256  0.1417 -0.0533
37012DOD     C154855   7.887  15.267   1.844 -0.1327 -0.2980  0.0409
37012DOD     C254856   7.869  14.872   1.729  0.0383  0.2095  0.0136
37012DOD     C354857   7.914  14.478   1.423 -0.0095 -0.0894  0.2577
37013DOD     C154858   0.849  28.758  21.218  0.0677  0.3083 -0.1330
37013DOD     C254859   1.285  29.030  21.169 -0.0516 -0.1052  0.0889
37013DOD     C354860   1.488  29.429  21.014  0.1486  0.2443 -0.1147
37014DOD     C154861   7.303   2.696  26.331  0.0436  0.1077  0.4734
37014DOD     C254862   7.106   2.336  26.193 -0.1910  0.0292 -0.0964
37014DOD     C354863   6.864   2.080  25.951  0.5648  0.0405 -0.1574
37015DOD     C154864  25.932   4.489  17.553 -0.0220 -0.1976 -0.1346
37015DOD     C254865  25.786   4.206  17.930  0.0425  0.1307  0.0371
37015DOD     C354866  25.649   4.204  18.354  0.3283 -0.1503 -0.2698
37016DOD     C154867   3.923  23.477   9.252  0.3621  0.0117 -0.3186
37016DOD     C254868   4.069  23.879   9.227  0.1362 -0.2600  0.2286
37016DOD     C354869   4.474  24.113   9.120  0.5034 -0.1632 -0.3399
37017DOD     C154870  15.959   8.691  16.451 -0.0946 -0.0970 -0.1941
37017DOD     C254871  16.315   8.465  16.596 -0.3106 -0.3187 -0.2173
37017DOD     C354872  16.505   8.246  16.901  0.1175 -0.1981 -0.0016
37018DOD     C154873   5.979   1.056   5.964  0.1209 -0.1116 -0.2626
37018DOD     C254874   6.112   1.318   6.358 -0.0995  0.0764 -0.5338
37018DOD     C354875   6.200   1.440   6.803 -0.1509 -0.4351 -0.1342
37019DOD     C154876  21.284  17.966  11.253  0.1758  0.1481  0.2736
37019DOD     C254877  21.354  17.719  10.843 -0.0636 -0.2944 -0.1165
37019DOD     C354878  21.199  17.738  10.394 -0.1480 -0.1704  0.0977
37020DOD     C154879  13.657   9.893  28.869  0.0845  0.0634  0.0533
37020DOD     C254880  13.762   9.490  29.123  0.0355 -0.1890  0.0245
37020DOD     C354881  13.957   9.178  29.372 -0.2151  0.1594  0.0828
37021DOD     C154882   5.613   5.646  20.814 -0.0112 -0.1507  0.2509
37021DOD     C254883   5.625   5.338  20.471  0.0339  0.0765  0.2064
37021DOD     C354884   5.912   5.053  20.229  0.0745  0.0576  0.1877
37022DOD     C154885  25.351  18.222  24.151  0.0734  0.1366  0.0713
37022DOD     C254886  25.688  17.875  24.197  0.1304 -0.1873 -0.2928
37022DOD     C354887  26.045  17.567  24.118 -0.0110  0.1437  0.1936
37023DOD     C154888   4.691   9.988   3.085  0.0594  0.3254 -0.2476
37023DOD     C254889   4.633   9.736   2.707  0.1627 -0.1377  0.1021
37023DOD     C354890   4.481   9.419   2.343 -0.0348  0.0775 -0.1425
37024DOD     C154891  20.441  26.027   8.152 -0.1480  0.0995  0.3083
37024DOD     C254892  20.057  26.194   8.083  0.0844  0.0107 -0.1032
37024DOD     C354893  19.818  26.568   8.030 -0.3766 -0.1574 -0.2279
37025DOD     C154894  23.158  28.277  12.699 -0.1192 -0.0930  0.1020
37025DOD     C254895  23.326  27.965  13.001 -0.2176  0.0787  0.2605
37025DOD     C354896  23.148  27.544  13.164  0.0341  0.0848  0.2039
37026DOD     C154897  13.911  14.740   7.976 -0.0089 -0.1328 -0.0237
37026DOD     C254898  14.046  15.010   7.641 -0.2170  0.0453  0.2128
37026DOD     C354899  14.419  15.270   7.571 -0.0865 -0.1827 -0.4167
37027DOD     C154900  23.336  14.923  26.279  0.2294  0.0089 -0.1107
37027DOD     C254901  23.668  14.642  26.030  0.1329  0.0302  0.0036
37027DOD     C354902  23.957  14.610  25.645  0.1516  0.0660  0.2333
37028DOD     C154903   7.406   7.141  16.743  0.1470 -0.0890 -0.0878
37028DOD     C254904   7.373   7.309  17.193 -0.0797  0.2407 -0.2276
37028DOD     C354905   7.507   7.151  17.597 -0.1932  0.1671 -0.0230
37029DOD     C154906  26.342   0.519  19.163 -0.2950  0.3163 -0.2328
37029DOD     C254907  26.724   0.233  19.197 -0.1436  0.1486  0.0192
37029DOD     C354908  26.965  30.249  19.381  0.1357  0.0898 -0.1811
37030DOD     C154909  10.206   2.905   7.563  0.2181 -0.0326 -0.1605
37030DOD     C254910  10.107   3.317   7.291  0.0102 -0.0715 -0.0272
37030DOD     C354911  10.219   3.435   6.855 -0.2473  0.0130  0.1095
37031DOD     C154912  13.724  16.236   9.091  0.3460  0.0476 -0.0934
37031DOD     C254913  13.795  15.880   9.366 -0.0520 -0.0269 -0.0897
37031DOD     C354914  14.007  15.457   9.463  0.2128 -0.4080 -0.0285
37032DOD     C154915   8.260  28.609  20.619 -0.1348  0.0610 -0.0746
37032DOD     C254916   7.800  28.550  20.420 -0.2845 -0.2325 -0.3815
37032DOD     C354917   7.351  28.690  20.340  0.0057 -0.1713  0.0450
37033DOD     C154918  14.521  22.647  29.756 -0.2586 -0.2200  0.1365
37033DOD     C254919  14.936  22.708  29.917 -0.0235 -0.1241 -0.0862
37033DOD     C354920  15.227  22.946  30.251 -0.3264 -0.0105 -0.0763
37034DOD     C154921   3.929  16.162  20.682  0.2423 -0.3785  0.2275
37034DOD     C254922   3.819  16.210  20.217 -0.3304  0.5682 -0.1065
37034DOD     C354923   3.611  16.263  19.812  0.5303  0.0386 -0.1041
37035DOD     C154924   7.667   0.113  20.361 -0.2920 -0.2569  0.3628
37035DOD     C254925   7.996   0.475  20.403  0.1553 -0.0920 -0.0820
37035DOD     C354926   8.036   0.930  20.223 -0.1099  0.0281  0.3960
37036DOD     C154927  21.101  19.330   0.717 -0.0877  0.2196  0.1258
37036DOD     C254928  20.748  19.573   0.861  0.2397 -0.1456 -0.0498
37036DOD     C354929  20.565  19.898   0.555  0.0088  0.2350  0.2093
37037DOD     C154930  20.524  17.575  29.284 -0.1071 -0.3472 -0.2286
37037DOD     C254931  20.222  17.550  29.623 -0.1879  0.0349 -0.1009
37037DOD     C354932  19.816  17.570  29.541  0.1931  0.2052  0.1849
37038DOD     C154933  14.136   9.724  15.548  0.3604 -0.0302  0.2142
37038DOD     C254934  14.202   9.272  15.514 -0.1524 -0.1645 -0.1735
37038DOD     C354935  13.959   8.855  15.591 -0.0013  0.0315  0.3274
37039DOD     C154936   7.384  14.578  22.172  0.1811 -0.2455  0.2870
37039DOD     C254937   7.628  14.167  22.075  0.0056  0.2002  0.0344
37039DOD     C354938   7.877  13.771  21.872  0.2416  0.0035  0.3657
37040DOD     C154939  28.909  20.183  18.807  0.0355  0.3361 -0.0236
37040DOD     C254940  28.850  19.972  19.255  0.1006 -0.1075 -0.1849
37040DOD     C354941  28.749  20.093  19.673  0.1732  0.3262  0.2540
37041DOD     C154942  11.795  13.767   9.150 -0.1323  0.0619 -0.2140
37041DOD     C254943  11.771  14.228   8.943  0.3401 -0.0751  0.2213
37041DOD     C354944  11.731  14.704   8.920 -0.0176  0.1859 -0.0861
37042DOD     C154945  17.706  26.220   9.443 -0.0264 -0.4055 -0.0520
37042DOD     C254946  17.486  26.230   9.833 -0.0741 -0.2923  0.1791
37042DOD     C354947  17.138  26.193  10.140 -0.0799 -0.1377  0.1076
37043DOD     C154948   7.186   8.263  13.932 -0.0302 -0.0039 -0.0240
37043DOD     C254949   7.311   8.219  13.505  0.1154  0.1151 -0.3765
37043DOD     C354950   7.109   8.122  13.154  0.1142  0.1316  0.1988
37044DOD     C154951  20.549  28.640  23.433  0.2354  0.0589  0.0230
37044DOD     C254952  20.623  28.896  23.119 -0.1614  0.0576 -0.0207
37044DOD     C354953  20.905  28.732  22.776  0.1967  0.2655  0.0971
37045DOD     C154954   3.902  29.203  29.602 -0.1356  0.0389 -0.0808
37045DOD     C254955   3.692  29.222  30.066 -0.1706  0.4107  0.0160
37045DOD     C354956   3.675  29.355   0.204 -0.0181 -0.1530  0.3858
37046DOD     C154957   3.982  13.829  20.738 -0.2365  0.1937  0.1202
37046DOD     C254958   3.865  13.489  21.032 -0.0828 -0.1191 -0.1414
37046DOD     C354959   3.939  13.343  21.429 -0.2432 -0.1236  0.0684
37047DOD     C154960   3.528  14.609   9.472  0.0988  0.0225  0.1416
37047DOD     C254961   3.519  14.622   9.905 -0.2674  0.0002  0.0355
37047DOD     C354962   3.639  14.512  10.349  0.2474 -0.0071 -0.2190
37048DOD     C154963   4.360  16.645  28.294  0.2634 -0.2948  0.0138
37048DOD     C254964   4.454  17.048  28.022  0.0729  0.0536  0.0818
37048DOD     C354965   4.642  17.394  27.791  0.0587  0.3983  0.1938
37049DOD     C154966  20.492   5.754  19.519 -0.0268 -0.2706 -0.0910
37049DOD     C254967  20.549   6.029  19.209 -0.4409 -0.0889  0.0952
37049DOD     C354968  20.895   6.426  19.116  0.0118 -0.0052  0.0425
37050DOD     C154969   5.572  16.518   6.358 -0.0339  0.0549  0.0641
37050DOD     C254970   5.255  16.865   6.485 -0.2080  0.2080 -0.2022
37050DOD     C354971   5.190  17.258   6.691 -0.1606  0.3183 -0.2029
37051DOD     C154972   6.231  15.505  10.730  0.0935  0.1593 -0.2480
37051DOD     C254973   5.802  15.476  10.985  0.1148  0.1784  0.0387
37051DOD     C354974   5.548  15.847  11.159 -0.2652 -0.1026  0.0786
37052DOD     C154975  13.122  19.638  22.097 -0.0539  0.3354  0.1747
37052DOD     C254976  12.815  19.462  21.809 -0.0777 -0.1967 -0.3304
37052DOD     C354977  12.655  19.119  21.604 -0.0623  0.0805 -0.0216
37053DOD     C154978   4.374   5.886  13.081  0.3014  0.0710  0.0629
37053DOD     C254979   3.886   5.877  13.066  0.0092  0.1479  0.2244
37053DOD     C354980   3.500   5.581  13.135  0.0412  0.4623  0.0336
37054DOD     C154981   9.288  25.337  11.805 -0.1910  0.2013 -0.0371
37054DOD     C254982   8.962  25.394  11.515 -0.0843 -0.1718 -0.0960
37054DOD     C354983   8.723  25.149  11.249 -0.5458 -0.2101 -0.1952
37055DOD     C154984  16.599  29.038  19.251 -0.0914 -0.3361  0.4497
37055DOD     C254985  16.808  28.700  19.449 -0.1653  0.3158  0.2386
37055DOD     C354986  17.074  28.489  19.757  0.2254  0.2142  0.5141
37056DOD     C154987   5.856  11.837   2.370  0.2428 -0.1223 -0.0872
37056DOD     C254988   5.934  11.972   2.824 -0.1305 -0.0747  0.1703
37056DOD     C354989   5.963  12.064   3.267  0.2289  0.1281  0.1323
37057DOD     C154990  27.663  29.120  14.027  0.1861  0.0825  0.0985
37057DOD     C254991  27.703  28.734  13.773  0.1614  0.0202 -0.2675
37057DOD     C354992  27.388  28.772  13.463 -0.0744 -0.0943 -0.1576
37058DOD     C154993  25.803  19.045  15.714  0.5036 -0.0526  0.0558
37058DOD     C254994  25.865  19.496  15.764 -0.1520 -0.3392  0.2374
37058DOD     C354995  26.052  19.876  15.939 -0.1816 -0.0090  0.4706
37059DOD     C154996  18.227  14.627  24.761 -0.1229  0.1379  0.0808
37059DOD     C254997  18.595  14.522  24.458  0.0238  0.2246 -0.0671
37059DOD     C354998  18.786  14.574  24.017 -0.0820  0.1158 -0.1170
37060DOD     C154999   6.943  14.516   5.448  0.2027 -0.0503  0.1196
37060DOD     C255000   6.812  14.822   5.105  0.1363 -0.0098 -0.0944
37060DOD     C355001   6.917  15.187   4.784 -0.0238  0.0350  0.1266
37061DOD     C155002   8.467  21.090   0.250 -0.0853 -0.1441 -0.0743
37061DOD     C255003   8.376  20.917  30.204  0.0587  0.0549 -0.1957
37061DOD     C355004   8.292  20.690  29.818  0.2168  0.0526 -0.1644
37062DOD     C155005  28.060  20.318   4.728  0.0652  0.5824 -0.0032
37062DOD     C255006  27.785  20.051   5.037  0.1413 -0.1231  0.1607
37062DOD     C355007  27.537  19.654   5.138 -0.1908  0.0715  0.2501
37063DOD     C155008  24.780   9.683   9.194 -0.1167  0.0440 -0.0569
37063DOD     C255009  24.407   9.895   9.359  0.2024  0.2520  0.0153
37063DOD     C355010  23.957   9.924   9.455 -0.3033 -0.1489 -0.2533
37064DOD     C155011  12.818  11.789   1.137  0.1754  0.0153  0.2895
37064DOD     C255012  12.862  11.863   0.666 -0.2584  0.1613  0.1253
37064DOD     C355013  12.901  11.605   0.326  0.1501  0.2451  0.2677
37065DOD     C155014  14.424  29.894  18.337  0.4024  0.3021 -0.0367
37065DOD     C255015  14.661  29.740  18.614 -0.1563  0.2126 -0.1962
37065DOD     C355016  14.575  29.581  19.046  0.0273 -0.2908  0.2489
37066DOD     C155017  21.348   4.708  28.572 -0.2936 -0.2868 -0.1890
37066DOD     C255018  21.138   5.096  28.539 -0.1319 -0.3607 -0.3212
37066DOD     C355019  20.969   5.466  28.337  0.0802 -0.0622  0.2477
37067DOD     C155020  19.797  22.838  13.586  0.0459 -0.1857 -0.2714
37067DOD     C255021  19.827  23.007  13.148  0.0212 -0.1776 -0.1708
37067DOD     C355022  19.807  22.968  12.724 -0.1105 -0.0134 -0.2389
37068DOD     C155023  15.840   8.341  28.423 -0.2948  0.1118 -0.1393
37068DOD     C255024  15.508   8.032  28.253  0.1377  0.1593  0.1655
37068DOD     C355025  15.146   7.818  28.121 -0.1294  0.2917  0.1523
37069DOD     C155026  28.375   5.405  10.147  0.1711  0.1750 -0.1392
37069DOD     C255027  28.567   5.795  10.416 -0.3108  0.2653  0.1969
37069DOD     C355028  28.806   6.143  10.302  0.0079 -0.0524 -0.0122
37070DOD     C155029   3.486  16.921   9.443 -0.2101  0.0170  0.2901
37070DOD     C255030   3.832  16.768   9.210  0.2728 -0.2899  0.1701
37070DOD     C355031   4.243  16.760   9.037  0.0012 -0.3473 -0.0584
37071DOD     C155032   3.176  11.265  30.023  0.0208  0.0177  0.1066
37071DOD     C255033   2.752  11.174  30.208  0.1369  0.0136 -0.0454
37071DOD     C355034   2.355  11.046  30.057  0.1962  0.1839  0.1958
37072DOD     C155035  22.110   7.334  17.270 -0.2409  0.1195  0.1728
37072DOD     C255036  22.386   7.662  17.412 -0.1031  0.1697  0.2468
37072DOD     C355037  22.578   7.995  17.641  0.3881 -0.2806 -0.0216
37073DOD     C155038  11.276  19.435   9.546 -0.1078  0.0380 -0.1253
37073DOD     C255039  11.051  19.109   9.818  0.2612 -0.0934  0.0688
37073DOD     C355040  10.772  19.224  10.163  0.0261  0.2232  0.2285
37074DOD     C155041  29.417   9.974  16.358  0.2381 -0.2688 -0.0002
37074DOD     C255042  28.976  10.194  16.383 -0.2579 -0.3371  0.2006
37074DOD     C355043  28.650  10.538  16.291 -0.0334  0.3552 -0.3334
37075DOD     C155044  23.733  15.123  15.729 -0.2349 -0.0275 -0.0631
37075DOD     C255045  23.452  15.463  15.717  0.1893  0.0739  0.0994
37075DOD     C355046  23.502  15.938  15.569  0.0494 -0.0077  0.0419
37076DOD     C155047   5.615  18.052  13.106 -0.0515 -0.3358  0.0130
37076DOD     C255048   5.700  18.215  13.607 -0.0760  0.0179 -0.1129
37076DOD     C355049   5.898  18.308  14.008  0.1836  0.1229  0.0071
37077DOD     C155050   8.176  12.593   6.052 -0.2590  0.2938  0.4660
37077DOD     C255051   7.924  12.622   6.439  0.1247 -0.0069 -0.0421
37077DOD     C355052   7.774  12.893   6.756 -0.3384  0.1034 -0.1062
37078DOD     C155053  12.627  11.612  17.376 -0.1829  0.1159  0.0606
37078DOD     C255054  12.320  11.271  17.419 -0.1968  0.0020  0.1244
37078DOD     C355055  12.201  10.863  17.645 -0.0250 -0.0514 -0.0363
37079DOD     C155056  16.173  16.295   3.320  0.1850 -0.2856 -0.2067
37079DOD     C255057  16.070  16.675   3.113 -0.2477  0.1326  0.0670
37079DOD     C355058  16.008  17.149   3.029  0.1117  0.1587  0.0599
37080DOD     C155059  10.765  29.162  20.763  0.0341 -0.1080  0.1981
37080DOD     C255060  10.806  29.615  20.548 -0.1242  0.3404  0.2513
37080DOD     C355061  10.733  30.058  20.486  0.2950 -0.2963 -0.0547
37081DOD     C155062   3.498  17.498  21.777  0.1117  0.0605  0.1711
37081DOD     C255063   3.018  17.564  21.739 -0.2543  0.1860  0.2362
37081DOD     C355064   2.607  17.823  21.589 -0.1005  0.0520  0.3680
37082DOD     C155065  20.985  14.315  10.490  0.0074  0.1015 -0.0682
37082DOD     C255066  20.895  13.998  10.820  0.3296 -0.1816  0.0748
37082DOD     C355067  21.031  13.920  11.331  0.0492 -0.2526  0.1363
37083DOD     C155068  27.491   9.914  28.540 -0.1928 -0.1352 -0.1974
37083DOD     C255069  27.681  10.346  28.462  0.5040  0.0876  0.1508
37083DOD     C355070  27.962  10.657  28.619 -0.3097  0.0093  0.1124
37084DOD     C155071   3.383   5.345  16.348  0.1575 -0.0092  0.0016
37084DOD     C255072   3.691   5.226  16.012  0.1235 -0.2896 -0.1482
37084DOD     C355073   3.968   5.124  15.633 -0.1301 -0.1147 -0.0254
37085DOD     C155074   5.542  13.073  14.099 -0.0685  0.0256  0.0910
37085DOD     C255075   5.626  13.528  14.057 -0.1011  0.1929 -0.2062
37085DOD     C355076   5.853  13.888  13.952  0.0368 -0.1063 -0.0912
37086DOD     C155077  12.492  11.375  26.061  0.0847 -0.1128 -0.1167
37086DOD     C255078  12.869  11.119  26.032  0.0053  0.0394 -0.0749
37086DOD     C355079  13.200  10.995  26.326  0.1791  0.0391 -0.0150
37087DOD     C155080  20.942  21.643  19.862  0.2630  0.0022  0.1870
37087DOD     C255081  21.312  21.947  19.758 -0.0979  0.2104 -0.1511
37087DOD     C355082  21.578  22.024  19.402  0.1836 -0.1953 -0.1815
37088DOD     C155083  21.174   4.994  18.660  0.0120  0.0607  0.0834
37088DOD     C255084  20.874   4.627  18.695 -0.0451  0.0088 -0.0595
37088DOD     C355085  20.750   4.365  18.350  0.1798  0.2528  0.1090
37089DOD     C155086  22.964   3.459   7.949  0.0021 -0.2138  0.3920
37089DOD     C255087  22.639   3.761   7.837 -0.0222 -0.0913 -0.1110
37089DOD     C355088  22.188   3.933   7.945 -0.1005  0.0754 -0.2416
37090DOD     C155089  21.945   4.252   5.752  0.0528 -0.0936  0.1016
37090DOD     C255090  21.527   4.025   5.477  0.0647  0.0974 -0.1182
37090DOD     C355091  21.268   3.743   5.176  0.1113 -0.0915 -0.1107
37091DOD     C155092   3.956  20.122  16.012 -0.1827  0.2442  0.3003
37091DOD     C255093   4.262  20.401  16.365 -0.1460 -0.0997 -0.0413
37091DOD     C355094   4.551  20.736  16.310 -0.0538  0.0199  0.0496
37092DOD     C155095   5.100   4.420   9.804  0.4570 -0.0129 -0.0404
37092DOD     C255096   5.423   4.651  10.088  0.1456  0.2988 -0.0795
37092DOD     C355097   5.434   4.794  10.560 -0.0429 -0.1252 -0.0132
37093DOD     C155098  15.004  11.663  18.555 -0.0221  0.0865 -0.0452
37093DOD     C255099  14.841  11.317  18.389  0.2053  0.0251  0.0818
37093DOD     C355100  14.624  10.887  18.334  0.1226  0.3716  0.1295
37094DOD     C155101   4.196   6.323   3.054 -0.1004 -0.2075  0.0885
37094DOD     C255102   4.188   6.138   3.480  0.0535 -0.0353 -0.0001
37094DOD     C355103   3.984   5.814   3.818  0.0015  0.0557  0.1452
37095DOD     C155104   6.643  16.460  11.738 -0.0963  0.0611  0.1772
37095DOD     C255105   6.455  16.921  11.780 -0.1275 -0.0713  0.2017
37095DOD     C355106   6.647  17.347  11.966 -0.1490 -0.3770  0.2736
37096DOD     C155107   3.728  14.354  11.308 -0.0267 -0.1893  0.1212
37096DOD     C255108   4.103  14.625  11.258 -0.0712  0.1849 -0.0348
37096DOD     C355109   4.347  14.983  11.379 -0.0017 -0.1282 -0.1827
37097DOD     C155110  15.287  28.353  15.703 -0.2116 -0.1099  0.0540
37097DOD     C255111  15.760  28.390  15.721 -0.0981  0.0275 -0.1509
37097DOD     C355112  16.205  28.491  15.675 -0.0956  0.2514 -0.2009
37098DOD     C155113  17.376  13.237   0.581 -0.0723  0.0020  0.0184
37098DOD     C255114  17.728  13.034   0.828 -0.0330  0.0318 -0.0868
37098DOD     C355115  18.080  13.087   1.116 -0.2164  0.0401 -0.4092
37099DOD     C155116  20.681  25.788   8.984  0.3834  0.1235  0.1816
37099DOD     C255117  20.226  26.021   9.069 -0.0968  0.2376  0.1517
37099DOD     C355118  20.007  26.357   8.930 -0.2037 -0.1866 -0.0083
37100DOD     C155119  28.071   0.104  12.759 -0.1856 -0.0824 -0.0134
37100DOD     C255120  28.081  30.010  12.546 -0.1677 -0.3602  0.0510
37100DOD     C355121  27.947  29.790  12.176  0.1236 -0.1206 -0.1164
37101DOD     C155122   5.046  28.202  12.409  0.3219  0.4168 -0.2321
37101DOD     C255123   4.757  28.262  12.024  0.0953  0.0931 -0.3385
37101DOD     C355124   4.848  28.267  11.566 -0.2221 -0.1556  0.2491
37102DOD     C155125  28.972  25.372  10.625  0.0896 -0.1086  0.1375
37102DOD     C255126  29.248  25.490  10.243  0.0284 -0.0650  0.2687
37102DOD     C355127  29.459  25.301   9.892 -0.0166  0.4087 -0.0219
37103DOD     C155128   6.867  15.013  11.744 -0.1825  0.0070 -0.0388
37103DOD     C255129   6.932  15.068  11.262 -0.2274  0.0166 -0.1219
37103DOD     C355130   7.151  14.882  10.968 -0.1711  0.3018  0.0697
37104DOD     C155131   8.070   8.319  18.354 -0.1349 -0.2939  0.2450
37104DOD     C255132   8.479   8.428  18.561  0.1298  0.1420  0.0045
37104DOD     C355133   8.871   8.533  18.873 -0.0971 -0.0596  0.1820
37105DOD     C155134  25.364  13.063  16.731  0.2563  0.1642  0.0988
37105DOD     C255135  25.667  13.138  16.374  0.1019 -0.6051 -0.0005
37105DOD     C355136  25.768  13.445  16.020  0.0814  0.1565  0.2904
37106DOD     C155137   8.163   0.701  19.185 -0.1364 -0.0079  0.1914
37106DOD     C255138   7.883   0.789  18.805  0.1762  0.3132 -0.2347
37106DOD     C355139   7.692   0.625  18.358 -0.1467  0.0593  0.2856
37107DOD     C155140  10.249  17.762   5.242 -0.0127 -0.1661 -0.3768
37107DOD     C255141  10.471  17.821   5.652 -0.0180  0.0217  0.2392
37107DOD     C355142  10.870  17.832   5.880  0.1348  0.2647 -0.0671
37108DOD     C155143   8.810  15.852   3.282 -0.1350  0.1221 -0.3220
37108DOD     C255144   8.402  15.753   3.451 -0.0687  0.0089  0.4238
37108DOD     C355145   8.104  15.471   3.660 -0.1571  0.2385 -0.5090
37109DOD     C155146   2.300  10.122  14.644 -0.1073 -0.0864 -0.1762
37109DOD     C255147   2.306  10.524  14.428 -0.0355  0.1260  0.3994
37109DOD     C355148   2.238  10.955  14.566  0.0243  0.1867  0.0141
37110DOD     C155149  23.945  26.731  28.139  0.1013  0.5937 -0.2868
37110DOD     C255150  23.485  26.904  28.088  0.2199 -0.0702 -0.2712
37110DOD     C355151  23.156  27.173  27.810 -0.3530 -0.0551  0.2232
37111DOD     C155152  14.366  24.606  30.216 -0.2683 -0.4581  0.0214
37111DOD     C255153  14.023  24.376  29.984 -0.0073 -0.1312 -0.0918
37111DOD     C355154  13.769  24.007  30.073  0.1291  0.0299  0.1820
37112DOD     C155155  27.826   5.628  16.935 -0.1671 -0.0010 -0.0115
37112DOD     C255156  27.943   5.232  17.150  0.2302  0.2450  0.2893
37112DOD     C355157  27.859   5.176  17.620 -0.1927  0.0144  0.1784
37113DOD     C155158  11.463  14.942  16.918 -0.0390  0.1187 -0.0610
37113DOD     C255159  11.366  14.869  16.502  0.1723 -0.0609  0.1903
37113DOD     C355160  11.205  14.727  16.069  0.1971 -0.0210 -0.2253
37114DOD     C155161  18.439  21.979  12.303 -0.2558  0.1147 -0.0600
37114DOD     C255162  18.632  22.315  12.536  0.0055 -0.4086  0.2783
37114DOD     C355163  18.659  22.736  12.789 -0.1457  0.1249  0.4108
37115DOD     C155164  28.277  11.478  14.616 -0.0548  0.0105 -0.1151
37115DOD     C255165  28.056  11.062  14.513 -0.2344  0.2299  0.4053
37115DOD     C355166  28.255  10.641  14.299  0.1774 -0.0149 -0.0293
37116DOD     C155167  13.214  28.371  15.616 -0.1625 -0.0295 -0.2641
37116DOD     C255168  12.934  28.112  15.296  0.0824  0.0469 -0.3070
37116DOD     C355169  12.792  27.681  15.156 -0.1141  0.0146 -0.0306
37117DOD     C155170   5.241  23.265  26.302 -0.0424  0.3753 -0.1352
37117DOD     C255171   4.940  23.471  25.962 -0.0220 -0.1117 -0.0636
37117DOD     C355172   4.766  23.486  25.508 -0.0972 -0.0048 -0.0171
37118DOD     C155173  16.972   9.239   5.014 -0.2529 -0.1644  0.0557
37118DOD     C255174  17.102   9.481   5.357  0.1183  0.0549 -0.0028
37118DOD     C355175  17.082   9.698   5.804  0.1300  0.2916  0.1664
37119DOD     C155176  11.995  14.047  27.326  0.0786  0.0807 -0.2591
37119DOD     C255177  11.889  13.593  27.389  0.0596 -0.0229  0.0540
37119DOD     C355178  11.938  13.148  27.529 -0.0563 -0.2091 -0.2067
37120DOD     C155179  13.432  17.964  17.466 -0.3957  0.3684  0.0886
37120DOD     C255180  13.824  17.919  17.211 -0.3448  0.1975  0.1270
37120DOD     C355181  14.139  17.628  16.964 -0.2282 -0.0001  0.0275
37121DOD     C155182  10.875  15.455  28.983  0.0601  0.3830  0.1346
37121DOD     C255183  10.749  15.588  29.425  0.1165 -0.0827  0.0745
37121DOD     C355184  10.655  15.699  29.876 -0.1618 -0.0496 -0.2118
37122DOD     C155185  13.338   5.783   5.672  0.0324 -0.0757 -0.0930
37122DOD     C255186  13.228   5.928   5.222 -0.1831 -0.1814 -0.1736
37122DOD     C355187  12.871   6.007   4.915 -0.0381  0.1676 -0.0160
37123DOD     C155188  25.539  29.271  26.843 -0.1768 -0.3928 -0.3113
37123DOD     C255189  25.267  29.633  26.974  0.0254  0.0390 -0.1113
37123DOD     C355190  25.048  29.766  27.364  0.0534  0.0768  0.3055
37124DOD     C155191  21.243  19.190  12.434  0.0218  0.1285  0.2465
37124DOD     C255192  21.400  19.077  12.006 -0.0741 -0.3569  0.0774
37124DOD     C355193  21.844  19.318  11.843  0.0653 -0.0247 -0.1435
37125DOD     C155194  21.218  14.576  25.709  0.0228  0.1639 -0.2245
37125DOD     C255195  20.879  14.426  25.406 -0.1540 -0.3204 -0.1868
37125DOD     C355196  20.791  13.994  25.256  0.1150  0.3450 -0.0377
37126DOD     C155197   7.704  16.707  26.320 -0.0289 -0.3015 -0.0273
37126DOD     C255198   7.363  16.570  26.133  0.2380  0.1947  0.0144
37126DOD     C355199   6.955  16.528  26.313 -0.2736 -0.0489  0.0904
37127DOD     C155200   5.337   7.878  29.914  0.0839  0.2185  0.2217
37127DOD     C255201   5.204   7.589  29.572 -0.3019  0.1027  0.0788
37127DOD     C355202   4.951   7.486  29.157  0.1373 -0.0077  0.0015
37128DOD     C155203  26.447  27.632  13.917 -0.1232 -0.1743 -0.2628
37128DOD     C255204  26.838  27.414  14.188 -0.0807 -0.0751  0.6006
37128DOD     C355205  26.848  27.241  14.634 -0.2484  0.4523  0.1349
37129DOD     C155206  18.014  14.161   5.140  0.3609  0.4757  0.0296
37129DOD     C255207  17.569  14.065   5.341  0.0490 -0.1836  0.3609
37129DOD     C355208  17.198  13.765   5.334 -0.2123 -0.2270 -0.1446
37130DOD     C155209  23.416   4.152  11.576 -0.0602 -0.1327  0.1263
37130DOD     C255210  23.577   4.524  11.331  0.0328 -0.1360 -0.1711
37130DOD     C355211  23.907   4.813  11.221  0.1557  0.1030 -0.1296
37131DOD     C155212   8.376   5.289  24.595  0.0681  0.1984  0.1065
37131DOD     C255213   8.516   5.294  24.194  0.4708  0.2366 -0.1714
37131DOD     C355214   8.680   4.939  23.893 -0.1559 -0.0998 -0.0584
37132DOD     C155215  28.620   6.444   3.865  0.3541 -0.0724 -0.3135
37132DOD     C255216  28.387   6.859   4.047 -0.2958 -0.0838 -0.3499
37132DOD     C355217  28.442   7.347   3.931  0.1891 -0.0088  0.0472
37133DOD     C155218  18.107  19.217   2.700 -0.3864  0.1001 -0.0357
37133DOD     C255219  18.067  19.567   2.997  0.0358 -0.3884 -0.0951
37133DOD     C355220  17.698  19.604   3.261 -0.0957  0.0009 -0.2222
37134DOD     C155221  20.791  19.338  12.724 -0.1866  0.1307  0.3802
37134DOD     C255222  20.364  19.364  12.942  0.0382  0.0715 -0.0318
37134DOD     C355223  19.922  19.157  13.057  0.0139  0.1478 -0.2786
37135DOD     C155224  27.169  20.596  28.986 -0.0385  0.0194 -0.0490
37135DOD     C255225  27.307  20.373  29.383  0.1915  0.3150 -0.0465
37135DOD     C355226  27.525  20.513  29.738 -0.0455 -0.2706 -0.0266
37136DOD     C155227   9.254   6.907  16.605  0.0551  0.4520 -0.3406
37136DOD     C255228   9.186   7.218  16.285  0.4254 -0.1744  0.0171
37136DOD     C355229   9.146   7.608  16.052 -0.0413 -0.0056 -0.3212
37137DOD     C155230  16.534   8.061  25.310 -0.0430  0.0498 -0.0548
37137DOD     C255231  16.555   8.267  25.710  0.0794  0.2147 -0.3210
37137DOD     C355232  16.811   8.143  26.073 -0.0349  0.1431  0.0821
37138DOD     C155233  29.022  17.494   1.410 -0.3330  0.0664 -0.0778
37138DOD     C255234  29.501  17.550   1.393 -0.1565 -0.1654 -0.4466
37138DOD     C355235  29.730  17.514   1.760  0.0807 -0.1216  0.4126
37139DOD     C155236   6.184  17.786  14.463 -0.1253 -0.2198 -0.1223
37139DOD     C255237   6.383  18.119  14.172  0.1482 -0.0510  0.0290
37139DOD     C355238   6.699  18.477  14.187  0.1620  0.0652  0.2494
37140DOD     C155239   9.756   7.445  18.680  0.0940  0.3356  0.0714
37140DOD     C255240   9.970   7.453  19.085  0.0303 -0.1784 -0.5234
37140DOD     C355241  10.248   7.491  19.505  0.1417 -0.0159 -0.0777
37141DOD     C155242  16.951   3.811  11.176  0.0216  0.0227  0.3321
37141DOD     C255243  17.039   3.615  11.605  0.2484  0.0178 -0.1389
37141DOD     C355244  17.136   3.240  11.918 -0.1696  0.0205 -0.0383
37142DOD     C155245  23.141  18.411   6.804 -0.2066 -0.2275  0.3050
37142DOD     C255246  22.680  18.412   7.063 -0.0710 -0.0373  0.0554
37142DOD     C355247  22.693  18.479   7.517 -0.1638  0.2343  0.3582
37143DOD     C155248  20.884   9.983  12.612  0.0713  0.2488  0.1075
37143DOD     C255249  20.725  10.254  12.226  0.0732  0.0889  0.0437
37143DOD     C355250  20.432  10.457  12.001 -0.0193 -0.0220  0.1448
37144DOD     C155251   7.446  26.585  29.144 -0.2781 -0.3756 -0.1250
37144DOD     C255252   7.377  26.141  29.162  0.0531 -0.1199 -0.1362
37144DOD     C355253   7.445  25.772  28.878  0.3152  0.1506 -0.0012
37145DOD     C155254   0.383   0.551  22.795 -0.0390 -0.1740 -0.2123
37145DOD     C255255   0.011   0.596  22.586  0.0083 -0.3145  0.4615
37145DOD     C355256  29.930   0.630  22.385  0.0064 -0.4156  0.0701
37146DOD     C155257  23.979   9.877   4.812  0.1082  0.1453 -0.2887
37146DOD     C255258  23.626   9.854   4.505  0.1830  0.6008  0.1929
37146DOD     C355259  23.388  10.159   4.203 -0.2274 -0.0197 -0.0242
37147DOD     C155260   0.848  28.113  19.952 -0.1856 -0.1513  0.0359
37147DOD     C255261   0.701  27.733  20.139  0.1208 -0.3597 -0.1970
37147DOD     C355262   0.566  27.337  20.461 -0.0892 -0.1452 -0.0551
37148DOD     C155263   2.744  16.932   0.623  0.0676 -0.1199  0.2287
37148DOD     C255264   2.763  16.554   0.897  0.2117  0.3533 -0.3235
37148DOD     C355265   2.629  16.198   1.197 -0.2151  0.2447  0.1026
37149DOD     C155266   0.414  27.052   0.050 -0.1556 -0.0785  0.0994
37149DOD     C255267   0.504  26.625  30.190 -0.2551 -0.2123  0.0590
37149DOD     C355268   0.777  26.305  30.043  0.1268  0.1122  0.0045
37150DOD     C155269  29.058  11.660  20.662 -0.2595 -0.0011  0.0863
37150DOD     C255270  28.713  11.850  20.453  0.3020 -0.0871  0.1369
37150DOD     C355271  28.345  12.081  20.152  0.0342  0.1086 -0.1818
37151DOD     C155272  25.122  22.784  27.316  0.1226 -0.1261 -0.1986
37151DOD     C255273  25.386  22.437  27.159 -0.0268 -0.0745 -0.1353
37151DOD     C355274  25.755  22.365  26.896  0.0639  0.3977  0.0423
37152DOD     C155275  26.423  22.906  23.251 -0.2490  0.0028  0.1696
37152DOD     C255276  26.809  22.748  23.149  0.0551  0.0805 -0.3488
37152DOD     C355277  26.905  22.510  22.795 -0.1000 -0.1049  0.1065
37153DOD     C155278  20.453  22.626  27.011 -0.1412  0.0512  0.2254
37153DOD     C255279  20.483  22.198  26.834 -0.1722 -0.1106 -0.1918
37153DOD     C355280  20.490  21.812  26.591  0.4823  0.1561  0.0527
37154DOD     C155281   2.883  13.390  16.455  0.2197  0.1323  0.1294
37154DOD     C255282   2.586  13.143  16.137 -0.1261 -0.0277 -0.0322
37154DOD     C355283   2.617  12.845  15.797 -0.2061 -0.0798 -0.0586
37155DOD     C155284  11.150  14.936   4.649 -0.0766 -0.1909 -0.0185
37155DOD     C255285  10.958  14.551   4.816  0.0251 -0.0537  0.0317
37155DOD     C355286  11.051  14.190   5.058 -0.0291 -0.0161  0.1603
37156DOD     C155287  29.018   8.501   7.387 -0.3534 -0.0784 -0.1261
37156DOD     C255288  28.612   8.665   7.155 -0.1221 -0.0426  0.1017
37156DOD     C355289  28.256   8.720   6.852 -0.0537  0.1009  0.3949
37157DOD     C155290   5.471   5.188  21.137 -0.0646 -0.1987  0.1023
37157DOD     C255291   5.038   5.102  21.377 -0.0303  0.0488 -0.1210
37157DOD     C355292   4.592   5.130  21.325  0.2017 -0.1516 -0.0755
37158DOD     C155293  18.396  25.558   5.565  0.1415 -0.1567 -0.1277
37158DOD     C255294  17.990  25.496   5.448  0.2675 -0.1632  0.0418
37158DOD     C355295  17.542  25.380   5.387  0.1942 -0.2066  0.0958
37159DOD     C155296   7.961  28.233  27.359  0.2198 -0.0254  0.0216
37159DOD     C255297   8.301  28.152  27.038  0.0035  0.0714  0.1339
37159DOD     C355298   8.753  28.125  27.155  0.1770  0.1612  0.2058
37160DOD     C155299  18.365  20.223  13.473 -0.0236  0.0503 -0.2492
37160DOD     C255300  17.989  20.380  13.639  0.3101 -0.0396 -0.2885
37160DOD     C355301  17.591  20.391  13.493  0.1063  0.2524 -0.1952
37161DOD     C155302  11.920   4.199   3.433  0.1598  0.0641 -0.0970
37161DOD     C255303  11.959   4.635   3.616 -0.0873 -0.0506  0.0253
37161DOD     C355304  12.010   5.077   3.724  0.1298  0.2504 -0.0884
37162DOD     C155305  20.208   7.438  21.208  0.1035 -0.1921  0.2308
37162DOD     C255306  20.263   7.247  20.771  0.2109  0.0672  0.0117
37162DOD     C355307  20.187   7.008  20.359 -0.0678 -0.0575 -0.0735
37163DOD     C155308  16.979  11.594  21.321  0.2980 -0.0741 -0.2310
37163DOD     C255309  16.943  11.351  20.852  0.1198 -0.2718  0.0367
37163DOD     C355310  17.183  11.265  20.427 -0.0945 -0.1235  0.0682
37164DOD     C155311   9.449   5.373  19.507 -0.4511 -0.3136 -0.1562
37164DOD     C255312   9.289   5.509  19.080 -0.3425  0.2379 -0.2159
37164DOD     C355313   9.547   5.547  18.656 -0.1698  0.0685 -0.1484
37165DOD     C155314   9.689   8.459  16.249  0.0423 -0.0408  0.1250
37165DOD     C255315   9.575   8.717  16.578  0.0638  0.0555 -0.1957
37165DOD     C355316   9.274   8.631  16.899  0.0665  0.0243 -0.2116
37166DOD     C155317  14.998   2.747  29.888  0.1857 -0.0263 -0.0654
37166DOD     C255318  15.130   2.984  29.519  0.0585  0.0860 -0.1944
37166DOD     C355319  15.277   3.401  29.299 -0.0203 -0.0878 -0.0200
37167DOD     C155320  18.928  23.082  22.541  0.0849  0.0936  0.1720
37167DOD     C255321  19.086  23.532  22.546 -0.2290 -0.1467  0.1518
37167DOD     C355322  18.997  23.940  22.674 -0.1224 -0.0774  0.2752
37168DOD     C155323   6.198   1.041  28.299 -0.0740  0.1089  0.3161
37168DOD     C255324   5.805   0.823  28.458 -0.1280 -0.0178  0.0609
37168DOD     C355325   5.409   0.519  28.359  0.1048  0.2386 -0.1688
37169DOD     C155326  12.959   1.468   3.570  0.1257  0.1179  0.0224
37169DOD     C255327  12.927   1.262   3.139 -0.0400 -0.0244  0.3469
37169DOD     C355328  12.800   1.064   2.717  0.1540  0.6128  0.1317
37170DOD     C155329  16.864   9.800  12.970 -0.0027  0.1928  0.3712
37170DOD     C255330  16.997   9.380  13.051  0.0779 -0.0106  0.2311
37170DOD     C355331  17.038   8.947  12.991 -0.3476  0.1304 -0.0002
37171DOD     C155332  12.553  21.349  14.751  0.2148  0.0564 -0.3032
37171DOD     C255333  12.799  21.711  14.554 -0.2882  0.1244 -0.0244
37171DOD     C355334  12.687  22.110  14.338 -0.1109 -0.2555 -0.1819
37172DOD     C155335  17.547  19.506  18.390 -0.0113 -0.1516  0.0257
37172DOD     C255336  17.876  19.272  18.611  0.0624 -0.1693  0.2359
37172DOD     C355337  17.992  19.199  19.023 -0.0093  0.1716 -0.3865
37173DOD     C155338   9.716   2.058  15.228 -0.0509 -0.2308  0.2553
37173DOD     C255339   9.989   1.677  15.238 -0.2730  0.0469  0.2164
37173DOD     C355340  10.053   1.234  15.138  0.3847  0.1962 -0.2302
37174DOD     C155341  13.058  11.793  25.834 -0.1774 -0.0472  0.1312
37174DOD     C255342  13.142  12.210  25.765  0.2521 -0.0389  0.2216
37174DOD     C355343  13.291  12.536  25.434 -0.0309  0.0829 -0.2397
37175DOD     C155344  13.831  16.613  21.030 -0.3812 -0.0946  0.0232
37175DOD     C255345  13.759  17.011  21.267 -0.0212  0.2756  0.0762
37175DOD     C355346  13.515  17.208  21.554 -0.1360 -0.2589  0.0511
37176DOD     C155347   1.640  24.993  11.400 -0.0382  0.2131 -0.0575
37176DOD     C255348   2.052  24.976  11.535  0.1267  0.0302 -0.0808
37176DOD     C355349   2.437  25.184  11.558  0.2740  0.1806  0.0957
37177DOD     C155350  10.905  14.492   1.692 -0.2534  0.1128 -0.2424
37177DOD     C255351  11.190  14.626   2.072  0.0198  0.3784  0.3618
37177DOD     C355352  11.123  14.591   2.549  0.0423 -0.0956 -0.0393
37178DOD     C155353  13.036   6.325  16.545 -0.0336  0.1817  0.0038
37178DOD     C255354  13.404   6.065  16.394 -0.1818 -0.2739  0.3369
37178DOD     C355355  13.869   6.222  16.428  0.0833  0.0634 -0.1627
37179DOD     C155356  25.743  28.041  28.363 -0.2460  0.0620 -0.3610
37179DOD     C255357  26.157  28.063  28.109  0.0056 -0.3427  0.0935
37179DOD     C355358  26.254  28.371  27.779 -0.0088 -0.0994  0.4995
37180DOD     C155359  25.557   5.929  18.727  0.0744  0.0808  0.2234
37180DOD     C255360  25.626   5.679  18.410  0.2569  0.1709  0.1988
37180DOD     C355361  25.317   5.456  18.112  0.2038 -0.0330  0.3431
37181DOD     C155362   2.515  29.715  12.093  0.2145  0.0637  0.3155
37181DOD     C255363   2.258  29.361  12.229  0.0931 -0.0714 -0.0500
37181DOD     C355364   2.007  29.063  12.442 -0.1059  0.1491  0.1319
37182DOD     C155365   5.795  22.435  25.421  0.1571 -0.1795 -0.1267
37182DOD     C255366   5.951  22.069  25.661 -0.0374 -0.0344 -0.2791
37182DOD     C355367   6.344  21.891  25.843  0.0647 -0.0950  0.2684
37183DOD     C155368   4.661  29.301  17.340 -0.1915  0.5747  0.0252
37183DOD     C255369   4.799  29.728  17.208 -0.5725  0.0165  0.1085
37183DOD     C355370   4.704  30.180  17.138  0.2076 -0.0665  0.1000
37184DOD     C155371   2.901  14.168  23.953 -0.0448 -0.0817 -0.0661
37184DOD     C255372   2.639  14.293  24.336 -0.1661 -0.0972 -0.1085
37184DOD     C355373   2.610  14.599  24.626 -0.2929  0.1883  0.2488
37185DOD     C155374  18.776   7.446  16.130 -0.0300 -0.2686 -0.2983
37185DOD     C255375  18.720   7.817  15.865  0.2274  0.1887  0.0447
37185DOD     C355376  18.552   8.273  15.899  0.0041  0.2575  0.0247
37186DOD     C155377   4.012   7.380   3.374  0.1259  0.1888  0.2793
37186DOD     C255378   3.730   6.990   3.327 -0.2573  0.4405 -0.4303
37186DOD     C355379   3.482   6.590   3.343 -0.0050  0.2197  0.1136
37187DOD     C155380  19.368   6.248  21.771  0.0623  0.1382  0.0616
37187DOD     C255381  19.837   6.089  21.598 -0.0309  0.2046 -0.0435
37187DOD     C355382  20.132   6.437  21.353 -0.0710  0.0073 -0.2447
37188DOD     C155383  23.095   3.099   4.916  0.2331 -0.6901  0.0517
37188DOD     C255384  22.979   3.539   5.109  0.2808 -0.0443 -0.1558
37188DOD     C355385  23.291   3.839   5.188 -0.1705 -0.4691 -0.0826
37189DOD     C155386  27.455  14.406  29.757 -0.0232 -0.1896  0.0455
37189DOD     C255387  27.105  14.776  29.735  0.0051  0.1229  0.1248
37189DOD     C355388  26.765  14.924  29.528 -0.2217 -0.1606  0.0297
37190DOD     C155389  21.240  23.428   5.395  0.3269  0.2527  0.0342
37190DOD     C255390  20.926  23.482   5.110  0.1074  0.2507 -0.1743
37190DOD     C355391  20.598  23.470   4.777  0.1218 -0.3546  0.3364
37191DOD     C155392  25.729  25.238   1.735 -0.1157 -0.1349 -0.0162
37191DOD     C255393  26.221  25.260   1.656 -0.0722  0.0271  0.1062
37191DOD     C355394  26.416  24.888   1.391  0.3518 -0.0280  0.1213
37192DOD     C155395  17.272  14.939   4.415  0.0199  0.1242  0.0188
37192DOD     C255396  17.441  15.310   4.365 -0.0243  0.1591 -0.4133
37192DOD     C355397  17.835  15.535   4.487 -0.1372 -0.0940  0.2238
37193DOD     C155398  13.582  26.719   8.926  0.0315  0.2957  0.0433
37193DOD     C255399  13.296  26.329   9.065 -0.0003 -0.1376 -0.0307
37193DOD     C355400  12.852  26.297   9.202 -0.0972 -0.1836 -0.1927
37194DOD     C155401  29.986  16.918   5.781  0.1096  0.2512 -0.1723
37194DOD     C255402  -0.002  17.161   6.001 -0.0086  0.2161  0.1423
37194DOD     C355403   0.361  17.468   5.887 -0.0784  0.2375  0.0167
37195DOD     C155404  11.440  21.086   6.524  0.0101  0.0182  0.3228
37195DOD     C255405  10.969  20.977   6.504 -0.1507  0.1222  0.3079
37195DOD     C355406  10.634  21.160   6.742  0.0035 -0.0784  0.0707
37196DOD     C155407  21.274   5.111  25.473  0.3491  0.0691  0.1136
37196DOD     C255408  21.313   4.644  25.703 -0.6123  0.0344 -0.1697
37196DOD     C355409  21.463   4.276  25.914  0.2379  0.0135 -0.0674
37197DOD     C155410   9.570  13.966  19.903 -0.1524 -0.0671  0.0799
37197DOD     C255411   9.566  13.529  19.898  0.2589  0.4115  0.0778
37197DOD     C355412   9.739  13.311  19.578  0.0026 -0.1552  0.1872
37198DOD     C155413   6.943  15.304  23.221  0.0162  0.2447 -0.0170
37198DOD     C255414   7.350  15.220  22.942 -0.3017  0.2591  0.0357
37198DOD     C355415   7.517  15.460  22.574  0.1051 -0.1129  0.0382
37199DOD     C155416   0.103   4.723  23.275  0.1534 -0.0839  0.1696
37199DOD     C255417  30.144   4.849  22.948  0.1514  0.0145  0.0247
37199DOD     C355418  29.736   4.911  22.812  0.0608  0.1103  0.2190
37200DOD     C155419   1.233  14.830  16.209 -0.1070 -0.1805 -0.2213
37200DOD     C255420   1.596  15.076  16.288  0.1791 -0.1813 -0.0196
37200DOD     C355421   1.943  14.992  16.544  0.1592  0.1316 -0.1584
37201DOD     C155422  12.142   9.530  10.032  0.0274 -0.0354 -0.1875
37201DOD     C255423  11.900   9.177  10.150 -0.2895  0.4332  0.1442
37201DOD     C355424  11.734   8.762  10.234 -0.0763 -0.0925  0.3681
37202DOD     C155425  25.050   4.701  21.920 -0.0266 -0.3803 -0.1438
37202DOD     C255426  24.791   4.430  22.220  0.0659 -0.1349 -0.0347
37202DOD     C355427  24.563   4.126  22.380  0.2155  0.0055 -0.0793
37203DOD     C155428  21.264  16.731  14.792 -0.0829  0.0499 -0.3370
37203DOD     C255429  21.508  16.518  14.454 -0.1123  0.2388 -0.1773
37203DOD     C355430  21.751  16.675  14.115 -0.1044 -0.1150  0.0015
37204DOD     C155431  13.680   3.020  29.517 -0.1423 -0.2236 -0.1246
37204DOD     C255432  13.761   3.470  29.724  0.0588 -0.1936  0.3233
37204DOD     C355433  14.023   3.869  29.656  0.1565  0.0104  0.0276
37205DOD     C155434  18.495  23.888  22.346  0.2718  0.0804 -0.0752
37205DOD     C255435  18.780  23.524  22.134  0.0638 -0.0611  0.0267
37205DOD     C355436  18.838  23.080  22.016 -0.0784  0.3926  0.1355
37206DOD     C155437  11.935  23.654  28.934 -0.1100 -0.1758 -0.2510
37206DOD     C255438  12.334  23.917  29.109  0.0842  0.1245  0.0777
37206DOD     C355439  12.742  23.872  29.244 -0.1963  0.2135 -0.1578
37207DOD     C155440  12.436  16.914  29.983  0.0358 -0.2096 -0.1999
37207DOD     C255441  12.785  16.572  30.002 -0.0629  0.2091  0.2100
37207DOD     C355442  13.054  16.225  30.026  0.0661 -0.1572  0.0965
37208DOD     C155443   3.225   8.288  13.675  0.1384  0.0386 -0.0353
37208DOD     C255444   2.835   8.489  13.447 -0.0214 -0.1241 -0.3225
37208DOD     C355445   2.600   8.866  13.284  0.0705  0.0917  0.2306
37209DOD     C155446   4.421   8.738   3.050 -0.2004  0.0696  0.0939
37209DOD     C255447   4.513   8.366   3.342 -0.3875 -0.0551 -0.1105
37209DOD     C355448   4.656   7.875   3.321  0.0032 -0.0939  0.0778
37210DOD     C155449   9.760   5.926   4.965 -0.2379 -0.1150 -0.2943
37210DOD     C255450   9.516   5.827   5.380  0.1883  0.1188  0.1523
37210DOD     C355451   9.227   5.644   5.645 -0.0607  0.1395  0.1560
37211DOD     C155452  20.584   3.834   8.554 -0.4199  0.1567  0.1805
37211DOD     C255453  20.526   4.244   8.331 -0.3603 -0.4269 -0.1483
37211DOD     C355454  20.349   4.364   7.901  0.3629  0.0414 -0.1603
37212DOD     C155455   1.966  16.782   5.440  0.0414  0.2254 -0.0033
37212DOD     C255456   1.964  16.316   5.478  0.3143 -0.0459  0.1121
37212DOD     C355457   2.091  15.990   5.142 -0.1502  0.3076 -0.1897
37213DOD     C155458   0.432  29.545   6.389  0.4079  0.2831 -0.1055
37213DOD     C255459  30.279  29.313   6.379  0.1324 -0.0311  0.3325
37213DOD     C355460  30.248  29.012   6.103  0.0300  0.4849  0.0724
37214DOD     C155461  23.004  24.564  21.741  0.4434  0.0690 -0.1984
37214DOD     C255462  22.767  24.208  21.857  0.3672  0.2522  0.3279
37214DOD     C355463  22.861  23.865  22.017 -0.1046  0.0634 -0.2236
37215DOD     C155464  12.873  18.343  16.621 -0.0985 -0.0774 -0.2224
37215DOD     C255465  13.078  18.357  16.220 -0.1289 -0.0162 -0.0724
37215DOD     C355466  13.237  18.039  15.970  0.2017  0.1528  0.1265
37216DOD     C155467  13.145   6.085  29.693  0.0717  0.0079 -0.2633
37216DOD     C255468  13.186   6.417  29.372 -0.1457  0.0197 -0.2615
37216DOD     C355469  12.988   6.675  28.998  0.3885  0.0439 -0.0316
37217DOD     C155470  18.240  13.933  18.144  0.0843 -0.0970  0.0368
37217DOD     C255471  17.929  13.635  18.338 -0.2608  0.1076 -0.0996
37217DOD     C355472  17.856  13.200  18.163  0.0185 -0.3020  0.0021
37218DOD     C155473  28.028  11.636  25.204  0.3962  0.1841 -0.0408
37218DOD     C255474  27.661  11.477  24.998 -0.3336 -0.0977 -0.3920
37218DOD     C355475  27.403  11.621  24.662  0.0092 -0.0713 -0.1018
37219DOD     C155476  22.328  15.263   2.623 -0.0887  0.0545 -0.3688
37219DOD     C255477  22.108  15.071   2.948 -0.0527 -0.0849 -0.1076
37219DOD     C355478  21.910  14.658   2.958  0.2512 -0.0671  0.0129
37220DOD     C155479  12.743  27.765   2.610  0.0043 -0.0160 -0.4114
37220DOD     C255480  12.337  27.683   2.473 -0.1974 -0.1625  0.0308
37220DOD     C355481  12.151  27.313   2.330 -0.0672  0.1243  0.0933
37221DOD     C155482  16.297  12.050   6.584  0.2883  0.1192 -0.0763
37221DOD     C255483  16.305  11.851   6.991  0.3106  0.2252 -0.3824
37221DOD     C355484  16.089  11.716   7.410 -0.2921 -0.1652  0.1081
37222DOD     C155485   2.429  25.744  23.214  0.1418 -0.1738 -0.1775
37222DOD     C255486   2.788  25.851  22.950 -0.3578  0.0104 -0.0415
37222DOD     C355487   2.960  26.163  22.778  0.1424 -0.0340  0.0835
37223DOD     C155488  11.247  21.826  20.045  0.2481  0.0903 -0.0956
37223DOD     C255489  11.472  22.084  19.704  0.0287  0.0156 -0.2860
37223DOD     C355490  11.408  21.991  19.243 -0.0509  0.0222  0.3871
37224DOD     C155491   2.066  22.622  14.921 -0.0007  0.1201  0.1045
37224DOD     C255492   2.167  23.006  14.681  0.3718 -0.3599 -0.0307
37224DOD     C355493   2.113  23.493  14.757 -0.0809  0.0161  0.1636
37225DOD     C155494  29.961   4.200  22.112  0.0532  0.1113  0.0228
37225DOD     C255495  29.709   3.888  22.415  0.1345  0.1198 -0.1840
37225DOD     C355496  29.311   3.642  22.628  0.2375 -0.0828 -0.0251
37226DOD     C155497  13.588  29.850  21.714  0.3367  0.0365 -0.1162
37226DOD     C255498  13.886  29.986  22.063  0.2765  0.1562 -0.0704
37226DOD     C355499  14.172  29.876  22.432 -0.1686  0.0580  0.3225
37227DOD     C155500  23.015  15.544  21.291  0.0600  0.1263  0.0408
37227DOD     C255501  23.039  15.412  20.845 -0.2001  0.1226 -0.3272
37227DOD     C355502  23.105  15.162  20.437 -0.0783 -0.0175  0.0398
37228DOD     C155503  23.285   7.795  10.176 -0.0200  0.1162  0.0432
37228DOD     C255504  23.113   8.130   9.993 -0.2653  0.1118 -0.1763
37228DOD     C355505  22.795   8.260   9.720 -0.1637  0.1180  0.1243
37229DOD     C155506  10.595   3.939   6.783  0.2587  0.1213 -0.0080
37229DOD     C255507  11.035   3.907   6.869  0.1492  0.0516  0.0617
37229DOD     C355508  11.408   3.567   6.780  0.1775  0.1201  0.3457
37230DOD     C155509  18.879   3.351   8.015 -0.1504  0.1756 -0.3383
37230DOD     C255510  18.680   3.663   8.347  0.1816 -0.0574 -0.3566
37230DOD     C355511  18.666   4.160   8.508  0.0058  0.0398 -0.1055
37231DOD     C155512  23.167   0.507   1.151 -0.2116  0.2482  0.2552
37231DOD     C255513  23.490   0.632   0.794 -0.0405 -0.0831  0.1360
37231DOD     C355514  23.751   0.960   0.592  0.0069 -0.0117 -0.4040
37232DOD     C155515  13.577  27.018   0.574 -0.1567  0.0470  0.0464
37232DOD     C255516  13.895  26.882   0.890 -0.0689 -0.0922  0.0290
37232DOD     C355517  14.302  27.006   1.036 -0.3313  0.0079 -0.0532
37233DOD     C155518  24.497  11.968   5.165  0.3064  0.0385 -0.1083
37233DOD     C255519  24.244  11.570   5.291 -0.0987 -0.1643 -0.2994
37233DOD     C355520  24.205  11.250   5.634 -0.3318  0.1445 -0.3640
37234DOD     C155521  11.703   0.812  13.523  0.1805 -0.0197 -0.2742
37234DOD     C255522  11.974   0.373  13.532 -0.1106  0.0961  0.2923
37234DOD     C355523  12.207   0.023  13.701 -0.1232 -0.0245 -0.0421
37235DOD     C155524  23.084   3.336  16.294  0.5568 -0.0330  0.1330
37235DOD     C255525  22.749   3.433  15.884 -0.0556 -0.0810  0.0553
37235DOD     C355526  22.293   3.379  15.789 -0.1085 -0.1855  0.0749
37236DOD     C155527  13.198  23.627  24.772  0.0266 -0.0787  0.0528
37236DOD     C255528  13.486  23.332  24.956 -0.1193  0.0818  0.1429
37236DOD     C355529  13.748  22.955  25.001  0.2757 -0.2009  0.1151
37237DOD     C155530   8.726  19.557  11.785  0.1487  0.0079 -0.2915
37237DOD     C255531   8.668  19.108  11.539 -0.1569  0.1222  0.1484
37237DOD     C355532   8.855  18.692  11.486 -0.0846 -0.1603 -0.0747
37238DOD     C155533  12.091   9.370  19.498  0.0955 -0.0318  0.2550
37238DOD     C255534  12.419   9.128  19.226 -0.2832  0.0404 -0.2835
37238DOD     C355535  12.807   9.033  19.026  0.2513  0.1471 -0.0291
37239DOD     C155536   9.405  21.698   8.234  0.1169 -0.1919  0.0638
37239DOD     C255537   9.561  21.343   8.044  0.0097 -0.0540  0.2304
37239DOD     C355538   9.805  21.108   7.721  0.1050 -0.2894  0.2531
37240DOD     C155539  27.822  17.890  14.928 -0.0025  0.0454  0.0125
37240DOD     C255540  27.506  17.726  15.178  0.2257 -0.5102 -0.0530
37240DOD     C355541  27.078  17.618  15.314 -0.0120  0.1917 -0.1865
37241DOD     C155542  19.127  20.642  22.503 -0.0178  0.0695 -0.2000
37241DOD     C255543  18.772  20.908  22.413  0.1000 -0.1571  0.1882
37241DOD     C355544  18.423  21.286  22.423 -0.3426  0.3525 -0.0627
37242DOD     C155545  11.048  12.431   2.405  0.0611  0.0468 -0.2224
37242DOD     C255546  10.602  12.613   2.446  0.0257 -0.0220 -0.0064
37242DOD     C355547  10.139  12.731   2.477 -0.1093 -0.1308  0.0017
37243DOD     C155548   4.048  23.285  16.567 -0.0675  0.0607  0.1262
37243DOD     C255549   4.219  22.893  16.782 -0.2689  0.2724  0.0500
37243DOD     C355550   4.553  22.538  16.697  0.0366  0.0767 -0.2279
37244DOD     C155551  21.187  21.728  28.118  0.0941 -0.0492  0.2867
37244DOD     C255552  20.959  21.837  28.501 -0.0371 -0.2923 -0.1859
37244DOD     C355553  20.839  22.158  28.772  0.0322 -0.0766  0.0937
37245DOD     C155554   5.455  30.172   7.011 -0.0719  0.3078 -0.0987
37245DOD     C255555   5.016  30.347   7.143 -0.0973  0.1491  0.1764
37245DOD     C355556   4.570   0.119   7.323 -0.0255  0.0212  0.2576
37246DOD     C155557  16.705   8.459  15.554  0.0096  0.1929  0.4427
37246DOD     C255558  16.586   8.765  15.179 -0.1484  0.2321  0.1359
37246DOD     C355559  16.357   8.601  14.826 -0.3591  0.0207 -0.1100
37247DOD     C155560  12.247  17.687  20.653  0.0628  0.0492  0.1152
37247DOD     C255561  12.449  17.243  20.683  0.0586  0.2676 -0.1668
37247DOD     C355562  12.334  16.785  20.672 -0.0112 -0.0969 -0.1781
37248DOD     C155563  15.149   8.550  10.622 -0.0183  0.1902 -0.1486
37248DOD     C255564  15.073   8.164  10.938  0.3047  0.0075  0.1501
37248DOD     C355565  14.902   8.088  11.358  0.1264 -0.1354  0.0236
37249DOD     C155566   6.470  12.116   4.858 -0.1206  0.4026  0.0145
37249DOD     C255567   6.743  11.951   4.530 -0.0097 -0.0600  0.2294
37249DOD     C355568   7.137  12.070   4.296 -0.2809 -0.1135 -0.1143
37250DOD     C155569  27.107  12.760  19.889  0.2702  0.0208  0.0736
37250DOD     C255570  26.841  12.925  19.504  0.1150 -0.3664 -0.1486
37250DOD     C355571  26.387  12.990  19.392 -0.2299 -0.1661 -0.2485
37251DOD     C155572  17.528  21.941   9.939  0.2161 -0.1515  0.1068
37251DOD     C255573  17.569  21.687  10.286 -0.0088  0.2848 -0.2761
37251DOD     C355574  17.484  21.732  10.772 -0.0283  0.1284  0.0612
37252DOD     C155575  15.695  24.264   6.328  0.2572  0.0921  0.0229
37252DOD     C255576  16.153  24.234   6.258  0.0807 -0.2674 -0.0747
37252DOD     C355577  16.568  24.453   6.156 -0.3587 -0.0083  0.1333
37253DOD     C155578   1.083   2.537  20.869 -0.0774 -0.3038  0.0630
37253DOD     C255579   0.967   2.568  20.332  0.2677 -0.0481 -0.3550
37253DOD     C355580   0.603   2.761  20.087  0.3367  0.1274  0.1563
37254DOD     C155581  29.663   6.700   7.886  0.0313  0.2253  0.2062
37254DOD     C255582  29.737   6.587   7.441 -0.2710 -0.2326 -0.0359
37254DOD     C355583  29.733   6.554   6.956 -0.0203 -0.0568  0.0910
37255DOD     C155584  17.473   5.605   0.293 -0.0556 -0.0895  0.2682
37255DOD     C255585  17.506   5.125   0.286  0.0996 -0.4374  0.0219
37255DOD     C355586  17.074   4.965   0.279  0.1010  0.0369  0.2252
37256DOD     C155587   3.411  22.871   9.020  0.0934  0.0517 -0.1745
37256DOD     C255588   3.393  22.473   9.269 -0.0100  0.2194 -0.0803
37256DOD     C355589   3.459  22.265   9.672  0.0554 -0.2376  0.1888
37257DOD     C155590  28.810  21.260  23.652 -0.0939 -0.1989  0.2486
37257DOD     C255591  28.543  21.548  23.385  0.2016  0.1156 -0.2114
37257DOD     C355592  28.232  21.893  23.486 -0.0080  0.2683 -0.1028
37258DOD     C155593   9.613   7.800   6.738 -0.2419 -0.0357  0.0476
37258DOD     C255594  10.030   7.494   6.848  0.0091 -0.1976  0.0069
37258DOD     C355595  10.511   7.463   6.891 -0.1292  0.2945  0.0210
37259DOD     C155596  25.542   5.636  25.554  0.2535 -0.0765 -0.1418
37259DOD     C255597  25.365   5.298  25.765 -0.1404 -0.1436 -0.1713
37259DOD     C355598  25.269   4.855  25.759  0.0383 -0.2463  0.2115
37260DOD     C155599   9.593  27.900   2.767 -0.1687  0.3114  0.1621
37260DOD     C255600   9.723  27.996   2.321 -0.1654 -0.0989 -0.2393
37260DOD     C355601   9.747  28.325   1.976 -0.0539 -0.0041  0.2640
37261DOD     C155602  21.621  18.820  25.719  0.0842  0.3400 -0.1535
37261DOD     C255603  21.295  19.065  25.946  0.1536 -0.1729  0.2739
37261DOD     C355604  21.406  19.535  26.039 -0.2004  0.2127  0.2792
37262DOD     C155605   6.468  25.657   1.660 -0.2396  0.1875  0.3031
37262DOD     C255606   6.589  25.763   1.240 -0.3836  0.0834  0.1359
37262DOD     C355607   6.572  25.932   0.798 -0.2519  0.2477 -0.3377
37263DOD     C155608  10.154   6.430  10.773 -0.1954  0.1285  0.0639
37263DOD     C255609   9.872   6.454  10.441  0.0547  0.2012 -0.1755
37263DOD     C355610   9.690   6.372   9.992 -0.0614 -0.1951  0.0390
37264DOD     C155611  18.368   3.893   7.541  0.0212 -0.2215  0.1733
37264DOD     C255612  18.114   4.253   7.637  0.0430  0.0898  0.3270
37264DOD     C355613  17.978   4.668   7.621  0.2078  0.2088  0.3759
37265DOD     C155614  17.164   1.309  17.545 -0.0144  0.3482  0.0987
37265DOD     C255615  17.335   0.967  17.825  0.1051  0.1739  0.3275
37265DOD     C355616  17.424   0.695  18.224 -0.3617 -0.1442 -0.0437
37266DOD     C155617   8.894   7.845   0.830 -0.0724  0.0771 -0.2211
37266DOD     C255618   9.306   7.774   0.545 -0.2093  0.3792  0.0492
37266DOD     C355619   9.556   7.425   0.417 -0.0859 -0.0339  0.4623
37267DOD     C155620  19.136  14.663  24.699 -0.4555 -0.0898  0.3029
37267DOD     C255621  18.977  14.919  24.387  0.0373 -0.0865  0.2022
37267DOD     C355622  18.925  15.274  24.134  0.2003 -0.0775 -0.1016
37268DOD     C155623  17.726  24.693   2.853 -0.0094 -0.0639  0.0773
37268DOD     C255624  17.326  24.741   3.109 -0.3675  0.0706  0.4659
37268DOD     C355625  17.128  24.447   3.485 -0.0995  0.1784  0.1174
37269DOD     C155626   8.299   1.344  26.739  0.1546  0.2534 -0.0375
37269DOD     C255627   8.031   1.361  27.122 -0.0485  0.2277 -0.1562
37269DOD     C355628   7.744   1.035  27.334 -0.1160 -0.3040 -0.0128
37270DOD     C155629  26.424  22.456  23.001  0.0262 -0.1526 -0.0916
37270DOD     C255630  26.375  22.774  22.650 -0.1836 -0.0953 -0.0711
37270DOD     C355631  26.269  23.138  22.382 -0.1430  0.0049  0.0076
37271DOD     C155632  23.260  16.122  22.482 -0.0490  0.3167  0.4352
37271DOD     C255633  22.960  15.879  22.780  0.0510 -0.0208 -0.0957
37271DOD     C355634  22.573  15.564  22.793 -0.0900 -0.1634  0.2802
37272DOD     C155635  15.780   3.964   8.279  0.2085 -0.3411  0.1680
37272DOD     C255636  16.141   3.887   8.589  0.3428 -0.0240 -0.1577
37272DOD     C355637  16.570   3.856   8.552  0.1915  0.1751  0.1009
37273DOD     C155638  20.691   1.349   4.166  0.1801 -0.1507  0.2663
37273DOD     C255639  20.541   0.947   4.163  0.0239 -0.0623 -0.1361
37273DOD     C355640  20.154   0.671   4.186 -0.3368 -0.3613  0.0039
37274DOD     C155641  19.717   2.822  24.816  0.1794  0.3109 -0.0106
37274DOD     C255642  19.321   2.863  24.977 -0.4749  0.0072 -0.0156
37274DOD     C355643  18.892   2.728  24.930 -0.3418 -0.4332  0.1249
37275DOD     C155644  13.136   0.254  25.561 -0.0426  0.1931  0.0812
37275DOD     C255645  12.694   0.157  25.630  0.2242 -0.2506  0.1300
37275DOD     C355646  12.303   0.155  25.860 -0.1140  0.1136  0.0324
37276DOD     C155647  29.547  23.486  14.684 -0.0805 -0.4437  0.0734
37276DOD     C255648  29.319  23.295  15.055 -0.0999 -0.0368 -0.1240
37276DOD     C355649  29.467  23.106  15.476  0.0445  0.0164 -0.0030
37277DOD     C155650  22.198  22.540  13.238 -0.0819  0.3919  0.0594
37277DOD     C255651  21.990  22.859  12.970 -0.1114  0.4450 -0.3903
37277DOD     C355652  22.149  23.196  12.673 -0.0574  0.0279  0.2955
37278DOD     C155653  19.577   7.899  18.985  0.3662  0.2729  0.1181
37278DOD     C255654  19.695   7.933  19.447 -0.2633 -0.3046  0.2081
37278DOD     C355655  19.785   7.937  19.891  0.0836 -0.2358  0.0267
37279DOD     C155656   6.667   5.523  18.676 -0.0310 -0.0898 -0.0645
37279DOD     C255657   6.519   5.213  19.008 -0.0531  0.1337  0.3328
37279DOD     C355658   6.158   4.927  18.910  0.0719  0.1022  0.1260
37280DOD     C155659   3.525  28.419   7.356 -0.2161  0.0553  0.0040
37280DOD     C255660   3.156  28.270   7.107 -0.0287  0.1311  0.0373
37280DOD     C355661   2.730  28.141   6.915 -0.1007 -0.2612 -0.0067
37281DOD     C155662  17.745  19.210  25.873  0.2710  0.1688 -0.0562
37281DOD     C255663  17.920  19.063  26.303  0.0744 -0.1391  0.3161
37281DOD     C355664  17.949  18.975  26.762 -0.0404  0.0796 -0.1402
37282DOD     C155665  19.666  20.900  14.143 -0.0479 -0.0720  0.2463
37282DOD     C255666  19.756  20.481  14.296 -0.4039 -0.0374  0.4579
37282DOD     C355667  19.926  20.159  13.950 -0.0547 -0.0058 -0.1175
37283DOD     C155668  17.520   1.725  22.251 -0.1225 -0.0441  0.0647
37283DOD     C255669  17.327   1.537  21.846  0.0831  0.0415 -0.3567
37283DOD     C355670  17.098   1.590  21.449  0.0078  0.4374 -0.1076
37284DOD     C155671   1.376  17.916   3.041  0.4081 -0.0533 -0.0361
37284DOD     C255672   1.834  17.852   3.089  0.1910  0.1213  0.0528
37284DOD     C355673   2.258  17.934   2.954 -0.1140 -0.1933 -0.1200
37285DOD     C155674  11.787  18.256  16.795 -0.2298  0.1174 -0.3818
37285DOD     C255675  11.554  18.350  17.217 -0.2094  0.1266  0.0479
37285DOD     C355676  11.559  18.146  17.629 -0.0311  0.2096 -0.0748
37286DOD     C155677  18.746  20.638  22.004  0.2593 -0.4636  0.0587
37286DOD     C255678  18.381  20.458  22.279 -0.2234 -0.0040  0.1155
37286DOD     C355679  18.147  20.358  22.659 -0.0699 -0.0961  0.1763
37287DOD     C155680  25.868  20.032  22.212  0.0427  0.0168 -0.0254
37287DOD     C255681  25.876  19.577  22.176 -0.0277  0.0120 -0.3982
37287DOD     C355682  25.813  19.172  22.380 -0.2203  0.1650  0.5174
37288DOD     C155683  12.554  22.871   7.489 -0.0761  0.0536  0.0160
37288DOD     C255684  12.607  23.179   7.089 -0.1947  0.2314 -0.2279
37288DOD     C355685  12.945  23.478   6.885 -0.1772 -0.1196  0.1654
37289DOD     C155686  18.853  24.456   3.593  0.1290  0.2167  0.0773
37289DOD     C255687  18.723  24.297   3.975  0.1786 -0.2079  0.1849
37289DOD     C355688  18.819  23.953   4.300 -0.0690  0.1567 -0.0242
37290DOD     C155689  15.675   9.118   7.250  0.0558 -0.1158  0.1032
37290DOD     C255690  16.105   9.105   7.106 -0.3238 -0.1071 -0.0026
37290DOD     C355691  16.575   9.085   6.944  0.4424 -0.0074  0.3617
37291DOD     C155692   6.743  12.049  24.984  0.0921 -0.1501 -0.1057
37291DOD     C255693   7.195  12.129  24.872 -0.0475  0.0552 -0.0856
37291DOD     C355694   7.678  12.292  24.881  0.1708  0.0387 -0.1751
37292DOD     C155695   7.392  10.734  29.548  0.1052 -0.3936 -0.1172
37292DOD     C255696   7.472  11.187  29.386  0.1472 -0.0477 -0.0286
37292DOD     C355697   7.518  11.468  29.016 -0.2907 -0.1206  0.2393
37293DOD     C155698  20.689   5.913  11.274 -0.2142 -0.1041 -0.0337
37293DOD     C255699  20.935   6.284  11.217  0.3761  0.1632  0.1870
37293DOD     C355700  21.149   6.448  10.823 -0.0279 -0.1096 -0.3530
37294DOD     C155701  11.323  26.947  26.963  0.0561  0.0965 -0.0793
37294DOD     C255702  11.316  27.393  27.092 -0.1906 -0.1571 -0.2826
37294DOD     C355703  11.182  27.793  27.236  0.1024  0.1402  0.0305
37295DOD     C155704   8.981  22.185   0.477  0.0227  0.0101 -0.2331
37295DOD     C255705   9.268  21.943   0.734 -0.2571 -0.1725  0.0845
37295DOD     C355706   9.516  21.798   1.171 -0.4131 -0.2238 -0.2667
37296DOD     C155707  10.805  26.495  24.939  0.0261  0.1743  0.0860
37296DOD     C255708  10.816  26.645  25.407 -0.3234  0.0649 -0.4014
37296DOD     C355709  10.929  26.794  25.861  0.0417 -0.2254  0.0907
37297DOD     C155710  15.551  23.936  28.983 -0.1677 -0.0961 -0.2379
37297DOD     C255711  15.825  23.622  28.781  0.2162 -0.1413  0.1819
37297DOD     C355712  16.255  23.471  28.648  0.3463 -0.0053 -0.0914
37298DOD     C155713  29.660  11.065  10.278  0.1350  0.0335 -0.0491
37298DOD     C255714  29.692  10.607  10.397  0.2040 -0.2667  0.0433
37298DOD     C355715  29.940  10.526  10.710 -0.2655  0.1886 -0.1179
37299DOD     C155716  20.402  25.521   2.823  0.0592  0.0382  0.0386
37299DOD     C255717  20.808  25.458   2.695 -0.1115  0.2235  0.0869
37299DOD     C355718  21.229  25.525   2.856 -0.0521 -0.1587 -0.2918
37300DOD     C155719   4.732  19.540  11.538  0.0076 -0.0451 -0.2914
37300DOD     C255720   4.350  19.406  11.438  0.2611 -0.2095  0.0123
37300DOD     C355721   4.160  18.996  11.401  0.3715 -0.4457 -0.1160
37301DOD     C155722  14.490  12.267  14.981 -0.0792  0.2983 -0.2405
37301DOD     C255723  14.501  12.723  14.846 -0.1663 -0.1096 -0.2329
37301DOD     C355724  14.509  13.190  14.699  0.0224  0.0161  0.2434
37302DOD     C155725  19.880  20.828   5.989 -0.1669 -0.0628  0.0017
37302DOD     C255726  20.336  20.749   6.017  0.2117  0.1479  0.0704
37302DOD     C355727  20.675  20.441   6.175 -0.4438  0.2382 -0.0215
37303DOD     C155728  19.278   0.978  23.664  0.0488  0.0588  0.2154
37303DOD     C255729  19.094   0.915  24.131 -0.4223 -0.2199  0.0362
37303DOD     C355730  19.205   1.079  24.559  0.0382 -0.0591  0.0841
37304DOD     C155731   1.551  26.964  29.213 -0.1500 -0.3115 -0.0334
37304DOD     C255732   1.830  26.719  28.948 -0.0789 -0.0048  0.0175
37304DOD     C355733   1.586  26.364  28.856  0.1159 -0.0223 -0.0066
37305DOD     C155734   5.110   1.219   3.188 -0.1865  0.2005 -0.1814
37305DOD     C255735   4.895   1.361   3.626  0.1202  0.2551  0.0769
37305DOD     C355736   5.040   1.619   3.981  0.0000  0.1245 -0.0556
37306DOD     C155737  14.630  16.955  12.855  0.1088 -0.1554 -0.0609
37306DOD     C255738  14.827  16.568  12.948  0.1123 -0.0870 -0.1356
37306DOD     C355739  14.632  16.093  12.832  0.0899 -0.1706 -0.2238
37307DOD     C155740  26.434  24.883  26.448  0.1350  0.1763  0.0626
37307DOD     C255741  26.777  24.694  26.677 -0.0412 -0.0079 -0.0863
37307DOD     C355742  27.220  24.726  26.623  0.3239  0.0559  0.0737
37308DOD     C155743  19.047  21.871  19.192 -0.1287  0.3077  0.2631
37308DOD     C255744  18.891  21.712  18.751 -0.0230 -0.2508 -0.0654
37308DOD     C355745  19.133  21.940  18.416 -0.1176  0.0378 -0.4057
37309DOD     C155746  28.632  14.296  23.297  0.0236 -0.0754  0.0229
37309DOD     C255747  28.218  14.123  23.402 -0.1449 -0.1207  0.2525
37309DOD     C355748  27.734  14.009  23.432  0.0156 -0.1450  0.3025
37310DOD     C155749   2.155   3.882  22.035  0.1345  0.1080 -0.3944
37310DOD     C255750   1.806   4.024  22.238  0.0583  0.3385  0.0282
37310DOD     C355751   1.579   3.845  22.630 -0.0779  0.0259 -0.0410
37311DOD     C155752   7.528   9.851  21.946 -0.3144 -0.0740 -0.3044
37311DOD     C255753   7.542  10.287  21.729 -0.3325 -0.2271 -0.0364
37311DOD     C355754   7.329  10.476  21.295 -0.3789  0.1425  0.0626
37312DOD     C155755  13.696  14.689   1.808  0.1942 -0.4497 -0.0060
37312DOD     C255756  13.897  14.879   1.398  0.1288 -0.0647  0.1957
37312DOD     C355757  13.982  15.057   0.999  0.0674 -0.4858  0.4830
37313DOD     C155758  10.842  12.474  24.171  0.0661  0.1763  0.1889
37313DOD     C255759  10.953  12.434  24.678  0.1852  0.1531 -0.1511
37313DOD     C355760  10.690  12.645  25.022 -0.0798  0.1325  0.1551
37314DOD     C155761  19.362   2.350  22.180 -0.0107  0.2927  0.0742
37314DOD     C255762  19.440   2.309  21.755 -0.2486  0.2516  0.1644
37314DOD     C355763  19.726   2.104  21.414  0.2483  0.4530 -0.2632
37315DOD     C155764  25.355  25.208  13.731  0.3500  0.0916  0.1999
37315DOD     C255765  25.641  25.554  13.770  0.0408  0.2043  0.1809
37315DOD     C355766  26.001  25.500  13.438 -0.2118  0.0529 -0.1455
37316DOD     C155767   4.119  25.304  18.421  0.3164  0.0612 -0.0686
37316DOD     C255768   4.407  24.925  18.434  0.1051  0.1939 -0.0590
37316DOD     C355769   4.831  24.886  18.585 -0.1043  0.1062 -0.4253
37317DOD     C155770  26.987  17.217  15.946  0.1733  0.0024  0.2074
37317DOD     C255771  26.788  17.046  16.335  0.0453  0.0841 -0.1126
37317DOD     C355772  26.707  17.306  16.750  0.0967 -0.0618 -0.1861
37318DOD     C155773  12.947   5.059  20.958  0.1638 -0.1865 -0.2027
37318DOD     C255774  12.578   4.764  20.950  0.0461  0.2846 -0.0042
37318DOD     C355775  12.237   4.415  20.915 -0.0203 -0.3661  0.0245
37319DOD     C155776  19.599   5.139  21.431 -0.1019 -0.1205 -0.3697
37319DOD     C255777  19.168   5.008  21.435  0.0956  0.3656 -0.1816
37319DOD     C355778  18.740   5.147  21.452  0.0094  0.0268  0.3145
37320DOD     C155779  21.639   9.061  22.512  0.0551 -0.0678  0.0863
37320DOD     C255780  21.407   8.625  22.601 -0.2535 -0.2321 -0.0911
37320DOD     C355781  21.306   8.206  22.736 -0.1195 -0.0887  0.0966
37321DOD     C155782   3.244  28.172  29.588  0.1053  0.1798 -0.1825
37321DOD     C255783   3.686  28.370  29.611 -0.0431 -0.2321 -0.0256
37321DOD     C355784   3.576  28.741  29.896  0.0416  0.2322  0.0442
37322DOD     C155785   9.945  29.781  20.478  0.0294  0.0568  0.0685
37322DOD     C255786   9.807  29.349  20.670 -0.0650 -0.1473 -0.1052
37322DOD     C355787   9.708  28.931  20.820 -0.0687 -0.0477 -0.3246
37323DOD     C155788  19.951   4.463   7.592 -0.0424  0.1986 -0.1152
37323DOD     C255789  20.263   4.794   7.450  0.0030 -0.0496 -0.0586
37323DOD     C355790  20.688   4.775   7.283 -0.2312  0.2315 -0.0978
37324DOD     C155791  16.855  28.420  14.770 -0.4372 -0.0663  0.1124
37324DOD     C255792  17.345  28.449  14.764  0.0297  0.1890 -0.2419
37324DOD     C355793  17.570  28.086  14.602 -0.3246 -0.1115  0.2630
37325DOD     C155794  13.144  24.976  26.569 -0.2588 -0.1984 -0.1630
37325DOD     C255795  12.823  24.733  26.838 -0.0678 -0.0933 -0.0047
37325DOD     C355796  12.411  24.722  27.065  0.0560  0.1377  0.1285
37326DOD     C155797  30.093   3.799  10.707  0.0998  0.0536 -0.2013
37326DOD     C255798   0.236   3.755  10.852 -0.2712  0.0263 -0.4572
37326DOD     C355799   0.661   3.663  11.071 -0.0546 -0.1832  0.1676
37327DOD     C155800  22.719   5.725  11.085 -0.3113  0.0030 -0.2252
37327DOD     C255801  22.830   5.815  11.515  0.3869  0.2992 -0.0468
37327DOD     C355802  22.671   6.083  11.865 -0.2406  0.3193 -0.1109
37328DOD     C155803  22.584  28.159  25.325  0.1439  0.0598  0.1969
37328DOD     C255804  22.792  27.844  25.137 -0.1008  0.0370 -0.2791
37328DOD     C355805  23.292  27.774  25.129 -0.1322  0.1120 -0.0373
37329DOD     C155806  12.506   5.501  16.551 -0.1054  0.0658 -0.2425
37329DOD     C255807  12.037   5.511  16.571  0.1356 -0.3378  0.2891
37329DOD     C355808  11.639   5.273  16.445 -0.1531 -0.3113 -0.3876
37330DOD     C155809  16.232  27.101   8.806  0.1958  0.1936 -0.0603
37330DOD     C255810  16.522  26.966   9.193 -0.1834  0.0607  0.2734
37330DOD     C355811  16.915  26.760   9.108 -0.3116  0.1827  0.2029
37331DOD     C155812  10.373   6.922  26.350 -0.0219  0.0016  0.5202
37331DOD     C255813  10.769   6.962  26.585 -0.1664 -0.0949 -0.1446
37331DOD     C355814  11.076   7.289  26.555 -0.3879 -0.0980 -0.1362
37332DOD     C155815  26.681   2.057  16.049  0.0389  0.1166 -0.1932
37332DOD     C255816  26.477   2.226  15.656 -0.0886  0.3143  0.0280
37332DOD     C355817  26.344   2.215  15.212  0.1616 -0.0578 -0.1186
37333DOD     C155818  25.605  21.232  17.082 -0.3504  0.0880  0.0164
37333DOD     C255819  25.234  21.257  17.403  0.2971  0.0532  0.2737
37333DOD     C355820  25.217  20.982  17.801 -0.3070 -0.0517 -0.3073
37334DOD     C155821  10.752  14.663  19.649  0.2128  0.0293  0.1763
37334DOD     C255822  10.867  14.463  19.224 -0.0178 -0.1325 -0.1315
37334DOD     C355823  10.988  14.369  18.760 -0.0716 -0.3837  0.0064
37335DOD     C155824   9.538   9.320   3.891  0.0719 -0.2805  0.0420
37335DOD     C255825   9.924   9.137   3.779  0.1588  0.1629  0.1038
37335DOD     C355826  10.068   8.847   3.478  0.2702 -0.1338 -0.4137
37336DOD     C155827  19.227   9.080   0.655 -0.2944 -0.1960  0.0751
37336DOD     C255828  19.202   9.410   0.327 -0.3007  0.3040 -0.1711
37336DOD     C355829  19.100   9.590  30.238  0.3036 -0.1203 -0.0140
37337DOD     C155830  24.966   6.511   7.788 -0.2884 -0.4392 -0.3288
37337DOD     C255831  24.650   6.357   8.133 -0.0193  0.3566 -0.1533
37337DOD     C355832  24.645   6.506   8.556 -0.1911  0.0460  0.1176
37338DOD     C155833  18.092   8.409  19.616  0.0651  0.1409 -0.0478
37338DOD     C255834  18.321   8.739  19.426 -0.4080 -0.1636 -0.1492
37338DOD     C355835  18.444   9.000  19.122  0.4916  0.2703 -0.3118
37339DOD     C155836   7.227  15.462  19.916 -0.1003 -0.3322 -0.1068
37339DOD     C255837   6.943  15.121  20.099 -0.0089  0.0078  0.1795
37339DOD     C355838   6.581  14.758  20.124  0.0852 -0.3791 -0.0966
37340DOD     C155839  16.087   7.315   5.709  0.1554 -0.0327 -0.0169
37340DOD     C255840  16.125   7.810   5.768 -0.0710  0.1220 -0.1056
37340DOD     C355841  15.896   8.218   5.673 -0.0275  0.3158 -0.2316
37341DOD     C155842  17.857   0.313  18.198 -0.1099 -0.1828 -0.0405
37341DOD     C255843  17.780  30.291  17.943 -0.2135 -0.0030 -0.1710
37341DOD     C355844  17.517  30.253  17.544  0.2129  0.2018 -0.0753
37342DOD     C155845   7.252  21.858   1.598  0.0728  0.0501 -0.2255
37342DOD     C255846   6.859  21.683   1.557 -0.0176  0.1568 -0.1597
37342DOD     C355847   6.433  21.562   1.570  0.0294  0.0406 -0.0447
37343DOD     C155848  16.539   8.800  29.121 -0.0865  0.0031  0.0854
37343DOD     C255849  16.498   8.320  29.119  0.1447  0.0233 -0.0468
37343DOD     C355850  16.504   7.808  29.019 -0.1848  0.0332 -0.2913
37344DOD     C155851  24.703  26.008  12.055  0.0384  0.0335 -0.1527
37344DOD     C255852  24.495  26.146  12.504 -0.1491  0.1561  0.1563
37344DOD     C355853  24.563  26.410  12.825 -0.1718  0.0192  0.1420
37345DOD     C155854  23.300   5.885   5.973 -0.0196  0.0482  0.0917
37345DOD     C255855  23.412   6.317   6.158 -0.1751 -0.0938  0.4783
37345DOD     C355856  23.389   6.647   6.449  0.0008 -0.1318 -0.0505
37346DOD     C155857  27.093   9.315  24.262 -0.2664  0.0764  0.0057
37346DOD     C255858  27.430   9.039  24.018 -0.0768 -0.3373  0.1374
37346DOD     C355859  27.561   8.573  23.993 -0.1955  0.1308  0.1002
37347DOD     C155860  21.251  28.678   1.056 -0.1093 -0.0673  0.2375
37347DOD     C255861  21.000  29.047   1.302 -0.1373  0.1912  0.3472
37347DOD     C355862  21.070  29.313   1.709  0.2320  0.0012 -0.1188
37348DOD     C155863   5.708  14.097  10.414  0.0159 -0.2135 -0.0433
37348DOD     C255864   5.704  13.809  10.806  0.0551 -0.0940 -0.3731
37348DOD     C355865   5.873  13.882  11.232  0.0195 -0.1369 -0.4490
37349DOD     C155866  22.391  25.573   5.770 -0.1810 -0.1400  0.2468
37349DOD     C255867  21.984  25.326   5.697 -0.1516  0.2319  0.1601
37349DOD     C355868  21.649  25.119   5.470  0.2037 -0.3080  0.0334
37350DOD     C155869  14.230   8.546  19.049 -0.1515  0.0027  0.2129
37350DOD     C255870  14.577   8.836  18.907 -0.0342  0.0271  0.4441
37350DOD     C355871  14.626   9.313  18.889 -0.2083 -0.1039  0.0963
37351DOD     C155872   5.624  19.433   6.540  0.0505  0.0373 -0.0181
37351DOD     C255873   5.351  19.183   6.277  0.0898 -0.0862  0.1719
37351DOD     C355874   5.147  18.869   6.057  0.0411 -0.2808 -0.1481
37352DOD     C155875   3.758  29.122  11.099 -0.0502 -0.1483  0.2785
37352DOD     C255876   3.906  28.730  11.293 -0.0069 -0.0113 -0.2059
37352DOD     C355877   4.212  28.605  11.685  0.3776 -0.2074 -0.0744
37353DOD     C155878   9.155  12.093  11.861  0.3035 -0.1235  0.0298
37353DOD     C255879   8.756  12.007  12.075 -0.2161 -0.0696  0.1623
37353DOD     C355880   8.587  11.588  12.214  0.1742  0.2801  0.1588
37354DOD     C155881  12.140  13.817  11.783 -0.2300  0.2607  0.1161
37354DOD     C255882  12.231  13.368  11.605  0.1844 -0.2851 -0.0898
37354DOD     C355883  12.380  12.921  11.667 -0.0828  0.1325  0.1182
37355DOD     C155884  17.650   0.471   4.575 -0.1854  0.2740  0.0377
37355DOD     C255885  17.213   0.372   4.621 -0.0258  0.0601  0.0994
37355DOD     C355886  16.845   0.098   4.595  0.1403 -0.0335 -0.0674
37356DOD     C155887  23.867   2.625  29.283  0.3667 -0.1303  0.0168
37356DOD     C255888  23.609   3.037  29.380 -0.1554  0.3535 -0.2945
37356DOD     C355889  23.327   3.396  29.366  0.0518 -0.0954 -0.0466
37357DOD     C155890  11.895   0.546  12.209 -0.0985  0.1580  0.0560
37357DOD     C255891  11.769   0.326  11.843 -0.0003 -0.1307 -0.1371
37357DOD     C355892  11.372   0.222  11.707  0.0448 -0.1341 -0.0388
37358DOD     C155893  17.474   7.862  10.781 -0.1311  0.1616 -0.0892
37358DOD     C255894  17.812   7.986  11.078 -0.2054 -0.0055 -0.2431
37358DOD     C355895  18.001   7.859  11.488 -0.1467 -0.1315 -0.0181
37359DOD     C155896  16.529  21.680  20.518  0.2899 -0.0338  0.1702
37359DOD     C255897  16.454  22.106  20.518  0.2424  0.1914 -0.0423
37359DOD     C355898  16.489  22.577  20.349  0.0142  0.0087 -0.2350
37360DOD     C155899   0.578  16.849   9.428 -0.2311  0.5451  0.1482
37360DOD     C255900   0.550  16.877   8.965 -0.0353 -0.0192  0.1293
37360DOD     C355901   0.454  16.844   8.510  0.3393 -0.1666 -0.1527
37361DOD     C155902  11.844   0.071  12.414  0.1894  0.1290 -0.0836
37361DOD     C255903  11.780  30.129  12.763  0.0471 -0.1149  0.0177
37361DOD     C355904  11.934  30.229  13.170  0.0930 -0.0745  0.0920
37362DOD     C155905  21.937  29.439  12.997 -0.1031 -0.0136  0.0448
37362DOD     C255906  21.694  29.512  12.620 -0.0387  0.0079 -0.1633
37362DOD     C355907  21.595  29.371  12.190  0.1610 -0.1039 -0.1415
37363DOD     C155908   1.130  11.154  29.472  0.0981  0.1131  0.1239
37363DOD     C255909   0.992  10.838  29.767  0.1221  0.0894  0.1867
37363DOD     C355910   0.869  10.533  30.048 -0.4061  0.1568 -0.2835
37364DOD     C155911   0.667   5.334  11.744 -0.3353  0.2313 -0.0258
37364DOD     C255912   1.069   5.084  11.806  0.4099 -0.0788 -0.1412
37364DOD     C355913   1.455   4.863  11.725 -0.0210 -0.1617 -0.2350
37365DOD     C155914   2.478  17.712  16.127 -0.0664 -0.2179 -0.2826
37365DOD     C255915   2.736  17.356  16.335  0.4039 -0.0810 -0.1946
37365DOD     C355916   3.159  17.402  16.179  0.0592  0.3949 -0.0378
37366DOD     C155917  25.070  15.117  17.945 -0.2003 -0.0421 -0.1277
37366DOD     C255918  24.945  14.788  18.141  0.0048 -0.0076 -0.1520
37366DOD     C355919  24.826  14.689  18.561 -0.0300 -0.1835 -0.0588
37367DOD     C155920  15.480  18.743  28.380  0.0066 -0.0530 -0.3815
37367DOD     C255921  15.250  18.778  28.797  0.2384  0.0352 -0.1282
37367DOD     C355922  15.082  18.757  29.241 -0.0223 -0.0142  0.0484
37368DOD     C155923  16.821   5.368  14.744 -0.0808 -0.1847 -0.2737
37368DOD     C255924  16.432   5.650  14.772 -0.1625  0.0912 -0.3891
37368DOD     C355925  16.113   5.378  14.546  0.1781 -0.2063 -0.2669
37369DOD     C155926  11.880   9.432  24.139 -0.3372  0.2310 -0.0328
37369DOD     C255927  12.210   9.134  24.220 -0.1586 -0.0664 -0.2485
37369DOD     C355928  12.600   9.145  23.984 -0.1768  0.0392  0.3853
37370DOD     C155929   5.843   1.256  17.948 -0.1099 -0.1183  0.1697
37370DOD     C255930   5.454   1.463  17.766 -0.1125  0.1716  0.1954
37370DOD     C355931   5.011   1.559  17.522 -0.4125 -0.0052 -0.1095
37371DOD     C155932  17.477   4.393  29.554 -0.1621 -0.0840 -0.1191
37371DOD     C255933  17.881   4.165  29.638 -0.0641  0.3028 -0.0494
37371DOD     C355934  18.272   4.035  29.836  0.1875  0.3068  0.1230
37372DOD     C155935   2.941   5.378  11.727 -0.1958 -0.0904 -0.2477
37372DOD     C255936   2.639   5.550  12.069  0.0768 -0.0112  0.3282
37372DOD     C355937   2.270   5.632  12.365  0.0067  0.0818 -0.5521
37373DOD     C155938   0.507  21.453   7.272 -0.2827  0.0869 -0.1071
37373DOD     C255939   0.922  21.674   7.289  0.0937  0.1195  0.3216
37373DOD     C355940   1.244  21.900   7.451  0.0239 -0.1504  0.2323
37374DOD     C155941  29.260  15.231  20.049  0.3507 -0.0896 -0.0122
37374DOD     C255942  29.462  15.639  19.871 -0.0053  0.5688 -0.1586
37374DOD     C355943  29.542  15.796  19.442 -0.1810 -0.0211  0.1413
37375DOD     C155944   8.771  27.356   7.712  0.2215 -0.2054 -0.0675
37375DOD     C255945   8.949  26.924   7.817 -0.1452  0.0917  0.0718
37375DOD     C355946   8.725  26.502   7.918  0.1355  0.2193  0.0376
37376DOD     C155947  23.768   8.980   6.569 -0.2807  0.1124  0.0290
37376DOD     C255948  23.607   8.739   6.139  0.1261  0.0675  0.1680
37376DOD     C355949  23.698   8.333   5.976 -0.1551  0.0690  0.1574
37377DOD     C155950  13.207   6.918   8.728 -0.4766 -0.1027 -0.3523
37377DOD     C255951  13.561   7.212   8.743 -0.4225 -0.0795 -0.0296
37377DOD     C355952  13.628   7.495   8.369  0.0117  0.0702  0.1219
37378DOD     C155953  20.313  17.790  23.938 -0.1270  0.0991  0.0250
37378DOD     C255954  20.315  18.104  23.537  0.0522  0.1639 -0.2307
37378DOD     C355955  20.234  18.099  23.086 -0.1533 -0.2381 -0.1213
37379DOD     C155956   1.190   1.007   5.765  0.0915  0.2788  0.2924
37379DOD     C255957   1.079   1.338   6.104 -0.3180 -0.1825 -0.1981
37379DOD     C355958   1.477   1.530   6.363 -0.3048 -0.0247  0.0867
37380DOD     C155959  14.576   1.464  22.707  0.1976 -0.2398 -0.1265
37380DOD     C255960  14.324   1.899  22.608  0.1442 -0.2567 -0.3107
37380DOD     C355961  14.401   2.392  22.597 -0.0915  0.1556  0.1657
37381DOD     C155962   6.601   9.757  10.621 -0.0846 -0.1966  0.0332
37381DOD     C255963   6.867   9.292  10.639 -0.1568  0.0910  0.3272
37381DOD     C355964   7.321   9.098  10.573  0.3224  0.0525  0.0235
37382DOD     C155965   7.920   7.615  13.940  0.0991  0.1834 -0.0595
37382DOD     C255966   7.661   7.326  13.757  0.0968 -0.1114  0.0804
37382DOD     C355967   7.364   6.988  13.639  0.1947  0.2839 -0.0818
37383DOD     C155968   4.703   4.592  23.732 -0.0729 -0.3552  0.1940
37383DOD     C255969   5.002   4.593  24.070 -0.0073  0.1650 -0.0965
37383DOD     C355970   5.210   4.590  24.495 -0.0827  0.1017  0.0264
37384DOD     C155971   0.744   8.618  14.754 -0.0704  0.1157 -0.2382
37384DOD     C255972   0.772   9.092  14.637 -0.0164 -0.0805 -0.1711
37384DOD     C355973   0.970   9.457  14.353  0.2336 -0.2082  0.2025
37385DOD     C155974   9.035  16.046  26.810  0.1892  0.2755  0.1877
37385DOD     C255975   9.343  16.340  27.019  0.1487  0.2457 -0.0087
37385DOD     C355976   9.767  16.348  27.223 -0.0570  0.4322 -0.2009
37386DOD     C155977  20.409   6.224  10.117  0.1329 -0.0206 -0.3701
37386DOD     C255978  20.429   6.423  10.533 -0.1462 -0.2187 -0.0844
37386DOD     C355979  20.537   6.404  10.953 -0.1622  0.1493  0.0636
37387DOD     C155980  12.847  29.064  18.100 -0.1630 -0.1573  0.1577
37387DOD     C255981  13.234  29.305  18.223 -0.0756 -0.3192  0.3826
37387DOD     C355982  13.676  29.236  18.332  0.2103 -0.1830 -0.0744
37388DOD     C155983  12.720   6.733   1.269 -0.1709  0.1103  0.0057
37388DOD     C255984  12.252   6.639   1.534 -0.2154  0.1621 -0.1817
37388DOD     C355985  12.074   6.457   1.919 -0.0891 -0.2707  0.0541
37389DOD     C155986  14.268  21.849  15.013  0.1620  0.0136  0.0334
37389DOD     C255987  13.949  21.666  15.364 -0.2024 -0.3866  0.0165
37389DOD     C355988  13.651  21.904  15.681 -0.2168 -0.2441 -0.0893
37390DOD     C155989   2.652  12.526   7.905 -0.2164 -0.1593  0.2710
37390DOD     C255990   2.469  12.958   7.852 -0.0850 -0.1845 -0.1277
37390DOD     C355991   2.091  13.169   7.950  0.2189  0.1294  0.1662
37391DOD     C155992  14.416  20.784  15.946 -0.1414  0.0782 -0.0707
37391DOD     C255993  14.242  20.500  15.639  0.0230  0.1649 -0.1016
37391DOD     C355994  14.238  20.086  15.454 -0.5234 -0.0173 -0.0880
37392DOD     C155995   0.799  25.247  28.567 -0.0935 -0.0468  0.2621
37392DOD     C255996   1.018  25.595  28.810 -0.0461 -0.0109 -0.0036
37392DOD     C355997   0.949  25.810  29.232  0.1091  0.0896 -0.3577
37393DOD     C155998  23.747  12.541  28.436  0.1596  0.2318  0.1098
37393DOD     C255999  23.812  12.221  28.104  0.0293 -0.0577 -0.2275
37393DOD     C356000  24.009  12.001  27.748 -0.0968 -0.2281 -0.1540
37394DOD     C156001   1.886  17.775  20.334 -0.0384 -0.0948 -0.0459
37394DOD     C256002   2.288  18.035  20.280  0.0899  0.3853  0.1750
37394DOD     C356003   2.524  18.346  20.055 -0.3782  0.1521  0.4993
37395DOD     C156004   6.959  21.208   2.270  0.0926  0.0096  0.1378
37395DOD     C256005   6.939  20.770   2.138  0.3634  0.1346  0.1722
37395DOD     C356006   6.883  20.365   1.867  0.0829 -0.0329 -0.0997
37396DOD     C156007  14.438  10.565  11.838  0.0839  0.2889  0.0196
37396DOD     C256008  14.643  10.236  12.061 -0.0454 -0.1957 -0.1094
37396DOD     C356009  14.991   9.879  12.078  0.0450 -0.2959  0.1470
37397DOD     C156010   8.130  24.910  26.842  0.0499  0.0080  0.2363
37397DOD     C256011   8.444  24.605  26.949 -0.1179 -0.2576  0.1361
37397DOD     C356012   8.878  24.442  26.841  0.2173  0.2694  0.1261
37398DOD     C156013   3.249  21.024  15.654 -0.3392 -0.2014 -0.2847
37398DOD     C256014   3.219  20.568  15.650  0.5207 -0.1196  0.0042
37398DOD     C356015   2.987  20.222  15.551  0.1580  0.0365 -0.1516
37399DOD     C156016  10.004   1.465   0.836  0.2455  0.0422 -0.1504
37399DOD     C256017  10.085   1.762   0.475  0.1155  0.2316  0.3298
37399DOD     C356018   9.946   1.732   0.020 -0.1225 -0.1319  0.0287
37400DOD     C156019  14.347   0.006  24.730  0.1600 -0.1251  0.0252
37400DOD     C256020  14.363  30.234  24.261  0.2525 -0.0918 -0.2031
37400DOD     C356021  14.565  30.139  23.822 -0.0294  0.3860  0.3665
37401DOD     C156022   7.866  10.352   4.125  0.1004 -0.0005  0.0449
37401DOD     C256023   7.642  10.025   3.890  0.3106 -0.2360  0.1049
37401DOD     C356024   7.813   9.641   3.796 -0.0660  0.3233  0.0638
37402DOD     C156025  27.823  22.173  10.779 -0.0487  0.2651 -0.0234
37402DOD     C256026  28.096  22.101  10.430 -0.0028 -0.1903 -0.1115
37402DOD     C356027  28.417  22.071  10.117 -0.3370  0.2056 -0.0156
37403DOD     C156028   9.663  12.678  22.082  0.0194 -0.0100  0.0909
37403DOD     C256029   9.499  12.902  22.415 -0.0222  0.1077 -0.0095
37403DOD     C356030   9.549  13.004  22.903 -0.1536 -0.3517 -0.1409
37404DOD     C156031  23.499  23.487   1.276 -0.2610 -0.1525  0.3530
37404DOD     C256032  23.474  23.667   1.697  0.1587  0.0421 -0.0001
37404DOD     C356033  23.756  23.677   2.059 -0.0316 -0.2252 -0.1655
37405DOD     C156034  23.656  13.287   2.125  0.3183 -0.1232  0.1446
37405DOD     C256035  23.887  13.409   2.507 -0.1159  0.0834  0.1358
37405DOD     C356036  24.131  13.720   2.780  0.0514 -0.0119  0.1144
37406DOD     C156037  10.926   4.043  23.882 -0.0326 -0.1761 -0.1969
37406DOD     C256038  10.941   4.496  24.059 -0.1178  0.0389  0.0386
37406DOD     C356039  11.163   4.887  24.169 -0.0335 -0.1185 -0.2006
37407DOD     C156040  24.867   2.057  23.483 -0.0768 -0.0324 -0.0453
37407DOD     C256041  24.845   1.763  23.142  0.2435 -0.1196  0.0825
37407DOD     C356042  24.983   1.630  22.707  0.1367 -0.1282 -0.1920
37408DOD     C156043  29.190   4.625  27.591  0.1619  0.0331 -0.1046
37408DOD     C256044  29.044   4.354  27.238 -0.0743 -0.1869 -0.1502
37408DOD     C356045  29.056   4.281  26.761  0.0549  0.1073  0.2974
37409DOD     C156046  16.216   8.319   0.384 -0.1082 -0.0751  0.1517
37409DOD     C256047  15.977   8.671   0.619 -0.2660 -0.2199  0.0168
37409DOD     C356048  16.158   9.001   0.850 -0.1737 -0.0442  0.0425
37410DOD     C156049  19.872  29.700  24.992 -0.1484  0.2855 -0.0169
37410DOD     C256050  19.492  29.475  25.064  0.2591 -0.1075  0.0713
37410DOD     C356051  19.187  29.317  25.364  0.2611  0.1901  0.0290
37411DOD     C156052  12.250  27.303   6.904 -0.4058 -0.1097  0.1574
37411DOD     C256053  12.244  27.561   7.275  0.2254 -0.0583 -0.1539
37411DOD     C356054  12.041  27.906   7.465  0.1915 -0.1717 -0.1769
37412DOD     C156055   3.950  19.992  27.655  0.1025 -0.1701 -0.1194
37412DOD     C256056   4.389  19.872  27.673 -0.1647  0.0412  0.0759
37412DOD     C356057   4.646  19.575  27.438 -0.0250 -0.0631  0.1407
37413DOD     C156058  20.038   7.283  11.130  0.3128 -0.1650 -0.2038
37413DOD     C256059  19.832   7.400  11.516  0.1082 -0.0574 -0.3110
37413DOD     C356060  19.578   7.744  11.727  0.0912  0.0649  0.0999
37414DOD     C156061  24.076  30.024   6.109 -0.2011 -0.0001  0.0853
37414DOD     C256062  24.309   0.011   5.817  0.2676 -0.1988  0.2531
37414DOD     C356063  24.605   0.046   5.389  0.0528  0.0653 -0.0660
37415DOD     C156064  19.829  27.262  26.354  0.1239  0.1858 -0.2400
37415DOD     C256065  20.209  27.147  26.587  0.0462 -0.2322  0.3639
37415DOD     C356066  20.497  27.298  26.907 -0.2168  0.1041 -0.0821
37416DOD     C156067  29.688  28.309  11.309  0.1406  0.3549 -0.2592
37416DOD     C256068  29.440  28.527  11.676 -0.3891  0.0111  0.1131
37416DOD     C356069  29.318  28.407  12.088  0.2270 -0.1545  0.0115
37417DOD     C156070   0.473  18.271  27.539 -0.1746 -0.0866 -0.1272
37417DOD     C256071   0.012  18.388  27.540 -0.1179  0.1935  0.0713
37417DOD     C356072  30.132  18.435  27.979 -0.1755  0.1203 -0.1515
37418DOD     C156073   1.832  29.774  29.166 -0.1389  0.1444  0.0115
37418DOD     C256074   1.581  30.158  29.104 -0.1175  0.0742  0.1348
37418DOD     C356075   1.221   0.095  29.050  0.1069 -0.0231 -0.4475
37419DOD     C156076   1.334  15.299  24.223  0.4023  0.1995 -0.0607
37419DOD     C256077   1.253  15.030  23.917  0.2257  0.2076 -0.0606
37419DOD     C356078   1.342  14.524  24.003  0.1907 -0.0599  0.1392
37420DOD     C156079   2.508  27.568  25.056  0.1671 -0.1008 -0.2587
37420DOD     C256080   2.268  27.246  24.865  0.1090 -0.3154  0.2943
37420DOD     C356081   1.997  26.880  24.798 -0.4263  0.0591  0.3833
37421DOD     C156082  10.748  12.507  10.260 -0.1349  0.2321  0.4453
37421DOD     C256083  10.788  12.860  10.503  0.1020 -0.0700  0.1821
37421DOD     C356084  10.573  13.220  10.295 -0.2409  0.1945  0.2672
37422DOD     C156085   1.925  29.156  28.369 -0.1803 -0.0263  0.0257
37422DOD     C256086   2.223  29.138  28.667 -0.1210 -0.0111 -0.0752
37422DOD     C356087   2.599  29.067  28.965 -0.3834  0.1911  0.3374
37423DOD     C156088   7.894   7.085  14.652 -0.0002  0.0071 -0.0729
37423DOD     C256089   7.802   6.723  14.377  0.2309 -0.1551  0.0976
37423DOD     C356090   7.618   6.625  13.949 -0.0995  0.2013  0.2271
37424DOD     C156091  14.488  25.356   9.179  0.0959  0.1690 -0.2584
37424DOD     C256092  14.390  25.689   8.893  0.1482 -0.0862  0.2049
37424DOD     C356093  14.239  25.834   8.487 -0.0091 -0.1815  0.1911
37425DOD     C156094  20.084  18.651   2.870 -0.2070  0.0540 -0.2509
37425DOD     C256095  20.380  18.963   2.633  0.1265  0.2828  0.0589
37425DOD     C356096  20.517  19.096   2.168 -0.4198  0.0250  0.1262
37426DOD     C156097  21.398  15.477  20.939  0.2154  0.1178  0.3338
37426DOD     C256098  21.146  15.112  20.969 -0.1604 -0.1128 -0.1516
37426DOD     C356099  20.821  14.814  20.762  0.1398  0.1781 -0.3260
37427DOD     C156100   2.978  26.540  24.603 -0.0746  0.2552  0.2012
37427DOD     C256101   2.900  26.883  24.895  0.0496  0.0196 -0.0441
37427DOD     C356102   2.784  27.202  25.154  0.1817 -0.1214  0.2668
37428DOD     C156103  21.962  17.107   7.193 -0.1725 -0.1756 -0.1774
37428DOD     C256104  21.598  17.165   6.878  0.0634  0.4540 -0.0795
37428DOD     C356105  21.538  17.535   6.623  0.0876  0.1619  0.0827
37429DOD     C156106  28.656  17.406   5.432 -0.2689 -0.2624 -0.5641
37429DOD     C256107  28.648  17.603   5.828  0.0993 -0.0075 -0.1117
37429DOD     C356108  28.443  18.034   5.976 -0.0593 -0.0316  0.2120
37430DOD     C156109  29.822   4.233  10.778  0.1848  0.0475 -0.0963
37430DOD     C256110  29.619   4.048  10.365  0.2292  0.1967 -0.3173
37430DOD     C356111  29.820   3.852  10.029  0.0596 -0.0880 -0.0848
37431DOD     C156112   1.890  25.479  29.213  0.1479  0.0110  0.1459
37431DOD     C256113   2.291  25.671  29.050 -0.0616  0.0023 -0.0496
37431DOD     C356114   2.703  25.783  29.197 -0.4223  0.0435 -0.0117
37432DOD     C156115  19.924   9.079  20.353 -0.0283  0.1044  0.0239
37432DOD     C256116  20.337   8.903  20.549 -0.0944  0.1681 -0.1161
37432DOD     C356117  20.757   8.621  20.518  0.5616 -0.0439 -0.0535
37433DOD     C156118  10.920  10.356   3.875 -0.0675  0.1106  0.0596
37433DOD     C256119  10.707  10.615   3.595 -0.1692 -0.0991  0.0418
37433DOD     C356120  10.309  10.751   3.590  0.1033 -0.0020  0.1359
37434DOD     C156121  28.141  17.256  25.929 -0.2267 -0.2387 -0.0150
37434DOD     C256122  27.925  17.211  26.359 -0.2009 -0.1407 -0.2159
37434DOD     C356123  27.617  16.873  26.375 -0.1258  0.0244  0.4152
37435DOD     C156124   1.992   6.373   8.786  0.1810  0.1179  0.1931
37435DOD     C256125   2.421   6.139   8.889 -0.0000  0.2112  0.1504
37435DOD     C356126   2.880   6.086   8.939  0.2336  0.2047 -0.0097
37436DOD     C156127  20.478  29.570  14.440  0.0148 -0.0030 -0.0112
37436DOD     C256128  20.633  29.755  14.048 -0.2832  0.0153 -0.1830
37436DOD     C356129  20.831  29.819  13.590  0.1935  0.1619  0.0890
37437DOD     C156130   7.225  18.617   6.813 -0.1378  0.1200 -0.0959
37437DOD     C256131   7.109  18.407   6.397 -0.0892  0.0320  0.2046
37437DOD     C356132   7.086  18.216   5.940 -0.0286 -0.0833  0.1253
37438DOD     C156133   4.782  22.717  10.253 -0.0728  0.3977 -0.1271
37438DOD     C256134   4.528  22.471  10.598  0.0575  0.0478 -0.1873
37438DOD     C356135   4.527  21.993  10.575 -0.0133 -0.0496 -0.3247
37439DOD     C156136  29.801  19.981  14.276 -0.1166 -0.1283 -0.0123
37439DOD     C256137  30.099  19.710  14.020 -0.1247 -0.1780  0.2579
37439DOD     C356138  29.968  19.281  13.894  0.1128  0.3266  0.2619
37440DOD     C156139   5.461  17.103  29.587  0.1003 -0.0668 -0.2037
37440DOD     C256140   5.138  17.021  29.984  0.0445  0.0814  0.2519
37440DOD     C356141   4.962  17.246   0.059 -0.1303  0.0789  0.0113
37441DOD     C156142  20.900  26.271  12.031 -0.2092  0.3312 -0.3770
37441DOD     C256143  20.570  25.992  12.078 -0.0204  0.1396  0.3243
37441DOD     C356144  20.297  25.614  12.150 -0.0509 -0.0770  0.0608
37442DOD     C156145  25.195  25.493  11.898 -0.0655 -0.3066  0.0364
37442DOD     C256146  25.260  25.862  12.182 -0.0892  0.0530  0.3610
37442DOD     C356147  25.670  25.852  12.506  0.0359  0.0204  0.0728
37443DOD     C156148   0.228  12.120  19.631 -0.1881  0.0280  0.2458
37443DOD     C256149   0.296  11.872  20.042  0.4400 -0.1398 -0.2984
37443DOD     C356150   0.504  11.497  20.269  0.1124 -0.1280  0.1832
37444DOD     C156151   8.810  10.441  29.173 -0.0293  0.1001 -0.1077
37444DOD     C256152   8.918  10.880  29.289  0.3231  0.0681  0.0116
37444DOD     C356153   9.085  11.313  29.082 -0.2442  0.1267 -0.1901
37445DOD     C156154  13.796   1.191  27.547 -0.4313  0.0906 -0.0720
37445DOD     C256155  14.166   1.335  27.378 -0.2931 -0.0814 -0.0422
37445DOD     C356156  14.408   1.372  27.812  0.0005  0.1559  0.0605
37446DOD     C156157  17.462  25.197  24.232 -0.2155 -0.1938 -0.1600
37446DOD     C256158  17.635  25.457  24.641 -0.2552 -0.1064 -0.0812
37446DOD     C356159  17.595  25.484  25.100 -0.2939  0.2575 -0.1198
37447DOD     C156160  28.933  10.119   3.170 -0.0353  0.2664  0.0086
37447DOD     C256161  28.466   9.941   3.206 -0.1703 -0.1487  0.0430
37447DOD     C356162  28.048   9.983   3.443  0.1073  0.2213  0.1116
37448DOD     C156163  24.100  11.156  22.045 -0.0725 -0.0722  0.0136
37448DOD     C256164  24.515  11.283  22.059 -0.1055  0.3511 -0.2010
37448DOD     C356165  24.887  11.535  22.239 -0.1980 -0.1341 -0.0835
37449DOD     C156166  19.782  21.090   6.383 -0.2836  0.1284  0.3488
37449DOD     C256167  19.999  20.956   6.702  0.0951 -0.1286  0.1131
37449DOD     C356168  19.911  20.542   6.935 -0.1417 -0.0064 -0.3266
37450DOD     C156169  13.222  30.130   3.979  0.3905  0.2513 -0.1441
37450DOD     C256170  12.831  29.903   3.716 -0.0665  0.0955  0.1487
37450DOD     C356171  12.374  29.953   3.788 -0.2127 -0.1355 -0.0542
37451DOD     C156172   9.206  13.576  29.163  0.1719 -0.2522 -0.2005
37451DOD     C256173   9.449  13.748  29.500  0.0470 -0.2944 -0.0202
37451DOD     C356174   9.710  13.671  29.928  0.4184 -0.1093 -0.0928
37452DOD     C156175  17.503   5.429   7.819 -0.0558 -0.1303 -0.0313
37452DOD     C256176  17.592   5.140   7.464  0.0188  0.3136  0.1795
37452DOD     C356177  17.802   5.174   7.085 -0.0173 -0.0503  0.1543
37453DOD     C156178  21.031   5.354  30.027 -0.3165 -0.4483 -0.1052
37453DOD     C256179  20.695   5.529  29.796  0.1192  0.0807 -0.0793
37453DOD     C356180  20.573   5.969  29.611 -0.0410 -0.1186  0.0521
37454DOD     C156181  23.573  18.945   2.767 -0.2465 -0.1454  0.1486
37454DOD     C256182  23.889  18.527   2.889 -0.1795 -0.1357 -0.2106
37454DOD     C356183  24.053  18.341   3.286 -0.0550  0.1118 -0.1155
37455DOD     C156184  21.471  19.492   0.364 -0.1682  0.1285  0.1036
37455DOD     C256185  21.447  19.140  30.330  0.0771  0.2211  0.1976
37455DOD     C356186  21.207  18.735  -0.060 -0.0726 -0.0191 -0.4867
37456DOD     C156187  23.820   6.244  17.015  0.0460  0.1837 -0.0333
37456DOD     C256188  23.649   5.865  16.779  0.2477  0.1843 -0.1546
37456DOD     C356189  23.288   5.902  16.469 -0.1018  0.2059 -0.0825
37457DOD     C156190  10.879  14.240   7.056 -0.3319  0.0252 -0.0314
37457DOD     C256191  10.896  14.668   7.258 -0.0602  0.2154 -0.0197
37457DOD     C356192  10.789  15.050   7.553  0.1175  0.0786 -0.3964
37458DOD     C156193   1.364  17.034   8.733 -0.2759 -0.0548  0.3018
37458DOD     C256194   1.475  17.003   9.225  0.0801 -0.0845 -0.0170
37458DOD     C356195   1.670  16.617   9.502 -0.0658 -0.3775 -0.2750
37459DOD     C156196   0.417  19.260  19.284  0.2145  0.0927  0.0416
37459DOD     C256197   0.176  19.080  19.615  0.1631 -0.1008 -0.0834
37459DOD     C356198  30.264  18.767  19.800 -0.2378  0.0568 -0.0667
37460DOD     C156199  17.194  23.838   7.620 -0.0012 -0.0410 -0.2947
37460DOD     C256200  17.170  23.881   8.077  0.1064  0.3053 -0.1476
37460DOD     C356201  17.380  23.982   8.468  0.0786 -0.1658 -0.2480
37461DOD     C156202  15.468  12.089   3.250  0.0318  0.2759 -0.2136
37461DOD     C256203  15.881  12.113   3.058  0.0711 -0.0949  0.0197
37461DOD     C356204  16.286  11.937   3.048  0.0813 -0.0785  0.3750
37462DOD     C156205  10.836  29.462  23.155 -0.0724  0.0582 -0.2781
37462DOD     C256206  11.049  29.854  22.953 -0.2122 -0.0046 -0.2032
37462DOD     C356207  11.394  30.074  23.211 -0.3808  0.1078  0.0380
37463DOD     C156208  17.759  26.071  26.003  0.2769  0.1896 -0.0182
37463DOD     C256209  17.405  26.282  26.221  0.1569 -0.2088  0.0006
37463DOD     C356210  17.168  26.733  26.233 -0.1391 -0.0845  0.1473
37464DOD     C156211   4.256  19.593   1.713  0.0936 -0.2815  0.0265
37464DOD     C256212   4.631  19.828   1.483 -0.1731 -0.3018 -0.1038
37464DOD     C356213   4.848  19.687   1.077  0.0951  0.1384  0.1123
37465DOD     C156214   1.608   9.888  27.542  0.0801  0.0309 -0.0123
37465DOD     C256215   1.246  10.137  27.701 -0.0468 -0.0813 -0.2199
37465DOD     C356216   1.150  10.508  27.890 -0.1765 -0.1897  0.0666
37466DOD     C156217   2.274  10.463  12.527 -0.2327  0.2274  0.1279
37466DOD     C256218   2.503  10.124  12.765  0.0820 -0.1149  0.0410
37466DOD     C356219   2.509   9.912  13.180  0.2317 -0.0251 -0.0752
37467DOD     C156220  28.595   4.306   9.610 -0.3370 -0.0157  0.2628
37467DOD     C256221  28.588   4.764   9.532  0.1852  0.2561 -0.3948
37467DOD     C356222  28.247   5.053   9.665  0.0246 -0.2818  0.1724
37468DOD     C156223   2.324   0.653  27.184 -0.0177  0.3278  0.1863
37468DOD     C256224   2.633   0.981  27.304  0.0585 -0.1768  0.1737
37468DOD     C356225   2.810   1.380  27.445  0.2693  0.3156  0.1009
37469DOD     C156226  26.772  28.329  18.962  0.1133  0.0357 -0.0491
37469DOD     C256227  27.044  28.641  18.759 -0.2243 -0.3258  0.1835
37469DOD     C356228  27.108  29.141  18.744  0.1585 -0.2069 -0.0565
37470DOD     C156229  23.296   0.049   7.661  0.1082 -0.2435  0.0632
37470DOD     C256230  22.801   0.062   7.645  0.1922  0.1346  0.0936
37470DOD     C356231  22.602  30.027   7.417  0.6352 -0.1772  0.4719
37471DOD     C156232  21.170  29.493   1.232 -0.0075  0.1144  0.1409
37471DOD     C256233  21.036  29.607   0.771  0.3059 -0.1133 -0.2340
37471DOD     C356234  21.269  29.917   0.493  0.3130 -0.0299  0.0259
37472DOD     C156235   5.014  30.062  27.227  0.1137  0.0937 -0.2607
37472DOD     C256236   4.932  29.851  26.825  0.0806 -0.4339 -0.3198
37472DOD     C356237   4.825  29.573  26.447 -0.0845 -0.5090 -0.1065
37473DOD     C156238   6.841   1.938  12.580 -0.3168  0.0294 -0.0232
37473DOD     C256239   6.876   1.558  12.348 -0.1583 -0.0822 -0.2968
37473DOD     C356240   7.237   1.453  12.038 -0.0425  0.0062  0.1798
37474DOD     C156241   7.736  17.636  17.124  0.0577  0.0955  0.0924
37474DOD     C256242   7.832  17.210  16.907 -0.5260  0.1621  0.3315
37474DOD     C356243   7.614  16.778  16.775  0.0922  0.0638 -0.0585
37475DOD     C156244   4.273  17.500   5.114 -0.0862 -0.0760 -0.0255
37475DOD     C256245   4.050  17.745   5.438  0.1422  0.1344 -0.1870
37475DOD     C356246   3.696  17.644   5.726  0.0417 -0.1412 -0.2662
37476DOD     C156247  15.835  29.459  19.702  0.3072 -0.2203 -0.0726
37476DOD     C256248  15.432  29.657  19.801  0.0979  0.0010  0.1343
37476DOD     C356249  15.237  29.940  20.137 -0.1907 -0.2307  0.1155
37477DOD     C156250  12.683  19.804  23.629 -0.0565  0.0426 -0.1104
37477DOD     C256251  12.596  19.537  23.264 -0.0833 -0.2409  0.2915
37477DOD     C356252  12.562  19.481  22.776  0.1111 -0.1233 -0.0694
37478DOD     C156253   4.850  28.597   7.250  0.0662 -0.1185  0.0946
37478DOD     C256254   5.267  28.455   7.022  0.0707  0.0074 -0.0538
37478DOD     C356255   5.737  28.386   6.808 -0.0405  0.4211  0.0537
37479DOD     C156256  19.960  17.305  21.333 -0.0577  0.0081  0.1019
37479DOD     C256257  19.834  16.831  21.324  0.1845  0.3290  0.1442
37479DOD     C356258  19.745  16.406  21.391  0.1463  0.3083  0.1248
37480DOD     C156259  10.427  14.414   7.039 -0.0695 -0.4435  0.0409
37480DOD     C256260  10.057  14.312   7.298  0.2318  0.1958 -0.2176
37480DOD     C356261   9.933  13.902   7.459  0.1660 -0.1494  0.5945
37481DOD     C156262  27.272   2.113   0.051 -0.1855  0.2677  0.0568
37481DOD     C256263  27.708   2.188  30.177 -0.1085  0.3955  0.0788
37481DOD     C356264  27.871   2.225  29.784 -0.1959  0.1034  0.1622
37482DOD     C156265  16.923  15.153  19.560 -0.0640  0.0331 -0.1009
37482DOD     C256266  17.242  15.384  19.764  0.2805 -0.0852 -0.1284
37482DOD     C356267  17.312  15.441  20.222  0.1840  0.0557  0.1831
37483DOD     C156268  26.075  18.872   0.373 -0.2049  0.1938 -0.1359
37483DOD     C256269  25.746  18.656   0.624  0.0857  0.3896 -0.1463
37483DOD     C356270  25.777  18.314   0.895  0.0318  0.0766  0.4071
37484DOD     C156271   9.491   0.757  19.412 -0.2591  0.2286 -0.0325
37484DOD     C256272   9.406   1.132  19.679  0.2326 -0.2111 -0.0918
37484DOD     C356273   9.321   1.311  20.120  0.0483 -0.1821  0.0031
37485DOD     C156274  22.667  17.818  16.240 -0.2082 -0.2289 -0.2065
37485DOD     C256275  23.062  17.863  16.479 -0.0132  0.2001 -0.2374
37485DOD     C356276  23.166  18.229  16.815 -0.0950  0.4388  0.2224
37486DOD     C156277  20.692  28.888   1.670  0.0060 -0.1695 -0.3585
37486DOD     C256278  20.822  29.042   2.110  0.2287  0.2405  0.4875
37486DOD     C356279  20.980  29.401   2.328 -0.2142 -0.0206  0.1003
37487DOD     C156280   0.889  20.807  25.687  0.1878 -0.1053 -0.1844
37487DOD     C256281   1.297  20.731  25.913 -0.4045  0.2225  0.0481
37487DOD     C356282   1.610  20.974  26.125 -0.0391 -0.0961  0.0559
37488DOD     C156283  19.125  16.585  20.077  0.1659 -0.1639 -0.2077
37488DOD     C256284  18.787  16.873  20.206 -0.0841 -0.0898  0.3420
37488DOD     C356285  18.466  17.144  20.374  0.0584  0.3701  0.5596
37489DOD     C156286  23.934  26.323  28.906  0.1411  0.1835 -0.3231
37489DOD     C256287  24.197  26.609  28.685 -0.1317  0.2325 -0.2331
37489DOD     C356288  24.435  26.746  28.353  0.2015  0.2242 -0.2258
37490DOD     C156289   9.445   8.126   9.748  0.1196  0.1135  0.0734
37490DOD     C256290   9.247   7.654   9.803  0.1228 -0.0344 -0.0628
37490DOD     C356291   8.819   7.560   9.681 -0.3742  0.2837 -0.1348
37491DOD     C156292  23.532  21.051   2.844 -0.2126 -0.4627 -0.0565
37491DOD     C256293  23.540  20.829   3.272  0.0412  0.0264 -0.0543
37491DOD     C356294  23.741  20.963   3.637 -0.2402 -0.2122 -0.4088
37492DOD     C156295  27.624   4.171   1.510  0.2097  0.2731  0.0203
37492DOD     C256296  27.612   3.864   1.101  0.2708  0.0470  0.2932
37492DOD     C356297  27.269   3.724   0.836  0.0736 -0.1139 -0.0070
37493DOD     C156298   9.872  19.381  24.266  0.1756 -0.3409  0.1114
37493DOD     C256299   9.480  19.620  24.212 -0.0322 -0.0374  0.2239
37493DOD     C356300   9.102  19.612  24.492 -0.2309  0.2263 -0.2252
37494DOD     C156301  27.463  14.185  17.537 -0.2179  0.0397  0.1501
37494DOD     C256302  27.147  14.052  17.218  0.0278  0.1260  0.0997
37494DOD     C356303  27.065  13.664  16.997  0.0570 -0.1457  0.2633
37495DOD     C156304  14.180  10.661  18.640  0.0916 -0.0237  0.1898
37495DOD     C256305  13.819  10.395  18.618  0.1844 -0.0255 -0.3488
37495DOD     C356306  13.510  10.063  18.634 -0.0721 -0.0153 -0.0393
37496DOD     C156307  26.059  16.879   3.743  0.2261 -0.4955 -0.0045
37496DOD     C256308  26.196  17.300   3.795 -0.3163  0.0205 -0.1411
37496DOD     C356309  26.320  17.733   3.654 -0.1141  0.1713  0.1519
37497DOD     C156310  21.192  29.829  22.887 -0.3525 -0.4352 -0.0628
37497DOD     C256311  20.961  30.086  22.608 -0.0156 -0.0717  0.1154
37497DOD     C356312  20.795  30.052  22.219  0.0178  0.3099 -0.0374
37498DOD     C156313   0.310   5.745  18.624  0.1917 -0.0312 -0.0849
37498DOD     C256314  30.262   5.538  18.503 -0.0307  0.0806 -0.1114
37498DOD     C356315  30.098   5.795  18.158  0.1252  0.1984  0.1406
37499DOD     C156316   1.516   7.583  16.866  0.2910 -0.1996  0.1967
37499DOD     C256317   1.303   7.205  17.092 -0.2054 -0.0548 -0.3204
37499DOD     C356318   1.357   6.975  17.547  0.0236  0.0963  0.0708
37500DOD     C156319   9.157  17.098  12.572  0.0254  0.0339 -0.0304
37500DOD     C256320   8.853  17.025  12.216 -0.1106 -0.0118 -0.2524
37500DOD     C356321   8.728  17.206  11.814  0.0185 -0.0789 -0.0315
37501DOD     C156322  18.920  24.712   8.404  0.0075  0.0149 -0.0005
37501DOD     C256323  19.143  24.445   8.666 -0.1936  0.3488 -0.0264
37501DOD     C356324  19.313  24.317   9.069  0.0100  0.1261  0.0247
37502DOD     C156325  11.053  22.942  20.733  0.0548  0.1020  0.0295
37502DOD     C256326  11.507  22.949  20.575  0.2085  0.0538  0.0943
37502DOD     C356327  11.837  23.260  20.600 -0.3913 -0.0282 -0.2317
37503DOD     C156328  27.862  28.165  18.948  0.0465  0.0531  0.2402
37503DOD     C256329  28.221  28.281  18.753 -0.1736  0.0825 -0.3245
37503DOD     C356330  28.287  28.534  18.325 -0.0921  0.0367 -0.1145
37504DOD     C156331  18.474  23.752  19.846 -0.0465 -0.3027  0.0084
37504DOD     C256332  18.257  24.078  20.071 -0.1446 -0.0521  0.0919
37504DOD     C356333  17.825  24.286  19.974 -0.5034 -0.0071 -0.1141
37505DOD     C156334   6.983  14.654   6.652  0.0443  0.1693 -0.1554
37505DOD     C256335   6.813  14.867   6.302  0.0180 -0.0881 -0.3183
37505DOD     C356336   6.651  15.134   5.976 -0.1839 -0.1673  0.0892
37506DOD     C156337   2.194  26.406   3.719  0.0937 -0.4101 -0.0308
37506DOD     C256338   2.247  25.954   3.883 -0.2731 -0.0246  0.2432
37506DOD     C356339   2.327  25.521   3.880  0.0322  0.0222 -0.0440
37507DOD     C156340  24.005   0.838   3.563  0.3263  0.0447  0.2113
37507DOD     C256341  23.975   1.237   3.731 -0.2067 -0.0250  0.0202
37507DOD     C356342  24.086   1.484   4.061  0.1163 -0.0118 -0.4229
37508DOD     C156343  29.068   4.141  18.979  0.0799 -0.0595 -0.1135
37508DOD     C256344  28.619   4.108  19.150 -0.1604  0.1031  0.3159
37508DOD     C356345  28.261   4.037  19.478 -0.4331  0.1003 -0.2208
37509DOD     C156346  19.740  28.425  20.142 -0.0798  0.3527  0.0386
37509DOD     C256347  19.868  28.900  20.191  0.0905 -0.1087 -0.2049
37509DOD     C356348  19.699  29.320  20.391 -0.5049 -0.1057  0.0323
37510DOD     C156349  12.352  23.256  27.639 -0.0578 -0.1241  0.2612
37510DOD     C256350  12.117  23.122  27.287 -0.1156 -0.3558 -0.1967
37510DOD     C356351  11.785  23.046  26.927 -0.1802  0.0085  0.0380
37511DOD     C156352   7.048   5.634  13.658  0.1181  0.0792  0.0627
37511DOD     C256353   7.357   5.296  13.726  0.0447  0.2957  0.1668
37511DOD     C356354   7.523   4.962  13.986 -0.0413 -0.4472  0.1016
37512DOD     C156355  27.304  12.403   5.016 -0.2578 -0.2550  0.0810
37512DOD     C256356  27.679  12.248   4.729  0.0209  0.1446 -0.3621
37512DOD     C356357  27.815  11.859   4.564 -0.3359 -0.0890  0.0021
37513DOD     C156358   6.458  27.826  11.528  0.2289  0.0214 -0.0132
37513DOD     C256359   6.366  27.528  11.878  0.2994 -0.1357  0.2926
37513DOD     C356360   6.177  27.451  12.331 -0.0152  0.0853 -0.2098
37514DOD     C156361  28.469  19.027  24.702  0.0377  0.3012 -0.0036
37514DOD     C256362  27.971  19.102  24.609 -0.0563  0.1167 -0.2285
37514DOD     C356363  27.576  19.085  24.317  0.1769  0.0056 -0.0957
37515DOD     C156364  17.018  17.131  29.605 -0.0974 -0.1468 -0.1086
37515DOD     C256365  17.138  17.525  29.795 -0.0102 -0.2636 -0.0839
37515DOD     C356366  16.987  17.973  29.747 -0.0884  0.2991 -0.0377
37516DOD     C156367  25.534  29.051   2.545  0.4199  0.4645  0.1980
37516DOD     C256368  25.712  28.983   3.010  0.1212 -0.2070 -0.2258
37516DOD     C356369  25.840  29.054   3.419 -0.1657 -0.0298 -0.2991
37517DOD     C156370  25.127  29.486  12.896 -0.0516  0.3907 -0.0773
37517DOD     C256371  24.699  29.473  12.707 -0.0177  0.1055 -0.1268
37517DOD     C356372  24.526  29.737  12.302  0.2151 -0.2227 -0.0179
37518DOD     C156373   3.242  19.872  19.750 -0.2042  0.2191  0.1299
37518DOD     C256374   2.856  19.652  19.843  0.3406 -0.3868 -0.0885
37518DOD     C356375   2.396  19.715  19.750  0.2034 -0.1581 -0.2129
37519DOD     C156376   7.952  10.742   8.070  0.2282 -0.0802 -0.1196
37519DOD     C256377   8.220  10.428   8.253 -0.1493 -0.2796  0.1837
37519DOD     C356378   8.594  10.139   8.287 -0.1086  0.1622 -0.0235
37520DOD     C156379  12.194  13.434  19.489 -0.2668 -0.0348 -0.2083
37520DOD     C256380  12.486  13.765  19.579 -0.3026 -0.3704 -0.1310
37520DOD     C356381  12.608  14.230  19.659  0.3921  0.0687 -0.2533
37521DOD     C156382  13.706  13.377  15.604  0.1557  0.0540  0.0679
37521DOD     C256383  13.827  12.944  15.476  0.2164  0.1952 -0.2389
37521DOD     C356384  13.863  12.496  15.642  0.2733 -0.0471 -0.1779
37522DOD     C156385  29.913  26.523  13.387  0.3349  0.2355 -0.2906
37522DOD     C256386  30.018  26.270  13.015  0.2730  0.1456  0.0639
37522DOD     C356387   0.017  26.030  12.739  0.0356 -0.0385  0.1535
37523DOD     C156388  13.151  20.239   9.690  0.0034  0.0412  0.2878
37523DOD     C256389  13.560  20.328   9.937  0.0358  0.0740 -0.0769
37523DOD     C356390  13.969  20.333  10.204  0.0894  0.0284 -0.1514
37524DOD     C156391   8.834   0.279   2.654 -0.1153  0.1451 -0.1575
37524DOD     C256392   9.067   0.268   3.035 -0.2530  0.0731 -0.1040
37524DOD     C356393   9.218   0.484   3.415  0.2590  0.1241 -0.0295
37525DOD     C156394  22.876  12.464  30.026  0.0864  0.1484  0.0496
37525DOD     C256395  22.922  12.334  29.587  0.2271 -0.3415  0.1130
37525DOD     C356396  22.915  12.041  29.220  0.0947 -0.1831 -0.2409
37526DOD     C156397   3.267  20.904   2.242  0.0414  0.4505 -0.0438
37526DOD     C256398   2.872  21.096   2.131 -0.3100 -0.1455  0.0578
37526DOD     C356399   2.519  20.950   1.809  0.2749  0.0424 -0.2898
37527DOD     C156400  19.269  22.854   9.827 -0.0984 -0.1462  0.1201
37527DOD     C256401  19.568  22.717   9.480 -0.2652  0.1106 -0.0634
37527DOD     C356402  19.740  22.807   9.050 -0.3922  0.0333  0.0377
37528DOD     C156403  29.980  26.419  25.946 -0.0048  0.2369  0.2774
37528DOD     C256404  29.834  26.795  25.791 -0.3307 -0.0938 -0.0788
37528DOD     C356405  29.872  27.200  25.654 -0.0751 -0.1033 -0.4337
37529DOD     C156406   1.795  28.727   5.078 -0.1709  0.0076 -0.2721
37529DOD     C256407   1.599  28.487   5.403  0.0688 -0.0853 -0.0139
37529DOD     C356408   1.461  28.012   5.432  0.1931  0.0899 -0.0714
37530DOD     C156409  20.126   9.218   6.944  0.0979  0.1013  0.2056
37530DOD     C256410  19.914   9.493   7.337 -0.1142  0.1486 -0.2614
37530DOD     C356411  19.723   9.813   7.657 -0.2890 -0.1440  0.0339
37531DOD     C156412   8.965   2.478  25.570  0.1185 -0.0184 -0.0644
37531DOD     C256413   9.168   2.393  25.960 -0.4376  0.0508 -0.0041
37531DOD     C356414   9.208   1.994  26.245  0.2550 -0.2428 -0.1636
37532DOD     C156415   1.795  28.968  27.956 -0.0248 -0.2371  0.2789
37532DOD     C256416   1.451  29.306  28.025 -0.1610  0.0833 -0.2830
37532DOD     C356417   1.145  29.621  28.003  0.1109 -0.0354  0.1431
37533DOD     C156418  25.170  26.204  14.019 -0.0101  0.0370 -0.0491
37533DOD     C256419  24.706  26.211  14.080  0.4398 -0.1592  0.1369
37533DOD     C356420  24.485  26.386  13.757  0.1541 -0.1731 -0.2393
37534DOD     C156421  18.131  13.293  25.843 -0.1271 -0.0323  0.0592
37534DOD     C256422  17.963  13.227  26.306 -0.0526 -0.1839 -0.0295
37534DOD     C356423  17.955  13.268  26.774  0.3043  0.0288 -0.1160
37535DOD     C156424  18.968   4.146  22.238 -0.4163 -0.0195 -0.1813
37535DOD     C256425  18.698   4.338  21.892 -0.0863 -0.1070 -0.0858
37535DOD     C356426  18.730   4.658  21.597  0.3443 -0.0990  0.1191
37536DOD     C156427  25.963  16.506  22.098  0.2255  0.1107 -0.0847
37536DOD     C256428  25.970  16.173  21.789 -0.0764  0.0496  0.0543
37536DOD     C356429  25.962  15.696  21.860 -0.2133  0.0642 -0.0583
37537DOD     C156430  22.254   8.210   3.349 -0.2651 -0.2730  0.1397
37537DOD     C256431  22.611   8.531   3.463  0.1943  0.2641 -0.1953
37537DOD     C356432  22.835   8.877   3.224  0.2792  0.0773  0.1236
37538DOD     C156433  27.212  15.116   7.490 -0.0006 -0.2237  0.0384
37538DOD     C256434  27.008  15.530   7.352 -0.2493  0.0350 -0.0944
37538DOD     C356435  26.698  15.727   7.150  0.1631 -0.0276  0.0806
37539DOD     C156436   7.660  16.879  10.592 -0.0740 -0.0686 -0.0766
37539DOD     C256437   7.444  16.883  10.178 -0.0782 -0.1536  0.1353
37539DOD     C356438   7.284  17.210   9.853  0.0682 -0.2057 -0.1268
37540DOD     C156439  19.339  16.515  13.823  0.0961  0.1832 -0.2267
37540DOD     C256440  19.623  16.112  13.726 -0.1841 -0.0097 -0.1029
37540DOD     C356441  19.624  15.814  13.302 -0.1435 -0.2573  0.3977
37541DOD     C156442  27.058  19.249  25.104  0.0643  0.1608 -0.0881
37541DOD     C256443  26.581  19.259  25.098  0.0592  0.2064 -0.3110
37541DOD     C356444  26.168  19.029  24.981 -0.0529 -0.0555 -0.1570
37542DOD     C156445  21.187   6.236  13.770 -0.1386 -0.2707  0.0586
37542DOD     C256446  21.456   5.977  14.041 -0.3576  0.2303 -0.4280
37542DOD     C356447  21.419   5.581  14.320 -0.1608 -0.3455  0.0322
37543DOD     C156448  13.285   1.826   4.968  0.3097  0.1909 -0.0873
37543DOD     C256449  13.615   1.726   5.284 -0.0409 -0.3261 -0.2241
37543DOD     C356450  14.068   1.658   5.374  0.0722  0.0023  0.1774
37544DOD     C156451  29.184   3.038  11.542  0.1092 -0.0292 -0.2483
37544DOD     C256452  29.199   2.654  11.817 -0.0494 -0.0533  0.2581
37544DOD     C356453  29.196   2.431  12.227  0.0480  0.0725  0.4137
37545DOD     C156454  13.374  13.936   5.969 -0.0922 -0.0787 -0.1766
37545DOD     C256455  13.172  14.380   5.945  0.2737 -0.1712  0.3459
37545DOD     C356456  12.991  14.784   5.812  0.0902  0.0289  0.2182
37546DOD     C156457   1.706   4.009   0.591  0.0573 -0.0999 -0.1174
37546DOD     C256458   1.698   3.744   0.961  0.3219 -0.3233 -0.1449
37546DOD     C356459   1.597   3.434   1.301 -0.1929  0.0206 -0.0833
37547DOD     C156460   1.433  29.757   0.576  0.1507  0.0702 -0.0837
37547DOD     C256461   1.141  29.405   0.443 -0.1270 -0.0031  0.0095
37547DOD     C356462   0.891  29.237   0.026 -0.0345  0.0947  0.0224
37548DOD     C156463   4.275   2.371   3.186 -0.0029  0.1573  0.0422
37548DOD     C256464   4.694   2.310   3.336 -0.0237  0.1823 -0.1182
37548DOD     C356465   5.151   2.476   3.322 -0.0197  0.0553 -0.0727
37549DOD     C156466  28.787  16.289  28.245 -0.2761  0.2711  0.2054
37549DOD     C256467  29.187  16.376  28.421  0.0868  0.2089 -0.0701
37549DOD     C356468  29.558  16.620  28.592 -0.0304  0.1457 -0.2117
37550DOD     C156469  17.968  19.730  20.380  0.0253 -0.1091  0.2396
37550DOD     C256470  18.178  19.362  20.385 -0.0053  0.0515  0.0947
37550DOD     C356471  18.473  19.010  20.411 -0.3104  0.3315 -0.2180
37551DOD     C156472  25.954  11.726  19.759 -0.0753  0.1229  0.0342
37551DOD     C256473  25.588  12.004  19.856 -0.0434  0.0515 -0.1314
37551DOD     C356474  25.513  12.452  20.000  0.0301  0.2419  0.1064
37552DOD     C156475  23.597   0.736   4.490  0.2149 -0.0682 -0.1800
37552DOD     C256476  23.364   0.657   4.908 -0.0597 -0.1788  0.0437
37552DOD     C356477  23.194   0.485   5.307  0.0533  0.1507 -0.1121
37553DOD     C156478  13.209   5.145  19.599  0.3352  0.3892  0.1016
37553DOD     C256479  13.162   4.665  19.639  0.4595 -0.1986 -0.0812
37553DOD     C356480  13.046   4.266  19.383  0.1177 -0.0583  0.1502
37554DOD     C156481  20.369   0.846  28.006 -0.1612 -0.3058 -0.0059
37554DOD     C256482  20.814   0.864  28.064 -0.0665 -0.1186  0.0816
37554DOD     C356483  21.216   1.115  28.185  0.0088 -0.1875  0.0012
37555DOD     C156484  23.048  28.696  13.748 -0.0306 -0.1471 -0.1496
37555DOD     C256485  22.971  28.664  14.202  0.1286  0.0950  0.1751
37555DOD     C356486  22.806  28.217  14.412  0.1007 -0.0111  0.1239
37556DOD     C156487   4.930   6.275  15.331  0.2667 -0.4434 -0.0952
37556DOD     C256488   5.212   6.006  15.140  0.1483  0.0468  0.0139
37556DOD     C356489   5.638   5.814  15.038 -0.0299 -0.1746  0.0182
37557DOD     C156490  15.492   9.655  11.957 -0.1867 -0.0473  0.1644
37557DOD     C256491  15.102   9.406  12.008 -0.2029 -0.3453 -0.2575
37557DOD     C356492  14.694   9.388  11.920  0.0040 -0.1669 -0.2723
37558DOD     C156493  29.600  17.856   6.348 -0.1772  0.1482  0.2471
37558DOD     C256494  29.435  18.269   6.370 -0.0018 -0.3518  0.1840
37558DOD     C356495  29.297  18.614   6.023  0.0445 -0.4229 -0.2843
37559DOD     C156496  13.091  23.167   9.551  0.0875 -0.1173  0.1909
37559DOD     C256497  12.901  23.172   9.964  0.4470  0.1469  0.1211
37559DOD     C356498  12.895  23.046  10.416 -0.1974 -0.2100 -0.2220
37560DOD     C156499  19.537   6.583  15.465 -0.1155 -0.3894 -0.3810
37560DOD     C256500  19.970   6.556  15.309 -0.1717  0.1009  0.0258
37560DOD     C356501  20.372   6.708  15.384 -0.0348  0.0913  0.0136
37561DOD     C156502   1.379  16.584  17.090  0.1821 -0.1390  0.3686
37561DOD     C256503   1.599  16.775  17.420  0.1265 -0.1094 -0.0978
37561DOD     C356504   1.745  17.103  17.808 -0.0144 -0.1933 -0.2154
37562DOD     C156505   3.091  28.319  24.155  0.2178 -0.0353  0.0813
37562DOD     C256506   2.830  28.152  24.542 -0.0533  0.0522 -0.0644
37562DOD     C356507   2.947  27.840  24.867  0.0198 -0.0318  0.0628
37563DOD     C156508  11.827   4.588   5.410 -0.2203  0.1244 -0.3432
37563DOD     C256509  11.771   4.457   4.968  0.1083 -0.2424 -0.0605
37563DOD     C356510  11.459   4.180   4.735  0.3474 -0.1309  0.2450
37564DOD     C156511  21.981  16.945  11.400 -0.0907  0.1838 -0.1125
37564DOD     C256512  22.455  17.046  11.469 -0.1602  0.1574  0.0786
37564DOD     C356513  22.852  17.297  11.441 -0.0646 -0.2108  0.0120
37565DOD     C156514   5.941  23.678  26.587 -0.0860  0.0216 -0.2072
37565DOD     C256515   5.768  24.090  26.732  0.3262 -0.2342 -0.4289
37565DOD     C356516   5.396  24.253  26.495  0.1057  0.2071  0.1907
37566DOD     C156517  21.631  12.106   6.010 -0.0317  0.1467  0.1255
37566DOD     C256518  21.974  11.948   5.689  0.2343  0.0736  0.0818
37566DOD     C356519  22.226  11.802   5.372 -0.3381 -0.0269  0.2102
37567DOD     C156520  22.098   4.232   1.409 -0.1524  0.1893 -0.0143
37567DOD     C256521  22.297   4.593   1.626 -0.0047  0.0332  0.2034
37567DOD     C356522  22.189   4.844   1.999  0.0445  0.1589  0.1149
37568DOD     C156523  11.495  16.549  17.630 -0.2914 -0.2709  0.0118
37568DOD     C256524  11.250  16.952  17.533 -0.2386 -0.2416  0.1603
37568DOD     C356525  11.251  17.409  17.306 -0.0335 -0.1103 -0.1251
37569DOD     C156526  30.293   6.966   6.284  0.2005 -0.0007 -0.0975
37569DOD     C256527  30.248   6.623   5.931  0.2325 -0.0095  0.0466
37569DOD     C356528  30.049   6.275   5.746  0.1095  0.1234 -0.2220
37570DOD     C156529  17.262  22.574  26.400 -0.0108 -0.2733 -0.1236
37570DOD     C256530  16.815  22.501  26.467 -0.0005 -0.1238  0.1071
37570DOD     C356531  16.383  22.372  26.239 -0.2149  0.1369 -0.4545
37571DOD     C156532  15.816  23.441   8.489  0.0671 -0.2477 -0.0544
37571DOD     C256533  15.630  23.674   8.161  0.0139  0.2129  0.0322
37571DOD     C356534  15.646  24.106   8.090  0.1313 -0.2594 -0.0789
37572DOD     C156535  20.697  13.499   7.329 -0.2647  0.1511 -0.2621
37572DOD     C256536  20.728  13.558   6.904 -0.0770  0.4711  0.0906
37572DOD     C356537  21.060  13.735   6.592  0.0592 -0.0699 -0.5177
37573DOD     C156538  16.286  27.835   7.773  0.3894  0.3720 -0.4146
37573DOD     C256539  16.099  27.422   8.033  0.1668  0.0391 -0.0913
37573DOD     C356540  16.049  26.981   8.254 -0.0411 -0.1338  0.1703
37574DOD     C156541  25.599   0.468   9.722 -0.3831  0.2137 -0.2308
37574DOD     C256542  25.455   0.852   9.944 -0.2448 -0.1031  0.4026
37574DOD     C356543  25.392   1.234   9.729 -0.1011  0.1892 -0.0153
37575DOD     C156544  15.408  14.105  15.165  0.3373 -0.3899 -0.0432
37575DOD     C256545  15.073  13.763  15.322  0.1633  0.1710  0.0222
37575DOD     C356546  15.001  13.332  15.201 -0.1227 -0.0911 -0.1180
37576DOD     C156547  23.142  12.803  19.694  0.0555 -0.0785 -0.0528
37576DOD     C256548  23.391  12.816  19.307  0.2385 -0.0460 -0.1311
37576DOD     C356549  23.565  12.886  18.870  0.2935  0.1980 -0.2047
37577DOD     C156550  14.842  27.600  26.589 -0.3679  0.0106 -0.3254
37577DOD     C256551  14.679  27.683  27.023 -0.0876  0.0001  0.5066
37577DOD     C356552  14.794  27.962  27.381  0.2215  0.1422  0.0799
37578DOD     C156553  27.824   3.440  11.842 -0.1633 -0.0886  0.0205
37578DOD     C256554  27.440   3.174  11.852 -0.0015 -0.1582 -0.0194
37578DOD     C356555  27.184   2.773  11.987  0.0689  0.4760 -0.1396
37579DOD     C156556   4.406   2.299   5.886  0.0374  0.0187  0.0939
37579DOD     C256557   4.783   2.302   5.584 -0.1640 -0.2842  0.2275
37579DOD     C356558   5.207   2.216   5.398  0.1654 -0.0599 -0.0457
37580DOD     C156559   2.194  19.900  11.948  0.1692  0.1701  0.1739
37580DOD     C256560   2.382  20.229  12.205 -0.0319 -0.0226 -0.0221
37580DOD     C356561   2.467  20.638  12.158 -0.1248 -0.4635  0.2595
37581DOD     C156562  15.951  26.072  13.265  0.4238 -0.0456 -0.1170
37581DOD     C256563  16.381  26.002  13.077 -0.0753  0.1636 -0.3574
37581DOD     C356564  16.724  25.709  13.032 -0.0739  0.0301  0.0316
37582DOD     C156565  11.631  17.987  15.286 -0.1016 -0.0792  0.1939
37582DOD     C256566  12.092  17.887  15.134 -0.3350  0.0828  0.0598
37582DOD     C356567  12.507  17.690  15.164  0.0537 -0.1677  0.0457
37583DOD     C156568  11.456  21.973   5.041 -0.1772  0.0847 -0.2371
37583DOD     C256569  11.038  21.925   5.139 -0.0321 -0.0094  0.3259
37583DOD     C356570  10.660  21.699   5.306  0.1126  0.1520 -0.0795
37584DOD     C156571  15.599  24.725   5.049  0.2463 -0.0278  0.1214
37584DOD     C256572  15.894  24.370   4.924  0.0402  0.0693  0.0765
37584DOD     C356573  16.311  24.068   4.896  0.0072 -0.1843 -0.1282
37585DOD     C156574  14.827  12.731  13.801 -0.1930  0.0452  0.1617
37585DOD     C256575  14.916  13.176  13.745  0.0859 -0.0193  0.2191
37585DOD     C356576  14.678  13.458  13.492  0.1658 -0.0756  0.1026
37586DOD     C156577  28.292   3.358  10.425 -0.2707 -0.3011  0.2928
37586DOD     C256578  28.235   3.527  10.896  0.0037  0.0387  0.2167
37586DOD     C356579  27.993   3.482  11.331 -0.1672  0.1905  0.1021
37587DOD     C156580  24.364  23.632  24.603 -0.0171 -0.2933 -0.0386
37587DOD     C256581  23.914  23.640  24.449  0.0295  0.1030 -0.0870
37587DOD     C356582  23.492  23.433  24.508 -0.0389  0.1582  0.2995
37588DOD     C156583  23.121  14.357   0.847  0.2010  0.0617  0.2822
37588DOD     C256584  22.845  14.261   1.217  0.1758  0.0650 -0.1105
37588DOD     C356585  22.531  14.011   1.443 -0.0509 -0.0615 -0.3321
37589DOD     C156586  24.241   9.187  18.038 -0.1793 -0.1051  0.1136
37589DOD     C256587  24.161   8.712  18.074  0.1003  0.0638  0.0823
37589DOD     C356588  23.838   8.374  18.024 -0.2106 -0.0828  0.0846
37590DOD     C156589  18.244   6.805  13.630  0.2837  0.1765 -0.1712
37590DOD     C256590  17.870   6.817  13.897  0.1059 -0.1935  0.0008
37590DOD     C356591  17.855   6.615  14.317  0.1568 -0.0679 -0.4040
37591DOD     C156592  27.044   2.667  29.641 -0.0863  0.0075  0.0817
37591DOD     C256593  27.124   2.451  29.268 -0.3699  0.0077  0.1704
37591DOD     C356594  27.483   2.466  28.939  0.0395  0.1629  0.0085
37592DOD     C156595  13.666   2.679  16.627  0.1054  0.0007 -0.3317
37592DOD     C256596  13.644   2.205  16.680 -0.3588 -0.1228  0.2718
37592DOD     C356597  13.579   1.757  16.858  0.0561 -0.3860  0.2067
37593DOD     C156598  20.158  16.215  19.536 -0.0967  0.0364 -0.1493
37593DOD     C256599  20.337  16.522  19.833 -0.0213 -0.0357 -0.1759
37593DOD     C356600  20.313  16.965  19.906  0.0750 -0.0690  0.2144
37594DOD     C156601   6.386  11.400  20.405  0.1417 -0.0311  0.2581
37594DOD     C256602   6.315  11.920  20.339 -0.3501  0.1505 -0.0032
37594DOD     C356603   6.538  12.326  20.503  0.4022  0.0095  0.0505
37595DOD     C156604  29.182  20.093  14.151  0.0058 -0.1313  0.2266
37595DOD     C256605  29.238  20.090  14.630  0.4288 -0.0046  0.1132
37595DOD     C356606  28.850  20.207  14.928 -0.0315  0.1072  0.0681
37596DOD     C156607  21.110  18.700  12.421 -0.0882 -0.2565 -0.0914
37596DOD     C256608  20.804  18.474  12.650  0.0050  0.1473  0.1962
37596DOD     C356609  20.392  18.270  12.745 -0.1120  0.0044  0.1484
37597DOD     C156610   9.974   8.342  29.552 -0.0422  0.2759  0.1000
37597DOD     C256611  10.029   8.774  29.367  0.2677 -0.1545  0.0815
37597DOD     C356612  10.327   9.139  29.150 -0.1109  0.0307 -0.0060
37598DOD     C156613  19.983   6.098  18.976 -0.0348 -0.1034 -0.0259
37598DOD     C256614  20.045   5.810  19.338 -0.0879 -0.2467  0.0019
37598DOD     C356615  20.127   5.335  19.408 -0.1198  0.0544 -0.1055
37599DOD     C156616  29.614  26.751  22.013 -0.0206  0.0663 -0.2524
37599DOD     C256617  29.851  27.089  22.317 -0.1133  0.0694 -0.2069
37599DOD     C356618  29.894  27.203  22.735 -0.2087 -0.0394 -0.0390
37600DOD     C156619  14.451   4.954   0.313  0.0374 -0.0358 -0.0501
37600DOD     C256620  14.750   4.979   0.621  0.0161  0.1626 -0.1405
37600DOD     C356621  15.192   5.014   0.582  0.0545  0.2031  0.2689
37601DOD     C156622  26.964  10.271  13.387 -0.0752  0.0447  0.1090
37601DOD     C256623  26.794  10.678  13.600 -0.1960 -0.1628 -0.1189
37601DOD     C356624  26.671  10.837  14.025  0.1310  0.0938  0.0799
37602DOD     C156625   8.660  20.312  14.623  0.1028 -0.0056  0.0209
37602DOD     C256626   8.564  19.865  14.786 -0.0609  0.1134  0.0172
37602DOD     C356627   8.259  19.513  14.667 -0.1309  0.1244 -0.2344
37603DOD     C156628  27.951   9.632  22.090 -0.0540  0.0346  0.0049
37603DOD     C256629  27.894   9.251  21.915 -0.2356  0.2208 -0.2499
37603DOD     C356630  27.886   8.816  21.687  0.3063  0.1358  0.0451
37604DOD     C156631  13.379   0.032   0.375 -0.0924 -0.1579  0.0683
37604DOD     C256632  13.404  30.082   0.757 -0.1047 -0.1368 -0.2054
37604DOD     C356633  13.296  29.757   1.107 -0.2489 -0.0900  0.0012
37605DOD     C156634  16.301  10.061  10.807  0.2354 -0.0489  0.1370
37605DOD     C256635  16.434   9.946  10.340  0.0081 -0.1018  0.2791
37605DOD     C356636  16.815   9.912  10.045 -0.0513 -0.0621  0.3042
37606DOD     C156637  18.571   2.487   7.812  0.0317 -0.2508  0.1377
37606DOD     C256638  18.689   2.556   8.255 -0.0687 -0.1934 -0.3297
37606DOD     C356639  18.757   2.278   8.638 -0.0150  0.1306 -0.0593
37607DOD     C156640  13.236   7.256   9.161  0.1884  0.2040  0.1002
37607DOD     C256641  12.849   7.040   9.028 -0.2516  0.1181  0.2346
37607DOD     C356642  12.529   7.206   8.681  0.0304  0.2417 -0.4037
37608DOD     C156643   0.294  13.850   6.446  0.3235 -0.0416 -0.1269
37608DOD     C256644   0.581  13.761   6.878  0.1849 -0.2451 -0.2072
37608DOD     C356645   0.646  13.962   7.319 -0.3307  0.0002  0.3607
37609DOD     C156646   7.646  15.033   0.613  0.0905 -0.1685 -0.0177
37609DOD     C256647   7.284  14.990   0.288  0.1443  0.1373  0.0916
37609DOD     C356648   7.420  14.866  30.193  0.3153 -0.0419  0.1359
37610DOD     C156649  15.975  14.294   6.190  0.0239 -0.1324  0.0950
37610DOD     C256650  16.075  14.359   5.778 -0.0829  0.1461  0.2166
37610DOD     C356651  16.459  14.354   5.478  0.0155 -0.0535 -0.2945
37611DOD     C156652   9.018   5.859  16.012 -0.2365 -0.0249 -0.3447
37611DOD     C256653   8.524   5.827  16.048  0.0327  0.4233  0.2980
37611DOD     C356654   8.118   5.849  16.330  0.0110  0.1294 -0.1223
37612DOD     C156655   4.259  17.863  15.645 -0.1548  0.1159 -0.0493
37612DOD     C256656   4.530  17.541  15.430 -0.2912 -0.1305  0.3038
37612DOD     C356657   4.780  17.235  15.174  0.4256  0.1305 -0.2167
37613DOD     C156658   1.082  25.299  29.218 -0.1107 -0.3094 -0.0260
37613DOD     C256659   1.495  25.180  29.323 -0.1363 -0.1780  0.3584
37613DOD     C356660   1.908  25.015  29.507 -0.1877 -0.0539  0.2122
37614DOD     C156661  11.595  17.969   1.729  0.1477  0.1224  0.4924
37614DOD     C256662  11.751  17.865   1.308  0.1582  0.0901 -0.2366
37614DOD     C356663  11.679  17.548   0.937 -0.0555  0.0046  0.0807
37615DOD     C156664   9.413  21.724  10.329 -0.2209  0.0222  0.0293
37615DOD     C256665   9.788  21.964  10.140 -0.1361 -0.0332 -0.0243
37615DOD     C356666  10.273  21.966  10.017 -0.1158 -0.0227  0.1931
37616DOD     C156667  17.082  28.007  14.403 -0.3336 -0.0469  0.0423
37616DOD     C256668  16.674  27.971  14.725 -0.0845 -0.1142  0.0517
37616DOD     C356669  16.255  27.813  14.917 -0.1102 -0.1510 -0.2674
37617DOD     C156670  12.799   9.849  24.840 -0.0581  0.1305  0.4328
37617DOD     C256671  12.741   9.401  24.942 -0.4958 -0.0896 -0.1979
37617DOD     C356672  12.828   9.260  25.349 -0.1169  0.0137  0.1817
37618DOD     C156673   4.018  29.063   7.462  0.1448 -0.0172 -0.0337
37618DOD     C256674   4.312  29.193   7.867 -0.2594  0.2342 -0.1403
37618DOD     C356675   4.494  29.140   8.309 -0.1101  0.1698  0.1648
37619DOD     C156676   6.250  29.457  21.496 -0.1138  0.1813  0.0657
37619DOD     C256677   6.419  29.839  21.199  0.0414 -0.0946  0.0255
37619DOD     C356678   6.222  30.020  20.820 -0.1581 -0.0706  0.0933
37620DOD     C156679   9.348   9.078  12.417 -0.0982  0.0417  0.5841
37620DOD     C256680   9.480   9.499  12.180 -0.0357 -0.0797  0.0221
37620DOD     C356681   9.452   9.868  11.927  0.0937 -0.3250  0.4175
37621DOD     C156682  22.131  11.371  17.923 -0.0723  0.0275 -0.1564
37621DOD     C256683  21.985  11.660  18.230 -0.0360 -0.0174  0.0716
37621DOD     C356684  21.705  12.059  18.361 -0.0807 -0.1382 -0.0116
37622DOD     C156685   9.687  29.407  19.220 -0.2566  0.4161  0.0952
37622DOD     C256686   9.671  29.718  18.927  0.5716 -0.3612  0.4729
37622DOD     C356687   9.583  30.188  19.121 -0.1259  0.0192 -0.2117
37623DOD     C156688  20.203  17.143  11.555 -0.2805  0.0868  0.3828
37623DOD     C256689  20.591  17.132  11.796 -0.1606 -0.0063 -0.5516
37623DOD     C356690  21.050  17.279  11.903 -0.5055 -0.2639  0.0763
37624DOD     C156691   3.249  17.133   8.444  0.3999  0.0222 -0.0681
37624DOD     C256692   3.364  17.339   8.896  0.2763  0.2186  0.0022
37624DOD     C356693   3.229  17.761   9.122  0.4642 -0.0962  0.2853
37625DOD     C156694  23.104  28.436  27.463  0.2154  0.2219 -0.2575
37625DOD     C256695  22.637  28.409  27.645 -0.0642  0.3492 -0.0939
37625DOD     C356696  22.168  28.415  27.771  0.0294  0.1031 -0.4570
37626DOD     C156697  22.668   8.760  10.636  0.1354  0.0411 -0.0268
37626DOD     C256698  22.940   8.534  10.972 -0.0699 -0.1030  0.0971
37626DOD     C356699  23.006   8.282  11.383  0.0314  0.0094 -0.3365
37627DOD     C156700  16.045  20.538   1.815 -0.0949 -0.0936  0.0830
37627DOD     C256701  16.337  20.228   2.085 -0.0720  0.0633  0.2506
37627DOD     C356702  16.234  19.812   2.223  0.0208 -0.0031  0.2334
37628DOD     C156703  22.408  11.428  25.040  0.0710  0.0057 -0.0257
37628DOD     C256704  22.635  11.787  24.833  0.1185 -0.2938 -0.5282
37628DOD     C356705  22.998  12.020  24.664 -0.0030 -0.0372 -0.1450
37629DOD     C156706   2.369   8.674  15.193  0.1282  0.0280  0.0506
37629DOD     C256707   2.430   8.263  14.981  0.0681  0.0975  0.0467
37629DOD     C356708   2.245   7.929  15.221  0.4166 -0.3376  0.0883
37630DOD     C156709   8.782  14.543  19.108  0.0839  0.2602  0.0694
37630DOD     C256710   8.625  14.153  19.314  0.0897 -0.3500  0.0191
37630DOD     C356711   8.584  13.828  19.664 -0.0899  0.0679  0.1084
37631DOD     C156712  27.401  22.286  14.029  0.0119 -0.0662  0.2780
37631DOD     C256713  27.726  21.972  14.037 -0.0511 -0.0599  0.1242
37631DOD     C356714  27.573  21.665  14.387  0.0042  0.0979  0.0922
37632DOD     C156715   0.301  13.510   5.787 -0.0059  0.1800  0.0638
37632DOD     C256716  30.252  13.776   5.919  0.1127  0.0180 -0.2494
37632DOD     C356717  29.844  13.896   5.970 -0.1712  0.1534  0.1371
37633DOD     C156718   8.703  25.091  26.156 -0.1150 -0.3537 -0.4834
37633DOD     C256719   8.533  25.517  25.921 -0.1080  0.1826 -0.2500
37633DOD     C356720   8.198  25.767  25.816 -0.1606  0.1198  0.1011
37634DOD     C156721  11.045  14.666   6.200 -0.2749 -0.1843 -0.1713
37634DOD     C256722  11.067  14.175   6.043 -0.1281  0.0892  0.1938
37634DOD     C356723  11.184  13.795   5.959 -0.1347 -0.1918 -0.0676
37635DOD     C156724  23.666  30.025   0.598 -0.0755 -0.3646  0.3292
37635DOD     C256725  23.465  29.796   0.271 -0.0432 -0.2860  0.3472
37635DOD     C356726  23.270  29.751  30.174  0.1281  0.0187 -0.3023
37636DOD     C156727  26.584   2.062   5.995  0.1955 -0.0526  0.0082
37636DOD     C256728  26.422   2.472   6.001  0.0677  0.2257  0.0824
37636DOD     C356729  26.503   2.807   6.266 -0.2071 -0.1535 -0.0231
37637DOD     C156730  11.957  21.472   4.755  0.2064  0.0997  0.0883
37637DOD     C256731  11.997  21.394   4.297  0.2112  0.2186  0.1816
37637DOD     C356732  11.707  21.383   3.948 -0.1271  0.1621 -0.2013
37638DOD     C156733   1.668  30.154  19.286 -0.1721 -0.1105 -0.0024
37638DOD     C256734   1.887  30.033  18.914  0.2714  0.2219 -0.1443
37638DOD     C356735   1.895  29.866  18.471  0.1440  0.2080 -0.2344
37639DOD     C156736  25.208   6.717  23.338 -0.4167  0.1084 -0.0713
37639DOD     C256737  25.612   6.582  23.185  0.5380 -0.3009  0.2105
37639DOD     C356738  25.908   6.432  22.889  0.0054  0.2225  0.1387
37640DOD     C156739  26.244  26.102   6.179  0.1771 -0.0877 -0.0225
37640DOD     C256740  26.142  26.357   6.588  0.2075  0.3392 -0.1283
37640DOD     C356741  26.467  26.644   6.746  0.0303  0.1033  0.3828
37641DOD     C156742  15.329   8.277  15.313  0.0737  0.0571  0.0039
37641DOD     C256743  15.362   8.583  14.961 -0.2740 -0.0088 -0.0043
37641DOD     C356744  15.620   8.967  14.908  0.2048  0.0923 -0.3184
37642DOD     C156745  26.552  22.872   9.201 -0.1385 -0.1004 -0.3547
37642DOD     C256746  26.336  22.543   9.451  0.0700  0.0785  0.1603
37642DOD     C356747  26.093  22.150   9.635 -0.0050  0.1603 -0.0274
37643DOD     C156748  30.154  24.869   2.032  0.1548 -0.2882 -0.1362
37643DOD     C256749  29.699  24.850   1.935  0.0074  0.0802 -0.0387
37643DOD     C356750  29.299  24.906   2.124 -0.0049 -0.0582  0.1143
37644DOD     C156751   3.180   4.107  29.390 -0.2088 -0.2614  0.3428
37644DOD     C256752   2.907   4.234  29.833 -0.2431  0.0845 -0.2790
37644DOD     C356753   2.502   4.384  30.051  0.4008  0.1238 -0.0537
37645DOD     C156754  16.069   1.062  14.253 -0.1791  0.0574 -0.0248
37645DOD     C256755  15.724   1.332  14.139 -0.3199 -0.2115 -0.2657
37645DOD     C356756  15.448   1.493  13.806 -0.0039 -0.0124  0.2010
37646DOD     C156757   4.685  22.886   9.122 -0.2119  0.0618  0.0703
37646DOD     C256758   4.562  22.530   8.806 -0.1864 -0.0705 -0.2035
37646DOD     C356759   4.179  22.278   8.806 -0.2090 -0.1496  0.1201
37647DOD     C156760  13.311  22.174   5.832  0.0684  0.0894 -0.1108
37647DOD     C256761  13.557  22.155   6.219 -0.0878 -0.0245 -0.2049
37647DOD     C356762  13.753  21.861   6.568  0.0001  0.0556 -0.1750
37648DOD     C156763   1.497   7.481   2.707 -0.0187 -0.0053  0.0881
37648DOD     C256764   1.133   7.113   2.709  0.0706  0.0949 -0.3167
37648DOD     C356765   1.021   6.706   2.550  0.0729 -0.0074  0.0915
37649DOD     C156766  10.519   4.213  25.161  0.1573 -0.0865 -0.1196
37649DOD     C256767  10.289   4.346  25.521  0.0778 -0.0627  0.0555
37649DOD     C356768  10.211   4.562  25.952 -0.2373  0.0399 -0.0989
37650DOD     C156769   5.248  15.995   3.668 -0.0242 -0.3371  0.2889
37650DOD     C256770   4.800  16.084   3.786  0.0373  0.1718  0.0752
37650DOD     C356771   4.412  16.236   3.591 -0.1211  0.2278  0.0588
37651DOD     C156772  12.034   3.825   7.673  0.2416  0.0006  0.0853
37651DOD     C256773  11.990   3.641   8.134  0.1995 -0.0425 -0.0405
37651DOD     C356774  12.281   3.434   8.430 -0.0149 -0.1954  0.0650
37652DOD     C156775  22.820  18.344   9.134 -0.0464  0.2754 -0.2751
37652DOD     C256776  23.192  18.132   9.239  0.3138 -0.1509  0.3668
37652DOD     C356777  23.536  18.064   9.519 -0.1710  0.1021  0.1914
37653DOD     C156778  10.748   8.266  18.347  0.2170 -0.2590  0.0922
37653DOD     C256779  10.960   8.405  17.962  0.0602  0.3750  0.0563
37653DOD     C356780  11.191   8.271  17.558 -0.1247  0.0476  0.1518
37654DOD     C156781  11.631  15.441   5.080 -0.0792  0.1694  0.3425
37654DOD     C256782  11.645  15.106   4.745  0.3525  0.1235 -0.0363
37654DOD     C356783  11.728  15.239   4.304 -0.0619  0.3934  0.0218
37655DOD     C156784  20.772  27.968   5.860 -0.0211 -0.0246 -0.0443
37655DOD     C256785  21.042  28.002   5.427 -0.2052 -0.2253 -0.2515
37655DOD     C356786  21.269  27.938   5.081  0.1510  0.1029 -0.0040
37656DOD     C156787  26.317  14.121   1.173 -0.3667  0.0639  0.0062
37656DOD     C256788  26.118  13.862   0.838 -0.1354 -0.0161 -0.0582
37656DOD     C356789  26.050  13.903   0.379 -0.0003  0.0220  0.3649
37657DOD     C156790   1.018  13.176  11.386  0.1036  0.1299  0.1836
37657DOD     C256791   0.958  13.392  10.942  0.0715 -0.0769  0.1827
37657DOD     C356792   0.636  13.282  10.569 -0.2437  0.0161  0.1434
37658DOD     C156793   6.054  12.615   2.616  0.1658  0.3577  0.2034
37658DOD     C256794   6.204  12.220   2.417 -0.2223  0.1559 -0.0193
37658DOD     C356795   6.335  11.748   2.502  0.1167 -0.0201 -0.3286
37659DOD     C156796   0.016  17.160   5.461 -0.0153 -0.5141  0.1737
37659DOD     C256797   0.451  17.364   5.370  0.1217 -0.1260 -0.4534
37659DOD     C356798   0.821  17.613   5.211 -0.3400 -0.1992  0.0694
37660DOD     C156799   2.636   1.911   4.084  0.1045  0.1898 -0.0313
37660DOD     C256800   2.735   2.360   4.174  0.1419  0.0136  0.0405
37660DOD     C356801   2.495   2.722   4.231  0.1418  0.1900  0.1346
37661DOD     C156802  20.063  13.889  23.439 -0.0523 -0.4589  0.1159
37661DOD     C256803  19.749  14.200  23.571 -0.2500  0.0676 -0.3793
37661DOD     C356804  19.398  14.387  23.377  0.2386  0.0097  0.0458
37662DOD     C156805  23.749   4.637  19.269  0.0468 -0.1717  0.1832
37662DOD     C256806  24.226   4.519  19.246 -0.2442 -0.2456  0.0155
37662DOD     C356807  24.697   4.586  19.303  0.2645  0.0340  0.3907
37663DOD     C156808  18.041  12.796  11.969  0.1660  0.3747 -0.0063
37663DOD     C256809  18.019  12.372  12.193  0.3435 -0.0935  0.0553
37663DOD     C356810  18.114  12.074  12.559  0.0163  0.0725 -0.0338
37664DOD     C156811   1.661   0.509  12.084 -0.2952  0.1584  0.3586
37664DOD     C256812   1.791   0.241  12.437  0.0379 -0.0864 -0.0155
37664DOD     C356813   1.484  30.171  12.516 -0.0793  0.0526 -0.1474
37665DOD     C156814   3.208  19.439  26.463 -0.1504 -0.1907 -0.0374
37665DOD     C256815   3.273  19.872  26.445 -0.0970 -0.3625 -0.1629
37665DOD     C356816   3.406  20.243  26.668  0.0285  0.0739  0.1319
37666DOD     C156817  21.001   3.708  19.087  0.2491  0.1989  0.0153
37666DOD     C256818  21.292   3.353  19.216  0.0667 -0.1636  0.0099
37666DOD     C356819  21.446   3.114  19.590 -0.0662  0.1160  0.0695
37667DOD     C156820   4.158  14.355  26.454 -0.0060  0.2477  0.1889
37667DOD     C256821   3.778  14.337  26.711  0.0033  0.0554  0.1425
37667DOD     C356822   3.676  14.448  27.187 -0.0790  0.1759  0.4029
37668DOD     C156823  14.342  21.075  22.988  0.0618  0.1180 -0.0467
37668DOD     C256824  14.178  21.030  23.447 -0.1081 -0.0044 -0.2223
37668DOD     C356825  14.168  20.665  23.680 -0.0635  0.0060 -0.4019
37669DOD     C156826  10.037  16.465  19.007 -0.0749  0.0595 -0.1205
37669DOD     C256827  10.171  16.426  19.466  0.1640  0.0122 -0.0898
37669DOD     C356828  10.439  16.218  19.802 -0.0464  0.1529  0.0352
37670DOD     C156829  28.931  21.192   2.245 -0.2059 -0.0387 -0.2666
37670DOD     C256830  29.186  20.855   2.070 -0.0568  0.0181  0.1467
37670DOD     C356831  29.157  20.414   2.062 -0.1759  0.1039  0.0679
37671DOD     C156832  27.743   2.492   1.380 -0.0622  0.2795 -0.0593
37671DOD     C256833  27.469   2.089   1.329 -0.0462  0.2198 -0.0673
37671DOD     C356834  27.608   1.636   1.428 -0.0275  0.2295  0.1075
37672DOD     C156835  29.589  16.139  28.806  0.1580  0.1015  0.0530
37672DOD     C256836  29.760  15.758  28.625 -0.0783 -0.0470 -0.1282
37672DOD     C356837  30.188  15.714  28.387 -0.0091  0.1582  0.1138
37673DOD     C156838  10.748   8.042   9.234  0.0941 -0.0918  0.0070
37673DOD     C256839  10.468   8.094   9.617 -0.0322 -0.2051 -0.1225
37673DOD     C356840  10.175   8.149  10.002  0.0642 -0.3549 -0.2114
37674DOD     C156841  23.197   5.379  11.133 -0.2594  0.0884  0.0564
37674DOD     C256842  22.775   5.339  11.358 -0.0616  0.2056 -0.0672
37674DOD     C356843  22.602   4.959  11.579 -0.0768 -0.1631 -0.0134
37675DOD     C156844  30.098   0.029  16.223  0.3610  0.1294 -0.1291
37675DOD     C256845   0.174  30.142  16.488 -0.0773 -0.1910 -0.2172
37675DOD     C356846   0.271  30.191  16.928 -0.2549 -0.0467 -0.1834
37676DOD     C156847   7.488  25.459  17.863 -0.1823 -0.0104  0.2330
37676DOD     C256848   7.272  25.798  18.040 -0.0056  0.2983 -0.0366
37676DOD     C356849   7.289  25.997  18.397 -0.0603  0.2123  0.0243
37677DOD     C156850   8.692   4.815   7.990 -0.0439  0.3969 -0.1501
37677DOD     C256851   8.334   5.056   7.781 -0.0669 -0.1669  0.1888
37677DOD     C356852   8.145   5.151   7.395 -0.0582  0.1382 -0.0241
37678DOD     C156853  29.657   4.453  14.587  0.1435  0.1439 -0.0358
37678DOD     C256854  30.077   4.205  14.453  0.2253  0.0029  0.0333
37678DOD     C356855   0.111   3.950  14.346 -0.1800  0.1149  0.0560
37679DOD     C156856   5.744  28.399   4.224  0.3040 -0.0806  0.2102
37679DOD     C256857   5.397  28.710   4.050 -0.1135  0.0866 -0.3847
37679DOD     C356858   5.241  28.933   3.674  0.0703 -0.2487 -0.2581
37680DOD     C156859  15.725  29.847  27.484 -0.1036 -0.1415 -0.1325
37680DOD     C256860  15.731  30.088  27.854 -0.0891  0.0981 -0.1634
37680DOD     C356861  15.633  29.973  28.328 -0.1398  0.2504 -0.0457
37681DOD     C156862   9.870  28.432   5.299 -0.3781 -0.1861  0.0936
37681DOD     C256863   9.939  28.504   4.852 -0.0480  0.2013 -0.0692
37681DOD     C356864   9.981  28.369   4.387  0.2032  0.1021  0.2196
37682DOD     C156865   5.348  25.143  27.567  0.3760  0.1265  0.1570
37682DOD     C256866   5.261  24.761  27.815  0.1762 -0.0799 -0.1152
37682DOD     C356867   5.173  24.334  27.979 -0.0692  0.0354 -0.2085
37683DOD     C156868  26.102  13.022  20.930  0.1688 -0.3288 -0.1204
37683DOD     C256869  26.540  12.793  21.091 -0.0508  0.2491  0.3126
37683DOD     C356870  26.895  12.757  21.249 -0.0468  0.2614 -0.3807
37684DOD     C156871  14.049   4.273  15.010  0.1811  0.1028 -0.1551
37684DOD     C256872  13.582   4.128  14.979  0.1762 -0.4004 -0.1356
37684DOD     C356873  13.324   3.743  15.018 -0.0023  0.0129 -0.2274
37685DOD     C156874   5.381   5.023   6.751  0.0825 -0.1638 -0.0712
37685DOD     C256875   5.745   5.071   7.012 -0.1738  0.1811  0.0619
37685DOD     C356876   6.108   5.320   6.988  0.1008 -0.2354 -0.1312
37686DOD     C156877   2.288  28.872  14.847 -0.2643 -0.0659  0.0996
37686DOD     C256878   1.892  28.954  15.045  0.1230  0.0541 -0.0397
37686DOD     C356879   1.595  28.630  15.243 -0.0525 -0.1715  0.0183
37687DOD     C156880  21.413   1.975  20.487  0.0583 -0.3186  0.1369
37687DOD     C256881  21.846   2.049  20.370  0.2938 -0.2343  0.3672
37687DOD     C356882  22.299   2.049  20.303 -0.0373  0.0605 -0.4421
37688DOD     C156883  29.728   3.507  13.415 -0.3755  0.2083 -0.4125
37688DOD     C256884  30.075   3.469  13.110  0.0041  0.0207 -0.3382
37688DOD     C356885   0.092   3.700  12.951  0.2092  0.0261 -0.2056
37689DOD     C156886   7.287  29.517   9.278  0.1202  0.0858  0.0333
37689DOD     C256887   7.126  29.557   9.686 -0.0556  0.0737 -0.0035
37689DOD     C356888   6.801  29.383   9.901  0.1206  0.3149  0.0900
37690DOD     C156889  11.159  15.315   9.331  0.0624 -0.2392  0.2985
37690DOD     C256890  11.050  14.921   9.396 -0.1427  0.0934  0.2635
37690DOD     C356891  11.096  14.726   9.814  0.1195 -0.2120  0.0849
37691DOD     C156892  23.598  20.227  24.727 -0.2358  0.1952  0.3478
37691DOD     C256893  23.753  20.657  24.600  0.2447 -0.2170  0.2345
37691DOD     C356894  24.022  20.917  24.274 -0.2629  0.1634 -0.1373
37692DOD     C156895  10.214  17.509  16.504  0.0441 -0.3217  0.0424
37692DOD     C256896  10.001  17.881  16.642  0.0988  0.1806 -0.3784
37692DOD     C356897   9.696  18.099  16.966 -0.3293  0.0831 -0.0940
37693DOD     C156898  24.297  19.340  17.430  0.1559  0.0105  0.1755
37693DOD     C256899  24.648  19.282  17.691  0.0803 -0.2581 -0.0859
37693DOD     C356900  25.088  19.242  17.933  0.0488  0.2958  0.0269
37694DOD     C156901  13.237  17.971  22.247 -0.1155 -0.0462 -0.5054
37694DOD     C256902  13.427  18.350  22.228 -0.5418  0.1139  0.3380
37694DOD     C356903  13.512  18.815  22.078  0.1323 -0.0465  0.2484
37695DOD     C156904   7.387   7.241   6.730  0.0169  0.0757 -0.0271
37695DOD     C256905   7.089   7.045   6.418 -0.0043 -0.0228 -0.1670
37695DOD     C356906   6.751   7.134   6.128  0.3637 -0.0936  0.0224
37696DOD     C156907  23.898   0.923   1.521 -0.1864 -0.0363  0.2249
37696DOD     C256908  24.077   1.329   1.379 -0.1806  0.1413  0.2371
37696DOD     C356909  24.070   1.777   1.516  0.0666 -0.1145  0.1734
37697DOD     C156910   8.337  28.974  11.568 -0.0797  0.0800 -0.0418
37697DOD     C256911   8.831  28.789  11.616 -0.2591  0.0445  0.3638
37697DOD     C356912   9.224  29.027  11.465  0.0818 -0.0347  0.2080
37698DOD     C156913  26.116  22.297   2.821  0.0094 -0.0182  0.0054
37698DOD     C256914  26.372  21.970   3.044 -0.1783 -0.1449  0.1401
37698DOD     C356915  26.564  21.597   3.174 -0.0680  0.0794 -0.2189
37699DOD     C156916   6.083  15.539  13.459  0.1701  0.0369  0.4642
37699DOD     C256917   5.886  15.209  13.726 -0.1710  0.0885  0.1499
37699DOD     C356918   5.545  14.899  13.733  0.0127  0.0789  0.2348
37700DOD     C156919   8.192  24.028  21.494  0.0981  0.1945 -0.1993
37700DOD     C256920   8.169  24.214  21.960  0.1200  0.1472  0.2729
37700DOD     C356921   8.421  24.245  22.333 -0.1104 -0.0781 -0.1429
37701DOD     C156922  23.791  28.853  27.783  0.2268 -0.0347 -0.2339
37701DOD     C256923  23.482  28.822  27.491  0.1523  0.2250 -0.2005
37701DOD     C356924  23.209  28.896  27.113  0.0973 -0.1439  0.2211
37702DOD     C156925  10.999  22.396  25.107  0.0186  0.3210  0.0327
37702DOD     C256926  10.989  22.685  24.712  0.0608  0.0818  0.1063
37702DOD     C356927  11.068  22.931  24.366 -0.2428  0.2534  0.0398
37703DOD     C156928  20.938   2.421   0.304  0.1269  0.1872  0.1928
37703DOD     C256929  20.911   2.847   0.181 -0.0314  0.2219  0.0602
37703DOD     C356930  21.075   3.255   0.267 -0.2107 -0.4130  0.0526
37704DOD     C156931  21.879  11.525   9.224  0.0033  0.3327 -0.2861
37704DOD     C256932  22.207  11.216   9.388  0.0963  0.0334  0.1440
37704DOD     C356933  22.605  11.353   9.592  0.0534  0.2383  0.3105
37705DOD     C156934  28.019   7.378  21.634 -0.0204  0.0244 -0.0645
37705DOD     C256935  27.593   7.462  21.417 -0.0747  0.0689  0.2903
37705DOD     C356936  27.147   7.596  21.307 -0.1731  0.0332  0.0349
37706DOD     C156937   0.315  14.448  27.978 -0.3609  0.2100  0.3602
37706DOD     C256938   0.224  14.107  28.211  0.0839 -0.2129  0.0479
37706DOD     C356939   0.012  14.016  28.613  0.0654 -0.1511 -0.1797
37707DOD     C156940  18.717   1.061  12.964  0.2652 -0.0401  0.1198
37707DOD     C256941  18.499   0.733  13.109  0.1694 -0.1382 -0.0172
37707DOD     C356942  18.086   0.568  13.269 -0.0374 -0.0734 -0.2443
37708DOD     C156943  20.502  28.547  19.821  0.2141  0.4610  0.1563
37708DOD     C256944  20.339  28.136  19.623 -0.1051 -0.0009 -0.0157
37708DOD     C356945  20.226  27.739  19.483 -0.0804  0.2554  0.2664
37709DOD     C156946  27.985  27.525   0.805 -0.2768  0.3287 -0.1836
37709DOD     C256947  28.226  27.446   0.403 -0.0689 -0.0051  0.4532
37709DOD     C356948  28.330  27.410  30.246 -0.0060  0.3844  0.0390
37710DOD     C156949  26.964  12.712   7.229 -0.0368  0.0364  0.0876
37710DOD     C256950  27.413  12.739   7.027 -0.0119 -0.3058  0.1497
37710DOD     C356951  27.701  12.697   6.676 -0.1307  0.2567  0.1427
37711DOD     C156952  11.796   7.698  23.289  0.0810  0.0775  0.1440
37711DOD     C256953  12.050   7.805  23.702  0.1773  0.1076 -0.1776
37711DOD     C356954  11.857   8.057  24.040 -0.0536  0.2702 -0.0413
37712DOD     C156955  17.400   7.637  26.657  0.2704 -0.0984 -0.2615
37712DOD     C256956  17.685   7.927  26.946  0.6580  0.1497 -0.2901
37712DOD     C356957  17.903   8.312  27.089 -0.1092 -0.1609  0.3346
37713DOD     C156958   9.087  25.913   1.005 -0.0677  0.0685 -0.2266
37713DOD     C256959   8.876  26.052   1.407 -0.2553 -0.0506 -0.3898
37713DOD     C356960   8.844  25.995   1.913  0.0213 -0.3048  0.0495
37714DOD     C156961  21.931   1.005  24.920 -0.2205 -0.2884 -0.2300
37714DOD     C256962  22.290   1.096  24.581 -0.1822  0.1737 -0.2112
37714DOD     C356963  22.747   1.141  24.742  0.1351  0.0942  0.0732
37715DOD     C156964  22.699  10.342   1.403 -0.3687 -0.1539  0.3746
37715DOD     C256965  22.842   9.963   1.453  0.0125  0.1693 -0.2790
37715DOD     C356966  22.715   9.552   1.710  0.2326 -0.0008  0.3662
37716DOD     C156967  17.740   0.717  26.265  0.2813  0.2086  0.1438
37716DOD     C256968  17.530   1.106  26.139  0.0646  0.1277  0.3601
37716DOD     C356969  17.477   1.346  25.769 -0.2327  0.0877  0.1255
37717DOD     C156970  12.746  20.840  15.904 -0.0467 -0.0316  0.0908
37717DOD     C256971  12.906  21.097  15.556 -0.0791 -0.0562 -0.0326
37717DOD     C356972  12.958  21.087  15.080  0.1391  0.3051 -0.1053
37718DOD     C156973  15.099  10.093  12.868  0.0757 -0.0167 -0.2583
37718DOD     C256974  14.818  10.388  12.575 -0.3575  0.2284 -0.3757
37718DOD     C356975  14.378  10.491  12.427 -0.1470 -0.1496 -0.0017
37719DOD     C156976  20.746   8.696  17.544  0.0324  0.0041  0.2163
37719DOD     C256977  21.143   8.931  17.495 -0.3878  0.1331 -0.2946
37719DOD     C356978  21.545   9.230  17.340  0.0466 -0.0561  0.0581
37720DOD     C156979  15.024  28.549  25.533 -0.3758 -0.0987 -0.2693
37720DOD     C256980  15.183  28.754  25.167 -0.0465 -0.2231 -0.0127
37720DOD     C356981  15.598  28.773  24.895  0.4319  0.1211 -0.0621
37721DOD     C156982   4.217  21.674   3.001 -0.1799 -0.1606 -0.1872
37721DOD     C256983   3.993  21.946   2.736 -0.0309 -0.1876 -0.0888
37721DOD     C356984   3.877  22.295   2.510 -0.1062  0.1167  0.0943
37722DOD     C156985   9.526  23.846  12.876 -0.1578 -0.0302 -0.3532
37722DOD     C256986   9.935  23.815  12.911 -0.0888 -0.2568  0.0557
37722DOD     C356987  10.228  23.554  12.696 -0.1880 -0.2888 -0.2264
37723DOD     C156988  25.388  19.890   9.234  0.0731  0.0549  0.1934
37723DOD     C256989  25.317  20.212   8.914 -0.0324  0.0528 -0.1037
37723DOD     C356990  25.552  20.354   8.517 -0.1781 -0.3458 -0.0055
37724DOD     C156991   0.088   6.675  30.298 -0.0677  0.0407  0.0392
37724DOD     C256992   0.468   6.419  30.116 -0.0829  0.2933  0.1450
37724DOD     C356993   0.782   6.128  29.922 -0.2133 -0.0857  0.3954
37725DOD     C156994  24.814  27.182  15.047  0.0427 -0.0274 -0.1677
37725DOD     C256995  25.050  27.509  15.231 -0.2917 -0.2032  0.0769
37725DOD     C356996  24.948  27.952  15.316  0.2090 -0.1054 -0.2922
37726DOD     C156997  15.895  15.622   4.989 -0.0781  0.1740 -0.3041
37726DOD     C256998  15.659  15.666   5.411 -0.0122 -0.2019 -0.1250
37726DOD     C356999  15.609  15.584   5.805 -0.3750  0.3285 -0.0417
37727DOD     C157000   1.060   8.428  18.225  0.1917  0.2904  0.0582
37727DOD     C257001   1.362   8.720  18.422  0.1612  0.0721  0.2808
37727DOD     C357002   1.330   8.930  18.824  0.0828 -0.1722  0.1859
37728DOD     C157003  28.325  26.128   5.446  0.0356 -0.0779  0.4003
37728DOD     C257004  27.973  26.443   5.528 -0.0308  0.1071  0.0042
37728DOD     C357005  27.863  26.904   5.498 -0.0965  0.1008 -0.0370
37729DOD     C157006  26.888   0.102   7.022 -0.1326 -0.0197  0.0069
37729DOD     C257007  27.149   0.214   6.686  0.0175 -0.2353 -0.2312
37729DOD     C357008  27.459   0.349   6.345 -0.2635  0.3070  0.0280
37730DOD     C157009   5.847  14.741  17.674 -0.2773 -0.2109 -0.0731
37730DOD     C257010   5.458  14.629  17.454  0.0511 -0.2400  0.2352
37730DOD     C357011   5.139  14.654  17.085  0.0812 -0.3985  0.0763
37731DOD     C157012   6.339  28.663  27.221 -0.0382 -0.1231  0.1240
37731DOD     C257013   6.146  29.077  27.248 -0.0354 -0.4091  0.0820
37731DOD     C357014   5.744  29.251  27.424  0.1098 -0.1214  0.0497
37732DOD     C157015  24.963  10.948  29.171  0.1515 -0.0200  0.1031
37732DOD     C257016  24.569  10.905  28.884 -0.0221  0.0482 -0.2215
37732DOD     C357017  24.226  11.215  28.684  0.4078  0.2689 -0.1143
37733DOD     C157018   2.650  14.493   9.929  0.1182 -0.0657  0.0782
37733DOD     C257019   2.411  14.096  10.009 -0.1658 -0.0218  0.2331
37733DOD     C357020   2.291  13.717  10.249  0.0475  0.0376 -0.1345
37734DOD     C157021   4.108  13.189  21.859  0.3063  0.2365 -0.1534
37734DOD     C257022   4.026  13.654  21.849  0.6690 -0.1481  0.0522
37734DOD     C357023   3.788  14.044  21.766 -0.0645  0.0045 -0.1309
37735DOD     C157024  27.508  19.442   9.255 -0.0831 -0.0005  0.1050
37735DOD     C257025  27.417  19.186   8.859  0.0095  0.2404  0.1513
37735DOD     C357026  27.130  19.199   8.432  0.3389 -0.1481  0.1708
37736DOD     C157027   5.203  26.402  28.423  0.3062  0.2364 -0.0674
37736DOD     C257028   5.411  26.642  28.047 -0.0018  0.1285 -0.1234
37736DOD     C357029   5.483  26.454  27.616 -0.0267 -0.0677 -0.5076
37737DOD     C157030  25.630  25.031  29.186  0.0294 -0.0382  0.2916
37737DOD     C257031  25.900  25.180  28.861  0.0261 -0.2505  0.0780
37737DOD     C357032  25.878  25.428  28.448 -0.0010 -0.1339  0.0793
37738DOD     C157033   2.458  12.101  27.164 -0.3355 -0.2554 -0.0581
37738DOD     C257034   2.095  11.830  27.141  0.1593  0.1411  0.1884
37738DOD     C357035   2.020  11.367  27.176  0.0069  0.2415  0.1644
37739DOD     C157036  22.996   5.663  23.832  0.2994  0.3019 -0.1891
37739DOD     C257037  22.703   5.880  24.128 -0.1774  0.0840 -0.0261
37739DOD     C357038  22.394   6.112  24.434 -0.0811  0.0344  0.1545
37740DOD     C157039  23.423  13.281   4.509  0.0230  0.2314 -0.3872
37740DOD     C257040  23.875  13.261   4.406 -0.1554  0.1460  0.0344
37740DOD     C357041  24.287  13.270   4.060 -0.1002  0.0561  0.0013
37741DOD     C157042  20.872  12.431   7.484  0.0162  0.0844  0.0791
37741DOD     C257043  20.861  12.158   7.100 -0.0658 -0.3177  0.1048
37741DOD     C357044  20.516  11.954   6.772 -0.2069 -0.5188 -0.0625
37742DOD     C157045  16.935  16.667  13.589  0.0125  0.0259  0.0324
37742DOD     C257046  17.207  16.261  13.653  0.1296  0.0754  0.1506
37742DOD     C357047  17.543  15.963  13.756 -0.2052 -0.0590  0.1931
37743DOD     C157048   8.207  11.354  18.863  0.1409 -0.2591 -0.0961
37743DOD     C257049   8.081  11.419  19.292 -0.2527 -0.0958 -0.1909
37743DOD     C357050   7.888  11.304  19.721  0.1377 -0.0020 -0.0019
37744DOD     C157051   4.078  11.122  16.521 -0.2512  0.2882  0.0517
37744DOD     C257052   3.834  10.721  16.392 -0.1633  0.1785 -0.0005
37744DOD     C357053   3.399  10.743  16.492  0.0373 -0.0193  0.0449
37745DOD     C157054  23.725  25.449   8.792 -0.2453 -0.4644 -0.1156
37745DOD     C257055  23.338  25.196   8.745  0.1409  0.1504 -0.0771
37745DOD     C357056  23.279  24.708   8.823 -0.0963  0.0247  0.0482
37746DOD     C157057   8.174   7.192  11.780  0.1314  0.0721 -0.2581
37746DOD     C257058   7.842   7.385  11.972  0.1482  0.1707  0.0485
37746DOD     C357059   7.886   7.706  12.270 -0.0707 -0.1245 -0.4033
37747DOD     C157060   4.008   8.877   9.299 -0.1028  0.2395 -0.2403
37747DOD     C257061   4.203   8.873   9.725  0.2195 -0.1602  0.0832
37747DOD     C357062   4.669   8.782   9.825 -0.1749  0.3122  0.1964
37748DOD     C157063  12.056  28.610  12.383  0.1325 -0.1018 -0.0429
37748DOD     C257064  11.921  28.150  12.454  0.2474  0.1474 -0.1527
37748DOD     C357065  11.967  27.710  12.477 -0.0205 -0.0579  0.1089
37749DOD     C157066   6.897  14.133   5.817 -0.1905 -0.1232  0.0251
37749DOD     C257067   7.067  13.761   5.659 -0.1440  0.0094 -0.1440
37749DOD     C357068   6.897  13.351   5.587 -0.0227  0.3001 -0.0585
37750DOD     C157069  17.139   0.641  20.622  0.3071 -0.0714  0.1194
37750DOD     C257070  17.097   0.414  20.192  0.0493 -0.0152 -0.3289
37750DOD     C357071  16.781   0.543  19.873  0.3937 -0.1470  0.3272
37751DOD     C157072  17.075   5.665   8.016 -0.0699 -0.0667  0.2138
37751DOD     C257073  17.025   5.857   8.459 -0.0362  0.2317  0.2084
37751DOD     C357074  16.862   6.299   8.532  0.0013 -0.0687  0.2390
37752DOD     C157075   6.300   5.322   8.601 -0.0413  0.0120 -0.0282
37752DOD     C257076   6.476   5.574   8.925 -0.2493  0.1011  0.1734
37752DOD     C357077   6.823   5.790   9.152  0.0397  0.0296 -0.2784
37753DOD     C157078   4.319   3.869  12.649 -0.1277  0.2226 -0.0060
37753DOD     C257079   4.683   3.841  12.962 -0.0038 -0.1486  0.1661
37753DOD     C357080   4.707   3.790  13.455 -0.0277  0.2060 -0.1382
37754DOD     C157081   0.702  21.186  16.489  0.1312  0.0225  0.1714
37754DOD     C257082   0.412  20.854  16.237 -0.1382 -0.0623  0.2089
37754DOD     C357083   0.327  20.408  16.335 -0.1543 -0.0209 -0.0766
37755DOD     C157084  11.050  30.164  16.430 -0.0345 -0.0233 -0.0309
37755DOD     C257085  10.872  30.050  16.027 -0.0512  0.2066  0.1249
37755DOD     C357086  10.489  29.942  15.880 -0.2010 -0.2147 -0.0159
37756DOD     C157087  21.334  23.586   9.178 -0.0203 -0.0665  0.1136
37756DOD     C257088  21.667  23.538   9.530 -0.1871 -0.1925 -0.0100
37756DOD     C357089  21.706  23.645   9.980  0.2276 -0.0583 -0.1978
37757DOD     C157090  28.574   9.533   8.794 -0.2822  0.1067  0.1126
37757DOD     C257091  28.492   9.105   8.759 -0.2027 -0.1385  0.0785
37757DOD     C357092  28.458   8.667   8.761 -0.0606  0.1047  0.3185
37758DOD     C157093   1.251   2.881  17.782 -0.3817  0.3977 -0.0494
37758DOD     C257094   1.523   3.273  17.918 -0.0351  0.3516 -0.0050
37758DOD     C357095   1.966   3.374  17.964 -0.1279  0.1129  0.0988
37759DOD     C157096  12.941  30.164  13.189 -0.0313 -0.1380 -0.1169
37759DOD     C257097  13.151   0.244  13.168 -0.1068 -0.1156 -0.0380
37759DOD     C357098  13.397   0.489  13.482  0.0406  0.1525 -0.0036
37760DOD     C157099  20.123  17.056   1.477  0.0209  0.2589  0.3231
37760DOD     C257100  20.358  16.862   1.101  0.0702 -0.3175 -0.3721
37760DOD     C357101  20.442  16.686   0.684  0.0060  0.1281  0.3446
37761DOD     C157102  25.009  11.357  11.429  0.1386  0.0930 -0.0373
37761DOD     C257103  25.041  10.948  11.689  0.1452  0.1998  0.0982
37761DOD     C357104  24.905  10.507  11.716 -0.0555 -0.1000 -0.2091
37762DOD     C157105   1.874  20.139  26.657  0.0390 -0.1860  0.1568
37762DOD     C257106   1.657  20.447  26.940 -0.1752  0.0240 -0.0931
37762DOD     C357107   1.770  20.892  27.083 -0.0005  0.1431 -0.0905
37763DOD     C157108  23.841   9.636  10.492 -0.1748 -0.0893  0.1293
37763DOD     C257109  23.891  10.095  10.557  0.1520 -0.0743  0.1272
37763DOD     C357110  24.082  10.513  10.749  0.2707 -0.1210 -0.2154
37764DOD     C157111   4.170   0.422  11.938  0.3147 -0.0691  0.1756
37764DOD     C257112   4.199   0.649  12.329 -0.0101  0.1048  0.0567
37764DOD     C357113   4.451   0.691  12.740  0.2039  0.2206 -0.1602
37765DOD     C157114  24.732   0.861  22.385 -0.0089 -0.0334  0.3461
37765DOD     C257115  25.106   0.578  22.404 -0.0993  0.3054 -0.1827
37765DOD     C357116  25.430   0.302  22.119  0.1136  0.1451 -0.0858
37766DOD     C157117   3.937  22.568  15.224 -0.1027  0.0223 -0.2154
37766DOD     C257118   4.305  22.778  15.452 -0.2703 -0.1049 -0.2053
37766DOD     C357119   4.559  23.120  15.620  0.3154  0.0376 -0.0098
37767DOD     C157120   4.844  27.322   8.903 -0.5019  0.1932  0.2371
37767DOD     C257121   4.625  27.034   9.176  0.4599  0.2829 -0.5540
37767DOD     C357122   4.209  26.936   9.194  0.2799 -0.1136  0.1085
37768DOD     C157123  28.599   0.856   2.939 -0.0588 -0.0064 -0.0726
37768DOD     C257124  28.689   0.643   3.361 -0.0774 -0.2839 -0.0362
37768DOD     C357125  28.820   0.255   3.249 -0.1852  0.0157  0.0103
37769DOD     C157126   9.299  10.843   1.843 -0.0211  0.0215 -0.1729
37769DOD     C257127   9.209  11.101   2.207 -0.0387 -0.0545 -0.1150
37769DOD     C357128   9.094  11.082   2.613 -0.1283 -0.2198  0.2963
37770DOD     C157129  18.076  26.427  11.610 -0.1838  0.0256 -0.1396
37770DOD     C257130  18.562  26.371  11.432  0.0136  0.0621  0.1572
37770DOD     C357131  19.037  26.364  11.565  0.0261 -0.0214  0.4406
37771DOD     C157132  21.294  20.734   5.125 -0.2066 -0.0580  0.2472
37771DOD     C257133  21.566  20.816   4.724  0.2550 -0.0357 -0.1560
37771DOD     C357134  21.743  20.859   4.309 -0.0115  0.3378  0.1306
37772DOD     C157135   6.147  29.108  11.563  0.0739 -0.1140  0.0640
37772DOD     C257136   5.697  29.171  11.672  0.0580 -0.0131  0.1030
37772DOD     C357137   5.476  29.566  11.635  0.2142 -0.0587  0.0399
37773DOD     C157138   0.898  24.800  23.713  0.0951  0.1590 -0.0811
37773DOD     C257139   0.963  24.587  23.289  0.0987  0.0487  0.0319
37773DOD     C357140   0.796  24.298  22.961  0.2642 -0.1131  0.1902
37774DOD     C157141  28.292   2.796   5.522 -0.0593  0.2961 -0.0702
37774DOD     C257142  28.488   2.894   5.906  0.1240 -0.0265  0.0952
37774DOD     C357143  28.287   3.181   6.212 -0.0052  0.0735 -0.0106
37775DOD     C157144   9.999  28.239  13.299  0.0458 -0.2505 -0.1342
37775DOD     C257145  10.072  28.273  13.736  0.0253  0.1761  0.0658
37775DOD     C357146  10.311  28.509  14.055 -0.2325 -0.1351  0.0790
37776DOD     C157147   5.672  28.368  24.936 -0.1312  0.0764  0.2785
37776DOD     C257148   5.458  28.532  24.571  0.0591 -0.0408  0.3124
37776DOD     C357149   5.046  28.672  24.525  0.2975 -0.1368 -0.0306
37777DOD     C157150   3.790   6.056  10.397 -0.0794 -0.0476  0.0933
37777DOD     C257151   3.885   5.615  10.519 -0.1679  0.1010 -0.1888
37777DOD     C357152   4.069   5.237  10.475 -0.0851 -0.0007 -0.4052
37778DOD     C157153   6.135  27.681  20.886 -0.3191 -0.3234 -0.0727
37778DOD     C257154   6.341  27.286  20.865  0.1368  0.2943  0.3295
37778DOD     C357155   6.702  27.023  20.658 -0.0490  0.1112 -0.0758
37779DOD     C157156  26.254   2.490  13.495 -0.2700  0.1660  0.1398
37779DOD     C257157  26.518   2.669  13.181 -0.2130  0.3123  0.0139
37779DOD     C357158  26.912   2.713  12.982  0.2657 -0.2032 -0.0347
37780DOD     C157159   7.428  16.963  29.708  0.0441  0.2738  0.0255
37780DOD     C257160   7.173  16.729  30.107 -0.0778  0.0933 -0.0468
37780DOD     C357161   6.744  16.853  30.277 -0.4689  0.1479  0.3379
37781DOD     C157162  22.239  11.812   6.742 -0.1137 -0.0232 -0.3768
37781DOD     C257163  22.472  12.082   7.042  0.0159 -0.1380  0.0141
37781DOD     C357164  22.858  12.233   7.260  0.2595 -0.0888 -0.1668
37782DOD     C157165  25.827   1.657   2.006  0.2765  0.4230 -0.0825
37782DOD     C257166  25.621   1.407   2.353 -0.1104  0.1064  0.0046
37782DOD     C357167  25.274   1.093   2.461  0.1598  0.3306 -0.0112
37783DOD     C157168  22.751   7.359   1.429  0.1847 -0.0499  0.2028
37783DOD     C257169  22.816   7.680   1.696 -0.0889  0.1968  0.2361
37783DOD     C357170  22.835   7.864   2.105 -0.0493 -0.0353 -0.2713
37784DOD     C157171  22.341   3.936  26.146  0.0434 -0.1933 -0.0348
37784DOD     C257172  22.262   3.617  26.488  0.3490 -0.1709  0.1009
37784DOD     C357173  22.242   3.364  26.855  0.0682  0.0163 -0.1588
37785DOD     C157174   5.881  16.589  19.042  0.1022 -0.1225 -0.0748
37785DOD     C257175   5.905  16.577  19.556  0.0351  0.0285  0.0855
37785DOD     C357176   5.981  16.492  19.964  0.1226 -0.1435  0.0383
37786DOD     C157177  22.856   2.290   9.834  0.2885 -0.1412  0.0527
37786DOD     C257178  23.043   2.218  10.226 -0.1166 -0.3818 -0.2136
37786DOD     C357179  23.126   1.965  10.606 -0.0387 -0.1488 -0.2248
37787DOD     C157180  25.705  28.706   1.409 -0.0407 -0.1681 -0.1048
37787DOD     C257181  25.507  28.519   1.017 -0.1591  0.2222 -0.4881
37787DOD     C357182  25.163  28.636   0.732  0.0427 -0.1075  0.1142
37788DOD     C157183  15.378  12.885   2.638 -0.0183 -0.1685  0.3730
37788DOD     C257184  15.755  13.168   2.706  0.2469  0.1312 -0.0778
37788DOD     C357185  16.168  13.058   2.900  0.1871  0.0663 -0.1863
37789DOD     C157186   7.399  29.838   6.236  0.3161 -0.0134 -0.2355
37789DOD     C257187   7.574  29.527   5.926 -0.2657 -0.0254  0.0033
37789DOD     C357188   7.821  29.168   5.912  0.2757  0.1590  0.3143
37790DOD     C157189  25.055  10.628  29.697 -0.0901  0.2179 -0.0416
37790DOD     C257190  25.343  10.969  29.758  0.4479  0.1559 -0.2561
37790DOD     C357191  25.350  11.344  29.500  0.0911 -0.2443 -0.0933
37791DOD     C157192  26.981  15.596  18.938 -0.0421  0.1376  0.0071
37791DOD     C257193  27.065  15.369  19.399 -0.0019  0.0786  0.1906
37791DOD     C357194  27.252  15.440  19.813 -0.1280 -0.0898  0.0646
37792DOD     C157195   7.980  23.696  21.227 -0.1378  0.0877  0.1126
37792DOD     C257196   7.971  23.494  20.798  0.0043  0.2026 -0.1056
37792DOD     C357197   7.784  23.728  20.434  0.1797  0.0401 -0.1820
37793DOD     C157198  10.460  13.264  13.100  0.2584 -0.0189 -0.2659
37793DOD     C257199  10.351  13.289  13.568 -0.0069 -0.0993 -0.0772
37793DOD     C357200  10.203  13.283  14.010  0.1481  0.0448  0.0877
37794DOD     C157201  13.242  28.327  11.913  0.1590  0.1131  0.2110
37794DOD     C257202  13.542  28.514  11.621  0.1680 -0.3061  0.2348
37794DOD     C357203  13.951  28.350  11.443  0.1350  0.3685  0.0937
37795DOD     C157204  26.662  12.174  12.102 -0.0761  0.0708 -0.1208
37795DOD     C257205  26.665  12.196  11.637  0.0235  0.1523 -0.1289
37795DOD     C357206  26.287  12.072  11.377 -0.1501  0.0900 -0.1067
37796DOD     C157207  26.549  13.326  12.733  0.1001  0.0219  0.0591
37796DOD     C257208  26.870  13.630  12.579 -0.1403 -0.0234 -0.0607
37796DOD     C357209  27.104  14.030  12.492  0.0477  0.1655  0.0829
37797DOD     C157210  28.952  12.147  14.240 -0.2999 -0.0377  0.1762
37797DOD     C257211  28.780  12.553  14.199 -0.0998  0.0436  0.1449
37797DOD     C357212  28.429  12.904  14.163  0.1203 -0.0484 -0.2957
37798DOD     C157213  24.541  21.808   2.789  0.0014 -0.1793  0.2222
37798DOD     C257214  24.973  21.897   2.954  0.1239 -0.2785 -0.1602
37798DOD     C357215  25.187  22.316   3.107 -0.1339  0.0025 -0.3962
37799DOD     C157216   3.762   0.227  13.226 -0.0644  0.1927 -0.2519
37799DOD     C257217   4.048   0.257  12.838  0.1997 -0.0075  0.2470
37799DOD     C357218   4.040   0.186  12.390 -0.1784  0.0431  0.3554
37800DOD     C157219  23.213   7.675   4.343 -0.0406  0.0359 -0.0426
37800DOD     C257220  23.651   7.722   4.159 -0.2241 -0.2415 -0.1640
37800DOD     C357221  24.084   7.609   4.055  0.0203  0.1458 -0.2931
37801DOD     C157222  24.517   0.204  22.108 -0.0947  0.1116 -0.1140
37801DOD     C257223  24.895   0.454  21.955 -0.1161 -0.3143  0.0367
37801DOD     C357224  24.979   0.903  21.862 -0.0360  0.1742  0.2181
37802DOD     C157225  19.926  22.781  29.489  0.1467  0.0749 -0.1547
37802DOD     C257226  20.115  23.177  29.479 -0.2438 -0.2136  0.1816
37802DOD     C357227  20.499  23.282  29.673 -0.1084  0.1398  0.0785
37803DOD     C157228  22.740  16.397  13.920 -0.2635  0.1614 -0.0798
37803DOD     C257229  22.828  16.864  13.815  0.0691 -0.1510 -0.0229
37803DOD     C357230  23.112  17.192  13.699  0.3394 -0.0199 -0.3317
37804DOD     C157231   8.232   2.546  24.040  0.1588 -0.2596  0.0399
37804DOD     C257232   8.436   2.952  23.969 -0.0687 -0.0492 -0.0087
37804DOD     C357233   8.385   3.411  23.788 -0.0696  0.1194  0.1957
37805DOD     C157234   8.001   5.393   2.823  0.1594  0.1285  0.0713
37805DOD     C257235   7.946   5.465   2.404 -0.2294 -0.1704 -0.1742
37805DOD     C357236   7.596   5.408   2.075  0.2010 -0.3407  0.2382
37806DOD     C157237  27.913  22.191  16.850  0.0116  0.0147 -0.2310
37806DOD     C257238  27.889  21.987  17.336 -0.1736  0.3325  0.1536
37806DOD     C357239  28.192  21.943  17.713  0.0848 -0.2443 -0.0665
37807DOD     C157240   8.992  29.200   6.998  0.1945 -0.3657  0.0496
37807DOD     C257241   8.793  29.256   7.372  0.0967  0.3496  0.2209
37807DOD     C357242   8.487  29.231   7.693 -0.0747  0.1994  0.1681
37808DOD     C157243  16.461   4.954   8.554 -0.3694  0.1762 -0.1076
37808DOD     C257244  16.545   5.351   8.821 -0.3015  0.2129  0.4752
37808DOD     C357245  16.344   5.777   8.915  0.0485 -0.1087  0.0093
37809DOD     C157246  27.517   2.498  16.831  0.2001  0.0816  0.0752
37809DOD     C257247  27.247   2.336  16.474 -0.0112 -0.3066 -0.3621
37809DOD     C357248  27.006   2.509  16.068 -0.1851  0.0555 -0.1541
37810DOD     C157249  29.357  12.421  21.299  0.2189 -0.1073  0.1747
37810DOD     C257250  29.352  12.855  21.376 -0.1896  0.1513 -0.0430
37810DOD     C357251  29.098  13.168  21.232  0.1322 -0.0950 -0.0964
37811DOD     C157252   7.995   3.203  24.063  0.0066  0.0464  0.1552
37811DOD     C257253   7.628   2.997  24.248  0.1003 -0.0819  0.3965
37811DOD     C357254   7.273   2.676  24.346  0.1802  0.5380 -0.1549
37812DOD     C157255  10.158  13.951   8.831  0.3897 -0.1610  0.3034
37812DOD     C257256  10.529  14.176   8.976  0.2221  0.1531  0.0728
37812DOD     C357257  10.921  13.948   9.126  0.2561 -0.1148 -0.1149
37813DOD     C157258  22.796   6.462  16.054 -0.1713 -0.0175  0.0450
37813DOD     C257259  22.965   6.761  15.814 -0.0774 -0.2614  0.2964
37813DOD     C357260  23.182   7.026  15.505  0.1096 -0.1235  0.2089
37814DOD     C157261  11.062   0.249   9.096 -0.0897  0.0141  0.1296
37814DOD     C257262  10.744   0.520   8.766 -0.3071 -0.0498 -0.0167
37814DOD     C357263  10.491   0.606   8.380  0.1120  0.0361 -0.0260
37815DOD     C157264  21.576   1.006   9.220  0.4096  0.0639  0.1280
37815DOD     C257265  21.325   1.295   8.958 -0.1522 -0.0745  0.0055
37815DOD     C357266  20.958   1.530   9.099  0.2171 -0.0303  0.0281
37816DOD     C157267  25.563  17.430   3.013  0.4637 -0.1433  0.3095
37816DOD     C257268  25.670  17.638   3.404  0.1331 -0.1796  0.0954
37816DOD     C357269  25.807  17.915   3.699 -0.0945 -0.1885 -0.0433
37817DOD     C157270  25.744  27.573  20.022  0.1497  0.0875  0.0721
37817DOD     C257271  25.784  27.103  20.109 -0.1346 -0.1971 -0.0412
37817DOD     C357272  25.634  26.622  20.060  0.2532  0.1392 -0.1026
37818DOD     C157273  24.987   2.571  11.700  0.1295  0.2464  0.2987
37818DOD     C257274  24.577   2.449  11.926 -0.2458  0.3168 -0.2676
37818DOD     C357275  24.409   2.416  12.374 -0.1762 -0.2235 -0.2691
37819DOD     C157276   8.761  18.046   2.420  0.1696  0.1640  0.1543
37819DOD     C257277   9.172  18.178   2.539 -0.3045  0.0948 -0.0913
37819DOD     C357278   9.517  17.954   2.321 -0.2894 -0.0159  0.2107
37820DOD     C157279  18.433  25.930  22.896  0.1151 -0.0200 -0.0726
37820DOD     C257280  18.720  25.940  23.308  0.1632 -0.0702 -0.2366
37820DOD     C357281  18.772  26.071  23.770  0.1229  0.2353 -0.0039
37821DOD     C157282  16.926  18.865  27.947  0.0743 -0.3386  0.0065
37821DOD     C257283  17.003  18.421  27.916  0.1565  0.3021 -0.2633
37821DOD     C357284  16.781  18.018  27.923 -0.0501  0.0379  0.1665
37822DOD     C157285  27.252  13.898  21.324 -0.1404 -0.0751  0.0920
37822DOD     C257286  27.016  13.936  20.919  0.0098 -0.3537  0.0841
37822DOD     C357287  27.146  13.905  20.470  0.0946 -0.0432 -0.2680
37823DOD     C157288   0.246   9.672  10.390 -0.1295  0.2460 -0.2403
37823DOD     C257289   0.132   9.825   9.980  0.0267  0.0173 -0.1622
37823DOD     C357290   0.037   9.660   9.530  0.1528  0.1358 -0.4752
37824DOD     C157291  14.550  17.387   0.778 -0.1367  0.0630 -0.1921
37824DOD     C257292  14.696  17.158   0.437  0.2062  0.0310  0.1566
37824DOD     C357293  14.880  16.807   0.184 -0.1587  0.0374  0.3449
37825DOD     C157294  23.429  19.128  13.810  0.0363  0.2394  0.3251
37825DOD     C257295  23.822  19.313  13.817  0.3468  0.0071  0.0610
37825DOD     C357296  23.990  19.748  13.683 -0.0180  0.2842 -0.0992
37826DOD     C157297   9.468  28.773  16.392 -0.0818  0.0823 -0.0536
37826DOD     C257298   9.334  28.441  16.016  0.2724 -0.3339 -0.0151
37826DOD     C357299   8.942  28.315  15.852 -0.1131  0.4211 -0.4442
37827DOD     C157300   0.535  24.031  21.542 -0.0840  0.1473  0.4421
37827DOD     C257301   0.923  24.087  21.261  0.1299  0.0342  0.1025
37827DOD     C357302   1.049  24.244  20.849 -0.1354 -0.0859 -0.0172
37828DOD     C157303  15.202  22.732  11.302 -0.1897  0.0729 -0.0450
37828DOD     C257304  14.932  22.523  11.012  0.0736 -0.1812  0.2055
37828DOD     C357305  14.551  22.347  10.758  0.1123  0.1190  0.0425
37829DOD     C157306   5.210  15.703  18.113  0.0287  0.1294  0.0717
37829DOD     C257307   4.915  15.509  17.783 -0.1301  0.0119 -0.0485
37829DOD     C357308   4.816  15.100  17.548  0.0560 -0.1036 -0.0140
37830DOD     C157309   8.559   5.295  20.921  0.3616  0.2334 -0.1737
37830DOD     C257310   8.640   4.827  20.804  0.2584 -0.2912  0.0702
37830DOD     C357311   8.693   4.410  20.855 -0.0981 -0.0053  0.0995
37831DOD     C157312  28.947   2.475  24.967  0.1523  0.1657 -0.2882
37831DOD     C257313  28.515   2.460  25.117 -0.1521  0.0427  0.0639
37831DOD     C357314  28.214   2.469  25.433 -0.0253  0.2934  0.2759
37832DOD     C157315   8.893  11.438  21.666 -0.0427 -0.0728  0.3062
37832DOD     C257316   8.799  10.982  21.472 -0.0941 -0.2707  0.1457
37832DOD     C357317   8.938  10.588  21.601  0.1665  0.0647 -0.1119
37833DOD     C157318  27.954  16.729  14.570  0.0790  0.3194  0.2842
37833DOD     C257319  27.573  16.636  14.229 -0.0220  0.1048  0.1235
37833DOD     C357320  27.128  16.422  14.126 -0.0326  0.3070  0.3688
37834DOD     C157321  15.153  16.840  11.905 -0.0126  0.0351  0.1300
37834DOD     C257322  15.357  16.604  12.230  0.2641  0.0454  0.0264
37834DOD     C357323  15.423  16.263  12.541  0.1765  0.0869 -0.0786
37835DOD     C157324   3.157  17.725  19.108  0.4286 -0.0696 -0.2958
37835DOD     C257325   3.447  17.919  19.448  0.1576 -0.0993  0.0829
37835DOD     C357326   3.508  17.980  19.865  0.1285  0.2220 -0.2322
37836DOD     C157327   7.858   6.325  26.498  0.0936  0.0488  0.0666
37836DOD     C257328   7.753   6.245  26.984 -0.1699 -0.2112  0.2124
37836DOD     C357329   7.729   6.104  27.484  0.0687 -0.2049  0.1412
37837DOD     C157330  14.154   1.544  28.746 -0.1037  0.0996  0.0397
37837DOD     C257331  14.138   1.943  28.454 -0.1891 -0.0351 -0.0525
37837DOD     C357332  14.503   2.220  28.457 -0.2604  0.1093 -0.1172
37838DOD     C157333  10.822  23.866  15.121  0.0125 -0.3150  0.0725
37838DOD     C257334  11.080  24.231  15.285 -0.0418  0.0846 -0.0290
37838DOD     C357335  11.122  24.564  15.643  0.0767  0.0744 -0.0429
37839DOD     C157336  19.819   4.429  26.076 -0.3638  0.0098 -0.3938
37839DOD     C257337  19.651   4.764  25.819  0.1798 -0.1388 -0.3529
37839DOD     C357338  19.427   4.851  25.431  0.0658 -0.2682  0.0967
37840DOD     C157339   1.193  23.509  12.476 -0.1588 -0.0710 -0.2880
37840DOD     C257340   0.994  23.293  12.075  0.0940 -0.0226  0.2303
37840DOD     C357341   0.858  23.122  11.641 -0.0374  0.0615 -0.1038
37841DOD     C157342   9.032  18.839  25.186 -0.1477 -0.0979 -0.1196
37841DOD     C257343   9.240  18.440  25.298 -0.0100 -0.0320 -0.0539
37841DOD     C357344   9.657  18.530  25.555 -0.2494 -0.1491  0.1907
37842DOD     C157345  22.958   9.399   6.951 -0.0545  0.2110 -0.0699
37842DOD     C257346  23.150   9.568   6.605  0.2185  0.0141  0.0899
37842DOD     C357347  23.239   9.831   6.242 -0.1581 -0.0957 -0.0950
37843DOD     C157348   8.078  22.239  24.086 -0.1145 -0.1567 -0.3658
37843DOD     C257349   8.161  21.790  24.257 -0.1647  0.0887  0.1316
37843DOD     C357350   7.989  21.677  24.734  0.0067 -0.0507 -0.2543
37844DOD     C157351  23.082   7.153  11.401 -0.0627  0.1023 -0.3707
37844DOD     C257352  23.079   7.340  11.826  0.0896  0.1968 -0.0690
37844DOD     C357353  22.899   7.773  11.951 -0.0575  0.0488 -0.3333
37845DOD     C157354   5.493   2.786   1.918  0.0941 -0.2280 -0.1664
37845DOD     C257355   5.182   2.717   1.572 -0.0695  0.0937  0.2581
37845DOD     C357356   4.809   2.819   1.248 -0.0079 -0.0279 -0.1304
37846DOD     C157357  24.352   0.246  16.876  0.1379  0.1312 -0.0017
37846DOD     C257358  24.740   0.301  17.071  0.1980  0.0658  0.1498
37846DOD     C357359  25.128   0.343  17.373  0.1202 -0.1689 -0.3335
37847DOD     C157360   4.041   5.714   4.801  0.0670 -0.0774 -0.0982
37847DOD     C257361   4.304   6.027   5.042  0.1020  0.3087 -0.0507
37847DOD     C357362   4.510   6.021   5.474 -0.1722 -0.2209  0.1430
37848DOD     C157363  19.369  13.149  13.385  0.0485  0.0479  0.0651
37848DOD     C257364  19.590  13.043  13.784 -0.0629  0.1727  0.0015
37848DOD     C357365  19.565  13.183  14.232  0.0599 -0.0314  0.2581
37849DOD     C157366  18.731   8.065   6.322 -0.1432  0.3531  0.2025
37849DOD     C257367  19.193   8.042   6.384 -0.1424  0.3271 -0.0231
37849DOD     C357368  19.599   7.783   6.197  0.1291  0.1640 -0.0792
37850DOD     C157369  28.732  16.984   8.286  0.1141 -0.1527 -0.3901
37850DOD     C257370  28.767  16.935   8.773 -0.0293 -0.1681  0.1575
37850DOD     C357371  28.878  17.082   9.202  0.0052  0.1833 -0.1808
37851DOD     C157372  12.109   9.818   8.182  0.2428  0.1816  0.0973
37851DOD     C257373  12.463   9.668   8.406  0.1605 -0.0803  0.2110
37851DOD     C357374  12.570   9.297   8.648 -0.0412  0.2009 -0.0925
37852DOD     C157375  17.788  27.506   0.376  0.1841 -0.0691 -0.3926
37852DOD     C257376  17.354  27.643   0.317 -0.1964  0.0793 -0.2735
37852DOD     C357377  16.910  27.680   0.316 -0.0947  0.5793 -0.1476
37853DOD     C157378   1.171  22.998  23.825 -0.2477 -0.2442  0.0202
37853DOD     C257379   1.475  22.843  23.444  0.2995 -0.0591 -0.2640
37853DOD     C357380   1.968  22.932  23.461 -0.2262  0.3088 -0.0952
37854DOD     C157381  10.359  23.224  17.555  0.0805  0.0438 -0.1035
37854DOD     C257382  10.134  23.343  17.087  0.0074  0.0843  0.0419
37854DOD     C357383  10.047  23.550  16.640 -0.1202 -0.2490 -0.5098
37855DOD     C157384   5.494  28.985   0.606 -0.1723  0.0620 -0.0549
37855DOD     C257385   5.251  29.402   0.703  0.0211 -0.1369  0.0639
37855DOD     C357386   5.124  29.822   0.766 -0.1653 -0.2869 -0.0129
37856DOD     C157387  13.466  19.094   0.912  0.3309  0.2291  0.0817
37856DOD     C257388  13.143  18.724   0.901 -0.2154 -0.1995 -0.0458
37856DOD     C357389  12.798  18.416   1.018 -0.0280 -0.1413 -0.4401
37857DOD     C157390  29.443  18.039  17.554 -0.0934 -0.2412  0.1526
37857DOD     C257391  29.872  17.855  17.463  0.3135  0.0692  0.0494
37857DOD     C357392  30.091  17.467  17.551  0.0731 -0.3051  0.1096
37858DOD     C157393  21.731  24.131  20.678  0.1777  0.0867 -0.2278
37858DOD     C257394  21.472  24.041  21.059 -0.1738  0.0392 -0.2365
37858DOD     C357395  21.260  23.664  21.293 -0.1264  0.0021  0.1822
37859DOD     C157396  25.340  29.234   5.993 -0.2277 -0.4643 -0.1760
37859DOD     C257397  25.118  29.595   5.794  0.2886 -0.1362 -0.0237
37859DOD     C357398  25.098  30.100   5.746 -0.1390  0.3118  0.1032
37860DOD     C157399  26.381  25.798  17.799 -0.1520  0.1364 -0.1778
37860DOD     C257400  26.411  25.976  17.339 -0.0423  0.0530 -0.0640
37860DOD     C357401  26.388  25.750  16.923 -0.2363 -0.0645  0.2520
37861DOD     C157402   7.993   5.655   8.072  0.3081 -0.1220  0.3325
37861DOD     C257403   7.573   5.571   8.113 -0.1841 -0.1828 -0.0944
37861DOD     C357404   7.159   5.530   7.915 -0.1037  0.4113  0.2576
37862DOD     C157405  27.641  29.248  11.408 -0.1047 -0.3094 -0.0363
37862DOD     C257406  27.679  28.847  11.529 -0.2128  0.0196 -0.0721
37862DOD     C357407  28.089  28.683  11.671 -0.1471 -0.1256 -0.0653
37863DOD     C157408   1.794  25.643  22.625 -0.1967 -0.0609 -0.3563
37863DOD     C257409   2.153  25.537  22.326 -0.0527  0.2922 -0.1660
37863DOD     C357410   2.101  25.421  21.854 -0.0130 -0.4176  0.0284
37864DOD     C157411  18.254  13.471  22.952  0.0396 -0.1272  0.1337
37864DOD     C257412  18.403  13.095  22.770 -0.0407 -0.1312  0.1920
37864DOD     C357413  18.663  12.752  23.002 -0.3176  0.0303  0.0602
37865DOD     C157414  18.425   4.470  14.903 -0.0485  0.2889  0.0401
37865DOD     C257415  18.534   4.138  14.584  0.1476  0.0483 -0.1379
37865DOD     C357416  18.360   3.768  14.312  0.3285 -0.1454 -0.1284
37866DOD     C157417  24.242  15.943  23.482 -0.0821 -0.0985  0.1102
37866DOD     C257418  24.336  16.435  23.405  0.0030 -0.0427  0.0027
37866DOD     C357419  24.328  16.857  23.144  0.2766  0.3833 -0.2042
37867DOD     C157420  19.608  22.744   0.515  0.1289 -0.2575  0.1947
37867DOD     C257421  19.245  23.007   0.710 -0.0198 -0.1195 -0.0455
37867DOD     C357422  18.882  23.226   0.489 -0.0325 -0.0617 -0.2138
37868DOD     C157423  18.078  27.330  19.460  0.0973  0.0562 -0.0340
37868DOD     C257424  18.021  27.278  19.016 -0.3377  0.0315  0.1016
37868DOD     C357425  18.226  27.367  18.581  0.0574  0.1040  0.0913
37869DOD     C157426  19.646  13.555  13.668  0.0027 -0.2122 -0.1375
37869DOD     C257427  19.972  13.242  13.501  0.0435  0.0058 -0.1029
37869DOD     C357428  20.428  13.072  13.549 -0.0486 -0.0265 -0.0905
37870DOD     C157429  23.040  28.357  18.347  0.1320 -0.0049  0.2653
37870DOD     C257430  22.735  27.956  18.364  0.0733  0.3374 -0.0297
37870DOD     C357431  22.844  27.492  18.215  0.1435  0.0867  0.1139
37871DOD     C157432  13.496   9.250   1.361  0.1780  0.0871  0.1912
37871DOD     C257433  13.959   9.383   1.431  0.4117  0.3812  0.1740
37871DOD     C357434  14.259   9.657   1.526  0.0530 -0.2808 -0.0254
37872DOD     C157435  14.345  18.629   6.840 -0.0862  0.0932  0.1841
37872DOD     C257436  13.933  18.640   6.560 -0.1514  0.0493 -0.1571
37872DOD     C357437  13.637  18.294   6.474  0.2277  0.1134  0.0397
37873DOD     C157438   0.341   6.832  27.444  0.2482 -0.1094  0.0595
37873DOD     C257439  30.258   7.123  27.428  0.2734  0.2452  0.1331
37873DOD     C357440  30.022   7.506  27.334 -0.2095 -0.1255 -0.1862
37874DOD     C157441   2.342   2.686  25.304  0.1920  0.1816 -0.0808
37874DOD     C257442   2.467   2.423  25.673 -0.0047 -0.1666 -0.0632
37874DOD     C357443   2.866   2.410  25.915 -0.2046 -0.2183 -0.0079
37875DOD     C157444  13.127  30.000   5.487  0.0535  0.3576  0.4191
37875DOD     C257445  12.846  30.086   5.871 -0.1063  0.3982 -0.0604
37875DOD     C357446  12.760  29.777   6.259  0.1544  0.3616  0.0161
37876DOD     C157447  28.010  28.770  10.128 -0.1105  0.1085  0.1265
37876DOD     C257448  27.990  28.758   9.591 -0.4206  0.3153  0.1791
37876DOD     C357449  28.037  28.658   9.107 -0.0467  0.0631  0.0435
37877DOD     C157450  16.595  14.653  13.147  0.0265  0.2672  0.0053
37877DOD     C257451  16.665  15.032  13.430  0.0186 -0.0153  0.0373
37877DOD     C357452  16.681  15.480  13.509  0.0325 -0.0172  0.0747
37878DOD     C157453  16.322   4.108  23.684  0.2017 -0.0583 -0.1742
37878DOD     C257454  16.648   4.310  23.909 -0.1736 -0.1349 -0.4431
37878DOD     C357455  16.923   4.468  24.198  0.1528 -0.1368  0.4368
37879DOD     C157456   3.339  17.012  19.549  0.1210 -0.0574  0.0031
37879DOD     C257457   3.188  17.154  19.128 -0.2914  0.0865 -0.1087
37879DOD     C357458   3.108  17.016  18.633  0.2321  0.1214  0.2307
37880DOD     C157459  15.792   8.802  12.294  0.2098  0.2405  0.2912
37880DOD     C257460  15.672   8.331  12.394  0.1612  0.3430  0.4491
37880DOD     C357461  15.389   8.051  12.125 -0.0039 -0.4158  0.1216
37881DOD     C157462  17.302  22.998  15.678  0.1550  0.0469  0.0499
37881DOD     C257463  16.901  23.016  15.395 -0.0950  0.1368  0.0894
37881DOD     C357464  16.567  22.816  15.127  0.2527  0.1232  0.1456
37882DOD     C157465   4.756  14.863   8.211 -0.0897  0.1066  0.0015
37882DOD     C257466   4.807  15.074   8.666  0.0118  0.0315 -0.0311
37882DOD     C357467   4.737  15.286   9.064  0.3761  0.4200  0.1304
37883DOD     C157468   8.618  14.625  17.378 -0.4349 -0.1066  0.3468
37883DOD     C257469   8.542  14.547  17.826 -0.0068  0.1808 -0.0044
37883DOD     C357470   8.697  14.753  18.175 -0.0372 -0.0210  0.0902
37884DOD     C157471  23.890   9.874  24.341 -0.4654  0.0355  0.0496
37884DOD     C257472  23.452  10.047  24.296  0.0722  0.0153 -0.0434
37884DOD     C357473  23.060  10.256  24.333 -0.0780 -0.1726 -0.1834
37885DOD     C157474  23.874   6.163  14.446  0.2192  0.1663 -0.2388
37885DOD     C257475  24.049   6.598  14.318 -0.2126  0.2683  0.2380
37885DOD     C357476  24.220   7.029  14.202  0.2422 -0.0503  0.0499
37886DOD     C157477  17.524   0.454  16.499 -0.2517 -0.0134 -0.1045
37886DOD     C257478  17.551   0.887  16.345 -0.0759 -0.4038  0.1467
37886DOD     C357479  17.513   1.363  16.438 -0.0580  0.2776 -0.1232
37887DOD     C157480  23.030  29.020   2.524  0.0881  0.0356 -0.1627
37887DOD     C257481  22.670  28.744   2.734  0.4327 -0.3612 -0.4625
37887DOD     C357482  22.680  28.444   3.065  0.0245 -0.0363  0.1924
37888DOD     C157483  25.972  22.104   4.979  0.1274  0.0371  0.0204
37888DOD     C257484  25.865  21.699   5.301 -0.0552  0.2175  0.2178
37888DOD     C357485  25.584  21.580   5.663  0.0979  0.1611 -0.1172
37889DOD     C157486  10.411  22.013  29.256  0.0366  0.2322 -0.0458
37889DOD     C257487  10.862  22.140  29.254  0.0346 -0.1688 -0.0329
37889DOD     C357488  11.129  22.510  29.209 -0.1256 -0.0670  0.0483
37890DOD     C157489  18.110  15.760  23.585  0.1546 -0.0838  0.1312
37890DOD     C257490  18.014  16.243  23.699  0.1262 -0.0504  0.2466
37890DOD     C357491  17.897  16.708  23.734  0.2564 -0.0036 -0.3405
37891DOD     C157492  25.132  11.326   0.256 -0.0343  0.1201  0.2725
37891DOD     C257493  25.557  11.424   0.065  0.0209 -0.2498  0.1499
37891DOD     C357494  25.680  11.385  29.940  0.1587 -0.0583 -0.0570
37892DOD     C157495  25.814  12.443   5.056 -0.2332  0.1972 -0.1607
37892DOD     C257496  25.547  12.104   5.016 -0.0708 -0.1362 -0.2469
37892DOD     C357497  25.148  12.006   4.960  0.1488  0.1385 -0.3212
37893DOD     C157498   5.286   1.842  13.007  0.2835  0.0703 -0.0615
37893DOD     C257499   5.093   1.975  13.428  0.0475  0.4186 -0.0437
37893DOD     C357500   5.074   2.030  13.889  0.2701  0.1343 -0.3467
37894DOD     C157501  17.422  13.040  11.188 -0.1188  0.0182 -0.0793
37894DOD     C257502  17.226  12.905  11.635  0.2130 -0.1874 -0.3287
37894DOD     C357503  17.173  12.702  12.070  0.0648  0.1897  0.1254
37895DOD     C157504   3.369   3.951  10.828 -0.1374 -0.2828  0.1312
37895DOD     C257505   3.080   4.242  10.596  0.0129  0.0394 -0.3440
37895DOD     C357506   2.768   4.529  10.362  0.0763  0.2371  0.3107
37896DOD     C157507   1.144  20.445  11.601 -0.3370 -0.1241 -0.3492
37896DOD     C257508   1.200  20.843  11.886 -0.2397 -0.0372  0.2215
37896DOD     C357509   1.089  21.264  11.750 -0.1121  0.2008  0.0532
37897DOD     C157510  14.453  27.684  28.149 -0.3938 -0.0764  0.6522
37897DOD     C257511  14.850  27.837  27.882  0.2604 -0.0222  0.1565
37897DOD     C357512  15.182  27.711  27.625 -0.0619  0.1108  0.2993
37898DOD     C157513   5.254  20.041  30.127 -0.0524 -0.0118  0.0871
37898DOD     C257514   4.829  19.778  30.086  0.0602 -0.1758  0.2872
37898DOD     C357515   4.502  19.490  29.993  0.2421 -0.1622 -0.0576
37899DOD     C157516  14.477   8.637   8.733 -0.1331  0.0855  0.2436
37899DOD     C257517  14.041   8.697   8.511  0.0145 -0.1339 -0.2846
37899DOD     C357518  13.590   8.817   8.328  0.2564  0.0857 -0.0951
37900DOD     C157519  17.949  22.439  11.576 -0.1293  0.0662  0.0847
37900DOD     C257520  18.212  22.491  11.977  0.0756 -0.3114 -0.1651
37900DOD     C357521  18.283  22.599  12.422  0.2824 -0.2279 -0.4236
37901DOD     C157522  21.185  21.147   4.435 -0.0730 -0.0696 -0.3604
37901DOD     C257523  20.962  21.399   4.092 -0.1194  0.4955 -0.0992
37901DOD     C357524  20.783  21.191   3.690  0.1617 -0.0992 -0.0683
37902DOD     C157525   2.616  29.927   7.885 -0.1259 -0.2217  0.3366
37902DOD     C257526   2.223  29.694   7.965 -0.0282 -0.1526 -0.2116
37902DOD     C357527   2.015  29.317   8.156 -0.2316 -0.0878  0.2768
37903DOD     C157528  17.185   1.937  18.559 -0.0101 -0.1788 -0.0866
37903DOD     C257529  16.869   1.669  18.337 -0.0428  0.1780 -0.0207
37903DOD     C357530  16.525   1.378  18.368 -0.4111 -0.0125 -0.1452
37904DOD     C157531  15.489   3.309  13.693 -0.1247 -0.0301  0.1899
37904DOD     C257532  15.326   3.575  13.359 -0.1639  0.4279 -0.1198
37904DOD     C357533  15.255   3.828  12.968  0.1258 -0.1888 -0.1233
37905DOD     C157534  20.869  10.671   8.786  0.1695  0.0472 -0.0574
37905DOD     C257535  20.989  10.338   8.485  0.1255 -0.0088  0.0597
37905DOD     C357536  21.145  10.071   8.147 -0.1164  0.1800 -0.1106
37906DOD     C157537   4.782   0.777   9.577 -0.3107 -0.3442  0.1195
37906DOD     C257538   4.325   0.654   9.514 -0.0446 -0.0113 -0.2064
37906DOD     C357539   3.971   0.309   9.574  0.0141 -0.2124  0.0294
37907DOD     C157540  22.366   6.630  24.269  0.3257 -0.0061  0.0911
37907DOD     C257541  22.611   7.045  24.205 -0.2509 -0.0579  0.0259
37907DOD     C357542  22.969   7.321  24.129  0.0701  0.0981  0.2482
37908DOD     C157543  18.779   3.867  10.953 -0.1438  0.0459 -0.1179
37908DOD     C257544  18.731   3.544  11.352  0.1658 -0.1836  0.2082
37908DOD     C357545  18.845   3.169  11.605  0.1896 -0.1544  0.0419
37909DOD     C157546  10.376  25.186   9.533 -0.3050 -0.0737 -0.0942
37909DOD     C257547  10.770  25.351   9.809  0.0580 -0.1169  0.0054
37909DOD     C357548  11.135  25.618   9.945 -0.0805 -0.1192  0.0676
37910DOD     C157549  19.621   1.406  13.127 -0.2116  0.0182  0.0875
37910DOD     C257550  19.144   1.363  12.926 -0.2659  0.2365 -0.0408
37910DOD     C357551  18.765   1.546  13.059  0.1297  0.0720  0.0375
37911DOD     C157552   7.204  13.879  24.521  0.2836 -0.0234 -0.0683
37911DOD     C257553   7.459  13.605  24.170  0.1396  0.1441 -0.0555
37911DOD     C357554   7.811  13.323  24.014 -0.0211  0.0120 -0.0358
37912DOD     C157555   2.474  15.242  28.820 -0.2043 -0.0022  0.2464
37912DOD     C257556   2.813  15.482  29.019  0.1810  0.2794  0.1694
37912DOD     C357557   3.177  15.760  29.191 -0.0265  0.0496 -0.0279
37913DOD     C157558   5.511  20.333  16.586 -0.0821  0.3693  0.5187
37913DOD     C257559   5.103  20.383  16.452  0.2456 -0.0943  0.2555
37913DOD     C357560   4.799  20.285  16.109 -0.0471 -0.2597 -0.0637
37914DOD     C157561   3.388  12.514   0.046 -0.1580 -0.1003 -0.0744
37914DOD     C257562   3.137  12.915  30.207  0.3689  0.1298  0.0644
37914DOD     C357563   2.686  12.965  30.105  0.3693  0.0558 -0.0409
37915DOD     C157564  20.217  10.724   8.058 -0.3202 -0.1317  0.2662
37915DOD     C257565  20.394  10.404   8.295  0.0099  0.0097  0.0956
37915DOD     C357566  20.595  10.000   8.248 -0.0835 -0.0576 -0.3535
37916DOD     C157567  15.878   3.503  22.720 -0.3277 -0.1121  0.0270
37916DOD     C257568  15.470   3.744  22.655 -0.1684 -0.0044  0.0212
37916DOD     C357569  15.095   3.953  22.610  0.0811 -0.1903 -0.0914
37917DOD     C157570  11.836  17.320  13.362  0.0084  0.0049 -0.0198
37917DOD     C257571  11.758  17.680  13.684 -0.2716 -0.3245  0.3053
37917DOD     C357572  11.507  17.847  14.056  0.0547 -0.1513  0.1026
37918DOD     C157573  19.987  20.183   2.712 -0.1681 -0.1905 -0.0850
37918DOD     C257574  19.700  20.469   2.918 -0.0596  0.0939  0.3495
37918DOD     C357575  19.359  20.843   3.022 -0.4804 -0.0467  0.0031
37919DOD     C157576   0.477  27.676  10.338 -0.1107  0.0819 -0.1740
37919DOD     C257577   0.694  28.044  10.124 -0.0564  0.2120 -0.0397
37919DOD     C357578   0.965  28.437  10.125  0.0605 -0.0554 -0.3317
37920DOD     C157579  27.152  15.603  23.151 -0.0741 -0.1020  0.0160
37920DOD     C257580  26.814  15.448  22.985 -0.1268  0.2150  0.1127
37920DOD     C357581  26.528  15.171  22.728  0.1763  0.1317 -0.3458
37921DOD     C157582   0.658   0.347  24.708 -0.0722  0.1141 -0.0018
37921DOD     C257583   0.239   0.543  24.865 -0.2844  0.0085 -0.1163
37921DOD     C357584  30.190   0.794  24.967  0.0152  0.1761  0.0265
37922DOD     C157585   5.365   8.748   7.451  0.2384 -0.2520 -0.0511
37922DOD     C257586   5.277   8.692   7.921  0.3065 -0.1970 -0.0541
37922DOD     C357587   5.336   8.878   8.353 -0.0436  0.0462  0.0489
37923DOD     C157588  25.163  14.539   7.138  0.1499  0.3120  0.1272
37923DOD     C257589  25.583  14.420   6.949  0.0208  0.1015  0.2212
37923DOD     C357590  26.021  14.378   7.083  0.0787  0.3387 -0.0415
37924DOD     C157591  25.262  15.774  27.626 -0.0261  0.1067 -0.1565
37924DOD     C257592  25.153  15.348  27.446 -0.0130  0.1284 -0.2315
37924DOD     C357593  24.879  15.009  27.254 -0.1629 -0.2847 -0.2547
37925DOD     C157594  26.561  29.258   9.173  0.1486 -0.0345  0.2207
37925DOD     C257595  26.354  29.125   8.785  0.1182 -0.0482  0.0610
37925DOD     C357596  25.949  29.033   8.688 -0.0683  0.0149 -0.1344
37926DOD     C157597  13.244  27.970   3.229 -0.2298  0.1993 -0.2462
37926DOD     C257598  12.933  28.036   3.504  0.2346 -0.0759  0.1233
37926DOD     C357599  12.578  27.991   3.782 -0.2527 -0.1626 -0.1483
37927DOD     C157600   2.676   7.957   5.904  0.0968 -0.2224 -0.1312
37927DOD     C257601   2.520   7.560   5.996 -0.1596  0.3315  0.0488
37927DOD     C357602   2.207   7.226   6.041 -0.1288  0.0507  0.0529
37928DOD     C157603  12.894  18.454   5.587 -0.2966  0.2516 -0.1256
37928DOD     C257604  13.063  18.285   5.955 -0.0556  0.1978 -0.3072
37928DOD     C357605  13.469  18.045   6.009  0.3404 -0.1339  0.0130
37929DOD     C157606  18.950  21.107  18.312 -0.1205 -0.2404  0.2835
37929DOD     C257607  19.274  20.912  17.996 -0.0103  0.1543 -0.0970
37929DOD     C357608  19.453  20.987  17.568  0.3099  0.1513  0.1591
37930DOD     C157609  17.216   1.833  19.113 -0.2834 -0.1084 -0.0319
37930DOD     C257610  17.327   1.438  18.868  0.0801  0.0324 -0.1888
37930DOD     C357611  16.963   1.302  18.698  0.0901  0.3278 -0.2330
37931DOD     C157612  17.432   2.619  17.241 -0.0402 -0.2475 -0.1796
37931DOD     C257613  17.328   2.534  17.715 -0.2360  0.0175  0.3916
37931DOD     C357614  17.184   2.195  18.032 -0.0647 -0.1817 -0.0010
37932DOD     C157615  15.875   7.781   8.563 -0.3394  0.0724  0.1094
37932DOD     C257616  15.931   8.235   8.595 -0.1939 -0.1108 -0.2872
37932DOD     C357617  16.151   8.583   8.804  0.0823  0.1745  0.2810
37933DOD     C157618   9.154  25.317   5.708 -0.0280 -0.0460  0.0449
37933DOD     C257619   9.262  25.459   6.143  0.1119 -0.1326 -0.0125
37933DOD     C357620   9.413  25.359   6.580  0.0214  0.1557  0.0307
37934DOD     C157621   8.956  21.283  24.109  0.0196  0.1123  0.2844
37934DOD     C257622   8.818  21.340  24.529 -0.2129  0.1952 -0.2245
37934DOD     C357623   8.887  21.522  24.969 -0.3205  0.0814  0.0234
37935DOD     C157624  19.919   1.326  19.351  0.1095 -0.1311  0.8083
37935DOD     C257625  20.053   1.712  19.615  0.0153 -0.1725 -0.0713
37935DOD     C357626  19.950   1.997  20.005 -0.0095 -0.1088  0.2178
37936DOD     C157627   9.911  22.858  13.807  0.2909 -0.1008  0.0101
37936DOD     C257628   9.720  23.303  13.753  0.1781 -0.0891  0.4523
37936DOD     C357629   9.757  23.755  13.829 -0.0506  0.0686  0.6549
37937DOD     C157630  20.464  25.457  20.551  0.1876  0.0912  0.2973
37937DOD     C257631  20.693  25.028  20.422 -0.0602  0.0090  0.0554
37937DOD     C357632  20.991  24.668  20.501  0.1508 -0.0450 -0.4465
37938DOD     C157633  26.474   5.720  22.681 -0.0580 -0.1193  0.2318
37938DOD     C257634  26.859   5.530  22.764 -0.0883 -0.1995  0.2804
37938DOD     C357635  27.258   5.729  22.810  0.0416  0.0265  0.1506
37939DOD     C157636   5.810   0.730  29.019 -0.0636  0.0978  0.4866
37939DOD     C257637   5.356   0.532  28.939  0.1374 -0.1518  0.2993
37939DOD     C357638   5.184   0.166  28.739  0.0203 -0.2502  0.0030
37940DOD     C157639  24.969   6.007   7.861  0.0248 -0.2431 -0.0890
37940DOD     C257640  24.966   5.576   7.808  0.1597  0.1097 -0.2206
37940DOD     C357641  25.109   5.372   7.422  0.1262 -0.2957  0.1514
37941DOD     C157642  20.298  16.320   9.569  0.0657  0.0384  0.1707
37941DOD     C257643  19.869  16.185   9.660 -0.2714  0.0945  0.0155
37941DOD     C357644  19.589  16.236  10.051  0.1054  0.0152 -0.0581
37942DOD     C157645  13.711  22.422  10.090 -0.0268 -0.0322 -0.1055
37942DOD     C257646  13.583  22.002  10.202 -0.0674  0.0674 -0.0086
37942DOD     C357647  13.444  21.828  10.607 -0.1026 -0.1345  0.4349
37943DOD     C157648  29.302   4.120   5.840 -0.0312  0.0473 -0.0759
37943DOD     C257649  29.301   4.594   5.960 -0.2326  0.5433  0.1445
37943DOD     C357650  29.745   4.866   5.940  0.1790  0.3454 -0.0668
37944DOD     C157651  12.504  21.098  10.297  0.1733  0.2450 -0.2319
37944DOD     C257652  12.343  21.434  10.009 -0.0374  0.2398 -0.1642
37944DOD     C357653  12.057  21.742   9.829 -0.1837  0.0867  0.3333
37945DOD     C157654  16.056  28.090  13.619 -0.3316  0.1247 -0.1665
37945DOD     C257655  16.031  28.478  13.403 -0.2589 -0.4665 -0.0096
37945DOD     C357656  16.096  28.712  12.985 -0.0699 -0.0212 -0.1332
37946DOD     C157657   3.630   8.184  26.087 -0.0029 -0.0457  0.0219
37946DOD     C257658   3.358   7.767  26.119 -0.2014  0.1590  0.1710
37946DOD     C357659   2.876   7.671  26.157  0.0630 -0.0567 -0.1684
37947DOD     C157660  15.748  30.298  25.558 -0.2123 -0.0636  0.0808
37947DOD     C257661  15.994   0.113  25.156 -0.1101 -0.3687  0.0837
37947DOD     C357662  16.137   0.309  24.765 -0.2091 -0.0666  0.0821
37948DOD     C157663   1.098   5.397  18.851 -0.0663  0.0201  0.2002
37948DOD     C257664   1.501   5.282  18.992 -0.1399  0.0365 -0.1110
37948DOD     C357665   1.963   5.200  18.906  0.2092 -0.2869  0.0148
37949DOD     C157666   7.585   0.714   0.411 -0.2233  0.0704  0.0211
37949DOD     C257667   7.511   0.975   0.804  0.0812 -0.1420  0.1785
37949DOD     C357668   7.589   1.274   1.210  0.0226  0.0357 -0.0297
37950DOD     C157669  18.588  18.862  14.219 -0.2520 -0.1145 -0.0704
37950DOD     C257670  18.904  19.140  13.986 -0.0270 -0.0171 -0.1036
37950DOD     C357671  19.146  19.566  13.938  0.2124  0.2136  0.3141
37951DOD     C157672   0.088   7.153   5.404 -0.0243 -0.1544  0.3569
37951DOD     C257673  30.023   6.925   5.595  0.3037 -0.0129  0.1396
37951DOD     C357674  29.786   6.940   6.011  0.0590 -0.0941 -0.2698
37952DOD     C157675  27.675  26.769   3.761 -0.1374 -0.2556  0.0854
37952DOD     C257676  27.781  26.600   4.159  0.2144 -0.0116  0.2800
37952DOD     C357677  27.972  26.540   4.568  0.1060  0.2643 -0.2775
37953DOD     C157678   4.830  16.887  24.351 -0.2029  0.1784  0.0531
37953DOD     C257679   4.856  16.396  24.313  0.1958 -0.1387 -0.2374
37953DOD     C357680   4.707  16.076  24.649  0.0856 -0.1592  0.3623
37954DOD     C157681  26.197  18.678  21.212  0.0649 -0.3374 -0.1661
37954DOD     C257682  26.585  18.725  20.908 -0.3223 -0.2318  0.1757
37954DOD     C357683  26.597  18.900  20.462 -0.0220  0.1047  0.2329
37955DOD     C157684   6.323  23.573  17.759 -0.1254  0.0143 -0.0438
37955DOD     C257685   5.876  23.674  17.814 -0.0413 -0.1864 -0.2270
37955DOD     C357686   5.718  24.101  17.962 -0.0330  0.0385  0.1607
37956DOD     C157687  23.061   2.716   4.003 -0.0891  0.1120  0.1614
37956DOD     C257688  22.778   3.110   3.928  0.0644  0.1583  0.1193
37956DOD     C357689  22.703   3.571   3.964  0.0504  0.0710 -0.3056
37957DOD     C157690  17.993   7.893   3.856 -0.1355  0.0929  0.0086
37957DOD     C257691  18.448   7.733   3.755  0.0480 -0.2845 -0.0204
37957DOD     C357692  18.755   7.615   4.051 -0.1568  0.4589 -0.3440
37958DOD     C157693  19.619  28.971  22.030  0.2237 -0.3299 -0.0307
37958DOD     C257694  19.178  29.006  21.915  0.1719 -0.0093 -0.0378
37958DOD     C357695  19.041  29.249  21.547  0.2866 -0.2268  0.0310
37959DOD     C157696  16.756  24.159  21.198 -0.0877  0.3100 -0.2065
37959DOD     C257697  17.182  24.101  21.202 -0.0155 -0.0124 -0.2635
37959DOD     C357698  17.558  24.343  21.110  0.0179 -0.1060 -0.2577
37960DOD     C157699   1.916  15.293  25.486  0.0275 -0.0947 -0.1652
37960DOD     C257700   2.144  15.001  25.645  0.0560 -0.0369 -0.2348
37960DOD     C357701   2.352  14.897  26.055 -0.0876 -0.0289  0.3548
37961DOD     C157702   3.085  26.860  19.584  0.2135 -0.0449  0.2636
37961DOD     C257703   2.864  26.652  19.283 -0.0454  0.0724  0.0512
37961DOD     C357704   2.974  26.167  19.183 -0.0684 -0.0649 -0.1138
37962DOD     C157705  24.884  20.081  26.767 -0.0774  0.0039 -0.2317
37962DOD     C257706  24.953  19.710  27.076 -0.0581  0.3950 -0.2711
37962DOD     C357707  25.248  19.322  27.008  0.0288  0.0635  0.1704
37963DOD     C157708   5.271   5.688   3.263 -0.2828 -0.3166 -0.0269
37963DOD     C257709   5.516   6.098   3.164  0.1082  0.0776  0.0959
37963DOD     C357710   5.793   6.374   3.023 -0.1478  0.0539  0.0585
37964DOD     C157711  15.427   9.868   2.484  0.3181  0.1422  0.2046
37964DOD     C257712  15.236  10.176   2.191  0.0254 -0.2757  0.1068
37964DOD     C357713  14.811  10.214   2.012  0.0423 -0.1203 -0.0272
37965DOD     C157714  20.923  16.831   6.198 -0.0684  0.3872  0.0119
37965DOD     C257715  20.991  16.372   6.118 -0.2260  0.1246 -0.2935
37965DOD     C357716  21.056  15.992   5.921  0.2004  0.0690 -0.1696
37966DOD     C157717   9.907  28.321  19.046  0.2139 -0.1897 -0.0811
37966DOD     C257718   9.824  27.986  19.342 -0.1252  0.0979 -0.3743
37966DOD     C357719   9.694  27.510  19.334  0.1649 -0.0530 -0.0604
37967DOD     C157720   3.447   7.662   2.628 -0.1051  0.0629  0.0454
37967DOD     C257721   3.306   7.816   2.220 -0.0216 -0.0938  0.0564
37967DOD     C357722   3.460   7.924   1.750 -0.1082 -0.1106 -0.0909
37968DOD     C157723  25.309   0.127  28.738 -0.1071 -0.1320  0.1167
37968DOD     C257724  25.298   0.470  29.082 -0.0055 -0.0297 -0.1297
37968DOD     C357725  25.208   0.980  29.083 -0.2288  0.1931 -0.0266
37969DOD     C157726  16.337  28.526   2.856 -0.1806  0.2880 -0.0023
37969DOD     C257727  16.302  28.178   3.146  0.0178  0.3923 -0.1377
37969DOD     C357728  15.933  27.901   3.098  0.0497  0.0223 -0.1725
37970DOD     C157729  21.336   6.826   7.476 -0.0152  0.0144 -0.0035
37970DOD     C257730  21.336   6.379   7.369 -0.0512  0.1887 -0.2607
37970DOD     C357731  21.022   6.066   7.579  0.4088  0.0364 -0.0359
37971DOD     C157732  25.591   0.521   0.993 -0.0536 -0.1070 -0.0998
37971DOD     C257733  25.743   0.860   1.290 -0.4800  0.0907 -0.1768
37971DOD     C357734  25.936   1.267   1.420 -0.1681 -0.0767 -0.1843
37972DOD     C157735  28.665  11.724  30.315  0.0211  0.3023  0.0970
37972DOD     C257736  28.482  11.327  30.145 -0.1781 -0.0476  0.1981
37972DOD     C357737  28.455  10.881  30.236  0.1621 -0.0495 -0.0861
37973DOD     C157738  26.548  19.591  26.674 -0.0419  0.1254  0.1580
37973DOD     C257739  26.201  19.633  26.981  0.0848 -0.0305  0.1633
37973DOD     C357740  26.097  19.670  27.411  0.0671  0.0301 -0.0910
37974DOD     C157741  18.006  29.617  15.273 -0.0011 -0.3650 -0.2923
37974DOD     C257742  18.228  29.986  15.405  0.0358 -0.0446  0.0386
37974DOD     C357743  18.485  29.956  15.791  0.1506 -0.2452  0.0677
37975DOD     C157744   3.452   8.826  16.076 -0.4583 -0.0418  0.1545
37975DOD     C257745   3.493   8.685  16.544  0.1074 -0.0194  0.0938
37975DOD     C357746   3.474   8.285  16.788 -0.0434 -0.0918  0.0052
37976DOD     C157747  13.301   6.393  21.130  0.1490  0.1378 -0.1794
37976DOD     C257748  13.475   5.924  20.992 -0.0070  0.3448 -0.1601
37976DOD     C357749  13.720   5.584  20.870 -0.3532  0.0454  0.0387
37977DOD     C157750  29.047  26.195   2.150 -0.0131 -0.0191  0.1493
37977DOD     C257751  29.472  26.173   1.966  0.0128 -0.2289 -0.1246
37977DOD     C357752  29.714  25.822   1.805  0.1581 -0.0510  0.1042
37978DOD     C157753  25.803   1.384  11.535  0.1947 -0.2917 -0.4675
37978DOD     C257754  25.656   1.340  11.984  0.0432  0.4238  0.3037
37978DOD     C357755  25.442   1.370  12.408 -0.0276  0.1409  0.1691
37979DOD     C157756   1.199   2.196   6.982  0.0901 -0.0914 -0.2950
37979DOD     C257757   1.070   1.797   7.170  0.1930 -0.3254 -0.3983
37979DOD     C357758   0.699   1.510   7.339 -0.1795 -0.4308  0.2285
37980DOD     C157759  18.664   9.356  18.831 -0.1564 -0.1454 -0.3301
37980DOD     C257760  18.653   9.797  18.821  0.0378  0.5269 -0.1757
37980DOD     C357761  18.637  10.253  18.915  0.0104 -0.2018  0.0223
37981DOD     C157762  29.762   4.783  28.515  0.0947 -0.0179  0.3130
37981DOD     C257763  29.563   5.171  28.348 -0.1271 -0.1135 -0.1661
37981DOD     C357764  29.631   5.542  28.079 -0.0393  0.1180 -0.0589
37982DOD     C157765  17.085   1.762  23.135  0.0061 -0.2519 -0.3275
37982DOD     C257766  16.869   1.322  23.179  0.1210  0.0947  0.4656
37982DOD     C357767  16.778   0.853  23.101 -0.1065  0.1140  0.1657
37983DOD     C157768  20.235  26.673  22.680 -0.0946 -0.2189  0.0174
37983DOD     C257769  19.894  26.997  22.716  0.3242  0.1732  0.3886
37983DOD     C357770  19.497  27.053  22.883  0.3151  0.2293  0.0063
37984DOD     C157771  16.931  12.546  20.099  0.2191 -0.0856  0.0528
37984DOD     C257772  17.269  12.725  19.831 -0.2181 -0.0625  0.0494
37984DOD     C357773  17.661  12.617  19.574  0.0618  0.2131 -0.2516
37985DOD     C157774  12.317   2.090   8.432 -0.0260 -0.2202 -0.0477
37985DOD     C257775  12.722   2.358   8.368 -0.1010 -0.1765 -0.0446
37985DOD     C357776  13.004   2.718   8.233 -0.0300  0.2972 -0.1934
37986DOD     C157777  19.064  24.566   6.474 -0.1476 -0.2396  0.0769
37986DOD     C257778  18.751  24.692   6.813  0.1756 -0.0380  0.1981
37986DOD     C357779  18.442  24.989   7.031  0.1790 -0.3178 -0.0437
37987DOD     C157780  24.583  28.243  25.854 -0.1596  0.1350  0.0281
37987DOD     C257781  24.532  28.702  26.007  0.0506 -0.0031  0.1310
37987DOD     C357782  24.189  29.028  26.187 -0.0529  0.0597  0.4356
37988DOD     C157783   7.425  25.290  21.472 -0.0721 -0.3408 -0.2569
37988DOD     C257784   7.662  25.482  21.853 -0.1766  0.0774  0.0945
37988DOD     C357785   7.783  25.608  22.293  0.1176 -0.0763 -0.1978
37989DOD     C157786  13.995  24.672   2.512 -0.0115  0.2439  0.1387
37989DOD     C257787  13.684  24.505   2.151  0.2474 -0.0521 -0.0835
37989DOD     C357788  13.183  24.532   2.074 -0.1094 -0.1606 -0.2194
37990DOD     C157789   1.089   4.647  17.995 -0.0798  0.0129  0.0778
37990DOD     C257790   0.733   4.669  18.329 -0.0811 -0.1016 -0.0149
37990DOD     C357791   0.473   4.376  18.581 -0.1515  0.0428  0.3056
37991DOD     C157792  23.422  23.168   1.950 -0.1472  0.1806 -0.0694
37991DOD     C257793  22.965  22.932   1.918  0.4299  0.0598 -0.1912
37991DOD     C357794  22.610  22.698   2.036 -0.2591  0.3153  0.1250
37992DOD     C157795   1.730  18.574  16.266  0.1623  0.0880 -0.2286
37992DOD     C257796   2.174  18.573  16.422  0.0120  0.0562 -0.2087
37992DOD     C357797   2.545  18.227  16.450  0.3363  0.0343 -0.0532
37993DOD     C157798  28.547   2.995  12.471 -0.1270 -0.0878  0.4530
37993DOD     C257799  28.274   2.665  12.215 -0.1404 -0.0240  0.2466
37993DOD     C357800  28.003   2.374  11.942 -0.3214 -0.0695 -0.0335
37994DOD     C157801   3.931   8.660  13.227 -0.1534 -0.0461  0.2549
37994DOD     C257802   3.780   8.487  13.659 -0.0535 -0.2827 -0.0775
37994DOD     C357803   3.982   8.640  14.075  0.3657 -0.0114 -0.2008
37995DOD     C157804  23.519  10.315  28.907  0.0743 -0.1162 -0.1676
37995DOD     C257805  23.946  10.208  29.068  0.0068  0.1152  0.3955
37995DOD     C357806  24.302  10.446  29.002 -0.1508 -0.1538 -0.3263
37996DOD     C157807   3.929  16.231   5.972 -0.1723 -0.1814  0.1191
37996DOD     C257808   4.248  16.416   6.225 -0.2014 -0.0484  0.0754
37996DOD     C357809   4.450  16.700   6.510  0.0402 -0.2447 -0.0519
37997DOD     C157810  17.760   9.170  10.328 -0.2729 -0.0317 -0.0400
37997DOD     C257811  17.668   8.759  10.408 -0.1793 -0.0638  0.0977
37997DOD     C357812  17.420   8.387  10.606 -0.1130 -0.1941  0.1009
37998DOD     C157813  18.394  24.433   3.345  0.0706  0.0762  0.2287
37998DOD     C257814  18.155  24.296   3.704 -0.0080 -0.1484 -0.0599
37998DOD     C357815  18.246  23.938   4.031 -0.0168 -0.3080  0.1647
37999DOD     C157816  13.920  17.393  23.463  0.1562 -0.0518 -0.0434
37999DOD     C257817  13.665  17.049  23.559 -0.0726 -0.1370 -0.0020
37999DOD     C357818  13.779  16.606  23.662  0.3616 -0.0025 -0.1030
38000DOD     C157819   9.043  22.213   4.241  0.2282 -0.0180 -0.1204
38000DOD     C257820   8.834  22.621   4.093  0.2463  0.2531  0.1039
38000DOD     C357821   8.722  22.959   3.781 -0.3460  0.0807  0.2127
38001DOD     C157822  28.556  10.051  16.636  0.1425 -0.0484  0.0688
38001DOD     C257823  28.557  10.449  16.817 -0.0662 -0.0317 -0.3733
38001DOD     C357824  28.488  10.820  17.097 -0.0176 -0.0790 -0.4602
38002DOD     C157825   5.695  23.049  16.645  0.0677 -0.0002  0.2139
38002DOD     C257826   6.072  22.762  16.716 -0.0866  0.0036  0.2764
38002DOD     C357827   6.280  22.370  16.791  0.2124  0.0811  0.0319
38003DOD     C157828  16.475  13.397  12.643  0.1493 -0.1391 -0.0080
38003DOD     C257829  16.346  13.254  13.078  0.1471 -0.0656  0.0256
38003DOD     C357830  16.382  12.814  13.224  0.0761  0.1048  0.0444
38004DOD     C157831  26.549  13.320  21.078  0.0404  0.0748 -0.1421
38004DOD     C257832  26.492  13.019  21.467  0.0167 -0.2171 -0.1226
38004DOD     C357833  26.165  12.823  21.723 -0.0673  0.1982  0.3140
38005DOD     C157834   7.220   5.285  11.333  0.0477  0.1630  0.1150
38005DOD     C257835   7.091   4.951  10.988 -0.1483  0.0702 -0.0573
38005DOD     C357836   7.111   4.585  10.709 -0.1195 -0.1392  0.0348
38006DOD     C157837  12.120  25.256  26.594 -0.2670  0.0802  0.2274
38006DOD     C257838  12.189  25.230  27.014 -0.0048 -0.0404  0.1740
38006DOD     C357839  12.321  25.393  27.440 -0.2683 -0.1009  0.0318
38007DOD     C157840  22.217  15.117  21.413 -0.0094  0.0550 -0.0961
38007DOD     C257841  21.930  15.401  21.674 -0.0663 -0.3396 -0.0714
38007DOD     C357842  21.665  15.678  21.970 -0.0033 -0.0954  0.1192
38008DOD     C157843  25.168   3.844  14.620 -0.1743 -0.0461  0.4275
38008DOD     C257844  25.210   4.279  14.378  0.1928  0.2898  0.1242
38008DOD     C357845  25.239   4.711  14.152 -0.1397  0.2966  0.0685
38009DOD     C157846  16.019  11.240  20.208  0.0107 -0.1877 -0.2245
38009DOD     C257847  15.552  11.122  20.102  0.0350 -0.1654  0.3334
38009DOD     C357848  15.300  11.234  19.743 -0.0336 -0.3551 -0.0557
38010DOD     C157849   7.965  16.964  19.297  0.5308 -0.0745  0.3053
38010DOD     C257850   7.604  16.856  19.643 -0.0008 -0.1356 -0.1963
38010DOD     C357851   7.186  17.050  19.632  0.0033  0.1335 -0.0053
38011DOD     C157852  29.193  26.724  14.299 -0.1103 -0.0476 -0.2479
38011DOD     C257853  29.116  26.833  13.853 -0.0760 -0.0281 -0.1316
38011DOD     C357854  29.392  27.195  13.796 -0.1053  0.4449  0.3361
38012DOD     C157855  20.806  24.205   4.209  0.1510  0.0872 -0.0548
38012DOD     C257856  20.397  24.290   4.475 -0.1488  0.3656  0.0830
38012DOD     C357857  20.348  24.339   4.951  0.0916  0.3827 -0.0869
38013DOD     C157858  14.177  19.076   0.465  0.0421  0.1347  0.2052
38013DOD     C257859  14.458  18.810   0.249  0.1230 -0.0419 -0.4034
38013DOD     C357860  14.605  18.770  30.106 -0.0890  0.0610 -0.1108
38014DOD     C157861  16.427  26.267  28.000 -0.0723 -0.0807  0.2840
38014DOD     C257862  16.219  26.435  27.564  0.0686  0.1488 -0.1492
38014DOD     C357863  16.177  26.761  27.254  0.2243  0.0772  0.0763
38015DOD     C157864   8.219   9.549  20.790  0.3149  0.0469  0.0086
38015DOD     C257865   8.333   9.275  20.427  0.1076  0.0570  0.2632
38015DOD     C357866   8.410   8.976  20.115 -0.1304  0.0484 -0.2110
38016DOD     C157867  12.003  28.286   0.420  0.1029  0.1930 -0.0507
38016DOD     C257868  11.648  28.013   0.277 -0.0428 -0.2294  0.1369
38016DOD     C357869  11.168  27.988   0.454  0.0780  0.1046 -0.0360
38017DOD     C157870  23.277  11.250  29.938 -0.0081 -0.1252 -0.2120
38017DOD     C257871  23.629  11.014  30.138 -0.0124  0.0177 -0.1642
38017DOD     C357872  23.597  10.842   0.235 -0.0675 -0.0560 -0.3107
38018DOD     C157873  22.491  19.492  13.728  0.1835 -0.0224  0.0500
38018DOD     C257874  22.601  19.683  13.334 -0.5417 -0.0949  0.1470
38018DOD     C357875  22.782  19.959  13.038  0.1713 -0.0434  0.2939
38019DOD     C157876  29.710  11.814  26.670  0.0215  0.1821 -0.2322
38019DOD     C257877  29.428  11.822  27.011 -0.0432 -0.2463 -0.7373
38019DOD     C357878  29.327  12.036  27.418  0.2270  0.1937  0.1043
38020DOD     C157879  12.312  12.235  17.659  0.6079  0.0870 -0.0095
38020DOD     C257880  12.622  12.053  17.965  0.6290  0.0960 -0.1325
38020DOD     C357881  13.056  11.963  18.070 -0.0403  0.0976 -0.0257
38021DOD     C157882   4.313  23.830   4.923 -0.0805  0.4089 -0.1881
38021DOD     C257883   4.175  24.281   4.837 -0.0221 -0.1996  0.0245
38021DOD     C357884   4.118  24.650   4.508  0.3257 -0.0605 -0.0887
38022DOD     C157885  25.436  25.409   7.233 -0.1724  0.0811  0.3489
38022DOD     C257886  25.296  25.678   6.832 -0.1872 -0.1155  0.0257
38022DOD     C357887  25.230  26.004   6.477  0.0767 -0.0883 -0.0639
38023DOD     C157888   4.142   7.393  13.959  0.2165 -0.0387  0.0052
38023DOD     C257889   3.742   7.445  13.700 -0.0379 -0.1783 -0.0258
38023DOD     C357890   3.504   7.252  13.242 -0.2513  0.1301 -0.0822
38024DOD     C157891  12.428  29.873  30.155 -0.0343  0.1067 -0.1072
38024DOD     C257892  12.629  30.235  30.026 -0.1604  0.1816 -0.1873
38024DOD     C357893  12.581   0.393  30.039 -0.1557 -0.0773 -0.2401
38025DOD     C157894   8.036  21.621   9.547  0.3967 -0.2196  0.2386
38025DOD     C257895   8.142  22.072   9.551  0.0593  0.1872 -0.1760
38025DOD     C357896   8.084  22.322   9.951  0.4597 -0.0507 -0.1770
38026DOD     C157897  28.622   4.703  27.586 -0.0623 -0.2587 -0.3667
38026DOD     C257898  28.890   5.048  27.532  0.0735  0.0078  0.0332
38026DOD     C357899  29.265   5.265  27.692  0.2554 -0.0187  0.0427
38027DOD     C157900   0.139  30.263   8.758 -0.3222  0.1450  0.0099
38027DOD     C257901   0.431  29.980   8.984 -0.0269  0.0013  0.0696
38027DOD     C357902   0.874  29.754   9.147  0.2749 -0.0089  0.2558
38028DOD     C157903   4.225   1.464  27.431 -0.0326 -0.0182  0.1855
38028DOD     C257904   4.138   1.920  27.470 -0.0848 -0.0408 -0.1641
38028DOD     C357905   4.225   2.386  27.397  0.2641 -0.2651 -0.1747
38029DOD     C157906  13.042   6.382  24.573 -0.1129  0.1245  0.0441
38029DOD     C257907  13.400   6.171  24.359  0.1270  0.0386 -0.1089
38029DOD     C357908  13.563   6.319  23.967 -0.2740 -0.1333  0.2428
38030DOD     C157909  10.736  10.084  16.577  0.0537  0.3370  0.1742
38030DOD     C257910  10.458  10.375  16.358 -0.1601 -0.2761 -0.1036
38030DOD     C357911  10.225  10.819  16.343 -0.2200  0.3897  0.0525
38031DOD     C157912   5.594  15.341  15.810  0.3903 -0.0371 -0.2342
38031DOD     C257913   5.693  15.741  16.031  0.1138 -0.2004 -0.0884
38031DOD     C357914   5.895  16.060  16.291 -0.0269 -0.2575  0.1108
38032DOD     C157915  18.782   4.789  25.295 -0.0090  0.0986 -0.1065
38032DOD     C257916  18.982   4.573  24.980 -0.1387  0.0495 -0.2857
38032DOD     C357917  19.141   4.433  24.513 -0.5971 -0.0691  0.0927
38033DOD     C157918  28.653  12.768  16.136 -0.3603  0.1319 -0.0492
38033DOD     C257919  28.969  13.098  16.159 -0.1976  0.0326 -0.1041
38033DOD     C357920  29.224  13.406  16.438  0.0694  0.1898 -0.0856
38034DOD     C157921  16.984   5.224  12.547 -0.2364  0.1416 -0.1461
38034DOD     C257922  17.018   5.449  12.935 -0.2686  0.1362 -0.1085
38034DOD     C357923  17.211   5.624  13.322  0.1453  0.4132 -0.3195
38035DOD     C157924  17.118  21.137   4.034  0.6202 -0.1792 -0.0036
38035DOD     C257925  17.145  21.144   4.494 -0.0407 -0.0346 -0.0480
38035DOD     C357926  17.314  20.981   4.900 -0.3768  0.0380 -0.1108
38036DOD     C157927  29.659   1.363  -0.045 -0.0364 -0.3915 -0.1920
38036DOD     C257928  29.305   1.227   0.207  0.1583  0.1955  0.2563
38036DOD     C357929  28.937   1.240   0.497 -0.0150  0.0960  0.0744
38037DOD     C157930  14.890  25.469  16.281 -0.4237  0.0046  0.0634
38037DOD     C257931  14.604  25.747  16.400  0.0783 -0.0429 -0.1350
38037DOD     C357932  14.373  25.716  16.778 -0.0359 -0.1054  0.2096
38038DOD     C157933   0.414  22.088   2.388 -0.0639  0.1775 -0.1161
38038DOD     C257934   0.803  21.816   2.580  0.0054  0.2143  0.0018
38038DOD     C357935   1.270  21.763   2.624  0.0817  0.1342 -0.0378
38039DOD     C157936  11.629   0.525  13.006  0.2645 -0.1035  0.3075
38039DOD     C257937  11.464   0.372  12.603  0.2649 -0.0311  0.0032
38039DOD     C357938  11.388   0.143  12.202 -0.0243  0.0711  0.2517
38040DOD     C157939   5.908   7.526   6.924  0.2339  0.1226  0.1803
38040DOD     C257940   6.249   7.220   7.053 -0.2012 -0.0972 -0.0657
38040DOD     C357941   6.629   7.127   7.363  0.1396 -0.0356 -0.0453
38041DOD     C157942  24.399  24.565   4.744 -0.1142  0.0182  0.0790
38041DOD     C257943  24.751  24.230   4.811 -0.4077  0.1614 -0.0679
38041DOD     C357944  24.841  23.804   4.864 -0.3591 -0.0909  0.0798
38042DOD     C157945  18.328  18.596  27.048 -0.0829  0.1976  0.1853
38042DOD     C257946  18.520  19.024  26.981 -0.1379 -0.2321 -0.2962
38042DOD     C357947  18.354  19.480  27.069 -0.1590 -0.1374 -0.1908
38043DOD     C157948   9.624  27.051   6.267 -0.0303  0.0465  0.1948
38043DOD     C257949   9.697  27.555   6.206 -0.0055  0.0968  0.0807
38043DOD     C357950   9.562  27.974   6.390 -0.0448 -0.1578 -0.0096
38044DOD     C157951  16.455  14.623   4.608 -0.2334 -0.1135 -0.2511
38044DOD     C257952  16.259  14.899   4.298 -0.1704  0.0507 -0.0996
38044DOD     C357953  16.025  14.906   3.874 -0.2256 -0.0649 -0.0199
38045DOD     C157954   1.006  22.590  26.841 -0.3795 -0.0629  0.0819
38045DOD     C257955   1.364  22.432  26.612 -0.1618  0.0760  0.0725
38045DOD     C357956   1.495  22.281  26.217  0.1086 -0.0874 -0.0938
38046DOD     C157957  11.940   9.727  19.891 -0.0721  0.4020  0.2455
38046DOD     C257958  12.310   9.503  20.122  0.3779 -0.3068  0.3628
38046DOD     C357959  12.551   9.485  20.524 -0.0944 -0.3270 -0.0613
38047DOD     C157960   1.779  12.087  25.472  0.3303  0.1834  0.1206
38047DOD     C257961   2.126  12.119  25.119 -0.0872 -0.0610  0.0981
38047DOD     C357962   2.524  12.092  24.909 -0.0797 -0.1989  0.2649
38048DOD     C157963  21.176   4.240  17.480  0.2165 -0.0942  0.2705
38048DOD     C257964  21.248   3.768  17.461 -0.3346 -0.0016 -0.1326
38048DOD     C357965  21.353   3.330  17.468  0.1902 -0.3062  0.0791
38049DOD     C157966   2.854   7.706   2.726 -0.1485  0.0113  0.1467
38049DOD     C257967   3.216   7.865   2.986 -0.2869  0.1635  0.0966
38049DOD     C357968   3.601   7.586   3.120  0.0646 -0.1025 -0.0838
38050DOD     C157969   3.374  12.282  29.965  0.0333 -0.2660 -0.0601
38050DOD     C257970   3.653  12.641  29.900 -0.0756 -0.0537 -0.0863
38050DOD     C357971   3.712  12.827  29.465  0.0128  0.0714 -0.1010
38051DOD     C157972  12.603  29.292  30.005 -0.1093 -0.2548  0.1072
38051DOD     C257973  12.903  29.339  -0.009 -0.1047 -0.0990 -0.0960
38051DOD     C357974  13.310  29.195  30.256  0.0108  0.0333 -0.1315
38052DOD     C157975  10.361   5.801  19.461  0.1001 -0.1068 -0.0820
38052DOD     C257976  10.304   5.384  19.192  0.2548 -0.3385  0.3719
38052DOD     C357977  10.029   5.262  18.750  0.0733 -0.2125 -0.0805
38053DOD     C157978   7.801   0.302   7.728  0.3026 -0.3262  0.2601
38053DOD     C257979   7.974  30.272   7.454 -0.1006  0.1497  0.0984
38053DOD     C357980   8.244  30.121   7.057 -0.3691 -0.1714 -0.1275
38054DOD     C157981  10.614  11.622   3.812 -0.1461 -0.0470  0.1931
38054DOD     C257982  10.641  11.582   3.378 -0.1674 -0.0516  0.0046
38054DOD     C357983  10.825  11.937   3.141  0.1128 -0.0897  0.1012
38055DOD     C157984  25.282   4.854   7.297  0.2665 -0.0241 -0.2596
38055DOD     C257985  24.886   4.907   7.492  0.0697  0.1050  0.0248
38055DOD     C357986  24.429   4.916   7.567  0.1187  0.0451 -0.1637
38056DOD     C157987   2.074   0.441   0.426 -0.0992  0.3498  0.0085
38056DOD     C257988   2.107   0.861   0.486  0.0869 -0.0042 -0.1665
38056DOD     C357989   2.111   1.236   0.681  0.2061 -0.0222 -0.1743
38057DOD     C157990   1.006   8.576  27.869  0.1555  0.0750 -0.3264
38057DOD     C257991   1.013   8.956  28.213  0.0442  0.1259 -0.0357
38057DOD     C357992   1.139   9.332  28.426  0.2564  0.0574 -0.1404
38058DOD     C157993   7.874  22.055  29.727  0.2066  0.0737  0.3203
38058DOD     C257994   7.446  22.229  29.858  0.1595  0.0505 -0.1909
38058DOD     C357995   7.014  22.186  30.077  0.1672  0.1336 -0.1276
38059DOD     C157996  20.615  19.422  29.985  0.0982  0.3667 -0.1447
38059DOD     C257997  20.381  19.574  29.580  0.1361  0.4620 -0.2054
38059DOD     C357998  20.357  19.634  29.115  0.2279 -0.1460 -0.0460
38060DOD     C157999  19.640  24.594   7.749 -0.1864 -0.2841 -0.1580
38060DOD     C258000  19.493  24.889   7.428 -0.0803 -0.0328  0.0703
38060DOD     C358001  19.605  25.249   7.115  0.0013  0.1095  0.0246
38061DOD     C158002  15.398  18.623  26.135 -0.2620 -0.1028  0.0362
38061DOD     C258003  15.164  18.482  25.767  0.0152 -0.0953 -0.2362
38061DOD     C358004  14.954  18.336  25.323  0.1795  0.0288  0.1416
38062DOD     C158005  27.524  26.357  17.546 -0.1220 -0.0686 -0.0328
38062DOD     C258006  27.620  26.227  17.076  0.0488 -0.1604 -0.3469
38062DOD     C358007  27.374  25.891  16.840  0.0165 -0.2177 -0.3242
38063DOD     C158008   6.210  28.694  11.292 -0.2487 -0.0110 -0.0609
38063DOD     C258009   6.401  28.402  11.590  0.0279 -0.0155  0.2110
38063DOD     C358010   6.249  28.023  11.882 -0.1594  0.0323  0.1208
38064DOD     C158011   7.357   5.324  23.661  0.1027  0.1366 -0.1452
38064DOD     C258012   7.428   5.447  24.111 -0.2552 -0.1064  0.3899
38064DOD     C358013   7.681   5.643  24.438  0.0093 -0.0212  0.0413
38065DOD     C158014  24.220   3.870  18.302  0.2606 -0.0950  0.3839
38065DOD     C258015  24.253   4.207  18.649 -0.0226  0.1532 -0.0693
38065DOD     C358016  23.952   4.545  18.752  0.3191  0.1735 -0.1234
38066DOD     C158017  16.402  23.457  12.973  0.1299  0.1523  0.1343
38066DOD     C258018  16.187  23.196  12.726  0.0747 -0.1424  0.1050
38066DOD     C358019  16.236  22.746  12.804 -0.2281  0.2955 -0.2884
38067DOD     C158020  21.740  24.676  10.222 -0.5495  0.0262  0.0565
38067DOD     C258021  22.134  24.727  10.417  0.0627 -0.0441 -0.0538
38067DOD     C358022  22.259  24.378  10.712  0.2013 -0.1653  0.2360
38068DOD     C158023  26.157   8.603  23.632  0.0678 -0.0387  0.4671
38068DOD     C258024  26.400   8.886  23.906 -0.2423  0.1895 -0.0115
38068DOD     C358025  26.675   9.233  23.995  0.0653 -0.2655 -0.2021
38069DOD     C158026  27.706  21.565  10.106 -0.0773 -0.0581  0.2446
38069DOD     C258027  28.152  21.669  10.217 -0.3576  0.0469 -0.0437
38069DOD     C358028  28.574  21.518  10.164 -0.1795 -0.2802 -0.0143
38070DOD     C158029   0.970   4.132  16.047  0.0779 -0.1019 -0.0061
38070DOD     C258030   0.781   3.678  16.028 -0.1543 -0.2119  0.2889
38070DOD     C358031   0.900   3.286  15.803 -0.0079 -0.2308 -0.2953
38071DOD     C158032  18.862  20.070  13.284  0.1959  0.3832  0.2057
38071DOD     C258033  18.689  19.853  12.903  0.2208  0.0596  0.1484
38071DOD     C358034  18.705  19.499  12.564  0.1143  0.3052  0.3893
38072DOD     C158035   5.880   0.559  25.258  0.2143 -0.3929 -0.1456
38072DOD     C258036   6.262   0.721  25.056  0.0683 -0.3929 -0.2760
38072DOD     C358037   6.647   0.523  25.112 -0.0182  0.2700  0.0221
38073DOD     C158038  15.886  18.359  12.711  0.1540  0.3271 -0.0592
38073DOD     C258039  16.040  18.729  12.841  0.1453 -0.2391  0.2025
38073DOD     C358040  15.914  19.147  13.027  0.3148 -0.2623 -0.1378
38074DOD     C158041  22.432  27.133   2.998  0.2698  0.1876  0.2607
38074DOD     C258042  22.137  26.889   3.267 -0.1768  0.0242 -0.1799
38074DOD     C358043  21.923  26.514   3.399 -0.2757  0.1498  0.1347
38075DOD     C158044  26.923  19.505  19.755  0.0401 -0.1741 -0.1006
38075DOD     C258045  26.700  19.933  19.873 -0.1101  0.0769  0.1173
38075DOD     C358046  26.776  20.376  19.877  0.0592  0.0698 -0.1824
38076DOD     C158047  19.349   4.601   0.440 -0.2047 -0.2065 -0.1274
38076DOD     C258048  19.532   4.168   0.307  0.1457  0.1315  0.0176
38076DOD     C358049  19.971   4.022   0.192  0.1613 -0.1204  0.1251
38077DOD     C158050  21.815  26.946   0.652 -0.0899  0.0266 -0.1194
38077DOD     C258051  22.221  26.843   0.944 -0.0559  0.1990 -0.0129
38077DOD     C358052  22.220  26.597   1.359  0.1419 -0.2181 -0.0750
38078DOD     C158053   4.145   2.164  15.462 -0.0150  0.0096  0.1041
38078DOD     C258054   4.318   2.628  15.421  0.2329  0.4632 -0.0999
38078DOD     C358055   4.011   2.954  15.369  0.1496 -0.1523 -0.1056
38079DOD     C158056  12.829  24.840   1.843  0.0159  0.0917  0.0560
38079DOD     C258057  12.637  25.196   1.651 -0.1029 -0.1203  0.0446
38079DOD     C358058  12.619  25.563   1.305 -0.0256 -0.1846 -0.2607
38080DOD     C158059  19.507  26.917  20.233 -0.0820 -0.2255 -0.2172
38080DOD     C258060  19.792  27.037  19.869  0.1735 -0.2322 -0.1334
38080DOD     C358061  20.079  27.009  19.519 -0.3326 -0.0372 -0.1575
38081DOD     C158062  28.130  14.916  22.579  0.0001 -0.0928 -0.0714
38081DOD     C258063  28.271  14.741  22.181 -0.0894  0.2533  0.0945
38081DOD     C358064  27.953  14.485  21.847 -0.2243 -0.0145 -0.0264
38082DOD     C158065  21.491  28.470  12.913  0.1806 -0.1754  0.0482
38082DOD     C258066  21.788  28.683  13.168  0.1551  0.0210 -0.0957
38082DOD     C358067  22.052  28.366  13.397 -0.2096 -0.0586 -0.1503
38083DOD     C158068   5.531  29.799  27.439 -0.1769 -0.2059  0.0292
38083DOD     C258069   5.433  29.452  27.732  0.2947  0.1252 -0.2772
38083DOD     C358070   5.153  29.174  28.015 -0.1489 -0.2941 -0.0733
38084DOD     C158071  16.892   3.219   0.851  0.1684  0.0630  0.0338
38084DOD     C258072  17.093   3.169   0.436 -0.1003  0.2662 -0.0567
38084DOD     C358073  16.997   2.990  30.309 -0.0256  0.0539  0.0898
38085DOD     C158074   3.334   1.567  23.226 -0.1857  0.2008  0.1810
38085DOD     C258075   3.011   1.278  23.327 -0.1744 -0.0725 -0.1077
38085DOD     C358076   2.521   1.272  23.370  0.3107 -0.0706 -0.2692
38086DOD     C158077   6.450  14.742  29.545 -0.4295  0.2577  0.1508
38086DOD     C258078   6.885  14.730  29.683  0.1642 -0.1122 -0.0401
38086DOD     C358079   7.245  14.459  29.861 -0.1716  0.1871  0.0801
38087DOD     C158080  22.674  19.365  29.812  0.0778 -0.0387  0.3414
38087DOD     C258081  22.433  19.112  29.532  0.1452 -0.1916 -0.2359
38087DOD     C358082  22.346  18.647  29.596  0.1670 -0.0682  0.0795
38088DOD     C158083  13.227  16.985  28.129  0.1702  0.0141 -0.5833
38088DOD     C258084  12.877  17.149  27.892  0.2024 -0.0404  0.0975
38088DOD     C358085  12.466  17.295  27.912  0.1413  0.0249 -0.2267
38089DOD     C158086   9.927   2.688  19.697 -0.0873  0.0292 -0.1397
38089DOD     C258087   9.584   2.721  19.446 -0.0424 -0.0711 -0.0656
38089DOD     C358088   9.211   2.595  19.190 -0.2977  0.1913 -0.0197
38090DOD     C158089  21.644   9.879  15.979  0.0638 -0.0434  0.2084
38090DOD     C258090  21.677  10.048  15.538 -0.0114  0.0838  0.3193
38090DOD     C358091  21.782  10.276  15.110 -0.1104  0.1618  0.0863
38091DOD     C158092  25.279  21.861  24.106  0.0510 -0.0131  0.0068
38091DOD     C258093  25.036  21.601  24.419  0.0692  0.0824 -0.0208
38091DOD     C358094  24.841  21.196  24.563 -0.0769  0.0429  0.1449
38092DOD     C158095  17.537  19.542   8.936 -0.0508 -0.0840  0.0853
38092DOD     C258096  17.061  19.334   8.926  0.0529 -0.0083 -0.2986
38092DOD     C358097  16.778  18.948   8.798  0.2679  0.2401  0.5481
38093DOD     C158098  27.095  17.074   9.740 -0.4081 -0.2362 -0.0965
38093DOD     C258099  27.197  16.615   9.520 -0.3469 -0.4551 -0.2696
38093DOD     C358100  26.967  16.277   9.230 -0.0723  0.0043  0.0263
38094DOD     C158101  21.991  11.098  25.967  0.0396 -0.2581  0.1066
38094DOD     C258102  22.440  11.215  26.020  0.3306 -0.0069 -0.3697
38094DOD     C358103  22.908  11.225  26.015 -0.0582  0.0492  0.0620
38095DOD     C158104  14.883  29.974  26.358 -0.1567 -0.2459 -0.1266
38095DOD     C258105  15.201  29.978  26.000  0.2120 -0.1539 -0.2791
38095DOD     C358106  15.410  29.865  25.609 -0.2067 -0.0749  0.1489
38096DOD     C158107  12.807  19.588   8.117  0.2269 -0.2044 -0.0972
38096DOD     C258108  12.819  19.669   8.550 -0.2205 -0.3743 -0.1574
38096DOD     C358109  13.049  19.417   8.901  0.1644 -0.0740 -0.2645
38097DOD     C158110   6.221   1.825   5.250  0.2416 -0.3563  0.1554
38097DOD     C258111   6.591   2.079   5.265  0.0176  0.1307  0.1380
38097DOD     C358112   6.763   2.389   4.942  0.3328 -0.3448 -0.2072
38098DOD     C158113  20.080  18.530  14.403 -0.1412 -0.1297 -0.2254
38098DOD     C258114  20.354  18.638  14.074  0.1673 -0.0079  0.3579
38098DOD     C358115  20.788  18.787  13.974 -0.1946 -0.0582  0.1609
38099DOD     C158116  17.675  30.072  26.405  0.0774  0.1321 -0.0649
38099DOD     C258117  18.022  29.799  26.526 -0.2404  0.0620  0.1203
38099DOD     C358118  18.244  29.371  26.517  0.3219 -0.2162  0.1489
38100DOD     C158119  11.440  28.348  29.088 -0.0359  0.1488 -0.0493
38100DOD     C258120  11.385  28.818  29.050 -0.0102  0.0110 -0.1247
38100DOD     C358121  11.740  29.079  29.151  0.2651  0.0155  0.0402
38101DOD     C158122  12.759   7.708   9.507 -0.0399  0.3667  0.0270
38101DOD     C258123  12.912   8.125   9.418  0.1606  0.1489  0.2031
38101DOD     C358124  12.757   8.534   9.542 -0.0926 -0.0237  0.0617
38102DOD     C158125  14.230  10.269  21.131  0.1451 -0.0490 -0.3483
38102DOD     C258126  14.109   9.860  21.214 -0.1686  0.2815 -0.1386
38102DOD     C358127  13.828   9.452  21.359  0.2861 -0.0599  0.0648
38103DOD     C158128  15.672   6.734  14.951 -0.6014 -0.2221  0.3148
38103DOD     C258129  15.488   6.793  15.376 -0.0316  0.0795  0.0141
38103DOD     C358130  15.316   6.377  15.583  0.0446  0.2369 -0.3268
38104DOD     C158131   3.534  29.654   2.824 -0.0627 -0.1102  0.2037
38104DOD     C258132   3.951  29.747   2.636  0.0182  0.1926 -0.1043
38104DOD     C358133   4.248  29.916   2.338 -0.3030  0.2410 -0.0311
38105DOD     C158134  25.654  24.917  18.497 -0.2172  0.0365  0.1413
38105DOD     C258135  25.610  24.910  18.937  0.2092  0.1490 -0.0168
38105DOD     C358136  25.689  24.976  19.386  0.1188  0.2045  0.0065
38106DOD     C158137  16.923   6.572   1.811 -0.1614 -0.0354  0.1056
38106DOD     C258138  16.724   6.696   2.169  0.1432  0.0693  0.1542
38106DOD     C358139  16.853   7.083   2.484  0.0620 -0.1013 -0.2129
38107DOD     C158140  11.355   8.822   9.202  0.3000 -0.0029 -0.0192
38107DOD     C258141  11.811   8.605   9.197 -0.0534  0.0353 -0.2757
38107DOD     C358142  12.145   8.746   8.895  0.1852 -0.0173  0.0858
38108DOD     C158143  11.450  18.249  23.812  0.1455 -0.0836  0.0344
38108DOD     C258144  11.684  18.583  23.780 -0.1911  0.1328 -0.0338
38108DOD     C358145  11.951  19.013  23.746 -0.0263  0.1422 -0.4759
38109DOD     C158146  16.445   4.113   0.819  0.2817 -0.1250 -0.0042
38109DOD     C258147  16.132   3.864   0.572 -0.0802  0.1499  0.1520
38109DOD     C358148  15.908   3.603   0.258 -0.1353 -0.1510  0.0702
38110DOD     C158149   2.546   0.060  20.183  0.1356  0.2253  0.0761
38110DOD     C258150   2.810   0.199  20.517 -0.0738 -0.0359 -0.2650
38110DOD     C358151   3.085   0.496  20.668  0.0261 -0.4375 -0.2199
38111DOD     C158152  13.314   4.184   0.752 -0.0562  0.1323  0.0373
38111DOD     C258153  13.038   3.945   0.411  0.2154  0.1519 -0.2217
38111DOD     C358154  12.668   3.824   0.063 -0.1643 -0.1555 -0.1812
38112DOD     C158155   0.080  18.642   4.177  0.1216  0.2955  0.0969
38112DOD     C258156   0.438  18.700   4.472 -0.0211 -0.1068 -0.1437
38112DOD     C358157   0.694  19.004   4.762  0.0994 -0.2903 -0.3096
38113DOD     C158158  18.931   9.849  25.958 -0.2964  0.1192  0.0211
38113DOD     C258159  18.895   9.401  25.948 -0.3103 -0.1867  0.2138
38113DOD     C358160  18.861   8.880  25.900  0.1367  0.0410 -0.2276
38114DOD     C158161   6.087  25.228  24.503  0.0467  0.0927 -0.2535
38114DOD     C258162   6.243  25.139  24.100  0.1471 -0.2978 -0.3062
38114DOD     C358163   6.636  25.224  23.876 -0.0638 -0.2202 -0.0090
38115DOD     C158164   3.245  20.259  10.863  0.0212 -0.3069  0.2889
38115DOD     C258165   2.968  20.036  11.125  0.2541  0.0925  0.0446
38115DOD     C358166   2.634  19.725  11.239  0.0861 -0.2277 -0.2848
38116DOD     C158167  22.425  16.148  29.145  0.2800  0.3393  0.0991
38116DOD     C258168  21.980  16.243  29.208 -0.0770 -0.0812 -0.0473
38116DOD     C358169  21.533  16.399  29.268  0.1529  0.1582 -0.0671
38117DOD     C158170   5.321   3.259  17.681  0.0539  0.2659  0.3629
38117DOD     C258171   5.752   3.002  17.619 -0.1248 -0.1770 -0.2187
38117DOD     C358172   6.210   3.147  17.698  0.1854  0.4638  0.3430
38118DOD     C158173   6.223   8.451  20.283  0.0488  0.0001  0.0100
38118DOD     C258174   5.792   8.312  20.335 -0.0636  0.0952  0.0556
38118DOD     C358175   5.757   7.979  19.941  0.1181 -0.0009 -0.0596
38119DOD     C158176  22.546  26.704  13.960  0.2261  0.1614 -0.2148
38119DOD     C258177  22.518  27.041  14.259  0.0638  0.1132  0.1922
38119DOD     C358178  22.555  27.275  14.694 -0.1506  0.0296  0.0845
38120DOD     C158179  17.508  18.015   5.754 -0.1626  0.1457  0.1034
38120DOD     C258180  17.506  17.977   5.282 -0.0945 -0.0729 -0.0418
38120DOD     C358181  17.566  17.972   4.785  0.0523 -0.0516 -0.1989
38121DOD     C158182  16.586   6.321  15.144 -0.2210  0.0012 -0.1113
38121DOD     C258183  16.167   6.588  15.230  0.0328 -0.0532  0.2370
38121DOD     C358184  15.984   7.015  15.402 -0.0708 -0.0164 -0.2542
38122DOD     C158185  20.708   9.264   2.933  0.1187 -0.1716 -0.3606
38122DOD     C258186  20.500   8.853   2.766  0.1060 -0.4711 -0.1870
38122DOD     C358187  20.236   8.464   2.864  0.0751  0.1125 -0.1759
38123DOD     C158188  13.506  22.985  18.956 -0.2189 -0.2052  0.2261
38123DOD     C258189  13.504  23.320  18.616  0.0575  0.3040 -0.0433
38123DOD     C358190  13.788  23.356  18.244  0.0963  0.1467  0.0595
38124DOD     C158191   8.995  19.734  29.113 -0.2097 -0.2389  0.1596
38124DOD     C258192   9.232  19.542  28.754  0.2957 -0.1439  0.2860
38124DOD     C358193   9.592  19.426  28.482  0.4271  0.0234  0.0606
38125DOD     C158194  14.184  10.435   4.333 -0.0660  0.0204  0.0022
38125DOD     C258195  13.944  10.494   3.994 -0.1873 -0.3251  0.0349
38125DOD     C358196  13.489  10.588   4.037 -0.0809 -0.1608  0.2065
38126DOD     C158197   7.866   0.186   3.049 -0.2581 -0.1939  0.2464
38126DOD     C258198   7.528  30.245   2.977 -0.2482  0.3645 -0.1773
38126DOD     C358199   7.350  29.847   3.130  0.2395 -0.1166  0.2638
38127DOD     C158200   5.225  17.993  14.685  0.3595 -0.0036  0.0121
38127DOD     C258201   5.224  17.629  14.399 -0.2476 -0.1613  0.1486
38127DOD     C358202   5.316  17.188  14.440 -0.0763  0.0048 -0.1335
38128DOD     C158203   7.472  -0.006  28.387  0.2414 -0.1535 -0.0618
38128DOD     C258204   7.113   0.246  28.408 -0.0872 -0.2245  0.2282
38128DOD     C358205   7.031   0.624  28.202  0.0050 -0.0733 -0.0445
38129DOD     C158206  24.161  25.906  28.847  0.2250  0.1181  0.2030
38129DOD     C258207  23.851  25.592  28.945 -0.2280 -0.2026  0.0459
38129DOD     C358208  23.986  25.132  28.857 -0.3799 -0.1073  0.0998
38130DOD     C158209   9.573  28.086   8.259  0.1307 -0.1230  0.2192
38130DOD     C258210   9.176  27.839   8.322  0.0894  0.0824  0.0496
38130DOD     C358211   8.844  27.631   8.670 -0.2077 -0.0039  0.0168
38131DOD     C158212   0.500  13.467   0.909  0.5203 -0.2687 -0.2298
38131DOD     C258213   0.074  13.647   0.950 -0.1184  0.0452 -0.0064
38131DOD     C358214  30.007  13.638   0.711 -0.0594  0.1762 -0.0360
38132DOD     C158215  17.583   2.231  18.418  0.0987  0.0718 -0.1548
38132DOD     C258216  18.018   2.062  18.246 -0.0839  0.0084 -0.0452
38132DOD     C358217  18.332   2.186  17.939  0.3798  0.0396  0.0083
38133DOD     C158218  28.374   9.897  27.947 -0.1358 -0.1980 -0.0856
38133DOD     C258219  28.450  10.362  27.984 -0.0120 -0.5080  0.1129
38133DOD     C358220  28.651  10.758  27.914  0.3070  0.0696 -0.2578
38134DOD     C158221   9.300   1.688  22.809  0.2906  0.4762  0.3062
38134DOD     C258222   9.111   1.851  22.441 -0.0512 -0.1655 -0.6996
38134DOD     C358223   8.901   2.115  22.087 -0.1752  0.0357  0.0399
38135DOD     C158224  12.938   4.950  29.359 -0.1615  0.1105 -0.2009
38135DOD     C258225  12.480   4.898  29.232 -0.1200 -0.2402  0.1546
38135DOD     C358226  12.153   4.627  29.399  0.3245  0.1956 -0.2808
38136DOD     C158227  30.178   0.838  29.160 -0.1210  0.2413  0.0673
38136DOD     C258228  29.922   1.129  29.466  0.1320  0.1850  0.0083
38136DOD     C358229  30.083   1.342  29.896  0.2355 -0.0216  0.0543
38137DOD     C158230  29.871  24.791   7.238  0.2109 -0.2843  0.1845
38137DOD     C258231  29.460  24.584   6.984 -0.0987  0.0492  0.0986
38137DOD     C358232  29.087  24.255   7.067 -0.0174 -0.2607  0.0156
38138DOD     C158233  25.977  17.404  20.842  0.0143 -0.1107  0.3672
38138DOD     C258234  25.561  17.345  20.625 -0.0502  0.3348  0.1107
38138DOD     C358235  25.203  17.281  20.367  0.3305 -0.0941 -0.0560
38139DOD     C158236   6.673  24.337  27.096  0.1703  0.0160 -0.0096
38139DOD     C258237   6.452  24.224  27.489  0.2776  0.1541  0.2327
38139DOD     C358238   6.356  24.023  27.888  0.2495  0.1198  0.2703
38140DOD     C158239  26.026  13.535  11.398  0.1799 -0.0292  0.0336
38140DOD     C258240  26.305  13.772  11.664 -0.1852 -0.3383 -0.0522
38140DOD     C358241  26.699  14.053  11.698  0.3670  0.2097 -0.0818
38141DOD     C158242   8.902  17.863  11.509 -0.0885  0.4250  0.4999
38141DOD     C258243   8.877  17.448  11.372 -0.1586 -0.4133 -0.2175
38141DOD     C358244   8.768  17.106  11.020 -0.1529 -0.1032 -0.1540
38142DOD     C158245  21.561  17.819  12.411 -0.2081 -0.0602  0.2239
38142DOD     C258246  21.798  17.566  12.706  0.0103  0.0268  0.1890
38142DOD     C358247  22.256  17.516  12.692  0.0862 -0.0179 -0.3263
38143DOD     C158248  19.254   1.855   3.807 -0.1796  0.5176  0.5675
38143DOD     C258249  18.780   1.745   3.857  0.0670 -0.4717  0.2806
38143DOD     C358250  18.309   1.676   3.836 -0.1241 -0.0024  0.2898
38144DOD     C158251  17.268   9.313  25.427  0.0971 -0.1620 -0.3103
38144DOD     C258252  17.129   9.429  25.876 -0.0733 -0.2161  0.1644
38144DOD     C358253  16.862   9.601  26.226 -0.3228  0.2288  0.0028
38145DOD     C158254   4.197  10.078  10.007 -0.2505  0.2548  0.0519
38145DOD     C258255   4.142   9.659  10.037  0.2003 -0.1772  0.0662
38145DOD     C358256   4.383   9.234  10.066 -0.1067 -0.1528  0.0242
38146DOD     C158257  21.970  26.087  20.403  0.1801 -0.1156  0.3930
38146DOD     C258258  22.253  25.811  20.529 -0.1564  0.1980  0.1132
38146DOD     C358259  22.631  25.601  20.434  0.1520 -0.0878 -0.0871
38147DOD     C158260  21.311  16.620   7.611 -0.1384 -0.0808  0.0365
38147DOD     C258261  20.967  16.535   7.920 -0.0180 -0.1498  0.0249
38147DOD     C358262  20.887  16.421   8.388 -0.0642  0.0677 -0.2565
38148DOD     C158263   3.669  20.117   0.721 -0.0561 -0.0864 -0.0409
38148DOD     C258264   3.639  19.832   0.282  0.3398 -0.1995 -0.3581
38148DOD     C358265   3.616  19.570  30.244  0.1240  0.5288  0.0220
38149DOD     C158266  16.178   5.605   7.518  0.1969 -0.0920  0.0392
38149DOD     C258267  15.690   5.778   7.520  0.1456  0.1010  0.1930
38149DOD     C358268  15.197   5.644   7.512  0.0487 -0.1112  0.1168
38150DOD     C158269   0.832   4.269   4.590 -0.4004  0.2397 -0.1385
38150DOD     C258270   1.182   4.337   4.939  0.2856  0.0012  0.0878
38150DOD     C358271   1.646   4.239   4.981 -0.3476  0.0651 -0.1216
38151DOD     C158272  13.310   0.492   3.303  0.0031  0.1698  0.1045
38151DOD     C258273  13.150   0.749   2.919  0.2992 -0.0557  0.0249
38151DOD     C358274  13.343   0.866   2.519 -0.5294 -0.2317  0.2151
38152DOD     C158275   8.753  29.194  17.413 -0.1507  0.1166  0.0831
38152DOD     C258276   9.063  29.417  17.076 -0.1488  0.2825 -0.1896
38152DOD     C358277   9.474  29.408  16.865 -0.0453  0.1355  0.0594
38153DOD     C158278  10.012   2.401   6.658  0.1684  0.2170 -0.3037
38153DOD     C258279   9.634   2.449   6.919  0.1413 -0.2207  0.0380
38153DOD     C358280   9.241   2.588   7.081 -0.1238  0.0001 -0.0043
38154DOD     C158281  23.077  10.974  25.459  0.3252  0.2384 -0.0100
38154DOD     C258282  22.806  10.768  25.787  0.0519 -0.0077  0.3102
38154DOD     C358283  22.356  10.744  25.873 -0.1199  0.0457 -0.0956
38155DOD     C158284  30.264  10.069   0.254 -0.0924 -0.1721 -0.2872
38155DOD     C258285  30.007   9.940  30.211 -0.1450  0.2470  0.3894
38155DOD     C358286  30.114   9.945  29.799 -0.0795  0.2986  0.1520
38156DOD     C158287  18.760  22.664  19.646 -0.1081 -0.2030  0.1239
38156DOD     C258288  18.982  22.793  20.046  0.2007 -0.0381 -0.2125
38156DOD     C358289  19.142  23.221  20.224 -0.4047  0.0345 -0.0678
38157DOD     C158290  10.030  25.553  25.304 -0.1452 -0.0106  0.2886
38157DOD     C258291   9.874  25.697  25.693 -0.2310 -0.2838 -0.0653
38157DOD     C358292   9.440  25.605  25.902  0.0670 -0.1448 -0.0716
38158DOD     C158293   3.903  27.720  26.052 -0.3623 -0.0007 -0.2866
38158DOD     C258294   4.332  27.479  26.077  0.0080 -0.0852 -0.1973
38158DOD     C358295   4.609  27.137  26.108  0.1575  0.1031 -0.2324
38159DOD     C158296  15.661   5.476  19.983 -0.1141  0.1296  0.0049
38159DOD     C258297  16.152   5.491  19.816 -0.2502  0.0002  0.0484
38159DOD     C358298  16.472   5.349  19.551  0.0142  0.1151  0.0434
38160DOD     C158299  28.917   9.547  28.457  0.0132  0.0572  0.0971
38160DOD     C258300  28.540   9.306  28.496  0.1678  0.1376 -0.1160
38160DOD     C358301  28.313   8.970  28.247  0.0310  0.3450 -0.2983
38161DOD     C158302   1.097   5.550   6.889  0.2642 -0.1943 -0.0811
38161DOD     C258303   1.291   5.949   6.996  0.1502  0.0293  0.2131
38161DOD     C358304   1.624   6.199   6.975  0.2313 -0.0811  0.0387
38162DOD     C158305  20.236   4.485  28.484 -0.2998  0.1833 -0.0588
38162DOD     C258306  20.322   3.993  28.509 -0.4846  0.2449  0.1286
38162DOD     C358307  20.611   3.603  28.568 -0.0722 -0.1832 -0.1742
38163DOD     C158308  17.205  10.489  12.281 -0.2550  0.1157  0.2433
38163DOD     C258309  17.006  10.647  12.635  0.0004 -0.0349  0.1684
38163DOD     C358310  16.929  10.795  13.061  0.4016 -0.1614  0.1373
38164DOD     C158311   7.721  22.813  28.156 -0.0129  0.1155  0.0584
38164DOD     C258312   7.524  22.629  28.553  0.0795  0.2164  0.0357
38164DOD     C358313   7.070  22.597  28.717 -0.1180  0.0128 -0.3655
38165DOD     C158314  22.722   5.466  12.548  0.1347  0.1685  0.1227
38165DOD     C258315  22.337   5.206  12.624  0.2386 -0.0619 -0.0489
38165DOD     C358316  21.945   5.398  12.876 -0.2074 -0.2768 -0.0231
38166DOD     C158317   2.403  14.105  11.279 -0.2377 -0.0411 -0.4840
38166DOD     C258318   2.009  14.311  11.310  0.0407 -0.0940  0.0677
38166DOD     C358319   1.981  14.701  11.035 -0.1734 -0.1616  0.3873
38167DOD     C158320  23.887  13.609  21.338 -0.2594 -0.0064 -0.0549
38167DOD     C258321  23.385  13.642  21.360 -0.0637 -0.0400  0.0928
38167DOD     C358322  22.949  13.683  21.570 -0.0953  0.3127 -0.0618
38168DOD     C158323   9.851   8.899  17.084  0.2126 -0.1159  0.2983
38168DOD     C258324   9.637   9.313  17.034  0.0511  0.1577  0.1515
38168DOD     C358325   9.577   9.754  16.903 -0.0789  0.6334  0.1517
38169DOD     C158326  15.509  12.622  27.853  0.3456  0.1294  0.2479
38169DOD     C258327  15.987  12.611  27.748 -0.0233 -0.0259 -0.1048
38169DOD     C358328  16.357  12.312  27.602  0.1501  0.0690  0.1830
38170DOD     C158329   5.175   2.974   7.615 -0.1201  0.0759  0.1156
38170DOD     C258330   5.507   2.742   7.849 -0.1155  0.1830  0.0557
38170DOD     C358331   5.700   2.396   7.850  0.1550  0.1959 -0.0549
38171DOD     C158332  28.771  11.305  15.270  0.1508 -0.0538  0.2107
38171DOD     C258333  28.800  11.330  14.805 -0.0168  0.0417 -0.1544
38171DOD     C358334  28.598  11.046  14.519  0.0225 -0.1125  0.0703
38172DOD     C158335   6.236   1.644  10.166 -0.2337 -0.2571  0.1089
38172DOD     C258336   6.303   1.544  10.587  0.2377 -0.0385 -0.1972
38172DOD     C358337   6.139   1.619  10.991 -0.0149  0.0662  0.1411
38173DOD     C158338   1.591  17.261  14.957 -0.1791 -0.0312 -0.1784
38173DOD     C258339   1.394  16.841  14.920  0.0057  0.2852  0.1189
38173DOD     C358340   1.224  16.435  15.050 -0.1610  0.1691 -0.0196
38174DOD     C158341  16.019  15.091  26.888 -0.1603 -0.0206  0.2822
38174DOD     C258342  16.443  15.306  26.731  0.0675 -0.0019 -0.0796
38174DOD     C358343  16.822  15.519  26.814  0.1722 -0.0024 -0.2829
38175DOD     C158344  28.162   7.530  22.638  0.1548 -0.0664  0.1694
38175DOD     C258345  27.691   7.480  22.493  0.0326 -0.2249  0.2154
38175DOD     C358346  27.342   7.264  22.309  0.0686  0.2030 -0.1008
38176DOD     C158347  15.052  27.356  28.296 -0.0308  0.1253 -0.6259
38176DOD     C258348  14.726  27.461  28.575  0.0932 -0.0715 -0.2086
38176DOD     C358349  14.433  27.858  28.630  0.1419  0.1129  0.1733
38177DOD     C158350   8.040   9.390  17.081  0.1006  0.2679 -0.0801
38177DOD     C258351   8.180   9.355  16.669 -0.1499  0.0607 -0.1366
38177DOD     C358352   8.311   9.394  16.234 -0.3264  0.2640 -0.2129
38178DOD     C158353   4.589  17.325  11.014 -0.0907  0.0074  0.0448
38178DOD     C258354   4.637  16.907  11.147  0.0561  0.0475 -0.1436
38178DOD     C358355   4.860  16.501  11.243  0.2883  0.3352 -0.3931
38179DOD     C158356   9.145   5.581   4.463  0.0912  0.1114 -0.0519
38179DOD     C258357   9.519   5.474   4.757 -0.0203 -0.4531  0.1379
38179DOD     C358358   9.712   5.431   5.145 -0.1034 -0.1165 -0.0480
38180DOD     C158359  19.988   2.045   5.136  0.1137 -0.1419 -0.4339
38180DOD     C258360  19.823   1.932   4.733  0.0476 -0.1558 -0.2277
38180DOD     C358361  19.471   1.832   4.359  0.0305  0.0272  0.0677
38181DOD     C158362  14.185   8.396  12.180  0.2576  0.1844 -0.0417
38181DOD     C258363  13.968   7.998  11.947  0.2154 -0.1750  0.0870
38181DOD     C358364  14.290   7.656  11.801  0.2495  0.1663  0.1370
38182DOD     C158365  18.439  11.552   9.274 -0.0907 -0.0726  0.0156
38182DOD     C258366  18.584  11.959   9.478  0.0186 -0.0220  0.2694
38182DOD     C358367  18.465  12.277   9.804 -0.3668  0.1627 -0.2083
38183DOD     C158368  18.103  27.165  28.381  0.0991 -0.0378 -0.0591
38183DOD     C258369  17.956  27.068  27.945  0.1464  0.0801 -0.0111
38183DOD     C358370  17.836  26.837  27.550 -0.0207 -0.0319  0.0538
38184DOD     C158371  25.296  26.947  16.056  0.0536 -0.2214 -0.1876
38184DOD     C258372  25.702  26.856  16.303 -0.2047  0.2368  0.0786
38184DOD     C358373  26.055  26.738  16.600  0.3230 -0.0415 -0.4915
38185DOD     C158374  15.846  18.483  16.179  0.0313 -0.0340 -0.0414
38185DOD     C258375  15.422  18.209  16.111  0.0965  0.2053 -0.2060
38185DOD     C358376  15.284  17.790  16.337 -0.4192 -0.1906  0.1582
38186DOD     C158377  21.722  29.944  21.915  0.2225  0.0030  0.1208
38186DOD     C258378  22.026  30.036  21.563  0.3988  0.1982 -0.1434
38186DOD     C358379  22.237   0.098  21.490  0.0064 -0.0719 -0.1471
38187DOD     C158380  21.547  13.147  21.601 -0.1466  0.2240  0.1795
38187DOD     C258381  21.145  13.315  21.420  0.0336  0.3089  0.0714
38187DOD     C358382  20.859  13.675  21.331 -0.2259 -0.0022 -0.1675
38188DOD     C158383   9.194  27.993   9.348  0.0185  0.0134  0.0195
38188DOD     C258384   8.752  27.856   9.265  0.1775 -0.0581  0.0524
38188DOD     C358385   8.442  27.792   9.534  0.4026 -0.0484 -0.1277
38189DOD     C158386  25.232  26.111   3.969  0.3535  0.0027 -0.0460
38189DOD     C258387  25.040  26.054   3.581 -0.0055  0.0090 -0.4396
38189DOD     C358388  24.844  26.280   3.160  0.3035  0.1565 -0.2294
38190DOD     C158389   1.582  23.498   9.783 -0.3977 -0.1178  0.0110
38190DOD     C258390   1.556  23.525  10.237 -0.0454 -0.0088  0.0191
38190DOD     C358391   1.661  23.647  10.638  0.0311 -0.0424  0.3099
38191DOD     C158392   3.161   2.042   9.363  0.0562 -0.0423 -0.2355
38191DOD     C258393   3.415   2.419   9.380  0.0102  0.2144 -0.0897
38191DOD     C358394   3.833   2.604   9.415 -0.0191  0.0933  0.0035
38192DOD     C158395  18.178  29.329  18.359  0.0190  0.3452 -0.0505
38192DOD     C258396  18.147  29.367  17.901 -0.2459  0.0977  0.2208
38192DOD     C358397  18.171  29.101  17.504  0.1605 -0.2561 -0.0442
38193DOD     C158398  24.020   4.307  25.725  0.3495  0.1972 -0.0021
38193DOD     C258399  23.560   4.324  25.709  0.1172 -0.1200 -0.0295
38193DOD     C358400  23.202   4.075  25.531  0.0728 -0.1503 -0.1013
38194DOD     C158401  13.096   8.071  29.244  0.1286 -0.0711 -0.4597
38194DOD     C258402  13.394   7.962  29.549  0.1302 -0.0663 -0.0087
38194DOD     C358403  13.791   7.893  29.331 -0.0670 -0.1534 -0.0692
38195DOD     C158404  29.568  27.946  29.621  0.1678  0.0790  0.0957
38195DOD     C258405  29.206  27.720  29.696  0.2553  0.2326  0.0009
38195DOD     C358406  28.905  27.520  29.429 -0.0993 -0.1379  0.0458
38196DOD     C158407  14.491  17.511  21.497  0.1665 -0.0423  0.0104
38196DOD     C258408  14.585  17.493  21.050  0.0436 -0.0780 -0.2401
38196DOD     C358409  14.353  17.731  20.671 -0.0258  0.0654 -0.0971
38197DOD     C158410  23.707  29.659  24.372 -0.1848  0.1031  0.0302
38197DOD     C258411  23.649  29.925  23.958  0.0194  0.0308  0.0022
38197DOD     C358412  23.740  -0.007  23.784  0.1265  0.1881  0.1466
38198DOD     C158413  24.803  10.060  12.010  0.1915  0.1249  0.0859
38198DOD     C258414  24.867   9.689  11.711 -0.1377 -0.0751 -0.0918
38198DOD     C358415  25.294   9.659  11.535 -0.2030 -0.0349  0.1721
38199DOD     C158416  19.902  29.285  22.283 -0.1949 -0.0740  0.3012
38199DOD     C258417  19.671  29.485  22.602  0.2886 -0.1497 -0.2984
38199DOD     C358418  19.476  29.344  23.044  0.0344 -0.0419  0.1582
38200DOD     C158419   7.207  17.967  23.556 -0.1990 -0.1849 -0.0248
38200DOD     C258420   6.958  18.346  23.687  0.0942 -0.5395 -0.0217
38200DOD     C358421   6.691  18.602  23.392 -0.2255  0.0575 -0.4202
38201DOD     C158422  24.649  14.146  13.354  0.1546  0.0612  0.3652
38201DOD     C258423  24.448  14.279  13.748  0.1238 -0.0653 -0.0729
38201DOD     C358424  24.139  14.466  14.025  0.0694 -0.0221  0.0111
38202DOD     C158425   2.812   3.340  18.665  0.0147 -0.4668 -0.0904
38202DOD     C258426   2.728   2.880  18.800 -0.0200 -0.2206  0.0532
38202DOD     C358427   2.732   2.474  19.074  0.0884  0.0429 -0.0567
38203DOD     C158428  12.904  29.071  21.939  0.3074 -0.4142 -0.0600
38203DOD     C258429  12.801  29.355  21.548 -0.0861  0.0704  0.0212
38203DOD     C358430  12.498  29.640  21.336 -0.2946 -0.0988 -0.0504
38204DOD     C158431  26.222   0.773  11.087 -0.2011 -0.0657  0.2455
38204DOD     C258432  26.495   0.492  10.874 -0.0547 -0.0477  0.0158
38204DOD     C358433  26.924   0.378  10.661  0.0212  0.1052 -0.0697
38205DOD     C158434  17.203   1.278  22.770 -0.0104 -0.0445 -0.1487
38205DOD     C258435  17.192   1.247  22.297 -0.1869  0.0722  0.1141
38205DOD     C358436  17.512   1.086  21.992  0.2418  0.0072  0.0796
38206DOD     C158437  28.829   6.182  19.602  0.1424  0.2110  0.0087
38206DOD     C258438  28.616   5.988  20.036  0.0658  0.2349  0.1285
38206DOD     C358439  28.642   5.484  20.086  0.3018  0.0374 -0.3426
38207DOD     C158440   2.311  30.058  27.926 -0.2707 -0.0925 -0.0450
38207DOD     C258441   2.462   0.167  28.034  0.2975  0.1188  0.0899
38207DOD     C358442   2.603   0.550  28.171  0.2237  0.0985 -0.3548
38208DOD     C158443  27.239  17.673   9.462  0.1547  0.3750 -0.1664
38208DOD     C258444  27.492  17.298   9.533  0.0746  0.3798 -0.3983
38208DOD     C358445  27.707  16.958   9.371 -0.0550  0.2586  0.2779
38209DOD     C158446  19.389  23.100   9.265 -0.0548 -0.1444 -0.0459
38209DOD     C258447  19.476  23.226   8.841  0.3014  0.1020  0.0273
38209DOD     C358448  19.537  22.945   8.510 -0.1173  0.1277 -0.1554
38210DOD     C158449  23.063  28.552  17.854  0.0725 -0.2468 -0.2228
38210DOD     C258450  23.121  28.897  18.177 -0.0756 -0.0940  0.0905
38210DOD     C358451  23.023  29.334  18.308  0.0100 -0.0082  0.0967
38211DOD     C158452  29.257  28.122  22.520  0.3642  0.1683  0.2907
38211DOD     C258453  29.229  28.168  22.078  0.2579  0.0786  0.1399
38211DOD     C358454  28.930  28.208  21.758  0.1342 -0.0451  0.4144
38212DOD     C158455   7.858  23.123  21.829 -0.1332 -0.1261  0.0741
38212DOD     C258456   8.119  23.233  21.432 -0.2867 -0.0642 -0.1535
38212DOD     C358457   8.416  23.262  21.075 -0.0976  0.1019  0.0937
38213DOD     C158458  28.180   1.141   3.017  0.4604  0.0483 -0.1241
38213DOD     C258459  28.120   1.617   2.907  0.0256 -0.2489  0.0418
38213DOD     C358460  28.334   1.963   2.621  0.4124 -0.0718  0.0291
38214DOD     C158461  20.837   1.653   9.561 -0.0916 -0.1811  0.2496
38214DOD     C258462  20.889   2.015   9.319  0.1815 -0.1072  0.1452
38214DOD     C358463  20.816   2.500   9.141 -0.0910  0.0028 -0.0864
38215DOD     C158464  17.309  27.122   0.603  0.0142 -0.1331 -0.0029
38215DOD     C258465  17.721  26.988   0.681 -0.2583  0.1341  0.1761
38215DOD     C358466  18.044  26.994   0.379  0.0059 -0.1008  0.4011
38216DOD     C158467   5.629   9.766   2.689  0.2942  0.3104 -0.4994
38216DOD     C258468   5.673   9.945   2.256 -0.0409  0.0853  0.0463
38216DOD     C358469   5.638  10.356   2.247 -0.0954  0.0845  0.2099
38217DOD     C158470  17.038   7.931  23.851 -0.0031  0.2222  0.0008
38217DOD     C258471  17.512   7.872  23.868  0.2609 -0.2720  0.0970
38217DOD     C358472  17.916   7.845  23.757 -0.0448  0.3475  0.1280
38218DOD     C158473  25.982   7.922  17.233 -0.1928  0.1721 -0.2203
38218DOD     C258474  25.969   7.506  17.512  0.1921 -0.2385 -0.1450
38218DOD     C358475  25.906   7.032  17.715  0.2032 -0.0683 -0.0867
38219DOD     C158476  27.943  27.772  20.719  0.0937  0.1852 -0.0372
38219DOD     C258477  27.433  27.745  20.890  0.0512  0.0788 -0.0220
38219DOD     C358478  27.021  27.923  20.850  0.0400  0.0606  0.1105
38220DOD     C158479  28.908   6.948   6.302  0.2362  0.2710  0.1981
38220DOD     C258480  29.082   7.096   5.891 -0.1711 -0.0049 -0.0305
38220DOD     C358481  29.459   7.075   5.552 -0.0774 -0.1806 -0.2363
38221DOD     C158482  10.700  24.696  21.861 -0.0603  0.0899  0.0095
38221DOD     C258483  11.167  24.546  21.798 -0.2314 -0.2003  0.0300
38221DOD     C358484  11.369  24.126  21.768  0.1020  0.1317  0.0850
38222DOD     C158485  14.401   8.436   5.927  0.0588 -0.2187  0.2554
38222DOD     C258486  14.799   8.673   5.827  0.2187  0.2062 -0.1823
38222DOD     C358487  15.128   8.901   5.568 -0.0606  0.0370  0.2757
38223DOD     C158488   6.981  10.583  13.288 -0.1757 -0.0418  0.1267
38223DOD     C258489   6.803  10.547  13.707 -0.1622  0.1356 -0.0719
38223DOD     C358490   6.515  10.325  14.015 -0.4508 -0.3124 -0.2905
38224DOD     C158491  11.463   3.650   0.956 -0.1714 -0.1602 -0.0041
38224DOD     C258492  11.629   4.004   1.095  0.1239 -0.2228  0.1646
38224DOD     C358493  11.589   4.472   1.160  0.1684  0.1123 -0.0030
38225DOD     C158494  14.048  26.879   1.783 -0.1369 -0.4743  0.2177
38225DOD     C258495  14.413  27.078   1.577 -0.0319 -0.0395 -0.0843
38225DOD     C358496  14.794  27.172   1.335 -0.0443 -0.2174 -0.5498
38226DOD     C158497  27.564   5.668  11.466  0.0166  0.0591  0.1097
38226DOD     C258498  27.542   5.946  11.144  0.0905 -0.1098 -0.0770
38226DOD     C358499  27.561   6.081  10.670  0.1494 -0.1437  0.0506
38227DOD     C158500   5.264  22.845  15.422 -0.0034  0.2251  0.2605
38227DOD     C258501   5.246  22.412  15.271  0.1050  0.0835  0.0372
38227DOD     C358502   4.950  22.068  15.145 -0.2496 -0.2108 -0.1832
38228DOD     C158503  11.369  24.307  29.202  0.0062 -0.2303  0.0689
38228DOD     C258504  11.718  24.360  29.547 -0.0581 -0.0141  0.3537
38228DOD     C358505  12.161  24.486  29.640  0.0150  0.0634  0.1090
38229DOD     C158506  17.246   9.561  11.839  0.0429  0.1129  0.2118
38229DOD     C258507  17.255   9.277  11.473 -0.0164  0.0258  0.0822
38229DOD     C358508  17.340   8.875  11.330 -0.1764  0.0915  0.0769
38230DOD     C158509  22.177  16.836  19.758  0.0589 -0.0449  0.0199
38230DOD     C258510  22.057  17.133  19.371  0.2311 -0.2109  0.0742
38230DOD     C358511  21.774  16.878  19.046 -0.2693 -0.0010  0.0866
38231DOD     C158512  29.125  25.616  24.783 -0.0577  0.2525  0.0962
38231DOD     C258513  28.966  25.910  25.117 -0.1508  0.1200  0.1403
38231DOD     C358514  28.600  26.122  25.259 -0.0165 -0.2402  0.0530
38232DOD     C158515  21.731  23.393  12.862  0.1107  0.0839 -0.0316
38232DOD     C258516  21.672  23.248  13.246  0.2067 -0.1216 -0.0081
38232DOD     C358517  21.778  22.874  13.441 -0.1195 -0.1699  0.0134
38233DOD     C158518  14.835   2.857   4.429 -0.1942 -0.1483 -0.1943
38233DOD     C258519  15.321   3.054   4.471  0.0043 -0.1729  0.2802
38233DOD     C358520  15.808   3.206   4.450 -0.3849 -0.0704  0.1867
38234DOD     C158521  22.080  10.019  12.114 -0.0764  0.2849 -0.0133
38234DOD     C258522  22.067   9.710  12.500  0.2252 -0.1143 -0.2470
38234DOD     C358523  22.221   9.367  12.768 -0.2346  0.0158 -0.1061
38235DOD     C158524  22.495  11.634  13.306 -0.1568 -0.2892  0.0581
38235DOD     C258525  22.544  11.863  13.708 -0.1832  0.1349  0.3433
38235DOD     C358526  22.263  11.854  14.046  0.0510 -0.0987 -0.2810
38236DOD     C158527  20.149  11.781   3.608 -0.0421 -0.1464  0.0329
38236DOD     C258528  20.339  12.149   3.808 -0.1562  0.0523 -0.0198
38236DOD     C358529  20.546  12.547   3.905 -0.2036 -0.0624 -0.0170
38237DOD     C158530  19.241  19.397  19.234  0.2422  0.1642 -0.2172
38237DOD     C258531  19.291  19.319  18.760  0.0600 -0.0736 -0.0404
38237DOD     C358532  18.936  19.284  18.457 -0.1420  0.1278  0.0311
38238DOD     C158533  23.951   4.463  11.659 -0.2045 -0.1670 -0.3396
38238DOD     C258534  23.518   4.594  11.875  0.1601 -0.1134  0.1280
38238DOD     C358535  23.276   4.745  12.242 -0.3745  0.2075  0.0348
38239DOD     C158536  23.175  15.372  23.167  0.0900  0.1341 -0.2072
38239DOD     C258537  23.180  14.977  22.920 -0.0258 -0.0094  0.1065
38239DOD     C358538  22.856  14.703  22.972  0.0596  0.0350  0.1769
38240DOD     C158539  17.759  20.826   9.080  0.0654  0.1009 -0.1049
38240DOD     C258540  17.365  20.623   8.939 -0.0413  0.0146  0.0660
38240DOD     C358541  16.998  20.312   8.848 -0.1695 -0.1985 -0.0523
38241DOD     C158542  19.531  19.244   4.756  0.1994 -0.2684 -0.2263
38241DOD     C258543  19.136  19.170   4.693  0.0353 -0.0282 -0.0810
38241DOD     C358544  18.827  18.780   4.604  0.0261  0.3525  0.2646
38242DOD     C158545  29.189   9.858  17.775 -0.1211 -0.1283  0.0943
38242DOD     C258546  29.321  10.295  17.780  0.1919 -0.0093  0.1624
38242DOD     C358547  29.448  10.673  17.982  0.0918 -0.2087  0.0964
38243DOD     C158548  11.660  20.623  12.631  0.3246 -0.0631 -0.1242
38243DOD     C258549  11.825  20.469  13.053 -0.0579 -0.0543 -0.1390
38243DOD     C358550  11.849  20.090  13.390  0.1660 -0.0779  0.3017
38244DOD     C158551  19.785  13.194  24.330 -0.1492 -0.2827  0.1549
38244DOD     C258552  20.154  12.928  24.125  0.0309 -0.1034  0.1032
38244DOD     C358553  20.393  13.058  23.733  0.0722 -0.1335  0.2075
38245DOD     C158554  15.643  28.922   3.983 -0.0363 -0.0564 -0.2116
38245DOD     C258555  15.831  28.577   3.768  0.0428  0.1543 -0.1961
38245DOD     C358556  16.298  28.528   3.715  0.3106  0.3798 -0.2333
38246DOD     C158557  24.138   5.646  20.561 -0.1953  0.2443  0.1038
38246DOD     C258558  24.372   5.914  20.266 -0.0535  0.0495  0.3301
38246DOD     C358559  24.591   5.774  19.893 -0.1124  0.1845  0.0834
38247DOD     C158560   4.108  14.746   8.284  0.1302 -0.0035 -0.4314
38247DOD     C258561   4.498  14.611   8.529 -0.2992 -0.2333 -0.1643
38247DOD     C358562   4.936  14.555   8.751  0.1387 -0.0045  0.2254
38248DOD     C158563  30.217   2.224   9.581 -0.1102  0.0285  0.0662
38248DOD     C258564  29.867   2.062   9.258 -0.1602 -0.2390 -0.0145
38248DOD     C358565  29.520   2.129   8.956 -0.3033 -0.0943 -0.0462
38249DOD     C158566  23.725   5.297  17.647 -0.4254 -0.1766 -0.0590
38249DOD     C258567  23.483   5.596  17.869  0.0284 -0.0404 -0.1977
38249DOD     C358568  22.997   5.674  17.913 -0.1873 -0.4077 -0.6787
38250DOD     C158569   2.156  18.542   4.285 -0.0710  0.0734  0.0732
38250DOD     C258570   1.866  18.793   4.549 -0.0356 -0.1140  0.2826
38250DOD     C358571   1.551  18.703   4.897  0.1560 -0.0171 -0.0803
38251DOD     C158572  29.969  17.829  16.581  0.1413  0.0329 -0.0760
38251DOD     C258573  29.788  17.654  16.223 -0.1391  0.1805  0.0209
38251DOD     C358574  29.702  17.215  15.986  0.2146  0.0534 -0.2928
38252DOD     C158575   0.716  19.093  20.256 -0.1254  0.1203 -0.0624
38252DOD     C258576   0.686  19.569  20.213 -0.1586 -0.2194  0.0412
38252DOD     C358577   0.747  19.901  19.900  0.2518  0.0270 -0.0130
38253DOD     C158578  24.583  27.317   6.376 -0.2521 -0.2340 -0.0493
38253DOD     C258579  24.428  27.012   6.634 -0.1844 -0.1763  0.0146
38253DOD     C358580  24.349  26.649   6.873  0.2246 -0.0115  0.2387
38254DOD     C158581  25.350   7.842  30.222  0.3187 -0.3197  0.0527
38254DOD     C258582  25.016   7.511   0.098 -0.1384 -0.3408 -0.1664
38254DOD     C358583  24.938   7.116   0.369 -0.0381  0.0930 -0.0070
38255DOD     C158584  19.755  18.177  15.637 -0.0848  0.0095 -0.2278
38255DOD     C258585  19.995  17.819  15.746 -0.2178 -0.1299 -0.1432
38255DOD     C358586  20.164  17.387  15.868 -0.0257 -0.0731 -0.3324
38256DOD     C158587  29.993   1.931   3.686  0.0067 -0.0268 -0.0041
38256DOD     C258588  29.910   2.175   4.095 -0.2215  0.0783  0.1345
38256DOD     C358589  29.636   2.573   4.164 -0.0594  0.1748 -0.2813
38257DOD     C158590   7.509  15.632  27.555  0.0975  0.2740  0.1853
38257DOD     C258591   7.705  15.765  27.150 -0.1904 -0.0743  0.3209
38257DOD     C358592   7.765  16.153  26.911 -0.1424 -0.3497 -0.0095
38258DOD     C158593  19.314  18.040  15.174 -0.1011 -0.2285 -0.0098
38258DOD     C258594  19.584  18.066  14.820  0.2124  0.1132 -0.0850
38258DOD     C358595  19.537  18.465  14.549  0.0227  0.2014  0.3991
38259DOD     C158596  28.812  21.476   2.654 -0.1172 -0.2048 -0.1899
38259DOD     C258597  28.376  21.633   2.675 -0.2343 -0.1621 -0.1336
38259DOD     C358598  27.964  21.474   2.499 -0.2610  0.2385  0.1613
38260DOD     C158599  19.184   4.422  20.597 -0.2466  0.0583 -0.1907
38260DOD     C258600  19.463   4.312  20.286 -0.1014 -0.1540 -0.1824
38260DOD     C358601  19.682   4.356  19.885 -0.0074 -0.1395  0.0645
38261DOD     C158602   4.419  14.106  23.137 -0.1913 -0.1267  0.0502
38261DOD     C258603   4.660  14.191  22.740  0.3165  0.1348  0.2107
38261DOD     C358604   4.890  13.929  22.452 -0.2742  0.1475 -0.3640
38262DOD     C158605  16.139   5.864  23.420 -0.1613  0.0798 -0.3621
38262DOD     C258606  15.962   5.489  23.473 -0.2323 -0.1727  0.1779
38262DOD     C358607  15.969   5.056  23.445 -0.0596 -0.0292 -0.0558
38263DOD     C158608  13.548  11.913  10.700  0.1597 -0.0850  0.1253
38263DOD     C258609  13.873  11.556  10.727  0.0613 -0.0700  0.1128
38263DOD     C358610  13.893  11.153  10.517  0.1426  0.1000 -0.1508
38264DOD     C158611  16.762  24.225  26.617 -0.2066 -0.1847 -0.0651
38264DOD     C258612  17.216  24.339  26.705  0.1161  0.0505  0.0106
38264DOD     C358613  17.651  24.198  26.868 -0.1938  0.3154  0.2112
38265DOD     C158614   2.785  28.999  15.223 -0.0266  0.0002 -0.2701
38265DOD     C258615   2.342  29.097  15.310  0.1420  0.1319  0.2086
38265DOD     C358616   2.035  29.420  15.413  0.0748 -0.0869  0.0280
38266DOD     C158617  11.020  28.856  10.124  0.0235 -0.0988 -0.3031
38266DOD     C258618  10.653  29.030  10.298 -0.0303 -0.0672 -0.0567
38266DOD     C358619  10.532  29.228  10.720  0.0879  0.1310 -0.1516
38267DOD     C158620  19.256  22.592  10.734  0.1705 -0.0464  0.1376
38267DOD     C258621  19.168  22.499  11.183  0.2363 -0.4020 -0.1015
38267DOD     C358622  18.991  22.567  11.563  0.0682 -0.2176  0.2615
38268DOD     C158623  12.059  22.351  25.029 -0.0407  0.1428 -0.1920
38268DOD     C258624  11.759  22.683  25.097 -0.0933 -0.0059 -0.1378
38268DOD     C358625  11.756  23.021  25.419  0.0162 -0.2365  0.1773
38269DOD     C158626  15.247  26.771  21.915  0.0167 -0.0686 -0.0117
38269DOD     C258627  15.615  26.434  21.796  0.0392  0.0117  0.0325
38269DOD     C358628  15.916  26.104  21.607 -0.2870  0.4238  0.0532
38270DOD     C158629  20.491  27.348   4.700  0.2526  0.1578  0.2298
38270DOD     C258630  20.501  27.663   4.967 -0.0140  0.1632  0.3871
38270DOD     C358631  20.329  27.676   5.428  0.0452 -0.2439 -0.1718
38271DOD     C158632   5.434  21.204  24.912 -0.1412 -0.3893 -0.2780
38271DOD     C258633   5.422  20.795  24.717  0.0606 -0.3433 -0.0815
38271DOD     C358634   5.288  20.358  24.530  0.0461 -0.0340  0.1260
38272DOD     C158635  18.978  10.450   9.443 -0.0789 -0.0223  0.1434
38272DOD     C258636  19.123  10.111   9.203  0.4056 -0.1658 -0.0340
38272DOD     C358637  18.996   9.663   9.048  0.1065  0.0545 -0.4734
38273DOD     C158638   8.495  18.319  11.290 -0.1963 -0.1653 -0.0343
38273DOD     C258639   8.495  18.369  10.846 -0.0061  0.3708  0.3408
38273DOD     C358640   8.591  18.268  10.446  0.2142  0.2031  0.0829
38274DOD     C158641  28.579  29.920  16.122 -0.0585 -0.0079  0.2513
38274DOD     C258642  28.260  29.846  15.737 -0.2980 -0.0376 -0.0810
38274DOD     C358643  27.903  30.039  15.545 -0.0049 -0.3307 -0.0949
38275DOD     C158644  15.624  14.422  21.984  0.0106 -0.1345  0.1042
38275DOD     C258645  15.155  14.374  22.148  0.0288 -0.0642  0.0198
38275DOD     C358646  14.798  14.298  22.413  0.1453 -0.0142 -0.0155
38276DOD     C158647  29.628  22.049  21.641  0.0874  0.1272  0.0430
38276DOD     C258648  29.775  22.006  22.043  0.0813  0.0106 -0.2660
38276DOD     C358649  29.859  22.012  22.502  0.2528 -0.3589  0.2259
38277DOD     C158650  24.215  29.606  21.573  0.1339  0.3179 -0.0072
38277DOD     C258651  23.913  29.202  21.709  0.0863 -0.0939  0.2300
38277DOD     C358652  23.785  28.773  21.886  0.0515 -0.1439  0.1333
38278DOD     C158653  29.393   5.404  19.762 -0.3414 -0.1480  0.1082
38278DOD     C258654  29.860   5.534  19.812 -0.1224 -0.1219 -0.1277
38278DOD     C358655  30.076   5.676  19.410 -0.0200 -0.1082 -0.3171
38279DOD     C158656   2.907  13.272  11.314 -0.0227 -0.3244 -0.2390
38279DOD     C258657   2.885  13.710  11.536 -0.2951  0.1438  0.1758
38279DOD     C358658   2.766  14.114  11.702  0.0362  0.2368 -0.1088
38280DOD     C158659  18.047  14.993   0.654  0.2008  0.2665  0.0633
38280DOD     C258660  17.990  15.406   0.698 -0.0390 -0.1273 -0.0698
38280DOD     C358661  18.233  15.787   0.555 -0.2977 -0.1996  0.0352
38281DOD     C158662   5.441   9.193  19.834  0.1138  0.2217  0.0357
38281DOD     C258663   5.654   8.815  19.688  0.1450  0.0917  0.1802
38281DOD     C358664   5.536   8.395  19.545 -0.0693 -0.1964  0.1698
38282DOD     C158665   4.423  16.670  11.500  0.2417  0.1637  0.5015
38282DOD     C258666   4.085  16.543  11.731 -0.0745 -0.0153 -0.3168
38282DOD     C358667   3.718  16.212  11.730  0.1478  0.1029  0.2176
38283DOD     C158668  26.471  11.062  25.569  0.2341 -0.1882  0.1089
38283DOD     C258669  26.794  11.167  25.283 -0.1100 -0.3373  0.4327
38283DOD     C358670  27.202  11.276  25.014 -0.1827  0.2934  0.0323
38284DOD     C158671   9.015  15.093  19.870 -0.1861 -0.3638 -0.2445
38284DOD     C258672   8.651  14.998  19.542 -0.0771  0.0556  0.1243
38284DOD     C358673   8.284  14.841  19.375  0.0754 -0.3590 -0.0954
38285DOD     C158674  19.763  15.424  29.174  0.1295 -0.1864 -0.1450
38285DOD     C258675  19.587  15.735  28.853  0.0242 -0.2841 -0.1003
38285DOD     C358676  19.517  15.637  28.363  0.3281  0.2886 -0.0410
38286DOD     C158677  19.193  20.275   4.827  0.1017  0.2902 -0.1738
38286DOD     C258678  19.140  20.510   5.210  0.2821  0.2083 -0.1660
38286DOD     C358679  19.066  20.741   5.620  0.0344  0.1469 -0.0246
38287DOD     C158680  21.716  12.307   7.745  0.3325 -0.2612  0.1498
38287DOD     C258681  21.838  12.358   7.308 -0.0091  0.0095  0.2230
38287DOD     C358682  21.927  12.226   6.830 -0.0429 -0.0511  0.1789
38288DOD     C158683  13.171   1.281  20.057  0.1155 -0.1848 -0.0883
38288DOD     C258684  12.972   1.709  20.203  0.0439  0.2766  0.3327
38288DOD     C358685  13.070   1.984  20.574  0.0862  0.0606 -0.3001
38289DOD     C158686   6.982   3.661  21.207  0.0068 -0.1116 -0.1944
38289DOD     C258687   6.914   4.114  21.403 -0.0567 -0.1008  0.1590
38289DOD     C358688   6.547   4.315  21.661 -0.1361 -0.4527 -0.0311
38290DOD     C158689   2.825  30.186   6.960 -0.1737  0.0726  0.1696
38290DOD     C258690   3.217  30.073   7.166 -0.1481  0.4162 -0.0009
38290DOD     C358691   3.413  29.728   7.422  0.2051  0.1503  0.0241
38291DOD     C158692   9.411  24.589  30.079  0.2397  0.1774 -0.2761
38291DOD     C258693   9.191  24.165  29.918 -0.0659  0.0670  0.0089
38291DOD     C358694   9.214  23.762  29.707  0.2509  0.1979 -0.1925
38292DOD     C158695  25.735  24.508  22.557  0.3385  0.1379  0.2343
38292DOD     C258696  25.619  24.394  22.966  0.0957  0.0318 -0.2187
38292DOD     C358697  25.472  24.049  23.262  0.2228  0.1006  0.0439
38293DOD     C158698  13.135  11.537  23.797 -0.2807 -0.0769  0.0094
38293DOD     C258699  12.721  11.336  23.676  0.2889  0.0050  0.0885
38293DOD     C358700  12.348  11.026  23.826 -0.0859 -0.2193  0.0261
38294DOD     C158701  25.363  18.954  23.082  0.0929 -0.0203  0.0549
38294DOD     C258702  25.408  18.630  22.698  0.0501 -0.2655  0.2044
38294DOD     C358703  25.053  18.490  22.465  0.0255  0.1382 -0.0330
38295DOD     C158704   5.138  22.295   9.567  0.1880 -0.0539  0.2576
38295DOD     C258705   4.824  22.406   9.272  0.0686 -0.0327  0.1103
38295DOD     C358706   4.554  22.057   9.071  0.1664 -0.2066  0.3364
38296DOD     C158707  27.927   4.494  19.423 -0.0636  0.2445  0.2194
38296DOD     C258708  28.055   4.839  19.679 -0.4240 -0.0228 -0.2879
38296DOD     C358709  28.179   5.198  19.933 -0.0481 -0.1592  0.1000
38297DOD     C158710  22.675  21.777  25.417 -0.0307  0.0542  0.1806
38297DOD     C258711  22.357  21.490  25.505  0.1740 -0.0818 -0.0603
38297DOD     C358712  22.222  21.266  25.897 -0.1204 -0.3350 -0.0270
38298DOD     C158713  14.077  21.029   5.612  0.0444 -0.3687 -0.0327
38298DOD     C258714  13.890  20.839   5.240 -0.1237  0.1018  0.1784
38298DOD     C358715  13.546  20.635   5.131  0.1461  0.1477 -0.1967
38299DOD     C158716  14.853  16.665   6.766  0.4599  0.2555 -0.3425
38299DOD     C258717  14.702  16.246   6.649  0.1134  0.2054  0.0989
38299DOD     C358718  14.854  15.758   6.558 -0.0847 -0.2624  0.2736
38300DOD     C158719  10.324  21.886  15.688  0.1607 -0.0649 -0.2172
38300DOD     C258720  10.328  22.405  15.694 -0.0250  0.0444 -0.0521
38300DOD     C358721  10.019  22.778  15.576  0.1903 -0.1092  0.0122
38301DOD     C158722  23.352  11.467  22.803 -0.0807  0.1040 -0.3276
38301DOD     C258723  23.533  11.810  22.551 -0.4239  0.1343  0.0183
38301DOD     C358724  23.960  11.898  22.521  0.2329 -0.1076  0.1683
38302DOD     C158725  23.105  10.029  28.754  0.3539 -0.2528 -0.1128
38302DOD     C258726  23.331   9.638  28.623  0.2718 -0.0692 -0.0467
38302DOD     C358727  23.526   9.206  28.643 -0.2381 -0.4046  0.2951
38303DOD     C158728  10.393  23.564  15.621 -0.1592 -0.1597  0.1087
38303DOD     C258729  10.811  23.565  15.505 -0.2197  0.1921  0.1660
38303DOD     C358730  11.127  23.835  15.620  0.2223  0.0699 -0.3885
38304DOD     C158731  19.506  19.483  25.652  0.0935 -0.1095 -0.0434
38304DOD     C258732  19.173  19.676  25.849  0.1022 -0.2363 -0.0193
38304DOD     C358733  19.012  19.687  26.265  0.0555  0.0858  0.1660
38305DOD     C158734  14.648   9.280  19.443 -0.1007  0.3515  0.0440
38305DOD     C258735  14.885   9.609  19.257 -0.1129 -0.0142  0.0978
38305DOD     C358736  15.223   9.613  18.955 -0.0317  0.1928 -0.0315
38306DOD     C158737  21.502  20.080   5.573 -0.1987 -0.1694  0.0326
38306DOD     C258738  21.924  19.943   5.293 -0.0145 -0.3071  0.0146
38306DOD     C358739  21.961  19.561   5.045  0.0767 -0.1426 -0.0742
38307DOD     C158740  21.311  20.272  19.891 -0.0545 -0.2619  0.1002
38307DOD     C258741  20.899  20.387  19.668  0.0278 -0.0131 -0.0898
38307DOD     C358742  20.475  20.192  19.557  0.2289  0.0854  0.0138
38308DOD     C158743  20.566  28.167  21.834 -0.0042 -0.0595 -0.1834
38308DOD     C258744  20.453  27.968  21.440 -0.1093  0.0798  0.1008
38308DOD     C358745  20.607  27.604  21.185 -0.0118  0.3313 -0.2161
38309DOD     C158746  29.584  19.432   1.084  0.0646 -0.2116  0.3931
38309DOD     C258747  29.217  19.724   1.010  0.0413  0.0365 -0.1425
38309DOD     C358748  28.831  19.732   0.803 -0.1155  0.1093  0.3014
38310DOD     C158749   5.555  19.191   7.541  0.1567  0.0105 -0.0421
38310DOD     C258750   5.177  19.037   7.330  0.5118  0.4941  0.4005
38310DOD     C358751   4.675  18.987   7.294 -0.2627  0.0168 -0.1798
38311DOD     C158752  19.537   2.296  26.386 -0.0834 -0.0473 -0.1896
38311DOD     C258753  19.825   1.950  26.145  0.2888  0.1190 -0.0643
38311DOD     C358754  20.008   1.476  26.229  0.0028  0.3249  0.1630
38312DOD     C158755  17.750  19.080  27.719  0.1337  0.0691 -0.0269
38312DOD     C258756  17.470  19.480  27.677 -0.0166 -0.0277 -0.0611
38312DOD     C358757  17.465  19.831  27.935  0.0526 -0.1304  0.0273
38313DOD     C158758  15.441   7.501  12.183  0.0578 -0.0065 -0.1239
38313DOD     C258759  15.007   7.709  12.096 -0.1398 -0.0854 -0.1258
38313DOD     C358760  14.842   8.123  11.869 -0.1850 -0.0981 -0.0818
38314DOD     C158761   1.514   5.435  21.359 -0.0721  0.0906  0.1084
38314DOD     C258762   1.588   5.563  20.987 -0.0860  0.1342  0.2651
38314DOD     C358763   1.283   5.571  20.633 -0.1613  0.1329  0.0832
38315DOD     C158764  22.135   1.670   5.131  0.3343  0.0320  0.1307
38315DOD     C258765  22.162   1.250   5.322 -0.0527  0.1779 -0.1749
38315DOD     C358766  22.486   0.951   5.509 -0.0528  0.0573 -0.0992
38316DOD     C158767  19.217  26.994  11.554  0.2299  0.3093 -0.0673
38316DOD     C258768  19.412  26.644  11.315 -0.2712  0.2193 -0.3002
38316DOD     C358769  19.871  26.619  11.251  0.1391 -0.0604 -0.2525
38317DOD     C158770  14.710  21.003  14.842 -0.2310 -0.2129 -0.1338
38317DOD     C258771  15.082  21.184  14.615  0.2133  0.1069 -0.0409
38317DOD     C358772  15.539  21.209  14.526  0.2032 -0.0290 -0.1801
38318DOD     C158773  17.889  23.225  21.050 -0.0014 -0.0040 -0.0188
38318DOD     C258774  18.214  23.176  20.722 -0.0760 -0.0641  0.1847
38318DOD     C358775  18.509  23.018  20.368  0.0170  0.2534  0.2018
38319DOD     C158776   1.317  11.786  14.891  0.2515  0.0992  0.1583
38319DOD     C258777   1.736  11.519  14.991 -0.0175 -0.0995 -0.0326
38319DOD     C358778   2.115  11.225  14.979 -0.4014  0.1292  0.0606
38320DOD     C158779  10.433  26.994  13.107 -0.0924 -0.2722 -0.1607
38320DOD     C258780  10.016  27.011  12.868  0.0395  0.1903 -0.3794
38320DOD     C358781   9.574  26.785  12.857  0.0522  0.2654  0.1319
38321DOD     C158782  15.753   0.212  21.757  0.0080 -0.2034 -0.0013
38321DOD     C258783  16.125  30.234  21.648  0.0951 -0.1570  0.0760
38321DOD     C358784  16.411  29.900  21.523 -0.1812 -0.0313  0.0267
38322DOD     C158785  16.231  29.482   2.959 -0.1391 -0.3555 -0.0496
38322DOD     C258786  16.152  29.469   2.533  0.1042  0.0531  0.0999
38322DOD     C358787  16.019  29.365   2.085  0.3287 -0.0830 -0.1337
38323DOD     C158788  11.339  20.576  22.770  0.4125 -0.2545 -0.0629
38323DOD     C258789  11.435  20.583  23.256 -0.0860  0.0201 -0.0511
38323DOD     C358790  11.848  20.746  23.403 -0.0994  0.0627 -0.1872
38324DOD     C158791   8.095  26.553   0.648 -0.0124  0.1266 -0.2898
38324DOD     C258792   7.954  26.716   0.278 -0.3271  0.1947  0.1088
38324DOD     C358793   7.835  27.162   0.045  0.2733 -0.1789 -0.0203
38325DOD     C158794  19.529  24.249  14.485  0.0675 -0.0690 -0.2301
38325DOD     C258795  19.277  24.590  14.705  0.0755 -0.2992 -0.0158
38325DOD     C358796  18.911  24.917  14.731 -0.1441  0.4273  0.1763
38326DOD     C158797   7.650  14.014  29.668  0.1746 -0.4742  0.1158
38326DOD     C258798   8.006  14.311  29.565  0.1098  0.1578  0.0222
38326DOD     C358799   8.183  14.633  29.289 -0.0629  0.0448  0.0552
38327DOD     C158800  28.088   4.733  13.223  0.1287 -0.0919  0.0518
38327DOD     C258801  28.490   4.574  13.264 -0.1304  0.1446  0.1118
38327DOD     C358802  28.763   4.225  13.432  0.1852 -0.1706 -0.0017
38328DOD     C158803  23.934   2.318   3.954 -0.0917  0.0996  0.2066
38328DOD     C258804  23.729   1.975   4.227  0.1208 -0.0293 -0.1821
38328DOD     C358805  23.592   1.463   4.154  0.2825  0.0856 -0.0415
38329DOD     C158806  20.698   0.516  24.879  0.1864  0.0800 -0.2639
38329DOD     C258807  20.846   0.778  24.479  0.1123 -0.2127  0.1516
38329DOD     C358808  21.089   1.083  24.158  0.2810 -0.1446  0.3216
38330DOD     C158809  19.532  26.561  24.692 -0.3274  0.0805 -0.3101
38330DOD     C258810  19.784  26.599  24.263 -0.3536 -0.1722  0.1804
38330DOD     C358811  20.130  26.459  23.978  0.4027 -0.2916 -0.2057
38331DOD     C158812  27.315  28.409  12.316  0.0296 -0.0198  0.1688
38331DOD     C258813  27.004  28.168  12.135 -0.2055 -0.1213  0.3913
38331DOD     C358814  26.836  27.846  11.804  0.1522 -0.0224  0.0599
38332DOD     C158815  27.030  14.512   9.278  0.4581  0.0271 -0.1568
38332DOD     C258816  26.945  14.952   9.076  0.1226  0.1050  0.2042
38332DOD     C358817  27.013  15.326   8.815  0.0050 -0.0822  0.0766
38333DOD     C158818  16.624  23.672  25.371 -0.2356  0.1655 -0.0654
38333DOD     C258819  16.174  23.883  25.439  0.1569 -0.0841  0.1538
38333DOD     C358820  15.823  23.810  25.800 -0.1335  0.0174  0.3159
38334DOD     C158821  12.376   4.509  13.196 -0.0158  0.1689  0.0636
38334DOD     C258822  12.527   4.053  13.099  0.0548 -0.0521  0.0567
38334DOD     C358823  12.744   3.659  13.232  0.1982 -0.1193  0.0679
38335DOD     C158824  17.518   0.924  30.046  0.1195 -0.1140 -0.0113
38335DOD     C258825  17.880   1.131  29.861 -0.1387  0.0097  0.2507
38335DOD     C358826  17.941   1.528  29.651 -0.1373  0.1203 -0.0531
38336DOD     C158827  22.227  22.004  20.666 -0.2327 -0.1832 -0.1858
38336DOD     C258828  21.799  22.144  20.709  0.0330  0.0437 -0.1500
38336DOD     C358829  21.429  22.187  21.044 -0.1246 -0.4543 -0.1124
38337DOD     C158830  13.663  15.072   2.556  0.2753  0.0641 -0.1592
38337DOD     C258831  13.792  15.353   2.198  0.0568  0.2689  0.1192
38337DOD     C358832  13.831  15.807   1.973  0.2024 -0.3519  0.0463
38338DOD     C158833  16.338  16.878  21.379 -0.2478 -0.1888 -0.1122
38338DOD     C258834  16.032  16.691  21.672 -0.2605 -0.0123 -0.3826
38338DOD     C358835  15.677  16.445  21.749 -0.2042  0.0104  0.0562
38339DOD     C158836   8.606   9.191  22.681  0.0698  0.1274  0.0265
38339DOD     C258837   8.924   9.203  23.071  0.0311 -0.0518  0.0765
38339DOD     C358838   9.058   8.953  23.483  0.1489 -0.1818  0.1919
38340DOD     C158839  21.383  17.789   3.337  0.1011  0.2206  0.3497
38340DOD     C258840  21.291  17.513   3.684  0.2045 -0.3675 -0.0668
38340DOD     C358841  20.932  17.262   3.827  0.2334  0.0792 -0.0353
38341DOD     C158842  28.494  14.401  17.456 -0.1390 -0.0817 -0.1442
38341DOD     C258843  28.064  14.181  17.315 -0.1162  0.1746 -0.0478
38341DOD     C358844  27.814  13.859  17.258  0.0615  0.0257 -0.2383
38342DOD     C158845  24.587  13.941   1.184  0.0225 -0.3366 -0.0273
38342DOD     C258846  24.904  13.892   1.529  0.0185 -0.3975  0.0798
38342DOD     C358847  25.225  13.823   1.851 -0.3867  0.0550  0.3633
38343DOD     C158848   5.730  11.135   4.240  0.0923  0.3455  0.2906
38343DOD     C258849   5.369  10.836   4.107 -0.1982  0.0957 -0.0867
38343DOD     C358850   4.886  10.833   4.060  0.1496 -0.2054 -0.0644
38344DOD     C158851  20.748   8.044   6.226 -0.0703  0.1702 -0.0156
38344DOD     C258852  20.426   8.249   6.111 -0.1157 -0.1451 -0.0849
38344DOD     C358853  19.990   8.385   5.895  0.0058 -0.0544  0.2713
38345DOD     C158854  16.701   3.620  18.999 -0.0812  0.3732  0.0719
38345DOD     C258855  16.445   3.882  19.273  0.0287  0.0326 -0.1204
38345DOD     C358856  16.224   4.033  19.678  0.0368  0.0635  0.0156
38346DOD     C158857   4.657   0.941  14.420 -0.1236 -0.0376 -0.1807
38346DOD     C258858   4.847   1.350  14.589 -0.0093 -0.0746 -0.0981
38346DOD     C358859   4.677   1.776  14.719 -0.3371 -0.0542 -0.0526
38347DOD     C158860  24.360  12.515  14.452  0.2243 -0.0254 -0.1748
38347DOD     C258861  24.177  12.735  14.804  0.1467  0.0904  0.1902
38347DOD     C358862  24.231  12.889  15.196  0.0157  0.0396 -0.1416
38348DOD     C158863  17.700  12.771  13.023  0.0851  0.2533 -0.1063
38348DOD     C258864  17.369  12.842  12.779  0.2473  0.1308  0.2093
38348DOD     C358865  16.988  12.627  12.560  0.0039  0.1342  0.0650
38349DOD     C158866  10.425   6.662   2.595  0.0906 -0.2500  0.0753
38349DOD     C258867  10.551   6.496   2.948 -0.0961  0.1336  0.0829
38349DOD     C358868  10.657   6.085   3.117 -0.0098  0.1567  0.0215
38350DOD     C158869  20.724   6.588  21.366  0.1352  0.2764 -0.3207
38350DOD     C258870  21.111   6.457  21.584 -0.1826 -0.1980  0.0138
38350DOD     C358871  21.594   6.424  21.673 -0.2428  0.1302  0.1906
38351DOD     C158872   2.174  12.317  11.666  0.0389  0.2883  0.0363
38351DOD     C258873   2.217  12.480  12.131 -0.0106  0.2263  0.0019
38351DOD     C358874   2.325  12.488  12.580  0.0301 -0.0735  0.0624
38352DOD     C158875   7.073   0.791  26.116  0.3892  0.1745 -0.1983
38352DOD     C258876   7.191   0.319  26.066 -0.0270 -0.0604 -0.0284
38352DOD     C358877   7.258  30.159  26.037  0.0657 -0.0781 -0.0637
38353DOD     C158878  14.685   9.272  12.776 -0.2413 -0.2724  0.4236
38353DOD     C258879  14.738   9.597  12.400  0.0519 -0.3806  0.0297
38353DOD     C358880  14.424   9.770  12.100  0.1186 -0.1560  0.0021
38354DOD     C158881  17.688   9.832  26.920  0.3124  0.2956  0.0444
38354DOD     C258882  18.106   9.747  27.015 -0.4095 -0.2472 -0.0150
38354DOD     C358883  18.491   9.676  26.833 -0.0709 -0.2416  0.0066
38355DOD     C158884  13.872  15.685  27.111  0.1290 -0.0251  0.0140
38355DOD     C258885  13.555  15.291  26.928  0.2135  0.1815  0.1311
38355DOD     C358886  13.406  14.862  26.791 -0.0927  0.0292  0.0760
38356DOD     C158887  17.470  14.187  17.996 -0.3276  0.2058 -0.0851
38356DOD     C258888  17.664  13.792  17.990  0.0160  0.0575 -0.0342
38356DOD     C358889  17.431  13.450  18.011 -0.1369 -0.4502 -0.3670
38357DOD     C158890  25.714  22.282  20.207 -0.2219 -0.4205 -0.0012
38357DOD     C258891  25.774  22.482  19.827 -0.0542  0.0017 -0.1142
38357DOD     C358892  25.679  22.706  19.400  0.0719 -0.0193 -0.0812
38358DOD     C158893   8.508  27.028   9.768  0.2086  0.1431  0.0386
38358DOD     C258894   8.557  27.483   9.892 -0.0116  0.1921 -0.3096
38358DOD     C358895   8.634  27.917   9.964 -0.0740 -0.1299 -0.2115
38359DOD     C158896   8.196  19.604  21.173 -0.0849  0.0993  0.1344
38359DOD     C258897   7.942  19.319  20.877  0.1857  0.0363 -0.2773
38359DOD     C358898   8.041  19.138  20.448  0.0195 -0.0376 -0.0104
38360DOD     C158899   1.509  23.356  23.732  0.2355 -0.0326  0.0489
38360DOD     C258900   1.438  23.346  24.201 -0.0866  0.0491 -0.2331
38360DOD     C358901   1.569  23.388  24.683  0.0017 -0.2373 -0.1923
38361DOD     C158902  29.066  14.641  23.722 -0.0280  0.1475  0.0201
38361DOD     C258903  28.915  14.418  24.065  0.0307  0.0291  0.0352
38361DOD     C358904  28.834  14.008  24.249  0.1493 -0.1826  0.1377
38362DOD     C158905  19.851  12.690  23.044  0.2789  0.2512 -0.1228
38362DOD     C258906  19.774  12.370  23.376  0.1223 -0.2261  0.4525
38362DOD     C358907  19.815  11.908  23.378 -0.0640 -0.0653  0.1048
38363DOD     C158908   3.408   1.374   5.996 -0.2695  0.1109  0.0374
38363DOD     C258909   3.769   1.079   5.794 -0.0176 -0.0097 -0.0927
38363DOD     C358910   4.133   0.902   5.626  0.2622 -0.3909 -0.3488
38364DOD     C158911  22.389   6.335   1.110  0.2805 -0.2285  0.0759
38364DOD     C258912  22.000   6.059   1.006 -0.3067 -0.2179 -0.1154
38364DOD     C358913  21.555   5.882   1.126 -0.1476 -0.1224  0.1288
38365DOD     C158914  11.383  17.652  23.976 -0.0659  0.1478  0.2620
38365DOD     C258915  11.692  17.897  24.188  0.2768 -0.2184 -0.2019
38365DOD     C358916  11.982  18.091  24.541 -0.0772 -0.1929  0.1991
38366DOD     C158917  11.293  19.420  25.531 -0.2001  0.0708  0.1652
38366DOD     C258918  11.219  19.595  26.005 -0.0722 -0.0828 -0.1192
38366DOD     C358919  11.007  19.907  26.281 -0.0411 -0.1641 -0.2942
38367DOD     C158920   2.335  19.270  29.205  0.1350 -0.1512 -0.0704
38367DOD     C258921   2.496  19.532  29.583  0.1897  0.0010  0.1283
38367DOD     C358922   2.593  19.703  29.980 -0.1811  0.0672 -0.0922
38368DOD     C158923   5.615  28.095  25.786 -0.0141  0.0072  0.1680
38368DOD     C258924   5.253  28.229  25.450 -0.1099 -0.0974 -0.3054
38368DOD     C358925   5.141  28.500  25.038 -0.3438  0.2339  0.0796
38369DOD     C158926  29.779  17.352   6.842 -0.2452 -0.0141 -0.1721
38369DOD     C258927  29.776  17.173   7.273  0.2580  0.0842  0.1446
38369DOD     C358928  30.010  16.802   7.412 -0.1909 -0.0195  0.1569
38370DOD     C158929  11.694   4.053  16.527  0.1924 -0.0593  0.0592
38370DOD     C258930  11.894   3.698  16.411  0.1795 -0.0796  0.1446
38370DOD     C358931  12.008   3.251  16.433 -0.0898  0.0732 -0.0095
38371DOD     C158932  26.018  12.606  20.643 -0.0556  0.1394  0.0399
38371DOD     C258933  25.960  13.061  20.450 -0.2949  0.0482  0.0037
38371DOD     C358934  25.748  13.437  20.431 -0.3414  0.0880 -0.1541
38372DOD     C158935  22.116  27.555  23.154 -0.1367 -0.2299 -0.2127
38372DOD     C258936  22.386  27.207  23.066  0.1777  0.0202  0.2054
38372DOD     C358937  22.560  26.790  23.058  0.1661  0.2110  0.0297
38373DOD     C158938  25.356   7.388  13.395 -0.0393 -0.0128 -0.1526
38373DOD     C258939  25.010   7.144  13.284  0.0484  0.0586  0.0383
38373DOD     C358940  24.604   7.303  13.393  0.1575 -0.0028  0.4886
38374DOD     C158941  17.944  11.529  11.571  0.3238 -0.1888 -0.0858
38374DOD     C258942  18.271  11.846  11.611  0.0282  0.0263  0.1419
38374DOD     C358943  18.715  11.978  11.549  0.0727  0.2057 -0.1732
38375DOD     C158944  17.456   2.893   0.951 -0.4806  0.0195 -0.3234
38375DOD     C258945  17.290   3.233   1.284  0.4125 -0.2222  0.3996
38375DOD     C358946  17.576   3.539   1.401 -0.1418  0.0896 -0.0872
38376DOD     C158947  11.190  10.410   7.207  0.2013 -0.0375 -0.0230
38376DOD     C258948  10.849  10.148   7.013  0.1171 -0.0392 -0.1480
38376DOD     C358949  10.754   9.771   6.820  0.2748 -0.4463  0.1621
38377DOD     C158950  14.096  20.717  20.665 -0.2061 -0.1549  0.3337
38377DOD     C258951  14.117  20.270  20.873 -0.2870  0.1000  0.0349
38377DOD     C358952  14.325  19.888  20.987  0.0489  0.1022 -0.1845
38378DOD     C158953   7.176  29.196   8.154  0.2408 -0.0984 -0.1384
38378DOD     C258954   6.804  29.481   8.293  0.0077  0.1869  0.4149
38378DOD     C358955   6.368  29.452   8.125 -0.1500 -0.2355  0.1401
38379DOD     C158956   9.497  15.350  19.128  0.0918  0.0863  0.2720
38379DOD     C258957   9.090  15.516  18.886  0.2305  0.0571 -0.1813
38379DOD     C358958   8.735  15.763  18.625 -0.2293  0.2746 -0.0719
38380DOD     C158959  28.676   7.726   0.283 -0.2103 -0.1296 -0.1111
38380DOD     C258960  29.101   7.610   0.427 -0.0362 -0.2774 -0.2215
38380DOD     C358961  29.454   7.382   0.604  0.0834 -0.0718 -0.4427
38381DOD     C158962   9.308  25.093  20.010  0.1357  0.0933  0.2291
38381DOD     C258963   8.996  25.328  20.267  0.0036  0.0121  0.0537
38381DOD     C358964   8.808  25.581  20.574 -0.0170 -0.0670 -0.0937
38382DOD     C158965  16.248  12.673  18.975  0.1644  0.0351 -0.2035
38382DOD     C258966  16.501  12.691  19.331 -0.1976  0.1771 -0.2348
38382DOD     C358967  16.848  12.588  19.578 -0.4583 -0.1789 -0.0054
38383DOD     C158968  10.828  30.068  21.045  0.1749 -0.1626  0.2406
38383DOD     C258969  10.815  29.588  21.089  0.3661  0.0344 -0.2297
38383DOD     C358970  11.100  29.239  21.154 -0.2294  0.3044  0.0388
38384DOD     C158971   1.303  10.862  27.196 -0.1961 -0.0492 -0.2450
38384DOD     C258972   1.165  10.963  27.625 -0.0573  0.0391 -0.0869
38384DOD     C358973   1.412  10.941  28.013 -0.1626 -0.0699 -0.2609
38385DOD     C158974   5.132  22.608   7.581  0.1233 -0.3510  0.2998
38385DOD     C258975   5.599  22.684   7.459  0.0718 -0.0332 -0.0422
38385DOD     C358976   6.003  22.954   7.441 -0.0678 -0.0853  0.2301
38386DOD     C158977   5.718  23.828  16.101  0.1115 -0.0123  0.0984
38386DOD     C258978   5.828  23.633  15.694  0.1148  0.0529 -0.1215
38386DOD     C358979   6.072  23.262  15.574 -0.0859  0.3677  0.0396
38387DOD     C158980  28.556  11.814  26.722  0.3223 -0.2201  0.2716
38387DOD     C258981  28.591  12.259  26.533 -0.0790 -0.1001  0.2305
38387DOD     C358982  28.995  12.495  26.423  0.2299  0.0617  0.1913
38388DOD     C158983   9.221   3.965  14.615 -0.1166 -0.0412 -0.1947
38388DOD     C258984   9.065   3.571  14.426 -0.2432 -0.3864 -0.3998
38388DOD     C358985   9.091   3.125  14.458  0.2733 -0.0210 -0.0152
38389DOD     C158986  15.794   3.263  27.720 -0.1511  0.0948  0.0451
38389DOD     C258987  15.467   2.948  27.600 -0.0267 -0.1620  0.0616
38389DOD     C358988  15.094   2.621  27.605 -0.0365  0.1570  0.1305
38390DOD     C158989  29.724  18.421   6.761 -0.1736 -0.1041  0.2380
38390DOD     C258990  29.366  18.504   7.078 -0.1581  0.1581  0.1106
38390DOD     C358991  29.245  18.665   7.501 -0.0782  0.1138 -0.0893
38391DOD     C158992  22.077   0.144   2.861  0.0597  0.2356  0.0180
38391DOD     C258993  22.144   0.550   2.747 -0.1764  0.0237  0.0053
38391DOD     C358994  22.454   0.910   2.887 -0.2686 -0.1068 -0.3068
38392DOD     C158995   6.693   8.617  19.854 -0.3408 -0.1100 -0.1572
38392DOD     C258996   6.435   8.343  19.560  0.0428  0.6915 -0.0718
38392DOD     C358997   6.236   8.251  19.112 -0.1179  0.1489  0.1026
38393DOD     C158998   1.762  14.334   0.494  0.3419  0.0799 -0.0746
38393DOD     C258999   1.650  14.060   0.866  0.3319 -0.1035  0.1338
38393DOD     C359000   1.813  13.646   0.964  0.0309 -0.0581  0.0581
38394DOD     C159001  25.327  24.639  13.049  0.0420 -0.3728  0.1645
38394DOD     C259002  25.132  25.066  12.845  0.0345  0.2561 -0.1686
38394DOD     C359003  24.844  25.450  12.901  0.1693 -0.0478 -0.2840
38395DOD     C159004   6.367   8.276  26.631 -0.1843  0.1811  0.1258
38395DOD     C259005   5.942   8.489  26.549 -0.2153 -0.0006 -0.2675
38395DOD     C359006   5.907   8.970  26.571 -0.1793 -0.0611  0.1972
38396DOD     C159007  13.541  20.253   3.658 -0.3473 -0.0973  0.1018
38396DOD     C259008  13.239  19.913   3.485 -0.1781  0.2391  0.1493
38396DOD     C359009  12.826  19.819   3.242 -0.0556  0.1997  0.1096
38397DOD     C159010  18.125   9.161  24.292  0.0169 -0.1172  0.1728
38397DOD     C259011  18.455   9.481  24.387 -0.3824 -0.0259  0.1298
38397DOD     C359012  18.782   9.782  24.215  0.1104  0.0440 -0.2723
38398DOD     C159013   2.705  22.354  27.579  0.1848 -0.0490 -0.0500
38398DOD     C259014   2.400  22.312  27.946  0.1273 -0.2032  0.0886
38398DOD     C359015   2.675  21.956  28.184 -0.0862  0.0505  0.1240
38399DOD     C159016  15.299   6.292   8.724  0.1202 -0.1387 -0.0713
38399DOD     C259017  15.059   6.566   8.918  0.0529  0.0035  0.1038
38399DOD     C359018  15.021   6.936   9.201 -0.1738  0.0718  0.1304
38400DOD     C159019   5.416   5.622  15.481  0.0614 -0.0057 -0.0277
38400DOD     C259020   5.238   5.488  15.040  0.0140  0.0229  0.2841
38400DOD     C359021   5.222   5.786  14.660 -0.0506  0.1418 -0.1892
38401DOD     C159022  11.269   3.164  23.461 -0.0387  0.2613 -0.0471
38401DOD     C259023  11.100   2.830  23.142 -0.0882 -0.1880  0.1372
38401DOD     C359024  10.922   2.866  22.705 -0.1905 -0.0454  0.0272
38402DOD     C159025  22.716  19.962  29.651 -0.1366 -0.0179 -0.1775
38402DOD     C259026  22.869  20.402  29.677 -0.0579  0.0590 -0.0337
38402DOD     C359027  23.125  20.636  30.017 -0.1476  0.0493  0.1385
38403DOD     C159028  29.821  11.176  18.768 -0.0729  0.1718  0.2477
38403DOD     C259029  30.027  10.791  18.806 -0.4405  0.1362  0.3157
38403DOD     C359030   0.195  10.796  18.706  0.3319 -0.2486 -0.0330
38404DOD     C159031  17.875  15.865   2.529  0.1067  0.2748 -0.0379
38404DOD     C259032  17.978  16.290   2.512  0.0225  0.1699 -0.0872
38404DOD     C359033  18.324  16.619   2.508 -0.2778  0.0517 -0.2307
38405DOD     C159034  27.838  12.728   7.555 -0.2144  0.0309  0.0024
38405DOD     C259035  27.761  12.425   7.238 -0.1846 -0.1238  0.0572
38405DOD     C359036  27.594  12.198   6.909 -0.0351  0.0696 -0.1085
38406DOD     C159037  15.404  11.394  13.500  0.0227 -0.2440 -0.0144
38406DOD     C259038  15.155  11.416  13.128 -0.0610 -0.0508  0.4210
38406DOD     C359039  14.832  11.473  12.777 -0.0732  0.0839  0.0929
38407DOD     C159040   4.847  27.016   0.722 -0.1865  0.2361 -0.0425
38407DOD     C259041   4.616  27.179   1.171 -0.0092 -0.1338  0.6745
38407DOD     C359042   4.411  27.434   1.489 -0.0421  0.0668 -0.1382
38408DOD     C159043   3.987  26.443  20.593  0.1381 -0.0840  0.1433
38408DOD     C259044   4.326  26.261  20.377 -0.1073 -0.0544 -0.0679
38408DOD     C359045   4.714  26.096  20.132 -0.0238  0.0014 -0.2567
38409DOD     C159046  30.252  24.265   2.727  0.1157 -0.0431  0.2556
38409DOD     C259047   0.331  24.133   3.022 -0.2361 -0.2478  0.3915
38409DOD     C359048   0.722  23.931   3.107  0.3125 -0.0354 -0.2554
38410DOD     C159049  20.932  18.271  13.148  0.1123 -0.0712  0.3200
38410DOD     C259050  21.308  18.188  13.326 -0.0004 -0.0604  0.0145
38410DOD     C359051  21.757  18.006  13.371 -0.0845  0.2039 -0.3702
38411DOD     C159052  23.376  18.127   6.401  0.0241  0.1614 -0.1483
38411DOD     C259053  23.658  18.209   6.054  0.0328 -0.5008 -0.0515
38411DOD     C359054  23.729  18.380   5.664 -0.0630  0.3126  0.1635
38412DOD     C159055  12.686   3.930  25.619 -0.0517 -0.0361 -0.2881
38412DOD     C259056  12.774   4.082  25.150  0.3304  0.1517  0.0395
38412DOD     C359057  12.918   3.914  24.761  0.0813 -0.2021 -0.2210
38413DOD     C159058   1.661  24.084  18.330 -0.0437  0.0505  0.0800
38413DOD     C259059   1.453  24.444  18.070  0.0240  0.0078 -0.1059
38413DOD     C359060   1.315  24.778  17.739  0.1238 -0.1181  0.0978
38414DOD     C159061   5.791  28.584   0.926  0.3061 -0.0098  0.1075
38414DOD     C259062   5.800  28.312   1.291  0.3585 -0.1197 -0.2397
38414DOD     C359063   5.742  28.162   1.749 -0.0432  0.3536 -0.2062
38415DOD     C159064  16.370  16.866   3.450 -0.1764  0.4118 -0.0127
38415DOD     C259065  16.181  16.639   3.856  0.1542  0.1158 -0.1203
38415DOD     C359066  16.222  16.291   4.227 -0.1989 -0.0269  0.2107
38416DOD     C159067  30.010   2.712   2.371  0.0229  0.0287  0.3668
38416DOD     C259068  30.000   2.324   2.526  0.0111  0.0554  0.0299
38416DOD     C359069  30.099   1.885   2.691  0.1735 -0.0065 -0.3250
38417DOD     C159070  11.081   1.392   6.759 -0.1068  0.0856 -0.2266
38417DOD     C259071  11.186   1.516   7.197 -0.0723  0.2537  0.0262
38417DOD     C359072  11.426   1.781   7.497  0.1158 -0.1176  0.1642
38418DOD     C159073  13.713  13.032  20.849 -0.2464 -0.0852  0.0149
38418DOD     C259074  13.278  12.972  20.672 -0.1735  0.0018 -0.0559
38418DOD     C359075  12.824  12.939  20.761  0.2303 -0.1773  0.1379
38419DOD     C159076   3.818   3.110   7.496  0.0119  0.0548 -0.2005
38419DOD     C259077   4.313   3.093   7.200 -0.0246  0.0929  0.2013
38419DOD     C359078   4.736   3.014   7.430 -0.0520 -0.0152 -0.1612
38420DOD     C159079   4.581  15.697   6.833 -0.1551 -0.3253  0.0841
38420DOD     C259080   5.008  15.586   6.789 -0.1036 -0.3232 -0.0908
38420DOD     C359081   5.458  15.714   6.710 -0.3970  0.0416 -0.0913
38421DOD     C159082  11.051   1.238  21.135 -0.0741 -0.3549  0.1368
38421DOD     C259083  10.967   0.777  21.285  0.1424 -0.0635  0.0917
38421DOD     C359084  10.886   0.333  21.151 -0.0211 -0.3585  0.1904
38422DOD     C159085  12.330  24.622   4.341 -0.3649 -0.2109  0.2788
38422DOD     C259086  12.235  24.189   4.293  0.1476 -0.0122 -0.4538
38422DOD     C359087  12.163  23.747   4.446  0.0958  0.0487 -0.0987
38423DOD     C159088  21.212  19.543  11.428  0.1679 -0.2393  0.0129
38423DOD     C259089  20.790  19.529  11.256  0.0730 -0.4732 -0.1909
38423DOD     C359090  20.522  19.189  10.970 -0.0627 -0.1229 -0.0558
38424DOD     C159091  22.880  11.138   6.000 -0.2025  0.0687  0.0050
38424DOD     C259092  22.431  11.191   6.066 -0.1158  0.1944 -0.0909
38424DOD     C359093  22.104  11.547   6.153 -0.0265 -0.0755  0.1333
38425DOD     C159094  22.722  18.783  14.140  0.3135  0.0602 -0.0463
38425DOD     C259095  22.529  18.675  13.704 -0.1948 -0.4044 -0.1609
38425DOD     C359096  22.070  18.682  13.509 -0.0827 -0.2660 -0.0273
38426DOD     C159097   4.373  13.532  21.166 -0.1368  0.2251 -0.2497
38426DOD     C259098   4.695  13.445  20.826  0.0398  0.3239  0.0068
38426DOD     C359099   4.654  13.293  20.377  0.2436 -0.2043  0.5033
38427DOD     C159100  30.284   9.781  21.100  0.2861  0.0845 -0.2425
38427DOD     C259101  29.916  10.025  20.891  0.2022 -0.2156 -0.1680
38427DOD     C359102  29.936  10.394  20.542 -0.2376 -0.1385 -0.1212
38428DOD     C159103   9.243   8.712  10.464  0.1625 -0.2895  0.2202
38428DOD     C259104   9.654   8.798  10.331  0.0990  0.2984  0.1793
38428DOD     C359105   9.767   9.150  10.094 -0.0273 -0.1747 -0.0675
38429DOD     C159106   0.209   0.365   9.675 -0.2233  0.1669 -0.0632
38429DOD     C259107  30.257   0.626   9.958 -0.1344  0.2810 -0.0152
38429DOD     C359108  30.129   0.622  10.437  0.2505  0.2939 -0.0320
38430DOD     C159109  17.472  18.831  21.993 -0.1698  0.3219 -0.1870
38430DOD     C259110  17.527  18.763  21.540 -0.2161 -0.0605  0.0229
38430DOD     C359111  17.658  18.535  21.151 -0.1376  0.1387 -0.1545
38431DOD     C159112   2.278  15.682  16.079 -0.0457 -0.0841  0.1124
38431DOD     C259113   2.648  15.471  15.947 -0.0407 -0.2029 -0.0277
38431DOD     C359114   2.970  15.201  15.751  0.4366  0.2963 -0.1923
38432DOD     C159115   6.416  21.875  20.793  0.1075 -0.0917  0.3538
38432DOD     C259116   6.339  22.327  20.646  0.0078  0.0593 -0.0665
38432DOD     C359117   6.264  22.649  20.292 -0.0643 -0.2651  0.2885
38433DOD     C159118   9.341  11.879   9.583  0.2001  0.1917  0.1786
38433DOD     C259119   9.131  11.974   9.179  0.2890 -0.2794 -0.0095
38433DOD     C359120   8.806  11.774   8.855 -0.0132 -0.2313 -0.2433
38434DOD     C159121   0.027  15.710  18.777 -0.2540 -0.1116 -0.0367
38434DOD     C259122   0.397  15.894  19.090  0.2404  0.2494  0.1572
38434DOD     C359123   0.638  16.085  19.454  0.2448  0.0136  0.2349
38435DOD     C159124  18.449   7.094   8.358  0.1100 -0.1465 -0.1901
38435DOD     C259125  18.579   7.028   7.950 -0.0646  0.1417  0.1099
38435DOD     C359126  18.598   7.211   7.489 -0.0953 -0.0975  0.1708
38436DOD     C159127  10.127  29.622  11.535  0.1876  0.0388  0.1480
38436DOD     C259128  10.403  29.335  11.793  0.0943 -0.0918  0.1199
38436DOD     C359129  10.803  29.165  12.087  0.0158  0.0449  0.2279
38437DOD     C159130   0.987  14.551  18.760 -0.3900 -0.1150 -0.2772
38437DOD     C259131   1.276  14.876  18.684 -0.2081  0.0998 -0.1442
38437DOD     C359132   1.688  15.072  18.787 -0.4704 -0.0780  0.2700
38438DOD     C159133  21.623  25.980  21.650  0.0509 -0.2466 -0.3517
38438DOD     C259134  21.585  26.197  21.257  0.0421 -0.0294 -0.4545
38438DOD     C359135  21.982  26.261  20.946  0.1172  0.3156  0.0344
38439DOD     C159136  27.552   8.105   5.037 -0.0270  0.1761  0.1666
38439DOD     C259137  27.932   8.338   4.996 -0.0202  0.1376 -0.1587
38439DOD     C359138  28.367   8.391   4.794  0.0641 -0.1651  0.0538
38440DOD     C159139  16.846   3.033   8.259  0.1739  0.3487  0.6152
38440DOD     C259140  16.918   2.651   8.003  0.1601 -0.0512 -0.2676
38440DOD     C359141  17.216   2.311   8.046 -0.1425 -0.1988 -0.0517
38441DOD     C159142   3.173   8.860  12.414 -0.0476  0.0097  0.0313
38441DOD     C259143   3.091   8.612  12.763  0.1001  0.2207  0.2582
38441DOD     C359144   2.629   8.565  12.906  0.2123  0.1390 -0.3060
38442DOD     C159145  16.904   0.765  17.657 -0.0855 -0.2517 -0.1620
38442DOD     C259146  16.788   0.730  18.115 -0.2759 -0.1282 -0.3825
38442DOD     C359147  16.701   0.917  18.513 -0.0629  0.0812 -0.3215
38443DOD     C159148  12.148  21.855  11.119 -0.1113 -0.2244 -0.0769
38443DOD     C259149  12.112  22.177  10.799  0.2726  0.1663 -0.2788
38443DOD     C359150  11.850  22.580  10.699 -0.1332  0.5214 -0.3321
38444DOD     C159151  24.288  16.941  28.132 -0.1417  0.2490  0.2843
38444DOD     C259152  24.012  17.143  27.776 -0.1466 -0.1569 -0.0045
38444DOD     C359153  23.723  17.211  27.450 -0.2589  0.0243 -0.0393
38445DOD     C159154  24.708  21.172   5.028  0.0095 -0.2934 -0.0083
38445DOD     C259155  24.776  21.239   4.581 -0.4386  0.1148 -0.1117
38445DOD     C359156  24.586  21.255   4.166 -0.0919  0.1644  0.0959
38446DOD     C159157  10.406  23.069   3.946  0.1197 -0.0655 -0.0301
38446DOD     C259158  10.168  22.934   3.545 -0.2332  0.2494  0.2764
38446DOD     C359159  10.000  22.778   3.208 -0.0196 -0.0373  0.0689
38447DOD     C159160  30.109   1.747  20.957  0.0047 -0.0464  0.0378
38447DOD     C259161  29.673   1.965  20.795  0.0330 -0.0333 -0.0308
38447DOD     C359162  29.598   2.369  20.970 -0.3309 -0.0707  0.3190
38448DOD     C159163   1.845  16.212  12.571  0.2629  0.0549 -0.0490
38448DOD     C259164   2.320  16.254  12.467 -0.2349  0.1092  0.2085
38448DOD     C359165   2.612  15.899  12.339 -0.0336 -0.1629  0.2324
38449DOD     C159166   5.370  25.364   4.225  0.0647 -0.0594 -0.0267
38449DOD     C259167   5.003  25.586   4.091 -0.1410 -0.2319 -0.1169
38449DOD     C359168   4.591  25.461   4.092  0.4499  0.1479  0.3306
38450DOD     C159169   9.717  20.777  29.117 -0.2034 -0.0729  0.1460
38450DOD     C259170  10.135  20.746  28.873  0.1442  0.3076  0.1693
38450DOD     C359171  10.144  21.025  28.484 -0.1246  0.0905 -0.1474
38451DOD     C159172   7.033  15.302   6.321 -0.1418  0.0233  0.2242
38451DOD     C259173   7.350  15.488   6.687  0.0193 -0.1706  0.3928
38451DOD     C359174   7.639  15.333   7.020 -0.0072 -0.0725 -0.0028
38452DOD     C159175  26.729   8.603  15.263  0.3260  0.1102  0.1430
38452DOD     C259176  26.561   8.325  15.592  0.0523 -0.3087  0.4461
38452DOD     C359177  26.433   7.963  15.806  0.1618  0.0712 -0.2155
38453DOD     C159178  23.663  15.517   2.739 -0.0090 -0.0890  0.0064
38453DOD     C259179  23.826  15.914   2.939  0.1967  0.1073  0.0471
38453DOD     C359180  24.135  16.183   2.714 -0.1157  0.1964 -0.1417
38454DOD     C159181   6.514  14.499  23.670 -0.0837  0.3297  0.0074
38454DOD     C259182   6.187  14.741  23.499  0.0558 -0.1949  0.1721
38454DOD     C359183   5.896  15.144  23.422  0.1899  0.1204  0.2060
38455DOD     C159184   9.055  26.472   2.172  0.1153 -0.1235  0.1645
38455DOD     C259185   8.963  26.432   1.696  0.2867  0.0988 -0.1207
38455DOD     C359186   8.525  26.454   1.460 -0.1010 -0.0499  0.1436
38456DOD     C159187  17.643  11.013  16.244  0.3342  0.2951  0.0193
38456DOD     C259188  17.467  11.472  16.446 -0.2955  0.0158 -0.0208
38456DOD     C359189  17.316  11.917  16.597  0.4055 -0.3939  0.3200
38457DOD     C159190   6.469  14.772  27.218  0.0361  0.1919 -0.1894
38457DOD     C259191   6.317  14.699  27.671 -0.0222  0.1939  0.2034
38457DOD     C359192   6.139  14.660  28.099  0.0539 -0.3179  0.0142
38458DOD     C159193  24.470   6.218   5.920  0.1908  0.0139 -0.0318
38458DOD     C259194  24.684   6.517   5.611 -0.0804  0.1689 -0.1979
38458DOD     C359195  24.733   6.807   5.313 -0.1631  0.2969 -0.1887
38459DOD     C159196  21.252  21.802   1.200 -0.1501  0.0701 -0.2393
38459DOD     C259197  21.022  22.201   1.226  0.2120 -0.3085  0.2562
38459DOD     C359198  20.779  22.585   1.233  0.1543 -0.4224  0.3737
38460DOD     C159199  26.769  20.859   6.657 -0.1107 -0.0775  0.1935
38460DOD     C259200  27.221  20.672   6.762 -0.2887 -0.0281 -0.4348
38460DOD     C359201  27.513  20.798   7.086 -0.0101 -0.0033 -0.1499
38461DOD     C159202  24.315   1.174   7.526  0.2577 -0.2871 -0.2278
38461DOD     C259203  24.540   1.290   7.934 -0.0968 -0.1667  0.0812
38461DOD     C359204  24.891   1.133   8.160 -0.2893  0.4230 -0.1647
38462DOD     C159205  12.470  14.728   5.854 -0.0623 -0.0507  0.1313
38462DOD     C259206  12.084  14.449   5.704 -0.1533  0.1318  0.0412
38462DOD     C359207  11.667  14.463   5.951  0.0526 -0.0808  0.0061
38463DOD     C159208  19.115  19.508  27.606  0.1133  0.0430  0.1806
38463DOD     C259209  19.151  19.026  27.732  0.0353 -0.0780 -0.2299
38463DOD     C359210  19.234  18.598  27.799 -0.0101 -0.0097 -0.0782
38464DOD     C159211   0.936   5.533  24.236 -0.2397 -0.0781  0.0912
38464DOD     C259212   1.406   5.538  24.291  0.1582  0.1098 -0.0591
38464DOD     C359213   1.773   5.356  24.096 -0.3046  0.0403  0.0067
38465DOD     C159214  20.569  13.780  28.086 -0.0628 -0.0423 -0.3532
38465DOD     C259215  20.276  13.878  27.687 -0.1095  0.0600  0.1420
38465DOD     C359216  20.110  13.804  27.265 -0.1919  0.4596 -0.2924
38466DOD     C159217  25.362   5.949   1.825  0.1127 -0.2238 -0.0251
38466DOD     C259218  24.988   6.183   1.627  0.0906  0.0269  0.3204
38466DOD     C359219  24.684   6.006   1.347 -0.1736 -0.0249 -0.2283
38467DOD     C159220  22.028  15.159  16.562 -0.3919 -0.1209  0.1019
38467DOD     C259221  22.023  15.173  16.129 -0.0998  0.1898 -0.1692
38467DOD     C359222  21.952  15.402  15.802 -0.0072 -0.0693 -0.0349
38468DOD     C159223  28.991  25.450   9.692 -0.2663  0.1624 -0.0975
38468DOD     C259224  28.603  25.707   9.565 -0.1307 -0.1983 -0.1144
38468DOD     C359225  28.299  26.124   9.513  0.0287 -0.1414 -0.2680
38469DOD     C159226   0.788  22.290  13.818 -0.1055 -0.0177  0.1124
38469DOD     C259227   0.447  22.091  13.522 -0.1050  0.0576 -0.3614
38469DOD     C359228  30.326  21.935  13.628  0.3375 -0.0970  0.0847
38470DOD     C159229  27.543  28.721  25.218 -0.1822 -0.0118 -0.0362
38470DOD     C259230  27.449  29.122  25.090  0.0190 -0.1095 -0.2280
38470DOD     C359231  27.134  29.409  25.290 -0.1831 -0.1490  0.2191
38471DOD     C159232  21.837  27.195   4.916  0.1564  0.1812 -0.0801
38471DOD     C259233  22.068  26.805   4.917  0.2076 -0.2247  0.2445
38471DOD     C359234  22.169  26.372   5.104 -0.1942  0.1030  0.0965
38472DOD     C159235   3.400   2.059  14.535 -0.0580  0.2828 -0.1878
38472DOD     C259236   3.677   1.766  14.405 -0.0719  0.1496 -0.0727
38472DOD     C359237   3.770   1.310  14.294  0.1635 -0.0071 -0.0435
38473DOD     C159238   2.278  22.163  16.621 -0.1994 -0.2591 -0.0314
38473DOD     C259239   2.660  21.835  16.603  0.1300 -0.2655 -0.1873
38473DOD     C359240   3.130  21.776  16.563 -0.3442  0.2688 -0.0859
38474DOD     C159241   3.681   1.285  17.148  0.0304 -0.1715  0.1569
38474DOD     C259242   3.671   1.249  16.643 -0.3780  0.1136 -0.1897
38474DOD     C359243   4.001   1.081  16.361  0.0142  0.3464  0.3657
38475DOD     C159244  19.722  21.650   1.014  0.1973 -0.0191  0.0331
38475DOD     C259245  19.299  21.586   0.948  0.2696  0.1331  0.2145
38475DOD     C359246  18.859  21.402   0.887  0.2182 -0.0259 -0.0294
38476DOD     C159247  23.993   8.068   9.151  0.0127  0.1420 -0.0045
38476DOD     C259248  23.594   8.213   9.237 -0.0883  0.2709  0.1310
38476DOD     C359249  23.337   8.310   9.599  0.1525  0.1133 -0.0597
38477DOD     C159250  21.419  24.826  18.472  0.0689 -0.0681 -0.1106
38477DOD     C259251  20.991  25.103  18.518  0.1918  0.0034 -0.2036
38477DOD     C359252  20.962  25.557  18.603 -0.2859  0.0686 -0.1482
38478DOD     C159253  23.201  15.249  14.738 -0.3898 -0.1216 -0.0202
38478DOD     C259254  23.585  15.256  15.043  0.0726  0.2508 -0.2098
38478DOD     C359255  23.977  15.278  15.332  0.3020  0.0028  0.0054
38479DOD     C159256   8.894   7.293   4.167  0.1084  0.2101 -0.1343
38479DOD     C259257   9.280   7.337   3.916 -0.0221  0.0673 -0.2399
38479DOD     C359258   9.752   7.443   3.814  0.1023 -0.2063 -0.0828
38480DOD     C159259  21.253  28.477   3.018 -0.2133 -0.0204 -0.4695
38480DOD     C259260  21.267  28.911   3.207 -0.1174  0.0163  0.0652
38480DOD     C359261  21.321  29.199   3.601  0.0030 -0.0616 -0.2237
38481DOD     C159262  10.720   0.284   3.554 -0.3968  0.1653  0.1122
38481DOD     C259263  10.285   0.324   3.449  0.1050 -0.2328  0.1584
38481DOD     C359264   9.830   0.463   3.277 -0.1102 -0.0238 -0.1129
38482DOD     C159265  17.199  25.219  16.096 -0.2777 -0.0654  0.2136
38482DOD     C259266  17.159  25.561  15.766  0.0781  0.2391  0.3389
38482DOD     C359267  16.812  25.691  15.474 -0.2089 -0.0070  0.0680
38483DOD     C159268   4.229  13.615  26.037 -0.0697  0.3035 -0.1186
38483DOD     C259269   4.490  13.418  25.727 -0.0147 -0.1043  0.0658
38483DOD     C359270   4.776  13.694  25.435  0.0728 -0.0252 -0.0400
38484DOD     C159271  25.718  19.706  30.099 -0.1987  0.0491  0.0978
38484DOD     C259272  26.017  19.823   0.134 -0.0215 -0.0359 -0.1809
38484DOD     C359273  26.469  19.804   0.249  0.2509 -0.1386  0.2579
38485DOD     C159274  13.828  23.800  25.454  0.4382  0.0038  0.1244
38485DOD     C259275  13.587  23.873  25.058 -0.0620 -0.1379  0.0171
38485DOD     C359276  13.597  24.165  24.659 -0.1022  0.2123  0.0244
38486DOD     C159277  21.360   2.395  10.139  0.0251  0.1564  0.1083
38486DOD     C259278  21.516   2.046  10.421 -0.0404 -0.1469 -0.3608
38486DOD     C359279  21.645   1.672  10.705 -0.2543  0.1226 -0.1326
38487DOD     C159280  20.159  13.212   5.915 -0.0815  0.1479  0.1074
38487DOD     C259281  19.902  13.113   5.554 -0.0504 -0.5150 -0.2889
38487DOD     C359282  20.081  13.060   5.083  0.0668  0.3278 -0.2768
38488DOD     C159283   9.747  29.170  26.171 -0.2230  0.0174  0.1842
38488DOD     C259284   9.627  29.569  26.297  0.0457  0.0548  0.0736
38488DOD     C359285   9.470  29.991  26.417  0.1115  0.2317  0.0882
38489DOD     C159286   1.716  26.682  11.981 -0.3559 -0.1312 -0.2204
38489DOD     C259287   1.785  27.016  12.327 -0.0601  0.3415 -0.1379
38489DOD     C359288   2.076  26.919  12.727  0.0357 -0.0607  0.1545
38490DOD     C159289   6.900   6.511  14.828  0.1195  0.2123 -0.1734
38490DOD     C259290   6.576   6.199  15.049  0.0534  0.0210  0.0396
38490DOD     C359291   6.594   5.910  15.388 -0.3281  0.1849 -0.1609
38491DOD     C159292  21.722   7.854  17.955  0.1721 -0.1382 -0.1361
38491DOD     C259293  21.923   7.952  17.506 -0.0040 -0.0840 -0.2483
38491DOD     C359294  21.696   7.718  17.115 -0.1283 -0.0432 -0.1327
38492DOD     C159295  24.762  15.371  11.075  0.1003 -0.1635 -0.1840
38492DOD     C259296  25.045  15.001  11.111  0.4127 -0.0449 -0.0195
38492DOD     C359297  25.355  14.870  11.417 -0.1311  0.0126  0.0599
38493DOD     C159298   5.470   3.286  25.047 -0.2080  0.0087  0.2176
38493DOD     C259299   5.075   3.282  25.244 -0.1488  0.0759 -0.3618
38493DOD     C359300   4.787   2.920  25.210 -0.2630 -0.0769  0.0215
38494DOD     C159301  20.272   6.508  11.805  0.0915 -0.0909  0.0623
38494DOD     C259302  20.644   6.612  11.520 -0.1064  0.0242  0.0958
38494DOD     C359303  20.814   6.841  11.164 -0.3901 -0.2515  0.2181
38495DOD     C159304  17.465  17.885   0.817  0.2312 -0.1504 -0.0897
38495DOD     C259305  17.862  18.046   0.645 -0.0112  0.0761  0.1467
38495DOD     C359306  18.223  17.916   0.449  0.0110  0.1297  0.2315
38496DOD     C159307  13.795   4.518   4.196  0.3435 -0.3454  0.1193
38496DOD     C259308  14.224   4.325   4.138  0.3812 -0.2545  0.0502
38496DOD     C359309  14.555   4.472   4.461 -0.1436 -0.0528 -0.1885
38497DOD     C159310  27.293  14.456  16.573 -0.1607 -0.1422  0.1163
38497DOD     C259311  27.154  14.516  16.981  0.3468  0.1742 -0.1574
38497DOD     C359312  27.137  14.614  17.404  0.2010  0.1133 -0.3943
38498DOD     C159313  16.737  19.767  22.241 -0.0332  0.1322  0.1203
38498DOD     C259314  17.130  19.501  22.452 -0.1922 -0.0683  0.0057
38498DOD     C359315  17.219  19.209  22.824  0.0864  0.1503  0.0195
38499DOD     C159316  12.386   3.867   5.183  0.1202  0.0220 -0.1352
38499DOD     C259317  12.220   4.323   5.147  0.1509  0.0054  0.2157
38499DOD     C359318  12.261   4.785   5.128  0.3924  0.0876 -0.0179
38500DOD     C159319   7.605   5.491  18.957  0.1365  0.0666 -0.0333
38500DOD     C259320   7.177   5.327  18.851 -0.2095  0.1934 -0.2483
38500DOD     C359321   7.007   4.902  18.838  0.1411 -0.2196  0.2952
38501DOD     C159322   8.978  17.211  23.561 -0.2496 -0.0158  0.2697
38501DOD     C259323   8.981  17.664  23.298  0.1173  0.0489 -0.0023
38501DOD     C359324   8.676  18.026  23.424 -0.1957 -0.0325  0.0520
38502DOD     C159325   7.830  22.996   5.740 -0.0868  0.1259  0.1289
38502DOD     C259326   8.026  22.572   5.784  0.0119 -0.1795  0.1142
38502DOD     C359327   8.054  22.172   5.764  0.0838  0.0431  0.0990
38503DOD     C159328   4.415   8.823  23.579  0.1394  0.0048  0.0279
38503DOD     C259329   4.159   9.057  23.298 -0.1101  0.3370  0.0940
38503DOD     C359330   4.227   9.387  22.954 -0.1184 -0.1450 -0.1575
38504DOD     C159331   5.854  27.943  17.214 -0.1774 -0.0130  0.1061
38504DOD     C259332   6.150  27.936  17.543  0.0829 -0.0090 -0.0876
38504DOD     C359333   6.188  27.892  17.997  0.1095  0.2421  0.1281
38505DOD     C159334   1.291   6.185  14.612 -0.2150  0.2412 -0.0656
38505DOD     C259335   1.646   5.900  14.585 -0.1582  0.2724  0.0352
38505DOD     C359336   2.035   5.655  14.500  0.1194  0.0318  0.1581
38506DOD     C159337  26.276   8.360  21.124 -0.0008  0.1734 -0.2437
38506DOD     C259338  26.281   8.452  21.562 -0.1244 -0.1342 -0.4337
38506DOD     C359339  25.906   8.558  21.836 -0.2105  0.1252  0.1045
38507DOD     C159340  25.412  20.756  26.013 -0.0413 -0.2481 -0.0228
38507DOD     C259341  25.869  20.854  26.191  0.0864  0.0043 -0.0793
38507DOD     C359342  26.281  20.647  26.266 -0.0187  0.1192  0.1491
38508DOD     C159343  19.858   8.505  14.832 -0.2268 -0.0726 -0.0190
38508DOD     C259344  19.828   8.650  15.287  0.0444 -0.1592 -0.1975
38508DOD     C359345  20.108   8.867  15.604 -0.2013 -0.0458  0.0697
38509DOD     C159346   3.316   3.572   6.837 -0.1794  0.2882 -0.0562
38509DOD     C259347   3.465   3.119   7.022  0.1360  0.1875 -0.0290
38509DOD     C359348   3.384   2.808   7.385 -0.1171 -0.0410  0.2394
38510DOD     C159349  13.392  14.695  18.824 -0.0714 -0.1766 -0.0779
38510DOD     C259350  13.859  14.623  18.891  0.0350  0.2840 -0.2857
38510DOD     C359351  14.228  14.641  19.105  0.2750 -0.0330  0.0003
38511DOD     C159352  14.220  22.880  23.247  0.0949  0.1261  0.3378
38511DOD     C259353  14.345  22.517  23.401  0.0371  0.1606 -0.2367
38511DOD     C359354  14.467  22.181  23.693 -0.0234  0.2563 -0.1934
38512DOD     C159355   9.657  29.379  28.637  0.0086 -0.2368  0.3373
38512DOD     C259356   9.688  29.284  28.205  0.0112  0.0704  0.4342
38512DOD     C359357   9.369  29.233  27.834  0.2113 -0.2797  0.1770
38513DOD     C159358  11.146  29.863   2.808  0.0601  0.0475 -0.2192
38513DOD     C259359  11.463  29.596   3.063 -0.0427 -0.2658 -0.2872
38513DOD     C359360  11.282  29.232   3.317 -0.0521 -0.2784 -0.0265
38514DOD     C159361  13.653  20.403  21.613 -0.2679 -0.3032  0.2886
38514DOD     C259362  13.363  20.025  21.593 -0.3256 -0.0636 -0.0497
38514DOD     C359363  12.998  19.735  21.427  0.0268 -0.2092  0.1877
38515DOD     C159364  24.983  19.259  23.492 -0.0509  0.1558  0.2203
38515DOD     C259365  25.102  19.279  23.958 -0.0925  0.1188  0.3951
38515DOD     C359366  25.156  19.511  24.336 -0.4549 -0.0603 -0.1930
38516DOD     C159367  11.111  25.031  23.712  0.0273 -0.2486 -0.1242
38516DOD     C259368  11.077  24.738  24.049 -0.2398  0.1313 -0.1311
38516DOD     C359369  10.813  24.609  24.387 -0.1244 -0.0731  0.2690
38517DOD     C159370  10.097  13.062   7.086  0.0234 -0.2426 -0.1907
38517DOD     C259371  10.095  12.869   7.534 -0.0982  0.0398 -0.0699
38517DOD     C359372  10.231  12.659   7.885 -0.1288 -0.3023 -0.2907
38518DOD     C159373  11.741  16.169  22.949 -0.1827  0.0277 -0.2310
38518DOD     C259374  12.046  16.328  23.325  0.0751 -0.2075  0.0966
38518DOD     C359375  12.276  16.564  23.639 -0.0326 -0.3502  0.2889
38519DOD     C159376  15.496  13.340  12.991 -0.3102 -0.3374  0.3140
38519DOD     C259377  15.887  13.449  13.182  0.1376 -0.0197 -0.1555
38519DOD     C359378  16.192  13.696  12.890 -0.0830  0.0045 -0.1883
38520DOD     C159379  20.157  23.027   5.342  0.1067 -0.0700  0.1773
38520DOD     C259380  20.406  23.008   4.975 -0.1583  0.1131 -0.1251
38520DOD     C359381  20.665  22.808   4.634 -0.1588 -0.0863  0.0140
38521DOD     C159382  23.403  25.272  12.541 -0.1598 -0.1130 -0.2106
38521DOD     C259383  23.032  24.971  12.464 -0.1683 -0.0619  0.1000
38521DOD     C359384  22.911  24.615  12.236  0.0147  0.1207 -0.1453
38522DOD     C159385   3.471  14.210  12.201 -0.1218 -0.1642  0.1321
38522DOD     C259386   3.215  14.146  11.841 -0.1711  0.0753  0.2703
38522DOD     C359387   3.370  13.941  11.424  0.1398  0.0203 -0.1491
38523DOD     C159388   6.070   1.142  11.055  0.0287 -0.2159 -0.0123
38523DOD     C259389   5.907   0.818  11.280  0.1918 -0.0236  0.0848
38523DOD     C359390   5.473   0.660  11.219  0.2741 -0.3044  0.0038
38524DOD     C159391   0.158  22.617  18.509  0.1270  0.1780 -0.1767
38524DOD     C259392   0.415  22.869  18.770  0.2978 -0.0358  0.0986
38524DOD     C359393   0.510  23.138  19.146 -0.0729  0.1737  0.0342
38525DOD     C159394  16.470   2.022   0.481  0.1684 -0.0879 -0.0265
38525DOD     C259395  16.166   1.690   0.320 -0.0158 -0.2104 -0.1909
38525DOD     C359396  15.960   1.519  30.264  0.1346 -0.0546 -0.0446
38526DOD     C159397  21.996   5.810   9.928  0.1930  0.1955 -0.0894
38526DOD     C259398  21.909   5.696  10.367 -0.0183 -0.1244 -0.0140
38526DOD     C359399  21.606   5.494  10.628 -0.1162 -0.1163 -0.0271
38527DOD     C159400  24.275   8.124  11.883  0.1774 -0.0818  0.0806
38527DOD     C259401  23.854   8.149  12.052 -0.1730  0.0153  0.2859
38527DOD     C359402  23.410   8.267  11.867 -0.0499  0.0253  0.4833
38528DOD     C159403  12.324   6.336   7.804  0.0331  0.0598 -0.1226
38528DOD     C259404  12.710   6.216   7.573  0.1847 -0.2280 -0.0071
38528DOD     C359405  13.136   6.139   7.341 -0.2649 -0.1837  0.2898
38529DOD     C159406  12.032  21.280   8.176 -0.0877 -0.1457  0.0667
38529DOD     C259407  11.702  21.564   8.289 -0.2367 -0.0930 -0.2722
38529DOD     C359408  11.523  21.988   8.359 -0.0091 -0.0013  0.0813
38530DOD     C159409  30.278  30.215   5.668  0.0768 -0.3348  0.0423
38530DOD     C259410  29.927   0.134   5.778 -0.0034 -0.1146  0.1832
38530DOD     C359411  29.607   0.484   6.006  0.0196 -0.1611  0.1579
38531DOD     C159412  16.585  28.294  25.076  0.2373 -0.0344  0.2802
38531DOD     C259413  16.883  28.611  24.854 -0.1952  0.1554 -0.0314
38531DOD     C359414  17.196  28.938  24.997 -0.1413  0.0578 -0.0370
38532DOD     C159415   2.751  26.353  16.221  0.2026 -0.3066 -0.2228
38532DOD     C259416   3.060  26.723  16.209  0.0998 -0.0040 -0.0021
38532DOD     C359417   3.045  27.138  15.989 -0.0199  0.0606  0.0071
38533DOD     C159418  11.409  22.433  10.929 -0.0120  0.1223  0.3197
38533DOD     C259419  11.144  22.057  10.876  0.4396 -0.1834 -0.1162
38533DOD     C359420  10.916  21.658  10.768 -0.0894  0.2747  0.1174
38534DOD     C159421  27.783   7.260  29.487  0.2076 -0.0125 -0.0010
38534DOD     C259422  28.049   6.910  29.616 -0.2308  0.0145  0.4361
38534DOD     C359423  28.160   6.446  29.614  0.3665  0.0128  0.1672
38535DOD     C159424  15.964   1.566  27.535  0.1169  0.1983  0.1050
38535DOD     C259425  15.660   1.237  27.771 -0.0978 -0.0713  0.3685
38535DOD     C359426  15.587   0.863  28.075 -0.0252 -0.1102 -0.0933
38536DOD     C159427  24.518  14.041  24.012 -0.0085 -0.0225  0.2000
38536DOD     C259428  24.965  14.022  24.184 -0.0118  0.1532 -0.1715
38536DOD     C359429  25.415  14.023  24.309 -0.4579  0.3980  0.0367
38537DOD     C159430   1.927   2.521  26.950  0.1888 -0.0188 -0.1746
38537DOD     C259431   1.564   2.522  26.642  0.1956 -0.0892 -0.0931
38537DOD     C359432   1.173   2.606  26.419 -0.1693 -0.0595 -0.0190
38538DOD     C159433  17.195  19.907  10.875 -0.1542 -0.1149 -0.3437
38538DOD     C259434  17.115  20.016  10.433 -0.2119  0.0620 -0.0251
38538DOD     C359435  17.009  19.659  10.149 -0.1758 -0.2478 -0.3163
38539DOD     C159436  30.081  21.898  29.313  0.0131 -0.0715  0.1112
38539DOD     C259437   0.181  22.096  29.140 -0.0993 -0.0718  0.1596
38539DOD     C359438   0.553  22.273  28.883 -0.0837 -0.1494 -0.3194
38540DOD     C159439  19.904  14.010  28.655  0.0346  0.2534 -0.0977
38540DOD     C259440  19.814  14.409  28.795  0.2961  0.1263  0.2379
38540DOD     C359441  20.053  14.672  29.056 -0.2327 -0.0449 -0.1498
38541DOD     C159442   8.419  24.489   9.728  0.0077  0.1112 -0.0056
38541DOD     C259443   8.617  24.412  10.142 -0.0125  0.0982 -0.3365
38541DOD     C359444   8.812  24.155  10.474  0.3505 -0.0804 -0.0251
38542DOD     C159445   4.757  26.980  12.769  0.0002  0.0328 -0.2997
38542DOD     C259446   5.036  27.243  13.004  0.1145 -0.4548  0.0766
38542DOD     C359447   5.139  27.650  13.177  0.2768  0.0033  0.0077
38543DOD     C159448   9.118  25.215  19.123  0.3063 -0.1364 -0.0123
38543DOD     C259449   8.797  25.514  19.108 -0.0148 -0.1267  0.2681
38543DOD     C359450   8.658  25.900  18.953 -0.1586  0.0295  0.3308
38544DOD     C159451  13.043  18.077   5.266  0.0036 -0.1372  0.1321
38544DOD     C259452  12.886  18.420   4.936 -0.0084  0.3683  0.0223
38544DOD     C359453  12.697  18.525   4.503  0.0456 -0.0283 -0.1566
38545DOD     C159454  18.006  11.538   8.861  0.0815  0.2055 -0.3864
38545DOD     C259455  17.603  11.637   8.609  0.0929  0.0302  0.2040
38545DOD     C359456  17.302  11.955   8.377 -0.0981 -0.1441  0.1597
38546DOD     C159457  23.805  24.646  19.826 -0.1851 -0.1231  0.1719
38546DOD     C259458  24.300  24.664  19.850 -0.3048  0.0846  0.2150
38546DOD     C359459  24.775  24.720  19.945 -0.0932 -0.2927  0.2035
38547DOD     C159460  22.870   0.538  19.481  0.2676 -0.2715  0.0089
38547DOD     C259461  23.153   0.689  19.079  0.0427 -0.0127 -0.1651
38547DOD     C359462  23.322   0.908  18.671  0.1781  0.1530 -0.0267
38548DOD     C159463  24.195  26.101   1.237  0.0086  0.1641  0.1244
38548DOD     C259464  24.083  25.791   0.947  0.2123  0.1576 -0.2040
38548DOD     C359465  24.143  25.393   0.867 -0.3344 -0.1669 -0.0712
38549DOD     C159466   8.302  16.502  21.769  0.0088  0.2385  0.0754
38549DOD     C259467   8.468  16.751  21.423  0.2256  0.0445  0.2763
38549DOD     C359468   8.745  16.723  21.074 -0.0390 -0.4934  0.0572
38550DOD     C159469  23.479  10.463  25.058  0.1436  0.2869 -0.0585
38550DOD     C259470  23.914  10.352  25.188  0.0201  0.0917 -0.2271
38550DOD     C359471  24.398  10.311  25.023  0.0180 -0.0133 -0.3594
38551DOD     C159472  16.801  26.846  15.618 -0.0953  0.2475 -0.0607
38551DOD     C259473  16.724  26.489  15.883  0.1222  0.0626  0.0216
38551DOD     C359474  16.878  26.173  16.211  0.0062  0.0241 -0.1536
38552DOD     C159475  23.614   1.411   3.028 -0.1901  0.2331 -0.2688
38552DOD     C259476  23.342   1.633   2.717 -0.0255 -0.0053  0.0073
38552DOD     C359477  23.421   2.025   2.549 -0.0661 -0.1155 -0.0255
38553DOD     C159478  22.173   6.472  15.008  0.2397 -0.0271  0.1469
38553DOD     C259479  22.448   6.860  15.039 -0.0604 -0.2377 -0.1795
38553DOD     C359480  22.789   6.860  15.333 -0.1198  0.2998  0.0509
38554DOD     C159481  22.534   4.729   7.664  0.1093  0.3876  0.1627
38554DOD     C259482  22.131   4.558   7.926 -0.1397 -0.1485 -0.0621
38554DOD     C359483  21.800   4.782   8.260  0.1234 -0.1226  0.2236
38555DOD     C159484  26.833   9.094  14.388 -0.0670 -0.1441  0.1307
38555DOD     C259485  26.384   9.226  14.417  0.1271  0.1056  0.3204
38555DOD     C359486  26.106   9.174  14.781  0.3182  0.0328 -0.1318
38556DOD     C159487   1.335  26.561   7.384  0.1061 -0.1769  0.0154
38556DOD     C259488   1.095  26.843   7.181 -0.0215  0.3016 -0.0276
38556DOD     C359489   0.943  26.703   6.736  0.3163  0.0053  0.0966
38557DOD     C159490  29.004  25.696  27.549  0.2804 -0.0534 -0.3700
38557DOD     C259491  29.033  26.154  27.415 -0.0441  0.1585  0.3081
38557DOD     C359492  28.705  26.327  27.096  0.1417 -0.2886  0.1031
38558DOD     C159493   2.218   4.598  22.305 -0.0135  0.4609 -0.1178
38558DOD     C259494   2.608   4.908  22.162 -0.0593  0.1801 -0.0837
38558DOD     C359495   2.858   5.335  22.203  0.1626  0.0708 -0.0125
38559DOD     C159496   3.118   5.891  27.156 -0.1010 -0.0232 -0.2068
38559DOD     C259497   3.112   6.355  27.363 -0.0678 -0.1393 -0.2589
38559DOD     C359498   3.088   6.749  27.664 -0.2171  0.1548  0.2528
38560DOD     C159499   5.875   6.387  27.036 -0.1354 -0.0901  0.1512
38560DOD     C259500   6.127   6.584  27.377 -0.0626  0.0517 -0.1195
38560DOD     C359501   6.445   6.358  27.607 -0.0223  0.1651 -0.1880
38561DOD     C159502   7.812  17.336   9.165  0.1415  0.0196 -0.1817
38561DOD     C259503   7.468  17.021   9.286  0.0093  0.2116  0.5088
38561DOD     C359504   7.307  16.744   9.691 -0.0259  0.1920  0.0164
38562DOD     C159505   8.781   6.122  10.957  0.1176  0.4092  0.2252
38562DOD     C259506   8.452   5.887  11.028 -0.1499  0.3527 -0.0752
38562DOD     C359507   8.134   5.887  11.317  0.1155  0.0814  0.1870
38563DOD     C159508  15.400  30.048   6.134 -0.1440  0.0353  0.2107
38563DOD     C259509  15.160   0.068   6.348  0.0465  0.0598  0.3246
38563DOD     C359510  15.189   0.466   6.617  0.1199 -0.2501 -0.0431
38564DOD     C159511  16.975  25.052   5.425  0.3745  0.1038  0.0011
38564DOD     C259512  16.633  25.337   5.470 -0.0373  0.1668  0.1574
38564DOD     C359513  16.230  25.650   5.466  0.0952 -0.0831 -0.0581
38565DOD     C159514  11.177  15.327  25.503  0.0214 -0.0799  0.1519
38565DOD     C259515  11.189  15.654  25.141 -0.0096  0.2639  0.2313
38565DOD     C359516  11.266  16.148  25.097 -0.0726  0.0093  0.1753
38566DOD     C159517   0.762  26.917  21.226 -0.1702 -0.2599  0.0615
38566DOD     C259518   1.186  27.013  21.318 -0.2564  0.0425 -0.1604
38566DOD     C359519   1.553  27.250  21.179  0.0431 -0.1780 -0.2172
38567DOD     C159520   3.109  23.249  19.665 -0.2945  0.1081 -0.0475
38567DOD     C259521   2.993  23.060  20.062  0.1313  0.1517  0.4222
38567DOD     C359522   3.120  23.015  20.510  0.0729 -0.1537 -0.0843
38568DOD     C159523  12.526  13.240  30.006  0.2014  0.0883  0.1431
38568DOD     C259524  12.708  12.853  30.252 -0.0019  0.1319  0.4305
38568DOD     C359525  12.848  13.036   0.337 -0.1186  0.0521 -0.1199
38569DOD     C159526   2.357  21.143  22.299  0.0106 -0.1858  0.1836
38569DOD     C259527   2.462  21.500  22.604  0.0424  0.0934 -0.1608
38569DOD     C359528   2.781  21.576  22.855 -0.0812 -0.0740  0.0549
38570DOD     C159529  16.241   5.977  15.073 -0.0648 -0.4181  0.0512
38570DOD     C259530  15.801   5.800  15.097 -0.0742 -0.1527 -0.0841
38570DOD     C359531  15.325   5.774  14.960 -0.1852  0.0582 -0.1982
38571DOD     C159532   7.631  23.969   2.703 -0.0884  0.2369  0.0872
38571DOD     C259533   7.413  24.125   3.061 -0.0848  0.0057  0.1617
38571DOD     C359534   7.036  24.024   3.385 -0.1558 -0.3190 -0.0938
38572DOD     C159535   1.549  10.918   5.033  0.1412 -0.0235  0.0395
38572DOD     C259536   1.322  11.347   5.156 -0.0873 -0.0761  0.1024
38572DOD     C359537   1.289  11.510   5.628  0.0081  0.1334  0.1881
38573DOD     C159538   6.408  23.843   7.356 -0.0270 -0.0260 -0.4714
38573DOD     C259539   6.730  24.149   7.482 -0.0323  0.0621 -0.1288
38573DOD     C359540   6.624  24.499   7.818 -0.1878  0.0942  0.1100
38574DOD     C159541  17.886  16.406   5.801 -0.1442 -0.2901 -0.0918
38574DOD     C259542  17.568  16.382   6.180 -0.0583 -0.2263  0.1915
38574DOD     C359543  17.542  16.681   6.559  0.1857  0.1734  0.0273
38575DOD     C159544   9.807   3.925  29.698 -0.1951 -0.4257 -0.1116
38575DOD     C259545  10.191   3.956  29.463  0.0873 -0.1760 -0.1500
38575DOD     C359546  10.588   4.000  29.290  0.0972  0.0127  0.1870
38576DOD     C159547  29.221  12.593   7.099 -0.1971  0.1067  0.2674
38576DOD     C259548  29.555  12.871   7.252  0.2401 -0.0150  0.2093
38576DOD     C359549  30.002  13.013   7.204 -0.1741  0.1582 -0.3184
38577DOD     C159550   5.633  19.007  27.410 -0.1896 -0.1864  0.3204
38577DOD     C259551   5.538  18.564  27.258  0.0586  0.1682  0.0339
38577DOD     C359552   5.781  18.188  27.168  0.1125 -0.0933  0.0368
38578DOD     C159553  14.826  13.660  16.313 -0.1131 -0.1188  0.0173
38578DOD     C259554  15.089  14.024  16.228 -0.0900 -0.2063 -0.1806
38578DOD     C359555  15.240  14.426  16.016  0.0755  0.2070 -0.2521
38579DOD     C159556   3.160   1.020  10.804  0.1345 -0.1000 -0.0032
38579DOD     C259557   2.983   0.868  11.188  0.2150  0.0409  0.3052
38579DOD     C359558   2.804   0.916  11.657 -0.1663 -0.0477  0.0075
38580DOD     C159559  26.219   3.475  28.197 -0.1771  0.0572 -0.0485
38580DOD     C259560  26.111   3.900  28.382  0.2278 -0.1364  0.0044
38580DOD     C359561  25.988   4.163  28.771 -0.0936  0.1542  0.1023
38581DOD     C159562   8.281  17.008   6.842 -0.0375  0.0171  0.1785
38581DOD     C259563   8.293  17.471   7.008 -0.1880 -0.2111  0.0706
38581DOD     C359564   8.181  17.879   7.203 -0.0543 -0.2685 -0.0473
38582DOD     C159565  19.370  29.464  19.932  0.0890 -0.0643  0.0262
38582DOD     C259566  19.476  29.746  20.322  0.0921 -0.1964  0.1215
38582DOD     C359567  19.648  29.895  20.805  0.1473 -0.0053  0.1333
38583DOD     C159568  26.964   1.200  16.953 -0.3801 -0.0006  0.0597
38583DOD     C259569  27.330   0.945  17.088 -0.3455 -0.2952  0.1207
38583DOD     C359570  27.780   0.869  17.099  0.0534  0.0133  0.2832
38584DOD     C159571  16.585  20.734  16.347 -0.1000  0.2919  0.0916
38584DOD     C259572  16.716  20.986  15.998  0.1640  0.0942 -0.0854
38584DOD     C359573  16.717  21.348  15.756 -0.0980 -0.0194 -0.0475
38585DOD     C159574  17.196  20.666  17.381  0.1354 -0.2724  0.0112
38585DOD     C259575  16.884  20.864  17.147  0.2585  0.0209  0.2696
38585DOD     C359576  16.655  21.000  16.765  0.0363 -0.1689 -0.2103
38586DOD     C159577  26.574  26.420  18.106  0.1376 -0.4185 -0.0739
38586DOD     C259578  26.642  26.268  18.543  0.1096 -0.2134 -0.0538
38586DOD     C359579  27.018  26.271  18.807  0.2171  0.0124  0.0299
38587DOD     C159580  26.461  26.845  25.168 -0.0658  0.0382 -0.2120
38587DOD     C259581  26.850  26.610  25.224  0.2822 -0.2083 -0.0828
38587DOD     C359582  27.041  26.416  25.657  0.2399  0.2175 -0.2473
38588DOD     C159583  28.004  17.596  15.528  0.1411 -0.0350  0.0117
38588DOD     C259584  27.638  17.299  15.532 -0.2705 -0.4471 -0.1572
38588DOD     C359585  27.279  17.143  15.327  0.0783 -0.2041  0.1029
38589DOD     C159586   8.211   1.748   4.230 -0.1674  0.2157  0.1550
38589DOD     C259587   8.230   1.472   3.881 -0.1919  0.0890 -0.0488
38589DOD     C359588   8.319   1.087   3.625  0.0565  0.0569 -0.0635
38590DOD     C159589  29.434   1.119  17.754 -0.2188  0.2269 -0.0518
38590DOD     C259590  29.411   1.581  17.921 -0.1483  0.0179 -0.0818
38590DOD     C359591  29.546   1.921  18.187  0.1909  0.2482  0.2485
38591DOD     C159592   3.150  23.279  16.820 -0.2511 -0.1905 -0.0006
38591DOD     C259593   2.982  22.998  17.100 -0.1022  0.1060 -0.1716
38591DOD     C359594   2.783  22.613  17.091 -0.4042  0.1996 -0.1481
38592DOD     C159595  15.914  29.047  16.788  0.2933 -0.0878 -0.2367
38592DOD     C259596  15.996  28.660  16.547 -0.2047 -0.0913  0.2778
38592DOD     C359597  16.000  28.327  16.226  0.1759 -0.1304 -0.0861
38593DOD     C159598  24.347   1.051  10.888 -0.1212 -0.1455  0.1344
38593DOD     C259599  24.479   1.338  10.504 -0.5022  0.0700 -0.0519
38593DOD     C359600  24.735   1.607  10.241 -0.2555 -0.2250 -0.5661
38594DOD     C159601  25.262   8.638   7.082 -0.0111 -0.2705  0.0100
38594DOD     C259602  25.632   8.990   7.043 -0.1553 -0.0544  0.1140
38594DOD     C359603  25.840   9.395   6.855  0.1686 -0.0041  0.2674
38595DOD     C159604  12.342  12.841  12.479 -0.1673 -0.0015 -0.1123
38595DOD     C259605  12.747  12.807  12.262  0.0630  0.4288  0.0247
38595DOD     C359606  13.081  12.465  12.233 -0.1334 -0.1509 -0.1264
38596DOD     C159607  20.815   5.515  12.660  0.0048 -0.2008 -0.0831
38596DOD     C259608  21.140   5.622  13.013 -0.1738 -0.0467 -0.0731
38596DOD     C359609  21.540   5.516  13.326  0.2435 -0.0918 -0.0246
38597DOD     C159610  24.886  22.366  22.274  0.2417  0.2197 -0.0778
38597DOD     C259611  24.836  22.677  21.870 -0.1369  0.0394 -0.1311
38597DOD     C359612  24.984  22.729  21.463  0.1828 -0.2314  0.0806
38598DOD     C159613  17.925   4.595  16.285  0.1153 -0.1781 -0.0696
38598DOD     C259614  17.837   5.038  16.254 -0.0165 -0.2513  0.1804
38598DOD     C359615  17.697   5.324  16.550 -0.2159 -0.1364  0.0516
38599DOD     C159616  29.230   4.745  17.834  0.4128  0.1136  0.1902
38599DOD     C259617  29.647   4.835  17.690  0.0048  0.0500 -0.2200
38599DOD     C359618  30.054   4.615  17.795 -0.1328  0.2315  0.0200
38600DOD     C159619   5.281   2.710   6.731  0.0789  0.0234  0.2847
38600DOD     C259620   5.311   3.054   7.121  0.2703  0.3036  0.1347
38600DOD     C359621   5.182   3.433   7.419 -0.1573  0.3266  0.2847
38601DOD     C159622  18.028   3.061   9.708  0.0272  0.0770  0.0974
38601DOD     C259623  18.043   3.490   9.559  0.0741  0.1849 -0.1397
38601DOD     C359624  18.183   3.925   9.642  0.0322  0.2223  0.1328
38602DOD     C159625   8.986  11.741  14.250  0.2216 -0.0290 -0.1015
38602DOD     C259626   9.213  11.968  14.534 -0.0878  0.2008 -0.2035
38602DOD     C359627   9.087  12.346  14.688  0.1259  0.3715 -0.0050
38603DOD     C159628  26.010  28.025  11.266  0.1977  0.1801  0.0666
38603DOD     C259629  25.729  27.773  11.528  0.2395 -0.1898 -0.1045
38603DOD     C359630  25.598  27.427  11.925  0.0413  0.2439  0.1207
38604DOD     C159631  20.980  23.180  18.424 -0.4185  0.1023 -0.1883
38604DOD     C259632  21.074  23.340  17.987 -0.2272  0.2855 -0.4570
38604DOD     C359633  21.145  23.603  17.602 -0.0161 -0.0269 -0.0803
38605DOD     C159634  17.179   4.833  29.335  0.1317 -0.1595  0.0670
38605DOD     C259635  17.115   4.748  28.877  0.1416 -0.1764  0.0318
38605DOD     C359636  16.900   4.467  28.583 -0.1479  0.2483 -0.0885
38606DOD     C159637  26.349  28.235  27.259 -0.0231  0.0886 -0.1316
38606DOD     C259638  26.435  27.780  27.109 -0.1479  0.0154 -0.1904
38606DOD     C359639  26.185  27.422  27.245 -0.0200 -0.1484 -0.0833
38607DOD     C159640  25.751  25.841  19.046 -0.0333  0.0761  0.2154
38607DOD     C259641  25.740  25.987  18.601 -0.0516 -0.0265 -0.1658
38607DOD     C359642  25.860  25.926  18.112  0.2855  0.0666 -0.2459
38608DOD     C159643   5.135  27.536  14.326  0.0126  0.1653  0.3323
38608DOD     C259644   4.709  27.619  14.526 -0.4506 -0.0033 -0.0311
38608DOD     C359645   4.468  27.900  14.768  0.1491 -0.1461  0.2049
38609DOD     C159646   8.863  11.340   9.094 -0.2862 -0.2250 -0.1891
38609DOD     C259647   8.686  11.130   8.715 -0.1826 -0.2406 -0.1210
38609DOD     C359648   8.327  11.353   8.508  0.0164 -0.1406 -0.0805
38610DOD     C159649  20.141   2.667  22.539  0.3081 -0.2552  0.3401
38610DOD     C259650  19.916   3.093  22.738  0.0615 -0.3702 -0.0925
38610DOD     C359651  20.132   3.396  22.978  0.2769 -0.0576 -0.1540
38611DOD     C159652   7.964   9.051  10.508 -0.0072  0.1606  0.0424
38611DOD     C259653   7.757   9.294  10.843 -0.0296 -0.0032  0.0516
38611DOD     C359654   7.564   9.018  11.192 -0.1548  0.1252  0.0134
38612DOD     C159655  20.586  29.212  15.298  0.2516  0.3031 -0.0444
38612DOD     C259656  20.512  29.057  14.875  0.1828 -0.1084 -0.1794
38612DOD     C359657  20.672  28.888  14.461  0.0531  0.1509  0.0314
38613DOD     C159658  11.091  12.738   2.839 -0.2478 -0.0433 -0.0481
38613DOD     C259659  10.953  12.987   2.443 -0.0220  0.2178  0.4798
38613DOD     C359660  10.758  13.074   2.035 -0.3513 -0.1725  0.1275
38614DOD     C159661  13.113   3.450   2.856  0.2261 -0.0840  0.0367
38614DOD     C259662  13.127   3.050   2.591 -0.1485 -0.1112  0.0858
38614DOD     C359663  13.309   2.685   2.387 -0.1327  0.0481 -0.1929
38615DOD     C159664  25.231   1.122  22.578 -0.2717  0.0929 -0.1911
38615DOD     C259665  25.551   1.456  22.471 -0.1361 -0.1454 -0.0879
38615DOD     C359666  25.690   1.870  22.468 -0.2174  0.1885 -0.3497
38616DOD     C159667  22.804  27.864   6.225 -0.0772  0.0527 -0.1098
38616DOD     C259668  23.001  28.172   6.516 -0.0560  0.1000  0.0870
38616DOD     C359669  22.747  28.505   6.669 -0.0959 -0.0209 -0.2987
38617DOD     C159670  13.181   7.126  25.311 -0.3721  0.0517  0.0478
38617DOD     C259671  12.715   7.159  25.153 -0.3188  0.1043 -0.0707
38617DOD     C359672  12.261   7.417  25.075 -0.0536  0.1702 -0.1823
38618DOD     C159673  24.593  25.732  17.405 -0.1494 -0.0986  0.2221
38618DOD     C259674  24.230  25.603  17.685 -0.0399 -0.0722  0.3909
38618DOD     C359675  23.792  25.483  17.671 -0.0392  0.1136  0.0717
38619DOD     C159676  11.880  26.355  10.667 -0.0537 -0.2065 -0.3771
38619DOD     C259677  12.011  26.290  11.120  0.1434  0.0403  0.0143
38619DOD     C359678  11.872  26.074  11.537  0.1392  0.2820  0.0653
38620DOD     C159679  26.642   3.256  12.481 -0.5177  0.3277  0.2109
38620DOD     C259680  27.032   2.921  12.447 -0.0243  0.3082  0.0229
38620DOD     C359681  27.257   2.552  12.638 -0.2309 -0.0104  0.2150
38621DOD     C159682  20.034  24.293  17.861 -0.2121 -0.0401 -0.0566
38621DOD     C259683  19.898  24.064  18.240 -0.0459  0.0595  0.0693
38621DOD     C359684  20.106  23.964  18.646  0.0857 -0.0212 -0.3269
38622DOD     C159685  10.979  16.222  15.573  0.0570 -0.1958 -0.3015
38622DOD     C259686  11.351  16.463  15.772  0.0234  0.1566  0.3616
38622DOD     C359687  11.436  16.916  15.785  0.0127  0.2518  0.3687
38623DOD     C159688  11.574  17.452   8.054 -0.1609  0.1041 -0.0196
38623DOD     C259689  12.010  17.223   8.026  0.0201  0.0645  0.0674
38623DOD     C359690  12.467  16.991   8.029 -0.0386 -0.2627 -0.1878
38624DOD     C159691  15.590  20.038  18.539 -0.4222 -0.0220 -0.2696
38624DOD     C259692  15.523  20.491  18.642  0.0838 -0.2490 -0.2498
38624DOD     C359693  15.450  20.921  18.607  0.1035  0.0119  0.2278
38625DOD     C159694  18.552   9.104   8.770  0.0090  0.1453 -0.3922
38625DOD     C259695  18.730   9.564   8.741  0.3175  0.0065  0.2582
38625DOD     C359696  18.689  10.012   8.575 -0.0021 -0.0272  0.3254
38626DOD     C159697  28.713   5.293   2.989 -0.4408  0.1626 -0.0935
38626DOD     C259698  28.969   5.558   3.287 -0.1534 -0.3789 -0.0533
38626DOD     C359699  29.376   5.720   3.389 -0.3192 -0.1858 -0.1305
38627DOD     C159700  12.154   0.722  21.518  0.3518 -0.0974 -0.3050
38627DOD     C259701  12.427   1.087  21.750 -0.2334  0.1717  0.2745
38627DOD     C359702  12.853   1.253  21.747  0.1457  0.0069  0.1209
38628DOD     C159703   2.491  13.204  15.404 -0.2703  0.2368  0.3652
38628DOD     C259704   2.736  13.631  15.352  0.0900  0.2029 -0.2101
38628DOD     C359705   3.125  13.780  15.560 -0.1284 -0.2827 -0.1154
38629DOD     C159706   5.876  29.385  24.101  0.0159  0.1117 -0.1167
38629DOD     C259707   6.318  29.486  24.122  0.3118  0.2831  0.1245
38629DOD     C359708   6.746  29.395  24.366 -0.0766  0.0256 -0.2382
38630DOD     C159709   5.067   4.108  13.118  0.1798 -0.0339 -0.0820
38630DOD     C259710   4.952   4.514  13.272 -0.0587 -0.0036  0.4368
38630DOD     C359711   4.683   4.813  13.055 -0.0381 -0.2943  0.3142
38631DOD     C159712  20.550  15.140  14.825  0.0051 -0.0229  0.0347
38631DOD     C259713  20.995  15.271  14.828  0.0418 -0.1160 -0.1305
38631DOD     C359714  21.395  15.542  14.914 -0.0603  0.0666 -0.1969
38632DOD     C159715  10.004  20.273   4.741  0.2790 -0.1259  0.0731
38632DOD     C259716   9.569  20.195   4.865  0.3103  0.1295  0.0051
38632DOD     C359717   9.123  20.259   4.883  0.2900 -0.0166 -0.2422
38633DOD     C159718  27.625  20.977   3.273 -0.0280  0.0330  0.2898
38633DOD     C259719  28.056  20.843   3.414  0.1598 -0.2330 -0.1353
38633DOD     C359720  28.497  20.811   3.365 -0.3316  0.0449 -0.1006
38634DOD     C159721   3.206  11.018   2.641 -0.0539 -0.0589  0.1005
38634DOD     C259722   3.574  10.935   2.865 -0.1281  0.2075  0.1924
38634DOD     C359723   3.890  11.223   3.095  0.2399 -0.1879 -0.0366
38635DOD     C159724  28.977   3.002  21.432  0.6090  0.2687  0.0722
38635DOD     C259725  28.839   3.243  21.025  0.1448 -0.1678  0.1333
38635DOD     C359726  28.658   3.277  20.595  0.1674 -0.2682  0.1340
38636DOD     C159727   2.687  29.522  15.330 -0.1334 -0.1641 -0.1061
38636DOD     C259728   3.034  29.507  15.021  0.1349  0.0917  0.3690
38636DOD     C359729   3.320  29.645  14.722 -0.1992  0.0047 -0.1438
38637DOD     C159730   5.168  11.457  27.235 -0.0782 -0.0722 -0.0063
38637DOD     C259731   5.531  11.273  27.053  0.0101  0.2439 -0.0769
38637DOD     C359732   5.544  10.971  26.707  0.4013 -0.0339  0.2191
38638DOD     C159733  23.153  23.771   9.786 -0.2167  0.2651  0.2769
38638DOD     C259734  22.672  23.820   9.888 -0.2313 -0.2874  0.2243
38638DOD     C359735  22.325  23.583  10.126  0.1415 -0.0841  0.2563
38639DOD     C159736  26.152  20.929  25.802 -0.0371  0.1962  0.1234
38639DOD     C259737  26.277  21.396  25.741  0.3724 -0.1045 -0.1854
38639DOD     C359738  26.056  21.817  25.668  0.0269 -0.4150  0.2253
38640DOD     C159739   2.272  27.210   0.531  0.0902 -0.2439 -0.3546
38640DOD     C259740   1.951  27.351   0.853  0.1124  0.1448 -0.3212
38640DOD     C359741   1.772  27.523   1.253  0.0616 -0.2660 -0.0294
38641DOD     C159742  17.732  12.684   9.472 -0.1791 -0.0649  0.1694
38641DOD     C259743  18.158  12.835   9.295 -0.0799 -0.3717  0.1065
38641DOD     C359744  18.530  12.679   9.114  0.0255 -0.1560  0.4315
38642DOD     C159745  19.832   4.914  15.303  0.0962 -0.2067  0.0367
38642DOD     C259746  19.432   4.883  15.547  0.0962  0.1873  0.3301
38642DOD     C359747  19.433   4.657  15.976 -0.2552  0.2714  0.0186
38643DOD     C159748  14.639  11.707  29.974 -0.0619 -0.2976 -0.3898
38643DOD     C259749  14.739  11.224  29.890  0.1821 -0.0667  0.2102
38643DOD     C359750  14.594  10.886  29.594 -0.3675 -0.0214  0.0459
38644DOD     C159751   2.820  14.757  20.208 -0.2032  0.2073 -0.1358
38644DOD     C259752   3.057  14.754  20.620 -0.3178 -0.3500  0.3273
38644DOD     C359753   3.272  14.952  20.988  0.0290  0.0502  0.1748
38645DOD     C159754   4.941  15.803  14.534 -0.0351 -0.3990 -0.1000
38645DOD     C259755   4.954  15.315  14.758 -0.3431 -0.3073 -0.0819
38645DOD     C359756   5.129  15.352  15.193  0.0687  0.1617  0.2939
38646DOD     C159757   7.585   4.999  16.291  0.1777  0.3278 -0.0908
38646DOD     C259758   7.153   4.897  16.188  0.1658  0.0547  0.0680
38646DOD     C359759   6.730   4.812  16.262 -0.1352  0.0690 -0.1452
38647DOD     C159760  23.151  16.180  26.427  0.1571  0.3125  0.0753
38647DOD     C259761  22.879  15.760  26.333 -0.1216 -0.4067  0.1402
38647DOD     C359762  22.540  15.671  26.685  0.1595 -0.2190 -0.1138
38648DOD     C159763  13.572  15.149   7.460  0.1369  0.1869  0.1715
38648DOD     C259764  13.511  15.100   7.932  0.1891 -0.2947 -0.1718
38648DOD     C359765  13.062  15.086   8.071 -0.2555 -0.1194 -0.1406
38649DOD     C159766  24.395  10.220   2.342  0.0652  0.1051 -0.1348
38649DOD     C259767  24.235   9.833   2.589 -0.2483 -0.1132  0.0313
38649DOD     C359768  23.826   9.702   2.546  0.2515 -0.0241 -0.0151
38650DOD     C159769  15.668   8.785   3.267  0.1561 -0.1740 -0.0550
38650DOD     C259770  15.978   8.432   3.305 -0.0354 -0.0003 -0.0005
38650DOD     C359771  16.168   8.062   3.522  0.0607  0.1575  0.0956
38651DOD     C159772  28.810  27.044  14.589 -0.0412 -0.0833 -0.1171
38651DOD     C259773  28.849  27.491  14.704  0.2219  0.1650  0.1016
38651DOD     C359774  28.476  27.823  14.646  0.1247  0.2666 -0.0414
38652DOD     C159775  28.343   5.203  20.402  0.0740  0.0584  0.0986
38652DOD     C259776  28.708   5.414  20.605  0.2463 -0.2066 -0.1503
38652DOD     C359777  28.848   5.725  20.959  0.1530  0.1216 -0.0247
38653DOD     C159778  26.548  23.973   0.727  0.0897  0.0177 -0.2996
38653DOD     C259779  26.534  23.565   0.952  0.0507  0.2017 -0.1290
38653DOD     C359780  26.377  23.143   1.079 -0.1064 -0.0055 -0.0795
38654DOD     C159781  10.675   4.016   3.099  0.1774  0.0759 -0.2239
38654DOD     C259782  10.199   3.947   2.935 -0.1702 -0.0155 -0.0536
38654DOD     C359783   9.842   4.293   2.868  0.2492 -0.1081 -0.0442
38655DOD     C159784   8.076   6.103   6.888  0.2110  0.0246  0.0319
38655DOD     C259785   8.177   5.881   6.493 -0.1483 -0.0262  0.1516
38655DOD     C359786   8.581   5.833   6.248  0.1283 -0.1285 -0.2725
38656DOD     C159787  28.524  20.225   3.538  0.0416 -0.4034 -0.2785
38656DOD     C259788  28.493  20.226   4.016  0.0960 -0.1702  0.1790
38656DOD     C359789  28.254  20.499   4.266 -0.0746  0.2986 -0.0971
38657DOD     C159790  20.048   3.209  25.014  0.1443 -0.1119  0.0548
38657DOD     C259791  20.073   3.489  25.378 -0.5145  0.3759 -0.7254
38657DOD     C359792  19.847   3.858  25.486 -0.0965 -0.1596 -0.1181
38658DOD     C159793  18.943  20.298  23.103 -0.2444  0.1152 -0.2693
38658DOD     C259794  18.822  19.928  23.350 -0.1236  0.3115 -0.1897
38658DOD     C359795  18.399  19.886  23.531  0.1428 -0.0785 -0.1487
38659DOD     C159796   9.209   6.949   4.230  0.1750  0.0538  0.0314
38659DOD     C259797   9.325   7.327   4.406  0.2208  0.0117 -0.1328
38659DOD     C359798   9.417   7.715   4.175  0.2031  0.0440  0.0678
38660DOD     C159799  27.330   4.913   5.248  0.0700  0.1461  0.0248
38660DOD     C259800  27.651   5.270   5.231 -0.0276 -0.3016  0.0597
38660DOD     C359801  27.969   5.610   5.263 -0.0336 -0.1010  0.2162
38661DOD     C159802  21.362  22.086   8.325 -0.3113 -0.5293 -0.1852
38661DOD     C259803  21.309  22.518   8.097  0.0301 -0.2407  0.0185
38661DOD     C359804  21.358  22.703   7.625  0.0483  0.1434 -0.3587
38662DOD     C159805  28.179   4.225   2.687  0.0569 -0.0335 -0.0851
38662DOD     C259806  28.483   4.526   2.492 -0.0684  0.1557  0.4184
38662DOD     C359807  28.554   4.964   2.636  0.0942 -0.1990 -0.0190
38663DOD     C159808  13.677  14.364  25.535  0.0013 -0.0521 -0.0845
38663DOD     C259809  14.135  14.386  25.703  0.0583  0.1499  0.1618
38663DOD     C359810  14.337  14.504  26.108 -0.0767  0.3168 -0.3724
38664DOD     C159811   2.740  29.637  16.307 -0.0572 -0.2525 -0.0662
38664DOD     C259812   2.825  29.366  15.937 -0.1404  0.0106 -0.0423
38664DOD     C359813   2.843  28.988  15.700 -0.5340  0.1770 -0.1032
38665DOD     C159814   7.241  18.664  11.926  0.0964 -0.0006 -0.0083
38665DOD     C259815   7.111  18.217  11.836  0.0052 -0.1281 -0.0367
38665DOD     C359816   6.992  17.781  11.829 -0.1013  0.2292 -0.2474
38666DOD     C159817   5.958  20.970  12.647 -0.1649  0.2434  0.0649
38666DOD     C259818   6.420  20.985  12.598  0.0255  0.2233 -0.0917
38666DOD     C359819   6.826  20.756  12.684  0.0977 -0.1348 -0.0139
38667DOD     C159820  21.397  -0.017  15.402 -0.1669 -0.3407  0.2177
38667DOD     C259821  21.523   0.267  15.755  0.1264 -0.1862  0.0393
38667DOD     C359822  21.454   0.546  16.114  0.2035 -0.0890  0.0154
38668DOD     C159823  17.183   7.824   4.107  0.1549 -0.1680  0.3417
38668DOD     C259824  17.285   7.390   4.336 -0.0428 -0.0929  0.1398
38668DOD     C359825  17.630   7.408   4.704  0.0848 -0.0755  0.0401
38669DOD     C159826   8.566   9.451   8.737 -0.0224  0.0115 -0.0233
38669DOD     C259827   8.398   9.862   8.675  0.1593  0.0579  0.0064
38669DOD     C359828   8.355  10.353   8.716 -0.0147  0.0047 -0.4183
38670DOD     C159829  13.768   1.705   4.841 -0.0885  0.0611 -0.3484
38670DOD     C259830  13.416   1.683   4.479 -0.3582 -0.1958  0.2278
38670DOD     C359831  13.044   1.450   4.498 -0.0233 -0.3052  0.0003
38671DOD     C159832  29.449  18.813  19.647 -0.1048 -0.1269 -0.2407
38671DOD     C259833  29.256  18.445  19.859 -0.3517 -0.0913  0.1265
38671DOD     C359834  29.526  18.110  20.012 -0.5023  0.3570 -0.1641
38672DOD     C159835  29.014   0.930  10.179 -0.0793 -0.1397  0.0849
38672DOD     C259836  28.644   0.647  10.167 -0.3643 -0.0870 -0.1038
38672DOD     C359837  28.270   0.380  10.250  0.1201  0.1841 -0.0786
38673DOD     C159838   5.858   2.761  20.804 -0.1086 -0.0052 -0.4313
38673DOD     C259839   5.693   2.875  20.380  0.3794 -0.2132  0.0311
38673DOD     C359840   5.515   2.939  19.936 -0.2375 -0.0117 -0.3360
38674DOD     C159841  28.828  15.345   8.094 -0.4295 -0.0173  0.3399
38674DOD     C259842  28.969  15.597   8.449 -0.0502 -0.1391 -0.0552
38674DOD     C359843  28.899  15.662   8.911  0.1974  0.2046  0.3442
38675DOD     C159844  16.118  11.433  22.914  0.2198 -0.1737 -0.0466
38675DOD     C259845  15.781  11.135  22.926  0.0383 -0.1114 -0.2788
38675DOD     C359846  15.636  10.893  22.558 -0.0683 -0.0814 -0.0200
38676DOD     C159847  10.549  25.812  20.939 -0.1432 -0.2142  0.2537
38676DOD     C259848  10.909  26.138  21.012 -0.2936  0.0485  0.0795
38676DOD     C359849  11.372  26.223  21.126 -0.0884  0.3439  0.0532
38677DOD     C159850  11.957  10.677  19.182  0.1094  0.0223  0.0692
38677DOD     C259851  12.165  10.345  19.391 -0.3078 -0.0452  0.1606
38677DOD     C359852  12.286   9.891  19.375  0.0818 -0.1000 -0.1325
38678DOD     C159853  21.068  25.768   9.823  0.1837  0.5332 -0.2665
38678DOD     C259854  21.007  26.141  10.105  0.1562 -0.1326  0.2353
38678DOD     C359855  20.899  26.457  10.449 -0.2617  0.0310  0.1572
38679DOD     C159856  27.255   2.229  21.400 -0.0101  0.0705 -0.1505
38679DOD     C259857  27.324   1.969  21.756  0.3125  0.0518 -0.1415
38679DOD     C359858  27.502   1.614  22.023 -0.0457  0.2535  0.1020
38680DOD     C159859  29.004   3.774   0.200 -0.3046  0.1798  0.1333
38680DOD     C259860  28.817   3.535   0.517  0.0505 -0.2275 -0.0018
38680DOD     C359861  28.694   3.206   0.724 -0.0299 -0.0715  0.1284
38681DOD     C159862   7.916  11.073   5.844  0.0271 -0.0254  0.3348
38681DOD     C259863   7.528  10.981   5.571 -0.2114  0.1870 -0.0882
38681DOD     C359864   7.106  10.900   5.345 -0.1049  0.2751  0.1692
38682DOD     C159865  18.401   8.428   6.528 -0.0133 -0.0566  0.1366
38682DOD     C259866  18.219   8.881   6.585 -0.0660 -0.0014 -0.0878
38682DOD     C359867  17.910   9.211   6.624  0.1956 -0.0538  0.5171
38683DOD     C159868   7.539  27.326   5.071  0.0282  0.1192 -0.0161
38683DOD     C259869   7.450  26.847   5.205 -0.3066  0.0135 -0.0567
38683DOD     C359870   7.133  26.641   5.477  0.0232 -0.2113 -0.2352
38684DOD     C159871  20.701   9.329   8.831 -0.1552  0.1216 -0.0871
38684DOD     C259872  20.827   9.589   8.446 -0.1773  0.0649 -0.0048
38684DOD     C359873  21.061   9.510   8.046 -0.0286  0.0860  0.3030
38685DOD     C159874  19.447  15.837  22.912  0.1056  0.2950 -0.1195
38685DOD     C259875  19.751  16.107  22.749 -0.1051  0.0483  0.1923
38685DOD     C359876  20.217  16.146  22.660 -0.2701  0.0395 -0.1433
38686DOD     C159877   6.633  13.179   8.916 -0.2265 -0.2261 -0.1501
38686DOD     C259878   6.615  13.333   8.477 -0.2677 -0.2234 -0.2301
38686DOD     C359879   6.348  13.578   8.265 -0.0641 -0.4658 -0.1059
38687DOD     C159880   5.194  18.489  29.554 -0.0975  0.3087  0.0346
38687DOD     C259881   5.380  18.072  29.619 -0.0999  0.3191 -0.2076
38687DOD     C359882   5.309  17.604  29.507  0.3122 -0.1527 -0.0690
38688DOD     C159883  26.668   7.235  18.848 -0.2486  0.3961 -0.1657
38688DOD     C259884  26.393   7.000  18.501  0.1513 -0.1012 -0.0510
38688DOD     C359885  26.066   7.012  18.208 -0.3525  0.0987  0.1708
38689DOD     C159886   9.159  17.321   8.455  0.0724  0.0947  0.1601
38689DOD     C259887   8.696  17.153   8.378 -0.2066  0.0255 -0.1470
38689DOD     C359888   8.486  16.809   8.154  0.1855 -0.1749  0.1743
38690DOD     C159889  24.143   9.681  25.500  0.1701  0.1848  0.0938
38690DOD     C259890  24.445   9.960  25.331  0.0627 -0.2002  0.2826
38690DOD     C359891  24.842  10.273  25.287  0.3768  0.0548 -0.0963
38691DOD     C159892  23.136  17.698  19.104  0.0258  0.1466 -0.0576
38691DOD     C259893  22.653  17.675  18.880 -0.1750 -0.2144  0.3019
38691DOD     C359894  22.248  17.855  18.740  0.1651  0.1391  0.1898
38692DOD     C159895  27.115  11.565  19.709  0.3000 -0.0619 -0.0713
38692DOD     C259896  26.878  11.947  19.625 -0.1971  0.3316 -0.1131
38692DOD     C359897  27.060  12.367  19.521  0.0870 -0.1592 -0.0403
38693DOD     C159898  21.170  21.631  17.630 -0.0483  0.1559 -0.0698
38693DOD     C259899  21.388  21.551  18.024  0.1444 -0.2983 -0.2561
38693DOD     C359900  21.508  21.235  18.282  0.2933 -0.2186 -0.3612
38694DOD     C159901  22.445  16.308   6.889  0.4568 -0.0436 -0.4053
38694DOD     C259902  22.552  16.119   6.511 -0.0563  0.1295  0.3568
38694DOD     C359903  22.647  16.039   6.052 -0.0628 -0.1134  0.2140
38695DOD     C159904  25.038   0.230  16.251  0.0488  0.3148  0.0489
38695DOD     C259905  24.666  30.300  16.070 -0.0328  0.0759 -0.1343
38695DOD     C359906  24.258  30.166  16.310  0.2793  0.2335 -0.3363
38696DOD     C159907  12.297   2.697   7.019 -0.1144  0.1452 -0.4086
38696DOD     C259908  11.996   2.892   6.777  0.2513  0.0383  0.3480
38696DOD     C359909  11.717   3.179   6.584  0.1871  0.0272  0.2236
38697DOD     C159910   4.979   5.254  14.725 -0.3596  0.3303 -0.0937
38697DOD     C259911   5.161   4.990  15.117 -0.2603 -0.3515 -0.2093
38697DOD     C359912   4.978   4.554  15.002 -0.0525 -0.2126  0.0274
38698DOD     C159913  13.456  16.393   2.793 -0.2808  0.1346  0.0666
38698DOD     C259914  13.452  16.668   2.395  0.0810  0.0924  0.2290
38698DOD     C359915  13.463  16.631   1.962  0.0228 -0.3433 -0.1362
38699DOD     C159916   3.666  30.134   2.732 -0.0964  0.1400  0.1286
38699DOD     C259917   3.341   0.110   2.537  0.0957 -0.1349 -0.0302
38699DOD     C359918   2.972   0.011   2.269 -0.0363 -0.1590 -0.1965
38700DOD     C159919   7.263   2.645   6.041 -0.2207 -0.1851  0.2713
38700DOD     C259920   6.862   2.781   5.860  0.1597  0.0578  0.5119
38700DOD     C359921   6.925   3.092   5.501  0.0131  0.0551 -0.3577
38701DOD     C159922   1.885  23.445   5.100  0.0407  0.1338  0.1713
38701DOD     C259923   2.194  23.076   4.985  0.0749  0.3574  0.0955
38701DOD     C359924   2.374  22.696   4.821  0.1303 -0.0161 -0.1327
38702DOD     C159925  13.275  14.271   2.468  0.3351 -0.0412 -0.2074
38702DOD     C259926  13.346  14.177   1.989 -0.0548  0.2503  0.0144
38702DOD     C359927  13.315  14.075   1.499  0.0995 -0.3889  0.0935
38703DOD     C159928  20.061   1.456   9.615 -0.1468 -0.0427 -0.1050
38703DOD     C259929  19.619   1.614   9.540  0.1026  0.0731 -0.3341
38703DOD     C359930  19.195   1.682   9.302 -0.1328  0.3045  0.0407
38704DOD     C159931  26.974  19.255  29.958  0.0783  0.1850 -0.2110
38704DOD     C259932  27.115  18.818  30.167  0.0743  0.3033 -0.0307
38704DOD     C359933  27.416  18.436  30.174 -0.0331  0.1913 -0.1663
38705DOD     C159934  21.878  23.630   6.913 -0.2843 -0.1638 -0.1811
38705DOD     C259935  21.971  23.647   6.422  0.3937  0.1343 -0.1443
38705DOD     C359936  22.030  23.833   6.018  0.1702  0.3717  0.0607
38706DOD     C159937   2.717  30.013  28.847  0.3861 -0.1048 -0.2675
38706DOD     C259938   2.329  29.683  28.814 -0.1004 -0.3845 -0.1492
38706DOD     C359939   2.137  29.331  29.134  0.1646 -0.1000 -0.1614
38707DOD     C159940  15.019  18.217   9.428  0.0472  0.1800 -0.2806
38707DOD     C259941  15.303  18.502   9.722 -0.0994 -0.0945 -0.1565
38707DOD     C359942  15.132  18.652  10.150 -0.1734  0.3264 -0.0776
38708DOD     C159943  30.167  28.293  13.570 -0.2002 -0.0714  0.0144
38708DOD     C259944   0.191  28.389  13.924 -0.0426 -0.0686  0.0074
38708DOD     C359945   0.474  28.302  14.327  0.0441  0.0437  0.1045
38709DOD     C159946   8.300  12.678  19.457 -0.0596  0.3485 -0.2094
38709DOD     C259947   8.166  12.262  19.660 -0.1251 -0.1078  0.2716
38709DOD     C359948   8.120  12.111  20.154 -0.2250  0.1787  0.0684
38710DOD     C159949  22.909  22.866  22.150  0.0841 -0.0873  0.0073
38710DOD     C259950  22.621  23.007  21.815  0.3190  0.2419 -0.0772
38710DOD     C359951  22.192  23.001  21.696  0.1968  0.2217  0.0040
38711DOD     C159952  27.169  28.234  13.951 -0.5327  0.3795  0.1619
38711DOD     C259953  27.123  28.022  13.554  0.4585  0.3127  0.0682
38711DOD     C359954  27.363  27.867  13.202 -0.3437 -0.3255  0.2359
38712DOD     C159955   7.553  27.566  14.558  0.0620  0.1300 -0.0840
38712DOD     C259956   7.814  27.612  14.910  0.1486 -0.2798  0.2381
38712DOD     C359957   8.135  27.980  14.985 -0.2362  0.0914  0.0597
38713DOD     C159958  28.114  17.599   7.529 -0.2105  0.2728  0.1011
38713DOD     C259959  28.030  17.143   7.582  0.2020 -0.1046 -0.2271
38713DOD     C359960  28.309  16.753   7.542 -0.0878  0.0455  0.4319
38714DOD     C159961  21.138  11.332  28.066 -0.0439  0.0210 -0.0628
38714DOD     C259962  20.660  11.401  28.292  0.0266 -0.1536  0.0739
38714DOD     C359963  20.400  11.016  28.324  0.1269  0.0783 -0.2939
38715DOD     C159964  23.065   6.683  16.487 -0.2397  0.0781  0.1850
38715DOD     C259965  23.336   6.828  16.127 -0.0974 -0.0632  0.1276
38715DOD     C359966  23.724   7.125  15.984  0.1890 -0.1363  0.0539
38716DOD     C159967  19.810  29.359   2.635 -0.2771 -0.1439 -0.1515
38716DOD     C259968  20.205  29.460   2.880 -0.1254 -0.1203 -0.2256
38716DOD     C359969  20.392  29.772   3.283  0.1345  0.3240  0.0924
38717DOD     C159970  19.227  22.903  28.277 -0.1347  0.1138  0.2012
38717DOD     C259971  19.665  22.945  28.140  0.0260  0.3113 -0.2249
38717DOD     C359972  20.028  23.195  27.921  0.4452 -0.3213 -0.0676
38718DOD     C159973   0.380  26.405  14.768 -0.3366  0.1935 -0.2233
38718DOD     C259974   0.801  26.282  14.759  0.1117  0.0387 -0.0625
38718DOD     C359975   1.103  25.928  14.858  0.2966 -0.2203  0.0605
38719DOD     C159976  23.477  23.104  12.116  0.0884  0.1119 -0.1038
38719DOD     C259977  23.329  22.613  12.226  0.2440 -0.0471  0.1357
38719DOD     C359978  23.123  22.247  12.328  0.0343 -0.0063 -0.3696
38720DOD     C159979  22.381  22.911  24.581 -0.0986  0.2578  0.0638
38720DOD     C259980  22.729  22.870  24.318 -0.1898  0.3956  0.2100
38720DOD     C359981  22.942  23.134  24.023  0.0547  0.1313  0.0658
38721DOD     C159982  29.298  13.209   8.060  0.0038  0.1738 -0.1797
38721DOD     C259983  28.812  13.247   8.105  0.1346  0.5014 -0.0448
38721DOD     C359984  28.425  13.083   8.222  0.0966  0.2013  0.2310
38722DOD     C159985  25.943  24.429   4.308 -0.3270 -0.1786 -0.0724
38722DOD     C259986  26.001  23.984   4.429 -0.1651 -0.0332  0.2048
38722DOD     C359987  26.153  23.589   4.699 -0.0472  0.1053 -0.1243
38723DOD     C159988  21.428  13.465   5.455 -0.1648 -0.1380  0.0102
38723DOD     C259989  21.878  13.560   5.634 -0.4454  0.0720  0.0757
38723DOD     C359990  22.260  13.362   5.955  0.0425  0.2057 -0.3331
38724DOD     C159991  18.393  16.252  28.008  0.1496  0.0337 -0.0722
38724DOD     C259992  18.444  16.591  28.314  0.1416  0.0466  0.1761
38724DOD     C359993  18.589  16.798  28.682  0.2822 -0.3393 -0.1171
38725DOD     C159994   6.522   3.279  29.268 -0.0634 -0.1724  0.0287
38725DOD     C259995   6.125   3.327  29.081 -0.0901 -0.1650  0.0794
38725DOD     C359996   5.828   3.685  29.214 -0.1826 -0.0720  0.2215
38726DOD     C159997   5.923  23.230   0.618 -0.2252  0.1546 -0.1199
38726DOD     C259998   6.357  23.408   0.518  0.0608 -0.2197  0.0794
38726DOD     C359999   6.646  23.649   0.774  0.1770 -0.1756 -0.1160
38727DOD     C160000   0.517   4.732  16.756  0.0014  0.0736  0.0034
38727DOD     C260001   0.510   4.235  16.723  0.0074 -0.3020 -0.1935
38727DOD     C360002   0.532   3.837  16.868  0.1958 -0.2364 -0.1321
38728DOD     C160003  11.308  12.762   5.140  0.2759 -0.2176  0.2167
38728DOD     C260004  11.659  12.719   4.853 -0.1194 -0.3947  0.0400
38728DOD     C360005  11.643  12.418   4.523 -0.1837  0.1708  0.0610
38729DOD     C160006  15.715  17.246  21.412 -0.0482 -0.0826 -0.2577
38729DOD     C260007  15.746  17.372  20.975 -0.1178 -0.1194  0.0026
38729DOD     C360008  15.819  17.509  20.566 -0.3058 -0.2652 -0.1172
38730DOD     C160009   2.236  11.465   8.753 -0.0527 -0.0336 -0.0671
38730DOD     C260010   2.154  11.637   8.315  0.1148 -0.0796 -0.1408
38730DOD     C360011   2.350  11.659   7.919 -0.2030  0.1435  0.0184
38731DOD     C160012   5.418  25.410   5.321  0.3659  0.2224  0.3316
38731DOD     C260013   5.633  25.569   4.993 -0.1640  0.0211 -0.1607
38731DOD     C360014   5.867  25.837   4.738  0.1727  0.0995  0.4151
38732DOD     C160015   1.839  28.949  11.492 -0.0603 -0.3001  0.1102
38732DOD     C260016   2.301  28.771  11.491 -0.0960 -0.2293  0.2173
38732DOD     C360017   2.576  28.457  11.359 -0.0452 -0.0746 -0.4588
38733DOD     C160018  16.315  28.666  19.393  0.1869  0.1616  0.0327
38733DOD     C260019  15.907  28.475  19.392  0.1070  0.0345  0.0434
38733DOD     C360020  15.692  28.048  19.330 -0.1541 -0.0104  0.0601
38734DOD     C160021   3.743   3.518  18.681  0.0159  0.2516  0.7021
38734DOD     C260022   3.563   3.278  19.031  0.3112  0.1081  0.0027
38734DOD     C360023   3.098   3.204  19.061 -0.1002 -0.1296  0.2285
38735DOD     C160024  21.923  12.558   5.820  0.1571  0.1179 -0.1421
38735DOD     C260025  22.078  12.902   6.131  0.1911 -0.2067 -0.2592
38735DOD     C360026  22.373  13.005   6.414 -0.0658 -0.2102  0.3620
38736DOD     C160027  29.354  19.053  12.634 -0.1502 -0.1585  0.2747
38736DOD     C260028  29.820  19.151  12.565 -0.0368 -0.0629 -0.2404
38736DOD     C360029  30.106  19.369  12.350  0.1014 -0.0462 -0.2857
38737DOD     C160030  29.734  27.625   7.540 -0.0427 -0.3566  0.2330
38737DOD     C260031  29.640  27.327   7.202  0.3925  0.1809  0.2356
38737DOD     C360032  29.382  26.956   7.248 -0.0588 -0.0488 -0.2259
38738DOD     C160033  24.492  25.266  11.536 -0.2222 -0.0447 -0.0557
38738DOD     C260034  25.019  25.291  11.411  0.2401  0.1301  0.2272
38738DOD     C360035  25.435  25.108  11.436  0.0393 -0.2870  0.0359
38739DOD     C160036   9.038   9.338   4.009 -0.0736 -0.0647  0.2241
38739DOD     C260037   8.706   9.646   4.012 -0.1101 -0.0718 -0.2057
38739DOD     C360038   8.503   9.814   4.461  0.3056  0.0294 -0.0616
38740DOD     C160039  16.061   6.782   7.994  0.0069 -0.0975 -0.0514
38740DOD     C260040  16.053   6.540   7.637  0.2670 -0.3272 -0.3198
38740DOD     C360041  16.076   6.171   7.331  0.2802  0.4135 -0.2005
38741DOD     C160042  15.090  17.303   8.583  0.1891  0.0080  0.1445
38741DOD     C260043  15.289  17.604   8.630 -0.0149  0.1203  0.1179
38741DOD     C360044  15.324  17.947   8.985 -0.0234  0.1378  0.2628
38742DOD     C160045  10.614  27.739   9.284 -0.0085  0.2299 -0.1523
38742DOD     C260046  11.059  27.675   9.405 -0.1760  0.1240  0.0307
38742DOD     C360047  11.496  27.693   9.504  0.0086 -0.1321 -0.3288
38743DOD     C160048   0.358   8.533  30.244 -0.0006  0.0267 -0.1966
38743DOD     C260049   0.201   8.306   0.283 -0.0611 -0.2862  0.0690
38743DOD     C360050   0.307   8.215   0.743  0.2065  0.2176 -0.0167
38744DOD     C160051   7.945   5.039  21.603  0.1126 -0.2046 -0.1818
38744DOD     C260052   7.917   4.945  21.113 -0.0834 -0.0476 -0.0581
38744DOD     C360053   7.757   4.861  20.644  0.3196  0.0059  0.2779
38745DOD     C160054   2.503   2.849   7.926  0.1787  0.1573 -0.3901
38745DOD     C260055   2.461   2.416   8.021  0.2134  0.3159  0.0117
38745DOD     C360056   2.203   2.053   8.219  0.0994  0.0569  0.3212
38746DOD     C160057  28.586  28.671  29.453  0.1421  0.2634 -0.0183
38746DOD     C260058  28.119  28.558  29.586 -0.1727  0.0487 -0.0050
38746DOD     C360059  27.744  28.469  29.342 -0.2458 -0.0154  0.0714
38747DOD     C160060   7.414  14.399  28.859 -0.0705  0.2321  0.0100
38747DOD     C260061   7.571  14.846  28.829  0.1769  0.0206 -0.0616
38747DOD     C360062   7.490  15.315  28.802 -0.1577 -0.1769 -0.2695
38748DOD     C160063  14.976  17.462  28.611  0.1374 -0.0086 -0.1814
38748DOD     C260064  15.153  17.069  28.442  0.0568 -0.2098  0.0907
38748DOD     C360065  15.248  17.031  27.992 -0.0979  0.0458 -0.0515
38749DOD     C160066   8.834  25.191  20.956 -0.3173  0.1566 -0.1881
38749DOD     C260067   8.437  24.945  21.042 -0.0546 -0.1221 -0.0288
38749DOD     C360068   8.008  24.849  21.188 -0.1050 -0.1219  0.1485
38750DOD     C160069   9.859  17.798  10.270 -0.0715 -0.3453  0.0203
38750DOD     C260070   9.605  17.754   9.956  0.2126 -0.0455  0.0307
38750DOD     C360071   9.404  18.019   9.664  0.1212  0.0269 -0.3948
38751DOD     C160072   2.842  27.373  28.056 -0.1604 -0.0814 -0.3702
38751DOD     C260073   2.483  27.422  28.310  0.1420  0.0874  0.1765
38751DOD     C360074   2.065  27.271  28.499 -0.0424 -0.3037 -0.1570
38752DOD     C160075  16.805  20.367  24.861 -0.0682 -0.4098 -0.2624
38752DOD     C260076  16.312  20.489  25.041 -0.2347  0.2860 -0.1094
38752DOD     C360077  15.960  20.622  24.814  0.1189  0.0986  0.1050
38753DOD     C160078  23.104   3.990   7.753 -0.0210  0.1613 -0.2071
38753DOD     C260079  23.174   4.418   8.011  0.2255 -0.3753  0.1462
38753DOD     C360080  23.137   4.788   8.317 -0.0728 -0.3195  0.3054
38754DOD     C160081  13.396  13.914  25.747  0.0942 -0.1496  0.2721
38754DOD     C260082  13.437  13.532  25.550 -0.0834 -0.0731 -0.2197
38754DOD     C360083  13.288  13.090  25.590 -0.2351  0.1930 -0.0731
38755DOD     C160084  13.142   8.242  24.865  0.1442 -0.2062 -0.0238
38755DOD     C260085  13.560   8.112  24.875  0.1116 -0.0464  0.0155
38755DOD     C360086  13.696   7.692  24.885  0.2065  0.3232 -0.1269
38756DOD     C160087  24.002  29.022   7.233  0.2763 -0.0492 -0.1715
38756DOD     C260088  23.961  28.597   7.264 -0.4537  0.0082 -0.0271
38756DOD     C360089  24.061  28.223   7.468  0.0441  0.0563 -0.0092
38757DOD     C160090   8.531   3.954  29.762  0.1350  0.0897  0.2476
38757DOD     C260091   8.309   3.986  30.176  0.2305  0.1757 -0.2152
38757DOD     C360092   7.861   3.967  30.199 -0.0121 -0.0616 -0.1231
38758DOD     C160093   4.735  11.605  16.928 -0.2424 -0.0918 -0.0479
38758DOD     C260094   4.632  11.939  16.628  0.0064  0.1909 -0.0181
38758DOD     C360095   4.481  12.170  16.239  0.0583 -0.2198 -0.1069
38759DOD     C160096   1.705  15.060  26.087  0.2336  0.1012  0.3540
38759DOD     C260097   1.897  14.690  26.084 -0.1309  0.0163  0.1936
38759DOD     C360098   1.920  14.290  25.859 -0.2567 -0.3039 -0.0168
38760DOD     C160099   5.336  29.308   0.212  0.1132  0.0398 -0.1277
38760DOD     C260100   5.368  29.703  30.267  0.3673  0.3769 -0.0401
38760DOD     C360101   5.393  30.177  30.220  0.3287  0.1216  0.1402
38761DOD     C160102  13.121  10.514  27.042  0.1538  0.0808  0.0248
38761DOD     C260103  13.350  10.637  26.625  0.1892 -0.0916  0.4356
38761DOD     C360104  13.753  10.732  26.433 -0.2710  0.2169  0.2865
38762DOD     C160105  18.860  18.146   4.147 -0.0133  0.0243  0.3138
38762DOD     C260106  18.989  18.455   3.793 -0.1943  0.4112  0.2537
38762DOD     C360107  19.262  18.747   3.555  0.0999  0.0728  0.1591
38763DOD     C160108  13.501  23.351   7.317 -0.0344 -0.2999  0.0220
38763DOD     C260109  13.037  23.453   7.474 -0.0400 -0.2103  0.2440
38763DOD     C360110  12.551  23.421   7.648 -0.2558 -0.1116  0.4022
38764DOD     C160111   8.700  28.718  16.219  0.1449 -0.1520  0.0152
38764DOD     C260112   8.954  29.076  16.135  0.1542 -0.1065 -0.2743
38764DOD     C360113   9.087  29.395  15.906 -0.0016 -0.0369  0.1914
38765DOD     C160114  15.723  22.625  22.553 -0.1041 -0.0901 -0.0494
38765DOD     C260115  15.369  22.832  22.307  0.1589 -0.1468  0.0829
38765DOD     C360116  15.030  23.106  22.274  0.5342  0.2248  0.1306
38766DOD     C160117  19.243   7.706  17.999  0.0757  0.2030 -0.2639
38766DOD     C260118  19.021   8.093  17.940 -0.1013 -0.0709 -0.1046
38766DOD     C360119  18.786   8.336  18.231  0.0295 -0.2162  0.2177
38767DOD     C160120   9.838  29.550  13.145 -0.0344  0.2458  0.1139
38767DOD     C260121  10.246  29.750  13.025  0.0634  0.0215 -0.3516
38767DOD     C360122  10.636  29.922  12.869 -0.1632  0.2859 -0.0196
38768DOD     C160123   2.147  21.870  21.427 -0.2324  0.1598 -0.3185
38768DOD     C260124   2.263  21.428  21.599 -0.1800  0.1818  0.0302
38768DOD     C360125   2.551  21.054  21.812  0.0290 -0.1694 -0.0718
38769DOD     C160126  24.969  15.973  21.661  0.0364 -0.4105  0.0051
38769DOD     C260127  25.226  16.395  21.805  0.2082  0.2457  0.4190
38769DOD     C360128  25.498  16.593  22.140  0.1014  0.0902 -0.0314
38770DOD     C160129  24.999  20.508  17.915  0.4726  0.2131  0.1870
38770DOD     C260130  24.501  20.647  18.022 -0.2873  0.1168  0.1122
38770DOD     C360131  24.167  20.362  18.017 -0.0801  0.1753 -0.1029
38771DOD     C160132  10.263   6.844   0.923 -0.0015 -0.2041  0.2189
38771DOD     C260133   9.865   6.618   0.726 -0.1221 -0.0349 -0.1339
38771DOD     C360134   9.527   6.452   0.414 -0.0638 -0.3468 -0.2171
38772DOD     C160135  12.209  21.444  24.764 -0.2008 -0.2026 -0.2044
38772DOD     C260136  12.284  21.607  25.197 -0.4441  0.1799 -0.1451
38772DOD     C360137  12.548  21.684  25.641 -0.1045  0.2417  0.2428
38773DOD     C160138   3.656  24.247   6.780  0.1445  0.1095 -0.2910
38773DOD     C260139   3.661  24.020   7.181 -0.1070  0.1574 -0.1112
38773DOD     C360140   3.430  23.941   7.535  0.2364  0.1014  0.1161
38774DOD     C160141   5.736  17.678   1.246  0.0088  0.1307 -0.0926
38774DOD     C260142   6.063  17.308   1.311 -0.0350 -0.0969  0.0327
38774DOD     C360143   6.070  16.852   1.511 -0.0933  0.2029 -0.2637
38775DOD     C160144   3.382  25.584   6.033 -0.3627 -0.1495 -0.0086
38775DOD     C260145   3.095  25.338   5.879  0.2399  0.0828  0.2006
38775DOD     C360146   2.581  25.459   5.788 -0.2790  0.1993  0.1134
38776DOD     C160147   0.967   7.576  15.520  0.0502  0.3172 -0.0023
38776DOD     C260148   0.812   7.490  15.957  0.0754  0.3653  0.0496
38776DOD     C360149   0.798   7.420  16.415 -0.1277 -0.0839  0.1642
38777DOD     C160150   0.143  18.119  26.598  0.0186 -0.2798  0.0908
38777DOD     C260151   0.473  18.520  26.670 -0.0699  0.0940 -0.3223
38777DOD     C360152   0.705  18.940  26.748 -0.3359 -0.1710 -0.0337
38778DOD     C160153   8.472  13.458  28.592 -0.0807 -0.0758  0.4024
38778DOD     C260154   8.101  13.569  28.399  0.0732 -0.0313 -0.0148
38778DOD     C360155   7.674  13.705  28.225  0.0113  0.3415  0.1216
38779DOD     C160156  22.033  16.636  11.783  0.1414 -0.2446  0.2222
38779DOD     C260157  22.327  16.267  11.764 -0.0126 -0.0422 -0.2081
38779DOD     C360158  22.743  16.116  11.996  0.2226 -0.0823  0.0381
38780DOD     C160159   9.053  26.031  15.168  0.0021 -0.3099  0.5057
38780DOD     C260160   8.940  25.703  14.828  0.2294 -0.1581  0.2555
38780DOD     C360161   8.754  25.433  14.489 -0.1623 -0.1838  0.2112
38781DOD     C160162   5.996   5.808  18.390 -0.0826  0.3285  0.2739
38781DOD     C260163   6.268   5.423  18.229 -0.0218 -0.2619 -0.0380
38781DOD     C360164   6.447   5.098  17.957  0.4280 -0.1155  0.1082
38782DOD     C160165   9.866   4.926   9.390 -0.0571 -0.0608  0.0412
38782DOD     C260166  10.210   5.170   9.244  0.0340 -0.1201  0.0230
38782DOD     C360167  10.284   5.415   8.818  0.0925 -0.0705  0.0163
38783DOD     C160168   5.785  21.083  11.649 -0.0765 -0.3916  0.5567
38783DOD     C260169   5.457  20.809  11.630  0.1636  0.0064 -0.1186
38783DOD     C360170   5.502  20.360  11.582  0.0480  0.0860 -0.0389
38784DOD     C160171  28.617   7.351   3.081 -0.1507  0.0918 -0.0254
38784DOD     C260172  28.229   7.478   2.872 -0.1005  0.1902 -0.0719
38784DOD     C360173  27.948   7.680   2.580  0.2547 -0.0753  0.0168
38785DOD     C160174  26.609  27.992   5.952  0.1611  0.0446 -0.0419
38785DOD     C260175  26.730  28.290   6.285 -0.1836 -0.1503 -0.1914
38785DOD     C360176  26.744  28.714   6.544  0.0728  0.1127  0.0360
38786DOD     C160177  10.469  12.320  12.492 -0.0353 -0.0466  0.2417
38786DOD     C260178  10.258  11.971  12.391 -0.0047 -0.0917  0.0981
38786DOD     C360179  10.080  11.668  12.574 -0.2470 -0.0613  0.0846
38787DOD     C160180  13.448  24.704  15.925 -0.3375  0.1953 -0.2127
38787DOD     C260181  13.750  24.978  15.661  0.1924 -0.1607  0.1004
38787DOD     C360182  13.842  25.357  15.330  0.1174 -0.3930 -0.3398
38788DOD     C160183  14.160  29.390  15.970  0.0192  0.4425  0.2039
38788DOD     C260184  13.897  29.184  15.655 -0.0638  0.0704 -0.0710
38788DOD     C360185  13.546  28.897  15.622  0.1400  0.4654  0.0848
38789DOD     C160186   6.482  18.753  22.609 -0.1478  0.1989 -0.1334
38789DOD     C260187   6.928  18.838  22.583 -0.5396 -0.0248  0.2279
38789DOD     C360188   7.297  19.043  22.756  0.1484 -0.0246 -0.2046
38790DOD     C160189  13.803  22.359  15.898  0.0475  0.2628  0.1622
38790DOD     C260190  14.242  22.548  15.937 -0.0339  0.1559  0.1048
38790DOD     C360191  14.674  22.445  15.704 -0.0210  0.0709  0.0335
38791DOD     C160192   9.764   3.505  12.776  0.0929 -0.2606 -0.3381
38791DOD     C260193   9.321   3.557  12.520 -0.1613  0.0105  0.0627
38791DOD     C360194   9.017   3.255  12.375  0.1292 -0.0967 -0.2753
38792DOD     C160195  29.675  18.945   8.996 -0.1622 -0.0998 -0.1474
38792DOD     C260196  29.300  18.839   8.775  0.1038  0.0781  0.0258
38792DOD     C360197  29.060  18.494   8.723  0.0589  0.0739  0.2504
38793DOD     C160198   8.341  22.714   2.180 -0.1784  0.2571  0.0617
38793DOD     C260199   8.129  22.620   1.732  0.1080  0.0870 -0.2430
38793DOD     C360200   8.139  22.860   1.319 -0.0332  0.3279 -0.0719
38794DOD     C160201  11.220   4.767  22.491 -0.1529  0.1758 -0.0880
38794DOD     C260202  11.319   5.124  22.147  0.2128  0.0106 -0.2622
38794DOD     C360203  11.253   5.116  21.651 -0.1850  0.0641  0.0251
38795DOD     C160204  25.103   8.704  13.289 -0.0773 -0.3650 -0.1412
38795DOD     C260205  25.122   8.640  13.798 -0.4669 -0.1667 -0.3957
38795DOD     C360206  24.977   8.750  14.254 -0.0319 -0.0897 -0.2712
38796DOD     C160207  24.181   6.779   6.667  0.0272 -0.0500 -0.0561
38796DOD     C260208  24.069   6.977   7.114  0.4928  0.0993 -0.2068
38796DOD     C360209  24.047   7.300   7.487 -0.3565  0.0955  0.3183
38797DOD     C160210   7.933  15.610   5.096  0.0085  0.1456 -0.0627
38797DOD     C260211   8.225  15.362   5.306  0.0880 -0.0546  0.0081
38797DOD     C360212   8.407  14.914   5.308  0.0409 -0.0354 -0.1976
38798DOD     C160213  16.788   6.492  22.952 -0.0586  0.2876 -0.0774
38798DOD     C260214  16.808   6.585  23.368 -0.0792 -0.2848  0.0667
38798DOD     C360215  16.664   6.986  23.612  0.0030 -0.4186  0.0442
38799DOD     C160216   5.940  22.975  18.405  0.0339  0.1673  0.2853
38799DOD     C260217   6.041  23.410  18.535  0.0904 -0.3571 -0.0830
38799DOD     C360218   5.903  23.812  18.342  0.2108 -0.2460 -0.1507
38800DOD     C160219   3.772  28.087  11.191 -0.1488  0.1694  0.1230
38800DOD     C260220   4.172  28.243  11.270 -0.1906  0.4971  0.0973
38800DOD     C360221   4.368  28.648  11.162  0.1205  0.1207  0.1520
38801DOD     C160222  24.518   3.351  12.037 -0.3029 -0.3012 -0.2601
38801DOD     C260223  24.852   3.490  12.371 -0.0555 -0.0232 -0.0785
38801DOD     C360224  25.276   3.274  12.359  0.0439  0.0492  0.0905
38802DOD     C160225  18.289   0.257  12.851 -0.1555 -0.0513 -0.1897
38802DOD     C260226  18.653   0.215  13.113 -0.1097  0.0792 -0.0707
38802DOD     C360227  19.128   0.147  13.237  0.0582 -0.2014  0.1993
38803DOD     C160228   3.184  21.619  22.546 -0.3364 -0.1674 -0.0257
38803DOD     C260229   3.404  21.905  22.851  0.2810 -0.0079  0.0523
38803DOD     C360230   3.390  22.055  23.289 -0.2074 -0.0310  0.0153
38804DOD     C160231   3.644  23.505  16.365 -0.4042 -0.1955 -0.0307
38804DOD     C260232   3.923  23.879  16.517  0.0891 -0.2205 -0.2505
38804DOD     C360233   4.245  24.244  16.360 -0.0413 -0.1460 -0.1151
38805DOD     C160234  27.931  23.402  22.048  0.1474 -0.0080  0.1791
38805DOD     C260235  27.764  23.680  22.445 -0.1306  0.1261 -0.0586
38805DOD     C360236  27.637  23.937  22.786 -0.0634  0.0960 -0.1817
38806DOD     C160237  15.634  20.491  27.551 -0.2956  0.3956  0.2543
38806DOD     C260238  15.633  20.693  27.986 -0.0323 -0.2171  0.1460
38806DOD     C360239  15.456  20.664  28.411  0.1292 -0.2477  0.2089
38807DOD     C160240  30.354  20.634  24.713  0.3354  0.0968  0.1190
38807DOD     C260241  29.876  20.565  24.747  0.2263  0.2404 -0.0400
38807DOD     C360242  29.781  20.490  25.198  0.1584 -0.3115 -0.0585
38808DOD     C160243   2.883  26.655   0.176 -0.0687  0.0908 -0.0865
38808DOD     C260244   3.187  26.922   0.093 -0.1135 -0.1325  0.3889
38808DOD     C360245   3.286  27.324  -0.007  0.1326  0.1884 -0.0896
38809DOD     C160246  16.674  10.686  30.042 -0.2048  0.0728 -0.0364
38809DOD     C260247  17.124  10.522  29.887 -0.1459 -0.0518 -0.0740
38809DOD     C360248  17.535  10.579  30.063 -0.4363  0.1818 -0.2743
38810DOD     C160249  29.316  26.135  24.750  0.2648 -0.0398 -0.2512
38810DOD     C260250  29.429  26.398  25.147 -0.0891 -0.2800 -0.0303
38810DOD     C360251  29.467  26.801  25.413 -0.0151  0.3172  0.0335
38811DOD     C160252  29.800  22.722  12.716  0.2799  0.0009  0.1020
38811DOD     C260253  29.850  23.150  12.987  0.0289  0.2660 -0.2165
38811DOD     C360254  29.873  23.610  13.121 -0.2937 -0.0634  0.1720
38812DOD     C160255  12.423   9.674  13.154 -0.2396  0.0059 -0.3436
38812DOD     C260256  12.472   9.958  12.836 -0.0138 -0.1601  0.1340
38812DOD     C360257  12.288  10.284  12.505  0.0176  0.1300 -0.1326
38813DOD     C160258  25.729  20.307  17.318  0.0625  0.1818  0.0642
38813DOD     C260259  25.664  19.949  17.593  0.1073 -0.1058  0.0852
38813DOD     C360260  25.411  19.687  17.896  0.0263  0.1369  0.0661
38814DOD     C160261  10.593  25.559  11.869 -0.0185 -0.1102 -0.2770
38814DOD     C260262  10.168  25.700  11.924 -0.0275  0.0925 -0.0198
38814DOD     C360263   9.782  25.683  11.666  0.0425 -0.4490 -0.0832
38815DOD     C160264  12.832  19.129  14.000  0.0065 -0.2826 -0.0900
38815DOD     C260265  12.879  18.679  13.850  0.0943  0.2051 -0.2562
38815DOD     C360266  12.834  18.201  14.030 -0.1241 -0.0604  0.4375
38816DOD     C160267  11.653  24.742  23.131 -0.0323  0.2812  0.0804
38816DOD     C260268  11.979  24.580  23.527 -0.0030 -0.0015  0.0594
38816DOD     C360269  12.436  24.453  23.568 -0.0968 -0.0617 -0.3386
38817DOD     C160270  19.887  12.599  25.065  0.0986  0.0430  0.0543
38817DOD     C260271  19.695  12.977  24.973 -0.2910 -0.4788 -0.0790
38817DOD     C360272  19.563  13.300  24.706  0.0813 -0.0751 -0.2092
38818DOD     C160273   5.139  26.916  17.250  0.3536 -0.2402 -0.0913
38818DOD     C260274   4.904  26.489  17.346 -0.4088 -0.3612 -0.1552
38818DOD     C360275   4.907  26.047  17.206 -0.0240 -0.2083 -0.2132
38819DOD     C160276  13.201   9.683  19.744  0.0230  0.0169 -0.2819
38819DOD     C260277  12.895   9.921  20.029  0.3157 -0.0635 -0.2511
38819DOD     C360278  12.407   9.946  19.892  0.0840  0.0695  0.1174
38820DOD     C160279  13.886   9.185  22.347 -0.1175 -0.1272 -0.0548
38820DOD     C260280  14.246   9.417  22.609  0.4615 -0.0657 -0.1647
38820DOD     C360281  14.605   9.654  22.836 -0.3095  0.3905 -0.0256
38821DOD     C160282  12.860  13.890  19.314 -0.2384 -0.0698  0.1271
38821DOD     C260283  12.938  13.968  18.813 -0.1700 -0.0078 -0.0165
38821DOD     C360284  12.918  14.387  18.630  0.1492  0.0805  0.1266
38822DOD     C160285  17.109  10.120  13.248  0.0347  0.0008 -0.1468
38822DOD     C260286  17.548  10.059  13.361 -0.0966 -0.2467  0.1038
38822DOD     C360287  17.964  10.074  13.547 -0.2681 -0.1806  0.2114
38823DOD     C160288   5.525  12.248   8.854 -0.3533 -0.0279 -0.0598
38823DOD     C260289   5.430  12.751   8.761  0.0821 -0.2154  0.0244
38823DOD     C360290   5.591  13.059   8.420  0.0279 -0.0657 -0.2650
38824DOD     C160291   6.753  19.397  25.137 -0.0116  0.1180  0.2018
38824DOD     C260292   6.526  19.796  25.270 -0.1107  0.0128  0.2960
38824DOD     C360293   6.343  20.008  25.635  0.0912 -0.0427 -0.1090
38825DOD     C160294  17.108  22.035  17.297  0.0198 -0.2405  0.1528
38825DOD     C260295  17.292  21.602  17.392 -0.3003  0.4360  0.1532
38825DOD     C360296  17.402  21.182  17.272  0.3521 -0.0813 -0.0314
38826DOD     C160297  20.976   0.378  23.197 -0.2123 -0.0372 -0.1920
38826DOD     C260298  20.716   0.762  23.219  0.0398  0.0364  0.1727
38826DOD     C360299  20.804   1.111  23.022 -0.0975 -0.0438 -0.4445
38827DOD     C160300  30.316  12.262  21.669  0.0140  0.0483 -0.0706
38827DOD     C260301  30.228  12.665  21.599  0.2242 -0.0089 -0.2152
38827DOD     C360302  30.095  13.062  21.342  0.1259 -0.0425  0.1952
38828DOD     C160303   0.776  12.568  24.500  0.3079  0.0591 -0.3646
38828DOD     C260304   0.473  12.621  24.871 -0.0588  0.1560 -0.0578
38828DOD     C360305   0.194  12.486  25.204 -0.0335  0.2040  0.3004
38829DOD     C160306  20.018   5.563   4.767 -0.1885 -0.2276  0.1286
38829DOD     C260307  20.287   5.644   4.429  0.0471 -0.1361 -0.0084
38829DOD     C360308  20.442   5.960   4.165  0.0794  0.4664 -0.0973
38830DOD     C160309  18.430   8.985  12.629  0.0302  0.1263 -0.0766
38830DOD     C260310  18.703   8.960  12.219  0.1160  0.0897  0.0510
38830DOD     C360311  19.054   9.090  11.981 -0.0522  0.1099  0.0531
38831DOD     C160312   6.825   2.155   6.845  0.0765  0.4329 -0.3348
38831DOD     C260313   6.440   1.906   6.681 -0.1235 -0.1519 -0.0369
38831DOD     C360314   6.084   1.930   6.367 -0.3408 -0.0737  0.3115
38832DOD     C160315   3.370  26.090  19.649 -0.0487 -0.2763 -0.0581
38832DOD     C260316   3.820  26.183  19.479  0.0002 -0.0513 -0.1130
38832DOD     C360317   4.210  26.496  19.414  0.1692 -0.1070  0.2462
38833DOD     C160318  28.438   4.208  23.677 -0.1628 -0.0484  0.0922
38833DOD     C260319  28.417   4.448  24.054  0.1525  0.1529 -0.0065
38833DOD     C360320  28.639   4.550  24.484  0.2555 -0.0999  0.0902
38834DOD     C160321  18.307  20.798  12.974 -0.0427  0.1900 -0.1824
38834DOD     C260322  18.347  21.174  12.764  0.1187  0.2694  0.1433
38834DOD     C360323  18.151  21.438  12.476 -0.0333  0.0670  0.1284
38835DOD     C160324   1.196   9.835  23.713  0.0869 -0.1124 -0.1730
38835DOD     C260325   1.044   9.422  23.848 -0.0491  0.2033  0.3261
38835DOD     C360326   0.983   8.966  23.925  0.0075  0.2910 -0.1071
38836DOD     C160327   6.326  11.573  15.056  0.0839  0.0120  0.1343
38836DOD     C260328   6.021  11.879  14.899  0.0496 -0.0380 -0.1066
38836DOD     C360329   6.172  12.277  14.809 -0.0549  0.2145 -0.1742
38837DOD     C160330  29.186  15.445   0.072 -0.0293 -0.2328  0.1320
38837DOD     C260331  29.034  15.846  30.274  0.1927 -0.0525 -0.0211
38837DOD     C360332  29.052  16.290  30.155 -0.1235 -0.1818  0.0230
38838DOD     C160333  12.143  12.410   4.304  0.0823  0.1165  0.3480
38838DOD     C260334  11.734  12.363   4.077 -0.1004  0.4639  0.3357
38838DOD     C360335  11.317  12.576   4.065 -0.0194  0.0672  0.1727
38839DOD     C160336   4.519  12.484   3.627  0.1552  0.0353  0.1121
38839DOD     C260337   4.125  12.408   3.787  0.0257 -0.0005 -0.2349
38839DOD     C360338   3.643  12.394   3.663 -0.0080 -0.0309  0.0420
38840DOD     C160339  19.328  15.948   4.577  0.0664  0.0252  0.1701
38840DOD     C260340  19.102  16.032   4.142 -0.2063  0.1679 -0.1035
38840DOD     C360341  18.959  16.182   3.791 -0.1735 -0.1286  0.0330
38841DOD     C160342   3.757   9.701   0.534  0.3365  0.0480  0.1077
38841DOD     C260343   3.660   9.620   0.984 -0.1277 -0.3496  0.0201
38841DOD     C360344   3.379   9.745   1.385  0.0826 -0.2727 -0.1854
38842DOD     C160345   2.478  12.044   4.676 -0.0923 -0.0890  0.0068
38842DOD     C260346   2.235  11.662   4.712 -0.1619 -0.2386  0.2239
38842DOD     C360347   2.284  11.220   4.512 -0.2907 -0.2775  0.2001
38843DOD     C160348   8.379  29.715  14.204 -0.0756  0.0596 -0.0383
38843DOD     C260349   8.565  29.496  14.546  0.0628 -0.2653 -0.1973
38843DOD     C360350   8.769  29.649  14.925  0.1253  0.0312 -0.0757
38844DOD     C160351  20.984  12.467   1.158 -0.2851 -0.1451  0.4176
38844DOD     C260352  21.411  12.647   1.223  0.2100  0.0736  0.1727
38844DOD     C360353  21.689  12.811   1.584  0.2463  0.0481 -0.2797
38845DOD     C160354  15.292   4.716  18.233 -0.2820  0.2543  0.2616
38845DOD     C260355  15.701   4.670  18.399  0.1431 -0.2157 -0.0063
38845DOD     C360356  15.976   4.559  18.806 -0.0028 -0.0991 -0.3482
38846DOD     C160357  19.794  30.189  24.331 -0.2307 -0.0710 -0.2732
38846DOD     C260358  19.666   0.225  24.074 -0.2530  0.0071 -0.1419
38846DOD     C360359  19.456   0.593  23.850 -0.2334  0.0599  0.2499
38847DOD     C160360  23.055  12.844  23.915  0.0772 -0.1121 -0.0638
38847DOD     C260361  22.660  12.836  23.725 -0.1785 -0.2973  0.1181
38847DOD     C360362  22.366  12.819  23.349 -0.1231  0.1609  0.0358
38848DOD     C160363   0.500   4.227  19.077  0.1380 -0.2842 -0.0155
38848DOD     C260364   0.627   4.581  19.304 -0.0465  0.0806  0.1328
38848DOD     C360365   1.076   4.410  19.453 -0.2098  0.3386  0.5825
38849DOD     C160366  27.978  16.936  29.282  0.2118 -0.3807  0.0493
38849DOD     C260367  28.023  16.922  28.804  0.1114  0.0056 -0.0287
38849DOD     C360368  28.331  17.103  28.529 -0.0659 -0.4813 -0.2074
38850DOD     C160369   1.513  19.117  19.757 -0.1111 -0.1287 -0.0434
38850DOD     C260370   1.246  18.945  19.464  0.3427  0.0139  0.1413
38850DOD     C360371   1.198  18.882  18.973  0.1663  0.0097 -0.1187
38851DOD     C160372  17.976  16.777   4.591 -0.1655 -0.0853  0.1796
38851DOD     C260373  18.237  16.557   4.313 -0.0821 -0.3273 -0.2152
38851DOD     C360374  18.696  16.295   4.232 -0.0266  0.1198  0.2903
38852DOD     C160375   3.501  18.566   4.776  0.0066  0.0535 -0.1032
38852DOD     C260376   3.731  18.932   4.869  0.0860  0.0822  0.1630
38852DOD     C360377   3.874  19.211   5.282 -0.0147  0.2418  0.0355
38853DOD     C160378   6.471  14.249   4.884  0.2732  0.0380 -0.2768
38853DOD     C260379   6.336  13.803   4.697 -0.0875  0.5606 -0.0503
38853DOD     C360380   6.569  13.419   4.538  0.1928  0.2042  0.0422
38854DOD     C160381   6.037  29.337  28.599  0.1286  0.1447  0.1788
38854DOD     C260382   5.766  29.090  28.824 -0.4386 -0.1297 -0.1456
38854DOD     C360383   5.758  28.953  29.298 -0.0757  0.1923 -0.2274
38855DOD     C160384  13.264   5.272   3.828  0.3190 -0.1309  0.1332
38855DOD     C260385  12.846   5.236   4.070  0.0144  0.1567  0.1160
38855DOD     C360386  12.667   4.929   4.405  0.1198 -0.0658 -0.3536
38856DOD     C160387   5.617   1.815  14.285 -0.0494  0.0870  0.0742
38856DOD     C260388   5.722   1.768  14.730  0.2909 -0.4628  0.1861
38856DOD     C360389   6.025   1.826  15.085 -0.0891 -0.4599  0.3476
38857DOD     C160390   8.928   9.732   7.922  0.0308  0.1023 -0.2886
38857DOD     C260391   9.069   9.986   8.305 -0.3731  0.0050 -0.1843
38857DOD     C360392   8.832  10.139   8.705 -0.2946  0.0702  0.2210
38858DOD     C160393  27.081  17.648  19.509  0.2065 -0.3673  0.0570
38858DOD     C260394  27.174  17.233  19.598 -0.2691 -0.1299 -0.1699
38858DOD     C360395  27.500  16.928  19.785 -0.0195 -0.0165  0.1906
38859DOD     C160396  22.777  14.649  29.348  0.0737  0.0990  0.2242
38859DOD     C260397  22.758  14.236  29.615 -0.0429  0.2580  0.0730
38859DOD     C360398  22.857  14.168  30.070  0.2288 -0.1446 -0.1687
38860DOD     C160399  21.032  27.833  23.496 -0.0724 -0.0570 -0.4458
38860DOD     C260400  21.075  27.946  23.059  0.0344 -0.0509  0.1342
38860DOD     C360401  21.273  27.629  22.765  0.0559 -0.3937  0.2409
38861DOD     C160402   2.648  17.549  14.511  0.3135  0.0243  0.0872
38861DOD     C260403   2.288  17.719  14.791  0.1479 -0.1941 -0.0259
38861DOD     C360404   1.835  17.603  14.734 -0.1182 -0.0672 -0.0829
38862DOD     C160405  28.294  25.929  13.382  0.0729  0.3885  0.1120
38862DOD     C260406  28.688  25.966  13.158 -0.0095  0.0861  0.0167
38862DOD     C360407  29.037  26.180  12.806  0.1877 -0.0750  0.0913
38863DOD     C160408  24.684  18.390  15.989  0.2417 -0.0344 -0.1158
38863DOD     C260409  24.395  18.088  15.793 -0.1930 -0.0812 -0.2555
38863DOD     C360410  24.088  17.744  15.664 -0.2650 -0.0024 -0.0570
38864DOD     C160411  10.006  20.255  16.833 -0.1643  0.1155  0.0122
38864DOD     C260412  10.013  20.734  16.907 -0.1095  0.5402 -0.0523
38864DOD     C360413  10.267  21.080  17.071 -0.3363 -0.3479  0.0767
38865DOD     C160414   5.967  19.808  14.277 -0.1968 -0.1075 -0.0456
38865DOD     C260415   5.968  20.255  14.203 -0.4403 -0.1142  0.1641
38865DOD     C360416   5.893  20.662  14.435 -0.2666  0.3446 -0.2614
38866DOD     C160417  10.345  13.734  10.520  0.1076 -0.3435  0.4036
38866DOD     C260418  10.114  14.018  10.218 -0.0832  0.0699  0.0136
38866DOD     C360419  10.082  14.033   9.766 -0.3272  0.2392  0.3091
38867DOD     C160420   7.033  15.920  23.431  0.0132 -0.2472 -0.2109
38867DOD     C260421   7.230  15.768  23.043 -0.0574  0.0470  0.0504
38867DOD     C360422   7.303  15.944  22.609 -0.0811  0.2029 -0.2015
38868DOD     C160423  12.760  18.235   7.789 -0.2742 -0.1923 -0.4229
38868DOD     C260424  13.159  18.002   8.029 -0.1801  0.0300 -0.1315
38868DOD     C360425  13.452  18.025   8.368 -0.0882  0.1175 -0.1329
38869DOD     C160426  14.286  16.445   2.914  0.0678  0.1044 -0.1108
38869DOD     C260427  14.648  16.710   2.847 -0.1091  0.0604  0.0036
38869DOD     C360428  14.695  16.992   2.453 -0.2206  0.0483  0.1860
38870DOD     C160429  17.251  27.007  23.863 -0.0746  0.2071 -0.0023
38870DOD     C260430  16.818  27.034  23.813 -0.0515 -0.2515 -0.1690
38870DOD     C360431  16.604  27.372  24.000  0.0567 -0.2826 -0.0030
38871DOD     C160432  18.041  11.752  17.985  0.0767 -0.1877  0.1607
38871DOD     C260433  17.726  12.028  18.209 -0.1212 -0.1806  0.0095
38871DOD     C360434  17.773  12.390  18.524  0.1329 -0.0855 -0.1136
38872DOD     C160435   6.049  16.915  23.299 -0.0507  0.0456 -0.0787
38872DOD     C260436   5.631  16.747  23.461 -0.2536  0.0157 -0.2490
38872DOD     C360437   5.247  16.528  23.456  0.0677  0.1778  0.0812
38873DOD     C160438  18.254  22.236   4.065 -0.0663  0.0975 -0.0874
38873DOD     C260439  18.618  22.444   4.261 -0.4004 -0.2097  0.0218
38873DOD     C360440  18.819  22.666   4.612 -0.1328  0.1215 -0.1456
38874DOD     C160441   5.596  17.094  14.010 -0.2016  0.0805 -0.0939
38874DOD     C260442   5.680  17.550  14.122  0.0312  0.3150 -0.2069
38874DOD     C360443   5.600  18.011  14.295  0.3527  0.2126  0.1017
38875DOD     C160444   0.122   7.294  14.904 -0.1915 -0.1305  0.1851
38875DOD     C260445   0.100   6.905  15.175  0.1849  0.2411  0.3737
38875DOD     C360446   0.135   6.497  15.529  0.4668  0.2653 -0.0653
38876DOD     C160447  19.623  17.896  20.509 -0.0117  0.0338  0.1113
38876DOD     C260448  19.218  18.017  20.464  0.0156 -0.1673  0.1878
38876DOD     C360449  18.731  17.929  20.346 -0.0269  0.0018  0.0809
38877DOD     C160450  13.467  16.245   4.626 -0.0766  0.2433  0.0468
38877DOD     C260451  13.674  15.931   4.898  0.2616 -0.2240  0.0922
38877DOD     C360452  13.509  15.660   5.294  0.4200 -0.5112  0.1773
38878DOD     C160453   4.371  12.502  11.429  0.0290 -0.3432  0.1112
38878DOD     C260454   4.064  12.920  11.571 -0.1748 -0.0337 -0.1881
38878DOD     C360455   3.917  13.309  11.755 -0.1569  0.0930 -0.1134
38879DOD     C160456   2.678  21.062  10.470 -0.0449  0.1110 -0.5972
38879DOD     C260457   2.881  21.015  10.877 -0.2034 -0.0504 -0.0500
38879DOD     C360458   2.773  20.996  11.343  0.1031  0.0532  0.1073
38880DOD     C160459  19.444  26.747  28.360 -0.1042  0.1322  0.1689
38880DOD     C260460  19.771  27.018  28.450 -0.1107  0.1107 -0.3963
38880DOD     C360461  20.190  27.195  28.347  0.1881  0.1798  0.2877
38881DOD     C160462   2.791  11.708   4.199 -0.4456  0.0430 -0.0018
38881DOD     C260463   2.467  12.024   3.970  0.0328 -0.0571 -0.0338
38881DOD     C360464   2.455  12.411   3.869 -0.0076 -0.2301  0.6259
38882DOD     C160465  20.524  28.084  26.499 -0.1450  0.4042 -0.2380
38882DOD     C260466  20.414  27.624  26.334 -0.1891  0.1682  0.2669
38882DOD     C360467  20.594  27.406  25.972 -0.2131  0.3925  0.0346
38883DOD     C160468  18.474   2.605   9.002 -0.3825 -0.0762 -0.1394
38883DOD     C260469  18.347   2.120   8.964  0.0066  0.0383  0.1723
38883DOD     C360470  17.956   1.909   8.787  0.3349  0.0661  0.0993
38884DOD     C160471   0.426  30.009  25.937  0.0030 -0.1708 -0.1124
38884DOD     C260472   0.207  30.270  26.229  0.1149 -0.1992  0.1724
38884DOD     C360473  30.098   0.108  26.413 -0.0740 -0.0785  0.2144
38885DOD     C160474   8.187  28.475  16.831 -0.2613 -0.1876 -0.0888
38885DOD     C260475   8.099  28.537  16.432 -0.0075 -0.0538 -0.1620
38885DOD     C360476   8.206  28.714  16.037  0.0974 -0.0136 -0.0913
38886DOD     C160477   3.542   6.663  19.319  0.2647  0.1187  0.0777
38886DOD     C260478   3.524   6.839  18.871  0.0580  0.0494 -0.1565
38886DOD     C360479   3.369   6.827  18.445 -0.3932 -0.0897  0.1116
38887DOD     C160480  23.755   4.490  22.683 -0.0397  0.0947 -0.0132
38887DOD     C260481  23.379   4.737  22.927 -0.3300  0.0441 -0.0364
38887DOD     C360482  22.992   4.632  23.000 -0.0446 -0.2577  0.1969
38888DOD     C160483  10.353  21.505  29.248 -0.2005 -0.1662  0.0935
38888DOD     C260484  10.685  21.693  29.006  0.1197  0.0283  0.0758
38888DOD     C360485  11.116  21.828  28.909  0.2963  0.1616 -0.1080
38889DOD     C160486   0.090  26.013  12.169 -0.1879 -0.0234 -0.2060
38889DOD     C260487  30.147  26.236  11.850  0.1225  0.0437  0.0313
38889DOD     C360488  29.735  26.492  11.785  0.2839 -0.0378  0.0236
38890DOD     C160489  27.300  23.632  17.597  0.0034 -0.0185 -0.1207
38890DOD     C260490  27.415  23.141  17.737  0.4599  0.0106 -0.0223
38890DOD     C360491  27.278  22.767  17.908 -0.0421 -0.1413 -0.1048
38891DOD     C160492  29.052  21.420  10.165  0.2882 -0.1138  0.2077
38891DOD     C260493  28.849  21.364   9.771  0.0763 -0.1001  0.1030
38891DOD     C360494  28.461  21.184   9.695 -0.0451  0.2552  0.1168
38892DOD     C160495  10.131  19.902   9.953  0.3973  0.1572  0.1802
38892DOD     C260496  10.210  20.204   9.590  0.0963  0.1820 -0.3868
38892DOD     C360497  10.222  20.684   9.458 -0.0583  0.2384 -0.0907
38893DOD     C160498   0.516  23.969  22.619 -0.3871  0.3176  0.1710
38893DOD     C260499   0.563  24.458  22.526 -0.0546  0.2510 -0.1095
38893DOD     C360500   0.728  24.795  22.806  0.3588  0.2894  0.5496
38894DOD     C160501  11.317   6.985  10.169 -0.0133  0.1191 -0.1318
38894DOD     C260502  11.141   7.292   9.830  0.0285  0.0475 -0.0599
38894DOD     C360503  11.135   7.716   9.704  0.3061  0.0036  0.2730
38895DOD     C160504  21.947  14.453   2.482 -0.1976  0.1582 -0.1030
38895DOD     C260505  21.633  14.243   2.807  0.1937  0.0299 -0.3287
38895DOD     C360506  21.286  14.101   3.079  0.0240  0.3479  0.0257
38896DOD     C160507  16.450   8.399  21.659  0.4573 -0.1553 -0.1460
38896DOD     C260508  16.125   8.219  21.922  0.1138 -0.2258 -0.4123
38896DOD     C360509  15.838   7.864  21.890  0.1863  0.0192 -0.0767
38897DOD     C160510  13.683  16.850  13.073  0.0180 -0.1754 -0.1524
38897DOD     C260511  13.700  17.332  13.153  0.0804  0.0844  0.2979
38897DOD     C360512  13.614  17.769  13.048 -0.0259 -0.1551  0.3307
38898DOD     C160513   9.114  20.420   6.778  0.0790  0.4647 -0.0915
38898DOD     C260514   9.230  20.536   7.178  0.1304  0.0739  0.1791
38898DOD     C360515   9.372  20.755   7.553  0.1874 -0.0892 -0.1260
38899DOD     C160516   9.754  26.396  26.526 -0.1619 -0.1188  0.2371
38899DOD     C260517  10.220  26.513  26.675  0.1423 -0.0553 -0.0649
38899DOD     C360518  10.727  26.444  26.684  0.4143  0.0099  0.0652
38900DOD     C160519   5.395  11.220   5.229  0.1376  0.1032  0.1539
38900DOD     C260520   5.565  11.631   5.168 -0.0162 -0.1079  0.1784
38900DOD     C360521   5.928  11.852   5.356  0.0249 -0.0569  0.1153
38901DOD     C160522   9.347  21.928  12.047 -0.3257 -0.1409  0.0850
38901DOD     C260523   9.572  21.969  12.494 -0.0178 -0.1722 -0.0903
38901DOD     C360524   9.869  22.297  12.471  0.2351 -0.1848 -0.2280
38902DOD     C160525   1.072   3.096  17.172 -0.1035  0.0086  0.3721
38902DOD     C260526   0.670   2.762  17.151  0.0393 -0.1771  0.0747
38902DOD     C360527   0.799   2.262  17.096  0.2546 -0.1028  0.0689
38903DOD     C160528   0.251  14.219  22.330 -0.1598 -0.1532  0.2174
38903DOD     C260529   0.285  14.559  22.007 -0.1893  0.1087 -0.1110
38903DOD     C360530   0.435  14.998  22.029  0.1309 -0.0365 -0.0402
38904DOD     C160531  14.873  19.696  16.426 -0.0390  0.1138  0.0154
38904DOD     C260532  14.858  19.236  16.304  0.0285 -0.2119 -0.0120
38904DOD     C360533  14.938  18.854  16.099 -0.5671 -0.3063 -0.1991
38905DOD     C160534  20.926  21.575  10.231 -0.4534 -0.3987 -0.4482
38905DOD     C260535  20.977  22.025  10.403  0.1444 -0.1499 -0.5508
38905DOD     C360536  20.928  22.514  10.343  0.0805 -0.0622  0.0069
38906DOD     C160537  12.089  11.577   7.370 -0.2001  0.0765 -0.4376
38906DOD     C260538  11.762  11.673   7.071 -0.4335 -0.0759  0.0188
38906DOD     C360539  11.953  11.701   6.604  0.2127  0.0051 -0.1718
38907DOD     C160540   4.498  20.820  29.156 -0.0968  0.2303  0.3145
38907DOD     C260541   4.905  21.067  29.231 -0.2175  0.1083 -0.1493
38907DOD     C360542   5.125  21.466  29.264 -0.1330  0.0857  0.1105
38908DOD     C160543   1.502   1.483   3.490 -0.0211 -0.2748  0.0397
38908DOD     C260544   1.590   1.772   3.825 -0.3440  0.1617 -0.2975
38908DOD     C360545   1.707   2.188   3.989 -0.0403 -0.0444 -0.3346
38909DOD     C160546   0.924  13.635   8.930 -0.2365 -0.2185 -0.2487
38909DOD     C260547   1.166  13.501   9.269 -0.1495 -0.0268 -0.0915
38909DOD     C360548   1.271  13.069   9.515  0.3001 -0.0786  0.2522
38910DOD     C160549   5.716  15.691   2.855 -0.0923  0.0201 -0.3562
38910DOD     C260550   5.849  15.303   3.106 -0.1941 -0.0754 -0.1346
38910DOD     C360551   5.737  14.844   3.110 -0.0131 -0.0234 -0.0410
38911DOD     C160552  20.142   6.512  25.025 -0.1454 -0.1095  0.0022
38911DOD     C260553  19.955   6.928  25.028 -0.1935 -0.0632 -0.2590
38911DOD     C360554  19.925   7.365  24.822 -0.2415  0.1123  0.1321
38912DOD     C160555  16.561   3.826  17.657  0.0660 -0.2614 -0.4161
38912DOD     C260556  16.318   3.742  18.029 -0.1135  0.1587  0.1241
38912DOD     C360557  15.867   3.664  18.215  0.0167  0.5123 -0.1180
38913DOD     C160558   7.793  10.173  22.303  0.1650 -0.3957 -0.0230
38913DOD     C260559   7.346  10.239  22.260 -0.2967 -0.1969 -0.0317
38913DOD     C360560   7.076   9.932  22.072  0.4739 -0.1812  0.1525
38914DOD     C160561  17.948  19.688  27.333  0.3060  0.0485 -0.1375
38914DOD     C260562  17.924  20.036  27.009  0.1706  0.1731  0.0438
38914DOD     C360563  18.144  20.429  26.970  0.0433  0.1263  0.1009
38915DOD     C160564  24.662  26.984   8.886  0.0442  0.0225  0.0688
38915DOD     C260565  24.915  27.366   8.972 -0.1375 -0.0918 -0.0649
38915DOD     C360566  25.089  27.813   8.868 -0.0473  0.2348  0.4803
38916DOD     C160567  27.663  19.375   5.873  0.0420 -0.3598  0.0573
38916DOD     C260568  27.795  19.079   5.533  0.1023  0.0323  0.0429
38916DOD     C360569  27.898  19.235   5.092 -0.0732  0.1026  0.1718
38917DOD     C160570  24.381   4.431  20.171 -0.2702  0.4300 -0.2738
38917DOD     C260571  24.342   4.128  20.562  0.0193 -0.0388  0.0874
38917DOD     C360572  24.138   4.130  21.024 -0.0873  0.0484  0.2310
38918DOD     C160573   8.476   5.450  15.180 -0.3486 -0.0725 -0.1161
38918DOD     C260574   8.868   5.701  15.088 -0.1503  0.0797  0.0261
38918DOD     C360575   9.172   5.957  15.262 -0.2281 -0.1596  0.0947
38919DOD     C160576   3.294  21.685   9.671 -0.2732 -0.0349 -0.1019
38919DOD     C260577   3.350  21.235   9.624  0.4333  0.0396 -0.0410
38919DOD     C360578   3.234  20.802   9.606 -0.2507 -0.0877  0.0039
38920DOD     C160579  12.254  10.775  10.848  0.0058 -0.0534  0.0617
38920DOD     C260580  12.002  11.144  10.657 -0.3995  0.3042 -0.1573
38920DOD     C360581  11.923  11.505  10.946 -0.0989  0.1461  0.0348
38921DOD     C160582  25.577  20.837   7.880 -0.1633  0.2608 -0.1811
38921DOD     C260583  25.764  20.445   8.079  0.0269  0.0039 -0.0424
38921DOD     C360584  26.050  20.093   8.292 -0.1203 -0.1879  0.2567
38922DOD     C160585  23.239   6.196   6.570 -0.0331  0.0432 -0.0317
38922DOD     C260586  22.869   6.576   6.481  0.0825 -0.0628 -0.1715
38922DOD     C360587  22.489   6.556   6.287 -0.2283 -0.1723 -0.1044
38923DOD     C160588  11.052   8.426   3.932  0.0428 -0.0986 -0.3052
38923DOD     C260589  10.910   8.241   3.507  0.2899 -0.0711  0.1865
38923DOD     C360590  10.618   7.858   3.472  0.0016 -0.1106 -0.1267
38924DOD     C160591   6.131  16.077  23.994  0.0030 -0.3220 -0.2178
38924DOD     C260592   6.094  16.515  24.147 -0.0482  0.0494  0.0444
38924DOD     C360593   6.044  16.854  24.481  0.1636 -0.4002  0.1176
38925DOD     C160594   4.515  16.914  27.566  0.3538 -0.0345  0.1929
38925DOD     C260595   4.954  17.056  27.422  0.2544  0.0503  0.3281
38925DOD     C360596   5.243  17.083  26.991 -0.1845 -0.2688  0.0324
38926DOD     C160597  23.281   5.065  20.902 -0.0121 -0.0927 -0.0233
38926DOD     C260598  22.955   4.962  21.236 -0.0623  0.3131 -0.2610
38926DOD     C360599  22.587   4.893  21.507 -0.1083 -0.0541  0.0331
38927DOD     C160600   3.598   8.849  22.608 -0.2440  0.0019 -0.0477
38927DOD     C260601   3.739   8.896  22.179  0.0115  0.0135 -0.0876
38927DOD     C360602   3.899   9.235  21.917  0.0644  0.0413 -0.1051
38928DOD     C160603  11.522  19.272  11.061 -0.2799 -0.0700  0.0354
38928DOD     C260604  11.437  18.917  11.395 -0.0075  0.1339 -0.1514
38928DOD     C360605  11.459  18.980  11.879  0.1540  0.1271  0.2385
38929DOD     C160606  25.397  12.424  21.946  0.0922 -0.3090 -0.1175
38929DOD     C260607  25.578  12.855  21.900  0.2706 -0.0555 -0.2160
38929DOD     C360608  25.505  13.357  21.797  0.4339  0.0534 -0.2024
38930DOD     C160609  18.950   0.955  27.062 -0.0081 -0.3267  0.5056
38930DOD     C260610  18.685   1.235  27.352 -0.1976 -0.1691  0.0575
38930DOD     C360611  18.273   1.410  27.513  0.1276 -0.0508  0.0766
38931DOD     C160612  22.955   4.127  26.134  0.0332 -0.0580 -0.1916
38931DOD     C260613  22.761   3.728  26.303 -0.1954  0.3818 -0.1179
38931DOD     C360614  22.667   3.222  26.272 -0.2487  0.1897  0.0473
38932DOD     C160615  19.612  14.102  29.634 -0.0793  0.1047  0.0504
38932DOD     C260616  19.342  13.707  29.652  0.2300 -0.1081 -0.1933
38932DOD     C360617  19.076  13.480  29.312 -0.1987  0.0853  0.5175
38933DOD     C160618   4.607  21.634  20.143 -0.3424 -0.1368 -0.2260
38933DOD     C260619   4.974  21.357  20.198  0.2656 -0.1627 -0.0025
38933DOD     C360620   5.281  21.052  20.406  0.0294  0.2130  0.1125
38934DOD     C160621  24.570  16.219  26.442  0.1034 -0.1668 -0.0627
38934DOD     C260622  24.975  16.437  26.506  0.1165 -0.1342  0.1388
38934DOD     C360623  25.294  16.856  26.514 -0.2609 -0.1443  0.3344
38935DOD     C160624  27.670  26.384  20.644  0.3739  0.0736 -0.1179
38935DOD     C260625  27.904  26.775  20.480 -0.1595  0.0474 -0.0712
38935DOD     C360626  28.371  26.829  20.321 -0.1376 -0.1721  0.1263
38936DOD     C160627  27.084  20.155  15.370  0.2660  0.2195  0.2650
38936DOD     C260628  27.247  20.011  15.765  0.0692 -0.0145  0.3006
38936DOD     C360629  27.421  19.579  15.952 -0.1321 -0.2045 -0.0911
38937DOD     C160630   5.548  17.780  20.488  0.0534 -0.3276  0.2249
38937DOD     C260631   5.337  17.429  20.633 -0.1513  0.0041  0.0679
38937DOD     C360632   4.942  17.201  20.567 -0.0546 -0.2833 -0.1373
38938DOD     C160633  13.795  21.362  22.779  0.0214  0.1037 -0.1155
38938DOD     C260634  13.889  20.948  22.580  0.3744 -0.1470 -0.0159
38938DOD     C360635  13.964  20.558  22.784 -0.2170  0.3218  0.1743
38939DOD     C160636   5.896  20.892  23.744  0.1810 -0.1852 -0.1035
38939DOD     C260637   5.662  20.513  23.581  0.1882 -0.1501 -0.0522
38939DOD     C360638   5.546  20.074  23.583  0.1870  0.0401 -0.0977
38940DOD     C160639  13.468  14.367   4.843 -0.1390  0.0795  0.1180
38940DOD     C260640  13.730  14.367   5.196  0.0445  0.0451 -0.2575
38940DOD     C360641  13.562  14.275   5.660 -0.1100  0.0896  0.0751
38941DOD     C160642  23.223   2.461  23.744 -0.1029  0.0302  0.0139
38941DOD     C260643  23.652   2.322  23.612 -0.0666 -0.0067  0.0870
38941DOD     C360644  23.992   2.057  23.476 -0.2269  0.0646 -0.0623
38942DOD     C160645  16.621   0.713  20.299  0.1228 -0.2673 -0.3687
38942DOD     C260646  16.245   0.956  20.403  0.1541 -0.1881 -0.0300
38942DOD     C360647  15.879   1.238  20.369 -0.1470 -0.2372 -0.2444
38943DOD     C160648  13.296  16.105   2.349 -0.0958 -0.2609 -0.1676
38943DOD     C260649  12.930  16.323   2.548 -0.0840 -0.0278 -0.1635
38943DOD     C360650  12.563  16.585   2.396  0.1265  0.0532  0.1692
38944DOD     C160651  29.357  24.616  14.597  0.0617  0.1342 -0.1185
38944DOD     C260652  29.104  24.304  14.549 -0.0296  0.0069 -0.1250
38944DOD     C360653  28.896  23.976  14.283 -0.0946 -0.1800  0.1193
38945DOD     C160654  26.888  28.193  23.391  0.3179 -0.0236  0.2209
38945DOD     C260655  26.481  28.416  23.492 -0.2611  0.2995 -0.1811
38945DOD     C360656  26.155  28.313  23.807 -0.1594 -0.0701 -0.0286
38946DOD     C160657   0.118  29.647   2.921 -0.1150 -0.1128  0.1697
38946DOD     C260658   0.363  29.917   2.586  0.1440 -0.3116  0.2977
38946DOD     C360659   0.091  30.087   2.258  0.0508  0.1137 -0.2006
38947DOD     C160660  19.834  26.912  10.853 -0.0118  0.2234  0.2875
38947DOD     C260661  19.508  26.592  10.818  0.0713 -0.0535  0.1409
38947DOD     C360662  19.045  26.532  10.600 -0.0100 -0.0652 -0.2421
38948DOD     C160663   7.253  27.517  25.033  0.1225 -0.3477  0.4656
38948DOD     C260664   7.065  27.537  24.605  0.0872  0.1829  0.0182
38948DOD     C360665   7.110  27.510  24.174  0.2476 -0.3092  0.0157
38949DOD     C160666   5.689   3.103   1.504  0.2039  0.0357 -0.1024
38949DOD     C260667   5.785   3.497   1.293 -0.0131 -0.2643 -0.0365
38949DOD     C360668   6.257   3.588   1.227  0.3570  0.0141 -0.2954
38950DOD     C160669  19.501  12.515  16.438 -0.1542  0.3121  0.1868
38950DOD     C260670  19.889  12.610  16.730 -0.0015 -0.1800 -0.0707
38950DOD     C360671  20.043  12.948  16.994 -0.0465  0.2525 -0.0084
38951DOD     C160672   0.601  18.128  27.081 -0.1630  0.2113 -0.1363
38951DOD     C260673   0.308  18.440  27.117  0.0048  0.0208 -0.0027
38951DOD     C360674  30.177  18.367  26.991 -0.0035  0.0735  0.0624
38952DOD     C160675   3.212  17.543  17.970  0.1534  0.2512 -0.3542
38952DOD     C260676   2.834  17.793  18.078  0.0683 -0.0591  0.1593
38952DOD     C360677   2.590  18.180  18.269  0.0194 -0.1403  0.0034
38953DOD     C160678  11.136  23.103  16.330  0.0127 -0.0092  0.4910
38953DOD     C260679  11.161  22.763  15.984  0.1348 -0.2020 -0.0370
38953DOD     C360680  11.401  22.532  15.665 -0.0500 -0.1256 -0.0630
38954DOD     C160681  27.293  26.614  15.277  0.1267 -0.3473  0.2946
38954DOD     C260682  27.323  26.961  15.000  0.0827 -0.2941  0.4246
38954DOD     C360683  27.699  27.114  14.815 -0.0282 -0.1871  0.1064
38955DOD     C160684  16.503  13.587   2.048 -0.1141 -0.0298  0.3096
38955DOD     C260685  16.738  13.708   2.375 -0.0034  0.1717 -0.0483
38955DOD     C360686  16.677  13.977   2.743  0.0772  0.1261 -0.0091
38956DOD     C160687  11.670  15.800   5.529  0.1257  0.0389 -0.0929
38956DOD     C260688  11.217  15.816   5.715  0.0954  0.1296 -0.0158
38956DOD     C360689  10.831  16.060   5.604 -0.3711 -0.2976  0.0856
38957DOD     C160690  10.812  17.970   2.147  0.2503  0.1537 -0.1311
38957DOD     C260691  10.360  18.173   2.112 -0.1535  0.1938  0.0805
38957DOD     C360692   9.916  18.253   2.362 -0.1519 -0.0741 -0.2837
38958DOD     C160693  25.799  24.592  27.548 -0.0281 -0.2540 -0.0814
38958DOD     C260694  26.143  24.873  27.396  0.1680  0.0824 -0.2134
38958DOD     C360695  26.432  25.238  27.337  0.0057  0.1228  0.2370
38959DOD     C160696  26.826  25.786  24.110  0.0857  0.0999  0.0119
38959DOD     C260697  26.977  25.674  23.694 -0.4810 -0.3209 -0.0209
38959DOD     C360698  27.238  25.640  23.307 -0.0478  0.0059 -0.3975
38960DOD     C160699   3.729  11.798  27.300  0.0607 -0.2031 -0.0242
38960DOD     C260700   3.689  12.169  27.691 -0.2677  0.0154 -0.0803
38960DOD     C360701   3.558  12.136  28.137  0.3655  0.1645  0.0382
38961DOD     C160702  15.430   5.022  25.815  0.1233 -0.2725  0.1619
38961DOD     C260703  15.848   4.961  25.970  0.4113  0.0402  0.0856
38961DOD     C360704  16.248   5.082  26.145 -0.2603  0.3544 -0.3149
38962DOD     C160705   4.409  22.793  12.604  0.3625 -0.1783  0.0571
38962DOD     C260706   4.363  22.755  12.165  0.0621 -0.1724  0.0595
38962DOD     C360707   3.990  22.527  11.967  0.1842 -0.2504  0.0038
38963DOD     C160708  24.953  17.542  18.432 -0.1390  0.0629 -0.1728
38963DOD     C260709  25.145  17.513  18.885 -0.0882  0.2247  0.1455
38963DOD     C360710  25.501  17.624  19.160 -0.1184 -0.1710  0.0371
38964DOD     C160711  24.511   3.369  29.653  0.2354  0.0324 -0.0669
38964DOD     C260712  24.905   3.250  29.467  0.1069  0.1142  0.0354
38964DOD     C360713  25.243   3.319  29.238  0.1122  0.0378  0.1027
38965DOD     C160714  17.282  13.400   7.483 -0.1132  0.1197 -0.0379
38965DOD     C260715  17.496  13.351   7.933  0.0818  0.1725  0.2505
38965DOD     C360716  17.513  13.306   8.387  0.0004 -0.0876 -0.0429
38966DOD     C160717   7.562  29.562   9.932  0.2622 -0.2161  0.1312
38966DOD     C260718   7.728  29.525   9.541  0.1023  0.0697 -0.0988
38966DOD     C360719   7.858  29.292   9.182 -0.3963  0.2929 -0.0051
38967DOD     C160720   9.649   8.695  24.600 -0.2798 -0.1584 -0.1140
38967DOD     C260721   9.879   8.920  24.273 -0.0628 -0.0096 -0.0261
38967DOD     C360722  10.169   8.964  23.919 -0.1613  0.1403  0.2531
38968DOD     C160723   8.546  27.171  22.508 -0.0970 -0.1496 -0.0553
38968DOD     C260724   8.413  27.569  22.402 -0.1901 -0.0096  0.0030
38968DOD     C360725   8.276  27.934  22.581 -0.1423 -0.1588 -0.0777
38969DOD     C160726  28.767   9.924  23.427  0.1929 -0.1231  0.0482
38969DOD     C260727  28.704   9.535  23.675 -0.0188 -0.0219  0.2335
38969DOD     C360728  28.982   9.180  23.838  0.1844 -0.3207  0.1282
38970DOD     C160729  13.456   0.521  22.748 -0.0716  0.0778  0.1842
38970DOD     C260730  13.650   0.117  22.668 -0.1082  0.0193  0.1434
38970DOD     C360731  13.789  29.980  22.752 -0.0928  0.2143 -0.1216
38971DOD     C160732  10.661  19.473   0.076  0.1521  0.1956 -0.0264
38971DOD     C260733  10.967  19.253   0.409  0.1488 -0.1397  0.2219
38971DOD     C360734  11.243  19.557   0.590  0.0769  0.1103  0.2824
38972DOD     C160735   1.593  25.879  19.246 -0.1682  0.1490 -0.0760
38972DOD     C260736   1.410  25.480  18.980 -0.0625 -0.1338 -0.2915
38972DOD     C360737   1.556  25.138  18.694 -0.3669 -0.0757 -0.0159
38973DOD     C160738  25.178  19.830   0.875 -0.0701  0.1783  0.0121
38973DOD     C260739  25.592  19.949   0.823 -0.3129 -0.2393  0.0169
38973DOD     C360740  26.038  20.010   0.633 -0.1321 -0.2009  0.1139
38974DOD     C160741  30.285  16.252  22.328  0.3043 -0.2575 -0.0558
38974DOD     C260742   0.045  16.688  22.338  0.0628 -0.2069  0.0231
38974DOD     C360743   0.303  17.002  22.546 -0.2887  0.2135 -0.1369
38975DOD     C160744  10.112  17.328   5.141 -0.1332 -0.1628 -0.0882
38975DOD     C260745  10.230  16.870   4.982  0.2093 -0.2795 -0.0015
38975DOD     C360746  10.475  16.538   4.711 -0.2616 -0.1391  0.3170
38976DOD     C160747   2.805  13.545   1.016  0.0847  0.0759  0.1587
38976DOD     C260748   3.068  13.624   1.343  0.2319  0.3144  0.0102
38976DOD     C360749   3.435  13.915   1.507 -0.0744 -0.0595  0.0272
38977DOD     C160750  10.571   6.294  19.956 -0.0029 -0.0789  0.0884
38977DOD     C260751  10.428   5.888  19.963  0.1030  0.0790 -0.1867
38977DOD     C360752  10.298   5.446  19.909  0.0431  0.3089 -0.2011
38978DOD     C160753  24.961  10.296  12.372  0.0657  0.0307 -0.3912
38978DOD     C260754  25.447  10.188  12.253 -0.2975 -0.3017 -0.2059
38978DOD     C360755  25.784   9.877  12.240 -0.1833 -0.3440  0.0219
38979DOD     C160756   2.098  22.982   0.800  0.3596 -0.0168 -0.0159
38979DOD     C260757   1.977  22.548   0.649 -0.1092  0.2188 -0.2182
38979DOD     C360758   2.238  22.156   0.595 -0.1023  0.2394  0.1641
38980DOD     C160759   1.077   2.182  12.356 -0.1668 -0.1026 -0.2885
38980DOD     C260760   0.901   2.498  12.021 -0.1466  0.1844  0.0357
38980DOD     C360761   0.791   2.902  11.795  0.3485 -0.2625 -0.2633
38981DOD     C160762   7.923  25.299  21.004  0.2246  0.3636 -0.2254
38981DOD     C260763   8.085  25.690  20.975  0.0386  0.2187  0.4101
38981DOD     C360764   8.223  26.125  20.784  0.1540 -0.0274  0.1626
38982DOD     C160765  10.855  24.537  20.821 -0.4192  0.2462  0.0081
38982DOD     C260766  11.131  24.447  20.452  0.2120 -0.1037  0.1950
38982DOD     C360767  11.600  24.498  20.387 -0.0258  0.0577 -0.0582
38983DOD     C160768   3.415  28.064  25.046 -0.2069 -0.1084 -0.0563
38983DOD     C260769   3.137  28.180  25.413  0.0899  0.2690  0.0526
38983DOD     C360770   3.250  28.333  25.808  0.3880  0.1288  0.0984
38984DOD     C160771  28.336  15.334   6.215 -0.0849  0.0920  0.2390
38984DOD     C260772  28.332  15.246   5.757 -0.1404  0.0098 -0.1463
38984DOD     C360773  28.391  15.647   5.459  0.1392  0.2884  0.0860
38985DOD     C160774  26.754  11.953   7.115  0.1297  0.0124 -0.1024
38985DOD     C260775  27.170  11.824   6.998  0.1767  0.0056 -0.4215
38985DOD     C360776  27.266  11.456   6.690  0.3551  0.1944 -0.3146
38986DOD     C160777   4.928  20.228   8.648  0.2904 -0.1060  0.0528
38986DOD     C260778   4.658  19.968   8.395  0.1266 -0.1900  0.2789
38986DOD     C360779   4.501  19.727   8.031  0.0782  0.0854 -0.1482
38987DOD     C160780   3.727  22.836  25.715 -0.1342  0.1174 -0.3232
38987DOD     C260781   3.320  23.037  25.779  0.1095 -0.0791  0.0053
38987DOD     C360782   2.968  23.346  25.654 -0.0837 -0.4150  0.3221
38988DOD     C160783  13.102  17.006  19.537  0.0203  0.0453  0.0659
38988DOD     C260784  13.533  17.250  19.630  0.0609 -0.0758 -0.0852
38988DOD     C360785  13.961  17.350  19.406 -0.2353 -0.1193 -0.0014
38989DOD     C160786  16.060   5.401  21.728 -0.0616 -0.3200 -0.2699
38989DOD     C260787  15.854   4.988  21.832 -0.0154 -0.1680  0.2838
38989DOD     C360788  15.526   4.848  21.536  0.1512  0.0558 -0.0517
38990DOD     C160789   8.264   8.641  15.015  0.2486 -0.0678  0.2708
38990DOD     C260790   7.989   8.334  15.125  0.3703  0.2387 -0.2730
38990DOD     C360791   7.959   7.936  15.313 -0.1001 -0.0316  0.3498
38991DOD     C160792  26.736   8.811  20.827 -0.0277  0.3963 -0.2803
38991DOD     C260793  26.578   8.559  20.429  0.1703 -0.0014 -0.1413
38991DOD     C360794  26.461   8.249  20.088 -0.1229  0.1375 -0.1204
38992DOD     C160795   2.878  15.717   3.983  0.0371  0.1141 -0.0302
38992DOD     C260796   2.605  15.405   3.724  0.1419 -0.0443 -0.2506
38992DOD     C360797   2.597  14.960   3.667  0.3373 -0.3722 -0.0288
38993DOD     C160798  15.506  11.896   0.321 -0.0627 -0.2152  0.0214
38993DOD     C260799  15.136  12.013   0.508  0.0033 -0.1041  0.2795
38993DOD     C360800  14.896  12.336   0.310 -0.0618  0.2418  0.1515
38994DOD     C160801   4.255  22.709   4.864 -0.3756  0.1147  0.3888
38994DOD     C260802   4.074  22.890   5.212 -0.0880 -0.1988 -0.0279
38994DOD     C360803   3.726  22.999   5.486 -0.1973 -0.0495 -0.0269
38995DOD     C160804   4.921  26.742   6.449 -0.1975 -0.1861 -0.2253
38995DOD     C260805   5.052  27.177   6.273  0.1942 -0.1134  0.0450
38995DOD     C360806   5.259  27.575   6.050  0.2009  0.0673  0.1352
38996DOD     C160807   4.736  28.596  17.584  0.0711  0.2579  0.0098
38996DOD     C260808   4.838  28.371  17.161  0.1325  0.0178  0.3181
38996DOD     C360809   5.061  28.512  16.740 -0.0181  0.1430  0.2615
38997DOD     C160810  14.696   7.889   3.901 -0.1568 -0.1924  0.0218
38997DOD     C260811  15.131   7.784   4.004 -0.0586 -0.0555 -0.2810
38997DOD     C360812  15.537   7.667   3.908  0.0124 -0.0749 -0.2389
38998DOD     C160813  23.486   3.490   7.876 -0.1890  0.0915 -0.4426
38998DOD     C260814  23.759   3.327   8.232 -0.3030  0.3288 -0.2443
38998DOD     C360815  23.771   3.163   8.715 -0.0374 -0.2950 -0.1605
38999DOD     C160816   6.099   5.922  10.550  0.0664  0.0850  0.2463
38999DOD     C260817   6.339   5.834  10.955  0.0534 -0.1025 -0.0269
38999DOD     C360818   6.555   5.696  11.357 -0.0732 -0.0046  0.0288
39000DOD     C160819  21.513  10.267   8.579  0.0717  0.0298  0.1279
39000DOD     C260820  21.207  10.280   8.900  0.0070 -0.0054 -0.3676
39000DOD     C360821  21.252  10.366   9.328  0.1274 -0.0259  0.2180
39001DOD     C160822   5.718  28.315  10.975 -0.4867  0.1934  0.2309
39001DOD     C260823   5.693  28.582  11.335  0.0167  0.2941  0.0744
39001DOD     C360824   5.926  28.633  11.690 -0.0733  0.0874 -0.0203
39002DOD     C160825  15.897  26.132  12.706 -0.0646  0.1676  0.0387
39002DOD     C260826  16.159  26.448  12.937  0.2221  0.1001 -0.1968
39002DOD     C360827  16.539  26.791  12.989 -0.0489 -0.0351 -0.0661
39003DOD     C160828  29.232   2.467  29.115  0.1508  0.1346  0.0592
39003DOD     C260829  28.770   2.572  29.233  0.0704  0.4254 -0.0981
39003DOD     C360830  28.521   2.243  29.573 -0.2320  0.1659  0.1171
39004DOD     C160831  26.577  19.717  25.740  0.3009  0.1172  0.0194
39004DOD     C260832  26.691  19.664  26.195 -0.2599  0.1862  0.2573
39004DOD     C360833  26.946  19.407  26.540  0.1846 -0.0141 -0.0513
39005DOD     C160834  10.104  22.946  11.312  0.3173 -0.2246  0.0457
39005DOD     C260835   9.775  22.883  11.641 -0.2388 -0.0518  0.3271
39005DOD     C360836   9.401  22.967  11.890 -0.1986 -0.0526  0.2104
39006DOD     C160837   3.835  22.247  19.664  0.0291  0.3253  0.0618
39006DOD     C260838   3.339  22.326  19.703  0.1370 -0.1686  0.0961
39006DOD     C360839   2.962  22.083  19.896 -0.1406 -0.1533 -0.0072
39007DOD     C160840   9.723  13.048   8.127 -0.1133 -0.0527  0.1381
39007DOD     C260841   9.717  13.154   7.660 -0.0702 -0.0962 -0.1604
39007DOD     C360842   9.842  13.447   7.267  0.2390 -0.1616  0.0781
39008DOD     C160843  18.104   5.269   8.007  0.0977  0.1463  0.4000
39008DOD     C260844  18.064   4.960   8.360 -0.1812  0.4815  0.0000
39008DOD     C360845  18.224   4.751   8.747  0.4878 -0.1557  0.1203
39009DOD     C160846  10.955  25.605  12.245  0.0226  0.1460 -0.4579
39009DOD     C260847  11.063  25.828  11.843  0.0268  0.1102 -0.3604
39009DOD     C360848  11.406  25.851  11.499  0.0020  0.1153  0.2112
39010DOD     C160849  13.543  13.456   5.334  0.3242 -0.0900  0.0072
39010DOD     C260850  13.804  13.826   5.295  0.1468  0.2450 -0.0857
39010DOD     C360851  14.238  14.066   5.263 -0.0144 -0.0423  0.2342
39011DOD     C160852  12.003   1.568  21.443 -0.0675 -0.1370  0.0300
39011DOD     C260853  11.927   1.123  21.634  0.2895  0.0291 -0.0549
39011DOD     C360854  11.473   0.972  21.882  0.0040 -0.0390 -0.0838
39012DOD     C160855  11.227  22.006  15.791 -0.3463  0.4870 -0.0092
39012DOD     C260856  11.306  21.557  15.596 -0.1029 -0.1848 -0.2569
39012DOD     C360857  11.579  21.248  15.409 -0.0361  0.0728  0.0681
39013DOD     C160858  21.327  15.756   8.933 -0.1441 -0.2984  0.0838
39013DOD     C260859  20.921  15.733   8.741 -0.1732  0.0981  0.0291
39013DOD     C360860  20.510  15.699   8.651 -0.0382 -0.2778 -0.3197
39014DOD     C160861  28.881   5.090  18.942 -0.2720  0.3180  0.1658
39014DOD     C260862  29.327   5.206  19.151  0.6110 -0.0696  0.2041
39014DOD     C360863  29.729   5.302  19.359 -0.1755 -0.2440 -0.0956
39015DOD     C160864  12.074   1.522   2.308 -0.3830  0.0941  0.2732
39015DOD     C260865  11.689   1.437   2.049 -0.2633 -0.0941  0.0408
39015DOD     C360866  11.361   1.237   1.719  0.0735 -0.1242  0.1653
39016DOD     C160867   6.049  21.681  14.794 -0.3065 -0.0087 -0.0023
39016DOD     C260868   5.867  21.714  15.169 -0.0675  0.0254 -0.2221
39016DOD     C360869   5.787  21.742  15.662  0.0152 -0.2615  0.1431
39017DOD     C160870  26.238   2.133   9.176 -0.1295 -0.1762 -0.0157
39017DOD     C260871  26.165   1.682   9.043 -0.1618 -0.1243 -0.3785
39017DOD     C360872  26.168   1.268   8.862 -0.2359  0.1347  0.2337
39018DOD     C160873  20.399   9.027   8.565 -0.1972  0.2385  0.0899
39018DOD     C260874  20.007   9.138   8.308  0.0411  0.0995 -0.2081
39018DOD     C360875  20.036   9.332   7.908  0.2249  0.0006  0.1602
39019DOD     C160876  28.348  24.984  16.631  0.3966 -0.0836 -0.0420
39019DOD     C260877  28.173  25.392  16.453 -0.0279 -0.1815 -0.0518
39019DOD     C360878  27.901  25.719  16.227  0.0764  0.1295  0.3982
39020DOD     C160879   7.949  27.104   8.535  0.2831 -0.2067  0.1082
39020DOD     C260880   8.027  26.716   8.745  0.0209  0.1775  0.1541
39020DOD     C360881   8.262  26.419   9.091 -0.2145 -0.0749  0.0527
39021DOD     C160882  18.159   5.874  18.916  0.0198  0.0521 -0.0245
39021DOD     C260883  18.564   5.756  18.719 -0.0662 -0.0587  0.0948
39021DOD     C360884  19.038   5.913  18.730 -0.0513 -0.2032  0.2403
39022DOD     C160885  13.295  11.995  22.760  0.0325 -0.0901  0.1906
39022DOD     C260886  12.901  12.107  22.954 -0.2496  0.0273 -0.1179
39022DOD     C360887  12.467  11.905  22.991 -0.2123 -0.0566 -0.1816
39023DOD     C160888   5.038  25.104  17.535 -0.1300  0.0883 -0.3483
39023DOD     C260889   5.437  24.993  17.804 -0.1044 -0.3953 -0.2157
39023DOD     C360890   5.709  24.671  18.069 -0.2805  0.0347 -0.2220
39024DOD     C160891  20.915   2.353  13.122  0.0877 -0.0132  0.0722
39024DOD     C260892  21.053   2.608  13.475 -0.0244  0.0849 -0.1224
39024DOD     C360893  20.879   2.727  13.870 -0.1445 -0.0323 -0.2931
39025DOD     C160894  17.709  24.339  27.335  0.0067  0.3588 -0.0172
39025DOD     C260895  17.863  23.910  27.249 -0.0414 -0.2689  0.2829
39025DOD     C360896  17.915  23.468  27.232 -0.0553 -0.1685 -0.2423
39026DOD     C160897   0.891  19.703  23.539  0.5262 -0.1329  0.1693
39026DOD     C260898   1.043  19.488  23.848 -0.1788 -0.1236  0.0402
39026DOD     C360899   1.182  19.116  24.088  0.1244  0.0963  0.2449
39027DOD     C160900   7.948   8.378  19.858  0.1603  0.1087 -0.3063
39027DOD     C260901   8.352   8.526  19.816 -0.0996 -0.0304  0.1933
39027DOD     C360902   8.359   8.987  19.571  0.1819  0.0640  0.1066
39028DOD     C160903   7.599  12.923  11.006  0.0005 -0.1921 -0.1061
39028DOD     C260904   7.358  13.250  10.924  0.1526  0.2093  0.1207
39028DOD     C360905   7.152  13.694  10.770 -0.0044  0.2548  0.1449
39029DOD     C160906  22.872  23.241   5.821 -0.2669  0.0987 -0.3753
39029DOD     C260907  22.952  23.280   6.270 -0.0218  0.2103 -0.0949
39029DOD     C360908  23.222  23.640   6.492  0.0560  0.1474 -0.0830
39030DOD     C160909  26.141   3.608   1.149 -0.2214  0.1229  0.1386
39030DOD     C260910  26.020   3.514   1.608  0.0123  0.2587 -0.1008
39030DOD     C360911  25.685   3.689   1.892 -0.1217 -0.2990 -0.0313
39031DOD     C160912   7.878   1.579  19.662  0.1214  0.1268 -0.0548
39031DOD     C260913   8.044   1.131  19.741 -0.0350  0.1535  0.0875
39031DOD     C360914   8.410   0.894  19.618 -0.0167  0.0295 -0.2143
39032DOD     C160915  30.266  23.700  15.324 -0.1648 -0.1228  0.0394
39032DOD     C260916   0.201  23.267  15.223  0.0936  0.0227  0.1438
39032DOD     C360917   0.436  23.050  14.913  0.2169  0.3499  0.0581
39033DOD     C160918   9.934  29.420  30.030  0.0243  0.1625 -0.0564
39033DOD     C260919   9.785  29.584   0.102  0.0967 -0.3388  0.3060
39033DOD     C360920   9.586  29.982   0.075  0.1983  0.0060 -0.0402
39034DOD     C160921  30.116  22.301  21.442  0.2061 -0.0144 -0.1709
39034DOD     C260922  30.085  22.719  21.217  0.0086  0.0701  0.0008
39034DOD     C360923  30.034  23.164  21.337 -0.1140 -0.1187 -0.2834
39035DOD     C160924   3.233  16.059  17.180 -0.2503 -0.0692 -0.2451
39035DOD     C260925   3.660  16.224  17.079 -0.3444  0.0815 -0.1991
39035DOD     C360926   4.082  16.368  16.790  0.1109 -0.2194  0.0046
39036DOD     C160927  26.174  12.180  21.767 -0.1238 -0.1956  0.1146
39036DOD     C260928  25.734  11.998  21.911 -0.3110  0.0290 -0.0057
39036DOD     C360929  25.340  11.959  22.177  0.0687 -0.4120 -0.0298
39037DOD     C160930  13.145   0.176  10.768 -0.2249 -0.0946  0.0062
39037DOD     C260931  13.093   0.505  10.455 -0.0369 -0.0633 -0.1663
39037DOD     C360932  13.080   0.796  10.108 -0.1638 -0.0791 -0.0381
39038DOD     C160933  24.898  19.709  30.101 -0.1405 -0.0919 -0.0840
39038DOD     C260934  25.205  20.021  30.208  0.0202 -0.2745 -0.1122
39038DOD     C360935  25.573  19.962   0.244  0.1200 -0.0320 -0.1596
39039DOD     C160936  25.489  21.263  13.857  0.0453  0.1583 -0.1559
39039DOD     C260937  25.753  21.104  13.508  0.1202 -0.2647  0.0340
39039DOD     C360938  26.049  20.826  13.279 -0.0735 -0.0619 -0.0882
39040DOD     C160939  10.027  10.391  24.382  0.1713 -0.1274 -0.3316
39040DOD     C260940  10.296  10.757  24.200  0.0308 -0.0208 -0.1373
39040DOD     C360941  10.342  11.094  23.940 -0.1118  0.1713  0.0644
39041DOD     C160942  14.372  16.937  16.205 -0.1809 -0.1214  0.5039
39041DOD     C260943  14.729  17.176  16.323 -0.0530  0.0862  0.0450
39041DOD     C360944  14.879  17.399  16.700  0.2140  0.0467 -0.1332
39042DOD     C160945  29.284  28.115   4.943  0.0269  0.0107 -0.0342
39042DOD     C260946  29.405  27.687   4.737  0.1131 -0.0083 -0.1962
39042DOD     C360947  29.539  27.218   4.579  0.1015  0.0868  0.3647
39043DOD     C160948  21.180   6.924  14.320  0.0632  0.0645 -0.1852
39043DOD     C260949  21.096   7.032  14.802  0.0364  0.2037 -0.0195
39043DOD     C360950  20.840   6.896  15.186  0.0816 -0.2293  0.2410
39044DOD     C160951  21.564  15.571   7.971  0.0940  0.0188  0.0613
39044DOD     C260952  21.293  15.341   7.636  0.0625 -0.0895 -0.2212
39044DOD     C360953  21.325  15.028   7.342 -0.0863 -0.4545  0.0946
39045DOD     C160954  24.812  17.661  21.920  0.0798 -0.4922  0.0625
39045DOD     C260955  24.677  18.069  21.745  0.0065  0.3780  0.0167
39045DOD     C360956  24.378  18.347  21.637 -0.1925  0.1759  0.1188
39046DOD     C160957  29.428   9.541  21.154 -0.1522 -0.1329 -0.1366
39046DOD     C260958  29.882   9.491  21.001  0.0226 -0.0653 -0.0115
39046DOD     C360959  30.212   9.164  20.971 -0.2058 -0.0734  0.0656
39047DOD     C160960   3.697  25.663  18.435 -0.1832 -0.2126 -0.2070
39047DOD     C260961   3.849  25.748  18.817 -0.3158 -0.2323  0.1218
39047DOD     C360962   3.789  25.759  19.247  0.0590 -0.1007 -0.2714
39048DOD     C160963  20.363   2.334  11.513 -0.0839  0.2898  0.2166
39048DOD     C260964  20.252   1.900  11.518 -0.0897 -0.0392  0.0573
39048DOD     C360965  20.351   1.552  11.890 -0.1235 -0.0899  0.0002
39049DOD     C160966   2.867   4.140  26.783  0.0733 -0.0896  0.0120
39049DOD     C260967   2.966   3.940  27.164 -0.0304  0.0767  0.1041
39049DOD     C360968   2.999   3.824  27.542 -0.0120  0.0181  0.1025
39050DOD     C160969  24.684   7.681  14.951  0.1570 -0.0903  0.1673
39050DOD     C260970  25.078   8.007  14.915 -0.2133  0.3305  0.1320
39050DOD     C360971  25.514   8.239  14.895  0.1649 -0.0499  0.0367
39051DOD     C160972  28.991  18.667   1.308 -0.1796 -0.1060 -0.0754
39051DOD     C260973  29.198  18.462   0.915  0.0263 -0.0536  0.0407
39051DOD     C360974  29.438  18.085   0.697 -0.2432  0.2324 -0.1725
39052DOD     C160975  18.188  22.108  26.367 -0.0844  0.2417 -0.0342
39052DOD     C260976  17.810  21.842  26.190 -0.0980 -0.0918  0.1236
39052DOD     C360977  17.523  21.525  25.997  0.1611 -0.0497  0.0850
39053DOD     C160978   4.587  12.146  15.700 -0.0720  0.0344  0.0017
39053DOD     C260979   4.194  12.273  15.395 -0.2778 -0.2057  0.0706
39053DOD     C360980   4.199  12.163  14.943  0.1045 -0.4223 -0.1244
39054DOD     C160981   4.253   2.753  13.362  0.2469 -0.1045  0.0641
39054DOD     C260982   4.542   2.833  13.702  0.0589 -0.0195 -0.1788
39054DOD     C360983   4.989   2.951  13.726  0.2306 -0.2742 -0.2287
39055DOD     C160984   2.575  10.241  14.124 -0.1761 -0.0213  0.2058
39055DOD     C260985   2.155  10.054  14.029 -0.0281 -0.1661  0.0031
39055DOD     C360986   2.167   9.693  13.712 -0.0453 -0.1529  0.2241
39056DOD     C160987  15.271  15.867  20.553 -0.2337 -0.1598  0.2509
39056DOD     C260988  15.342  15.917  20.969 -0.0966  0.0441 -0.0579
39056DOD     C360989  15.304  16.128  21.416  0.1053 -0.1042  0.0352
39057DOD     C160990  20.906  26.275   4.429 -0.1401 -0.2951 -0.1200
39057DOD     C260991  21.145  26.675   4.205 -0.0623 -0.2518 -0.0676
39057DOD     C360992  21.402  27.001   4.444 -0.0538 -0.0417  0.2827
39058DOD     C160993  26.249  26.269   3.999  0.0967  0.3235  0.0458
39058DOD     C260994  26.273  26.564   4.334  0.0073  0.0106 -0.1803
39058DOD     C360995  26.100  26.868   4.657  0.1523 -0.0542  0.3540
39059DOD     C160996  29.882  14.246   7.720 -0.0023  0.2914  0.0607
39059DOD     C260997  29.856  14.554   8.114 -0.0591  0.2141 -0.2394
39059DOD     C360998  29.834  14.957   8.407  0.0774 -0.1489 -0.1318
39060DOD     C160999  24.009   1.225  24.366 -0.2081 -0.1777 -0.1581
39060DOD     C261000  23.778   1.605  24.492  0.2363 -0.0618 -0.1866
39060DOD     C361001  23.449   1.810  24.680  0.1539  0.0675  0.0232
39061DOD     C161002   2.704  23.917  29.524  0.1119  0.0856  0.0228
39061DOD     C261003   2.651  24.367  29.525  0.3091 -0.0587 -0.0257
39061DOD     C361004   2.671  24.687  29.844 -0.0796  0.3023 -0.0285
39062DOD     C161005  16.665   3.945  20.845  0.0012 -0.3737  0.2588
39062DOD     C261006  16.676   3.837  20.400  0.2485  0.1073  0.0205
39062DOD     C361007  16.512   4.116  20.069 -0.0730 -0.0971  0.0634
39063DOD     C161008  25.005   9.344  27.555 -0.0397 -0.3400 -0.0443
39063DOD     C261009  25.063   8.971  27.796  0.5495  0.3220 -0.0585
39063DOD     C361010  24.893   8.680  28.115 -0.3826 -0.0998  0.1333
39064DOD     C161011  21.294   7.596  18.061  0.1956  0.2023 -0.1457
39064DOD     C261012  21.363   7.224  18.392 -0.1105 -0.1051 -0.3398
39064DOD     C361013  21.541   6.812  18.526 -0.0294 -0.0791 -0.0186
39065DOD     C161014   8.257  29.935  20.960  0.2005 -0.1096 -0.0283
39065DOD     C261015   8.057  30.016  20.580  0.2261 -0.2037  0.0408
39065DOD     C361016   7.782  29.920  20.249  0.1302 -0.1163  0.1042
39066DOD     C161017  12.750  22.473  28.687 -0.0787 -0.1220 -0.0256
39066DOD     C261018  12.375  22.233  28.835  0.1027  0.2598  0.0798
39066DOD     C361019  12.167  22.082  29.231 -0.4060 -0.0910  0.1463
39067DOD     C161020  16.043  15.188  14.013 -0.2768  0.2791 -0.0277
39067DOD     C261021  15.939  14.730  14.078  0.1632 -0.1443 -0.1122
39067DOD     C361022  16.124  14.327  14.202  0.2668 -0.0074 -0.0316
39068DOD     C161023   3.599  20.309  11.583  0.0968 -0.1207  0.0184
39068DOD     C261024   3.562  20.257  12.064  0.0334 -0.5017 -0.0608
39068DOD     C361025   3.650  20.117  12.546 -0.2109  0.0857  0.0719
39069DOD     C161026   5.957  22.130  14.375 -0.0768 -0.2870 -0.2899
39069DOD     C261027   5.986  22.182  14.869 -0.0927  0.1307  0.1981
39069DOD     C361028   5.845  22.177  15.358  0.0430  0.0722 -0.1095
39070DOD     C161029  21.105  17.274  10.568 -0.0433 -0.0688  0.2699
39070DOD     C261030  21.070  17.388  11.033 -0.1030  0.1592 -0.0804
39070DOD     C361031  21.268  17.513  11.439 -0.0846 -0.3506  0.1812
39071DOD     C161032  16.153  29.268  11.136 -0.0098  0.0936  0.1051
39071DOD     C261033  16.286  29.488  10.735  0.1668 -0.2375 -0.1784
39071DOD     C361034  16.537  29.347  10.375 -0.0656  0.1103 -0.2106
39072DOD     C161035  20.733  15.860   4.353  0.1111 -0.0029 -0.0231
39072DOD     C261036  20.863  15.721   3.944  0.0466  0.2034  0.0948
39072DOD     C361037  20.801  15.943   3.506  0.0804 -0.0234 -0.0835
39073DOD     C161038  30.289   7.679  25.013  0.1955 -0.2273  0.1647
39073DOD     C261039   0.267   7.751  24.687 -0.1332  0.3217  0.0253
39073DOD     C361040   0.683   7.589  24.526 -0.2550 -0.1593  0.3422
39074DOD     C161041   2.485  28.561  14.409 -0.1303 -0.2035 -0.0843
39074DOD     C261042   2.571  28.997  14.439 -0.0972 -0.0033  0.0039
39074DOD     C361043   2.570  29.332  14.821 -0.0867  0.0919  0.0672
39075DOD     C161044  12.986  20.314  19.133  0.0940  0.0390  0.1528
39075DOD     C261045  13.097  20.668  19.441  0.1497 -0.1547 -0.1794
39075DOD     C361046  13.190  21.027  19.724 -0.0049  0.1501 -0.1641
39076DOD     C161047  13.169   8.190  21.368  0.0756 -0.0051 -0.0091
39076DOD     C261048  13.475   7.927  21.576 -0.0871  0.1202 -0.0448
39076DOD     C361049  13.900   7.760  21.733  0.0088 -0.2249  0.1254
39077DOD     C161050   9.437  19.974   0.095  0.1620 -0.1147 -0.1762
39077DOD     C261051   9.313  20.425   0.197 -0.1284 -0.0576  0.0182
39077DOD     C361052   9.145  20.694   0.505  0.0936  0.1309  0.0039
39078DOD     C161053  12.038   4.244  19.687 -0.0677 -0.1457  0.0969
39078DOD     C261054  11.997   3.780  19.625 -0.1598  0.3317  0.1939
39078DOD     C361055  12.341   3.547  19.587  0.0118 -0.0188  0.1132
39079DOD     C161056  28.508   3.976  24.320  0.0378  0.1284  0.1887
39079DOD     C261057  28.246   4.216  24.600  0.1976  0.2069  0.0580
39079DOD     C361058  28.025   4.577  24.783  0.2854  0.0654  0.3090
39080DOD     C161059   7.310  22.753  25.253 -0.2458  0.2637 -0.2560
39080DOD     C261060   6.781  22.760  25.177  0.1629  0.0999 -0.3094
39080DOD     C361061   6.331  22.825  25.379  0.0888  0.0090  0.0141
39081DOD     C161062   4.358   9.680  27.718 -0.0902  0.0122  0.1752
39081DOD     C261063   4.228   9.561  28.115  0.1207  0.1347 -0.1746
39081DOD     C361064   3.780   9.377  28.279 -0.0774  0.2052 -0.1220
39082DOD     C161065  16.729   1.033  19.950  0.2308 -0.2688 -0.2558
39082DOD     C261066  16.946   1.002  19.564 -0.0688  0.0904  0.0750
39082DOD     C361067  16.823   1.038  19.146 -0.0217  0.1585 -0.1132
39083DOD     C161068  10.071  10.590  29.815  0.1500  0.4648 -0.0136
39083DOD     C261069   9.832  11.008  29.751 -0.1989 -0.1126  0.1663
39083DOD     C361070   9.568  11.397  29.779  0.0152 -0.2188 -0.0797
39084DOD     C161071  15.608  22.442   1.092  0.2183  0.0902  0.2188
39084DOD     C261072  15.387  22.501   1.558 -0.1872 -0.1219  0.1890
39084DOD     C361073  14.971  22.663   1.673 -0.1110  0.2624 -0.2713
39085DOD     C161074   2.524  19.189  18.713  0.2031  0.0171  0.0460
39085DOD     C261075   2.772  19.167  19.104 -0.0280  0.0068  0.2880
39085DOD     C361076   2.848  18.717  19.189 -0.1318 -0.0936  0.1662
39086DOD     C161077   4.228   2.167   6.443  0.3084 -0.3200 -0.1729
39086DOD     C261078   4.368   2.587   6.371 -0.1825  0.0732 -0.1139
39086DOD     C361079   3.979   2.871   6.234 -0.4607 -0.1076  0.0088
39087DOD     C161080  15.364  18.822  27.757 -0.2400  0.4311 -0.1912
39087DOD     C261081  15.158  18.427  27.593  0.1139 -0.2827 -0.5631
39087DOD     C361082  14.735  18.193  27.630  0.3627 -0.1647 -0.0157
39088DOD     C161083  29.230   8.124   8.353  0.0202 -0.0366 -0.0165
39088DOD     C261084  29.003   8.397   8.620  0.0707 -0.0626  0.1335
39088DOD     C361085  28.952   8.898   8.736 -0.1912  0.2541  0.0288
39089DOD     C161086  12.933  21.452   0.477 -0.0608  0.0079  0.0512
39089DOD     C261087  12.933  21.869   0.283  0.0620 -0.0430 -0.0850
39089DOD     C361088  12.773  22.304   0.092 -0.2793 -0.0700 -0.0903
39090DOD     C161089   6.744  21.861  24.543  0.0005 -0.0418 -0.0760
39090DOD     C261090   6.876  22.153  24.163  0.1395 -0.1208  0.0602
39090DOD     C361091   6.904  22.366  23.717  0.1805  0.1493  0.1923
39091DOD     C161092  26.701   8.785  13.866 -0.0306 -0.0461 -0.3220
39091DOD     C261093  26.596   8.733  14.293  0.0483  0.0009  0.0472
39091DOD     C361094  26.555   8.825  14.754  0.2161 -0.0039 -0.1092
39092DOD     C161095   4.446  13.063   0.255  0.0557 -0.1729 -0.1796
39092DOD     C261096   4.632  12.664   0.385  0.1398  0.0605 -0.0516
39092DOD     C361097   5.025  12.599   0.547 -0.0037  0.0809 -0.1528
39093DOD     C161098  16.028  27.339   3.211  0.0489  0.0651 -0.0816
39093DOD     C261099  16.092  27.509   2.800 -0.0044 -0.5166 -0.1756
39093DOD     C361100  15.840  27.340   2.500  0.2393 -0.0932 -0.1849
39094DOD     C161101   3.324  30.019  12.834  0.0858 -0.2490 -0.0996
39094DOD     C261102   3.781  30.163  12.883  0.2536  0.0339  0.0749
39094DOD     C361103   4.089  30.051  12.541 -0.0549 -0.2353  0.2996
39095DOD     C161104  10.912  12.419  11.288 -0.0586 -0.1535 -0.0939
39095DOD     C261105  10.417  12.405  11.118  0.0758 -0.0889  0.0513
39095DOD     C361106   9.957  12.345  11.130 -0.1486 -0.0796  0.1832
39096DOD     C161107  16.581  14.258   4.985 -0.0921 -0.0253 -0.0078
39096DOD     C261108  16.931  14.295   4.633  0.2624 -0.0927  0.0390
39096DOD     C361109  17.279  14.319   4.343  0.0490 -0.0129  0.1088
39097DOD     C161110   7.063  21.469   4.539  0.0831  0.0119  0.0766
39097DOD     C261111   6.736  21.775   4.648  0.0784 -0.2023 -0.0349
39097DOD     C361112   6.376  21.930   5.017  0.0880 -0.0222 -0.1301
39098DOD     C161113  16.796  22.594  28.895  0.0323  0.2074  0.1713
39098DOD     C261114  16.937  22.598  28.461  0.0055  0.3495  0.3580
39098DOD     C361115  17.193  22.588  28.058 -0.4770  0.1159 -0.1695
39099DOD     C161116  21.054  25.242  29.482 -0.1876  0.1365  0.2239
39099DOD     C261117  21.285  24.847  29.599 -0.1919  0.2236  0.1298
39099DOD     C361118  21.688  24.584  29.603  0.0112  0.1744  0.1157
39100DOD     C161119   5.121   0.637  11.895 -0.0108 -0.0912  0.3960
39100DOD     C261120   5.189   1.062  11.618 -0.2126  0.2295 -0.1350
39100DOD     C361121   5.197   1.529  11.672 -0.1075 -0.2309  0.2789
39101DOD     C161122  21.967   2.776  25.235  0.2540 -0.0216 -0.2165
39101DOD     C261123  22.344   2.645  25.472  0.1972  0.2028  0.2906
39101DOD     C361124  22.741   2.395  25.475  0.3277  0.0372  0.0922
39102DOD     C161125   6.106  17.376  11.806 -0.1526  0.2690 -0.1337
39102DOD     C261126   6.213  17.306  12.258 -0.1758 -0.3511 -0.0734
39102DOD     C361127   6.130  17.012  12.590 -0.3440 -0.1716  0.0222
39103DOD     C161128   7.241   0.849  11.727  0.1419 -0.0060 -0.0075
39103DOD     C261129   7.566   1.152  11.787  0.0034  0.0401  0.2095
39103DOD     C361130   8.052   1.264  11.838  0.0549  0.3630 -0.1571
39104DOD     C161131  27.625   3.886  16.166 -0.0891 -0.1837 -0.0067
39104DOD     C261132  27.302   3.723  16.505 -0.0286 -0.0829 -0.0215
39104DOD     C361133  26.862   3.615  16.596  0.1403  0.0611 -0.0035
39105DOD     C161134   6.659  17.413  24.162  0.2527  0.2260  0.4829
39105DOD     C261135   7.034  17.537  23.875 -0.0859 -0.1545  0.1199
39105DOD     C361136   7.010  17.556  23.413 -0.0523  0.2653 -0.0787
39106DOD     C161137   6.456  26.959   6.664  0.2430  0.0634 -0.0668
39106DOD     C261138   6.369  27.372   6.498 -0.1535  0.1095  0.0514
39106DOD     C361139   6.393  27.814   6.342 -0.0265  0.0820 -0.1991
39107DOD     C161140  15.869  29.045   7.637  0.0187  0.1987 -0.3748
39107DOD     C261141  16.075  28.693   7.408  0.0666 -0.1685 -0.1003
39107DOD     C361142  16.193  28.202   7.412  0.0231  0.0862 -0.1013
39108DOD     C161143  29.741  25.536   4.747  0.0068  0.0535  0.0584
39108DOD     C261144  29.895  25.438   4.266  0.1629 -0.1649  0.0988
39108DOD     C361145  30.332  25.305   4.172 -0.0563  0.0282 -0.0763
39109DOD     C161146   8.214  23.492  20.379  0.0481  0.2355  0.0031
39109DOD     C261147   7.960  23.502  19.977  0.1745 -0.1975 -0.0561
39109DOD     C361148   7.995  23.555  19.481  0.1480 -0.0257 -0.2826
39110DOD     C161149   7.335   5.385   4.750  0.2830 -0.0323 -0.0363
39110DOD     C261150   7.142   5.039   4.556  0.1450 -0.2581 -0.0855
39110DOD     C361151   6.854   4.769   4.384  0.0307  0.4052  0.0247
39111DOD     C161152  21.490   2.437  11.359  0.0154 -0.3068  0.3127
39111DOD     C261153  21.908   2.715  11.466 -0.0914 -0.2241 -0.1419
39111DOD     C361154  22.327   2.542  11.517 -0.0241  0.0780  0.0123
39112DOD     C161155  15.305  17.233  19.198  0.0373 -0.2499  0.0258
39112DOD     C261156  15.063  16.867  19.224 -0.2285 -0.0184  0.2153
39112DOD     C361157  14.780  16.547  19.443  0.2509  0.2142  0.1615
39113DOD     C161158  15.034   7.104  23.410  0.0457 -0.3106  0.3184
39113DOD     C261159  15.314   7.468  23.381 -0.0893 -0.0539  0.1597
39113DOD     C361160  15.573   7.760  23.113  0.0988  0.4804  0.1294
39114DOD     C161161   2.469   4.913  18.460 -0.0156 -0.0822 -0.0835
39114DOD     C261162   2.801   4.779  18.211  0.0781 -0.0306  0.3179
39114DOD     C361163   3.172   4.738  17.926  0.1936  0.1667 -0.1400
39115DOD     C161164   4.069  26.390  23.680 -0.3174 -0.0762  0.1716
39115DOD     C261165   3.656  26.388  23.950  0.0351 -0.2425 -0.3065
39115DOD     C361166   3.392  26.126  24.200  0.0646  0.1687 -0.0671
39116DOD     C161167   3.750  12.417  29.202  0.0746  0.1021  0.0649
39116DOD     C261168   3.932  12.604  28.783 -0.0946  0.0609  0.0237
39116DOD     C361169   3.567  12.917  28.611  0.0425  0.1410 -0.3523
39117DOD     C161170  11.216  19.019  13.127 -0.3830 -0.0002 -0.1801
39117DOD     C261171  11.685  19.063  13.024 -0.0326 -0.3009  0.0319
39117DOD     C361172  12.055  19.045  13.304  0.2572 -0.0581  0.0067
39118DOD     C161173  19.097  18.837  28.700 -0.2575  0.0585 -0.2245
39118DOD     C261174  18.885  19.093  28.368  0.0448 -0.0750 -0.0399
39118DOD     C361175  19.103  19.364  28.038 -0.2036 -0.0989 -0.1565
39119DOD     C161176  26.464  26.381  25.054 -0.2064  0.0191 -0.1646
39119DOD     C261177  26.635  26.204  25.428 -0.3617 -0.0214 -0.1256
39119DOD     C361178  26.621  26.124  25.892  0.1167  0.0054  0.2429
39120DOD     C161179   8.770  17.977   3.050  0.0015  0.3279  0.0871
39120DOD     C261180   9.119  18.299   3.049  0.3002 -0.0954  0.0994
39120DOD     C361181   9.593  18.353   3.254 -0.1892 -0.1320  0.1222
39121DOD     C161182   8.903  14.441  29.832 -0.1938 -0.1506 -0.2200
39121DOD     C261183   9.182  14.836  29.752  0.2130  0.0673  0.0234
39121DOD     C361184   9.516  15.145  29.821  0.1286  0.1311 -0.0040
39122DOD     C161185   3.350  19.005  12.902  0.0928 -0.1128 -0.2430
39122DOD     C261186   3.036  18.642  12.843  0.2381 -0.0222 -0.2331
39122DOD     C361187   2.928  18.179  12.805  0.0395  0.0106  0.1323
39123DOD     C161188  21.635  24.423  15.260 -0.0402  0.5769  0.0132
39123DOD     C261189  21.862  24.315  14.846  0.0144  0.0307  0.0970
39123DOD     C361190  22.267  24.316  14.576  0.3286 -0.1569  0.0276
39124DOD     C161191  11.401  29.927  11.575 -0.0525  0.0488  0.1758
39124DOD     C261192  11.423  29.539  11.845 -0.1503 -0.0356  0.0769
39124DOD     C361193  11.308  29.092  11.991 -0.2669 -0.3811 -0.1006
39125DOD     C161194  26.476  12.703   2.656 -0.2921 -0.0144 -0.0827
39125DOD     C261195  26.310  13.124   2.742 -0.0064 -0.1429 -0.0934
39125DOD     C361196  25.944  13.231   3.023 -0.0140  0.1482 -0.4390
39126DOD     C161197  26.937  27.369  26.086  0.0725  0.0416 -0.3510
39126DOD     C261198  26.506  27.230  26.023  0.0413 -0.2953 -0.1530
39126DOD     C361199  26.158  27.196  26.292  0.1071 -0.0359  0.2160
39127DOD     C161200  10.301  28.037  19.105  0.0041  0.2060 -0.0882
39127DOD     C261201  10.379  28.199  19.547  0.0180 -0.4845  0.3106
39127DOD     C361202  10.475  28.467  19.939  0.0616 -0.0968 -0.2266
39128DOD     C161203  22.491  27.538  17.308 -0.1327 -0.0336 -0.2255
39128DOD     C261204  22.895  27.473  17.061  0.0611 -0.1852 -0.0326
39128DOD     C361205  23.296  27.534  16.842 -0.0528  0.1418 -0.0807
39129DOD     C161206   8.581  20.944   2.935 -0.2690  0.1778 -0.0743
39129DOD     C261207   8.698  21.384   2.742  0.1825 -0.3313  0.0514
39129DOD     C361208   8.528  21.723   2.431  0.0962 -0.0172 -0.0856
39130DOD     C161209  10.410  26.588  10.828 -0.2026 -0.1108 -0.0271
39130DOD     C261210  10.079  26.379  10.531  0.1565  0.3368 -0.1328
39130DOD     C361211   9.930  26.244  10.113  0.2827  0.1478  0.1804
39131DOD     C161212   5.711  14.837  18.230 -0.0882 -0.1088  0.0292
39131DOD     C261213   5.715  15.207  17.966  0.1437  0.2054  0.1505
39131DOD     C361214   5.511  15.496  17.617  0.2769 -0.1392 -0.1977
39132DOD     C161215  11.132  11.171  12.323 -0.3203  0.2498  0.3425
39132DOD     C261216  10.711  11.118  12.521  0.1336  0.1664  0.5068
39132DOD     C361217  10.271  11.100  12.690 -0.0778  0.0790  0.2232
39133DOD     C161218  14.888   9.304   5.277 -0.0676  0.0077  0.0229
39133DOD     C261219  15.128   9.704   5.197  0.0190  0.0445 -0.1389
39133DOD     C361220  15.561   9.832   4.966 -0.3063  0.0276  0.0526
39134DOD     C161221  10.006   8.913  25.439  0.3842 -0.0901 -0.2645
39134DOD     C261222  10.402   8.966  25.193  0.0126  0.2578  0.1972
39134DOD     C361223  10.500   8.673  24.809 -0.0346 -0.0405 -0.1067
39135DOD     C161224  11.419  22.513   7.902 -0.1701  0.1545 -0.2693
39135DOD     C261225  11.268  22.869   7.650  0.1748  0.2984  0.1637
39135DOD     C361226  11.052  23.033   7.287  0.2589 -0.2268  0.0101
39136DOD     C161227  11.442  30.001  23.817  0.0082 -0.2168  0.0211
39136DOD     C261228  11.647  29.720  23.472 -0.0999  0.2130 -0.1189
39136DOD     C361229  11.775  29.422  23.163  0.0432  0.3726  0.3392
39137DOD     C161230   1.279  18.321  17.844 -0.1102 -0.1002 -0.0427
39137DOD     C261231   1.673  18.584  17.708 -0.3147  0.2900  0.1220
39137DOD     C361232   1.873  18.939  17.486  0.0671 -0.2719 -0.0133
39138DOD     C161233   9.195  28.320  16.452 -0.2299 -0.2067  0.2459
39138DOD     C261234   9.173  28.382  16.979  0.1946 -0.0680  0.3055
39138DOD     C361235   8.949  28.409  17.404 -0.0611  0.1349 -0.1141
39139DOD     C161236  14.264  18.794   9.023  0.2237 -0.1385 -0.0619
39139DOD     C261237  14.355  18.883   9.451  0.1950  0.1665 -0.1358
39139DOD     C361238  14.080  18.750   9.821 -0.0256 -0.1024  0.0637
39140DOD     C161239  15.064   3.345  22.853  0.5508  0.1991  0.1632
39140DOD     C261240  15.386   2.981  22.931  0.0254 -0.2058  0.3930
39140DOD     C361241  15.692   2.692  22.742  0.0040 -0.0057 -0.1318
39141DOD     C161242  13.725   4.563  26.464  0.0447  0.0834 -0.0239
39141DOD     C261243  13.354   4.794  26.364  0.1197 -0.0684 -0.2634
39141DOD     C361244  12.898   4.656  26.260  0.4063  0.2864  0.0780
39142DOD     C161245  23.855  11.031  28.274 -0.3759 -0.1985  0.0040
39142DOD     C261246  23.888  10.853  28.715 -0.2776 -0.0586 -0.0390
39142DOD     C361247  23.689  10.767  29.157 -0.0221 -0.0378 -0.0338
39143DOD     C161248  29.652  27.554  14.062 -0.0826  0.1389  0.3874
39143DOD     C261249  29.289  27.885  14.058 -0.1411  0.1818  0.1590
39143DOD     C361250  28.925  28.155  14.057  0.0215  0.1363  0.1190
39144DOD     C161251  28.724   1.811  12.753  0.0829 -0.0655  0.1137
39144DOD     C261252  28.274   1.740  12.904  0.0157 -0.0031  0.1223
39144DOD     C361253  28.015   1.477  13.226  0.0727  0.0747 -0.0183
39145DOD     C161254   1.193  27.230   1.380 -0.3873  0.2861 -0.0158
39145DOD     C261255   1.385  27.526   1.697 -0.0165  0.3686 -0.2434
39145DOD     C361256   1.745  27.771   1.810  0.1780 -0.1015  0.4645
39146DOD     C161257  14.109  20.194  19.477  0.1529  0.0034  0.1429
39146DOD     C261258  14.200  20.356  19.030  0.1094 -0.1052  0.1718
39146DOD     C361259  14.407  20.267  18.651  0.0602  0.0387  0.1275
39147DOD     C161260   4.284  15.677  19.489  0.1470  0.1678  0.3926
39147DOD     C261261   4.280  15.235  19.265 -0.0357 -0.0951  0.0805
39147DOD     C361262   4.239  14.772  19.240  0.1089 -0.0782  0.0441
39148DOD     C161263   2.140   5.066  14.958 -0.3032 -0.1430  0.1009
39148DOD     C261264   2.339   5.161  15.411 -0.2342  0.1769  0.0658
39148DOD     C361265   2.483   4.996  15.854 -0.0494 -0.1516  0.1105
39149DOD     C161266   7.297   2.954  19.816  0.0939 -0.0093  0.1368
39149DOD     C261267   6.919   3.023  19.592  0.0151  0.5605  0.0202
39149DOD     C361268   6.816   3.194  19.161 -0.0506 -0.0148 -0.1634
39150DOD     C161269  25.819  13.256  24.837  0.1267 -0.0740 -0.1122
39150DOD     C261270  26.286  13.453  24.984 -0.2216 -0.0159  0.1072
39150DOD     C361271  26.650  13.527  25.236 -0.3735  0.2081  0.1055
39151DOD     C161272  27.991   1.448   9.486  0.1213  0.4344  0.2143
39151DOD     C261273  27.661   1.710   9.289  0.4653 -0.3733  0.1690
39151DOD     C361274  27.438   2.101   9.427 -0.0439 -0.0565  0.2075
39152DOD     C161275  16.523  10.438  26.337 -0.1148  0.2334 -0.0105
39152DOD     C261276  16.957  10.450  26.140 -0.0199  0.0823  0.1168
39152DOD     C361277  17.292  10.139  26.079 -0.0837  0.1011  0.1140
39153DOD     C161278  14.443  10.608  11.048 -0.2583 -0.0461  0.1267
39153DOD     C261279  14.793  10.793  10.859 -0.1735  0.1107  0.1352
39153DOD     C361280  15.237  10.757  10.764  0.2466  0.1343 -0.0478
39154DOD     C161281  27.253   9.752  12.984 -0.3337  0.1503  0.0465
39154DOD     C261282  27.013   9.909  12.638 -0.2264  0.1378  0.2654
39154DOD     C361283  26.526   9.922  12.494 -0.1141  0.2459  0.1939
39155DOD     C161284  25.287   9.129  19.951  0.0828  0.0791 -0.0827
39155DOD     C261285  25.718   9.198  20.162 -0.4282  0.1798 -0.1835
39155DOD     C361286  26.019   9.280  20.553 -0.0036 -0.1435 -0.2019
39156DOD     C161287  19.696   8.122  24.082  0.0911 -0.1504 -0.3308
39156DOD     C261288  19.944   8.502  23.887  0.3964  0.1478  0.1490
39156DOD     C361289  20.299   8.712  23.947  0.0172 -0.0629  0.3205
39157DOD     C161290   1.452  25.271   5.513  0.4537  0.4121 -0.1596
39157DOD     C261291   1.460  24.858   5.281  0.2720 -0.1506 -0.0143
39157DOD     C361292   1.532  24.786   4.788  0.3354 -0.1284  0.0169
39158DOD     C161293   8.982   0.412  22.192 -0.2404  0.1877  0.2199
39158DOD     C261294   9.100   0.899  22.185  0.2927  0.3706 -0.1606
39158DOD     C361295   9.094   1.345  22.138 -0.3755  0.2332  0.0684
39159DOD     C161296   4.114  17.476   4.086  0.0566 -0.0249 -0.2409
39159DOD     C261297   4.102  16.963   4.069 -0.1971 -0.1634 -0.0667
39159DOD     C361298   3.884  16.607   4.247  0.3183 -0.2995  0.3358
39160DOD     C161299  18.737  22.664  27.181 -0.2280 -0.1375  0.2213
39160DOD     C261300  18.706  22.529  26.744  0.1817  0.1393  0.2844
39160DOD     C361301  18.735  22.104  26.568 -0.0365  0.0215 -0.0486
39161DOD     C161302  18.945  22.997   3.472  0.0240  0.1087 -0.3340
39161DOD     C261303  19.290  23.114   3.783  0.0223  0.1276  0.2852
39161DOD     C361304  19.728  23.159   3.779 -0.1586  0.0668 -0.0513
39162DOD     C161305   4.109  22.093  24.861 -0.1231 -0.2606 -0.2337
39162DOD     C261306   3.851  22.433  25.064 -0.1778 -0.1070 -0.0545
39162DOD     C361307   3.645  22.832  25.014 -0.0110  0.1556  0.1425
39163DOD     C161308   0.997  29.364  10.477  0.0463  0.1715 -0.0767
39163DOD     C261309   0.744  29.304  10.105 -0.0943 -0.0976  0.0316
39163DOD     C361310   0.737  29.399   9.629  0.0316  0.0707 -0.1937
39164DOD     C161311  13.115  10.796  25.284  0.1314  0.1723 -0.3118
39164DOD     C261312  13.402  10.847  24.959  0.0758  0.1537 -0.0940
39164DOD     C361313  13.809  10.763  24.711  0.0301  0.4081  0.1483
39165DOD     C161314  14.559  21.989  11.852  0.0418 -0.1116  0.3084
39165DOD     C261315  14.494  22.456  11.635  0.1442  0.0703  0.1041
39165DOD     C361316  14.157  22.606  11.331  0.1881  0.0623 -0.2607
39166DOD     C161317  11.126  12.785  15.422  0.0995 -0.1312  0.1387
39166DOD     C261318  11.148  13.051  15.049  0.5073 -0.1201 -0.0366
39166DOD     C361319  11.070  13.359  14.682  0.2072 -0.2232 -0.0171
39167DOD     C161320  18.278   8.991   2.961 -0.2970  0.0455  0.0204
39167DOD     C261321  18.063   9.257   3.277  0.2051 -0.0253 -0.0150
39167DOD     C361322  17.677   9.500   3.421  0.2154  0.0154 -0.1164
39168DOD     C161323  21.892  17.727   8.709  0.1230 -0.1672 -0.2946
39168DOD     C261324  21.573  17.454   8.499  0.1543 -0.2342 -0.0687
39168DOD     C361325  21.258  17.134   8.664  0.2972  0.0027 -0.2817
39169DOD     C161326   8.299   1.592   5.481 -0.1914 -0.1703 -0.1558
39169DOD     C261327   7.966   1.840   5.658  0.2291  0.0849  0.2002
39169DOD     C361328   7.655   2.220   5.744  0.1859 -0.0350 -0.1630
39170DOD     C161329  25.522  26.677  27.231  0.2281 -0.0351  0.0733
39170DOD     C261330  25.440  27.122  27.385  0.0155 -0.1897  0.4548
39170DOD     C361331  25.290  27.550  27.196 -0.0403 -0.0886  0.1492
39171DOD     C161332  19.222  11.895  24.585  0.2718  0.0337 -0.2559
39171DOD     C261333  18.950  11.667  24.922  0.0404  0.1540 -0.4534
39171DOD     C361334  18.513  11.497  25.028  0.1156 -0.1878  0.1639
39172DOD     C161335  25.430  17.540  21.486 -0.0372  0.0298 -0.0684
39172DOD     C261336  25.608  17.730  21.853  0.2141  0.0781 -0.0377
39172DOD     C361337  25.820  18.076  22.137  0.1888 -0.0703 -0.1453
39173DOD     C161338  27.988  18.697  23.376  0.3870 -0.0826 -0.3094
39173DOD     C261339  27.987  18.263  23.198  0.0058  0.0386 -0.3230
39173DOD     C361340  28.076  18.072  22.809 -0.2173  0.1788 -0.1691
39174DOD     C161341  17.458   7.724  12.042  0.1893 -0.1826  0.0455
39174DOD     C261342  17.118   8.076  12.120 -0.0793  0.1782  0.1103
39174DOD     C361343  17.009   8.555  12.274 -0.0504 -0.0579  0.3584
39175DOD     C161344   0.052   9.794   5.518 -0.0049  0.2114 -0.1231
39175DOD     C261345  30.314   9.317   5.568  0.2749 -0.3017  0.1896
39175DOD     C361346   0.355   9.073   5.790  0.0944  0.0230 -0.1760
39176DOD     C161347  14.543  11.303  16.946  0.0180  0.1307  0.1022
39176DOD     C261348  14.319  11.204  17.343  0.2078 -0.0736 -0.0747
39176DOD     C361349  13.937  11.134  17.597 -0.1866  0.0028 -0.1586
39177DOD     C161350  11.819  12.079   5.592 -0.1112  0.1068  0.0207
39177DOD     C261351  11.372  12.163   5.790 -0.2813 -0.0864 -0.0595
39177DOD     C361352  10.972  12.273   5.925 -0.0649 -0.3841 -0.2146
39178DOD     C161353   8.194  23.638  11.067  0.1359 -0.1929 -0.3048
39178DOD     C261354   7.982  24.082  11.044 -0.0118  0.0516 -0.0925
39178DOD     C361355   7.652  24.402  11.058  0.2041  0.0580 -0.1258
39179DOD     C161356  19.488  26.718  30.362 -0.3730 -0.1394  0.2284
39179DOD     C261357  19.064  26.866  30.145  0.0894  0.1767 -0.0787
39179DOD     C361358  18.695  26.768  29.848  0.2539 -0.0333 -0.2375
39180DOD     C161359  14.386   4.537  22.210  0.1265  0.1345  0.2664
39180DOD     C261360  14.001   4.670  22.030  0.0300 -0.1491 -0.3481
39180DOD     C361361  13.578   4.823  22.038 -0.0492  0.0786 -0.0751
39181DOD     C161362   8.282  20.786   5.775 -0.0534 -0.0851 -0.1032
39181DOD     C261363   7.986  20.937   5.451  0.1394 -0.0969  0.0445
39181DOD     C361364   7.566  20.991   5.259 -0.1721 -0.3174  0.1077
39182DOD     C161365   7.865  13.019  19.305  0.2244  0.1599  0.1574
39182DOD     C261366   7.795  12.870  19.743 -0.2563  0.0586 -0.2621
39182DOD     C361367   7.737  12.396  19.876  0.1213 -0.3666  0.2031
39183DOD     C161368  29.822  30.016  22.306 -0.1057 -0.0391 -0.0573
39183DOD     C261369  29.760  29.567  22.425  0.1072  0.0244 -0.3980
39183DOD     C361370  29.605  29.349  22.754 -0.0502  0.2355  0.2107
39184DOD     C161371  23.605   4.565  24.688  0.1906  0.1876  0.2809
39184DOD     C261372  23.485   4.530  24.219 -0.1757 -0.2430 -0.1945
39184DOD     C361373  23.401   4.331  23.783  0.0159  0.1093 -0.1182
39185DOD     C161374  22.335  24.439  16.321 -0.1813 -0.0834  0.3388
39185DOD     C261375  22.021  24.419  16.595 -0.0349  0.1792  0.2991
39185DOD     C361376  21.861  24.169  16.962  0.2323 -0.1433  0.1471
39186DOD     C161377   9.237  30.175  13.418 -0.0740 -0.1898 -0.0234
39186DOD     C261378   8.946  29.843  13.295  0.0526 -0.4509  0.4311
39186DOD     C361379   8.612  29.668  13.059  0.3204  0.0298  0.1418
39187DOD     C161380  21.052   6.166   9.376 -0.0563  0.0695  0.0654
39187DOD     C261381  21.208   6.514   9.126  0.3031  0.0906  0.2103
39187DOD     C361382  21.121   6.835   8.800 -0.0184  0.5143 -0.1186
39188DOD     C161383  17.871  14.491  22.118  0.0343 -0.1620 -0.2282
39188DOD     C261384  17.725  14.873  21.871  0.2103  0.2349 -0.0341
39188DOD     C361385  17.850  15.327  21.980  0.1581  0.2100 -0.4044
39189DOD     C161386  22.408  15.783  16.690 -0.1326  0.1106  0.2052
39189DOD     C261387  22.249  16.135  16.976  0.2732 -0.2566  0.1580
39189DOD     C361388  22.303  16.580  17.060 -0.0608 -0.2913 -0.1042
39190DOD     C161389  11.962   8.250  10.543  0.1438 -0.1796  0.1020
39190DOD     C261390  12.354   8.436  10.384  0.1191 -0.1303  0.2600
39190DOD     C361391  12.716   8.692  10.160  0.3263 -0.1256 -0.3367
39191DOD     C161392  13.681  27.151   1.373 -0.2174 -0.1167 -0.0571
39191DOD     C261393  13.689  27.473   1.011 -0.1348 -0.2340 -0.0131
39191DOD     C361394  14.010  27.819   0.934 -0.0794 -0.1889  0.0250
39192DOD     C161395  12.334   1.710   4.030  0.0443 -0.1277 -0.0569
39192DOD     C261396  12.176   1.308   4.131 -0.0077  0.1423 -0.3857
39192DOD     C361397  11.995   1.195   4.598 -0.2274 -0.1417 -0.0526
39193DOD     C161398  21.815  20.175   2.067 -0.2238  0.0753 -0.0678
39193DOD     C261399  21.726  20.551   1.831 -0.0362  0.1410 -0.1238
39193DOD     C361400  21.411  20.836   1.880  0.1318 -0.3071  0.0999
39194DOD     C161401  13.702  24.393  11.118  0.0880  0.0942 -0.0165
39194DOD     C261402  13.288  24.376  11.019  0.2653 -0.0365 -0.0291
39194DOD     C361403  12.853  24.394  11.137  0.1498  0.2366  0.4742
39195DOD     C161404   1.562  26.053   0.905  0.0745 -0.4219  0.0784
39195DOD     C261405   1.292  25.920   1.225  0.3137  0.1189 -0.0507
39195DOD     C361406   1.254  26.147   1.610 -0.2447 -0.0168 -0.0164
39196DOD     C161407  23.622  17.706  17.390  0.0968 -0.2675 -0.2062
39196DOD     C261408  23.792  17.444  17.055  0.1317 -0.0145  0.2614
39196DOD     C361409  23.762  17.107  16.740  0.0719 -0.0609 -0.0136
39197DOD     C161410   4.474  23.470  26.935 -0.4458 -0.0564  0.0015
39197DOD     C261411   4.456  23.050  26.715 -0.0381 -0.3302  0.2898
39197DOD     C361412   4.694  22.954  26.327 -0.3249  0.2296 -0.0046
39198DOD     C161413  15.439   5.040  29.714 -0.1153  0.1392 -0.0327
39198DOD     C261414  15.466   4.608  29.861 -0.2993 -0.3531 -0.0013
39198DOD     C361415  15.779   4.366  30.129 -0.2602  0.0350 -0.0346
39199DOD     C161416   5.830   4.265  17.542  0.1557 -0.2180  0.1451
39199DOD     C261417   5.952   4.673  17.271  0.1045  0.0328 -0.1953
39199DOD     C361418   5.719   5.018  17.410  0.2296  0.0456  0.1150
39200DOD     C161419   5.777  15.147  17.300  0.3283 -0.1278 -0.2100
39200DOD     C261420   5.856  15.592  17.097  0.0918 -0.0419  0.1753
39200DOD     C361421   5.595  15.917  17.235  0.2211 -0.3276  0.0970
39201DOD     C161422  15.468  20.921   4.335 -0.1009  0.0091 -0.2921
39201DOD     C261423  15.294  21.162   4.620 -0.0822 -0.0219  0.1654
39201DOD     C361424  15.420  21.342   5.076  0.0339  0.1500 -0.1840
39202DOD     C161425   8.846  17.904   4.327 -0.1798  0.0474 -0.2380
39202DOD     C261426   9.264  17.701   4.166  0.1070 -0.2954 -0.0436
39202DOD     C361427   9.701  17.586   3.970  0.0799  0.0192  0.2235
39203DOD     C161428  18.152   8.183   6.985  0.2907 -0.5143  0.0258
39203DOD     C261429  18.573   8.232   7.207 -0.2291  0.0654 -0.1080
39203DOD     C361430  19.042   8.133   7.318 -0.0710  0.0085 -0.0074
39204DOD     C161431  25.640   7.814  20.003 -0.0046  0.2142 -0.0752
39204DOD     C261432  25.550   7.792  19.528 -0.0703  0.1956  0.5432
39204DOD     C361433  25.757   7.740  19.107 -0.3646  0.0696 -0.0184
39205DOD     C161434  29.305   4.047  21.071  0.0100  0.1579  0.2096
39205DOD     C261435  29.807   4.055  20.984 -0.2950 -0.1564 -0.1171
39205DOD     C361436  30.163   4.223  20.765 -0.0911 -0.1436  0.1333
39206DOD     C161437   4.682   9.219  22.483 -0.1657  0.2730 -0.3086
39206DOD     C261438   4.905   8.941  22.219 -0.2207  0.1442  0.0185
39206DOD     C361439   5.219   8.687  21.963 -0.0478 -0.3571 -0.3998
39207DOD     C161440  19.704  17.613   8.604 -0.1469 -0.0470 -0.0567
39207DOD     C261441  20.104  17.496   8.807  0.0318 -0.1356  0.0221
39207DOD     C361442  20.108  17.320   9.161  0.2266 -0.1303 -0.0434
39208DOD     C161443   3.846  15.011  29.610  0.0685  0.2288  0.3724
39208DOD     C261444   3.804  14.921  30.109  0.0778 -0.2003  0.3168
39208DOD     C361445   3.759  15.198   0.203  0.0713  0.0720  0.1721
39209DOD     C161446   5.200   7.454  20.629 -0.2245  0.1443  0.0867
39209DOD     C261447   5.368   7.068  20.867 -0.3758 -0.0870  0.0758
39209DOD     C361448   5.300   6.677  21.185 -0.0876  0.0637  0.0588
39210DOD     C161449  24.795   4.916  18.475  0.2832  0.1539  0.2052
39210DOD     C261450  25.164   5.194  18.636 -0.0892  0.1043  0.1499
39210DOD     C361451  25.641   5.194  18.524 -0.1063  0.1258  0.0649
39211DOD     C161452   0.497  23.404  21.567 -0.3504 -0.2901  0.0421
39211DOD     C261453   0.505  22.948  21.517  0.0416 -0.0211 -0.0558
39211DOD     C361454   0.313  22.544  21.342 -0.1694  0.1180 -0.0648
39212DOD     C161455  19.296  23.112  15.258  0.1758 -0.0492  0.0577
39212DOD     C261456  19.585  22.862  15.020 -0.2961  0.4775  0.0273
39212DOD     C361457  20.027  23.000  14.817  0.0230 -0.1504 -0.1391
39213DOD     C161458   3.368  28.593  -0.011 -0.2725  0.0083 -0.3146
39213DOD     C261459   3.696  28.817   0.241 -0.0990  0.1853 -0.2123
39213DOD     C361460   3.965  29.092   0.509  0.0970 -0.0307  0.3493
39214DOD     C161461   0.089   6.279  19.702  0.0375 -0.2912 -0.1198
39214DOD     C261462   0.190   5.852  19.609 -0.0083  0.2871  0.2780
39214DOD     C361463   0.111   5.452  19.786  0.2651 -0.1330 -0.0939
39215DOD     C161464   2.016  21.460   8.279  0.0168 -0.0106  0.0859
39215DOD     C261465   2.116  21.581   7.822  0.2898  0.1732 -0.1447
39215DOD     C361466   2.195  21.967   7.614 -0.1897  0.0889 -0.2042
39216DOD     C161467  24.536  19.980  27.172 -0.0829 -0.4717  0.1538
39216DOD     C261468  24.412  19.897  27.577  0.0011  0.2059  0.2497
39216DOD     C361469  24.518  19.734  27.937  0.2465  0.1320 -0.1776
39217DOD     C161470  10.776  28.347  12.947  0.0400  0.0369 -0.0196
39217DOD     C261471  10.983  28.533  12.526 -0.0532 -0.1183 -0.2692
39217DOD     C361472  11.103  28.671  12.091  0.0597 -0.0309 -0.1349
39218DOD     C161473  15.639  12.519   5.001 -0.0070 -0.0667 -0.0894
39218DOD     C261474  15.578  12.602   5.424 -0.2785 -0.1561 -0.1781
39218DOD     C361475  15.468  12.807   5.765 -0.0902  0.1960  0.1388
39219DOD     C161476  27.954  15.065   9.265 -0.2448  0.2027  0.3281
39219DOD     C261477  27.921  14.628   9.393 -0.2880 -0.4043 -0.0695
39219DOD     C361478  27.726  14.237   9.364  0.0196  0.0415 -0.0887
39220DOD     C161479   4.344   8.127  22.516 -0.0228 -0.2426  0.0078
39220DOD     C261480   4.380   8.407  22.907  0.2447  0.2878 -0.2927
39220DOD     C361481   4.679   8.634  23.176  0.1157  0.2286 -0.1818
39221DOD     C161482  18.825  21.008  24.926 -0.0443  0.2253  0.1165
39221DOD     C261483  19.146  21.249  24.758 -0.0309  0.1745 -0.0479
39221DOD     C361484  19.370  21.543  24.989  0.2842  0.5747 -0.1974
39222DOD     C161485  16.576   5.592  20.090  0.1669  0.2515 -0.0632
39222DOD     C261486  16.667   5.695  20.505  0.1049 -0.2200 -0.1494
39222DOD     C361487  16.877   6.086  20.794 -0.0195  0.2243 -0.2676
39223DOD     C161488   4.712  24.865  11.003 -0.0402 -0.1016  0.0466
39223DOD     C261489   4.387  24.599  11.254  0.0683  0.1358  0.2275
39223DOD     C361490   3.912  24.595  11.254 -0.1569  0.0673 -0.0547
39224DOD     C161491   0.782  20.705  24.243  0.1772  0.2763 -0.2853
39224DOD     C261492   1.080  20.378  24.169  0.1803  0.1870 -0.1362
39224DOD     C361493   1.541  20.359  24.048  0.1985 -0.0533 -0.0098
39225DOD     C161494  12.174   1.666   9.447 -0.0418  0.0446 -0.2811
39225DOD     C261495  11.765   1.816   9.553 -0.0114 -0.1921 -0.1406
39225DOD     C361496  11.300   1.917   9.597 -0.2610 -0.2721  0.2150
39226DOD     C161497  14.702  19.421   7.697 -0.2143  0.0144 -0.0074
39226DOD     C261498  15.111  19.637   7.682  0.2759 -0.1187  0.2046
39226DOD     C361499  15.577  19.756   7.747 -0.2636  0.0166  0.2863
39227DOD     C161500   5.912  18.362   5.600 -0.1506 -0.0626  0.0461
39227DOD     C261501   6.034  18.763   5.346 -0.1498 -0.0886 -0.3591
39227DOD     C361502   6.294  19.118   5.180  0.0328 -0.1866  0.0171
39228DOD     C161503   8.297  27.865   2.741  0.0532 -0.2452 -0.1581
39228DOD     C261504   8.425  28.302   2.695  0.0090  0.0206  0.1261
39228DOD     C361505   8.179  28.720   2.612  0.2540 -0.0773  0.0588
39229DOD     C161506  24.112  13.029  21.472 -0.3572 -0.3351 -0.0689
39229DOD     C261507  24.439  13.362  21.605  0.0588 -0.0749  0.2420
39229DOD     C361508  24.651  13.649  21.892 -0.0776 -0.0228  0.0816
39230DOD     C161509  16.247  16.580  18.606  0.0735 -0.0851  0.0981
39230DOD     C261510  16.614  16.422  18.842 -0.0632 -0.2296  0.1881
39230DOD     C361511  17.091  16.405  18.773 -0.1423  0.0373 -0.2540
39231DOD     C161512  29.638  13.916  18.931  0.2056 -0.1323 -0.0178
39231DOD     C261513  29.383  14.251  19.228  0.1681 -0.2670  0.0770
39231DOD     C361514  29.075  14.488  19.453 -0.0201  0.0538  0.2088
39232DOD     C161515   1.628  17.486  20.963  0.1800 -0.2295 -0.1572
39232DOD     C261516   1.890  17.153  21.145  0.2213  0.0486  0.6749
39232DOD     C361517   2.107  16.878  21.359 -0.1317  0.1076 -0.0550
39233DOD     C161518  27.082  24.374  12.092  0.1070  0.1006 -0.1020
39233DOD     C261519  27.250  24.587  12.420 -0.3584  0.0899 -0.1526
39233DOD     C361520  27.092  24.544  12.926 -0.0647  0.1465  0.1072
39234DOD     C161521  17.025  14.508  26.614 -0.0901  0.0840  0.2808
39234DOD     C261522  16.939  14.232  26.230  0.0500  0.0224  0.0143
39234DOD     C361523  16.926  13.869  25.913  0.1027 -0.1291 -0.2834
39235DOD     C161524  24.343  20.392  25.155 -0.1488  0.0441 -0.0230
39235DOD     C261525  24.146  20.829  25.310  0.0924  0.0384 -0.2049
39235DOD     C361526  24.119  21.297  25.175  0.2569  0.0506  0.1941
39236DOD     C161527  25.485  14.729  25.071  0.0098 -0.1791 -0.1757
39236DOD     C261528  25.581  14.950  25.513 -0.0265  0.2882 -0.1576
39236DOD     C361529  25.525  15.390  25.600  0.2360 -0.2529 -0.1172
39237DOD     C161530  25.174   3.679  22.863 -0.1820  0.0265 -0.3085
39237DOD     C261531  25.502   3.732  23.214  0.0974  0.0503 -0.0928
39237DOD     C361532  25.797   3.962  23.464 -0.0928  0.1141 -0.1862
39238DOD     C161533  23.783   2.276  27.570  0.0863 -0.0388 -0.1440
39238DOD     C261534  23.706   1.942  27.155 -0.3515 -0.1952  0.2621
39238DOD     C361535  23.490   1.641  26.855  0.4822  0.0788 -0.3047
39239DOD     C161536   5.201  15.445  14.342 -0.0307 -0.0430  0.1599
39239DOD     C261537   5.322  15.410  13.856  0.0702 -0.0225 -0.2458
39239DOD     C361538   5.236  15.197  13.466 -0.3423 -0.0375 -0.3781
39240DOD     C161539  15.880   0.680  27.582  0.0710 -0.0476 -0.0380
39240DOD     C261540  15.986   0.262  27.825 -0.2290  0.0534  0.0205
39240DOD     C361541  16.186  30.213  27.647 -0.2135 -0.0090 -0.2693
39241DOD     C161542   1.784  17.762  27.267 -0.0609  0.1142  0.1786
39241DOD     C261543   1.799  17.484  27.687 -0.1877 -0.1497 -0.2128
39241DOD     C361544   1.481  17.221  27.931 -0.1931 -0.0057  0.1863
39242DOD     C161545   5.374  17.867   1.696  0.1673 -0.1900 -0.0330
39242DOD     C261546   5.102  17.542   2.001  0.0535 -0.2083  0.1600
39242DOD     C361547   4.694  17.466   2.147 -0.0965  0.2768 -0.2515
39243DOD     C161548  25.796   9.024  28.048 -0.2966  0.1470 -0.0606
39243DOD     C261549  26.084   9.306  28.129  0.0300 -0.0515  0.0537
39243DOD     C361550  26.398   9.624  27.979 -0.0205  0.1922 -0.1676
39244DOD     C161551  25.980  28.303  19.409 -0.3087 -0.3408 -0.0539
39244DOD     C261552  26.243  28.245  19.000 -0.1091 -0.3720 -0.0502
39244DOD     C361553  26.389  27.944  18.741 -0.1376  0.0464 -0.2638
39245DOD     C161554   1.870   0.164   2.119 -0.0959 -0.1410  0.1756
39245DOD     C261555   1.770   0.500   1.815 -0.1638 -0.1723  0.0682
39245DOD     C361556   1.504   0.813   2.032  0.0470  0.1471  0.1021
39246DOD     C161557   4.491  24.562  17.880  0.2187  0.2328 -0.0051
39246DOD     C261558   4.521  24.730  17.446  0.3631  0.3615  0.1345
39246DOD     C361559   4.603  25.003  17.059  0.1023 -0.0819  0.2134
39247DOD     C161560  23.377  13.401  13.439 -0.0580 -0.0213 -0.3634
39247DOD     C261561  23.011  13.716  13.440 -0.0102  0.1510  0.2779
39247DOD     C361562  22.603  13.908  13.484 -0.0395 -0.0597  0.0407
39248DOD     C161563   7.875  20.579  20.704  0.4140 -0.0909  0.4663
39248DOD     C261564   8.080  20.979  20.743  0.0701  0.1133  0.1419
39248DOD     C361565   8.230  21.344  20.873 -0.1473 -0.5258 -0.1969
39249DOD     C161566  22.135   8.345   2.367  0.1207  0.0722 -0.0307
39249DOD     C261567  21.876   8.664   2.214 -0.2513 -0.3166  0.2394
39249DOD     C361568  21.676   8.878   1.784  0.1367  0.1723 -0.2719
39250DOD     C161569  27.653  23.747  12.382 -0.2997  0.1850  0.1217
39250DOD     C261570  27.251  23.876  12.126 -0.2390  0.3239  0.2271
39250DOD     C361571  26.776  24.001  11.996  0.1442 -0.1525  0.0678
39251DOD     C161572  10.113   2.780  12.166 -0.2394  0.0850  0.0754
39251DOD     C261573  10.350   2.456  11.924  0.1027 -0.0402 -0.0195
39251DOD     C361574  10.629   2.098  11.870 -0.1278  0.3742  0.0088
39252DOD     C161575  24.898  17.040  17.685  0.3327  0.1646  0.2079
39252DOD     C261576  25.248  16.921  17.366 -0.1690 -0.0984  0.3683
39252DOD     C361577  25.309  17.117  16.936  0.2674 -0.0765  0.0260
39253DOD     C161578  18.925  25.344  22.376  0.0835  0.0614  0.2014
39253DOD     C261579  19.311  25.318  22.089  0.0654  0.2548  0.0949
39253DOD     C361580  19.573  25.424  21.649 -0.1042 -0.1088 -0.0024
39254DOD     C161581  25.261  18.478   0.834 -0.2272  0.2692  0.1424
39254DOD     C261582  24.876  18.295   0.901 -0.2360 -0.3866 -0.1315
39254DOD     C361583  24.680  17.919   0.808 -0.1649  0.1767 -0.0928
39255DOD     C161584   8.144   9.580  28.921  0.2327  0.1877  0.2497
39255DOD     C261585   8.285   9.815  29.269  0.1410 -0.0279 -0.1719
39255DOD     C361586   8.531  10.005  29.627  0.0172 -0.0463 -0.1096
39256DOD     C161587  12.171  14.955   4.449 -0.0209 -0.2330 -0.0085
39256DOD     C261588  11.920  14.646   4.204 -0.0628  0.0894 -0.1380
39256DOD     C361589  11.943  14.176   4.132 -0.2572  0.1277 -0.2091
39257DOD     C161590  13.497  19.426  28.183 -0.0802 -0.0763 -0.0126
39257DOD     C261591  13.598  19.103  27.805  0.1135  0.0352 -0.1683
39257DOD     C361592  13.780  19.132  27.328  0.4737  0.0951  0.1885
39258DOD     C161593  16.796   4.732  23.041 -0.0423  0.3911  0.0037
39258DOD     C261594  16.530   4.588  23.430  0.0961 -0.0989  0.0677
39258DOD     C361595  16.215   4.717  23.686  0.1745  0.2732 -0.0899
39259DOD     C161596  30.090  29.021  26.928  0.4005  0.0422  0.0112
39259DOD     C261597   0.012  29.008  27.310  0.1990 -0.0051  0.0430
39259DOD     C361598   0.152  28.973  27.764 -0.0254  0.0580 -0.0769
39260DOD     C161599  18.265  13.952   6.853  0.3714 -0.2807 -0.4207
39260DOD     C261600  18.616  13.803   6.667 -0.2876 -0.1857 -0.0058
39260DOD     C361601  18.720  13.498   6.327 -0.1017  0.1097 -0.1381
39261DOD     C161602  20.354  14.509  14.789  0.0400  0.2024  0.2062
39261DOD     C261603  20.469  14.483  14.360  0.1397  0.0311 -0.2022
39261DOD     C361604  20.849  14.342  14.183  0.0907 -0.1374  0.2155
39262DOD     C161605  20.350  23.473  30.159  0.2312  0.0648  0.0066
39262DOD     C261606  20.546  23.874  30.256 -0.0848  0.0938  0.1082
39262DOD     C361607  20.992  24.013   0.048  0.0757  0.0322 -0.0909
39263DOD     C161608   1.754   7.974  25.498  0.1557  0.0585 -0.0689
39263DOD     C261609   1.726   8.405  25.713  0.0056 -0.3289  0.0259
39263DOD     C361610   1.654   8.863  25.842 -0.4042 -0.1985 -0.0655
39264DOD     C161611  12.955  14.680   2.713 -0.1455  0.0194  0.2245
39264DOD     C261612  12.779  14.738   3.141 -0.0176 -0.1044 -0.3404
39264DOD     C361613  12.528  14.791   3.569  0.0980 -0.2240 -0.2286
39265DOD     C161614  28.147  27.453   9.639  0.1506 -0.0586  0.1936
39265DOD     C261615  27.946  26.987   9.514 -0.1075  0.0588  0.1184
39265DOD     C361616  28.101  26.566   9.569 -0.1806  0.0273  0.0570
39266DOD     C161617  20.697  30.200   4.881  0.0453  0.0763  0.4558
39266DOD     C261618  20.874  29.917   4.540  0.1562 -0.0734  0.3210
39266DOD     C361619  21.101  29.502   4.432 -0.0145 -0.2408 -0.0623
39267DOD     C161620   2.029   8.787  27.182  0.0871 -0.1772 -0.0509
39267DOD     C261621   2.346   9.146  27.140  0.2121 -0.2492  0.1401
39267DOD     C361622   2.645   9.472  27.212  0.2716 -0.1297  0.0999
39268DOD     C161623   5.395  22.362  11.393 -0.1276 -0.2142 -0.3847
39268DOD     C261624   5.313  22.778  11.665  0.1638  0.0341  0.3131
39268DOD     C361625   5.239  22.961  12.092 -0.2176 -0.2578 -0.2742
39269DOD     C161626   8.265  18.728  20.172 -0.2331  0.1000  0.0844
39269DOD     C261627   8.540  18.811  20.517 -0.0886  0.1031 -0.0966
39269DOD     C361628   8.763  18.907  20.896 -0.1345  0.0925  0.0183
39270DOD     C161629  21.305  24.223  23.362  0.3637 -0.0259  0.0739
39270DOD     C261630  20.853  24.426  23.441 -0.2493  0.2101 -0.1383
39270DOD     C361631  20.461  24.694  23.479  0.1328  0.0050 -0.1934
39271DOD     C161632  25.378   7.422   0.431 -0.0301 -0.3142 -0.0111
39271DOD     C261633  25.280   7.525   0.928 -0.2876  0.1114 -0.3015
39271DOD     C361634  25.588   7.699   1.234 -0.0812  0.2837 -0.2534
39272DOD     C161635   6.047  10.126  16.359 -0.1016  0.0484 -0.0564
39272DOD     C261636   6.169  10.207  15.931 -0.0429  0.5340  0.0166
39272DOD     C361637   6.519  10.445  15.719  0.1401  0.1436 -0.0967
39273DOD     C161638  16.899  16.035  15.124 -0.1346  0.0684  0.0093
39273DOD     C261639  17.069  15.938  15.533 -0.2699  0.2048 -0.0108
39273DOD     C361640  17.256  15.893  15.983  0.0056 -0.0813  0.1386
39274DOD     C161641   1.178  18.217  22.623 -0.2146 -0.0960 -0.0408
39274DOD     C261642   1.432  17.884  22.859  0.1636 -0.0106 -0.3468
39274DOD     C361643   1.502  17.411  22.938  0.0054 -0.2225  0.0865
39275DOD     C161644  19.474  21.609   8.950 -0.2964  0.0257 -0.0973
39275DOD     C261645  19.618  21.594   8.503  0.1536 -0.1067 -0.3428
39275DOD     C361646  19.750  21.549   8.091 -0.4197  0.1613  0.1315
39276DOD     C161647  21.908   5.218  26.657  0.0173 -0.1596 -0.0183
39276DOD     C261648  21.824   5.319  26.216 -0.1575  0.1578  0.1764
39276DOD     C361649  21.671   5.005  25.927  0.0231 -0.0742 -0.2683
39277DOD     C161650  29.470  29.969  18.299  0.2836 -0.0793  0.0624
39277DOD     C261651  29.835  29.926  18.525 -0.0877  0.0474 -0.2667
39277DOD     C361652  30.099  30.167  18.756 -0.2556 -0.0524 -0.2841
39278DOD     C161653  25.353   7.666  10.312 -0.1238 -0.1495 -0.1005
39278DOD     C261654  25.255   8.050  10.153  0.0056 -0.0353  0.1007
39278DOD     C361655  25.194   8.480  10.128 -0.0184  0.1604  0.0864
39279DOD     C161656  20.253  11.028   8.928 -0.3319 -0.3017  0.0888
39279DOD     C261657  20.102  10.632   8.720 -0.1135  0.0539 -0.0084
39279DOD     C361658  19.906  10.465   8.335 -0.0366  0.0612 -0.0591
39280DOD     C161659  15.500  13.170  20.599  0.2116  0.0801 -0.0761
39280DOD     C261660  15.574  12.836  20.282  0.0795  0.1611 -0.2131
39280DOD     C361661  15.437  12.476  20.091  0.0415 -0.1380 -0.1245
39281DOD     C161662  29.874   5.779  23.639  0.2113  0.1767 -0.0410
39281DOD     C261663  29.443   5.743  23.649 -0.0735 -0.0262 -0.1575
39281DOD     C361664  29.002   5.655  23.892 -0.0431 -0.0766 -0.3558
39282DOD     C161665   0.061  27.908  13.785 -0.2639  0.3224  0.0885
39282DOD     C261666  30.143  27.746  14.123 -0.1856 -0.0203 -0.0892
39282DOD     C361667  29.755  27.940  14.348  0.2208 -0.1433  0.0655
39283DOD     C161668   5.935  18.555   6.651 -0.1103  0.0262 -0.0784
39283DOD     C261669   5.453  18.504   6.766  0.1558 -0.2441 -0.1792
39283DOD     C361670   5.176  18.070   6.681  0.2666  0.1584  0.1147
39284DOD     C161671   3.980   8.628  14.921 -0.0236  0.2184  0.2353
39284DOD     C261672   3.641   8.417  15.153 -0.0205  0.2259 -0.0273
39284DOD     C361673   3.647   8.009  15.474 -0.4412 -0.0455  0.0570
39285DOD     C161674  28.591  16.966   2.517  0.0813 -0.0465 -0.2228
39285DOD     C261675  28.999  17.061   2.684 -0.0730 -0.2562  0.1616
39285DOD     C361676  29.442  16.936   2.883  0.2552 -0.1526  0.1010
39286DOD     C161677  23.892  10.201  27.946 -0.1212  0.1871 -0.1849
39286DOD     C261678  23.966   9.788  27.732 -0.0946  0.0282  0.0048
39286DOD     C361679  23.673   9.389  27.671  0.0840  0.0649 -0.0278
39287DOD     C161680  10.748  19.029  19.917  0.1460 -0.3248 -0.1208
39287DOD     C261681  11.101  18.819  20.070  0.1034 -0.1088  0.2398
39287DOD     C361682  11.241  18.512  20.433 -0.1102 -0.2806  0.0396
39288DOD     C161683  21.594  21.648   7.555  0.1175 -0.0584  0.0442
39288DOD     C261684  21.322  21.864   7.251  0.0014  0.1436  0.2108
39288DOD     C361685  21.009  22.183   7.151  0.1963  0.1102 -0.0207
39289DOD     C161686  19.788  11.086  18.531  0.0645  0.0706 -0.2371
39289DOD     C261687  19.552  10.877  18.147 -0.2696 -0.1297  0.0951
39289DOD     C361688  19.221  10.757  17.839 -0.2031  0.1038  0.0465
39290DOD     C161689   9.738  24.393  20.508  0.1463  0.1260  0.0651
39290DOD     C261690  10.066  24.515  20.842  0.0641  0.2040  0.3474
39290DOD     C361691  10.181  24.849  21.186  0.0405 -0.2005  0.1752
39291DOD     C161692   3.023   8.372   5.883 -0.1263  0.0066  0.1739
39291DOD     C261693   3.169   8.054   6.143 -0.2084 -0.2533 -0.2951
39291DOD     C361694   3.357   7.703   6.338  0.0159 -0.4229 -0.2001
39292DOD     C161695   3.494  25.120   7.526 -0.0603 -0.0094  0.0395
39292DOD     C261696   3.269  24.872   7.198  0.1265 -0.1137  0.0494
39292DOD     C361697   2.914  24.506   7.211  0.1358 -0.0338 -0.0389
39293DOD     C161698  15.300  27.924  18.681  0.0596  0.0577  0.1939
39293DOD     C261699  15.440  28.278  18.926 -0.0278 -0.2270  0.0340
39293DOD     C361700  15.402  28.766  18.930 -0.0714 -0.1437  0.2488
39294DOD     C161701   9.996  23.811   1.685 -0.0379  0.4610  0.1284
39294DOD     C261702  10.168  23.461   1.944 -0.1181  0.0748 -0.0082
39294DOD     C361703  10.557  23.167   2.114 -0.0433 -0.0639  0.2208
39295DOD     C161704   4.420  17.012  12.382  0.0540 -0.0495 -0.0345
39295DOD     C261705   4.360  16.639  12.154  0.0234  0.1576 -0.1588
39295DOD     C361706   3.962  16.382  12.224 -0.0573  0.0763  0.2014
39296DOD     C161707   0.758   6.201  12.414 -0.1577 -0.0128  0.1388
39296DOD     C261708   0.428   6.534  12.301 -0.2171 -0.1440 -0.0004
39296DOD     C361709   0.056   6.771  12.255  0.1671  0.2509  0.1800
39297DOD     C161710  27.232  13.951  11.691 -0.4307  0.0882 -0.0188
39297DOD     C261711  26.994  13.824  11.322 -0.4029  0.1985  0.1692
39297DOD     C361712  26.894  13.876  10.841  0.0604  0.2160 -0.1024
39298DOD     C161713  17.843  14.826  20.792  0.1681  0.2003  0.2939
39298DOD     C261714  18.247  15.046  20.815 -0.2239 -0.1166 -0.2117
39298DOD     C361715  18.331  15.510  20.770 -0.2368  0.0141 -0.2280
39299DOD     C161716   2.262  17.638  20.755  0.0024 -0.1044  0.3321
39299DOD     C261717   2.387  17.447  20.297  0.2444  0.1374 -0.1688
39299DOD     C361718   2.559  17.157  19.959 -0.2532 -0.2560  0.0123
39300DOD     C161719  16.449  23.044  24.870 -0.1101 -0.0235  0.3022
39300DOD     C261720  16.669  23.470  24.925 -0.0563 -0.1877 -0.0723
39300DOD     C361721  16.720  23.911  24.906 -0.0723 -0.0232  0.0687
39301DOD     C161722  13.802  13.992  17.453  0.1678 -0.1895  0.0819
39301DOD     C261723  14.044  13.918  17.792  0.0168  0.0472  0.1646
39301DOD     C361724  14.189  13.810  18.222  0.2968 -0.0560 -0.0003
39302DOD     C161725  13.547   6.090  13.262  0.1453 -0.1897 -0.0318
39302DOD     C261726  13.878   6.399  13.318 -0.2245  0.0313  0.3737
39302DOD     C361727  14.061   6.735  13.577 -0.2024 -0.1401 -0.0518
39303DOD     C161728  16.350  23.639  22.066 -0.0810  0.2050  0.0686
39303DOD     C261729  16.744  23.820  21.886  0.0284  0.0700 -0.2159
39303DOD     C361730  17.222  24.011  21.899 -0.1773  0.0080  0.1828
39304DOD     C161731  23.017  23.356  21.823  0.3402  0.0856  0.3668
39304DOD     C261732  22.551  23.484  21.836 -0.0443  0.1936  0.0713
39304DOD     C361733  22.097  23.583  21.769 -0.2154 -0.2734  0.1334
39305DOD     C161734  20.737   2.244   4.065 -0.0201 -0.0885 -0.1112
39305DOD     C261735  20.723   1.849   3.817  0.0485 -0.1487 -0.0352
39305DOD     C361736  20.413   1.514   3.747 -0.1063  0.3793  0.0797
39306DOD     C161737  12.662  14.861   4.086 -0.0483 -0.1453 -0.1144
39306DOD     C261738  12.595  15.224   3.815 -0.2437 -0.0788  0.0521
39306DOD     C361739  12.403  15.554   3.539  0.1026  0.1665 -0.1179
39307DOD     C161740  17.966  19.223  11.906  0.0684  0.0053 -0.2653
39307DOD     C261741  18.017  18.968  12.272 -0.1478  0.0084  0.3009
39307DOD     C361742  18.061  18.671  12.725 -0.1138  0.4396  0.1536
39308DOD     C161743   9.096  11.269  13.422  0.1336 -0.1265  0.1481
39308DOD     C261744   8.661  11.106  13.552  0.1229  0.0775 -0.1079
39308DOD     C361745   8.283  11.036  13.411  0.0327 -0.0074  0.1390
39309DOD     C161746   3.472   1.971   7.399  0.1606  0.4057 -0.0220
39309DOD     C261747   3.736   1.636   7.220  0.0683 -0.1246 -0.1892
39309DOD     C361748   4.200   1.572   6.981 -0.0102 -0.1255 -0.1883
39310DOD     C161749   4.506   0.986  19.248 -0.2616 -0.1769 -0.1146
39310DOD     C261750   4.652   1.409  19.471 -0.1385  0.1439  0.1511
39310DOD     C361751   4.871   1.481  19.874  0.0149 -0.1479 -0.1181
39311DOD     C161752   5.047   2.125   2.166  0.0646  0.0999 -0.0887
39311DOD     C261753   5.031   2.588   2.081 -0.0929  0.0925 -0.0667
39311DOD     C361754   5.178   2.976   2.312 -0.2488 -0.0791  0.0360
39312DOD     C161755  16.768  18.491   9.066  0.0479  0.1567 -0.0143
39312DOD     C261756  16.632  18.936   9.265  0.2207 -0.0064 -0.1581
39312DOD     C361757  16.315  19.160   9.546  0.0122 -0.0968 -0.0773
39313DOD     C161758   0.952   1.494  16.992 -0.2169 -0.0707  0.0326
39313DOD     C261759   1.052   1.294  16.598 -0.1144  0.2929  0.0637
39313DOD     C361760   0.805   1.071  16.246 -0.0446 -0.0311  0.3552
39314DOD     C161761  21.562  20.838  21.410 -0.2241  0.1700  0.0173
39314DOD     C261762  21.769  21.255  21.521  0.2455 -0.1950 -0.1319
39314DOD     C361763  22.006  21.638  21.592  0.2212 -0.1796 -0.2193
39315DOD     C161764   3.409  19.437   8.059  0.0084  0.2514  0.1105
39315DOD     C261765   3.728  19.136   7.875  0.3243 -0.2179 -0.2138
39315DOD     C361766   4.128  18.872   7.887 -0.2502  0.1006 -0.1931
39316DOD     C161767   9.523   5.695  27.104  0.2469  0.2729 -0.2386
39316DOD     C261768   9.433   5.771  26.668  0.1423  0.0712 -0.1473
39316DOD     C361769   8.984   5.773  26.517  0.1639  0.1524  0.1603
39317DOD     C161770   9.178  13.758  28.705 -0.0387  0.0627  0.2569
39317DOD     C261771   9.010  13.381  28.513  0.4256 -0.1828 -0.3085
39317DOD     C361772   8.670  13.028  28.398 -0.2889  0.2266 -0.2626
39318DOD     C161773  29.474  19.282  29.053 -0.2691 -0.1703  0.1597
39318DOD     C261774  29.788  18.963  28.892 -0.0573 -0.0184  0.0389
39318DOD     C361775  29.885  18.748  28.494  0.2739 -0.2391 -0.2834
39319DOD     C161776  13.670   1.560  16.194 -0.0685 -0.1004 -0.2469
39319DOD     C261777  13.409   1.985  16.313  0.1634  0.1696 -0.1977
39319DOD     C361778  13.029   2.222  16.528 -0.0934  0.1012  0.4446
39320DOD     C161779   6.295   8.703   8.204 -0.0838 -0.3812  0.0647
39320DOD     C261780   6.054   8.934   7.871  0.1544 -0.0457  0.0981
39320DOD     C361781   5.663   9.098   8.034  0.3469 -0.0606 -0.1888
39321DOD     C161782   8.167   9.441   9.875 -0.1463  0.1804  0.0533
39321DOD     C261783   8.115   9.512   9.390  0.0599  0.1585 -0.1354
39321DOD     C361784   8.134   9.640   9.000 -0.1507  0.0312  0.4391
39322DOD     C161785   8.834   6.568   7.978  0.0446  0.0664  0.0549
39322DOD     C261786   8.485   6.260   8.055 -0.3628 -0.0594  0.0179
39322DOD     C361787   8.474   5.961   8.362  0.2787  0.1983 -0.1487
39323DOD     C161788  15.724  23.152   9.796  0.0662  0.0446 -0.1971
39323DOD     C261789  15.930  22.960  10.263  0.3045 -0.2119 -0.0362
39323DOD     C361790  16.186  22.552  10.359  0.0317 -0.0044 -0.0223
39324DOD     C161791   5.790  10.534  11.297 -0.2019  0.1998 -0.0327
39324DOD     C261792   5.584  10.595  10.888 -0.0050  0.1135  0.3750
39324DOD     C361793   5.466  10.977  10.598  0.0456  0.3555 -0.0220
39325DOD     C161794  13.125  14.210  14.194  0.2245  0.0617  0.1893
39325DOD     C261795  12.667  14.138  14.147  0.2039  0.3059 -0.2548
39325DOD     C361796  12.363  13.792  14.189 -0.1240  0.0711  0.0326
39326DOD     C161797   8.401  17.053   9.103  0.1039  0.3353  0.1903
39326DOD     C261798   8.454  17.356   8.733 -0.0406  0.3486  0.0881
39326DOD     C361799   8.212  17.714   8.753  0.2053 -0.1835  0.0179
39327DOD     C161800  12.307  27.654   6.538 -0.3117  0.0297 -0.1404
39327DOD     C261801  12.320  27.885   6.915 -0.0022  0.1845 -0.1218
39327DOD     C361802  12.032  28.233   7.081 -0.2128  0.1203  0.1212
39328DOD     C161803  20.604   1.293  27.927 -0.1916 -0.0380  0.1183
39328DOD     C261804  20.284   1.170  27.582 -0.0786 -0.0323 -0.0810
39328DOD     C361805  20.088   1.253  27.145  0.0264  0.4354 -0.0618
39329DOD     C161806  19.524   6.891  20.824  0.3623  0.0082  0.0793
39329DOD     C261807  19.774   7.201  20.653  0.1588  0.0237 -0.0028
39329DOD     C361808  19.956   7.646  20.822 -0.0263  0.6175  0.0108
39330DOD     C161809  13.039   4.242  19.914  0.0365 -0.0948  0.1647
39330DOD     C261810  13.225   3.869  19.654 -0.1080  0.2435  0.0821
39330DOD     C361811  13.103   3.403  19.583  0.1431 -0.0677 -0.3656
39331DOD     C161812  19.562   5.486   9.863  0.1538 -0.1081 -0.0165
39331DOD     C261813  19.530   5.118   9.585  0.0147  0.3074 -0.0573
39331DOD     C361814  19.276   4.762   9.727  0.1540 -0.0398  0.0097
39332DOD     C161815  17.063   2.155   1.781 -0.0014 -0.0682  0.0108
39332DOD     C261816  17.404   1.905   1.990  0.1148  0.1289  0.0283
39332DOD     C361817  17.676   1.518   2.095  0.0696 -0.0977 -0.2203
39333DOD     C161818   7.611   6.403  16.356  0.0358 -0.1562 -0.2731
39333DOD     C261819   7.809   6.645  16.646 -0.3586  0.2419 -0.2402
39333DOD     C361820   8.185   6.952  16.477 -0.1303  0.2124  0.1077
39334DOD     C161821   4.003   7.722  18.993 -0.1903 -0.2743 -0.3679
39334DOD     C261822   3.679   7.941  18.743  0.0985  0.0365 -0.2929
39334DOD     C361823   3.631   7.770  18.352 -0.3979 -0.0801  0.1354
39335DOD     C161824  17.517   2.527  26.181  0.1684  0.0279 -0.1095
39335DOD     C261825  17.255   2.312  26.522 -0.1800  0.0738 -0.0659
39335DOD     C361826  17.038   2.038  26.846 -0.0743 -0.0088  0.0136
39336DOD     C161827   9.489   0.394  18.619 -0.1571 -0.2008 -0.0190
39336DOD     C261828   9.916   0.618  18.515  0.1274 -0.0377 -0.0975
39336DOD     C361829  10.165   1.018  18.364 -0.1736  0.0437 -0.0302
39337DOD     C161830  21.817  28.044  14.204  0.1897  0.1880  0.0508
39337DOD     C261831  22.124  28.054  14.538 -0.4441 -0.0057  0.2046
39337DOD     C361832  22.395  28.378  14.710 -0.4282  0.0916  0.0431
39338DOD     C161833  29.097   2.827   3.178  0.0673  0.0405  0.1200
39338DOD     C261834  29.545   2.997   3.071 -0.0467  0.0084  0.1146
39338DOD     C361835  29.835   3.033   2.713  0.0993  0.0841  0.0956
39339DOD     C161836   5.253   8.001   3.292 -0.3045  0.0390  0.0541
39339DOD     C261837   5.228   7.640   3.566 -0.2547  0.0218 -0.1827
39339DOD     C361838   5.280   7.147   3.549  0.1351 -0.1173  0.0909
39340DOD     C161839  18.450  30.209  11.455  0.1713 -0.0157  0.0031
39340DOD     C261840  18.377   0.066  11.885  0.2216  0.3460  0.1084
39340DOD     C361841  18.281   0.006  12.339  0.3768 -0.3587  0.2382
39341DOD     C161842   1.350  26.139  22.821 -0.1965  0.0601  0.0119
39341DOD     C261843   1.424  26.352  23.232 -0.3390 -0.1645 -0.2740
39341DOD     C361844   1.764  26.470  23.557 -0.1194 -0.1097 -0.0644
39342DOD     C161845   9.181  19.092  11.678  0.0984  0.3261 -0.1294
39342DOD     C261846   9.242  18.665  11.856 -0.1405 -0.0347 -0.0770
39342DOD     C361847   9.008  18.481  12.252 -0.0665  0.2822 -0.1630
39343DOD     C161848   0.392  15.131  17.660  0.1449 -0.0899  0.0015
39343DOD     C261849   0.204  15.510  17.545 -0.0309 -0.2720  0.2493
39343DOD     C361850  -0.007  15.850  17.254 -0.1630  0.1139 -0.0686
39344DOD     C161851   8.251   6.432  20.915  0.0264 -0.1662 -0.0146
39344DOD     C261852   7.839   6.249  21.126 -0.1042  0.2012  0.1227
39344DOD     C361853   7.546   6.175  21.478  0.2619 -0.3556 -0.3879
39345DOD     C161854   7.711  12.523  10.119 -0.1979  0.0022 -0.1506
39345DOD     C261855   8.065  12.243  10.038  0.0339 -0.0598 -0.3073
39345DOD     C361856   8.488  12.042   9.966  0.5230 -0.0421 -0.3205
39346DOD     C161857  18.923  14.673  18.046 -0.3646  0.0486 -0.0491
39346DOD     C261858  18.468  14.877  18.028 -0.0368  0.2287  0.4710
39346DOD     C361859  18.262  15.228  18.217 -0.1559  0.2285  0.3290
39347DOD     C161860  26.935  13.829   6.920 -0.1193  0.2094 -0.0540
39347DOD     C261861  27.220  13.448   6.896  0.1370 -0.0303 -0.1053
39347DOD     C361862  27.510  13.158   6.598  0.3138 -0.1364 -0.0963
39348DOD     C161863  14.465  24.906   8.201  0.2438  0.3233 -0.0828
39348DOD     C261864  14.705  25.084   7.868  0.0555  0.0953  0.2778
39348DOD     C361865  14.696  25.286   7.447 -0.0421 -0.2392  0.0523
39349DOD     C161866  14.292   1.579  10.279  0.0842 -0.2832  0.1048
39349DOD     C261867  14.687   1.875  10.194 -0.0899 -0.0387  0.1078
39349DOD     C361868  15.132   2.024  10.026 -0.0557 -0.1328 -0.2696
39350DOD     C161869   3.788  13.770  18.144  0.0670  0.1039 -0.1769
39350DOD     C261870   3.586  13.606  17.737  0.4816 -0.1349 -0.1498
39350DOD     C361871   3.580  13.462  17.238  0.0211  0.1247  0.1184
39351DOD     C161872   9.547  21.514   5.846  0.2908 -0.2455 -0.1232
39351DOD     C261873   9.594  21.055   5.944  0.3570  0.1441  0.1472
39351DOD     C361874   9.381  20.656   5.975  0.3123 -0.1943  0.0570
39352DOD     C161875  28.241  19.760  27.285 -0.1034 -0.1383  0.3702
39352DOD     C261876  28.463  19.538  26.895  0.2701 -0.1221 -0.2537
39352DOD     C361877  28.784  19.389  26.649 -0.3955  0.0350  0.0895
39353DOD     C161878   7.734  24.899  11.100 -0.1806 -0.0195  0.1195
39353DOD     C261879   7.363  24.822  10.829  0.0836  0.0588 -0.2623
39353DOD     C361880   7.074  24.993  10.506 -0.0557 -0.0102  0.1045
39354DOD     C161881  22.909   2.905   0.576  0.1393  0.3310 -0.2062
39354DOD     C261882  23.359   2.907   0.390  0.0905  0.0383 -0.1170
39354DOD     C361883  23.766   2.675   0.408  0.1253 -0.1650  0.2076
39355DOD     C161884  27.552  13.906  18.072 -0.1766  0.0703 -0.0423
39355DOD     C261885  27.902  13.559  18.014 -0.1548 -0.0135  0.1000
39355DOD     C361886  28.239  13.375  17.717  0.1633 -0.0421 -0.1173
39356DOD     C161887  17.674  25.872  27.043  0.0042  0.2245  0.0950
39356DOD     C261888  18.102  25.798  26.795  0.1489 -0.1417 -0.0228
39356DOD     C361889  18.379  25.469  26.756  0.3183 -0.0062  0.1525
39357DOD     C161890  17.396   6.281  24.819  0.0838  0.0020  0.2227
39357DOD     C261891  17.117   6.634  24.794  0.0248  0.0653  0.0453
39357DOD     C361892  16.910   6.898  24.496  0.0328  0.0755 -0.3890
39358DOD     C161893  25.799  24.215  11.479  0.1296 -0.1323  0.1178
39358DOD     C261894  26.061  24.589  11.571 -0.3668 -0.2088  0.2838
39358DOD     C361895  26.408  24.739  11.807  0.2566  0.1439 -0.0471
39359DOD     C161896  29.667  15.649  26.201 -0.1131  0.1473 -0.1188
39359DOD     C261897  29.491  15.598  26.681 -0.1424 -0.2389  0.1188
39359DOD     C361898  29.506  15.681  27.119 -0.0092 -0.0286 -0.2493
39360DOD     C161899  19.150   7.112  19.341  0.0539 -0.0833 -0.2049
39360DOD     C261900  18.972   7.534  19.247 -0.2724 -0.0525  0.2661
39360DOD     C361901  18.779   7.930  19.355  0.1074 -0.0388  0.4579
39361DOD     C161902  10.128   3.898  25.057  0.1029 -0.2054 -0.0495
39361DOD     C261903   9.710   3.664  24.946  0.1224 -0.0801  0.1376
39361DOD     C361904   9.512   3.393  24.622 -0.1269 -0.0221  0.2888
39362DOD     C161905   9.754   1.706  12.928 -0.0612 -0.1314 -0.2077
39362DOD     C261906   9.712   1.663  13.339 -0.0366  0.0702 -0.0611
39362DOD     C361907   9.924   1.440  13.661  0.1959 -0.0890 -0.1747
39363DOD     C161908  29.651   0.196   8.580 -0.1008  0.1303  0.0922
39363DOD     C261909  29.445  30.094   8.547 -0.2296  0.0075 -0.2029
39363DOD     C361910  29.235  29.777   8.803  0.0740  0.1953 -0.0153
39364DOD     C161911  18.685   0.244   4.881  0.1241  0.0157 -0.0245
39364DOD     C261912  18.529   0.532   4.588 -0.0567  0.1651  0.0676
39364DOD     C361913  18.135   0.759   4.726  0.1193  0.3112  0.4641
39365DOD     C161914   2.462   8.370  24.757  0.1486 -0.2002 -0.2178
39365DOD     C261915   2.950   8.316  24.689 -0.1644  0.0543  0.0911
39365DOD     C361916   3.317   8.109  24.530 -0.0774  0.0915 -0.0184
39366DOD     C161917  23.696   6.201  16.384 -0.0158 -0.1200 -0.1227
39366DOD     C261918  23.298   6.286  16.144  0.0579  0.1824 -0.0064
39366DOD     C361919  23.058   6.169  15.758  0.1490 -0.0382  0.0627
39367DOD     C161920   1.248  27.146   6.492  0.0093  0.2698 -0.1009
39367DOD     C261921   0.995  27.535   6.535 -0.2669  0.0289 -0.0086
39367DOD     C361922   0.817  27.969   6.349  0.0056 -0.1000  0.1189
39368DOD     C161923  18.526   7.258  30.106 -0.1263 -0.2917  0.0411
39368DOD     C261924  18.430   7.360   0.190  0.3018  0.1569  0.0484
39368DOD     C361925  18.220   7.005   0.495  0.1214 -0.3177  0.1314
39369DOD     C161926   2.574  15.220   6.978 -0.1706  0.3886 -0.1870
39369DOD     C261927   2.801  15.056   6.576  0.3636 -0.0214  0.0634
39369DOD     C361928   2.566  15.174   6.171 -0.0475 -0.0310  0.0733
39370DOD     C161929   1.789   6.646  22.883 -0.0393  0.0118  0.1592
39370DOD     C261930   1.318   6.649  22.818 -0.3193  0.1991 -0.2992
39370DOD     C361931   0.969   6.662  23.086  0.2075 -0.1481 -0.1375
39371DOD     C161932  14.393  23.273  13.678 -0.1471  0.2386  0.2839
39371DOD     C261933  14.257  22.921  13.356  0.0346 -0.5108 -0.0345
39371DOD     C361934  14.448  22.776  12.921 -0.0972 -0.0950 -0.0490
39372DOD     C161935   9.048  29.730  12.705 -0.0028 -0.3325  0.1282
39372DOD     C261936   8.710  30.029  12.549 -0.1733  0.0972  0.3766
39372DOD     C361937   8.278  30.146  12.374  0.1448 -0.1831  0.0012
39373DOD     C161938  22.021   9.991   9.281  0.1584 -0.0189 -0.1625
39373DOD     C261939  22.137   9.633   9.022 -0.0756 -0.1327  0.1914
39373DOD     C361940  22.150   9.158   8.890 -0.2528  0.1314  0.4241
39374DOD     C161941  27.144  20.868   9.371  0.0763 -0.1013  0.1307
39374DOD     C261942  27.543  20.958   9.448 -0.1135 -0.1280  0.2443
39374DOD     C361943  28.034  21.005   9.466  0.2461  0.5814  0.0840
39375DOD     C161944  12.367  16.593   5.372  0.0960 -0.2431  0.0626
39375DOD     C261945  12.640  16.502   5.791  0.0322 -0.0590 -0.2067
39375DOD     C361946  12.572  16.104   6.048 -0.3349  0.0349 -0.1166
39376DOD     C161947  17.336  20.195  12.976 -0.2874  0.2069  0.1231
39376DOD     C261948  16.927  20.335  13.111 -0.1672 -0.1325 -0.2015
39376DOD     C361949  16.770  20.699  13.313 -0.1652  0.0719  0.1094
39377DOD     C161950  14.074  15.368  28.258 -0.0905 -0.1239 -0.0264
39377DOD     C261951  14.450  15.298  27.979  0.4327  0.1265  0.1435
39377DOD     C361952  14.412  15.323  27.468 -0.1046  0.2064  0.2704
39378DOD     C161953   7.210  28.771  22.896  0.0259  0.0846 -0.1316
39378DOD     C261954   6.948  28.415  23.059  0.0733  0.1327 -0.1265
39378DOD     C361955   6.761  27.980  23.087 -0.2853  0.0368  0.1363
39379DOD     C161956  15.586  18.713  12.578 -0.5421 -0.3034 -0.1284
39379DOD     C261957  15.431  18.980  12.899 -0.3993 -0.0837 -0.1250
39379DOD     C361958  15.027  19.096  13.073  0.1810 -0.3413  0.0556
39380DOD     C161959   2.472  16.767  27.743  0.1275  0.2010  0.0425
39380DOD     C261960   2.201  17.111  27.828 -0.1810 -0.1943 -0.5222
39380DOD     C361961   1.979  17.332  28.120  0.0174  0.1248  0.2434
39381DOD     C161962   0.916  12.168  26.614 -0.0374 -0.0058 -0.0892
39381DOD     C261963   1.238  12.129  26.260 -0.0655 -0.1611  0.3581
39381DOD     C361964   1.556  12.155  25.893  0.0079  0.0316  0.3255
39382DOD     C161965  30.287  23.437  12.697 -0.0464  0.0858 -0.1100
39382DOD     C261966   0.426  23.292  12.817 -0.3090 -0.2069  0.2623
39382DOD     C361967   0.723  23.156  12.481 -0.0240 -0.3533  0.1252
39383DOD     C161968   8.441  20.117   9.985 -0.0743  0.2658  0.3480
39383DOD     C261969   8.744  19.901   9.847  0.0431 -0.1907 -0.1827
39383DOD     C361970   9.160  19.864  10.085 -0.2653 -0.1314 -0.1767
39384DOD     C161971   7.272   6.604  17.463  0.0469 -0.1879 -0.0993
39384DOD     C261972   6.908   6.303  17.519  0.0154  0.0739  0.0643
39384DOD     C361973   6.727   6.036  17.801 -0.0764  0.1585 -0.3061
39385DOD     C161974  11.138  23.602  27.311 -0.0203 -0.1485  0.1076
39385DOD     C261975  11.358  23.578  27.787 -0.2201 -0.0856 -0.2182
39385DOD     C361976  11.563  23.343  28.127  0.0705 -0.1044 -0.3331
39386DOD     C161977   9.268  10.867  23.075 -0.0690 -0.0617  0.0788
39386DOD     C261978   9.185  10.488  22.849  0.3605  0.2019  0.0768
39386DOD     C361979   9.222  10.288  22.412  0.0272  0.1103 -0.1153
39387DOD     C161980  17.977  27.325  13.990 -0.1313  0.0166 -0.0599
39387DOD     C261981  18.137  26.952  14.153  0.0925  0.1445  0.0752
39387DOD     C361982  18.353  26.599  13.865  0.0126 -0.1325  0.0857
39388DOD     C161983  14.810  26.374   9.113  0.0480 -0.0140  0.1801
39388DOD     C261984  14.527  26.668   9.306  0.1097 -0.1333 -0.0552
39388DOD     C361985  14.521  27.089   9.524  0.2972 -0.2771 -0.3410
39389DOD     C161986  30.110   7.133  18.165  0.0422  0.1473  0.1852
39389DOD     C261987  30.196   6.962  18.636 -0.0029  0.0995 -0.0981
39389DOD     C361988   0.275   6.834  18.877  0.1244  0.0882  0.1685
39390DOD     C161989  18.274  18.376  24.011  0.2027  0.0459  0.0133
39390DOD     C261990  18.474  18.392  23.603 -0.0969 -0.0484  0.0403
39390DOD     C361991  18.718  18.762  23.458  0.1434  0.0658  0.2482
39391DOD     C161992  23.106   2.896  14.129  0.1683  0.3623  0.0084
39391DOD     C261993  22.656   2.860  13.935  0.1819  0.3583  0.1353
39391DOD     C361994  22.497   2.560  13.611  0.0935 -0.4787 -0.0287
39392DOD     C161995  26.940  11.933   2.878 -0.1935 -0.1006  0.0468
39392DOD     C261996  27.256  12.185   3.015 -0.1177 -0.0001  0.0434
39392DOD     C361997  27.583  12.526   3.120 -0.0321  0.1182 -0.2426
39393DOD     C161998  29.771  19.481  25.871  0.0727 -0.0675  0.2913
39393DOD     C261999  29.973  19.464  26.262 -0.0768 -0.1708  0.2344
39393DOD     C362000  30.219  19.474  26.647 -0.2410 -0.1194  0.2594
39394DOD     C162001  18.325  27.741  27.226  0.0929 -0.3072 -0.0053
39394DOD     C262002  18.708  27.953  27.216 -0.0545  0.1642  0.0017
39394DOD     C362003  18.835  28.377  27.342  0.0582 -0.0016 -0.0069
39395DOD     C162004  10.482  17.005  10.527 -0.0097 -0.2518 -0.3457
39395DOD     C262005  10.896  16.951  10.445  0.1510  0.2700 -0.0638
39395DOD     C362006  11.010  16.851  10.010 -0.1249 -0.1103  0.1169
39396DOD     C162007   0.523   4.953   5.138 -0.1151 -0.1543  0.1836
39396DOD     C262008   0.519   5.413   4.936  0.0786 -0.2863 -0.1028
39396DOD     C362009   0.809   5.769   4.936 -0.5421 -0.0382  0.0509
39397DOD     C162010  10.093  16.655   2.963  0.0494 -0.1259 -0.2549
39397DOD     C262011  10.486  16.883   2.752 -0.2779 -0.0969  0.1293
39397DOD     C362012  10.775  17.211   2.841 -0.3011  0.0191 -0.2994
39398DOD     C162013  29.555  19.434   9.459  0.0326 -0.0119  0.0420
39398DOD     C262014  30.008  19.424   9.331 -0.1623 -0.2773 -0.3431
39398DOD     C362015  -0.011  19.308   9.000 -0.1947  0.0014 -0.0360
39399DOD     C162016   2.406  29.772   1.857 -0.0378  0.1587 -0.1179
39399DOD     C262017   2.604  29.929   1.423 -0.1334  0.2015  0.1472
39399DOD     C362018   2.728  29.759   0.985  0.0656 -0.0922  0.0607
39400DOD     C162019   7.360  12.090  19.970 -0.1640 -0.0289 -0.1425
39400DOD     C262020   7.520  11.809  19.628  0.2406 -0.0142 -0.0755
39400DOD     C362021   7.605  11.991  19.252 -0.0282  0.1498  0.4699
39401DOD     C162022   8.379  24.869  16.616  0.1743  0.1295  0.1999
39401DOD     C262023   8.757  24.727  16.830  0.1224  0.2746 -0.2698
39401DOD     C362024   9.014  25.076  17.055  0.0211 -0.3267  0.0765
39402DOD     C162025  18.696   1.017   2.244  0.0779  0.2359  0.1725
39402DOD     C262026  18.790   1.270   2.622  0.1124 -0.1350 -0.1316
39402DOD     C362027  19.181   1.289   2.899 -0.0686  0.1406  0.2942
39403DOD     C162028   7.052  19.362  19.661 -0.0914 -0.2398  0.0912
39403DOD     C262029   6.592  19.589  19.660 -0.2413  0.1162 -0.1579
39403DOD     C362030   6.167  19.678  19.717  0.0283 -0.3500 -0.2623
39404DOD     C162031   2.159   6.492  16.139  0.2687  0.2392 -0.2922
39404DOD     C262032   1.969   6.709  15.807 -0.0638 -0.3584 -0.0939
39404DOD     C362033   1.676   6.648  15.423 -0.1139  0.0153  0.2277
39405DOD     C162034   6.152  26.270  23.334 -0.1904 -0.0868 -0.1935
39405DOD     C262035   5.726  26.173  23.136  0.1140  0.2860  0.3964
39405DOD     C362036   5.745  25.751  22.912 -0.1004 -0.2248  0.1918
39406DOD     C162037   8.772   0.990  19.980  0.0553  0.1539  0.0246
39406DOD     C262038   8.816   1.445  20.085  0.2001  0.3547 -0.0984
39406DOD     C362039   8.968   1.822  20.111 -0.0056 -0.2266  0.2377
39407DOD     C162040  18.745  11.378  12.268 -0.1104 -0.0491  0.1473
39407DOD     C262041  18.820  11.502  11.817  0.0232 -0.0644  0.3918
39407DOD     C362042  18.842  11.309  11.371 -0.3386  0.0085  0.1190
39408DOD     C162043  18.656  27.436  21.019  0.3254  0.2103 -0.3170
39408DOD     C262044  18.995  27.352  21.367 -0.3727  0.0013  0.4366
39408DOD     C362045  19.306  27.304  21.670  0.2488 -0.1300  0.0397
39409DOD     C162046   1.993   2.726  19.525 -0.1320  0.2317 -0.0647
39409DOD     C262047   2.212   2.349  19.410 -0.2119 -0.3088 -0.0732
39409DOD     C362048   2.303   1.926  19.207 -0.1925  0.2411  0.0398
39410DOD     C162049  10.351  22.872  16.983 -0.2143 -0.3598 -0.0303
39410DOD     C262050  10.036  22.502  17.011  0.0580 -0.1563 -0.0464
39410DOD     C362051  10.062  22.055  17.102  0.2299 -0.0336 -0.1907
39411DOD     C162052   4.488  25.141  -0.005  0.1767  0.3185 -0.2501
39411DOD     C262053   4.709  24.692  30.274  0.2491 -0.3999 -0.0122
39411DOD     C362054   4.559  24.260  30.075  0.0447 -0.1882  0.2801
39412DOD     C162055  25.379  22.669   5.137 -0.0111 -0.4626  0.0613
39412DOD     C262056  24.934  22.828   5.297  0.2434  0.2836  0.2949
39412DOD     C362057  24.517  22.689   5.398  0.0108  0.0029  0.1622
39413DOD     C162058  19.123  25.837   5.622 -0.2540  0.0441 -0.1740
39413DOD     C262059  18.704  25.923   5.518  0.1514  0.0204  0.1238
39413DOD     C362060  18.357  26.064   5.234 -0.0486 -0.1835 -0.1098
39414DOD     C162061   8.409  21.463  30.220 -0.1574  0.1150 -0.3853
39414DOD     C262062   8.396  21.263  29.799 -0.0966 -0.1849  0.0860
39414DOD     C362063   8.648  21.408  29.445 -0.2604  0.0235  0.4263
39415DOD     C162064   4.801   6.998  22.988  0.2944 -0.4132 -0.2474
39415DOD     C262065   4.603   6.858  22.534  0.0710 -0.0232 -0.0849
39415DOD     C362066   4.272   6.646  22.278  0.2398 -0.2579 -0.1092
39416DOD     C162067  27.706  24.868  19.800  0.1441  0.1371  0.3532
39416DOD     C262068  28.010  24.997  19.426  0.1442 -0.0759 -0.1587
39416DOD     C362069  28.389  25.270  19.296 -0.2196  0.1903  0.1887
39417DOD     C162070  26.904  17.055   7.367 -0.3234 -0.0412 -0.1566
39417DOD     C262071  26.726  16.987   6.938  0.2955  0.2175 -0.0554
39417DOD     C362072  26.714  16.842   6.516 -0.2134 -0.1562 -0.1381
39418DOD     C162073   6.574  15.504  20.144  0.4943  0.0552 -0.2942
39418DOD     C262074   6.858  15.796  20.313  0.3072 -0.0917 -0.0028
39418DOD     C362075   7.237  16.056  20.181  0.2168  0.0783 -0.2522
39419DOD     C162076   6.395  13.928   7.830  0.3697 -0.0877  0.0511
39419DOD     C262077   6.108  14.233   7.591 -0.0863 -0.2475  0.1126
39419DOD     C362078   5.897  14.457   7.266  0.2055  0.0629  0.0091
39420DOD     C162079  29.076   6.448   6.085  0.0220  0.0244  0.1094
39420DOD     C262080  29.438   6.674   6.208  0.1475 -0.1109  0.0883
39420DOD     C362081  29.769   6.816   6.528  0.2383 -0.3239  0.2381
39421DOD     C162082   1.368  14.334  13.323  0.0632  0.0436 -0.3030
39421DOD     C262083   1.461  14.376  13.831  0.0997  0.0466  0.1108
39421DOD     C362084   1.429  14.133  14.176 -0.1664 -0.2795  0.0628
39422DOD     C162085   6.929  24.003  29.188  0.0901  0.1026 -0.0345
39422DOD     C262086   7.050  23.551  29.350 -0.2988 -0.0903  0.0940
39422DOD     C362087   7.033  23.438  29.827 -0.1982  0.0755 -0.2862
39423DOD     C162088  20.460  15.736  10.798 -0.2989  0.0574 -0.1536
39423DOD     C262089  20.303  16.167  10.673 -0.0140 -0.0869 -0.1313
39423DOD     C362090  19.976  16.286  10.349 -0.2801  0.1453  0.2273
39424DOD     C162091  15.630  20.777  20.699 -0.2636  0.3128  0.0411
39424DOD     C262092  15.544  20.382  20.415  0.3214  0.1720  0.2184
39424DOD     C362093  15.380  20.108  20.116  0.2578 -0.0767  0.1646
39425DOD     C162094  14.250  16.472   3.557  0.2190  0.0882  0.2667
39425DOD     C262095  14.055  16.153   3.231  0.0253 -0.3751  0.1373
39425DOD     C362096  13.962  16.072   2.770 -0.1172  0.0208  0.0886
39426DOD     C162097  27.324  14.681  13.244 -0.2346  0.1661 -0.1125
39426DOD     C262098  26.911  14.673  13.059  0.0379 -0.3689 -0.0469
39426DOD     C362099  26.528  14.686  12.735 -0.2056  0.0986 -0.0964
39427DOD     C162100  22.035   7.545  10.602  0.1990  0.0755  0.0259
39427DOD     C262101  21.848   7.782  10.967 -0.0282 -0.1508 -0.1049
39427DOD     C362102  21.667   8.127  11.134 -0.3433  0.2749 -0.1055
39428DOD     C162103  26.119  24.386   0.121 -0.0325 -0.0395  0.2742
39428DOD     C262104  26.401  24.388  30.138  0.1047  0.2051  0.0474
39428DOD     C362105  26.329  24.112  29.742 -0.2866 -0.2576  0.0275
39429DOD     C162106   8.673  17.855  20.269  0.1910 -0.0374  0.1056
39429DOD     C262107   8.527  17.559  19.941  0.3031 -0.0500 -0.0437
39429DOD     C362108   8.584  17.495  19.431  0.1080 -0.0133 -0.0269
39430DOD     C162109  10.900  22.711   1.078 -0.1030  0.1582  0.1608
39430DOD     C262110  10.438  22.698   0.876 -0.2596 -0.1154  0.0509
39430DOD     C362111  10.077  22.467   0.748  0.2658  0.0578 -0.0313
39431DOD     C162112  10.707  14.947  13.091  0.0789  0.1498 -0.1087
39431DOD     C262113  11.124  14.770  13.320 -0.0768  0.2835 -0.0054
39431DOD     C362114  11.335  14.853  13.680  0.0287  0.1120 -0.2337
39432DOD     C162115   4.391   5.295  26.736  0.1783 -0.1568 -0.2661
39432DOD     C262116   4.748   5.552  26.923  0.0881 -0.0711  0.4242
39432DOD     C362117   5.031   5.761  27.239  0.0921  0.1513 -0.0633
39433DOD     C162118  18.275  24.935  23.840  0.0464  0.1698  0.2223
39433DOD     C262119  18.627  24.605  23.828 -0.0057  0.0101 -0.2935
39433DOD     C362120  18.906  24.307  24.013 -0.1386  0.0869  0.0777
39434DOD     C162121   8.192  27.672  26.140 -0.2156  0.3128 -0.3120
39434DOD     C262122   8.381  27.505  25.746 -0.3854 -0.1425 -0.1662
39434DOD     C362123   8.657  27.450  25.371 -0.2098  0.1699 -0.0182
39435DOD     C162124   6.174   1.057  22.211 -0.0299  0.0439 -0.1181
39435DOD     C262125   6.343   1.343  22.497 -0.0092 -0.0377  0.2662
39435DOD     C362126   6.523   1.552  22.864 -0.0443 -0.2500  0.1713
39436DOD     C162127  12.743   8.238  28.418 -0.2176  0.2789 -0.2333
39436DOD     C262128  12.525   8.296  28.061 -0.0316  0.2418 -0.1911
39436DOD     C362129  12.324   8.322  27.620 -0.0182  0.1642 -0.1036
39437DOD     C162130  21.416   0.548   5.913  0.2707 -0.1874 -0.1252
39437DOD     C262131  21.111   0.445   6.267 -0.2883 -0.1248  0.0065
39437DOD     C362132  20.925   0.367   6.695 -0.1676  0.2839 -0.0562
39438DOD     C162133   5.043  16.428   6.217  0.4890 -0.0209  0.0311
39438DOD     C262134   4.948  16.257   5.832  0.3497 -0.0780 -0.0518
39438DOD     C362135   4.677  16.055   5.473 -0.1393 -0.1949  0.0458
39439DOD     C162136   5.583  20.622  24.132  0.1359 -0.0485  0.1280
39439DOD     C262137   5.571  21.083  24.102 -0.3266  0.1119 -0.3830
39439DOD     C362138   5.453  21.494  24.348  0.3552  0.0425  0.0484
39440DOD     C162139  18.939  20.253   6.097 -0.2214 -0.3416  0.1565
39440DOD     C262140  18.690  20.178   6.454 -0.2225 -0.1558 -0.2403
39440DOD     C362141  18.493  19.865   6.682  0.3421  0.0742 -0.0735
39441DOD     C162142   6.671  21.034  24.091 -0.0264 -0.0164  0.0487
39441DOD     C262143   6.741  21.483  23.929  0.1099 -0.0682 -0.2793
39441DOD     C362144   6.969  21.861  23.752  0.1616 -0.0005  0.1398
39442DOD     C162145  20.718  23.533  13.503  0.1642  0.2648 -0.5673
39442DOD     C262146  20.810  23.170  13.708 -0.2792  0.0961 -0.1477
39442DOD     C362147  21.096  22.998  13.952 -0.2302 -0.1722  0.1591
39443DOD     C162148  10.496   1.756   7.967  0.1200 -0.1697  0.0853
39443DOD     C262149  10.920   1.904   7.913  0.0316  0.0709 -0.0812
39443DOD     C362150  11.356   1.709   7.970  0.1847  0.3492 -0.1659
39444DOD     C162151   5.806  18.207  23.209  0.1088  0.1444 -0.0121
39444DOD     C262152   5.421  18.370  23.382 -0.0578 -0.0654 -0.0310
39444DOD     C362153   5.138  18.700  23.399  0.0902 -0.1141  0.0013
39445DOD     C162154  24.282   8.633  24.002  0.2107 -0.2697 -0.2890
39445DOD     C262155  23.808   8.461  24.085 -0.2633  0.0155 -0.2031
39445DOD     C362156  23.418   8.336  24.239  0.1936  0.3952  0.1145
39446DOD     C162157  10.666  25.923  26.853 -0.1657 -0.2941 -0.1710
39446DOD     C262158  10.277  25.717  26.910  0.2175  0.0427  0.0128
39446DOD     C362159   9.842  25.885  27.073 -0.1955 -0.0667  0.2354
39447DOD     C162160  29.635  24.111  20.331 -0.1256 -0.0215 -0.1359
39447DOD     C262161  29.995  24.407  20.385  0.1932 -0.1903 -0.0342
39447DOD     C362162  30.287  24.592  20.072  0.0421 -0.0489  0.1386
39448DOD     C162163  24.636   8.822  11.767 -0.1644 -0.0730 -0.0886
39448DOD     C262164  24.389   9.229  11.716 -0.1052  0.0529 -0.3259
39448DOD     C362165  23.995   9.394  11.489  0.0277 -0.1195 -0.0224
39449DOD     C162166  11.456   5.565  23.878 -0.1290  0.1394 -0.0131
39449DOD     C262167  11.300   5.154  23.726 -0.1402  0.1316  0.1170
39449DOD     C362168  10.933   4.794  23.707 -0.0768 -0.0855  0.2611
39450DOD     C162169   8.328   6.787  21.325 -0.1271 -0.1298  0.3051
39450DOD     C262170   8.743   6.586  21.109 -0.0111  0.1359 -0.1930
39450DOD     C362171   9.147   6.320  21.166  0.0767  0.1145  0.2548
39451DOD     C162172  20.904  27.917   6.706  0.2240  0.1782 -0.2224
39451DOD     C262173  21.122  28.285   6.799  0.0533 -0.2164 -0.0158
39451DOD     C362174  21.472  28.503   7.068  0.4298  0.1424 -0.1411
39452DOD     C162175  28.634  22.788   7.623 -0.3899  0.0127 -0.0402
39452DOD     C262176  28.241  22.821   7.808  0.3134  0.2360 -0.0474
39452DOD     C362177  27.941  22.918   7.431  0.0258  0.1441  0.3035
39453DOD     C162178   7.974  11.102  17.505  0.0574 -0.0627 -0.3204
39453DOD     C262179   8.157  11.098  17.060 -0.1208  0.0531 -0.0055
39453DOD     C362180   8.245  10.823  16.635  0.3100 -0.0032  0.0828
39454DOD     C162181  22.053   2.585  13.352 -0.1270  0.0940  0.1876
39454DOD     C262182  21.578   2.478  13.464  0.2015 -0.1096 -0.3346
39454DOD     C362183  21.309   2.299  13.798 -0.2084  0.1881 -0.1597
39455DOD     C162184  15.034  16.476  25.708  0.1780 -0.0206  0.1911
39455DOD     C262185  15.416  16.648  25.981  0.0292 -0.2745 -0.0942
39455DOD     C362186  15.701  16.985  26.146 -0.0212  0.0687  0.1147
39456DOD     C162187  16.287  30.006  26.609 -0.0512  0.2462 -0.0004
39456DOD     C262188  16.622  29.757  26.550  0.1029 -0.0925  0.1296
39456DOD     C362189  16.882  29.533  26.272 -0.2071  0.1639 -0.1865
39457DOD     C162190  10.141  24.059   0.755  0.1334 -0.1390 -0.1831
39457DOD     C262191  10.437  23.746   0.734  0.1257  0.2412 -0.1218
39457DOD     C362192  10.441  23.396   0.974 -0.0272  0.1522  0.2406
39458DOD     C162193   1.770  14.621   6.544  0.1217 -0.3930  0.0412
39458DOD     C262194   1.343  14.493   6.411 -0.1304  0.0517 -0.2297
39458DOD     C362195   1.079  14.213   6.188 -0.0515  0.0452 -0.3107
39459DOD     C162196  12.510  25.666  26.060  0.2959  0.0732 -0.2660
39459DOD     C262197  12.601  25.578  26.516  0.4183 -0.1152  0.0655
39459DOD     C362198  12.636  25.584  27.002 -0.0560 -0.0530 -0.2545
39460DOD     C162199  19.313   4.548  22.446  0.0994 -0.0988 -0.1940
39460DOD     C262200  19.589   4.905  22.490 -0.0517 -0.2396  0.1182
39460DOD     C362201  19.670   5.235  22.779 -0.0112 -0.0609  0.0968
39461DOD     C162202   5.281  26.138  26.029 -0.1112 -0.0202 -0.0356
39461DOD     C262203   4.953  26.140  26.400  0.2566 -0.0819  0.1230
39461DOD     C362204   4.925  26.279  26.888 -0.0605  0.1990  0.1352
39462DOD     C162205  26.366   8.209  17.121  0.0045 -0.1406 -0.0812
39462DOD     C262206  26.127   8.037  16.763  0.0803 -0.1463 -0.1037
39462DOD     C362207  25.851   7.720  16.594  0.0188  0.1001  0.1871
39463DOD     C162208  17.616  20.796  27.619  0.2638  0.1688 -0.0363
39463DOD     C262209  18.061  20.753  27.484  0.2743  0.1954  0.3570
39463DOD     C362210  18.386  20.860  27.129 -0.0545  0.0309  0.0663
39464DOD     C162211   3.502  24.512   9.591 -0.0299 -0.1929  0.0037
39464DOD     C262212   3.602  24.048   9.484 -0.1581 -0.0074 -0.0648
39464DOD     C362213   3.816  23.685   9.750  0.0893 -0.2090  0.0097
39465DOD     C162214  14.736  18.687  13.220 -0.4693  0.1118 -0.1280
39465DOD     C262215  14.628  18.870  12.815 -0.1871 -0.2308  0.0641
39465DOD     C362216  14.357  19.090  12.489  0.0769 -0.0630 -0.0054
39466DOD     C162217  12.182  11.786   9.682 -0.3320  0.0088  0.1602
39466DOD     C262218  12.391  11.536  10.009  0.0245  0.1298  0.0613
39466DOD     C362219  12.637  11.819  10.322 -0.2239  0.0239 -0.0344
39467DOD     C162220  14.254   3.095   5.455  0.0065 -0.0290  0.2460
39467DOD     C262221  13.842   3.248   5.621 -0.3133 -0.4478 -0.0165
39467DOD     C362222  13.714   3.618   5.925 -0.1174  0.2871  0.2947
39468DOD     C162223   4.231  18.410   2.134 -0.0080 -0.1282 -0.2579
39468DOD     C262224   4.714  18.309   2.121 -0.0269  0.1901 -0.0139
39468DOD     C362225   5.179  18.209   2.097 -0.0592 -0.2770  0.2178
39469DOD     C162226  18.778  23.289   6.763  0.1521  0.0818  0.1139
39469DOD     C262227  19.116  23.600   6.614 -0.0497  0.1013 -0.1980
39469DOD     C362228  19.351  23.624   6.239 -0.0569 -0.1259  0.1832
39470DOD     C162229  11.092  12.323   3.226  0.0528  0.1978 -0.0543
39470DOD     C262230  11.392  12.700   3.223 -0.0046  0.3448  0.0636
39470DOD     C362231  11.743  13.036   3.180  0.0184 -0.1258 -0.2167
39471DOD     C162232   9.578   5.087   8.280 -0.0236  0.1215  0.0952
39471DOD     C262233   9.525   4.922   7.829  0.0855  0.0973  0.0066
39471DOD     C362234   9.661   4.787   7.434  0.0602  0.0328  0.0053
39472DOD     C162235   7.098  17.244  12.886  0.0659 -0.1548  0.1144
39472DOD     C262236   7.551  17.268  12.954 -0.2689 -0.3866  0.2572
39472DOD     C362237   7.872  17.571  12.994  0.1363  0.2060 -0.0661
39473DOD     C162238  25.903  11.820  28.175  0.4702  0.2601 -0.3968
39473DOD     C262239  25.819  12.065  27.816 -0.0611  0.1379 -0.0174
39473DOD     C362240  25.759  12.543  27.807 -0.1502 -0.0388  0.0236
39474DOD     C162241  17.455  23.711  11.182  0.1518 -0.0585 -0.0256
39474DOD     C262242  17.068  23.932  11.409  0.1954 -0.3076  0.0245
39474DOD     C362243  16.809  23.863  11.788  0.1004  0.1685  0.0528
39475DOD     C162244  16.336  17.763  13.775 -0.3024  0.1490  0.2047
39475DOD     C262245  16.071  17.986  13.483  0.2835 -0.0797  0.0485
39475DOD     C362246  15.845  18.009  13.108  0.5526 -0.1428 -0.0303
39476DOD     C162247  24.519  20.283  28.302  0.0652  0.1103  0.2481
39476DOD     C262248  24.322  20.730  28.121  0.0129  0.1865 -0.0218
39476DOD     C362249  24.388  21.174  28.011  0.0938  0.1412  0.4234
39477DOD     C162250  26.841  21.129  21.484 -0.0547  0.1202  0.4575
39477DOD     C262251  26.852  20.863  21.101  0.1176 -0.0890  0.3478
39477DOD     C362252  27.092  20.756  20.705 -0.2293 -0.0132  0.0648
39478DOD     C162253   5.141  18.157  26.284 -0.1681  0.0606  0.1715
39478DOD     C262254   4.786  17.949  26.434  0.0286 -0.0981 -0.2376
39478DOD     C362255   4.571  17.784  26.806  0.0379  0.1002  0.1451
39479DOD     C162256  23.316   4.478   1.936 -0.1422 -0.1340 -0.1881
39479DOD     C262257  23.081   4.821   1.637 -0.2648 -0.1819  0.1615
39479DOD     C362258  22.831   4.600   1.325  0.0768 -0.0020 -0.0992
39480DOD     C162259   4.720  12.435  20.209  0.1346  0.0742  0.1912
39480DOD     C262260   4.530  12.109  19.906  0.0326  0.1446  0.4068
39480DOD     C362261   4.274  11.794  19.712 -0.2088  0.0216  0.1358
39481DOD     C162262  27.801  26.018  18.300 -0.3930  0.0071  0.1859
39481DOD     C262263  27.836  25.622  18.049 -0.1180 -0.0853 -0.1432
39481DOD     C362264  27.937  25.498  17.603 -0.1315 -0.2055 -0.2221
39482DOD     C162265  11.021  12.055  24.406  0.0349  0.0812 -0.4297
39482DOD     C262266  11.303  12.358  24.284  0.2878  0.1408 -0.1609
39482DOD     C362267  11.353  12.552  23.876  0.0447  0.1191  0.2984
39483DOD     C162268   1.530  14.584   3.761 -0.1943 -0.0548 -0.0849
39483DOD     C262269   1.475  14.173   3.579 -0.1987  0.1338  0.0430
39483DOD     C362270   1.103  13.844   3.733 -0.1201 -0.1103  0.2547
39484DOD     C162271  25.591  29.316   9.415 -0.0685  0.0182  0.0288
39484DOD     C262272  25.384  29.457   8.986 -0.1929 -0.1034 -0.2115
39484DOD     C362273  25.348  29.189   8.564 -0.2232 -0.0662  0.1411
39485DOD     C162274   0.191  19.192  12.175 -0.2424  0.1054 -0.0330
39485DOD     C262275   0.473  18.997  12.477  0.0506 -0.1069 -0.0537
39485DOD     C362276   0.700  18.616  12.701 -0.1721  0.1473 -0.3762
39486DOD     C162277  18.790  21.777  20.937 -0.3777 -0.0434 -0.2362
39486DOD     C262278  18.878  22.170  20.605  0.1591 -0.1663  0.1568
39486DOD     C362279  18.821  22.605  20.516  0.0431 -0.0276 -0.2084
39487DOD     C162280  24.945   7.653  27.289 -0.2517  0.0523 -0.0072
39487DOD     C262281  24.861   7.461  26.877 -0.1652  0.0469  0.1663
39487DOD     C362282  24.876   7.096  26.585  0.1191  0.1550 -0.3093
39488DOD     C162283  11.068  11.244  17.177 -0.0863  0.1504 -0.1770
39488DOD     C262284  10.748  11.238  16.856 -0.1962  0.1986  0.1247
39488DOD     C362285  10.632  11.471  16.451 -0.0084 -0.1512 -0.1741
39489DOD     C162286  19.608   8.154  21.847 -0.3042  0.2401  0.1259
39489DOD     C262287  19.967   7.842  21.655  0.0791  0.2155  0.0868
39489DOD     C362288  20.172   7.437  21.710  0.0519  0.1887 -0.2870
39490DOD     C162289  25.218  20.907   7.604 -0.3178 -0.0388  0.1834
39490DOD     C262290  25.007  20.896   8.014 -0.0812 -0.0328 -0.3176
39490DOD     C362291  24.772  20.772   8.383  0.3058  0.0708  0.1310
39491DOD     C162292   5.536  13.970  25.456  0.2849 -0.2340 -0.3287
39491DOD     C262293   5.825  14.016  25.837  0.4455  0.1265  0.3559
39491DOD     C362294   5.758  14.114  26.281  0.0694 -0.0917 -0.0851
39492DOD     C162295  10.767   9.070  26.570  0.1373 -0.0714  0.1588
39492DOD     C262296  11.082   8.785  26.553 -0.2152 -0.0933  0.2328
39492DOD     C362297  11.607   8.676  26.549  0.0854  0.1654  0.4529
39493DOD     C162298  24.295   1.467  12.162  0.0403  0.0143  0.2532
39493DOD     C262299  24.455   1.201  12.495  0.0308 -0.2248  0.3781
39493DOD     C362300  24.358   0.949  12.839 -0.0347 -0.1606  0.2109
39494DOD     C162301  22.868  14.323  23.352 -0.2330  0.0521  0.1489
39494DOD     C262302  23.195  14.270  23.646 -0.2349  0.0460  0.1528
39494DOD     C362303  23.556  14.328  23.930 -0.0251  0.0925 -0.1476
39495DOD     C162304  17.236   6.234  22.557  0.1995 -0.2230  0.2405
39495DOD     C262305  16.836   5.935  22.670  0.1137  0.1170  0.1452
39495DOD     C362306  16.454   5.700  22.619 -0.0353  0.2180  0.0493
39496DOD     C162307   7.389   0.394  11.976  0.1026 -0.1142  0.1467
39496DOD     C262308   7.432   0.037  12.258  0.2693 -0.0885 -0.2200
39496DOD     C362309   7.738  30.003  12.377  0.5027  0.2704  0.0401
39497DOD     C162310  26.482  12.046  19.314  0.2882 -0.2127 -0.0560
39497DOD     C262311  26.187  12.394  19.197 -0.2000  0.0158  0.0089
39497DOD     C362312  25.893  12.745  19.316  0.1432  0.0141  0.2110
39498DOD     C162313  27.023   3.289   5.719  0.0031  0.1720 -0.2201
39498DOD     C262314  26.567   3.463   5.743  0.0744 -0.1887  0.0977
39498DOD     C362315  26.151   3.652   5.598 -0.1643  0.0519 -0.2917
39499DOD     C162316  28.524   0.869   1.126 -0.0451  0.0444 -0.0957
39499DOD     C262317  28.877   1.135   1.038  0.2311  0.4184  0.0536
39499DOD     C362318  29.018   1.577   0.966  0.0294 -0.5297 -0.3014
39500DOD     C162319  27.322   8.129  17.706 -0.0313 -0.0482 -0.0482
39500DOD     C262320  27.608   8.424  17.790  0.0153  0.2228  0.4347
39500DOD     C362321  27.829   8.806  17.650  0.2283  0.0178  0.1221
39501DOD     C162322  28.595   6.981  13.767 -0.0457 -0.0974  0.5015
39501DOD     C262323  28.278   7.200  13.537 -0.0543 -0.0899 -0.0041
39501DOD     C362324  27.955   7.400  13.259 -0.0546 -0.1339  0.2572
39502DOD     C162325  25.921  26.336  25.179 -0.0078 -0.0715  0.0954
39502DOD     C262326  26.222  26.451  25.537 -0.0105 -0.1056 -0.1396
39502DOD     C362327  26.569  26.694  25.758  0.0634 -0.0636 -0.0906
39503DOD     C162328   1.178  20.402  18.436  0.1992 -0.1246  0.0509
39503DOD     C262329   1.103  20.711  18.111 -0.3572  0.0840 -0.1335
39503DOD     C362330   1.093  21.144  18.089 -0.4562 -0.1717  0.3089
39504DOD     C162331  19.258  23.056  14.241  0.0510  0.0519 -0.2910
39504DOD     C262332  19.035  23.366  13.991  0.1022 -0.1559 -0.1298
39504DOD     C362333  18.967  23.531  13.552 -0.1020  0.1708 -0.2214
39505DOD     C162334   8.749  12.865  16.919  0.3004  0.0154 -0.1811
39505DOD     C262335   9.144  13.018  17.198 -0.3255 -0.0657  0.1437
39505DOD     C362336   9.604  13.094  17.082  0.2275 -0.0600 -0.0609
39506DOD     C162337   2.954   1.183   5.173 -0.0816  0.0253 -0.1444
39506DOD     C262338   2.805   1.405   5.551 -0.3496  0.2526 -0.0528
39506DOD     C362339   3.084   1.745   5.681  0.2580  0.1552  0.1160
39507DOD     C162340  10.172   6.795  14.270 -0.2778  0.3108 -0.2229
39507DOD     C262341  10.651   6.745  14.250  0.1473  0.0377 -0.0099
39507DOD     C362342  10.869   6.823  14.641  0.0376 -0.2840 -0.0272
39508DOD     C162343   8.931  29.513   9.122  0.1640 -0.1870 -0.2648
39508DOD     C262344   8.837  29.884   8.898  0.0591 -0.3586  0.4029
39508DOD     C362345   8.701  30.272   9.061  0.1124 -0.1317  0.0331
39509DOD     C162346  29.448  19.040  26.932 -0.0279  0.2392  0.0199
39509DOD     C262347  29.288  18.589  26.858 -0.0353  0.2101  0.0022
39509DOD     C362348  29.026  18.257  26.967  0.0558  0.2472 -0.0640
39510DOD     C162349   5.425   3.247   2.603 -0.1264  0.2648 -0.1287
39510DOD     C262350   5.793   3.110   2.745  0.1422 -0.1508  0.0280
39510DOD     C362351   6.205   2.853   2.699 -0.2734 -0.0609  0.2804
39511DOD     C162352  29.648  30.032  25.842  0.0927 -0.2041 -0.1078
39511DOD     C262353  29.586  29.983  25.431  0.3483 -0.0512  0.0651
39511DOD     C362354  29.497  30.024  25.024  0.0423 -0.2702  0.2870
39512DOD     C162355   4.265  17.902  14.779 -0.3217  0.1832 -0.0259
39512DOD     C262356   4.123  17.754  15.180  0.1496 -0.5307 -0.0018
39512DOD     C362357   3.807  17.518  15.455 -0.0558 -0.1469 -0.1620
39513DOD     C162358   7.259   3.203  14.478  0.3393 -0.2462 -0.1362
39513DOD     C262359   7.610   3.010  14.199  0.1754  0.0999  0.1780
39513DOD     C362360   7.706   2.771  13.840  0.0546 -0.6615  0.1344
39514DOD     C162361  22.360  26.143   3.800 -0.0296  0.2630  0.0548
39514DOD     C262362  22.510  25.782   4.038 -0.0410  0.0669  0.1373
39514DOD     C362363  22.693  25.331   3.937 -0.0364 -0.0228  0.3126
39515DOD     C162364  18.553   0.113  16.702 -0.1594 -0.2238  0.0032
39515DOD     C262365  18.854   0.284  16.424 -0.0155  0.0930  0.1477
39515DOD     C362366  19.085   0.421  16.039 -0.0223 -0.6089 -0.0274
39516DOD     C162367  28.770  29.230  17.556  0.5105 -0.0045  0.1654
39516DOD     C262368  28.408  28.983  17.356  0.0295  0.0975 -0.2572
39516DOD     C362369  28.149  28.905  16.929 -0.2960  0.1437  0.3398
39517DOD     C162370   3.165  24.073   7.087  0.0943  0.1212 -0.0245
39517DOD     C262371   3.206  24.390   6.767  0.0887  0.0782 -0.1100
39517DOD     C362372   3.347  24.352   6.329 -0.0056 -0.0582 -0.3143
39518DOD     C162373  26.881   4.841  27.550 -0.2540  0.2957 -0.1956
39518DOD     C262374  27.283   4.576  27.564 -0.3357 -0.0319  0.1171
39518DOD     C362375  27.660   4.417  27.731 -0.1908 -0.1365 -0.0520
39519DOD     C162376  29.545  24.819   9.861  0.0144 -0.0726  0.1354
39519DOD     C262377  29.374  24.865  10.304  0.1037 -0.1545 -0.2181
39519DOD     C362378  29.111  24.848  10.695 -0.4686 -0.2155 -0.2370
39520DOD     C162379   3.428  11.808   0.610 -0.1568 -0.1458  0.4891
39520DOD     C262380   3.819  11.739   0.332 -0.1301  0.1176 -0.0359
39520DOD     C362381   4.161  11.943   0.076  0.1204  0.1686 -0.1008
39521DOD     C162382   2.037  10.627  22.326 -0.0011  0.0360 -0.1752
39521DOD     C262383   2.354  10.709  22.645  0.1165 -0.2001 -0.1297
39521DOD     C362384   2.458  10.631  23.104 -0.0587  0.0214 -0.0092
39522DOD     C162385  12.329  10.412  17.386  0.0821  0.0343 -0.1327
39522DOD     C262386  12.682  10.406  17.051 -0.0646  0.3134 -0.2186
39522DOD     C362387  12.814   9.994  16.890 -0.3260 -0.1207  0.0973
39523DOD     C162388  13.975   5.820  27.320  0.1320  0.0504  0.2866
39523DOD     C262389  14.447   5.849  27.283  0.1056 -0.0553  0.0658
39523DOD     C362390  14.847   6.151  27.220 -0.4278 -0.0822 -0.4530
39524DOD     C162391  16.280   6.788  15.851 -0.2980 -0.1617  0.1302
39524DOD     C262392  16.515   7.005  15.491 -0.1106 -0.1147 -0.0688
39524DOD     C362393  16.599   6.867  15.068 -0.2116 -0.0274 -0.0121
39525DOD     C162394  26.937   7.701  18.935  0.0414  0.0855 -0.3138
39525DOD     C262395  27.007   7.902  18.510  0.1061  0.0369 -0.1953
39525DOD     C362396  26.973   8.246  18.148  0.0178  0.2541  0.1666
39526DOD     C162397  13.983   3.612  10.370  0.0940 -0.0637  0.0879
39526DOD     C262398  13.710   3.475  10.013  0.0068  0.1217  0.0189
39526DOD     C362399  13.359   3.690   9.835  0.2269 -0.2868  0.0311
39527DOD     C162400  17.438   0.957  19.617  0.0712  0.0764  0.0616
39527DOD     C262401  17.299   0.497  19.674  0.0344  0.0363  0.1294
39527DOD     C362402  17.099   0.053  19.817 -0.4035 -0.1843  0.3090
39528DOD     C162403   2.733  16.062  17.681  0.4783  0.0370  0.0606
39528DOD     C262404   2.584  16.252  18.055 -0.0042  0.0760  0.4577
39528DOD     C362405   2.146  16.321  18.169 -0.1427  0.0447  0.1899
39529DOD     C162406  18.587  10.586  16.191  0.1457  0.5431 -0.0405
39529DOD     C262407  18.575  10.816  16.627  0.0207  0.0319 -0.0655
39529DOD     C362408  18.455  10.705  17.075 -0.4293  0.0347  0.5180
39530DOD     C162409  18.298   6.820  18.790 -0.1437 -0.2110 -0.0007
39530DOD     C262410  17.955   7.042  19.031 -0.1358 -0.0396  0.3175
39530DOD     C362411  17.585   7.270  18.922  0.0819  0.0363 -0.1811
39531DOD     C162412  11.708   3.024   2.496 -0.1314 -0.2762  0.2059
39531DOD     C262413  11.713   2.825   2.029  0.0658 -0.0660  0.1688
39531DOD     C362414  11.779   2.655   1.552 -0.0224 -0.1989 -0.0430
39532DOD     C162415  26.198  22.485  19.366  0.1109  0.1612 -0.1931
39532DOD     C262416  26.568  22.734  19.412 -0.0976  0.2309 -0.2201
39532DOD     C362417  26.851  22.954  19.105  0.3216 -0.2005  0.0609
39533DOD     C162418   3.646   3.195   5.492 -0.1242 -0.3815 -0.1608
39533DOD     C262419   3.202   3.316   5.528 -0.0773 -0.0523  0.2378
39533DOD     C362420   2.797   3.591   5.517  0.0661  0.0809 -0.0305
39534DOD     C162421  13.350  29.995   1.604 -0.0191 -0.1039  0.2564
39534DOD     C262422  13.488  30.284   1.290 -0.0550 -0.0176 -0.0849
39534DOD     C362423  13.565   0.262   0.978  0.1411 -0.0102  0.0221
39535DOD     C162424  20.888  28.244  27.421  0.2816 -0.1158  0.2128
39535DOD     C262425  20.838  28.577  27.131  0.0028  0.0561  0.0648
39535DOD     C362426  21.023  28.941  26.845  0.0219  0.0156  0.0434
39536DOD     C162427  15.425  15.444   2.690  0.2722 -0.1726  0.3181
39536DOD     C262428  15.306  15.650   2.249 -0.3187  0.0144 -0.0403
39536DOD     C362429  15.056  16.053   2.232  0.4404  0.2099 -0.0261
39537DOD     C162430  24.160  22.214  29.708  0.0617 -0.1485 -0.1133
39537DOD     C262431  24.021  22.456  29.311 -0.1949  0.2944 -0.2242
39537DOD     C362432  24.064  22.821  28.982 -0.3536  0.2436 -0.1687
39538DOD     C162433  19.895  22.351   6.499 -0.2577  0.0400  0.1631
39538DOD     C262434  19.889  21.921   6.321  0.0474 -0.2620 -0.0240
39538DOD     C362435  19.967  21.505   6.141  0.0273 -0.3122 -0.0163
39539DOD     C162436   8.301  10.491  11.282 -0.0833  0.2614 -0.0170
39539DOD     C262437   8.528  10.823  11.025 -0.2367 -0.1124  0.2711
39539DOD     C362438   8.704  11.218  10.810 -0.1671 -0.0091 -0.0091
39540DOD     C162439  10.747   0.991  27.447 -0.0950 -0.1732 -0.0835
39540DOD     C262440  10.275   0.854  27.514 -0.3407 -0.0384 -0.1716
39540DOD     C362441   9.903   1.082  27.447  0.0465  0.0415  0.1624
39541DOD     C162442  12.144  25.269  13.970  0.0158  0.2453 -0.0630
39541DOD     C262443  12.278  24.853  13.846  0.4049 -0.0134 -0.0522
39541DOD     C362444  12.541  24.546  13.959  0.0624  0.0923 -0.3501
39542DOD     C162445  17.420  15.316   6.119 -0.4545  0.1970  0.1440
39542DOD     C262446  17.781  15.065   6.239 -0.2443  0.2725  0.0394
39542DOD     C362447  18.213  14.985   6.390 -0.4669  0.2223 -0.2034
39543DOD     C162448  24.679   4.163   0.805 -0.0544 -0.2210 -0.1601
39543DOD     C262449  24.376   3.879   0.986  0.2283 -0.1219  0.2437
39543DOD     C362450  23.956   3.741   0.750  0.0300 -0.0456  0.0140
39544DOD     C162451   8.855  12.210  15.138  0.5246  0.0150  0.2560
39544DOD     C262452   8.800  12.636  15.297  0.2464  0.1587  0.1461
39544DOD     C362453   9.082  12.945  15.453 -0.0841  0.1469  0.2409
39545DOD     C162454  10.517  15.333  18.593 -0.0349  0.1398 -0.0862
39545DOD     C262455  10.200  15.053  18.423  0.0631 -0.2903 -0.1003
39545DOD     C362456   9.763  15.042  18.300  0.1524 -0.0631 -0.0290
39546DOD     C162457   4.985  12.382  29.430 -0.0436  0.2231 -0.0315
39546DOD     C262458   5.275  12.657  29.171  0.0111  0.1296  0.0926
39546DOD     C362459   5.601  12.969  29.162 -0.0595  0.2386  0.1206
39547DOD     C162460  29.102  25.060   1.349  0.0428  0.1454 -0.3777
39547DOD     C262461  28.916  24.618   1.383 -0.0182  0.1507  0.1811
39547DOD     C362462  28.787  24.241   1.244  0.1122 -0.1228  0.1179
39548DOD     C162463  17.679   1.269  14.523  0.0376  0.2971  0.1540
39548DOD     C262464  17.513   0.816  14.504 -0.0343 -0.3153 -0.0944
39548DOD     C362465  17.227   0.517  14.763 -0.0153  0.3832  0.1165
39549DOD     C162466  18.022   3.666   6.415 -0.1423  0.1729  0.0527
39549DOD     C262467  18.024   3.593   6.923 -0.2123  0.0286 -0.0462
39549DOD     C362468  18.048   3.403   7.382 -0.3048  0.2430  0.0798
39550DOD     C162469  14.185  24.320  17.607 -0.2322  0.0883 -0.1740
39550DOD     C262470  14.105  24.778  17.655 -0.3472 -0.0329  0.0919
39550DOD     C362471  14.005  25.166  17.358  0.0401  0.3380 -0.1534
39551DOD     C162472   6.599   5.325   7.163  0.0403  0.1294  0.0545
39551DOD     C262473   6.351   5.692   7.365  0.1231 -0.1356 -0.0083
39551DOD     C362474   5.941   5.952   7.476 -0.1768 -0.0725  0.0142
39552DOD     C162475  23.536   2.609   2.019 -0.1207 -0.1135  0.3081
39552DOD     C262476  23.927   2.424   1.809 -0.2305  0.0623  0.2572
39552DOD     C362477  24.269   2.145   1.814  0.1395 -0.2198 -0.0714
39553DOD     C162478  22.224   0.181   6.483 -0.1708  0.0574  0.0039
39553DOD     C262479  21.891  30.292   6.301  0.0228 -0.0757 -0.1735
39553DOD     C362480  21.711  29.938   6.023  0.0839  0.0536 -0.0290
39554DOD     C162481   6.331  23.179  16.263  0.1043 -0.2140  0.1938
39554DOD     C262482   6.552  22.766  16.247  0.2313 -0.0875  0.2356
39554DOD     C362483   6.582  22.415  16.000  0.0297  0.1989 -0.1010
39555DOD     C162484  11.951  27.897   9.475  0.0334  0.0811 -0.0874
39555DOD     C262485  12.015  27.650   9.101 -0.1055 -0.0730 -0.0946
39555DOD     C362486  11.743  27.481   8.792  0.3226  0.1239 -0.1090
39556DOD     C162487  26.276  13.465   4.331  0.0419  0.0811  0.0627
39556DOD     C262488  26.597  13.587   3.993 -0.1656 -0.0377  0.0242
39556DOD     C362489  26.373  13.869   3.728  0.1052 -0.1665 -0.0682
39557DOD     C162490  15.641  12.064  17.107  0.0838  0.1809  0.1940
39557DOD     C262491  15.712  11.656  17.312 -0.0368 -0.1799 -0.2527
39557DOD     C362492  15.824  11.253  17.393 -0.0871 -0.0588  0.0640
39558DOD     C162493   0.242  20.361  10.985 -0.0344  0.1437  0.1025
39558DOD     C262494   0.493  20.633  11.306  0.2232  0.3002  0.5011
39558DOD     C362495   0.671  21.078  11.136 -0.0534  0.3228  0.1219
39559DOD     C162496  23.324  22.023  23.845 -0.1386 -0.0742 -0.3294
39559DOD     C262497  23.278  22.300  23.474  0.0367  0.1073 -0.0107
39559DOD     C362498  23.209  22.486  23.019  0.0238 -0.1200  0.0765
39560DOD     C162499  19.891   2.096  17.150  0.1571  0.1365  0.3689
39560DOD     C262500  20.293   1.969  17.317 -0.1223  0.3833  0.1128
39560DOD     C362501  20.544   1.631  17.498 -0.2642  0.0685 -0.0728
39561DOD     C162502  16.071   2.953  17.666  0.1101 -0.1549 -0.0743
39561DOD     C262503  15.775   2.614  17.864 -0.0371 -0.0861 -0.1990
39561DOD     C362504  15.623   2.178  18.018  0.2689 -0.2981 -0.0272
39562DOD     C162505   8.860  12.906  23.398 -0.0587  0.2460 -0.2461
39562DOD     C262506   8.503  12.699  23.608 -0.1431  0.3023  0.1302
39562DOD     C362507   8.314  12.306  23.601  0.0925  0.1119 -0.1628
39563DOD     C162508  15.094  15.760  14.742 -0.1249 -0.1467 -0.1028
39563DOD     C262509  15.138  15.446  14.409  0.1469  0.0567  0.3610
39563DOD     C362510  15.091  15.203  14.003  0.2302 -0.1685 -0.0204
39564DOD     C162511   2.368   6.751  18.660 -0.2408 -0.0761 -0.0399
39564DOD     C262512   2.029   7.103  18.756  0.3346 -0.1106 -0.2033
39564DOD     C362513   1.608   7.066  18.914 -0.1735 -0.0729  0.0662
39565DOD     C162514  11.768   8.850   0.630  0.2805  0.5195 -0.0413
39565DOD     C262515  11.749   8.721   0.160  0.4862 -0.0467 -0.2636
39565DOD     C362516  11.535   8.481  30.141 -0.0121  0.0182 -0.1847
39566DOD     C162517  18.830  12.517  18.730  0.1125  0.2419  0.0111
39566DOD     C262518  18.530  12.636  19.037 -0.3355  0.0741 -0.1891
39566DOD     C362519  18.201  12.916  19.152  0.1169  0.1074  0.1188
39567DOD     C162520   1.085  14.843   3.625 -0.2623  0.1224 -0.0365
39567DOD     C262521   1.135  15.133   3.209  0.1736  0.1102 -0.4495
39567DOD     C362522   1.404  15.346   2.886 -0.2531  0.4988  0.3152
39568DOD     C162523  21.501  27.387  20.194 -0.2300  0.2544 -0.1911
39568DOD     C262524  21.384  27.615  19.857 -0.1029  0.0698 -0.0588
39568DOD     C362525  21.147  27.857  19.526  0.2344  0.2824 -0.0540
39569DOD     C162526  15.166   1.109  27.068 -0.0203  0.0571  0.0308
39569DOD     C262527  14.897   0.759  27.203 -0.0173  0.0643  0.1895
39569DOD     C362528  14.702   0.472  27.458  0.0727 -0.1183 -0.2624
39570DOD     C162529  10.341  17.582   4.753 -0.2681  0.0566 -0.3632
39570DOD     C262530  10.002  17.335   4.550  0.1489 -0.0221 -0.2541
39570DOD     C362531   9.617  17.468   4.494  0.1403 -0.2431 -0.1465
39571DOD     C162532   5.486  16.812  25.616 -0.2453  0.0997 -0.3806
39571DOD     C262533   5.289  16.372  25.570 -0.0167 -0.3717 -0.1175
39571DOD     C362534   5.232  16.034  25.910  0.1287  0.0516  0.0810
39572DOD     C162535  13.546   9.245  25.954  0.1272 -0.1299 -0.2190
39572DOD     C262536  14.004   9.427  25.990 -0.0910  0.0671  0.4734
39572DOD     C362537  14.416   9.384  26.292  0.2674  0.0403  0.1792
39573DOD     C162538  20.560  16.388  27.343 -0.1976  0.2208  0.2663
39573DOD     C262539  20.397  16.012  27.521 -0.1957  0.0646  0.2987
39573DOD     C362540  20.000  15.736  27.548  0.1840  0.0912  0.2961
39574DOD     C162541   6.817  11.105  28.106 -0.2838 -0.0099 -0.2656
39574DOD     C262542   7.122  10.848  27.949  0.1138 -0.1605  0.0705
39574DOD     C362543   7.455  10.483  28.135 -0.5360 -0.4504  0.0620
39575DOD     C162544  17.974   9.010  12.932  0.1488  0.1241  0.2179
39575DOD     C262545  18.008   9.174  13.376  0.2127 -0.0652  0.1676
39575DOD     C362546  17.652   9.041  13.728  0.1139 -0.1258 -0.2736
39576DOD     C162547  29.655   6.372  24.326 -0.0854  0.0600 -0.0741
39576DOD     C262548  29.434   6.384  24.743  0.0262  0.0383  0.1265
39576DOD     C362549  29.299   6.088  25.051 -0.1148  0.0685  0.0541
39577DOD     C162550  16.781  12.545   4.970 -0.0871  0.0008  0.0381
39577DOD     C262551  16.731  12.165   5.259 -0.2170  0.2073  0.1516
39577DOD     C362552  16.548  11.984   5.592 -0.0214  0.0596  0.1651
39578DOD     C162553   3.247  15.731  24.616 -0.0727 -0.1331 -0.0289
39578DOD     C262554   2.986  15.873  24.256  0.0617  0.0751  0.0378
39578DOD     C362555   2.630  16.145  24.131 -0.1400 -0.0675  0.1417
39579DOD     C162556   5.755  30.277  12.187 -0.2728 -0.0222  0.0561
39579DOD     C262557   5.973   0.205  11.920  0.0231  0.3579  0.2744
39579DOD     C362558   6.272   0.546  11.711 -0.1615  0.3099 -0.1158
39580DOD     C162559  22.853  27.887  16.089 -0.2223 -0.0002  0.1109
39580DOD     C262560  23.103  28.008  15.701 -0.0696  0.1026 -0.1796
39580DOD     C362561  23.424  27.887  15.353  0.0566 -0.0031  0.0736
39581DOD     C162562  16.939   8.074  17.665 -0.1619 -0.1354 -0.0464
39581DOD     C262563  17.210   7.657  17.561 -0.2427 -0.1488 -0.0514
39581DOD     C362564  17.372   7.309  17.351  0.1017 -0.1056 -0.0174
39582DOD     C162565   8.103   4.244  11.090  0.3144 -0.0374 -0.0287
39582DOD     C262566   8.334   4.518  10.718  0.0433  0.0618 -0.0151
39582DOD     C362567   8.499   4.543  10.258 -0.0385  0.0981 -0.1077
39583DOD     C162568   6.185  29.465  13.898 -0.1693 -0.1180  0.1140
39583DOD     C262569   6.286  29.653  14.291 -0.4824 -0.0090  0.0130
39583DOD     C362570   6.210  29.812  14.676  0.0120 -0.1894  0.1135
39584DOD     C162571  24.209  29.907  13.512 -0.0103 -0.1753  0.0030
39584DOD     C262572  24.045  29.868  13.910 -0.0262  0.1354 -0.0855
39584DOD     C362573  23.679  29.621  14.077 -0.2257 -0.2499  0.1732
39585DOD     C162574   6.498  15.964   6.020  0.0346 -0.0194  0.1191
39585DOD     C262575   6.309  15.496   6.021  0.3583 -0.1390  0.1549
39585DOD     C362576   6.317  15.220   5.649 -0.0336 -0.1651 -0.0894
39586DOD     C162577  12.930  12.311   7.039  0.1448 -0.0441  0.0637
39586DOD     C262578  12.815  12.354   6.585 -0.0217  0.0962 -0.1652
39586DOD     C362579  12.436  12.134   6.402 -0.0388 -0.0579 -0.0983
39587DOD     C162580   9.460   6.084  21.493 -0.2560 -0.0864 -0.2754
39587DOD     C262581   9.363   5.850  21.906  0.0945 -0.3243 -0.2945
39587DOD     C362582   9.070   5.669  22.268 -0.2455  0.0059  0.0042
39588DOD     C162583  23.611   1.339   1.509  0.0624 -0.1429  0.0212
39588DOD     C262584  23.797   1.299   1.928 -0.1766  0.0578  0.0947
39588DOD     C362585  23.666   1.549   2.280  0.1866 -0.1039 -0.1010
39589DOD     C162586  14.063  22.155  10.466 -0.2062  0.0018 -0.1562
39589DOD     C262587  13.678  22.450  10.550  0.0161 -0.2249  0.1076
39589DOD     C362588  13.251  22.579  10.450 -0.2044  0.3361  0.2380
39590DOD     C162589  15.293   4.264  23.100  0.3382 -0.0694  0.0327
39590DOD     C262590  15.169   3.854  23.082  0.1680 -0.0383 -0.1887
39590DOD     C362591  15.383   3.493  23.170  0.1341  0.1162 -0.0135
39591DOD     C162592   3.056   9.494  22.144 -0.1199 -0.1092 -0.0077
39591DOD     C262593   3.339   9.193  22.408 -0.2884 -0.3154 -0.1733
39591DOD     C362594   3.799   9.317  22.476 -0.0807  0.2894 -0.0103
39592DOD     C162595  12.517  21.776  20.361 -0.1557  0.0651 -0.2056
39592DOD     C262596  12.695  22.179  20.169  0.0157  0.2742  0.4358
39592DOD     C362597  13.069  22.343  20.041 -0.0664 -0.3325 -0.1313
39593DOD     C162598   0.064  25.825  15.240 -0.0655 -0.0863  0.0429
39593DOD     C262599  30.106  25.420  15.279  0.0294 -0.1405  0.0762
39593DOD     C362600  30.060  24.959  15.388  0.2195  0.0907 -0.1386
39594DOD     C162601  17.574   5.945   6.983 -0.2095  0.0459  0.0121
39594DOD     C262602  17.629   6.420   6.868 -0.0200  0.2271  0.2100
39594DOD     C362603  17.457   6.885   6.746  0.1203  0.1212 -0.1289
39595DOD     C162604  24.605  17.556  21.411 -0.0912  0.0913 -0.2106
39595DOD     C262605  24.579  17.311  20.997 -0.1916 -0.0381  0.2654
39595DOD     C362606  24.686  17.325  20.516  0.1445 -0.1080 -0.1553
39596DOD     C162607  11.560  26.430  10.286  0.0546  0.0037  0.3823
39596DOD     C262608  11.558  26.064  10.500 -0.1022 -0.0327  0.2017
39596DOD     C362609  11.213  25.769  10.433  0.2923  0.5467 -0.1100
39597DOD     C162610  10.363  30.219   6.353  0.0861 -0.2314 -0.1973
39597DOD     C262611  10.326  29.930   6.700  0.2228 -0.2507  0.1959
39597DOD     C362612  10.120  29.671   6.964 -0.0870 -0.0818 -0.0325
39598DOD     C162613  13.057  16.012   1.394 -0.0174 -0.0020  0.1041
39598DOD     C262614  13.058  15.708   1.785  0.0944  0.0316  0.3196
39598DOD     C362615  13.338  15.633   2.091  0.1525  0.1135  0.1262
39599DOD     C162616  29.873   4.774  23.333  0.0643  0.2247 -0.0027
39599DOD     C262617  30.133   4.540  23.638  0.1494 -0.1660 -0.2130
39599DOD     C362618  30.213   4.249  23.973  0.0742  0.0263 -0.1546
39600DOD     C162619  17.365   7.748  14.034  0.1537  0.1175  0.1455
39600DOD     C262620  17.651   8.119  13.961  0.1039 -0.4154 -0.0563
39600DOD     C362621  17.468   8.530  13.878 -0.2777 -0.3631  0.1540
39601DOD     C162622  26.784  27.671   6.917  0.2396 -0.0321 -0.2283
39601DOD     C262623  27.177  27.719   7.228  0.1844 -0.1601 -0.1762
39601DOD     C362624  27.637  27.501   7.390  0.1781 -0.0466  0.0223
39602DOD     C162625   4.032  29.441   6.103  0.0540 -0.0981  0.0615
39602DOD     C262626   4.424  29.411   6.369 -0.0805 -0.1540  0.0572
39602DOD     C362627   4.808  29.532   6.359 -0.3051  0.0207  0.3100
39603DOD     C162628  24.512   7.209   3.636  0.3359 -0.1881  0.3004
39603DOD     C262629  24.615   7.127   3.159 -0.0427  0.1832  0.0662
39603DOD     C362630  24.563   6.876   2.864 -0.0522  0.1617 -0.1177
39604DOD     C162631   2.522  10.436   5.784 -0.4875 -0.0321  0.1124
39604DOD     C262632   2.445  10.119   6.109 -0.1060  0.0270  0.0762
39604DOD     C362633   2.242   9.879   6.444 -0.0041 -0.0506  0.2126
39605DOD     C162634   5.960  12.437  24.335 -0.2046 -0.1041 -0.0287
39605DOD     C262635   5.503  12.529  24.323  0.0205  0.0129  0.0629
39605DOD     C362636   5.146  12.856  24.389 -0.3299  0.1178 -0.1881
39606DOD     C162637  17.603  10.958  28.383 -0.1607 -0.0791 -0.0869
39606DOD     C262638  17.512  11.371  28.674 -0.0559  0.2945  0.2479
39606DOD     C362639  17.513  11.814  28.547 -0.0516  0.1017 -0.2046
39607DOD     C162640  18.624  23.397  27.521  0.0041  0.1114  0.0019
39607DOD     C262641  18.774  23.725  27.255 -0.1951  0.0851 -0.0629
39607DOD     C362642  18.860  23.739  26.801  0.2040 -0.1819  0.0560
39608DOD     C162643  12.059  21.024  10.131 -0.1710  0.0502 -0.1156
39608DOD     C262644  12.257  20.818   9.794 -0.1571 -0.3522 -0.0241
39608DOD     C362645  12.309  20.395   9.577 -0.3708  0.0403 -0.0127
39609DOD     C162646  17.623  18.541  17.431  0.1185  0.0763 -0.0143
39609DOD     C262647  17.930  18.215  17.399 -0.0732  0.4192 -0.0342
39609DOD     C362648  18.272  17.981  17.621 -0.2098  0.1001 -0.0830
39610DOD     C162649  12.125  11.462  20.699  0.0023  0.5099  0.0329
39610DOD     C262650  11.879  11.453  21.146 -0.0483 -0.3979  0.0384
39610DOD     C362651  11.409  11.570  21.298 -0.0067 -0.3225  0.0167
39611DOD     C162652   1.465   9.737  21.239  0.4022  0.0055  0.0575
39611DOD     C262653   1.627   9.663  20.760 -0.0054  0.0494 -0.0408
39611DOD     C362654   1.897   9.791  20.408 -0.0752 -0.1384  0.0312
39612DOD     C162655  22.113  19.925  10.423 -0.0431 -0.1990 -0.0116
39612DOD     C262656  22.059  19.736  10.002 -0.0180 -0.0191  0.0357
39612DOD     C362657  22.067  19.660   9.513  0.0624 -0.0826  0.1682
39613DOD     C162658  29.132   6.081  29.713  0.2484  0.2396  0.0909
39613DOD     C262659  29.380   6.468  29.868 -0.1494  0.0929  0.2177
39613DOD     C362660  29.388   6.879  29.965  0.0057  0.2546  0.2519
39614DOD     C162661  10.117  12.437  24.193 -0.0112  0.0481 -0.3945
39614DOD     C262662  10.413  12.512  23.901  0.4719 -0.4352 -0.0198
39614DOD     C362663  10.782  12.555  23.672 -0.1700  0.1697  0.0163
39615DOD     C162664  17.657   1.628  24.655  0.1622 -0.0109 -0.1606
39615DOD     C262665  17.939   1.764  24.943  0.1332 -0.4721 -0.1816
39615DOD     C362666  18.148   2.143  24.941  0.1358  0.0719  0.1376
39616DOD     C162667   5.239  27.861  30.017  0.1459  0.2566  0.1423
39616DOD     C262668   4.800  27.704  29.977 -0.1446  0.1555  0.1784
39616DOD     C362669   4.519  27.348  30.078  0.1938 -0.3482  0.1097
39617DOD     C162670   8.679  21.657  14.813 -0.0366 -0.0042 -0.0010
39617DOD     C262671   8.552  21.935  14.427 -0.0569 -0.2936  0.0118
39617DOD     C362672   8.289  22.363  14.385  0.0108  0.0144  0.1077
39618DOD     C162673   7.787  20.630  15.787  0.1463  0.0578  0.2011
39618DOD     C262674   8.134  20.364  16.002  0.2192 -0.2928  0.2061
39618DOD     C362675   8.418  20.090  16.264 -0.2056  0.2776  0.0184
39619DOD     C162676   9.007  30.044  16.113  0.1166 -0.1379  0.0807
39619DOD     C262677   8.939   0.034  15.758  0.2151 -0.1098 -0.1611
39619DOD     C362678   8.889   0.271  15.379 -0.1279  0.0021  0.0728
39620DOD     C162679   6.864  17.858   8.392  0.0358 -0.0738 -0.1556
39620DOD     C262680   6.886  18.191   8.085 -0.1587  0.1331 -0.1315
39620DOD     C362681   7.090  18.465   7.790 -0.2975 -0.0747  0.1338
39621DOD     C162682   2.123   5.120  23.788  0.1384 -0.0091 -0.4930
39621DOD     C262683   2.167   5.124  24.297 -0.3053  0.1394  0.0085
39621DOD     C362684   2.118   4.872  24.681 -0.0572  0.0946  0.0686
39622DOD     C162685   6.092  28.630   2.289 -0.1080  0.2690  0.5200
39622DOD     C262686   5.780  28.834   1.996  0.2056 -0.1754 -0.1049
39622DOD     C362687   5.423  29.027   1.776 -0.1395  0.0910 -0.0051
39623DOD     C162688   7.712  24.075  15.727  0.3782 -0.1603  0.2183
39623DOD     C262689   7.315  23.840  15.915 -0.0213 -0.2551  0.0550
39623DOD     C362690   7.160  23.691  16.309 -0.0329 -0.0881 -0.0594
39624DOD     C162691  14.893  18.597   8.004  0.2687  0.0193  0.0972
39624DOD     C262692  15.082  18.617   8.404 -0.1144 -0.1003 -0.0170
39624DOD     C362693  15.081  18.419   8.832 -0.1142 -0.2014 -0.0482
39625DOD     C162694  23.331  23.260  14.436 -0.0912  0.2324  0.0675
39625DOD     C262695  23.154  22.833  14.322  0.2622  0.2192 -0.0725
39625DOD     C362696  23.037  22.391  14.321  0.2668  0.2323 -0.3776
39626DOD     C162697  10.815  29.740   8.736 -0.1122 -0.2912 -0.4483
39626DOD     C262698  10.676  30.102   9.010  0.0445  0.0418 -0.0119
39626DOD     C362699  10.288   0.018   9.132  0.2887  0.0901 -0.1792
39627DOD     C162700  18.827  10.774  24.773  0.0118  0.0715 -0.1897
39627DOD     C262701  19.265  10.757  24.980  0.1066  0.1951  0.0565
39627DOD     C362702  19.710  10.858  24.872  0.0008  0.1089 -0.2092
39628DOD     C162703   7.002  28.697  16.470 -0.1685 -0.0373  0.2510
39628DOD     C262704   6.532  28.608  16.453 -0.0990 -0.0613 -0.0150
39628DOD     C362705   6.058  28.590  16.364  0.0030  0.1401  0.0594
39629DOD     C162706   5.146  20.075  19.831  0.7000  0.2757 -0.0649
39629DOD     C262707   4.685  20.197  19.695 -0.0879 -0.3074 -0.3898
39629DOD     C362708   4.376  20.501  19.475 -0.4130  0.3184  0.2059
39630DOD     C162709  16.267  11.508  28.619 -0.1387  0.0362 -0.0512
39630DOD     C262710  16.395  11.654  29.024 -0.1089  0.1779  0.2932
39630DOD     C362711  16.342  11.872  29.354 -0.3816 -0.1001 -0.1080
39631DOD     C162712  23.608  17.522  10.001 -0.1565  0.0837  0.0411
39631DOD     C262713  23.756  17.604   9.601 -0.0724  0.1885  0.1966
39631DOD     C362714  24.021  17.810   9.313  0.1525 -0.2690  0.6422
39632DOD     C162715   3.685  23.426  16.871  0.0443  0.1255  0.2115
39632DOD     C262716   3.772  23.901  17.017 -0.3697  0.3076  0.1079
39632DOD     C362717   3.903  23.891  17.459 -0.3295 -0.0095  0.1481
39633DOD     C162718  18.184  22.975   8.412  0.0938  0.0484  0.0064
39633DOD     C262719  18.380  22.707   8.075  0.1176 -0.1574  0.0007
39633DOD     C362720  18.480  22.517   7.671 -0.0868  0.4474 -0.1840
39634DOD     C162721   5.268  15.168  17.208 -0.1916  0.3185  0.1010
39634DOD     C262722   4.869  15.064  17.014 -0.0594  0.1757 -0.1438
39634DOD     C362723   4.651  14.644  17.154 -0.0717 -0.3973 -0.1912
39635DOD     C162724  27.782   6.187  29.875 -0.1614  0.0109  0.2294
39635DOD     C262725  27.493   6.206  30.201  0.3182 -0.0847 -0.0950
39635DOD     C362726  27.256   6.128   0.304  0.0689 -0.1282 -0.1217
39636DOD     C162727  19.219   1.577  11.426  0.1993 -0.0017  0.1004
39636DOD     C262728  18.849   1.405  11.161 -0.0301  0.1046 -0.0119
39636DOD     C362729  18.425   1.289  11.111  0.0575 -0.0085  0.2395
39637DOD     C162730  13.476   8.424  20.451 -0.0511  0.0677  0.0557
39637DOD     C262731  13.225   8.109  20.160 -0.0496  0.2665  0.2758
39637DOD     C362732  13.287   7.830  19.789 -0.1450 -0.2593 -0.3180
39638DOD     C162733  19.773  21.658  28.200 -0.0007  0.1939  0.3601
39638DOD     C262734  20.244  21.556  28.096  0.0270 -0.0043  0.0545
39638DOD     C362735  20.662  21.739  28.119  0.2066  0.2163 -0.0965
39639DOD     C162736   0.550   1.579  24.155 -0.0191 -0.0850  0.0510
39639DOD     C262737   0.536   1.860  24.445  0.1041 -0.1018 -0.1425
39639DOD     C362738   0.258   2.235  24.546 -0.1080 -0.1058 -0.1369
39640DOD     C162739  21.822  20.374  24.665 -0.2718  0.0276 -0.1175
39640DOD     C262740  22.061  20.599  24.350  0.1845  0.0929  0.0511
39640DOD     C362741  22.123  20.565  23.895 -0.1222  0.2177  0.2629
39641DOD     C162742  27.049   8.407  14.037 -0.1338 -0.0196  0.0711
39641DOD     C262743  27.118   8.612  14.432  0.2756  0.1632  0.0905
39641DOD     C362744  27.171   8.662  14.868 -0.0331  0.1196 -0.3418
39642DOD     C162745   0.751  18.083  15.406  0.3161 -0.1750  0.0107
39642DOD     C262746   0.879  18.433  15.128 -0.3268 -0.0297  0.0304
39642DOD     C362747   0.949  18.439  14.659  0.2775 -0.0287 -0.0820
39643DOD     C162748  29.165  23.762  22.560  0.0899  0.1481  0.1377
39643DOD     C262749  28.844  23.834  22.886 -0.0682 -0.0185  0.0723
39643DOD     C362750  28.422  23.880  23.191 -0.2495  0.3732  0.1634
39644DOD     C162751   3.207  26.335   0.460 -0.0569  0.1390  0.0908
39644DOD     C262752   3.474  26.545   0.175  0.1301  0.1174  0.0322
39644DOD     C362753   3.651  26.764  30.166 -0.3442 -0.0266 -0.0641
39645DOD     C162754  27.671   3.259  19.086 -0.3354 -0.1753 -0.2205
39645DOD     C262755  27.856   3.352  18.611 -0.0601 -0.4774 -0.0701
39645DOD     C362756  27.887   3.741  18.386 -0.2106 -0.0767  0.2203
39646DOD     C162757  13.491   0.250  11.372 -0.4474 -0.2272 -0.0985
39646DOD     C262758  13.216   0.182  11.751  0.1877  0.3788  0.1093
39646DOD     C362759  13.237   0.328  12.170  0.1796  0.1694 -0.0579
39647DOD     C162760  14.634  17.708  17.100 -0.0578  0.0823  0.1499
39647DOD     C262761  14.563  17.778  16.648 -0.0638 -0.0966 -0.1900
39647DOD     C362762  14.538  17.923  16.189 -0.2564 -0.1389 -0.2520
39648DOD     C162763  25.650  19.717  27.923 -0.0488 -0.2219  0.1566
39648DOD     C262764  25.685  19.420  27.582 -0.0767 -0.0811  0.0849
39648DOD     C362765  25.780  19.297  27.084 -0.3370  0.1770 -0.1274
39649DOD     C162766  19.640   1.378  16.589 -0.1560 -0.1001 -0.0186
39649DOD     C262767  19.485   1.045  16.294  0.0269 -0.1399 -0.1031
39649DOD     C362768  19.420   0.938  15.856  0.1980 -0.0137  0.0254
39650DOD     C162769   7.585  19.532  12.523  0.2100  0.0917 -0.0891
39650DOD     C262770   7.770  19.530  12.093  0.0488  0.0991 -0.1247
39650DOD     C362771   7.695  19.908  11.789  0.3170 -0.0815 -0.1286
39651DOD     C162772  13.647  17.396  20.132 -0.0501 -0.1090  0.1535
39651DOD     C262773  13.761  17.582  20.605 -0.2452  0.1477  0.1702
39651DOD     C362774  13.834  18.053  20.802  0.1822  0.0974  0.1094
39652DOD     C162775   0.935  22.234  21.279  0.1395 -0.2707  0.2045
39652DOD     C262776   0.780  21.915  21.022  0.0277  0.1929  0.0381
39652DOD     C362777   0.986  21.758  20.634  0.0206 -0.0472 -0.2080
39653DOD     C162778   7.744  19.392   8.478 -0.1893  0.3312  0.2349
39653DOD     C262779   8.025  19.746   8.241 -0.0768  0.2486  0.1400
39653DOD     C362780   8.069  19.984   7.856 -0.1129  0.1078 -0.2717
39654DOD     C162781   6.747  20.289   5.778 -0.1565  0.0169 -0.0912
39654DOD     C262782   7.026  20.458   6.154 -0.0312 -0.0299 -0.1197
39654DOD     C362783   7.422  20.736   6.350 -0.1289  0.1753 -0.1391
39655DOD     C162784  27.234  22.497  10.429  0.1403 -0.0956  0.1312
39655DOD     C262785  26.811  22.266  10.545 -0.2175  0.2779 -0.3373
39655DOD     C362786  26.379  22.011  10.543 -0.2656 -0.0521 -0.0006
39656DOD     C162787  13.572  25.117  26.419 -0.0271  0.1490  0.1801
39656DOD     C262788  13.625  24.961  26.844 -0.0845  0.0580  0.0195
39656DOD     C362789  13.789  24.636  27.142  0.1044  0.0057  0.1561
39657DOD     C162790  13.707  10.656  10.604  0.1162  0.2276 -0.1771
39657DOD     C262791  13.592  10.552  11.043  0.1124 -0.1221  0.0311
39657DOD     C362792  13.301  10.409  11.422 -0.3351  0.0951  0.3357
39658DOD     C162793   5.719  19.355   5.426 -0.1870  0.2242 -0.1792
39658DOD     C262794   5.846  19.794   5.261  0.0330  0.2492  0.2181
39658DOD     C362795   5.867  20.273   5.505  0.0236 -0.2374 -0.0773
39659DOD     C162796  18.263  27.698   9.700 -0.2700 -0.1769 -0.1833
39659DOD     C262797  18.297  28.136   9.928 -0.1302 -0.1436 -0.0449
39659DOD     C362798  18.102  28.259  10.364  0.0206  0.1407 -0.2367
39660DOD     C162799  18.124  28.754   8.136  0.1549  0.0499  0.3692
39660DOD     C262800  17.954  28.422   7.884 -0.0214  0.1308 -0.1689
39660DOD     C362801  18.046  28.035   7.684 -0.1759  0.1933 -0.0340
39661DOD     C162802  18.706  23.665   6.232 -0.3246  0.0352 -0.2049
39661DOD     C262803  18.975  23.262   6.186 -0.1138  0.1056  0.1911
39661DOD     C362804  18.940  22.903   5.838 -0.2929 -0.0693 -0.0349
39662DOD     C162805  20.444  14.274  28.232 -0.0982  0.0125  0.1631
39662DOD     C262806  20.182  14.606  28.380  0.1038  0.0229  0.1875
39662DOD     C362807  19.885  14.931  28.277  0.1683 -0.4144  0.0802
39663DOD     C162808   2.485   2.292   8.539  0.1502 -0.0511  0.0706
39663DOD     C262809   2.018   2.435   8.490 -0.0038 -0.2947  0.5765
39663DOD     C362810   1.703   2.094   8.263  0.0950 -0.1973 -0.1985
39664DOD     C162811  30.048  17.055  19.463  0.0297 -0.0997  0.1726
39664DOD     C262812  30.121  16.613  19.499  0.0157 -0.1469 -0.3425
39664DOD     C362813  30.051  16.159  19.692 -0.3940 -0.1763  0.0641
39665DOD     C162814   2.793  21.196   9.412  0.0273 -0.0451  0.0586
39665DOD     C262815   2.643  21.233   8.984 -0.1564 -0.0106 -0.0665
39665DOD     C362816   2.367  21.309   8.645 -0.0391  0.1552 -0.1588
39666DOD     C162817   4.697   8.500  18.748  0.2372  0.1596 -0.1006
39666DOD     C262818   5.147   8.654  18.813 -0.0285 -0.3285 -0.1968
39666DOD     C362819   5.599   8.583  18.665  0.2577  0.3898 -0.1842
39667DOD     C162820  25.972  11.469  10.263  0.1144  0.0990  0.1916
39667DOD     C262821  26.256  11.730  10.540  0.1856  0.0158  0.2452
39667DOD     C362822  26.335  12.185  10.596 -0.2612  0.0846 -0.0407
39668DOD     C162823  13.085  17.180   7.060  0.2149 -0.0599  0.0917
39668DOD     C262824  13.220  17.424   7.413  0.0760  0.0044  0.3252
39668DOD     C362825  13.400  17.299   7.825 -0.0836  0.0591 -0.1679
39669DOD     C162826  24.482   6.266  27.381  0.1739  0.0597  0.3325
39669DOD     C262827  24.604   6.695  27.324  0.0857 -0.1728 -0.0890
39669DOD     C362828  24.815   7.096  27.386 -0.0902  0.0354 -0.2529
39670DOD     C162829  18.055   3.203   5.915  0.3695  0.1963  0.0409
39670DOD     C262830  18.400   3.409   5.658  0.0536  0.0239 -0.0564
39670DOD     C362831  18.808   3.368   5.414  0.3354  0.4219 -0.2289
39671DOD     C162832  29.177  26.412  28.579 -0.0186  0.4037  0.0768
39671DOD     C262833  28.947  26.444  28.921 -0.2453 -0.0568  0.2402
39671DOD     C362834  28.604  26.646  29.151 -0.1122 -0.1513  0.1958
39672DOD     C162835  30.101  10.512   8.182  0.0909 -0.0970 -0.3624
39672DOD     C262836  30.052  10.046   8.232  0.1328  0.1326  0.0018
39672DOD     C362837  30.254   9.633   8.211 -0.1503 -0.2149 -0.0560
39673DOD     C162838  28.793  14.601  15.735 -0.2284 -0.1095  0.1823
39673DOD     C262839  28.468  14.668  16.006  0.0353  0.0212 -0.1361
39673DOD     C362840  28.248  14.300  16.240 -0.2802 -0.3079 -0.0626
39674DOD     C162841  19.465   5.235   7.902 -0.2642 -0.0934 -0.0349
39674DOD     C262842  19.309   5.240   7.473 -0.2274  0.3777 -0.3980
39674DOD     C362843  19.198   5.541   7.220  0.0462 -0.0310 -0.1343
39675DOD     C162844  14.870  20.931   9.747  0.0899  0.0321 -0.1601
39675DOD     C262845  14.895  20.672  10.130 -0.1396  0.0600 -0.0480
39675DOD     C362846  15.101  20.513  10.502  0.0811 -0.2280  0.0449
39676DOD     C162847  20.803   4.997  11.502  0.2222  0.0479  0.1495
39676DOD     C262848  20.533   4.604  11.643  0.2560  0.0077  0.0162
39676DOD     C362849  20.330   4.190  11.446  0.2101 -0.2117  0.2646
39677DOD     C162850  27.751  14.181  11.730 -0.0309 -0.0137 -0.2294
39677DOD     C262851  27.467  14.368  12.069 -0.0811 -0.0569 -0.0716
39677DOD     C362852  27.321  14.805  12.141  0.2626  0.1051  0.2200
39678DOD     C162853  15.595   8.903   0.387 -0.2057  0.0634 -0.1639
39678DOD     C262854  15.620   9.331   0.308  0.1183  0.2448  0.0437
39678DOD     C362855  15.692   9.738   0.460  0.1939  0.0910 -0.1640
39679DOD     C162856  29.591  18.003  10.632  0.0534  0.1223  0.1912
39679DOD     C262857  29.538  18.302  10.922 -0.1049 -0.1630 -0.1031
39679DOD     C362858  29.326  18.405  11.345 -0.5090  0.0752 -0.2059
39680DOD     C162859   8.890   3.924   1.384  0.2094 -0.2649 -0.0776
39680DOD     C262860   9.067   3.509   1.307  0.2392  0.0684  0.0509
39680DOD     C362861   8.912   3.095   1.491  0.0392  0.1594 -0.1694
39681DOD     C162862  15.624   1.213  27.208 -0.0410  0.0430  0.0520
39681DOD     C262863  15.424   0.856  27.422  0.0626  0.0971  0.3146
39681DOD     C362864  15.267   0.664  27.820  0.4053  0.0249  0.1110
39682DOD     C162865   2.813  29.119   8.455  0.1820  0.1736 -0.3709
39682DOD     C262866   2.662  28.972   8.896 -0.0484 -0.1887 -0.0776
39682DOD     C362867   2.299  28.715   9.027 -0.0725  0.1802 -0.0242
39683DOD     C162868   3.158  12.243  24.195 -0.1616 -0.1905 -0.0519
39683DOD     C262869   2.995  11.891  23.994 -0.1973  0.0371  0.4946
39683DOD     C362870   2.900  11.579  23.647 -0.1062  0.3631 -0.0920
39684DOD     C162871   9.386  10.560  14.663  0.1027  0.1557 -0.3789
39684DOD     C262872   9.471  10.766  14.244  0.0460  0.1237  0.2659
39684DOD     C362873   9.385  10.990  13.809  0.0161 -0.2730  0.4068
39685DOD     C162874  22.378   4.612  25.155  0.0808 -0.2908  0.4013
39685DOD     C262875  21.964   4.466  25.043 -0.1087 -0.1369 -0.2523
39685DOD     C362876  21.490   4.289  24.995  0.0577  0.0193 -0.0958
39686DOD     C162877  25.721  17.356   3.804  0.2270  0.0379 -0.0203
39686DOD     C262878  25.893  17.246   3.402  0.1920  0.0700  0.0902
39686DOD     C362879  26.043  17.161   2.993 -0.1444 -0.0111  0.0279
39687DOD     C162880   0.855  13.820  13.226  0.0442  0.1452  0.0523
39687DOD     C262881   0.482  13.974  12.950  0.1025  0.0363  0.1022
39687DOD     C362882   0.003  14.109  12.914 -0.1031 -0.1248 -0.1504
39688DOD     C162883  26.102   7.136   8.110 -0.2456 -0.1260  0.0172
39688DOD     C262884  25.889   7.046   7.673  0.0056  0.2281 -0.0638
39688DOD     C362885  25.887   6.591   7.468 -0.0686  0.0441  0.0500
39689DOD     C162886   5.609   0.675  24.380 -0.0701  0.1063 -0.1020
39689DOD     C262887   5.762   0.310  24.106 -0.1155 -0.1643  0.1406
39689DOD     C362888   5.694   0.077  23.703  0.0353 -0.1140 -0.1637
39690DOD     C162889  20.857   9.357  26.839  0.6263  0.0751 -0.2046
39690DOD     C262890  20.827   9.821  26.766  0.1746  0.0264 -0.1289
39690DOD     C362891  20.943  10.240  26.686  0.0226  0.2482  0.0759
39691DOD     C162892   9.966   0.954   3.493 -0.0898 -0.1426  0.3613
39691DOD     C262893   9.759   0.599   3.785  0.0662  0.0504 -0.0946
39691DOD     C362894   9.453   0.222   3.824 -0.2321 -0.1220  0.0059
39692DOD     C162895  18.197  16.948  15.067 -0.0968  0.0931  0.1602
39692DOD     C262896  17.764  16.891  15.189  0.0829  0.0732  0.2692
39692DOD     C362897  17.347  16.854  15.044  0.6046 -0.2743  0.0606
39693DOD     C162898   4.598  27.570  22.632  0.0151  0.0439 -0.0725
39693DOD     C262899   4.948  27.792  22.521 -0.1838 -0.5014  0.2557
39693DOD     C362900   5.436  27.878  22.520  0.2748  0.0081  0.1038
39694DOD     C162901   1.011   7.634  24.936  0.2150 -0.0363 -0.1507
39694DOD     C262902   0.997   8.000  25.252 -0.2525 -0.1093 -0.1510
39694DOD     C362903   1.333   8.298  25.428 -0.1027 -0.0967 -0.1615
39695DOD     C162904  16.413   7.504  15.601  0.1617  0.4223 -0.0589
39695DOD     C262905  16.039   7.255  15.800 -0.2815 -0.3283  0.0679
39695DOD     C362906  15.972   6.979  16.176  0.2109  0.0025  0.3068
39696DOD     C162907  17.929  10.049  26.023 -0.0403 -0.1408  0.0725
39696DOD     C262908  18.140  10.364  25.742  0.3850  0.2935 -0.0759
39696DOD     C362909  18.296  10.785  25.620 -0.2114  0.3517 -0.1816
39697DOD     C162910  17.231  12.042  20.240 -0.1734 -0.2447 -0.1456
39697DOD     C262911  16.845  12.069  19.943 -0.1862 -0.0401 -0.0553
39697DOD     C362912  16.624  12.139  19.516 -0.0067 -0.2465  0.0428
39698DOD     C162913  14.827   9.154  21.369  0.0966  0.6602 -0.0811
39698DOD     C262914  15.131   8.932  21.603  0.4760  0.3223  0.2453
39698DOD     C362915  15.428   8.877  21.950  0.0024 -0.0899  0.0842
39699DOD     C162916  15.301  24.254  25.149 -0.0225  0.1838 -0.1346
39699DOD     C262917  15.520  23.863  25.296 -0.1163 -0.0051  0.1408
39699DOD     C362918  15.828  23.480  25.407  0.1047 -0.2812 -0.1772
39700DOD     C162919  10.546   1.494   0.204  0.1190  0.2774  0.0219
39700DOD     C262920  10.172   1.283   0.344  0.1121 -0.0187 -0.2237
39700DOD     C362921  10.009   0.993   0.666 -0.2106  0.1063  0.2512
39701DOD     C162922  21.208   1.656  29.265 -0.1195 -0.1923 -0.0801
39701DOD     C262923  21.484   2.015  29.434  0.0807  0.0602  0.0177
39701DOD     C362924  21.780   2.324  29.193  0.0779 -0.1078 -0.2710
39702DOD     C162925  20.552  29.017  19.578  0.1205  0.2718  0.0788
39702DOD     C262926  20.497  28.973  20.052 -0.1240 -0.0095  0.1625
39702DOD     C362927  20.554  29.165  20.441  0.0508  0.0245  0.2998
39703DOD     C162928   7.303  29.661  26.859 -0.1694  0.2497  0.1487
39703DOD     C262929   7.484  30.092  26.939  0.4212  0.0148 -0.2197
39703DOD     C362930   7.522   0.228  26.919 -0.0302  0.2656  0.1645
39704DOD     C162931   0.256  15.971  26.447 -0.3939 -0.1718 -0.1636
39704DOD     C262932  30.166  16.138  26.621 -0.1834  0.1180 -0.1009
39704DOD     C362933  29.719  16.092  26.846  0.2130 -0.1377  0.1146
39705DOD     C162934   1.474  13.606   3.418  0.3506  0.3717  0.1985
39705DOD     C262935   1.828  13.885   3.220 -0.1038  0.0300  0.0392
39705DOD     C362936   1.969  13.913   2.815 -0.0398 -0.0257 -0.1246
39706DOD     C162937   2.734   0.503   7.614 -0.2496  0.1137  0.1532
39706DOD     C262938   2.940   0.868   7.927 -0.0485 -0.0052 -0.0347
39706DOD     C362939   3.200   1.217   7.775 -0.2388 -0.1275  0.0996
39707DOD     C162940  26.022  23.342  28.766 -0.3070 -0.0662  0.1413
39707DOD     C262941  26.244  23.116  28.455  0.1466 -0.2080  0.1222
39707DOD     C362942  26.714  23.116  28.399 -0.1352  0.0842  0.2749
39708DOD     C162943   3.155   6.942   3.659  0.1711  0.0619 -0.0129
39708DOD     C262944   3.224   6.984   3.174 -0.0350 -0.1040  0.0633
39708DOD     C362945   3.193   7.368   2.963  0.2755 -0.0040 -0.1459
39709DOD     C162946  23.917  12.175  17.530  0.3366  0.0438  0.0730
39709DOD     C262947  23.908  12.196  17.992  0.1037 -0.4118 -0.0374
39709DOD     C362948  24.095  12.345  18.383 -0.2516 -0.0192 -0.1677
39710DOD     C162949   0.668  16.597  28.742 -0.1074  0.2744 -0.0966
39710DOD     C262950   0.675  16.320  28.344 -0.0443  0.0763  0.0428
39710DOD     C362951   0.531  16.028  28.026  0.0791  0.3213 -0.1845
39711DOD     C162952  10.833   8.961  19.953 -0.1200  0.0654  0.0829
39711DOD     C262953  11.109   8.766  19.650  0.1868  0.2997 -0.2203
39711DOD     C362954  11.477   8.586  19.510 -0.2678 -0.0601 -0.0149
39712DOD     C162955   9.176  27.350  11.168  0.0135 -0.3153 -0.0887
39712DOD     C262956   9.206  27.512  11.672 -0.0169  0.1761 -0.1677
39712DOD     C362957   8.985  27.754  11.975  0.1640 -0.2070 -0.0318
39713DOD     C162958   4.833   1.185  17.815 -0.1121 -0.1889 -0.1776
39713DOD     C262959   4.939   0.787  17.962  0.0910 -0.0686  0.1298
39713DOD     C362960   5.153   0.382  17.893  0.0691  0.1164  0.0914
39714DOD     C162961   2.617   9.385  15.922  0.0685  0.0692  0.1451
39714DOD     C262962   2.363   9.517  16.204  0.0904  0.2875 -0.0441
39714DOD     C362963   2.151   9.465  16.690 -0.1915 -0.2255  0.2767
39715DOD     C162964   6.668  25.201  30.208  0.0166 -0.3938  0.2495
39715DOD     C262965   6.615  25.486  29.852  0.2036  0.1571 -0.1217
39715DOD     C362966   6.817  25.862  29.635  0.2635 -0.2021 -0.0556
39716DOD     C162967  14.496  13.496  14.317  0.2609 -0.1058 -0.3368
39716DOD     C262968  14.651  13.740  13.982 -0.1604 -0.0271  0.1577
39716DOD     C362969  14.904  14.099  13.871 -0.0047  0.0687  0.0375
39717DOD     C162970   6.721   4.400  10.915 -0.2153  0.0402  0.0808
39717DOD     C262971   6.511   4.783  10.725  0.0676 -0.0631 -0.1243
39717DOD     C362972   6.671   5.188  10.619  0.2783 -0.0370  0.3276
39718DOD     C162973  17.082  28.351  12.253  0.3440 -0.1146  0.2005
39718DOD     C262974  17.365  28.579  12.007 -0.2786  0.0293  0.5256
39718DOD     C362975  17.470  28.590  11.549 -0.0959  0.2103 -0.1197
39719DOD     C162976  28.939  15.796   2.817  0.1265 -0.1720  0.1897
39719DOD     C262977  28.666  15.837   3.230 -0.0957 -0.4087 -0.4565
39719DOD     C362978  28.721  15.964   3.685  0.0669 -0.0222 -0.0470
39720DOD     C162979   5.403   4.073  27.237 -0.0290  0.2151 -0.1909
39720DOD     C262980   5.537   4.498  27.213  0.0020 -0.2469  0.1045
39720DOD     C362981   5.324   4.845  27.524 -0.1728 -0.2493 -0.0318
39721DOD     C162982  22.241  25.166  11.781  0.3178 -0.1364  0.2564
39721DOD     C262983  22.076  25.197  12.224 -0.0014  0.1548 -0.2796
39721DOD     C362984  21.708  24.997  12.535 -0.4513 -0.0252 -0.0237
39722DOD     C162985  20.674   9.477  13.063  0.5426 -0.1004 -0.0293
39722DOD     C262986  20.912   9.865  13.124 -0.4161 -0.0544 -0.1154
39722DOD     C362987  21.141  10.278  13.065 -0.0485  0.2217  0.3375
39723DOD     C162988   3.296   0.147  21.758  0.1381  0.1037 -0.2383
39723DOD     C262989   2.856   0.130  21.883 -0.0163  0.1195 -0.1137
39723DOD     C362990   2.401   0.214  21.909  0.1846 -0.0318 -0.0635
39724DOD     C162991   2.184  23.634   3.982  0.0302 -0.0497  0.3540
39724DOD     C262992   2.485  23.574   4.320  0.2617 -0.0738 -0.2660
39724DOD     C362993   2.612  23.819   4.704 -0.2395 -0.0779 -0.3441
39725DOD     C162994  23.054   3.787  23.158 -0.2642 -0.0898 -0.0697
39725DOD     C262995  23.419   3.618  23.239 -0.1504 -0.3889  0.2389
39725DOD     C362996  23.910   3.576  23.172  0.0700  0.1627  0.0623
39726DOD     C162997  15.563   3.093  12.551 -0.0014  0.4859  0.0525
39726DOD     C262998  15.626   3.463  12.823 -0.0539 -0.0011 -0.0856
39726DOD     C362999  15.984   3.687  13.100  0.0610  0.2679  0.3087
39727DOD     C163000   5.047   6.643   4.529 -0.3089  0.1814  0.1683
39727DOD     C263001   4.658   6.468   4.675  0.1322 -0.2647 -0.2243
39727DOD     C363002   4.498   6.056   4.482  0.3357  0.0416 -0.1607
39728DOD     C163003   2.066   8.728   6.082 -0.3869  0.2233  0.0467
39728DOD     C263004   1.646   8.931   5.994  0.0845 -0.3212 -0.0769
39728DOD     C363005   1.295   9.201   5.825 -0.2660 -0.0915 -0.2816
39729DOD     C163006  12.741  20.161  11.966  0.0574  0.0153 -0.3648
39729DOD     C263007  12.416  20.223  12.299 -0.2511 -0.0378  0.1225
39729DOD     C363008  12.164  20.550  12.555 -0.2017  0.2509  0.1243
39730DOD     C163009  18.390  22.554   0.949 -0.1121 -0.0389  0.0610
39730DOD     C263010  18.117  22.220   0.796 -0.1940  0.1904  0.0741
39730DOD     C363011  17.744  22.013   0.572  0.1282 -0.0516 -0.1032
39731DOD     C163012  16.251   2.717  22.119  0.1280 -0.1986  0.1846
39731DOD     C263013  15.822   2.812  22.029  0.0737  0.0526  0.1065
39731DOD     C363014  15.429   2.886  21.775  0.0824  0.0918  0.2074
39732DOD     C163015  26.304  28.351   7.623 -0.0225  0.1396  0.1388
39732DOD     C263016  26.041  28.529   7.278 -0.3366  0.2747  0.4035
39732DOD     C363017  25.951  28.602   6.919  0.2370  0.3482 -0.1101
39733DOD     C163018  24.207  30.008  30.108 -0.1051 -0.0200 -0.0259
39733DOD     C263019  23.742  30.128  30.220  0.1035 -0.0697 -0.1056
39733DOD     C363020  23.308  30.218  30.040 -0.3612  0.2543  0.2442
39734DOD     C163021   1.641  19.124  22.625  0.0757 -0.2622 -0.1915
39734DOD     C263022   1.766  19.384  23.056 -0.2126  0.2266  0.4068
39734DOD     C363023   1.980  19.269  23.442 -0.0336  0.2172 -0.2049
39735DOD     C163024   2.417   8.057   9.965 -0.0846 -0.3355  0.2782
39735DOD     C263025   2.487   7.834  10.394  0.0774  0.0288  0.1662
39735DOD     C363026   2.608   7.769  10.817  0.2324  0.0740 -0.3534
39736DOD     C163027   0.750  20.351  10.127 -0.1428  0.2448 -0.2007
39736DOD     C263028   1.115  20.596  10.042  0.1034 -0.0243 -0.1809
39736DOD     C363029   1.426  20.876  10.103  0.0153  0.3043  0.3346
39737DOD     C163030  12.201  30.122   9.080  0.1115  0.0264  0.0514
39737DOD     C263031  12.109   0.086   8.770  0.4654 -0.1365  0.2266
39737DOD     C363032  12.028   0.454   8.600  0.2585  0.0029 -0.2698
39738DOD     C163033   5.460  23.269   5.909 -0.0688  0.1137  0.0049
39738DOD     C263034   5.029  23.449   5.956 -0.3481 -0.2134  0.0595
39738DOD     C363035   4.888  23.904   6.175  0.1176  0.1319  0.0117
39739DOD     C163036  25.703  19.987  25.518 -0.2783  0.0984 -0.1492
39739DOD     C263037  25.525  19.636  25.265  0.2097 -0.0827  0.0279
39739DOD     C363038  25.689  19.260  25.051 -0.0117  0.4837 -0.2222
39740DOD     C163039   9.403  25.781  11.411  0.0877  0.0683  0.1231
39740DOD     C263040   9.171  26.081  11.695 -0.2926 -0.0333 -0.1648
39740DOD     C363041   9.097  26.377  12.056 -0.0634  0.1907 -0.4113
39741DOD     C163042  24.998  28.314   7.906 -0.1247 -0.0153  0.0555
39741DOD     C263043  25.425  28.504   7.980 -0.1528 -0.2737  0.4357
39741DOD     C363044  25.753  28.559   7.698 -0.0009  0.2161  0.1664
39742DOD     C163045  23.653  13.861   2.397  0.1210 -0.1057  0.0392
39742DOD     C263046  23.512  13.730   1.992 -0.5085 -0.0403  0.0121
39742DOD     C363047  23.307  13.474   1.688  0.2110  0.3030  0.0179
39743DOD     C163048   0.551  10.594   8.669  0.0410  0.0419  0.0310
39743DOD     C263049   0.875  10.888   8.753 -0.0105 -0.0796 -0.4116
39743DOD     C363050   0.956  11.066   9.146 -0.0318 -0.1724  0.0869
39744DOD     C163051  22.119  18.672   8.577 -0.2091  0.2054  0.0737
39744DOD     C263052  22.334  18.572   8.231  0.3321 -0.2197  0.0246
39744DOD     C363053  22.760  18.619   7.980  0.0197 -0.1251 -0.0988
39745DOD     C163054   2.086  24.688  28.163 -0.0768  0.0151 -0.2244
39745DOD     C263055   2.022  25.063  27.983 -0.0287 -0.0378  0.0599
39745DOD     C363056   2.060  25.329  27.642  0.1186  0.1449  0.2817
39746DOD     C163057  30.239  29.769   8.355  0.3152  0.0702  0.1834
39746DOD     C263058  29.933  29.427   8.262 -0.0625 -0.0521  0.1859
39746DOD     C363059  29.556  29.600   8.427  0.2799  0.0502  0.0559
39747DOD     C163060  26.933   1.012   3.955  0.1240 -0.1806 -0.1071
39747DOD     C263061  26.464   0.990   3.915 -0.0713 -0.1998  0.1178
39747DOD     C363062  26.206   0.658   3.979  0.1209  0.0830 -0.0336
39748DOD     C163063  11.272  21.784  29.495 -0.1186 -0.1013  0.0234
39748DOD     C263064  11.676  21.761  29.727  0.0242 -0.0993 -0.0503
39748DOD     C363065  12.102  21.917  29.670  0.2276 -0.1999  0.0076
39749DOD     C163066  15.570  19.719  28.317 -0.1428 -0.0966  0.2355
39749DOD     C263067  15.979  19.856  28.361 -0.2134 -0.2495 -0.0969
39749DOD     C363068  16.447  19.936  28.391  0.0261 -0.1911 -0.1442
39750DOD     C163069   6.559   5.518  22.926 -0.0911 -0.1314  0.1987
39750DOD     C263070   6.613   5.564  23.396 -0.2048 -0.3753  0.0423
39750DOD     C363071   6.780   5.290  23.714 -0.1664  0.0952  0.1318
39751DOD     C163072  10.888  16.854   4.799  0.2078 -0.0722  0.1015
39751DOD     C263073  10.862  17.267   4.547  0.2367  0.0369 -0.2433
39751DOD     C363074  10.849  17.693   4.557 -0.0709 -0.0760  0.0599
39752DOD     C163075  18.636   3.432  22.607  0.0536  0.1296 -0.1209
39752DOD     C263076  18.791   3.250  22.208  0.0019 -0.0707  0.0320
39752DOD     C363077  18.895   3.086  21.755  0.1167 -0.0505  0.1045
39753DOD     C163078   7.660  21.087  21.681 -0.1425  0.0719  0.1033
39753DOD     C263079   7.407  20.735  21.806 -0.3760  0.0306  0.0597
39753DOD     C363080   7.084  20.518  22.033  0.1050  0.0483 -0.3071
39754DOD     C163081  18.454  17.579   8.192 -0.0338  0.2138  0.2369
39754DOD     C263082  18.815  17.351   8.246 -0.3201  0.0545 -0.0943
39754DOD     C363083  18.931  16.900   8.197  0.0261 -0.0999 -0.1041
39755DOD     C163084   8.822  21.894  21.441 -0.0633 -0.3016  0.0688
39755DOD     C263085   9.068  21.542  21.367  0.0623  0.2840 -0.0533
39755DOD     C363086   9.387  21.206  21.425  0.0423  0.2490  0.0637
39756DOD     C163087   5.029  19.989  21.240 -0.0163  0.1331 -0.2729
39756DOD     C263088   4.702  19.715  21.240  0.3790 -0.2202 -0.1733
39756DOD     C363089   4.475  19.396  21.426  0.0180 -0.4224 -0.0063
39757DOD     C163090  24.245  24.311  25.234 -0.0025  0.1594 -0.0076
39757DOD     C263091  24.384  24.484  25.658 -0.0383 -0.0224  0.2110
39757DOD     C363092  24.586  24.759  25.983  0.2455  0.1302  0.2082
39758DOD     C163093  11.046   0.103   1.497 -0.1070 -0.1734  0.1802
39758DOD     C263094  10.911  30.133   1.749 -0.3844 -0.0588  0.2147
39758DOD     C363095  10.493  30.116   2.017 -0.2403  0.0403  0.4936
39759DOD     C163096   5.920   0.685   2.888 -0.2962 -0.2032  0.0911
39759DOD     C263097   5.592   0.465   3.217  0.3026 -0.2447 -0.1993
39759DOD     C363098   5.496   0.177   3.554  0.0511 -0.1488 -0.0418
39760DOD     C163099   8.989  15.602   6.602  0.0117 -0.1784 -0.3835
39760DOD     C263100   8.891  15.916   6.242  0.0658  0.1086 -0.3128
39760DOD     C363101   8.672  16.220   5.983  0.0978 -0.2432 -0.1707
39761DOD     C163102   7.152  19.190  24.089 -0.1477 -0.4774  0.2049
39761DOD     C263103   6.811  18.906  23.925  0.1227  0.0154  0.1507
39761DOD     C363104   6.482  18.583  24.035  0.0658  0.1729 -0.0967
39762DOD     C163105   1.876  20.729  16.918 -0.0856 -0.2513  0.3277
39762DOD     C263106   1.687  21.101  16.698  0.0271  0.1179 -0.1482
39762DOD     C363107   1.898  21.316  16.368  0.1425 -0.0349 -0.0094
39763DOD     C163108   5.923  18.722  25.221  0.0460  0.0089 -0.2342
39763DOD     C263109   5.662  18.622  25.601 -0.1472  0.2273  0.0620
39763DOD     C363110   5.647  18.852  26.010  0.3039  0.1016  0.0636
39764DOD     C163111   0.942  21.658  20.143 -0.0088 -0.3075 -0.0881
39764DOD     C263112   1.362  21.554  20.332 -0.0634 -0.0663 -0.1771
39764DOD     C363113   1.460  21.110  20.439 -0.1856  0.1202 -0.0609
39765DOD     C163114  22.220   9.939  13.529 -0.1585  0.0461  0.1524
39765DOD     C263115  22.655   9.884  13.521 -0.0335 -0.1201  0.3843
39765DOD     C363116  23.088   9.789  13.587 -0.0593  0.0755  0.0504
39766DOD     C163117   1.194  24.079  14.777 -0.1560 -0.0475 -0.0562
39766DOD     C263118   1.658  24.232  14.585 -0.3384  0.2758  0.0467
39766DOD     C363119   2.127  24.156  14.695  0.1516 -0.0566 -0.2462
39767DOD     C163120  18.257  25.987  18.545  0.1760 -0.0561 -0.0594
39767DOD     C263121  17.785  25.951  18.461  0.1333 -0.4549 -0.1301
39767DOD     C363122  17.514  26.097  18.078  0.1087  0.2215 -0.0695
39768DOD     C163123   3.641  21.815   9.354 -0.0676 -0.3417 -0.0833
39768DOD     C263124   3.626  21.355   9.240 -0.0202 -0.1580 -0.0809
39768DOD     C363125   3.261  21.116   9.128  0.1738 -0.0798  0.1601
39769DOD     C163126   8.727  23.925  13.669 -0.1557  0.1809 -0.1014
39769DOD     C263127   8.249  23.942  13.823 -0.1710  0.2531 -0.1589
39769DOD     C363128   7.935  24.041  14.097  0.0457  0.0022  0.1322
39770DOD     C163129   4.879  21.854  21.128 -0.1333  0.2445 -0.1524
39770DOD     C263130   5.194  22.064  21.378  0.0210  0.0403 -0.2020
39770DOD     C363131   5.492  22.302  21.610 -0.3786 -0.1886  0.1341
39771DOD     C163132  14.457  17.031  25.694 -0.0137 -0.1975  0.0921
39771DOD     C263133  14.035  17.177  25.889  0.2624  0.4753 -0.5739
39771DOD     C363134  13.670  17.208  26.213  0.0028 -0.1681  0.0142
39772DOD     C163135   8.873  23.306   5.309 -0.0456  0.0573  0.1237
39772DOD     C263136   8.433  23.422   5.274  0.0804 -0.0489  0.2173
39772DOD     C363137   8.116  23.729   5.043  0.0927 -0.1512  0.0878
39773DOD     C163138  12.939  14.783  15.351 -0.0043  0.1442 -0.1052
39773DOD     C263139  12.957  14.734  14.913 -0.0749 -0.5478 -0.0278
39773DOD     C363140  13.244  14.548  14.544 -0.1413  0.1791 -0.0437
39774DOD     C163141   4.551  26.583  26.725  0.0315 -0.1204  0.0631
39774DOD     C263142   4.335  26.947  26.918 -0.2542  0.1030 -0.1633
39774DOD     C363143   3.909  26.953  27.172 -0.1526  0.0030  0.2051
39775DOD     C163144  29.096  14.209  28.238 -0.0067  0.3663 -0.0277
39775DOD     C263145  29.422  14.500  28.123  0.0863  0.1586  0.0110
39775DOD     C363146  29.758  14.809  28.231 -0.0449  0.2159  0.0272
39776DOD     C163147  17.354   4.775  21.695  0.1194  0.0758 -0.0055
39776DOD     C263148  17.354   5.115  22.030  0.0562  0.2962 -0.1023
39776DOD     C363149  17.564   5.486  22.150 -0.0399  0.3569  0.1566
39777DOD     C163150  10.531   0.028   1.508 -0.2525  0.0276  0.0003
39777DOD     C263151  10.717   0.309   1.864  0.0258 -0.3764  0.0577
39777DOD     C363152  10.529   0.442   2.311 -0.0886  0.2489  0.1707
39778DOD     C163153  15.106   3.205  28.107  0.0385  0.0719 -0.1272
39778DOD     C263154  14.812   3.205  28.485 -0.0599  0.1144  0.0397
39778DOD     C363155  14.406   3.159  28.760 -0.0969 -0.0023 -0.1957
39779DOD     C163156  26.140   1.019  19.249 -0.0536  0.3367 -0.0020
39779DOD     C263157  25.806   1.064  19.534 -0.0436 -0.3480 -0.2342
39779DOD     C363158  25.486   1.190  19.852 -0.0678 -0.3743 -0.0084
39780DOD     C163159  21.091  18.346  15.005 -0.1541  0.0058  0.6474
39780DOD     C263160  20.810  18.763  14.981 -0.3490  0.0311  0.3485
39780DOD     C363161  20.414  18.908  15.141 -0.1053  0.0519 -0.2381
39781DOD     C163162   2.359  28.881  29.761 -0.0356  0.0734  0.0578
39781DOD     C263163   2.717  28.644  29.786  0.1864 -0.0631 -0.0887
39781DOD     C363164   3.091  28.410  29.975  0.2298 -0.0633 -0.0280
39782DOD     C163165  12.036  14.061   3.049  0.0636  0.0872  0.1895
39782DOD     C263166  11.724  14.381   3.186  0.0188  0.1741  0.0223
39782DOD     C363167  11.565  14.789   3.284 -0.1443 -0.2264 -0.1402
39783DOD     C163168  27.721  11.355   7.677 -0.0272 -0.0002 -0.2890
39783DOD     C263169  27.651  11.548   8.098  0.1160 -0.1976 -0.1801
39783DOD     C363170  27.416  11.775   8.458 -0.1010 -0.4057  0.0293
39784DOD     C163171  24.949   7.884  10.906  0.2552 -0.0215 -0.1341
39784DOD     C263172  25.343   7.972  10.669 -0.2769  0.1712 -0.1330
39784DOD     C363173  25.707   8.038  10.367  0.2958  0.0308 -0.0575
39785DOD     C163174   8.359  14.659   3.399  0.1374  0.0068 -0.0584
39785DOD     C263175   8.763  14.617   3.159 -0.0543  0.3483 -0.1988
39785DOD     C363176   9.016  14.322   2.932 -0.0057 -0.1326  0.1253
39786DOD     C163177   6.330  21.471   9.564 -0.1982 -0.1384  0.0632
39786DOD     C263178   6.201  21.184   9.885  0.3283  0.1294 -0.0052
39786DOD     C363179   6.276  20.944  10.211 -0.1834  0.1483 -0.0368
39787DOD     C163180  27.897   5.141  15.485  0.2143  0.4310 -0.2223
39787DOD     C263181  27.774   5.196  15.908  0.0093 -0.1535  0.1592
39787DOD     C363182  27.657   5.566  16.157 -0.0051 -0.1893 -0.1330
39788DOD     C163183   8.236   7.797  19.770 -0.2214 -0.0349  0.0488
39788DOD     C263184   8.241   7.735  20.237 -0.0118 -0.0379 -0.1094
39788DOD     C363185   8.365   7.976  20.650  0.1546 -0.3389  0.1413
39789DOD     C163186  12.013  28.396   4.751 -0.1145 -0.0065  0.1534
39789DOD     C263187  11.792  27.990   4.647  0.1142  0.2039  0.1169
39789DOD     C363188  11.411  27.942   4.388  0.0647 -0.1222  0.1434
39790DOD     C163189  17.958   7.987  20.388 -0.1701  0.1019  0.1606
39790DOD     C263190  18.407   7.944  20.454 -0.2107  0.0862  0.3738
39790DOD     C363191  18.673   8.309  20.381 -0.0699  0.1966  0.1007
39791DOD     C163192   3.794  15.704   0.100  0.2569 -0.1588 -0.1181
39791DOD     C263193   3.472  15.906  30.105  0.4234  0.2118  0.2349
39791DOD     C363194   2.985  15.797  30.036  0.2187  0.0833  0.1437
39792DOD     C163195   3.209  19.799   8.634  0.0635  0.0047  0.2012
39792DOD     C263196   2.816  19.684   8.911  0.0791 -0.2578 -0.1286
39792DOD     C363197   2.415  19.431   8.962  0.3753  0.0177 -0.0160
39793DOD     C163198  28.810  23.975   8.441  0.0628 -0.1307  0.2069
39793DOD     C263199  28.822  24.434   8.661  0.0865  0.4765  0.0312
39793DOD     C363200  28.789  24.854   8.478  0.1154 -0.3305  0.1945
39794DOD     C163201  29.156  17.317   6.323 -0.0472 -0.1871 -0.0988
39794DOD     C263202  28.721  17.532   6.318  0.1894  0.0049  0.2168
39794DOD     C363203  28.277  17.773   6.350  0.0250  0.0987  0.3403
39795DOD     C163204   3.516  26.509  10.648 -0.0492  0.3500  0.2119
39795DOD     C263205   3.286  26.111  10.536 -0.1956 -0.0510 -0.0976
39795DOD     C363206   3.462  25.720  10.336 -0.0034 -0.0407  0.0297
39796DOD     C163207  24.043   3.026  20.761 -0.3050 -0.1884 -0.1709
39796DOD     C263208  24.314   3.263  20.974 -0.0129 -0.0226 -0.0024
39796DOD     C363209  24.774   3.319  21.091 -0.0680 -0.0614 -0.1223
39797DOD     C163210  22.151  17.368  10.260 -0.0674  0.1281  0.3183
39797DOD     C263211  22.218  17.407   9.784 -0.2120 -0.1323  0.1517
39797DOD     C363212  22.089  17.376   9.303  0.0136  0.1140 -0.1051
39798DOD     C163213   3.532  14.571  22.932  0.1305  0.0232 -0.3511
39798DOD     C263214   3.169  14.907  22.908  0.2856  0.1171  0.1947
39798DOD     C363215   2.936  15.178  22.593 -0.1575 -0.0550 -0.1377
39799DOD     C163216   1.473  26.721  26.066  0.0929 -0.1269  0.1264
39799DOD     C263217   1.779  26.735  25.762 -0.0127  0.0928 -0.1128
39799DOD     C363218   1.820  26.595  25.280  0.1785 -0.1093  0.0225
39800DOD     C163219   5.232   2.980   3.523 -0.0419  0.2477  0.0911
39800DOD     C263220   5.691   3.042   3.712 -0.3927 -0.1388 -0.3092
39800DOD     C363221   6.114   2.849   3.720 -0.1099 -0.0390  0.0807
39801DOD     C163222  20.793   3.177  26.788  0.1706 -0.0691 -0.1520
39801DOD     C263223  20.591   2.733  26.768  0.1301 -0.1030 -0.3001
39801DOD     C363224  20.546   2.368  26.457  0.0276  0.1776 -0.1546
39802DOD     C163225  11.121   1.327  27.767  0.0154  0.1065  0.1626
39802DOD     C263226  11.351   1.067  27.519 -0.0924 -0.1547  0.1604
39802DOD     C363227  11.643   0.757  27.384 -0.0264  0.1686  0.0581
39803DOD     C163228   0.847  11.668   5.477 -0.1400 -0.0726  0.1475
39803DOD     C263229   0.905  12.099   5.559 -0.1791 -0.1407 -0.0059
39803DOD     C363230   0.528  12.416   5.644  0.1403 -0.1780 -0.0851
39804DOD     C163231   0.146  10.213  28.653  0.2911  0.1322 -0.0524
39804DOD     C263232   0.158   9.857  28.975 -0.0213  0.3131  0.0676
39804DOD     C363233   0.114   9.696  29.462 -0.1199 -0.0722 -0.0995
39805DOD     C163234  11.897   8.050  16.876  0.0424  0.5084  0.0588
39805DOD     C263235  12.152   8.016  17.279  0.1817 -0.2288  0.1673
39805DOD     C363236  12.411   8.307  17.579  0.0911 -0.1986 -0.0737
39806DOD     C163237  11.234  13.582   8.958  0.2684 -0.0088 -0.0726
39806DOD     C263238  11.066  13.560   8.492 -0.1169  0.2158  0.0357
39806DOD     C363239  10.968  13.792   8.061 -0.4445 -0.0253 -0.0575
39807DOD     C163240  16.984   1.071  21.478  0.0603 -0.0835 -0.1324
39807DOD     C263241  17.425   0.964  21.445 -0.1246  0.1908 -0.2168
39807DOD     C363242  17.892   1.063  21.530 -0.1044  0.1163 -0.2994
39808DOD     C163243  23.451  21.703   4.083  0.1296  0.0547 -0.1208
39808DOD     C263244  23.829  21.835   4.304  0.2672 -0.1759 -0.2532
39808DOD     C363245  23.899  22.307   4.246 -0.1683 -0.1999 -0.1213
39809DOD     C163246  14.664  29.019  22.068  0.0993  0.1608 -0.1331
39809DOD     C263247  14.332  29.051  21.702 -0.1777 -0.2531  0.0544
39809DOD     C363248  13.860  29.098  21.712  0.0004 -0.2641 -0.1075
39810DOD     C163249  17.498  12.082  21.289 -0.2278 -0.1364 -0.2952
39810DOD     C263250  17.446  11.623  21.077 -0.0430 -0.1726 -0.0677
39810DOD     C363251  17.352  11.192  21.305  0.0615 -0.2719 -0.1354
39811DOD     C163252  12.576   1.480   6.774  0.2476 -0.1268 -0.5974
39811DOD     C263253  12.513   1.608   7.239 -0.1191  0.0812 -0.0395
39811DOD     C363254  12.347   1.709   7.672 -0.2297 -0.1138 -0.2326
39812DOD     C163255  19.579  18.040  17.535  0.0822 -0.5067  0.4016
39812DOD     C263256  19.195  18.091  17.271  0.0274  0.1230  0.0747
39812DOD     C363257  18.815  18.160  17.588  0.1464  0.2522  0.1801
39813DOD     C163258  18.919   1.521  25.849  0.1626  0.0499 -0.2282
39813DOD     C263259  18.991   1.305  25.457 -0.0999  0.2232 -0.1169
39813DOD     C363260  19.086   0.969  25.122 -0.1027 -0.1775  0.2225
39814DOD     C163261  12.348  10.813  22.336  0.1263  0.0393  0.1949
39814DOD     C263262  12.506  10.404  22.311 -0.1848 -0.0611  0.0807
39814DOD     C363263  12.625  10.161  21.904  0.2816  0.0713  0.1252
39815DOD     C163264  22.062  26.236   6.412 -0.0726  0.1052 -0.0800
39815DOD     C263265  21.801  26.419   6.763 -0.1417  0.2347 -0.2476
39815DOD     C363266  21.583  26.830   6.932  0.1453 -0.0211  0.0263
39816DOD     C163267  18.756  17.528  22.196  0.0955 -0.2710 -0.0177
39816DOD     C263268  19.051  17.221  22.342 -0.0832  0.3796 -0.0322
39816DOD     C363269  19.426  17.207  22.116 -0.2371  0.1064  0.0848
39817DOD     C163270  19.263  22.423   7.198  0.0379  0.0629  0.1194
39817DOD     C263271  19.101  22.178   6.862  0.0749 -0.3187  0.2855
39817DOD     C363272  19.092  21.744   6.672  0.1996 -0.0935 -0.1789
39818DOD     C163273  24.089  26.587  12.957  0.1320 -0.0041 -0.2559
39818DOD     C263274  24.410  26.913  12.859  0.1778  0.2625  0.0226
39818DOD     C363275  24.826  27.048  12.953 -0.1581 -0.1418 -0.0589
39819DOD     C163276  11.563   2.938  24.627 -0.1203  0.0313  0.1045
39819DOD     C263277  11.268   3.255  24.482  0.0861  0.2375 -0.1720
39819DOD     C363278  11.096   3.709  24.412  0.0662 -0.0313  0.0421
39820DOD     C163279  10.055  28.077  14.598 -0.3635  0.3624  0.1404
39820DOD     C263280   9.776  28.282  14.223 -0.0245 -0.2323 -0.1153
39820DOD     C363281   9.682  28.642  13.825  0.1645 -0.0084  0.0359
39821DOD     C163282  24.458  29.782  25.533 -0.1092  0.2558 -0.2859
39821DOD     C263283  24.466  29.822  26.004  0.0728  0.0871 -0.2289
39821DOD     C363284  24.648  30.066  26.328  0.0127 -0.0004 -0.0639
39822DOD     C163285  16.814  25.501   7.389  0.1865 -0.0263  0.4146
39822DOD     C263286  17.031  25.847   7.132 -0.2117 -0.4221 -0.2448
39822DOD     C363287  17.369  25.978   6.804 -0.0296 -0.1818  0.1014
39823DOD     C163288   9.926  16.867  25.915  0.1385 -0.0218  0.1793
39823DOD     C263289  10.117  16.760  26.355 -0.1775 -0.0898  0.0811
39823DOD     C363290  10.296  17.035  26.712 -0.2537  0.0638 -0.0379
39824DOD     C163291   0.438   8.049  11.747 -0.0741 -0.1154  0.0499
39824DOD     C263292   0.276   7.733  12.083 -0.1756  0.0735  0.0631
39824DOD     C363293   0.075   7.477  12.453 -0.0376 -0.0710  0.1740
39825DOD     C163294   5.218  18.346  24.471 -0.0790  0.2068  0.1166
39825DOD     C263295   4.979  18.174  24.114  0.0936  0.1800 -0.2656
39825DOD     C363296   4.956  17.811  23.850  0.2319  0.0571 -0.1960
39826DOD     C163297   1.058  16.029  28.073  0.0302 -0.2948  0.0118
39826DOD     C263298   1.433  16.311  28.067  0.1428  0.0165  0.2048
39826DOD     C363299   1.884  16.401  28.117  0.0774 -0.1233  0.0681
39827DOD     C163300  14.281  27.330  29.893 -0.4973  0.1224 -0.1764
39827DOD     C263301  14.251  27.467  29.420 -0.1529 -0.1856 -0.0064
39827DOD     C363302  14.400  27.476  28.969 -0.1316  0.4443 -0.0395
39828DOD     C163303  25.508   6.307  29.589 -0.1263 -0.1360 -0.2023
39828DOD     C263304  25.940   6.162  29.458 -0.1401  0.1162  0.2199
39828DOD     C363305  26.311   6.256  29.145 -0.0487 -0.4717 -0.0464
39829DOD     C163306  27.796  19.199  10.187  0.1133 -0.0774 -0.1160
39829DOD     C263307  27.973  19.613  10.408 -0.0555 -0.0983 -0.2105
39829DOD     C363308  28.428  19.611  10.507 -0.2651  0.1028 -0.2489
39830DOD     C163309  28.317  21.950  28.675  0.2011 -0.2042 -0.0249
39830DOD     C263310  28.319  22.140  29.095 -0.0423 -0.0123 -0.1794
39830DOD     C363311  28.086  22.484  29.322  0.1011  0.2451 -0.0561
39831DOD     C163312   5.947  17.836   8.297 -0.3649  0.2112 -0.0813
39831DOD     C263313   5.522  17.827   8.189  0.1663  0.1108  0.0963
39831DOD     C363314   5.163  18.047   8.000  0.0665  0.1006 -0.1605
39832DOD     C163315   4.380   6.533  20.931 -0.1246 -0.0677 -0.0852
39832DOD     C263316   4.705   6.637  20.656 -0.0046  0.0087 -0.1357
39832DOD     C363317   4.999   6.739  20.410 -0.2648 -0.0965  0.2498
39833DOD     C163318   7.932  17.120  15.868  0.0135  0.3031 -0.2919
39833DOD     C263319   8.058  17.132  15.395 -0.1462 -0.4132  0.2237
39833DOD     C363320   8.073  16.849  14.985 -0.2439 -0.0460  0.2226
39834DOD     C163321  10.015   0.739  27.060 -0.5293 -0.3380 -0.0224
39834DOD     C263322   9.658   0.645  27.394  0.0007  0.1674  0.0812
39834DOD     C363323   9.257   0.552  27.596  0.1777  0.1661  0.0794
39835DOD     C163324   9.906   1.972   4.938 -0.0492  0.1164  0.0373
39835DOD     C263325   9.543   2.309   4.956  0.1852  0.1140  0.0670
39835DOD     C363326   9.320   2.697   5.029 -0.1100 -0.2085 -0.3837
39836DOD     C163327  13.264  21.181  13.130  0.1200  0.2108  0.0252
39836DOD     C263328  13.560  20.828  13.166 -0.0059  0.0087  0.0100
39836DOD     C363329  13.808  20.784  13.583 -0.2052 -0.2847 -0.0049
39837DOD     C163330  27.475  10.092   5.854 -0.0321 -0.0344  0.1933
39837DOD     C263331  27.709   9.693   5.979  0.1251 -0.0130  0.0861
39837DOD     C363332  27.888   9.322   5.867  0.0593  0.0988  0.0001
39838DOD     C163333  23.980   0.973   6.129  0.2510  0.0023  0.3936
39838DOD     C263334  24.055   0.688   6.460  0.1022  0.1518  0.2020
39838DOD     C363335  24.197   0.518   6.889  0.1355 -0.1657  0.1653
39839DOD     C163336  15.330  27.037   2.482 -0.0250 -0.1793 -0.3749
39839DOD     C263337  15.478  26.576   2.697  0.3093  0.0060  0.0637
39839DOD     C363338  15.360  26.345   3.112 -0.1123 -0.0132 -0.2854
39840DOD     C163339  23.099   4.398  11.260 -0.3160  0.2180  0.0584
39840DOD     C263340  23.095   4.787  11.564  0.0899 -0.0192  0.0463
39840DOD     C363341  22.919   4.923  11.969 -0.0967 -0.0789 -0.2651
39841DOD     C163342   9.486   5.543   0.071 -0.2817 -0.1706 -0.0202
39841DOD     C263343   9.857   5.286  30.269  0.1935  0.1391  0.0872
39841DOD     C363344  10.079   4.853   0.050 -0.0916 -0.3988  0.1519
39842DOD     C163345  11.784  29.631  25.846  0.1322 -0.0674 -0.0937
39842DOD     C263346  12.133  29.577  26.145 -0.0835 -0.1875  0.0226
39842DOD     C363347  12.406  29.525  26.497  0.0101  0.0640  0.0904
39843DOD     C163348  21.204   7.358  27.337 -0.1142 -0.1003  0.3780
39843DOD     C263349  20.841   7.387  27.103 -0.3149  0.0205  0.1347
39843DOD     C363350  20.432   7.332  26.852  0.0163 -0.0076 -0.0264
39844DOD     C163351   1.783   4.381  19.222  0.0371 -0.2726 -0.0312
39844DOD     C263352   2.238   4.427  19.092 -0.1043 -0.1171 -0.3148
39844DOD     C363353   2.419   4.300  18.717  0.4391 -0.0652  0.0664
39845DOD     C163354   3.791  27.279  30.201 -0.0940 -0.0548 -0.0834
39845DOD     C263355   3.600  27.715  30.185  0.0279 -0.0308  0.1811
39845DOD     C363356   3.506  28.187  30.112 -0.3424 -0.0508 -0.0370
39846DOD     C163357   8.368  21.976  26.226  0.2467 -0.3049 -0.2176
39846DOD     C263358   8.518  21.809  26.635 -0.0226  0.3398 -0.2666
39846DOD     C363359   8.383  21.755  27.097 -0.1583 -0.0600 -0.0698
39847DOD     C163360  29.060  22.012  10.806 -0.0164 -0.5330  0.0944
39847DOD     C263361  28.968  21.607  11.019 -0.1746  0.3117  0.0366
39847DOD     C363362  28.836  21.241  11.319 -0.1380  0.2556  0.1289
39848DOD     C163363  20.676  10.549  28.010  0.0509  0.2119 -0.1806
39848DOD     C263364  21.119  10.527  28.078 -0.0401 -0.2657 -0.2493
39848DOD     C363365  21.336  10.183  28.318  0.3615  0.0888 -0.0321
39849DOD     C163366  23.962  20.075  14.425  0.4576  0.0791  0.0923
39849DOD     C263367  23.704  20.420  14.724  0.0038  0.2355 -0.0547
39849DOD     C363368  23.404  20.562  15.061  0.1213 -0.0001  0.3628
39850DOD     C163369   3.352  14.937   6.863 -0.1824 -0.0928 -0.1100
39850DOD     C263370   3.543  14.931   6.453  0.0762 -0.0800 -0.0594
39850DOD     C363371   3.511  14.840   6.005 -0.4848 -0.1247 -0.2141
39851DOD     C163372  17.584   1.870   0.889  0.0435 -0.1753 -0.1529
39851DOD     C263373  17.438   1.521   1.145 -0.1223 -0.1331 -0.1391
39851DOD     C363374  17.242   1.097   1.285 -0.0047 -0.0492  0.0459
39852DOD     C163375  23.777  16.081   0.243 -0.0276  0.4332  0.0868
39852DOD     C263376  24.201  15.964   0.359 -0.1481  0.3064 -0.2198
39852DOD     C363377  24.540  15.670   0.300  0.0871 -0.0333 -0.3286
39853DOD     C163378   3.643  21.518  25.821 -0.0361 -0.2084 -0.2860
39853DOD     C263379   3.236  21.448  25.620 -0.1232 -0.0151 -0.0981
39853DOD     C363380   2.790  21.395  25.540 -0.0236 -0.1675 -0.0717
39854DOD     C163381  14.112  12.214  28.687 -0.0013  0.1775 -0.1243
39854DOD     C263382  13.785  12.090  28.407 -0.0574 -0.2599 -0.1328
39854DOD     C363383  13.421  11.871  28.168 -0.1411 -0.1380  0.3136
39855DOD     C163384   2.807  15.328  13.062  0.2847  0.1545 -0.0955
39855DOD     C263385   2.654  14.888  13.170 -0.0052 -0.0946 -0.0902
39855DOD     C363386   2.396  14.579  12.994 -0.0094 -0.2037 -0.3244
39856DOD     C163387   8.819  20.432  16.112  0.0072 -0.1720  0.1688
39856DOD     C263388   8.917  20.883  16.047 -0.3433  0.0790  0.2806
39856DOD     C363389   8.574  21.166  16.036  0.0322  0.3722  0.0388
39857DOD     C163390  18.055  12.618  16.831 -0.4752  0.2647 -0.1897
39857DOD     C263391  18.557  12.745  16.835  0.3915 -0.0110  0.1696
39857DOD     C363392  18.975  12.555  16.836 -0.1328  0.1486  0.2214
39858DOD     C163393   4.787   9.707   9.117 -0.1498  0.0571 -0.1047
39858DOD     C263394   4.523   9.439   8.796 -0.1480  0.1011 -0.1212
39858DOD     C363395   4.111   9.294   8.678  0.1834  0.0326 -0.0653
39859DOD     C163396  14.775   9.600  10.584  0.1103  0.1029 -0.0766
39859DOD     C263397  14.612  10.030  10.446  0.0704  0.1402  0.2475
39859DOD     C363398  14.435  10.386  10.238 -0.1477 -0.0382  0.2414
39860DOD     C163399  21.470  10.532  26.861  0.3906 -0.1771  0.0387
39860DOD     C263400  21.289  10.182  27.150  0.0835 -0.5084 -0.0562
39860DOD     C363401  21.163   9.809  27.321  0.1264 -0.2056  0.3004
39861DOD     C163402  21.466  23.779  23.087 -0.0410  0.3348 -0.0202
39861DOD     C263403  21.784  24.146  23.182  0.2423  0.3072 -0.2712
39861DOD     C363404  21.878  24.586  23.371  0.0121 -0.5075  0.2746
39862DOD     C163405   1.003   7.491   9.842  0.2429  0.1234  0.2335
39862DOD     C263406   0.830   7.974   9.787  0.0727 -0.0709 -0.0244
39862DOD     C363407   0.595   8.332   9.642  0.5032 -0.2825 -0.4439
39863DOD     C163408  22.624  12.879  17.550 -0.1838 -0.0005  0.1424
39863DOD     C263409  22.974  12.657  17.766 -0.1436 -0.1268 -0.1053
39863DOD     C363410  23.307  12.456  18.015 -0.1881 -0.0564 -0.1911
39864DOD     C163411  18.097  13.341  25.266 -0.2722 -0.2463  0.0905
39864DOD     C263412  17.676  13.228  25.311 -0.3745  0.0457  0.1001
39864DOD     C363413  17.313  13.134  25.547 -0.1843  0.1124 -0.1873
39865DOD     C163414   7.685  13.457   7.572  0.0585 -0.0544 -0.1378
39865DOD     C263415   7.243  13.274   7.652  0.1223 -0.2015  0.0318
39865DOD     C363416   6.822  13.056   7.772  0.0906 -0.3386 -0.1244
39866DOD     C163417  11.079  23.194   5.766  0.1055 -0.2071 -0.0628
39866DOD     C263418  11.269  23.496   6.070  0.4064 -0.1484 -0.0886
39866DOD     C363419  11.574  23.740   6.290 -0.0672  0.1580  0.1603
39867DOD     C163420  12.291   4.246  25.760  0.0213 -0.0563 -0.1646
39867DOD     C263421  12.295   4.416  26.231 -0.0662  0.1783  0.1377
39867DOD     C363422  12.482   4.567  26.695  0.0354  0.1188  0.1284
39868DOD     C163423  25.636  23.897   3.470  0.0739 -0.0794  0.2510
39868DOD     C263424  25.636  23.587   3.120 -0.0798  0.0446  0.3231
39868DOD     C363425  25.842  23.156   3.054  0.0571  0.1446  0.2116
39869DOD     C163426  26.379  18.395  28.012  0.1280 -0.1479 -0.2034
39869DOD     C263427  26.506  18.798  28.243 -0.0652 -0.1876 -0.4204
39869DOD     C363428  26.556  19.064  28.599  0.2713  0.0396 -0.1432
39870DOD     C163429  19.147  11.378   7.664  0.1352  0.0441 -0.0595
39870DOD     C263430  19.501  11.459   8.017  0.1329  0.3623  0.2982
39870DOD     C363431  19.589  11.288   8.428  0.0094 -0.1392 -0.0662
39871DOD     C163432  21.863   2.049  11.876 -0.0717 -0.3389 -0.0788
39871DOD     C263433  21.916   2.493  11.955 -0.2076 -0.4734  0.1146
39871DOD     C363434  21.834   2.940  11.903 -0.3116  0.3647 -0.1575
39872DOD     C163435  28.035  27.567   1.637  0.1591  0.2496  0.1783
39872DOD     C263436  28.107  27.797   1.234 -0.3033  0.0775  0.0306
39872DOD     C363437  28.156  28.167   0.894 -0.0706 -0.2165 -0.1062
39873DOD     C163438  16.730  18.107   4.584 -0.1393  0.0209 -0.1273
39873DOD     C263439  16.411  18.054   4.878  0.1113  0.0578 -0.2236
39873DOD     C363440  16.041  17.894   5.086 -0.0062 -0.0317 -0.1728
39874DOD     C163441  13.850  13.343  28.872  0.1059  0.6219 -0.0167
39874DOD     C263442  14.178  13.590  28.657  0.2483  0.1712  0.1432
39874DOD     C363443  14.569  13.726  28.453 -0.1661  0.2263  0.3876
39875DOD     C163444  19.059  11.628  21.735  0.1212  0.1910  0.1210
39875DOD     C263445  18.575  11.683  21.841  0.0249  0.1248 -0.0819
39875DOD     C363446  18.182  11.884  21.759  0.0951 -0.1754 -0.1548
39876DOD     C163447  22.776  15.872  20.932 -0.1751  0.2116 -0.0318
39876DOD     C263448  22.658  16.081  20.589 -0.0219 -0.2148  0.1163
39876DOD     C363449  22.628  16.551  20.420  0.0847 -0.1215  0.0752
39877DOD     C163450  16.981  23.216  20.675  0.2512  0.0175  0.0001
39877DOD     C263451  16.585  23.456  20.731  0.1557 -0.0587 -0.1236
39877DOD     C363452  16.549  23.902  20.665  0.0772 -0.1449 -0.1931
39878DOD     C163453  15.149  18.789  13.599  0.1060 -0.1564  0.1644
39878DOD     C263454  15.154  18.490  13.287 -0.1017 -0.2364  0.2428
39878DOD     C363455  15.285  18.083  13.134 -0.0503  0.2399  0.0008
39879DOD     C163456  12.370  19.816  10.337  0.1463 -0.0104 -0.2626
39879DOD     C263457  12.402  20.173  10.034  0.1188 -0.1576  0.1048
39879DOD     C363458  12.401  20.605  10.236 -0.0143  0.1134  0.0980
39880DOD     C163459  15.841   0.067   4.192  0.1474  0.0669  0.0683
39880DOD     C263460  15.505  30.133   4.009  0.3752  0.0454  0.0249
39880DOD     C363461  15.163  29.976   4.245 -0.5000  0.2145 -0.1577
39881DOD     C163462  21.938  29.925  17.781  0.0816  0.1600  0.1494
39881DOD     C263463  22.272  29.614  17.965 -0.1623  0.1846 -0.0157
39881DOD     C363464  22.629  29.318  17.810  0.1144  0.2132 -0.0427
39882DOD     C163465   6.224   6.038  18.044 -0.1528  0.0603 -0.0591
39882DOD     C263466   5.918   6.354  17.961  0.2244  0.2284  0.1158
39882DOD     C363467   5.678   6.712  17.673  0.3301 -0.2090 -0.1093
39883DOD     C163468  30.172  14.615  19.376  0.4034 -0.4806  0.2101
39883DOD     C263469  29.791  14.542  19.044  0.0053  0.2117  0.1337
39883DOD     C363470  29.414  14.467  18.734  0.0649  0.0634  0.1454
39884DOD     C163471  23.032  27.064  15.080  0.2208  0.1080 -0.0732
39884DOD     C263472  22.817  26.924  15.496  0.0167 -0.1118  0.3708
39884DOD     C363473  22.736  26.661  15.842  0.0987 -0.0425  0.2073
39885DOD     C163474  24.867  12.194  21.442  0.0261  0.4226  0.0296
39885DOD     C263475  24.458  12.043  21.250 -0.0647  0.0642  0.2589
39885DOD     C363476  24.015  11.907  21.065  0.2805 -0.2379 -0.0756
39886DOD     C163477   4.197   2.457  13.720 -0.0260  0.0321  0.0611
39886DOD     C263478   4.265   2.193  13.326 -0.0465 -0.0541 -0.1887
39886DOD     C363479   4.459   1.778  13.180  0.1213  0.0493 -0.0420
39887DOD     C163480  21.772  14.990  26.872  0.1813 -0.3377  0.5248
39887DOD     C263481  22.244  14.862  26.949 -0.1535 -0.1794 -0.2274
39887DOD     C363482  22.490  15.027  27.335  0.0642  0.1224  0.0887
39888DOD     C163483   6.469   4.343  20.839  0.2930  0.4687  0.0466
39888DOD     C263484   6.233   4.419  21.237 -0.1792 -0.0562  0.0393
39888DOD     C363485   5.858   4.451  21.461 -0.2112  0.2386  0.1414
39889DOD     C163486  25.123  25.635  25.451  0.3903  0.0706  0.0338
39889DOD     C263487  24.770  25.527  25.168  0.0632  0.1432  0.0057
39889DOD     C363488  24.427  25.347  24.892  0.0528  0.2167  0.0320
39890DOD     C163489   8.834   7.537  16.500  0.2281  0.1220 -0.1273
39890DOD     C263490   9.084   7.318  16.817  0.1112  0.2706 -0.1280
39890DOD     C363491   9.323   7.119  17.178 -0.0946 -0.3216 -0.3649
39891DOD     C163492  24.494   2.353   7.122 -0.0029 -0.0600  0.1817
39891DOD     C263493  24.741   1.950   6.944  0.0778  0.0882 -0.0108
39891DOD     C363494  25.049   1.582   7.057 -0.0113  0.0790 -0.2319
39892DOD     C163495   3.097  14.541   8.623 -0.0376  0.0678 -0.0285
39892DOD     C263496   2.888  14.153   8.422  0.0028  0.1553 -0.1141
39892DOD     C363497   2.851  13.781   8.136  0.0309 -0.0920 -0.3327
39893DOD     C163498  19.128  26.710  11.995 -0.0394 -0.3506  0.2485
39893DOD     C263499  18.775  26.933  12.025  0.1525 -0.1196 -0.2239
39893DOD     C363500  18.684  27.334  12.255  0.2586  0.1934 -0.0775
39894DOD     C163501  19.793  29.656   7.583 -0.1515  0.2767  0.1742
39894DOD     C263502  19.695  29.808   7.156  0.0040 -0.1255  0.2700
39894DOD     C363503  19.406  29.626   6.852  0.2309 -0.0130  0.0219
39895DOD     C163504  18.034  29.935  25.563 -0.1959 -0.1119  0.1021
39895DOD     C263505  18.015  30.170  25.164 -0.0767  0.0661 -0.0566
39895DOD     C363506  18.147   0.203  25.031  0.0339  0.0769 -0.0771
39896DOD     C163507  30.283  19.347  28.729  0.1715  0.0775  0.0249
39896DOD     C263508  29.904  19.539  28.844  0.1348  0.0033  0.1031
39896DOD     C363509  29.478  19.653  28.703 -0.2292 -0.2381 -0.2330
39897DOD     C163510   7.808  17.999  26.594  0.2439  0.0641  0.1086
39897DOD     C263511   7.671  18.370  26.818  0.3336 -0.0399  0.2224
39897DOD     C363512   7.739  18.829  27.026 -0.1698 -0.0411  0.0339
39898DOD     C163513   5.343  27.536  24.883 -0.0049 -0.4642  0.0265
39898DOD     C263514   4.896  27.522  24.914 -0.1082  0.0313  0.0089
39898DOD     C363515   4.437  27.430  25.088 -0.1426  0.0243 -0.1778
39899DOD     C163516   9.600  26.121   8.527 -0.1556  0.2368 -0.1381
39899DOD     C263517   9.122  26.092   8.551  0.0726 -0.4150  0.0626
39899DOD     C363518   8.755  26.193   8.349 -0.0467  0.0508  0.0603
39900DOD     C163519  24.459   7.286  14.619 -0.0212  0.0658 -0.2640
39900DOD     C263520  24.076   7.030  14.678  0.0496  0.1029 -0.0810
39900DOD     C363521  23.907   6.976  15.089 -0.0563  0.1674 -0.1033
39901DOD     C163522  15.834   7.625  12.869  0.0538 -0.0753 -0.2198
39901DOD     C263523  15.846   7.859  12.403  0.0216 -0.1397 -0.3371
39901DOD     C363524  15.741   7.782  11.945 -0.2077 -0.2042 -0.1401
39902DOD     C163525  22.860  12.411  23.813 -0.0730  0.1656  0.2404
39902DOD     C263526  22.582  12.539  24.137  0.3405  0.1120 -0.3788
39902DOD     C363527  22.611  12.355  24.594 -0.0455  0.0569 -0.3341
39903DOD     C163528  28.930   1.567  26.725  0.0798 -0.0634  0.2321
39903DOD     C263529  29.275   1.647  26.395  0.0493  0.0470 -0.1185
39903DOD     C363530  29.400   2.049  26.220 -0.2506 -0.0535 -0.1537
39904DOD     C163531  24.564  21.660  15.531  0.0023 -0.1175 -0.0598
39904DOD     C263532  24.421  21.955  15.859  0.3909  0.2426  0.0831
39904DOD     C363533  24.281  22.141  16.227 -0.1417  0.0856  0.0143
39905DOD     C163534  18.207  11.057  13.533 -0.0283  0.3368  0.4650
39905DOD     C263535  17.922  10.875  13.848 -0.4773  0.3074 -0.1173
39905DOD     C363536  17.543  10.662  13.918  0.0871  0.0410 -0.0737
39906DOD     C163537  12.615  20.655  20.360 -0.1195  0.1182 -0.2683
39906DOD     C263538  12.492  21.019  20.133 -0.0301  0.0499  0.1664
39906DOD     C363539  12.338  21.338  20.423 -0.1720 -0.0084  0.0257
39907DOD     C163540  12.025   3.914  29.413  0.1900  0.0304  0.0812
39907DOD     C263541  12.389   4.217  29.459 -0.1444  0.1994 -0.0305
39907DOD     C363542  12.676   4.554  29.619 -0.2528  0.1225  0.0825
39908DOD     C163543   9.109  15.413  29.077  0.1760 -0.1906 -0.3307
39908DOD     C263544   9.365  15.103  29.356 -0.2895  0.2722 -0.3818
39908DOD     C363545   9.628  14.689  29.417 -0.1825 -0.0556 -0.1464
39909DOD     C163546   0.714  25.278   8.219  0.0488  0.1679 -0.0101
39909DOD     C263547   1.103  25.057   8.197  0.2774  0.0475  0.3018
39909DOD     C363548   1.196  24.656   8.381 -0.1035 -0.1869 -0.2855
39910DOD     C163549  18.352   8.050  10.672 -0.0721  0.1471  0.0472
39910DOD     C263550  18.769   8.060  10.883 -0.2044  0.0915  0.1541
39910DOD     C363551  19.169   8.234  10.903 -0.1444  0.0032  0.1468
39911DOD     C163552  11.281  16.541  10.358 -0.0037  0.0628 -0.0772
39911DOD     C263553  11.470  16.762   9.998 -0.0255 -0.1301  0.1960
39911DOD     C363554  11.844  16.852   9.836  0.0206  0.0779 -0.0335
39912DOD     C163555  20.671   4.864   2.207  0.0003 -0.0036  0.2911
39912DOD     C263556  20.294   4.851   2.546 -0.4833 -0.0725  0.1853
39912DOD     C363557  19.920   4.928   2.830 -0.0305  0.0506  0.0911
39913DOD     C163558  23.481  17.339   7.005 -0.3495  0.0171 -0.0612
39913DOD     C263559  23.841  17.213   7.249  0.1998  0.2124 -0.0443
39913DOD     C363560  24.271  17.061   7.125 -0.2705 -0.2876 -0.1935
39914DOD     C163561  19.151  23.345  18.263  0.0051  0.3366  0.1483
39914DOD     C263562  19.550  23.180  18.027  0.0070  0.1887  0.1689
39914DOD     C363563  19.859  23.182  17.700  0.1615 -0.0443 -0.3082
39915DOD     C163564  24.128  18.426   8.553 -0.4116  0.1470  0.2788
39915DOD     C263565  24.021  18.823   8.295  0.2606  0.1331  0.0375
39915DOD     C363566  24.032  19.264   8.194 -0.1530  0.0531  0.2399
39916DOD     C163567  11.026  11.566  12.857 -0.1320 -0.1449 -0.0214
39916DOD     C263568  11.428  11.303  12.712  0.4237 -0.0238 -0.0911
39916DOD     C363569  11.532  10.818  12.625  0.1436 -0.0077  0.1111
39917DOD     C163570  20.295  20.132   0.174 -0.3349  0.0550 -0.2659
39917DOD     C263571  20.150  19.724   0.067 -0.0285  0.0106  0.2933
39917DOD     C363572  20.064  19.300  30.221  0.2995 -0.2409 -0.3043
39918DOD     C163573  20.064  22.142   4.117  0.2172  0.0611  0.0598
39918DOD     C263574  20.452  22.135   3.907 -0.0526  0.0114  0.0973
39918DOD     C363575  20.891  22.240   3.884 -0.1255 -0.0782  0.2380
39919DOD     C163576   3.730  25.201  13.384  0.0049  0.0853 -0.0158
39919DOD     C263577   3.706  25.615  13.162 -0.0720 -0.1443  0.1801
39919DOD     C363578   3.685  26.119  13.156  0.0778  0.1751  0.1032
39920DOD     C163579  22.484  25.407  27.235  0.4204 -0.0219 -0.3975
39920DOD     C263580  22.852  25.654  27.314 -0.1077 -0.1793 -0.0388
39920DOD     C363581  23.144  25.789  27.683 -0.1758  0.0589 -0.1660
39921DOD     C163582  19.230  19.630   9.148  0.2869  0.0160  0.0789
39921DOD     C263583  19.046  19.170   9.112  0.2362 -0.1942  0.1281
39921DOD     C363584  18.857  18.805   8.956 -0.0941 -0.0505  0.0998
39922DOD     C163585  22.436  21.029   1.832 -0.2381  0.0424 -0.0889
39922DOD     C263586  22.253  20.911   2.255 -0.0111 -0.0273 -0.1892
39922DOD     C363587  22.404  20.515   2.487  0.1297 -0.1936 -0.1106
39923DOD     C163588  10.300  16.595  14.249  0.0463 -0.0467  0.2488
39923DOD     C263589  10.612  16.908  14.456  0.0424  0.0010 -0.0183
39923DOD     C363590  10.769  17.298  14.651 -0.1736  0.1373 -0.0370
39924DOD     C163591  23.863   2.310  24.732 -0.2766 -0.0926  0.3273
39924DOD     C263592  23.397   2.299  24.568  0.0724 -0.0181  0.1225
39924DOD     C363593  23.045   2.067  24.577  0.1366 -0.0181 -0.2178
39925DOD     C163594  16.246  15.794  13.537 -0.0228  0.3462  0.0299
39925DOD     C263595  16.342  15.713  13.962  0.1599  0.0430 -0.0847
39925DOD     C363596  16.437  15.557  14.373  0.1514  0.0282 -0.0274
39926DOD     C163597  24.966  10.918  24.437 -0.1061 -0.0193 -0.2721
39926DOD     C263598  24.640  11.161  24.649  0.3720 -0.1055 -0.2244
39926DOD     C363599  24.505  11.327  25.048 -0.0307 -0.3533  0.2870
39927DOD     C163600   6.787  17.812   9.435 -0.0195 -0.3029 -0.1968
39927DOD     C263601   7.178  18.029   9.571  0.2242  0.1376 -0.1288
39927DOD     C363602   7.129  18.473   9.550 -0.2144  0.1244  0.1520
39928DOD     C163603  19.355  27.859   2.837  0.0720 -0.1143  0.4805
39928DOD     C263604  19.139  28.124   2.470 -0.0316 -0.3930  0.1936
39928DOD     C363605  19.181  28.160   2.023 -0.1696  0.1724 -0.1777
39929DOD     C163606  18.026   0.112  25.583  0.0134 -0.1627  0.1581
39929DOD     C263607  18.145   0.581  25.477  0.0652  0.0556 -0.0085
39929DOD     C363608  18.148   1.000  25.372 -0.4307 -0.3853  0.2401
39930DOD     C163609   8.349   3.513  28.142 -0.1371  0.3522  0.0329
39930DOD     C263610   8.714   3.334  28.350  0.0461  0.3042 -0.1225
39930DOD     C363611   9.089   3.538  28.502 -0.0132 -0.0493  0.1629
39931DOD     C163612  10.557  26.911  24.280 -0.0422  0.2398 -0.1032
39931DOD     C263613  10.720  26.634  23.984 -0.1200  0.0802  0.0953
39931DOD     C363614  10.887  26.233  24.004 -0.0959  0.1407  0.1171
39932DOD     C163615   1.645  22.883   0.566  0.1096 -0.2256 -0.4339
39932DOD     C263616   1.635  22.722   0.978  0.0410 -0.0540  0.1205
39932DOD     C363617   1.512  22.617   1.437 -0.2180 -0.1753 -0.0987
39933DOD     C163618   5.158  10.167  24.423 -0.2888 -0.0846  0.1583
39933DOD     C263619   5.347  10.592  24.498  0.1326 -0.1971 -0.0621
39933DOD     C363620   5.618  10.969  24.511 -0.1634 -0.1464  0.2224
39934DOD     C163621  15.133  29.791   5.775 -0.1077 -0.0272  0.0801
39934DOD     C263622  15.122  29.431   5.565  0.1966  0.1758 -0.3241
39934DOD     C363623  15.054  29.378   5.113  0.2408  0.4886  0.0559
39935DOD     C163624  11.544   3.662  20.098 -0.0820  0.2425 -0.0378
39935DOD     C263625  11.695   3.450  20.525 -0.1047  0.1982 -0.0421
39935DOD     C363626  11.636   3.308  20.979  0.2794 -0.0559 -0.0472
39936DOD     C163627  21.524   0.653   3.452  0.0476  0.1122  0.0264
39936DOD     C263628  21.870   0.926   3.566  0.0602  0.0921 -0.1072
39936DOD     C363629  22.132   1.194   3.923 -0.1373 -0.2160  0.1052
39937DOD     C163630  22.750  27.473   4.733  0.0019 -0.0995  0.2264
39937DOD     C263631  22.779  27.428   5.163 -0.1382  0.2299  0.1210
39937DOD     C363632  22.571  27.568   5.597  0.1422 -0.0035  0.2562
39938DOD     C163633   4.819  11.833   6.846 -0.3451  0.4422  0.0143
39938DOD     C263634   5.163  11.789   6.547 -0.1634  0.2733 -0.1506
39938DOD     C363635   5.399  11.485   6.347 -0.2911  0.1615  0.0027
39939DOD     C163636  27.155  24.710  26.125 -0.1198  0.1020 -0.1704
39939DOD     C263637  27.258  24.223  26.173  0.2516  0.2003  0.2317
39939DOD     C363638  27.407  23.737  26.231  0.1340  0.0297 -0.0904
39940DOD     C163639   8.880   0.175   1.742  0.0522 -0.3813  0.4271
39940DOD     C263640   8.833   0.661   1.750 -0.0489 -0.1384  0.2385
39940DOD     C363641   8.863   1.086   1.907 -0.0919  0.2435 -0.1146
39941DOD     C163642   1.753  18.647   2.733  0.0986 -0.2186  0.0829
39941DOD     C263643   1.727  18.180   2.676  0.2693 -0.1246 -0.1192
39941DOD     C363644   1.982  17.772   2.539  0.0229 -0.0939  0.0314
39942DOD     C163645   7.695  22.393   5.417  0.0509 -0.0635  0.0354
39942DOD     C263646   7.779  22.061   5.113  0.1483 -0.1747  0.0892
39942DOD     C363647   7.936  21.643   5.031 -0.1585 -0.4464 -0.2259
39943DOD     C163648   1.401  28.348   1.182 -0.1918  0.0856  0.0301
39943DOD     C263649   1.745  28.469   0.862  0.0275 -0.0551  0.1818
39943DOD     C363650   2.045  28.452   0.519 -0.4330 -0.2411 -0.2406
39944DOD     C163651   4.873  17.354  10.104 -0.0252  0.0113 -0.1960
39944DOD     C263652   5.306  17.142  10.268 -0.2363  0.1029 -0.1931
39944DOD     C363653   5.764  17.015  10.480  0.2038 -0.0875 -0.0336
39945DOD     C163654   4.003  28.668  24.418 -0.2236 -0.0810  0.3033
39945DOD     C263655   3.857  29.005  24.120 -0.0998 -0.0456  0.2650
39945DOD     C363656   3.435  29.060  23.882  0.0418  0.1826  0.0381
39946DOD     C163657  21.219  15.133   3.937 -0.2778  0.0267  0.0202
39946DOD     C263658  21.337  15.065   4.389 -0.2478  0.0250  0.0102
39946DOD     C363659  21.133  15.134   4.732 -0.1933  0.1314 -0.0889
39947DOD     C163660  27.406   6.126   5.581 -0.1187  0.0177 -0.0300
39947DOD     C263661  27.892   6.163   5.711 -0.0004 -0.1014 -0.0803
39947DOD     C363662  28.306   6.444   5.546 -0.0686 -0.1364  0.2847
39948DOD     C163663   8.744  12.590   5.994  0.1765 -0.0813  0.0569
39948DOD     C263664   8.444  12.214   5.932 -0.0408  0.2369  0.2110
39948DOD     C363665   8.262  11.805   6.096 -0.1787  0.1597  0.1881
39949DOD     C163666   9.431  21.253   2.077 -0.1463  0.3766  0.0564
39949DOD     C263667   9.412  20.987   1.632  0.0864  0.0370  0.0484
39949DOD     C363668   9.168  21.019   1.249 -0.0010  0.0371 -0.1673
39950DOD     C163669  18.222  17.546  22.607  0.1918  0.0905  0.2735
39950DOD     C263670  18.139  17.916  22.311  0.0817  0.1945 -0.0677
39950DOD     C363671  18.080  18.409  22.420 -0.0525 -0.2281  0.1395
39951DOD     C163672  19.057  25.521  29.889  0.0518  0.0949 -0.0444
39951DOD     C263673  19.033  25.953  29.858  0.2031  0.2481  0.2062
39951DOD     C363674  18.871  26.285  29.566  0.0989 -0.0185  0.1352
39952DOD     C163675  29.012   4.825  15.838  0.1008  0.1329 -0.0922
39952DOD     C263676  29.272   5.175  15.971 -0.1939  0.1590 -0.1918
39952DOD     C363677  29.280   5.618  15.996  0.0888  0.1224  0.3108
39953DOD     C163678  24.793  29.346  27.293 -0.4125  0.2304 -0.0483
39953DOD     C263679  24.494  29.028  27.463 -0.1358 -0.1668 -0.4379
39953DOD     C363680  24.275  28.865  27.774  0.0254  0.0623 -0.2526
39954DOD     C163681  15.651   4.776  21.059 -0.0221 -0.0176  0.1490
39954DOD     C263682  15.991   4.942  21.347  0.3834 -0.4125  0.1047
39954DOD     C363683  16.398   5.263  21.317 -0.0216  0.1354 -0.0793
39955DOD     C163684  24.085   4.111   3.999  0.0408 -0.2289 -0.3679
39955DOD     C263685  24.301   4.132   4.421 -0.3024  0.1288  0.1021
39955DOD     C363686  24.462   3.974   4.849  0.2284  0.0892  0.2079
39956DOD     C163687  28.654  17.940  26.924  0.2390  0.2339  0.3108
39956DOD     C263688  28.214  17.932  26.967 -0.3071  0.2255 -0.3402
39956DOD     C363689  27.811  18.226  27.052  0.1596 -0.0267  0.0495
39957DOD     C163690  11.914  13.425  10.808 -0.1136 -0.2131 -0.0924
39957DOD     C263691  12.339  13.494  10.997  0.0854  0.1296  0.1747
39957DOD     C363692  12.789  13.469  11.144  0.1790  0.0176  0.3119
39958DOD     C163693   7.590  16.316  13.253  0.1293  0.1869  0.0850
39958DOD     C263694   7.844  16.649  13.074  0.0819  0.2106 -0.0612
39958DOD     C363695   7.961  17.016  12.828 -0.2836 -0.1913 -0.0275
39959DOD     C163696  23.435   5.915  23.723 -0.1245 -0.0402 -0.0956
39959DOD     C263697  23.110   6.146  23.962  0.3143  0.1074 -0.2208
39959DOD     C363698  22.750   6.454  23.917  0.1855 -0.1830  0.0667
39960DOD     C163699  24.050  29.614  14.422 -0.1858  0.2030  0.2187
39960DOD     C263700  24.133  29.683  14.902  0.0168  0.0363  0.1191
39960DOD     C363701  24.038  29.609  15.350  0.2242 -0.0942  0.1238
39961DOD     C163702   6.413  21.397  14.686 -0.2873  0.1684  0.0401
39961DOD     C263703   6.327  21.272  15.109 -0.0222  0.0102  0.3396
39961DOD     C363704   6.443  21.036  15.503  0.0981  0.0264  0.0115
39962DOD     C163705   1.128   3.232  28.647  0.2743  0.0367 -0.1781
39962DOD     C263706   1.434   2.891  28.691  0.0079  0.0331  0.0121
39962DOD     C363707   1.537   2.449  28.628 -0.0391  0.0824 -0.0306
39963DOD     C163708  26.670  25.558  12.847 -0.1086 -0.1875  0.0238
39963DOD     C263709  27.041  25.517  13.185 -0.0738 -0.1955  0.3680
39963DOD     C363710  27.243  25.701  13.530 -0.1222 -0.1129  0.1025
39964DOD     C163711  16.221  24.063   5.685  0.0762  0.0342  0.3527
39964DOD     C263712  16.515  23.972   5.327  0.2627  0.2490  0.0887
39964DOD     C363713  16.705  23.550   5.341  0.0066  0.0755 -0.1185
39965DOD     C163714   8.572   9.230  21.960  0.0881  0.3293  0.0549
39965DOD     C263715   8.259   9.360  22.308 -0.2273 -0.1229  0.0940
39965DOD     C363716   8.141   9.336  22.716  0.0674 -0.1654 -0.1573
39966DOD     C163717   6.524  17.388   0.970  0.2095  0.0726 -0.0135
39966DOD     C263718   6.689  17.554   0.611 -0.5004 -0.1926  0.0203
39966DOD     C363719   7.066  17.687   0.303  0.4837 -0.2512 -0.0966
39967DOD     C163720   0.114   4.418   1.280  0.3156 -0.4900  0.1535
39967DOD     C263721  30.257   4.001   1.294  0.1122 -0.2105 -0.1555
39967DOD     C363722  30.103   3.690   1.028  0.0315  0.0984 -0.1911
39968DOD     C163723  13.835   0.649   5.498  0.1007 -0.0011 -0.0434
39968DOD     C263724  13.514   0.470   5.247 -0.0713 -0.1680  0.2195
39968DOD     C363725  13.140   0.307   5.003 -0.0872  0.1829 -0.0574
39969DOD     C163726  11.474   6.235   9.423 -0.2167  0.1622 -0.0159
39969DOD     C263727  11.592   6.205   8.970 -0.0528 -0.0401 -0.0041
39969DOD     C363728  11.968   6.234   8.634  0.1359 -0.2547 -0.1102
39970DOD     C163729  28.068   8.055   1.726  0.0396 -0.0679 -0.1753
39970DOD     C263730  27.971   8.081   2.158 -0.0574 -0.2805 -0.1968
39970DOD     C363731  27.617   8.128   2.474 -0.1026  0.1893 -0.0381
39971DOD     C163732   2.264  27.982  13.263 -0.2735 -0.2285  0.1279
39971DOD     C263733   2.170  27.746  12.861  0.2534 -0.1041  0.0865
39971DOD     C363734   1.940  27.416  12.654 -0.1225  0.1494 -0.0408
39972DOD     C163735   7.370  22.081   4.192  0.2903 -0.1317 -0.1222
39972DOD     C263736   7.240  22.508   4.324  0.2825  0.1470 -0.0729
39972DOD     C363737   6.975  22.640   4.696  0.0471 -0.1672  0.0622
39973DOD     C163738  12.335  21.501  22.183  0.0737  0.0427 -0.0531
39973DOD     C263739  12.047  21.104  22.206 -0.2309 -0.0917  0.3534
39973DOD     C363740  11.704  20.935  22.468 -0.0523 -0.0192 -0.0203
39974DOD     C163741  24.105  12.706  21.840  0.0508 -0.2155 -0.0701
39974DOD     C263742  23.738  12.648  21.632  0.0112  0.1613  0.0961
39974DOD     C363743  23.348  12.601  21.387 -0.1455 -0.1701 -0.1079
39975DOD     C163744   8.515   8.783  28.916 -0.1026 -0.0224 -0.2578
39975DOD     C263745   8.859   8.957  29.139 -0.2222 -0.1901  0.0252
39975DOD     C363746   9.051   8.999  29.595  0.3927 -0.1277 -0.0692
39976DOD     C163747  19.766   2.987  27.700  0.3582  0.0812 -0.4064
39976DOD     C263748  20.064   2.620  27.688  0.0137 -0.0655  0.3218
39976DOD     C363749  20.399   2.352  27.720  0.1229  0.1534 -0.2999
39977DOD     C163750  19.023  14.909   7.667 -0.0087 -0.3002  0.0221
39977DOD     C263751  18.831  15.266   7.884 -0.1472 -0.0225 -0.0777
39977DOD     C363752  18.649  15.117   8.320 -0.1607  0.3365  0.2670
39978DOD     C163753   5.940   2.661  17.970  0.4991  0.0705 -0.1684
39978DOD     C263754   5.784   2.260  17.980  0.1715 -0.0763  0.2543
39978DOD     C363755   5.837   1.770  17.996  0.1718  0.1712  0.1313
39979DOD     C163756   6.900  22.786  20.123  0.0427 -0.0219  0.0188
39979DOD     C263757   6.862  22.913  19.657  0.4088 -0.2113  0.0922
39979DOD     C363758   6.716  23.231  19.375  0.3657 -0.0195  0.1245
39980DOD     C163759   8.078  12.318  17.590 -0.0496 -0.1603  0.1619
39980DOD     C263760   8.026  11.832  17.644 -0.1667 -0.0801  0.2135
39980DOD     C363761   8.218  11.441  17.836 -0.2507 -0.3302 -0.1859
39981DOD     C163762  10.596   1.241  16.466 -0.2680 -0.1321  0.1297
39981DOD     C263763  10.218   1.087  16.206  0.0470 -0.1373 -0.1679
39981DOD     C363764   9.771   1.123  16.100  0.1212 -0.0452  0.0332
39982DOD     C163765  10.823  11.435   2.126  0.3420  0.3122  0.0378
39982DOD     C263766  10.491  11.713   2.110 -0.0152 -0.1016  0.0208
39982DOD     C363767  10.209  12.113   2.074 -0.0116 -0.3512 -0.2099
39983DOD     C163768  30.103  27.281  13.927  0.1680 -0.4254  0.0395
39983DOD     C263769  30.286  27.425  13.574  0.2298 -0.2504  0.0165
39983DOD     C363770   0.054  27.505  13.114 -0.1836 -0.0021 -0.1019
39984DOD     C163771   4.244  27.241  24.735 -0.0202  0.1075  0.0658
39984DOD     C263772   4.529  27.053  24.358 -0.1757  0.1347 -0.1671
39984DOD     C363773   4.938  26.914  24.210 -0.0774 -0.0119 -0.1963
39985DOD     C163774  24.378   1.084  21.547 -0.0007  0.1709  0.0172
39985DOD     C263775  24.583   0.682  21.597  0.1628 -0.1040 -0.1186
39985DOD     C363776  24.447   0.258  21.649  0.0195  0.0967 -0.0962
39986DOD     C163777   5.773   4.763  13.609 -0.0734  0.0287  0.0394
39986DOD     C263778   5.656   4.927  13.138  0.3596 -0.0642  0.1306
39986DOD     C363779   5.508   5.168  12.755  0.0033 -0.0785 -0.2916
39987DOD     C163780   6.196  24.779  14.214  0.0596  0.5038  0.1823
39987DOD     C263781   5.910  24.826  13.801  0.1324  0.1346 -0.1824
39987DOD     C363782   5.744  24.373  13.743 -0.0506  0.0405 -0.0150
39988DOD     C163783  28.031  21.485  22.776  0.0612 -0.1933 -0.0837
39988DOD     C263784  27.910  21.511  23.238 -0.2050  0.0798 -0.0227
39988DOD     C363785  27.780  21.179  23.580 -0.1657 -0.1171  0.0669
39989DOD     C163786  15.774   0.007  15.419 -0.1077 -0.2976  0.0641
39989DOD     C263787  15.895  29.880  15.263  0.1457  0.2555  0.0875
39989DOD     C363788  16.278  29.590  15.151 -0.1468  0.0719 -0.4681
39990DOD     C163789  27.298  15.590   1.292  0.0952 -0.1174 -0.1748
39990DOD     C263790  26.838  15.554   1.268 -0.0510  0.1488 -0.1691
39990DOD     C363791  26.441  15.744   1.090  0.0858 -0.0343 -0.4146
39991DOD     C163792  13.767  29.254  18.980  0.0989  0.3617  0.2006
39991DOD     C263793  13.941  29.660  19.102  0.2889  0.0058  0.1543
39991DOD     C363794  13.743  30.064  19.041  0.2175  0.1331  0.1340
39992DOD     C163795  25.579   0.589  27.669  0.1611  0.3624 -0.1433
39992DOD     C263796  25.419   0.911  27.301 -0.1946 -0.2475 -0.0471
39992DOD     C363797  25.779   1.225  27.090 -0.0411  0.1434 -0.2581
39993DOD     C163798   7.340  16.603  21.121 -0.2531  0.1274  0.3036
39993DOD     C263799   7.244  16.280  20.804 -0.1076 -0.1177 -0.2543
39993DOD     C363800   7.155  15.861  20.680  0.0521 -0.1274  0.1400
39994DOD     C163801  16.699  15.479  20.512  0.0538  0.2405  0.1086
39994DOD     C263802  16.856  15.630  20.071 -0.0415  0.2667  0.2113
39994DOD     C363803  17.166  15.889  19.849 -0.1360 -0.1555  0.2448
39995DOD     C163804   8.938   1.448   2.166 -0.2020  0.1135  0.0830
39995DOD     C263805   8.625   1.473   1.766 -0.4521 -0.0216  0.1880
39995DOD     C363806   8.355   1.418   1.394 -0.1203 -0.0280  0.1208
39996DOD     C163807  27.941  16.913  13.987  0.0288  0.1088 -0.0547
39996DOD     C263808  27.515  17.068  13.892  0.0258 -0.0388  0.1651
39996DOD     C363809  27.080  17.132  13.906 -0.0401 -0.1374 -0.1667
39997DOD     C163810   9.261   4.968  26.004  0.0828  0.2779 -0.2172
39997DOD     C263811   9.673   5.195  26.067 -0.2305 -0.0585 -0.0617
39997DOD     C363812   9.831   5.405  26.447  0.1486 -0.0003  0.2479
39998DOD     C163813   9.094  29.708  10.969  0.1445 -0.0571  0.0678
39998DOD     C263814   9.399  29.333  11.099  0.0584  0.1187  0.0104
39998DOD     C363815   9.776  29.229  11.331 -0.0163 -0.1819 -0.0063
39999DOD     C163816  30.326  25.986  18.449  0.2245 -0.4256  0.2229
39999DOD     C263817   0.176  25.592  18.448 -0.1059  0.1366 -0.0545
39999DOD     C363818   0.532  25.380  18.197  0.0659  0.2837  0.2775
40000DOD     C163819   9.285  27.108  13.249  0.1499  0.0074 -0.1019
40000DOD     C263820   9.507  27.426  13.015  0.0063 -0.1219  0.1316
40000DOD     C363821   9.702  27.440  12.641 -0.2354  0.0171 -0.1547
40001DOD     C163822  14.903   1.676  16.068 -0.0749  0.0905 -0.1933
40001DOD     C263823  14.526   1.531  16.259 -0.1055  0.0277  0.0664
40001DOD     C363824  14.366   1.184  16.545  0.0753  0.0508 -0.2734
40002DOD     C163825  11.493   1.912  20.477 -0.2321  0.1199 -0.0929
40002DOD     C263826  11.953   1.866  20.300  0.1882 -0.3195 -0.3813
40002DOD     C363827  12.392   1.641  20.220  0.1475  0.0316 -0.0219
40003DOD     C163828  24.010   7.419   5.430  0.0001  0.1308 -0.0692
40003DOD     C263829  23.809   7.133   5.745 -0.0354 -0.0275  0.1022
40003DOD     C363830  23.601   6.735   5.863 -0.0829  0.1651 -0.0494
40004DOD     C163831  23.810  27.870   2.202 -0.1049  0.2177 -0.0863
40004DOD     C263832  23.652  27.697   2.608  0.0561  0.0039 -0.1496
40004DOD     C363833  23.210  27.754   2.702  0.0897  0.2057 -0.0549
40005DOD     C163834  26.544  21.534   2.570  0.0631 -0.1198 -0.0985
40005DOD     C263835  26.898  21.438   2.812 -0.1644  0.0722 -0.0975
40005DOD     C363836  27.031  21.561   3.315 -0.0457 -0.2342  0.0486
40006DOD     C163837   3.977  21.923   6.715 -0.1278 -0.2120 -0.4914
40006DOD     C263838   4.226  21.961   6.306 -0.2344 -0.1445  0.0197
40006DOD     C363839   4.330  22.113   5.843  0.0112 -0.0985  0.2848
40007DOD     C163840  12.494  29.841  27.453 -0.0062  0.2179 -0.2560
40007DOD     C263841  12.396  29.446  27.597 -0.3817  0.0268  0.2844
40007DOD     C363842  12.345  29.074  27.828 -0.2984 -0.0223 -0.0048
40008DOD     C163843  28.186  13.868  18.781  0.0867  0.0277  0.1265
40008DOD     C263844  27.828  13.669  18.985 -0.2206  0.2418  0.0237
40008DOD     C363845  27.358  13.704  18.893 -0.0618  0.3184  0.2068
40009DOD     C163846   7.856   3.036  22.085  0.2067  0.0170 -0.1448
40009DOD     C263847   8.175   2.716  22.184  0.3101  0.2002  0.5101
40009DOD     C363848   8.181   2.260  22.298  0.2119  0.0687 -0.1289
40010DOD     C163849   0.904   4.951   6.699  0.1437  0.1099 -0.0127
40010DOD     C263850   0.783   5.145   7.105 -0.2016 -0.4192  0.0679
40010DOD     C363851   0.535   5.336   7.478  0.2742  0.0970  0.0877
40011DOD     C163852   2.448  28.438   6.582 -0.0488 -0.0642 -0.2368
40011DOD     C263853   2.443  28.070   6.263 -0.0559 -0.2292  0.1726
40011DOD     C363854   2.395  27.744   5.886  0.1303 -0.2278  0.4448
40012DOD     C163855  26.630  21.600   7.663  0.1617 -0.1977  0.2005
40012DOD     C263856  26.572  21.159   7.494  0.2262  0.0080 -0.0520
40012DOD     C363857  26.548  20.697   7.317 -0.2458  0.0298 -0.4034
40013DOD     C163858   0.372   7.800  29.515 -0.2658  0.0853  0.0610
40013DOD     C263859   0.210   7.508  29.166  0.1659  0.1036  0.2156
40013DOD     C363860   0.350   7.475  28.746 -0.1400 -0.1548 -0.0665
40014DOD     C163861  17.588  30.022  16.144 -0.1047  0.2606  0.0540
40014DOD     C263862  18.039  29.931  16.307 -0.2295 -0.2430  0.1110
40014DOD     C363863  18.438  29.952  16.595 -0.0757 -0.1795 -0.3151
40015DOD     C163864  18.697   5.715  28.796  0.0848 -0.0220 -0.1144
40015DOD     C263865  19.059   5.413  28.748  0.0236  0.0918 -0.2154
40015DOD     C363866  19.320   5.013  28.590  0.3042  0.2804 -0.3560
40016DOD     C163867  18.710  10.003  11.652 -0.0796  0.2659  0.0216
40016DOD     C263868  18.527  10.434  11.784 -0.2537 -0.0442 -0.1400
40016DOD     C363869  18.260  10.759  11.590  0.1004 -0.2432 -0.0249
40017DOD     C163870  19.426  13.406  23.139  0.0379  0.0026 -0.2678
40017DOD     C263871  19.605  13.669  23.510  0.5588 -0.1906  0.1127
40017DOD     C363872  19.710  13.784  23.959  0.1370  0.2019  0.3627
40018DOD     C163873   8.039   9.876  14.450  0.0483 -0.1423 -0.1862
40018DOD     C263874   8.455   9.663  14.263  0.0953  0.0915 -0.2247
40018DOD     C363875   8.542   9.212  14.159 -0.1432 -0.0005 -0.3792
40019DOD     C163876  25.930   8.983  22.694 -0.0874  0.2470 -0.0088
40019DOD     C263877  25.583   9.175  22.922  0.1136 -0.0765 -0.0014
40019DOD     C363878  25.195   9.309  23.214 -0.0947 -0.4226  0.0286
40020DOD     C163879  14.742   1.914   0.929  0.1130  0.2777  0.1525
40020DOD     C263880  15.055   2.220   0.838  0.2601  0.0195  0.3181
40020DOD     C363881  15.489   2.174   0.713  0.1884  0.3160 -0.1233
40021DOD     C163882   6.646   0.529  22.550  0.0250  0.1153  0.1998
40021DOD     C263883   6.642   0.967  22.452 -0.2145  0.0955 -0.3994
40021DOD     C363884   6.926   1.184  22.833  0.1790 -0.0049  0.3464
40022DOD     C163885  23.691   8.245  26.773  0.0881 -0.1250  0.1599
40022DOD     C263886  23.236   8.105  26.787  0.2516  0.4259 -0.0212
40022DOD     C363887  23.099   7.729  26.650  0.0345 -0.1262  0.0657
40023DOD     C163888  18.306  25.552  10.202 -0.1143  0.2829 -0.1845
40023DOD     C263889  18.627  25.402   9.959 -0.3300 -0.1428  0.3463
40023DOD     C363890  19.042  25.203   9.758  0.2361 -0.1687  0.2638
40024DOD     C163891  28.040  28.050  18.241  0.1424 -0.3297 -0.0987
40024DOD     C263892  27.682  28.265  18.466 -0.0343 -0.3083  0.3634
40024DOD     C363893  27.527  28.688  18.623  0.1155  0.1418  0.4006
40025DOD     C163894   2.886  18.709  27.635 -0.1048 -0.0949 -0.1974
40025DOD     C263895   3.116  19.055  27.865 -0.1522 -0.1953  0.2450
40025DOD     C363896   3.429  19.064  28.209 -0.1514 -0.1398  0.1241
40026DOD     C163897  17.872  19.515  15.988  0.0505 -0.1657 -0.2298
40026DOD     C263898  17.513  19.179  15.995  0.0658 -0.2232 -0.0409
40026DOD     C363899  17.473  18.761  15.841 -0.1002  0.1184  0.0145
40027DOD     C163900  17.980   2.096  21.349 -0.0499  0.1199  0.1396
40027DOD     C263901  18.055   2.584  21.302  0.1567  0.1123  0.0153
40027DOD     C363902  18.199   3.016  21.138  0.0041  0.2268 -0.1746
40028DOD     C163903  19.213  26.564  18.534  0.2109 -0.0454  0.0361
40028DOD     C263904  19.407  27.030  18.392 -0.1401  0.1614 -0.2748
40028DOD     C363905  19.750  27.259  18.223  0.0556  0.0426 -0.4340
40029DOD     C163906   0.660  25.105  15.266  0.2545 -0.2839 -0.0067
40029DOD     C263907   0.789  24.727  15.410  0.1899 -0.0312 -0.2224
40029DOD     C363908   0.881  24.503  15.823 -0.0222 -0.2544 -0.1695
40030DOD     C163909  10.746  11.597  28.331 -0.0577  0.1569 -0.0821
40030DOD     C263910  10.455  11.815  27.989  0.0494 -0.1066  0.0580
40030DOD     C363911  10.268  11.832  27.598 -0.2537  0.1713 -0.1345
40031DOD     C163912  11.315   7.083   0.648 -0.0420  0.3480  0.1072
40031DOD     C263913  11.203   6.656   0.817  0.1535 -0.0108 -0.0606
40031DOD     C363914  11.160   6.210   0.755 -0.0515 -0.0197 -0.0725
40032DOD     C163915  22.328  23.560   8.547  0.3731  0.0294 -0.2265
40032DOD     C263916  22.274  23.908   8.870 -0.3818 -0.0398  0.2789
40032DOD     C363917  22.403  24.163   9.238 -0.0147 -0.1315  0.1271
40033DOD     C163918   7.645   4.505  16.156 -0.0260 -0.0986  0.2095
40033DOD     C263919   7.853   4.143  16.418  0.0454 -0.1710  0.1358
40033DOD     C363920   7.812   4.107  16.882 -0.2974  0.0026 -0.3537
40034DOD     C163921   2.742  30.028   6.433  0.0024 -0.1888 -0.2311
40034DOD     C263922   3.111  30.213   6.115 -0.1073 -0.4814  0.2237
40034DOD     C363923   3.109   0.176   5.741  0.4354  0.0791  0.2309
40035DOD     C163924  14.430  15.168   6.072  0.0157  0.0884  0.1190
40035DOD     C263925  14.859  15.002   6.067  0.0905  0.1888  0.0175
40035DOD     C363926  15.282  15.144   6.082  0.0935  0.2153 -0.0658
40036DOD     C163927  22.556   7.078  11.524 -0.4619  0.1415  0.1382
40036DOD     C263928  22.402   7.248  11.190  0.2850  0.0098  0.1501
40036DOD     C363929  22.345   7.680  11.060  0.3449  0.3673 -0.1137
40037DOD     C163930   0.891   1.011  29.102  0.0355 -0.0630  0.2454
40037DOD     C263931   0.727   1.213  29.542 -0.1245  0.0272 -0.2787
40037DOD     C363932   0.390   1.494  29.621 -0.3280 -0.1301 -0.0610
40038DOD     C163933  20.097  11.433  13.518  0.1158  0.0502  0.0320
40038DOD     C263934  20.283  11.164  13.880 -0.0212  0.0224  0.1152
40038DOD     C363935  20.359  10.759  14.193 -0.0593 -0.1015 -0.1768
40039DOD     C163936   1.267  25.037  28.362  0.1623 -0.1163  0.3003
40039DOD     C263937   1.380  24.615  28.268  0.0060 -0.1448  0.0217
40039DOD     C363938   1.666  24.460  27.965 -0.1262  0.0939 -0.0889
40040DOD     C163939  10.632  25.795  14.934  0.0832 -0.1644  0.0670
40040DOD     C263940  10.954  25.553  15.150  0.2818 -0.0344 -0.0761
40040DOD     C363941  11.166  25.083  15.282 -0.0165 -0.1036  0.1823
40041DOD     C163942   0.066   3.462  20.367  0.1930 -0.2089  0.0982
40041DOD     C263943   0.467   3.455  20.563  0.0452 -0.0492 -0.0201
40041DOD     C363944   0.818   3.746  20.757  0.0318  0.1710  0.0427
40042DOD     C163945  29.901  19.374   3.876 -0.0582  0.0831  0.1621
40042DOD     C263946  29.633  19.662   4.093 -0.0939  0.0037 -0.3712
40042DOD     C363947  29.346  19.765   4.462 -0.1014 -0.0895  0.0445
40043DOD     C163948   6.890  25.173  13.813 -0.2024 -0.0644 -0.3567
40043DOD     C263949   6.926  25.356  13.373  0.3592 -0.1086 -0.2685
40043DOD     C363950   6.937  25.625  12.959  0.0706 -0.1196  0.1121
40044DOD     C163951  10.386   0.875   8.907  0.3218 -0.1198 -0.1481
40044DOD     C263952  10.390   1.218   8.598 -0.0614 -0.3004 -0.3921
40044DOD     C363953  10.321   1.650   8.439 -0.0827 -0.0873  0.2189
40045DOD     C163954  18.340  29.886   5.688 -0.1182 -0.2088  0.0835
40045DOD     C263955  18.245  29.639   6.071 -0.1419 -0.0046 -0.0287
40045DOD     C363956  17.872  29.754   6.208 -0.1423  0.0937 -0.1392
40046DOD     C163957  19.935   1.158  26.600 -0.1423 -0.1864  0.0175
40046DOD     C263958  20.125   0.872  26.289  0.0089  0.2808  0.0603
40046DOD     C363959  20.144   0.626  25.865  0.0458 -0.0576 -0.3132
40047DOD     C163960   3.173  12.327  21.809  0.0485 -0.2441 -0.0310
40047DOD     C263961   3.188  12.697  22.020 -0.0323  0.2189  0.3769
40047DOD     C363962   3.259  13.152  22.158  0.2193  0.5394 -0.0530
40048DOD     C163963   0.412   6.410  10.154 -0.1794 -0.2588  0.1487
40048DOD     C263964   0.356   6.858  10.188  0.1777  0.0861 -0.2109
40048DOD     C363965   0.221   7.172  10.488 -0.0627 -0.0155 -0.0297
40049DOD     C163966   2.043   3.875  19.255 -0.1153 -0.1107 -0.0979
40049DOD     C263967   1.864   3.729  18.816 -0.1775 -0.0237 -0.0788
40049DOD     C363968   1.767   3.307  18.668 -0.0107  0.0521  0.0446
40050DOD     C163969  27.340  11.239   2.083  0.1946  0.2210 -0.1031
40050DOD     C263970  26.970  10.995   2.167 -0.0537  0.5196  0.0119
40050DOD     C363971  26.553  10.827   2.209  0.3058  0.2734  0.0338
40051DOD     C163972  26.557  20.799  18.923 -0.1880  0.1414  0.1143
40051DOD     C263973  26.471  20.393  19.086 -0.0541 -0.1959  0.0212
40051DOD     C363974  26.384  20.062  19.462 -0.1716 -0.2616 -0.3061
40052DOD     C163975  19.282  26.906  21.401  0.0271  0.0464 -0.0923
40052DOD     C263976  19.714  26.996  21.528  0.0739  0.2550  0.1047
40052DOD     C363977  20.059  26.901  21.766 -0.0104  0.1843 -0.2317
40053DOD     C163978   6.759  21.428  20.398  0.3078  0.0073  0.0091
40053DOD     C263979   6.378  21.562  20.110 -0.2106  0.2119  0.1177
40053DOD     C363980   6.002  21.401  19.758 -0.1719 -0.2438  0.0553
40054DOD     C163981  24.876  19.920   3.044 -0.1551  0.0734  0.1693
40054DOD     C263982  25.250  19.928   3.382 -0.0038  0.2763  0.0519
40054DOD     C363983  25.461  19.512   3.498  0.0229 -0.0226 -0.1515
40055DOD     C163984  29.523  20.132   4.055  0.0595  0.0643  0.1559
40055DOD     C263985  29.727  20.278   4.454  0.2120  0.1384  0.3618
40055DOD     C363986  30.170  20.429   4.456 -0.1470 -0.2228 -0.4211
40056DOD     C163987   4.652  29.159  18.960 -0.0867  0.0058  0.1808
40056DOD     C263988   4.802  29.005  19.330 -0.0615 -0.0129  0.2379
40056DOD     C363989   4.960  28.619  19.593  0.1573  0.1434  0.0146
40057DOD     C163990  14.520  11.958  17.884  0.0020  0.2136 -0.2303
40057DOD     C263991  14.975  11.822  17.932  0.0488 -0.0818  0.0302
40057DOD     C363992  15.310  11.561  17.866  0.2428  0.1636  0.0295
40058DOD     C163993  30.255  13.826  15.750 -0.2036 -0.2457  0.1976
40058DOD     C263994  30.307  13.832  15.304 -0.0304 -0.0766  0.1279
40058DOD     C363995  -0.035  13.811  14.801 -0.1462  0.1126  0.0788
40059DOD     C163996   4.376  13.577   5.816  0.0504 -0.2923 -0.1950
40059DOD     C263997   4.395  13.731   5.386  0.2138  0.1173  0.0054
40059DOD     C363998   4.234  13.913   4.952 -0.1661 -0.1795  0.1444
40060DOD     C163999   9.245  27.816  11.234 -0.3708 -0.0718 -0.3654
40060DOD     C264000   9.643  27.589  11.379  0.0413  0.0403 -0.4278
40060DOD     C364001   9.869  27.188  11.429 -0.0136 -0.0731 -0.0355
40061DOD     C164002  19.778  13.266   6.973 -0.4047 -0.0314  0.2299
40061DOD     C264003  19.716  13.394   6.504 -0.0719 -0.2547 -0.0555
40061DOD     C364004  19.870  13.522   6.125  0.1030  0.5159 -0.0915
40062DOD     C164005   5.459   3.336   0.988  0.1379  0.0535  0.0357
40062DOD     C264006   5.084   3.378   1.311 -0.0473  0.1718  0.0914
40062DOD     C364007   4.690   3.219   1.588 -0.1457  0.0211 -0.0800
40063DOD     C164008  29.805   9.515  25.755  0.2097  0.0115 -0.2456
40063DOD     C264009  30.092   9.280  25.954 -0.2435 -0.1600  0.2315
40063DOD     C364010  30.167   9.213  26.389  0.2233 -0.1524  0.2733
40064DOD     C164011   9.826  26.820  24.556  0.0506  0.0004  0.0086
40064DOD     C264012  10.033  27.047  24.160 -0.2903 -0.3902  0.0420
40064DOD     C364013  10.304  27.428  23.999 -0.0091 -0.1047 -0.1200
40065DOD     C164014  26.642  13.402   7.153  0.0542 -0.0556  0.2364
40065DOD     C264015  26.981  13.621   7.402  0.2307  0.0368  0.2866
40065DOD     C364016  27.327  13.900   7.630 -0.1102  0.4393  0.1302
40066DOD     C164017  27.502  13.689  20.843 -0.4057 -0.0670  0.1088
40066DOD     C264018  27.882  13.568  21.076  0.1781 -0.0529 -0.0669
40066DOD     C364019  27.913  13.241  21.391 -0.0311 -0.0174 -0.0884
40067DOD     C164020  25.819   1.549  19.881  0.0594  0.1404 -0.1602
40067DOD     C264021  25.593   1.517  19.473  0.0661  0.2954  0.0472
40067DOD     C364022  25.115   1.659  19.399 -0.1564 -0.2598 -0.0363
40068DOD     C164023   1.866  26.664   4.077  0.2755 -0.0253 -0.0193
40068DOD     C264024   2.327  26.821   4.129 -0.0849 -0.1081 -0.0365
40068DOD     C364025   2.661  27.115   4.059  0.2086  0.1963  0.1795
40069DOD     C164026  10.715   9.420  11.303  0.0090 -0.0759  0.0967
40069DOD     C264027  10.439   9.709  11.086 -0.1019  0.1567 -0.0488
40069DOD     C364028  10.284  10.130  11.098 -0.1750 -0.2631 -0.2084
40070DOD     C164029  10.494  15.326  18.093  0.0321  0.0680  0.2298
40070DOD     C264030  10.164  15.099  17.924  0.1106 -0.1274  0.0541
40070DOD     C364031   9.772  15.332  17.840  0.2704 -0.0568 -0.1786
40071DOD     C164032  20.540  25.520  19.577 -0.0560  0.2264  0.0457
40071DOD     C264033  20.614  25.069  19.467  0.1238  0.2492  0.1236
40071DOD     C364034  20.847  24.680  19.533  0.0046  0.0014  0.2510
40072DOD     C164035  20.500  19.485   2.683 -0.1138  0.0408  0.0486
40072DOD     C264036  20.931  19.315   2.738  0.1984 -0.2919 -0.1205
40072DOD     C364037  21.317  19.038   2.725 -0.1969 -0.0417 -0.3504
40073DOD     C164038  26.968  18.729   8.423  0.2534  0.0394 -0.1220
40073DOD     C264039  27.003  18.230   8.385  0.1035  0.2597 -0.1693
40073DOD     C364040  27.018  17.913   8.678  0.3317 -0.1109 -0.0738
40074DOD     C164041  10.288   3.821  29.950 -0.0182 -0.2680 -0.0325
40074DOD     C264042  10.477   3.858   0.038  0.2063  0.2549 -0.0764
40074DOD     C364043  10.803   3.681   0.316  0.1453  0.1642 -0.1334
40075DOD     C164044  17.701  13.879  11.578  0.1372 -0.0258 -0.0595
40075DOD     C264045  17.689  14.162  11.179 -0.2197  0.0469 -0.1654
40075DOD     C364046  17.448  14.287  10.842  0.0753  0.1310  0.0305
40076DOD     C164047   3.765  19.162  14.658  0.1543  0.2201 -0.0561
40076DOD     C264048   4.251  19.198  14.640  0.1654 -0.1250 -0.0270
40076DOD     C364049   4.684  19.121  14.415 -0.0966  0.0249  0.2141
40077DOD     C164050   3.476  14.568  14.257  0.3742 -0.1396 -0.0123
40077DOD     C264051   3.810  14.526  14.520 -0.3785 -0.1659  0.0826
40077DOD     C364052   3.884  14.112  14.765  0.0098 -0.3748 -0.5805
40078DOD     C164053  17.462  25.407  22.060  0.1079  0.2115  0.1471
40078DOD     C264054  17.733  25.682  22.293  0.0476 -0.0092 -0.0769
40078DOD     C364055  17.759  26.073  22.482 -0.0590 -0.1852  0.0817
40079DOD     C164056   9.735   4.171  16.435  0.0844 -0.0343 -0.1136
40079DOD     C264057   9.895   3.961  16.797 -0.0195 -0.1101 -0.0091
40079DOD     C364058  10.160   4.145  17.159  0.0628  0.3617  0.0064
40080DOD     C164059   9.460  11.904  12.823 -0.1649 -0.1844 -0.2572
40080DOD     C264060   9.070  12.200  12.883  0.6145  0.1843  0.2369
40080DOD     C364061   8.880  12.551  12.666 -0.1457  0.3483  0.0246
40081DOD     C164062   8.003  18.100   0.960 -0.2572  0.2615  0.6821
40081DOD     C264063   8.057  18.025   1.382  0.0486 -0.2203  0.2615
40081DOD     C364064   7.853  18.256   1.740 -0.1597 -0.0276 -0.1094
40082DOD     C164065  17.489   8.051   2.721 -0.0580 -0.0231 -0.0940
40082DOD     C264066  17.391   8.516   2.564  0.1565  0.1542 -0.1335
40082DOD     C364067  17.480   8.973   2.449  0.1598 -0.3457  0.0288
40083DOD     C164068  27.917  18.941  18.581  0.0766 -0.3965 -0.1032
40083DOD     C264069  27.879  19.373  18.531  0.1062 -0.2549 -0.0960
40083DOD     C364070  27.644  19.610  18.226  0.0679  0.0359 -0.0240
40084DOD     C164071   9.482  14.469   0.785 -0.1501 -0.3954 -0.1355
40084DOD     C264072   9.683  14.618   0.360 -0.2179  0.0616 -0.4061
40084DOD     C364073   9.452  14.851  30.300  0.2393  0.0775  0.2411
40085DOD     C164074  28.323  16.739  16.171  0.3345 -0.0776 -0.1668
40085DOD     C264075  28.501  17.078  16.474 -0.4500  0.1043 -0.0350
40085DOD     C364076  28.295  17.420  16.716 -0.2142  0.2808 -0.0115
40086DOD     C164077  19.633   5.085  14.780 -0.4144 -0.0144 -0.1469
40086DOD     C264078  19.144   5.181  14.713 -0.0765 -0.1136  0.1488
40086DOD     C364079  18.651   5.282  14.787 -0.0503  0.1461  0.1608
40087DOD     C164080  26.239  29.499  26.280 -0.1923 -0.0711 -0.0468
40087DOD     C264081  26.644  29.578  26.507 -0.0034 -0.0062 -0.0868
40087DOD     C364082  27.045  29.700  26.758  0.1308  0.1457 -0.0010
40088DOD     C164083  20.930   9.652   6.701 -0.1329 -0.1552 -0.3440
40088DOD     C264084  21.019   9.414   7.086  0.0019  0.1233 -0.2897
40088DOD     C364085  20.808   9.375   7.483  0.2587  0.3931  0.2488
40089DOD     C164086  23.399  14.487  23.186  0.0300 -0.3451  0.2050
40089DOD     C264087  23.777  14.166  23.246 -0.0311  0.1638  0.0843
40089DOD     C364088  24.035  13.918  23.479 -0.0168 -0.0370 -0.1853
40090DOD     C164089   8.012  26.831  21.845  0.0817  0.1973 -0.1850
40090DOD     C264090   7.862  26.401  21.960  0.0932 -0.1636 -0.2004
40090DOD     C364091   7.921  26.175  22.358  0.2694 -0.1967  0.3293
40091DOD     C164092  16.420   2.620  17.385  0.0530 -0.0146  0.2647
40091DOD     C264093  16.604   2.905  17.038 -0.0160  0.1514 -0.0203
40091DOD     C364094  16.824   3.279  16.937 -0.0131 -0.2022 -0.2705
40092DOD     C164095  25.281  19.931  18.578  0.0392  0.0846  0.0106
40092DOD     C264096  25.549  20.070  18.972 -0.0932  0.1279 -0.0855
40092DOD     C364097  25.832  20.144  19.365 -0.0109 -0.0864 -0.0930
40093DOD     C164098  27.835  26.243   9.284 -0.0563 -0.1118 -0.0703
40093DOD     C264099  27.643  26.616   9.064 -0.1306 -0.0536 -0.0741
40093DOD     C364100  27.509  26.529   8.662 -0.1958  0.1429 -0.1690
40094DOD     C164101  29.606   6.379  15.732 -0.2703 -0.1391  0.1389
40094DOD     C264102  29.438   6.190  16.101 -0.0969  0.4985  0.2547
40094DOD     C364103  29.018   6.096  16.307  0.1083 -0.1547 -0.0092
40095DOD     C164104  27.406  17.417  11.869 -0.3199 -0.1544  0.4989
40095DOD     C264105  27.572  17.452  11.409  0.1630 -0.3534 -0.0229
40095DOD     C364106  27.761  17.385  10.972  0.1212  0.1481  0.0527
40096DOD     C164107  27.417   6.686  27.802 -0.1233 -0.0988 -0.1708
40096DOD     C264108  27.856   6.825  27.837  0.0869  0.4473 -0.1049
40096DOD     C364109  28.227   6.960  27.702 -0.0619 -0.0671  0.0336
40097DOD     C164110  16.524  20.483  16.766  0.1387  0.1560  0.1020
40097DOD     C264111  16.099  20.674  16.591  0.0485 -0.0546 -0.1075
40097DOD     C364112  15.838  20.697  16.163 -0.2431  0.0666 -0.1175
40098DOD     C164113   6.295  23.920  10.322 -0.4761  0.1461 -0.1490
40098DOD     C264114   6.048  24.150  10.007  0.3358 -0.0570 -0.0343
40098DOD     C364115   5.827  24.041   9.631  0.0067  0.0950 -0.3211
40099DOD     C164116   5.218   7.459  28.137 -0.1061 -0.2373  0.0350
40099DOD     C264117   5.575   7.365  28.467  0.0071 -0.1720  0.0365
40099DOD     C364118   5.946   7.627  28.520  0.1710 -0.1543  0.1937
40100DOD     C164119  24.689  28.930  26.456  0.0436  0.1917 -0.2233
40100DOD     C264120  24.657  29.243  26.099  0.2759 -0.1719  0.2010
40100DOD     C364121  24.880  29.557  25.792 -0.1514  0.0089 -0.0450
40101DOD     C164122   4.750  16.401   7.814  0.2912 -0.0580  0.1431
40101DOD     C264123   4.474  16.696   7.665 -0.1960 -0.0984 -0.0260
40101DOD     C364124   4.162  16.894   7.380  0.4283  0.3142  0.1139
40102DOD     C164125   3.242   9.505   1.887 -0.0564 -0.0476 -0.1552
40102DOD     C264126   3.292  10.005   1.953 -0.0915  0.2767  0.1381
40102DOD     C364127   3.516  10.251   1.613  0.1875  0.3397  0.1743
40103DOD     C164128  18.374  16.275  10.898  0.0503  0.2929  0.2028
40103DOD     C264129  18.708  16.027  11.088 -0.3112  0.0813  0.0695
40103DOD     C364130  18.992  16.101  11.476  0.4230 -0.2465 -0.0534
40104DOD     C164131   0.070  27.620   9.955 -0.0813  0.1081 -0.0067
40104DOD     C264132   0.106  27.137   9.920  0.0834  0.0193 -0.0093
40104DOD     C364133   0.024  26.712   9.807  0.1295 -0.0190 -0.0574
40105DOD     C164134   5.670   2.767  23.788 -0.2111  0.2710 -0.0728
40105DOD     C264135   6.051   2.716  24.042  0.1429  0.1447 -0.1052
40105DOD     C364136   6.409   2.501  24.193  0.0669  0.0865 -0.1016
40106DOD     C164137   2.486   7.960   3.644  0.0749 -0.0987 -0.0331
40106DOD     C264138   2.596   7.985   4.099 -0.0944  0.3788 -0.0388
40106DOD     C364139   2.561   7.869   4.541  0.3437 -0.1416  0.0462
40107DOD     C164140  13.052   2.230  22.065 -0.0664 -0.2287 -0.0625
40107DOD     C264141  12.824   1.909  21.850  0.0631 -0.2118  0.1717
40107DOD     C364142  12.470   1.647  21.933  0.0539  0.1563  0.1112
40108DOD     C164143   8.365  18.059   5.332 -0.0327  0.1783 -0.0640
40108DOD     C264144   8.392  18.498   5.557 -0.2113  0.1172 -0.2440
40108DOD     C364145   8.205  18.917   5.672  0.0496 -0.0520  0.2055
40109DOD     C164146  15.694   9.704  29.148  0.1166  0.0543  0.1774
40109DOD     C264147  16.163   9.579  29.380 -0.0747  0.0766  0.1018
40109DOD     C364148  16.465   9.193  29.374  0.3332  0.1487 -0.0817
40110DOD     C164149   4.797   4.441   9.331 -0.2272  0.0875  0.4540
40110DOD     C264150   5.073   4.847   9.307 -0.1963 -0.1155  0.1573
40110DOD     C364151   4.996   5.291   9.393 -0.2505 -0.2903 -0.0215
40111DOD     C164152  13.839   2.389   7.204  0.1830  0.0489 -0.4094
40111DOD     C264153  13.785   2.540   7.635  0.3810 -0.2139  0.0263
40111DOD     C364154  13.676   2.742   8.005 -0.0559  0.0121 -0.0719
40112DOD     C164155   2.481  23.555   8.741  0.0743 -0.2922  0.0448
40112DOD     C264156   2.322  23.226   9.044  0.0663  0.0890  0.1147
40112DOD     C364157   2.237  22.854   9.275  0.0296 -0.0696 -0.1056
40113DOD     C164158  20.795  11.764  26.097 -0.0831  0.1692  0.0874
40113DOD     C264159  21.248  11.694  26.298 -0.0062  0.1383  0.2092
40113DOD     C364160  21.576  11.727  26.633  0.0679 -0.1830 -0.4806
40114DOD     C164161  18.812   1.993  12.829  0.1039 -0.0361  0.2859
40114DOD     C264162  18.726   2.036  13.269  0.0233 -0.0129 -0.1784
40114DOD     C364163  18.708   1.897  13.697 -0.0019 -0.1094 -0.0915
40115DOD     C164164   4.178   8.024   3.144  0.0182  0.0755 -0.0543
40115DOD     C264165   4.256   7.772   3.555  0.3628 -0.0757 -0.1257
40115DOD     C364166   4.162   7.359   3.816 -0.2215  0.0327  0.1293
40116DOD     C164167  18.348  29.472  14.459 -0.1410  0.1022  0.0202
40116DOD     C264168  17.895  29.336  14.523  0.3364  0.0934  0.0389
40116DOD     C364169  17.418  29.204  14.593  0.2153  0.0573  0.2555
40117DOD     C164170  17.814  26.876   5.292  0.5212  0.0090 -0.3158
40117DOD     C264171  17.683  26.570   5.561 -0.0340 -0.1607 -0.1473
40117DOD     C364172  17.425  26.368   5.895  0.2279  0.1580 -0.1091
40118DOD     C164173   7.348  20.635  26.210  0.1606  0.1677 -0.3137
40118DOD     C264174   6.967  20.803  26.432 -0.2382 -0.1951 -0.1346
40118DOD     C364175   6.672  20.959  26.741  0.1437  0.3116  0.0265
40119DOD     C164176   3.302   4.072  24.594  0.1648  0.0102 -0.1270
40119DOD     C264177   2.806   4.056  24.734  0.1688 -0.1210 -0.0016
40119DOD     C364178   2.348   4.089  24.679 -0.0298  0.0258 -0.0742
40120DOD     C164179  22.837  22.519   0.226  0.0070  0.1278 -0.0609
40120DOD     C264180  22.903  22.604   0.725  0.0902 -0.0330 -0.3376
40120DOD     C364181  23.099  22.687   1.100 -0.0603 -0.1007  0.2444
40121DOD     C164182  24.736   0.400   5.748 -0.4052 -0.2366  0.2155
40121DOD     C264183  25.184   0.275   5.858  0.3165 -0.1155 -0.1290
40121DOD     C364184  25.384  30.339   6.133 -0.1386  0.0141  0.1196
40122DOD     C164185   0.249  17.618  29.085  0.2851  0.0720  0.1837
40122DOD     C264186   0.726  17.532  29.028 -0.1762  0.0380 -0.0941
40122DOD     C364187   1.055  17.253  28.945  0.0642  0.0817  0.0966
40123DOD     C164188  12.800  15.718   8.028 -0.1057  0.2276  0.1742
40123DOD     C264189  12.539  16.017   8.270 -0.3022  0.0071 -0.1575
40123DOD     C364190  12.298  16.206   8.599  0.0778  0.1934  0.1219
40124DOD     C164191  12.769   7.417  23.184  0.0718  0.1921 -0.0334
40124DOD     C264192  12.742   7.674  23.579  0.0944  0.0518 -0.2176
40124DOD     C364193  12.753   7.625  24.051 -0.1572 -0.0161  0.0325
40125DOD     C164194   1.629  21.514  25.522  0.4634 -0.0447 -0.0930
40125DOD     C264195   2.049  21.450  25.472 -0.0552  0.0391  0.2311
40125DOD     C364196   2.366  21.604  25.797 -0.3709  0.2115 -0.2613
40126DOD     C164197   8.501  19.389  23.920  0.0438 -0.0691  0.0320
40126DOD     C264198   8.315  19.193  23.546 -0.0348 -0.0976 -0.0323
40126DOD     C364199   7.913  18.974  23.358 -0.2387  0.0283  0.2058
40127DOD     C164200  20.371  17.114  21.583  0.1205  0.1841 -0.4739
40127DOD     C264201  20.316  16.653  21.474 -0.0637  0.2604 -0.0470
40127DOD     C364202  20.194  16.233  21.632  0.0509  0.0131  0.0457
40128DOD     C164203  16.173  13.594  24.111  0.0075 -0.3293 -0.0693
40128DOD     C264204  15.767  13.744  24.015  0.0854 -0.0870  0.1892
40128DOD     C364205  15.364  13.801  23.849  0.0486  0.1249  0.0374
40129DOD     C164206   2.447  20.722  16.935 -0.0745  0.1029  0.0448
40129DOD     C264207   2.641  21.067  17.115  0.2057  0.0829  0.3125
40129DOD     C364208   2.741  21.549  17.008 -0.0832 -0.1931 -0.2023
40130DOD     C164209  17.590  20.919   1.917  0.2345 -0.2732  0.2100
40130DOD     C264210  17.945  21.149   1.797  0.1613 -0.0760 -0.0598
40130DOD     C364211  17.945  21.615   1.862  0.1419  0.2463 -0.2557
40131DOD     C164212  29.878   7.269  26.509 -0.1083 -0.3208  0.1147
40131DOD     C264213  30.067   7.154  26.914  0.3307 -0.1647 -0.1619
40131DOD     C364214   0.074   6.851  27.026  0.0643 -0.0773 -0.0951
40132DOD     C164215   1.656  10.597   4.207 -0.2006 -0.0890 -0.1295
40132DOD     C264216   1.556  10.869   3.859 -0.2878  0.0105 -0.1229
40132DOD     C364217   1.755  10.875   3.461 -0.0875 -0.1070  0.3516
40133DOD     C164218  17.144   6.584   2.767  0.1888  0.2283  0.1564
40133DOD     C264219  17.064   6.291   3.126 -0.1306  0.0693 -0.0794
40133DOD     C364220  17.180   6.421   3.563 -0.3240  0.0338 -0.4319
40134DOD     C164221  29.867  10.564  16.862 -0.3321 -0.0015 -0.0778
40134DOD     C264222  29.500  10.374  16.731  0.2162 -0.3023  0.0980
40134DOD     C364223  29.079  10.490  16.766 -0.0270  0.0601 -0.1114
40135DOD     C164224   2.082  22.844  18.590  0.0506  0.1388 -0.2903
40135DOD     C264225   2.005  22.728  19.029 -0.0312 -0.0043 -0.0472
40135DOD     C364226   1.772  22.570  19.399  0.0573 -0.0688 -0.1895
40136DOD     C164227   4.074  27.161  25.890  0.0210  0.1312  0.1043
40136DOD     C264228   4.149  26.745  25.674  0.2697  0.3657 -0.2578
40136DOD     C364229   4.186  26.561  25.233  0.1322  0.2302  0.2096
40137DOD     C164230  11.035  17.858   0.049 -0.0900 -0.2147  0.0030
40137DOD     C264231  10.884  17.515   0.380 -0.1599  0.2039 -0.1317
40137DOD     C364232  10.653  17.467   0.724 -0.0036 -0.1739  0.5099
40138DOD     C164233   6.861  17.343  22.963 -0.3047  0.0876  0.0794
40138DOD     C264234   7.103  17.761  22.927 -0.1683  0.0770 -0.0358
40138DOD     C364235   7.379  18.145  22.995 -0.0594  0.0613  0.0518
40139DOD     C164236  29.602   9.485   4.468 -0.0654 -0.0884 -0.2167
40139DOD     C264237  29.758   9.458   4.947  0.0069 -0.2575  0.4135
40139DOD     C364238  29.864   9.589   5.381 -0.1365 -0.1661  0.0124
40140DOD     C164239   7.264   1.077  21.325  0.3747 -0.0075 -0.1319
40140DOD     C264240   7.540   0.699  21.120  0.1248 -0.2272  0.2990
40140DOD     C364241   7.714   0.277  20.959  0.0913  0.2502  0.3027
40141DOD     C164242  24.305  24.396  18.093 -0.0225 -0.0727  0.2530
40141DOD     C264243  24.409  24.831  17.839  0.1163 -0.3035 -0.2606
40141DOD     C364244  24.182  25.140  17.561 -0.1652 -0.1515  0.1157
40142DOD     C164245  14.633  24.994  24.674 -0.1168  0.2392 -0.1628
40142DOD     C264246  14.328  25.170  24.959  0.2178  0.1244  0.0769
40142DOD     C364247  14.289  25.325  25.385  0.0221 -0.0933  0.1146
40143DOD     C164248  15.071   0.331  12.372  0.4251 -0.3938  0.1309
40143DOD     C264249  15.291   0.111  12.733 -0.3094 -0.2167 -0.1189
40143DOD     C364250  15.677   0.164  13.043 -0.1919  0.0355  0.3196
40144DOD     C164251  19.776   8.311   0.967 -0.2645 -0.0120 -0.0633
40144DOD     C264252  19.327   8.181   0.806  0.0818  0.0669  0.0772
40144DOD     C364253  19.038   7.871   0.656 -0.0686  0.0042  0.3968
40145DOD     C164254  22.211  17.926   6.653 -0.2069  0.1970 -0.0073
40145DOD     C264255  22.435  17.701   6.960  0.0450  0.0891 -0.1546
40145DOD     C364256  22.333  17.544   7.392  0.2063  0.0368  0.0316
40146DOD     C164257  21.923  15.054   0.328 -0.1112  0.2069 -0.0619
40146DOD     C264258  21.532  15.007   0.605 -0.0631 -0.0157  0.1835
40146DOD     C364259  21.202  15.135   0.950 -0.1604  0.1215  0.0329
40147DOD     C164260   3.610  10.841  19.417  0.2481  0.0606 -0.0842
40147DOD     C264261   3.456  10.852  18.940 -0.2878  0.0406 -0.3235
40147DOD     C364262   3.399  10.645  18.535 -0.0893 -0.1957 -0.0025
40148DOD     C164263  16.177   4.347   8.202 -0.0311 -0.0335  0.1208
40148DOD     C264264  16.338   3.880   8.127  0.1006  0.0422 -0.0964
40148DOD     C364265  16.601   3.485   8.174 -0.1366 -0.1703 -0.1066
40149DOD     C164266   5.201   1.299  22.032 -0.0090 -0.0678  0.0869
40149DOD     C264267   5.301   1.003  21.676 -0.0337 -0.1906 -0.1931
40149DOD     C364268   5.429   0.739  21.377 -0.1534  0.0304 -0.2107
40150DOD     C164269   1.966  13.344  25.822  0.1764 -0.0873  0.1869
40150DOD     C264270   1.910  12.992  26.153  0.1141  0.1078  0.1471
40150DOD     C364271   1.915  12.529  26.076 -0.0178  0.0537  0.0628
40151DOD     C164272   6.408   6.973  14.481  0.0874 -0.0952  0.0171
40151DOD     C264273   5.926   6.862  14.598 -0.1500 -0.1802 -0.2849
40151DOD     C364274   5.621   6.887  14.929  0.0513  0.1789 -0.0894
40152DOD     C164275   5.100  28.089  20.492 -0.1767  0.0267 -0.3827
40152DOD     C264276   5.396  28.287  20.738 -0.2408  0.2987  0.0812
40152DOD     C364277   5.732  28.122  20.965  0.5582  0.2722  0.0240
40153DOD     C164278  17.037  26.104  10.762  0.1568 -0.0852  0.2105
40153DOD     C264279  16.999  25.809  11.184 -0.0253 -0.1946 -0.1308
40153DOD     C364280  17.388  25.714  11.456  0.0431  0.0963  0.0390
40154DOD     C164281  23.210  28.336  22.243 -0.0510 -0.1000 -0.0161
40154DOD     C264282  23.354  28.792  22.165 -0.1640 -0.0570  0.1565
40154DOD     C364283  23.425  29.199  21.963 -0.2456 -0.0439 -0.0062
40155DOD     C164284  19.982  15.762  22.483  0.1838  0.0232  0.0469
40155DOD     C264285  20.210  15.686  22.878 -0.2377 -0.4412 -0.3379
40155DOD     C364286  20.305  15.442  23.237  0.1622 -0.0317  0.0288
40156DOD     C164287   7.229  19.503  21.456  0.0243 -0.0804  0.0161
40156DOD     C264288   7.262  19.019  21.630  0.2060 -0.2538 -0.2108
40156DOD     C364289   7.267  18.581  21.535 -0.0605 -0.2461 -0.2084
40157DOD     C164290   1.316  20.729  26.726  0.0553 -0.2608  0.2584
40157DOD     C264291   1.712  20.660  26.508 -0.0983 -0.0626  0.0480
40157DOD     C364292   1.761  20.455  26.081 -0.1541 -0.0543  0.1216
40158DOD     C164293  29.569  20.586  11.078 -0.1567  0.1186  0.0223
40158DOD     C264294  29.368  20.588  10.713  0.1209  0.0778  0.0696
40158DOD     C364295  29.372  20.260  10.325 -0.1621  0.1053  0.2018
40159DOD     C164296   1.714  26.335  26.211  0.1180 -0.1182  0.0672
40159DOD     C264297   1.716  26.481  26.647  0.3186  0.1392  0.0177
40159DOD     C364298   2.116  26.541  26.897  0.0549 -0.3885  0.2338
40160DOD     C164299   0.925  25.940  21.968  0.0378  0.0180  0.1341
40160DOD     C264300   0.468  26.090  22.006  0.1284 -0.1066 -0.2078
40160DOD     C364301   0.045  26.036  21.798  0.0641  0.1378 -0.1393
40161DOD     C164302  16.864  27.225  22.473  0.1180 -0.1378 -0.0360
40161DOD     C264303  17.158  27.232  22.090  0.1486 -0.0081 -0.0385
40161DOD     C364304  17.127  27.587  21.830  0.0826  0.2165  0.2712
40162DOD     C164305   5.245  25.903   9.491  0.5837  0.0870 -0.0265
40162DOD     C264306   5.430  25.862   9.951  0.1470 -0.0015 -0.0536
40162DOD     C364307   5.586  25.783  10.393 -0.0473  0.1951 -0.0225
40163DOD     C164308  19.121   4.708  25.864  0.0618 -0.1574 -0.3341
40163DOD     C264309  19.195   4.437  26.298  0.1566  0.0465  0.0129
40163DOD     C364310  19.237   4.126  26.699 -0.2120 -0.0088 -0.2091
40164DOD     C164311   0.121   4.819   0.183  0.0194  0.1543  0.0531
40164DOD     C264312  30.189   4.531  30.195 -0.0717 -0.1071 -0.1344
40164DOD     C364313  30.037   4.113  30.302  0.2948  0.0010 -0.1758
40165DOD     C164314   8.978  28.273   0.669 -0.1318  0.1283 -0.2912
40165DOD     C264315   9.053  28.579   0.980 -0.1090  0.1920 -0.1353
40165DOD     C364316   9.326  28.944   1.182 -0.1332 -0.1371 -0.0764
40166DOD     C164317   5.682   8.057  25.106  0.0591 -0.0022  0.1779
40166DOD     C264318   5.971   8.383  25.164  0.2633  0.0123  0.0481
40166DOD     C364319   6.258   8.668  25.380 -0.1163  0.1262  0.0227
40167DOD     C164320  18.789  24.589  12.837  0.0064 -0.0935  0.1877
40167DOD     C264321  19.183  24.397  12.995  0.0388 -0.1450 -0.0223
40167DOD     C364322  19.627  24.512  13.127 -0.1193 -0.1117  0.0880
40168DOD     C164323  13.886  17.247   4.325 -0.1099 -0.3007 -0.2203
40168DOD     C264324  13.659  17.663   4.359 -0.0149 -0.2229 -0.4552
40168DOD     C364325  13.589  18.130   4.193 -0.1528 -0.1173 -0.3098
40169DOD     C164326   3.761   3.584  20.300 -0.1694  0.1228 -0.3137
40169DOD     C264327   3.822   3.703  20.803  0.1672 -0.0702  0.1289
40169DOD     C364328   3.792   3.996  21.132  0.1610 -0.2136 -0.1117
40170DOD     C164329  24.898  23.047  25.192  0.0141 -0.1582 -0.1377
40170DOD     C264330  25.210  23.073  25.556  0.0226  0.1424 -0.1268
40170DOD     C364331  25.175  23.042  26.016  0.0822 -0.1274 -0.1014
40171DOD     C164332  17.710  -0.027   6.689  0.2158 -0.3471 -0.1457
40171DOD     C264333  17.592  30.146   6.262 -0.0658  0.3598  0.0840
40171DOD     C364334  17.398  30.003   5.992  0.1043 -0.1869  0.0023
40172DOD     C164335  12.015   4.847  13.067 -0.4987 -0.2897  0.0662
40172DOD     C264336  11.724   4.879  13.345  0.1377 -0.3213 -0.2058
40172DOD     C364337  11.403   4.518  13.341  0.1445  0.1906  0.0640
40173DOD     C164338   6.501  17.896  -0.044  0.1752 -0.1437 -0.2177
40173DOD     C264339   6.547  17.461   0.142 -0.1613 -0.0379 -0.0026
40173DOD     C364340   6.954  17.218   0.359 -0.1900  0.2269 -0.2355
40174DOD     C164341  22.717   9.517  27.871  0.0570 -0.1635  0.3798
40174DOD     C264342  22.824   9.923  27.593 -0.1149  0.1657  0.0399
40174DOD     C364343  22.771  10.345  27.495  0.0655  0.0359 -0.1288
40175DOD     C164344  21.653   4.645   1.505 -0.1280  0.3774  0.1359
40175DOD     C264345  21.278   4.917   1.360 -0.1483  0.0188  0.0756
40175DOD     C364346  21.042   5.101   1.038  0.3512  0.0291 -0.1385
40176DOD     C164347  11.166  28.069   0.981 -0.2795  0.1013  0.1011
40176DOD     C264348  11.289  28.509   0.859  0.2381  0.1692  0.0273
40176DOD     C364349  11.554  28.500   0.488 -0.0389  0.3262  0.0059
40177DOD     C164350  18.913  27.340   5.674 -0.1694  0.1258  0.0839
40177DOD     C264351  18.653  27.476   5.265  0.1304  0.0852  0.0288
40177DOD     C364352  18.440  27.514   4.836 -0.0346 -0.0284  0.1595
40178DOD     C164353   7.120  30.069   1.626 -0.1475 -0.1022 -0.1820
40178DOD     C264354   6.994  29.822   1.984  0.0260 -0.1837 -0.1667
40178DOD     C364355   6.893  29.740   2.477  0.0236  0.0473 -0.0481
40179DOD     C164356  17.768  25.939  20.600 -0.3431  0.0104 -0.0408
40179DOD     C264357  17.524  26.258  20.832  0.0349  0.0743  0.1223
40179DOD     C364358  17.346  26.701  21.046 -0.0642  0.1566 -0.0052
40180DOD     C164359  29.066  13.301  14.757 -0.4455  0.3530  0.1461
40180DOD     C264360  29.515  13.115  14.785 -0.2935 -0.1459  0.1687
40180DOD     C364361  29.900  13.010  15.014 -0.2895  0.1616 -0.0816
40181DOD     C164362  19.723   9.460  25.585 -0.0815  0.3978 -0.0734
40181DOD     C264363  19.376   9.313  25.887  0.0263  0.1398 -0.2142
40181DOD     C364364  19.261   9.276  26.341  0.1822 -0.1522  0.2395
40182DOD     C164365   4.888  16.395  16.364  0.1228 -0.1851  0.1283
40182DOD     C264366   5.099  16.314  16.768 -0.2125  0.1857 -0.0230
40182DOD     C364367   5.087  16.069  17.135 -0.2540  0.0677 -0.0479
40183DOD     C164368  10.573  20.999   7.233 -0.1530  0.0059  0.0841
40183DOD     C264369  10.260  20.753   7.032  0.3858 -0.1456  0.1340
40183DOD     C364370  10.122  20.284   7.103  0.0233  0.2990  0.3077
40184DOD     C164371  11.129   4.274  29.042 -0.3389 -0.1280  0.0606
40184DOD     C264372  11.168   4.293  28.619 -0.0676  0.1302  0.1399
40184DOD     C364373  11.398   4.279  28.169 -0.1799 -0.0370 -0.0898
40185DOD     C164374   1.159  22.377  25.244 -0.1110  0.2364 -0.0647
40185DOD     C264375   0.975  22.724  25.482  0.1004 -0.1554 -0.2733
40185DOD     C364376   0.897  23.042  25.827  0.2316  0.0006 -0.1537
40186DOD     C164377   4.414   9.079  28.157  0.0860  0.0209  0.1055
40186DOD     C264378   4.878   9.288  28.074 -0.0301  0.2554 -0.0049
40186DOD     C364379   5.305   9.274  28.080 -0.0894 -0.0128  0.2531
40187DOD     C164380   3.879   1.122  21.455 -0.2151  0.0527 -0.0213
40187DOD     C264381   4.312   1.155  21.270 -0.1233  0.0604 -0.2698
40187DOD     C364382   4.477   0.752  21.232 -0.0593  0.4341 -0.2233
40188DOD     C164383  20.754   1.573   8.178 -0.2100  0.3832 -0.0047
40188DOD     C264384  20.875   1.967   7.974  0.2858  0.0956  0.0172
40188DOD     C364385  21.192   2.329   7.984 -0.0046 -0.1385  0.0619
40189DOD     C164386   0.225  27.998  15.288  0.1739  0.2026 -0.0941
40189DOD     C264387   0.061  27.629  15.132 -0.2765 -0.0139 -0.1891
40189DOD     C364388   0.012  27.369  14.747  0.0010  0.2350 -0.2832
40190DOD     C164389  20.350  12.224  29.783  0.3639 -0.1477  0.1517
40190DOD     C264390  20.126  11.894  29.546  0.0316  0.1921 -0.0537
40190DOD     C364391  20.186  11.588  29.138  0.0032 -0.1335 -0.0145
40191DOD     C164392  17.628  12.941  30.086 -0.1945  0.0317 -0.0929
40191DOD     C264393  17.143  12.811  30.242 -0.5349 -0.2655 -0.0905
40191DOD     C364394  16.792  12.573   0.031 -0.1289  0.1173  0.1503
40192DOD     C164395  14.106   5.210  23.822  0.0667 -0.2380  0.5259
40192DOD     C264396  13.781   5.426  24.061 -0.1033 -0.0390  0.0756
40192DOD     C364397  13.356   5.510  24.334 -0.2561  0.0346  0.1841
40193DOD     C164398   9.030   0.217  14.060 -0.1831 -0.0737  0.0264
40193DOD     C264399   9.390   0.254  13.736 -0.2255 -0.0613  0.2341
40193DOD     C364400   9.774   0.335  13.532  0.0412  0.1237  0.0587
40194DOD     C164401   5.275  12.834   7.897 -0.0069 -0.3215 -0.0333
40194DOD     C264402   4.851  12.658   7.827  0.1430 -0.1865  0.2235
40194DOD     C364403   4.620  12.457   7.528  0.0122 -0.0266  0.0862
40195DOD     C164404  23.271  20.781   0.178 -0.2677  0.1805  0.0871
40195DOD     C264405  23.607  20.553   0.412 -0.2682  0.1688  0.2200
40195DOD     C364406  24.011  20.461   0.702  0.2630  0.0201  0.3023
40196DOD     C164407  27.390  14.932  16.402 -0.0855  0.0650 -0.1862
40196DOD     C264408  27.338  14.965  16.876 -0.1095  0.0737  0.1292
40196DOD     C364409  27.517  15.080  17.313  0.2558  0.0732  0.2466
40197DOD     C164410  21.482  16.802  10.582 -0.1624  0.0488  0.1678
40197DOD     C264411  21.211  16.407  10.530  0.1511  0.1887 -0.0615
40197DOD     C364412  20.889  16.048  10.446  0.0001 -0.0006  0.3274
40198DOD     C164413  26.732   5.652  17.066 -0.3023  0.0192  0.3390
40198DOD     C264414  26.601   5.282  16.816  0.1623  0.0298  0.0577
40198DOD     C364415  26.540   5.011  16.437  0.2005 -0.1708  0.0492
40199DOD     C164416   3.931  15.392  14.765 -0.0210  0.0958 -0.0754
40199DOD     C264417   4.166  15.557  15.121 -0.0277  0.0956 -0.0886
40199DOD     C364418   4.455  15.759  15.448 -0.1816  0.1768  0.0732
40200DOD     C164419  28.447   1.641  16.949 -0.1197 -0.1817 -0.1479
40200DOD     C264420  28.045   1.602  17.229 -0.2010  0.1368 -0.1008
40200DOD     C364421  27.706   1.809  17.481 -0.2779  0.1330  0.0433
40201DOD     C164422   4.296  11.473  26.102  0.0459  0.0028  0.1372
40201DOD     C264423   4.255  11.251  26.528 -0.0763 -0.0148 -0.0959
40201DOD     C364424   4.204  11.116  26.950  0.0324  0.0620  0.0890
40202DOD     C164425  18.252  26.452   5.586  0.0233 -0.0008  0.2004
40202DOD     C264426  18.669  26.509   5.396  0.0124 -0.2299  0.0936
40202DOD     C364427  19.154  26.369   5.533  0.0582  0.2725 -0.2667
40203DOD     C164428  12.234   7.302  22.437 -0.0858  0.1582 -0.1479
40203DOD     C264429  11.756   7.344  22.340 -0.3179  0.0269 -0.0565
40203DOD     C364430  11.516   7.757  22.419  0.0814  0.1279 -0.2030
40204DOD     C164431   7.329   2.315   9.856 -0.2457  0.3097  0.1843
40204DOD     C264432   7.059   2.678  10.017  0.2669 -0.2498  0.1604
40204DOD     C364433   7.046   2.761  10.424  0.0925  0.0054  0.0471
40205DOD     C164434   8.980   1.849   4.676  0.3226  0.2049 -0.1719
40205DOD     C264435   9.228   1.906   4.285  0.1983  0.0114 -0.2122
40205DOD     C364436   9.105   1.540   3.985 -0.0985 -0.1244 -0.1371
40206DOD     C164437   4.619  29.008   1.885 -0.0610 -0.2470 -0.0901
40206DOD     C264438   4.991  29.169   2.001 -0.0089  0.0166 -0.0652
40206DOD     C364439   5.382  29.325   2.206 -0.2235 -0.2239  0.0824
40207DOD     C164440   1.041   4.084  19.085 -0.0057 -0.2687  0.0829
40207DOD     C264441   1.345   4.396  19.021 -0.0313  0.1245  0.1457
40207DOD     C364442   1.600   4.780  19.086 -0.2472  0.0867  0.3137
40208DOD     C164443  12.223  14.898  18.442 -0.0181  0.1735  0.0687
40208DOD     C264444  12.365  14.819  18.004  0.1024  0.1000  0.0235
40208DOD     C364445  12.251  14.919  17.575 -0.3145 -0.0073  0.2682
40209DOD     C164446   9.543   7.074   9.181  0.0671 -0.0051 -0.0063
40209DOD     C264447   9.407   7.372   8.867  0.2035  0.2364  0.0710
40209DOD     C364448   9.267   7.795   8.756 -0.0796  0.1547 -0.1276
40210DOD     C164449  19.648   0.767   4.089 -0.0178  0.2716  0.2783
40210DOD     C264450  19.859   0.441   3.854  0.2502 -0.0009 -0.2008
40210DOD     C364451  20.255   0.236   3.892  0.2441  0.3372  0.1850
40211DOD     C164452  28.292  10.430   6.997  0.0597 -0.3958  0.0940
40211DOD     C264453  28.485  10.057   7.207  0.2925  0.0429  0.1949
40211DOD     C364454  28.352   9.768   7.587 -0.1217  0.3452  0.2589
40212DOD     C164455  16.773   7.523   5.077  0.0617 -0.2153  0.2055
40212DOD     C264456  16.467   7.364   4.752  0.1559 -0.0502 -0.0274
40212DOD     C364457  16.170   7.003   4.830 -0.1330  0.1403 -0.5503
40213DOD     C164458  23.346  10.050  19.390  0.1254  0.0228 -0.0889
40213DOD     C264459  23.183   9.658  19.197 -0.1293  0.0163 -0.1880
40213DOD     C364460  22.787   9.400  19.226 -0.3745  0.3160 -0.1905
40214DOD     C164461  25.101   4.446  20.265 -0.0463  0.2206  0.0697
40214DOD     C264462  25.293   4.218  19.836 -0.1177  0.0560 -0.0290
40214DOD     C364463  25.302   4.243  19.329  0.1160 -0.0035 -0.2785
40215DOD     C164464  18.559  11.738  25.941 -0.0156 -0.4048 -0.0586
40215DOD     C264465  18.434  11.477  25.563 -0.1693  0.0433  0.1835
40215DOD     C364466  18.136  11.335  25.268  0.0656 -0.3582  0.1919
40216DOD     C164467  23.096   9.675  17.759  0.2087 -0.2781 -0.2165
40216DOD     C264468  23.239   9.448  17.383  0.4361 -0.1415 -0.0016
40216DOD     C364469  23.263   9.387  16.928 -0.2497 -0.0778 -0.0237
40217DOD     C164470  28.373  19.575  12.527  0.1189  0.0705  0.0009
40217DOD     C264471  27.943  19.576  12.326 -0.0424 -0.1210  0.1529
40217DOD     C364472  27.477  19.450  12.209  0.0782  0.3021 -0.1949
40218DOD     C164473  14.409  10.106   8.350 -0.1180 -0.2008 -0.5735
40218DOD     C264474  14.766   9.862   8.472  0.0756  0.1784  0.2313
40218DOD     C364475  15.078   9.655   8.784  0.1642 -0.1104  0.2057
40219DOD     C164476  -0.001  19.635  14.460 -0.1040  0.1404  0.1521
40219DOD     C264477   0.132  20.046  14.279 -0.0354  0.2500  0.1269
40219DOD     C364478  30.070  20.370  14.279  0.1961  0.1835  0.0088
40220DOD     C164479  15.209  27.003  12.056 -0.1791  0.0147  0.2156
40220DOD     C264480  15.568  26.630  12.023  0.0729  0.2751 -0.0774
40220DOD     C364481  15.441  26.257  11.742  0.0265  0.1863 -0.1083
40221DOD     C164482  23.095   7.731  13.705  0.0575 -0.2072  0.0508
40221DOD     C264483  23.505   7.894  13.731 -0.1015  0.4190 -0.0325
40221DOD     C364484  23.903   8.032  13.522  0.1533 -0.1858 -0.0616
40222DOD     C164485  12.819   7.711  29.390 -0.4287 -0.2145 -0.0735
40222DOD     C264486  13.287   7.492  29.336  0.1066 -0.3779 -0.0199
40222DOD     C364487  13.690   7.370  29.613  0.0313  0.2102  0.2216
40223DOD     C164488  16.511  14.044   3.310  0.1151  0.3045 -0.0734
40223DOD     C264489  16.150  13.684   3.446 -0.2451 -0.0378 -0.0231
40223DOD     C364490  16.206  13.519   3.860 -0.2090  0.0052 -0.1031
40224DOD     C164491  30.089   8.240  14.949  0.0249  0.1081  0.0297
40224DOD     C264492  30.084   8.537  14.672 -0.1172  0.1604  0.0022
40224DOD     C364493  30.008   8.836  14.313 -0.0767 -0.0669  0.3482
40225DOD     C164494   8.570  18.022  21.223 -0.1005  0.2480  0.0998
40225DOD     C264495   8.476  18.188  21.594 -0.2352  0.1445 -0.1885
40225DOD     C364496   8.250  18.447  21.855  0.2899 -0.1421  0.0157
40226DOD     C164497   6.918   5.988   1.077  0.0894  0.2297  0.1621
40226DOD     C264498   6.838   5.751   0.630 -0.2059  0.1941 -0.1123
40226DOD     C364499   6.710   5.361   0.395 -0.1280 -0.1157  0.0366
40227DOD     C164500  19.344  14.784   0.674  0.0325 -0.0547 -0.3276
40227DOD     C264501  19.805  14.893   0.594 -0.1050  0.1812  0.2529
40227DOD     C364502  20.015  14.648   0.246 -0.1191  0.0310 -0.1813
40228DOD     C164503   7.639   7.737  22.818  0.1174  0.1140 -0.1890
40228DOD     C264504   7.231   7.927  23.056  0.2192 -0.0318  0.4375
40228DOD     C364505   6.772   8.068  22.990 -0.0349  0.1001 -0.0571
40229DOD     C164506  29.742  27.137  18.816  0.0422 -0.2206 -0.2765
40229DOD     C264507  29.524  27.044  18.415  0.1621  0.0406 -0.2308
40229DOD     C364508  29.220  27.112  18.029 -0.1735 -0.0075 -0.1598
40230DOD     C164509  20.417   4.930  22.250  0.1997 -0.2020  0.2956
40230DOD     C264510  19.981   4.773  22.131  0.1488 -0.0935 -0.0718
40230DOD     C364511  19.665   5.049  21.945 -0.0516  0.2322  0.2531
40231DOD     C164512  18.942  24.303   3.076 -0.3037  0.2013 -0.1265
40231DOD     C264513  18.575  24.217   2.866 -0.0625 -0.2474  0.0268
40231DOD     C364514  18.548  23.791   2.665  0.1894 -0.1079 -0.0614
40232DOD     C164515  25.853   2.171   4.217 -0.1444 -0.0634  0.2018
40232DOD     C264516  25.826   2.120   3.775  0.2415 -0.2790  0.4629
40232DOD     C364517  26.093   2.083   3.469 -0.0812  0.1085 -0.0032
40233DOD     C164518   4.340  25.286  25.920  0.1238 -0.0512  0.2452
40233DOD     C264519   4.377  25.081  26.286  0.2954 -0.0350  0.0745
40233DOD     C364520   4.319  24.907  26.653  0.2016  0.0793 -0.1324
40234DOD     C164521  14.860  18.592  20.105  0.0373  0.1061 -0.1881
40234DOD     C264522  15.153  18.670  19.770 -0.2142 -0.2050  0.0846
40234DOD     C364523  15.350  18.999  19.473 -0.1202 -0.0193  0.2447
40235DOD     C164524   9.701  15.553  12.413  0.1743  0.1599 -0.1205
40235DOD     C264525   9.898  15.766  12.036 -0.2532  0.0361  0.0465
40235DOD     C364526   9.903  15.826  11.537  0.1986 -0.0166  0.1219
40236DOD     C164527  27.790  12.069  28.270 -0.3459  0.2621  0.0741
40236DOD     C264528  27.631  12.325  27.948 -0.0119 -0.0331  0.0397
40236DOD     C364529  27.654  12.246  27.493 -0.0235 -0.3612 -0.0137
40237DOD     C164530  27.259   3.071  23.645 -0.0228  0.2319 -0.0248
40237DOD     C264531  27.550   3.052  24.064  0.1605 -0.0760  0.1017
40237DOD     C364532  27.622   3.212  24.467 -0.3355 -0.0054 -0.2833
40238DOD     C164533   8.215   4.614  19.528  0.1017  0.0871  0.0026
40238DOD     C264534   8.207   5.105  19.551 -0.0254 -0.0448  0.1902
40238DOD     C364535   7.770   5.337  19.524 -0.4299 -0.2205 -0.4209
40239DOD     C164536  13.142   3.135  26.296  0.4315  0.2600  0.4566
40239DOD     C264537  13.240   2.911  25.917  0.1899  0.0986 -0.1818
40239DOD     C364538  13.645   3.047  25.688 -0.1461  0.1446 -0.1170
40240DOD     C164539   4.087   6.696  26.500  0.2075 -0.0043 -0.1639
40240DOD     C264540   3.953   6.379  26.190  0.0444 -0.2193  0.0166
40240DOD     C364541   4.059   5.916  26.137  0.0330 -0.0206 -0.2177
40241DOD     C164542  21.168   4.660  18.160 -0.0719  0.4285 -0.1469
40241DOD     C264543  21.268   4.912  17.797 -0.3713  0.1774  0.1395
40241DOD     C364544  21.391   4.765  17.339 -0.0168 -0.0808  0.3950
40242DOD     C164545  25.699   7.340  23.095 -0.0960 -0.1768  0.1291
40242DOD     C264546  25.980   7.602  23.385  0.0669 -0.2595  0.0610
40242DOD     C364547  26.244   7.799  23.669  0.0005  0.0498 -0.0177
40243DOD     C164548  20.850   6.469  14.947 -0.0721 -0.2055 -0.0959
40243DOD     C264549  20.471   6.703  14.893 -0.0390  0.1100 -0.0214
40243DOD     C364550  20.063   6.968  15.012  0.0830  0.1780 -0.0989
40244DOD     C164551  14.602   4.648  13.527  0.1566  0.1991  0.2593
40244DOD     C264552  14.119   4.668  13.420 -0.0767  0.0653 -0.0080
40244DOD     C364553  13.732   4.696  13.665 -0.1213 -0.0258  0.3421
40245DOD     C164554   5.653  29.984   4.067 -0.2425 -0.1647 -0.0123
40245DOD     C264555   5.391  29.664   3.916  0.2191  0.2490  0.0164
40245DOD     C364556   5.056  29.348   3.884 -0.1903  0.0200  0.1542
40246DOD     C164557  13.747  28.087   0.396 -0.0670 -0.0813  0.1368
40246DOD     C264558  13.904  27.623   0.360  0.2508  0.0376 -0.4814
40246DOD     C364559  14.026  27.357   0.669 -0.2414  0.1730  0.3704
40247DOD     C164560  18.940   8.554   1.402 -0.0894  0.0632  0.2893
40247DOD     C264561  19.337   8.690   1.166 -0.1108 -0.0786 -0.0841
40247DOD     C364562  19.455   9.164   1.213  0.1608  0.2931 -0.0686
40248DOD     C164563  25.988   3.900  26.896  0.2094  0.0542  0.1555
40248DOD     C264564  25.949   3.847  27.399 -0.1201 -0.0081 -0.0358
40248DOD     C364565  26.187   3.549  27.602  0.4335 -0.0090 -0.0468
40249DOD     C164566   7.006  20.479   7.363  0.2061  0.2603  0.0194
40249DOD     C264567   6.540  20.505   7.304  0.0834 -0.0814 -0.1081
40249DOD     C364568   6.210  20.432   7.682 -0.2735  0.0300 -0.2127
40250DOD     C164569  13.077  25.477  28.089  0.1493 -0.1931  0.0978
40250DOD     C264570  13.323  25.781  28.394 -0.1003  0.1607 -0.1282
40250DOD     C364571  13.467  26.236  28.444  0.0028 -0.0783  0.3897
40251DOD     C164572  14.604  20.047  28.263  0.0454  0.2296 -0.6256
40251DOD     C264573  15.029  19.954  28.135  0.2915  0.3624 -0.2678
40251DOD     C364574  15.255  19.643  27.901 -0.2638  0.0679 -0.2333
40252DOD     C164575  10.113   9.509  25.090 -0.0360  0.2270  0.3199
40252DOD     C264576   9.907   9.598  24.647  0.3682 -0.0864  0.0533
40252DOD     C364577   9.812   9.963  24.425  0.0714 -0.0765 -0.2787
40253DOD     C164578  20.627   9.208   6.147 -0.1061 -0.2252  0.2460
40253DOD     C264579  21.054   9.080   5.927  0.0183 -0.2979  0.3481
40253DOD     C364580  21.171   8.712   5.595  0.0674 -0.1550 -0.4000
40254DOD     C164581  16.523  10.373  10.101  0.0409  0.0026  0.0088
40254DOD     C264582  16.367  10.681  10.412  0.0483  0.0942 -0.0745
40254DOD     C364583  16.610  10.972  10.724  0.0627 -0.3040  0.3336
40255DOD     C164584   2.323  18.217  30.193  0.2559 -0.2552 -0.0705
40255DOD     C264585   1.963  17.909  30.255 -0.0608  0.2242  0.0953
40255DOD     C364586   1.636  17.986   0.267  0.0923  0.2130  0.3160
40256DOD     C164587  16.567  20.173  18.134  0.1011 -0.3162  0.4757
40256DOD     C264588  17.069  20.230  18.139 -0.0748  0.0288  0.0459
40256DOD     C364589  17.465  20.133  18.447 -0.0073 -0.0776 -0.1265
40257DOD     C164590   8.257  27.335   5.859  0.2612  0.1484 -0.4016
40257DOD     C264591   7.751  27.318   5.992 -0.1783  0.0198  0.0438
40257DOD     C364592   7.430  27.583   5.865 -0.1540 -0.0563  0.2743
40258DOD     C164593  27.984  20.467   9.342  0.0683  0.1445 -0.3864
40258DOD     C264594  27.684  20.728   9.044 -0.2225  0.3531 -0.1598
40258DOD     C364595  27.400  21.061   8.965  0.1918  0.1634 -0.2254
40259DOD     C164596  14.680  24.503  24.546  0.1286  0.1240 -0.0530
40259DOD     C264597  14.289  24.651  24.843 -0.1006  0.1049  0.1521
40259DOD     C364598  13.861  24.909  24.831 -0.0041  0.1260 -0.1548
40260DOD     C164599  25.227  10.749  18.517  0.0897  0.1095 -0.1484
40260DOD     C264600  25.194  10.775  18.013 -0.0451  0.4134  0.0641
40260DOD     C364601  25.098  11.231  17.858  0.0853 -0.1624 -0.0193
40261DOD     C164602   6.922  10.307  24.389 -0.2134  0.1660 -0.2182
40261DOD     C264603   6.545  10.453  24.053  0.0876  0.0769  0.0773
40261DOD     C364604   6.183  10.657  23.890 -0.0697  0.0980  0.0039
40262DOD     C164605  22.650  19.661  15.074  0.0246  0.0710  0.0177
40262DOD     C264606  22.959  19.695  14.722  0.1135  0.0230 -0.0341
40262DOD     C364607  22.766  19.605  14.264  0.2946  0.1050 -0.3767
40263DOD     C164608  23.637  30.064   5.768  0.0446  0.2480  0.2760
40263DOD     C264609  23.387  30.114   6.105 -0.0973 -0.0693  0.0550
40263DOD     C364610  23.209  29.892   6.457  0.6041 -0.0013 -0.1450
40264DOD     C164611  23.998  20.887  12.897 -0.2248 -0.0342 -0.0057
40264DOD     C264612  24.404  21.094  13.102 -0.2873 -0.0400 -0.1754
40264DOD     C364613  24.728  21.419  13.044  0.1345 -0.0501  0.1208
40265DOD     C164614   9.961  27.463   1.359  0.0260  0.0547 -0.1610
40265DOD     C264615  10.033  27.916   1.127 -0.1541 -0.3261  0.0143
40265DOD     C364616   9.793  28.170   0.804 -0.0782 -0.1853 -0.1140
40266DOD     C164617  18.672   0.288   9.693 -0.0246 -0.1105 -0.2320
40266DOD     C264618  18.418   0.197   9.378 -0.0311  0.0583 -0.0909
40266DOD     C364619  18.070  -0.032   9.135 -0.1388 -0.1731 -0.0006
40267DOD     C164620  28.023   2.823  19.865 -0.0222 -0.1030 -0.3938
40267DOD     C264621  28.441   2.653  19.822  0.0551 -0.2258  0.1268
40267DOD     C364622  28.903   2.780  19.718  0.2562 -0.0050 -0.3664
40268DOD     C164623  15.052  18.167  26.172  0.0460  0.2368 -0.1405
40268DOD     C264624  14.770  18.192  25.774 -0.0029 -0.0723 -0.4147
40268DOD     C364625  14.448  17.933  25.649  0.0981  0.0537  0.0199
40269DOD     C164626  16.651  19.502   9.360  0.0027 -0.1854  0.1647
40269DOD     C264627  16.975  19.817   9.213  0.3269  0.0009 -0.0292
40269DOD     C364628  17.230  20.221   9.240  0.4100 -0.2420  0.0331
40270DOD     C164629  23.211  24.735  26.852 -0.0961  0.2264  0.0230
40270DOD     C264630  23.338  24.552  27.254  0.0138  0.3755 -0.0262
40270DOD     C364631  23.354  24.274  27.650 -0.1226 -0.0683  0.0903
40271DOD     C164632   4.169   7.794   6.903  0.1474 -0.1687 -0.0311
40271DOD     C264633   4.255   7.350   6.928 -0.0282 -0.0353 -0.0749
40271DOD     C364634   4.039   7.035   6.660  0.0400 -0.1175  0.4873
40272DOD     C164635  16.521  24.991  17.000  0.1049 -0.0930  0.0407
40272DOD     C264636  16.510  25.402  17.258  0.0291 -0.0604  0.2814
40272DOD     C364637  16.325  25.639  17.656 -0.1297 -0.1256  0.0306
40273DOD     C164638   7.395  20.201  28.708 -0.4310 -0.1233 -0.0080
40273DOD     C264639   7.374  20.314  28.194 -0.0079  0.0110 -0.0203
40273DOD     C364640   7.794  20.532  28.036 -0.0953 -0.0457 -0.2369
40274DOD     C164641  27.383  21.815  16.256 -0.0534  0.1514 -0.4153
40274DOD     C264642  27.136  21.537  15.911 -0.1297  0.1106  0.0864
40274DOD     C364643  27.335  21.241  15.567  0.0873 -0.1878 -0.4907
40275DOD     C164644   3.808  24.811   5.579  0.4356 -0.0785  0.0427
40275DOD     C264645   3.924  24.792   6.031 -0.1774  0.1948  0.0225
40275DOD     C364646   3.916  25.037   6.408  0.1389  0.0654  0.1675
40276DOD     C164647  23.156  19.282   4.816  0.1259  0.1469 -0.5609
40276DOD     C264648  22.689  19.459   4.966  0.1488 -0.0321  0.0235
40276DOD     C364649  22.353  19.819   4.960 -0.4641 -0.0132  0.0106
40277DOD     C164650  15.112   3.247  21.677  0.0422 -0.1535  0.1839
40277DOD     C264651  14.789   3.422  21.942  0.1776 -0.0452 -0.3258
40277DOD     C364652  14.857   3.553  22.416  0.1655 -0.1778 -0.1543
40278DOD     C164653   7.643   1.314  13.136  0.2872 -0.0999  0.0362
40278DOD     C264654   7.638   0.876  12.951  0.4716 -0.0702  0.2705
40278DOD     C364655   7.240   0.635  12.918 -0.3337  0.3427 -0.1549
40279DOD     C164656  12.379  14.626   9.443  0.1343 -0.0499  0.1897
40279DOD     C264657  11.950  14.870   9.524 -0.0558 -0.1600 -0.3021
40279DOD     C364658  11.528  14.970   9.665  0.1882 -0.1718  0.0540
40280DOD     C164659  29.931   1.273  28.241 -0.3511  0.0913 -0.0156
40280DOD     C264660  29.758   1.540  28.614  0.0528 -0.0496 -0.1377
40280DOD     C364661  29.834   1.825  28.973 -0.0018  0.2158 -0.1192
40281DOD     C164662  27.318  28.560  27.372  0.0620 -0.0226 -0.3283
40281DOD     C264663  27.302  28.219  26.998  0.0042 -0.2937 -0.2704
40281DOD     C364664  27.209  27.802  26.745 -0.2403  0.0665 -0.1214
40282DOD     C164665  16.278   0.876   3.105 -0.1788  0.0867  0.1249
40282DOD     C264666  16.660   1.073   3.022  0.1255 -0.2929  0.2496
40282DOD     C364667  17.122   1.049   3.165  0.0536  0.1163  0.1332
40283DOD     C164668  26.147  25.837  12.260  0.0414  0.1441  0.1036
40283DOD     C264669  26.305  25.938  12.704 -0.0905 -0.1280  0.2593
40283DOD     C364670  26.291  25.861  13.147 -0.1494 -0.0485 -0.3195
40284DOD     C164671   4.130  21.824   3.813  0.0081 -0.1220  0.0795
40284DOD     C264672   3.721  21.851   4.089 -0.4787 -0.2769 -0.0830
40284DOD     C364673   3.254  21.983   4.070 -0.2100 -0.0310  0.0100
40285DOD     C164674  21.715   6.008  19.411 -0.0608  0.0077 -0.0534
40285DOD     C264675  21.318   6.043  19.576 -0.2417  0.1765  0.1978
40285DOD     C364676  20.871   6.110  19.673 -0.0490  0.0019  0.4202
40286DOD     C164677   1.986  25.002  20.694  0.0678  0.1921 -0.0498
40286DOD     C264678   1.552  24.955  20.953 -0.2760 -0.3182  0.2270
40286DOD     C364679   1.136  25.107  21.183  0.0415  0.1300 -0.0368
40287DOD     C164680  12.917  21.549  18.305 -0.2470 -0.4503 -0.0500
40287DOD     C264681  12.751  21.148  18.233 -0.1718  0.0895 -0.0357
40287DOD     C364682  12.680  20.686  18.120 -0.1878  0.0574  0.1282
40288DOD     C164683  17.845  16.020   3.080  0.0601  0.0344  0.2621
40288DOD     C264684  18.051  15.592   2.902  0.0624  0.2677  0.0088
40288DOD     C364685  18.418  15.510   2.639 -0.0279 -0.0140  0.3068
40289DOD     C164686  10.589  15.396  12.114 -0.0235  0.0745 -0.1775
40289DOD     C264687  10.477  15.119  11.694  0.3630  0.0771 -0.1143
40289DOD     C364688  10.517  15.284  11.256  0.1274  0.2244 -0.1838
40290DOD     C164689  11.038   5.842  29.953 -0.0960  0.0395 -0.1469
40290DOD     C264690  10.573   5.859  30.040 -0.0131 -0.2911  0.0833
40290DOD     C364691  10.108   5.984  29.974  0.4076 -0.0516 -0.1188
40291DOD     C164692  14.300  12.271   0.231  0.2247  0.0785 -0.0127
40291DOD     C264693  13.995  11.905   0.412  0.2076 -0.2579  0.1115
40291DOD     C364694  13.916  11.938   0.838 -0.0535  0.0080 -0.1723
40292DOD     C164695   2.070  24.391  11.766  0.1956  0.1381  0.0290
40292DOD     C264696   2.250  24.764  12.016  0.0339  0.0507 -0.0688
40292DOD     C364697   2.510  25.155  12.048  0.1348  0.1224 -0.0075
40293DOD     C164698   8.789  29.752  15.706  0.0350 -0.1537 -0.0781
40293DOD     C264699   9.253  29.815  15.687  0.0298 -0.0090 -0.0647
40293DOD     C364700   9.683  29.816  15.754 -0.0387 -0.0870  0.1138
40294DOD     C164701  16.049  22.788   3.799  0.2434  0.2530  0.2550
40294DOD     C264702  15.694  23.077   3.942  0.2978  0.0466 -0.1654
40294DOD     C364703  15.250  23.069   3.914 -0.0179  0.0176 -0.0213
40295DOD     C164704   4.181  10.838   6.942  0.1636  0.2101  0.0768
40295DOD     C264705   4.586  10.843   6.807  0.3505  0.1873 -0.0839
40295DOD     C364706   4.811  10.890   6.393 -0.2569  0.0168  0.0590
40296DOD     C164707  21.606   7.225  20.798  0.1045  0.0969  0.1038
40296DOD     C264708  21.133   7.046  20.783 -0.1525  0.0985  0.2203
40296DOD     C364709  20.807   6.994  21.080 -0.1284  0.1277 -0.2431
40297DOD     C164710   2.189   2.927  12.856 -0.1459 -0.2355  0.0262
40297DOD     C264711   2.588   2.658  12.953  0.3434 -0.0596  0.0772
40297DOD     C364712   2.999   2.540  12.818  0.1496  0.1002  0.3324
40298DOD     C164713   9.462   6.872   4.645  0.0774 -0.0471  0.0285
40298DOD     C264714   9.362   6.430   4.556  0.4940 -0.1786  0.0130
40298DOD     C364715   9.193   6.100   4.284  0.1407 -0.0090  0.2672
40299DOD     C164716  10.852  20.617  21.759 -0.2393  0.3584  0.0204
40299DOD     C264717  10.784  20.119  21.839  0.1958  0.2904  0.5439
40299DOD     C364718  10.439  19.762  21.906 -0.1615 -0.1360 -0.0384
40300DOD     C164719  29.937  10.676   3.767 -0.0390 -0.0113  0.2015
40300DOD     C264720  30.273  10.716   3.389  0.2198 -0.0576  0.1388
40300DOD     C364721   0.363  10.526   3.188  0.1717 -0.1629  0.0127
40301DOD     C164722  21.078   4.995  26.941  0.1869 -0.2280 -0.1236
40301DOD     C264723  21.035   4.842  26.480  0.0409 -0.0890  0.0499
40301DOD     C364724  21.114   4.951  26.026  0.0001 -0.0482  0.0806
40302DOD     C164725  25.225  15.312  22.197 -0.1704 -0.2408 -0.1877
40302DOD     C264726  25.173  14.859  22.071  0.1618 -0.0133  0.4797
40302DOD     C364727  25.370  14.442  22.069  0.1595 -0.0815 -0.0107
40303DOD     C164728  19.463   2.156  29.096 -0.0441 -0.0542  0.3753
40303DOD     C264729  19.463   1.681  28.959 -0.0880  0.0836 -0.0396
40303DOD     C364730  19.555   1.249  28.809 -0.0307 -0.3140 -0.2349
40304DOD     C164731  12.603  22.222  29.908  0.0804 -0.2915 -0.2024
40304DOD     C264732  12.537  22.632  30.057 -0.1903 -0.3135 -0.1019
40304DOD     C364733  12.336  23.045  29.890  0.3290 -0.0239  0.1418
40305DOD     C164734  14.259  27.584  18.828 -0.5825 -0.4003 -0.3465
40305DOD     C264735  14.255  27.161  19.154 -0.1253  0.0647  0.0788
40305DOD     C364736  14.173  27.056  19.622  0.2309  0.0349 -0.3056
40306DOD     C164737  17.547   3.460  28.998 -0.1721  0.2489 -0.1861
40306DOD     C264738  17.761   3.852  28.809 -0.1195  0.5266 -0.1123
40306DOD     C364739  17.799   4.147  28.442  0.3583  0.0572 -0.1487
40307DOD     C164740  21.953  10.038  20.129  0.0663  0.1183  0.1360
40307DOD     C264741  22.219   9.628  20.097  0.1818  0.3918 -0.5064
40307DOD     C364742  22.327   9.163  20.095 -0.3021 -0.2981 -0.0927
40308DOD     C164743  15.042   0.338  14.564  0.2214 -0.2111 -0.5144
40308DOD     C264744  14.800   0.108  14.861  0.2529  0.1853 -0.1771
40308DOD     C364745  14.772   0.048  15.347  0.0410 -0.0846  0.1250
40309DOD     C164746   2.965   8.597  11.780 -0.0129 -0.1584  0.1336
40309DOD     C264747   3.419   8.519  11.697 -0.0527  0.1089  0.0863
40309DOD     C364748   3.866   8.537  11.857  0.0874 -0.2510  0.1355
40310DOD     C164749   4.741   3.520   9.483  0.3000 -0.1282  0.3252
40310DOD     C264750   4.878   3.372   9.056  0.0538  0.0304  0.0109
40310DOD     C364751   5.192   3.536   8.751  0.0378 -0.2071 -0.0332
40311DOD     C164752  24.367  16.524  15.705  0.0740  0.0574 -0.1194
40311DOD     C264753  24.385  16.782  16.082  0.2349  0.0216 -0.1473
40311DOD     C364754  24.744  16.719  16.396 -0.0992 -0.2898  0.0263
40312DOD     C164755   1.847  26.286  20.419  0.0334 -0.1541  0.0891
40312DOD     C264756   1.587  25.880  20.340  0.1066  0.3374  0.2713
40312DOD     C364757   1.680  25.437  20.472  0.0225  0.1109 -0.4797
40313DOD     C164758   7.898  20.944  15.093  0.0395  0.0168  0.0620
40313DOD     C264759   8.179  20.592  15.035 -0.1592 -0.2111  0.3311
40313DOD     C364760   8.192  20.097  14.996 -0.0208  0.1191  0.3008
40314DOD     C164761   5.321  13.695  20.086 -0.1865  0.0052  0.3643
40314DOD     C264762   4.904  13.710  19.878  0.1925 -0.1800  0.0546
40314DOD     C364763   4.714  13.446  19.567 -0.1332  0.0823  0.2801
40315DOD     C164764   5.517  25.549  13.515 -0.0850 -0.1012 -0.1277
40315DOD     C264765   5.905  25.557  13.808 -0.1684 -0.3572  0.2845
40315DOD     C364766   6.178  25.624  14.159 -0.3528 -0.0242  0.0710
40316DOD     C164767  26.800   9.266  17.812 -0.0699  0.0295 -0.0567
40316DOD     C264768  26.354   9.182  17.636 -0.3540  0.2151  0.0845
40316DOD     C364769  26.099   9.439  17.318 -0.2962  0.0167 -0.0647
40317DOD     C164770   2.408   5.195  25.603 -0.1855 -0.1356  0.1157
40317DOD     C264771   2.786   5.145  25.327  0.0756 -0.0682 -0.0739
40317DOD     C364772   3.129   5.082  25.655  0.0331 -0.0044 -0.0231
40318DOD     C164773   7.721  11.587  10.838  0.3299  0.1012 -0.3370
40318DOD     C264774   7.929  11.353  11.207 -0.4877  0.0970  0.5405
40318DOD     C364775   8.057  10.875  11.109 -0.3976  0.0796  0.2375
40319DOD     C164776  19.136  30.175   6.680 -0.0847 -0.0649 -0.1903
40319DOD     C264777  19.361  29.872   6.388  0.0695  0.0055 -0.0588
40319DOD     C364778  19.808  29.677   6.449 -0.0888  0.0060 -0.0612
40320DOD     C164779  29.464  16.506  11.483 -0.1094 -0.0402  0.1092
40320DOD     C264780  29.100  16.220  11.539  0.1450 -0.2298 -0.3576
40320DOD     C364781  28.777  16.097  11.253  0.0240  0.4006 -0.3087
40321DOD     C164782   3.157  10.164   4.754  0.2094 -0.1292 -0.2166
40321DOD     C264783   3.480  10.168   5.011 -0.0055  0.2272  0.0682
40321DOD     C364784   3.797   9.880   5.238  0.1058  0.0760 -0.2011
40322DOD     C164785   8.374  20.725   9.578  0.0784  0.1454 -0.0021
40322DOD     C264786   8.527  20.829   9.986  0.0708 -0.0495  0.1261
40322DOD     C364787   8.958  20.829  10.088 -0.2906 -0.0537 -0.0094
40323DOD     C164788  13.560   9.947  24.283  0.0541  0.2268  0.0905
40323DOD     C264789  13.107   9.913  24.470  0.0145 -0.0310 -0.1171
40323DOD     C364790  12.645  10.049  24.253  0.1598 -0.2328  0.2965
40324DOD     C164791   3.003  18.852   2.163 -0.2533  0.1508 -0.0202
40324DOD     C264792   2.557  18.729   2.306  0.2959 -0.0117  0.0262
40324DOD     C364793   2.276  18.851   2.686 -0.1243 -0.3187 -0.1224
40325DOD     C164794  29.004  29.563   2.846 -0.0474  0.1371  0.1725
40325DOD     C264795  29.201  29.708   2.441  0.1822  0.0131 -0.0626
40325DOD     C364796  29.466  29.621   2.056 -0.2260 -0.1337 -0.0893
40326DOD     C164797  16.220  29.018  18.881  0.2729 -0.2090 -0.0683
40326DOD     C264798  15.941  28.684  18.918  0.0940 -0.0133 -0.0970
40326DOD     C364799  16.013  28.261  18.965 -0.1319  0.0780  0.1556
40327DOD     C164800  12.188  22.859  17.291 -0.0297 -0.1326  0.0459
40327DOD     C264801  12.159  23.112  17.722  0.3565 -0.1848 -0.0068
40327DOD     C364802  11.940  23.468  17.868  0.3493 -0.0905  0.1662
40328DOD     C164803   5.426  28.426  22.483  0.1412  0.2099  0.2094
40328DOD     C264804   5.582  28.699  22.804  0.2030  0.0771 -0.0546
40328DOD     C364805   5.820  28.788  23.169 -0.4563  0.1906 -0.0377
40329DOD     C164806   5.419  29.032  14.642  0.1235  0.0089  0.2879
40329DOD     C264807   5.152  28.925  15.022 -0.0707  0.1920 -0.0621
40329DOD     C364808   4.855  29.175  15.345  0.1255  0.0163 -0.0431
40330DOD     C164809   9.451  17.946   0.523 -0.0877  0.1715  0.1294
40330DOD     C264810   9.214  18.341   0.667  0.1558  0.0806  0.3596
40330DOD     C364811   8.867  18.566   0.860  0.0129 -0.2295  0.0698
40331DOD     C164812  11.103   3.553   7.371  0.0596  0.4798  0.2885
40331DOD     C264813  10.947   3.762   7.726  0.1021 -0.0080 -0.0988
40331DOD     C364814  10.625   3.989   7.965 -0.1973 -0.0421 -0.0107
40332DOD     C164815  16.111   3.969  25.438  0.0152  0.4497 -0.0010
40332DOD     C264816  15.842   3.577  25.295 -0.5744 -0.0077  0.0299
40332DOD     C364817  15.729   3.252  25.621 -0.0897 -0.2334 -0.1428
40333DOD     C164818  19.591  22.487  15.341 -0.2129 -0.1310 -0.0429
40333DOD     C264819  19.262  22.355  15.048  0.1427 -0.1700  0.1133
40333DOD     C364820  19.217  22.524  14.601 -0.0633  0.0623  0.0698
40334DOD     C164821   1.155   5.217  28.011 -0.0469  0.0864 -0.3185
40334DOD     C264822   0.884   4.879  28.167 -0.3241 -0.1480 -0.2678
40334DOD     C364823   0.770   4.445  28.074 -0.0014 -0.1754 -0.0162
40335DOD     C164824  14.901  21.789  11.033  0.0570  0.3229 -0.0191
40335DOD     C264825  15.204  21.532  11.294  0.1773  0.2089  0.1175
40335DOD     C364826  15.419  21.310  10.956 -0.1272 -0.0477  0.1896
40336DOD     C164827  15.031  21.262   6.045  0.5105 -0.1237 -0.0085
40336DOD     C264828  15.354  21.039   6.287 -0.0409  0.0208 -0.2574
40336DOD     C364829  15.841  21.038   6.378  0.0654  0.0758 -0.0970
40337DOD     C164830   4.896  17.001   7.778 -0.1877  0.0779  0.0002
40337DOD     C264831   5.196  17.323   7.927 -0.2458  0.2619 -0.0493
40337DOD     C364832   5.657  17.409   7.944 -0.0287 -0.2406 -0.3373
40338DOD     C164833  23.943   3.227  21.255 -0.1459  0.1072 -0.1661
40338DOD     C264834  23.713   2.878  21.239 -0.0317  0.2795  0.1615
40338DOD     C364835  23.432   2.481  21.130  0.2475  0.0893 -0.0235
40339DOD     C164836  15.247  19.085   5.118 -0.0237  0.0733  0.2187
40339DOD     C264837  15.339  19.494   5.356  0.0160 -0.1117 -0.1520
40339DOD     C364838  15.373  19.980   5.476  0.0487  0.1205  0.2306
40340DOD     C164839  18.615   5.298  28.501  0.0755 -0.0131 -0.2311
40340DOD     C264840  18.681   4.849  28.682  0.0189 -0.2817  0.1271
40340DOD     C364841  18.573   4.527  28.974 -0.0838  0.1536 -0.1050
40341DOD     C164842   4.634  10.362  16.776 -0.2216  0.3991 -0.2390
40341DOD     C264843   4.606  10.474  17.203  0.0204 -0.0186  0.2659
40341DOD     C364844   4.242  10.429  17.543 -0.0497 -0.1800 -0.1522
40342DOD     C164845  29.668   8.183  30.067  0.2930 -0.0243 -0.1415
40342DOD     C264846  29.709   8.619  30.216 -0.0305 -0.1750  0.3315
40342DOD     C364847  29.807   9.043  29.946  0.0932  0.0030 -0.1563
40343DOD     C164848  11.136  29.680  21.603 -0.1610 -0.0921  0.0278
40343DOD     C264849  11.326  29.271  21.674 -0.3814  0.1105  0.2660
40343DOD     C364850  11.367  28.802  21.636 -0.0372 -0.1208 -0.1503
40344DOD     C164851   3.963   9.036   1.091  0.0692 -0.1704 -0.1224
40344DOD     C264852   4.163   9.196   1.464  0.0528  0.0685 -0.3194
40344DOD     C364853   4.509   9.200   1.832  0.0488  0.4211  0.1477
40345DOD     C164854  18.556   7.385  17.481 -0.2009  0.1008  0.1982
40345DOD     C264855  18.341   7.373  17.037 -0.1249  0.0975 -0.0613
40345DOD     C364856  18.543   7.544  16.641 -0.2013 -0.0261  0.0518
40346DOD     C164857   5.181  17.315  13.254  0.1843 -0.0822  0.0353
40346DOD     C264858   5.469  17.015  13.495  0.2599  0.1567 -0.2596
40346DOD     C364859   5.636  16.574  13.586 -0.2549  0.1456 -0.0219
40347DOD     C164860  20.407  21.179  10.925  0.0181  0.1202 -0.1347
40347DOD     C264861  19.953  21.244  10.736  0.0127  0.0285 -0.0482
40347DOD     C364862  19.654  21.359  10.389  0.0963 -0.1145  0.1236
40348DOD     C164863   9.762   5.219  26.974 -0.0571  0.1221 -0.3298
40348DOD     C264864   9.316   5.256  27.214  0.0116  0.2176  0.2940
40348DOD     C364865   8.972   5.255  27.375  0.3361  0.1291  0.2798
40349DOD     C164866  21.714  17.784  11.464 -0.0064  0.0285  0.1245
40349DOD     C264867  21.759  17.362  11.652 -0.1856 -0.0328  0.3091
40349DOD     C364868  22.088  17.117  11.875 -0.1962  0.0503 -0.1215
40350DOD     C164869   1.795   2.476  13.099 -0.1149 -0.1983  0.2189
40350DOD     C264870   2.194   2.369  12.921 -0.1654 -0.0904 -0.5635
40350DOD     C364871   2.484   2.278  12.572 -0.0399  0.0576  0.0224
40351DOD     C164872  26.054   3.835   9.903  0.3445 -0.0584  0.1976
40351DOD     C264873  25.976   3.577   9.466  0.0292 -0.0167  0.3379
40351DOD     C364874  26.344   3.416   9.154  0.0595  0.0836  0.0190
40352DOD     C164875  24.583  15.827  10.133  0.0695  0.0341  0.2594
40352DOD     C264876  24.283  15.637  10.425  0.3313 -0.1275 -0.2671
40352DOD     C364877  24.252  15.360  10.775  0.0344  0.2243 -0.0164
40353DOD     C164878  25.288  15.836  22.052  0.0959 -0.1842 -0.0729
40353DOD     C264879  25.495  15.458  21.806  0.1490  0.0869 -0.0998
40353DOD     C364880  25.868  15.237  21.656 -0.0542  0.1383 -0.1855
40354DOD     C164881   6.476  16.360   1.126 -0.2319  0.1338  0.0142
40354DOD     C264882   6.416  16.524   0.707  0.4220  0.2574 -0.3783
40354DOD     C364883   6.425  16.730   0.273  0.2763  0.0766 -0.0304
40355DOD     C164884   1.229  20.197  23.210 -0.1349  0.1757  0.1021
40355DOD     C264885   1.571  19.907  23.280  0.2949  0.2487  0.2374
40355DOD     C364886   1.957  19.739  23.523  0.1681  0.1566  0.0378
40356DOD     C164887   1.166  12.175  29.880  0.1764  0.2057  0.1745
40356DOD     C264888   1.420  12.354  30.272  0.1297 -0.1640  0.0396
40356DOD     C364889   1.767  12.563   0.299  0.0262  0.2478  0.0259
40357DOD     C164890   0.703  30.067  20.185 -0.1953 -0.2160 -0.0958
40357DOD     C264891   0.668   0.187  20.150  0.1805 -0.0490 -0.0774
40357DOD     C364892   0.968   0.451  20.253 -0.0260 -0.0268 -0.2909
40358DOD     C164893  25.505  26.055  19.742  0.0354  0.0081  0.2826
40358DOD     C264894  25.618  25.640  19.558  0.2578 -0.1977  0.2197
40358DOD     C364895  25.780  25.264  19.759 -0.0043  0.1788  0.0263
40359DOD     C164896  10.191   3.761  26.721 -0.1354  0.0590 -0.1063
40359DOD     C264897   9.779   3.563  26.521  0.0464 -0.0882 -0.0915
40359DOD     C364898   9.692   3.143  26.777  0.1294 -0.0707 -0.0471
40360DOD     C164899  15.825  27.602  18.019  0.0329  0.0484 -0.0409
40360DOD     C264900  15.649  27.657  18.464  0.0577  0.2267 -0.0277
40360DOD     C364901  15.798  27.855  18.852  0.1975  0.1402  0.0201
40361DOD     C164902  18.646   9.354   9.349  0.0774 -0.1330  0.0253
40361DOD     C264903  18.276   9.127   9.214 -0.0850 -0.4735 -0.0738
40361DOD     C364904  18.047   8.855   8.886  0.0766 -0.1667 -0.0946
40362DOD     C164905  18.331   5.275   7.128 -0.2795  0.1405  0.0879
40362DOD     C264906  18.138   5.679   7.167  0.0079  0.0011 -0.0883
40362DOD     C364907  17.871   6.075   7.339  0.0147  0.0083 -0.0032
40363DOD     C164908  25.295  22.190  19.981 -0.0128  0.1061 -0.0224
40363DOD     C264909  25.306  22.484  19.637  0.0252 -0.2168  0.0728
40363DOD     C364910  25.063  22.794  19.508 -0.3056 -0.1636  0.2651
40364DOD     C164911  11.444  23.242   6.950 -0.2731  0.0277  0.1436
40364DOD     C264912  11.540  22.859   7.176  0.2209  0.1840 -0.1429
40364DOD     C364913  11.702  22.492   7.430  0.1474 -0.0322 -0.1021
40365DOD     C164914  20.953   6.229  12.334 -0.1824  0.1981  0.1023
40365DOD     C264915  21.398   6.218  12.301  0.0782  0.1146 -0.2151
40365DOD     C364916  21.768   5.864  12.397 -0.2783  0.1463 -0.1047
40366DOD     C164917  26.935   1.748   5.092 -0.0297 -0.1033 -0.0143
40366DOD     C264918  26.493   1.869   4.900  0.0683 -0.0538 -0.5237
40366DOD     C364919  26.064   1.668   5.101 -0.0978 -0.2013  0.0880
40367DOD     C164920  29.191   0.905  24.913  0.0209 -0.1913 -0.1076
40367DOD     C264921  28.907   1.097  25.187 -0.2092 -0.2558  0.0521
40367DOD     C364922  28.912   1.593  25.222  0.0551  0.0248  0.1372
40368DOD     C164923   8.328  11.796  10.937  0.0886  0.0903  0.2539
40368DOD     C264924   7.973  11.822  11.269  0.0078 -0.1010 -0.0410
40368DOD     C364925   7.762  11.729  11.596 -0.1093 -0.2387  0.2172
40369DOD     C164926  11.779  10.197   9.405 -0.4142 -0.1381  0.1231
40369DOD     C264927  11.366   9.975   9.479  0.1677  0.1404 -0.3428
40369DOD     C364928  10.923  10.081   9.382 -0.3033  0.2012 -0.0441
40370DOD     C164929   9.510  21.396  15.416  0.3081  0.1713 -0.1236
40370DOD     C264930   9.080  21.509  15.601  0.1053  0.0754  0.0571
40370DOD     C364931   8.708  21.597  15.831  0.4585  0.1932 -0.3061
40371DOD     C164932  25.419  27.986   7.909 -0.0575  0.0376 -0.2685
40371DOD     C264933  24.996  27.833   7.760 -0.0875 -0.0458  0.0149
40371DOD     C364934  24.649  27.606   7.570  0.1911  0.1143  0.2134
40372DOD     C164935   6.543  12.679   6.806 -0.1327  0.0959 -0.0317
40372DOD     C264936   6.420  12.201   6.938 -0.1052 -0.0413 -0.2583
40372DOD     C364937   6.193  11.773   7.013  0.1436  0.2675 -0.0350
40373DOD     C164938   5.565   9.275   2.470 -0.2504  0.1937 -0.1257
40373DOD     C264939   5.483   9.463   2.029  0.0803  0.0627 -0.0121
40373DOD     C364940   5.416   9.839   1.767  0.3308  0.0604 -0.3417
40374DOD     C164941  29.364  18.848  11.637  0.1076  0.1272 -0.2525
40374DOD     C264942  29.547  19.277  11.566 -0.2222  0.1641 -0.3976
40374DOD     C364943  29.612  19.715  11.454 -0.2256  0.2656 -0.1795
40375DOD     C164944   6.162  15.678  24.307  0.0903 -0.0417  0.1589
40375DOD     C264945   6.399  16.079  24.452 -0.0615  0.0351  0.0627
40375DOD     C364946   6.625  16.323  24.192 -0.0035  0.0545  0.1018
40376DOD     C164947   5.526   9.767  12.306  0.1537 -0.1093 -0.3072
40376DOD     C264948   5.802   9.696  11.955 -0.3303  0.2941  0.0757
40376DOD     C364949   6.188   9.396  11.823  0.1062 -0.0758  0.1123
40377DOD     C164950  25.875   3.257  14.864 -0.2329  0.0480  0.0748
40377DOD     C264951  25.872   3.230  15.384  0.1328 -0.0344  0.0189
40377DOD     C364952  25.803   3.315  15.838  0.1012 -0.0044 -0.1366
40378DOD     C164953  24.849  20.739  18.685  0.0478 -0.0728 -0.5675
40378DOD     C264954  24.906  20.887  18.261  0.0242 -0.2039 -0.2779
40378DOD     C364955  24.733  21.015  17.818 -0.1039  0.0777  0.0789
40379DOD     C164956  17.731   6.286   7.986  0.0907 -0.0577  0.2365
40379DOD     C264957  17.547   6.620   8.239  0.1967  0.5391 -0.2543
40379DOD     C364958  17.591   6.988   8.503  0.0916 -0.4550  0.0624
40380DOD     C164959  17.077  24.434   0.552  0.1141  0.0798  0.5030
40380DOD     C264960  17.049  24.754   0.236  0.0718 -0.1867 -0.2056
40380DOD     C364961  17.290  24.778  30.146  0.3160 -0.0252  0.0211
40381DOD     C164962  24.198  19.619   5.834 -0.0061  0.2795  0.3578
40381DOD     C264963  24.147  19.937   6.183  0.1436  0.3122  0.3805
40381DOD     C364964  23.983  20.306   6.314 -0.0223 -0.4960  0.1113
40382DOD     C164965  16.462  20.498  25.916 -0.1264 -0.1987  0.0430
40382DOD     C264966  16.406  20.809  26.246 -0.2182 -0.1057  0.0051
40382DOD     C364967  16.478  21.260  26.321 -0.2311 -0.1580 -0.0198
40383DOD     C164968  18.500  13.499  12.896  0.0393  0.3116 -0.0883
40383DOD     C264969  18.383  13.107  13.033  0.2954 -0.3532 -0.1956
40383DOD     C364970  18.191  12.702  13.217 -0.0732  0.2853  0.2821
40384DOD     C164971   4.706  24.396  26.035  0.1562 -0.0663  0.0945
40384DOD     C264972   4.407  24.259  26.403 -0.2816  0.1480  0.0340
40384DOD     C364973   4.223  23.878  26.559  0.2610  0.0649 -0.1550
40385DOD     C164974  11.982  22.743   4.934 -0.0147 -0.1259  0.3265
40385DOD     C264975  12.242  23.102   4.942 -0.1380 -0.2918 -0.4532
40385DOD     C364976  12.315  23.557   4.878 -0.2942  0.0525 -0.0019
40386DOD     C164977  11.261  19.918   7.247  0.1851  0.0009  0.1981
40386DOD     C264978  10.868  20.162   7.154 -0.0115 -0.2546  0.1189
40386DOD     C364979  10.664  20.465   6.928  0.1030  0.0506  0.3345
40387DOD     C164980  11.514  28.281  11.154  0.4635  0.2565  0.2038
40387DOD     C264981  11.195  27.924  11.284 -0.3470 -0.1525 -0.2337
40387DOD     C364982  11.016  27.558  11.010 -0.2950  0.2531  0.2210
40388DOD     C164983  15.766   3.432   9.275  0.0493  0.2359  0.2911
40388DOD     C264984  15.946   3.124   9.597  0.1081 -0.4899 -0.1127
40388DOD     C364985  15.859   2.901   9.994 -0.0720  0.0976 -0.0471
40389DOD     C164986  28.323   2.048  15.638 -0.1856 -0.1916  0.1073
40389DOD     C264987  28.121   2.154  16.052  0.0491  0.2941 -0.4067
40389DOD     C364988  27.798   2.436  16.139  0.0573  0.2090  0.0216
40390DOD     C164989  12.157  15.938  10.374  0.0654  0.0092 -0.1045
40390DOD     C264990  12.541  16.021  10.165 -0.0772 -0.1228 -0.1546
40390DOD     C364991  12.634  16.014   9.740 -0.0707 -0.2294 -0.0120
40391DOD     C164992  22.249   5.622  12.390 -0.2729  0.0813 -0.2424
40391DOD     C264993  22.324   5.699  11.875 -0.0128  0.2826 -0.0307
40391DOD     C364994  22.338   5.551  11.426  0.1405  0.2100  0.0620
40392DOD     C164995   8.271   7.761  11.419 -0.2342  0.3280 -0.4162
40392DOD     C264996   8.642   7.893  11.684  0.2472  0.1854  0.1115
40392DOD     C364997   8.601   7.973  12.168  0.2110  0.3892 -0.0404
40393DOD     C164998  15.419  27.007  11.158  0.1457  0.1692 -0.1018
40393DOD     C264999  15.460  27.453  11.061 -0.0269 -0.1002 -0.1578
40393DOD     C365000  15.572  27.883  11.178 -0.0677  0.4035 -0.0791
40394DOD     C165001   3.224   5.781   9.168  0.1956 -0.1902  0.3904
40394DOD     C265002   2.994   5.428   9.357  0.1260 -0.0957 -0.0926
40394DOD     C365003   2.530   5.339   9.392 -0.0584 -0.0197  0.0574
40395DOD     C165004   9.591   9.298   7.607  0.2134 -0.1312 -0.0535
40395DOD     C265005  10.065   9.216   7.579 -0.1055  0.0622  0.1050
40395DOD     C365006  10.506   9.411   7.618 -0.2991 -0.2895 -0.3462
40396DOD     C165007  24.264  21.274  24.010 -0.0278 -0.0353 -0.1932
40396DOD     C265008  24.586  20.928  24.169  0.2545 -0.2775  0.3549
40396DOD     C365009  24.998  20.745  23.971 -0.1788  0.1824  0.0713
40397DOD     C165010  10.959  20.045   5.645 -0.0712 -0.3866  0.0985
40397DOD     C265011  10.642  20.353   5.780 -0.3050  0.1455  0.1341
40397DOD     C365012  10.257  20.462   6.054  0.3971  0.0626 -0.1735
40398DOD     C165013  16.173  23.233  19.005 -0.2032 -0.1682  0.0449
40398DOD     C265014  16.444  23.003  19.370 -0.1399  0.1175  0.0356
40398DOD     C365015  16.952  23.014  19.332 -0.0389  0.3277  0.1713
40399DOD     C165016   8.750  16.124   5.392 -0.2687  0.1787  0.1518
40399DOD     C265017   9.063  16.459   5.264  0.1201 -0.1094 -0.3991
40399DOD     C365018   9.308  16.633   4.894  0.0562  0.0732 -0.0790
40400DOD     C165019  20.640   5.113  15.637  0.2814  0.2429 -0.3040
40400DOD     C265020  20.727   4.709  15.820  0.0113  0.0285 -0.1962
40400DOD     C365021  20.967   4.332  15.919  0.0424  0.4172  0.0708
40401DOD     C165022  27.653  11.768  24.166 -0.0001 -0.0507 -0.0027
40401DOD     C265023  27.941  11.691  24.522 -0.1223 -0.2555  0.2399
40401DOD     C365024  28.116  11.996  24.880 -0.2316  0.1588  0.1874
40402DOD     C165025  17.850  16.194  20.601  0.0757  0.1404  0.3035
40402DOD     C265026  17.986  16.632  20.729  0.4883  0.1464 -0.3506
40402DOD     C365027  18.027  17.115  20.594  0.0118  0.0823  0.1277
40403DOD     C165028  15.149  12.268  12.564  0.1397 -0.0104  0.0358
40403DOD     C265029  15.172  12.670  12.443 -0.1769 -0.1357 -0.4294
40403DOD     C365030  15.115  13.073  12.275  0.1287 -0.2258 -0.1712
40404DOD     C165031  12.539  25.534   2.095 -0.1848  0.0898 -0.1259
40404DOD     C265032  12.695  25.186   2.319 -0.1151 -0.2543  0.0869
40404DOD     C365033  12.735  24.697   2.413  0.1268  0.1263 -0.2443
40405DOD     C165034   7.717  18.591  12.218 -0.5582  0.1120 -0.0080
40405DOD     C265035   7.415  18.263  12.213  0.0826  0.1291  0.0967
40405DOD     C365036   7.089  17.929  12.320  0.2439 -0.1787 -0.3635
40406DOD     C165037   2.525  26.539   2.252  0.0091 -0.0203  0.0358
40406DOD     C265038   2.983  26.370   2.111 -0.0067 -0.2446 -0.2584
40406DOD     C365039   3.382  26.023   2.209 -0.0126  0.0566  0.3388
40407DOD     C165040  16.188   5.737  22.128  0.2176 -0.0720 -0.0282
40407DOD     C265041  15.982   6.039  21.881  0.0613 -0.4574 -0.1341
40407DOD     C365042  15.906   6.247  21.501 -0.2077 -0.1697  0.0954
40408DOD     C165043   9.405  28.728  25.271  0.1265  0.1453 -0.1667
40408DOD     C265044   9.447  28.354  25.487 -0.0882  0.2970  0.3185
40408DOD     C365045   9.713  28.075  25.711 -0.0603 -0.1371 -0.1080
40409DOD     C165046   2.149  17.623  12.535  0.1150  0.2319  0.1885
40409DOD     C265047   1.761  17.519  12.245 -0.0128 -0.3269 -0.2621
40409DOD     C365048   1.764  17.240  11.883  0.0534 -0.1671 -0.0872
40410DOD     C165049   9.479  26.813   2.312  0.2007 -0.0352 -0.0459
40410DOD     C265050   9.557  26.605   1.895  0.1410 -0.0376 -0.0347
40410DOD     C365051   9.346  26.204   1.825  0.0812  0.0998 -0.2932
40411DOD     C165052  14.144  24.615  14.917  0.1174 -0.2649  0.1684
40411DOD     C265053  14.228  24.209  15.169 -0.1705 -0.0870  0.0068
40411DOD     C365054  14.235  24.159  15.646  0.1504 -0.0498  0.0579
40412DOD     C165055  27.311   7.052  26.650 -0.1706 -0.0803 -0.1908
40412DOD     C265056  27.471   6.879  27.046  0.0184  0.0137 -0.1999
40412DOD     C365057  27.576   7.073  27.503  0.4109 -0.0602 -0.0557
40413DOD     C165058   2.173   1.245   7.826 -0.0917  0.1594 -0.0230
40413DOD     C265059   2.373   1.657   7.967  0.0309  0.0632  0.0076
40413DOD     C365060   2.774   1.889   7.955 -0.3315 -0.0255  0.0769
40414DOD     C165061   1.130  16.238  17.334 -0.1058  0.0100 -0.0935
40414DOD     C265062   0.701  16.369  17.504  0.1047  0.1539  0.1580
40414DOD     C365063   0.307  16.595  17.545  0.0066 -0.0453 -0.1337
40415DOD     C165064   3.786   3.396  24.179  0.3156  0.0155 -0.0228
40415DOD     C265065   4.162   3.134  24.194  0.2377  0.3768 -0.0922
40415DOD     C365066   4.273   2.712  24.229  0.1552 -0.4909  0.0035
40416DOD     C165067  28.480  12.699  14.958 -0.1718  0.5086  0.1114
40416DOD     C265068  28.252  12.994  15.306 -0.0924  0.3310 -0.2060
40416DOD     C365069  28.285  13.399  15.495 -0.0470 -0.1533  0.0955
40417DOD     C165070   6.095   0.270  19.014  0.0005 -0.2173  0.0001
40417DOD     C265071   5.686   0.057  18.922  0.2661 -0.3484 -0.0062
40417DOD     C365072   5.255   0.158  18.911  0.0502  0.2154  0.0366
40418DOD     C165073   1.834  29.474  28.766  0.1138 -0.0360  0.0446
40418DOD     C265074   1.464  29.353  28.487 -0.3224 -0.3631  0.0115
40418DOD     C365075   1.015  29.172  28.398  0.1699 -0.3020  0.0229
40419DOD     C165076  20.653   9.411  21.496 -0.3465 -0.1493 -0.1000
40419DOD     C265077  20.549   9.034  21.773 -0.0016  0.1220 -0.0508
40419DOD     C365078  20.439   8.612  21.985 -0.2710  0.0059  0.1215
40420DOD     C165079  14.824  29.968  28.783  0.0355 -0.0542 -0.1071
40420DOD     C265080  14.340  29.939  28.876  0.2599  0.1216 -0.1504
40420DOD     C365081  14.034  29.831  29.234  0.0886 -0.1044 -0.1429
40421DOD     C165082  28.931   4.245   1.518 -0.2055 -0.1006 -0.1593
40421DOD     C265083  28.510   4.020   1.498  0.0075 -0.1889 -0.2871
40421DOD     C365084  28.088   3.986   1.336  0.0195  0.1270  0.2447
40422DOD     C165085   0.986  21.916   0.808  0.1313 -0.1243 -0.3618
40422DOD     C265086   0.839  22.392   0.874  0.4427 -0.1769  0.1750
40422DOD     C365087   1.094  22.722   0.826 -0.1042  0.0793  0.0114
40423DOD     C165088  25.761   8.334  14.404 -0.1006  0.0992  0.2448
40423DOD     C265089  25.265   8.378  14.376  0.2292  0.0738 -0.1214
40423DOD     C365090  24.913   8.497  14.642  0.2759 -0.1323  0.0836
40424DOD     C165091  27.203   8.079  25.843  0.2491  0.0597  0.0434
40424DOD     C265092  27.196   7.699  25.953  0.1114  0.0752 -0.0819
40424DOD     C365093  27.130   7.496  26.382 -0.0153  0.1619 -0.0488
40425DOD     C165094  29.504  25.632  26.158  0.1628 -0.0754 -0.2064
40425DOD     C265095  29.917  25.591  25.969 -0.0499 -0.1789 -0.1545
40425DOD     C365096  30.220  25.547  25.699  0.3411 -0.3114 -0.1556
40426DOD     C165097   3.388  13.908  14.783  0.1322 -0.1143 -0.1844
40426DOD     C265098   3.482  13.733  15.157 -0.2652 -0.0317 -0.0139
40426DOD     C365099   3.773  13.674  15.520 -0.2568  0.0041  0.0044
40427DOD     C165100  24.966  12.374   4.200 -0.2545 -0.1093 -0.1034
40427DOD     C265101  24.961  12.445   4.632  0.1396 -0.1911 -0.0451
40427DOD     C365102  24.820  12.388   5.071  0.1150 -0.1818 -0.0672
40428DOD     C165103  11.487   6.534  19.705 -0.2593 -0.0025  0.0267
40428DOD     C265104  11.143   6.236  19.729  0.1543  0.2885  0.1383
40428DOD     C365105  10.947   5.818  19.926 -0.0450 -0.1896 -0.0814
40429DOD     C165106   5.274  14.171   2.732  0.0752 -0.1084 -0.2899
40429DOD     C265107   5.051  14.310   3.170 -0.3841  0.1143 -0.0244
40429DOD     C365108   4.876  14.322   3.580 -0.0072  0.1631  0.2253
40430DOD     C165109  24.245  18.627  15.093 -0.1571 -0.0609  0.1472
40430DOD     C265110  24.457  18.918  14.757  0.1012  0.3690 -0.0823
40430DOD     C365111  24.507  19.312  14.528  0.0885  0.0571 -0.0246
40431DOD     C165112  24.830   3.828  28.775 -0.0499  0.0493  0.0676
40431DOD     C265113  24.339   3.768  28.731  0.2366 -0.0030 -0.0046
40431DOD     C365114  23.888   3.837  28.673  0.0123 -0.2565  0.0640
40432DOD     C165115  18.127  17.484  27.299  0.1468 -0.0873  0.1218
40432DOD     C265116  18.058  17.324  27.736 -0.0772  0.1871  0.1394
40432DOD     C365117  17.740  17.141  28.029 -0.0290  0.1392 -0.1299
40433DOD     C165118  25.210  29.083   2.898  0.3208  0.0454  0.0469
40433DOD     C265119  25.328  29.003   3.352  0.2079 -0.0441 -0.3865
40433DOD     C365120  25.482  28.676   3.648  0.0834 -0.1420 -0.0071
40434DOD     C165121  22.652  28.012  20.574 -0.0084 -0.0712  0.1587
40434DOD     C265122  22.373  27.629  20.487 -0.0654 -0.1205  0.3056
40434DOD     C365123  22.266  27.437  20.072  0.1058 -0.0794  0.1724
40435DOD     C165124  24.794  20.174   8.170 -0.1895 -0.1061 -0.1352
40435DOD     C265125  25.127  20.410   7.892  0.2231  0.2373 -0.0567
40435DOD     C365126  25.446  20.325   7.555 -0.1061  0.2153 -0.0880
40436DOD     C165127  22.857  25.878   8.436  0.0209 -0.0267 -0.1449
40436DOD     C265128  22.572  25.690   8.784 -0.0076 -0.1210  0.2428
40436DOD     C365129  22.389  25.348   9.118 -0.0608  0.0058  0.1573
40437DOD     C165130  21.495  19.173  23.494 -0.1024  0.2353 -0.0250
40437DOD     C265131  21.859  19.464  23.557 -0.1006  0.2683 -0.1350
40437DOD     C365132  22.076  19.854  23.396  0.0222  0.1434 -0.0454
40438DOD     C165133  14.486  28.433  30.161  0.5050  0.0839 -0.1035
40438DOD     C265134  14.762  28.399   0.260  0.2496 -0.1052 -0.1512
40438DOD     C365135  15.148  28.272   0.427  0.1779  0.0184  0.0921
40439DOD     C165136  21.880  25.492  29.741  0.0046 -0.4547  0.0203
40439DOD     C265137  22.151  25.862  29.896  0.0231 -0.0345  0.0600
40439DOD     C365138  22.492  26.135  29.765  0.1534 -0.0532 -0.0454
40440DOD     C165139  18.398  11.252  11.588 -0.0543 -0.0245 -0.0770
40440DOD     C265140  18.336  11.438  11.990  0.1089  0.1641  0.0641
40440DOD     C365141  18.143  11.877  12.126 -0.1700  0.0298 -0.0089
40441DOD     C165142  19.623  30.043   4.751  0.1556  0.0761 -0.0026
40441DOD     C265143  19.523  30.328   4.445 -0.1613  0.2376 -0.0349
40441DOD     C365144  19.373   0.296   4.129 -0.0337  0.1239 -0.2175
40442DOD     C165145  14.643   0.128   9.920 -0.0355  0.1607 -0.2532
40442DOD     C265146  14.365   0.527   9.821 -0.1096  0.2309 -0.0970
40442DOD     C365147  14.098   0.898   9.887  0.1221 -0.0574 -0.1126
40443DOD     C165148   0.403  26.031   9.947  0.1359  0.1171 -0.0626
40443DOD     C265149   0.118  25.783   9.642  0.0680  0.2652  0.0119
40443DOD     C365150   0.012  25.879   9.209  0.1954  0.2864  0.2774
40444DOD     C165151   4.722  29.864  24.104 -0.2185 -0.3270 -0.2627
40444DOD     C265152   4.983  29.498  24.213  0.0611  0.0124  0.1222
40444DOD     C365153   5.153  29.061  24.130 -0.0248  0.1332  0.4420
40445DOD     C165154   9.340  28.785   7.090 -0.0908 -0.0976 -0.2693
40445DOD     C265155   9.002  28.481   7.135 -0.1652 -0.0787 -0.2117
40445DOD     C365156   8.886  28.395   7.620  0.2552  0.2601 -0.1994
40446DOD     C165157  12.163  29.792   0.770 -0.0019 -0.0389  0.2563
40446DOD     C265158  11.826  29.993   0.527  0.0139 -0.2248  0.0581
40446DOD     C365159  11.829  30.167   0.093 -0.0565 -0.0650  0.0871
40447DOD     C165160   1.145  15.866   5.327 -0.0789  0.2036 -0.3375
40447DOD     C265161   1.236  15.679   5.771 -0.1601  0.2449 -0.0092
40447DOD     C365162   1.578  15.624   6.088 -0.0094  0.0426 -0.1720
40448DOD     C165163  15.960  28.177  28.222 -0.3491 -0.1104 -0.0456
40448DOD     C265164  16.219  28.325  28.541 -0.0737 -0.0606 -0.1906
40448DOD     C365165  16.584  28.582  28.602 -0.0821 -0.0109 -0.1324
40449DOD     C165166  11.394   0.024  13.069  0.0166  0.0898 -0.0858
40449DOD     C265167  11.476  29.914  13.242 -0.0290  0.2451  0.0565
40449DOD     C365168  11.378  29.516  13.429 -0.1697 -0.3349 -0.0436
40450DOD     C165169  30.192   5.918  28.253 -0.1740  0.0836 -0.0450
40450DOD     C265170   0.259   5.722  28.465 -0.1373 -0.1081 -0.1309
40450DOD     C365171   0.564   5.355  28.463  0.2087  0.0599 -0.0121
40451DOD     C165172   0.802  11.942  27.872  0.1542  0.1954 -0.0257
40451DOD     C265173   0.663  11.738  27.450 -0.1916 -0.1800  0.2313
40451DOD     C365174   0.432  11.787  27.057  0.0918 -0.1344 -0.1681
40452DOD     C165175  26.133  18.610  17.274 -0.4576 -0.1612  0.0414
40452DOD     C265176  25.898  18.395  16.926 -0.1408  0.1016 -0.1095
40452DOD     C365177  25.808  18.221  16.499 -0.0628  0.0171  0.0883
40453DOD     C165178   3.305   0.557   2.351  0.0349  0.5594  0.0208
40453DOD     C265179   3.633   0.883   2.465  0.0187  0.4280 -0.2414
40453DOD     C365180   3.801   1.015   2.897  0.1097  0.1263  0.1373
40454DOD     C165181   1.913  20.085  23.866  0.0120  0.0270 -0.2183
40454DOD     C265182   2.330  19.832  23.875 -0.2083  0.2453  0.0340
40454DOD     C365183   2.414  19.419  23.612 -0.1176 -0.1090  0.0303
40455DOD     C165184  10.280  27.705  16.022  0.0526 -0.3154  0.1639
40455DOD     C265185  10.377  27.695  15.493 -0.0088 -0.0062 -0.0815
40455DOD     C365186  10.378  27.805  15.019  0.1535  0.1125  0.3120
40456DOD     C165187  29.829  16.948  20.299 -0.4220  0.2882 -0.1585
40456DOD     C265188  30.108  17.095  19.966  0.0292  0.3458  0.0082
40456DOD     C365189   0.211  17.234  19.831  0.2685 -0.0368 -0.1115
40457DOD     C165190  21.542  10.784   4.678 -0.0246  0.2953  0.2120
40457DOD     C265191  21.730  10.514   5.047  0.0496  0.0079  0.0939
40457DOD     C365192  21.797  10.232   5.442 -0.2859  0.0464  0.2034
40458DOD     C165193   4.309  25.662  13.880  0.0168  0.0160 -0.4451
40458DOD     C265194   4.036  25.482  14.222  0.0103 -0.1091 -0.1757
40458DOD     C365195   3.836  25.225  14.508  0.2942  0.3905  0.1347
40459DOD     C165196   3.480  12.242   4.941  0.3260 -0.0974  0.0567
40459DOD     C265197   3.815  12.182   4.602  0.1722 -0.2869  0.1365
40459DOD     C365198   4.298  12.177   4.551 -0.0761  0.1360 -0.0339
40460DOD     C165199  12.267  15.003   5.316  0.2634  0.3058 -0.1427
40460DOD     C265200  12.114  15.121   4.903 -0.3443 -0.0009  0.0475
40460DOD     C365201  12.183  15.529   4.631  0.3563  0.0696 -0.1634
40461DOD     C165202  23.095   2.205   8.960 -0.2535  0.0546 -0.0200
40461DOD     C265203  23.321   1.812   8.776  0.0465 -0.2437 -0.0287
40461DOD     C365204  23.200   1.397   8.823  0.0544  0.2441 -0.0611
40462DOD     C165205   5.915   0.999  25.474 -0.2085  0.1466 -0.1857
40462DOD     C265206   6.160   0.805  25.870  0.1435  0.1988  0.1122
40462DOD     C365207   6.266   0.410  26.084 -0.1420  0.0361  0.0630
40463DOD     C165208  28.417  27.390  14.330 -0.0284 -0.0813 -0.0862
40463DOD     C265209  27.946  27.463  14.514 -0.1155 -0.0798  0.1399
40463DOD     C365210  27.576  27.631  14.807 -0.1279  0.0650  0.3077
40464DOD     C165211   3.088   4.184  17.382  0.2078 -0.0546 -0.2060
40464DOD     C265212   3.303   3.900  17.698 -0.2022  0.2650 -0.0786
40464DOD     C365213   3.616   3.693  17.917  0.0384  0.2480 -0.0808
40465DOD     C165214  16.579   4.858   0.247 -0.3043  0.2413  0.4127
40465DOD     C265215  16.850   4.661  30.255  0.0726 -0.0307  0.2776
40465DOD     C365216  17.223   4.378  30.114  0.1566 -0.0225  0.0935
40466DOD     C165217  22.522   9.589  19.638  0.2321  0.0813 -0.0496
40466DOD     C265218  22.049   9.464  19.650 -0.0064  0.0662 -0.0100
40466DOD     C365219  21.565   9.318  19.576 -0.2289  0.2008  0.5801
40467DOD     C165220   3.685  11.835  19.628  0.2254  0.0982 -0.1802
40467DOD     C265221   3.508  11.710  19.256 -0.4614  0.1862  0.1224
40467DOD     C365222   3.292  11.553  18.906  0.1470  0.2522  0.1074
40468DOD     C165223  27.442  12.755  27.232  0.0803 -0.0075 -0.1055
40468DOD     C265224  27.287  13.113  26.995  0.0611  0.1013 -0.0356
40468DOD     C365225  27.017  13.203  26.691 -0.1751  0.3284 -0.1804
40469DOD     C165226  23.944  21.112   0.282 -0.4209  0.1284  0.0536
40469DOD     C265227  23.576  21.080   0.461  0.2785 -0.2179  0.3927
40469DOD     C365228  23.190  20.887   0.725 -0.2316 -0.3511  0.1765
40470DOD     C165229   2.448  19.774  23.248  0.2198  0.0275  0.0802
40470DOD     C265230   2.898  19.784  23.076  0.3205 -0.4888 -0.1977
40470DOD     C365231   3.051  19.472  22.734  0.0515 -0.0386  0.1940
40471DOD     C165232  18.887   4.539   3.048 -0.1491  0.1462  0.2514
40471DOD     C265233  18.960   4.710   2.577  0.1890  0.0748  0.0642
40471DOD     C365234  19.192   4.866   2.149  0.1635  0.0096 -0.0861
40472DOD     C165235  29.170  26.561   5.240 -0.0166  0.0071  0.2276
40472DOD     C265236  29.252  26.451   4.797  0.0376  0.2770 -0.0881
40472DOD     C365237  29.389  26.302   4.373 -0.1719 -0.4550  0.1720
40473DOD     C165238  15.789  14.181  24.746 -0.0787  0.0442 -0.1129
40473DOD     C265239  15.619  14.257  25.192 -0.0866 -0.2194 -0.0674
40473DOD     C365240  15.164  14.255  25.306  0.1587  0.1925 -0.0925
40474DOD     C165241  23.826   4.110   5.904  0.0598  0.2231  0.0864
40474DOD     C265242  23.701   3.905   5.526  0.0711  0.0099 -0.2759
40474DOD     C365243  23.712   3.534   5.214  0.0595  0.0646 -0.1162
40475DOD     C165244  19.142  11.791  23.929  0.1600 -0.1664 -0.2602
40475DOD     C265245  19.099  11.712  23.458 -0.0567  0.0318 -0.1367
40475DOD     C365246  18.962  11.612  23.020  0.1869 -0.1325  0.2290
40476DOD     C165247   7.189   0.640  10.105 -0.0718 -0.0500 -0.0974
40476DOD     C265248   7.481   0.433  10.459 -0.2364 -0.2393 -0.2578
40476DOD     C365249   7.370  -0.027  10.500  0.1000 -0.2208  0.2087
40477DOD     C165250  24.859   5.865  16.454 -0.1734 -0.0738  0.1699
40477DOD     C265251  25.208   6.147  16.655  0.0103 -0.0294  0.2580
40477DOD     C365252  25.488   6.463  16.654  0.1698  0.2052  0.1289
40478DOD     C165253   0.657   6.242   5.982 -0.2750  0.0363  0.1807
40478DOD     C265254   1.094   6.164   6.099  0.1089 -0.0712 -0.0663
40478DOD     C365255   1.304   6.042   6.521  0.2111  0.0787  0.2126
40479DOD     C165256   6.128   6.675  30.279  0.0229 -0.1034  0.1354
40479DOD     C265257   6.347   7.061   0.116 -0.0763  0.0904 -0.2518
40479DOD     C365258   6.605   7.408  -0.020 -0.0950 -0.0080 -0.2065
40480DOD     C165259  27.196   1.632  14.901  0.0463  0.0509 -0.2011
40480DOD     C265260  27.270   1.078  14.890 -0.0933  0.0639 -0.2082
40480DOD     C365261  27.531   0.696  14.959 -0.1134 -0.0253 -0.0782
40481DOD     C165262  25.917  15.538  29.128  0.0296  0.0277 -0.4110
40481DOD     C265263  25.509  15.422  29.366 -0.1096  0.2302 -0.2646
40481DOD     C365264  25.321  15.030  29.468  0.1759  0.1382 -0.3205
40482DOD     C165265   1.938  27.589   3.151  0.0042 -0.0029 -0.0763
40482DOD     C265266   2.098  27.437   3.531  0.4301  0.0555 -0.2459
40482DOD     C365267   2.311  27.540   3.944 -0.2511 -0.1941 -0.0086
40483DOD     C165268   3.679  20.336   7.705  0.1933  0.1486 -0.1202
40483DOD     C265269   3.568  20.774   7.839 -0.5737 -0.0285 -0.0164
40483DOD     C365270   3.325  21.141   7.741 -0.2157 -0.2689  0.1917
40484DOD     C165271  19.378  15.759  14.858 -0.0694  0.3061 -0.3749
40484DOD     C265272  19.028  15.510  14.725  0.1884  0.5547  0.1035
40484DOD     C365273  18.604  15.364  14.721 -0.1879  0.1372  0.0712
40485DOD     C165274  25.188   3.329  18.054  0.1415 -0.1899  0.2756
40485DOD     C265275  25.340   3.073  17.727 -0.1155  0.0182  0.0496
40485DOD     C365276  25.444   2.683  17.481 -0.1704  0.1266 -0.3515
40486DOD     C165277  28.235  14.077   9.298 -0.1069  0.0351  0.0884
40486DOD     C265278  28.090  14.418   9.006 -0.4321  0.0979  0.0371
40486DOD     C365279  28.256  14.583   8.614 -0.1433  0.1981  0.0338
40487DOD     C165280  15.555  18.580  11.670  0.1540 -0.1804 -0.5184
40487DOD     C265281  15.936  18.536  11.880  0.0465 -0.2871  0.0279
40487DOD     C365282  16.028  18.615  12.327 -0.1769 -0.0053  0.0212
40488DOD     C165283   1.702  19.278  21.005  0.0193 -0.3060 -0.0721
40488DOD     C265284   1.231  19.400  21.169  0.0227 -0.0975  0.1648
40488DOD     C365285   0.892  19.368  21.500 -0.0662 -0.0150 -0.0804
40489DOD     C165286  12.471  23.053  19.592  0.4705 -0.2177 -0.0823
40489DOD     C265287  12.637  23.357  19.218 -0.1713  0.2087  0.1880
40489DOD     C365288  12.346  23.764  19.047 -0.0145  0.3359  0.0047
40490DOD     C165289  21.491  26.385   7.142  0.0427  0.3245 -0.0672
40490DOD     C265290  21.599  26.193   7.536 -0.0578  0.0195 -0.0184
40490DOD     C365291  21.399  26.132   7.900 -0.0694 -0.4041  0.2762
40491DOD     C165292   6.313   9.619  25.282  0.0982  0.3103  0.1295
40491DOD     C265293   6.242   9.603  24.808  0.3776  0.0000  0.1474
40491DOD     C365294   6.006   9.553  24.414  0.0196 -0.1256 -0.1919
40492DOD     C165295  24.389  23.379   1.048  0.0718 -0.2744 -0.3521
40492DOD     C265296  24.242  23.738   1.370  0.0517 -0.0598  0.0277
40492DOD     C365297  23.861  23.972   1.485 -0.0355  0.1451 -0.0196
40493DOD     C165298   6.563  24.861  11.387  0.4002  0.1766  0.3419
40493DOD     C265299   6.137  25.093  11.418  0.2683  0.2670  0.0253
40493DOD     C365300   5.951  25.492  11.390 -0.0725  0.0926  0.2710
40494DOD     C165301  16.955  26.718  24.879 -0.0882  0.3629  0.0430
40494DOD     C265302  17.205  27.102  24.798 -0.3382 -0.1248  0.2577
40494DOD     C365303  17.540  27.368  25.005  0.0430  0.0936 -0.0849
40495DOD     C165304  13.945  23.249   2.877 -0.1833  0.1000  0.2713
40495DOD     C265305  13.712  22.890   3.091 -0.0343  0.1835 -0.1134
40495DOD     C365306  13.706  22.421   3.090 -0.0039  0.0785  0.0027
40496DOD     C165307  15.673   5.954  10.431 -0.0381 -0.3590 -0.0727
40496DOD     C265308  16.168   5.993  10.459  0.0072 -0.1001  0.0824
40496DOD     C365309  16.622   5.991  10.389 -0.1148 -0.2812 -0.1611
40497DOD     C165310  17.546   8.606  21.695  0.1739 -0.1432 -0.2670
40497DOD     C265311  17.745   8.970  21.439  0.0906 -0.1305  0.0543
40497DOD     C365312  17.884   9.280  21.080  0.2414  0.4470 -0.1234
40498DOD     C165313  28.768  11.008  19.264 -0.1088 -0.3034 -0.0502
40498DOD     C265314  28.871  10.785  18.872 -0.1785 -0.3345 -0.3202
40498DOD     C365315  29.020  10.704  18.466  0.0481 -0.1544 -0.1213
40499DOD     C165316  23.461  27.056  23.161  0.1825 -0.0462 -0.0870
40499DOD     C265317  23.549  27.104  22.678 -0.0057  0.3874 -0.2345
40499DOD     C365318  23.381  27.390  22.321  0.1901 -0.0106  0.0079
40500DOD     C165319   7.023  29.539   3.364  0.1368 -0.1560  0.0076
40500DOD     C265320   6.723  29.237   3.206 -0.3354  0.0022 -0.3343
40500DOD     C365321   6.480  28.877   3.035  0.1904 -0.1993 -0.0306
40501DOD     C165322   2.763   6.076   3.245 -0.3697 -0.1063  0.1989
40501DOD     C265323   3.051   5.751   3.215 -0.0500  0.0061  0.1443
40501DOD     C365324   3.232   5.287   3.113 -0.1583 -0.0310  0.0706
40502DOD     C165325  21.396  -0.003  23.285 -0.0992  0.0333 -0.0272
40502DOD     C265326  21.572   0.482  23.222  0.1706 -0.0329  0.4377
40502DOD     C365327  21.986   0.677  23.229  0.1986 -0.0779  0.1273
40503DOD     C165328   9.344  11.832   4.851  0.0559 -0.0769  0.0768
40503DOD     C265329   9.544  11.687   5.278 -0.2029  0.1985  0.0637
40503DOD     C365330   9.880  11.429   5.483 -0.0843  0.0630 -0.1276
40504DOD     C165331   5.044  18.050  11.698  0.0495 -0.0954 -0.0157
40504DOD     C265332   4.816  17.640  11.902  0.1362 -0.1595 -0.0257
40504DOD     C365333   4.692  17.361  12.222  0.0134  0.2447  0.0137
40505DOD     C165334   4.100   9.844   4.182  0.2418  0.2322  0.2019
40505DOD     C265335   4.525   9.985   4.097 -0.2730 -0.1628 -0.0176
40505DOD     C365336   4.972   9.895   3.973 -0.0881  0.0693  0.0545
40506DOD     C165337   7.838   6.724  23.935  0.0632 -0.1428 -0.2249
40506DOD     C265338   8.225   6.636  23.764 -0.0943  0.1004 -0.0391
40506DOD     C365339   8.662   6.654  23.860 -0.2475  0.1183 -0.0965
40507DOD     C165340  25.397  17.999  25.906  0.1733  0.2468 -0.2079
40507DOD     C265341  25.064  18.267  25.997  0.0609  0.1387  0.1021
40507DOD     C365342  25.122  18.729  26.099 -0.1490 -0.1605 -0.0473
40508DOD     C165343   4.743  17.287  19.527  0.0477  0.1332  0.0310
40508DOD     C265344   5.187  17.240  19.684  0.2495 -0.0980  0.2419
40508DOD     C365345   5.599  17.412  19.781 -0.1067 -0.0698  0.1585
40509DOD     C165346  16.419   8.916  10.937  0.3326  0.1115  0.0493
40509DOD     C265347  16.064   8.944  10.676  0.3813  0.2396 -0.1088
40509DOD     C365348  15.869   8.616  10.440 -0.0788 -0.2096  0.2204
40510DOD     C165349  18.939  23.463   7.605 -0.0492 -0.1479  0.1060
40510DOD     C265350  19.350  23.318   7.563  0.0932 -0.0126  0.0575
40510DOD     C365351  19.756  23.321   7.390  0.1397  0.1557  0.3248
40511DOD     C165352  18.324   3.284   3.110  0.2283 -0.4533  0.1360
40511DOD     C265353  18.341   3.091   2.688 -0.2143  0.1976 -0.1585
40511DOD     C365354  18.003   2.959   2.372  0.0335  0.1725  0.0110
40512DOD     C165355  23.688   3.437   0.503  0.0313  0.2296 -0.1434
40512DOD     C265356  23.519   3.866   0.547 -0.0357 -0.0991 -0.0640
40512DOD     C365357  23.579   4.259   0.652 -0.5602 -0.2399  0.2183
40513DOD     C165358  19.253  21.484   3.901  0.1908  0.0254  0.1533
40513DOD     C265359  19.163  21.574   3.466 -0.1640  0.2928  0.0391
40513DOD     C365360  19.285  21.731   3.088  0.1628  0.0291 -0.1262
40514DOD     C165361   8.826  16.709   4.479  0.0765  0.0582 -0.1196
40514DOD     C265362   8.485  16.789   4.193 -0.2636  0.3250 -0.0579
40514DOD     C365363   8.020  16.854   4.164  0.0268 -0.0562 -0.0763
40515DOD     C165364  17.608  16.855  25.283  0.0025  0.0744 -0.0182
40515DOD     C265365  17.394  17.114  24.921  0.1112  0.0936  0.1132
40515DOD     C365366  16.993  17.323  24.658 -0.1034  0.0435 -0.0349
40516DOD     C165367  22.041  16.428  27.960  0.1279  0.1427 -0.2316
40516DOD     C265368  22.359  16.356  28.311 -0.0243  0.0600  0.2027
40516DOD     C365369  22.490  16.497  28.724  0.0939  0.0901  0.1401
40517DOD     C165370  18.894  23.103  13.295 -0.2315 -0.0203 -0.1702
40517DOD     C265371  18.859  22.706  13.317 -0.1026  0.0199  0.2082
40517DOD     C365372  18.781  22.388  13.627 -0.0118  0.2191  0.0075
40518DOD     C165373  24.224   8.282  14.071 -0.0040  0.1618 -0.2818
40518DOD     C265374  24.479   7.949  13.964  0.0887 -0.0601  0.1462
40518DOD     C365375  24.772   7.756  13.665  0.0175 -0.0414  0.0700
40519DOD     C165376  21.574  14.864  22.804  0.0827  0.2471  0.1491
40519DOD     C265377  21.547  15.305  22.753  0.0554  0.1672 -0.1485
40519DOD     C365378  21.638  15.631  22.498  0.0323 -0.0284 -0.2001
40520DOD     C165379  10.748   5.088  22.411  0.2431  0.0729 -0.0867
40520DOD     C265380  11.096   5.449  22.486 -0.2634  0.0212  0.0001
40520DOD     C365381  11.540   5.538  22.236 -0.0870  0.2317 -0.1646
40521DOD     C165382  26.027   8.896  26.826 -0.0408  0.0275 -0.0524
40521DOD     C265383  26.491   9.000  26.724 -0.1714  0.1148 -0.0143
40521DOD     C365384  26.878   9.216  26.517 -0.0576 -0.0052 -0.2286
40522DOD     C165385  26.247   5.683  14.408 -0.4857  0.0510 -0.0720
40522DOD     C265386  26.429   6.182  14.413  0.3676 -0.0394 -0.0450
40522DOD     C365387  26.494   6.435  14.830 -0.1227  0.0873  0.0695
40523DOD     C165388  21.041  27.579  12.487 -0.1056 -0.2792 -0.3879
40523DOD     C265389  20.912  27.938  12.290  0.1284 -0.0663 -0.0374
40523DOD     C365390  20.963  28.094  11.853 -0.2221 -0.0477 -0.2333
40524DOD     C165391  29.728  11.419  17.699 -0.0097 -0.0063 -0.0719
40524DOD     C265392  29.682  11.780  17.993 -0.0492 -0.0776 -0.1019
40524DOD     C365393  29.740  12.237  18.161  0.0563 -0.2063 -0.0552
40525DOD     C165394  13.580  14.919   8.938  0.1241 -0.1609  0.2017
40525DOD     C265395  14.084  14.923   8.874 -0.0209 -0.0950 -0.0552
40525DOD     C365396  14.534  15.095   8.808  0.2961 -0.0535 -0.1415
40526DOD     C165397  11.747   5.173  18.806 -0.1869 -0.0555  0.1009
40526DOD     C265398  12.022   5.232  19.235  0.1545 -0.0859  0.2038
40526DOD     C365399  12.231   5.297  19.664 -0.1656 -0.0147 -0.1047
40527DOD     C165400  19.742  14.306   3.499 -0.0030 -0.1541 -0.0030
40527DOD     C265401  19.286  14.170   3.316 -0.2560 -0.2355  0.1689
40527DOD     C365402  19.006  13.958   3.028  0.1841  0.3982  0.2004
40528DOD     C165403  10.812  28.475  26.093  0.3465  0.0107  0.2328
40528DOD     C265404  11.225  28.396  26.219 -0.2392 -0.2071 -0.1496
40528DOD     C365405  11.453  28.376  26.633  0.4348 -0.0341  0.0594
40529DOD     C165406   2.619   4.495  26.106  0.1030  0.1198  0.0049
40529DOD     C265407   2.519   4.587  26.539 -0.1350 -0.1250 -0.0478
40529DOD     C365408   2.381   4.318  26.920  0.1230  0.2180  0.1057
40530DOD     C165409  14.441  19.996  28.921  0.0426 -0.1787  0.0010
40530DOD     C265410  14.831  19.700  28.945 -0.0740 -0.0369 -0.1822
40530DOD     C365411  15.251  19.675  29.091 -0.0196  0.1660 -0.2527
40531DOD     C165412  29.126   2.765  12.570 -0.1487  0.0313  0.0750
40531DOD     C265413  29.445   2.800  12.954  0.0071  0.1334  0.2533
40531DOD     C365414  29.522   3.043  13.321  0.0430  0.0150  0.2899
40532DOD     C165415  27.236  24.677   0.076 -0.0787 -0.0661 -0.3025
40532DOD     C265416  27.537  24.290   0.094  0.0072  0.1008 -0.0411
40532DOD     C365417  27.839  24.129   0.419  0.2952 -0.1581 -0.1472
40533DOD     C165418  26.770   9.862   8.042 -0.0194 -0.1383  0.1515
40533DOD     C265419  27.078   9.542   7.832 -0.0422 -0.2440 -0.3133
40533DOD     C365420  27.356   9.196   7.718  0.0347 -0.3860  0.2731
40534DOD     C165421  12.859  23.947  20.633 -0.0020  0.3102  0.2163
40534DOD     C265422  12.897  23.844  21.101  0.0467  0.1952  0.2919
40534DOD     C365423  12.687  23.961  21.452  0.0742 -0.4512 -0.4338
40535DOD     C165424  21.487   4.484  17.788  0.0250  0.3155  0.0831
40535DOD     C265425  21.640   4.345  18.240 -0.1442 -0.0717 -0.0998
40535DOD     C365426  22.008   4.527  18.549 -0.0875  0.0326  0.3130
40536DOD     C165427  26.222  19.331   7.868  0.1223 -0.2148 -0.1553
40536DOD     C265428  26.047  19.758   7.844  0.2736 -0.0387  0.3398
40536DOD     C365429  25.853  20.115   7.657  0.3372 -0.3401 -0.1468
40537DOD     C165430   4.909  27.767  28.911  0.1421  0.1415  0.4241
40537DOD     C265431   5.216  27.451  28.988 -0.1697 -0.0546  0.3566
40537DOD     C365432   5.361  27.006  29.144  0.1608 -0.2412  0.2946
40538DOD     C165433  17.432  29.840   7.981 -0.1705  0.1367  0.0158
40538DOD     C265434  17.530  29.984   7.508  0.0441 -0.0694 -0.0321
40538DOD     C365435  17.632  30.261   7.149  0.2082 -0.1543 -0.4201
40539DOD     C165436  18.583  25.876  20.635  0.1373 -0.2182 -0.1636
40539DOD     C265437  19.019  25.712  20.772  0.1428 -0.2974 -0.2375
40539DOD     C365438  19.480  25.723  20.812  0.3341 -0.2534  0.1035
40540DOD     C165439  29.285   4.415   0.936 -0.0641 -0.3301 -0.2276
40540DOD     C265440  28.891   4.251   1.017 -0.0628  0.1269 -0.2431
40540DOD     C365441  28.695   3.909   0.864  0.2203 -0.1008 -0.1907
40541DOD     C165442  27.341  13.006   1.388 -0.1104  0.3072 -0.1549
40541DOD     C265443  27.104  13.253   1.027 -0.2356  0.0233  0.0389
40541DOD     C365444  26.918  13.634   0.760 -0.2284 -0.0021  0.0548
40542DOD     C165445  27.380  15.426  10.384 -0.2020 -0.0186  0.0211
40542DOD     C265446  27.447  15.787  10.097  0.2172 -0.2961 -0.0820
40542DOD     C365447  27.718  15.940   9.736  0.3984 -0.2705 -0.0196
40543DOD     C165448   2.652  26.538  22.677  0.0320 -0.2221 -0.2985
40543DOD     C265449   2.531  26.341  23.074  0.0093  0.3022  0.0180
40543DOD     C365450   2.163  26.263  23.191 -0.3085 -0.0053 -0.0515
40544DOD     C165451  11.157  16.190  18.041 -0.1427  0.2281 -0.0588
40544DOD     C265452  10.674  16.133  17.888  0.0590 -0.1556  0.1487
40544DOD     C365453  10.355  15.929  18.146  0.0430  0.0972 -0.0348
40545DOD     C165454  17.238   6.930   4.506  0.0817  0.0594 -0.0495
40545DOD     C265455  17.551   6.875   4.225  0.0775  0.1354  0.1530
40545DOD     C365456  17.996   6.832   4.048  0.0593 -0.3117 -0.0832
40546DOD     C165457   9.831   2.769  22.142 -0.0528  0.2592 -0.1547
40546DOD     C265458   9.954   2.993  21.738 -0.0616  0.0783  0.0290
40546DOD     C365459  10.027   3.072  21.322 -0.0659  0.0892  0.3743
40547DOD     C165460   9.532  12.626   4.343  0.1768  0.0654 -0.0084
40547DOD     C265461   9.220  12.494   4.078 -0.0024  0.0047 -0.0724
40547DOD     C365462   8.954  12.198   3.869  0.4620 -0.2520  0.1182
40548DOD     C165463  18.488  19.443  22.463  0.0567  0.0986 -0.0866
40548DOD     C265464  18.759  19.294  22.809  0.1755  0.1526 -0.0754
40548DOD     C365465  18.820  19.257  23.300  0.1102 -0.2684 -0.2332
40549DOD     C165466  27.574  28.213  17.975  0.2190 -0.0474 -0.2219
40549DOD     C265467  27.656  28.653  18.075  0.0846  0.2395 -0.1426
40549DOD     C365468  27.557  29.040  17.857 -0.3549 -0.0752  0.2249
40550DOD     C165469   9.623  24.610  24.662 -0.0101  0.0024 -0.0524
40550DOD     C265470   9.356  24.318  24.854 -0.0090  0.1669 -0.0687
40550DOD     C365471   8.980  24.451  25.136 -0.3035 -0.1111 -0.1687
40551DOD     C165472  19.347  30.319  15.929 -0.1527  0.1909 -0.1641
40551DOD     C265473  19.434  29.904  16.187 -0.0885 -0.0394  0.0894
40551DOD     C365474  19.304  29.514  16.438 -0.2734  0.0847  0.0591
40552DOD     C165475  19.669  22.131   5.256  0.1031 -0.1502 -0.3378
40552DOD     C265476  19.849  22.216   4.810 -0.0616  0.1585  0.0681
40552DOD     C365477  19.895  22.496   4.460  0.0687 -0.2505 -0.2463
40553DOD     C165478  18.646  16.840   9.830  0.1937  0.2153 -0.3895
40553DOD     C265479  19.034  17.107   9.740 -0.1258 -0.0370  0.2717
40553DOD     C365480  19.340  17.152  10.075 -0.1654 -0.4210 -0.4107
40554DOD     C165481  16.186   5.184   4.077 -0.1941 -0.1347  0.0606
40554DOD     C265482  15.819   5.359   3.832  0.0400  0.2382 -0.4129
40554DOD     C365483  15.320   5.257   3.826 -0.2332  0.2873 -0.0010
40555DOD     C165484   6.285   9.754   1.902 -0.1480 -0.3192  0.0004
40555DOD     C265485   6.374   9.505   1.545 -0.1022  0.0282  0.0431
40555DOD     C365486   6.009   9.201   1.366 -0.1135 -0.2320 -0.0368
40556DOD     C165487   8.216  16.042  27.098 -0.2806 -0.1181 -0.2016
40556DOD     C265488   8.500  16.242  26.778  0.1054  0.2748 -0.2671
40556DOD     C365489   8.613  16.682  26.778 -0.1917 -0.0685 -0.1841
40557DOD     C165490  13.476  10.027  12.605  0.0480  0.1188 -0.1365
40557DOD     C265491  13.789   9.776  12.888  0.0810  0.0508 -0.1449
40557DOD     C365492  14.128   9.825  13.233  0.0879 -0.1965 -0.3278
40558DOD     C165493   7.025  14.234   4.153 -0.2844 -0.1396  0.2510
40558DOD     C265494   6.751  14.489   4.523 -0.2488 -0.2212 -0.1883
40558DOD     C365495   6.574  14.910   4.594  0.0645  0.1711 -0.2780
40559DOD     C165496  23.842   4.064  13.729  0.2243 -0.0358 -0.0772
40559DOD     C265497  24.205   3.979  13.457  0.1368  0.1334  0.2015
40559DOD     C365498  24.533   3.932  13.135 -0.1420 -0.0867 -0.1876
40560DOD     C165499  11.926   8.075  25.439 -0.0279  0.2441  0.0474
40560DOD     C265500  12.195   8.073  25.801 -0.0457 -0.0367  0.3969
40560DOD     C365501  12.285   7.981  26.226  0.0276  0.0063  0.0192
40561DOD     C165502  19.874  13.762  23.004  0.1453 -0.2459  0.3453
40561DOD     C265503  19.478  14.001  23.000 -0.0694  0.0449  0.0047
40561DOD     C365504  19.066  13.865  22.846 -0.2046  0.2530 -0.2214
40562DOD     C165505  26.992   6.164   8.592  0.0090  0.4247 -0.1462
40562DOD     C265506  26.795   6.361   8.936 -0.0227  0.0367  0.2143
40562DOD     C365507  26.654   6.325   9.379 -0.2553  0.2457  0.0135
40563DOD     C165508  17.228  29.247  17.819 -0.2808 -0.1276  0.2359
40563DOD     C265509  16.870  29.007  17.755 -0.1183 -0.1494  0.0538
40563DOD     C365510  16.446  29.156  17.687 -0.0390  0.2052 -0.3119
40564DOD     C165511   5.880   6.668  23.571  0.1274 -0.1435 -0.0898
40564DOD     C265512   6.235   6.456  23.358 -0.1057 -0.1268  0.0927
40564DOD     C365513   6.612   6.350  23.555  0.4314  0.0863 -0.0841
40565DOD     C165514  22.331   1.466  13.145 -0.3244 -0.0306  0.0024
40565DOD     C265515  22.047   1.100  13.358  0.4875  0.0971 -0.1244
40565DOD     C365516  21.691   0.755  13.347  0.0901  0.0486 -0.1744
40566DOD     C165517  13.007  16.992   1.636 -0.1523 -0.0971  0.1333
40566DOD     C265518  12.723  16.891   1.289 -0.0305  0.4355 -0.1005
40566DOD     C365519  12.744  16.490   1.032 -0.3024 -0.2807 -0.3267
40567DOD     C165520   3.526  21.907   6.375  0.3829  0.3447 -0.2723
40567DOD     C265521   3.065  21.976   6.257 -0.0182 -0.0993  0.2179
40567DOD     C365522   2.771  21.929   5.908  0.3028  0.1466 -0.2187
40568DOD     C165523  25.015  21.924  29.723  0.1439  0.1906 -0.0867
40568DOD     C265524  24.896  21.470  29.837 -0.1360  0.1384  0.2917
40568DOD     C365525  24.706  21.061  29.637  0.1123 -0.0275  0.0164
40569DOD     C165526  26.750  24.130  28.897 -0.2861  0.3212 -0.3090
40569DOD     C265527  26.745  24.489  28.625 -0.0116  0.0143 -0.1827
40569DOD     C365528  26.528  24.663  28.259 -0.2935 -0.1804  0.4638
40570DOD     C165529  23.353  23.677  21.673  0.2976  0.0627 -0.3250
40570DOD     C265530  23.132  24.016  21.364  0.0991  0.2083 -0.2011
40570DOD     C365531  22.937  24.414  21.210  0.5360 -0.1104  0.2314
40571DOD     C165532  25.045  15.336  29.035 -0.0217  0.1893 -0.2936
40571DOD     C265533  25.130  15.484  28.602  0.1959  0.1419  0.1929
40571DOD     C365534  25.087  15.860  28.327 -0.0440 -0.0514  0.0020
40572DOD     C165535  12.800   8.045  24.270 -0.0689 -0.2463  0.0781
40572DOD     C265536  13.005   8.224  23.852  0.0056 -0.2068 -0.1024
40572DOD     C365537  13.254   8.169  23.520 -0.3535  0.1849 -0.0133
40573DOD     C165538  22.079   5.949  18.415  0.3961 -0.0986 -0.1656
40573DOD     C265539  22.317   6.284  18.660  0.0665  0.1560 -0.1485
40573DOD     C365540  22.411   6.689  18.971 -0.1333  0.1487 -0.2280
40574DOD     C165541  14.358  22.701  22.235 -0.0099  0.0661  0.1531
40574DOD     C265542  14.772  22.747  22.466  0.1197  0.1353  0.0213
40574DOD     C365543  14.943  22.545  22.883 -0.4371 -0.1496 -0.1121
40575DOD     C165544  26.481  20.765  23.853  0.0260  0.0193  0.0264
40575DOD     C265545  26.102  20.619  24.039  0.1810  0.0920  0.1533
40575DOD     C365546  25.610  20.695  23.973  0.3764 -0.0846  0.0260
40576DOD     C165547  27.215  14.553   5.232  0.2025  0.1669 -0.3238
40576DOD     C265548  27.387  14.123   5.235  0.1837  0.0289 -0.0394
40576DOD     C365549  27.222  13.761   4.982  0.0524 -0.1639  0.1943
40577DOD     C165550   0.552  28.092   0.094 -0.1567  0.4370  0.0698
40577DOD     C265551   0.450  28.530   0.056 -0.2441  0.1854 -0.0005
40577DOD     C365552   0.336  29.001   0.148 -0.0181 -0.1498 -0.3193
40578DOD     C165553  23.666   8.220  17.100  0.0015 -0.2242  0.0771
40578DOD     C265554  23.888   8.604  17.179  0.1872 -0.1486  0.2702
40578DOD     C365555  24.106   9.006  17.234 -0.1861 -0.0336  0.1316
40579DOD     C165556  26.497   7.708  18.609 -0.0252 -0.0381  0.1659
40579DOD     C265557  26.658   7.418  18.338  0.1324  0.0852  0.0536
40579DOD     C365558  27.113   7.407  18.123  0.1265  0.2384 -0.0806
40580DOD     C165559   9.084  20.743  10.555 -0.0560 -0.1915 -0.1330
40580DOD     C265560   9.381  20.513  10.304  0.1394  0.0903  0.0056
40580DOD     C365561   9.587  20.149  10.492  0.0338  0.0499  0.2764
40581DOD     C165562  10.973  14.587  18.308  0.4186  0.1926 -0.1289
40581DOD     C265563  11.423  14.493  18.173 -0.1192  0.1711  0.1058
40581DOD     C365564  11.462  14.260  17.748  0.1090 -0.2009 -0.1607
40582DOD     C165565  10.179   4.189   0.798 -0.3968  0.0154 -0.0202
40582DOD     C265566  10.104   3.888   0.420  0.0277  0.0509 -0.0349
40582DOD     C365567   9.988   3.645  -0.003 -0.4519  0.0167 -0.1039
40583DOD     C165568   7.877   7.469  11.424 -0.0055 -0.0857 -0.1244
40583DOD     C265569   7.705   7.879  11.636 -0.1076  0.2947 -0.2097
40583DOD     C365570   7.500   7.942  12.095 -0.0744 -0.2872  0.1235
40584DOD     C165571  28.742  12.207  13.784  0.2814 -0.0826 -0.0074
40584DOD     C265572  28.500  12.601  13.586  0.1584  0.0799  0.4449
40584DOD     C365573  28.169  12.502  13.223  0.2335 -0.2237 -0.1067
40585DOD     C165574  22.386   6.017  27.222 -0.3627  0.0543  0.1322
40585DOD     C265575  22.299   5.988  26.736 -0.0902  0.0072  0.0691
40585DOD     C365576  22.408   6.201  26.370  0.1540 -0.0769  0.0871
40586DOD     C165577  30.108  20.068  28.731  0.1722  0.1061  0.1280
40586DOD     C265578  30.121  19.714  28.427  0.2045  0.1102 -0.1711
40586DOD     C365579  -0.009  19.349  28.257  0.1440  0.2725  0.0439
40587DOD     C165580  11.024  12.126  14.526  0.2261  0.1890  0.2258
40587DOD     C265581  11.105  12.418  14.131 -0.3090 -0.1824 -0.0918
40587DOD     C365582  10.770  12.688  13.947 -0.2214 -0.2724  0.0194
40588DOD     C165583  11.179  15.202  29.429 -0.0706  0.0172  0.2457
40588DOD     C265584  11.438  14.841  29.369  0.3980  0.3676 -0.2194
40588DOD     C365585  11.492  14.379  29.469  0.0048  0.0773 -0.0877
40589DOD     C165586  18.645  28.044  28.586  0.2665  0.2784 -0.0472
40589DOD     C265587  18.209  27.963  28.785 -0.2047  0.1354 -0.1475
40589DOD     C365588  17.954  27.578  28.693  0.2341 -0.0426 -0.0199
40590DOD     C165589  15.184  29.728  16.573  0.1654  0.1118  0.2444
40590DOD     C265590  15.053  30.097  16.824 -0.1923  0.1815  0.0240
40590DOD     C365591  14.723   0.106  16.859 -0.0775  0.0186  0.3576
40591DOD     C165592   8.898  22.397  24.042  0.2298  0.0131 -0.1978
40591DOD     C265593   8.777  22.054  24.359  0.1282  0.1500  0.3436
40591DOD     C365594   8.540  21.758  24.637 -0.0383  0.2577  0.1173
40592DOD     C165595   1.271   0.613  29.199  0.0899 -0.0651  0.1023
40592DOD     C265596   1.667   0.432  29.409  0.0704 -0.1012 -0.1847
40592DOD     C365597   1.994   0.038  29.372 -0.1218 -0.0604  0.1057
40593DOD     C165598   3.875  22.484   2.065  0.3940 -0.0131 -0.1559
40593DOD     C265599   3.484  22.620   1.844 -0.5658 -0.1078 -0.0809
40593DOD     C365600   3.003  22.671   1.867 -0.1774 -0.1117  0.1716
40594DOD     C165601   1.693   8.790   0.591  0.1655  0.2132  0.1808
40594DOD     C265602   1.437   8.643   0.985 -0.0436  0.1241 -0.1949
40594DOD     C365603   1.271   8.425   1.408 -0.0391 -0.3614 -0.0680
40595DOD     C165604   6.041   4.422   1.464 -0.1656  0.0449 -0.1548
40595DOD     C265605   5.593   4.491   1.386 -0.0544  0.3091  0.0806
40595DOD     C365606   5.138   4.598   1.401 -0.1385  0.1134  0.0904
40596DOD     C165607  22.522   5.659   8.064 -0.0367  0.2362 -0.1669
40596DOD     C265608  22.497   6.065   7.804  0.0909  0.0317  0.1006
40596DOD     C365609  22.559   6.062   7.338 -0.2900 -0.0209 -0.3002
40597DOD     C165610  26.899   3.510  10.240  0.3919  0.1249 -0.0237
40597DOD     C265611  26.886   3.513  10.677  0.2059  0.1974  0.0001
40597DOD     C365612  26.650   3.329  11.049 -0.3587  0.1223  0.2106
40598DOD     C165613  15.302   6.603  24.561 -0.0699 -0.0352  0.2471
40598DOD     C265614  15.266   6.409  25.018 -0.1399 -0.0793 -0.0187
40598DOD     C365615  15.557   6.239  25.388 -0.1776 -0.1588  0.0668
40599DOD     C165616  11.420  18.394   2.987  0.3139  0.4349  0.1799
40599DOD     C265617  11.230  18.825   2.857 -0.0724  0.0592  0.3876
40599DOD     C365618  11.291  19.278   2.793  0.0067  0.0593 -0.0040
40600DOD     C165619  19.548  15.884  25.182  0.1183 -0.3378  0.3629
40600DOD     C265620  19.885  15.559  25.220 -0.2569 -0.0316  0.0618
40600DOD     C365621  20.214  15.595  25.543  0.0177  0.0235  0.2560
40601DOD     C165622   0.603  20.636  23.287 -0.2815  0.1508  0.1449
40601DOD     C265623   0.821  20.801  22.881 -0.2430 -0.2174 -0.1429
40601DOD     C365624   0.998  20.705  22.466  0.1306  0.0917  0.1978
40602DOD     C165625  17.642  29.244  15.627  0.0468  0.0751 -0.1784
40602DOD     C265626  17.231  29.223  15.415 -0.0626 -0.0290 -0.0726
40602DOD     C365627  16.878  29.537  15.308  0.0667 -0.3106  0.3904
40603DOD     C165628  28.051   2.077  26.278  0.1044 -0.0380  0.1769
40603DOD     C265629  27.622   2.221  26.184 -0.2763 -0.1246 -0.2815
40603DOD     C365630  27.270   2.542  26.166 -0.1724 -0.0488  0.0134
40604DOD     C165631  11.159   7.435  20.646  0.0392 -0.0226  0.2288
40604DOD     C265632  11.043   6.997  20.775  0.0413  0.1842 -0.0537
40604DOD     C365633  10.974   6.591  20.598  0.2388 -0.0414  0.1695
40605DOD     C165634  23.818   4.256  28.298 -0.0282  0.0557  0.0991
40605DOD     C265635  24.157   4.239  28.655 -0.0449 -0.0019  0.2486
40605DOD     C365636  24.597   4.249  28.835  0.1545 -0.3100 -0.0616
40606DOD     C165637   7.341  14.695  22.779  0.0214  0.2245  0.1051
40606DOD     C265638   7.379  15.015  22.404  0.1002 -0.0959 -0.3646
40606DOD     C365639   7.254  15.416  22.186 -0.1160  0.0510 -0.1938
40607DOD     C165640  16.002  14.832  18.897  0.4230 -0.2632  0.1140
40607DOD     C265641  16.469  14.643  18.828  0.2917  0.5595 -0.0639
40607DOD     C365642  16.852  14.854  19.142  0.4009  0.2186 -0.0602
40608DOD     C165643   1.506  23.702  13.539  0.0586  0.0702  0.2397
40608DOD     C265644   1.581  23.944  13.181 -0.2459  0.1399  0.0045
40608DOD     C365645   1.809  24.106  12.819 -0.2221 -0.1738 -0.0174
40609DOD     C165646  10.942   9.845   4.542 -0.1680 -0.0893  0.3524
40609DOD     C265647  11.145   9.867   4.944  0.3322 -0.0754 -0.0959
40609DOD     C365648  11.377   9.967   5.296 -0.0829  0.0651  0.2629
40610DOD     C165649  20.725  26.335  16.850 -0.1822 -0.2062 -0.3205
40610DOD     C265650  20.806  26.654  17.186  0.2128  0.1347 -0.1351
40610DOD     C365651  21.043  26.522  17.566  0.0685 -0.0540 -0.0897
40611DOD     C165652   6.765   7.967  16.490  0.2109 -0.4079  0.0503
40611DOD     C265653   6.345   7.833  16.663  0.0803  0.1617  0.0680
40611DOD     C365654   5.941   7.655  16.762  0.2172  0.0652  0.3886
40612DOD     C165655   2.732   7.342   0.434 -0.0347 -0.1690  0.1146
40612DOD     C265656   3.027   6.951   0.560  0.1549 -0.0325 -0.3581
40612DOD     C365657   3.089   6.659   0.913 -0.1264 -0.3244 -0.3057
40613DOD     C165658   7.410  20.112  12.624 -0.1054 -0.0910 -0.1712
40613DOD     C265659   7.073  19.815  12.757  0.0220 -0.1175  0.1951
40613DOD     C365660   6.644  19.943  12.921 -0.2011  0.1866 -0.3305
40614DOD     C165661  18.829  28.251  10.134  0.1632 -0.2757  0.0157
40614DOD     C265662  18.965  28.715  10.232  0.2835 -0.0690  0.0249
40614DOD     C365663  19.111  29.140  10.323  0.0314 -0.0915  0.1984
40615DOD     C165664   9.275   7.909  27.747 -0.0074  0.2767 -0.3603
40615DOD     C265665   9.088   7.848  28.176 -0.1027 -0.1337  0.0261
40615DOD     C365666   8.826   7.664  28.462 -0.1304 -0.1181  0.1242
40616DOD     C165667  10.921  19.127   6.703  0.3030 -0.0086 -0.3213
40616DOD     C265668  11.149  19.102   6.307  0.2794  0.0540 -0.0007
40616DOD     C365669  11.365  19.028   5.938 -0.0420 -0.5433  0.0838
40617DOD     C165670  25.914  18.710  27.070 -0.2816 -0.0319  0.0524
40617DOD     C265671  26.192  18.291  27.125  0.1608 -0.1881 -0.0457
40617DOD     C365672  26.623  18.129  27.312  0.3182  0.1928  0.0216
40618DOD     C165673   7.831   4.987   5.396  0.0437 -0.1038  0.0185
40618DOD     C265674   7.792   5.478   5.564 -0.0391  0.1574  0.0565
40618DOD     C365675   7.515   5.753   5.858  0.2340 -0.0209 -0.1664
40619DOD     C165676   1.841  29.559  17.697 -0.1222 -0.0964  0.1928
40619DOD     C265677   2.061  29.496  18.083 -0.0284  0.2224  0.1619
40619DOD     C365678   2.489  29.567  18.137  0.0709 -0.0022 -0.1398
40620DOD     C165679  20.631  28.399  19.182 -0.0057 -0.0432 -0.1799
40620DOD     C265680  20.337  28.595  19.381  0.3308  0.2200  0.0464
40620DOD     C365681  19.964  28.579  19.636 -0.2591  0.0778 -0.0216
40621DOD     C165682   6.556   3.864  24.782  0.0136  0.5319 -0.1662
40621DOD     C265683   6.140   4.044  24.885  0.0211  0.0855 -0.2001
40621DOD     C365684   5.822   4.340  24.876  0.0967 -0.0080 -0.0789
40622DOD     C165685  18.821  12.465   4.385 -0.3118 -0.0244 -0.1122
40622DOD     C265686  18.394  12.443   4.540  0.0299  0.3894 -0.1341
40622DOD     C365687  18.237  12.784   4.847 -0.1341  0.0122  0.0372
40623DOD     C165688  16.955  16.610   6.083 -0.0653  0.1074 -0.1451
40623DOD     C265689  17.106  16.246   6.391  0.0950  0.3205  0.1464
40623DOD     C365690  17.235  15.964   6.711 -0.2630  0.1934  0.2237
40624DOD     C165691  14.361  19.224  21.522 -0.2125  0.2955 -0.0116
40624DOD     C265692  14.341  19.693  21.481 -0.0829 -0.0112  0.1777
40624DOD     C365693  14.292  20.162  21.456 -0.2764 -0.1749 -0.3455
40625DOD     C165694   2.630  17.770  26.904 -0.0997  0.1964 -0.1210
40625DOD     C265695   2.315  18.024  27.088 -0.0547  0.2063  0.1822
40625DOD     C365696   2.084  18.201  27.467  0.0317 -0.1808 -0.0689
40626DOD     C165697  22.104  26.216  15.922  0.0748  0.1511  0.0757
40626DOD     C265698  21.852  26.496  15.597  0.1759  0.0084 -0.1122
40626DOD     C365699  21.415  26.724  15.549  0.1163  0.0096  0.0586
40627DOD     C165700  14.580   6.484  12.276  0.1651  0.1361  0.0635
40627DOD     C265701  14.887   6.738  12.101 -0.2262 -0.0207 -0.0365
40627DOD     C365702  15.247   7.079  11.947  0.1503 -0.0206  0.1431
40628DOD     C165703  19.782  12.948  16.421 -0.1535  0.1087  0.1102
40628DOD     C265704  19.950  13.356  16.568  0.0653 -0.0852  0.3602
40628DOD     C365705  20.114  13.752  16.406 -0.0253  0.3859  0.2789
40629DOD     C165706   1.321   6.678  29.934 -0.0682  0.1068 -0.2691
40629DOD     C265707   1.193   7.160  29.878  0.1073  0.3508 -0.2224
40629DOD     C365708   1.350   7.474  29.542  0.0553  0.1118 -0.0181
40630DOD     C165709  26.943  23.424  30.006 -0.3504 -0.0070 -0.1186
40630DOD     C265710  26.845  23.124   0.049 -0.1061 -0.0068  0.0762
40630DOD     C365711  26.992  22.867   0.488 -0.3235  0.1235  0.3353
40631DOD     C165712  22.072  23.644  25.768  0.0921 -0.2183 -0.1746
40631DOD     C265713  22.510  23.674  25.576 -0.0290  0.1077 -0.1052
40631DOD     C365714  22.774  24.032  25.528 -0.0758  0.0579  0.0475
40632DOD     C165715  13.579   9.564   0.102 -0.0352  0.0413  0.0032
40632DOD     C265716  13.970   9.574   0.310  0.2702 -0.1260  0.1169
40632DOD     C365717  14.211   9.719   0.689  0.0401 -0.0183 -0.2056
40633DOD     C165718   9.588  15.921  25.870 -0.0565 -0.0133 -0.5175
40633DOD     C265719   9.284  15.800  26.179  0.0753 -0.1342  0.0084
40633DOD     C365720   8.878  15.978  26.377  0.2500  0.0988  0.1479
40634DOD     C165721   1.027  14.615  13.757  0.0684  0.0862  0.0518
40634DOD     C265722   0.979  14.140  13.630 -0.0085 -0.0440  0.2074
40634DOD     C365723   0.929  13.669  13.678 -0.3954  0.2058  0.0354
40635DOD     C165724  26.943   3.628  22.466  0.0095 -0.1015  0.1500
40635DOD     C265725  26.939   3.192  22.282  0.1078 -0.0834  0.0797
40635DOD     C365726  27.219   2.885  22.040 -0.2027  0.3348  0.0904
40636DOD     C165727  21.336  25.918   7.177 -0.1632 -0.2118 -0.0582
40636DOD     C265728  21.242  25.754   7.631 -0.1188  0.2980 -0.2804
40636DOD     C365729  21.140  25.617   8.036  0.1786  0.1680  0.0106
40637DOD     C165730  22.891  11.677   7.236  0.0153  0.0952 -0.1337
40637DOD     C265731  23.318  11.561   7.424 -0.0888  0.1143 -0.0984
40637DOD     C365732  23.550  11.205   7.555 -0.0243 -0.1806 -0.0570
40638DOD     C165733   6.423  29.497   3.647  0.1238  0.1670  0.0357
40638DOD     C265734   6.109  29.260   3.944  0.1739 -0.0149 -0.1140
40638DOD     C365735   6.069  29.318   4.398  0.3006  0.1559 -0.0635
40639DOD     C165736   0.231   1.292  23.335 -0.2250 -0.1185 -0.0693
40639DOD     C265737   0.361   0.842  23.251  0.1622  0.1140 -0.2258
40639DOD     C365738   0.601   0.392  23.265 -0.0429 -0.0510  0.1348
40640DOD     C165739  28.358  10.983  19.787  0.0287 -0.2424  0.3667
40640DOD     C265740  28.131  11.141  19.420 -0.1405 -0.1241 -0.0274
40640DOD     C365741  28.215  11.386  19.029 -0.1339  0.2564 -0.1292
40641DOD     C165742  27.934  23.859  16.553 -0.1713  0.2509 -0.0418
40641DOD     C265743  27.864  23.562  16.269 -0.1798  0.1562  0.2347
40641DOD     C365744  27.618  23.200  16.233 -0.0658  0.0597  0.0520
40642DOD     C165745   5.667   3.219   5.534  0.1905 -0.3761  0.1301
40642DOD     C265746   5.589   2.925   5.784 -0.0514 -0.2260 -0.3912
40642DOD     C365747   5.544   2.659   6.220 -0.1604 -0.3673  0.1632
40643DOD     C165748  19.054  17.419  23.264 -0.0673  0.2262  0.3968
40643DOD     C265749  19.007  17.879  23.368 -0.1845 -0.1239  0.0863
40643DOD     C365750  18.999  18.295  23.581  0.4484 -0.2239  0.1216
40644DOD     C165751   4.800   8.648  27.473  0.0030 -0.0030 -0.0729
40644DOD     C265752   4.865   8.310  27.194 -0.2358  0.0592 -0.1089
40644DOD     C365753   4.542   8.179  26.842 -0.2904 -0.1344  0.0586
40645DOD     C165754  26.222  20.536  25.418 -0.1525 -0.1566  0.0811
40645DOD     C265755  25.962  20.436  25.883 -0.1552  0.1068  0.2124
40645DOD     C365756  25.894  20.028  26.069 -0.0772 -0.1491  0.1729
40646DOD     C165757  24.481  11.036  18.775  0.2137 -0.1774 -0.1294
40646DOD     C265758  24.379  10.580  18.879  0.1880  0.1235  0.0218
40646DOD     C365759  24.592  10.326  19.211  0.1999  0.0855  0.0834
40647DOD     C165760  22.724   1.054  12.706  0.2247 -0.2247  0.0335
40647DOD     C265761  22.723   1.531  12.797  0.0457  0.0463 -0.0506
40647DOD     C365762  22.536   1.921  12.590  0.0976 -0.2667  0.0870
40648DOD     C165763   3.302  19.517  14.615  0.0575  0.1832  0.0776
40648DOD     C265764   3.455  19.896  14.847  0.0224  0.0971  0.2984
40648DOD     C365765   3.644  20.297  14.750 -0.2340 -0.0141  0.1033
40649DOD     C165766   9.199   5.969   3.217 -0.0851 -0.0685  0.4226
40649DOD     C265767   9.258   6.012   2.739  0.0644 -0.0555 -0.0318
40649DOD     C365768   9.434   5.988   2.282 -0.3312 -0.0124 -0.0772
40650DOD     C165769   7.589  13.872   7.256 -0.0923  0.3574 -0.0266
40650DOD     C265770   7.244  13.856   7.578 -0.1127 -0.1595 -0.0331
40650DOD     C365771   6.833  13.698   7.756  0.0791  0.4475 -0.0571
40651DOD     C165772  23.318  17.992  22.627  0.2211  0.1715  0.0457
40651DOD     C265773  23.535  18.410  22.593 -0.2635  0.1659 -0.1037
40651DOD     C365774  23.588  18.829  22.646  0.0870 -0.0247 -0.3415
40652DOD     C165775  21.043   0.592   7.198 -0.0541  0.0392 -0.1030
40652DOD     C265776  20.695   0.323   7.145  0.2523  0.0007  0.4102
40652DOD     C365777  20.561  30.202   7.039 -0.1351 -0.0397  0.1616
40653DOD     C165778  20.363   2.244  26.871  0.0367 -0.0407  0.1584
40653DOD     C265779  19.978   2.090  26.607  0.0809 -0.1275 -0.1426
40653DOD     C365780  19.831   1.671  26.721 -0.0653  0.2558 -0.0622
40654DOD     C165781  16.638  14.420  10.744  0.0821  0.1204  0.0347
40654DOD     C265782  16.209  14.663  10.612  0.2173  0.3478  0.0262
40654DOD     C365783  16.048  15.075  10.420  0.1935 -0.1951  0.0281
40655DOD     C165784  30.286  16.869   3.601 -0.0484 -0.0881  0.1580
40655DOD     C265785  30.142  16.485   3.341  0.1999 -0.0692  0.0712
40655DOD     C365786  30.234  16.262   2.950  0.0009  0.0406 -0.1425
40656DOD     C165787   4.315  10.013  29.693 -0.1767  0.0011  0.4719
40656DOD     C265788   4.492  10.249  29.282 -0.0777  0.1589  0.1045
40656DOD     C365789   4.839  10.352  28.961 -0.2266 -0.1158  0.0491
40657DOD     C165790   0.063  22.180   3.280 -0.1102  0.0839  0.1216
40657DOD     C265791  30.295  21.765   3.076  0.1311 -0.0730 -0.0261
40657DOD     C365792  30.091  21.406   2.850  0.0244  0.2504  0.0518
40658DOD     C165793   2.039   5.387   3.364  0.2078 -0.1021  0.2275
40658DOD     C265794   2.306   5.347   3.710 -0.0115 -0.1309 -0.1988
40658DOD     C365795   2.388   5.083   4.066  0.1756 -0.2407  0.1619
40659DOD     C165796   8.554  14.403  16.084  0.0108 -0.2129  0.1442
40659DOD     C265797   9.074  14.386  16.057 -0.0833  0.2479 -0.0860
40659DOD     C365798   9.303  14.010  15.894 -0.0701  0.2570  0.1236
40660DOD     C165799  19.586   1.033   7.119 -0.3094 -0.0829 -0.3370
40660DOD     C265800  19.732   1.125   6.675 -0.0481  0.2293 -0.2487
40660DOD     C365801  19.856   0.980   6.275  0.0899  0.4901 -0.1538
40661DOD     C165802  19.402  10.514  23.535 -0.0127 -0.1195 -0.2313
40661DOD     C265803  19.501  10.025  23.584  0.0575 -0.3820  0.0151
40661DOD     C365804  19.639   9.914  24.014  0.1373  0.0921  0.0519
40662DOD     C165805  26.958  16.033  27.259  0.0475 -0.0758 -0.0453
40662DOD     C265806  26.778  15.588  27.272  0.0714  0.3237 -0.1539
40662DOD     C365807  26.434  15.378  27.357 -0.1690 -0.1457  0.2234
40663DOD     C165808  18.723  28.697  26.157  0.0588  0.2066 -0.4713
40663DOD     C265809  19.206  28.855  26.130 -0.0545 -0.0177  0.0949
40663DOD     C365810  19.345  29.239  25.865 -0.0978  0.0157  0.1616
40664DOD     C165811  15.278   3.713  10.880 -0.0791  0.3124  0.1442
40664DOD     C265812  14.982   4.062  10.979 -0.0067 -0.0716  0.0440
40664DOD     C365813  14.533   4.199  11.052  0.1005  0.0477  0.0638
40665DOD     C165814  18.303   0.386  18.503 -0.2084 -0.1691  0.2288
40665DOD     C265815  17.937   0.478  18.744  0.0067  0.3745  0.0380
40665DOD     C365816  17.619   0.850  18.756 -0.0545 -0.2053  0.1374
40666DOD     C165817  14.059   7.617   5.337  0.2754 -0.1153 -0.4894
40666DOD     C265818  14.528   7.686   5.168 -0.0588  0.1676  0.2655
40666DOD     C365819  14.916   7.595   4.936  0.2179 -0.2058  0.0456
40667DOD     C165820  19.034   3.845  21.251 -0.1053  0.1466  0.0206
40667DOD     C265821  19.496   3.734  21.381  0.0557  0.2592  0.2368
40667DOD     C365822  19.960   3.725  21.464  0.0689  0.3011 -0.0494
40668DOD     C165823  25.363  22.850  24.393 -0.0425  0.0719 -0.0344
40668DOD     C265824  25.778  22.951  24.562 -0.0750  0.0063  0.1102
40668DOD     C365825  26.126  22.683  24.813  0.0828  0.0128  0.1097
40669DOD     C165826  29.379  19.841   1.559  0.1272 -0.1394 -0.0080
40669DOD     C265827  29.068  19.503   1.419  0.0340  0.1154 -0.1407
40669DOD     C365828  29.055  19.226   1.083 -0.1172 -0.0118 -0.0780
40670DOD     C165829   5.154   3.772  21.532 -0.3055  0.0653 -0.0640
40670DOD     C265830   4.779   3.676  21.363 -0.0082 -0.2735 -0.0103
40670DOD     C365831   4.521   3.406  21.290  0.2895  0.0400  0.1530
40671DOD     C165832   0.371   5.955  10.234  0.0010 -0.0634  0.1664
40671DOD     C265833   0.086   5.979  10.686 -0.2154  0.0524  0.1363
40671DOD     C365834   0.086   6.440  10.826 -0.1120  0.0593  0.1098
40672DOD     C165835  24.207   0.509  25.241  0.2133  0.0957 -0.0740
40672DOD     C265836  24.274   0.483  25.740  0.2670 -0.0238  0.1543
40672DOD     C365837  24.050   0.626  26.117  0.2151 -0.3036 -0.2099
40673DOD     C165838  27.607   8.972   0.217  0.2160  0.1667 -0.1875
40673DOD     C265839  27.554   9.388  30.258 -0.0968  0.0822  0.1986
40673DOD     C365840  27.667   9.734  30.005  0.2043 -0.1959 -0.0093
40674DOD     C165841  28.853   3.300  28.160 -0.0967  0.0349  0.0767
40674DOD     C265842  28.936   2.937  27.940 -0.3028  0.2337 -0.0508
40674DOD     C365843  29.022   2.551  27.616  0.0584  0.0327 -0.1035
40675DOD     C165844   7.580  20.355  19.220  0.0373 -0.0176  0.0747
40675DOD     C265845   7.799  20.769  19.349 -0.3053 -0.0595 -0.0128
40675DOD     C365846   8.173  21.022  19.561  0.0444 -0.2585 -0.3242
40676DOD     C165847  19.252   4.419  19.595 -0.3218 -0.1567  0.1025
40676DOD     C265848  18.915   4.778  19.631  0.0389 -0.1674 -0.0442
40676DOD     C365849  18.841   5.258  19.524 -0.0210 -0.2493 -0.3487
40677DOD     C165850  26.357   1.886   4.396  0.2009 -0.0236 -0.0326
40677DOD     C265851  25.989   1.744   4.576 -0.1189  0.1889 -0.1158
40677DOD     C365852  25.758   2.041   4.900 -0.2939 -0.0403  0.0912
40678DOD     C165853   4.420  23.671  15.665 -0.1212 -0.2734 -0.3606
40678DOD     C265854   4.179  23.377  15.436 -0.0672  0.2225 -0.0115
40678DOD     C365855   3.823  23.124  15.601 -0.0872  0.1170 -0.1379
40679DOD     C165856   4.267  20.852   0.541 -0.1479 -0.0240 -0.3709
40679DOD     C265857   4.521  20.522   0.336  0.1198  0.3196 -0.0589
40679DOD     C365858   4.769  20.137   0.139  0.0558  0.1639 -0.1788
40680DOD     C165859   5.997   9.284  22.591  0.2635  0.1397 -0.0277
40680DOD     C265860   6.285   8.908  22.457 -0.0038  0.3893  0.0833
40680DOD     C365861   6.620   8.855  22.096  0.3709  0.0879 -0.4625
40681DOD     C165862   1.641  24.170   2.423  0.2278  0.0426  0.0282
40681DOD     C265863   1.558  23.949   2.883 -0.1022 -0.2653 -0.2864
40681DOD     C365864   1.279  23.894   3.257  0.1338 -0.1676  0.0947
40682DOD     C165865  26.039   4.689   5.670 -0.2281  0.2516 -0.2892
40682DOD     C265866  26.477   4.447   5.793  0.2103  0.0198  0.5490
40682DOD     C365867  26.607   4.014   5.639  0.0377  0.0721  0.0058
40683DOD     C165868  29.577  22.478  28.504  0.0669 -0.1105 -0.2022
40683DOD     C265869  29.538  22.599  28.980  0.0728 -0.1542 -0.0940
40683DOD     C365870  29.441  22.821  29.396  0.2844  0.0255  0.1322
40684DOD     C165871   5.020  27.537   2.946 -0.2419 -0.0263  0.0379
40684DOD     C265872   4.691  27.571   2.657  0.1467  0.0310  0.1229
40684DOD     C365873   4.277  27.618   2.475 -0.2423 -0.1177 -0.1737
40685DOD     C165874  29.139  29.723  20.382  0.1617 -0.2664  0.1371
40685DOD     C265875  28.985  30.203  20.383  0.2649 -0.0972 -0.1623
40685DOD     C365876  28.703   0.209  20.596 -0.0823 -0.1327  0.0864
40686DOD     C165877   4.861   6.689   1.050 -0.0679 -0.1912  0.6112
40686DOD     C265878   4.833   6.984   0.710 -0.0711 -0.0181  0.0253
40686DOD     C365879   4.945   7.350   0.457 -0.2957  0.1462 -0.1187
40687DOD     C165880  24.641  17.380  19.322 -0.2734  0.4412 -0.1040
40687DOD     C265881  24.622  17.022  19.538  0.5142  0.2971  0.0098
40687DOD     C365882  24.347  16.568  19.609  0.0600  0.1433 -0.2254
40688DOD     C165883  13.917  24.612  28.691  0.0819 -0.4139 -0.2338
40688DOD     C265884  13.589  24.936  28.709  0.3175  0.1136  0.2343
40688DOD     C365885  13.404  25.343  28.793  0.2717  0.0217 -0.1890
40689DOD     C165886   3.843  13.009  30.151  0.1959 -0.2502  0.0753
40689DOD     C265887   3.782  12.763   0.271 -0.0057  0.2179  0.0542
40689DOD     C365888   3.401  12.719   0.533  0.1174  0.3754 -0.0720
40690DOD     C165889  23.515  20.345   5.760 -0.0374 -0.3031 -0.0793
40690DOD     C265890  23.311  20.731   5.956  0.0167  0.0900 -0.0955
40690DOD     C365891  23.151  20.924   6.335  0.0703  0.0479  0.3476
40691DOD     C165892   5.335  21.228   2.671  0.5954 -0.1226  0.0021
40691DOD     C265893   4.938  21.166   2.397  0.1392 -0.0395 -0.2760
40691DOD     C365894   4.679  21.544   2.299 -0.0660  0.1349 -0.1778
40692DOD     C165895  29.355  26.959   9.415 -0.0930  0.1385  0.2659
40692DOD     C265896  29.803  27.012   9.370 -0.4073 -0.3244  0.0516
40692DOD     C365897  30.115  26.715   9.258  0.0414 -0.2407 -0.2055
40693DOD     C165898  18.276   8.310   4.093  0.0866  0.4536 -0.3154
40693DOD     C265899  17.817   8.358   4.226  0.0819 -0.3044 -0.0920
40693DOD     C365900  17.784   8.692   4.610 -0.2366 -0.1155 -0.1319
40694DOD     C165901   1.368  12.925  21.465 -0.1369  0.0910 -0.2615
40694DOD     C265902   1.139  12.552  21.388  0.0125  0.1096  0.1489
40694DOD     C365903   0.962  12.379  21.025 -0.1739  0.1526  0.0102
40695DOD     C165904   4.035  14.027  20.054  0.0807 -0.1403  0.0075
40695DOD     C265905   3.722  13.788  20.315  0.2658 -0.0616  0.1061
40695DOD     C365906   3.261  13.861  20.372 -0.1922  0.1172 -0.0418
40696DOD     C165907  22.355  19.587  18.876  0.2028 -0.1695  0.0680
40696DOD     C265908  22.265  19.356  19.326 -0.1508 -0.0237 -0.0607
40696DOD     C365909  22.223  18.977  19.514 -0.1804  0.0097  0.2520
40697DOD     C165910  30.245  20.766  16.004  0.1386  0.1549  0.2100
40697DOD     C265911   0.275  20.557  15.785 -0.0301  0.0506  0.0816
40697DOD     C365912   0.414  20.370  15.361 -0.2437  0.0318 -0.0571
40698DOD     C165913  17.546  24.296   7.230 -0.2414 -0.2493 -0.0702
40698DOD     C265914  17.515  24.584   6.866  0.5294 -0.1441  0.0295
40698DOD     C365915  17.385  24.949   6.658  0.1120  0.1248  0.2981
40699DOD     C165916   2.137   7.738   6.359 -0.1913 -0.1777 -0.0556
40699DOD     C265917   1.874   7.371   6.456  0.1498  0.2575  0.2182
40699DOD     C365918   1.796   6.907   6.400 -0.2742  0.3642 -0.2675
40700DOD     C165919  11.893  27.146  10.140  0.4487 -0.1937 -0.0533
40700DOD     C265920  12.276  27.320  10.107 -0.1122 -0.1413 -0.0570
40700DOD     C365921  12.704  27.298  10.244  0.0697  0.4272  0.0751
40701DOD     C165922  13.181   8.866  26.701  0.0550 -0.0559  0.1763
40701DOD     C265923  13.234   8.666  27.113 -0.1044 -0.1983  0.0475
40701DOD     C365924  13.486   8.738  27.492  0.0137 -0.1541  0.2920
40702DOD     C165925   5.384  24.131  22.986  0.0959 -0.1500 -0.0753
40702DOD     C265926   5.281  24.532  22.862  0.2747 -0.0544 -0.2046
40702DOD     C365927   5.414  24.992  22.954 -0.2861 -0.0266  0.0229
40703DOD     C165928  11.155   6.843  23.951  0.0821  0.1283  0.3129
40703DOD     C265929  10.848   6.590  23.684 -0.1891 -0.1059  0.0658
40703DOD     C365930  10.631   6.319  23.357  0.4246 -0.0014  0.1055
40704DOD     C165931  25.885  21.822  16.586  0.1582  0.1190 -0.2133
40704DOD     C265932  25.909  22.234  16.634  0.0105 -0.0144 -0.0964
40704DOD     C365933  25.852  22.712  16.690 -0.2571  0.0214  0.3273
40705DOD     C165934  19.763  20.384  15.417 -0.0331  0.2328  0.1634
40705DOD     C265935  20.133  20.361  15.112 -0.0705 -0.1577 -0.0793
40705DOD     C365936  20.210  20.445  14.714  0.1534  0.2840 -0.1297
40706DOD     C165937  15.062   4.288  15.055  0.0956 -0.0434  0.2038
40706DOD     C265938  15.039   4.103  14.634  0.0524  0.1438  0.3174
40706DOD     C365939  15.145   4.057  14.230 -0.3831  0.1728  0.0945
40707DOD     C165940  12.801   2.282  26.588 -0.2503 -0.2201  0.1603
40707DOD     C265941  13.061   2.692  26.793  0.2965 -0.0553 -0.3415
40707DOD     C365942  12.960   3.157  26.877 -0.0939  0.0405 -0.0351
40708DOD     C165943  25.904  19.233   2.708  0.0131 -0.1568 -0.1896
40708DOD     C265944  25.473  19.369   2.654 -0.2715  0.1331 -0.4200
40708DOD     C365945  25.033  19.321   2.589 -0.2043 -0.1690  0.1079
40709DOD     C165946  28.741   7.570  25.296 -0.0205  0.1745  0.1180
40709DOD     C265947  28.898   7.260  25.564 -0.1539  0.1369 -0.0761
40709DOD     C365948  29.037   7.129  25.975  0.1411  0.0160 -0.0840
40710DOD     C165949   8.389  25.087  13.482 -0.0708  0.1028  0.2572
40710DOD     C265950   8.804  25.255  13.477 -0.1409  0.2860 -0.1801
40710DOD     C365951   9.068  25.616  13.436 -0.1184  0.2233 -0.1177
40711DOD     C165952  17.861  14.628  13.819  0.0991 -0.0903  0.0775
40711DOD     C265953  17.892  14.648  14.293 -0.0403 -0.0259  0.0439
40711DOD     C365954  18.142  14.573  14.657 -0.1183 -0.2495  0.2229
40712DOD     C165955   9.059   3.001   9.234  0.3211 -0.2106  0.0231
40712DOD     C265956   9.134   2.914   9.683  0.0448  0.0158 -0.1380
40712DOD     C365957   9.260   3.118  10.074  0.0275 -0.0765 -0.3078
40713DOD     C165958   1.928  12.041  12.135  0.5152  0.0455 -0.1936
40713DOD     C265959   1.959  12.134  12.615  0.0168 -0.4170 -0.0340
40713DOD     C365960   2.087  11.923  13.023  0.1076 -0.0039  0.0874
40714DOD     C165961  23.258  20.548  27.446  0.0838 -0.0454 -0.0107
40714DOD     C265962  23.236  20.229  27.817 -0.0242  0.1158  0.2775
40714DOD     C365963  23.111  19.815  27.696 -0.0529  0.1332  0.2149
40715DOD     C165964   2.104  20.617  11.315 -0.2408  0.1854  0.0726
40715DOD     C265965   2.569  20.511  11.274 -0.0943  0.1583  0.0746
40715DOD     C365966   3.001  20.575  11.132 -0.2181  0.1036 -0.1356
40716DOD     C165967  22.205  27.399   8.677  0.3750  0.1952  0.0883
40716DOD     C265968  22.488  27.166   9.005  0.1349 -0.3056 -0.0178
40716DOD     C365969  22.871  27.139   9.173  0.0216 -0.0929  0.1403
40717DOD     C165970   1.795  28.793   9.126 -0.0728  0.3054  0.3371
40717DOD     C265971   1.936  28.362   9.134  0.2542  0.1132 -0.3747
40717DOD     C365972   2.382  28.237   9.188  0.0884 -0.3633 -0.2543
40718DOD     C165973  25.164   7.141  22.973  0.5770  0.0712 -0.3743
40718DOD     C265974  24.866   6.760  23.029  0.1202 -0.0884 -0.3386
40718DOD     C365975  25.033   6.317  22.864  0.3694  0.1414 -0.0949
40719DOD     C165976   2.629  23.690   9.595 -0.3360 -0.2028 -0.2450
40719DOD     C265977   2.792  23.511   9.189 -0.0137  0.0030 -0.4338
40719DOD     C365978   3.152  23.268   8.920 -0.3263  0.0783 -0.0002
40720DOD     C165979   0.952  20.826  27.793 -0.1316  0.0472  0.3486
40720DOD     C265980   1.204  20.742  28.149  0.0832  0.1545 -0.0521
40720DOD     C365981   1.507  20.643  28.508  0.1660  0.2288 -0.2019
40721DOD     C165982  19.130   3.476  10.590 -0.2718  0.0098  0.2300
40721DOD     C265983  18.662   3.518  10.666 -0.0886 -0.2218  0.2570
40721DOD     C365984  18.318   3.875  10.729  0.1322  0.0097  0.1508
40722DOD     C165985   7.839  25.700  15.673 -0.3898  0.0209 -0.0882
40722DOD     C265986   7.718  26.094  15.558  0.0557 -0.1251  0.4115
40722DOD     C365987   7.801  26.210  15.123  0.0887  0.1846 -0.0415
40723DOD     C165988  15.331  25.396  29.008 -0.2053 -0.0848  0.1890
40723DOD     C265989  15.362  25.752  29.372 -0.0298  0.1824 -0.0658
40723DOD     C365990  14.998  25.861  29.694  0.0342  0.0664 -0.1369
40724DOD     C165991  22.411  18.097   3.414  0.0636  0.0043  0.3437
40724DOD     C265992  22.706  18.133   3.749 -0.1984  0.0350 -0.1776
40724DOD     C365993  23.033  18.300   4.092  0.1954  0.1544 -0.1802
40725DOD     C165994  18.102  28.538  27.091  0.0984 -0.3458 -0.0785
40725DOD     C265995  18.239  28.675  27.560  0.0758  0.2531  0.0306
40725DOD     C365996  18.558  28.562  27.863  0.2384 -0.1419  0.3865
40726DOD     C165997  25.579  20.441  11.883 -0.1528  0.2209 -0.3035
40726DOD     C265998  25.339  20.611  11.578  0.0852 -0.2755 -0.0534
40726DOD     C365999  24.964  20.710  11.357 -0.5060 -0.1724 -0.0134
40727DOD     C166000  23.999  16.905  18.718  0.0341  0.0666  0.2601
40727DOD     C266001  24.310  16.795  18.426  0.0112 -0.2057 -0.0832
40727DOD     C366002  24.559  16.665  18.045 -0.1982 -0.0467  0.0479
40728DOD     C166003   5.209  11.814  24.646 -0.1383  0.0417  0.1555
40728DOD     C266004   5.338  11.354  24.775  0.0541  0.2071  0.1618
40728DOD     C366005   5.742  11.163  24.940  0.1802 -0.0743  0.2462
40729DOD     C166006  20.175  22.041  16.000  0.1994 -0.0532 -0.1161
40729DOD     C266007  19.868  21.829  15.677 -0.0576  0.3402 -0.0406
40729DOD     C366008  19.486  21.988  15.407  0.3501 -0.0981  0.1157
40730DOD     C166009   9.760  30.102  13.229 -0.1350  0.0134  0.0733
40730DOD     C266010   9.764   0.132  12.969 -0.4961 -0.1612 -0.1303
40730DOD     C366011   9.931   0.502  12.720 -0.0801 -0.0931  0.0844
40731DOD     C166012   1.415   7.871   3.537 -0.0216 -0.3083  0.1381
40731DOD     C266013   1.799   7.617   3.389 -0.2654  0.2969 -0.2237
40731DOD     C366014   2.235   7.465   3.608 -0.1704 -0.1403 -0.0197
40732DOD     C166015  25.334  27.346  14.025 -0.0798 -0.2098  0.0304
40732DOD     C266016  24.996  27.066  14.241  0.0109 -0.0343  0.2177
40732DOD     C366017  25.004  26.602  14.318  0.1410  0.2551  0.1105
40733DOD     C166018  26.194   9.619  16.037 -0.1121 -0.2217 -0.0933
40733DOD     C266019  26.399   9.990  16.192  0.1170 -0.0219  0.1299
40733DOD     C366020  26.714  10.345  16.115 -0.0610  0.1220 -0.2227
40734DOD     C166021  23.993   0.568  19.862  0.3228 -0.0011  0.0840
40734DOD     C266022  24.383   0.761  19.785  0.2108 -0.0850 -0.0741
40734DOD     C366023  24.671   0.697  19.392  0.3662 -0.1516  0.1104
40735DOD     C166024   7.508  27.163  17.614  0.1060  0.2927  0.3596
40735DOD     C266025   7.225  27.522  17.504 -0.0570  0.3969  0.0083
40735DOD     C366026   7.024  27.933  17.393 -0.1201 -0.0624  0.0312
40736DOD     C166027  30.022  28.458   6.998  0.0827 -0.0657  0.0192
40736DOD     C266028  29.768  28.808   7.177 -0.2559 -0.1984  0.3215
40736DOD     C366029  29.736  28.775   7.590  0.2826 -0.1812 -0.0101
40737DOD     C166030  16.839   9.231  13.930 -0.1541  0.2939 -0.0306
40737DOD     C266031  17.039   9.231  13.554  0.1202 -0.0765 -0.1316
40737DOD     C366032  17.429   9.053  13.291 -0.1138  0.1840  0.0340
40738DOD     C166033   0.931  30.005  25.001  0.1180 -0.3259  0.0537
40738DOD     C266034   1.317  29.744  24.938  0.1917  0.0986 -0.0117
40738DOD     C366035   1.244  29.396  24.589 -0.0944 -0.1045 -0.2283
40739DOD     C166036  26.237  28.897   7.503  0.0924 -0.0406 -0.0935
40739DOD     C266037  26.536  29.210   7.485 -0.2392  0.1585  0.3084
40739DOD     C366038  26.913  29.514   7.473 -0.3368  0.0681  0.0770
40740DOD     C166039  21.945   2.370   6.680  0.0367  0.1542  0.0164
40740DOD     C266040  21.948   2.726   6.973 -0.2455 -0.0825  0.0210
40740DOD     C366041  22.051   3.135   7.223 -0.0985 -0.2218  0.2912
40741DOD     C166042   4.645   6.773  13.702 -0.3191 -0.1013  0.1246
40741DOD     C266043   4.625   7.237  13.836  0.1770  0.1135  0.0743
40741DOD     C366044   4.829   7.634  13.622 -0.0702 -0.1086 -0.0624
40742DOD     C166045  13.373  13.660  29.521 -0.0771  0.4513 -0.4634
40742DOD     C266046  13.372  13.611  30.008  0.0706 -0.0069  0.1802
40742DOD     C366047  13.195  13.859   0.037  0.1375  0.1899 -0.1834
40743DOD     C166048  14.517  27.943   4.530  0.2781 -0.3916 -0.0551
40743DOD     C266049  14.292  27.478   4.519 -0.0120  0.1199 -0.1784
40743DOD     C366050  14.121  27.081   4.366  0.1434  0.1596 -0.0091
40744DOD     C166051   4.085   2.332  24.465  0.6088 -0.0637 -0.0206
40744DOD     C266052   3.963   2.029  24.771 -0.0262  0.1534 -0.0879
40744DOD     C366053   3.972   1.628  25.022 -0.1806  0.5659  0.0728
40745DOD     C166054  22.538   2.002  16.342  0.1068  0.0268  0.0087
40745DOD     C266055  22.949   1.719  16.356  0.1328 -0.0651 -0.5371
40745DOD     C366056  23.229   1.604  16.044 -0.0384 -0.0572 -0.0607
40746DOD     C166057   7.598   9.599  20.564  0.2379  0.2141  0.0492
40746DOD     C266058   7.952   9.862  20.493 -0.1587 -0.0990 -0.1007
40746DOD     C366059   8.401   9.968  20.342 -0.1880  0.0552 -0.1883
40747DOD     C166060  28.905   3.689   9.350 -0.0728  0.4432 -0.1469
40747DOD     C266061  29.018   4.091   9.571  0.0258 -0.0876 -0.3884
40747DOD     C366062  29.284   4.494   9.658  0.2539 -0.0973  0.3660
40748DOD     C166063  10.062  25.223   7.526 -0.1015  0.0309  0.1507
40748DOD     C266064  10.254  25.433   7.204 -0.0649  0.0037 -0.0260
40748DOD     C366065  10.630  25.562   7.029  0.0423 -0.1190 -0.0687
40749DOD     C166066   3.894   4.625  26.789 -0.0441 -0.1032 -0.2029
40749DOD     C266067   3.557   4.623  27.077 -0.2178 -0.0209  0.1290
40749DOD     C366068   3.256   4.679  27.365 -0.0434  0.2260  0.3623
40750DOD     C166069   0.212  26.629  15.145 -0.0782 -0.1527  0.0929
40750DOD     C266070   0.334  27.045  15.378  0.2707 -0.1133  0.2070
40750DOD     C366071   0.555  27.511  15.332 -0.3379 -0.2185 -0.0022
40751DOD     C166072  11.052  19.799   0.175  0.2471 -0.1751 -0.0929
40751DOD     C266073  11.441  19.853  30.244  0.2754  0.0717  0.1630
40751DOD     C366074  11.788  19.533  30.138  0.1483 -0.1224 -0.3521
40752DOD     C166075  15.425  21.524  25.163  0.0705  0.3371  0.1362
40752DOD     C266076  15.830  21.701  25.131 -0.4353  0.1737 -0.1666
40752DOD     C366077  16.137  22.080  25.207  0.2409  0.1783 -0.2321
40753DOD     C166078   5.002  24.263  12.477 -0.0414  0.0960  0.1491
40753DOD     C266079   4.711  24.477  12.138 -0.0910  0.3925  0.0909
40753DOD     C366080   4.386  24.516  11.756 -0.0648  0.1891 -0.0808
40754DOD     C166081  17.546  21.433  18.396 -0.2227  0.0557  0.0415
40754DOD     C266082  17.658  21.774  18.705 -0.0139  0.2850  0.4328
40754DOD     C366083  17.744  21.918  19.074  0.4469  0.0942 -0.0190
40755DOD     C166084  13.198  15.178  29.132 -0.0138  0.0441  0.0302
40755DOD     C266085  13.622  15.382  29.314  0.1784  0.2388  0.0351
40755DOD     C366086  13.893  15.576  29.666  0.1398 -0.0043 -0.0752
40756DOD     C166087   0.665  12.311  25.312 -0.0916  0.2114 -0.1560
40756DOD     C266088   0.526  11.990  25.000  0.1009  0.1557 -0.2302
40756DOD     C366089   0.771  11.696  24.739  0.2986 -0.0033  0.0709
40757DOD     C166090  20.149  27.119   4.974 -0.2976  0.1305  0.0681
40757DOD     C266091  20.108  26.757   4.672  0.2820 -0.0636  0.1065
40757DOD     C366092  19.727  26.592   4.386 -0.1712  0.0528  0.0736
40758DOD     C166093  21.719  21.232  13.275 -0.0522  0.0522  0.0369
40758DOD     C266094  22.072  20.975  13.366  0.1222  0.0573  0.0329
40758DOD     C366095  22.480  20.869  13.378 -0.1537 -0.3607  0.2013
40759DOD     C166096   9.757  29.658  16.558 -0.2744 -0.0109  0.1969
40759DOD     C266097   9.624  30.015  16.336  0.0058  0.2963  0.2925
40759DOD     C366098   9.326   0.099  16.266 -0.1519 -0.2694  0.1999
40760DOD     C166099  14.840  16.228  28.879 -0.0295 -0.0097  0.3489
40760DOD     C266100  15.113  15.894  29.150 -0.3367 -0.1208  0.1439
40760DOD     C366101  15.454  15.979  29.467 -0.1269  0.2292  0.0308
40761DOD     C166102   0.893  14.559  28.774 -0.1949 -0.0748  0.0812
40761DOD     C266103   1.350  14.450  28.925  0.2148  0.0473 -0.0125
40761DOD     C366104   1.541  14.187  29.264 -0.1203  0.3520 -0.1612
40762DOD     C166105  11.818  13.655  16.543 -0.0634 -0.2975  0.1139
40762DOD     C266106  11.474  13.830  16.270 -0.2681  0.0379  0.2430
40762DOD     C366107  11.279  14.172  16.073  0.1499  0.2005  0.0959
40763DOD     C166108  27.848  26.009  26.273 -0.0792  0.2370  0.2224
40763DOD     C266109  27.574  26.321  26.556 -0.2245  0.1831 -0.1339
40763DOD     C366110  27.617  26.293  27.000 -0.0305 -0.3638  0.0387
40764DOD     C166111  25.135  12.301  29.065 -0.0904 -0.3199 -0.0745
40764DOD     C266112  25.321  11.926  29.306  0.0929  0.0524 -0.0354
40764DOD     C366113  25.657  11.591  29.128  0.1485 -0.0212 -0.0903
40765DOD     C166114  23.143  30.106  15.384 -0.0511 -0.0865 -0.0293
40765DOD     C266115  23.421  30.239  15.039  0.2496  0.1756 -0.2556
40765DOD     C366116  23.599  30.221  14.592 -0.0986  0.1086 -0.0587
40766DOD     C166117  19.374   5.684   0.052  0.1854  0.3820 -0.1274
40766DOD     C266118  19.231   5.942   0.469 -0.0593 -0.0149 -0.0208
40766DOD     C366119  18.882   6.073   0.783 -0.0794  0.2377 -0.0853
40767DOD     C166120  12.510   4.771  17.306  0.0464  0.3831 -0.2227
40767DOD     C266121  12.576   4.539  17.651 -0.2156  0.0730 -0.3038
40767DOD     C366122  12.683   4.262  18.020  0.1221  0.1096 -0.1564
40768DOD     C166123  29.667  23.563   6.407  0.6169  0.3543 -0.0820
40768DOD     C266124  29.949  23.683   6.770 -0.0951  0.0371  0.1546
40768DOD     C366125  30.003  23.804   7.170  0.2883 -0.0055 -0.0198
40769DOD     C166126  20.402  25.278   0.088 -0.1610 -0.2471 -0.0624
40769DOD     C266127  20.407  25.445   0.540 -0.0422 -0.2435  0.0994
40769DOD     C366128  20.354  25.463   1.018  0.0697 -0.0268 -0.2283
40770DOD     C166129  23.545  12.549  12.689 -0.0878  0.1196 -0.0278
40770DOD     C266130  23.199  12.859  12.742  0.0400 -0.0635  0.0466
40770DOD     C366131  22.747  12.947  12.879 -0.2047  0.2821  0.1906
40771DOD     C166132   5.009   1.159   4.410  0.0636  0.0508 -0.0193
40771DOD     C266133   5.122   0.924   4.795  0.1044  0.1737  0.1352
40771DOD     C366134   5.196   0.576   5.070 -0.0764 -0.4349  0.1345
40772DOD     C166135  22.734  12.592   7.584 -0.2072  0.3470 -0.2450
40772DOD     C266136  22.701  13.006   7.382 -0.0944  0.1097  0.2212
40772DOD     C366137  22.913  13.380   7.522  0.1799 -0.0887  0.1175
40773DOD     C166138  20.319  29.718  23.908  0.2041 -0.3023  0.4110
40773DOD     C266139  20.411  29.540  24.303  0.1731  0.2132 -0.2894
40773DOD     C366140  20.538  29.618  24.735  0.2578 -0.1718  0.0439
40774DOD     C166141  25.539  26.778  22.135  0.1428 -0.1928 -0.2505
40774DOD     C266142  25.304  26.603  22.497  0.0770  0.1609  0.1263
40774DOD     C366143  25.290  26.638  22.994 -0.0665  0.0395  0.3502
40775DOD     C166144   0.700  29.281  19.526 -0.2058  0.0788  0.1825
40775DOD     C266145   0.525  28.806  19.560 -0.0947 -0.1747 -0.0734
40775DOD     C366146   0.501  28.335  19.614 -0.0269 -0.1504  0.0399
40776DOD     C166147  11.637  16.404   9.709 -0.2312  0.0090 -0.1155
40776DOD     C266148  11.544  16.765   9.406  0.1438  0.0825 -0.0402
40776DOD     C366149  11.308  17.157   9.206  0.0869 -0.1438 -0.2264
40777DOD     C166150  19.936  24.079  10.094 -0.0210  0.0343  0.0060
40777DOD     C266151  20.244  23.981  10.348  0.0549  0.1243 -0.3312
40777DOD     C366152  20.596  24.039  10.623 -0.1276 -0.2624  0.0823
40778DOD     C166153  22.525  21.175  14.618  0.1023  0.1451  0.0050
40778DOD     C266154  22.830  21.501  14.439  0.2528 -0.2576 -0.1456
40778DOD     C366155  23.125  21.852  14.563  0.0977  0.1431  0.0382
40779DOD     C166156   1.914   7.526  12.376  0.2463  0.0133  0.1317
40779DOD     C266157   2.088   7.118  12.219 -0.0113  0.2667 -0.2615
40779DOD     C366158   2.110   6.645  12.206 -0.2163 -0.0761 -0.0194
40780DOD     C166159  13.144   3.098   7.278 -0.1262 -0.0135 -0.0967
40780DOD     C266160  12.895   2.828   7.638  0.2172  0.2757 -0.0545
40780DOD     C366161  12.674   2.437   7.679 -0.0435 -0.0635 -0.4450
40781DOD     C166162   4.731   6.115  20.576  0.1287 -0.1064 -0.2705
40781DOD     C266163   5.012   6.286  20.184  0.1501  0.1613 -0.1871
40781DOD     C366164   5.443   6.128  20.055  0.1613 -0.1078  0.0547
40782DOD     C166165  11.620   5.526  19.152 -0.0259  0.0184  0.0967
40782DOD     C266166  11.583   5.111  19.412  0.0848  0.2435  0.0113
40782DOD     C366167  11.864   4.756  19.481 -0.2015  0.2167  0.0663
40783DOD     C166168   4.474  16.103  12.783  0.0810 -0.0001  0.1446
40783DOD     C266169   4.770  15.852  12.557 -0.2919  0.1214 -0.2108
40783DOD     C366170   5.198  15.611  12.338 -0.1115 -0.1888  0.2297
40784DOD     C166171  12.068  25.479  12.155 -0.1359  0.1556 -0.0131
40784DOD     C266172  12.402  25.213  12.272 -0.1047  0.0801  0.4633
40784DOD     C366173  12.606  24.901  12.490 -0.2816 -0.0226  0.2352
40785DOD     C166174  10.511  30.215  27.204  0.2330  0.3411 -0.2728
40785DOD     C266175  10.431   0.317  27.063 -0.1735  0.3360  0.2209
40785DOD     C366176  10.582   0.692  27.095 -0.0553  0.0247 -0.3556
40786DOD     C166177  12.256  12.986  23.240 -0.0840 -0.2253  0.1807
40786DOD     C266178  12.167  12.608  22.975 -0.1902 -0.2729 -0.3113
40786DOD     C366179  12.041  12.164  22.852  0.0410 -0.1643  0.0690
40787DOD     C166180  19.911   0.329   4.354 -0.2297  0.0857 -0.2045
40787DOD     C266181  19.982   0.416   4.831 -0.3157 -0.1128  0.2108
40787DOD     C366182  20.326   0.201   5.002  0.0780  0.1529 -0.2360
40788DOD     C166183   2.567   0.336  11.827  0.3609  0.1240  0.2375
40788DOD     C266184   2.249   0.218  11.551 -0.0442 -0.3265 -0.0669
40788DOD     C366185   1.914  30.167  11.625 -0.3580 -0.0228 -0.0745
40789DOD     C166186   9.401  12.404  13.725  0.2031  0.1515 -0.0782
40789DOD     C266187   9.744  12.066  13.717  0.2568 -0.0642  0.3233
40789DOD     C366188   9.890  11.688  13.470 -0.0903  0.0825  0.1278
40790DOD     C166189   6.074  10.011  25.231 -0.1569 -0.0114  0.2693
40790DOD     C266190   5.941   9.936  25.642  0.1655 -0.1516 -0.3483
40790DOD     C366191   5.769   9.688  25.992  0.2465 -0.0368 -0.1327
40791DOD     C166192   4.951  14.095  21.594 -0.0677 -0.0328  0.4898
40791DOD     C266193   5.338  13.844  21.611 -0.2722  0.0392  0.1071
40791DOD     C366194   5.707  13.636  21.700  0.0115 -0.2639 -0.0494
40792DOD     C166195  20.514  22.419   4.304 -0.1201  0.0590  0.1848
40792DOD     C266196  20.640  22.649   3.931  0.2745 -0.2122 -0.1045
40792DOD     C366197  20.690  22.497   3.526 -0.2786 -0.1315  0.3573
40793DOD     C166198  22.298   2.022   6.589 -0.2871 -0.1432  0.0417
40793DOD     C266199  22.726   2.192   6.642  0.1704  0.1439 -0.0212
40793DOD     C366200  23.156   2.122   6.858 -0.0176 -0.1841 -0.2077
40794DOD     C166201  28.865  13.736  26.859 -0.2543  0.0018  0.1204
40794DOD     C266202  29.329  13.845  26.915  0.5043  0.0047 -0.2057
40794DOD     C366203  29.710  14.036  27.092 -0.1649 -0.0453  0.1782
40795DOD     C166204  26.876  20.120   9.477  0.2265 -0.0677 -0.1338
40795DOD     C266205  26.992  19.811   9.115  0.2223 -0.2054 -0.1154
40795DOD     C366206  27.115  19.529   8.815 -0.1041 -0.2508 -0.0549
40796DOD     C166207  26.927  12.621   9.507 -0.2165 -0.0098  0.0580
40796DOD     C266208  26.562  12.617   9.198 -0.0564  0.0196  0.1190
40796DOD     C366209  26.599  12.827   8.721 -0.0031  0.1359  0.1536
40797DOD     C166210  20.970  19.059   4.370  0.1307  0.1150 -0.0456
40797DOD     C266211  21.393  19.199   4.299  0.0982 -0.0116  0.2008
40797DOD     C366212  21.819  19.103   4.311  0.0467  0.1743 -0.0499
40798DOD     C166213  18.157  29.201  15.062  0.0354 -0.2221  0.0692
40798DOD     C266214  18.569  29.150  14.862 -0.1145 -0.0874 -0.2107
40798DOD     C366215  19.017  29.134  14.742  0.1327  0.0272 -0.2314
40799DOD     C166216  27.120   4.721  11.531 -0.2000  0.1891 -0.0169
40799DOD     C266217  26.933   4.902  11.169  0.3032  0.4238  0.3983
40799DOD     C366218  26.977   5.248  10.886 -0.1856 -0.2070  0.1538
40800DOD     C166219  14.895  19.086  21.955  0.2194 -0.1120  0.0748
40800DOD     C266220  14.751  19.559  21.999 -0.2476 -0.1009  0.2710
40800DOD     C366221  14.493  19.950  21.851  0.3373 -0.1911 -0.0518
40801DOD     C166222  25.506  19.774  20.358  0.1723 -0.1025  0.0994
40801DOD     C266223  25.380  20.168  20.615 -0.0733 -0.5234  0.0686
40801DOD     C366224  25.432  20.513  20.978 -0.2144  0.1609 -0.1161
40802DOD     C166225   1.175  27.116  26.876 -0.1383 -0.0236  0.1199
40802DOD     C266226   1.074  27.043  26.380  0.2503  0.0609 -0.1700
40802DOD     C366227   0.852  26.764  26.058  0.2368  0.2095  0.0718
40803DOD     C166228   9.823  28.286  16.233 -0.2391 -0.5124  0.1440
40803DOD     C266229  10.256  28.238  16.145 -0.0360 -0.2463  0.1627
40803DOD     C366230  10.663  28.137  15.937  0.1434 -0.2235 -0.2002
40804DOD     C166231  22.514  30.279   8.062 -0.2111  0.1685  0.0201
40804DOD     C266232  22.181   0.291   7.860 -0.3915  0.0035 -0.1116
40804DOD     C366233  22.296   0.706   7.594 -0.0215 -0.1059 -0.0559
40805DOD     C166234  20.271  19.740  14.163  0.1621  0.2384 -0.1904
40805DOD     C266235  20.232  19.785  13.677 -0.1228  0.0468  0.1141
40805DOD     C366236  19.943  19.836  13.363 -0.0579  0.0898  0.1132
40806DOD     C166237   7.597  15.289  29.838  0.3315  0.0243 -0.0729
40806DOD     C266238   7.978  15.582  29.822 -0.1380 -0.0480 -0.0985
40806DOD     C366239   8.333  15.839  29.846  0.0029 -0.2589  0.0053
40807DOD     C166240  13.158   1.478  13.314 -0.3135 -0.1219  0.2580
40807DOD     C266241  12.753   1.281  13.488 -0.2663  0.4093 -0.1272
40807DOD     C366242  12.582   0.985  13.823 -0.2181  0.0876 -0.3673
40808DOD     C166243  14.081  12.319  26.084 -0.0768  0.2756 -0.0032
40808DOD     C266244  14.202  12.111  26.554 -0.1701  0.0552 -0.0558
40808DOD     C366245  13.950  11.944  26.931  0.1996 -0.2150 -0.1126
40809DOD     C166246  26.557   5.731  23.909 -0.3621 -0.1082 -0.0558
40809DOD     C266247  26.756   6.054  23.653 -0.1943 -0.0773  0.0796
40809DOD     C366248  27.008   6.375  23.416 -0.1075 -0.1291  0.0187
40810DOD     C166249  13.168   8.600   8.653  0.0582  0.5279  0.0265
40810DOD     C266250  13.302   8.268   8.316 -0.2260  0.3673  0.0021
40810DOD     C366251  13.543   7.902   8.109  0.3826  0.0851  0.2739
40811DOD     C166252  21.278  25.008  22.609  0.1973 -0.3388 -0.1666
40811DOD     C266253  21.324  24.538  22.520 -0.0942  0.0553 -0.0944
40811DOD     C366254  21.504  24.142  22.328  0.0227 -0.1154  0.4447
40812DOD     C166255   8.957  17.702  19.704  0.2220  0.0257 -0.2700
40812DOD     C266256   8.791  18.120  19.611  0.0770 -0.0166 -0.1036
40812DOD     C366257   8.685  18.460  19.280  0.2651  0.1447 -0.0675
40813DOD     C166258   8.070  13.995  13.164 -0.2754  0.0510  0.2401
40813DOD     C266259   7.886  13.693  13.435  0.0595  0.0502  0.0981
40813DOD     C366260   7.728  13.250  13.502  0.2846 -0.4320 -0.2235
40814DOD     C166261  24.671  27.494  12.344  0.2076  0.1404  0.1118
40814DOD     C266262  24.670  27.961  12.245  0.0725  0.2454  0.5416
40814DOD     C366263  24.411  28.292  12.358  0.0506 -0.0800  0.5022
40815DOD     C166264   8.738   5.656   3.564  0.0542  0.1256 -0.0935
40815DOD     C266265   8.742   5.745   3.104  0.1931  0.1004  0.4748
40815DOD     C366266   8.822   5.643   2.606  0.0632  0.0144  0.0494
40816DOD     C166267   2.517  11.280  20.366 -0.1804  0.1835 -0.1244
40816DOD     C266268   2.706  11.689  20.376  0.0362 -0.1494 -0.1240
40816DOD     C366269   2.778  12.174  20.370  0.3031 -0.1228 -0.0270
40817DOD     C166270   6.516   4.083   8.540  0.2530  0.0093  0.2406
40817DOD     C266271   6.652   4.330   8.908  0.0791 -0.2040 -0.0600
40817DOD     C366272   6.807   4.240   9.373  0.2185  0.1387  0.4621
40818DOD     C166273  26.663  11.977  28.698  0.3100 -0.2363 -0.3642
40818DOD     C266274  26.381  11.924  29.045  0.0057  0.3008 -0.3918
40818DOD     C366275  26.129  11.658  29.356 -0.3623 -0.1208  0.1106
40819DOD     C166276  13.932  26.303  23.773 -0.0095 -0.3224 -0.0441
40819DOD     C266277  13.524  26.505  23.933 -0.3402  0.1400  0.0514
40819DOD     C366278  13.287  26.871  24.071  0.1583  0.2154 -0.1027
40820DOD     C166279   0.332  15.200   1.418  0.0618  0.1569  0.0361
40820DOD     C266280   0.305  14.763   1.559 -0.0478  0.0626  0.0559
40820DOD     C366281   0.504  14.388   1.481  0.1327 -0.1363  0.2656
40821DOD     C166282  17.541   6.140  25.257  0.0991 -0.0471 -0.1519
40821DOD     C266283  17.914   6.044  25.547 -0.0102 -0.3781 -0.0972
40821DOD     C366284  18.372   6.130  25.528  0.0117  0.1434  0.0234
40822DOD     C166285  14.985  25.798  24.621  0.0233 -0.2385  0.1299
40822DOD     C266286  15.183  25.551  24.968 -0.0471  0.2863  0.0352
40822DOD     C366287  15.403  25.183  25.204  0.2937  0.0495 -0.0475
40823DOD     C166288  26.202   1.103  11.485  0.1038 -0.1218  0.0000
40823DOD     C266289  26.297   1.141  11.947  0.0602 -0.0031 -0.2496
40823DOD     C366290  26.300   0.883  12.352 -0.1488 -0.1498 -0.2008
40824DOD     C166291   0.453  19.290  21.529 -0.2269 -0.3206  0.1609
40824DOD     C266292   0.390  18.819  21.387 -0.1111 -0.3074 -0.3956
40824DOD     C366293   0.167  18.500  21.448 -0.0271  0.2956  0.0261
40825DOD     C166294  19.757  12.808  12.300  0.1621 -0.0093  0.2161
40825DOD     C266295  19.505  12.696  11.963  0.2161 -0.0262  0.1350
40825DOD     C366296  19.380  12.805  11.528 -0.1415 -0.3662 -0.1319
40826DOD     C166297  21.904  29.627  25.544  0.0279 -0.0057 -0.2028
40826DOD     C266298  21.625  29.944  25.483  0.1856  0.0612  0.1438
40826DOD     C366299  21.419  30.265  25.762 -0.3620  0.0144 -0.0449
40827DOD     C166300  13.755  26.349   3.028  0.0828  0.1880 -0.0913
40827DOD     C266301  14.006  26.420   3.401  0.0108  0.2608 -0.0080
40827DOD     C366302  14.125  26.632   3.764  0.1938  0.0440  0.0213
40828DOD     C166303  27.968   7.968  29.048  0.1798 -0.0015  0.1074
40828DOD     C266304  27.967   8.133  28.601 -0.0877 -0.1291  0.0022
40828DOD     C366305  27.906   7.852  28.180 -0.0157 -0.0670  0.1029
40829DOD     C166306  18.489  14.250   0.326 -0.1650  0.1987  0.1678
40829DOD     C266307  18.361  14.368  30.230 -0.1290  0.0127 -0.1696
40829DOD     C366308  18.146  14.718  29.960  0.3668 -0.1442  0.2098
40830DOD     C166309   3.971  23.083   7.722 -0.0900  0.3566 -0.2314
40830DOD     C266310   4.370  23.382   7.808  0.2867  0.0409  0.1042
40830DOD     C366311   4.716  23.741   8.010 -0.1860 -0.2359 -0.3202
40831DOD     C166312  18.370  10.894  28.922  0.3419 -0.0345 -0.0313
40831DOD     C266313  18.359  11.364  29.033  0.2386 -0.3565  0.0332
40831DOD     C366314  18.194  11.785  29.120  0.0707 -0.0557  0.0862
40832DOD     C166315  14.936   7.185  18.622 -0.0557  0.0163  0.1508
40832DOD     C266316  14.751   6.752  18.628  0.3274 -0.0029  0.0718
40832DOD     C366317  14.925   6.364  18.673  0.1249  0.0442 -0.1237
40833DOD     C166318  16.433  29.445   7.165  0.0906  0.3920 -0.1205
40833DOD     C266319  16.239  29.880   7.186  0.3707  0.0018  0.1701
40833DOD     C366320  16.001  30.213   6.998 -0.2769 -0.1444 -0.0595
40834DOD     C166321  27.999  28.978   5.909  0.1329  0.0624  0.0690
40834DOD     C266322  27.784  29.241   5.580  0.3319 -0.0257  0.1157
40834DOD     C366323  27.901  29.676   5.520  0.0162  0.0086 -0.1634
40835DOD     C166324  30.176  13.452   8.429 -0.0352 -0.0112  0.0104
40835DOD     C266325  29.969  13.245   8.070 -0.1466 -0.1894  0.1780
40835DOD     C366326  30.000  12.958   7.750 -0.1505 -0.0306 -0.1166
40836DOD     C166327  21.894  16.804  13.211  0.1514 -0.0448  0.0384
40836DOD     C266328  21.861  17.015  13.636 -0.2306 -0.1693  0.0717
40836DOD     C366329  21.896  17.272  14.043  0.0105 -0.1821  0.1217
40837DOD     C166330   3.703   8.022  13.578 -0.0290  0.0042 -0.0434
40837DOD     C266331   3.965   8.124  13.203  0.1965 -0.1166  0.0170
40837DOD     C366332   4.327   8.374  13.115  0.2859  0.0662 -0.0829
40838DOD     C166333  24.094  29.597   1.935  0.1637  0.0487 -0.1282
40838DOD     C266334  23.986  29.356   1.538 -0.0012 -0.1564  0.1288
40838DOD     C366335  23.728  29.451   1.138  0.0216  0.0647  0.2081
40839DOD     C166336   0.287  28.432   6.073  0.1033 -0.1245  0.0683
40839DOD     C266337   0.315  28.222   5.641  0.2381  0.1650  0.0323
40839DOD     C366338   0.330  27.731   5.599  0.1047 -0.0437 -0.0813
40840DOD     C166339  30.063   7.930  24.492  0.3420 -0.2806  0.0648
40840DOD     C266340  29.633   7.736  24.370 -0.3766  0.3070  0.1262
40840DOD     C366341  29.303   7.559  24.680 -0.0216  0.0781  0.1940
40841DOD     C166342   4.587   4.234   0.711  0.2973 -0.1176  0.1840
40841DOD     C266343   4.431   3.816   0.837  0.0151 -0.0498 -0.1702
40841DOD     C366344   4.302   3.432   0.749  0.3377 -0.1184 -0.2134
40842DOD     C166345  17.812  14.898  12.299  0.2673 -0.1033  0.1497
40842DOD     C266346  18.197  14.837  12.437  0.0763  0.0398 -0.1695
40842DOD     C366347  18.559  14.995  12.706  0.1650  0.0866  0.0682
40843DOD     C166348  27.788   5.884  25.596  0.2756  0.0177  0.3452
40843DOD     C266349  27.482   5.823  25.947  0.1023 -0.1020 -0.2933
40843DOD     C366350  27.135   5.736  26.241  0.2008 -0.2570 -0.2043
40844DOD     C166351   5.556  17.205   1.313 -0.3351 -0.0864  0.1879
40844DOD     C266352   5.155  17.010   1.131 -0.0132 -0.2397  0.0345
40844DOD     C366353   4.755  16.741   1.264  0.0636  0.0445  0.2272
40845DOD     C166354  11.119  21.719  26.150  0.0918 -0.0583 -0.0574
40845DOD     C266355  11.209  21.904  26.580 -0.0043 -0.1565  0.2510
40845DOD     C366356  11.446  22.001  26.934  0.2130  0.0306  0.5507
40846DOD     C166357  23.379  25.609  10.639  0.2187  0.3165  0.1089
40846DOD     C266358  23.788  25.370  10.410  0.0525 -0.1483  0.2481
40846DOD     C366359  23.996  25.232   9.966  0.4572 -0.1053  0.1028
40847DOD     C166360  23.581  20.180   4.793  0.0760  0.2735  0.1316
40847DOD     C266361  23.491  20.536   4.435 -0.3315 -0.1146 -0.0329
40847DOD     C366362  23.185  20.745   4.153 -0.1331  0.0373 -0.1207
40848DOD     C166363   5.341  23.824   4.475  0.2309  0.0181  0.1333
40848DOD     C266364   5.387  23.400   4.183  0.0639 -0.1332  0.1926
40848DOD     C366365   5.138  23.186   3.852 -0.1680 -0.0430 -0.1818
40849DOD     C166366  16.254  11.492   9.419 -0.1234  0.0365 -0.4124
40849DOD     C266367  15.995  11.607   9.077 -0.4409  0.0386  0.2973
40849DOD     C366368  16.031  11.539   8.649 -0.0999  0.0792  0.2646
40850DOD     C166369   0.682  20.845  29.669  0.1810  0.0354 -0.1213
40850DOD     C266370   0.580  20.395  29.759  0.2125 -0.1070  0.0986
40850DOD     C366371   0.624  20.002  29.966  0.0193  0.0856  0.2133
40851DOD     C166372   7.139   3.354   3.651  0.0141  0.1595  0.0322
40851DOD     C266373   6.810   3.274   3.279 -0.5266 -0.0437 -0.1906
40851DOD     C366374   6.444   3.231   3.004 -0.0602 -0.1041  0.1527
40852DOD     C166375  14.311  19.961  19.884 -0.0049  0.0026 -0.0236
40852DOD     C266376  14.574  20.335  19.788 -0.0492 -0.0417  0.1213
40852DOD     C366377  15.011  20.519  19.626  0.0027  0.1176 -0.4587
40853DOD     C166378  28.341   9.990   3.874  0.0186 -0.0005  0.0376
40853DOD     C266379  28.587   9.602   3.731 -0.1517 -0.1496 -0.0545
40853DOD     C366380  28.716   9.140   3.805  0.0932  0.0599 -0.1380
40854DOD     C166381   5.953  28.864  20.127  0.1188 -0.0509  0.1306
40854DOD     C266382   5.926  29.179  20.506  0.3410  0.0497 -0.2211
40854DOD     C366383   5.998  29.626  20.791 -0.1035  0.0743  0.0102
40855DOD     C166384  14.722  13.633  20.875 -0.2230  0.0290  0.2204
40855DOD     C266385  14.363  13.835  20.628  0.1499  0.3680 -0.0578
40855DOD     C366386  14.070  14.156  20.792  0.3307 -0.1113  0.0244
40856DOD     C166387   0.502  16.550  23.015  0.0315 -0.1031 -0.0992
40856DOD     C266388   0.103  16.550  22.863  0.0259 -0.3521  0.3568
40856DOD     C366389  30.042  16.808  22.797 -0.0412  0.0553  0.2508
40857DOD     C166390  27.666  26.624  28.832  0.1715 -0.4073 -0.1282
40857DOD     C266391  27.859  27.062  28.702  0.0738 -0.0422 -0.2596
40857DOD     C366392  27.751  27.506  28.766  0.2001  0.2195 -0.2329
40858DOD     C166393  15.685  23.981  23.802 -0.1258 -0.0980 -0.0843
40858DOD     C266394  15.955  24.257  24.040  0.0682  0.2787 -0.0182
40858DOD     C366395  16.160  24.605  23.855 -0.2959  0.5165  0.0389
40859DOD     C166396   0.725   8.485  24.595  0.0964  0.1211  0.0464
40859DOD     C266397   0.652   8.824  24.885  0.1799 -0.1901  0.0208
40859DOD     C366398   0.459   9.173  25.157 -0.0514 -0.0424  0.0517
40860DOD     C166399   2.092   7.067  25.102 -0.2426  0.0247  0.2126
40860DOD     C266400   1.665   7.238  24.856  0.0801  0.0163 -0.3343
40860DOD     C366401   1.636   7.618  24.541  0.1339 -0.1852 -0.0884
40861DOD     C166402  17.494  10.237   2.234 -0.3035 -0.2430 -0.2171
40861DOD     C266403  17.925  10.106   2.160 -0.0057  0.2310 -0.0201
40861DOD     C366404  18.320  10.385   2.268  0.1471 -0.1625  0.4969
40862DOD     C166405   7.941  23.461  23.692  0.0791  0.0412  0.1610
40862DOD     C266406   7.561  23.185  23.814  0.1539  0.3118  0.1701
40862DOD     C366407   7.411  22.714  23.761  0.0681 -0.0882 -0.1667
40863DOD     C166408  28.289   9.215  27.318 -0.1095  0.0739  0.0030
40863DOD     C266409  28.498   9.440  26.941 -0.2440 -0.3693  0.0192
40863DOD     C366410  28.931   9.282  26.721  0.0401 -0.0971  0.0179
40864DOD     C166411   5.444  12.815  10.675  0.1594  0.3240  0.2143
40864DOD     C266412   5.651  13.008  10.980  0.1409 -0.0746 -0.4688
40864DOD     C366413   5.847  13.319  11.357  0.0329  0.0477  0.0336
40865DOD     C166414  18.257  28.625  19.339  0.1050 -0.1178 -0.0457
40865DOD     C266415  17.809  28.677  19.221  0.0488  0.2692 -0.1907
40865DOD     C366416  17.411  28.668  19.474  0.1046  0.0525 -0.1558
40866DOD     C166417  20.406   4.168   7.469  0.0568  0.0198 -0.0758
40866DOD     C266418  20.091   3.909   7.156  0.1071 -0.4664 -0.0176
40866DOD     C366419  19.738   3.600   7.114  0.1791 -0.3394 -0.6790
40867DOD     C166420  22.754   2.780  22.581  0.1147  0.0994 -0.0784
40867DOD     C266421  22.487   3.201  22.495 -0.3621 -0.0064  0.2879
40867DOD     C366422  22.314   3.625  22.551 -0.0043  0.1941 -0.2256
40868DOD     C166423  13.679  12.144   9.953 -0.0558 -0.2108 -0.1147
40868DOD     C266424  13.753  12.494   9.661  0.1531 -0.0734  0.1115
40868DOD     C366425  13.862  12.979   9.628  0.1710 -0.1619 -0.1292
40869DOD     C166426  28.517  29.368  15.857 -0.1967  0.1467  0.0677
40869DOD     C266427  28.031  29.486  15.994 -0.0144  0.1463 -0.2168
40869DOD     C366428  27.624  29.618  16.216 -0.0350 -0.1536 -0.1670
40870DOD     C166429  13.169  27.086  19.253  0.0861  0.2934  0.1609
40870DOD     C266430  12.818  27.354  19.416  0.2097  0.0383  0.0456
40870DOD     C366431  12.458  27.608  19.417  0.1573 -0.1355  0.1579
40871DOD     C166432  16.073   9.248  19.114  0.4052  0.3595  0.1548
40871DOD     C266433  15.851   9.131  18.704 -0.1424  0.1553  0.0847
40871DOD     C366434  15.791   9.304  18.258  0.1433  0.0176 -0.1140
40872DOD     C166435   4.080  16.860  27.738  0.2074  0.0764 -0.0585
40872DOD     C266436   4.123  16.459  27.948 -0.1593 -0.3080 -0.1064
40872DOD     C366437   4.225  16.138  28.269  0.0801 -0.1129  0.0541
40873DOD     C166438   1.224  27.869  24.166  0.1497 -0.0484 -0.0573
40873DOD     C266439   1.520  27.512  24.266  0.1155 -0.1548  0.1634
40873DOD     C366440   1.736  27.169  24.057  0.1334  0.0625  0.0035
40874DOD     C166441   2.450   1.482  15.604 -0.0377 -0.0443  0.0600
40874DOD     C266442   2.428   1.978  15.625  0.3432  0.0232 -0.2531
40874DOD     C366443   2.466   2.486  15.742 -0.2557 -0.0503 -0.0292
40875DOD     C166444  12.598   5.600   4.175 -0.0216  0.0910  0.0453
40875DOD     C266445  12.644   5.449   4.583 -0.0671  0.0700  0.1414
40875DOD     C366446  12.573   5.579   5.008  0.0401 -0.0050  0.2823
40876DOD     C166447   3.036  15.665   5.795 -0.0857 -0.1990  0.2489
40876DOD     C266448   2.875  15.551   6.255 -0.2342 -0.1031 -0.1613
40876DOD     C366449   2.587  15.509   6.616  0.0338 -0.0275 -0.2492
40877DOD     C166450  23.532  10.378  23.181  0.2900 -0.5291  0.0264
40877DOD     C266451  23.772  10.401  22.771  0.2029  0.1479 -0.1457
40877DOD     C366452  23.739  10.140  22.343 -0.0378  0.2511 -0.1887
40878DOD     C166453  28.050  17.866  28.756 -0.0071 -0.0075 -0.0164
40878DOD     C266454  28.272  17.573  28.503 -0.0459 -0.0915 -0.0362
40878DOD     C366455  28.377  17.535  28.069  0.0692  0.0771  0.3957
40879DOD     C166456  19.498   4.463   9.372 -0.1571  0.2399  0.0239
40879DOD     C266457  19.907   4.232   9.574  0.0238  0.2125  0.0191
40879DOD     C366458  20.288   3.995   9.639  0.1711 -0.0041  0.3295
40880DOD     C166459   3.245   1.206  12.813  0.1452 -0.1128 -0.1238
40880DOD     C266460   3.390   0.745  12.886  0.0029  0.0697 -0.0090
40880DOD     C366461   3.538   0.302  12.737  0.3557 -0.2468 -0.0814
40881DOD     C166462  13.709   9.564  10.139  0.0063 -0.3249 -0.0718
40881DOD     C266463  13.811   9.799   9.737 -0.2100 -0.2037 -0.1819
40881DOD     C366464  14.020  10.044   9.350 -0.0965 -0.0390 -0.1841
40882DOD     C166465   8.336   4.188  15.764  0.0731 -0.3827 -0.0773
40882DOD     C266466   8.432   3.778  15.931 -0.0079 -0.1706  0.1384
40882DOD     C366467   8.550   3.489  16.259  0.1408 -0.2438  0.1084
40883DOD     C166468  18.470  26.681  10.791  0.2160  0.1110  0.1377
40883DOD     C266469  18.394  27.119  10.822  0.0804  0.0200 -0.2226
40883DOD     C366470  18.322  27.468  10.552  0.0545  0.0322  0.1585
40884DOD     C166471  15.516  17.216  12.789  0.0984 -0.3578 -0.4989
40884DOD     C266472  15.833  16.973  13.065 -0.0152  0.2021 -0.1306
40884DOD     C366473  16.189  16.638  13.045  0.1508 -0.3179 -0.1424
40885DOD     C166474  13.851   7.183  26.223  0.3036  0.2035  0.1739
40885DOD     C266475  14.291   7.096  26.055 -0.1349 -0.1647 -0.0369
40885DOD     C366476  14.632   7.279  25.780 -0.2861 -0.2151 -0.0174
40886DOD     C166477  17.240  27.162  10.214 -0.3284 -0.0136  0.0228
40886DOD     C266478  17.381  26.781  10.501 -0.2202  0.0015  0.0704
40886DOD     C366479  17.410  26.487  10.855  0.0164  0.0784 -0.2104
40887DOD     C166480  10.287  27.444  11.202  0.1611  0.1233 -0.2009
40887DOD     C266481   9.988  27.714  10.985  0.0011  0.0880 -0.2506
40887DOD     C366482   9.753  27.767  10.598  0.0147  0.2968 -0.1823
40888DOD     C166483  11.992  22.035  16.427  0.1790  0.2237  0.1408
40888DOD     C266484  12.076  21.585  16.395 -0.0245  0.0721 -0.2143
40888DOD     C366485  11.959  21.208  16.612 -0.2637 -0.1846 -0.0486
40889DOD     C166486  10.294  11.413   3.075 -0.1083  0.0065 -0.2260
40889DOD     C266487  10.062  11.114   3.356 -0.3770 -0.1367 -0.1132
40889DOD     C366488   9.787  10.711   3.522  0.1461  0.0547  0.0114
40890DOD     C166489  13.756  23.410   6.894 -0.2160  0.0960  0.1222
40890DOD     C266490  13.906  23.719   7.217  0.1863 -0.2612  0.1426
40890DOD     C366491  13.954  24.119   7.447  0.1730 -0.0984  0.0596
40891DOD     C166492  21.940  16.103  22.351 -0.3187  0.1280 -0.0655
40891DOD     C266493  22.116  15.956  21.947  0.0768 -0.0313  0.0444
40891DOD     C366494  22.389  15.652  21.833  0.1884 -0.2118 -0.0228
40892DOD     C166495  19.495   3.336  26.935  0.2572  0.0742  0.1364
40892DOD     C266496  19.646   3.056  26.607 -0.1750 -0.2609  0.2004
40892DOD     C366497  19.586   2.841  26.177 -0.3458 -0.0646  0.0979
40893DOD     C166498  11.065   6.403  29.745  0.1923 -0.1127 -0.0158
40893DOD     C266499  10.779   6.366  30.108 -0.0141 -0.1234 -0.2301
40893DOD     C366500  10.304   6.362  30.259 -0.0291  0.1370 -0.1719
40894DOD     C166501  27.425  27.473  22.070  0.0125  0.4881  0.3688
40894DOD     C266502  27.883  27.407  22.107 -0.1766 -0.0694 -0.2817
40894DOD     C366503  28.127  27.760  22.324 -0.2783 -0.2338  0.0979
40895DOD     C166504  27.948   1.023   5.667  0.1157  0.0009  0.0152
40895DOD     C266505  28.205   1.397   5.581 -0.0287  0.0317 -0.1247
40895DOD     C366506  28.658   1.505   5.612  0.1547  0.1647  0.1335
40896DOD     C166507  30.322  11.613  21.691  0.2906  0.1924 -0.1095
40896DOD     C266508   0.331  11.839  21.471 -0.0214  0.3155 -0.2830
40896DOD     C366509   0.628  11.816  21.161 -0.0548 -0.1375  0.1805
40897DOD     C166510  20.191  23.927  28.801  0.0618  0.4139  0.2336
40897DOD     C266511  20.055  23.984  29.240 -0.0139  0.1501  0.0592
40897DOD     C366512  20.270  24.155  29.600  0.1978 -0.1344  0.2858
40898DOD     C166513  14.656   9.437  22.359 -0.1753  0.0969 -0.3890
40898DOD     C266514  15.043   9.549  22.600 -0.1302 -0.5493 -0.0128
40898DOD     C366515  15.358   9.544  22.954  0.0068  0.2445  0.1232
40899DOD     C166516  19.024   5.002   3.283  0.3362 -0.0614 -0.0975
40899DOD     C266517  18.888   5.442   3.250 -0.0754 -0.1799  0.0972
40899DOD     C366518  18.619   5.799   3.120  0.1138 -0.0223 -0.1716
40900DOD     C166519   3.782  20.849  24.051 -0.2797 -0.3092  0.1907
40900DOD     C266520   3.372  20.735  23.804  0.0382  0.0150 -0.0010
40900DOD     C366521   3.148  20.376  23.790 -0.1863  0.0171 -0.0219
40901DOD     C166522  14.409  27.483  23.314  0.0050 -0.1902  0.2327
40901DOD     C266523  14.247  27.366  23.725 -0.0790  0.0150 -0.1853
40901DOD     C366524  14.235  27.154  24.151 -0.3051 -0.0423  0.1159
40902DOD     C166525  29.100   2.733   6.163 -0.0903  0.2394 -0.1048
40902DOD     C266526  29.099   2.342   5.868 -0.0367  0.2666  0.2338
40902DOD     C366527  29.132   2.343   5.418 -0.2107 -0.0751  0.3446
40903DOD     C166528  29.452  20.719  15.250 -0.0484  0.6085  0.1868
40903DOD     C266529  29.314  20.500  14.885 -0.0957  0.2700 -0.0849
40903DOD     C366530  29.579  20.412  14.505 -0.0685 -0.3071 -0.2031
40904DOD     C166531   5.733  29.700  11.172 -0.1537  0.0404  0.2576
40904DOD     C266532   5.807  29.438  10.777 -0.2351 -0.0035 -0.0029
40904DOD     C366533   5.892  29.370  10.299  0.1748  0.3126  0.0072
40905DOD     C166534   8.387  10.032   5.696 -0.1069  0.1169 -0.0189
40905DOD     C266535   8.025  10.229   5.489 -0.1797 -0.0167 -0.0540
40905DOD     C366536   7.842  10.662   5.389 -0.1906 -0.2395 -0.3352
40906DOD     C166537   6.256  13.154  25.183  0.2076 -0.1265  0.3101
40906DOD     C266538   5.809  13.251  24.961 -0.1550  0.2075 -0.1620
40906DOD     C366539   5.586  13.087  24.614  0.1235 -0.2306 -0.1951
40907DOD     C166540   8.706   5.684  29.787 -0.0428  0.1478 -0.1224
40907DOD     C266541   8.696   5.297  29.509  0.0428  0.1593 -0.2135
40907DOD     C366542   8.399   4.998  29.348  0.0964  0.3176 -0.1786
40908DOD     C166543  15.126   9.109   0.417  0.1469 -0.0643 -0.1565
40908DOD     C266544  15.084   8.699   0.405 -0.0429 -0.0339  0.0819
40908DOD     C366545  15.332   8.525   0.110 -0.2976 -0.2260  0.1022
40909DOD     C166546   8.626  16.248  13.362 -0.1933 -0.0492  0.2284
40909DOD     C266547   8.653  16.540  13.018  0.2035 -0.1133 -0.0447
40909DOD     C366548   8.669  16.865  12.680 -0.2213 -0.2195 -0.3960
40910DOD     C166549   6.475  22.801   7.731 -0.0299  0.2467 -0.2729
40910DOD     C266550   6.875  22.971   7.674  0.1297  0.1286 -0.1818
40910DOD     C366551   7.143  23.336   7.492 -0.0998  0.0042 -0.2243
40911DOD     C166552   5.152   5.138  24.735  0.0070 -0.4974  0.0024
40911DOD     C266553   5.593   5.128  24.582 -0.1024 -0.3360 -0.0579
40911DOD     C366554   5.766   4.733  24.380  0.0343 -0.0860  0.0418
40912DOD     C166555  20.276   3.928  22.246 -0.1877 -0.0474  0.4602
40912DOD     C266556  20.734   3.915  22.232  0.0587 -0.1474 -0.3229
40912DOD     C366557  21.195   3.992  22.314  0.0277 -0.1798  0.0300
40913DOD     C166558   9.167  14.178   8.749 -0.0475 -0.0417  0.1061
40913DOD     C266559   9.634  14.194   8.826  0.0562 -0.0119 -0.2298
40913DOD     C366560   9.984  14.451   8.784 -0.0853 -0.1146 -0.4504
40914DOD     C166561   3.225   7.061   6.052 -0.1939 -0.1736 -0.4443
40914DOD     C266562   3.047   7.403   6.021 -0.1651  0.1289 -0.1429
40914DOD     C366563   3.160   7.764   5.750 -0.1737  0.0873 -0.1313
40915DOD     C166564   3.314   5.416  26.398 -0.2588  0.1112 -0.0137
40915DOD     C266565   3.078   5.803  26.342 -0.1740  0.1251 -0.0613
40915DOD     C366566   2.647   6.030  26.407 -0.1043  0.1070  0.0488
40916DOD     C166567  13.613  30.141   5.219 -0.0248  0.0617 -0.3775
40916DOD     C266568  13.530   0.050   4.829  0.1245 -0.1717  0.0334
40916DOD     C366569  13.321   0.216   4.499 -0.1224 -0.2322 -0.1060
40917DOD     C166570  11.899  28.458   6.361  0.2779 -0.0751 -0.0020
40917DOD     C266571  11.992  28.048   6.334  0.0816  0.1238 -0.2294
40917DOD     C366572  11.974  27.643   6.134  0.1544 -0.2089  0.0883
40918DOD     C166573   7.263  20.475   4.498  0.2532 -0.1477  0.2095
40918DOD     C266574   7.698  20.586   4.303 -0.1003 -0.0444 -0.0716
40918DOD     C366575   7.951  21.026   4.285 -0.1494  0.1994  0.1679
40919DOD     C166576   3.474  28.801   9.188 -0.0944 -0.0301  0.0411
40919DOD     C266577   3.409  29.256   9.201  0.1240  0.2313 -0.0506
40919DOD     C366578   3.443  29.558   9.552  0.2193 -0.1344 -0.1032
40920DOD     C166579  27.920   1.570  16.607 -0.0706  0.2353 -0.0055
40920DOD     C266580  28.269   1.845  16.437  0.1079 -0.0925 -0.4724
40920DOD     C366581  28.555   1.893  16.059  0.2331 -0.2102  0.3293
40921DOD     C166582  29.505  18.326  11.762 -0.3018 -0.0259 -0.1057
40921DOD     C266583  29.798  18.642  11.837  0.3184 -0.0292 -0.2434
40921DOD     C366584  30.127  19.005  11.842  0.0545 -0.2892  0.2339
40922DOD     C166585  12.872  22.054  28.034  0.1307 -0.0748  0.2231
40922DOD     C266586  13.120  22.197  27.738 -0.2111 -0.1681  0.0265
40922DOD     C366587  13.428  22.439  27.446 -0.3049 -0.1448  0.0909
40923DOD     C166588  24.907  15.719   6.778  0.4300 -0.0448 -0.3359
40923DOD     C266589  25.098  15.933   6.408 -0.0529 -0.0120  0.0887
40923DOD     C366590  24.866  15.989   6.004 -0.1067  0.1420  0.0455
40924DOD     C166591  10.163  28.843  24.289  0.0318  0.1724  0.3337
40924DOD     C266592  10.379  29.007  23.889  0.2902  0.1094 -0.3017
40924DOD     C366593  10.601  29.082  23.526 -0.1660 -0.0185 -0.0755
40925DOD     C166594  22.585  28.750  11.367  0.2818 -0.0792  0.1215
40925DOD     C266595  22.836  28.359  11.440  0.0166  0.2996 -0.0129
40925DOD     C366596  23.057  27.942  11.445  0.0437  0.0278  0.1358
40926DOD     C166597  23.813  23.600  13.734  0.1959  0.1245 -0.2063
40926DOD     C266598  23.769  23.261  14.106 -0.1398 -0.0914  0.0958
40926DOD     C366599  23.831  23.255  14.536 -0.0654  0.1870 -0.0723
40927DOD     C166600   1.248   3.411  19.235  0.0385  0.2389 -0.0278
40927DOD     C266601   1.695   3.398  19.138  0.1839  0.0528  0.0675
40927DOD     C366602   2.147   3.329  19.121 -0.0965  0.0845 -0.2784
40928DOD     C166603  10.864  26.313   8.139  0.0806  0.0223 -0.0920
40928DOD     C266604  11.030  25.869   8.206  0.1806  0.6655 -0.1106
40928DOD     C366605  10.883  25.614   8.596 -0.0415  0.2459  0.2148
40929DOD     C166606   7.909   0.146  12.182 -0.3791 -0.1948 -0.1389
40929DOD     C266607   7.836   0.180  11.703  0.0722  0.3144 -0.0088
40929DOD     C366608   7.565   0.497  11.374  0.3371 -0.0143 -0.2079
40930DOD     C166609  16.180  15.398  26.294  0.1441 -0.1203  0.2477
40930DOD     C266610  16.530  15.677  26.166  0.0845 -0.0922  0.0212
40930DOD     C366611  16.868  15.851  26.330 -0.0155  0.0612 -0.0294
40931DOD     C166612  19.042  20.590  25.223  0.2984 -0.1930 -0.1293
40931DOD     C266613  19.235  21.044  25.201 -0.1207 -0.0289  0.0378
40931DOD     C366614  19.377  21.408  25.454 -0.2218 -0.0741 -0.3730
40932DOD     C166615  15.639   3.089  22.425  0.2200 -0.2110 -0.0841
40932DOD     C266616  16.056   3.022  22.613  0.0207  0.3331 -0.3467
40932DOD     C366617  16.446   3.079  22.805  0.0143  0.3748 -0.1115
40933DOD     C166618  18.616  14.816   2.436  0.0771 -0.1577  0.0565
40933DOD     C266619  18.450  14.715   2.020  0.0756 -0.5357  0.1747
40933DOD     C366620  18.138  15.040   1.920  0.0873 -0.0405  0.0197
40934DOD     C166621  15.345   0.218   7.079  0.1151 -0.4039  0.0832
40934DOD     C266622  15.555   0.468   7.349  0.3326 -0.1737 -0.0102
40934DOD     C366623  15.845   0.591   7.691  0.2741 -0.1974 -0.2543
40935DOD     C166624   2.928   3.210   9.371 -0.0826  0.2051  0.0394
40935DOD     C266625   2.516   3.435   9.265 -0.1150  0.1617 -0.0733
40935DOD     C366626   2.099   3.721   9.296  0.1144  0.4774 -0.4065
40936DOD     C166627   4.182   0.507  25.588  0.0373 -0.1939  0.1683
40936DOD     C266628   3.910   0.683  25.942  0.0746 -0.1795 -0.2684
40936DOD     C366629   3.660   1.038  26.224  0.2536 -0.1012  0.2551
40937DOD     C166630   4.535  26.725  28.076  0.1163 -0.2341  0.1565
40937DOD     C266631   4.518  27.195  28.052 -0.0248  0.2358 -0.1404
40937DOD     C366632   4.928  27.432  27.897  0.0167 -0.1435 -0.1020
40938DOD     C166633  26.783  28.581  23.032 -0.2499  0.2125 -0.0738
40938DOD     C266634  26.341  28.691  23.099 -0.2720 -0.1412 -0.0294
40938DOD     C366635  25.902  28.748  23.270  0.3069  0.0631  0.0340
40939DOD     C166636   5.675  25.183   1.291 -0.0834 -0.0052  0.0860
40939DOD     C266637   6.004  24.796   1.205 -0.1965 -0.0076  0.0621
40939DOD     C366638   5.895  24.341   1.332  0.0968 -0.0265 -0.0560
40940DOD     C166639  20.726   1.802  25.545 -0.1338 -0.0068 -0.2812
40940DOD     C266640  20.547   1.479  25.337  0.0433  0.3386  0.1598
40940DOD     C366641  20.494   1.052  25.547  0.1143 -0.1663  0.0850
40941DOD     C166642   4.941   8.884  24.662  0.0135 -0.0297  0.2703
40941DOD     C266643   4.522   8.796  24.536  0.1989  0.1339 -0.1491
40941DOD     C366644   4.361   9.035  24.123  0.3223 -0.3716  0.1103
40942DOD     C166645  27.048   7.080  14.409 -0.0927  0.2103 -0.1139
40942DOD     C266646  26.971   7.455  14.053  0.0578 -0.1023  0.1739
40942DOD     C366647  26.897   7.755  13.656  0.0311 -0.1419 -0.0801
40943DOD     C166648  20.057   2.590   1.345 -0.1466 -0.2455 -0.0540
40943DOD     C266649  19.685   2.555   1.169 -0.0545  0.0612  0.1798
40943DOD     C366650  19.233   2.634   1.147  0.1286 -0.0569  0.1552
40944DOD     C166651   7.343   7.862  21.624 -0.0727 -0.1610 -0.3705
40944DOD     C266652   7.528   8.132  21.263  0.0054  0.5140 -0.0324
40944DOD     C366653   7.726   8.332  20.878  0.0419  0.3525 -0.0178
40945DOD     C166654  24.549   7.670   3.858  0.1020 -0.0332  0.0254
40945DOD     C266655  24.424   7.667   3.380 -0.4653 -0.0600  0.1088
40945DOD     C366656  24.703   7.711   2.986  0.0882 -0.0377 -0.0357
40946DOD     C166657  20.436   1.915   9.593  0.0627  0.2518 -0.0373
40946DOD     C266658  20.480   1.606   9.961  0.0482  0.0178 -0.3652
40946DOD     C366659  20.698   1.348  10.251 -0.0184  0.0772 -0.1664
40947DOD     C166660  14.005   5.065  27.669  0.1467  0.1990 -0.0443
40947DOD     C266661  13.950   5.099  27.159 -0.1938 -0.0140  0.2299
40947DOD     C366662  13.657   4.830  26.868  0.2104  0.0279  0.0920
40948DOD     C166663  12.503  19.351   9.289  0.0403 -0.0703  0.0825
40948DOD     C266664  12.613  19.202   8.869  0.0792  0.2429  0.0357
40948DOD     C366665  12.730  18.777   8.719  0.0384  0.2774 -0.1478
40949DOD     C166666  23.471  20.298  11.241 -0.2966 -0.1687  0.2608
40949DOD     C266667  23.290  20.723  11.205 -0.0903  0.0250  0.3379
40949DOD     C366668  23.117  21.096  10.973 -0.1943  0.0585  0.1235
40950DOD     C166669  22.440   1.534   5.702 -0.0816  0.1625 -0.0527
40950DOD     C266670  22.055   1.523   5.981 -0.0297 -0.0991  0.2370
40950DOD     C366671  21.697   1.779   6.025  0.1141  0.1340 -0.1921
40951DOD     C166672  13.755  13.876  25.447 -0.0506 -0.0986  0.1576
40951DOD     C266673  13.885  13.709  25.904 -0.3974 -0.2327 -0.0718
40951DOD     C366674  14.088  13.242  26.037  0.0759  0.0554  0.1541
40952DOD     C166675  12.568  19.593  24.764 -0.1842 -0.1004 -0.2578
40952DOD     C266676  12.433  19.996  24.626  0.1579 -0.0727  0.4365
40952DOD     C366677  12.060  20.179  24.357  0.2565  0.0384 -0.1496
40953DOD     C166678  22.866  27.733   7.896 -0.3896 -0.0449 -0.1523
40953DOD     C266679  22.634  27.485   8.250 -0.2604  0.0050  0.0118
40953DOD     C366680  22.730  27.324   8.649 -0.0847  0.3325  0.1396
40954DOD     C166681  23.167  26.182  29.249 -0.2864 -0.1838  0.1339
40954DOD     C266682  23.025  26.326  29.683  0.1504 -0.1070 -0.0996
40954DOD     C366683  22.840  26.335  30.175  0.1403  0.0724  0.0930
40955DOD     C166684   8.789  21.576   5.565 -0.3338  0.0195 -0.2519
40955DOD     C266685   9.132  21.354   5.371 -0.1373  0.0970  0.0444
40955DOD     C366686   9.299  21.030   5.042  0.3172 -0.0804  0.1272
40956DOD     C166687  19.912  24.173   9.205 -0.1446 -0.1429 -0.0401
40956DOD     C266688  20.208  24.157   9.609  0.1942 -0.1077 -0.0039
40956DOD     C366689  20.657  24.163   9.764 -0.1809  0.0724 -0.0700
40957DOD     C166690  22.807  17.074  13.257  0.2033 -0.1020  0.2095
40957DOD     C266691  22.964  17.521  13.255 -0.1552  0.1683 -0.2621
40957DOD     C366692  23.148  17.819  12.880  0.1555 -0.1162 -0.0297
40958DOD     C166693   0.407  29.125  20.993 -0.1191  0.0256 -0.2137
40958DOD     C266694   0.466  28.675  20.913  0.0034  0.0409 -0.1905
40958DOD     C366695   0.400  28.249  20.668 -0.1808 -0.0006 -0.0167
40959DOD     C166696   2.398  11.684  22.556 -0.0362  0.2929  0.4045
40959DOD     C266697   2.080  11.617  22.836 -0.1676  0.0003  0.1551
40959DOD     C366698   1.966  11.438  23.257 -0.0048  0.0306  0.1130
40960DOD     C166699  11.725  13.623  23.559 -0.4968  0.1485 -0.0261
40960DOD     C266700  11.669  13.522  23.994 -0.1835  0.0968  0.0223
40960DOD     C366701  11.571  13.258  24.403 -0.1928 -0.0089  0.0020
40961DOD     C166702  12.436  17.904  24.939  0.0156 -0.1993  0.0847
40961DOD     C266703  11.968  18.139  25.116 -0.0847  0.1611  0.1882
40961DOD     C366704  11.697  18.442  24.950  0.2945 -0.1592  0.0351
40962DOD     C166705   7.837  20.137  17.717 -0.0795 -0.0166  0.0472
40962DOD     C266706   7.965  20.529  17.946 -0.0376 -0.1226 -0.0015
40962DOD     C366707   7.751  20.674  18.315  0.4365 -0.0458 -0.1417
40963DOD     C166708   1.618   8.860  17.153 -0.2118  0.3892 -0.1344
40963DOD     C266709   1.182   9.025  17.079  0.0176 -0.0293 -0.1097
40963DOD     C366710   1.261   9.230  16.713 -0.0405  0.4210  0.2970
40964DOD     C166711   5.577  26.514   3.411 -0.0458  0.1729 -0.0183
40964DOD     C266712   6.032  26.572   3.490  0.1694 -0.0153 -0.0693
40964DOD     C366713   6.417  26.673   3.658  0.1163 -0.0882 -0.1274
40965DOD     C166714  25.106   8.606  22.203  0.1156  0.0662 -0.1079
40965DOD     C266715  24.978   8.920  21.935 -0.1969  0.0948 -0.1881
40965DOD     C366716  24.810   9.290  21.674 -0.1772 -0.1318  0.2491
40966DOD     C166717  13.886   1.672  15.725 -0.1146  0.0311  0.0627
40966DOD     C266718  13.675   1.282  15.776 -0.1361 -0.0959 -0.1629
40966DOD     C366719  13.844   0.847  15.916  0.1084 -0.0615 -0.1655
40967DOD     C166720  18.425  13.541  13.911  0.2436  0.2139  0.1251
40967DOD     C266721  18.118  13.695  13.661  0.1168  0.2910 -0.1578
40967DOD     C366722  17.841  13.826  13.313 -0.1549  0.0348 -0.0012
40968DOD     C166723  15.361  11.427  19.312 -0.0988 -0.2008  0.0432
40968DOD     C266724  15.474  11.709  19.608  0.1458  0.0426  0.0960
40968DOD     C366725  15.150  11.918  19.900 -0.1364 -0.2940  0.1332
40969DOD     C166726  13.967  10.921  11.023  0.1207  0.1546  0.1380
40969DOD     C266727  14.334  11.003  11.315 -0.5017 -0.2727  0.1783
40969DOD     C366728  14.811  11.085  11.402 -0.1080  0.0744 -0.1341
40970DOD     C166729   3.183   6.039   3.579 -0.0824  0.0708  0.0161
40970DOD     C266730   3.010   5.819   3.946 -0.0769  0.3037 -0.0294
40970DOD     C366731   2.633   5.613   3.949  0.1136  0.3508 -0.1948
40971DOD     C166732  16.443   0.864  17.775  0.1100  0.3705  0.0977
40971DOD     C266733  16.339   0.933  18.211  0.1184  0.3665 -0.4560
40971DOD     C366734  16.144   0.882  18.646 -0.1986 -0.1686  0.1027
40972DOD     C166735  23.048   0.836   7.189  0.2052  0.3545 -0.1293
40972DOD     C266736  22.948   1.208   6.981  0.2466 -0.2074  0.3406
40972DOD     C366737  23.115   1.610   6.853 -0.1474 -0.1121 -0.0206
40973DOD     C166738  29.711  13.493  27.771  0.1193  0.1608 -0.2301
40973DOD     C266739  29.457  13.395  28.144  0.1432  0.0550  0.4822
40973DOD     C366740  29.386  13.433  28.577  0.2097 -0.0286  0.1359
40974DOD     C166741  25.196   9.419   8.236  0.0706  0.0599 -0.0741
40974DOD     C266742  24.997   9.558   7.831  0.1184  0.0359 -0.1576
40974DOD     C366743  24.765   9.668   7.446  0.1810  0.0199 -0.0395
40975DOD     C166744  19.616   6.125  15.362  0.1566  0.2000  0.2826
40975DOD     C266745  19.836   6.300  15.719  0.2364  0.0212  0.1432
40975DOD     C366746  19.624   6.281  16.121  0.2022 -0.0752  0.2294
40976DOD     C166747  10.937   0.364  24.815 -0.1164 -0.0693 -0.3313
40976DOD     C266748  11.222   0.713  25.048 -0.0673  0.0983  0.0928
40976DOD     C366749  11.378   0.764  25.476 -0.1567  0.2152  0.1757
40977DOD     C166750  11.399   0.180   3.354 -0.3251 -0.0651 -0.0012
40977DOD     C266751  11.073   0.501   3.143  0.1058 -0.1004  0.1231
40977DOD     C366752  10.884   0.668   2.705 -0.2887  0.1302 -0.0334
40978DOD     C166753   3.083  15.108   7.289  0.2225 -0.0932  0.2514
40978DOD     C266754   2.916  14.792   6.957  0.0487 -0.0352 -0.0090
40978DOD     C366755   2.787  14.390   7.023 -0.0285 -0.0032  0.1216
40979DOD     C166756  22.388   0.832  28.112 -0.1485 -0.2731  0.1084
40979DOD     C266757  22.457   0.450  27.901  0.0375 -0.1916  0.1330
40979DOD     C366758  22.657   0.062  27.705  0.1170 -0.4651  0.0337
40980DOD     C166759  24.221  19.258   9.199 -0.1652 -0.1690 -0.4101
40980DOD     C266760  24.229  18.954   8.811 -0.0940  0.0525 -0.0755
40980DOD     C366761  23.849  18.715   8.852 -0.0256  0.2958  0.2586
40981DOD     C166762  16.299  20.649  13.120  0.0187  0.0528  0.0038
40981DOD     C266763  16.037  20.520  13.472  0.1830  0.1862 -0.2054
40981DOD     C366764  15.644  20.296  13.678 -0.0879 -0.0919  0.4122
40982DOD     C166765   8.640   0.918  17.233 -0.0679 -0.1850 -0.1944
40982DOD     C266766   8.719   0.902  17.694  0.0141 -0.1631 -0.1553
40982DOD     C366767   8.811   0.765  18.089  0.0596  0.0478  0.1434
40983DOD     C166768  16.907  27.804  23.333 -0.2468 -0.0186 -0.1189
40983DOD     C266769  17.312  27.875  23.523 -0.0474  0.0595 -0.0004
40983DOD     C366770  17.672  27.900  23.827 -0.1553 -0.2005 -0.1925
40984DOD     C166771   1.738  21.950  30.076 -0.1329 -0.0900 -0.1458
40984DOD     C266772   2.001  22.324  30.023  0.0118  0.2097  0.3083
40984DOD     C366773   2.038  22.793  30.092 -0.0808  0.3643 -0.2758
40985DOD     C166774  18.853  15.745   1.439  0.1942  0.1592  0.1199
40985DOD     C266775  18.861  16.159   1.235  0.1273  0.2424 -0.1191
40985DOD     C366776  18.912  16.638   1.193  0.3422 -0.0664  0.2334
40986DOD     C166777  10.667  28.488  19.281  0.0830  0.3709 -0.3475
40986DOD     C266778  10.242  28.673  19.115  0.0262 -0.1367  0.3228
40986DOD     C366779   9.890  28.747  18.802 -0.4514 -0.2359  0.3042
40987DOD     C166780  14.593  25.204  13.517 -0.1936 -0.2698 -0.1375
40987DOD     C266781  14.784  25.597  13.608 -0.4393 -0.4183 -0.1909
40987DOD     C366782  14.739  25.924  13.934  0.0829  0.0786 -0.0946
40988DOD     C166783   4.671  17.628  22.444  0.0163 -0.0254 -0.0087
40988DOD     C266784   4.586  17.461  21.991 -0.1682  0.1435  0.2111
40988DOD     C366785   4.577  17.521  21.559 -0.3503 -0.1164 -0.1758
40989DOD     C166786  15.949  24.855  30.012  0.0086  0.1364 -0.1330
40989DOD     C266787  15.767  24.834   0.094 -0.1979 -0.0933  0.2084
40989DOD     C366788  15.715  24.625   0.512  0.0954  0.1967  0.3453
40990DOD     C166789  15.006  17.405  21.519  0.2748  0.2480 -0.1417
40990DOD     C266790  15.059  17.563  21.055  0.3089 -0.1834  0.2402
40990DOD     C366791  14.863  17.610  20.632  0.0665  0.5477 -0.2674
40991DOD     C166792   0.490  19.276  28.945 -0.2575 -0.0478  0.1128
40991DOD     C266793   0.846  19.576  28.859  0.0428 -0.0245 -0.0063
40991DOD     C366794   0.855  20.034  28.859 -0.1548 -0.0951  0.1943
40992DOD     C166795  18.259  23.048  22.279  0.1425 -0.1330 -0.0410
40992DOD     C266796  17.806  23.182  22.158 -0.1558  0.1443 -0.1655
40992DOD     C366797  17.436  23.353  21.948 -0.2562  0.2532 -0.0529
40993DOD     C166798   1.038  16.697  23.117  0.1217  0.0074  0.1749
40993DOD     C266799   0.736  16.923  22.750  0.2033  0.2043  0.0107
40993DOD     C366800   0.759  17.176  22.354  0.2990 -0.0913  0.2294
40994DOD     C166801  15.955  10.279  11.089  0.2336  0.0621  0.2414
40994DOD     C266802  16.255  10.154  11.389  0.1829  0.2044  0.1985
40994DOD     C366803  16.359  10.094  11.830 -0.0242  0.0258 -0.0714
40995DOD     C166804  14.736   9.653   1.793 -0.0617 -0.0517  0.2160
40995DOD     C266805  14.806   9.651   1.300  0.1044  0.0080 -0.3448
40995DOD     C366806  15.011   9.535   0.920  0.1498 -0.2226 -0.0002
40996DOD     C166807   1.370  15.954   8.530  0.3688 -0.0396  0.0502
40996DOD     C266808   1.008  15.830   8.365  0.1575  0.1358  0.0091
40996DOD     C366809   0.608  15.735   8.098 -0.0158 -0.1573  0.0644
40997DOD     C166810   8.191   1.903  27.591 -0.1776 -0.0529 -0.2231
40997DOD     C266811   8.540   1.728  27.311  0.1184 -0.4372  0.3192
40997DOD     C366812   8.734   1.616  26.842  0.3639 -0.0900 -0.1848
40998DOD     C166813  29.484   4.408  16.688 -0.1499 -0.4174  0.2828
40998DOD     C266814  29.930   4.532  16.735 -0.1957 -0.2636 -0.2148
40998DOD     C366815  30.187   4.579  17.076  0.1815 -0.1230  0.3800
40999DOD     C166816  13.881   3.113  28.631  0.1552 -0.0584  0.0386
40999DOD     C266817  13.981   3.143  29.097  0.2332 -0.1112  0.1217
40999DOD     C366818  14.168   3.427  29.452 -0.2438  0.1685  0.0254
41000DOD     C166819  18.141  19.916  21.997  0.0477  0.2565 -0.0389
41000DOD     C266820  17.743  19.770  21.897  0.0747  0.1179 -0.2216
41000DOD     C366821  17.438  19.723  21.553  0.0400 -0.1359 -0.4834
41001DOD     C166822  26.577  25.323   2.496  0.0619  0.0194 -0.3381
41001DOD     C266823  26.465  25.576   2.898  0.3478  0.0322  0.0064
41001DOD     C366824  26.353  25.757   3.323  0.0020  0.3485 -0.0706
41002DOD     C166825  13.320  15.177  19.353  0.2106  0.0340  0.2808
41002DOD     C266826  13.244  15.393  19.738  0.1010  0.0272  0.0644
41002DOD     C366827  13.271  15.593  20.135 -0.1302 -0.0935 -0.1882
41003DOD     C166828  22.908   4.868  10.488 -0.0114 -0.0090  0.2350
41003DOD     C266829  23.012   4.538  10.261  0.0257  0.0900  0.0756
41003DOD     C366830  23.056   4.154   9.943 -0.2981 -0.0444  0.1249
41004DOD     C166831  16.262  16.074  18.621  0.0572 -0.0182  0.2309
41004DOD     C266832  16.203  16.212  18.182 -0.0589  0.0277  0.1088
41004DOD     C366833  16.116  15.987  17.770 -0.3936 -0.2007  0.2013
41005DOD     C166834  14.751  23.150   3.623  0.2130 -0.0447 -0.1827
41005DOD     C266835  14.826  22.793   3.957  0.2221 -0.0308 -0.1969
41005DOD     C366836  14.624  22.454   4.226  0.2314 -0.0575  0.2264
41006DOD     C166837   0.493   8.547  26.974 -0.1650  0.1710  0.2956
41006DOD     C266838   0.353   8.146  27.263 -0.3867  0.5027 -0.0107
41006DOD     C366839   0.126   7.753  27.100 -0.0129  0.2095  0.1486
41007DOD     C166840  14.220  11.930  29.708  0.1458  0.1206  0.0178
41007DOD     C266841  14.575  12.186  29.633  0.1497 -0.1669 -0.0173
41007DOD     C366842  14.754  12.552  29.594 -0.2400 -0.3144 -0.0254
41008DOD     C166843  26.194  29.095   9.529  0.1327 -0.0046 -0.0166
41008DOD     C266844  26.000  29.279   9.165  0.2810  0.1923  0.3043
41008DOD     C366845  25.894  29.516   8.745 -0.0569 -0.0792 -0.0410
41009DOD     C166846  20.272  10.590   6.126  0.1256  0.1590 -0.2496
41009DOD     C266847  20.292  10.990   6.363 -0.0859  0.1445  0.1566
41009DOD     C366848  20.421  11.090   6.810  0.1676  0.0913 -0.0789
41010DOD     C166849  17.646  30.237   7.906 -0.0681  0.2250  0.0734
41010DOD     C266850  17.196  30.305   8.072 -0.1449  0.3882 -0.0538
41010DOD     C366851  17.261   0.349   8.347  0.3528 -0.0149 -0.2124
41011DOD     C166852   2.055   7.881  23.205 -0.0753 -0.0940 -0.2557
41011DOD     C266853   2.485   7.819  23.168  0.2543 -0.0213 -0.2867
41011DOD     C366854   2.782   7.535  23.305  0.1723  0.0312  0.2502
41012DOD     C166855   4.179  21.757  28.827  0.0828 -0.0939  0.0152
41012DOD     C266856   4.492  21.798  28.598 -0.0634  0.1805  0.0486
41012DOD     C366857   4.865  21.902  28.361  0.3089  0.0323  0.0025
41013DOD     C166858  14.166   7.552   8.290 -0.5506 -0.0586 -0.0043
41013DOD     C266859  14.542   7.377   8.553  0.0439 -0.2745 -0.1570
41013DOD     C366860  14.915   7.174   8.716 -0.5835 -0.2425 -0.0227
41014DOD     C166861  24.652   0.037  11.065  0.0599 -0.2196 -0.0707
41014DOD     C266862  24.231   0.135  11.215  0.1070  0.0495 -0.0167
41014DOD     C366863  23.888   0.356  11.077 -0.0581 -0.3610 -0.3695
41015DOD     C166864  17.783  16.894   6.136 -0.5349 -0.0874  0.3518
41015DOD     C266865  18.122  17.208   6.060  0.0889 -0.3108 -0.2882
41015DOD     C366866  18.470  17.393   6.285 -0.1299 -0.0577 -0.0646
41016DOD     C166867   2.399  27.205  16.251 -0.2690  0.1508 -0.1906
41016DOD     C266868   2.229  27.593  16.078 -0.2612 -0.0715 -0.5081
41016DOD     C366869   2.282  27.807  15.697  0.1981  0.1453  0.1307
41017DOD     C166870  10.033  29.441  24.865 -0.1538  0.1780 -0.0801
41017DOD     C266871   9.898  29.673  24.512  0.1315  0.0564  0.1398
41017DOD     C366872  10.114  30.075  24.465 -0.1166 -0.0042 -0.0284
41018DOD     C166873  22.333  22.442  22.957  0.4191  0.0511  0.0968
41018DOD     C266874  22.694  22.122  22.964 -0.0589 -0.1064  0.1431
41018DOD     C366875  23.162  22.054  22.878  0.0939 -0.0215 -0.1090
41019DOD     C166876  25.064   7.178   5.134 -0.1532 -0.0267  0.1027
41019DOD     C266877  25.098   7.143   5.587 -0.2007 -0.0646 -0.0928
41019DOD     C366878  24.693   7.000   5.850 -0.2503 -0.0357  0.2565
41020DOD     C166879  11.069   2.576  16.242 -0.1387  0.0695 -0.0393
41020DOD     C266880  11.434   2.256  16.254  0.1219  0.0039 -0.2725
41020DOD     C366881  11.515   2.052  16.661 -0.2172  0.3181  0.3394
41021DOD     C166882  27.330  12.226  20.562  0.1564 -0.2527  0.4041
41021DOD     C266883  26.956  12.493  20.767 -0.0632 -0.0254  0.2524
41021DOD     C366884  26.869  12.974  20.679  0.0994 -0.0767 -0.0218
41022DOD     C166885  17.042  12.286  25.389 -0.0195 -0.2686 -0.2869
41022DOD     C266886  17.416  12.269  25.094  0.1520  0.1962  0.0217
41022DOD     C366887  17.899  12.315  25.123  0.2046 -0.1461  0.1695
41023DOD     C166888  28.791   0.449  12.092 -0.2347  0.0603 -0.0181
41023DOD     C266889  28.651   0.902  11.979 -0.1292  0.0504  0.0988
41023DOD     C366890  28.714   1.352  12.132  0.0259  0.1615  0.2478
41024DOD     C166891  15.300  14.343   4.016  0.0655 -0.0431 -0.0356
41024DOD     C266892  15.308  14.662   3.645 -0.3062 -0.0716 -0.2994
41024DOD     C366893  15.160  15.091   3.524 -0.1847 -0.0605  0.3041
41025DOD     C166894  18.567  13.351   8.152  0.1161  0.2078  0.0678
41025DOD     C266895  18.694  13.809   8.325 -0.1463 -0.1593 -0.0738
41025DOD     C366896  18.637  14.039   8.770  0.5912 -0.3943  0.0351
41026DOD     C166897  18.529   1.607  10.754 -0.1499 -0.0319  0.0155
41026DOD     C266898  18.231   1.857  10.995  0.1037 -0.1469 -0.1454
41026DOD     C366899  17.969   2.157  11.211 -0.0529  0.1694  0.3473
41027DOD     C166900   0.166  24.869  23.454 -0.0840  0.2537 -0.0220
41027DOD     C266901   0.443  25.089  23.733 -0.0201  0.0428  0.1379
41027DOD     C366902   0.641  24.970  24.097  0.0566  0.1991 -0.2025
41028DOD     C166903  17.135  13.182  12.448 -0.2061 -0.1180  0.0829
41028DOD     C266904  17.082  13.632  12.624  0.3272  0.0049  0.0062
41028DOD     C366905  16.930  13.761  13.046 -0.1429 -0.1545 -0.4753
41029DOD     C166906  14.292  23.993   3.811  0.1090 -0.2201 -0.1300
41029DOD     C266907  14.619  24.118   3.493 -0.0531 -0.1877  0.2579
41029DOD     C366908  14.709  23.981   3.063  0.0355  0.2502  0.0516
41030DOD     C166909   7.249   9.322   8.643 -0.0906 -0.0502 -0.1370
41030DOD     C266910   7.110   9.590   9.024  0.0330 -0.2701  0.0141
41030DOD     C366911   7.234   9.592   9.460 -0.2881  0.1989  0.0441
41031DOD     C166912  29.943  29.661   6.724  0.1770  0.0513  0.3628
41031DOD     C266913  29.518  29.593   6.913  0.0710 -0.2986  0.2084
41031DOD     C366914  29.195  29.538   7.222  0.0444 -0.3583  0.2977
41032DOD     C166915   9.588  20.304  29.604 -0.0545  0.0788 -0.1837
41032DOD     C266916   9.893  20.034  29.761  0.2151 -0.0141  0.0061
41032DOD     C366917   9.849  19.759  30.102  0.1250 -0.0288 -0.0893
41033DOD     C166918  17.463  29.896   8.504  0.0407 -0.2040 -0.0663
41033DOD     C266919  17.597  -0.012   8.406  0.1250 -0.0587  0.2009
41033DOD     C366920  17.937   0.229   8.192  0.2699  0.1295  0.0214
41034DOD     C166921  14.045   8.088   4.318 -0.0579 -0.2281  0.0314
41034DOD     C266922  14.472   8.283   4.137 -0.3158  0.0344 -0.0185
41034DOD     C366923  14.882   8.273   4.409 -0.3328 -0.3834  0.3180
41035DOD     C166924  26.143  11.659  19.066  0.0624 -0.0720 -0.1008
41035DOD     C266925  26.275  11.743  18.623 -0.4036  0.0477  0.0507
41035DOD     C366926  26.278  11.464  18.216 -0.0605  0.5339  0.3152
41036DOD     C166927   8.917   2.714  23.320  0.2032 -0.2037  0.1102
41036DOD     C266928   8.596   3.016  23.443  0.2118  0.1482  0.0373
41036DOD     C366929   8.147   2.982  23.565 -0.2984  0.0393  0.3642
41037DOD     C166930  29.727   6.048   4.499 -0.1266  0.1183  0.0119
41037DOD     C266931  29.981   6.227   4.833 -0.1205  0.0848 -0.2381
41037DOD     C366932  30.000   6.488   5.269  0.1325  0.2911 -0.0236
41038DOD     C166933  28.067   4.651  21.375 -0.0818  0.1235  0.0748
41038DOD     C266934  27.863   4.233  21.246 -0.0274  0.0914  0.3574
41038DOD     C366935  28.042   3.818  21.103  0.1357 -0.2458  0.0733
41039DOD     C166936  21.562  15.224  11.522  0.0682  0.0573 -0.0756
41039DOD     C266937  21.637  15.216  12.029 -0.4606  0.0736 -0.0089
41039DOD     C366938  21.733  15.198  12.488 -0.0445  0.1007 -0.0641
41040DOD     C166939  25.452  24.852  15.011 -0.3535  0.1721  0.0644
41040DOD     C266940  25.405  24.999  14.538 -0.3614 -0.0643 -0.0272
41040DOD     C366941  25.685  25.051  14.111 -0.2725 -0.0749  0.0368
41041DOD     C166942  14.740   1.910  19.708 -0.3094 -0.1935  0.0874
41041DOD     C266943  14.595   2.283  19.465 -0.3085 -0.0610 -0.2927
41041DOD     C366944  14.373   2.680  19.335  0.0941  0.0685 -0.0808
41042DOD     C166945  24.413   5.066  26.118 -0.2379 -0.0581 -0.0231
41042DOD     C266946  24.769   4.728  26.028 -0.0356  0.0505  0.1353
41042DOD     C366947  25.009   4.445  25.733 -0.0109 -0.0672  0.2588
41043DOD     C166948  28.556  25.279  22.018 -0.0621  0.1016 -0.1417
41043DOD     C266949  28.934  25.507  21.724  0.0055  0.2281 -0.0038
41043DOD     C366950  29.387  25.518  21.699 -0.1568 -0.1705 -0.0423
41044DOD     C166951  30.014  15.437   4.746 -0.0543  0.0235  0.1109
41044DOD     C266952  29.682  15.638   4.679 -0.1136 -0.0697  0.0559
41044DOD     C366953  29.501  15.940   4.341  0.0220  0.0077 -0.0079
41045DOD     C166954  28.993  25.642  21.144 -0.0973  0.0408  0.1012
41045DOD     C266955  29.018  25.211  21.280 -0.1186 -0.0523  0.0382
41045DOD     C366956  28.886  24.750  21.450 -0.1852 -0.1964 -0.0616
41046DOD     C166957   7.114   1.967  10.877  0.2084  0.1703 -0.2848
41046DOD     C266958   7.205   1.645  11.192  0.1039 -0.0269  0.2020
41046DOD     C366959   7.138   1.299  11.465  0.2070  0.3676 -0.0897
41047DOD     C166960   8.666   6.346  14.280 -0.1612  0.0251  0.0520
41047DOD     C266961   8.723   6.774  14.194 -0.2376 -0.3222  0.0543
41047DOD     C366962   8.990   6.805  13.880 -0.3798  0.2371  0.1596
41048DOD     C166963  11.787  21.173  10.582  0.0938 -0.1010 -0.1962
41048DOD     C266964  11.451  21.121  10.300  0.1313 -0.0926  0.0958
41048DOD     C366965  11.024  21.394  10.299  0.1546 -0.2487  0.0936
41049DOD     C166966  12.235  13.685  13.241  0.0652 -0.1116 -0.0855
41049DOD     C266967  12.713  13.886  13.270 -0.0331 -0.0395 -0.2804
41049DOD     C366968  13.154  13.707  13.218  0.2052  0.1313  0.1492
41050DOD     C166969   9.816   8.126   3.074  0.0261 -0.2001  0.0157
41050DOD     C266970   9.756   8.369   3.441  0.2256  0.0575 -0.0293
41050DOD     C366971   9.610   8.572   3.866 -0.2533 -0.0747  0.1871
41051DOD     C166972   8.778  16.573  18.895 -0.0247  0.0576  0.0016
41051DOD     C266973   8.981  16.991  18.727 -0.1378 -0.0882 -0.1010
41051DOD     C366974   9.174  17.378  18.858  0.0685  0.0039 -0.1340
41052DOD     C166975  22.146   7.856  19.605  0.1840  0.1126 -0.0791
41052DOD     C266976  22.298   8.060  20.006  0.2791  0.1146  0.1137
41052DOD     C366977  22.523   8.192  20.424 -0.0092 -0.2791 -0.1380
41053DOD     C166978   6.422  12.781  27.564 -0.0667  0.0889 -0.0155
41053DOD     C266979   6.430  12.358  27.656 -0.1874  0.0092  0.2343
41053DOD     C366980   6.601  12.130  28.056  0.0176 -0.1119  0.0014
41054DOD     C166981  18.388  20.874   1.874  0.0303 -0.0859 -0.0974
41054DOD     C266982  18.485  21.256   1.603 -0.1546 -0.2814 -0.1370
41054DOD     C366983  18.909  21.307   1.402  0.0110  0.1650 -0.0162
41055DOD     C166984  17.218   0.860  15.647 -0.3601  0.2705  0.0507
41055DOD     C266985  17.022   0.440  15.757  0.1236  0.0578  0.0129
41055DOD     C366986  16.697   0.152  15.620 -0.1773 -0.1721 -0.1080
41056DOD     C166987  22.118   0.859   1.866 -0.0630  0.2726 -0.1934
41056DOD     C266988  22.223   0.701   1.410  0.1343  0.0193  0.2108
41056DOD     C366989  22.339   0.650   0.908 -0.2454 -0.0354 -0.1644
41057DOD     C166990  12.304  11.896   3.737  0.0161 -0.0984  0.0568
41057DOD     C266991  11.861  11.948   3.639 -0.0532  0.0356 -0.1463
41057DOD     C366992  11.611  11.552   3.605 -0.2126  0.0534  0.1102
41058DOD     C166993   8.184  14.990  12.758 -0.1433 -0.0947  0.0863
41058DOD     C266994   7.729  14.957  12.581  0.1960 -0.1235 -0.0116
41058DOD     C366995   7.461  14.584  12.455 -0.1813 -0.1263  0.1461
41059DOD     C166996   7.325   1.439   3.713 -0.1753 -0.1920 -0.2324
41059DOD     C266997   7.017   1.505   4.047 -0.1560 -0.1064  0.1876
41059DOD     C366998   6.662   1.505   4.337 -0.2129 -0.0387  0.0662
41060DOD     C166999  21.967  12.318  10.695 -0.3889 -0.0958  0.1097
41060DOD     C267000  21.916  12.090  10.308  0.0052  0.0950  0.1032
41060DOD     C367001  22.139  12.002   9.937  0.1291  0.0755  0.1293
41061DOD     C167002   3.887  13.960  12.295  0.2158 -0.2478 -0.1592
41061DOD     C267003   4.147  13.849  11.913  0.0569 -0.1388  0.2267
41061DOD     C367004   3.922  13.769  11.529 -0.1599  0.0957 -0.2235
41062DOD     C167005  26.741  21.314  19.157  0.0782 -0.0832  0.2058
41062DOD     C267006  26.692  21.700  19.415 -0.0056  0.1088 -0.0982
41062DOD     C367007  26.899  21.906  19.748  0.2266  0.2534  0.1707
41063DOD     C167008   1.512  26.589   1.203 -0.1371  0.2083 -0.4696
41063DOD     C267009   1.086  26.485   1.251 -0.0138  0.3977 -0.0404
41063DOD     C367010   0.759  26.415   1.511 -0.3142 -0.0073 -0.1610
41064DOD     C167011  29.216  15.177   7.740 -0.1841 -0.0021  0.1631
41064DOD     C267012  28.834  15.390   7.561 -0.0904  0.2737  0.0262
41064DOD     C367013  28.407  15.327   7.361  0.1513  0.0555  0.1028
41065DOD     C167014  18.090   3.546   1.343  0.0819 -0.0236 -0.1567
41065DOD     C267015  18.093   3.597   0.859  0.0233  0.1829 -0.1481
41065DOD     C367016  18.282   3.744   0.472 -0.2774  0.1904 -0.1189
41066DOD     C167017  27.943  29.156  29.667 -0.1507  0.2113 -0.3725
41066DOD     C267018  28.201  29.007  29.278  0.2974 -0.1256  0.2644
41066DOD     C367019  28.053  29.061  28.808 -0.0262  0.0969  0.1932
41067DOD     C167020  22.560  10.447  25.443  0.1277 -0.1553  0.0759
41067DOD     C267021  22.381  10.914  25.415 -0.0950  0.1702 -0.0165
41067DOD     C367022  21.995  11.113  25.216  0.1777  0.1626  0.1831
41068DOD     C167023  16.569  20.328  27.358 -0.1189  0.0703 -0.3374
41068DOD     C267024  16.640  20.031  27.741  0.1691 -0.0694 -0.0560
41068DOD     C367025  16.761  19.716  28.056  0.0366  0.0018 -0.2060
41069DOD     C167026  10.115   8.436   3.950 -0.1472  0.3127  0.1295
41069DOD     C267027  10.121   8.165   4.276 -0.1017 -0.0216  0.0137
41069DOD     C367028  10.169   8.004   4.712  0.0098 -0.2088 -0.3293
41070DOD     C167029   1.101  19.688   9.759  0.0313 -0.1243 -0.1194
41070DOD     C267030   1.468  19.891   9.627  0.0215  0.2868 -0.1375
41070DOD     C367031   1.922  20.096   9.806  0.0413  0.2507 -0.3233
41071DOD     C167032   2.202   2.786  15.343  0.1966 -0.0209  0.1200
41071DOD     C267033   2.230   3.191  15.430  0.1573  0.3763  0.0417
41071DOD     C367034   2.364   3.633  15.568 -0.4463  0.0503  0.0035
41072DOD     C167035   4.698  22.512  18.973 -0.1163  0.1826 -0.0506
41072DOD     C267036   5.116  22.499  18.718 -0.1356  0.3800 -0.0009
41072DOD     C367037   5.522  22.333  18.500 -0.0695 -0.4095  0.0512
41073DOD     C167038  27.365  16.762  19.170  0.2262  0.2022 -0.1603
41073DOD     C267039  27.027  16.646  18.866 -0.1126 -0.1958  0.0876
41073DOD     C367040  26.545  16.686  18.774  0.1635  0.1205  0.2664
41074DOD     C167041   0.862   0.148  25.175  0.0645 -0.4086 -0.0432
41074DOD     C267042   0.464   0.072  25.056 -0.0395  0.1224 -0.1857
41074DOD     C367043   0.101  30.093  24.916  0.0203  0.1015 -0.1301
41075DOD     C167044  28.238   1.471  27.889 -0.0199  0.0879  0.3844
41075DOD     C267045  28.470   1.319  27.529  0.4666  0.0255  0.2419
41075DOD     C367046  28.619   1.422  27.073  0.0221  0.0184  0.2634
41076DOD     C167047  10.878  26.320  11.954  0.2280  0.0019 -0.1466
41076DOD     C267048  11.064  26.611  12.202  0.1318 -0.3021 -0.0248
41076DOD     C367049  11.417  26.880  12.370 -0.1151 -0.0543 -0.0671
41077DOD     C167050  13.214  17.866   3.963  0.3308  0.3039  0.4041
41077DOD     C267051  13.483  18.091   3.646  0.0027 -0.0268  0.0809
41077DOD     C367052  13.898  18.068   3.464  0.0135 -0.0110  0.5110
41078DOD     C167053  28.710  23.797   0.187  0.1586 -0.1680  0.0547
41078DOD     C267054  28.685  23.386  30.312  0.4212  0.1181  0.3614
41078DOD     C367055  28.889  22.985  30.105 -0.1477 -0.1158  0.0146
41079DOD     C167056  21.400  15.910  12.881  0.1435  0.0525 -0.0511
41079DOD     C267057  21.625  15.870  13.285 -0.0395  0.3395  0.0339
41079DOD     C367058  21.782  16.002  13.693  0.4513  0.0161  0.0027
41080DOD     C167059  21.496  20.311  12.482  0.2509 -0.0789  0.2538
41080DOD     C267060  21.376  20.650  12.794  0.1472  0.1951  0.3050
41080DOD     C367061  21.325  20.954  13.147 -0.0698  0.1302  0.2795
41081DOD     C167062  27.470   5.171   9.436 -0.5223 -0.1709  0.3176
41081DOD     C267063  27.765   4.939   9.154  0.1119  0.0432 -0.1482
41081DOD     C367064  28.055   4.821   8.812  0.4657 -0.1344  0.0492
41082DOD     C167065  23.146  18.975  13.052 -0.3722  0.0098  0.0477
41082DOD     C267066  23.566  19.165  13.263  0.6218  0.2515  0.2060
41082DOD     C367067  23.681  19.537  13.354  0.0714  0.2127 -0.1784
41083DOD     C167068  19.861  16.569   4.012  0.2161  0.0555 -0.1038
41083DOD     C267069  19.482  16.274   3.863  0.1565  0.0055  0.0121
41083DOD     C367070  19.334  15.862   3.781  0.0501  0.0301 -0.0506
41084DOD     C167071  29.407  23.517  28.689 -0.2671 -0.0369 -0.1430
41084DOD     C267072  29.377  23.582  29.207  0.4475 -0.2296  0.1420
41084DOD     C367073  29.376  23.319  29.613 -0.1827 -0.2229 -0.0015
41085DOD     C167074  22.145  22.039  27.943 -0.1378  0.1556  0.0229
41085DOD     C267075  22.260  21.635  28.112 -0.2368 -0.1366 -0.1517
41085DOD     C367076  22.327  21.241  28.336 -0.4687 -0.0682  0.2952
41086DOD     C167077  18.426  21.874   1.884  0.0330 -0.0925  0.1312
41086DOD     C267078  18.019  22.135   1.772  0.1656 -0.1188 -0.0232
41086DOD     C367079  17.844  22.439   2.071 -0.0395  0.0555 -0.1077
41087DOD     C167080   6.047  20.973  26.869 -0.4723 -0.2780  0.0218
41087DOD     C267081   5.674  20.679  26.806  0.1513 -0.0608 -0.0249
41087DOD     C367082   5.312  20.595  27.074  0.0892 -0.1996 -0.0218
41088DOD     C167083  15.460   3.585   0.450 -0.2127 -0.0415 -0.0610
41088DOD     C267084  15.391   3.521   0.037 -0.2447 -0.0374  0.0354
41088DOD     C367085  15.236   3.215  30.063 -0.1257  0.0617 -0.2826
41089DOD     C167086  20.257  22.073  21.000 -0.2598 -0.1146 -0.2216
41089DOD     C267087  20.030  21.606  20.964  0.2048  0.1335  0.4097
41089DOD     C367088  20.099  21.130  20.926 -0.0466  0.2678 -0.1290
41090DOD     C167089  24.364  10.540  23.956  0.1968 -0.0713  0.2110
41090DOD     C267090  24.695  10.402  24.326  0.1643  0.3297  0.1257
41090DOD     C367091  24.766  10.116  24.717 -0.4057 -0.1592  0.2379
41091DOD     C167092   7.008  22.394  18.231 -0.1348 -0.0059 -0.2489
41091DOD     C267093   7.377  22.132  18.216  0.0232  0.0155 -0.0039
41091DOD     C367094   7.555  21.766  18.002  0.1730  0.1348  0.3523
41092DOD     C167095  18.949   1.892   8.925  0.1579 -0.1449 -0.2536
41092DOD     C267096  19.337   2.135   8.905  0.1355  0.1880 -0.2445
41092DOD     C367097  19.767   2.258   8.792 -0.0933 -0.0103 -0.3968
41093DOD     C167098  22.130   8.612   6.244  0.2394  0.0163  0.0884
41093DOD     C267099  22.342   9.014   6.318 -0.1875 -0.1575 -0.1322
41093DOD     C367100  22.633   9.286   6.082  0.2225 -0.2812  0.2995
41094DOD     C167101  28.922   1.541  29.098  0.0736 -0.1977 -0.1143
41094DOD     C267102  28.740   1.677  28.759 -0.0702 -0.0948  0.1855
41094DOD     C367103  28.733   1.959  28.387 -0.2286  0.3058  0.0022
41095DOD     C167104  29.185   8.402  23.855 -0.3057  0.0395 -0.0150
41095DOD     C267105  29.274   7.926  23.988  0.3107  0.0505 -0.0548
41095DOD     C367106  29.115   7.584  24.199 -0.0140  0.0875 -0.0798
41096DOD     C167107  29.955  21.340  10.376  0.1003  0.1739  0.1458
41096DOD     C267108  30.238  21.198  10.748  0.2261  0.1786  0.1062
41096DOD     C367109   0.226  20.852  10.833  0.1677 -0.2418 -0.1406
41097DOD     C167110   6.091  18.984   8.825 -0.1023 -0.1292  0.0385
41097DOD     C267111   5.604  18.908   8.804  0.2652 -0.0897  0.0246
41097DOD     C367112   5.366  18.512   8.913  0.0786 -0.5637 -0.0378
41098DOD     C167113  10.436  28.299   6.916  0.2427 -0.0355  0.2144
41098DOD     C267114  10.162  28.265   7.311  0.0576  0.2538  0.0950
41098DOD     C367115  10.291  28.289   7.754  0.0334  0.0137  0.1515
41099DOD     C167116  23.286  23.153  26.828  0.0520 -0.0594  0.0892
41099DOD     C267117  22.962  23.438  27.075 -0.2286 -0.0224  0.0582
41099DOD     C367118  23.045  23.763  27.423  0.4439  0.1226 -0.1200
41100DOD     C167119   5.330  14.692  13.222 -0.0339 -0.1159 -0.2119
41100DOD     C267120   5.036  14.684  13.533 -0.0072  0.1528  0.2994
41100DOD     C367121   4.751  15.007  13.449  0.3024 -0.1853  0.1391
41101DOD     C167122  16.540  24.190   7.817  0.1416  0.1554 -0.0549
41101DOD     C267123  16.134  24.378   7.854 -0.1140 -0.1548  0.0708
41101DOD     C367124  15.849  24.700   8.045 -0.2930 -0.0848  0.2406
41102DOD     C167125   8.284  14.334  25.949 -0.0750  0.0218  0.0256
41102DOD     C267126   8.026  14.685  25.630  0.1498  0.0755 -0.0963
41102DOD     C367127   8.070  15.127  25.674 -0.2681 -0.0080 -0.1891
41103DOD     C167128   8.964  26.701   0.042 -0.4451 -0.0014  0.1040
41103DOD     C267129   9.027  26.839  29.897  0.1514 -0.3447  0.0624
41103DOD     C367130   9.339  26.927  29.519  0.2532  0.3704 -0.2411
41104DOD     C167131   4.219  17.669  25.723  0.0406 -0.1517 -0.0450
41104DOD     C267132   4.615  17.845  25.886  0.0204  0.1735 -0.1937
41104DOD     C367133   4.555  18.274  26.066 -0.0631 -0.0711 -0.1001
41105DOD     C167134  16.486  15.044  26.100  0.2040  0.1219 -0.1715
41105DOD     C267135  16.887  15.285  26.151  0.1858 -0.2964  0.1824
41105DOD     C367136  17.335  15.220  26.191 -0.1102 -0.0376 -0.2943
41106DOD     C167137   5.173  14.706   2.132 -0.0038 -0.1747 -0.0283
41106DOD     C267138   5.464  14.369   2.327 -0.1640  0.0811  0.2503
41106DOD     C367139   5.742  14.072   2.153 -0.0535 -0.2089  0.4533
41107DOD     C167140   5.685  13.869  23.767 -0.0605 -0.0795  0.2459
41107DOD     C267141   5.242  13.750  23.816 -0.1999  0.1491  0.0657
41107DOD     C367142   4.792  13.845  23.950 -0.1228  0.0428  0.0829
41108DOD     C167143   4.809  23.578  20.205 -0.0129  0.3399  0.0507
41108DOD     C267144   4.465  23.421  20.411 -0.0089  0.1286 -0.0353
41108DOD     C367145   4.233  23.052  20.595  0.3791 -0.0739 -0.2748
41109DOD     C167146  29.233   0.672  20.423 -0.2230  0.0049 -0.0486
41109DOD     C267147  28.941   1.049  20.473 -0.1095 -0.0061 -0.0656
41109DOD     C367148  28.557   1.225  20.651 -0.0347 -0.0220  0.0278
41110DOD     C167149  27.145  26.610   7.290 -0.1689  0.3787  0.3170
41110DOD     C267150  27.427  26.972   7.466  0.0355 -0.3213  0.0293
41110DOD     C367151  27.221  27.379   7.593 -0.0349  0.1821  0.0802
41111DOD     C167152  16.210  29.505   6.764  0.1833 -0.1282  0.0235
41111DOD     C267153  16.302  29.704   6.282  0.3145 -0.3969 -0.0611
41111DOD     C367154  16.250  30.023   5.950  0.0775 -0.0097  0.3549
41112DOD     C167155  10.105  11.420  26.111  0.2578  0.0819  0.0034
41112DOD     C267156   9.658  11.239  25.973 -0.1023 -0.5882  0.2192
41112DOD     C367157   9.361  11.115  25.652 -0.0009  0.1191 -0.1304
41113DOD     C167158   0.679  12.751   1.355 -0.1814  0.0387  0.3062
41113DOD     C267159   1.050  12.939   1.609 -0.0697 -0.4163  0.2561
41113DOD     C367160   1.484  12.808   1.641  0.2442 -0.0451 -0.1059
41114DOD     C167161   1.199   0.335  26.122  0.0137  0.0359 -0.1682
41114DOD     C267162   1.246  30.324  26.482 -0.2548  0.2152 -0.1736
41114DOD     C367163   0.986  -0.015  26.887  0.2672 -0.1855 -0.3842
41115DOD     C167164   3.538  29.753   6.898 -0.0376  0.0281 -0.0011
41115DOD     C267165   3.627  29.359   7.175 -0.1922  0.0907  0.1094
41115DOD     C367166   3.753  28.956   7.005 -0.1479  0.0290  0.1332
41116DOD     C167167  18.210  18.193  12.423 -0.1406 -0.1598 -0.1205
41116DOD     C267168  17.977  18.159  12.052  0.1420  0.0688 -0.3444
41116DOD     C367169  18.033  18.196  11.567  0.0080 -0.2193  0.1583
41117DOD     C167170   2.181  27.594   1.485  0.0488  0.1786  0.0691
41117DOD     C267171   2.303  27.689   1.881  0.2638 -0.0609  0.0053
41117DOD     C367172   2.274  27.738   2.320  0.0786 -0.4130 -0.0521
41118DOD     C167173  25.349  18.551   4.099 -0.0264  0.3310 -0.3462
41118DOD     C267174  24.943  18.734   3.922 -0.4826 -0.0897  0.2012
41118DOD     C367175  24.650  18.942   3.703 -0.0122  0.0288  0.2693
41119DOD     C167176  12.450   5.390  13.759  0.1178 -0.0468  0.1917
41119DOD     C267177  12.422   4.982  13.949 -0.0360 -0.3720 -0.0476
41119DOD     C367178  12.796   4.668  13.978 -0.0342 -0.2364  0.1266
41120DOD     C167179  29.218   4.935  28.086  0.0409 -0.2512 -0.0751
41120DOD     C267180  29.115   5.361  28.182  0.2280  0.0267  0.1162
41120DOD     C367181  28.828   5.624  28.234 -0.3446  0.0359 -0.0011
41121DOD     C167182  18.966  21.149  22.063 -0.1506 -0.0293  0.0248
41121DOD     C267183  18.827  21.599  22.103  0.0511 -0.1737 -0.1246
41121DOD     C367184  18.847  22.091  22.059  0.1439 -0.0123  0.2032
41122DOD     C167185  29.197  23.902  20.041 -0.1680  0.0322  0.1458
41122DOD     C267186  28.724  23.759  20.029 -0.2936 -0.1797 -0.0468
41122DOD     C367187  28.555  23.317  20.171 -0.0696  0.1077  0.0017
41123DOD     C167188   4.953  26.792  14.612  0.1401 -0.0164  0.2911
41123DOD     C267189   5.209  26.498  14.337  0.2122 -0.0262  0.0676
41123DOD     C367190   5.656  26.362  14.212  0.1800  0.1799 -0.0691
41124DOD     C167191   1.813  28.463  21.729 -0.3220  0.1379 -0.1035
41124DOD     C267192   2.262  28.393  21.645  0.1637 -0.0545  0.0637
41124DOD     C367193   2.564  28.196  21.879 -0.2689 -0.2001  0.1193
41125DOD     C167194   4.835  20.299   1.571 -0.2911 -0.2129 -0.0484
41125DOD     C267195   4.826  20.347   2.054  0.0560 -0.2412 -0.1844
41125DOD     C367196   5.087  20.271   2.449  0.0133 -0.0268  0.3246
41126DOD     C167197  27.546  22.126   6.913  0.1109 -0.0526  0.2182
41126DOD     C267198  27.601  22.499   6.562 -0.1529 -0.0335 -0.0386
41126DOD     C367199  27.923  22.823   6.343 -0.2015  0.0415 -0.3041
41127DOD     C167200  16.167  11.874  12.040  0.1467 -0.0964  0.3307
41127DOD     C267201  16.555  11.701  11.929  0.0538  0.0843 -0.0456
41127DOD     C367202  16.800  11.367  11.756  0.1631 -0.0376 -0.0992
41128DOD     C167203  12.884  13.867  22.464 -0.0144 -0.0455 -0.0501
41128DOD     C267204  12.699  13.899  22.860  0.1746  0.2117  0.0997
41128DOD     C367205  12.575  13.936  23.322 -0.1191 -0.1903  0.1936
41129DOD     C167206   3.958  13.947   6.683 -0.0492 -0.3039  0.0975
41129DOD     C267207   4.141  13.638   7.040 -0.0539 -0.2193 -0.1290
41129DOD     C367208   4.320  13.271   7.314  0.0412  0.3267  0.0901
41130DOD     C167209  19.394  23.794  13.527  0.3629  0.0403  0.3045
41130DOD     C267210  19.042  23.913  13.150  0.0762 -0.2733  0.0933
41130DOD     C367211  18.682  23.682  12.898 -0.0872 -0.2156  0.2725
41131DOD     C167212  23.725   7.865  25.434 -0.2370 -0.1480  0.0234
41131DOD     C267213  23.798   8.263  25.203 -0.1327 -0.1403 -0.1755
41131DOD     C367214  23.873   8.609  24.821 -0.0098  0.0307 -0.2025
41132DOD     C167215   7.048   0.613  21.354 -0.2833  0.0743  0.4053
41132DOD     C267216   7.167   0.351  21.760 -0.0602 -0.2179  0.1789
41132DOD     C367217   7.316   0.151  22.176 -0.0753 -0.0429 -0.1000
41133DOD     C167218  27.728   6.757  11.292 -0.1128  0.1054  0.3631
41133DOD     C267219  27.921   6.520  11.657  0.1248  0.1684  0.2312
41133DOD     C367220  27.744   6.102  11.892  0.1715 -0.0209  0.1556
41134DOD     C167221  10.450  18.717   3.123 -0.2915 -0.1013  0.0441
41134DOD     C267222  10.346  18.424   3.524  0.0976  0.1435  0.0656
41134DOD     C367223  10.049  18.188   3.815  0.0946 -0.0076 -0.0085
41135DOD     C167224   3.794   6.785  15.439 -0.1753  0.1756  0.0423
41135DOD     C267225   4.046   6.491  15.171  0.3336  0.0628 -0.0118
41135DOD     C367226   4.504   6.437  15.055 -0.0028  0.2461  0.1446
41136DOD     C167227  20.373   0.243   4.482  0.1107  0.0414  0.1403
41136DOD     C267228  20.773   0.489   4.286  0.1104 -0.0292 -0.0769
41136DOD     C367229  21.178   0.544   4.549 -0.0894 -0.1399 -0.0702
41137DOD     C167230  21.988  18.063  19.549  0.0130 -0.1404 -0.0268
41137DOD     C267231  21.912  18.151  19.120 -0.0377  0.0365  0.0532
41137DOD     C367232  21.988  18.435  18.712 -0.0847 -0.4316  0.3138
41138DOD     C167233  18.062   1.022  11.408  0.1636 -0.2445  0.0414
41138DOD     C267234  17.862   1.408  11.099  0.0565 -0.1831 -0.4294
41138DOD     C367235  17.684   1.704  10.811  0.2333  0.0492  0.1979
41139DOD     C167236   9.551  15.287  21.557  0.0697  0.0894 -0.1454
41139DOD     C267237   9.179  15.630  21.452 -0.1492 -0.2278  0.1920
41139DOD     C367238   8.750  15.687  21.629  0.0043 -0.1254 -0.1917
41140DOD     C167239  29.900  13.284  21.751 -0.2300  0.0006  0.0731
41140DOD     C267240  29.631  13.131  22.115 -0.1863 -0.2649  0.0117
41140DOD     C367241  29.485  12.991  22.556  0.2600  0.1392 -0.1060
41141DOD     C167242  11.103  26.678  28.165 -0.1683 -0.0464 -0.0366
41141DOD     C267243  11.500  26.981  28.151  0.2095  0.1140 -0.0879
41141DOD     C367244  11.844  27.153  27.878 -0.2386 -0.2527  0.0339
41142DOD     C167245   4.551  11.066   3.296 -0.0319  0.2797  0.0291
41142DOD     C267246   4.765  10.985   2.923  0.1925  0.1398  0.1239
41142DOD     C367247   4.748  11.381   2.703 -0.0697  0.2213  0.1425
41143DOD     C167248  14.259   5.980  27.877 -0.0950 -0.0739  0.2073
41143DOD     C267249  13.844   6.073  27.744  0.0768  0.1123 -0.0146
41143DOD     C367250  13.477   5.895  27.557  0.1479  0.0472 -0.0262
41144DOD     C167251  28.193  25.125   5.314  0.3688  0.0137  0.2757
41144DOD     C267252  28.103  25.353   5.709  0.0208  0.1132 -0.1259
41144DOD     C367253  27.919  25.684   5.952  0.0524  0.0135 -0.1435
41145DOD     C167254  23.525  29.912   7.965 -0.1144 -0.0434 -0.0105
41145DOD     C267255  23.708  30.102   8.416  0.1543 -0.0138  0.0485
41145DOD     C367256  24.101  29.968   8.629  0.1653  0.0425 -0.1059
41146DOD     C167257  25.906   0.675  30.082  0.0657  0.0455 -0.2692
41146DOD     C267258  25.810   0.865   0.125  0.1896 -0.3803 -0.2763
41146DOD     C367259  25.742   1.141   0.515  0.0381 -0.0328  0.1964
41147DOD     C167260  13.395  25.027   1.314  0.0847 -0.0856  0.0697
41147DOD     C267261  13.019  24.676   1.408  0.2229  0.0232  0.1068
41147DOD     C367262  12.672  24.394   1.591  0.3558  0.1064  0.1252
41148DOD     C167263  20.996  22.965  22.316  0.3439  0.0132  0.0717
41148DOD     C267264  21.263  22.671  22.137 -0.1561  0.1047 -0.2570
41148DOD     C367265  21.711  22.637  22.065 -0.0082  0.3060  0.2612
41149DOD     C167266  11.629   9.362  26.454  0.1148  0.0119  0.2036
41149DOD     C267267  11.985   9.230  26.668  0.0454  0.0346  0.0816
41149DOD     C367268  12.353   9.370  26.854  0.0092  0.0461  0.2343
41150DOD     C167269  30.197  17.614   6.573 -0.2341  0.0993  0.0407
41150DOD     C267270   0.360  17.688   6.714 -0.0243 -0.0816 -0.2274
41150DOD     C367271   0.574  18.104   6.874  0.1887  0.1134 -0.0869
41151DOD     C167272  19.573  12.586   7.776  0.0545 -0.4283 -0.1320
41151DOD     C267273  19.475  13.054   7.777  0.0059  0.3181  0.0338
41151DOD     C367274  19.680  13.419   7.579  0.2037 -0.1326  0.0103
41152DOD     C167275  13.735   7.155   5.464  0.2324 -0.0253 -0.1111
41152DOD     C267276  13.763   7.380   5.003  0.0601  0.1074 -0.1899
41152DOD     C367277  13.902   7.354   4.521 -0.1987 -0.1665  0.1902
41153DOD     C167278  20.738  11.714   0.765  0.0414 -0.0984  0.4422
41153DOD     C267279  20.774  11.334   0.995  0.1671 -0.2419 -0.1600
41153DOD     C367280  20.677  10.862   0.995  0.0266  0.1289 -0.1119
41154DOD     C167281  21.895  13.387   3.949 -0.1384 -0.1723 -0.0583
41154DOD     C267282  21.772  12.964   3.854  0.1519  0.2959 -0.0409
41154DOD     C367283  21.481  12.641   3.636 -0.2382 -0.2356 -0.2490
41155DOD     C167284  20.098  15.332  18.150 -0.0171  0.1125  0.1768
41155DOD     C267285  20.300  15.438  18.577 -0.1149 -0.0443 -0.0987
41155DOD     C367286  20.646  15.502  18.885 -0.0426 -0.1418 -0.0566
41156DOD     C167287  17.955  23.429  26.770 -0.0317 -0.0878 -0.1109
41156DOD     C267288  17.723  23.747  26.564 -0.1307 -0.1818 -0.2959
41156DOD     C367289  17.484  24.114  26.390  0.0757 -0.1871  0.0991
41157DOD     C167290   1.009   1.390  19.717  0.0518 -0.0757 -0.0478
41157DOD     C267291   0.734   1.707  19.513 -0.0275  0.3807 -0.0022
41157DOD     C367292   0.278   1.842  19.411  0.2154  0.1496  0.1659
41158DOD     C167293   6.387   9.384  21.362  0.2563 -0.2459 -0.2350
41158DOD     C267294   6.405   9.016  21.151 -0.1098  0.1496  0.0496
41158DOD     C367295   6.173   8.717  21.049  0.1089  0.2373 -0.0143
41159DOD     C167296   6.942  13.950  26.895 -0.1190  0.0022  0.0234
41159DOD     C267297   6.695  13.618  27.156  0.0893 -0.1282  0.2148
41159DOD     C367298   6.313  13.418  26.941 -0.0887 -0.0487  0.2155
41160DOD     C167299   7.015  27.974   1.436  0.1420  0.0523  0.0673
41160DOD     C267300   7.203  28.143   1.042  0.0860 -0.1459 -0.2899
41160DOD     C367301   7.396  28.102   0.660  0.1558  0.0358  0.0760
41161DOD     C167302   2.963  22.139  24.793  0.1116  0.2372  0.1039
41161DOD     C267303   2.902  22.239  24.345 -0.1075 -0.1117  0.0579
41161DOD     C367304   2.741  22.541  24.089  0.0234 -0.1247  0.2179
41162DOD     C167305  10.036   8.769   2.615  0.1203  0.2725 -0.1031
41162DOD     C267306  10.046   8.545   3.058 -0.0168 -0.1214 -0.1464
41162DOD     C367307  10.300   8.178   3.065 -0.2612 -0.2801 -0.1840
41163DOD     C167308  13.732  12.972  25.745 -0.2130  0.1485 -0.3511
41163DOD     C267309  13.600  13.326  25.996  0.1414 -0.2846 -0.2859
41163DOD     C367310  13.359  13.254  26.399 -0.0803  0.2499 -0.1282
41164DOD     C167311  17.531  25.978   4.387  0.0124 -0.1600 -0.2248
41164DOD     C267312  17.803  25.624   4.560 -0.2259  0.0170  0.2465
41164DOD     C367313  17.812  25.323   4.956 -0.1501 -0.0027 -0.1341
41165DOD     C167314  29.549  19.496  17.847 -0.1174 -0.2342 -0.0444
41165DOD     C267315  29.145  19.597  17.559  0.0481  0.1373  0.1753
41165DOD     C367316  28.871  19.675  17.143  0.0470  0.1383 -0.1019
41166DOD     C167317  15.764  20.408   0.517 -0.0951 -0.0335  0.2513
41166DOD     C267318  15.665  20.579   0.976 -0.2049  0.0214 -0.3475
41166DOD     C367319  15.269  20.662   1.217  0.3319 -0.0822 -0.0291
41167DOD     C167320  10.007  27.793  12.152  0.0170  0.0740  0.1406
41167DOD     C267321  10.297  27.780  12.546  0.3109 -0.1478  0.3224
41167DOD     C367322  10.359  27.518  12.935 -0.3675  0.2260 -0.2324
41168DOD     C167323   2.352  25.388  14.158 -0.0527  0.1346  0.1211
41168DOD     C267324   1.960  25.607  14.056  0.0308 -0.0088 -0.2112
41168DOD     C367325   1.737  25.833  13.705  0.1888 -0.2888 -0.1918
41169DOD     C167326  12.450  11.346  23.067  0.1275  0.2572 -0.0892
41169DOD     C267327  11.988  11.145  23.166 -0.5017 -0.0703  0.0911
41169DOD     C367328  11.709  11.044  23.423  0.2234  0.3569  0.0044
41170DOD     C167329   3.947  23.889  10.694 -0.0439  0.1655  0.1416
41170DOD     C267330   4.127  24.281  10.833 -0.2182 -0.0001 -0.1700
41170DOD     C367331   4.351  24.657  10.584 -0.2251 -0.2544 -0.0377
41171DOD     C167332  11.813  15.805  20.963 -0.1619  0.0912  0.0297
41171DOD     C267333  12.222  15.882  20.777 -0.0474 -0.0238  0.0144
41171DOD     C367334  12.662  15.895  20.806  0.1881  0.1877  0.3576
41172DOD     C167335   7.316  14.239   1.548 -0.2631 -0.1719  0.0134
41172DOD     C267336   6.924  14.322   1.295 -0.0572  0.1579 -0.1000
41172DOD     C367337   6.549  14.434   1.555 -0.0673  0.0796  0.1201
41173DOD     C167338   6.821   6.777   3.442 -0.6249  0.0916  0.1943
41173DOD     C267339   6.931   7.013   3.833 -0.1930 -0.3245  0.0104
41173DOD     C367340   7.140   6.758   4.194  0.0474  0.2067 -0.2637
41174DOD     C167341  29.557  23.204   7.800  0.1512 -0.1219 -0.1807
41174DOD     C267342  29.713  23.532   8.028 -0.1352 -0.0374 -0.3038
41174DOD     C367343  29.597  23.655   8.462  0.3647  0.2110  0.0286
41175DOD     C167344  24.229  13.191  28.858  0.1376 -0.4630 -0.1047
41175DOD     C267345  23.765  13.307  29.033 -0.0451  0.0797  0.0674
41175DOD     C367346  23.369  13.425  28.866 -0.1449 -0.0324 -0.0068
41176DOD     C167347  28.316  27.248  22.628 -0.1739  0.1808  0.0499
41176DOD     C267348  28.636  27.535  22.473  0.0887 -0.1325  0.3920
41176DOD     C367349  28.978  27.405  22.178  0.1668 -0.0107  0.1190
41177DOD     C167350  11.168  19.636   5.968 -0.0468  0.3773  0.6194
41177DOD     C267351  11.508  19.418   5.675  0.3568 -0.1128 -0.0244
41177DOD     C367352  11.473  19.393   5.206  0.0195  0.1152  0.0224
41178DOD     C167353  27.542   5.617  19.175  0.0980 -0.1527 -0.4343
41178DOD     C267354  27.392   6.050  19.214  0.1801  0.0172 -0.0550
41178DOD     C367355  27.727   6.207  19.443  0.1210 -0.4651  0.1160
41179DOD     C167356  19.950   4.679   8.915  0.1581  0.2715  0.0927
41179DOD     C267357  20.118   4.599   9.324 -0.2778  0.1166 -0.0727
41179DOD     C367358  20.289   4.491   9.749 -0.1385 -0.0015  0.2811
41180DOD     C167359  28.383  18.796  20.190  0.2191  0.3429 -0.0236
41180DOD     C267360  27.902  18.582  20.184  0.2118  0.0007 -0.1278
41180DOD     C367361  27.549  18.319  20.041  0.5155  0.2253  0.1586
41181DOD     C167362  18.307   4.562  10.782  0.2102  0.0508  0.1767
41181DOD     C267363  18.091   4.668  11.189 -0.1289 -0.3415 -0.1553
41181DOD     C367364  17.912   4.544  11.599 -0.2865 -0.3752  0.3729
41182DOD     C167365   5.496  14.721   7.505  0.2970 -0.2456  0.0913
41182DOD     C267366   5.518  15.180   7.594 -0.3050 -0.0388 -0.0770
41182DOD     C367367   5.400  15.566   7.686  0.2058 -0.1031 -0.3065
41183DOD     C167368  20.570  26.029   6.623  0.1407  0.3006  0.1938
41183DOD     C267369  20.553  25.917   7.068  0.2285 -0.1396  0.2779
41183DOD     C367370  20.839  25.670   7.293  0.3312 -0.1203 -0.1588
41184DOD     C167371  10.974  13.448  20.163  0.1292 -0.2433 -0.0011
41184DOD     C267372  10.684  13.783  19.965 -0.0951 -0.1592  0.0791
41184DOD     C367373  10.418  14.134  19.954  0.1729 -0.3013  0.0834
41185DOD     C167374   0.755  29.746  13.076  0.4354  0.1067 -0.0367
41185DOD     C267375   1.096  29.844  13.419 -0.5028 -0.0529 -0.0787
41185DOD     C367376   1.422  30.108  13.555  0.1332 -0.2369  0.0821
41186DOD     C167377   4.318  16.223   8.211 -0.0229  0.0486  0.0702
41186DOD     C267378   4.260  16.257   7.746  0.2562  0.1669 -0.1038
41186DOD     C367379   4.349  16.077   7.357  0.2020  0.2701  0.0255
41187DOD     C167380  26.882  14.116  16.759  0.4059 -0.2241  0.0187
41187DOD     C267381  26.659  14.217  16.392  0.1518  0.0289 -0.1128
41187DOD     C367382  26.644  14.210  15.927 -0.2287 -0.2521  0.0726
41188DOD     C167383  20.791   2.827  10.817 -0.2150  0.1077 -0.0263
41188DOD     C267384  20.512   2.786  11.255  0.0711 -0.2309 -0.1941
41188DOD     C367385  20.467   2.729  11.756 -0.0772 -0.0162 -0.1512
41189DOD     C167386  10.373  19.086  18.465  0.2677  0.5491  0.1941
41189DOD     C267387  10.690  18.670  18.473  0.1980  0.0343 -0.0077
41189DOD     C367388  10.956  18.307  18.624  0.0570 -0.1374  0.1246
41190DOD     C167389  25.141  27.036   1.824  0.0700  0.0821  0.0001
41190DOD     C267390  25.315  27.445   1.989  0.1387  0.1355 -0.2307
41190DOD     C367391  25.302  27.657   2.436  0.1539  0.1266 -0.2470
41191DOD     C167392   4.805  19.506  11.067  0.1935  0.0290  0.2517
41191DOD     C267393   5.073  19.160  10.878  0.1303  0.2075  0.0957
41191DOD     C367394   5.486  18.963  10.733 -0.0742 -0.0395 -0.2211
41192DOD     C167395  22.998  18.040   5.353  0.1261  0.2098  0.2114
41192DOD     C267396  23.485  18.049   5.329 -0.1496 -0.2752  0.1325
41192DOD     C367397  23.969  17.961   5.172 -0.4177  0.0667  0.0422
41193DOD     C167398  23.039  24.817  20.057 -0.1774  0.1849  0.1408
41193DOD     C267399  23.064  24.449  20.302  0.0045 -0.1064  0.0004
41193DOD     C367400  23.211  24.048  20.394 -0.1485 -0.0193  0.0820
41194DOD     C167401  22.960  28.862  20.019  0.0979 -0.0428  0.0299
41194DOD     C267402  23.170  28.530  19.749 -0.0741  0.1303  0.0302
41194DOD     C367403  23.246  28.114  19.877  0.0514  0.0236  0.0952
41195DOD     C167404  27.561  23.774  13.783 -0.0517 -0.2785 -0.1153
41195DOD     C267405  27.788  24.213  13.910  0.4561 -0.0755  0.0244
41195DOD     C367406  28.120  24.464  13.669  0.0086  0.1605 -0.0810
41196DOD     C167407  29.485   4.491  26.981 -0.0885 -0.0600 -0.1088
41196DOD     C267408  29.649   4.956  26.877 -0.1088  0.0855 -0.3362
41196DOD     C367409  29.863   5.340  26.725  0.3114  0.0661 -0.0610
41197DOD     C167410  24.371   0.244  12.148  0.1821 -0.2278  0.0676
41197DOD     C267411  24.594   0.679  12.127 -0.1260 -0.1125 -0.1677
41197DOD     C367412  24.793   1.062  12.127  0.0332  0.1825  0.1438
41198DOD     C167413   7.669   7.450  23.244 -0.1750 -0.2263  0.0905
41198DOD     C267414   7.259   7.464  23.001 -0.2044  0.1561 -0.1360
41198DOD     C367415   6.857   7.631  22.826 -0.0827 -0.1723 -0.1009
41199DOD     C167416  29.598  20.744   5.520 -0.0527 -0.1415 -0.2443
41199DOD     C267417  29.529  21.152   5.705  0.3148 -0.0717  0.2717
41199DOD     C367418  29.926  21.361   5.770 -0.1825  0.0496  0.1976
41200DOD     C167419   1.533   0.978  10.385 -0.0051  0.0744  0.0671
41200DOD     C267420   1.605   0.621  10.683  0.0648  0.0682 -0.0443
41200DOD     C367421   1.927   0.282  10.641 -0.1234  0.1120  0.2192
41201DOD     C167422  24.448  17.029  22.192  0.0709  0.0822 -0.0026
41201DOD     C267423  24.837  17.280  22.321  0.0150  0.2656 -0.0200
41201DOD     C367424  25.105  17.417  22.661 -0.0544  0.3891  0.1862
41202DOD     C167425  12.765   1.573  17.865  0.2782  0.0632  0.0032
41202DOD     C267426  12.461   1.456  17.474 -0.1568 -0.2016 -0.0115
41202DOD     C367427  12.018   1.321  17.407 -0.1572  0.0516 -0.1443
41203DOD     C167428  16.976  11.860   2.549  0.0075 -0.0198  0.2554
41203DOD     C267429  16.929  11.430   2.528  0.1482  0.0136  0.0922
41203DOD     C367430  16.933  10.961   2.588  0.0792  0.0979  0.2692
41204DOD     C167431  30.267  24.194   7.840  0.2220  0.1340  0.1582
41204DOD     C267432  -0.019  24.037   7.426  0.1250 -0.3583  0.1070
41204DOD     C367433   0.255  23.742   7.120 -0.1438  0.0549  0.2047
41205DOD     C167434  12.329   4.340  17.112  0.1567 -0.0748 -0.0352
41205DOD     C267435  12.371   4.700  16.802  0.0927  0.1535  0.1329
41205DOD     C367436  12.566   4.963  16.446 -0.1259  0.2027  0.0754
41206DOD     C167437   3.424  22.257  10.493  0.0492 -0.2518 -0.0398
41206DOD     C267438   3.264  22.529  10.147 -0.1221 -0.4467  0.1392
41206DOD     C367439   3.064  22.969   9.995 -0.1934 -0.1047 -0.1299
41207DOD     C167440  13.979  22.275  17.720  0.1233 -0.2703  0.0202
41207DOD     C267441  14.337  22.146  17.977 -0.1167  0.1690  0.1626
41207DOD     C367442  14.454  22.014  18.474  0.1289  0.0478 -0.0044
41208DOD     C167443  10.630  20.031   7.898 -0.0199  0.1177 -0.4167
41208DOD     C267444  10.736  20.447   7.787 -0.0049 -0.2694  0.0721
41208DOD     C367445  10.768  20.861   7.742 -0.0205 -0.1222 -0.0646
41209DOD     C167446  18.490  23.610  13.775  0.0298  0.1970 -0.2953
41209DOD     C267447  18.077  23.639  14.011  0.1863 -0.1968 -0.0420
41209DOD     C367448  17.710  23.611  14.337 -0.1148 -0.2577  0.1227
41210DOD     C167449  15.691  20.830  11.257  0.0742  0.1501 -0.2201
41210DOD     C267450  15.959  20.910  11.690  0.2233 -0.2454  0.0713
41210DOD     C367451  16.049  20.685  12.058  0.0504 -0.0276 -0.0734
41211DOD     C167452  27.362  25.962  12.619 -0.0529  0.2402  0.1644
41211DOD     C267453  27.270  25.542  12.421 -0.1166  0.2274  0.0855
41211DOD     C367454  27.070  25.421  11.991 -0.1650 -0.2820 -0.2875
41212DOD     C167455  12.578  15.066  19.958 -0.1762  0.1288  0.1605
41212DOD     C267456  13.008  14.973  20.088 -0.0202  0.1135 -0.2403
41212DOD     C367457  13.257  14.829  19.720  0.2288 -0.1151  0.3763
41213DOD     C167458  14.841   6.931   3.043  0.3710  0.1244  0.1645
41213DOD     C267459  14.449   7.040   2.846  0.1441  0.1963 -0.1422
41213DOD     C367460  13.998   6.917   2.703  0.1600  0.0104 -0.1749
41214DOD     C167461  29.588  19.143  22.031 -0.0131 -0.1116  0.2185
41214DOD     C267462  29.232  19.233  21.780  0.2842 -0.0704 -0.3254
41214DOD     C367463  28.934  19.571  21.795 -0.2545 -0.1184  0.1800
41215DOD     C167464  15.258  12.468  30.079 -0.0923  0.0095 -0.2161
41215DOD     C267465  15.088  12.796   0.081 -0.0723  0.2640 -0.0767
41215DOD     C367466  15.266  13.252   0.246  0.2162 -0.2977 -0.1473
41216DOD     C167467   7.959   0.812  16.875 -0.0344  0.1589 -0.0825
41216DOD     C267468   7.646   0.488  16.870  0.1438  0.1035  0.0368
41216DOD     C367469   7.204   0.440  16.889  0.0014  0.0937 -0.0941
41217DOD     C167470   4.150  22.974  29.317  0.0280 -0.2377 -0.1075
41217DOD     C267471   4.290  23.374  29.115  0.2175  0.4252 -0.1442
41217DOD     C367472   4.342  23.458  28.665  0.1537  0.0570  0.0096
41218DOD     C167473  27.932  13.389   6.024 -0.2389 -0.1715  0.2952
41218DOD     C267474  27.495  13.323   6.159  0.3224 -0.0610 -0.2407
41218DOD     C367475  27.060  13.149   6.271  0.2063  0.1345 -0.0940
41219DOD     C167476   5.628   1.886   1.874  0.0123  0.0213 -0.1196
41219DOD     C267477   5.168   1.831   1.635  0.0181  0.1134  0.2035
41219DOD     C367478   4.957   1.411   1.520 -0.1956  0.1250 -0.2283
41220DOD     C167479   7.050  20.909  20.463 -0.0576  0.0207  0.0097
41220DOD     C267480   7.199  21.318  20.634 -0.2857 -0.2311  0.3312
41220DOD     C367481   7.641  21.419  20.714 -0.0721  0.1276  0.1147
41221DOD     C167482  19.171  20.930  16.323 -0.0315 -0.0210 -0.0245
41221DOD     C267483  18.821  21.156  16.098 -0.0784  0.0488  0.2105
41221DOD     C367484  18.482  21.144  15.713  0.0858 -0.1899  0.2648
41222DOD     C167485  12.559   8.136  30.179 -0.5787  0.1317 -0.0933
41222DOD     C267486  12.982   8.266  -0.003  0.3568 -0.2117 -0.0288
41222DOD     C367487  13.146   8.550   0.278 -0.0355  0.0155  0.0470
41223DOD     C167488  21.842  10.985  23.827 -0.0530  0.2985 -0.1627
41223DOD     C267489  21.642  11.275  23.534 -0.0118 -0.2328  0.0068
41223DOD     C367490  21.694  11.624  23.223 -0.0352 -0.2424 -0.5719
41224DOD     C167491  11.121  18.748  24.451  0.2753 -0.0441  0.1288
41224DOD     C267492  11.513  18.858  24.695 -0.2212 -0.1176 -0.0621
41224DOD     C367493  11.774  19.194  24.619  0.0281 -0.1214 -0.0477
41225DOD     C167494   8.686  11.832  11.570  0.1837 -0.2259 -0.2727
41225DOD     C267495   8.704  12.309  11.698 -0.2347  0.0794  0.1567
41225DOD     C367496   9.073  12.607  11.853  0.0712 -0.0089  0.2846
41226DOD     C167497   6.396   7.878  14.961  0.2663 -0.0265 -0.1569
41226DOD     C267498   6.073   8.140  14.946  0.1325 -0.1568 -0.1308
41226DOD     C367499   5.659   8.235  15.185 -0.1766 -0.2378  0.2126
41227DOD     C167500  29.317  16.996  10.451 -0.2102  0.1758 -0.1714
41227DOD     C267501  29.498  16.597  10.604 -0.1320  0.1018  0.0812
41227DOD     C367502  29.942  16.404  10.749  0.1092 -0.3450  0.1945
41228DOD     C167503  22.296  13.975   8.058  0.2810 -0.0446 -0.0018
41228DOD     C267504  22.246  13.577   8.295 -0.0978 -0.0868 -0.0307
41228DOD     C367505  22.411  13.138   8.306  0.2745  0.2625  0.1473
41229DOD     C167506   0.042   4.263  18.303  0.1851  0.1216 -0.1001
41229DOD     C267507   0.183   4.472  17.930 -0.0926  0.4976  0.1960
41229DOD     C367508   0.179   4.289  17.516 -0.1077  0.0189 -0.2835
41230DOD     C167509  18.309  16.215   9.120 -0.0839  0.3942 -0.1632
41230DOD     C267510  18.601  16.003   8.852 -0.1543  0.0857 -0.0969
41230DOD     C367511  18.943  15.982   8.555  0.0773 -0.0424  0.3082
41231DOD     C167512  17.370   3.378  23.407 -0.3701 -0.0167 -0.0321
41231DOD     C267513  17.224   3.215  23.021  0.1644 -0.2705 -0.2118
41231DOD     C367514  16.941   2.946  22.758  0.1246  0.0556 -0.2472
41232DOD     C167515   0.796  24.756   2.690  0.0545  0.0567  0.1120
41232DOD     C267516   0.562  25.118   2.846  0.2844 -0.0805  0.2228
41232DOD     C367517   0.721  25.374   3.178  0.0007 -0.0515  0.1531
41233DOD     C167518  21.176  16.789  26.944 -0.0184  0.1438 -0.1001
41233DOD     C267519  20.998  16.777  26.529  0.1986  0.3301 -0.2403
41233DOD     C367520  20.736  16.463  26.283  0.2768 -0.0751  0.2288
41234DOD     C167521  23.080  28.392   2.760  0.1393  0.2302  0.0851
41234DOD     C267522  23.117  28.392   3.231  0.2405 -0.0482 -0.1151
41234DOD     C367523  23.454  28.116   3.436 -0.0679  0.4196 -0.1580
41235DOD     C167524   2.787  13.802   0.292  0.1371  0.0987 -0.0726
41235DOD     C267525   2.677  13.895   0.670  0.1251 -0.1031  0.0151
41235DOD     C367526   2.445  13.901   1.108 -0.1730 -0.0717 -0.0322
41236DOD     C167527   5.014  22.776  11.277  0.3079 -0.2130  0.1549
41236DOD     C267528   4.956  22.364  10.983 -0.1325 -0.1091  0.2737
41236DOD     C367529   5.018  22.024  10.664  0.1174 -0.0333 -0.1274
41237DOD     C167530  28.785  23.085   5.935  0.0257 -0.1585  0.1293
41237DOD     C267531  29.227  22.878   5.941  0.4000  0.2303 -0.1770
41237DOD     C367532  29.650  22.671   6.012  0.2040 -0.1869 -0.0036
41238DOD     C167533  25.496   1.717   9.563 -0.2486 -0.0830  0.0218
41238DOD     C267534  25.909   1.493   9.692  0.2528 -0.4176 -0.1333
41238DOD     C367535  26.252   1.200   9.831  0.1540 -0.2899  0.0907
41239DOD     C167536  25.024  25.286   7.015  0.1472  0.0620  0.0267
41239DOD     C267537  24.795  25.613   7.222  0.1337  0.0595 -0.3520
41239DOD     C367538  24.472  25.710   6.917 -0.3027 -0.0562  0.2445
41240DOD     C167539  13.937   8.136   2.279 -0.1079 -0.1203 -0.0608
41240DOD     C267540  14.151   8.604   2.261 -0.0405  0.1550 -0.1934
41240DOD     C367541  14.476   8.899   2.101 -0.0683  0.0906 -0.0195
41241DOD     C167542   2.126  11.409  10.945 -0.2663  0.1407  0.0926
41241DOD     C267543   1.687  11.575  11.028  0.0821 -0.1178  0.1695
41241DOD     C367544   1.305  11.651  11.330 -0.3640 -0.1150  0.1387
41242DOD     C167545  18.233  20.257   5.249 -0.0975  0.1388  0.0403
41242DOD     C267546  17.972  20.358   4.909  0.0681 -0.2825 -0.1866
41242DOD     C367547  17.687  20.419   4.490 -0.3900  0.1564  0.2068
41243DOD     C167548  11.157  12.415  26.093 -0.0141  0.1422  0.3361
41243DOD     C267549  11.399  12.258  25.778 -0.2878  0.3770 -0.1245
41243DOD     C367550  11.670  11.918  25.585 -0.0058 -0.0831  0.0375
41244DOD     C167551  11.816  20.068  25.064  0.0161  0.2530  0.1725
41244DOD     C267552  11.580  20.439  25.107 -0.3132  0.2923 -0.0444
41244DOD     C367553  11.567  20.885  25.317  0.0953 -0.0281 -0.0416
41245DOD     C167554   9.701  29.937  10.276  0.3857  0.4246 -0.1179
41245DOD     C267555   9.938  29.738   9.930  0.1715 -0.0554 -0.2681
41245DOD     C367556   9.769  29.335   9.722  0.4358 -0.2558  0.1479
41246DOD     C167557  27.895  27.141   6.008 -0.1484  0.0707 -0.3539
41246DOD     C267558  27.457  27.136   6.029 -0.2365 -0.2404 -0.1320
41246DOD     C367559  27.012  27.182   6.191 -0.1218  0.0216  0.0481
41247DOD     C167560   6.047  12.825  16.405  0.0724  0.0864 -0.0478
41247DOD     C267561   5.865  13.178  16.146  0.0046 -0.0262 -0.2428
41247DOD     C367562   5.538  13.540  16.195  0.0665 -0.0322 -0.0749
41248DOD     C167563  13.985  16.783   3.951 -0.0245  0.0941 -0.1276
41248DOD     C267564  13.618  16.939   4.061  0.0017  0.1951 -0.0139
41248DOD     C367565  13.344  17.327   4.029 -0.0412  0.0763 -0.0582
41249DOD     C167566   3.046  19.469  30.019  0.1331 -0.0941  0.1749
41249DOD     C267567   3.007  18.984  30.122 -0.0625 -0.0101  0.0253
41249DOD     C367568   2.689  18.708  30.229 -0.0904  0.1989 -0.0614
41250DOD     C167569  25.085  22.571   9.214  0.1570 -0.0798 -0.1239
41250DOD     C267570  25.236  22.633   9.682 -0.1114 -0.0326 -0.2394
41250DOD     C367571  25.211  22.707  10.150  0.0816  0.0502 -0.1495
41251DOD     C167572  15.028   3.155  25.288  0.4212 -0.0465  0.0499
41251DOD     C267573  15.426   2.925  25.482  0.0662 -0.0236 -0.3168
41251DOD     C367574  15.711   2.635  25.706 -0.1591 -0.2075  0.0394
41252DOD     C167575  10.164  18.136  29.210 -0.1176 -0.0187  0.1385
41252DOD     C267576  10.005  17.969  28.814 -0.2091  0.1703  0.1246
41252DOD     C367577  10.016  17.832  28.357 -0.0544 -0.1928  0.0922
41253DOD     C167578  22.184  17.545  21.383 -0.0640 -0.0090 -0.0158
41253DOD     C267579  22.361  17.372  20.998 -0.1202  0.1289 -0.1705
41253DOD     C367580  22.492  17.393  20.547 -0.0015  0.1353  0.1597
41254DOD     C167581  20.777  16.463  17.166  0.1070  0.1157  0.5345
41254DOD     C267582  20.857  16.761  17.513 -0.1301  0.1731 -0.2095
41254DOD     C367583  20.646  17.038  17.839  0.2381  0.0621  0.0677
41255DOD     C167584  24.191   8.996  15.824 -0.2398  0.0020  0.1848
41255DOD     C267585  24.033   8.617  15.670  0.2265  0.2229 -0.0654
41255DOD     C367586  24.314   8.234  15.445 -0.1557 -0.0644 -0.0502
41256DOD     C167587  23.517   0.657  15.676  0.1933 -0.2974  0.1212
41256DOD     C267588  23.766   0.304  15.810 -0.1689 -0.0406 -0.1931
41256DOD     C367589  24.180   0.188  15.973  0.1134  0.0005 -0.2124
41257DOD     C167590  18.500   8.392  26.576  0.0865 -0.3263 -0.1129
41257DOD     C267591  18.416   8.775  26.367  0.0584 -0.1568  0.0905
41257DOD     C367592  18.612   9.180  26.265  0.1459  0.0023  0.1205
41258DOD     C167593   9.184  22.212   7.143 -0.0249  0.0987 -0.2630
41258DOD     C267594   9.432  21.968   6.869 -0.1992  0.1629 -0.0347
41258DOD     C367595   9.782  21.632   6.940  0.1994 -0.1425 -0.0889
41259DOD     C167596  11.290  18.811  26.305  0.2641  0.0955  0.0892
41259DOD     C267597  11.108  18.926  26.735  0.3978 -0.0822 -0.0586
41259DOD     C367598  11.052  19.087  27.146  0.0481 -0.1661  0.0742
41260DOD     C167599  29.175  16.406  18.018 -0.0974 -0.3095  0.1035
41260DOD     C267600  28.711  16.551  18.016 -0.0242 -0.0927  0.1730
41260DOD     C367601  28.457  16.857  18.153 -0.0700  0.0351  0.0995
41261DOD     C167602   5.353  21.792  27.656  0.2336  0.1381 -0.0004
41261DOD     C267603   4.976  21.829  27.406  0.1273 -0.0374  0.0519
41261DOD     C367604   4.826  22.114  27.070 -0.0267 -0.3143  0.0881
41262DOD     C167605  20.871  18.588  22.006 -0.1585 -0.0656 -0.3585
41262DOD     C267606  21.034  18.306  22.280 -0.0439 -0.0624 -0.1828
41262DOD     C367607  20.971  17.985  22.591  0.0516  0.1235  0.1402
41263DOD     C167608  14.623  12.253  26.054  0.2212  0.1837  0.0685
41263DOD     C267609  14.433  12.673  26.033  0.2123 -0.3187 -0.0018
41263DOD     C367610  14.276  12.926  25.685  0.2133  0.2600 -0.2920
41264DOD     C167611  13.451  23.725  16.466 -0.2812 -0.1598 -0.0299
41264DOD     C267612  13.916  23.887  16.453 -0.3017  0.0700 -0.3018
41264DOD     C367613  14.354  23.767  16.555  0.2456 -0.0570  0.0974
41265DOD     C167614  11.790  16.693  19.350  0.1236  0.2820 -0.0447
41265DOD     C267615  12.255  16.652  19.260  0.0261 -0.3477 -0.2569
41265DOD     C367616  12.670  16.503  19.260 -0.0835 -0.3773  0.0447
41266DOD     C167617  17.642  23.260  18.737  0.0240 -0.2800 -0.4664
41266DOD     C267618  17.720  22.876  18.947  0.1500 -0.1026 -0.0289
41266DOD     C367619  17.595  22.441  19.135  0.2427 -0.0659  0.2784
41267DOD     C167620   5.573  25.936  17.926  0.1022 -0.0889 -0.0294
41267DOD     C267621   5.611  25.518  17.641 -0.2639 -0.3236 -0.0871
41267DOD     C367622   5.467  25.201  17.300  0.3842 -0.3431 -0.1973
41268DOD     C167623   0.736   9.443  20.893 -0.1777  0.0867 -0.2230
41268DOD     C267624   0.386   9.213  21.075 -0.2958  0.0989  0.0561
41268DOD     C367625   0.308   8.733  21.124  0.1178  0.2958  0.1840
41269DOD     C167626  23.376   9.398   4.947  0.0815 -0.2322  0.1237
41269DOD     C267627  23.174   9.275   4.533  0.1135 -0.0160 -0.1034
41269DOD     C367628  23.059   9.288   4.066 -0.1665 -0.0755  0.1097
41270DOD     C167629   0.389  19.376  22.681 -0.1505  0.0906  0.3314
41270DOD     C267630   0.010  19.658  22.564 -0.0638  0.2443  0.0637
41270DOD     C367631  30.140  19.693  22.123 -0.1721 -0.0636 -0.1001
41271DOD     C167632   7.785   0.948   9.738 -0.0890 -0.1037  0.0187
41271DOD     C267633   7.933   1.129   9.359 -0.0270 -0.1675  0.0234
41271DOD     C367634   8.037   1.318   8.904 -0.1266 -0.2772  0.1637
41272DOD     C167635  23.658   5.254   0.206 -0.1498 -0.0596 -0.1813
41272DOD     C267636  23.604   5.039  30.088  0.1616 -0.0174  0.2255
41272DOD     C367637  23.647   4.681  29.754  0.1412  0.3521 -0.0358
41273DOD     C167638  19.201  13.181  29.705  0.1977  0.1461  0.2111
41273DOD     C267639  19.343  12.978  29.331  0.2024 -0.0676  0.0765
41273DOD     C367640  19.694  12.717  29.314 -0.0745 -0.1736  0.1041
41274DOD     C167641  21.789  23.236   4.287 -0.1054  0.2809 -0.0544
41274DOD     C267642  21.590  23.406   3.918 -0.1397 -0.4826  0.0240
41274DOD     C367643  21.656  23.474   3.457  0.1050  0.0343 -0.0229
41275DOD     C167644   4.047  13.247  28.935 -0.2996  0.3395  0.1999
41275DOD     C267645   3.585  13.247  28.963 -0.3983  0.3831  0.0884
41275DOD     C367646   3.336  13.189  29.394 -0.0134  0.4069  0.1997
41276DOD     C167647  24.819  13.800   7.765 -0.1912 -0.0961  0.1819
41276DOD     C267648  24.457  13.555   7.536  0.0331  0.0945 -0.1216
41276DOD     C367649  24.241  13.673   7.132 -0.0067 -0.1842  0.0325
41277DOD     C167650  16.294   7.736  13.665 -0.0120 -0.0433 -0.2406
41277DOD     C267651  16.240   8.165  13.561 -0.2339  0.0121 -0.1072
41277DOD     C367652  16.565   8.488  13.512 -0.0868  0.0217 -0.0003
41278DOD     C167653   0.164   9.863  17.265  0.0768 -0.1604 -0.2099
41278DOD     C267654   0.583  10.073  17.224 -0.3294  0.0698 -0.1162
41278DOD     C367655   0.702  10.429  17.499  0.1285 -0.1210  0.4554
41279DOD     C167656   2.284   6.928  26.470  0.1403  0.0341  0.1344
41279DOD     C267657   2.196   7.004  26.930  0.0866  0.0211  0.1455
41279DOD     C367658   1.926   7.102  27.291  0.3259 -0.2434  0.3496
41280DOD     C167659  27.425  17.838  16.675 -0.1015  0.2860  0.0174
41280DOD     C267660  27.669  17.976  17.036 -0.0759  0.0812  0.0036
41280DOD     C367661  27.543  18.002  17.476  0.0384 -0.3170 -0.0942
41281DOD     C167662  12.302   7.391  23.389 -0.0460  0.1515 -0.1845
41281DOD     C267663  12.309   7.421  23.872  0.0720  0.2496 -0.4229
41281DOD     C367664  12.153   7.359  24.320 -0.0935 -0.0329  0.0063
41282DOD     C167665  21.947  13.993   6.568 -0.0145 -0.1608 -0.0565
41282DOD     C267666  22.349  13.756   6.451 -0.0710  0.0057  0.0857
41282DOD     C367667  22.675  13.434   6.515 -0.4225 -0.2883  0.0940
41283DOD     C167668  30.103   7.119  16.820  0.0833  0.1231  0.0923
41283DOD     C267669  30.127   7.487  16.466  0.0672  0.0771  0.0989
41283DOD     C367670  30.109   7.520  15.939  0.2851  0.2791  0.2127
41284DOD     C167671  24.988   8.609  12.055 -0.0369 -0.2788  0.0810
41284DOD     C267672  25.305   8.567  11.691  0.1335  0.3417 -0.1429
41284DOD     C367673  25.669   8.563  11.354 -0.0176  0.0853  0.0147
41285DOD     C167674  15.168  25.971  14.365  0.2088  0.2933 -0.2278
41285DOD     C267675  14.950  25.866  14.816 -0.1989 -0.0476  0.1804
41285DOD     C367676  14.818  25.789  15.296  0.1502  0.0294 -0.0395
41286DOD     C167677   6.084   8.420   4.950  0.0152  0.2654  0.0392
41286DOD     C267678   5.955   8.209   4.558  0.4360 -0.0644 -0.1569
41286DOD     C367679   5.765   8.086   4.125  0.4492  0.2384 -0.0748
41287DOD     C167680  14.067   0.472  17.906 -0.0753  0.0416 -0.0311
41287DOD     C267681  14.506   0.557  17.710 -0.0307  0.2867  0.2339
41287DOD     C367682  14.853   0.655  17.451  0.1835  0.3247 -0.0165
41288DOD     C167683  10.972  20.754   0.006  0.3404  0.0766 -0.0406
41288DOD     C267684  10.677  20.712  29.955  0.1784  0.0187  0.0939
41288DOD     C367685  10.299  20.598  29.763  0.2230 -0.2249 -0.3721
41289DOD     C167686   8.042  28.841   4.089 -0.2509  0.1276 -0.3139
41289DOD     C267687   7.648  28.694   4.309 -0.2220  0.0482 -0.0246
41289DOD     C367688   7.260  28.478   4.193 -0.0490  0.1231 -0.2673
41290DOD     C167689  14.701  18.578   9.143 -0.2703 -0.0600 -0.0060
41290DOD     C267690  14.623  18.503   8.663  0.1763  0.0217 -0.1434
41290DOD     C367691  14.433  18.631   8.236  0.2909 -0.1378  0.1642
41291DOD     C167692   4.275  26.971  26.434 -0.0172  0.0813 -0.1621
41291DOD     C267693   3.935  27.280  26.301 -0.0054  0.0719 -0.0638
41291DOD     C367694   3.686  27.639  26.476  0.1906  0.1453  0.3077
41292DOD     C167695  16.705  30.256  16.429 -0.3862 -0.3055  0.1255
41292DOD     C267696  16.730  -0.011  16.897 -0.2047 -0.1522  0.1814
41292DOD     C367697  16.493  30.121  17.269 -0.0348  0.1331  0.0140
41293DOD     C167698   4.565  18.976  12.593 -0.1727 -0.1794 -0.3795
41293DOD     C267699   4.546  18.505  12.545 -0.1195 -0.4528 -0.1470
41293DOD     C367700   4.715  18.232  12.809  0.0910  0.2830  0.0337
41294DOD     C167701  26.968  25.311   5.306 -0.0123 -0.0568  0.0181
41294DOD     C267702  26.693  25.674   5.165  0.2942  0.0431 -0.1134
41294DOD     C367703  26.457  26.052   5.084  0.1132  0.0047 -0.2870
41295DOD     C167704  28.426  18.183  10.833 -0.0701 -0.0578  0.2693
41295DOD     C267705  28.880  18.216  10.727 -0.0329 -0.0957 -0.0983
41295DOD     C367706  29.200  18.145  10.372  0.0868 -0.0386 -0.0915
41296DOD     C167707  12.047   1.071  29.539 -0.1732 -0.1739  0.2186
41296DOD     C267708  11.894   1.531  29.460  0.0045  0.0047 -0.1515
41296DOD     C367709  11.592   1.912  29.405 -0.2517  0.3774 -0.1362
41297DOD     C167710  29.389   3.884  11.665 -0.2356 -0.0528  0.0376
41297DOD     C267711  29.428   3.516  11.430 -0.0976  0.5213 -0.0892
41297DOD     C367712  29.560   3.146  11.193  0.0337  0.0593 -0.1133
41298DOD     C167713  29.527   2.497   0.823  0.2413 -0.1243 -0.3188
41298DOD     C267714  29.331   2.766   0.522  0.0919 -0.1054 -0.2149
41298DOD     C367715  29.092   3.137   0.370  0.2534 -0.0888 -0.0885
41299DOD     C167716  26.536  20.975  18.435 -0.1320  0.1611  0.0246
41299DOD     C267717  26.838  20.783  18.128  0.0097  0.5566 -0.0240
41299DOD     C367718  26.950  20.532  17.760  0.1490 -0.2109 -0.1919
41300DOD     C167719  12.903  24.571  15.275 -0.0075 -0.2481 -0.1059
41300DOD     C267720  12.537  24.728  15.496 -0.2556 -0.2551 -0.1045
41300DOD     C367721  12.119  24.817  15.352 -0.2687 -0.2282  0.2175
41301DOD     C167722   8.087   2.829   6.201  0.3070 -0.3012  0.2664
41301DOD     C267723   7.874   2.437   6.398  0.0877 -0.1823  0.1651
41301DOD     C367724   7.479   2.182   6.243  0.4183 -0.1655  0.0586
41302DOD     C167725  17.004  23.972  19.930  0.4352  0.3560  0.0533
41302DOD     C267726  16.741  23.687  20.201  0.0252 -0.2158  0.1263
41302DOD     C367727  16.288  23.774  20.238  0.0030  0.0743  0.0485
41303DOD     C167728  22.625  26.567  23.921 -0.0409 -0.2265 -0.3171
41303DOD     C267729  22.838  26.847  24.282 -0.3139  0.1635  0.1576
41303DOD     C367730  23.158  27.035  24.604 -0.0055  0.2331  0.0496
41304DOD     C167731  29.625  20.324   3.605  0.0823  0.0713 -0.2377
41304DOD     C267732  29.846  20.643   3.416 -0.0112  0.0036  0.0696
41304DOD     C367733  29.901  21.034   3.161 -0.1372 -0.0195  0.0434
41305DOD     C167734  19.113  28.803  19.062  0.0027  0.1212  0.1876
41305DOD     C267735  18.591  28.708  18.930  0.1665 -0.2223 -0.2556
41305DOD     C367736  18.263  28.413  18.721 -0.0749  0.1219 -0.0311
41306DOD     C167737   1.993  20.439   7.079 -0.0897  0.0598 -0.0175
41306DOD     C267738   2.250  20.120   6.991 -0.1145  0.1677  0.1055
41306DOD     C367739   2.441  19.708   6.998 -0.2065  0.3053  0.0206
41307DOD     C167740  25.799  26.478   4.681  0.0307 -0.0363  0.1182
41307DOD     C267741  25.508  26.921   4.643  0.2301 -0.0648  0.0494
41307DOD     C367742  25.455  27.308   4.426  0.0248 -0.3028 -0.1933
41308DOD     C167743   2.841  17.621   4.873 -0.0073  0.0273 -0.0573
41308DOD     C267744   2.544  18.001   4.947 -0.1761 -0.0840  0.0244
41308DOD     C367745   2.452  18.418   4.757  0.1269 -0.4102  0.2096
41309DOD     C167746  11.248  26.290   2.950  0.1872 -0.0255 -0.0873
41309DOD     C267747  11.302  26.617   2.560 -0.1798  0.2925 -0.3590
41309DOD     C367748  11.375  26.685   2.112 -0.1785 -0.0862  0.0145
41310DOD     C167749   3.903   9.253   0.232 -0.2940 -0.2101 -0.0438
41310DOD     C267750   3.480   9.372   0.270  0.1584 -0.4204 -0.1044
41310DOD     C367751   3.085   9.258   0.445  0.0890 -0.2596 -0.1918
41311DOD     C167752  11.894   4.490  15.667 -0.0362  0.1635  0.0479
41311DOD     C267753  11.531   4.748  15.464  0.3008  0.0014 -0.2359
41311DOD     C367754  11.117   4.977  15.495 -0.1278 -0.0064 -0.1821
41312DOD     C167755  30.294  24.404   6.054 -0.0908 -0.0049  0.0458
41312DOD     C267756  30.085  24.499   5.648  0.0483 -0.0654  0.0678
41312DOD     C367757  30.094  24.919   5.404 -0.4660 -0.3021 -0.0392
41313DOD     C167758  21.399   5.125  23.700  0.0813  0.0666  0.1870
41313DOD     C267759  21.703   5.451  23.660 -0.1586  0.1764  0.0212
41313DOD     C367760  21.950   5.836  23.619 -0.2905 -0.2964 -0.1758
41314DOD     C167761  14.954  14.708  12.710  0.0021  0.2733  0.1214
41314DOD     C267762  15.045  14.244  12.618  0.0164  0.3551  0.0304
41314DOD     C367763  15.053  13.786  12.505  0.0984 -0.0456  0.1429
41315DOD     C167764  21.474   2.951   7.071  0.3945  0.0200  0.0278
41315DOD     C267765  21.194   2.840   7.447  0.1618 -0.0110 -0.2376
41315DOD     C367766  20.866   2.723   7.767 -0.2141 -0.0395  0.4005
41316DOD     C167767   7.733   1.562  17.637  0.1848 -0.1976  0.0369
41316DOD     C267768   7.549   1.452  18.030  0.2216 -0.0897  0.1378
41316DOD     C367769   7.281   1.627  18.320 -0.0486  0.2627  0.0196
41317DOD     C167770   4.885  17.614   6.492 -0.1283 -0.3449  0.1085
41317DOD     C267771   4.882  17.968   6.191 -0.0851 -0.2012  0.1630
41317DOD     C367772   4.895  18.377   5.942 -0.0047  0.1290 -0.0007
41318DOD     C167773  14.205  15.329   5.487  0.1121 -0.0553  0.1984
41318DOD     C267774  14.359  15.608   5.833 -0.2557 -0.0105 -0.0928
41318DOD     C367775  14.320  16.084   5.801 -0.0100  0.0611 -0.2715
41319DOD     C167776  24.170   5.771  24.712 -0.0070 -0.0085 -0.1165
41319DOD     C267777  24.418   5.405  24.782  0.2972  0.0029  0.2085
41319DOD     C367778  24.622   5.025  24.923 -0.0867 -0.0731 -0.0254
41320DOD     C167779   1.412  17.609   7.562  0.1577  0.0257  0.1906
41320DOD     C267780   1.318  17.222   7.816  0.1477 -0.1103  0.1705
41320DOD     C367781   1.603  17.019   8.088 -0.1563 -0.1013 -0.1564
41321DOD     C167782   4.746  29.558   2.391 -0.0964 -0.0139  0.1199
41321DOD     C267783   5.019  29.655   2.074 -0.2252 -0.0484 -0.0806
41321DOD     C367784   5.251  29.585   1.628 -0.1408 -0.0702  0.1424
41322DOD     C167785  16.663  30.141  27.778 -0.1747 -0.2982 -0.0463
41322DOD     C267786  16.464   0.192  28.070 -0.2737  0.3003  0.1273
41322DOD     C367787  16.480   0.517  28.375  0.2150  0.2088 -0.0730
41323DOD     C167788  12.623  15.370  28.437  0.2645  0.2508 -0.0231
41323DOD     C267789  12.417  15.007  28.275  0.1058  0.2510  0.0875
41323DOD     C367790  12.334  14.590  28.116 -0.1551  0.0910 -0.0688
41324DOD     C167791   4.320  26.927  16.067  0.0318  0.0469 -0.1059
41324DOD     C267792   3.947  27.068  16.355  0.0860  0.0888 -0.2661
41324DOD     C367793   3.481  27.040  16.494 -0.1206 -0.1230 -0.2408
41325DOD     C167794  22.856   3.226  22.141  0.1649 -0.3788 -0.1308
41325DOD     C267795  23.078   2.904  21.870  0.1762  0.0688 -0.3497
41325DOD     C367796  23.187   2.701  21.491  0.2979 -0.0721  0.1934
41326DOD     C167797  12.692  15.039  11.058  0.1776 -0.3488  0.2535
41326DOD     C267798  12.607  15.347  11.367 -0.1822 -0.0001  0.1434
41326DOD     C367799  12.578  15.635  11.740  0.0598 -0.2269  0.3499
41327DOD     C167800   1.948  25.411  10.790  0.1899  0.1953 -0.1007
41327DOD     C267801   1.952  24.981  10.983  0.0618 -0.0633  0.2353
41327DOD     C367802   1.864  24.562  11.235  0.0301 -0.0118  0.0291
41328DOD     C167803  28.068  25.891   6.386 -0.0061 -0.0748 -0.0303
41328DOD     C267804  28.567  26.104   6.404  0.2305  0.5920 -0.2181
41328DOD     C367805  28.954  26.174   6.142  0.0947  0.1384  0.0057
41329DOD     C167806  12.282   5.872  11.850 -0.1951  0.1305 -0.1833
41329DOD     C267807  12.350   6.302  11.811  0.0058  0.0041 -0.1621
41329DOD     C367808  12.384   6.819  11.867  0.1838  0.0378  0.1941
41330DOD     C167809  27.333  19.851  16.405  0.0093  0.0295 -0.1001
41330DOD     C267810  27.844  19.780  16.500  0.1306 -0.3701  0.0839
41330DOD     C367811  28.075  19.662  16.128  0.0346 -0.1197  0.4395
41331DOD     C167812   1.243  20.958   7.838 -0.2121 -0.1491 -0.1243
41331DOD     C267813   0.810  20.902   7.691  0.0319 -0.0683  0.1907
41331DOD     C367814   0.676  20.720   7.267  0.0707  0.0720 -0.3241
41332DOD     C167815  20.449   0.992  24.118  0.1784  0.3829 -0.1667
41332DOD     C267816  20.239   1.385  24.310  0.0726 -0.1947  0.2287
41332DOD     C367817  19.941   1.645  24.558  0.1534 -0.3899  0.1443
41333DOD     C167818   5.567  13.629  27.266  0.1843  0.1168  0.3453
41333DOD     C267819   5.967  13.771  27.079  0.0449  0.2306 -0.1764
41333DOD     C367820   6.095  13.865  26.640 -0.2157 -0.2237 -0.1494
41334DOD     C167821  15.246  18.270   6.205  0.1639 -0.1052  0.1100
41334DOD     C267822  15.244  17.885   6.433  0.0674  0.3336  0.0400
41334DOD     C367823  15.014  17.489   6.492  0.3840  0.2406 -0.0878
41335DOD     C167824  26.874  26.440  26.647  0.0455 -0.2415 -0.2165
41335DOD     C267825  26.753  26.764  26.956  0.0510 -0.0701  0.5832
41335DOD     C367826  26.696  26.813  27.337  0.2703  0.1887  0.2112
41336DOD     C167827  14.840  13.235  22.524 -0.0649 -0.1978 -0.1557
41336DOD     C267828  14.667  13.664  22.344 -0.2558 -0.3055 -0.1551
41336DOD     C367829  14.367  13.931  22.166  0.0262 -0.1067 -0.2203
41337DOD     C167830  16.684  26.905  17.228 -0.1361  0.1512 -0.0178
41337DOD     C267831  17.116  26.715  17.104 -0.3592  0.4137 -0.0678
41337DOD     C367832  17.374  26.270  17.151 -0.0113 -0.0362 -0.1147
41338DOD     C167833   4.297  22.534  20.522 -0.0099  0.4188  0.1812
41338DOD     C267834   4.222  22.066  20.469  0.0731 -0.3985 -0.0135
41338DOD     C367835   4.171  21.615  20.417  0.1290  0.0811 -0.0823
41339DOD     C167836  12.369   1.380   0.892 -0.1145 -0.1356 -0.2807
41339DOD     C267837  12.230   1.188   1.315  0.1950  0.0142 -0.3033
41339DOD     C367838  11.863   1.253   1.605  0.0328  0.3004  0.3547
41340DOD     C167839  26.342   8.453   0.234  0.1707 -0.1043 -0.1334
41340DOD     C267840  26.546   8.745  30.216  0.0039  0.0585 -0.2496
41340DOD     C367841  26.708   8.716  29.736 -0.1214 -0.0503  0.1009
41341DOD     C167842   7.048  19.292  16.043  0.1251  0.1783 -0.1613
41341DOD     C267843   6.860  19.447  15.659 -0.1593  0.0995  0.1270
41341DOD     C367844   6.897  19.454  15.179  0.3384  0.1561  0.0546
41342DOD     C167845  24.103   8.002  26.576 -0.1714 -0.0497 -0.3849
41342DOD     C267846  24.044   8.107  27.082 -0.1110  0.0920  0.2000
41342DOD     C367847  23.910   7.769  27.356  0.0643 -0.0248 -0.1253
41343DOD     C167848  27.052  11.858  22.981 -0.2950  0.1164  0.1146
41343DOD     C267849  26.966  12.248  23.208 -0.0071  0.3072 -0.0559
41343DOD     C367850  27.112  12.651  23.349 -0.1890 -0.0750  0.0373
41344DOD     C167851  27.854   7.174  18.113  0.0239 -0.1527 -0.2122
41344DOD     C267852  27.560   7.432  18.247  0.0897 -0.3448  0.0017
41344DOD     C367853  27.337   7.851  18.164 -0.1755  0.0237 -0.1969
41345DOD     C167854   2.957  23.958   0.499  0.3870 -0.0495 -0.2130
41345DOD     C267855   2.884  24.435   0.479  0.1835 -0.3547  0.1947
41345DOD     C367856   2.662  24.871   0.573 -0.1543 -0.3242  0.0076
41346DOD     C167857   8.527   0.083  24.371  0.5982  0.1408 -0.1018
41346DOD     C267858   8.178   0.215  24.652  0.0364  0.0324  0.3073
41346DOD     C367859   7.675   0.240  24.846 -0.0425 -0.2904 -0.0303
41347DOD     C167860  27.221  25.038  17.157  0.0490 -0.0094  0.1216
41347DOD     C267861  27.467  25.493  17.113  0.2347  0.2323 -0.1403
41347DOD     C367862  27.785  25.793  17.283 -0.0821  0.1075 -0.3800
41348DOD     C167863  13.388  16.450  21.118  0.1691 -0.0747  0.0397
41348DOD     C267864  13.662  16.541  21.467  0.1327  0.0281 -0.1175
41348DOD     C367865  13.897  16.839  21.740  0.0274  0.2474  0.1521
41349DOD     C167866   4.402  19.440  18.912 -0.0232  0.1924 -0.0456
41349DOD     C267867   4.516  19.498  18.503 -0.0262  0.0359  0.0387
41349DOD     C367868   4.670  19.540  18.071  0.1202  0.1197  0.0844
41350DOD     C167869   9.668  10.486  26.991 -0.3844  0.0806 -0.2127
41350DOD     C267870   9.354  10.653  26.598 -0.0356 -0.2479  0.3459
41350DOD     C367871   9.316  11.031  26.294  0.2441  0.0630  0.3502
41351DOD     C167872  16.463  23.551  13.980  0.1128  0.0751  0.0390
41351DOD     C267873  16.862  23.311  14.140 -0.0407  0.1433  0.1926
41351DOD     C367874  17.181  23.258  14.467 -0.0284 -0.2491 -0.1926
41352DOD     C167875   9.233  13.933   4.077 -0.1224 -0.3014 -0.0709
41352DOD     C267876   8.926  14.311   4.056 -0.3423  0.1879  0.3550
41352DOD     C367877   8.875  14.658   4.342 -0.0927  0.0236  0.1174
41353DOD     C167878  13.526  24.030  27.182 -0.0136 -0.2314 -0.2395
41353DOD     C267879  13.818  23.692  27.181 -0.1371  0.1427  0.1925
41353DOD     C367880  14.131  23.582  26.832  0.0511 -0.1690 -0.1161
41354DOD     C167881   5.124   3.325   4.572  0.0427  0.1875  0.0741
41354DOD     C267882   4.839   3.726   4.538  0.1995  0.0446  0.0202
41354DOD     C367883   4.497   3.959   4.664  0.1053  0.1003 -0.3328
41355DOD     C167884  18.295  15.637  21.803  0.1264  0.1655  0.1833
41355DOD     C267885  18.260  15.728  22.297  0.0287  0.1150  0.3729
41355DOD     C367886  18.189  15.868  22.754  0.3457  0.2034  0.0606
41356DOD     C167887  21.487  18.652   5.771 -0.0055  0.0633 -0.0390
41356DOD     C267888  21.253  18.740   5.344 -0.5324  0.3006 -0.0801
41356DOD     C367889  20.830  18.597   5.196 -0.1142  0.3157  0.1436
41357DOD     C167890   3.806  22.357  29.989  0.0078  0.2458  0.1160
41357DOD     C267891   3.750  21.880  30.096 -0.4177 -0.1169  0.0539
41357DOD     C367892   3.811  21.417  -0.052  0.0718  0.0785 -0.3910
41358DOD     C167893  19.561  15.575  27.297 -0.0331 -0.0862  0.1221
41358DOD     C267894  19.285  15.237  27.103  0.0163 -0.2528 -0.3342
41358DOD     C367895  19.063  15.027  26.763 -0.1115  0.1898 -0.1634
41359DOD     C167896   5.942  26.548  10.828 -0.0317  0.3008 -0.2447
41359DOD     C267897   5.728  26.427  11.221  0.1101 -0.0351  0.0473
41359DOD     C367898   5.511  26.649  11.576 -0.2876 -0.0212 -0.0992
41360DOD     C167899   5.406   6.132  15.604 -0.0554 -0.1211 -0.0362
41360DOD     C267900   5.814   5.894  15.669 -0.0721  0.0284  0.1642
41360DOD     C367901   6.252   5.731  15.675  0.0943 -0.0364  0.3800
41361DOD     C167902  17.383  14.190  15.278 -0.0541 -0.1156 -0.4315
41361DOD     C267903  16.904  14.171  15.337 -0.0069  0.2728  0.0039
41361DOD     C367904  16.425  14.097  15.183 -0.2189 -0.1299  0.3397
41362DOD     C167905  29.461  15.703  30.063 -0.0295 -0.2852 -0.2439
41362DOD     C267906  29.126  15.860  29.701  0.1027  0.0351 -0.1307
41362DOD     C367907  28.709  16.041  29.626  0.0289  0.2219 -0.0926
41363DOD     C167908  20.909   0.799  23.756  0.3293 -0.2313 -0.0409
41363DOD     C267909  20.828   1.237  23.577 -0.2839  0.4444  0.0338
41363DOD     C367910  20.512   1.426  23.249 -0.0518 -0.0737  0.1526
41364DOD     C167911  27.778  26.720  17.104 -0.0899 -0.1962  0.4240
41364DOD     C267912  28.127  26.842  17.432  0.0290 -0.3106  0.1280
41364DOD     C367913  28.185  26.938  17.869 -0.1417  0.1594  0.3452
41365DOD     C167914  23.983   6.959  26.133  0.1013 -0.1693  0.1504
41365DOD     C267915  23.568   7.116  26.073  0.1764  0.1084  0.0944
41365DOD     C367916  23.176   7.365  26.111 -0.3186  0.2127  0.0160
41366DOD     C167917  17.970  15.125  12.779 -0.0411 -0.1945 -0.1351
41366DOD     C267918  17.640  15.450  12.649  0.1089 -0.1348  0.2134
41366DOD     C367919  17.302  15.719  12.848  0.1208  0.0844 -0.0139
41367DOD     C167920  13.459  14.809   5.648 -0.0382  0.2676 -0.2198
41367DOD     C267921  13.391  15.105   6.034  0.2187  0.0458 -0.1267
41367DOD     C367922  13.026  15.267   6.233 -0.0596 -0.1051 -0.0348
41368DOD     C167923   2.730  21.626  21.678 -0.1467  0.1429  0.1992
41368DOD     C267924   2.618  22.026  21.726 -0.0538 -0.1580 -0.3199
41368DOD     C367925   2.371  22.386  21.585 -0.0729  0.1425  0.1761
41369DOD     C167926  20.887   8.691  18.148 -0.0459 -0.4344  0.1456
41369DOD     C267927  21.007   9.093  18.001  0.0519  0.1708  0.2401
41369DOD     C367928  21.176   9.488  17.750  0.1861  0.3916 -0.0736
41370DOD     C167929  20.640  29.367  27.170  0.3789 -0.1732  0.0731
41370DOD     C267930  20.619  29.011  27.472  0.0652  0.2561 -0.0442
41370DOD     C367931  20.561  28.541  27.630  0.1753  0.0676  0.4610
41371DOD     C167932  13.130   6.070  19.667 -0.1631 -0.2548 -0.0321
41371DOD     C267933  13.301   6.584  19.681  0.0029 -0.1737 -0.0637
41371DOD     C367934  12.943   6.885  19.613  0.1512  0.2004 -0.3873
41372DOD     C167935  14.137  24.737   8.610 -0.0218 -0.3179 -0.0232
41372DOD     C267936  14.220  24.369   8.834 -0.1056  0.1779  0.0309
41372DOD     C367937  14.330  23.959   9.105 -0.3755 -0.0160 -0.4038
41373DOD     C167938  20.958  16.801  15.197 -0.1097  0.2692  0.0530
41373DOD     C267939  20.775  17.191  15.393 -0.0630 -0.3546  0.2827
41373DOD     C367940  20.403  17.470  15.468  0.2460  0.2022 -0.4097
41374DOD     C167941   2.179   2.136  22.083  0.0022 -0.3654  0.0480
41374DOD     C267942   1.984   2.504  21.875  0.0859 -0.1333 -0.0988
41374DOD     C367943   1.961   2.698  21.455 -0.0282 -0.2155 -0.0332
41375DOD     C167944  19.999   3.307   5.181 -0.1630  0.2428  0.1191
41375DOD     C267945  19.575   3.265   4.942  0.0974  0.3876  0.1924
41375DOD     C367946  19.584   3.048   4.484  0.1094 -0.0772 -0.0737
41376DOD     C167947  11.463  16.555  11.953 -0.0765  0.1539  0.2298
41376DOD     C267948  11.788  16.550  12.225  0.0455 -0.2049 -0.1983
41376DOD     C367949  12.117  16.348  12.562  0.0790  0.2115 -0.0503
41377DOD     C167950   9.604  27.344  10.871 -0.0145  0.1669  0.1391
41377DOD     C267951   9.313  27.496  10.555 -0.3336 -0.1536  0.0332
41377DOD     C367952   9.273  27.420  10.024 -0.1201  0.1972 -0.0023
41378DOD     C167953  26.495  20.799  12.038 -0.0245  0.1051  0.3314
41378DOD     C267954  26.067  21.020  11.935 -0.0873 -0.0240 -0.3446
41378DOD     C367955  25.662  20.970  11.756  0.2758  0.0579  0.4254
41379DOD     C167956   5.073   1.155   1.931  0.3385 -0.0617 -0.0749
41379DOD     C267957   5.253   1.008   1.515  0.0395 -0.3280 -0.3532
41379DOD     C367958   5.690   1.075   1.399 -0.0672 -0.2409  0.2439
41380DOD     C167959  27.156  27.718   6.639 -0.2314 -0.1220 -0.0884
41380DOD     C267960  27.535  27.499   6.725  0.1861 -0.0537  0.2922
41380DOD     C367961  27.736  27.197   6.978 -0.2708 -0.0104  0.0767
41381DOD     C167962  23.288  14.824   7.609 -0.0989 -0.0852  0.2086
41381DOD     C267963  23.581  14.545   7.702  0.2954 -0.2548  0.2393
41381DOD     C367964  23.898  14.258   7.688  0.1804 -0.1271  0.1423
41382DOD     C167965  10.838  12.719   7.594 -0.1101  0.1394 -0.1669
41382DOD     C267966  10.570  13.070   7.761  0.1963  0.3916 -0.0778
41382DOD     C367967  10.206  13.187   7.925 -0.2379 -0.0081 -0.0303
41383DOD     C167968   3.731   0.474  16.950 -0.2443 -0.4454  0.1704
41383DOD     C267969   4.160   0.320  16.864  0.7643  0.1590  0.0474
41383DOD     C367970   4.432  30.277  16.673 -0.1910  0.0742 -0.1278
41384DOD     C167971  25.757  24.492   8.648  0.2888 -0.0590 -0.0580
41384DOD     C267972  25.399  24.739   8.826 -0.1877  0.1053  0.1769
41384DOD     C367973  25.029  24.934   8.597 -0.1355 -0.0672 -0.0720
41385DOD     C167974  17.277   9.137  12.292 -0.0479 -0.1665  0.2985
41385DOD     C267975  17.715   9.149  12.501 -0.1069  0.0228  0.2187
41385DOD     C367976  18.122   9.127  12.256 -0.4908  0.0290 -0.0173
41386DOD     C167977   5.917  15.318  30.236 -0.2566 -0.1813  0.2242
41386DOD     C267978   6.323  15.106  30.251  0.1657 -0.1627 -0.0226
41386DOD     C367979   6.783  15.038   0.070  0.1207  0.1153  0.0289
41387DOD     C167980   8.095  15.236  22.125  0.4650  0.0063  0.0010
41387DOD     C267981   7.901  15.086  22.560 -0.0168  0.1386 -0.0905
41387DOD     C367982   7.927  14.598  22.647 -0.3123  0.0398 -0.2636
41388DOD     C167983  30.242  23.357   0.550  0.0599 -0.2043 -0.0173
41388DOD     C267984  30.101  22.965   0.826  0.3718 -0.0524  0.1199
41388DOD     C367985  30.222  22.519   0.776 -0.4094 -0.1017 -0.1241
41389DOD     C167986  13.966  20.449  15.212  0.0062  0.1311 -0.1600
41389DOD     C267987  13.941  20.878  15.238 -0.0613  0.0342  0.1168
41389DOD     C367988  14.085  21.248  15.479  0.0615  0.0237 -0.4287
41390DOD     C167989  29.322   4.851  28.647  0.0220  0.0706  0.1007
41390DOD     C267990  29.200   4.437  28.423  0.4546  0.2834 -0.4014
41390DOD     C367991  29.349   4.086  28.074  0.1951 -0.1329 -0.1211
41391DOD     C167992   2.166  29.522   6.986 -0.0656 -0.2687  0.0255
41391DOD     C267993   2.584  29.755   6.892  0.0878  0.0546 -0.0694
41391DOD     C367994   3.041  29.605   6.982 -0.0438  0.1437  0.1489
41392DOD     C167995  22.850  12.494  17.298 -0.0520 -0.1229  0.2532
41392DOD     C267996  22.684  12.652  16.876  0.2369  0.2041 -0.1296
41392DOD     C367997  22.307  12.799  16.583 -0.1188  0.2188 -0.1669
41393DOD     C167998  14.491  22.798  11.006  0.1602  0.2306 -0.1408
41393DOD     C267999  14.581  22.873  10.575  0.0241  0.1077  0.3402
41393DOD     C368000  14.368  22.930  10.157  0.0548  0.0606 -0.0803
41394DOD     C168001  22.897  16.696   9.896 -0.1314  0.1496  0.0411
41394DOD     C268002  22.716  16.574  10.287 -0.1301 -0.1620 -0.1655
41394DOD     C368003  22.639  16.588  10.739 -0.5287  0.3695 -0.0969
41395DOD     C168004  28.136   3.276   5.628  0.1607  0.1725  0.1196
41395DOD     C268005  27.815   3.414   5.964 -0.2062 -0.1296  0.0797
41395DOD     C368006  27.350   3.503   6.019  0.3856 -0.1837  0.1945
41396DOD     C168007  23.508  17.404  13.456 -0.2907  0.2402 -0.2446
41396DOD     C268008  23.684  17.434  13.907 -0.0700  0.1454 -0.1009
41396DOD     C368009  23.916  17.466  14.318 -0.0837 -0.1086 -0.0444
41397DOD     C168010   3.990  12.003  29.918 -0.2396  0.6804  0.1351
41397DOD     C268011   4.065  12.409  29.680  0.1891  0.0662 -0.1858
41397DOD     C368012   4.463  12.641  29.565  0.1202 -0.0118 -0.4419
41398DOD     C168013   4.568   6.402   1.458 -0.3870 -0.0277  0.0302
41398DOD     C268014   4.480   5.997   1.705  0.2943  0.3352  0.2253
41398DOD     C368015   4.348   5.613   1.954  0.5275 -0.1351  0.2485
41399DOD     C168016  28.482  30.292  22.568 -0.1629 -0.1735 -0.1395
41399DOD     C268017  28.513   0.402  22.694  0.2512  0.1335  0.0644
41399DOD     C368018  28.299   0.785  22.839  0.0626  0.0709  0.0077
41400DOD     C168019  24.199   2.446  26.457 -0.1244  0.1988  0.3408
41400DOD     C268020  24.104   2.686  26.004 -0.0914 -0.3115 -0.0299
41400DOD     C368021  23.851   2.791  25.607  0.1096  0.0583 -0.0464
41401DOD     C168022   4.330  30.214  24.088  0.1480 -0.1092  0.0646
41401DOD     C268023   4.238  29.771  24.121  0.0829  0.2428  0.3002
41401DOD     C368024   4.058  29.437  23.898  0.1359  0.0632  0.0187
41402DOD     C168025   1.571   8.020  23.091 -0.1649 -0.0081 -0.1335
41402DOD     C268026   1.833   8.386  22.938  0.0912 -0.1886 -0.2026
41402DOD     C368027   1.938   8.553  22.527  0.0797 -0.0285 -0.1890
41403DOD     C168028  13.738  29.557  30.029 -0.0965  0.0632  0.0938
41403DOD     C268029  13.796  29.267   0.080  0.0361  0.0574  0.0991
41403DOD     C368030  13.594  29.137   0.470 -0.0861  0.0637 -0.1423
41404DOD     C168031   5.387   1.233   8.910 -0.2360 -0.1246  0.1323
41404DOD     C268032   4.972   1.048   8.759 -0.4226 -0.1061  0.3192
41404DOD     C368033   4.626   0.771   8.584 -0.1828 -0.1110  0.0149
41405DOD     C168034  25.969  15.387  29.787 -0.3166 -0.1320  0.1549
41405DOD     C268035  25.891  15.041  29.441  0.0249 -0.2636  0.0550
41405DOD     C368036  25.996  14.718  29.071 -0.1578  0.0907  0.0758
41406DOD     C168037  27.948  23.483  25.387  0.2482 -0.0879 -0.3137
41406DOD     C268038  27.819  23.902  25.425  0.1847 -0.1976 -0.0651
41406DOD     C368039  27.620  24.300  25.239 -0.0894  0.2158 -0.3767
41407DOD     C168040   1.581  10.359  11.038 -0.0233 -0.1083  0.3211
41407DOD     C268041   1.666  10.024  11.284 -0.2068 -0.0270 -0.0099
41407DOD     C368042   1.687   9.542  11.366 -0.2023  0.4411  0.1577
41408DOD     C168043  18.530  17.165  22.609  0.1628 -0.2346  0.1111
41408DOD     C268044  18.897  17.398  22.802 -0.2467 -0.1928  0.3270
41408DOD     C368045  19.369  17.279  22.812  0.3302  0.0390 -0.2686
41409DOD     C168046  23.546  26.757  15.050  0.1383 -0.1456 -0.0176
41409DOD     C268047  23.764  26.433  15.253  0.3316  0.0270 -0.1279
41409DOD     C368048  24.132  26.281  15.446 -0.2333  0.0390 -0.2288
41410DOD     C168049  26.648   1.418   9.616 -0.1885  0.1233  0.0576
41410DOD     C268050  26.556   1.002   9.386 -0.0802  0.0490  0.3181
41410DOD     C368051  26.586   0.632   9.187  0.1021  0.3021  0.1732
41411DOD     C168052  29.494   4.842   0.899  0.1695 -0.1299 -0.1902
41411DOD     C268053  29.928   5.061   0.783 -0.1386  0.1933 -0.1274
41411DOD     C368054  30.133   5.415   1.072 -0.0227  0.1135 -0.0337
41412DOD     C168055   6.199   4.736  11.713  0.2785 -0.1388  0.2479
41412DOD     C268056   6.014   5.035  12.040  0.1127 -0.0809  0.1306
41412DOD     C368057   5.698   5.129  12.348  0.2676 -0.1393  0.2328
41413DOD     C168058  21.895  13.778  16.800 -0.1005 -0.0128  0.1683
41413DOD     C268059  21.597  13.847  16.464 -0.1536 -0.1927 -0.1880
41413DOD     C368060  21.302  13.909  16.088  0.0320  0.0897 -0.0179
41414DOD     C168061  13.104  22.070   1.395  0.5192  0.1439 -0.2284
41414DOD     C268062  13.267  22.123   1.807 -0.0347  0.1454  0.0482
41414DOD     C368063  13.577  22.248   2.151  0.0041  0.1298 -0.2352
41415DOD     C168064  14.840   2.788  17.145  0.0262 -0.1427 -0.1927
41415DOD     C268065  14.415   2.690  17.095 -0.1703 -0.1725  0.0672
41415DOD     C368066  14.097   2.788  17.389 -0.1054 -0.1063 -0.0547
41416DOD     C168067   7.109   2.676   4.650 -0.0387 -0.0580 -0.2488
41416DOD     C268068   7.153   2.243   4.562 -0.1066 -0.0723 -0.1352
41416DOD     C368069   7.099   1.750   4.568 -0.0327 -0.3796  0.1638
41417DOD     C168070  16.195  13.583  16.306  0.1749 -0.0668  0.0664
41417DOD     C268071  16.319  13.494  15.839  0.0653  0.1763 -0.0886
41417DOD     C368072  16.612  13.181  15.756  0.0134  0.1605 -0.3281
41418DOD     C168073  12.786  19.965  12.563  0.2246 -0.0599  0.0454
41418DOD     C268074  12.413  19.802  12.739 -0.0634 -0.1498 -0.1406
41418DOD     C368075  12.237  20.129  12.907  0.1435 -0.0572  0.0548
41419DOD     C168076  29.783  14.987  11.377  0.1502  0.2703  0.1797
41419DOD     C268077  30.276  15.053  11.508 -0.2118 -0.2170  0.0460
41419DOD     C368078   0.141  15.345  11.793 -0.0716 -0.0265  0.0250
41420DOD     C168079   9.380  21.288  14.281 -0.2737  0.4209 -0.1583
41420DOD     C268080   9.294  21.152  13.850 -0.0438  0.4575 -0.1761
41420DOD     C368081   9.245  20.733  13.592 -0.0015 -0.1598 -0.2354
41421DOD     C168082  17.936  28.565  11.773  0.0456 -0.1297 -0.0467
41421DOD     C268083  18.304  28.459  11.979 -0.1153 -0.1543 -0.0439
41421DOD     C368084  18.638  28.135  11.984  0.0599 -0.1064  0.1899
41422DOD     C168085  27.015   5.596  11.266  0.0842  0.1085  0.1595
41422DOD     C268086  27.349   5.263  11.200 -0.0536 -0.0101 -0.1410
41422DOD     C368087  27.542   4.795  11.286 -0.2901  0.3023 -0.2623
41423DOD     C168088  26.120  14.706  27.015 -0.1256 -0.1196 -0.2160
41423DOD     C268089  26.345  14.311  26.812  0.0361 -0.2691  0.0612
41423DOD     C368090  26.163  14.015  26.510  0.4764 -0.1137 -0.0976
41424DOD     C168091   0.787   7.498   0.558 -0.0848  0.1804 -0.0829
41424DOD     C268092   0.711   7.917   0.776 -0.3362 -0.2765  0.0768
41424DOD     C368093   1.036   8.136   1.046 -0.0833  0.0921  0.3618
41425DOD     C168094  18.669   6.580  27.264 -0.1685  0.1574 -0.1047
41425DOD     C268095  18.555   7.036  27.378 -0.1378  0.1811 -0.2374
41425DOD     C368096  18.358   7.470  27.244 -0.0966  0.1253 -0.2960
41426DOD     C168097  22.952  17.036  23.723  0.0088  0.3488 -0.3357
41426DOD     C268098  23.186  16.888  24.061  0.2054 -0.0423  0.2000
41426DOD     C368099  23.317  16.668  24.445  0.0426  0.2067 -0.0194
41427DOD     C168100  24.295  12.394  10.814  0.0429 -0.1214 -0.1078
41427DOD     C268101  24.293  12.181  11.249  0.0696  0.1504 -0.1030
41427DOD     C368102  24.220  11.858  11.581 -0.0227 -0.1452  0.0827
41428DOD     C168103  24.830  22.914  19.024  0.0721  0.0943  0.0421
41428DOD     C268104  24.453  23.140  19.088 -0.1337  0.0397  0.3573
41428DOD     C368105  24.093  23.507  19.055  0.5002  0.0060 -0.0102
41429DOD     C168106  17.634   9.381  11.189  0.1879 -0.3372 -0.0821
41429DOD     C268107  17.692   9.567  11.569 -0.1582  0.1405 -0.1327
41429DOD     C368108  18.082   9.402  11.841 -0.1328  0.0232 -0.0490
41430DOD     C168109  16.085  29.175  22.655 -0.1340  0.1632 -0.0689
41430DOD     C268110  16.286  29.542  22.835  0.0112  0.6293  0.4690
41430DOD     C368111  16.178  29.918  23.033  0.0143 -0.1110  0.3155
41431DOD     C168112  26.023   3.600   2.339 -0.1823  0.0215  0.0964
41431DOD     C268113  25.770   3.224   2.156  0.0039  0.1915  0.0030
41431DOD     C368114  25.589   2.973   1.856  0.0659 -0.2184  0.0824
41432DOD     C168115  20.566   5.683  12.052 -0.0596  0.1030 -0.1345
41432DOD     C268116  21.002   5.790  12.162 -0.1507  0.1742 -0.0008
41432DOD     C368117  21.219   5.772  12.550  0.1168 -0.1084 -0.1232
41433DOD     C168118  18.991   9.960  25.432  0.1830 -0.2088 -0.0394
41433DOD     C268119  18.956   9.754  25.027  0.0800  0.2825 -0.1730
41433DOD     C368120  18.941   9.533  24.649  0.2426 -0.0081 -0.0106
41434DOD     C168121  14.489  28.858   1.866 -0.0019 -0.0350 -0.0531
41434DOD     C268122  14.097  28.839   1.675  0.0140 -0.3560  0.0340
41434DOD     C368123  13.811  29.238   1.802 -0.2583 -0.1406 -0.0991
41435DOD     C168124  13.793  15.879   5.964  0.0665  0.2909 -0.0531
41435DOD     C268125  13.564  16.242   6.166  0.0805 -0.2578 -0.0844
41435DOD     C368126  13.255  16.468   6.398  0.0236  0.0979 -0.3728
41436DOD     C168127  10.006  13.096   6.132  0.2400 -0.0606 -0.2077
41436DOD     C268128  10.222  12.669   5.971  0.0272  0.2855 -0.1470
41436DOD     C368129  10.551  12.437   5.778 -0.1459  0.1189 -0.1593
41437DOD     C168130  23.240  18.792   4.919  0.1161  0.0312  0.1310
41437DOD     C268131  23.000  18.933   5.218  0.1025 -0.2318 -0.0050
41437DOD     C368132  22.613  19.207   5.358  0.0596  0.1188  0.0750
41438DOD     C168133  26.118  30.087  29.631 -0.0172  0.0867  0.2007
41438DOD     C268134  25.796   0.059  29.587  0.4305  0.0133  0.0670
41438DOD     C368135  25.387   0.131  29.473 -0.1923  0.2609 -0.2185
41439DOD     C168136  23.561  28.580  16.878  0.5396 -0.0876  0.0389
41439DOD     C268137  23.327  28.985  16.881 -0.1637  0.0789 -0.0234
41439DOD     C368138  23.328  29.302  16.506 -0.0972  0.1607  0.2364
41440DOD     C168139  17.589  20.233   5.375  0.0063 -0.0927 -0.1503
41440DOD     C268140  17.968  20.263   5.661 -0.0490  0.0922  0.1097
41440DOD     C368141  18.416  20.311   5.824 -0.0834 -0.0535 -0.3690
41441DOD     C168142  13.662  15.936  19.345  0.0591  0.1176  0.0433
41441DOD     C268143  13.451  16.190  19.037  0.0367 -0.0824 -0.1029
41441DOD     C368144  13.065  16.419  18.835  0.0163  0.1049  0.0184
41442DOD     C168145   5.949  23.540   9.477  0.1687  0.2045 -0.0656
41442DOD     C268146   5.744  23.360   9.129 -0.1857  0.4274 -0.2105
41442DOD     C368147   5.851  23.105   8.771  0.2755 -0.0246  0.0582
41443DOD     C168148  11.642  28.129  25.438  0.0809 -0.1619  0.1773
41443DOD     C268149  11.324  28.361  25.671 -0.0664  0.1900  0.0579
41443DOD     C368150  10.972  28.712  25.551 -0.4483 -0.1483 -0.2586
41444DOD     C168151   4.984   7.437  14.142  0.1307  0.1835 -0.0056
41444DOD     C268152   5.320   7.719  14.099  0.0357  0.1585  0.0413
41444DOD     C368153   5.739   7.840  14.256  0.3289  0.1383 -0.1195
41445DOD     C168154  14.028  20.539  11.237  0.1697  0.1368 -0.0723
41445DOD     C268155  13.955  20.444  11.713  0.0890 -0.1314 -0.0372
41445DOD     C368156  13.727  20.403  12.109  0.0913 -0.1794 -0.0281
41446DOD     C168157   6.972  21.936  19.561  0.2039  0.1202 -0.0060
41446DOD     C268158   6.755  21.835  19.924 -0.1790  0.1582 -0.2458
41446DOD     C368159   6.580  21.978  20.322  0.3443  0.3066 -0.0773
41447DOD     C168160   4.703  12.060   9.121 -0.0613 -0.1206 -0.0076
41447DOD     C268161   4.476  11.669   9.073  0.3492 -0.2222 -0.1213
41447DOD     C368162   4.544  11.306   8.787 -0.4448  0.0502  0.0302
41448DOD     C168163  15.690  17.004   7.418  0.2462  0.0451 -0.1484
41448DOD     C268164  15.234  16.971   7.405 -0.1563  0.2534  0.0752
41448DOD     C368165  14.856  16.767   7.248  0.0578  0.0100  0.0779
41449DOD     C168166  12.365  29.500   2.059  0.2505 -0.2491 -0.1978
41449DOD     C268167  12.436  29.233   2.426  0.0333  0.0199  0.1475
41449DOD     C368168  12.211  29.144   2.840 -0.2526 -0.2616 -0.2300
41450DOD     C168169  28.636  26.425  24.247  0.3645  0.2900  0.2229
41450DOD     C268170  28.582  26.767  24.558  0.0486  0.0182 -0.1019
41450DOD     C368171  28.397  27.137  24.767  0.0503  0.0947 -0.1311
41451DOD     C168172  12.123  20.942  17.481  0.1844 -0.1611  0.0518
41451DOD     C268173  12.137  21.234  17.086 -0.0001  0.0125 -0.0668
41451DOD     C368174  12.019  21.687  16.898 -0.2774 -0.1246 -0.0999
41452DOD     C168175  17.839  14.403  12.260 -0.2250  0.1098 -0.0596
41452DOD     C268176  17.835  13.999  12.055 -0.0817 -0.0813  0.0087
41452DOD     C368177  18.133  13.721  12.032 -0.1498 -0.1845 -0.1479
41453DOD     C168178  24.566  30.141   9.530 -0.1581 -0.0603  0.0680
41453DOD     C268179  24.236  30.065   9.200 -0.0860  0.0020 -0.2819
41453DOD     C368180  23.935  29.765   9.059  0.0278 -0.2036 -0.2241
41454DOD     C168181   3.319  26.566  23.584  0.0416  0.0804 -0.0326
41454DOD     C268182   3.520  26.234  23.342 -0.0197 -0.1422 -0.2299
41454DOD     C368183   3.355  25.925  23.070  0.1812 -0.1007 -0.1181
41455DOD     C168184  10.301  12.309  28.381 -0.0236 -0.1805  0.1970
41455DOD     C268185  10.685  12.136  28.432  0.2703  0.2543 -0.3297
41455DOD     C368186  11.109  11.907  28.496  0.0785 -0.0529  0.2774
41456DOD     C168187  10.465  12.978   5.675 -0.3766  0.2283 -0.1519
41456DOD     C268188  10.720  13.056   5.341  0.0185 -0.0885 -0.3231
41456DOD     C368189  10.809  12.765   5.010 -0.1215 -0.0252 -0.1402
41457DOD     C168190  26.182  10.922   3.525  0.3353 -0.0884  0.1386
41457DOD     C268191  26.170  10.649   3.122  0.1965 -0.1831 -0.1702
41457DOD     C368192  25.973  10.694   2.664  0.3629  0.0010 -0.2087
41458DOD     C168193  24.611  24.786  15.487 -0.0590 -0.3679  0.1948
41458DOD     C268194  24.983  24.980  15.745  0.1035 -0.4116 -0.0020
41458DOD     C368195  25.293  24.978  16.060  0.2268  0.0704 -0.1142
41459DOD     C168196  26.159  14.134   1.882 -0.1670  0.2714 -0.1447
41459DOD     C268197  26.501  13.882   2.156  0.1695  0.1661  0.4943
41459DOD     C368198  26.729  13.473   2.067  0.2765  0.2879 -0.2171
41460DOD     C168199   9.752   8.286   8.583 -0.1294 -0.1207  0.0035
41460DOD     C268200   9.965   8.332   8.187  0.2922  0.1550 -0.0601
41460DOD     C368201  10.365   8.548   8.244  0.0384  0.1956 -0.3250
41461DOD     C168202  16.311  18.338  10.646 -0.0861 -0.0773  0.1529
41461DOD     C268203  16.097  18.773  10.611 -0.2190 -0.1749  0.0710
41461DOD     C368204  16.080  19.245  10.439  0.3177  0.0213 -0.0399
41462DOD     C168205  10.275  10.758  24.742  0.1475 -0.0868 -0.0558
41462DOD     C268206   9.871  10.997  24.804 -0.0537  0.2586 -0.2485
41462DOD     C368207   9.599  11.182  25.160  0.0343  0.2858  0.0434
41463DOD     C168208   2.749  24.372  19.755 -0.0932  0.2611 -0.0242
41463DOD     C268209   2.663  24.393  20.215  0.0389 -0.0412  0.3537
41463DOD     C368210   2.360  24.676  20.496 -0.1053 -0.0994  0.4942
41464DOD     C168211   8.736   6.370   5.455 -0.0471 -0.1150  0.4769
41464DOD     C268212   8.860   6.340   5.891 -0.0332 -0.0467 -0.2511
41464DOD     C368213   8.790   6.548   6.364  0.0948  0.1243 -0.1062
41465DOD     C168214   7.833   3.213   7.128 -0.3374 -0.1869  0.0530
41465DOD     C268215   7.438   2.924   7.066  0.0378 -0.2996  0.0847
41465DOD     C368216   7.148   2.598   6.915 -0.1913  0.1489 -0.1027
41466DOD     C168217  19.224  25.357  14.788 -0.2434  0.1826  0.0563
41466DOD     C268218  19.081  25.221  15.197 -0.0551 -0.0357 -0.1303
41466DOD     C368219  18.978  25.339  15.605 -0.4027  0.2089 -0.1347
41467DOD     C168220   5.750  16.327  24.401  0.1138 -0.0797  0.1452
41467DOD     C268221   5.296  16.200  24.210 -0.4985 -0.3124 -0.1481
41467DOD     C368222   5.091  16.187  23.788 -0.1172  0.0692 -0.1320
41468DOD     C168223  24.868  25.597   4.818 -0.0222  0.0540  0.0576
41468DOD     C268224  24.984  25.809   5.226  0.4674  0.2689  0.2078
41468DOD     C368225  25.262  26.069   5.444  0.0600  0.4419 -0.0635
41469DOD     C168226   6.029   6.094   5.183 -0.0020  0.0826 -0.1868
41469DOD     C268227   5.599   6.084   5.028 -0.0692 -0.0534  0.2930
41469DOD     C368228   5.342   5.712   4.953 -0.1439  0.1677  0.0661
41470DOD     C168229  22.635  16.200   8.177  0.1089  0.0658  0.1469
41470DOD     C268230  23.044  16.332   8.220  0.2413  0.0237  0.1069
41470DOD     C368231  23.227  16.710   8.306 -0.0246  0.1803  0.1211
41471DOD     C168232   3.064   5.360   1.490 -0.0304  0.2652  0.0130
41471DOD     C268233   3.128   4.954   1.687  0.0705  0.1322  0.3431
41471DOD     C368234   3.404   4.651   1.938  0.1309  0.2601 -0.0873
41472DOD     C168235   0.694  19.293  14.307  0.0180  0.1141  0.0216
41472DOD     C268236   0.444  19.637  14.220  0.0693 -0.1698 -0.1615
41472DOD     C368237   0.334  19.773  13.849 -0.0859  0.0408 -0.3259
41473DOD     C168238  14.343  22.422  18.817 -0.0079  0.0325  0.0474
41473DOD     C268239  14.674  22.642  18.982 -0.0352 -0.0868 -0.2449
41473DOD     C368240  14.886  23.033  18.944 -0.1932 -0.0773 -0.0001
41474DOD     C168241  29.693  12.884  17.538 -0.3013 -0.0593 -0.1042
41474DOD     C268242  29.324  12.795  17.718  0.0260  0.2379  0.2061
41474DOD     C368243  28.935  12.569  17.968  0.0657 -0.0292  0.1899
41475DOD     C168244   3.471   7.151  15.396 -0.1213  0.2987  0.1388
41475DOD     C268245   3.246   6.795  15.271  0.0533 -0.1017  0.1648
41475DOD     C368246   2.875   6.528  15.283  0.0650  0.1003 -0.0554
41476DOD     C168247  11.097  10.451  11.604 -0.3355 -0.1272 -0.1383
41476DOD     C268248  10.948  10.170  11.924 -0.0747  0.1061 -0.0469
41476DOD     C368249  10.910  10.007  12.308  0.1134 -0.0735  0.0649
41477DOD     C168250  17.808  10.160   0.967 -0.0852 -0.0491 -0.2661
41477DOD     C268251  18.223  10.291   0.834 -0.2820  0.0078 -0.1719
41477DOD     C368252  18.601  10.201   0.592  0.1428  0.0084 -0.0116
41478DOD     C168253   6.959  29.284  26.856 -0.1470  0.0790 -0.3218
41478DOD     C268254   6.494  29.381  26.891 -0.3343  0.0186  0.0256
41478DOD     C368255   6.089  29.573  27.073  0.0908  0.2844 -0.0409
41479DOD     C168256  25.321  25.234  29.515 -0.1884 -0.0158  0.1076
41479DOD     C268257  25.029  24.827  29.446  0.1878  0.6623 -0.0254
41479DOD     C368258  25.031  24.422  29.614 -0.2828 -0.2522  0.0290
41480DOD     C168259   1.891  15.112  28.413  0.1020  0.0858  0.2363
41480DOD     C268260   2.105  14.777  28.188 -0.2899  0.2117 -0.0309
41480DOD     C368261   2.389  14.428  28.341  0.0312  0.0069 -0.0424
41481DOD     C168262  15.193  28.512   6.411  0.0143  0.0616  0.4217
41481DOD     C268263  15.488  28.834   6.471 -0.1228 -0.0939 -0.1729
41481DOD     C368264  15.657  29.263   6.661 -0.0557 -0.1661  0.0750
41482DOD     C168265   3.364  23.586  24.390  0.0315  0.0043 -0.0015
41482DOD     C268266   3.512  24.023  24.415 -0.0321 -0.1170 -0.2109
41482DOD     C368267   3.777  24.418  24.487  0.0393  0.0201  0.3343
41483DOD     C168268  27.747  27.682  10.919  0.4217  0.0707  0.1134
41483DOD     C268269  27.747  27.406  10.528  0.0272 -0.1608  0.1098
41483DOD     C368270  28.019  27.270  10.152  0.1360  0.1442  0.1904
41484DOD     C168271  29.237  18.655   3.018 -0.2297  0.1976 -0.2515
41484DOD     C268272  29.371  18.817   3.461  0.2102 -0.0461 -0.0152
41484DOD     C368273  29.766  18.939   3.737 -0.1862 -0.2845  0.2204
41485DOD     C168274  27.924  20.990  28.928 -0.1702  0.2016  0.1309
41485DOD     C268275  28.049  21.435  28.885  0.0502  0.1979 -0.0003
41485DOD     C368276  27.785  21.836  28.862 -0.1131  0.3937 -0.1934
41486DOD     C168277  16.552  18.351   9.449 -0.2023  0.3234  0.1993
41486DOD     C268278  16.948  18.100   9.376  0.0618 -0.2884  0.2787
41486DOD     C368279  17.379  17.933   9.257 -0.1003 -0.1243 -0.1529
41487DOD     C168280  11.994  25.186  21.864  0.0685  0.0658 -0.1863
41487DOD     C268281  12.017  25.155  22.369  0.0273 -0.0219 -0.0057
41487DOD     C368282  11.867  25.088  22.803  0.0776  0.0046 -0.3220
41488DOD     C168283  20.546  13.661  16.219 -0.2021  0.2110  0.1230
41488DOD     C268284  20.295  13.281  16.202  0.0582  0.0350  0.0387
41488DOD     C368285  19.977  12.971  16.003 -0.0862 -0.2412  0.1423
41489DOD     C168286   3.064  17.286  13.902 -0.0002 -0.0451  0.1935
41489DOD     C268287   2.627  17.153  13.735  0.0646  0.0816 -0.1507
41489DOD     C368288   2.376  17.096  13.379 -0.1008 -0.1021  0.0435
41490DOD     C168289  20.170   7.806   0.355  0.0396 -0.1794 -0.1031
41490DOD     C268290  19.859   7.479   0.121 -0.2775 -0.0692  0.0142
41490DOD     C368291  19.911   7.009   0.106  0.3271 -0.0660 -0.0176
41491DOD     C168292  27.117  26.640   0.936 -0.0138  0.2892  0.0873
41491DOD     C268293  27.134  27.038   0.673 -0.0389 -0.1814  0.0333
41491DOD     C368294  26.838  27.119   0.313 -0.1736 -0.1444 -0.0731
41492DOD     C168295   6.088   2.840  25.719  0.3123  0.0297  0.3181
41492DOD     C268296   6.127   2.513  25.383 -0.0421 -0.1532 -0.0679
41492DOD     C368297   6.041   2.213  25.031  0.4756 -0.2391 -0.2112
41493DOD     C168298   3.967   0.704   7.946  0.1618 -0.3812  0.0309
41493DOD     C268299   3.701   0.438   7.659  0.2208 -0.0148 -0.0483
41493DOD     C368300   3.590   0.388   7.190  0.3576  0.1253  0.0895
41494DOD     C168301  15.223  10.503   3.075  0.1319  0.1656  0.0601
41494DOD     C268302  14.727  10.583   3.148  0.0357 -0.0284  0.2316
41494DOD     C368303  14.383  10.316   2.903  0.0968  0.0154 -0.1926
41495DOD     C168304  11.566  13.733  21.940  0.2216 -0.1164 -0.1122
41495DOD     C268305  11.123  13.541  21.844  0.3343 -0.1331  0.1411
41495DOD     C368306  10.764  13.352  21.646  0.2773  0.0249  0.1166
41496DOD     C168307  27.238  21.914  18.264  0.0402 -0.0743 -0.0444
41496DOD     C268308  27.238  21.696  18.625 -0.2179 -0.2283  0.0833
41496DOD     C368309  26.958  21.737  19.004 -0.1345  0.1287  0.0610
41497DOD     C168310  12.029  25.915   5.671  0.0081 -0.1162 -0.1256
41497DOD     C268311  12.316  25.940   6.006  0.0527  0.0047  0.0211
41497DOD     C368312  12.707  26.073   6.198 -0.0678  0.1765 -0.3231
41498DOD     C168313  21.388  28.190  23.350  0.1196 -0.2905 -0.4121
41498DOD     C268314  21.023  28.315  23.695  0.0012  0.1437  0.1140
41498DOD     C368315  20.751  28.466  24.100  0.2719  0.1233 -0.2505
41499DOD     C168316  11.674  28.434  21.445 -0.3199  0.0074  0.3413
41499DOD     C268317  11.819  28.233  21.802  0.3824  0.0029  0.2263
41499DOD     C368318  11.847  28.239  22.301  0.0280 -0.0175 -0.0682
41500DOD     C168319   1.530   3.683   9.459  0.1104 -0.1197 -0.0259
41500DOD     C268320   1.716   4.123   9.305 -0.1298 -0.1022 -0.0795
41500DOD     C368321   1.726   4.526   9.523 -0.0219  0.0355 -0.4002
41501DOD     C168322  29.628  10.274   6.400 -0.0470 -0.1175 -0.0797
41501DOD     C268323  29.923  10.105   6.113  0.2322  0.2087  0.2652
41501DOD     C368324   0.025  10.135   5.906 -0.2109  0.0028 -0.1892
41502DOD     C168325  15.749  22.811  21.817 -0.3447  0.2199 -0.2510
41502DOD     C268326  15.501  22.434  21.948  0.2366 -0.0142 -0.3433
41502DOD     C368327  15.119  22.130  21.841  0.0500  0.0363 -0.2271
41503DOD     C168328  11.842   9.932  22.497  0.0214  0.1256  0.2560
41503DOD     C268329  11.516   9.663  22.385  0.0248 -0.0915  0.0638
41503DOD     C368330  11.236   9.328  22.503  0.3549  0.1281 -0.0477
41504DOD     C168331  10.938  12.196  19.496  0.1741 -0.0355  0.1756
41504DOD     C268332  11.299  11.976  19.282  0.1044  0.1215 -0.3146
41504DOD     C368333  11.650  11.837  18.978 -0.0428 -0.3115 -0.1952
41505DOD     C168334  27.042  22.335   0.490 -0.2977  0.0537  0.0955
41505DOD     C268335  27.193  22.587   0.846  0.2218  0.2501 -0.1865
41505DOD     C368336  27.526  22.595   1.197  0.2077 -0.1247 -0.0696
41506DOD     C168337   9.982  23.973  18.045  0.1462  0.0281  0.0184
41506DOD     C268338   9.793  24.090  17.633 -0.0784 -0.1137 -0.0737
41506DOD     C368339   9.891  24.415  17.263  0.0284  0.2683  0.0013
41507DOD     C168340  19.251   6.247  15.730  0.1619  0.3818  0.0845
41507DOD     C268341  19.505   5.861  15.871 -0.0657 -0.5448 -0.0332
41507DOD     C368342  19.722   5.788  16.295  0.0880 -0.0652 -0.0445
41508DOD     C168343  23.596  12.602  14.204 -0.0464 -0.1208  0.0081
41508DOD     C268344  23.960  12.649  13.943 -0.0989  0.2498  0.0746
41508DOD     C368345  24.449  12.618  13.988  0.0533  0.0055  0.1215
41509DOD     C168346  16.152   2.879  28.196  0.1375  0.0141 -0.0488
41509DOD     C268347  16.395   2.991  27.755 -0.4584 -0.0741 -0.1079
41509DOD     C368348  16.402   3.263  27.322  0.0611 -0.0234 -0.1252
41510DOD     C168349  15.740  16.253   5.458  0.2568  0.0500 -0.0962
41510DOD     C268350  16.095  16.027   5.253 -0.2061 -0.1431 -0.1309
41510DOD     C368351  16.234  15.899   4.764  0.2015 -0.2239  0.0171
41511DOD     C168352  18.854  21.601  15.768 -0.0864  0.0160 -0.0388
41511DOD     C268353  18.515  21.590  16.106 -0.1076 -0.1066  0.0545
41511DOD     C368354  18.140  21.878  16.069 -0.3172 -0.2658 -0.0357
41512DOD     C168355  13.360  27.709   4.736 -0.1359  0.1436  0.1729
41512DOD     C268356  12.937  27.918   4.724  0.3787 -0.0098  0.1509
41512DOD     C368357  12.737  28.317   4.655 -0.1038  0.0999  0.3522
41513DOD     C168358  30.342   3.286   3.754  0.2118 -0.0218 -0.1966
41513DOD     C268359   0.479   3.320   3.614 -0.0244  0.1257 -0.3294
41513DOD     C368360   0.754   3.490   3.932 -0.0271 -0.3831  0.2545
41514DOD     C168361  14.214   2.688   8.514 -0.0118 -0.2066  0.1406
41514DOD     C268362  14.365   3.129   8.541  0.1189  0.0273  0.0157
41514DOD     C368363  14.246   3.554   8.442 -0.1070  0.0074 -0.0628
41515DOD     C168364  17.685  26.779   9.456 -0.0681  0.1195  0.3556
41515DOD     C268365  18.148  26.841   9.337 -0.2352 -0.0327  0.2089
41515DOD     C368366  18.341  27.147   8.969 -0.1581 -0.1883  0.0623
41516DOD     C168367  11.937  11.130  10.128  0.1989  0.2484  0.1026
41516DOD     C268368  11.895  10.664   9.996  0.1385 -0.0845  0.1826
41516DOD     C368369  11.829  10.176   9.990  0.0327 -0.2094  0.0267
41517DOD     C168370   8.121  19.156  19.910 -0.2068  0.3897  0.0124
41517DOD     C268371   8.364  19.423  20.211  0.0978  0.0255 -0.1011
41517DOD     C368372   8.370  19.469  20.669 -0.2352 -0.1131  0.1351
41518DOD     C168373  23.139  21.925   9.254  0.2066  0.0204  0.3469
41518DOD     C268374  23.346  21.648   8.966 -0.2179 -0.0115 -0.0734
41518DOD     C368375  23.630  21.357   8.785  0.1638  0.1059  0.1479
41519DOD     C168376  29.855   1.172  24.137 -0.0110 -0.1941 -0.0061
41519DOD     C268377  30.160   0.884  24.303 -0.0929  0.1265 -0.2089
41519DOD     C368378   0.190   0.515  24.300 -0.3144  0.0242 -0.1054
41520DOD     C168379   3.110  25.184  20.003 -0.0937  0.0476  0.0412
41520DOD     C268380   3.196  25.088  20.476  0.3835  0.3015  0.1164
41520DOD     C368381   3.552  24.911  20.732  0.1757  0.1442  0.2023
41521DOD     C168382   0.943  12.223  20.071  0.0412 -0.1212  0.1286
41521DOD     C268383   0.745  11.912  20.338 -0.1530  0.0006 -0.1172
41521DOD     C368384   0.466  11.764  20.711  0.0485  0.2458 -0.0757
41522DOD     C168385  25.319  24.090  20.430  0.0794  0.3773  0.1525
41522DOD     C268386  24.932  24.284  20.273  0.0880 -0.1360 -0.1735
41522DOD     C368387  24.484  24.348  20.184 -0.1749 -0.1304  0.0987
41523DOD     C168388   1.453  18.843  17.220  0.0550 -0.0347  0.2071
41523DOD     C268389   1.661  18.445  17.260  0.1558 -0.2733 -0.1103
41523DOD     C368390   1.937  18.096  17.291 -0.0433 -0.0508  0.0705
41524DOD     C168391  11.664   4.483  23.714 -0.2143 -0.1044  0.0093
41524DOD     C268392  11.329   4.451  23.319 -0.1032 -0.1201 -0.3363
41524DOD     C368393  11.407   4.497  22.891  0.0934  0.2692 -0.0405
41525DOD     C168394   7.932  20.062   0.135 -0.0223  0.2299  0.2290
41525DOD     C268395   8.269  19.799   0.254 -0.1022  0.1277 -0.2922
41525DOD     C368396   8.435  19.421   0.054 -0.0360  0.1746 -0.0162
41526DOD     C168397  10.648  12.189  16.683  0.0627  0.0932  0.1328
41526DOD     C268398  10.700  12.057  16.202 -0.1502  0.1991 -0.3128
41526DOD     C368399  10.792  11.902  15.775 -0.1890  0.0158  0.0735
41527DOD     C168400   3.055   3.674   9.387  0.1036  0.3783  0.0130
41527DOD     C268401   3.410   3.398   9.228  0.2537  0.0946  0.0319
41527DOD     C368402   3.471   3.132   8.892  0.1102 -0.0768 -0.2738
41528DOD     C168403   3.873  22.757  19.359  0.0083  0.1384 -0.2494
41528DOD     C268404   4.192  22.444  19.347  0.0125 -0.0385 -0.2741
41528DOD     C368405   4.598  22.385  19.532  0.0619  0.0705  0.1902
41529DOD     C168406  26.434  10.466  13.301  0.1355 -0.0522 -0.0069
41529DOD     C268407  26.541  10.308  13.772  0.0264 -0.1793  0.1195
41529DOD     C368408  26.737  10.127  14.176 -0.2174  0.0834 -0.1932
41530DOD     C168409   4.729  29.538   8.114 -0.1322 -0.2891  0.0644
41530DOD     C268410   5.205  29.577   8.090  0.4446 -0.2980 -0.2228
41530DOD     C368411   5.445  29.584   7.672 -0.2011 -0.1607  0.0718
41531DOD     C168412  25.930  28.681   3.761  0.0522  0.0169  0.1390
41531DOD     C268413  26.360  28.740   3.679  0.2164 -0.2578 -0.0534
41531DOD     C368414  26.620  29.093   3.801  0.0924  0.0642 -0.1439
41532DOD     C168415  20.684  18.403   6.929  0.1226  0.0189 -0.2701
41532DOD     C268416  20.629  18.742   6.600  0.4088  0.0294 -0.0562
41532DOD     C368417  20.377  19.131   6.456  0.1501 -0.1249 -0.2202
41533DOD     C168418   3.092  17.402  26.804  0.3932  0.1082  0.2850
41533DOD     C268419   3.046  17.548  26.354  0.1034  0.1156 -0.1269
41533DOD     C368420   2.863  17.733  25.968 -0.4007 -0.3886 -0.0253
41534DOD     C168421  13.930   7.684   5.893 -0.2989  0.1037 -0.1786
41534DOD     C268422  13.801   8.115   5.697  0.6043  0.0958 -0.2139
41534DOD     C368423  14.066   8.463   5.531  0.0974 -0.0247 -0.1072
41535DOD     C168424   7.610  23.363  24.260  0.2226  0.0183 -0.0581
41535DOD     C268425   7.618  23.847  24.281 -0.1045  0.0032  0.1997
41535DOD     C368426   7.743  24.249  24.041  0.0069 -0.4948 -0.0291
41536DOD     C168427   0.797   9.195  22.718 -0.1150 -0.1420  0.0176
41536DOD     C268428   1.057   9.400  23.040  0.0745  0.0449  0.2457
41536DOD     C368429   1.282   9.524  23.385  0.0795  0.2731  0.0996
41537DOD     C168430  17.413  21.716   6.339 -0.0138 -0.1008 -0.1188
41537DOD     C268431  16.994  21.887   6.264  0.1476  0.0973  0.0224
41537DOD     C368432  16.703  22.252   6.186 -0.1529  0.0123 -0.0100
41538DOD     C168433  23.873  19.026  17.510 -0.0977 -0.1249 -0.0029
41538DOD     C268434  23.836  18.608  17.399 -0.2108 -0.2456  0.1692
41538DOD     C368435  23.521  18.415  17.251  0.0532  0.0747  0.0313
41539DOD     C168436  19.328   1.783  25.967  0.1146 -0.2477  0.1934
41539DOD     C268437  19.015   2.119  25.968 -0.0315  0.0304 -0.1754
41539DOD     C368438  18.675   2.280  25.736  0.0544  0.1711  0.0530
41540DOD     C168439  10.770  27.085  27.294  0.1250 -0.5255 -0.3074
41540DOD     C268440  11.024  27.400  27.572 -0.0208 -0.0229 -0.0813
41540DOD     C368441  11.322  27.411  27.905 -0.2189 -0.1249  0.0663
41541DOD     C168442   6.739   3.316   8.920  0.1937  0.1600 -0.0791
41541DOD     C268443   6.967   3.385   8.533  0.3142 -0.1032 -0.1482
41541DOD     C368444   7.208   3.293   8.181 -0.3050 -0.2522 -0.1335
41542DOD     C168445  25.278   2.482  29.757 -0.0960  0.1752 -0.0991
41542DOD     C268446  24.990   2.804  30.011 -0.1463  0.0767 -0.0179
41542DOD     C368447  24.515   2.824  30.126  0.0471  0.0977 -0.1394
41543DOD     C168448  29.903   3.632  16.467  0.3112  0.0971 -0.3623
41543DOD     C268449  30.202   3.390  16.226 -0.3555  0.2707  0.1157
41543DOD     C368450  30.298   3.008  15.961  0.1683 -0.0903  0.0443
41544DOD     C168451  20.311  30.010  11.807 -0.2910  0.1046 -0.1302
41544DOD     C268452  20.188  29.628  12.079  0.1467 -0.1123 -0.1059
41544DOD     C368453  20.162  29.192  12.207 -0.0916 -0.2272  0.2015
41545DOD     C168454  22.315  12.994  24.194  0.2036 -0.0218 -0.0285
41545DOD     C268455  22.749  12.963  24.351  0.3388 -0.2129  0.1742
41545DOD     C368456  23.159  13.048  24.536 -0.0282  0.3143 -0.1081
41546DOD     C168457  29.280   1.196  23.265  0.2726  0.1287  0.0806
41546DOD     C268458  28.812   1.247  23.311 -0.1770 -0.3724 -0.1396
41546DOD     C368459  28.393   1.160  23.307  0.0437 -0.0420 -0.0485
41547DOD     C168460  21.170   7.169   7.165  0.0584 -0.0220  0.0827
41547DOD     C268461  21.084   7.165   6.723  0.0627  0.2283  0.3183
41547DOD     C368462  21.023   6.733   6.513  0.3627  0.1663  0.3658
41548DOD     C168463  28.579  27.755  10.565 -0.0515 -0.3128  0.1679
41548DOD     C268464  29.007  27.706  10.595 -0.0923  0.0679 -0.1772
41548DOD     C368465  29.268  27.367  10.403  0.0482  0.0042 -0.0183
41549DOD     C168466  11.403   0.360  15.833  0.1303 -0.4429 -0.1996
41549DOD     C268467  11.102   0.141  15.650  0.0643  0.2792  0.0024
41549DOD     C368468  11.025  29.945  15.530  0.2027 -0.0035  0.0181
41550DOD     C168469  22.406  13.961  16.819 -0.5207 -0.0953  0.0926
41550DOD     C268470  22.747  13.655  16.928 -0.1215  0.0054  0.1645
41550DOD     C368471  23.186  13.481  17.045 -0.0724 -0.0578  0.0750
41551DOD     C168472  11.939  29.969  15.154 -0.2026 -0.0721  0.0032
41551DOD     C268473  12.082  29.495  15.069  0.0141  0.0050  0.2877
41551DOD     C368474  12.361  29.435  14.785 -0.0484 -0.2035 -0.1907
41552DOD     C168475  13.286  29.245  22.323 -0.1322  0.0206 -0.0401
41552DOD     C268476  13.488  28.959  22.090 -0.3993 -0.1846 -0.1442
41552DOD     C368477  13.638  28.586  21.867  0.1294  0.1120  0.2690
41553DOD     C168478  27.279  10.262   6.287  0.3077 -0.0297 -0.2313
41553DOD     C268479  26.790  10.362   6.307  0.1111 -0.1074  0.0660
41553DOD     C368480  26.579  10.644   6.656  0.1047 -0.1641  0.0942
41554DOD     C168481   5.845  29.627   9.835 -0.2459  0.0835  0.1210
41554DOD     C268482   5.942  29.298   9.530 -0.0160  0.1826 -0.0852
41554DOD     C368483   5.816  28.953   9.270 -0.1889 -0.2142  0.1597
41555DOD     C168484  13.614   3.639   8.469 -0.1782  0.0884 -0.0681
41555DOD     C268485  13.868   3.912   8.276 -0.0160 -0.1626  0.1594
41555DOD     C368486  14.102   4.204   8.096  0.2360 -0.3651  0.0644
41556DOD     C168487  25.522  14.505  25.633 -0.0658 -0.1172 -0.2799
41556DOD     C268488  25.901  14.383  25.452 -0.0474  0.2414  0.0581
41556DOD     C368489  26.282  14.088  25.371  0.0829 -0.3152 -0.0498
41557DOD     C168490  28.732  20.624   3.735  0.0073 -0.0207  0.0768
41557DOD     C268491  29.008  20.731   3.390  0.0980  0.0584  0.2088
41557DOD     C368492  29.242  20.665   3.023 -0.1215  0.2618  0.0193
41558DOD     C168493   3.290  17.951  17.731 -0.2914  0.0765 -0.3136
41558DOD     C268494   3.521  17.950  18.185  0.2500  0.1205 -0.1790
41558DOD     C368495   3.453  18.271  18.517  0.0084  0.0822  0.2595
41559DOD     C168496  24.995  21.966  17.576 -0.0125 -0.2312  0.0253
41559DOD     C268497  24.502  21.929  17.674 -0.0215  0.2717 -0.3052
41559DOD     C368498  24.062  21.796  17.626  0.1083 -0.0112 -0.0348
41560DOD     C168499  26.341  27.812  15.027 -0.2282  0.1502 -0.0878
41560DOD     C268500  26.380  28.258  14.843  0.1008  0.3551  0.1212
41560DOD     C368501  26.163  28.653  14.916  0.0125 -0.0039  0.3991
41561DOD     C168502  11.297  12.702  11.108 -0.2608 -0.3899  0.0220
41561DOD     C268503  11.283  12.695  10.668 -0.0314  0.1589  0.4982
41561DOD     C368504  11.259  12.649  10.243  0.3056  0.2890  0.3726
41562DOD     C168505   4.636   0.139  29.336 -0.1884  0.2217  0.2787
41562DOD     C268506   4.482  30.309  29.734 -0.0673  0.1198  0.1083
41562DOD     C368507   4.353  29.913  30.024  0.2371 -0.1771  0.0007
41563DOD     C168508  11.576   2.818  26.888  0.1661  0.0493  0.0237
41563DOD     C268509  11.901   2.523  26.938 -0.2671  0.1529  0.1920
41563DOD     C368510  12.181   2.268  26.651 -0.0192  0.0374 -0.3391
41564DOD     C168511  15.799  23.360  11.295  0.1514  0.2481 -0.1387
41564DOD     C268512  16.227  23.217  11.433 -0.1694  0.2803 -0.1184
41564DOD     C368513  16.591  22.968  11.268  0.1967  0.1120 -0.5363
41565DOD     C168514   9.334   7.112   5.976 -0.0218  0.1413  0.0158
41565DOD     C268515   9.624   7.476   5.924  0.2531 -0.0757  0.1862
41565DOD     C368516  10.065   7.561   5.836  0.1934 -0.0127 -0.1057
41566DOD     C168517  10.013   1.663  15.884 -0.2910 -0.0554  0.0679
41566DOD     C268518  10.432   1.462  15.903  0.2982 -0.1265 -0.3272
41566DOD     C368519  10.836   1.494  15.735 -0.0908 -0.2916 -0.1570
41567DOD     C168520  25.803  17.645   6.020 -0.0208 -0.0074  0.3435
41567DOD     C268521  25.715  17.605   6.448  0.3531  0.1628  0.0217
41567DOD     C368522  25.807  17.700   6.869  0.0171 -0.1959 -0.1362
41568DOD     C168523   8.654   6.142  27.165  0.1659 -0.0598  0.0608
41568DOD     C268524   8.423   5.937  27.541  0.0147 -0.0789 -0.1843
41568DOD     C368525   8.144   5.569  27.635  0.1179 -0.1242  0.1882
41569DOD     C168526  24.466   3.020  27.836  0.2803 -0.0250 -0.1372
41569DOD     C268527  24.119   3.232  28.139 -0.5488  0.1066  0.1761
41569DOD     C368528  23.895   3.400  28.490  0.1396 -0.0324 -0.1681
41570DOD     C168529  15.267   0.121  25.838  0.1050  0.1503 -0.0010
41570DOD     C268530  14.902   0.100  26.089 -0.3788  0.0637  0.0388
41570DOD     C368531  14.913   0.111  26.562 -0.2501 -0.2028 -0.1608
41571DOD     C168532   3.527  27.372  15.182  0.1913  0.2521 -0.0895
41571DOD     C268533   3.803  27.031  15.025 -0.1901 -0.1768 -0.0635
41571DOD     C368534   4.098  26.745  15.189  0.3492  0.0310 -0.2274
41572DOD     C168535   5.556  22.223  27.871 -0.2506  0.0738  0.3079
41572DOD     C268536   5.260  22.570  27.927 -0.0084 -0.2651  0.2480
41572DOD     C368537   4.939  22.926  28.035  0.5929 -0.1622  0.0282
41573DOD     C168538  14.608  11.072  11.897 -0.1895 -0.0153 -0.0173
41573DOD     C268539  14.875  10.744  11.705  0.0048 -0.1737 -0.3172
41573DOD     C368540  15.068  10.320  11.815  0.0482 -0.0440  0.1756
41574DOD     C168541  26.058  28.321  25.261 -0.1651  0.0477 -0.2788
41574DOD     C268542  25.716  28.568  25.478  0.1511 -0.0690  0.2026
41574DOD     C368543  25.399  28.746  25.740 -0.1112 -0.0218 -0.0911
41575DOD     C168544   3.511  12.890   2.854 -0.1977 -0.0281  0.0211
41575DOD     C268545   3.812  12.676   3.111  0.2317  0.0695 -0.0905
41575DOD     C368546   4.179  12.727   3.385  0.1206 -0.0315  0.1804
41576DOD     C168547   1.432  18.680   7.648  0.2407  0.0417  0.2437
41576DOD     C268548   1.497  18.507   8.131 -0.4105  0.3104  0.0137
41576DOD     C368549   1.339  18.350   8.532  0.3085  0.0398 -0.1688
41577DOD     C168550   4.997   1.419  29.969  0.0251  0.1607 -0.1755
41577DOD     C268551   5.171   1.089  -0.037  0.1887 -0.0721 -0.1532
41577DOD     C368552   5.253   0.662   0.095  0.2016  0.2644  0.1381
41578DOD     C168553  19.089  19.103   8.496 -0.2584 -0.0959  0.2912
41578DOD     C268554  18.793  19.375   8.271 -0.1409  0.2348  0.2371
41578DOD     C368555  18.326  19.326   8.324 -0.0116  0.1170 -0.1133
41579DOD     C168556  27.709   2.178  27.875  0.1207 -0.0108  0.2760
41579DOD     C268557  27.286   2.113  27.998 -0.0458  0.1677  0.1571
41579DOD     C368558  26.988   1.933  27.625  0.0253  0.1147 -0.0022
41580DOD     C168559  28.631   1.406  14.507 -0.1171  0.1600 -0.1174
41580DOD     C268560  28.590   1.852  14.487  0.4597  0.0489 -0.2304
41580DOD     C368561  28.811   2.214  14.492 -0.1006  0.2199  0.1548
41581DOD     C168562   9.128  10.310  14.256 -0.0431 -0.1233  0.0528
41581DOD     C268563   9.599  10.310  14.256 -0.1935 -0.2646  0.1853
41581DOD     C368564  10.053  10.336  14.129 -0.1058 -0.4611 -0.3042
41582DOD     C168565   6.811  24.470   8.735  0.1754  0.0828 -0.1382
41582DOD     C268566   6.677  24.144   8.429  0.0937 -0.3164  0.1495
41582DOD     C368567   6.466  24.007   8.044  0.0615 -0.0312 -0.0012
41583DOD     C168568   9.770  26.897  23.485  0.0131 -0.2178 -0.1110
41583DOD     C268569  10.129  26.597  23.396 -0.0749  0.1750  0.1618
41583DOD     C368570  10.202  26.389  22.965 -0.1329  0.3812 -0.0235
41584DOD     C168571  28.080   8.909   5.021 -0.3360 -0.0515  0.0788
41584DOD     C268572  28.555   9.083   5.127  0.0738  0.0765 -0.0155
41584DOD     C368573  28.963   9.363   5.210  0.1446 -0.0706 -0.4126
41585DOD     C168574  18.546   2.472   9.566 -0.2871 -0.1896  0.0244
41585DOD     C268575  18.780   2.390   9.958  0.0650 -0.2387 -0.1031
41585DOD     C368576  19.251   2.290  10.035 -0.0047 -0.1657  0.1309
41586DOD     C168577   2.290  28.157  20.689 -0.1212 -0.3342 -0.1244
41586DOD     C268578   2.049  28.542  20.804 -0.2337  0.1777  0.0789
41586DOD     C368579   1.726  28.895  20.965 -0.0297  0.0442  0.2116
41587DOD     C168580   8.639  15.658  10.686  0.0339  0.4679 -0.0669
41587DOD     C268581   8.424  15.355  10.388  0.6822 -0.0492 -0.1943
41587DOD     C368582   7.976  15.356  10.388  0.1065  0.3045  0.1051
41588DOD     C168583  26.385   7.190  22.019 -0.4321  0.0877 -0.3227
41588DOD     C268584  26.622   6.791  22.090  0.0840 -0.6413  0.2943
41588DOD     C368585  26.883   6.565  22.451 -0.2949  0.0479 -0.2112
41589DOD     C168586  22.175  19.593  27.329  0.1629 -0.0728 -0.0162
41589DOD     C268587  22.057  19.232  27.076 -0.0390 -0.0227 -0.0605
41589DOD     C368588  21.838  18.983  26.707 -0.0741  0.2824 -0.2683
41590DOD     C168589  14.377  12.545   5.571  0.2747  0.0651 -0.1602
41590DOD     C268590  14.457  12.948   5.754 -0.1789  0.1078  0.1965
41590DOD     C368591  14.294  13.344   6.008  0.0611 -0.0043  0.0342
41591DOD     C168592  17.756  15.814  22.431 -0.1285 -0.1293  0.0137
41591DOD     C268593  17.333  16.034  22.592  0.0314  0.1611 -0.0774
41591DOD     C368594  17.137  16.277  22.922  0.2667 -0.2145  0.2578
41592DOD     C168595   8.345   1.045  24.335 -0.0475 -0.0684 -0.2090
41592DOD     C268596   8.696   1.149  24.612  0.1205  0.0475  0.1642
41592DOD     C368597   9.167   1.035  24.565 -0.1874  0.1463 -0.0923
41593DOD     C168598   6.870  16.867  23.796 -0.0493 -0.0936  0.0761
41593DOD     C268599   6.562  17.165  23.557 -0.0177  0.2511 -0.2153
41593DOD     C368600   6.251  17.426  23.261  0.1369  0.1189 -0.0702
41594DOD     C168601  13.333  26.353  11.600 -0.1075 -0.1011  0.1020
41594DOD     C268602  13.298  26.560  11.994 -0.4067  0.0604 -0.0066
41594DOD     C368603  13.069  26.826  12.329 -0.2837  0.2627 -0.2088
41595DOD     C168604   6.642   2.782  10.714  0.0609 -0.3634  0.1665
41595DOD     C268605   6.726   2.370  10.426 -0.0610 -0.2590 -0.0183
41595DOD     C368606   6.641   1.945  10.519  0.2941  0.1602  0.0338
41596DOD     C168607   2.153  14.687   6.245 -0.2662 -0.0202  0.2708
41596DOD     C268608   2.265  14.875   6.609  0.3701  0.1758  0.0325
41596DOD     C368609   2.443  14.744   7.029  0.3859  0.1908  0.3132
41597DOD     C168610  29.245   9.451  14.339 -0.1789  0.3606  0.0525
41597DOD     C268611  29.251   9.065  14.594 -0.2152 -0.1782 -0.1189
41597DOD     C368612  29.323   8.672  14.817  0.2570 -0.0571  0.3131
41598DOD     C168613  22.411  26.911   7.432  0.1239  0.1510  0.1866
41598DOD     C268614  22.471  27.027   7.910 -0.4387  0.0730 -0.0369
41598DOD     C368615  22.839  26.903   8.178 -0.0330 -0.0106 -0.0402
41599DOD     C168616  17.114  25.770  19.359 -0.0792  0.0092 -0.2203
41599DOD     C268617  17.132  25.424  19.134  0.0898  0.2703  0.0305
41599DOD     C368618  16.860  24.973  19.080  0.2048  0.1584 -0.0580
41600DOD     C168619   6.040  29.386  20.059 -0.3054 -0.1532  0.0310
41600DOD     C268620   6.321  29.115  19.748 -0.2380 -0.3358 -0.0189
41600DOD     C368621   6.692  28.777  19.671  0.1075 -0.4077 -0.0397
41601DOD     C168622  29.847  12.225  24.593 -0.0797  0.2416  0.0870
41601DOD     C268623  29.912  12.658  24.422 -0.1560 -0.3509  0.2246
41601DOD     C368624  29.602  12.912  24.142 -0.0581  0.0870 -0.2398
41602DOD     C168625   2.692  16.971  29.220 -0.2355 -0.1361 -0.0279
41602DOD     C268626   2.726  17.009  28.779  0.1210 -0.1172 -0.2571
41602DOD     C368627   2.905  16.820  28.371 -0.0146  0.0301 -0.3389
41603DOD     C168628  21.846  12.548  12.488 -0.2154  0.0041 -0.1429
41603DOD     C268629  21.798  12.983  12.290 -0.0530  0.1108 -0.0937
41603DOD     C368630  21.630  13.366  12.078  0.4251  0.1818  0.4516
41604DOD     C168631  12.077  23.517   6.516  0.1712  0.1510  0.1114
41604DOD     C268632  12.413  23.501   6.800  0.3373  0.3529 -0.0620
41604DOD     C368633  12.545  23.733   7.253  0.1835 -0.3669 -0.1975
41605DOD     C168634  23.949   9.746   0.412  0.0658  0.2897  0.1282
41605DOD     C268635  24.047   9.505   0.767  0.1677 -0.0045  0.0402
41605DOD     C368636  24.249   9.130   0.635 -0.0819  0.0202  0.0524
41606DOD     C168637  21.276  15.198   8.080 -0.1905 -0.0268  0.0664
41606DOD     C268638  21.077  14.830   8.328  0.0100 -0.4125 -0.1015
41606DOD     C368639  20.710  14.846   8.623  0.0449  0.1442 -0.2807
41607DOD     C168640  16.681  12.042  12.469  0.2979 -0.2446  0.3494
41607DOD     C268641  16.496  12.457  12.391 -0.2121 -0.0372  0.0255
41607DOD     C368642  16.118  12.738  12.380 -0.1910 -0.0053  0.0017
41608DOD     C168643   3.211  21.709  17.708 -0.1410 -0.3976 -0.0825
41608DOD     C268644   2.919  21.845  18.019 -0.2371 -0.0061  0.2020
41608DOD     C368645   2.659  21.990  18.368  0.1076  0.1635 -0.1979
41609DOD     C168646   6.487  15.358  10.227  0.0295  0.0058  0.1058
41609DOD     C268647   6.749  15.508  10.535  0.2256  0.0901  0.1621
41609DOD     C368648   6.700  15.897  10.790 -0.0242 -0.2334 -0.1697
41610DOD     C168649  21.917   1.261   8.849  0.2558 -0.2260  0.3367
41610DOD     C268650  22.166   1.599   9.031  0.0781 -0.0936  0.1000
41610DOD     C368651  22.126   1.877   9.431 -0.0123  0.0526  0.1114
41611DOD     C168652   0.697   2.228   6.872  0.0477 -0.1649  0.5377
41611DOD     C268653   1.063   2.354   6.571 -0.0036 -0.2057  0.1216
41611DOD     C368654   1.083   2.270   6.180 -0.2379  0.1455  0.2351
41612DOD     C168655  18.792   7.025  14.078 -0.0180 -0.0494 -0.0578
41612DOD     C268656  18.714   7.461  13.924 -0.1348 -0.0698 -0.1037
41612DOD     C368657  18.486   7.875  13.831 -0.0180  0.0814 -0.1311
41613DOD     C168658  23.726   8.891  25.533  0.0235 -0.2787  0.0965
41613DOD     C268659  23.453   9.126  25.841 -0.1006 -0.1074  0.3379
41613DOD     C368660  23.068   9.068  26.117 -0.0079  0.0689 -0.3502
41614DOD     C168661  13.210   2.503  19.150  0.1344 -0.0202  0.0830
41614DOD     C268662  13.353   2.243  18.798 -0.1980 -0.2187  0.0371
41614DOD     C368663  13.449   2.009  18.404 -0.1797  0.1360 -0.1458
41615DOD     C168664   9.532  13.620   4.392  0.0774 -0.0230  0.1389
41615DOD     C268665   9.262  13.821   4.671  0.2051  0.0689 -0.3023
41615DOD     C368666   9.100  14.075   5.055  0.1670  0.0289  0.1019
41616DOD     C168667  25.973  11.694  13.046 -0.3224  0.1702  0.3509
41616DOD     C268668  25.639  11.956  13.190 -0.0375 -0.0645 -0.0156
41616DOD     C368669  25.309  12.195  12.995  0.2324  0.0524  0.2878
41617DOD     C168670  12.695   6.919  23.135  0.1587  0.0198  0.1559
41617DOD     C268671  12.397   6.859  23.439  0.0874 -0.2012 -0.0218
41617DOD     C368672  11.989   6.917  23.682 -0.1129  0.1975 -0.2693
41618DOD     C168673  10.871   2.473  30.051 -0.0094 -0.0250  0.3145
41618DOD     C268674  11.063   2.698   0.115  0.0185  0.0183 -0.1536
41618DOD     C368675  11.425   2.884   0.347 -0.2265 -0.1431 -0.1331
41619DOD     C168676   3.074  21.612  14.912  0.0622 -0.0103 -0.2297
41619DOD     C268677   2.869  21.230  14.985  0.1210 -0.0103  0.0423
41619DOD     C368678   2.620  20.893  14.840 -0.1704 -0.0440  0.2199
41620DOD     C168679  18.101   1.811   7.341  0.0320 -0.2345 -0.0474
41620DOD     C268680  17.837   1.771   7.679  0.0223 -0.0126  0.3027
41620DOD     C368681  17.510   1.799   7.966 -0.1572 -0.1584  0.1891
41621DOD     C168682   7.782  28.198  28.993 -0.2320 -0.1821 -0.3096
41621DOD     C268683   8.027  27.832  28.803  0.0797 -0.0710 -0.2298
41621DOD     C368684   8.427  27.638  28.805  0.0581  0.3299  0.0552
41622DOD     C168685  19.628   2.096  23.938 -0.1678 -0.1096 -0.2456
41622DOD     C268686  19.944   2.388  24.138  0.1061  0.0083  0.0917
41622DOD     C368687  19.814   2.802  24.315  0.0416  0.0593 -0.0423
41623DOD     C168688  21.454  23.823  30.300 -0.0272 -0.2891  0.0166
41623DOD     C268689  21.131  23.836  29.937  0.0242  0.3341 -0.0805
41623DOD     C368690  20.718  23.791  29.822  0.1011  0.2066  0.2184
41624DOD     C168691   9.168  22.395  13.653 -0.1949 -0.2215 -0.1453
41624DOD     C268692   9.023  22.721  13.995 -0.1861  0.1209  0.2550
41624DOD     C368693   8.886  22.580  14.454  0.0046 -0.0068 -0.1463
41625DOD     C168694  26.918  20.713  21.724 -0.1251  0.0676  0.0311
41625DOD     C268695  26.624  20.389  21.562  0.0499 -0.0509  0.0834
41625DOD     C368696  26.158  20.413  21.543 -0.2556  0.1692  0.4029
41626DOD     C168697  17.557  17.116  22.430  0.0090  0.3109  0.0904
41626DOD     C268698  17.105  16.896  22.429  0.0249 -0.3142 -0.0816
41626DOD     C368699  16.611  16.917  22.423  0.0985  0.0647 -0.0612
41627DOD     C168700   5.179   7.718  28.793 -0.1424 -0.0381 -0.5964
41627DOD     C268701   4.828   7.623  28.540  0.3814 -0.1253 -0.0259
41627DOD     C368702   4.426   7.726  28.361 -0.0902  0.0705  0.1303
41628DOD     C168703  28.246  29.768   1.704  0.2676  0.2111  0.2689
41628DOD     C268704  28.661  30.008   1.793  0.1999  0.3946  0.1067
41628DOD     C368705  29.199  30.019   1.832  0.1738  0.2047 -0.1125
41629DOD     C168706   5.852  15.211   5.906  0.1982  0.0172  0.1926
41629DOD     C268707   6.112  14.806   5.943 -0.2552 -0.1215 -0.0322
41629DOD     C368708   6.545  14.638   5.901 -0.1198  0.2070  0.0751
41630DOD     C168709  20.914  19.127   8.004  0.1130 -0.3711 -0.2536
41630DOD     C268710  20.725  19.125   8.433 -0.0459 -0.1198 -0.2166
41630DOD     C368711  20.540  18.807   8.707  0.1601  0.2740  0.1505
41631DOD     C168712   0.200  14.377  19.043 -0.0997 -0.0118  0.0577
41631DOD     C268713   0.392  14.653  19.333 -0.1883  0.1682  0.1058
41631DOD     C368714   0.417  14.733  19.742 -0.0822 -0.1034 -0.0749
41632DOD     C168715  10.628   2.175   9.554 -0.1159 -0.0108 -0.1136
41632DOD     C268716  10.523   1.766   9.350 -0.1667  0.3281 -0.0682
41632DOD     C368717  10.375   1.375   9.078 -0.0040 -0.1638 -0.2777
41633DOD     C168718  16.204  14.629  20.445  0.0244  0.1592  0.1652
41633DOD     C268719  15.848  14.344  20.529  0.1835  0.0887  0.0629
41633DOD     C368720  15.484  14.086  20.522  0.0056 -0.0410  0.3966
41634DOD     C168721   5.082   3.237  12.168 -0.2245  0.1622  0.3404
41634DOD     C268722   5.088   3.134  11.686 -0.3987  0.2784  0.1833
41634DOD     C368723   5.162   3.339  11.144 -0.0355  0.0928 -0.0590
41635DOD     C168724   5.615  27.650  20.107  0.0639 -0.0108 -0.1243
41635DOD     C268725   5.269  27.872  20.018  0.1678 -0.2274  0.0561
41635DOD     C368726   5.062  27.949  19.562  0.0721  0.1391  0.0938
41636DOD     C168727   1.513   5.726  15.597 -0.2842  0.3260  0.0119
41636DOD     C268728   1.252   5.793  16.004 -0.1170  0.1193 -0.1533
41636DOD     C368729   1.036   6.041  16.318  0.1693 -0.0329  0.0110
41637DOD     C168730   8.749  23.226  15.768 -0.0118  0.1084  0.1063
41637DOD     C268731   8.408  22.953  15.958 -0.1589 -0.4287 -0.0425
41637DOD     C368732   7.993  22.731  15.925 -0.1048  0.0845  0.0405
41638DOD     C168733  26.872  21.317   2.110  0.3594  0.1690 -0.2905
41638DOD     C268734  27.125  21.628   1.944 -0.1972  0.3982  0.0695
41638DOD     C368735  27.379  22.046   2.112  0.0510 -0.0042  0.0360
41639DOD     C168736  22.600   4.893  26.191  0.1254  0.0171 -0.0550
41639DOD     C268737  22.344   5.253  26.400 -0.0178  0.2102 -0.1602
41639DOD     C368738  22.265   5.464  26.818  0.2639 -0.2565 -0.0157
41640DOD     C168739   6.945  11.886  28.473  0.3324  0.1746  0.0517
41640DOD     C268740   7.187  11.826  28.861 -0.3832  0.0442  0.2370
41640DOD     C368741   7.051  11.637  29.241 -0.0300 -0.0617 -0.2833
41641DOD     C168742  21.798  21.470  27.441  0.2479  0.0970  0.1908
41641DOD     C268743  21.851  21.945  27.477  0.2724 -0.1190 -0.3246
41641DOD     C368744  22.002  22.381  27.448  0.1756  0.0169  0.0489
41642DOD     C168745  18.073  27.347   9.997 -0.1111  0.1410 -0.0342
41642DOD     C268746  18.228  27.027  10.322 -0.1710 -0.2106 -0.0986
41642DOD     C368747  18.115  26.595  10.215  0.0481 -0.3331 -0.1158
41643DOD     C168748  20.054   6.378  10.978  0.0877  0.2298  0.2366
41643DOD     C268749  20.144   6.261  11.390 -0.1970 -0.0183  0.1034
41643DOD     C368750  20.276   5.898  11.626  0.2934  0.0799  0.0643
41644DOD     C168751  23.633   3.195   4.836 -0.1174  0.0098  0.0237
41644DOD     C268752  23.780   3.438   4.450 -0.1367  0.2760 -0.0339
41644DOD     C368753  23.833   3.833   4.294  0.0772 -0.0721  0.3344
41645DOD     C168754  11.610  24.684  23.932  0.1622  0.1061  0.0643
41645DOD     C268755  11.633  24.230  24.106 -0.0921 -0.0627 -0.3365
41645DOD     C368756  11.577  23.822  23.901  0.1102  0.0029 -0.0980
41646DOD     C168757  21.821  20.602  16.664  0.1430 -0.0013 -0.0476
41646DOD     C268758  21.816  21.040  16.464 -0.0763 -0.2370  0.2636
41646DOD     C368759  21.926  21.455  16.361 -0.2294  0.1138 -0.0921
41647DOD     C168760   5.956  22.414  22.908  0.2058  0.1612  0.0450
41647DOD     C268761   6.362  22.242  22.822  0.0000  0.1054  0.1173
41647DOD     C368762   6.743  22.487  22.954  0.0513 -0.0143 -0.1171
41648DOD     C168763  23.897  19.466  21.821 -0.2336  0.0356 -0.0456
41648DOD     C268764  23.894  19.126  22.120 -0.2458  0.0662  0.2325
41648DOD     C368765  23.595  18.710  22.185 -0.3534 -0.2548 -0.0115
41649DOD     C168766  18.699  18.575  21.322 -0.0423  0.0299 -0.2492
41649DOD     C268767  18.489  18.265  21.613 -0.0461 -0.2611 -0.3159
41649DOD     C368768  18.709  17.934  21.871 -0.1218  0.0937  0.1653
41650DOD     C168769   9.535  10.860  28.999 -0.0126 -0.0694  0.0985
41650DOD     C268770   9.905  10.756  29.313 -0.0921  0.0468 -0.2263
41650DOD     C368771  10.380  10.724  29.321  0.1159 -0.0886  0.0634
41651DOD     C168772  14.646  17.753  29.940 -0.0296 -0.2063 -0.1133
41651DOD     C268773  14.277  17.747  29.661 -0.0653  0.1496  0.0380
41651DOD     C368774  13.874  17.791  29.408  0.0072  0.2836 -0.3633
41652DOD     C168775  25.481  14.355  10.436 -0.2677 -0.2860 -0.2736
41652DOD     C268776  25.063  14.200  10.517 -0.2059  0.0788  0.3806
41652DOD     C368777  24.636  14.208  10.684 -0.2192  0.3928 -0.0688
41653DOD     C168778  20.071  13.413  29.847 -0.0935 -0.1044 -0.0941
41653DOD     C268779  20.109  13.785  29.567 -0.1712  0.1757  0.1377
41653DOD     C368780  20.191  14.243  29.649  0.0765  0.1805 -0.0753
41654DOD     C168781   7.162   8.278  20.602  0.0896 -0.5149 -0.1292
41654DOD     C268782   7.101   8.324  21.053 -0.4534 -0.0937 -0.1205
41654DOD     C368783   7.004   8.191  21.479 -0.1075  0.0486 -0.0310
41655DOD     C168784  10.518  11.678   6.081  0.1329  0.1404  0.0784
41655DOD     C268785  10.667  11.919   5.659 -0.0420  0.2059  0.0254
41655DOD     C368786  11.039  12.042   5.297  0.1337  0.2488 -0.1333
41656DOD     C168787   6.003  26.535  14.539  0.2165  0.0296 -0.1056
41656DOD     C268788   5.936  26.506  15.034  0.2849  0.1494 -0.0355
41656DOD     C368789   5.980  26.495  15.505 -0.0722  0.2026 -0.0284
41657DOD     C168790  23.770  27.700  10.655 -0.0777  0.1185  0.0772
41657DOD     C268791  23.325  27.758  10.509 -0.0628 -0.0731 -0.0966
41657DOD     C368792  23.000  27.623  10.217  0.3025 -0.2330 -0.1563
41658DOD     C168793  17.329  18.737   1.649  0.1639 -0.1412 -0.1004
41658DOD     C268794  17.102  18.775   2.046  0.0936 -0.0314  0.3211
41658DOD     C368795  17.231  18.922   2.410 -0.1411 -0.1134 -0.4049
41659DOD     C168796  11.270  11.384  28.412 -0.0501  0.1655  0.1392
41659DOD     C268797  11.358  11.106  28.804  0.1431  0.1740  0.1683
41659DOD     C368798  11.258  10.691  28.917  0.0565  0.1772 -0.1573
41660DOD     C168799  19.845  29.275  13.414  0.0390 -0.3567  0.3898
41660DOD     C268800  20.237  28.982  13.248  0.0491 -0.3762 -0.0465
41660DOD     C368801  20.121  28.584  13.005  0.0745  0.0612  0.1536
41661DOD     C168802  12.765  27.969  19.069  0.0421 -0.0553  0.0299
41661DOD     C268803  12.849  27.872  19.495  0.5433 -0.1955 -0.2853
41661DOD     C368804  13.032  27.731  19.956  0.1754 -0.1657  0.6276
41662DOD     C168805  19.344  28.434   5.433 -0.2870  0.0913 -0.2279
41662DOD     C268806  19.609  28.699   5.161  0.3583  0.1404 -0.0571
41662DOD     C368807  19.605  29.159   5.106  0.1514  0.0604 -0.0715
41663DOD     C168808  25.146  13.244  23.282  0.2227 -0.0685 -0.2271
41663DOD     C268809  25.187  12.846  23.495  0.0441 -0.2210 -0.0299
41663DOD     C368810  25.463  12.442  23.610  0.2133 -0.2605  0.1020
41664DOD     C168811  26.900  17.071  30.203  0.1545  0.0377 -0.0249
41664DOD     C268812  26.648  17.262  29.846  0.0525  0.0001 -0.0645
41664DOD     C368813  26.686  17.415  29.382 -0.0396  0.3419  0.0058
41665DOD     C168814  27.595  23.380  28.696 -0.1947  0.2311  0.0912
41665DOD     C268815  27.832  23.005  28.672  0.0822  0.1477 -0.3353
41665DOD     C368816  28.211  22.680  28.631  0.0398  0.1118  0.2226
41666DOD     C168817   6.200   0.422  18.167 -0.0648  0.0224 -0.1121
41666DOD     C268818   6.288   0.279  17.738 -0.0399 -0.1208  0.1358
41666DOD     C368819   6.088   0.366  17.300 -0.1408  0.0289  0.3685
41667DOD     C168820  14.542  19.677  26.010  0.0114 -0.0498 -0.0699
41667DOD     C268821  14.920  19.400  25.882 -0.1237 -0.3114  0.1955
41667DOD     C368822  15.082  18.969  25.842  0.0143  0.1441 -0.0889
41668DOD     C168823  11.338  10.063   5.983 -0.2776  0.2726 -0.0366
41668DOD     C268824  11.496  10.362   6.301  0.0742  0.0016  0.1457
41668DOD     C368825  11.501  10.788   6.572  0.1444  0.3887  0.1208
41669DOD     C168826  15.730   5.379   2.881 -0.1052 -0.1996 -0.2518
41669DOD     C268827  15.252   5.269   2.815  0.1347 -0.2765  0.4926
41669DOD     C368828  15.124   4.973   2.555  0.2306 -0.0827  0.2924
41670DOD     C168829  15.646  22.439  13.216 -0.3835  0.1866 -0.3347
41670DOD     C268830  15.308  22.683  13.224 -0.1186  0.1773 -0.0915
41670DOD     C368831  14.902  22.780  13.122 -0.3433  0.0983  0.0886
41671DOD     C168832  25.472  27.149   9.131 -0.0709  0.1835 -0.2672
41671DOD     C268833  25.424  27.186   9.638 -0.4037 -0.1742 -0.0197
41671DOD     C368834  25.181  27.377  10.045 -0.1454  0.1234  0.2008
41672DOD     C168835  15.043  14.452  21.128  0.0589  0.1930  0.1039
41672DOD     C268836  15.149  14.818  21.263  0.0194 -0.0032  0.3385
41672DOD     C368837  15.559  15.087  21.278 -0.0585  0.1160  0.1445
41673DOD     C168838  10.372  29.677   4.118  0.1328  0.0659  0.0957
41673DOD     C268839  10.640  29.654   3.745 -0.0932 -0.1188  0.1906
41673DOD     C368840  11.041  29.641   3.504  0.3237 -0.0174 -0.2953
41674DOD     C168841  29.643  25.385  20.471  0.3053 -0.1791 -0.0052
41674DOD     C268842  29.355  25.618  20.186  0.0008 -0.0398 -0.3864
41674DOD     C368843  29.078  25.989  20.173 -0.0297  0.1679  0.2241
41675DOD     C168844  10.372  27.127   1.702 -0.2726  0.1784 -0.0846
41675DOD     C268845  10.756  27.393   1.833 -0.1313 -0.3531 -0.1680
41675DOD     C368846  11.188  27.642   1.729 -0.0526 -0.1577 -0.0962
41676DOD     C168847  17.556  22.539  28.383 -0.3625  0.3688 -0.1516
41676DOD     C268848  17.506  22.165  28.143  0.1139 -0.1101  0.0503
41676DOD     C368849  17.289  21.761  27.962  0.0250  0.1741 -0.0839
41677DOD     C168850  22.239  18.318   7.779 -0.1845  0.3491  0.0382
41677DOD     C268851  22.303  17.926   8.086  0.0549  0.2241 -0.0593
41677DOD     C368852  22.392  17.720   8.507  0.3090 -0.1328  0.1002
41678DOD     C168853  12.199  20.862  10.635 -0.2066 -0.2236 -0.1796
41678DOD     C268854  11.998  20.492  10.819 -0.1017  0.0310 -0.0411
41678DOD     C368855  11.657  20.209  10.779 -0.2096 -0.1078 -0.4403
41679DOD     C168856  21.064   9.103  21.804  0.1279  0.1608 -0.0689
41679DOD     C268857  20.989   8.672  21.937  0.1981  0.2668 -0.0572
41679DOD     C368858  20.758   8.446  21.621  0.1091 -0.0389  0.0426
41680DOD     C168859   4.712  12.317   4.828 -0.3163  0.0906  0.2816
41680DOD     C268860   4.470  12.656   4.645  0.1957 -0.0337  0.0055
41680DOD     C368861   4.613  12.861   4.241 -0.1521 -0.1438  0.0738
41681DOD     C168862   2.270   7.649  16.239 -0.0850 -0.0669 -0.0691
41681DOD     C268863   1.924   7.610  15.936 -0.3861 -0.1387  0.0443
41681DOD     C368864   1.517   7.620  15.712  0.1375  0.1329 -0.0508
41682DOD     C168865   2.351   9.069   5.854 -0.0202 -0.0902 -0.0629
41682DOD     C268866   2.542   9.110   5.425 -0.0211 -0.4404 -0.2783
41682DOD     C368867   2.639   9.358   5.023 -0.1307 -0.0608  0.1322
41683DOD     C168868  20.639   9.917   4.075  0.0726 -0.1169 -0.2799
41683DOD     C268869  20.614  10.134   4.475 -0.0349  0.0569 -0.0433
41683DOD     C368870  20.958  10.466   4.679  0.0729 -0.1697  0.0514
41684DOD     C168871   5.617  10.560   8.893  0.0079  0.0842  0.0683
41684DOD     C268872   5.633  11.067   8.941 -0.2108 -0.1767 -0.1522
41684DOD     C368873   5.614  11.492   8.795  0.0042  0.2688  0.3043
41685DOD     C168874   3.085   3.036  30.184  0.2377  0.0423 -0.3848
41685DOD     C268875   2.832   2.665   0.076 -0.1692  0.1764  0.0478
41685DOD     C368876   2.502   2.426  30.119  0.3448  0.0744 -0.1593
41686DOD     C168877   9.208   5.947   0.170 -0.4447 -0.1646 -0.0514
41686DOD     C268878   9.133   6.177   0.522  0.0061  0.2902 -0.0158
41686DOD     C368879   9.247   6.487   0.841 -0.0001 -0.2296 -0.3797
41687DOD     C168880   1.122  25.144  24.625 -0.3897  0.0983 -0.1853
41687DOD     C268881   1.057  24.688  24.694 -0.0580  0.2330  0.1549
41687DOD     C368882   0.856  24.274  24.696 -0.2304 -0.1384  0.1137
41688DOD     C168883  28.285   6.921  30.065  0.2649  0.0380  0.0291
41688DOD     C268884  28.697   7.207  30.032 -0.0715  0.0888  0.1863
41688DOD     C368885  28.766   7.643  30.108  0.0791 -0.2130  0.1548
41689DOD     C168886  18.141  22.965   1.732 -0.2855  0.1895 -0.0304
41689DOD     C268887  17.939  22.578   1.544 -0.2691  0.0232  0.0404
41689DOD     C368888  18.193  22.203   1.295  0.0978  0.1460  0.0356
41690DOD     C168889  19.409  22.404  18.985 -0.2136 -0.0659 -0.3038
41690DOD     C268890  18.990  22.471  19.157  0.3515 -0.1632 -0.2187
41690DOD     C368891  18.563  22.481  19.234  0.0813  0.0291 -0.0465
41691DOD     C168892   2.498  28.971  27.257  0.2901  0.0897 -0.0638
41691DOD     C268893   2.389  29.331  27.578 -0.1910  0.0507  0.0233
41691DOD     C368894   2.497  29.560  27.950 -0.6299 -0.0684  0.2524
41692DOD     C168895  27.156  14.136  16.141 -0.0768 -0.0531  0.0288
41692DOD     C268896  27.187  14.349  15.711 -0.0586 -0.2480  0.1443
41692DOD     C368897  26.995  14.242  15.291  0.0488  0.0820  0.0762
41693DOD     C168898  26.987   7.406  16.700 -0.1640  0.1854  0.1860
41693DOD     C268899  26.991   7.236  17.119  0.0458 -0.0982 -0.0101
41693DOD     C368900  27.158   6.940  17.343  0.2329 -0.1153 -0.0089
41694DOD     C168901  19.209  13.665  15.596  0.0189  0.1363  0.1769
41694DOD     C268902  19.281  13.899  15.154  0.0510  0.3080 -0.3002
41694DOD     C368903  19.056  14.188  14.863 -0.0377 -0.1710  0.0018
41695DOD     C168904   5.318  20.868  23.738 -0.2632  0.1153 -0.1894
41695DOD     C268905   5.055  21.014  23.335 -0.0255  0.1441  0.0503
41695DOD     C368906   4.740  20.943  23.001 -0.0428 -0.0019 -0.0699
41696DOD     C168907   7.622  10.889  13.466 -0.1909  0.0074 -0.0925
41696DOD     C268908   7.969  10.598  13.696 -0.0746  0.0099  0.1009
41696DOD     C368909   8.052  10.128  13.833  0.3590  0.1957  0.0211
41697DOD     C168910   9.616  13.067  28.371 -0.0029 -0.0201  0.1718
41697DOD     C268911   9.352  12.768  28.663 -0.0059  0.4479 -0.1522
41697DOD     C368912   8.864  12.663  28.785 -0.1132 -0.0536  0.2084
41698DOD     C168913  14.201  29.384   8.599  0.3468  0.2341  0.1434
41698DOD     C268914  14.420  29.633   8.912  0.1276  0.1683 -0.1731
41698DOD     C368915  14.747  29.950   8.982 -0.1032  0.0790  0.0897
41699DOD     C168916  19.875  28.152  19.282 -0.2139  0.1046 -0.0310
41699DOD     C268917  19.821  28.096  19.750 -0.0265  0.0637  0.1825
41699DOD     C368918  19.551  27.910  20.107 -0.4651 -0.2038  0.0957
41700DOD     C168919   8.664   9.780  13.217 -0.0734  0.2604 -0.1442
41700DOD     C268920   8.389   9.605  12.864  0.0919  0.1658 -0.2516
41700DOD     C368921   8.450   9.662  12.370  0.2123 -0.0108 -0.0476
41701DOD     C168922  19.642  23.252  20.719 -0.0033 -0.3459 -0.0355
41701DOD     C268923  19.795  22.835  20.954 -0.1319 -0.4039  0.3267
41701DOD     C368924  19.810  22.404  21.112  0.1342  0.2568 -0.1674
41702DOD     C168925  22.160  28.085   3.008  0.1669 -0.1947  0.1876
41702DOD     C268926  22.257  28.378   2.671 -0.1224 -0.3438  0.1343
41702DOD     C368927  22.248  28.692   2.357 -0.1914  0.1498  0.3956
41703DOD     C168928  21.639   4.532   8.674 -0.2083  0.1143  0.0434
41703DOD     C268929  21.341   4.509   8.975  0.1402  0.3421  0.2308
41703DOD     C368930  21.251   4.198   9.295  0.0990  0.0384 -0.0176
41704DOD     C168931  18.614   1.102   4.612 -0.0270 -0.1298  0.0636
41704DOD     C268932  18.794   1.282   5.008 -0.1296 -0.0021  0.2545
41704DOD     C368933  18.809   1.300   5.459 -0.0063  0.0076  0.1393
41705DOD     C168934  26.657  11.404  18.611 -0.1327 -0.0968 -0.2188
41705DOD     C268935  27.132  11.329  18.576  0.1003 -0.1086 -0.0639
41705DOD     C368936  27.366  11.021  18.277 -0.2471  0.0483  0.2220
41706DOD     C168937  19.573  19.605   9.614 -0.1444 -0.0047 -0.0679
41706DOD     C268938  19.187  19.393   9.611 -0.0765 -0.0827 -0.1561
41706DOD     C368939  19.073  18.983   9.573 -0.0887 -0.1284 -0.2019
41707DOD     C168940  17.094  12.996  23.347  0.1928 -0.1200 -0.1215
41707DOD     C268941  17.470  13.207  23.218 -0.1789 -0.0290 -0.1782
41707DOD     C368942  17.825  13.495  23.254  0.1037  0.1439  0.2246
41708DOD     C168943  12.650   6.181  22.553  0.2023 -0.5187  0.0427
41708DOD     C268944  12.399   5.994  22.844 -0.2975  0.3519 -0.0091
41708DOD     C368945  12.440   5.504  22.901 -0.2834  0.2804  0.0314
41709DOD     C168946   3.048  16.845   2.042 -0.0828  0.0292  0.1857
41709DOD     C268947   2.898  16.562   2.393 -0.2981  0.0717  0.0672
41709DOD     C368948   2.624  16.255   2.570 -0.2033 -0.0381  0.1633
41710DOD     C168949  29.038  14.958  15.538 -0.2349 -0.0096  0.0224
41710DOD     C268950  28.747  15.096  15.218 -0.0825 -0.2786 -0.2808
41710DOD     C368951  28.558  14.976  14.856  0.1163 -0.2751  0.1992
41711DOD     C168952   6.457  20.885   2.427  0.0054 -0.2749  0.1415
41711DOD     C268953   6.469  20.853   1.983 -0.0109 -0.3393 -0.1083
41711DOD     C368954   6.322  20.961   1.574 -0.0452  0.0258 -0.1814
41712DOD     C168955   9.461  19.865   2.393  0.1600  0.3074  0.3325
41712DOD     C268956   9.656  19.462   2.533  0.1550  0.2530 -0.0186
41712DOD     C368957  10.130  19.330   2.537  0.2694  0.4584  0.0941
41713DOD     C168958  29.747  15.073  25.679 -0.1242  0.1887  0.2136
41713DOD     C268959  29.688  15.274  25.281 -0.2270  0.1446 -0.0037
41713DOD     C368960  29.830  15.708  25.125  0.2056  0.2337  0.4119
41714DOD     C168961  11.926   7.674  12.028  0.0092  0.2690 -0.0161
41714DOD     C268962  11.822   7.647  11.619  0.1012 -0.0422 -0.0250
41714DOD     C368963  11.538   7.529  11.261 -0.1520  0.0471 -0.1269
41715DOD     C168964   3.029  12.928  19.927  0.2086  0.0239  0.0256
41715DOD     C268965   3.447  13.152  19.869 -0.2091  0.1314 -0.1655
41715DOD     C368966   3.780  13.342  19.570  0.1430  0.1346  0.0194
41716DOD     C168967  27.811  17.731  23.141 -0.0616  0.0660 -0.0445
41716DOD     C268968  27.549  18.099  23.029  0.0395 -0.0177  0.1554
41716DOD     C368969  27.134  18.052  22.818 -0.0923 -0.2063  0.1627
41717DOD     C168970   9.310  26.759   5.272 -0.0888 -0.0949 -0.1081
41717DOD     C268971   9.688  26.595   5.072 -0.4863  0.1263  0.1138
41717DOD     C368972  10.058  26.430   5.290 -0.1479 -0.1961 -0.1834
41718DOD     C168973  22.885   7.453  28.867  0.2586  0.0934 -0.2293
41718DOD     C268974  22.720   7.641  29.301 -0.0124  0.2866  0.0264
41718DOD     C368975  22.826   7.846  29.675 -0.0818 -0.0441  0.4180
41719DOD     C168976  11.491   0.430  26.437 -0.0769 -0.0004 -0.0260
41719DOD     C268977  11.387  -0.041  26.481  0.1538 -0.2600  0.1109
41719DOD     C368978  10.960  30.080  26.407 -0.1254 -0.3038 -0.2901
41720DOD     C168979  14.835  13.581  21.588  0.1475 -0.1664  0.2038
41720DOD     C268980  15.266  13.705  21.476 -0.1518 -0.0776  0.0489
41720DOD     C368981  15.622  13.955  21.725 -0.1942  0.0071 -0.4367
41721DOD     C168982  24.809  18.862  19.838  0.1274 -0.2929 -0.1080
41721DOD     C268983  24.961  19.300  19.857 -0.0579  0.0184 -0.0935
41721DOD     C368984  25.069  19.730  20.104 -0.1367 -0.1714 -0.1050
41722DOD     C168985   7.344   6.011  19.039 -0.0425  0.1158  0.1968
41722DOD     C268986   7.491   5.937  18.626 -0.3740  0.0282 -0.0392
41722DOD     C368987   7.826   5.631  18.489  0.0927 -0.0084  0.1879
41723DOD     C168988  23.223   5.974  29.536 -0.1553 -0.3022 -0.0603
41723DOD     C268989  22.817   6.221  29.659  0.1195 -0.2449 -0.0669
41723DOD     C368990  22.384   6.336  29.481  0.0850 -0.2533  0.1076
41724DOD     C168991  25.710  10.579  23.482  0.1556 -0.2112 -0.1483
41724DOD     C268992  26.040  10.377  23.233 -0.1929  0.0189 -0.2922
41724DOD     C368993  26.253  10.155  22.947 -0.1491  0.2660 -0.0461
41725DOD     C168994  16.876  23.467   9.215 -0.0795 -0.0306 -0.5178
41725DOD     C268995  17.300  23.424   9.418 -0.1482  0.1962  0.1694
41725DOD     C368996  17.518  23.378   9.822  0.0980 -0.2088  0.1685
41726DOD     C168997  13.776  25.614   2.293 -0.0452 -0.0349 -0.0070
41726DOD     C268998  13.859  26.044   2.152  0.2168  0.0341  0.2888
41726DOD     C368999  14.093  26.386   1.814 -0.1352 -0.1053 -0.0046
41727DOD     C169000  21.296   2.297   5.934 -0.0956 -0.1777 -0.0995
41727DOD     C269001  21.220   2.697   6.236  0.1402  0.0510 -0.1955
41727DOD     C369002  21.206   2.836   6.663  0.1741 -0.0763  0.1918
41728DOD     C169003  18.177  21.474  15.756 -0.2525 -0.0930 -0.1585
41728DOD     C269004  18.003  21.402  16.155 -0.2634  0.0295 -0.2080
41728DOD     C369005  17.609  21.264  16.305  0.0741 -0.0624  0.0487
41729DOD     C169006   8.954  10.839  11.738 -0.0483  0.1704  0.0855
41729DOD     C269007   8.765  10.698  12.146 -0.0352  0.2711  0.1448
41729DOD     C369008   8.922  10.693  12.603  0.0105 -0.1529 -0.2366
41730DOD     C169009   0.035   9.515   9.039 -0.0759  0.1104  0.1261
41730DOD     C269010  30.081   9.741   8.678  0.3176 -0.1871 -0.0314
41730DOD     C369011  29.661   9.991   8.552 -0.1996  0.0437  0.2965
41731DOD     C169012  15.877  17.244  26.598 -0.1032  0.1263  0.1536
41731DOD     C269013  16.106  17.393  26.256 -0.1480  0.0732 -0.0860
41731DOD     C369014  16.074  17.318  25.811  0.0892 -0.0657  0.1165
41732DOD     C169015  20.831   8.378  15.269 -0.0844  0.0947  0.1936
41732DOD     C269016  20.520   8.061  15.466  0.0096  0.2276  0.0663
41732DOD     C369017  20.241   7.925  15.787  0.3003 -0.1943  0.0737
41733DOD     C169018  18.696  20.456  13.776  0.0400 -0.2758  0.1071
41733DOD     C269019  18.333  20.723  13.600  0.1712 -0.0031  0.1867
41733DOD     C369020  17.913  20.776  13.294  0.2833  0.0408 -0.1259
41734DOD     C169021   3.067  23.437  27.621 -0.1134 -0.0760  0.0253
41734DOD     C269022   2.836  23.239  27.991  0.3491  0.0789 -0.0526
41734DOD     C369023   2.554  23.305  28.383 -0.1783  0.0085  0.1273
41735DOD     C169024   5.023  18.797  27.585  0.1146  0.0449  0.0787
41735DOD     C269025   4.917  18.585  27.146 -0.1749  0.0364 -0.1812
41735DOD     C369026   4.787  18.272  26.783  0.3389 -0.1669  0.1026
41736DOD     C169027  12.682   3.141  29.966  0.2760 -0.0841  0.2865
41736DOD     C269028  12.374   2.884  30.271 -0.2280 -0.0586 -0.1174
41736DOD     C369029  11.980   2.837   0.188  0.4634 -0.2116  0.1531
41737DOD     C169030   1.474  20.630  23.675 -0.1828  0.1504  0.2138
41737DOD     C269031   1.924  20.640  23.759 -0.0276 -0.1368 -0.2470
41737DOD     C369032   1.990  20.577  24.231  0.1318 -0.2171  0.1727
41738DOD     C169033   4.438   5.634  16.377 -0.0387 -0.2106  0.0583
41738DOD     C269034   4.762   5.716  16.008  0.2228  0.2262 -0.2807
41738DOD     C369035   4.945   6.087  15.765  0.1474  0.1793 -0.0307
41739DOD     C169036   5.530  19.620  13.802 -0.1090 -0.0360 -0.0024
41739DOD     C269037   5.248  19.416  13.439  0.2531 -0.2138  0.2219
41739DOD     C369038   5.002  19.133  13.119 -0.0638  0.2303 -0.1378
41740DOD     C169039  14.666  29.412  11.432  0.1270 -0.2104 -0.2209
41740DOD     C269040  14.946  29.048  11.426  0.0417  0.1760 -0.1119
41740DOD     C369041  15.002  28.627  11.684 -0.0647  0.0816 -0.1483
41741DOD     C169042  28.606  10.214  21.960  0.0574 -0.1353 -0.1995
41741DOD     C269043  28.597  10.719  21.992  0.1965  0.1845 -0.0299
41741DOD     C369044  28.761  11.139  22.055 -0.2579 -0.1787 -0.3954
41742DOD     C169045   5.174   7.228  24.378  0.1444  0.0197 -0.1666
41742DOD     C269046   5.551   6.979  24.572  0.2559 -0.1350  0.3204
41742DOD     C369047   5.691   7.119  25.000 -0.1522 -0.1479 -0.1167
41743DOD     C169048  17.296   7.903  24.371  0.1541  0.1904 -0.1700
41743DOD     C269049  17.298   8.280  24.108  0.3504  0.0404 -0.0026
41743DOD     C369050  17.553   8.677  24.045  0.2127 -0.1520 -0.2135
41744DOD     C169051   3.910  11.685   2.933  0.0875 -0.0705  0.0792
41744DOD     C269052   3.617  11.703   3.280  0.0167  0.3244 -0.0812
41744DOD     C369053   3.338  11.685   3.709 -0.1116  0.2175 -0.0314
41745DOD     C169054   8.154  12.139  12.748  0.0544 -0.3945  0.0347
41745DOD     C269055   8.078  12.132  12.285 -0.4082 -0.0225 -0.0196
41745DOD     C369056   7.730  12.117  11.899 -0.0361  0.2149  0.2917
41746DOD     C169057  28.485  27.916  15.653 -0.1039 -0.3224 -0.1871
41746DOD     C269058  28.567  27.691  16.042  0.0052 -0.1957  0.0021
41746DOD     C369059  28.823  27.474  16.439 -0.0599 -0.1990 -0.3984
41747DOD     C169060   9.146   7.642  21.898 -0.2628  0.2327  0.1818
41747DOD     C269061   8.871   7.926  22.060 -0.0289 -0.1194 -0.1122
41747DOD     C369062   8.763   8.354  22.306  0.1387  0.1360 -0.0884
41748DOD     C169063  26.646   0.058   6.433  0.0135  0.2258 -0.0407
41748DOD     C269064  26.500  30.206   5.992 -0.0710 -0.0578  0.1917
41748DOD     C369065  26.337   0.168   5.708 -0.0067  0.0012 -0.1793
41749DOD     C169066   4.796   9.364  10.446 -0.0204 -0.1756 -0.1262
41749DOD     C269067   4.929   9.015  10.179  0.1327  0.1309 -0.2322
41749DOD     C369068   5.206   9.079   9.848  0.2002  0.2307 -0.1298
41750DOD     C169069   5.033   0.096  24.683 -0.1690  0.0887  0.2403
41750DOD     C269070   5.192   0.543  24.718 -0.0982  0.0990  0.1314
41750DOD     C369071   5.406   0.822  24.969 -0.1526  0.1965  0.0331
41751DOD     C169072  11.891   8.132  20.331 -0.0609 -0.0187  0.0192
41751DOD     C269073  12.176   8.209  20.693  0.1160  0.1887 -0.0889
41751DOD     C369074  12.461   8.574  20.855 -0.1760  0.2251 -0.3440
41752DOD     C169075  25.103  29.876  26.606  0.0661 -0.1077  0.1626
41752DOD     C269076  25.142  30.308  26.810 -0.2488  0.2151 -0.1181
41752DOD     C369077  25.000   0.338  27.093  0.1337 -0.0286  0.2945
41753DOD     C169078  24.486  26.648   2.747  0.1182 -0.2868  0.0392
41753DOD     C269079  24.478  26.500   2.332 -0.0034 -0.3833  0.1015
41753DOD     C369080  24.337  26.433   1.884 -0.0081  0.0310 -0.1233
41754DOD     C169081  12.153  13.855  10.677 -0.2025  0.2221  0.1442
41754DOD     C269082  12.335  13.621  10.368  0.3249  0.0446  0.1875
41754DOD     C369083  12.388  13.416   9.923  0.0019 -0.0554 -0.3571
41755DOD     C169084   5.433  14.648  23.522  0.0155  0.2852 -0.1538
41755DOD     C269085   5.736  14.345  23.436  0.1008 -0.2995 -0.0181
41755DOD     C369086   5.847  13.867  23.314  0.0745 -0.0330 -0.1769
41756DOD     C169087  15.463  16.411  20.908  0.0492 -0.0198  0.0643
41756DOD     C269088  15.125  16.624  20.989 -0.0637  0.1062  0.2920
41756DOD     C369089  14.960  17.029  21.177  0.2021 -0.2937  0.0002
41757DOD     C169090  23.520  25.718  23.366 -0.3480 -0.0186 -0.2381
41757DOD     C269091  23.286  25.338  23.342 -0.3942  0.0702 -0.3008
41757DOD     C369092  22.902  25.113  23.451  0.1711 -0.0924 -0.1714
41758DOD     C169093  16.339   6.843  20.336 -0.3150  0.1060 -0.2463
41758DOD     C269094  16.166   6.922  20.777  0.0746  0.3122  0.0933
41758DOD     C369095  15.988   7.189  21.073 -0.3217  0.2366 -0.2510
41759DOD     C169096   3.241   4.986  20.655 -0.1215 -0.1817  0.2708
41759DOD     C269097   3.674   4.766  20.535 -0.0471 -0.2124  0.0714
41759DOD     C369098   4.155   4.779  20.324  0.1477  0.0399  0.0557
41760DOD     C169099  28.277  26.240   9.046 -0.0387 -0.0817 -0.4091
41760DOD     C269100  28.727  26.089   9.212  0.1287  0.0457 -0.2304
41760DOD     C369101  28.942  26.123   9.601  0.1473 -0.0941  0.1481
41761DOD     C169102   4.818  20.296  13.110 -0.4353  0.1912 -0.3368
41761DOD     C269103   4.849  20.330  13.603  0.1630  0.0616  0.1487
41761DOD     C369104   5.100  20.497  13.919 -0.4390  0.4301 -0.1214
41762DOD     C169105  27.091  20.151  27.704  0.1273  0.0171 -0.1741
41762DOD     C269106  26.814  20.288  28.090 -0.1920  0.0129  0.2020
41762DOD     C369107  26.801  20.508  28.496 -0.0268  0.0336  0.2452
41763DOD     C169108  25.972  12.763   6.635  0.2571 -0.1661  0.0634
41763DOD     C269109  26.394  12.580   6.557  0.0136  0.1417  0.0445
41763DOD     C369110  26.805  12.631   6.442  0.1158 -0.2900  0.0303
41764DOD     C169111  13.929  11.064  27.231  0.0707  0.1519  0.0260
41764DOD     C269112  13.629  11.272  27.112 -0.0491 -0.0798 -0.0410
41764DOD     C369113  13.332  11.609  27.241 -0.1000 -0.1955  0.0624
41765DOD     C169114  26.947   3.670  29.169 -0.3518  0.0512  0.0062
41765DOD     C269115  27.138   3.782  28.735  0.2645 -0.0063  0.1422
41765DOD     C369116  27.074   3.773  28.266  0.3572 -0.4079  0.1548
41766DOD     C169117  12.996  15.787  10.095  0.0717  0.0025  0.0286
41766DOD     C269118  13.490  15.772   9.970 -0.0044  0.0311 -0.2394
41766DOD     C369119  13.891  15.658   9.919  0.1985  0.0115 -0.0474
41767DOD     C169120  12.673   5.124  25.181 -0.0421  0.2597  0.0658
41767DOD     C269121  12.256   5.049  25.413  0.0655  0.0879  0.1229
41767DOD     C369122  12.267   4.853  25.853  0.2035  0.2121  0.0030
41768DOD     C169123  14.472  24.944   7.098  0.1758  0.0917  0.0474
41768DOD     C269124  14.049  25.214   7.212 -0.0826 -0.1013  0.1663
41768DOD     C369125  13.615  25.444   7.195 -0.1620  0.2787 -0.0085
41769DOD     C169126   0.743  20.268  17.530 -0.4238  0.4255 -0.0171
41769DOD     C269127   0.752  20.676  17.772  0.0005 -0.0541  0.1218
41769DOD     C369128   0.364  20.959  17.815 -0.1625  0.3697 -0.0683
41770DOD     C169129  21.278   9.741   1.367 -0.2983 -0.1312  0.2539
41770DOD     C269130  21.350   9.604   1.761  0.5605 -0.0613  0.0510
41770DOD     C369131  21.328   9.600   2.251  0.3024  0.4329  0.2081
41771DOD     C169132  23.673  11.605  27.726 -0.0280 -0.0049  0.1430
41771DOD     C269133  23.205  11.493  27.650 -0.0867 -0.2775  0.0729
41771DOD     C369134  22.724  11.546  27.654  0.2299  0.0397  0.2656
41772DOD     C169135  18.232  23.069  11.751  0.2553  0.3081  0.1429
41772DOD     C269136  17.761  22.850  11.777  0.1825 -0.2914  0.1757
41772DOD     C369137  17.448  22.485  11.675 -0.0357 -0.2438 -0.1057
41773DOD     C169138   5.406   2.715   0.564 -0.1166  0.1686 -0.2869
41773DOD     C269139   5.750   2.940   0.830 -0.2494 -0.0176 -0.1377
41773DOD     C369140   6.095   3.248   0.942 -0.1020  0.1202  0.0584
41774DOD     C169141  15.705   2.567  13.205  0.1014 -0.2121 -0.1840
41774DOD     C269142  15.545   2.157  13.231 -0.2299 -0.0862 -0.1018
41774DOD     C369143  15.510   1.895  13.599 -0.1262 -0.2915 -0.1903
41775DOD     C169144  21.430   4.235  13.631  0.1204 -0.1155 -0.3830
41775DOD     C269145  21.130   4.447  13.332 -0.0148 -0.2295  0.0612
41775DOD     C369146  20.837   4.809  13.427  0.1914  0.0928 -0.1623
41776DOD     C169147  13.355  -0.011   3.124 -0.1800 -0.1308  0.1728
41776DOD     C269148  13.103  29.970   3.230  0.0656 -0.0997 -0.1282
41776DOD     C369149  12.786  29.576   3.268  0.0729  0.0026  0.1882
41777DOD     C169150  13.326   2.833  20.974  0.0689 -0.2405 -0.0598
41777DOD     C269151  13.123   2.554  21.270  0.0317 -0.0289  0.0497
41777DOD     C369152  13.200   2.197  21.575  0.1180 -0.0427  0.1374
41778DOD     C169153  11.291   8.798  22.304  0.0960  0.0910 -0.2401
41778DOD     C269154  10.862   8.981  22.234 -0.0102 -0.0166 -0.1914
41778DOD     C369155  10.409   9.139  22.370  0.2664 -0.0833 -0.1139
41779DOD     C169156   4.108   5.649   9.258 -0.1077  0.0823  0.3065
41779DOD     C269157   4.040   5.586   9.710 -0.1049  0.0757 -0.1988
41779DOD     C369158   4.180   5.705  10.140 -0.0598  0.0434  0.1909
41780DOD     C169159   3.801   6.357   7.980  0.1561 -0.2807 -0.0055
41780DOD     C269160   3.316   6.341   8.053  0.0912  0.1228 -0.0293
41780DOD     C369161   2.902   6.189   8.174 -0.1357 -0.0195  0.1726
41781DOD     C169162  21.474  11.933  17.909 -0.2740  0.1695  0.0364
41781DOD     C269163  21.727  12.186  17.591  0.0030 -0.1331  0.0148
41781DOD     C369164  21.840  12.540  17.277 -0.3134 -0.1175 -0.2104
41782DOD     C169165  29.017   9.284  12.703  0.0329 -0.1390 -0.0027
41782DOD     C269166  28.899   8.850  12.612 -0.1383 -0.0264 -0.1462
41782DOD     C369167  28.680   8.386  12.592 -0.1553  0.2147 -0.3564
41783DOD     C169168  19.434   7.931  18.462 -0.0150 -0.0395 -0.1718
41783DOD     C269169  18.981   7.874  18.356  0.0700  0.1383  0.0406
41783DOD     C369170  18.556   7.891  18.302  0.0809  0.3343  0.0741
41784DOD     C169171  20.514  21.662   8.834 -0.1496  0.2967  0.1408
41784DOD     C269172  20.572  22.038   9.122 -0.0964  0.1550  0.0519
41784DOD     C369173  20.517  22.471   9.266 -0.2529  0.2231  0.3054
41785DOD     C169174  12.933  25.560  25.808 -0.2396  0.1340  0.2279
41785DOD     C269175  13.396  25.395  25.979 -0.1008  0.1715  0.1136
41785DOD     C369176  13.850  25.488  26.066 -0.2212  0.1329 -0.2538
41786DOD     C169177  16.561   7.080  25.401  0.1604 -0.1162 -0.1063
41786DOD     C269178  16.129   7.290  25.422 -0.0365 -0.0396 -0.1406
41786DOD     C369179  15.919   7.457  25.885  0.2496  0.1250  0.2364
41787DOD     C169180  19.171  21.265   2.279  0.1874 -0.1288 -0.1713
41787DOD     C269181  19.292  21.714   2.239 -0.2302  0.1254  0.2676
41787DOD     C369182  19.243  22.182   2.248  0.1424  0.0857 -0.1719
41788DOD     C169183  27.603  20.167   3.833  0.2480 -0.0534 -0.2250
41788DOD     C269184  27.703  20.349   4.315 -0.1099  0.0325 -0.2422
41788DOD     C369185  27.883  20.756   4.533 -0.2056  0.1929 -0.0322
41789DOD     C169186   7.907  18.999  12.428 -0.0957  0.0420  0.0005
41789DOD     C269187   8.319  19.127  12.472 -0.0879  0.0792  0.3554
41789DOD     C369188   8.806  19.160  12.466 -0.0009  0.1055  0.0457
41790DOD     C169189  14.985   3.031   8.253 -0.3117 -0.0865  0.0188
41790DOD     C269190  15.172   2.938   8.653 -0.1863 -0.0038 -0.0361
41790DOD     C369191  15.531   2.974   9.011 -0.1929 -0.0827  0.1455
41791DOD     C169192  27.095  21.635  21.198 -0.2182  0.0704  0.1463
41791DOD     C269193  27.308  21.299  20.974 -0.2750 -0.0087 -0.1597
41791DOD     C369194  27.410  20.893  21.222  0.4741  0.2404  0.1154
41792DOD     C169195   9.253  11.427   8.125  0.3425 -0.1029  0.2240
41792DOD     C269196   9.691  11.437   7.917  0.0848  0.3210 -0.1860
41792DOD     C369197  10.142  11.486   7.770 -0.1984  0.0501 -0.1252
41793DOD     C169198  15.054  17.520  15.408  0.1264 -0.1203  0.0881
41793DOD     C269199  14.703  17.257  15.275 -0.0720  0.0002 -0.0969
41793DOD     C369200  14.352  17.106  15.508  0.1951 -0.1426  0.6215
41794DOD     C169201   2.746  20.570   7.657 -0.5003  0.0591  0.0521
41794DOD     C269202   2.286  20.416   7.760  0.1334  0.1326 -0.2318
41794DOD     C369203   2.123  20.486   8.194  0.0221  0.1585 -0.0620
41795DOD     C169204  22.400  26.700  13.498 -0.0473  0.2056 -0.2521
41795DOD     C269205  22.656  26.823  13.151  0.0760 -0.0921 -0.2926
41795DOD     C369206  22.923  27.147  12.958 -0.0389 -0.1725 -0.1016
41796DOD     C169207   2.899   1.526  21.299 -0.0849 -0.1967 -0.1878
41796DOD     C269208   2.515   1.587  20.978 -0.1396 -0.1602  0.0415
41796DOD     C369209   2.152   1.771  21.054 -0.3528 -0.0393  0.0733
41797DOD     C169210  17.293  29.524  23.736  0.2388 -0.1270 -0.0811
41797DOD     C269211  17.193  29.895  23.458  0.1152 -0.1273 -0.0956
41797DOD     C369212  16.967  30.274  23.421 -0.0914 -0.1255  0.0936
41798DOD     C169213  17.743   7.325  26.448  0.2434 -0.1097  0.0257
41798DOD     C269214  17.981   7.483  26.913 -0.1590  0.0272  0.2956
41798DOD     C369215  18.184   7.894  27.103 -0.1207 -0.0774  0.2552
41799DOD     C169216   7.020  15.927   6.107  0.0072  0.3056  0.1579
41799DOD     C269217   7.088  16.277   6.461  0.1813 -0.2970 -0.3447
41799DOD     C369218   7.351  16.627   6.495  0.1603  0.5472 -0.1175
41800DOD     C169219  11.417  16.249  27.401  0.2197 -0.2861  0.1287
41800DOD     C269220  11.040  16.544  27.298  0.1936  0.0355 -0.0955
41800DOD     C369221  10.708  16.786  27.089  0.0695  0.0805  0.3005
41801DOD     C169222  29.267  10.159   0.847 -0.3670 -0.0702  0.2039
41801DOD     C269223  29.661  10.325   0.925  0.0325  0.0629  0.2296
41801DOD     C369224  30.037  10.310   1.190 -0.0785  0.2033 -0.3339
41802DOD     C169225   1.032  19.865  16.304  0.1621  0.0824 -0.0134
41802DOD     C269226   0.793  20.121  16.000 -0.1227  0.0504 -0.0389
41802DOD     C369227   0.303  20.114  15.939  0.2501 -0.3270  0.0313
41803DOD     C169228  11.707  15.712   1.350 -0.1003  0.3010  0.0515
41803DOD     C269229  11.601  15.406   1.024  0.0554  0.2571  0.1464
41803DOD     C369230  11.272  15.134   0.907 -0.3416 -0.1206 -0.1649
41804DOD     C169231  21.628   0.935   5.624  0.0334  0.0134  0.1985
41804DOD     C269232  22.073   1.008   5.786 -0.0534  0.1692 -0.1917
41804DOD     C369233  22.420   1.158   6.045  0.3312  0.1830 -0.1842
41805DOD     C169234  26.915   1.037  26.471 -0.0425  0.0198 -0.0867
41805DOD     C269235  26.759   0.606  26.347  0.0704  0.0195  0.0939
41805DOD     C369236  26.723   0.162  26.120  0.1696 -0.2848  0.3887
41806DOD     C169237  28.252  14.444   7.048  0.1783 -0.0310  0.1429
41806DOD     C269238  28.475  14.132   6.779  0.0117  0.1026 -0.0451
41806DOD     C369239  28.576  13.725   6.588 -0.2431  0.0363 -0.0188
41807DOD     C169240  24.519   9.469  23.661  0.3027 -0.5506  0.0125
41807DOD     C269241  24.834   9.677  23.450  0.1575  0.0994 -0.0764
41807DOD     C369242  25.275   9.732  23.540 -0.2557  0.0345  0.3400
41808DOD     C169243  14.527   0.458  21.178  0.0067 -0.2346 -0.3461
41808DOD     C269244  14.993   0.609  21.201 -0.2463  0.1244 -0.2944
41808DOD     C369245  15.180   1.020  21.196 -0.1579  0.0543 -0.1235
41809DOD     C169246  17.956   3.860  13.949 -0.1222  0.2046  0.1297
41809DOD     C269247  17.992   4.307  13.682 -0.0076  0.1089  0.0805
41809DOD     C369248  18.101   4.629  13.402 -0.0779  0.3849 -0.0828
41810DOD     C169249   0.727  27.755  23.212 -0.0563 -0.1776 -0.2898
41810DOD     C269250   0.355  27.601  22.921 -0.1661 -0.0859  0.1211
41810DOD     C369251  30.224  27.557  22.884  0.2439  0.1488  0.1868
41811DOD     C169252  20.074   7.513   1.205 -0.0625  0.1205  0.4929
41811DOD     C269253  20.064   7.122   0.981  0.0585 -0.0541  0.0592
41811DOD     C369254  19.897   6.816   0.636  0.1611 -0.1962 -0.0506
41812DOD     C169255  15.743  11.376  21.665  0.1149 -0.1475  0.4369
41812DOD     C269256  16.048  11.326  21.362  0.0603  0.1455 -0.2161
41812DOD     C369257  16.291  10.965  21.143 -0.0093  0.2016  0.1191
41813DOD     C169258  16.448   7.698  23.325  0.0816 -0.1231  0.1972
41813DOD     C269259  15.991   7.758  23.521  0.3158  0.3369  0.1764
41813DOD     C369260  15.518   7.833  23.652 -0.2698  0.2395 -0.3908
41814DOD     C169261  15.655  19.082   5.399 -0.1935  0.0963 -0.1799
41814DOD     C269262  15.731  19.352   4.972  0.0372 -0.3770  0.0178
41814DOD     C369263  15.491  19.760   4.996 -0.2442 -0.3343  0.4087
41815DOD     C169264  13.912  12.038   4.739  0.1269  0.0270 -0.1464
41815DOD     C269265  14.279  11.799   4.902  0.1767 -0.2859  0.0206
41815DOD     C369266  14.587  11.596   5.146 -0.0291 -0.1012 -0.1067
41816DOD     C169267  14.742   9.217  17.964 -0.4526  0.0771  0.0717
41816DOD     C269268  14.868   8.773  18.055 -0.1491 -0.2774  0.3570
41816DOD     C369269  15.038   8.348  17.928 -0.0008  0.2005 -0.2300
41817DOD     C169270  15.992  11.465  19.739 -0.1527  0.1195  0.1830
41817DOD     C269271  16.307  11.258  19.463 -0.0417  0.1284  0.0945
41817DOD     C369272  16.488  11.186  19.011  0.2702  0.1007 -0.1014
41818DOD     C169273  25.742   0.316   8.977  0.0286  0.0623 -0.0173
41818DOD     C269274  25.720  30.248   9.317 -0.0875 -0.2670 -0.2075
41818DOD     C369275  25.833  29.775   9.237 -0.2263  0.1052  0.1392
41819DOD     C169276  20.302  12.492   1.717  0.1754 -0.1354 -0.1200
41819DOD     C269277  20.763  12.421   1.663 -0.1202 -0.1018 -0.4240
41819DOD     C369278  21.236  12.593   1.694 -0.1661 -0.2709 -0.2085
41820DOD     C169279  14.702   3.709  22.883 -0.2631 -0.2422  0.0904
41820DOD     C269280  14.432   3.963  22.564  0.0538 -0.0005 -0.2074
41820DOD     C369281  14.398   4.032  22.096 -0.0020 -0.1214  0.0374
41821DOD     C169282  20.679  25.044  23.922 -0.0779 -0.1375 -0.0556
41821DOD     C269283  20.795  24.632  23.990 -0.0185 -0.3410  0.1403
41821DOD     C369284  20.642  24.223  23.992  0.2804  0.2575  0.1794
41822DOD     C169285  10.210  24.162  21.484  0.1515  0.1674 -0.0908
41822DOD     C269286  10.355  24.299  21.949 -0.0695 -0.0239  0.0966
41822DOD     C369287  10.542  24.463  22.336 -0.3850 -0.0560  0.0567
41823DOD     C169288   9.704  25.529  12.131  0.0051 -0.0325  0.0769
41823DOD     C269289   9.628  25.017  12.078  0.0282 -0.0846 -0.1489
41823DOD     C369290   9.214  24.788  12.194  0.0754  0.1478  0.3072
41824DOD     C169291   8.438  13.525  15.197  0.1459  0.0178 -0.0180
41824DOD     C269292   8.537  13.792  15.568  0.1999  0.2052 -0.3186
41824DOD     C369293   8.716  13.952  15.919 -0.1561 -0.1494 -0.1166
41825DOD     C169294  16.497  22.038  29.632  0.3031  0.2221 -0.0031
41825DOD     C269295  16.217  21.868  30.012  0.0067  0.1048  0.0440
41825DOD     C369296  16.034  21.818   0.082 -0.0590  0.0065 -0.2715
41826DOD     C169297  19.356  29.169  17.293 -0.2662  0.1772  0.0349
41826DOD     C269298  19.725  29.390  17.424  0.1345  0.1885  0.0246
41826DOD     C369299  19.827  29.804  17.625 -0.2765 -0.2128  0.0596
41827DOD     C169300  27.678  10.438   1.814  0.3026  0.0302  0.1807
41827DOD     C269301  27.757  10.056   2.083  0.4596  0.0239  0.3994
41827DOD     C369302  27.635   9.613   2.237 -0.0999 -0.0499 -0.0326
41828DOD     C169303  12.904  14.309   1.737 -0.2059  0.2100  0.1905
41828DOD     C269304  12.789  14.284   2.171 -0.1499  0.1678  0.2228
41828DOD     C369305  12.782  14.222   2.633  0.0406 -0.1726  0.0246
41829DOD     C169306  29.121  29.736  16.542  0.1162  0.2730  0.1159
41829DOD     C269307  28.940  30.141  16.334  0.0643 -0.1892  0.0345
41829DOD     C369308  28.990   0.247  16.344 -0.0474 -0.1101 -0.1227
41830DOD     C169309   6.823  19.198  12.690  0.3480  0.1818 -0.5038
41830DOD     C269310   6.424  19.055  12.955 -0.0556 -0.3674 -0.0707
41830DOD     C369311   6.117  19.066  13.262  0.3594  0.0774  0.0598
41831DOD     C169312  13.508  24.295  25.930 -0.0989 -0.1007 -0.0454
41831DOD     C269313  13.426  24.056  25.511  0.1269 -0.2785 -0.2429
41831DOD     C369314  13.359  23.598  25.475 -0.0399 -0.2024 -0.0422
41832DOD     C169315   1.639  20.440   2.489 -0.2966 -0.0630 -0.0690
41832DOD     C269316   1.866  20.827   2.672  0.2398  0.2430 -0.0914
41832DOD     C369317   1.861  21.266   2.712  0.1886  0.0520  0.0270
41833DOD     C169318   4.853  25.379   9.473  0.0229 -0.0148 -0.3173
41833DOD     C269319   5.263  25.423   9.655  0.0069 -0.0981 -0.0764
41833DOD     C369320   5.443  25.404  10.061 -0.0908 -0.1577 -0.1755
41834DOD     C169321  25.534   3.072  26.958  0.1593 -0.0716 -0.2977
41834DOD     C269322  25.272   3.428  26.868  0.1233 -0.0174  0.3008
41834DOD     C369323  24.892   3.718  26.882  0.0993 -0.0223  0.0174
41835DOD     C169324  19.683  12.305  21.270  0.1107 -0.1104 -0.0631
41835DOD     C269325  19.409  12.558  21.543 -0.1373  0.0768 -0.1573
41835DOD     C369326  19.036  12.652  21.810 -0.0676 -0.1050  0.0720
41836DOD     C169327   0.331  27.062  28.947  0.0197  0.0368 -0.1375
41836DOD     C269328   0.042  27.102  29.244 -0.1313  0.0216 -0.0534
41836DOD     C369329  29.869  27.126  29.351 -0.2732  0.1099  0.1291
41837DOD     C169330   6.207   9.567  14.471  0.0541 -0.1782 -0.0872
41837DOD     C269331   6.213   9.989  14.312  0.0223 -0.1517  0.0226
41837DOD     C369332   6.004  10.143  13.913 -0.0431  0.0652  0.1787
41838DOD     C169333  18.125  21.802  20.982  0.2326  0.2057  0.0141
41838DOD     C269334  17.894  21.900  20.563 -0.1137 -0.1191 -0.0142
41838DOD     C369335  17.603  21.837  20.240 -0.1106 -0.0617 -0.2079
41839DOD     C169336  29.461   9.516   1.207 -0.1532  0.3109  0.0636
41839DOD     C269337  29.679   9.883   1.130  0.1476  0.2058 -0.1077
41839DOD     C369338  29.956   9.971   0.783 -0.0951  0.2151 -0.2411
41840DOD     C169339   6.423  14.528  17.554 -0.0034 -0.0566  0.1092
41840DOD     C269340   6.462  14.332  17.164 -0.0291  0.2671 -0.3530
41840DOD     C369341   6.625  13.934  17.027 -0.3557 -0.0806  0.1643
41841DOD     C169342   7.806  20.802  14.656 -0.2245  0.0913 -0.1176
41841DOD     C269343   8.227  20.805  14.524  0.1265  0.4202 -0.1261
41841DOD     C369344   8.613  20.684  14.326  0.2099 -0.0449  0.0895
41842DOD     C169345   9.188  11.571  29.462  0.1407 -0.0573  0.3395
41842DOD     C269346   8.746  11.484  29.507  0.1734 -0.0312 -0.1631
41842DOD     C369347   8.419  11.904  29.534  0.1279  0.1456 -0.1596
41843DOD     C169348  11.323  12.775  26.551 -0.1125 -0.1559  0.1094
41843DOD     C269349  10.918  12.547  26.515  0.0190  0.1310 -0.2274
41843DOD     C369350  10.520  12.463  26.763  0.0695 -0.1738  0.0243
41844DOD     C169351   9.435  16.437  28.660 -0.1636 -0.2049 -0.1441
41844DOD     C269352   9.106  16.161  28.819  0.0685  0.0713  0.0464
41844DOD     C369353   8.783  15.832  28.973 -0.4346  0.1933 -0.2906
41845DOD     C169354   4.342   3.223  13.352 -0.0472 -0.1613  0.2376
41845DOD     C269355   4.135   3.440  13.683 -0.2451 -0.1345  0.3489
41845DOD     C369356   4.138   3.870  13.914  0.2074 -0.0022 -0.1446
41846DOD     C169357   5.499  27.579   2.852  0.0234 -0.2268 -0.0280
41846DOD     C269358   5.744  27.959   2.664 -0.0906 -0.1510 -0.0029
41846DOD     C369359   6.048  27.922   2.262  0.0745 -0.0269 -0.2381
41847DOD     C169360  12.158   3.317   7.729 -0.3035  0.1255 -0.0835
41847DOD     C269361  12.419   3.624   7.924  0.0119 -0.3813 -0.4386
41847DOD     C369362  12.549   3.922   8.263 -0.0589 -0.0295  0.0162
41848DOD     C169363  13.258   9.424  30.020 -0.2142  0.2591 -0.1919
41848DOD     C269364  13.665   9.169  29.978  0.1388  0.0033 -0.0652
41848DOD     C369365  13.903   8.821  29.736  0.0496 -0.3398 -0.1853
41849DOD     C169366  12.899  22.092  28.974  0.1298  0.1072 -0.0177
41849DOD     C269367  12.693  22.426  29.226 -0.1279  0.1443  0.1450
41849DOD     C369368  12.570  22.697  29.567  0.0623 -0.0249  0.0430
41850DOD     C169369   1.254  22.965   9.194  0.2135  0.0252  0.1437
41850DOD     C269370   1.185  23.231   9.538  0.0782  0.0277  0.0994
41850DOD     C369371   1.000  23.439   9.908 -0.0866  0.0140 -0.0692
41851DOD     C169372   1.508  14.466  14.580 -0.0023 -0.5198  0.1147
41851DOD     C269373   1.094  14.436  14.863 -0.1660  0.2396  0.2254
41851DOD     C369374   0.921  14.058  15.073  0.1412  0.4002 -0.1710
41852DOD     C169375  25.681   6.581  11.731  0.0120  0.1965  0.0457
41852DOD     C269376  25.611   6.465  12.138 -0.2970  0.2098  0.0404
41852DOD     C369377  25.176   6.373  12.345 -0.1747  0.2181 -0.2307
41853DOD     C169378  24.460  18.661   7.823 -0.0240  0.2035 -0.1579
41853DOD     C269379  24.118  18.946   7.777  0.0483 -0.3437  0.0638
41853DOD     C369380  23.666  19.024   7.808  0.1561 -0.2206 -0.1585
41854DOD     C169381  20.413   8.640  14.698 -0.0412  0.0792 -0.1316
41854DOD     C269382  20.205   8.227  14.650 -0.1238  0.0842 -0.3540
41854DOD     C369383  20.350   7.894  14.340  0.1897 -0.3059  0.1108
41855DOD     C169384   2.904  25.882  11.410  0.2215  0.1709 -0.0248
41855DOD     C269385   2.698  25.636  11.057 -0.1366 -0.0688  0.0553
41855DOD     C369386   2.332  25.313  11.016  0.1223  0.0428 -0.0275
41856DOD     C169387   6.481  15.245  26.624 -0.0597  0.3594 -0.0351
41856DOD     C269388   6.219  14.861  26.644 -0.0440 -0.1723 -0.0341
41856DOD     C369389   6.313  14.366  26.651 -0.0701 -0.1068 -0.0314
41857DOD     C169390   4.249  19.918  16.797  0.0882 -0.1696 -0.3068
41857DOD     C269391   3.917  20.081  16.531  0.2173 -0.1044  0.2937
41857DOD     C369392   3.493  20.217  16.344 -0.2143 -0.0466  0.0774
41858DOD     C169393  18.290   6.019  27.329  0.2993  0.3820  0.1960
41858DOD     C269394  18.446   6.241  27.634 -0.0045 -0.1479 -0.4230
41858DOD     C369395  18.842   6.494  27.740  0.0497  0.0826  0.3476
41859DOD     C169396  27.151   6.847  12.281 -0.2477  0.2339  0.0787
41859DOD     C269397  26.870   6.719  12.012  0.1024  0.3253 -0.0246
41859DOD     C369398  26.595   6.313  11.855  0.0895 -0.1359 -0.1561
41860DOD     C169399  15.550  26.232  16.440 -0.1834 -0.0774  0.0231
41860DOD     C269400  15.786  26.222  16.067  0.0539 -0.0664 -0.3577
41860DOD     C369401  16.208  26.337  15.970 -0.1565 -0.2255  0.2447
41861DOD     C169402  27.837   4.133   3.361 -0.2422  0.0976 -0.1439
41861DOD     C269403  27.421   4.095   3.587  0.1111 -0.0603 -0.0077
41861DOD     C369404  26.999   4.175   3.429 -0.0363  0.3542  0.0319
41862DOD     C169405  18.721  29.868   0.395  0.0248  0.0248  0.0871
41862DOD     C269406  19.112  30.181   0.271  0.0724 -0.2311 -0.1497
41862DOD     C369407  19.486   0.106   0.366  0.0205  0.0322  0.0722
41863DOD     C169408  12.633   3.536  14.553 -0.2372 -0.3789  0.3177
41863DOD     C269409  12.425   3.850  14.347 -0.2786  0.3315  0.0085
41863DOD     C369410  12.075   4.053  14.069 -0.0026 -0.1320 -0.0989
41864DOD     C169411  19.486   2.435  24.315  0.2341 -0.1829  0.1186
41864DOD     C269412  19.332   1.999  24.370  0.1166 -0.0578 -0.1265
41864DOD     C369413  19.386   1.559  24.375  0.0263 -0.1217  0.1907
41865DOD     C169414   0.160   5.594   9.467 -0.0074  0.1114 -0.0691
41865DOD     C269415  30.255   5.455   9.035  0.1242  0.0626 -0.0524
41865DOD     C369416  30.059   5.507   8.595 -0.1048 -0.0332  0.1326
41866DOD     C169417  17.718  30.072  17.164 -0.1858  0.0101 -0.0683
41866DOD     C269418  17.676   0.197  17.014 -0.1864 -0.1002  0.0863
41866DOD     C369419  17.733   0.684  16.860 -0.2489  0.0824 -0.3537
41867DOD     C169420   9.711  20.122  18.492  0.0794  0.2475  0.3418
41867DOD     C269421   9.479  19.700  18.385 -0.0012 -0.2103 -0.2481
41867DOD     C369422   9.070  19.572  18.584 -0.0340 -0.1529  0.0395
41868DOD     C169423  28.318   6.585  24.076  0.1039 -0.0449 -0.3177
41868DOD     C269424  28.744   6.696  24.260  0.0836 -0.3846  0.0177
41868DOD     C369425  29.138   6.459  24.379  0.1620  0.1964 -0.1795
41869DOD     C169426  19.703   1.541  21.284 -0.2067 -0.1165  0.2409
41869DOD     C269427  19.578   1.336  21.703  0.0699  0.0542 -0.0269
41869DOD     C369428  19.728   1.040  22.067  0.0591 -0.0042  0.0421
41870DOD     C169429  17.264  29.486  18.269  0.0392  0.1568 -0.1339
41870DOD     C269430  17.457  29.563  18.746  0.2662  0.0178  0.0233
41870DOD     C369431  17.616  29.915  18.950 -0.0972 -0.1090 -0.1501
41871DOD     C169432  28.117  11.429  11.956 -0.0592  0.0820 -0.0337
41871DOD     C269433  28.090  11.754  11.668 -0.0010 -0.0646  0.2143
41871DOD     C369434  28.058  11.757  11.245  0.0407  0.0302 -0.0410
41872DOD     C169435   6.616   5.739  25.796 -0.1306 -0.0510  0.1232
41872DOD     C269436   6.565   6.073  25.403  0.0494 -0.0954  0.0875
41872DOD     C369437   6.611   6.413  25.079  0.1411 -0.0732 -0.2600
41873DOD     C169438  28.969   3.550   2.600  0.1255  0.1732 -0.1713
41873DOD     C269439  29.334   3.778   2.529  0.0395  0.0463  0.0581
41873DOD     C369440  29.698   4.008   2.376  0.0247  0.0799  0.0491
41874DOD     C169441  18.866  29.678  14.573  0.2740  0.0992 -0.3466
41874DOD     C269442  19.227  29.444  14.448 -0.0742  0.0858  0.0692
41874DOD     C369443  19.561  29.138  14.639 -0.0273 -0.1401  0.0863
41875DOD     C169444  20.184  16.922  15.454  0.0442 -0.4543  0.1412
41875DOD     C269445  20.517  17.020  15.765  0.1164  0.0562 -0.0301
41875DOD     C369446  20.943  17.131  15.932  0.1351 -0.2230  0.1283
41876DOD     C169447  16.170   2.276   4.895  0.1076  0.0371  0.2401
41876DOD     C269448  15.958   1.832   4.928 -0.1403  0.0784  0.2794
41876DOD     C369449  15.867   1.373   5.050 -0.2525 -0.2053  0.0902
41877DOD     C169450   3.036  15.349  21.248 -0.0008  0.0844  0.1626
41877DOD     C269451   2.736  15.001  21.140 -0.0479 -0.2111 -0.0214
41877DOD     C369452   2.330  14.789  20.973  0.0802 -0.0809  0.2382
41878DOD     C169453  13.658  10.636   8.976  0.2099  0.0697 -0.0698
41878DOD     C269454  14.006  10.791   8.748  0.0638  0.1142  0.1986
41878DOD     C369455  14.310  11.145   8.649 -0.0109  0.0317  0.0914
41879DOD     C169456  15.161  19.456   4.723 -0.3508  0.2352 -0.0949
41879DOD     C269457  15.506  19.407   4.498 -0.0473 -0.3131 -0.3131
41879DOD     C369458  15.662  18.970   4.237  0.2335 -0.1339  0.0192
41880DOD     C169459   4.172  27.707  20.204  0.1855  0.0668 -0.0713
41880DOD     C269460   4.154  27.274  20.002  0.0200 -0.1068  0.2907
41880DOD     C369461   4.261  27.259  19.451  0.1485  0.1413 -0.1670
41881DOD     C169462  21.384  23.643  23.573  0.1340 -0.0279  0.3537
41881DOD     C269463  21.593  23.253  23.699  0.0486 -0.0469  0.0411
41881DOD     C369464  21.475  22.826  23.606 -0.1001 -0.2244 -0.0968
41882DOD     C169465  26.186  24.271  28.454 -0.2447  0.1964  0.2673
41882DOD     C269466  25.890  24.084  28.749 -0.5505 -0.0169  0.0725
41882DOD     C369467  25.440  24.025  28.812 -0.0369  0.3378  0.3029
41883DOD     C169468  17.401   7.639  22.646  0.2083 -0.1019  0.0922
41883DOD     C269469  17.157   7.234  22.678  0.0440 -0.3099  0.2237
41883DOD     C369470  16.959   6.980  23.031 -0.1692 -0.0428  0.0137
41884DOD     C169471  23.054  19.016   2.138 -0.0680  0.0292 -0.1245
41884DOD     C269472  23.327  19.399   2.071  0.0361 -0.1684  0.0795
41884DOD     C369473  23.646  19.572   1.734  0.3539 -0.2235 -0.0599
41885DOD     C169474  26.204  24.136  16.285  0.1682  0.1898 -0.2315
41885DOD     C269475  26.055  23.682  16.329  0.3028 -0.0273  0.1016
41885DOD     C369476  25.829  23.359  16.040 -0.2963 -0.0685 -0.0155
41886DOD     C169477   2.115   0.602  20.093  0.2329  0.1281 -0.0023
41886DOD     C269478   2.135   0.139  19.891  0.0196  0.0836  0.2942
41886DOD     C369479   1.865  30.137  19.864  0.0202 -0.0201  0.2992
41887DOD     C169480  14.886  11.139   3.135  0.0924  0.1942  0.4265
41887DOD     C269481  14.468  10.970   3.017  0.2516 -0.2065  0.1316
41887DOD     C369482  14.158  10.888   2.683  0.0015  0.2388  0.0831
41888DOD     C169483  30.054  21.520  13.472 -0.2291 -0.3503  0.0136
41888DOD     C269484   0.182  21.401  13.632  0.1236  0.2109  0.1192
41888DOD     C369485   0.669  21.352  13.557  0.4683  0.1616 -0.2257
41889DOD     C169486   2.014  16.500  29.910 -0.1504  0.1889 -0.2786
41889DOD     C269487   2.153  16.774  30.254 -0.0506 -0.1917  0.3086
41889DOD     C369488   1.936  17.074   0.175  0.0927 -0.2650 -0.0598
41890DOD     C169489  16.059  24.718  19.824 -0.0066 -0.0416  0.1266
41890DOD     C269490  15.869  24.574  19.386  0.0285  0.2924 -0.2211
41890DOD     C369491  15.538  24.578  19.055 -0.1442 -0.1372  0.1718
41891DOD     C169492   2.861  29.569  25.421 -0.0996  0.0470  0.2466
41891DOD     C269493   3.230  29.469  25.142 -0.1581  0.1130 -0.0342
41891DOD     C369494   3.513  29.293  24.775 -0.1151  0.0539 -0.0281
41892DOD     C169495  18.699  29.391   0.048  0.0023 -0.1264 -0.0875
41892DOD     C269496  18.894  29.393   0.498  0.1139 -0.1324 -0.0094
41892DOD     C369497  19.073  29.772   0.759  0.3841 -0.2889 -0.0431
41893DOD     C169498  17.594  10.605  27.622 -0.0862 -0.3350 -0.3035
41893DOD     C269499  17.673  11.012  27.837 -0.2024 -0.0149  0.0811
41893DOD     C369500  17.705  11.399  28.135 -0.0603  0.1131  0.2146
41894DOD     C169501  10.313  16.308  26.277  0.0132 -0.1761  0.0732
41894DOD     C269502  10.003  16.347  25.966 -0.0090 -0.3416 -0.1980
41894DOD     C369503   9.755  16.319  25.591 -0.5349  0.0365  0.0708
41895DOD     C169504  24.185  12.000  17.125 -0.2553 -0.1483  0.0546
41895DOD     C269505  24.186  12.514  17.122 -0.0506  0.2506 -0.0473
41895DOD     C369506  24.196  12.915  17.325 -0.1306 -0.1891 -0.1868
41896DOD     C169507   7.026  14.800   7.209  0.2473 -0.0707 -0.0971
41896DOD     C269508   6.557  14.738   7.419  0.2730  0.0640 -0.2687
41896DOD     C369509   6.187  14.711   7.696 -0.2032  0.1560  0.0097
41897DOD     C169510   2.256   6.124   6.594 -0.1877  0.4437 -0.0483
41897DOD     C269511   2.619   6.403   6.547 -0.0139  0.1364  0.1472
41897DOD     C369512   3.085   6.494   6.538  0.1148 -0.0609 -0.1116
41898DOD     C169513  15.130  23.212  15.737 -0.3105 -0.2394 -0.1373
41898DOD     C269514  15.233  23.148  15.284 -0.1788 -0.4069  0.0948
41898DOD     C369515  15.525  23.002  14.926 -0.0455  0.0161 -0.1183
41899DOD     C169516  28.476  10.448   3.125 -0.1538 -0.0522  0.2942
41899DOD     C269517  28.468  10.882   3.294 -0.1742  0.0027  0.1450
41899DOD     C369518  28.329  11.278   3.494  0.1896  0.1312  0.1753
41900DOD     C169519  23.896  22.585  11.423 -0.1109 -0.0560 -0.0893
41900DOD     C269520  23.638  22.861  11.181  0.4497  0.0583 -0.1322
41900DOD     C369521  23.279  22.836  10.851 -0.0742  0.0535  0.1005
41901DOD     C169522   8.861  16.695  13.454  0.1109 -0.0199  0.1162
41901DOD     C269523   9.036  16.935  13.041  0.0559 -0.2523  0.2743
41901DOD     C369524   9.242  17.320  13.063 -0.0271 -0.0146  0.1549
41902DOD     C169525   5.421  10.676  21.406  0.1227 -0.2732 -0.3026
41902DOD     C269526   5.130  10.975  21.544  0.1667  0.0409  0.0376
41902DOD     C369527   4.896  11.169  21.936  0.0824 -0.1332 -0.1405
41903DOD     C169528  10.899   0.815  20.734 -0.1319 -0.1214  0.0155
41903DOD     C269529  11.125   1.207  20.561 -0.3382 -0.1100 -0.1680
41903DOD     C369530  11.400   1.434  20.386  0.0545  0.0463  0.3703
41904DOD     C169531  25.832  18.263  23.955  0.0527 -0.0073 -0.2095
41904DOD     C269532  25.744  18.499  24.350 -0.1522 -0.0221  0.0441
41904DOD     C369533  25.425  18.872  24.371 -0.0107  0.0166 -0.0835
41905DOD     C169534  14.308   4.896   2.844  0.1521 -0.0575  0.1624
41905DOD     C269535  13.966   5.171   2.830 -0.1621  0.1225 -0.0405
41905DOD     C369536  13.830   5.607   2.915 -0.0733 -0.0596 -0.0546
41906DOD     C169537  23.614  12.204  21.753  0.0615  0.0249 -0.0821
41906DOD     C269538  23.879  12.278  21.386 -0.0995 -0.0264  0.0585
41906DOD     C369539  23.732  12.245  20.964  0.2674 -0.2083 -0.3810
41907DOD     C169540  13.867   0.843  25.616 -0.0588  0.1782 -0.0530
41907DOD     C269541  14.098   0.672  25.258 -0.1051 -0.1755  0.0642
41907DOD     C369542  14.412   0.490  24.916 -0.0024  0.2792 -0.2358
41908DOD     C169543  13.781  24.553  26.664 -0.2130 -0.1261  0.0791
41908DOD     C269544  13.438  24.635  26.291 -0.3068 -0.0593  0.0027
41908DOD     C369545  13.769  24.680  26.002 -0.0052 -0.0060  0.0383
41909DOD     C169546   3.772  14.024  10.427 -0.0841  0.2307  0.0048
41909DOD     C269547   3.718  13.869   9.998 -0.0099  0.0385 -0.2416
41909DOD     C369548   3.839  14.154   9.627 -0.2722  0.1224 -0.0281
41910DOD     C169549  27.064   1.609   3.741  0.1126  0.1552 -0.1307
41910DOD     C269550  27.375   1.338   3.866  0.0268  0.0558  0.2375
41910DOD     C369551  27.395   0.885   3.994  0.0598  0.0747  0.2789
41911DOD     C169552  16.071  19.077   0.883  0.0908  0.4535 -0.1514
41911DOD     C269553  15.547  19.085   0.898  0.0147 -0.1813 -0.1215
41911DOD     C369554  15.073  19.138   0.848 -0.0754 -0.2760 -0.1016
41912DOD     C169555  19.213  20.988   7.588 -0.1290 -0.0303  0.2145
41912DOD     C269556  18.935  20.596   7.497  0.0142  0.0517  0.0355
41912DOD     C369557  18.637  20.376   7.272 -0.1440 -0.0446  0.2419
41913DOD     C169558  15.590  25.119  10.024 -0.3717 -0.1872 -0.0006
41913DOD     C269559  15.318  25.220   9.654  0.0937  0.1139 -0.0623
41913DOD     C369560  15.001  25.212   9.311  0.3222  0.0413  0.1081
41914DOD     C169561  19.197  11.916   5.668 -0.1584  0.2823  0.2258
41914DOD     C269562  19.142  11.977   6.124  0.1683  0.0480  0.0902
41914DOD     C369563  18.773  12.040   6.327  0.0717  0.1409 -0.1777
41915DOD     C169564  22.016  28.031  28.043 -0.2954 -0.0784 -0.1200
41915DOD     C269565  21.645  28.256  27.921 -0.0043 -0.0499  0.1264
41915DOD     C369566  21.712  28.710  27.788 -0.0372  0.1471  0.1581
41916DOD     C169567  28.442  17.046  10.014  0.0404 -0.1812 -0.1265
41916DOD     C269568  28.730  16.675  10.209  0.1387 -0.0393 -0.0491
41916DOD     C369569  29.176  16.631   9.952 -0.0298 -0.2064 -0.1375
41917DOD     C169570  20.035  12.638  19.907  0.1223 -0.1563  0.0494
41917DOD     C269571  20.130  13.115  20.001 -0.1753 -0.0568  0.1126
41917DOD     C369572  19.793  13.447  19.907 -0.1643 -0.0354 -0.0647
41918DOD     C169573  22.894  28.227  28.178 -0.2439  0.1183  0.2636
41918DOD     C269574  23.050  28.084  27.780 -0.0162 -0.0374 -0.2398
41918DOD     C369575  23.320  27.838  27.535  0.0843  0.3580 -0.0090
41919DOD     C169576  25.159  29.305   7.080 -0.0149  0.3170 -0.1102
41919DOD     C269577  24.945  29.191   7.496  0.3115  0.1611 -0.0440
41919DOD     C369578  24.798  29.197   7.929 -0.0153  0.4155 -0.2217
41920DOD     C169579   2.147  18.800  29.237  0.1570  0.0011  0.0911
41920DOD     C269580   1.716  18.735  29.230  0.2573 -0.1245 -0.0427
41920DOD     C369581   1.332  18.699  29.004  0.0975  0.0643 -0.2631
41921DOD     C169582  28.301   1.107   8.527  0.0870  0.2058 -0.2608
41921DOD     C269583  27.874   1.161   8.417  0.0095  0.0833 -0.1301
41921DOD     C369584  27.383   1.096   8.429 -0.4295  0.2601 -0.0276
41922DOD     C169585  28.386  26.969  30.089 -0.2404  0.1043 -0.2933
41922DOD     C269586  28.604  26.672   0.074 -0.0495  0.3104  0.0870
41922DOD     C369587  28.854  26.314   0.114 -0.2066  0.1894 -0.0247
41923DOD     C169588  28.476  25.015   5.884  0.2232 -0.0405  0.0515
41923DOD     C269589  28.787  24.989   5.520  0.3350 -0.0236 -0.0459
41923DOD     C369590  28.708  25.009   5.051  0.0737 -0.0477  0.1289
41924DOD     C169591   1.120  19.476   0.080 -0.1101  0.1465  0.0360
41924DOD     C269592   1.025  19.884  30.244 -0.1761  0.2579  0.1272
41924DOD     C369593   0.879  20.302   0.157 -0.1272 -0.2778 -0.1009
41925DOD     C169594  12.899   9.554   9.442  0.0517  0.2702 -0.2007
41925DOD     C269595  12.599   9.367   9.752  0.2178 -0.1613 -0.1985
41925DOD     C369596  12.410   9.114  10.102 -0.2948  0.3108 -0.2709
41926DOD     C169597  10.029  10.872   6.016 -0.0483  0.0024  0.1439
41926DOD     C269598  10.104  11.366   5.907 -0.0643  0.0414 -0.1663
41926DOD     C369599  10.188  11.751   5.670 -0.0383 -0.2833  0.1082
41927DOD     C169600  23.280  25.481  27.226  0.2470 -0.1188  0.4853
41927DOD     C269601  22.913  25.139  27.139  0.1741  0.0244  0.1199
41927DOD     C369602  22.848  24.679  27.287  0.1627 -0.0455 -0.1165
41928DOD     C169603  15.395  25.824   3.314 -0.1925  0.2149 -0.1839
41928DOD     C269604  15.289  25.602   3.760  0.4496 -0.2880  0.3769
41928DOD     C369605  15.060  25.397   4.124  0.2163  0.1246  0.1362
41929DOD     C169606   7.702  19.189  28.578  0.1817 -0.0370  0.1402
41929DOD     C269607   7.361  19.288  28.906 -0.1505  0.4543 -0.0301
41929DOD     C369608   7.218  19.124  29.314 -0.1641 -0.0877  0.2810
41930DOD     C169609  13.451  26.088   8.280  0.1055 -0.1090  0.3131
41930DOD     C269610  13.627  26.050   7.836 -0.0554  0.2284  0.1952
41930DOD     C369611  13.704  26.289   7.467  0.0041 -0.1456 -0.0038
41931DOD     C169612  26.900   0.007  14.867 -0.2896 -0.4612  0.0255
41931DOD     C269613  26.739   0.011  14.455 -0.1093 -0.3053 -0.2188
41931DOD     C369614  26.867   0.018  14.001 -0.1775 -0.1724  0.3363
41932DOD     C169615  11.566  11.236   1.304 -0.1324  0.3091  0.1425
41932DOD     C269616  11.518  11.235   0.835  0.1140  0.2799 -0.1778
41932DOD     C369617  11.547  11.249   0.356 -0.1582  0.0870  0.2312
41933DOD     C169618  13.962  26.962   7.616 -0.1072 -0.1568  0.0552
41933DOD     C269619  13.939  26.947   8.089  0.2823  0.0517  0.0958
41933DOD     C369620  13.728  26.854   8.464 -0.2715 -0.0559  0.1482
41934DOD     C169621  18.128  22.781  16.797  0.0777 -0.3076  0.0041
41934DOD     C269622  17.902  23.102  17.001 -0.2165 -0.0997 -0.0048
41934DOD     C369623  17.875  23.426  17.361  0.1449  0.1167  0.4600
41935DOD     C169624  10.159  24.669  23.652  0.0795 -0.0323  0.0075
41935DOD     C269625  10.112  25.098  23.599 -0.0850 -0.2394  0.0266
41935DOD     C369626   9.852  25.378  23.393  0.0391  0.2090 -0.0762
41936DOD     C169627   5.012  27.136  25.702  0.3706 -0.0360 -0.0020
41936DOD     C269628   5.462  26.941  25.757 -0.0962  0.0872 -0.0495
41936DOD     C369629   5.904  26.787  25.983 -0.0811 -0.3254 -0.0809
41937DOD     C169630  29.321  15.202  17.095 -0.0845  0.0340 -0.0817
41937DOD     C269631  29.165  15.374  16.683  0.3821 -0.0506  0.1418
41937DOD     C369632  29.080  15.343  16.260 -0.2087 -0.1759  0.1831
41938DOD     C169633  23.501   8.144  28.199  0.0186  0.2776 -0.2315
41938DOD     C269634  23.543   8.260  28.611  0.1367 -0.2158  0.0436
41938DOD     C369635  23.702   8.618  28.873 -0.1028  0.0940 -0.4393
41939DOD     C169636  15.381  23.909   1.628  0.3159 -0.0153 -0.3100
41939DOD     C269637  15.302  23.545   1.950 -0.1021  0.0535 -0.0534
41939DOD     C369638  15.387  23.267   2.290 -0.0957 -0.0303 -0.1820
41940DOD     C169639  28.296  19.448   5.399 -0.2228 -0.0251 -0.2460
41940DOD     C269640  27.921  19.652   5.482 -0.0956  0.1640 -0.1550
41940DOD     C369641  27.617  20.053   5.544  0.1801  0.0516 -0.0855
41941DOD     C169642  16.331  23.038  12.312 -0.0685 -0.1361  0.2432
41941DOD     C269643  15.912  23.239  12.308 -0.1352  0.1789  0.1587
41941DOD     C369644  15.649  23.250  12.647 -0.0854  0.4988 -0.4029
41942DOD     C169645   8.212  27.801  18.189  0.0479  0.1946  0.2942
41942DOD     C269646   8.543  28.138  18.067  0.2110 -0.1304 -0.1045
41942DOD     C369647   8.561  28.516  17.794  0.2702 -0.0542  0.1074
41943DOD     C169648   2.570   6.852  12.134  0.1095 -0.0275 -0.2212
41943DOD     C269649   2.581   6.804  11.714 -0.2500  0.1197  0.2225
41943DOD     C369650   2.609   7.026  11.302 -0.1501  0.0361  0.1173
41944DOD     C169651   2.904   7.093   9.887  0.1947 -0.0863 -0.2917
41944DOD     C269652   2.449   6.914   9.841 -0.0113 -0.1691 -0.0652
41944DOD     C369653   2.136   6.823   9.516 -0.0494 -0.2620  0.3551
41945DOD     C169654   9.156  21.231  17.295 -0.1822  0.0606 -0.0837
41945DOD     C269655   9.063  21.030  17.747 -0.1486 -0.2185  0.2469
41945DOD     C369656   8.747  20.827  18.083 -0.1289  0.1793  0.1407
41946DOD     C169657  11.152  26.574  13.416  0.0704 -0.0934 -0.2617
41946DOD     C269658  10.693  26.547  13.551  0.0966  0.2561  0.1666
41946DOD     C369659  10.210  26.692  13.514 -0.3113 -0.0153 -0.5949
41947DOD     C169660  18.783   3.268  29.536  0.0620 -0.1920 -0.2493
41947DOD     C269661  18.512   3.592  29.754 -0.0500 -0.0298 -0.0249
41947DOD     C369662  18.192   3.503  30.039  0.0433 -0.5110  0.2696
41948DOD     C169663   7.863   0.647  11.040 -0.0256  0.0557  0.0550
41948DOD     C269664   7.892   1.092  10.906 -0.2779  0.0636 -0.1901
41948DOD     C369665   7.928   1.505  10.747 -0.2805 -0.1523  0.3430
41949DOD     C169666  24.987   7.415  14.626 -0.3811  0.3155 -0.0086
41949DOD     C269667  24.905   6.951  14.551 -0.1684 -0.2323  0.3109
41949DOD     C369668  24.531   6.678  14.614  0.0345 -0.0751 -0.1084
41950DOD     C169669  23.743  23.942   8.351  0.0174  0.3690 -0.0041
41950DOD     C269670  24.019  23.906   8.744 -0.1544 -0.3189  0.0804
41950DOD     C369671  24.201  23.626   9.089 -0.0028 -0.1665  0.1402
41951DOD     C169672   4.381  15.559   2.746  0.2016 -0.0265 -0.0827
41951DOD     C269673   4.624  15.750   3.069 -0.2040  0.2614  0.2058
41951DOD     C369674   4.847  16.132   3.257  0.1110 -0.0145  0.1930
41952DOD     C169675  25.719  17.554   5.387  0.2815 -0.1342 -0.3855
41952DOD     C269676  25.946  17.755   4.995 -0.2030  0.1392 -0.0056
41952DOD     C369677  26.088  17.944   4.622  0.0886 -0.2008 -0.4344
41953DOD     C169678   0.420   8.694  16.581  0.0218 -0.1662  0.1094
41953DOD     C269679   0.184   8.783  16.963 -0.3959 -0.0689  0.5373
41953DOD     C369680   0.038   9.104  17.277  0.2693 -0.4942  0.1723
41954DOD     C169681  27.970   5.115  23.679  0.1328 -0.0047 -0.1168
41954DOD     C269682  28.371   5.305  23.416  0.2131  0.3145 -0.2533
41954DOD     C369683  28.762   5.481  23.378 -0.1467  0.1905 -0.0930
41955DOD     C169684  21.545   2.505   3.574  0.1240  0.5649  0.0063
41955DOD     C269685  21.762   2.084   3.699  0.1914 -0.4745 -0.0936
41955DOD     C369686  22.201   1.977   3.870 -0.0449 -0.2643  0.0126
41956DOD     C169687  10.765  11.636   0.630  0.2107  0.2553  0.2882
41956DOD     C269688  11.220  11.593   0.535  0.0974  0.0607  0.1212
41956DOD     C369689  11.649  11.668   0.646  0.2214 -0.2836  0.1381
41957DOD     C169690  24.558  17.669  29.443 -0.0357  0.0947  0.1845
41957DOD     C269691  24.914  17.814  29.754 -0.0611 -0.0086 -0.3414
41957DOD     C369692  24.976  17.642  30.184 -0.1658 -0.0142  0.2970
41958DOD     C169693   1.437  21.479   7.230 -0.0156  0.0282  0.1934
41958DOD     C269694   1.397  21.220   6.823 -0.0756  0.0574  0.1257
41958DOD     C369695   1.073  21.218   6.505 -0.3215  0.0675 -0.1701
41959DOD     C169696   7.567  13.439  10.264 -0.0204  0.2117 -0.0964
41959DOD     C269697   7.208  13.651  10.063 -0.0932 -0.1300 -0.2124
41959DOD     C369698   7.115  13.747   9.560 -0.2071 -0.1303  0.0304
41960DOD     C169699   5.146  21.385  14.082  0.1126 -0.0366  0.0100
41960DOD     C269700   4.945  21.791  14.214  0.2335  0.0262 -0.0748
41960DOD     C369701   4.754  22.177  14.353 -0.0047  0.0757 -0.1497
41961DOD     C169702  22.318  23.260   5.606 -0.4071  0.1332 -0.0885
41961DOD     C269703  21.946  23.426   5.701 -0.0427  0.0222 -0.0240
41961DOD     C369704  21.596  23.729   5.611  0.1160  0.2194  0.0856
41962DOD     C169705   4.573   6.260  28.288 -0.2805  0.0490 -0.1346
41962DOD     C269706   4.590   5.812  28.155  0.1381  0.1391  0.0407
41962DOD     C369707   4.563   5.341  28.293  0.1588 -0.3966 -0.0719
41963DOD     C169708  21.753   7.656  23.446 -0.5159  0.5067 -0.1522
41963DOD     C269709  22.094   7.991  23.459  0.2318  0.0425 -0.1385
41963DOD     C369710  22.387   8.305  23.294 -0.2705  0.1688  0.1350
41964DOD     C169711  29.101  13.240   9.191  0.0919  0.0236 -0.1028
41964DOD     C269712  29.476  13.007   9.021  0.0658 -0.0153  0.3800
41964DOD     C369713  29.813  13.186   8.732 -0.1003  0.3820  0.1135
41965DOD     C169714   1.590  22.099   1.395 -0.3744  0.1925  0.2556
41965DOD     C269715   2.062  21.921   1.460 -0.2585 -0.2229 -0.0185
41965DOD     C369716   2.488  22.161   1.471  0.0958 -0.1152  0.4957
41966DOD     C169717  12.057   8.496  14.442 -0.3614 -0.1287  0.2185
41966DOD     C269718  11.704   8.467  14.733 -0.4466  0.2706  0.0069
41966DOD     C369719  11.312   8.768  14.667 -0.1985 -0.2047  0.2935
41967DOD     C169720   2.138   4.194  20.188 -0.1322 -0.2550  0.2164
41967DOD     C269721   1.731   4.058  20.027  0.0423 -0.1371  0.3506
41967DOD     C369722   1.311   3.850  20.051 -0.0478 -0.0671  0.0754
41968DOD     C169723  30.216   2.736  20.211  0.0662  0.1353 -0.3046
41968DOD     C269724  30.102   3.154  20.082  0.0143  0.1450 -0.0839
41968DOD     C369725  30.168   3.613  19.935  0.1269 -0.1767 -0.2221
41969DOD     C169726   7.902   6.645  15.320 -0.1257 -0.1243 -0.0641
41969DOD     C269727   7.911   6.339  15.676 -0.0733  0.2524  0.0646
41969DOD     C369728   8.257   6.227  15.992 -0.1548 -0.0878 -0.2482
41970DOD     C169729   1.166   5.671   9.988 -0.0511 -0.3135 -0.2107
41970DOD     C269730   1.016   5.936   9.576  0.0853  0.2909 -0.4806
41970DOD     C369731   0.789   6.185   9.313  0.1810  0.2308 -0.0417
41971DOD     C169732   6.863   9.110  17.797 -0.0084 -0.1271 -0.0765
41971DOD     C269733   7.242   9.267  17.616 -0.0758  0.2866 -0.4370
41971DOD     C369734   7.392   9.165  17.213 -0.0392 -0.1133 -0.1791
41972DOD     C169735  27.866   8.901   0.990 -0.2015 -0.2137  0.0223
41972DOD     C269736  27.918   9.131   0.602  0.1412 -0.0068  0.1512
41972DOD     C369737  27.771   9.477   0.348  0.0221 -0.0395  0.0773
41973DOD     C169738  14.818   7.079  26.787  0.2703  0.4182  0.0943
41973DOD     C269739  14.505   7.414  26.963  0.1475 -0.1585 -0.2468
41973DOD     C369740  14.042   7.502  26.779 -0.0346  0.1594 -0.1580
41974DOD     C169741  15.622  26.105   4.424  0.0773  0.3828 -0.2443
41974DOD     C269742  15.473  26.041   3.998 -0.1973  0.0153  0.0876
41974DOD     C369743  15.599  26.247   3.567 -0.1673  0.1126 -0.0421
41975DOD     C169744  12.801   6.509   8.021  0.0448 -0.2265 -0.0914
41975DOD     C269745  13.075   6.721   8.217  0.0433 -0.0713  0.3990
41975DOD     C369746  13.547   6.815   8.279  0.2881 -0.1231 -0.2015
41976DOD     C169747  24.468   0.821   4.011 -0.2387  0.0159  0.3285
41976DOD     C269748  24.812   0.751   3.688 -0.1453  0.1272  0.1555
41976DOD     C369749  25.266   0.754   3.528 -0.1627  0.1108  0.1898
41977DOD     C169750  29.056  26.127  10.103  0.2706  0.3823 -0.0367
41977DOD     C269751  29.251  25.786   9.859 -0.0082 -0.0792 -0.2140
41977DOD     C369752  29.519  25.639   9.521  0.0547 -0.0524 -0.0924
41978DOD     C169753  16.987   4.188  11.542  0.2317  0.0386  0.1469
41978DOD     C269754  17.029   4.029  11.955 -0.1675 -0.1972 -0.0431
41978DOD     C369755  17.003   3.643  12.210  0.0046 -0.0903  0.2969
41979DOD     C169756   5.377  20.323  27.513 -0.1470 -0.2110 -0.1102
41979DOD     C269757   5.477  20.755  27.573 -0.1824 -0.1337  0.2940
41979DOD     C369758   5.467  21.141  27.787 -0.0400 -0.1372  0.2186
41980DOD     C169759   6.613   2.784   7.603  0.0091  0.3335  0.2934
41980DOD     C269760   6.698   2.598   7.163  0.0102 -0.0181 -0.0875
41980DOD     C369761   6.589   2.586   6.728  0.3711  0.2507 -0.2977
41981DOD     C169762  25.455  13.398   2.998  0.2082 -0.0870 -0.1706
41981DOD     C269763  25.802  13.656   3.186  0.1548 -0.0604 -0.0816
41981DOD     C369764  26.257  13.722   3.219  0.1616  0.0208 -0.2206
41982DOD     C169765  20.322  29.955  25.015  0.3589 -0.0287  0.1027
41982DOD     C269766  20.092  30.234  25.305 -0.1421  0.4096 -0.2218
41982DOD     C369767  19.984   0.181  25.692 -0.0441 -0.2197 -0.1150
41983DOD     C169768  11.187  26.141  16.807  0.1345 -0.0547 -0.1420
41983DOD     C269769  11.701  26.227  16.801 -0.1720 -0.0346  0.1379
41983DOD     C369770  11.795  26.586  17.020  0.1863 -0.1001  0.0820
41984DOD     C169771  30.078   2.306  20.040  0.2428  0.2455 -0.0217
41984DOD     C269772   0.020   2.009  20.315 -0.0157  0.1790 -0.1505
41984DOD     C369773  30.326   1.616  20.524  0.1404 -0.1009 -0.0245
41985DOD     C169774   8.972  26.615  28.856  0.1943 -0.0806  0.0050
41985DOD     C269775   8.661  26.708  28.508 -0.0004  0.4468 -0.0232
41985DOD     C369776   8.399  27.029  28.302 -0.1798 -0.0973 -0.1713
41986DOD     C169777   7.978  21.069   1.753 -0.1277 -0.1805  0.2179
41986DOD     C269778   7.783  21.238   2.177  0.1402 -0.0296 -0.0173
41986DOD     C369779   7.480  21.396   2.442  0.0749 -0.2698 -0.0406
41987DOD     C169780   0.922   4.297  20.764  0.0228  0.0110 -0.2333
41987DOD     C269781   1.269   3.977  20.692  0.1368 -0.0378 -0.2577
41987DOD     C369782   1.662   3.713  20.621  0.0727  0.1857  0.1556
41988DOD     C169783  27.487  11.751   2.797 -0.2005  0.0497  0.2758
41988DOD     C269784  27.338  12.003   2.455  0.3002 -0.0509  0.0338
41988DOD     C369785  27.287  12.435   2.589  0.1983  0.1808 -0.0612
41989DOD     C169786  25.064  10.452  30.210 -0.0562 -0.0096  0.3458
41989DOD     C269787  25.221  10.063  29.976 -0.1999  0.2276 -0.1543
41989DOD     C369788  25.487   9.650  29.958 -0.0091 -0.2685 -0.0559
41990DOD     C169789  20.307  20.368  13.489  0.0745  0.0782 -0.1342
41990DOD     C269790  20.143  20.290  13.066  0.1789  0.0979  0.1314
41990DOD     C369791  20.110  20.287  12.612  0.0877  0.1989 -0.0809
41991DOD     C169792   3.708  23.550  10.184  0.2704  0.4197 -0.2226
41991DOD     C269793   3.358  23.757  10.522 -0.0079  0.3384  0.0814
41991DOD     C369794   2.889  23.951  10.697 -0.2036  0.0856  0.1117
41992DOD     C169795  22.319  24.119  12.942 -0.1724  0.1445  0.1192
41992DOD     C269796  22.077  24.374  12.668  0.0811  0.1306  0.0179
41992DOD     C369797  21.822  24.471  12.297 -0.0372 -0.0040  0.0312
41993DOD     C169798  12.367  20.086  15.222 -0.0867 -0.1098 -0.0347
41993DOD     C269799  12.375  20.383  14.834 -0.0171 -0.1494 -0.0810
41993DOD     C369800  12.512  20.820  14.976  0.0907 -0.2515  0.0397
41994DOD     C169801  23.261   8.179  14.043  0.0590 -0.1052 -0.2191
41994DOD     C269802  23.139   8.621  13.930  0.1463  0.0361 -0.2756
41994DOD     C369803  22.734   8.945  13.955  0.1447  0.1242 -0.0760
41995DOD     C169804  28.007  19.194  23.584  0.1887 -0.0590  0.2945
41995DOD     C269805  27.911  19.619  23.522  0.1650 -0.0287 -0.1304
41995DOD     C369806  27.775  19.973  23.226  0.1724 -0.1740  0.4957
41996DOD     C169807  12.739   4.580   3.611 -0.1979 -0.0973 -0.2170
41996DOD     C269808  12.518   4.958   3.820  0.2641 -0.1745  0.4473
41996DOD     C369809  12.279   5.151   4.157 -0.2658  0.0558  0.1621
41997DOD     C169810  24.091  29.436  28.617 -0.2121  0.0510 -0.3831
41997DOD     C269811  24.313  29.623  28.276  0.0946 -0.1428  0.2439
41997DOD     C369812  24.510  29.419  27.930 -0.1955 -0.0236 -0.5025
41998DOD     C169813   1.072   4.248  14.002  0.1347 -0.3301 -0.0053
41998DOD     C269814   0.993   3.821  13.995  0.0115 -0.4755 -0.1714
41998DOD     C369815   1.014   3.347  14.031  0.2364  0.1457 -0.0937
41999DOD     C169816  21.802   2.302   3.234  0.1697  0.1272  0.3386
41999DOD     C269817  21.447   2.034   3.342 -0.0123  0.1232 -0.5562
41999DOD     C369818  21.023   2.076   3.397  0.7078  0.1717 -0.1078
42000DOD     C169819  17.483   2.898  14.874  0.0929 -0.0627  0.1134
42000DOD     C269820  17.928   2.964  14.732  0.1413  0.1673  0.0411
42000DOD     C369821  18.244   3.296  14.562 -0.0038 -0.0806  0.1870
42001DOD     C169822   2.598   3.747   0.251 -0.1800 -0.2129  0.1730
42001DOD     C269823   3.066   3.807   0.357  0.0792  0.0360  0.2929
42001DOD     C369824   3.380   3.670   0.668  0.0078 -0.1016 -0.3025
42002DOD     C169825  11.772   7.906   4.412  0.2140  0.0965 -0.1987
42002DOD     C269826  11.928   7.488   4.603 -0.1867 -0.1045  0.1483
42002DOD     C369827  12.081   7.253   4.932  0.0899  0.1970  0.0306
42003DOD     C169828  26.104  13.058  19.040 -0.0041 -0.0263  0.3474
42003DOD     C269829  26.248  13.201  18.592  0.0366 -0.2063  0.0531
42003DOD     C369830  26.211  13.036  18.158  0.0996  0.0284  0.1497
42004DOD     C169831  25.569   9.979  16.686 -0.0168  0.0554  0.0481
42004DOD     C269832  25.159  10.162  16.770  0.0804 -0.0854  0.6709
42004DOD     C369833  24.922  10.537  16.885 -0.0971 -0.1430  0.1382
42005DOD     C169834  27.562  21.192  17.193  0.0275  0.0193  0.1737
42005DOD     C269835  27.690  20.783  17.432  0.0299 -0.2084 -0.2175
42005DOD     C369836  27.463  20.451  17.695  0.0477 -0.2320  0.1138
42006DOD     C169837  18.179   7.424   7.311 -0.0793 -0.2636 -0.0597
42006DOD     C269838  18.060   6.999   7.558  0.0637  0.1473  0.0846
42006DOD     C369839  17.969   6.526   7.568  0.0888  0.0011 -0.0999
42007DOD     C169840   6.988  21.435   8.418 -0.1206  0.2817  0.2459
42007DOD     C269841   6.819  21.698   8.736 -0.0313 -0.0573  0.1641
42007DOD     C369842   6.575  21.794   9.100  0.0836  0.0599  0.0550
42008DOD     C169843   6.575  27.702   1.507 -0.1150  0.0705  0.1528
42008DOD     C269844   6.418  27.717   1.936  0.0632 -0.0538  0.1068
42008DOD     C369845   6.702  27.666   2.323 -0.0229  0.1569 -0.0828
42009DOD     C169846   6.805  16.270  21.113  0.2985  0.0633 -0.1427
42009DOD     C269847   7.141  16.213  21.372 -0.1523 -0.3075 -0.1659
42009DOD     C369848   7.603  16.176  21.332  0.1773  0.3162 -0.3445
42010DOD     C169849  27.144   5.202  27.853 -0.1461  0.0221  0.2439
42010DOD     C269850  27.090   5.678  27.889  0.1152  0.1048 -0.0822
42010DOD     C369851  27.233   6.110  27.871 -0.0548  0.0470  0.1075
42011DOD     C169852  15.547   1.971  22.083 -0.2856  0.0678  0.0662
42011DOD     C269853  15.283   1.610  21.993 -0.0666  0.0477  0.1516
42011DOD     C369854  15.284   1.300  21.578  0.2003 -0.1914 -0.1621
42012DOD     C169855   3.942  25.621  17.371 -0.1664 -0.1965  0.1194
42012DOD     C269856   4.146  25.919  17.609 -0.2952 -0.2550 -0.1777
42012DOD     C369857   4.278  26.108  17.982  0.1314  0.1664 -0.2473
42013DOD     C169858  13.020  29.764  28.873  0.0663 -0.2837  0.0673
42013DOD     C269859  12.758  29.880  29.267 -0.0608  0.0356 -0.0692
42013DOD     C369860  12.724  29.748  29.685 -0.2364 -0.0846 -0.0469
42014DOD     C169861  26.187   3.942  10.977  0.0654  0.0156 -0.4002
42014DOD     C269862  25.848   4.024  11.287 -0.0709  0.3243 -0.0935
42014DOD     C369863  25.439   4.091  11.560  0.0696 -0.4078  0.2569
42015DOD     C169864  13.459  17.190   4.609  0.0499  0.0431 -0.0604
42015DOD     C269865  13.069  17.220   4.884  0.0776 -0.0248  0.1390
42015DOD     C369866  12.736  17.370   5.164  0.1721  0.1357 -0.3763
42016DOD     C169867  18.791  28.541  14.043 -0.0068  0.0100  0.2854
42016DOD     C269868  18.978  28.481  14.423 -0.0634 -0.3035  0.1140
42016DOD     C369869  19.079  28.050  14.314  0.1360  0.1801 -0.4098
42017DOD     C169870  11.300  13.617  27.224 -0.1274  0.3209 -0.2214
42017DOD     C269871  11.001  13.345  27.306 -0.2551  0.2018 -0.1942
42017DOD     C369872  10.863  12.921  27.548 -0.0642 -0.4034  0.2698
42018DOD     C169873  11.160  22.336  14.872  0.1686 -0.2094 -0.0449
42018DOD     C269874  11.332  22.747  15.074  0.0016 -0.1356  0.1613
42018DOD     C369875  11.557  23.010  15.442  0.1621 -0.1696 -0.0513
42019DOD     C169876  29.487   4.731  15.077 -0.1606 -0.1678  0.1061
42019DOD     C269877  29.282   5.135  15.098 -0.1458 -0.1941  0.1313
42019DOD     C369878  29.456   5.534  15.224 -0.2009 -0.0482 -0.3038
42020DOD     C169879  23.046  10.600   7.226 -0.2533  0.1963  0.0697
42020DOD     C269880  23.135  10.853   7.590  0.1110 -0.3679 -0.2523
42020DOD     C369881  22.807  11.029   7.918  0.1063 -0.0583  0.1557
42021DOD     C169882   3.352   5.166  27.619  0.0590 -0.3508  0.2282
42021DOD     C269883   3.314   5.163  28.112  0.0331  0.0543 -0.0274
42021DOD     C369884   3.409   4.800  28.376 -0.0384 -0.2386 -0.1057
42022DOD     C169885  10.566  14.185  26.565 -0.0684 -0.0065  0.0547
42022DOD     C269886  10.861  13.988  26.226 -0.3008  0.0350 -0.3502
42022DOD     C369887  11.212  13.742  26.144  0.4964  0.1952 -0.0747
42023DOD     C169888  11.035  18.769  11.661 -0.0572 -0.0162 -0.0738
42023DOD     C269889  10.862  18.340  11.633  0.2518 -0.1806  0.0901
42023DOD     C369890  10.994  18.004  11.305  0.0583 -0.3111 -0.0611
42024DOD     C169891  20.065  18.018   9.944 -0.1724  0.3359 -0.0104
42024DOD     C269892  19.698  18.126   9.647 -0.2884 -0.3174 -0.4039
42024DOD     C369893  19.522  18.596   9.493 -0.0102 -0.4947 -0.1690
42025DOD     C169894  26.679  16.791  17.030 -0.3122 -0.2074  0.1883
42025DOD     C269895  26.231  17.054  17.070  0.2526  0.2191  0.1531
42025DOD     C369896  25.813  17.123  17.160 -0.0621  0.2049  0.1075
42026DOD     C169897  13.360  10.030  15.096 -0.2015  0.1097 -0.0058
42026DOD     C269898  13.360  10.086  15.582 -0.0274 -0.4073  0.0849
42026DOD     C369899  13.625  10.101  15.950  0.1420  0.1898 -0.0571
42027DOD     C169900  10.885   2.902  18.913 -0.2434  0.0464  0.1335
42027DOD     C269901  10.597   2.974  19.214  0.0689  0.1064  0.0467
42027DOD     C369902  10.329   3.014  19.574  0.3200 -0.0264 -0.1051
42028DOD     C169903  29.879  14.265   2.864 -0.1502 -0.0389  0.0574
42028DOD     C269904   0.012  14.361   2.799 -0.1018  0.1180 -0.2232
42028DOD     C369905   0.409  14.260   2.602  0.3499  0.4265  0.0659
42029DOD     C169906   1.730   2.279  14.133 -0.0553  0.0944 -0.0688
42029DOD     C269907   2.076   2.372  14.383  0.0910 -0.2104 -0.1106
42029DOD     C369908   2.475   2.649  14.312  0.0570  0.1341  0.0101
42030DOD     C169909  12.088   3.758  13.239  0.2622 -0.1787 -0.1937
42030DOD     C269910  12.327   3.779  13.677 -0.1176  0.0599 -0.0598
42030DOD     C369911  12.812   3.709  13.736 -0.1224 -0.1005  0.1104
42031DOD     C169912  12.745  19.442  10.202 -0.2492 -0.1949 -0.0633
42031DOD     C269913  12.412  19.541   9.885 -0.2667 -0.0506  0.2881
42031DOD     C369914  12.046  19.787   9.919  0.1057 -0.0486  0.2030
42032DOD     C169915   3.693  18.657   8.783 -0.0120  0.1069 -0.2139
42032DOD     C269916   4.033  18.956   8.956  0.5485  0.0542 -0.1931
42032DOD     C369917   4.482  19.006   9.122  0.2800  0.1667 -0.2641
42033DOD     C169918  28.451  16.473   0.263 -0.0125  0.0582  0.1008
42033DOD     C269919  28.890  16.567   0.405  0.1586 -0.0409 -0.0553
42033DOD     C369920  29.288  16.806   0.335  0.1480  0.0592 -0.1536
42034DOD     C169921  11.905  11.352  25.054 -0.0074 -0.0282  0.0490
42034DOD     C269922  11.469  11.168  25.044  0.0143  0.0461  0.1019
42034DOD     C369923  11.049  11.238  25.316 -0.0632 -0.0366 -0.2846
42035DOD     C169924  24.771  11.814  17.652 -0.0444 -0.0646 -0.0070
42035DOD     C269925  24.696  11.564  17.999  0.3322  0.1174  0.1573
42035DOD     C369926  24.900  11.574  18.452 -0.0693 -0.1216 -0.0044
42036DOD     C169927   1.600   8.838  10.555  0.2894 -0.2546 -0.4188
42036DOD     C269928   2.037   8.652  10.603 -0.1021  0.0423 -0.2050
42036DOD     C369929   2.476   8.714  10.604 -0.5214  0.1873  0.0502
42037DOD     C169930   7.228  16.975  13.604  0.0148 -0.1769 -0.2457
42037DOD     C269931   7.623  17.102  13.813  0.0831 -0.2860  0.3665
42037DOD     C369932   8.025  17.364  13.920  0.2403 -0.0677 -0.0826
42038DOD     C169933  28.447  12.676  12.034  0.0738  0.1577  0.1236
42038DOD     C269934  28.553  13.063  11.747 -0.1465  0.0657 -0.1008
42038DOD     C369935  28.458  13.415  11.534 -0.2783  0.1817 -0.2850
42039DOD     C169936  28.403  28.044   2.322 -0.4064  0.1228 -0.3093
42039DOD     C269937  28.715  28.392   2.314  0.2652  0.2298 -0.2286
42039DOD     C369938  28.949  28.762   2.208 -0.0908  0.1341  0.5722
42040DOD     C169939  27.682  17.149  29.790 -0.3788 -0.0884  0.1327
42040DOD     C269940  27.905  17.003  30.109 -0.0203 -0.1062 -0.1708
42040DOD     C369941  28.266  16.703  30.181  0.2164  0.1140 -0.0643
42041DOD     C169942  20.912  17.045  11.467 -0.0689 -0.0545  0.1197
42041DOD     C269943  20.677  17.415  11.394 -0.1297 -0.3903 -0.2793
42041DOD     C369944  20.757  17.775  11.107 -0.0229  0.1904  0.0322
42042DOD     C169945   0.298  18.162   6.460  0.0611  0.2459 -0.1026
42042DOD     C269946  30.304  18.091   6.754  0.0406 -0.0140  0.0278
42042DOD     C369947  30.078  18.212   7.146 -0.0325 -0.0293 -0.1676
42043DOD     C169948   4.465   8.655  10.876 -0.2686 -0.3826  0.1901
42043DOD     C269949   4.843   8.910  10.690  0.1062  0.1462 -0.1324
42043DOD     C369950   5.266   8.911  10.549 -0.2685 -0.1766 -0.1442
42044DOD     C169951   9.415   0.281  29.072  0.1654  0.0162 -0.0046
42044DOD     C269952   9.424   0.387  28.594 -0.2828  0.2226 -0.2722
42044DOD     C369953   9.206   0.629  28.169  0.0409  0.0184  0.1243
42045DOD     C169954  25.446  14.293   1.717  0.0737  0.1213  0.2361
42045DOD     C269955  25.830  14.416   1.613 -0.1993  0.1285  0.1579
42045DOD     C369956  26.032  14.872   1.668 -0.3766 -0.0357 -0.1278
42046DOD     C169957  26.377  24.320  13.865 -0.1808  0.0451  0.1762
42046DOD     C269958  26.375  24.291  13.407  0.2315  0.3831  0.0408
42046DOD     C369959  26.285  24.346  12.921  0.1517  0.0993 -0.1136
42047DOD     C169960  19.372  10.401  19.564  0.3878 -0.2053  0.1775
42047DOD     C269961  19.383   9.927  19.451  0.2187  0.0364  0.2488
42047DOD     C369962  19.085   9.704  19.150  0.1385  0.0275  0.1383
42048DOD     C169963  20.578   1.933  16.442 -0.1177 -0.1453 -0.2055
42048DOD     C269964  20.190   1.623  16.471 -0.0186  0.0185  0.0014
42048DOD     C369965  19.789   1.612  16.171  0.1807 -0.0740 -0.0345
42049DOD     C169966  21.388  19.269  19.770 -0.0327 -0.1853 -0.2113
42049DOD     C269967  21.737  19.249  19.428  0.2855 -0.0490 -0.0218
42049DOD     C369968  21.859  19.693  19.231  0.0103  0.0892  0.0598
42050DOD     C169969  21.797  13.593   8.850 -0.1183 -0.1228  0.1949
42050DOD     C269970  21.756  14.038   9.025  0.2242 -0.1066  0.1963
42050DOD     C369971  21.530  14.403   9.304  0.1823  0.4346  0.1918
42051DOD     C169972   4.457   3.930  17.058  0.2443  0.1362 -0.3910
42051DOD     C269973   4.277   4.309  17.014 -0.5232  0.1583 -0.0345
42051DOD     C369974   4.112   4.752  16.935  0.0048  0.0016  0.1571
42052DOD     C169975   6.361  10.350  11.874 -0.1224 -0.1756  0.0685
42052DOD     C269976   5.912  10.306  11.796  0.1847 -0.0475  0.1760
42052DOD     C369977   5.465  10.247  11.645  0.0870 -0.0525 -0.2537
42053DOD     C169978  27.411  25.584  16.285  0.1208  0.1663  0.2103
42053DOD     C269979  27.138  25.691  15.936  0.1965 -0.2906  0.2530
42053DOD     C369980  26.884  25.838  15.528 -0.1736 -0.1881 -0.0175
42054DOD     C169981  12.018  25.523  26.045  0.1513 -0.0964 -0.0340
42054DOD     C269982  12.136  25.651  25.621  0.0066  0.3500 -0.2625
42054DOD     C369983  12.588  25.714  25.431 -0.3666  0.0674 -0.1689
42055DOD     C169984  29.258  22.844  20.497 -0.0273  0.3666  0.0503
42055DOD     C269985  28.994  22.530  20.324 -0.2499  0.1720  0.0642
42055DOD     C369986  28.615  22.393  20.108  0.1284 -0.0416  0.4318
42056DOD     C169987  25.860   4.420  24.825 -0.2396 -0.0011 -0.1074
42056DOD     C269988  25.698   4.117  24.521 -0.2497 -0.2701 -0.2087
42056DOD     C369989  25.397   4.078  24.150 -0.0476  0.0818  0.0019
42057DOD     C169990  10.533   9.491   2.883  0.1232 -0.1296  0.1554
42057DOD     C269991  10.995   9.639   2.803  0.0282 -0.0032 -0.1478
42057DOD     C369992  11.287   9.732   2.441 -0.0826  0.0826 -0.0876
42058DOD     C169993  26.738  24.759  21.084 -0.0057 -0.0470 -0.4113
42058DOD     C269994  26.552  24.922  20.699 -0.2370 -0.1160  0.2778
42058DOD     C369995  26.244  25.067  20.371 -0.1180 -0.2124 -0.0319
42059DOD     C169996   2.767   2.576  10.254 -0.3709  0.0483 -0.0804
42059DOD     C269997   2.290   2.419  10.226 -0.3365  0.0470 -0.1488
42059DOD     C369998   1.968   2.078  10.265 -0.0425 -0.0745 -0.0037
42060DOD     C169999  28.132  18.681  24.389  0.0821 -0.2192  0.2532
42060DOD     C270000  28.263  18.515  24.757 -0.1470 -0.1143 -0.1508
42060DOD     C370001  28.233  18.133  25.045 -0.0846  0.0923  0.1480
42061DOD     C170002   4.118  17.907  28.745  0.1712 -0.4574  0.1642
42061DOD     C270003   4.485  17.886  29.045 -0.0286  0.2539 -0.0488
42061DOD     C370004   4.613  17.547  29.366  0.5459  0.0494 -0.2012
42062DOD     C170005  21.165  14.102   2.520 -0.1272 -0.1714 -0.0246
42062DOD     C270006  20.787  14.108   2.253  0.1037 -0.0840  0.3540
42062DOD     C370007  20.336  14.198   2.177  0.1702  0.1373 -0.0062
42063DOD     C170008  13.172  15.496  15.350  0.0873  0.0509  0.0221
42063DOD     C270009  13.370  15.157  15.083  0.0606 -0.1331  0.0747
42063DOD     C370010  13.522  14.770  14.868  0.0292 -0.0503 -0.0785
42064DOD     C170011  19.902  18.018  16.184  0.4015  0.0050 -0.0175
42064DOD     C270012  19.999  17.944  16.627  0.0788  0.2243  0.1268
42064DOD     C370013  19.875  18.154  16.993  0.2093 -0.0486 -0.0630
42065DOD     C170014  14.837   1.257  18.768 -0.2148 -0.0273  0.1481
42065DOD     C270015  14.488   1.343  19.016  0.2115  0.1207  0.3365
42065DOD     C370016  14.127   1.295  19.348 -0.0715 -0.0440  0.2854
42066DOD     C170017  13.799  11.688  29.897 -0.0516 -0.0315 -0.1364
42066DOD     C270018  13.746  11.953  -0.030 -0.0349  0.0893 -0.1847
42066DOD     C370019  13.683  12.361   0.094 -0.1120 -0.3332  0.2105
42067DOD     C170020   6.116   9.586  14.000 -0.0001  0.0381  0.1028
42067DOD     C270021   5.980   9.474  13.554  0.0522  0.0535  0.1489
42067DOD     C370022   6.046   9.553  13.110 -0.0923 -0.2373  0.1158
42068DOD     C170023  19.589  30.175  18.362  0.2400  0.4052 -0.0656
42068DOD     C270024  19.329  30.165  18.780  0.0678 -0.0577  0.1682
42068DOD     C370025  18.906  30.204  19.037  0.1299 -0.0498 -0.0772
42069DOD     C170026   9.319   7.099  19.525  0.1506  0.1806  0.1085
42069DOD     C270027   9.776   7.183  19.476  0.0374 -0.3137  0.2091
42069DOD     C370028  10.184   7.008  19.309  0.3042 -0.1713 -0.1696
42070DOD     C170029  14.330  20.110  13.748 -0.4912  0.0426 -0.0674
42070DOD     C270030  14.219  20.281  13.352  0.1018  0.1009  0.1554
42070DOD     C370031  13.954  20.487  13.000 -0.0328  0.0116 -0.1283
42071DOD     C170032   7.357  19.825  22.478 -0.1016 -0.0060 -0.0822
42071DOD     C270033   7.804  19.910  22.605  0.1394 -0.1362 -0.1740
42071DOD     C370034   7.929  19.900  23.031  0.1421  0.0126  0.0769
42072DOD     C170035  25.855   7.269   7.253  0.0109 -0.2808  0.0626
42072DOD     C270036  25.848   7.689   7.167 -0.2161 -0.1043  0.1203
42072DOD     C370037  25.796   8.065   7.463 -0.0960 -0.3467  0.0664
42073DOD     C170038   8.034  24.313  23.477 -0.0247  0.1916  0.1863
42073DOD     C270039   7.561  24.331  23.454 -0.2178  0.1466 -0.1841
42073DOD     C370040   7.046  24.361  23.363 -0.1652  0.0898 -0.2189
42074DOD     C170041   8.933  26.594   9.760  0.2109 -0.2248 -0.0150
42074DOD     C270042   8.655  26.345   9.507  0.1997  0.2739  0.0041
42074DOD     C370043   8.533  25.898   9.292 -0.2659 -0.1642  0.0099
42075DOD     C170044  24.056   2.360  12.014  0.2248 -0.0760  0.1660
42075DOD     C270045  23.678   2.061  11.980 -0.0693 -0.1425  0.1036
42075DOD     C370046  23.389   1.928  11.630 -0.1948 -0.0287 -0.1650
42076DOD     C170047  26.002   7.893   5.179 -0.1941 -0.3027 -0.3866
42076DOD     C270048  25.908   8.100   4.741 -0.0824  0.1220  0.2089
42076DOD     C370049  25.919   8.476   4.600  0.2283  0.2416 -0.0365
42077DOD     C170050  26.405  24.194  25.915 -0.0449 -0.0351  0.0239
42077DOD     C270051  26.637  23.801  25.829  0.3717  0.2371  0.2245
42077DOD     C370052  26.955  23.501  25.964  0.1548 -0.0964  0.1596
42078DOD     C170053   0.751  24.749   7.897 -0.1388 -0.0961  0.0975
42078DOD     C270054   0.334  24.519   7.947 -0.0496  0.3620  0.2604
42078DOD     C370055  30.244  24.701   7.747  0.2183  0.0206 -0.2078
42079DOD     C170056  16.468  15.225   8.665  0.3164 -0.1458  0.1277
42079DOD     C270057  16.653  14.991   9.036 -0.0390  0.1771 -0.0589
42079DOD     C370058  16.877  14.756   9.332  0.0142  0.1645 -0.1238
42080DOD     C170059   9.407  11.821  27.836  0.0024 -0.0920 -0.0027
42080DOD     C270060   9.403  11.415  28.061 -0.2240  0.1034  0.5545
42080DOD     C370061   9.502  11.052  28.295 -0.0445 -0.1897  0.1706
42081DOD     C170062  13.192   0.601   9.234  0.0357 -0.0556  0.1652
42081DOD     C270063  12.898   0.967   9.310  0.1085 -0.1167 -0.0809
42081DOD     C370064  12.447   1.129   9.244 -0.0834 -0.3803 -0.2210
42082DOD     C170065  23.399  11.645  13.473  0.1855 -0.0453 -0.2517
42082DOD     C270066  23.654  11.865  13.211  0.0322  0.0010 -0.1644
42082DOD     C370067  24.040  12.138  13.245 -0.1546  0.3259 -0.0286
42083DOD     C170068   2.118   4.140  13.504 -0.2155  0.0295 -0.0137
42083DOD     C270069   1.918   4.262  13.923 -0.2409 -0.2483  0.2665
42083DOD     C370070   1.873   4.152  14.376 -0.0256 -0.0137 -0.0331
42084DOD     C170071   7.153  29.528  11.202 -0.1999 -0.1460  0.1606
42084DOD     C270072   7.095  29.712  11.583  0.0437 -0.2384 -0.2486
42084DOD     C370073   7.245  29.995  11.972 -0.3641  0.1770 -0.0065
42085DOD     C170074  18.313  15.017  14.534 -0.1495  0.0068 -0.1008
42085DOD     C270075  17.981  15.036  14.817 -0.1151 -0.2328  0.0538
42085DOD     C370076  17.656  15.286  15.017  0.0448  0.2296 -0.0787
42086DOD     C170077  16.832   5.259  26.209 -0.0575  0.1569  0.1480
42086DOD     C270078  17.011   4.851  26.091 -0.3065 -0.0124  0.1152
42086DOD     C370079  17.359   4.553  26.201 -0.2396 -0.0928  0.1066
42087DOD     C170080   8.150   2.271   8.172  0.0745 -0.2690 -0.1084
42087DOD     C270081   8.206   2.355   7.731 -0.0271 -0.0650  0.4286
42087DOD     C370082   8.573   2.155   7.574  0.2293  0.1077  0.4067
42088DOD     C170083   3.506   6.570   0.609 -0.1147 -0.1584 -0.0240
42088DOD     C270084   3.156   6.484   0.356  0.2078  0.0013 -0.1890
42088DOD     C370085   2.826   6.134   0.237  0.4894 -0.1502  0.1427
42089DOD     C170086  18.369  29.537  19.492 -0.0765 -0.0732  0.0453
42089DOD     C270087  18.772  29.397  19.587 -0.4152 -0.1168 -0.0750
42089DOD     C370088  19.165  29.233  19.433  0.2173  0.0238 -0.1297
42090DOD     C170089  29.427  12.313  21.791  0.0798 -0.4031 -0.1468
42090DOD     C270090  29.045  12.249  22.120 -0.2673 -0.0580 -0.0890
42090DOD     C370091  28.893  11.813  22.212 -0.0600 -0.2957  0.3064
42091DOD     C170092   0.996  18.726  21.478  0.0017  0.2858 -0.3078
42091DOD     C270093   1.422  18.637  21.616 -0.1684  0.0510 -0.3002
42091DOD     C370094   1.824  18.461  21.426 -0.0185  0.1243 -0.0649
42092DOD     C170095  20.229  22.751  12.377  0.2013 -0.2068 -0.0507
42092DOD     C270096  20.643  22.547  12.363  0.1366 -0.2687  0.0757
42092DOD     C370097  21.054  22.356  12.261 -0.0494  0.3005 -0.0714
42093DOD     C170098  22.820   5.416  23.458  0.1807  0.0471 -0.1093
42093DOD     C270099  23.025   5.195  23.133 -0.1980  0.1156  0.1665
42093DOD     C370100  23.208   5.164  22.644  0.4235 -0.1815 -0.3807
42094DOD     C170101  26.573   3.850  28.013  0.0685  0.2185 -0.0949
42094DOD     C270102  26.580   3.836  28.497 -0.0959  0.3131  0.0621
42094DOD     C370103  26.427   3.734  28.920 -0.0974  0.0376 -0.1593
42095DOD     C170104  11.005   2.781  14.439 -0.5532  0.0137  0.0887
42095DOD     C270105  11.122   2.355  14.218  0.0719  0.0563  0.2061
42095DOD     C370106  11.377   2.041  14.452 -0.0317  0.1889  0.2190
42096DOD     C170107  23.964   2.876   1.489 -0.2338 -0.2188 -0.0670
42096DOD     C270108  23.565   2.722   1.355  0.0934 -0.0987 -0.0997
42096DOD     C370109  23.454   2.801   0.878  0.2368  0.0658  0.1670
42097DOD     C170110   2.374  16.508  20.684  0.1711 -0.0576  0.0207
42097DOD     C270111   2.096  16.299  20.346 -0.0424 -0.2616  0.1496
42097DOD     C370112   2.092  15.982  19.984  0.2937 -0.3574 -0.1971
42098DOD     C170113   0.547  28.007  13.893 -0.1713  0.0329 -0.1736
42098DOD     C270114   0.750  27.652  14.123  0.1755 -0.1095  0.4703
42098DOD     C370115   0.649  27.262  14.423  0.3213  0.1157 -0.2607
42099DOD     C170116  24.387   1.754  23.371 -0.0075  0.1043  0.0925
42099DOD     C270117  24.563   1.346  23.481  0.1347 -0.0485 -0.0012
42099DOD     C370118  24.821   1.107  23.749  0.0457  0.2648  0.0285
42100DOD     C170119  23.088  22.410  19.548  0.1493 -0.3958 -0.0891
42100DOD     C270120  23.506  22.375  19.303  0.0307 -0.0473  0.4379
42100DOD     C370121  23.948  22.463  19.188  0.0417  0.1815 -0.1580
42101DOD     C170122   8.173   8.971   7.733  0.1179  0.2217 -0.0254
42101DOD     C270123   7.713   9.010   7.541 -0.4705  0.0606 -0.1402
42101DOD     C370124   7.268   9.050   7.390 -0.0295  0.2104 -0.0886
42102DOD     C170125   3.396  12.889  22.582  0.0220 -0.3734 -0.0353
42102DOD     C270126   3.875  12.919  22.592 -0.3148  0.1525  0.0411
42102DOD     C370127   4.221  12.952  22.270 -0.0324 -0.1887 -0.0004
42103DOD     C170128   2.826  14.405  27.259  0.2054  0.0071  0.0521
42103DOD     C270129   3.014  14.351  27.709 -0.1689 -0.1840  0.0360
42103DOD     C370130   2.869  14.038  28.063 -0.0275 -0.0257 -0.0531
42104DOD     C170131   5.112  18.431   1.219 -0.0694 -0.0075 -0.3691
42104DOD     C270132   4.944  18.516   1.688  0.0634  0.1858  0.1159
42104DOD     C370133   4.565  18.757   1.908 -0.0570  0.0897  0.0634
42105DOD     C170134  15.037   1.386  13.201  0.1072  0.1408 -0.0972
42105DOD     C270135  14.593   1.609  13.190  0.3273 -0.0230  0.0832
42105DOD     C370136  14.552   2.001  13.376 -0.1400 -0.5232 -0.0940
42106DOD     C170137  22.898  10.945  27.647  0.3467 -0.4022  0.1979
42106DOD     C270138  22.547  11.100  27.860  0.0255 -0.1992  0.0794
42106DOD     C370139  22.305  11.203  28.282 -0.0809 -0.1112  0.0191
42107DOD     C170140   8.664  20.217  22.867  0.0869  0.2667  0.2360
42107DOD     C270141   8.338  20.066  23.167  0.2337  0.0826 -0.3262
42107DOD     C370142   8.338  19.701  23.539 -0.2036 -0.2751  0.0084
42108DOD     C170143   8.089  22.289   3.930  0.1226  0.1324  0.1746
42108DOD     C270144   7.670  22.467   3.989  0.4385  0.0183 -0.0590
42108DOD     C370145   7.300  22.615   3.819 -0.2641 -0.4622 -0.0805
42109DOD     C170146   4.508  11.632  30.034  0.0639 -0.1010  0.0450
42109DOD     C270147   4.090  11.411  29.809  0.0913 -0.5116 -0.0247
42109DOD     C370148   3.726  11.546  29.551  0.2511  0.2280 -0.1986
42110DOD     C170149   0.171   1.529  30.269  0.1292 -0.0721  0.0061
42110DOD     C270150  30.256   1.247   0.155 -0.0507  0.1234 -0.0563
42110DOD     C370151  29.817   1.007   0.316  0.1170 -0.1181  0.0060
42111DOD     C170152  27.053   4.003  19.925 -0.0234  0.1582  0.1444
42111DOD     C270153  26.586   4.021  20.103  0.1017  0.1233  0.1984
42111DOD     C370154  26.171   3.950  20.030  0.1572 -0.4268 -0.3604
42112DOD     C170155  10.392  25.366   5.371  0.0021 -0.1720 -0.0174
42112DOD     C270156  10.250  25.096   4.961 -0.1898  0.2602  0.0857
42112DOD     C370157   9.918  24.761   4.833  0.1236  0.0366 -0.0998
42113DOD     C170158  22.415   1.916  26.578  0.1947  0.2044 -0.0051
42113DOD     C270159  22.107   1.884  26.217  0.1446 -0.1753  0.3003
42113DOD     C370160  21.783   2.193  25.955 -0.1390  0.0909 -0.0122
42114DOD     C170161   5.966   4.256  13.353 -0.0860  0.0596 -0.1231
42114DOD     C270162   5.708   3.952  13.083  0.0889  0.0237 -0.0011
42114DOD     C370163   5.403   3.589  13.068 -0.1183  0.0262 -0.0877
42115DOD     C170164   9.267  16.874  18.130 -0.0660  0.0095 -0.2267
42115DOD     C270165   9.514  17.040  18.528  0.0772 -0.0814 -0.3369
42115DOD     C370166   9.690  17.245  18.907  0.1192  0.1017  0.0917
42116DOD     C170167  14.768   6.649  19.168  0.2888 -0.0297 -0.0278
42116DOD     C270168  14.309   6.692  19.139  0.2242 -0.0208 -0.1916
42116DOD     C370169  14.189   7.034  19.388  0.1444  0.3515  0.1251
42117DOD     C170170  26.620  14.030  28.181 -0.0489 -0.1767  0.1334
42117DOD     C270171  26.912  14.050  28.566 -0.1394  0.2291  0.0203
42117DOD     C370172  27.261  14.010  28.882 -0.1278  0.1468 -0.0579
42118DOD     C170173   1.979  18.152   5.663  0.0020  0.2486 -0.2216
42118DOD     C270174   2.209  17.821   5.935  0.0210 -0.0744  0.2231
42118DOD     C370175   2.342  17.402   5.725 -0.1715 -0.0788  0.1019
42119DOD     C170176  23.409  20.712   4.870 -0.1878 -0.3086  0.1757
42119DOD     C270177  23.323  21.042   4.555  0.0112  0.3235 -0.0017
42119DOD     C370178  23.019  21.328   4.320 -0.2550  0.1201 -0.1457
42120DOD     C170179   7.496  20.984  24.265  0.0298  0.0484 -0.0788
42120DOD     C270180   7.206  21.132  23.952 -0.1040  0.0437  0.2320
42120DOD     C370181   7.007  21.343  23.509 -0.1699 -0.1078 -0.0327
42121DOD     C170182   3.266  13.572  11.092  0.3140 -0.0545 -0.1925
42121DOD     C270183   2.933  13.854  10.986 -0.0532  0.1221  0.1337
42121DOD     C370184   2.519  13.624  11.187 -0.0007 -0.0241  0.2324
42122DOD     C170185  12.603   8.693  12.303  0.0112  0.2582  0.1560
42122DOD     C270186  12.302   8.765  12.709  0.1885  0.0596 -0.1984
42122DOD     C370187  11.984   9.045  12.847 -0.1213 -0.1405  0.1962
42123DOD     C170188   8.800  20.913   5.900  0.1168  0.0750 -0.1811
42123DOD     C270189   8.665  21.043   5.522  0.0850  0.1562  0.2517
42123DOD     C370190   8.385  20.788   5.204 -0.2293 -0.1292 -0.1575
42124DOD     C170191  13.046   7.133   5.959  0.0469 -0.1259 -0.3423
42124DOD     C270192  13.310   7.437   5.771 -0.3305  0.3371  0.3576
42124DOD     C370193  13.516   7.677   5.461 -0.1343 -0.3042 -0.2413
42125DOD     C170194   5.451  16.251  20.773  0.0477  0.0249  0.2452
42125DOD     C270195   5.492  15.868  20.501 -0.0058 -0.0940 -0.1899
42125DOD     C370196   5.282  15.731  20.124 -0.0154 -0.0256  0.1283
42126DOD     C170197  28.342   8.902  29.846 -0.2042 -0.1245  0.0863
42126DOD     C270198  28.612   8.693  30.202 -0.1205 -0.2365 -0.3081
42126DOD     C370199  28.772   8.487   0.256  0.1297 -0.3041  0.0717
42127DOD     C170200  17.078   8.422  27.042  0.2154 -0.1609 -0.3132
42127DOD     C270201  16.745   8.732  27.173 -0.1823  0.0214  0.0896
42127DOD     C370202  16.294   8.824  27.103 -0.0053 -0.0769 -0.1117
42128DOD     C170203  11.014  10.820   5.514  0.1282 -0.1027 -0.0582
42128DOD     C270204  10.601  10.766   5.561  0.0908 -0.2595  0.1308
42128DOD     C370205  10.180  11.013   5.586 -0.0046  0.1545 -0.3816
42129DOD     C170206   6.422  19.442  25.644 -0.1080 -0.1036  0.0940
42129DOD     C270207   6.900  19.581  25.589 -0.1242 -0.2379  0.0222
42129DOD     C370208   7.297  19.461  25.395 -0.2492 -0.0085 -0.0406
42130DOD     C170209  28.646   5.887  22.358  0.2158  0.1668 -0.0989
42130DOD     C270210  28.242   5.902  22.086  0.1575  0.0913 -0.0777
42130DOD     C370211  27.821   5.811  21.884  0.0453 -0.1217 -0.0884
42131DOD     C170212  23.344   4.901  17.464 -0.1640 -0.1230  0.1422
42131DOD     C270213  23.183   4.933  16.981 -0.0399  0.2426 -0.3011
42131DOD     C370214  23.054   4.605  16.676  0.1212 -0.2708 -0.1498
42132DOD     C170215  26.709  15.633  19.925  0.2249 -0.1720 -0.0069
42132DOD     C270216  26.764  15.207  19.779 -0.0097  0.1005 -0.1353
42132DOD     C370217  26.835  14.873  19.434 -0.1931  0.0872  0.1603
42133DOD     C170218  28.636  20.934  10.246 -0.0249  0.0427  0.1711
42133DOD     C270219  28.205  20.741  10.239 -0.2122  0.0720 -0.1443
42133DOD     C370220  27.925  20.631   9.870  0.1455  0.1367  0.0505
42134DOD     C170221  26.337  13.634  14.544 -0.1274  0.2980 -0.1800
42134DOD     C270222  26.374  14.078  14.692  0.0625  0.2836  0.1003
42134DOD     C370223  26.301  14.121  15.128  0.0505 -0.4392 -0.0854
42135DOD     C170224  29.657  12.888   8.277  0.2302 -0.2144 -0.4009
42135DOD     C270225  29.563  12.841   7.802  0.2763  0.1901  0.1538
42135DOD     C370226  29.226  13.044   7.558 -0.0052 -0.0442 -0.1815
42136DOD     C170227  24.424  16.666   8.111  0.2076  0.0692  0.1150
42136DOD     C270228  24.686  16.487   8.379 -0.0742 -0.2837  0.1518
42136DOD     C370229  24.674  16.222   8.731 -0.1448 -0.0078  0.1699
42137DOD     C170230  16.107  11.884  19.299  0.0363 -0.0733  0.0602
42137DOD     C270231  15.896  11.984  19.722  0.1072  0.0862  0.2313
42137DOD     C370232  15.832  12.262  20.113 -0.2136 -0.0170 -0.0664
42138DOD     C170233   7.347  27.261   6.435 -0.1999 -0.2569 -0.1378
42138DOD     C270234   7.337  27.273   6.942  0.2747  0.1129  0.4653
42138DOD     C370235   7.535  27.239   7.377  0.1050 -0.0983  0.0733
42139DOD     C170236  11.032  15.273  10.730  0.0956 -0.0752 -0.1261
42139DOD     C270237  10.952  15.777  10.764 -0.3351  0.3393 -0.0311
42139DOD     C370238  11.139  16.115  10.439  0.1817 -0.3171 -0.1321
42140DOD     C170239   0.520  28.926  21.952  0.2902 -0.0397 -0.0390
42140DOD     C270240   0.913  28.955  21.707  0.1102 -0.1684 -0.0414
42140DOD     C370241   1.268  29.276  21.589  0.0068 -0.1015  0.1467
42141DOD     C170242  10.915  24.143  14.734 -0.0915 -0.2569 -0.2101
42141DOD     C270243  11.188  23.933  14.405 -0.3333  0.4815  0.2055
42141DOD     C370244  11.552  23.856  14.150  0.1280 -0.1787  0.0392
42142DOD     C170245  27.253   6.776  19.979 -0.3044  0.0292  0.1790
42142DOD     C270246  27.476   6.685  19.551  0.2215  0.0712  0.0708
42142DOD     C370247  27.885   6.672  19.275 -0.2461  0.0857 -0.0489
42143DOD     C170248  20.468   8.805   6.312  0.2550 -0.0567 -0.0385
42143DOD     C270249  20.606   8.732   5.894 -0.2779  0.1128  0.0379
42143DOD     C370250  20.788   8.338   5.719  0.2131 -0.1826  0.1020
42144DOD     C170251  18.391   7.341  22.924  0.1193  0.0298 -0.1750
42144DOD     C270252  18.015   7.514  23.232  0.1638  0.3215 -0.1314
42144DOD     C370253  17.619   7.528  23.506  0.3552  0.0093 -0.2799
42145DOD     C170254   5.889  14.656  23.087  0.0457  0.0358  0.0791
42145DOD     C270255   6.188  14.981  23.068  0.0702 -0.0002 -0.0589
42145DOD     C370256   6.279  15.494  23.136  0.1599  0.2091  0.1015
42146DOD     C170257  23.426   2.135  25.108 -0.1096 -0.4173  0.0661
42146DOD     C270258  23.786   2.318  25.243  0.0015 -0.2433 -0.2706
42146DOD     C370259  24.147   2.354  25.592  0.1193 -0.1660 -0.0938
42147DOD     C170260   7.331  26.420  26.350  0.3084  0.3282 -0.0494
42147DOD     C270261   7.242  25.978  26.153  0.1140 -0.0747  0.0056
42147DOD     C370262   7.456  25.698  25.851  0.2512  0.1384 -0.0847
42148DOD     C170263  12.075  10.643  30.158 -0.0417 -0.0128 -0.2210
42148DOD     C270264  11.717  10.476  29.881 -0.1028  0.1136  0.1282
42148DOD     C370265  11.272  10.519  29.941 -0.1066 -0.2638 -0.1653
42149DOD     C170266  30.115  26.031  28.035 -0.0157  0.0310  0.0313
42149DOD     C270267  29.716  25.874  28.240 -0.1191 -0.1679 -0.0782
42149DOD     C370268  29.411  25.949  28.634  0.7285  0.1389  0.1692
42150DOD     C170269   0.280   9.117  16.311  0.2845  0.0973 -0.1373
42150DOD     C270270   0.108   8.709  16.128  0.3024 -0.1442 -0.2254
42150DOD     C370271   0.168   8.313  15.901  0.3828  0.2052  0.0817
42151DOD     C170272  18.924  24.043  19.811 -0.2710 -0.1248  0.0142
42151DOD     C270273  18.758  24.253  20.191 -0.0059  0.1647  0.0929
42151DOD     C370274  18.719  24.710  20.395  0.1468 -0.1612 -0.1974
42152DOD     C170275   6.420   1.337  26.736  0.2195  0.2017 -0.2979
42152DOD     C270276   6.082   1.231  27.039  0.2146 -0.0875  0.0555
42152DOD     C370277   5.819   1.330  27.383  0.1201  0.4230 -0.0639
42153DOD     C170278  19.197  24.650  24.353 -0.1397 -0.0499 -0.0443
42153DOD     C270279  19.143  24.807  23.904  0.0121  0.0715  0.0715
42153DOD     C370280  18.926  24.962  23.517  0.0739 -0.4373 -0.0318
42154DOD     C170281  11.531  18.997  24.158 -0.2954 -0.0610 -0.3744
42154DOD     C270282  11.565  19.283  23.743  0.0781  0.0292 -0.0132
42154DOD     C370283  11.757  19.601  23.554 -0.0999  0.0188  0.1963
42155DOD     C170284  23.047   8.198  28.610 -0.0753  0.2124 -0.0398
42155DOD     C270285  22.650   8.150  28.387  0.0114 -0.0328 -0.3560
42155DOD     C370286  22.239   7.999  28.242 -0.2904  0.3307 -0.0169
42156DOD     C170287  28.042   5.998  12.791  0.1339  0.1806  0.2580
42156DOD     C270288  28.307   5.698  12.619  0.0009 -0.0091  0.1700
42156DOD     C370289  28.585   5.429  12.807  0.3685  0.1160  0.0061
42157DOD     C170290   4.145  10.165  22.283  0.0871 -0.2207  0.2135
42157DOD     C270291   4.040  10.318  22.658 -0.3672  0.3086  0.0679
42157DOD     C370292   3.855  10.366  23.094  0.1011  0.1379  0.0365
42158DOD     C170293   8.359  28.218   3.374 -0.1984 -0.1489  0.1818
42158DOD     C270294   8.289  28.674   3.157 -0.0228 -0.1263  0.1210
42158DOD     C370295   8.044  29.011   2.985  0.1486 -0.2436  0.3196
42159DOD     C170296  11.956   6.693  20.116 -0.1560  0.2081  0.1300
42159DOD     C270297  11.823   7.086  20.307 -0.1504  0.0957 -0.0628
42159DOD     C370298  11.683   7.347  20.661 -0.0980 -0.1919  0.1885
42160DOD     C170299  22.992  19.692   1.098 -0.1151 -0.0098 -0.0481
42160DOD     C270300  23.087  19.390   0.739  0.2309  0.0065 -0.0336
42160DOD     C370301  23.277  19.210   0.377  0.0585 -0.2931 -0.0554
42161DOD     C170302  19.532  19.663  22.162 -0.2147  0.0161  0.1870
42161DOD     C270303  19.413  19.737  21.723 -0.2823  0.1669 -0.1022
42161DOD     C370304  19.457  19.669  21.229 -0.2298 -0.0440  0.2987
42162DOD     C170305   2.364  29.739   7.365 -0.1572  0.1123 -0.0795
42162DOD     C270306   2.163  30.048   7.636 -0.1414 -0.2578  0.0282
42162DOD     C370307   2.100  30.186   8.103  0.2069  0.2898 -0.0924
42163DOD     C170308  14.748   1.028  10.661 -0.4001 -0.1391 -0.4733
42163DOD     C270309  15.113   1.261  10.758 -0.0524  0.0350 -0.0411
42163DOD     C370310  15.445   1.601  10.735 -0.2543 -0.0619  0.2681
42164DOD     C170311  18.101  25.835   9.344 -0.0844 -0.0639 -0.0444
42164DOD     C270312  18.240  26.234   9.211 -0.0296  0.0417  0.0302
42164DOD     C370313  18.415  26.569   8.870 -0.4054  0.1920  0.3453
42165DOD     C170314   6.705  17.699  26.726  0.0555 -0.0732 -0.1773
42165DOD     C270315   7.011  17.372  26.617  0.0776  0.0901  0.3282
42165DOD     C370316   6.986  17.005  26.362 -0.1527  0.0123 -0.0934
42166DOD     C170317  11.585   7.590   9.918  0.0107  0.3404  0.1236
42166DOD     C270318  12.046   7.686  10.054  0.2090 -0.0286 -0.0472
42166DOD     C370319  12.489   7.647   9.999 -0.0597  0.3981  0.0457
42167DOD     C170320  15.364  17.462  17.976 -0.0879 -0.0291 -0.3272
42167DOD     C270321  15.029  17.233  17.993  0.0447  0.2972  0.0159
42167DOD     C370322  14.822  16.834  17.974 -0.0789  0.3826 -0.0362
42168DOD     C170323   4.256  27.936   4.082  0.1262 -0.1999  0.2890
42168DOD     C270324   4.267  27.892   4.516 -0.1539  0.0604  0.0466
42168DOD     C370325   4.516  27.596   4.796  0.0405 -0.2635 -0.3637
42169DOD     C170326  20.840  14.941   9.183  0.0952 -0.0202 -0.0274
42169DOD     C270327  20.958  15.163   9.604 -0.2090  0.0647 -0.0394
42169DOD     C370328  20.920  15.271  10.084 -0.2929  0.1920 -0.1860
42170DOD     C170329   8.120  12.671  13.870  0.1224 -0.2724  0.3476
42170DOD     C270330   8.092  12.339  14.132  0.1553 -0.0574  0.0277
42170DOD     C370331   8.047  12.329  14.594 -0.0304 -0.0979 -0.0203
42171DOD     C170332  27.832  18.151  28.410 -0.1102  0.0270 -0.3416
42171DOD     C270333  28.118  18.491  28.242 -0.3229 -0.3018 -0.0861
42171DOD     C370334  28.238  18.913  28.384  0.0292 -0.0056 -0.1542
42172DOD     C170335   5.625   9.689  19.784 -0.1835  0.3715  0.3071
42172DOD     C270336   5.352   9.565  20.158 -0.1672 -0.2933  0.1035
42172DOD     C370337   5.168   9.105  20.341 -0.3095  0.2304 -0.1298
42173DOD     C170338  24.535  20.484   3.686  0.0512 -0.0777  0.0113
42173DOD     C270339  24.467  20.841   3.385 -0.0968  0.2025 -0.6296
42173DOD     C370340  24.257  21.226   3.365 -0.1918 -0.2214  0.3106
42174DOD     C170341  25.809  27.083  25.949 -0.0587  0.1172  0.1884
42174DOD     C270342  25.385  26.970  25.802 -0.1227 -0.2480 -0.1853
42174DOD     C370343  25.125  26.648  25.680 -0.0018 -0.2208  0.0618
42175DOD     C170344   5.911  27.495  19.364  0.1918 -0.2731  0.0071
42175DOD     C270345   5.517  27.727  19.382  0.1534  0.1020 -0.4011
42175DOD     C370346   5.425  28.197  19.310 -0.0118  0.1362  0.0976
42176DOD     C170347   9.853   1.902   8.544  0.2263 -0.1343 -0.2074
42176DOD     C270348  10.062   1.942   8.122  0.3751  0.1206  0.0103
42176DOD     C370349   9.998   1.913   7.641 -0.1166  0.1522 -0.2464
42177DOD     C170350  20.851  29.036  17.315  0.2229 -0.4682  0.4088
42177DOD     C270351  20.679  29.327  17.606  0.0873 -0.2212  0.3688
42177DOD     C370352  20.702  29.682  17.810  0.1980 -0.1020  0.0772
42178DOD     C170353  16.012   1.150   3.871  0.1703  0.1797 -0.1259
42178DOD     C270354  15.734   0.757   3.779 -0.0040 -0.0285  0.0809
42178DOD     C370355  15.508   0.310   3.844 -0.1762  0.0289 -0.0147
42179DOD     C170356  20.693  19.381  26.593  0.0064  0.1560  0.0811
42179DOD     C270357  20.269  19.444  26.816 -0.0258 -0.2327 -0.0481
42179DOD     C370358  19.847  19.699  26.872  0.1699  0.4727  0.2157
42180DOD     C170359  21.947   4.178  21.644  0.1379 -0.0772  0.1966
42180DOD     C270360  21.680   3.832  21.825 -0.0065  0.2917  0.0293
42180DOD     C370361  21.346   3.568  22.002  0.4454 -0.2900 -0.0233
42181DOD     C170362  11.374   0.401  13.466 -0.0750  0.1377 -0.0048
42181DOD     C270363  11.103  30.345  13.460 -0.0398  0.1520  0.0374
42181DOD     C370364  11.212  29.949  13.688  0.0910 -0.0711 -0.2008
42182DOD     C170365  29.409  25.784   2.317  0.1671 -0.0843  0.3574
42182DOD     C270366  29.820  26.062   2.301 -0.1297 -0.2904 -0.2858
42182DOD     C370367  30.188  26.065   2.040 -0.1284  0.0660 -0.0217
42183DOD     C170368  12.902  17.261  22.828 -0.1712 -0.1687  0.1452
42183DOD     C270369  12.516  17.096  22.872  0.1487 -0.0016  0.1112
42183DOD     C370370  12.063  17.093  23.061 -0.4024 -0.2017  0.0655
42184DOD     C170371  12.140  20.833  28.560 -0.0679 -0.0756  0.0267
42184DOD     C270372  12.128  20.869  28.090 -0.3463 -0.3376 -0.0831
42184DOD     C370373  12.335  21.098  27.715 -0.1687 -0.1152 -0.0810
42185DOD     C170374  15.266   6.673  10.138 -0.1210  0.1808 -0.0941
42185DOD     C270375  14.902   6.526   9.914  0.0418 -0.1473 -0.1999
42185DOD     C370376  14.667   6.220   9.642  0.3276 -0.0030  0.4378
42186DOD     C170377  15.651  10.197  15.432 -0.0384 -0.0303 -0.2588
42186DOD     C270378  15.964  10.512  15.589 -0.0413 -0.0124 -0.2346
42186DOD     C370379  16.388  10.715  15.464 -0.1141 -0.2067 -0.0171
42187DOD     C170380   7.390  25.818  22.598 -0.3851  0.0072 -0.2130
42187DOD     C270381   7.290  25.553  22.240 -0.0172 -0.3129  0.2669
42187DOD     C370382   7.139  25.609  21.757 -0.2645  0.3247 -0.0282
42188DOD     C170383   1.604   8.988  24.501  0.2245 -0.0014 -0.2322
42188DOD     C270384   1.255   9.210  24.315  0.2942 -0.1024 -0.0710
42188DOD     C370385   1.256   9.663  24.237  0.1845 -0.0107 -0.0089
42189DOD     C170386  28.641  29.426  16.454  0.0005  0.2061 -0.0437
42189DOD     C270387  28.217  29.669  16.412  0.1549 -0.0645 -0.3982
42189DOD     C370388  27.860  29.803  16.629 -0.0648  0.0001 -0.0197
42190DOD     C170389   8.774   1.359  27.585 -0.4778  0.0371  0.1903
42190DOD     C270390   9.012   1.511  27.282 -0.1744  0.1971 -0.1716
42190DOD     C370391   9.409   1.627  26.955 -0.0198  0.0615  0.1118
42191DOD     C170392   6.127  15.898   3.249  0.1437  0.2329 -0.1839
42191DOD     C270393   5.856  16.264   3.191 -0.2314 -0.2078 -0.0610
42191DOD     C370394   5.819  16.681   3.303  0.3487 -0.2738 -0.1957
42192DOD     C170395  10.790   1.662   7.492  0.1548 -0.1761  0.2482
42192DOD     C270396  10.650   1.276   7.591 -0.0437  0.3688  0.0395
42192DOD     C370397  10.308   0.975   7.668 -0.0322 -0.1900 -0.1100
42193DOD     C170398   6.500  17.206   1.519 -0.1011  0.3426 -0.0887
42193DOD     C270399   6.930  17.247   1.383 -0.2408  0.1270 -0.1269
42193DOD     C370400   7.364  17.129   1.257 -0.2932 -0.2191 -0.0161
42194DOD     C170401  24.952  19.817  13.039  0.0191 -0.2877  0.0220
42194DOD     C270402  24.499  19.979  13.149 -0.2820  0.1197  0.2078
42194DOD     C370403  24.053  19.967  13.075 -0.0966 -0.0198 -0.0173
42195DOD     C170404   5.895  22.111  10.705 -0.2040  0.2838  0.0156
42195DOD     C270405   6.298  22.001  10.774 -0.1572  0.1908  0.0537
42195DOD     C370406   6.723  22.018  10.718  0.1479  0.1892  0.4521
42196DOD     C170407   9.737  10.408   4.538 -0.3696 -0.1510 -0.1626
42196DOD     C270408   9.733  10.790   4.798 -0.2304  0.2650  0.0793
42196DOD     C370409   9.592  11.224   4.991 -0.2332  0.0090 -0.3954
42197DOD     C170410  11.865  23.157   2.797 -0.2503  0.2826 -0.1554
42197DOD     C270411  11.485  23.159   3.029  0.1060  0.1607  0.1869
42197DOD     C370412  11.076  22.897   2.971  0.3150 -0.1117 -0.0926
42198DOD     C170413  16.289  26.086   8.006  0.1308  0.0242  0.4141
42198DOD     C270414  16.691  25.972   8.146  0.0800 -0.0579 -0.2483
42198DOD     C370415  17.079  25.775   8.309  0.2789  0.1581 -0.1820
42199DOD     C170416  22.302  28.693  10.950  0.3892  0.1379  0.2697
42199DOD     C270417  22.450  28.303  11.070  0.0441  0.0951  0.0488
42199DOD     C370418  22.691  28.005  11.125  0.0100 -0.2428 -0.3255
42200DOD     C170419  21.210   0.034   3.367  0.1537 -0.2614  0.1394
42200DOD     C270420  21.598  -0.027   3.070 -0.1226 -0.1220 -0.0534
42200DOD     C370421  21.709  30.018   2.719  0.0812  0.1420  0.0223
42201DOD     C170422   8.758  16.312  22.371  0.0775 -0.1407 -0.0555
42201DOD     C270423   8.840  16.810  22.408 -0.1685  0.0217  0.5799
42201DOD     C370424   8.707  17.239  22.511 -0.1094  0.3171 -0.3295
42202DOD     C170425  15.638  18.465  13.086  0.5131 -0.0431  0.1298
42202DOD     C270426  15.435  18.223  12.715 -0.2051  0.1627  0.4286
42202DOD     C370427  15.065  18.143  12.381  0.3653  0.0168 -0.0832
42203DOD     C170428   4.401  25.720  10.861  0.1298 -0.1799 -0.3791
42203DOD     C270429   4.267  26.147  10.731  0.0297  0.1794 -0.0891
42203DOD     C370430   4.086  26.566  10.602 -0.0866 -0.2362  0.2106
42204DOD     C170431  20.242  21.654  11.290 -0.2337 -0.2132 -0.2206
42204DOD     C270432  20.329  21.694  10.819 -0.0007  0.1429  0.2004
42204DOD     C370433  20.486  21.800  10.418  0.3231  0.1956  0.0834
42205DOD     C170434   4.449   8.947  22.862  0.1373  0.4302 -0.0842
42205DOD     C270435   4.686   8.645  22.574  0.1993 -0.0805  0.0820
42205DOD     C370436   4.598   8.457  22.140  0.0039 -0.0438 -0.1299
42206DOD     C170437  15.257  14.737   5.798 -0.1685 -0.3234 -0.1114
42206DOD     C270438  14.848  14.675   5.663 -0.1869  0.2972  0.0325
42206DOD     C370439  14.539  14.293   5.587 -0.3197 -0.1467  0.1035
42207DOD     C170440  10.198   2.854  14.280 -0.2278 -0.0783 -0.1090
42207DOD     C270441  10.099   3.303  14.045 -0.1525 -0.2466 -0.0169
42207DOD     C370442   9.956   3.702  13.830 -0.0671  0.1086  0.1829
42208DOD     C170443   5.459  27.431   3.898  0.1553  0.2307  0.0229
42208DOD     C270444   5.250  27.662   3.567  0.0332 -0.1846  0.0440
42208DOD     C370445   5.176  27.997   3.267 -0.1497  0.2164  0.2832
42209DOD     C170446   1.410   5.573  12.044 -0.0758 -0.0760 -0.3071
42209DOD     C270447   1.641   5.169  12.222  0.0317  0.1947  0.0313
42209DOD     C370448   1.973   4.821  12.138  0.4349  0.5523 -0.2286
42210DOD     C170449   7.107   3.976  29.689  0.0834  0.2260 -0.0158
42210DOD     C270450   6.759   3.702  29.518  0.1571 -0.0422 -0.0617
42210DOD     C370451   6.274   3.677  29.564 -0.0350 -0.0616  0.4956
42211DOD     C170452  24.979  25.359  10.928  0.4356 -0.1418  0.0679
42211DOD     C270453  24.685  24.978  10.890  0.0040  0.1277  0.1698
42211DOD     C370454  24.404  24.624  10.738  0.0421  0.1480 -0.1603
42212DOD     C170455  20.632   5.493   1.273  0.3469  0.0054 -0.0293
42212DOD     C270456  20.156   5.479   1.373  0.0376  0.0736  0.0562
42212DOD     C370457  19.830   5.701   1.602 -0.0662  0.0268  0.0679
42213DOD     C170458  29.303  28.011  20.388 -0.2574 -0.1204  0.0816
42213DOD     C270459  29.649  27.728  20.557 -0.0457  0.0180 -0.1095
42213DOD     C370460  29.847  27.567  20.972  0.0433 -0.2841  0.0055
42214DOD     C170461   6.469  10.339   4.272  0.0148  0.0829 -0.1114
42214DOD     C270462   6.351  10.423   3.838 -0.0141  0.0101 -0.2368
42214DOD     C370463   6.094  10.630   3.535  0.2450  0.1628 -0.1434
42215DOD     C170464  20.039   7.932  12.418 -0.1036  0.3095 -0.1883
42215DOD     C270465  20.388   8.063  12.172 -0.1157 -0.0488 -0.0636
42215DOD     C370466  20.743   8.120  11.843  0.0106 -0.0267 -0.0292
42216DOD     C170467   4.306  24.546   0.870 -0.0120 -0.2479 -0.0201
42216DOD     C270468   4.275  24.153   0.677  0.0330  0.0051  0.0688
42216DOD     C370469   4.206  23.689   0.674 -0.1316  0.1480 -0.0395
42217DOD     C170470  22.321  22.792  26.662  0.1025 -0.1441 -0.3816
42217DOD     C270471  21.809  22.880  26.601 -0.0318 -0.2215  0.2989
42217DOD     C370472  21.439  23.034  26.411  0.2114 -0.2525 -0.0269
42218DOD     C170473  29.159  22.113  19.997 -0.1876 -0.2326 -0.2732
42218DOD     C270474  28.965  22.069  20.474  0.0082 -0.0856  0.0389
42218DOD     C370475  28.953  22.238  20.893 -0.1067 -0.0801 -0.0953
42219DOD     C170476   8.096  18.068  21.169 -0.2273 -0.0636 -0.0387
42219DOD     C270477   7.918  17.848  21.558 -0.0868  0.0544 -0.1782
42219DOD     C370478   7.493  17.740  21.498 -0.0579 -0.1999  0.0154
42220DOD     C170479   5.748  15.304  24.039  0.0557 -0.2395  0.1514
42220DOD     C270480   6.228  15.153  23.922 -0.0097  0.1384  0.4271
42220DOD     C370481   6.436  15.159  23.476  0.0939 -0.2757  0.0289
42221DOD     C170482   9.595  21.648  28.869 -0.1677  0.2877 -0.0842
42221DOD     C270483   9.671  21.833  28.447  0.2305  0.3301  0.0699
42221DOD     C370484   9.505  22.259  28.375  0.3446 -0.1675 -0.3397
42222DOD     C170485  23.668  26.264   8.565 -0.2440 -0.1137 -0.3214
42222DOD     C270486  23.646  25.914   8.900  0.1722  0.1434  0.1926
42222DOD     C370487  23.371  25.615   9.160 -0.0903 -0.1936  0.0141
42223DOD     C170488  11.236  14.952  18.006  0.0618 -0.0142  0.1723
42223DOD     C270489  10.981  15.286  17.817 -0.1028 -0.1065  0.1535
42223DOD     C370490  11.223  15.642  17.621 -0.0928 -0.0793 -0.1501
42224DOD     C170491  27.783   2.887  10.421 -0.1127  0.2157 -0.0281
42224DOD     C270492  27.813   3.295  10.653 -0.3130 -0.4783  0.0357
42224DOD     C370493  27.729   3.661  10.906 -0.2844 -0.1393  0.1198
42225DOD     C170494  22.926  18.768  14.849  0.2525  0.1566 -0.1332
42225DOD     C270495  23.342  18.525  14.663  0.1942  0.2766 -0.0678
42225DOD     C370496  23.628  18.282  14.929 -0.1533  0.2794  0.0286
42226DOD     C170497  26.585  25.338  16.734  0.3262  0.0898 -0.1799
42226DOD     C270498  26.193  25.287  16.970  0.0683  0.1923  0.3111
42226DOD     C370499  25.871  25.499  17.329  0.0374  0.0185  0.2824
42227DOD     C170500  14.508  11.784  26.313  0.2715 -0.1616 -0.0635
42227DOD     C270501  14.262  11.913  25.906  0.3883 -0.1738  0.3073
42227DOD     C370502  14.134  11.751  25.479  0.1534  0.0433 -0.3376
42228DOD     C170503   5.326   7.891  11.495 -0.0367  0.1637 -0.2593
42228DOD     C270504   4.940   8.121  11.409 -0.0040  0.2708 -0.0849
42228DOD     C370505   4.601   8.287  11.165  0.0128  0.2270 -0.0891
42229DOD     C170506   5.174  12.333   7.789 -0.0572  0.0618  0.2267
42229DOD     C270507   5.250  12.004   8.058 -0.0099 -0.3817  0.0976
42229DOD     C370508   5.303  11.956   8.517 -0.2069 -0.0275  0.0491
42230DOD     C170509   6.729  29.768  16.830 -0.0712 -0.0393  0.1545
42230DOD     C270510   6.672  29.551  17.237 -0.2323 -0.2630 -0.1169
42230DOD     C370511   6.585  29.264  17.516 -0.0741  0.0728 -0.1930
42231DOD     C170512  27.450   0.018   1.713  0.0551  0.3118 -0.1758
42231DOD     C270513  27.385  29.937   1.671 -0.2676 -0.0182  0.0498
42231DOD     C370514  27.202  29.533   1.809 -0.0401 -0.0715 -0.0918
42232DOD     C170515  17.040  13.869   4.111  0.0128  0.0196  0.0887
42232DOD     C270516  16.752  13.759   4.503  0.1449 -0.2157  0.0872
42232DOD     C370517  16.920  13.849   4.926  0.3283 -0.1109  0.4022
42233DOD     C170518  19.478  22.871  10.293 -0.4936 -0.0314 -0.0835
42233DOD     C270519  19.445  23.329  10.341  0.3644 -0.1034  0.2115
42233DOD     C370520  19.401  23.782  10.381  0.3247 -0.1009 -0.1463
42234DOD     C170521   7.989  23.838  26.940 -0.0091 -0.4518 -0.0160
42234DOD     C270522   7.779  23.541  27.171 -0.0813  0.0299  0.1896
42234DOD     C370523   7.317  23.516  27.260 -0.1404 -0.0771  0.1702
42235DOD     C170524  12.281  16.925   1.500  0.0429  0.1408  0.0301
42235DOD     C270525  11.968  17.273   1.519  0.3788  0.1745  0.0692
42235DOD     C370526  11.531  17.493   1.566 -0.1926 -0.0113  0.2600
42236DOD     C170527   9.179  28.061  24.681 -0.0788  0.1832 -0.1330
42236DOD     C270528   9.611  28.054  24.517 -0.0164  0.3242  0.1209
42236DOD     C370529  10.019  27.886  24.623  0.0908  0.2249 -0.1764
42237DOD     C170530  11.949  18.687  11.169  0.0747  0.1001  0.0198
42237DOD     C270531  11.770  18.275  11.215  0.1618  0.1332 -0.1830
42237DOD     C370532  11.639  17.842  11.359  0.2826  0.5010  0.1266
42238DOD     C170533  26.320  14.647   1.141  0.2888 -0.0433 -0.2565
42238DOD     C270534  26.433  14.460   1.571  0.1558  0.0766  0.0756
42238DOD     C370535  26.783  14.396   1.935 -0.0834 -0.2373 -0.2643
42239DOD     C170536   4.508   7.052   9.048  0.0247  0.0640  0.0973
42239DOD     C270537   4.842   7.381   8.937  0.2910  0.2333 -0.3197
42239DOD     C370538   4.978   7.724   9.208 -0.2347  0.0667  0.1277
42240DOD     C170539   6.949  14.401  19.930  0.2471 -0.0564 -0.2033
42240DOD     C270540   6.958  13.987  19.676 -0.1458 -0.2380 -0.0952
42240DOD     C370541   6.863  13.653  19.336  0.0804 -0.2935 -0.1003
42241DOD     C170542  14.317   7.725  22.025  0.0203 -0.0485  0.2539
42241DOD     C270543  14.726   7.849  22.066  0.2709 -0.2342  0.1132
42241DOD     C370544  15.040   7.808  22.425  0.1487  0.0816  0.0444
42242DOD     C170545  27.419  26.871   7.995  0.3392  0.0920  0.2484
42242DOD     C270546  27.629  27.302   7.930  0.0032  0.2311  0.1133
42242DOD     C370547  27.917  27.624   7.841  0.0714 -0.1113 -0.0949
42243DOD     C170548   8.379  10.820   1.523  0.2128 -0.0414 -0.0979
42243DOD     C270549   7.958  10.724   1.770 -0.1152 -0.4993  0.2559
42243DOD     C370550   7.626  10.404   1.819  0.2122  0.1387  0.0703
42244DOD     C170551  11.959  16.435   0.502 -0.1888  0.2422  0.1154
42244DOD     C270552  11.911  15.992   0.374  0.0542  0.0202  0.2799
42244DOD     C370553  11.885  15.609   0.147 -0.2758 -0.2509  0.0452
42245DOD     C170554   0.175  10.176  27.867  0.0462  0.1845  0.3311
42245DOD     C270555   0.282  10.454  28.187 -0.1700 -0.1504 -0.3478
42245DOD     C370556  30.188  10.579  28.385 -0.1590 -0.0997  0.5189
42246DOD     C170557  11.501  25.417   2.652 -0.0869 -0.1152 -0.2568
42246DOD     C270558  11.255  25.106   2.910 -0.0677  0.0892 -0.2661
42246DOD     C370559  11.073  25.228   3.324 -0.1299 -0.0453  0.2346
42247DOD     C170560  24.435  25.622   4.309  0.0041 -0.4549  0.1315
42247DOD     C270561  24.034  25.778   4.146  0.2821  0.0432  0.1085
42247DOD     C370562  23.811  25.621   3.744 -0.2446  0.0172  0.2426
42248DOD     C170563   5.619   1.581  26.229  0.1932  0.0719  0.0353
42248DOD     C270564   6.071   1.755  26.122  0.1091 -0.2518 -0.0042
42248DOD     C370565   6.331   1.913  25.775 -0.0464  0.0744  0.0721
42249DOD     C170566  15.766  17.331  23.912 -0.2416 -0.1262  0.0603
42249DOD     C270567  15.826  17.784  23.907 -0.0385  0.0478  0.1602
42249DOD     C370568  15.997  18.173  23.782 -0.2178  0.1058  0.0616
42250DOD     C170569  13.082   5.746   3.783  0.0654  0.2838 -0.1829
42250DOD     C270570  12.689   5.952   3.709  0.1026  0.0049  0.0565
42250DOD     C370571  12.282   5.879   3.405 -0.0233  0.0465  0.3549
42251DOD     C170572  10.448  11.354   8.860  0.0714 -0.0608 -0.0393
42251DOD     C270573  10.679  10.965   8.707  0.1069 -0.0643  0.0920
42251DOD     C370574  10.938  10.739   8.366 -0.0497 -0.1194 -0.2465
42252DOD     C170575  22.298  12.464  10.370  0.0878 -0.1277 -0.2913
42252DOD     C270576  21.938  12.504   9.982 -0.2004  0.1172 -0.3358
42252DOD     C370577  21.570  12.165   9.938 -0.0316 -0.2482 -0.0326
42253DOD     C170578  26.058  11.703  21.673 -0.1294 -0.0768 -0.0655
42253DOD     C270579  26.328  11.925  21.319 -0.0285 -0.1541  0.2090
42253DOD     C370580  26.234  11.827  20.833  0.1551  0.1840  0.1066
42254DOD     C170581  17.194   8.236   9.875 -0.0442 -0.0094 -0.0054
42254DOD     C270582  16.929   8.001   9.627  0.1253 -0.1192  0.1068
42254DOD     C370583  16.724   7.617   9.384 -0.1894  0.1407  0.0259
42255DOD     C170584  28.113   0.864  26.858  0.1200 -0.2055 -0.0624
42255DOD     C270585  28.488   0.985  27.127  0.1710  0.1647 -0.0128
42255DOD     C370586  28.967   0.696  27.195  0.2281 -0.0049  0.3906
42256DOD     C170587  15.224   0.403  26.839 -0.2847 -0.0914  0.1768
42256DOD     C270588  14.791   0.240  26.995 -0.1504  0.1489 -0.1925
42256DOD     C370589  14.372   0.248  26.745  0.1706  0.0116 -0.4503
42257DOD     C170590  11.544  29.437  26.298 -0.2665 -0.2025  0.0600
42257DOD     C270591  11.317  29.772  26.100 -0.0458 -0.1129 -0.1504
42257DOD     C370592  11.142  29.694  25.652  0.0806  0.3532 -0.0509
42258DOD     C170593  26.923   1.199  19.047  0.0252 -0.0452  0.0799
42258DOD     C270594  26.723   1.479  19.352 -0.1954 -0.3125  0.0237
42258DOD     C370595  26.533   1.893  19.488  0.1472 -0.2626 -0.1759
42259DOD     C170596   0.166  18.430  24.207 -0.5904 -0.2674 -0.2376
42259DOD     C270597   0.440  18.734  24.523 -0.0232  0.0806 -0.0086
42259DOD     C370598   0.661  18.680  24.941  0.3909  0.0412  0.0654
42260DOD     C170599  18.997  10.346  28.443  0.0332  0.1024  0.3231
42260DOD     C270600  18.676  10.003  28.243  0.1066  0.1248 -0.0613
42260DOD     C370601  18.332   9.694  28.359 -0.2471 -0.0033  0.0671
42261DOD     C170602  19.555  14.728   6.889 -0.1479 -0.0327 -0.1785
42261DOD     C270603  19.869  14.690   6.532 -0.1440 -0.1975  0.1899
42261DOD     C370604  19.961  15.008   6.231  0.1375  0.0182 -0.0943
42262DOD     C170605   0.919  17.186  28.527 -0.0947  0.2316  0.1258
42262DOD     C270606   0.643  17.407  28.210  0.0366 -0.1685 -0.0968
42262DOD     C370607   0.163  17.587  28.269 -0.2138 -0.0600  0.2169
42263DOD     C170608   1.017   4.754   7.169  0.0806  0.0177 -0.2856
42263DOD     C270609   1.072   4.316   7.249 -0.0229 -0.2675 -0.5099
42263DOD     C370610   0.890   4.006   7.537 -0.0432  0.1091  0.1160
42264DOD     C170611  18.508   6.266   2.265  0.1514 -0.0214 -0.1064
42264DOD     C270612  18.366   6.376   2.685  0.1162  0.1534 -0.0515
42264DOD     C370613  18.049   6.596   2.941 -0.1775 -0.2073  0.1725
42265DOD     C170614  13.153  15.310  28.511 -0.3715 -0.0142 -0.0691
42265DOD     C270615  12.886  15.066  28.718  0.3503 -0.0133  0.2312
42265DOD     C370616  12.654  14.655  28.586  0.3271  0.1135  0.1212
42266DOD     C170617  16.807  21.094   5.982 -0.1406 -0.0085 -0.0460
42266DOD     C270618  17.260  21.016   5.756 -0.5715 -0.0061 -0.1440
42266DOD     C370619  17.721  20.970   5.681 -0.2227 -0.0289 -0.2021
42267DOD     C170620  13.319  29.798  25.820  0.0538 -0.0073  0.2017
42267DOD     C270621  13.388  30.123  25.537 -0.0456  0.0650  0.0280
42267DOD     C370622  13.440   0.072  25.145  0.4249  0.1954  0.1972
42268DOD     C170623  12.808   3.406  17.183 -0.0201 -0.0708 -0.1812
42268DOD     C270624  12.884   3.737  17.544  0.1110  0.0490 -0.3337
42268DOD     C370625  12.941   4.211  17.538  0.3353  0.1179  0.2856
42269DOD     C170626  18.163   7.236  18.094  0.0511 -0.5082  0.0828
42269DOD     C270627  18.548   7.548  17.954  0.3090  0.0121 -0.0655
42269DOD     C370628  18.569   7.920  17.733 -0.0378 -0.0712  0.2663
42270DOD     C170629   6.155   2.375  22.696  0.0641  0.1358 -0.1462
42270DOD     C270630   5.735   2.295  22.868 -0.0382 -0.0883  0.1848
42270DOD     C370631   5.327   2.444  23.008 -0.3421 -0.0960 -0.0898
42271DOD     C170632  19.483   6.541  28.835 -0.0267  0.1381 -0.0757
42271DOD     C270633  19.772   6.434  28.542 -0.0040  0.1901  0.1423
42271DOD     C370634  19.888   5.907  28.500 -0.0050  0.1245  0.0270
42272DOD     C170635  29.789  27.326  28.803 -0.1990 -0.0347 -0.1572
42272DOD     C270636  30.140  27.507  29.002 -0.3418 -0.0760 -0.0458
42272DOD     C370637   0.295  27.517  29.106 -0.1307  0.0540 -0.1222
42273DOD     C170638   7.099  22.838  17.980 -0.0674  0.1881  0.1204
42273DOD     C270639   7.409  22.659  17.725 -0.3453  0.1020  0.3102
42273DOD     C370640   7.683  22.274  17.780 -0.0704  0.2862 -0.0934
42274DOD     C170641  27.393  17.251   0.680 -0.1383 -0.1518  0.0314
42274DOD     C270642  27.722  16.973   0.682 -0.3912 -0.2623 -0.1144
42274DOD     C370643  27.955  16.767   0.295 -0.0768  0.1469  0.3620
42275DOD     C170644  11.869  23.354   6.055 -0.0994 -0.1350 -0.3171
42275DOD     C270645  11.629  23.571   5.733 -0.0606  0.2896  0.0880
42275DOD     C370646  11.521  23.920   5.425 -0.0129 -0.0474  0.0683
42276DOD     C170647  27.554  10.705   5.611  0.1605  0.1408  0.1277
42276DOD     C270648  27.437  11.084   5.879 -0.0198  0.2984 -0.3113
42276DOD     C370649  27.075  11.303   6.194  0.0090 -0.0828  0.0562
42277DOD     C170650  21.144  19.972   8.587  0.2029  0.0905  0.1064
42277DOD     C270651  20.823  19.827   8.917  0.2675 -0.0123  0.3176
42277DOD     C370652  20.584  20.017   9.312 -0.0885  0.1287  0.1251
42278DOD     C170653  20.751  10.358  15.963  0.2213  0.2299 -0.0955
42278DOD     C270654  20.463   9.978  15.971 -0.0766 -0.0377  0.1747
42278DOD     C370655  20.005   9.738  15.957 -0.1699 -0.2343  0.0085
42279DOD     C170656   6.359   6.017   9.376  0.0981  0.3581  0.0487
42279DOD     C270657   6.087   6.318   9.137  0.1037 -0.0245  0.1713
42279DOD     C370658   5.910   6.630   8.937 -0.2234 -0.1873 -0.2594
42280DOD     C170659   6.222   4.960   4.043 -0.0523  0.0177 -0.2658
42280DOD     C270660   6.022   4.920   3.639 -0.1203 -0.0503 -0.0914
42280DOD     C370661   5.903   4.920   3.223 -0.0627  0.1359  0.2115
42281DOD     C170662  19.652  16.586   3.351 -0.1540 -0.0962 -0.0697
42281DOD     C270663  19.585  16.067   3.285 -0.0358  0.1155  0.1760
42281DOD     C370664  19.702  15.655   3.386  0.1222 -0.1427 -0.1698
42282DOD     C170665  13.570  22.038  12.646  0.2008 -0.1372  0.2230
42282DOD     C270666  13.800  22.286  12.937 -0.0556  0.2040  0.2968
42282DOD     C370667  13.963  22.707  12.994  0.0443  0.1620 -0.1317
42283DOD     C170668  14.008  10.079  26.203  0.2802  0.2308  0.1618
42283DOD     C270669  14.103  10.499  26.048 -0.2487 -0.0243  0.0206
42283DOD     C370670  14.166  10.916  25.797  0.0747 -0.3282  0.0477
42284DOD     C170671   8.789   0.748  19.204  0.0274  0.2279  0.0254
42284DOD     C270672   8.754   1.171  19.415 -0.1029  0.2055 -0.0601
42284DOD     C370673   8.483   1.404  19.749  0.0264  0.1985  0.1719
42285DOD     C170674  20.407  26.365  27.500 -0.0183 -0.1195  0.2263
42285DOD     C270675  20.826  26.194  27.586 -0.3241  0.0199 -0.1693
42285DOD     C370676  21.090  26.195  28.034 -0.0699  0.2742  0.0364
42286DOD     C170677   7.186  22.776   1.261 -0.2836 -0.0084  0.2757
42286DOD     C270678   6.751  22.647   1.421  0.0630  0.1550  0.2108
42286DOD     C370679   6.388  22.475   1.311  0.0310  0.3370 -0.3866
42287DOD     C170680  27.309  27.408  13.092  0.0943  0.2322 -0.0721
42287DOD     C270681  27.499  27.655  12.757 -0.3482  0.0183 -0.0871
42287DOD     C370682  27.866  27.922  12.660  0.2632  0.2596  0.1173
42288DOD     C170683  29.379  27.288  22.784  0.2550 -0.1569 -0.0039
42288DOD     C270684  29.084  27.660  22.645 -0.1484 -0.0968 -0.1109
42288DOD     C370685  28.807  27.941  22.840  0.2797  0.0048 -0.2498
42289DOD     C170686  23.005  19.906  20.974 -0.3020 -0.0990 -0.0609
42289DOD     C270687  23.430  19.736  20.834  0.0108  0.0723 -0.2020
42289DOD     C370688  23.896  19.905  20.852  0.0849 -0.2149 -0.0548
42290DOD     C170689  12.487  24.432   3.705  0.0345 -0.2116 -0.0178
42290DOD     C270690  12.500  24.141   3.380  0.3022  0.0895  0.1558
42290DOD     C370691  12.872  23.958   3.154 -0.2380 -0.2334 -0.0600
42291DOD     C170692   3.511  23.254   5.088 -0.1118  0.2104  0.1182
42291DOD     C270693   3.306  22.811   5.111  0.0264  0.3954 -0.3400
42291DOD     C370694   2.905  22.565   5.128  0.0044  0.2394 -0.1787
42292DOD     C170695   9.917   7.194   0.717  0.0124 -0.0442 -0.2465
42292DOD     C270696  10.113   7.595   0.950  0.0878  0.1064  0.0154
42292DOD     C370697  10.179   8.047   0.844  0.1384  0.0857  0.4243
42293DOD     C170698  27.691  27.960  15.252 -0.3035  0.1901  0.2245
42293DOD     C270699  27.249  27.774  15.228 -0.0826  0.0162  0.0172
42293DOD     C370700  27.152  27.498  14.861 -0.1332  0.3097  0.1260
42294DOD     C170701  24.166  20.054  24.697  0.0980  0.2038  0.1984
42294DOD     C270702  24.307  19.670  24.979 -0.0835 -0.1614  0.2297
42294DOD     C370703  24.493  19.499  25.347 -0.0421 -0.1252  0.1456
42295DOD     C170704  14.806  27.116   2.500  0.2001 -0.2430  0.1723
42295DOD     C270705  14.721  27.519   2.353 -0.1612  0.5633 -0.0874
42295DOD     C370706  15.014  27.927   2.315  0.0724 -0.0771 -0.1853
42296DOD     C170707   1.757  17.077  24.114  0.0313 -0.0420 -0.2906
42296DOD     C270708   1.261  17.194  24.036  0.0569  0.0917 -0.0210
42296DOD     C370709   0.924  17.136  24.304  0.0902 -0.1346  0.0958
42297DOD     C170710  12.748   5.197   2.457 -0.0260  0.1212  0.2424
42297DOD     C270711  13.001   4.810   2.529 -0.0786 -0.0022  0.0929
42297DOD     C370712  13.146   4.484   2.786 -0.0921 -0.1041  0.2020
42298DOD     C170713  24.064  14.195   0.930 -0.2476  0.0669  0.0880
42298DOD     C270714  24.258  13.751   0.906  0.1611 -0.0778 -0.1274
42298DOD     C370715  24.505  13.376   0.916 -0.1881 -0.1027 -0.0553
42299DOD     C170716  21.299  21.289   3.688 -0.1463 -0.2245  0.0140
42299DOD     C270717  21.468  21.510   3.331 -0.0478  0.0784  0.0890
42299DOD     C370718  21.342  21.579   2.922  0.5599 -0.0598  0.1215
42300DOD     C170719  14.059   6.262  13.926  0.2389 -0.2429 -0.1620
42300DOD     C270720  14.290   6.248  13.532 -0.1965 -0.1034  0.3546
42300DOD     C370721  14.579   6.124  13.197 -0.0426 -0.1420  0.0796
42301DOD     C170722  28.739   4.185  19.657 -0.3547 -0.1501  0.0059
42301DOD     C270723  29.022   4.144  20.010 -0.1582  0.3665 -0.0942
42301DOD     C370724  29.221   4.031  20.475  0.3353 -0.0992  0.3357
42302DOD     C170725   1.499  26.274  25.271  0.0490  0.0604 -0.0913
42302DOD     C270726   1.414  26.281  25.790 -0.0849  0.2075  0.3713
42302DOD     C370727   1.132  26.277  26.135  0.2416 -0.0366 -0.3868
42303DOD     C170728   4.243   5.842  11.874  0.4313  0.4502  0.0752
42303DOD     C270729   3.979   5.694  12.225  0.1413 -0.0957 -0.2318
42303DOD     C370730   4.107   5.938  12.641  0.3465 -0.0599 -0.0524
42304DOD     C170731  23.880  14.238   2.809  0.0474 -0.4318 -0.0222
42304DOD     C270732  24.172  14.093   3.178 -0.2037  0.1730  0.0178
42304DOD     C370733  24.207  14.193   3.625 -0.0333  0.1734  0.0310
42305DOD     C170734   3.038  24.717  29.226 -0.1696 -0.2589  0.3102
42305DOD     C270735   3.471  24.491  29.347 -0.2158 -0.1204 -0.1353
42305DOD     C370736   3.669  24.088  29.206  0.0564 -0.0908  0.1502
42306DOD     C170737  21.752  26.775  24.331 -0.1989  0.1025 -0.1789
42306DOD     C270738  21.394  26.613  24.589  0.0988 -0.1466 -0.0457
42306DOD     C370739  21.067  26.443  24.883  0.0192 -0.1546 -0.4063
42307DOD     C170740  11.832  29.243   9.220  0.0181 -0.0430  0.3473
42307DOD     C270741  12.076  28.868   9.218  0.1276  0.0334  0.0839
42307DOD     C370742  12.492  28.769   9.324  0.1148 -0.0449 -0.2236
42308DOD     C170743  27.922  28.489  23.890  0.1224  0.1061 -0.1433
42308DOD     C270744  27.798  28.098  24.156  0.1175  0.0131  0.1736
42308DOD     C370745  27.788  27.630  24.013 -0.0467 -0.1268  0.2335
42309DOD     C170746   3.523  26.077  18.240 -0.0043  0.3255  0.2276
42309DOD     C270747   3.246  26.317  17.985 -0.0491 -0.2283 -0.1047
42309DOD     C370748   3.131  26.759  17.820  0.2213  0.2157  0.2312
42310DOD     C170749   0.111   8.889   8.133 -0.0994 -0.2500  0.3735
42310DOD     C270750   0.491   8.632   8.336 -0.0730 -0.3746 -0.2662
42310DOD     C370751   0.957   8.513   8.531  0.2569  0.0589 -0.0510
42311DOD     C170752  22.155   3.209   9.429  0.0504 -0.1686  0.1589
42311DOD     C270753  22.169   2.951   9.783 -0.2467 -0.1841  0.0431
42311DOD     C370754  22.472   2.645   9.852 -0.0097 -0.0030 -0.0228
42312DOD     C170755  20.196  18.104   4.158 -0.1804 -0.0494  0.1050
42312DOD     C270756  20.268  17.634   3.951  0.2776  0.0653  0.2039
42312DOD     C370757  20.398  17.241   3.768  0.0182 -0.0129 -0.2942
42313DOD     C170758  27.601   5.783  27.944  0.0493 -0.1041  0.0054
42313DOD     C270759  27.602   5.404  27.756  0.0203 -0.1621 -0.2593
42313DOD     C370760  27.871   5.120  27.494  0.1602  0.0396 -0.0724
42314DOD     C170761  16.601  15.405   4.842  0.1536 -0.1925 -0.1672
42314DOD     C270762  16.412  15.383   4.424 -0.1643  0.2950 -0.3869
42314DOD     C370763  16.128  15.317   4.070 -0.0955 -0.0044  0.1284
42315DOD     C170764   2.144  25.102   6.522 -0.0076 -0.1443  0.1099
42315DOD     C270765   2.357  25.268   6.895  0.1963 -0.1405  0.0123
42315DOD     C370766   2.514  25.575   7.212  0.0372 -0.0901 -0.5268
42316DOD     C170767   7.915  18.543   5.859 -0.0107  0.0804  0.1849
42316DOD     C270768   7.497  18.444   5.700  0.0904  0.1827 -0.0916
42316DOD     C370769   7.106  18.394   5.462 -0.0590 -0.1027 -0.0479
42317DOD     C170770  23.199  24.361  16.360 -0.1542 -0.1601 -0.1265
42317DOD     C270771  22.921  24.129  16.640  0.0436  0.2623 -0.0949
42317DOD     C370772  22.484  24.085  16.694  0.1603  0.0000 -0.0640
42318DOD     C170773   7.961   2.048   6.097  0.2257 -0.1661  0.1557
42318DOD     C270774   7.804   1.758   6.371 -0.2158  0.0344 -0.1882
42318DOD     C370775   7.904   1.621   6.844  0.0423  0.0216  0.2118
42319DOD     C170776  17.447  24.161  24.424 -0.0750 -0.3525 -0.0918
42319DOD     C270777  17.888  24.180  24.253  0.1668 -0.2261  0.1403
42319DOD     C370778  18.280  24.297  24.053  0.1821  0.1303 -0.1874
42320DOD     C170779  27.475  17.464  20.606  0.0004 -0.1783  0.2057
42320DOD     C270780  27.524  17.434  20.118  0.4260 -0.3337 -0.1327
42320DOD     C370781  27.633  17.362  19.668  0.1582 -0.0533  0.0206
42321DOD     C170782  20.936  13.628   2.366 -0.1843 -0.2340  0.0827
42321DOD     C270783  20.852  13.116   2.339  0.0545  0.2043 -0.0724
42321DOD     C370784  21.074  12.792   2.118  0.1719  0.2785  0.2268
42322DOD     C170785  14.701  18.172   2.181 -0.0925 -0.5585  0.0606
42322DOD     C270786  15.219  18.215   2.196 -0.3740  0.0294 -0.0508
42322DOD     C370787  15.625  18.246   2.436  0.2200 -0.0546  0.1099
42323DOD     C170788  24.446   5.698   8.634 -0.3815 -0.0822 -0.3428
42323DOD     C270789  24.640   5.372   8.358  0.0570  0.2149 -0.0263
42323DOD     C370790  24.838   5.157   7.985  0.1876  0.2935  0.0485
42324DOD     C170791  12.524  21.550  21.591  0.1205  0.3526  0.0391
42324DOD     C270792  12.695  21.265  21.861  0.1009  0.1452  0.2117
42324DOD     C370793  12.655  20.994  22.198 -0.2918  0.2049  0.1200
42325DOD     C170794   3.588  25.162  27.433 -0.0752  0.2364 -0.1196
42325DOD     C270795   3.753  25.260  27.015 -0.0434 -0.1907  0.2079
42325DOD     C370796   3.934  25.269  26.597 -0.1424  0.3951  0.1477
42326DOD     C170797  21.287  11.515   5.000 -0.0107 -0.4237 -0.0290
42326DOD     C270798  21.097  11.061   4.882  0.0122  0.0931  0.1711
42326DOD     C370799  20.743  10.717   5.035  0.1342  0.0884  0.1648
42327DOD     C170800  25.414   2.205   3.173 -0.0944 -0.0712  0.1695
42327DOD     C270801  25.780   2.444   3.381 -0.1607  0.0897  0.2253
42327DOD     C370802  26.206   2.625   3.284  0.0826  0.0949 -0.0670
42328DOD     C170803  28.762   9.124   0.126 -0.0102  0.1038  0.0694
42328DOD     C270804  29.040   9.437  30.246 -0.0436  0.3841 -0.2379
42328DOD     C370805  29.454   9.654   0.069 -0.1085  0.0615 -0.1845
42329DOD     C170806  21.749  26.719   1.116  0.0216 -0.0224 -0.0585
42329DOD     C270807  21.876  26.425   0.787  0.1680  0.0804  0.3043
42329DOD     C370808  22.040  26.472   0.329 -0.0773 -0.0863 -0.2129
42330DOD     C170809   1.916  19.576  23.982  0.1837 -0.1019  0.0616
42330DOD     C270810   1.535  19.682  23.748 -0.4042 -0.0352  0.1681
42330DOD     C370811   1.365  19.476  23.353 -0.0975  0.0458 -0.1350
42331DOD     C170812  19.855  28.901  30.088  0.1641  0.0762 -0.1964
42331DOD     C270813  19.610  29.237  29.828  0.2473 -0.1001 -0.0552
42331DOD     C370814  19.454  29.681  29.760  0.1168  0.0575 -0.1661
42332DOD     C170815  23.524  10.664   6.607  0.1379  0.0329 -0.0491
42332DOD     C270816  23.386  11.130   6.633  0.2584  0.0273 -0.2126
42332DOD     C370817  23.148  11.361   6.898  0.0764 -0.0207 -0.0944
42333DOD     C170818  11.304  17.985  21.711  0.0590 -0.3177  0.1456
42333DOD     C270819  11.595  18.394  21.708 -0.1513  0.0225 -0.4323
42333DOD     C370820  12.020  18.449  21.469  0.0449  0.1494 -0.0912
42334DOD     C170821  15.633  15.709  16.688  0.3386  0.0032 -0.1848
42334DOD     C270822  15.706  16.089  16.469 -0.0472 -0.0614  0.1397
42334DOD     C370823  15.963  16.533  16.360 -0.0508  0.0330 -0.0821
42335DOD     C170824   0.327   3.185  27.804  0.0034  0.3539 -0.1466
42335DOD     C270825   0.254   3.126  28.221  0.0703 -0.2075 -0.0419
42335DOD     C370826   0.084   3.153  28.683 -0.1966  0.0675 -0.2589
42336DOD     C170827  14.784  27.171  22.897 -0.2046  0.1643 -0.1468
42336DOD     C270828  14.489  26.984  23.193  0.1032 -0.2379 -0.1862
42336DOD     C370829  14.253  26.914  23.547 -0.0099 -0.1999  0.1118
42337DOD     C170830   4.905  26.320  24.298  0.2010  0.1252  0.0740
42337DOD     C270831   5.070  25.888  24.321  0.1703  0.0838  0.4855
42337DOD     C370832   5.416  25.669  24.009  0.0773  0.0761  0.0425
42338DOD     C170833   9.659   8.116  12.823 -0.0091  0.2345 -0.0557
42338DOD     C270834   9.319   8.420  13.000  0.1828 -0.2671 -0.0055
42338DOD     C370835   9.109   8.813  12.927 -0.3794 -0.1116  0.3133
42339DOD     C170836  25.920  -0.024   0.417 -0.2937 -0.0801 -0.0036
42339DOD     C270837  25.599   0.295   0.429  0.1274  0.1425 -0.1705
42339DOD     C370838  25.445   0.743   0.478 -0.1217 -0.0293 -0.1236
42340DOD     C170839  18.810   4.090  28.905  0.3816 -0.0418 -0.2150
42340DOD     C270840  18.782   3.846  28.497 -0.0530  0.0066 -0.0606
42340DOD     C370841  18.641   3.503  28.201 -0.0693 -0.0358  0.0254
42341DOD     C170842   6.822  18.559  11.304 -0.1126 -0.1303  0.1721
42341DOD     C270843   6.626  18.783  10.944 -0.2421 -0.1009 -0.3178
42341DOD     C370844   6.423  18.650  10.552  0.0683  0.0607  0.0513
42342DOD     C170845  17.148  13.389   5.034 -0.1180  0.5210  0.0891
42342DOD     C270846  17.023  13.355   4.572 -0.2645  0.1342  0.2002
42342DOD     C370847  16.974  13.120   4.205  0.0002 -0.2297 -0.0349
42343DOD     C170848  15.678   8.135   3.957  0.0019  0.3035 -0.1502
42343DOD     C270849  15.481   8.085   3.512 -0.0185 -0.3136  0.0708
42343DOD     C370850  15.171   8.322   3.166 -0.0130  0.1418 -0.2465
42344DOD     C170851  28.459  13.105  26.112 -0.0983 -0.0680 -0.0804
42344DOD     C270852  28.166  13.032  25.692 -0.3219  0.3218 -0.2027
42344DOD     C370853  28.059  12.885  25.211 -0.1066  0.0977 -0.2966
42345DOD     C170854   5.902  15.147  10.553  0.3831  0.1068 -0.0167
42345DOD     C270855   6.069  14.700  10.524  0.2532 -0.0570  0.1741
42345DOD     C370856   6.277  14.303  10.378  0.2208 -0.1747 -0.1388
42346DOD     C170857  21.577  24.116  10.272  0.1149  0.4510  0.2068
42346DOD     C270858  21.151  23.949  10.010  0.5663 -0.3244  0.4118
42346DOD     C370859  20.779  23.669  10.106 -0.2730  0.0239  0.1221
42347DOD     C170860   9.689   0.366  26.939 -0.3852  0.0512 -0.1460
42347DOD     C270861   9.409   0.198  27.283 -0.2312  0.3498 -0.4414
42347DOD     C370862   8.984   0.159  27.437  0.1058 -0.1831 -0.1498
42348DOD     C170863  27.711  23.490  27.338 -0.3121  0.0791  0.1798
42348DOD     C270864  27.513  23.489  26.861  0.0402  0.3345 -0.3739
42348DOD     C370865  27.099  23.528  26.572  0.2280 -0.4485  0.0970
42349DOD     C170866  26.961  12.238  17.616 -0.0163 -0.2551  0.1457
42349DOD     C270867  26.711  12.240  17.227 -0.0996 -0.2490 -0.0120
42349DOD     C370868  26.413  12.095  16.873 -0.0563  0.1068  0.2621
42350DOD     C170869  19.277   4.451  29.770  0.1946 -0.0641  0.1586
42350DOD     C270870  18.821   4.554  29.611  0.0239 -0.0239  0.3607
42350DOD     C370871  18.350   4.430  29.545  0.2195 -0.1697  0.0041
42351DOD     C170872  18.434  12.008  25.520 -0.0034 -0.4291  0.1934
42351DOD     C270873  18.114  11.789  25.215  0.0707 -0.1411  0.1413
42351DOD     C370874  17.672  11.824  24.996 -0.0297  0.2290  0.3614
42352DOD     C170875  29.222  15.047   3.921  0.4230 -0.1040 -0.2658
42352DOD     C270876  29.540  15.004   3.534 -0.2306 -0.3467  0.1185
42352DOD     C370877  29.875  15.206   3.260 -0.3771 -0.0102 -0.1911
42353DOD     C170878  27.999  24.917  15.207  0.1308 -0.0294 -0.0533
42353DOD     C270879  28.056  25.382  15.380 -0.1696 -0.0553 -0.0603
42353DOD     C370880  27.936  25.691  15.747 -0.0005  0.0499  0.0545
42354DOD     C170881  24.072  17.054  13.980  0.2214  0.2347  0.0514
42354DOD     C270882  24.337  17.182  14.322 -0.1835  0.4110  0.0529
42354DOD     C370883  24.655  17.466  14.513  0.0046  0.1589 -0.3486
42355DOD     C170884  11.758  28.535  13.266  0.0139 -0.1880  0.2204
42355DOD     C270885  11.604  28.565  12.757 -0.2539 -0.2926  0.0024
42355DOD     C370886  11.479  28.334  12.383  0.0315  0.0992 -0.1111
42356DOD     C170887  13.450   0.232  13.900  0.0643 -0.2383  0.0963
42356DOD     C270888  13.141   0.563  13.944  0.0581 -0.0932 -0.2921
42356DOD     C370889  12.719   0.577  14.173 -0.0806 -0.0279 -0.0799
42357DOD     C170890  16.477  12.263  19.041  0.1006 -0.0487  0.4563
42357DOD     C270891  16.775  12.244  18.720 -0.2041 -0.0844 -0.0960
42357DOD     C370892  17.006  12.428  18.395 -0.2032  0.0807  0.1466
42358DOD     C170893  21.977  19.329  29.509 -0.1347  0.1406 -0.0482
42358DOD     C270894  22.163  19.303  29.904  0.1171  0.1053  0.2302
42358DOD     C370895  22.407  19.193  -0.003 -0.0596 -0.1404 -0.1092
42359DOD     C170896  23.482  15.058  11.201 -0.4647  0.2163  0.0678
42359DOD     C270897  23.942  14.897  11.230 -0.0401 -0.1627  0.1176
42359DOD     C370898  24.368  15.010  11.132 -0.3093 -0.0412 -0.2043
42360DOD     C170899  22.432  10.699   6.109  0.0047 -0.3091  0.1752
42360DOD     C270900  22.213  10.830   6.472  0.3927 -0.0793  0.0574
42360DOD     C370901  21.897  10.946   6.793 -0.3057 -0.0289  0.0072
42361DOD     C170902  25.904  14.970   4.933 -0.0382 -0.0346 -0.3747
42361DOD     C270903  25.929  15.276   4.580 -0.0203  0.1460 -0.2287
42361DOD     C370904  25.958  15.727   4.533  0.1512 -0.2556  0.1519
42362DOD     C170905   8.714   1.991   4.210  0.0243 -0.2953 -0.1858
42362DOD     C270906   9.028   2.094   3.843  0.0975  0.2707  0.2226
42362DOD     C370907   9.149   1.984   3.432 -0.0869 -0.0283 -0.0148
42363DOD     C170908   9.283  25.046   8.584  0.1239 -0.2078  0.1802
42363DOD     C270909   9.442  24.999   9.044 -0.1112 -0.0408 -0.0134
42363DOD     C370910   9.633  24.937   9.467  0.1606  0.0670  0.0785
42364DOD     C170911   9.939  16.402  22.176 -0.1383 -0.0178  0.0223
42364DOD     C270912  10.376  16.169  22.018 -0.0861  0.0390 -0.2093
42364DOD     C370913  10.715  16.095  21.745 -0.1619 -0.2607 -0.0590
42365DOD     C170914  13.883   7.167  27.325  0.2903 -0.1272 -0.0335
42365DOD     C270915  14.010   7.622  27.250 -0.0839 -0.1809  0.1822
42365DOD     C370916  14.465   7.828  27.214  0.0373 -0.0273 -0.0994
42366DOD     C170917  14.237   3.574  23.498  0.0947 -0.0479 -0.1461
42366DOD     C270918  13.837   3.506  23.238  0.1863  0.1972 -0.3281
42366DOD     C370919  13.600   3.684  22.898  0.0452  0.3082  0.1455
42367DOD     C170920  13.250  20.099  12.030 -0.3064 -0.1038 -0.1336
42367DOD     C270921  13.271  20.029  12.521 -0.0169  0.4059  0.2550
42367DOD     C370922  13.235  19.699  12.895  0.0419 -0.0095 -0.1137
42368DOD     C170923   9.319  25.988  23.208  0.4971  0.0210 -0.0281
42368DOD     C270924   9.538  25.944  23.585  0.1136 -0.0117  0.0796
42368DOD     C370925   9.582  26.228  23.894  0.2101 -0.1205 -0.0331
42369DOD     C170926  22.649   8.501  25.706 -0.1292  0.1099 -0.2619
42369DOD     C270927  22.710   8.120  25.974  0.4582 -0.2271  0.1294
42369DOD     C370928  22.909   7.739  26.106  0.2089  0.0980  0.1597
42370DOD     C170929  15.647  23.325  18.969 -0.0108  0.1513  0.1023
42370DOD     C270930  15.268  23.327  18.752  0.1414  0.1200  0.2102
42370DOD     C370931  14.939  23.283  18.389 -0.1387 -0.1776 -0.2447
42371DOD     C170932   8.652   0.138  29.661  0.5061 -0.3274 -0.1378
42371DOD     C270933   8.565  30.229  30.039 -0.0359  0.1283 -0.1011
42371DOD     C370934   8.746  30.133   0.173 -0.0031  0.0862  0.3101
42372DOD     C170935  18.618   2.199  12.190 -0.0296  0.1005 -0.2294
42372DOD     C270936  18.992   1.912  12.271  0.0957 -0.5025  0.0051
42372DOD     C370937  19.272   1.891  12.587  0.0331  0.2529  0.1028
42373DOD     C170938  18.867   3.935  17.654  0.0998 -0.2130  0.0828
42373DOD     C270939  18.691   3.707  18.029  0.0453 -0.1849 -0.2291
42373DOD     C370940  18.895   3.381  18.271 -0.0373  0.0156 -0.1137
42374DOD     C170941   2.597  10.007  29.727 -0.0557  0.2158  0.1448
42374DOD     C270942   2.165  10.153  29.671  0.1847 -0.0828  0.2541
42374DOD     C370943   1.748  10.359  29.601  0.1495  0.1704  0.0965
42375DOD     C170944   6.438  11.597   4.638  0.2119  0.0001 -0.0374
42375DOD     C270945   6.039  11.605   4.908  0.1753  0.1232 -0.0167
42375DOD     C370946   5.884  11.222   5.082  0.4574  0.0674  0.2150
42376DOD     C170947  11.350  21.146  21.788 -0.0061  0.0872  0.1376
42376DOD     C270948  11.688  20.800  21.939  0.1665 -0.0121 -0.0895
42376DOD     C370949  12.088  20.606  22.143  0.0166 -0.0126 -0.2549
42377DOD     C170950  27.488   5.411   1.051 -0.1145  0.0869  0.1752
42377DOD     C270951  27.190   5.269   1.425 -0.0915  0.0626 -0.0474
42377DOD     C370952  27.089   5.227   1.861 -0.0708 -0.1375  0.1161
42378DOD     C170953   7.132  26.672   4.721  0.0720 -0.1030 -0.3406
42378DOD     C270954   7.593  26.529   4.653 -0.2546 -0.0178  0.0745
42378DOD     C370955   7.934  26.509   5.020 -0.1152  0.1139  0.1435
42379DOD     C170956  19.925  27.486  25.373  0.0976  0.1432  0.2882
42379DOD     C270957  19.945  27.218  24.975 -0.4520  0.1355 -0.3088
42379DOD     C370958  19.747  27.004  24.585  0.0670  0.3026  0.1040
42380DOD     C170959   8.475   6.554   1.544 -0.1352  0.2533 -0.2756
42380DOD     C270960   8.398   6.893   1.304  0.0764 -0.1146  0.0676
42380DOD     C370961   8.495   7.259   1.067  0.2872 -0.3049  0.0171
42381DOD     C170962  20.771   9.973   5.467  0.1211 -0.0159  0.0073
42381DOD     C270963  20.976  10.027   5.887 -0.2270  0.2783 -0.0547
42381DOD     C370964  20.839  10.048   6.329 -0.0202 -0.1686  0.3404
42382DOD     C170965  18.875   6.823  26.904  0.0432 -0.0400 -0.3054
42382DOD     C270966  18.773   7.261  26.754  0.2678  0.1828  0.1827
42382DOD     C370967  18.465   7.507  26.509 -0.1132  0.0499  0.0820
42383DOD     C170968   1.909  10.551  22.934 -0.0085  0.1699  0.0136
42383DOD     C270969   2.244  10.241  22.835 -0.1187  0.0572 -0.2507
42383DOD     C370970   2.535   9.909  22.695 -0.1058 -0.1753  0.0956
42384DOD     C170971  18.321   0.695  22.350 -0.0500 -0.0081 -0.1542
42384DOD     C270972  17.846   0.736  22.383  0.3496 -0.1581  0.0727
42384DOD     C370973  17.366   0.831  22.383 -0.0044 -0.2348 -0.0959
42385DOD     C170974  19.237  24.318  29.920  0.0903 -0.0353 -0.3553
42385DOD     C270975  19.357  24.671  29.671 -0.1084 -0.0234  0.0731
42385DOD     C370976  19.587  25.119  29.552  0.1935  0.1902  0.0027
42386DOD     C170977  23.544  15.074  19.346  0.1205 -0.0287 -0.3578
42386DOD     C270978  23.125  15.047  19.519  0.0409 -0.1398  0.0980
42386DOD     C370979  22.701  14.917  19.696  0.0395  0.0889 -0.3836
42387DOD     C170980  30.136  12.015  27.831 -0.0310  0.0562 -0.1642
42387DOD     C270981  30.162  11.594  27.975  0.0947 -0.0083 -0.0572
42387DOD     C370982   0.037  11.165  28.016  0.0128  0.1332 -0.2478
42388DOD     C170983  13.794  15.744   3.612  0.0998  0.2664  0.1689
42388DOD     C270984  13.887  15.571   4.034 -0.0124  0.1129 -0.1307
42388DOD     C370985  14.254  15.447   4.326  0.3990  0.2823 -0.1285
42389DOD     C170986   2.898  19.849  17.865 -0.0057  0.2640 -0.2622
42389DOD     C270987   2.625  19.509  18.096  0.2442 -0.4456  0.2029
42389DOD     C370988   2.355  19.083  18.153 -0.0684  0.1301  0.0843
42390DOD     C170989   6.948  28.952  11.761 -0.2933  0.0439  0.2782
42390DOD     C270990   6.699  29.273  11.502 -0.1515  0.0439 -0.0513
42390DOD     C370991   6.627  29.546  11.179 -0.0471  0.2476 -0.1347
42391DOD     C170992  30.040  16.356  13.506  0.2641 -0.1519  0.1922
42391DOD     C270993  29.963  15.917  13.663  0.2602  0.0563  0.3256
42391DOD     C370994  29.751  15.755  14.023  0.2158  0.0182 -0.1494
42392DOD     C170995  23.846  18.106  11.781 -0.0359 -0.3530 -0.0004
42392DOD     C270996  23.769  17.972  12.199 -0.0385 -0.0870  0.0789
42392DOD     C370997  23.488  17.956  12.520 -0.0178  0.0039 -0.1780
42393DOD     C170998   9.353  30.137  29.202  0.1571 -0.4852 -0.0957
42393DOD     C270999   9.378  30.144  28.696 -0.1538 -0.3772  0.1286
42393DOD     C371000   9.278  30.258  28.299  0.0634  0.0499 -0.2369
42394DOD     C171001  28.068  25.736  16.797  0.1689 -0.3102  0.3317
42394DOD     C271002  27.692  25.481  16.679 -0.0868 -0.0283  0.0437
42394DOD     C371003  27.323  25.106  16.626 -0.0902  0.0002 -0.0513
42395DOD     C171004  28.039  10.849  10.052 -0.1333  0.1263  0.2075
42395DOD     C271005  27.861  11.169  10.342  0.1568 -0.1186  0.2000
42395DOD     C371006  27.830  11.598  10.571  0.0377  0.0250  0.0124
42396DOD     C171007  21.025   9.418   9.718 -0.1955  0.0198  0.2673
42396DOD     C271008  21.373   9.482   9.447 -0.3934  0.2542  0.1462
42396DOD     C371009  21.861   9.543   9.380  0.1842  0.3121  0.1800
42397DOD     C171010   6.813   2.605   4.263  0.2173 -0.0624  0.1128
42397DOD     C271011   6.581   2.667   3.858  0.0504  0.2708  0.0061
42397DOD     C371012   6.397   2.527   3.464 -0.3227  0.0300  0.0192
42398DOD     C171013  14.927  10.141  18.820  0.1730  0.1286  0.0165
42398DOD     C271014  14.619   9.817  18.911 -0.0712  0.2443 -0.2763
42398DOD     C371015  14.193   9.631  19.115 -0.1249  0.1212 -0.1632
42399DOD     C171016   3.072  23.874  27.419 -0.1300 -0.1052  0.0725
42399DOD     C271017   3.043  24.036  26.990  0.0860 -0.2189 -0.0418
42399DOD     C371018   3.345  24.134  26.645 -0.1737 -0.2592 -0.1490
42400DOD     C171019   3.191   7.446  29.969 -0.1371  0.3974 -0.0087
42400DOD     C271020   2.740   7.542  29.804  0.1891  0.0488  0.0742
42400DOD     C371021   2.702   7.572  29.364  0.1379 -0.0943 -0.0513
42401DOD     C171022   9.869  11.994  25.310 -0.1738  0.4162 -0.1431
42401DOD     C271023  10.320  11.936  25.397 -0.1028  0.2628 -0.3118
42401DOD     C371024  10.702  12.120  25.403 -0.0362 -0.1846 -0.3038
42402DOD     C171025  24.432  12.104   0.016 -0.1859  0.0774 -0.0099
42402DOD     C271026  24.667  12.281  29.968  0.0115  0.0321 -0.1225
42402DOD     C371027  24.742  12.585  29.664 -0.2964 -0.0783 -0.0181
42403DOD     C171028  26.421  17.271   4.492  0.3599 -0.0249  0.1434
42403DOD     C271029  26.461  16.878   4.213  0.0654  0.0735  0.3957
42403DOD     C371030  26.451  16.536   3.949 -0.1260  0.0653  0.0883
42404DOD     C171031   2.262  13.540   8.341  0.0526  0.3054 -0.1365
42404DOD     C271032   2.365  13.741   7.926 -0.1266 -0.2255 -0.1547
42404DOD     C371033   2.337  13.903   7.507  0.4165 -0.1065 -0.2284
42405DOD     C171034  18.009  21.113  28.656  0.0379  0.1281 -0.0103
42405DOD     C271035  17.593  21.288  28.531 -0.0592  0.1100 -0.1640
42405DOD     C371036  17.210  21.291  28.764  0.1475  0.0592  0.0648
42406DOD     C171037  19.106  29.235   8.017 -0.0213  0.1046 -0.1872
42406DOD     C271038  19.464  29.166   7.736  0.0222  0.2839  0.1787
42406DOD     C371039  19.702  28.852   7.476  0.0576 -0.0225 -0.0315
42407DOD     C171040  14.727  30.126  20.183 -0.1823 -0.3354 -0.0566
42407DOD     C271041  14.282  30.260  20.356 -0.0147  0.2355 -0.1306
42407DOD     C371042  13.863  30.279  20.624  0.0498  0.0059 -0.2234
42408DOD     C171043   7.125  18.916  11.501 -0.1288  0.0733  0.5149
42408DOD     C271044   7.064  19.357  11.472  0.1403 -0.0573 -0.0859
42408DOD     C371045   7.044  19.662  11.096  0.0462  0.4317 -0.2964
42409DOD     C171046  29.222  17.960  21.820  0.1512 -0.1799  0.0274
42409DOD     C271047  29.064  18.384  21.930 -0.2621  0.1230 -0.2232
42409DOD     C371048  28.976  18.820  21.896  0.0432  0.0583  0.2771
42410DOD     C171049  18.056  16.401  24.183 -0.1243 -0.1757  0.1639
42410DOD     C271050  17.812  16.427  24.503  0.0378  0.4080 -0.3665
42410DOD     C371051  17.733  16.768  24.786  0.1815 -0.0416  0.2537
42411DOD     C171052  17.221  17.736  15.710  0.0998  0.1889 -0.2794
42411DOD     C271053  17.040  17.344  15.833  0.0570  0.2008  0.0114
42411DOD     C371054  16.975  16.966  16.035 -0.0604  0.1937  0.0055
42412DOD     C171055   0.333   9.107  11.255  0.2378 -0.1345  0.3338
42412DOD     C271056   0.450   9.492  11.501  0.1339 -0.1684  0.0806
42412DOD     C371057   0.678   9.528  11.899 -0.1864 -0.0049  0.0435
42413DOD     C171058  17.295  15.859  24.949 -0.0864 -0.1136  0.2253
42413DOD     C271059  16.878  16.045  24.838  0.0233  0.1738  0.1083
42413DOD     C371060  16.657  16.401  24.843  0.2548 -0.0542 -0.0811
42414DOD     C171061  29.998  21.735  30.025  0.3660 -0.1252 -0.0599
42414DOD     C271062  29.623  21.529  29.842 -0.1676  0.0669  0.1542
42414DOD     C371063  29.236  21.263  29.910 -0.1153 -0.1331 -0.1351
42415DOD     C171064   0.868  12.758   8.075  0.1194  0.0351  0.0061
42415DOD     C271065   1.205  12.925   8.377 -0.0820  0.1362  0.2549
42415DOD     C371066   1.397  13.276   8.324 -0.1467  0.3712 -0.2242
42416DOD     C171067  23.025  20.170  30.094  0.0193  0.3771  0.0311
42416DOD     C271068  23.164  20.310   0.217  0.0404 -0.2003 -0.0782
42416DOD     C371069  23.250  20.348   0.644 -0.2633  0.0352  0.0744
42417DOD     C171070   1.886   1.851  11.018 -0.0354 -0.0974 -0.6532
42417DOD     C271071   1.650   1.454  11.026  0.2235 -0.0637  0.1455
42417DOD     C371072   1.506   0.970  11.001  0.1929  0.0362  0.1661
42418DOD     C171073   7.110  12.833  20.358 -0.0889  0.1950 -0.0994
42418DOD     C271074   7.049  12.624  20.765 -0.2518 -0.0760  0.1078
42418DOD     C371075   6.676  12.489  21.062 -0.4573  0.1286 -0.0528
42419DOD     C171076  21.644  21.194   0.286  0.0394  0.1604  0.1789
42419DOD     C271077  21.910  21.153  30.226  0.0824  0.2340 -0.1135
42419DOD     C371078  22.364  21.199  30.094  0.4450  0.0705 -0.3808
42420DOD     C171079  27.959  13.588  22.807 -0.0346  0.0369  0.1630
42420DOD     C271080  27.892  13.868  22.476  0.2869 -0.1813 -0.0107
42420DOD     C371081  27.814  14.038  22.040 -0.1867  0.0882 -0.1228
42421DOD     C171082   5.854  27.374  11.090  0.0905  0.4694  0.0965
42421DOD     C271083   6.209  27.588  11.028  0.2618  0.0382 -0.1168
42421DOD     C371084   6.638  27.577  11.121  0.2041 -0.0053  0.4263
42422DOD     C171085  21.145  13.382  11.573 -0.0854  0.1038  0.0540
42422DOD     C271086  20.677  13.329  11.432 -0.0817 -0.0697 -0.2172
42422DOD     C371087  20.310  13.100  11.632  0.1738 -0.1592  0.1487
42423DOD     C171088   0.612  19.310  17.206  0.2536 -0.4272 -0.2199
42423DOD     C271089   0.536  18.925  17.434 -0.1294 -0.0866  0.2887
42423DOD     C371090   0.579  18.510  17.675  0.0198 -0.3180  0.0067
42424DOD     C171091  13.392  25.022  30.140  0.1998 -0.1039 -0.3025
42424DOD     C271092  13.830  24.879  30.082 -0.0425 -0.2395  0.2443
42424DOD     C371093  14.242  25.022  29.853  0.0102 -0.0096 -0.0766
42425DOD     C171094  29.898   4.743  15.692  0.0732  0.0388 -0.4361
42425DOD     C271095  29.921   5.175  15.876  0.0114  0.4041 -0.1935
42425DOD     C371096  29.703   5.411  16.244 -0.2039  0.0681  0.3156
42426DOD     C171097  15.738  11.874  14.912  0.3846 -0.1531 -0.1489
42426DOD     C271098  15.894  11.609  15.231  0.3222  0.0215  0.2610
42426DOD     C371099  15.922  11.592  15.694 -0.0253  0.1376 -0.1946
42427DOD     C171100  23.709   5.463  11.781  0.1309  0.2691 -0.0110
42427DOD     C271101  24.031   5.632  12.094  0.1452  0.1312 -0.2741
42427DOD     C371102  24.082   5.850  12.492  0.0520  0.0033  0.0363
42428DOD     C171103  16.725  21.464   3.144  0.1832 -0.2485  0.2041
42428DOD     C271104  16.481  21.207   2.849 -0.1771  0.2765 -0.0457
42428DOD     C371105  16.517  21.021   2.452 -0.2777 -0.2672  0.1927
42429DOD     C171106  18.788   8.456  19.550  0.0450 -0.1503  0.1550
42429DOD     C271107  18.660   8.599  19.991  0.0060 -0.3843  0.4584
42429DOD     C371108  18.294   8.859  20.079 -0.2873 -0.1074 -0.1310
42430DOD     C171109  11.591  19.448   6.162  0.4237  0.1464 -0.1262
42430DOD     C271110  11.860  19.130   6.400  0.0191  0.1537  0.1070
42430DOD     C371111  11.984  18.673   6.501  0.2222 -0.1875  0.1001
42431DOD     C171112  26.119   3.348  25.801 -0.0118  0.1139  0.1989
42431DOD     C271113  25.819   3.568  26.106  0.1066  0.3967  0.0008
42431DOD     C371114  25.403   3.642  26.266  0.0016 -0.1257 -0.0527
42432DOD     C171115  19.194  14.214  18.257 -0.3143 -0.1891 -0.1724
42432DOD     C271116  19.455  14.479  18.476  0.2566  0.0756 -0.1958
42432DOD     C371117  19.595  14.617  18.918  0.1233  0.0287  0.2941
42433DOD     C171118  26.807   0.900   0.581  0.1154  0.0450  0.0236
42433DOD     C271119  26.459   0.659   0.690  0.0280 -0.0551 -0.1448
42433DOD     C371120  26.029   0.533   0.600  0.3166  0.1425  0.1360
42434DOD     C171121   8.644   5.400  19.532 -0.1010 -0.1530  0.2574
42434DOD     C271122   8.293   5.548  19.751  0.1643  0.1515  0.1661
42434DOD     C371123   7.910   5.791  19.847  0.1757 -0.2512 -0.0268
42435DOD     C171124  29.992  18.743  18.048 -0.0427 -0.4655  0.2096
42435DOD     C271125  29.618  18.613  18.232  0.0721 -0.3233  0.2762
42435DOD     C371126  29.277  18.288  18.241 -0.1907 -0.2915  0.1216
42436DOD     C171127  20.918   5.247   6.510 -0.2400 -0.4675 -0.3668
42436DOD     C271128  21.133   5.622   6.310  0.0843 -0.1186 -0.1983
42436DOD     C371129  21.382   5.980   6.520  0.2390 -0.0662  0.2009
42437DOD     C171130   5.348   6.521  15.158  0.1560 -0.0813  0.0501
42437DOD     C271131   5.752   6.292  15.294 -0.1333 -0.1268 -0.2975
42437DOD     C371132   6.098   6.284  15.586 -0.0369  0.2577  0.1868
42438DOD     C171133  21.063  11.519  25.848 -0.3356  0.1134 -0.1053
42438DOD     C271134  21.047  11.255  26.226  0.0382 -0.0539  0.4833
42438DOD     C371135  21.116  10.872  26.513 -0.0288  0.2066  0.0335
42439DOD     C171136  22.911  29.869   0.194  0.0964  0.0571  0.2770
42439DOD     C271137  22.878  30.166  30.185  0.0333 -0.1026 -0.2354
42439DOD     C371138  22.841   0.092  29.817  0.0341 -0.0425 -0.2195
42440DOD     C171139  24.850  12.296   8.261  0.1120  0.0053  0.1004
42440DOD     C271140  24.587  12.154   7.951 -0.1749  0.0741 -0.1077
42440DOD     C371141  24.122  12.022   7.966 -0.1369 -0.0913 -0.0437
42441DOD     C171142  30.023  27.985  24.950 -0.1010 -0.0151 -0.2508
42441DOD     C271143  29.996  28.044  25.409  0.3539  0.2753 -0.0018
42441DOD     C371144  30.025  28.154  25.871  0.3176 -0.0441  0.0168
42442DOD     C171145  26.008  15.776   6.713  0.0020  0.0781  0.2112
42442DOD     C271146  26.428  15.577   6.725  0.3268 -0.3451 -0.2359
42442DOD     C371147  26.837  15.388   6.701 -0.0158  0.3143  0.1522
42443DOD     C171148  29.369  17.314  26.459  0.1005 -0.1209  0.0786
42443DOD     C271149  29.451  16.952  26.683 -0.3042 -0.0722 -0.2617
42443DOD     C371150  29.536  16.531  26.752  0.0445  0.0028 -0.1380
42444DOD     C171151  17.247   9.920  12.193 -0.5614 -0.2256 -0.0244
42444DOD     C271152  17.619  10.003  11.856  0.2059  0.2525 -0.0406
42444DOD     C371153  17.852  10.400  11.780 -0.1482 -0.0116 -0.1882
42445DOD     C171154  12.491   8.623  23.722  0.0292 -0.0721 -0.1582
42445DOD     C271155  12.178   8.304  23.554 -0.0492 -0.0195  0.0825
42445DOD     C371156  12.309   7.909  23.280 -0.3190 -0.0615 -0.0977
42446DOD     C171157   8.334   5.416  11.772 -0.0064  0.1490 -0.1816
42446DOD     C271158   8.155   5.232  12.153  0.0159  0.4247  0.2500
42446DOD     C371159   7.741   5.013  12.209 -0.1319  0.2132 -0.0901
42447DOD     C171160   2.349   7.781  13.546 -0.4245 -0.0769 -0.5677
42447DOD     C271161   1.970   7.998  13.733  0.1666 -0.0806  0.1169
42447DOD     C371162   1.887   8.063  14.199 -0.0355  0.1922 -0.2197
42448DOD     C171163   7.437  25.017  25.625  0.4485 -0.3153  0.0177
42448DOD     C271164   7.859  25.171  25.789  0.1322 -0.1808 -0.1522
42448DOD     C371165   8.260  25.046  25.931  0.0681  0.1460  0.0760
42449DOD     C171166  15.705  10.426  22.100  0.0434 -0.1776  0.1025
42449DOD     C271167  15.772  10.936  22.049 -0.1420  0.0450  0.0890
42449DOD     C371168  15.590  11.306  22.243 -0.1061 -0.0709  0.1048
42450DOD     C171169   9.768  28.834  24.969 -0.0376  0.0941 -0.2458
42450DOD     C271170  10.181  28.961  24.943 -0.0027 -0.3431  0.4497
42450DOD     C371171  10.570  28.747  24.830 -0.0103  0.0988  0.1491
42451DOD     C171172  22.876  17.976   7.891 -0.1171 -0.1864  0.2883
42451DOD     C271173  22.606  17.608   7.797 -0.0265  0.2167  0.1687
42451DOD     C371174  22.386  17.207   7.963 -0.0368 -0.3167 -0.1940
42452DOD     C171175   1.090  21.216  29.836  0.3620 -0.0342 -0.0448
42452DOD     C271176   1.282  20.834  29.650  0.0874  0.0799 -0.0827
42452DOD     C371177   1.653  20.690  29.368 -0.1969 -0.0908  0.0445
42453DOD     C171178  27.029  16.695  15.720  0.1875 -0.1665 -0.0872
42453DOD     C271179  27.415  16.932  15.804 -0.1636 -0.0027  0.1681
42453DOD     C371180  27.850  17.090  15.954 -0.1781 -0.1453 -0.0073
42454DOD     C171181   8.827  10.700   1.365  0.1918  0.0154  0.2658
42454DOD     C271182   9.009  11.153   1.381 -0.3091  0.0631  0.4359
42454DOD     C371183   9.144  11.352   1.740 -0.4354 -0.1190  0.3435
42455DOD     C171184  16.646   7.598  20.403 -0.0238 -0.3792  0.5019
42455DOD     C271185  16.284   7.363  20.552 -0.2060 -0.2470 -0.1110
42455DOD     C371186  15.839   7.362  20.654  0.2801  0.0625  0.1537
42456DOD     C171187  22.345   0.670  22.674  0.1309 -0.1465 -0.1990
42456DOD     C271188  22.562   0.273  22.900 -0.0079  0.0003  0.0081
42456DOD     C371189  22.802   0.151  23.245  0.0160  0.0563  0.0146
42457DOD     C171190   0.084  18.135  29.637 -0.2107 -0.1438  0.0125
42457DOD     C271191   0.548  18.058  29.786  0.3524  0.1180 -0.1889
42457DOD     C371192   0.923  17.759  29.892 -0.2500  0.0477  0.3298
42458DOD     C171193  18.290  10.158  23.578 -0.0822  0.1977 -0.0747
42458DOD     C271194  17.942  10.008  23.300  0.1832  0.1229  0.1590
42458DOD     C371195  17.549   9.971  23.085 -0.0596  0.0930 -0.0665
42459DOD     C171196  18.832  24.025  16.795 -0.0602 -0.3707 -0.4261
42459DOD     C271197  19.031  23.650  16.629 -0.1398 -0.1323 -0.1992
42459DOD     C371198  18.977  23.407  16.249 -0.2630 -0.2146 -0.2796
42460DOD     C171199  21.384  10.217   4.611  0.3802 -0.0629  0.0561
42460DOD     C271200  21.392  10.264   4.110  0.0580 -0.1139  0.0607
42460DOD     C371201  21.532  10.380   3.661  0.0037 -0.1459 -0.1800
42461DOD     C171202   5.305   4.523   0.405  0.0309 -0.1566  0.3339
42461DOD     C271203   4.868   4.562   0.270  0.4224 -0.1259 -0.2915
42461DOD     C371204   4.566   4.501  30.213  0.2018 -0.0175 -0.0332
42462DOD     C171205  27.060  24.072  10.549 -0.0573 -0.0618 -0.0796
42462DOD     C271206  26.820  23.780  10.879 -0.1905 -0.3076 -0.0633
42462DOD     C371207  26.598  23.426  11.114 -0.0614 -0.1815 -0.2631
42463DOD     C171208  25.478  14.118  17.684 -0.1250  0.0011 -0.0121
42463DOD     C271209  25.698  13.941  17.303  0.0548  0.2033  0.4076
42463DOD     C371210  25.611  13.557  17.110 -0.1543  0.1260 -0.0487
42464DOD     C171211  18.563  14.821   6.859 -0.1311  0.1659 -0.1464
42464DOD     C271212  18.919  14.612   7.155  0.1881  0.0182  0.0041
42464DOD     C371213  18.810  14.331   7.517  0.0822  0.0646  0.0277
42465DOD     C171214  11.721   1.560   0.701 -0.1164  0.1656 -0.1172
42465DOD     C271215  11.760   1.284   1.106  0.2429  0.3404 -0.0198
42465DOD     C371216  11.527   0.944   1.360 -0.1425 -0.2323  0.1294
42466DOD     C171217  24.518  12.802  28.962 -0.2761  0.1018 -0.1414
42466DOD     C271218  24.686  12.990  28.552  0.3243  0.1034 -0.0774
42466DOD     C371219  24.933  13.105  28.215 -0.0005 -0.2380 -0.1675
42467DOD     C171220  13.615  24.189  18.647  0.1092  0.0583  0.0085
42467DOD     C271221  13.178  24.227  18.578  0.1369  0.4418  0.0678
42467DOD     C371222  12.720  24.116  18.589  0.3271  0.1386 -0.1512
42468DOD     C171223   1.969  12.855   9.008  0.0229  0.3049  0.0459
42468DOD     C271224   2.198  12.671   8.659 -0.1395  0.2433  0.1195
42468DOD     C371225   2.155  12.728   8.199 -0.3084 -0.3497 -0.0765
42469DOD     C171226  14.643  24.339  19.378  0.1032 -0.0203 -0.1536
42469DOD     C271227  14.967  23.945  19.462 -0.1637  0.0307 -0.1370
42469DOD     C371228  15.178  23.753  19.841 -0.0816  0.0607 -0.1096
42470DOD     C171229  17.841  10.466  23.441 -0.1644 -0.2085 -0.0541
42470DOD     C271230  17.582  10.566  23.046 -0.0964  0.0026 -0.0411
42470DOD     C371231  17.557  10.858  22.729 -0.0592 -0.1190 -0.4120
42471DOD     C171232   3.236  13.623  26.024 -0.0851  0.3392 -0.2506
42471DOD     C271233   3.479  13.990  26.057  0.0158  0.1450  0.0371
42471DOD     C371234   3.721  14.389  26.183 -0.0319 -0.2832 -0.4010
42472DOD     C171235  28.293  16.739  25.818  0.1674  0.0318 -0.2305
42472DOD     C271236  28.739  16.881  26.032  0.1061 -0.1108 -0.0605
42472DOD     C371237  29.118  17.078  26.030 -0.0031  0.1254  0.0953
42473DOD     C171238  28.108  17.743  10.911 -0.1666  0.2038  0.1008
42473DOD     C271239  28.493  17.532  10.755 -0.1104 -0.1686  0.2297
42473DOD     C371240  28.670  17.181  10.464  0.2275 -0.0737 -0.2870
42474DOD     C171241   4.377  13.515  13.372  0.0613 -0.0017 -0.1141
42474DOD     C271242   4.036  13.849  13.269  0.3649  0.1817  0.2144
42474DOD     C371243   3.618  14.090  13.252 -0.0439  0.1573  0.0158
42475DOD     C171244  13.936   8.891  26.151  0.3587  0.1671 -0.1224
42475DOD     C271245  13.628   8.688  26.444 -0.1720 -0.0413  0.0787
42475DOD     C371246  13.415   8.386  26.718 -0.0771  0.1606 -0.0265
42476DOD     C171247  28.416  26.424  13.143  0.1249 -0.3152  0.0848
42476DOD     C271248  28.266  26.096  12.836 -0.4491  0.1410 -0.1438
42476DOD     C371249  28.165  25.633  12.867 -0.5681  0.2274  0.1570
42477DOD     C171250  18.446   8.647   8.979  0.0674 -0.0119 -0.2633
42477DOD     C271251  18.592   8.243   9.134 -0.0785  0.0061 -0.2064
42477DOD     C371252  18.546   7.919   8.868  0.0098  0.0729  0.2597
42478DOD     C171253  15.586  29.869  11.392 -0.1023  0.2367  0.0738
42478DOD     C271254  15.483  29.800  10.966  0.2567  0.0085  0.1571
42478DOD     C371255  15.221  29.898  10.659 -0.0047  0.0799  0.0671
42479DOD     C171256   9.574  25.775   2.097  0.3187  0.0475 -0.1012
42479DOD     C271257   9.757  26.263   2.216  0.4103  0.1355 -0.3439
42479DOD     C371258   9.937  26.678   2.218 -0.4173  0.1446  0.0737
42480DOD     C171259  22.876   9.638   9.709  0.3389 -0.0385 -0.2179
42480DOD     C271260  23.305   9.703   9.633  0.1802 -0.4970  0.0400
42480DOD     C371261  23.607   9.645   9.268  0.1218  0.0405  0.1791
42481DOD     C171262  29.173   3.571  25.242  0.2635  0.1197 -0.0251
42481DOD     C271263  28.884   3.816  24.989  0.1546 -0.2191 -0.0812
42481DOD     C371264  28.839   4.140  24.712  0.0931 -0.2156 -0.1018
42482DOD     C171265  23.092   6.872   7.826  0.0804  0.1793  0.0997
42482DOD     C271266  23.401   6.531   7.961  0.1098 -0.2048 -0.0333
42482DOD     C371267  23.655   6.287   7.626 -0.1126  0.3185  0.0953
42483DOD     C171268  28.941  19.481  20.735  0.0160  0.1028 -0.0609
42483DOD     C271269  29.354  19.433  21.038  0.2230 -0.1537  0.1107
42483DOD     C371270  29.306  19.659  21.442  0.0702 -0.1103  0.0468
42484DOD     C171271  20.949  25.465  20.420 -0.1731 -0.1382 -0.1171
42484DOD     C271272  21.305  25.832  20.478  0.2721 -0.0374  0.1094
42484DOD     C371273  21.604  26.007  20.743 -0.0431 -0.1916 -0.0260
42485DOD     C171274  15.770  28.730  23.929  0.0515 -0.0428 -0.0123
42485DOD     C271275  15.508  28.326  23.828  0.2727  0.3101  0.0092
42485DOD     C371276  15.260  27.926  23.862  0.2017 -0.1988  0.4863
42486DOD     C171277   6.097  17.304  24.704 -0.0936  0.2049 -0.0589
42486DOD     C271278   6.090  17.008  25.075 -0.1612 -0.0321  0.0234
42486DOD     C371279   5.920  16.692  25.360  0.2505 -0.0775  0.0764
42487DOD     C171280  12.256  22.685  11.577  0.2722  0.1979 -0.1479
42487DOD     C271281  12.328  23.039  11.340 -0.0163 -0.4596 -0.0946
42487DOD     C371282  12.202  23.546  11.442 -0.0531 -0.0937  0.1276
42488DOD     C171283  24.903  10.742   9.655 -0.2227 -0.3784  0.2430
42488DOD     C271284  25.036  10.338   9.856 -0.1417  0.0154  0.0886
42488DOD     C371285  25.053  10.167  10.249  0.1779  0.0679  0.0495
42489DOD     C171286  29.081  15.661   6.747  0.0130 -0.0757  0.6715
42489DOD     C271287  29.566  15.622   6.931 -0.3021  0.3128 -0.1139
42489DOD     C371288  29.738  15.734   7.333 -0.0325  0.2999 -0.1669
42490DOD     C171289  10.202  13.599  20.584 -0.0769  0.0233 -0.0446
42490DOD     C271290  10.022  13.978  20.778  0.1763  0.2446 -0.1208
42490DOD     C371291   9.626  14.148  20.964  0.1633  0.0842 -0.1330
42491DOD     C171292  22.029  18.574  14.898 -0.3513  0.1902 -0.0787
42491DOD     C271293  22.188  18.979  14.989 -0.0453  0.0218 -0.2030
42491DOD     C371294  22.583  19.105  15.237  0.0435  0.0762 -0.1518
42492DOD     C171295  24.381   0.366   6.193  0.2325  0.2029  0.0106
42492DOD     C271296  24.577   0.394   6.598 -0.3429 -0.0686  0.3458
42492DOD     C371297  24.939   0.709   6.717 -0.5554  0.0658 -0.2686
42493DOD     C171298  10.833  25.113  13.363 -0.2629  0.0812  0.2206
42493DOD     C271299  10.632  24.877  13.747 -0.0521  0.1076 -0.1549
42493DOD     C371300  10.655  24.810  14.205 -0.1989  0.2258  0.1255
42494DOD     C171301  28.164   2.332  10.811  0.1656 -0.0864 -0.0582
42494DOD     C271302  28.316   2.635  11.170  0.2391 -0.2038  0.1369
42494DOD     C371303  28.317   2.554  11.600  0.3281 -0.2908 -0.2741
42495DOD     C171304  10.765  16.768  25.427 -0.0268  0.2862  0.1119
42495DOD     C271305  11.101  16.766  25.112  0.2280 -0.0173 -0.3919
42495DOD     C371306  11.386  16.753  24.778 -0.0100 -0.0756 -0.1621
42496DOD     C171307  16.753  27.803   8.603  0.0322  0.2384  0.2209
42496DOD     C271308  16.417  28.017   8.437 -0.2058  0.0042 -0.2095
42496DOD     C371309  16.205  28.447   8.475 -0.2826 -0.0126 -0.0728
42497DOD     C171310   0.692  19.365  13.787 -0.1955  0.0772 -0.1122
42497DOD     C271311   0.599  18.930  13.898  0.0502  0.1440 -0.1281
42497DOD     C371312   0.782  18.589  14.082 -0.0314  0.0302  0.2242
42498DOD     C171313  16.302  17.560   2.790  0.0900  0.2289 -0.1488
42498DOD     C271314  16.242  17.497   3.239 -0.0328  0.3066 -0.1177
42498DOD     C371315  16.439  17.292   3.662  0.1010 -0.1134 -0.2795
42499DOD     C171316   5.387  13.990  20.557  0.0860 -0.0244  0.1921
42499DOD     C271317   5.741  13.926  20.238 -0.1456  0.1648 -0.2071
42499DOD     C371318   6.109  13.983  19.919  0.0639  0.0499  0.1974
42500DOD     C171319  24.542  11.988  16.143  0.0967  0.1567 -0.0570
42500DOD     C271320  24.383  12.456  16.043 -0.0808 -0.0224  0.2462
42500DOD     C371321  24.735  12.863  16.046  0.0064  0.0746  0.2504
42501DOD     C171322  22.150  26.783   9.124 -0.1281 -0.1979 -0.0078
42501DOD     C271323  21.650  26.828   9.106  0.1508 -0.2145 -0.1702
42501DOD     C371324  21.292  26.951   9.336 -0.1357 -0.1970 -0.0892
42502DOD     C171325  10.426  13.799   3.324 -0.3436  0.0700  0.1607
42502DOD     C271326  10.339  14.116   2.970  0.1535  0.0659  0.1349
42502DOD     C371327  10.215  14.560   2.827 -0.1315  0.2120  0.0250
42503DOD     C171328   6.443  15.267  13.000 -0.2563 -0.1888 -0.1272
42503DOD     C271329   6.590  14.882  12.803 -0.3191  0.0754  0.3225
42503DOD     C371330   6.827  14.502  12.633 -0.1502  0.1304 -0.1587
42504DOD     C171331  23.536  22.579   5.814 -0.3148  0.1090  0.0668
42504DOD     C271332  23.932  22.321   5.864  0.1509 -0.0998 -0.0712
42504DOD     C371333  24.100  21.939   5.645 -0.0243 -0.4023 -0.0849
42505DOD     C171334  24.226   2.127   2.836 -0.2809 -0.0748  0.0553
42505DOD     C271335  24.118   2.025   3.272  0.1996  0.0417  0.1603
42505DOD     C371336  23.901   1.847   3.649 -0.0313  0.1416 -0.0804
42506DOD     C171337  23.011  22.004  26.570  0.0819 -0.0962  0.1011
42506DOD     C271338  23.450  22.197  26.738  0.0727  0.0785 -0.4185
42506DOD     C371339  23.554  22.628  26.870 -0.3932  0.0314  0.2455
42507DOD     C171340   8.328  25.539  13.112  0.3954 -0.0178 -0.0197
42507DOD     C271341   8.328  25.772  13.447 -0.1122 -0.0855  0.0322
42507DOD     C371342   8.631  25.780  13.794  0.2606  0.4184  0.2313
42508DOD     C171343   5.261   9.804  13.229  0.0700  0.2191  0.1380
42508DOD     C271344   4.900   9.740  12.950 -0.0263  0.0256  0.2933
42508DOD     C371345   4.539   9.404  12.835  0.0277 -0.3302  0.0734
42509DOD     C171346   8.288  23.170  23.428 -0.2247 -0.0165 -0.0190
42509DOD     C271347   7.942  22.969  23.157 -0.1957 -0.0690  0.2542
42509DOD     C371348   7.545  22.794  23.276 -0.3135  0.1900 -0.2551
42510DOD     C171349  23.922  25.144  27.603 -0.0529  0.3280  0.0840
42510DOD     C271350  23.537  25.434  27.628 -0.0860 -0.0505 -0.1191
42510DOD     C371351  23.151  25.288  27.720  0.0234 -0.3606 -0.1470
42511DOD     C171352  29.783   5.859   6.035  0.2731 -0.1748  0.0306
42511DOD     C271353  29.784   5.891   5.491 -0.0198 -0.0099 -0.0158
42511DOD     C371354  29.985   5.790   5.115 -0.2547 -0.0240  0.1517
42512DOD     C171355   2.591   5.329   9.937 -0.4375  0.0429  0.0011
42512DOD     C271356   2.664   5.744   9.750  0.0248  0.2742 -0.0838
42512DOD     C371357   2.960   5.957   9.559  0.3075  0.0548  0.3779
42513DOD     C171358  21.944  20.964   7.537 -0.1296 -0.1949  0.0806
42513DOD     C271359  21.979  21.203   7.200 -0.0139 -0.0547  0.3500
42513DOD     C371360  22.271  21.471   7.021 -0.0652 -0.1442 -0.1491
42514DOD     C171361  26.196  15.338  11.840 -0.0677  0.1800  0.1499
42514DOD     C271362  25.785  15.495  12.056  0.1396 -0.0904  0.1059
42514DOD     C371363  25.328  15.516  12.021 -0.0041  0.2211 -0.0846
42515DOD     C171364  23.767  10.472  15.973 -0.0961 -0.2335 -0.2404
42515DOD     C271365  23.348  10.689  16.079 -0.0185  0.2802 -0.0708
42515DOD     C371366  22.928  10.593  16.060 -0.2286  0.2668  0.0739
42516DOD     C171367  19.794  30.207  24.852 -0.0368 -0.2194 -0.1332
42516DOD     C271368  19.447  29.977  24.637 -0.3566 -0.3554 -0.0286
42516DOD     C371369  19.280  29.575  24.627 -0.0392 -0.0473 -0.0367
42517DOD     C171370  17.495  14.784  10.679  0.0451 -0.1112 -0.2802
42517DOD     C271371  17.917  14.580  10.810  0.0044  0.0065  0.0271
42517DOD     C371372  18.181  14.221  10.910 -0.0940 -0.2040  0.1496
42518DOD     C171373  17.933  11.295  25.883 -0.0495 -0.4213  0.1377
42518DOD     C271374  17.807  10.841  25.978 -0.1480 -0.5127  0.0556
42518DOD     C371375  17.593  10.471  26.196 -0.3785  0.1539 -0.0039
42519DOD     C171376   4.343  21.637   4.478 -0.3266 -0.0294  0.0403
42519DOD     C271377   4.337  21.424   4.036 -0.4734 -0.0795 -0.0707
42519DOD     C371378   4.444  21.141   3.694 -0.2159 -0.2160  0.2209
42520DOD     C171379  20.584   8.339  24.312  0.3072  0.0514 -0.1537
42520DOD     C271380  20.894   8.544  24.023  0.1207  0.4075 -0.0526
42520DOD     C371381  21.021   8.948  23.870  0.1096 -0.3215 -0.4566
42521DOD     C171382   4.820   4.261   6.295 -0.0977 -0.0598 -0.2090
42521DOD     C271383   4.501   4.607   6.183 -0.1212  0.0474  0.3026
42521DOD     C371384   4.434   5.071   6.142 -0.1026 -0.3346  0.0103
42522DOD     C171385  16.305  20.141   0.401  0.0314  0.0224 -0.0071
42522DOD     C271386  16.641  20.368   0.211  0.1097 -0.2339  0.0112
42522DOD     C371387  16.899  20.330  30.098  0.1091  0.0907  0.2506
42523DOD     C171388  18.575   2.665  12.399 -0.1547 -0.2802 -0.0219
42523DOD     C271389  19.027   2.442  12.482 -0.2390 -0.0053  0.2969
42523DOD     C371390  19.131   2.332  12.031 -0.0315  0.0730 -0.0306
42524DOD     C171391   7.694  21.947  15.915 -0.1869 -0.0282 -0.2989
42524DOD     C271392   7.803  21.892  16.381  0.0904 -0.3004  0.1212
42524DOD     C371393   7.910  21.517  16.637 -0.0163  0.0321  0.1906
42525DOD     C171394   2.937   7.273   7.325 -0.0280 -0.0237  0.0252
42525DOD     C271395   2.683   7.363   6.945  0.1011  0.0681  0.3968
42525DOD     C371396   2.481   7.747   6.846 -0.2438 -0.0996 -0.0692
42526DOD     C171397  28.299  11.744   6.178  0.0101 -0.0481  0.1002
42526DOD     C271398  27.960  11.518   5.944  0.0368 -0.1474  0.0754
42526DOD     C371399  27.871  11.224   5.565 -0.3048 -0.0175 -0.0961
42527DOD     C171400  23.562  26.467  25.586 -0.2230 -0.1351  0.1900
42527DOD     C271401  23.764  26.046  25.688  0.1546  0.1688 -0.2383
42527DOD     C371402  24.173  25.779  25.626  0.2099  0.0282 -0.3998
42528DOD     C171403  29.689  15.312   7.636  0.3673 -0.0995  0.2144
42528DOD     C271404  29.670  15.768   7.827  0.3314  0.1426  0.2562
42528DOD     C371405  29.342  16.091   7.839  0.0215 -0.0984 -0.3053
42529DOD     C171406  14.269  25.145  16.791  0.2602  0.1264 -0.0549
42529DOD     C271407  13.983  24.800  16.862  0.1277  0.3259  0.0117
42529DOD     C371408  14.036  24.362  16.657 -0.2282  0.0663 -0.4272
42530DOD     C171409   5.939   5.545  10.794  0.4090  0.1456 -0.0543
42530DOD     C271410   6.327   5.324  10.944  0.0168  0.2097  0.1705
42530DOD     C371411   6.712   5.232  11.235  0.3816 -0.0409  0.1934
42531DOD     C171412  28.602  28.971  20.454 -0.1429  0.0497  0.2942
42531DOD     C271413  28.234  29.207  20.362 -0.2842 -0.0487 -0.2401
42531DOD     C371414  28.131  29.672  20.257  0.0079 -0.1351  0.1316
42532DOD     C171415   1.272   6.210   0.084 -0.3655  0.0427 -0.1404
42532DOD     C271416   1.033   5.823   0.150  0.0820  0.0743  0.1727
42532DOD     C371417   0.828   5.632  30.057 -0.0669 -0.2025  0.1077
42533DOD     C171418  30.296   5.623   3.296  0.1204  0.2368 -0.1172
42533DOD     C271419  29.900   5.688   3.007  0.2972  0.2132  0.0274
42533DOD     C371420  29.451   5.503   2.963  0.5115  0.1053 -0.4097
42534DOD     C171421   3.053  17.496  25.081 -0.3628 -0.0030  0.0404
42534DOD     C271422   3.132  17.777  25.405  0.2358  0.1461 -0.0909
42534DOD     C371423   3.210  18.030  25.783  0.1267 -0.1848  0.2916
42535DOD     C171424   5.897  20.191  16.178 -0.1120  0.2529 -0.3591
42535DOD     C271425   6.402  20.202  16.307  0.2924 -0.0381 -0.3089
42535DOD     C371426   6.866  20.181  16.180  0.1611  0.1782  0.0192
42536DOD     C171427  24.806  23.629   8.250 -0.0331  0.1337  0.1326
42536DOD     C271428  24.979  23.899   7.943  0.0920  0.0778  0.2692
42536DOD     C371429  25.034  24.034   7.493  0.0607  0.1868  0.0612
42537DOD     C171430   9.475   4.410  15.509  0.3054 -0.2991  0.1220
42537DOD     C271431   9.817   4.213  15.696  0.2046  0.1012  0.0269
42537DOD     C371432  10.293   4.259  15.736 -0.1370 -0.1418 -0.0224
42538DOD     C171433  20.922  20.221  16.377 -0.0949  0.0891  0.2680
42538DOD     C271434  21.081  20.516  16.042  0.3335 -0.0851  0.1366
42538DOD     C371435  21.359  20.559  15.683  0.0374 -0.0967  0.0124
42539DOD     C171436  29.297  28.082  20.923  0.0387  0.0678  0.0580
42539DOD     C271437  29.257  27.863  21.348 -0.1815  0.2017 -0.4527
42539DOD     C371438  29.095  27.690  21.774 -0.3107 -0.0355  0.2588
42540DOD     C171439   3.721  23.631  18.637  0.0341 -0.2412  0.0642
42540DOD     C271440   3.881  24.056  18.704 -0.0548 -0.1244 -0.0709
42540DOD     C371441   4.294  24.302  18.836 -0.0328  0.2347  0.1489
42541DOD     C171442  13.287   7.936  10.834 -0.0240  0.1915 -0.0532
42541DOD     C271443  13.752   7.954  11.000 -0.0741  0.3103 -0.2781
42541DOD     C371444  13.834   8.027  11.462 -0.0829  0.0166 -0.0080
42542DOD     C171445   4.529  18.599   3.176  0.2023 -0.0940 -0.0092
42542DOD     C271446   4.219  18.750   2.980  0.1597 -0.1203  0.0941
42542DOD     C371447   4.092  18.961   2.613 -0.0933  0.0512  0.1854
42543DOD     C171448   4.956  17.049   7.104  0.0473  0.0024 -0.4164
42543DOD     C271449   5.092  17.369   7.422  0.1378 -0.0238 -0.0177
42543DOD     C371450   5.309  17.756   7.651  0.1358  0.2853  0.1234
42544DOD     C171451  12.307   9.887   2.862 -0.0299  0.1445 -0.2522
42544DOD     C271452  12.577   9.843   2.449 -0.0461  0.0416  0.0108
42544DOD     C371453  13.006   9.844   2.303  0.2822  0.0047  0.3040
42545DOD     C171454   0.144  28.140  19.842 -0.3727 -0.1931  0.0355
42545DOD     C271455   0.269  27.685  19.717 -0.0975 -0.0299  0.2881
42545DOD     C371456   0.684  27.552  19.534 -0.0299  0.2295 -0.0938
42546DOD     C171457   5.562  18.060   0.426  0.4691  0.0946  0.3539
42546DOD     C271458   5.853  18.407   0.448  0.1557  0.1034 -0.0635
42546DOD     C371459   6.166  18.743   0.375  0.2492 -0.1619  0.1157
42547DOD     C171460  21.506   9.114  17.842 -0.2134  0.3795 -0.0245
42547DOD     C271461  21.442   9.316  18.244 -0.1488  0.1910 -0.1976
42547DOD     C371462  21.432   9.741  18.482 -0.0449 -0.0246  0.0743
42548DOD     C171463   6.695  14.534  25.073 -0.2745  0.2861  0.0760
42548DOD     C271464   6.438  14.195  24.927  0.3031 -0.1418  0.2090
42548DOD     C371465   6.321  13.749  25.128  0.3233  0.2559  0.0294
42549DOD     C171466  19.984   8.765  11.471 -0.2870  0.0757 -0.0166
42549DOD     C271467  19.934   8.401  11.746  0.1508 -0.1581  0.0219
42549DOD     C371468  19.818   8.230  12.134  0.4031 -0.0845 -0.2183
42550DOD     C171469   5.067  17.067  23.425  0.2427 -0.0134  0.2277
42550DOD     C271470   5.245  16.939  22.992  0.3093 -0.1069 -0.2025
42550DOD     C371471   5.633  16.701  22.874 -0.0403 -0.2372  0.1143
42551DOD     C171472  24.046   9.175  25.251 -0.2706 -0.2488 -0.0967
42551DOD     C271473  23.691   9.468  25.501  0.1869 -0.3075  0.1166
42551DOD     C371474  23.601   9.889  25.721  0.0239  0.3073 -0.3428
42552DOD     C171475  19.471  15.343  26.683  0.0652  0.1426 -0.4180
42552DOD     C271476  19.757  15.692  26.837  0.0052 -0.0398  0.4397
42552DOD     C371477  20.147  15.640  27.109  0.0813  0.3615  0.1767
42553DOD     C171478  21.791  25.543  20.556  0.2141  0.0061 -0.1545
42553DOD     C271479  21.538  25.258  20.733  0.0329  0.1970  0.1691
42553DOD     C371480  21.280  25.058  20.405  0.0899  0.4187  0.3742
42554DOD     C171481   6.563  21.154  23.100  0.0555  0.1384 -0.1881
42554DOD     C271482   6.475  21.077  23.571  0.1747  0.1489 -0.2090
42554DOD     C371483   6.241  21.255  23.924  0.1377  0.0125 -0.1231
42555DOD     C171484   3.543   9.116   0.722  0.2688 -0.2041  0.1219
42555DOD     C271485   3.143   9.239   0.984 -0.1288 -0.1670  0.1111
42555DOD     C371486   2.713   9.186   1.246 -0.2003  0.3328  0.1171
42556DOD     C171487  19.014  24.393   4.398  0.0069 -0.1906  0.0006
42556DOD     C271488  19.417  24.578   4.288  0.0859  0.1940  0.2012
42556DOD     C371489  19.660  24.918   4.357  0.1477  0.1935  0.0905
42557DOD     C171490  20.157  28.667   7.017  0.0012  0.0088  0.3649
42557DOD     C271491  20.587  28.452   6.996  0.2247 -0.1350 -0.0728
42557DOD     C371492  20.959  28.424   7.291  0.1030  0.1195 -0.0445
42558DOD     C171493  17.003   7.086  18.928 -0.3136 -0.0769 -0.1760
42558DOD     C271494  17.129   7.544  18.864 -0.2401 -0.1867 -0.4576
42558DOD     C371495  16.922   7.726  18.543 -0.1903 -0.3416 -0.0827
42559DOD     C171496  23.078  18.840   7.691  0.2081 -0.0856  0.2006
42559DOD     C271497  23.285  18.451   7.921 -0.0509 -0.0760 -0.1805
42559DOD     C371498  23.235  18.174   8.294 -0.0503  0.0548 -0.0113
42560DOD     C171499   5.878  17.110  21.646 -0.0146  0.0299  0.0026
42560DOD     C271500   5.874  16.636  21.749 -0.1351  0.1633  0.0985
42560DOD     C371501   6.114  16.422  22.099 -0.0808  0.0915  0.0231
42561DOD     C171502  12.088   9.262   9.637 -0.1540  0.0913  0.0342
42561DOD     C271503  12.130   8.873   9.395  0.2099  0.1705  0.1200
42561DOD     C371504  12.261   8.393   9.424  0.1659 -0.0051  0.1526
42562DOD     C171505  26.243  10.472  16.144 -0.0791  0.3507 -0.1456
42562DOD     C271506  26.252  10.281  15.718  0.0024  0.0223  0.3627
42562DOD     C371507  26.371  10.314  15.270  0.0079 -0.0540 -0.0250
42563DOD     C171508   6.849  28.584   3.342 -0.1478  0.2088 -0.1186
42563DOD     C271509   6.963  28.144   3.244 -0.1724  0.0184 -0.0408
42563DOD     C371510   7.045  27.643   3.131  0.0740  0.0156  0.0824
42564DOD     C171511   1.972  17.876   7.305  0.1123 -0.1951  0.0689
42564DOD     C271512   1.914  18.016   6.866 -0.1999 -0.0539 -0.1012
42564DOD     C371513   2.232  17.963   6.553 -0.0851 -0.0994 -0.2824
42565DOD     C171514   9.643  14.268  19.325 -0.0353 -0.1336  0.1164
42565DOD     C271515  10.078  14.098  19.111 -0.0291  0.1136 -0.0883
42565DOD     C371516  10.485  14.213  18.976 -0.1896 -0.2823  0.1352
42566DOD     C171517  19.052  10.691   1.141 -0.0347  0.1878 -0.0196
42566DOD     C271518  19.393  10.390   1.197 -0.3611  0.1370 -0.2687
42566DOD     C371519  19.642  10.085   1.353 -0.0323 -0.1084 -0.1188
42567DOD     C171520  20.282   7.386  10.274  0.1394  0.0513  0.0956
42567DOD     C271521  20.618   7.618  10.081  0.1233 -0.1848 -0.1399
42567DOD     C371522  21.086   7.731  10.004 -0.2456 -0.2528  0.2954
42568DOD     C171523  23.711  25.017  14.949  0.0234  0.0451  0.0199
42568DOD     C271524  23.319  25.070  14.659 -0.2372 -0.0284 -0.2617
42568DOD     C371525  22.840  25.145  14.623 -0.0891 -0.2923 -0.0435
42569DOD     C171526   4.645  15.228   7.858 -0.0531 -0.0467  0.0522
42569DOD     C271527   4.454  15.557   7.583 -0.0541 -0.1926  0.0283
42569DOD     C371528   4.011  15.687   7.458 -0.0940  0.0288  0.1694
42570DOD     C171529  16.849  10.968  20.285 -0.0989  0.0985  0.1341
42570DOD     C271530  16.966  11.319  20.027  0.1134  0.0542 -0.0490
42570DOD     C371531  17.139  11.715  19.844  0.0915  0.0764 -0.0218
42571DOD     C171532   1.746  15.760  17.788 -0.0379  0.0834  0.1439
42571DOD     C271533   1.348  15.793  17.540  0.1589 -0.0542  0.1561
42571DOD     C371534   1.186  15.530  17.155 -0.0463 -0.5177  0.2974
42572DOD     C171535  29.967  11.011  11.949 -0.0173  0.0183  0.0357
42572DOD     C271536  29.761  11.385  12.053 -0.0794  0.3180 -0.0582
42572DOD     C371537  29.922  11.765  12.208 -0.0451 -0.0530  0.1930
42573DOD     C171538  28.097  11.042  18.245  0.0150  0.2812 -0.0754
42573DOD     C271539  28.123  11.561  18.182  0.0638  0.1801  0.2000
42573DOD     C371540  28.317  11.968  18.216 -0.1851  0.2843 -0.0918
42574DOD     C171541   8.711  13.680  29.305  0.0131  0.1624  0.2556
42574DOD     C271542   8.252  13.741  29.343 -0.0066 -0.0221  0.1488
42574DOD     C371543   7.885  13.559  29.621  0.0055 -0.2457  0.1225
42575DOD     C171544  29.021  29.319  25.148  0.0863 -0.1921  0.2175
42575DOD     C271545  28.926  28.938  24.841 -0.1327  0.0683  0.1460
42575DOD     C371546  29.180  28.686  24.532  0.2907 -0.0963  0.2685
42576DOD     C171547  28.595   3.436   5.825 -0.4372  0.2440 -0.0044
42576DOD     C271548  29.061   3.573   5.903 -0.0816 -0.1101  0.0580
42576DOD     C371549  29.522   3.644   5.693 -0.1897 -0.1058 -0.0300
42577DOD     C171550   3.150  24.983   4.761  0.4123  0.1647 -0.1275
42577DOD     C271551   2.775  24.807   4.537 -0.2314  0.0886 -0.1521
42577DOD     C371552   2.323  24.732   4.451  0.0193 -0.0362 -0.1004
42578DOD     C171553  25.353   2.693  27.971 -0.1003  0.1591 -0.2394
42578DOD     C271554  25.193   2.953  28.342 -0.2419  0.3770 -0.0912
42578DOD     C371555  24.754   3.021  28.509 -0.0995  0.2639  0.2224
42579DOD     C171556  28.837   2.081  14.034 -0.1912 -0.0569  0.1197
42579DOD     C271557  29.129   2.353  13.848  0.1682 -0.0429  0.1549
42579DOD     C371558  29.255   2.834  13.796  0.1621  0.2611  0.1872
42580DOD     C171559  19.470   4.759  30.319 -0.0437  0.2757 -0.0469
42580DOD     C271560  19.097   5.063   0.005 -0.1764  0.3098 -0.1831
42580DOD     C371561  18.656   5.162  30.157 -0.3473 -0.2671  0.2484
42581DOD     C171562  22.588  12.358   8.026  0.2240 -0.2043 -0.0320
42581DOD     C271563  22.897  12.523   8.290  0.1585 -0.1236  0.3100
42581DOD     C371564  23.227  12.862   8.165  0.1881 -0.1223 -0.4497
42582DOD     C171565   3.363  17.878  22.717  0.2272  0.0897 -0.0383
42582DOD     C271566   3.750  17.634  22.875  0.4021  0.2582  0.2487
42582DOD     C371567   3.884  17.243  22.965 -0.1934  0.1692 -0.0472
42583DOD     C171568  28.686   7.478  22.549 -0.2245 -0.2657  0.1006
42583DOD     C271569  28.926   7.115  22.712 -0.0293 -0.1619  0.0403
42583DOD     C371570  29.016   6.661  22.803 -0.2685 -0.1925  0.1069
42584DOD     C171571  27.930  28.771   4.222  0.3290  0.0393  0.2461
42584DOD     C271572  28.287  28.620   4.553  0.0874  0.0841  0.2039
42584DOD     C371573  28.316  28.280   4.865 -0.0008  0.2649  0.1116
42585DOD     C171574  25.887  12.561  17.383  0.0596  0.1654 -0.0983
42585DOD     C271575  26.087  12.128  17.360  0.3941  0.1775 -0.0642
42585DOD     C371576  26.258  11.736  17.369 -0.0680  0.2634 -0.3032
42586DOD     C171577   4.475   3.773  22.962 -0.1356  0.0479  0.1650
42586DOD     C271578   4.215   4.157  23.023  0.0041 -0.1239 -0.5380
42586DOD     C371579   3.862   4.285  23.345  0.1492  0.1383 -0.0717
42587DOD     C171580   2.782   4.391  14.628  0.1595  0.0427  0.2067
42587DOD     C271581   2.801   4.562  15.095  0.2076 -0.1451 -0.0742
42587DOD     C371582   2.700   4.709  15.478  0.0202  0.2789  0.3468
42588DOD     C171583   5.401   5.887  26.357 -0.0481  0.2691  0.0167
42588DOD     C271584   5.718   5.637  26.565 -0.1311 -0.1139  0.0205
42588DOD     C371585   6.035   5.417  26.352 -0.0364  0.1116  0.2443
42589DOD     C171586   9.059   5.365   1.168 -0.1813 -0.2450  0.0301
42589DOD     C271587   8.975   4.985   1.468  0.0785 -0.0427  0.0199
42589DOD     C371588   9.305   4.719   1.713  0.0783  0.2547  0.0122
42590DOD     C171589   4.499  27.519   9.250 -0.0954  0.3648  0.2538
42590DOD     C271590   4.377  27.860   9.492 -0.2041 -0.2803 -0.2204
42590DOD     C371591   4.295  28.290   9.558  0.0105  0.0546  0.2467
42591DOD     C171592  25.558  19.416  17.357  0.3963 -0.2791  0.1376
42591DOD     C271593  25.930  19.518  17.572  0.1992  0.1943  0.0934
42591DOD     C371594  26.189  19.282  17.867 -0.0185 -0.1363  0.2109
42592DOD     C171595   1.100  25.557  22.790 -0.2272 -0.0197  0.1626
42592DOD     C271596   1.482  25.703  23.046 -0.0671  0.2039 -0.3439
42592DOD     C371597   1.950  25.778  23.118  0.1700 -0.0189  0.0393
42593DOD     C171598  17.963  25.750   1.000 -0.1152  0.0371 -0.2410
42593DOD     C271599  18.297  25.716   1.315  0.3721 -0.0495 -0.0363
42593DOD     C371600  18.557  25.296   1.414 -0.2532 -0.3396  0.1009
42594DOD     C171601   9.170  13.888   6.436 -0.0941  0.1606 -0.0555
42594DOD     C271602   9.172  14.215   6.763 -0.0830  0.4473 -0.1311
42594DOD     C371603   9.161  14.493   7.171 -0.1370 -0.0913  0.0149
42595DOD     C171604  11.672  11.213  19.115 -0.0897  0.1834 -0.0450
42595DOD     C271605  11.547  11.395  18.710 -0.0183  0.2084  0.0369
42595DOD     C371606  11.252  11.697  18.435  0.1399 -0.0093  0.4314
42596DOD     C171607  27.987  15.651   2.550  0.1357 -0.0022  0.2008
42596DOD     C271608  27.898  15.960   2.227  0.0426  0.1857 -0.1498
42596DOD     C371609  28.127  16.289   2.016  0.1441 -0.0502  0.0962
42597DOD     C171610  16.754  19.478  18.709 -0.1753  0.1064  0.0945
42597DOD     C271611  17.151  19.176  18.583  0.1069  0.0734 -0.1486
42597DOD     C371612  17.231  19.203  18.138 -0.1102 -0.1396 -0.0372
42598DOD     C171613   5.404  23.024  19.099 -0.0874  0.1321  0.0596
42598DOD     C271614   5.614  22.757  18.818  0.1787  0.1304 -0.4079
42598DOD     C371615   6.011  22.558  18.678 -0.0442 -0.5022 -0.0261
42599DOD     C171616   9.146  26.466   6.206 -0.2507 -0.0148  0.3131
42599DOD     C271617   9.240  26.672   5.787 -0.2959  0.2721  0.1014
42599DOD     C371618   9.558  27.001   5.740 -0.2383  0.1407 -0.1083
42600DOD     C171619  12.758   9.677   1.043 -0.2039 -0.1707 -0.3051
42600DOD     C271620  12.803   9.996   1.386 -0.2275  0.1186 -0.0416
42600DOD     C371621  12.710  10.464   1.359 -0.0002 -0.2400 -0.0333
42601DOD     C171622  15.858  25.453  27.098 -0.0918  0.0737  0.1193
42601DOD     C271623  15.568  25.431  27.456  0.1964 -0.1151  0.0478
42601DOD     C371624  15.459  25.124  27.800 -0.0270 -0.0987 -0.1528
42602DOD     C171625  29.287  29.865  20.938 -0.2601  0.0421 -0.2572
42602DOD     C271626  29.508  30.087  20.621  0.0139  0.0588 -0.4414
42602DOD     C371627  29.780  -0.002  20.381 -0.2128 -0.1130  0.2737
42603DOD     C171628  21.473  17.109   0.313 -0.0515  0.0524 -0.2569
42603DOD     C271629  21.377  16.633   0.158  0.1470 -0.1449 -0.1508
42603DOD     C371630  21.179  16.346  30.092  0.2807 -0.0084  0.2801
42604DOD     C171631   1.554  19.745   8.024  0.0897 -0.2008  0.2772
42604DOD     C271632   1.095  19.847   8.039  0.2889 -0.0990  0.1416
42604DOD     C371633   0.787  20.179   8.118 -0.0886 -0.1414 -0.0119
42605DOD     C171634   0.948   2.810  13.704  0.4358  0.0219 -0.2827
42605DOD     C271635   1.288   3.150  13.597 -0.0704  0.2308  0.0505
42605DOD     C371636   1.377   3.616  13.803 -0.2181 -0.2119  0.3662
42606DOD     C171637   0.650   8.219  17.330 -0.0242 -0.0331  0.1616
42606DOD     C271638   0.773   8.390  16.877  0.0527 -0.0622 -0.0778
42606DOD     C371639   0.984   8.274  16.454 -0.2945 -0.0000  0.0065
42607DOD     C171640  24.835   0.500  28.357 -0.1629  0.2222  0.3891
42607DOD     C271641  24.838   0.514  27.880 -0.0903 -0.2451 -0.0580
42607DOD     C371642  24.605   0.233  27.613 -0.1565 -0.0075  0.0583
42608DOD     C171643  16.726   4.323  20.460  0.3412  0.0006  0.1312
42608DOD     C271644  16.651   4.764  20.647 -0.2458 -0.0737  0.0313
42608DOD     C371645  16.753   5.140  20.960 -0.1583 -0.2521  0.0469
42609DOD     C171646   0.130   4.959   4.859 -0.0716  0.2916 -0.0790
42609DOD     C271647   0.528   5.053   4.589  0.0300 -0.0352  0.0362
42609DOD     C371648   0.729   5.311   4.206 -0.0284  0.0072 -0.2628
42610DOD     C171649   6.249   7.520   0.671  0.0040  0.1216  0.2660
42610DOD     C271650   6.157   7.983   0.692 -0.0645  0.1626  0.3058
42610DOD     C371651   6.473   8.383   0.713  0.0230  0.3047 -0.1473
42611DOD     C171652   8.582  29.116  23.249  0.0977 -0.1105 -0.0764
42611DOD     C271653   8.304  28.857  23.570  0.1698 -0.0803  0.1252
42611DOD     C371654   8.009  28.498  23.709  0.0511 -0.0687 -0.0380
42612DOD     C171655   9.359  21.763  27.156  0.0608 -0.1208  0.0691
42612DOD     C271656   8.957  21.556  27.139  0.1039 -0.2029 -0.3358
42612DOD     C371657   8.631  21.357  26.827 -0.2234 -0.2748 -0.3075
42613DOD     C171658   1.165  30.287  10.955 -0.2972  0.0223  0.1568
42613DOD     C271659   1.513  30.099  10.761 -0.4306  0.1414  0.0737
42613DOD     C371660   1.904  29.896  10.667  0.0213 -0.1248 -0.1576
42614DOD     C171661   1.412   7.511  17.448 -0.3911 -0.1665 -0.0217
42614DOD     C271662   1.037   7.785  17.516 -0.0514  0.0417 -0.3479
42614DOD     C371663   0.625   7.881  17.725  0.1774  0.1757  0.0951
42615DOD     C171664   4.765  14.914  28.477 -0.2547 -0.4931 -0.0076
42615DOD     C271665   4.728  15.137  28.915 -0.1822 -0.1033  0.0790
42615DOD     C371666   4.590  15.551  29.080  0.1969  0.1990 -0.1426
42616DOD     C171667  22.682  26.883  27.600 -0.1137  0.0243  0.0439
42616DOD     C271668  22.434  26.755  28.010  0.0431 -0.2400 -0.1256
42616DOD     C371669  22.516  26.625  28.463  0.0223 -0.1603  0.1591
42617DOD     C171670  18.391   9.386   9.857 -0.1327 -0.1656 -0.1563
42617DOD     C271671  18.238   9.731   9.577  0.2582  0.1357 -0.2245
42617DOD     C371672  17.906   9.980   9.640  0.0147 -0.2422  0.1015
42618DOD     C171673  27.588  23.692   9.180 -0.0569 -0.0218 -0.4630
42618DOD     C271674  27.290  23.381   9.417  0.1986  0.0311 -0.2800
42618DOD     C371675  26.885  23.209   9.573  0.5891 -0.0610  0.0270
42619DOD     C171676  24.804  29.208  23.639  0.2172  0.0304  0.0683
42619DOD     C271677  24.375  29.063  23.829 -0.0396 -0.0867 -0.1028
42619DOD     C371678  23.937  29.145  24.080 -0.2815  0.1837  0.0386
42620DOD     C171679  19.797  28.273   0.424  0.1065  0.0339  0.0991
42620DOD     C271680  20.048  28.233   0.822  0.3601 -0.0813  0.2183
42620DOD     C371681  20.127  27.913   1.116  0.1066 -0.1010  0.3180
42621DOD     C171682  25.666  18.631  17.579 -0.1919  0.2298  0.1007
42621DOD     C271683  25.328  18.394  17.352 -0.2403  0.2664  0.3158
42621DOD     C371684  24.875  18.372  17.451 -0.1413  0.1968 -0.2300
42622DOD     C171685  13.459  10.778  20.978  0.2670 -0.1247 -0.0090
42622DOD     C271686  13.617  10.354  20.932  0.2044  0.0296 -0.1238
42622DOD     C371687  13.613  10.050  21.235  0.1821 -0.2407  0.0303
42623DOD     C171688  18.201   7.661   2.427 -0.2643 -0.1210  0.0057
42623DOD     C271689  18.309   7.531   2.002 -0.0155 -0.1226 -0.2528
42623DOD     C371690  18.104   7.248   1.683  0.3019 -0.0348 -0.0159
42624DOD     C171691  29.052   5.349  15.491  0.0104  0.2103  0.1850
42624DOD     C271692  28.849   4.992  15.189 -0.0807 -0.1168 -0.0023
42624DOD     C371693  28.629   4.733  14.916 -0.1552  0.1174 -0.0514
42625DOD     C171694  20.530   1.062  21.583  0.2157 -0.1675 -0.1963
42625DOD     C271695  20.985   0.919  21.463  0.1554 -0.0260  0.0079
42625DOD     C371696  21.417   0.798  21.322 -0.1029  0.0511 -0.2506
42626DOD     C171697  10.580  30.177  22.824  0.2134  0.2183 -0.0894
42626DOD     C271698  10.551  29.702  22.666  0.0321 -0.0260 -0.0021
42626DOD     C371699  10.705  29.443  22.360 -0.2174 -0.0249 -0.2655
42627DOD     C171700   9.355  24.021   6.896 -0.0721 -0.0817  0.1952
42627DOD     C271701   9.305  23.751   7.228 -0.0668 -0.2925  0.1193
42627DOD     C371702   9.160  23.698   7.729  0.2455  0.1638  0.0937
42628DOD     C171703   8.820  25.670  10.277  0.0172  0.0482  0.0937
42628DOD     C271704   9.194  25.897  10.505 -0.0987 -0.0380 -0.1294
42628DOD     C371705   9.312  26.022  10.966 -0.2231  0.3586  0.0670
42629DOD     C171706  18.019  28.000   8.181  0.0594 -0.1271  0.1154
42629DOD     C271707  18.175  27.533   8.186 -0.2727  0.2442  0.0799
42629DOD     C371708  18.551  27.320   8.255 -0.1331  0.2304 -0.0348
42630DOD     C171709  12.977  25.897  11.692 -0.0620 -0.0602  0.0142
42630DOD     C271710  13.377  25.685  11.750 -0.2221 -0.0689 -0.1720
42630DOD     C371711  13.550  25.262  11.703 -0.0560  0.2398  0.2838
42631DOD     C171712  18.273  19.967  28.144 -0.1601  0.1891 -0.1059
42631DOD     C271713  18.071  20.132  28.549 -0.2046 -0.3503 -0.0283
42631DOD     C371714  17.839  20.236  28.972  0.1503 -0.0254 -0.0276
42632DOD     C171715  27.366  19.760   5.960 -0.2892  0.0267 -0.1900
42632DOD     C271716  27.255  19.544   5.587  0.1329  0.3118 -0.0151
42632DOD     C371717  27.247  19.212   5.236 -0.0921  0.0893  0.1805
42633DOD     C171718  12.751   1.992  24.939  0.0602 -0.1771 -0.1681
42633DOD     C271719  12.422   2.134  25.266  0.2537  0.0321  0.0000
42633DOD     C371720  12.459   2.245  25.700 -0.2447  0.0074 -0.1231
42634DOD     C171721  26.337  13.825  10.647 -0.1349 -0.0574 -0.4558
42634DOD     C271722  26.410  13.530  10.264  0.0817  0.0872 -0.0186
42634DOD     C371723  26.151  13.319   9.947 -0.2168 -0.0478  0.0980
42635DOD     C171724   0.345  29.253  12.888 -0.1135  0.0175  0.2512
42635DOD     C271725  30.236  29.141  12.882  0.0569 -0.2558 -0.1446
42635DOD     C371726  30.132  28.770  12.776  0.0963  0.1180 -0.0912
42636DOD     C171727  23.645  24.706  27.764  0.0200 -0.3721  0.1694
42636DOD     C271728  23.771  24.579  28.164  0.3288 -0.2530  0.1312
42636DOD     C371729  23.745  24.823  28.575 -0.0332  0.1862 -0.1172
42637DOD     C171730  20.669   5.337   5.441 -0.1078 -0.0542 -0.0171
42637DOD     C271731  20.499   5.066   5.784 -0.0959  0.5179 -0.2736
42637DOD     C371732  20.378   4.646   5.986  0.2089 -0.0323  0.1993
42638DOD     C171733   5.660   8.801  17.294  0.0447 -0.1837  0.5010
42638DOD     C271734   6.117   8.688  17.211  0.0198  0.0528 -0.1192
42638DOD     C371735   6.502   8.889  17.079  0.0050  0.3154  0.0055
42639DOD     C171736  12.717   5.460   0.626 -0.0567  0.1970  0.1397
42639DOD     C271737  12.981   5.270   0.900 -0.1493 -0.2542  0.1084
42639DOD     C371738  13.314   5.268   1.232  0.1162 -0.0020  0.0873
42640DOD     C171739   5.629  17.325   7.326 -0.0158  0.6381  0.0076
42640DOD     C271740   5.939  17.676   7.218  0.0783  0.0098 -0.0948
42640DOD     C371741   5.904  18.088   6.994  0.4508  0.3560 -0.0196
42641DOD     C171742   5.476  10.205  13.811 -0.1204  0.0086  0.2243
42641DOD     C271743   5.635   9.785  13.653  0.2957 -0.5361  0.0128
42641DOD     C371744   5.468   9.366  13.719  0.0252 -0.2835  0.1205
42642DOD     C171745   7.789  19.803  25.475  0.0770  0.0028  0.1036
42642DOD     C271746   7.412  20.043  25.335 -0.4008 -0.1194 -0.0968
42642DOD     C371747   6.923  20.040  25.282  0.2271 -0.2338  0.3433
42643DOD     C171748   8.731   9.523  29.565  0.0414 -0.1806  0.5321
42643DOD     C271749   8.521   9.635  29.997 -0.1526 -0.0408  0.0261
42643DOD     C371750   8.105   9.449  30.238 -0.1716 -0.0412  0.2219
42644DOD     C171751   3.329  12.507  19.125 -0.3636 -0.3869  0.1565
42644DOD     C271752   3.483  12.747  18.842  0.0086  0.1358 -0.0618
42644DOD     C371753   3.607  13.131  18.619  0.0007 -0.0584 -0.4221
42645DOD     C171754  23.039   5.450  28.500 -0.2623 -0.2952 -0.0879
42645DOD     C271755  23.357   5.716  28.752  0.1432  0.0408 -0.1912
42645DOD     C371756  23.578   5.923  29.165  0.1247  0.0514  0.1674
42646DOD     C171757   7.736  18.691  13.974 -0.1789 -0.1790 -0.3242
42646DOD     C271758   7.370  18.912  13.920  0.1352  0.0355 -0.0819
42646DOD     C371759   7.148  19.149  13.624 -0.0955 -0.0355 -0.1390
42647DOD     C171760  11.610  10.455  20.439  0.2080  0.2369  0.2517
42647DOD     C271761  11.373  10.302  20.824 -0.2243  0.0593  0.3113
42647DOD     C371762  11.377  10.038  21.200  0.1849 -0.1303  0.0646
42648DOD     C171763   3.999   9.482   2.444 -0.0686 -0.3580 -0.2228
42648DOD     C271764   3.515   9.545   2.593 -0.1563  0.0074 -0.3484
42648DOD     C371765   3.182   9.372   2.895 -0.1052  0.2291  0.0509
42649DOD     C171766   5.023  17.768  20.784  0.2321  0.3038  0.1603
42649DOD     C271767   5.004  17.391  21.121  0.2416 -0.0737  0.1860
42649DOD     C371768   5.355  17.187  21.422  0.0354  0.1601  0.1317
42650DOD     C171769  27.223  21.733   4.927 -0.0229  0.1106 -0.0796
42650DOD     C271770  27.409  21.788   5.370 -0.1304 -0.0025 -0.1403
42650DOD     C371771  27.509  21.455   5.670  0.4984 -0.2648 -0.1570
42651DOD     C171772  21.265  12.913  18.850 -0.0434 -0.1906  0.0424
42651DOD     C271773  21.153  12.607  19.183 -0.0840 -0.2186  0.0507
42651DOD     C371774  20.952  12.721  19.641  0.1628  0.3025 -0.0350
42652DOD     C171775  22.785  23.199  13.526  0.1711  0.0150 -0.0019
42652DOD     C271776  22.862  23.621  13.696 -0.0324 -0.1109 -0.1610
42652DOD     C371777  22.931  24.074  13.814 -0.0449  0.0825 -0.1208
42653DOD     C171778  10.050  17.301  14.700 -0.0299  0.2254  0.1166
42653DOD     C271779   9.892  17.717  14.834 -0.3637  0.3507  0.2827
42653DOD     C371780   9.538  17.809  15.078  0.4012  0.0980 -0.3292
42654DOD     C171781   0.563  29.271   1.964  0.0353  0.1909 -0.1277
42654DOD     C271782   0.456  29.513   2.358  0.2068  0.1911  0.1251
42654DOD     C371783   0.545  29.318   2.782  0.0312  0.3173 -0.2791
42655DOD     C171784  10.256  26.285  14.823  0.2525 -0.0283  0.1751
42655DOD     C271785  10.273  26.320  14.359  0.1599  0.0669 -0.1732
42655DOD     C371786  10.543  26.297  13.999 -0.2747  0.2081 -0.1374
42656DOD     C171787  17.984  18.543   6.885  0.0425 -0.0532  0.3549
42656DOD     C271788  17.902  18.080   6.903 -0.0182 -0.1323  0.3596
42656DOD     C371789  17.486  17.992   6.822  0.2019  0.1872 -0.0407
42657DOD     C171790  11.273  15.772  16.613  0.4398 -0.1678 -0.1235
42657DOD     C271791  11.041  16.057  16.325  0.1125  0.1145 -0.2937
42657DOD     C371792  10.848  16.377  16.024 -0.0689 -0.2074  0.0652
42658DOD     C171793   3.936  22.673  21.335 -0.2284  0.0234 -0.2260
42658DOD     C271794   4.040  23.093  21.123  0.1677 -0.1187  0.0876
42658DOD     C371795   4.173  23.577  21.079  0.3835  0.1152 -0.1015
42659DOD     C171796   5.190  14.631  14.063 -0.0499  0.2467 -0.1142
42659DOD     C271797   5.547  14.347  14.050 -0.0057 -0.0302 -0.2212
42659DOD     C371798   5.863  14.177  14.359 -0.0889 -0.0670  0.0399
42660DOD     C171799   7.090   6.297  12.356  0.0887  0.1665 -0.2139
42660DOD     C271800   7.201   6.050  12.754  0.2315 -0.0320  0.2198
42660DOD     C371801   6.975   5.922  13.112 -0.1008 -0.2855  0.1494
42661DOD     C171802   0.789   4.064  19.808  0.0213 -0.1086  0.1332
42661DOD     C271803   0.371   4.220  19.741 -0.2118 -0.0268 -0.0731
42661DOD     C371804   0.149   4.299  19.382 -0.2011  0.0286  0.3913
42662DOD     C171805   9.538  21.260  29.208  0.1577  0.2460  0.0092
42662DOD     C271806   9.626  21.156  28.695 -0.0484  0.0607  0.1742
42662DOD     C371807   9.763  21.397  28.284  0.1239  0.4215  0.4624
42663DOD     C171808  20.588   0.709  30.134 -0.2916  0.1195  0.1692
42663DOD     C271809  20.123   0.613  30.090 -0.0368  0.1012 -0.4305
42663DOD     C371810  19.799   0.567  29.748 -0.0673  0.1346  0.3064
42664DOD     C171811  25.308  11.162  18.280 -0.0422  0.1016 -0.1813
42664DOD     C271812  24.849  11.055  18.298  0.0820  0.1009  0.1425
42664DOD     C371813  24.403  10.999  18.146  0.1990  0.2008  0.3785
42665DOD     C171814   2.593  18.765   3.170  0.1126 -0.1499  0.0846
42665DOD     C271815   2.487  19.058   3.549  0.0639 -0.1736  0.0177
42665DOD     C371816   2.362  19.096   4.032 -0.2895 -0.0756 -0.0857
42666DOD     C171817   8.475  12.736  14.170 -0.2329 -0.1138  0.0854
42666DOD     C271818   8.568  12.324  14.410 -0.0743 -0.1924  0.0241
42666DOD     C371819   8.642  11.893  14.517 -0.0283 -0.3201  0.3766
42667DOD     C171820  16.124  20.575   1.345 -0.1365 -0.0525  0.0794
42667DOD     C271821  15.734  20.343   1.452  0.2653 -0.2131  0.0447
42667DOD     C371822  15.308  20.349   1.635 -0.0651 -0.1730 -0.1644
42668DOD     C171823  18.904   9.077  18.258  0.0436 -0.0236 -0.0003
42668DOD     C271824  18.532   9.289  18.087 -0.0905  0.0521 -0.0348
42668DOD     C371825  18.343   9.512  17.677  0.2880 -0.2420 -0.1967
42669DOD     C171826  22.993  17.370  25.534  0.0898 -0.3080  0.2604
42669DOD     C271827  22.550  17.395  25.481  0.1314  0.0273  0.0577
42669DOD     C371828  22.217  17.243  25.637 -0.0977 -0.1373 -0.1290
42670DOD     C171829  21.157  18.405  18.134  0.0887  0.0945  0.0914
42670DOD     C271830  20.973  18.814  18.163 -0.0896  0.0586 -0.0468
42670DOD     C371831  20.607  19.039  18.203  0.0069  0.0278 -0.0581
42671DOD     C171832  29.702   1.158  10.956  0.0562  0.0232  0.1596
42671DOD     C271833  29.727   0.693  10.872 -0.3360  0.0037  0.1868
42671DOD     C371834  29.594   0.364  10.541  0.1341  0.0757  0.1587
42672DOD     C171835   7.500  22.421  29.370  0.3811 -0.1713 -0.0464
42672DOD     C271836   7.720  22.858  29.398 -0.3136 -0.0290 -0.1254
42672DOD     C371837   8.038  23.236  29.345  0.0575 -0.0773 -0.3194
42673DOD     C171838  14.145   8.177  30.007 -0.1005  0.1116 -0.1896
42673DOD     C271839  14.393   8.570  29.878  0.3005 -0.2037  0.0348
42673DOD     C371840  14.576   9.029  29.995  0.0315 -0.1379 -0.1826
42674DOD     C171841  18.430  13.366   7.644  0.0140  0.4102  0.2137
42674DOD     C271842  18.889  13.352   7.808  0.0249  0.0473  0.1270
42674DOD     C371843  19.305  13.457   8.034 -0.1169  0.0932 -0.0483
42675DOD     C171844  15.318   9.326   9.213  0.3104  0.0368 -0.0624
42675DOD     C271845  15.645   9.666   9.334 -0.3998 -0.2522 -0.0910
42675DOD     C371846  15.886  10.097   9.242  0.3491  0.0960  0.1767
42676DOD     C171847   9.851   2.661  29.692  0.1460  0.0661  0.2690
42676DOD     C271848   9.578   2.457  30.030 -0.0410  0.0360 -0.1348
42676DOD     C371849   9.268   2.582   0.058  0.0599  0.0221 -0.4761
42677DOD     C171850  24.505  20.574  17.436 -0.0563 -0.2224 -0.0781
42677DOD     C271851  24.101  20.366  17.186 -0.0415  0.3281 -0.0919
42677DOD     C371852  23.954  20.337  16.740  0.1980  0.0557 -0.2650
42678DOD     C171853  16.723   9.810  23.461  0.2488  0.0858 -0.2795
42678DOD     C271854  16.504  10.170  23.257 -0.2362 -0.1823 -0.0588
42678DOD     C371855  16.009  10.166  23.389 -0.0326 -0.1194  0.1738
42679DOD     C171856   8.721  22.948  19.491 -0.1210  0.0925 -0.0993
42679DOD     C271857   9.031  23.087  19.825 -0.1965 -0.2064 -0.1789
42679DOD     C371858   9.140  23.446  20.146 -0.1274  0.1038 -0.1202
42680DOD     C171859  21.568  23.736  20.428  0.0174  0.1831  0.0593
42680DOD     C271860  21.782  23.849  20.051  0.1805  0.1812  0.3018
42680DOD     C371861  22.115  23.979  19.756  0.2246 -0.0381  0.1410
42681DOD     C171862  18.258   2.099  20.082  0.2049  0.0751 -0.0565
42681DOD     C271863  18.595   2.417  19.975 -0.1894  0.0481 -0.0019
42681DOD     C371864  18.945   2.710  19.841 -0.1129 -0.1960 -0.3198
42682DOD     C171865   2.928  28.692  27.277 -0.0441  0.2547 -0.0862
42682DOD     C271866   3.301  28.720  27.614  0.1901 -0.2046 -0.1395
42682DOD     C371867   3.716  28.622  27.609  0.0584 -0.3004 -0.0045
42683DOD     C171868  26.104  14.927   7.444  0.4159 -0.0375 -0.1909
42683DOD     C271869  26.443  15.239   7.364 -0.0426 -0.0993  0.2238
42683DOD     C371870  26.790  15.270   7.703 -0.0369 -0.0693 -0.0226
42684DOD     C171871  19.267   0.300  17.530  0.0171 -0.0568 -0.0265
42684DOD     C271872  19.441  30.214  17.711 -0.1997 -0.1341 -0.0453
42684DOD     C371873  19.345  29.776  17.501  0.0400  0.1789  0.2129
42685DOD     C171874   8.117  14.583  27.840  0.1197 -0.1148 -0.0105
42685DOD     C271875   7.813  14.944  27.752  0.2471  0.1317  0.1461
42685DOD     C371876   7.808  15.429  27.957  0.3193  0.0912  0.2904
42686DOD     C171877  13.439  17.924  10.055 -0.1548  0.1524 -0.2334
42686DOD     C271878  13.230  17.655   9.809  0.1206 -0.0643  0.1694
42686DOD     C371879  12.968  17.362   9.531 -0.0670  0.1552  0.0766
42687DOD     C171880  14.188  17.022   6.299  0.0227  0.0614 -0.4471
42687DOD     C271881  14.516  17.059   6.674 -0.2668  0.3735  0.1968
42687DOD     C371882  14.914  17.127   6.889  0.3009 -0.0576 -0.2294
42688DOD     C171883  24.566  17.223   4.864 -0.0843 -0.1421 -0.0272
42688DOD     C271884  24.764  16.945   4.527  0.1182  0.1995 -0.2269
42688DOD     C371885  24.829  16.471   4.387 -0.3121  0.1032 -0.1938
42689DOD     C171886  27.734  26.295  27.518 -0.3345 -0.2066  0.0486
42689DOD     C271887  27.591  25.886  27.295  0.1128  0.0760  0.0330
42689DOD     C371888  27.184  25.634  27.219  0.1229 -0.0641  0.0883
42690DOD     C171889  25.242  23.137   7.338  0.1622  0.1759 -0.1539
42690DOD     C271890  25.311  23.532   7.131  0.1052  0.3577  0.1155
42690DOD     C371891  25.693  23.737   6.859 -0.0737  0.0870 -0.1516
42691DOD     C171892   1.666   5.882  14.100  0.2695 -0.0868 -0.0143
42691DOD     C271893   1.686   6.347  14.366  0.2134  0.2214 -0.0801
42691DOD     C371894   1.632   6.498  14.841  0.0603  0.0355 -0.3373
42692DOD     C171895   5.553  19.965   7.061 -0.0279 -0.0108 -0.4152
42692DOD     C271896   5.865  19.666   7.187  0.1044  0.0639 -0.3371
42692DOD     C371897   6.249  19.432   7.297  0.0992  0.2418  0.1615
42693DOD     C171898  14.449  14.587  29.344  0.0845 -0.3033 -0.1699
42693DOD     C271899  14.582  14.480  29.754 -0.3115 -0.0921 -0.0530
42693DOD     C371900  14.589  14.555  30.258  0.2029  0.1041  0.1539
42694DOD     C171901  28.092  28.565  25.828  0.1640  0.1574  0.1311
42694DOD     C271902  27.658  28.692  25.755  0.5618 -0.0542  0.3158
42694DOD     C371903  27.225  28.838  25.612 -0.0984  0.1419  0.1213
42695DOD     C171904   4.854   4.625  17.512 -0.0630 -0.4952 -0.0900
42695DOD     C271905   4.599   4.746  17.216  0.2051  0.2895 -0.0220
42695DOD     C371906   4.364   5.122  17.101 -0.1827  0.0549 -0.2876
42696DOD     C171907  27.540  18.780  23.206 -0.2419 -0.0001 -0.0237
42696DOD     C271908  27.615  19.238  23.241  0.0880  0.0926  0.0608
42696DOD     C371909  27.844  19.555  22.912  0.1455 -0.4454  0.1739
42697DOD     C171910   7.188   1.779   6.859  0.2139  0.1029  0.0250
42697DOD     C271911   7.547   2.048   6.763  0.0034  0.1121  0.0022
42697DOD     C371912   8.038   2.094   6.690 -0.2683  0.1370 -0.1160
42698DOD     C171913  14.894   3.015   6.584 -0.2907 -0.0140 -0.0968
42698DOD     C271914  14.733   2.934   6.215  0.1864 -0.1097  0.1840
42698DOD     C371915  14.673   2.929   5.705  0.2278  0.0754 -0.0717
42699DOD     C171916  19.530   4.545  13.117  0.0689 -0.2781  0.1795
42699DOD     C271917  19.333   4.988  13.218 -0.2895 -0.1860  0.1666
42699DOD     C371918  19.620   5.397  13.298 -0.0803  0.1615  0.5294
42700DOD     C171919  26.417  13.482  22.323  0.3127  0.0471  0.0246
42700DOD     C271920  26.285  13.750  22.014  0.1807  0.0069 -0.0800
42700DOD     C371921  26.343  14.117  21.671 -0.0118  0.1136 -0.0963
42701DOD     C171922  27.804  16.160  20.222  0.1483  0.3639  0.2427
42701DOD     C271923  27.763  16.022  19.753  0.0608  0.3477  0.0180
42701DOD     C371924  27.957  15.761  19.363  0.0419 -0.2330  0.1495
42702DOD     C171925   6.609   8.538   4.680 -0.2180 -0.0193  0.1440
42702DOD     C271926   6.296   8.865   4.466  0.0862  0.0066 -0.1260
42702DOD     C371927   6.031   9.006   4.118  0.0076 -0.2137 -0.0636
42703DOD     C171928  25.761  29.792  11.269  0.0694 -0.0919 -0.1422
42703DOD     C271929  25.436  30.091  11.360  0.0780  0.1530  0.0130
42703DOD     C371930  24.958  30.187  11.410 -0.1950 -0.1123 -0.0708
42704DOD     C171931  25.579   5.220   7.453  0.0150  0.1760  0.1792
42704DOD     C271932  25.680   5.624   7.284 -0.0856  0.2158 -0.4687
42704DOD     C371933  25.841   6.041   7.486  0.0459  0.2846 -0.0503
42705DOD     C171934   7.867  19.499  28.230 -0.0355 -0.1520 -0.0694
42705DOD     C271935   7.499  19.570  27.916  0.0011  0.2613  0.2303
42705DOD     C371936   7.078  19.417  28.043  0.3951 -0.0414 -0.1509
42706DOD     C171937   3.413  30.185   1.931  0.1495 -0.1477 -0.2795
42706DOD     C271938   3.387   0.342   1.916  0.0379 -0.0409 -0.4145
42706DOD     C371939   3.591   0.735   1.962 -0.0076  0.1161  0.1585
42707DOD     C171940  26.429  19.920  21.548  0.0639  0.1105  0.1474
42707DOD     C271941  26.913  19.896  21.415  0.0809  0.0819 -0.0772
42707DOD     C371942  27.300  20.014  21.227 -0.0819  0.1399 -0.1518
42708DOD     C171943  16.565  13.654  26.547 -0.2119 -0.0360  0.0812
42708DOD     C271944  16.974  13.532  26.343 -0.2163  0.1225 -0.0122
42708DOD     C371945  17.137  13.165  26.044 -0.0882 -0.0063  0.0145
42709DOD     C171946  22.351  18.113  29.462 -0.2196  0.1631  0.2664
42709DOD     C271947  22.574  17.841  29.819 -0.1933 -0.0501 -0.1187
42709DOD     C371948  22.371  17.797  30.246  0.1184  0.0134 -0.0490
42710DOD     C171949   4.729  20.251  24.952 -0.4603 -0.0593 -0.0923
42710DOD     C271950   4.370  20.425  25.108  0.0440 -0.0508 -0.0680
42710DOD     C371951   4.102  20.712  25.399 -0.2589  0.0084  0.0577
42711DOD     C171952   8.138  30.180  22.149  0.0712  0.0617  0.1631
42711DOD     C271953   8.074   0.271  22.421 -0.1770  0.0444  0.1656
42711DOD     C371954   8.125   0.649  22.678  0.0795 -0.1543  0.3911
42712DOD     C171955   9.884  29.588  14.766 -0.0704  0.2678  0.1056
42712DOD     C271956  10.048  29.877  15.099 -0.0851  0.4212 -0.2461
42712DOD     C371957  10.294  30.100  15.453  0.0592 -0.1377 -0.0252
42713DOD     C171958  12.138  26.573  24.589  0.1270 -0.2259  0.1056
42713DOD     C271959  11.705  26.291  24.757 -0.0885  0.1049  0.4309
42713DOD     C371960  11.298  26.328  24.921  0.0367 -0.1407  0.0091
42714DOD     C171961  10.121  22.316   9.606  0.2315 -0.3419  0.2928
42714DOD     C271962   9.860  22.448   9.955 -0.3363  0.2115 -0.1617
42714DOD     C371963   9.646  22.526  10.309 -0.0199  0.2729  0.1452
42715DOD     C171964  18.674  14.658  29.931  0.0397  0.0639 -0.0140
42715DOD     C271965  19.041  14.893  29.809 -0.1189 -0.2198 -0.1244
42715DOD     C371966  19.511  14.968  29.857 -0.0280 -0.3035 -0.0012
42716DOD     C171967  23.381  24.365  19.914  0.1752  0.1646 -0.1818
42716DOD     C271968  23.205  24.097  19.591  0.0206 -0.4175  0.1775
42716DOD     C371969  22.974  24.215  19.188  0.3197 -0.0174  0.2593
42717DOD     C171970   1.284  10.630   6.187 -0.1990  0.1174  0.2934
42717DOD     C271971   0.975  10.429   6.479 -0.2940 -0.0510  0.0674
42717DOD     C371972   0.862  10.398   6.909  0.2780 -0.1612 -0.1805
42718DOD     C171973  24.790  10.785  22.874  0.2672 -0.2180  0.1279
42718DOD     C271974  25.033  11.080  22.761 -0.1713 -0.1264  0.2413
42718DOD     C371975  25.413  11.307  22.697  0.0551  0.1466 -0.1943
42719DOD     C171976  27.368   6.195  14.302  0.0580 -0.2051 -0.0147
42719DOD     C271977  27.239   5.777  14.491  0.0284  0.2716  0.1410
42719DOD     C371978  27.556   5.577  14.792 -0.0707  0.0913 -0.0013
42720DOD     C171979   4.461  26.979  18.613 -0.0722  0.1856  0.1280
42720DOD     C271980   4.699  27.292  18.488  0.1598  0.0355 -0.0203
42720DOD     C371981   4.784  27.715  18.256  0.1658  0.2049 -0.0941
42721DOD     C171982   2.815  22.951  10.725  0.4268 -0.0104 -0.0397
42721DOD     C271983   3.191  22.838  10.565  0.0237  0.2063 -0.0445
42721DOD     C371984   3.634  22.637  10.712  0.1199 -0.1458 -0.0825
42722DOD     C171985  12.818   2.284  14.676  0.1734  0.1657 -0.0671
42722DOD     C271986  12.884   2.036  14.272 -0.0642 -0.2213 -0.0990
42722DOD     C371987  13.097   1.635  14.106  0.1036  0.2280 -0.2600
42723DOD     C171988   2.460  13.624  13.434 -0.0116 -0.3515 -0.0381
42723DOD     C271989   2.744  14.014  13.398 -0.2398 -0.2796  0.3196
42723DOD     C371990   3.159  14.210  13.431 -0.0402 -0.2991  0.0625
42724DOD     C171991  22.239   2.437  30.319  0.2927  0.3606 -0.1969
42724DOD     C271992  22.716   2.409   0.121  0.0889 -0.0447 -0.0170
42724DOD     C371993  23.028   2.509   0.393  0.4111  0.0445 -0.0522
42725DOD     C171994  29.639  17.191  19.921  0.5207  0.1300  0.1240
42725DOD     C271995  29.888  17.519  20.130 -0.1619  0.5221 -0.0672
42725DOD     C371996  30.357  17.624  20.133  0.1701 -0.0749  0.0396
42726DOD     C171997   3.814  16.868   2.472 -0.0082  0.1099  0.4596
42726DOD     C271998   4.264  16.858   2.402 -0.1006  0.1992 -0.1197
42726DOD     C371999   4.648  17.110   2.473 -0.1419 -0.0410 -0.0023
42727DOD     C172000   5.035  16.767   5.829 -0.0991  0.1916 -0.0203
42727DOD     C272001   4.773  16.781   5.382 -0.1510  0.0224 -0.0517
42727DOD     C372002   4.739  16.827   4.978 -0.0381 -0.0522  0.0692
42728DOD     C172003  14.984  16.757   8.417  0.2307 -0.0032  0.0391
42728DOD     C272004  15.022  16.442   8.125  0.3639 -0.1010  0.0142
42728DOD     C372005  14.952  15.962   8.053  0.0736  0.1090 -0.1151
42729DOD     C172006  13.527   4.921  23.236 -0.4104  0.0477  0.2209
42729DOD     C272007  13.421   4.609  23.531 -0.0779  0.0237 -0.0530
42729DOD     C372008  13.135   4.191  23.478  0.1459 -0.0715 -0.2756
42730DOD     C172009   0.262   4.722  23.802 -0.2046  0.1573  0.1511
42730DOD     C272010   0.730   4.868  23.749  0.1942 -0.1567  0.4892
42730DOD     C372011   1.125   5.015  23.646  0.1262 -0.1768  0.0582
42731DOD     C172012  27.914  29.049  20.656 -0.1495 -0.0343  0.1344
42731DOD     C272013  28.199  28.732  20.712  0.2392 -0.0160  0.2177
42731DOD     C372014  28.567  28.553  20.901 -0.0127 -0.1912 -0.0548
42732DOD     C172015  25.898  20.976  15.968  0.3025  0.2816 -0.0706
42732DOD     C272016  25.458  21.056  16.073  0.1644  0.3650  0.2066
42732DOD     C372017  25.076  21.044  16.300  0.3128 -0.0744  0.1424
42733DOD     C172018   9.982   4.668  18.347  0.0321 -0.1207  0.0336
42733DOD     C272019  10.026   4.736  18.775 -0.0743  0.4005  0.1695
42733DOD     C372020  10.210   4.864  19.175 -0.0982  0.2143 -0.0711
42734DOD     C172021   9.579  19.010   1.908 -0.0351  0.3443  0.0776
42734DOD     C272022   9.207  19.023   2.167 -0.0779  0.1120  0.0813
42734DOD     C372023   8.826  19.136   2.369  0.1229 -0.1816 -0.0099
42735DOD     C172024   3.100   1.314  12.113  0.0432 -0.0279  0.2481
42735DOD     C272025   2.784   1.420  11.831 -0.2469 -0.0710 -0.1191
42735DOD     C372026   2.300   1.451  11.747  0.0373  0.0554 -0.2218
42736DOD     C172027  16.005   5.599  26.283 -0.6012  0.2774  0.1474
42736DOD     C272028  16.471   5.537  26.442 -0.2481 -0.0378  0.2440
42736DOD     C372029  16.814   5.354  26.751  0.0628  0.0356 -0.1057
42737DOD     C172030  24.513  23.165  18.628 -0.2942 -0.0047  0.0030
42737DOD     C272031  24.782  23.206  18.252 -0.1704  0.2043 -0.3172
42737DOD     C372032  24.957  23.307  17.842  0.0940 -0.1316  0.2941
42738DOD     C172033  27.962   8.975  23.213  0.0976  0.0758 -0.1797
42738DOD     C272034  27.803   9.089  22.801 -0.0238 -0.2897  0.0360
42738DOD     C372035  27.674   9.376  22.418  0.1488  0.2311 -0.1307
42739DOD     C172036  14.518   1.617  25.264  0.2279  0.0996 -0.0398
42739DOD     C272037  14.933   1.380  25.179  0.0677 -0.2159  0.0273
42739DOD     C372038  15.315   1.131  25.063 -0.0289  0.3478 -0.0754
42740DOD     C172039  28.600   6.835   5.875  0.1925 -0.1645 -0.0921
42740DOD     C272040  28.637   7.226   5.565  0.0372  0.3096 -0.2273
42740DOD     C372041  28.622   7.562   5.209 -0.0124  0.2454 -0.1545
42741DOD     C172042   1.553  17.917  22.308 -0.1324  0.1554 -0.1461
42741DOD     C272043   1.630  18.340  22.449 -0.0606 -0.0918  0.0200
42741DOD     C372044   1.426  18.674  22.627 -0.0244 -0.1785  0.1169
42742DOD     C172045  15.773  29.602   4.324 -0.2796 -0.2757  0.1959
42742DOD     C272046  16.108  29.904   4.184 -0.1302 -0.0763 -0.1422
42742DOD     C372047  16.265  30.262   3.953  0.1771  0.2055 -0.2628
42743DOD     C172048   1.702  22.882  14.511 -0.1278 -0.1907  0.1009
42743DOD     C272049   1.369  23.198  14.445  0.0160  0.0676 -0.1179
42743DOD     C372050   0.999  23.417  14.228  0.0715 -0.0287 -0.3561
42744DOD     C172051  26.483  19.272  11.162  0.1327  0.0346 -0.1840
42744DOD     C272052  26.500  18.917  10.802  0.1322  0.3806 -0.1558
42744DOD     C372053  26.635  18.696  10.382  0.0514 -0.3083 -0.1959
42745DOD     C172054  29.815  10.296  16.299 -0.1132  0.1203 -0.1854
42745DOD     C272055  30.228  10.458  16.272 -0.0230  0.4432 -0.1336
42745DOD     C372056   0.091  10.779  15.995 -0.2085 -0.1032  0.0128
42746DOD     C172057   6.563   4.227   5.649  0.0500  0.0808 -0.1539
42746DOD     C272058   6.837   4.444   5.307 -0.0172  0.1666  0.1038
42746DOD     C372059   7.013   4.585   4.872  0.1623  0.0191 -0.1178
42747DOD     C172060  20.011   7.703  11.952 -0.0455 -0.1517 -0.0468
42747DOD     C272061  19.725   7.364  12.000 -0.3699  0.0919 -0.0284
42747DOD     C372062  19.285   7.309  11.956  0.1325  0.2086  0.2376
42748DOD     C172063  14.364   7.484  18.676  0.0076  0.2476  0.3168
42748DOD     C272064  14.127   7.071  18.709  0.0632  0.4846 -0.1242
42748DOD     C372065  14.236   6.634  18.591 -0.2138  0.0762 -0.0169
42749DOD     C172066  23.625  17.375  26.157  0.1313  0.0140  0.0045
42749DOD     C272067  23.466  17.279  25.766  0.1120 -0.1432 -0.3567
42749DOD     C372068  23.469  17.206  25.268  0.3460 -0.0058 -0.1367
42750DOD     C172069  12.095  13.873   6.843 -0.0536  0.2595  0.0083
42750DOD     C272070  12.348  14.235   6.916 -0.2983  0.0865  0.0083
42750DOD     C372071  12.340  14.606   6.598 -0.0998  0.0291 -0.0837
42751DOD     C172072  18.354   7.471   1.139  0.0646  0.1382 -0.0309
42751DOD     C272073  18.383   7.922   1.241 -0.0262 -0.1080  0.2278
42751DOD     C372074  18.058   8.276   1.325  0.2230  0.1764 -0.0086
42752DOD     C172075  16.314   5.579  25.363 -0.0823 -0.1669  0.1253
42752DOD     C272076  16.032   5.597  25.771  0.2610 -0.2253 -0.0937
42752DOD     C372077  15.594   5.524  25.950  0.0168 -0.1059 -0.3052
42753DOD     C172078  29.908  24.953   4.937  0.1732  0.2317 -0.2804
42753DOD     C272079  29.874  24.545   5.170  0.1828  0.0059 -0.1999
42753DOD     C372080  29.605  24.310   5.496 -0.0817 -0.0987 -0.2147
42754DOD     C172081  24.152  10.815   7.862 -0.2222  0.3088 -0.1355
42754DOD     C272082  24.314  10.647   7.413 -0.1758 -0.1133  0.0208
42754DOD     C372083  24.603  10.334   7.220  0.2047 -0.0576 -0.0054
42755DOD     C172084  13.331  17.684   0.466  0.0706  0.2060  0.0541
42755DOD     C272085  12.917  17.942   0.535 -0.0193 -0.0349  0.1971
42755DOD     C372086  12.421  17.902   0.661  0.0010  0.0111  0.1844
42756DOD     C172087  12.306  20.551  17.774  0.1560 -0.3628  0.0454
42756DOD     C272088  11.907  20.559  17.988  0.0824 -0.4664  0.0389
42756DOD     C372089  11.487  20.371  18.026 -0.0438  0.0937 -0.0871
42757DOD     C172090   9.089   3.149  15.876  0.0182 -0.0510  0.0185
42757DOD     C272091   9.325   2.961  16.249 -0.1260 -0.0090 -0.1441
42757DOD     C372092   9.376   2.501  16.247  0.0542 -0.2960 -0.1481
42758DOD     C172093  17.609  22.947   5.232 -0.0282 -0.1410 -0.0358
42758DOD     C272094  17.342  22.583   5.355  0.2281 -0.3609 -0.0238
42758DOD     C372095  16.936  22.524   5.526  0.0087  0.3694  0.1228
42759DOD     C172096   8.689   0.747   4.053 -0.0155  0.1214 -0.0523
42759DOD     C272097   8.703   1.198   4.050 -0.1888 -0.2248  0.3193
42759DOD     C372098   8.716   1.535   4.311  0.2545  0.1535 -0.1746
42760DOD     C172099   5.230   4.789  12.932  0.1066  0.1533 -0.2316
42760DOD     C272100   4.979   5.166  12.803  0.1600 -0.0388  0.0790
42760DOD     C372101   4.676   5.545  12.800  0.1614  0.2389  0.0556
42761DOD     C172102  11.292  23.494  24.571 -0.1720 -0.0184  0.1871
42761DOD     C272103  11.594  23.308  24.259 -0.2231  0.1898  0.1248
42761DOD     C372104  11.517  22.878  24.203 -0.1987  0.1018 -0.0560
42762DOD     C172105  15.912   2.755  12.850 -0.1654  0.0936 -0.2060
42762DOD     C272106  15.435   2.656  12.779  0.1914  0.1315  0.1440
42762DOD     C372107  14.980   2.794  12.878  0.2040 -0.3332 -0.0560
42763DOD     C172108  21.894  18.678  19.282  0.2362  0.0864 -0.1340
42763DOD     C272109  22.203  18.821  18.997  0.0622  0.1502 -0.2003
42763DOD     C372110  22.675  18.719  18.931  0.1448 -0.3226 -0.1674
42764DOD     C172111  11.865  19.054   5.844  0.0049  0.2456 -0.2614
42764DOD     C272112  11.900  19.129   5.376  0.1686  0.2695 -0.2206
42764DOD     C372113  11.867  19.323   4.965 -0.0300  0.2373 -0.1028
42765DOD     C172114  25.107  22.487  23.343  0.0352  0.3129 -0.4821
42765DOD     C272115  25.309  22.095  23.491 -0.0352  0.2495 -0.3443
42765DOD     C372116  25.412  21.681  23.667 -0.0123 -0.2971 -0.1215
42766DOD     C172117   6.018   6.975  12.088  0.1458 -0.0764 -0.1391
42766DOD     C272118   5.840   6.970  12.512  0.3153  0.0275 -0.0403
42766DOD     C372119   5.766   6.957  12.962  0.0663 -0.3982 -0.1441
42767DOD     C172120  26.568   1.634  22.267  0.1025 -0.2903 -0.1316
42767DOD     C272121  26.970   1.572  22.567 -0.2272  0.0230  0.1855
42767DOD     C372122  27.168   1.977  22.673 -0.0910  0.0909  0.2752
42768DOD     C172123   8.315  27.519   3.502 -0.1298 -0.2223  0.0849
42768DOD     C272124   8.037  27.829   3.271 -0.0620 -0.0180  0.2031
42768DOD     C372125   7.993  28.197   2.981 -0.0864  0.2759 -0.0200
42769DOD     C172126  20.282   0.449   6.871  0.1712  0.1885 -0.2669
42769DOD     C272127  19.876   0.192   6.861  0.0107  0.0545 -0.2691
42769DOD     C372128  19.625  30.139   6.773 -0.1137  0.0159  0.2952
42770DOD     C172129  24.969   0.608  20.954  0.0870 -0.1835 -0.2750
42770DOD     C272130  25.034   0.944  21.223 -0.1018 -0.0117 -0.0338
42770DOD     C372131  25.218   1.370  21.228  0.1096 -0.0020  0.1448
42771DOD     C172132   6.007  20.363   6.013 -0.2870  0.1934  0.1438
42771DOD     C272133   5.903  20.248   6.415 -0.1868 -0.2001 -0.3457
42771DOD     C372134   5.947  19.944   6.743 -0.0736 -0.1016  0.2550
42772DOD     C172135  12.877  25.804   3.437  0.2752 -0.3392  0.1657
42772DOD     C272136  13.002  26.203   3.409  0.1510 -0.0402 -0.4764
42772DOD     C372137  13.326  26.479   3.530  0.2417  0.1372 -0.4666
42773DOD     C172138  22.729  17.391  26.848 -0.5904 -0.3330 -0.0494
42773DOD     C272139  23.024  17.091  26.728  0.2286  0.1543  0.3682
42773DOD     C372140  23.410  16.900  26.639 -0.3517 -0.1610 -0.2521
42774DOD     C172141  11.743  17.013   2.204 -0.1734 -0.3372  0.1747
42774DOD     C272142  11.796  17.476   1.988 -0.0989  0.0377 -0.2208
42774DOD     C372143  11.996  17.825   2.120 -0.1402  0.0572 -0.2319
42775DOD     C172144  29.103   3.592   5.368 -0.2646  0.1049  0.1737
42775DOD     C272145  29.569   3.479   5.208 -0.2166 -0.2540 -0.1620
42775DOD     C372146  29.995   3.454   5.004  0.3269 -0.1223  0.0980
42776DOD     C172147   1.104  18.613  11.338 -0.0871 -0.1790  0.1639
42776DOD     C272148   1.086  18.164  11.239 -0.1120 -0.0894 -0.0493
42776DOD     C372149   1.025  17.909  10.846 -0.3155 -0.2244  0.1633
42777DOD     C172150  14.762   9.326   6.356  0.0082  0.4668 -0.1276
42777DOD     C272151  14.809   9.710   6.559  0.2448  0.2280 -0.1071
42777DOD     C372152  15.046   9.876   6.902  0.0670 -0.3352 -0.0984
42778DOD     C172153   5.443  14.321  16.060 -0.0269 -0.3152 -0.0314
42778DOD     C272154   5.355  13.981  15.813 -0.1896  0.0564 -0.1524
42778DOD     C372155   5.519  13.581  15.724  0.5591 -0.0910 -0.0736
42779DOD     C172156  10.715  30.115  29.021  0.0285  0.1832  0.1065
42779DOD     C272157  11.063  30.186  28.770  0.1305 -0.1437 -0.1715
42779DOD     C372158  11.234   0.200  28.535 -0.7962  0.0442  0.1703
42780DOD     C172159   7.751  23.600  21.668 -0.1420 -0.1238  0.1381
42780DOD     C272160   7.902  23.737  22.114 -0.1001  0.0385  0.1666
42780DOD     C372161   8.329  23.753  22.307 -0.0538 -0.0559  0.2684
42781DOD     C172162  11.958  15.510  18.886  0.0885  0.1472  0.0129
42781DOD     C272163  11.595  15.788  18.812  0.1820 -0.0046  0.1283
42781DOD     C372164  11.183  15.758  18.977  0.1749 -0.1305 -0.1501
42782DOD     C172165  19.488   7.473   6.590  0.1046  0.0103  0.0312
42782DOD     C272166  19.200   7.786   6.806  0.0579 -0.1017 -0.2139
42782DOD     C372167  18.755   7.975   6.813 -0.2989  0.0214 -0.0932
42783DOD     C172168  16.354   4.865  22.202 -0.0035  0.0166 -0.1318
42783DOD     C272169  16.668   4.654  22.447 -0.0221 -0.0053 -0.0688
42783DOD     C372170  16.963   4.355  22.658 -0.2083 -0.1262 -0.0922
42784DOD     C172171  13.105   3.795  25.335 -0.2857  0.2314 -0.3739
42784DOD     C272172  13.533   3.744  25.494  0.0630 -0.4198 -0.0650
42784DOD     C372173  13.840   3.406  25.410 -0.1628  0.3023 -0.3019
42785DOD     C172174  25.844   8.985  22.162 -0.3496 -0.2787 -0.1894
42785DOD     C272175  25.526   9.056  22.450 -0.0763  0.2853 -0.1020
42785DOD     C372176  25.151   8.877  22.662 -0.1449 -0.2335  0.0120
42786DOD     C172177  17.689   3.768  28.035  0.2196  0.2597  0.2147
42786DOD     C272178  17.612   3.508  27.616  0.1082 -0.1259  0.2207
42786DOD     C372179  17.197   3.444  27.345  0.1545  0.2661 -0.0105
42787DOD     C172180  17.121  24.229  13.821 -0.1019  0.1298 -0.0201
42787DOD     C272181  16.906  24.501  14.152 -0.1475 -0.0354  0.0444
42787DOD     C372182  17.042  24.921  14.375 -0.0423  0.0260  0.1237
42788DOD     C172183  21.195  28.308   8.619  0.0559 -0.2953 -0.0806
42788DOD     C272184  21.496  28.095   8.340  0.0151 -0.2294 -0.3395
42788DOD     C372185  21.430  27.991   7.865 -0.3404 -0.2255  0.0477
42789DOD     C172186  25.747  15.942  28.891 -0.3721  0.2021 -0.0755
42789DOD     C272187  26.094  16.098  28.656 -0.1225 -0.1894  0.0333
42789DOD     C372188  26.452  16.486  28.686 -0.2795  0.1346  0.0811
42790DOD     C172189   7.571  27.445   9.116  0.2955  0.0218  0.1396
42790DOD     C272190   7.170  27.758   9.198 -0.2026  0.0826 -0.0667
42790DOD     C372191   6.743  27.951   9.120  0.0504 -0.1446  0.1122
42791DOD     C172192  28.604  14.599  19.393  0.3587 -0.0345 -0.0545
42791DOD     C272193  28.621  14.524  19.853 -0.0355  0.1248 -0.2971
42791DOD     C372194  28.437  14.808  20.155  0.2607  0.1419 -0.3253
42792DOD     C172195  21.204   2.427   3.916  0.1763 -0.1955  0.3365
42792DOD     C272196  21.010   2.617   3.524  0.1387  0.0933  0.0357
42792DOD     C372197  20.865   2.675   3.118  0.0097 -0.0082 -0.0502
42793DOD     C172198   9.156  14.044  17.605 -0.0300 -0.1393 -0.0982
42793DOD     C272199   8.897  13.793  17.879  0.3306  0.3968  0.0822
42793DOD     C372200   8.512  13.544  17.788  0.0914  0.1279  0.2134
42794DOD     C172201  25.531  15.691  17.681 -0.0673 -0.3216 -0.0258
42794DOD     C272202  25.817  15.539  17.325 -0.1483  0.0988 -0.0697
42794DOD     C372203  25.905  15.507  16.889 -0.1337 -0.0009 -0.0160
42795DOD     C172204   7.106   4.386  19.944  0.2372 -0.1393 -0.0604
42795DOD     C272205   7.359   4.538  19.617 -0.0314  0.1380  0.2135
42795DOD     C372206   7.694   4.538  19.422  0.0305 -0.0217 -0.0919
42796DOD     C172207  28.226  24.111  13.388 -0.0268  0.2120 -0.0743
42796DOD     C272208  27.741  23.996  13.317 -0.0447 -0.0955 -0.1634
42796DOD     C372209  27.375  23.795  13.103 -0.3244  0.0506 -0.1427
42797DOD     C172210  26.890  19.090   6.642 -0.0383 -0.2675  0.1552
42797DOD     C272211  26.837  18.820   6.266 -0.2555  0.0110 -0.0861
42797DOD     C372212  26.798  18.622   5.864 -0.1856  0.1349 -0.0672
42798DOD     C172213  11.135   6.847   4.274 -0.1244  0.1901 -0.3777
42798DOD     C272214  11.406   7.104   4.536  0.0287  0.0741  0.0714
42798DOD     C372215  11.628   7.013   4.917 -0.1434 -0.0434 -0.0074
42799DOD     C172216  26.697   3.616   6.945  0.2950  0.1439 -0.0446
42799DOD     C272217  27.137   3.662   7.096  0.1173 -0.3646 -0.3205
42799DOD     C372218  27.161   3.556   7.571 -0.1514  0.2222 -0.0316
42800DOD     C172219  15.699   9.156  10.346 -0.1316 -0.3376  0.0726
42800DOD     C272220  15.897   8.925   9.958 -0.0977  0.1043 -0.1682
42800DOD     C372221  16.175   9.140   9.682 -0.2291 -0.0298 -0.1417
42801DOD     C172222   1.594  28.344   9.994 -0.0920  0.1999  0.2221
42801DOD     C272223   1.398  28.715   9.947 -0.0142 -0.0984 -0.1642
42801DOD     C372224   1.089  28.930  10.274 -0.0691 -0.0167  0.0451
42802DOD     C172225   8.588   4.523  24.138 -0.1916  0.0061  0.0653
42802DOD     C272226   8.202   4.376  24.442 -0.1072 -0.1849 -0.0456
42802DOD     C372227   7.873   4.053  24.539  0.0431 -0.3176 -0.0798
42803DOD     C172228  20.862   5.353  17.715  0.0317  0.2109  0.1694
42803DOD     C272229  20.884   5.689  17.438  0.2770 -0.2030 -0.0573
42803DOD     C372230  20.749   6.065  17.156  0.0742  0.1940 -0.0873
42804DOD     C172231  24.029  25.189  16.640  0.4506 -0.0981  0.1449
42804DOD     C272232  23.614  25.136  16.396 -0.2103  0.0467 -0.1929
42804DOD     C372233  23.288  25.303  16.125 -0.2158 -0.1492  0.1818
42805DOD     C172234  21.113  25.330  28.411 -0.0699  0.1589  0.1526
42805DOD     C272235  20.938  25.026  28.665 -0.0548 -0.2560 -0.0867
42805DOD     C372236  20.913  24.949  29.158  0.1738 -0.0801  0.0678
42806DOD     C172237  20.290   6.528  18.330 -0.2727  0.0405  0.0476
42806DOD     C272238  20.681   6.224  18.392  0.0434 -0.2203  0.0457
42806DOD     C372239  20.821   6.022  18.788  0.1071  0.0564 -0.1527
42807DOD     C172240  22.476   9.949  23.160 -0.2334 -0.0715  0.2731
42807DOD     C272241  22.075   9.657  23.254  0.1365  0.1164  0.4256
42807DOD     C372242  21.826   9.353  23.407 -0.2219  0.3188  0.0781
42808DOD     C172243  10.215  11.253  10.360 -0.0593  0.2158 -0.0403
42808DOD     C272244  10.394  11.654  10.180  0.1836  0.1248  0.2648
42808DOD     C372245  10.473  12.128  10.238  0.5599 -0.2216 -0.0211
42809DOD     C172246   3.760  26.307  25.341  0.0399 -0.0408  0.1748
42809DOD     C272247   3.692  25.876  25.235 -0.0098  0.0869  0.3328
42809DOD     C372248   3.580  25.451  25.408  0.1268 -0.1312  0.0446
42810DOD     C172249  22.419  14.318  28.157 -0.1013 -0.0595 -0.1446
42810DOD     C272250  22.387  13.831  28.240 -0.0614 -0.1599  0.0595
42810DOD     C372251  22.346  13.453  28.529 -0.0900 -0.0405 -0.1880
42811DOD     C172252   5.747   7.374  14.502 -0.0093  0.2804 -0.0231
42811DOD     C272253   5.876   7.649  14.785  0.0795  0.3769  0.0081
42811DOD     C372254   5.889   7.757  15.225 -0.1729 -0.0787 -0.0506
42812DOD     C172255  10.957   3.184  14.023 -0.1584 -0.2063 -0.2234
42812DOD     C272256  10.836   2.842  13.732  0.2073 -0.2346  0.3268
42812DOD     C372257  10.598   2.625  13.396  0.0697 -0.0909 -0.0444
42813DOD     C172258  14.720  22.232  17.220  0.2212  0.4791  0.0652
42813DOD     C272259  14.462  21.989  17.469 -0.2189  0.0428 -0.1918
42813DOD     C372260  14.124  21.780  17.648  0.1329  0.0252  0.2472
42814DOD     C172261  28.282  13.676   8.004  0.1918  0.0730 -0.2230
42814DOD     C272262  28.208  14.159   7.976  0.1960  0.2526 -0.4217
42814DOD     C372263  27.937  14.336   8.294 -0.1680 -0.0485  0.0266
42815DOD     C172264  11.573   9.570  15.247  0.1166 -0.0939 -0.1200
42815DOD     C272265  11.767   9.161  15.136  0.1418 -0.1004 -0.0923
42815DOD     C372266  11.984   8.926  14.754  0.2346  0.0332  0.1227
42816DOD     C172267  17.719  26.866  21.376  0.1348 -0.0277 -0.1593
42816DOD     C272268  17.681  27.288  21.077  0.2337  0.0422 -0.0216
42816DOD     C372269  17.329  27.579  20.907 -0.1822  0.0276 -0.0548
42817DOD     C172270  10.697  21.876  24.103  0.3535 -0.1197  0.3881
42817DOD     C272271  10.470  21.938  24.531  0.1125 -0.3384  0.1021
42817DOD     C372272  10.040  21.941  24.803 -0.0662 -0.1283  0.1573
42818DOD     C172273   5.675  28.596  15.007 -0.1521 -0.1193  0.1892
42818DOD     C272274   5.792  28.181  14.784  0.1535 -0.0721  0.0570
42818DOD     C372275   6.206  27.977  14.968  0.2057 -0.1055  0.2517
42819DOD     C172276  27.529  29.515  30.076 -0.0196 -0.0850  0.0073
42819DOD     C272277  27.176  29.193  30.096 -0.0807 -0.4175  0.1148
42819DOD     C372278  26.863  28.921  29.918 -0.0184 -0.3163  0.3422
42820DOD     C172279   8.954  13.963  21.620  0.2353 -0.2329  0.0912
42820DOD     C272280   8.536  14.192  21.445  0.0985 -0.4255 -0.1175
42820DOD     C372281   8.094  14.411  21.492 -0.0314 -0.0053 -0.2725
42821DOD     C172282  16.439   4.870   3.248  0.0057  0.1160  0.1544
42821DOD     C272283  16.839   4.984   3.439 -0.0931 -0.0263  0.3245
42821DOD     C372284  17.060   5.375   3.568 -0.3390  0.0269  0.0383
42822DOD     C172285  12.992   8.670  15.293 -0.1592 -0.2776  0.2083
42822DOD     C272286  12.740   8.715  15.674 -0.2501  0.0494  0.2776
42822DOD     C372287  12.603   8.675  16.145  0.1689  0.1726 -0.1667
42823DOD     C172288  22.759  24.900   4.538 -0.0324 -0.2921 -0.2110
42823DOD     C272289  22.734  24.812   4.135 -0.0665  0.0820  0.0909
42823DOD     C372290  22.445  24.935   3.767 -0.3137  0.0350  0.0724
42824DOD     C172291   3.237  23.899  20.982 -0.1002  0.0263  0.1907
42824DOD     C272292   3.682  23.923  20.847 -0.1178 -0.1271  0.3688
42824DOD     C372293   3.965  24.014  21.259 -0.1309  0.0748  0.0055
42825DOD     C172294  19.131   7.397   0.780  0.1706  0.0780 -0.1289
42825DOD     C272295  19.164   6.928   0.624 -0.1876 -0.1850  0.0888
42825DOD     C372296  19.165   6.464   0.478 -0.2412 -0.0527  0.1087
42826DOD     C172297  26.913  17.068   0.754  0.4531 -0.1923  0.2704
42826DOD     C272298  27.235  16.847   0.471 -0.1158 -0.0262  0.1826
42826DOD     C372299  27.527  17.070   0.171 -0.2698 -0.1395 -0.0030
42827DOD     C172300  23.369  13.248   8.690 -0.1150 -0.4072 -0.0423
42827DOD     C272301  23.759  13.518   8.576 -0.0467  0.1361  0.1419
42827DOD     C372302  24.109  13.802   8.490 -0.1383  0.0891  0.0640
42828DOD     C172303   7.449   6.594  15.476  0.1577  0.4346  0.1996
42828DOD     C272304   7.589   6.224  15.263  0.0116  0.3267  0.1611
42828DOD     C372305   8.025   6.127  15.049 -0.0962  0.1361  0.2556
42829DOD     C172306  12.645   4.338  15.350 -0.1282  0.0017 -0.0734
42829DOD     C272307  12.490   3.917  15.362  0.0425 -0.3591  0.0509
42829DOD     C372308  12.282   3.545  15.546 -0.2139 -0.0982 -0.0156
42830DOD     C172309  14.012  17.418   5.407 -0.1927 -0.3375 -0.2105
42830DOD     C272310  14.344  17.083   5.453 -0.1633  0.0830  0.0558
42830DOD     C372311  14.657  16.760   5.306 -0.1509  0.0611 -0.0019
42831DOD     C172312  24.235   3.179   9.881 -0.2136  0.3196  0.2813
42831DOD     C272313  24.639   3.341  10.148 -0.3071 -0.1467  0.0153
42831DOD     C372314  25.090   3.198  10.303 -0.1712 -0.1861 -0.2212
42832DOD     C172315   3.453  14.664  27.669 -0.0780 -0.0833  0.1377
42832DOD     C272316   3.441  14.829  28.102 -0.0772 -0.1306 -0.1490
42832DOD     C372317   3.339  14.742  28.509  0.2039  0.1076 -0.1304
42833DOD     C172318  21.450   2.660  29.438  0.2060  0.1702 -0.4556
42833DOD     C272319  21.274   2.669  29.010  0.2625 -0.0312  0.0767
42833DOD     C372320  21.146   2.766  28.539 -0.3360  0.1544 -0.1937
42834DOD     C172321   2.974  13.845  13.790  0.0001  0.1780 -0.0650
42834DOD     C272322   2.616  13.560  13.942 -0.0692 -0.2539 -0.4999
42834DOD     C372323   2.279  13.325  13.797 -0.1095 -0.1566 -0.1470
42835DOD     C172324   3.343  22.111  27.480  0.1008  0.0948 -0.0846
42835DOD     C272325   3.189  22.576  27.471 -0.0100  0.2095  0.1164
42835DOD     C372326   3.179  22.991  27.309 -0.1361 -0.0401 -0.1271
42836DOD     C172327  25.852  11.274  19.069  0.1407  0.0431  0.1212
42836DOD     C272328  25.428  11.256  18.973 -0.1608  0.0139 -0.0373
42836DOD     C372329  24.994  11.288  18.829  0.1528 -0.0065  0.1098
42837DOD     C172330   0.934  23.890  25.119  0.4699 -0.3024 -0.2583
42837DOD     C272331   0.652  24.123  25.389  0.1931  0.0514  0.1734
42837DOD     C372332   0.312  24.366  25.444 -0.2042  0.1755 -0.2017
42838DOD     C172333   5.045   0.542  15.245  0.5019 -0.1404  0.0456
42838DOD     C272334   4.773   0.928  15.365  0.2879  0.1618 -0.1446
42838DOD     C372335   4.667   1.354  15.566 -0.1937  0.1109  0.2603
42839DOD     C172336  26.814  15.790   3.206  0.4047  0.1195 -0.0361
42839DOD     C272337  26.893  16.265   3.066 -0.0537 -0.2132  0.3909
42839DOD     C372338  27.121  16.595   3.335  0.2091  0.1419  0.0133
42840DOD     C172339  25.940  15.690   1.008 -0.1865  0.0169  0.2766
42840DOD     C272340  25.609  16.009   1.003  0.0192 -0.0521 -0.0170
42840DOD     C372341  25.404  16.400   1.159  0.0684  0.0385 -0.2347
42841DOD     C172342  12.346   0.198  10.252 -0.1134  0.2189 -0.0369
42841DOD     C272343  12.453   0.481   9.885 -0.1451  0.1236 -0.1075
42841DOD     C372344  12.631   0.912   9.791  0.4230 -0.4248 -0.2978
42842DOD     C172345  10.198  14.480   9.900  0.0199 -0.1100  0.0164
42842DOD     C272346  10.435  14.589  10.351  0.0279 -0.0247 -0.0391
42842DOD     C372347  10.574  14.515  10.796  0.0939 -0.0205  0.1308
42843DOD     C172348  24.596   3.703  23.623  0.1500  0.1305  0.0114
42843DOD     C272349  24.233   3.952  23.664  0.0889 -0.2301  0.2736
42843DOD     C372350  24.180   4.337  23.442  0.2878  0.0681 -0.0064
42844DOD     C172351  20.937  24.200  16.302 -0.5986 -0.0281  0.0437
42844DOD     C272352  21.178  24.042  15.945  0.1218 -0.1633  0.1349
42844DOD     C372353  21.599  24.190  15.779  0.0804  0.1823  0.1100
42845DOD     C172354  11.959  17.002   0.948  0.1970  0.1065  0.1014
42845DOD     C272355  12.301  16.670   0.970  0.1486 -0.0584 -0.0542
42845DOD     C372356  12.376  16.186   1.179  0.2142  0.2414  0.0695
42846DOD     C172357   0.573  23.646   5.924  0.0409 -0.1201  0.2804
42846DOD     C272358   0.742  23.616   6.301  0.1148  0.1990 -0.1580
42846DOD     C372359   0.970  23.656   6.714 -0.0453 -0.1916  0.0308
42847DOD     C172360  27.828  28.510  16.631 -0.2686 -0.2396 -0.0252
42847DOD     C272361  27.608  28.566  17.013  0.4715 -0.0908  0.0327
42847DOD     C372362  27.330  28.808  17.323  0.3965  0.1610  0.2582
42848DOD     C172363  18.833  25.155  18.511 -0.2935 -0.1900 -0.1590
42848DOD     C272364  18.496  24.855  18.680  0.0284  0.2579  0.1190
42848DOD     C372365  18.350  24.441  18.596  0.0484  0.0243 -0.4979
42849DOD     C172366  23.253  14.927  20.874 -0.0823 -0.3158  0.3945
42849DOD     C272367  23.356  15.091  21.241  0.0215 -0.2937 -0.0167
42849DOD     C372368  23.393  15.369  21.599 -0.0372 -0.2254  0.1465
42850DOD     C172369  21.314   1.195  16.143  0.2658 -0.2559 -0.0137
42850DOD     C272370  21.700   1.275  15.802  0.2734  0.2293 -0.0152
42850DOD     C372371  21.889   1.023  15.504  0.2706 -0.0483 -0.1044
42851DOD     C172372  13.881  12.801   3.050 -0.0827 -0.0577 -0.2325
42851DOD     C272373  14.003  12.778   2.588  0.3690 -0.3237  0.2145
42851DOD     C372374  14.252  12.564   2.272  0.1759 -0.0648  0.0254
42852DOD     C172375  11.860  23.212  23.800  0.0098  0.0531 -0.0800
42852DOD     C272376  12.156  23.291  24.200  0.1209 -0.1707 -0.3301
42852DOD     C372377  12.301  23.347  24.645 -0.2246 -0.1071  0.2221
42853DOD     C172378  11.188   2.318  15.085  0.1507  0.0025  0.0254
42853DOD     C272379  11.532   2.401  14.774 -0.1229 -0.1038  0.3126
42853DOD     C372380  11.901   2.379  14.556  0.2115  0.1109  0.1912
42854DOD     C172381  28.014   5.223  10.412 -0.0897  0.0268  0.0814
42854DOD     C272382  27.949   5.661  10.317  0.0631  0.0815 -0.4961
42854DOD     C372383  27.637   5.871  10.127  0.1752 -0.1856  0.0081
42855DOD     C172384  29.551  20.462  13.953  0.2170  0.2108  0.0373
42855DOD     C272385  29.954  20.626  13.882 -0.4318  0.2081  0.0088
42855DOD     C372386   0.079  20.417  13.923  0.1999  0.0734 -0.0814
42856DOD     C172387  27.137   6.271   9.360  0.2086  0.3621 -0.3835
42856DOD     C272388  27.324   5.822   9.223  0.1249  0.0776 -0.0842
42856DOD     C372389  27.382   5.391   8.982  0.1880  0.1777  0.1065
42857DOD     C172390   0.909   0.568   3.614  0.1168 -0.1953  0.2394
42857DOD     C272391   0.644   0.194   3.724 -0.2882  0.2428 -0.0183
42857DOD     C372392   0.512  30.093   3.886  0.3219 -0.1156 -0.2113
42858DOD     C172393  23.120   4.006  13.244  0.0806 -0.0016 -0.0257
42858DOD     C272394  22.778   3.772  13.347  0.2166 -0.0653  0.0449
42858DOD     C372395  22.439   3.463  13.173  0.2448  0.0840 -0.0389
42859DOD     C172396  13.984   2.453  10.498 -0.1259  0.2033  0.2635
42859DOD     C272397  14.164   2.850  10.627 -0.2533 -0.0557 -0.0999
42859DOD     C372398  14.429   3.146  10.938  0.2046 -0.1102  0.1893
42860DOD     C172399   5.139   7.886   8.209  0.0540  0.4120 -0.0305
42860DOD     C272400   5.117   7.438   8.088  0.0821  0.1367  0.0007
42860DOD     C372401   4.820   7.128   8.133 -0.1116  0.3019 -0.1289
42861DOD     C172402  25.586  29.757  26.319 -0.0481  0.0738  0.0165
42861DOD     C272403  25.819  29.538  25.985 -0.0172 -0.2480 -0.3699
42861DOD     C372404  26.130  29.705  25.630  0.1102 -0.1108  0.0343
42862DOD     C172405   7.905  21.839  25.302 -0.1790 -0.4351 -0.1370
42862DOD     C272406   7.405  22.018  25.354 -0.2713 -0.0114  0.1062
42862DOD     C372407   6.987  22.290  25.341  0.3883 -0.1847 -0.0930
42863DOD     C172408   3.729  18.488   1.900 -0.0334  0.1101  0.0896
42863DOD     C272409   3.957  18.919   1.812  0.1864 -0.0476 -0.2657
42863DOD     C372410   3.984  19.290   2.083 -0.2215  0.0108  0.2223
42864DOD     C172411   3.033   6.133  24.953  0.1007  0.1185  0.0090
42864DOD     C272412   3.053   5.829  25.343  0.0855  0.1557  0.0982
42864DOD     C372413   2.640   5.644  25.442 -0.0142 -0.0006  0.0309
42865DOD     C172414  11.845  19.631  16.344  0.0214  0.0622  0.2844
42865DOD     C272415  11.444  19.468  16.554 -0.2624 -0.3506 -0.2096
42865DOD     C372416  11.112  19.224  16.709 -0.2052  0.0129 -0.2010
42866DOD     C172417  14.586   1.208   9.115 -0.1170  0.4365  0.0976
42866DOD     C272418  14.940   0.904   9.266  0.1179 -0.0488  0.1518
42866DOD     C372419  15.319   0.674   9.463 -0.1791  0.2093  0.2379
42867DOD     C172420  11.451  11.008  20.242 -0.1602  0.0087 -0.0813
42867DOD     C272421  11.410  11.427  20.025 -0.1004  0.2676  0.3928
42867DOD     C372422  11.138  11.695  19.713 -0.0125  0.0773  0.4220
42868DOD     C172423  13.534  16.403  30.059 -0.2443  0.0258 -0.0093
42868DOD     C272424  13.365  16.149   0.087  0.1507 -0.0847 -0.0600
42868DOD     C372425  13.235  16.219   0.517  0.2129  0.0499  0.1227
42869DOD     C172426  29.016   1.495  12.527  0.1168 -0.2136  0.0995
42869DOD     C272427  29.460   1.470  12.312  0.2110  0.1229 -0.0577
42869DOD     C372428  29.893   1.542  12.311 -0.2690 -0.0599  0.2800
42870DOD     C172429   4.739  29.352  15.933  0.1674 -0.0673  0.0865
42870DOD     C272430   5.188  29.334  16.048 -0.0725  0.1109  0.0440
42870DOD     C372431   5.644  29.408  16.215 -0.0830 -0.1603 -0.1909
42871DOD     C172432  16.171  25.017  24.262 -0.0710  0.3924  0.1062
42871DOD     C272433  16.133  24.610  24.497 -0.1635 -0.0861  0.0681
42871DOD     C372434  16.068  24.350  24.877  0.1883 -0.2312 -0.1681
42872DOD     C172435  28.555  15.692  23.612  0.1872  0.0387 -0.2985
42872DOD     C272436  28.278  15.405  23.816 -0.0247 -0.2027 -0.0568
42872DOD     C372437  28.249  14.990  23.927  0.1464 -0.2163 -0.0781
42873DOD     C172438  20.099  16.989   4.133 -0.3153  0.1762  0.0615
42873DOD     C272439  19.608  17.020   4.103 -0.0106  0.1047 -0.0964
42873DOD     C372440  19.393  16.820   3.759  0.2109  0.2380 -0.0642
42874DOD     C172441   1.734  16.350  27.569  0.2660  0.0437 -0.0271
42874DOD     C272442   1.476  16.659  27.322  0.1245 -0.1029 -0.2990
42874DOD     C372443   1.146  16.846  27.092 -0.0481 -0.0793  0.0905
42875DOD     C172444  10.477  27.513  29.305  0.2014 -0.1052 -0.0692
42875DOD     C272445  10.232  27.642  28.915  0.1873  0.3184  0.0756
42875DOD     C372446  10.389  27.465  28.482 -0.2624 -0.0576 -0.4188
42876DOD     C172447   1.969   5.249   1.642 -0.0247  0.1444 -0.2753
42876DOD     C272448   2.146   5.378   1.247  0.0099 -0.0623  0.3383
42876DOD     C372449   2.381   5.421   0.816  0.2509 -0.1623  0.0732
42877DOD     C172450  28.132  15.246  24.941  0.2679  0.1086  0.3932
42877DOD     C272451  27.949  14.830  24.841 -0.1715 -0.0098 -0.0753
42877DOD     C372452  27.636  14.494  24.721  0.2700 -0.0141  0.0038
42878DOD     C172453  10.568  25.916  29.324 -0.0557  0.0613 -0.0121
42878DOD     C272454  10.129  25.973  29.265 -0.3365 -0.0561  0.1771
42878DOD     C372455   9.723  26.167  29.391  0.2285  0.0111  0.2795
42879DOD     C172456  21.867   4.839  12.843 -0.0665  0.2122  0.2244
42879DOD     C272457  21.892   5.054  13.204  0.0430  0.2578 -0.0867
42879DOD     C372458  22.028   5.411  13.513  0.0986  0.0632 -0.0844
42880DOD     C172459   8.623  13.283  22.993 -0.4384 -0.0332 -0.0123
42880DOD     C272460   8.388  13.136  23.315 -0.0901  0.0980 -0.0291
42880DOD     C372461   8.044  13.065  23.640  0.1390  0.0466 -0.0254
42881DOD     C172462  23.887  21.891   6.871  0.1522 -0.1896  0.1570
42881DOD     C272463  23.670  21.773   6.483  0.1831  0.2311  0.3088
42881DOD     C372464  23.484  22.112   6.142 -0.0531 -0.2864 -0.1916
42882DOD     C172465  15.372   4.955  19.498  0.2332  0.1085 -0.2091
42882DOD     C272466  15.018   5.114  19.772  0.1071  0.4361  0.0321
42882DOD     C372467  14.877   4.996  20.233  0.0378 -0.3987  0.1896
42883DOD     C172468   9.742  12.562  29.484  0.0382  0.1247  0.3414
42883DOD     C272469   9.366  12.471  29.224 -0.2480  0.1082 -0.0982
42883DOD     C372470   9.134  12.151  28.981  0.1537 -0.1747  0.1189
42884DOD     C172471   8.046  12.299   8.220  0.1040 -0.1895  0.0100
42884DOD     C272472   7.616  12.521   8.144  0.1289 -0.1219 -0.3061
42884DOD     C372473   7.220  12.819   8.046  0.0545  0.1256 -0.0153
42885DOD     C172474  26.416  14.631   5.310  0.2046 -0.2246  0.0330
42885DOD     C272475  26.627  14.977   5.368 -0.0514  0.2541 -0.1767
42885DOD     C372476  26.559  15.262   5.732  0.1997  0.0137 -0.1719
42886DOD     C172477  27.293   5.832  11.957 -0.0214 -0.3358 -0.1376
42886DOD     C272478  26.978   6.129  12.198 -0.0681 -0.3506 -0.0006
42886DOD     C372479  26.515   6.134  12.316  0.1403  0.1885  0.3071
42887DOD     C172480  25.941  26.886  11.877  0.0393 -0.1979  0.2435
42887DOD     C272481  25.686  26.524  11.807  0.1667  0.0424 -0.3470
42887DOD     C372482  25.514  26.101  11.836  0.1174 -0.0315 -0.0721
42888DOD     C172483   6.727  21.111  22.647 -0.0007  0.3967  0.2774
42888DOD     C272484   6.372  20.905  22.374 -0.1610  0.4920  0.3660
42888DOD     C372485   6.035  20.966  22.035  0.0220  0.0254 -0.2907
42889DOD     C172486  10.943   2.112  14.680  0.0028 -0.0209 -0.2114
42889DOD     C272487  10.511   2.070  14.824 -0.0928  0.0079 -0.0171
42889DOD     C372488  10.077   1.892  14.660  0.1666  0.0245 -0.0155
42890DOD     C172489  25.308  19.253  12.862 -0.1163 -0.1447  0.0289
42890DOD     C272490  25.363  19.697  12.757 -0.0852  0.1854 -0.0438
42890DOD     C372491  25.239  20.118  12.758  0.0277  0.0783  0.0317
42891DOD     C172492   5.033  19.379  21.368 -0.0177  0.2099 -0.0074
42891DOD     C272493   5.407  19.691  21.441  0.0789 -0.2065  0.2246
42891DOD     C372494   5.846  19.813  21.497  0.1262  0.0660 -0.1729
42892DOD     C172495  16.344   5.670  14.181  0.1937  0.0666  0.0635
42892DOD     C272496  15.878   5.621  14.128  0.2313 -0.1349 -0.0997
42892DOD     C372497  15.738   5.368  13.808 -0.0486 -0.1899  0.1806
42893DOD     C172498   7.839  15.107  29.418  0.1049 -0.1434  0.0833
42893DOD     C272499   8.055  15.084  29.032  0.0671 -0.1522  0.1416
42893DOD     C372500   8.469  15.171  28.913  0.0099 -0.0999  0.0791
42894DOD     C172501  12.839   1.898  16.229 -0.4137 -0.0897  0.3207
42894DOD     C272502  12.404   2.113  16.276 -0.0234 -0.0977  0.1209
42894DOD     C372503  11.997   2.278  16.539  0.2204 -0.0860  0.1766
42895DOD     C172504   6.147   3.944   5.615 -0.1500 -0.3845  0.1098
42895DOD     C272505   5.786   4.038   5.799 -0.2173 -0.1476  0.1295
42895DOD     C372506   5.348   4.190   5.797 -0.2202 -0.0674  0.3028
42896DOD     C172507  12.489   4.045  19.417 -0.1404  0.3010  0.2139
42896DOD     C272508  12.866   3.817  19.318 -0.2855  0.4045  0.0334
42896DOD     C372509  13.264   3.637  19.166 -0.0457 -0.0403  0.0148
42897DOD     C172510  26.391  16.068  26.700  0.0411  0.0401 -0.0991
42897DOD     C272511  26.343  15.921  27.153 -0.2810 -0.1732  0.1526
42897DOD     C372512  26.514  16.034  27.525 -0.1413 -0.0031 -0.1594
42898DOD     C172513  21.055   8.753  14.910  0.0563  0.3429 -0.0082
42898DOD     C272514  20.718   8.921  15.189  0.6435 -0.2576  0.0063
42898DOD     C372515  20.459   9.203  15.468 -0.2979  0.1092 -0.1375
42899DOD     C172516  25.528  20.820  29.042  0.1886 -0.1144  0.0443
42899DOD     C272517  25.101  20.506  28.995 -0.1710 -0.0935 -0.0405
42899DOD     C372518  24.852  20.198  29.296  0.1927 -0.1019  0.0020
42900DOD     C172519  27.980   4.852  12.079 -0.0897  0.1404  0.2448
42900DOD     C272520  28.045   5.287  11.905 -0.1155  0.0438 -0.4165
42900DOD     C372521  28.013   5.698  11.780 -0.0470  0.0573  0.0581
42901DOD     C172522   1.909  17.668  16.904  0.0243  0.1313  0.0512
42901DOD     C272523   2.091  17.229  17.020 -0.1023 -0.1362  0.2003
42901DOD     C372524   2.118  16.792  16.961 -0.1824 -0.1827 -0.2115
42902DOD     C172525  14.707  14.930  14.179 -0.0172 -0.1338  0.1231
42902DOD     C272526  14.604  15.317  14.409 -0.1634  0.2228 -0.0651
42902DOD     C372527  14.733  15.755  14.363  0.1078 -0.2559 -0.3225
42903DOD     C172528  14.881   8.748  27.038  0.2320 -0.1181  0.1880
42903DOD     C272529  14.588   9.066  26.751  0.4002 -0.5444  0.1993
42903DOD     C372530  14.522   9.548  26.713 -0.1715  0.0239 -0.0498
42904DOD     C172531  26.440  21.617   1.329 -0.2062 -0.0073 -0.1525
42904DOD     C272532  26.812  21.888   1.180  0.0533 -0.0245 -0.0412
42904DOD     C372533  27.102  22.085   0.884 -0.0926  0.0807  0.0497
42905DOD     C172534  18.684   4.009   3.002 -0.3190 -0.0531 -0.0838
42905DOD     C272535  18.425   3.843   3.420  0.0658  0.1674  0.2413
42905DOD     C372536  18.388   3.568   3.766 -0.2309  0.0788 -0.1451
42906DOD     C172537  11.354  24.137   1.174  0.0597 -0.0556  0.1003
42906DOD     C272538  11.633  24.187   0.813 -0.0229  0.1291 -0.2648
42906DOD     C372539  11.934  24.024   0.443 -0.0563  0.0715  0.2248
42907DOD     C172540  29.881   6.313  17.894 -0.1238 -0.0006  0.1293
42907DOD     C272541  29.997   6.775  17.741  0.1077  0.2339 -0.0671
42907DOD     C372542  30.090   6.951  17.318  0.2650 -0.2891 -0.1943
42908DOD     C172543   5.260  13.306  12.557  0.0775  0.0354 -0.0183
42908DOD     C272544   5.275  13.045  12.104  0.0257  0.1421  0.0608
42908DOD     C372545   5.503  12.697  11.882  0.2269  0.1205  0.0856
42909DOD     C172546  24.620   3.725  18.607 -0.1122 -0.2952  0.1096
42909DOD     C272547  25.099   3.547  18.559  0.0942  0.1373  0.4324
42909DOD     C372548  25.383   3.375  18.793  0.0939 -0.1160 -0.0194
42910DOD     C172549  28.787  25.028  25.413  0.2707  0.1165  0.0277
42910DOD     C272550  28.873  24.953  25.888  0.0254  0.2380  0.2633
42910DOD     C372551  29.096  25.238  26.141 -0.3545  0.1671  0.1429
42911DOD     C172552  21.655  25.800  24.673  0.0079 -0.1307 -0.1611
42911DOD     C272553  21.190  25.861  24.806 -0.0233  0.1422 -0.1681
42911DOD     C372554  20.755  25.661  24.851 -0.1382  0.1768 -0.2106
42912DOD     C172555   6.923  19.713  10.055  0.0633 -0.0526  0.0347
42912DOD     C272556   6.776  19.493  10.449 -0.0866 -0.0469 -0.2448
42912DOD     C372557   6.490  19.201  10.527  0.1414 -0.0328  0.0368
42913DOD     C172558   7.099  18.147  13.327  0.3379  0.2432  0.0755
42913DOD     C272559   7.315  18.404  12.992 -0.0265  0.2475 -0.2769
42913DOD     C372560   7.650  18.561  12.696  0.1874  0.0860 -0.0055
42914DOD     C172561  28.224   1.610   0.296 -0.1202 -0.1845 -0.1526
42914DOD     C272562  27.955   1.970   0.302  0.1178 -0.0021  0.3330
42914DOD     C372563  27.803   2.446   0.321  0.1368 -0.0012  0.1031
42915DOD     C172564   4.324  18.013  21.730 -0.0122 -0.0909  0.3867
42915DOD     C272565   4.613  18.351  21.706 -0.3834 -0.1282 -0.1728
42915DOD     C372566   4.947  18.752  21.780  0.0365 -0.1303  0.1310
42916DOD     C172567   7.338   4.425  14.954  0.5161  0.0322  0.1563
42916DOD     C272568   7.816   4.467  14.886 -0.1296  0.2324  0.1970
42916DOD     C372569   8.277   4.422  15.004 -0.3839  0.0324  0.2904
42917DOD     C172570   8.842  23.239  23.419 -0.3560  0.0428 -0.1417
42917DOD     C272571   9.079  23.575  23.675  0.2917  0.1240  0.0269
42917DOD     C372572   8.974  23.839  24.011  0.0657 -0.1726  0.4068
42918DOD     C172573   5.531  24.644   1.408  0.1169 -0.1180  0.2791
42918DOD     C272574   5.151  24.537   1.155 -0.1702 -0.3388  0.1155
42918DOD     C372575   4.771  24.305   1.287  0.0413 -0.2335 -0.4707
42919DOD     C172576  11.626  18.780   0.257 -0.0835  0.1248 -0.0171
42919DOD     C272577  11.926  19.157   0.236  0.1099  0.0695 -0.2983
42919DOD     C372578  12.379  19.158   0.424  0.0856 -0.0432 -0.0868
42920DOD     C172579  10.381  12.405  26.318 -0.1193 -0.0221  0.2832
42920DOD     C272580  10.059  12.698  26.479 -0.1911  0.3881 -0.3021
42920DOD     C372581   9.672  12.801  26.366 -0.1341  0.0948  0.3355
42921DOD     C172582  28.572  21.974  24.653  0.0173  0.0849  0.2180
42921DOD     C272583  28.250  22.272  24.518 -0.0322  0.1972 -0.0975
42921DOD     C372584  27.833  22.425  24.361  0.1687 -0.2474 -0.4709
42922DOD     C172585   8.290  16.364  25.571 -0.0401  0.0144  0.0622
42922DOD     C272586   8.758  16.518  25.451  0.0384  0.1424  0.0934
42922DOD     C372587   9.002  16.712  25.207  0.3030  0.0599  0.3201
42923DOD     C172588   2.609  24.675  14.585 -0.1235  0.4166 -0.0558
42923DOD     C272589   2.692  24.226  14.666 -0.3052 -0.1876  0.0117
42923DOD     C372590   2.551  23.859  14.867 -0.0915 -0.0719 -0.0406
42924DOD     C172591   8.618   2.721  11.492  0.0899 -0.1055 -0.3256
42924DOD     C272592   9.066   2.787  11.490 -0.0033  0.0361  0.0109
42924DOD     C372593   9.332   3.104  11.577  0.1817 -0.1464  0.1736
42925DOD     C172594  15.904  12.347   3.701 -0.1016  0.1271 -0.0744
42925DOD     C272595  15.999  12.427   4.178 -0.0939  0.4410 -0.3926
42925DOD     C372596  16.160  12.490   4.567 -0.1225 -0.1237 -0.0014
42926DOD     C172597  16.968  22.529  30.075  0.1915 -0.2039  0.0671
42926DOD     C272598  17.267  22.789   0.026 -0.1677 -0.3040 -0.1008
42926DOD     C372599  17.330  23.150   0.402 -0.3313 -0.2216  0.2789
42927DOD     C172600   9.036   4.341   8.111 -0.2105 -0.0857  0.0070
42927DOD     C272601   9.139   4.832   8.111  0.1034 -0.0246 -0.2403
42927DOD     C372602   8.969   5.203   7.884 -0.0732  0.1531 -0.1023
42928DOD     C172603   2.542  22.470  14.649  0.0018 -0.0570 -0.0220
42928DOD     C272604   2.747  22.871  14.684 -0.2317 -0.2230  0.2466
42928DOD     C372605   2.542  23.271  14.793  0.0330  0.0963  0.2522
42929DOD     C172606  21.588  16.365  22.529 -0.2127 -0.1492  0.1251
42929DOD     C272607  21.668  16.561  22.186  0.1879  0.1872 -0.1859
42929DOD     C372608  22.018  16.892  22.043 -0.0439 -0.0193 -0.3233
42930DOD     C172609  30.041  16.745   1.496 -0.1678  0.0793  0.0002
42930DOD     C272610  29.665  17.011   1.633  0.0198 -0.0824 -0.1274
42930DOD     C372611  29.279  17.223   1.732 -0.1282  0.0997  0.1160
42931DOD     C172612  16.999  28.880  20.014  0.0777 -0.2584  0.1443
42931DOD     C272613  17.105  29.180  20.352  0.0619 -0.1451  0.2786
42931DOD     C372614  17.073  29.652  20.344 -0.1612  0.0149 -0.2136
42932DOD     C172615  18.871   3.348  17.752  0.1833 -0.1221  0.5346
42932DOD     C272616  19.195   3.586  17.875 -0.0377  0.1816  0.0156
42932DOD     C372617  19.384   3.762  18.306 -0.1577 -0.2393 -0.0983
42933DOD     C172618   2.656  20.689   5.315 -0.0614 -0.2275 -0.0107
42933DOD     C272619   2.865  20.827   4.921  0.0519 -0.2175 -0.4314
42933DOD     C372620   3.004  21.033   4.502 -0.1335  0.1539  0.1391
42934DOD     C172621  29.751  24.461   2.619 -0.0287 -0.1036 -0.3227
42934DOD     C272622  29.848  24.398   2.210  0.0835 -0.0139  0.1434
42934DOD     C372623  29.934  24.480   1.706  0.0366  0.0814  0.1297
42935DOD     C172624   9.597  12.699  16.560  0.2465  0.3698  0.1307
42935DOD     C272625   9.671  13.178  16.587 -0.1963  0.1820  0.1591
42935DOD     C372626   9.945  13.428  16.344 -0.0780 -0.3028  0.1758
42936DOD     C172627  30.066   8.899   5.733  0.0712 -0.1158  0.1568
42936DOD     C272628  29.885   8.503   5.889 -0.0695 -0.0389 -0.1767
42936DOD     C372629  29.958   8.290   6.280  0.2547  0.1203 -0.0666
42937DOD     C172630   1.344   1.040  30.040  0.5343  0.3813  0.0822
42937DOD     C272631   1.050   1.423  29.962 -0.0877  0.2096  0.1763
42937DOD     C372632   0.615   1.589  30.045 -0.0301  0.0786  0.2732
42938DOD     C172633   3.010   6.257  16.516  0.0867 -0.3960  0.0401
42938DOD     C272634   2.695   6.456  16.240 -0.5540 -0.0457 -0.1451
42938DOD     C372635   2.623   6.919  16.215  0.1313 -0.1809 -0.1786
42939DOD     C172636  16.591  18.915  11.386 -0.0336  0.2855 -0.3389
42939DOD     C272637  16.888  18.701  11.050  0.0717  0.0826  0.1165
42939DOD     C372638  17.063  18.295  10.985 -0.0695 -0.3544 -0.3542
42940DOD     C172639  28.421  29.527  17.258 -0.3256 -0.0469 -0.0824
42940DOD     C272640  28.427  29.774  17.719 -0.0638 -0.1466 -0.1472
42940DOD     C372641  28.505  30.154  18.015 -0.0294  0.1038  0.1545
42941DOD     C172642  30.066  27.921  15.517 -0.2536  0.0153  0.0301
42941DOD     C272643  29.986  28.138  15.093 -0.2661 -0.0588  0.1957
42941DOD     C372644  29.796  28.268  14.697 -0.2080 -0.2385  0.0852
42942DOD     C172645   8.347   5.576  15.671 -0.2932  0.0474 -0.0930
42942DOD     C272646   8.208   5.099  15.623  0.0163  0.2061 -0.1862
42942DOD     C372647   7.995   4.923  15.214 -0.1597 -0.0078  0.2048
42943DOD     C172648  22.352  22.737   5.549 -0.1924 -0.3748 -0.1386
42943DOD     C272649  22.629  22.968   5.257 -0.1491  0.1343  0.2817
42943DOD     C372650  22.647  23.375   4.975  0.1026 -0.0845 -0.3398
42944DOD     C172651  10.688  22.008   0.448  0.1212  0.1177  0.1533
42944DOD     C272652  11.028  21.701   0.559  0.0501 -0.1419  0.0420
42944DOD     C372653  11.405  21.513   0.578 -0.0498 -0.0445  0.0376
42945DOD     C172654   8.215   0.654   0.162  0.2637  0.0525 -0.0189
42945DOD     C272655   8.669   0.605  30.307 -0.1382 -0.1296  0.4992
42945DOD     C372656   9.089   0.584  29.950  0.1317  0.3922 -0.1403
42946DOD     C172657  10.002  28.290  30.171  0.1545 -0.4706 -0.0445
42946DOD     C272658  10.370  28.085  29.940  0.0811 -0.1067  0.0702
42946DOD     C372659  10.777  28.268  29.806  0.0316 -0.1951  0.1164
42947DOD     C172660  13.653  12.324  25.802  0.4156 -0.2307 -0.0369
42947DOD     C272661  13.614  12.033  25.434 -0.2477 -0.1651 -0.1484
42947DOD     C372662  13.834  11.741  25.130 -0.1562 -0.0202  0.1583
42948DOD     C172663  15.063  19.030   7.771  0.2135  0.2387  0.0363
42948DOD     C272664  15.308  19.316   8.051  0.3397  0.1917  0.2187
42948DOD     C372665  15.365  19.513   8.502 -0.1335 -0.2065 -0.1550
42949DOD     C172666  26.722  21.490   5.647  0.0148  0.0030  0.1671
42949DOD     C272667  27.071  21.239   5.788 -0.2037  0.2180  0.2462
42949DOD     C372668  27.431  20.914   5.650 -0.0293 -0.2308 -0.1079
42950DOD     C172669   6.136   3.260  25.438  0.0142  0.2295  0.1861
42950DOD     C272670   6.599   3.111  25.320  0.1952  0.1260 -0.3963
42950DOD     C372671   7.035   2.922  25.348  0.1338 -0.0550 -0.0048
42951DOD     C172672  25.999  16.339  27.891  0.2880  0.0751 -0.2486
42951DOD     C272673  25.947  16.163  27.426 -0.1513 -0.0518  0.0035
42951DOD     C372674  25.893  16.136  26.941 -0.1061  0.1784  0.3155
42952DOD     C172675  14.430   6.029  11.534  0.1413 -0.0820  0.1854
42952DOD     C272676  14.270   6.161  11.955  0.1130 -0.0757 -0.1573
42952DOD     C372677  14.160   6.068  12.441  0.0512  0.1371  0.2157
42953DOD     C172678   1.407  14.000  20.889  0.0685 -0.2638  0.0700
42953DOD     C272679   1.212  14.195  21.273 -0.0984 -0.0721 -0.1353
42953DOD     C372680   1.278  14.656  21.443 -0.0021  0.2502 -0.1993
42954DOD     C172681  27.670   2.029  24.061  0.0059  0.0069 -0.0824
42954DOD     C272682  27.383   2.200  24.390  0.3298  0.0835 -0.1701
42954DOD     C372683  27.043   2.481  24.658  0.0328  0.0648  0.3837
42955DOD     C172684   7.655  14.656   5.955 -0.2053 -0.0808 -0.1884
42955DOD     C272685   7.384  14.483   5.637 -0.0280  0.1179 -0.0903
42955DOD     C372686   7.333  14.147   5.352  0.4913 -0.0515 -0.3765
42956DOD     C172687   6.943  15.613   8.744  0.3696 -0.1082 -0.0419
42956DOD     C272688   6.642  15.968   8.696  0.0966 -0.0290 -0.0702
42956DOD     C372689   6.311  16.014   8.376 -0.1647  0.1148  0.0154
42957DOD     C172690   8.006   9.507  20.086 -0.1219  0.3239 -0.0508
42957DOD     C272691   7.837   9.152  20.341 -0.0661  0.3279  0.2166
42957DOD     C372692   7.948   8.702  20.569  0.3668  0.1076 -0.0658
42958DOD     C172693  10.583   1.704  28.940 -0.0216  0.1633 -0.0234
42958DOD     C272694  10.276   1.422  28.751  0.0977 -0.0577 -0.0467
42958DOD     C372695  10.012   1.107  28.481 -0.0654  0.2742  0.2307
42959DOD     C172696   5.381  21.709  10.872 -0.0556 -0.1836  0.1711
42959DOD     C272697   5.236  21.469  10.513  0.2221 -0.2669  0.0899
42959DOD     C372698   5.261  21.158  10.058 -0.1066  0.0015  0.1007
42960DOD     C172699  20.914   4.026  28.045  0.4303  0.0912 -0.1589
42960DOD     C272700  20.805   4.426  27.813  0.1430 -0.2477  0.1761
42960DOD     C372701  21.020   4.706  27.555 -0.1443 -0.1261  0.2306
42961DOD     C172702  27.195  26.152  18.300 -0.3599  0.0314 -0.2429
42961DOD     C272703  27.024  26.383  17.902 -0.0641 -0.1799 -0.0331
42961DOD     C372704  26.927  26.275  17.425 -0.0798 -0.1709 -0.1584
42962DOD     C172705   9.378  21.007  10.245  0.1003 -0.1301  0.2320
42962DOD     C272706   9.657  21.248  10.521  0.0072 -0.1533 -0.2833
42962DOD     C372707  10.150  21.329  10.596  0.2055  0.0331 -0.0171
42963DOD     C172708   9.056  22.450  19.630  0.1455 -0.0543 -0.0298
42963DOD     C272709   9.094  22.078  19.896  0.0087 -0.1683  0.1338
42963DOD     C372710   8.777  21.999  20.175 -0.1426 -0.0766 -0.1885
42964DOD     C172711  23.246  14.877   6.905  0.0339  0.1025 -0.3242
42964DOD     C272712  23.439  14.785   6.492  0.1144 -0.0303  0.0919
42964DOD     C372713  23.592  15.002   6.085  0.0273  0.1878 -0.1162
42965DOD     C172714  11.396  20.659  21.430 -0.2149 -0.0650 -0.1110
42965DOD     C272715  10.930  20.803  21.354  0.2456 -0.4035 -0.0977
42965DOD     C372716  10.580  21.157  21.295  0.1250  0.3709  0.2845
42966DOD     C172717  22.922   4.388   7.607  0.2525  0.1247 -0.3160
42966DOD     C272718  22.648   4.574   7.234 -0.1844 -0.1370  0.1395
42966DOD     C372719  22.504   4.900   6.916  0.0401 -0.2618 -0.0719
42967DOD     C172720  17.802   6.927  27.031  0.0594 -0.2347  0.0573
42967DOD     C272721  17.415   6.619  26.873  0.1742 -0.0463 -0.2191
42967DOD     C372722  16.953   6.774  26.802  0.1528  0.3866  0.2958
42968DOD     C172723  22.029  29.248   3.765  0.0832  0.1121 -0.0617
42968DOD     C272724  21.652  29.235   4.012  0.0985  0.1051  0.0735
42968DOD     C372725  21.307  29.019   4.332  0.1435 -0.1104 -0.1847
42969DOD     C172726   0.671   3.767   3.521 -0.3847 -0.0072  0.1552
42969DOD     C272727   0.329   4.111   3.481 -0.0647 -0.1642 -0.2896
42969DOD     C372728  30.191   4.195   3.590 -0.0677 -0.2503  0.1875
42970DOD     C172729  28.049   1.412   1.253 -0.1369  0.0692 -0.0481
42970DOD     C272730  28.133   1.668   1.597 -0.3123 -0.1582 -0.1891
42970DOD     C372731  28.543   1.489   1.782 -0.2349  0.1757 -0.1308
42971DOD     C172732  17.300  26.906   0.045  0.2561 -0.0352  0.0048
42971DOD     C272733  17.514  27.276  30.302  0.0249 -0.0974  0.0679
42971DOD     C372734  17.945  27.313  30.171 -0.1942 -0.0723 -0.0699
42972DOD     C172735  19.733  17.504  28.649 -0.2127 -0.0074 -0.0632
42972DOD     C272736  19.360  17.221  28.533 -0.1977  0.2663 -0.1996
42972DOD     C372737  18.847  17.265  28.572  0.4477  0.2373  0.2302
42973DOD     C172738  23.290   5.057  12.794 -0.0304 -0.1275  0.3111
42973DOD     C272739  23.277   5.492  12.661  0.4335  0.1223  0.1974
42973DOD     C372740  23.097   5.731  12.231 -0.2821  0.2885 -0.0169
42974DOD     C172741   7.853  14.762  11.127  0.1386  0.1035  0.1619
42974DOD     C272742   7.473  14.522  11.122  0.0207 -0.0313 -0.2097
42974DOD     C372743   7.148  14.614  11.491  0.1299 -0.1762  0.0166
42975DOD     C172744  22.581  17.210  26.008 -0.1369 -0.0398  0.2303
42975DOD     C272745  22.510  17.655  25.878  0.1210  0.0265 -0.0141
42975DOD     C372746  22.664  18.104  25.860 -0.1993  0.1704  0.1539
42976DOD     C172747   9.261  22.444   6.741 -0.0728 -0.2751 -0.2018
42976DOD     C272748   9.311  22.924   6.647  0.1067  0.4370  0.2993
42976DOD     C372749   9.323  23.327   6.864 -0.2508 -0.1295  0.0765
42977DOD     C172750  11.908  11.590   1.373  0.0171  0.0599 -0.0612
42977DOD     C272751  12.095  11.886   1.758 -0.1711 -0.0980 -0.2188
42977DOD     C372752  12.089  12.088   2.190  0.0644  0.0098 -0.1756
42978DOD     C172753  27.040  20.629  27.729  0.2491 -0.0625  0.2085
42978DOD     C272754  26.532  20.518  27.726 -0.0900  0.1352  0.1497
42978DOD     C372755  26.308  20.142  27.840 -0.0679 -0.1527 -0.1508
42979DOD     C172756  14.567   0.707   6.656  0.1904  0.0403  0.1330
42979DOD     C272757  14.855   0.998   6.435 -0.3298  0.0617 -0.0228
42979DOD     C372758  14.754   1.264   6.059  0.0602 -0.1382 -0.0335
42980DOD     C172759  26.952   2.609   4.670  0.1892 -0.4640 -0.1795
42980DOD     C272760  27.005   2.986   4.976  0.0160  0.1200 -0.1465
42980DOD     C372761  26.757   3.111   5.357 -0.0926  0.0422  0.1738
42981DOD     C172762  25.166  12.788  28.524 -0.1796  0.3751  0.0008
42981DOD     C272763  25.277  12.325  28.518  0.0161  0.0698  0.1904
42981DOD     C372764  25.068  11.916  28.543 -0.2242 -0.0196 -0.0221
42982DOD     C172765  29.494  24.817  20.593 -0.0119 -0.2421 -0.1155
42982DOD     C272766  29.845  24.580  20.847  0.1566 -0.0298  0.3025
42982DOD     C372767  29.867  24.371  21.237 -0.1809  0.1234 -0.2489
42983DOD     C172768  22.673   1.997  28.528  0.0123  0.0437 -0.3922
42983DOD     C272769  22.737   1.583  28.332  0.1622  0.1423 -0.3932
42983DOD     C372770  22.546   1.307  28.046  0.1817  0.0801 -0.0313
42984DOD     C172771  18.873   8.183   3.521 -0.2820  0.2835 -0.1199
42984DOD     C272772  18.960   7.714   3.532  0.0699 -0.1091  0.1004
42984DOD     C372773  18.696   7.453   3.201  0.0210 -0.0036  0.3995
42985DOD     C172774   2.310  22.305   8.409  0.3059 -0.0614  0.4380
42985DOD     C272775   1.921  22.254   8.145  0.0747 -0.0378 -0.1334
42985DOD     C372776   1.534  22.333   7.870  0.0338  0.3545  0.2405
42986DOD     C172777  25.962   3.764   4.951 -0.0242  0.0577 -0.1752
42986DOD     C272778  26.186   3.372   5.091 -0.0580  0.2577 -0.2293
42986DOD     C372779  26.394   2.943   5.071  0.1197  0.4139 -0.0195
42987DOD     C172780  13.277   4.934  12.077  0.0336  0.0875 -0.0670
42987DOD     C272781  13.142   4.549  12.026 -0.2132  0.2108  0.2306
42987DOD     C372782  13.400   4.178  11.973  0.0537 -0.0669 -0.1846
42988DOD     C172783  15.590   1.802  27.814 -0.0719  0.0734 -0.0281
42988DOD     C272784  15.395   1.610  27.448 -0.2764 -0.0055 -0.2742
42988DOD     C372785  15.404   1.604  27.006 -0.0456  0.1551  0.2062
42989DOD     C172786  16.718  27.348   8.842 -0.1486  0.3120 -0.0639
42989DOD     C272787  17.155  27.351   8.913 -0.2118  0.0654  0.1351
42989DOD     C372788  17.391  27.120   9.213 -0.0819  0.0735  0.2123
42990DOD     C172789  24.361  12.561   9.003 -0.0703  0.1193  0.0041
42990DOD     C272790  24.227  12.805   8.670  0.1702 -0.1063 -0.0473
42990DOD     C372791  24.103  13.202   8.473  0.0071  0.1588 -0.3470
42991DOD     C172792  18.004  20.648   6.044 -0.1357 -0.4296 -0.0521
42991DOD     C272793  18.340  20.613   6.356 -0.1412 -0.0786  0.2081
42991DOD     C372794  18.765  20.731   6.391 -0.0423 -0.0843  0.1365
42992DOD     C172795  23.399   2.083   4.712  0.2420 -0.2244 -0.2193
42992DOD     C272796  22.937   2.196   4.837  0.0682 -0.2082  0.1362
42992DOD     C372797  22.479   1.941   4.847  0.1220 -0.0075 -0.0837
42993DOD     C172798  24.638   7.143  11.909 -0.1149  0.1773 -0.0064
42993DOD     C272799  24.261   7.145  12.179  0.1906 -0.2050 -0.1680
42993DOD     C372800  23.904   7.337  12.515  0.1370  0.0747  0.1907
42994DOD     C172801  19.693  25.150  11.350 -0.0874 -0.0151  0.0975
42994DOD     C272802  19.814  25.414  11.722  0.1171  0.3468 -0.1750
42994DOD     C372803  19.873  25.286  12.197 -0.1985 -0.0843 -0.2510
42995DOD     C172804  13.941  10.186  25.624 -0.2009 -0.3348 -0.0436
42995DOD     C272805  13.721   9.807  25.536 -0.1140  0.5433 -0.1036
42995DOD     C372806  13.686   9.452  25.186 -0.0059 -0.5184  0.0352
42996DOD     C172807  29.776  14.708   8.866  0.1102  0.1552 -0.0358
42996DOD     C272808  29.392  14.806   8.638 -0.0369 -0.2216  0.0023
42996DOD     C372809  29.086  14.495   8.547  0.1834 -0.1263  0.2626
42997DOD     C172810  13.109   6.924   1.514  0.2768  0.0752 -0.1243
42997DOD     C272811  12.997   7.357   1.578 -0.1485 -0.2964 -0.2398
42997DOD     C372812  12.714   7.709   1.680  0.1662  0.0334 -0.4634
42998DOD     C172813  11.176  27.320  15.817 -0.0883 -0.3100  0.1256
42998DOD     C272814  10.915  27.720  15.699 -0.2621  0.1832  0.1283
42998DOD     C372815  10.894  28.168  15.504  0.0971  0.1277  0.0302
42999DOD     C172816  18.064   7.781   4.703  0.2793  0.2335 -0.0284
42999DOD     C272817  17.722   7.783   5.039  0.0428  0.1461  0.0993
42999DOD     C372818  17.406   7.508   5.238 -0.3480  0.2200  0.0457
43000DOD     C172819  13.685   9.144  27.693  0.2056  0.4418 -0.0227
43000DOD     C272820  13.655   9.558  27.439 -0.1180 -0.0727  0.0845
43000DOD     C372821  13.315   9.749  27.200 -0.3240  0.1463 -0.0543
43001DOD     C172822  10.875  29.582  10.887 -0.1454  0.1574  0.2053
43001DOD     C272823  11.107  29.245  10.962 -0.0177  0.0621 -0.1256
43001DOD     C372824  11.234  28.853  11.101  0.1519  0.2357  0.3941
43002DOD     C172825  22.991   8.974   4.947  0.1841 -0.0728 -0.0828
43002DOD     C272826  23.253   8.774   5.247 -0.1968  0.0068  0.3124
43002DOD     C372827  23.526   8.783   5.629 -0.1126  0.0470 -0.1512
43003DOD     C172828  25.926   0.942  22.676 -0.1303  0.1054  0.1746
43003DOD     C272829  25.808   0.719  23.070 -0.0397  0.0566  0.2188
43003DOD     C372830  25.809   0.300  23.314  0.0707  0.0079 -0.0202
43004DOD     C172831  11.789   7.612  18.214  0.0727  0.0738  0.1592
43004DOD     C272832  12.191   7.695  18.135 -0.0301 -0.0482  0.1274
43004DOD     C372833  12.600   7.849  17.985  0.1469  0.2103  0.2027
43005DOD     C172834  12.287  26.180   5.290 -0.0350  0.3730  0.0706
43005DOD     C272835  12.607  25.914   5.000 -0.4963  0.1236 -0.2448
43005DOD     C372836  12.916  25.614   5.042  0.4962  0.1402  0.0818
43006DOD     C172837   0.357   0.396  28.773 -0.2059 -0.0271  0.0222
43006DOD     C272838   0.096   0.750  28.732  0.3254  0.2904  0.4654
43006DOD     C372839   0.166   1.175  28.484  0.2036  0.2783 -0.0574
43007DOD     C172840  12.375  19.667   8.829 -0.2962 -0.1055 -0.0198
43007DOD     C272841  11.961  19.521   8.677 -0.0029 -0.2630  0.1574
43007DOD     C372842  11.498  19.638   8.612  0.1720 -0.0626 -0.0427
43008DOD     C172843  22.869  15.861  14.068  0.2171 -0.0802 -0.2145
43008DOD     C272844  23.274  15.613  14.178  0.0394 -0.2047  0.0110
43008DOD     C372845  23.631  15.356  14.384 -0.1838 -0.2103  0.2886
43009DOD     C172846   6.004  11.570  22.294  0.3939 -0.1452 -0.1050
43009DOD     C272847   5.842  11.892  22.588 -0.0463  0.0170 -0.0436
43009DOD     C372848   5.644  12.258  22.703 -0.1021 -0.0713  0.4103
43010DOD     C172849  10.005   1.374  11.735 -0.0208  0.0044  0.2331
43010DOD     C272850   9.952   1.697  11.370  0.1361  0.1395  0.2203
43010DOD     C372851  10.116   2.080  11.324  0.1503 -0.0059  0.1234
43011DOD     C172852  20.320  17.839  14.181 -0.1304 -0.1560  0.2027
43011DOD     C272853  20.472  17.713  13.777  0.2815 -0.1879 -0.4229
43011DOD     C372854  20.640  17.559  13.399  0.3003  0.1378  0.0278
43012DOD     C172855   8.185  26.923  27.873  0.0436  0.4391  0.4972
43012DOD     C272856   8.497  26.624  28.025  0.1228  0.2028  0.2742
43012DOD     C372857   8.632  26.265  28.248  0.1333  0.1009 -0.0657
43013DOD     C172858   7.963  21.563  17.123  0.2488 -0.1719 -0.0887
43013DOD     C272859   7.613  21.375  17.220 -0.2446  0.0505  0.2379
43013DOD     C372860   7.509  21.330  17.639 -0.1064  0.1217 -0.3543
43014DOD     C172861  21.934  24.904  15.251 -0.1793  0.2160  0.1304
43014DOD     C272862  21.473  24.832  15.082  0.0745  0.0023 -0.0809
43014DOD     C372863  21.212  24.984  14.748 -0.0964 -0.0658  0.0394
43015DOD     C172864  29.080  26.496  24.467  0.0847 -0.1073 -0.0034
43015DOD     C272865  29.005  26.917  24.746 -0.1231  0.2595  0.1984
43015DOD     C372866  28.927  26.970  25.188 -0.1510  0.0024  0.3380
43016DOD     C172867   4.443  12.946  25.509 -0.3751  0.1580  0.1041
43016DOD     C272868   4.677  12.740  25.212  0.2202  0.0699 -0.0532
43016DOD     C372869   5.008  12.755  24.905 -0.1023 -0.0155  0.0365
43017DOD     C172870   3.791  22.452   6.519 -0.3372 -0.0719 -0.1681
43017DOD     C272871   3.414  22.337   6.250  0.0899  0.4650  0.0631
43017DOD     C372872   3.134  22.275   5.888 -0.0864  0.0232 -0.2197
43018DOD     C172873   5.335  19.880   0.851  0.1531  0.1496 -0.0973
43018DOD     C272874   5.325  19.463   1.099 -0.2311  0.1069 -0.2329
43018DOD     C372875   5.630  19.207   1.346 -0.0170  0.0506 -0.2237
43019DOD     C172876  16.760  25.216   9.366 -0.0023 -0.1943  0.1598
43019DOD     C272877  16.765  25.022   8.915  0.0139 -0.0895  0.0532
43019DOD     C372878  16.993  24.831   8.570  0.0164  0.2665  0.1201
43020DOD     C172879  23.718  27.671  17.112 -0.1064  0.2691 -0.0582
43020DOD     C272880  23.988  27.911  17.389 -0.1068 -0.1961  0.0240
43020DOD     C372881  24.301  28.290  17.441  0.4956  0.3355  0.0618
43021DOD     C172882   4.987  30.115   8.110 -0.1847  0.1116  0.4586
43021DOD     C272883   5.134  30.219   8.554 -0.0034  0.2478  0.1397
43021DOD     C372884   5.479   0.224   8.694 -0.0835 -0.1400  0.2158
43022DOD     C172885  25.291  11.165  24.046  0.4700 -0.0980  0.2038
43022DOD     C272886  25.709  10.923  23.942 -0.0354 -0.0378 -0.2279
43022DOD     C372887  26.178  10.888  23.774  0.2467 -0.3997  0.2266
43023DOD     C172888  20.888  27.277  12.898  0.1820  0.0385 -0.1533
43023DOD     C272889  21.336  27.364  12.822  0.0623 -0.0192  0.2960
43023DOD     C372890  21.645  27.317  12.463  0.0835  0.1061 -0.1875
43024DOD     C172891  27.618   1.660  13.714 -0.0309  0.1052 -0.0641
43024DOD     C272892  27.619   1.239  13.549 -0.0785  0.2538  0.1007
43024DOD     C372893  27.413   0.826  13.513  0.0770  0.0172  0.0644
43025DOD     C172894  28.987   5.011  29.019  0.1056  0.1500 -0.1308
43025DOD     C272895  29.263   5.266  29.255  0.0113 -0.1361 -0.2713
43025DOD     C372896  29.472   5.075  29.614  0.0275 -0.2644  0.2449
43026DOD     C172897   5.310  23.639  10.169  0.0209  0.1623  0.0173
43026DOD     C272898   5.535  23.437  10.536 -0.0771  0.1747 -0.1482
43026DOD     C372899   5.761  23.552  10.888 -0.1242 -0.2266 -0.0464
43027DOD     C172900  22.893   7.445  23.667 -0.0077 -0.2657  0.1550
43027DOD     C272901  22.538   7.523  23.977  0.2544 -0.0327  0.0664
43027DOD     C372902  22.104   7.569  24.197  0.1650  0.1643 -0.0479
43028DOD     C172903  27.457  13.404  26.445  0.2730  0.0307  0.0836
43028DOD     C272904  27.708  13.193  26.072  0.0812 -0.1312  0.0215
43028DOD     C372905  27.895  12.799  26.126 -0.4642 -0.0568  0.3856
43029DOD     C172906  19.682  20.764   9.390 -0.2145 -0.1710 -0.2497
43029DOD     C272907  20.144  20.853   9.643 -0.0604 -0.1384 -0.0841
43029DOD     C372908  20.391  20.858  10.001  0.0497  0.2610 -0.0652
43030DOD     C172909   2.186   6.269   3.185  0.0861 -0.1775  0.0176
43030DOD     C272910   2.542   6.267   2.841 -0.0252  0.1482  0.0738
43030DOD     C372911   2.873   6.017   2.662 -0.0431 -0.1693 -0.1126
43031DOD     C172912  21.349   6.406   8.553  0.0140 -0.1431  0.1298
43031DOD     C272913  21.689   6.103   8.696 -0.2054 -0.0155  0.0944
43031DOD     C372914  22.011   5.811   9.025  0.0160 -0.3423  0.0273
43032DOD     C172915  17.960  13.374  28.081  0.2402 -0.1236 -0.0878
43032DOD     C272916  18.152  13.088  28.360 -0.2217 -0.1826  0.3997
43032DOD     C372917  18.500  12.904  28.636 -0.0576  0.2079  0.0317
43033DOD     C172918   8.101  16.890  16.645  0.0285  0.2322  0.2054
43033DOD     C272919   8.204  16.463  16.514  0.1379  0.1158  0.0699
43033DOD     C372920   8.221  16.012  16.533 -0.1459 -0.3421 -0.0167
43034DOD     C172921  20.188  22.445  23.885 -0.1645 -0.3602  0.0123
43034DOD     C272922  20.146  22.896  23.663  0.0172 -0.0636 -0.3342
43034DOD     C372923  20.072  23.357  23.836 -0.1225  0.0650  0.4239
43035DOD     C172924  19.744  15.801  21.790 -0.1702 -0.1024 -0.2532
43035DOD     C272925  19.416  16.094  21.522 -0.6136 -0.0814 -0.3166
43035DOD     C372926  19.255  16.409  21.251  0.1415 -0.0890  0.1228
43036DOD     C172927  25.284  11.654  19.551 -0.2011 -0.0877  0.2285
43036DOD     C272928  25.279  12.090  19.389  0.5402  0.1141 -0.2536
43036DOD     C372929  25.473  12.338  19.055 -0.1022 -0.0358 -0.2039
43037DOD     C172930   4.824  27.892  23.827  0.0973 -0.1515  0.2011
43037DOD     C272931   4.711  27.970  24.283  0.1067  0.0726  0.0605
43037DOD     C372932   4.520  27.750  24.601 -0.2346 -0.0696 -0.3151
43038DOD     C172933  17.750   0.105  21.663 -0.0629 -0.0055 -0.0470
43038DOD     C272934  17.406   0.206  21.349 -0.2045 -0.0074 -0.2231
43038DOD     C372935  17.166   0.561  21.164 -0.3931  0.0028  0.1047
43039DOD     C172936   2.196  10.482   7.593 -0.2946 -0.1504 -0.1084
43039DOD     C272937   2.019  10.649   7.181 -0.1539  0.0294 -0.0306
43039DOD     C372938   2.043  10.895   6.782 -0.1094 -0.2502  0.1331
43040DOD     C172939  10.943   1.980  16.534 -0.0321 -0.1421 -0.1092
43040DOD     C272940  11.153   2.356  16.794  0.0756 -0.1063  0.1522
43040DOD     C372941  11.625   2.490  16.814 -0.1763 -0.4312  0.3501
43041DOD     C172942   1.743  17.461   7.261  0.4240 -0.0178  0.0272
43041DOD     C272943   2.181  17.364   7.143 -0.0771 -0.2529  0.2075
43041DOD     C372944   2.525  17.689   7.046 -0.2507 -0.1271 -0.0924
43042DOD     C172945  27.953  24.740  17.535 -0.0343 -0.2727  0.0232
43042DOD     C272946  28.089  24.296  17.504 -0.0538 -0.0603  0.1487
43042DOD     C372947  28.051  24.040  17.894 -0.0231 -0.1912  0.0551
43043DOD     C172948  14.312   6.290   6.824  0.2209 -0.0029  0.0193
43043DOD     C272949  14.555   5.893   6.738 -0.3195  0.2997 -0.1107
43043DOD     C372950  14.722   5.594   6.492  0.2884  0.0673 -0.0149
43044DOD     C172951  23.636  15.874  23.372  0.1669 -0.0258  0.2349
43044DOD     C272952  23.604  16.308  23.501 -0.4497  0.3277  0.0501
43044DOD     C372953  23.509  16.690  23.739 -0.1722 -0.0472  0.2849
43045DOD     C172954  22.138  10.009  25.002  0.0949  0.1351  0.1849
43045DOD     C272955  21.711  10.009  24.798  0.0844 -0.1800 -0.0102
43045DOD     C372956  21.411   9.671  24.661  0.0748  0.0426  0.0490
43046DOD     C172957  29.826   9.344  11.694  0.1201 -0.0161 -0.1260
43046DOD     C272958  29.537   9.594  11.418  0.0014  0.0087 -0.2929
43046DOD     C372959  29.068   9.589  11.413 -0.2848 -0.1333  0.3355
43047DOD     C172960  21.040  11.797  24.668  0.1660  0.0547 -0.1359
43047DOD     C272961  20.818  12.143  24.424  0.2165  0.0521 -0.2548
43047DOD     C372962  20.866  12.396  24.043 -0.0746 -0.2220  0.1670
43048DOD     C172963  23.253  25.299  17.726  0.1022 -0.0214  0.2651
43048DOD     C272964  22.849  25.448  17.577 -0.1283 -0.0009  0.0782
43048DOD     C372965  22.418  25.441  17.440  0.2328 -0.2129 -0.0353
43049DOD     C172966   6.718  26.503  17.694 -0.1330 -0.1284 -0.0947
43049DOD     C272967   6.680  26.816  17.371 -0.0537  0.0683  0.0155
43049DOD     C372968   6.306  26.768  17.030 -0.1075 -0.4278 -0.1117
43050DOD     C172969  26.081   7.391   3.927 -0.2936 -0.1574 -0.1877
43050DOD     C272970  26.260   7.832   3.859  0.0697  0.1969  0.1989
43050DOD     C372971  26.583   8.222   3.907 -0.1776 -0.0600  0.0919
43051DOD     C172972   1.968  19.636  21.794  0.0044  0.1813 -0.3230
43051DOD     C272973   2.115  19.883  21.438  0.0204  0.2140  0.2002
43051DOD     C372974   2.061  19.790  20.962  0.1852 -0.1628 -0.2725
43052DOD     C172975   2.943   3.675  22.802  0.1203 -0.4360  0.0533
43052DOD     C272976   2.541   3.700  22.660 -0.1720 -0.3858 -0.2706
43052DOD     C372977   2.244   4.064  22.548  0.0252  0.0999 -0.2120
43053DOD     C172978  27.196   2.850  30.170  0.3048  0.1440  0.0173
43053DOD     C272979  26.740   2.949  30.025  0.2290  0.0807  0.0930
43053DOD     C372980  26.330   3.174  29.955  0.2547  0.3508  0.2500
43054DOD     C172981  10.766   1.541  16.878 -0.1034  0.1784 -0.2349
43054DOD     C272982  10.453   1.768  16.616 -0.2020  0.0331  0.0141
43054DOD     C372983  10.256   2.028  16.340 -0.1771 -0.2771  0.2993
43055DOD     C172984  18.918   7.220   8.557  0.2213  0.1295  0.3115
43055DOD     C272985  19.047   7.010   8.915  0.0189  0.0440  0.0911
43055DOD     C372986  18.786   6.693   9.116  0.0274 -0.3028 -0.0918
43056DOD     C172987  14.897  21.631  24.898  0.5135  0.0405 -0.5381
43056DOD     C272988  15.149  21.238  24.820 -0.1534  0.2322 -0.1373
43056DOD     C372989  15.516  21.009  24.776  0.0640  0.1145 -0.0106
43057DOD     C172990   2.097   1.956   6.991  0.2231 -0.2151  0.3023
43057DOD     C272991   2.553   1.962   7.027 -0.0996 -0.0230 -0.2490
43057DOD     C372992   2.789   2.400   6.981  0.0331 -0.1279  0.0441
43058DOD     C172993  16.263   0.059   7.631  0.1218 -0.1809 -0.0030
43058DOD     C272994  16.035   0.273   7.301  0.2378  0.2662  0.1849
43058DOD     C372995  15.969   0.727   7.166  0.1150  0.2631 -0.1359
43059DOD     C172996  12.508  23.176   9.510  0.1762  0.3453  0.1488
43059DOD     C272997  12.613  23.524   9.764  0.1489 -0.0377 -0.0932
43059DOD     C372998  12.786  23.655  10.195 -0.1670 -0.2099  0.2539
43060DOD     C172999  17.123   1.584   8.922  0.3761  0.1742  0.1863
43060DOD     C273000  16.958   1.267   9.284 -0.0935 -0.2153 -0.3173
43060DOD     C373001  17.190   1.123   9.594  0.0064  0.0316 -0.2166
43061DOD     C173002   3.199  13.381   8.297 -0.1032  0.1983  0.0390
43061DOD     C273003   3.320  13.830   8.251 -0.0555  0.0429 -0.0492
43061DOD     C373004   3.330  14.270   8.252  0.3852  0.1885 -0.0883
43062DOD     C173005  25.718  20.408   9.094  0.3140  0.0275 -0.5707
43062DOD     C273006  26.103  20.249   9.264  0.1175 -0.2154 -0.1778
43062DOD     C373007  26.368  19.939   9.402 -0.0796 -0.0822  0.1806
43063DOD     C173008  23.494  25.221   5.842 -0.2096 -0.1063  0.0467
43063DOD     C273009  23.112  25.007   5.908 -0.0847  0.0001 -0.1424
43063DOD     C373010  22.740  24.693   6.072  0.1681  0.4068 -0.0001
43064DOD     C173011  27.901  20.170  25.108 -0.0005  0.0750 -0.4760
43064DOD     C273012  28.089  20.492  24.885 -0.3563  0.0233 -0.4206
43064DOD     C373013  28.352  20.823  25.186  0.0768 -0.0718  0.0737
43065DOD     C173014   2.663   5.562  11.324 -0.1827  0.2056 -0.0614
43065DOD     C273015   2.382   5.461  11.642  0.3334  0.1474 -0.2012
43065DOD     C373016   2.305   5.204  12.084  0.1912  0.2789 -0.0043
43066DOD     C173017   4.837  24.988  20.524 -0.1583 -0.0758  0.0131
43066DOD     C273018   4.440  24.745  20.591  0.2556 -0.0302  0.1934
43066DOD     C373019   4.046  24.612  20.748 -0.1033  0.3889  0.1936
43067DOD     C173020  25.765  23.808  24.578  0.2101 -0.0367 -0.0908
43067DOD     C273021  25.955  24.111  24.228  0.0926  0.3011  0.0899
43067DOD     C373022  26.272  24.252  23.900 -0.0390 -0.0265 -0.0110
43068DOD     C173023  17.702  15.604  21.464 -0.0268  0.2766 -0.1089
43068DOD     C273024  17.329  15.829  21.744 -0.0872  0.2219 -0.0478
43068DOD     C373025  17.084  16.111  21.909  0.0506  0.0996 -0.0219
43069DOD     C173026  28.944   1.449  29.644 -0.2626 -0.0105 -0.3954
43069DOD     C273027  28.802   1.830  29.496 -0.1666 -0.0237  0.1550
43069DOD     C373028  28.938   1.999  29.084 -0.0442 -0.4150  0.3052
43070DOD     C173029   5.951  11.315  27.954 -0.3389  0.1656 -0.0060
43070DOD     C273030   6.338  11.191  27.739  0.0001  0.5381 -0.2811
43070DOD     C373031   6.699  10.878  27.705 -0.1220 -0.0359 -0.2096
43071DOD     C173032  14.864  11.305   0.156 -0.3317 -0.1542  0.3493
43071DOD     C273033  14.777  11.395   0.618  0.0131 -0.1580  0.0280
43071DOD     C373034  14.665  11.440   1.101  0.2942  0.0814 -0.1996
43072DOD     C173035  30.000  14.422   9.793 -0.1321  0.0880 -0.0215
43072DOD     C273036   0.076  14.202   9.685 -0.1518 -0.2982  0.0269
43072DOD     C373037   0.531  14.237   9.603 -0.2121  0.2509  0.0103
43073DOD     C173038   0.227  14.480  13.171 -0.0384  0.0536 -0.0137
43073DOD     C273039   0.396  14.526  12.736  0.1090  0.1974  0.1513
43073DOD     C373040   0.477  14.541  12.323  0.1406  0.1355 -0.0946
43074DOD     C173041   2.122  25.057  21.462 -0.0371  0.1792  0.0544
43074DOD     C273042   2.527  24.831  21.435 -0.1916 -0.4464  0.0380
43074DOD     C373043   2.976  24.804  21.229 -0.2386 -0.0451  0.1817
43075DOD     C173044   6.656  24.976  29.611 -0.0530  0.1820 -0.0696
43075DOD     C273045   6.177  25.110  29.669 -0.1380  0.2262 -0.0882
43075DOD     C373046   5.905  25.325  29.359  0.4306 -0.4187 -0.0073
43076DOD     C173047  27.667  12.098  21.306  0.2532 -0.2125  0.1781
43076DOD     C273048  27.830  12.522  21.516 -0.1401 -0.5015  0.0089
43076DOD     C373049  27.814  12.654  21.928  0.0119 -0.5056  0.2494
43077DOD     C173050  25.206  15.663  19.569 -0.1635  0.2570 -0.1991
43077DOD     C273051  25.055  15.298  19.819  0.0003 -0.0621 -0.0821
43077DOD     C373052  25.179  14.832  19.829  0.0337  0.1988  0.2158
43078DOD     C173053  28.855   9.225  10.971  0.0186 -0.1269  0.0021
43078DOD     C273054  28.490   9.423  10.753  0.3067  0.3296  0.1418
43078DOD     C373055  28.280   9.803  10.552  0.1959 -0.0656  0.1137
43079DOD     C173056  30.233  29.700   7.585  0.1160 -0.0235 -0.0326
43079DOD     C273057   0.059  30.010   7.909  0.1533 -0.0064 -0.2748
43079DOD     C373058   0.100   0.054   8.200 -0.2064  0.2728 -0.2751
43080DOD     C173059   5.299  16.895   7.491 -0.2226  0.0624  0.1381
43080DOD     C273060   5.247  16.472   7.713  0.2309 -0.0361 -0.1121
43080DOD     C373061   5.207  16.007   7.583 -0.2658 -0.0207 -0.0336
43081DOD     C173062  23.772  26.678  20.450 -0.1163  0.0277 -0.0687
43081DOD     C273063  24.144  26.846  20.565  0.2256 -0.0956 -0.2264
43081DOD     C373064  24.582  26.677  20.686  0.2139 -0.1161  0.2598
43082DOD     C173065  19.477   6.469   9.231 -0.0165 -0.0144  0.1699
43082DOD     C273066  19.059   6.373   9.361  0.0144 -0.2023  0.0151
43082DOD     C373067  18.618   6.414   9.526 -0.2160  0.0426  0.1921
43083DOD     C173068  27.758  13.344  25.502  0.2391  0.0392  0.0962
43083DOD     C273069  28.170  13.519  25.338 -0.0344 -0.0499 -0.0562
43083DOD     C373070  28.599  13.692  25.225  0.0660  0.0276  0.1361
43084DOD     C173071   7.347   3.691  29.225  0.0534  0.0562  0.1267
43084DOD     C273072   7.127   3.630  28.821 -0.0556  0.2735  0.0552
43084DOD     C373073   7.252   3.463  28.417 -0.0013  0.1433  0.1612
43085DOD     C173074  15.067  15.798  30.150  0.2691 -0.0452  0.4465
43085DOD     C273075  15.236  15.328  30.209 -0.1354 -0.0956 -0.2141
43085DOD     C373076  15.397  14.864   0.050  0.1649  0.1240  0.0231
43086DOD     C173077  21.414  11.218  23.941 -0.0513 -0.2641  0.0221
43086DOD     C273078  21.305  11.641  24.208 -0.0675  0.1056  0.0953
43086DOD     C373079  21.299  12.133  24.191  0.0400  0.1722  0.0423
43087DOD     C173080  27.244  14.476   7.583  0.1267 -0.3405  0.2673
43087DOD     C273081  26.904  14.704   7.419  0.1737 -0.0265  0.1154
43087DOD     C373082  26.812  15.051   7.080 -0.0520 -0.0779  0.0806
43088DOD     C173083  11.696  20.745   7.638 -0.0068  0.2934 -0.1052
43088DOD     C273084  11.961  21.121   7.716  0.3745 -0.1990 -0.0391
43088DOD     C373085  12.260  21.439   7.538 -0.1737  0.3426  0.2986
43089DOD     C173086  23.436  19.174  17.470  0.0604  0.0992  0.0297
43089DOD     C273087  23.793  19.562  17.600 -0.1084  0.4127 -0.1179
43089DOD     C373088  24.065  19.833  17.319 -0.0764  0.1458 -0.1671
43090DOD     C173089  15.165   9.356   1.630  0.3005  0.1493  0.3107
43090DOD     C273090  15.528   9.160   1.414 -0.4046  0.1499 -0.0929
43090DOD     C373091  15.979   9.341   1.267 -0.1310 -0.0932  0.2266
43091DOD     C173092  17.053  11.983  17.447 -0.0140 -0.1181  0.1498
43091DOD     C273093  16.784  12.046  17.756  0.1155 -0.2294  0.0303
43091DOD     C373094  16.497  12.420  17.856 -0.1225 -0.2100 -0.0799
43092DOD     C173095  27.090  22.391  17.481 -0.1089 -0.5828 -0.2847
43092DOD     C273096  27.454  22.093  17.579  0.1086  0.2438 -0.1423
43092DOD     C373097  27.485  21.674  17.243  0.0505  0.3084 -0.0910
43093DOD     C173098  11.635   0.808   1.813  0.1017 -0.0407  0.0516
43093DOD     C273099  12.017   1.022   2.009 -0.0704 -0.0017 -0.0853
43093DOD     C373100  12.425   1.026   2.290 -0.2613 -0.1225 -0.0399
43094DOD     C173101  29.673   4.327   6.064 -0.0568 -0.0264 -0.0018
43094DOD     C273102  29.826   4.073   5.711  0.0609 -0.4839 -0.1324
43094DOD     C373103  29.956   3.693   5.451 -0.2717  0.0344  0.1367
43095DOD     C173104  28.354   3.121   5.086  0.3124 -0.1386  0.0259
43095DOD     C273105  27.987   3.043   4.709 -0.0503 -0.1296 -0.1474
43095DOD     C373106  27.621   3.263   4.528 -0.1084 -0.0353 -0.1244
43096DOD     C173107  27.072  29.070  15.161  0.1020  0.0718 -0.0727
43096DOD     C273108  26.758  29.218  14.910  0.2578 -0.0851  0.0117
43096DOD     C373109  26.431  29.540  14.852 -0.3505 -0.1136 -0.0536
43097DOD     C173110  11.558  11.654   0.063  0.2731 -0.0955  0.2396
43097DOD     C273111  11.907  11.972  30.253 -0.0270  0.1167 -0.2293
43097DOD     C373112  12.318  11.910  30.018 -0.2646  0.1147 -0.1476
43098DOD     C173113  10.420  16.973  13.977 -0.1220 -0.3311 -0.0006
43098DOD     C273114  10.291  16.856  13.564  0.0048  0.1412 -0.1637
43098DOD     C373115  10.232  16.547  13.204  0.3802 -0.0253 -0.2588
43099DOD     C173116  10.438   3.213  16.287  0.1433 -0.2495  0.0587
43099DOD     C273117  10.116   3.429  15.999  0.2382  0.2793  0.0835
43099DOD     C373118   9.841   3.698  15.846 -0.1051  0.1954  0.1817
43100DOD     C173119  19.886  22.774  25.833 -0.0454 -0.2915  0.1019
43100DOD     C273120  19.578  23.177  25.704  0.0267 -0.1467 -0.0405
43100DOD     C373121  19.437  23.604  25.857 -0.1937  0.1867 -0.2861
43101DOD     C173122  29.749  14.472  15.223  0.1380  0.0631  0.0143
43101DOD     C273123  30.010  14.791  15.529  0.0997 -0.1478  0.0220
43101DOD     C373124  29.889  15.187  15.764  0.2450  0.2662  0.1157
43102DOD     C173125   7.837   4.558  21.518  0.1767  0.1704  0.4673
43102DOD     C273126   7.803   4.155  21.722  0.1884 -0.1800  0.1792
43102DOD     C373127   7.540   3.834  22.016  0.1737 -0.1193  0.1478
43103DOD     C173128  22.223  29.826  26.879  0.1208  0.1598  0.5481
43103DOD     C273129  22.145  29.615  26.441  0.0610  0.1827 -0.0015
43103DOD     C373130  21.833  29.467  26.076 -0.0373 -0.0726 -0.1089
43104DOD     C173131  15.187  17.669  26.343  0.1238 -0.0507 -0.0754
43104DOD     C273132  15.103  17.955  26.706  0.0949 -0.1453 -0.4757
43104DOD     C373133  15.090  17.967  27.141  0.0347 -0.3021  0.0623
43105DOD     C173134  13.140  17.669  14.787  0.1233  0.0476 -0.2315
43105DOD     C273135  12.742  17.455  14.807 -0.2831  0.1565  0.2162
43105DOD     C373136  12.689  17.051  14.894  0.1366  0.0224  0.0631
43106DOD     C173137  14.195  16.294  19.914 -0.2338  0.3365  0.1586
43106DOD     C273138  14.543  16.023  19.968 -0.2796 -0.0978  0.3389
43106DOD     C373139  14.687  15.563  19.910  0.1436  0.0741  0.0827
43107DOD     C173140   7.701  13.876   9.126 -0.2293 -0.2507 -0.2803
43107DOD     C273141   7.404  13.924   8.731  0.1938  0.0539 -0.0549
43107DOD     C373142   6.991  14.204   8.715 -0.0006  0.2124  0.0418
43108DOD     C173143   1.161  21.602  24.645  0.0032  0.0866 -0.3389
43108DOD     C273144   1.567  21.923  24.715 -0.1275  0.1048 -0.0805
43108DOD     C373145   1.905  21.789  24.951 -0.0154  0.1801  0.1362
43109DOD     C173146   8.074   6.055  25.317 -0.1553 -0.0590 -0.2194
43109DOD     C273147   7.693   6.245  25.242  0.0855 -0.1609 -0.2027
43109DOD     C373148   7.187   6.341  25.262  0.1265 -0.1679  0.0644
43110DOD     C173149  14.409  19.454  16.271  0.0104 -0.0717 -0.0033
43110DOD     C273150  14.184  19.245  15.934 -0.1397 -0.1081  0.2491
43110DOD     C373151  13.976  18.818  15.951 -0.0924  0.0267  0.1197
43111DOD     C173152   4.105  15.724  29.854  0.0519 -0.5618 -0.0222
43111DOD     C273153   4.205  15.369  29.587  0.1001 -0.0369  0.3437
43111DOD     C373154   4.516  15.002  29.670  0.1235 -0.0591 -0.0756
43112DOD     C173155  25.042  20.151  19.847  0.3496  0.0760 -0.3055
43112DOD     C273156  24.735  20.418  20.087  0.1623 -0.0481  0.0678
43112DOD     C373157  24.334  20.490  19.989  0.2945 -0.1363 -0.0646
43113DOD     C173158  26.045  13.187  28.654 -0.0069  0.0530 -0.0139
43113DOD     C273159  26.457  12.943  28.851  0.1264 -0.1048  0.0139
43113DOD     C373160  26.866  13.100  28.958 -0.1638  0.1826  0.2656
43114DOD     C173161  23.968  12.283  12.297  0.0453  0.0086  0.2187
43114DOD     C273162  24.362  12.138  12.123 -0.0330 -0.0568  0.0085
43114DOD     C373163  24.695  11.817  12.279 -0.1400 -0.2534 -0.0101
43115DOD     C173164  18.562   6.142   6.556 -0.2840 -0.3739  0.2426
43115DOD     C273165  18.493   5.772   6.764  0.4886 -0.0849  0.2320
43115DOD     C373166  18.655   5.655   7.216  0.2875  0.2002  0.2339
43116DOD     C173167   1.639   4.343   4.169  0.0238  0.0604 -0.1083
43116DOD     C273168   1.975   4.545   3.907 -0.2903 -0.1427  0.1836
43116DOD     C373169   2.026   4.952   3.723 -0.0265  0.0997  0.1193
43117DOD     C173170   3.871  22.360  26.921 -0.3283 -0.2009  0.2836
43117DOD     C273171   3.691  22.485  27.367  0.0447  0.0934 -0.1920
43117DOD     C373172   3.715  22.907  27.496  0.0782 -0.3738  0.2087
43118DOD     C173173  22.702  26.447   4.069  0.0109 -0.1538 -0.2821
43118DOD     C273174  23.002  26.354   3.730 -0.0181 -0.0442 -0.1292
43118DOD     C373175  23.471  26.401   3.663  0.0860 -0.2579 -0.3424
43119DOD     C173176   8.579   7.820  16.190  0.0548 -0.2098 -0.1078
43119DOD     C273177   8.926   8.089  16.219 -0.2050 -0.1774 -0.0438
43119DOD     C373178   9.402   8.075  16.164  0.0979  0.2145  0.1956
43120DOD     C173179  17.065  17.254   9.967  0.0133  0.0052 -0.1247
43120DOD     C273180  17.127  16.792   9.939  0.2002 -0.2335  0.1303
43120DOD     C373181  17.249  16.625   9.545  0.2145 -0.0611  0.1362
43121DOD     C173182   3.218  25.634   1.084  0.3488  0.0439 -0.2533
43121DOD     C273183   2.831  25.479   1.410 -0.1376 -0.0190  0.1764
43121DOD     C373184   2.834  25.058   1.511  0.0572  0.0091  0.2319
43122DOD     C173185  14.305   0.207  13.441  0.0072 -0.5810  0.1421
43122DOD     C273186  14.711   0.362  13.650 -0.4907 -0.3568  0.0886
43122DOD     C373187  15.065   0.627  13.775 -0.0805  0.2704 -0.2619
43123DOD     C173188  28.721  21.721  22.040 -0.4281 -0.0705  0.0388
43123DOD     C273189  28.851  21.641  21.612 -0.0696 -0.1616 -0.1360
43123DOD     C373190  29.090  21.446  21.259  0.0759  0.1014  0.2949
43124DOD     C173191  16.851   0.355  14.107 -0.0184  0.1180  0.1011
43124DOD     C273192  16.877   0.660  13.723 -0.0052  0.0009 -0.1240
43124DOD     C373193  17.166   1.007  13.616 -0.0054 -0.3676 -0.0300
43125DOD     C173194  26.366  14.811  14.248  0.0040  0.0201 -0.0670
43125DOD     C273195  26.384  14.367  14.175  0.2764 -0.2551 -0.1588
43125DOD     C373196  26.380  13.938  14.037 -0.0018 -0.5223 -0.0390
43126DOD     C173197  27.400  23.329  19.526 -0.0034 -0.0320  0.0727
43126DOD     C273198  27.564  22.917  19.729  0.2105 -0.1745  0.0778
43126DOD     C373199  27.520  22.650  20.145 -0.1031  0.0185 -0.1869
43127DOD     C173200  16.427  17.484   6.766 -0.1832  0.0925  0.2351
43127DOD     C273201  16.166  17.627   6.415  0.1639  0.0889 -0.0762
43127DOD     C373202  15.928  17.381   6.110  0.2397  0.1512  0.0987
43128DOD     C173203  14.013  18.702   4.220 -0.0694 -0.1570  0.1116
43128DOD     C273204  13.946  18.900   4.643 -0.1410  0.1484  0.0636
43128DOD     C373205  13.991  18.978   5.082  0.2104  0.0285 -0.0786
43129DOD     C173206  30.180   1.178  25.287  0.2119 -0.3184  0.1693
43129DOD     C273207   0.334   1.106  25.131 -0.4801  0.2242 -0.0985
43129DOD     C373208   0.767   1.289  25.127  0.0096 -0.0994 -0.0998
43130DOD     C173209  24.911   2.361  27.007 -0.3074  0.1410  0.0338
43130DOD     C273210  24.874   2.024  26.713 -0.0133  0.1033  0.0802
43130DOD     C373211  25.233   1.804  26.549  0.3451  0.3284  0.0298
43131DOD     C173212  20.909  22.841  27.201 -0.2397  0.2123 -0.0899
43131DOD     C273213  20.903  22.622  27.571  0.0219 -0.1758  0.1081
43131DOD     C373214  20.764  22.725  28.002 -0.2412  0.0162  0.1852
43132DOD     C173215   7.009  10.795   6.230  0.0632  0.1409  0.0421
43132DOD     C273216   6.840  11.011   5.861 -0.3759 -0.2263  0.2780
43132DOD     C373217   6.376  10.943   5.788  0.0836  0.1549  0.0552
43133DOD     C173218  13.487   9.679   5.433  0.1789 -0.1148  0.2663
43133DOD     C273219  13.950   9.647   5.554  0.0033 -0.1840  0.2092
43133DOD     C373220  14.300   9.407   5.606  0.0326  0.0493 -0.0645
43134DOD     C173221   9.385  23.296  10.848 -0.0479 -0.0602 -0.1226
43134DOD     C273222   9.078  23.495  11.155 -0.2599 -0.1778 -0.1330
43134DOD     C373223   8.772  23.751  11.324 -0.0820 -0.1672  0.0890
43135DOD     C173224   7.609  12.247   1.675  0.1175 -0.2891 -0.1478
43135DOD     C273225   7.848  12.110   2.016  0.2431 -0.2933  0.1536
43135DOD     C373226   8.084  11.733   2.177 -0.6152  0.0091  0.1088
43136DOD     C173227  23.424  26.110  28.613 -0.2597 -0.4255 -0.3189
43136DOD     C273228  23.555  25.972  29.039 -0.0176 -0.1151  0.1123
43136DOD     C373229  23.833  26.152  29.393  0.1217  0.0431  0.1198
43137DOD     C173230  28.169  23.576  23.634  0.1886  0.1642  0.0904
43137DOD     C273231  28.479  23.914  23.711 -0.2147 -0.3413 -0.1747
43137DOD     C373232  28.911  24.015  23.832 -0.1253 -0.2338  0.1197
43138DOD     C173233   2.688   0.854   5.581  0.3968  0.1101  0.1455
43138DOD     C273234   2.368   0.955   5.295  0.1907 -0.2628 -0.0340
43138DOD     C373235   2.185   0.793   4.867  0.0293 -0.3379 -0.0521
43139DOD     C173236  25.530   4.821   8.709 -0.1506  0.0268  0.0625
43139DOD     C273237  25.578   4.401   8.811  0.3665 -0.0069 -0.0510
43139DOD     C373238  25.214   4.104   8.863 -0.1322 -0.1255 -0.2377
43140DOD     C173239  13.372  21.214   9.253 -0.0909  0.1519 -0.0971
43140DOD     C273240  12.993  21.429   9.131  0.0932  0.2626 -0.0241
43140DOD     C373241  12.795  21.841   9.231 -0.0388  0.1073 -0.0720
43141DOD     C173242  24.954   1.426  29.959  0.1734  0.0224 -0.1003
43141DOD     C273243  24.624   1.733  30.126  0.0383  0.2613 -0.1902
43141DOD     C373244  24.606   2.171  30.254 -0.0692 -0.1273  0.0896
43142DOD     C173245  18.886   7.757  13.572  0.0700 -0.1846 -0.1666
43142DOD     C273246  19.184   7.661  13.983 -0.1359  0.0283  0.1241
43142DOD     C373247  19.450   7.477  14.300  0.0263 -0.0793 -0.2135
43143DOD     C173248  24.245  20.741  22.829 -0.1185  0.3136 -0.0210
43143DOD     C273249  24.666  20.637  23.059 -0.0613 -0.2851  0.0588
43143DOD     C373250  25.072  20.918  23.156 -0.0237  0.0436 -0.1414
43144DOD     C173251  14.278  17.614   7.490 -0.2666 -0.1577  0.1602
43144DOD     C273252  14.120  17.569   7.088  0.2289  0.1736 -0.0010
43144DOD     C373253  14.025  17.363   6.619 -0.1256  0.3335 -0.0937
43145DOD     C173254  28.289   6.161  22.535 -0.0472 -0.0890 -0.1658
43145DOD     C273255  28.541   6.009  22.916  0.2707  0.2783 -0.2699
43145DOD     C373256  28.571   5.960  23.387 -0.1390 -0.3234  0.1168
43146DOD     C173257   6.796  16.031  14.121 -0.0457 -0.0580  0.0534
43146DOD     C273258   7.138  16.183  13.912 -0.1142 -0.1238 -0.0150
43146DOD     C373259   7.318  15.983  13.543 -0.2216  0.0186 -0.1688
43147DOD     C173260   5.143   1.701  24.373  0.2285  0.0241 -0.1218
43147DOD     C273261   5.199   1.729  23.912 -0.0266 -0.2135  0.2432
43147DOD     C373262   5.127   1.638  23.455  0.0862  0.0900  0.2065
43148DOD     C173263   2.919   6.651  24.850  0.3295  0.2692 -0.0568
43148DOD     C273264   3.160   6.390  24.529 -0.0011  0.1491  0.0450
43148DOD     C373265   3.378   6.178  24.132 -0.0208  0.1702  0.0239
43149DOD     C173266  19.512  20.798   6.662  0.1003  0.1253  0.2249
43149DOD     C273267  19.107  20.601   6.717 -0.0028 -0.1260 -0.0284
43149DOD     C373268  18.948  20.178   6.878  0.1417 -0.0360  0.1458
43150DOD     C173269  29.204  15.346  29.888 -0.1151 -0.1564  0.0062
43150DOD     C273270  29.376  15.492  29.471 -0.0957 -0.1506 -0.0591
43150DOD     C373271  29.601  15.587  29.063  0.1828 -0.0397  0.0684
43151DOD     C173272   4.205  23.510  16.922 -0.1915 -0.4152 -0.0983
43151DOD     C273273   4.423  23.659  17.311  0.0289 -0.0904 -0.0546
43151DOD     C373274   4.422  23.935  17.674 -0.3185 -0.0629  0.1185
43152DOD     C173275   8.254  28.063  24.878 -0.3925  0.1640 -0.0191
43152DOD     C273276   8.336  28.350  25.182 -0.2310 -0.0352 -0.1855
43152DOD     C373277   8.593  28.552  25.550  0.1781 -0.1104  0.1756
43153DOD     C173278   5.256  27.574  25.379  0.0154  0.0316 -0.0186
43153DOD     C273279   5.514  27.214  25.364 -0.1652 -0.3047 -0.0348
43153DOD     C373280   5.756  26.809  25.306 -0.0093  0.4275  0.2076
43154DOD     C173281  10.929   3.333  17.774 -0.1019  0.5166  0.1376
43154DOD     C273282  10.867   3.781  17.777 -0.1710  0.2766 -0.0410
43154DOD     C373283  10.757   4.032  17.390 -0.0518 -0.3763  0.0665
43155DOD     C173284  20.312  21.320   1.414 -0.1697 -0.0285 -0.1977
43155DOD     C273285  20.404  20.952   1.701 -0.0889  0.1061  0.2788
43155DOD     C373286  20.281  20.507   1.774 -0.1889 -0.2937 -0.0021
43156DOD     C173287   5.783   2.866   8.794 -0.1599  0.0620 -0.2658
43156DOD     C273288   5.555   2.880   8.359 -0.0081 -0.1853  0.0894
43156DOD     C373289   5.086   2.602   8.293 -0.0773  0.1185 -0.1612
43157DOD     C173290   1.948  22.827  17.495 -0.3377 -0.1495 -0.3312
43157DOD     C273291   1.591  23.065  17.348  0.0411  0.0864 -0.0165
43157DOD     C373292   1.142  23.190  17.365  0.0897 -0.0636 -0.2098
43158DOD     C173293  12.003   3.793  24.368 -0.0587 -0.1210  0.3094
43158DOD     C273294  12.431   3.645  24.395  0.0346  0.2707 -0.1143
43158DOD     C373295  12.824   3.525  24.160  0.2813 -0.1395  0.1725
43159DOD     C173296  16.521  16.819   4.814  0.2237 -0.3708  0.1272
43159DOD     C273297  16.423  17.092   4.403 -0.2111  0.2136 -0.0835
43159DOD     C373298  16.420  17.521   4.215  0.0140 -0.2614  0.5300
43160DOD     C173299  10.694  17.431  29.407 -0.1069 -0.1579  0.1545
43160DOD     C273300  10.328  17.659  29.189 -0.3252  0.3089 -0.3302
43160DOD     C373301   9.848  17.660  29.211  0.1075  0.3066  0.0629
43161DOD     C173302   3.744  22.943  21.727  0.1084 -0.2460 -0.1540
43161DOD     C273303   3.522  23.358  21.853 -0.0093  0.2557  0.1336
43161DOD     C373304   3.309  23.568  22.177  0.2885  0.1516 -0.0841
43162DOD     C173305  17.096  15.777  18.310 -0.2796 -0.1542 -0.2166
43162DOD     C273306  16.909  15.603  17.926 -0.1144  0.1081  0.4275
43162DOD     C373307  16.545  15.720  17.657 -0.0920  0.1448  0.0018
43163DOD     C173308   8.856   2.098   0.252 -0.0761  0.0665 -0.0626
43163DOD     C273309   9.128   1.741   0.124  0.0756  0.5952  0.1385
43163DOD     C373310   9.230   1.553  29.990 -0.0788 -0.1402 -0.1601
43164DOD     C173311  18.151   4.224  25.750  0.0520 -0.0343 -0.3506
43164DOD     C273312  17.788   4.246  25.416 -0.1970 -0.1144  0.0980
43164DOD     C373313  17.651   3.977  25.071  0.1757 -0.4312  0.1044
43165DOD     C173314  14.826  19.230  17.958 -0.3649  0.0815 -0.1707
43165DOD     C273315  14.750  19.591  17.642  0.0175 -0.2793 -0.2875
43165DOD     C373316  14.579  19.735  17.271 -0.0888 -0.3719  0.0493
43166DOD     C173317  24.620  24.981  19.375 -0.0858  0.1601 -0.0678
43166DOD     C273318  24.192  25.202  19.488 -0.2403  0.0200  0.2058
43166DOD     C373319  23.983  25.145  19.925 -0.1768 -0.4357 -0.0875
43167DOD     C173320  21.356  19.810  19.697  0.0293 -0.1087 -0.0794
43167DOD     C273321  20.946  19.932  19.918  0.0623  0.0356  0.1994
43167DOD     C373322  20.641  20.176  20.058 -0.2020  0.0188 -0.0928
43168DOD     C173323  18.512  29.028  15.391  0.1864  0.0194 -0.0190
43168DOD     C273324  18.863  28.680  15.443 -0.0332  0.2134 -0.2490
43168DOD     C373325  19.064  28.399  15.780 -0.4336 -0.1327 -0.0469
43169DOD     C173326   2.650  20.490   1.696 -0.1161 -0.1165  0.0426
43169DOD     C273327   3.125  20.410   1.849  0.0006 -0.1902 -0.1117
43169DOD     C373328   3.532  20.531   1.953 -0.1663  0.2226  0.2081
43170DOD     C173329  17.175  18.403   2.356  0.1567  0.0918  0.0157
43170DOD     C273330  17.231  17.951   2.129 -0.2908  0.1684 -0.0592
43170DOD     C373331  17.217  17.704   1.722  0.2770 -0.1137 -0.2169
43171DOD     C173332   3.409   3.497  18.310 -0.0167  0.1504  0.1887
43171DOD     C273333   3.527   3.122  18.524  0.3558  0.1738 -0.0872
43171DOD     C373334   3.196   2.847  18.725 -0.3159 -0.0722 -0.0113
43172DOD     C173335  16.787  12.840   5.941  0.1229  0.0241 -0.0265
43172DOD     C273336  16.434  12.953   5.665  0.0751 -0.0350 -0.1738
43172DOD     C373337  16.110  12.784   5.358 -0.0339 -0.0993  0.0506
43173DOD     C173338   5.005  11.108  18.591  0.1036 -0.0367  0.0535
43173DOD     C273339   4.902  10.746  18.796 -0.1262  0.0744  0.0841
43173DOD     C373340   4.730  10.345  18.811 -0.7074 -0.0158  0.1808
43174DOD     C173341  29.040  24.076   2.883 -0.0170 -0.1044  0.3337
43174DOD     C273342  29.079  23.899   3.325 -0.2875 -0.2116 -0.2248
43174DOD     C373343  28.915  23.769   3.718 -0.3802 -0.0143 -0.0619
43175DOD     C173344  25.480  15.000  10.882  0.2265 -0.1531  0.2463
43175DOD     C273345  25.162  15.251  10.650 -0.1284 -0.2452 -0.2170
43175DOD     C373346  24.765  15.517  10.523  0.0197 -0.0011 -0.2722
43176DOD     C173347  29.935  13.634  21.274  0.1744  0.1836  0.2124
43176DOD     C273348  30.100  13.755  21.671  0.1028 -0.1533 -0.1455
43176DOD     C373349   0.091  13.943  21.875 -0.2173  0.2673  0.1434
43177DOD     C173350  19.529  25.112  17.354  0.2324  0.2329  0.0346
43177DOD     C273351  19.996  25.218  17.506  0.0506  0.2476 -0.1343
43177DOD     C373352  20.383  25.464  17.678 -0.1187 -0.1862  0.2944
43178DOD     C173353  17.984   4.393  24.984  0.1306 -0.1037 -0.1333
43178DOD     C273354  18.148   4.001  24.735 -0.0562  0.0350  0.1363
43178DOD     C373355  18.397   3.802  24.442 -0.1438  0.2415  0.0742
43179DOD     C173356  14.327  27.372   0.114  0.2470  0.1006  0.4981
43179DOD     C273357  14.766  27.209   0.020  0.0305  0.2844 -0.0166
43179DOD     C373358  15.125  27.487  30.184  0.2487 -0.0347  0.3428
43180DOD     C173359   8.096   7.323  19.882  0.0700  0.0734  0.1266
43180DOD     C273360   8.073   7.030  20.220  0.3201 -0.0085  0.0989
43180DOD     C373361   8.315   6.830  20.517 -0.2540 -0.2427  0.1807
43181DOD     C173362  12.457  28.912  12.290 -0.0640 -0.2006  0.2197
43181DOD     C273363  12.513  29.264  12.569  0.0967  0.3319  0.1132
43181DOD     C373364  12.485  29.682  12.598  0.1826 -0.2041  0.1189
43182DOD     C173365  13.771  21.133   8.032 -0.0259  0.0790 -0.1420
43182DOD     C273366  13.539  20.962   8.457 -0.1952 -0.1434 -0.0629
43182DOD     C373367  13.322  20.873   8.824  0.1178  0.2212  0.2572
43183DOD     C173368  27.345  20.751   9.885 -0.2515  0.1296  0.1287
43183DOD     C273369  27.711  21.097  10.013 -0.2373 -0.0190  0.1786
43183DOD     C373370  28.140  21.254   9.997  0.3036  0.0735  0.1890
43184DOD     C173371  26.351  20.576  10.781 -0.0209  0.1895  0.0538
43184DOD     C273372  26.791  20.638  10.822 -0.0972 -0.3869 -0.1537
43184DOD     C373373  27.076  20.912  11.049 -0.1883  0.1414  0.0241
43185DOD     C173374  18.454   1.133  21.451  0.4086  0.0445  0.2780
43185DOD     C273375  18.246   1.477  21.621  0.4665  0.3336 -0.0268
43185DOD     C373376  18.445   1.852  21.827  0.1403 -0.3175  0.4159
43186DOD     C173377  28.013   3.073  14.641  0.0856  0.0907 -0.0964
43186DOD     C273378  28.129   3.468  14.739 -0.0333  0.1704  0.1597
43186DOD     C373379  28.556   3.638  14.759 -0.0832  0.2817  0.0284
43187DOD     C173380   1.071  12.184  24.901  0.0358  0.0947 -0.0303
43187DOD     C273381   1.521  12.044  24.851  0.1745 -0.0966 -0.0998
43187DOD     C373382   1.821  12.130  24.581  0.2548 -0.0094 -0.0448
43188DOD     C173383  26.176  10.083   0.771 -0.2372 -0.0729  0.1819
43188DOD     C273384  26.502  10.421   0.693 -0.3972  0.1304 -0.5534
43188DOD     C373385  26.750  10.522   0.396  0.4189  0.1432 -0.1905
43189DOD     C173386   1.250  28.744  26.892 -0.0504  0.0573  0.1051
43189DOD     C273387   0.882  28.593  27.137  0.0833 -0.0993  0.2579
43189DOD     C373388   0.853  28.385  27.571  0.1145  0.0979  0.3430
43190DOD     C173389  29.327  12.522   7.554  0.1267  0.1530  0.0894
43190DOD     C273390  29.615  12.326   7.744  0.0130  0.0218  0.1145
43190DOD     C373391  29.721  12.015   8.083 -0.4906  0.2978  0.1044
43191DOD     C173392   5.966  22.116  13.840  0.0898 -0.2361  0.0081
43191DOD     C273393   5.839  21.832  13.488  0.0787  0.1868 -0.1553
43191DOD     C373394   5.791  21.381  13.296  0.0366 -0.4494  0.1238
43192DOD     C173395   0.676   6.336  22.830 -0.0854  0.0945  0.1808
43192DOD     C273396   1.144   6.193  22.758  0.3593  0.0062 -0.0678
43192DOD     C373397   1.301   5.979  22.443 -0.0531  0.0833  0.2718
43193DOD     C173398   2.057  20.490   1.558 -0.0223  0.0245  0.1887
43193DOD     C273399   2.396  20.582   1.227 -0.1573 -0.2023  0.0626
43193DOD     C373400   2.700  20.920   1.301  0.1231 -0.0101 -0.3548
43194DOD     C173401  21.095   4.301  10.023 -0.2237  0.0566  0.3479
43194DOD     C273402  20.822   4.281   9.637 -0.2332  0.0032  0.1276
43194DOD     C373403  20.733   3.792   9.447  0.2108  0.2249 -0.1003
43195DOD     C173404  19.822   3.110  19.437  0.2001 -0.0514  0.0538
43195DOD     C273405  19.780   3.549  19.557 -0.1491 -0.2725 -0.1273
43195DOD     C373406  19.994   3.949  19.747 -0.0018  0.0264 -0.0425
43196DOD     C173407   1.545  14.297  26.210 -0.0685 -0.1109 -0.0982
43196DOD     C273408   1.395  14.674  26.492 -0.1131  0.2094  0.1903
43196DOD     C373409   1.330  15.088  26.555 -0.1902  0.3070 -0.2317
43197DOD     C173410  12.348   4.773   5.720 -0.1040 -0.1140  0.0049
43197DOD     C273411  12.664   4.556   5.406  0.1686 -0.3307  0.0097
43197DOD     C373412  12.789   4.111   5.517 -0.2213  0.1356 -0.0263
43198DOD     C173413  24.864  21.915   3.492 -0.1361 -0.0284  0.2956
43198DOD     C273414  24.490  21.731   3.299 -0.1944 -0.0691 -0.0382
43198DOD     C373415  24.252  21.439   2.969 -0.0136 -0.0318  0.2275
43199DOD     C173416  30.327  20.624   2.348  0.1630  0.2503  0.1919
43199DOD     C273417  29.884  20.534   2.481 -0.0172 -0.1541  0.1081
43199DOD     C373418  29.485  20.314   2.526  0.1887  0.0405  0.0991
43200DOD     C173419  25.882   5.970  15.358 -0.0390  0.3381  0.3757
43200DOD     C273420  25.628   5.611  15.173 -0.0778  0.1789 -0.2085
43200DOD     C373421  25.283   5.363  15.344 -0.2233  0.0931  0.2576
43201DOD     C173422  13.939  24.824  20.955 -0.1286  0.2261 -0.0501
43201DOD     C273423  13.585  24.981  20.788  0.0686 -0.1593 -0.1778
43201DOD     C373424  13.202  24.785  20.628  0.0128  0.2566  0.2030
43202DOD     C173425  19.843  14.897  11.039 -0.2688 -0.2189  0.2215
43202DOD     C273426  19.388  15.009  10.998 -0.1835 -0.1186 -0.0047
43202DOD     C373427  19.308  15.282  10.602 -0.0958  0.2323 -0.2630
43203DOD     C173428   4.506  14.455  10.046 -0.3535  0.2126 -0.4487
43203DOD     C273429   4.263  14.451  10.463 -0.3518  0.1680 -0.0177
43203DOD     C373430   3.948  14.321  10.833 -0.2311 -0.1756  0.1020
43204DOD     C173431  17.804  12.664   0.505  0.1223  0.0027 -0.0212
43204DOD     C273432  18.108  12.727   0.118  0.0296  0.0121  0.1239
43204DOD     C373433  17.972  12.533  30.028  0.0152  0.0482 -0.4478
43205DOD     C173434  13.074  16.642   7.258 -0.0740 -0.0307  0.2576
43205DOD     C273435  12.946  16.976   7.562 -0.1979  0.1017  0.1309
43205DOD     C373436  12.933  17.337   7.823 -0.1486  0.0392 -0.1249
43206DOD     C173437  26.911  19.021  12.177 -0.3179  0.0658 -0.3225
43206DOD     C273438  26.482  19.078  12.050 -0.0534 -0.1342 -0.0238
43206DOD     C373439  26.042  18.929  11.916  0.1279 -0.1636 -0.0406
43207DOD     C173440  20.608   6.131  24.973  0.2106  0.0005 -0.0777
43207DOD     C273441  20.401   6.241  25.417 -0.2699 -0.0868  0.2372
43207DOD     C373442  20.053   6.243  25.733  0.3190  0.3021 -0.1146
43208DOD     C173443  28.219   5.637  21.596  0.0628  0.0197  0.0631
43208DOD     C273444  28.699   5.518  21.556  0.1700 -0.0647 -0.0520
43208DOD     C373445  29.062   5.199  21.523 -0.2712  0.1073  0.2200
43209DOD     C173446  18.891  13.552  16.143 -0.1371  0.0972 -0.2756
43209DOD     C273447  19.317  13.524  16.046 -0.2802 -0.1917  0.1296
43209DOD     C373448  19.757  13.396  16.135 -0.0121 -0.0601 -0.0592
43210DOD     C173449   8.975   5.141  24.592 -0.0667 -0.1926  0.1044
43210DOD     C273450   9.379   5.344  24.424  0.2814 -0.0263 -0.0111
43210DOD     C373451   9.691   5.492  24.118 -0.0060 -0.1004 -0.1865
43211DOD     C173452   0.915  19.098  12.269 -0.0143 -0.0451 -0.1475
43211DOD     C273453   0.655  19.075  11.882  0.1008 -0.0597 -0.0421
43211DOD     C373454   0.296  18.861  11.732  0.1487 -0.0171 -0.0417
43212DOD     C173455   6.661  20.603   4.759 -0.0352 -0.1631 -0.3353
43212DOD     C273456   6.272  20.595   4.940 -0.0183 -0.2539 -0.0130
43212DOD     C373457   5.803  20.525   5.049  0.1410 -0.0048 -0.1222
43213DOD     C173458  15.510  18.374  25.381  0.0318  0.0050 -0.1959
43213DOD     C273459  15.750  18.715  25.132 -0.1518  0.1033  0.0469
43213DOD     C373460  15.927  19.142  25.002 -0.1680 -0.0316  0.1540
43214DOD     C173461   3.797  21.984   4.986 -0.0680  0.1806  0.2668
43214DOD     C273462   3.690  22.482   5.080 -0.3125  0.3893 -0.1713
43214DOD     C373463   3.743  22.885   4.835  0.2206  0.1194  0.3809
43215DOD     C173464  22.643   7.262  10.129  0.0774  0.3495 -0.1245
43215DOD     C273465  23.118   7.328  10.100  0.4292  0.1881  0.4194
43215DOD     C373466  23.482   7.348  10.424  0.3017 -0.0260 -0.1299
43216DOD     C173467   8.755  29.918   5.271 -0.1993 -0.0301 -0.1399
43216DOD     C273468   8.667  29.471   5.489  0.2560 -0.0315 -0.0337
43216DOD     C373469   8.804  29.084   5.458  0.4393  0.1629  0.0946
43217DOD     C173470   0.060  28.998  14.686 -0.0706 -0.0300 -0.2807
43217DOD     C273471   0.329  29.215  14.394  0.0165 -0.0486 -0.1154
43217DOD     C373472   0.564  29.621  14.431  0.1112 -0.1176  0.1892
43218DOD     C173473  12.545  27.246  10.761  0.0323 -0.1610  0.4793
43218DOD     C273474  12.606  27.080  11.189 -0.0852  0.1269  0.0757
43218DOD     C373475  12.484  26.960  11.596  0.1433  0.2817  0.1736
43219DOD     C173476   2.845   3.556  24.648  0.2185  0.1972 -0.4761
43219DOD     C273477   2.502   3.727  24.971  0.1129 -0.0208 -0.0451
43219DOD     C373478   2.345   3.838  25.411  0.3669  0.1996 -0.0950
43220DOD     C173479  17.700   9.837   2.476 -0.4546 -0.0423 -0.1465
43220DOD     C273480  17.243   9.939   2.699  0.1922 -0.2884  0.1560
43220DOD     C373481  16.822  10.036   2.928 -0.1545 -0.0837  0.0922
43221DOD     C173482  10.795  11.491  18.263 -0.1369 -0.0758 -0.0198
43221DOD     C273483  10.987  11.260  18.598  0.1288  0.0488 -0.0386
43221DOD     C373484  11.256  10.983  18.861 -0.2175  0.0928  0.0673
43222DOD     C173485   9.353  15.784   3.552  0.1336 -0.2965 -0.2287
43222DOD     C273486   9.336  16.003   3.172  0.0089  0.0871 -0.3033
43222DOD     C373487   9.510  16.262   2.858 -0.3407  0.3115 -0.0726
43223DOD     C173488  12.864   9.689  30.044  0.1047 -0.3189  0.0899
43223DOD     C273489  12.978  10.150  30.077 -0.0527  0.1559 -0.0088
43223DOD     C373490  13.156  10.518  -0.051  0.2541  0.2912 -0.2858
43224DOD     C173491  23.109  20.245  17.457 -0.1601 -0.1147  0.0659
43224DOD     C273492  22.954  20.511  17.081 -0.1679 -0.1426 -0.2424
43224DOD     C373493  22.725  20.813  16.821 -0.1608  0.1541 -0.1321
43225DOD     C173494  23.817   5.989   1.861  0.1332 -0.3860  0.0779
43225DOD     C273495  23.875   5.873   1.364  0.1335  0.0369 -0.1719
43225DOD     C373496  23.536   5.604   1.134 -0.0234  0.1454  0.0023
43226DOD     C173497   9.532  25.591  13.234 -0.0948 -0.3121  0.0073
43226DOD     C273498   9.842  25.808  13.405 -0.3498  0.0115 -0.2096
43226DOD     C373499  10.303  25.736  13.497 -0.0141  0.2325  0.0381
43227DOD     C173500  17.185  10.782  14.942 -0.2275  0.0465 -0.1241
43227DOD     C273501  17.465  11.210  14.938  0.0457 -0.0190  0.0840
43227DOD     C373502  17.856  11.440  14.946  0.1695 -0.0761 -0.0525
43228DOD     C173503   1.572  23.327  23.203 -0.3111 -0.1104 -0.0237
43228DOD     C273504   1.354  23.760  23.205 -0.1069  0.0152  0.0111
43228DOD     C373505   1.374  24.170  22.995  0.2483  0.0765  0.1074
43229DOD     C173506   6.049   1.240  29.144 -0.1066  0.1220 -0.0298
43229DOD     C273507   5.713   1.057  29.387  0.1628 -0.1915  0.0142
43229DOD     C373508   5.353   1.174  29.158 -0.0383  0.1137  0.0738
43230DOD     C173509   7.681  30.258  27.931 -0.0317  0.0898 -0.1154
43230DOD     C273510   7.971   0.252  27.764  0.0385  0.2502 -0.0733
43230DOD     C373511   7.922   0.758  27.714 -0.1366  0.0800  0.0263
43231DOD     C173512  28.340  15.683  21.223 -0.4470  0.1137  0.0328
43231DOD     C273513  28.034  15.962  21.415  0.0170  0.3232 -0.0372
43231DOD     C373514  27.709  16.205  21.665  0.0474 -0.0721  0.3424
43232DOD     C173515   4.356  21.296  19.736 -0.2352 -0.1249  0.1843
43232DOD     C273516   4.040  21.642  19.806 -0.4792 -0.2923  0.2168
43232DOD     C373517   3.536  21.787  19.759 -0.1715  0.0026 -0.0269
43233DOD     C173518  17.339   0.414  23.418  0.1639 -0.1031 -0.0337
43233DOD     C273519  17.113   0.420  23.859 -0.3904  0.3062  0.0702
43233DOD     C373520  17.079   0.170  24.246 -0.0810  0.1519 -0.0810
43234DOD     C173521  29.425  26.011   6.952 -0.1833 -0.2515 -0.1582
43234DOD     C273522  29.457  26.066   6.452  0.1396 -0.2145  0.2879
43234DOD     C373523  29.741  26.176   6.070 -0.2198  0.0642  0.0939
43235DOD     C173524   1.683  21.086  23.531  0.1059 -0.1319 -0.1418
43235DOD     C273525   1.398  21.472  23.455 -0.3038  0.3774  0.1918
43235DOD     C373526   1.183  21.499  23.060  0.3272  0.1606 -0.3983
43236DOD     C173527  28.779  14.106  16.962  0.0064 -0.0709  0.0134
43236DOD     C273528  28.405  13.825  16.896  0.0947 -0.1010 -0.2069
43236DOD     C373529  28.014  13.624  16.720  0.1676 -0.3037  0.0047
43237DOD     C173530  14.984  19.522  18.588  0.2197  0.1722  0.0674
43237DOD     C273531  15.430  19.462  18.633  0.2876 -0.0385 -0.4306
43237DOD     C373532  15.707  19.126  18.385 -0.1478  0.1968  0.1014
43238DOD     C173533   2.040   9.676  26.472 -0.1129 -0.0439 -0.2994
43238DOD     C273534   2.242   9.942  26.752 -0.3179 -0.2983 -0.0027
43238DOD     C373535   2.153  10.249  27.092  0.1432  0.1313 -0.2233
43239DOD     C173536  26.879  17.928   4.630  0.2978 -0.0494  0.1219
43239DOD     C273537  26.612  18.183   4.367 -0.1241  0.0255  0.1331
43239DOD     C373538  26.242  18.434   4.472 -0.1097  0.0525 -0.3047
43240DOD     C173539  15.166  11.554   1.981  0.2963 -0.0751 -0.0397
43240DOD     C273540  14.887  11.163   1.910  0.0976  0.0359  0.2682
43240DOD     C373541  14.620  10.778   1.913  0.0111  0.1727 -0.0748
43241DOD     C173542   8.560  13.363   1.374  0.0017 -0.4594 -0.0363
43241DOD     C273543   8.468  13.532   0.954 -0.1073 -0.1489  0.0115
43241DOD     C373544   8.487  13.648   0.543 -0.4729  0.1025 -0.0531
43242DOD     C173545  20.921  15.508   6.255 -0.2628  0.0649  0.2970
43242DOD     C273546  20.490  15.557   6.436  0.2506 -0.2039 -0.0196
43242DOD     C373547  20.095  15.562   6.259 -0.3048  0.2160 -0.2995
43243DOD     C173548  20.367  16.450   2.955  0.1644  0.2182  0.1009
43243DOD     C273549  20.591  16.005   2.893 -0.3152  0.0092 -0.0144
43243DOD     C373550  20.870  15.643   2.935  0.5428 -0.1803  0.2241
43244DOD     C173551  14.559  11.549  18.074 -0.0429 -0.0745 -0.1919
43244DOD     C273552  14.174  11.741  18.253 -0.0379 -0.0187  0.3614
43244DOD     C373553  13.936  11.555  18.588  0.0081  0.0507 -0.1002
43245DOD     C173554  21.466  13.027  22.417 -0.2120  0.0605  0.0306
43245DOD     C273555  21.791  12.886  22.093  0.1174 -0.0642 -0.0291
43245DOD     C373556  22.061  12.760  21.754  0.3161 -0.0122  0.1273
43246DOD     C173557  29.702   2.449  27.501 -0.2500 -0.1428 -0.1591
43246DOD     C273558  29.976   2.606  27.800  0.0397 -0.0993 -0.0184
43246DOD     C373559  30.153   2.879  28.121  0.1500 -0.1344 -0.1528
43247DOD     C173560   6.453  13.052  12.986 -0.0488 -0.0865 -0.1779
43247DOD     C273561   6.152  13.045  12.645  0.1602  0.3343 -0.2876
43247DOD     C373562   6.176  12.813  12.220 -0.0467 -0.0936 -0.1903
43248DOD     C173563  18.531   9.008   5.606 -0.1319 -0.1498 -0.3542
43248DOD     C273564  18.099   8.818   5.716 -0.3491 -0.0706 -0.2967
43248DOD     C373565  17.631   8.715   5.862  0.1362 -0.1099 -0.0028
43249DOD     C173566  22.277   1.846  21.660 -0.2689  0.1443 -0.0625
43249DOD     C273567  22.694   1.989  21.485  0.1196 -0.0439 -0.0954
43249DOD     C373568  22.984   2.190  21.167 -0.1437 -0.2050 -0.1235
43250DOD     C173569  16.137  10.081  18.370 -0.1206  0.1466 -0.0361
43250DOD     C273570  16.068   9.985  18.850  0.4029 -0.2253  0.0321
43250DOD     C373571  16.213  10.259  19.225 -0.4274 -0.2121 -0.3862
43251DOD     C173572  13.629  19.505  13.268  0.0373 -0.0483  0.2026
43251DOD     C273573  14.010  19.404  13.085  0.0372  0.1451  0.2534
43251DOD     C373574  14.100  19.481  12.650 -0.3454 -0.0217  0.2920
43252DOD     C173575  14.628  24.669   8.591  0.1032  0.1603 -0.0157
43252DOD     C273576  15.054  24.483   8.598 -0.1594  0.1710 -0.0174
43252DOD     C373577  15.438  24.467   8.358  0.2097 -0.0800  0.1735
43253DOD     C173578   4.761  28.087  25.445  0.0902 -0.0395  0.3625
43253DOD     C273579   5.031  27.957  25.064 -0.0868 -0.3840 -0.0671
43253DOD     C373580   5.344  28.070  24.734 -0.1197 -0.2934 -0.0671
43254DOD     C173581   7.923  14.463   7.349  0.0553  0.2298  0.3073
43254DOD     C273582   8.273  14.365   7.103 -0.3131  0.0159 -0.0379
43254DOD     C373583   8.712  14.188   7.160 -0.2264 -0.0023 -0.1386
43255DOD     C173584  19.758  17.762   1.531 -0.3116 -0.1654  0.0497
43255DOD     C273585  19.590  17.337   1.468 -0.1171  0.0586 -0.2177
43255DOD     C373586  19.636  16.972   1.249 -0.1772  0.0975  0.0167
43256DOD     C173587  14.700   3.656  16.597  0.0982  0.0374 -0.0858
43256DOD     C273588  15.010   3.892  16.381 -0.3235 -0.2122  0.0017
43256DOD     C373589  15.358   4.038  16.013  0.1081  0.0437  0.1990
43257DOD     C173590  25.466   4.128   5.007 -0.1680 -0.2218 -0.2267
43257DOD     C273591  25.651   3.957   4.634 -0.3513 -0.0219 -0.0946
43257DOD     C373592  26.008   3.874   4.320  0.0336 -0.2943 -0.2924
43258DOD     C173593  22.364  13.944   3.614  0.4780 -0.2212  0.1398
43258DOD     C273594  22.481  13.481   3.758  0.2613 -0.1323  0.0888
43258DOD     C373595  22.665  13.104   3.678 -0.1079 -0.1855 -0.1835
43259DOD     C173596   8.027   8.623  28.920 -0.2520 -0.1514  0.4113
43259DOD     C273597   8.061   9.069  29.004  0.0998  0.1570  0.0324
43259DOD     C373598   7.913   9.366  29.301 -0.0527 -0.0071 -0.1306
43260DOD     C173599  18.532  27.590  22.011  0.2262 -0.3662  0.0189
43260DOD     C273600  18.686  27.304  22.335 -0.2908 -0.0270 -0.3031
43260DOD     C373601  19.142  27.155  22.289 -0.3705 -0.0750  0.0173
43261DOD     C173602  22.029   0.740  28.494  0.2355 -0.1082 -0.1095
43261DOD     C273603  22.361   0.360  28.419 -0.1131 -0.1983  0.0174
43261DOD     C373604  22.399  30.277  28.219 -0.1011  0.1894 -0.0109
43262DOD     C173605  20.028  17.561  17.067 -0.0917 -0.1569 -0.2263
43262DOD     C273606  20.328  17.994  17.030  0.0149  0.0053  0.0907
43262DOD     C373607  20.557  18.248  16.761  0.4378  0.0337 -0.2804
43263DOD     C173608  29.451  10.851  18.993 -0.2137  0.0768 -0.0815
43263DOD     C273609  29.329  11.320  18.875  0.0345 -0.2413  0.0586
43263DOD     C373610  29.345  11.619  19.218  0.1661  0.5160 -0.0529
43264DOD     C173611  15.657   3.222   2.066 -0.1629  0.3545  0.1587
43264DOD     C273612  15.857   3.315   2.504 -0.0620  0.3669 -0.1884
43264DOD     C373613  15.873   3.513   2.942 -0.2616 -0.2160 -0.1676
43265DOD     C173614   8.730  29.481   6.330  0.2773  0.0725 -0.1344
43265DOD     C273615   8.911  29.208   5.934 -0.1111  0.3436  0.3342
43265DOD     C373616   9.124  28.815   5.794  0.1113  0.1417  0.2872
43266DOD     C173617  16.042   9.290  24.506 -0.0591 -0.1110 -0.1544
43266DOD     C273618  15.729   8.939  24.528  0.0274 -0.0367 -0.2764
43266DOD     C373619  15.377   8.733  24.790  0.2418 -0.1353  0.0734
43267DOD     C173620   5.229  14.307  18.495  0.2153 -0.0011  0.0693
43267DOD     C273621   5.621  14.168  18.751 -0.0325  0.0024 -0.0208
43267DOD     C373622   6.051  14.014  18.673  0.3349 -0.0970 -0.0687
43268DOD     C173623   7.755   3.640   8.748 -0.0284 -0.0282  0.0248
43268DOD     C273624   7.814   4.097   8.776  0.1515  0.2122 -0.0932
43268DOD     C373625   8.134   4.427   8.893  0.3499 -0.0155 -0.0308
43269DOD     C173626  10.593   0.963  10.183  0.1347  0.0004  0.1294
43269DOD     C273627  10.930   1.155  10.442  0.0947 -0.1404 -0.1063
43269DOD     C373628  11.323   0.942  10.534  0.0377  0.1660 -0.1158
43270DOD     C173629  29.692  30.072   6.896 -0.4289 -0.0563  0.1950
43270DOD     C273630  29.241  30.058   6.879 -0.2878 -0.0725 -0.0280
43270DOD     C373631  28.878  29.810   7.002  0.2669  0.1613  0.0019
43271DOD     C173632  19.261  23.125  19.772  0.0355  0.1221 -0.1331
43271DOD     C273633  19.486  22.778  19.926  0.1317 -0.1590 -0.0714
43271DOD     C373634  19.861  22.605  19.993 -0.1265 -0.1523  0.1033
43272DOD     C173635  20.974   0.996  19.498 -0.0659 -0.0030  0.1606
43272DOD     C273636  20.813   1.156  19.896  0.2534  0.1118  0.3434
43272DOD     C373637  20.628   1.454  20.196 -0.0167 -0.2045 -0.0094
43273DOD     C173638  22.137  24.779  11.445 -0.0100  0.0884 -0.0015
43273DOD     C273639  22.091  24.313  11.431  0.3086  0.1494  0.1836
43273DOD     C373640  22.271  23.909  11.135  0.2892 -0.1333 -0.0750
43274DOD     C173641  20.178   5.139  18.904 -0.0469 -0.0048 -0.1076
43274DOD     C273642  20.169   5.586  18.848 -0.0295 -0.0307  0.2737
43274DOD     C373643  20.368   5.914  18.609 -0.0441  0.1390  0.0932
43275DOD     C173644  13.388   1.992  10.068 -0.0969  0.0466 -0.4176
43275DOD     C273645  13.223   1.780   9.649  0.2029  0.1045  0.0946
43275DOD     C373646  13.263   1.453   9.372 -0.1021 -0.0139  0.5471
43276DOD     C173647  20.232   3.872  19.307 -0.2851  0.4133 -0.1016
43276DOD     C273648  19.840   3.640  19.126 -0.1598  0.0558 -0.2875
43276DOD     C373649  19.618   3.351  18.790  0.1525 -0.1535  0.0177
43277DOD     C173650  20.269  15.283  29.086 -0.0101 -0.1116 -0.2549
43277DOD     C273651  20.160  15.615  28.819  0.3828  0.1616  0.1065
43277DOD     C373652  19.960  15.933  28.446  0.1160  0.1422  0.0172
43278DOD     C173653  20.078  21.505  17.879  0.2903  0.0736  0.1727
43278DOD     C273654  19.963  21.669  17.465 -0.2235 -0.0461  0.2799
43278DOD     C373655  20.137  22.025  17.162 -0.4319  0.2508  0.2263
43279DOD     C173656  14.173   8.114   9.226  0.1943 -0.0792 -0.5274
43279DOD     C273657  14.472   8.424   9.199  0.3153  0.2030  0.3893
43279DOD     C373658  14.607   8.845   9.193 -0.1746 -0.2460 -0.0791
43280DOD     C173659  16.823  13.175  12.905 -0.2360 -0.1200  0.0070
43280DOD     C273660  17.289  13.359  12.964 -0.0516  0.0712 -0.0378
43280DOD     C373661  17.617  13.652  12.920 -0.0941 -0.3977  0.0511
43281DOD     C173662   0.457  11.518  24.308 -0.1752 -0.1710  0.3637
43281DOD     C273663   0.270  11.592  24.780 -0.0848 -0.1418  0.0104
43281DOD     C373664   0.011  11.530  25.216 -0.1733 -0.1908 -0.0196
43282DOD     C173665  24.757  16.924  26.646 -0.0523 -0.1031  0.1107
43282DOD     C273666  24.808  17.413  26.652 -0.0611  0.0602 -0.0639
43282DOD     C373667  24.731  17.926  26.807 -0.2103  0.0863 -0.1480
43283DOD     C173668  12.781   4.442  13.538 -0.1001  0.0749 -0.1053
43283DOD     C273669  12.334   4.255  13.598 -0.0205 -0.0455  0.1931
43283DOD     C373670  11.904   4.378  13.751 -0.0098 -0.3250  0.0218
43284DOD     C173671  10.885   7.930  22.122 -0.3447  0.3348  0.1377
43284DOD     C273672  10.469   7.873  22.271  0.0509 -0.3821 -0.0514
43284DOD     C373673  10.162   7.907  22.596  0.2526  0.0003 -0.0007
43285DOD     C173674  11.420   9.955  30.127 -0.1879  0.0369 -0.1513
43285DOD     C273675  11.270  10.074  29.723  0.1568 -0.1949  0.4434
43285DOD     C373676  10.888  10.180  29.635  0.2879  0.0514 -0.1893
43286DOD     C173677   1.982  21.716  17.668 -0.1351 -0.1020  0.0727
43286DOD     C273678   1.758  21.289  17.649  0.2237 -0.1918  0.1018
43286DOD     C373679   1.493  20.928  17.814 -0.1646 -0.0153 -0.1456
43287DOD     C173680  17.904  15.600   0.221 -0.2129  0.0906 -0.0686
43287DOD     C273681  17.966  15.806  30.178  0.1095 -0.2599  0.0164
43287DOD     C373682  18.077  16.201  29.980 -0.4150  0.4184  0.1318
43288DOD     C173683  10.906   7.615  13.094  0.0484  0.2899  0.1570
43288DOD     C273684  10.952   7.190  12.819 -0.2857  0.1421  0.2722
43288DOD     C373685  11.037   7.208  12.374  0.0518  0.0387 -0.1864
43289DOD     C173686  18.981  11.968  16.987 -0.1296 -0.1691  0.1833
43289DOD     C273687  18.852  11.547  17.125 -0.1921 -0.3246 -0.0417
43289DOD     C373688  18.695  11.119  17.118 -0.1173 -0.0301 -0.0854
43290DOD     C173689   8.079  14.402  22.147  0.0079  0.2648 -0.1639
43290DOD     C273690   8.272  14.100  21.897 -0.1753 -0.0494  0.2909
43290DOD     C373691   8.482  13.697  21.934  0.1307  0.2089  0.2185
43291DOD     C173692   7.964   0.479   8.180 -0.0405 -0.2513 -0.1573
43291DOD     C273693   8.147   0.872   7.935  0.0077  0.1700  0.1539
43291DOD     C373694   8.275   1.297   7.823  0.2345 -0.2305  0.0784
43292DOD     C173695  17.895   3.788  25.569  0.0011 -0.1594 -0.1535
43292DOD     C273696  17.433   3.697  25.579  0.2526 -0.5043  0.4773
43292DOD     C373697  17.063   3.945  25.480 -0.0026  0.2490  0.0434
43293DOD     C173698  25.361  15.789  11.564  0.3466  0.3233 -0.0897
43293DOD     C273699  25.419  15.335  11.561 -0.2286 -0.2503  0.0007
43293DOD     C373700  25.816  15.030  11.505  0.2786  0.0801  0.1148
43294DOD     C173701  27.511  10.793   6.821  0.1112  0.1536 -0.2245
43294DOD     C273702  27.709  10.640   6.436  0.1203 -0.2304  0.4349
43294DOD     C373703  27.760  10.488   5.998  0.1274  0.0007 -0.2507
43295DOD     C173704  14.008   0.871  15.065  0.0465  0.2813  0.1040
43295DOD     C273705  13.739   0.747  15.408 -0.2155  0.1411  0.0397
43295DOD     C373706  13.512   0.429  15.651  0.0176  0.2268 -0.0261
43296DOD     C173707   6.088   8.581  21.999 -0.2854 -0.1840  0.1718
43296DOD     C273708   6.157   8.455  21.570 -0.0700 -0.0349  0.0683
43296DOD     C373709   6.071   8.088  21.259  0.1917  0.1400 -0.0562
43297DOD     C173710  22.745   2.598  10.258  0.1779 -0.2304  0.1524
43297DOD     C273711  22.484   2.199  10.140  0.2554 -0.3521  0.0288
43297DOD     C373712  22.215   1.935   9.879 -0.0698  0.0985  0.2036
43298DOD     C173713  18.687  13.871   7.837 -0.1169  0.2627  0.0162
43298DOD     C273714  18.376  14.217   7.682 -0.0705 -0.0408 -0.0045
43298DOD     C373715  18.128  14.660   7.748  0.1406  0.3323 -0.0772
43299DOD     C173716   2.534  10.209   3.466  0.3427 -0.1569 -0.3894
43299DOD     C273717   2.674   9.894   3.745 -0.3315  0.0073 -0.1349
43299DOD     C373718   2.655   9.364   3.873  0.3235 -0.2063  0.2788
43300DOD     C173719  13.571   5.821   8.512 -0.0753  0.0672 -0.1800
43300DOD     C273720  13.970   5.804   8.278  0.1279 -0.0067  0.0586
43300DOD     C373721  14.324   5.996   8.044 -0.2809 -0.2503  0.2170
43301DOD     C173722  15.202  16.839   4.023 -0.2652 -0.3199 -0.3932
43301DOD     C273723  14.921  16.992   3.702  0.3607 -0.3199 -0.1616
43301DOD     C373724  14.524  16.983   3.434  0.0486 -0.1021 -0.0819
43302DOD     C173725  29.096  17.284  18.492  0.1063  0.0960 -0.3461
43302DOD     C273726  28.849  17.239  18.084  0.0240  0.4697 -0.3138
43302DOD     C373727  28.563  17.027  17.701  0.1495  0.2323 -0.4059
43303DOD     C173728  26.478  26.585  17.570 -0.1079 -0.2131 -0.1041
43303DOD     C273729  26.192  26.456  17.195 -0.0843  0.1982 -0.3098
43303DOD     C373730  25.963  26.033  17.063  0.0779 -0.2617  0.0605
43304DOD     C173731  29.318   4.720  26.543  0.6963 -0.1714 -0.3166
43304DOD     C273732  28.840   4.716  26.592  0.2925  0.1628 -0.0626
43304DOD     C373733  28.364   4.870  26.591 -0.0461  0.1035  0.2111
43305DOD     C173734   5.772   7.514  20.157 -0.2088  0.0234 -0.1226
43305DOD     C273735   5.876   7.156  20.185  0.1296 -0.1486  0.1853
43305DOD     C373736   5.811   6.723  20.132  0.2790  0.1327 -0.1290
43306DOD     C173737   0.751  11.918  15.817  0.2023  0.2719  0.1447
43306DOD     C273738   0.740  12.322  15.590 -0.2657 -0.0305 -0.2121
43306DOD     C373739   0.832  12.710  15.313 -0.0717 -0.0240  0.4800
43307DOD     C173740  27.425  13.619  25.913 -0.1302  0.1508  0.1648
43307DOD     C273741  26.982  13.748  26.058 -0.3208 -0.1876 -0.3124
43307DOD     C373742  26.549  13.952  26.232  0.0537 -0.0461 -0.2190
43308DOD     C173743  23.006   2.580   2.085 -0.0103 -0.1281 -0.1026
43308DOD     C273744  23.145   2.595   1.627  0.0433 -0.2197  0.1703
43308DOD     C373745  22.923   2.767   1.231  0.1370  0.2833  0.0589
43309DOD     C173746   7.284   3.470  14.897  0.0341  0.0490  0.3201
43309DOD     C273747   6.942   3.699  15.081  0.0603  0.0878 -0.3148
43309DOD     C373748   6.881   4.175  15.258 -0.0211  0.1690 -0.0865
43310DOD     C173749  20.528  19.158  27.565  0.0718 -0.1298  0.1120
43310DOD     C273750  20.893  19.411  27.428 -0.1129 -0.1663  0.2031
43310DOD     C373751  21.251  19.708  27.511 -0.0703  0.1586  0.1033
43311DOD     C173752  15.351   3.547  27.001 -0.0448  0.1648  0.2028
43311DOD     C273753  15.329   3.953  26.743  0.2203 -0.0406 -0.1934
43311DOD     C373754  14.849   4.015  26.802 -0.0044  0.2440  0.1832
43312DOD     C173755   8.845   9.584  10.821 -0.2383  0.1316  0.1969
43312DOD     C273756   9.278   9.517  10.868  0.1146 -0.1587 -0.1639
43312DOD     C373757   9.648   9.511  10.583 -0.1492 -0.2129  0.0892
43313DOD     C173758  13.000  23.951  19.881 -0.0001 -0.0240 -0.2045
43313DOD     C273759  12.748  24.065  20.201  0.1417  0.2203  0.1340
43313DOD     C373760  12.809  24.444  20.589  0.0711  0.0732  0.1264
43314DOD     C173761  15.734  20.327   6.954  0.1653  0.5762  0.2661
43314DOD     C273762  16.048  20.459   6.621 -0.0458 -0.0423  0.0534
43314DOD     C373763  16.382  20.596   6.288 -0.0016 -0.3508 -0.1898
43315DOD     C173764  15.563   8.394  21.957 -0.0887 -0.1131 -0.0390
43315DOD     C273765  15.604   8.595  21.537 -0.0429 -0.0517 -0.0879
43315DOD     C373766  15.630   8.783  21.097  0.1272 -0.0771  0.1774
43316DOD     C173767  20.647  22.160  23.744 -0.0720 -0.0845  0.1738
43316DOD     C273768  20.312  22.289  23.447 -0.2591 -0.0557 -0.1411
43316DOD     C373769  20.404  22.254  23.001  0.1122  0.1236 -0.1808
43317DOD     C173770  17.606   5.196  14.256  0.0954  0.1653  0.1592
43317DOD     C273771  17.189   5.208  14.345  0.0045 -0.0626 -0.4832
43317DOD     C373772  16.841   4.908  14.429 -0.1456  0.0436 -0.0595
43318DOD     C173773   5.389  12.686   0.169 -0.2634 -0.0257  0.3739
43318DOD     C273774   5.299  12.656  30.046  0.4836  0.1767  0.0283
43318DOD     C373775   5.424  12.775  29.638 -0.0425 -0.1401  0.1526
43319DOD     C173776   5.453  22.418  17.357  0.3654  0.2947  0.0062
43319DOD     C273777   5.148  22.709  17.517  0.0511  0.1017  0.0564
43319DOD     C373778   5.206  23.158  17.722  0.1405 -0.0460  0.0549
43320DOD     C173779  27.295   7.589  20.111 -0.2642 -0.2684  0.1253
43320DOD     C273780  27.445   7.214  19.820 -0.0447  0.0708 -0.1436
43320DOD     C373781  27.630   7.268  19.404 -0.0275 -0.0348  0.1134
43321DOD     C173782  15.529  13.784  14.382 -0.2766 -0.1478 -0.2922
43321DOD     C273783  15.171  14.048  14.352  0.3157 -0.0548  0.0279
43321DOD     C373784  14.958  14.486  14.241  0.1266  0.1740  0.1964
43322DOD     C173785  21.324   0.297  27.334  0.2340 -0.0251 -0.4040
43322DOD     C273786  21.434   0.288  26.905 -0.1663 -0.0198  0.3133
43322DOD     C373787  21.375   0.502  26.539  0.1092 -0.2806  0.0715
43323DOD     C173788   4.688   6.929   2.480 -0.1101  0.1598 -0.0526
43323DOD     C273789   4.288   6.758   2.294 -0.3412 -0.1031  0.2363
43323DOD     C373790   4.126   6.752   1.879 -0.1282 -0.0342  0.1559
43324DOD     C173791   0.227  28.782  13.098  0.0911 -0.3664 -0.0313
43324DOD     C273792   0.516  29.087  13.322 -0.0873 -0.0767  0.3308
43324DOD     C373793   0.460  29.501  13.438  0.2284 -0.2481 -0.0809
43325DOD     C173794  18.603  13.106  29.648 -0.0797 -0.2278 -0.1056
43325DOD     C273795  18.835  13.193  30.048  0.0296 -0.1658 -0.0271
43325DOD     C373796  19.045  13.223   0.147  0.0284  0.0495 -0.0202
43326DOD     C173797  17.836   1.247   3.373 -0.0097  0.0539 -0.1078
43326DOD     C273798  17.880   1.376   3.786 -0.1680  0.0259 -0.0148
43326DOD     C373799  17.981   1.606   4.220  0.0953 -0.0620  0.3315
43327DOD     C173800  20.341  21.042   5.391 -0.0218  0.1413  0.4904
43327DOD     C273801  20.459  21.228   4.996 -0.5645 -0.1194  0.0193
43327DOD     C373802  20.434  21.655   4.824 -0.1516  0.1485  0.0832
43328DOD     C173803  26.575  13.561  11.172  0.2747  0.1495 -0.3491
43328DOD     C273804  26.420  14.020  11.170 -0.0208 -0.1621  0.2860
43328DOD     C373805  26.180  14.398  10.993  0.0762 -0.1755  0.0800
43329DOD     C173806  10.196   6.962   0.243 -0.2332  0.0097 -0.0261
43329DOD     C273807   9.766   6.962   0.292  0.0648 -0.0704 -0.2397
43329DOD     C373808   9.433   6.886   0.595  0.0258  0.0327 -0.1447
43330DOD     C173809  20.081  28.100   5.633  0.0046  0.0799  0.1077
43330DOD     C273810  20.012  28.427   5.274 -0.1880  0.1132 -0.3124
43330DOD     C373811  19.793  28.424   4.820 -0.3009  0.0412  0.1228
43331DOD     C173812   4.034  29.786  29.498 -0.3466  0.0444  0.1841
43331DOD     C273813   3.877  30.023  29.101 -0.5798 -0.0609 -0.4349
43331DOD     C373814   3.846  30.196  28.702  0.0489 -0.1437  0.0235
43332DOD     C173815  20.032  21.064  22.708 -0.0825 -0.1867 -0.0425
43332DOD     C273816  20.145  21.498  22.583  0.5231 -0.4127 -0.4033
43332DOD     C373817  20.022  21.944  22.767 -0.1738  0.2374 -0.0577
43333DOD     C173818  15.839  11.357  16.839  0.0803  0.2745 -0.0277
43333DOD     C273819  15.688  11.208  16.423 -0.1107 -0.1328  0.2268
43333DOD     C373820  15.598  11.312  15.975  0.0060 -0.1092 -0.2458
43334DOD     C173821   4.850  28.907  16.579  0.0929 -0.1891  0.0541
43334DOD     C273822   4.771  29.362  16.451 -0.1218 -0.0299 -0.1377
43334DOD     C373823   4.713  29.835  16.662  0.1244 -0.1082  0.2926
43335DOD     C173824   7.723   6.420  17.150  0.1686 -0.0375  0.0236
43335DOD     C273825   7.395   6.774  17.030  0.1537 -0.0778 -0.1232
43335DOD     C373826   6.980   7.023  16.971  0.1473 -0.0564 -0.1903
43336DOD     C173827  27.400  18.788  21.681  0.2954  0.0446  0.2948
43336DOD     C273828  27.053  19.157  21.735  0.2420  0.0027  0.2542
43336DOD     C373829  26.636  19.020  21.734 -0.0726 -0.1434 -0.1895
43337DOD     C173830  18.267  21.991  25.835  0.0448 -0.2535 -0.0177
43337DOD     C273831  18.715  22.044  25.718  0.0817  0.1126 -0.0602
43337DOD     C373832  19.150  22.214  25.644 -0.0238  0.1045 -0.0699
43338DOD     C173833  29.599   0.548  18.981  0.0635 -0.0359  0.0968
43338DOD     C273834  30.021   0.672  18.943  0.0824 -0.0457 -0.3471
43338DOD     C373835  -0.007   0.752  19.304  0.1436  0.0074 -0.1066
43339DOD     C173836  15.236   0.653  16.338 -0.2529 -0.0930  0.0398
43339DOD     C273837  14.942   0.366  16.508 -0.0411  0.0897  0.1335
43339DOD     C373838  14.539   0.264  16.281 -0.0643  0.1072 -0.0332
43340DOD     C173839  23.859  30.074  10.882  0.1156 -0.3409  0.2169
43340DOD     C273840  23.797  30.270  11.333  0.3364  0.2899 -0.1626
43340DOD     C373841  23.907   0.244  11.627 -0.1862 -0.1616 -0.0353
43341DOD     C173842  24.232  29.496  26.296 -0.1378 -0.1922  0.1434
43341DOD     C273843  23.956  29.833  26.518  0.0137 -0.0485  0.1796
43341DOD     C373844  23.640  29.991  26.844  0.0096 -0.5004 -0.2657
43342DOD     C173845   7.033   2.832  24.851  0.0794  0.0305  0.0566
43342DOD     C273846   7.476   2.736  24.833 -0.2794  0.2893 -0.1384
43342DOD     C373847   7.809   2.516  24.576  0.2771 -0.0369  0.0073
43343DOD     C173848  27.915   8.305   9.646  0.2335 -0.0694 -0.1396
43343DOD     C273849  28.279   8.604   9.633  0.0724 -0.1391 -0.1555
43343DOD     C373850  28.656   8.857   9.741 -0.1418 -0.1175  0.0328
43344DOD     C173851  27.924  22.085   9.939  0.2697 -0.0302 -0.1686
43344DOD     C273852  27.448  21.951   9.890  0.0363  0.0998 -0.2758
43344DOD     C373853  27.105  21.838   9.588 -0.2506 -0.3560 -0.1998
43345DOD     C173854  16.760  14.345   7.506  0.3016 -0.2166 -0.0588
43345DOD     C273855  16.281  14.362   7.647 -0.0815  0.1609 -0.2482
43345DOD     C373856  15.940  14.046   7.724  0.3710 -0.0292 -0.4154
43346DOD     C173857  23.555   0.910   2.911 -0.1462  0.1751 -0.1246
43346DOD     C273858  23.965   1.014   2.990 -0.2607  0.0149 -0.1500
43346DOD     C373859  24.369   1.197   2.806  0.2109 -0.1350  0.3202
43347DOD     C173860   7.435   0.673   4.488  0.2014  0.1429 -0.0145
43347DOD     C273861   7.339   0.989   4.141  0.0978 -0.4026 -0.1234
43347DOD     C373862   7.100   1.043   3.766  0.1254  0.2009  0.0786
43348DOD     C173863  28.284   1.990  19.289 -0.0018  0.1049 -0.2603
43348DOD     C273864  28.537   2.394  19.303  0.2723  0.2051 -0.1761
43348DOD     C373865  28.496   2.770  18.962 -0.1061  0.0718 -0.4417
43349DOD     C173866  23.674   3.642  24.296  0.1211  0.1166 -0.0742
43349DOD     C273867  24.095   3.790  24.486 -0.0331 -0.1877 -0.1169
43349DOD     C373868  24.474   3.930  24.760 -0.0397 -0.0747 -0.2447
43350DOD     C173869  23.002  17.894   1.280  0.0203 -0.1652 -0.0290
43350DOD     C273870  23.400  18.115   1.313  0.2352 -0.2737 -0.2832
43350DOD     C373871  23.583  18.515   1.552 -0.1028  0.0103 -0.0943
43351DOD     C173872   0.392  12.817   0.867  0.0839 -0.0750  0.0469
43351DOD     C273873   0.677  12.446   0.873 -0.0478  0.0975  0.1254
43351DOD     C373874   0.760  12.062   1.127  0.0283  0.3476 -0.3044
43352DOD     C173875  24.863  19.662   4.391 -0.0202  0.0285 -0.2437
43352DOD     C273876  24.408  19.831   4.366 -0.0734  0.2540 -0.1706
43352DOD     C373877  23.983  20.048   4.436  0.1109 -0.2286  0.2205
43353DOD     C173878   9.241  12.237  12.417  0.1957  0.0051  0.0038
43353DOD     C273879   9.444  12.391  12.785 -0.3141  0.0188 -0.0416
43353DOD     C373880   9.589  12.397  13.200 -0.1446 -0.2302 -0.0736
43354DOD     C173881  22.005   9.424  23.900  0.1244 -0.1558  0.0895
43354DOD     C273882  22.415   9.519  23.635 -0.0553  0.3542 -0.0042
43354DOD     C373883  22.593   9.445  23.183  0.0995  0.0848  0.0191
43355DOD     C173884  24.786   1.542  26.805  0.1173 -0.0760  0.1246
43355DOD     C273885  24.754   1.096  26.711 -0.1424  0.0558 -0.0478
43355DOD     C373886  24.887   0.870  26.330  0.0627 -0.1357 -0.2353
43356DOD     C173887  24.071   5.036  19.160  0.0745  0.1603  0.0657
43356DOD     C273888  24.437   4.999  19.447  0.0980  0.0704  0.2370
43356DOD     C373889  24.492   4.832  19.889  0.0957  0.0588 -0.1623
43357DOD     C173890  10.907  19.360   0.952  0.0306 -0.1476  0.2550
43357DOD     C273891  11.271  19.014   0.942 -0.1271 -0.1217  0.1202
43357DOD     C373892  11.448  18.579   1.039 -0.1304 -0.2447 -0.0568
43358DOD     C173893   3.316  14.830  13.251 -0.0825 -0.2331  0.1736
43358DOD     C273894   3.683  15.005  13.334  0.0833 -0.1892  0.1129
43358DOD     C373895   3.984  15.204  13.673  0.1009 -0.0985 -0.1240
43359DOD     C173896  14.256   9.280  21.110  0.1227  0.1136 -0.2783
43359DOD     C273897  14.276   9.264  20.662 -0.2462  0.1599  0.0204
43359DOD     C373898  13.968   9.274  20.317 -0.1150 -0.3585 -0.1529
43360DOD     C173899  13.673  14.322  16.521 -0.0374  0.1203  0.1229
43360DOD     C273900  13.434  14.164  16.125  0.1590 -0.2126 -0.2361
43360DOD     C373901  12.981  14.050  15.932 -0.1694 -0.0156 -0.2136
43361DOD     C173902   9.670  12.496  23.250  0.0580 -0.3231 -0.5883
43361DOD     C273903   9.397  12.094  23.217  0.1046  0.1115 -0.2804
43361DOD     C373904   9.057  11.790  23.193  0.2015 -0.0862 -0.1308
43362DOD     C173905  16.251  21.392  21.878 -0.1656  0.2099 -0.1366
43362DOD     C273906  15.852  21.317  21.823  0.2329 -0.1726  0.0818
43362DOD     C373907  15.478  21.104  21.991  0.2284 -0.0895 -0.2750
43363DOD     C173908  15.784   6.899   8.521  0.0420 -0.0504 -0.1463
43363DOD     C273909  15.743   7.153   8.151 -0.2353  0.2033  0.2991
43363DOD     C373910  15.690   7.592   8.040  0.0273 -0.1274 -0.0269
43364DOD     C173911  27.408   5.194  16.354 -0.1225  0.0811 -0.0106
43364DOD     C273912  27.860   5.177  16.470  0.3028 -0.1581  0.0865
43364DOD     C373913  28.281   5.260  16.691  0.0931 -0.0708 -0.1454
43365DOD     C173914   6.972   6.167   5.546  0.2701 -0.1360  0.3465
43365DOD     C273915   7.056   6.105   5.947  0.0737  0.0646 -0.4144
43365DOD     C373916   6.824   6.359   6.305 -0.0448  0.0583 -0.0374
43366DOD     C173917  29.759  18.159   9.356  0.2972  0.0839 -0.1963
43366DOD     C273918  29.535  17.874   9.617 -0.2726 -0.1615  0.1522
43366DOD     C373919  29.258  17.732   9.977  0.0500 -0.1285 -0.0052
43367DOD     C173920  22.650  27.570  13.155 -0.0050  0.2241  0.1262
43367DOD     C273921  22.877  27.712  12.794  0.2094  0.2620  0.0031
43367DOD     C373922  22.930  27.911  12.400  0.1394 -0.0849  0.1493
43368DOD     C173923   3.800  29.168  26.887  0.3669 -0.3899  0.1332
43368DOD     C273924   3.720  28.995  27.323  0.1000 -0.1975  0.0765
43368DOD     C373925   3.880  29.166  27.738 -0.0084  0.0802  0.1125
43369DOD     C173926  13.869  13.704  10.081 -0.3571  0.0566  0.0652
43369DOD     C273927  13.771  13.242  10.102  0.2699 -0.2444  0.1219
43369DOD     C373928  13.500  12.890   9.943  0.0420 -0.2965 -0.2539
43370DOD     C173929  29.413  11.141  23.700  0.1555 -0.1622  0.2676
43370DOD     C273930  29.375  11.607  23.570  0.0878 -0.0034  0.1145
43370DOD     C373931  29.476  11.843  23.175 -0.2211  0.4820 -0.0878
43371DOD     C173932   5.034   8.390   9.908 -0.0808  0.0513  0.1233
43371DOD     C273933   5.373   8.233   9.565 -0.0646 -0.3921  0.0380
43371DOD     C373934   5.268   8.189   9.135  0.1048 -0.0987  0.1135
43372DOD     C173935  10.133   4.422  14.466 -0.1057  0.2315  0.0674
43372DOD     C273936   9.929   4.026  14.650 -0.1298  0.0352  0.1135
43372DOD     C373937   9.587   3.846  14.861  0.1863  0.2940  0.1854
43373DOD     C173938   6.779  12.993  17.069 -0.1762 -0.0119  0.2713
43373DOD     C273939   7.144  13.302  16.985 -0.1439  0.2396 -0.0924
43373DOD     C373940   7.112  13.568  16.554 -0.3647  0.1754 -0.1369
43374DOD     C173941  17.931  21.664   1.298  0.0240  0.1297  0.1129
43374DOD     C273942  17.556  21.889   1.521 -0.2731 -0.0828 -0.2158
43374DOD     C373943  17.358  22.073   1.956 -0.1140  0.4335 -0.0624
43375DOD     C173944   8.879   2.804  19.705 -0.0631 -0.1880 -0.0884
43375DOD     C273945   8.785   2.617  20.116  0.1557 -0.0071 -0.2422
43375DOD     C373946   8.600   2.222  20.237  0.2597  0.0429 -0.1760
43376DOD     C173947  23.800  19.548  18.119 -0.1781  0.0751  0.1254
43376DOD     C273948  24.160  19.343  18.370 -0.1133 -0.3190  0.1283
43376DOD     C373949  24.315  18.913  18.405 -0.2302  0.1804 -0.2676
43377DOD     C173950  13.551  18.575  14.332  0.1081 -0.0902  0.0003
43377DOD     C273951  13.042  18.551  14.350  0.0111 -0.0682  0.2052
43377DOD     C373952  12.689  18.512  14.626 -0.3025 -0.0011 -0.1638
43378DOD     C173953   7.452   6.422  12.933 -0.3054 -0.1024  0.0468
43378DOD     C273954   7.825   6.620  13.039  0.2365 -0.5289 -0.0277
43378DOD     C373955   7.869   7.038  13.138  0.1582  0.0010 -0.1661
43379DOD     C173956   0.011  15.211   4.248  0.0253  0.2863 -0.5570
43379DOD     C273957  30.153  15.657   4.075 -0.1196  0.3021 -0.0928
43379DOD     C373958  29.852  15.904   3.829 -0.0195  0.1948 -0.2006
43380DOD     C173959   1.754  12.537  18.570  0.2071  0.3171 -0.0897
43380DOD     C273960   1.791  12.072  18.547  0.1120 -0.0517  0.0239
43380DOD     C373961   1.974  11.730  18.806  0.2223  0.0541  0.2624
43381DOD     C173962   5.213  16.122  11.424  0.0973 -0.2398  0.0975
43381DOD     C273963   5.198  15.980  11.867 -0.0604  0.3036  0.0045
43381DOD     C373964   5.201  16.106  12.364 -0.1700  0.1365  0.1669
43382DOD     C173965   2.195   7.653   1.181 -0.0607 -0.0187 -0.0867
43382DOD     C273966   1.799   7.888   1.144  0.1021  0.0493  0.0451
43382DOD     C373967   1.649   8.160   0.817 -0.1794 -0.4503 -0.2016
43383DOD     C173968  14.836  10.545   4.661  0.1036 -0.1736 -0.0817
43383DOD     C273969  15.059  10.476   5.090 -0.3301  0.2709 -0.1056
43383DOD     C373970  15.026  10.663   5.532  0.2179 -0.1348  0.1908
43384DOD     C173971  26.619  25.917  28.917  0.1689  0.0974 -0.0706
43384DOD     C273972  26.398  26.330  29.001  0.2923 -0.1162  0.0794
43384DOD     C373973  26.081  26.415  29.329 -0.0160 -0.2320  0.1713
43385DOD     C173974  12.967   0.046   1.143 -0.0989  0.0629 -0.0470
43385DOD     C273975  12.830  29.965   1.389  0.0346  0.1335 -0.0273
43385DOD     C373976  12.476  29.817   1.606 -0.0736 -0.0412 -0.2592
43386DOD     C173977  25.217  20.566   6.641  0.2295 -0.3349 -0.2066
43386DOD     C273978  24.907  20.687   6.294 -0.0901 -0.0763 -0.0914
43386DOD     C373979  24.482  20.803   6.331 -0.0621  0.1558 -0.0149
43387DOD     C173980  12.516  28.499   8.657  0.0446 -0.0528  0.0001
43387DOD     C273981  12.059  28.571   8.684 -0.1503 -0.0800 -0.2300
43387DOD     C373982  11.775  28.799   8.372  0.2016 -0.1403 -0.2541
43388DOD     C173983  27.773  16.934  18.454 -0.0421 -0.0980  0.3387
43388DOD     C273984  27.465  17.194  18.673 -0.0643 -0.0682 -0.3662
43388DOD     C373985  27.026  17.167  18.618 -0.2780  0.3660 -0.2402
43389DOD     C173986   5.378  19.624  11.941  0.1203 -0.0620  0.2658
43389DOD     C273987   5.577  19.227  12.125 -0.1581  0.1998 -0.1007
43389DOD     C373988   5.762  18.796  12.239  0.0721  0.0727 -0.0126
43390DOD     C173989   5.130   8.321  13.643  0.2235 -0.3153  0.1485
43390DOD     C273990   5.425   8.674  13.608 -0.1124  0.3266  0.0531
43390DOD     C373991   5.613   8.875  13.904 -0.1246 -0.1177  0.2539
43391DOD     C173992  11.529  12.787  26.071 -0.0691 -0.1958 -0.1809
43391DOD     C273993  11.822  13.003  26.371  0.2944  0.0524  0.0541
43391DOD     C373994  11.976  13.415  26.508  0.1126 -0.0405  0.1844
43392DOD     C173995   1.851  17.348  15.905 -0.1022  0.0956  0.2066
43392DOD     C273996   1.962  16.985  16.206  0.2640  0.1516  0.2234
43392DOD     C373997   1.958  16.637  16.514  0.3722  0.3192  0.0151
43393DOD     C173998  19.051  19.669  29.768  0.1270  0.3111 -0.2081
43393DOD     C273999  18.650  19.622  29.478  0.0537 -0.0469  0.1495
43393DOD     C374000  18.241  19.877  29.479  0.1261 -0.3118 -0.1304
43394DOD     C174001  19.815  13.033  28.084 -0.2483  0.1189  0.3318
43394DOD     C274002  19.694  12.717  28.442 -0.2219  0.1546 -0.0114
43394DOD     C374003  19.917  12.576  28.847 -0.2257 -0.0511  0.1886
43395DOD     C174004  22.358   7.157   0.767  0.2024 -0.1007 -0.2620
43395DOD     C274005  22.049   7.028   0.425  0.0778  0.1559 -0.1096
43395DOD     C374006  22.071   6.710   0.054 -0.0596  0.2165  0.2988
43396DOD     C174007  10.594   3.100  13.349 -0.2967 -0.3305  0.0079
43396DOD     C274008  10.599   3.312  13.738 -0.0347 -0.1353 -0.0806
43396DOD     C374009  10.493   3.716  13.950 -0.0301  0.1389  0.1035
43397DOD     C174010  17.056  25.972   5.134  0.2304 -0.0349 -0.0247
43397DOD     C274011  17.444  25.703   5.003  0.0048  0.1806  0.2122
43397DOD     C374012  17.940  25.772   5.084 -0.0158 -0.0325  0.0818
43398DOD     C174013  21.352  12.690  24.151  0.0183  0.0037  0.0039
43398DOD     C274014  21.086  12.589  24.502 -0.1183 -0.2994  0.1184
43398DOD     C374015  21.136  12.253  24.797 -0.1881 -0.4324 -0.1715
43399DOD     C174016  29.754  21.848  10.451 -0.1137  0.4616 -0.0828
43399DOD     C274017  29.297  21.889  10.413 -0.2427 -0.1943 -0.1186
43399DOD     C374018  28.899  21.935  10.207  0.0092  0.0240  0.0798
43400DOD     C174019  23.283  22.393  18.672 -0.0419  0.1074 -0.1613
43400DOD     C274020  23.586  22.710  18.873 -0.1109 -0.0061 -0.0134
43400DOD     C374021  23.768  23.081  18.969 -0.3537 -0.0604  0.1627
43401DOD     C174022  21.742   1.333  18.559 -0.3615  0.3606 -0.1782
43401DOD     C274023  21.508   0.920  18.521 -0.2703  0.1949  0.0929
43401DOD     C374024  21.185   0.555  18.405 -0.2007 -0.1086  0.2587
43402DOD     C174025  28.058  25.565   1.069 -0.3320 -0.0153 -0.3961
43402DOD     C274026  27.668  25.418   1.051 -0.0045 -0.1774  0.1351
43402DOD     C374027  27.260  25.333   1.192  0.0241  0.0274 -0.1171
43403DOD     C174028  13.822  14.955  18.349 -0.2290  0.1788 -0.0375
43403DOD     C274029  13.683  15.169  18.738  0.1490  0.0448 -0.0961
43403DOD     C374030  13.972  15.095  19.125  0.1321  0.1871 -0.1525
43404DOD     C174031  12.649  15.860   3.849  0.1094 -0.0873  0.0986
43404DOD     C274032  12.835  15.783   3.384 -0.2379 -0.1269  0.1361
43404DOD     C374033  13.031  15.522   3.024 -0.2612 -0.0722 -0.1522
43405DOD     C174034  28.517  17.578  24.873  0.1082  0.2479  0.2792
43405DOD     C274035  28.838  17.520  25.233  0.0397 -0.0359  0.0793
43405DOD     C374036  29.282  17.515  25.267 -0.2185 -0.0588 -0.0832
43406DOD     C174037  14.897   6.341  19.867 -0.0020 -0.0304 -0.3590
43406DOD     C274038  15.265   6.248  20.072 -0.1439  0.0687 -0.3303
43406DOD     C374039  15.714   6.070  20.163  0.1262 -0.2975  0.0163
43407DOD     C174040   9.614   2.225  22.784 -0.1691 -0.0157 -0.0712
43407DOD     C274041   9.561   2.698  22.527  0.0673 -0.1141 -0.0156
43407DOD     C374042   9.478   3.181  22.442  0.0725 -0.0131 -0.1099
43408DOD     C174043   6.820  28.864  23.795 -0.1586  0.1306 -0.2584
43408DOD     C274044   6.961  29.311  23.844  0.0555  0.0374  0.3644
43408DOD     C374045   7.305  29.612  23.969  0.0038  0.0446  0.2372
43409DOD     C174046  12.781  24.749  23.438 -0.0527  0.0095  0.2233
43409DOD     C274047  12.683  25.205  23.498 -0.0899  0.1081  0.3084
43409DOD     C374048  12.724  25.643  23.306  0.0127  0.0323 -0.0208
43410DOD     C174049   5.604  17.401   8.455 -0.1453  0.0626 -0.1197
43410DOD     C274050   5.874  17.638   8.745  0.0211 -0.2317  0.1269
43410DOD     C374051   6.269  17.758   9.015 -0.1754 -0.2263 -0.1503
43411DOD     C174052   6.358   5.181  27.131 -0.2266  0.1036 -0.0233
43411DOD     C274053   5.976   5.261  26.850 -0.0947 -0.0954  0.0418
43411DOD     C374054   5.621   5.144  26.537 -0.0217 -0.3254 -0.1095
43412DOD     C174055  12.132  11.405  18.880  0.0726 -0.0636 -0.0874
43412DOD     C274056  12.262  11.830  18.689  0.0137 -0.2328 -0.1615
43412DOD     C374057  12.290  12.051  18.287  0.0109 -0.2125 -0.0841
43413DOD     C174058   1.257  20.344  15.749  0.1486  0.1379 -0.1652
43413DOD     C274059   1.320  20.278  16.209 -0.0228  0.0341 -0.1914
43413DOD     C374060   1.435  20.628  16.513  0.2002  0.1509  0.1635
43414DOD     C174061  17.048  23.592   6.058  0.1372 -0.1436  0.2023
43414DOD     C274062  16.687  23.279   6.012  0.3152 -0.2297 -0.1902
43414DOD     C374063  16.365  23.087   5.790 -0.2467 -0.0937 -0.1695
43415DOD     C174064  19.825  29.502  12.430 -0.0529  0.0161  0.0102
43415DOD     C274065  19.685  29.955  12.620 -0.0245  0.2615 -0.0516
43415DOD     C374066  19.766   0.046  12.601 -0.0849 -0.1995  0.0287
43416DOD     C174067   0.040   2.448   6.019  0.0419  0.2192  0.2744
43416DOD     C274068   0.214   2.096   5.710 -0.0572 -0.1793 -0.0020
43416DOD     C374069   0.485   1.732   5.658 -0.1904  0.2902 -0.0695
43417DOD     C174070  28.676  11.405   7.713  0.1358 -0.0135  0.0957
43417DOD     C274071  28.300  11.729   7.603 -0.2059  0.0956  0.1210
43417DOD     C374072  28.071  11.909   7.208 -0.0132 -0.2988 -0.1794
43418DOD     C174073  22.322  24.264   3.211 -0.1323 -0.1270 -0.0808
43418DOD     C274074  22.550  24.560   3.429 -0.3116 -0.0339 -0.1041
43418DOD     C374075  22.731  24.432   3.866  0.0598 -0.0815  0.0283
43419DOD     C174076  20.278  23.857  22.248  0.2088 -0.3485  0.2760
43419DOD     C274077  20.577  23.803  22.556 -0.0656  0.0019 -0.0841
43419DOD     C374078  20.618  23.515  22.928  0.4158  0.0947 -0.0314
43420DOD     C174079   3.484   7.673  19.245  0.2779  0.0303 -0.5862
43420DOD     C274080   3.377   8.115  19.290 -0.0367  0.2917 -0.2321
43420DOD     C374081   3.086   8.277  19.606  0.1098  0.0004  0.3955
43421DOD     C174082   7.967  15.273  26.265  0.0371  0.1406  0.1096
43421DOD     C274083   7.691  15.358  25.901  0.0049 -0.1580  0.0860
43421DOD     C374084   7.306  15.537  25.693  0.1148 -0.0529  0.3211
43422DOD     C174085   0.761   7.593  10.589 -0.1273  0.0180 -0.1769
43422DOD     C274086   0.721   7.125  10.621 -0.0600 -0.3085 -0.0596
43422DOD     C374087   0.583   6.647  10.601  0.3104 -0.0578  0.3397
43423DOD     C174088  14.522  29.318   5.107  0.0328  0.4043  0.1781
43423DOD     C274089  14.777  29.288   4.735  0.0672  0.2548 -0.1624
43423DOD     C374090  15.183  29.154   4.654 -0.3395 -0.0616 -0.0680
43424DOD     C174091   6.856  17.321   8.490  0.4139 -0.1104  0.0182
43424DOD     C274092   6.641  17.255   8.063 -0.2984 -0.0053  0.1698
43424DOD     C374093   6.416  17.016   7.682 -0.1321  0.0425  0.0412
43425DOD     C174094  26.287  25.257  13.031 -0.1751  0.1443  0.2854
43425DOD     C274095  26.331  25.311  12.566 -0.0385 -0.4062  0.0395
43425DOD     C374096  26.513  25.485  12.145  0.0021  0.0747  0.2930
43426DOD     C174097  13.216  21.564  14.815 -0.1571 -0.1322  0.2912
43426DOD     C274098  13.309  21.659  14.366  0.0827  0.1242 -0.1548
43426DOD     C374099  13.332  21.654  13.867 -0.1838 -0.2686 -0.0273
43427DOD     C174100  25.293  18.642  12.999 -0.0184  0.1077 -0.1638
43427DOD     C274101  25.108  18.616  12.547 -0.0926  0.0204 -0.3793
43427DOD     C374102  24.779  18.815  12.267 -0.1843 -0.1304  0.1791
43428DOD     C174103  25.964  17.570  10.281 -0.0409  0.1752  0.0776
43428DOD     C274104  25.972  17.384  10.691 -0.3310  0.1107  0.4283
43428DOD     C374105  26.176  17.113  11.023 -0.0400 -0.1112 -0.0209
43429DOD     C174106   2.537  28.419  24.119  0.1293  0.0598 -0.0341
43429DOD     C274107   2.811  28.816  24.153  0.1886  0.1453 -0.2028
43429DOD     C374108   2.822  29.199  24.353  0.2464 -0.0481 -0.1170
43430DOD     C174109   0.902  10.505   0.789  0.1034 -0.0928 -0.1434
43430DOD     C274110   1.030  10.483   1.229  0.1476 -0.0240 -0.0187
43430DOD     C374111   1.060  10.281   1.595  0.2925  0.2761  0.2543
43431DOD     C174112  24.682  18.477   6.058 -0.0770  0.1723 -0.0408
43431DOD     C274113  24.809  18.767   5.780  0.1693 -0.0739  0.1820
43431DOD     C374114  24.946  19.034   5.389  0.0566  0.0409 -0.1520
43432DOD     C174115   5.289  15.764  25.401 -0.4826  0.2581 -0.3175
43432DOD     C274116   5.208  15.467  25.798  0.3667  0.2106  0.1253
43432DOD     C374117   4.853  15.184  26.027 -0.0456  0.1131  0.0550
43433DOD     C174118  21.612  11.552   2.500 -0.0679  0.2343  0.0752
43433DOD     C274119  21.334  11.902   2.658 -0.0521 -0.2650 -0.0753
43433DOD     C374120  21.171  12.289   2.774 -0.0212 -0.0941  0.0877
43434DOD     C174121   1.092   9.892  18.660  0.0612 -0.2588  0.0673
43434DOD     C274122   0.765  10.115  18.471 -0.1908  0.2079  0.1667
43434DOD     C374123   0.262  10.124  18.340 -0.2326 -0.2389 -0.0250
43435DOD     C174124   0.899   7.200  22.818  0.1865 -0.1156  0.0951
43435DOD     C274125   0.852   7.396  22.417  0.0877  0.1215 -0.1642
43435DOD     C374126   0.632   7.431  22.011 -0.1862  0.0216  0.1242
43436DOD     C174127  15.852  29.349  13.617  0.0608 -0.0092 -0.0554
43436DOD     C274128  15.873  28.898  13.635 -0.1084  0.0515  0.0128
43436DOD     C374129  15.680  28.490  13.808  0.0542 -0.0206 -0.1123
43437DOD     C174130  25.483   8.746  12.219 -0.4421  0.1178 -0.2063
43437DOD     C274131  25.267   8.268  12.240 -0.0757  0.0283 -0.3473
43437DOD     C374132  25.262   7.837  12.158  0.1799 -0.0049  0.0763
43438DOD     C174133  13.869  13.885   9.463 -0.0408 -0.3090 -0.1808
43438DOD     C274134  13.655  14.236   9.295  0.0783  0.1312 -0.0490
43438DOD     C374135  13.862  14.680   9.361 -0.1956  0.1071 -0.0728
43439DOD     C174136   3.548  22.669  12.258 -0.3348 -0.1750  0.0504
43439DOD     C274137   3.159  22.895  12.192 -0.2839 -0.2044 -0.1484
43439DOD     C374138   2.720  22.790  12.295 -0.0481 -0.1155 -0.0579
43440DOD     C174139  12.968   8.448  22.458  0.0055 -0.1880  0.3442
43440DOD     C274140  12.975   7.962  22.405 -0.0878  0.2182  0.0911
43440DOD     C374141  13.200   7.685  22.733 -0.1974  0.1229 -0.0234
43441DOD     C174142  17.438   6.039   4.544 -0.0355  0.1861 -0.0330
43441DOD     C274143  17.424   6.472   4.659 -0.1083 -0.1987 -0.1437
43441DOD     C374144  17.264   6.807   4.966  0.1326  0.1595 -0.1123
43442DOD     C174145  14.754  11.466  10.441  0.0269  0.1861  0.0477
43442DOD     C274146  14.321  11.387  10.346  0.0581  0.3058  0.1663
43442DOD     C374147  14.087  11.423   9.953 -0.3804  0.1134  0.1285
43443DOD     C174148   7.644  30.013  19.504 -0.5349  0.0690  0.0618
43443DOD     C274149   7.724  30.197  19.860 -0.0417 -0.4421 -0.0765
43443DOD     C374150   7.997   0.245  19.966 -0.0538  0.3829  0.1422
43444DOD     C174151  24.807  15.759  22.366 -0.1591  0.0606  0.0281
43444DOD     C274152  24.943  15.475  22.718  0.0373 -0.0187 -0.1754
43444DOD     C374153  25.266  15.424  23.058  0.1129 -0.0281 -0.0705
43445DOD     C174154  18.380  10.298  24.037  0.2018  0.1306  0.0845
43445DOD     C274155  18.688  10.326  24.389  0.2189  0.0325 -0.2724
43445DOD     C374156  18.835  10.249  24.832 -0.3210  0.1330  0.1031
43446DOD     C174157  16.542   6.619   9.679 -0.1576  0.1597  0.0822
43446DOD     C274158  16.504   6.846  10.103 -0.1484  0.2134  0.0901
43446DOD     C374159  16.327   6.989  10.532  0.1058 -0.1640  0.1673
43447DOD     C174160  18.319  28.070   1.734  0.1267 -0.0203 -0.0470
43447DOD     C274161  18.285  28.292   2.140 -0.0226  0.0394  0.1495
43447DOD     C374162  18.116  28.645   2.411  0.0517 -0.1121 -0.0679
43448DOD     C174163  19.448   2.293   4.106 -0.0468 -0.0512  0.0561
43448DOD     C274164  19.705   2.033   3.872  0.0549 -0.1470  0.0390
43448DOD     C374165  19.632   2.027   3.428 -0.0217  0.0393  0.2084
43449DOD     C174166  12.857   6.299  18.031 -0.0843 -0.1829  0.0761
43449DOD     C274167  12.975   6.152  17.606  0.1550  0.1424 -0.0321
43449DOD     C374168  12.971   6.130  17.121 -0.0315 -0.1250  0.0354
43450DOD     C174169  22.345  19.568  19.797 -0.1632 -0.2772  0.1401
43450DOD     C274170  22.091  19.196  19.926 -0.0346 -0.1200  0.0319
43450DOD     C374171  21.849  18.803  19.845  0.2517 -0.4378  0.1773
43451DOD     C174172   1.259  22.308  25.741  0.1540 -0.0091 -0.1875
43451DOD     C274173   0.955  21.959  26.044  0.1763 -0.5200  0.1640
43451DOD     C374174   0.932  21.685  26.417 -0.0676  0.1161 -0.1937
43452DOD     C174175  16.764  22.188   6.806  0.0885 -0.4398  0.0229
43452DOD     C274176  17.078  22.326   7.173 -0.0189 -0.1367 -0.0472
43452DOD     C374177  17.189  22.761   7.356  0.2140 -0.0368 -0.0257
43453DOD     C174178  24.920   3.690   0.067  0.0210  0.1637 -0.2852
43453DOD     C274179  25.402   3.827  30.289  0.3143 -0.3649  0.0313
43453DOD     C374180  25.862   4.062  30.145 -0.0328 -0.4494 -0.1216
43454DOD     C174181  15.050  25.497   1.552 -0.0550  0.0602 -0.3049
43454DOD     C274182  14.897  25.905   1.683  0.0867 -0.1109 -0.1625
43454DOD     C374183  14.588  26.285   1.743 -0.0899  0.1437 -0.3475
43455DOD     C174184   1.111  12.603  10.180 -0.1007 -0.0587 -0.3912
43455DOD     C274185   0.857  12.978  10.149  0.1806 -0.2616 -0.2228
43455DOD     C374186   0.960  13.327   9.844  0.1503  0.2414  0.3302
43456DOD     C174187  10.603   1.228  27.054 -0.0132  0.1038  0.1182
43456DOD     C274188  10.164   1.213  27.028 -0.0932 -0.2076  0.2211
43456DOD     C374189   9.898   1.585  27.180 -0.1889  0.0984 -0.0855
43457DOD     C174190  10.564  28.966   6.790  0.3721  0.1786  0.1267
43457DOD     C274191  10.637  28.861   7.257  0.1327  0.0341  0.2709
43457DOD     C374192  10.796  28.689   7.654 -0.1281  0.0534 -0.1399
43458DOD     C174193  21.289  24.394  10.988  0.6062  0.0635  0.0208
43458DOD     C274194  21.102  24.378  10.558  0.2353 -0.0439  0.2243
43458DOD     C374195  20.763  24.220  10.208 -0.1526  0.0537 -0.2459
43459DOD     C174196  18.888  16.505  27.779 -0.1092  0.0121 -0.0090
43459DOD     C274197  18.882  16.257  28.232 -0.1666  0.0300 -0.0258
43459DOD     C374198  19.079  15.915  28.500 -0.0611  0.0459 -0.5723
43460DOD     C174199   8.221  14.798   6.477 -0.3939  0.2817  0.1991
43460DOD     C274200   8.085  15.036   6.122 -0.0613  0.1513  0.0446
43460DOD     C374201   7.684  15.220   5.915 -0.0821  0.0555 -0.3016
43461DOD     C174202  25.834  18.357  22.597 -0.0097 -0.1604  0.0951
43461DOD     C274203  25.435  18.129  22.485 -0.3698 -0.1011 -0.1051
43461DOD     C374204  25.023  18.023  22.649 -0.2624  0.1666 -0.0200
43462DOD     C174205  17.228  22.882  21.497  0.2230 -0.0013  0.0624
43462DOD     C274206  17.635  22.764  21.781  0.0830  0.1651  0.1060
43462DOD     C374207  17.901  22.568  22.103 -0.1575  0.0932  0.1885
43463DOD     C174208   7.952   6.079  12.159 -0.1079 -0.1775  0.2914
43463DOD     C274209   8.168   6.342  11.795 -0.0370  0.4172  0.1042
43463DOD     C374210   8.463   6.793  11.713  0.1949 -0.0128  0.0849
43464DOD     C174211  16.517  29.316   5.948  0.0062 -0.1196  0.4198
43464DOD     C274212  16.327  28.919   6.173  0.2282  0.2955  0.1195
43464DOD     C374213  16.444  28.670   6.566 -0.1021 -0.0744  0.2036
43465DOD     C174214  16.193  16.840  10.558 -0.1025 -0.0321  0.1405
43465DOD     C274215  16.456  16.519  10.831 -0.0752 -0.1897  0.1288
43465DOD     C374216  16.389  16.275  11.176 -0.1378  0.1585 -0.2407
43466DOD     C174217  14.383  20.664  10.952  0.0552  0.2015  0.0898
43466DOD     C274218  14.063  20.790  10.617  0.4152  0.1538 -0.2539
43466DOD     C374219  13.772  21.064  10.347  0.5014  0.1047  0.3157
43467DOD     C174220  17.200   7.732   2.469 -0.2026 -0.2332  0.0126
43467DOD     C274221  16.753   7.657   2.544  0.1707 -0.1334 -0.2346
43467DOD     C374222  16.432   7.312   2.639  0.2825  0.0623  0.0333
43468DOD     C174223   4.868  22.600  13.685  0.2292 -0.0834  0.0226
43468DOD     C274224   5.311  22.817  13.855 -0.2372 -0.2429  0.2093
43468DOD     C374225   5.685  22.980  14.058 -0.1705 -0.1053  0.0661
43469DOD     C174226   3.111  18.267  18.115  0.2026 -0.1512 -0.0110
43469DOD     C274227   3.164  18.738  18.183  0.1107  0.1796  0.4447
43469DOD     C374228   2.880  19.091  18.352 -0.0928 -0.3437  0.1143
43470DOD     C174229  29.598   1.016  12.188  0.1755  0.1036  0.1302
43470DOD     C274230  29.737   1.137  12.637 -0.4111  0.1557  0.1198
43470DOD     C374231  29.646   1.101  13.121  0.1856  0.1430  0.1331
43471DOD     C174232  12.945  30.371  16.435  0.0112  0.2013 -0.1059
43471DOD     C274233  13.318   0.236  16.638 -0.0211 -0.1777 -0.0593
43471DOD     C374234  13.752   0.345  16.824  0.1287  0.1527  0.0445
43472DOD     C174235   0.901  17.174  12.234 -0.2952  0.2522  0.1146
43472DOD     C274236   0.568  17.510  12.194  0.0970  0.2774  0.1940
43472DOD     C374237   0.564  17.870  11.846  0.0245 -0.0995 -0.1210
43473DOD     C174238  19.499  13.559   4.423 -0.2205 -0.0090 -0.0501
43473DOD     C274239  19.130  13.709   4.190  0.0559  0.1512  0.2262
43473DOD     C374240  19.181  13.931   3.775 -0.2158 -0.3612 -0.1055
43474DOD     C174241  15.108  16.031  25.898 -0.0348  0.1030 -0.3588
43474DOD     C274242  15.481  15.845  25.807  0.0312  0.1933 -0.1971
43474DOD     C374243  15.796  15.560  25.941 -0.0798  0.0629  0.0843
43475DOD     C174244  26.367   8.896  22.859 -0.1085  0.1346  0.0248
43475DOD     C274245  26.109   8.922  23.204 -0.0616 -0.0856 -0.0535
43475DOD     C374246  25.694   9.110  23.369  0.1015  0.2069  0.0338
43476DOD     C174247   8.440   4.483  29.521 -0.3101 -0.0424  0.2094
43476DOD     C274248   8.833   4.318  29.625  0.5590 -0.0374  0.3683
43476DOD     C374249   9.262   4.177  29.600 -0.1465 -0.1526 -0.1432
43477DOD     C174250  13.416   7.981  10.204  0.2309 -0.3210 -0.1348
43477DOD     C274251  13.322   8.338  10.455 -0.1246 -0.2829  0.3026
43477DOD     C374252  13.125   8.741  10.510  0.1350 -0.0960 -0.0003
43478DOD     C174253  13.074  27.043  22.125  0.4015  0.1257  0.3783
43478DOD     C274254  12.918  27.411  22.318  0.1812 -0.2705  0.0926
43478DOD     C374255  12.477  27.478  22.496  0.1635  0.0317  0.2374
43479DOD     C174256  14.204   8.216  10.215  0.2023 -0.1054 -0.1352
43479DOD     C274257  14.072   7.740  10.174  0.2904 -0.0931 -0.1581
43479DOD     C374258  13.913   7.266  10.289  0.3444 -0.0227  0.1665
43480DOD     C174259  20.652   8.812  26.891 -0.2356  0.1048 -0.3737
43480DOD     C274260  20.541   8.959  27.338 -0.0850 -0.3820  0.0730
43480DOD     C374261  20.277   9.238  27.568  0.0742 -0.0830 -0.1532
43481DOD     C174262   0.161   3.647   3.342 -0.2331 -0.0871 -0.0707
43481DOD     C274263   0.127   3.207   3.225 -0.2405  0.0347 -0.0905
43481DOD     C374264  30.201   2.917   2.986  0.0627  0.3802 -0.2649
43482DOD     C174265   8.378  29.533   3.632  0.0181 -0.0499  0.0281
43482DOD     C274266   8.423  29.160   3.351  0.0477 -0.0203  0.1481
43482DOD     C374267   8.613  29.031   2.911  0.2225  0.1929  0.1844
43483DOD     C174268   9.521  29.926  17.826  0.0161  0.3664  0.1262
43483DOD     C274269   9.287  29.663  18.054  0.1961  0.3368 -0.1289
43483DOD     C374270   9.272  29.286  18.294 -0.0625  0.0385 -0.1004
43484DOD     C174271   2.909   1.154   6.055 -0.0233  0.5359  0.0694
43484DOD     C274272   2.990   0.646   5.964  0.0012 -0.3544 -0.0987
43484DOD     C374273   2.812   0.341   6.165 -0.0786  0.0841  0.0798
43485DOD     C174274   5.850  14.845  23.894  0.0074  0.1102  0.3176
43485DOD     C274275   6.121  14.587  24.134  0.2866  0.0073  0.0628
43485DOD     C374276   6.421  14.454  24.490 -0.0096  0.0134 -0.1862
43486DOD     C174277  20.431   4.462  14.825 -0.2859  0.0694 -0.1635
43486DOD     C274278  20.615   3.983  14.913  0.1815  0.0874 -0.2408
43486DOD     C374279  20.843   3.663  15.102 -0.0869  0.2928 -0.0869
43487DOD     C174280   9.043   3.543   5.740  0.1168 -0.0489  0.4516
43487DOD     C274281   9.253   3.129   5.868 -0.2527 -0.0494  0.0812
43487DOD     C374282   9.668   2.922   5.912  0.0807  0.0721 -0.0866
43488DOD     C174283   4.283   4.084  14.862 -0.0154  0.2400  0.2796
43488DOD     C274284   4.447   4.343  14.525 -0.1679 -0.0629 -0.2048
43488DOD     C374285   4.488   4.210  14.088 -0.0619 -0.1558  0.4073
43489DOD     C174286   1.681  18.408   3.203  0.0336  0.0563 -0.3299
43489DOD     C274287   2.130  18.488   2.995 -0.0252  0.0532  0.1145
43489DOD     C374288   2.596  18.419   2.860  0.3170  0.0437 -0.0670
43490DOD     C174289  11.587   3.656  10.160  0.2153 -0.0158 -0.2414
43490DOD     C274290  11.184   3.622   9.989 -0.2427  0.0767 -0.0680
43490DOD     C374291  11.056   3.219   9.839 -0.1106 -0.2898  0.1460
43491DOD     C174292  15.717  27.156   1.059 -0.0346 -0.1674 -0.4189
43491DOD     C274293  15.439  27.027   0.725  0.1921  0.1301 -0.1352
43491DOD     C374294  15.460  26.643   0.517  0.1041  0.0560 -0.2431
43492DOD     C174295   3.310  17.177  22.117  0.0479 -0.2305 -0.1840
43492DOD     C274296   3.126  17.667  22.268  0.0055 -0.0954  0.2645
43492DOD     C374297   2.873  17.766  22.643  0.1223 -0.0270  0.0388
43493DOD     C174298  19.760  15.582  20.793  0.1424  0.2100 -0.1468
43493DOD     C274299  19.655  15.928  20.473  0.1747 -0.2296 -0.0415
43493DOD     C374300  19.330  16.179  20.266  0.1461  0.1519 -0.1445
43494DOD     C174301  26.418  26.936  13.294 -0.2811  0.0568 -0.0577
43494DOD     C274302  26.452  26.819  12.839  0.0169 -0.1247 -0.2520
43494DOD     C374303  26.092  26.573  12.723 -0.1687 -0.0824 -0.3144
43495DOD     C174304  13.647   7.601   9.040 -0.1585  0.4117 -0.4375
43495DOD     C274305  13.306   7.805   9.326 -0.1229  0.2396  0.0153
43495DOD     C374306  13.401   8.117   9.677 -0.2036  0.1399  0.1182
43496DOD     C174307   6.574  22.082   2.863  0.1841  0.1530 -0.0922
43496DOD     C274308   6.468  22.049   3.307 -0.1033 -0.1134  0.1712
43496DOD     C374309   6.624  21.913   3.703  0.0148  0.0943  0.0294
43497DOD     C174310   3.992  12.731  24.157  0.0540 -0.2272  0.1682
43497DOD     C274311   3.792  12.361  24.095 -0.1166 -0.1044  0.2422
43497DOD     C374312   3.673  11.881  24.130 -0.1739  0.0803 -0.1500
43498DOD     C174313  19.102   7.196   6.794 -0.0776  0.1597 -0.2146
43498DOD     C274314  18.638   7.224   6.799 -0.2756 -0.3080  0.1194
43498DOD     C374315  18.346   7.048   7.091  0.0533  0.1033  0.3591
43499DOD     C174316  27.167  27.760   1.614 -0.1331 -0.0455 -0.1540
43499DOD     C274317  26.808  27.685   1.906  0.0064 -0.1971  0.0032
43499DOD     C374318  26.543  27.428   2.139  0.0850 -0.2550 -0.1127
43500DOD     C174319  19.273  13.712  18.027 -0.0990 -0.2683 -0.0299
43500DOD     C274320  19.628  13.539  18.175 -0.3219  0.1747 -0.0801
43500DOD     C374321  20.101  13.451  18.305 -0.1085  0.2223 -0.0080
43501DOD     C174322  18.983  28.933  15.944 -0.0361  0.1735 -0.0667
43501DOD     C274323  18.926  28.613  16.253 -0.1395  0.1753 -0.1397
43501DOD     C374324  19.038  28.146  16.252  0.2470 -0.4179 -0.0590
43502DOD     C174325  30.281   3.687  30.124  0.0368 -0.0269 -0.0793
43502DOD     C274326   0.166   3.961   0.122  0.3420 -0.1389  0.0323
43502DOD     C374327  30.279   4.309   0.404  0.1448  0.1833 -0.1015
43503DOD     C174328  15.650  25.383  18.656 -0.1887 -0.2062  0.1935
43503DOD     C274329  16.119  25.348  18.655  0.1274 -0.0563 -0.0621
43503DOD     C374330  16.638  25.350  18.682  0.2378 -0.0139  0.1450
43504DOD     C174331  26.739  22.817  20.780 -0.0642 -0.0928 -0.3060
43504DOD     C274332  26.761  23.137  21.121 -0.2527  0.1529 -0.2278
43504DOD     C374333  26.814  23.554  21.348 -0.0390 -0.0032  0.1672
43505DOD     C174334  17.977   0.672  24.930  0.2798  0.2920 -0.1005
43505DOD     C274335  18.107   1.126  24.903  0.3967  0.0935  0.3415
43505DOD     C374336  18.307   1.508  24.682  0.2019 -0.2722  0.0579
43506DOD     C174337  29.732  18.263  24.063 -0.1809 -0.0070 -0.2160
43506DOD     C274338  29.485  18.495  24.345 -0.2159 -0.1278 -0.0482
43506DOD     C374339  29.242  18.666  24.704 -0.2002 -0.0369 -0.4790
43507DOD     C174340  26.972  18.314   5.395  0.1826 -0.1646 -0.0578
43507DOD     C274341  27.256  18.564   5.152 -0.0532  0.0745  0.1213
43507DOD     C374342  27.602  18.752   5.224  0.3282 -0.0837  0.2029
43508DOD     C174343   1.332  16.299  24.207  0.2218  0.5788 -0.1278
43508DOD     C274344   1.770  16.538  24.295 -0.0711  0.0376 -0.1808
43508DOD     C374345   2.035  16.578  24.735  0.4115  0.1861 -0.0095
43509DOD     C174346   3.651   8.201  23.979 -0.0913  0.2914  0.0977
43509DOD     C274347   3.437   7.837  23.734 -0.2733 -0.1262 -0.0319
43509DOD     C374348   3.197   7.491  23.524  0.2112 -0.2225  0.0418
43510DOD     C174349   8.982   5.183  22.141 -0.2252 -0.3747 -0.0693
43510DOD     C274350   8.782   4.796  22.005  0.0201  0.0042  0.2957
43510DOD     C374351   8.582   4.373  21.850 -0.2007 -0.2483  0.2903
43511DOD     C174352  30.290   3.441  18.707  0.5310 -0.1052  0.2121
43511DOD     C274353   0.413   3.172  18.640  0.1070 -0.0175  0.0039
43511DOD     C374354   0.709   2.826  18.715  0.0461 -0.1267  0.0333
43512DOD     C174355  12.681  18.105  25.855 -0.0654 -0.2746 -0.2438
43512DOD     C274356  12.902  18.296  26.196  0.1125 -0.2142  0.1717
43512DOD     C374357  12.921  18.400  26.668  0.1825  0.1901  0.0126
43513DOD     C174358  26.173   0.381  14.926 -0.1000 -0.3300  0.0808
43513DOD     C274359  26.485   0.057  15.136  0.2121  0.2365  0.0792
43513DOD     C374360  26.875  -0.003  15.375  0.2085 -0.0207 -0.2508
43514DOD     C174361   9.661  16.090  20.489 -0.1330  0.0243  0.0060
43514DOD     C274362   9.812  16.283  20.097 -0.2367  0.0851 -0.2385
43514DOD     C374363   9.974  16.699  19.872 -0.0879  0.1475  0.0041
43515DOD     C174364  24.386  26.066   2.628  0.3225 -0.1903  0.1011
43515DOD     C274365  24.275  25.842   2.992  0.3534  0.1648  0.1168
43515DOD     C374366  24.131  25.380   2.987  0.0838  0.2139  0.0376
43516DOD     C174367  19.906   6.710  27.239 -0.0932 -0.2148  0.1362
43516DOD     C274368  19.637   6.707  27.633 -0.0677 -0.3264  0.2140
43516DOD     C374369  19.370   7.041  27.853  0.4605  0.1800 -0.1549
43517DOD     C174370  23.882   3.524  29.572 -0.2102  0.1886  0.2604
43517DOD     C274371  23.535   3.324  29.863  0.0203  0.2225 -0.0346
43517DOD     C374372  23.207   3.079  29.746 -0.2014 -0.1766 -0.1505
43518DOD     C174373  12.823  13.160  10.076  0.0799  0.0045  0.2866
43518DOD     C274374  13.071  13.141   9.694  0.0240  0.0246  0.4022
43518DOD     C374375  12.936  13.202   9.287 -0.0747 -0.1471 -0.0617
43519DOD     C174376  20.564   3.813   5.687 -0.0787 -0.2055 -0.0501
43519DOD     C274377  20.394   4.148   5.892  0.0218 -0.0370  0.0500
43519DOD     C374378  19.974   4.227   5.895  0.1000 -0.2183 -0.2373
43520DOD     C174379  11.496   2.171  19.966  0.0115 -0.1810  0.1546
43520DOD     C274380  11.495   1.735  19.896  0.0050  0.0526  0.0159
43520DOD     C374381  11.681   1.330  19.767  0.2903  0.1233  0.0648
43521DOD     C174382  13.300   0.224   7.366 -0.1707  0.1479 -0.2795
43521DOD     C274383  12.837   0.010   7.368  0.2048 -0.1525 -0.0023
43521DOD     C374384  12.537  30.022   7.252  0.1401  0.0231 -0.0676
43522DOD     C174385   6.148  18.382  24.940 -0.1714  0.2559  0.0387
43522DOD     C274386   6.210  18.065  24.615 -0.4151  0.2152  0.0032
43522DOD     C374387   6.331  17.682  24.412 -0.0577 -0.2625 -0.2372
43523DOD     C174388   4.079   0.598   5.045  0.0755 -0.2123 -0.0167
43523DOD     C274389   4.492   0.646   4.794  0.0148 -0.0380  0.1341
43523DOD     C374390   4.787   0.652   4.419  0.3211  0.3001 -0.1685
43524DOD     C174391  14.293  18.297   3.200 -0.0806  0.2177  0.2426
43524DOD     C274392  14.383  17.866   3.279  0.0936  0.0265  0.4341
43524DOD     C374393  14.101  17.474   3.194  0.0719  0.1733  0.0047
43525DOD     C174394   9.868  29.092  23.539 -0.0770  0.1684  0.1394
43525DOD     C274395   9.691  29.491  23.562  0.0691  0.1983  0.0727
43525DOD     C374396   9.308  29.695  23.374 -0.3319 -0.1004  0.0082
43526DOD     C174397  19.707   1.927  14.308 -0.1140 -0.1364  0.3560
43526DOD     C274398  19.736   2.282  14.567 -0.4184 -0.2498  0.2194
43526DOD     C374399  19.572   2.700  14.512 -0.3738 -0.4068  0.1120
43527DOD     C174400  20.993  27.198   7.445  0.0618 -0.2612  0.2715
43527DOD     C274401  21.205  27.117   7.020 -0.1012 -0.0550 -0.3177
43527DOD     C374402  21.257  26.929   6.608 -0.2129 -0.0117  0.0545
43528DOD     C174403  29.962  18.988  25.099 -0.0462 -0.0566  0.0002
43528DOD     C274404  30.052  18.525  25.166  0.2252  0.1682 -0.1305
43528DOD     C374405  30.180  18.080  25.273  0.1900  0.2032 -0.2003
43529DOD     C174406  15.830   9.897  14.462  0.1451 -0.1799  0.0993
43529DOD     C274407  15.463  10.178  14.543  0.0493  0.2002 -0.3130
43529DOD     C374408  15.212  10.578  14.642  0.2569 -0.0982  0.0959
43530DOD     C174409  20.134  24.651   9.483 -0.1422  0.0149  0.1311
43530DOD     C274410  20.616  24.681   9.472  0.1879  0.1437  0.1300
43530DOD     C374411  20.897  24.657   9.829 -0.0781 -0.0798 -0.0445
43531DOD     C174412   2.885  14.677  26.122 -0.1086 -0.0487 -0.3568
43531DOD     C274413   2.567  14.438  25.836 -0.0266  0.0117 -0.2656
43531DOD     C374414   2.242  14.554  25.507  0.0850 -0.4385 -0.0860
43532DOD     C174415  16.742  19.430  26.544 -0.0655  0.0478 -0.1064
43532DOD     C274416  16.996  19.452  26.905 -0.0321 -0.3170  0.0804
43532DOD     C374417  17.413  19.569  27.192  0.2174  0.2643 -0.1121
43533DOD     C174418  13.995  16.055  10.715  0.3386 -0.2179  0.1968
43533DOD     C274419  14.006  16.409  10.408 -0.2299 -0.1160  0.2157
43533DOD     C374420  14.192  16.421   9.997 -0.4054  0.0640  0.3273
43534DOD     C174421   8.515  28.548   4.024  0.1035 -0.1074  0.2517
43534DOD     C274422   8.162  28.358   4.234  0.3541  0.2520  0.1060
43534DOD     C374423   7.754  28.312   4.062 -0.2961 -0.0694 -0.0035
43535DOD     C174424  20.356  15.500  19.825  0.0730 -0.1515  0.1448
43535DOD     C274425  20.023  15.316  20.039 -0.1649 -0.1607 -0.0589
43535DOD     C374426  19.740  15.280  20.387  0.2687  0.1247  0.1539
43536DOD     C174427  16.431  23.056   3.013 -0.2445  0.0836 -0.0850
43536DOD     C274428  16.388  22.929   2.556  0.3918 -0.0635  0.2861
43536DOD     C374429  16.688  23.100   2.207 -0.0434 -0.0903  0.0558
43537DOD     C174430  24.494  16.448   5.622 -0.1011 -0.1367  0.2869
43537DOD     C274431  24.389  16.116   5.907  0.0407  0.0011  0.1136
43537DOD     C374432  24.046  15.867   6.090  0.0053  0.1881 -0.0895
43538DOD     C174433   9.260  27.953  10.748 -0.1341  0.0681  0.0645
43538DOD     C274434   9.494  28.153  10.418  0.0798 -0.2145  0.1640
43538DOD     C374435   9.864  28.268  10.189  0.0368 -0.0009  0.1497
43539DOD     C174436  19.991  14.255  11.928 -0.0182  0.1374  0.1068
43539DOD     C274437  20.181  13.869  12.162 -0.3409  0.1904 -0.2984
43539DOD     C374438  20.474  13.716  12.522  0.1030  0.1517 -0.2049
43540DOD     C174439   6.358  19.999   7.337 -0.1267  0.1129 -0.2862
43540DOD     C274440   6.188  19.702   7.662  0.1409 -0.1919  0.1007
43540DOD     C374441   6.203  19.518   8.088 -0.2599  0.2972  0.1672
43541DOD     C174442   5.475  16.753  20.427 -0.1705 -0.1047  0.1955
43541DOD     C274443   5.322  17.122  20.161 -0.6767  0.0102 -0.0612
43541DOD     C374444   5.230  17.564  20.137 -0.0028  0.0851 -0.3655
43542DOD     C174445  24.142  24.704   2.102 -0.0015  0.1069 -0.0715
43542DOD     C274446  24.022  24.635   1.655  0.0115  0.0394 -0.2078
43542DOD     C374447  24.102  24.796   1.271  0.2470 -0.2112 -0.2398
43543DOD     C174448  10.408   4.536   4.627 -0.1013 -0.4106  0.0993
43543DOD     C274449  10.823   4.561   4.473  0.0547 -0.3104  0.0438
43543DOD     C374450  11.080   4.846   4.117  0.0875  0.0132  0.3920
43544DOD     C174451  16.156  10.494  16.878 -0.2070  0.3809 -0.0946
43544DOD     C274452  16.346  10.779  17.175  0.1606 -0.0166 -0.0571
43544DOD     C374453  16.590  11.112  17.377 -0.0931  0.2231 -0.2939
43545DOD     C174454  12.276  11.335  24.175 -0.3431 -0.0977 -0.1212
43545DOD     C274455  12.103  10.937  24.346  0.1345  0.1989  0.3359
43545DOD     C374456  11.826  10.591  24.326 -0.2526  0.0252 -0.0840
43546DOD     C174457  24.306  28.342   0.488  0.1226 -0.1450 -0.1431
43546DOD     C274458  24.663  28.616   0.582 -0.1951  0.1221  0.2630
43546DOD     C374459  24.874  28.995   0.817  0.1080 -0.0825 -0.0302
43547DOD     C174460  16.790  15.568   6.919 -0.3353 -0.2525  0.1198
43547DOD     C274461  17.126  15.729   7.161 -0.1018  0.2938 -0.1032
43547DOD     C374462  17.104  15.758   7.623 -0.2559  0.1665 -0.3347
43548DOD     C174463   5.109   9.035  22.963 -0.1181  0.2297 -0.4316
43548DOD     C274464   4.741   9.260  23.075 -0.1216  0.1426 -0.1119
43548DOD     C374465   4.483   9.351  23.475 -0.1044  0.0996 -0.1651
43549DOD     C174466  17.666  14.238   0.559  0.4567 -0.2922  0.1163
43549DOD     C274467  17.525  14.374   1.013 -0.0163  0.2071  0.3532
43549DOD     C374468  17.718  14.395   1.452 -0.2188 -0.3409  0.3572
43550DOD     C174469  27.092  29.744  25.688  0.4825 -0.1304 -0.0611
43550DOD     C274470  27.081  30.194  25.794  0.2398  0.0863 -0.0222
43550DOD     C374471  26.911   0.293  25.655  0.0137 -0.1302 -0.1181
43551DOD     C174472  23.421  13.064   9.155  0.0784 -0.1710  0.0372
43551DOD     C274473  23.805  13.193   8.976  0.0080 -0.1393  0.0311
43551DOD     C374474  24.263  13.202   9.047 -0.0064  0.1216  0.0706
43552DOD     C174475   8.783  19.855  19.438  0.2206 -0.0144 -0.3072
43552DOD     C274476   8.558  20.308  19.499 -0.1966 -0.0500  0.1070
43552DOD     C374477   8.230  20.521  19.744  0.1329  0.1316 -0.1355
43553DOD     C174478  24.953  28.784  11.553 -0.0241  0.5316  0.3390
43553DOD     C274479  25.088  28.877  11.998  0.3093  0.1000  0.1328
43553DOD     C374480  24.950  28.658  12.377 -0.1492 -0.0787 -0.0447
43554DOD     C174481   0.163   1.984  29.440  0.2689  0.2784  0.0233
43554DOD     C274482  30.087   2.114  29.311  0.0709  0.1833  0.2662
43554DOD     C374483  29.638   2.124  29.325  0.0441  0.1004 -0.0936
43555DOD     C174484  18.859   8.762  23.206 -0.1217 -0.5116  0.2140
43555DOD     C274485  19.104   8.776  22.783 -0.0069 -0.0625 -0.2184
43555DOD     C374486  18.981   8.359  22.498 -0.0453 -0.0211 -0.2424
43556DOD     C174487  23.259  23.918  11.660 -0.0484  0.2496 -0.0667
43556DOD     C274488  23.733  23.954  11.677  0.0891 -0.3552 -0.2479
43556DOD     C374489  24.137  24.119  11.864 -0.2748  0.1191  0.0994
43557DOD     C174490  11.984   6.389  14.860 -0.0183  0.2517 -0.1660
43557DOD     C274491  12.229   6.430  15.241 -0.1767  0.0126  0.1041
43557DOD     C374492  12.198   6.550  15.692 -0.2538 -0.1057 -0.0598
43558DOD     C174493  15.044  29.342   2.548 -0.3045  0.0450  0.1449
43558DOD     C274494  14.741  29.225   2.176 -0.1596  0.0057 -0.1177
43558DOD     C374495  14.261  29.337   2.145  0.0232 -0.0791  0.1914
43559DOD     C174496  19.169  22.091  10.645  0.0982 -0.0148 -0.1010
43559DOD     C274497  19.464  22.184  10.942  0.0661 -0.2299  0.0004
43559DOD     C374498  19.619  22.213  11.396  0.1860 -0.1489 -0.0920
43560DOD     C174499  15.362  10.999  18.048 -0.1572  0.2143 -0.2424
43560DOD     C274500  15.409  11.289  18.400 -0.3438  0.1639  0.1696
43560DOD     C374501  15.182  11.259  18.849 -0.2858  0.1401  0.4166
43561DOD     C174502  13.523   9.081  10.005 -0.0288  0.1839 -0.1447
43561DOD     C274503  13.464   9.385   9.699  0.0606  0.1269 -0.2004
43561DOD     C374504  13.367   9.635   9.338 -0.0861 -0.2256  0.0216
43562DOD     C174505   0.998  16.133  17.856  0.0586 -0.2952 -0.2030
43562DOD     C274506   1.469  16.209  17.780 -0.2097  0.1700 -0.2139
43562DOD     C374507   1.884  16.336  17.709  0.1407  0.0154 -0.0018
43563DOD     C174508  25.583  26.941  23.879 -0.2630 -0.1032 -0.2655
43563DOD     C274509  25.406  26.593  24.016 -0.0584  0.2660  0.2174
43563DOD     C374510  25.310  26.154  24.155  0.1934 -0.1340 -0.2245
43564DOD     C174511  29.790  13.853  24.998 -0.0590 -0.0139 -0.3770
43564DOD     C274512  29.546  13.543  24.807 -0.0416  0.0527  0.0214
43564DOD     C374513  29.409  13.384  24.422  0.0161 -0.4009 -0.0537
43565DOD     C174514   4.754   3.019   8.052  0.0335 -0.0289 -0.1035
43565DOD     C274515   5.164   3.099   8.114 -0.0030  0.0312 -0.1446
43565DOD     C374516   5.558   3.304   8.022 -0.1283 -0.0009  0.3479
43566DOD     C174517   0.066  15.746   2.017 -0.2367 -0.3119 -0.0376
43566DOD     C274518  30.040  15.813   1.760  0.1018  0.2665 -0.0570
43566DOD     C374519  29.946  16.194   1.569  0.1303 -0.0920  0.0962
43567DOD     C174520  18.133  12.680  25.759 -0.2969  0.1419 -0.0605
43567DOD     C274521  17.937  12.286  25.608  0.2216  0.0170  0.1730
43567DOD     C374522  17.865  11.836  25.744 -0.2796 -0.1657  0.0308
43568DOD     C174523   4.699   6.134   3.712  0.3575 -0.1630 -0.2505
43568DOD     C274524   4.492   5.813   3.960  0.0083 -0.1164 -0.1196
43568DOD     C374525   4.555   5.389   4.101 -0.0259 -0.3758 -0.1594
43569DOD     C174526   0.507   3.143  13.897  0.1160  0.0862 -0.0730
43569DOD     C274527   0.822   2.923  14.149 -0.0543  0.1608 -0.0159
43569DOD     C374528   1.213   2.849  14.368  0.0584  0.4253  0.1478
43570DOD     C174529  10.204  24.899  13.993  0.1299 -0.0303 -0.3545
43570DOD     C274530  10.232  24.906  14.467 -0.2026 -0.3527 -0.1793
43570DOD     C374531  10.611  24.761  14.729  0.3333  0.0040  0.3384
43571DOD     C174532  22.752   0.675  11.711 -0.0112  0.1301 -0.2924
43571DOD     C274533  22.607   0.204  11.655  0.2676 -0.0250  0.0499
43571DOD     C374534  22.390  30.210  11.288 -0.1463  0.1046  0.2487
43572DOD     C174535  19.880  16.091  26.529 -0.0699 -0.1901 -0.3372
43572DOD     C274536  20.262  16.414  26.433  0.1138 -0.1327 -0.1042
43572DOD     C374537  20.301  16.758  26.056  0.1925 -0.0837 -0.2323
43573DOD     C174538  22.295  10.845  20.365  0.1069 -0.0533 -0.1698
43573DOD     C274539  22.156  10.957  20.801  0.4286 -0.0748 -0.1041
43573DOD     C374540  22.043  11.294  21.121  0.0699  0.2826  0.0966
43574DOD     C174541  28.343  17.028  20.165  0.0744 -0.3674  0.2048
43574DOD     C274542  28.669  16.844  20.389 -0.1082  0.0351  0.1269
43574DOD     C374543  28.997  16.862  20.680  0.1564 -0.0323 -0.0664
43575DOD     C174544  14.766  18.441  21.174  0.0876 -0.2134  0.2505
43575DOD     C274545  14.351  18.319  21.166 -0.1088 -0.0929  0.0099
43575DOD     C374546  13.893  18.248  21.233  0.1450 -0.1905  0.0853
43576DOD     C174547  29.712  22.366  16.861 -0.2225  0.0015 -0.0553
43576DOD     C274548  29.966  22.449  17.231 -0.0003  0.2840 -0.0085
43576DOD     C374549  30.053  22.404  17.718 -0.1830 -0.0976 -0.3648
43577DOD     C174550  23.261   1.280   1.987  0.0237  0.0376 -0.0803
43577DOD     C274551  23.292   1.696   1.700  0.0518  0.0853 -0.1757
43577DOD     C374552  23.073   2.049   1.469  0.0294 -0.4159  0.0100
43578DOD     C174553  10.034  21.748  25.328  0.1640 -0.1369  0.3014
43578DOD     C274554  10.305  22.126  25.495  0.3220 -0.2046  0.1477
43578DOD     C374555  10.619  22.435  25.571 -0.2557  0.0556 -0.1577
43579DOD     C174556   8.441  10.213   4.884  0.0564  0.1364 -0.2124
43579DOD     C274557   8.656  10.072   5.278  0.0772  0.0483 -0.1128
43579DOD     C374558   8.969   9.889   5.547 -0.2230 -0.2296 -0.2437
43580DOD     C174559   5.815   6.910   3.101  0.0879 -0.1241  0.2392
43580DOD     C274560   6.159   7.069   3.451 -0.0234  0.1191 -0.1472
43580DOD     C374561   6.526   7.240   3.679  0.2360 -0.0219 -0.1541
43581DOD     C174562   0.285  10.854  19.543 -0.1659  0.0780 -0.0513
43581DOD     C274563   0.519  10.538  19.319 -0.1013 -0.1777  0.1883
43581DOD     C374564   0.243  10.186  19.268 -0.1645 -0.0631  0.1141
43582DOD     C174565   8.859  29.157   3.545 -0.0895 -0.0754 -0.1768
43582DOD     C274566   8.814  29.572   3.317 -0.3645 -0.1387  0.1618
43582DOD     C374567   8.451  29.808   3.245  0.2850  0.2007 -0.3037
43583DOD     C174568  27.722  18.506   2.445 -0.3022  0.0103 -0.0142
43583DOD     C274569  27.751  18.069   2.273 -0.0450  0.0424 -0.2534
43583DOD     C374570  27.837  17.886   1.888  0.2274 -0.4176 -0.0379
43584DOD     C174571   9.913  10.530  14.994  0.5724 -0.0955 -0.1940
43584DOD     C274572   9.635  10.935  15.010  0.2015  0.2828 -0.5034
43584DOD     C374573   9.528  11.381  14.799  0.1093 -0.1974  0.1897
43585DOD     C174574  14.217   3.575  18.275 -0.0901  0.2295 -0.0657
43585DOD     C274575  14.703   3.447  18.257 -0.3751  0.0961  0.2382
43585DOD     C374576  15.047   3.151  18.213 -0.0210 -0.3099 -0.2220
43586DOD     C174577  26.316  28.030  26.686 -0.0557  0.2381  0.1507
43586DOD     C274578  26.716  28.195  26.516  0.2130 -0.1381  0.1628
43586DOD     C374579  27.153  28.239  26.348 -0.2417  0.2413 -0.0239
43587DOD     C174580   5.716   8.202   7.166 -0.0993 -0.2616 -0.0959
43587DOD     C274581   5.924   7.977   7.508  0.0066  0.1600  0.1558
43587DOD     C374582   6.055   7.731   7.837 -0.1553  0.2130  0.2081
43588DOD     C174583  25.276  18.107  12.667  0.1821 -0.1341  0.2996
43588DOD     C274584  25.371  17.751  12.386 -0.0314 -0.0372 -0.1717
43588DOD     C374585  25.754  17.474  12.308 -0.1536  0.1732  0.2098
43589DOD     C174586  19.518  28.205   0.833 -0.0780 -0.0042 -0.4123
43589DOD     C274587  19.498  27.884   0.474 -0.0852 -0.0957 -0.2256
43589DOD     C374588  19.494  27.579   0.108 -0.0845 -0.1254 -0.1569
43590DOD     C174589  20.675  26.830  24.824  0.1425 -0.1598 -0.1396
43590DOD     C274590  20.995  26.902  24.479 -0.0427 -0.0469  0.2283
43590DOD     C374591  21.214  27.064  24.083 -0.1383  0.3748 -0.1089
43591DOD     C174592   5.816  10.788  27.720  0.0903 -0.1322 -0.1602
43591DOD     C274593   6.249  10.625  27.828 -0.1766  0.1626  0.0770
43591DOD     C374594   6.414  10.165  27.717 -0.5600  0.1731 -0.0130
43592DOD     C174595   2.279  29.826   2.631  0.2757  0.1776  0.1257
43592DOD     C274596   1.968  30.119   2.769  0.0406 -0.0698 -0.3737
43592DOD     C374597   2.049   0.121   3.110  0.1788 -0.2738  0.3638
43593DOD     C174598   1.907   4.661   5.833  0.2311 -0.3281  0.0232
43593DOD     C274599   2.253   4.412   5.681 -0.0189  0.3672  0.0504
43593DOD     C374600   2.593   4.096   5.673  0.0155 -0.1625  0.1920
43594DOD     C174601  29.456   9.043  21.752 -0.3201  0.1089  0.1179
43594DOD     C274602  29.652   9.213  22.127  0.0400  0.0644  0.1232
43594DOD     C374603  29.627   9.593  22.441 -0.0923 -0.1087 -0.2172
43595DOD     C174604   2.583  24.530  23.389  0.3908 -0.0127  0.1247
43595DOD     C274605   2.785  24.951  23.437  0.3775 -0.3574 -0.0981
43595DOD     C374606   3.228  25.084  23.412 -0.2049 -0.2114 -0.0301
43596DOD     C174607   9.019  28.075   8.845 -0.0673 -0.1413 -0.0022
43596DOD     C274608   9.257  28.380   8.568 -0.1378 -0.0020 -0.1426
43596DOD     C374609   9.286  28.669   8.189 -0.3722  0.0127  0.1959
43597DOD     C174610  25.990  20.521   9.689 -0.2981  0.3487 -0.1714
43597DOD     C274611  26.031  20.186  10.055  0.1667 -0.1973  0.0315
43597DOD     C374612  26.317  20.035  10.421 -0.1693  0.1022 -0.1845
43598DOD     C174613   1.846  11.399  16.857 -0.3924  0.0456  0.0448
43598DOD     C274614   1.586  11.101  16.597  0.1589 -0.0318 -0.1037
43598DOD     C374615   1.648  10.617  16.405 -0.0677  0.2163 -0.1893
43599DOD     C174616  19.303  26.123   8.409 -0.0654 -0.0278  0.1316
43599DOD     C274617  18.958  25.947   8.112 -0.5363 -0.0216  0.1635
43599DOD     C374618  18.728  26.148   7.778 -0.0564  0.1364  0.2090
43600DOD     C174619  22.245   1.182  26.717 -0.2230  0.2392 -0.0155
43600DOD     C274620  22.453   1.467  26.356 -0.0777  0.0276  0.0129
43600DOD     C374621  22.675   1.818  26.181 -0.2837  0.2238  0.3430
43601DOD     C174622   5.987  17.574   2.276  0.1051 -0.1696 -0.1834
43601DOD     C274623   5.522  17.549   2.317  0.0844  0.0017 -0.0587
43601DOD     C374624   5.198  17.681   2.633 -0.1462 -0.3560  0.1799
43602DOD     C174625   0.078  14.301   3.722 -0.1709 -0.1529  0.0099
43602DOD     C274626  29.982  14.416   3.938  0.0859 -0.1070 -0.1246
43602DOD     C374627  29.887  14.550   4.350  0.2425 -0.0032  0.0373
43603DOD     C174628  25.080  25.278  18.006 -0.1025  0.1396 -0.0867
43603DOD     C274629  25.323  24.887  18.113  0.2068 -0.1981  0.1748
43603DOD     C374630  25.606  24.502  18.198 -0.1197 -0.0209 -0.1394
43604DOD     C174631  13.424  30.053  27.583 -0.2106 -0.1361  0.1030
43604DOD     C274632  13.549   0.136  27.815 -0.1952  0.1977  0.0542
43604DOD     C374633  13.766   0.191  28.255  0.0417  0.0198 -0.1560
43605DOD     C174634  18.091  26.474   3.137  0.0028  0.0014 -0.0323
43605DOD     C274635  18.522  26.260   2.986 -0.2432  0.0185 -0.3432
43605DOD     C374636  18.899  26.081   3.206 -0.0316  0.1035 -0.0099
43606DOD     C174637   7.938  10.045  29.720 -0.1424  0.3572  0.0660
43606DOD     C274638   8.131   9.609  29.692 -0.0764 -0.0402  0.0380
43606DOD     C374639   8.159   9.173  29.788 -0.0656  0.1367  0.0324
43607DOD     C174640  14.877  13.222  21.913  0.0884 -0.1453 -0.2722
43607DOD     C274641  15.107  13.649  22.086  0.3238  0.0249 -0.1649
43607DOD     C374642  15.431  13.863  22.289  0.2320  0.0531 -0.0376
43608DOD     C174643  15.265   7.967   4.501  0.0672  0.0032  0.0351
43608DOD     C274644  15.731   8.170   4.517  0.0458 -0.1468  0.1729
43608DOD     C374645  15.948   8.501   4.232  0.1233  0.0701 -0.4019
43609DOD     C174646  14.934  15.910   7.128  0.2012  0.0879  0.1475
43609DOD     C274647  15.159  16.291   7.050 -0.1905  0.1757  0.0671
43609DOD     C374648  15.468  16.515   7.347  0.1277 -0.0118 -0.0917
43610DOD     C174649   7.302  12.746  19.758 -0.1928 -0.2342 -0.0383
43610DOD     C274650   6.939  13.093  19.897  0.0128  0.0575  0.2946
43610DOD     C374651   6.594  13.235  20.231  0.2255  0.0144 -0.2705
43611DOD     C174652  25.449  20.813  15.595 -0.0324 -0.0754  0.0209
43611DOD     C274653  25.301  21.227  15.533 -0.1564  0.1388  0.0579
43611DOD     C374654  25.476  21.556  15.308  0.3511 -0.2170  0.2403
43612DOD     C174655  19.909  19.974   3.798  0.0566 -0.1675  0.0748
43612DOD     C274656  20.089  19.745   4.171 -0.3583 -0.3331  0.2310
43612DOD     C374657  19.950  19.460   4.485 -0.2358  0.2843  0.1683
43613DOD     C174658   5.885  12.212  24.918  0.3504  0.0611  0.0348
43613DOD     C274659   6.232  12.432  25.180  0.1475 -0.1196  0.2275
43613DOD     C374660   6.451  12.641  25.560 -0.1462  0.0238  0.2952
43614DOD     C174661   1.286  21.853  21.355  0.0805 -0.1199 -0.0224
43614DOD     C274662   1.672  21.563  21.497  0.2612  0.2197 -0.0352
43614DOD     C374663   1.879  21.489  21.885  0.2508  0.0056 -0.2514
43615DOD     C174664  15.288  20.271  25.858 -0.0742  0.2452 -0.1403
43615DOD     C274665  14.900  20.408  25.638 -0.0740 -0.3761 -0.0644
43615DOD     C374666  14.424  20.516  25.602  0.2391  0.2401  0.0211
43616DOD     C174667  26.870   8.433  19.208  0.4223 -0.1246 -0.1295
43616DOD     C274668  26.699   8.123  19.470  0.1185  0.1392 -0.0872
43616DOD     C374669  26.645   7.652  19.532  0.0984  0.2696 -0.0000
43617DOD     C174670   9.160  17.179   6.210  0.0488 -0.0760 -0.0323
43617DOD     C274671   8.832  17.295   5.921  0.2398  0.1704 -0.0197
43617DOD     C374672   8.879  17.585   5.543  0.1426 -0.5818 -0.1199
43618DOD     C174673  16.498  10.136  13.524  0.1416  0.1214  0.2421
43618DOD     C274674  16.670  10.584  13.463 -0.1516 -0.0269 -0.2682
43618DOD     C374675  16.915  10.969  13.515  0.0325 -0.1718 -0.0966
43619DOD     C174676  14.396  24.031  30.067 -0.0425 -0.0784  0.0484
43619DOD     C274677  14.150  23.644  30.150 -0.1086 -0.1834  0.1125
43619DOD     C374678  14.153  23.294   0.173 -0.2073  0.2950  0.1648
43620DOD     C174679  17.311  26.871  23.424  0.0172  0.1837  0.0312
43620DOD     C274680  17.127  27.238  23.349 -0.1614  0.3958 -0.0122
43620DOD     C374681  16.658  27.356  23.435 -0.2762  0.1420 -0.2887
43621DOD     C174682   1.523  27.304  20.361 -0.0181  0.5374 -0.1879
43621DOD     C274683   1.192  27.406  20.117  0.0943  0.0813 -0.0054
43621DOD     C374684   1.214  27.727  19.824 -0.1121  0.0622  0.2464
43622DOD     C174685  13.503  28.799  17.949 -0.0534  0.0068 -0.0253
43622DOD     C274686  13.174  29.044  17.687 -0.2596  0.2222 -0.1359
43622DOD     C374687  13.245  29.472  17.764  0.0184  0.1515  0.0705
43623DOD     C174688  10.038   8.631  18.630  0.1086  0.1298 -0.1235
43623DOD     C274689  10.274   8.250  18.837 -0.0900  0.2692  0.0799
43623DOD     C374690  10.303   7.804  18.935  0.3758 -0.0545 -0.0153
43624DOD     C174691   0.006  19.136   9.588 -0.3414  0.3694 -0.2327
43624DOD     C274692  30.065  18.830   9.351 -0.1340 -0.2397  0.1289
43624DOD     C374693  30.094  18.470   9.084  0.1973 -0.1901  0.0748
43625DOD     C174694   7.020  19.256  26.718  0.2850  0.2851  0.1865
43625DOD     C274695   7.423  19.207  26.869 -0.0196 -0.2113 -0.1977
43625DOD     C374696   7.568  19.328  27.292  0.0488 -0.0883  0.0332
43626DOD     C174697   1.611  25.899  14.304  0.1422 -0.1561  0.3854
43626DOD     C274698   2.039  25.860  14.479 -0.1150  0.1901  0.1308
43626DOD     C374699   2.466  25.691  14.572 -0.1180 -0.1876  0.0840
43627DOD     C174700  19.859   4.589   0.358 -0.0915 -0.2522 -0.1927
43627DOD     C274701  19.936   4.824  30.278  0.0347  0.1707  0.0382
43627DOD     C374702  19.738   5.170  30.186 -0.1123 -0.4955  0.0027
43628DOD     C174703  29.256  10.581   6.982  0.0406  0.1291  0.1458
43628DOD     C274704  29.332  10.887   7.326  0.0460 -0.0349 -0.2905
43628DOD     C374705  29.396  11.155   7.677 -0.1895 -0.1549 -0.1910
43629DOD     C174706  13.823  10.870  22.879 -0.0583 -0.1867  0.2064
43629DOD     C274707  13.781  10.533  22.604 -0.0437  0.0088  0.0359
43629DOD     C374708  13.664  10.081  22.472  0.3061  0.1181 -0.0230
43630DOD     C174709  16.211  16.973  18.861  0.2333 -0.0135 -0.1600
43630DOD     C274710  16.541  17.273  18.866  0.2821  0.2121 -0.2559
43630DOD     C374711  16.910  17.470  18.592  0.1407 -0.3473 -0.1122
43631DOD     C174712  19.550   7.764  12.344  0.1632 -0.0262  0.0095
43631DOD     C274713  19.680   7.692  12.807  0.0457 -0.0303 -0.1408
43631DOD     C374714  19.789   7.379  13.232  0.3074 -0.0620  0.3245
43632DOD     C174715   0.544  24.617  24.468 -0.1229 -0.0908 -0.2660
43632DOD     C274716   0.418  24.563  24.019 -0.4949  0.2747 -0.1275
43632DOD     C374717   0.043  24.483  23.797  0.0637 -0.0777  0.1039
43633DOD     C174718  17.638  18.205  14.962  0.3029  0.0452 -0.0278
43633DOD     C274719  17.927  18.050  14.615 -0.0074 -0.0712 -0.0842
43633DOD     C374720  18.336  17.905  14.338  0.1408 -0.0903  0.0754
43634DOD     C174721  14.110   1.293  13.198  0.1310  0.1606  0.0620
43634DOD     C274722  14.515   1.254  13.497 -0.0399 -0.0825  0.1513
43634DOD     C374723  14.816   1.021  13.740  0.1722  0.1955 -0.0812
43635DOD     C174724   1.991  23.010  14.001 -0.0278 -0.0738  0.1634
43635DOD     C274725   1.648  22.712  14.011 -0.2550 -0.1085  0.2250
43635DOD     C374726   1.438  22.354  13.945  0.0177 -0.2104 -0.0917
43636DOD     C174727  21.706   4.671  21.739 -0.2644 -0.1778 -0.1358
43636DOD     C274728  21.213   4.779  21.649 -0.1055 -0.0697 -0.2359
43636DOD     C374729  20.933   5.093  21.834  0.0644 -0.2403  0.0622
43637DOD     C174730   7.962  17.530  21.892 -0.1725  0.1169  0.2103
43637DOD     C274731   7.916  17.554  22.369 -0.1937 -0.1101  0.3263
43637DOD     C374732   8.214  17.642  22.737 -0.2026  0.1343 -0.1932
43638DOD     C174733   8.964  21.883  10.559 -0.2238 -0.2105 -0.2201
43638DOD     C274734   8.607  21.612  10.690  0.1971 -0.0911  0.2676
43638DOD     C374735   8.241  21.525  10.563  0.1008  0.0716  0.1193
43639DOD     C174736  20.317   2.462  16.131 -0.0450  0.1197 -0.1275
43639DOD     C274737  20.707   2.389  15.953  0.0681 -0.1577 -0.0771
43639DOD     C374738  20.957   2.375  15.567  0.0963  0.2822  0.3212
43640DOD     C174739  17.298  16.342  27.711 -0.1025 -0.2483  0.3316
43640DOD     C274740  17.609  16.712  27.764  0.1328 -0.2759 -0.1219
43640DOD     C374741  17.887  16.933  27.437  0.1648  0.0727  0.0281
43641DOD     C174742  15.834  26.848  15.491  0.1129 -0.0910  0.1098
43641DOD     C274743  15.964  26.751  15.953  0.0561 -0.1514  0.0733
43641DOD     C374744  16.357  26.751  16.232  0.0348 -0.1712  0.0374
43642DOD     C174745   6.988  20.546  26.876 -0.0236 -0.3258  0.4566
43642DOD     C274746   6.685  20.373  27.164  0.2128  0.1574 -0.1448
43642DOD     C374747   6.363  20.269  27.511 -0.1996 -0.0029 -0.2577
43643DOD     C174748  28.242  20.945  28.010 -0.1316 -0.0192  0.0759
43643DOD     C274749  27.773  20.832  28.153  0.4236 -0.0833 -0.0345
43643DOD     C374750  27.383  21.099  28.087 -0.1513  0.0146 -0.1396
43644DOD     C174751   1.076  20.052  20.640  0.0243  0.3702 -0.0528
43644DOD     C274752   0.642  19.917  20.789  0.0569 -0.1331 -0.0243
43644DOD     C374753   0.278  20.021  20.527  0.1484  0.0101  0.2158
43645DOD     C174754  19.282   6.999   1.904 -0.1022  0.0714  0.1355
43645DOD     C274755  19.701   7.112   1.880  0.1011  0.0947 -0.2115
43645DOD     C374756  20.131   7.181   2.189  0.0001  0.1538 -0.0248
43646DOD     C174757   1.459  18.247  15.960 -0.0905  0.1773 -0.0322
43646DOD     C274758   1.527  17.789  16.037  0.0101  0.1107 -0.1917
43646DOD     C374759   1.406  17.338  16.130  0.1048  0.0156  0.3951
43647DOD     C174760  13.335  29.588   8.620  0.2383  0.2888  0.1996
43647DOD     C274761  13.045  29.816   8.841  0.0468  0.1304 -0.1276
43647DOD     C374762  12.784  29.810   9.224 -0.2602 -0.2210 -0.0685
43648DOD     C174763  19.803  22.063  13.151 -0.2883 -0.1941 -0.1347
43648DOD     C274764  19.458  22.144  12.874 -0.1520  0.5358  0.2820
43648DOD     C374765  19.374  21.867  12.514 -0.0790 -0.1819 -0.3366
43649DOD     C174766   9.493   1.178  13.437  0.0607  0.0968  0.1337
43649DOD     C274767   9.667   1.184  12.977  0.0024 -0.1512 -0.1385
43649DOD     C374768   9.886   0.954  12.642 -0.0526 -0.0976 -0.0375
43650DOD     C174769  18.608  23.056  13.689  0.2894 -0.0792 -0.0276
43650DOD     C274770  19.049  22.871  13.840 -0.0687 -0.1298 -0.0280
43650DOD     C374771  19.348  22.585  13.784  0.0475  0.1423 -0.1714
43651DOD     C174772  27.934   5.528  21.210 -0.4473 -0.0336  0.0897
43651DOD     C274773  27.661   5.413  21.598 -0.1978 -0.0509 -0.0989
43651DOD     C374774  27.317   5.514  21.839 -0.1992 -0.1992  0.0117
43652DOD     C174775   1.192  10.619   9.000 -0.4259 -0.2759 -0.0559
43652DOD     C274776   1.427  10.918   9.319  0.2027  0.3338  0.0729
43652DOD     C374777   1.565  11.247   9.615  0.0467 -0.2203 -0.1230
43653DOD     C174778  14.352  23.195  27.097  0.0054  0.0892 -0.0658
43653DOD     C274779  14.606  23.547  27.268 -0.4687 -0.2175 -0.0912
43653DOD     C374780  14.871  23.964  27.377 -0.1250  0.1027 -0.1941
43654DOD     C174781  27.400  28.831   5.073  0.0189 -0.1120  0.0571
43654DOD     C274782  27.029  29.132   4.829  0.0541 -0.3086 -0.0274
43654DOD     C374783  26.968  29.603   4.741 -0.1032 -0.1222  0.0368
43655DOD     C174784  12.863  20.639  19.912  0.0552  0.0910 -0.1634
43655DOD     C274785  13.169  20.650  20.294  0.1423 -0.0330  0.0577
43655DOD     C374786  13.218  20.613  20.735 -0.0529  0.0790 -0.1996
43656DOD     C174787  17.045  26.698   3.507 -0.0049 -0.1859  0.1147
43656DOD     C274788  16.878  27.109   3.360 -0.3050  0.0652  0.2503
43656DOD     C374789  16.551  27.317   3.180 -0.3298  0.0068  0.1050
43657DOD     C174790  28.401  20.308  25.210 -0.0615  0.0890 -0.0351
43657DOD     C274791  28.311  19.901  25.003 -0.0042  0.3881 -0.1385
43657DOD     C374792  28.180  19.438  24.910 -0.2289  0.0802  0.3005
43658DOD     C174793  24.030   5.517   7.273  0.0842  0.1115  0.1813
43658DOD     C274794  24.425   5.763   7.191  0.4444 -0.2108 -0.0309
43658DOD     C374795  24.609   6.069   6.944 -0.1826 -0.2250 -0.0674
43659DOD     C174796   9.973  14.087   4.701  0.0011 -0.1104  0.1096
43659DOD     C274797   9.585  14.125   4.448 -0.4499  0.2609 -0.0754
43659DOD     C374798   9.354  14.459   4.281 -0.0783 -0.0105 -0.2351
43660DOD     C174799  10.235   9.091  23.272  0.1534 -0.0562 -0.5051
43660DOD     C274800  10.197   9.603  23.281 -0.2206 -0.1529 -0.3539
43660DOD     C374801  10.131  10.026  23.487 -0.0522  0.0489 -0.0726
43661DOD     C174802  22.111  21.467  24.568 -0.0596  0.0447  0.1271
43661DOD     C274803  22.053  21.082  24.310 -0.0817  0.0854 -0.1100
43661DOD     C374804  21.802  20.956  23.960 -0.0801  0.1047 -0.0336
43662DOD     C174805  30.238   7.486   7.110  0.1479  0.1566 -0.2050
43662DOD     C274806  30.252   7.182   6.720  0.3575 -0.2396  0.3004
43662DOD     C374807  30.300   6.738   6.757  0.2137 -0.2052  0.0757
43663DOD     C174808  23.192  14.632  21.492 -0.0741 -0.2079 -0.2418
43663DOD     C274809  23.496  14.421  21.157  0.3198 -0.2346  0.2926
43663DOD     C374810  23.485  14.406  20.742  0.2475  0.0664  0.2453
43664DOD     C174811  12.194  11.440  30.262 -0.0198 -0.0428 -0.3543
43664DOD     C274812  12.396  11.620   0.290  0.2993 -0.1306  0.0851
43664DOD     C374813  12.549  12.017   0.325  0.0912 -0.1417  0.1324
43665DOD     C174814  28.031  27.707   2.240 -0.2357  0.1910 -0.1434
43665DOD     C274815  28.187  27.303   2.171  0.0422  0.0370  0.0147
43665DOD     C374816  28.417  26.847   2.176  0.0783 -0.0813  0.1564
43666DOD     C174817   9.565   1.192  17.073  0.4015  0.2038 -0.0144
43666DOD     C274818   9.965   1.085  17.273  0.0445  0.2129  0.0518
43666DOD     C374819  10.242   0.882  17.022  0.1723 -0.1160 -0.1457
43667DOD     C174820  14.318  19.798  23.685 -0.2764  0.0768 -0.0518
43667DOD     C274821  14.799  19.868  23.670  0.0964  0.1088  0.1335
43667DOD     C374822  15.254  19.943  23.562  0.2300 -0.0812 -0.1392
43668DOD     C174823  26.297  18.255   3.815  0.0103  0.1127 -0.2146
43668DOD     C274824  26.645  18.497   3.598  0.3858  0.0499 -0.0432
43668DOD     C374825  26.825  18.951   3.556  0.0805  0.0236 -0.3238
43669DOD     C174826  29.735   1.361  20.855  0.0446  0.1526 -0.2380
43669DOD     C274827  29.854   1.368  20.360  0.0974  0.1571  0.0007
43669DOD     C374828  29.846   1.437  19.871  0.1197 -0.0209 -0.2468
43670DOD     C174829   1.750  14.533   5.419  0.0311 -0.0778 -0.0562
43670DOD     C274830   1.632  14.206   5.160  0.2142 -0.2129  0.0011
43670DOD     C374831   1.602  13.778   5.191  0.0440 -0.0116 -0.2047
43671DOD     C174832  28.005   1.359  29.989 -0.1312 -0.1364 -0.1290
43671DOD     C274833  28.078   1.140   0.072 -0.0072 -0.0439  0.0344
43671DOD     C374834  28.400   0.828   0.230  0.2660 -0.1868  0.4022
43672DOD     C174835  27.442   1.285  18.687  0.2081  0.0591 -0.0716
43672DOD     C274836  27.577   1.478  18.275 -0.2891 -0.0250 -0.0135
43672DOD     C374837  27.801   1.431  17.908 -0.0669 -0.1427  0.2704
43673DOD     C174838  21.023  22.328  15.057 -0.3201 -0.1648 -0.0122
43673DOD     C274839  21.083  21.936  15.372  0.0780 -0.0713  0.1653
43673DOD     C374840  21.260  21.765  15.760  0.2112 -0.2089  0.0521
43674DOD     C174841  29.190  11.913  24.872  0.0106 -0.0267 -0.3824
43674DOD     C274842  29.559  12.095  25.003  0.5405  0.2584 -0.2637
43674DOD     C374843  30.007  12.246  25.108  0.1372  0.0214 -0.0968
43675DOD     C174844   1.563  13.613  23.680 -0.0727 -0.0266 -0.2597
43675DOD     C274845   1.571  13.877  23.264 -0.0452  0.0808  0.3142
43675DOD     C374846   1.286  14.025  22.970  0.0608  0.1191 -0.3316
43676DOD     C174847   0.604  19.038  12.955 -0.0200  0.1785 -0.2241
43676DOD     C274848   0.969  19.313  12.817  0.0190  0.1421  0.0433
43676DOD     C374849   1.022  19.568  12.482 -0.2808 -0.2452  0.1248
43677DOD     C174850   7.536  26.205   6.354 -0.0459 -0.1578  0.1602
43677DOD     C274851   7.607  25.971   5.966 -0.4419 -0.2161  0.1826
43677DOD     C374852   7.788  25.810   5.596  0.2224 -0.0556  0.1711
43678DOD     C174853   5.861  11.631  17.143 -0.0098 -0.2457 -0.1943
43678DOD     C274854   6.012  11.642  17.594 -0.1661 -0.0846 -0.0244
43678DOD     C374855   6.298  11.714  17.941  0.1115 -0.0212 -0.1292
43679DOD     C174856  24.528   0.607  18.614 -0.2186 -0.0189 -0.2597
43679DOD     C274857  24.595   0.975  18.927 -0.0195  0.1027  0.0911
43679DOD     C374858  24.252   1.320  18.975  0.0585  0.0868  0.0341
43680DOD     C174859   3.268  17.855   5.966  0.1025 -0.1898  0.2248
43680DOD     C274860   3.281  17.747   5.475  0.2325  0.1233  0.0103
43680DOD     C374861   3.260  17.836   5.053 -0.4049 -0.1966  0.0837
43681DOD     C174862  22.317  27.934  10.360  0.0442  0.1435 -0.3604
43681DOD     C274863  22.335  27.832  10.847  0.2624 -0.0369  0.0982
43681DOD     C374864  22.085  27.977  11.223 -0.1085  0.0360  0.1854
43682DOD     C174865   8.843  11.031  19.885  0.1931  0.2189  0.1774
43682DOD     C274866   8.858  10.591  20.053 -0.1956 -0.0084 -0.3043
43682DOD     C374867   9.107  10.178  20.098 -0.1829 -0.1386  0.3780
43683DOD     C174868  24.436  19.917  13.647 -0.0638  0.3520 -0.2144
43683DOD     C274869  24.339  20.353  13.509 -0.0244  0.1247 -0.4201
43683DOD     C374870  23.974  20.486  13.269  0.1251 -0.0410 -0.0102
43684DOD     C174871  24.673  17.983  23.436  0.0734 -0.0680  0.1968
43684DOD     C274872  24.853  17.609  23.638 -0.0629 -0.0826  0.2848
43684DOD     C374873  24.736  17.177  23.529  0.1604  0.2141 -0.0672
43685DOD     C174874  13.169   7.506   9.866  0.0584  0.1396  0.1672
43685DOD     C274875  13.514   7.362   9.572  0.2974  0.2049  0.1476
43685DOD     C374876  13.753   7.151   9.277  0.0736 -0.0321  0.2768
43686DOD     C174877  24.118  14.183  25.462 -0.2064 -0.1207  0.1380
43686DOD     C274878  24.123  13.962  25.960  0.0337 -0.0195  0.1515
43686DOD     C374879  24.377  14.083  26.336 -0.1381 -0.1696 -0.3860
43687DOD     C174880  24.200  23.060   7.566  0.0106  0.0357 -0.2421
43687DOD     C274881  23.759  23.167   7.489  0.0292 -0.1550 -0.2990
43687DOD     C374882  23.381  23.210   7.224 -0.2461  0.0039 -0.0496
43688DOD     C174883  20.801  11.294  29.962  0.3718 -0.0533 -0.1606
43688DOD     C274884  20.766  10.820  30.002 -0.2779 -0.1670  0.0732
43688DOD     C374885  20.449  10.445  29.922  0.1050  0.1691  0.1331
43689DOD     C174886  19.080   7.271  13.646  0.2013 -0.0412 -0.2448
43689DOD     C274887  18.889   7.409  13.210  0.3447 -0.0885  0.0939
43689DOD     C374888  18.780   7.804  12.974  0.1837  0.0487 -0.0558
43690DOD     C174889  23.482  21.434  22.589  0.0022  0.1427 -0.1094
43690DOD     C274890  23.326  21.652  22.224  0.0903  0.1582  0.3468
43690DOD     C374891  22.938  21.725  21.980 -0.0572 -0.2567  0.3193
43691DOD     C174892  21.036  23.273  14.796 -0.3053 -0.2059  0.1621
43691DOD     C274893  21.365  23.609  14.726  0.0005  0.0600  0.2144
43691DOD     C374894  21.657  23.883  14.947  0.1253  0.1892  0.2370
43692DOD     C174895  12.868  27.272  21.750  0.1349  0.0728  0.1502
43692DOD     C274896  12.788  27.749  21.767 -0.1753 -0.2108  0.3025
43692DOD     C374897  12.994  28.098  21.985 -0.2971  0.0557  0.1004
43693DOD     C174898  26.155  18.610  28.530 -0.0803 -0.1159 -0.2574
43693DOD     C274899  26.006  19.037  28.402  0.0331 -0.0391  0.1956
43693DOD     C374900  25.970  19.216  27.959 -0.0412 -0.0636  0.1592
43694DOD     C174901  28.837  29.189   4.966  0.2835 -0.0170  0.1638
43694DOD     C274902  28.914  29.166   5.440  0.0524 -0.2343 -0.0387
43694DOD     C374903  28.971  29.020   5.855 -0.1669 -0.3630 -0.0984
43695DOD     C174904  23.549   0.736  19.838 -0.0752  0.0689  0.3758
43695DOD     C274905  23.766   0.885  20.217 -0.1637  0.2399 -0.2396
43695DOD     C374906  24.033   1.270  20.302  0.1492 -0.0522 -0.0666
43696DOD     C174907  13.265  23.652  11.419 -0.1689  0.0508  0.1979
43696DOD     C274908  13.034  23.860  11.050  0.2148 -0.1237 -0.1598
43696DOD     C374909  12.754  24.046  10.725  0.7026 -0.2941  0.0708
43697DOD     C174910  30.181  13.422  19.740  0.0686 -0.1894  0.2568
43697DOD     C274911  30.159  13.008  19.990  0.0649  0.2330  0.0131
43697DOD     C374912  30.096  12.905  20.404  0.1515 -0.0093  0.2115
43698DOD     C174913   4.028   3.847   8.679  0.2146 -0.2185 -0.0771
43698DOD     C274914   4.300   4.154   8.376  0.0580 -0.0729  0.2366
43698DOD     C374915   4.639   4.503   8.340 -0.0116 -0.1280  0.2495
43699DOD     C174916   6.290  24.812  21.906 -0.1719  0.1296  0.1891
43699DOD     C274917   6.740  24.834  21.829  0.1401 -0.1679 -0.0604
43699DOD     C374918   7.024  24.481  21.844 -0.0828  0.1302 -0.0938
43700DOD     C174919  12.955  29.853  21.185  0.0316  0.1109  0.1901
43700DOD     C274920  12.936  29.836  21.660 -0.1357  0.3026 -0.0565
43700DOD     C374921  13.023  29.557  22.053  0.0655 -0.0888  0.1441
43701DOD     C174922   0.618  12.273  23.537 -0.1194 -0.3968 -0.1384
43701DOD     C274923   0.912  12.207  23.934 -0.1860  0.0496 -0.0468
43701DOD     C374924   1.213  12.299  24.306  0.0828 -0.1218  0.5040
43702DOD     C174925  23.280  17.398  12.682 -0.0554  0.1106 -0.0133
43702DOD     C274926  23.602  17.616  12.948  0.0839 -0.0267 -0.3814
43702DOD     C374927  23.976  17.641  13.191 -0.3061 -0.0853  0.0358
43703DOD     C174928  23.599   9.694  11.519  0.0680 -0.0250 -0.0806
43703DOD     C274929  23.558   9.304  11.228 -0.0436  0.0824 -0.2429
43703DOD     C374930  23.503   9.315  10.773  0.0300  0.0433  0.1092
43704DOD     C174931   4.188  16.709  15.512  0.1025  0.3582 -0.0547
43704DOD     C274932   4.573  16.506  15.471 -0.0151 -0.1099  0.0165
43704DOD     C374933   4.849  16.176  15.390  0.1992  0.0799 -0.3812
43705DOD     C174934  20.440  11.322  16.523  0.3898  0.2488 -0.1657
43705DOD     C274935  20.301  10.822  16.510  0.1455 -0.2729  0.3155
43705DOD     C374936  20.373  10.357  16.376 -0.0063  0.0287 -0.1109
43706DOD     C174937  16.370   8.996  18.327  0.1357 -0.0591  0.0474
43706DOD     C274938  16.291   8.698  18.080  0.1239 -0.0377  0.2094
43706DOD     C374939  16.487   8.433  17.802 -0.0628  0.0945 -0.2216
43707DOD     C174940  25.292  28.349  13.846  0.0341 -0.0549 -0.1874
43707DOD     C274941  25.170  28.753  14.038 -0.0506  0.0996 -0.0393
43707DOD     C374942  24.850  29.070  14.052  0.0360 -0.1544  0.0544
43708DOD     C174943  16.100  22.045  21.196  0.1879  0.0190  0.1265
43708DOD     C274944  16.162  21.870  21.676 -0.3037  0.2055  0.0843
43708DOD     C374945  16.350  21.988  22.087 -0.0186 -0.1408  0.1189
43709DOD     C174946  18.267  10.232   3.944 -0.2355 -0.0736 -0.2746
43709DOD     C274947  18.118  10.660   3.922 -0.0334 -0.1435  0.1759
43709DOD     C374948  18.033  11.079   3.745 -0.4788  0.0897  0.1316
43710DOD     C174949  23.984   0.881  16.943 -0.1538  0.2008 -0.0330
43710DOD     C274950  23.774   1.027  17.351  0.0346  0.0831 -0.2769
43710DOD     C374951  23.417   1.307  17.467 -0.2672  0.0405 -0.0499
43711DOD     C174952  26.507  19.025  19.932  0.0349 -0.0970 -0.2115
43711DOD     C274953  26.132  19.034  20.189  0.0474 -0.1346  0.1527
43711DOD     C374954  25.968  19.334  20.450  0.1757  0.1825  0.1748
43712DOD     C174955  13.485  28.035   9.348  0.1570  0.3452  0.2073
43712DOD     C274956  13.732  28.344   9.124  0.2948 -0.1343 -0.0833
43712DOD     C374957  14.025  28.674   8.865  0.3444  0.2169  0.0595
43713DOD     C174958  30.305  13.605  20.968 -0.1994 -0.1319  0.0301
43713DOD     C274959   0.117  13.453  21.362  0.2051 -0.2868  0.3034
43713DOD     C374960   0.572  13.353  21.482  0.1378 -0.0812  0.1133
43714DOD     C174961  30.181   8.594  27.546 -0.0458 -0.0287  0.1421
43714DOD     C274962   0.184   8.319  27.715 -0.0508 -0.4891  0.1296
43714DOD     C374963   0.614   8.217  27.954 -0.0397  0.1170  0.0070
43715DOD     C174964  23.318   0.265   4.564  0.3646  0.2402  0.0688
43715DOD     C274965  22.922  30.242   4.488  0.1486 -0.0350 -0.1981
43715DOD     C374966  22.595  30.055   4.139  0.0739 -0.0607 -0.0254
43716DOD     C174967  22.674  12.383   9.394 -0.1605  0.1361  0.4278
43716DOD     C274968  22.662  12.522   8.942 -0.2821 -0.2923  0.0698
43716DOD     C374969  22.444  12.438   8.503  0.1522 -0.0344  0.1605
43717DOD     C174970   5.281  18.948  22.777  0.4190 -0.1679 -0.1797
43717DOD     C274971   5.531  18.981  23.185  0.0332 -0.2048 -0.1452
43717DOD     C374972   5.647  18.783  23.591 -0.3498  0.0040  0.1759
43718DOD     C174973  21.494  12.727   5.126  0.1085 -0.2434  0.0972
43718DOD     C274974  21.142  12.964   5.383  0.1915 -0.0676 -0.1022
43718DOD     C374975  21.100  13.248   5.747 -0.2387  0.0648  0.2735
43719DOD     C174976  28.325  25.437  14.516 -0.2599 -0.4004  0.2751
43719DOD     C274977  28.631  25.664  14.769  0.1041  0.0171 -0.0151
43719DOD     C374978  28.736  25.749  15.219 -0.0683 -0.2678  0.1121
43720DOD     C174979  29.042  22.366   5.228  0.0285 -0.0571 -0.1324
43720DOD     C274980  28.936  22.444   4.797  0.2085  0.0534  0.3255
43720DOD     C374981  28.731  22.807   4.576  0.0875  0.0996  0.1294
43721DOD     C174982  12.330   0.269  26.387  0.1862  0.1161  0.0477
43721DOD     C274983  12.699   0.073  26.138  0.1729 -0.1990 -0.0468
43721DOD     C374984  13.027  30.172  25.929 -0.0649  0.0328 -0.0546
43722DOD     C174985  11.372  29.893   8.596  0.5884  0.3678 -0.0801
43722DOD     C274986  11.131  29.623   8.299  0.0934  0.0788 -0.2580
43722DOD     C374987  10.799  29.601   7.956 -0.1877 -0.0152  0.0755
43723DOD     C174988  26.991  16.015  24.218 -0.0106  0.2104 -0.1397
43723DOD     C274989  27.140  15.565  24.265  0.0771 -0.1255  0.2354
43723DOD     C374990  27.339  15.273  23.947 -0.5083  0.0359 -0.4732
43724DOD     C174991  24.629  21.298  18.477  0.1465  0.0579 -0.1669
43724DOD     C274992  24.789  21.563  18.847  0.1654  0.3181  0.2334
43724DOD     C374993  24.862  21.520  19.278 -0.0707  0.2575 -0.2442
43725DOD     C174994   8.715  17.579   9.693  0.1496 -0.0497  0.0021
43725DOD     C274995   9.128  17.468   9.618 -0.0248 -0.1978 -0.1745
43725DOD     C374996   9.469  17.288   9.421  0.3065 -0.2144  0.1072
43726DOD     C174997  12.279   6.394  13.487  0.0251 -0.1371 -0.1545
43726DOD     C274998  12.595   6.180  13.192  0.0509  0.3269 -0.0404
43726DOD     C374999  12.878   6.167  12.818 -0.1694  0.1173  0.0864
43727DOD     C175000  11.319  27.927  10.747  0.1698 -0.3188 -0.2207
43727DOD     C275001  11.366  28.394  10.650 -0.2327  0.2075 -0.0372
43727DOD     C375002  11.251  28.860  10.619 -0.1972 -0.0341 -0.0188
43728DOD     C175003   5.071  16.775  19.687 -0.0971  0.0651 -0.2752
43728DOD     C275004   4.604  16.846  19.755  0.0486 -0.0252  0.2010
43728DOD     C375005   4.229  16.982  19.591 -0.0293 -0.0917  0.0210
43729DOD     C175006  19.142  14.811  23.866 -0.0465  0.1982  0.1776
43729DOD     C275007  19.268  14.359  23.876 -0.0766 -0.1307  0.1050
43729DOD     C375008  19.230  13.868  23.884  0.0496  0.0488 -0.2647
43730DOD     C175009  26.731   7.198  21.633 -0.1294 -0.1903 -0.2720
43730DOD     C275010  26.651   7.605  21.845 -0.2036  0.0955  0.1653
43730DOD     C375011  26.310   7.910  21.842  0.0485  0.3491  0.1336
43731DOD     C175012  16.249  21.734  12.067  0.0169  0.2930 -0.1171
43731DOD     C275013  16.583  21.585  12.371 -0.0906 -0.3179 -0.1447
43731DOD     C375014  16.576  21.279  12.727 -0.2932 -0.2104  0.1374
43732DOD     C175015  14.670  26.679  19.541  0.3248 -0.2192 -0.0754
43732DOD     C275016  14.723  26.888  19.093 -0.3674  0.1018  0.1680
43732DOD     C375017  14.884  26.839  18.650  0.0114  0.1618  0.1062
43733DOD     C175018   6.040  23.856  27.588 -0.0400  0.2037  0.0857
43733DOD     C275019   5.979  23.806  28.072  0.5474 -0.1892  0.3574
43733DOD     C375020   6.216  23.868  28.528  0.1058 -0.2756  0.0603
43734DOD     C175021  28.685  28.220   3.716 -0.0661  0.3495  0.2777
43734DOD     C275022  28.928  27.861   3.654 -0.0234 -0.0026  0.1500
43734DOD     C375023  28.938  27.343   3.856 -0.0108 -0.1032 -0.0464
43735DOD     C175024  18.915   7.886  16.558  0.2683  0.1786 -0.0167
43735DOD     C275025  18.550   8.048  16.324 -0.1057 -0.3380  0.2458
43735DOD     C375026  18.172   7.953  16.012 -0.3171  0.2315  0.1685
43736DOD     C175027   4.678  23.576  12.187 -0.1801 -0.0075  0.3823
43736DOD     C275028   5.130  23.424  12.206 -0.2047  0.3121  0.1186
43736DOD     C375029   5.401  23.602  11.911 -0.0901  0.2192 -0.1675
43737DOD     C175030  26.609   0.565   8.002 -0.2295  0.0840 -0.0902
43737DOD     C275031  26.625   0.069   8.025  0.2130  0.3284  0.1607
43737DOD     C375032  26.309  29.998   8.054 -0.1237 -0.0101 -0.3278
43738DOD     C175033   1.924  28.978  16.874  0.4737  0.1804  0.1909
43738DOD     C275034   1.847  29.451  16.795 -0.2326  0.1748 -0.0649
43738DOD     C375035   1.674  29.842  16.611 -0.3072 -0.3087  0.2698
43739DOD     C175036  20.145  17.203  18.781  0.0784 -0.1345 -0.2481
43739DOD     C275037  20.182  17.557  19.085  0.2199 -0.1143  0.2255
43739DOD     C375038  20.055  17.812  19.433 -0.0147  0.0490  0.0567
43740DOD     C175039  17.964  12.203  15.119 -0.0388 -0.1519 -0.1709
43740DOD     C275040  17.958  11.950  14.679 -0.1736 -0.1492 -0.2671
43740DOD     C375041  18.008  11.750  14.286 -0.1753 -0.0554  0.0980
43741DOD     C175042  23.940  22.724  25.682  0.2609  0.4009 -0.0083
43741DOD     C275043  24.058  23.159  25.744  0.0841  0.4475  0.3013
43741DOD     C375044  23.908  23.551  25.849  0.2905 -0.1476 -0.1874
43742DOD     C175045   3.855  17.252  10.167  0.0147 -0.1388  0.0511
43742DOD     C275046   4.008  16.969  10.518 -0.3402  0.2431 -0.1661
43742DOD     C375047   4.159  17.063  11.018  0.1138  0.0635  0.0625
43743DOD     C175048  10.942  11.051   2.358  0.2420 -0.1063 -0.0745
43743DOD     C275049  10.876  10.982   1.901 -0.0298  0.0736  0.1884
43743DOD     C375050  10.759  11.038   1.455  0.2324 -0.1700  0.0824
43744DOD     C175051   1.325  19.390   8.441  0.1290  0.2964 -0.0363
43744DOD     C275052   1.344  19.707   8.763 -0.0890  0.1770 -0.1548
43744DOD     C375053   1.590  20.087   8.934 -0.2204 -0.1789 -0.3173
43745DOD     C175054   8.714   9.385  15.924 -0.1695 -0.1882 -0.2577
43745DOD     C275055   8.309   9.350  15.755  0.3753  0.0439 -0.0206
43745DOD     C375056   7.842   9.293  15.661 -0.3727  0.0153  0.3165
43746DOD     C175057  18.122   6.711   1.902 -0.1482 -0.1987  0.2683
43746DOD     C275058  18.493   6.950   1.723 -0.0100 -0.1237  0.0348
43746DOD     C375059  18.693   7.331   1.526  0.1379 -0.1380  0.0980
43747DOD     C175060  29.111   7.779  20.238 -0.0704  0.3099 -0.0271
43747DOD     C275061  29.605   7.815  20.079 -0.0859 -0.2635 -0.3212
43747DOD     C375062  29.898   7.483  20.014  0.0628  0.0864 -0.2004
43748DOD     C175063  20.695  13.702  25.983 -0.1809  0.3648  0.0817
43748DOD     C275064  20.439  13.538  26.364 -0.0925  0.1724 -0.0253
43748DOD     C375065  20.296  13.107  26.597  0.0122 -0.3211 -0.1630
43749DOD     C175066  10.839  12.984  19.776  0.3975 -0.0714 -0.0803
43749DOD     C275067  11.204  12.937  20.063 -0.0704  0.1213  0.1469
43749DOD     C375068  11.582  12.744  20.174 -0.4070 -0.3688 -0.1476
43750DOD     C175069   5.425   0.215  29.776 -0.0996 -0.1574 -0.2507
43750DOD     C275070   5.568   0.367  30.188 -0.0523  0.0787 -0.2753
43750DOD     C375071   5.736   0.439   0.284 -0.1387 -0.0506 -0.0303
43751DOD     C175072  13.846  17.488  10.405 -0.1722 -0.0766  0.1978
43751DOD     C275073  13.935  17.877  10.301 -0.1904 -0.3405  0.3681
43751DOD     C375074  13.815  18.337  10.271 -0.2118 -0.1471 -0.0724
43752DOD     C175075   4.246  23.309   1.446 -0.1794  0.2324  0.1859
43752DOD     C275076   4.431  23.264   1.048  0.0329 -0.0876 -0.1222
43752DOD     C375077   4.782  23.429   0.740  0.2311 -0.0840  0.0913
43753DOD     C175078  18.253   2.361  10.162  0.0458 -0.0863  0.0417
43753DOD     C275079  18.080   2.572   9.802 -0.1588 -0.1562  0.2729
43753DOD     C375080  18.082   2.505   9.320 -0.0009 -0.1180 -0.0578
43754DOD     C175081   3.597  23.518  25.652  0.1346 -0.1869 -0.0247
43754DOD     C275082   3.297  23.358  25.309 -0.3321 -0.1298  0.1448
43754DOD     C375083   3.282  23.641  24.874  0.0681 -0.0579 -0.3938
43755DOD     C175084   5.158  26.802  22.723  0.1182 -0.0066  0.1576
43755DOD     C275085   5.038  26.380  22.950  0.3031  0.1661 -0.3256
43755DOD     C375086   5.264  25.968  23.042 -0.0572  0.0479  0.0758
43756DOD     C175087  18.612  14.091  24.099 -0.0799 -0.2982  0.0821
43756DOD     C275088  18.777  14.009  23.680 -0.0854  0.1395 -0.1187
43756DOD     C375089  18.885  14.200  23.277 -0.2410  0.0652  0.0339
43757DOD     C175090   2.205  19.319  19.155 -0.1574  0.1844  0.2310
43757DOD     C275091   2.520  19.674  19.093 -0.1017  0.1150 -0.0508
43757DOD     C375092   2.851  19.855  18.804  0.2862  0.0094 -0.0748
43758DOD     C175093   4.577  27.136  23.338  0.1495  0.0045 -0.0420
43758DOD     C275094   4.188  26.859  23.303 -0.0019 -0.0491  0.0711
43758DOD     C375095   3.765  26.821  23.481  0.1307 -0.0009  0.0578
43759DOD     C175096  20.861  17.936   8.901 -0.1156  0.1785  0.1260
43759DOD     C275097  20.507  17.736   8.621 -0.0562 -0.0665 -0.0302
43759DOD     C375098  20.573  17.477   8.256 -0.2176 -0.0224 -0.2373
43760DOD     C175099  10.889  13.807  24.413 -0.1079 -0.0068  0.0744
43760DOD     C275100  10.714  13.516  24.747  0.1110  0.1136  0.0498
43760DOD     C375101  10.469  13.344  25.102  0.0845  0.2605  0.0589
43761DOD     C175102  20.181  27.432  12.586 -0.0322  0.1064 -0.2932
43761DOD     C275103  20.579  27.182  12.458  0.1585 -0.1791  0.2210
43761DOD     C375104  20.971  26.923  12.574 -0.0997  0.3387 -0.2161
43762DOD     C175105   5.040  20.948  14.691 -0.0244 -0.1874  0.0655
43762DOD     C275106   4.786  20.805  15.017 -0.4200  0.0795 -0.1554
43762DOD     C375107   4.501  20.511  15.199 -0.0786 -0.1652  0.0997
43763DOD     C175108   2.993  22.386  23.204  0.0957 -0.4642  0.1263
43763DOD     C275109   3.036  22.185  23.645  0.0131 -0.0338  0.0567
43763DOD     C375110   3.225  22.101  23.987 -0.0808 -0.0740  0.0129
43764DOD     C175111  21.822  12.191  26.840  0.0141  0.1530 -0.0899
43764DOD     C275112  21.503  12.518  26.993  0.1410  0.0659  0.3601
43764DOD     C375113  21.358  12.835  27.241  0.0560  0.0547  0.0342
43765DOD     C175114   6.410   7.357   4.234 -0.0007 -0.0272  0.1256
43765DOD     C275115   6.306   6.974   4.360 -0.2207 -0.0807  0.1869
43765DOD     C375116   5.984   6.739   4.569 -0.3148  0.3183  0.2160
43766DOD     C175117  29.224  14.410  20.256  0.1133  0.0809 -0.1342
43766DOD     C275118  29.320  13.975  20.141 -0.2057 -0.0888 -0.2385
43766DOD     C375119  29.520  13.626  20.362  0.1019  0.2475 -0.0332
43767DOD     C175120  22.167  10.674  23.506  0.2435 -0.2013  0.0348
43767DOD     C275121  22.650  10.792  23.350  0.1071 -0.3229 -0.5774
43767DOD     C375122  23.049  10.963  23.296 -0.0762 -0.1829  0.1799
43768DOD     C175123   8.405  20.159  20.333  0.1812  0.0030 -0.3481
43768DOD     C275124   8.506  20.496  20.608 -0.0871  0.1817 -0.2924
43768DOD     C375125   8.589  20.886  20.841 -0.0122 -0.1043  0.0636
43769DOD     C175126  13.364   0.802   7.391 -0.2127 -0.2211  0.1212
43769DOD     C275127  13.081   0.931   7.039  0.1727  0.0224 -0.0968
43769DOD     C375128  12.991   1.270   6.756  0.0186  0.0829  0.0162
43770DOD     C175129   8.022   7.505  15.593 -0.0017  0.3849 -0.2801
43770DOD     C275130   8.230   7.943  15.681 -0.0750  0.0222 -0.0950
43770DOD     C375131   8.523   8.258  15.932  0.0138 -0.2456  0.0724
43771DOD     C175132  13.232   5.938   6.160  0.0048  0.1208  0.0698
43771DOD     C275133  13.355   6.376   6.256 -0.0132 -0.0367 -0.1479
43771DOD     C375134  13.516   6.835   6.138  0.0443  0.0789 -0.1629
43772DOD     C175135  27.691  16.037   2.856 -0.0916  0.0620 -0.0088
43772DOD     C275136  27.516  16.159   3.252  0.4736  0.2015 -0.0302
43772DOD     C375137  27.127  16.152   3.569 -0.3510 -0.2258  0.0469
43773DOD     C175138  29.488  30.129  13.884  0.0309  0.1731  0.0812
43773DOD     C275139  29.580  29.631  13.800  0.3104  0.0763  0.1533
43773DOD     C375140  29.411  29.215  13.714 -0.0093  0.2195  0.0607
43774DOD     C175141   9.631  20.588  12.139  0.5406  0.2357 -0.0763
43774DOD     C275142   9.597  21.065  12.058  0.0986 -0.0992 -0.5309
43774DOD     C375143   9.540  21.459  12.328 -0.1590  0.1512 -0.0578
43775DOD     C175144   5.420   4.215   7.199 -0.1815  0.0085 -0.1187
43775DOD     C275145   5.157   4.527   6.970  0.2291  0.0991 -0.2352
43775DOD     C375146   4.899   4.925   6.957  0.0753 -0.0004 -0.1102
43776DOD     C175147  19.768   7.359  26.371 -0.0338 -0.0918  0.0389
43776DOD     C275148  20.003   6.925  26.302  0.1611 -0.0370 -0.0670
43776DOD     C375149  20.150   6.514  26.172 -0.3587  0.0901 -0.1829
43777DOD     C175150  22.857   3.957   1.340  0.1297  0.3156 -0.2491
43777DOD     C275151  22.587   4.233   1.084 -0.0363  0.1513  0.1923
43777DOD     C375152  22.125   4.167   0.923  0.2696  0.2230  0.1981
43778DOD     C175153  27.164   3.697   3.321 -0.2103 -0.0870  0.0554
43778DOD     C275154  27.596   3.688   3.193  0.2616 -0.4769  0.0715
43778DOD     C375155  27.871   3.582   3.508 -0.0254 -0.0616  0.0867
43779DOD     C175156   3.273   6.691  22.693 -0.0668 -0.0381 -0.1368
43779DOD     C275157   2.943   7.009  22.548  0.1014 -0.2453 -0.0668
43779DOD     C375158   2.475   7.074  22.542 -0.4031  0.0461 -0.1278
43780DOD     C175159  17.629   5.557  10.138 -0.0216 -0.1781 -0.2301
43780DOD     C275160  17.194   5.269  10.145 -0.0933  0.0735 -0.2708
43780DOD     C375161  16.773   5.428  10.122  0.0551 -0.0564  0.0076
43781DOD     C175162  15.816  21.964   6.351 -0.0467  0.1324  0.1089
43781DOD     C275163  15.794  21.839   6.797 -0.1386  0.0343  0.1130
43781DOD     C375164  15.833  21.851   7.254 -0.1277 -0.0581 -0.1484
43782DOD     C175165  17.105   6.933  14.922  0.3007  0.1816  0.4792
43782DOD     C275166  17.015   6.877  14.434  0.0297 -0.1246  0.0665
43782DOD     C375167  16.701   7.108  14.147 -0.1413  0.0998  0.2678
43783DOD     C175168  24.612  13.102   7.301 -0.0302  0.2443  0.2585
43783DOD     C275169  24.719  12.941   6.856  0.0267 -0.0128  0.0362
43783DOD     C375170  25.123  13.067   6.562  0.4501 -0.1836 -0.0681
43784DOD     C175171  25.179   4.088  20.546  0.0421  0.0202 -0.1018
43784DOD     C275172  24.995   3.715  20.338 -0.1330 -0.0230  0.4091
43784DOD     C375173  24.726   3.440  20.040  0.2401 -0.1841  0.2050
43785DOD     C175174   9.008  16.441  14.850  0.2328  0.3782  0.1522
43785DOD     C275175   8.974  16.250  15.296 -0.1649 -0.1448 -0.0905
43785DOD     C375176   8.571  16.338  15.563 -0.0164 -0.1893 -0.0588
43786DOD     C175177   4.146  20.907  14.396 -0.1384  0.0511  0.0231
43786DOD     C275178   4.332  20.631  14.685  0.0554 -0.1325  0.1591
43786DOD     C375179   4.212  20.186  14.812  0.1791 -0.3449  0.1190
43787DOD     C175180  11.421  28.269  11.888  0.0025 -0.0214 -0.0419
43787DOD     C275181  11.532  27.865  12.147  0.3370 -0.0861  0.1212
43787DOD     C375182  11.297  27.517  12.352 -0.1926 -0.0515 -0.1501
43788DOD     C175183  29.969   7.516  21.387 -0.1413  0.0724  0.0382
43788DOD     C275184  30.120   7.316  20.991  0.2769 -0.0453 -0.1404
43788DOD     C375185  30.109   7.273  20.515  0.1580  0.1241 -0.2290
43789DOD     C175186   7.387   8.866  14.585 -0.1146  0.0379 -0.1152
43789DOD     C275187   7.670   9.102  14.317 -0.0783  0.5572 -0.2721
43789DOD     C375188   8.046   9.350  14.250 -0.0813 -0.1293  0.2118
43790DOD     C175189   4.253  13.356   6.286  0.0038 -0.2692  0.1923
43790DOD     C275190   4.721  13.459   6.291 -0.1016 -0.0914  0.2413
43790DOD     C375191   4.848  13.849   6.486  0.2194 -0.0141  0.0660
43791DOD     C175192  13.213  14.693   6.349 -0.2818 -0.0716  0.0439
43791DOD     C275193  13.645  14.767   6.305  0.3185  0.0203  0.0650
43791DOD     C375194  14.118  14.848   6.252  0.1265 -0.2373 -0.0676
43792DOD     C175195  11.080  27.822   3.253  0.0807 -0.1899  0.0408
43792DOD     C275196  10.904  27.414   3.125  0.1020 -0.2945  0.5164
43792DOD     C375197  10.681  27.292   2.721  0.0132 -0.2492  0.3632
43793DOD     C175198  29.737  16.532   3.615  0.2102  0.1192  0.3763
43793DOD     C275199  29.264  16.667   3.723 -0.0192  0.0996  0.0393
43793DOD     C375200  28.874  16.421   3.856 -0.0977  0.0983 -0.1563
43794DOD     C175201  15.943   6.412  28.421  0.1440 -0.2134 -0.1582
43794DOD     C275202  16.122   5.995  28.372  0.2073 -0.6290  0.0034
43794DOD     C375203  16.213   5.589  28.158  0.0792  0.2709  0.0436
43795DOD     C175204   6.616   9.116  18.260  0.2623 -0.4071  0.1341
43795DOD     C275205   6.359   9.484  18.098 -0.0653  0.2435 -0.3146
43795DOD     C375206   6.127   9.920  18.099 -0.2542  0.1287  0.2318
43796DOD     C175207   2.536  20.796   6.006  0.0944  0.2617  0.1230
43796DOD     C275208   2.687  20.543   6.405  0.1920 -0.0094  0.0198
43796DOD     C375209   2.690  20.197   6.754  0.0260  0.0975 -0.1377
43797DOD     C175210  18.016  29.543  20.478  0.1189 -0.0105  0.2054
43797DOD     C275211  17.843  29.604  20.950  0.1571  0.1891  0.0433
43797DOD     C375212  17.951  29.454  21.385 -0.0030 -0.1575 -0.2010
43798DOD     C175213   2.716   5.489  14.563  0.3507 -0.0324  0.1820
43798DOD     C275214   2.980   5.620  14.891 -0.0467  0.1095 -0.3231
43798DOD     C375215   3.209   5.711  15.290  0.0444  0.4411 -0.0846
43799DOD     C175216  23.801  27.105  11.655  0.0031  0.3158  0.0589
43799DOD     C275217  24.239  27.316  11.662  0.2371  0.0671  0.0651
43799DOD     C375218  24.561  27.612  11.881 -0.0306 -0.3677  0.1797
43800DOD     C175219  12.795   7.446  14.714 -0.2004  0.1069 -0.1950
43800DOD     C275220  12.416   7.567  14.484 -0.0652  0.0461 -0.0313
43800DOD     C375221  12.337   7.599  14.084  0.3017 -0.0518 -0.0606
43801DOD     C175222  18.015   7.683   0.574 -0.2579 -0.0940  0.1664
43801DOD     C275223  17.725   7.932   0.376  0.0938 -0.1940 -0.2561
43801DOD     C375224  17.442   7.889  -0.002 -0.2811  0.2310 -0.0681
43802DOD     C175225  30.198  21.100  29.023 -0.2231  0.1176  0.2968
43802DOD     C275226  29.898  20.910  29.284  0.1069 -0.2298  0.0178
43802DOD     C375227  29.659  20.730  29.675  0.1298 -0.1356 -0.0611
43803DOD     C175228   0.893  28.510  26.614  0.1030  0.0825 -0.5477
43803DOD     C275229   0.579  28.350  26.898 -0.0733 -0.1902 -0.1454
43803DOD     C375230   0.334  28.560  27.310 -0.1374  0.1210  0.0475
43804DOD     C175231  16.083  21.764  23.803 -0.1396 -0.4431  0.1475
43804DOD     C275232  15.906  21.495  24.166 -0.0679  0.0403 -0.2035
43804DOD     C375233  15.848  21.011  24.330  0.1576  0.1640 -0.0084
43805DOD     C175234  25.287  30.122  28.288  0.0395 -0.0973 -0.2077
43805DOD     C275235  25.472  29.934  28.633  0.0706 -0.0351 -0.5343
43805DOD     C375236  25.422  29.825  29.075 -0.4814 -0.1365 -0.3987
43806DOD     C175237  20.752  18.818  10.728 -0.1759 -0.2269 -0.0707
43806DOD     C275238  20.666  19.199  10.460  0.1104 -0.0268 -0.0459
43806DOD     C375239  21.017  19.183  10.033 -0.2032  0.1425  0.0199
43807DOD     C175240  10.301   8.751  29.953 -0.2846  0.0411  0.1394
43807DOD     C275241  10.578   8.915  29.600  0.0755 -0.1417 -0.1825
43807DOD     C375242  10.674   9.426  29.513  0.0461 -0.1885  0.0665
43808DOD     C175243  10.283  24.049  12.578 -0.1243  0.3856 -0.0988
43808DOD     C275244  10.230  24.173  13.056  0.2110 -0.0409  0.2902
43808DOD     C375245   9.777  24.293  13.054 -0.2198 -0.0854 -0.0565
43809DOD     C175246  28.899   5.861  10.762 -0.0959  0.1716 -0.2198
43809DOD     C275247  29.089   6.179  11.032  0.3622 -0.2339 -0.0930
43809DOD     C375248  28.946   6.265  11.460 -0.1981  0.1175  0.1703
43810DOD     C175249  15.018  26.550  26.674  0.3704  0.3331 -0.1084
43810DOD     C275250  14.863  26.937  26.821 -0.3100  0.0382  0.3488
43810DOD     C375251  14.528  27.175  27.084  0.2332  0.0136 -0.0781
43811DOD     C175252  23.967   9.212   8.623 -0.2865  0.1863  0.0087
43811DOD     C275253  24.197   9.542   8.448  0.2024 -0.1888  0.2599
43811DOD     C375254  24.602   9.654   8.301 -0.0709 -0.0933 -0.0276
43812DOD     C175255  27.780   3.064  11.508  0.3649  0.1584  0.0667
43812DOD     C275256  27.962   3.066  11.071 -0.0652  0.1092 -0.0889
43812DOD     C375257  28.213   2.947  10.677 -0.1648 -0.0166  0.0847
43813DOD     C175258  23.695   4.504  17.469  0.0945  0.2292  0.2721
43813DOD     C275259  23.523   4.091  17.255 -0.0381 -0.2534  0.1008
43813DOD     C375260  23.325   3.819  16.991 -0.2595  0.0718  0.0045
43814DOD     C175261   2.944   2.809  11.806 -0.3079 -0.2081  0.0489
43814DOD     C275262   3.149   2.754  12.256  0.1329  0.1728  0.1974
43814DOD     C375263   3.468   2.681  12.579 -0.0679  0.1583  0.2063
43815DOD     C175264  26.697   7.559  11.841 -0.3299  0.0118 -0.1071
43815DOD     C275265  27.000   7.470  11.498 -0.2734  0.4582  0.1240
43815DOD     C375266  27.448   7.454  11.247  0.0962 -0.0784 -0.0421
43816DOD     C175267  23.431  19.001  15.612  0.0818 -0.1426  0.0440
43816DOD     C275268  23.286  19.283  15.261 -0.0674 -0.1674 -0.0081
43816DOD     C375269  22.967  19.279  14.985  0.0119 -0.2279 -0.0915
43817DOD     C175270  14.859  24.535  19.001  0.1173 -0.1251 -0.2718
43817DOD     C275271  14.644  24.126  18.798  0.1867 -0.2953  0.0932
43817DOD     C375272  14.263  23.840  18.791  0.3092  0.0112  0.3031
43818DOD     C175273  26.921  15.358   8.330  0.0998  0.1233  0.0394
43818DOD     C275274  26.523  15.529   8.038 -0.2720 -0.0053  0.1204
43818DOD     C375275  26.473  15.635   7.600 -0.2349  0.0691 -0.1646
43819DOD     C175276  16.149  12.312   7.336  0.0529 -0.1722  0.0302
43819DOD     C275277  15.705  12.218   7.464  0.0691 -0.1509  0.1256
43819DOD     C375278  15.399  11.849   7.591 -0.0626  0.0048 -0.1036
43820DOD     C175279   4.065  24.451  26.736  0.2343  0.0463 -0.2732
43820DOD     C275280   3.828  24.848  26.814 -0.0745  0.3653  0.2085
43820DOD     C375281   3.432  24.998  26.694  0.0887  0.0951 -0.1515
43821DOD     C175282  23.184  26.615  17.638 -0.0532 -0.1161 -0.0777
43821DOD     C275283  23.470  26.956  17.754 -0.0793 -0.1070 -0.1278
43821DOD     C375284  23.745  27.197  18.049 -0.1429  0.0144  0.1008
43822DOD     C175285   3.530  21.396   0.917 -0.3195  0.0755 -0.0871
43822DOD     C275286   3.376  21.252   1.347  0.1652 -0.0500 -0.4205
43822DOD     C375287   3.560  21.056   1.759  0.0770  0.1077 -0.2054
43823DOD     C175288  11.279  15.069  26.431 -0.2215  0.1544  0.3743
43823DOD     C275289  11.210  15.490  26.565  0.0293  0.2095 -0.0996
43823DOD     C375290  11.140  15.864  26.398  0.4434  0.0194  0.3485
43824DOD     C175291  28.610  25.444  25.997  0.0009  0.1517 -0.3977
43824DOD     C275292  28.362  25.096  26.090  0.0048 -0.1881 -0.1898
43824DOD     C375293  28.019  25.029  26.357  0.0558  0.1310 -0.1298
43825DOD     C175294  18.220  24.778  27.961 -0.2889  0.0127 -0.3332
43825DOD     C275295  18.308  24.470  28.302  0.0700 -0.0026  0.0966
43825DOD     C375296  18.238  24.052  28.344 -0.1643  0.1081 -0.2362
43826DOD     C175297   9.312  24.849  28.875 -0.0925 -0.1777 -0.1800
43826DOD     C275298   9.245  24.564  28.503  0.1760 -0.2370 -0.1089
43826DOD     C375299   9.119  24.170  28.518  0.3831  0.1610 -0.0792
43827DOD     C175300  26.767  20.650  16.065  0.0025 -0.2143 -0.0993
43827DOD     C275301  27.174  20.599  15.794  0.0897  0.0339  0.3895
43827DOD     C375302  27.526  20.725  15.581 -0.0014 -0.0426 -0.2153
43828DOD     C175303   0.563  25.992  23.995 -0.1031  0.0039  0.2412
43828DOD     C275304   0.619  25.660  24.373 -0.3045 -0.1210 -0.1453
43828DOD     C375305   0.567  25.249  24.519  0.2144  0.0259 -0.1300
43829DOD     C175306  13.827  11.227  26.323  0.1897  0.4221 -0.2602
43829DOD     C275307  13.673  10.959  25.955  0.2332  0.2759 -0.2300
43829DOD     C375308  13.610  10.940  25.491  0.1105  0.2794 -0.0326
43830DOD     C175309  22.771  25.537  24.313 -0.0222 -0.0496 -0.2445
43830DOD     C275310  22.364  25.623  24.379 -0.3838  0.2210 -0.0522
43830DOD     C375311  21.958  25.740  24.269  0.0149 -0.3203  0.0907
43831DOD     C175312  26.031   8.037   6.851  0.4474 -0.1954 -0.0151
43831DOD     C275313  25.547   8.043   6.705 -0.2836  0.0311 -0.2921
43831DOD     C375314  25.278   8.443   6.604  0.2086  0.2287  0.0176
43832DOD     C175315  12.820  24.058   1.074 -0.1602 -0.1733 -0.0896
43832DOD     C275316  12.879  24.509   0.924  0.2046  0.0974  0.0989
43832DOD     C375317  13.092  24.902   0.955  0.0957  0.0511  0.1102
43833DOD     C175318   8.516  11.569  15.716  0.3797 -0.1067 -0.1172
43833DOD     C275319   8.899  11.595  15.435 -0.1495  0.3967  0.1636
43833DOD     C375320   9.185  11.634  15.100 -0.0584  0.2738 -0.0043
43834DOD     C175321  26.808   6.125  29.801  0.2082 -0.1793 -0.0998
43834DOD     C275322  26.486   5.940  29.468  0.2697 -0.4601 -0.0181
43834DOD     C375323  26.304   5.504  29.372  0.0991 -0.3687 -0.3782
43835DOD     C175324   7.711   1.182  23.001 -0.2149  0.2906  0.0444
43835DOD     C275325   7.418   1.168  22.658 -0.0748 -0.1752 -0.0622
43835DOD     C375326   7.146   1.189  22.321  0.0326 -0.0601  0.3420
43836DOD     C175327  29.504  27.934   1.125  0.0789  0.2381 -0.3336
43836DOD     C275328  29.522  27.473   1.415  0.1903  0.0020  0.3189
43836DOD     C375329  29.528  26.965   1.361 -0.2047  0.2361 -0.2605
43837DOD     C175330  25.859  26.656  26.828 -0.0732 -0.1323 -0.2200
43837DOD     C275331  26.045  26.509  27.207 -0.1415  0.2618 -0.4460
43837DOD     C375332  26.368  26.279  27.449 -0.1449 -0.0133 -0.0462
43838DOD     C175333  17.021   9.785  25.224 -0.0812 -0.3395  0.0620
43838DOD     C275334  17.282  10.115  25.517 -0.0363  0.1556  0.2233
43838DOD     C375335  17.653  10.221  25.624 -0.0877 -0.2228  0.1009
43839DOD     C175336  24.797  18.195  20.238  0.1145 -0.0042 -0.1804
43839DOD     C275337  25.198  18.282  19.944 -0.3148 -0.0873 -0.2943
43839DOD     C375338  25.505  18.484  19.637 -0.0051  0.1654  0.0505
43840DOD     C175339  18.074   5.279   3.350  0.0428 -0.2309 -0.2264
43840DOD     C275340  18.022   5.557   2.956 -0.1644  0.1397  0.1678
43840DOD     C375341  17.937   5.784   2.570  0.6513  0.1050 -0.1850
43841DOD     C175342   6.412  27.820  19.043  0.3359  0.1019  0.0185
43841DOD     C275343   6.471  27.900  19.477 -0.1745 -0.0603  0.1926
43841DOD     C375344   6.711  28.158  19.843  0.1218  0.0340 -0.0957
43842DOD     C175345  28.308  24.858  27.964 -0.0976 -0.1472 -0.0558
43842DOD     C275346  28.589  24.627  28.266 -0.1894 -0.3134  0.3369
43842DOD     C375347  28.878  24.682  28.666 -0.1190 -0.1320  0.0002
43843DOD     C175348  12.389  29.282  25.853 -0.1890  0.0065 -0.0847
43843DOD     C275349  12.289  29.097  26.233 -0.0764  0.0098  0.2747
43843DOD     C375350  12.595  28.841  26.465 -0.2437  0.2072  0.3877
43844DOD     C175351  28.069  22.146   1.561 -0.3744  0.2395  0.3197
43844DOD     C275352  27.886  21.950   2.004 -0.2241  0.1409 -0.1158
43844DOD     C375353  27.688  21.545   2.049  0.0729 -0.1940  0.0832
43845DOD     C175354  21.950   8.354  15.282  0.1637 -0.2468 -0.0135
43845DOD     C275355  21.810   8.000  15.573 -0.1465  0.1915 -0.0317
43845DOD     C375356  21.892   7.577  15.404  0.1121  0.1262 -0.0497
43846DOD     C175357   2.601  25.431  13.424  0.1062  0.1912 -0.3657
43846DOD     C275358   2.764  25.346  13.843 -0.1516  0.0674  0.1538
43846DOD     C375359   2.758  25.044  14.240 -0.0359 -0.2534  0.1194
43847DOD     C175360  25.333   0.901  11.464  0.1700 -0.3029  0.0653
43847DOD     C275361  25.214   1.280  11.228  0.0120 -0.1741  0.0119
43847DOD     C375362  25.192   1.681  10.956  0.0374  0.2175 -0.2876
43848DOD     C175363   5.148  29.627  28.150 -0.2910  0.0597 -0.0057
43848DOD     C275364   5.570  29.890  27.996 -0.1000 -0.4688 -0.4245
43848DOD     C375365   5.736  30.159  27.705 -0.3077 -0.0628  0.2959
43849DOD     C175366  16.461  21.314  14.769  0.1741 -0.0646 -0.0883
43849DOD     C275367  16.483  21.757  14.708  0.2064  0.1504  0.0727
43849DOD     C375368  16.673  22.115  14.531 -0.1073  0.0071  0.0155
43850DOD     C175369  27.046   7.820   2.686  0.1131  0.1769  0.1798
43850DOD     C275370  27.409   7.940   2.917 -0.4558  0.0814 -0.1945
43850DOD     C375371  27.581   8.325   3.063  0.2242  0.0818 -0.1326
43851DOD     C175372  28.839  22.837  15.473 -0.0825 -0.0559 -0.1793
43851DOD     C275373  28.459  22.599  15.512  0.0282  0.0820  0.1627
43851DOD     C375374  28.014  22.525  15.351 -0.2563  0.2109  0.0717
43852DOD     C175375  12.808  10.774  17.340 -0.0983  0.0821  0.0485
43852DOD     C275376  13.241  10.884  17.287  0.2898  0.1654 -0.1564
43852DOD     C375377  13.591  11.164  17.126  0.1906 -0.1202 -0.0610
43853DOD     C175378  19.746   4.658  21.582 -0.0134 -0.1742  0.0944
43853DOD     C275379  19.704   4.223  21.367 -0.2754  0.1980  0.0243
43853DOD     C375380  19.356   4.188  21.023 -0.0795  0.0273  0.0930
43854DOD     C175381   3.901   3.211  10.558  0.0803  0.1548 -0.0807
43854DOD     C275382   3.938   2.982  10.200  0.1636 -0.1674  0.1480
43854DOD     C375383   3.980   2.987   9.753 -0.1378 -0.0264  0.1043
43855DOD     C175384   5.554  16.943   6.999  0.1863  0.0852  0.1585
43855DOD     C275385   5.267  16.585   6.984 -0.0012 -0.1542 -0.0057
43855DOD     C375386   4.925  16.501   7.325  0.1232  0.6816  0.3777
43856DOD     C175387  27.616  10.293   3.338  0.3247  0.2072  0.0177
43856DOD     C275388  27.902  10.212   3.008 -0.1969 -0.2739  0.0317
43856DOD     C375389  28.249  10.342   2.682  0.1129  0.1780  0.0419
43857DOD     C175390  25.078  20.437   3.479 -0.0295  0.0844 -0.0616
43857DOD     C275391  25.349  20.799   3.701 -0.0634  0.2247 -0.0462
43857DOD     C375392  25.331  21.311   3.645  0.1693  0.2175  0.1088
43858DOD     C175393   1.437  12.562   2.816  0.2174 -0.1650  0.1229
43858DOD     C275394   1.645  12.278   2.594 -0.2234  0.3585 -0.3785
43858DOD     C375395   1.879  11.979   2.927  0.0478 -0.4323 -0.1121
43859DOD     C175396  24.155  21.574   0.449 -0.2225 -0.0677 -0.0144
43859DOD     C275397  23.909  21.370   0.742  0.2371  0.2678 -0.1040
43859DOD     C375398  23.836  20.971   0.833  0.1200  0.1213  0.2573
43860DOD     C175399  17.958   8.389  14.702  0.0117 -0.0601  0.1469
43860DOD     C275400  18.000   8.331  15.168 -0.1968 -0.1973 -0.2133
43860DOD     C375401  17.951   8.224  15.626  0.1446 -0.0960 -0.1713
43861DOD     C175402  28.916  22.039   6.463  0.1476 -0.0892  0.1621
43861DOD     C275403  29.287  21.988   6.237  0.0059  0.0973  0.2520
43861DOD     C375404  29.471  22.158   5.870 -0.0603  0.0557 -0.1486
43862DOD     C175405  28.204   3.213   1.907 -0.2518  0.0130  0.0198
43862DOD     C275406  28.530   2.865   1.796  0.0516  0.1223 -0.0426
43862DOD     C375407  28.949   2.889   1.621  0.0221  0.2057 -0.0917
43863DOD     C175408  10.878  19.943  19.618  0.0949  0.2749 -0.1322
43863DOD     C275409  10.665  20.064  19.226  0.0823 -0.4090 -0.0433
43863DOD     C375410  10.809  20.173  18.804  0.1967 -0.0504  0.2725
43864DOD     C175411   2.594   3.343  18.220  0.2272 -0.1079  0.1815
43864DOD     C275412   2.982   3.143  18.283  0.4286  0.0153  0.0991
43864DOD     C375413   3.239   2.880  18.017 -0.1935 -0.2051 -0.0305
43865DOD     C175414  21.545   0.221  18.415  0.0172 -0.0819  0.2219
43865DOD     C275415  21.748   0.440  18.756 -0.0779  0.0002 -0.2032
43865DOD     C375416  22.159   0.517  19.085  0.1713 -0.3556  0.0556
43866DOD     C175417  23.803  25.296   3.368 -0.0159  0.0368  0.1043
43866DOD     C275418  23.442  24.968   3.430  0.0755  0.1206  0.0481
43866DOD     C375419  22.999  24.889   3.678 -0.0751  0.2683  0.0499
43867DOD     C175420   3.125   8.178   7.092  0.1170  0.4626 -0.2122
43867DOD     C275421   3.375   7.983   6.712 -0.3714 -0.0990  0.1194
43867DOD     C375422   3.754   7.949   6.542  0.2474  0.4470  0.0377
43868DOD     C175423   2.359  29.448  19.571 -0.1613 -0.2767 -0.5067
43868DOD     C275424   2.188  29.620  19.930 -0.1196  0.1968  0.1575
43868DOD     C375425   1.877  29.764  20.246  0.2838 -0.3290 -0.0837
43869DOD     C175426  24.073   4.608   8.296 -0.1361 -0.1233 -0.2542
43869DOD     C275427  24.259   5.014   8.072  0.1058  0.0948 -0.2667
43869DOD     C375428  24.140   5.378   7.856  0.0355  0.2031 -0.0417
43870DOD     C175429  19.557  12.059  16.796  0.2034  0.1655 -0.3498
43870DOD     C275430  19.919  12.148  16.525 -0.0780 -0.0744 -0.3396
43870DOD     C375431  20.347  12.252  16.324 -0.1801 -0.1121 -0.1907
43871DOD     C175432  18.587  12.363  11.238  0.0132  0.0740  0.0668
43871DOD     C275433  18.757  12.567  11.639 -0.3065  0.0949  0.1821
43871DOD     C375434  18.543  12.769  11.967  0.4461  0.1841  0.2994
43872DOD     C175435   0.473   8.948  15.825  0.2267  0.0044  0.0549
43872DOD     C275436   0.267   8.746  15.441  0.2790 -0.0445  0.1111
43872DOD     C375437  30.337   8.385  15.437  0.1633 -0.0077  0.0550
43873DOD     C175438  24.935   1.838  24.346  0.0062  0.0589 -0.0900
43873DOD     C275439  24.566   2.112  24.383 -0.1241  0.0075  0.2741
43873DOD     C375440  24.269   2.430  24.511 -0.2066 -0.1271  0.2102
43874DOD     C175441  14.155  29.480  18.106 -0.0246  0.0130 -0.2138
43874DOD     C275442  14.609  29.454  18.221  0.0555  0.0175  0.4987
43874DOD     C375443  14.913  29.822  18.209 -0.1001  0.1882  0.1771
43875DOD     C175444  10.019   9.179   2.214 -0.5726  0.4200  0.3041
43875DOD     C275445   9.726   9.514   2.304 -0.3643 -0.0396 -0.2134
43875DOD     C375446   9.689   9.930   2.107  0.1021  0.0498 -0.0389
43876DOD     C175447   9.190  12.473  26.350 -0.0592 -0.2927  0.1021
43876DOD     C275448   8.776  12.646  26.298  0.1511  0.3175  0.2698
43876DOD     C375449   8.323  12.592  26.360  0.0300  0.1749 -0.5025
43877DOD     C175450   1.484   8.723  23.977 -0.0726 -0.3333  0.2623
43877DOD     C275451   1.577   8.514  24.371 -0.0744 -0.0876 -0.1412
43877DOD     C375452   1.724   8.605  24.824  0.4249 -0.2491  0.1272
43878DOD     C175453  14.604   7.935  22.947 -0.2168  0.0002  0.1511
43878DOD     C275454  14.392   7.543  22.947  0.0053 -0.4668 -0.1682
43878DOD     C375455  14.450   7.132  23.040 -0.0880 -0.0400  0.0578
43879DOD     C175456  12.694  19.611  24.173  0.0289  0.2038 -0.0210
43879DOD     C275457  12.865  19.366  23.869 -0.3484 -0.0814  0.0974
43879DOD     C375458  13.108  19.403  23.423  0.0122 -0.2719  0.0524
43880DOD     C175459  22.860  23.527  21.224  0.0462 -0.0173 -0.1306
43880DOD     C275460  23.118  23.144  21.163  0.3403 -0.1483 -0.2857
43880DOD     C375461  23.101  22.903  20.822 -0.1995 -0.0827  0.0052
43881DOD     C175462  24.665  20.791  22.292 -0.4238 -0.0461  0.0639
43881DOD     C275463  24.395  20.455  22.323 -0.0782  0.2056  0.1754
43881DOD     C375464  24.148  20.219  22.061  0.1703  0.0991 -0.0931
43882DOD     C175465   0.228  11.030  20.192  0.1787  0.2123  0.1165
43882DOD     C275466   0.536  10.749  19.966 -0.3061  0.0416 -0.0157
43882DOD     C375467   0.837  10.840  19.569  0.0844 -0.4094 -0.0280
43883DOD     C175468  10.658   7.157   4.995 -0.1905 -0.1385  0.1112
43883DOD     C275469  10.990   7.493   5.026 -0.2888 -0.0930 -0.1731
43883DOD     C375470  11.122   7.937   4.826 -0.1353 -0.3094  0.3624
43884DOD     C175471  13.332   0.740  27.006  0.1213 -0.0514 -0.0366
43884DOD     C275472  13.482   1.175  26.951 -0.1417 -0.1854 -0.0871
43884DOD     C375473  13.640   1.623  27.128  0.0776 -0.3708  0.2572
43885DOD     C175474  20.591   9.693   6.063 -0.1601  0.1437  0.0578
43885DOD     C275475  21.032   9.548   6.192  0.1207 -0.0287  0.0788
43885DOD     C375476  21.301   9.277   6.484  0.1578 -0.1009  0.1605
43886DOD     C175477  10.613   3.249  20.560  0.1784  0.0697  0.0581
43886DOD     C275478  10.568   3.028  21.016  0.1721 -0.2054  0.0355
43886DOD     C375479  10.471   2.731  21.404 -0.0871  0.1044  0.2605
43887DOD     C175480  17.738  22.083  15.904  0.0480 -0.2812  0.3042
43887DOD     C275481  17.465  22.357  15.672  0.1531 -0.1090 -0.0980
43887DOD     C375482  17.179  22.534  15.362 -0.1205 -0.1165  0.2358
43888DOD     C175483   1.305  24.082  19.796  0.0769 -0.1728  0.1355
43888DOD     C275484   0.957  24.450  19.871 -0.0375  0.1541  0.2305
43888DOD     C375485   0.850  24.881  20.134  0.0721 -0.0761  0.2036
43889DOD     C175486  12.933  28.204   7.466 -0.0060  0.1334 -0.3154
43889DOD     C275487  13.262  28.381   7.729 -0.0042 -0.2664 -0.0323
43889DOD     C375488  13.561  28.652   7.631  0.0382  0.0954  0.0328
43890DOD     C175489  22.923   3.119  21.207 -0.2085 -0.3482  0.0317
43890DOD     C275490  22.733   2.682  21.113 -0.3297 -0.2765  0.2728
43890DOD     C375491  22.432   2.350  21.284 -0.1172 -0.2590 -0.0546
43891DOD     C175492  27.324  10.187  13.051  0.1313  0.2898 -0.3155
43891DOD     C275493  27.430  10.261  12.567  0.0754  0.1679 -0.2576
43891DOD     C375494  27.590  10.199  12.158  0.0737 -0.1918  0.2089
43892DOD     C175495   3.284  21.126  15.167 -0.0258  0.1692  0.0502
43892DOD     C275496   3.485  20.687  15.183 -0.1525 -0.1402  0.3325
43892DOD     C375497   3.709  20.342  15.347  0.2663  0.1875  0.4409
43893DOD     C175498  18.734  29.016  17.358 -0.0309 -0.2648 -0.0409
43893DOD     C275499  18.395  28.747  17.218 -0.3441 -0.3839 -0.0788
43893DOD     C375500  18.412  28.308  17.429  0.2697  0.3574  0.0102
43894DOD     C175501  29.435  20.706   5.986 -0.0315 -0.3606  0.1005
43894DOD     C275502  29.840  20.614   6.183 -0.0835  0.1555 -0.0739
43894DOD     C375503  -0.007  20.649   6.114 -0.1139  0.1944  0.1325
43895DOD     C175504   4.469  28.378  16.789  0.1327 -0.2029  0.1349
43895DOD     C275505   4.464  28.564  16.411  0.3325  0.3605 -0.1069
43895DOD     C375506   4.427  28.409  15.941  0.0629 -0.2860 -0.0489
43896DOD     C175507  25.856  24.676   9.301  0.0446  0.1964  0.1347
43896DOD     C275508  25.894  24.259   9.592  0.2485 -0.2861 -0.1359
43896DOD     C375509  25.810  23.873   9.877 -0.0541 -0.2541  0.0529
43897DOD     C175510   5.753  13.646  18.839  0.1158 -0.1984  0.0708
43897DOD     C275511   5.759  13.691  18.338  0.3326  0.0922 -0.2182
43897DOD     C375512   5.875  13.682  17.843  0.0797 -0.0203 -0.3974
43898DOD     C175513  14.135   1.212   9.502  0.0620  0.1470  0.2828
43898DOD     C275514  14.142   0.754   9.390 -0.0172 -0.1170  0.2142
43898DOD     C375515  14.259   0.379   9.152  0.1618  0.5812 -0.1702
43899DOD     C175516   7.839  11.623  17.106  0.0488 -0.1436 -0.2004
43899DOD     C275517   7.754  12.015  17.233 -0.0246  0.0931  0.0176
43899DOD     C375518   7.638  12.476  17.307 -0.0155 -0.0480  0.1667
43900DOD     C175519  11.892  26.498  15.479 -0.0440 -0.1502  0.3063
43900DOD     C275520  11.761  26.089  15.599 -0.0643 -0.0370 -0.2557
43900DOD     C375521  11.606  25.668  15.814 -0.0851  0.2650  0.1983
43901DOD     C175522   9.362   5.219  21.505  0.1850  0.1738 -0.0325
43901DOD     C275523   9.518   4.883  21.259 -0.2025 -0.2312 -0.2310
43901DOD     C375524   9.780   4.515  21.322 -0.2396 -0.0469  0.0289
43902DOD     C175525  23.458  25.676  15.664 -0.0904  0.1410 -0.0143
43902DOD     C275526  23.742  25.444  15.330 -0.0435  0.3933  0.0955
43902DOD     C375527  24.162  25.233  15.305 -0.1289  0.0259 -0.2902
43903DOD     C175528  17.485  13.110  12.124 -0.2091  0.3033 -0.0417
43903DOD     C275529  17.644  13.509  11.977  0.3116  0.0428 -0.0396
43903DOD     C375530  17.368  13.918  11.931 -0.0459  0.0113  0.1643
43904DOD     C175531   2.909   0.784  19.561 -0.2139 -0.0946  0.0762
43904DOD     C275532   2.680   0.903  19.941  0.0197 -0.0500  0.0014
43904DOD     C375533   2.642   0.701  20.439 -0.0014 -0.0281  0.1020
43905DOD     C175534  29.193  24.397   8.334  0.4236  0.0208 -0.0214
43905DOD     C275535  29.057  24.352   7.904  0.0612  0.0540 -0.0951
43905DOD     C375536  29.000  24.520   7.461  0.1721 -0.2764 -0.0534
43906DOD     C175537  27.583  24.200  22.363 -0.1117 -0.1959  0.0638
43906DOD     C275538  27.609  24.411  21.935  0.1715  0.2431 -0.0340
43906DOD     C375539  27.548  24.561  21.470 -0.2149  0.1453 -0.1673
43907DOD     C175540   5.636  15.603  25.922 -0.1945 -0.4077 -0.3302
43907DOD     C275541   6.039  15.629  26.264  0.2360 -0.0014 -0.0080
43907DOD     C375542   6.506  15.737  26.306  0.1775 -0.0504  0.1275
43908DOD     C175543   2.594  13.232   8.928  0.1144 -0.1894  0.0506
43908DOD     C275544   2.217  13.161   8.715  0.2273  0.0039 -0.0529
43908DOD     C375545   1.848  13.039   8.484 -0.0238 -0.3737 -0.3229
43909DOD     C175546   8.137  24.021  20.610  0.0141  0.2895  0.1524
43909DOD     C275547   8.538  23.761  20.639  0.1084  0.0465  0.1816
43909DOD     C375548   8.696  23.365  20.531  0.0288 -0.1473 -0.1826
43910DOD     C175549   0.630  24.355  27.814  0.0859 -0.1032 -0.2665
43910DOD     C275550   0.862  24.317  27.398 -0.3185 -0.3185  0.1595
43910DOD     C375551   1.073  24.004  27.063 -0.0161 -0.3492  0.0419
43911DOD     C175552  28.462  12.599  22.836 -0.1577  0.1134  0.1067
43911DOD     C275553  28.815  12.423  23.147  0.0607  0.0198 -0.3570
43911DOD     C375554  28.835  12.449  23.636  0.2130 -0.0732 -0.0257
43912DOD     C175555  12.454   1.642  16.624 -0.0775 -0.0209  0.1007
43912DOD     C275556  12.444   1.614  16.170 -0.0361 -0.0674  0.1241
43912DOD     C375557  12.657   1.290  15.834  0.1801  0.2799 -0.1258
43913DOD     C175558   6.151  19.192   4.520 -0.2175  0.1446  0.3058
43913DOD     C275559   5.834  18.929   4.739  0.1846  0.4508 -0.1828
43913DOD     C375560   5.569  18.977   5.105 -0.2172 -0.0889 -0.2135
43914DOD     C175561   1.430   2.288   7.886 -0.0438  0.1441 -0.0162
43914DOD     C275562   1.140   2.219   8.308  0.1465  0.0552  0.1773
43914DOD     C375563   0.697   2.386   8.340 -0.1002  0.0714 -0.0560
43915DOD     C175564  10.220  29.395   8.022 -0.2416  0.0172 -0.0753
43915DOD     C275565  10.354  29.301   7.572 -0.2029 -0.1727 -0.2854
43915DOD     C375566  10.183  29.200   7.137 -0.0383  0.1324 -0.1906
43916DOD     C175567   2.823  19.363  24.524  0.0406  0.0873 -0.0807
43916DOD     C275568   3.209  19.201  24.492 -0.1874 -0.1368  0.1732
43916DOD     C375569   3.327  18.791  24.386  0.0514 -0.0564  0.2739
43917DOD     C175570  15.070  17.680   8.136 -0.1722  0.0221  0.0526
43917DOD     C275571  14.701  17.715   8.497  0.0300  0.0709 -0.0675
43917DOD     C375572  14.633  17.454   8.909  0.1173  0.0573  0.0061
43918DOD     C175573  16.217  10.280  22.834 -0.3764  0.0785 -0.0251
43918DOD     C275574  16.292   9.876  22.647 -0.4525  0.2179 -0.2012
43918DOD     C375575  16.599   9.764  22.343 -0.2818  0.2168  0.1636
43919DOD     C175576   9.312   2.747  26.807  0.0371  0.0261  0.0396
43919DOD     C275577   9.432   2.539  26.359 -0.3889  0.1107  0.1709
43919DOD     C375578   9.787   2.543  26.057 -0.3322 -0.3325  0.4383
43920DOD     C175579  21.001  29.068   7.956 -0.0755 -0.0790 -0.0345
43920DOD     C275580  20.768  28.609   7.820  0.0952 -0.0042  0.0714
43920DOD     C375581  20.929  28.151   7.807 -0.0398 -0.2991 -0.2289
43921DOD     C175582  23.534  15.816  21.807 -0.1043 -0.0216 -0.0482
43921DOD     C275583  23.846  15.553  21.529  0.0690 -0.1673  0.0491
43921DOD     C375584  24.132  15.169  21.556  0.1730  0.2112  0.0107
43922DOD     C175585  19.654  23.916  29.978  0.2222  0.4534  0.1875
43922DOD     C275586  19.597  23.716   0.082  0.0726  0.0786  0.0305
43922DOD     C375587  19.605  23.902   0.498  0.2080  0.2568  0.1600
43923DOD     C175588  25.421   1.484   2.837 -0.1505 -0.3083 -0.1479
43923DOD     C275589  25.007   1.772   2.868 -0.1436 -0.1402  0.2763
43923DOD     C375590  24.574   1.807   2.689 -0.1225 -0.2368  0.3083
43924DOD     C175591  24.841  10.366  18.632  0.2173  0.0435 -0.0064
43924DOD     C275592  24.522  10.071  18.646 -0.2048  0.2440 -0.1203
43924DOD     C375593  24.308   9.728  18.886  0.1431 -0.1302  0.0210
43925DOD     C175594  12.924   1.797  10.046 -0.1865  0.4650 -0.1911
43925DOD     C275595  13.145   1.604  10.474  0.2475 -0.0386  0.0445
43925DOD     C375596  13.293   1.396  10.799 -0.3146  0.0003 -0.3191
43926DOD     C175597  10.673  20.627   1.045  0.0871 -0.0280 -0.0560
43926DOD     C275598  11.097  20.794   0.865  0.2863  0.0329  0.1317
43926DOD     C375599  11.383  20.966   0.529 -0.2074 -0.1943 -0.0848
43927DOD     C175600   7.899   1.505  20.714  0.2773 -0.0138 -0.0886
43927DOD     C275601   8.190   1.121  20.751  0.1051 -0.1153 -0.0426
43927DOD     C375602   8.187   0.660  20.872 -0.0259 -0.2631 -0.0241
43928DOD     C175603  30.206   7.726  27.737 -0.1750  0.0974  0.1828
43928DOD     C275604   0.075   7.266  27.896  0.1241 -0.3641 -0.0941
43928DOD     C375605   0.023   6.826  27.872 -0.0285  0.0928  0.1792
43929DOD     C175606  13.159  26.334   6.586 -0.0080 -0.0534  0.1006
43929DOD     C275607  12.897  26.285   6.989 -0.4021 -0.0969  0.0071
43929DOD     C375608  13.172  26.252   7.354 -0.2683  0.2661 -0.1818
43930DOD     C175609  24.444   7.016  12.696  0.1996  0.3103 -0.3274
43930DOD     C275610  24.685   6.835  12.379 -0.4751 -0.0075  0.0799
43930DOD     C375611  24.674   6.633  11.993 -0.3155  0.0825 -0.0308
43931DOD     C175612   9.561  27.238   1.996 -0.1336 -0.0814  0.0859
43931DOD     C275613   9.246  26.953   1.755  0.1687 -0.2283  0.0404
43931DOD     C375614   8.854  26.905   1.567 -0.1595  0.2005  0.0599
43932DOD     C175615  14.351  10.600   4.795  0.2522 -0.0844 -0.0291
43932DOD     C275616  14.655  10.769   5.135  0.0396  0.1681  0.1430
43932DOD     C375617  14.704  11.189   5.350 -0.2876  0.1382 -0.1469
43933DOD     C175618   3.142   0.447  28.093 -0.1647  0.1517 -0.0536
43933DOD     C275619   2.897   0.317  27.832  0.1940 -0.1505 -0.0096
43933DOD     C375620   2.824  30.194  27.828 -0.1824 -0.0048 -0.0507
43934DOD     C175621  27.242  15.853   9.568 -0.0628 -0.0265  0.0217
43934DOD     C275622  27.511  16.226   9.331  0.0554  0.0092 -0.1434
43934DOD     C375623  27.731  16.352   8.947  0.3909 -0.1338  0.3454
43935DOD     C175624   4.499   8.566   7.444  0.0885  0.1995  0.0717
43935DOD     C275625   4.316   8.878   7.719  0.1293  0.0309 -0.1690
43935DOD     C375626   4.656   9.129   7.912  0.0502 -0.1890  0.0303
43936DOD     C175627  13.096  11.082  18.188 -0.1399  0.1282  0.1832
43936DOD     C275628  12.813  10.686  18.180 -0.1863  0.0677  0.0180
43936DOD     C375629  12.552  10.552  18.603 -0.0743 -0.1340 -0.1272
43937DOD     C175630  26.113   2.375  12.942 -0.1964 -0.0236  0.0667
43937DOD     C275631  25.985   2.024  13.215  0.1066 -0.0984 -0.2086
43937DOD     C375632  25.670   2.065  13.570 -0.3571 -0.1171 -0.3961
43938DOD     C175633  29.379   5.137  17.442 -0.4186  0.1914  0.0006
43938DOD     C275634  29.080   4.807  17.304  0.1495  0.4962 -0.2505
43938DOD     C375635  28.773   4.460  17.171 -0.1949  0.1278 -0.0903
43939DOD     C175636   1.657   4.107   1.381  0.2288  0.0216  0.1776
43939DOD     C275637   1.725   3.697   1.725  0.1102  0.1631  0.2195
43939DOD     C375638   1.962   3.398   1.992 -0.1042  0.0769  0.1290
43940DOD     C175639   5.419  18.859   2.657 -0.0994  0.4170 -0.4590
43940DOD     C275640   5.057  18.673   2.827 -0.0373 -0.0643  0.0546
43940DOD     C375641   4.648  18.511   2.688  0.0551  0.1107 -0.2745
43941DOD     C175642  16.844  14.649   4.235 -0.0207  0.1770  0.3052
43941DOD     C275643  16.702  14.192   4.176  0.2936 -0.0836  0.2862
43941DOD     C375644  16.338  13.835   4.253 -0.0600 -0.1024  0.3488
43942DOD     C175645   5.348   7.875  13.438  0.1509  0.0890 -0.4139
43942DOD     C275646   5.737   8.061  13.292  0.1253 -0.1303 -0.1282
43942DOD     C375647   6.052   8.435  13.340  0.1952  0.2785  0.3354
43943DOD     C175648   8.017  18.302  13.730  0.2365 -0.2890  0.1927
43943DOD     C275649   8.485  18.396  13.734  0.1791 -0.1887  0.1136
43943DOD     C375650   8.749  18.766  13.647 -0.1045 -0.0158 -0.1916
43944DOD     C175651  14.424  28.940  11.206 -0.1304  0.0546 -0.1117
43944DOD     C275652  14.709  29.216  11.004 -0.0128 -0.0600 -0.1564
43944DOD     C375653  15.068  29.435  10.848 -0.1387 -0.0162 -0.0012
43945DOD     C175654  21.266  21.047   9.686 -0.7119  0.2549 -0.2135
43945DOD     C275655  20.929  21.455   9.768 -0.1440  0.0071 -0.1120
43945DOD     C375656  20.690  21.760   9.505 -0.1351  0.2512 -0.0687
43946DOD     C175657  25.132  20.987   2.692 -0.3908  0.5534  0.0101
43946DOD     C275658  25.568  20.929   2.853 -0.0594  0.1249  0.1003
43946DOD     C375659  25.985  20.804   2.876 -0.1967  0.4983  0.3140
43947DOD     C175660  11.900  13.636  18.221  0.0537  0.0616 -0.2648
43947DOD     C275661  12.145  13.583  18.627 -0.1712 -0.0498  0.2079
43947DOD     C375662  12.102  13.187  18.860 -0.2031  0.0969 -0.2335
43948DOD     C175663  25.573   2.880  15.540  0.0136 -0.2153  0.0118
43948DOD     C275664  25.383   3.116  15.199 -0.3519 -0.3787 -0.3952
43948DOD     C375665  25.403   3.075  14.720  0.0159 -0.2862 -0.0124
43949DOD     C175666  15.554   8.546   5.619  0.0227  0.1457  0.1022
43949DOD     C275667  15.432   8.643   5.194 -0.0444  0.0757 -0.0661
43949DOD     C375668  15.126   8.599   4.882  0.1367 -0.0267  0.1768
43950DOD     C175669  23.309  24.565   2.006 -0.2927 -0.0683 -0.1914
43950DOD     C275670  23.016  24.862   2.177  0.0636  0.0561 -0.0133
43950DOD     C375671  22.683  24.841   2.499 -0.1200 -0.4258 -0.2538
43951DOD     C175672  28.202   0.821   3.554  0.3870  0.0321  0.3615
43951DOD     C275673  27.767   0.887   3.271 -0.0491  0.0083 -0.0077
43951DOD     C375674  27.482   1.079   2.961  0.1290  0.1786  0.1024
43952DOD     C175675  10.471  13.463  29.440 -0.0282  0.1442 -0.1511
43952DOD     C275676  10.103  13.171  29.367 -0.1910 -0.0706 -0.1490
43952DOD     C375677  10.127  12.827  29.650 -0.0616 -0.1450 -0.0229
43953DOD     C175678  12.450   2.726  24.371  0.2342  0.2143  0.1065
43953DOD     C275679  12.217   2.739  23.955 -0.1932  0.1974 -0.1392
43953DOD     C375680  12.314   2.953  23.596 -0.0970 -0.3053 -0.2112
43954DOD     C175681   7.171  24.686  15.453  0.1741 -0.1978  0.3783
43954DOD     C275682   7.237  24.613  15.928 -0.4217  0.2764  0.0071
43954DOD     C375683   7.419  24.973  16.172  0.0193  0.1432 -0.4011
43955DOD     C175684  23.046   8.992   6.663  0.2219 -0.0819 -0.1512
43955DOD     C275685  22.841   8.805   6.291 -0.0364  0.0313  0.0345
43955DOD     C375686  23.074   8.919   5.896 -0.3840 -0.0332  0.1088
43956DOD     C175687   9.840  14.909  21.731  0.1018 -0.0293 -0.3073
43956DOD     C275688   9.467  15.003  21.934  0.0700  0.2278 -0.3393
43956DOD     C375689   9.197  15.365  21.903  0.0469  0.0808  0.0292
43957DOD     C175690   4.547   6.143  21.302 -0.0991 -0.0920 -0.0337
43957DOD     C275691   4.243   6.015  20.921  0.3414  0.0477 -0.1641
43957DOD     C375692   4.066   5.752  20.590 -0.0215  0.1436  0.2534
43958DOD     C175693  12.949   4.203  21.069  0.0366 -0.1975 -0.1188
43958DOD     C275694  13.048   4.043  20.637 -0.1401 -0.2982  0.4655
43958DOD     C375695  13.143   3.798  20.230 -0.0177 -0.0516 -0.0915
43959DOD     C175696  25.885  29.859  28.333  0.2382  0.0206  0.3144
43959DOD     C275697  26.132  29.416  28.416  0.1903 -0.3341  0.1841
43959DOD     C375698  26.116  29.042  28.775 -0.0605  0.0039  0.0604
43960DOD     C175699  10.507  23.675  11.433  0.0034  0.0149 -0.1633
43960DOD     C275700  10.299  24.049  11.295  0.0107 -0.1259  0.2777
43960DOD     C375701  10.014  24.373  11.435  0.0384 -0.2895 -0.1283
43961DOD     C175702  28.306  17.728  22.526 -0.0032  0.2941 -0.1498
43961DOD     C275703  28.056  17.712  22.129 -0.1030  0.0050  0.0891
43961DOD     C375704  27.734  18.023  21.928  0.3113 -0.1736 -0.1444
43962DOD     C175705  29.603  12.095  20.449 -0.3468 -0.1310 -0.0130
43962DOD     C275706  30.019  11.855  20.305 -0.1684  0.1294 -0.0189
43962DOD     C375707  30.296  11.537  20.097 -0.1812 -0.0237  0.0665
43963DOD     C175708  11.284   4.047  18.031 -0.1286 -0.0579  0.0093
43963DOD     C275709  11.357   4.181  18.470 -0.2501  0.0368  0.0892
43963DOD     C375710  11.400   4.149  18.906 -0.0585 -0.0360 -0.2023
43964DOD     C175711  13.927   2.858  11.087 -0.1175 -0.0650 -0.3100
43964DOD     C275712  13.687   2.870  10.733 -0.0086 -0.2429  0.0769
43964DOD     C375713  13.319   2.617  10.575  0.0281 -0.1304 -0.2055
43965DOD     C175714  12.458  16.675   3.899 -0.0154 -0.1077  0.2926
43965DOD     C275715  12.912  16.470   3.919  0.2070 -0.0692  0.0414
43965DOD     C375716  13.221  16.437   3.600  0.0166  0.0996  0.1469
43966DOD     C175717  12.614  18.118   6.660  0.0026 -0.0290 -0.1331
43966DOD     C275718  12.268  18.123   6.345  0.2520 -0.2019 -0.2738
43966DOD     C375719  11.878  18.140   6.048  0.0298  0.1354 -0.2531
43967DOD     C175720  15.055   8.650  11.060 -0.0593 -0.0068 -0.1221
43967DOD     C275721  14.690   8.629  10.808 -0.3942 -0.3655 -0.1052
43967DOD     C375722  14.406   9.011  10.940 -0.3928 -0.1694 -0.2263
43968DOD     C175723   2.877  11.670  20.871  0.2213 -0.2116  0.2651
43968DOD     C275724   3.330  11.626  20.975 -0.1155 -0.0801  0.0432
43968DOD     C375725   3.561  11.284  20.969  0.0836  0.1311  0.1035
43969DOD     C175726  15.944   6.227   2.791 -0.0126  0.1411 -0.2924
43969DOD     C275727  16.340   6.427   2.623 -0.0542 -0.1889 -0.1706
43969DOD     C375728  16.813   6.322   2.476 -0.0655  0.0273  0.0083
43970DOD     C175729  21.785  15.659  24.234  0.1592  0.0545 -0.4841
43970DOD     C275730  21.845  15.253  23.973  0.2283 -0.3586 -0.3217
43970DOD     C375731  21.682  14.799  24.036 -0.0562 -0.2585 -0.2074
43971DOD     C175732   4.209  19.907  10.006 -0.1039 -0.0984  0.4751
43971DOD     C275733   4.632  20.082   9.943  0.0359 -0.1442  0.0607
43971DOD     C375734   4.890  20.204  10.344  0.1073  0.1158  0.0159
43972DOD     C175735  13.717  11.438  13.444  0.0729  0.0318  0.0174
43972DOD     C275736  13.504  11.231  13.147  0.0043  0.1150  0.2601
43972DOD     C375737  13.565  11.225  12.738 -0.2193  0.1530  0.0378
43973DOD     C175738  19.183  27.851  19.722 -0.1125  0.2354 -0.1380
43973DOD     C275739  19.541  27.848  19.431 -0.3537  0.1054  0.0584
43973DOD     C375740  19.774  27.727  19.046  0.3754 -0.2978  0.0599
43974DOD     C175741  28.103  29.459  22.329  0.0617 -0.3567 -0.0856
43974DOD     C275742  28.380  29.494  22.000  0.1230  0.1808  0.1192
43974DOD     C375743  28.307  29.243  21.621  0.0660  0.1734 -0.1886
43975DOD     C175744  28.117  30.270  21.001  0.1270  0.1442 -0.1505
43975DOD     C275745  28.443  29.945  21.148 -0.0362  0.1023 -0.0866
43975DOD     C375746  28.504  29.768  21.611 -0.1286  0.0900  0.0135
43976DOD     C175747  20.864   5.273  26.367 -0.0224  0.1708 -0.1956
43976DOD     C275748  20.720   5.301  25.918 -0.0411  0.1318 -0.0668
43976DOD     C375749  20.802   5.294  25.467 -0.0806 -0.2310 -0.2911
43977DOD     C175750  19.214  10.115  19.945 -0.0030  0.2074 -0.1622
43977DOD     C275751  19.198  10.092  20.395  0.2059  0.1825  0.0078
43977DOD     C375752  19.569  10.197  20.651  0.1666  0.0949  0.3491
43978DOD     C175753   8.475  26.542  30.062  0.0514  0.0301 -0.4133
43978DOD     C275754   8.041  26.289  29.984  0.0610  0.2816  0.4308
43978DOD     C375755   7.634  26.229  30.137 -0.2099  0.1723  0.0030
43979DOD     C175756  12.580  26.401   6.620 -0.5294  0.3863  0.0495
43979DOD     C275757  12.868  26.747   6.512  0.2761  0.2258 -0.0378
43979DOD     C375758  13.117  27.149   6.401  0.0521 -0.0787 -0.2723
43980DOD     C175759   2.625  26.891  22.148 -0.0465 -0.0157 -0.0651
43980DOD     C275760   2.270  26.711  22.400  0.0101 -0.0831  0.4349
43980DOD     C375761   1.878  26.716  22.566  0.3246  0.4116  0.2508
43981DOD     C175762  18.461  17.676   5.859 -0.2643  0.1067  0.3735
43981DOD     C275763  18.856  17.552   5.669 -0.0781 -0.1101 -0.1881
43981DOD     C375764  19.129  17.275   5.976  0.1686 -0.0257 -0.2727
43982DOD     C175765   2.740   3.249  28.472 -0.1395  0.0540  0.1016
43982DOD     C275766   2.841   3.264  28.919 -0.3546  0.0638  0.1226
43982DOD     C375767   3.140   3.116  29.288 -0.1850 -0.0280  0.0661
43983DOD     C175768  27.926   1.142  26.514  0.1536 -0.1803 -0.2300
43983DOD     C275769  27.889   1.187  26.034 -0.0376 -0.0365 -0.1549
43983DOD     C375770  27.599   1.024  25.785 -0.1591 -0.2437 -0.0067
43984DOD     C175771  20.780   0.268   9.644  0.2448 -0.3157 -0.0792
43984DOD     C275772  20.823   0.786   9.604 -0.0857 -0.1866  0.0890
43984DOD     C375773  21.018   1.060   9.886  0.1947  0.0056  0.3062
43985DOD     C175774   6.948   2.711  26.652  0.1801 -0.3113 -0.0374
43985DOD     C275775   6.668   2.377  26.528 -0.1041 -0.1720 -0.0390
43985DOD     C375776   6.409   2.014  26.709 -0.2394  0.1608  0.3665
43986DOD     C175777  25.947  19.676  16.567  0.2428  0.0088  0.1474
43986DOD     C275778  26.249  19.957  16.488  0.0610 -0.0077  0.0726
43986DOD     C375779  26.569  20.337  16.399 -0.0328  0.0568 -0.1397
43987DOD     C175780  24.047  18.175   7.207 -0.0335  0.0530 -0.1731
43987DOD     C275781  23.634  18.172   7.414  0.1077  0.1196 -0.2285
43987DOD     C375782  23.283  17.969   7.600  0.4481  0.2901 -0.0207
43988DOD     C175783   9.787   7.482  27.456  0.0298  0.2407 -0.2819
43988DOD     C275784   9.439   7.334  27.711 -0.0660 -0.1145 -0.0989
43988DOD     C375785   8.976   7.416  27.828 -0.3107 -0.2189  0.1043
43989DOD     C175786  24.652  24.555  18.521 -0.0288 -0.0347  0.0312
43989DOD     C275787  24.908  24.577  18.108 -0.0501 -0.0107 -0.4942
43989DOD     C375788  25.072  24.327  17.775  0.0505  0.2529  0.0231
43990DOD     C175789   4.637  27.263  13.787 -0.1865  0.2920  0.3892
43990DOD     C275790   4.766  26.975  13.419  0.0289 -0.0449 -0.0421
43990DOD     C375791   5.045  26.559  13.378 -0.0195  0.0808 -0.2668
43991DOD     C175792   5.242   6.909  18.489  0.1053 -0.0368 -0.1151
43991DOD     C275793   4.788   6.902  18.426  0.0918  0.0871  0.0981
43991DOD     C375794   4.414   6.672  18.572  0.2703  0.0856 -0.0136
43992DOD     C175795   4.431  23.215  21.393 -0.1530  0.0844  0.3139
43992DOD     C275796   4.772  23.518  21.306  0.1605 -0.0593 -0.0966
43992DOD     C375797   5.028  23.762  21.045 -0.2321 -0.1569 -0.2297
43993DOD     C175798  14.805  19.827   0.241 -0.3179 -0.0559  0.4663
43993DOD     C275799  15.056  19.582   0.547 -0.1344 -0.0340 -0.1182
43993DOD     C375800  15.305  19.618   0.944 -0.3172  0.1958  0.2870
43994DOD     C175801  14.110  11.079  23.852  0.1341 -0.1280 -0.1270
43994DOD     C275802  13.672  11.314  23.729  0.0593 -0.3169  0.0225
43994DOD     C375803  13.609  11.773  23.645 -0.3725  0.1984  0.2070
43995DOD     C175804  26.258   5.085  25.399 -0.1146 -0.0927 -0.0924
43995DOD     C275805  26.507   4.827  25.108 -0.2633 -0.3103 -0.1421
43995DOD     C375806  26.381   4.545  24.751 -0.0877 -0.0976 -0.3000
43996DOD     C175807   2.511  10.666   6.871 -0.0105 -0.2434  0.1029
43996DOD     C275808   2.779  10.855   7.192  0.0255  0.1502  0.3234
43996DOD     C375809   3.204  10.849   7.349 -0.1090  0.0811 -0.0139
43997DOD     C175810  17.041   8.032   7.604  0.2874  0.0644 -0.0892
43997DOD     C275811  17.119   8.147   7.128  0.0344  0.2675 -0.0714
43997DOD     C375812  16.952   8.097   6.651 -0.1223 -0.2744 -0.1937
43998DOD     C175813  14.723   1.361  11.040  0.0518 -0.0814 -0.0781
43998DOD     C275814  14.872   0.919  11.162 -0.4293  0.2307 -0.1375
43998DOD     C375815  14.876   0.480  11.053 -0.0307 -0.0581 -0.2247
43999DOD     C175816   6.187  21.235  24.983 -0.0518  0.0157  0.2001
43999DOD     C275817   5.823  21.362  25.252 -0.0046  0.0213 -0.4313
43999DOD     C375818   5.899  21.533  25.695 -0.1054 -0.2063  0.0109
44000DOD     C175819   4.580  15.619  13.062 -0.1888  0.0017 -0.1830
44000DOD     C275820   5.002  15.352  13.041  0.0049 -0.1257 -0.1694
44000DOD     C375821   5.146  14.945  12.832  0.0063 -0.1970  0.0344
44001DOD     C175822  19.425  28.387   2.821 -0.0793  0.0256  0.1581
44001DOD     C275823  19.824  28.271   2.754 -0.0411 -0.0925 -0.0364
44001DOD     C375824  20.192  28.136   2.980  0.0730  0.3381 -0.1908
44002DOD     C175825  17.603  27.621  21.960 -0.2028 -0.2092 -0.2168
44002DOD     C275826  17.709  27.909  22.344 -0.0222  0.2455 -0.2858
44002DOD     C375827  18.027  28.163  22.606 -0.1758 -0.0646  0.0637
44003DOD     C175828  19.433  17.540  11.377 -0.2532 -0.1312  0.2022
44003DOD     C275829  19.675  17.230  11.101 -0.1031 -0.0891  0.0656
44003DOD     C375830  20.132  17.088  11.009 -0.0284 -0.0640  0.2185
44004DOD     C175831  20.213  25.203  29.028 -0.1181  0.0152  0.0788
44004DOD     C275832  20.417  24.783  29.112 -0.4744  0.2811  0.1860
44004DOD     C375833  20.412  24.309  29.109  0.3676 -0.1007 -0.1242
44005DOD     C175834  16.541  16.543  28.233  0.2286 -0.0274 -0.0646
44005DOD     C275835  16.618  16.966  28.483  0.1058  0.0316  0.1149
44005DOD     C375836  16.731  17.432  28.446 -0.0013  0.2509  0.2182
44006DOD     C175837  17.504  24.232   2.805  0.0998 -0.1898  0.0992
44006DOD     C275838  17.716  24.327   3.226  0.2154 -0.3798 -0.0542
44006DOD     C375839  17.637  24.375   3.665 -0.2719  0.1675  0.0102
44007DOD     C175840  18.453  15.109  24.163 -0.3712  0.0460 -0.3665
44007DOD     C275841  18.647  14.933  23.749  0.2505 -0.1542  0.1598
44007DOD     C375842  18.893  14.666  23.494  0.2319 -0.1299 -0.2330
44008DOD     C175843  29.386  20.673  28.517  0.0535  0.0128  0.0271
44008DOD     C275844  29.173  20.414  28.227  0.2050  0.1579 -0.2887
44008DOD     C375845  28.836  20.230  27.920  0.2463  0.0156 -0.0366
44009DOD     C175846  20.340  17.052  25.615  0.1289  0.1076  0.0900
44009DOD     C275847  20.453  17.485  25.508 -0.3307 -0.0327 -0.3323
44009DOD     C375848  20.492  17.946  25.596 -0.1302 -0.3014 -0.1541
44010DOD     C175849  19.513   4.043  28.094 -0.1288 -0.1046  0.5205
44010DOD     C275850  19.890   4.224  27.978 -0.5012 -0.1827  0.3870
44010DOD     C375851  19.995   4.659  28.050  0.0133  0.0891  0.1332
44011DOD     C175852  15.057  18.149   1.751 -0.1099 -0.0056 -0.1040
44011DOD     C275853  15.025  18.628   1.933  0.0789 -0.2260  0.2696
44011DOD     C375854  15.294  18.971   1.900 -0.3098  0.1759 -0.2352
44012DOD     C175855   3.602  16.344  19.199  0.2856  0.0621 -0.0924
44012DOD     C275856   3.252  16.088  19.029 -0.0383  0.1371  0.0192
44012DOD     C375857   3.139  15.645  19.009 -0.1039  0.0868 -0.5616
44013DOD     C175858   5.496  15.873  13.680  0.0900 -0.0669  0.1450
44013DOD     C275859   5.447  15.642  13.270 -0.2448  0.0130 -0.1149
44013DOD     C375860   5.270  15.799  12.829  0.2755  0.0477 -0.3203
44014DOD     C175861  11.311  29.871  11.051 -0.1289 -0.0117  0.1120
44014DOD     C275862  11.672  29.682  11.226  0.1265  0.2085 -0.0220
44014DOD     C375863  11.905  29.354  11.145 -0.1636  0.1811 -0.0366
44015DOD     C175864  22.279  11.729   9.442  0.1199  0.0828  0.2710
44015DOD     C275865  22.615  11.913   9.718  0.4466 -0.1216 -0.4644
44015DOD     C375866  22.959  11.626   9.891  0.2853  0.2402 -0.1976
44016DOD     C175867  16.070  29.924  25.719  0.0564 -0.2967  0.0726
44016DOD     C275868  15.810  29.575  25.522 -0.1446 -0.0014 -0.2648
44016DOD     C375869  15.553  29.587  25.184 -0.0410 -0.0306 -0.2827
44017DOD     C175870  20.526   8.463  19.585  0.0999 -0.0921 -0.1951
44017DOD     C275871  20.592   8.459  19.120 -0.0443  0.1095  0.2764
44017DOD     C375872  20.844   8.338  18.706 -0.0086 -0.3013  0.0409
44018DOD     C175873   7.269  15.449  18.972  0.0677 -0.4443 -0.1723
44018DOD     C275874   7.047  15.019  19.159  0.2255 -0.1603 -0.2640
44018DOD     C375875   6.871  14.550  19.175  0.2352  0.0035 -0.1301
44019DOD     C175876   4.218  28.187  27.097 -0.1862  0.2052  0.3106
44019DOD     C275877   3.740  28.172  27.027 -0.0887 -0.0696 -0.1447
44019DOD     C375878   3.338  28.401  27.158 -0.1682 -0.0134 -0.2505
44020DOD     C175879  12.918   0.233  13.668 -0.0001 -0.0879  0.1792
44020DOD     C275880  12.471   0.436  13.619  0.0213  0.0640 -0.1549
44020DOD     C375881  12.181   0.640  13.904 -0.0471 -0.1992  0.2237
44021DOD     C175882   1.618  19.215   7.841  0.0096  0.2798  0.1494
44021DOD     C275883   1.873  19.590   7.655 -0.0899 -0.0667  0.1900
44021DOD     C375884   1.757  19.849   7.243 -0.2094  0.1340  0.2214
44022DOD     C175885  29.164  13.531   9.896  0.0370 -0.0746  0.1122
44022DOD     C275886  29.158  14.002   9.906  0.1020  0.0728 -0.0975
44022DOD     C375887  29.482  14.313   9.842 -0.0485  0.0636  0.4457
44023DOD     C175888   8.096  27.662  14.514  0.2928 -0.0639  0.1521
44023DOD     C275889   8.474  27.949  14.584  0.2382  0.1557 -0.2250
44023DOD     C375890   8.824  28.305  14.533 -0.0082  0.1885 -0.2160
44024DOD     C175891   1.315  25.641  21.298 -0.2446  0.1076 -0.1880
44024DOD     C275892   1.539  26.062  21.275 -0.3005  0.1005 -0.2637
44024DOD     C375893   1.579  26.301  20.898  0.0790 -0.2450  0.0006
44025DOD     C175894  17.911   0.974   4.088  0.0788 -0.1437 -0.2071
44025DOD     C275895  18.322   0.843   4.170 -0.2309 -0.1365 -0.2477
44025DOD     C375896  18.770   0.823   4.025  0.1064  0.0852  0.2554
44026DOD     C175897   0.233  11.472   0.475 -0.2223 -0.1589  0.2238
44026DOD     C275898   0.209  11.018   0.314  0.1581  0.0920 -0.3968
44026DOD     C375899   0.232  10.554   0.373 -0.0396 -0.0122 -0.3584
44027DOD     C175900  27.690   2.935  13.585 -0.1369  0.0033  0.0663
44027DOD     C275901  27.724   3.329  13.835 -0.0995 -0.1338  0.0975
44027DOD     C375902  28.045   3.686  13.867 -0.0187  0.0708 -0.0195
44028DOD     C175903  14.267   9.516   6.746 -0.3505  0.4972  0.0510
44028DOD     C275904  14.463   9.076   6.683  0.0008 -0.0603 -0.0907
44028DOD     C375905  14.943   9.021   6.774 -0.0122  0.0148 -0.2112
44029DOD     C175906   6.669   3.644  10.629  0.1411  0.4061  0.3046
44029DOD     C275907   6.454   4.022  10.692 -0.0668  0.1448  0.2476
44029DOD     C375908   6.169   4.381  10.807  0.3672  0.0266 -0.1678
44030DOD     C175909  29.570   4.649  28.047 -0.1258  0.2483  0.2312
44030DOD     C275910  29.798   4.229  27.922  0.0055  0.2421 -0.1408
44030DOD     C375911  30.110   3.933  27.891 -0.1326  0.0507 -0.3432
44031DOD     C175912  13.838  23.497   0.715  0.0007  0.0217 -0.1404
44031DOD     C275913  13.615  23.769   1.001 -0.0527  0.2349 -0.2181
44031DOD     C375914  13.813  24.158   1.192 -0.0343  0.0289 -0.0558
44032DOD     C175915  24.685  16.032  19.640 -0.4952  0.2146 -0.2456
44032DOD     C275916  24.636  15.862  19.222  0.0542  0.0320 -0.2819
44032DOD     C375917  24.663  15.681  18.805 -0.0294 -0.0335 -0.0529
44033DOD     C175918  23.705  10.520  28.432 -0.0644  0.1163  0.0013
44033DOD     C275919  24.081  10.228  28.543  0.0540  0.0926 -0.1768
44033DOD     C375920  24.227   9.753  28.522  0.0508 -0.1813 -0.2625
44034DOD     C175921  19.945  19.484  22.492 -0.2010 -0.1604  0.0870
44034DOD     C275922  19.842  19.417  22.907 -0.1844  0.1846  0.0513
44034DOD     C375923  19.388  19.373  23.063 -0.1831  0.2017 -0.0640
44035DOD     C175924  13.009  26.889  20.666 -0.1134 -0.0574 -0.4432
44035DOD     C275925  12.783  26.972  20.241 -0.1970 -0.1489 -0.2167
44035DOD     C375926  12.762  27.315  19.886  0.0548  0.0543 -0.0685
44036DOD     C175927   4.865  11.985  30.172 -0.0013  0.1598  0.0630
44036DOD     C275928   4.670  11.733   0.234  0.1432 -0.3470 -0.1446
44036DOD     C375929   4.733  11.662   0.711 -0.0339 -0.1184 -0.3660
44037DOD     C175930   2.676  11.104  11.410 -0.1325  0.0038 -0.2891
44037DOD     C275931   2.403  11.494  11.403 -0.2272 -0.0424  0.0759
44037DOD     C375932   2.011  11.768  11.355 -0.0095 -0.0037  0.2330
44038DOD     C175933  16.372  29.075  11.648 -0.1287 -0.1633  0.0436
44038DOD     C275934  16.304  28.839  12.039  0.3180 -0.0538  0.1317
44038DOD     C375935  16.098  28.585  12.401  0.0337  0.1846  0.2620
44039DOD     C175936   8.125   7.723  22.490  0.2351 -0.0650  0.1969
44039DOD     C275937   8.364   7.506  22.116 -0.2962  0.0865 -0.1624
44039DOD     C375938   8.600   7.643  21.727  0.0688  0.0822  0.3753
44040DOD     C175939  12.471  17.797   8.138  0.1390 -0.3218  0.2439
44040DOD     C275940  12.433  17.488   7.868 -0.2315  0.3731  0.2324
44040DOD     C375941  12.517  17.178   7.523  0.0226  0.1043 -0.1550
44041DOD     C175942  16.029  17.943  21.094 -0.1446 -0.4652 -0.1493
44041DOD     C275943  15.591  17.835  20.954  0.2524  0.1151 -0.2605
44041DOD     C375944  15.179  17.997  20.760  0.1867  0.3512 -0.3237
44042DOD     C175945  19.060   0.647  19.209 -0.0018 -0.2350 -0.0416
44042DOD     C275946  18.907   0.973  18.913 -0.0846 -0.3517 -0.2085
44042DOD     C375947  18.543   1.300  18.912 -0.1453  0.0842 -0.0067
44043DOD     C175948  16.088  25.067  25.741  0.0522 -0.1985  0.0076
44043DOD     C275949  16.221  25.429  25.943  0.3421  0.1910  0.0493
44043DOD     C375950  16.303  25.893  25.852  0.0136 -0.2251  0.1684
44044DOD     C175951  25.415   4.819  23.417 -0.1227  0.1878 -0.0363
44044DOD     C275952  25.641   4.478  23.206  0.1393 -0.1457  0.0259
44044DOD     C375953  25.810   4.098  22.949 -0.0450 -0.0407 -0.2550
44045DOD     C175954  16.664  29.667  22.328  0.0231  0.0581  0.0311
44045DOD     C275955  17.026  29.926  22.445  0.1204 -0.3419  0.2236
44045DOD     C375956  17.299  -0.041  22.556 -0.3444 -0.1675  0.2213
44046DOD     C175957  20.006  19.788  12.837 -0.4255  0.1982  0.1754
44046DOD     C275958  19.554  19.723  12.923 -0.2916 -0.2191 -0.0231
44046DOD     C375959  19.113  19.661  12.849  0.0120  0.0591  0.2171
44047DOD     C175960  27.778  19.625  19.301  0.0897 -0.0339 -0.0019
44047DOD     C275961  27.893  19.252  19.038  0.0747  0.0004  0.0154
44047DOD     C375962  28.225  18.897  19.010 -0.1385  0.0609 -0.0015
44048DOD     C175963   5.455  25.175  24.618  0.1386  0.0227 -0.0666
44048DOD     C275964   5.365  25.297  25.067 -0.0907 -0.2880 -0.0931
44048DOD     C375965   5.092  25.360  25.418  0.2705  0.2236  0.2003
44049DOD     C175966   5.196  13.806  16.965  0.3525  0.2456  0.2865
44049DOD     C275967   5.101  13.463  17.254  0.1574  0.1454  0.2591
44049DOD     C375968   4.871  13.041  17.394  0.0651  0.1716 -0.2849
44050DOD     C175969   3.821  14.712  28.938  0.0896 -0.1843  0.1284
44050DOD     C275970   3.390  14.748  29.000  0.0899  0.0664 -0.1323
44050DOD     C375971   2.960  14.924  29.005 -0.0171  0.2325  0.2989
44051DOD     C175972  13.186  24.889  17.137  0.0397  0.0849 -0.2285
44051DOD     C275973  13.173  24.434  17.348 -0.1334 -0.0453  0.1182
44051DOD     C375974  13.368  23.969  17.324  0.0129  0.1964 -0.0674
44052DOD     C175975   9.780  25.205   0.959 -0.3193 -0.0998  0.0010
44052DOD     C275976  10.186  25.096   1.100 -0.2256  0.0984  0.1516
44052DOD     C375977  10.522  24.875   1.410 -0.1187 -0.1211  0.1706
44053DOD     C175978  24.751  29.748  14.790  0.2971 -0.1362  0.2677
44053DOD     C275979  25.094  29.522  14.682  0.0678  0.3445  0.2158
44053DOD     C375980  25.579  29.524  14.552  0.2483 -0.0096 -0.0888
44054DOD     C175981  22.772  15.316  21.680  0.3204  0.2533 -0.1522
44054DOD     C275982  22.621  14.856  21.585 -0.0559 -0.0798  0.0991
44054DOD     C375983  22.231  14.619  21.805  0.2739  0.0567  0.0203
44055DOD     C175984   9.596   6.825  18.265 -0.0289 -0.1661 -0.1218
44055DOD     C275985   9.907   7.187  18.212  0.0843 -0.2647  0.1071
44055DOD     C375986   9.986   7.533  17.887 -0.3859  0.0799 -0.1105
44056DOD     C175987  24.356  19.591  29.218 -0.1114 -0.2868  0.0531
44056DOD     C275988  24.758  19.799  29.073 -0.0514 -0.0909  0.0947
44056DOD     C375989  25.205  19.947  28.878  0.0390  0.1372  0.2109
44057DOD     C175990  25.780  23.467   8.307 -0.1298 -0.0921  0.1420
44057DOD     C275991  25.981  23.852   8.188 -0.1357 -0.0704  0.2111
44057DOD     C375992  26.030  24.323   8.267 -0.1441  0.0654 -0.0990
44058DOD     C175993   1.862  27.508  15.749 -0.0309 -0.1820 -0.2031
44058DOD     C275994   1.451  27.601  15.956  0.1523 -0.2491 -0.1680
44058DOD     C375995   1.061  27.456  16.179  0.0181  0.2622  0.0408
44059DOD     C175996   1.770   8.884  10.059  0.0859  0.0960  0.1922
44059DOD     C275997   1.505   8.472  10.188 -0.0708  0.0329  0.0774
44059DOD     C375998   1.116   8.599  10.492  0.0146 -0.0429  0.0498
44060DOD     C175999  27.243  23.259  27.246  0.0552 -0.1164  0.1403
44060DOD     C276000  26.886  22.987  27.392 -0.3382  0.2002  0.0770
44060DOD     C376001  26.421  22.894  27.439 -0.4318  0.4166 -0.1935
44061DOD     C176002  15.265   2.725  11.992 -0.1596  0.2434  0.2738
44061DOD     C276003  15.629   2.654  12.306 -0.0774 -0.1097 -0.2225
44061DOD     C376004  15.996   2.379  12.388  0.2722 -0.1805  0.0092
44062DOD     C176005  11.993   6.277  16.178 -0.0274  0.1155 -0.0309
44062DOD     C276006  11.860   5.806  16.157 -0.2580 -0.1173 -0.0462
44062DOD     C376007  11.712   5.420  15.963 -0.0608  0.2240  0.0432
44063DOD     C176008  26.507  24.759  10.845 -0.2835  0.0612  0.1049
44063DOD     C276009  26.691  25.111  11.072  0.0143  0.0463  0.0787
44063DOD     C376010  26.509  25.425  11.336  0.2495  0.1179  0.3716
44064DOD     C176011   3.161  14.824  23.396  0.2632 -0.0585 -0.2243
44064DOD     C276012   3.104  14.437  23.142 -0.5230 -0.1525 -0.4459
44064DOD     C376013   3.103  14.186  22.756 -0.1170 -0.1882 -0.3598
44065DOD     C176014   9.288  22.245  23.099 -0.0897  0.5790 -0.1033
44065DOD     C276015   9.452  22.647  23.266  0.0160 -0.1124  0.0330
44065DOD     C376016   9.293  22.956  23.563  0.1561  0.0392  0.0037
44066DOD     C176017  22.051  13.094  29.008 -0.2098 -0.2528  0.0375
44066DOD     C276018  21.645  13.155  28.754  0.1929 -0.0546  0.0887
44066DOD     C376019  21.187  13.227  28.641 -0.0013 -0.0785  0.1639
44067DOD     C176020  14.210  20.399  28.144 -0.0802  0.1733  0.1134
44067DOD     C276021  14.120  20.012  28.433  0.0468  0.0115  0.2463
44067DOD     C376022  13.971  19.978  28.855  0.0143  0.4559  0.0236
44068DOD     C176023  15.594  29.109   1.675 -0.0837 -0.0592  0.0944
44068DOD     C276024  15.973  28.829   1.650  0.0636  0.2230  0.1330
44068DOD     C376025  16.066  28.427   1.930  0.1573 -0.2720 -0.0242
44069DOD     C176026   5.105  27.566  21.442 -0.2468  0.0052  0.0339
44069DOD     C276027   4.693  27.616  21.178  0.0145  0.0256 -0.1752
44069DOD     C376028   4.371  28.001  21.117  0.0404 -0.0121  0.1205
44070DOD     C176029  25.094   2.236   0.243 -0.0333  0.0889 -0.0667
44070DOD     C276030  25.033   1.786   0.136 -0.2661  0.0437  0.0895
44070DOD     C376031  24.856   1.485   0.343  0.0264 -0.0885  0.0539
44071DOD     C176032   7.057  25.151  18.928  0.1592 -0.0037  0.0720
44071DOD     C276033   6.622  25.207  19.108 -0.1575 -0.3683  0.2050
44071DOD     C376034   6.367  25.188  19.493 -0.1409 -0.2926  0.0898
44072DOD     C176035  17.692  25.338  29.741 -0.0561 -0.1211 -0.0123
44072DOD     C276036  18.013  25.037  29.563 -0.2699 -0.0750  0.2238
44072DOD     C376037  18.415  24.767  29.543  0.2185 -0.3548 -0.0880
44073DOD     C176038   9.178   0.220  19.541 -0.0150 -0.1594  0.1665
44073DOD     C276039   9.153   0.404  19.144  0.1514 -0.0050  0.0717
44073DOD     C376040   9.020   0.623  18.779 -0.3940  0.0383 -0.1987
44074DOD     C176041  21.178   4.805   7.444 -0.1264 -0.2796  0.0891
44074DOD     C276042  21.487   5.127   7.658  0.1142 -0.2166 -0.1771
44074DOD     C376043  21.844   5.193   7.986 -0.2517  0.0343 -0.3517
44075DOD     C176044   3.859  24.650  18.719 -0.1937 -0.1345 -0.0724
44075DOD     C276045   4.043  24.455  18.339  0.0596  0.1107  0.2178
44075DOD     C376046   4.120  24.243  17.916 -0.1884 -0.0768  0.1774
44076DOD     C176047  26.194  21.824  11.592 -0.1808 -0.3053 -0.1995
44076DOD     C276048  26.445  21.536  11.358  0.2339  0.0009  0.1365
44076DOD     C376049  26.472  21.501  10.870  0.0611 -0.2984  0.0116
44077DOD     C176050   5.026  24.055  18.783  0.2063  0.2324 -0.1773
44077DOD     C276051   4.747  24.432  18.883 -0.1049  0.1187  0.0232
44077DOD     C376052   4.426  24.770  18.914  0.0617  0.0541  0.0291
44078DOD     C176053   6.556   2.838  13.122  0.2240  0.1745 -0.4544
44078DOD     C276054   6.663   2.777  12.662 -0.1050 -0.0263 -0.2201
44078DOD     C376055   6.609   3.025  12.282  0.4618  0.0349  0.1478
44079DOD     C176056   4.501  10.582  22.126 -0.0166  0.0123 -0.0314
44079DOD     C276057   4.340  11.004  22.050  0.2710  0.0152 -0.2099
44079DOD     C376058   4.078  11.293  21.793  0.0473  0.1634 -0.3878
44080DOD     C176059  18.885   4.776  21.098 -0.0039 -0.0373  0.1057
44080DOD     C276060  18.951   4.363  21.239 -0.1016 -0.0453 -0.1276
44080DOD     C376061  19.250   4.108  21.552  0.1275 -0.0327 -0.1534
44081DOD     C176062  24.266  13.873  21.134 -0.1587 -0.0716  0.0867
44081DOD     C276063  24.238  13.838  21.640 -0.4716  0.1719  0.1486
44081DOD     C376064  24.127  13.855  22.068  0.0945 -0.2440 -0.2300
44082DOD     C176065  30.202  24.371  12.987  0.2012 -0.2646  0.0598
44082DOD     C276066  30.331  24.762  12.672  0.2906 -0.0413 -0.0374
44082DOD     C376067  30.148  25.164  12.534 -0.2896  0.0765 -0.1309
44083DOD     C176068  20.931   4.469   8.631  0.0795  0.2722 -0.1304
44083DOD     C276069  21.221   4.835   8.507  0.0088  0.2338 -0.1256
44083DOD     C376070  21.351   5.182   8.161  0.1377 -0.1430 -0.1915
44084DOD     C176071  10.357  16.363  23.139  0.0959  0.1221  0.1288
44084DOD     C276072  10.114  16.640  22.828  0.2852  0.1005  0.1070
44084DOD     C376073  10.198  16.964  22.520 -0.3403 -0.2485 -0.1187
44085DOD     C176074  23.791   5.500  20.892 -0.2560  0.4016 -0.2493
44085DOD     C276075  23.853   5.933  20.851 -0.5604 -0.4053 -0.2061
44085DOD     C376076  24.235   6.197  20.652  0.0368 -0.1675 -0.1427
44086DOD     C176077  10.404  17.156   9.059  0.4079  0.1484 -0.3131
44086DOD     C276078  10.449  17.263   9.523 -0.1281  0.1140 -0.0947
44086DOD     C376079  10.579  17.157  10.005  0.0758 -0.0378 -0.2691
44087DOD     C176080   3.806  23.937   4.816 -0.2692 -0.1488  0.2841
44087DOD     C276081   4.101  23.933   4.457 -0.0079 -0.1162  0.0858
44087DOD     C376082   4.021  23.769   4.028 -0.3366 -0.2452  0.3948
44088DOD     C176083  15.787  29.788   1.314 -0.1735  0.0266 -0.2584
44088DOD     C276084  15.485  29.427   1.258  0.1245  0.0776  0.1648
44088DOD     C376085  15.182  29.070   1.363  0.1426 -0.0618  0.1421
44089DOD     C176086   9.869  23.852  17.040 -0.1068 -0.2016  0.0204
44089DOD     C276087   9.468  24.115  16.970 -0.0490  0.1792 -0.1192
44089DOD     C376088   9.049  24.328  16.758 -0.1250  0.1451  0.0537
44090DOD     C176089  14.939  19.423  21.423 -0.0825  0.1642  0.0586
44090DOD     C276090  15.260  19.080  21.441  0.0796  0.0981 -0.1060
44090DOD     C376091  15.224  18.570  21.407  0.1151  0.1477  0.1254
44091DOD     C176092  27.310   8.259  22.739 -0.0477 -0.7870 -0.2357
44091DOD     C276093  26.894   8.078  22.785  0.2628  0.0556 -0.1093
44091DOD     C376094  26.482   8.045  22.530  0.1122  0.1080 -0.0378
44092DOD     C176095  29.872  16.505  24.635  0.0554  0.0063 -0.1532
44092DOD     C276096  29.978  16.078  24.714 -0.0141 -0.2144  0.0726
44092DOD     C376097  30.308  15.730  24.893 -0.2284  0.0701 -0.2229
44093DOD     C176098   2.540  24.908  22.998  0.0301 -0.2020  0.2954
44093DOD     C276099   2.194  25.208  22.942 -0.0015 -0.1351  0.0018
44093DOD     C376100   1.766  25.252  23.169  0.1043  0.0900 -0.1937
44094DOD     C176101  25.366  10.892  23.582  0.0835  0.0091  0.1340
44094DOD     C276102  25.795  11.051  23.434  0.1677  0.1888  0.4729
44094DOD     C376103  26.261  11.055  23.317  0.2088  0.0848  0.0527
44095DOD     C176104   3.281   7.514  10.259  0.1042  0.0750  0.0352
44095DOD     C276105   2.828   7.455  10.257 -0.0978 -0.1747 -0.2186
44095DOD     C376106   2.361   7.278  10.385 -0.2440  0.3031  0.3412
44096DOD     C176107  28.466  28.888  15.049  0.0349 -0.1438  0.0481
44096DOD     C276108  28.571  28.801  14.589 -0.2122  0.0562 -0.0756
44096DOD     C376109  28.656  29.122  14.305  0.0611  0.1297  0.2800
44097DOD     C176110   7.495  25.860  12.329  0.1085 -0.2859 -0.1091
44097DOD     C276111   7.141  26.020  12.044  0.0196 -0.2939 -0.1086
44097DOD     C376112   7.085  26.189  11.630  0.2788 -0.3263  0.0114
44098DOD     C176113  19.483  13.842   2.884  0.0682 -0.0372  0.0325
44098DOD     C276114  19.906  14.040   3.011  0.4523 -0.1244  0.3428
44098DOD     C376115  20.271  14.376   3.105  0.1562 -0.1592  0.2527
44099DOD     C176116   9.676  10.051  13.745  0.0201  0.1330 -0.0447
44099DOD     C276117   9.686  10.539  13.773 -0.0132  0.2083 -0.0981
44099DOD     C376118   9.878  10.883  13.527 -0.0801 -0.0982  0.0592
44100DOD     C176119  21.153   0.654  25.485 -0.2012  0.2219 -0.1538
44100DOD     C276120  21.147   0.668  24.946 -0.1528  0.1201 -0.2120
44100DOD     C376121  21.161   0.345  24.667 -0.2351 -0.1273  0.0104
44101DOD     C176122  25.951   8.208   8.239  0.1510 -0.3573 -0.0655
44101DOD     C276123  26.194   7.842   8.517  0.0827  0.1550  0.2177
44101DOD     C376124  26.268   7.384   8.590 -0.2737  0.1432  0.1848
44102DOD     C176125  15.128  21.650  26.292 -0.0319 -0.2152 -0.0220
44102DOD     C276126  14.810  21.396  26.061 -0.0834  0.0169  0.2455
44102DOD     C376127  14.652  21.161  25.726  0.0906 -0.2762  0.3479
44103DOD     C176128  14.838  19.575   8.156 -0.2369  0.0661  0.1639
44103DOD     C276129  15.194  19.850   8.155 -0.0598 -0.0720  0.1319
44103DOD     C376130  15.610  20.030   8.258 -0.1117 -0.1579 -0.3092
44104DOD     C176131  24.991  23.780  23.935  0.2882  0.1565  0.0399
44104DOD     C276132  24.589  23.546  23.941  0.0755  0.0020  0.0285
44104DOD     C376133  24.191  23.458  24.092 -0.1729 -0.1723 -0.3432
44105DOD     C176134  18.404   6.904  24.386 -0.1695 -0.0271 -0.0970
44105DOD     C276135  18.096   6.687  24.582  0.0464 -0.1449 -0.2991
44105DOD     C376136  17.842   6.482  24.872  0.0415 -0.0919 -0.1129
44106DOD     C176137  16.649   5.251  30.178  0.3175  0.3734 -0.0667
44106DOD     C276138  16.279   5.000  30.131 -0.0435  0.4219 -0.0960
44106DOD     C376139  16.238   4.509  30.238 -0.2724  0.0446 -0.0794
44107DOD     C176140  20.523   7.158  12.464 -0.0124  0.2580  0.0657
44107DOD     C276141  20.871   7.299  12.164  0.1406 -0.0325  0.2459
44107DOD     C376142  21.175   7.529  11.954 -0.3017  0.2989 -0.0435
44108DOD     C176143   4.373  13.780   1.394  0.1666  0.1146  0.2201
44108DOD     C276144   4.561  13.382   1.557  0.2351  0.2084 -0.0028
44108DOD     C376145   4.840  13.002   1.577 -0.0206 -0.0538  0.0103
44109DOD     C176146  10.552  14.604  28.429  0.2905  0.2993 -0.2824
44109DOD     C276147  10.189  14.533  28.751 -0.0455 -0.0867  0.3285
44109DOD     C376148   9.773  14.611  28.916  0.0754 -0.2634 -0.1475
44110DOD     C176149   5.489  24.698  23.532 -0.1230  0.0645 -0.2619
44110DOD     C276150   5.037  24.699  23.771  0.0175  0.0614 -0.1731
44110DOD     C376151   4.920  24.602  24.226 -0.0980  0.0730 -0.1277
44111DOD     C176152  22.523  23.475  20.374  0.0189 -0.0800  0.2811
44111DOD     C276153  22.133  23.614  20.557 -0.0650 -0.0844 -0.0138
44111DOD     C376154  21.834  23.664  20.892  0.0042 -0.0174 -0.3225
44112DOD     C176155  15.880  22.463  14.283  0.0792 -0.0660  0.0849
44112DOD     C276156  15.674  22.822  14.146 -0.3056  0.2842 -0.1430
44112DOD     C376157  15.438  23.143  13.870 -0.0807 -0.0368  0.0964
44113DOD     C176158  10.543  10.719   6.061  0.0379  0.0610  0.2062
44113DOD     C276159  10.528  11.129   6.210 -0.0960 -0.2388  0.3664
44113DOD     C376160  10.254  11.400   6.477 -0.1307 -0.2251  0.2423
44114DOD     C176161   0.732  26.187   4.149 -0.0449  0.1933  0.2767
44114DOD     C276162   0.763  26.654   4.198 -0.2933 -0.0307 -0.1697
44114DOD     C376163   0.545  27.014   3.924 -0.0769  0.1583  0.1945
44115DOD     C176164   4.092  18.255  23.111  0.2157  0.0069 -0.0531
44115DOD     C276165   4.139  18.686  23.300  0.2879 -0.2724 -0.1729
44115DOD     C376166   4.361  19.153  23.334 -0.0866  0.0950 -0.4253
44116DOD     C176167   8.977   3.425  23.641  0.1806 -0.1271  0.0614
44116DOD     C276168   8.757   3.489  23.219 -0.1692 -0.3099 -0.2396
44116DOD     C376169   8.666   3.778  22.861  0.1171  0.1990 -0.0875
44117DOD     C176170   5.155  11.785  15.368  0.1349  0.0267 -0.1411
44117DOD     C276171   5.131  11.987  14.913 -0.1830  0.0554 -0.4086
44117DOD     C376172   5.162  11.797  14.460 -0.0644  0.3335  0.2310
44118DOD     C176173  25.528  13.614   9.299  0.2490 -0.0447 -0.1849
44118DOD     C276174  25.933  13.591   9.155 -0.0855  0.1881  0.4889
44118DOD     C376175  26.281  13.806   9.097  0.1041 -0.1745  0.3960
44119DOD     C176176  19.570  17.222  14.451 -0.2948 -0.1548  0.0266
44119DOD     C276177  19.153  17.493  14.363 -0.1389 -0.2596 -0.1077
44119DOD     C376178  18.801  17.786  14.232 -0.0474 -0.0583 -0.0319
44120DOD     C176179   6.487  24.598  26.567 -0.0888 -0.0115  0.2102
44120DOD     C276180   6.850  24.714  26.839  0.0776 -0.1775 -0.2684
44120DOD     C376181   7.040  24.942  27.183  0.2144  0.1586 -0.0750
44121DOD     C176182  11.303  12.114  21.816  0.1931 -0.4516 -0.0855
44121DOD     C276183  11.195  11.675  21.889 -0.1586 -0.1055 -0.0459
44121DOD     C376184  10.975  11.270  21.945  0.0536  0.1314  0.0192
44122DOD     C176185  28.547  26.528   7.695 -0.1554 -0.0640  0.0719
44122DOD     C276186  28.810  26.381   7.322 -0.0178 -0.2532 -0.0369
44122DOD     C376187  28.650  26.365   6.883  0.1455 -0.1025 -0.3982
44123DOD     C176188  18.879   0.884   8.312  0.1438  0.2544 -0.1177
44123DOD     C276189  18.847   0.672   7.906  0.2013  0.2459  0.1598
44123DOD     C376190  18.819   0.209   7.846  0.2853 -0.1441  0.1293
44124DOD     C176191  21.395  10.932   6.205 -0.1097  0.0890 -0.0883
44124DOD     C276192  21.557  10.732   6.560  0.6279 -0.1701 -0.1001
44124DOD     C376193  21.610  10.347   6.669  0.2282  0.0584 -0.1047
44125DOD     C176194  28.127  17.119  19.670  0.5030 -0.0257  0.1391
44125DOD     C276195  27.861  17.096  20.057  0.1389  0.1142 -0.1122
44125DOD     C376196  27.707  16.705  20.304 -0.1959 -0.1389  0.0186
44126DOD     C176197  22.281  12.597  12.878 -0.1002 -0.2873 -0.0734
44126DOD     C276198  22.591  12.620  12.529  0.1020  0.0517 -0.0525
44126DOD     C376199  22.914  12.623  12.194 -0.2177 -0.1345  0.0905
44127DOD     C176200   8.929  15.940  21.196  0.2007 -0.2626 -0.1203
44127DOD     C276201   8.521  16.063  20.969  0.1438 -0.0984  0.0255
44127DOD     C376202   8.115  16.096  20.667 -0.0323 -0.0637 -0.0619
44128DOD     C176203  10.386  25.974  20.517  0.1088 -0.1643  0.3209
44128DOD     C276204  10.294  26.337  20.704  0.0316 -0.0269 -0.1403
44128DOD     C376205  10.643  26.578  20.942 -0.0953  0.3348  0.2631
44129DOD     C176206  30.214  17.103  21.263  0.0563 -0.0614 -0.1645
44129DOD     C276207  30.163  17.544  21.125  0.1010  0.0048 -0.2771
44129DOD     C376208  30.000  17.990  20.915 -0.3416 -0.1580 -0.1683
44130DOD     C176209  22.103  29.522   7.929 -0.2342  0.0966  0.3108
44130DOD     C276210  22.335  29.802   8.216  0.0348 -0.1636 -0.1472
44130DOD     C376211  22.790  29.733   8.300 -0.3352  0.2494  0.2716
44131DOD     C176212   5.774   7.647  10.581  0.2090 -0.0255 -0.1763
44131DOD     C276213   5.728   7.652  10.158 -0.0022 -0.2606  0.3321
44131DOD     C376214   5.621   7.905   9.785 -0.2528  0.0497 -0.1298
44132DOD     C176215  17.491  12.641  10.094 -0.2605 -0.1413 -0.0410
44132DOD     C276216  17.507  13.059  10.331  0.1656  0.1475  0.0683
44132DOD     C376217  17.455  13.301  10.767 -0.1305 -0.0791 -0.0628
44133DOD     C176218  18.819   9.479  10.579  0.0863 -0.0168 -0.1149
44133DOD     C276219  18.992   9.108  10.904  0.0854  0.1218 -0.1543
44133DOD     C376220  18.869   8.656  11.018  0.0908 -0.1303 -0.0525
44134DOD     C176221  27.391  15.404  19.023  0.0747  0.1717 -0.2991
44134DOD     C276222  27.668  15.386  19.366 -0.0986 -0.0916 -0.1240
44134DOD     C376223  27.737  15.503  19.812 -0.0592  0.0993  0.0017
44135DOD     C176224  14.274  21.680   1.024  0.0818  0.1667 -0.0397
44135DOD     C276225  13.839  21.843   0.851 -0.2423  0.2277 -0.2091
44135DOD     C376226  13.509  21.763   0.513 -0.3264  0.2141 -0.0481
44136DOD     C176227   3.805  29.894   9.902  0.2273 -0.4166 -0.0413
44136DOD     C276228   4.137  30.113   9.637  0.2229 -0.3430  0.0070
44136DOD     C376229   4.394   0.025   9.299  0.0526 -0.1213  0.2250
44137DOD     C176230  20.751  30.131  10.903  0.0672  0.1466  0.0181
44137DOD     C276231  20.498   0.142  10.779 -0.0780  0.1719  0.2738
44137DOD     C376232  20.411   0.422  10.387  0.3342  0.0333 -0.0089
44138DOD     C176233   6.073   5.673   7.939 -0.0654  0.0840  0.2211
44138DOD     C276234   6.415   6.005   7.727 -0.2202 -0.0800  0.1606
44138DOD     C376235   6.720   6.340   7.773 -0.3222  0.0894  0.0757
44139DOD     C176236   0.721  23.309  24.856 -0.0232  0.1395 -0.1176
44139DOD     C276237   0.443  23.624  25.071 -0.0018 -0.0739  0.0891
44139DOD     C376238   0.211  23.809  25.411 -0.1807 -0.2718  0.1501
44140DOD     C176239   2.852  12.948   4.153  0.1543  0.1221 -0.3654
44140DOD     C276240   3.226  12.982   4.389 -0.1953 -0.5131  0.0310
44140DOD     C376241   3.279  12.998   4.824  0.3153 -0.4223 -0.3867
44141DOD     C176242  13.713  18.566  29.997  0.1287 -0.0540  0.1368
44141DOD     C276243  13.803  18.415  29.580  0.1128 -0.1890 -0.0647
44141DOD     C376244  14.242  18.278  29.494 -0.2558  0.1493  0.1425
44142DOD     C176245   2.778  30.238  10.362  0.0198  0.2370  0.1244
44142DOD     C276246   2.752   0.254   9.999  0.2577  0.1340 -0.1039
44142DOD     C376247   3.070   0.656   9.877  0.0333 -0.0711 -0.2393
44143DOD     C176248   0.941  20.853  18.578 -0.3444 -0.1178  0.1079
44143DOD     C276249   0.551  20.722  18.778  0.0666  0.1695 -0.0189
44143DOD     C376250   0.152  20.754  18.670  0.3196  0.1317  0.1544
44144DOD     C176251  20.891  28.310  29.763 -0.3001  0.3049  0.3087
44144DOD     C276252  20.824  28.544  30.161  0.1493 -0.0842  0.1251
44144DOD     C376253  20.691  28.811   0.156  0.0490 -0.2056  0.2892
44145DOD     C176254  27.430  29.065  10.185 -0.0586  0.0791 -0.1418
44145DOD     C276255  27.031  29.150  10.208 -0.1267  0.1890  0.3272
44145DOD     C376256  26.706  29.461  10.326 -0.1357  0.2629 -0.0800
44146DOD     C176257  21.981  17.859  27.733 -0.1694 -0.0266  0.1350
44146DOD     C276258  21.770  18.116  28.032  0.0075  0.0351 -0.0063
44146DOD     C376259  21.962  18.426  28.331 -0.2001 -0.0071  0.1393
44147DOD     C176260  10.560   2.842   4.166 -0.0447  0.0580  0.0828
44147DOD     C276261  10.644   3.299   4.229  0.0827  0.0332  0.0698
44147DOD     C376262  10.847   3.738   4.166 -0.2956  0.0551 -0.2841
44148DOD     C176263   7.461  21.964  29.290 -0.0371 -0.1589  0.3459
44148DOD     C276264   7.506  21.704  29.674 -0.4782  0.1535 -0.0653
44148DOD     C376265   7.127  21.689  29.983 -0.2236 -0.2228 -0.1011
44149DOD     C176266  16.176   8.066  27.659 -0.0186  0.1517 -0.0734
44149DOD     C276267  16.386   8.474  27.763 -0.1658 -0.4556 -0.1814
44149DOD     C376268  16.482   8.872  27.605  0.1235 -0.2302 -0.3098
44150DOD     C176269  16.640  10.458  28.346  0.0697  0.2669 -0.0190
44150DOD     C276270  16.626  10.707  28.719  0.5220 -0.2202 -0.0256
44150DOD     C376271  16.754  10.727  29.141 -0.0974 -0.2461  0.1703
44151DOD     C176272   5.863  21.824  24.282  0.0746 -0.0478 -0.1928
44151DOD     C276273   5.733  21.576  23.930  0.0603  0.1109  0.0648
44151DOD     C376274   5.289  21.373  23.789 -0.0352  0.1614  0.0803
44152DOD     C176275  10.392   8.187  19.362 -0.2591  0.3016 -0.1374
44152DOD     C276276  10.266   8.628  19.180  0.1429 -0.1851  0.0080
44152DOD     C376277  10.174   9.007  18.995 -0.0142 -0.0889  0.2599
44153DOD     C176278  20.836   4.469   2.477  0.1773 -0.1771 -0.0422
44153DOD     C276279  20.813   3.985   2.419  0.0594  0.3776  0.3092
44153DOD     C376280  20.753   3.783   2.021 -0.3165  0.4596 -0.3027
44154DOD     C176281  26.566  11.792  26.865  0.1476 -0.1365 -0.2052
44154DOD     C276282  26.438  11.378  27.037  0.1830 -0.3104 -0.1786
44154DOD     C376283  25.990  11.263  27.197 -0.2329  0.0831  0.1644
44155DOD     C176284  22.527   8.931  23.021  0.0009 -0.1879  0.0112
44155DOD     C276285  22.213   9.059  23.286 -0.0400  0.2082 -0.2071
44155DOD     C376286  22.003   8.960  23.680 -0.2143  0.0462 -0.0118
44156DOD     C176287  18.505  26.163   4.198 -0.2166  0.1606 -0.1774
44156DOD     C276288  18.530  25.704   4.312 -0.2201 -0.1346 -0.1492
44156DOD     C376289  18.315  25.361   4.597 -0.0351 -0.0525 -0.0718
44157DOD     C176290  21.437  24.150   2.418  0.0216 -0.1312 -0.0645
44157DOD     C276291  21.065  24.067   2.678  0.0738  0.4709 -0.0891
44157DOD     C376292  20.986  23.748   2.980  0.0443 -0.1532 -0.3607
44158DOD     C176293  24.898  12.233  22.082  0.1317  0.2641 -0.0602
44158DOD     C276294  24.533  12.141  21.832  0.0513 -0.1198 -0.0035
44158DOD     C376295  24.149  11.952  21.634 -0.0868 -0.1870  0.0490
44159DOD     C176296  23.433  24.851  23.159 -0.1826  0.1423 -0.2601
44159DOD     C276297  23.406  24.351  23.247 -0.3447 -0.0585  0.0747
44159DOD     C376298  23.643  23.951  23.150  0.0095 -0.1525 -0.0030
44160DOD     C176299  16.270  21.169   4.947  0.0142 -0.1908 -0.3139
44160DOD     C276300  16.561  21.499   5.111  0.1452  0.0029  0.2377
44160DOD     C376301  16.838  21.796   5.384  0.1478 -0.2406  0.0313
44161DOD     C176302  23.663  24.693   5.800  0.1044 -0.1325 -0.3563
44161DOD     C276303  23.698  24.242   5.955 -0.0975  0.1878  0.5056
44161DOD     C376304  23.455  23.844   6.048 -0.1133 -0.0479  0.4385
44162DOD     C176305  30.004  25.455  28.004 -0.2586  0.0479 -0.0201
44162DOD     C276306  29.771  25.180  28.299  0.1200  0.0375 -0.0529
44162DOD     C376307  29.819  24.948  28.689 -0.0048  0.2244 -0.1107
44163DOD     C176308  10.869  28.327  10.436 -0.1945 -0.1899  0.0610
44163DOD     C276309  11.186  28.321  10.102 -0.0258  0.0036 -0.3012
44163DOD     C376310  11.181  28.588   9.705 -0.1868 -0.4095 -0.1468
44164DOD     C176311  13.674   7.528  22.951 -0.0498  0.0036 -0.0937
44164DOD     C276312  13.966   7.933  22.937 -0.3294 -0.0127  0.0282
44164DOD     C376313  14.161   8.288  22.678 -0.0547  0.2921 -0.0875
44165DOD     C176314  15.191   5.930   3.298  0.1205 -0.0332  0.1691
44165DOD     C276315  15.506   5.837   2.965 -0.1091 -0.1117  0.1506
44165DOD     C376316  15.727   5.775   2.519 -0.5023  0.1528  0.0260
44166DOD     C176317  10.249  21.678  29.715 -0.0684 -0.2024 -0.0423
44166DOD     C276318  10.698  21.619  29.577 -0.0493  0.1376  0.0131
44166DOD     C376319  11.012  21.334  29.331 -0.2892  0.0578  0.0121
44167DOD     C176320   4.403   8.475  12.599  0.0414 -0.0708 -0.0787
44167DOD     C276321   4.282   8.772  12.297  0.1598 -0.6210 -0.3322
44167DOD     C376322   4.118   8.932  11.928 -0.1253  0.1054 -0.0924
44168DOD     C176323  20.047  25.762  16.567  0.1864 -0.1353  0.0294
44168DOD     C276324  20.126  25.342  16.678  0.0056 -0.2119  0.1297
44168DOD     C376325  20.055  24.976  16.930  0.0262  0.0422 -0.2346
44169DOD     C176326  18.149   1.445   8.609  0.2310  0.0912 -0.1809
44169DOD     C276327  17.998   1.333   8.137 -0.3402  0.0598  0.3055
44169DOD     C376328  17.851   1.012   7.773 -0.2269 -0.0875  0.1180
44170DOD     C176329  10.693  16.702   3.217  0.2925  0.2359  0.1132
44170DOD     C276330  10.909  17.140   3.313 -0.1368  0.0009  0.2220
44170DOD     C376331  10.777  17.541   3.259 -0.2635  0.2224 -0.0737
44171DOD     C176332   4.449   7.456  22.465 -0.0084  0.0207 -0.1507
44171DOD     C276333   4.265   7.147  22.774 -0.1133  0.0367  0.2084
44171DOD     C376334   4.294   6.715  22.948  0.0410 -0.1018 -0.1527
44172DOD     C176335  27.490   3.200  12.575 -0.0506  0.1386 -0.0267
44172DOD     C276336  27.813   3.329  12.735  0.1208 -0.0046  0.1775
44172DOD     C376337  28.108   3.101  12.940  0.0962  0.1629 -0.1248
44173DOD     C176338  27.550  23.235   0.723 -0.3017 -0.2689 -0.1380
44173DOD     C276339  27.255  23.288   0.348 -0.2517  0.1519  0.0478
44173DOD     C376340  27.297  23.051  30.273 -0.0277  0.0029 -0.0686
44174DOD     C176341   5.923  11.629  21.505 -0.1375  0.0975 -0.0899
44174DOD     C276342   6.220  11.411  21.848  0.0787  0.4114 -0.0146
44174DOD     C376343   6.521  11.406  22.198 -0.1329 -0.2903 -0.0868
44175DOD     C176344  12.772  15.249   1.960 -0.1353  0.1607 -0.3439
44175DOD     C276345  13.186  15.182   2.224  0.0685 -0.0673  0.1308
44175DOD     C376346  13.229  14.715   2.301  0.1273  0.1887 -0.2449
44176DOD     C176347   4.182   4.883   5.097 -0.1339 -0.0738  0.0724
44176DOD     C276348   4.116   4.447   5.257  0.1642 -0.2142 -0.0199
44176DOD     C376349   3.782   4.118   5.208 -0.0203 -0.2685  0.1077
44177DOD     C176350  17.243  28.427  25.678  0.0235  0.1997  0.1932
44177DOD     C276351  16.856  28.180  25.487  0.0750  0.1590 -0.0954
44177DOD     C376352  16.741  27.722  25.479 -0.1154  0.0593  0.0484
44178DOD     C176353   8.895   1.963   9.382 -0.0522  0.1267 -0.0460
44178DOD     C276354   9.258   1.655   9.395 -0.0500 -0.2157  0.0256
44178DOD     C376355   9.326   1.215   9.319 -0.0418  0.0801  0.0442
44179DOD     C176356   2.599   2.701  11.267  0.0262 -0.3459  0.1230
44179DOD     C276357   2.349   3.052  11.401 -0.1358 -0.2964  0.2169
44179DOD     C376358   1.868   3.136  11.293  0.0996  0.1654 -0.1513
44180DOD     C176359  11.319   3.627  16.335 -0.0164  0.0734  0.1210
44180DOD     C276360  11.180   3.275  16.597  0.0018  0.1227 -0.1976
44180DOD     C376361  11.249   2.825  16.783  0.1082  0.1084 -0.0206
44181DOD     C176362  16.806  17.596   1.915 -0.1275 -0.0611 -0.0872
44181DOD     C276363  16.759  17.954   2.286  0.2415 -0.2281  0.2471
44181DOD     C376364  16.479  18.077   2.660 -0.2173  0.1869  0.2332
44182DOD     C176365  15.325   7.144   8.453 -0.2468 -0.2586 -0.1519
44182DOD     C276366  15.378   6.932   8.844  0.1556  0.3063  0.1199
44182DOD     C376367  15.467   6.695   9.215 -0.0466  0.0702  0.1680
44183DOD     C176368   2.162  24.121  21.964 -0.0227  0.0235  0.1265
44183DOD     C276369   2.576  24.086  22.145  0.0998  0.2947 -0.3321
44183DOD     C376370   2.950  23.866  22.196 -0.2057  0.0013 -0.1402
44184DOD     C176371  15.171  20.774  10.979  0.0225 -0.0060  0.0604
44184DOD     C276372  14.763  20.954  11.073  0.1825 -0.2862  0.0451
44184DOD     C376373  14.589  21.310  10.834 -0.0175  0.3027 -0.1401
44185DOD     C176374  20.859   7.808  16.076 -0.0955 -0.3793 -0.0898
44185DOD     C276375  21.288   7.934  16.066 -0.2138 -0.0294 -0.3924
44185DOD     C376376  21.641   7.669  15.888 -0.1288  0.2069  0.0583
44186DOD     C176377  11.182  20.006   4.653  0.1954  0.2800 -0.1537
44186DOD     C276378  11.502  19.955   5.020  0.1499 -0.2740  0.2714
44186DOD     C376379  11.856  19.822   5.314  0.0943  0.0786 -0.2698
44187DOD     C176380  14.437  23.241   6.431 -0.2268 -0.1015  0.1727
44187DOD     C276381  14.264  23.493   6.788  0.2841  0.0857  0.0953
44187DOD     C376382  14.246  23.947   6.886 -0.1537  0.1283  0.0392
44188DOD     C176383  17.720  12.185   1.924 -0.0519 -0.1157 -0.1772
44188DOD     C276384  17.805  11.998   2.356 -0.0829 -0.2576 -0.2561
44188DOD     C376385  17.956  12.048   2.800 -0.1181  0.2537 -0.1906
44189DOD     C176386  12.373   7.868  10.415  0.0813  0.1668  0.4252
44189DOD     C276387  12.446   8.112  10.779 -0.0209 -0.1245  0.2430
44189DOD     C376388  12.508   8.231  11.225  0.0702 -0.1231 -0.3278
44190DOD     C176389  15.776   2.544  29.520  0.0724  0.0258  0.0646
44190DOD     C276390  15.614   2.915  29.245 -0.2303 -0.3826  0.0470
44190DOD     C376391  15.299   3.064  28.931  0.1185 -0.2391  0.2458
44191DOD     C176392  27.494   3.640   4.897 -0.0622 -0.0486  0.1383
44191DOD     C276393  27.448   3.678   4.406  0.2169 -0.1608 -0.0663
44191DOD     C376394  27.412   3.718   3.952  0.1052 -0.2853  0.0857
44192DOD     C176395   9.577   4.715  13.595  0.0480 -0.1128 -0.0027
44192DOD     C276396   9.184   4.513  13.741 -0.0715  0.1059  0.0797
44192DOD     C376397   8.762   4.382  13.921 -0.0458 -0.1411  0.1218
44193DOD     C176398   2.934   0.279  21.122 -0.2158  0.2056 -0.1606
44193DOD     C276399   2.532   0.031  21.348  0.1491  0.2514 -0.0307
44193DOD     C376400   2.092  30.295  21.295 -0.5555 -0.0492 -0.0866
44194DOD     C176401   4.090  21.479   6.916  0.0562  0.0603  0.3190
44194DOD     C276402   4.054  21.013   7.155  0.1374 -0.0503  0.1383
44194DOD     C376403   4.085  20.858   7.590 -0.0876 -0.2326  0.0080
44195DOD     C176404  16.974  13.119   3.086 -0.3952 -0.0040 -0.0469
44195DOD     C276405  17.155  13.052   2.669 -0.5099 -0.2806 -0.1669
44195DOD     C376406  17.298  12.973   2.226 -0.0922  0.1236  0.2412
44196DOD     C176407   7.111  17.686   2.039 -0.1775 -0.0372  0.0723
44196DOD     C276408   7.388  18.039   2.259  0.0062  0.2712 -0.0701
44196DOD     C376409   7.815  18.207   2.341  0.2077 -0.2186  0.1203
44197DOD     C176410  10.864  15.687   9.832  0.1763 -0.0708  0.1663
44197DOD     C276411  10.722  15.290   9.737  0.3010 -0.2396 -0.0470
44197DOD     C376412  10.629  14.890   9.977 -0.2273  0.1640  0.3484
44198DOD     C176413  18.149  20.727  17.050  0.1598  0.1364  0.1931
44198DOD     C276414  18.211  21.200  17.003  0.0186  0.0410  0.2814
44198DOD     C376415  18.090  21.413  16.610  0.0418  0.1674  0.0833
44199DOD     C176416   0.817  24.040  18.403  0.1639 -0.0881  0.2681
44199DOD     C276417   0.616  24.452  18.227 -0.5266 -0.0313  0.1592
44199DOD     C376418   0.316  24.605  17.888 -0.1276 -0.0360 -0.0270
44200DOD     C176419   2.754   9.672   4.305 -0.2311 -0.2452 -0.3109
44200DOD     C276420   2.429   9.966   4.198 -0.0624  0.4426  0.0447
44200DOD     C376421   2.119  10.007   3.852  0.0396 -0.0372  0.1003
44201DOD     C176422  21.524   1.791  20.954  0.0829 -0.0574  0.0798
44201DOD     C276423  21.947   1.620  20.814  0.0519 -0.0158 -0.0432
44201DOD     C376424  22.430   1.634  20.623 -0.1720  0.0393  0.0607
44202DOD     C176425  17.588  10.524  14.859 -0.0282  0.3158  0.0488
44202DOD     C276426  17.615  10.121  14.612 -0.0316 -0.3294 -0.0240
44202DOD     C376427  17.277   9.871  14.300  0.0889  0.1672  0.0447
44203DOD     C176428  25.957  14.125  24.254 -0.1286  0.0509  0.1416
44203DOD     C276429  25.748  14.275  23.885  0.0013  0.1090 -0.2918
44203DOD     C376430  25.685  14.133  23.444 -0.3030 -0.0241  0.3508
44204DOD     C176431   7.752  13.213  22.612  0.1801 -0.0624  0.1079
44204DOD     C276432   7.565  13.529  22.317  0.0805  0.3084  0.2574
44204DOD     C376433   7.286  13.884  22.159  0.2431 -0.0482  0.0927
44205DOD     C176434  29.936  11.956   2.827  0.2453 -0.3970 -0.1636
44205DOD     C276435  29.543  12.127   3.151 -0.2850 -0.1236  0.1768
44205DOD     C376436  29.150  11.970   3.177  0.5395 -0.0565 -0.1668
44206DOD     C176437  10.161   5.283  11.933  0.0373  0.2756  0.0296
44206DOD     C276438  10.250   5.439  11.517  0.0044 -0.0131 -0.1745
44206DOD     C376439  10.140   5.244  11.045  0.0051 -0.1916 -0.1619
44207DOD     C176440  14.840  21.998  15.300 -0.1325 -0.1312 -0.0607
44207DOD     C276441  14.786  21.904  15.737 -0.0889 -0.0338  0.3293
44207DOD     C376442  14.852  21.975  16.193  0.2542  0.1940  0.1032
44208DOD     C176443   5.289  13.168  19.835  0.0053  0.2005 -0.1307
44208DOD     C276444   5.144  12.707  19.732  0.0499 -0.0161 -0.1399
44208DOD     C376445   4.750  12.420  19.643  0.0912 -0.1394  0.1451
44209DOD     C176446  22.753  13.616  29.882 -0.0480 -0.3608 -0.0567
44209DOD     C276447  22.465  13.708  29.576 -0.1338  0.3892 -0.0091
44209DOD     C376448  22.158  14.014  29.293 -0.2152  0.3234 -0.2558
44210DOD     C176449  28.419  27.138   5.078 -0.1370 -0.1032 -0.0789
44210DOD     C276450  28.437  26.743   4.779 -0.1367  0.1380 -0.0287
44210DOD     C376451  28.459  26.303   4.531 -0.0956  0.1629 -0.0599
44211DOD     C176452  14.705   6.778  20.774 -0.2375 -0.0549  0.3310
44211DOD     C276453  14.259   6.811  20.792 -0.0127 -0.0144 -0.4055
44211DOD     C376454  14.050   7.054  20.480 -0.0042 -0.3101 -0.1348
44212DOD     C176455  18.500  19.097  24.686  0.0763 -0.0208 -0.5420
44212DOD     C276456  18.704  19.427  24.372 -0.0471 -0.2096 -0.0383
44212DOD     C376457  19.096  19.462  24.219  0.2140  0.0808  0.1970
44213DOD     C176458  21.335   8.935  21.172 -0.2524  0.1758  0.1897
44213DOD     C276459  21.470   9.262  21.423 -0.0355  0.2145  0.1939
44213DOD     C376460  21.478   9.563  21.846 -0.2017 -0.0069  0.0661
44214DOD     C176461  26.522  15.803  28.556  0.0199  0.0340 -0.0909
44214DOD     C276462  26.450  15.548  28.969 -0.1629  0.1423  0.0734
44214DOD     C376463  26.324  15.660  29.416 -0.1868  0.2359  0.2070
44215DOD     C176464  10.158  13.531  12.059  0.1475 -0.1919  0.0806
44215DOD     C276465  10.084  13.056  12.089 -0.0864 -0.1128  0.0369
44215DOD     C376466   9.801  12.709  12.313 -0.0702 -0.0666 -0.5423
44216DOD     C176467   3.773  14.957  11.397 -0.0335  0.1777 -0.0793
44216DOD     C276468   3.883  15.394  11.329 -0.1143 -0.0806  0.1785
44216DOD     C376469   3.785  15.869  11.347  0.0350  0.0628  0.0128
44217DOD     C176470  26.924  27.509   0.573 -0.0933 -0.2071  0.1517
44217DOD     C276471  27.322  27.436   0.362  0.0585  0.1474  0.3230
44217DOD     C376472  27.655  27.155   0.523 -0.2350  0.0566  0.1266
44218DOD     C176473   9.284  25.195  29.308 -0.1211 -0.0329 -0.1245
44218DOD     C276474   9.340  25.570  29.031  0.2676 -0.0802  0.1342
44218DOD     C376475   9.758  25.714  28.916 -0.1589 -0.2087  0.1382
44219DOD     C176476   1.182   3.380   7.865  0.0420  0.3056 -0.2876
44219DOD     C276477   1.392   3.626   8.153  0.1670 -0.2051 -0.1173
44219DOD     C376478   1.597   3.902   8.484  0.0782  0.4788  0.2409
44220DOD     C176479  19.629  25.111   2.213  0.1749 -0.2157  0.2088
44220DOD     C276480  20.065  25.168   2.242  0.2968 -0.0969  0.2892
44220DOD     C376481  20.494  25.290   2.306 -0.2993 -0.0608  0.0453
44221DOD     C176482  21.271  17.868  18.823  0.0264 -0.3472  0.1189
44221DOD     C276483  21.470  17.849  19.165 -0.1551 -0.0515 -0.2653
44221DOD     C376484  21.474  17.866  19.682  0.0479 -0.0606  0.1333
44222DOD     C176485   3.981   7.503  13.174  0.1879 -0.5864 -0.1036
44222DOD     C276486   3.964   7.004  13.150  0.1359  0.0970 -0.0560
44222DOD     C376487   3.680   6.685  13.130  0.1128 -0.1961  0.1071
44223DOD     C176488  17.574   7.768   3.546 -0.2751 -0.2577  0.3545
44223DOD     C276489  17.734   7.565   3.143  0.0836  0.2351  0.0822
44223DOD     C376490  17.736   7.548   2.687  0.1192  0.0422 -0.0619
44224DOD     C176491   2.372  19.038  24.539 -0.2788 -0.3171 -0.1892
44224DOD     C276492   2.045  18.720  24.449 -0.2394 -0.2532  0.0649
44224DOD     C376493   1.753  18.607  24.127  0.2523 -0.2259  0.1562
44225DOD     C176494   8.877  14.833  28.717  0.3282 -0.0430 -0.0275
44225DOD     C276495   9.135  15.221  28.500 -0.0349 -0.1576  0.1259
44225DOD     C376496   9.411  15.343  28.124 -0.1262  0.0980 -0.1165
44226DOD     C176497   1.072  16.518  15.754  0.0905 -0.1970  0.0256
44226DOD     C276498   1.064  16.234  16.104  0.1836 -0.1159 -0.1368
44226DOD     C376499   0.792  16.068  16.446 -0.1894  0.2632  0.1797
44227DOD     C176500  19.672  18.662  17.316  0.2530  0.0640 -0.2922
44227DOD     C276501  19.358  18.900  17.033  0.2019 -0.0748 -0.2408
44227DOD     C376502  18.893  19.017  17.057  0.1530  0.2625  0.1899
44228DOD     C176503   7.495  25.116  27.048 -0.1501  0.1432  0.0993
44228DOD     C276504   7.427  25.571  26.905 -0.1248 -0.0083  0.1897
44228DOD     C376505   7.136  25.945  26.666 -0.0073  0.0736  0.2673
44229DOD     C176506  14.870  14.484  13.467 -0.2869  0.1462  0.2147
44229DOD     C276507  14.411  14.441  13.364 -0.2646  0.1298 -0.2214
44229DOD     C376508  14.030  14.393  13.616  0.1446 -0.1992  0.0490
44230DOD     C176509  10.619  30.223  14.864  0.1245 -0.0376  0.0846
44230DOD     C276510  10.693   0.047  15.317 -0.4614  0.1247 -0.0672
44230DOD     C376511  10.573   0.138  15.786 -0.1604 -0.1324 -0.0384
44231DOD     C176512  18.969  20.986  28.949  0.0040 -0.0717  0.0929
44231DOD     C276513  19.047  21.196  29.369  0.0302  0.1286  0.0537
44231DOD     C376514  19.206  21.194  29.760 -0.3113  0.0945 -0.0929
44232DOD     C176515   3.714   0.104   9.177 -0.1778  0.1933  0.2841
44232DOD     C276516   3.732   0.212   8.690  0.1410 -0.0002 -0.0838
44232DOD     C376517   3.930   0.260   8.243  0.0137  0.0235 -0.2328
44233DOD     C176518  22.203   5.293  16.901  0.1638 -0.3274  0.2868
44233DOD     C276519  21.782   5.322  16.638  0.2667 -0.1363 -0.0230
44233DOD     C376520  21.417   5.218  16.393 -0.0947 -0.0134 -0.1034
44234DOD     C176521   6.516  27.949  10.781  0.0771  0.0234  0.2258
44234DOD     C276522   6.670  27.936  10.317  0.2352 -0.1887 -0.0637
44234DOD     C376523   6.944  27.836   9.937  0.2142 -0.0221 -0.0515
44235DOD     C176524   9.575   6.199  21.034  0.1477 -0.1909 -0.1130
44235DOD     C276525   9.463   6.648  20.840 -0.0889 -0.0412 -0.0109
44235DOD     C376526   9.128   6.929  20.968  0.1283 -0.0654 -0.0380
44236DOD     C176527  27.268  17.518  22.982 -0.1054 -0.0604  0.2726
44236DOD     C276528  26.887  17.642  23.211 -0.3440 -0.2891  0.1597
44236DOD     C376529  26.418  17.631  23.145  0.1183 -0.0923 -0.0152
44237DOD     C176530  28.194  18.398   7.722  0.1304 -0.0565 -0.4082
44237DOD     C276531  28.067  18.578   8.142 -0.2026 -0.0766  0.1003
44237DOD     C376532  28.174  18.642   8.560 -0.0994 -0.4620 -0.0444
44238DOD     C176533  26.506  21.791   6.113 -0.0033 -0.1703  0.0642
44238DOD     C276534  26.354  21.368   6.060  0.1830 -0.1283  0.0030
44238DOD     C376535  26.648  20.977   6.114 -0.0812 -0.0905 -0.1523
44239DOD     C176536  14.940  28.552  30.011 -0.0008 -0.2367  0.0508
44239DOD     C276537  15.052  28.390  29.588  0.1005  0.2333 -0.1220
44239DOD     C376538  15.116  28.186  29.126 -0.2073 -0.3770  0.0622
44240DOD     C176539   0.898   4.152  21.328  0.0685 -0.0249  0.1842
44240DOD     C276540   1.263   3.920  21.418 -0.0864  0.1209 -0.0936
44240DOD     C376541   1.626   3.790  21.131 -0.0244 -0.0933 -0.0217
44241DOD     C176542  18.889   1.639  23.527  0.2315 -0.0487  0.3537
44241DOD     C276543  19.120   1.681  23.145 -0.0499 -0.3825 -0.0192
44241DOD     C376544  19.166   1.940  22.787 -0.2901  0.2315 -0.2094
44242DOD     C176545  24.173  23.702   3.253  0.1945 -0.1649 -0.1053
44242DOD     C276546  24.444  24.062   3.084 -0.2083 -0.0428  0.0283
44242DOD     C376547  24.437  24.491   3.010 -0.0825 -0.0187 -0.0514
44243DOD     C176548   2.823   6.643  22.965  0.0699 -0.1510  0.2984
44243DOD     C276549   2.499   6.985  23.060 -0.0182 -0.0707  0.1473
44243DOD     C376550   2.212   7.356  23.243  0.1329  0.1867  0.0860
44244DOD     C176551  22.574  27.608  24.241 -0.0968 -0.4083  0.0351
44244DOD     C276552  22.485  27.758  23.780 -0.0568 -0.0888 -0.0093
44244DOD     C376553  22.160  28.050  23.585 -0.1817 -0.0081 -0.1960
44245DOD     C176554  20.327   0.345  17.493  0.3913 -0.2514  0.1337
44245DOD     C276555  20.581   0.574  17.149  0.1417 -0.4007 -0.2176
44245DOD     C376556  20.985   0.746  16.995  0.2562 -0.3567 -0.0183
44246DOD     C176557   1.940   5.951  28.181 -0.0776  0.0353 -0.1184
44246DOD     C276558   1.840   6.395  28.326 -0.0895  0.0299  0.0315
44246DOD     C376559   1.697   6.810  28.133  0.1550 -0.2585  0.1821
44247DOD     C176560   3.835  14.119  16.898 -0.0504  0.1809  0.0542
44247DOD     C276561   4.126  13.759  17.070  0.0169  0.1259  0.1032
44247DOD     C376562   4.393  13.332  17.179  0.1682 -0.0658  0.0497
44248DOD     C176563  29.915   5.189  13.356 -0.0813 -0.0147 -0.0487
44248DOD     C276564  29.939   5.358  13.783 -0.1304  0.1370 -0.1509
44248DOD     C376565  30.007   5.445  14.245  0.0155 -0.0078  0.0144
44249DOD     C176566  18.446   2.390  16.806 -0.2381 -0.2264 -0.3089
44249DOD     C276567  18.601   2.032  16.642  0.2760  0.0340 -0.0640
44249DOD     C376568  18.823   1.662  16.629 -0.2353  0.1636 -0.2207
44250DOD     C176569   4.837  22.029   7.856 -0.2419  0.0407  0.4299
44250DOD     C276570   4.776  21.645   7.603 -0.4009  0.2280  0.2049
44250DOD     C376571   4.596  21.413   7.249  0.2743 -0.1808 -0.2177
44251DOD     C176572  24.613  13.894  17.301 -0.2109  0.0145 -0.2414
44251DOD     C276573  24.763  14.018  17.723 -0.0573 -0.0086 -0.3901
44251DOD     C376574  25.090  14.310  17.974 -0.1621 -0.0620  0.2279
44252DOD     C176575   7.820  10.580  29.984 -0.1897 -0.0209  0.0464
44252DOD     C276576   8.004  10.837  29.611  0.0251  0.0219  0.0575
44252DOD     C376577   7.909  11.062  29.215  0.0696  0.1401 -0.0980
44253DOD     C176578  15.411  24.251  11.590 -0.1878  0.0152 -0.0897
44253DOD     C276579  15.474  24.483  12.007  0.3238  0.2282  0.2872
44253DOD     C376580  15.514  24.904  12.205 -0.3846 -0.0718  0.2511
44254DOD     C176581   2.380   8.572   3.228 -0.1370 -0.1403 -0.0768
44254DOD     C276582   2.178   8.352   3.594  0.0251 -0.2010 -0.0572
44254DOD     C376583   1.905   8.056   3.648 -0.0668 -0.1719  0.1730
44255DOD     C176584  29.411   9.621   4.008  0.0684  0.2318 -0.1085
44255DOD     C276585  29.154   9.741   3.652  0.4631  0.1043  0.1349
44255DOD     C376586  29.183   9.669   3.189 -0.3061  0.0496  0.1977
44256DOD     C176587  10.343   2.124   0.802  0.1642 -0.2493 -0.1023
44256DOD     C276588  10.534   1.991   0.387  0.4092  0.1730 -0.0555
44256DOD     C376589  10.577   1.901  30.231  0.0548 -0.2446 -0.1965
44257DOD     C176590  17.500   5.431  30.004  0.1837 -0.0371  0.1619
44257DOD     C276591  17.774   5.557  29.634 -0.1875  0.0132  0.2546
44257DOD     C376592  18.181   5.619  29.406 -0.2774  0.0056  0.0871
44258DOD     C176593  22.698  12.081  22.103  0.1181  0.2462 -0.3341
44258DOD     C276594  22.999  12.338  22.185  0.1388  0.2596  0.0101
44258DOD     C376595  23.310  12.695  22.277 -0.0345 -0.1631  0.2875
44259DOD     C176596  19.464   8.335   1.530  0.0395 -0.1434  0.0788
44259DOD     C276597  19.871   8.200   1.466  0.1893 -0.0149 -0.1020
44259DOD     C376598  20.318   8.057   1.553  0.3099  0.0337  0.3072
44260DOD     C176599  23.625   3.947   3.835  0.0746 -0.1200 -0.2118
44260DOD     C276600  23.788   3.535   3.896 -0.2687  0.0191 -0.1246
44260DOD     C376601  23.939   3.066   3.977 -0.1986 -0.1443  0.0691
44261DOD     C176602  27.966   3.472   9.551  0.2149  0.0270 -0.0810
44261DOD     C276603  28.176   3.576   9.105 -0.2292 -0.2325  0.1651
44261DOD     C376604  28.316   3.663   8.689 -0.0855  0.0111  0.2336
44262DOD     C176605   2.715   5.286  29.605 -0.1142 -0.2043 -0.0221
44262DOD     C276606   2.607   4.839  29.487 -0.1581 -0.2943 -0.1172
44262DOD     C376607   2.718   4.527  29.194 -0.0549  0.0353  0.1686
44263DOD     C176608  11.633   6.355  14.093 -0.1129  0.0339  0.3109
44263DOD     C276609  11.762   6.802  14.076 -0.1891  0.1659 -0.2462
44263DOD     C376610  12.069   7.168  13.923  0.2205 -0.1735  0.2143
44264DOD     C176611   5.303  15.457   1.700 -0.2633  0.0570  0.0030
44264DOD     C276612   5.761  15.600   1.875 -0.0516  0.0209 -0.0370
44264DOD     C376613   6.192  15.763   1.626 -0.1859  0.1586  0.2524
44265DOD     C176614  14.029   2.072   2.030 -0.0078  0.1484  0.0290
44265DOD     C276615  13.927   1.667   2.246 -0.1879 -0.1886 -0.0695
44265DOD     C376616  13.699   1.278   2.327  0.0053  0.0650  0.3495
44266DOD     C176617   7.781   8.286  23.981 -0.0760  0.0699 -0.1115
44266DOD     C276618   7.860   8.500  24.440  0.3024  0.0795  0.2720
44266DOD     C376619   7.742   8.367  24.853  0.1770  0.0966  0.2465
44267DOD     C176620  19.306  30.269   2.033 -0.0812 -0.1201 -0.0036
44267DOD     C276621  19.401   0.251   1.733  0.0048  0.2188 -0.0756
44267DOD     C376622  19.486   0.548   1.361 -0.2058  0.0903 -0.1326
44268DOD     C176623  27.248   6.749   2.603 -0.3393  0.1279 -0.2913
44268DOD     C276624  26.816   6.942   2.668  0.1959 -0.1143 -0.3753
44268DOD     C376625  26.369   6.803   2.887 -0.0002  0.1290 -0.1658
44269DOD     C176626   7.589  22.446  10.133 -0.0977 -0.1743  0.2175
44269DOD     C276627   7.534  22.298   9.654  0.1426  0.0364  0.1883
44269DOD     C376628   7.666  22.122   9.293 -0.2073 -0.2152 -0.2235
44270DOD     C176629  21.079  13.703  15.273 -0.0982 -0.0371 -0.3368
44270DOD     C276630  21.084  13.991  15.673 -0.0229 -0.2385  0.3483
44270DOD     C376631  21.322  14.396  15.777 -0.2352 -0.1439 -0.0687
44271DOD     C176632   0.184  15.934   3.796 -0.0127  0.1047  0.0106
44271DOD     C276633   0.273  16.359   3.643  0.3516  0.1858  0.1423
44271DOD     C376634   0.434  16.728   3.846  0.2347  0.3445  0.2454
44272DOD     C176635   5.941  14.374   4.051  0.2153 -0.2989  0.2317
44272DOD     C276636   5.573  14.597   4.209  0.2058 -0.0663 -0.1740
44272DOD     C376637   5.493  14.931   4.544  0.2634 -0.2857  0.1807
44273DOD     C176638  15.847   2.331  22.353  0.1748  0.2452  0.1738
44273DOD     C276639  15.745   1.849  22.537 -0.0159  0.1565  0.1710
44273DOD     C376640  15.491   1.496  22.512 -0.2520 -0.1843  0.1804
44274DOD     C176641   1.408  18.010   3.548  0.0840 -0.2197  0.0464
44274DOD     C276642   1.637  17.942   3.944 -0.0259  0.0126 -0.2512
44274DOD     C376643   1.557  17.637   4.316 -0.2359  0.1775 -0.0271
44275DOD     C176644  28.066  26.128  11.484 -0.1421  0.1702 -0.0525
44275DOD     C276645  27.727  25.841  11.519  0.1201 -0.1156 -0.1534
44275DOD     C376646  27.551  25.474  11.302  0.0878  0.2359 -0.2514
44276DOD     C176647   5.589   8.099  10.486  0.0770 -0.0036  0.1772
44276DOD     C276648   5.545   8.380  10.087 -0.2882 -0.1413 -0.0574
44276DOD     C376649   5.478   8.681   9.728  0.2952  0.1308  0.3834
44277DOD     C176650   4.595   2.440  11.004 -0.2418  0.0433  0.0848
44277DOD     C276651   4.252   2.237  10.773 -0.0770  0.0867 -0.1689
44277DOD     C376652   4.154   1.925  10.393  0.3025 -0.1535  0.4363
44278DOD     C176653  29.992   4.518   5.716  0.0966  0.0693  0.5151
44278DOD     C276654   0.045   4.357   5.483 -0.1617  0.0281 -0.0073
44278DOD     C376655   0.491   4.564   5.430 -0.1750  0.0088 -0.0828
44279DOD     C176656  24.908  10.870  26.009 -0.2970  0.0378  0.0090
44279DOD     C276657  25.237  10.604  25.786 -0.5316  0.2759 -0.1858
44279DOD     C376658  25.592  10.511  25.521 -0.2718 -0.0850 -0.0101
44280DOD     C176659  14.830   3.340   5.982  0.1601  0.1738 -0.1419
44280DOD     C276660  15.189   3.438   5.659  0.1695  0.4805  0.2080
44280DOD     C376661  15.497   3.454   5.332 -0.0299 -0.0523  0.0486
44281DOD     C176662  24.167   3.015  27.101  0.1528  0.0220  0.0488
44281DOD     C276663  24.326   3.028  26.666 -0.0561  0.1593  0.1153
44281DOD     C376664  24.484   2.875  26.261  0.1391 -0.3723  0.0214
44282DOD     C176665   4.997  20.810  12.254 -0.1250 -0.0710  0.1131
44282DOD     C276666   5.126  21.234  12.311  0.2396  0.2727  0.0087
44282DOD     C376667   5.042  21.680  12.164 -0.2078  0.2402 -0.1047
44283DOD     C176668  23.783  15.372  19.757 -0.1147 -0.1137 -0.1233
44283DOD     C276669  23.596  15.781  19.609 -0.0791 -0.2959  0.0978
44283DOD     C376670  23.239  16.028  19.452 -0.0833 -0.0702 -0.2802
44284DOD     C176671   0.128  12.033   4.817 -0.2125  0.0286 -0.1223
44284DOD     C276672   0.261  11.617   5.009  0.1504 -0.0885 -0.1400
44284DOD     C376673   0.431  11.322   5.324 -0.0239  0.0316 -0.2768
44285DOD     C176674  24.777   8.297  16.848 -0.2213  0.2832  0.0339
44285DOD     C276675  25.236   8.281  16.724  0.4576 -0.1921 -0.1414
44285DOD     C376676  25.544   8.105  16.481  0.2076  0.2564 -0.0005
44286DOD     C176677   2.035  18.840   8.630 -0.0534 -0.2240 -0.1243
44286DOD     C276678   1.871  18.409   8.553  0.2686 -0.1043  0.2894
44286DOD     C376679   1.775  18.101   8.847  0.1367 -0.1053 -0.0835
44287DOD     C176680  26.448  12.933   7.011  0.2316 -0.0938  0.3805
44287DOD     C276681  26.123  12.606   7.188 -0.0967 -0.3275  0.3608
44287DOD     C376682  25.880  12.410   7.545  0.1361  0.1863 -0.1698
44288DOD     C176683  16.541  29.265   3.779  0.2567  0.3302  0.1912
44288DOD     C276684  16.629  28.865   3.896 -0.2728  0.0004 -0.1885
44288DOD     C376685  16.914  28.509   3.730  0.3293 -0.3745 -0.5060
44289DOD     C176686  27.621  18.760  19.673  0.1570  0.1745  0.0807
44289DOD     C276687  27.226  18.656  19.904  0.0208  0.1350 -0.0166
44289DOD     C376688  27.017  18.378  20.210  0.1433  0.0374 -0.2251
44290DOD     C176689   9.578  25.146  18.166 -0.1281 -0.0598 -0.0301
44290DOD     C276690   9.667  25.030  17.714 -0.0174 -0.3366  0.2148
44290DOD     C376691   9.820  25.135  17.310  0.0569 -0.1411 -0.1203
44291DOD     C176692   1.092   0.842  26.374  0.2233  0.1144  0.0754
44291DOD     C276693   0.882   1.052  26.721  0.1491 -0.1596 -0.0620
44291DOD     C376694   0.757   1.433  26.964 -0.0166  0.1633  0.1534
44292DOD     C176695  16.025  19.317  22.818  0.0675  0.1508  0.1281
44292DOD     C276696  15.938  18.841  22.901  0.1516  0.1645 -0.0895
44292DOD     C376697  15.934  18.420  23.134  0.1863  0.4708 -0.1442
44293DOD     C176698  21.488  23.068  18.287 -0.2116  0.0848  0.2432
44293DOD     C276699  21.509  22.748  18.648 -0.1520 -0.2521 -0.0444
44293DOD     C376700  21.507  22.291  18.636 -0.1691 -0.0827  0.0302
44294DOD     C176701   3.783  16.295  16.026 -0.3892 -0.1744  0.1094
44294DOD     C276702   4.093  16.476  16.285  0.4612 -0.0383 -0.2660
44294DOD     C376703   4.373  16.723  16.609  0.2067  0.2691 -0.0385
44295DOD     C176704   8.568   4.086   9.610  0.2189  0.0054 -0.0143
44295DOD     C276705   9.015   4.138   9.679 -0.1146  0.0098  0.1185
44295DOD     C376706   9.438   4.019   9.835  0.1585  0.0442  0.0582
44296DOD     C176707   0.592   3.903  21.666  0.1866  0.0889  0.0341
44296DOD     C276708   0.564   4.260  21.973 -0.1825  0.1893 -0.0444
44296DOD     C376709   0.404   4.632  22.205 -0.0915 -0.2136 -0.0075
44297DOD     C176710  14.455   3.440  25.217 -0.3118  0.1371  0.2044
44297DOD     C276711  14.334   3.780  25.495 -0.3058 -0.1832  0.2505
44297DOD     C376712  14.408   4.047  25.802  0.0414 -0.0574  0.1930
44298DOD     C176713   1.105   9.104   6.877  0.1273 -0.3154  0.0726
44298DOD     C276714   1.406   9.175   7.226 -0.1721  0.2879 -0.1953
44298DOD     C376715   1.392   9.341   7.697 -0.0524  0.2567  0.1107
44299DOD     C176716   0.434  17.793  15.076  0.1507  0.0573 -0.2321
44299DOD     C276717  30.371  17.978  15.168  0.2255  0.1845 -0.2328
44299DOD     C376718  29.939  18.142  14.992 -0.1240 -0.0940 -0.1356
44300DOD     C176719  15.010  25.850   0.235  0.1604 -0.0255  0.1696
44300DOD     C276720  14.691  25.900  30.236  0.2732 -0.4177 -0.0432
44300DOD     C376721  14.698  26.221  29.955 -0.0104 -0.0674  0.0075
44301DOD     C176722  23.153  19.369  19.752  0.1385  0.1006  0.3811
44301DOD     C276723  23.219  19.124  19.375 -0.0497 -0.1571  0.1726
44301DOD     C376724  23.597  18.822  19.327  0.0379 -0.2387 -0.3352
44302DOD     C176725  29.530  13.689  23.190  0.0939 -0.2055  0.1413
44302DOD     C276726  29.949  13.766  23.406  0.2717  0.0510 -0.1725
44302DOD     C376727   0.084  13.807  23.651  0.0867  0.3712 -0.2214
44303DOD     C176728  24.664  23.589  18.985  0.0412  0.0736 -0.1457
44303DOD     C276729  24.443  23.837  19.317  0.0400  0.0671 -0.1046
44303DOD     C376730  24.007  23.800  19.540 -0.2130 -0.1792  0.0476
44304DOD     C176731   6.845  10.924   1.178  0.0177 -0.0427 -0.2618
44304DOD     C276732   7.233  11.183   1.276  0.0141 -0.1024  0.0211
44304DOD     C376733   7.435  11.350   1.683  0.0292 -0.1836  0.3077
44305DOD     C176734  11.447  17.972  16.411  0.2126  0.2413  0.1539
44305DOD     C276735  11.259  18.196  16.783  0.1305 -0.2569  0.1125
44305DOD     C376736  11.155  17.960  17.213 -0.2023 -0.0180 -0.1403
44306DOD     C176737  17.372  27.137   3.143 -0.0241 -0.1032 -0.0889
44306DOD     C276738  17.680  27.218   2.700 -0.0816 -0.3855  0.1121
44306DOD     C376739  17.802  27.589   2.432 -0.0282 -0.0174 -0.1821
44307DOD     C176740  13.517  18.412  15.194  0.1902 -0.0881  0.0197
44307DOD     C276741  13.664  18.855  15.138  0.3314  0.2036 -0.1695
44307DOD     C376742  13.507  19.274  15.315 -0.1522  0.3602 -0.3746
44308DOD     C176743  24.908   3.424   7.111  0.4581  0.1997 -0.0704
44308DOD     C276744  24.537   3.173   7.027  0.2747  0.2405  0.1560
44308DOD     C376745  24.270   3.077   6.649 -0.2213  0.0816 -0.1703
44309DOD     C176746  17.704   4.409  28.941  0.0216 -0.0138 -0.1052
44309DOD     C276747  18.050   4.237  29.122  0.3215 -0.5015 -0.1541
44309DOD     C376748  18.380   3.965  29.237  0.0335  0.1848 -0.0112
44310DOD     C176749   0.547   4.468  11.819 -0.2639  0.0356  0.1404
44310DOD     C276750   0.529   4.188  12.217 -0.0135 -0.2417  0.1341
44310DOD     C376751   0.469   3.724  12.256  0.5251  0.1762 -0.3639
44311DOD     C176752   2.684   7.974  30.310 -0.1010 -0.0730  0.0542
44311DOD     C276753   2.964   7.871  30.035 -0.0302  0.0736  0.1810
44311DOD     C376754   3.334   8.016  29.780  0.4551 -0.2345  0.2528
44312DOD     C176755  25.900  12.838  19.895 -0.1388 -0.0188 -0.0617
44312DOD     C276756  25.858  13.209  19.552 -0.0709 -0.1417  0.5387
44312DOD     C376757  25.840  13.641  19.325  0.0499  0.2019 -0.0331
44313DOD     C176758  11.715   1.207  15.958 -0.1033  0.1191 -0.1309
44313DOD     C276759  11.242   1.226  15.781 -0.0991 -0.1512  0.3262
44313DOD     C376760  10.961   1.086  15.470 -0.1571  0.3294  0.3046
44314DOD     C176761   4.274  26.414  22.374 -0.1249  0.0542 -0.1364
44314DOD     C276762   4.158  26.463  21.907  0.3277 -0.0553 -0.0797
44314DOD     C376763   4.537  26.691  21.732  0.3385 -0.2965  0.2179
44315DOD     C176764  26.563  22.602  26.251  0.4497  0.1414  0.0896
44315DOD     C276765  26.347  23.005  26.177 -0.0005  0.0014  0.5568
44315DOD     C376766  26.282  23.471  26.191  0.2994 -0.2635  0.1068
44316DOD     C176767  16.624   7.650  25.668  0.0896  0.0757  0.0339
44316DOD     C276768  16.162   7.769  25.575  0.2969  0.0224  0.0187
44316DOD     C376769  15.754   7.932  25.766 -0.2532 -0.0410  0.1035
44317DOD     C176770  18.007  21.897   5.473  0.1827 -0.3992 -0.2346
44317DOD     C276771  18.023  21.506   5.224  0.1052 -0.1084  0.0150
44317DOD     C376772  18.192  21.038   5.130  0.1989 -0.1701  0.2537
44318DOD     C176773   8.325  20.843  27.114  0.0604 -0.1569  0.1882
44318DOD     C276774   8.077  21.073  26.781  0.0189  0.2359  0.1413
44318DOD     C376775   7.716  21.138  26.570 -0.1274 -0.1804 -0.0312
44319DOD     C176776  29.367  11.198  28.508 -0.1579  0.2412  0.0213
44319DOD     C276777  29.436  11.003  28.963  0.1148  0.0512 -0.1323
44319DOD     C376778  29.496  11.225  29.395 -0.2385 -0.0960  0.0653
44320DOD     C176779  10.258  12.071   7.166 -0.1539 -0.2598 -0.3476
44320DOD     C276780  10.533  11.796   6.903  0.1734 -0.0110 -0.0495
44320DOD     C376781  10.910  11.538   7.095 -0.0695  0.0616  0.0267
44321DOD     C176782  20.083  22.904   8.308  0.1310 -0.1390 -0.1459
44321DOD     C276783  19.916  22.463   8.147  0.2115 -0.3535 -0.0798
44321DOD     C376784  19.749  22.040   8.223 -0.1390  0.0337 -0.1863
44322DOD     C176785  26.691  14.386  27.283  0.0105  0.1184 -0.0630
44322DOD     C276786  27.017  14.678  27.316  0.1081 -0.1774  0.2571
44322DOD     C376787  27.361  14.890  27.485 -0.1893  0.2101  0.0486
44323DOD     C176788  12.951  10.200   0.447  0.0538 -0.1003  0.2409
44323DOD     C276789  12.453  10.198   0.502  0.1581  0.0553  0.2615
44323DOD     C376790  12.044   9.931   0.413  0.3044 -0.0706 -0.1319
44324DOD     C176791   4.170  14.827  16.152  0.4232 -0.2538 -0.2319
44324DOD     C276792   3.993  14.828  15.728 -0.0473 -0.2211 -0.0249
44324DOD     C376793   3.916  15.063  15.299  0.2329 -0.0141 -0.2045
44325DOD     C176794  23.395   7.198   4.294 -0.1690 -0.2397 -0.1552
44325DOD     C276795  23.190   7.411   3.923  0.2652  0.1565  0.3098
44325DOD     C376796  23.240   7.854   3.869  0.1156  0.1829  0.1653
44326DOD     C176797  24.864  28.636  28.151  0.1694  0.0567  0.0971
44326DOD     C276798  25.238  28.775  28.453  0.0626 -0.1259 -0.0100
44326DOD     C376799  25.436  28.692  28.898 -0.0828 -0.0763 -0.0091
44327DOD     C176800  24.474  25.012  13.155  0.1094  0.0824 -0.2391
44327DOD     C276801  24.184  24.885  12.851  0.0535 -0.0516 -0.1019
44327DOD     C376802  24.247  24.775  12.428  0.1279 -0.0974  0.0913
44328DOD     C176803   7.142  24.639  25.957  0.0922  0.1312 -0.0885
44328DOD     C276804   7.072  24.630  26.427 -0.0934  0.0106 -0.3553
44328DOD     C376805   6.841  24.249  26.633 -0.1789 -0.0791  0.1553
44329DOD     C176806  22.429  24.426  24.484 -0.2423 -0.2834  0.0177
44329DOD     C276807  22.002  24.524  24.362 -0.3014 -0.0337 -0.0383
44329DOD     C376808  21.636  24.324  24.306 -0.4122 -0.0560  0.1833
44330DOD     C176809   1.982   0.674   3.092  0.0149  0.1441  0.2501
44330DOD     C276810   1.548   0.701   2.916  0.0646  0.1785 -0.3230
44330DOD     C376811   1.170   0.807   2.661 -0.1686 -0.5031  0.1458
44331DOD     C176812   0.496  22.787  27.425 -0.0616  0.1250  0.2048
44331DOD     C276813   0.473  22.547  27.038 -0.1642 -0.0958 -0.0775
44331DOD     C376814   0.562  22.557  26.606 -0.0136  0.0869 -0.0139
44332DOD     C176815   0.709   5.631  18.107 -0.0480  0.1629 -0.0724
44332DOD     C276816   0.429   5.967  17.931  0.2300 -0.0096  0.0706
44332DOD     C376817   0.072   6.317  18.013  0.1000  0.1132 -0.1161
44333DOD     C176818   6.603  13.651  19.971  0.4113 -0.4703 -0.0253
44333DOD     C276819   6.465  13.812  19.588  0.0816  0.1929  0.2731
44333DOD     C376820   6.463  14.233  19.339 -0.2703 -0.0284  0.1591
44334DOD     C176821   9.238   7.337   7.721  0.0114 -0.0060  0.1603
44334DOD     C276822   9.018   7.716   7.913 -0.0194  0.0293 -0.2321
44334DOD     C376823   8.577   7.789   8.095  0.0466 -0.1087 -0.3736
44335DOD     C176824   6.817   1.402  11.846 -0.2590  0.2860 -0.0573
44335DOD     C276825   6.965   1.077  12.132 -0.0344  0.0963  0.1944
44335DOD     C376826   7.308   0.823  12.226 -0.2088  0.2987  0.1642
44336DOD     C176827  23.805  12.704   9.021 -0.0450 -0.2560  0.0675
44336DOD     C276828  24.170  12.847   9.339  0.1690 -0.3956  0.1909
44336DOD     C376829  24.523  13.138   9.524 -0.1791  0.2648  0.1205
44337DOD     C176830   0.689  11.789  28.438  0.1148  0.0933  0.1837
44337DOD     C276831   0.584  11.528  28.762  0.0664  0.0182 -0.0600
44337DOD     C376832   0.483  11.262  29.065 -0.2670  0.1407 -0.2669
44338DOD     C176833   4.052   7.528  18.221  0.0085  0.1132  0.0093
44338DOD     C276834   4.310   7.804  18.001  0.1346  0.1789  0.0295
44338DOD     C376835   4.651   8.100  18.178  0.2011  0.1288 -0.1440
44339DOD     C176836  21.425   6.501  14.130  0.0940 -0.1600  0.1622
44339DOD     C276837  21.581   6.528  13.641 -0.0078  0.1661  0.1913
44339DOD     C376838  21.424   6.484  13.217  0.3081  0.0101 -0.2451
44340DOD     C176839  29.717  20.699   7.894 -0.0084 -0.0288 -0.0220
44340DOD     C276840  29.526  20.555   7.553  0.3555  0.2134 -0.2230
44340DOD     C376841  29.458  20.596   7.098 -0.1285  0.1962 -0.3230
44341DOD     C176842  22.568  24.305  29.091  0.0661 -0.1210 -0.1629
44341DOD     C276843  22.830  24.408  28.764  0.0264  0.1679 -0.1958
44341DOD     C376844  23.194  24.672  28.679 -0.1499 -0.0742 -0.0225
44342DOD     C176845   6.350  20.979  24.609  0.0981 -0.1147 -0.0199
44342DOD     C276846   6.668  21.134  24.884 -0.0617  0.0635 -0.0601
44342DOD     C376847   7.084  21.079  25.052  0.2276  0.5041  0.0828
44343DOD     C176848  21.221  19.383   9.037  0.0572 -0.0301  0.0600
44343DOD     C276849  20.961  19.445   8.724  0.1346  0.3053  0.2894
44343DOD     C376850  20.501  19.496   8.668  0.1314 -0.0175  0.1449
44344DOD     C176851  27.226  16.197   8.194 -0.0187 -0.3531  0.4945
44344DOD     C276852  26.955  16.533   8.244  0.2313  0.0401  0.1951
44344DOD     C376853  26.864  16.951   8.155 -0.2924 -0.2262 -0.2744
44345DOD     C176854  25.499   1.349   7.534  0.4278  0.0219  0.1580
44345DOD     C276855  25.540   1.519   7.158 -0.0994 -0.4769  0.4131
44345DOD     C376856  25.620   1.683   6.722 -0.1718 -0.2917  0.1662
44346DOD     C176857  19.991  17.385  20.833 -0.2302 -0.0419  0.0557
44346DOD     C276858  20.034  17.423  20.378 -0.0361  0.1925 -0.0168
44346DOD     C376859  19.821  17.208  20.083  0.0957  0.1144  0.1960
44347DOD     C176860   6.589  11.711  23.280  0.5129 -0.3358 -0.4513
44347DOD     C276861   6.853  11.488  23.594 -0.0789 -0.1274 -0.1019
44347DOD     C376862   7.093  11.145  23.903 -0.2696 -0.1112 -0.3805
44348DOD     C176863  15.121  14.876  27.415  0.0127  0.2022 -0.2054
44348DOD     C276864  15.532  15.126  27.633  0.1331 -0.0363  0.0882
44348DOD     C376865  15.689  15.571  27.564 -0.0930 -0.1875  0.1338
44349DOD     C176866  24.714  25.192   4.578  0.1315 -0.0481  0.2950
44349DOD     C276867  24.256  25.207   4.517 -0.2264  0.1729  0.1932
44349DOD     C376868  23.882  25.463   4.534 -0.2519  0.0583 -0.0330
44350DOD     C176869   9.251   9.280  19.900  0.0964  0.0093 -0.1257
44350DOD     C276870   8.971   9.086  20.245  0.0444 -0.2268 -0.2087
44350DOD     C376871   8.690   8.899  20.529  0.2047 -0.0489 -0.0001
44351DOD     C176872  16.386   8.637  17.155 -0.0598  0.0303  0.0794
44351DOD     C276873  16.243   8.973  17.428 -0.0295 -0.1039 -0.0310
44351DOD     C376874  16.282   9.479  17.552 -0.3233 -0.2241  0.0202
44352DOD     C176875   0.052   3.140  10.129 -0.1877  0.3779  0.1549
44352DOD     C276876   0.042   3.411  10.520 -0.2958 -0.1880  0.2144
44352DOD     C376877  30.205   3.360  10.966 -0.2139  0.2591  0.0580
44353DOD     C176878  26.656  10.671  28.138  0.1935 -0.1365  0.2866
44353DOD     C276879  27.063  10.440  28.182  0.2499  0.3592  0.0878
44353DOD     C376880  27.264   9.999  28.081 -0.1407  0.0280 -0.0440
44354DOD     C176881  18.245  24.343  25.071 -0.0344  0.0465  0.2619
44354DOD     C276882  18.349  24.030  25.428 -0.0231 -0.1163  0.2545
44354DOD     C376883  18.279  23.782  25.803  0.0712  0.1151  0.1126
44355DOD     C176884   9.619  11.820  26.643  0.0035  0.0879 -0.1914
44355DOD     C276885   9.656  11.393  26.517  0.0719 -0.2919 -0.1126
44355DOD     C376886   9.722  10.957  26.740 -0.1241  0.2446  0.6586
44356DOD     C176887   5.592  11.317  23.639  0.1276  0.0258 -0.0392
44356DOD     C276888   5.615  11.741  23.885  0.2572  0.0190 -0.0010
44356DOD     C376889   5.942  12.061  23.869 -0.0454  0.1669 -0.0928
44357DOD     C176890  13.912  16.792  11.650 -0.1403 -0.2058  0.1373
44357DOD     C276891  13.683  16.906  11.269  0.0720 -0.2855 -0.1517
44357DOD     C376892  13.229  16.938  11.165 -0.1723  0.0213 -0.1970
44358DOD     C176893  14.521   8.228  25.559  0.0894  0.0961 -0.0747
44358DOD     C276894  14.588   7.914  25.913 -0.0872  0.1741 -0.0207
44358DOD     C376895  14.507   7.535  26.194  0.1763  0.0452  0.1591
44359DOD     C176896  25.861  22.417  18.427 -0.4761 -0.1609 -0.0723
44359DOD     C276897  26.193  22.048  18.219  0.1559 -0.2754  0.1039
44359DOD     C376898  26.594  21.884  17.984 -0.0172  0.3173  0.2223
44360DOD     C176899  13.981  18.028   6.688 -0.1787  0.0635 -0.0392
44360DOD     C276900  13.531  18.082   6.889  0.1012 -0.1957  0.0248
44360DOD     C376901  13.097  18.255   6.938 -0.1347  0.0834 -0.0727
44361DOD     C176902  24.327   3.147  28.672 -0.2140  0.1676  0.4746
44361DOD     C276903  24.354   2.789  28.326 -0.1045 -0.3837 -0.2120
44361DOD     C376904  24.477   2.385  28.104  0.3843  0.2394  0.2438
44362DOD     C176905   1.899  14.919   7.844 -0.1021 -0.0006 -0.2382
44362DOD     C276906   2.097  14.651   8.144 -0.2827 -0.1089  0.1129
44362DOD     C376907   1.851  14.435   8.480 -0.0859 -0.0292 -0.0259
44363DOD     C176908  24.432   2.982  13.884 -0.0032 -0.3487  0.3942
44363DOD     C276909  24.434   3.368  14.101 -0.2644  0.0885  0.1299
44363DOD     C376910  24.077   3.577  14.304  0.0011 -0.1603  0.0751
44364DOD     C176911   9.501  26.636   4.630  0.1414  0.0316  0.0584
44364DOD     C276912   9.662  26.237   4.520  0.2710 -0.5211 -0.1403
44364DOD     C376913   9.799  25.850   4.199  0.2286 -0.2133  0.1577
44365DOD     C176914  15.115  25.404  24.018 -0.2108  0.0182 -0.1006
44365DOD     C276915  15.191  25.829  23.773  0.1636 -0.3449  0.2339
44365DOD     C376916  15.607  26.143  23.723  0.1561 -0.1801  0.2574
44366DOD     C176917  19.271   9.766   1.152 -0.0001 -0.2195 -0.1052
44366DOD     C276918  19.110  10.087   1.506 -0.1198  0.1802  0.0628
44366DOD     C376919  18.961  10.504   1.597 -0.2255 -0.1487  0.1148
44367DOD     C176920  12.949   5.750  26.669  0.1499  0.3413 -0.2501
44367DOD     C276921  13.129   6.085  26.362  0.1346  0.2404 -0.0077
44367DOD     C376922  13.411   6.291  26.198  0.1405 -0.2984  0.0853
44368DOD     C176923  26.321  17.130   6.615 -0.0700  0.2166  0.4302
44368DOD     C276924  26.710  17.363   6.608  0.0725 -0.2217  0.2953
44368DOD     C376925  26.896  17.565   6.211 -0.0654 -0.0556 -0.1191
44369DOD     C176926   4.522  15.018  15.818 -0.1150 -0.1594  0.0110
44369DOD     C276927   4.236  15.320  15.624 -0.0819  0.0538  0.0573
44369DOD     C376928   3.879  15.542  15.565 -0.1437  0.0629  0.2964
44370DOD     C176929  25.062  18.518  10.093 -0.1195 -0.1017  0.0886
44370DOD     C276930  25.503  18.271  10.007  0.1196 -0.1870 -0.1280
44370DOD     C376931  25.775  17.999  10.298  0.0661 -0.1017  0.1828
44371DOD     C176932  16.290  12.881  29.775  0.3421  0.2051  0.0175
44371DOD     C276933  16.017  13.089  30.092  0.2935  0.5868  0.4164
44371DOD     C376934  15.796  13.458  30.155  0.4119  0.0152 -0.1956
44372DOD     C176935   6.028  14.426  19.591  0.2734 -0.1857 -0.0413
44372DOD     C276936   6.410  14.721  19.584  0.2508  0.0600 -0.2014
44372DOD     C376937   6.876  14.932  19.612 -0.0331  0.3095  0.1192
44373DOD     C176938   9.534   4.520  27.532 -0.0790  0.2420 -0.0979
44373DOD     C276939   9.999   4.469  27.598 -0.5398  0.1670 -0.0487
44373DOD     C376940  10.412   4.281  27.495 -0.1655  0.1269 -0.0856
44374DOD     C176941  12.586   7.457  28.951  0.0666  0.1156  0.0991
44374DOD     C276942  13.037   7.534  28.866 -0.3147  0.1093 -0.0934
44374DOD     C376943  13.507   7.440  28.800  0.0193  0.2351  0.1851
44375DOD     C176944   1.589  29.897   4.789 -0.3268  0.0569  0.0287
44375DOD     C276945   1.510  29.746   4.285 -0.0101 -0.0690 -0.0939
44375DOD     C376946   1.483  29.257   4.143 -0.1773 -0.3218 -0.0994
44376DOD     C176947   9.503  26.748   1.329  0.0922  0.0799 -0.0640
44376DOD     C276948   9.300  27.061   1.028  0.0817  0.3968 -0.0126
44376DOD     C376949   8.887  27.099   0.819  0.0412  0.0900  0.2374
44377DOD     C176950  28.617  18.000  20.864 -0.0778  0.0811  0.0765
44377DOD     C276951  28.526  18.391  21.156 -0.1300 -0.1665 -0.1271
44377DOD     C376952  28.437  18.582  21.545  0.0059  0.0689 -0.0578
44378DOD     C176953  18.099   8.783  16.477  0.1065  0.1861  0.0397
44378DOD     C276954  17.955   8.941  16.917 -0.1512 -0.2066 -0.5298
44378DOD     C376955  17.868   9.125  17.387 -0.2262  0.2066  0.3171
44379DOD     C176956  25.668   3.548  14.520  0.2106 -0.0416  0.1992
44379DOD     C276957  25.623   3.391  14.123  0.0878 -0.0026  0.2188
44379DOD     C376958  25.318   3.255  13.765  0.2133  0.1031  0.0986
44380DOD     C176959  15.316  14.203   4.510  0.1260  0.1280  0.0544
44380DOD     C276960  15.596  14.005   4.221  0.0346  0.0317  0.0242
44380DOD     C376961  15.943  13.909   3.933 -0.0468  0.2387 -0.0687
44381DOD     C176962  10.350   0.395  22.398 -0.1253  0.3664 -0.1010
44381DOD     C276963  10.525   0.810  22.579 -0.1137  0.0462 -0.0506
44381DOD     C376964  10.829   1.027  22.882 -0.0251 -0.3896  0.1642
44382DOD     C176965   4.212  10.717  26.609 -0.0038  0.1304  0.1801
44382DOD     C276966   4.548  10.872  26.335  0.3890  0.1294  0.1633
44382DOD     C376967   4.754  11.178  26.068  0.1029  0.2140  0.1364
44383DOD     C176968  23.688   4.559  15.952 -0.2026 -0.0916 -0.0822
44383DOD     C276969  23.756   4.803  15.552 -0.0045  0.0855 -0.1083
44383DOD     C376970  24.015   4.855  15.218 -0.2665  0.0564  0.2958
44384DOD     C176971  14.006   5.703  23.739 -0.3324 -0.0304  0.2426
44384DOD     C276972  13.627   5.855  23.841 -0.2240 -0.2778 -0.1934
44384DOD     C376973  13.211   5.878  24.062 -0.1668 -0.1360  0.0974
44385DOD     C176974   1.965  24.187  22.434  0.0126 -0.2479 -0.0991
44385DOD     C276975   1.811  24.294  22.873 -0.0020 -0.0649  0.2872
44385DOD     C376976   1.612  24.563  23.215 -0.0383 -0.0991  0.2161
44386DOD     C176977  27.834  15.101  25.347  0.0480 -0.3599 -0.0479
44386DOD     C276978  27.627  14.677  25.266 -0.3000  0.0188 -0.2283
44386DOD     C376979  27.406  14.301  25.095 -0.0232 -0.1866 -0.0413
44387DOD     C176980   7.402  28.246  12.543 -0.2554  0.0636 -0.1755
44387DOD     C276981   7.125  28.274  12.163  0.0522  0.0775  0.0986
44387DOD     C376982   6.852  28.471  11.813  0.1776  0.1460  0.0908
44388DOD     C176983  15.473  18.827  24.255 -0.1269  0.0490 -0.2343
44388DOD     C276984  15.308  19.151  24.010 -0.1923 -0.1691 -0.1712
44388DOD     C376985  15.264  19.591  24.101 -0.0478  0.0376 -0.1419
44389DOD     C176986  20.907  13.764   2.891  0.0190 -0.0836  0.0416
44389DOD     C276987  21.207  13.468   2.794  0.1354  0.0748  0.1365
44389DOD     C376988  21.521  13.184   2.977 -0.2490  0.1657 -0.1467
44390DOD     C176989   6.064  29.970  21.542 -0.2598 -0.1796 -0.1945
44390DOD     C276990   6.570  29.964  21.629 -0.6324  0.2179 -0.0568
44390DOD     C376991   7.046  30.097  21.744  0.0471 -0.4675  0.0685
44391DOD     C176992  25.184  17.582   9.787  0.1905  0.2492 -0.0667
44391DOD     C276993  24.740  17.681   9.958  0.1602 -0.3142 -0.0873
44391DOD     C376994  24.277  17.596  10.028 -0.2264  0.1248  0.1087
44392DOD     C176995  12.678  13.235  20.305 -0.2219 -0.0056 -0.1493
44392DOD     C276996  12.924  13.466  20.628 -0.1455  0.4928 -0.0111
44392DOD     C376997  12.969  13.327  21.135  0.0765 -0.1583 -0.1662
44393DOD     C176998  20.184  10.191  10.920 -0.0858  0.1354 -0.0036
44393DOD     C276999  20.078   9.987  11.287 -0.0245  0.2414  0.0307
44393DOD     C377000  19.851   9.635  11.505  0.0003 -0.0483 -0.0925
44394DOD     C177001   2.794  28.748  10.518  0.4068 -0.1995 -0.0923
44394DOD     C277002   2.829  28.238  10.605 -0.2491 -0.2824 -0.1820
44394DOD     C377003   2.881  27.791  10.799  0.2370 -0.4273  0.2632
44395DOD     C177004   7.473  26.074  27.130 -0.1086 -0.0741  0.0625
44395DOD     C277005   7.169  25.719  27.264  0.1428 -0.0003  0.2190
44395DOD     C377006   7.258  25.265  27.470 -0.1137 -0.1896 -0.1714
44396DOD     C177007  28.144  11.679   6.771 -0.2399  0.4029  0.0143
44396DOD     C277008  28.139  11.321   6.413  0.2154 -0.4001 -0.0327
44396DOD     C377009  28.445  11.166   6.184 -0.3091 -0.1332 -0.0219
44397DOD     C177010  18.175   8.827  13.682 -0.0994 -0.1373  0.4260
44397DOD     C277011  17.907   8.669  13.358  0.0263 -0.3116  0.0348
44397DOD     C377012  17.546   8.556  13.086  0.0745 -0.1066  0.1579
44398DOD     C177013  11.783   7.804   5.439  0.1483  0.1626 -0.0646
44398DOD     C277014  11.451   8.149   5.600 -0.1656 -0.1061 -0.0859
44398DOD     C377015  11.040   8.302   5.742  0.1250  0.2183  0.2271
44399DOD     C177016  18.140  27.792  10.252  0.1160 -0.2958 -0.1922
44399DOD     C277017  17.849  27.965   9.985 -0.2637 -0.0843  0.3641
44399DOD     C377018  17.666  28.051   9.625 -0.0225 -0.1295  0.2752
44400DOD     C177019  12.489  25.569  10.775 -0.2098  0.1179 -0.0262
44400DOD     C277020  12.404  25.973  10.541 -0.0542 -0.1389  0.0869
44400DOD     C377021  12.393  26.445  10.624  0.1753  0.0066 -0.2117
44401DOD     C177022   5.124   9.564  11.535 -0.1446  0.0558 -0.2798
44401DOD     C277023   5.331   9.212  11.853 -0.0852 -0.2528 -0.0937
44401DOD     C377024   5.739   9.000  11.914 -0.0191  0.0338  0.0819
44402DOD     C177025  23.442  10.166   6.578  0.2033  0.0035 -0.1761
44402DOD     C277026  23.027  10.395   6.681  0.0006 -0.1102  0.0377
44402DOD     C377027  22.633  10.542   6.577 -0.0756 -0.1768 -0.3198
44403DOD     C177028  12.618  12.828   9.757 -0.2116  0.3530 -0.0850
44403DOD     C277029  12.369  13.101   9.437 -0.2819  0.2265 -0.0659
44403DOD     C377030  12.298  13.540   9.297  0.0831  0.2600  0.0398
44404DOD     C177031   8.159  21.667  14.187  0.1040  0.1938 -0.3265
44404DOD     C277032   8.602  21.600  14.046 -0.3102 -0.2087 -0.1015
44404DOD     C377033   8.959  21.610  14.359  0.3183  0.1528  0.2799
44405DOD     C177034   1.842  20.136  30.118  0.3677 -0.0109 -0.4328
44405DOD     C277035   2.255  20.174  30.073 -0.0480  0.0535 -0.2489
44405DOD     C377036   2.654  20.081  -0.015  0.3635  0.0545 -0.0622
44406DOD     C177037  23.521  11.606  14.770  0.0548  0.1286  0.3736
44406DOD     C277038  23.881  11.831  14.893  0.0658 -0.0387  0.0294
44406DOD     C377039  24.182  11.870  15.227 -0.0157  0.1157  0.3016
44407DOD     C177040  29.783   0.669   9.561  0.0310  0.2364 -0.2300
44407DOD     C277041  29.784   0.801   9.091 -0.0291 -0.1822 -0.0877
44407DOD     C377042  29.761   0.811   8.599  0.0922  0.0313  0.1400
44408DOD     C177043   5.900  20.649  20.037  0.3512  0.2446  0.1363
44408DOD     C277044   5.654  20.312  19.914 -0.0297 -0.1497  0.2962
44408DOD     C377045   5.670  19.907  19.701 -0.1455  0.1768 -0.1630
44409DOD     C177046  15.719   7.879  10.572 -0.2278  0.1118 -0.0842
44409DOD     C277047  15.821   7.453  10.313 -0.0208  0.1511  0.1339
44409DOD     C377048  15.731   7.204   9.918  0.2572  0.2889 -0.0882
44410DOD     C177049   1.607  11.457   2.903  0.1971 -0.0416 -0.1876
44410DOD     C277050   1.327  11.801   2.847  0.2823  0.1435  0.1335
44410DOD     C377051   1.026  11.938   3.145 -0.1240  0.0131 -0.0215
44411DOD     C177052  17.287  14.675  16.013  0.3778  0.1216  0.1063
44411DOD     C277053  17.340  14.330  16.275 -0.2212 -0.0531  0.2677
44411DOD     C377054  17.504  13.894  16.304  0.0412  0.4005  0.2049
44412DOD     C177055  12.194   4.444  18.721  0.2284 -0.1041  0.1443
44412DOD     C277056  12.437   4.073  18.857 -0.0151  0.0722 -0.1507
44412DOD     C377057  12.904   4.086  18.915 -0.0951  0.1542  0.0045
44413DOD     C177058   3.079   8.939  24.653 -0.1040 -0.0683 -0.0072
44413DOD     C277059   2.863   8.645  24.362  0.0219  0.2694  0.0872
44413DOD     C377060   2.453   8.545  24.164 -0.1357 -0.0478 -0.0737
44414DOD     C177061  13.030   2.389  12.495  0.2862 -0.0684  0.0813
44414DOD     C277062  13.430   2.416  12.676  0.0224  0.1763 -0.1048
44414DOD     C377063  13.915   2.465  12.741  0.1128  0.0910 -0.0475
44415DOD     C177064  16.814   7.138  11.427  0.0637 -0.0126  0.1426
44415DOD     C277065  17.200   7.207  11.589  0.1443 -0.2090 -0.2599
44415DOD     C377066  17.582   7.490  11.574 -0.3182 -0.3398  0.0495
44416DOD     C177067   9.689   9.651  13.400 -0.0604 -0.2177 -0.0866
44416DOD     C277068   9.723   9.236  13.355 -0.1869  0.2313 -0.3138
44416DOD     C377069   9.393   8.953  13.317  0.1284  0.2592  0.1123
44417DOD     C177070   6.152   3.876   6.641  0.1169  0.0499  0.2049
44417DOD     C277071   5.963   3.863   6.222 -0.0038  0.1333  0.0914
44417DOD     C377072   5.997   3.535   5.844  0.1242 -0.3561  0.1143
44418DOD     C177073  19.441  27.681  10.356  0.0963  0.1247 -0.0732
44418DOD     C277074  19.778  27.340  10.515  0.1141 -0.3799  0.3304
44418DOD     C377075  20.159  27.371  10.713 -0.1232  0.0197 -0.0099
44419DOD     C177076  28.023   1.497  28.368 -0.1370  0.2408  0.0724
44419DOD     C277077  27.674   1.311  28.607  0.1062 -0.0065  0.2413
44419DOD     C377078  27.368   1.474  28.878  0.1494  0.1550  0.0856
44420DOD     C177079   2.946  10.053  17.683  0.4665 -0.0187 -0.2693
44420DOD     C277080   3.391   9.989  17.833  0.3345 -0.0664 -0.2679
44420DOD     C377081   3.800   9.964  18.082 -0.2223  0.0792 -0.0151
44421DOD     C177082  23.291  18.486   4.443 -0.1242 -0.1927  0.1209
44421DOD     C277083  23.524  18.159   4.184 -0.2521 -0.1377  0.1899
44421DOD     C377084  23.300  17.929   3.896  0.1778 -0.0241 -0.1100
44422DOD     C177085  29.783   1.200   6.116  0.0841  0.0391  0.0831
44422DOD     C277086  30.201   1.318   5.885 -0.0780 -0.1718 -0.1244
44422DOD     C377087  30.314   1.635   5.570  0.3636  0.1877 -0.3068
44423DOD     C177088  17.394  10.057  28.601  0.1808 -0.2188 -0.1028
44423DOD     C277089  17.568   9.718  28.868 -0.0916 -0.0542  0.3237
44423DOD     C377090  17.646   9.507  29.277 -0.1650 -0.2018  0.0789
44424DOD     C177091   0.333  18.129   3.442 -0.2680  0.2092  0.2394
44424DOD     C277092   0.522  18.335   3.832  0.2191  0.1827  0.1614
44424DOD     C377093   0.769  18.375   4.250  0.3250 -0.0041  0.0735
44425DOD     C177094  12.501  18.048  23.009 -0.4039  0.1131  0.1095
44425DOD     C277095  12.201  18.207  22.676 -0.2016 -0.0471 -0.0177
44425DOD     C377096  12.389  18.425  22.254 -0.2532  0.0693 -0.1005
44426DOD     C177097  25.527   8.303   6.072  0.1460  0.0798  0.0984
44426DOD     C277098  25.838   8.493   6.377 -0.0811 -0.0966  0.1612
44426DOD     C377099  25.858   8.488   6.858 -0.2746 -0.1327  0.0406
44427DOD     C177100  29.326  21.216  27.194 -0.0479 -0.0871 -0.0238
44427DOD     C277101  29.730  21.276  27.176  0.2360 -0.0641 -0.2064
44427DOD     C377102  30.162  21.504  27.201  0.0663  0.0103  0.1255
44428DOD     C177103  25.548  26.432  29.279 -0.1237  0.3125  0.1713
44428DOD     C277104  25.750  26.776  29.043 -0.0858 -0.2230 -0.0791
44428DOD     C377105  25.915  27.261  28.956  0.2132  0.0780  0.4464
44429DOD     C177106   8.259  28.352  13.280  0.1425  0.0396 -0.3170
44429DOD     C277107   8.149  28.189  12.892  0.2503  0.0864  0.1337
44429DOD     C377108   7.911  28.182  12.559  0.0432 -0.0640 -0.0364
44430DOD     C177109  27.145   8.127  14.632  0.0396  0.0155 -0.0103
44430DOD     C277110  27.205   7.780  14.969 -0.2520 -0.0149  0.2887
44430DOD     C377111  27.494   7.577  15.304  0.1617  0.0129 -0.0472
44431DOD     C177112   2.571  13.340  14.927 -0.2525 -0.0769 -0.0798
44431DOD     C277113   2.765  13.457  14.517  0.0220 -0.0070  0.3050
44431DOD     C377114   3.029  13.341  14.096  0.0715  0.0832 -0.1720
44432DOD     C177115   9.678  23.917  28.899  0.3221 -0.0961  0.3635
44432DOD     C277116   9.323  23.638  29.004  0.1887  0.2515 -0.2675
44432DOD     C377117   8.955  23.521  29.278 -0.0327  0.0067 -0.3014
44433DOD     C177118  25.072  20.024  22.906  0.1367 -0.0432 -0.0289
44433DOD     C277119  24.666  19.772  22.842  0.1180  0.0866 -0.2693
44433DOD     C377120  24.211  19.654  22.740 -0.4816  0.0446 -0.0275
44434DOD     C177121  24.704  24.020  29.396  0.0535  0.0525  0.1446
44434DOD     C277122  25.005  24.180  29.073 -0.0064 -0.2236  0.0664
44434DOD     C377123  25.223  24.571  28.967  0.1552  0.1347  0.2352
44435DOD     C177124  20.807   6.401   2.963 -0.1043 -0.0755 -0.0113
44435DOD     C277125  20.836   6.764   2.728  0.1997 -0.1911  0.1898
44435DOD     C377126  21.060   7.002   2.393  0.3463  0.1182 -0.0013
44436DOD     C177127   2.148  30.049  13.777  0.2451 -0.1878  0.0031
44436DOD     C277128   1.819  29.769  13.734 -0.0994  0.0067 -0.2856
44436DOD     C377129   1.367  29.788  13.944  0.0102  0.0077 -0.1090
44437DOD     C177130  16.711  18.011   1.432 -0.0214  0.2450  0.1135
44437DOD     C277131  16.484  18.014   1.024 -0.2969  0.1029  0.0674
44437DOD     C377132  16.329  17.792   0.649  0.1319  0.0753  0.2115
44438DOD     C177133  14.874  19.606  22.583  0.0804 -0.0310  0.1745
44438DOD     C277134  14.546  19.338  22.387  0.1080  0.2921 -0.0634
44438DOD     C377135  14.591  18.867  22.370 -0.3460 -0.0500 -0.0169
44439DOD     C177136   5.887  21.309   9.418 -0.1415 -0.0189  0.0648
44439DOD     C277137   6.155  21.468   9.051  0.3596  0.0847 -0.0443
44439DOD     C377138   6.494  21.267   8.848 -0.1449 -0.1493 -0.0086
44440DOD     C177139  29.610   2.268  14.076  0.1416 -0.0124 -0.1438
44440DOD     C277140  29.209   2.017  14.292 -0.1390 -0.0480  0.1820
44440DOD     C377141  29.049   1.669  14.596  0.2090  0.1147  0.2596
44441DOD     C177142   1.042   6.396   8.390  0.0012 -0.1238  0.1752
44441DOD     C277143   1.224   6.791   8.187 -0.1530 -0.2158 -0.0358
44441DOD     C377144   1.226   7.136   7.966 -0.1550 -0.1585  0.0827
44442DOD     C177145  29.447   5.322  16.669  0.0324 -0.3384 -0.2380
44442DOD     C277146  29.229   4.976  16.472 -0.0408  0.5719  0.3834
44442DOD     C377147  28.978   4.599  16.340  0.0390 -0.4483  0.2925
44443DOD     C177148   1.213  24.154  18.924 -0.2200  0.0022  0.0104
44443DOD     C277149   1.480  24.256  19.316  0.2108  0.0966  0.2111
44443DOD     C377150   1.726  24.559  19.563 -0.0727  0.0608  0.0874
44444DOD     C177151   1.893  12.282  17.833  0.0418  0.1535 -0.1896
44444DOD     C277152   1.548  12.439  18.120  0.1274  0.2274 -0.0096
44444DOD     C377153   1.139  12.515  18.353 -0.2644 -0.0808 -0.0006
44445DOD     C177154   7.673   1.399   5.568 -0.0175 -0.3374 -0.1560
44445DOD     C277155   7.900   1.381   5.156  0.0318  0.2610  0.0483
44445DOD     C377156   8.021   1.456   4.691 -0.0908 -0.0759  0.4309
44446DOD     C177157  20.009   8.070  10.692  0.3521 -0.2249 -0.0147
44446DOD     C277158  19.655   8.386  10.723  0.1346  0.1758 -0.3578
44446DOD     C377159  19.363   8.736  10.874 -0.1666  0.1101  0.2041
44447DOD     C177160  21.338  22.297   2.104  0.1061  0.4410  0.0500
44447DOD     C277161  21.460  22.694   1.879  0.1650  0.0111 -0.0271
44447DOD     C377162  21.508  23.108   1.552  0.0676  0.1400 -0.0795
44448DOD     C177163  11.431  18.212  28.518 -0.2454 -0.0038  0.1847
44448DOD     C277164  11.361  18.257  28.074  0.3546 -0.1409 -0.0304
44448DOD     C377165  11.115  18.609  27.983 -0.2500 -0.3999 -0.1110
44449DOD     C177166  28.593  25.117   2.738  0.3747 -0.1321  0.1484
44449DOD     C277167  28.404  24.745   2.533 -0.1705  0.0286 -0.0006
44449DOD     C377168  28.452  24.444   2.206 -0.3279 -0.1409  0.1626
44450DOD     C177169   8.871  28.797  25.268  0.1319 -0.0179  0.2676
44450DOD     C277170   9.117  29.180  25.436 -0.1533 -0.0592 -0.0863
44450DOD     C377171   9.345  29.641  25.383  0.0198  0.0759  0.0381
44451DOD     C177172  15.331  13.655  19.180 -0.1322 -0.2342 -0.2066
44451DOD     C277173  15.420  14.071  18.965 -0.2066  0.0664 -0.0504
44451DOD     C377174  15.798  14.326  18.886 -0.0186 -0.2706 -0.4417
44452DOD     C177175  10.053  28.922  10.531 -0.1475  0.1956 -0.0653
44452DOD     C277176  10.283  28.619  10.224 -0.0679  0.1357  0.1031
44452DOD     C377177  10.515  28.456   9.801 -0.0095 -0.1003  0.2645
44453DOD     C177178  17.803  21.122   2.896 -0.2199 -0.1224  0.0764
44453DOD     C277179  17.410  20.875   3.085  0.2870  0.0674 -0.0544
44453DOD     C377180  17.123  20.545   3.152  0.2416 -0.0544 -0.1830
44454DOD     C177181  13.848  12.465  12.998  0.2540 -0.2240  0.0969
44454DOD     C277182  13.476  12.617  13.270 -0.2728 -0.0974  0.0696
44454DOD     C377183  13.061  12.887  13.481  0.6006 -0.0291 -0.2134
44455DOD     C177184   1.443  10.842  26.698 -0.1519  0.0775 -0.1572
44455DOD     C277185   1.047  11.107  26.582 -0.3404 -0.0551 -0.1571
44455DOD     C377186   0.805  11.556  26.540 -0.0387 -0.0181 -0.1729
44456DOD     C177187  25.277  10.909   8.166 -0.0929  0.1509 -0.1373
44456DOD     C277188  25.262  11.185   7.794 -0.1126  0.1092  0.3228
44456DOD     C377189  25.305  11.183   7.316 -0.0292  0.3265 -0.0864
44457DOD     C177190  23.142  29.599  22.064 -0.2128  0.3664  0.0628
44457DOD     C277191  22.792  29.845  21.979  0.0584  0.3604 -0.1310
44457DOD     C377192  22.487  30.133  21.775  0.0501 -0.1709  0.0216
44458DOD     C177193  18.690  24.390  11.366  0.2570 -0.0160  0.0089
44458DOD     C277194  18.324  24.684  11.191  0.1738  0.0579 -0.2024
44458DOD     C377195  17.967  25.003  11.120 -0.1407 -0.0336 -0.0317
44459DOD     C177196  25.830  27.898  21.776 -0.0315 -0.2191 -0.0893
44459DOD     C277197  26.188  27.909  22.019  0.0889 -0.0998  0.3212
44459DOD     C377198  26.635  27.981  22.027 -0.1096 -0.0669  0.0742
44460DOD     C177199   2.515   8.411   8.865  0.1598 -0.0646 -0.0510
44460DOD     C277200   2.374   8.755   9.184  0.0797  0.1120  0.1996
44460DOD     C377201   2.707   8.991   9.518  0.0498  0.0421 -0.3578
44461DOD     C177202  24.936   9.428  20.083  0.1615 -0.4110 -0.0348
44461DOD     C277203  25.323   9.426  20.364 -0.1105  0.0648  0.2375
44461DOD     C377204  25.756   9.672  20.367 -0.0621 -0.1216  0.1597
44462DOD     C177205  21.046   7.945   5.784  0.1938 -0.0538 -0.0418
44462DOD     C277206  21.138   7.720   6.217 -0.3231  0.0439  0.2606
44462DOD     C377207  20.988   7.693   6.633 -0.0694  0.0001 -0.1534
44463DOD     C177208   1.135   4.639  28.816  0.2757  0.0175  0.4419
44463DOD     C277209   0.688   4.797  28.921 -0.2716 -0.0326 -0.2081
44463DOD     C377210   0.495   5.214  28.923 -0.0325 -0.0641 -0.0246
44464DOD     C177211   0.878  18.005   7.721  0.1355  0.1505 -0.4226
44464DOD     C277212   0.879  17.511   7.790 -0.1914 -0.0833  0.0663
44464DOD     C377213   0.790  17.087   7.842 -0.0168  0.0151  0.2413
44465DOD     C177214  17.096   0.117  20.799  0.2078 -0.1259 -0.1792
44465DOD     C277215  16.701   0.392  20.707  0.0560  0.3200 -0.1801
44465DOD     C377216  16.397   0.709  20.810  0.4034 -0.0792 -0.1575
44466DOD     C177217  27.415  28.869  29.776  0.0394 -0.0540 -0.1067
44466DOD     C277218  27.748  28.743  30.018 -0.0001  0.0665 -0.0655
44466DOD     C377219  28.147  28.576  30.130  0.1752  0.1176 -0.3922
44467DOD     C177220  11.736   6.603  20.635 -0.0240  0.0386  0.1387
44467DOD     C277221  11.398   6.848  20.432 -0.2045  0.0106 -0.1462
44467DOD     C377222  10.938   7.024  20.318  0.0914  0.2110 -0.2007
44468DOD     C177223  17.801   8.434  20.703  0.1413  0.1344 -0.0305
44468DOD     C277224  18.021   8.763  20.985  0.2779 -0.0047  0.0403
44468DOD     C377225  18.229   8.874  21.350 -0.3455  0.1011  0.2380
44469DOD     C177226  12.249  13.462  13.772  0.0855 -0.1506  0.1415
44469DOD     C277227  11.837  13.431  13.490 -0.0351  0.2144  0.0049
44469DOD     C377228  11.591  13.043  13.343  0.2943  0.0004 -0.0972
44470DOD     C177229  10.449   3.346   0.034  0.1571  0.0663  0.1120
44470DOD     C277230  10.789   3.468  30.062 -0.1040  0.0141 -0.1836
44470DOD     C377231  10.820   3.721  29.707 -0.1627 -0.1888  0.0469
44471DOD     C177232  24.809  20.822  27.910  0.3322  0.1026 -0.1484
44471DOD     C277233  25.228  20.692  28.183 -0.3014 -0.1670  0.1405
44471DOD     C377234  25.360  20.854  28.594 -0.3474  0.2955  0.0889
44472DOD     C177235  23.632  15.071  29.124 -0.0152 -0.0989 -0.0229
44472DOD     C277236  24.057  15.178  29.261  0.1065  0.0425  0.1693
44472DOD     C377237  24.366  14.847  29.363 -0.1518  0.0153 -0.0369
44473DOD     C177238  14.226  16.855   4.441  0.1361  0.0745 -0.3569
44473DOD     C277239  14.393  17.240   4.355 -0.0093 -0.3321 -0.1584
44473DOD     C377240  14.195  17.609   4.143 -0.0830  0.1502 -0.1508
44474DOD     C177241  29.008  10.714   4.966  0.1669  0.1477 -0.1581
44474DOD     C277242  29.463  10.778   5.131 -0.1244  0.1569 -0.1589
44474DOD     C377243  29.626  10.762   5.557  0.1557  0.0456 -0.1405
44475DOD     C177244   0.687  18.836  23.370 -0.0976 -0.0967 -0.3707
44475DOD     C277245   0.937  18.483  23.536  0.3256 -0.0279  0.2800
44475DOD     C377246   1.253  18.094  23.621  0.0277 -0.2017  0.1015
44476DOD     C177247  21.602  22.332  19.768  0.2368  0.0011  0.2078
44476DOD     C277248  21.191  22.469  19.521 -0.0661  0.0848  0.1460
44476DOD     C377249  20.940  22.539  19.126  0.0865 -0.3798  0.1039
44477DOD     C177250   9.776  14.600  20.800  0.0519  0.0798 -0.0108
44477DOD     C277251  10.122  14.881  20.691 -0.3494  0.0483 -0.1054
44477DOD     C377252  10.453  15.110  20.486  0.2799 -0.1140  0.0136
44478DOD     C177253   3.678   4.804  15.348  0.2210  0.3715  0.2841
44478DOD     C277254   3.492   5.217  15.472  0.2015  0.1438  0.0266
44478DOD     C377255   3.275   5.481  15.774 -0.2574 -0.0816 -0.0109
44479DOD     C177256  24.618  28.433  13.360  0.0295  0.0175 -0.1452
44479DOD     C277257  24.847  28.075  13.636 -0.0553  0.1230  0.4171
44479DOD     C377258  25.079  27.797  13.961  0.1366 -0.0524 -0.2492
44480DOD     C177259  21.935   1.618  30.033 -0.0491  0.3126 -0.5397
44480DOD     C277260  22.196   1.950  30.115  0.0033  0.1282  0.0730
44480DOD     C377261  22.528   2.148  29.800  0.2044  0.2799 -0.1163
44481DOD     C177262  21.710  25.179  16.206  0.2317  0.3824  0.1003
44481DOD     C277263  21.259  25.080  16.011 -0.0903 -0.3121  0.1724
44481DOD     C377264  20.948  24.813  16.309 -0.0381 -0.1730  0.0887
44482DOD     C177265  23.160   1.516  24.033  0.1724  0.4948 -0.3600
44482DOD     C277266  22.928   1.383  23.675 -0.2644 -0.3468  0.1316
44482DOD     C377267  22.785   1.100  23.358 -0.0639 -0.4013  0.2984
44483DOD     C177268  19.834  29.637   4.455 -0.0749  0.3306  0.0558
44483DOD     C277269  20.189  29.327   4.526 -0.0121  0.0381  0.1562
44483DOD     C377270  20.477  29.028   4.739 -0.2501  0.0454  0.1315
44484DOD     C177271  15.914  24.010  23.087  0.0532 -0.0857 -0.1922
44484DOD     C277272  15.900  24.439  23.148 -0.1295 -0.4166 -0.2396
44484DOD     C377273  16.008  24.844  23.348 -0.1261  0.3811 -0.2012
44485DOD     C177274   4.379  18.380  27.162 -0.3806 -0.0919 -0.1201
44485DOD     C277275   4.618  18.034  27.240  0.1093 -0.2611 -0.1967
44485DOD     C377276   4.789  17.858  27.669 -0.0878  0.2618 -0.0008
44486DOD     C177277  10.423   8.659  23.184  0.0292  0.3615  0.1637
44486DOD     C277278  10.346   8.482  23.599  0.1458  0.2787 -0.3886
44486DOD     C377279   9.918   8.522  23.909  0.1100  0.0906 -0.0468
44487DOD     C177280  15.530  19.413   0.586 -0.2805  0.1300  0.1833
44487DOD     C277281  15.796  19.563   0.976 -0.0653  0.0863 -0.1445
44487DOD     C377282  15.970  19.472   1.416 -0.2013  0.0679 -0.2068
44488DOD     C177283  13.519   1.242  11.914 -0.0648 -0.0661  0.3000
44488DOD     C277284  13.599   1.672  11.721  0.0255  0.0905 -0.4269
44488DOD     C377285  13.485   2.057  11.480 -0.1779 -0.1377 -0.0510
44489DOD     C177286  10.387   0.407   6.648  0.0844  0.1930  0.0826
44489DOD     C277287  10.601   0.766   6.699  0.1035 -0.2138 -0.5120
44489DOD     C377288  10.612   1.217   6.557  0.1118  0.1063 -0.0260
44490DOD     C177289  16.044  22.063   0.539 -0.3913 -0.0256 -0.0606
44490DOD     C277290  16.068  22.195   0.981  0.1984  0.1333  0.1946
44490DOD     C377291  16.073  22.262   1.457  0.2162 -0.0778 -0.0866
44491DOD     C177292   7.823  10.899  14.962  0.0847 -0.0733 -0.2169
44491DOD     C277293   7.871  10.973  14.509 -0.3542  0.0772  0.0068
44491DOD     C377294   8.151  10.656  14.229  0.1136 -0.1407 -0.0559
44492DOD     C177295  13.749   8.158  10.533 -0.1123  0.2753  0.1374
44492DOD     C277296  13.594   8.475  10.858  0.2202  0.1799 -0.1634
44492DOD     C377297  13.158   8.697  11.040 -0.2324 -0.0335  0.3402
44493DOD     C177298   9.534  28.369   1.241  0.0635 -0.0181  0.0893
44493DOD     C277299   9.118  28.128   1.177 -0.2764 -0.0144  0.3104
44493DOD     C377300   8.666  28.236   1.025 -0.2253  0.1132 -0.0193
44494DOD     C177301  24.009   2.770  25.127  0.5301  0.0378  0.1234
44494DOD     C277302  24.239   2.403  25.118 -0.1613 -0.2626 -0.3233
44494DOD     C377303  24.299   2.040  24.822  0.3563 -0.1017 -0.2900
44495DOD     C177304  28.150   2.805  16.084  0.1663 -0.2681  0.2278
44495DOD     C277305  28.192   2.564  16.438  0.1927  0.0532 -0.1543
44495DOD     C377306  28.021   2.246  16.713  0.2073  0.2334 -0.1933
44496DOD     C177307  15.581  25.447  19.396 -0.0984 -0.1186 -0.0770
44496DOD     C277308  15.771  25.804  19.177  0.1453 -0.0698  0.1704
44496DOD     C377309  16.190  26.021  19.141  0.0789  0.2608 -0.0266
44497DOD     C177310  18.698   9.641  20.161  0.1225 -0.0837 -0.2974
44497DOD     C277311  18.687   9.224  19.989 -0.1590  0.0860  0.1633
44497DOD     C377312  18.765   8.973  19.616  0.0309  0.0462 -0.2231
44498DOD     C177313  21.474  11.192  25.533 -0.0326  0.0847  0.3806
44498DOD     C277314  21.556  11.361  25.985 -0.2851 -0.4737  0.2674
44498DOD     C377315  21.845  11.402  26.350  0.2192  0.1374  0.2554
44499DOD     C177316  22.435  10.316  16.920 -0.1006  0.1387  0.3916
44499DOD     C277317  22.023  10.194  17.029  0.2565 -0.2151 -0.0933
44499DOD     C377318  21.621  10.103  17.213  0.2094  0.1832  0.0774
44500DOD     C177319  29.825   5.871  15.976  0.3697 -0.0471  0.0376
44500DOD     C277320  29.550   5.899  15.611 -0.1801 -0.2086  0.1915
44500DOD     C377321  29.661   6.018  15.182 -0.2261  0.1642  0.0990
44501DOD     C177322  20.885  28.689   3.461  0.0512  0.2319 -0.1055
44501DOD     C277323  20.783  29.172   3.412  0.2891  0.1438 -0.0241
44501DOD     C377324  20.913  29.623   3.405  0.2365 -0.1619  0.4824
44502DOD     C177325  29.984  28.373  24.408  0.1794  0.1867  0.0999
44502DOD     C277326  29.657  28.109  24.575  0.1995  0.0997 -0.1938
44502DOD     C377327  29.479  27.825  24.877  0.0858 -0.0829 -0.3891
44503DOD     C177328  22.710   7.362   3.562 -0.0840  0.1799 -0.1475
44503DOD     C277329  23.064   7.666   3.446  0.2991  0.0787  0.1762
44503DOD     C377330  23.413   7.897   3.383  0.1029 -0.3564  0.0527
44504DOD     C177331  29.225  20.387  19.233  0.2740 -0.1289 -0.2531
44504DOD     C277332  28.876  20.635  19.051 -0.0913  0.1308  0.3622
44504DOD     C377333  28.621  21.027  18.977 -0.0794 -0.2575  0.3018
44505DOD     C177334  21.463  21.266  28.031  0.3073 -0.1758  0.1750
44505DOD     C277335  21.366  21.303  28.432  0.0900  0.0658 -0.2712
44505DOD     C377336  21.210  21.530  28.823  0.1490  0.2275  0.2255
44506DOD     C177337  13.386  18.312   5.579  0.0148 -0.1295 -0.0467
44506DOD     C277338  13.846  18.318   5.644  0.0070 -0.1662 -0.1318
44506DOD     C377339  14.259  18.343   5.787  0.0964  0.2923  0.2935
44507DOD     C177340  25.051  14.661  13.018  0.2441  0.0866  0.1167
44507DOD     C277341  25.365  14.882  13.352  0.2980 -0.5260  0.1568
44507DOD     C377342  25.582  14.931  13.774  0.3968 -0.1168 -0.1104
44508DOD     C177343  29.356   0.460  18.531  0.0172 -0.1490 -0.2147
44508DOD     C277344  29.802   0.566  18.378 -0.1781  0.5228  0.1530
44508DOD     C377345  30.141   0.598  18.013  0.0651  0.1500 -0.1366
44509DOD     C177346   1.368  11.760  20.044  0.2522 -0.0737 -0.4734
44509DOD     C277347   1.231  11.512  20.452  0.1014  0.1229  0.1468
44509DOD     C377348   0.839  11.453  20.617  0.3543  0.2373  0.1618
44510DOD     C177349  20.188  15.381  29.727 -0.0057 -0.0575  0.2872
44510DOD     C277350  19.933  15.064  29.480  0.1290  0.1777  0.0043
44510DOD     C377351  19.872  14.610  29.615 -0.0138  0.0419  0.0989
44511DOD     C177352  28.200  14.244  19.610 -0.0801 -0.3095  0.1371
44511DOD     C277353  27.993  14.520  19.913  0.4168 -0.2100 -0.2172
44511DOD     C377354  27.791  14.764  20.339 -0.1400  0.1330  0.2503
44512DOD     C177355   0.863  28.375  26.163 -0.0840  0.4819  0.1686
44512DOD     C277356   0.548  28.172  25.920 -0.0231  0.0920 -0.1085
44512DOD     C377357   0.166  28.125  25.623  0.0272  0.1950  0.2819
44513DOD     C177358   1.379  23.632  26.301 -0.1363  0.0399 -0.5556
44513DOD     C277359   1.618  23.790  26.622 -0.1368  0.0399 -0.1707
44513DOD     C377360   1.511  23.783  27.060  0.0672 -0.0447 -0.2441
44514DOD     C177361  25.484  19.866  24.573 -0.0284  0.0687  0.3150
44514DOD     C277362  25.198  19.618  24.866  0.2424 -0.0953  0.1858
44514DOD     C377363  24.928  19.663  25.216  0.0248  0.0793  0.4747
44515DOD     C177364  11.808  20.486   2.168  0.2153 -0.0625  0.3023
44515DOD     C277365  11.622  20.842   2.331 -0.5150  0.1278  0.0494
44515DOD     C377366  11.260  21.057   2.213  0.1721  0.0631 -0.1616
44516DOD     C177367  18.558   4.239   0.253  0.0901 -0.4408 -0.1262
44516DOD     C277368  18.131   4.135   0.249  0.1388 -0.2969  0.1424
44516DOD     C377369  17.904   3.877  30.230  0.1751  0.1106 -0.3365
44517DOD     C177370  23.190  18.052  12.077  0.0830 -0.3433  0.1665
44517DOD     C277371  23.408  17.614  12.066  0.1642  0.0874  0.1371
44517DOD     C377372  23.720  17.496  12.344  0.1399 -0.0482 -0.0605
44518DOD     C177373   2.642   0.012  26.659 -0.0552  0.2319 -0.0496
44518DOD     C277374   2.389  29.952  26.600 -0.1014 -0.1973  0.0635
44518DOD     C377375   2.538  29.511  26.596 -0.2438  0.1172  0.2199
44519DOD     C177376  16.905   7.561  12.259  0.0941 -0.0531 -0.4472
44519DOD     C277377  17.263   7.370  12.562  0.0158  0.0907 -0.3653
44519DOD     C377378  17.188   7.154  12.951 -0.2524  0.2819 -0.1963
44520DOD     C177379  26.938   2.968  24.041  0.1876  0.0718  0.0217
44520DOD     C277380  26.939   2.531  24.100  0.2225  0.0428 -0.1611
44520DOD     C377381  27.125   2.123  23.982  0.1463  0.0151 -0.3248
44521DOD     C177382  11.312  22.985   4.698 -0.1132  0.0213  0.1880
44521DOD     C277383  11.501  22.881   5.087 -0.2510 -0.0721  0.0270
44521DOD     C377384  11.400  22.563   5.400 -0.2292 -0.2812  0.1197
44522DOD     C177385  19.819   6.952  18.299  0.1003  0.1402 -0.1273
44522DOD     C277386  19.505   6.757  18.492 -0.0479  0.0318  0.1001
44522DOD     C377387  19.115   6.781  18.708  0.1819 -0.1025 -0.0085
44523DOD     C177388  21.891   4.098  25.350 -0.0106 -0.0093  0.1933
44523DOD     C277389  21.710   3.907  25.763 -0.1860 -0.1107  0.0746
44523DOD     C377390  21.476   3.796  26.171  0.1714  0.3128 -0.1087
44524DOD     C177391   7.166  16.564   1.126  0.3484  0.0036 -0.0500
44524DOD     C277392   6.997  16.318   1.508  0.0197 -0.0989 -0.0046
44524DOD     C377393   7.055  15.996   1.862 -0.0838  0.0026  0.0909
44525DOD     C177394  26.893  13.192   0.534 -0.2198 -0.0778  0.2061
44525DOD     C277395  27.006  13.594   0.283  0.0004  0.0514  0.1726
44525DOD     C377396  27.089  13.672  30.158 -0.0516 -0.1706  0.2912
44526DOD     C177397  27.525  22.760  13.058 -0.0857 -0.3404 -0.1658
44526DOD     C277398  27.276  22.375  13.201  0.0880 -0.2898 -0.2266
44526DOD     C377399  26.906  22.098  13.187  0.1960 -0.1684  0.0838
44527DOD     C177400  16.372  18.830  16.722  0.0474  0.1130  0.2404
44527DOD     C277401  15.936  18.873  16.543  0.0493  0.2387 -0.0023
44527DOD     C377402  15.577  19.130  16.573  0.2244 -0.1526  0.5606
44528DOD     C177403  16.384   5.647  24.412  0.3520  0.1787 -0.1095
44528DOD     C277404  16.162   5.616  24.769  0.0523 -0.1116  0.1065
44528DOD     C377405  15.715   5.631  24.829 -0.0947 -0.3095  0.3564
44529DOD     C177406   3.069  22.043   9.960  0.3623 -0.0347  0.0236
44529DOD     C277407   3.477  21.917  10.053 -0.0694  0.0167 -0.0940
44529DOD     C377408   3.860  21.687  10.175 -0.0542  0.1002  0.1026
44530DOD     C177409   2.927  26.536  15.292 -0.2307  0.1295  0.2032
44530DOD     C277410   2.709  26.102  15.444 -0.1056 -0.1681  0.2371
44530DOD     C377411   2.864  25.657  15.460 -0.0829 -0.2374 -0.0082
44531DOD     C177412   9.789  10.780  25.485  0.1084  0.3113  0.3705
44531DOD     C277413   9.647  10.767  25.924  0.3436  0.1133 -0.0026
44531DOD     C377414   9.583  10.396  26.216 -0.0003  0.4038  0.0153
44532DOD     C177415  19.059   9.367   2.640  0.0089 -0.0331 -0.0116
44532DOD     C277416  18.774   9.312   2.206 -0.2064  0.1541  0.2822
44532DOD     C377417  18.776   9.266   1.760 -0.2674  0.1737  0.0834
44533DOD     C177418  23.508  19.270  26.419  0.1665  0.1438  0.1329
44533DOD     C277419  23.208  19.678  26.419 -0.4377 -0.1158  0.0865
44533DOD     C377420  22.823  19.939  26.302 -0.1975 -0.0286  0.0067
44534DOD     C177421  29.500  30.095  13.181 -0.0576  0.2062  0.1117
44534DOD     C277422  29.712  29.790  12.917  0.2446  0.1553  0.2614
44534DOD     C377423  29.724  29.345  12.759  0.3702  0.2603  0.0504
44535DOD     C177424  20.067  19.499   7.672 -0.0751 -0.0577 -0.0414
44535DOD     C277425  20.071  19.066   7.537 -0.2055  0.0368 -0.0298
44535DOD     C377426  20.268  18.666   7.358  0.0224 -0.1435 -0.2066
44536DOD     C177427  13.331  15.361   0.820  0.1697  0.0018 -0.0716
44536DOD     C277428  13.762  15.364   0.660  0.1971  0.0478 -0.0344
44536DOD     C377429  14.163  15.307   0.461  0.0301  0.0903 -0.1647
44537DOD     C177430  20.289  13.545  24.215 -0.1560 -0.1085  0.1888
44537DOD     C277431  20.070  13.554  24.619 -0.1276  0.0150 -0.1133
44537DOD     C377432  20.076  13.790  25.057 -0.2992  0.2308 -0.1129
44538DOD     C177433   2.382   3.885  11.206 -0.1159  0.3750  0.1403
44538DOD     C277434   2.605   3.476  11.126  0.2190 -0.1374  0.1882
44538DOD     C377435   2.627   3.358  10.660 -0.4748 -0.2004  0.0078
44539DOD     C177436  26.890   6.535   6.816 -0.0137  0.0312 -0.1433
44539DOD     C277437  26.464   6.653   6.994 -0.0658  0.0303  0.0782
44539DOD     C377438  26.207   6.930   7.207 -0.1911  0.2630  0.0480
44540DOD     C177439  29.237  12.658   5.918 -0.0194  0.0268  0.4438
44540DOD     C277440  29.073  12.432   5.521 -0.2936 -0.2777 -0.2805
44540DOD     C377441  28.892  12.004   5.537  0.1215 -0.3482 -0.1328
44541DOD     C177442  23.852  11.414  13.786  0.0038  0.1008 -0.3116
44541DOD     C277443  24.059  11.557  13.378 -0.1674 -0.0628 -0.0082
44541DOD     C377444  23.979  11.467  12.899  0.1343  0.1628 -0.1047
44542DOD     C177445  27.128  17.151   2.879 -0.0913  0.0069 -0.0203
44542DOD     C277446  26.792  16.992   3.086  0.1549  0.3026 -0.0186
44542DOD     C377447  26.576  16.786   3.454 -0.1618 -0.1611  0.1793
44543DOD     C177448  13.797  13.409   7.947  0.2624 -0.0745 -0.0095
44543DOD     C277449  13.690  13.084   7.567  0.3317 -0.1997 -0.0774
44543DOD     C377450  13.732  12.844   7.170  0.2431  0.4862 -0.1291
44544DOD     C177451  10.275   1.371  11.251  0.2408  0.0169 -0.0157
44544DOD     C277452  10.746   1.301  11.086 -0.1925  0.0227  0.0247
44544DOD     C377453  11.048   0.982  10.949  0.2895  0.1801  0.5085
44545DOD     C177454  12.837   4.912  28.656 -0.2523  0.3951  0.1463
44545DOD     C277455  13.048   4.603  28.318 -0.2556  0.2689  0.1015
44545DOD     C377456  13.304   4.306  28.140  0.0240  0.0460  0.0490
44546DOD     C177457  15.502  18.222  28.562  0.0218  0.2329  0.0956
44546DOD     C277458  15.424  17.790  28.642  0.0564  0.3710  0.1891
44546DOD     C377459  15.079  17.762  29.012  0.1126 -0.2245  0.0210
44547DOD     C177460  21.308  11.022  14.544 -0.2810  0.0281 -0.1580
44547DOD     C277461  21.642  10.679  14.654  0.0115 -0.1526 -0.2613
44547DOD     C377462  21.650  10.236  14.510 -0.1025  0.0593  0.1790
44548DOD     C177463   1.069  20.773   0.181 -0.2878  0.1376 -0.2048
44548DOD     C277464   0.775  21.086   0.096 -0.2190 -0.1438 -0.1724
44548DOD     C377465   0.541  21.234  30.041  0.1592 -0.1498 -0.2946
44549DOD     C177466  25.550  18.117   0.481 -0.2827  0.0296  0.0673
44549DOD     C277467  25.418  17.670   0.531 -0.1948  0.1954  0.1460
44549DOD     C377468  25.306  17.274   0.757 -0.0739 -0.2096  0.1177
44550DOD     C177469  10.794   2.918   0.616 -0.2525  0.2880 -0.0751
44550DOD     C277470  11.108   2.576   0.624 -0.2764  0.2245  0.2370
44550DOD     C377471  11.053   2.108   0.593 -0.1133 -0.0048 -0.1428
44551DOD     C177472  19.320  22.839  17.030 -0.1160 -0.0934 -0.3629
44551DOD     C277473  19.515  23.164  16.685  0.1535  0.2017 -0.1982
44551DOD     C377474  19.377  23.109  16.234  0.1169 -0.1131  0.2910
44552DOD     C177475   8.661   5.251  28.861 -0.1237  0.2430 -0.0363
44552DOD     C277476   8.569   4.782  28.950  0.1829  0.1146  0.1267
44552DOD     C377477   8.594   4.344  29.027  0.0566 -0.2221  0.0126
44553DOD     C177478  12.457  27.620  11.190 -0.1420  0.1055 -0.0509
44553DOD     C277479  12.219  27.621  10.768 -0.0486  0.1161 -0.0772
44553DOD     C377480  12.244  27.793  10.314 -0.1433 -0.0934  0.0807
44554DOD     C177481  22.242  19.219  12.583 -0.3013  0.2694 -0.1255
44554DOD     C277482  22.420  19.008  12.942 -0.1243 -0.0574  0.2316
44554DOD     C377483  22.515  18.561  13.127  0.3195  0.0376 -0.0581
44555DOD     C177484  24.567  11.447  28.163 -0.1193 -0.0469 -0.2361
44555DOD     C277485  24.494  11.557  27.748 -0.0925  0.0613 -0.0453
44555DOD     C377486  24.736  11.402  27.321  0.2395  0.0099  0.2241
44556DOD     C177487  19.372  16.858  13.496  0.0819  0.0181 -0.0133
44556DOD     C277488  18.976  16.972  13.674 -0.0483 -0.0068 -0.0769
44556DOD     C377489  18.564  16.899  13.948  0.2562  0.1137 -0.0244
44557DOD     C177490  16.854   2.246  27.937 -0.0507 -0.1199  0.2207
44557DOD     C277491  17.001   1.925  27.712  0.0979  0.1397 -0.1969
44557DOD     C377492  16.822   1.555  27.480  0.3392 -0.0339  0.0431
44558DOD     C177493  26.084  12.310  28.169  0.1325 -0.0052 -0.1336
44558DOD     C277494  26.131  12.672  28.514 -0.0593  0.1539  0.0293
44558DOD     C377495  25.921  12.755  28.895 -0.0268  0.0468 -0.1972
44559DOD     C177496  20.940   5.251  16.083 -0.0881 -0.2766 -0.0924
44559DOD     C277497  20.468   5.125  16.096  0.0016  0.1598 -0.0068
44559DOD     C377498  20.105   5.237  16.362 -0.0973  0.0298  0.0277
44560DOD     C177499  30.262   2.771  22.209  0.0087 -0.1529 -0.0819
44560DOD     C277500  29.980   2.957  22.569  0.1156 -0.3003 -0.0969
44560DOD     C377501  29.557   3.172  22.678 -0.1876 -0.0613  0.3101
44561DOD     C177502   3.000  15.702  22.393 -0.3188 -0.1000 -0.1867
44561DOD     C277503   2.795  15.948  22.769 -0.0599 -0.0747 -0.0125
44561DOD     C377504   2.519  16.297  22.692  0.0663  0.2709  0.3610
44562DOD     C177505  13.919  22.988  27.422  0.1560 -0.1425 -0.0709
44562DOD     C277506  13.968  22.634  27.775  0.1792  0.4138  0.0254
44562DOD     C377507  13.658  22.429  27.944 -0.1237  0.3771  0.0809
44563DOD     C177508  14.890   8.772  22.231  0.1352 -0.2817  0.1187
44563DOD     C277509  15.078   8.545  21.877  0.3726  0.2747  0.2943
44563DOD     C377510  15.124   8.300  21.509  0.0177 -0.2096  0.1767
44564DOD     C177511  12.131   0.916   0.175  0.1573 -0.0083  0.2496
44564DOD     C277512  12.392   0.546   0.147 -0.0224  0.1532 -0.2728
44564DOD     C377513  12.520   0.198   0.465  0.3362  0.2374  0.2515
44565DOD     C177514  21.927   4.928  10.330  0.0022 -0.2913  0.1168
44565DOD     C277515  22.261   5.166  10.610  0.0924  0.1282  0.1622
44565DOD     C377516  22.288   5.478  10.968 -0.0027 -0.0835 -0.1400
44566DOD     C177517  15.863  14.217  15.189 -0.2336  0.2755  0.0388
44566DOD     C277518  16.187  14.533  15.075  0.3409  0.1793 -0.1534
44566DOD     C377519  16.389  14.925  15.060  0.3950 -0.4036  0.2326
44567DOD     C177520  11.236  26.050  15.845 -0.3228 -0.0443  0.1971
44567DOD     C277521  11.328  26.010  16.305 -0.1601 -0.0727 -0.1002
44567DOD     C377522  11.552  25.646  16.543  0.2138 -0.2267  0.1726
44568DOD     C177523  10.525   3.995  25.820 -0.2404 -0.3338  0.2066
44568DOD     C277524  10.272   3.621  25.813 -0.0350 -0.1212 -0.1638
44568DOD     C377525  10.087   3.164  25.804  0.0381  0.0578 -0.0718
44569DOD     C177526  22.463  22.342  28.282 -0.0889  0.0975 -0.2151
44569DOD     C277527  22.839  22.516  28.115 -0.2548  0.1206  0.2905
44569DOD     C377528  23.279  22.567  28.332 -0.0257  0.1602 -0.1276
44570DOD     C177529  27.438  29.477  29.075 -0.0200  0.2693  0.3177
44570DOD     C277530  27.166  29.817  28.987  0.0634 -0.1368  0.3444
44570DOD     C377531  26.861  30.053  29.188  0.3246 -0.2350 -0.0343
44571DOD     C177532  17.882  20.307  17.198  0.1214 -0.4384 -0.3120
44571DOD     C277533  17.388  20.204  17.112  0.1726  0.0066 -0.0259
44571DOD     C377534  16.949  20.300  16.917 -0.0861 -0.2706  0.1223
44572DOD     C177535  21.466   5.733   5.269 -0.0034  0.0465 -0.2164
44572DOD     C277536  21.165   5.502   5.552  0.1870 -0.1097 -0.2542
44572DOD     C377537  20.854   5.697   5.777 -0.2980  0.2799 -0.1873
44573DOD     C177538  13.406   6.912  21.373  0.3155 -0.0617  0.0708
44573DOD     C277539  12.981   6.911  21.545  0.0494  0.3913 -0.1966
44573DOD     C377540  12.549   7.049  21.570 -0.2731  0.0449 -0.0297
44574DOD     C177541   2.179  12.049  29.327  0.3319 -0.1634 -0.1768
44574DOD     C277542   2.012  12.356  29.633 -0.3782 -0.0865  0.1954
44574DOD     C377543   1.579  12.428  29.833 -0.1269 -0.1314  0.3375
44575DOD     C177544   8.279  17.014  20.002  0.2045 -0.0083 -0.1141
44575DOD     C277545   8.138  17.267  20.376  0.0463  0.0474  0.1991
44575DOD     C377546   7.908  17.347  20.770  0.1575  0.1602 -0.3322
44576DOD     C177547  28.081  13.162  11.620  0.0346 -0.0763  0.2561
44576DOD     C277548  28.190  13.425  11.992 -0.0202 -0.3141  0.0644
44576DOD     C377549  28.186  13.650  12.488  0.1810 -0.0456 -0.1058
44577DOD     C177550  11.469   6.082  29.549  0.3243  0.2747 -0.2340
44577DOD     C277551  11.089   6.046  29.269 -0.1925 -0.2830 -0.3094
44577DOD     C377552  10.836   6.424  29.189 -0.1061  0.0582 -0.1272
44578DOD     C177553  15.518  14.707  28.038  0.1733 -0.0062  0.2916
44578DOD     C277554  15.685  14.667  27.564  0.4184 -0.0102  0.1048
44578DOD     C377555  15.642  14.923  27.146  0.1932  0.4878 -0.0820
44579DOD     C177556   9.950  13.022  14.490  0.0166 -0.1540 -0.2471
44579DOD     C277557   9.988  13.526  14.372  0.0481  0.1738 -0.1257
44579DOD     C377558   9.945  13.746  14.773 -0.2976 -0.1619  0.2203
44580DOD     C177559  10.592  22.140   0.928  0.1381  0.2262 -0.0582
44580DOD     C277560  10.165  21.983   0.792 -0.0472 -0.0406  0.1515
44580DOD     C377561   9.990  21.557   0.817  0.2533  0.1279  0.1201
44581DOD     C177562  16.721  21.822  19.978 -0.1192 -0.0396  0.0323
44581DOD     C277563  16.811  22.156  19.702  0.0748  0.3105  0.0027
44581DOD     C377564  16.712  22.608  19.496 -0.1415  0.1873 -0.0329
44582DOD     C177565   3.464  15.839   8.387 -0.2417 -0.1499  0.0667
44582DOD     C277566   3.935  15.910   8.378  0.0262 -0.3059 -0.1809
44582DOD     C377567   4.337  15.719   8.454  0.3372  0.3606 -0.1125
44583DOD     C177568   6.573  12.226   5.752 -0.2292  0.1059 -0.1273
44583DOD     C277569   6.490  11.870   5.391  0.0587  0.0731 -0.0490
44583DOD     C377570   6.719  11.558   5.106  0.1277  0.2283  0.0529
44584DOD     C177571  20.590  12.492   2.198  0.0298 -0.0912 -0.1003
44584DOD     C277572  20.995  12.323   2.102 -0.2598  0.2871  0.1334
44584DOD     C377573  21.461  12.147   1.993  0.2975  0.2583  0.1961
44585DOD     C177574   8.725  16.347  21.375 -0.3248 -0.0982 -0.0511
44585DOD     C277575   8.448  16.030  21.483 -0.2334 -0.2016 -0.1396
44585DOD     C377576   8.139  15.855  21.213  0.1940 -0.0625  0.0767
44586DOD     C177577  15.477  13.639  18.636  0.0987  0.1356  0.0919
44586DOD     C277578  15.584  13.176  18.537 -0.0426  0.2933  0.2146
44586DOD     C377579  15.583  12.753  18.693 -0.0431 -0.1702  0.4018
44587DOD     C177580   0.877  27.157   0.243  0.0629  0.0204  0.0890
44587DOD     C277581   0.994  27.102   0.703  0.0875  0.0957 -0.1032
44587DOD     C377582   0.832  26.870   1.092  0.0967 -0.4860  0.1164
44588DOD     C177583  15.151  12.915   1.510 -0.2289 -0.1701  0.0048
44588DOD     C277584  15.421  13.165   1.247 -0.0562 -0.1718 -0.3095
44588DOD     C377585  15.824  13.151   1.074 -0.0455  0.1674  0.1281
44589DOD     C177586   7.173   7.888  22.509 -0.0032  0.0530  0.4739
44589DOD     C277587   7.574   8.172  22.467 -0.0668  0.3782  0.0050
44589DOD     C377588   7.792   8.568  22.678 -0.0248  0.0940 -0.0690
44590DOD     C177589   4.275   1.173  29.090 -0.2396 -0.3529 -0.0052
44590DOD     C277590   4.463   1.378  29.455 -0.0812 -0.0312 -0.0761
44590DOD     C377591   4.539   1.686  29.795  0.2547 -0.0838 -0.1317
44591DOD     C177592   6.257   8.378  26.136  0.0568 -0.2709  0.0510
44591DOD     C277593   6.100   7.971  26.253 -0.4578  0.1733  0.0230
44591DOD     C377594   6.141   7.490  26.329  0.3036  0.0488  0.1221
44592DOD     C177595   2.381   7.786  14.680  0.1484  0.0217 -0.2288
44592DOD     C277596   2.206   8.231  14.512  0.0954  0.0874  0.1375
44592DOD     C377597   1.852   8.509  14.515  0.2735  0.0779  0.1042
44593DOD     C177598  10.021  15.850  27.217  0.1117  0.2185  0.1625
44593DOD     C277599  10.468  15.881  27.169 -0.1433  0.1010 -0.0183
44593DOD     C377600  10.761  16.249  26.954  0.1498 -0.1044  0.2128
44594DOD     C177601   6.703  21.150  20.902 -0.0459 -0.1332 -0.0186
44594DOD     C277602   6.667  21.192  21.347  0.2718  0.1383 -0.0532
44594DOD     C377603   6.878  20.919  21.697  0.1135 -0.4607  0.1488
44595DOD     C177604   2.992   7.452  20.598 -0.2281 -0.0838 -0.2445
44595DOD     C277605   3.404   7.539  20.413  0.1513  0.1029  0.0434
44595DOD     C377606   3.648   7.335  20.043  0.1548  0.3492  0.1589
44596DOD     C177607   2.351  26.408  21.577  0.0332 -0.1824  0.1415
44596DOD     C277608   2.453  26.160  21.227 -0.2819  0.0518 -0.1379
44596DOD     C377609   2.391  26.110  20.838 -0.0734  0.1578 -0.1480
44597DOD     C177610   9.920   4.140  23.765 -0.2253  0.2159  0.0726
44597DOD     C277611   9.708   3.857  23.418  0.1399 -0.1441 -0.1428
44597DOD     C377612   9.454   3.522  23.390 -0.3869  0.1951  0.5170
44598DOD     C177613  20.928  27.494  20.079 -0.0228 -0.1092  0.2567
44598DOD     C277614  20.874  27.073  19.895  0.2285  0.3258 -0.0691
44598DOD     C377615  20.842  26.627  19.723  0.0564 -0.3129 -0.0022
44599DOD     C177616  19.362  28.317  19.798 -0.0976 -0.4012  0.2290
44599DOD     C277617  19.529  28.763  19.829 -0.0509 -0.3080 -0.1355
44599DOD     C377618  19.639  29.165  19.619  0.3880  0.3462  0.2191
44600DOD     C177619  27.568   7.138  28.134  0.2700 -0.1356  0.1531
44600DOD     C277620  28.018   7.304  28.176  0.0253 -0.3628 -0.0555
44600DOD     C377621  28.347   7.639  28.249 -0.1184  0.0058  0.1060
44601DOD     C177622   7.056  16.789  25.908 -0.3659 -0.3927  0.3023
44601DOD     C277623   6.639  16.598  25.955 -0.1268 -0.0346  0.0927
44601DOD     C377624   6.218  16.782  26.092 -0.3552 -0.1438 -0.3268
44602DOD     C177625  11.224   0.552   1.746 -0.1676 -0.4630 -0.1286
44602DOD     C277626  10.881   0.815   1.879 -0.0347 -0.0292  0.2529
44602DOD     C377627  10.463   0.857   2.017  0.0500 -0.1882 -0.3006
44603DOD     C177628  19.121  15.148  24.912  0.0208 -0.0576 -0.2379
44603DOD     C277629  19.029  15.475  24.617  0.0317 -0.1925  0.1584
44603DOD     C377630  19.308  15.632  24.234 -0.1076  0.0504  0.1235
44604DOD     C177631  30.032  21.072   4.750 -0.2705 -0.0698 -0.0895
44604DOD     C277632  29.639  20.930   4.798 -0.0674 -0.1823  0.1237
44604DOD     C377633  29.202  21.002   4.724 -0.2349  0.0877  0.1502
44605DOD     C177634  19.567   2.363   7.556 -0.1093 -0.0219  0.0936
44605DOD     C277635  19.848   2.614   7.763 -0.1738 -0.0498 -0.3647
44605DOD     C377636  19.888   3.025   7.938  0.1552  0.0312 -0.0444
44606DOD     C177637  24.435  19.482  16.071  0.0798  0.0567  0.1617
44606DOD     C277638  24.451  19.057  15.874 -0.1283  0.2843 -0.2892
44606DOD     C377639  24.437  18.755  15.553  0.0800  0.0546 -0.0603
44607DOD     C177640   3.405  27.962  22.811  0.3491  0.1076 -0.0660
44607DOD     C277641   3.362  27.885  23.287  0.0284  0.0845  0.1346
44607DOD     C377642   3.474  27.516  23.476  0.1846  0.1721 -0.3911
44608DOD     C177643  27.965   6.556  22.765 -0.2126 -0.0880  0.0058
44608DOD     C277644  27.593   6.237  22.776 -0.0127 -0.3009  0.1848
44608DOD     C377645  27.169   6.327  22.867  0.1072  0.0485 -0.1894
44609DOD     C177646  19.168  13.728  13.419 -0.1550 -0.6011 -0.1002
44609DOD     C277647  18.860  13.327  13.413  0.2384  0.2016 -0.2236
44609DOD     C377648  18.779  12.849  13.423  0.0175 -0.1783  0.2910
44610DOD     C177649  13.270   4.601  16.060 -0.3194  0.2556 -0.0029
44610DOD     C277650  13.010   4.909  16.252  0.1503  0.0321  0.0138
44610DOD     C377651  12.978   5.172  16.629  0.2641 -0.0626 -0.1208
44611DOD     C177652   9.517  28.580   5.581 -0.0240 -0.3659  0.0951
44611DOD     C277653   9.128  28.342   5.704 -0.0398  0.4604 -0.2847
44611DOD     C377654   8.758  28.079   5.869  0.0399  0.0025 -0.0409
44612DOD     C177655   5.771  12.904   9.696 -0.1479  0.0919  0.2309
44612DOD     C277656   5.452  12.516   9.623  0.0623 -0.3239  0.0174
44612DOD     C377657   5.130  12.321   9.350  0.1377 -0.4758  0.1880
44613DOD     C177658   0.867  19.105  11.400 -0.3097 -0.1542  0.3405
44613DOD     C277659   0.654  18.648  11.481  0.0729  0.1024  0.3596
44613DOD     C377660   0.624  18.179  11.394 -0.0823 -0.1235 -0.0339
44614DOD     C177661  17.119  19.969   5.427 -0.1834  0.0208 -0.0800
44614DOD     C277662  16.725  20.055   5.642 -0.0260  0.2997  0.0489
44614DOD     C377663  16.530  20.163   6.059 -0.0399  0.0037 -0.0950
44615DOD     C177664  19.129  11.800  22.514 -0.3505  0.1110  0.1735
44615DOD     C277665  19.163  11.433  22.214 -0.1330 -0.1312 -0.4776
44615DOD     C377666  19.230  11.038  22.008 -0.1352 -0.2687 -0.0730
44616DOD     C177667  14.936   7.766   3.319 -0.0702  0.0247 -0.2097
44616DOD     C277668  15.004   8.171   3.596  0.1108  0.0660  0.0752
44616DOD     C377669  15.246   8.473   3.866  0.0417  0.0639 -0.1062
44617DOD     C177670   5.054  29.306  10.152 -0.0180 -0.0753  0.0181
44617DOD     C277671   4.834  28.987   9.899  0.1420 -0.0322  0.2324
44617DOD     C377672   4.685  28.610   9.675  0.0621  0.0640 -0.1396
44618DOD     C177673  25.217  12.914  26.441  0.2302  0.3782 -0.4927
44618DOD     C277674  25.171  12.938  26.850  0.0580  0.2494 -0.2698
44618DOD     C377675  25.371  13.362  27.041  0.1586  0.0550  0.1214
44619DOD     C177676   1.023  16.594  27.852  0.0237  0.0406  0.0174
44619DOD     C277677   0.668  16.466  27.735  0.1552 -0.0068  0.2006
44619DOD     C377678   0.488  16.222  27.378 -0.0969 -0.1935 -0.1593
44620DOD     C177679  18.794   4.603  22.316  0.3625 -0.1826  0.3838
44620DOD     C277680  19.037   5.017  22.443  0.0291 -0.1572  0.0212
44620DOD     C377681  19.342   5.372  22.368  0.3850 -0.1256 -0.4028
44621DOD     C177682  19.540  23.363  11.255 -0.0315  0.1037  0.1954
44621DOD     C277683  19.810  23.674  11.014  0.1446 -0.0190  0.0322
44621DOD     C377684  20.223  23.760  10.821 -0.2666 -0.1584  0.0175
44622DOD     C177685  18.084  28.638  20.057 -0.2277 -0.1430  0.1074
44622DOD     C277686  18.496  28.558  19.792 -0.1115  0.0826 -0.2164
44622DOD     C377687  18.766  28.451  19.412 -0.0494 -0.1018 -0.3255
44623DOD     C177688  21.640   2.760  21.860 -0.2301 -0.0461  0.3422
44623DOD     C277689  21.646   3.182  21.760  0.0673 -0.1257  0.2417
44623DOD     C377690  21.665   3.512  21.390 -0.1262 -0.1965  0.1418
44624DOD     C177691   5.421  16.434  19.507 -0.0686  0.0234 -0.0143
44624DOD     C277692   5.578  16.160  19.174  0.1876  0.1274  0.2024
44624DOD     C377693   5.674  15.823  18.821 -0.0563  0.3365 -0.2756
44625DOD     C177694   2.769  20.458  20.791  0.0290 -0.3015 -0.0377
44625DOD     C277695   2.354  20.695  20.772  0.6409 -0.2318  0.0697
44625DOD     C377696   1.900  20.812  20.909 -0.2685  0.2043  0.0256
44626DOD     C177697  29.018   7.595  17.228  0.3244  0.3391  0.0027
44626DOD     C277698  28.593   7.710  17.237 -0.0025  0.0465  0.1717
44626DOD     C377699  28.306   8.077  17.152 -0.2353 -0.0975 -0.1567
44627DOD     C177700  16.833  29.214   7.383 -0.2175 -0.1690 -0.0269
44627DOD     C277701  16.520  28.938   7.165 -0.1589  0.0703 -0.1350
44627DOD     C377702  16.274  28.599   6.972 -0.1891 -0.0507 -0.0612
44628DOD     C177703  10.677  22.101   2.271  0.1660  0.0243 -0.1402
44628DOD     C277704  10.605  21.660   2.068 -0.0046  0.0009 -0.2107
44628DOD     C377705  10.611  21.384   1.680  0.1323 -0.0857 -0.2481
44629DOD     C177706   6.761   5.913   9.619  0.0015 -0.1662  0.1311
44629DOD     C277707   6.896   5.739  10.022 -0.3295  0.0336 -0.1077
44629DOD     C377708   7.110   5.823  10.452  0.1915  0.3543  0.3126
44630DOD     C177709  10.076   3.080  29.525  0.2181 -0.2943 -0.1748
44630DOD     C277710  10.280   2.676  29.510  0.0031 -0.0528  0.1944
44630DOD     C377711  10.018   2.252  29.398 -0.0341 -0.0553 -0.0979
44631DOD     C177712   5.950  16.763  21.209 -0.0268 -0.3914  0.2302
44631DOD     C277713   5.569  16.705  20.928 -0.0629 -0.2367  0.1191
44631DOD     C377714   5.247  16.989  20.867 -0.0648 -0.2598  0.1705
44632DOD     C177715   4.683  14.235   6.931  0.0654  0.1978  0.0168
44632DOD     C277716   4.746  14.343   6.497 -0.0447 -0.0236 -0.0631
44632DOD     C377717   4.786  14.742   6.354  0.0134  0.0497 -0.0099
44633DOD     C177718  12.314  26.636   1.139 -0.0275  0.1052  0.2052
44633DOD     C277719  12.130  26.994   1.389 -0.0760  0.1778 -0.3192
44633DOD     C377720  12.186  27.496   1.389  0.0865 -0.0753 -0.2436
44634DOD     C177721  29.199   9.968  23.260  0.1074 -0.0407  0.1595
44634DOD     C277722  29.047   9.509  23.288 -0.1067 -0.0353  0.1768
44634DOD     C377723  29.348   9.133  23.447 -0.0423 -0.4914 -0.0104
44635DOD     C177724   4.916   1.241   2.697 -0.1643 -0.1402  0.0012
44635DOD     C277725   5.236   0.969   2.724 -0.1506 -0.1719 -0.0307
44635DOD     C377726   5.417   0.600   2.771  0.1565 -0.2370 -0.2198
44636DOD     C177727  29.133   1.320  19.280  0.0336 -0.1099 -0.2924
44636DOD     C277728  28.695   1.144  19.345 -0.0665 -0.3168  0.0655
44636DOD     C377729  28.296   0.855  19.384 -0.0230 -0.0824 -0.2724
44637DOD     C177730  12.892   7.522   8.917  0.3888  0.1037  0.1240
44637DOD     C277731  12.662   7.778   8.593  0.2781 -0.1481  0.1948
44637DOD     C377732  12.596   7.932   8.184 -0.1158 -0.4242 -0.0464
44638DOD     C177733  17.556  11.612  22.439 -0.1423 -0.0432  0.2077
44638DOD     C277734  17.819  11.241  22.674 -0.0181  0.3346  0.2823
44638DOD     C377735  18.144  10.937  22.539  0.0816 -0.0805 -0.0415
44639DOD     C177736  18.291   7.377   6.439 -0.1945  0.2664 -0.2409
44639DOD     C277737  18.737   7.564   6.484  0.0240 -0.2928  0.0989
44639DOD     C377738  19.128   7.512   6.177  0.0251  0.5775  0.0507
44640DOD     C177739  20.331  25.526   5.844  0.0378 -0.0351 -0.0099
44640DOD     C277740  20.289  25.663   6.317 -0.0463  0.3575  0.2707
44640DOD     C377741  20.381  25.411   6.700  0.0787  0.1164 -0.0234
44641DOD     C177742  16.636  29.822  23.206 -0.3216  0.0163  0.0362
44641DOD     C277743  16.523  -0.070  23.111 -0.2560 -0.0932 -0.1124
44641DOD     C377744  16.500   0.445  22.995 -0.0909 -0.0989  0.1713
44642DOD     C177745  16.691  12.338   4.540  0.0966  0.3316 -0.1843
44642DOD     C277746  17.080  12.182   4.525 -0.3732 -0.0055 -0.1689
44642DOD     C377747  17.535  12.160   4.610  0.1653  0.1759 -0.1439
44643DOD     C177748  11.464  11.513   4.188  0.1028 -0.0069 -0.1144
44643DOD     C277749  11.140  11.415   4.577 -0.2351 -0.2352 -0.0314
44643DOD     C377750  11.232  11.123   4.918 -0.0603 -0.1248 -0.1051
44644DOD     C177751   5.948  13.087  10.593  0.1982 -0.0714 -0.1849
44644DOD     C277752   6.195  13.025  10.206 -0.2078 -0.0012 -0.0569
44644DOD     C377753   6.158  13.233   9.780  0.0724 -0.1972  0.0753
44645DOD     C177754  14.272  15.358   8.494 -0.0539 -0.2023  0.1376
44645DOD     C277755  13.784  15.267   8.519 -0.2692  0.1355  0.1293
44645DOD     C377756  13.380  15.029   8.430 -0.0019 -0.1829 -0.1083
44646DOD     C177757  16.802   7.489   1.312 -0.2944 -0.1386  0.0299
44646DOD     C277758  16.795   7.079   1.058 -0.3001 -0.1437  0.1638
44646DOD     C377759  16.757   6.636   1.290 -0.0260 -0.2092  0.0280
44647DOD     C177760  19.221  26.063  18.328 -0.0249 -0.0803  0.1257
44647DOD     C277761  19.242  26.425  17.995  0.3397 -0.1279  0.1924
44647DOD     C377762  18.987  26.846  17.947 -0.0046 -0.0113  0.1144
44648DOD     C177763  17.930  19.333   7.961 -0.3213  0.0233  0.0266
44648DOD     C277764  17.982  19.716   7.745 -0.2577 -0.2490 -0.2562
44648DOD     C377765  17.867  19.919   7.385 -0.2489 -0.0085  0.1239
44649DOD     C177766  25.484  11.211  28.208 -0.2997  0.3049 -0.0744
44649DOD     C277767  25.573  11.577  28.551 -0.1008 -0.1510  0.1663
44649DOD     C377768  25.622  12.044  28.753  0.3893  0.1154  0.1189
44650DOD     C177769  22.933  23.706   1.024  0.0527 -0.0596  0.2570
44650DOD     C277770  22.488  23.835   0.998 -0.1015 -0.1689  0.1007
44650DOD     C377771  22.086  23.714   1.037  0.0621  0.0697  0.2600
44651DOD     C177772  22.360  11.474  16.218  0.0252  0.1077 -0.1750
44651DOD     C277773  22.555  11.782  16.505 -0.2039 -0.0286 -0.2359
44651DOD     C377774  22.727  12.087  16.802  0.0482 -0.0145 -0.0077
44652DOD     C177775  19.814  27.130   4.402 -0.0362  0.2371  0.0904
44652DOD     C277776  19.918  27.431   4.692  0.2534  0.1692  0.1330
44652DOD     C377777  20.036  27.814   4.976 -0.1384 -0.3337  0.1858
44653DOD     C177778  27.168  13.109   8.599 -0.1547 -0.3740  0.2011
44653DOD     C277779  27.160  13.122   8.100 -0.1319  0.0772  0.0892
44653DOD     C377780  27.386  12.946   7.720  0.0931 -0.1689  0.1306
44654DOD     C177781  18.900  10.611  19.290  0.4003  0.1690  0.2109
44654DOD     C277782  18.900  10.168  19.454 -0.3044 -0.1191  0.0547
44654DOD     C377783  19.013   9.761  19.677  0.1837 -0.2829 -0.1364
44655DOD     C177784  12.461  21.924   4.307  0.3609 -0.2608 -0.1583
44655DOD     C277785  12.024  21.939   4.323  0.1815 -0.2137  0.0143
44655DOD     C377786  11.563  21.824   4.305  0.1118  0.3004  0.1792
44656DOD     C177787  21.574  16.920  17.918  0.1360  0.0477  0.0792
44656DOD     C277788  21.174  17.099  17.686  0.0543  0.0985 -0.1752
44656DOD     C377789  20.953  17.223  17.270  0.2452 -0.0351 -0.0309
44657DOD     C177790  27.019   2.342  11.466 -0.1223 -0.2318  0.0996
44657DOD     C277791  26.878   2.434  11.842 -0.2509  0.1079  0.0031
44657DOD     C377792  26.895   2.365  12.304 -0.0178 -0.0672  0.0087
44658DOD     C177793  18.100   5.023  16.720 -0.1685  0.1703 -0.0371
44658DOD     C277794  18.030   5.114  17.168 -0.1951 -0.1764 -0.2152
44658DOD     C377795  18.282   5.331  17.496 -0.1956  0.1221  0.2120
44659DOD     C177796   7.805   5.575  29.559 -0.0450 -0.1139  0.2924
44659DOD     C277797   7.732   6.019  29.351  0.1359  0.0215 -0.2955
44659DOD     C377798   7.950   6.360  29.100 -0.3521  0.1576 -0.1264
44660DOD     C177799  25.929  18.174  13.547  0.0947 -0.2579 -0.0613
44660DOD     C277800  25.551  18.142  13.870 -0.1711 -0.1443 -0.0898
44660DOD     C377801  25.402  18.035  14.310  0.0261  0.0559  0.0395
44661DOD     C177802  22.422  25.668  25.405  0.1442 -0.3419 -0.0665
44661DOD     C277803  22.122  25.304  25.326  0.2890 -0.1181 -0.2859
44661DOD     C377804  21.763  25.397  25.024  0.1761 -0.1319 -0.1526
44662DOD     C177805  17.017  19.904   6.059 -0.0882  0.1453  0.0712
44662DOD     C277806  17.103  20.375   5.985  0.1337 -0.1190  0.0675
44662DOD     C377807  17.492  20.572   5.793  0.2182  0.0421  0.0159
44663DOD     C177808  10.685   7.860  29.849 -0.1307  0.1697 -0.1962
44663DOD     C277809  10.877   7.710  29.424  0.1167 -0.0487 -0.4832
44663DOD     C377810  10.812   7.410  29.038  0.0522  0.1602  0.0567
44664DOD     C177811   7.762  18.941  10.657 -0.0165 -0.2924  0.0134
44664DOD     C277812   7.935  19.134  11.052  0.0675  0.1042 -0.1398
44664DOD     C377813   8.018  19.114  11.452 -0.1643  0.3585 -0.0339
44665DOD     C177814   4.011  13.385   4.055  0.0090 -0.0028 -0.2578
44665DOD     C277815   4.142  13.046   4.333 -0.2188  0.0501 -0.1311
44665DOD     C377816   4.068  12.588   4.309  0.1057  0.1170 -0.0407
44666DOD     C177817  13.428   4.022  18.903  0.0378  0.1174 -0.2111
44666DOD     C277818  13.750   3.892  18.598 -0.1180  0.2969 -0.0721
44666DOD     C377819  14.019   3.465  18.692  0.1542 -0.2747 -0.2065
44667DOD     C177820  27.062  24.091  17.402  0.1278 -0.1727  0.2289
44667DOD     C277821  26.780  24.081  17.773 -0.2311  0.1398 -0.3583
44667DOD     C377822  26.614  24.290  18.195  0.2920 -0.0121  0.2440
44668DOD     C177823  15.092  25.229  25.585  0.2997 -0.1459 -0.1467
44668DOD     C277824  15.064  25.309  26.052 -0.0378  0.1728  0.0480
44668DOD     C377825  15.131  25.763  26.199  0.1675 -0.1651 -0.0657
44669DOD     C177826   8.550  21.536   0.548 -0.0713 -0.3278 -0.2463
44669DOD     C277827   8.235  21.475   0.885 -0.1199  0.4690  0.2078
44669DOD     C377828   8.046  21.261   1.202 -0.1406  0.0951  0.2298
44670DOD     C177829  11.700  12.148   7.090  0.0710 -0.0779  0.2275
44670DOD     C277830  11.958  12.096   7.424 -0.0569 -0.2726 -0.1952
44670DOD     C377831  11.953  11.957   7.865 -0.0766  0.0621 -0.0842
44671DOD     C177832  27.974  10.734  22.046  0.4243  0.0107  0.2350
44671DOD     C277833  27.597  10.693  22.314 -0.0864  0.3838 -0.1911
44671DOD     C377834  27.358  11.026  22.596 -0.3155 -0.2171 -0.1690
44672DOD     C177835  11.264  26.839  27.477 -0.0819  0.3217 -0.0527
44672DOD     C277836  11.571  27.178  27.478  0.2350 -0.0847  0.1731
44672DOD     C377837  11.609  27.678  27.448 -0.0126 -0.1303  0.0233
44673DOD     C177838   2.880  24.927  12.338 -0.1131 -0.1367  0.2639
44673DOD     C277839   3.056  25.181  12.744 -0.1220  0.4063  0.0832
44673DOD     C377840   3.288  25.185  13.140  0.1720 -0.1533  0.3713
44674DOD     C177841   7.464   4.792   5.098 -0.2230  0.1428  0.3798
44674DOD     C277842   7.049   5.059   5.082 -0.1735 -0.0773  0.0803
44674DOD     C377843   6.629   4.965   4.898  0.2914  0.0148  0.1030
44675DOD     C177844  14.582  26.222  22.612  0.0204  0.3251 -0.0951
44675DOD     C277845  14.656  25.742  22.406  0.1706 -0.0573  0.0640
44675DOD     C377846  14.673  25.320  22.260 -0.0374 -0.1364 -0.4162
44676DOD     C177847  21.694   2.355  22.115  0.1765 -0.2070  0.0709
44676DOD     C277848  22.066   2.687  22.149 -0.0355  0.0596  0.2345
44676DOD     C377849  22.526   2.869  22.113  0.0235  0.0408 -0.0737
44677DOD     C177850  12.480  25.235  25.553 -0.5125  0.0051 -0.1182
44677DOD     C277851  12.235  25.416  25.230  0.1615  0.1461  0.2029
44677DOD     C377852  11.915  25.290  24.979  0.1962  0.0922 -0.1144
44678DOD     C177853   9.850   4.945  29.243 -0.3189 -0.1066  0.3277
44678DOD     C277854   9.917   4.792  29.668 -0.3602 -0.1148 -0.1844
44678DOD     C377855   9.808   4.648  30.025 -0.2489 -0.2369  0.0244
44679DOD     C177856   0.987  30.131  13.832 -0.0586  0.3484  0.0241
44679DOD     C277857   1.057   0.163  13.482 -0.0376 -0.0155 -0.0481
44679DOD     C377858   1.100   0.335  13.056 -0.0534  0.0164 -0.1541
44680DOD     C177859  21.061   3.997  13.999  0.1776 -0.1999 -0.2193
44680DOD     C277860  21.258   4.384  14.133 -0.1505 -0.0756  0.2459
44680DOD     C377861  21.691   4.620  14.231 -0.0694  0.1985  0.0883
44681DOD     C177862  24.926   5.974   2.762 -0.3349 -0.3423 -0.1886
44681DOD     C277863  24.615   6.078   3.111 -0.1385 -0.2326 -0.1546
44681DOD     C377864  24.385   5.801   3.307 -0.2739  0.1348 -0.0695
44682DOD     C177865   8.649  16.277  17.651  0.2307 -0.2217  0.2783
44682DOD     C277866   8.263  16.473  17.560 -0.1449  0.1144 -0.0786
44682DOD     C377867   8.037  16.893  17.758 -0.0340  0.0902 -0.1576
44683DOD     C177868  24.017  17.905  25.100  0.1303 -0.1120 -0.3671
44683DOD     C277869  24.295  17.641  24.848  0.2208  0.1106  0.0095
44683DOD     C377870  24.487  17.453  24.512 -0.3478  0.2002 -0.2135
44684DOD     C177871  21.450   8.315  15.240  0.1071  0.3402 -0.1111
44684DOD     C277872  21.595   8.604  14.992  0.1592 -0.0691 -0.1240
44684DOD     C377873  21.937   8.684  14.639  0.0831 -0.1634 -0.0374
44685DOD     C177874  12.186  16.931  26.634  0.3149 -0.1944  0.0157
44685DOD     C277875  11.963  17.278  26.929 -0.1002 -0.0497  0.0303
44685DOD     C377876  12.204  17.705  27.088 -0.0036 -0.2820 -0.1354
44686DOD     C177877   3.006  14.274  16.621  0.3154 -0.0643 -0.2057
44686DOD     C277878   3.474  14.172  16.543 -0.2307  0.1585  0.0594
44686DOD     C377879   3.889  14.207  16.316  0.1250 -0.0921 -0.1738
44687DOD     C177880  13.254  26.163  23.770  0.0858 -0.0906  0.0856
44687DOD     C277881  13.458  25.787  23.716 -0.1626  0.1335 -0.3307
44687DOD     C377882  13.745  25.477  23.503 -0.0123 -0.1392  0.0398
44688DOD     C177883   2.282   7.155   0.307  0.2230 -0.1656  0.1334
44688DOD     C277884   2.458   6.826   0.613 -0.0012  0.0050 -0.1754
44688DOD     C377885   2.662   6.436   0.696 -0.1802  0.0084  0.0575
44689DOD     C177886   6.395  29.191   5.509 -0.1669 -0.3344 -0.2089
44689DOD     C277887   6.754  29.117   5.193  0.2028 -0.0014 -0.0808
44689DOD     C377888   7.108  29.184   4.951  0.2888  0.1452  0.1784
44690DOD     C177889  17.360  24.092  27.700  0.1223  0.5308 -0.0463
44690DOD     C277890  17.307  24.387  28.046  0.3847  0.1916 -0.1223
44690DOD     C377891  17.035  24.708  28.372 -0.0514 -0.0884  0.0177
44691DOD     C177892   5.859  18.164  25.252 -0.1031 -0.1669 -0.0744
44691DOD     C277893   5.637  18.030  25.654  0.1774  0.0370  0.0317
44691DOD     C377894   5.577  18.225  26.101  0.0528 -0.2686 -0.1511
44692DOD     C177895  14.851  17.007  20.705 -0.1154  0.1126 -0.2809
44692DOD     C277896  14.468  17.227  20.596 -0.1203  0.3362  0.0398
44692DOD     C377897  14.128  17.319  20.339 -0.0691  0.3850  0.0213
44693DOD     C177898   7.382  14.366  14.711  0.0334 -0.0523 -0.3413
44693DOD     C277899   7.641  13.950  14.794  0.1838  0.0106 -0.0104
44693DOD     C377900   7.705  13.635  15.224 -0.1065 -0.1132 -0.2150
44694DOD     C177901   8.391  13.859  25.743  0.0945 -0.0283  0.2514
44694DOD     C277902   8.139  13.915  26.156  0.1663  0.2724 -0.3317
44694DOD     C377903   7.799  14.269  26.191 -0.0171 -0.2352 -0.0927
44695DOD     C177904  29.766  23.835  25.112 -0.0358  0.2848  0.0501
44695DOD     C277905  29.509  24.203  25.292  0.0061  0.1526  0.0011
44695DOD     C377906  29.366  24.603  25.493 -0.0832  0.0232  0.1603
44696DOD     C177907  23.248  28.699  20.949 -0.1144 -0.1396  0.1499
44696DOD     C277908  23.325  28.328  21.218 -0.0047  0.1697 -0.0754
44696DOD     C377909  23.699  28.095  21.235 -0.0218 -0.0139 -0.0792
44697DOD     C177910  25.579  12.180   9.044 -0.0459  0.0098  0.2773
44697DOD     C277911  25.745  11.766   9.046  0.1244 -0.1118  0.2020
44697DOD     C377912  25.501  11.469   9.312  0.2599 -0.2516  0.0267
44698DOD     C177913   2.655  14.908  26.530 -0.2514  0.1640 -0.1898
44698DOD     C277914   2.362  14.996  26.829 -0.1826  0.3149 -0.1756
44698DOD     C377915   2.453  15.253  27.191  0.1518  0.2690  0.1906
44699DOD     C177916  29.347  20.774  15.815 -0.0515  0.0303 -0.1662
44699DOD     C277917  29.794  20.584  15.756  0.0760  0.0100 -0.0154
44699DOD     C377918  30.064  20.687  15.415  0.1795  0.1951  0.1978
44700DOD     C177919   0.325  14.530  20.611  0.0965 -0.1264  0.0641
44700DOD     C277920   0.386  14.664  21.060 -0.0501  0.2185  0.2617
44700DOD     C377921   0.356  14.798  21.542  0.2487 -0.1638  0.0599
44701DOD     C177922   7.131  16.991  21.427  0.0066 -0.1853  0.1058
44701DOD     C277923   6.658  17.119  21.300 -0.0290  0.1548 -0.1185
44701DOD     C377924   6.179  17.235  21.305 -0.0480  0.1887  0.2898
44702DOD     C177925  14.520   0.538   8.323 -0.1199  0.2223  0.2586
44702DOD     C277926  14.058   0.390   8.206 -0.2924  0.1756  0.1334
44702DOD     C377927  13.763   0.048   8.076 -0.2300 -0.1623 -0.0503
44703DOD     C177928   1.692  12.066  11.138 -0.2868  0.0365 -0.0865
44703DOD     C277929   1.307  12.208  11.268  0.2462 -0.0122 -0.0243
44703DOD     C377930   1.159  12.208  11.656 -0.0427  0.1749 -0.1585
44704DOD     C177931  13.360  26.651   7.690  0.1500 -0.0928  0.0335
44704DOD     C277932  13.520  27.028   7.848 -0.2165 -0.2643 -0.1477
44704DOD     C377933  13.701  27.432   8.079 -0.2789 -0.0983 -0.1914
44705DOD     C177934   1.463  20.415   1.363  0.1174 -0.1541  0.0389
44705DOD     C277935   1.422  20.566   0.893  0.2646 -0.2326  0.0567
44705DOD     C377936   1.198  20.311   0.589 -0.1878  0.0079  0.2433
44706DOD     C177937   8.969  25.026  28.555  0.1285 -0.2886  0.1215
44706DOD     C277938   8.538  24.896  28.732  0.0553  0.0424  0.0929
44706DOD     C377939   8.127  25.091  28.843  0.2628 -0.1494  0.3007
44707DOD     C177940  19.346  21.347   1.821  0.0029  0.2289 -0.0193
44707DOD     C277941  19.709  21.357   2.056 -0.4483 -0.0300 -0.0007
44707DOD     C377942  20.002  21.714   2.302  0.1500 -0.3055  0.0948
44708DOD     C177943   4.980  17.072  26.456 -0.1625  0.2369  0.0044
44708DOD     C277944   4.969  17.416  26.778  0.1109  0.0784  0.0905
44708DOD     C377945   5.037  17.870  26.901  0.1034  0.1529 -0.1033
44709DOD     C177946  17.058  10.337  25.103  0.2630 -0.0235  0.1709
44709DOD     C277947  16.967  10.020  24.718  0.0908 -0.4949 -0.2710
44709DOD     C377948  17.036  10.207  24.306  0.1752  0.0640 -0.1983
44710DOD     C177949   0.177   2.670  10.979 -0.0990  0.1245 -0.2112
44710DOD     C277950   0.522   2.968  10.845 -0.1826 -0.1380  0.4329
44710DOD     C377951   0.670   3.360  10.618  0.0904 -0.0728  0.0948
44711DOD     C177952  22.059   5.878  21.411  0.2575  0.0274 -0.1114
44711DOD     C277953  21.942   6.342  21.282 -0.2285 -0.1551  0.3946
44711DOD     C377954  21.922   6.689  20.983 -0.2534 -0.2070 -0.3407
44712DOD     C177955  10.563   3.078   5.729 -0.2390 -0.3437 -0.2099
44712DOD     C277956  10.651   2.982   6.203  0.2817 -0.0364  0.0285
44712DOD     C377957  10.927   2.897   6.507  0.1440  0.1498  0.0617
44713DOD     C177958  27.668  22.175  20.943 -0.1181 -0.1315 -0.2004
44713DOD     C277959  28.157  22.235  20.937  0.3520 -0.0361  0.1017
44713DOD     C377960  28.539  22.218  20.637  0.0704  0.1303  0.2507
44714DOD     C177961  20.787  18.327   3.355 -0.1508 -0.0284  0.1706
44714DOD     C277962  20.486  18.616   3.589  0.0698  0.1221  0.0163
44714DOD     C377963  20.184  18.707   3.957  0.1760 -0.0449  0.1142
44715DOD     C177964  16.753  28.716  23.928  0.2199 -0.0953  0.1911
44715DOD     C277965  16.491  28.338  24.074  0.2445  0.0224 -0.0991
44715DOD     C377966  16.089  28.214  23.920  0.3776 -0.1760  0.1585
44716DOD     C177967  22.283  28.750  25.350 -0.0030 -0.0836  0.0812
44716DOD     C277968  22.372  28.407  24.980  0.1119 -0.1201 -0.1989
44716DOD     C377969  22.136  28.006  24.857  0.0739  0.0623  0.0368
44717DOD     C177970  10.291   4.076  23.329  0.2483 -0.2832 -0.0303
44717DOD     C277971  10.122   3.993  22.901  0.0098 -0.0607 -0.3686
44717DOD     C377972   9.821   4.107  22.595  0.0493 -0.1186  0.1959
44718DOD     C177973  30.168  19.099  15.878 -0.1923 -0.0982  0.1833
44718DOD     C277974  29.713  19.028  15.797  0.0952 -0.1733 -0.0601
44718DOD     C377975  29.311  19.166  15.693  0.1799  0.0575 -0.0138
44719DOD     C177976   5.671  10.016  17.830 -0.2153  0.1359 -0.1429
44719DOD     C277977   5.304  10.155  17.543  0.2850 -0.2808 -0.0664
44719DOD     C377978   4.891  10.171  17.454  0.1005  0.0752  0.1007
44720DOD     C177979   5.294   2.808  14.850  0.3566  0.0577  0.1609
44720DOD     C277980   5.244   3.160  14.525 -0.1141  0.1708 -0.4386
44720DOD     C377981   5.280   3.578  14.464 -0.1482  0.1717 -0.4235
44721DOD     C177982  20.144  27.665  23.385 -0.0196 -0.1518  0.2022
44721DOD     C277983  20.141  27.788  22.929  0.1903 -0.0120  0.0095
44721DOD     C377984  19.912  27.864  22.498 -0.3113  0.0049  0.0418
44722DOD     C177985  30.295  15.700   5.785  0.1147 -0.0516  0.0713
44722DOD     C277986  29.872  15.532   5.608  0.2680  0.0164  0.0566
44722DOD     C377987  29.496  15.239   5.583  0.1455  0.1719 -0.2013
44723DOD     C177988  23.402   2.199  22.326  0.1848  0.0809 -0.3372
44723DOD     C277989  23.399   2.569  22.024  0.0197  0.3010 -0.1894
44723DOD     C377990  23.721   2.722  21.731 -0.2475  0.1861 -0.1857
44724DOD     C177991   6.435   8.405  16.622 -0.0658 -0.3547  0.0828
44724DOD     C277992   6.897   8.477  16.449  0.0549 -0.0236  0.0077
44724DOD     C377993   7.231   8.423  16.084 -0.0422 -0.0313 -0.3740
44725DOD     C177994  14.240   8.695   1.714  0.1461  0.0744  0.1456
44725DOD     C277995  14.167   8.891   1.267  0.1404 -0.1956  0.0003
44725DOD     C377996  14.390   9.209   1.042 -0.2322  0.0406 -0.0553
44726DOD     C177997  19.441  20.731   0.306 -0.2246 -0.0323 -0.1948
44726DOD     C277998  19.171  20.365   0.172 -0.0346 -0.0456 -0.2720
44726DOD     C377999  19.132  20.032  30.169  0.0250 -0.0756 -0.1776
44727DOD     C178000  14.928  25.991   6.258 -0.4103  0.0678 -0.0171
44727DOD     C278001  14.645  25.678   6.107 -0.0738 -0.1172 -0.2030
44727DOD     C378002  14.605  25.275   6.331  0.0216  0.2406 -0.0021
44728DOD     C178003  17.308  25.352  13.082  0.1075 -0.2268  0.1040
44728DOD     C278004  16.982  25.045  13.144 -0.1271 -0.0697  0.2004
44728DOD     C378005  16.898  24.589  13.343 -0.2651 -0.1918 -0.0932
44729DOD     C178006  21.909  20.579   2.322  0.2061  0.0023 -0.1072
44729DOD     C278007  22.238  20.462   2.000 -0.5070  0.0513 -0.2431
44729DOD     C378008  22.578  20.143   2.012  0.4001 -0.0363 -0.1337
44730DOD     C178009   0.060  26.451  17.225 -0.2360 -0.0642 -0.0425
44730DOD     C278010   0.462  26.248  17.066 -0.1530  0.1232 -0.4693
44730DOD     C378011   0.728  25.980  16.857  0.1090  0.4194  0.2313
44731DOD     C178012  11.060  12.407  15.763 -0.1218  0.0178  0.0128
44731DOD     C278013  11.274  12.102  16.066 -0.1130 -0.2400 -0.1374
44731DOD     C378014  11.635  11.791  16.018 -0.0493  0.0321  0.1613
44732DOD     C178015   9.584  10.436  29.775  0.1882  0.1712  0.3818
44732DOD     C278016   9.743  10.223  30.180  0.0047 -0.1360  0.3976
44732DOD     C378017  10.088   9.976  30.211  0.1677  0.1315  0.3180
44733DOD     C178018  12.746  22.031  23.863 -0.0695  0.0382 -0.2759
44733DOD     C278019  12.825  21.657  23.665  0.0724  0.2565 -0.0374
44733DOD     C378020  13.182  21.351  23.572 -0.0730  0.3380 -0.1793
44734DOD     C178021  21.070   8.654  27.933 -0.0491 -0.2900 -0.0145
44734DOD     C278022  21.286   8.848  27.562  0.2381 -0.2206  0.1748
44734DOD     C378023  21.663   9.139  27.618  0.0558 -0.1820 -0.0293
44735DOD     C178024  29.273  21.241   6.811 -0.2867 -0.1081 -0.0022
44735DOD     C278025  29.088  20.933   7.051  0.0576  0.3024 -0.0425
44735DOD     C378026  28.953  20.602   7.362  0.2998  0.0135  0.0979
44736DOD     C178027   9.015  18.371  21.189  0.2867 -0.0686  0.1225
44736DOD     C278028   9.478  18.399  21.212  0.2216  0.0186  0.1718
44736DOD     C378029   9.894  18.374  21.443 -0.0059  0.1620  0.0807
44737DOD     C178030   5.610  24.592  28.108  0.1920 -0.3937 -0.0185
44737DOD     C278031   5.657  25.039  27.994  0.0177  0.1985 -0.0007
44737DOD     C378032   5.861  25.369  27.736  0.2043  0.1003 -0.2815
44738DOD     C178033  30.160  11.291  15.133 -0.1487  0.0231  0.4160
44738DOD     C278034   0.120  10.935  15.084  0.1477 -0.1833 -0.0882
44738DOD     C378035   0.259  10.607  14.746 -0.0015 -0.1815 -0.1454
44739DOD     C178036   9.988  17.149  20.032  0.3313 -0.2470 -0.0791
44739DOD     C278037   9.582  16.872  20.200 -0.1831 -0.0481 -0.1260
44739DOD     C378038   9.362  16.454  20.133  0.3047 -0.2786  0.1576
44740DOD     C178039  29.053   5.508  12.560  0.0417  0.0994  0.0716
44740DOD     C278040  29.220   5.731  12.933 -0.1159  0.3365 -0.0438
44740DOD     C378041  29.635   5.918  13.067  0.0822  0.3270 -0.2099
44741DOD     C178042  17.538  28.139  28.501 -0.1623 -0.2736  0.0440
44741DOD     C278043  17.113  28.221  28.635  0.0404  0.2868  0.1804
44741DOD     C378044  16.722  28.088  28.484 -0.1908  0.0177  0.0488
44742DOD     C178045  14.900  20.690  13.245 -0.1865  0.0102  0.1278
44742DOD     C278046  14.996  20.475  12.855 -0.0379 -0.3799 -0.0755
44742DOD     C378047  14.617  20.158  12.680  0.0241 -0.3494  0.1304
44743DOD     C178048   7.705  25.640  27.313  0.0358  0.0162  0.2144
44743DOD     C278049   7.580  25.564  27.699  0.2417  0.2957 -0.1355
44743DOD     C378050   7.538  25.061  27.843  0.0618 -0.1928 -0.5111
44744DOD     C178051  27.906  28.066  25.777  0.1682 -0.3140  0.1180
44744DOD     C278052  27.717  28.268  25.418 -0.0739 -0.1168 -0.1945
44744DOD     C378053  27.845  28.332  24.992  0.0460 -0.0700  0.0135
44745DOD     C178054  28.102  27.608   7.097  0.0537  0.2018 -0.2095
44745DOD     C278055  28.260  27.527   7.497  0.1643  0.0672  0.0954
44745DOD     C378056  28.443  27.524   7.947 -0.5337  0.2182  0.0648
44746DOD     C178057  25.248  16.761  24.086  0.0637  0.1980  0.2219
44746DOD     C278058  25.129  17.112  23.821 -0.0619  0.3285  0.2878
44746DOD     C378059  25.289  17.437  23.522  0.0679  0.1846  0.1241
44747DOD     C178060  28.740  27.787  14.285 -0.3089  0.1713 -0.1607
44747DOD     C278061  28.332  27.948  14.160  0.0327 -0.1564  0.2851
44747DOD     C378062  28.057  28.106  13.830  0.0425  0.1677  0.0468
44748DOD     C178063  13.940  10.167  13.609 -0.0986  0.1640 -0.0226
44748DOD     C278064  13.753   9.716  13.553 -0.0194  0.2923  0.0810
44748DOD     C378065  13.776   9.263  13.779 -0.3343 -0.0189  0.2694
44749DOD     C178066  24.985  15.818  12.403  0.1143  0.4957  0.1603
44749DOD     C278067  25.118  15.377  12.507  0.3162 -0.2661  0.1120
44749DOD     C378068  25.237  14.994  12.582 -0.1141 -0.0722 -0.4008
44750DOD     C178069   5.056  21.905  17.905 -0.2308  0.1359 -0.2127
44750DOD     C278070   5.101  22.120  18.356  0.2853 -0.1498  0.2267
44750DOD     C378071   5.312  21.983  18.740  0.2285  0.4188  0.2336
44751DOD     C178072  21.505   3.236  20.458 -0.0024  0.1004 -0.0812
44751DOD     C278073  21.887   3.494  20.467 -0.1364 -0.3500 -0.2125
44751DOD     C378074  22.129   3.889  20.691  0.4303 -0.2550  0.1117
44752DOD     C178075   5.930   1.998  16.738 -0.1427  0.1162  0.0719
44752DOD     C278076   6.176   2.020  16.328 -0.0562  0.3321 -0.1514
44752DOD     C378077   6.504   1.922  16.006 -0.2764  0.2099 -0.0631
44753DOD     C178078  16.812  11.550  24.850 -0.0223 -0.1629 -0.1038
44753DOD     C278079  16.459  11.843  25.003  0.0619  0.2499 -0.2129
44753DOD     C378080  16.045  11.958  25.265  0.0550 -0.0081 -0.1255
44754DOD     C178081  17.709  15.417  23.275 -0.3011 -0.0561  0.3395
44754DOD     C278082  17.930  15.068  23.414 -0.2892 -0.1605 -0.2270
44754DOD     C378083  18.205  14.758  23.683 -0.1469  0.0537 -0.2100
44755DOD     C178084   7.060  28.913  17.708 -0.1900  0.3307  0.0719
44755DOD     C278085   6.883  28.594  17.968  0.0136 -0.2429 -0.2559
44755DOD     C378086   6.872  28.601  18.423 -0.3258  0.0533 -0.2568
44756DOD     C178087  27.094  22.828   6.117 -0.1481  0.0925 -0.0073
44756DOD     C278088  27.384  22.995   6.381  0.0985  0.1205  0.3042
44756DOD     C378089  27.757  23.307   6.492 -0.0471 -0.2013 -0.0648
44757DOD     C178090  18.228   3.101  18.171 -0.1398  0.1784  0.0015
44757DOD     C278091  18.413   3.153  18.589  0.3345  0.2172  0.0786
44757DOD     C378092  18.682   2.965  18.991 -0.1563  0.0443  0.5348
44758DOD     C178093   4.934  12.425   0.033  0.1798  0.2249  0.0507
44758DOD     C278094   5.363  12.191   0.025 -0.1138  0.0929 -0.2623
44758DOD     C378095   5.777  12.237  30.153  0.2256  0.1561  0.1607
44759DOD     C178096   3.841   7.342  22.979 -0.0017 -0.3728  0.3125
44759DOD     C278097   3.493   7.061  23.077 -0.0842 -0.1087  0.3049
44759DOD     C378098   3.035   7.060  23.068  0.0479 -0.0772  0.0518
44760DOD     C178099   5.434  18.030  23.926  0.0369 -0.1852 -0.0769
44760DOD     C278100   5.315  17.836  24.314  0.1409 -0.1262 -0.0952
44760DOD     C378101   5.051  17.778  24.705 -0.2717 -0.0206 -0.1004
44761DOD     C178102  15.036   7.445   2.909 -0.3474 -0.2365 -0.0867
44761DOD     C278103  15.320   7.819   2.903 -0.2305  0.3905 -0.1875
44761DOD     C378104  15.758   7.884   2.746  0.1193  0.4559  0.0580
44762DOD     C178105  29.320   0.971   9.336 -0.0703  0.0232 -0.1563
44762DOD     C278106  29.332   0.520   9.399  0.0739  0.1264 -0.2272
44762DOD     C378107  29.608   0.200   9.623 -0.1388  0.0001 -0.0108
44763DOD     C178108  29.427  16.374   9.306 -0.1497 -0.4161  0.2103
44763DOD     C278109  29.605  15.925   9.356  0.2376 -0.2772  0.3354
44763DOD     C378110  29.784  15.534   9.261 -0.2265  0.1749  0.1411
44764DOD     C178111  19.138  30.101  27.926 -0.0932 -0.3245  0.0783
44764DOD     C278112  19.108  29.740  27.571 -0.0560  0.2582  0.1185
44764DOD     C378113  19.059  29.477  27.218  0.0407 -0.4204  0.0463
44765DOD     C178114   7.971  13.531   0.906 -0.1365 -0.0158 -0.1125
44765DOD     C278115   8.022  13.820   0.480 -0.2614  0.3062 -0.2000
44765DOD     C378116   7.974  14.248   0.341 -0.0179 -0.0545 -0.2142
44766DOD     C178117  27.931  24.124  17.005 -0.0709  0.4293  0.0083
44766DOD     C278118  27.686  23.720  17.004 -0.2475 -0.2471  0.2930
44766DOD     C378119  27.635  23.315  16.707 -0.2403 -0.0344  0.0194
44767DOD     C178120  21.588  16.053   9.769  0.0331  0.0927  0.2156
44767DOD     C278121  21.167  16.211   9.973 -0.2045  0.1337  0.0219
44767DOD     C378122  20.845  16.380   9.724  0.0175  0.1340 -0.0899
44768DOD     C178123   3.030  14.438  17.492  0.0579 -0.0841 -0.1610
44768DOD     C278124   2.937  14.858  17.553 -0.1445 -0.1833  0.4075
44768DOD     C378125   3.014  15.209  17.790 -0.0719  0.2101  0.1075
44769DOD     C178126  21.685   4.228  28.409  0.0694 -0.0214 -0.0822
44769DOD     C278127  21.601   4.654  28.169 -0.0744 -0.1984 -0.1228
44769DOD     C378128  21.606   5.075  28.253 -0.0735 -0.1403 -0.1457
44770DOD     C178129  15.769  15.153  28.830  0.3123  0.1641 -0.1462
44770DOD     C278130  15.967  14.775  28.995  0.1402 -0.0456  0.1115
44770DOD     C378131  16.261  14.418  28.790  0.1666  0.2725 -0.0985
44771DOD     C178132   0.104   3.813  19.496  0.0448  0.0261  0.4475
44771DOD     C278133   0.598   3.857  19.385 -0.0289 -0.1206 -0.1991
44771DOD     C378134   1.064   3.799  19.450 -0.0846 -0.0196 -0.0834
44772DOD     C178135   5.670  29.510  28.288 -0.0162  0.1701 -0.0390
44772DOD     C278136   5.624  29.094  28.191 -0.5675  0.0801  0.3199
44772DOD     C378137   5.274  28.734  28.168 -0.0546  0.1757 -0.1412
44773DOD     C178138   3.438  19.453  29.730  0.1487  0.1332 -0.3060
44773DOD     C278139   3.311  19.015  29.735  0.1075  0.0674 -0.1377
44773DOD     C378140   3.516  18.636  29.632  0.0343 -0.0558  0.2291
44774DOD     C178141   3.641   1.905  25.965 -0.1074 -0.2392 -0.1139
44774DOD     C278142   3.778   1.577  26.277  0.1345  0.0926 -0.4350
44774DOD     C378143   3.941   1.328  26.631  0.1191  0.0932  0.1896
44775DOD     C178144  18.841  27.262  24.440 -0.0294 -0.0631 -0.0095
44775DOD     C278145  18.415  27.281  24.477 -0.1667 -0.2268  0.0096
44775DOD     C378146  18.003  27.489  24.672 -0.0121 -0.0659 -0.2278
44776DOD     C178147  12.147   0.129  24.278  0.1351 -0.3007  0.0622
44776DOD     C278148  11.950   0.264  23.887  0.1304  0.0381  0.0192
44776DOD     C378149  11.540   0.584  23.720 -0.2728  0.1828 -0.0686
44777DOD     C178150  20.136  10.912   0.794 -0.1459  0.1885 -0.0465
44777DOD     C278151  19.760  11.175   0.840  0.0519  0.0601  0.0699
44777DOD     C378152  19.594  11.494   1.006 -0.0916 -0.1915  0.1399
44778DOD     C178153   5.577  26.505  22.758 -0.0945  0.0472  0.0336
44778DOD     C278154   5.644  26.905  22.946  0.1111  0.1201  0.3395
44778DOD     C378155   5.793  27.334  22.956 -0.1899 -0.4037  0.1790
44779DOD     C178156  18.171  25.964  14.120  0.0354  0.0171 -0.3173
44779DOD     C278157  17.775  25.721  14.060 -0.2685 -0.1057 -0.2484
44779DOD     C378158  17.321  25.720  13.840  0.1519 -0.3223  0.0978
44780DOD     C178159  28.752  29.595   8.917  0.0628 -0.1814 -0.1035
44780DOD     C278160  28.921  29.232   9.181  0.5392 -0.4083 -0.0261
44780DOD     C378161  28.829  29.083   9.649 -0.0469  0.0001  0.2054
44781DOD     C178162  18.376  10.701   1.878 -0.1551 -0.3968 -0.2563
44781DOD     C278163  18.523  10.755   1.435 -0.1114  0.0013 -0.3621
44781DOD     C378164  18.573  10.707   0.961 -0.1978 -0.3645  0.2240
44782DOD     C178165  25.018  29.303  21.458 -0.2009  0.0737  0.0797
44782DOD     C278166  24.703  29.633  21.346  0.2162  0.1207 -0.0732
44782DOD     C378167  24.324  29.841  21.170 -0.0251 -0.3210  0.0834
44783DOD     C178168  13.010  26.377  20.277 -0.2333 -0.0481  0.1722
44783DOD     C278169  12.735  26.460  20.662  0.1384 -0.2782  0.3602
44783DOD     C378170  12.515  26.395  21.077 -0.2903  0.0919 -0.5617
44784DOD     C178171  12.753   7.178  22.686 -0.1391  0.5023  0.0336
44784DOD     C278172  12.697   7.522  22.313  0.2914  0.3759 -0.1321
44784DOD     C378173  12.897   7.690  21.893  0.1449  0.1104  0.0058
44785DOD     C178174  20.696   8.889  24.261  0.3617 -0.3238 -0.0853
44785DOD     C278175  20.926   8.746  24.661 -0.1158  0.0707  0.0779
44785DOD     C378176  21.334   8.797  24.927  0.1990 -0.1916  0.0345
44786DOD     C178177  23.169  17.743   4.877 -0.1559  0.1283 -0.1102
44786DOD     C278178  22.820  18.040   4.809 -0.0185  0.0130  0.1028
44786DOD     C378179  22.837  18.449   4.620 -0.0444  0.0974 -0.0063
44787DOD     C178180  14.903  19.720   5.501 -0.2482  0.2013  0.0566
44787DOD     C278181  14.535  19.836   5.380 -0.2690 -0.1184 -0.0905
44787DOD     C378182  14.199  19.877   5.008  0.0547  0.0960 -0.0979
44788DOD     C178183   4.029   4.173  19.134  0.0227 -0.0086 -0.2502
44788DOD     C278184   4.240   4.488  19.429  0.0948 -0.0501 -0.0422
44788DOD     C378185   4.458   4.434  19.857 -0.0648 -0.0260 -0.1247
44789DOD     C178186   4.649  25.317  18.711  0.2355  0.2487 -0.2644
44789DOD     C278187   5.006  25.244  18.998  0.0455 -0.0248  0.0710
44789DOD     C378188   5.052  25.380  19.454 -0.0114  0.1689 -0.2742
44790DOD     C178189  18.250   1.413   0.304 -0.0151  0.0266 -0.0567
44790DOD     C278190  18.450   1.677   0.634  0.0855  0.0452 -0.4049
44790DOD     C378191  18.532   1.983   0.989 -0.1269  0.1317  0.1967
44791DOD     C178192   7.165  20.493  10.325 -0.1562 -0.0993 -0.2451
44791DOD     C278193   7.554  20.621  10.518  0.4035  0.1704  0.1641
44791DOD     C378194   7.976  20.578  10.742  0.0028 -0.1543  0.2931
44792DOD     C178195  20.187  29.959   7.254  0.0767  0.1101  0.1241
44792DOD     C278196  20.273  29.493   7.348  0.1878 -0.0982 -0.3326
44792DOD     C378197  20.079  29.082   7.361 -0.2481  0.3395 -0.2402
44793DOD     C178198  19.326   2.785  20.206 -0.1633  0.2205 -0.2895
44793DOD     C278199  19.572   2.319  20.324  0.0362 -0.2452 -0.2834
44793DOD     C378200  19.535   1.860  20.328  0.2703  0.1180 -0.0990
44794DOD     C178201  10.412  23.938  18.902  0.1092  0.3240  0.0813
44794DOD     C278202  10.321  24.278  19.249 -0.0006  0.0716  0.2390
44794DOD     C378203   9.907  24.467  19.363  0.4859  0.0082  0.2743
44795DOD     C178204  20.424   6.651   5.651  0.0449 -0.3792  0.0990
44795DOD     C278205  20.529   6.901   5.216  0.3275 -0.1629 -0.0949
44795DOD     C378206  20.612   7.304   4.965 -0.1763  0.0279  0.0467
44796DOD     C178207   8.386  28.317   9.697 -0.1236 -0.3424  0.0667
44796DOD     C278208   8.763  28.325   9.422 -0.0357  0.0228  0.1470
44796DOD     C378209   8.932  28.572   9.046 -0.1211  0.1816 -0.1068
44797DOD     C178210  15.868  20.610   2.278  0.3284  0.0424 -0.2896
44797DOD     C278211  15.496  20.548   2.039 -0.1634 -0.1734 -0.3509
44797DOD     C378212  15.053  20.325   2.030 -0.2411  0.0114  0.2077
44798DOD     C178213  25.137  30.011  24.892 -0.0916 -0.0095 -0.1167
44798DOD     C278214  25.057   0.147  24.776  0.1193 -0.2112 -0.2175
44798DOD     C378215  25.228   0.590  24.735 -0.0416 -0.0843 -0.2341
44799DOD     C178216  11.976   5.190  14.729  0.1655  0.5640  0.2896
44799DOD     C278217  11.585   5.428  14.699 -0.0339 -0.1447 -0.0289
44799DOD     C378218  11.327   5.509  14.304 -0.1538 -0.0663  0.0617
44800DOD     C178219   7.501  18.352  23.412 -0.2018 -0.2277  0.3808
44800DOD     C278220   7.657  18.589  23.003  0.1826  0.2808  0.0325
44800DOD     C378221   7.805  18.936  22.795  0.0035  0.1866  0.0289
44801DOD     C178222  17.758  19.647   8.501  0.0104 -0.1117  0.0379
44801DOD     C278223  17.719  19.231   8.390  0.2095  0.0620 -0.0883
44801DOD     C378224  18.062  18.898   8.481  0.0327 -0.2526 -0.1420
44802DOD     C178225  29.178  13.817  24.522  0.1810  0.5063 -0.1134
44802DOD     C278226  29.222  14.272  24.436 -0.0710 -0.2280  0.2294
44802DOD     C378227  29.319  14.698  24.262  0.0757 -0.0758  0.1609
44803DOD     C178228   2.366  17.127  14.738 -0.2323 -0.1592  0.2722
44803DOD     C278229   2.126  17.287  14.345 -0.0822 -0.0178  0.0574
44803DOD     C378230   1.902  17.379  13.912 -0.1386 -0.2936  0.0325
44804DOD     C178231  10.553   3.303  14.252 -0.2959 -0.0404  0.1134
44804DOD     C278232  10.643   3.018  14.627  0.1744  0.1193 -0.0606
44804DOD     C378233  10.793   2.951  15.039 -0.1145  0.1363  0.0016
44805DOD     C178234   3.777   3.273  19.639  0.0429 -0.0563  0.1173
44805DOD     C278235   4.247   3.292  19.672 -0.0241  0.0966  0.4416
44805DOD     C378236   4.705   3.347  19.739 -0.0144 -0.1638  0.1520
44806DOD     C178237  26.550  26.222   4.577  0.0033  0.4009  0.3412
44806DOD     C278238  26.231  26.438   4.878  0.3254  0.0502 -0.1786
44806DOD     C378239  25.916  26.198   5.056  0.4191  0.0099 -0.0002
44807DOD     C178240   9.098  23.496  11.658  0.0272 -0.1243  0.0053
44807DOD     C278241   9.170  23.899  11.834 -0.0984  0.0119  0.0061
44807DOD     C378242   9.188  24.285  11.628  0.1014 -0.1570 -0.2006
44808DOD     C178243  28.217   4.148  23.251 -0.0967  0.2011  0.1955
44808DOD     C278244  28.392   4.543  23.216  0.1673 -0.2431  0.0183
44808DOD     C378245  28.520   4.720  23.634 -0.0078 -0.0642  0.1131
44809DOD     C178246   1.473   8.798  27.967  0.2984  0.0026  0.3683
44809DOD     C278247   1.300   8.992  27.548  0.0623 -0.0834  0.0952
44809DOD     C378248   1.566   9.201  27.233  0.0721  0.0462 -0.1113
44810DOD     C178249  25.244  18.708  20.662  0.1561  0.2398 -0.0062
44810DOD     C278250  25.301  18.280  20.642 -0.5073 -0.2700 -0.1190
44810DOD     C378251  25.377  17.847  20.943  0.2503  0.0498 -0.2675
44811DOD     C178252  23.507  28.434   5.939  0.1268 -0.0939  0.1044
44811DOD     C278253  23.324  28.033   6.124  0.0251  0.1397  0.1287
44811DOD     C378254  23.262  27.763   6.461  0.0430  0.1532  0.2169
44812DOD     C178255  16.973  14.174  14.297 -0.2218  0.3391  0.0438
44812DOD     C278256  17.252  13.773  14.361  0.1538 -0.0026 -0.1459
44812DOD     C378257  17.658  13.841  14.596  0.3157 -0.0051 -0.0608
44813DOD     C178258   4.577  16.444  13.679  0.0196 -0.0004  0.1834
44813DOD     C278259   4.274  16.267  13.411 -0.0633  0.1144  0.0343
44813DOD     C378260   3.956  16.119  13.081 -0.0076  0.2657  0.0143
44814DOD     C178261  21.007   4.398  22.045  0.0987  0.2042 -0.1033
44814DOD     C278262  20.691   4.654  21.847  0.1034  0.1780 -0.1119
44814DOD     C378263  20.297   4.950  21.729 -0.0464  0.2915 -0.3157
44815DOD     C178264  25.071  15.056   6.317  0.0744 -0.4687  0.0694
44815DOD     C278265  25.218  14.856   5.937 -0.1037 -0.3906 -0.2001
44815DOD     C378266  25.652  14.812   5.786  0.2526  0.3023  0.0646
44816DOD     C178267  10.743   0.977   9.652  0.0246  0.2771 -0.1968
44816DOD     C278268  11.015   1.228   9.949 -0.1834 -0.2284 -0.2020
44816DOD     C378269  11.352   1.294  10.217  0.2055  0.2435 -0.1951
44817DOD     C178270  10.518  24.344  14.453  0.1021  0.1341 -0.1949
44817DOD     C278271  10.138  24.047  14.392  0.0027  0.1094 -0.1063
44817DOD     C378272  10.143  23.761  14.054 -0.0979 -0.3707  0.2587
44818DOD     C178273  20.852  14.585  24.856  0.1241  0.3165  0.1514
44818DOD     C278274  21.145  14.852  24.551 -0.1261  0.1486  0.0562
44818DOD     C378275  21.377  15.086  24.845  0.1817  0.0550 -0.2834
44819DOD     C178276  11.124  15.013   3.284  0.0931 -0.3907  0.0201
44819DOD     C278277  11.144  14.628   3.056 -0.0474 -0.2938 -0.2897
44819DOD     C378278  10.919  14.264   3.000 -0.1535  0.2391  0.1007
44820DOD     C178279   2.338  27.527   9.096  0.1260  0.0739 -0.1280
44820DOD     C278280   2.402  27.237   8.756  0.0415  0.0183  0.1334
44820DOD     C378281   2.452  27.171   8.291 -0.0736  0.0404 -0.2426
44821DOD     C178282  13.402  25.948  20.781 -0.2449  0.2031 -0.1684
44821DOD     C278283  13.819  25.974  20.926  0.0571  0.0508 -0.2765
44821DOD     C378284  14.116  26.297  20.840 -0.0847 -0.3420 -0.0301
44822DOD     C178285  16.497  26.481  26.860  0.2316 -0.1133 -0.1740
44822DOD     C278286  16.077  26.285  26.951 -0.0292  0.2600 -0.0336
44822DOD     C378287  15.775  26.473  27.267  0.0033 -0.1273 -0.1554
44823DOD     C178288   6.425   3.715  19.269  0.0406  0.0544  0.0812
44823DOD     C278289   6.582   4.155  19.077 -0.2066 -0.3031  0.1141
44823DOD     C378290   6.628   4.529  18.797 -0.1532  0.0471  0.1085
44824DOD     C178291  21.767  19.329  28.330  0.0118  0.1155 -0.0189
44824DOD     C278292  21.965  18.926  28.127 -0.3147 -0.1363 -0.0375
44824DOD     C378293  22.115  18.938  27.664 -0.2286  0.0727 -0.3404
44825DOD     C178294  28.217  16.102  23.333  0.2477  0.0715  0.3147
44825DOD     C278295  28.489  15.940  22.999  0.3033  0.3334 -0.0128
44825DOD     C378296  28.964  15.796  23.025 -0.0400  0.2026 -0.1814
44826DOD     C178297  18.704   2.917  26.911  0.2059  0.0760 -0.1776
44826DOD     C278298  18.817   3.210  26.614  0.2077  0.2329 -0.1227
44826DOD     C378299  19.132   3.213  26.266  0.1692 -0.1721  0.1185
44827DOD     C178300  24.802  23.547  21.228  0.2179 -0.1071  0.0368
44827DOD     C278301  25.189  23.767  21.052  0.0463  0.0589 -0.2184
44827DOD     C378302  25.384  24.186  20.919  0.1182  0.4072  0.0396
44828DOD     C178303  24.118  17.754   0.605 -0.0909 -0.1575 -0.1330
44828DOD     C278304  24.110  17.331   0.346 -0.0055 -0.0682 -0.1941
44828DOD     C378305  24.228  17.154  30.272 -0.0323  0.1808  0.0767
44829DOD     C178306  28.965  21.347  19.986  0.0879 -0.1843 -0.0245
44829DOD     C278307  28.766  21.000  20.234  0.1986  0.3000 -0.2632
44829DOD     C378308  28.978  20.851  20.601  0.4376 -0.1984  0.2749
44830DOD     C178309  28.699  18.101  28.979  0.1829  0.1979 -0.0012
44830DOD     C278310  28.709  18.561  28.846 -0.3157  0.1116 -0.0951
44830DOD     C378311  28.835  18.878  28.521  0.1693 -0.1541  0.0691
44831DOD     C178312  18.039   7.954  27.821 -0.0166 -0.2766  0.0429
44831DOD     C278313  17.690   8.079  27.571  0.4146  0.0140  0.1996
44831DOD     C378314  17.478   8.423  27.370  0.0879  0.2541 -0.0583
44832DOD     C178315  24.164   4.566  30.087 -0.1239 -0.0581  0.1768
44832DOD     C278316  24.254   4.175  30.282 -0.1342  0.1495  0.4521
44832DOD     C378317  24.314   3.706  30.256  0.3638  0.1494  0.4101
44833DOD     C178318  16.043   0.036  17.542  0.2678 -0.1538 -0.1271
44833DOD     C278319  16.071   0.476  17.454 -0.0358 -0.0178 -0.4011
44833DOD     C378320  16.442   0.783  17.296 -0.3256  0.0663  0.0896
44834DOD     C178321   8.827  12.440  19.118 -0.1414 -0.0238 -0.3573
44834DOD     C278322   8.844  11.969  19.040  0.1115  0.0984  0.1981
44834DOD     C378323   8.964  11.641  18.752  0.2532  0.2420 -0.4247
44835DOD     C178324   3.130   1.232  16.450 -0.1502 -0.0234 -0.1912
44835DOD     C278325   2.717   0.945  16.422 -0.0988 -0.0462  0.2363
44835DOD     C378326   2.307   0.683  16.381 -0.2025 -0.1301 -0.1944
44836DOD     C178327  23.486   7.769  14.210  0.1656  0.2058  0.0786
44836DOD     C278328  23.883   7.800  14.419 -0.2962 -0.0243 -0.0782
44836DOD     C378329  24.351   7.680  14.389 -0.4260 -0.0077 -0.1096
44837DOD     C178330  29.222   0.237  11.978  0.1280  0.4571  0.2814
44837DOD     C278331  29.243   0.581  12.237 -0.2626  0.0204 -0.0559
44837DOD     C378332  29.074   1.028  12.274  0.0675 -0.0026  0.0836
44838DOD     C178333  17.262  19.098   7.995 -0.3902 -0.0171  0.1344
44838DOD     C278334  16.865  18.910   8.219  0.2543 -0.1745 -0.0733
44838DOD     C378335  16.436  18.979   8.326 -0.1821  0.3116  0.0829
44839DOD     C178336   0.270  25.097   5.436 -0.1694 -0.2282 -0.0179
44839DOD     C278337   0.093  24.889   5.013 -0.0228  0.0238  0.3440
44839DOD     C378338   0.042  24.804   4.557  0.0748 -0.0761  0.1745
44840DOD     C178339   6.000   4.691   0.006 -0.1916  0.0257  0.0626
44840DOD     C278340   5.893   4.304   0.286  0.0955 -0.0178  0.0182
44840DOD     C378341   5.544   4.085   0.482 -0.0799 -0.0039 -0.1901
44841DOD     C178342   9.234  17.291   5.685 -0.2016 -0.1339 -0.1302
44841DOD     C278343   8.860  17.119   5.381 -0.1296  0.2158 -0.0909
44841DOD     C378344   8.674  16.750   5.194 -0.2465  0.2454  0.2821
44842DOD     C178345  22.375  17.234  18.857 -0.0719 -0.0980 -0.1846
44842DOD     C278346  22.545  17.366  19.278  0.0312  0.2654 -0.0943
44842DOD     C378347  22.591  17.191  19.661  0.1859 -0.1168  0.0288
44843DOD     C178348  11.190  10.391   3.270 -0.0206 -0.2842 -0.1097
44843DOD     C278349  11.270  10.870   3.391  0.0927 -0.0993 -0.2163
44843DOD     C378350  11.399  11.283   3.203 -0.0019 -0.1168 -0.1987
44844DOD     C178351   6.738  19.566  21.084 -0.3666 -0.2238 -0.1673
44844DOD     C278352   6.268  19.633  21.150  0.0290 -0.0718  0.3666
44844DOD     C378353   5.776  19.589  21.081 -0.1763 -0.1740 -0.1127
44845DOD     C178354  19.331   5.776  22.615  0.0060  0.0817 -0.2016
44845DOD     C278355  19.283   6.211  22.486 -0.1135  0.0240  0.1118
44845DOD     C378356  19.341   6.569  22.173  0.0058 -0.1543  0.2950
44846DOD     C178357  25.218   7.511  20.791 -0.1051 -0.1007  0.0817
44846DOD     C278358  25.530   7.803  20.913  0.1673  0.1992 -0.0033
44846DOD     C378359  25.903   8.024  20.964 -0.1259 -0.1585 -0.3129
44847DOD     C178360   9.775  13.169   6.563  0.2003 -0.0681 -0.3293
44847DOD     C278361  10.138  12.884   6.599 -0.1484  0.0188 -0.1817
44847DOD     C378362  10.524  12.855   6.740 -0.4146 -0.0374  0.2391
44848DOD     C178363   1.178  17.030  11.771 -0.2197  0.0653  0.4478
44848DOD     C278364   1.572  16.755  11.688 -0.0453  0.2737 -0.1027
44848DOD     C378365   1.920  16.502  11.451 -0.1682 -0.0740  0.1457
44849DOD     C178366  19.034  21.313   2.917 -0.0208 -0.1866  0.0448
44849DOD     C278367  18.823  20.903   2.866  0.2670  0.0330  0.2534
44849DOD     C378368  18.650  20.493   2.801 -0.2940 -0.0912  0.0548
44850DOD     C178369  17.347   0.330   2.149 -0.0346  0.2205 -0.1788
44850DOD     C278370  17.730   0.020   2.069 -0.1769  0.1112  0.0939
44850DOD     C378371  17.965  29.974   1.855  0.1751  0.1886 -0.4429
44851DOD     C178372  25.780  20.903  16.452  0.1913  0.1036  0.1394
44851DOD     C278373  25.406  21.016  16.675  0.0339 -0.0289 -0.2349
44851DOD     C378374  25.032  21.322  16.872  0.0773 -0.0622 -0.2214
44852DOD     C178375   4.099  24.159  11.462 -0.3445  0.0336  0.0846
44852DOD     C278376   4.402  23.768  11.531  0.1496 -0.3062 -0.2250
44852DOD     C378377   4.524  23.310  11.681 -0.1233  0.2883 -0.2621
44853DOD     C178378   6.277  10.504  24.451  0.2878  0.1070 -0.0439
44853DOD     C278379   5.858  10.560  24.260  0.1111  0.1071 -0.2610
44853DOD     C378380   5.777  10.893  23.957  0.0687 -0.1306  0.3786
44854DOD     C178381  21.706  27.476  15.204 -0.0716  0.2228  0.2534
44854DOD     C278382  22.114  27.341  14.968 -0.3256 -0.0060 -0.1193
44854DOD     C378383  22.069  27.076  14.567  0.1132 -0.1459 -0.1136
44855DOD     C178384   2.958  11.490   7.052  0.0579 -0.1710  0.0753
44855DOD     C278385   3.270  11.526   6.650 -0.2270  0.0570  0.2131
44855DOD     C378386   3.516  11.564   6.255 -0.0378  0.1530  0.0687
44856DOD     C178387  21.080  23.229  19.814 -0.1704 -0.1512 -0.0697
44856DOD     C278388  21.544  23.335  20.075 -0.2988  0.0544  0.1909
44856DOD     C378389  21.918  23.095  20.124  0.0185  0.2593 -0.2423
44857DOD     C178390   8.890  -0.031  17.165  0.0581 -0.1873 -0.0872
44857DOD     C278391   9.278   0.203  17.336  0.1187 -0.0799 -0.2411
44857DOD     C378392   9.511   0.122  17.757 -0.1393 -0.1869 -0.0269
44858DOD     C178393   9.138   8.858  22.869 -0.0868 -0.0471 -0.1372
44858DOD     C278394   8.792   8.605  23.151 -0.0391  0.0515  0.0384
44858DOD     C378395   8.573   8.236  23.338 -0.3509 -0.3120 -0.0214
44859DOD     C178396   3.800  16.789  15.986  0.1252 -0.0507  0.0133
44859DOD     C278397   3.929  16.940  16.389  0.2804 -0.0758  0.1103
44859DOD     C378398   3.879  17.172  16.816  0.0627  0.0074  0.0100
44860DOD     C178399   4.696  13.995  19.445  0.0967 -0.2012 -0.0771
44860DOD     C278400   5.070  14.107  19.732 -0.1767  0.2097 -0.1695
44860DOD     C378401   5.558  14.152  19.694 -0.1892 -0.1844  0.1906
44861DOD     C178402   1.162  13.703  28.008  0.0791  0.0012  0.0909
44861DOD     C278403   1.290  14.128  27.906  0.3773  0.3599 -0.2141
44861DOD     C378404   1.229  14.564  27.765  0.0216 -0.1047  0.3041
44862DOD     C178405   6.436  25.839  18.226 -0.2692 -0.2545 -0.2716
44862DOD     C278406   6.183  25.823  18.635  0.4064 -0.1162 -0.3676
44862DOD     C378407   5.829  25.822  19.009 -0.0192 -0.0054 -0.1547
44863DOD     C178408   3.849  30.093  21.956 -0.3062  0.0553  0.1751
44863DOD     C278409   3.671  29.773  22.206 -0.0207 -0.0927 -0.2405
44863DOD     C378410   3.276  29.594  22.275  0.2681 -0.2497  0.0844
44864DOD     C178411  15.377   8.180   2.448 -0.3860  0.1679 -0.0208
44864DOD     C278412  15.093   8.485   2.280  0.1861  0.0315 -0.2471
44864DOD     C378413  14.803   8.772   2.574 -0.1714  0.0390  0.1190
44865DOD     C178414  13.994  14.950  15.072 -0.2246 -0.0702 -0.2350
44865DOD     C278415  13.779  15.334  15.261 -0.1921  0.2581  0.1058
44865DOD     C378416  13.670  15.755  15.402 -0.1865 -0.1018  0.1112
44866DOD     C178417   7.617  12.824  23.597 -0.1324 -0.1139 -0.1034
44866DOD     C278418   7.791  12.438  23.835 -0.0271 -0.0238  0.0747
44866DOD     C378419   8.082  12.097  24.009 -0.1458 -0.0062 -0.4324
44867DOD     C178420  13.704  26.954  16.837 -0.0645 -0.0896  0.3696
44867DOD     C278421  13.411  27.095  16.462 -0.1341  0.1646  0.1705
44867DOD     C378422  13.203  27.365  16.174  0.2721 -0.0007  0.2767
44868DOD     C178423   4.880  19.516  10.068  0.2164  0.0339  0.0304
44868DOD     C278424   4.458  19.349  10.026  0.1557 -0.1084  0.0216
44868DOD     C378425   4.001  19.353   9.985  0.2736 -0.0229  0.1605
44869DOD     C178426   1.374   2.471  23.153  0.0334 -0.0746  0.0264
44869DOD     C278427   1.376   2.019  23.082 -0.0531 -0.1132 -0.0005
44869DOD     C378428   1.273   1.615  22.848 -0.0746 -0.1089 -0.1356
44870DOD     C178429   5.631  28.507   9.346  0.1897  0.0015 -0.0275
44870DOD     C278430   5.142  28.505   9.202 -0.0949  0.0904  0.0181
44870DOD     C378431   4.677  28.466   9.155 -0.1850  0.1268  0.0176
44871DOD     C178432  28.169  23.279  14.839  0.0942 -0.0109 -0.2320
44871DOD     C278433  28.354  23.008  15.204 -0.1338 -0.1402 -0.1473
44871DOD     C378434  28.475  23.077  15.667 -0.0986  0.1039 -0.0501
44872DOD     C178435  28.757  12.766  29.336 -0.2219 -0.0888 -0.5389
44872DOD     C278436  28.525  12.540  29.045  0.0286  0.0772  0.0797
44872DOD     C378437  28.439  12.463  28.599 -0.1325  0.2307  0.1546
44873DOD     C178438  12.718  25.669  12.138  0.0316  0.1695  0.3090
44873DOD     C278439  12.886  25.433  11.764  0.3163 -0.3163  0.0949
44873DOD     C378440  13.124  25.382  11.317 -0.0026  0.0676  0.0646
44874DOD     C178441  22.325  14.773   7.190  0.0499  0.3483 -0.4865
44874DOD     C278442  22.496  14.873   7.640 -0.0458  0.1300  0.0251
44874DOD     C378443  22.858  14.881   7.902 -0.1704 -0.0834  0.2396
44875DOD     C178444  28.174  12.877  19.271  0.0116 -0.2244 -0.2995
44875DOD     C278445  28.339  13.280  19.112  0.0203 -0.2542  0.2004
44875DOD     C378446  28.575  13.687  19.009 -0.0537 -0.0604  0.1435
44876DOD     C178447  10.663  17.978   0.536  0.0000 -0.0039 -0.2476
44876DOD     C278448  10.735  18.420   0.561 -0.1569  0.5233  0.2884
44876DOD     C378449  11.115  18.744   0.416  0.3035 -0.0868  0.1664
44877DOD     C178450   7.566  12.580   6.052 -0.1117 -0.1922 -0.1766
44877DOD     C278451   7.542  12.238   6.358 -0.2890  0.0399 -0.0175
44877DOD     C378452   7.765  12.217   6.768  0.1862 -0.0604  0.5559
44878DOD     C178453  30.166  19.673  15.637  0.0693 -0.0948 -0.2226
44878DOD     C278454  30.185  19.378  15.306  0.2304 -0.0456  0.0312
44878DOD     C378455  30.019  18.908  15.291 -0.1582 -0.0956  0.1817
44879DOD     C178456  28.572  11.574   0.654  0.1625 -0.1470 -0.0741
44879DOD     C278457  28.856  11.390   0.407  0.2675  0.0335  0.0438
44879DOD     C378458  28.933  11.250  30.318 -0.1890  0.1901 -0.1423
44880DOD     C178459  15.926   8.460  28.917  0.2099  0.0002  0.0495
44880DOD     C278460  16.007   8.657  29.303 -0.2001 -0.1564 -0.1084
44880DOD     C378461  16.370   8.506  29.575 -0.0615  0.1392  0.1636
44881DOD     C178462  25.120  23.944  29.728 -0.0016 -0.1266  0.0571
44881DOD     C278463  25.533  23.964  29.956 -0.1586 -0.3205  0.0247
44881DOD     C378464  26.013  23.931  30.092  0.2919  0.1329 -0.0887
44882DOD     C178465  11.969  12.588   2.103  0.0534 -0.0871  0.1867
44882DOD     C278466  11.844  12.389   2.498  0.1318  0.0329 -0.0279
44882DOD     C378467  11.531  12.294   2.812 -0.0326 -0.2648 -0.2029
44883DOD     C178468  17.812   9.706   8.848  0.1678  0.3423  0.1097
44883DOD     C278469  17.552   9.351   8.715  0.1465  0.0824 -0.0125
44883DOD     C378470  17.250   9.192   9.058  0.3365 -0.1097  0.1644
44884DOD     C178471  20.697  20.249   2.261  0.2547  0.0382 -0.0586
44884DOD     C278472  20.519  20.520   2.609 -0.2227  0.1846  0.2828
44884DOD     C378473  20.428  20.613   3.087 -0.1777  0.0555  0.0730
44885DOD     C178474   8.304  22.209   2.373  0.1223  0.0514  0.1705
44885DOD     C278475   8.762  22.187   2.542  0.2892 -0.0434  0.0749
44885DOD     C378476   9.106  21.897   2.394 -0.1671  0.1212 -0.1525
44886DOD     C178477  29.292   5.257  20.712  0.0048 -0.0016 -0.0607
44886DOD     C278478  29.104   5.354  20.312  0.2706  0.2377 -0.1407
44886DOD     C378479  29.123   5.742  20.020 -0.1325  0.0399 -0.0736
44887DOD     C178480  23.369   8.692  23.868 -0.3331 -0.0067 -0.0227
44887DOD     C278481  22.999   8.371  23.832  0.0238 -0.1815  0.0955
44887DOD     C378482  22.544   8.357  23.819  0.0434  0.1570 -0.2131
44888DOD     C178483   5.385   6.455  16.524  0.2883 -0.2153 -0.5415
44888DOD     C278484   5.354   6.452  16.106  0.5409 -0.0405  0.2211
44888DOD     C378485   5.745   6.493  15.830 -0.0691 -0.1685  0.0254
44889DOD     C178486  28.336  29.955   9.034 -0.0781 -0.2777 -0.0392
44889DOD     C278487  28.738  30.033   9.272  0.2982  0.0925 -0.1260
44889DOD     C378488  28.994  30.134   9.638 -0.1311  0.1125 -0.1667
44890DOD     C178489  10.891  13.676  14.328  0.0140  0.0274 -0.0688
44890DOD     C278490  10.559  13.411  14.482  0.0966  0.1296  0.1548
44890DOD     C378491  10.209  13.315  14.850 -0.1639 -0.1511 -0.1854
44891DOD     C178492   4.161   0.053   6.778  0.1184 -0.2625 -0.0549
44891DOD     C278493   3.829  30.183   6.574  0.0219 -0.0326 -0.0715
44891DOD     C378494   3.806  29.708   6.455 -0.4606 -0.1987  0.0421
44892DOD     C178495  20.265  17.808   9.344 -0.2038  0.1650  0.0264
44892DOD     C278496  20.465  18.170   9.110  0.1553  0.1099  0.0001
44892DOD     C378497  20.613  18.235   8.643  0.1666  0.1801 -0.1994
44893DOD     C178498  14.425  12.615  24.344 -0.1397 -0.1326  0.0068
44893DOD     C278499  14.353  12.829  24.773 -0.1734 -0.1719 -0.0277
44893DOD     C378500  14.082  13.170  24.896  0.2675 -0.2679  0.2683
44894DOD     C178501  24.950  22.400  29.037 -0.1445 -0.2032 -0.0895
44894DOD     C278502  25.002  22.328  29.467  0.2101 -0.3478 -0.1196
44894DOD     C378503  24.612  22.148  29.625  0.1445  0.0721  0.3827
44895DOD     C178504   4.468  13.370  14.731 -0.2630 -0.3944 -0.0284
44895DOD     C278505   4.404  13.236  14.279  0.1291 -0.2430 -0.1435
44895DOD     C378506   4.577  13.251  13.858  0.0892  0.0050 -0.2231
44896DOD     C178507  27.638  26.280  28.414 -0.1831  0.1683  0.0404
44896DOD     C278508  27.890  26.684  28.426 -0.0326 -0.1309 -0.0867
44896DOD     C378509  28.292  26.917  28.544 -0.0455 -0.0746  0.3398
44897DOD     C178510   0.590   4.961  29.727  0.2843  0.1234  0.0567
44897DOD     C278511   0.194   4.858  29.933  0.2725 -0.1740  0.2721
44897DOD     C378512  30.020   4.954  29.982 -0.2209 -0.0279 -0.1399
44898DOD     C178513  29.479   4.856  20.507 -0.0388 -0.2451  0.1513
44898DOD     C278514  29.403   4.736  20.108 -0.2151 -0.0670  0.1512
44898DOD     C378515  29.730   4.585  19.772  0.0569 -0.1181 -0.0989
44899DOD     C178516   8.911  15.903  13.649 -0.0675  0.2063  0.1552
44899DOD     C278517   9.001  15.504  13.900 -0.0680  0.1638  0.1995
44899DOD     C378518   9.287  15.452  14.316  0.3182 -0.0409 -0.3302
44900DOD     C178519   7.588   9.584  17.358  0.3902  0.1128  0.2907
44900DOD     C278520   7.260   9.637  17.008 -0.2933 -0.1248 -0.0550
44900DOD     C378521   7.290   9.661  16.521  0.0151  0.0764  0.0651
44901DOD     C178522  25.411   0.730   1.707  0.1385 -0.1538  0.0313
44901DOD     C278523  25.273   1.045   1.416  0.2625  0.4084  0.2408
44901DOD     C378524  25.138   1.411   1.179 -0.0981 -0.2662 -0.0386
44902DOD     C178525   3.468  24.604   5.889  0.1243  0.3585  0.0677
44902DOD     C278526   3.466  24.176   5.813  0.2458  0.3387 -0.4032
44902DOD     C378527   3.797  23.901   5.678  0.1585 -0.1441  0.0186
44903DOD     C178528  22.573  10.332  12.624  0.0300  0.1702 -0.0387
44903DOD     C278529  22.941  10.443  12.852 -0.1761  0.0267  0.1580
44903DOD     C378530  23.446  10.468  12.728  0.0891 -0.0416 -0.0079
44904DOD     C178531   4.610   4.058  28.933 -0.0071 -0.1463  0.5299
44904DOD     C278532   4.541   4.351  29.234  0.2236  0.0116 -0.1010
44904DOD     C378533   4.838   4.390  29.612  0.0493 -0.1409 -0.2438
44905DOD     C178534  10.329   3.325  12.960 -0.1232 -0.1930  0.5922
44905DOD     C278535  10.685   3.639  13.050  0.3085 -0.0997  0.0252
44905DOD     C378536  11.014   3.944  12.955 -0.2065  0.1344  0.1495
44906DOD     C178537  19.946  17.541  23.429  0.0438 -0.0843  0.0797
44906DOD     C278538  19.911  17.153  23.705 -0.2503 -0.1781  0.3194
44906DOD     C378539  20.219  16.849  23.623  0.1362 -0.3065 -0.0895
44907DOD     C178540  11.727  27.838  26.821  0.1530  0.0931 -0.0539
44907DOD     C278541  11.303  27.773  26.744  0.1375  0.4664 -0.1553
44907DOD     C378542  11.022  28.088  26.503 -0.0339 -0.2559  0.2785
44908DOD     C178543   0.616  20.468  26.496 -0.1224  0.1286  0.3137
44908DOD     C278544   0.419  20.650  26.096 -0.1072  0.0061  0.0519
44908DOD     C378545   0.422  20.491  25.666 -0.0661 -0.0736 -0.0818
44909DOD     C178546  28.448  19.104  29.387 -0.0509 -0.0741 -0.0324
44909DOD     C278547  28.256  18.768  29.120 -0.0740  0.0732 -0.1760
44909DOD     C378548  27.946  18.721  28.791 -0.2505  0.2495 -0.0997
44910DOD     C178549   2.416  19.336   4.793 -0.0810  0.2155 -0.0010
44910DOD     C278550   2.728  19.674   4.937 -0.0196  0.2368  0.0214
44910DOD     C378551   3.095  19.790   5.122 -0.1559 -0.0153 -0.0030
44911DOD     C178552  22.275  13.911  15.895 -0.1486 -0.0735 -0.3039
44911DOD     C278553  22.563  13.550  15.693  0.3954 -0.2384  0.0213
44911DOD     C378554  22.828  13.253  15.340 -0.2806  0.0620  0.1733
44912DOD     C178555  12.832  19.241  24.419 -0.3424  0.1048  0.0011
44912DOD     C278556  12.575  19.034  24.046  0.1976 -0.2050 -0.0086
44912DOD     C378557  12.349  19.345  23.741 -0.1253  0.2453  0.3645
44913DOD     C178558  29.908  16.821  14.802  0.1116 -0.0897 -0.3698
44913DOD     C278559  29.803  16.737  15.235  0.1044  0.3376 -0.3985
44913DOD     C378560  29.468  16.900  15.588 -0.3829  0.0947  0.1886
44914DOD     C178561  20.713   4.451  13.101  0.2602 -0.3885  0.0285
44914DOD     C278562  20.275   4.295  13.198 -0.1399  0.1906 -0.0833
44914DOD     C378563  19.931   4.157  13.381 -0.1689  0.0033  0.0255
44915DOD     C178564  20.039   5.002  27.210 -0.0976  0.1218 -0.0000
44915DOD     C278565  19.913   5.220  26.800 -0.0440 -0.1236  0.0495
44915DOD     C378566  19.767   5.526  26.456  0.1079 -0.0748  0.0132
44916DOD     C178567  27.965  13.347   9.835 -0.1644  0.1441  0.0486
44916DOD     C278568  28.321  13.519   9.579  0.4115  0.1144 -0.2445
44916DOD     C378569  28.652  13.514   9.302  0.1549 -0.2375  0.0741
44917DOD     C178570  23.207  26.069  28.143  0.1948  0.1333 -0.0213
44917DOD     C278571  23.221  26.498  28.251 -0.3645 -0.2219  0.1039
44917DOD     C378572  22.918  26.867  28.129  0.0376 -0.0660 -0.0058
44918DOD     C178573  15.642   8.469  16.189 -0.1694  0.1431  0.4369
44918DOD     C278574  15.706   8.195  15.807  0.0742  0.1174 -0.1173
44918DOD     C378575  15.838   7.731  15.743 -0.4706  0.1843 -0.2450
44919DOD     C178576  28.090  27.005  15.277  0.1806 -0.2392 -0.0460
44919DOD     C278577  28.104  27.192  15.713  0.2363  0.1953 -0.2100
44919DOD     C378578  28.235  27.219  16.098  0.0712 -0.2423  0.1953
44920DOD     C178579  24.282   6.169   1.112  0.0066  0.2566  0.0485
44920DOD     C278580  23.823   6.318   1.063 -0.0234 -0.1101  0.0551
44920DOD     C378581  23.702   6.771   0.942 -0.0481  0.0160 -0.1384
44921DOD     C178582   6.417  17.109  22.959  0.1238 -0.0623 -0.0131
44921DOD     C278583   6.681  16.856  22.763  0.0525  0.1598  0.0889
44921DOD     C378584   6.885  16.803  22.330 -0.2865  0.1136 -0.2465
44922DOD     C178585  10.366  19.432  10.736 -0.0412  0.1593  0.0109
44922DOD     C278586  10.457  19.336  11.205  0.0958  0.2410 -0.0526
44922DOD     C378587  10.495  19.587  11.576  0.0720  0.1094  0.2029
44923DOD     C178588  23.375  16.154  14.901 -0.0466  0.0348 -0.0014
44923DOD     C278589  23.668  15.766  14.957  0.3464  0.1442 -0.1192
44923DOD     C378590  24.090  15.451  14.888 -0.0692  0.0169  0.0109
44924DOD     C178591  15.638  19.679  22.855 -0.4955 -0.2573  0.0142
44924DOD     C278592  15.622  19.352  23.157  0.1029 -0.1855 -0.2253
44924DOD     C378593  15.264  18.997  23.206 -0.1810 -0.0513  0.3113
44925DOD     C178594   3.687   9.206  20.998  0.1690 -0.0198  0.0625
44925DOD     C278595   3.812   9.592  20.777  0.3419 -0.1773  0.1830
44925DOD     C378596   3.780   9.781  20.364 -0.2320  0.0728  0.1647
44926DOD     C178597   0.130  12.555  22.346  0.0557  0.1115 -0.0067
44926DOD     C278598   0.002  12.614  22.834  0.0562 -0.0806  0.0254
44926DOD     C378599  29.960  12.684  23.117  0.0192  0.1280  0.3415
44927DOD     C178600   9.714   0.137   9.280 -0.1472 -0.0368 -0.3942
44927DOD     C278601   9.296   0.036   9.548  0.2460 -0.0936  0.3929
44927DOD     C378602   8.863  30.167   9.574  0.2661  0.1060 -0.0610
44928DOD     C178603  11.496  24.414  27.787  0.3269 -0.1392  0.1327
44928DOD     C278604  11.926  24.414  27.605  0.1984 -0.1433 -0.2533
44928DOD     C378605  12.375  24.349  27.438 -0.2793  0.1758  0.2489
44929DOD     C178606  11.378  26.243  11.766  0.2899  0.0520 -0.2556
44929DOD     C278607  11.778  26.239  12.034 -0.0449  0.0527  0.0748
44929DOD     C378608  11.929  25.964  12.349  0.1778  0.1900 -0.1239
44930DOD     C178609  14.304  24.501  27.756 -0.3944 -0.1744 -0.1036
44930DOD     C278610  14.745  24.391  27.521  0.0273  0.0992  0.0171
44930DOD     C378611  14.982  24.157  27.794  0.1250  0.0141  0.1469
44931DOD     C178612  21.351  11.701  23.680  0.0698 -0.0093 -0.2181
44931DOD     C278613  21.051  11.401  23.616 -0.2276 -0.1123 -0.0847
44931DOD     C378614  20.586  11.358  23.564  0.4093  0.0043  0.0460
44932DOD     C178615  24.865  14.315  29.103  0.1349  0.1875  0.0537
44932DOD     C278616  25.022  14.433  28.698  0.0587  0.1555 -0.3068
44932DOD     C378617  25.001  14.648  28.316  0.0672 -0.1079 -0.2048
44933DOD     C178618  28.723   1.398   7.308 -0.0329 -0.2243 -0.1250
44933DOD     C278619  29.020   1.550   7.665  0.0385  0.2094 -0.1968
44933DOD     C378620  29.289   1.787   7.937 -0.0182 -0.1463  0.2673
44934DOD     C178621   7.516   5.691  15.676  0.0465 -0.2503 -0.0352
44934DOD     C278622   7.432   6.154  15.767  0.1608  0.1813 -0.2894
44934DOD     C378623   7.249   6.490  15.999  0.3174  0.3027  0.1077
44935DOD     C178624   5.594   1.147  16.899  0.0708  0.0208  0.0576
44935DOD     C278625   6.012   1.175  16.915 -0.0446  0.1283 -0.2445
44935DOD     C378626   6.446   1.206  16.713 -0.1569 -0.2307 -0.1309
44936DOD     C178627   3.481  20.634  10.563  0.0432 -0.1168 -0.2223
44936DOD     C278628   3.542  20.895  10.197 -0.0194  0.4024  0.0490
44936DOD     C378629   3.545  21.312  10.116  0.0688 -0.2125  0.0068
44937DOD     C178630  12.274   4.194  27.767  0.1219 -0.0792 -0.1622
44937DOD     C278631  12.406   3.883  28.078  0.2951  0.1155 -0.2411
44937DOD     C378632  12.764   3.742  28.326 -0.0251 -0.1246 -0.0226
44938DOD     C178633   5.130  17.718  28.229  0.1967  0.2082 -0.0498
44938DOD     C278634   5.485  18.017  28.154  0.0872  0.2184 -0.2240
44938DOD     C378635   5.835  18.296  28.208  0.0530 -0.2888  0.1084
44939DOD     C178636  16.355   9.338  10.690  0.0053 -0.0190  0.0387
44939DOD     C278637  16.641   9.705  10.840  0.0700  0.1703  0.0565
44939DOD     C378638  16.697  10.002  11.213  0.0640  0.2126  0.0118
44940DOD     C178639  27.336  13.706  16.052 -0.0820  0.1203 -0.0238
44940DOD     C278640  27.626  14.027  15.893  0.0371 -0.1029 -0.0882
44940DOD     C378641  27.864  14.424  15.909 -0.4087 -0.3045 -0.1256
44941DOD     C178642  27.879  20.179  13.599  0.1512  0.1240 -0.1924
44941DOD     C278643  27.415  20.247  13.611 -0.2113 -0.0585  0.1433
44941DOD     C378644  27.100  20.358  13.232 -0.1179  0.0844  0.0117
44942DOD     C178645   2.498   1.479  22.020  0.0342 -0.1088 -0.0752
44942DOD     C278646   2.570   1.014  22.163 -0.2901 -0.0517 -0.0824
44942DOD     C378647   2.700   0.563  22.062 -0.2437  0.0911 -0.1480
44943DOD     C178648  30.095  10.794  12.392 -0.1984 -0.0321  0.2727
44943DOD     C278649  30.169  11.252  12.491 -0.0627 -0.1507  0.1399
44943DOD     C378650  30.319  11.658  12.648  0.2786  0.0412  0.0057
44944DOD     C178651  18.717  23.370  22.914 -0.0131 -0.2470  0.1134
44944DOD     C278652  18.451  23.436  22.562 -0.2755 -0.2706  0.0746
44944DOD     C378653  17.984  23.484  22.522  0.0547  0.1643 -0.0404
44945DOD     C178654  27.860  11.054   2.298 -0.0766 -0.1154 -0.3600
44945DOD     C278655  28.280  11.021   2.045 -0.0313  0.1042  0.1748
44945DOD     C378656  28.714  11.124   2.175  0.0293 -0.2267 -0.4970
44946DOD     C178657   5.066  25.235  21.839 -0.1797 -0.0913 -0.1956
44946DOD     C278658   5.513  25.194  22.006  0.0916 -0.4509  0.3258
44946DOD     C378659   5.985  25.218  21.829  0.0131 -0.0643  0.1832
44947DOD     C178660  19.520  16.110  28.308 -0.2800 -0.1233  0.1064
44947DOD     C278661  19.273  16.019  27.920 -0.0671  0.1349 -0.2034
44947DOD     C378662  18.860  15.901  27.689  0.0656  0.1060 -0.2021
44948DOD     C178663   0.820  19.494  25.065 -0.1514 -0.1086 -0.2947
44948DOD     C278664   1.136  19.134  24.918 -0.0799 -0.2330  0.0119
44948DOD     C378665   1.206  18.717  25.048  0.1301  0.1335  0.3183
44949DOD     C178666  11.449  14.222   4.146  0.2723 -0.1451 -0.2546
44949DOD     C278667  11.489  14.538   4.482 -0.0559 -0.1186 -0.1963
44949DOD     C378668  11.846  14.701   4.709 -0.0325  0.0116  0.0530
44950DOD     C178669  24.714  15.672   5.611  0.4559  0.0151 -0.1752
44950DOD     C278670  24.344  15.862   5.416 -0.0370 -0.0006  0.1109
44950DOD     C378671  24.157  16.099   5.102  0.0402 -0.4839  0.0348
44951DOD     C178672  24.748  27.492  27.944  0.2091 -0.0278 -0.0357
44951DOD     C278673  24.334  27.528  27.665  0.0181 -0.1865 -0.0561
44951DOD     C378674  23.988  27.545  27.378  0.1146  0.3353 -0.0966
44952DOD     C178675   2.538   4.065  26.445  0.3786  0.1183 -0.1057
44952DOD     C278676   2.873   3.774  26.306  0.0388 -0.1844 -0.2377
44952DOD     C378677   2.931   3.561  25.886 -0.0216 -0.2883  0.0224
44953DOD     C178678  26.521  12.323   1.824  0.0280 -0.0044  0.0457
44953DOD     C278679  26.531  12.456   2.198  0.0723 -0.2581 -0.2158
44953DOD     C378680  26.784  12.369   2.523 -0.0537 -0.0468  0.0037
44954DOD     C178681  14.822  18.358  16.042  0.1157 -0.2593 -0.1311
44954DOD     C278682  15.123  18.419  15.718 -0.2414 -0.0764  0.0236
44954DOD     C378683  15.125  18.617  15.251 -0.0767  0.1377  0.2965
44955DOD     C178684  28.725  13.294  29.818 -0.0770 -0.1042 -0.1598
44955DOD     C278685  28.909  12.914  29.759 -0.3046 -0.1888  0.0254
44955DOD     C378686  29.216  12.633  29.491  0.0179  0.1731 -0.3272
44956DOD     C178687  15.039  21.345  22.363 -0.1543  0.2184  0.2863
44956DOD     C278688  14.619  21.568  22.289 -0.1796 -0.0837  0.0906
44956DOD     C378689  14.174  21.479  22.422 -0.0833  0.2309  0.1465
44957DOD     C178690  12.913   8.963  16.433 -0.4034  0.0487  0.1367
44957DOD     C278691  12.677   9.364  16.439 -0.1952  0.4078 -0.1408
44957DOD     C378692  12.256   9.574  16.524 -0.0149  0.3060  0.0726
44958DOD     C178693  14.694  24.033  23.176 -0.2640  0.1772 -0.0113
44958DOD     C278694  14.860  23.727  23.502  0.0987 -0.1242 -0.0130
44958DOD     C378695  15.318  23.657  23.579  0.0233  0.0519 -0.0014
44959DOD     C178696  24.750  10.478   5.051 -0.0110  0.3110  0.1061
44959DOD     C278697  24.392  10.396   5.406 -0.5644 -0.0020  0.0389
44959DOD     C378698  24.097  10.628   5.627 -0.0367 -0.0572 -0.2973
44960DOD     C178699  14.300  18.222  13.797  0.4483 -0.2755 -0.0643
44960DOD     C278700  14.593  17.945  14.013 -0.2445  0.3660 -0.2244
44960DOD     C378701  14.428  17.574  14.323 -0.0007 -0.2999  0.1794
44961DOD     C178702   2.730  22.147  15.689 -0.2433  0.0680  0.1018
44961DOD     C278703   2.456  22.002  16.041  0.1460 -0.0881  0.0918
44961DOD     C378704   2.222  21.714  16.358  0.2635  0.0604  0.1915
44962DOD     C178705  24.361   0.338  29.273  0.0585  0.0087 -0.2093
44962DOD     C278706  24.010   0.451  29.077 -0.3006  0.0809 -0.0773
44962DOD     C378707  23.881   0.274  28.726 -0.0733 -0.3044 -0.1197
44963DOD     C178708  28.809   4.274   9.106 -0.2030  0.4388 -0.2981
44963DOD     C278709  28.497   3.952   9.056  0.1989  0.0511 -0.2189
44963DOD     C378710  28.035   3.997   8.869 -0.0571  0.0388  0.1705
44964DOD     C178711   9.789  20.326  15.776  0.1674 -0.1901 -0.0199
44964DOD     C278712  10.141  20.417  16.038  0.1264  0.0359  0.1004
44964DOD     C378713  10.589  20.360  15.990  0.2140 -0.0312  0.1179
44965DOD     C178714  14.488   9.870  17.051  0.2208  0.3112  0.0532
44965DOD     C278715  14.446   9.890  16.584 -0.0117  0.0916  0.1589
44965DOD     C378716  14.711   9.865  16.165 -0.2313 -0.1747  0.2558
44966DOD     C178717   5.739  15.671  23.109 -0.1786 -0.0839  0.1627
44966DOD     C278718   6.083  15.927  23.248 -0.0231  0.1136  0.0698
44966DOD     C378719   6.474  16.066  23.434 -0.1434 -0.0483  0.1516
44967DOD     C178720   1.899  10.095  22.538  0.1737  0.0538  0.0522
44967DOD     C278721   1.629  10.457  22.501 -0.0423  0.0475  0.0584
44967DOD     C378722   1.632  10.927  22.360 -0.3332 -0.0174  0.4508
44968DOD     C178723  17.917   4.586   7.127 -0.0006 -0.2103  0.1020
44968DOD     C278724  18.353   4.774   7.216  0.1707  0.2488 -0.4243
44968DOD     C378725  18.717   4.767   6.922  0.0092 -0.0195  0.2120
44969DOD     C178726  27.824   0.232  22.943  0.3278  0.0624 -0.3478
44969DOD     C278727  27.884   0.078  23.368 -0.1293 -0.0544 -0.1821
44969DOD     C378728  27.525   0.140  23.628  0.0789 -0.2541 -0.0647
44970DOD     C178729   9.755   1.829  23.524  0.3349 -0.1053  0.0281
44970DOD     C278730   9.533   2.166  23.743  0.0735 -0.1839  0.0301
44970DOD     C378731   9.138   2.522  23.792  0.0664 -0.4902  0.1272
44971DOD     C178732  27.369  19.061  15.989  0.1307 -0.2086 -0.0829
44971DOD     C278733  27.522  19.107  15.506  0.0045  0.1563 -0.0333
44971DOD     C378734  27.443  18.709  15.209  0.0358  0.2391  0.1436
44972DOD     C178735  10.451  26.975   7.661  0.2696  0.2192  0.0395
44972DOD     C278736  10.488  26.584   7.912  0.0465  0.0139  0.3418
44972DOD     C378737  10.409  26.370   8.330  0.0473  0.0385 -0.1844
44973DOD     C178738  27.794   8.425  22.521  0.0276 -0.2001 -0.1267
44973DOD     C278739  27.759   8.486  22.985  0.1143  0.0823  0.2303
44973DOD     C378740  27.714   8.538  23.453  0.1683  0.3458  0.1489
44974DOD     C178741  13.160  29.441   7.387 -0.0441 -0.2986 -0.1520
44974DOD     C278742  13.543  29.679   7.451  0.1552 -0.1071 -0.2590
44974DOD     C378743  13.858  29.879   7.755 -0.0937  0.0519 -0.2531
44975DOD     C178744  23.496  24.503  24.201  0.0710 -0.1228 -0.1085
44975DOD     C278745  23.290  24.871  24.209  0.3003  0.3208 -0.0484
44975DOD     C378746  23.156  25.255  24.442  0.0568  0.0249 -0.1569
44976DOD     C178747  23.250  19.642  29.398 -0.1756 -0.0993 -0.2361
44976DOD     C278748  23.083  20.110  29.274 -0.1982  0.3514 -0.2345
44976DOD     C378749  22.617  20.163  29.181 -0.1389 -0.2361 -0.1893
44977DOD     C178750  27.992  12.071   5.131  0.0996  0.0659 -0.0156
44977DOD     C278751  28.079  11.625   4.965 -0.0592  0.2260  0.0250
44977DOD     C378752  28.376  11.251   5.121  0.2779  0.0243 -0.0029
44978DOD     C178753  12.383   5.650  25.410 -0.2536  0.0664 -0.2131
44978DOD     C278754  12.497   5.811  25.853 -0.1184 -0.1139  0.2183
44978DOD     C378755  12.653   6.032  26.215  0.1083  0.0765 -0.0783
44979DOD     C178756  11.229  17.663  13.577 -0.0536 -0.0367  0.0063
44979DOD     C278757  11.414  18.081  13.558  0.2059 -0.1669 -0.0849
44979DOD     C378758  11.577  18.516  13.274 -0.1091 -0.1128 -0.1458
44980DOD     C178759  27.022  12.803  15.335  0.2146  0.2455  0.0426
44980DOD     C278760  26.766  13.164  15.270  0.1123  0.0511  0.2270
44980DOD     C378761  26.388  13.413  15.329 -0.3462 -0.2019  0.2699
44981DOD     C178762  24.663  24.275  29.976 -0.0388  0.1077  0.3383
44981DOD     C278763  25.094  24.370  30.119 -0.0520  0.1396 -0.0140
44981DOD     C378764  25.527  24.368  30.278 -0.0305 -0.1710  0.1386
44982DOD     C178765  16.400  22.500  17.986 -0.0805 -0.0527  0.1145
44982DOD     C278766  16.067  22.765  18.047 -0.1052  0.4294 -0.5838
44982DOD     C378767  15.840  23.121  17.935 -0.3524  0.1146 -0.0240
44983DOD     C178768   4.987  28.040  29.638 -0.1686  0.2695 -0.0109
44983DOD     C278769   4.829  27.687  29.379  0.2362 -0.2996  0.0521
44983DOD     C378770   4.702  27.308  29.035  0.0521  0.0287 -0.1694
44984DOD     C178771  13.938  11.299   0.386  0.4363 -0.0143 -0.0588
44984DOD     C278772  13.883  10.909   0.642  0.3377 -0.0217  0.0907
44984DOD     C378773  13.744  10.861   1.083 -0.3259  0.0692 -0.1423
44985DOD     C178774   5.600   6.043  19.566  0.2713  0.0721 -0.0136
44985DOD     C278775   5.610   6.440  19.739  0.0006 -0.1420 -0.0005
44985DOD     C378776   5.288   6.642  20.014  0.1680  0.1813 -0.1443
44986DOD     C178777  17.022  24.547  14.730  0.2989 -0.1668 -0.1025
44986DOD     C278778  17.322  24.500  14.389 -0.0148  0.1274 -0.0155
44986DOD     C378779  17.716  24.367  14.147  0.1300 -0.0668  0.1156
44987DOD     C178780  18.079   7.648  13.146  0.2387  0.0566  0.2145
44987DOD     C278781  17.971   7.808  13.588 -0.0584  0.0612 -0.2843
44987DOD     C378782  17.994   7.761  14.069  0.0406 -0.2708  0.2819
44988DOD     C178783  18.381   1.297  12.697  0.1986 -0.1967 -0.0297
44988DOD     C278784  17.964   1.457  12.731 -0.0559 -0.0819  0.1091
44988DOD     C378785  17.489   1.402  12.889  0.4155  0.1094  0.1429
44989DOD     C178786  11.698   2.836  21.249  0.5265  0.2301 -0.0560
44989DOD     C278787  11.804   2.509  21.521 -0.2472  0.2165  0.1178
44989DOD     C378788  12.047   2.129  21.560 -0.0688 -0.2249  0.1273
44990DOD     C178789  27.937  26.610  11.189 -0.3085 -0.2244  0.1994
44990DOD     C278790  27.612  26.822  11.501 -0.1965  0.0416 -0.0405
44990DOD     C378791  27.583  27.240  11.779  0.0415 -0.1396 -0.0729
44991DOD     C178792  15.721  29.322  15.841  0.1517  0.1908 -0.0525
44991DOD     C278793  16.057  29.627  15.741 -0.1665  0.1334 -0.1731
44991DOD     C378794  16.470  29.888  15.847  0.2483  0.1036 -0.1080
44992DOD     C178795  28.613   0.275  16.779 -0.2500  0.2998  0.0526
44992DOD     C278796  28.428   0.304  17.194 -0.2111  0.0082 -0.0446
44992DOD     C378797  28.544   0.057  17.620  0.1101  0.0141 -0.0009
44993DOD     C178798   0.749   8.057  24.789 -0.4172 -0.1906  0.1630
44993DOD     C278799   0.600   8.289  25.135  0.0768 -0.0370  0.0375
44993DOD     C378800   0.781   8.360  25.576 -0.2107 -0.1222 -0.0740
44994DOD     C178801   0.067  29.059  29.922  0.0177  0.1201 -0.1801
44994DOD     C278802  30.248  29.226  29.566 -0.1063  0.0106  0.2434
44994DOD     C378803  30.236  29.050  29.103  0.0236 -0.0337 -0.0408
44995DOD     C178804  19.915  15.804  19.908 -0.0096 -0.1660  0.0542
44995DOD     C278805  20.110  15.763  20.347  0.1407  0.2270  0.1220
44995DOD     C378806  20.091  15.991  20.780 -0.2605  0.0104  0.1009
44996DOD     C178807   2.898  29.326  29.830 -0.1627  0.2781 -0.1668
44996DOD     C278808   2.984  29.513  29.338  0.0359  0.1323 -0.0242
44996DOD     C378809   3.138  29.873  29.038 -0.1082 -0.0374 -0.0740
44997DOD     C178810  13.480   2.968  24.505 -0.2367 -0.0918  0.0949
44997DOD     C278811  13.253   2.653  24.681  0.1187  0.0386 -0.2505
44997DOD     C378812  12.790   2.447  24.614 -0.3722 -0.1243  0.1971
44998DOD     C178813  17.434  26.217  14.749  0.0931 -0.1165 -0.1335
44998DOD     C278814  17.629  25.897  14.976 -0.1782 -0.0046  0.0385
44998DOD     C378815  17.870  25.602  15.217  0.1950  0.1535 -0.2000
44999DOD     C178816  25.364  28.183  14.836  0.0510 -0.2844  0.1018
44999DOD     C278817  24.951  28.086  14.841  0.1064  0.0437 -0.0149
44999DOD     C378818  24.531  28.020  14.613  0.0676  0.2528  0.0650
45000DOD     C178819  21.002  18.182   8.429 -0.1702 -0.0355 -0.2747
45000DOD     C278820  20.634  17.994   8.257  0.2594 -0.3521 -0.1561
45000DOD     C378821  20.349  17.852   7.985  0.2654  0.2924  0.3465
45001DOD     C178822  13.969   5.379  20.027 -0.1919  0.0453  0.2786
45001DOD     C278823  13.673   5.014  19.914  0.0913 -0.1516  0.0002
45001DOD     C378824  13.644   4.719  19.577  0.0839 -0.0830  0.2023
45002DOD     C178825  21.138  26.123  20.906  0.0585 -0.0176  0.1978
45002DOD     C278826  20.755  26.054  21.106 -0.0380 -0.0667  0.1758
45002DOD     C378827  20.401  25.914  21.335 -0.0337  0.1886 -0.0947
45003DOD     C178828  29.661  20.364  28.167  0.0968  0.1442  0.1299
45003DOD     C278829  30.113  20.180  28.078  0.2642  0.0177  0.1483
45003DOD     C378830  30.151  19.971  27.735  0.0250  0.1041  0.0236
45004DOD     C178831  21.420  18.679   4.848  0.0755  0.2304  0.1902
45004DOD     C278832  21.047  18.639   4.625 -0.0150  0.1564  0.0353
45004DOD     C378833  20.602  18.473   4.721  0.0341 -0.2440  0.1213
45005DOD     C178834   3.700  13.333   9.983 -0.2785  0.0563 -0.1185
45005DOD     C278835   3.431  13.573   9.709  0.0814  0.2982  0.1956
45005DOD     C378836   2.975  13.637   9.700 -0.0816  0.0246  0.0781
45006DOD     C178837  20.111  24.788  22.169 -0.1774  0.1988  0.3003
45006DOD     C278838  20.014  25.119  21.802 -0.0382 -0.0220 -0.1972
45006DOD     C378839  20.310  25.150  21.390  0.1025  0.3197 -0.1325
45007DOD     C178840  27.236  12.097  24.291  0.1616  0.2408  0.1289
45007DOD     C278841  26.945  12.214  23.949  0.3714 -0.0986 -0.1051
45007DOD     C378842  26.696  12.544  23.706  0.1135 -0.0499  0.3910
45008DOD     C178843  20.620  30.041  17.382  0.0874 -0.1178  0.1269
45008DOD     C278844  20.203  30.121  17.467 -0.0310 -0.3162  0.2057
45008DOD     C378845  20.040  30.299  17.844 -0.0354  0.3832 -0.1462
45009DOD     C178846   7.851   5.532  11.553 -0.3757  0.0717 -0.0641
45009DOD     C278847   7.690   5.605  11.993  0.1631 -0.3826  0.0395
45009DOD     C378848   7.754   5.705  12.466 -0.2026  0.1847  0.1930
45010DOD     C178849  17.636  17.699   2.061 -0.1875  0.0728 -0.0937
45010DOD     C278850  17.695  17.901   1.654  0.1002 -0.1890  0.3754
45010DOD     C378851  17.577  18.326   1.507  0.1698 -0.1554  0.2666
45011DOD     C178852   1.553   5.410   7.681  0.0648 -0.0533  0.1933
45011DOD     C278853   1.125   5.580   7.470 -0.2724 -0.2596  0.3407
45011DOD     C378854   0.745   5.787   7.267  0.0048  0.0028 -0.0863
45012DOD     C178855  25.936  26.184   3.567 -0.0992  0.0017  0.1790
45012DOD     C278856  25.773  25.909   3.869 -0.3126  0.0750  0.1011
45012DOD     C378857  25.535  25.735   4.201 -0.0965 -0.0143  0.2324
45013DOD     C178858   0.073   9.743   0.671 -0.0179 -0.1205 -0.3606
45013DOD     C278859   0.164   9.522   0.260  0.1869 -0.2067  0.1899
45013DOD     C378860   0.297   9.020   0.218 -0.4048  0.1551 -0.1068
45014DOD     C178861   2.476   2.473   3.274 -0.2983 -0.0912 -0.1896
45014DOD     C278862   2.107   2.249   3.057 -0.0705  0.0618 -0.3913
45014DOD     C378863   1.766   2.480   2.857  0.1520 -0.1264 -0.2129
45015DOD     C178864  12.246   5.250  20.701 -0.0183  0.1748  0.0349
45015DOD     C278865  11.807   5.219  20.564 -0.1622 -0.1100  0.1016
45015DOD     C378866  11.388   5.158  20.412  0.3133  0.0759  0.1122
45016DOD     C178867  26.239  18.732   3.714 -0.0256  0.0219 -0.0480
45016DOD     C278868  25.952  18.728   4.142 -0.2564 -0.1651  0.4830
45016DOD     C378869  25.587  18.900   4.386  0.1431 -0.0010  0.2249
45017DOD     C178870   7.821  11.605   5.767  0.1161  0.1066 -0.1631
45017DOD     C278871   7.786  11.406   6.179 -0.1367  0.0450 -0.0924
45017DOD     C378872   7.744  11.018   6.397 -0.2073 -0.0020  0.1914
45018DOD     C178873  26.404  23.424  22.030 -0.1629 -0.0885  0.2043
45018DOD     C278874  26.143  23.642  22.325  0.0514  0.1290 -0.2065
45018DOD     C378875  25.896  23.911  22.650 -0.0352 -0.2529  0.2089
45019DOD     C178876  26.159  24.852   4.983 -0.1381 -0.1605 -0.3435
45019DOD     C278877  26.235  24.448   4.878  0.3834  0.1482 -0.3803
45019DOD     C378878  26.017  24.043   4.990 -0.1467 -0.0225  0.0564
45020DOD     C178879  27.170  21.889   1.481 -0.4497 -0.2096 -0.4151
45020DOD     C278880  27.506  22.077   1.248 -0.0216  0.1857  0.4141
45020DOD     C378881  27.916  22.206   1.016 -0.2905  0.1664 -0.1398
45021DOD     C178882  14.196  23.239  10.865  0.2188  0.0689  0.1153
45021DOD     C278883  13.973  23.162  10.432  0.2788 -0.0821 -0.0473
45021DOD     C378884  13.747  23.505  10.245 -0.1447 -0.1155  0.2127
45022DOD     C178885   2.187  25.705   5.266 -0.1080  0.1413 -0.1455
45022DOD     C278886   2.369  26.033   4.969 -0.1365 -0.3940 -0.1888
45022DOD     C378887   2.504  26.408   4.707  0.1298  0.0602  0.3498
45023DOD     C178888  27.628  25.401   3.891 -0.0378 -0.1692 -0.2170
45023DOD     C278889  27.362  25.461   3.485  0.2554  0.2192  0.2180
45023DOD     C378890  27.412  25.434   3.023 -0.0664 -0.0245  0.0036
45024DOD     C178891  28.217  19.629   4.901  0.1986  0.0397  0.0633
45024DOD     C278892  28.508  19.890   4.697  0.3363  0.0978 -0.0440
45024DOD     C378893  28.699  20.245   4.482 -0.1705 -0.0675  0.0771
45025DOD     C178894  14.902   2.733  19.428  0.0396  0.1710  0.2074
45025DOD     C278895  15.105   2.330  19.513 -0.1649  0.1002  0.4159
45025DOD     C378896  15.507   2.235  19.353  0.2581  0.0930  0.0570
45026DOD     C178897   3.283  28.052  20.207  0.1829  0.1458  0.1173
45026DOD     C278898   3.246  27.747  19.819  0.1062  0.1741  0.1415
45026DOD     C378899   3.352  27.360  19.614  0.1526  0.0238 -0.0093
45027DOD     C178900  13.736   7.085  26.841 -0.1759 -0.0200  0.0581
45027DOD     C278901  13.444   6.804  26.736 -0.2440  0.1043 -0.1448
45027DOD     C378902  13.110   6.585  26.899  0.3960  0.1557  0.0540
45028DOD     C178903   8.135  28.106   4.982 -0.0134  0.1198  0.0555
45028DOD     C278904   8.626  28.081   5.080  0.1387  0.0421  0.2393
45028DOD     C378905   9.071  28.103   5.072 -0.0576  0.3523  0.2214
45029DOD     C178906  14.854  16.382  13.441 -0.2419 -0.0139 -0.2535
45029DOD     C278907  15.295  16.586  13.283  0.0769  0.1844  0.1313
45029DOD     C378908  15.659  16.540  13.051 -0.2023 -0.1488  0.0718
45030DOD     C178909   2.787  18.833  24.406  0.0647  0.3158 -0.0391
45030DOD     C278910   2.689  18.853  24.890 -0.1305  0.2270 -0.0627
45030DOD     C378911   2.471  18.908  25.318  0.0540  0.0684 -0.0680
45031DOD     C178912  20.696  22.614  13.446  0.1050  0.0762 -0.2859
45031DOD     C278913  20.232  22.599  13.604  0.0258 -0.1212  0.0412
45031DOD     C378914  19.832  22.323  13.713 -0.1344  0.0303 -0.0231
45032DOD     C178915   2.586  27.372  13.506 -0.3521 -0.0397 -0.4650
45032DOD     C278916   2.247  27.107  13.680  0.3035 -0.0377 -0.1777
45032DOD     C378917   2.163  26.616  13.635  0.0903 -0.1166 -0.0953
45033DOD     C178918   1.166   5.035  15.357  0.1702 -0.3161  0.2013
45033DOD     C278919   1.656   5.148  15.320  0.0254 -0.0182 -0.1415
45033DOD     C378920   1.960   5.473  15.428 -0.0813 -0.1413  0.2405
45034DOD     C178921   3.080  20.263  22.409  0.0332  0.0450  0.0713
45034DOD     C278922   3.543  20.188  22.629  0.2020 -0.0514  0.2729
45034DOD     C378923   3.629  20.543  22.953  0.1318 -0.2521 -0.0244
45035DOD     C178924   2.314   1.546  27.375  0.0189  0.1923 -0.3762
45035DOD     C278925   2.279   1.134  27.664  0.2822  0.1677 -0.3757
45035DOD     C378926   2.401   0.683  27.735  0.2742  0.0296  0.0804
45036DOD     C178927   8.636  21.141   0.980  0.2455 -0.0180  0.1316
45036DOD     C278928   8.306  20.938   0.776 -0.1026 -0.3947  0.0289
45036DOD     C378929   8.059  20.650   0.495  0.0290  0.5127  0.2141
45037DOD     C178930  13.641   7.142  24.264 -0.3146 -0.3554 -0.2215
45037DOD     C278931  13.231   7.450  24.344 -0.0394 -0.1121  0.1500
45037DOD     C378932  13.143   7.903  24.512 -0.0390  0.0857  0.0663
45038DOD     C178933   3.000  28.180  18.368  0.5463 -0.0072 -0.1003
45038DOD     C278934   2.550  28.258  18.448 -0.4305  0.1347 -0.2056
45038DOD     C378935   2.227  28.603  18.311 -0.0861  0.2819  0.0753
45039DOD     C178936   9.926   6.453  23.558 -0.0117 -0.2699 -0.1081
45039DOD     C278937  10.093   6.683  23.947  0.1942  0.0414 -0.1012
45039DOD     C378938  10.114   6.515  24.366 -0.1054 -0.1137 -0.0214
45040DOD     C178939   4.833  12.426  23.832 -0.1270 -0.0378 -0.3624
45040DOD     C278940   4.471  12.216  23.606 -0.0469 -0.3584 -0.0007
45040DOD     C378941   4.341  12.106  23.177  0.0456 -0.1861 -0.2036
45041DOD     C178942  19.125   1.002   3.298 -0.0049  0.2465  0.3105
45041DOD     C278943  18.744   1.118   3.570 -0.2218 -0.1173  0.0878
45041DOD     C378944  18.298   1.117   3.728 -0.1190 -0.0083 -0.0691
45042DOD     C178945  27.546  25.971   1.826  0.0777  0.1455  0.2352
45042DOD     C278946  27.712  25.710   1.467  0.2121  0.2882 -0.1826
45042DOD     C378947  27.680  25.279   1.582 -0.0217  0.0370  0.2689
45043DOD     C178948  20.763  26.793  13.315  0.0052 -0.1003 -0.1652
45043DOD     C278949  20.651  26.695  12.873  0.1927  0.0753  0.1724
45043DOD     C378950  20.340  26.780  12.448 -0.1183 -0.0271  0.0554
45044DOD     C178951  22.644  19.180  20.349  0.1622  0.1312 -0.1584
45044DOD     C278952  22.441  18.878  20.068  0.1521  0.3103 -0.1183
45044DOD     C378953  22.186  18.470  19.952 -0.3540  0.0813 -0.0008
45045DOD     C178954   7.910   6.130  18.919  0.2247  0.2334  0.1718
45045DOD     C278955   8.204   5.724  18.906  0.0794 -0.4105 -0.0101
45045DOD     C378956   8.381   5.343  19.114 -0.0479 -0.2824  0.0358
45046DOD     C178957   5.532   7.473  13.750  0.1350  0.1500  0.0500
45046DOD     C278958   5.746   7.837  13.756 -0.2285 -0.0363  0.0077
45046DOD     C378959   6.106   8.022  13.993  0.0429  0.0546  0.3759
45047DOD     C178960  24.246   6.106  22.380  0.2347  0.1472  0.0413
45047DOD     C278961  24.649   6.188  22.261  0.1133 -0.0644 -0.3072
45047DOD     C378962  25.102   6.308  22.334  0.1313 -0.2712  0.0356
45048DOD     C178963  26.567   9.208   5.030 -0.0846  0.1465  0.1202
45048DOD     C278964  26.905   9.382   5.288 -0.3213 -0.0897  0.0823
45048DOD     C378965  27.292   9.336   5.510  0.0799  0.2235 -0.0412
45049DOD     C178966   5.371  22.616   5.682 -0.0411 -0.1641 -0.2171
45049DOD     C278967   5.245  22.854   5.306  0.1617  0.1637  0.1371
45049DOD     C378968   5.000  22.988   4.943 -0.1741 -0.0715 -0.0818
45050DOD     C178969  18.078  21.852  17.062  0.0473  0.1402  0.1461
45050DOD     C278970  17.746  21.529  17.074  0.2706  0.6502  0.2933
45050DOD     C378971  17.732  21.076  16.853 -0.2371 -0.3638  0.2763
45051DOD     C178972  29.127  27.308   7.004  0.1181  0.0223 -0.1362
45051DOD     C278973  29.124  27.719   7.200  0.1104 -0.2071  0.0783
45051DOD     C378974  29.319  27.893   7.529  0.1109 -0.0601  0.2688
45052DOD     C178975   6.103   5.938  17.090 -0.1922 -0.1752 -0.0029
45052DOD     C278976   5.653   5.812  17.172  0.1043 -0.2823 -0.1066
45052DOD     C378977   5.224   5.897  17.341 -0.0040 -0.1674  0.0745
45053DOD     C178978   8.483   8.375  25.832  0.1299 -0.0249  0.0154
45053DOD     C278979   8.797   8.071  25.670 -0.0510  0.1777  0.1058
45053DOD     C378980   9.106   7.729  25.583 -0.0092  0.0002 -0.1102
45054DOD     C178981  13.676   8.142   9.156  0.0171  0.2732 -0.1487
45054DOD     C278982  13.765   7.837   9.509 -0.3460 -0.0342  0.0308
45054DOD     C378983  13.659   7.603   9.961  0.0182 -0.0824  0.3126
45055DOD     C178984  20.593  11.988  17.752 -0.0818  0.2799  0.0036
45055DOD     C278985  20.504  12.350  18.006 -0.3229  0.3482 -0.0871
45055DOD     C378986  20.782  12.708  18.185  0.2813 -0.1435 -0.0420
45056DOD     C178987  17.722  19.739  15.238 -0.3026 -0.2063 -0.1345
45056DOD     C278988  17.380  19.806  14.976  0.1343  0.3298  0.2558
45056DOD     C378989  17.048  20.023  14.671  0.0028  0.2200 -0.1602
45057DOD     C178990   3.983  16.677  14.401  0.0222 -0.0300 -0.2209
45057DOD     C278991   3.548  16.786  14.616  0.2007 -0.1961  0.0209
45057DOD     C378992   3.173  16.510  14.818 -0.0796 -0.0075 -0.1824
45058DOD     C178993  22.206   9.351  13.316 -0.1864  0.3663 -0.3249
45058DOD     C278994  22.405   9.504  13.695  0.3418 -0.1208 -0.0659
45058DOD     C378995  22.848   9.433  13.831  0.1639 -0.3046  0.0607
45059DOD     C178996  23.500  28.184  11.316  0.1944 -0.0319  0.0014
45059DOD     C278997  23.676  28.613  11.412 -0.0961 -0.3201 -0.0159
45059DOD     C378998  23.808  28.794  11.771 -0.0505  0.0725  0.0362
45060DOD     C178999  28.438   8.882   4.696  0.0894  0.4683  0.1810
45060DOD     C279000  28.370   8.712   4.234  0.0533 -0.0372  0.0021
45060DOD     C379001  28.003   8.492   3.990  0.0464  0.0564 -0.0400
45061DOD     C179002   5.435   2.145  11.268 -0.1547  0.1282 -0.2463
45061DOD     C279003   5.298   2.485  11.524 -0.1618  0.0034  0.0383
45061DOD     C379004   5.003   2.645  11.827 -0.1414 -0.4717  0.3156
45062DOD     C179005   7.843  29.539   4.383 -0.0786 -0.1503  0.0556
45062DOD     C279006   7.478  29.785   4.483  0.2689  0.1914  0.2933
45062DOD     C379007   7.198  30.213   4.479  0.0800  0.4076  0.0798
45063DOD     C179008   6.247  16.378   9.345  0.0142 -0.2546  0.0331
45063DOD     C279009   6.054  16.777   9.160  0.1683 -0.1202 -0.0021
45063DOD     C379010   6.134  17.222   8.981 -0.2555 -0.0141 -0.2382
45064DOD     C179011  26.877  23.714  24.860  0.1046 -0.0932  0.3356
45064DOD     C279012  26.425  23.498  24.948 -0.0362 -0.1856  0.0427
45064DOD     C379013  26.126  23.182  24.950 -0.0843 -0.3101  0.2433
45065DOD     C179014   9.063  21.429   7.944 -0.1721  0.0850 -0.0022
45065DOD     C279015   8.748  21.419   7.619 -0.3594  0.3571  0.0574
45065DOD     C379016   8.314  21.458   7.548 -0.0244  0.0774  0.1756
45066DOD     C179017   8.204   6.296   3.808  0.0662  0.3659  0.0289
45066DOD     C279018   8.142   5.943   3.458 -0.1086 -0.0246  0.1889
45066DOD     C379019   7.851   5.856   3.108  0.2258  0.1394  0.0281
45067DOD     C179020   3.716   1.120  13.052 -0.0075 -0.1118 -0.2193
45067DOD     C279021   3.623   0.675  13.301 -0.4108  0.0188 -0.2442
45067DOD     C379022   3.283   0.409  13.233 -0.0737 -0.1364 -0.2219
45068DOD     C179023   5.901   1.294   4.934  0.1266 -0.0618 -0.2959
45068DOD     C279024   5.882   0.962   5.279  0.0367  0.1188 -0.1501
45068DOD     C379025   5.527   0.666   5.391  0.1396  0.0086  0.0504
45069DOD     C179026  12.014  20.010  30.166  0.2930 -0.0431  0.0857
45069DOD     C279027  12.411  20.359  30.149  0.2338  0.0572  0.2146
45069DOD     C379028  12.788  20.565  29.840  0.0908 -0.3571 -0.0952
45070DOD     C179029  25.911  13.826   4.057  0.2746  0.0156  0.1702
45070DOD     C279030  25.513  13.900   3.880 -0.0668 -0.1135  0.1439
45070DOD     C379031  25.378  14.022   3.401  0.3091  0.1358 -0.3669
45071DOD     C179032  11.667  24.548  28.899  0.0290 -0.0125  0.0069
45071DOD     C279033  12.016  24.554  29.172 -0.2418  0.3380 -0.0816
45071DOD     C379034  12.416  24.361  29.204 -0.1254 -0.3093 -0.1043
45072DOD     C179035  21.822  14.053   5.904 -0.1814  0.1427  0.3260
45072DOD     C279036  21.913  13.654   6.189 -0.2894 -0.0392  0.1667
45072DOD     C379037  21.979  13.334   6.459 -0.0933  0.2463  0.0721
45073DOD     C179038  18.390  28.115   9.282  0.0451 -0.1430 -0.1860
45073DOD     C279039  18.057  27.731   9.292 -0.3088 -0.3838 -0.0415
45073DOD     C379040  18.069  27.300   9.392 -0.0155  0.0939 -0.3441
45074DOD     C179041  23.959  27.029  28.530 -0.1552  0.1810  0.0483
45074DOD     C279042  24.072  27.453  28.632 -0.0175  0.0198 -0.0700
45074DOD     C379043  24.010  27.665  28.976 -0.0768 -0.1647 -0.3035
45075DOD     C179044   9.010  27.394   1.448  0.1299 -0.0229  0.1699
45075DOD     C279045   9.479  27.276   1.474  0.1793 -0.0562  0.0545
45075DOD     C379046   9.808  26.975   1.652 -0.1343  0.0809 -0.1911
45076DOD     C179047  24.244  24.751   8.636  0.1018  0.2954 -0.1073
45076DOD     C279048  24.004  25.112   8.538 -0.5193  0.0788 -0.0745
45076DOD     C379049  23.601  25.225   8.331 -0.0520 -0.1543  0.1663
45077DOD     C179050  26.176   9.837  23.804 -0.1275  0.0593  0.0643
45077DOD     C279051  26.630   9.724  23.765 -0.1225  0.0919  0.2411
45077DOD     C379052  27.035   9.608  23.852  0.0378 -0.0408 -0.2118
45078DOD     C179053  11.792  19.973   2.716 -0.2955 -0.0309 -0.1722
45078DOD     C279054  11.602  19.695   2.350 -0.0713 -0.2940 -0.0980
45078DOD     C379055  11.556  19.684   1.864  0.5142 -0.2707  0.2370
45079DOD     C179056  25.441  24.646  17.618 -0.1653 -0.0746  0.0901
45079DOD     C279057  25.575  24.204  17.481 -0.0230 -0.2367 -0.1378
45079DOD     C379058  25.976  24.090  17.228  0.0673  0.1916  0.2817
45080DOD     C179059   8.635   6.604  17.231  0.1195  0.1244 -0.0915
45080DOD     C279060   8.599   7.027  17.091  0.0974 -0.0447 -0.1083
45080DOD     C379061   8.401   7.283  16.729 -0.3087  0.3222  0.0319
45081DOD     C179062  24.794  12.465  11.338 -0.0345  0.3083 -0.1516
45081DOD     C279063  24.803  12.652  11.767 -0.1291  0.0698 -0.1196
45081DOD     C379064  24.673  12.700  12.212  0.0388 -0.0430  0.2247
45082DOD     C179065  20.841  21.020  10.062 -0.3335  0.1063  0.0327
45082DOD     C279066  20.790  20.762   9.695 -0.5045 -0.4453 -0.0478
45082DOD     C379067  20.525  20.656   9.310  0.1033  0.0595 -0.0858
45083DOD     C179068   9.435  10.380  10.609 -0.3334  0.1039  0.2387
45083DOD     C279069   9.563  10.570  10.218  0.1472  0.0512  0.2804
45083DOD     C379070   9.489  11.057  10.091  0.0928 -0.0984  0.0660
45084DOD     C179071   4.884   0.779  21.548 -0.0710  0.2103  0.2185
45084DOD     C279072   5.100   1.062  21.218  0.1008 -0.1596  0.0122
45084DOD     C379073   5.450   1.178  20.952 -0.0158 -0.0971  0.4336
45085DOD     C179074  28.798  19.402  18.696 -0.0559  0.4837 -0.1734
45085DOD     C279075  28.952  19.755  18.515  0.2980  0.0650 -0.1099
45085DOD     C379076  29.403  19.891  18.466 -0.2365 -0.1640 -0.1195
45086DOD     C179077  14.282  16.434   5.448 -0.3580 -0.1196  0.3322
45086DOD     C279078  14.172  16.725   5.110  0.1890  0.2032 -0.0039
45086DOD     C379079  13.980  17.101   4.966  0.2046  0.2094  0.0130
45087DOD     C179080  13.538  11.011  21.455 -0.0286 -0.0068 -0.1912
45087DOD     C279081  13.133  10.768  21.493  0.0860  0.0561 -0.0136
45087DOD     C379082  13.091  10.363  21.716  0.1367  0.0585 -0.1136
45088DOD     C179083  14.590  10.311  11.433  0.0889  0.1448 -0.0831
45088DOD     C279084  14.442  10.091  11.029 -0.1904  0.2844  0.4710
45088DOD     C379085  14.229  10.284  10.673 -0.2340  0.0067 -0.0878
45089DOD     C179086   5.291  13.473  26.850  0.0437  0.0622 -0.0369
45089DOD     C279087   5.480  13.936  26.905 -0.1367 -0.1588  0.3212
45089DOD     C379088   5.803  14.308  26.775  0.0006 -0.0984  0.1527
45090DOD     C179089  21.904  29.888  28.785  0.2913  0.1503 -0.0138
45090DOD     C279090  22.070  30.078  29.182  0.1116  0.0576 -0.0476
45090DOD     C379091  22.402  30.291  29.369 -0.1304  0.1873  0.1227
45091DOD     C179092  13.260  17.235   6.593  0.1855 -0.1359 -0.2529
45091DOD     C279093  13.290  16.951   6.228  0.2434 -0.0611 -0.0874
45091DOD     C379094  13.607  16.775   5.950 -0.2431  0.2988 -0.1076
45092DOD     C179095  27.529   3.805  11.352  0.1593  0.1243  0.1265
45092DOD     C279096  27.919   4.027  11.198 -0.2057 -0.0059 -0.1743
45092DOD     C379097  28.301   4.119  10.920  0.1962  0.1232 -0.1474
45093DOD     C179098   0.807  17.765   7.274  0.0444 -0.0819  0.2811
45093DOD     C279099   0.751  17.296   7.244 -0.0168  0.0635  0.0175
45093DOD     C379100   0.343  17.090   7.411 -0.1039  0.0732 -0.2106
45094DOD     C179101  13.867  18.442  24.373  0.0112  0.0206  0.2408
45094DOD     C279102  13.504  18.275  24.583  0.1597  0.1023 -0.3300
45094DOD     C379103  13.114  18.450  24.795 -0.0868 -0.1115  0.2181
45095DOD     C179104   1.674  24.758  29.096  0.0735 -0.3506 -0.2286
45095DOD     C279105   1.712  24.349  28.908  0.0054  0.0035 -0.4080
45095DOD     C379106   1.750  23.994  28.635 -0.0812  0.0588 -0.4707
45096DOD     C179107  22.068  10.117   1.994  0.1171  0.0265  0.0256
45096DOD     C279108  22.244  10.590   2.033 -0.3029 -0.2422 -0.0263
45096DOD     C379109  22.312  10.994   2.184  0.0448  0.1311 -0.0580
45097DOD     C179110  11.976   1.045  11.970  0.2026  0.0910  0.0076
45097DOD     C279111  12.159   0.896  12.378  0.0874 -0.2605 -0.0330
45097DOD     C379112  12.133   0.505  12.701  0.0992  0.1331 -0.1232
45098DOD     C179113  12.722  24.597  27.908 -0.1324  0.1772  0.1993
45098DOD     C279114  13.117  24.292  27.892 -0.2359 -0.0070  0.1856
45098DOD     C379115  13.565  24.232  27.704  0.1553  0.1504 -0.0558
45099DOD     C179116   7.784   3.783  19.061  0.0828  0.1281  0.0564
45099DOD     C279117   7.632   4.227  18.979 -0.2574 -0.2856  0.0355
45099DOD     C379118   7.447   4.607  18.799 -0.1124 -0.1369  0.0451
45100DOD     C179119  10.583  13.083  11.357 -0.1576  0.2292 -0.1762
45100DOD     C279120  11.018  13.200  11.353  0.3383  0.1866 -0.3414
45100DOD     C379121  11.373  13.440  11.264  0.0914  0.2826  0.1465
45101DOD     C179122   8.856   1.371   3.491 -0.2953 -0.0685 -0.0808
45101DOD     C279123   9.136   1.116   3.779  0.0423 -0.4209  0.1536
45101DOD     C379124   9.172   0.671   3.893 -0.0104 -0.4337  0.0758
45102DOD     C179125  25.587  26.780  15.699 -0.1701 -0.0003  0.1841
45102DOD     C279126  26.045  26.672  15.609 -0.0445 -0.1473  0.1582
45102DOD     C379127  26.169  26.935  15.228 -0.0290 -0.0859 -0.2023
45103DOD     C179128  26.769  16.742   0.391 -0.1266 -0.2031 -0.0977
45103DOD     C279129  26.757  16.350   0.173 -0.2934 -0.4933 -0.1109
45103DOD     C379130  26.562  15.936   0.045  0.1893 -0.3195  0.1533
45104DOD     C179131  29.351  22.222  24.039 -0.0336  0.2012 -0.2068
45104DOD     C279132  28.977  21.941  24.121 -0.0359  0.0530  0.0230
45104DOD     C379133  28.911  21.470  24.061 -0.1913 -0.2318  0.2321
45105DOD     C179134  18.973  10.697  11.367  0.0469  0.0543  0.3241
45105DOD     C279135  18.757  10.940  11.674 -0.1918  0.3125 -0.0216
45105DOD     C379136  18.503  10.905  12.035  0.0699  0.2677  0.1728
45106DOD     C179137  24.026   8.393  18.923  0.1436  0.2131 -0.1271
45106DOD     C279138  24.425   8.247  19.133 -0.1532  0.0785 -0.2925
45106DOD     C379139  24.610   7.886  19.486  0.0980  0.0941  0.0447
45107DOD     C179140  17.705  27.907  27.811  0.1259 -0.0506 -0.1229
45107DOD     C279141  17.821  28.336  27.595 -0.1180 -0.3073 -0.0909
45107DOD     C379142  17.689  28.708  27.363 -0.0312  0.0476  0.1031
45108DOD     C179143  24.608  17.485  17.813 -0.1846  0.1776 -0.1919
45108DOD     C279144  24.493  17.285  18.246  0.1583 -0.0976  0.2647
45108DOD     C379145  24.069  17.272  18.421  0.0523 -0.2894  0.1567
45109DOD     C179146   4.994  11.778  29.661 -0.1756 -0.1422 -0.2285
45109DOD     C279147   5.202  11.641  30.028 -0.3556 -0.3300 -0.2900
45109DOD     C379148   5.515  11.702   0.107  0.0171 -0.1273 -0.1332
45110DOD     C179149   0.846  11.822   3.883 -0.0154  0.1101  0.1739
45110DOD     C279150   0.669  11.851   3.466  0.1675 -0.0193  0.1193
45110DOD     C379151   0.468  11.604   3.113 -0.0529 -0.2698  0.1688
45111DOD     C179152   5.329  26.566   8.722 -0.2453 -0.2013  0.0684
45111DOD     C279153   5.108  26.604   8.334 -0.0229  0.0547 -0.1383
45111DOD     C379154   5.054  26.937   8.092 -0.2931  0.2295 -0.2195
45112DOD     C179155  14.797  21.658  28.089  0.0881  0.1860 -0.1825
45112DOD     C279156  14.345  21.612  28.013 -0.0832 -0.0789 -0.2683
45112DOD     C379157  14.101  21.608  27.606  0.3559 -0.2776 -0.5760
45113DOD     C179158   5.211  24.266   5.967 -0.1353 -0.0654 -0.1326
45113DOD     C279159   5.052  24.249   5.558 -0.1621 -0.2551  0.1065
45113DOD     C379160   5.317  24.038   5.276 -0.1262 -0.4587  0.0116
45114DOD     C179161  16.102  29.188   0.225  0.0417 -0.2082  0.0329
45114DOD     C279162  15.749  28.964   0.406  0.2042  0.0017  0.0034
45114DOD     C379163  15.470  28.683   0.551  0.0831  0.0061  0.0298
45115DOD     C179164  14.009   2.142   4.942 -0.0913 -0.2914  0.1123
45115DOD     C279165  14.350   2.122   4.606 -0.0926 -0.1679 -0.1375
45115DOD     C379166  14.681   2.279   4.307 -0.0582  0.2685 -0.1275
45116DOD     C179167   8.228   1.358  26.069  0.1899 -0.0898  0.2548
45116DOD     C279168   8.080   1.628  26.336 -0.4462  0.1136 -0.2601
45116DOD     C379169   7.794   1.602  26.681  0.1498  0.1626  0.1599
45117DOD     C179170  28.279  16.410  22.617  0.1039  0.2138 -0.1068
45117DOD     C279171  28.615  16.694  22.784  0.0169 -0.0036  0.1948
45117DOD     C379172  28.772  16.962  23.134 -0.1416  0.0382  0.0847
45118DOD     C179173   6.854  22.510   3.014  0.0841 -0.1580  0.4387
45118DOD     C279174   7.104  22.118   2.892 -0.2052  0.0547 -0.0424
45118DOD     C379175   7.082  21.759   3.111 -0.1272 -0.0891  0.0427
45119DOD     C179176   6.926  17.897   4.604  0.0909 -0.0533  0.1194
45119DOD     C279177   6.447  17.955   4.509  0.0015 -0.1832 -0.1614
45119DOD     C379178   6.071  18.016   4.268 -0.1952  0.2131 -0.0700
45120DOD     C179179  25.788  10.214  28.720  0.1311  0.0921  0.1004
45120DOD     C279180  26.051  10.567  28.564 -0.2014  0.0755 -0.2360
45120DOD     C379181  26.266  10.877  28.347  0.2159 -0.1101 -0.2553
45121DOD     C179182   3.224  13.784  10.469 -0.3070 -0.1150  0.1500
45121DOD     C279183   3.550  13.483  10.564  0.2953  0.1352 -0.1246
45121DOD     C379184   3.746  13.064  10.430  0.0677 -0.1129  0.0803
45122DOD     C179185   2.747   0.493  27.381  0.0022 -0.0509 -0.2406
45122DOD     C279186   2.888   0.456  26.936 -0.1844 -0.0927  0.2527
45122DOD     C379187   3.188   0.289  26.623  0.1589  0.0659 -0.1006
45123DOD     C179188  14.315   9.523  17.804 -0.2289 -0.4332  0.3223
45123DOD     C279189  14.633   9.366  17.486  0.0766 -0.0271 -0.1944
45123DOD     C379190  14.911   9.582  17.169  0.1033 -0.0706 -0.3806
45124DOD     C179191  20.288   0.395  14.204 -0.0925 -0.2621 -0.0739
45124DOD     C279192  20.657   0.637  13.958  0.0692  0.1336  0.0545
45124DOD     C379193  20.908   0.966  13.767  0.2071  0.1691 -0.3076
45125DOD     C179194  20.313  17.261  25.104 -0.1868  0.2563 -0.2353
45125DOD     C279195  20.316  16.795  25.188 -0.0639  0.1598  0.1529
45125DOD     C379196  20.128  16.377  25.128 -0.0788 -0.2375 -0.1863
45126DOD     C179197  21.527   9.426  20.898 -0.5129  0.0794  0.0206
45126DOD     C279198  21.104   9.454  21.054 -0.1824  0.0437 -0.0313
45126DOD     C379199  21.158   9.596  21.473  0.2637 -0.1655 -0.0405
45127DOD     C179200   1.746  12.068  14.956 -0.1851 -0.4082 -0.2860
45127DOD     C279201   2.114  11.836  15.111  0.1481  0.4228  0.4150
45127DOD     C379202   2.476  11.603  15.038  0.2393 -0.2657 -0.0181
45128DOD     C179203  11.849   5.038  19.865  0.1217 -0.0271 -0.1284
45128DOD     C279204  11.884   4.668  20.226 -0.3652 -0.0929  0.2000
45128DOD     C379205  12.101   4.772  20.641  0.1976 -0.1633 -0.1430
45129DOD     C179206   3.358  11.277   3.268  0.0460 -0.1570  0.0890
45129DOD     C279207   3.480  11.437   2.827  0.1981  0.0547  0.1858
45129DOD     C379208   3.834  11.245   2.542  0.3768 -0.1403 -0.2723
45130DOD     C179209   8.153  19.430   9.144 -0.0891  0.1957  0.1766
45130DOD     C279210   7.698  19.500   9.014 -0.1283  0.1419 -0.1574
45130DOD     C379211   7.251  19.439   8.833 -0.0183  0.1911 -0.0799
45131DOD     C179212  29.176  21.692   4.570 -0.2133 -0.1617 -0.0444
45131DOD     C279213  29.299  22.124   4.738 -0.0876 -0.0429  0.0666
45131DOD     C379214  29.457  22.545   4.961 -0.0486  0.2970  0.4085
45132DOD     C179215   9.120  24.816  11.639 -0.0265 -0.0327  0.0377
45132DOD     C279216   8.757  24.513  11.550 -0.1350 -0.0059 -0.1243
45132DOD     C379217   8.726  24.123  11.832 -0.1106 -0.3075  0.0417
45133DOD     C179218  17.719  29.322  27.323  0.0256  0.0335 -0.2295
45133DOD     C279219  17.635  29.793  27.253  0.0959 -0.0038 -0.0417
45133DOD     C379220  17.918  30.028  26.999 -0.1372  0.0686  0.4695
45134DOD     C179221  29.937  22.137   7.871  0.5155 -0.1151  0.0489
45134DOD     C279222  29.647  21.841   7.707 -0.3136 -0.2387  0.0336
45134DOD     C379223  29.296  21.549   7.654 -0.2068 -0.1164  0.1216
45135DOD     C179224  18.206  15.399   8.534 -0.1338 -0.0296 -0.1201
45135DOD     C279225  18.549  15.508   8.758 -0.1324 -0.1957 -0.0107
45135DOD     C379226  18.623  15.528   9.201 -0.0774  0.2503  0.0140
45136DOD     C179227  14.012  14.877  22.533  0.0334  0.2050 -0.3177
45136DOD     C279228  14.001  14.687  22.997  0.0644  0.1691  0.2118
45136DOD     C379229  14.013  14.750  23.502  0.0975 -0.0500 -0.2536
45137DOD     C179230  23.279  19.219  24.257  0.0605 -0.1811  0.0402
45137DOD     C279231  23.306  19.689  24.058  0.6732 -0.0525 -0.1139
45137DOD     C379232  23.340  19.748  23.554  0.0092 -0.1639 -0.0678
45138DOD     C179233  23.365  22.775  26.444 -0.2764  0.2839  0.1212
45138DOD     C279234  23.681  22.438  26.359 -0.0689 -0.0642  0.1230
45138DOD     C379235  23.997  22.149  26.584 -0.1258 -0.0510  0.0236
45139DOD     C179236  26.781   1.626  16.420  0.0845 -0.1038 -0.2579
45139DOD     C279237  27.092   1.263  16.471  0.4573  0.1264  0.1491
45139DOD     C379238  27.514   1.193  16.655  0.0877 -0.0873  0.0179
45140DOD     C179239  21.121  14.022  25.789  0.1296 -0.2119  0.0193
45140DOD     C279240  20.833  14.326  25.995  0.2728 -0.3226  0.0777
45140DOD     C379241  20.790  14.790  25.881  0.1677 -0.4506 -0.0699
45141DOD     C179242  13.889  13.659  29.707 -0.0923 -0.1740 -0.0308
45141DOD     C279243  13.903  13.287  29.367  0.0128 -0.1782  0.2084
45141DOD     C379244  14.307  13.273  29.070 -0.0958  0.1824 -0.0533
45142DOD     C179245  16.881  11.513   3.443  0.1064 -0.3429  0.4067
45142DOD     C279246  17.324  11.548   3.357 -0.0145  0.1665  0.0645
45142DOD     C379247  17.659  11.450   3.687 -0.2001  0.1735 -0.0821
45143DOD     C179248   0.180  26.294  10.555  0.1247 -0.1568 -0.0317
45143DOD     C279249   0.424  26.251  10.885  0.3426 -0.1124 -0.4280
45143DOD     C379250   0.614  25.869  11.037  0.1515  0.0131 -0.1342
45144DOD     C179251  11.930   0.255  16.081 -0.0309  0.1195 -0.2204
45144DOD     C279252  12.318   0.149  15.791  0.4199 -0.1458 -0.4243
45144DOD     C379253  12.614   0.343  15.490 -0.1013  0.0998 -0.1593
45145DOD     C179254  17.238  24.887  27.908 -0.1331 -0.3568 -0.2494
45145DOD     C279255  17.667  25.018  27.943 -0.4370  0.0017  0.0084
45145DOD     C379256  18.080  25.275  28.106 -0.0005 -0.0319 -0.0661
45146DOD     C179257  14.256  23.615   6.135 -0.1574  0.3683  0.2795
45146DOD     C279258  14.510  23.783   6.496 -0.0332  0.3208 -0.2822
45146DOD     C379259  14.771  23.701   6.856  0.2379 -0.0568  0.4481
45147DOD     C179260   1.397  17.742  11.375  0.2086  0.1670  0.3254
45147DOD     C279261   1.265  17.550  11.813  0.0975 -0.2162  0.2394
45147DOD     C379262   1.285  17.458  12.258 -0.3660 -0.1875  0.0562
45148DOD     C179263  21.273   0.699   8.277 -0.1623 -0.1662  0.2620
45148DOD     C279264  21.270   1.152   8.433 -0.1878 -0.0564  0.2678
45148DOD     C379265  21.485   1.537   8.539 -0.0025  0.0953 -0.0701
45149DOD     C179266  24.274   9.362  22.583  0.3702 -0.1017  0.0332
45149DOD     C279267  24.548   9.706  22.546  0.1934 -0.1697 -0.4067
45149DOD     C379268  24.951   9.884  22.611  0.2015  0.0335 -0.0526
45150DOD     C179269  26.281  23.837  26.579 -0.1608  0.1767 -0.0375
45150DOD     C279270  26.083  24.064  26.265  0.0615 -0.1899  0.0841
45150DOD     C379271  25.660  24.240  26.086  0.0971  0.0619  0.0322
45151DOD     C179272  29.147  26.720  14.797 -0.2485 -0.0336 -0.0124
45151DOD     C279273  29.339  26.326  14.520  0.0880  0.0803 -0.1341
45151DOD     C379274  29.453  25.863  14.578 -0.0030 -0.0917 -0.0260
45152DOD     C179275  24.251   4.186   8.703 -0.0694 -0.0505 -0.2767
45152DOD     C279276  24.483   3.845   8.461 -0.0035 -0.2090  0.1214
45152DOD     C379277  24.394   3.462   8.281  0.0174  0.3909  0.1110
45153DOD     C179278  18.641  21.432  12.348  0.2364 -0.2864  0.1333
45153DOD     C279279  18.825  21.785  12.605 -0.0888  0.1930  0.4408
45153DOD     C379280  19.021  21.897  13.016 -0.1449  0.0245  0.1873
45154DOD     C179281  14.631  11.656  14.190  0.1809 -0.0915 -0.0944
45154DOD     C279282  15.007  11.440  14.450  0.2164  0.1082 -0.0171
45154DOD     C379283  15.393  11.632  14.650  0.2732 -0.0188  0.0339
45155DOD     C179284  28.047  28.971  13.412 -0.0824  0.1108  0.1573
45155DOD     C279285  28.461  29.164  13.269  0.0135 -0.4800  0.1519
45155DOD     C379286  28.769  29.513  13.215 -0.0507  0.0504 -0.0402
45156DOD     C179287   2.492   4.223   1.548 -0.0502 -0.0120 -0.2354
45156DOD     C279288   2.384   4.562   1.211 -0.1569  0.0793  0.1353
45156DOD     C379289   2.215   4.823   0.897  0.0995 -0.1231 -0.2770
45157DOD     C179290   3.869   5.100  17.276  0.1576 -0.2492  0.0995
45157DOD     C279291   3.448   5.303  17.151 -0.1361 -0.0236  0.3245
45157DOD     C379292   3.179   5.189  16.809  0.2366 -0.1117  0.2681
45158DOD     C179293   9.564  12.914   7.243 -0.0893  0.0085  0.0194
45158DOD     C279294   9.351  13.005   6.786 -0.5027  0.0285  0.1497
45158DOD     C379295   9.046  13.268   6.529  0.1222 -0.0855  0.0575
45159DOD     C179296   2.952  15.251  16.729 -0.1758  0.1098 -0.3968
45159DOD     C279297   2.944  15.728  16.765  0.0572  0.0856  0.1019
45159DOD     C379298   2.805  16.147  16.821 -0.0533 -0.1219  0.0912
45160DOD     C179299  25.528   2.224   0.349 -0.1950  0.2995 -0.1504
45160DOD     C279300  25.427   2.195   0.830  0.0497 -0.0765 -0.0654
45160DOD     C379301  25.679   2.362   1.169  0.3198  0.2231 -0.2795
45161DOD     C179302   7.143   6.110  18.238 -0.0659 -0.1346 -0.3407
45161DOD     C279303   6.939   5.951  18.664  0.2479 -0.2491  0.2256
45161DOD     C379304   6.652   6.085  19.034 -0.3279 -0.1405  0.0763
45162DOD     C179305  19.955  10.781   1.324  0.1905 -0.2061  0.1135
45162DOD     C279306  19.803  11.213   1.392 -0.0764  0.1544 -0.0196
45162DOD     C379307  20.003  11.585   1.323 -0.0890 -0.5209 -0.1711
45163DOD     C179308  24.522  14.509  22.696  0.0113  0.1033 -0.3068
45163DOD     C279309  24.842  14.449  23.033 -0.1747 -0.1082 -0.0362
45163DOD     C379310  24.819  14.391  23.472 -0.1845  0.2883  0.1828
45164DOD     C179311  29.539  20.461  21.874 -0.2581  0.1164 -0.1251
45164DOD     C279312  29.235  20.395  21.509  0.1292  0.0139  0.1221
45164DOD     C379313  28.932  19.993  21.453 -0.3258 -0.0276  0.0602
45165DOD     C179314  21.628  17.385  25.830  0.2918 -0.0524  0.1099
45165DOD     C279315  21.705  17.855  25.729 -0.1885 -0.1473 -0.1393
45165DOD     C379316  21.833  18.287  25.575  0.0664 -0.2381  0.0462
45166DOD     C179317   5.126  25.103  11.270 -0.2566 -0.0805 -0.3492
45166DOD     C279318   5.399  25.449  11.414  0.1310  0.0757 -0.0586
45166DOD     C379319   5.595  25.636  11.746  0.2765  0.0483  0.0615
45167DOD     C179320  15.944   4.593  25.574  0.2105 -0.0152 -0.3329
45167DOD     C279321  16.347   4.316  25.659 -0.0555 -0.1457  0.1893
45167DOD     C379322  16.752   4.415  25.452 -0.1291 -0.3518 -0.1773
45168DOD     C179323  29.637   7.256   7.954 -0.1189 -0.0281 -0.3907
45168DOD     C279324  29.213   7.142   7.830 -0.1430 -0.0631 -0.2010
45168DOD     C379325  28.933   6.782   7.974 -0.3283 -0.3690 -0.0602
45169DOD     C179326  17.219  25.479   9.261 -0.0479  0.1730 -0.0892
45169DOD     C279327  17.147  25.538   9.676 -0.2333 -0.1763 -0.2967
45169DOD     C379328  17.283  25.754  10.059  0.1829  0.1590 -0.0130
45170DOD     C179329  30.220   2.140  26.453  0.1432  0.0194  0.1041
45170DOD     C279330  29.835   2.318  26.177  0.2365 -0.0430 -0.2932
45170DOD     C379331  29.838   2.692  25.925 -0.0268 -0.1581 -0.0626
45171DOD     C179332  11.571  13.911   3.833  0.2444  0.0947 -0.0446
45171DOD     C279333  11.340  13.688   4.169 -0.1773 -0.1047  0.1154
45171DOD     C379334  11.135  13.347   4.400 -0.1068  0.1607  0.2245
45172DOD     C179335   1.849  15.739  22.878  0.3214 -0.1017  0.2120
45172DOD     C279336   1.694  16.075  22.704 -0.0717  0.2286 -0.2038
45172DOD     C379337   1.561  16.502  22.720 -0.1467 -0.0662  0.1640
45173DOD     C179338   2.526  14.072  27.490  0.2805 -0.2359  0.0254
45173DOD     C279339   2.937  13.858  27.604 -0.0028 -0.0204 -0.1611
45173DOD     C379340   3.280  13.608  27.793 -0.1604  0.0187 -0.3039
45174DOD     C179341   9.771  13.124  24.934  0.0219 -0.0669 -0.4014
45174DOD     C279342   9.928  13.086  24.495 -0.1888  0.0432  0.1602
45174DOD     C379343  10.280  12.943  24.160 -0.3760  0.1110 -0.1862
45175DOD     C179344  17.893  14.122  15.916  0.0206  0.1321 -0.2575
45175DOD     C279345  18.299  14.168  16.095  0.0832 -0.1402 -0.2312
45175DOD     C379346  18.712  14.431  16.115  0.2652  0.0028 -0.0251
45176DOD     C179347  16.312   9.694  27.956  0.2391  0.1466 -0.0783
45176DOD     C279348  15.923   9.700  27.704 -0.0396  0.0167 -0.1803
45176DOD     C379349  15.722   9.931  27.367 -0.1789 -0.2488  0.0695
45177DOD     C179350  14.010  20.589   6.962  0.0389 -0.1263 -0.3217
45177DOD     C279351  13.896  20.274   7.357 -0.2418  0.0468 -0.0712
45177DOD     C379352  13.955  19.872   7.609  0.2520 -0.0171  0.2066
45178DOD     C179353  11.242   6.616  14.204 -0.2798  0.0157 -0.1653
45178DOD     C279354  11.111   7.077  14.115  0.3208  0.0209 -0.1133
45178DOD     C379355  10.968   7.366  14.443 -0.1538 -0.0492 -0.0389
45179DOD     C179356   2.438  16.777  18.067  0.0482  0.3216 -0.1365
45179DOD     C279357   2.598  17.131  18.341 -0.0190  0.2707 -0.0917
45179DOD     C379358   2.939  17.389  18.371 -0.2061 -0.0617  0.2338
45180DOD     C179359  12.304   6.650   7.114 -0.1272 -0.0337 -0.1800
45180DOD     C279360  12.338   7.172   7.249 -0.0424 -0.0929 -0.0455
45180DOD     C379361  12.516   7.624   7.158 -0.0595 -0.3278  0.1128
45181DOD     C179362  28.408  13.245  12.827 -0.1346 -0.2093 -0.2736
45181DOD     C279363  28.316  13.635  13.104  0.2458  0.1752  0.5565
45181DOD     C379364  27.921  13.715  13.350  0.0293 -0.2040 -0.1436
45182DOD     C179365  28.705   2.398  24.535  0.1016 -0.0916  0.0579
45182DOD     C279366  28.664   2.516  24.058 -0.2618  0.0160  0.1939
45182DOD     C379367  28.564   2.377  23.634  0.0775 -0.1714  0.2009
45183DOD     C179368   9.895  14.342  19.886  0.2318  0.2510 -0.2359
45183DOD     C279369   9.411  14.415  19.839  0.0637 -0.0288 -0.1064
45183DOD     C379370   9.087  14.689  19.548 -0.1447  0.0342 -0.1048
45184DOD     C179371  15.785   8.708  18.294  0.1409 -0.0449  0.2906
45184DOD     C279372  16.078   8.565  18.627 -0.1809 -0.1469  0.1386
45184DOD     C379373  16.516   8.486  18.679 -0.1493  0.5438  0.1082
45185DOD     C179374  22.390  16.256   4.505  0.2513 -0.2493  0.6235
45185DOD     C279375  22.456  15.929   4.769  0.2722  0.0010  0.1169
45185DOD     C379376  22.403  15.500   4.853  0.1300  0.0683 -0.1302
45186DOD     C179377  17.327  25.257  28.219 -0.5181  0.0676 -0.1874
45186DOD     C279378  17.044  25.652  28.329  0.3786  0.3183 -0.0771
45186DOD     C379379  16.712  25.945  28.534  0.0420  0.0921 -0.2149
45187DOD     C179380  20.227  14.208  16.543  0.1002 -0.3257  0.4039
45187DOD     C279381  19.891  13.984  16.816 -0.2380  0.0808  0.0942
45187DOD     C379382  19.889  13.965  17.246 -0.1357  0.1818  0.2031
45188DOD     C179383   6.225  20.524  18.890  0.1101  0.1624 -0.2387
45188DOD     C279384   5.857  20.177  18.779 -0.2481  0.1795 -0.2199
45188DOD     C379385   5.655  20.028  18.399 -0.3650  0.2449 -0.3186
45189DOD     C179386  29.641   7.449   9.263  0.3771 -0.4494  0.2750
45189DOD     C279387  29.857   7.597   9.648 -0.0651  0.0558  0.0546
45189DOD     C379388  29.783   7.967   9.980  0.0055  0.4711  0.1304
45190DOD     C179389  16.410   8.010  20.393 -0.0644 -0.1527 -0.2346
45190DOD     C279390  16.097   8.166  20.181  0.1798 -0.2334  0.0147
45190DOD     C379391  15.849   8.542  20.162 -0.1768 -0.2551  0.2796
45191DOD     C179392  25.828  15.822  14.605 -0.2195  0.0199 -0.0212
45191DOD     C279393  26.245  15.975  14.423 -0.0800 -0.0725 -0.2508
45191DOD     C379394  26.710  16.134  14.362  0.2109  0.1245 -0.2617
45192DOD     C179395   9.742  24.404  23.351 -0.0615  0.1254  0.1044
45192DOD     C279396   9.790  23.946  23.453 -0.0047 -0.0187 -0.0747
45192DOD     C379397  10.028  23.564  23.513  0.3224  0.0195 -0.1283
45193DOD     C179398  11.240  18.297   2.244  0.1858 -0.0491  0.2436
45193DOD     C279399  10.983  18.323   2.628 -0.1514  0.1956 -0.3705
45193DOD     C379400  10.897  18.527   3.044  0.1110 -0.1621 -0.0223
45194DOD     C179401   6.990  27.025  13.685  0.2559 -0.2582 -0.1199
45194DOD     C279402   7.219  27.163  13.313  0.0959  0.4118  0.1560
45194DOD     C379403   7.576  26.968  13.097  0.1727  0.0941  0.1073
45195DOD     C179404   5.098  23.924   9.821  0.2216  0.2661 -0.0353
45195DOD     C279405   4.967  23.467   9.773  0.0019  0.1859  0.1038
45195DOD     C379406   4.937  22.985   9.749  0.2244 -0.1688  0.0687
45196DOD     C179407  27.659  16.029  29.777  0.1043  0.2576  0.1635
45196DOD     C279408  27.717  15.571  29.654  0.1695  0.3572 -0.3050
45196DOD     C379409  27.657  15.402  29.231  0.3907 -0.0109  0.0598
45197DOD     C179410  11.634   3.510  13.315 -0.0370  0.2759  0.0094
45197DOD     C279411  11.467   3.118  13.129 -0.0418 -0.1669 -0.3708
45197DOD     C379412  11.089   2.942  13.237  0.1627 -0.1585 -0.0407
45198DOD     C179413  26.914  21.247  29.985  0.0845  0.3456 -0.1771
45198DOD     C279414  27.012  21.519  29.649 -0.2126  0.1874  0.1501
45198DOD     C379415  27.387  21.632  29.408  0.0821  0.1920 -0.0391
45199DOD     C179416   3.915  25.864  12.736 -0.1166 -0.3295 -0.0528
45199DOD     C279417   3.920  26.378  12.759  0.0137  0.2280 -0.2374
45199DOD     C379418   4.130  26.604  13.147  0.2537 -0.0735 -0.3562
45200DOD     C179419  26.994  11.265  28.039  0.0857 -0.1270  0.1505
45200DOD     C279420  26.912  11.604  28.330 -0.1331  0.1724 -0.0572
45200DOD     C379421  26.940  12.086  28.325 -0.2565  0.2298  0.1051
45201DOD     C179422  26.817  12.843   7.834  0.1759 -0.1728  0.2688
45201DOD     C279423  26.648  13.049   8.227 -0.0910  0.0792  0.1871
45201DOD     C379424  26.725  13.459   8.409  0.2522 -0.1597 -0.2460
45202DOD     C179425   1.612  13.447  30.137 -0.4549  0.1445 -0.0038
45202DOD     C279426   1.570  13.083   0.102 -0.1397  0.1676 -0.0845
45202DOD     C379427   1.298  12.735   0.194  0.1089  0.4121 -0.3034
45203DOD     C179428  26.258  13.714  18.314  0.3736 -0.1103 -0.2335
45203DOD     C279429  26.448  14.143  18.359 -0.3537 -0.2871  0.0663
45203DOD     C379430  26.492  14.467  18.650 -0.2908 -0.1111 -0.0625
45204DOD     C179431  11.280  12.111  22.762  0.1546 -0.1081 -0.4644
45204DOD     C279432  11.075  11.909  23.176 -0.3413  0.0669 -0.0540
45204DOD     C379433  11.300  11.903  23.561 -0.0646 -0.0411  0.0586
45205DOD     C179434   5.124   2.501  20.862  0.1371 -0.1208 -0.1210
45205DOD     C279435   5.247   2.920  20.799 -0.0525  0.1517  0.0194
45205DOD     C379436   5.622   3.137  20.927 -0.4474  0.0658 -0.0288
45206DOD     C179437  19.077  27.758   8.109 -0.0099  0.0329 -0.1826
45206DOD     C279438  19.088  27.359   8.346  0.2598  0.1928 -0.0747
45206DOD     C379439  18.789  27.058   8.653 -0.3561 -0.3585  0.0050
45207DOD     C179440   4.593  18.823  18.992  0.1919  0.0841 -0.1936
45207DOD     C279441   4.763  19.197  19.197 -0.1106 -0.0970  0.1562
45207DOD     C379442   4.979  19.502  18.936 -0.1851 -0.2239 -0.0321
45208DOD     C179443   5.324   3.259  16.326  0.2466  0.2233  0.1111
45208DOD     C279444   5.312   3.554  15.907  0.1054 -0.2622 -0.1183
45208DOD     C379445   5.129   3.981  15.804  0.2779  0.0879 -0.2917
45209DOD     C179446  27.289   0.775  10.865 -0.1105 -0.1013 -0.0502
45209DOD     C279447  27.476   0.551  10.504 -0.1282  0.0958  0.0308
45209DOD     C379448  27.775   0.376  10.180  0.2737 -0.0388  0.2898
45210DOD     C179449  20.522  24.054   2.419 -0.3211  0.1902 -0.0336
45210DOD     C279450  20.850  23.703   2.464  0.0227  0.0417 -0.1558
45210DOD     C379451  20.961  23.273   2.374 -0.0381 -0.1988 -0.0930
45211DOD     C179452  24.765  12.453  28.680 -0.0499  0.1489 -0.0612
45211DOD     C279453  24.582  12.123  28.404 -0.1509  0.0346  0.1429
45211DOD     C379454  24.408  11.923  28.056  0.1061  0.1173  0.2514
45212DOD     C179455  28.988  12.109   2.762  0.0065 -0.0506  0.2300
45212DOD     C279456  28.781  12.415   3.029 -0.2637 -0.2455 -0.1086
45212DOD     C379457  28.524  12.796   3.163  0.2718  0.1117  0.1659
45213DOD     C179458  18.353  16.702  15.501 -0.2818 -0.2051 -0.4382
45213DOD     C279459  18.705  16.963  15.679  0.1763  0.2730  0.0336
45213DOD     C379460  19.101  16.849  15.870 -0.1479 -0.4493 -0.4653
45214DOD     C179461   5.423   9.666  17.508  0.2599  0.1151  0.1457
45214DOD     C279462   5.250   9.710  17.951  0.1692  0.0648  0.3213
45214DOD     C379463   4.870   9.463  18.199  0.2061 -0.1012 -0.1723
45215DOD     C179464  10.938  14.036  12.577  0.1972  0.0077 -0.1371
45215DOD     C279465  10.571  13.703  12.476  0.2320  0.0184  0.2651
45215DOD     C379466  10.597  13.329  12.226 -0.4798  0.1182 -0.2469
45216DOD     C179467  22.535   2.177  17.195  0.2449 -0.3627 -0.3569
45216DOD     C279468  22.924   2.303  16.989  0.1715 -0.1803 -0.0500
45216DOD     C379469  23.152   2.671  16.853  0.1404 -0.0100 -0.1167
45217DOD     C179470  14.564   3.297   8.053 -0.0695  0.4856 -0.0228
45217DOD     C279471  14.562   2.844   8.107 -0.1125 -0.3595 -0.0895
45217DOD     C379472  14.665   2.451   8.331 -0.3607 -0.1032  0.2754
45218DOD     C179473  19.604   5.319   4.410  0.0607 -0.0372 -0.1134
45218DOD     C279474  19.846   5.113   4.735 -0.3814 -0.1137  0.3792
45218DOD     C379475  19.783   4.948   5.201  0.1127  0.2578  0.3283
45219DOD     C179476   9.658  26.437   7.149  0.2326  0.0120  0.0457
45219DOD     C279477   9.725  25.936   7.194  0.2840  0.1213  0.0090
45219DOD     C379478   9.437  25.609   6.973 -0.0541 -0.0337  0.0919
45220DOD     C179479  24.853  29.163  13.131  0.4343  0.0473 -0.1445
45220DOD     C279480  24.714  28.959  12.745  0.0075 -0.2341 -0.0033
45220DOD     C379481  24.552  28.932  12.353  0.0918 -0.0796  0.1286
45221DOD     C179482   3.542  13.773   5.451  0.1963 -0.1653  0.0610
45221DOD     C279483   3.182  13.947   5.709  0.3848 -0.0212  0.0089
45221DOD     C379484   2.832  14.151   5.955 -0.2953  0.0723 -0.0516
45222DOD     C179485  30.022  17.820  11.294 -0.1620 -0.1846 -0.0131
45222DOD     C279486  29.620  17.839  11.160  0.0378 -0.0172  0.0909
45222DOD     C379487  29.144  17.985  11.086 -0.2872 -0.2113  0.0461
45223DOD     C179488  18.731  14.444  26.444  0.0806 -0.1481  0.1111
45223DOD     C279489  19.118  14.191  26.538  0.2675  0.3664 -0.4535
45223DOD     C379490  19.504  14.164  26.845  0.1252 -0.0639 -0.0594
45224DOD     C179491  24.691  23.811  28.226  0.1157  0.2587 -0.0986
45224DOD     C279492  24.311  23.835  28.015  0.1754 -0.0908 -0.1982
45224DOD     C379493  24.109  23.585  27.665  0.3578 -0.2412  0.2620
45225DOD     C179494  27.612  21.795  20.268 -0.3751 -0.1987  0.0480
45225DOD     C279495  27.388  22.072  19.921  0.1889  0.0438  0.0884
45225DOD     C379496  27.477  22.416  19.683 -0.2362 -0.2424  0.3397
45226DOD     C179497  20.936  13.609  10.434  0.3490 -0.0068  0.1867
45226DOD     C279498  20.813  13.768  10.013 -0.0767 -0.2510  0.1996
45226DOD     C379499  20.350  13.920   9.987  0.0069 -0.0182  0.1901
45227DOD     C179500  13.931   5.959  16.040  0.1097  0.1166 -0.0158
45227DOD     C279501  13.606   6.275  15.979 -0.2353  0.1053  0.1332
45227DOD     C379502  13.425   6.717  15.858 -0.2466 -0.0010  0.0015
45228DOD     C179503  21.749  17.327  24.762 -0.0663 -0.0612 -0.3863
45228DOD     C279504  21.854  17.022  24.390  0.1992 -0.2286  0.2169
45228DOD     C379505  21.512  17.016  24.103 -0.2055  0.0860  0.1697
45229DOD     C179506  20.084   9.787   2.946 -0.2766  0.0104  0.1062
45229DOD     C279507  20.514   9.680   2.719 -0.2829  0.3156  0.1547
45229DOD     C379508  20.776   9.960   2.433 -0.0622 -0.2801 -0.0839
45230DOD     C179509  21.053   6.994  21.548 -0.0941  0.0572  0.1366
45230DOD     C279510  21.417   6.838  21.802  0.1322  0.0490 -0.0627
45230DOD     C379511  21.675   6.925  22.202  0.0952  0.1451  0.0673
45231DOD     C179512  24.427  24.498  10.226 -0.0142 -0.0082 -0.3206
45231DOD     C279513  24.292  24.819   9.894 -0.2170  0.1190 -0.0039
45231DOD     C379514  24.307  25.194   9.623  0.2586 -0.2869  0.0120
45232DOD     C179515  27.913   8.231  18.227  0.1584  0.1089  0.0310
45232DOD     C279516  28.352   8.057  18.177  0.3593 -0.1111  0.1415
45232DOD     C379517  28.522   7.670  18.341  0.0099 -0.0624  0.3511
45233DOD     C179518   2.958  20.605  10.625  0.2103  0.2647  0.1407
45233DOD     C279519   3.047  20.747  10.162  0.1767 -0.1676 -0.1749
45233DOD     C379520   3.004  21.081   9.917  0.0385  0.2979 -0.0096
45234DOD     C179521  20.540  13.441  24.892  0.0128 -0.1470  0.0014
45234DOD     C279522  20.518  13.135  24.530  0.0187 -0.0123  0.1928
45234DOD     C379523  20.713  13.180  24.135  0.0496  0.0538 -0.2660
45235DOD     C179524  10.237   2.123  28.768  0.2264 -0.0646 -0.2850
45235DOD     C279525  10.335   2.556  28.952 -0.0709  0.1959  0.0959
45235DOD     C379526  10.428   2.958  29.137  0.1246 -0.3100  0.0470
45236DOD     C179527   2.282   6.974  23.518 -0.2391  0.1750 -0.1891
45236DOD     C279528   2.494   6.826  23.905  0.3746  0.0111  0.1700
45236DOD     C379529   2.851   6.872  24.277 -0.0416  0.1301 -0.2394
45237DOD     C179530   1.355  24.713  13.650  0.0714  0.2851 -0.0940
45237DOD     C279531   1.266  25.067  14.001 -0.0700  0.1755  0.1703
45237DOD     C379532   1.575  25.351  14.246 -0.0952  0.1089  0.1702
45238DOD     C179533  24.548  18.102  29.643 -0.2518 -0.0912 -0.0941
45238DOD     C279534  24.784  18.451  29.803 -0.1094  0.0320  0.1127
45238DOD     C379535  24.999  18.801  29.955  0.2018 -0.3665 -0.0204
45239DOD     C179536  12.797   4.101   7.001 -0.0482 -0.0488  0.0338
45239DOD     C279537  12.831   4.565   6.979 -0.1206 -0.0465 -0.2124
45239DOD     C379538  13.098   4.961   6.831 -0.0041  0.0897 -0.0279
45240DOD     C179539  21.469   1.813   4.608 -0.0166 -0.0857 -0.2150
45240DOD     C279540  21.067   1.875   4.794  0.1492 -0.4187 -0.0392
45240DOD     C379541  20.724   1.622   5.071  0.0237 -0.1655 -0.0406
45241DOD     C179542  17.964  21.621  25.689  0.1142 -0.2487 -0.0332
45241DOD     C279543  17.699  21.279  25.563  0.1572 -0.0229 -0.1139
45241DOD     C379544  17.470  20.934  25.310 -0.0774 -0.2751  0.0131
45242DOD     C179545  28.727   9.221  24.937 -0.1560  0.2229  0.0347
45242DOD     C279546  28.912   8.927  25.287  0.0506  0.2921  0.0937
45242DOD     C379547  29.049   8.865  25.749 -0.0239 -0.2236 -0.1557
45243DOD     C179548  17.561   8.145   8.195  0.0127  0.0161  0.3038
45243DOD     C279549  17.287   8.398   8.466  0.0299 -0.1273  0.0312
45243DOD     C379550  17.257   8.322   8.924 -0.0154  0.2107  0.1945
45244DOD     C179551  19.366  14.010  13.935 -0.0550  0.2509 -0.4121
45244DOD     C279552  19.884  13.976  13.942 -0.1313 -0.2925 -0.0191
45244DOD     C379553  20.132  13.595  13.874  0.0763  0.0503  0.0510
45245DOD     C179554   9.786  16.934   3.280 -0.2006 -0.4168 -0.3379
45245DOD     C279555   9.743  16.930   3.704  0.1345  0.0298 -0.0343
45245DOD     C379556  10.036  16.650   3.996 -0.3052 -0.1550 -0.0834
45246DOD     C179557   1.776   8.616  26.748 -0.1948  0.0110 -0.0766
45246DOD     C279558   1.989   8.371  26.469  0.0868  0.3052  0.2871
45246DOD     C379559   2.360   8.183  26.374  0.1820  0.1781 -0.0994
45247DOD     C179560   9.665   2.697  14.391 -0.0253 -0.2557  0.0003
45247DOD     C279561   9.601   3.135  14.224  0.0667  0.0384  0.3014
45247DOD     C379562   9.663   3.282  13.768  0.1247  0.2472  0.0891
45248DOD     C179563   7.773   5.584   3.630 -0.1263  0.0812 -0.1617
45248DOD     C279564   7.824   5.209   3.286 -0.1381  0.1617  0.4474
45248DOD     C379565   7.694   4.875   2.929 -0.2679 -0.0313  0.2056
45249DOD     C179566   0.081   6.953   1.708  0.1660 -0.0104  0.1553
45249DOD     C279567   0.023   6.624   1.388 -0.1548 -0.2192 -0.3509
45249DOD     C379568   0.177   6.192   1.226 -0.0064 -0.1180 -0.3296
45250DOD     C179569  21.262  15.272  14.045  0.3516  0.2288  0.0423
45250DOD     C279570  21.038  15.571  13.759 -0.0451  0.1428  0.2962
45250DOD     C379571  21.146  16.030  13.673  0.2346 -0.1586  0.0685
45251DOD     C179572  20.450   3.332   4.784 -0.1420 -0.1639  0.1687
45251DOD     C279573  20.407   2.964   5.124  0.1133  0.0228  0.0537
45251DOD     C379574  20.784   2.680   5.203 -0.1075 -0.2981 -0.0463
45252DOD     C179575   7.459  29.324  13.456 -0.0610  0.0190  0.2136
45252DOD     C279576   7.767  29.388  13.061  0.2082  0.1907 -0.3670
45252DOD     C379577   7.994  29.086  12.745 -0.0128  0.0749  0.1579
45253DOD     C179578  19.397  15.895  30.115  0.0030  0.2938 -0.1405
45253DOD     C279579  19.471  16.103  29.687  0.1471 -0.1909 -0.1736
45253DOD     C379580  19.211  16.473  29.497 -0.3276 -0.3100 -0.1421
45254DOD     C179581  21.935   7.313  22.488 -0.0244 -0.3213 -0.1567
45254DOD     C279582  22.109   7.139  22.098 -0.0277 -0.1355 -0.1061
45254DOD     C379583  21.964   6.675  21.848  0.0740  0.2351 -0.3710
45255DOD     C179584  18.624   3.645   2.745  0.4152  0.1127  0.2633
45255DOD     C279585  18.758   3.498   3.225  0.0572 -0.0782  0.0139
45255DOD     C379586  18.697   3.143   3.535  0.1031 -0.1655  0.4304
45256DOD     C179587  28.812  22.255   9.848 -0.2236  0.1846 -0.0991
45256DOD     C279588  29.229  22.437   9.753 -0.1935  0.1706  0.0731
45256DOD     C379589  29.264  22.624   9.318 -0.0054 -0.1130  0.1452
45257DOD     C179590  25.044   7.983  21.755 -0.1762 -0.1798 -0.3238
45257DOD     C279591  24.769   8.195  22.139  0.0566  0.0332  0.2604
45257DOD     C379592  24.836   8.312  22.615 -0.2097  0.1109 -0.1712
45258DOD     C179593   9.250   7.272  21.535  0.4846 -0.0215 -0.1829
45258DOD     C279594   9.592   7.469  21.691 -0.0387 -0.1003  0.1900
45258DOD     C379595  10.020   7.603  21.814  0.1615 -0.4046  0.1740
45259DOD     C179596  11.009  29.513  15.889  0.1821 -0.3529 -0.2106
45259DOD     C279597  11.099  29.688  16.283  0.2236 -0.1514 -0.0380
45259DOD     C379598  11.187  29.657  16.752 -0.1305 -0.1404  0.3671
45260DOD     C179599  22.905  17.300   0.632  0.1026  0.2263 -0.2673
45260DOD     C279600  23.298  17.381   0.857 -0.0189  0.3805 -0.0231
45260DOD     C379601  23.714  17.595   0.974 -0.2146 -0.3899  0.2282
45261DOD     C179602  19.555  20.267  20.402 -0.1737  0.1926 -0.1505
45261DOD     C279603  19.272  20.422  20.753 -0.1496 -0.0853 -0.2515
45261DOD     C379604  18.881  20.525  21.009  0.2862  0.0338 -0.4968
45262DOD     C179605   5.080  26.740  26.596  0.0886 -0.2139 -0.4066
45262DOD     C279606   5.081  27.011  26.307  0.1644 -0.3332  0.0296
45262DOD     C379607   5.072  27.429  26.089 -0.0394 -0.3648  0.2592
45263DOD     C179608   8.673  22.633  27.205  0.0652 -0.2240 -0.1368
45263DOD     C279609   8.500  23.026  27.261 -0.2199  0.2464 -0.2147
45263DOD     C379610   8.352  23.454  27.215 -0.3984  0.0448  0.1071
45264DOD     C179611  13.077  22.146  14.776  0.0007  0.0697  0.2314
45264DOD     C279612  13.280  22.191  15.196 -0.1119  0.1330  0.2590
45264DOD     C379613  13.480  22.398  15.563  0.1514  0.3191 -0.1127
45265DOD     C179614   2.956  28.242  11.049 -0.2463  0.0790 -0.2250
45265DOD     C279615   2.886  28.029  11.411 -0.3791 -0.0564 -0.1958
45265DOD     C379616   2.540  27.836  11.587 -0.1732 -0.1228  0.2759
45266DOD     C179617  21.735   5.252  27.507 -0.0777  0.0734  0.3174
45266DOD     C279618  22.179   5.190  27.227  0.5867  0.0204 -0.1309
45266DOD     C379619  22.285   4.972  26.843 -0.0586  0.0673  0.2584
45267DOD     C179620   9.544   7.412  26.291 -0.0639 -0.1940  0.2943
45267DOD     C279621   9.232   7.601  26.043 -0.1229 -0.2640 -0.1116
45267DOD     C379622   9.215   8.071  25.987  0.0435 -0.0186 -0.1877
45268DOD     C179623   2.524   2.106  21.283 -0.1159  0.1599  0.4230
45268DOD     C279624   2.415   2.282  21.672  0.0354  0.0941  0.0062
45268DOD     C379625   2.633   2.459  22.021  0.2452 -0.1168 -0.1085
45269DOD     C179626  19.548  26.353  27.917 -0.0304  0.1695 -0.2417
45269DOD     C279627  19.711  26.355  28.345  0.0045  0.0341  0.1497
45269DOD     C379628  19.499  26.274  28.723 -0.0484  0.0207 -0.2315
45270DOD     C179629  10.335   7.845  15.572 -0.1552 -0.2085 -0.0260
45270DOD     C279630  10.427   7.816  16.010  0.0292 -0.4688  0.0805
45270DOD     C379631  10.219   8.004  16.302  0.1835 -0.1469 -0.4116
45271DOD     C179632  11.006  29.669  24.120  0.0899 -0.3587 -0.0581
45271DOD     C279633  11.361  29.917  24.340  0.0945  0.0960  0.1147
45271DOD     C379634  11.732  30.234  24.254  0.1934 -0.0652  0.0818
45272DOD     C179635  20.374  20.971   8.299 -0.1238  0.0646 -0.3527
45272DOD     C279636  20.130  20.707   7.939 -0.1880  0.3416  0.0526
45272DOD     C379637  19.659  20.667   7.827 -0.1980 -0.0326 -0.2353
45273DOD     C179638  17.468  23.425   8.286  0.2951 -0.0608 -0.0457
45273DOD     C279639  17.471  23.565   8.714  0.0847  0.3037 -0.0658
45273DOD     C379640  17.873  23.635   8.988  0.0915  0.1953  0.1790
45274DOD     C179641  17.844   3.171  26.669 -0.1177  0.1467 -0.2976
45274DOD     C279642  17.998   3.583  26.615  0.2094  0.1424 -0.0950
45274DOD     C379643  18.296   3.931  26.736  0.2164 -0.2697  0.0685
45275DOD     C179644  27.082   5.041   2.502 -0.0902  0.0921  0.0943
45275DOD     C279645  26.720   5.310   2.247  0.2992  0.1157 -0.1359
45275DOD     C379646  26.404   5.543   1.972 -0.0364 -0.2958 -0.4607
45276DOD     C179647   4.758  21.451  13.279  0.3325  0.1118 -0.2200
45276DOD     C279648   4.467  21.199  13.594  0.1194  0.0252 -0.0700
45276DOD     C379649   4.142  21.061  13.921 -0.1895 -0.3187  0.2556
45277DOD     C179650  13.765   3.120  27.572  0.0210  0.0918  0.3875
45277DOD     C279651  13.844   3.391  27.166  0.0873 -0.2471 -0.2381
45277DOD     C379652  14.077   3.702  26.910  0.0743 -0.0279  0.1669
45278DOD     C179653  26.925  20.465   9.109  0.1120 -0.0771 -0.3902
45278DOD     C279654  27.349  20.280   9.067  0.1979 -0.2135 -0.1617
45278DOD     C379655  27.503  19.835   8.967 -0.0272 -0.2030  0.1111
45279DOD     C179656  13.944  28.139  26.023  0.1207  0.2071 -0.0189
45279DOD     C279657  14.290  28.249  25.768 -0.1815  0.0133  0.0086
45279DOD     C379658  14.465  28.533  25.425  0.1203 -0.0797 -0.0280
45280DOD     C179659  19.133   3.834  16.377 -0.0607 -0.0262 -0.0180
45280DOD     C279660  19.357   4.228  16.353  0.2319 -0.5771  0.0026
45280DOD     C379661  19.806   4.334  16.167 -0.1011  0.1354  0.0181
45281DOD     C179662   1.613  11.266   0.924 -0.2061  0.2383  0.0723
45281DOD     C279663   1.846  10.893   1.070  0.2166  0.1281 -0.0185
45281DOD     C379664   1.858  10.470   0.939  0.3140 -0.0365 -0.0119
45282DOD     C179665   0.930  12.339  16.057  0.0247  0.3254  0.2499
45282DOD     C279666   0.963  12.146  16.479  0.2030  0.0995 -0.1004
45282DOD     C379667   1.067  11.849  16.797  0.0450  0.2291  0.1967
45283DOD     C179668  13.297  11.782  25.099  0.1630 -0.3604 -0.0395
45283DOD     C279669  13.332  12.198  25.094  0.0996 -0.4680  0.0916
45283DOD     C379670  13.267  12.652  24.935  0.1878 -0.1084  0.0133
45284DOD     C179671  23.651  25.783   8.040  0.1158  0.1121 -0.0489
45284DOD     C279672  23.949  25.868   8.376 -0.2897  0.1495  0.1299
45284DOD     C379673  24.105  26.075   8.756 -0.0884  0.0315  0.1059
45285DOD     C179674   5.869  28.816  24.494 -0.0666  0.1007 -0.1999
45285DOD     C279675   5.606  28.985  24.082  0.1697 -0.3186  0.0711
45285DOD     C379676   5.512  29.287  23.714  0.1201  0.3164  0.0204
45286DOD     C179677  12.422  28.695   2.470 -0.0741 -0.0906 -0.0613
45286DOD     C279678  12.850  28.581   2.528  0.1915  0.0633 -0.0349
45286DOD     C379679  13.244  28.733   2.277  0.0110  0.0224  0.1908
45287DOD     C179680  25.556  30.215   8.309 -0.0384 -0.0632 -0.1571
45287DOD     C279681  25.904  29.909   8.304 -0.0513 -0.0922  0.1522
45287DOD     C379682  26.220  29.553   8.382 -0.1625  0.1812 -0.2272
45288DOD     C179683   1.528  18.740  18.650  0.1589  0.1606  0.2903
45288DOD     C279684   1.402  18.754  18.162  0.0663  0.1599  0.0576
45288DOD     C379685   1.371  19.019  17.761 -0.2684 -0.0018 -0.0991
45289DOD     C179686  26.475   2.544  16.025  0.2134  0.0995 -0.1877
45289DOD     C279687  26.085   2.397  15.888  0.0181 -0.2431  0.1759
45289DOD     C379688  25.787   2.470  15.521 -0.0454  0.2268 -0.0638
45290DOD     C179689  13.985  17.824  19.369  0.1503  0.0688  0.0123
45290DOD     C279690  13.818  18.285  19.365 -0.3246 -0.0045  0.3595
45290DOD     C379691  13.378  18.495  19.274  0.1041 -0.0541 -0.0685
45291DOD     C179692  19.237   3.542  13.403  0.0618  0.1557 -0.0448
45291DOD     C279693  19.269   3.364  13.824  0.1577  0.1874  0.0363
45291DOD     C379694  19.399   3.019  14.146 -0.0373 -0.0513 -0.1729
45292DOD     C179695   2.311  12.170  11.190 -0.0494 -0.1868  0.1955
45292DOD     C279696   2.518  11.968  11.551 -0.0032  0.1225 -0.0332
45292DOD     C379697   2.398  11.942  12.011 -0.3324 -0.2930  0.0969
45293DOD     C179698  27.193  15.813  13.938  0.0736 -0.0036 -0.2153
45293DOD     C279699  26.922  15.653  14.261 -0.2899 -0.0889  0.0918
45293DOD     C379700  26.571  15.678  14.595  0.1798  0.1877 -0.0046
45294DOD     C179701  26.464  11.808  22.064 -0.1787 -0.1700  0.0602
45294DOD     C279702  26.411  11.445  22.366 -0.2358 -0.1389 -0.1676
45294DOD     C379703  26.557  11.052  22.241 -0.1433 -0.1244  0.1024
45295DOD     C179704  20.079  26.014   0.655 -0.0792  0.0550 -0.0974
45295DOD     C279705  19.579  25.849   0.687 -0.0074  0.1001  0.0223
45295DOD     C379706  19.236  25.561   0.500  0.0398  0.0895  0.0953
45296DOD     C179707   9.922  30.195  18.039  0.0601 -0.1162  0.0030
45296DOD     C279708   9.997   0.356  18.100  0.0937  0.2042 -0.0808
45296DOD     C379709   9.933   0.845  18.005  0.2101  0.3583 -0.1563
45297DOD     C179710  22.426  10.499  23.044 -0.0100 -0.3574 -0.0341
45297DOD     C279711  22.908  10.599  22.970 -0.0208 -0.4954  0.1592
45297DOD     C379712  23.365  10.762  22.919  0.0197  0.1317 -0.2412
45298DOD     C179713  17.060  14.260   2.304  0.0555 -0.1160 -0.3458
45298DOD     C279714  17.311  14.570   2.317 -0.1152 -0.1128 -0.3007
45298DOD     C379715  17.641  14.579   1.949 -0.1072  0.3570  0.0749
45299DOD     C179716  19.975   8.348  13.545 -0.3317  0.0407 -0.2193
45299DOD     C279717  20.428   8.338  13.548  0.0119  0.0169  0.0371
45299DOD     C379718  20.840   8.342  13.679  0.1330 -0.2625  0.0927
45300DOD     C179719  23.497  20.987  27.548 -0.0751 -0.0596  0.1557
45300DOD     C279720  23.364  21.277  27.199 -0.0693  0.4534  0.1754
45300DOD     C379721  23.348  21.719  27.050  0.2920  0.1819 -0.0567
45301DOD     C179722  23.136   8.671  28.227 -0.1202  0.1380 -0.1401
45301DOD     C279723  22.672   8.591  28.183 -0.0063  0.1202 -0.0307
45301DOD     C379724  22.323   8.390  27.910  0.1790 -0.3107 -0.1600
45302DOD     C179725   7.297  13.434   7.159 -0.2279  0.1362  0.0926
45302DOD     C279726   7.508  13.082   7.264 -0.2648  0.0729 -0.1131
45302DOD     C379727   7.716  12.940   7.679 -0.1486 -0.0547 -0.1212
45303DOD     C179728   9.354   5.092  13.993  0.2075  0.0659  0.1043
45303DOD     C279729   9.374   5.536  13.863  0.1943 -0.2085 -0.0233
45303DOD     C379730   9.291   5.936  13.654 -0.0647  0.0075 -0.1884
45304DOD     C179731   5.215   2.950  10.214  0.1669  0.0167  0.0306
45304DOD     C279732   5.473   3.339  10.072 -0.0334  0.3010 -0.0751
45304DOD     C379733   5.937   3.438  10.090 -0.1613 -0.3078  0.2768
45305DOD     C179734  23.370  22.785  17.003  0.2041  0.0998  0.0421
45305DOD     C279735  23.389  23.014  16.570  0.0394 -0.0858  0.1365
45305DOD     C379736  23.447  23.390  16.314  0.0132  0.3500 -0.2850
45306DOD     C179737  15.166  22.839   2.299  0.2214 -0.3029 -0.0374
45306DOD     C279738  15.287  22.470   2.015  0.2373 -0.1187  0.0956
45306DOD     C379739  15.644  22.226   1.985  0.3109 -0.1421 -0.0414
45307DOD     C179740  29.636   0.252   9.132 -0.1439  0.1910 -0.0085
45307DOD     C279741  29.380   0.535   8.887 -0.0408 -0.3795  0.1266
45307DOD     C379742  29.256   0.610   8.456 -0.3637  0.0333  0.3858
45308DOD     C179743   3.395   1.303   6.822 -0.0457 -0.2774  0.4224
45308DOD     C279744   3.782   1.213   6.958  0.0770 -0.0814 -0.0393
45308DOD     C379745   4.003   1.269   7.399 -0.1762  0.2698 -0.0065
45309DOD     C179746  13.717  16.335  19.728 -0.3559  0.0107  0.0928
45309DOD     C279747  13.552  16.794  19.841 -0.0041 -0.2875  0.0285
45309DOD     C379748  13.260  17.072  20.117 -0.0708 -0.1692 -0.2515
45310DOD     C179749  10.000   2.987  12.736 -0.2176 -0.4629  0.4090
45310DOD     C279750  10.300   3.183  12.506  0.0733 -0.0928 -0.1269
45310DOD     C379751  10.357   3.655  12.457 -0.2227 -0.4506 -0.0356
45311DOD     C179752   6.033  27.507  18.260 -0.5432  0.0745 -0.1909
45311DOD     C279753   5.743  27.270  17.951  0.1601  0.1893  0.1249
45311DOD     C379754   5.331  27.225  17.773 -0.0119  0.0938 -0.0107
45312DOD     C179755   2.878   4.844  27.861  0.0562  0.0203  0.2485
45312DOD     C279756   2.853   4.988  27.425 -0.0599 -0.1401 -0.1174
45312DOD     C379757   3.252   5.122  27.127 -0.0298  0.0850  0.0270
45313DOD     C179758  17.966   3.274  10.151  0.0765  0.0839 -0.4271
45313DOD     C279759  18.392   3.318   9.967  0.2027 -0.3192 -0.1845
45313DOD     C379760  18.681   3.520   9.726  0.0334  0.1454 -0.2054
45314DOD     C179761   2.880   0.184  25.784 -0.0746 -0.0142 -0.1500
45314DOD     C279762   2.809   0.627  25.833 -0.0453 -0.0178  0.0215
45314DOD     C379763   2.550   0.991  25.978  0.0868  0.2991  0.0399
45315DOD     C179764  28.089   1.768  18.266  0.0024 -0.1550 -0.0757
45315DOD     C279765  28.183   1.321  18.230 -0.2873  0.0919 -0.0687
45315DOD     C379766  28.066   0.977  17.966 -0.1856 -0.1621  0.0542
45316DOD     C179767   8.043   9.005   2.129 -0.0253  0.3864  0.1816
45316DOD     C279768   7.969   9.409   1.879 -0.0743 -0.0266  0.3624
45316DOD     C379769   8.312   9.554   1.554  0.0946  0.0051 -0.0823
45317DOD     C179770  13.737   9.709  20.863 -0.0189 -0.0416  0.1586
45317DOD     C279771  13.375   9.421  20.636 -0.1320  0.2116 -0.2725
45317DOD     C379772  13.140   9.068  20.554  0.0572  0.2230 -0.2975
45318DOD     C179773   6.606  28.211  12.222 -0.0599  0.1699  0.1651
45318DOD     C279774   6.438  27.885  12.477 -0.0544  0.0651 -0.1385
45318DOD     C379775   6.485  27.690  12.903  0.1040 -0.5248  0.4044
45319DOD     C179776  27.749  28.356  10.860 -0.0958 -0.0739  0.0032
45319DOD     C279777  27.661  28.363  11.310 -0.1087  0.4600 -0.1027
45319DOD     C379778  27.883  28.267  11.709 -0.2409  0.0428 -0.0501
45320DOD     C179779   0.785  23.820  14.131  0.1418 -0.2744 -0.3590
45320DOD     C279780   0.525  23.400  14.043  0.2788  0.2017 -0.0677
45320DOD     C379781   0.285  23.041  13.770 -0.2446  0.0386 -0.0060
45321DOD     C179782  28.890  11.781  19.476 -0.6068  0.1077  0.0337
45321DOD     C279783  29.047  12.230  19.571 -0.0986 -0.0175 -0.3249
45321DOD     C379784  29.391  12.525  19.587  0.1713 -0.0975  0.2923
45322DOD     C179785  17.793  22.642  13.432  0.1284  0.1296 -0.0073
45322DOD     C279786  17.973  22.539  12.979  0.0302 -0.2606 -0.1430
45322DOD     C379787  18.080  22.146  12.730  0.1558 -0.2622 -0.0673
45323DOD     C179788   9.605  18.642   5.296 -0.0454  0.0920  0.0803
45323DOD     C279789   9.227  18.903   5.372 -0.1749 -0.2729 -0.2244
45323DOD     C379790   8.984  19.343   5.310 -0.1450 -0.1006  0.0753
45324DOD     C179791  14.770   1.787  26.013  0.0271  0.0459  0.0540
45324DOD     C279792  14.956   1.344  26.112 -0.0085  0.2311 -0.0247
45324DOD     C379793  14.962   0.880  26.119  0.1408  0.1533  0.1238
45325DOD     C179794  28.506  15.603  20.801 -0.0590 -0.0852  0.0452
45325DOD     C279795  28.424  15.388  20.397  0.2993 -0.2842 -0.0514
45325DOD     C379796  28.111  15.157  20.147 -0.0074 -0.3547  0.1735
45326DOD     C179797   2.392  13.617  12.970  0.0064  0.0565 -0.0078
45326DOD     C279798   2.063  13.400  13.308  0.1359  0.1475 -0.2619
45326DOD     C379799   1.870  12.997  13.479  0.0143  0.1383  0.0820
45327DOD     C179800  23.800   4.922  12.214 -0.1754  0.1186  0.1050
45327DOD     C279801  24.210   5.042  12.020  0.4318  0.1708  0.2959
45327DOD     C379802  24.695   4.908  11.963  0.1271 -0.0372 -0.1464
45328DOD     C179803   9.506  19.033   9.874 -0.0878 -0.3485  0.1984
45328DOD     C279804   9.278  19.387   9.944  0.1360  0.3672  0.0846
45328DOD     C379805   9.030  19.635   9.604 -0.2194  0.1557 -0.3483
45329DOD     C179806   5.416  12.022   6.221  0.0198 -0.1385  0.1215
45329DOD     C279807   5.629  11.911   6.623 -0.0406  0.3343 -0.3099
45329DOD     C379808   5.702  11.524   6.793  0.0458  0.1761  0.3751
45330DOD     C179809  25.713   5.679  22.060 -0.1329 -0.0003  0.0363
45330DOD     C279810  25.870   5.266  22.140  0.0070 -0.1676 -0.1481
45330DOD     C379811  25.910   4.819  22.313 -0.3842  0.1152  0.1932
45331DOD     C179812   8.561  11.537  28.399  0.1261  0.2068 -0.1160
45331DOD     C279813   8.397  11.482  27.963  0.1523 -0.1909 -0.3064
45331DOD     C379814   8.441  11.821  27.684 -0.3018 -0.0269 -0.1340
45332DOD     C179815  24.717  17.819  12.646 -0.1867  0.0540 -0.2176
45332DOD     C279816  24.547  17.433  12.448 -0.2707  0.1841 -0.1283
45332DOD     C379817  24.561  17.030  12.115  0.0455 -0.1116  0.0318
45333DOD     C179818   6.610  29.281   7.188  0.1002 -0.1863 -0.0298
45333DOD     C279819   6.995  29.138   6.897 -0.2219  0.1417 -0.1564
45333DOD     C379820   7.280  28.969   6.532 -0.2703 -0.2428  0.3082
45334DOD     C179821  23.798  16.807  26.164 -0.1586  0.0110  0.0907
45334DOD     C279822  24.071  17.161  26.313  0.0754 -0.2116 -0.2643
45334DOD     C379823  24.408  17.523  26.397  0.0777  0.0797  0.1721
45335DOD     C179824   6.928  22.222   1.556 -0.0008  0.2483 -0.2357
45335DOD     C279825   6.557  22.038   1.800 -0.1113  0.0523  0.3087
45335DOD     C379826   6.158  21.869   1.972 -0.1512  0.3701 -0.0442
45336DOD     C179827  24.776   3.996  12.350  0.2943 -0.1115  0.1271
45336DOD     C279828  24.647   4.308  12.062 -0.1927 -0.3933  0.2904
45336DOD     C379829  24.235   4.509  12.067  0.1859 -0.1188  0.0750
45337DOD     C179830  25.722  16.516   6.468 -0.1611  0.2985  0.0893
45337DOD     C279831  25.515  16.568   6.025  0.0752 -0.0509 -0.1160
45337DOD     C379832  25.539  16.829   5.574 -0.0796 -0.0028 -0.3551
45338DOD     C179833  25.679  17.605  25.356 -0.0376 -0.0756 -0.0205
45338DOD     C279834  26.000  17.387  25.588 -0.0400  0.1376  0.1341
45338DOD     C379835  26.181  17.015  25.750 -0.0874 -0.0371 -0.1280
45339DOD     C179836  14.082  10.125  14.155  0.0034  0.0529  0.0832
45339DOD     C279837  14.122   9.650  14.144  0.1036 -0.3063 -0.0561
45339DOD     C379838  14.215   9.234  14.255 -0.1104  0.0421 -0.0415
45340DOD     C179839   1.988  18.394   8.069  0.2142 -0.0727  0.1879
45340DOD     C279840   2.147  18.838   8.143  0.1977  0.0370 -0.0621
45340DOD     C379841   2.489  19.153   8.267  0.0807  0.0956  0.0921
45341DOD     C179842   0.449  13.400  11.254  0.1151 -0.1530  0.2471
45341DOD     C279843   0.446  13.811  11.444  0.0263  0.0573  0.1314
45341DOD     C379844   0.337  14.127  11.802 -0.3771  0.1747  0.4571
45342DOD     C179845  15.108  19.379  16.733 -0.0060  0.0810 -0.2279
45342DOD     C279846  15.178  19.688  17.083 -0.1146 -0.0560 -0.0398
45342DOD     C379847  15.362  20.119  17.269  0.0251  0.0891  0.1629
45343DOD     C179848  15.614   9.829  20.972 -0.4466  0.3572  0.0384
45343DOD     C279849  15.623  10.102  21.365  0.2131  0.1059 -0.1878
45343DOD     C379850  15.373  10.410  21.574  0.3456 -0.2895 -0.1001
45344DOD     C179851  16.842  15.263  24.862 -0.0835  0.0576 -0.1107
45344DOD     C279852  16.923  14.950  25.156 -0.0329  0.0785 -0.0143
45344DOD     C379853  16.664  14.830  25.551 -0.0128 -0.3555  0.0145
45345DOD     C179854  27.440  16.901  10.092 -0.1599 -0.0863 -0.2869
45345DOD     C279855  26.990  16.685   9.991 -0.0144 -0.0940  0.0593
45345DOD     C379856  26.587  16.798   9.732  0.2313 -0.3732 -0.0387
45346DOD     C179857  28.911   4.934  25.713  0.0401  0.1674 -0.1180
45346DOD     C279858  28.836   5.325  25.530 -0.2106  0.2365 -0.0771
45346DOD     C379859  28.811   5.709  25.283 -0.1404 -0.1654 -0.2134
45347DOD     C179860  10.271   9.685  26.513  0.2645 -0.1158 -0.0840
45347DOD     C279861  10.027   9.663  26.082 -0.2973 -0.0837  0.0395
45347DOD     C379862   9.783   9.724  25.682  0.0214 -0.1338  0.0902
45348DOD     C179863  26.602  18.498  29.902 -0.2296  0.0125  0.0207
45348DOD     C279864  26.656  18.552   0.023  0.3914  0.1966 -0.1945
45348DOD     C379865  26.898  18.288   0.251  0.2202  0.2612 -0.1431
45349DOD     C179866   9.752  10.835  16.362 -0.2649  0.0560 -0.0127
45349DOD     C279867   9.526  11.027  16.703 -0.0679 -0.1661 -0.2346
45349DOD     C379868   9.218  11.337  16.843 -0.0503  0.2800  0.0932
45350DOD     C179869  11.578  21.260  24.509 -0.0285 -0.0415  0.0967
45350DOD     C279870  11.131  21.256  24.663 -0.2646  0.1547  0.1121
45350DOD     C379871  10.744  21.012  24.813  0.2033  0.2878 -0.1172
45351DOD     C179872   3.994   5.496   0.719 -0.1327  0.1841  0.2802
45351DOD     C279873   4.269   5.729   0.999 -0.0947  0.0155  0.2505
45351DOD     C379874   4.108   5.769   1.462  0.1289  0.2311 -0.1237
45352DOD     C179875  14.873  27.612   7.009 -0.3599  0.0524 -0.1768
45352DOD     C279876  14.836  28.052   6.750 -0.2948  0.1233  0.1079
45352DOD     C379877  14.513  28.308   6.963 -0.0339 -0.0742  0.2557
45353DOD     C179878  15.845   0.130  21.249 -0.0517  0.0098 -0.0673
45353DOD     C279879  15.779   0.401  20.832  0.0184  0.1195 -0.2238
45353DOD     C379880  16.079   0.470  20.517  0.0120 -0.3333 -0.3001
45354DOD     C179881  18.081  25.806  26.290  0.0790 -0.0648  0.2662
45354DOD     C279882  18.065  26.194  26.518 -0.3684  0.0541 -0.4759
45354DOD     C379883  17.986  26.276  27.021 -0.1968  0.2311  0.3482
45355DOD     C179884  29.953   6.930  19.996  0.0402 -0.0460 -0.1464
45355DOD     C279885  30.070   7.202  19.626 -0.1559  0.0372 -0.0563
45355DOD     C379886   0.109   7.467  19.643 -0.0464 -0.0407 -0.2592
45356DOD     C179887   1.355   0.759   9.542  0.1350 -0.0828  0.0146
45356DOD     C279888   1.587   0.987   9.868  0.2897  0.0036  0.4196
45356DOD     C379889   1.599   1.422  10.155 -0.0075  0.0019 -0.0187
45357DOD     C179890  22.904  14.046  16.653  0.0373  0.1435  0.0161
45357DOD     C279891  22.562  13.837  16.351 -0.2885  0.1187 -0.2730
45357DOD     C379892  22.226  13.536  16.221 -0.1527  0.1851  0.2066
45358DOD     C179893  27.413  10.001  13.928  0.0018 -0.1898 -0.0693
45358DOD     C279894  27.240  10.017  14.384 -0.1311 -0.2273 -0.0151
45358DOD     C379895  27.455  10.041  14.780  0.0022  0.1081  0.0841
45359DOD     C179896  25.450   2.214   8.660 -0.2113  0.1825 -0.0766
45359DOD     C279897  25.540   1.767   8.625 -0.1160  0.3520 -0.2797
45359DOD     C379898  25.695   1.333   8.738  0.1687  0.2082  0.0101
45360DOD     C179899  16.537  12.032  28.568 -0.4344  0.1982 -0.0658
45360DOD     C279900  16.087  11.997  28.573  0.2168  0.1001  0.2472
45360DOD     C379901  15.630  11.797  28.565 -0.0206 -0.0533  0.1190
45361DOD     C179902  21.023   0.850   3.478  0.0879  0.0408  0.0074
45361DOD     C279903  20.661   0.552   3.686 -0.0231  0.1385 -0.2026
45361DOD     C379904  20.243   0.677   3.604  0.1121 -0.0557  0.1305
45362DOD     C179905  23.910  20.872  23.185  0.0829  0.3053 -0.0581
45362DOD     C279906  24.369  20.983  23.266  0.0079  0.0911 -0.0940
45362DOD     C379907  24.775  20.971  23.572  0.1566  0.1559  0.1637
45363DOD     C179908  15.358   1.001  11.579  0.3014 -0.1312 -0.1335
45363DOD     C279909  15.040   1.336  11.571  0.0990  0.0358 -0.1277
45363DOD     C379910  14.620   1.409  11.818  0.1880 -0.0010 -0.0362
45364DOD     C179911  12.072  11.943   4.278  0.1420 -0.1165  0.3837
45364DOD     C279912  12.342  12.035   4.639  0.0531  0.1397 -0.0754
45364DOD     C379913  12.659  11.819   4.875 -0.3882  0.0918 -0.3639
45365DOD     C179914  10.152  11.013  25.780  0.0081  0.2133 -0.1583
45365DOD     C279915  10.125  10.528  25.778 -0.0294  0.0314 -0.0919
45365DOD     C379916  10.036  10.225  26.082 -0.0684 -0.1184 -0.1328
45366DOD     C179917  17.926   2.651  23.784 -0.1035 -0.1656  0.2942
45366DOD     C279918  17.654   2.719  23.391  0.1359 -0.2478  0.0703
45366DOD     C379919  17.464   2.809  22.982  0.3176  0.0181 -0.0119
45367DOD     C179920  17.203   2.479  14.302  0.1623 -0.2886 -0.0091
45367DOD     C279921  17.122   2.905  14.494  0.0417  0.2424 -0.0968
45367DOD     C379922  16.825   3.234  14.677  0.0217  0.0957  0.2310
45368DOD     C179923  12.293   6.486  22.325 -0.3684 -0.1774  0.3422
45368DOD     C279924  12.022   6.228  22.601  0.5391  0.0108 -0.0050
45368DOD     C379925  12.019   5.763  22.612 -0.1587  0.1056  0.0534
45369DOD     C179926   8.543  10.937  12.939 -0.1306  0.1419 -0.1746
45369DOD     C279927   8.861  10.807  13.230  0.2559  0.1990  0.1169
45369DOD     C379928   9.276  10.655  13.415 -0.0782  0.0413  0.0673
45370DOD     C179929  21.461   2.165  10.959 -0.2565  0.1615  0.1927
45370DOD     C279930  21.410   2.491  10.674  0.0484  0.1192 -0.1517
45370DOD     C379931  21.730   2.850  10.548 -0.0228  0.2233 -0.1424
45371DOD     C179932   2.118  23.870  26.542  0.0942  0.2689  0.0388
45371DOD     C279933   2.400  23.664  26.293  0.2064 -0.2496 -0.0705
45371DOD     C379934   2.401  23.251  26.117  0.1343  0.0138  0.5896
45372DOD     C179935  29.138   1.506  27.817 -0.0300  0.1199 -0.2328
45372DOD     C279936  29.591   1.587  27.920 -0.0884  0.0856 -0.2640
45372DOD     C379937  30.025   1.431  27.781 -0.0341 -0.2630  0.1336
45373DOD     C179938  16.443  24.895  18.102  0.0236 -0.2167  0.2056
45373DOD     C279939  16.183  24.603  17.886  0.1380 -0.1070  0.2996
45373DOD     C379940  15.995  24.143  17.901 -0.0142 -0.3608  0.0808
45374DOD     C179941   8.255   0.169  20.693 -0.3001  0.2462  0.0554
45374DOD     C279942   8.562  30.136  20.643  0.1970 -0.2301 -0.0272
45374DOD     C379943   8.714  29.716  20.719  0.2803 -0.0324  0.2993
45375DOD     C179944  16.279  23.359  17.808  0.0541 -0.0876  0.1789
45375DOD     C279945  16.545  23.693  17.481 -0.0929  0.1211 -0.2593
45375DOD     C379946  16.512  23.911  17.043 -0.0803 -0.0199 -0.0823
45376DOD     C179947  16.705   5.743  21.629 -0.2152  0.0622 -0.5096
45376DOD     C279948  16.397   6.144  21.717  0.0667 -0.0315 -0.1646
45376DOD     C379949  16.147   6.525  21.888  0.2041 -0.0844 -0.1388
45377DOD     C179950   1.319   6.033  16.794  0.0598 -0.3094  0.2746
45377DOD     C279951   1.519   5.709  16.528  0.0895  0.0793 -0.0124
45377DOD     C379952   1.707   5.231  16.448  0.0557 -0.0171  0.0034
45378DOD     C179953  20.343   5.605   3.520  0.0810  0.2831 -0.2851
45378DOD     C279954  19.979   5.867   3.570 -0.0173  0.2440 -0.0968
45378DOD     C379955  19.534   5.937   3.607 -0.1589  0.1272 -0.0678
45379DOD     C179956  29.825  21.322  18.725  0.2679  0.2074 -0.3982
45379DOD     C279957  29.987  21.718  18.891 -0.1383  0.2738 -0.0503
45379DOD     C379958  30.095  22.193  18.878  0.2205 -0.0835 -0.1339
45380DOD     C179959  21.541  14.733   3.931  0.0732 -0.0792 -0.0913
45380DOD     C279960  21.817  14.318   3.889  0.2513 -0.3074  0.3858
45380DOD     C379961  21.843  13.941   3.723  0.0454  0.4176 -0.0904
45381DOD     C179962  13.382   0.612  10.970  0.0274 -0.0788 -0.1421
45381DOD     C279963  13.561   0.523  10.587 -0.0817 -0.0221 -0.1199
45381DOD     C379964  13.807   0.500  10.188 -0.3253 -0.0184  0.0592
45382DOD     C179965  18.201  25.304  13.401 -0.0970 -0.1488 -0.0786
45382DOD     C279966  18.482  25.662  13.302 -0.0600  0.1196  0.0707
45382DOD     C379967  18.805  26.023  13.218  0.1145  0.2537  0.0593
45383DOD     C179968   2.095  30.128  12.406  0.3304  0.3237 -0.1723
45383DOD     C279969   1.974  29.787  12.163 -0.1647 -0.2895  0.3058
45383DOD     C379970   2.148  29.664  11.784 -0.0058 -0.5555  0.0738
45384DOD     C179971  27.591  16.414   5.334  0.0463  0.2194  0.0860
45384DOD     C279972  27.774  16.145   4.997  0.0065 -0.1652 -0.0256
45384DOD     C379973  27.684  15.801   4.674  0.4353  0.2290 -0.3334
45385DOD     C179974   4.576  16.587  25.083  0.0671  0.2739 -0.1913
45385DOD     C279975   4.959  16.494  24.802  0.2812 -0.1093 -0.0013
45385DOD     C379976   5.399  16.243  24.756  0.0659  0.1752  0.2838
45386DOD     C179977  27.914  24.623  29.864  0.0342  0.0152 -0.0931
45386DOD     C279978  27.711  24.850  30.304 -0.4742 -0.2321 -0.0214
45386DOD     C379979  27.567  25.193   0.237  0.0702 -0.2084  0.0999
45387DOD     C179980   4.798  24.766  21.570  0.1370 -0.0487 -0.0822
45387DOD     C279981   4.811  24.477  21.232  0.1198  0.3852  0.0147
45387DOD     C379982   4.703  24.375  20.814  0.2940  0.1161 -0.1726
45388DOD     C179983  24.739   6.368  20.751 -0.1841 -0.1935 -0.4056
45388DOD     C279984  24.651   6.326  20.300 -0.0163 -0.2105 -0.0438
45388DOD     C379985  24.500   6.311  19.886  0.0278  0.0758  0.2249
45389DOD     C179986   5.105  14.853  11.885  0.0690  0.1305  0.0763
45389DOD     C279987   5.269  14.459  12.094  0.1909 -0.1968 -0.0004
45389DOD     C379988   5.396  14.003  11.971  0.0984 -0.0764  0.0606
45390DOD     C179989   0.153  23.728  29.501 -0.1149  0.0188 -0.2151
45390DOD     C279990   0.027  23.912  29.917  0.0750 -0.0459  0.0981
45390DOD     C379991  30.340  24.171   0.013  0.3269  0.1204 -0.3423
45391DOD     C179992   4.077   4.049   7.458 -0.2337  0.3106 -0.1171
45391DOD     C279993   4.335   3.883   7.854 -0.0889  0.0605  0.1628
45391DOD     C379994   4.090   3.710   8.164  0.0959  0.2582 -0.3105
45392DOD     C179995   1.470  30.017   2.005 -0.3764 -0.0493  0.4676
45392DOD     C279996   1.291   0.166   2.070 -0.0670 -0.0664  0.0499
45392DOD     C379997   0.945   0.280   2.402 -0.0610 -0.0712  0.0152
45393DOD     C179998  18.769  23.128  15.443  0.0195 -0.0609 -0.4530
45393DOD     C279999  18.965  22.782  15.260 -0.1158  0.1361  0.1606
45393DOD     C380000  18.735  22.581  14.910  0.2179 -0.1022 -0.0677
45394DOD     C180001   9.343   9.608  25.584 -0.4100  0.1852 -0.0051
45394DOD     C280002   9.545   9.261  25.428  0.1731 -0.2213  0.0595
45394DOD     C380003   9.560   8.908  25.115  0.0984 -0.1665  0.4365
45395DOD     C180004   6.495  15.169   9.713 -0.0296  0.0834 -0.1902
45395DOD     C280005   6.570  15.604   9.459 -0.3859 -0.0244  0.0086
45395DOD     C380006   6.617  15.938   9.185 -0.3117 -0.0154 -0.0170
45396DOD     C180007   7.581  17.692  22.734  0.0303 -0.3683 -0.2180
45396DOD     C280008   7.401  17.918  22.366  0.0836  0.0181 -0.0458
45396DOD     C380009   7.341  18.250  22.061 -0.2935  0.0596  0.2984
45397DOD     C180010   1.580   5.636   9.062 -0.0473  0.0692  0.2124
45397DOD     C280011   1.340   6.039   9.228  0.0063  0.2449 -0.2807
45397DOD     C380012   1.189   6.438   9.426 -0.1412  0.2973 -0.0902
45398DOD     C180013  12.585   8.414  14.588 -0.0732 -0.2445  0.0199
45398DOD     C280014  12.271   8.568  14.861 -0.1059  0.3221 -0.0791
45398DOD     C380015  11.988   8.540  15.252  0.1553 -0.2789 -0.3182
45399DOD     C180016  14.951  19.367   3.219  0.1469 -0.2133 -0.1732
45399DOD     C280017  15.341  19.154   3.189 -0.3402  0.1374  0.2607
45399DOD     C380018  15.769  18.991   3.328  0.1198 -0.1535 -0.1741
45400DOD     C180019   9.647  11.688  10.930  0.2225  0.1287 -0.0320
45400DOD     C280020  10.019  11.418  10.887  0.0421 -0.0891 -0.0531
45400DOD     C380021  10.370  11.280  11.172 -0.1419  0.1405  0.2116
45401DOD     C180022  25.403  24.141   0.802 -0.0022  0.1933 -0.1128
45401DOD     C280023  25.893  24.324   0.788  0.1234 -0.0184  0.3923
45401DOD     C380024  26.260  24.510   0.591  0.0116 -0.1772 -0.0494
45402DOD     C180025  24.648   8.434   5.485 -0.0621  0.3916  0.0013
45402DOD     C280026  25.126   8.314   5.335 -0.0977 -0.1735  0.2553
45402DOD     C380027  25.505   8.365   5.552 -0.1006 -0.3352 -0.0072
45403DOD     C180028  19.763  18.327  26.593  0.0221  0.0547  0.1597
45403DOD     C280029  19.850  18.782  26.603 -0.1960 -0.3313 -0.0345
45403DOD     C380030  19.780  19.168  26.831 -0.0419 -0.3215  0.2571
45404DOD     C180031  28.897   4.555  28.011  0.0051  0.0160  0.1581
45404DOD     C280032  28.459   4.625  28.053 -0.3895  0.4622  0.0212
45404DOD     C380033  28.038   4.795  27.854 -0.1008  0.1424 -0.1648
45405DOD     C180034   7.127  21.535  20.067 -0.0160  0.3145  0.0013
45405DOD     C280035   7.099  21.384  19.637 -0.1741  0.0434 -0.0703
45405DOD     C380036   7.420  21.183  19.342  0.2142  0.1385  0.1306
45406DOD     C180037  21.628  13.537  16.147 -0.0550  0.0793  0.3654
45406DOD     C280038  21.590  13.380  16.601 -0.2093  0.1215 -0.0283
45406DOD     C380039  21.262  13.124  16.886 -0.2315 -0.0615  0.0360
45407DOD     C180040  16.510  15.101  27.196 -0.0640  0.3481 -0.1461
45407DOD     C280041  16.799  15.407  27.349 -0.3177 -0.1685  0.0253
45407DOD     C380042  16.917  15.793  27.663 -0.0148  0.1358  0.1707
45408DOD     C180043  28.325   2.508   8.599  0.0975 -0.0697  0.2569
45408DOD     C280044  28.491   2.254   8.998  0.2230  0.0708 -0.1326
45408DOD     C380045  28.634   2.244   9.506  0.2789 -0.1649  0.2587
45409DOD     C180046   3.428  16.987   3.014 -0.3852  0.0571 -0.4472
45409DOD     C280047   3.366  16.608   3.307  0.1043 -0.0120 -0.2157
45409DOD     C380048   3.183  16.223   3.432  0.5567 -0.1780  0.1207
45410DOD     C180049  13.372  20.557  19.817 -0.2448  0.2140 -0.1614
45410DOD     C280050  13.085  20.254  19.660  0.0135 -0.0941  0.3748
45410DOD     C380051  13.019  19.831  19.844  0.0069  0.0603  0.3066
45411DOD     C180052  26.380  17.165  30.222  0.0122  0.0097 -0.0962
45411DOD     C280053  26.422  16.710  30.348  0.1752 -0.0870  0.0865
45411DOD     C380054  26.382  16.312  30.078  0.1009 -0.0793  0.1259
45412DOD     C180055  28.475  25.344   2.209 -0.0381 -0.2956  0.0732
45412DOD     C280056  28.224  25.240   1.786 -0.1869 -0.4750 -0.0531
45412DOD     C380057  28.118  24.805   1.674 -0.3738  0.2880  0.1825
45413DOD     C180058   9.313   1.026  30.029  0.3133 -0.1187  0.2760
45413DOD     C280059   8.834   1.019  30.053 -0.1936  0.0056 -0.2617
45413DOD     C380060   8.514   1.075   0.053  0.1631 -0.1271 -0.2285
45414DOD     C180061   2.213  26.352  14.346  0.1017  0.1229 -0.2053
45414DOD     C280062   1.939  26.666  14.527  0.0359  0.1693 -0.0175
45414DOD     C380063   1.503  26.766  14.612  0.2108 -0.0375 -0.2253
45415DOD     C180064   6.143   0.501  28.082 -0.0091  0.0756 -0.3174
45415DOD     C280065   6.042   0.854  27.817  0.1848  0.1062 -0.0398
45415DOD     C380066   6.227   0.876  27.365 -0.1249 -0.0812 -0.1534
45416DOD     C180067  23.194  17.080   9.881 -0.0690 -0.2094  0.0133
45416DOD     C280068  23.561  16.995  10.113 -0.1920  0.0248  0.4105
45416DOD     C380069  23.975  17.139   9.993 -0.1372  0.0163  0.0656
45417DOD     C180070  13.602   4.515  19.040  0.1660 -0.1429  0.3106
45417DOD     C280071  13.475   4.921  19.139 -0.4218  0.0432  0.0113
45417DOD     C380072  13.117   5.230  18.949 -0.1076  0.1057  0.0936
45418DOD     C180073  11.197   0.779   5.194  0.0580  0.1326  0.0362
45418DOD     C280074  11.186   0.793   4.759 -0.1024  0.0448  0.0066
45418DOD     C380075  11.202   1.031   4.384  0.2360  0.0520 -0.0515
45419DOD     C180076  28.774   8.822  20.498  0.2522 -0.0719  0.0939
45419DOD     C280077  28.384   8.970  20.324  0.3271 -0.0729 -0.2080
45419DOD     C380078  27.976   9.227  20.462  0.3100  0.1903 -0.1519
45420DOD     C180079  19.801   2.899  28.631  0.0155  0.1007 -0.1668
45420DOD     C280080  19.635   3.161  28.259 -0.0275 -0.0940  0.1451
45420DOD     C380081  19.641   3.425  27.921  0.2231 -0.0612  0.0623
45421DOD     C180082  15.467  21.887  29.287 -0.1103  0.2444  0.3244
45421DOD     C280083  15.171  22.239  29.132 -0.1095  0.1346 -0.2923
45421DOD     C380084  14.884  22.456  28.881  0.1020  0.0734  0.2550
45422DOD     C180085  16.148  19.408   9.061  0.1889  0.2378 -0.1921
45422DOD     C280086  16.536  19.426   8.751 -0.0264  0.1501 -0.0669
45422DOD     C380087  16.784  19.409   8.364 -0.4558 -0.0117 -0.1755
45423DOD     C180088  14.085  17.049   7.524  0.2627  0.0631  0.1348
45423DOD     C280089  14.337  16.710   7.302 -0.2402 -0.3123  0.1122
45423DOD     C380090  14.577  16.339   7.112  0.1564  0.0900  0.0765
45424DOD     C180091  22.473  30.203  22.370 -0.1435 -0.0112 -0.2548
45424DOD     C280092  22.113  30.052  22.640 -0.1481 -0.0776 -0.0483
45424DOD     C380093  21.751  29.751  22.719 -0.0670 -0.1174  0.1489
45425DOD     C180094  23.294   0.243  15.667  0.2250 -0.2775 -0.1084
45425DOD     C280095  23.215  30.132  15.921 -0.0946  0.0449  0.1008
45425DOD     C380096  23.190  30.014  16.370 -0.0357  0.1441 -0.2381
45426DOD     C180097  25.360  12.653  17.315 -0.0256  0.0291 -0.1766
45426DOD     C280098  25.031  12.352  17.353  0.0161 -0.0468 -0.1061
45426DOD     C380099  24.552  12.164  17.417 -0.1482  0.2382 -0.3352
45427DOD     C180100  14.456   6.836  17.921  0.1360  0.0483 -0.1452
45427DOD     C280101  14.602   6.451  18.212  0.0067 -0.0374 -0.0741
45427DOD     C380102  14.461   6.187  18.579  0.0496 -0.3793  0.1284
45428DOD     C180103  28.765   5.829   6.898 -0.1199  0.2650  0.0408
45428DOD     C280104  28.979   5.421   6.834 -0.2918  0.2309  0.1427
45428DOD     C380105  29.341   5.162   6.647 -0.1311 -0.2576 -0.3094
45429DOD     C180106   6.805  19.003  28.220 -0.1049 -0.1419  0.1761
45429DOD     C280107   6.524  19.211  28.542 -0.2127 -0.0560 -0.2799
45429DOD     C380108   6.279  19.019  28.912 -0.1166  0.1685  0.1800
45430DOD     C180109   9.379  14.089  23.946  0.2254 -0.1909 -0.0434
45430DOD     C280110   9.730  14.298  24.090 -0.2363  0.2031  0.0168
45430DOD     C380111  10.187  14.338  24.084  0.1635 -0.0036  0.1600
45431DOD     C180112  18.225  24.254  29.671  0.1314  0.4877  0.2457
45431DOD     C280113  18.234  23.816  29.878  0.0539  0.0168  0.0771
45431DOD     C380114  17.892  23.503  29.868  0.1875  0.2048 -0.1290
45432DOD     C180115  12.244  23.975  16.153 -0.1620 -0.2271 -0.3956
45432DOD     C280116  12.484  24.386  16.136  0.2855 -0.1228  0.2240
45432DOD     C380117  12.795  24.683  16.362  0.2601  0.2369 -0.2344
45433DOD     C180118  26.093  15.407  22.402  0.1735 -0.0455  0.0386
45433DOD     C280119  26.190  15.071  22.060 -0.1059 -0.2186  0.0512
45433DOD     C380120  26.514  14.859  21.999 -0.3375 -0.0030  0.0796
45434DOD     C180121  23.117  17.968   4.416  0.0319  0.3113  0.0006
45434DOD     C280122  23.474  17.665   4.348 -0.1998  0.0924 -0.2235
45434DOD     C380123  23.753  17.618   3.962  0.1203 -0.1272 -0.0455
45435DOD     C180124  14.185   0.087  25.977  0.0221  0.2622 -0.0483
45435DOD     C280125  13.943   0.461  25.894 -0.2368 -0.1861  0.3527
45435DOD     C380126  13.645   0.708  26.071  0.0006 -0.1389 -0.2523
45436DOD     C180127  10.761  15.864   1.698  0.0219  0.1521 -0.0014
45436DOD     C280128  10.986  15.469   1.733  0.2311  0.1997  0.1085
45436DOD     C380129  11.324  15.285   1.982 -0.1197  0.1764 -0.1752
45437DOD     C180130   3.647  25.856   8.039 -0.1034 -0.2895  0.1109
45437DOD     C280131   3.449  25.421   7.980  0.1539  0.2234  0.0167
45437DOD     C380132   3.504  24.996   7.964 -0.3812  0.2777  0.3016
45438DOD     C180133  26.023  17.618  24.585 -0.1325  0.1412 -0.2093
45438DOD     C280134  25.998  18.102  24.550  0.1046  0.1581 -0.1605
45438DOD     C380135  25.907  18.438  24.888  0.5857 -0.3572 -0.1674
45439DOD     C180136  21.999   4.544  15.830 -0.0316  0.0776  0.1915
45439DOD     C280137  22.081   4.232  15.491  0.1783  0.1455 -0.1362
45439DOD     C380138  22.319   3.867  15.638 -0.0453 -0.0671 -0.0967
45440DOD     C180139  23.031  11.166   9.011 -0.0386  0.0449 -0.1001
45440DOD     C280140  23.166  11.478   9.324 -0.1564 -0.2690  0.0972
45440DOD     C380141  22.901  11.874   9.276  0.1528 -0.2587 -0.0835
45441DOD     C180142   6.342   8.499   7.742 -0.1262  0.0326  0.0152
45441DOD     C280143   6.195   8.401   7.323  0.0861 -0.1818  0.1859
45441DOD     C380144   6.024   8.603   6.931  0.0851 -0.1018 -0.0274
45442DOD     C180145  13.826  27.615  11.629  0.1616  0.1743 -0.0607
45442DOD     C280146  13.896  27.865  11.234 -0.2397 -0.1961 -0.2367
45442DOD     C380147  14.293  27.945  10.996  0.0484 -0.2410  0.0212
45443DOD     C180148  25.227   5.855   7.377  0.0117  0.0362  0.0163
45443DOD     C280149  25.497   6.053   7.063  0.2157 -0.1808  0.1944
45443DOD     C380150  25.541   5.843   6.627  0.0254  0.1521 -0.2276
45444DOD     C180151  20.562   4.797  14.478  0.1231  0.0778 -0.1929
45444DOD     C280152  20.293   4.666  14.114 -0.2255  0.0101 -0.1209
45444DOD     C380153  20.231   4.589  13.667  0.0007  0.1618 -0.2683
45445DOD     C180154  11.274   2.676   9.715 -0.1420 -0.0865  0.0828
45445DOD     C280155  11.079   2.358   9.455  0.1066  0.1378 -0.0804
45445DOD     C380156  10.961   1.946   9.215  0.2611 -0.3176  0.1649
45446DOD     C180157   3.982   8.632   7.045 -0.2311 -0.0810  0.0717
45446DOD     C280158   3.925   8.473   7.514 -0.1156 -0.2502  0.1560
45446DOD     C380159   3.589   8.361   7.862  0.1555  0.1688  0.0677
45447DOD     C180160  18.511   0.735  21.894 -0.0505 -0.0760  0.3013
45447DOD     C280161  18.144   0.983  21.942 -0.2258  0.0462  0.0248
45447DOD     C380162  17.908   1.395  22.020 -0.1510  0.2879  0.1632
45448DOD     C180163   0.974  11.315  18.995 -0.0616 -0.0999  0.2568
45448DOD     C280164   0.487  11.454  18.907 -0.1983  0.0084  0.0365
45448DOD     C380165   0.102  11.702  18.970  0.0986  0.2584  0.1966
45449DOD     C180166  28.340  22.791  22.804  0.0149  0.0309  0.0495
45449DOD     C280167  28.733  22.921  22.622  0.2875  0.1086 -0.2259
45449DOD     C380168  29.076  23.131  22.458 -0.0992 -0.0090 -0.0854
45450DOD     C180169  11.317   2.280   0.968  0.5012  0.3778 -0.2694
45450DOD     C280170  11.476   2.260   1.424 -0.2947  0.0981 -0.0691
45450DOD     C380171  11.533   1.941   1.737  0.1522  0.1261  0.0119
45451DOD     C180172  25.152   9.095  11.683 -0.0209 -0.0488  0.2148
45451DOD     C280173  24.824   9.270  11.392 -0.1593 -0.2973 -0.2222
45451DOD     C380174  24.434   9.581  11.356 -0.2814  0.0275 -0.0588
45452DOD     C180175  24.958  18.443  21.612 -0.0097 -0.0100  0.3757
45452DOD     C280176  25.009  18.802  21.933 -0.0039  0.0777  0.3298
45452DOD     C380177  24.858  19.001  22.329 -0.0793 -0.0626 -0.1160
45453DOD     C180178   5.091  29.138  26.860  0.2194 -0.0695 -0.1429
45453DOD     C280179   5.135  29.001  26.459 -0.2058 -0.2244  0.2927
45453DOD     C380180   5.317  28.878  26.005 -0.1137 -0.3442 -0.0881
45454DOD     C180181  17.324  10.954  10.280 -0.0191  0.2222 -0.0201
45454DOD     C280182  17.286  10.671  10.662  0.2128  0.0494  0.4128
45454DOD     C380183  17.450  10.215  10.609 -0.2179 -0.0039  0.0541
45455DOD     C180184  21.042  20.204  29.514 -0.0774  0.0234 -0.2689
45455DOD     C280185  20.872  20.601  29.728 -0.3141 -0.0992 -0.0271
45455DOD     C380186  20.794  21.012  29.961  0.0734 -0.0230  0.0364
45456DOD     C180187  16.632  21.941  26.127 -0.0892  0.0547  0.0431
45456DOD     C280188  16.278  21.839  26.384  0.3708  0.0029  0.2384
45456DOD     C380189  16.035  21.458  26.549 -0.0399 -0.0506  0.0317
45457DOD     C180190  25.266  15.492   1.672 -0.0370  0.0793  0.1252
45457DOD     C280191  25.554  15.203   1.408  0.1063  0.0239 -0.4155
45457DOD     C380192  25.831  14.844   1.220 -0.4704  0.1163 -0.1826
45458DOD     C180193   8.496  26.854  12.889 -0.0151 -0.1018 -0.0007
45458DOD     C280194   8.575  26.434  13.085 -0.2028 -0.1013 -0.1214
45458DOD     C380195   8.707  26.101  13.377  0.0449  0.1510  0.2309
45459DOD     C180196  28.575  18.588  12.266  0.0462 -0.1506  0.1892
45459DOD     C280197  28.420  18.436  11.819  0.0424  0.0112  0.2618
45459DOD     C380198  28.183  18.557  11.423  0.0368  0.1173  0.0627
45460DOD     C180199  12.989   9.365  20.196 -0.0189 -0.0892 -0.1352
45460DOD     C280200  12.628   9.160  20.008  0.0892 -0.0813 -0.1600
45460DOD     C380201  12.479   8.879  19.662 -0.4175 -0.2025 -0.0858
45461DOD     C180202   3.939  21.535  23.906 -0.0553 -0.1670  0.0886
45461DOD     C280203   3.725  21.188  23.675 -0.1873 -0.1019  0.1033
45461DOD     C380204   3.712  20.872  23.413 -0.2412  0.3255  0.1971
45462DOD     C180205   1.770   9.087   1.915  0.0374  0.1572  0.0779
45462DOD     C280206   1.674   9.330   1.459 -0.0950  0.3826 -0.0737
45462DOD     C380207   1.472   9.513   1.048  0.3546  0.0562  0.1681
45463DOD     C180208  18.255  16.378   2.935  0.0131 -0.1625 -0.3466
45463DOD     C280209  18.394  15.941   3.125  0.0656 -0.0599 -0.2479
45463DOD     C380210  18.617  15.784   3.470  0.0492  0.1778  0.0277
45464DOD     C180211   3.458  17.830  24.260  0.0385 -0.2086  0.2212
45464DOD     C280212   3.880  17.726  24.304  0.1334 -0.0918  0.1479
45464DOD     C380213   4.253  17.487  24.200  0.0304  0.1750  0.0944
45465DOD     C180214  10.985   3.407   4.552 -0.2848  0.2492  0.2102
45465DOD     C280215  11.103   3.358   4.983  0.0958  0.0675 -0.4857
45465DOD     C380216  11.185   3.387   5.489 -0.0038  0.1278 -0.1170
45466DOD     C180217   8.166  27.307  23.833 -0.1742  0.2166 -0.0697
45466DOD     C280218   8.220  27.738  23.674  0.0425 -0.1728  0.2108
45466DOD     C380219   8.203  28.073  23.330 -0.0839  0.1502  0.0511
45467DOD     C180220   9.853  20.967   6.524 -0.1886  0.2153 -0.0389
45467DOD     C280221   9.573  21.244   6.765 -0.0940 -0.3579  0.0662
45467DOD     C380222   9.268  20.922   6.813 -0.2040  0.1756  0.0717
45468DOD     C180223   2.071  28.413  12.176  0.1215 -0.2159 -0.0734
45468DOD     C280224   1.869  28.734  11.936  0.3602  0.0351  0.0843
45468DOD     C380225   1.921  29.192  11.908  0.0218 -0.2988  0.0346
45469DOD     C180226   4.835  10.093  21.988  0.0156  0.1997 -0.0866
45469DOD     C280227   4.619   9.808  22.304  0.0479 -0.1855  0.1651
45469DOD     C380228   4.698   9.666  22.742 -0.2531  0.1227  0.0079
45470DOD     C180229   7.714   9.275  24.982  0.0646  0.1137 -0.0959
45470DOD     C280230   7.551   9.214  25.456 -0.0686 -0.1552 -0.1745
45470DOD     C380231   7.449   8.781  25.662  0.1254  0.3400  0.1445
45471DOD     C180232  26.512   2.811  21.786  0.0629 -0.0320 -0.1029
45471DOD     C280233  26.777   2.666  22.135  0.2550 -0.2702  0.1589
45471DOD     C380234  27.189   2.428  22.242 -0.0507 -0.2900  0.0114
45472DOD     C180235  12.389  13.291   7.012 -0.0140 -0.2679  0.1557
45472DOD     C280236  12.428  13.542   6.623  0.2230 -0.0432  0.0732
45472DOD     C380237  12.482  13.512   6.156 -0.1788 -0.2488  0.1620
45473DOD     C180238   6.039   6.921   1.803  0.0962 -0.1048 -0.0362
45473DOD     C280239   6.234   7.077   2.212 -0.0627 -0.1512  0.0384
45473DOD     C380240   6.461   7.042   2.629 -0.2160 -0.1731  0.0695
45474DOD     C180241  25.471  24.093  17.977 -0.0128 -0.0427  0.0978
45474DOD     C280242  25.488  23.657  17.998 -0.1509  0.0896  0.0600
45474DOD     C380243  25.441  23.210  17.919  0.0842 -0.1484  0.0385
45475DOD     C180244   5.617  17.548   5.252  0.1327  0.2526  0.4660
45475DOD     C280245   5.692  17.134   5.432 -0.1229  0.1339 -0.1527
45475DOD     C380246   5.880  16.788   5.746 -0.1187  0.3390  0.1712
45476DOD     C180247  18.477  19.353  20.917  0.0550 -0.1408  0.0510
45476DOD     C280248  18.331  19.660  21.310 -0.0026 -0.1299  0.0803
45476DOD     C380249  18.403  20.058  21.547  0.0231  0.3260 -0.1981
45477DOD     C180250  16.800   6.235  24.924 -0.0866  0.2314 -0.0980
45477DOD     C280251  17.121   6.416  25.226 -0.3033 -0.3895 -0.2714
45477DOD     C380252  17.258   6.660  25.623 -0.1355  0.3616 -0.0956
45478DOD     C180253  22.059  20.444  13.658  0.3999 -0.1457 -0.3606
45478DOD     C280254  22.358  20.283  14.020 -0.1911  0.0316 -0.0044
45478DOD     C380255  22.753  20.173  14.313  0.0661  0.0361  0.1991
45479DOD     C180256   0.655  28.625   5.701 -0.2793  0.3082 -0.0936
45479DOD     C280257   0.524  28.455   5.246 -0.0420 -0.0657  0.0114
45479DOD     C380258   0.232  28.198   4.979  0.0578  0.0188  0.0442
45480DOD     C180259   1.013  23.810  22.842  0.0005  0.0683 -0.0725
45480DOD     C280260   0.847  23.518  23.098  0.0036  0.0624  0.1794
45480DOD     C380261   1.122  23.328  23.429  0.1168  0.0392  0.1800
45481DOD     C180262  30.033  12.195   0.194  0.1188  0.2067  0.0979
45481DOD     C280263  29.830  11.808   0.382 -0.1567 -0.1086  0.0877
45481DOD     C380264  29.477  11.560   0.585 -0.2107 -0.1004 -0.1967
45482DOD     C180265   3.595  17.351  15.887 -0.1160  0.2779  0.1230
45482DOD     C280266   3.610  17.703  16.218 -0.1199  0.0842  0.0465
45482DOD     C380267   4.010  17.934  16.413  0.1643  0.1644  0.1146
45483DOD     C180268   2.430   5.796   2.217  0.1290  0.0238 -0.1638
45483DOD     C280269   2.751   6.163   2.136  0.0726 -0.4167 -0.0565
45483DOD     C380270   2.903   6.527   1.928  0.1073  0.5042 -0.0893
45484DOD     C180271  13.924  20.895  18.207  0.1082 -0.2950  0.0501
45484DOD     C280272  14.348  20.705  18.419 -0.3034 -0.1789 -0.0146
45484DOD     C380273  14.781  20.629  18.567 -0.1822  0.0212  0.2017
45485DOD     C180274   3.790  17.280   3.235  0.1433 -0.2602 -0.1602
45485DOD     C280275   3.824  16.829   3.271  0.0308  0.0280 -0.0473
45485DOD     C380276   3.929  16.391   3.342  0.0673  0.0506  0.4557
45486DOD     C180277   3.180  17.468  16.697 -0.0341 -0.3366  0.0243
45486DOD     C280278   3.634  17.661  16.765 -0.2745 -0.0478 -0.0455
45486DOD     C380279   3.808  18.042  16.913  0.0752  0.0887  0.2557
45487DOD     C180280  16.259  10.452  21.446  0.1283  0.0111  0.2567
45487DOD     C280281  16.143  10.507  21.907  0.0617  0.2382 -0.1107
45487DOD     C380282  16.197  10.462  22.350  0.1045  0.2629 -0.0991
45488DOD     C180283   9.983  20.849  25.786 -0.1268 -0.1034  0.1507
45488DOD     C280284  10.344  20.898  25.477 -0.1016  0.0902 -0.2472
45488DOD     C380285  10.786  21.026  25.510 -0.2744 -0.2211  0.2804
45489DOD     C180286  27.011   4.201  14.947 -0.0655 -0.1116  0.4275
45489DOD     C280287  27.414   4.368  14.813 -0.2523 -0.1108 -0.0635
45489DOD     C380288  27.750   4.356  14.436 -0.1102  0.1671  0.1080
45490DOD     C180289  29.916  25.590  20.817 -0.1069  0.1195  0.0418
45490DOD     C280290  29.862  26.015  21.021  0.0694 -0.3943  0.0005
45490DOD     C380291  29.585  26.324  20.781 -0.0032  0.0143 -0.1756
45491DOD     C180292   0.148   4.929  24.722  0.1557  0.0370 -0.0633
45491DOD     C280293   0.289   5.360  24.567 -0.1033  0.1971  0.3660
45491DOD     C380294   0.413   5.775  24.563 -0.1803 -0.3304 -0.0396
45492DOD     C180295   9.164   3.660   4.817  0.0070  0.0099 -0.1429
45492DOD     C280296   9.011   4.058   4.835  0.0335 -0.4368 -0.1062
45492DOD     C380297   8.993   4.579   4.928  0.2694 -0.1520 -0.1845
45493DOD     C180298  27.309  26.744  20.847  0.2905  0.0635 -0.0562
45493DOD     C280299  27.412  26.870  20.391 -0.2043 -0.1933  0.1473
45493DOD     C380300  27.710  27.028  20.111  0.0770 -0.0803  0.0351
45494DOD     C180301   3.451  23.866   6.273 -0.1968  0.2396  0.3910
45494DOD     C280302   3.025  24.019   6.459 -0.1388 -0.0355  0.1867
45494DOD     C380303   2.708  23.915   6.814 -0.0216 -0.2067  0.0371
45495DOD     C180304  13.398  19.992  27.219  0.2651  0.1030 -0.1350
45495DOD     C280305  13.369  20.466  27.318  0.3290  0.1293  0.1995
45495DOD     C380306  13.185  20.937  27.315 -0.0084 -0.0241 -0.2494
45496DOD     C180307  25.289  21.073  11.468 -0.1568  0.1860 -0.0543
45496DOD     C280308  25.726  20.996  11.263  0.4001  0.1100  0.1672
45496DOD     C380309  25.860  20.713  10.944 -0.1650  0.2980  0.0415
45497DOD     C180310   3.579   5.616  16.745  0.0900 -0.1043  0.1265
45497DOD     C280311   3.168   5.688  16.930 -0.3786  0.2213 -0.2698
45497DOD     C380312   2.743   5.944  16.963 -0.1034  0.2891  0.0206
45498DOD     C180313  13.154  25.285   2.640 -0.2904  0.1920 -0.1287
45498DOD     C280314  13.365  25.381   2.256 -0.2134 -0.0468  0.5370
45498DOD     C380315  13.489  25.153   1.850 -0.1031  0.0522 -0.4389
45499DOD     C180316   9.935   9.076  16.642  0.1587 -0.2559  0.3637
45499DOD     C280317   9.681   9.356  16.513 -0.1795 -0.1762 -0.3208
45499DOD     C380318   9.410   9.708  16.443 -0.2194 -0.3008 -0.1561
45500DOD     C180319  29.683  21.205  21.804 -0.2756  0.0473 -0.0121
45500DOD     C280320  29.264  21.219  21.683  0.1021 -0.2797  0.0457
45500DOD     C380321  28.832  21.186  21.820  0.1027 -0.2051 -0.3227
45501DOD     C180322  11.067   0.691  27.762  0.1614  0.2453 -0.1922
45501DOD     C280323  10.672   0.523  27.571  0.1107 -0.1189 -0.0053
45501DOD     C380324  10.217   0.333  27.569 -0.3328 -0.0865 -0.0323
45502DOD     C180325   3.662  18.002  25.475 -0.0057  0.2629 -0.3120
45502DOD     C280326   3.659  17.790  25.887  0.0897  0.2862 -0.0756
45502DOD     C380327   3.872  17.582  26.228 -0.0629 -0.1435 -0.1237
45503DOD     C180328   1.349  14.318  10.662  0.2314  0.0958 -0.1206
45503DOD     C280329   1.742  14.340  10.551 -0.1186 -0.1591 -0.1340
45503DOD     C380330   2.148  14.365  10.658  0.0546  0.0907  0.1058
45504DOD     C180331  25.313   7.998  24.067  0.2836 -0.1722  0.2163
45504DOD     C280332  25.398   7.717  23.648 -0.2849  0.2174  0.1974
45504DOD     C380333  25.428   7.262  23.464  0.1535  0.2858  0.0519
45505DOD     C180334  16.102   2.283  23.143  0.0325 -0.0238 -0.0020
45505DOD     C280335  16.065   2.783  23.114  0.0747 -0.5141 -0.2437
45505DOD     C380336  15.772   3.156  23.137 -0.0807  0.0833 -0.4149
45506DOD     C180337  23.155   7.218   0.052  0.1618  0.0427  0.0338
45506DOD     C280338  22.884   7.148   0.443  0.0776 -0.3324  0.0924
45506DOD     C380339  22.825   7.257   0.930  0.2115  0.0473  0.0524
45507DOD     C180340  17.844   4.399   9.542 -0.0414 -0.2043  0.2759
45507DOD     C280341  18.134   4.334   9.177 -0.1304 -0.3921  0.0182
45507DOD     C380342  18.576   4.293   9.070  0.4707  0.2281  0.0553
45508DOD     C180343  26.783  14.770   3.656 -0.3482  0.3824  0.2894
45508DOD     C280344  26.435  14.567   3.731 -0.0944 -0.0501 -0.0879
45508DOD     C380345  26.173  14.249   3.914  0.2094 -0.2007  0.3005
45509DOD     C180346   1.667   4.575  19.796 -0.2226 -0.1984  0.2161
45509DOD     C280347   1.313   4.396  19.873  0.2725 -0.1936  0.3447
45509DOD     C380348   1.014   4.300  20.258  0.0781  0.0899 -0.0518
45510DOD     C180349  18.783   1.598   6.656 -0.0761  0.1237  0.1435
45510DOD     C280350  18.661   1.826   6.273 -0.2653 -0.1471  0.0008
45510DOD     C380351  19.022   2.128   6.075  0.1891  0.0584 -0.1446
45511DOD     C180352  26.155  19.048   3.321 -0.1051 -0.2224 -0.3627
45511DOD     C280353  26.268  19.425   3.066  0.0773  0.0731  0.2010
45511DOD     C380354  26.391  19.574   2.673 -0.1434 -0.2741 -0.3750
45512DOD     C180355  14.180  20.959  26.523 -0.0046  0.1044  0.0875
45512DOD     C280356  14.496  21.100  26.764  0.0571 -0.1684 -0.0337
45512DOD     C380357  14.795  21.216  27.105  0.0284  0.0189 -0.2299
45513DOD     C180358  28.714  14.614  22.381 -0.1083  0.2270 -0.0411
45513DOD     C280359  28.671  15.104  22.419 -0.1735  0.0012  0.0244
45513DOD     C380360  28.927  15.545  22.553 -0.0638  0.0694  0.1083
45514DOD     C180361  15.600  29.384  11.260 -0.0570  0.1758 -0.0311
45514DOD     C280362  15.164  29.510  11.428 -0.6441  0.0253  0.2603
45514DOD     C380363  14.996  29.455  11.788 -0.2860  0.0591 -0.3551
45515DOD     C180364  24.397   7.221  25.396  0.0281 -0.1066  0.0912
45515DOD     C280365  24.677   7.014  25.116 -0.2498  0.1115  0.2484
45515DOD     C380366  25.008   6.655  25.131 -0.0536  0.2248  0.0156
45516DOD     C180367  10.000  16.888  18.289  0.0074  0.1106  0.0309
45516DOD     C280368   9.740  16.693  17.970  0.0354 -0.2027  0.1223
45516DOD     C380369   9.424  16.352  17.865  0.0679  0.5335  0.0652
45517DOD     C180370  25.392   4.570   8.274 -0.0317 -0.1870 -0.1471
45517DOD     C280371  25.028   4.653   8.040  0.0507  0.0031  0.1570
45517DOD     C380372  24.573   4.573   7.945 -0.2154  0.2637  0.0372
45518DOD     C180373   4.993  20.732  26.557  0.0116  0.0233 -0.2191
45518DOD     C280374   4.867  20.965  26.958 -0.3134  0.1906  0.0875
45518DOD     C380375   4.698  21.126  27.273 -0.0201  0.0464  0.0607
45519DOD     C180376   6.439  12.961   8.078 -0.2180 -0.0893 -0.0030
45519DOD     C280377   6.181  12.615   8.178 -0.2792 -0.0360 -0.1668
45519DOD     C380378   6.197  12.140   8.105 -0.1140  0.1667 -0.2831
45520DOD     C180379   7.000  20.313  12.835 -0.2851  0.0714  0.0880
45520DOD     C280380   7.407  20.543  12.937  0.0825 -0.3322 -0.1070
45520DOD     C380381   7.769  20.424  12.689  0.1957 -0.1122  0.1595
45521DOD     C180382  19.646   0.703   5.041  0.0458 -0.0825 -0.1489
45521DOD     C280383  19.478   0.606   4.577 -0.1112 -0.2563 -0.1090
45521DOD     C380384  19.156   0.874   4.346 -0.1482 -0.1653  0.3254
45522DOD     C180385  12.458   6.098  25.176 -0.1158  0.1494  0.0459
45522DOD     C280386  12.603   6.179  24.747 -0.1085 -0.0571 -0.1223
45522DOD     C380387  12.742   5.917  24.375  0.0166 -0.2471  0.2073
45523DOD     C180388  10.911   1.437   4.524  0.0016 -0.2182 -0.1597
45523DOD     C280389  10.808   1.889   4.590  0.3016  0.0735  0.1332
45523DOD     C380390  10.572   2.336   4.621 -0.1215  0.0094  0.0170
45524DOD     C180391  22.362   1.726   7.301 -0.0990 -0.1619  0.2174
45524DOD     C280392  22.071   2.012   7.064  0.1925  0.0181 -0.1911
45524DOD     C380393  21.680   2.257   7.109 -0.0132  0.2001 -0.0796
45525DOD     C180394  29.212  28.005  12.994 -0.1189 -0.0800 -0.0054
45525DOD     C280395  29.323  27.667  13.319 -0.1927 -0.2216 -0.1467
45525DOD     C380396  29.137  27.205  13.283  0.0824 -0.0203  0.2579
45526DOD     C180397  18.713  19.106  19.558 -0.0624 -0.1340 -0.0550
45526DOD     C280398  18.905  19.166  19.995  0.1705 -0.3063  0.0324
45526DOD     C380399  18.981  18.963  20.362  0.0256  0.1442  0.0113
45527DOD     C180400   7.971  29.225  16.847  0.0799 -0.0476 -0.1227
45527DOD     C280401   7.611  29.502  16.868  0.2786  0.1050 -0.0823
45527DOD     C380402   7.198  29.664  16.968  0.0722  0.0208 -0.1995
45528DOD     C180403  15.625  17.677  12.778  0.1773  0.1410  0.2456
45528DOD     C280404  15.558  17.867  12.387  0.0229 -0.2314 -0.0588
45528DOD     C380405  15.519  17.968  11.855  0.2289 -0.1930 -0.2559
45529DOD     C180406  20.086  12.491   3.452  0.2731 -0.1063  0.0355
45529DOD     C280407  20.325  12.096   3.236 -0.5170  0.1206  0.1305
45529DOD     C380408  20.453  11.808   2.857 -0.0128 -0.2894  0.2105
45530DOD     C180409  29.231  23.649   6.605  0.2430  0.0713  0.4573
45530DOD     C280410  28.862  23.908   6.796 -0.0468 -0.0342  0.2963
45530DOD     C380411  28.672  24.328   6.770 -0.1323  0.1658  0.1568
45531DOD     C180412  23.344  22.446  27.740 -0.0559  0.3481 -0.0454
45531DOD     C280413  23.420  22.334  27.338 -0.1439 -0.0447 -0.2175
45531DOD     C380414  23.808  22.155  27.111 -0.1111 -0.1541  0.0386
45532DOD     C180415  26.791  11.965   3.390  0.3685 -0.2182 -0.1817
45532DOD     C280416  26.816  12.073   3.872  0.0463  0.0602 -0.1471
45532DOD     C380417  27.187  12.208   4.129  0.0314  0.1430 -0.0736
45533DOD     C180418  10.461  27.647   7.565  0.1716 -0.2132  0.2399
45533DOD     C280419  10.612  28.001   7.348  0.2654  0.4346  0.1092
45533DOD     C380420  10.838  28.394   7.289  0.2527  0.1154  0.1185
45534DOD     C180421  10.916  22.676  18.868  0.1543  0.0801 -0.2326
45534DOD     C280422  10.630  23.010  18.615  0.3937  0.0537 -0.0338
45534DOD     C380423  10.135  23.132  18.416  0.0664 -0.0895 -0.0424
45535DOD     C180424   0.132  22.079  17.590  0.1850  0.0463 -0.0617
45535DOD     C280425   0.135  22.556  17.489  0.0589 -0.3202 -0.0160
45535DOD     C380426  30.268  22.883  17.225  0.1196 -0.1362  0.0518
45536DOD     C180427  27.500   8.765  19.381  0.0933  0.0743  0.1185
45536DOD     C280428  27.468   8.911  18.898 -0.1472  0.1689  0.0694
45536DOD     C380429  27.302   8.991  18.515  0.0699 -0.0889  0.1166
45537DOD     C180430   5.108  27.684  20.843  0.0286  0.1308  0.3027
45537DOD     C280431   5.536  27.689  21.106 -0.0221  0.3272 -0.0727
45537DOD     C380432   5.846  27.313  21.144  0.1662 -0.0425 -0.0781
45538DOD     C180433   5.951  17.833  15.340  0.1859  0.1388 -0.1086
45538DOD     C280434   5.992  17.957  15.807  0.1149 -0.1844  0.4591
45538DOD     C380435   6.400  17.834  16.068 -0.1448  0.4637 -0.2202
45539DOD     C180436   4.425  18.747  11.002 -0.1274 -0.0343  0.0890
45539DOD     C280437   4.918  18.698  11.017  0.0865 -0.0457 -0.0954
45539DOD     C380438   5.322  18.785  11.191 -0.3175 -0.3760 -0.2312
45540DOD     C180439  21.580  30.110  17.188 -0.1147 -0.1045  0.0318
45540DOD     C280440  21.521   0.216  16.992  0.1010 -0.2938 -0.0860
45540DOD     C380441  21.356   0.589  16.728 -0.2435 -0.0078  0.1423
45541DOD     C180442  28.657  29.775  16.806  0.2736 -0.0859  0.1938
45541DOD     C280443  28.487  30.128  16.641  0.0885 -0.2048  0.2352
45541DOD     C380444  28.165   0.106  16.782  0.2760  0.2035 -0.0530
45542DOD     C180445  20.661  13.958  16.642 -0.1235 -0.0528  0.2859
45542DOD     C280446  20.469  13.781  16.991 -0.1463  0.0627 -0.0696
45542DOD     C380447  20.377  13.715  17.454  0.0588  0.1972 -0.0703
45543DOD     C180448  13.911  19.272   0.900 -0.2911  0.0393  0.0360
45543DOD     C280449  13.589  19.641   0.827  0.1114  0.2295 -0.1136
45543DOD     C380450  13.435  20.032   0.802  0.1405 -0.2916 -0.1080
45544DOD     C180451  18.535  24.034  17.555  0.1331 -0.1336  0.1923
45544DOD     C280452  18.372  23.899  17.945  0.0758  0.3605 -0.0422
45544DOD     C380453  18.015  24.046  18.174  0.3412 -0.1244 -0.0071
45545DOD     C180454  18.256  21.243   7.044 -0.0734 -0.3655  0.0514
45545DOD     C280455  18.324  21.142   6.617 -0.3393  0.2971 -0.0171
45545DOD     C380456  18.262  21.092   6.174  0.0019  0.0347  0.1922
45546DOD     C180457  23.395  15.071  16.758 -0.0604  0.1577 -0.0553
45546DOD     C280458  23.657  15.448  16.713  0.0216  0.0157  0.0905
45546DOD     C380459  23.946  15.630  17.026  0.0277 -0.1329  0.0808
45547DOD     C180460  29.950  13.354  20.436 -0.0780  0.1071  0.0845
45547DOD     C280461  29.823  13.307  20.843 -0.1014 -0.0169  0.4888
45547DOD     C380462  29.626  13.251  21.272  0.1761  0.4012 -0.1157
45548DOD     C180463  11.081  14.838  29.026  0.2342 -0.0464  0.0629
45548DOD     C280464  11.064  14.677  28.610 -0.0930  0.0508  0.1363
45548DOD     C380465  10.959  14.655  28.115 -0.3133 -0.2523 -0.1992
45549DOD     C180466   1.395  18.341   2.336  0.1147  0.2160  0.1982
45549DOD     C280467   1.882  18.297   2.221 -0.3175  0.2201 -0.2005
45549DOD     C380468   2.301  18.217   2.436  0.1135 -0.0912  0.0595
45550DOD     C180469  27.699   8.057  27.551 -0.0002  0.3045 -0.2493
45550DOD     C280470  27.608   7.836  27.173 -0.0525  0.1080  0.0071
45550DOD     C380471  27.198   7.757  26.924 -0.0243  0.1454  0.1407
45551DOD     C180472  20.361   2.909   1.743  0.1068 -0.2124  0.0089
45551DOD     C280473  20.627   2.745   2.063  0.1809 -0.0042  0.1116
45551DOD     C380474  20.856   2.284   1.990  0.3348 -0.2390 -0.2743
45552DOD     C180475  15.003   5.939  12.981 -0.0728  0.0860 -0.1192
45552DOD     C280476  15.146   6.164  13.382  0.1588 -0.3951  0.2900
45552DOD     C380477  15.565   6.272  13.508 -0.1619 -0.0519 -0.3578
45553DOD     C180478   6.332   5.515  28.744 -0.2167  0.0227 -0.0568
45553DOD     C280479   6.767   5.531  28.676  0.3423  0.0291  0.1410
45553DOD     C380480   7.200   5.552  28.730 -0.0836  0.0665  0.3277
45554DOD     C180481  22.155  18.332   2.095  0.0276 -0.2368 -0.0625
45554DOD     C280482  22.094  18.339   1.662 -0.4805  0.1614  0.1206
45554DOD     C380483  22.142  18.455   1.206 -0.0544 -0.2202 -0.0557
45555DOD     C180484  24.645   5.538  25.256  0.1146 -0.3021  0.2554
45555DOD     C280485  24.530   5.979  25.089 -0.2940  0.3857  0.0656
45555DOD     C380486  24.787   6.165  24.771 -0.0067  0.2863 -0.0916
45556DOD     C180487   7.568  29.822  26.371  0.1874 -0.0370  0.0482
45556DOD     C280488   7.232  30.048  26.555 -0.0280 -0.0604  0.0546
45556DOD     C380489   6.800  30.135  26.405 -0.0862 -0.0381 -0.2314
45557DOD     C180490  12.201  16.423  12.029 -0.1370  0.0538 -0.0346
45557DOD     C280491  12.585  16.430  12.283  0.0977  0.3494 -0.0411
45557DOD     C380492  12.948  16.114  12.416  0.0080  0.1966  0.1616
45558DOD     C180493   1.350   2.389  10.009 -0.0235 -0.0093  0.2162
45558DOD     C280494   1.813   2.417   9.979  0.0644 -0.0559 -0.2461
45558DOD     C380495   1.984   2.286   9.591  0.1916 -0.3835  0.3719
45559DOD     C180496  21.721   8.401  16.273  0.1047  0.1477 -0.0161
45559DOD     C280497  21.988   7.997  16.128 -0.1882  0.3039  0.1985
45559DOD     C380498  22.207   7.650  15.858  0.1453 -0.0880 -0.2371
45560DOD     C180499   5.062  20.463  11.892  0.1953  0.2260  0.0072
45560DOD     C280500   4.928  20.181  12.189 -0.0811 -0.1182  0.0758
45560DOD     C380501   4.633  20.032  12.519 -0.0152 -0.0493  0.0544
45561DOD     C180502   9.413  29.661  14.010 -0.0744 -0.0939  0.1342
45561DOD     C280503   9.565  29.678  13.555  0.3255 -0.1168 -0.0055
45561DOD     C380504   9.378  29.840  13.110  0.3716 -0.1276 -0.2357
45562DOD     C180505  10.885  15.946  29.021  0.3890  0.0411  0.1352
45562DOD     C280506  11.259  16.235  29.093  0.1565 -0.1229 -0.4691
45562DOD     C380507  11.745  16.410  29.039 -0.0908  0.0144  0.2441
45563DOD     C180508  23.266   2.454   8.170 -0.0680 -0.3845  0.1485
45563DOD     C280509  23.007   2.850   8.216  0.0694 -0.0756 -0.0067
45563DOD     C380510  22.872   3.177   8.507  0.2105  0.2778  0.0789
45564DOD     C180511  12.729  19.959   9.574 -0.1330 -0.2725  0.0553
45564DOD     C280512  12.868  19.909  10.009 -0.0958 -0.0847  0.0736
45564DOD     C380513  12.804  20.211  10.332 -0.0622 -0.0269 -0.2011
45565DOD     C180514  28.546  18.583  19.212  0.1835 -0.0136  0.2449
45565DOD     C280515  28.215  18.449  19.380  0.2501 -0.0027  0.0834
45565DOD     C380516  27.834  18.655  19.252  0.3087  0.0807 -0.0127
45566DOD     C180517  26.007  14.720  15.303 -0.1982  0.1393  0.0893
45566DOD     C280518  25.757  15.100  15.366 -0.0585 -0.2395 -0.1544
45566DOD     C380519  25.696  15.495  15.519  0.1627 -0.0472 -0.0794
45567DOD     C180520  10.982  24.066  20.711 -0.2353 -0.2539  0.1264
45567DOD     C280521  10.540  24.173  20.780  0.0370 -0.0085 -0.3061
45567DOD     C380522  10.249  24.162  20.415 -0.2172  0.1691 -0.1271
45568DOD     C180523  28.108  22.373  20.464  0.0108 -0.0904  0.2818
45568DOD     C280524  27.717  22.265  20.447  0.0422 -0.0286 -0.0394
45568DOD     C380525  27.245  22.230  20.451 -0.0777 -0.0209  0.4328
45569DOD     C180526  25.065  11.273  25.053 -0.0323  0.0690 -0.2525
45569DOD     C280527  25.479  11.202  25.202 -0.2009 -0.0757  0.0237
45569DOD     C380528  25.959  11.258  25.345  0.0678 -0.0141  0.0202
45570DOD     C180529  27.437   3.142  10.918 -0.0252 -0.1433  0.1675
45570DOD     C280530  27.364   3.222  11.362  0.3197 -0.3819  0.2596
45570DOD     C380531  26.985   3.096  11.635 -0.1281  0.0148  0.0002
45571DOD     C180532  25.501   0.429  15.417 -0.1296  0.2638  0.1752
45571DOD     C280533  25.850   0.161  15.260  0.0736 -0.1707 -0.0289
45571DOD     C380534  26.024  30.027  15.184  0.0113 -0.0678  0.0801
45572DOD     C180535   3.593  21.713  10.606  0.1776 -0.0671 -0.2516
45572DOD     C280536   4.049  21.602  10.649 -0.2697  0.3416 -0.1628
45572DOD     C380537   4.348  21.275  10.433 -0.0235  0.2672 -0.0461
45573DOD     C180538   7.505   3.630  14.325  0.0792  0.1129 -0.1268
45573DOD     C280539   7.573   3.430  13.945  0.1228 -0.0436 -0.0309
45573DOD     C380540   7.952   3.344  13.693 -0.2046  0.2089 -0.1368
45574DOD     C180541  16.135  13.273  26.502 -0.3240 -0.2786 -0.1702
45574DOD     C280542  15.716  13.206  26.697 -0.0341  0.0036  0.0819
45574DOD     C380543  15.308  13.259  26.917 -0.0401  0.1409 -0.1712
45575DOD     C180544  28.029   8.420  23.783 -0.0424  0.3091 -0.4785
45575DOD     C280545  28.021   8.890  23.733 -0.1428 -0.1739  0.0310
45575DOD     C380546  28.058   9.352  23.610 -0.6652  0.2007 -0.0982
45576DOD     C180547  23.172  27.637  25.656  0.0464 -0.0266  0.2053
45576DOD     C280548  22.754  27.524  25.566  0.0477  0.1016  0.2188
45576DOD     C380549  22.349  27.696  25.397  0.2652  0.0008 -0.3075
45577DOD     C180550  12.442  12.628   9.314 -0.0855 -0.1716 -0.0712
45577DOD     C280551  12.919  12.693   9.360 -0.2840  0.0570 -0.0020
45577DOD     C380552  13.375  12.778   9.457  0.1104 -0.0844  0.0888
45578DOD     C180553  12.992  22.944  21.028 -0.3349 -0.0280  0.0790
45578DOD     C280554  12.650  23.159  21.250 -0.1833  0.0159  0.1281
45578DOD     C380555  12.352  23.139  21.624 -0.1829 -0.0726 -0.0538
45579DOD     C180556   9.060  29.258   1.485 -0.0657 -0.1624  0.1862
45579DOD     C280557   9.292  29.670   1.453  0.0651 -0.1444 -0.0302
45579DOD     C380558   9.687  29.849   1.273 -0.3501 -0.1781  0.0350
45580DOD     C180559   6.904  15.478  21.477 -0.0164 -0.0746 -0.0743
45580DOD     C280560   7.282  15.713  21.633 -0.0208  0.2460  0.3776
45580DOD     C380561   7.431  16.154  21.789 -0.0680  0.3505  0.2380
45581DOD     C180562  14.785   5.830  29.723  0.4240 -0.1233  0.1000
45581DOD     C280563  14.456   5.977  29.405  0.1329 -0.0778  0.0136
45581DOD     C380564  14.042   6.006  29.239  0.0520  0.3558  0.1296
45582DOD     C180565  20.601  16.535   7.567  0.0232 -0.2396  0.0118
45582DOD     C280566  20.200  16.199   7.610  0.1362 -0.3283 -0.4596
45582DOD     C380567  19.927  15.854   7.793  0.1348  0.0927  0.1248
45583DOD     C180568  25.160   3.446  28.542  0.2009 -0.3624 -0.3559
45583DOD     C280569  24.972   3.784  28.256 -0.0305 -0.2979  0.1608
45583DOD     C380570  25.261   4.150  28.037 -0.3454  0.2373 -0.2221
45584DOD     C180571   5.036  17.390   4.367  0.0950  0.1193  0.0166
45584DOD     C280572   4.802  16.986   4.436 -0.1325  0.2226  0.3308
45584DOD     C380573   4.393  16.769   4.395  0.2313 -0.2574 -0.1159
45585DOD     C180574   2.851  16.898  20.925  0.1234  0.1634  0.2400
45585DOD     C280575   3.285  17.073  20.842  0.4386  0.1026 -0.3043
45585DOD     C380576   3.733  16.967  21.033 -0.2089  0.4032  0.0012
45586DOD     C180577   5.339   6.986  29.375 -0.1453 -0.1711 -0.0830
45586DOD     C280578   4.986   6.940  29.029 -0.2428 -0.2396  0.1386
45586DOD     C380579   4.519   6.904  28.909 -0.0680  0.0758  0.4152
45587DOD     C180580   8.744  12.596   6.824 -0.2176  0.3037  0.1453
45587DOD     C280581   9.185  12.520   6.787  0.2642  0.1356  0.2715
45587DOD     C380582   9.616  12.635   6.742  0.0916 -0.0372  0.0328
45588DOD     C180583  14.345  21.353  13.448  0.1148 -0.0713 -0.0624
45588DOD     C280584  14.593  21.314  13.126  0.1886  0.1477  0.2998
45588DOD     C380585  14.761  21.455  12.689 -0.1966  0.3627  0.0944
45589DOD     C180586   5.554   7.105  15.861 -0.3007  0.1083  0.0353
45589DOD     C280587   5.241   6.928  16.235  0.2295 -0.1101  0.3367
45589DOD     C380588   4.772   6.912  16.219  0.2882 -0.0647 -0.3479
45590DOD     C180589  15.279   0.135  18.047 -0.0772  0.0879  0.1722
45590DOD     C280590  15.193   0.627  18.036  0.4741  0.3016  0.2104
45590DOD     C380591  15.468   1.011  18.155  0.0554  0.0518  0.1603
45591DOD     C180592  21.639  16.171  20.657  0.3446 -0.0271  0.1005
45591DOD     C280593  21.667  15.832  21.014 -0.2423  0.0116  0.2586
45591DOD     C380594  21.509  15.647  21.441  0.3575 -0.1699  0.0847
45592DOD     C180595  14.890   4.034  24.797 -0.0183  0.0650 -0.3571
45592DOD     C280596  14.967   3.747  25.186 -0.2738  0.0308 -0.2123
45592DOD     C380597  14.766   3.541  25.574  0.0787 -0.1093 -0.2278
45593DOD     C180598  17.345  23.688  10.253  0.0959  0.0960 -0.2398
45593DOD     C280599  16.910  23.569  10.422 -0.2050 -0.4498  0.0323
45593DOD     C380600  16.486  23.682  10.175 -0.3111 -0.1780  0.0998
45594DOD     C180601   6.218  28.216  21.829  0.0975 -0.2976  0.4959
45594DOD     C280602   6.146  28.548  22.117 -0.4240  0.3289 -0.0986
45594DOD     C380603   5.910  28.805  22.415 -0.0485  0.0429  0.1259
45595DOD     C180604  10.562  12.533  16.384  0.4061  0.0829  0.1535
45595DOD     C280605  10.953  12.548  16.472 -0.0914  0.3052  0.0375
45595DOD     C380606  11.363  12.628  16.180 -0.0181  0.1257 -0.0194
45596DOD     C180607  16.043   5.100  27.845  0.0412  0.0708  0.0162
45596DOD     C280608  16.083   5.068  28.297 -0.1388 -0.0609  0.0411
45596DOD     C380609  16.098   5.265  28.694  0.2113  0.0871 -0.0517
45597DOD     C180610  13.876   6.582   6.358 -0.1438 -0.1341 -0.3467
45597DOD     C280611  13.812   6.121   6.376 -0.0891  0.3735 -0.2635
45597DOD     C380612  13.712   5.867   5.974  0.1035  0.2402  0.3423
45598DOD     C180613  24.369  23.457   6.664 -0.0127 -0.0798  0.1468
45598DOD     C280614  24.803  23.494   6.422  0.0945 -0.0723  0.1297
45598DOD     C380615  25.244  23.551   6.604  0.0470 -0.2258  0.2516
45599DOD     C180616  25.204  20.957   4.504  0.2564 -0.0586  0.0465
45599DOD     C280617  25.591  20.854   4.692 -0.0449 -0.2429  0.1609
45599DOD     C380618  26.007  20.826   4.688  0.1077  0.0446  0.0511
45600DOD     C180619  23.635  25.699  20.618  0.1368 -0.0886 -0.0735
45600DOD     C280620  23.757  25.791  21.051 -0.0669  0.2684  0.1758
45600DOD     C380621  23.963  25.940  21.440 -0.0884 -0.1124 -0.0395
45601DOD     C180622   9.079  22.940  10.926 -0.0298  0.2316 -0.1282
45601DOD     C280623   8.680  23.083  10.881  0.4077 -0.3290  0.0784
45601DOD     C380624   8.215  23.104  11.021  0.1093 -0.1946 -0.1873
45602DOD     C180625   0.780  17.142   3.614 -0.3524  0.0454 -0.0036
45602DOD     C280626   0.503  16.846   3.327 -0.0152 -0.0627 -0.0981
45602DOD     C380627   0.376  16.486   3.135  0.2985 -0.2165 -0.2719
45603DOD     C180628   0.428  25.009  13.743  0.3315  0.0076 -0.1143
45603DOD     C280629   0.586  24.765  14.085 -0.5155  0.3521  0.1310
45603DOD     C380630   0.535  24.561  14.474 -0.0205  0.2996  0.0779
45604DOD     C180631  11.517  18.506   9.558  0.1658 -0.0286 -0.1889
45604DOD     C280632  11.819  18.156   9.490 -0.2239 -0.1886 -0.2939
45604DOD     C380633  11.925  17.721   9.459  0.0458 -0.2820 -0.0597
45605DOD     C180634  18.993  29.603  18.745 -0.2025 -0.0810 -0.0662
45605DOD     C280635  18.927  30.027  18.535  0.3427  0.2043  0.0146
45605DOD     C380636  19.125   0.096  18.348  0.0259  0.1020 -0.1183
45606DOD     C180637  24.859   8.024   4.603 -0.1457  0.0473 -0.2312
45606DOD     C280638  24.783   8.073   5.073 -0.0865 -0.2606 -0.1940
45606DOD     C380639  24.572   7.935   5.456 -0.0122  0.0489  0.0065
45607DOD     C180640   5.204   8.949   3.745  0.1346 -0.3053 -0.0453
45607DOD     C280641   4.946   9.181   3.394 -0.1094  0.0029  0.0210
45607DOD     C380642   4.779   9.317   2.975 -0.3208 -0.1118 -0.0018
45608DOD     C180643   1.961  28.162  22.426 -0.0370  0.4477  0.1110
45608DOD     C280644   1.671  28.052  22.757  0.0700  0.1173 -0.0211
45608DOD     C380645   1.411  28.086  23.135  0.0783 -0.1042  0.0279
45609DOD     C180646  29.133  17.151   3.209  0.0342  0.2349 -0.2233
45609DOD     C280647  29.291  17.194   3.629 -0.1621  0.2293  0.1179
45609DOD     C380648  29.387  17.669   3.761  0.2245 -0.1292 -0.0921
45610DOD     C180649  14.250  12.728  21.473  0.2431 -0.0896 -0.0934
45610DOD     C280650  14.256  13.140  21.176  0.2841 -0.1057  0.1824
45610DOD     C380651  14.197  13.602  21.034 -0.0282  0.0024 -0.0342
45611DOD     C180652   1.843  14.223  29.658 -0.0930  0.0703  0.1610
45611DOD     C280653   2.035  14.563  29.899 -0.2224 -0.1042 -0.0279
45611DOD     C380654   1.866  14.962  30.160 -0.0598  0.0486  0.1493
45612DOD     C180655  20.322  23.778   9.919  0.0010 -0.1190  0.1018
45612DOD     C280656  19.922  23.560   9.974  0.0216 -0.1686  0.0194
45612DOD     C380657  19.896  23.141  10.149 -0.2695  0.0937  0.1602
45613DOD     C180658  11.908   6.911  17.828 -0.0323  0.1416 -0.0233
45613DOD     C280659  11.797   6.765  17.425 -0.0513 -0.2521 -0.2749
45613DOD     C380660  11.679   6.849  17.028  0.1220  0.2633  0.0803
45614DOD     C180661   7.937   4.698  29.182 -0.2686 -0.2001  0.1180
45614DOD     C280662   7.837   4.512  29.576 -0.1452 -0.1024 -0.0284
45614DOD     C380663   8.042   4.159  29.794 -0.1377 -0.3574 -0.1905
45615DOD     C180664   3.362   3.736  17.208  0.1812 -0.0133  0.1187
45615DOD     C280665   3.188   3.333  17.038 -0.0016 -0.1541 -0.1941
45615DOD     C380666   2.985   2.966  16.795  0.1271 -0.0206 -0.3276
45616DOD     C180667  20.230  16.440   7.153  0.1819  0.0382  0.2397
45616DOD     C280668  20.336  15.960   7.221  0.2005  0.3482  0.0276
45616DOD     C380669  20.525  15.648   7.495 -0.4996  0.1189 -0.0426
45617DOD     C180670  21.568  16.735   8.878 -0.0096  0.0000 -0.0599
45617DOD     C280671  21.985  16.763   9.088  0.0287 -0.0695  0.3300
45617DOD     C380672  22.152  16.908   9.514  0.1011 -0.1616 -0.0986
45618DOD     C180673  11.146  11.702   9.710  0.1287  0.1151  0.1956
45618DOD     C280674  11.354  11.989   9.388 -0.1264 -0.2158  0.0711
45618DOD     C380675  11.669  11.970   9.021  0.1544 -0.0717 -0.0668
45619DOD     C180676   0.392  10.741   3.677  0.2377 -0.0452 -0.0280
45619DOD     C280677   0.672  10.429   3.945  0.1526 -0.1170  0.0699
45619DOD     C380678   0.932  10.054   3.889  0.3914  0.1786  0.4055
45620DOD     C180679   8.691  23.692  14.839  0.4201  0.3700 -0.3143
45620DOD     C280680   9.040  23.477  14.542  0.0503 -0.0943 -0.1201
45620DOD     C380681   9.107  23.302  14.065  0.0711 -0.0088  0.0057
45621DOD     C180682  29.768  13.190  28.877  0.1842  0.1732 -0.1764
45621DOD     C280683  29.603  12.826  29.110  0.0004 -0.0950  0.1890
45621DOD     C380684  29.803  12.685  29.494 -0.1170  0.1762 -0.1416
45622DOD     C180685  27.709  15.145   7.715  0.2386  0.2498  0.1737
45622DOD     C280686  27.782  14.704   7.929 -0.0355 -0.2350  0.3139
45622DOD     C380687  27.741  14.247   7.771 -0.0445  0.0485  0.1874
45623DOD     C180688  14.688   3.954  20.243 -0.2437  0.1731  0.3400
45623DOD     C280689  14.614   4.276  19.915  0.2403  0.1431 -0.1322
45623DOD     C380690  14.594   4.729  19.980 -0.0720 -0.1891 -0.2169
45624DOD     C180691   8.107   6.698  25.150  0.0533  0.0135 -0.1370
45624DOD     C280692   8.374   6.506  25.468 -0.0957  0.0174 -0.3679
45624DOD     C380693   8.385   6.486  25.932 -0.3287  0.0030 -0.3136
45625DOD     C180694   3.210  15.848  12.548  0.2218  0.0202  0.0955
45625DOD     C280695   2.895  15.514  12.615  0.3052  0.1645 -0.0849
45625DOD     C380696   2.466  15.362  12.563  0.0155 -0.2934 -0.0735
45626DOD     C180697  18.488   5.475  11.017 -0.2956  0.1238  0.2902
45626DOD     C280698  18.526   5.083  10.751  0.0151  0.0665 -0.0294
45626DOD     C380699  18.808   4.734  10.830  0.1480  0.0455  0.1520
45627DOD     C180700  29.542  19.171  17.455 -0.3838  0.1226 -0.0895
45627DOD     C280701  29.092  19.159  17.285  0.1031  0.1819  0.3697
45627DOD     C380702  28.612  19.098  17.374  0.0756  0.0760 -0.0300
45628DOD     C180703  29.308  19.060  11.118  0.3125 -0.1477  0.0144
45628DOD     C280704  29.668  18.796  11.284 -0.2440 -0.0294 -0.0209
45628DOD     C380705  29.831  18.341  11.341  0.3875 -0.0430 -0.0924
45629DOD     C180706  28.757   5.122  26.933  0.5761 -0.0535  0.1902
45629DOD     C280707  28.653   4.678  27.093  0.0937  0.1442  0.2586
45629DOD     C380708  28.436   4.285  27.303  0.1901  0.0880 -0.0244
45630DOD     C180709   1.621  16.116  20.925  0.1521 -0.0028 -0.2919
45630DOD     C280710   1.484  16.377  20.556  0.0353  0.1337  0.0729
45630DOD     C380711   1.606  16.833  20.481  0.0364 -0.0779  0.4708
45631DOD     C180712  15.466   1.608   9.800 -0.0758  0.3481 -0.0716
45631DOD     C280713  15.484   1.196  10.087  0.1052  0.2401  0.2209
45631DOD     C380714  15.097   1.027  10.296 -0.2324  0.0435 -0.1235
45632DOD     C180715  29.762   1.019  10.406 -0.0712  0.4822  0.0567
45632DOD     C280716  29.351   0.884  10.538 -0.0984 -0.0474 -0.0727
45632DOD     C380717  28.900   0.781  10.642  0.0741 -0.1237 -0.2122
45633DOD     C180718  20.541  18.905   5.378 -0.1346 -0.0934 -0.0268
45633DOD     C280719  20.273  18.506   5.301 -0.1202 -0.0681 -0.0127
45633DOD     C380720  19.889  18.277   5.433 -0.1579 -0.0341 -0.0045
45634DOD     C180721  25.150  22.063   2.333 -0.0123  0.3070 -0.2779
45634DOD     C280722  25.408  22.054   2.723 -0.1990 -0.0808  0.0374
45634DOD     C380723  25.721  22.114   3.120  0.1707 -0.0704 -0.1825
45635DOD     C180724  27.951   0.935  28.236 -0.0919 -0.0973 -0.1827
45635DOD     C280725  28.237   0.951  27.831 -0.1106  0.3337  0.2512
45635DOD     C380726  28.631   0.799  27.545 -0.0613  0.0921  0.2465
45636DOD     C180727  26.254  14.167  25.918  0.2229 -0.0267 -0.2168
45636DOD     C280728  26.270  14.464  26.316  0.1431  0.2025  0.1436
45636DOD     C380729  26.474  14.773  26.618 -0.1205  0.4118  0.0870
45637DOD     C180730  23.920  23.389  28.097 -0.1985  0.0022 -0.0119
45637DOD     C280731  23.984  23.084  28.439 -0.1393  0.2736 -0.0288
45637DOD     C380732  23.732  22.696  28.605  0.2203  0.0669 -0.3656
45638DOD     C180733   3.695  15.774  20.876 -0.0805  0.2296  0.1469
45638DOD     C280734   3.441  16.126  20.823  0.2559 -0.0919 -0.0282
45638DOD     C380735   3.181  16.520  20.881  0.0559 -0.0033 -0.3147
45639DOD     C180736   0.522  14.421  15.974  0.0579 -0.0218  0.0904
45639DOD     C280737   0.537  13.990  16.083 -0.2137 -0.1369  0.0627
45639DOD     C380738   0.807  13.695  16.341 -0.1380  0.1267  0.1963
45640DOD     C180739  12.505  28.085  17.252  0.0794 -0.2979 -0.1798
45640DOD     C280740  12.609  27.781  17.530  0.0791 -0.3684 -0.2025
45640DOD     C380741  12.414  27.637  17.949 -0.1659  0.1076  0.3465
45641DOD     C180742  27.479  16.549  28.077 -0.0092  0.2436  0.0754
45641DOD     C280743  27.917  16.664  28.179 -0.1873 -0.4301  0.0528
45641DOD     C380744  28.435  16.674  28.228 -0.1214  0.0930  0.0035
45642DOD     C180745  15.065  10.528  24.298  0.2387 -0.4125 -0.0100
45642DOD     C280746  15.531  10.432  24.366  0.1442  0.0782 -0.0605
45642DOD     C380747  15.891  10.197  24.360  0.1054  0.2702 -0.0062
45643DOD     C180748  25.197   9.468  18.835 -0.0742 -0.0141 -0.0515
45643DOD     C280749  25.576   9.210  18.743  0.1555 -0.3141  0.1054
45643DOD     C380750  25.874   8.852  18.736 -0.0654 -0.2766 -0.1324
45644DOD     C180751  13.475   1.699   0.522  0.0420  0.2221  0.1769
45644DOD     C280752  13.062   1.801   0.454  0.0322  0.0528 -0.1414
45644DOD     C380753  12.674   1.506   0.414 -0.1752 -0.0862  0.2626
45645DOD     C180754  18.324  16.188  26.095  0.0398  0.0562 -0.2506
45645DOD     C280755  18.114  16.622  26.125  0.3254  0.0011  0.0838
45645DOD     C380756  18.265  17.028  25.963  0.1002  0.1525  0.0699
45646DOD     C180757  28.551  17.645   1.512  0.2663 -0.1564  0.1897
45646DOD     C280758  28.287  17.517   1.903  0.1637  0.0606  0.2099
45646DOD     C380759  28.278  17.090   2.047 -0.0135  0.1683  0.1444
45647DOD     C180760  15.436  16.676  27.040 -0.0047 -0.2234  0.2357
45647DOD     C280761  15.693  16.428  27.331  0.0429  0.0695  0.2225
45647DOD     C380762  15.917  15.991  27.248  0.1880 -0.4132 -0.1484
45648DOD     C180763   5.530  13.217   0.307 -0.2032  0.1678 -0.0864
45648DOD     C280764   5.939  13.243   0.184  0.1186  0.2727  0.1418
45648DOD     C380765   6.264  13.547   0.185  0.0816  0.2046  0.0437
45649DOD     C180766   4.534  27.611  23.522 -0.2306 -0.2076 -0.0869
45649DOD     C280767   4.403  28.058  23.459  0.0378 -0.0443 -0.1387
45649DOD     C380768   4.547  28.368  23.710  0.3487 -0.0915 -0.2874
45650DOD     C180769   3.603  29.468  27.375 -0.1261 -0.0462 -0.1886
45650DOD     C280770   3.209  29.187  27.271  0.0013  0.0314  0.3512
45650DOD     C380771   2.919  29.029  26.934 -0.0716  0.2960 -0.1244
45651DOD     C180772  29.655   3.402  24.443  0.0540  0.2587 -0.0797
45651DOD     C280773  29.640   3.816  24.302 -0.4776 -0.1020  0.0299
45651DOD     C380774  29.587   4.247  24.148  0.3242  0.3898 -0.3069
45652DOD     C180775   1.153   3.399   2.586 -0.0604 -0.0951 -0.2586
45652DOD     C280776   0.875   3.035   2.709  0.1937 -0.0699 -0.2237
45652DOD     C380777   0.448   2.902   2.910  0.0868 -0.0457  0.1615
45653DOD     C180778  25.000  19.888  13.749  0.0148  0.1739  0.2373
45653DOD     C280779  24.715  20.161  14.081  0.0799 -0.0582  0.4018
45653DOD     C380780  24.663  20.443  14.429  0.0983  0.0551  0.1966
45654DOD     C180781  24.030  16.039   0.828 -0.1247  0.1229 -0.0174
45654DOD     C280782  23.808  16.480   0.917  0.0487  0.0183  0.1313
45654DOD     C380783  23.661  16.872   1.075  0.3344  0.0299 -0.1118
45655DOD     C180784  18.232  24.580   2.879 -0.1820  0.1207 -0.1349
45655DOD     C280785  18.398  24.621   2.475 -0.0531  0.3713 -0.1873
45655DOD     C380786  18.442  24.385   2.064 -0.0183  0.1145 -0.1635
45656DOD     C180787   4.124   1.207   7.894  0.0311  0.2317  0.0572
45656DOD     C280788   3.717   1.065   7.784 -0.3714 -0.2197  0.0694
45656DOD     C380789   3.520   0.937   7.359 -0.1298 -0.2346  0.0879
45657DOD     C180790  14.908   2.337  13.862  0.1659 -0.0532 -0.1321
45657DOD     C280791  15.345   2.345  13.676  0.0488  0.0962  0.1013
45657DOD     C380792  15.810   2.251  13.796  0.1260 -0.1266  0.2391
45658DOD     C180793  18.282   2.569  11.403 -0.0101  0.2317 -0.2605
45658DOD     C280794  18.326   2.137  11.562 -0.2069  0.0555  0.1380
45658DOD     C380795  18.083   1.764  11.547 -0.2889  0.0031  0.1247
45659DOD     C180796  25.189   3.740   5.244  0.1085  0.1007 -0.2706
45659DOD     C280797  25.112   3.774   4.761  0.0547  0.0130  0.1112
45659DOD     C380798  24.791   3.787   4.416 -0.3343  0.0505  0.1047
45660DOD     C180799  14.683   1.201  15.939 -0.1800 -0.0969  0.0942
45660DOD     C280800  15.151   1.230  16.079 -0.2809 -0.3891 -0.1239
45660DOD     C380801  15.623   1.070  16.188 -0.4046  0.0128  0.0768
45661DOD     C180802   3.966  20.658   0.869  0.0618 -0.1300  0.0881
45661DOD     C280803   4.211  20.836   1.227  0.3440  0.0069  0.3836
45661DOD     C380804   4.695  20.899   1.263 -0.0132 -0.0861 -0.1395
45662DOD     C180805  17.750  25.238   7.563  0.4090  0.0173  0.1973
45662DOD     C280806  18.064  25.309   7.165 -0.1808 -0.0488  0.0127
45662DOD     C380807  18.135  25.478   6.723  0.2213  0.2177  0.1170
45663DOD     C180808  19.822  13.432  20.577 -0.2658 -0.2336  0.1251
45663DOD     C280809  19.994  13.804  20.388 -0.1863 -0.0161 -0.2992
45663DOD     C380810  19.897  14.272  20.528  0.2438  0.1041 -0.2723
45664DOD     C180811  15.151  29.551  21.516 -0.1558  0.1747  0.1891
45664DOD     C280812  15.360  29.701  21.902  0.0550 -0.1960  0.1930
45664DOD     C380813  15.511  29.838  22.327  0.1906 -0.0515 -0.1184
45665DOD     C180814  17.577  28.090  11.550  0.0059 -0.2249  0.3117
45665DOD     C280815  17.752  27.915  11.192  0.0289  0.0555  0.2228
45665DOD     C380816  17.676  27.633  10.808 -0.0461  0.1848 -0.3112
45666DOD     C180817   3.506   3.153   0.229 -0.1511 -0.2723  0.2068
45666DOD     C280818   3.252   2.783   0.336 -0.0811  0.0976  0.1101
45666DOD     C380819   3.084   2.353   0.427 -0.2398 -0.3397 -0.4317
45667DOD     C180820   3.337   9.730   7.627 -0.4110 -0.1566 -0.2006
45667DOD     C280821   3.023  10.001   7.823 -0.0575  0.0805  0.0206
45667DOD     C380822   2.618  10.232   7.779 -0.6391  0.1090 -0.0016
45668DOD     C180823  18.050   7.481   7.812 -0.0175  0.2064  0.0031
45668DOD     C280824  18.464   7.566   7.903 -0.1648 -0.1908 -0.1878
45668DOD     C380825  18.651   8.004   7.882  0.2013  0.0908 -0.3327
45669DOD     C180826   7.100  27.226  23.716 -0.2609 -0.1261 -0.0894
45669DOD     C280827   7.375  27.258  23.341 -0.1787 -0.1651 -0.0153
45669DOD     C380828   7.335  27.343  22.902  0.1347  0.1305 -0.1953
45670DOD     C180829   3.033  11.509  22.623  0.1841 -0.0788  0.1088
45670DOD     C280830   3.241  11.963  22.680 -0.3079  0.0072  0.5091
45670DOD     C380831   3.258  12.419  22.497 -0.2445 -0.2604 -0.4600
45671DOD     C180832   0.793  13.768  18.923 -0.0863 -0.0342  0.1068
45671DOD     C280833   0.326  13.807  18.825 -0.4231 -0.2358 -0.3137
45671DOD     C380834   0.022  13.628  18.496  0.0656 -0.0735 -0.3113
45672DOD     C180835  26.640  13.888   5.764 -0.3423 -0.1490  0.0009
45672DOD     C280836  26.709  13.547   5.456  0.2198 -0.1212 -0.4411
45672DOD     C380837  26.879  13.429   5.048 -0.1267  0.2374  0.0300
45673DOD     C180838   2.361   1.835   9.975 -0.1240  0.1691  0.0495
45673DOD     C280839   2.043   1.576  10.193 -0.0517  0.0061  0.0429
45673DOD     C380840   1.949   1.235  10.609 -0.0612 -0.2704 -0.0901
45674DOD     C180841  30.148  16.437   2.013 -0.1340 -0.1301 -0.2259
45674DOD     C280842  30.286  16.131   2.367 -0.0695  0.0490  0.0751
45674DOD     C380843   0.100  15.678   2.501  0.0082  0.1313 -0.0793
45675DOD     C180844  28.879   8.248  13.303  0.1344 -0.2565 -0.1537
45675DOD     C280845  29.132   8.602  13.462  0.0969 -0.0678  0.0585
45675DOD     C380846  29.534   8.780  13.647 -0.0140  0.4461  0.2554
45676DOD     C180847  13.604  13.861   6.424 -0.0087 -0.0984  0.3682
45676DOD     C280848  13.996  13.813   6.194 -0.0024 -0.0874 -0.0707
45676DOD     C380849  14.096  13.933   5.746 -0.3235  0.0834  0.2174
45677DOD     C180850  17.709  19.148  22.991 -0.0032  0.1011 -0.0845
45677DOD     C280851  17.576  19.610  23.061  0.1751  0.1832  0.1290
45677DOD     C380852  17.467  19.916  23.338 -0.0026  0.3038 -0.0685
45678DOD     C180853  26.589   6.120  17.538  0.1516  0.2112 -0.0312
45678DOD     C280854  26.749   6.097  17.161  0.0837 -0.1324  0.2042
45678DOD     C380855  27.014   6.047  16.824  0.0713  0.2546 -0.0752
45679DOD     C180856   7.674  16.908  25.764  0.1556 -0.1542  0.2097
45679DOD     C280857   7.891  17.080  26.074 -0.0915 -0.0054  0.1104
45679DOD     C380858   7.883  17.417  26.466 -0.1368 -0.1018  0.2146
45680DOD     C180859  23.192   4.606  22.505 -0.2566  0.0568  0.2383
45680DOD     C280860  23.195   4.214  22.777 -0.0802  0.0222  0.0049
45680DOD     C380861  23.337   4.242  23.187  0.2143  0.0370  0.0059
45681DOD     C180862  15.707  26.761   6.552  0.0698  0.0146  0.2519
45681DOD     C280863  16.154  26.566   6.519  0.2163  0.0442 -0.0851
45681DOD     C380864  16.532  26.269   6.316 -0.4473  0.2164 -0.0868
45682DOD     C180865  25.534   3.308   6.023 -0.0039  0.0046  0.0952
45682DOD     C280866  25.811   3.241   5.704 -0.3011  0.0405  0.0336
45682DOD     C380867  26.223   3.099   5.539 -0.1616  0.0259  0.3843
45683DOD     C180868   4.267  21.100  15.018  0.0594  0.0905  0.2411
45683DOD     C280869   3.958  21.269  14.667 -0.1426 -0.0214 -0.2204
45683DOD     C380870   3.763  21.561  14.365  0.3000 -0.0787 -0.2322
45684DOD     C180871  22.235   5.322  10.174 -0.4425 -0.1487 -0.0757
45684DOD     C280872  22.067   5.305   9.732 -0.3823 -0.0950  0.4088
45684DOD     C380873  21.988   5.245   9.282  0.2123  0.1977  0.1567
45685DOD     C180874   1.612  24.219   6.035 -0.2150  0.1780  0.1222
45685DOD     C280875   1.416  24.249   5.617 -0.1394 -0.1139 -0.0028
45685DOD     C380876   1.297  24.060   5.188  0.0701 -0.1541  0.0250
45686DOD     C180877   4.354  17.064  20.126 -0.2859  0.1365  0.0075
45686DOD     C280878   4.597  16.880  20.498  0.1066 -0.0625 -0.0443
45686DOD     C380879   5.007  16.645  20.651 -0.1641 -0.1170 -0.1110
45687DOD     C180880   0.456  28.202  16.272  0.1845 -0.0427 -0.0046
45687DOD     C280881   0.782  28.439  16.308 -0.2518 -0.1793  0.0573
45687DOD     C380882   0.908  28.822  16.159 -0.0413 -0.3264  0.0800
45688DOD     C180883   9.593   1.989  15.746  0.1748 -0.0975  0.0876
45688DOD     C280884   9.981   2.211  15.613 -0.1271 -0.2616 -0.0086
45688DOD     C380885  10.322   2.320  15.268 -0.2371 -0.1306  0.0382
45689DOD     C180886  25.424  25.253   8.777 -0.0596 -0.0676  0.0916
45689DOD     C280887  25.489  25.660   8.550  0.5221 -0.0950 -0.0149
45689DOD     C380888  25.482  26.070   8.364 -0.2032  0.0881  0.2803
45690DOD     C180889  20.263  22.472  15.069 -0.0763  0.0013  0.0849
45690DOD     C280890  19.988  22.724  15.315  0.2412  0.1118 -0.3178
45690DOD     C380891  19.719  23.084  15.586 -0.1726  0.0827 -0.0444
45691DOD     C180892  29.827  22.023   7.257 -0.1174  0.1755  0.0778
45691DOD     C280893  29.897  22.449   7.397  0.0741  0.1568 -0.2981
45691DOD     C380894  29.828  22.883   7.503  0.2535  0.1770  0.1283
45692DOD     C180895  12.650  14.532  24.276  0.0687  0.0182  0.1696
45692DOD     C280896  12.338  14.165  24.272 -0.2254  0.0115  0.0850
45692DOD     C380897  11.908  14.050  24.261 -0.2934 -0.2431 -0.3039
45693DOD     C180898  13.322  23.954  11.817 -0.0555 -0.2316  0.0340
45693DOD     C280899  12.923  23.958  11.571 -0.0616 -0.1181  0.2275
45693DOD     C380900  12.547  24.198  11.645 -0.1207 -0.2659  0.0704
45694DOD     C180901   8.945   6.916   8.450  0.1131 -0.0132  0.4812
45694DOD     C280902   8.708   7.116   8.124  0.1448 -0.2533  0.2502
45694DOD     C380903   8.629   7.370   7.727  0.3541  0.1449  0.0551
45695DOD     C180904  15.793  23.950   3.377  0.1681  0.2534  0.2561
45695DOD     C280905  15.665  23.617   3.703 -0.1058  0.0341  0.1963
45695DOD     C380906  15.453  23.525   4.098 -0.4071  0.2409 -0.1452
45696DOD     C180907  12.701  13.249  12.432 -0.0719 -0.0411 -0.3405
45696DOD     C280908  12.951  12.902  12.659  0.4222  0.0081 -0.3579
45696DOD     C380909  12.918  12.457  12.728 -0.1930 -0.1646 -0.4773
45697DOD     C180910  22.740  25.517  27.759 -0.3798 -0.0606 -0.0364
45697DOD     C280911  22.859  25.716  28.148 -0.1595 -0.1352 -0.1990
45697DOD     C380912  22.738  25.574  28.595 -0.1692  0.2951 -0.1412
45698DOD     C180913   1.054  28.781  14.059 -0.0435  0.1623 -0.1709
45698DOD     C280914   0.600  28.780  14.143  0.1343 -0.2242  0.0341
45698DOD     C380915   0.103  28.805  14.176 -0.3271 -0.0131 -0.1381
45699DOD     C180916  22.253  16.034   5.197 -0.1337 -0.1508  0.0301
45699DOD     C280917  21.980  15.802   4.929  0.0290 -0.3397  0.1115
45699DOD     C380918  21.986  15.454   4.602 -0.0195  0.2289 -0.0221
45700DOD     C180919   6.156  17.549   3.174  0.3288 -0.1755  0.1931
45700DOD     C280920   6.363  17.379   2.811  0.2282 -0.5848 -0.0279
45700DOD     C380921   6.549  17.659   2.494 -0.2218 -0.0097  0.4202
45701DOD     C180922  29.684  29.942  15.588  0.0197 -0.1643  0.1021
45701DOD     C280923  29.193  29.926  15.599  0.1588  0.0110 -0.1836
45701DOD     C380924  28.785  29.739  15.535 -0.3265  0.0118 -0.0114
45702DOD     C180925  20.399  12.667  15.994 -0.0186  0.3032  0.5090
45702DOD     C280926  20.831  12.506  16.203  0.1954  0.0297 -0.3082
45702DOD     C380927  21.340  12.573  16.233  0.0808 -0.3168  0.0285
45703DOD     C180928  17.602   8.259  20.126  0.2996 -0.2232 -0.0745
45703DOD     C280929  17.355   8.539  20.400  0.2061  0.1229 -0.0479
45703DOD     C380930  17.026   8.857  20.577 -0.0456 -0.1133  0.0413
45704DOD     C180931   7.259  26.090  15.658  0.2471  0.3485 -0.2618
45704DOD     C280932   7.145  26.111  16.087 -0.0056  0.1720 -0.2457
45704DOD     C380933   7.063  25.897  16.439  0.2259  0.3963  0.0600
45705DOD     C180934   7.560   7.442   0.211  0.1651 -0.0140 -0.1297
45705DOD     C280935   7.557   7.853  30.330 -0.1870 -0.1286  0.1717
45705DOD     C380936   7.768   8.257   0.056 -0.1491  0.0201 -0.3348
45706DOD     C180937   4.932   9.052  26.604  0.1485 -0.1668  0.0679
45706DOD     C280938   4.694   9.419  26.466 -0.0478 -0.2754 -0.2710
45706DOD     C380939   4.338   9.582  26.245 -0.1533 -0.0120 -0.0647
45707DOD     C180940   1.710  28.474  27.850 -0.0137 -0.2363 -0.2783
45707DOD     C280941   1.641  28.814  27.512 -0.0231 -0.2060 -0.0327
45707DOD     C380942   1.495  29.282  27.441 -0.0775 -0.2902 -0.2389
45708DOD     C180943  13.862  29.783   8.846 -0.0657 -0.0064 -0.2493
45708DOD     C280944  14.172  30.140   8.964  0.2201 -0.3642 -0.4043
45708DOD     C380945  14.449  30.205   8.593 -0.1244  0.1272 -0.0233
45709DOD     C180946   0.454  24.169   6.245  0.0468  0.2738  0.2527
45709DOD     C280947   0.310  24.573   6.350  0.1001  0.1533  0.0038
45709DOD     C380948  30.237  24.657   6.618 -0.1961 -0.0225 -0.3300
45710DOD     C180949  28.614  28.511  17.304  0.1650 -0.2013 -0.1973
45710DOD     C280950  28.158  28.382  17.082 -0.1333 -0.1339  0.2605
45710DOD     C380951  27.991  28.012  16.899  0.1972  0.0044  0.0215
45711DOD     C180952   5.972  16.396  20.787 -0.0823 -0.1409 -0.0796
45711DOD     C280953   5.758  16.293  20.388  0.2684 -0.0217  0.1514
45711DOD     C380954   5.303  16.286  20.248  0.1008 -0.1240 -0.0874
45712DOD     C180955  11.843  27.002  29.665 -0.0917  0.1971  0.0515
45712DOD     C280956  11.773  27.031  29.192 -0.0592  0.1398  0.0850
45712DOD     C380957  11.696  27.005  28.738  0.0584  0.0902 -0.0255
45713DOD     C180958  13.288  17.786  28.300  0.0813 -0.0425 -0.1663
45713DOD     C280959  13.369  17.471  27.949  0.0051  0.0300 -0.0943
45713DOD     C380960  13.417  17.092  27.659 -0.1577  0.0156 -0.2777
45714DOD     C180961  21.855  27.043  28.997 -0.2915  0.0821 -0.0002
45714DOD     C280962  21.782  27.296  28.578  0.1942 -0.0266 -0.0865
45714DOD     C380963  21.597  27.718  28.455  0.2232  0.1882  0.2038
45715DOD     C180964   7.479  26.556  18.416  0.0075 -0.0945  0.0003
45715DOD     C280965   7.027  26.505  18.355  0.0899 -0.0744 -0.0556
45715DOD     C380966   6.597  26.519  18.192  0.2174  0.1657  0.0317
45716DOD     C180967  13.922  14.190  17.018  0.1274 -0.1268 -0.0581
45716DOD     C280968  14.304  14.216  16.747 -0.0673  0.0657  0.1302
45716DOD     C380969  14.756  14.006  16.659  0.1412  0.3193 -0.1847
45717DOD     C180970  20.973   0.775  20.639 -0.0803  0.0221 -0.1921
45717DOD     C280971  20.640   0.971  20.342  0.2243  0.2396  0.0428
45717DOD     C380972  20.174   0.906  20.147  0.0055  0.0508 -0.0106
45718DOD     C180973   7.659   6.242  14.612  0.0556  0.4201 -0.3032
45718DOD     C280974   7.613   6.144  14.183  0.2398 -0.3133 -0.4739
45718DOD     C380975   7.495   6.015  13.771  0.0363 -0.1114  0.2722
45719DOD     C180976  17.771   1.103  24.541 -0.3224 -0.0982  0.0959
45719DOD     C280977  17.960   1.422  24.261 -0.1798  0.1125  0.2795
45719DOD     C380978  18.047   1.865  24.102  0.0797  0.3372 -0.2615
45720DOD     C180979   7.284  29.636  18.603  0.1682  0.1481 -0.1713
45720DOD     C280980   7.513  29.649  18.212 -0.1877 -0.0689  0.3530
45720DOD     C380981   7.978  29.738  18.075 -0.0899 -0.0518  0.0460
45721DOD     C180982  10.116  22.427   2.871  0.0961  0.0872 -0.1159
45721DOD     C280983   9.829  22.695   2.592 -0.0204 -0.2265  0.2121
45721DOD     C380984   9.646  22.787   2.159  0.1351 -0.0108  0.0069
45722DOD     C180985   6.801   9.930   4.560  0.3638  0.0476  0.0742
45722DOD     C280986   6.894   9.608   4.226 -0.3264  0.1447  0.2505
45722DOD     C380987   7.304   9.544   3.971 -0.4179 -0.0073  0.0589
45723DOD     C180988  20.569   9.566  26.366  0.1063  0.2708 -0.0039
45723DOD     C280989  20.967   9.441  26.199 -0.7041  0.1568  0.1037
45723DOD     C380990  21.402   9.639  26.137  0.1373 -0.2329  0.2263
45724DOD     C180991   1.044  15.421  19.773  0.0103 -0.1604  0.2698
45724DOD     C280992   1.141  15.210  20.198  0.1729 -0.0514  0.1478
45724DOD     C380993   1.332  15.196  20.605 -0.2475 -0.1377  0.0031
45725DOD     C180994  28.554   9.662   4.553  0.0110 -0.0767 -0.0254
45725DOD     C280995  28.772   9.258   4.597  0.1166  0.0511  0.0735
45725DOD     C380996  28.842   8.889   4.258  0.0046 -0.0903  0.0331
45726DOD     C180997   8.813   2.567  28.197 -0.0575  0.0310 -0.2965
45726DOD     C280998   8.602   2.822  28.507  0.1699 -0.0299 -0.2268
45726DOD     C380999   8.202   3.041  28.720  0.0937 -0.2022  0.0290
45727DOD     C181000  24.242   8.353  27.412  0.0169 -0.1245  0.1229
45727DOD     C281001  24.103   8.051  27.728  0.0111  0.0105  0.0036
45727DOD     C381002  24.151   7.589  27.738  0.3928 -0.0242 -0.0049
45728DOD     C181003   8.521   1.825  24.798  0.2324 -0.0296  0.2028
45728DOD     C281004   8.569   1.444  25.031 -0.1535 -0.2010  0.2773
45728DOD     C381005   8.701   1.324  25.413 -0.1754  0.3821 -0.1389
45729DOD     C181006  17.274  10.751  29.420 -0.1205  0.2712  0.0305
45729DOD     C281007  17.023  10.374  29.341 -0.2176  0.1433  0.0639
45729DOD     C381008  16.953  10.306  28.890 -0.1864 -0.4599  0.2460
45730DOD     C181009  21.479   0.781   4.955  0.0675 -0.2037  0.3361
45730DOD     C281010  21.060   0.703   5.153  0.0941 -0.0207 -0.1982
45730DOD     C381011  21.129   0.832   5.582  0.1597  0.1213 -0.1484
45731DOD     C181012   5.972   3.039  11.519  0.0343  0.0663 -0.0106
45731DOD     C281013   5.830   2.817  11.140 -0.3492  0.2522 -0.1451
45731DOD     C381014   5.798   2.418  10.911  0.1912  0.2521 -0.3193
45732DOD     C181015   6.450   2.841   0.217 -0.0422  0.5435  0.1113
45732DOD     C281016   6.785   2.606  30.260 -0.0078 -0.0155 -0.1057
45732DOD     C381017   6.733   2.339  29.872 -0.0278  0.1406  0.0686
45733DOD     C181018  22.407  11.138  27.404  0.0827 -0.2143  0.4050
45733DOD     C281019  22.270  11.538  27.208 -0.1534 -0.3496  0.1624
45733DOD     C381020  22.388  11.863  26.852  0.1872  0.1774  0.0180
45734DOD     C181021  13.507  14.047  21.847  0.1353  0.2540  0.1521
45734DOD     C281022  13.708  13.758  21.492 -0.4001 -0.4423  0.1932
45734DOD     C381023  14.039  13.431  21.457  0.1584  0.0727 -0.4006
45735DOD     C181024  22.190  26.655   9.878  0.0387  0.1620 -0.1136
45735DOD     C281025  22.463  26.938   9.587 -0.4224 -0.0359 -0.3881
45735DOD     C381026  22.578  27.422   9.650  0.1922  0.0159  0.1914
45736DOD     C181027   2.112  19.047  19.749  0.2630  0.0897 -0.2357
45736DOD     C281028   2.542  19.250  19.593 -0.2599  0.2141  0.0795
45736DOD     C381029   2.963  19.163  19.646 -0.1096  0.0895  0.0214
45737DOD     C181030  28.734  26.924  13.578 -0.2716  0.2126 -0.1529
45737DOD     C281031  28.334  26.830  13.382 -0.1756 -0.1376 -0.0135
45737DOD     C381032  27.968  26.470  13.368  0.0832  0.3204 -0.0959
45738DOD     C181033   3.469  20.710   3.822 -0.3577  0.0218 -0.0243
45738DOD     C281034   3.855  20.674   4.042 -0.2498  0.1316 -0.1662
45738DOD     C381035   4.336  20.710   4.000 -0.0564  0.1556 -0.1807
45739DOD     C181036   5.193   9.186   7.894  0.1227 -0.1223 -0.1634
45739DOD     C281037   5.159   9.299   8.345  0.1607  0.1797 -0.2661
45739DOD     C381038   5.058   9.376   8.818  0.1394 -0.0755 -0.0564
45740DOD     C181039  17.477   8.867   9.933  0.3494  0.4426 -0.2210
45740DOD     C281040  17.131   8.727   9.713  0.0787  0.0474  0.0034
45740DOD     C381041  16.911   8.461   9.404 -0.1699 -0.2644 -0.2098
45741DOD     C181042  26.614  12.325  25.995  0.1872 -0.2290 -0.2108
45741DOD     C281043  26.661  12.357  26.496  0.2610 -0.1826  0.0278
45741DOD     C381044  26.631  12.414  26.965  0.1068 -0.1909  0.4560
45742DOD     C181045  18.740  24.964   1.046  0.0345 -0.2206 -0.1857
45742DOD     C281046  19.199  25.069   0.908  0.0465  0.1160 -0.1014
45742DOD     C381047  19.578  25.202   0.680  0.1067  0.0239 -0.1530
45743DOD     C181048   4.016  29.699  27.147  0.2000  0.0433  0.1622
45743DOD     C281049   4.162  29.278  27.188  0.0128  0.0016 -0.2733
45743DOD     C381050   4.300  28.941  26.926 -0.2247 -0.3051  0.3219
45744DOD     C181051   3.230   0.897  15.437 -0.2170  0.2212 -0.1505
45744DOD     C281052   3.291   1.137  15.044 -0.1462 -0.2898 -0.1907
45744DOD     C381053   3.431   1.090  14.627 -0.0238 -0.0751 -0.0547
45745DOD     C181054   9.365   2.183  26.761  0.2780 -0.3157  0.2191
45745DOD     C281055   9.220   2.040  27.124 -0.3113  0.3369 -0.0516
45745DOD     C381056   8.951   1.945  27.443  0.0227 -0.1642 -0.0676
45746DOD     C181057   9.402  13.207   9.706 -0.0155 -0.1035 -0.1820
45746DOD     C281058   9.550  13.526   9.389 -0.1058 -0.3462  0.0493
45746DOD     C381059   9.836  13.912   9.260 -0.2002 -0.1276  0.3408
45747DOD     C181060   3.591  28.254  24.580  0.0142  0.1376 -0.0942
45747DOD     C281061   3.195  28.574  24.618  0.6127 -0.2963  0.1063
45747DOD     C381062   2.732  28.664  24.588 -0.0849 -0.1201 -0.2415
45748DOD     C181063  12.651   9.490  25.927 -0.1692  0.0690 -0.0727
45748DOD     C281064  13.087   9.334  25.797 -0.3445 -0.0967  0.3387
45748DOD     C381065  13.368   9.159  25.487 -0.0127 -0.1282  0.1758
45749DOD     C181066   9.019   1.230  26.834 -0.2205  0.1268 -0.0338
45749DOD     C281067   8.676   1.128  27.087 -0.1109  0.2273  0.0846
45749DOD     C381068   8.289   0.885  27.104  0.0248  0.2181 -0.3019
45750DOD     C181069  11.264  26.906   4.291  0.0653  0.0160 -0.0532
45750DOD     C281070  11.355  27.394   4.294 -0.1223  0.0738 -0.0018
45750DOD     C381071  11.764  27.600   4.235  0.3471  0.1757  0.0828
45751DOD     C181072  10.346  17.381  15.110  0.0091  0.0746 -0.0414
45751DOD     C281073   9.847  17.439  15.215  0.2626 -0.3096  0.2240
45751DOD     C381074   9.533  17.311  14.851  0.2791  0.0379  0.1665
45752DOD     C181075   4.460  13.944  21.785 -0.0309  0.4009 -0.0924
45752DOD     C281076   4.422  13.955  22.317  0.1950  0.0476 -0.3117
45752DOD     C381077   4.212  13.877  22.680 -0.1878  0.2871  0.0046
45753DOD     C181078   9.523  24.943  25.810  0.3358 -0.0567 -0.0134
45753DOD     C281079   9.805  25.216  26.046 -0.3640 -0.0424 -0.1647
45753DOD     C381080  10.108  25.561  26.126  0.0009  0.0332 -0.0744
45754DOD     C181081   6.400  13.375  20.734 -0.0541 -0.2279  0.0720
45754DOD     C281082   5.962  13.204  20.841  0.2142 -0.0319 -0.0609
45754DOD     C381083   5.671  13.316  21.211 -0.0310 -0.3936  0.0255
45755DOD     C181084  16.511   4.655   7.474 -0.0738 -0.0185 -0.0118
45755DOD     C281085  16.374   4.482   7.098 -0.0234  0.1151  0.1167
45755DOD     C381086  16.462   4.156   6.793 -0.1209  0.1765 -0.1619
45756DOD     C181087  22.295   6.278  13.052 -0.3358  0.1346  0.1560
45756DOD     C281088  22.187   6.599  13.393 -0.0580  0.0284 -0.0006
45756DOD     C381089  21.941   6.973  13.570  0.1764  0.1482  0.1328
45757DOD     C181090   6.459  11.196  11.542  0.1529  0.2966 -0.1613
45757DOD     C281091   6.545  10.972  11.079 -0.0315  0.1031 -0.0342
45757DOD     C381092   6.644  10.715  10.699  0.0208  0.1427  0.2192
45758DOD     C181093   0.143  28.385   7.384  0.2175 -0.1837 -0.1122
45758DOD     C281094  30.274  28.800   7.629  0.0165 -0.1074  0.0421
45758DOD     C381095  30.180  29.236   7.800 -0.1340 -0.0001  0.1814
45759DOD     C181096  28.267  29.723   0.172  0.2575 -0.1590  0.1188
45759DOD     C281097  28.002  29.293   0.140 -0.2790 -0.0957 -0.2695
45759DOD     C381098  27.621  29.043   0.108 -0.3210 -0.3331 -0.2536
45760DOD     C181099  27.230  29.636  23.495 -0.0459 -0.2797 -0.0219
45760DOD     C281100  26.828  29.456  23.334 -0.0255 -0.0514 -0.1693
45760DOD     C381101  26.519  29.123  23.280 -0.6577 -0.0548  0.0918
45761DOD     C181102  16.017   3.997  12.225  0.4520 -0.3280 -0.0664
45761DOD     C281103  16.266   3.929  11.831  0.1452  0.1180  0.3204
45761DOD     C381104  16.622   3.854  11.544 -0.0600  0.0017 -0.0365
45762DOD     C181105  19.621  26.731  11.793  0.1616  0.1959 -0.2508
45762DOD     C281106  19.628  26.715  12.247  0.1761 -0.1973  0.1251
45762DOD     C381107  19.858  27.034  12.546 -0.0017 -0.1285 -0.0771
45763DOD     C181108  14.743  18.568  29.536 -0.0080 -0.0317 -0.1952
45763DOD     C281109  14.908  18.940  29.806 -0.1900 -0.0004 -0.1463
45763DOD     C381110  15.181  19.309  29.876 -0.3108  0.0763  0.0635
45764DOD     C181111  24.910  13.851   6.072 -0.0865  0.0007  0.1950
45764DOD     C281112  24.982  14.054   5.610  0.4201 -0.2786 -0.1533
45764DOD     C381113  24.849  13.854   5.220  0.0177 -0.0687  0.0693
45765DOD     C181114   6.360   7.364   3.015 -0.0552  0.4440 -0.1846
45765DOD     C281115   5.910   7.372   2.949 -0.1072 -0.2549  0.0067
45765DOD     C381116   5.534   7.325   2.713  0.1521 -0.2064  0.0668
45766DOD     C181117  17.794  28.619  27.982 -0.0425  0.1274 -0.0110
45766DOD     C281118  17.823  28.690  28.401  0.4292  0.2639  0.0125
45766DOD     C381119  18.014  28.570  28.736 -0.0523 -0.1017  0.1405
45767DOD     C181120  20.989  30.313   1.133 -0.2974  0.0928  0.1884
45767DOD     C281121  20.872  30.139   0.713 -0.1066  0.0567  0.0786
45767DOD     C381122  20.874  30.116   0.203 -0.1323 -0.1124 -0.1193
45768DOD     C181123   7.540  16.694   8.898  0.0256 -0.1937  0.1286
45768DOD     C281124   7.315  16.988   8.596 -0.0637 -0.3386  0.1848
45768DOD     C381125   7.389  17.369   8.349 -0.1238 -0.0085  0.3566
45769DOD     C181126  15.409  24.031  28.462 -0.0230  0.3263  0.2471
45769DOD     C281127  15.453  24.476  28.661  0.0363  0.0997  0.4257
45769DOD     C381128  15.320  24.961  28.771 -0.0088  0.1292  0.2254
45770DOD     C181129  10.480  28.016  29.163 -0.0239  0.3616  0.1056
45770DOD     C281130  10.448  28.364  28.816 -0.1089  0.2125 -0.1412
45770DOD     C381131  10.094  28.437  28.565 -0.0660 -0.1219  0.0351
45771DOD     C181132  28.336  18.598  17.985 -0.0075  0.0746 -0.1996
45771DOD     C281133  28.266  18.399  17.547  0.1037 -0.1292 -0.2012
45771DOD     C381134  28.051  18.015  17.486  0.1008  0.0064 -0.2943
45772DOD     C181135  13.247  12.268  16.281 -0.6169  0.2545  0.0598
45772DOD     C281136  13.620  11.967  16.135 -0.1794  0.0196  0.1209
45772DOD     C381137  14.031  11.839  15.837 -0.0368  0.0084 -0.1593
45773DOD     C181138  27.959  18.467   0.611  0.3788 -0.2075  0.1258
45773DOD     C281139  28.382  18.486   0.793 -0.2740 -0.0636 -0.5382
45773DOD     C381140  28.760  18.332   1.086 -0.0666  0.2089  0.0114
45774DOD     C181141  25.265  17.722  19.633  0.0121 -0.1228  0.0422
45774DOD     C281142  25.485  17.661  20.081 -0.1023 -0.1451  0.1285
45774DOD     C381143  25.655  17.820  20.509 -0.2333 -0.0451  0.2034
45775DOD     C181144   9.059   0.747  21.675 -0.3501 -0.1872  0.2499
45775DOD     C281145   8.972   0.856  21.233  0.1648 -0.3007  0.0517
45775DOD     C381146   8.695   0.992  20.897 -0.1424 -0.1161  0.0210
45776DOD     C181147  21.820  12.502  19.574  0.0473 -0.0989  0.2199
45776DOD     C281148  22.249  12.413  19.556  0.2116  0.2077 -0.2846
45776DOD     C381149  22.702  12.434  19.620 -0.3303  0.3221 -0.1256
45777DOD     C181150  12.099  28.979   5.875 -0.2673  0.2638  0.0485
45777DOD     C281151  11.884  29.066   6.219  0.2439  0.1384 -0.4248
45777DOD     C381152  11.526  29.000   6.497 -0.1664 -0.3374  0.0585
45778DOD     C181153  15.022   3.271  19.704 -0.2553  0.0999  0.2979
45778DOD     C281154  14.979   3.333  19.241  0.2258  0.3287  0.1012
45778DOD     C381155  14.915   3.770  19.104 -0.1230 -0.1682  0.0357
45779DOD     C181156   1.787  14.166  12.968 -0.1188  0.1810  0.1679
45779DOD     C281157   2.139  14.284  12.669  0.0980 -0.0614 -0.0633
45779DOD     C381158   2.631  14.352  12.637 -0.2352  0.1261 -0.3681
45780DOD     C181159   3.878  19.235  19.918 -0.2028  0.0859 -0.1815
45780DOD     C281160   3.615  19.268  19.554  0.0669 -0.2859 -0.3769
45780DOD     C381161   3.435  19.386  19.118  0.1721 -0.1702 -0.1227
45781DOD     C181162  18.164  25.391  15.900 -0.1105 -0.0837  0.0731
45781DOD     C281163  17.778  25.332  15.643 -0.1696  0.0126 -0.0360
45781DOD     C381164  17.503  24.956  15.718  0.3060  0.2425  0.0007
45782DOD     C181165  14.860  19.842  21.118  0.2352 -0.0628  0.2775
45782DOD     C281166  15.200  20.117  21.187  0.3230  0.1595  0.1802
45782DOD     C381167  15.186  20.550  21.153  0.0354  0.1170  0.0099
45783DOD     C181168   4.005  14.412   9.207 -0.0531 -0.0997  0.0249
45783DOD     C281169   3.732  14.714   8.984  0.0702 -0.0858  0.0800
45783DOD     C381170   3.353  14.977   8.804 -0.2430  0.1570  0.0709
45784DOD     C181171  12.901  22.215  17.477  0.1368 -0.1569 -0.0305
45784DOD     C281172  13.162  21.966  17.164 -0.1213 -0.0913 -0.0556
45784DOD     C381173  13.443  21.564  17.044  0.3386 -0.3350  0.3549
45785DOD     C181174  26.068   2.100  27.409  0.1289  0.2208 -0.3485
45785DOD     C281175  26.529   2.153  27.388 -0.2044 -0.2291 -0.1971
45785DOD     C381176  26.943   2.124  27.192 -0.0810  0.1985 -0.2384
45786DOD     C181177   1.439  11.335  26.861  0.0961 -0.3890 -0.1035
45786DOD     C281178   1.815  11.603  26.702  0.1481 -0.1527 -0.1859
45786DOD     C381179   2.311  11.496  26.771  0.2693 -0.1738 -0.0141
45787DOD     C181180  27.966  12.264   9.330 -0.0162 -0.1401 -0.0719
45787DOD     C281181  28.400  12.143   9.487 -0.1464 -0.0132 -0.0006
45787DOD     C381182  28.707  12.409   9.752 -0.0102 -0.1055  0.2520
45788DOD     C181183  19.307  26.517   7.215  0.0360 -0.0186 -0.1634
45788DOD     C281184  19.022  26.421   6.844 -0.4074  0.1045  0.0215
45788DOD     C381185  18.774  26.408   6.417  0.1323  0.0543  0.1233
45789DOD     C181186  24.782   4.261   4.603  0.1057  0.0566 -0.1652
45789DOD     C281187  24.911   4.177   4.994  0.1604 -0.1058  0.0977
45789DOD     C381188  25.152   4.232   5.367 -0.0654  0.2318 -0.2469
45790DOD     C181189   5.064   8.153  26.575  0.0892  0.0381 -0.3093
45790DOD     C281190   4.810   7.726  26.622 -0.0247  0.1118  0.2584
45790DOD     C381191   4.401   7.587  26.455  0.0400  0.0717 -0.0286
45791DOD     C181192   8.531  17.775  11.217 -0.0049  0.3345 -0.2067
45791DOD     C281193   8.139  17.778  11.295  0.3174 -0.0048  0.0546
45791DOD     C381194   7.713  17.821  11.221 -0.2503 -0.1526 -0.0914
45792DOD     C181195  29.960  17.039  24.490 -0.2533  0.2859  0.1835
45792DOD     C281196   0.052  16.799  24.454 -0.3323  0.1680  0.2896
45792DOD     C381197   0.534  16.727  24.465 -0.1530 -0.0200  0.0625
45793DOD     C181198  13.554  23.293  27.325  0.5916 -0.2779  0.2550
45793DOD     C281199  13.843  23.231  26.982  0.0755 -0.1722 -0.1183
45793DOD     C381200  14.017  23.164  26.564  0.4350 -0.0146  0.1365
45794DOD     C181201   6.932  12.841  14.542  0.0073  0.3022  0.0771
45794DOD     C281202   6.965  12.923  14.094  0.0431  0.1941  0.0188
45794DOD     C381203   7.122  13.246  13.850 -0.0330 -0.2756  0.0439
45795DOD     C181204  29.269  25.988  29.735  0.3273 -0.1511 -0.0379
45795DOD     C281205  29.634  26.163  29.499 -0.2391 -0.0967 -0.2068
45795DOD     C381206  30.012  26.097  29.262 -0.0282 -0.1739 -0.1348
45796DOD     C181207  27.070   5.457   9.407  0.1262  0.0226 -0.2957
45796DOD     C281208  26.878   5.878   9.568  0.1075  0.0259  0.2523
45796DOD     C381209  26.814   6.161   9.906 -0.1624  0.0126 -0.1664
45797DOD     C181210  25.312  24.786  23.789 -0.1231  0.0378 -0.0800
45797DOD     C281211  25.611  25.132  23.937 -0.0268  0.1929  0.0608
45797DOD     C381212  26.068  25.204  23.920 -0.1035 -0.0906 -0.4876
45798DOD     C181213  21.505  19.081  14.340 -0.4316  0.0502  0.3715
45798DOD     C281214  21.740  18.778  14.024 -0.0215 -0.3684  0.0716
45798DOD     C381215  21.640  18.423  13.672  0.1604 -0.1791 -0.1888
45799DOD     C181216  29.550  14.599  23.820 -0.1072  0.1181  0.1923
45799DOD     C281217  29.575  14.209  24.076  0.0379  0.0088  0.0704
45799DOD     C381218  29.700  13.904  24.447 -0.0803 -0.0952 -0.0893
45800DOD     C181219   8.924  27.376  26.046  0.0583  0.1807 -0.2542
45800DOD     C281220   8.812  27.780  25.808  0.2405  0.0496 -0.0234
45800DOD     C381221   8.895  28.232  25.723 -0.0754 -0.0893 -0.3420
45801DOD     C181222  10.007   5.552   4.704  0.4692  0.1249  0.3501
45801DOD     C281223  10.476   5.485   4.872 -0.3464 -0.2704  0.1807
45801DOD     C381224  10.795   5.256   5.137 -0.0731  0.0484  0.1428
45802DOD     C181225   1.998   6.128  27.459 -0.0026  0.1908 -0.0337
45802DOD     C281226   2.331   6.035  27.189  0.1253  0.2215 -0.0035
45802DOD     C381227   2.571   6.394  26.974 -0.1062  0.1220 -0.0109
45803DOD     C181228  11.404  26.426  24.013  0.1774  0.1904 -0.4868
45803DOD     C281229  11.495  25.955  24.004 -0.0024 -0.3626 -0.1275
45803DOD     C381230  11.457  25.435  23.886  0.2479  0.3683 -0.1153
45804DOD     C181231  18.118   1.916  23.063  0.0238  0.1154  0.0561
45804DOD     C281232  17.784   1.984  23.351  0.0396  0.2401 -0.2247
45804DOD     C381233  17.764   2.118  23.827  0.0742 -0.0666  0.4285
45805DOD     C181234   7.736  22.319  25.619 -0.0760 -0.4799  0.1007
45805DOD     C281235   7.721  22.484  25.190  0.1635  0.0029 -0.0102
45805DOD     C381236   7.911  22.545  24.724  0.0450 -0.0451 -0.0990
45806DOD     C181237   8.263   4.917  25.746  0.0221 -0.2102  0.0110
45806DOD     C281238   8.318   5.369  25.750  0.2204 -0.2085  0.3161
45806DOD     C381239   8.521   5.637  26.030 -0.0822 -0.2580  0.0658
45807DOD     C181240  26.202  28.702   9.049 -0.2573 -0.1601 -0.0667
45807DOD     C281241  26.623  28.745   8.913 -0.0398 -0.0656  0.0342
45807DOD     C381242  26.975  28.680   8.704  0.0207  0.0482  0.2331
45808DOD     C181243   6.456   2.912   4.213  0.1781 -0.0928  0.1395
45808DOD     C281244   6.077   3.111   4.149 -0.0149 -0.0428  0.1113
45808DOD     C381245   6.036   3.460   3.849 -0.0097  0.1146 -0.0694
45809DOD     C181246   4.578  22.397  30.277 -0.0623 -0.3095  0.1616
45809DOD     C281247   4.236  22.654  30.098 -0.1001 -0.2022 -0.0602
45809DOD     C381248   3.770  22.850  30.200  0.1433  0.3602 -0.0932
45810DOD     C181249   8.957  13.825  21.092 -0.0685 -0.0084  0.0059
45810DOD     C281250   9.325  13.716  20.856 -0.0866 -0.0087 -0.0628
45810DOD     C381251   9.755  13.575  21.038 -0.1057  0.2230 -0.2408
45811DOD     C181252  24.143  18.798  25.794  0.3132  0.1600  0.2479
45811DOD     C281253  24.404  18.941  25.479 -0.1040 -0.0060 -0.3559
45811DOD     C381254  24.700  19.092  25.190  0.0165  0.0179  0.2466
45812DOD     C181255  29.965  12.788   0.932 -0.0636  0.3737  0.0355
45812DOD     C281256  29.807  12.437   0.643 -0.2042  0.0702  0.0911
45812DOD     C381257  29.467  12.081   0.577  0.0506  0.1373  0.0003
45813DOD     C181258  24.479   3.637  12.666  0.2429  0.1784  0.1039
45813DOD     C281259  24.951   3.756  12.795  0.0053 -0.2213 -0.0973
45813DOD     C381260  25.413   3.601  12.763  0.0876 -0.1404  0.0816
45814DOD     C181261  30.312   6.374  29.937  0.1676  0.1069  0.1711
45814DOD     C281262  30.138   6.237  30.310  0.0209 -0.0852  0.0298
45814DOD     C381263  29.873   6.205   0.369  0.1148  0.3035  0.1972
45815DOD     C181264  22.436  11.310  21.994 -0.4348 -0.2107  0.0895
45815DOD     C281265  22.915  11.415  21.906  0.3640  0.0323  0.1150
45815DOD     C381266  23.099  11.573  21.523  0.1213  0.0921  0.2515
45816DOD     C181267   3.203  12.163  19.935  0.2125  0.2201  0.0624
45816DOD     C281268   3.102  12.569  20.226 -0.1864 -0.2255 -0.1068
45816DOD     C381269   2.781  12.822  20.435  0.2950  0.1123 -0.0189
45817DOD     C181270   5.611   1.266   2.959 -0.0415 -0.3741 -0.0534
45817DOD     C281271   5.677   0.972   3.321 -0.1106 -0.0193 -0.0952
45817DOD     C381272   5.609   0.636   3.738 -0.3056 -0.1149  0.1764
45818DOD     C181273  25.642  24.102  25.577 -0.2732  0.2179 -0.0372
45818DOD     C281274  26.126  24.112  25.505 -0.1363 -0.1754 -0.0688
45818DOD     C381275  26.523  24.024  25.237 -0.2845 -0.3108  0.0411
45819DOD     C181276   9.299  30.240   3.389  0.0079  0.1196  0.3097
45819DOD     C281277   9.214  29.920   3.065 -0.0760  0.1594 -0.1238
45819DOD     C381278   9.473  29.849   2.744 -0.0132 -0.0259  0.1115
45820DOD     C181279  24.903   7.840  17.524 -0.2458 -0.2560 -0.1539
45820DOD     C281280  24.544   7.824  17.787  0.0870  0.0411 -0.3400
45820DOD     C381281  24.506   7.982  18.214 -0.1877  0.1401 -0.0743
45821DOD     C181282  29.281  13.972   8.661  0.2215 -0.0741  0.0717
45821DOD     C281283  28.848  14.046   8.501 -0.0325  0.1508  0.0291
45821DOD     C381284  28.385  14.017   8.381 -0.0912 -0.0172  0.0364
45822DOD     C181285   6.658  11.418  26.606 -0.0237  0.1215 -0.3246
45822DOD     C281286   6.419  11.736  26.906 -0.1934 -0.0563 -0.0441
45822DOD     C381287   6.539  12.012  27.202 -0.1434  0.1158 -0.1611
45823DOD     C181288  20.501  29.410  13.708 -0.0608 -0.2227 -0.0336
45823DOD     C281289  20.151  29.172  13.866 -0.0941  0.2778  0.1481
45823DOD     C381290  19.794  29.058  14.110  0.2360 -0.0675  0.2375
45824DOD     C181291  13.531  29.678  10.669  0.1943  0.0441 -0.0235
45824DOD     C281292  13.876  29.940  10.474 -0.3052 -0.1471  0.1715
45824DOD     C381293  14.277  29.954  10.500 -0.0336 -0.2156  0.3313
45825DOD     C181294   2.442   4.769   5.010  0.0136 -0.2967 -0.1926
45825DOD     C281295   2.011   4.904   4.901 -0.3114 -0.0080 -0.0346
45825DOD     C381296   1.919   5.320   4.688 -0.0258 -0.0354  0.2516
45826DOD     C181297  20.112  12.728   1.220 -0.1826  0.2223  0.1117
45826DOD     C281298  20.251  12.674   0.752 -0.2140  0.1638  0.0166
45826DOD     C381299  20.116  12.428   0.404 -0.0157  0.0620 -0.0150
45827DOD     C181300  15.334  20.121   5.982  0.3104 -0.0357  0.0405
45827DOD     C281301  15.583  19.751   5.885  0.0624 -0.0430  0.0526
45827DOD     C381302  15.493  19.275   5.793 -0.3051  0.0986  0.3081
45828DOD     C181303  11.928   5.652  28.295 -0.1219  0.0542  0.1353
45828DOD     C281304  12.038   6.054  28.575  0.1749  0.1321 -0.1794
45828DOD     C381305  12.276   6.210  28.899 -0.0932 -0.0449 -0.0793
45829DOD     C181306   2.515  25.430  26.819 -0.0317  0.0738  0.3216
45829DOD     C281307   2.166  25.086  26.737 -0.0379  0.0063  0.2529
45829DOD     C381308   1.809  24.784  26.877  0.3009  0.2547  0.1416
45830DOD     C181309  16.044  15.044  20.082 -0.0602  0.1183  0.0684
45830DOD     C281310  15.958  14.594  19.942 -0.1584  0.0331  0.2252
45830DOD     C381311  15.642  14.284  19.961  0.3067  0.0967  0.1487
45831DOD     C181312  18.567  26.833  11.299  0.2580  0.0080  0.2198
45831DOD     C281313  18.420  26.747  11.718  0.2297  0.1669 -0.1354
45831DOD     C381314  18.219  26.943  12.066 -0.2901  0.1170  0.0589
45832DOD     C181315  21.013  28.610  25.635  0.2347  0.0919  0.3125
45832DOD     C281316  21.411  28.666  25.886 -0.3772  0.1580 -0.1189
45832DOD     C381317  21.798  28.694  26.167  0.0067 -0.3221  0.2244
45833DOD     C181318   6.394  11.201   4.976  0.1497 -0.3049  0.1116
45833DOD     C281319   6.826  11.198   4.823 -0.1679  0.2170 -0.0559
45833DOD     C381320   7.281  11.288   4.950  0.0546 -0.1618 -0.2854
45834DOD     C181321  12.980  19.892  22.841  0.2577 -0.0936 -0.1533
45834DOD     C281322  13.022  20.042  22.379  0.0497 -0.0753  0.0817
45834DOD     C381323  13.032  20.509  22.248  0.0675 -0.0882 -0.2331
45835DOD     C181324  25.377  25.605   1.894 -0.0682  0.3216  0.0056
45835DOD     C281325  25.592  25.381   2.267  0.0083 -0.0447  0.0162
45835DOD     C381326  25.600  25.301   2.719  0.0713 -0.1982  0.0433
45836DOD     C181327  11.793   4.370   9.479  0.1400  0.6148 -0.2214
45836DOD     C281328  12.243   4.379   9.636 -0.2036 -0.0521  0.0090
45836DOD     C381329  12.723   4.478   9.777 -0.0817 -0.2020  0.3633
45837DOD     C181330  27.029  19.346  18.331  0.0332  0.2508  0.0587
45837DOD     C281331  27.469  19.106  18.339  0.0806  0.0849 -0.1406
45837DOD     C381332  27.797  18.826  18.125 -0.1955 -0.1894 -0.0518
45838DOD     C181333  28.160  21.393  16.118 -0.0163 -0.1187 -0.1018
45838DOD     C281334  28.499  21.253  15.857 -0.1917  0.1342  0.0225
45838DOD     C381335  28.866  21.029  15.698  0.1537  0.0969  0.0194
45839DOD     C181336  21.040  22.744  18.673 -0.0868  0.1585 -0.1267
45839DOD     C281337  20.631  22.766  18.580  0.0154  0.2586 -0.3266
45839DOD     C381338  20.230  23.001  18.689  0.0701 -0.1201 -0.3343
45840DOD     C181339  10.331  10.702   4.735 -0.0305  0.2394 -0.1950
45840DOD     C281340  10.249  10.670   5.198 -0.0359 -0.0371 -0.3509
45840DOD     C381341  10.032  10.414   5.579  0.1019  0.2986  0.3651
45841DOD     C181342   3.724   9.220  16.128  0.1309 -0.0613  0.2545
45841DOD     C281343   3.282   9.280  16.330  0.0187 -0.1601 -0.0179
45841DOD     C381344   2.827   9.249  16.400 -0.0413 -0.3283 -0.2026
45842DOD     C181345   3.311  18.208   8.409  0.0204 -0.2012 -0.0760
45842DOD     C281346   3.255  18.623   8.515  0.0275 -0.0438 -0.1474
45842DOD     C381347   3.252  18.849   8.910 -0.1923  0.0182  0.1106
45843DOD     C181348  21.778  21.050  19.467  0.0128 -0.1848  0.1382
45843DOD     C281349  21.892  20.940  19.005 -0.0248  0.1013 -0.2334
45843DOD     C381350  21.681  20.840  18.569  0.0751  0.1598 -0.1207
45844DOD     C181351  18.812  15.791  20.813  0.2925 -0.2293 -0.0949
45844DOD     C281352  18.873  16.074  20.391  0.1335  0.0750 -0.1854
45844DOD     C381353  18.776  16.276  19.963  0.1264 -0.1304  0.0514
45845DOD     C181354  16.481  18.113  29.647 -0.4032  0.0266 -0.0957
45845DOD     C281355  16.628  18.098  30.087  0.0677  0.1500 -0.0299
45845DOD     C381356  16.629  17.988   0.225 -0.0468  0.1071 -0.6232
45846DOD     C181357   9.294   8.111   3.797  0.3826 -0.1159 -0.1002
45846DOD     C281358   9.270   8.467   3.504  0.2548  0.0216 -0.1631
45846DOD     C381359   9.031   8.838   3.319  0.1126 -0.1790 -0.3178
45847DOD     C181360  20.726  16.494  16.641  0.2751  0.0200 -0.3639
45847DOD     C281361  20.304  16.484  16.840 -0.0913  0.1456 -0.3022
45847DOD     C381362  19.952  16.476  17.060  0.3280  0.2845 -0.1903
45848DOD     C181363  19.566  23.241   3.364  0.0103  0.0357  0.3649
45848DOD     C281364  19.394  23.185   2.913  0.3419  0.0515  0.1425
45848DOD     C381365  19.044  22.920   2.809  0.1759 -0.1220 -0.4994
45849DOD     C181366  14.525   8.131  12.749 -0.2738  0.1004  0.2150
45849DOD     C281367  14.242   7.766  12.873 -0.0421 -0.0832  0.2421
45849DOD     C381368  13.812   7.614  12.873  0.3029 -0.1969 -0.0071
45850DOD     C181369  15.679   5.619  10.791  0.2348 -0.4442 -0.3354
45850DOD     C281370  15.483   5.234  10.950  0.3477 -0.0389  0.1161
45850DOD     C381371  15.534   4.797  10.934  0.1000  0.1752 -0.4623
45851DOD     C181372  18.579   9.428  15.870 -0.0420  0.2343 -0.1176
45851DOD     C281373  18.554   9.556  16.334 -0.2917  0.1344  0.1332
45851DOD     C381374  18.697   9.802  16.686  0.0320  0.0348 -0.0060
45852DOD     C181375   0.838  20.201  22.370  0.4081 -0.2458 -0.3134
45852DOD     C281376   0.837  20.052  21.952  0.0203 -0.1972 -0.0914
45852DOD     C381377   0.575  19.743  21.740 -0.2595 -0.1505 -0.0682
45853DOD     C181378  29.734  28.086   4.584 -0.3653 -0.2030 -0.0915
45853DOD     C281379  29.269  28.151   4.428  0.0663  0.2050  0.0304
45853DOD     C381380  29.175  28.142   3.992  0.0600 -0.2324 -0.0645
45854DOD     C181381  18.231  21.954  18.711  0.2603  0.0379  0.0122
45854DOD     C281382  18.551  21.939  18.437 -0.0981 -0.0603 -0.1977
45854DOD     C381383  18.658  21.726  18.062  0.1052 -0.1315 -0.3813
45855DOD     C181384   3.815   4.541  17.235  0.1580 -0.0643  0.2118
45855DOD     C281385   3.457   4.358  17.035  0.1418 -0.1128  0.0239
45855DOD     C381386   2.973   4.316  16.897 -0.0026  0.1878  0.2062
45856DOD     C181387   8.406  14.871  21.399 -0.0007  0.0873 -0.2130
45856DOD     C281388   7.983  14.884  21.669 -0.0968  0.0651  0.0797
45856DOD     C381389   7.819  14.778  22.088  0.0266  0.2199 -0.3126
45857DOD     C181390  21.268  15.661   2.166 -0.2539  0.0423 -0.2131
45857DOD     C281391  21.463  15.915   1.833  0.2346  0.0321 -0.0746
45857DOD     C381392  21.821  16.213   1.673  0.1089  0.0153  0.3965
45858DOD     C181393   7.345  29.088   5.427 -0.0034  0.1938 -0.0916
45858DOD     C281394   7.011  28.797   5.534 -0.5177 -0.0840 -0.1856
45858DOD     C381395   6.607  28.686   5.407  0.1167  0.2661  0.1089
45859DOD     C181396   8.670  29.847  20.199  0.0574  0.3211  0.0531
45859DOD     C281397   9.059  30.001  20.333 -0.1439 -0.1711  0.2111
45859DOD     C381398   9.468  29.921  20.232  0.1320 -0.2344 -0.2526
45860DOD     C181399  15.871  12.868  13.008 -0.1450 -0.2060  0.0878
45860DOD     C281400  16.026  13.130  12.666 -0.3731 -0.0017 -0.1023
45860DOD     C381401  15.838  13.571  12.617  0.0553  0.1977 -0.1859
45861DOD     C181402  25.775  19.206  30.017  0.3327 -0.0225 -0.0112
45861DOD     C281403  26.170  19.428  30.054 -0.2444 -0.0345 -0.1662
45861DOD     C381404  26.532  19.384  29.784 -0.4325  0.1204 -0.1697
45862DOD     C181405   6.997  11.467   7.326  0.0007  0.0403  0.2300
45862DOD     C281406   6.924  11.875   7.541 -0.0216  0.0251  0.3653
45862DOD     C381407   6.751  12.043   7.940 -0.0954 -0.1100 -0.0384
45863DOD     C181408  15.475  29.535   6.051  0.1941  0.0353  0.0965
45863DOD     C281409  15.833  29.636   6.386 -0.2324 -0.5347  0.3366
45863DOD     C381410  15.838  29.776   6.823  0.0015 -0.0341  0.2452
45864DOD     C181411  26.970  15.186  11.877  0.1870  0.2458 -0.1968
45864DOD     C281412  26.639  15.365  12.131 -0.0733  0.0449  0.0744
45864DOD     C381413  26.271  15.551  12.297 -0.1476  0.1508 -0.4936
45865DOD     C181414  25.608  24.436  19.908  0.2579  0.0378 -0.0916
45865DOD     C281415  25.331  24.721  19.756  0.1116 -0.3024  0.1793
45865DOD     C381416  25.198  25.062  19.524  0.2776 -0.1957 -0.1632
45866DOD     C181417  28.386   7.042  12.706 -0.0936 -0.1382 -0.1335
45866DOD     C281418  28.097   6.755  12.592 -0.0679 -0.0653  0.1287
45866DOD     C381419  27.758   6.795  12.194 -0.0625 -0.0603 -0.1005
45867DOD     C181420  28.149  17.475  29.621  0.0633  0.1434 -0.0633
45867DOD     C281421  28.232  17.018  29.721 -0.1688  0.0590  0.1581
45867DOD     C381422  28.284  16.513  29.669  0.1026 -0.0560  0.1355
45868DOD     C181423  13.985  13.268   9.081 -0.0842 -0.0618  0.1210
45868DOD     C281424  14.070  13.209   8.620 -0.3182 -0.0472 -0.1238
45868DOD     C381425  14.372  13.309   8.305  0.1134  0.1841 -0.0630
45869DOD     C181426  15.021   5.309   5.439  0.0495 -0.0494 -0.0261
45869DOD     C281427  14.990   4.968   5.090 -0.0895  0.2421  0.3061
45869DOD     C381428  14.610   4.772   4.847 -0.2932 -0.0862 -0.0489
45870DOD     C181429   4.879  12.755  25.628 -0.0940  0.1325  0.1946
45870DOD     C281430   5.301  12.591  25.482 -0.3156  0.1240  0.1526
45870DOD     C381431   5.692  12.578  25.331  0.0743  0.2417 -0.0720
45871DOD     C181432   7.699  15.875  20.832 -0.2405 -0.0658  0.1815
45871DOD     C281433   8.053  15.604  20.644  0.1286 -0.0592  0.1401
45871DOD     C381434   8.361  15.414  20.350  0.0258 -0.2293  0.1496
45872DOD     C181435   3.848  26.597  14.178 -0.1223  0.0641  0.0774
45872DOD     C281436   3.857  26.967  13.910 -0.1187 -0.2786  0.1909
45872DOD     C381437   4.046  27.303  13.772 -0.1243  0.0456 -0.3522
45873DOD     C181438  17.513  22.385  16.214  0.2561 -0.2540 -0.1405
45873DOD     C281439  17.947  22.645  16.244 -0.0866  0.1193  0.2537
45873DOD     C381440  18.426  22.571  16.288  0.0584  0.0561  0.0967
45874DOD     C181441   0.372   9.852   5.132 -0.0820 -0.2024 -0.0864
45874DOD     C281442   0.804   9.852   5.026 -0.0237 -0.0986 -0.0527
45874DOD     C381443   1.090  10.165   4.857 -0.0682  0.0502  0.0202
45875DOD     C181444  18.075  17.641  20.537  0.0389  0.2564 -0.0621
45875DOD     C281445  18.298  17.857  20.819  0.2540  0.0923 -0.2070
45875DOD     C381446  18.597  18.043  21.120 -0.3204 -0.2527 -0.1696
45876DOD     C181447  21.118  26.698   4.692  0.1584  0.1829 -0.1227
45876DOD     C281448  20.621  26.759   4.718 -0.3532  0.0860  0.0064
45876DOD     C381449  20.485  26.830   5.124  0.2028 -0.1253  0.3435
45877DOD     C181450   0.880  14.971  19.576  0.0937  0.0835 -0.1355
45877DOD     C281451   0.825  14.894  19.126  0.1560  0.2433  0.3927
45877DOD     C381452   0.534  14.737  18.901  0.1660 -0.0820 -0.0917
45878DOD     C181453  23.852  19.556  25.949  0.1707 -0.0414  0.1017
45878DOD     C281454  23.915  19.488  25.510  0.0169  0.0373  0.1396
45878DOD     C381455  23.868  19.843  25.119 -0.1836 -0.1906 -0.1213
45879DOD     C181456   2.264   1.704  11.377  0.0185  0.1267  0.0542
45879DOD     C281457   1.824   1.659  11.513 -0.0631  0.1947 -0.0109
45879DOD     C381458   1.523   1.932  11.612 -0.1678 -0.1792 -0.4371
45880DOD     C181459  26.076  15.704  24.181 -0.1111 -0.0244 -0.1920
45880DOD     C281460  25.774  15.760  23.809  0.0536  0.1467 -0.0596
45880DOD     C381461  25.533  15.595  23.461  0.0418 -0.0315 -0.0366
45881DOD     C181462  25.764  22.002  26.062 -0.1929 -0.4433 -0.1028
45881DOD     C281463  25.556  21.633  26.343 -0.2354  0.0458  0.0738
45881DOD     C381464  25.490  21.165  26.334  0.3028 -0.4176 -0.2030
45882DOD     C181465   1.198   2.388  18.200 -0.2791 -0.3206  0.2668
45882DOD     C281466   1.303   2.045  18.504 -0.1046  0.2356 -0.1971
45882DOD     C381467   1.131   1.942  18.953 -0.1631 -0.0557 -0.3933
45883DOD     C181468  11.513  19.361  15.044 -0.2162 -0.5099  0.1717
45883DOD     C281469  11.201  19.725  15.181 -0.2408 -0.0891 -0.1709
45883DOD     C381470  10.994  20.130  15.196  0.3335 -0.3384 -0.2512
45884DOD     C181471  22.108  17.355  28.433  0.0781 -0.1687  0.2712
45884DOD     C281472  21.971  17.010  28.756  0.0294 -0.2736 -0.1400
45884DOD     C381473  22.111  16.752  29.129  0.0206  0.1083  0.1331
45885DOD     C181474  18.050   1.806  10.495  0.0607  0.1532 -0.0720
45885DOD     C281475  17.799   1.622  10.174  0.0886  0.1034 -0.2949
45885DOD     C381476  17.674   1.303   9.856 -0.0633 -0.0433 -0.1554
45886DOD     C181477   2.016  11.272   3.836  0.1124 -0.0755 -0.1020
45886DOD     C281478   1.858  11.425   3.427  0.0617 -0.2590  0.0590
45886DOD     C381479   1.561  11.759   3.315  0.0684  0.0068  0.1166
45887DOD     C181480  27.154  27.502  23.469 -0.0669  0.0855  0.0219
45887DOD     C281481  26.988  27.110  23.708  0.0022 -0.0039 -0.2301
45887DOD     C381482  26.772  26.839  24.034  0.0158 -0.0810 -0.0256
45888DOD     C181483  10.555  14.425  27.875 -0.0791  0.1387 -0.3479
45888DOD     C281484  10.973  14.397  27.613 -0.1427  0.1918 -0.1907
45888DOD     C381485  11.331  14.431  27.382  0.0923  0.0880  0.2836
45889DOD     C181486  15.785   6.289  23.581  0.0938 -0.0706  0.0051
45889DOD     C281487  15.460   6.004  23.794 -0.4655  0.1555  0.0344
45889DOD     C381488  15.165   5.632  23.896  0.0728  0.2054 -0.0331
45890DOD     C181489  12.070  17.943  19.971 -0.0634 -0.0253 -0.2242
45890DOD     C281490  12.004  17.535  20.237  0.1781  0.1103  0.0874
45890DOD     C381491  11.945  17.230  20.578  0.1159 -0.1275  0.2328
45891DOD     C181492  21.126  28.411   8.152  0.4323  0.2450  0.0857
45891DOD     C281493  21.041  27.957   8.245 -0.0497  0.0542 -0.3126
45891DOD     C381494  21.125  27.700   8.557  0.0377  0.1442 -0.2137
45892DOD     C181495   9.738  24.157  13.537  0.2565  0.3213 -0.0355
45892DOD     C281496   9.729  24.216  13.987 -0.0724  0.1498 -0.1725
45892DOD     C381497   9.452  24.211  14.338  0.1928 -0.1071 -0.0558
45893DOD     C181498   7.986   7.622  26.784  0.0026  0.0326 -0.2201
45893DOD     C281499   7.690   7.215  26.787 -0.1093  0.0602 -0.0200
45893DOD     C381500   7.522   6.953  26.466 -0.0195  0.2557 -0.0269
45894DOD     C181501  11.216   7.651  14.044  0.0098  0.1448 -0.1100
45894DOD     C281502  11.084   7.317  13.705  0.0525  0.1487 -0.2112
45894DOD     C381503  11.236   7.236  13.247 -0.1695 -0.2628 -0.1503
45895DOD     C181504  13.154   3.939  25.813 -0.1801 -0.0720  0.0915
45895DOD     C281505  13.019   4.272  25.513 -0.2498 -0.2658  0.0236
45895DOD     C381506  13.195   4.715  25.255  0.2777  0.1257  0.1856
45896DOD     C181507   7.054  11.551  23.162  0.1597 -0.0271 -0.2790
45896DOD     C281508   7.207  12.033  23.041 -0.0669  0.1140 -0.1745
45896DOD     C381509   7.169  12.501  22.925 -0.2117  0.0211 -0.0228
45897DOD     C181510  17.837  22.755  15.699  0.0420 -0.3165 -0.2501
45897DOD     C281511  18.036  22.890  15.305 -0.0068 -0.2897  0.0716
45897DOD     C381512  18.414  23.076  15.051 -0.2078  0.2197  0.0783
45898DOD     C181513   2.488  13.012   5.864 -0.0257  0.3280  0.0482
45898DOD     C281514   2.159  13.062   6.178  0.0767 -0.0690  0.2622
45898DOD     C381515   1.801  12.974   6.497 -0.1998  0.1612 -0.2152
45899DOD     C181516   9.054  15.590  27.145 -0.1227 -0.1070 -0.0046
45899DOD     C281517   8.806  15.406  27.480  0.3243 -0.1624  0.2126
45899DOD     C381518   8.524  15.131  27.668 -0.0944  0.1865 -0.0254
45900DOD     C181519  13.667  12.947  29.128  0.0490  0.2710 -0.0159
45900DOD     C281520  13.530  12.640  29.417  0.1208 -0.1635  0.1614
45900DOD     C381521  13.644  12.610  29.882 -0.3938 -0.0493 -0.5129
45901DOD     C181522  17.938  12.203  11.346  0.0013 -0.1153  0.0831
45901DOD     C281523  17.838  12.127  11.758  0.0271  0.0533  0.0027
45901DOD     C381524  17.661  12.025  12.221 -0.0171 -0.4449 -0.5407
45902DOD     C181525   2.416   4.596  24.423 -0.0605  0.0394 -0.1267
45902DOD     C281526   2.648   4.163  24.273 -0.0181  0.0635  0.1897
45902DOD     C381527   2.992   3.909  24.271  0.2593 -0.0970  0.0388
45903DOD     C181528  27.199  14.919  10.111  0.0059  0.1238  0.2471
45903DOD     C281529  27.612  14.746  10.072 -0.1856 -0.1784  0.5239
45903DOD     C381530  27.940  14.505  10.199  0.2140 -0.2309 -0.2094
45904DOD     C181531  20.921   3.915  21.721  0.1779  0.2880 -0.1310
45904DOD     C281532  20.564   4.173  21.857 -0.1813  0.0284 -0.0292
45904DOD     C381533  20.204   4.421  21.931  0.1404  0.0132 -0.2426
45905DOD     C181534  21.776  16.547  18.169 -0.0323 -0.0513 -0.2367
45905DOD     C281535  21.534  16.434  17.803 -0.0311 -0.1190 -0.1844
45905DOD     C381536  21.467  16.697  17.470 -0.0068  0.1460  0.0574
45906DOD     C181537  22.843  23.844  12.777  0.2736  0.1604  0.0655
45906DOD     C281538  22.711  24.054  12.385  0.1190  0.1516 -0.0549
45906DOD     C381539  22.807  24.123  11.935 -0.1259  0.0354 -0.1088
45907DOD     C181540   2.510   1.417  19.980  0.1296  0.2836 -0.0716
45907DOD     C281541   2.686   1.534  19.567 -0.2493 -0.0404 -0.2125
45907DOD     C381542   2.700   1.442  19.124  0.0925 -0.1242  0.2206
45908DOD     C181543   3.981  20.188   1.069 -0.0118 -0.1021  0.0967
45908DOD     C281544   3.877  20.482   1.410  0.0050 -0.0059 -0.1028
45908DOD     C381545   3.998  20.847   1.641 -0.1039 -0.1329  0.2078
45909DOD     C181546  16.121  27.351  14.798 -0.0730  0.2460  0.3172
45909DOD     C281547  16.286  27.357  14.283 -0.0334 -0.3418 -0.2873
45909DOD     C381548  16.538  27.652  14.044  0.2613  0.2208  0.3880
45910DOD     C181549  10.348  23.742  24.134 -0.2047  0.2312 -0.1029
45910DOD     C281550   9.961  23.883  23.968  0.0980 -0.2669  0.1023
45910DOD     C381551   9.797  24.353  23.875 -0.0918  0.1961  0.1608
45911DOD     C181552   1.293  27.531  28.977 -0.1366 -0.3778  0.0394
45911DOD     C281553   1.708  27.715  28.816  0.0283 -0.0741 -0.2823
45911DOD     C381554   2.046  27.960  29.063 -0.0395 -0.4054 -0.1302
45912DOD     C181555   9.472   8.335   6.351 -0.3633 -0.0892  0.2391
45912DOD     C281556   9.767   8.685   6.323 -0.2221  0.1854  0.2619
45912DOD     C381557   9.795   9.170   6.245 -0.0823  0.0184 -0.1125
45913DOD     C181558  22.920  20.637  14.131  0.0513 -0.2528 -0.0896
45913DOD     C281559  22.629  21.011  14.151  0.0122  0.2879  0.2569
45913DOD     C381560  22.452  21.367  13.912 -0.0734  0.1133 -0.1443
45914DOD     C181561  13.938  21.153  24.872 -0.2149 -0.0314  0.1351
45914DOD     C281562  14.290  21.010  24.631 -0.1655 -0.4351  0.1253
45914DOD     C381563  14.600  21.101  24.322 -0.0809  0.1925 -0.0039
45915DOD     C181564  20.411  21.220  13.379 -0.2276 -0.2484 -0.1249
45915DOD     C281565  20.517  21.643  13.468  0.1303 -0.0353  0.2049
45915DOD     C381566  20.327  22.069  13.604  0.3141 -0.1629 -0.2320
45916DOD     C181567  10.530  27.747  24.839  0.0663 -0.2678 -0.1180
45916DOD     C281568  10.210  27.512  24.964 -0.2679  0.0716 -0.0698
45916DOD     C381569   9.793  27.348  25.149  0.0515  0.2325  0.0250
45917DOD     C181570  21.594  19.789   3.377 -0.0239  0.1736  0.1307
45917DOD     C281571  21.844  19.700   2.922  0.0251  0.0556  0.1535
45917DOD     C381572  21.741  19.399   2.584 -0.1503  0.0457  0.0281
45918DOD     C181573   7.896  17.003   8.708 -0.0796  0.2537  0.0444
45918DOD     C281574   8.123  17.209   8.359  0.0915  0.2954 -0.0617
45918DOD     C381575   8.431  17.547   8.276  0.0148  0.1764  0.1207
45919DOD     C181576  16.126  23.768  29.215 -0.2706  0.1128 -0.2317
45919DOD     C281577  15.811  23.987  29.466 -0.1354  0.0354 -0.1760
45919DOD     C381578  15.859  24.261  29.890 -0.2552  0.2167 -0.0637
45920DOD     C181579  21.830  12.514  24.169  0.0660 -0.2111 -0.0483
45920DOD     C281580  21.556  12.433  24.520  0.2099  0.0405  0.0502
45920DOD     C381581  21.386  12.683  24.911 -0.1118  0.0763 -0.2817
45921DOD     C181582   3.393  20.648   1.457 -0.0899  0.0827 -0.2331
45921DOD     C281583   3.655  20.882   1.206  0.0798  0.1774  0.0031
45921DOD     C381584   3.922  21.271   1.376  0.0235 -0.2175  0.1616
45922DOD     C181585  14.882   0.231  29.614  0.1535  0.2757  0.0602
45922DOD     C281586  14.831   0.694  29.725 -0.5716  0.0154  0.2648
45922DOD     C381587  14.644   1.094  29.848  0.0027 -0.0238  0.2442
45923DOD     C181588  21.692  14.616   9.736 -0.0538 -0.0189 -0.1599
45923DOD     C281589  21.795  14.865  10.145 -0.0260  0.1870 -0.1634
45923DOD     C381590  21.620  14.881  10.578 -0.0460  0.0835  0.0363
45924DOD     C181591   0.472  18.894  10.654 -0.1071  0.1817  0.3938
45924DOD     C281592   0.354  18.755  11.086  0.1703  0.1580 -0.1126
45924DOD     C381593   0.159  18.468  11.442 -0.0990 -0.1905  0.1143
45925DOD     C181594  22.063  27.490  10.462 -0.0330 -0.1158  0.0711
45925DOD     C281595  21.706  27.596  10.199 -0.2280 -0.2923  0.0778
45925DOD     C381596  21.500  27.771   9.797 -0.0259 -0.2442 -0.0442
45926DOD     C181597   1.463  14.806   4.580  0.2267 -0.0709 -0.0534
45926DOD     C281598   1.789  14.908   4.991  0.0120 -0.0638 -0.1495
45926DOD     C381599   1.924  15.157   5.377 -0.1627 -0.1067  0.0413
45927DOD     C181600  22.401  17.803  13.196  0.2667  0.0048 -0.1531
45927DOD     C281601  22.009  17.658  13.181 -0.2090  0.1538 -0.2442
45927DOD     C381602  21.728  17.279  13.152  0.0787 -0.1018  0.1903
45928DOD     C181603  19.420  12.904  16.823  0.2091  0.0188  0.0605
45928DOD     C281604  19.633  13.326  16.872 -0.1432  0.0790 -0.3357
45928DOD     C381605  20.096  13.409  17.056  0.2040 -0.2130 -0.1243
45929DOD     C181606   6.337  26.694  24.227  0.3137 -0.1728  0.2760
45929DOD     C281607   6.558  26.885  24.616  0.0491 -0.0472  0.0869
45929DOD     C381608   6.649  27.294  24.739 -0.1759 -0.0532  0.4363
45930DOD     C181609   5.243  21.088  15.222 -0.1921  0.0151  0.1145
45930DOD     C281610   5.170  20.885  15.655 -0.0160 -0.0797  0.1671
45930DOD     C381611   5.003  20.751  16.094  0.1931  0.2989  0.1554
45931DOD     C181612  21.546   3.179   2.682 -0.0996 -0.2192  0.2285
45931DOD     C281613  21.711   3.600   2.569 -0.0552 -0.0190  0.1584
45931DOD     C381614  21.513   4.010   2.478  0.3452  0.0053 -0.0096
45932DOD     C181615  12.202   4.956  12.445  0.0385  0.0848 -0.1014
45932DOD     C281616  12.166   5.421  12.336 -0.3462  0.0799 -0.0875
45932DOD     C381617  12.359   5.856  12.297  0.1012  0.2903  0.1115
45933DOD     C181618  22.005  24.613  30.223 -0.2145 -0.3360  0.1649
45933DOD     C281619  22.411  24.859  30.167 -0.0068  0.1926  0.1084
45933DOD     C381620  22.810  24.631  30.179  0.0676 -0.0481  0.0254
45934DOD     C181621  18.092  27.299  21.807  0.0904  0.3155  0.0803
45934DOD     C281622  18.435  27.101  21.996  0.2464  0.3732  0.2183
45934DOD     C381623  18.856  27.165  21.869  0.0678 -0.4900 -0.1368
45935DOD     C181624  28.400  25.859  16.358  0.0003 -0.0926  0.0167
45935DOD     C281625  28.517  25.623  16.719  0.2186 -0.1432  0.2720
45935DOD     C381626  28.835  25.747  16.998  0.1982 -0.2203  0.1552
45936DOD     C181627   7.830  20.668  25.944 -0.1463  0.3105 -0.0229
45936DOD     C281628   7.735  20.517  25.522 -0.2281  0.0345  0.0917
45936DOD     C381629   7.499  20.489  25.129  0.0526  0.0301  0.1190
45937DOD     C181630   8.760  19.701  21.945  0.2123  0.2262 -0.0650
45937DOD     C281631   8.979  19.687  21.509  0.0124 -0.2739 -0.3563
45937DOD     C381632   9.328  19.764  21.214  0.1583  0.0030  0.1026
45938DOD     C181633  18.368   8.799  18.071  0.1604 -0.2302 -0.1946
45938DOD     C281634  18.331   8.951  17.617 -0.0230  0.1158 -0.0440
45938DOD     C381635  18.388   9.201  17.251  0.0380  0.1871  0.0656
45939DOD     C181636  25.003  12.773  25.595 -0.0769  0.0296 -0.1557
45939DOD     C281637  25.378  12.500  25.518  0.0780 -0.0690 -0.3404
45939DOD     C381638  25.742  12.302  25.283 -0.1871 -0.0996 -0.0235
45940DOD     C181639   1.864   5.387  29.931 -0.0597 -0.1806 -0.1266
45940DOD     C281640   1.919   5.560   0.073  0.0876 -0.2745 -0.0291
45940DOD     C381641   1.947   5.761   0.481 -0.0341  0.0932 -0.2005
45941DOD     C181642  26.151   3.997  17.529 -0.2821  0.3189  0.0944
45941DOD     C281643  26.035   3.550  17.643  0.1264 -0.1390  0.1868
45941DOD     C381644  25.673   3.412  17.903  0.3534  0.1798  0.1200
45942DOD     C181645  25.337   9.707  12.045  0.2135  0.0753 -0.0022
45942DOD     C281646  25.648   9.396  11.850  0.1614 -0.0981  0.2211
45942DOD     C381647  25.822   8.954  11.698 -0.0937 -0.0010 -0.2397
45943DOD     C181648   2.483  29.077  17.193 -0.0031 -0.0322 -0.1938
45943DOD     C281649   2.885  29.078  17.451 -0.1787 -0.0586 -0.0529
45943DOD     C381650   3.247  29.397  17.506 -0.0597  0.0485  0.1585
45944DOD     C181651  22.318   1.653   8.113 -0.3305 -0.0389 -0.0630
45944DOD     C281652  22.417   1.436   7.734 -0.1599  0.0296  0.0232
45944DOD     C381653  22.512   1.126   7.353 -0.0967  0.0024  0.1201
45945DOD     C181654   5.028  12.340  18.057  0.1227  0.1976 -0.2229
45945DOD     C281655   4.755  12.162  18.393  0.1407  0.0289  0.0188
45945DOD     C381656   4.877  11.961  18.790 -0.1597  0.0104  0.2808
45946DOD     C181657  17.652  29.165  13.942  0.0870  0.0699  0.4302
45946DOD     C281658  17.452  29.560  14.102  0.0252 -0.1888  0.0359
45946DOD     C381659  17.450  30.031  14.083  0.0644  0.2488  0.1379
45947DOD     C181660  13.021  30.137   6.501  0.1466 -0.1580 -0.0223
45947DOD     C281661  13.230   0.075   6.816  0.3055  0.0588 -0.2641
45947DOD     C381662  13.470   0.474   6.923  0.1449  0.0509  0.0879
45948DOD     C181663   7.141  27.796   2.594  0.2155 -0.2472 -0.1391
45948DOD     C281664   7.245  28.238   2.440 -0.0320  0.0408 -0.2069
45948DOD     C381665   7.399  28.612   2.213  0.5606 -0.0555  0.2609
45949DOD     C181666  14.896  20.897  22.949 -0.0976 -0.0998  0.1395
45949DOD     C281667  14.714  21.326  22.764  0.1088 -0.0739  0.3022
45949DOD     C381668  14.372  21.615  22.858  0.1120  0.0077  0.0550
45950DOD     C181669  11.634  24.507  17.073 -0.1878  0.2867  0.3011
45950DOD     C281670  11.841  24.424  17.494  0.4136 -0.0928 -0.1553
45950DOD     C381671  12.041  24.434  17.932 -0.0306 -0.3966  0.0975
45951DOD     C181672  29.518  26.009  12.840  0.2144 -0.0145  0.0861
45951DOD     C281673  29.381  26.381  13.129  0.0839  0.0974  0.0672
45951DOD     C381674  29.344  26.574  13.479  0.1328  0.4560  0.2965
45952DOD     C181675  17.641  12.832  24.969 -0.2224  0.1115  0.2031
45952DOD     C281676  17.227  12.732  25.175  0.2345  0.0422  0.0536
45952DOD     C381677  16.765  12.686  25.174 -0.1429 -0.0679  0.2393
45953DOD     C181678   4.710   8.221  23.587 -0.0588  0.0927  0.1849
45953DOD     C281679   5.003   8.549  23.502  0.0165  0.1358  0.2769
45953DOD     C381680   4.868   9.043  23.498 -0.2071 -0.2093 -0.0061
45954DOD     C181681  25.103  14.864  24.271  0.1046  0.1987 -0.0696
45954DOD     C281682  25.441  14.537  24.269 -0.2611  0.1701  0.2230
45954DOD     C381683  25.752  14.529  24.651 -0.1385 -0.0555  0.0549
45955DOD     C181684   5.904   5.053  22.249 -0.0801  0.1933 -0.0283
45955DOD     C281685   5.373   5.018  22.126  0.0127 -0.2252 -0.1510
45955DOD     C381686   5.156   4.675  21.928 -0.2657  0.1378 -0.0392
45956DOD     C181687   6.945   9.484   2.832  0.1100 -0.1590  0.0191
45956DOD     C281688   7.156   9.692   3.179  0.0350 -0.2702  0.1113
45956DOD     C381689   7.091   9.802   3.613  0.1117  0.0223  0.2284
45957DOD     C181690  30.125   0.481   3.805  0.1838 -0.2636  0.3814
45957DOD     C281691   0.148   0.522   3.481 -0.1719  0.1697  0.1553
45957DOD     C381692   0.395   0.886   3.511 -0.1518  0.1851  0.0748
45958DOD     C181693  30.076  15.470  23.160 -0.0767 -0.2146 -0.0857
45958DOD     C281694  29.716  15.294  22.984  0.1602 -0.0077  0.4397
45958DOD     C381695  29.587  15.166  22.590 -0.3205 -0.0770 -0.1121
45959DOD     C181696   2.824  24.926  22.275  0.0742  0.0226  0.1395
45959DOD     C281697   3.017  24.947  22.739  0.0006  0.1325  0.1038
45959DOD     C381698   3.088  24.704  23.111  0.3888  0.2188 -0.1048
45960DOD     C181699  21.429  11.377  11.809 -0.1448  0.0216  0.1715
45960DOD     C281700  21.237  11.200  12.194  0.0308  0.1376  0.3082
45960DOD     C381701  21.039  10.816  12.298  0.2685  0.0279  0.0513
45961DOD     C181702  25.976  16.603   4.373  0.1949  0.2184 -0.0139
45961DOD     C281703  26.158  16.916   4.650 -0.0878  0.0162  0.1219
45961DOD     C381704  26.113  17.293   4.930 -0.0995  0.0557 -0.3157
45962DOD     C181705  13.603  19.359  16.745 -0.2754  0.3641 -0.2141
45962DOD     C281706  13.880  19.145  16.419 -0.0353 -0.0476 -0.0655
45962DOD     C381707  13.903  18.702  16.411 -0.1249  0.0708 -0.0664
45963DOD     C181708  11.577  20.858  24.823 -0.1842 -0.0361 -0.2664
45963DOD     C281709  11.206  20.725  24.592 -0.2227 -0.2981  0.2689
45963DOD     C381710  10.904  20.375  24.532 -0.0405 -0.0464  0.1203
45964DOD     C181711   4.687  30.015  13.204 -0.3061  0.2233  0.0456
45964DOD     C281712   4.515  30.230  12.794 -0.6114 -0.1346 -0.3553
45964DOD     C381713   4.608   0.226  12.488  0.0326 -0.1953 -0.0431
45965DOD     C181714   1.304  16.100  25.939  0.3977 -0.3355 -0.0703
45965DOD     C281715   0.963  16.265  26.188 -0.2427 -0.0729  0.2791
45965DOD     C381716   0.882  16.683  26.372  0.1197 -0.3917 -0.2226
45966DOD     C181717  28.908  25.072  28.274 -0.1537 -0.0317 -0.1632
45966DOD     C281718  28.505  25.336  28.146  0.3426  0.3551 -0.0872
45966DOD     C381719  28.119  25.342  27.913 -0.0793  0.0817  0.1369
45967DOD     C181720  19.398  12.111  23.075  0.1087 -0.3033 -0.0625
45967DOD     C281721  19.171  12.261  22.680  0.0077  0.6926 -0.0513
45967DOD     C381722  18.711  12.110  22.684 -0.2007  0.0711 -0.1836
45968DOD     C181723   2.376   0.454   9.429  0.0120 -0.0371  0.0398
45968DOD     C281724   2.247   0.666   9.878 -0.2331 -0.0981  0.2006
45968DOD     C381725   1.994   1.049  10.126  0.0633  0.0792  0.0842
45969DOD     C181726  12.887  29.899  25.505  0.3062  0.2328 -0.0491
45969DOD     C281727  12.643  29.750  25.082  0.0771  0.1219  0.0188
45969DOD     C381728  12.466  29.567  24.772  0.0049 -0.0258  0.1101
45970DOD     C181729   4.702   1.546   1.980  0.2071  0.0010 -0.0644
45970DOD     C281730   5.133   1.635   2.156 -0.1483  0.0943 -0.2216
45970DOD     C381731   5.425   1.301   2.376 -0.0996 -0.0815  0.1392
45971DOD     C181732  25.851  17.222   9.119  0.1780  0.0382  0.4499
45971DOD     C281733  26.152  16.810   9.163 -0.1831  0.2597 -0.0084
45971DOD     C381734  26.575  16.563   9.075  0.1840  0.2246  0.0732
45972DOD     C181735  10.809  14.130   3.459 -0.2258  0.0186 -0.0853
45972DOD     C281736  10.699  13.753   3.758  0.3973  0.1818  0.0323
45972DOD     C381737  11.015  13.442   3.882 -0.0793  0.1306  0.1126
45973DOD     C181738   4.368  21.316  27.556 -0.0877 -0.2362  0.1062
45973DOD     C281739   4.315  21.324  27.969  0.0086 -0.1673 -0.1969
45973DOD     C381740   3.971  21.261  28.304 -0.2387  0.0621  0.0056
45974DOD     C181741  18.832   8.619   0.177  0.3520  0.3114 -0.0541
45974DOD     C281742  18.486   8.253   0.063  0.0095 -0.0625 -0.2154
45974DOD     C381743  18.179   8.132   0.422  0.2222  0.2971  0.4678
45975DOD     C181744  30.079  22.202  13.222  0.1450  0.1424 -0.0950
45975DOD     C281745  29.798  22.119  13.565  0.3320 -0.1533  0.1616
45975DOD     C381746  29.835  21.737  13.832 -0.0705  0.0218 -0.2465
45976DOD     C181747  26.314  27.114   1.232  0.0059  0.2505  0.0353
45976DOD     C281748  25.931  27.137   1.455  0.4808  0.4504  0.0547
45976DOD     C381749  25.545  26.934   1.590 -0.0405  0.0473 -0.0073
45977DOD     C181750   6.057  14.783  11.854  0.2184  0.0941  0.0329
45977DOD     C281751   5.798  14.716  12.237 -0.0730 -0.1739 -0.1165
45977DOD     C381752   5.584  14.707  12.630  0.2047  0.1154  0.4382
45978DOD     C181753  17.650  19.822  11.053  0.1411 -0.4331 -0.2513
45978DOD     C281754  17.771  19.954  10.581 -0.1328 -0.0036  0.1163
45978DOD     C381755  17.578  20.248  10.268  0.1012  0.0831 -0.0589
45979DOD     C181756   9.886  25.657  26.573 -0.0093  0.3293 -0.0777
45979DOD     C281757   9.563  25.465  26.355 -0.0761  0.3938  0.0578
45979DOD     C381758   9.107  25.671  26.317  0.3841  0.2129 -0.0453
45980DOD     C181759   5.210   9.236  28.744  0.0315 -0.0979 -0.1210
45980DOD     C281760   4.997   8.931  29.066 -0.3489 -0.0375 -0.2767
45980DOD     C381761   4.521   8.830  29.121 -0.0039 -0.1873 -0.1118
45981DOD     C181762  12.807  19.174   4.367  0.1147  0.1984 -0.3496
45981DOD     C281763  12.420  19.271   4.218 -0.3571 -0.1307 -0.0704
45981DOD     C381764  12.116  19.519   4.019 -0.3660 -0.2793 -0.1017
45982DOD     C181765  11.282  21.061  28.259 -0.1928  0.1351  0.0872
45982DOD     C281766  11.393  21.100  27.825  0.1652 -0.0456 -0.0260
45982DOD     C381767  11.469  20.893  27.451  0.1155  0.1201  0.4090
45983DOD     C181768  24.559  21.022  26.136 -0.1180  0.1777 -0.1192
45983DOD     C281769  24.184  20.842  25.967  0.0522 -0.2501  0.0153
45983DOD     C381770  23.896  20.537  25.711  0.2102 -0.0239 -0.0007
45984DOD     C181771   7.408   3.149  29.064  0.1309 -0.4576 -0.2564
45984DOD     C281772   6.999   3.178  28.777  0.0380  0.0424  0.2363
45984DOD     C381773   6.737   3.183  28.374  0.0773  0.0484  0.3467
45985DOD     C181774  15.375  28.284  16.934  0.1594 -0.0498  0.2399
45985DOD     C281775  15.518  27.925  17.191  0.0236 -0.1511  0.1249
45985DOD     C381776  15.657  27.490  17.107  0.2289 -0.0783  0.1049
45986DOD     C181777  26.025  15.190  13.871 -0.0558  0.2597  0.0958
45986DOD     C281778  26.124  14.930  13.494  0.0452 -0.3386 -0.2567
45986DOD     C381779  26.009  14.977  13.062 -0.0360 -0.2912 -0.2543
45987DOD     C181780  20.114   0.215  24.222 -0.3164  0.1067 -0.1483
45987DOD     C281781  20.270  30.305  24.566 -0.0724 -0.0704  0.1972
45987DOD     C381782  20.092  29.809  24.556 -0.0164 -0.2861 -0.1899
45988DOD     C181783   6.823   7.312  14.399 -0.2645 -0.0667 -0.2025
45988DOD     C281784   6.938   7.025  14.746  0.0710  0.1167  0.0270
45988DOD     C381785   7.151   6.866  15.145 -0.2447 -0.0374 -0.0874
45989DOD     C181786  27.355  27.113   5.501  0.0308 -0.2704  0.2915
45989DOD     C281787  27.338  27.493   5.186  0.0376  0.0043  0.0562
45989DOD     C381788  27.313  27.881   4.965  0.3113  0.1250  0.1599
45990DOD     C181789  16.610   5.822  25.752  0.2473 -0.2536  0.2721
45990DOD     C281790  16.529   5.370  25.809 -0.1253 -0.0069  0.0831
45990DOD     C381791  16.603   4.886  25.760  0.3222  0.0843 -0.0041
45991DOD     C181792   8.565  25.689   2.364  0.1759 -0.0947 -0.2450
45991DOD     C281793   8.253  25.867   2.775  0.3438  0.1287 -0.1387
45991DOD     C381794   8.266  26.036   3.220  0.2198  0.0477  0.2896
45992DOD     C181795   8.270  29.240   6.283  0.0951  0.0304 -0.1272
45992DOD     C281796   8.609  28.934   6.349  0.2075  0.1141  0.0524
45992DOD     C381797   9.028  29.000   6.463  0.1870  0.0680  0.2050
45993DOD     C181798   4.536   9.114  11.843 -0.0742  0.2397 -0.3911
45993DOD     C281799   4.962   8.881  11.909  0.2147 -0.0856  0.2925
45993DOD     C381800   5.071   8.448  11.744  0.2280 -0.0346  0.2792
45994DOD     C181801  13.436  23.297  21.123  0.2218  0.1124 -0.2095
45994DOD     C281802  13.067  23.462  21.401 -0.0155  0.1679  0.1459
45994DOD     C381803  12.746  23.442  21.750 -0.1376 -0.1965  0.1589
45995DOD     C181804  10.001  23.456  10.538 -0.1321 -0.0161 -0.1878
45995DOD     C281805  10.278  23.222  10.350  0.1845 -0.0589 -0.0191
45995DOD     C381806  10.616  22.892  10.354  0.0718  0.0343 -0.1282
45996DOD     C181807   9.270   7.398  29.144 -0.0923 -0.0391  0.0487
45996DOD     C281808   9.339   7.342  28.684  0.3980  0.2640 -0.1773
45996DOD     C381809   9.197   7.315  28.248  0.1094 -0.0313 -0.2060
45997DOD     C181810  17.457  17.083  30.041  0.2996 -0.0459 -0.0631
45997DOD     C281811  17.890  17.282  30.014 -0.0087  0.0409  0.1889
45997DOD     C381812  18.293  17.421  30.171 -0.2035  0.2384 -0.1404
45998DOD     C181813   6.899  17.882  22.428  0.2202 -0.4063 -0.0544
45998DOD     C281814   7.037  17.896  21.950 -0.0219  0.2506  0.2091
45998DOD     C381815   6.995  18.097  21.518  0.1643  0.1111 -0.2127
45999DOD     C181816   1.616  14.916   3.390  0.0594 -0.2670  0.2015
45999DOD     C281817   1.930  14.854   3.672 -0.0663 -0.1548  0.0598
45999DOD     C381818   2.197  14.960   4.042  0.4012  0.3043 -0.0886
46000DOD     C181819  25.216  26.336   9.222 -0.0092  0.1344 -0.2393
46000DOD     C281820  25.399  26.303   9.633  0.1220 -0.1359  0.2981
46000DOD     C381821  25.767  26.170   9.874 -0.1621 -0.1074  0.3151
46001DOD     C181822  11.120  21.218   8.932  0.1127 -0.0830  0.2810
46001DOD     C281823  11.061  21.567   9.232 -0.0464 -0.1631  0.0846
46001DOD     C381824  10.950  22.002   9.096  0.2685  0.1371  0.0496
46002DOD     C181825  24.757  11.988  23.707  0.0355  0.0403 -0.2054
46002DOD     C281826  24.507  12.386  23.507  0.0791  0.0924  0.1534
46002DOD     C381827  24.090  12.622  23.505  0.1106  0.0055 -0.0709
46003DOD     C181828  25.772   0.934  26.014  0.2151 -0.2761  0.0170
46003DOD     C281829  25.467   1.210  26.211  0.3138 -0.2483  0.0199
46003DOD     C381830  25.080   1.447  26.186 -0.1146 -0.0109 -0.1124
46004DOD     C181831   7.291  23.002   9.335 -0.2165 -0.0046  0.0169
46004DOD     C281832   6.880  22.804   9.228  0.0416 -0.0954 -0.0453
46004DOD     C381833   6.602  22.547   9.454 -0.2901  0.1687 -0.2122
46005DOD     C181834   0.494   6.936  11.391  0.1761 -0.0267  0.1114
46005DOD     C281835   0.711   7.197  11.725 -0.1127 -0.0604  0.0767
46005DOD     C381836   1.094   7.471  11.872  0.0958 -0.1511  0.2278
46006DOD     C181837  11.140  22.292   9.504 -0.0985 -0.1710 -0.1555
46006DOD     C281838  11.200  22.216   9.976 -0.0799  0.1523 -0.0464
46006DOD     C381839  11.450  22.259  10.366 -0.0972 -0.0212 -0.0883
46007DOD     C181840   1.137  19.870  21.105 -0.1141  0.2918 -0.3110
46007DOD     C281841   0.728  19.978  21.308  0.0290 -0.4201 -0.0265
46007DOD     C381842   0.484  20.324  21.508  0.2177 -0.2194  0.1950
46008DOD     C181843  12.794  28.743   4.915  0.1105  0.0742  0.2659
46008DOD     C281844  12.321  28.674   5.043  0.2281  0.0415 -0.0494
46008DOD     C381845  11.827  28.819   5.004 -0.1889 -0.1651  0.0670
46009DOD     C181846  21.089   2.405  21.190 -0.1182 -0.0890 -0.2316
46009DOD     C281847  21.113   2.648  21.564  0.1529  0.1540  0.0897
46009DOD     C381848  21.234   2.560  22.019  0.1730 -0.3629 -0.0964
46010DOD     C181849  19.896  23.854  25.109 -0.0074 -0.4534 -0.0418
46010DOD     C281850  19.720  23.477  25.262  0.1126 -0.0662 -0.2665
46010DOD     C381851  19.219  23.481  25.425 -0.0565  0.0000  0.0611
46011DOD     C181852  22.836   8.934   7.130 -0.0307 -0.2166  0.0320
46011DOD     C281853  22.465   9.156   7.390  0.1350 -0.1215  0.0045
46011DOD     C381854  22.149   9.118   7.744  0.1037 -0.1537 -0.2453
46012DOD     C181855   3.884   7.307  16.892  0.2791 -0.1567  0.3669
46012DOD     C281856   3.919   7.685  17.213  0.2060  0.0638 -0.1948
46012DOD     C381857   3.978   7.652  17.694 -0.0783  0.0092  0.1474
46013DOD     C181858   2.281  23.564  22.932 -0.0466  0.0250  0.1155
46013DOD     C281859   1.846  23.735  22.845  0.1113 -0.0360 -0.0584
46013DOD     C381860   1.413  23.850  22.588 -0.0648  0.1163  0.3644
46014DOD     C181861  28.919   3.915  11.496  0.0229  0.0392 -0.0538
46014DOD     C281862  28.566   4.198  11.488  0.1053 -0.3051  0.1785
46014DOD     C381863  28.443   4.598  11.754 -0.1617 -0.0783  0.0536
46015DOD     C181864  29.721  29.979  28.387  0.1171  0.2425  0.1665
46015DOD     C281865  29.897  29.589  28.599 -0.1064 -0.1468 -0.1223
46015DOD     C381866  29.827  29.467  29.053  0.1885  0.0862  0.1211
46016DOD     C181867  16.901  18.423  25.933  0.2612 -0.0222 -0.2978
46016DOD     C281868  16.597  18.080  26.126  0.3120 -0.1887 -0.2553
46016DOD     C381869  16.206  17.922  26.205 -0.1634  0.2165  0.0598
46017DOD     C181870   5.425   0.191  22.825  0.0333  0.5425  0.0604
46017DOD     C281871   5.388   0.031  22.399 -0.0813 -0.0304  0.2350
46017DOD     C381872   5.422  30.312  21.902  0.0045  0.0491 -0.2379
46018DOD     C181873  24.850   4.862  25.448  0.0342  0.0691  0.1065
46018DOD     C281874  25.020   4.768  25.017 -0.1814  0.1489  0.3159
46018DOD     C381875  25.081   4.882  24.571  0.0486  0.0362  0.0664
46019DOD     C181876   1.794   0.821   1.412 -0.3420  0.3584  0.0855
46019DOD     C281877   2.144   1.134   1.171 -0.2567  0.1366 -0.1257
46019DOD     C381878   2.573   1.204   1.368 -0.1653 -0.2007  0.1218
46020DOD     C181879   2.680  29.407   3.406 -0.0547  0.3602  0.1585
46020DOD     C281880   2.995  29.778   3.538  0.0025  0.2475 -0.1444
46020DOD     C381881   3.224  30.128   3.314 -0.2679 -0.0802 -0.5911
46021DOD     C181882   8.465   0.735  20.435  0.2163 -0.0955 -0.0090
46021DOD     C281883   8.507   1.192  20.374  0.2183 -0.0325  0.1423
46021DOD     C381884   8.367   1.597  20.534  0.1973  0.1563  0.0315
46022DOD     C181885  26.659  10.504  29.363  0.0984  0.0525  0.0634
46022DOD     C281886  26.952  10.627  29.055  0.1310 -0.2838 -0.1398
46022DOD     C381887  27.355  10.833  28.877  0.0498 -0.1362 -0.1056
46023DOD     C181888  14.310  19.945   7.113 -0.0490 -0.0354 -0.3792
46023DOD     C281889  14.583  20.343   7.130 -0.2514 -0.2617 -0.1505
46023DOD     C381890  14.739  20.601   7.543  0.1261 -0.0683  0.1384
46024DOD     C181891   3.997  24.397  20.306 -0.0155 -0.0670 -0.0630
46024DOD     C281892   3.511  24.268  20.429 -0.0914  0.1872  0.1989
46024DOD     C381893   3.106  24.110  20.563  0.0042  0.0866 -0.0530
46025DOD     C181894  12.292  11.677  14.654  0.4736 -0.1894  0.3313
46025DOD     C281895  12.393  12.094  14.748 -0.1798  0.0428 -0.3196
46025DOD     C381896  12.352  12.582  14.810  0.1435 -0.4533  0.1394
46026DOD     C181897  30.046  27.064  15.861  0.1352  0.4217 -0.0142
46026DOD     C281898  30.072  27.176  15.460 -0.0393  0.0511  0.1938
46026DOD     C381899  30.238  26.979  15.030 -0.1447 -0.0541  0.0537
46027DOD     C181900   9.676  29.221  25.337  0.1874  0.0945 -0.3035
46027DOD     C281901   9.585  28.939  25.713 -0.0331  0.3134  0.2576
46027DOD     C381902   9.151  28.654  25.743 -0.0390 -0.0172  0.0924
46028DOD     C181903   9.255  12.471   6.244 -0.0011  0.2417 -0.0960
46028DOD     C281904   9.526  12.210   6.518  0.4224 -0.2075  0.0900
46028DOD     C381905   9.836  12.149   6.831 -0.2559  0.1804  0.1702
46029DOD     C181906   3.513   4.925  26.729  0.1536 -0.2314  0.3099
46029DOD     C281907   3.862   5.197  26.568  0.3427 -0.0968  0.1813
46029DOD     C381908   3.829   5.617  26.414 -0.1089  0.0049 -0.0707
46030DOD     C181909  21.452   4.098  28.826  0.0578 -0.0457  0.2007
46030DOD     C281910  21.906   4.078  28.858 -0.1179  0.0894 -0.1146
46030DOD     C381911  22.183   3.720  28.799 -0.1315  0.3322 -0.0800
46031DOD     C181912  16.729   3.463  17.990  0.1354 -0.1411  0.1736
46031DOD     C281913  16.936   3.079  17.899  0.0604 -0.1081  0.0944
46031DOD     C381914  16.889   2.816  17.445  0.2021  0.0983  0.0883
46032DOD     C181915  16.777  23.956   9.564  0.0125 -0.1823 -0.0440
46032DOD     C281916  16.475  24.005   9.174  0.4545 -0.2332 -0.2239
46032DOD     C381917  16.630  24.333   8.906  0.2425  0.0861 -0.0207
46033DOD     C181918   4.974   1.396   5.102 -0.3282  0.1668  0.0121
46033DOD     C281919   4.639   1.311   4.778 -0.0022  0.0565  0.1168
46033DOD     C381920   4.310   1.473   4.498  0.0888 -0.2167  0.0916
46034DOD     C181921  22.096   7.722  18.966 -0.1579 -0.0818  0.1371
46034DOD     C281922  21.756   8.062  18.835 -0.1770 -0.3457 -0.0336
46034DOD     C381923  21.342   8.265  19.036  0.0694 -0.2094  0.0884
46035DOD     C181924   0.377  25.732  25.718 -0.0092  0.0474  0.2442
46035DOD     C281925   0.044  26.014  25.942 -0.0737 -0.4393 -0.2423
46035DOD     C381926  30.420  26.341  26.273  0.5460 -0.0101  0.2389
46036DOD     C181927   5.906  14.532  18.566  0.0448 -0.0740 -0.3902
46036DOD     C281928   6.069  14.924  18.715 -0.3955  0.0679  0.0954
46036DOD     C381929   6.489  15.257  18.821 -0.0447 -0.2573  0.1929
46037DOD     C181930   8.265  24.148  29.701 -0.4058  0.0774  0.1914
46037DOD     C281931   8.094  23.910  30.026  0.1772 -0.0408  0.2337
46037DOD     C381932   8.013  23.526  30.242  0.1532 -0.0918 -0.0986
46038DOD     C181933  13.467  28.049  15.215  0.0430  0.0279 -0.2068
46038DOD     C281934  13.399  27.920  15.699  0.1995 -0.2836  0.5433
46038DOD     C381935  13.174  28.073  16.100 -0.2567  0.2350 -0.0209
46039DOD     C181936  12.577  30.026  24.157  0.1357  0.0478 -0.1093
46039DOD     C281937  12.711  29.648  24.291 -0.4697  0.0155  0.1167
46039DOD     C381938  12.806  29.214  24.499  0.1718 -0.1381 -0.1301
46040DOD     C181939  16.197  22.568   3.360  0.0598  0.1725  0.0836
46040DOD     C281940  15.972  22.302   3.677 -0.1303  0.2025  0.0592
46040DOD     C381941  15.861  21.841   3.771  0.0976 -0.0760 -0.2603
46041DOD     C181942  23.170  14.000  28.864 -0.1362  0.2643 -0.0926
46041DOD     C281943  23.616  13.859  28.990 -0.0956  0.2184 -0.1298
46041DOD     C381944  24.088  13.694  28.916 -0.0286 -0.0357  0.6105
46042DOD     C181945  17.812  21.764   9.077 -0.0548  0.0069  0.3988
46042DOD     C281946  17.360  21.681   9.126  0.1106  0.0213  0.0147
46042DOD     C381947  17.067  21.431   9.417 -0.4095 -0.1444  0.1067
46043DOD     C181948   7.541  26.750  10.157  0.0131  0.0803  0.4214
46043DOD     C281949   7.631  26.679   9.658  0.0389 -0.4567  0.1657
46043DOD     C381950   7.750  26.637   9.190 -0.3069 -0.1456  0.1075
46044DOD     C181951   3.156   4.712  25.332  0.2440 -0.3089  0.0163
46044DOD     C281952   3.073   4.969  24.953  0.1863 -0.1330  0.0349
46044DOD     C381953   2.971   4.965  24.513  0.0784  0.0597 -0.2373
46045DOD     C181954  27.860  21.715  16.460 -0.1228  0.4530 -0.1176
46045DOD     C281955  27.570  21.839  16.788 -0.0988 -0.0269 -0.0647
46045DOD     C381956  27.465  22.190  17.052  0.1421  0.2623  0.2373
46046DOD     C181957   4.540  24.766   4.236 -0.0522 -0.2659  0.2182
46046DOD     C281958   4.221  25.112   4.322 -0.2621  0.1479 -0.4369
46046DOD     C381959   4.088  25.416   4.019 -0.2190  0.0708  0.0462
46047DOD     C181960  24.540   8.159   3.210  0.1524 -0.1148 -0.2373
46047DOD     C281961  24.218   8.140   3.495  0.1910 -0.1324  0.0439
46047DOD     C381962  23.896   7.931   3.693 -0.0932  0.1088  0.0043
46048DOD     C181963  28.023  20.403  28.732 -0.1364  0.1251  0.3384
46048DOD     C281964  28.274  20.805  28.538 -0.0615  0.0337 -0.0816
46048DOD     C381965  28.190  21.237  28.446 -0.0956  0.0707  0.3906
46049DOD     C181966   6.485  20.530   9.538  0.0111 -0.4245  0.1402
46049DOD     C281967   6.602  20.540   9.088  0.1673  0.1386 -0.2235
46049DOD     C381968   6.556  20.552   8.622  0.1502 -0.2675  0.0185
46050DOD     C181969  27.638  18.182   5.983 -0.3116  0.3193 -0.2906
46050DOD     C281970  27.749  17.883   6.338  0.4350  0.2355  0.0344
46050DOD     C381971  27.433  17.481   6.351 -0.2061  0.1331 -0.3519
46051DOD     C181972  16.144   7.932  26.668  0.2764 -0.0488 -0.2872
46051DOD     C281973  15.898   7.958  26.294 -0.1656 -0.1159 -0.1074
46051DOD     C381974  16.064   8.298  25.957 -0.0020 -0.0023 -0.1508
46052DOD     C181975  22.781  21.710   2.635  0.3407 -0.2560 -0.1114
46052DOD     C281976  23.135  22.067   2.585 -0.1740 -0.0828  0.5831
46052DOD     C381977  23.551  22.151   2.761  0.0484  0.1850  0.0627
46053DOD     C181978  16.631  27.562   5.733  0.2378 -0.1819  0.0419
46053DOD     C281979  16.397  27.778   6.133 -0.0751  0.1442 -0.1486
46053DOD     C381980  16.082  27.967   6.463 -0.1095  0.0210  0.1490
46054DOD     C181981   2.257  12.585   7.518  0.1393  0.1913  0.0219
46054DOD     C281982   1.880  12.395   7.673 -0.0469  0.2421 -0.0367
46054DOD     C381983   1.468  12.223   7.893  0.0857 -0.2379  0.2033
46055DOD     C181984  21.442   7.844  13.156  0.2778  0.0773 -0.1078
46055DOD     C281985  21.561   7.803  12.757 -0.2589  0.2201  0.0883
46055DOD     C381986  21.638   7.833  12.326 -0.0315  0.0647  0.1080
46056DOD     C181987  24.773  22.809   4.814 -0.1764 -0.0077 -0.1495
46056DOD     C281988  24.278  22.891   4.828 -0.1151  0.1391  0.1481
46056DOD     C381989  23.971  23.229   4.646 -0.0007  0.1395 -0.0425
46057DOD     C181990   6.418  15.684  27.381 -0.0372  0.2027 -0.0126
46057DOD     C281991   6.529  15.555  27.789 -0.1454  0.2443 -0.4241
46057DOD     C381992   6.743  15.408  28.185 -0.0641  0.0392  0.0204
46058DOD     C181993  14.142   6.889  15.530 -0.0096  0.2173 -0.1331
46058DOD     C281994  14.585   7.024  15.347  0.0509 -0.2140  0.0132
46058DOD     C381995  14.705   7.257  14.944  0.0981 -0.4250 -0.2199
46059DOD     C181996  17.599  23.948  22.710 -0.1585  0.3470  0.0054
46059DOD     C281997  17.972  24.166  22.551  0.1240  0.3460 -0.2406
46059DOD     C381998  18.437  24.344  22.584 -0.0638 -0.1041 -0.0193
46060DOD     C181999  29.845   9.456  11.039 -0.0622  0.1243 -0.0769
46060DOD     C282000  30.209   9.172  10.853 -0.1739 -0.0747 -0.1711
46060DOD     C382001   0.273   9.153  10.543  0.0397 -0.0886  0.0678
46061DOD     C182002  20.186  24.937  28.406  0.3224 -0.0564 -0.1097
46061DOD     C282003  19.954  24.536  28.152  0.1689  0.1096 -0.1897
46061DOD     C382004  19.773  24.269  27.791 -0.0620  0.0790 -0.2460
46062DOD     C182005  19.541   1.346   6.058 -0.2106  0.1874  0.1280
46062DOD     C282006  19.268   1.297   5.659 -0.0082 -0.0916  0.0820
46062DOD     C382007  19.219   1.377   5.200 -0.0703  0.2941 -0.1961
46063DOD     C182008  18.023  22.433  21.572  0.1815  0.0082  0.0480
46063DOD     C282009  18.086  22.395  21.100  0.2835  0.1217 -0.2795
46063DOD     C382010  17.884  22.720  20.817  0.0829  0.0196 -0.0529
46064DOD     C182011  21.544  21.927  23.306 -0.0587 -0.0164  0.0896
46064DOD     C282012  21.874  21.858  23.662 -0.1138 -0.0349  0.2490
46064DOD     C382013  22.267  21.982  23.854  0.2181 -0.0944 -0.1760
46065DOD     C182014   9.463  13.897  26.036 -0.0348 -0.1032 -0.1199
46065DOD     C282015   9.321  13.929  25.584 -0.1174 -0.1951 -0.0440
46065DOD     C382016   9.205  14.283  25.303 -0.0724 -0.1809  0.1112
46066DOD     C182017  25.348   0.638   6.952  0.0480  0.0135 -0.4350
46066DOD     C282018  25.085   0.233   6.889  0.0800  0.2499 -0.0656
46066DOD     C382019  24.964  30.274   6.608  0.2931 -0.1184  0.3473
46067DOD     C182020  26.092  28.063  14.500 -0.2453  0.2172 -0.1715
46067DOD     C282021  26.327  27.694  14.423 -0.1216  0.3062 -0.0082
46067DOD     C382022  26.361  27.236  14.260  0.1614  0.0198  0.0772
46068DOD     C182023  23.303  29.956  29.005 -0.0771 -0.0550 -0.1199
46068DOD     C282024  23.461   0.073  28.882  0.0227 -0.2141  0.0445
46068DOD     C382025  23.457   0.509  29.089  0.0092 -0.0321  0.2581
46069DOD     C182026  25.325  16.125   4.566 -0.1126  0.0336 -0.1805
46069DOD     C282027  25.682  16.123   4.346  0.0798  0.0969  0.2433
46069DOD     C382028  26.163  16.183   4.403 -0.0907  0.1179  0.0378
46070DOD     C182029  15.278   1.654  18.994  0.0854 -0.0868 -0.1509
46070DOD     C282030  15.650   1.888  18.948 -0.0212 -0.0223  0.0734
46070DOD     C382031  15.901   2.285  18.852 -0.2456 -0.1090  0.1501
46071DOD     C182032   9.478   8.497   2.987 -0.1629  0.1935 -0.0903
46071DOD     C282033   9.591   8.399   2.606  0.0452  0.1186  0.0502
46071DOD     C382034   9.768   8.605   2.216  0.1710  0.2406 -0.0379
46072DOD     C182035  13.694  20.136   1.245 -0.1679 -0.0794 -0.0544
46072DOD     C282036  13.632  20.543   1.051  0.2899  0.0056  0.0162
46072DOD     C382037  13.246  20.806   1.023  0.0732 -0.2990 -0.0900
46073DOD     C182038  27.768  19.339  29.191  0.0494 -0.1255  0.0053
46073DOD     C282039  27.750  18.898  29.167  0.0771  0.2154 -0.0863
46073DOD     C382040  27.897  18.551  29.440 -0.0638  0.0513  0.0896
46074DOD     C182041  23.866  28.167  10.525 -0.1588 -0.3606 -0.2715
46074DOD     C282042  23.949  28.094  10.958  0.1000 -0.0427 -0.2081
46074DOD     C382043  24.099  28.272  11.395 -0.1067  0.0274 -0.0776
46075DOD     C182044   1.098  21.162   3.765 -0.0371  0.1932 -0.2653
46075DOD     C282045   1.314  21.188   3.374  0.1586 -0.0875 -0.0249
46075DOD     C382046   1.550  20.899   3.028 -0.0644  0.2340  0.1051
46076DOD     C182047  22.686   8.795  20.121  0.0001  0.0687  0.0155
46076DOD     C282048  22.755   8.358  19.992 -0.1100  0.0913 -0.1964
46076DOD     C382049  22.916   7.892  19.980  0.0847  0.0640 -0.1476
46077DOD     C182050   4.841  25.157  29.962  0.2464  0.2156  0.0746
46077DOD     C282051   5.063  25.498  29.754  0.1268  0.1109 -0.2339
46077DOD     C382052   5.064  25.951  29.724  0.2805  0.3744 -0.3280
46078DOD     C182053  14.205  17.990  13.132 -0.3821  0.1944 -0.1248
46078DOD     C282054  14.108  17.533  12.978 -0.0663  0.0723  0.2846
46078DOD     C382055  14.265  17.122  13.183  0.2933  0.0915  0.1275
46079DOD     C182056  13.601   0.199   1.694 -0.1379  0.1037 -0.1855
46079DOD     C282057  13.846  30.120   1.672  0.1661  0.0408 -0.0899
46079DOD     C382058  14.002  29.727   1.868 -0.1599  0.1445 -0.3462
46080DOD     C182059   6.891   7.429  25.356 -0.1981  0.0773 -0.0545
46080DOD     C282060   6.602   7.036  25.503  0.0474  0.1137 -0.0381
46080DOD     C382061   6.492   6.626  25.706 -0.1577 -0.0495  0.0370
46081DOD     C182062  16.606   6.217  15.914  0.3208  0.0738 -0.1119
46081DOD     C282063  16.614   6.036  15.519  0.0185 -0.0386  0.0078
46081DOD     C382064  16.786   5.701  15.244 -0.0503  0.0772 -0.0826
46082DOD     C182065  28.588  22.228  10.620 -0.0405  0.2876  0.1068
46082DOD     C282066  28.680  21.756  10.652  0.0460  0.2030  0.2885
46082DOD     C382067  28.861  21.307  10.636 -0.1215 -0.3283 -0.1210
46083DOD     C182068  28.275  24.259  22.854  0.1142 -0.1805  0.1217
46083DOD     C282069  28.568  24.645  22.814 -0.1071 -0.0025  0.0038
46083DOD     C382070  28.621  25.018  23.097  0.1215  0.0434 -0.2486
46084DOD     C182071   8.730  18.481  20.117  0.0178  0.0060  0.1096
46084DOD     C282072   8.446  18.263  20.459 -0.1144  0.1381  0.1012
46084DOD     C382073   8.226  17.833  20.551 -0.1136 -0.1608 -0.1230
46085DOD     C182074  19.920  17.073   7.758  0.2260  0.1283  0.1194
46085DOD     C282075  19.926  17.512   7.892  0.0265 -0.2472 -0.1833
46085DOD     C382076  19.950  17.825   8.277 -0.0862 -0.2008 -0.0221
46086DOD     C182077   9.342   6.162   5.770  0.0819  0.0028 -0.2505
46086DOD     C282078   9.076   5.933   6.037 -0.5591  0.1767  0.0096
46086DOD     C382079   9.091   6.107   6.454 -0.0325 -0.1605  0.2321
46087DOD     C182080  12.311  22.652  25.301 -0.1399  0.2647  0.1596
46087DOD     C282081  11.980  22.443  25.529  0.0109  0.1047 -0.2059
46087DOD     C382082  12.047  21.975  25.551 -0.3535  0.0232  0.0878
46088DOD     C182083  24.016  24.201  23.400 -0.0164 -0.0880 -0.0002
46088DOD     C282084  24.235  24.546  23.160 -0.0316  0.0232  0.1214
46088DOD     C382085  24.058  24.813  22.841 -0.2996  0.0257  0.2144
46089DOD     C182086   6.906  11.363   7.821 -0.0950 -0.0624 -0.4592
46089DOD     C282087   7.356  11.256   7.668 -0.1999 -0.2021 -0.0935
46089DOD     C382088   7.762  11.036   7.737  0.0043 -0.1218 -0.0604
46090DOD     C182089  20.523  17.760  22.831 -0.1512 -0.0151  0.1269
46090DOD     C282090  20.093  17.907  22.662  0.0458 -0.0155 -0.0688
46090DOD     C382091  19.767  18.049  22.448  0.1709 -0.2091 -0.1548
46091DOD     C182092   6.058  28.100  25.627 -0.0554 -0.2189 -0.1195
46091DOD     C282093   5.859  27.669  25.721 -0.0802  0.3510  0.1253
46091DOD     C382094   5.458  27.450  25.792  0.0697 -0.1059 -0.0008
46092DOD     C182095  17.107  18.308  12.453  0.0304  0.0465  0.0101
46092DOD     C282096  17.004  18.765  12.594  0.1007  0.1865  0.3177
46092DOD     C382097  16.966  19.180  12.746 -0.0240 -0.3773  0.1231
46093DOD     C182098  22.842  19.800  12.230  0.1158 -0.0407 -0.0439
46093DOD     C282099  23.010  19.759  12.671  0.1529  0.0523 -0.0269
46093DOD     C382100  22.868  19.413  13.015 -0.1856  0.0059  0.1063
46094DOD     C182101  21.189   1.807  11.250 -0.4515 -0.0334  0.1673
46094DOD     C282102  21.013   2.001  10.854  0.1545 -0.0428 -0.2447
46094DOD     C382103  20.963   2.369  10.632  0.1398  0.0485 -0.0300
46095DOD     C182104  18.457   3.069  26.321 -0.1111 -0.0776  0.1328
46095DOD     C282105  18.741   2.680  26.468  0.0792 -0.2036 -0.1262
46095DOD     C382106  18.899   2.233  26.515 -0.0846  0.0771  0.1053
46096DOD     C182107  10.105   5.878   8.568 -0.0931  0.0889 -0.1091
46096DOD     C282108   9.876   6.205   8.313 -0.1922 -0.0812 -0.1703
46096DOD     C382109   9.738   6.590   8.197 -0.1166 -0.1095 -0.2576
46097DOD     C182110  12.658  22.531   4.263  0.2448  0.0848 -0.0931
46097DOD     C282111  12.552  22.336   4.671 -0.0898  0.0714 -0.0821
46097DOD     C382112  12.590  21.880   4.889 -0.0302  0.4030 -0.4016
46098DOD     C182113  23.127  22.357   7.259 -0.3361 -0.1395 -0.1431
46098DOD     C282114  22.886  22.487   6.916 -0.1437 -0.1261 -0.0452
46098DOD     C382115  22.702  22.390   6.465  0.3123 -0.0269  0.1718
46099DOD     C182116  18.856   8.056  27.408  0.2120 -0.2890  0.0905
46099DOD     C282117  18.859   8.163  26.909 -0.0032  0.3716 -0.1497
46099DOD     C382118  19.206   8.316  26.607 -0.1093  0.0604  0.2113
46100DOD     C182119  26.147   6.077  26.861 -0.1950 -0.0685  0.1125
46100DOD     C282120  26.571   6.244  26.982 -0.1269 -0.2021  0.1970
46100DOD     C382121  27.060   6.093  26.980  0.5236  0.3373  0.3143
46101DOD     C182122  14.840  28.726  21.701 -0.0618 -0.2690 -0.0168
46101DOD     C282123  14.558  28.788  21.340  0.1071 -0.3337 -0.0835
46101DOD     C382124  14.586  28.524  20.931  0.0198 -0.5365 -0.1966
46102DOD     C182125   1.254   4.892  17.643  0.0122  0.0557  0.1206
46102DOD     C282126   1.273   4.998  17.144  0.0052  0.0294 -0.1288
46102DOD     C382127   1.308   5.285  16.761 -0.0868  0.0286 -0.1147
46103DOD     C182128  27.936  12.292   7.809 -0.0126  0.0754  0.0914
46103DOD     C282129  27.485  12.361   7.631 -0.1411 -0.1730  0.0485
46103DOD     C382130  27.020  12.437   7.684  0.1480 -0.1705  0.1619
46104DOD     C182131  14.050   8.427   0.758  0.0799 -0.2094  0.3490
46104DOD     C282132  14.363   8.679   0.780 -0.0843  0.0247 -0.1084
46104DOD     C382133  14.788   8.745   0.815  0.0433 -0.2267 -0.0018
46105DOD     C182134  27.782  11.070  15.710 -0.1908  0.0602  0.2440
46105DOD     C282135  27.482  11.379  15.487 -0.0969  0.0418  0.0899
46105DOD     C382136  27.267  11.341  15.048 -0.0060 -0.0234  0.0777
46106DOD     C182137  25.926  24.930   8.425 -0.2298  0.0412 -0.0867
46106DOD     C282138  25.448  25.000   8.362  0.2755  0.1045  0.1189
46106DOD     C382139  25.173  25.306   8.270  0.1965 -0.0814 -0.2939
46107DOD     C182140  12.585  15.886   1.557 -0.0878  0.0289 -0.0590
46107DOD     C282141  12.186  16.159   1.636 -0.1311  0.0456  0.0349
46107DOD     C382142  11.708  16.241   1.639 -0.1820 -0.2610 -0.2065
46108DOD     C182143  12.208   4.028   9.260 -0.0803  0.1602 -0.2247
46108DOD     C282144  12.339   3.795   9.691 -0.0743 -0.0356  0.0245
46108DOD     C382145  12.052   3.580  10.001  0.0156  0.2567 -0.4225
46109DOD     C182146  24.896  22.876  24.177 -0.1687 -0.1525 -0.0841
46109DOD     C282147  24.524  23.103  24.196 -0.1658  0.1264  0.2173
46109DOD     C382148  24.128  23.117  24.469  0.2896  0.2212 -0.0436
46110DOD     C182149  21.152   0.371  17.291 -0.2478  0.0647 -0.1344
46110DOD     C282150  20.814   0.119  17.078  0.1374 -0.0234  0.0025
46110DOD     C382151  20.351   0.148  16.984 -0.1938  0.0069  0.0201
46111DOD     C182152   4.024   0.993  23.812 -0.0408 -0.0887  0.0181
46111DOD     C282153   3.981   1.355  23.511  0.0519  0.4174 -0.1259
46111DOD     C382154   4.292   1.617  23.289 -0.0028 -0.2537  0.2990
46112DOD     C182155   9.567  14.114   9.723  0.2094  0.2340 -0.2379
46112DOD     C282156   9.648  13.716   9.900 -0.0696  0.2672 -0.2213
46112DOD     C382157   9.684  13.244  10.094  0.2188  0.2383  0.0898
46113DOD     C182158  19.402  13.604  25.590  0.4590 -0.0849  0.0809
46113DOD     C282159  19.394  13.782  25.175  0.0118  0.1000 -0.0172
46113DOD     C382160  19.647  13.742  24.787  0.3935 -0.2488 -0.0552
46114DOD     C182161  23.808  23.436  22.253 -0.4208 -0.0060  0.1382
46114DOD     C282162  23.715  23.904  22.404  0.2351 -0.1700  0.3622
46114DOD     C382163  23.627  24.343  22.294 -0.2645 -0.0639  0.0867
46115DOD     C182164   3.638  14.374   5.009 -0.1480 -0.1071  0.1779
46115DOD     C282165   3.956  14.160   5.286  0.0833  0.1091 -0.2443
46115DOD     C382166   4.032  13.925   5.701  0.3306  0.0914  0.0486
46116DOD     C182167  25.709  26.987  17.893  0.1654  0.1505 -0.1975
46116DOD     C282168  25.392  26.897  17.529  0.0975 -0.1038 -0.0444
46116DOD     C382169  25.181  27.178  17.197  0.0126 -0.0529  0.1378
46117DOD     C182170   7.555   7.403   1.227  0.0358  0.2069 -0.1408
46117DOD     C282171   7.421   7.020   0.921  0.2985  0.2305  0.1330
46117DOD     C382172   7.409   6.871   0.472 -0.1690  0.0378  0.0122
46118DOD     C182173  29.312  19.640  15.369  0.0544 -0.2746  0.2120
46118DOD     C282174  29.401  19.287  15.154 -0.0402  0.1402  0.0682
46118DOD     C382175  29.663  19.083  14.903  0.1724 -0.0562 -0.0727
46119DOD     C182176  29.261  17.315   7.332 -0.0704  0.1308 -0.1434
46119DOD     C282177  29.160  17.738   7.203  0.2500  0.1215  0.0626
46119DOD     C382178  29.025  18.158   7.297  0.1926 -0.2936  0.2984
46120DOD     C182179   2.547   4.277  15.702 -0.0534  0.2250 -0.1193
46120DOD     C282180   2.493   4.031  15.299  0.0599 -0.2421 -0.3257
46120DOD     C382181   2.417   3.669  15.032 -0.0900  0.0501 -0.0812
46121DOD     C182182  24.223  29.976  20.631  0.1966  0.0724  0.0141
46121DOD     C282183  23.999  29.617  20.815 -0.1399  0.2891  0.0167
46121DOD     C382184  23.914  29.212  20.591  0.0400 -0.3800  0.0337
46122DOD     C182185   6.396  27.443  10.610  0.0013 -0.0521 -0.2521
46122DOD     C282186   6.555  27.118  10.313  0.0981  0.2001 -0.2160
46122DOD     C382187   6.842  26.744  10.205  0.2295  0.0423  0.1590
46123DOD     C182188  15.576  30.159   5.142  0.0811 -0.0674  0.1135
46123DOD     C282189  15.983  30.153   5.334 -0.0657 -0.0463  0.1230
46123DOD     C382190  16.357  29.945   5.161 -0.0643  0.0248  0.2955
46124DOD     C182191  26.415  12.980   7.537  0.0558 -0.4499 -0.0167
46124DOD     C282192  26.137  13.322   7.374 -0.1801  0.1647  0.0003
46124DOD     C382193  25.668  13.373   7.411  0.1878 -0.1480  0.2264
46125DOD     C182194  17.880   5.995  18.522 -0.2484 -0.0023  0.0829
46125DOD     C282195  18.327   6.214  18.668  0.0840  0.1394  0.4142
46125DOD     C382196  18.516   6.415  19.034 -0.2361  0.0034  0.2787
46126DOD     C182197  26.255  20.417  29.840 -0.0575  0.0667  0.2632
46126DOD     C282198  26.099  20.730  30.117 -0.0068  0.0551 -0.1177
46126DOD     C382199  25.767  20.733   0.099  0.0115 -0.2400  0.0286
46127DOD     C182200  21.325  11.836  21.091  0.0987 -0.2421  0.2428
46127DOD     C282201  21.744  11.670  21.300 -0.1585  0.0046  0.0065
46127DOD     C382202  21.983  11.359  21.625 -0.1416  0.2074  0.1003
46128DOD     C182203  10.060  18.696  22.737 -0.0407  0.0734 -0.2955
46128DOD     C282204  10.494  18.732  22.550 -0.0147  0.1657 -0.1822
46128DOD     C382205  10.940  18.619  22.435  0.1418  0.0292 -0.1069
46129DOD     C182206   2.860  19.232  14.325 -0.1221  0.0822  0.0555
46129DOD     C282207   2.484  19.369  14.121  0.0966  0.0836 -0.1288
46129DOD     C382208   2.051  19.458  14.272 -0.1082 -0.0490 -0.1754
46130DOD     C182209  20.629   1.444  11.487 -0.0069  0.0770 -0.3162
46130DOD     C282210  21.016   1.237  11.694 -0.0119 -0.1209  0.0535
46130DOD     C382211  21.169   0.841  11.928 -0.3124  0.2303  0.1188
46131DOD     C182212  25.589  18.676   5.486 -0.0189 -0.0349 -0.0210
46131DOD     C282213  25.142  18.483   5.563 -0.2415  0.1057  0.4861
46131DOD     C382214  24.697  18.388   5.504  0.1742  0.1977  0.1153
46132DOD     C182215  26.069  12.925   0.748  0.4165  0.1785 -0.0274
46132DOD     C282216  25.614  12.970   0.519  0.0123  0.2359 -0.2968
46132DOD     C382217  25.292  13.218   0.302 -0.4739 -0.0229  0.1327
46133DOD     C182218   1.431  17.458   2.384  0.1180  0.2511 -0.2400
46133DOD     C282219   1.156  17.427   2.754 -0.2021  0.0775  0.0952
46133DOD     C382220   1.206  17.278   3.156 -0.0231 -0.3224 -0.0510
46134DOD     C182221  24.721  19.591  20.920 -0.1440  0.4485  0.1242
46134DOD     C282222  24.439  19.903  21.104  0.1150  0.0583 -0.0655
46134DOD     C382223  24.142  20.267  21.163 -0.0984 -0.1797 -0.0226
46135DOD     C182224  27.435  17.202  29.275  0.0320  0.1563 -0.0665
46135DOD     C282225  27.459  16.789  29.516 -0.1536 -0.0240  0.2382
46135DOD     C382226  27.409  16.444  29.797  0.0804  0.0692  0.1343
46136DOD     C182227   9.248   8.601  13.916 -0.4891  0.0686 -0.1064
46136DOD     C282228   8.831   8.529  13.791 -0.0550 -0.6388 -0.1375
46136DOD     C382229   8.763   8.268  13.446  0.3716  0.2527 -0.0245
46137DOD     C182230   1.090  12.388  12.488 -0.0496  0.2572  0.0017
46137DOD     C282231   1.274  12.713  12.768  0.3577  0.2061  0.4800
46137DOD     C382232   1.478  13.056  12.997 -0.3137  0.1004 -0.1431
46138DOD     C182233   3.237   9.451   6.690  0.2120 -0.1718 -0.1541
46138DOD     C282234   2.884   9.763   6.688 -0.0311  0.1393  0.1000
46138DOD     C382235   2.558   9.787   7.055  0.1607 -0.2296  0.2138
46139DOD     C182236  11.713  28.361   0.970  0.2092  0.1749  0.2014
46139DOD     C282237  11.575  28.697   1.262  0.1026  0.0882 -0.1818
46139DOD     C382238  11.293  29.039   1.519  0.1392 -0.2220 -0.1221
46140DOD     C182239   0.154  16.521  28.263  0.1184 -0.0145 -0.0906
46140DOD     C282240   0.098  16.566  28.761  0.2275 -0.1108  0.0130
46140DOD     C382241  30.102  16.533  29.090 -0.0534 -0.0488  0.1031
46141DOD     C182242   1.701  30.160  26.238 -0.2217  0.0356 -0.1196
46141DOD     C282243   1.315  30.189  25.954 -0.0395 -0.0251  0.0138
46141DOD     C382244   0.919  29.994  25.759 -0.2955 -0.1663  0.2745
46142DOD     C182245   2.758   6.245   3.868 -0.1443 -0.3756  0.1079
46142DOD     C282246   2.436   6.037   3.637 -0.1862 -0.3612 -0.3339
46142DOD     C382247   2.349   5.766   3.267  0.4815  0.0070 -0.2296
46143DOD     C182248  13.948   9.198  22.997 -0.3035  0.0042  0.0701
46143DOD     C282249  13.708   8.880  22.814 -0.2626 -0.1659  0.2098
46143DOD     C382250  13.648   8.355  22.743  0.0931  0.0852  0.0023
46144DOD     C182251  10.813  19.332  29.581  0.3894  0.0199 -0.0941
46144DOD     C282252  10.853  19.755  29.421  0.2174  0.0351  0.0872
46144DOD     C382253  10.723  20.151  29.106 -0.2057 -0.0019  0.0438
46145DOD     C182254  29.182  11.967  21.228  0.1680 -0.0879 -0.0408
46145DOD     C282255  28.733  11.752  21.202 -0.2054 -0.0317 -0.2063
46145DOD     C382256  28.499  11.707  21.586 -0.0943  0.1077  0.4191
46146DOD     C182257  30.209  17.415  10.926 -0.2151 -0.1325  0.1192
46146DOD     C282258   0.095  17.856  11.004 -0.1067 -0.1161  0.0997
46146DOD     C382259   0.526  17.889  10.917  0.1597 -0.0422 -0.0813
46147DOD     C182260  29.236  25.277  15.916  0.1386  0.0330  0.1574
46147DOD     C282261  29.305  25.119  16.369  0.1379  0.1092 -0.1473
46147DOD     C382262  29.258  24.764  16.630 -0.0292  0.0775 -0.0431
46148DOD     C182263   2.701  14.509   6.538  0.0995  0.2724  0.0411
46148DOD     C282264   2.990  14.104   6.473 -0.1954 -0.0146  0.3739
46148DOD     C382265   2.974  13.706   6.193 -0.1776 -0.0918 -0.0597
46149DOD     C182266  22.780  14.394  27.657 -0.3999 -0.1485  0.0109
46149DOD     C282267  22.407  14.281  27.362 -0.0754  0.0116  0.1794
46149DOD     C382268  22.322  14.289  26.899 -0.1266  0.1880  0.0403
46150DOD     C182269  23.290  11.977  16.585 -0.0355  0.3021 -0.0999
46150DOD     C282270  23.059  11.646  16.273 -0.1008  0.2827  0.1156
46150DOD     C382271  22.696  11.766  15.970  0.1690 -0.0564  0.4129
46151DOD     C182272  11.731   8.593   4.999 -0.1762 -0.1414 -0.3043
46151DOD     C282273  11.961   8.340   5.266  0.1722  0.1137  0.0724
46151DOD     C382274  12.339   8.145   5.127 -0.0247  0.3396  0.3106
46152DOD     C182275   5.112  13.136  29.371 -0.1254 -0.0382  0.4153
46152DOD     C282276   4.942  12.909  29.731 -0.3291  0.3206 -0.0765
46152DOD     C382277   4.843  12.479  29.879  0.4063  0.0727 -0.0622
46153DOD     C182278   2.881   7.733  14.830 -0.1268 -0.0785  0.3295
46153DOD     C282279   3.327   7.783  14.912  0.1937 -0.0547 -0.1319
46153DOD     C382280   3.671   7.513  15.086  0.0937  0.0435  0.4082
46154DOD     C182281  25.414  12.682  28.929 -0.1495 -0.0735 -0.0079
46154DOD     C282282  25.700  12.474  29.216 -0.4062  0.0985  0.2353
46154DOD     C382283  25.866  12.080  29.511 -0.0280  0.1568  0.0704
46155DOD     C182284  29.592   2.011  24.230 -0.1774 -0.3125 -0.2674
46155DOD     C282285  29.231   1.804  24.441  0.1962 -0.1304  0.0670
46155DOD     C382286  28.915   1.961  24.805  0.2916  0.1571  0.0171
46156DOD     C182287  26.757  18.138  26.291  0.2170  0.1268 -0.0694
46156DOD     C282288  27.184  18.174  26.498 -0.2188  0.0672  0.1624
46156DOD     C382289  27.501  18.446  26.776  0.0342  0.1359  0.1386
46157DOD     C182290  19.536  28.177  18.469  0.2759  0.3090 -0.2178
46157DOD     C282291  19.745  28.295  18.840 -0.2458  0.0364  0.1330
46157DOD     C382292  20.091  28.625  18.964  0.3578 -0.1098 -0.1190
46158DOD     C182293  10.238  17.433  10.204 -0.3143 -0.1339 -0.1106
46158DOD     C282294   9.860  17.303  10.012 -0.0530  0.1960 -0.2314
46158DOD     C382295   9.455  17.293  10.217 -0.2463 -0.0353 -0.0545
46159DOD     C182296  19.271  21.392  11.675  0.0372  0.2328 -0.1166
46159DOD     C282297  19.424  21.001  11.447  0.0770 -0.0896 -0.0213
46159DOD     C382298  19.607  20.674  11.134 -0.1621  0.0508 -0.1047
46160DOD     C182299  27.422  12.107  25.934  0.0240  0.1760 -0.0913
46160DOD     C282300  27.880  11.964  25.897 -0.2507 -0.1590  0.1433
46160DOD     C382301  28.321  12.006  26.031  0.0984  0.2416  0.1779
46161DOD     C182302   3.588  24.268  22.728  0.1764 -0.1650 -0.1831
46161DOD     C282303   3.789  24.450  23.138 -0.1091 -0.1364 -0.0277
46161DOD     C382304   4.059  24.522  23.526  0.0835 -0.1471 -0.1125
46162DOD     C182305  13.039  22.571  14.078  0.1645  0.0976 -0.1443
46162DOD     C282306  12.563  22.684  14.191  0.0092 -0.0760  0.0450
46162DOD     C382307  12.130  22.735  13.983  0.2595  0.0080  0.0787
46163DOD     C182308  22.731  18.351   6.563 -0.0157  0.1616  0.2209
46163DOD     C282309  22.571  18.158   6.192 -0.0284 -0.1236  0.2105
46163DOD     C382310  22.208  17.895   6.043 -0.2041 -0.2419  0.2501
46164DOD     C182311  25.804  18.946   1.455  0.3344 -0.1389 -0.0287
46164DOD     C282312  25.755  18.698   1.866 -0.2281 -0.0358  0.0233
46164DOD     C382313  26.028  18.560   2.235 -0.2580  0.0929 -0.2179
46165DOD     C182314  17.177   9.502  12.571 -0.3100 -0.1905 -0.1044
46165DOD     C282315  16.823   9.673  12.323 -0.1521  0.2249 -0.1926
46165DOD     C382316  16.407   9.638  12.127 -0.2837 -0.4175  0.1504
46166DOD     C182317   1.255  28.720  20.819 -0.0748  0.0894 -0.4204
46166DOD     C282318   1.365  29.133  20.514 -0.0319 -0.2708 -0.0189
46166DOD     C382319   1.449  29.559  20.402  0.0701 -0.0603  0.1343
46167DOD     C182320  29.399  29.083   4.194  0.1174  0.0434  0.1022
46167DOD     C282321  29.172  28.757   4.450 -0.2222  0.0304 -0.1988
46167DOD     C382322  28.776  28.614   4.762  0.1546  0.0833  0.1612
46168DOD     C182323   2.249   1.871  22.871 -0.0398  0.1228 -0.0869
46168DOD     C282324   2.729   1.701  22.979 -0.3089 -0.0807  0.0120
46168DOD     C382325   3.072   1.953  23.232 -0.0021 -0.1230 -0.1264
46169DOD     C182326   0.452   1.623  16.731  0.1600  0.0514 -0.0527
46169DOD     C282327   0.337   2.052  16.764 -0.2012  0.0365  0.0657
46169DOD     C382328  30.342   2.364  16.741  0.2218  0.0133  0.0289
46170DOD     C182329  27.453  22.485  13.619  0.1709 -0.0222 -0.0998
46170DOD     C282330  27.022  22.249  13.654 -0.0832  0.0797  0.1983
46170DOD     C382331  26.636  22.149  13.664 -0.0854  0.1439 -0.4386
46171DOD     C182332  14.024   6.371   2.015  0.1087 -0.1579 -0.1956
46171DOD     C282333  14.417   6.162   2.047  0.0998 -0.0549 -0.0267
46171DOD     C382334  14.865   6.108   1.955 -0.0032 -0.3425  0.1667
46172DOD     C182335  29.864   6.178  29.788  0.0997 -0.1850 -0.0372
46172DOD     C282336  29.570   6.107  29.419 -0.1814  0.2196 -0.3554
46172DOD     C382337  29.570   5.942  28.954 -0.0105  0.0685  0.2059
46173DOD     C182338   6.202  23.613  25.234  0.2474  0.0036  0.0642
46173DOD     C282339   5.857  23.444  24.907  0.2371 -0.1569  0.0440
46173DOD     C382340   5.411  23.421  24.841  0.3930 -0.0099 -0.0887
46174DOD     C182341   2.728  30.161  12.553  0.0578 -0.0132 -0.0193
46174DOD     C282342   3.181  -0.012  12.414 -0.2409 -0.0521 -0.1114
46174DOD     C382343   3.552   0.200  12.229 -0.4349 -0.1653  0.2200
46175DOD     C182344  20.979  10.362  25.843 -0.2601  0.0326  0.0649
46175DOD     C282345  21.350  10.400  26.096 -0.0670  0.0249 -0.0656
46175DOD     C382346  21.647  10.447  26.397  0.0881  0.1497 -0.0662
46176DOD     C182347   3.043  13.354  11.907  0.1201 -0.1094  0.0542
46176DOD     C282348   2.604  13.187  12.114 -0.1633 -0.5594 -0.1284
46176DOD     C382349   2.470  13.007  12.447  0.2273 -0.1572  0.4785
46177DOD     C182350  22.832   7.102   4.140 -0.1203  0.0034 -0.3292
46177DOD     C282351  23.066   6.839   4.422 -0.1615  0.0768  0.0163
46177DOD     C382352  23.164   6.697   4.867  0.1060  0.1157 -0.0737
46178DOD     C182353   6.718   7.916  25.385  0.0462  0.1370 -0.3026
46178DOD     C282354   7.210   7.861  25.420 -0.3594 -0.1514  0.1622
46178DOD     C382355   7.441   7.490  25.316 -0.2037  0.0111  0.0436
46179DOD     C182356  28.552  10.984  13.925  0.2341 -0.2476 -0.1397
46179DOD     C282357  28.810  10.876  13.595 -0.3468 -0.0482  0.3846
46179DOD     C382358  29.042  10.684  13.219 -0.0271 -0.5228 -0.1170
46180DOD     C182359  17.885  19.749   0.661  0.0726  0.2748  0.0866
46180DOD     C282360  18.040  19.821   1.124  0.0394 -0.2599  0.1862
46180DOD     C382361  18.124  20.138   1.416  0.1541  0.0331 -0.1285
46181DOD     C182362   2.170  28.248  20.258  0.0052 -0.0140  0.0500
46181DOD     C282363   1.662  28.151  20.233  0.1411 -0.0431  0.1538
46181DOD     C382364   1.373  27.808  20.364 -0.2156  0.1707  0.1296
46182DOD     C182365  19.181  18.720  29.632  0.3061 -0.0212  0.1925
46182DOD     C282366  18.976  18.812  29.204 -0.0734 -0.0001 -0.0387
46182DOD     C382367  18.595  18.875  28.996 -0.1076  0.2736  0.0888
46183DOD     C182368  12.024   0.163   0.440  0.0475 -0.1796  0.1745
46183DOD     C282369  11.594   0.119   0.477  0.0827 -0.0135  0.1348
46183DOD     C382370  11.135  30.306   0.617 -0.1734 -0.1737  0.1111
46184DOD     C182371  24.965  25.759  24.284  0.1591 -0.0345  0.1962
46184DOD     C282372  24.592  25.925  23.980 -0.0601  0.2068 -0.3453
46184DOD     C382373  24.285  26.280  23.828 -0.4412  0.0610  0.0810
46185DOD     C182374  25.392   5.731   9.733 -0.0872 -0.4028 -0.0495
46185DOD     C282375  25.140   5.374   9.922 -0.0479  0.1286  0.1051
46185DOD     C382376  24.889   4.976   9.799 -0.1057  0.0858  0.2642
46186DOD     C182377  25.367  26.513  13.492 -0.1723  0.0598 -0.0265
46186DOD     C282378  25.157  26.752  13.159 -0.0004  0.2814  0.3265
46186DOD     C382379  25.280  27.203  13.095  0.0547  0.1048  0.0217
46187DOD     C182380  28.766  27.338   7.418 -0.3227  0.0337  0.0440
46187DOD     C282381  28.924  26.947   7.620 -0.2587  0.2113 -0.1876
46187DOD     C382382  29.101  26.544   7.670  0.2383 -0.2051 -0.0545
46188DOD     C182383  26.975  10.965  23.324 -0.0722 -0.0179 -0.1084
46188DOD     C282384  26.645  11.318  23.131  0.0706  0.1414  0.1318
46188DOD     C382385  26.381  11.172  22.765  0.0994  0.0538  0.1083
46189DOD     C182386  23.455  13.609   6.560 -0.0350 -0.2503  0.0803
46189DOD     C282387  23.159  13.349   6.670 -0.0787  0.0871 -0.1151
46189DOD     C382388  22.900  12.963   6.668 -0.0889 -0.1731  0.0454
46190DOD     C182389  17.919   2.559  27.533  0.0615  0.3685 -0.1564
46190DOD     C282390  18.345   2.764  27.680 -0.1767  0.0363 -0.0333
46190DOD     C382391  18.386   3.169  27.832 -0.4830  0.2269 -0.4627
46191DOD     C182392  13.986  27.364   1.620  0.3197 -0.0256  0.0697
46191DOD     C282393  13.724  27.252   1.941  0.0764 -0.0442 -0.1147
46191DOD     C382394  13.812  27.006   2.317 -0.1877 -0.1497  0.0323
46192DOD     C182395  25.791   7.472  23.845 -0.1660  0.1121  0.2136
46192DOD     C282396  25.532   7.231  24.130 -0.3446 -0.5313 -0.1026
46192DOD     C382397  25.484   6.757  24.246 -0.0340 -0.1686  0.3253
46193DOD     C182398   9.425  26.530   9.989  0.0031  0.1816  0.1229
46193DOD     C282399   9.527  26.380  10.399  0.0448  0.2176  0.1827
46193DOD     C382400   9.505  26.472  10.830 -0.0024 -0.0855 -0.2105
46194DOD     C182401  21.014  22.279  28.265  0.0802 -0.0612 -0.0302
46194DOD     C282402  20.924  22.172  27.826  0.2087  0.1310 -0.0365
46194DOD     C382403  21.062  22.045  27.377 -0.0309  0.1494  0.0978
46195DOD     C182404  17.058  16.510  10.674  0.0212  0.1550  0.3844
46195DOD     C282405  16.793  16.477  10.315 -0.2283 -0.1177 -0.0655
46195DOD     C382406  16.752  16.457   9.808 -0.1641 -0.3730 -0.1703
46196DOD     C182407   6.151  13.728   8.971 -0.2152  0.1695 -0.0289
46196DOD     C282408   6.307  14.132   9.155  0.0164  0.0554 -0.0478
46196DOD     C382409   6.655  14.409   8.928  0.0676  0.2121  0.1585
46197DOD     C182410   2.901  29.567   4.842 -0.1187  0.4162  0.0068
46197DOD     C282411   2.973  29.779   5.260  0.1090  0.0361 -0.0030
46197DOD     C382412   2.833  30.057   5.615 -0.1606 -0.2748  0.0465
46198DOD     C182413  16.605  16.181  26.849 -0.1062  0.1660  0.2333
46198DOD     C282414  16.525  16.175  27.342  0.0154 -0.4888 -0.0234
46198DOD     C382415  16.151  16.215  27.671 -0.3584  0.2462  0.0951
46199DOD     C182416  21.810  24.259   6.308 -0.2439 -0.2566  0.0017
46199DOD     C282417  21.452  24.412   6.038 -0.2768 -0.0977 -0.0872
46199DOD     C382418  21.327  24.797   5.883  0.0026 -0.3020 -0.0651
46200DOD     C182419   9.050  18.551   5.700 -0.4067 -0.0324 -0.1931
46200DOD     C282420   8.850  18.533   5.306 -0.3393  0.0038  0.1787
46200DOD     C382421   8.520  18.434   5.038  0.1434  0.1172 -0.0435
46201DOD     C182422  24.902  24.702  26.913 -0.1969 -0.2677  0.2179
46201DOD     C282423  25.196  24.873  26.620 -0.2006  0.0902  0.1314
46201DOD     C382424  25.636  25.099  26.653  0.1309  0.1075 -0.3453
46202DOD     C182425  10.656  28.248  21.133 -0.2280 -0.4139  0.3857
46202DOD     C282426  11.037  28.268  20.828  0.0318 -0.0088 -0.1950
46202DOD     C382427  11.401  27.961  20.660  0.4150  0.1917  0.1873
46203DOD     C182428  22.427  25.609   3.552  0.3196  0.0781  0.0379
46203DOD     C282429  22.821  25.862   3.575 -0.0298 -0.1359 -0.2158
46203DOD     C382430  23.324  25.921   3.640 -0.2088 -0.0974  0.3035
46204DOD     C182431  26.038  13.883  18.883 -0.0087 -0.0217 -0.0174
46204DOD     C282432  25.889  13.450  18.805  0.1206 -0.1485 -0.1372
46204DOD     C382433  25.730  13.064  18.690 -0.1633 -0.0287 -0.0656
46205DOD     C182434   6.708  17.500   7.584 -0.2702  0.0823  0.3036
46205DOD     C282435   6.449  17.504   7.175 -0.1242  0.1369  0.1855
46205DOD     C382436   6.502  17.188   6.783  0.0039 -0.1281 -0.0742
46206DOD     C182437   2.872  16.632  18.299  0.1079 -0.0226 -0.1768
46206DOD     C282438   3.150  16.514  18.678 -0.0362  0.1507 -0.0137
46206DOD     C382439   3.402  16.742  19.039  0.1779  0.0985  0.0501
46207DOD     C182440  12.786  23.183  12.013 -0.0148 -0.0585  0.1237
46207DOD     C282441  12.549  22.735  11.975 -0.3071  0.0709 -0.1756
46207DOD     C382442  12.364  22.305  11.950  0.0760  0.2181  0.1030
46208DOD     C182443  18.820   5.244  12.435  0.0958  0.4086 -0.0962
46208DOD     C282444  19.059   5.342  12.042  0.1901 -0.0490  0.1691
46208DOD     C382445  19.367   5.614  11.884 -0.0328 -0.4134 -0.1841
46209DOD     C182446  24.842   1.694  29.174 -0.0025 -0.0958  0.5302
46209DOD     C282447  24.808   1.200  29.148 -0.0940  0.2207 -0.2510
46209DOD     C382448  24.723   0.798  29.149  0.0969  0.1309 -0.1400
46210DOD     C182449   5.998   1.716  19.750  0.3125 -0.0768  0.2917
46210DOD     C282450   5.901   2.190  19.879  0.4941 -0.0028 -0.3252
46210DOD     C382451   5.761   2.489  19.510  0.0617  0.2816 -0.0421
46211DOD     C182452   5.238   5.544   9.051  0.2189 -0.2320  0.0416
46211DOD     C282453   4.848   5.695   8.898  0.1065  0.1506 -0.0659
46211DOD     C382454   4.717   6.151   8.841 -0.2223  0.2391  0.0389
46212DOD     C182455  22.058  29.527   8.875  0.2813 -0.3099 -0.3406
46212DOD     C282456  21.750  29.752   9.162  0.0741 -0.0992 -0.2280
46212DOD     C382457  21.378  29.890   9.510  0.1480 -0.0870 -0.0033
46213DOD     C182458  11.998   6.989  30.196 -0.0572  0.1265  0.1992
46213DOD     C282459  11.659   7.017  29.939 -0.1456  0.2954  0.2414
46213DOD     C382460  11.804   7.066  29.513  0.3464  0.0407  0.0591
46214DOD     C182461  25.011  22.568  20.886 -0.1286 -0.3569  0.2027
46214DOD     C282462  24.911  22.238  21.209 -0.1530  0.0034 -0.2138
46214DOD     C382463  24.888  22.209  21.684  0.1803 -0.1595 -0.0692
46215DOD     C182464  28.866   6.153  24.092 -0.0384  0.1156  0.1469
46215DOD     C282465  28.987   6.083  23.669 -0.0792  0.0623 -0.1395
46215DOD     C382466  29.072   5.858  23.242  0.0532 -0.1507 -0.1399
46216DOD     C182467  10.594   2.174  23.495 -0.0078 -0.2188 -0.3387
46216DOD     C282468  10.979   1.893  23.707  0.1662 -0.0004  0.2054
46216DOD     C382469  11.306   1.632  23.861 -0.1342  0.2202 -0.0339
46217DOD     C182470  27.810  22.955  22.950  0.0769  0.0217 -0.0921
46217DOD     C282471  27.730  23.133  23.305 -0.2206 -0.1514  0.0918
46217DOD     C382472  27.737  23.211  23.780  0.1457  0.1930  0.2522
46218DOD     C182473  25.353   2.277  22.019 -0.0631 -0.2147  0.1561
46218DOD     C282474  25.570   2.415  22.435 -0.2136 -0.3400 -0.1653
46218DOD     C382475  25.665   2.276  22.894  0.1636  0.0970  0.2483
46219DOD     C182476  28.104   0.552  23.244 -0.3992  0.0859  0.0512
46219DOD     C282477  28.574   0.562  23.219 -0.2665  0.0498  0.0365
46219DOD     C382478  28.915   0.785  22.980  0.1577 -0.0926  0.3986
46220DOD     C182479  19.555  28.466  12.437 -0.1781  0.0641 -0.0307
46220DOD     C282480  19.266  28.700  12.686  0.1989  0.0553 -0.2379
46220DOD     C382481  18.793  28.712  12.801  0.2146  0.0733 -0.2010
46221DOD     C182482  18.748  16.543  11.828  0.0651 -0.0979  0.1250
46221DOD     C282483  18.647  16.566  11.338  0.1798 -0.0947  0.2468
46221DOD     C382484  18.413  16.786  11.006 -0.1295 -0.0822  0.1405
46222DOD     C182485  26.543  24.532  12.211  0.2384  0.0344 -0.1426
46222DOD     C282486  26.836  24.798  12.482 -0.0573 -0.4788  0.1861
46222DOD     C382487  26.846  25.283  12.470 -0.0541  0.0983 -0.4735
46223DOD     C182488  25.310  24.386   5.463  0.1182 -0.0150 -0.0756
46223DOD     C282489  25.030  24.105   5.238 -0.1673 -0.1495 -0.0753
46223DOD     C382490  24.569  24.077   5.297  0.4976  0.0276  0.3110
46224DOD     C182491  27.936   3.338   5.078  0.1494 -0.1038 -0.3374
46224DOD     C282492  27.537   3.129   4.985  0.3085  0.0783 -0.0413
46224DOD     C382493  27.365   2.884   4.607 -0.0769  0.4144  0.1652
46225DOD     C182494  25.669  12.562  28.327 -0.2108  0.2130  0.2626
46225DOD     C282495  25.438  12.948  28.143  0.0591 -0.1620 -0.0894
46225DOD     C382496  25.318  13.399  28.083  0.0466 -0.1595 -0.2077
46226DOD     C182497   9.717   2.957  11.851 -0.2236 -0.0389  0.0653
46226DOD     C282498   9.603   2.532  11.836 -0.0708 -0.2177 -0.2212
46226DOD     C382499   9.400   2.293  12.244 -0.1350  0.1083  0.0235
46227DOD     C182500  14.600  16.695   0.591 -0.2318 -0.0805 -0.0505
46227DOD     C282501  14.284  16.762   0.943 -0.0178  0.1454 -0.1673
46227DOD     C382502  14.101  17.076   1.215  0.2294 -0.1861 -0.0643
46228DOD     C182503  12.874  11.020   3.659 -0.1689  0.2371  0.4001
46228DOD     C282504  13.155  10.668   3.633  0.0082  0.0360 -0.1186
46228DOD     C382505  13.342  10.264   3.529  0.0935  0.0584  0.0709
46229DOD     C182506  23.295  19.206  30.193  0.0222 -0.1489 -0.0774
46229DOD     C282507  22.901  19.369  30.315 -0.2421 -0.0884  0.0395
46229DOD     C382508  22.715  19.534   0.387 -0.0825  0.1801  0.0633
46230DOD     C182509  25.677  10.897  22.042  0.0951 -0.0267 -0.0911
46230DOD     C282510  25.342  10.952  22.339  0.0746  0.1086 -0.1099
46230DOD     C382511  25.076  10.585  22.396 -0.0238  0.1548 -0.0723
46231DOD     C182512   0.278  19.416  25.725  0.2107  0.1912 -0.2876
46231DOD     C282513  30.198  19.233  25.616 -0.0930  0.3531  0.2805
46231DOD     C382514  29.993  18.837  25.541 -0.0584 -0.0991  0.1106
46232DOD     C182515  26.133  16.054  14.922  0.3778 -0.2987  0.1041
46232DOD     C282516  26.440  16.037  15.293 -0.2134  0.3354  0.0554
46232DOD     C382517  26.656  15.733  15.566 -0.2260 -0.0238 -0.3006
46233DOD     C182518   9.770  26.684  11.263  0.0032  0.0865 -0.3559
46233DOD     C282519   9.920  26.841  10.838  0.1877  0.0203  0.1712
46233DOD     C382520  10.130  27.268  10.728 -0.2212  0.2163 -0.0557
46234DOD     C182521  15.585  21.757  23.283 -0.0784  0.1020 -0.1174
46234DOD     C282522  15.659  22.077  23.563  0.3111 -0.2156  0.0676
46234DOD     C382523  15.653  22.547  23.691  0.2070 -0.0517 -0.1045
46235DOD     C182524  30.263  17.535  25.515  0.0055 -0.2862  0.0433
46235DOD     C282525  29.838  17.394  25.438 -0.2283 -0.0519  0.1882
46235DOD     C382526  29.603  17.166  25.090 -0.0371  0.1365  0.1605
46236DOD     C182527  28.643   8.035  27.328 -0.0873  0.0956  0.1536
46236DOD     C282528  28.422   8.320  27.017 -0.0398 -0.0287  0.1266
46236DOD     C382529  28.214   8.549  26.618 -0.0113 -0.2361  0.0670
46237DOD     C182530  16.027  22.841  27.255  0.0594 -0.0607 -0.0488
46237DOD     C282531  16.376  22.596  27.118 -0.3214  0.1458  0.1120
46237DOD     C382532  16.353  22.281  26.748  0.3514  0.1125 -0.3615
46238DOD     C182533   5.142  13.753   0.927 -0.2091  0.2414  0.2994
46238DOD     C282534   5.140  13.535   0.577  0.2356 -0.0201  0.1758
46238DOD     C382535   5.072  13.560   0.088  0.3761  0.0339 -0.1387
46239DOD     C182536  29.287  12.480   3.009  0.0575 -0.0953  0.1939
46239DOD     C282537  29.119  12.720   2.624 -0.1142  0.1743 -0.3520
46239DOD     C382538  28.812  12.760   2.245  0.2257 -0.0703 -0.0697
46240DOD     C182539  22.574  28.353  29.281 -0.1541  0.1677 -0.2137
46240DOD     C282540  22.463  28.325  29.703 -0.3189 -0.0454  0.4062
46240DOD     C382541  22.521  28.015  30.039 -0.0702 -0.0665 -0.0507
46241DOD     C182542  28.140  16.717   2.385 -0.1095 -0.1073 -0.1933
46241DOD     C282543  27.960  17.141   2.462 -0.0667  0.0765 -0.1124
46241DOD     C382544  28.038  17.576   2.332 -0.0442 -0.2007  0.2090
46242DOD     C182545  17.839   9.923  21.326  0.2573 -0.0838  0.0973
46242DOD     C282546  17.421  10.033  21.204 -0.0925 -0.2160 -0.0681
46242DOD     C382547  17.102   9.753  21.390  0.1008  0.0282  0.1726
46243DOD     C182548  22.694  16.295  23.308 -0.1329  0.1336 -0.0334
46243DOD     C282549  22.699  16.745  23.320 -0.0861 -0.0430 -0.1501
46243DOD     C382550  22.673  17.209  23.362  0.1684 -0.1576 -0.1584
46244DOD     C182551   3.651   3.327   9.960 -0.2335 -0.3218 -0.1444
46244DOD     C282552   3.462   2.859   9.935  0.2473 -0.2062  0.0874
46244DOD     C382553   3.673   2.454   9.865  0.0138  0.0932  0.0646
46245DOD     C182554  29.134  15.591  21.027  0.0477 -0.2064 -0.2582
46245DOD     C282555  28.798  15.740  21.289  0.1117  0.2747  0.0769
46245DOD     C382556  28.514  15.960  21.604  0.1210 -0.0093  0.1800
46246DOD     C182557  27.871  19.021   0.304  0.0405 -0.2432 -0.1558
46246DOD     C282558  27.492  18.795   0.378  0.0255 -0.0392  0.0808
46246DOD     C382559  27.076  18.771   0.600 -0.4008  0.0833 -0.0967
46247DOD     C182560   9.205  19.849   5.186 -0.1959  0.0913 -0.1949
46247DOD     C282561   9.364  19.611   5.507 -0.0279  0.0447 -0.0875
46247DOD     C382562   9.451  19.193   5.782  0.2167  0.2234 -0.1034
46248DOD     C182563  26.882  26.334  20.771  0.2000 -0.1973 -0.0944
46248DOD     C282564  26.880  26.041  20.356  0.2599  0.1980 -0.2828
46248DOD     C382565  26.924  25.663  20.102  0.2472 -0.1805  0.2661
46249DOD     C182566  24.852  19.352   8.700 -0.0830  0.0744 -0.1776
46249DOD     C282567  24.768  19.475   8.263 -0.1193  0.2358 -0.0129
46249DOD     C382568  25.082  19.680   7.932 -0.3284  0.0839  0.0500
46250DOD     C182569   1.941   9.761  25.407  0.1104 -0.0968  0.3839
46250DOD     C282570   2.052   9.296  25.493  0.0160  0.1361 -0.0220
46250DOD     C382571   2.060   8.805  25.439 -0.3311 -0.0232  0.1034
46251DOD     C182572   3.453   1.248  26.625  0.0325  0.1154 -0.0659
46251DOD     C282573   3.295   1.488  26.306 -0.0268 -0.1911 -0.0262
46251DOD     C382574   3.221   1.408  25.865  0.0263 -0.1707 -0.1084
46252DOD     C182575   7.680  22.207  17.217 -0.2322 -0.0923 -0.0201
46252DOD     C282576   8.074  22.013  17.393 -0.1658  0.1543  0.0018
46252DOD     C382577   8.279  22.058  17.746 -0.2345 -0.0440 -0.1667
46253DOD     C182578  20.619   4.866  26.132 -0.0956 -0.0233 -0.1480
46253DOD     C282579  20.914   4.477  26.072  0.0838  0.2060 -0.0966
46253DOD     C382580  21.038   3.987  26.122 -0.0985 -0.3499  0.1717
46254DOD     C182581   8.281   6.194   5.681  0.0016  0.3287 -0.1821
46254DOD     C282582   8.245   5.729   5.491 -0.2608 -0.1898  0.1470
46254DOD     C382583   8.305   5.266   5.555  0.0038  0.0286 -0.3120
46255DOD     C182584  27.915  18.306   0.063  0.2885  0.0523  0.2154
46255DOD     C282585  27.674  17.981  30.190  0.1142  0.1114  0.2448
46255DOD     C382586  27.684  17.698  29.718  0.0654 -0.0650  0.0973
46256DOD     C182587  20.635  14.577  20.330  0.1704  0.2486 -0.1956
46256DOD     C282588  20.871  14.953  20.212  0.1318 -0.0131 -0.2169
46256DOD     C382589  21.276  14.963  20.049 -0.0291 -0.0590  0.0915
46257DOD     C182590  21.560   6.970   6.255 -0.0971 -0.0603 -0.0303
46257DOD     C282591  21.150   7.125   6.127  0.1684 -0.0571  0.3370
46257DOD     C382592  20.753   6.887   5.942 -0.1113 -0.1540  0.1861
46258DOD     C182593  20.200  19.683   7.238  0.0950 -0.1429 -0.2512
46258DOD     C282594  20.383  19.759   6.818 -0.0383 -0.3730  0.3703
46258DOD     C382595  20.109  19.746   6.445 -0.2140  0.2144  0.0862
46259DOD     C182596  12.386  18.300  28.262  0.2491  0.1207  0.0837
46259DOD     C282597  12.505  18.270  28.699  0.0843  0.0491 -0.1414
46259DOD     C382598  12.621  18.546  29.047 -0.0963 -0.1815 -0.1877
46260DOD     C182599   2.364  26.544   9.612  0.0362 -0.5165  0.0029
46260DOD     C282600   2.114  26.113   9.717  0.1737 -0.0099 -0.2243
46260DOD     C382601   1.761  25.748   9.692 -0.0209  0.1224 -0.0493
46261DOD     C182602   8.079   9.080  26.618 -0.1282  0.1385 -0.0015
46261DOD     C282603   7.828   8.716  26.770 -0.0913 -0.0937 -0.0064
46261DOD     C382604   7.529   8.564  27.019  0.0187 -0.2077 -0.3593
46262DOD     C182605  24.386   5.933   2.705 -0.0146  0.4730 -0.2841
46262DOD     C282606  24.052   5.918   2.386  0.2142 -0.0814  0.0195
46262DOD     C382607  23.568   5.935   2.348 -0.1209 -0.0533 -0.3249
46263DOD     C182608  21.105   8.950  26.950  0.3895  0.0367 -0.1604
46263DOD     C282609  21.319   8.617  27.136 -0.0297 -0.3243  0.0619
46263DOD     C382610  21.342   8.355  27.525 -0.1464 -0.0143 -0.1931
46264DOD     C182611   9.059  27.690  13.602 -0.2074 -0.3491 -0.2151
46264DOD     C282612   8.736  27.710  13.934  0.0335 -0.2467 -0.3775
46264DOD     C382613   8.282  27.663  14.043 -0.2108  0.1382 -0.2637
46265DOD     C182614   4.252   6.829   4.768  0.2759  0.0426 -0.4646
46265DOD     C282615   4.150   7.094   5.137  0.0219  0.0459  0.1460
46265DOD     C382616   3.722   7.293   5.305 -0.0319  0.0100  0.0288
46266DOD     C182617   6.117  21.788  26.761 -0.0393  0.0483  0.1076
46266DOD     C282618   6.271  21.383  26.572 -0.1575  0.1706  0.0215
46266DOD     C382619   6.163  21.031  26.324 -0.4337  0.1485  0.3182
46267DOD     C182620  19.460  30.242   8.949 -0.0264  0.0790 -0.3493
46267DOD     C282621  19.691   0.184   8.546  0.2393  0.5363 -0.2746
46267DOD     C382622  19.863   0.164   8.103  0.1083 -0.0052 -0.1015
46268DOD     C182623  14.372   0.779  13.835 -0.2029 -0.5168 -0.1569
46268DOD     C282624  14.680   0.515  14.091  0.0451  0.2420 -0.1733
46268DOD     C382625  14.908   0.114  14.166 -0.0375 -0.0610  0.0716
46269DOD     C182626  18.740   4.112  29.615  0.2040  0.3998 -0.0261
46269DOD     C282627  19.089   4.178  29.293 -0.1350 -0.1347 -0.0114
46269DOD     C382628  19.543   4.122  29.122  0.2356 -0.1978 -0.1192
46270DOD     C182629   4.636   5.950  21.747 -0.1317  0.2009 -0.0627
46270DOD     C282630   5.034   6.093  21.512  0.1454  0.0856 -0.0704
46270DOD     C382631   5.418   6.395  21.516  0.2396  0.0025 -0.2720
46271DOD     C182632  23.286   7.053   1.135 -0.1316  0.3718 -0.1051
46271DOD     C282633  23.609   7.316   0.910  0.0884  0.5092  0.0529
46271DOD     C382634  24.010   7.430   0.663 -0.2178 -0.2015 -0.0403
46272DOD     C182635   9.935  27.305  24.541  0.1772 -0.0655  0.0759
46272DOD     C282636  10.152  27.060  24.839 -0.1058 -0.0953 -0.1544
46272DOD     C382637  10.467  26.838  25.066  0.0720  0.2090  0.0165
46273DOD     C182638   2.164  25.045  19.065  0.3850  0.0002 -0.0307
46273DOD     C282639   2.102  24.996  19.540  0.1015  0.1408  0.0853
46273DOD     C382640   1.927  24.904  19.956  0.0787 -0.1778  0.0440
46274DOD     C182641   4.805  11.630   7.357 -0.4358  0.1789  0.0360
46274DOD     C282642   4.375  11.463   7.309 -0.2024  0.2073 -0.2144
46274DOD     C382643   4.079  11.335   6.987 -0.2406  0.1343  0.2219
46275DOD     C182644   5.922  -0.002  30.021 -0.2435 -0.3701 -0.1436
46275DOD     C282645   6.032   0.475  30.004 -0.1733 -0.1454 -0.0534
46275DOD     C382646   6.206   0.910  29.838 -0.0187 -0.1281  0.1409
46276DOD     C182647  17.944  25.035   9.979 -0.1243 -0.0714 -0.1234
46276DOD     C282648  18.020  24.650   9.739  0.0229 -0.0039 -0.0217
46276DOD     C382649  18.349  24.507   9.452 -0.0699  0.1226  0.2622
46277DOD     C182650  26.829  11.802   6.031 -0.0209 -0.0293 -0.0174
46277DOD     C282651  27.243  11.790   6.197  0.3871  0.1727 -0.0381
46277DOD     C382652  27.499  11.933   6.503  0.0954 -0.0445 -0.1588
46278DOD     C182653  16.320   7.355  17.877  0.1135  0.1486  0.0802
46278DOD     C282654  15.915   7.530  18.054  0.0314 -0.0528 -0.2814
46278DOD     C382655  15.567   7.673  18.293 -0.3754 -0.0726  0.1389
46279DOD     C182656  22.386  12.433   4.903  0.1102 -0.0692 -0.0163
46279DOD     C282657  22.162  12.871   4.984 -0.3332  0.0985 -0.4496
46279DOD     C382658  21.783  13.128   5.156  0.1843 -0.1118 -0.0497
46280DOD     C182659   9.553   8.293  17.447 -0.0168 -0.0031  0.3316
46280DOD     C282660   9.120   8.097  17.353  0.0861 -0.1433 -0.1690
46280DOD     C382661   8.778   7.881  17.581  0.0044 -0.1399 -0.1321
46281DOD     C182662  22.349  27.912   5.878 -0.0516 -0.1789  0.1882
46281DOD     C282663  22.750  28.123   5.778  0.2354 -0.5694  0.1373
46281DOD     C382664  23.136  28.244   5.665  0.0766  0.1366  0.4791
46282DOD     C182665  16.560  14.517  24.980  0.1679 -0.0920 -0.0965
46282DOD     C282666  16.739  14.824  24.678 -0.1089  0.3322  0.0373
46282DOD     C382667  16.737  15.105  24.288 -0.5139 -0.2434  0.1302
46283DOD     C182668  16.196  10.307   1.525 -0.1143  0.0710  0.2033
46283DOD     C282669  16.625  10.239   1.402  0.0528  0.1122 -0.2357
46283DOD     C382670  17.020  10.444   1.312 -0.0341  0.0707 -0.0742
46284DOD     C182671   3.990  16.551  26.622 -0.0944  0.0841 -0.0342
46284DOD     C282672   3.551  16.692  26.592  0.2126 -0.0739 -0.2812
46284DOD     C382673   3.184  16.993  26.554  0.3651 -0.0363 -0.1271
46285DOD     C182674   9.825   4.762  15.784  0.3403  0.3145  0.2888
46285DOD     C282675   9.934   4.553  16.224 -0.2003 -0.2288 -0.4946
46285DOD     C382676  10.027   4.484  16.709 -0.2454  0.1479 -0.0327
46286DOD     C182677  14.481  19.830  22.773 -0.1566 -0.0853  0.1862
46286DOD     C282678  14.325  19.790  22.310  0.4004  0.1207  0.0446
46286DOD     C382679  14.244  19.512  21.954 -0.1477 -0.0245  0.1668
46287DOD     C182680  19.886  26.772   2.890  0.3821  0.1737 -0.1476
46287DOD     C282681  19.669  26.439   2.614 -0.0917  0.4785 -0.0123
46287DOD     C382682  19.895  26.089   2.357  0.1457  0.1083  0.0409
46288DOD     C182683  16.886  20.548   3.683 -0.0245 -0.0473  0.0465
46288DOD     C282684  16.845  20.749   4.068 -0.6614  0.0833 -0.0308
46288DOD     C382685  16.670  20.997   4.403  0.0169  0.1150 -0.0954
46289DOD     C182686  18.236  24.068  13.829  0.1617 -0.4694 -0.0144
46289DOD     C282687  18.149  24.230  13.454  0.0115 -0.2454 -0.1200
46289DOD     C382688  18.269  24.639  13.261  0.2368  0.1027 -0.0435
46290DOD     C182689  14.509   3.559   3.814  0.0857  0.1293 -0.1635
46290DOD     C282690  14.234   3.334   4.036  0.0158  0.0408 -0.1936
46290DOD     C382691  13.894   3.060   3.985 -0.1169 -0.3442 -0.1816
46291DOD     C182692  24.254  27.455  21.281 -0.2785 -0.1506 -0.2087
46291DOD     C282693  24.508  27.312  20.862  0.2011  0.0627 -0.2949
46291DOD     C382694  24.767  27.680  20.649 -0.1183  0.2246  0.0866
46292DOD     C182695   0.519   4.513  17.271 -0.0387  0.2661  0.1772
46292DOD     C282696   0.775   4.837  17.498  0.2717 -0.0864 -0.2474
46292DOD     C382697   0.912   5.300  17.543 -0.1434 -0.0780  0.2514
46293DOD     C182698   7.986   8.812  26.234  0.3011 -0.2073 -0.0909
46293DOD     C282699   7.988   8.628  25.744  0.4288  0.0915 -0.3660
46293DOD     C382700   7.843   8.846  25.367 -0.1198 -0.1676  0.1363
46294DOD     C182701  20.066   2.520  25.074  0.1159  0.0385 -0.0264
46294DOD     C282702  19.825   2.131  25.085  0.3969  0.3196  0.0134
46294DOD     C382703  19.489   1.917  24.896  0.6150  0.0616 -0.0246
46295DOD     C182704   3.241   5.666   6.969 -0.1030 -0.0563  0.3216
46295DOD     C282705   3.234   5.810   6.535 -0.3450  0.0642  0.0786
46295DOD     C382706   3.224   5.589   6.140 -0.1407 -0.1251 -0.1933
46296DOD     C182707  22.688  28.660  24.640 -0.1500 -0.2290 -0.0845
46296DOD     C282708  22.880  28.460  24.994  0.2843  0.0580 -0.1032
46296DOD     C382709  23.077  28.253  25.345  0.0284  0.2443  0.0267
46297DOD     C182710  23.353  27.320  21.776  0.1912  0.2267  0.1992
46297DOD     C282711  23.719  27.563  21.989  0.0767  0.3355  0.1616
46297DOD     C382712  24.135  27.699  22.020 -0.1424  0.3344 -0.0716
46298DOD     C182713   3.422  24.994   9.985 -0.4510 -0.1747 -0.3087
46298DOD     C282714   3.423  25.478   9.901  0.0419  0.1793 -0.0146
46298DOD     C382715   3.538  25.872   9.685 -0.2796  0.0245 -0.2208
46299DOD     C182716   5.301  10.540  19.693  0.0971  0.0316  0.0888
46299DOD     C282717   4.985  10.741  19.428  0.2717 -0.0412  0.2260
46299DOD     C382718   4.995  11.105  19.120  0.0248 -0.0008  0.0231
46300DOD     C182719   2.792  26.299  14.449 -0.1325 -0.2548  0.3140
46300DOD     C282720   3.071  26.625  14.309  0.0333 -0.0165  0.3341
46300DOD     C382721   3.419  26.580  13.972  0.0961  0.3023  0.1189
46301DOD     C182722   4.251  20.808  27.270  0.0040  0.2164  0.3516
46301DOD     C282723   4.400  20.839  26.843 -0.0689 -0.0136 -0.2219
46301DOD     C382724   4.468  20.739  26.385  0.3731 -0.2070  0.1538
46302DOD     C182725  27.455   0.374  22.193  0.1057 -0.1305 -0.1691
46302DOD     C282726  27.060   0.554  22.333  0.1298 -0.2469 -0.0704
46302DOD     C382727  26.794   0.733  22.633  0.0579 -0.1728 -0.1262
46303DOD     C182728   2.403  12.946   2.068 -0.3504 -0.2425 -0.1799
46303DOD     C282729   2.552  13.314   1.882 -0.1995  0.0645  0.2869
46303DOD     C382730   2.452  13.664   1.539 -0.2238  0.2658  0.3100
46304DOD     C182731  29.958   4.702   1.115 -0.0836  0.2022  0.0372
46304DOD     C282732  30.318   4.905   1.234  0.0802 -0.1522 -0.2807
46304DOD     C382733   0.272   4.882   1.633  0.1195  0.0465  0.0547
46305DOD     C182734   2.490   2.274  20.832  0.4279 -0.1483 -0.2563
46305DOD     C282735   2.579   2.148  20.410  0.0242 -0.1777  0.0524
46305DOD     C382736   2.276   1.998  20.081 -0.1884 -0.0007  0.0805
46306DOD     C182737   3.567  15.935   3.525  0.4003  0.0707  0.2709
46306DOD     C282738   3.568  15.568   3.271 -0.1647  0.1448  0.0324
46306DOD     C382739   3.454  15.498   2.817 -0.3066  0.1719  0.2619
46307DOD     C182740  20.179  29.040   5.213 -0.1649  0.2429  0.0524
46307DOD     C282741  20.337  29.015   5.660  0.0394  0.0337  0.0136
46307DOD     C382742  20.338  28.963   6.162 -0.1660  0.3482 -0.1590
46308DOD     C182743  14.863  11.034  16.643  0.2505 -0.2029  0.0552
46308DOD     C282744  14.692  11.383  16.350 -0.0129  0.2289 -0.0002
46308DOD     C382745  14.524  11.794  16.153  0.0048  0.3506  0.1218
46309DOD     C182746  21.694   4.872  11.288 -0.0564  0.0312 -0.1803
46309DOD     C282747  22.122   4.642  11.110 -0.0536  0.2030 -0.0618
46309DOD     C382748  22.435   4.602  10.801  0.1256  0.4026  0.1678
46310DOD     C182749  19.525  13.867   6.566  0.0139  0.2055  0.1020
46310DOD     C282750  19.085  13.969   6.453  0.1150 -0.0145  0.1192
46310DOD     C382751  18.676  14.070   6.226 -0.0472  0.1137 -0.0875
46311DOD     C182752  17.018  14.190  16.608  0.0848 -0.0522  0.0582
46311DOD     C282753  17.076  13.738  16.583 -0.1499 -0.3731 -0.0027
46311DOD     C382754  17.290  13.479  16.206  0.0329  0.1375 -0.1906
46312DOD     C182755  19.014  16.045  30.314  0.0986 -0.0770  0.2195
46312DOD     C282756  19.075  15.603   0.086  0.1481  0.2015 -0.0068
46312DOD     C382757  19.213  15.264  30.107  0.0427 -0.3398  0.2981
46313DOD     C182758  14.965  16.590   6.285  0.0768 -0.1140  0.1513
46313DOD     C282759  14.988  16.704   5.780  0.3441 -0.1708  0.0029
46313DOD     C382760  15.210  16.894   5.438  0.0865 -0.1806  0.0793
46314DOD     C182761   7.072   1.407  23.518 -0.0253  0.0566 -0.4380
46314DOD     C282762   7.278   1.045  23.419  0.0404  0.1072  0.0606
46314DOD     C382763   7.581   0.675  23.376  0.0116 -0.2017 -0.0050
46315DOD     C182764   1.765  21.732  19.837 -0.0761  0.0989 -0.2007
46315DOD     C282765   2.185  21.728  20.053  0.2788 -0.0194 -0.0525
46315DOD     C382766   2.528  21.790  20.365 -0.2140 -0.1836  0.2224
46316DOD     C182767   0.279   3.569  14.972  0.0448  0.1694 -0.0815
46316DOD     C282768  30.134   3.594  15.161 -0.0927  0.1111  0.0447
46316DOD     C382769  29.800   3.814  15.355  0.1711 -0.2386  0.1070
46317DOD     C182770  14.213   8.079   5.265 -0.1552 -0.0601 -0.1161
46317DOD     C282771  14.169   8.434   4.981  0.3061 -0.2480 -0.2396
46317DOD     C382772  14.195   8.534   4.462 -0.0902 -0.0747  0.2213
46318DOD     C182773  24.512  13.338   5.706  0.1267  0.0535 -0.1687
46318DOD     C282774  24.093  13.110   5.860 -0.2068  0.1357 -0.1333
46318DOD     C382775  23.921  13.162   6.317  0.1355 -0.0284 -0.2249
46319DOD     C182776  29.546  21.031  25.995 -0.2748 -0.1821  0.0449
46319DOD     C282777  29.100  20.816  26.040 -0.0116  0.0455 -0.0624
46319DOD     C382778  28.683  20.546  26.101 -0.3618  0.0938  0.1872
46320DOD     C182779  22.360  21.343   6.574  0.2679 -0.1219 -0.0947
46320DOD     C282780  22.547  20.967   6.411 -0.2646  0.0318  0.4443
46320DOD     C382781  22.744  21.031   5.991  0.0268 -0.2138 -0.2292
46321DOD     C182782   2.564  13.253  19.285 -0.1382  0.1945 -0.0860
46321DOD     C282783   2.352  13.487  18.871  0.1914 -0.0501  0.1055
46321DOD     C382784   2.043  13.711  18.526 -0.0501  0.0310 -0.1659
46322DOD     C182785   2.062  10.951   5.226 -0.0536  0.1076  0.3516
46322DOD     C282786   1.712  10.654   5.393  0.4041 -0.0198  0.0901
46322DOD     C382787   1.364  10.473   5.693  0.3084 -0.1382 -0.1937
46323DOD     C182788  24.523  19.417   1.304 -0.0988  0.3441 -0.3222
46323DOD     C282789  24.592  19.721   0.927 -0.1714 -0.0284 -0.2629
46323DOD     C382790  24.239  19.780   0.571  0.1783  0.2179 -0.5597
46324DOD     C182791   3.439  13.593  12.343  0.0251 -0.1512  0.1162
46324DOD     C282792   3.912  13.474  12.241  0.1914  0.1982 -0.1614
46324DOD     C382793   4.380  13.373  12.049  0.0580  0.0662 -0.3585
46325DOD     C182794   6.124  25.783  10.293  0.1599  0.0007  0.1119
46325DOD     C282795   5.923  25.569   9.953  0.1503 -0.2383  0.0474
46325DOD     C382796   6.082  25.144   9.726  0.1090 -0.0848  0.1436
46326DOD     C182797  11.546  27.838  12.651 -0.0112  0.1665 -0.2600
46326DOD     C282798  11.153  27.677  12.811  0.1328  0.1391  0.2122
46326DOD     C382799  10.819  27.342  12.981 -0.2098  0.1295  0.0940
46327DOD     C182800  25.725  29.137  26.372  0.0429  0.3312 -0.3043
46327DOD     C282801  26.017  29.111  25.949  0.1900 -0.1009 -0.0394
46327DOD     C382802  26.444  29.174  25.713 -0.2105  0.1953  0.1738
46328DOD     C182803  15.191   8.126   6.447  0.1625  0.0879 -0.0959
46328DOD     C282804  15.128   8.198   6.923 -0.2983  0.3488  0.2087
46328DOD     C382805  14.828   8.214   7.299 -0.1389  0.2415 -0.0373
46329DOD     C182806  15.736   1.235  29.648  0.1517  0.1711 -0.1339
46329DOD     C282807  15.533   0.836  29.546 -0.1041 -0.3623  0.1725
46329DOD     C382808  15.158   0.723  29.323  0.1875 -0.1249  0.0064
46330DOD     C182809  30.240  15.005  21.793  0.0227  0.3520 -0.1333
46330DOD     C282810  30.197  14.583  21.641 -0.2093  0.3061 -0.2863
46330DOD     C382811  29.862  14.233  21.634 -0.4646 -0.0236  0.2298
46331DOD     C182812  18.447   9.401  24.860 -0.0913  0.3807 -0.0700
46331DOD     C282813  18.074   9.526  25.076  0.1786 -0.0290  0.1671
46331DOD     C382814  17.754   9.209  25.142  0.1285 -0.0141 -0.1501
46332DOD     C182815   4.385   2.890  12.924 -0.1017  0.2930  0.2031
46332DOD     C282816   4.859   2.931  12.802  0.1381  0.1272 -0.0114
46332DOD     C382817   5.212   3.050  12.656 -0.1505  0.0892 -0.0839
46333DOD     C182818  24.975  16.901  12.437  0.0239  0.0951 -0.2140
46333DOD     C282819  25.413  16.885  12.347 -0.1745 -0.3563 -0.1398
46333DOD     C382820  25.784  17.008  12.485  0.3057  0.1320 -0.1922
46334DOD     C182821  20.092   5.069   3.335 -0.2770  0.0612 -0.2635
46334DOD     C282822  19.803   5.373   3.517  0.2541 -0.1416  0.0147
46334DOD     C382823  19.374   5.543   3.425  0.0271 -0.1179  0.1628
46335DOD     C182824  18.998   8.222   8.717 -0.1633  0.1169 -0.3164
46335DOD     C282825  18.973   8.682   8.728 -0.1477 -0.1527 -0.3942
46335DOD     C382826  19.055   9.201   8.757 -0.0155 -0.1158  0.1529
46336DOD     C182827  25.982  15.671  17.815  0.2444 -0.2830 -0.1402
46336DOD     C282828  26.355  15.522  18.056 -0.4394  0.1145 -0.1960
46336DOD     C382829  26.790  15.441  17.976  0.3643  0.0054 -0.1100
46337DOD     C182830  25.107   8.077  29.361  0.0610 -0.0068  0.0691
46337DOD     C282831  24.742   8.134  29.735 -0.0039 -0.3260  0.2838
46337DOD     C382832  24.486   8.551  29.874  0.0235  0.0039 -0.1502
46338DOD     C182833  10.167  25.228   5.784  0.1310  0.0072  0.0704
46338DOD     C282834  10.470  25.235   6.179 -0.2827  0.1711 -0.1137
46338DOD     C382835  10.484  25.348   6.612  0.4151  0.2291  0.0654
46339DOD     C182836  21.230   1.513  23.896  0.0077 -0.3172 -0.0155
46339DOD     C282837  21.179   1.927  23.614  0.0097  0.1192 -0.2956
46339DOD     C382838  21.298   2.337  23.436 -0.1134  0.2055  0.0759
46340DOD     C182839   3.248  14.580   0.804  0.1967  0.0699 -0.1225
46340DOD     C282840   3.200  14.517   0.354 -0.0167 -0.1896 -0.1353
46340DOD     C382841   3.478  14.447  30.323  0.2362  0.0574 -0.0600
46341DOD     C182842   3.738  12.707   2.057 -0.1875  0.0292 -0.1551
46341DOD     C282843   3.783  12.657   1.566  0.1020  0.0029  0.4274
46341DOD     C382844   4.103  12.528   1.282  0.3298  0.2644 -0.0946
46342DOD     C182845   4.655   6.977  10.752 -0.0250  0.2628  0.0171
46342DOD     C282846   4.912   6.971  11.189 -0.0811 -0.0696  0.0789
46342DOD     C382847   4.902   7.073  11.670 -0.1910  0.4164  0.0981
46343DOD     C182848   5.800  10.040   8.445 -0.2481 -0.1279  0.1056
46343DOD     C282849   5.627  10.007   8.869  0.1823 -0.0754  0.0141
46343DOD     C382850   5.302   9.872   9.124 -0.1246  0.1095 -0.2130
46344DOD     C182851  14.136  13.968  16.314  0.0656 -0.2258 -0.1776
46344DOD     C282852  13.755  13.712  16.139  0.3509 -0.2212 -0.0510
46344DOD     C382853  13.406  13.750  15.871  0.0923  0.0716  0.2371
46345DOD     C182854   1.759   0.969  22.734 -0.1684 -0.3870 -0.2208
46345DOD     C282855   1.283   1.048  22.860  0.0841 -0.0236 -0.2005
46345DOD     C382856   0.802   1.066  22.761 -0.0189  0.1455  0.1252
46346DOD     C182857   9.432  19.382   9.430 -0.0578 -0.0690  0.1695
46346DOD     C282858   9.458  19.249   8.961 -0.1683 -0.4432 -0.1609
46346DOD     C382859   9.546  19.405   8.485  0.0517  0.1678 -0.1333
46347DOD     C182860  11.414  14.462   7.253  0.0237  0.0478  0.0437
46347DOD     C282861  11.381  14.004   7.231  0.0930 -0.2826  0.2371
46347DOD     C382862  10.999  13.691   7.082 -0.1422  0.1177 -0.1180
46348DOD     C182863   7.451  10.617   9.714  0.0902  0.0650 -0.0116
46348DOD     C282864   7.645  10.540  10.134  0.1458  0.0777 -0.0599
46348DOD     C382865   7.581  10.357  10.597 -0.1536 -0.1961 -0.0853
46349DOD     C182866   5.717   2.487  11.980 -0.1213 -0.0504 -0.2621
46349DOD     C282867   6.093   2.220  12.004  0.1172  0.0384  0.0373
46349DOD     C382868   6.397   2.141  12.258 -0.0324  0.1401 -0.2075
46350DOD     C182869  26.359  18.852  23.622 -0.1732  0.2080 -0.1159
46350DOD     C282870  26.326  18.387  23.695  0.5725 -0.1581  0.0555
46350DOD     C382871  26.263  18.006  23.928  0.3282  0.1549 -0.2072
46351DOD     C182872   9.781   4.911  19.673  0.1282  0.1575 -0.0990
46351DOD     C282873   9.547   4.589  19.601  0.0738  0.0182 -0.1490
46351DOD     C382874   9.265   4.444  19.880 -0.1722  0.4373 -0.0348
46352DOD     C182875   3.733  25.686  17.904  0.1978  0.2273 -0.1698
46352DOD     C282876   3.276  25.786  17.909  0.1269  0.0164 -0.3630
46352DOD     C382877   2.892  25.792  17.687  0.1420 -0.1713  0.3978
46353DOD     C182878  18.719  21.514  14.118  0.1351  0.0697  0.3172
46353DOD     C282879  18.670  21.698  14.609 -0.0359  0.1809  0.0148
46353DOD     C382880  18.456  22.090  14.746 -0.1576 -0.1728 -0.0980
46354DOD     C182881  10.325   7.716   1.850  0.0871 -0.2759 -0.1827
46354DOD     C282882  10.372   7.321   1.678  0.0849  0.2779 -0.1438
46354DOD     C382883  10.170   7.095   1.334  0.0987  0.1065  0.1546
46355DOD     C182884  29.199  22.289   3.669 -0.2942  0.3726  0.1406
46355DOD     C282885  29.676  22.438   3.560  0.0645  0.0534  0.2761
46355DOD     C382886  30.108  22.615   3.374  0.1752  0.1115 -0.0465
46356DOD     C182887   0.071   3.533   0.687  0.0235  0.1096 -0.0801
46356DOD     C282888  30.256   3.196   1.028  0.1000 -0.2279  0.1599
46356DOD     C382889  30.190   3.014   1.462  0.2929 -0.0414 -0.0264
46357DOD     C182890  19.410   4.383   8.377  0.1646  0.3965 -0.2687
46357DOD     C282891  19.606   4.390   8.761  0.4168  0.0952 -0.1707
46357DOD     C382892  19.450   4.077   9.091 -0.1565  0.0461 -0.1244
46358DOD     C182893  21.420  13.022  24.559 -0.1293  0.2553  0.1177
46358DOD     C282894  21.464  13.416  24.835  0.3646  0.2093 -0.2178
46358DOD     C382895  21.858  13.706  25.007 -0.0256  0.0180 -0.1513
46359DOD     C182896   5.514  16.931  11.802  0.1584  0.0760 -0.0252
46359DOD     C282897   5.581  17.218  11.407  0.2854  0.1411 -0.1806
46359DOD     C382898   5.606  17.661  11.210 -0.3455  0.4581 -0.1055
46360DOD     C182899  11.199  19.360  15.693 -0.1405  0.2327  0.1205
46360DOD     C282900  10.819  19.048  15.682  0.3651  0.1163  0.2549
46360DOD     C382901  10.490  18.918  15.979  0.0520  0.0749 -0.1887
46361DOD     C182902  16.969  12.699  24.271 -0.1910 -0.0458 -0.1750
46361DOD     C282903  16.935  12.396  24.637  0.2015  0.1693  0.1041
46361DOD     C382904  16.938  12.006  24.945 -0.0316 -0.1980 -0.0806
46362DOD     C182905  19.190  29.987  15.194  0.2579  0.1765 -0.1032
46362DOD     C282906  18.816  29.705  15.412 -0.0694  0.1755 -0.0537
46362DOD     C382907  18.682  29.434  15.710 -0.2165 -0.0413  0.2408
46363DOD     C182908  11.512  28.285   4.936  0.0874  0.1329 -0.4329
46363DOD     C282909  11.606  27.995   5.299  0.1449 -0.0820  0.0829
46363DOD     C382910  11.572  27.552   5.478  0.2715  0.1154  0.0648
46364DOD     C182911  27.275  16.024  22.391  0.0761 -0.0836  0.0627
46364DOD     C282912  27.242  16.541  22.502 -0.1557 -0.2053 -0.0367
46364DOD     C382913  27.060  16.846  22.727 -0.0543  0.1231 -0.3047
46365DOD     C182914  17.113  13.866   7.523  0.3025 -0.1179  0.0419
46365DOD     C282915  17.403  13.968   7.830  0.0412 -0.1839 -0.0527
46365DOD     C382916  17.402  14.217   8.215 -0.2573  0.0529  0.1969
46366DOD     C182917  14.022   1.464  18.893 -0.2947  0.0213  0.2602
46366DOD     C282918  14.337   1.830  18.889  0.0372  0.1423  0.0567
46366DOD     C382919  14.369   2.307  18.935 -0.2130  0.0810 -0.2752
46367DOD     C182920   9.165  14.588  29.148 -0.1495 -0.0400 -0.0931
46367DOD     C282921   9.359  14.915  28.850  0.1404  0.3112  0.0623
46367DOD     C382922   9.604  15.089  28.531 -0.0110  0.1027 -0.0542
46368DOD     C182923  10.419  22.937  13.488  0.0439 -0.0163  0.0720
46368DOD     C282924  10.080  22.640  13.323  0.2421 -0.0778 -0.2017
46368DOD     C382925   9.879  22.312  13.055  0.2002  0.1527 -0.0141
46369DOD     C182926  15.916  10.856  10.311 -0.0163  0.1927  0.1756
46369DOD     C282927  16.136  10.817   9.918 -0.4754  0.1213  0.1052
46369DOD     C382928  16.475  11.075   9.759 -0.0757 -0.0787  0.2698
46370DOD     C182929  20.749  22.818   9.965 -0.0619 -0.0325  0.1686
46370DOD     C282930  20.885  22.799   9.514  0.0085 -0.1993  0.0240
46370DOD     C382931  21.186  22.740   9.179  0.0864 -0.3404 -0.0439
46371DOD     C182932  23.739  11.443  21.046  0.0869 -0.0055 -0.0979
46371DOD     C282933  23.472  11.219  21.388 -0.0377  0.1678 -0.0236
46371DOD     C382934  23.367  11.215  21.843 -0.1015 -0.3383  0.2527
46372DOD     C182935  14.999  15.795   8.959 -0.1867 -0.0822  0.2167
46372DOD     C282936  14.718  15.516   9.191  0.1467 -0.2345  0.0167
46372DOD     C382937  14.328  15.185   9.241 -0.0517 -0.3428 -0.0733
46373DOD     C182938   7.410  15.818  29.082  0.1599 -0.7650 -0.1071
46373DOD     C282939   6.972  15.688  29.285  0.2130 -0.0710 -0.2539
46373DOD     C382940   6.681  15.588  29.624 -0.1245  0.2129  0.0733
46374DOD     C182941  13.819   8.580   4.133  0.0935  0.1399  0.2057
46374DOD     C282942  13.658   8.437   4.517 -0.0289 -0.0440  0.0576
46374DOD     C382943  13.658   8.217   4.954 -0.0934  0.2730 -0.1815
46375DOD     C182944  22.065  28.522  23.760  0.1422 -0.2007 -0.0012
46375DOD     C282945  21.617  28.315  23.760 -0.1505 -0.2527  0.2125
46375DOD     C382946  21.360  27.962  23.893 -0.0548 -0.0199  0.0600
46376DOD     C182947  13.196  13.610   5.632  0.0840  0.0422  0.0442
46376DOD     C282948  12.904  13.245   5.563  0.1060 -0.0358  0.0497
46376DOD     C382949  12.961  12.817   5.787  0.0993 -0.1570 -0.1190
46377DOD     C182950  21.288   9.637  26.792 -0.0334  0.0516  0.1309
46377DOD     C282951  21.335   9.245  26.564  0.3605 -0.0683 -0.0427
46377DOD     C382952  21.422   8.819  26.645  0.2571 -0.2192  0.0160
46378DOD     C182953   5.975  23.981  29.067 -0.1197 -0.0681  0.1090
46378DOD     C282954   6.135  23.665  29.407 -0.1006 -0.2934 -0.0755
46378DOD     C382955   5.978  23.480  29.840 -0.1442 -0.2343 -0.0530
46379DOD     C182956  16.234  14.213  19.737 -0.3338 -0.0418  0.0073
46379DOD     C282957  16.345  14.261  19.294  0.1794  0.0057  0.3690
46379DOD     C382958  16.775  14.344  19.105  0.4667  0.3413  0.0292
46380DOD     C182959   3.896  19.735  11.359 -0.3866  0.0388  0.0566
46380DOD     C282960   3.799  19.969  10.932 -0.1077 -0.1228 -0.2324
46380DOD     C382961   3.905  20.398  10.798 -0.2121 -0.2781  0.0099
46381DOD     C182962  22.724   5.349   3.207  0.0148  0.2038  0.1057
46381DOD     C282963  22.361   5.465   3.492  0.4812 -0.0672  0.0532
46381DOD     C382964  22.161   5.240   3.884 -0.1937  0.1367 -0.0298
46382DOD     C182965   6.350   3.930  15.931  0.2734 -0.0963 -0.0713
46382DOD     C282966   6.527   3.703  16.335  0.2676 -0.2310  0.0508
46382DOD     C382967   6.848   3.441  16.605  0.1339 -0.0386 -0.1485
46383DOD     C182968   3.432  11.181  20.119 -0.2974 -0.0323 -0.1018
46383DOD     C282969   3.270  10.927  19.810 -0.0141  0.0642 -0.0559
46383DOD     C382970   3.091  10.767  19.493 -0.1238 -0.2818 -0.3255
46384DOD     C182971   9.581  11.290  13.350 -0.0167 -0.3825 -0.0677
46384DOD     C282972   9.329  11.469  13.067 -0.0442  0.0798 -0.2215
46384DOD     C382973   8.936  11.772  13.188  0.0507  0.1461  0.0555
46385DOD     C182974  14.830  30.268  19.515  0.4212 -0.1828 -0.0789
46385DOD     C282975  14.551  29.945  19.422 -0.0361  0.3648  0.0674
46385DOD     C382976  14.203  30.062  19.186 -0.1792  0.2149 -0.0163
46386DOD     C182977  11.611   4.046  24.653  0.2548  0.0554  0.4382
46386DOD     C282978  11.835   3.896  25.038 -0.2326  0.1358 -0.0446
46386DOD     C382979  11.763   3.540  25.276 -0.0291 -0.3571 -0.4810
46387DOD     C182980  22.613   1.363   4.060 -0.0739 -0.0480 -0.3565
46387DOD     C282981  22.251   1.593   4.218  0.0851  0.0679 -0.1796
46387DOD     C382982  21.824   1.708   4.054  0.0697  0.2069 -0.1563
46388DOD     C182983  15.696  10.842  24.666 -0.1410 -0.0206 -0.0341
46388DOD     C282984  16.136  11.003  24.736 -0.3201  0.0823 -0.0317
46388DOD     C382985  16.541  11.109  24.983  0.0454 -0.3659  0.2527
46389DOD     C182986  14.573  10.921  18.880 -0.2055  0.0145  0.1625
46389DOD     C282987  14.987  10.771  19.039 -0.0929 -0.1401  0.0682
46389DOD     C382988  15.404  10.883  19.179 -0.0226  0.0862 -0.1647
46390DOD     C182989   6.865  29.055   8.963 -0.1636 -0.0763  0.0384
46390DOD     C282990   7.108  29.458   8.832  0.1076  0.1040 -0.0654
46390DOD     C382991   7.245  29.899   8.832  0.1295 -0.1369 -0.0345
46391DOD     C182992   9.790  19.434  15.050 -0.0571 -0.1034 -0.0048
46391DOD     C282993   9.827  19.127  15.348 -0.2670  0.1365 -0.2357
46391DOD     C382994   9.455  19.104  15.557 -0.1084 -0.1542  0.2597
46392DOD     C182995   4.057  25.774  19.676 -0.0897 -0.0831 -0.2103
46392DOD     C282996   4.346  26.002  19.436 -0.3416  0.0498 -0.3679
46392DOD     C382997   4.570  26.258  19.111  0.0164 -0.3270 -0.1030
46393DOD     C182998  25.199  23.807  17.571 -0.1148 -0.1684 -0.1871
46393DOD     C282999  24.981  23.872  17.978  0.2354  0.1328  0.0476
46393DOD     C383000  24.647  24.088  18.244 -0.0647 -0.0570 -0.1002
46394DOD     C183001  15.126  22.575   3.151 -0.1875 -0.1130  0.1791
46394DOD     C283002  15.182  22.760   3.549 -0.2550  0.2323 -0.5108
46394DOD     C383003  15.419  22.587   3.938 -0.2071 -0.0583 -0.1605
46395DOD     C183004  19.650  25.136  24.673  0.0418  0.0154 -0.1889
46395DOD     C283005  19.918  25.032  25.026 -0.1479 -0.1931  0.1988
46395DOD     C383006  20.108  25.223  25.362  0.0964  0.0180  0.0444
46396DOD     C183007  10.035  11.362   8.401 -0.0140 -0.0084  0.2450
46396DOD     C283008  10.507  11.523   8.418 -0.0037 -0.1707 -0.0555
46396DOD     C383009  10.866  11.292   8.324  0.2967  0.3007  0.0665
46397DOD     C183010  13.362  20.146  20.083  0.0035  0.0723  0.1385
46397DOD     C283011  12.904  20.204  20.196 -0.0113  0.1645 -0.0298
46397DOD     C383012  12.600  20.171  19.896  0.2551  0.1745 -0.1076
46398DOD     C183013  17.030  12.817  13.191  0.3028 -0.2520  0.1781
46398DOD     C283014  17.369  13.036  13.349 -0.4086  0.0506 -0.1291
46398DOD     C383015  17.839  12.929  13.528 -0.2668  0.0156 -0.3389
46399DOD     C183016  29.358  10.623  27.271 -0.2263  0.1780 -0.0633
46399DOD     C283017  29.430  10.295  26.892  0.0159 -0.2024  0.3596
46399DOD     C383018  29.604  10.162  26.462  0.0797  0.1607 -0.0996
46400DOD     C183019  12.570  20.231   9.031  0.2384 -0.0678  0.1458
46400DOD     C283020  12.182  20.236   8.882 -0.0290 -0.2894 -0.0452
46400DOD     C383021  11.812  19.987   8.866  0.0770  0.0998  0.0496
46401DOD     C183022  25.889  19.840  13.692 -0.1031  0.0905  0.0059
46401DOD     C283023  26.076  20.091  14.107  0.2887  0.0866  0.3979
46401DOD     C383024  26.410  20.432  14.139  0.2407  0.0017  0.1935
46402DOD     C183025  22.818  13.861   0.856  0.1440  0.0488  0.0901
46402DOD     C283026  22.971  13.762   1.258  0.2249  0.0574  0.0572
46402DOD     C383027  23.313  13.991   1.420 -0.0168  0.4470  0.0781
46403DOD     C183028  16.329  16.311  10.075 -0.1315 -0.1967 -0.0395
46403DOD     C283029  16.504  16.111  10.499 -0.5059 -0.0684  0.0075
46403DOD     C383030  16.608  15.933  10.911  0.2836  0.4532 -0.2304
46404DOD     C183031   2.235  15.749  25.043 -0.1367 -0.0192 -0.1497
46404DOD     C283032   1.874  15.754  25.365  0.0908  0.1702  0.0361
46404DOD     C383033   1.780  15.899  25.767  0.2156 -0.2368 -0.2373
46405DOD     C183034   6.070   5.424  28.326 -0.0308 -0.1600  0.0084
46405DOD     C283035   6.393   5.137  28.171 -0.0775  0.0575 -0.1177
46405DOD     C383036   6.265   4.725  28.018 -0.3538 -0.0634  0.0342
46406DOD     C183037  12.966   2.807   6.334  0.0355  0.0638 -0.0569
46406DOD     C283038  13.190   3.238   6.548 -0.1676  0.3129 -0.2048
46406DOD     C383039  13.183   3.506   6.925  0.1950 -0.1429  0.0058
46407DOD     C183040  24.490   2.772   6.282 -0.1788 -0.2934 -0.1840
46407DOD     C283041  24.617   2.684   6.742  0.1300 -0.0332  0.0923
46407DOD     C383042  24.946   2.429   6.992 -0.2782  0.5706 -0.1064
46408DOD     C183043   5.288  23.637   7.605  0.1595 -0.0013  0.1573
46408DOD     C283044   5.011  23.714   7.228 -0.3428  0.0421 -0.1154
46408DOD     C383045   4.629  23.604   7.050 -0.0423 -0.1881  0.1780
46409DOD     C183046  21.624   0.122  26.285  0.1054 -0.0735  0.0742
46409DOD     C283047  21.750   0.457  25.949 -0.1052  0.0533  0.1223
46409DOD     C383048  22.158   0.513  25.686 -0.1542  0.0478 -0.0349
46410DOD     C183049  21.490   2.143  23.951  0.1469  0.0894 -0.0775
46410DOD     C283050  21.855   2.442  23.774  0.2491  0.1175 -0.0469
46410DOD     C383051  21.803   2.741  23.435 -0.2558 -0.1215 -0.1965
46411DOD     C183052  17.767  27.806  29.150 -0.0310  0.0352 -0.0202
46411DOD     C283053  17.857  28.270  29.292 -0.2148  0.0223 -0.1502
46411DOD     C383054  17.995  28.737  29.286  0.1268  0.3104  0.0804
46412DOD     C183055  26.157  24.597  20.499  0.1110 -0.0014  0.2354
46412DOD     C283056  26.199  24.714  19.987 -0.3635 -0.1964 -0.1763
46412DOD     C383057  26.136  24.939  19.596 -0.1733 -0.1492 -0.0753
46413DOD     C183058  24.234  13.348  10.561 -0.0047  0.5741  0.2123
46413DOD     C283059  23.864  13.231  10.276 -0.0205  0.1836  0.0486
46413DOD     C383060  23.507  13.208   9.943 -0.0326  0.1557 -0.2008
46414DOD     C183061  16.726   4.388  13.189  0.0059  0.1253 -0.0925
46414DOD     C283062  16.767   4.836  13.312 -0.0922 -0.1060  0.1559
46414DOD     C383063  16.963   5.249  13.429 -0.1437 -0.3328 -0.1005
46415DOD     C183064  29.307  17.539   6.758 -0.0212 -0.0459  0.0736
46415DOD     C283065  28.883  17.561   6.824 -0.1029  0.0801 -0.0978
46415DOD     C383066  28.455  17.556   6.989 -0.1222  0.1385  0.2530
46416DOD     C183067  11.555   1.099   7.247 -0.2980  0.3211 -0.0852
46416DOD     C283068  11.960   0.923   7.119  0.3205 -0.2666  0.3637
46416DOD     C383069  12.215   0.607   6.849 -0.0738  0.3001 -0.2112
46417DOD     C183070  12.856  15.910   2.202 -0.0121 -0.1173 -0.0934
46417DOD     C283071  12.821  16.202   1.880 -0.1463  0.3116 -0.3749
46417DOD     C383072  12.659  16.422   1.545  0.0624  0.1349  0.0243
46418DOD     C183073   5.611  21.037   8.432  0.0341 -0.0565  0.4253
46418DOD     C283074   5.300  20.955   8.765 -0.0293  0.0293 -0.0909
46418DOD     C383075   4.931  21.146   9.022 -0.2209 -0.0276  0.1128
46419DOD     C183076  28.604   6.273  19.169 -0.1379 -0.2130 -0.0986
46419DOD     C283077  28.349   6.020  19.490 -0.1608 -0.0413 -0.0117
46419DOD     C383078  28.093   5.653  19.322  0.0638  0.3589  0.0029
46420DOD     C183079  24.744   4.433  10.921 -0.0751 -0.2379  0.0203
46420DOD     C283080  24.382   4.206  10.820  0.1179 -0.2142 -0.0846
46420DOD     C383081  23.913   4.300  10.752 -0.0607 -0.0127 -0.3466
46421DOD     C183082  19.707  16.172   1.267 -0.0977 -0.0918 -0.1310
46421DOD     C283083  19.657  16.147   1.730 -0.1733 -0.1619  0.0585
46421DOD     C383084  19.676  16.054   2.215  0.2024 -0.1046  0.0539
46422DOD     C183085   7.563  22.400  13.901  0.1722  0.2053 -0.4102
46422DOD     C283086   7.706  22.147  13.505  0.3679 -0.0555  0.0215
46422DOD     C383087   7.623  22.053  13.037 -0.0213 -0.2855 -0.3554
46423DOD     C183088  27.497  15.831  11.921 -0.1286 -0.2553 -0.1346
46423DOD     C283089  27.375  15.744  11.515  0.1392  0.2002  0.3151
46423DOD     C383090  27.122  15.389  11.305  0.1206 -0.1817 -0.1117
46424DOD     C183091  11.797   7.070   6.997  0.3542  0.0016 -0.1172
46424DOD     C283092  11.476   7.359   7.079  0.0809  0.2074 -0.2721
46424DOD     C383093  11.300   7.661   7.370 -0.1263 -0.2698  0.1231
46425DOD     C183094  10.161  19.920   8.405  0.1660  0.0060  0.1656
46425DOD     C283095  10.501  19.686   8.457  0.2533  0.1415 -0.0584
46425DOD     C383096  10.961  19.620   8.305  0.2078  0.2711 -0.1572
46426DOD     C183097   6.584   1.765  12.979  0.0103  0.0075 -0.1213
46426DOD     C283098   6.990   1.535  12.868 -0.0919  0.0575  0.2811
46426DOD     C383099   7.152   1.115  13.010 -0.2837 -0.0294 -0.0037
46427DOD     C183100  13.676  15.899  27.876  0.0912 -0.0272 -0.3201
46427DOD     C283101  13.229  15.699  27.753 -0.2119  0.0807 -0.4362
46427DOD     C383102  13.180  15.270  27.608 -0.1746 -0.1436  0.0599
46428DOD     C183103  21.508   1.435  11.529 -0.0535 -0.0094  0.0212
46428DOD     C283104  21.648   1.895  11.488  0.0536  0.1237  0.1188
46428DOD     C383105  22.025   2.163  11.339 -0.1038 -0.1888  0.1006
46429DOD     C183106  26.266  26.260  16.700 -0.1653 -0.1138 -0.2389
46429DOD     C283107  26.623  26.261  17.022  0.0544 -0.1880 -0.2461
46429DOD     C383108  26.877  25.951  17.099 -0.2935 -0.2865  0.2414
46430DOD     C183109  11.872  26.087   5.043  0.1562 -0.0548 -0.1106
46430DOD     C283110  12.060  25.846   4.705  0.1894  0.1767  0.1254
46430DOD     C383111  12.116  25.660   4.280  0.1153 -0.0825 -0.1897
46431DOD     C183112  12.846   1.612  21.051 -0.0836 -0.1008  0.3396
46431DOD     C283113  13.021   1.687  21.471  0.3351 -0.0454 -0.0110
46431DOD     C383114  13.440   1.697  21.707  0.1611  0.2318 -0.0539
46432DOD     C183115   6.845  12.310  25.740  0.0719  0.1818 -0.1186
46432DOD     C283116   7.156  12.048  25.440 -0.0280 -0.1171  0.0504
46432DOD     C383117   7.519  11.870  25.221  0.1473  0.1190  0.1350
46433DOD     C183118  25.076  25.897  12.633  0.2313  0.0114  0.0444
46433DOD     C283119  25.041  26.297  12.862  0.1152  0.0986  0.0669
46433DOD     C383120  25.114  26.696  12.637 -0.1757  0.2428  0.1690
46434DOD     C183121   7.389  14.336  12.076  0.2506  0.2330  0.2048
46434DOD     C283122   7.023  14.688  12.094 -0.1275  0.2828 -0.0850
46434DOD     C383123   6.690  15.028  12.222  0.0528 -0.0807 -0.1265
46435DOD     C183124   4.042  20.278  25.608  0.5313 -0.0592  0.1196
46435DOD     C283125   4.118  20.076  25.970  0.2671  0.2042 -0.1723
46435DOD     C383126   4.504  19.785  26.043  0.1895  0.3087 -0.1041
46436DOD     C183127   4.242  25.299  12.341  0.0058  0.1938  0.1130
46436DOD     C283128   4.570  25.602  12.435  0.0288  0.0409 -0.0439
46436DOD     C383129   4.933  25.816  12.589  0.1387  0.0186 -0.1314
46437DOD     C183130   3.269  10.252  16.423 -0.0744 -0.0005 -0.1293
46437DOD     C283131   2.911   9.977  16.616 -0.0731 -0.2161 -0.2661
46437DOD     C383132   2.672   9.959  17.010 -0.2120  0.0205  0.1512
46438DOD     C183133  10.159  28.303  20.973 -0.0515 -0.1558  0.0450
46438DOD     C283134  10.105  28.679  20.616 -0.2936  0.0698  0.0661
46438DOD     C383135  10.516  28.818  20.447 -0.1761  0.0057 -0.1222
46439DOD     C183136  21.074   1.532  10.716  0.1436 -0.0047 -0.1348
46439DOD     C283137  20.703   1.254  10.790  0.0582  0.1412 -0.4703
46439DOD     C383138  20.387   1.222  11.087  0.1175  0.2891 -0.0192
46440DOD     C183139  27.351  18.351  21.468  0.1802  0.2524  0.2403
46440DOD     C283140  27.225  18.031  21.811 -0.0664  0.1016  0.2958
46440DOD     C383141  27.088  17.954  22.222 -0.0216 -0.0782  0.3040
46441DOD     C183142  18.332  12.812   9.766  0.2234 -0.2520 -0.0987
46441DOD     C283143  18.234  13.275   9.656 -0.0694 -0.0119 -0.0110
46441DOD     C383144  18.135  13.742   9.535 -0.2092  0.0512 -0.0167
46442DOD     C183145   8.955   5.690   0.485 -0.0671 -0.0005  0.2601
46442DOD     C283146   9.335   5.504   0.668 -0.0145 -0.0640  0.0811
46442DOD     C383147   9.733   5.301   0.412 -0.0285  0.0254  0.1203
46443DOD     C183148   0.238  13.649  24.603  0.1018 -0.1840 -0.2065
46443DOD     C283149  30.231  14.042  24.706  0.2456  0.0147 -0.0550
46443DOD     C383150  30.006  14.301  24.418 -0.2195  0.3493  0.3484
46444DOD     C183151  11.021   0.606  27.209 -0.0370 -0.2711 -0.2409
46444DOD     C283152  11.074   0.440  26.794  0.1376 -0.0797 -0.3193
46444DOD     C383153  10.987   0.295  26.332  0.0656 -0.0978  0.0952
46445DOD     C183154  30.224   2.552  13.781  0.1473 -0.0175  0.0965
46445DOD     C283155  29.889   2.667  14.096 -0.2205  0.4021  0.0911
46445DOD     C383156  29.457   2.744  14.226  0.2416 -0.0151  0.0100
46446DOD     C183157   0.697  10.831   0.069 -0.1276  0.2447  0.0176
46446DOD     C283158   0.617  10.860   0.546 -0.1732 -0.0371 -0.1904
46446DOD     C383159   0.620  11.165   0.916  0.0472 -0.0543  0.2270
46447DOD     C183160   6.274  12.094  20.965 -0.1857  0.0116 -0.0666
46447DOD     C283161   6.138  12.507  20.801  0.0213 -0.0104 -0.4286
46447DOD     C383162   5.783  12.773  20.597  0.1561 -0.0356  0.0788
46448DOD     C183163  24.067   8.497  29.229 -0.1830  0.0604 -0.2380
46448DOD     C283164  24.005   8.761  29.650 -0.1953 -0.2777 -0.0494
46448DOD     C383165  23.739   9.052  29.945 -0.1420  0.4577 -0.1904
46449DOD     C183166  16.656   9.332   9.720 -0.0636 -0.1263 -0.0710
46449DOD     C283167  16.355   9.560   9.932  0.0435 -0.1099  0.2387
46449DOD     C383168  16.102   9.441  10.278 -0.2543 -0.1263  0.2123
46450DOD     C183169   0.703   7.788   9.178  0.1693  0.1081 -0.4445
46450DOD     C283170   0.818   7.359   9.419  0.4339 -0.0407 -0.0307
46450DOD     C383171   0.652   7.073   9.718  0.6526  0.4587  0.1860
46451DOD     C183172  21.579  26.606  30.091  0.1011 -0.2757  0.0482
46451DOD     C283173  21.602  26.461  29.657  0.1433  0.0100 -0.1059
46451DOD     C383174  21.519  26.357  29.235 -0.0941  0.1128 -0.0254
46452DOD     C183175  16.708  11.722   9.211  0.2810  0.0099 -0.1159
46452DOD     C283176  16.761  11.364   9.453  0.1607  0.0053  0.0297
46452DOD     C383177  16.755  10.939   9.300  0.0503  0.0172 -0.0414
46453DOD     C183178  22.468  11.406  23.441  0.2930  0.2688  0.1223
46453DOD     C283179  22.634  11.396  23.010 -0.2781 -0.1107 -0.1146
46453DOD     C383180  22.661  11.440  22.498 -0.0669 -0.0570  0.2289
46454DOD     C183181  18.106  22.828  25.820  0.1578  0.2856 -0.4720
46454DOD     C283182  17.930  22.408  25.900 -0.1864  0.0893 -0.3320
46454DOD     C383183  17.746  22.103  25.616 -0.0005 -0.0801  0.4570
46455DOD     C183184   6.355  16.558   3.282 -0.1225 -0.0676  0.2023
46455DOD     C283185   6.726  16.593   3.540 -0.0813 -0.2148 -0.1138
46455DOD     C383186   6.902  16.707   3.941  0.1644 -0.0945 -0.2235
46456DOD     C183187  26.952   3.577   8.074 -0.1262 -0.1893 -0.0239
46456DOD     C283188  27.335   3.723   8.247 -0.0433  0.0470  0.2018
46456DOD     C383189  27.792   3.594   8.341  0.0365 -0.1491  0.2566
46457DOD     C183190  20.443   6.277  12.762  0.3099 -0.0156  0.0407
46457DOD     C283191  20.104   5.994  12.695  0.1620  0.0276 -0.0453
46457DOD     C383192  19.830   5.902  13.109 -0.1183 -0.1088  0.0005
46458DOD     C183193  11.225  25.363  18.549  0.4937 -0.0012  0.1316
46458DOD     C283194  11.383  24.920  18.500  0.0147  0.0928  0.0736
46458DOD     C383195  11.765  24.740  18.332  0.0939  0.4041  0.1246
46459DOD     C183196   6.259   6.341   0.403  0.1700  0.0971 -0.1614
46459DOD     C283197   6.084   6.089   0.033 -0.1189 -0.1983  0.0889
46459DOD     C383198   5.939   5.784  30.049  0.2001 -0.2076  0.0829
46460DOD     C183199  17.693  14.028  22.124 -0.1090  0.1612  0.0017
46460DOD     C283200  17.367  14.349  22.003 -0.0808 -0.2102 -0.1669
46460DOD     C383201  17.259  14.773  22.267  0.2450 -0.0245 -0.2478
46461DOD     C183202  13.306   4.220   8.978  0.2077  0.1688 -0.0988
46461DOD     C283203  13.293   4.108   9.441  0.2365 -0.1442 -0.1081
46461DOD     C383204  13.292   4.165   9.909  0.2069  0.0790 -0.2208
46462DOD     C183205   6.533  29.422   8.846 -0.0181  0.1792 -0.3514
46462DOD     C283206   6.744  29.783   8.974  0.0014  0.1111  0.2910
46462DOD     C383207   6.807  30.232   8.818 -0.1274 -0.2244  0.3763
46463DOD     C183208  12.753   4.142  20.258 -0.0704 -0.3255 -0.4194
46463DOD     C283209  12.580   4.101  20.703 -0.2169 -0.0959 -0.1007
46463DOD     C383210  12.454   3.915  21.120  0.0411 -0.0015 -0.3700
46464DOD     C183211   3.529   9.240  27.561 -0.0549  0.0776 -0.4553
46464DOD     C283212   3.510   9.567  27.201 -0.2063  0.1310  0.0470
46464DOD     C383213   3.662   9.949  26.997  0.2374 -0.2312  0.1557
46465DOD     C183214  12.423  10.060  18.710 -0.2244  0.2122  0.1034
46465DOD     C283215  11.976  10.243  18.803 -0.1198  0.1065 -0.1045
46465DOD     C383216  11.573  10.448  18.783 -0.2123  0.0060 -0.1011
46466DOD     C183217   9.854  19.386  13.361 -0.1168  0.0855 -0.3753
46466DOD     C283218   9.446  19.211  13.237 -0.1618 -0.0708 -0.3737
46466DOD     C383219   9.209  19.197  12.845  0.0977 -0.2153 -0.2487
46467DOD     C183220   6.687  18.503   3.188 -0.0099  0.0877 -0.2839
46467DOD     C283221   7.088  18.686   3.223 -0.0706 -0.0269  0.0867
46467DOD     C383222   7.541  18.554   3.264  0.0946 -0.2935 -0.0424
46468DOD     C183223  12.670  19.736  17.066  0.1517 -0.3580  0.1279
46468DOD     C283224  12.248  19.479  17.096  0.2839  0.1211  0.3610
46468DOD     C383225  11.903  19.408  16.832 -0.0330 -0.0961 -0.0418
46469DOD     C183226  25.300   9.371  27.933  0.1674 -0.2598  0.1096
46469DOD     C283227  25.487   9.225  27.569  0.2480  0.0500  0.2084
46469DOD     C383228  25.627   8.993  27.170  0.0399 -0.1198 -0.0610
46470DOD     C183229  26.708  15.439  17.452  0.3682 -0.0223  0.4866
46470DOD     C283230  27.079  15.462  17.163  0.1684 -0.2940 -0.0037
46470DOD     C383231  27.245  15.438  16.702  0.2310 -0.2617  0.1327
46471DOD     C183232  10.287  28.235   0.842 -0.0291 -0.2350 -0.2352
46471DOD     C283233  10.425  27.849   0.757  0.1554  0.1446 -0.0168
46471DOD     C383234  10.859  27.661   0.788 -0.2208 -0.0148 -0.0343
46472DOD     C183235  11.802   9.955  25.882 -0.0439 -0.1703 -0.0776
46472DOD     C283236  11.790   9.783  25.410 -0.0201 -0.2241  0.1697
46472DOD     C383237  11.718   9.661  24.978  0.1462  0.1212 -0.0234
46473DOD     C183238  18.516  28.423  23.867 -0.1510  0.2457 -0.0834
46473DOD     C283239  18.806  28.065  23.716 -0.1940  0.0869 -0.3398
46473DOD     C383240  18.993  27.712  23.435 -0.1955  0.2990 -0.3200
46474DOD     C183241  17.440   6.710   1.818  0.0827 -0.4321 -0.1053
46474DOD     C283242  17.688   6.658   2.127  0.0622  0.1971 -0.0123
46474DOD     C383243  17.627   6.679   2.580 -0.2874  0.0395 -0.0742
46475DOD     C183244  17.613  23.214  18.025  0.4338 -0.1704  0.1174
46475DOD     C283245  17.795  23.527  18.302  0.2192  0.4560 -0.2609
46475DOD     C383246  17.849  23.742  18.729 -0.0840 -0.0711 -0.0813
46476DOD     C183247  18.709  17.952  23.836 -0.2897 -0.2317  0.1370
46476DOD     C283248  18.520  17.868  23.431 -0.2189 -0.1799 -0.1294
46476DOD     C383249  18.184  18.110  23.207  0.1893 -0.2184  0.2071
46477DOD     C183250  20.010  15.945  18.224 -0.0153  0.0022 -0.2388
46477DOD     C283251  20.046  15.718  17.850 -0.1156 -0.0793  0.0487
46477DOD     C383252  19.972  15.436  17.534 -0.0670 -0.3839 -0.1040
46478DOD     C183253  17.796   6.020   4.893  0.0631 -0.2085 -0.0499
46478DOD     C283254  17.995   5.631   4.729  0.1538 -0.1509  0.0056
46478DOD     C383255  17.893   5.247   4.462 -0.1503  0.2230 -0.1832
46479DOD     C183256   2.566   5.448  28.692  0.0986 -0.1341  0.1053
46479DOD     C283257   2.712   5.907  28.602  0.1413 -0.0342 -0.1485
46479DOD     C383258   2.729   6.354  28.477  0.1301 -0.0251  0.4835
46480DOD     C183259   7.043  28.355   3.780  0.3413  0.2441  0.0868
46480DOD     C283260   6.897  28.060   4.177  0.1375 -0.1387  0.0626
46480DOD     C383261   7.060  28.220   4.644  0.0050  0.0848 -0.0439
46481DOD     C183262  24.431  12.499  13.079 -0.2396 -0.0358 -0.1470
46481DOD     C283263  24.467  12.936  13.226  0.0303  0.2928  0.2094
46481DOD     C383264  24.317  13.024  13.682  0.1110  0.3048 -0.0089
46482DOD     C183265  17.698  23.831  21.172  0.1524 -0.1178  0.2244
46482DOD     C283266  18.160  23.744  21.138  0.1455 -0.1045  0.0813
46482DOD     C383267  18.482  23.393  21.182 -0.1469  0.0341  0.0173
46483DOD     C183268   2.021   5.415  16.951  0.5147  0.0394 -0.4559
46483DOD     C283269   2.051   5.443  17.440  0.3765 -0.3745 -0.0987
46483DOD     C383270   2.163   5.709  17.784 -0.3376  0.1064 -0.4088
46484DOD     C183271   0.257  14.436  10.100 -0.0318  0.0525  0.0974
46484DOD     C283272   0.682  14.231  10.097  0.1045 -0.2079  0.0590
46484DOD     C383273   0.974  13.903   9.957  0.1320  0.1527 -0.1311
46485DOD     C183274  26.217  17.558   5.421  0.1173  0.2450 -0.0147
46485DOD     C283275  25.976  17.888   5.655 -0.1038 -0.2281  0.4204
46485DOD     C383276  26.027  18.101   6.063 -0.1148 -0.3943 -0.2501
46486DOD     C183277  19.921  21.816  21.414 -0.3493 -0.0042 -0.1195
46486DOD     C283278  20.007  21.348  21.464  0.1216 -0.3320 -0.3793
46486DOD     C383279  19.819  21.036  21.748  0.0649  0.0828 -0.0999
46487DOD     C183280  13.839  10.692  16.397 -0.1436 -0.0158  0.0201
46487DOD     C283281  13.492  10.508  16.210 -0.4090 -0.0121  0.0239
46487DOD     C383282  13.215  10.164  16.268 -0.3509  0.2275 -0.0349
46488DOD     C183283  11.914   0.147   3.268  0.4022  0.0855 -0.1930
46488DOD     C283284  12.365   0.186   3.067 -0.0858 -0.3082  0.2580
46488DOD     C383285  12.756   0.503   3.082 -0.2569  0.1757  0.3026
46489DOD     C183286  10.313  20.974  12.201 -0.0951  0.0847  0.2330
46489DOD     C283287  10.343  20.549  12.406  0.0110 -0.1182  0.3325
46489DOD     C383288  10.387  20.118  12.396 -0.1110 -0.1639 -0.1617
46490DOD     C183289  19.128   6.268  14.474  0.2412  0.1719 -0.2005
46490DOD     C283290  18.949   6.588  14.807 -0.2813 -0.0905 -0.0793
46490DOD     C383291  18.771   6.971  14.575 -0.2060  0.0935 -0.0771
46491DOD     C183292  29.046  17.662   3.304 -0.2765  0.2023 -0.0302
46491DOD     C283293  28.745  17.509   2.941 -0.0473 -0.1671  0.1323
46491DOD     C383294  28.341  17.462   2.811  0.1885  0.0466  0.1464
46492DOD     C183295  21.050  28.112  25.537 -0.2418 -0.0720 -0.3743
46492DOD     C283296  21.118  27.684  25.714 -0.0468 -0.4595  0.0789
46492DOD     C383297  21.453  27.368  25.732  0.0826  0.0647 -0.0795
46493DOD     C183298  14.442  12.129  13.911  0.1154  0.0132 -0.0116
46493DOD     C283299  14.018  12.289  14.092  0.2614 -0.0643  0.3013
46493DOD     C383300  13.636  12.459  14.204 -0.0023 -0.1919 -0.2408
46494DOD     C183301   8.616  11.173   0.137  0.0843 -0.1763 -0.2668
46494DOD     C283302   8.880  11.161   0.474 -0.2371  0.0692  0.1245
46494DOD     C383303   9.058  11.402   0.851  0.1507  0.0738  0.0594
46495DOD     C183304   8.068   5.447  24.935  0.0911  0.0044  0.0926
46495DOD     C283305   7.765   5.238  24.681  0.0556 -0.0230 -0.0826
46495DOD     C383306   7.493   4.897  24.494  0.2019  0.0542 -0.1813
46496DOD     C183307  24.238  21.805  24.972 -0.2088 -0.4079 -0.5322
46496DOD     C283308  24.557  21.501  24.871 -0.2130  0.0808  0.1931
46496DOD     C383309  25.047  21.501  24.891 -0.0195 -0.1395 -0.0256
46497DOD     C183310  13.719  20.820  15.786 -0.0111 -0.2612 -0.1797
46497DOD     C283311  13.999  21.064  16.019 -0.0507 -0.2159 -0.2365
46497DOD     C383312  14.156  21.285  16.372 -0.2136 -0.0036 -0.0948
46498DOD     C183313  19.804  11.905  26.725  0.0778  0.1420  0.0959
46498DOD     C283314  19.515  11.778  26.372 -0.0650 -0.0297 -0.2990
46498DOD     C383315  19.263  11.373  26.337 -0.1387  0.1009  0.0073
46499DOD     C183316   9.990  20.434  29.347 -0.0615 -0.0168  0.2110
46499DOD     C283317   9.729  20.240  29.016  0.0507 -0.0481  0.0468
46499DOD     C383318   9.460  19.886  29.006 -0.1097 -0.0189 -0.0488
46500DOD     C183319  23.388   3.534  13.508  0.0249  0.1080  0.1459
46500DOD     C283320  23.293   3.366  13.910 -0.0042 -0.3256  0.2911
46500DOD     C383321  23.472   3.188  14.250  0.0715  0.0606 -0.1365
46501DOD     C183322   1.388  12.844  15.871 -0.0163 -0.0094  0.0386
46501DOD     C283323   1.421  12.973  16.325 -0.0341 -0.1393  0.0121
46501DOD     C383324   1.239  12.726  16.710 -0.0723  0.1992 -0.1086
46502DOD     C183325  26.674  11.238  16.736 -0.0490 -0.4157 -0.0898
46502DOD     C283326  26.679  11.202  16.278  0.0871 -0.2735  0.0367
46502DOD     C383327  26.542  11.239  15.822 -0.0600  0.2309  0.1745
46503DOD     C183328  13.853  24.477  13.637 -0.0466  0.1587  0.1412
46503DOD     C283329  14.229  24.449  13.787 -0.0100  0.1839 -0.1475
46503DOD     C383330  14.619  24.232  13.997 -0.0865  0.0064 -0.2654
46504DOD     C183331  17.650   3.858   4.945  0.1291 -0.1589  0.3016
46504DOD     C283332  17.314   3.584   4.807  0.2159  0.1115  0.0976
46504DOD     C383333  16.922   3.670   4.470 -0.1179  0.0688 -0.1937
46505DOD     C183334   1.222   8.298   3.668  0.0534 -0.2666  0.1778
46505DOD     C283335   1.523   8.578   3.420  0.1030 -0.0493  0.1334
46505DOD     C383336   1.544   8.768   2.999 -0.0811  0.0918 -0.3491
46506DOD     C183337   6.688  20.002   9.059 -0.1480 -0.1244 -0.0056
46506DOD     C283338   6.359  19.671   9.037  0.3091 -0.2207 -0.1479
46506DOD     C383339   5.972  19.423   9.113 -0.1658  0.0315 -0.1226
46507DOD     C183340  22.987   0.362   0.574 -0.0739 -0.0454  0.1829
46507DOD     C283341  22.792   0.219   0.959  0.2660  0.1091 -0.2380
46507DOD     C383342  22.783  30.126   1.144  0.1849  0.1816 -0.1304
46508DOD     C183343   9.855  19.265  20.774 -0.1857 -0.0659 -0.0072
46508DOD     C283344  10.129  19.529  20.464 -0.2499  0.0675 -0.3772
46508DOD     C383345  10.382  19.914  20.611 -0.1140 -0.1340 -0.0910
46509DOD     C183346  17.648   2.805  25.750 -0.2281 -0.1882  0.1935
46509DOD     C283347  17.285   2.599  25.544 -0.1111 -0.2616  0.2860
46509DOD     C383348  16.829   2.502  25.629  0.2172  0.1954  0.0318
46510DOD     C183349  19.600   5.857  20.370 -0.1119  0.2457  0.1105
46510DOD     C283350  19.732   6.197  20.043 -0.2326 -0.1109 -0.0535
46510DOD     C383351  20.008   6.575  19.983  0.1742  0.2892 -0.0824
46511DOD     C183352  13.847   0.084   4.461  0.1296  0.1901 -0.1459
46511DOD     C283353  13.715   0.519   4.262 -0.2335  0.1033  0.3102
46511DOD     C383354  13.562   0.690   3.832 -0.0981  0.1321 -0.1592
46512DOD     C183355  17.307   9.259  16.296  0.0340  0.0581 -0.0685
46512DOD     C283356  17.005   9.537  16.413 -0.1165  0.0978 -0.2910
46512DOD     C383357  17.147   9.833  16.737 -0.0808  0.0776 -0.0219
46513DOD     C183358  26.341  19.282   7.197 -0.1883 -0.1464 -0.0756
46513DOD     C283359  26.606  18.961   7.081  0.0177  0.0082 -0.0438
46513DOD     C383360  26.883  18.586   7.122 -0.1093  0.0789  0.0652
46514DOD     C183361  26.333  23.964  24.616 -0.1377  0.2160  0.0810
46514DOD     C283362  26.053  23.963  24.926  0.1747 -0.0573 -0.4001
46514DOD     C383363  25.848  23.644  25.256  0.1668  0.2203  0.2657
46515DOD     C183364  29.636  30.174   9.984  0.0666 -0.2144 -0.0192
46515DOD     C283365  29.501  30.009   9.568  0.3693  0.0181 -0.0846
46515DOD     C383366  29.242  29.768   9.305  0.3502 -0.1070  0.2985
46516DOD     C183367   9.398  26.588  30.112 -0.1704  0.0754  0.0568
46516DOD     C283368   9.369  26.356  29.720 -0.2715 -0.0565 -0.0891
46516DOD     C383369   9.286  26.423  29.287 -0.1644 -0.0884 -0.1284
46517DOD     C183370  11.343   3.091  12.624 -0.1366 -0.1554 -0.1970
46517DOD     C283371  11.059   2.746  12.575  0.0425 -0.0111 -0.1927
46517DOD     C383372  10.887   2.510  12.975 -0.1504 -0.1205 -0.0974
46518DOD     C183373   6.511  24.494   9.774  0.2562  0.1095  0.1156
46518DOD     C283374   6.122  24.695  10.000 -0.0011  0.0700 -0.0429
46518DOD     C383375   5.901  25.073  10.146 -0.0339 -0.0064 -0.0006
46519DOD     C183376  10.041  11.147  15.966 -0.1092  0.2473 -0.1218
46519DOD     C283377   9.624  11.240  16.110 -0.0522  0.3771 -0.0503
46519DOD     C383378   9.315  11.376  16.395  0.0272 -0.0500 -0.1332
46520DOD     C183379   5.713  20.820  10.356 -0.2752 -0.1345 -0.2836
46520DOD     C283380   5.693  20.679  10.758 -0.0587 -0.1591  0.0056
46520DOD     C383381   5.789  20.544  11.180  0.1061  0.0548  0.0341
46521DOD     C183382  10.954  14.127   1.272 -0.1520  0.0606 -0.1784
46521DOD     C283383  10.946  13.649   1.152 -0.2078 -0.1525  0.0839
46521DOD     C383384  11.268  13.537   0.841  0.4107  0.4298  0.0277
46522DOD     C183385   6.629   7.918   0.866 -0.1336 -0.3198 -0.2032
46522DOD     C283386   6.811   7.894   1.287  0.1240 -0.3070 -0.0138
46522DOD     C383387   6.889   8.017   1.779 -0.0939  0.0306  0.2534
46523DOD     C183388  22.473   4.973  23.380 -0.3808  0.0675 -0.0595
46523DOD     C283389  22.538   5.358  23.108 -0.0577  0.1995  0.0837
46523DOD     C383390  22.228   5.518  22.813  0.0218 -0.0176 -0.1434
46524DOD     C183391  16.417  24.557  27.102 -0.3730  0.2557  0.0504
46524DOD     C283392  16.735  24.608  27.478  0.0213 -0.2402  0.3189
46524DOD     C383393  17.210  24.521  27.563  0.3508  0.0391  0.0577
46525DOD     C183394   6.014   1.844  22.977  0.0833 -0.1847 -0.0294
46525DOD     C283395   5.931   1.911  22.528  0.0268  0.1853 -0.0396
46525DOD     C383396   5.624   2.231  22.270  0.0461 -0.4876  0.1769
46526DOD     C183397   8.378   1.450  11.122  0.1300  0.0644 -0.0761
46526DOD     C283398   7.946   1.407  11.255 -0.1691  0.1246  0.1751
46526DOD     C383399   7.602   1.574  11.526 -0.0103  0.3482 -0.1754
46527DOD     C183400   8.233   0.240  22.965 -0.1929  0.1143 -0.0235
46527DOD     C283401   8.621  30.327  23.045  0.0095  0.0502  0.3702
46527DOD     C383402   8.644  29.897  22.863  0.0785  0.0982 -0.1768
46528DOD     C183403  23.294   6.439  11.974 -0.2276 -0.0622 -0.0899
46528DOD     C283404  23.533   6.018  12.163 -0.1337 -0.0313  0.0441
46528DOD     C383405  23.590   5.876  12.614 -0.0798  0.1906  0.2366
46529DOD     C183406  20.604   6.452   6.556  0.0726 -0.3662  0.4456
46529DOD     C283407  20.530   6.893   6.654 -0.1923  0.1653  0.1624
46529DOD     C383408  20.474   7.318   6.589  0.0156  0.0752  0.0419
46530DOD     C183409   8.946  20.941   1.727 -0.0950  0.0537  0.2464
46530DOD     C283410   9.096  20.529   1.524 -0.3905  0.1610 -0.0089
46530DOD     C383411   9.153  20.059   1.704 -0.0256  0.0051 -0.1518
46531DOD     C183412  28.883  24.919   6.117 -0.0968  0.2634 -0.1071
46531DOD     C283413  28.856  24.841   6.576  0.0325 -0.1129  0.1309
46531DOD     C383414  28.862  24.710   7.030 -0.2340  0.0837  0.3829
46532DOD     C183415   5.500   3.535   6.318  0.3053 -0.1212 -0.0705
46532DOD     C283416   5.730   3.160   6.216 -0.2905 -0.3688  0.1977
46532DOD     C383417   6.096   3.011   5.985 -0.3468 -0.0328 -0.2904
46533DOD     C183418  25.825  16.131  25.984  0.0608 -0.1460 -0.0460
46533DOD     C283419  26.225  15.968  26.133  0.0349  0.3920  0.0344
46533DOD     C383420  26.629  15.740  26.214 -0.0914  0.0677  0.0494
46534DOD     C183421  24.744   1.394  28.694 -0.1700 -0.0890 -0.1350
46534DOD     C283422  24.269   1.334  28.812 -0.0281  0.1154 -0.2576
46534DOD     C383423  23.865   1.271  29.114 -0.0777  0.0775 -0.0241
46535DOD     C183424  22.444  23.268  26.521 -0.2322  0.0347  0.3319
46535DOD     C283425  22.490  23.388  26.978 -0.1093 -0.0524  0.0297
46535DOD     C383426  22.601  23.625  27.368  0.1991 -0.0714 -0.2947
46536DOD     C183427   2.608  30.233  11.240 -0.1698  0.0153 -0.0284
46536DOD     C283428   2.192  30.062  11.159  0.2233 -0.2292  0.1083
46536DOD     C383429   1.870  29.735  11.345 -0.4300  0.1115 -0.1133
46537DOD     C183430  15.782  29.960  21.945 -0.0947  0.3043  0.0245
46537DOD     C283431  15.409  30.196  21.898 -0.2184 -0.5785  0.1146
46537DOD     C383432  15.287   0.132  21.523 -0.3843 -0.0247 -0.0104
46538DOD     C183433   5.785  24.019   4.692 -0.2221 -0.2149 -0.0038
46538DOD     C283434   5.616  23.696   4.950  0.1525  0.2050 -0.2233
46538DOD     C383435   5.649  23.262   5.159  0.0996 -0.0053 -0.0856
46539DOD     C183436  20.322  29.940   5.053  0.1807  0.0001 -0.3094
46539DOD     C283437  20.291  29.829   4.558  0.0461  0.1101  0.2689
46539DOD     C383438  20.636  29.520   4.359 -0.0217 -0.1440  0.1965
46540DOD     C183439  13.667   8.432  28.325 -0.1219  0.1330  0.1063
46540DOD     C283440  13.905   8.022  28.484  0.0264  0.2165 -0.0785
46540DOD     C383441  13.897   7.701  28.828  0.1701 -0.2912  0.2008
46541DOD     C183442  22.708  10.706  17.223  0.1611 -0.0423 -0.2183
46541DOD     C283443  22.709  11.033  17.458 -0.1209  0.0141 -0.4616
46541DOD     C383444  22.641  11.221  17.866  0.0113  0.3010  0.2508
46542DOD     C183445   0.967   4.481   5.373  0.0480 -0.0916 -0.0648
46542DOD     C283446   1.473   4.510   5.456  0.0959 -0.0318 -0.1876
46542DOD     C383447   1.817   4.189   5.505  0.0176  0.1474  0.0308
46543DOD     C183448  23.156  19.580  28.127 -0.4648  0.0143  0.3461
46543DOD     C283449  22.735  19.511  27.946 -0.1925  0.0564  0.1205
46543DOD     C383450  22.334  19.386  27.790 -0.0537  0.2855 -0.1831
46544DOD     C183451   8.061   0.613  14.433  0.1124  0.1339 -0.2445
46544DOD     C283452   8.532   0.580  14.278 -0.1280  0.1343  0.0080
46544DOD     C383453   8.894   0.399  14.500  0.0386  0.1442 -0.0602
46545DOD     C183454   6.932  15.281  12.776  0.0879  0.0886  0.1062
46545DOD     C283455   6.964  15.207  13.245 -0.0134  0.0101 -0.0845
46545DOD     C383456   7.106  15.472  13.600  0.0943  0.0437 -0.1361
46546DOD     C183457  26.657  18.568   1.461  0.1405  0.0428 -0.0362
46546DOD     C283458  26.658  18.522   1.010 -0.2591 -0.1349  0.2882
46546DOD     C383459  26.560  18.642   0.564 -0.0070  0.0627  0.1147
46547DOD     C183460  23.136   3.216   0.076  0.0750 -0.0583  0.0648
46547DOD     C283461  23.195   3.556   0.364 -0.0508  0.0635  0.0515
46547DOD     C383462  22.988   3.704   0.733  0.0297  0.2824 -0.0496
46548DOD     C183463  28.341   1.244  19.703  0.1580 -0.0687 -0.3925
46548DOD     C283464  28.134   1.651  19.587  0.0434  0.3120  0.2756
46548DOD     C383465  27.776   1.898  19.565 -0.1469 -0.1441  0.2118
46549DOD     C183466  22.793   6.526  28.326 -0.1360  0.3096  0.1887
46549DOD     C283467  22.434   6.204  28.509  0.1795  0.1121  0.0698
46549DOD     C383468  22.251   6.176  28.946 -0.0945 -0.1312  0.1501
46550DOD     C183469   7.440  21.944   0.473 -0.0212  0.1085  0.1479
46550DOD     C283470   7.505  22.093   0.918  0.0059 -0.2524  0.3513
46550DOD     C383471   7.373  22.304   1.273 -0.1384 -0.1984  0.2270
46551DOD     C183472   0.231   5.322   5.611  0.2402 -0.3122 -0.2121
46551DOD     C283473   0.634   5.389   5.432 -0.2056 -0.2145 -0.1694
46551DOD     C383474   1.070   5.546   5.356 -0.4670 -0.4902  0.2162
46552DOD     C183475   7.226  26.433   5.941 -0.0005 -0.3277  0.1569
46552DOD     C283476   7.462  26.270   5.562  0.1804  0.1078  0.0225
46552DOD     C383477   7.440  26.346   5.146 -0.0127 -0.1189 -0.2239
46553DOD     C183478   4.822   7.118  28.159 -0.1823 -0.1129  0.1461
46553DOD     C283479   5.300   6.961  28.238 -0.1328 -0.2230  0.2915
46553DOD     C383480   5.544   6.689  27.972 -0.0273 -0.1078  0.0567
46554DOD     C183481  18.703   3.577  25.307  0.0070  0.1569 -0.0420
46554DOD     C283482  18.370   3.695  25.587  0.1704  0.2639  0.1026
46554DOD     C383483  18.160   3.490  25.925 -0.2151 -0.1629 -0.1955
46555DOD     C183484   4.771  19.072  30.055 -0.1337 -0.0459  0.1339
46555DOD     C283485   5.004  19.025  29.613  0.1415 -0.1622  0.1145
46555DOD     C383486   4.955  18.978  29.154 -0.0627 -0.1320  0.0211
46556DOD     C183487  16.736   8.264  14.640  0.4622  0.3147 -0.2383
46556DOD     C283488  16.507   7.903  14.402 -0.0874 -0.0503 -0.0351
46556DOD     C383489  16.725   7.662  14.015 -0.0714  0.2408  0.1695
46557DOD     C183490  17.478  22.952   8.169  0.1551 -0.1185  0.0286
46557DOD     C283491  17.145  22.943   8.515  0.1097  0.3125 -0.0768
46557DOD     C383492  17.092  22.663   8.900  0.0203 -0.4642  0.1107
46558DOD     C183493  29.166  29.234  28.840 -0.2699  0.4099  0.0989
46558DOD     C283494  29.540  29.044  29.071 -0.0820  0.1096  0.0107
46558DOD     C383495  29.482  28.539  29.198 -0.1682  0.0596  0.0299
46559DOD     C183496   1.591   0.053   4.461 -0.2858  0.1224  0.2521
46559DOD     C283497   1.163  30.273   4.468 -0.1788  0.1034 -0.1720
46559DOD     C383498   0.933  29.916   4.427 -0.0684  0.1206  0.1271
46560DOD     C183499   8.320   1.795   9.653  0.2735  0.1827 -0.1508
46560DOD     C283500   8.015   1.420   9.805  0.2326 -0.0637 -0.4072
46560DOD     C383501   7.823   1.198  10.168 -0.2383  0.0944  0.2475
46561DOD     C183502   0.084  15.438  18.253  0.0134 -0.0244 -0.0086
46561DOD     C283503   0.380  15.044  18.229  0.0793  0.0392  0.2103
46561DOD     C383504   0.774  14.949  18.465  0.0640  0.3362 -0.2555
46562DOD     C183505  11.555   5.326  26.006  0.3031 -0.0097 -0.1102
46562DOD     C283506  11.737   4.881  25.911  0.1149 -0.1951  0.0273
46562DOD     C383507  11.810   4.439  25.855 -0.1779 -0.3655  0.1726
46563DOD     C183508  16.986   0.203   1.020  0.0722 -0.1014 -0.0428
46563DOD     C283509  16.672  30.129   1.067 -0.1296  0.0159  0.1572
46563DOD     C383510  16.266  29.936   1.327 -0.0244 -0.0589 -0.3226
46564DOD     C183511   7.744  27.171  10.267 -0.4386  0.0997 -0.2092
46564DOD     C283512   7.551  27.527  10.019  0.0408 -0.0790  0.0461
46564DOD     C383513   7.522  27.781   9.636 -0.3274 -0.0817 -0.0177
46565DOD     C183514  10.370   7.556  23.805  0.1615  0.2315 -0.0981
46565DOD     C283515  10.141   7.696  24.163 -0.0655  0.0276 -0.1489
46565DOD     C383516  10.157   7.758  24.620 -0.2344  0.2515 -0.1553
46566DOD     C183517   6.445  20.858   6.790 -0.2473  0.0136  0.0162
46566DOD     C283518   6.102  20.591   6.728 -0.1111 -0.0250 -0.0137
46566DOD     C383519   5.665  20.536   6.778 -0.3605 -0.1831 -0.1505
46567DOD     C183520  21.366  18.782  20.034 -0.0651  0.2251  0.2604
46567DOD     C283521  21.285  19.176  20.354 -0.4196  0.0445  0.1363
46567DOD     C383522  21.148  19.587  20.308 -0.0368  0.0639 -0.0750
46568DOD     C183523  10.651   8.340  29.730  0.0717 -0.1967  0.0858
46568DOD     C283524  10.550   8.471  29.279 -0.2616  0.0368  0.1467
46568DOD     C383525  10.331   8.670  28.924  0.0243 -0.1064 -0.3470
46569DOD     C183526  27.767  21.091   1.224  0.1927 -0.0832  0.1025
46569DOD     C283527  27.262  21.128   1.230  0.1758  0.2652 -0.0843
46569DOD     C383528  26.798  21.143   1.032 -0.0889  0.2454  0.0360
46570DOD     C183529   6.315  17.350   8.511  0.0813  0.3215 -0.2977
46570DOD     C283530   6.401  17.789   8.536 -0.4997 -0.1261  0.0153
46570DOD     C383531   6.410  18.201   8.372  0.2040  0.2025 -0.0626
46571DOD     C183532   8.021  10.591  22.071 -0.2058 -0.1246  0.0644
46571DOD     C283533   8.314  10.360  22.348  0.1849 -0.0310  0.2761
46571DOD     C383534   8.727  10.167  22.537  0.0059 -0.2450  0.0561
46572DOD     C183535  12.195  12.166  15.988  0.4262  0.0934  0.2897
46572DOD     C283536  12.341  12.049  16.437  0.0007  0.5912 -0.0159
46572DOD     C383537  12.494  11.916  16.845  0.2621  0.2290 -0.0421
46573DOD     C183538  13.252  24.888  16.361  0.1657 -0.1131  0.0912
46573DOD     C283539  13.632  25.123  16.431 -0.1197  0.0107  0.0247
46573DOD     C383540  14.006  25.397  16.501  0.3548  0.0576  0.1581
46574DOD     C183541   2.504  15.029  29.263 -0.1373  0.2618 -0.1963
46574DOD     C283542   2.078  15.205  29.102  0.2787  0.0024  0.4537
46574DOD     C383543   1.614  15.107  29.209  0.2179 -0.2754  0.3051
46575DOD     C183544  29.072  23.480   3.112  0.1601 -0.4228 -0.3430
46575DOD     C283545  29.468  23.712   3.023 -0.0131  0.3747 -0.2304
46575DOD     C383546  29.762  23.999   2.830 -0.2176 -0.0450  0.0598
46576DOD     C183547   8.222   4.302  26.418  0.2411 -0.2008 -0.0268
46576DOD     C283548   7.780   4.409  26.613 -0.0347 -0.0124  0.1748
46576DOD     C383549   7.481   4.723  26.639 -0.3082  0.2749  0.3673
46577DOD     C183550   9.358  10.870  11.333  0.1509 -0.2339 -0.2711
46577DOD     C283551   9.696  10.934  11.690 -0.0884  0.0050 -0.0526
46577DOD     C383552   9.741  11.290  11.982 -0.3175  0.2467 -0.1053
46578DOD     C183553  20.669   5.823   9.265 -0.2167 -0.0892  0.0478
46578DOD     C283554  20.621   6.069   9.683 -0.3921 -0.0725 -0.0543
46578DOD     C383555  20.803   6.502   9.842 -0.0430 -0.2528 -0.4330
46579DOD     C183556  18.020  26.870  26.193  0.0782  0.2301 -0.0997
46579DOD     C283557  18.447  26.690  26.345  0.0033  0.2158 -0.1137
46579DOD     C383558  18.905  26.699  26.218 -0.0410  0.1474  0.0938
46580DOD     C183559  22.792   6.387  15.434 -0.2340 -0.2794 -0.1153
46580DOD     C283560  22.598   6.245  14.985 -0.0027  0.0069 -0.0465
46580DOD     C383561  22.354   6.171  14.581  0.1834  0.0127  0.1053
46581DOD     C183562  24.741   3.192   2.235 -0.0543  0.0770  0.0459
46581DOD     C283563  24.321   3.312   2.174  0.0597 -0.0569  0.2927
46581DOD     C383564  24.038   3.217   2.568  0.0048  0.4171  0.0245
46582DOD     C183565  13.449   6.725   9.141  0.1418  0.1460  0.1283
46582DOD     C283566  13.857   6.760   8.952  0.0994  0.3481  0.0083
46582DOD     C383567  14.175   6.454   9.025  0.0806  0.1310 -0.0738
46583DOD     C183568  16.455  16.049  15.521 -0.4693 -0.1776 -0.1228
46583DOD     C283569  16.290  16.170  15.974  0.4028  0.0183 -0.0862
46583DOD     C383570  16.246  16.166  16.452  0.0482  0.0080  0.0391
46584DOD     C183571  19.392  28.444  20.918  0.0404 -0.1226  0.0237
46584DOD     C283572  19.674  28.202  20.626 -0.1140  0.4702 -0.0624
46584DOD     C383573  19.977  27.933  20.373  0.1901  0.2695  0.1664
46585DOD     C183574  25.730  27.589  22.119 -0.4904  0.0194  0.1414
46585DOD     C283575  25.849  27.249  22.366 -0.2508  0.1435 -0.1829
46585DOD     C383576  25.748  26.898  22.693 -0.0643  0.0795  0.1275
46586DOD     C183577  28.028  29.098  21.120 -0.1743 -0.0660 -0.0763
46586DOD     C283578  28.508  29.043  20.904  0.0565 -0.1426  0.0507
46586DOD     C383579  28.948  28.902  20.899  0.1863  0.0463  0.1005
46587DOD     C183580  14.100   8.916  11.421  0.0668 -0.0753  0.2112
46587DOD     C283581  14.473   8.735  11.352 -0.2875 -0.1465 -0.0410
46587DOD     C383582  14.889   8.543  11.519  0.1116  0.0170 -0.0011
46588DOD     C183583   5.663   6.590  25.530  0.1794 -0.0308 -0.0168
46588DOD     C283584   5.409   7.012  25.375 -0.2339 -0.0877 -0.1284
46588DOD     C383585   5.200   7.413  25.357 -0.0435 -0.0856  0.0484
46589DOD     C183586  12.318   5.358  16.096 -0.1105  0.0716 -0.2119
46589DOD     C283587  12.652   5.667  16.098 -0.1675  0.2619  0.2355
46589DOD     C383588  13.045   5.989  16.047  0.0551 -0.1118  0.0928
46590DOD     C183589  11.178  27.192   5.543  0.4046  0.2693  0.0752
46590DOD     C283590  11.127  27.614   5.257  0.2317 -0.0517  0.0019
46590DOD     C383591  11.201  27.854   4.902 -0.1647 -0.2462 -0.2648
46591DOD     C183592  12.501  18.776  12.800  0.0829 -0.0369  0.2481
46591DOD     C283593  12.441  19.090  12.432  0.3075  0.0898 -0.0415
46591DOD     C383594  12.388  19.239  12.012  0.0803  0.2849  0.1887
46592DOD     C183595   6.568  26.888  29.289  0.1464 -0.3127  0.2368
46592DOD     C283596   6.452  26.433  29.403 -0.2621 -0.0293 -0.2782
46592DOD     C383597   6.366  26.155  29.806 -0.0049  0.1135 -0.3328
46593DOD     C183598   0.907   9.890  10.515  0.0502  0.1807 -0.2244
46593DOD     C283599   1.224   9.589  10.621 -0.1429  0.2532  0.0116
46593DOD     C383600   1.520   9.290  10.802  0.4178 -0.3979 -0.0514
46594DOD     C183601   1.359   8.793  16.295 -0.0621 -0.1564  0.0606
46594DOD     C283602   1.670   8.454  16.426 -0.0014  0.0887  0.3803
46594DOD     C383603   2.004   8.073  16.368 -0.3491  0.2501  0.2425
46595DOD     C183604  10.456  27.688  -0.025 -0.0592 -0.0916  0.0220
46595DOD     C283605  10.005  27.789  30.258 -0.2795  0.2313 -0.1509
46595DOD     C383606   9.561  27.865   0.036 -0.2712 -0.0017 -0.2285
46596DOD     C183607  25.856  25.392  12.599  0.0531 -0.0063  0.3804
46596DOD     C283608  25.526  25.402  12.254  0.2569 -0.0187  0.2045
46596DOD     C383609  25.390  25.055  11.939  0.0113  0.0817  0.2712
46597DOD     C183610   0.751  16.228   8.333 -0.0132  0.1938  0.0123
46597DOD     C283611   0.865  16.207   8.736  0.0490 -0.0715  0.0384
46597DOD     C383612   0.772  16.346   9.117 -0.0681  0.1135  0.2862
46598DOD     C183613   1.228  27.032  13.707 -0.0958 -0.3617  0.1483
46598DOD     C283614   1.180  27.308  14.123  0.1059  0.0467 -0.1571
46598DOD     C383615   1.167  27.221  14.582  0.3946  0.0323 -0.0119
46599DOD     C183616  16.118   6.778   3.666  0.2381 -0.2642  0.0616
46599DOD     C283617  15.862   6.553   4.051  0.1573  0.0171  0.0090
46599DOD     C383618  15.629   6.776   4.380 -0.1986 -0.3228 -0.2109
46600DOD     C183619  27.703  16.018   4.266  0.3413 -0.2452 -0.0425
46600DOD     C283620  28.127  16.197   4.109 -0.2055  0.1038  0.0684
46600DOD     C383621  28.407  16.448   3.822  0.0878  0.1225 -0.0397
46601DOD     C183622   1.844   6.974   7.032 -0.1758  0.2340 -0.0694
46601DOD     C283623   1.751   6.617   6.766 -0.0815  0.0459 -0.0385
46601DOD     C383624   1.603   6.449   6.358 -0.1055  0.0646  0.0658
46602DOD     C183625  27.145   2.569  27.877  0.0801  0.0691  0.0147
46602DOD     C283626  27.179   2.905  28.154 -0.1460 -0.2907 -0.1959
46602DOD     C383627  26.924   3.229  28.340  0.0938 -0.0012 -0.1371
46603DOD     C183628  30.287   4.821   2.532  0.1331  0.2501  0.0697
46603DOD     C283629   0.473   4.778   2.498  0.4182 -0.0613 -0.0456
46603DOD     C383630   0.936   4.633   2.460  0.0424 -0.2033  0.2315
46604DOD     C183631  20.398  11.382   3.863  0.0429  0.0769 -0.1804
46604DOD     C283632  20.354  11.781   4.117  0.0259 -0.3070  0.1000
46604DOD     C383633  20.358  12.321   4.305 -0.1966  0.1411  0.1094
46605DOD     C183634   1.033  25.704   8.832 -0.2096  0.0999  0.0418
46605DOD     C283635   0.948  25.304   8.623 -0.2028  0.0346  0.3124
46605DOD     C383636   0.716  24.900   8.549 -0.0285  0.1832  0.2189
46606DOD     C183637  13.097  15.232  30.279  0.0730  0.0687  0.2386
46606DOD     C283638  13.613  15.033   0.014 -0.0480 -0.1010  0.1116
46606DOD     C383639  14.051  15.142  30.273  0.1824  0.0325  0.0115
46607DOD     C183640  29.606  28.284   7.235  0.4747  0.0980  0.0128
46607DOD     C283641  29.606  27.858   7.060  0.1474  0.1843 -0.4232
46607DOD     C383642  29.973  27.609   6.987 -0.0440  0.0018  0.0776
46608DOD     C183643   8.822  13.662   8.446  0.1389 -0.1140 -0.0624
46608DOD     C283644   8.631  13.627   8.891  0.1730 -0.0340 -0.0098
46608DOD     C383645   8.424  13.559   9.337  0.2791  0.0652 -0.0555
46609DOD     C183646  27.580  22.632   4.703  0.1892 -0.0632  0.3363
46609DOD     C283647  27.418  23.041   4.600 -0.0124 -0.3979  0.0955
46609DOD     C383648  27.483  23.439   4.280 -0.0380  0.0441 -0.0076
46610DOD     C183649  24.932   5.228   0.088  0.0085 -0.0648 -0.1529
46610DOD     C283650  25.100   4.917   0.369  0.2050 -0.4213  0.0521
46610DOD     C383651  25.266   4.897   0.759  0.3557 -0.1527 -0.2610
46611DOD     C183652   5.578  13.938   1.112  0.0727  0.3309  0.0163
46611DOD     C283653   6.031  13.831   1.022  0.2479 -0.2807  0.0674
46611DOD     C383654   6.472  13.647   1.076  0.1614  0.1936  0.1469
46612DOD     C183655  12.915  21.783  13.009 -0.0221  0.0278  0.1495
46612DOD     C283656  12.767  21.374  13.087  0.1760 -0.3269 -0.1625
46612DOD     C383657  12.765  20.910  13.041  0.1551 -0.0417 -0.2855
46613DOD     C183658  22.312  25.394   9.871 -0.1056  0.1298  0.0150
46613DOD     C283659  22.537  25.264  10.279  0.0578 -0.2386  0.0661
46613DOD     C383660  22.427  25.220  10.736  0.2362  0.3147 -0.0526
46614DOD     C183661   5.022  26.528   6.050  0.1077  0.0858 -0.0840
46614DOD     C283662   4.642  26.500   5.783 -0.0886  0.0837  0.2256
46614DOD     C383663   4.199  26.334   5.836  0.0600 -0.1278 -0.0479
46615DOD     C183664  22.134   5.006  20.790 -0.1119 -0.2368 -0.0825
46615DOD     C283665  22.290   5.311  21.063 -0.0093 -0.3352 -0.2200
46615DOD     C383666  22.529   5.734  20.954  0.1363 -0.2496 -0.0678
46616DOD     C183667   4.467   4.535  16.518  0.0169  0.3214  0.1580
46616DOD     C283668   4.284   4.061  16.432  0.0395 -0.0835 -0.1379
46616DOD     C383669   4.129   3.683  16.215  0.2760  0.0292  0.0015
46617DOD     C183670   9.039  16.564  12.708  0.0611 -0.0541  0.1873
46617DOD     C283671   8.741  16.380  12.428  0.0679  0.2514 -0.0270
46617DOD     C383672   8.581  16.134  12.044  0.0970  0.0535  0.0042
46618DOD     C183673  14.076   1.961  16.508 -0.0415  0.2467 -0.4078
46618DOD     C283674  14.192   1.883  16.105  0.3404 -0.1608 -0.0968
46618DOD     C383675  14.440   1.637  15.793  0.0349  0.2657  0.1777
46619DOD     C183676   9.318  10.427   0.853 -0.1059  0.2029  0.3964
46619DOD     C283677   8.964  10.633   0.560  0.1418 -0.1752 -0.0528
46619DOD     C383678   8.555  10.766   0.423  0.1452  0.1122  0.0330
46620DOD     C183679   9.896  13.778  21.473  0.0253 -0.2978 -0.0313
46620DOD     C283680  10.029  13.455  21.820 -0.4242  0.2314 -0.2281
46620DOD     C383681  10.382  13.189  21.963  0.0809 -0.1128 -0.1364
46621DOD     C183682  17.805  12.766  17.415  0.1006 -0.3557  0.0366
46621DOD     C283683  17.389  12.721  17.665 -0.0629 -0.0906  0.1248
46621DOD     C383684  17.080  12.559  17.956  0.0808 -0.2038  0.1694
46622DOD     C183685   5.247  10.359   9.173 -0.3226 -0.1065  0.1281
46622DOD     C283686   4.965  10.678   9.360  0.1207 -0.1034 -0.1863
46622DOD     C383687   4.772  11.059   9.185  0.0526 -0.1898 -0.0545
46623DOD     C183688   1.292   5.112   6.971 -0.2858 -0.0710  0.1588
46623DOD     C283689   1.724   5.028   6.714  0.0220 -0.1261  0.1122
46623DOD     C383690   1.915   5.232   6.341  0.2261  0.1356  0.3213
46624DOD     C183691  27.836   0.947  24.118  0.1591 -0.2247 -0.1675
46624DOD     C283692  27.585   0.685  23.746 -0.2686 -0.1897 -0.5164
46624DOD     C383693  27.473   0.502  23.288  0.0985 -0.0816  0.2462
46625DOD     C183694  20.015  11.797   2.216 -0.1243  0.2625 -0.0081
46625DOD     C283695  19.532  11.768   2.107  0.1549  0.1527 -0.0411
46625DOD     C383696  19.095  11.667   2.224  0.2748 -0.3390 -0.0588
46626DOD     C183697  12.511  19.970  21.250 -0.1210  0.2175 -0.0348
46626DOD     C283698  12.916  20.237  21.297  0.1705 -0.3473 -0.1146
46626DOD     C383699  13.114  20.391  21.752  0.2478 -0.0144 -0.1492
46627DOD     C183700  29.414  21.716  22.569  0.1571 -0.1561  0.3431
46627DOD     C283701  29.316  21.255  22.686 -0.2766  0.0060  0.0594
46627DOD     C383702  28.941  21.002  22.777  0.1951  0.2207 -0.0745
46628DOD     C183703   2.151  22.183   8.920  0.0427  0.0639 -0.3252
46628DOD     C283704   1.828  22.479   9.192  0.3063 -0.0289  0.0093
46628DOD     C383705   1.727  22.535   9.620  0.0728 -0.1325  0.1175
46629DOD     C183706  19.423  16.861  24.789  0.1013 -0.1566  0.1335
46629DOD     C283707  19.590  17.315  24.970  0.0143 -0.1662 -0.1701
46629DOD     C383708  19.842  17.679  25.159 -0.3718  0.2995  0.0344
46630DOD     C183709  10.391   3.339  18.474  0.1265 -0.0933  0.0763
46630DOD     C283710  10.255   3.356  18.942 -0.1437 -0.0242 -0.2059
46630DOD     C383711  10.107   3.444  19.440 -0.1080  0.0638 -0.0202
46631DOD     C183712  25.279  19.760  17.111  0.0064  0.1342 -0.1254
46631DOD     C283713  25.749  19.846  17.067 -0.0887  0.0831 -0.0188
46631DOD     C383714  26.123  19.951  17.299 -0.1644  0.0725  0.1981
46632DOD     C183715  14.443  21.251  15.794 -0.1255 -0.0266 -0.0347
46632DOD     C283716  14.483  20.943  15.411  0.3770  0.1467 -0.1962
46632DOD     C383717  14.449  20.587  15.153  0.2955  0.2673  0.2196
46633DOD     C183718  30.140   5.930  28.811  0.0508 -0.0678  0.0297
46633DOD     C283719  29.982   6.249  28.567  0.1548  0.1021 -0.0016
46633DOD     C383720  29.717   6.603  28.609 -0.1738  0.2097 -0.2551
46634DOD     C183721  16.778   3.648   6.950 -0.0001  0.1178  0.1631
46634DOD     C283722  16.400   3.638   6.698  0.0096  0.0925 -0.2366
46634DOD     C383723  16.207   3.957   6.424 -0.2358 -0.0267  0.0397
46635DOD     C183724   5.545   7.518  30.166  0.0850 -0.4609  0.0287
46635DOD     C283725   5.116   7.553   0.027 -0.2114  0.2516  0.1638
46635DOD     C383726   4.763   7.823   0.259  0.1260  0.0429 -0.1157
46636DOD     C183727   4.527   7.452  20.285  0.0650 -0.0613 -0.2184
46636DOD     C283728   4.460   6.997  20.185 -0.1846  0.0149  0.0391
46636DOD     C383729   4.598   6.578  20.106 -0.2882 -0.0939  0.0673
46637DOD     C183730  29.028   0.046   5.985 -0.0464  0.0795 -0.0112
46637DOD     C283731  29.058   0.473   5.772  0.2688 -0.1163  0.0312
46637DOD     C383732  29.337   0.576   5.456 -0.1014 -0.3110 -0.0332
46638DOD     C183733  17.247  14.267  23.025 -0.3370 -0.0102 -0.0067
46638DOD     C283734  16.828  14.109  23.277  0.2903 -0.0556  0.5125
46638DOD     C383735  16.711  13.668  23.200  0.0016 -0.2603 -0.0323
46639DOD     C183736   8.150  12.113  29.113 -0.1052 -0.2131  0.3212
46639DOD     C283737   7.919  11.919  29.469  0.2156  0.3134  0.1069
46639DOD     C383738   7.728  11.831  29.892  0.0394  0.0632 -0.2691
46640DOD     C183739   2.826   3.432  23.856 -0.2717  0.0384 -0.2514
46640DOD     C283740   2.382   3.390  23.937  0.4102 -0.1115 -0.2583
46640DOD     C383741   2.284   3.181  24.363 -0.2829  0.0739  0.0300
46641DOD     C183742  10.403   1.580   4.332 -0.5693  0.0887  0.1420
46641DOD     C283743  10.252   2.021   4.404 -0.2338 -0.1215  0.0751
46641DOD     C383744  10.037   2.462   4.488  0.1291 -0.1622  0.0212
46642DOD     C183745   8.415  16.393   8.388 -0.2497  0.2493 -0.1285
46642DOD     C283746   8.704  16.527   8.799 -0.1336  0.1075 -0.4339
46642DOD     C383747   8.651  16.629   9.299 -0.2118  0.1412  0.1521
46643DOD     C183748   1.969  25.064   4.589 -0.0102  0.0311 -0.2739
46643DOD     C283749   2.251  25.283   4.310 -0.1057 -0.0455  0.0280
46643DOD     C383750   2.692  25.070   4.117  0.3262 -0.0213 -0.1430
46644DOD     C183751   9.383  11.793  16.049  0.2729  0.3479  0.0478
46644DOD     C283752   9.290  11.582  15.679 -0.0703  0.0748 -0.0040
46644DOD     C383753   9.261  11.155  15.459  0.1429  0.3198 -0.0731
46645DOD     C183754   6.903  29.492  20.509 -0.0606  0.2098 -0.2121
46645DOD     C283755   7.028  29.580  20.027 -0.0087 -0.1929  0.0619
46645DOD     C383756   6.974  29.841  19.654  0.2704  0.0525  0.0413
46646DOD     C183757  18.504  29.040  26.853  0.0137 -0.2237 -0.0444
46646DOD     C283758  18.584  29.496  26.857  0.2208  0.1502 -0.0506
46646DOD     C383759  18.411  29.961  26.836 -0.1457 -0.1197  0.3137
46647DOD     C183760  29.653   8.189  11.075  0.1395 -0.2293 -0.1525
46647DOD     C283761  29.759   8.624  11.118  0.2971  0.0103 -0.0416
46647DOD     C383762  29.702   8.990  11.405  0.1325 -0.0285 -0.0483
46648DOD     C183763  18.057  16.782   5.492  0.0385 -0.0469  0.0848
46648DOD     C283764  18.033  16.979   5.083  0.1643 -0.0014  0.2238
46648DOD     C383765  17.874  17.261   4.764 -0.1395 -0.0185  0.1991
46649DOD     C183766  11.187  26.985  10.947 -0.1593 -0.2045  0.3462
46649DOD     C283767  11.577  27.308  10.911 -0.0671  0.1719  0.1233
46649DOD     C383768  11.719  27.747  10.959  0.0490 -0.2180  0.0593
46650DOD     C183769  10.626  15.790   6.005  0.3050 -0.1486  0.0695
46650DOD     C283770  10.979  16.093   6.153  0.1633 -0.2100 -0.0159
46650DOD     C383771  11.332  16.198   6.420  0.2068 -0.1249 -0.0976
46651DOD     C183772  18.958  28.498  21.949 -0.1133  0.1962  0.2079
46651DOD     C283773  18.709  28.750  22.205  0.0977 -0.1018 -0.0475
46651DOD     C383774  18.769  29.241  22.283  0.1146  0.1618 -0.1308
46652DOD     C183775  18.568  12.702  17.577 -0.0421 -0.2142  0.2723
46652DOD     C283776  18.300  12.964  17.221 -0.0544 -0.0509  0.0466
46652DOD     C383777  18.395  13.329  16.987  0.2437  0.2090  0.2162
46653DOD     C183778   7.777  18.245  15.496  0.0357  0.0117 -0.1965
46653DOD     C283779   7.681  18.065  15.091 -0.0517 -0.2235  0.4165
46653DOD     C383780   7.270  17.853  14.882  0.2686 -0.0946 -0.1895
46654DOD     C183781  15.616  10.316   4.961  0.2962  0.1260 -0.2638
46654DOD     C283782  15.473  10.096   4.541  0.0253 -0.2135  0.0715
46654DOD     C383783  15.150  10.278   4.229  0.1072 -0.1925 -0.1949
46655DOD     C183784  23.451   0.721  28.156 -0.0378 -0.2297  0.3539
46655DOD     C283785  23.349   0.362  27.923 -0.3179  0.3314  0.1473
46655DOD     C383786  23.186  30.269  27.719 -0.0280 -0.0055  0.2534
46656DOD     C183787  23.081  13.686  15.214  0.0747 -0.0993 -0.0297
46656DOD     C283788  23.253  14.160  15.189  0.1537 -0.1935 -0.1893
46656DOD     C383789  23.262  14.612  14.990  0.2737  0.0370 -0.1156
46657DOD     C183790  15.884   8.768  19.052  0.0932  0.5341  0.2716
46657DOD     C283791  15.505   9.114  19.038  0.0838  0.1873 -0.0232
46657DOD     C383792  15.024   9.125  19.147 -0.2208 -0.0504 -0.0947
46658DOD     C183793  15.086  26.494  28.219  0.0523 -0.1538  0.1132
46658DOD     C283794  14.914  26.881  27.982  0.3224  0.0669  0.1987
46658DOD     C383795  14.708  27.308  27.967  0.4506  0.2006 -0.2582
46659DOD     C183796  15.541  10.455  27.220  0.2004  0.0162  0.1429
46659DOD     C283797  15.121  10.400  27.419  0.1758  0.2070  0.1363
46659DOD     C383798  15.036  10.180  27.845 -0.0763  0.2032  0.0649
46660DOD     C183799   5.319   0.568  18.367  0.0169  0.1080 -0.0016
46660DOD     C283800   5.029   0.172  18.489  0.1364  0.2708  0.0019
46660DOD     C383801   4.759  30.090  18.433  0.2055 -0.2329 -0.2910
46661DOD     C183802   4.363  14.967   6.162  0.2222 -0.0833 -0.1964
46661DOD     C283803   4.501  15.138   6.604 -0.1136 -0.3607 -0.1675
46661DOD     C383804   4.755  15.241   7.022  0.1866 -0.1817 -0.0515
46662DOD     C183805  22.999  17.108   4.945 -0.1951 -0.4814 -0.1253
46662DOD     C283806  23.320  17.287   4.712 -0.2728  0.2587 -0.1691
46662DOD     C383807  23.647  17.193   4.375  0.2719  0.0265 -0.2962
46663DOD     C183808   0.630   7.095   8.842  0.0335 -0.1872  0.0291
46663DOD     C283809   0.169   6.901   8.927  0.1303 -0.1686  0.0365
46663DOD     C383810  30.045   6.834   8.918 -0.0008 -0.0788  0.0041
46664DOD     C183811   8.582  29.332  16.417 -0.1886 -0.0313 -0.0063
46664DOD     C283812   8.741  29.728  16.684 -0.0342 -0.3945  0.1525
46664DOD     C383813   8.816  29.858  17.137  0.1587  0.3110 -0.1068
46665DOD     C183814  24.942  19.241  12.009 -0.1795 -0.2873 -0.3433
46665DOD     C283815  25.131  18.992  11.613  0.0917  0.0082 -0.0164
46665DOD     C383816  25.112  18.633  11.342 -0.1176  0.0827 -0.2570
46666DOD     C183817  25.282  11.311  12.874  0.0531  0.0785 -0.1079
46666DOD     C283818  24.839  11.356  12.883 -0.1881  0.1701 -0.1271
46666DOD     C383819  24.456  11.209  13.001 -0.0041  0.1989  0.0080
46667DOD     C183820  26.176  17.636  12.757  0.0050  0.0224  0.1187
46667DOD     C283821  26.480  17.376  13.052 -0.0616  0.3291  0.2703
46667DOD     C383822  26.328  17.002  13.147 -0.3271  0.2872  0.2493
46668DOD     C183823  27.865   2.313  10.416 -0.1559 -0.0584 -0.0481
46668DOD     C283824  28.239   2.576  10.335  0.2820 -0.3215  0.2152
46668DOD     C383825  28.531   2.668  10.022 -0.1160  0.2585 -0.0980
46669DOD     C183826  12.944   2.431  20.737 -0.1023 -0.0304  0.1945
46669DOD     C283827  12.482   2.531  20.720 -0.1104  0.1419 -0.0170
46669DOD     C383828  12.178   2.340  20.458 -0.2745  0.1043 -0.0525
46670DOD     C183829  29.920   6.520   2.911  0.1301 -0.2523  0.2334
46670DOD     C283830  29.860   6.095   2.719  0.2138  0.3553  0.2890
46670DOD     C383831  29.722   5.690   2.532  0.0339 -0.0177 -0.1037
46671DOD     C183832   5.360  11.433   9.961 -0.0103 -0.0836  0.0281
46671DOD     C283833   5.242  11.361  10.424  0.3301  0.2781  0.1716
46671DOD     C383834   5.014  11.049  10.729 -0.2621  0.0424  0.3960
46672DOD     C183835  21.278  22.385  15.588 -0.0283  0.2097 -0.0764
46672DOD     C283836  21.791  22.505  15.614  0.1202  0.1123 -0.1603
46672DOD     C383837  22.221  22.683  15.434 -0.4553 -0.0274 -0.2075
46673DOD     C183838  28.750  22.015   4.892  0.3490  0.0988  0.1881
46673DOD     C283839  28.567  22.355   5.124  0.0962 -0.1637 -0.1541
46673DOD     C383840  28.740  22.792   5.120  0.0156 -0.2167  0.0962
46674DOD     C183841  15.323  17.414   3.590 -0.4793  0.0781 -0.2567
46674DOD     C283842  15.180  17.813   3.781  0.0655 -0.2305 -0.1092
46674DOD     C383843  15.168  17.929   4.173 -0.2064 -0.1078 -0.2322
46675DOD     C183844  16.066   0.855   1.572 -0.0312 -0.2096 -0.0905
46675DOD     C283845  16.063   0.473   1.320  0.0029  0.3984  0.0382
46675DOD     C383846  16.235   0.512   0.880  0.4457 -0.0727 -0.2874
46676DOD     C183847  29.208  24.274   3.623  0.2510  0.0847  0.2266
46676DOD     C283848  29.182  24.736   3.813 -0.4430 -0.0534  0.2121
46676DOD     C383849  29.429  25.115   3.948  0.0896 -0.0543 -0.3645
46677DOD     C183850  14.572  23.948  23.928 -0.2067 -0.1721  0.1237
46677DOD     C283851  14.454  24.262  23.629  0.2603  0.2252 -0.1590
46677DOD     C383852  14.114  24.327  23.346 -0.3963 -0.2570 -0.0901
46678DOD     C183853  26.533  29.833  18.700 -0.2589  0.4023 -0.1989
46678DOD     C283854  26.731  29.933  18.307  0.2119  0.0092 -0.1347
46678DOD     C383855  26.937  29.899  17.940  0.1900  0.3600  0.2118
46679DOD     C183856  14.618   1.846  28.086  0.0954  0.1991  0.0406
46679DOD     C283857  14.904   2.204  28.157  0.0695  0.0091 -0.0367
46679DOD     C383858  15.268   2.451  28.044  0.0584  0.1114  0.1838
46680DOD     C183859  12.173  14.956   3.895 -0.1249  0.4223 -0.0803
46680DOD     C283860  12.136  15.385   4.041 -0.1913 -0.3266  0.1693
46680DOD     C383861  12.166  15.852   3.999  0.0624  0.0976 -0.0311
46681DOD     C183862  21.740   5.458   6.477  0.2837  0.5771 -0.1777
46681DOD     C283863  21.716   5.788   6.807  0.3951 -0.1074 -0.1274
46681DOD     C383864  21.615   6.259   6.963  0.0839  0.0896  0.0068
46682DOD     C183865   6.019   1.522  14.068  0.0355 -0.1024 -0.1401
46682DOD     C283866   6.486   1.547  14.128  0.1401  0.1870  0.1030
46682DOD     C383867   6.879   1.414  13.879 -0.2443  0.1101  0.1603
46683DOD     C183868  11.257  13.339  20.592  0.1011 -0.1844  0.2577
46683DOD     C283869  11.505  12.979  20.597 -0.1214  0.1103  0.1665
46683DOD     C383870  11.799  12.928  20.887  0.1283  0.0242 -0.3411
46684DOD     C183871  22.545   8.124  11.315  0.1630 -0.3387  0.1068
46684DOD     C283872  22.432   8.555  11.110  0.0510  0.0544  0.1683
46684DOD     C383873  22.147   8.912  11.142 -0.3292  0.1273 -0.2624
46685DOD     C183874  29.011  20.811  28.977 -0.2820  0.0856 -0.1719
46685DOD     C283875  29.420  20.616  29.159 -0.4173 -0.3657 -0.1943
46685DOD     C383876  29.799  20.420  29.298  0.1390 -0.0421  0.4239
46686DOD     C183877  12.238  11.834   0.813 -0.1247 -0.0071  0.1530
46686DOD     C283878  11.824  12.002   0.997  0.0213  0.1679 -0.0864
46686DOD     C383879  11.391  12.260   1.188 -0.0291 -0.0009 -0.2473
46687DOD     C183880  22.366  27.698  18.729  0.2500 -0.1689  0.1623
46687DOD     C283881  22.679  27.960  18.958  0.1013 -0.0704 -0.5422
46687DOD     C383882  23.014  28.076  19.279  0.0417 -0.0327 -0.0237
46688DOD     C183883   2.060  21.167  23.113  0.0267 -0.0884  0.0399
46688DOD     C283884   1.659  21.025  22.978 -0.0630  0.0549 -0.1909
46688DOD     C383885   1.260  21.111  22.757  0.0159  0.2476 -0.0774
46689DOD     C183886  22.275   1.131  11.418  0.1855  0.2453 -0.2419
46689DOD     C283887  22.377   1.373  11.103 -0.0743 -0.1017 -0.0331
46689DOD     C383888  22.172   1.487  10.636 -0.1317  0.0774 -0.1939
46690DOD     C183889  19.005  26.575  14.692  0.0964 -0.0193  0.0550
46690DOD     C283890  19.244  26.504  15.111  0.0985 -0.1788  0.1207
46690DOD     C383891  19.637  26.620  15.368 -0.0819 -0.0067  0.2500
46691DOD     C183892  15.215  13.124  22.261 -0.0629  0.0747  0.1899
46691DOD     C283893  15.644  13.125  22.474 -0.0634 -0.0447 -0.0996
46691DOD     C383894  16.101  12.943  22.450  0.2633 -0.0690 -0.0778
46692DOD     C183895   9.731  17.481  25.810 -0.2077 -0.1105 -0.0296
46692DOD     C283896   9.980  17.260  25.461  0.0475  0.1494 -0.0864
46692DOD     C383897  10.432  17.101  25.379  0.1081 -0.0956  0.2295
46693DOD     C183898  18.375   6.723  21.505  0.0418 -0.0903  0.0361
46693DOD     C283899  18.731   6.661  21.244  0.2546 -0.0246 -0.2144
46693DOD     C383900  19.027   6.940  20.974 -0.0851 -0.0066  0.1833
46694DOD     C183901  12.347  28.555  29.330  0.2437  0.0432  0.0089
46694DOD     C283902  11.888  28.510  29.373  0.0511  0.1280 -0.0268
46694DOD     C383903  11.561  28.247  29.596 -0.0528  0.2490  0.1123
46695DOD     C183904   4.298   4.440  28.814 -0.1096 -0.1347 -0.1420
46695DOD     C283905   4.037   4.416  29.202  0.0172  0.0035 -0.0915
46695DOD     C383906   3.623   4.457  29.465  0.0143 -0.1092 -0.0649
46696DOD     C183907   4.859  23.908   0.091 -0.0767  0.0375 -0.2026
46696DOD     C283908   5.177  24.253  30.326  0.3976  0.0972 -0.0711
46696DOD     C383909   5.650  24.361  -0.041  0.1524  0.2844 -0.2993
46697DOD     C183910   8.103  28.848  17.585  0.2934 -0.1311 -0.0017
46697DOD     C283911   8.258  28.963  17.155  0.1510 -0.3825 -0.2573
46697DOD     C383912   8.524  29.278  16.883 -0.2944 -0.0556  0.0093
46698DOD     C183913   0.986   0.199  16.344  0.1932  0.1147  0.1818
46698DOD     C283914   0.664   0.517  16.179  0.0442 -0.0412 -0.1325
46698DOD     C383915   0.496   0.747  15.845  0.0912  0.1956  0.0829
46699DOD     C183916  15.805   9.291  24.901 -0.1353  0.1367 -0.1484
46699DOD     C283917  16.235   9.370  24.981 -0.3841 -0.0383  0.1211
46699DOD     C383918  16.648   9.388  25.181  0.0570 -0.1153  0.0286
46700DOD     C183919   6.565  18.447  19.985  0.1258  0.0026  0.1714
46700DOD     C283920   6.659  18.667  19.564 -0.0405 -0.2419  0.0072
46700DOD     C383921   6.718  19.072  19.329 -0.1626 -0.0675 -0.1808
46701DOD     C183922  23.935  29.874   7.239 -0.2967  0.1411 -0.2367
46701DOD     C283923  24.399  29.908   7.177 -0.0083  0.2594  0.0645
46701DOD     C383924  24.601  29.916   6.719 -0.2089 -0.1055  0.0996
46702DOD     C183925  11.632  24.392  10.024 -0.0671  0.3064 -0.0227
46702DOD     C283926  12.049  24.291  10.259  0.0699  0.0907  0.6568
46702DOD     C383927  12.485  24.320  10.375  0.0069 -0.1321  0.0564
46703DOD     C183928  19.071   9.605  15.647  0.1687 -0.0764 -0.1347
46703DOD     C283929  18.725   9.380  15.376  0.0996  0.1682  0.2136
46703DOD     C383930  18.607   9.193  14.973  0.0496 -0.0681 -0.0638
46704DOD     C183931   6.258   2.825  29.312 -0.3684  0.1045  0.1939
46704DOD     C283932   6.240   3.107  29.679  0.0477 -0.0599 -0.1205
46704DOD     C383933   6.239   3.426  30.006  0.1140  0.1311  0.2135
46705DOD     C183934  27.877  12.788  28.135 -0.3605  0.1440  0.2716
46705DOD     C283935  27.413  12.785  28.177 -0.3798 -0.2525  0.0353
46705DOD     C383936  27.016  12.542  28.216  0.1424  0.0399 -0.1076
46706DOD     C183937  29.188   2.495  17.455  0.0912 -0.0892  0.2488
46706DOD     C283938  28.766   2.646  17.563  0.2709 -0.0542  0.3271
46706DOD     C383939  28.371   2.731  17.862  0.0416  0.0244 -0.1395
46707DOD     C183940  24.556  14.708  28.518  0.2870 -0.1927  0.2221
46707DOD     C283941  24.377  14.502  28.884  0.0190 -0.0360  0.3311
46707DOD     C383942  24.067  14.155  29.086  0.0078 -0.1919  0.0361
46708DOD     C183943  29.914  16.736  10.362  0.2365 -0.2401 -0.1272
46708DOD     C283944  29.815  17.007  10.676  0.2501  0.1964 -0.0059
46708DOD     C383945  29.665  17.355  10.881 -0.1642 -0.0809 -0.2630
46709DOD     C183946  16.624  29.813  29.445 -0.0044 -0.1610 -0.1334
46709DOD     C283947  16.374  29.976  29.114 -0.2360 -0.0359 -0.0906
46709DOD     C383948  16.048  30.301  29.332 -0.1756 -0.0621  0.0769
46710DOD     C183949   4.266   8.700  26.735  0.0738  0.2026  0.1817
46710DOD     C283950   3.901   8.577  27.026  0.0330 -0.3621 -0.1755
46710DOD     C383951   3.437   8.360  27.011  0.1545  0.0674  0.2169
46711DOD     C183952  13.390   8.728   5.822  0.1093  0.2763  0.0651
46711DOD     C283953  12.934   8.802   5.783 -0.0873  0.0523  0.1667
46711DOD     C383954  12.682   8.981   5.432  0.1595  0.1206  0.2543
46712DOD     C183955  19.886   8.937  25.596  0.1161  0.0600  0.0705
46712DOD     C283956  19.579   8.726  25.380  0.3684 -0.2970 -0.1467
46712DOD     C383957  19.384   8.350  25.192  0.1383 -0.0922 -0.1062
46713DOD     C183958  18.418   6.548   0.485 -0.2616  0.0425 -0.1534
46713DOD     C283959  18.043   6.235   0.541 -0.2628  0.1571 -0.1378
46713DOD     C383960  17.910   5.948   0.213 -0.1714 -0.1148  0.2606
46714DOD     C183961  21.146  16.588  11.568  0.5664  0.3244  0.0283
46714DOD     C283962  21.564  16.529  11.475 -0.0018 -0.0399  0.0872
46714DOD     C383963  21.961  16.300  11.312 -0.1519 -0.0770  0.1903
46715DOD     C183964  20.770  20.018   7.270  0.2450  0.0063 -0.1367
46715DOD     C283965  20.930  20.156   7.683 -0.0423 -0.0121 -0.2795
46715DOD     C383966  21.148  20.180   8.109 -0.0954 -0.0758  0.3737
46716DOD     C183967   1.937   9.739  14.360 -0.1952  0.0496  0.0974
46716DOD     C283968   1.880   9.743  14.801  0.1953  0.1868 -0.0950
46716DOD     C383969   1.896   9.707  15.293  0.1321  0.2930  0.0715
46717DOD     C183970  10.834  20.501  22.722 -0.0927  0.0575 -0.0148
46717DOD     C283971  10.639  20.365  22.290 -0.0797 -0.3572  0.0078
46717DOD     C383972  10.348  20.355  21.882  0.2874  0.1169 -0.1701
46718DOD     C183973  26.722   8.533  25.613 -0.1458  0.0537  0.0204
46718DOD     C283974  26.775   8.330  26.043  0.0999  0.0326  0.1726
46718DOD     C383975  26.436   8.211  26.364  0.1275 -0.0484  0.0505
46719DOD     C183976  26.708   1.888  28.741 -0.1719 -0.0652  0.0055
46719DOD     C283977  26.839   1.504  29.016 -0.1971 -0.0062  0.2451
46719DOD     C383978  26.515   1.137  29.085 -0.2507  0.0314  0.1484
46720DOD     C183979  27.105   2.775   8.047  0.0387 -0.0260  0.0460
46720DOD     C283980  26.902   3.105   8.249  0.1857 -0.0306 -0.0351
46720DOD     C383981  26.585   3.419   8.368  0.0162  0.0381  0.0060
46721DOD     C183982  18.222   3.093  28.344 -0.2157  0.1533  0.1082
46721DOD     C283983  17.941   3.311  28.038 -0.0321  0.1108 -0.1832
46721DOD     C383984  18.102   3.609  27.717  0.1841 -0.0969 -0.0073
46722DOD     C183985  12.230   8.489  25.594 -0.1270  0.0376  0.1225
46722DOD     C283986  12.635   8.333  25.655  0.1994  0.2543  0.0228
46722DOD     C383987  12.940   7.927  25.616 -0.0395  0.0225 -0.5513
46723DOD     C183988  12.814  22.604  14.676 -0.0700 -0.2249  0.3657
46723DOD     C283989  12.850  22.393  15.123  0.1544 -0.1865 -0.2002
46723DOD     C383990  12.860  22.021  15.447 -0.1392  0.0598  0.2389
46724DOD     C183991   9.586  21.751   2.096 -0.1960 -0.0502  0.2353
46724DOD     C283992   9.664  21.503   1.719 -0.1044 -0.2465  0.1012
46724DOD     C383993   9.722  21.318   1.275 -0.0960  0.1479  0.2870
46725DOD     C183994   4.625  18.314  28.772 -0.3143  0.3678  0.1609
46725DOD     C283995   4.365  18.694  28.904 -0.0015  0.0107  0.0875
46725DOD     C383996   4.406  19.088  29.173  0.2779  0.2633  0.4562
46726DOD     C183997  15.783  22.232  18.314  0.2138  0.0913  0.2143
46726DOD     C283998  15.516  22.538  18.460  0.2453  0.0815 -0.2382
46726DOD     C383999  15.117  22.730  18.603  0.0632 -0.3171 -0.2044
46727DOD     C184000  30.023   6.092  25.763  0.1121 -0.2281  0.1102
46727DOD     C284001   0.048   6.172  25.434 -0.1766 -0.2377  0.0662
46727DOD     C384002   0.260   6.452  25.077 -0.2645  0.2081  0.0995
46728DOD     C184003   4.828  10.888   8.617 -0.0429  0.1000 -0.0696
46728DOD     C284004   4.753  10.591   8.961  0.0706 -0.1893 -0.0754
46728DOD     C384005   4.731  10.174   9.174 -0.1897 -0.1164 -0.0824
46729DOD     C184006   3.618   7.320  18.641 -0.1018  0.0463 -0.1501
46729DOD     C284007   3.856   7.197  19.049 -0.0091  0.1256  0.0007
46729DOD     C384008   4.201   7.366  19.293 -0.1430  0.2072  0.1701
46730DOD     C184009  28.875  14.874   6.181 -0.0514  0.1543  0.3002
46730DOD     C284010  28.881  14.451   5.997  0.2171 -0.0482 -0.2451
46730DOD     C384011  28.782  14.019   6.175 -0.1558 -0.1152  0.0656
46731DOD     C184012  10.075  28.613  23.816  0.0177  0.1589  0.0469
46731DOD     C284013  10.557  28.580  23.699 -0.1696 -0.2026 -0.0230
46731DOD     C384014  10.988  28.403  23.492  0.0227 -0.0750 -0.0301
46732DOD     C184015  29.877  23.528  18.999  0.1531  0.1280  0.1344
46732DOD     C284016  29.942  23.414  18.586 -0.0255  0.0010 -0.2125
46732DOD     C384017  29.860  23.279  18.137 -0.3434 -0.0714  0.0538
46733DOD     C184018   7.672   7.851   1.493  0.2956  0.1348 -0.0914
46733DOD     C284019   7.662   7.591   1.942 -0.1731 -0.0042  0.0198
46733DOD     C384020   7.385   7.508   2.330  0.1513  0.2507  0.1730
46734DOD     C184021   6.717   7.826  14.575  0.1392 -0.0827 -0.2739
46734DOD     C284022   7.074   7.863  14.229  0.2123  0.3890  0.1811
46734DOD     C384023   6.937   7.855  13.799  0.3396 -0.4013  0.1532
46735DOD     C184024   9.859  28.703  17.119 -0.1163  0.0103  0.2118
46735DOD     C284025   9.494  28.812  16.921  0.0977  0.0196  0.1013
46735DOD     C384026   9.099  28.889  17.144 -0.1702  0.1263  0.0126
46736DOD     C184027  20.643  20.610  14.451 -0.0717  0.0572  0.0283
46736DOD     C284028  20.712  20.552  14.927  0.0234  0.3133  0.0617
46736DOD     C384029  20.935  20.453  15.368 -0.2822  0.1159 -0.2099
46737DOD     C184030   5.620  28.194   7.310  0.2313 -0.0453 -0.6128
46737DOD     C284031   5.693  28.695   7.249 -0.0553 -0.0323  0.4821
46737DOD     C384032   5.962  29.072   7.254 -0.0390  0.1400 -0.2611
46738DOD     C184033   4.839  21.062  27.830 -0.1286 -0.0930 -0.1386
46738DOD     C284034   4.688  20.616  27.830  0.0491 -0.1755 -0.4534
46738DOD     C384035   4.349  20.375  27.891  0.0380  0.2584  0.2129
46739DOD     C184036   2.145  11.609   3.057 -0.4391  0.0093 -0.1819
46739DOD     C284037   2.610  11.629   3.188  0.0644 -0.2093 -0.1481
46739DOD     C384038   3.116  11.722   3.241  0.0449  0.1885 -0.1285
46740DOD     C184039   1.088  10.315  17.877  0.1548 -0.1140  0.2047
46740DOD     C284040   1.247  10.694  17.858 -0.0220  0.2004 -0.4719
46740DOD     C384041   1.511  11.062  17.671  0.3215  0.0185 -0.2910
46741DOD     C184042  27.641   3.323  15.557  0.1467 -0.2238  0.0185
46741DOD     C284043  28.033   3.160  15.678 -0.0315 -0.1447  0.0370
46741DOD     C384044  28.420   2.882  15.630  0.1884  0.1657  0.2036
46742DOD     C184045  22.440  16.515  11.231 -0.1539 -0.2498 -0.0512
46742DOD     C284046  22.706  16.533  11.587 -0.0531 -0.0845  0.2425
46742DOD     C384047  22.540  16.735  11.930 -0.0492 -0.0700 -0.0080
46743DOD     C184048   5.918  25.682  23.955 -0.0395 -0.3304  0.2943
46743DOD     C284049   6.190  25.668  24.349  0.2255  0.0559 -0.0358
46743DOD     C384050   6.530  25.455  24.625  0.0684 -0.1164 -0.3493
46744DOD     C184051  28.713   3.310  15.205 -0.2000  0.4295  0.1818
46744DOD     C284052  29.047   3.013  15.066  0.3176 -0.0630 -0.0535
46744DOD     C384053  29.490   2.954  15.085  0.0780  0.2755 -0.1424
46745DOD     C184054   6.936  23.950  24.104 -0.1084  0.1158 -0.0140
46745DOD     C284055   6.815  23.640  23.792 -0.5391  0.3009 -0.1912
46745DOD     C384056   6.706  23.319  23.537 -0.5325 -0.0574 -0.1655
46746DOD     C184057  13.560  20.377  14.030 -0.0173 -0.0366  0.1504
46746DOD     C284058  13.277  20.525  13.758 -0.2170 -0.0960  0.2072
46746DOD     C384059  13.125  20.681  13.361 -0.3441  0.0005 -0.0530
46747DOD     C184060  16.858  22.680   4.701 -0.0140  0.0362  0.2007
46747DOD     C284061  16.714  22.424   5.048  0.2257  0.0976 -0.2056
46747DOD     C384062  16.678  21.977   4.929 -0.0960 -0.0852 -0.1599
46748DOD     C184063  18.509  15.293   2.183  0.1060  0.2383 -0.0708
46748DOD     C284064  18.923  15.066   2.156 -0.0747 -0.3223  0.1708
46748DOD     C384065  19.318  14.828   2.257  0.1653  0.0444 -0.2119
46749DOD     C184066   9.660   5.671  12.194 -0.1608 -0.1012  0.0370
46749DOD     C284067  10.098   5.799  12.115  0.2473 -0.4016  0.0491
46749DOD     C384068  10.107   6.266  12.224  0.3050 -0.2630 -0.2649
46750DOD     C184069  15.753   1.308  11.570  0.1330  0.1439 -0.1773
46750DOD     C284070  15.779   0.891  11.361 -0.0577 -0.1166  0.2253
46750DOD     C384071  15.765   0.781  10.900  0.1579 -0.2704 -0.2439
46751DOD     C184072  14.335  18.905  19.233 -0.2851  0.0327 -0.2279
46751DOD     C284073  14.294  19.357  19.046 -0.0175 -0.0884  0.0271
46751DOD     C384074  14.150  19.863  19.025 -0.1373 -0.0927 -0.1929
46752DOD     C184075  16.836   7.089   1.626  0.1523  0.0609  0.3438
46752DOD     C284076  17.241   6.886   1.405 -0.0939  0.0499 -0.0422
46752DOD     C384077  17.449   6.793   1.054  0.1272  0.0940  0.2306
46753DOD     C184078   4.335   4.794  15.817  0.3281 -0.1925 -0.1606
46753DOD     C284079   4.143   4.747  16.239  0.1456  0.1208 -0.4073
46753DOD     C384080   3.845   4.526  16.554 -0.3160 -0.0544  0.1880
46754DOD     C184081   1.072  29.917  15.861 -0.0496  0.0779  0.2258
46754DOD     C284082   1.541  29.807  15.987  0.2108 -0.3071  0.2165
46754DOD     C384083   1.974  29.885  15.814 -0.0958 -0.0853  0.0241
46755DOD     C184084  26.405  23.468  16.644 -0.2042 -0.0409 -0.2772
46755DOD     C284085  26.347  23.794  16.996 -0.3331  0.1624  0.4673
46755DOD     C384086  26.451  24.035  17.397  0.1155 -0.0107  0.1503
46756DOD     C184087   3.351  30.084   8.343 -0.0559  0.0653 -0.0349
46756DOD     C284088   2.936  30.299   8.227  0.1059  0.3968  0.0737
46756DOD     C384089   2.549   0.188   8.049 -0.2583 -0.2679  0.0676
46757DOD     C184090  10.218  22.220  11.258  0.0645  0.1912  0.3747
46757DOD     C284091   9.826  22.123  11.010 -0.0499  0.1544 -0.0565
46757DOD     C384092   9.618  22.126  10.586 -0.0239 -0.3110 -0.0596
46758DOD     C184093  20.343  17.378  26.127 -0.0508 -0.0501  0.0964
46758DOD     C284094  19.957  17.209  25.985 -0.1324 -0.1713 -0.1658
46758DOD     C384095  19.874  17.233  25.483 -0.1983  0.0579 -0.1904
46759DOD     C184096  14.290  25.247   9.910  0.2113  0.2094  0.0390
46759DOD     C284097  14.417  24.869  10.110  0.2499  0.0151  0.1115
46759DOD     C384098  14.731  24.470  10.155  0.0211 -0.0949  0.0480
46760DOD     C184099  25.996  24.479  25.872 -0.0726 -0.1975 -0.1851
46760DOD     C284100  26.021  24.901  26.066  0.0366 -0.0527 -0.0037
46760DOD     C384101  26.119  25.236  26.381 -0.1327  0.1369  0.0415
46761DOD     C184102  24.036  23.706  10.679 -0.1294  0.3231  0.2108
46761DOD     C284103  24.253  23.342  10.786  0.2111 -0.0472  0.2510
46761DOD     C384104  24.639  23.070  10.834  0.1703 -0.0486  0.2870
46762DOD     C184105   6.757   6.518  26.734 -0.2276  0.0613  0.1611
46762DOD     C284106   6.911   6.905  26.848 -0.1686 -0.0841  0.2172
46762DOD     C384107   7.224   7.165  26.953  0.2148  0.2157 -0.0366
46763DOD     C184108  13.501  17.298  24.356 -0.0590 -0.2042 -0.0555
46763DOD     C284109  13.359  17.227  23.932  0.1367  0.1162 -0.2187
46763DOD     C384110  13.036  17.437  23.727  0.3082 -0.4283  0.0093
46764DOD     C184111   7.069   0.802  11.262 -0.1764 -0.2165 -0.1971
46764DOD     C284112   6.795   0.916  11.692  0.1414  0.3012 -0.1377
46764DOD     C384113   6.461   0.984  12.031 -0.1167 -0.4070 -0.2694
46765DOD     C184114  24.915  25.377  22.863 -0.1651 -0.0572  0.2585
46765DOD     C284115  24.988  25.808  22.883  0.2809  0.1829 -0.1700
46765DOD     C384116  25.197  26.106  22.577 -0.0199 -0.0377  0.2243
46766DOD     C184117  21.432  28.756  15.033  0.1922 -0.0541 -0.3381
46766DOD     C284118  21.463  28.277  15.188  0.4049 -0.2435  0.0726
46766DOD     C384119  21.622  28.079  15.583 -0.1534 -0.0823  0.1029
46767DOD     C184120  10.669  22.574   2.210  0.1987  0.0958  0.1370
46767DOD     C284121  11.001  22.777   2.072 -0.0451 -0.2392 -0.1726
46767DOD     C384122  11.134  23.180   2.097  0.1090 -0.0968 -0.0854
46768DOD     C184123  14.231   7.097  13.334  0.0812 -0.4900  0.0290
46768DOD     C284124  14.672   7.251  13.245 -0.0178 -0.1062  0.0284
46768DOD     C384125  15.058   7.357  13.487  0.2121  0.3149  0.1550
46769DOD     C184126   4.601   5.269  14.374  0.3083 -0.2022 -0.0518
46769DOD     C284127   4.778   5.678  14.493 -0.1670  0.1144 -0.0695
46769DOD     C384128   4.776   6.101  14.801 -0.1802 -0.0539  0.0504
46770DOD     C184129   1.532  19.244  22.132  0.0970 -0.0005  0.1109
46770DOD     C284130   1.210  19.134  22.438  0.0220 -0.1647 -0.0246
46770DOD     C384131   0.845  19.128  22.782 -0.0842  0.2490  0.2463
46771DOD     C184132  12.910  21.686  30.106 -0.1012  0.2749 -0.0762
46771DOD     C284133  13.248  21.476   0.019  0.2435 -0.1064 -0.0789
46771DOD     C384134  13.295  21.148   0.324 -0.1644 -0.0885  0.1369
46772DOD     C184135  17.229   6.856   3.321 -0.2313  0.0300 -0.1006
46772DOD     C284136  17.523   6.512   3.152 -0.1159  0.2711 -0.0862
46772DOD     C384137  17.625   6.225   2.794 -0.0393 -0.0535  0.2394
46773DOD     C184138  17.326  12.231  10.868 -0.1179  0.1608  0.0571
46773DOD     C284139  17.731  12.478  10.996  0.2090 -0.0566  0.0318
46773DOD     C384140  18.128  12.624  11.164  0.0930 -0.4109 -0.4222
46774DOD     C184141  23.780  10.204   1.439 -0.1092  0.4252 -0.1038
46774DOD     C284142  23.598  10.150   1.063  0.0551  0.0472  0.3940
46774DOD     C384143  23.471  10.199   0.643  0.0547  0.1808  0.2825
46775DOD     C184144   0.449  20.421   3.864 -0.1528  0.1287 -0.1163
46775DOD     C284145   0.776  20.119   3.789  0.2461 -0.0408  0.0269
46775DOD     C384146   1.110  19.890   3.672 -0.1377  0.1410  0.3288
46776DOD     C184147  21.570   0.943  23.960 -0.0053 -0.0107  0.0660
46776DOD     C284148  21.634   1.225  24.292  0.0032 -0.0838  0.0607
46776DOD     C384149  21.666   1.414  24.713  0.1109  0.0107 -0.1041
46777DOD     C184150  10.634   3.230  22.648  0.4326  0.2649 -0.1248
46777DOD     C284151  10.279   3.339  22.901 -0.1539  0.1467 -0.0433
46777DOD     C384152  10.279   3.612  23.279  0.0959  0.1492 -0.4584
46778DOD     C184153  21.629  26.723   9.655  0.1390 -0.2153 -0.0016
46778DOD     C284154  21.945  27.008   9.496  0.1550  0.0438  0.0561
46778DOD     C384155  22.166  27.346   9.363  0.1641  0.3070 -0.4798
46779DOD     C184156  18.887  14.421  17.035  0.2063  0.0562 -0.1182
46779DOD     C284157  18.881  14.851  16.914 -0.1208  0.1768  0.0487
46779DOD     C384158  18.985  15.203  16.605  0.1012 -0.1019 -0.1062
46780DOD     C184159  19.448  10.888   6.962 -0.0057  0.4282 -0.0071
46780DOD     C284160  19.362  10.558   6.589 -0.0907 -0.1048  0.0910
46780DOD     C384161  19.103  10.314   6.244  0.1006  0.1851 -0.0471
46781DOD     C184162  25.636  27.725  20.524  0.0879  0.0407  0.3829
46781DOD     C284163  25.340  27.413  20.755  0.1776 -0.0812 -0.1152
46781DOD     C384164  24.939  27.378  21.068  0.0094 -0.0230  0.1060
46782DOD     C184165  20.225  11.555  17.426 -0.3250  0.2862  0.0661
46782DOD     C284166  19.848  11.262  17.438 -0.2260  0.0666  0.1314
46782DOD     C384167  19.624  10.851  17.575  0.2627 -0.2815 -0.1682
46783DOD     C184168  22.236   6.551  26.787  0.1486 -0.2858 -0.2071
46783DOD     C284169  22.622   6.575  26.565  0.0951  0.0636 -0.4652
46783DOD     C384170  23.096   6.595  26.488  0.1479 -0.1649 -0.0785
46784DOD     C184171  24.842  23.700  23.295 -0.2229 -0.0734  0.0718
46784DOD     C284172  25.096  23.893  22.925  0.1323  0.1978  0.3444
46784DOD     C384173  25.063  23.724  22.491  0.2979  0.1643 -0.0693
46785DOD     C184174  30.148  20.296   9.390 -0.3951  0.1587 -0.0612
46785DOD     C284175  30.129  20.782   9.352 -0.2368  0.2366 -0.3314
46785DOD     C384176  29.875  21.041   9.705 -0.0542  0.0202 -0.1439
46786DOD     C184177  13.566  24.615   1.038 -0.0062  0.0183  0.3598
46786DOD     C284178  13.678  24.970   0.784  0.2018 -0.0033 -0.1766
46786DOD     C384179  13.712  25.401   0.685 -0.1095 -0.2563  0.0018
46787DOD     C184180  15.435  16.629  14.280 -0.1070 -0.1912  0.1057
46787DOD     C284181  15.129  16.813  14.545  0.1086  0.1928  0.0389
46787DOD     C384182  14.749  16.667  14.699  0.1235  0.2407  0.1226
46788DOD     C184183  24.076   7.612  22.094  0.0403 -0.0959  0.0405
46788DOD     C284184  23.823   8.062  22.109  0.1637 -0.0400  0.0117
46788DOD     C384185  23.631   8.410  22.345  0.0388  0.0155 -0.1592
46789DOD     C184186   5.591   1.872  11.737 -0.0623  0.2164  0.1823
46789DOD     C284187   5.114   1.997  11.665  0.2445  0.3685  0.0367
46789DOD     C384188   4.879   2.255  11.349 -0.0228 -0.3905 -0.1455
46790DOD     C184189  10.448  27.385   2.248 -0.1519 -0.1372 -0.0979
46790DOD     C284190  10.445  26.925   2.186  0.0497 -0.1812  0.0690
46790DOD     C384191  10.397  26.447   2.282 -0.0746 -0.0566  0.1751
46791DOD     C184192  18.475   1.728   5.143 -0.3127  0.1564  0.2513
46791DOD     C284193  18.019   1.743   5.013 -0.1434 -0.0104  0.1814
46791DOD     C384194  17.621   2.050   4.956 -0.0900  0.1798 -0.0104
46792DOD     C184195  26.150  10.710  25.437  0.0922 -0.0694  0.0461
46792DOD     C284196  26.320  10.929  25.082  0.1133 -0.0091 -0.1610
46792DOD     C384197  26.395  11.350  24.857  0.0115  0.3129  0.4003
46793DOD     C184198  21.281  20.388   2.109  0.1454  0.0364  0.0086
46793DOD     C284199  21.180  20.066   2.418  0.2194 -0.1860 -0.3146
46793DOD     C384200  21.214  19.639   2.532 -0.1948 -0.1324  0.1048
46794DOD     C184201  23.859  20.830  11.467  0.1274 -0.3674 -0.1965
46794DOD     C284202  24.172  21.092  11.210  0.1940  0.2911 -0.2538
46794DOD     C384203  24.421  21.244  10.887 -0.0227 -0.0724 -0.1404
46795DOD     C184204   1.718   5.061  13.185 -0.0269 -0.3630  0.0027
46795DOD     C284205   1.608   5.429  13.455 -0.1470 -0.0562  0.3757
46795DOD     C384206   1.312   5.791  13.697  0.2335  0.0990  0.2145
46796DOD     C184207   2.097   5.621  27.031 -0.6206 -0.0228 -0.0013
46796DOD     C284208   1.703   5.679  27.344  0.2608 -0.2525 -0.2888
46796DOD     C384209   1.293   5.645  27.421  0.1396 -0.0381 -0.0429
46797DOD     C184210  23.894  14.316  12.241  0.1350 -0.1842 -0.0159
46797DOD     C284211  24.320  14.233  12.019  0.1340 -0.1293 -0.1231
46797DOD     C384212  24.655  13.894  11.988  0.3748 -0.0511  0.0551
46798DOD     C184213  16.037   1.178   9.084 -0.0393 -0.1956 -0.0485
46798DOD     C284214  16.122   0.751   8.947 -0.1022 -0.0923 -0.0779
46798DOD     C384215  15.927   0.538   8.647 -0.1470  0.2539 -0.3036
46799DOD     C184216  29.498  23.433  19.327  0.2234  0.0195 -0.0968
46799DOD     C284217  29.096  23.425  19.024 -0.0729  0.0914  0.2009
46799DOD     C384218  28.844  23.519  18.623 -0.0692  0.1120  0.1661
46800DOD     C184219   5.322  12.744   5.248 -0.2129 -0.0456  0.2978
46800DOD     C284220   5.114  13.180   5.229 -0.1380  0.1064  0.2781
46800DOD     C384221   4.979  13.468   5.653 -0.1884  0.0749  0.3626
46801DOD     C184222   3.363  28.908   1.139  0.2090 -0.0549 -0.1554
46801DOD     C284223   3.524  29.292   1.271  0.3296 -0.0666 -0.1531
46801DOD     C384224   3.125  29.495   1.298  0.1436  0.0296  0.1495
46802DOD     C184225   0.091  25.040  14.445  0.2549  0.0611  0.0622
46802DOD     C284226  30.324  24.629  14.477  0.2560 -0.1707  0.1280
46802DOD     C384227  30.138  24.220  14.387 -0.0452 -0.0674 -0.0962
46803DOD     C184228  28.752  22.999  11.167  0.0536  0.1616  0.0339
46803DOD     C284229  28.956  23.077  10.745 -0.1534  0.0495 -0.0452
46803DOD     C384230  29.075  23.451  10.448 -0.0810 -0.2296 -0.0265
46804DOD     C184231  16.817  23.212  13.615  0.5478 -0.1843  0.1299
46804DOD     C284232  16.512  23.022  13.901  0.0433 -0.2582 -0.1422
46804DOD     C384233  16.172  23.046  14.227 -0.1498 -0.0540 -0.2192
46805DOD     C184234  23.736  11.200  20.596  0.4939  0.1224  0.1379
46805DOD     C284235  23.992  11.209  20.176 -0.1076  0.2603  0.1710
46805DOD     C384236  24.213  11.079  19.832 -0.0233  0.3940  0.4135
46806DOD     C184237  18.160  27.708   3.379  0.0500  0.0923  0.0348
46806DOD     C284238  18.172  28.094   3.604  0.1260  0.3067 -0.0560
46806DOD     C384239  18.108  28.388   4.004  0.1764  0.1615  0.1606
46807DOD     C184240   1.698  12.446   9.618 -0.2497 -0.4749 -0.2003
46807DOD     C284241   1.207  12.573   9.679 -0.1496  0.0772  0.0069
46807DOD     C384242   0.756  12.781   9.752 -0.2011 -0.2392 -0.1788
46808DOD     C184243   8.779   9.159   3.622 -0.0244 -0.1756 -0.0169
46808DOD     C284244   8.395   9.341   3.526 -0.0814  0.1875  0.0827
46808DOD     C384245   7.969   9.482   3.395  0.1625 -0.0646 -0.0983
46809DOD     C184246  25.884  11.861  16.953 -0.1767  0.2866  0.2669
46809DOD     C284247  25.770  11.691  17.397  0.0261  0.0119  0.1483
46809DOD     C384248  25.482  11.444  17.629  0.0666  0.1710  0.0458
46810DOD     C184249   5.409  19.657  12.440 -0.1005  0.2486 -0.1978
46810DOD     C284250   5.583  19.194  12.630 -0.1404 -0.0769 -0.1980
46810DOD     C384251   5.381  18.852  12.863 -0.0939  0.2642 -0.1661
46811DOD     C184252  17.188  25.919   9.050 -0.2205  0.0530  0.0413
46811DOD     C284253  16.899  26.285   9.186  0.3651 -0.1015 -0.1194
46811DOD     C384254  16.605  26.559   9.448  0.1267  0.1015  0.1660
46812DOD     C184255  21.245  10.637   6.908 -0.2216  0.2770  0.1334
46812DOD     C284256  21.409  10.961   7.084 -0.0944 -0.0321  0.2001
46812DOD     C384257  21.693  11.329   7.133 -0.2378 -0.1225 -0.1575
46813DOD     C184258  13.733   4.314   9.279 -0.0280 -0.0574 -0.0635
46813DOD     C284259  14.150   4.361   9.496  0.2804  0.0125  0.1808
46813DOD     C384260  14.502   4.348   9.806  0.3756 -0.1802 -0.4428
46814DOD     C184261  24.637  25.449  21.677 -0.0111 -0.1429  0.1175
46814DOD     C284262  24.520  25.901  21.705  0.0442  0.0790 -0.2270
46814DOD     C384263  24.785  26.257  21.631  0.1344 -0.1269 -0.2592
46815DOD     C184264  24.712  26.610  30.193  0.0635 -0.2325 -0.3525
46815DOD     C284265  24.461  26.889   0.130 -0.0103  0.0814 -0.1210
46815DOD     C384266  24.236  27.013   0.505 -0.0336  0.1245 -0.1960
46816DOD     C184267   4.360   0.004  28.970  0.1028  0.0747  0.0737
46816DOD     C284268   4.814  30.227  28.968 -0.0837 -0.0638  0.2920
46816DOD     C384269   5.092  29.975  29.221  0.1580  0.2571  0.1595
46817DOD     C184270   6.910  24.167  21.482 -0.0532  0.2095 -0.1474
46817DOD     C284271   6.970  24.048  21.011 -0.2375 -0.0812  0.0302
46817DOD     C384272   7.121  24.120  20.581  0.0799 -0.1037 -0.2312
46818DOD     C184273  10.527  16.425  12.074 -0.0351  0.0025  0.1223
46818DOD     C284274  10.652  16.284  12.503 -0.0191  0.1641 -0.1038
46818DOD     C384275  10.963  16.116  12.864  0.0178  0.2982  0.0142
46819DOD     C184276  29.379  22.614  24.394  0.1657  0.0947 -0.3732
46819DOD     C284277  29.751  22.873  24.453  0.2689 -0.0088 -0.1670
46819DOD     C384278  29.913  23.255  24.656  0.0260  0.0768 -0.0601
46820DOD     C184279  29.662   2.546  15.629  0.1751  0.2103  0.0652
46820DOD     C284280  29.252   2.476  15.373  0.1672  0.2293  0.2517
46820DOD     C384281  29.034   2.239  15.004  0.0500  0.0757  0.0275
46821DOD     C184282  16.055  19.665   7.508  0.1777  0.2489 -0.0416
46821DOD     C284283  16.259  20.046   7.520 -0.1480  0.1315  0.0418
46821DOD     C384284  16.612  20.298   7.392 -0.0358  0.0530 -0.0571
46822DOD     C184285  15.822  14.739   5.568 -0.0897 -0.1657  0.2184
46822DOD     C284286  15.512  15.108   5.550  0.1542 -0.3611 -0.1732
46822DOD     C384287  15.185  15.463   5.623 -0.0199 -0.0671 -0.2363
46823DOD     C184288  20.824   7.637  19.672 -0.0961  0.1991  0.0987
46823DOD     C284289  20.468   7.345  19.576  0.0399  0.4904 -0.2613
46823DOD     C384290  20.108   7.032  19.388  0.1517  0.0984  0.2331
46824DOD     C184291  24.860  20.219   8.638 -0.0495 -0.1123 -0.0991
46824DOD     C284292  24.623  19.824   8.566 -0.1492  0.0809  0.2109
46824DOD     C384293  24.344  19.472   8.589 -0.0990  0.1804 -0.0865
46825DOD     C184294  10.960   3.305  27.299  0.1678 -0.1254  0.2404
46825DOD     C284295  10.535   3.283  27.418 -0.1140  0.0209 -0.1556
46825DOD     C384296  10.245   3.252  27.776 -0.0281 -0.0805  0.0571
46826DOD     C184297   9.853  16.361  13.512 -0.2682  0.1528 -0.0452
46826DOD     C284298  10.285  16.404  13.765  0.3831  0.3952  0.2757
46826DOD     C384299  10.566  16.111  14.047 -0.0140 -0.0837  0.2663
46827DOD     C184300  19.871   2.451   6.442  0.0757 -0.1242  0.0590
46827DOD     C284301  20.157   2.826   6.307 -0.0800 -0.0989 -0.0545
46827DOD     C384302  20.361   3.131   6.044  0.1374  0.1853 -0.0694
46828DOD     C184303  29.148   2.620  20.216  0.0208  0.1323 -0.0677
46828DOD     C284304  29.378   2.567  20.593 -0.1315  0.3026  0.1775
46828DOD     C384305  29.217   2.797  21.044 -0.0306 -0.2808  0.1946
46829DOD     C184306   2.252  11.976  19.480 -0.0062  0.0816  0.1549
46829DOD     C284307   2.419  11.828  19.057  0.1510 -0.0709  0.0470
46829DOD     C384308   2.563  12.070  18.706  0.0795  0.0417 -0.0239
46830DOD     C184309   5.097   7.035  23.802 -0.2479 -0.1301 -0.1279
46830DOD     C284310   5.323   7.399  23.721 -0.0824 -0.1073  0.1085
46830DOD     C384311   5.446   7.835  23.648 -0.2534 -0.0440 -0.1788
46831DOD     C184312  20.101  24.551   1.210  0.1144 -0.0247  0.0423
46831DOD     C284313  20.372  24.341   1.509 -0.2892 -0.0350 -0.0707
46831DOD     C384314  20.600  24.385   1.958  0.0973  0.0994 -0.0964
46832DOD     C184315  21.575  14.383  27.543 -0.2629 -0.2199  0.1722
46832DOD     C284316  21.932  14.540  27.821 -0.2059  0.2915 -0.3232
46832DOD     C384317  22.355  14.678  27.656  0.0098 -0.0526  0.1045
46833DOD     C184318  24.775  30.313  17.516 -0.0224 -0.0833 -0.0250
46833DOD     C284319  25.048  30.157  17.170 -0.0635  0.2756 -0.0057
46833DOD     C384320  25.272  30.085  16.815 -0.1241 -0.1727  0.2266
46834DOD     C184321  27.071  23.117  15.051 -0.3195 -0.0097  0.0024
46834DOD     C284322  27.156  22.865  14.687 -0.0143 -0.1655  0.4078
46834DOD     C384323  27.427  23.021  14.347  0.0263  0.1896 -0.0730
46835DOD     C184324   2.389   6.240  24.974 -0.0191 -0.4550  0.1222
46835DOD     C284325   2.268   6.014  25.370 -0.1183  0.1928  0.1533
46835DOD     C384326   2.139   5.622  25.215  0.1439  0.0380  0.0477
46836DOD     C184327  11.287  25.492  27.321  0.1370  0.0878  0.1579
46836DOD     C284328  11.114  25.142  27.073  0.0091 -0.1631 -0.1040
46836DOD     C384329  11.149  24.707  27.032  0.2087  0.0634  0.1302
46837DOD     C184330  26.075  25.346  17.769  0.2408 -0.0784  0.3841
46837DOD     C284331  26.453  25.070  17.813  0.1118  0.2733  0.1707
46837DOD     C384332  26.895  25.069  17.627  0.2213  0.0724 -0.1198
46838DOD     C184333  11.239  18.032   8.720 -0.2804 -0.1145 -0.3592
46838DOD     C284334  11.352  18.246   9.118 -0.0906 -0.4177 -0.0185
46838DOD     C384335  11.378  17.951   9.472 -0.0286  0.0925 -0.1017
46839DOD     C184336  15.652   4.869   7.770 -0.1643  0.0886 -0.0615
46839DOD     C284337  15.655   4.752   7.377  0.1751  0.0307 -0.4751
46839DOD     C384338  15.711   4.704   6.958 -0.0416 -0.2436  0.0801
46840DOD     C184339  22.911  22.942  22.742  0.1155 -0.1113 -0.0112
46840DOD     C284340  22.468  22.847  22.670 -0.1163  0.1004  0.1015
46840DOD     C384341  22.040  23.006  22.773 -0.0977  0.3825 -0.2609
46841DOD     C184342  21.022   0.033   8.428 -0.1645 -0.0528 -0.3121
46841DOD     C284343  20.763  30.303   8.036 -0.1322  0.3032  0.0865
46841DOD     C384344  20.505  30.212   7.645 -0.3706 -0.0030  0.1673
46842DOD     C184345  29.478  11.196  25.279 -0.0473 -0.0635 -0.2172
46842DOD     C284346  29.802  11.083  24.983 -0.1247 -0.0082 -0.0150
46842DOD     C384347  30.248  11.240  24.853 -0.1764 -0.0972  0.3777
46843DOD     C184348   6.589  17.601  19.410 -0.1644  0.0257  0.0665
46843DOD     C284349   6.210  17.491  19.237 -0.1054 -0.0686  0.1596
46843DOD     C384350   6.061  17.080  19.139  0.1328 -0.3362 -0.2428
46844DOD     C184351   4.515   5.469   1.426 -0.1724  0.0873  0.0547
46844DOD     C284352   4.700   5.401   1.023  0.1588 -0.0096 -0.1210
46844DOD     C384353   4.503   5.484   0.575 -0.3122  0.1819 -0.0134
46845DOD     C184354  17.053  15.889  20.650  0.0315 -0.0960  0.0749
46845DOD     C284355  16.878  15.794  21.092  0.2938 -0.2315 -0.0966
46845DOD     C384356  16.796  15.976  21.482 -0.0737  0.0470 -0.4345
46846DOD     C184357  11.160  20.567   2.252  0.2145  0.0257 -0.2093
46846DOD     C284358  11.202  20.773   2.712 -0.2265  0.0739  0.0596
46846DOD     C384359  11.518  20.791   3.109  0.0777  0.0100  0.1350
46847DOD     C184360   1.139  11.608   9.347 -0.0719  0.2013 -0.2490
46847DOD     C284361   1.322  12.091   9.445  0.2739 -0.1291  0.0939
46847DOD     C384362   1.354  12.492   9.137 -0.3423  0.0177 -0.3261
46848DOD     C184363   7.900   9.464  18.837 -0.2848  0.0110  0.3222
46848DOD     C284364   8.277   9.706  18.883  0.1630  0.1875  0.0388
46848DOD     C384365   8.509   9.884  19.204  0.1807 -0.0821 -0.3826
46849DOD     C184366  28.935   1.225  27.350 -0.4088  0.1070  0.1369
46849DOD     C284367  28.854   1.636  27.415  0.0009  0.1818 -0.0263
46849DOD     C384368  28.528   1.835  27.690 -0.0250  0.0149 -0.1312
46850DOD     C184369   5.084   5.579  10.347 -0.3025  0.0327 -0.2477
46850DOD     C284370   5.114   5.956  10.661  0.1336  0.0342 -0.0115
46850DOD     C384371   5.178   6.051  11.075 -0.1519 -0.0362 -0.1805
46851DOD     C184372  15.241  24.774  18.141  0.0032  0.1161  0.0046
46851DOD     C284373  15.297  24.941  18.553  0.0825  0.2869 -0.2707
46851DOD     C384374  15.264  25.084  18.996  0.0911 -0.3444 -0.0914
46852DOD     C184375   4.120   0.331   3.544  0.0523 -0.2738 -0.1250
46852DOD     C284376   4.254   0.259   3.089  0.1463 -0.0968 -0.0537
46852DOD     C384377   4.710   0.186   2.971 -0.1469  0.4890  0.0086
46853DOD     C184378  22.683  10.623   5.161 -0.1439 -0.1898  0.1651
46853DOD     C284379  22.821  10.681   5.621 -0.1292  0.0607  0.0195
46853DOD     C384380  22.854  10.361   5.970 -0.4562  0.0540  0.1382
46854DOD     C184381  25.577   5.848   9.002 -0.0407 -0.0159  0.2608
46854DOD     C284382  25.255   6.035   8.687 -0.0086  0.0883 -0.2302
46854DOD     C384383  24.910   5.857   8.436  0.0977  0.1477  0.1954
46855DOD     C184384  10.544   3.106  18.000 -0.3352  0.0482  0.1377
46855DOD     C284385  10.284   3.492  17.886 -0.2012  0.1423 -0.0816
46855DOD     C384386  10.331   3.833  17.563 -0.2117  0.1885 -0.2407
46856DOD     C184387  26.066  18.848  29.660 -0.0285 -0.1791  0.0986
46856DOD     C284388  25.940  18.717  29.238  0.2865  0.2067  0.3092
46856DOD     C384389  25.751  18.576  28.848  0.1788 -0.0350  0.3757
46857DOD     C184390   3.694  25.374  23.069  0.1342 -0.4749 -0.2485
46857DOD     C284391   3.797  25.738  22.790 -0.1020  0.0537 -0.1682
46857DOD     C384392   3.859  25.887  22.372  0.5143  0.4249  0.3096
46858DOD     C184393  19.146   3.133  30.013  0.0776 -0.2273  0.1249
46858DOD     C284394  18.920   3.544  30.140 -0.0880 -0.0069  0.1942
46858DOD     C384395  18.626   3.882  30.172  0.5676  0.1419  0.0720
46859DOD     C184396  15.014  22.313  18.172 -0.2760  0.5689  0.1485
46859DOD     C284397  14.852  22.276  18.608  0.2788 -0.3136  0.1102
46859DOD     C384398  14.772  22.143  19.057  0.2637 -0.1218  0.0362
46860DOD     C184399  25.947  10.207   0.354  0.2805 -0.1393 -0.0023
46860DOD     C284400  25.935  10.496   0.697 -0.1363  0.0180  0.1606
46860DOD     C384401  26.225  10.754   0.925  0.0816  0.2289  0.0602
46861DOD     C184402   7.723   3.026   3.101 -0.4301 -0.1163  0.1325
46861DOD     C284403   7.639   3.267   3.527 -0.0794  0.0710 -0.1398
46861DOD     C384404   7.516   3.531   3.924 -0.0197 -0.3401 -0.0671
46862DOD     C184405  12.760  10.860   7.555 -0.3814 -0.0500  0.0556
46862DOD     C284406  12.427  10.932   7.226  0.0633  0.2656 -0.3236
46862DOD     C384407  12.019  10.896   6.946  0.4382  0.1685 -0.1825
46863DOD     C184408   7.690  11.122  15.807  0.1033  0.0808 -0.1149
46863DOD     C284409   7.519  11.544  15.833 -0.2723  0.2823 -0.0212
46863DOD     C384410   7.541  11.996  15.790 -0.2256 -0.1113 -0.1262
46864DOD     C184411   5.358  21.397  28.871 -0.0155 -0.1897 -0.1045
46864DOD     C284412   5.240  21.453  28.461 -0.1615  0.0127  0.0409
46864DOD     C384413   5.141  21.500  28.043 -0.2554 -0.0513  0.0671
46865DOD     C184414  27.132   6.737   8.588 -0.1537 -0.1326 -0.1300
46865DOD     C284415  27.272   6.499   8.964  0.1553  0.1631  0.0916
46865DOD     C384416  27.625   6.280   9.262  0.0016 -0.0896  0.1600
46866DOD     C184417  29.954  25.463  27.493 -0.1840  0.1856  0.0017
46866DOD     C284418  29.668  25.128  27.676  0.1785 -0.2297 -0.0671
46866DOD     C384419  29.347  25.043  27.990 -0.1034  0.1699  0.4427
46867DOD     C184420  13.672  20.781  16.274 -0.2143 -0.0061  0.0885
46867DOD     C284421  14.012  20.513  16.087 -0.1569  0.1198 -0.0572
46867DOD     C384422  14.431  20.330  16.132  0.0506  0.0602 -0.1234
46868DOD     C184423  18.627  17.754   0.228 -0.4327  0.0850  0.2921
46868DOD     C284424  18.635  17.778  30.044  0.1218 -0.0246  0.0448
46868DOD     C384425  18.831  17.924  29.617 -0.2295 -0.2458  0.1347
46869DOD     C184426  13.833  13.706  27.665  0.0621  0.3642 -0.3520
46869DOD     C284427  14.242  13.507  27.556 -0.0424  0.0877 -0.0440
46869DOD     C384428  14.667  13.497  27.484 -0.3650 -0.2012  0.0562
46870DOD     C184429   4.266   9.702  16.722  0.1080  0.2399  0.0638
46870DOD     C284430   3.920  10.033  16.681 -0.0562 -0.0677  0.2122
46870DOD     C384431   3.761  10.212  16.273 -0.1949 -0.0451 -0.3344
46871DOD     C184432  17.202  27.543  18.361  0.5722  0.0923  0.3585
46871DOD     C284433  17.514  27.366  18.744 -0.0233  0.0609 -0.0748
46871DOD     C384434  17.622  26.929  18.804 -0.1317  0.1664 -0.2538
46872DOD     C184435  22.402  23.457  26.080 -0.1422  0.0458 -0.2117
46872DOD     C284436  22.678  23.109  26.062  0.1358  0.0728  0.0548
46872DOD     C384437  23.021  22.799  26.029  0.1556  0.0063 -0.0541
46873DOD     C184438  24.540  24.856  25.400  0.1606 -0.0814  0.3565
46873DOD     C284439  24.105  24.792  25.284 -0.0910 -0.0137  0.0292
46873DOD     C384440  23.944  24.569  24.924  0.2321  0.1260 -0.0146
46874DOD     C184441  15.968  13.927  16.026 -0.0212 -0.0000 -0.1414
46874DOD     C284442  16.052  13.946  15.571 -0.2969  0.1324  0.1019
46874DOD     C384443  16.246  13.618  15.257 -0.0334  0.0883  0.0869
46875DOD     C184444  19.956   2.727  10.253  0.0762 -0.1491  0.1971
46875DOD     C284445  19.726   2.559  10.605  0.1224  0.1461  0.1648
46875DOD     C384446  19.267   2.428  10.582  0.0839 -0.1091 -0.1964
46876DOD     C184447  23.142   9.680  29.126 -0.1663 -0.0026 -0.2109
46876DOD     C284448  22.865   9.434  28.823 -0.0951 -0.0316 -0.2099
46876DOD     C384449  22.468   9.388  28.571 -0.4073  0.1187  0.0478
46877DOD     C184450  19.846  13.064  26.880 -0.2278 -0.0303 -0.1631
46877DOD     C284451  19.563  12.938  27.157 -0.1681  0.1897  0.0504
46877DOD     C384452  19.171  12.899  27.400 -0.2257  0.1841  0.0167
46878DOD     C184453   5.699  25.031  11.594  0.1957  0.0439 -0.0005
46878DOD     C284454   5.630  24.869  12.023  0.0123 -0.1469 -0.0873
46878DOD     C384455   5.660  24.980  12.483  0.0918  0.0400  0.0132
46879DOD     C184456  18.618  10.367  30.113 -0.0371  0.0655  0.1219
46879DOD     C284457  18.709  10.271  29.647  0.0338 -0.0292  0.0992
46879DOD     C384458  18.635   9.901  29.295 -0.1499 -0.0903  0.1539
46880DOD     C184459  11.031  12.471  18.720  0.0421  0.2706 -0.0889
46880DOD     C284460  10.802  12.499  19.150 -0.2684 -0.1866 -0.0663
46880DOD     C384461  10.611  12.837  19.307  0.1882 -0.0245  0.2136
46881DOD     C184462   3.532  24.669  19.566 -0.0366  0.0648 -0.1296
46881DOD     C284463   3.106  24.650  19.415 -0.0185  0.0438 -0.0548
46881DOD     C384464   2.942  24.315  19.118  0.1075  0.1661 -0.0914
46882DOD     C184465   4.242  26.611  11.108 -0.3829  0.3037  0.2317
46882DOD     C284466   4.484  26.376  11.445  0.0024 -0.1052  0.0901
46882DOD     C384467   4.597  26.236  11.871 -0.3422  0.0199 -0.1923
46883DOD     C184468  27.485  19.131   6.816  0.1258  0.1686 -0.1739
46883DOD     C284469  27.776  18.878   6.607  0.1140  0.0539  0.2760
46883DOD     C384470  28.208  18.820   6.446  0.0895 -0.0003  0.1958
46884DOD     C184471   2.119   5.856  20.801  0.0324 -0.1819  0.1875
46884DOD     C284472   2.307   5.841  21.225 -0.4915  0.0677  0.0022
46884DOD     C384473   2.509   6.000  21.586  0.5148 -0.1676  0.1322
46885DOD     C184474   9.025   1.453  11.454  0.1123  0.2296 -0.3318
46885DOD     C284475   9.216   1.924  11.378  0.0040  0.1173 -0.1142
46885DOD     C384476   9.624   2.137  11.533  0.1051 -0.0731 -0.0971
46886DOD     C184477   9.924   4.198   6.707  0.2357  0.2754 -0.0314
46886DOD     C284478   9.690   3.808   6.842 -0.5298 -0.0151  0.0305
46886DOD     C384479   9.696   3.334   6.958  0.2926 -0.0275  0.0358
46887DOD     C184480  23.388  15.358  26.594 -0.0345  0.1932  0.3413
46887DOD     C284481  22.973  15.324  26.720 -0.3592 -0.0115  0.0274
46887DOD     C384482  22.585  15.196  26.805  0.0308  0.1544  0.0865
46888DOD     C184483  21.917  27.594  25.114 -0.2036 -0.1208 -0.0023
46888DOD     C284484  21.799  27.599  24.653  0.2361  0.0112  0.1073
46888DOD     C384485  21.561  27.439  24.338  0.2384 -0.0526  0.5320
46889DOD     C184486  25.629  27.080  18.698 -0.1933 -0.0890  0.0663
46889DOD     C284487  25.356  26.951  18.383  0.3036 -0.0610 -0.3549
46889DOD     C384488  25.303  26.624  18.011  0.2035  0.0842 -0.1278
46890DOD     C184489  24.327  23.591   5.437  0.0884  0.0822 -0.2401
46890DOD     C284490  24.497  23.350   5.740 -0.0598  0.0559  0.0369
46890DOD     C384491  24.753  23.214   6.012 -0.1945  0.3143 -0.1865
46891DOD     C184492  16.063   2.193  17.267  0.0409 -0.0154  0.1775
46891DOD     C284493  15.736   2.486  17.309  0.2080  0.2360  0.0739
46891DOD     C384494  15.370   2.482  17.593 -0.1880 -0.1279 -0.1021
46892DOD     C184495   0.257  17.311  26.256 -0.1079 -0.0111  0.0311
46892DOD     C284496  30.229  17.592  26.421 -0.2312 -0.2282 -0.1256
46892DOD     C384497  30.155  17.714  26.869  0.1155 -0.0179 -0.1521
46893DOD     C184498  17.657  24.994  10.527  0.0772  0.1907 -0.0214
46893DOD     C284499  17.702  24.609  10.279  0.1733 -0.1529 -0.3593
46893DOD     C384500  17.883  24.224  10.132 -0.0007 -0.2348  0.0872
46894DOD     C184501  27.079   9.983  23.479 -0.0026  0.2203 -0.1386
46894DOD     C284502  27.358  10.024  23.865  0.0968  0.2542 -0.3745
46894DOD     C384503  27.788  10.067  23.893  0.0546 -0.2843 -0.1265
46895DOD     C184504  19.335  22.150  20.777  0.3233 -0.0522 -0.1939
46895DOD     C284505  19.271  22.624  20.853 -0.1103  0.3527 -0.0671
46895DOD     C384506  19.163  22.995  21.135  0.1604 -0.1617 -0.0399
46896DOD     C184507  27.149  20.132  23.300  0.1432  0.2868  0.0526
46896DOD     C284508  26.897  19.824  23.029 -0.1258 -0.1534  0.0418
46896DOD     C384509  26.451  19.738  22.939 -0.3720 -0.1861 -0.2057
46897DOD     C184510   2.225  29.884  15.376 -0.0839  0.1949 -0.1042
46897DOD     C284511   1.732  29.801  15.277 -0.1901 -0.0466 -0.4296
46897DOD     C384512   1.355  29.560  15.066  0.3797  0.0890 -0.2351
46898DOD     C184513   0.626   3.318  21.732  0.1285  0.4404 -0.1025
46898DOD     C284514   0.949   3.269  22.094 -0.2460 -0.2492  0.1059
46898DOD     C384515   1.089   3.249  22.542  0.2114  0.5312 -0.0170
46899DOD     C184516   9.169   0.709   0.992  0.4419 -0.2390  0.1523
46899DOD     C284517   9.302   0.785   1.383 -0.0411  0.1677  0.1238
46899DOD     C384518   9.532   1.030   1.758 -0.1521 -0.0835  0.2912
46900DOD     C184519  15.630   5.618   9.491  0.2961 -0.1594 -0.0592
46900DOD     C284520  15.896   5.797   9.814 -0.3927 -0.0874  0.0393
46900DOD     C384521  16.260   5.699  10.025 -0.1936 -0.0602 -0.1497
46901DOD     C184522   4.772  28.856  11.422 -0.1501  0.1512  0.0149
46901DOD     C284523   4.902  28.738  11.906 -0.1614  0.3161  0.1584
46901DOD     C384524   4.913  28.656  12.395  0.0255  0.2085  0.2250
46902DOD     C184525  15.480  23.943  10.525 -0.2250  0.0983  0.3521
46902DOD     C284526  15.643  23.581  10.282  0.0752  0.0494 -0.2406
46902DOD     C384527  16.009  23.439  10.112  0.0643 -0.1281  0.3925
46903DOD     C184528   3.456  29.794   4.243 -0.1455 -0.1548 -0.2346
46903DOD     C284529   3.173  29.561   3.974  0.3187 -0.0299 -0.2309
46903DOD     C384530   2.867  29.284   3.819  0.0459  0.0407 -0.0116
46904DOD     C184531   1.471  18.248  12.567  0.1474  0.0440 -0.1804
46904DOD     C284532   1.368  17.793  12.632  0.0413 -0.0903 -0.1773
46904DOD     C384533   1.062  17.409  12.675  0.3058  0.2045  0.0434
46905DOD     C184534   6.473  24.680  17.047 -0.1588  0.0352 -0.1722
46905DOD     C284535   6.689  24.560  16.588 -0.1044  0.0200 -0.3386
46905DOD     C384536   7.073  24.550  16.340  0.2740  0.0443 -0.1255
46906DOD     C184537  28.907  16.828  16.661  0.1242  0.1097  0.0213
46906DOD     C284538  29.137  16.995  16.288 -0.0946 -0.1433  0.0953
46906DOD     C384539  29.316  17.429  16.242 -0.1445  0.1286  0.1443
46907DOD     C184540   7.540  24.313  17.630 -0.1505 -0.0371  0.0380
46907DOD     C284541   7.376  23.892  17.754 -0.3666  0.1879 -0.0414
46907DOD     C384542   7.011  23.766  17.975 -0.2435  0.1265 -0.1396
46908DOD     C184543   1.307   8.706  26.563 -0.1490  0.1733  0.1901
46908DOD     C284544   1.505   8.503  26.205 -0.0913  0.2110 -0.1510
46908DOD     C384545   1.442   8.068  26.023  0.1600 -0.0923 -0.2745
46909DOD     C184546   2.625   3.789   1.671 -0.1574  0.0506  0.0018
46909DOD     C284547   3.063   4.016   1.484 -0.2902  0.2884  0.0528
46909DOD     C384548   3.379   4.100   1.101 -0.2173  0.2911  0.0120
46910DOD     C184549  24.976  21.517  12.118  0.2167  0.0544  0.0337
46910DOD     C284550  24.495  21.507  11.962  0.3296  0.1903 -0.2021
46910DOD     C384551  24.146  21.241  11.715 -0.1007  0.3351  0.2921
46911DOD     C184552  15.894  22.804   8.224  0.1737  0.0610  0.0832
46911DOD     C284553  15.479  22.638   8.032  0.1861 -0.3998  0.3758
46911DOD     C384554  15.006  22.659   7.865 -0.0885  0.2230 -0.1529
46912DOD     C184555  30.099   3.440  26.786  0.1885  0.4107 -0.2148
46912DOD     C284556  30.297   3.071  27.095  0.1035  0.0901  0.0169
46912DOD     C384557  30.195   2.564  27.224 -0.2869 -0.1155 -0.1345
46913DOD     C184558  25.654  17.497  18.126  0.1761  0.1315 -0.1270
46913DOD     C284559  25.569  17.843  17.841  0.2654  0.2862 -0.0292
46913DOD     C384560  25.495  17.698  17.387  0.1537  0.2983 -0.0257
46914DOD     C184561   5.845   0.314  13.552 -0.1089  0.1564  0.0025
46914DOD     C284562   5.683   0.712  13.703  0.0414 -0.2047 -0.1839
46914DOD     C384563   5.656   0.862  14.130 -0.3800  0.2658  0.1424
46915DOD     C184564  10.218   8.877  10.144 -0.2571  0.3076  0.0265
46915DOD     C284565  10.288   8.468  10.380  0.0033 -0.2007  0.0934
46915DOD     C384566  10.383   8.038  10.466 -0.0619  0.1001  0.0359
46916DOD     C184567   4.702  13.037   3.426 -0.2022  0.0677  0.0402
46916DOD     C284568   4.694  13.187   3.830  0.2148 -0.0507  0.1414
46916DOD     C384569   4.698  13.623   4.027  0.1102  0.0700  0.1877
46917DOD     C184570  11.096  28.404   2.475 -0.0716  0.2943  0.1409
46917DOD     C284571  10.804  28.727   2.233  0.0717  0.0357  0.2288
46917DOD     C384572  10.691  29.179   2.133 -0.4009  0.0240 -0.1492
46918DOD     C184573  10.260  26.389   6.383 -0.0646 -0.0335 -0.0017
46918DOD     C284574  10.030  26.138   6.040 -0.1359 -0.2809  0.1249
46918DOD     C384575   9.879  26.053   5.599  0.2436  0.2555 -0.1916
46919DOD     C184576   3.143  14.267  18.329 -0.3333  0.1898  0.0854
46919DOD     C284577   2.701  14.359  18.474  0.2458  0.2436  0.0367
46919DOD     C384578   2.267  14.232  18.729 -0.2571  0.1179 -0.1169
46920DOD     C184579   5.343  26.341  24.518 -0.1581 -0.0352  0.1525
46920DOD     C284580   5.426  26.762  24.464 -0.2870  0.1062  0.3779
46920DOD     C384581   5.422  27.230  24.333 -0.0500 -0.3251  0.1021
46921DOD     C184582  29.494  21.424  27.938  0.1255 -0.0665  0.1467
46921DOD     C284583  29.081  21.544  27.743 -0.0900 -0.3596 -0.3802
46921DOD     C384584  28.917  21.515  27.355 -0.1643 -0.0814  0.0184
46922DOD     C184585  25.062  14.014  12.195  0.1264 -0.3847 -0.0640
46922DOD     C284586  24.843  13.977  12.659 -0.1509  0.1141 -0.4215
46922DOD     C384587  24.612  13.801  13.010  0.2267  0.2419 -0.1832
46923DOD     C184588  16.113  25.221  13.423  0.0174  0.2029  0.0343
46923DOD     C284589  15.948  25.528  13.139  0.0733 -0.1860  0.0127
46923DOD     C384590  15.629  25.778  12.935 -0.1453 -0.1330 -0.0644
46924DOD     C184591  27.486   7.674  19.208  0.0856  0.1061 -0.1336
46924DOD     C284592  27.922   7.687  18.983 -0.1414 -0.1709  0.1394
46924DOD     C384593  28.005   7.511  18.538 -0.1571 -0.1772 -0.0520
46925DOD     C184594  20.077  29.128  10.552 -0.3367 -0.0230 -0.0575
46925DOD     C284595  20.311  28.912  10.855 -0.3022  0.3145 -0.1375
46925DOD     C384596  20.441  28.817  11.315 -0.0003 -0.0652  0.1914
46926DOD     C184597   2.119   8.141  11.134 -0.1232 -0.0719  0.0002
46926DOD     C284598   1.991   7.795  10.783 -0.1957  0.1929  0.1449
46926DOD     C384599   1.969   7.590  10.366  0.4522 -0.3322  0.0651
46927DOD     C184600   9.079  18.202   6.046  0.1371 -0.0034  0.0988
46927DOD     C284601   8.736  18.173   6.334  0.1813  0.0455 -0.2364
46927DOD     C384602   8.459  18.403   6.645  0.0964  0.0523  0.2537
46928DOD     C184603   1.330  19.545  24.672 -0.0658  0.0445  0.0418
46928DOD     C284604   1.686  19.783  24.587  0.1608 -0.3221 -0.0457
46928DOD     C384605   1.990  19.920  24.300 -0.2029 -0.0422  0.1135
46929DOD     C184606  23.211   0.641  18.219 -0.3843 -0.4905 -0.1408
46929DOD     C284607  22.992   0.246  18.068 -0.3076 -0.0656 -0.1990
46929DOD     C384608  22.989  30.183  17.844 -0.0506  0.0868 -0.2528
46930DOD     C184609  11.722   2.067   0.746  0.1471  0.0270  0.3710
46930DOD     C284610  11.676   1.903   1.185 -0.1181 -0.0860 -0.1508
46930DOD     C384611  11.464   1.598   1.397  0.1510 -0.0267 -0.0836
46931DOD     C184612  13.063  11.911  10.847 -0.1670  0.1275  0.2908
46931DOD     C284613  13.021  12.181  10.461 -0.0176 -0.1893  0.1206
46931DOD     C384614  13.341  12.410  10.185 -0.0387 -0.1576 -0.2455
46932DOD     C184615   2.732   7.837   6.403  0.0665  0.2046  0.1179
46932DOD     C284616   2.951   7.454   6.561 -0.5798 -0.3388  0.1511
46932DOD     C384617   3.017   7.004   6.491 -0.1085  0.2780  0.1524
46933DOD     C184618   9.727   1.427  18.285 -0.1373 -0.1620  0.4409
46933DOD     C284619  10.190   1.521  18.429  0.1949  0.0675  0.0410
46933DOD     C384620  10.426   1.555  18.796  0.1200 -0.1234  0.1239
46934DOD     C184621   2.619  21.450   6.058  0.0190  0.2873  0.1779
46934DOD     C284622   2.578  21.488   6.496  0.0235 -0.0673 -0.3174
46934DOD     C384623   2.538  21.318   6.977 -0.1195 -0.0900 -0.1063
46935DOD     C184624  18.360   9.608  14.735 -0.1466 -0.0504 -0.2142
46935DOD     C284625  18.188   9.433  14.304  0.0782 -0.2082  0.0142
46935DOD     C384626  18.255   9.274  13.854 -0.2072  0.3222  0.1607
46936DOD     C184627   8.400  10.381   1.339 -0.1649  0.0528  0.0777
46936DOD     C284628   7.977  10.363   1.401  0.3340 -0.1276  0.1942
46936DOD     C384629   7.491  10.435   1.224  0.1550  0.0166  0.3455
46937DOD     C184630   2.455  26.447   3.300 -0.1254 -0.0892  0.2036
46937DOD     C284631   2.588  26.725   2.919 -0.2799 -0.0315 -0.1018
46937DOD     C384632   2.374  26.942   2.609  0.0144 -0.0603  0.0267
46938DOD     C184633  17.195   4.633  16.947  0.2466 -0.1773  0.0070
46938DOD     C284634  17.012   4.203  17.031 -0.0477 -0.1603 -0.5182
46938DOD     C384635  16.986   3.808  16.755 -0.0549  0.1648 -0.2016
46939DOD     C184636  23.075   3.966  21.867  0.2504 -0.1943  0.0193
46939DOD     C284637  23.065   4.012  22.347 -0.1541 -0.0472  0.0765
46939DOD     C384638  22.835   3.765  22.686 -0.2111 -0.2423  0.0628
46940DOD     C184639  19.638  26.445   5.440  0.4531 -0.1590 -0.0649
46940DOD     C284640  19.484  26.017   5.343 -0.1103  0.1868 -0.1841
46940DOD     C384641  19.601  25.604   5.550  0.1500 -0.3468  0.3944
46941DOD     C184642  17.795  30.058  28.831  0.0509 -0.0745  0.2856
46941DOD     C284643  17.923  29.682  29.081  0.0267  0.3961 -0.0594
46941DOD     C384644  18.089  29.636  29.504  0.0317  0.0580  0.0494
46942DOD     C184645  13.283  24.300  20.953  0.0734 -0.0505  0.1022
46942DOD     C284646  13.757  24.276  21.093 -0.1204  0.0398 -0.2403
46942DOD     C384647  14.108  24.474  21.397 -0.3825 -0.1850 -0.2401
46943DOD     C184648  12.195  17.436  12.422  0.0783 -0.1004 -0.2031
46943DOD     C284649  11.778  17.619  12.367 -0.4049  0.2988 -0.0783
46943DOD     C384650  11.382  17.447  12.569  0.1837  0.4107  0.1077
46944DOD     C184651  10.044  29.804  22.666  0.1602  0.0869  0.0303
46944DOD     C284652  10.104  30.265  22.566  0.0542  0.0464 -0.2614
46944DOD     C384653  10.100   0.364  22.850  0.1472 -0.0814 -0.1872
46945DOD     C184654   2.818  17.259  17.814 -0.0908  0.0944 -0.0811
46945DOD     C284655   2.605  17.298  17.346  0.1159 -0.0758 -0.3552
46945DOD     C384656   2.641  17.344  16.872 -0.1508 -0.0023  0.1139
46946DOD     C184657  19.288  16.727  24.206 -0.0714 -0.0639  0.0952
46946DOD     C284658  19.237  16.384  24.560  0.1881 -0.1012 -0.0239
46946DOD     C384659  19.370  15.909  24.695  0.2123 -0.1034 -0.0018
46947DOD     C184660   8.100  24.561  10.982 -0.0773 -0.0676  0.2573
46947DOD     C284661   7.834  24.579  10.612  0.0525  0.1858 -0.0299
46947DOD     C384662   7.415  24.534  10.435 -0.0817  0.0722  0.2165
46948DOD     C184663  15.985   8.730  15.986 -0.2092  0.0795 -0.1138
46948DOD     C284664  16.047   8.937  15.571  0.1727 -0.0995 -0.1861
46948DOD     C384665  16.087   8.882  15.129 -0.0317 -0.0281 -0.1487
46949DOD     C184666  28.325   2.873   2.287 -0.0730 -0.1321 -0.0892
46949DOD     C284667  28.558   2.699   2.591 -0.0541 -0.2486 -0.0517
46949DOD     C384668  28.593   2.330   2.913 -0.1831 -0.0499 -0.0140
46950DOD     C184669  22.858  19.286  12.022 -0.1389  0.0761 -0.0543
46950DOD     C284670  23.343  19.135  12.000 -0.1332 -0.0995  0.3197
46950DOD     C384671  23.693  18.851  12.259  0.0933  0.3776  0.3305
46951DOD     C184672   5.106   3.713  19.902  0.5882  0.3123  0.1628
46951DOD     C284673   5.201   3.299  19.685  0.0394 -0.1669 -0.2286
46951DOD     C384674   5.029   2.982  19.319  0.1256 -0.2432  0.0852
46952DOD     C184675   6.529   9.300   7.149  0.1551 -0.2959  0.0074
46952DOD     C284676   6.526   9.731   7.049 -0.2059  0.0794 -0.4017
46952DOD     C384677   6.708  10.169   6.959  0.1175  0.3585 -0.1791
46953DOD     C184678  11.260  16.521  23.357 -0.2089  0.1130  0.2099
46953DOD     C284679  11.384  16.945  23.395  0.2754 -0.2932 -0.3121
46953DOD     C384680  11.499  17.390  23.499 -0.2386 -0.0936 -0.3199
46954DOD     C184681   3.507  23.326  13.793  0.2970 -0.1818  0.1472
46954DOD     C284682   3.253  23.064  13.564  0.0361  0.1980 -0.0105
46954DOD     C384683   2.983  22.857  13.273 -0.0986 -0.2532 -0.0474
46955DOD     C184684  17.398  29.490   5.387  0.0337  0.0058 -0.1036
46955DOD     C284685  17.381  29.500   5.858  0.0139  0.0497 -0.0967
46955DOD     C384686  17.383  29.614   6.297  0.2540  0.4282 -0.0397
46956DOD     C184687  25.437  23.082   0.835 -0.0558  0.0944 -0.2347
46956DOD     C284688  25.416  23.519   0.981  0.0100 -0.0230  0.0534
46956DOD     C384689  25.305  23.932   1.203  0.0345  0.3556  0.0421
46957DOD     C184690   0.547  14.728  26.001  0.1652  0.1356 -0.0612
46957DOD     C284691   0.076  14.612  26.067  0.1878 -0.0501 -0.0428
46957DOD     C384692  29.963  14.766  26.103 -0.0838  0.1841  0.0036
46958DOD     C184693  26.809  26.142   8.988 -0.3291  0.1930  0.0874
46958DOD     C284694  26.359  26.015   8.904  0.0165  0.0586  0.0609
46958DOD     C384695  26.335  25.565   8.867  0.1040 -0.2781 -0.1304
46959DOD     C184696  28.602   2.877  23.683 -0.0239  0.0356 -0.0810
46959DOD     C284697  28.167   2.757  23.428  0.2069  0.0955  0.2426
46959DOD     C384698  27.689   2.736  23.475  0.3613 -0.0308  0.0695
46960DOD     C184699  17.333   3.751   0.361  0.1786 -0.0136 -0.0705
46960DOD     C284700  17.302   4.091   0.695 -0.4006  0.0563  0.2658
46960DOD     C384701  17.332   4.531   0.875 -0.5189 -0.0137 -0.0732
46961DOD     C184702  24.552  21.285  13.659 -0.2811 -0.1299 -0.0413
46961DOD     C284703  24.435  21.661  13.388 -0.1223 -0.1248 -0.1766
46961DOD     C384704  24.648  21.949  13.099  0.1437 -0.0116  0.2100
46962DOD     C184705   0.339  22.940  16.148 -0.0289  0.0490 -0.1848
46962DOD     C284706   0.566  23.241  16.424 -0.0216  0.1987  0.2438
46962DOD     C384707   0.503  23.487  16.783  0.2872  0.1604 -0.0024
46963DOD     C184708   7.929  25.253  21.480  0.0428 -0.1250  0.0198
46963DOD     C284709   7.686  24.949  21.711 -0.0836  0.2403  0.0408
46963DOD     C384710   7.285  24.909  21.882  0.0734 -0.0522  0.6504
46964DOD     C184711   6.411  23.107  18.375  0.1729  0.0250  0.2203
46964DOD     C284712   6.335  22.669  18.316  0.1283 -0.1040  0.3045
46964DOD     C384713   6.457  22.244  18.269  0.1493  0.0265 -0.3630
46965DOD     C184714  18.649  24.076  25.011  0.0808  0.1945 -0.0512
46965DOD     C284715  19.058  23.850  25.028 -0.1727  0.0256  0.0618
46965DOD     C384716  19.433  23.982  25.289 -0.0420 -0.0144 -0.0029
46966DOD     C184717  28.849  16.596  29.806 -0.0536  0.0097 -0.1432
46966DOD     C284718  28.847  16.711  30.277  0.1959  0.0447  0.0712
46966DOD     C384719  28.890  17.116   0.173  0.1871  0.0251  0.2584
46967DOD     C184720  24.937  17.136   5.736 -0.0968 -0.2167  0.1862
46967DOD     C284721  24.806  17.118   5.311  0.1992 -0.0628  0.0784
46967DOD     C384722  24.572  16.705   5.129  0.3803  0.1205 -0.0615
46968DOD     C184723   5.648   5.243   9.796 -0.1570  0.2213  0.1278
46968DOD     C284724   5.208   5.257   9.903 -0.0602 -0.0991  0.2532
46968DOD     C384725   4.765   5.495   9.890  0.0468  0.0430  0.0706
46969DOD     C184726   3.643  23.466   7.270 -0.0038 -0.0571  0.2499
46969DOD     C284727   3.578  23.344   6.806  0.3060 -0.0616  0.2703
46969DOD     C384728   3.642  22.937   6.562 -0.1267  0.0197 -0.0024
46970DOD     C184729   3.076  28.167  22.370  0.2335 -0.1307 -0.2794
46970DOD     C284730   2.935  28.283  22.843  0.0276  0.0478  0.0933
46970DOD     C384731   2.776  28.652  23.013 -0.0320 -0.0970 -0.1554
46971DOD     C184732  13.015  17.411   2.746 -0.1973 -0.0026 -0.1702
46971DOD     C284733  13.224  17.221   2.382 -0.1447  0.1588 -0.2721
46971DOD     C384734  13.298  17.292   1.929  0.1259 -0.0228 -0.4081
46972DOD     C184735  15.848  23.648  13.793  0.0881  0.5110 -0.0173
46972DOD     C284736  15.540  23.508  13.493  0.2133 -0.0509 -0.1378
46972DOD     C384737  15.292  23.147  13.365 -0.0892  0.0559 -0.0315
46973DOD     C184738  21.837   1.381  23.762  0.2335 -0.1134  0.2737
46973DOD     C284739  21.667   1.697  24.021 -0.1650 -0.1544  0.2525
46973DOD     C384740  21.305   1.702  24.303 -0.1350 -0.0140 -0.0366
46974DOD     C184741   3.906  20.340   9.371  0.0593  0.0954  0.1496
46974DOD     C284742   3.655  19.945   9.270  0.0304  0.0273 -0.1901
46974DOD     C384743   3.352  19.667   9.069 -0.0716 -0.1251 -0.0637
46975DOD     C184744  18.611  15.284  21.643 -0.2919  0.2263 -0.1173
46975DOD     C284745  18.214  15.455  21.366 -0.0399  0.2261  0.1609
46975DOD     C384746  17.915  15.558  21.019 -0.0333  0.0014  0.0462
46976DOD     C184747  10.565   4.714  18.745  0.2013  0.0117  0.2165
46976DOD     C284748  10.671   5.108  18.924 -0.0020 -0.0750 -0.1659
46976DOD     C384749  10.741   5.513  19.119 -0.2536 -0.1709 -0.2103
46977DOD     C184750   7.151  21.660  25.952  0.3561  0.0426 -0.2190
46977DOD     C284751   7.544  21.408  25.982  0.1171 -0.1485  0.1252
46977DOD     C384752   7.733  21.354  25.622  0.0666 -0.2481 -0.0493
46978DOD     C184753  22.417  24.689  14.868  0.0899  0.1939  0.0100
46978DOD     C284754  22.917  24.745  14.951  0.1662 -0.1936  0.1230
46978DOD     C384755  23.211  24.996  15.146  0.0071  0.3640  0.0239
46979DOD     C184756  13.497   7.417  21.130  0.4509 -0.1529  0.2413
46979DOD     C284757  13.609   7.499  20.626  0.1384 -0.0345 -0.0597
46979DOD     C384758  13.741   7.346  20.180  0.0890  0.2884  0.0252
46980DOD     C184759   2.091   9.380  28.070  0.2874  0.0344 -0.2446
46980DOD     C284760   1.800   9.072  28.249  0.1091 -0.2759  0.0767
46980DOD     C384761   1.519   9.026  28.631 -0.2612 -0.3055  0.0883
46981DOD     C184762  10.872  26.157  25.329  0.3385 -0.0166  0.0153
46981DOD     C284763  10.526  26.322  25.642 -0.2159 -0.2552  0.1682
46981DOD     C384764  10.338  26.729  25.804 -0.1738 -0.0771 -0.0739
46982DOD     C184765  23.483  23.401   4.402  0.0892  0.1995 -0.2910
46982DOD     C284766  23.823  23.715   4.612 -0.0393 -0.1853  0.0636
46982DOD     C384767  23.935  24.181   4.582  0.0302  0.4391  0.2040
46983DOD     C184768  16.601  25.486  27.513  0.0404 -0.0249 -0.0638
46983DOD     C284769  16.816  25.637  27.117 -0.3643  0.1579  0.0500
46983DOD     C384770  17.105  25.945  26.834  0.4617 -0.1217  0.0775
46984DOD     C184771  12.815   4.069   5.027  0.3380 -0.0126 -0.1655
46984DOD     C284772  13.113   4.375   5.240  0.2120 -0.0322  0.1578
46984DOD     C384773  13.498   4.513   5.463  0.0149 -0.1470  0.2289
46985DOD     C184774  16.594   8.746  12.726  0.0406 -0.2465  0.3491
46985DOD     C284775  16.427   8.428  13.046 -0.0500 -0.3279 -0.0834
46985DOD     C384776  16.104   8.652  13.313  0.0359 -0.0999  0.0191
46986DOD     C184777  15.434  23.785  11.174  0.0753 -0.2571 -0.1678
46986DOD     C284778  15.598  24.152  11.000 -0.0962  0.0956 -0.0769
46986DOD     C384779  15.842  24.311  10.655 -0.2915  0.0777  0.1283
46987DOD     C184780  13.413   4.650  24.697  0.0554 -0.0215 -0.0616
46987DOD     C284781  13.382   4.602  24.273  0.1233 -0.2072  0.0570
46987DOD     C384782  13.191   4.890  23.917 -0.1452  0.0543  0.2576
46988DOD     C184783   7.003   4.521  18.393 -0.0236  0.0086  0.2261
46988DOD     C284784   6.713   4.594  18.020 -0.1188 -0.0760  0.0746
46988DOD     C384785   6.317   4.617  17.732 -0.1390 -0.5412 -0.0936
46989DOD     C184786  27.666  14.843   5.387 -0.1623 -0.1163 -0.1732
46989DOD     C284787  27.529  15.134   5.644  0.5124 -0.1788 -0.0225
46989DOD     C384788  27.503  15.445   6.014  0.2302 -0.2080  0.0484
46990DOD     C184789  10.955   0.118  27.659 -0.2280 -0.0794 -0.2859
46990DOD     C284790  10.992  29.986  27.835 -0.1919  0.1648  0.1742
46990DOD     C384791  10.932  29.487  27.814  0.1961 -0.1672 -0.2086
46991DOD     C184792  12.148   8.988  16.181  0.3371  0.2735 -0.1431
46991DOD     C284793  11.879   9.046  15.787  0.0473 -0.0654  0.0019
46991DOD     C384794  11.451   9.240  15.622 -0.2540  0.0237 -0.2080
46992DOD     C184795  11.813  22.258  21.377 -0.4934  0.0722  0.2217
46992DOD     C284796  11.465  22.095  21.642 -0.0413  0.2621 -0.0815
46992DOD     C384797  11.155  22.088  21.991 -0.0191 -0.1240 -0.0596
46993DOD     C184798  27.020   1.149   9.430  0.0429  0.0467 -0.1171
46993DOD     C284799  27.518   1.226   9.304  0.0875 -0.2218 -0.2403
46993DOD     C384800  27.676   1.155   8.917  0.0805  0.0054  0.0278
46994DOD     C184801   5.401   8.629  18.242  0.3958  0.1434  0.1991
46994DOD     C284802   5.196   8.854  17.897  0.0533 -0.1025 -0.1802
46994DOD     C384803   5.060   9.255  17.742 -0.1598 -0.1009 -0.0955
46995DOD     C184804  29.582  20.008  22.259  0.1696  0.2741 -0.2558
46995DOD     C284805  29.315  19.736  22.483 -0.0209 -0.0618 -0.3757
46995DOD     C384806  29.139  19.352  22.302  0.1172  0.2208 -0.0663
46996DOD     C184807  22.113  15.892   6.764  0.0393  0.2750  0.1326
46996DOD     C284808  21.949  15.807   7.185  0.2331  0.3166 -0.0643
46996DOD     C384809  21.882  15.898   7.644  0.0319 -0.0428  0.0442
46997DOD     C184810  17.000  30.117  25.638  0.3332  0.1020 -0.0999
46997DOD     C284811  17.067  30.264  25.170 -0.1139 -0.1577  0.0748
46997DOD     C384812  17.126   0.210  24.804 -0.4229 -0.3008  0.3194
46998DOD     C184813  29.538   6.845  24.892  0.0289 -0.0091 -0.0962
46998DOD     C284814  29.169   7.078  24.975  0.0255 -0.1300 -0.1042
46998DOD     C384815  28.895   7.375  24.854  0.1549 -0.0420 -0.4412
46999DOD     C184816   8.808  14.861  27.407  0.1036  0.0146 -0.1113
46999DOD     C284817   8.400  14.864  27.258  0.3158 -0.3674 -0.1056
46999DOD     C384818   8.082  15.152  27.269 -0.1535  0.2667  0.4990
47000DOD     C184819  26.278  13.224   3.462  0.1020 -0.0424  0.2178
47000DOD     C284820  26.633  13.445   3.501 -0.1787 -0.1098  0.0403
47000DOD     C384821  26.937  13.769   3.260 -0.2653  0.2480  0.1872
47001DOD     C184822  26.567   2.925   5.810  0.1902 -0.1474  0.0077
47001DOD     C284823  26.101   2.922   6.006  0.2143  0.0701 -0.0745
47001DOD     C384824  25.656   2.855   6.218  0.0052 -0.1019  0.0248
47002DOD     C184825   2.889   4.473  27.141 -0.1008 -0.1035  0.1223
47002DOD     C284826   2.453   4.608  27.340 -0.0267  0.2465 -0.2190
47002DOD     C384827   2.322   4.902  27.710 -0.3253  0.0080  0.0170
47003DOD     C184828   9.601  29.404  20.255 -0.0782 -0.1113 -0.3387
47003DOD     C284829   9.435  29.646  20.708 -0.0332 -0.0292  0.1591
47003DOD     C384830   9.416  29.687  21.165 -0.1614 -0.0915  0.1460
47004DOD     C184831   9.497  24.980  16.956 -0.1403  0.0763  0.2043
47004DOD     C284832   9.418  24.704  16.558  0.0810  0.0576  0.1451
47004DOD     C384833   9.334  24.320  16.328  0.1225 -0.0628  0.0385
47005DOD     C184834  25.602   7.866  29.675  0.3894 -0.0557 -0.0996
47005DOD     C284835  25.427   7.459  29.871 -0.1972 -0.0025  0.0721
47005DOD     C384836  25.398   7.247  30.266  0.2766  0.2646  0.0119
47006DOD     C184837   9.340   7.686  18.687  0.0236 -0.2728  0.0752
47006DOD     C284838   9.534   7.692  19.100  0.1940 -0.3158  0.2220
47006DOD     C384839   9.558   7.604  19.600 -0.0876 -0.0412 -0.0738
47007DOD     C184840  15.406  22.960  26.005 -0.3480 -0.0158 -0.0377
47007DOD     C284841  15.775  22.900  25.697  0.3055  0.0553  0.1502
47007DOD     C384842  16.023  23.009  25.289 -0.0407  0.1323  0.0225
47008DOD     C184843   9.723   4.462   9.586  0.0844  0.0165 -0.0888
47008DOD     C284844   9.453   4.541   9.260  0.1762 -0.1967 -0.1504
47008DOD     C384845   8.995   4.472   9.150 -0.0537  0.3044 -0.0039
47009DOD     C184846  24.989   2.219  19.453  0.1565 -0.5177  0.2920
47009DOD     C284847  25.046   2.054  19.909 -0.1197 -0.0393  0.1926
47009DOD     C384848  24.966   1.854  20.308 -0.0629  0.0498 -0.3226
47010DOD     C184849  20.905   0.944  12.939 -0.0451 -0.1629 -0.0399
47010DOD     C284850  20.571   1.074  12.618  0.0942 -0.0115 -0.1741
47010DOD     C384851  20.117   1.004  12.484 -0.1650  0.2105 -0.0068
47011DOD     C184852  25.533  26.050  17.387  0.1394 -0.1154  0.0488
47011DOD     C284853  25.427  25.894  16.950 -0.1496 -0.2762 -0.2985
47011DOD     C384854  25.410  26.011  16.505  0.0756  0.3982  0.1990
47012DOD     C184855   2.229  19.843  16.787 -0.0610 -0.0725  0.3926
47012DOD     C284856   2.096  19.356  16.735  0.2437 -0.1011  0.0663
47012DOD     C384857   1.931  19.033  16.444 -0.1998  0.0568 -0.0824
47013DOD     C184858  16.532  21.477  16.252  0.1143  0.0290 -0.0294
47013DOD     C284859  16.452  21.902  16.088  0.2198  0.1304  0.1960
47013DOD     C384860  16.508  22.318  15.867 -0.2979  0.0682 -0.0265
47014DOD     C184861  28.579  29.554  27.342  0.0198  0.1307  0.3462
47014DOD     C284862  28.934  29.426  27.085 -0.1385 -0.3870  0.0073
47014DOD     C384863  29.256  29.323  26.824  0.3063 -0.2099 -0.0015
47015DOD     C184864   8.509   1.848   6.746 -0.1860 -0.1184 -0.1898
47015DOD     C284865   8.349   1.807   6.276 -0.3441 -0.1559 -0.0979
47015DOD     C384866   8.457   1.861   5.839 -0.0301  0.2285 -0.1612
47016DOD     C184867  23.000  21.097  15.045 -0.1844  0.3016 -0.0293
47016DOD     C284868  22.713  21.133  15.375  0.0574  0.1037 -0.2205
47016DOD     C384869  22.340  21.031  15.591 -0.0958  0.1538  0.1466
47017DOD     C184870  15.561  24.551   1.038  0.1599 -0.0724 -0.4044
47017DOD     C284871  15.299  24.221   1.007  0.1239  0.0665  0.2083
47017DOD     C384872  15.261  23.798   1.049 -0.3638 -0.0722 -0.1008
47018DOD     C184873  23.232  12.344   9.311  0.2085 -0.0055 -0.2251
47018DOD     C284874  23.697  12.216   9.173  0.1081 -0.2554  0.1949
47018DOD     C384875  24.120  12.074   9.169 -0.1570  0.0253 -0.0128
47019DOD     C184876  14.068  24.154  24.886  0.1129  0.0766  0.1968
47019DOD     C284877  13.908  24.497  25.170 -0.1635 -0.0095  0.1995
47019DOD     C384878  14.024  24.924  25.294  0.0117 -0.0087 -0.0790
47020DOD     C184879   4.625  20.315  11.644  0.0342  0.3416 -0.0343
47020DOD     C284880   4.971  20.517  11.359  0.3161 -0.1596  0.2200
47020DOD     C384881   5.312  20.717  11.179 -0.1761  0.2487  0.1082
47021DOD     C184882  20.499   3.737  14.057 -0.0889 -0.1486 -0.0536
47021DOD     C284883  20.502   3.403  14.350  0.0844 -0.0207 -0.3134
47021DOD     C384884  20.671   2.950  14.260  0.2543  0.0193  0.0654
47022DOD     C184885   1.626   9.866   3.343 -0.2084  0.0227 -0.2975
47022DOD     C284886   1.395  10.131   3.022 -0.0728  0.0074 -0.2718
47022DOD     C384887   0.890  10.066   2.993  0.2324 -0.3744  0.0791
47023DOD     C184888  29.129  26.552   7.021 -0.1368  0.0226  0.1142
47023DOD     C284889  29.054  26.926   6.707 -0.0665 -0.0288  0.0349
47023DOD     C384890  29.171  27.238   6.412  0.0629  0.0589 -0.2760
47024DOD     C184891   1.615  29.477  18.225 -0.0557 -0.2988 -0.0114
47024DOD     C284892   1.523  29.058  18.392 -0.1896 -0.0198 -0.0451
47024DOD     C384893   1.337  28.582  18.473  0.3721  0.1281 -0.0073
47025DOD     C184894   5.587   5.417  23.814 -0.2597  0.3343  0.1414
47025DOD     C284895   5.607   4.951  23.870  0.2068  0.0466  0.1572
47025DOD     C384896   5.511   4.579  23.991 -0.1356  0.2531  0.1094
47026DOD     C184897   5.211   9.318  14.230 -0.0881 -0.4342  0.2383
47026DOD     C284898   5.714   9.284  14.189 -0.1127  0.0064 -0.0763
47026DOD     C384899   6.156   9.149  14.271  0.3672 -0.2043 -0.0121
47027DOD     C184900  16.856  24.859   0.764 -0.3640 -0.3095  0.0365
47027DOD     C284901  17.302  24.924   0.722 -0.0538 -0.1570 -0.1734
47027DOD     C384902  17.730  24.731   0.755 -0.0682 -0.1411  0.1027
47028DOD     C184903  11.069   2.330  26.468  0.5033  0.1880  0.0039
47028DOD     C284904  10.818   2.571  26.119 -0.2275  0.0824  0.4828
47028DOD     C384905  10.657   2.524  25.691 -0.0947 -0.1335 -0.1364
47029DOD     C184906  10.856  14.073   0.722 -0.2943 -0.0485 -0.3374
47029DOD     C284907  11.205  14.233   0.570  0.1863  0.0139  0.1196
47029DOD     C384908  11.688  14.163   0.503 -0.1939 -0.1428 -0.2731
47030DOD     C184909  27.712  20.777  26.706 -0.1156  0.0579  0.2519
47030DOD     C284910  27.291  20.532  26.545 -0.0137 -0.2737 -0.1516
47030DOD     C384911  26.935  20.340  26.795 -0.0188  0.1068  0.3066
47031DOD     C184912  16.872   3.747  23.475  0.0352  0.1277  0.1911
47031DOD     C284913  16.756   3.579  23.027  0.2246 -0.4410  0.2112
47031DOD     C384914  16.832   3.442  22.606 -0.0116  0.1463 -0.1203
47032DOD     C184915   1.230  12.599  25.903 -0.2434 -0.0105  0.3082
47032DOD     C284916   0.817  12.526  26.167  0.0230  0.0340  0.0938
47032DOD     C384917   0.386  12.504  26.242 -0.0867  0.2342 -0.0155
47033DOD     C184918  23.968  29.104  13.484 -0.1537  0.0396  0.0100
47033DOD     C284919  23.871  29.502  13.594 -0.1754  0.2078 -0.0334
47033DOD     C384920  23.638  29.882  13.629  0.1815  0.0345 -0.1129
47034DOD     C184921  15.693  29.945  20.401 -0.0277 -0.3111  0.0018
47034DOD     C284922  15.302  29.899  20.685  0.1682 -0.1120 -0.0449
47034DOD     C384923  14.861  30.034  20.726  0.0253 -0.0075  0.0243
47035DOD     C184924  14.241  17.487  12.153 -0.0017  0.0533 -0.1818
47035DOD     C284925  14.293  17.648  12.569 -0.1456 -0.5198  0.0125
47035DOD     C384926  14.590  17.702  12.918 -0.0125  0.1446  0.2349
47036DOD     C184927  17.607  13.575  22.238 -0.0439  0.1161 -0.0830
47036DOD     C284928  17.197  13.795  22.142 -0.0255  0.1566  0.2626
47036DOD     C384929  16.904  14.197  22.127  0.0082  0.0738  0.0375
47037DOD     C184930  15.630  12.027  15.946  0.0669 -0.0798  0.3476
47037DOD     C284931  15.846  12.459  15.775  0.2648  0.3636 -0.2645
47037DOD     C384932  15.797  12.744  15.425 -0.2693 -0.0329 -0.0298
47038DOD     C184933   4.688   9.655   3.452  0.0651  0.2262 -0.0727
47038DOD     C284934   5.122   9.676   3.213 -0.1748  0.0561 -0.2090
47038DOD     C384935   5.570   9.793   3.251 -0.0312  0.0959 -0.4961
47039DOD     C184936  23.162  24.879  16.432  0.0056  0.1080 -0.2899
47039DOD     C284937  23.313  25.032  16.843 -0.2695  0.1173  0.0871
47039DOD     C384938  23.459  24.783  17.218  0.0281  0.2515  0.0408
47040DOD     C184939  15.469   8.280  10.393  0.1975  0.1332 -0.1495
47040DOD     C284940  15.660   7.908  10.114  0.1086  0.0153  0.1009
47040DOD     C384941  15.918   7.646   9.813 -0.0486  0.1440  0.1087
47041DOD     C184942   2.145  19.754  17.272  0.3237  0.2494 -0.1410
47041DOD     C284943   1.889  19.323  17.177 -0.1083 -0.0300 -0.1697
47041DOD     C384944   1.620  19.121  16.832  0.0223  0.0199  0.1920
47042DOD     C184945   2.473  12.662  29.629 -0.1487  0.0628 -0.1877
47042DOD     C284946   2.872  12.614  29.834 -0.0517 -0.0224  0.1349
47042DOD     C384947   3.256  12.881  29.764 -0.2595  0.0645  0.0791
47043DOD     C184948  24.618  13.539  25.977  0.0010 -0.1114 -0.0640
47043DOD     C284949  24.658  13.982  25.754 -0.2628 -0.1570 -0.3857
47043DOD     C384950  24.562  14.272  25.367 -0.0673 -0.0270 -0.2222
47044DOD     C184951  24.539   0.184  28.099 -0.0608 -0.2580  0.0636
47044DOD     C284952  24.947   0.043  28.000  0.0122 -0.0783  0.1373
47044DOD     C384953  25.198  30.022  27.815 -0.0352  0.1896 -0.0893
47045DOD     C184954  20.597  14.960   2.276  0.2967 -0.0921 -0.4227
47045DOD     C284955  20.558  14.529   2.541  0.0739 -0.2917 -0.1416
47045DOD     C384956  20.457  14.097   2.634  0.2071  0.1427 -0.3243
47046DOD     C184957  22.765   8.715  27.268 -0.2303  0.1083  0.0690
47046DOD     C284958  23.001   8.721  27.709  0.2900  0.0615  0.0311
47046DOD     C384959  23.452   8.682  27.858 -0.0834  0.0674 -0.0915
47047DOD     C184960  26.771  12.637  20.225  0.1300  0.1627  0.2953
47047DOD     C284961  26.574  12.592  19.770 -0.1754  0.0377  0.3167
47047DOD     C384962  26.661  12.554  19.258  0.2616  0.0362 -0.1323
47048DOD     C184963   3.954  11.569  13.018 -0.1179 -0.1377  0.0143
47048DOD     C284964   4.127  11.903  13.294 -0.1532  0.0400 -0.1092
47048DOD     C384965   4.482  12.145  13.388  0.0055 -0.1685 -0.6268
47049DOD     C184966  13.751  18.747  29.208 -0.3286  0.1367  0.2238
47049DOD     C284967  13.496  19.081  28.974 -0.0847 -0.1940 -0.4980
47049DOD     C384968  13.293  19.496  29.122  0.1657  0.0780  0.1171
47050DOD     C184969  28.389  17.737  29.260  0.2652 -0.0498 -0.2653
47050DOD     C284970  27.915  17.783  29.271 -0.0601  0.3493  0.1724
47050DOD     C384971  27.464  17.915  29.259 -0.3380 -0.0915 -0.0338
47051DOD     C184972  20.569  14.197  23.638 -0.2043 -0.4312 -0.0791
47051DOD     C284973  20.520  14.363  23.211 -0.0592 -0.1701  0.0472
47051DOD     C384974  20.499  14.400  22.799 -0.1071  0.0079 -0.1093
47052DOD     C184975  14.015   8.081  15.071  0.0045  0.1366 -0.2550
47052DOD     C284976  13.529   8.003  15.165  0.1602 -0.0848 -0.2784
47052DOD     C384977  13.222   7.725  15.001  0.0113 -0.2621 -0.0055
47053DOD     C184978   4.539  14.589   1.446 -0.0076 -0.0752  0.1009
47053DOD     C284979   4.694  14.232   1.652 -0.1246  0.0768 -0.3576
47053DOD     C384980   4.589  13.827   1.887 -0.0992  0.2064  0.0897
47054DOD     C184981  14.043  10.970  22.361 -0.0797  0.5876  0.0687
47054DOD     C284982  13.812  10.706  22.071  0.0684  0.1478 -0.0804
47054DOD     C384983  13.460  10.388  22.055  0.1859 -0.0447  0.0743
47055DOD     C184984   2.619  19.558   9.535  0.0827  0.1917 -0.1814
47055DOD     C284985   2.379  19.837   9.324 -0.0170  0.1460 -0.0449
47055DOD     C384986   2.358  19.943   8.915  0.2737  0.2908 -0.2415
47056DOD     C184987  20.876   7.308  14.460  0.0628 -0.2429 -0.0321
47056DOD     C284988  21.031   7.303  13.992  0.2018  0.2302  0.0209
47056DOD     C384989  20.998   7.689  13.717 -0.1148  0.0783 -0.1303
47057DOD     C184990  11.205  28.781  13.420 -0.0985 -0.2347  0.1834
47057DOD     C284991  10.782  28.801  13.245 -0.1866  0.4873 -0.1030
47057DOD     C384992  10.347  29.105  13.267 -0.2400  0.3038  0.0098
47058DOD     C184993  16.191  29.925  20.215  0.3276  0.2819 -0.3148
47058DOD     C284994  16.109  29.856  20.674 -0.2866 -0.0619 -0.1187
47058DOD     C384995  16.109  30.055  21.094 -0.3240 -0.2145 -0.2869
47059DOD     C184996  10.031  10.654   3.022  0.2263 -0.1071 -0.1522
47059DOD     C284997  10.136  11.026   2.747 -0.0798  0.2117 -0.1643
47059DOD     C384998  10.420  11.327   2.517 -0.1080  0.1210 -0.1884
47060DOD     C184999  20.645   2.438   9.677 -0.2549 -0.1103  0.0664
47060DOD     C285000  20.365   2.743   9.883  0.0475 -0.2900  0.1751
47060DOD     C385001  20.223   3.164  10.051  0.1144  0.0525  0.0867
47061DOD     C185002  13.910  22.252  28.824  0.3398 -0.0325  0.1777
47061DOD     C285003  13.702  22.594  28.555  0.0532  0.1850  0.2381
47061DOD     C385004  13.710  23.037  28.610  0.1546 -0.2278  0.3311
47062DOD     C185005   6.070   1.608  22.125  0.0255  0.1729 -0.3600
47062DOD     C285006   6.473   1.714  21.767 -0.0690 -0.1377  0.0157
47062DOD     C385007   6.707   1.904  21.423  0.0144 -0.1619 -0.2326
47063DOD     C185008  25.770  29.433  17.321 -0.0008  0.0763 -0.1646
47063DOD     C285009  25.524  29.083  17.566 -0.1441 -0.4027 -0.0503
47063DOD     C385010  25.353  28.869  17.947  0.0468  0.1042  0.0332
47064DOD     C185011  15.342   4.047  25.421  0.2317 -0.0230  0.2728
47064DOD     C285012  15.070   4.412  25.216  0.1025 -0.1969 -0.0979
47064DOD     C385013  14.883   4.840  25.113  0.1468 -0.1253 -0.0400
47065DOD     C185014   7.345  23.667   3.444  0.4385 -0.1064 -0.2445
47065DOD     C285015   7.731  23.912   3.482 -0.0682  0.0371 -0.1480
47065DOD     C385016   8.168  23.993   3.630 -0.0358  0.0270 -0.4752
47066DOD     C185017  10.926  26.533  23.542  0.3035 -0.1260 -0.0614
47066DOD     C285018  10.616  26.234  23.245 -0.2257 -0.1482 -0.0881
47066DOD     C385019  10.711  25.789  23.161  0.1464 -0.0382  0.0189
47067DOD     C185020   7.837   5.217  18.073 -0.3330 -0.2637  0.0794
47067DOD     C285021   7.770   4.909  18.429 -0.4470 -0.0403  0.0412
47067DOD     C385022   7.804   4.957  18.899 -0.2205  0.0661 -0.2494
47068DOD     C185023   9.064  11.850  29.895  0.0492  0.0174  0.1777
47068DOD     C285024   9.523  12.019  29.888  0.0556 -0.1042 -0.2290
47068DOD     C385025   9.952  12.170  29.806  0.0210  0.1389 -0.2079
47069DOD     C185026  13.839  17.112  15.422 -0.1144 -0.0762  0.1556
47069DOD     C285027  13.543  17.476  15.359  0.0312 -0.0241  0.5974
47069DOD     C385028  13.069  17.508  15.225 -0.1467  0.0880  0.1640
47070DOD     C185029  27.163  12.570  17.892 -0.0648 -0.2809  0.3144
47070DOD     C285030  26.898  12.837  17.614 -0.0858 -0.2050  0.0604
47070DOD     C385031  26.828  13.130  17.239  0.1239 -0.0839 -0.4698
47071DOD     C185032  14.799  24.041   9.409  0.0049  0.1561  0.1396
47071DOD     C285033  14.443  24.328   9.432 -0.0958 -0.0036 -0.1704
47071DOD     C385034  14.050  24.580   9.365  0.0565  0.1134 -0.3754
47072DOD     C185035   5.354  29.963  19.033 -0.3729  0.2995 -0.0254
47072DOD     C285036   5.845  29.901  19.112  0.1004  0.0220 -0.0331
47072DOD     C385037   6.180  29.882  19.395 -0.1995  0.2477 -0.1211
47073DOD     C185038   7.402  28.282   9.443 -0.0406 -0.1061  0.0616
47073DOD     C285039   7.118  28.600   9.531  0.3570 -0.6839  0.1300
47073DOD     C385040   7.001  29.036   9.532 -0.1082  0.1965 -0.2141
47074DOD     C185041  13.614   5.405  11.468 -0.2519  0.0454 -0.2424
47074DOD     C285042  13.541   4.967  11.697 -0.0860 -0.1805  0.1735
47074DOD     C385043  13.671   4.609  12.086  0.1185 -0.0513 -0.1131
47075DOD     C185044  16.263  22.098  18.256 -0.0959 -0.1467  0.0950
47075DOD     C285045  16.695  22.041  17.993 -0.1238  0.2158  0.2292
47075DOD     C385046  16.738  21.867  17.546  0.2759 -0.0494 -0.2586
47076DOD     C185047  25.115   9.941  14.884 -0.0701 -0.1305 -0.1591
47076DOD     C285048  25.388   9.945  14.507  0.2344 -0.0405 -0.3398
47076DOD     C385049  25.781   9.942  14.307  0.1958  0.3997 -0.3113
47077DOD     C185050  12.406  29.056  22.042 -0.3485  0.0077 -0.1952
47077DOD     C285051  12.665  29.040  22.473  0.0197 -0.0158 -0.0432
47077DOD     C385052  12.884  28.775  22.847  0.1652  0.0529 -0.0402
47078DOD     C185053  22.845  26.322  21.387 -0.1910 -0.0265 -0.0729
47078DOD     C285054  23.211  26.601  21.332  0.0780  0.1074 -0.1184
47078DOD     C385055  23.357  26.993  21.300 -0.3011 -0.2130  0.0475
47079DOD     C185056   0.828   6.305  22.321  0.2540  0.0869 -0.2673
47079DOD     C285057   1.270   6.507  22.339  0.0116 -0.0127 -0.2486
47079DOD     C385058   1.351   6.918  22.306  0.1134 -0.1719 -0.0201
47080DOD     C185059   2.635  17.983   9.832  0.1359  0.1657  0.3406
47080DOD     C285060   2.522  18.428  10.040 -0.2055  0.1649  0.2639
47080DOD     C385061   2.402  18.871  10.120 -0.1380  0.2337 -0.2708
47081DOD     C185062   2.139  30.204   1.814 -0.2037  0.1813 -0.1034
47081DOD     C285063   1.845  29.848   1.765  0.0355 -0.0584  0.0377
47081DOD     C385064   1.412  29.834   1.570 -0.2120 -0.1122  0.4456
47082DOD     C185065  19.325  25.574   6.662 -0.0971 -0.1444 -0.2533
47082DOD     C285066  18.975  25.792   6.890 -0.1456 -0.4678 -0.1482
47082DOD     C385067  18.556  26.006   6.659  0.3066 -0.0760 -0.0944
47083DOD     C185068   1.328  29.979  22.420 -0.0176 -0.2180 -0.0440
47083DOD     C285069   1.456  30.137  22.872 -0.0812  0.2249  0.1130
47083DOD     C385070   1.397   0.200  23.168  0.0492  0.0629  0.1690
47084DOD     C185071  14.726  10.364  16.079  0.0589 -0.2454 -0.1510
47084DOD     C285072  14.810  10.808  16.179  0.2256  0.0541  0.0430
47084DOD     C385073  15.110  11.141  16.224  0.2030  0.1358 -0.2177
47085DOD     C185074   5.700  15.232  14.248  0.0257  0.1456 -0.0100
47085DOD     C285075   5.361  15.002  14.432  0.0722 -0.2938  0.0469
47085DOD     C385076   5.048  14.689  14.615 -0.0857 -0.0883  0.1816
47086DOD     C185077   7.765   1.781   9.424  0.0073  0.0155 -0.0452
47086DOD     C285078   7.554   1.415   9.620  0.0900  0.1756 -0.0103
47086DOD     C385079   7.305   0.946   9.562  0.1031  0.0846 -0.0536
47087DOD     C185080   7.016   4.760   7.550  0.0045 -0.1562 -0.1076
47087DOD     C285081   6.653   4.818   7.230  0.2622  0.2034  0.1749
47087DOD     C385082   6.507   4.853   6.783 -0.0162 -0.0311 -0.1325
47088DOD     C185083   9.530  23.023   7.894 -0.3920 -0.4321  0.1750
47088DOD     C285084   9.692  22.778   8.277  0.1282  0.0892 -0.0914
47088DOD     C385085   9.912  22.902   8.645  0.2945  0.0362  0.3496
47089DOD     C185086  11.763  15.846   9.779  0.0131 -0.0865 -0.1808
47089DOD     C285087  11.319  15.949   9.942 -0.1704  0.1315 -0.0456
47089DOD     C385088  10.958  16.269  10.026  0.2183 -0.3151  0.3969
47090DOD     C185089  20.560  18.710   3.081  0.1362  0.1605 -0.0453
47090DOD     C285090  20.686  19.170   3.165  0.0269  0.1971  0.1679
47090DOD     C385091  21.011  19.382   3.407 -0.4210 -0.0402  0.2824
47091DOD     C185092  12.331  12.809   0.379 -0.1140  0.0724  0.1162
47091DOD     C285093  12.100  12.917   0.007  0.3660 -0.2355 -0.3550
47091DOD     C385094  12.064  13.259  30.008  0.4276  0.2114 -0.0481
47092DOD     C185095  11.732   8.883  24.131 -0.2604 -0.1340  0.2067
47092DOD     C285096  12.062   8.553  24.093  0.1691 -0.3324  0.1583
47092DOD     C385097  12.475   8.403  24.257 -0.1698  0.1342  0.0727
47093DOD     C185098  17.466  18.501   9.361  0.0022  0.1700  0.1620
47093DOD     C285099  17.667  18.914   9.315  0.0509 -0.1777  0.0593
47093DOD     C385100  17.625  19.052   8.875  0.0337 -0.2328  0.1234
47094DOD     C185101   8.936   7.563   5.224 -0.1248  0.2855  0.0305
47094DOD     C285102   9.383   7.646   5.235  0.2454 -0.3885 -0.0268
47094DOD     C385103   9.771   7.890   5.093 -0.0334  0.1533 -0.1352
47095DOD     C185104  18.946  25.739   2.268  0.1962 -0.1493  0.1040
47095DOD     C285105  19.237  25.459   2.532  0.0670  0.0409  0.1931
47095DOD     C385106  19.480  25.542   2.904 -0.0750  0.2698  0.2377
47096DOD     C185107   0.737  18.941  19.640 -0.1067 -0.1093  0.2532
47096DOD     C285108   0.793  18.711  19.166 -0.0485 -0.0646 -0.3272
47096DOD     C385109   0.943  18.439  18.791  0.1483 -0.0975 -0.3514
47097DOD     C185110   0.169  16.750  19.803 -0.2030  0.1188 -0.3485
47097DOD     C285111   0.228  16.281  19.792  0.0575  0.0395 -0.1447
47097DOD     C385112   0.218  15.858  19.563 -0.2789 -0.0531 -0.0368
47098DOD     C185113   1.000   0.464   9.859 -0.1748  0.1461 -0.0656
47098DOD     C285114   1.046   0.958   9.964  0.0236 -0.1112  0.1160
47098DOD     C385115   0.797   1.163  10.274  0.5629  0.1174 -0.0491
47099DOD     C185116  12.241   4.683  16.108 -0.0663 -0.0047 -0.0196
47099DOD     C285117  12.016   4.980  16.497 -0.0399 -0.1733  0.1355
47099DOD     C385118  12.059   5.175  16.940 -0.1718 -0.0633 -0.1541
47100DOD     C185119   4.605  28.301  26.265  0.0482 -0.3880 -0.3199
47100DOD     C285120   4.791  28.128  26.584  0.0746  0.1788 -0.2411
47100DOD     C385121   4.724  28.122  27.028  0.0683 -0.0433  0.2619
47101DOD     C185122  12.761  25.749  17.888  0.2101  0.1958 -0.1499
47101DOD     C285123  12.646  25.702  17.471 -0.1542 -0.1310 -0.0696
47101DOD     C385124  12.599  25.810  17.046 -0.1405 -0.0930  0.1777
47102DOD     C185125   0.045  10.086  20.726  0.0498  0.1943 -0.0620
47102DOD     C285126  30.215  10.478  20.930 -0.0675  0.0419  0.0908
47102DOD     C385127   0.012  10.778  21.278  0.0136  0.0138  0.0187
47103DOD     C185128  18.367   4.660   6.609  0.0627  0.2066  0.0741
47103DOD     C285129  18.311   4.869   6.196  0.2374 -0.1124  0.1457
47103DOD     C385130  18.091   4.993   5.813 -0.0946 -0.0036  0.1895
47104DOD     C185131   2.263   9.499   7.981 -0.2843  0.0360 -0.2898
47104DOD     C285132   2.399   9.108   7.720 -0.3847 -0.3120  0.0994
47104DOD     C385133   2.738   8.811   7.667 -0.1195 -0.0062  0.1707
47105DOD     C185134  23.322  30.171   3.007 -0.1507 -0.0501  0.2882
47105DOD     C285135  23.063   0.191   3.178 -0.5163  0.0924 -0.4112
47105DOD     C385136  22.871   0.518   3.477 -0.4025 -0.3472  0.1938
47106DOD     C185137  19.965   0.042  29.330  0.0860 -0.2099  0.4350
47106DOD     C285138  19.751  30.257  28.928 -0.2926 -0.1799  0.0129
47106DOD     C385139  19.320  30.042  28.854  0.3035  0.0319  0.0027
47107DOD     C185140  20.654  16.064  13.738  0.0419 -0.1719  0.1321
47107DOD     C285141  20.688  15.705  13.431 -0.1074  0.1216 -0.0584
47107DOD     C385142  20.564  15.276  13.316 -0.0986 -0.0253  0.0310
47108DOD     C185143  21.971  21.543   4.570 -0.0739  0.0267  0.0804
47108DOD     C285144  21.760  21.273   4.821 -0.3283 -0.1402  0.5096
47108DOD     C385145  21.502  21.338   5.235  0.0810 -0.4406 -0.0635
47109DOD     C185146  12.610   8.390  22.114 -0.2310 -0.0126  0.0282
47109DOD     C285147  13.053   8.244  21.945  0.1327 -0.2683 -0.0324
47109DOD     C385148  13.324   7.881  22.031  0.2745  0.0505  0.2276
47110DOD     C185149  30.250  20.024   9.961 -0.1490 -0.0593  0.3765
47110DOD     C285150  29.881  20.169  10.006  0.3679  0.0081 -0.2047
47110DOD     C385151  29.616  20.580   9.973  0.0820  0.3180  0.3345
47111DOD     C185152  20.132  20.861  14.312  0.0959  0.2210  0.4121
47111DOD     C285153  20.317  20.949  14.677 -0.1993 -0.0320 -0.0283
47111DOD     C385154  20.774  21.068  14.897 -0.0480  0.0571 -0.0123
47112DOD     C185155  25.297   5.143  12.842  0.1859 -0.1645  0.1820
47112DOD     C285156  24.945   4.949  12.808  0.0206 -0.1972 -0.1160
47112DOD     C385157  24.601   4.627  12.995  0.0511  0.0944  0.2825
47113DOD     C185158  29.635  10.991  17.315 -0.1464 -0.0223  0.1057
47113DOD     C285159  29.429  11.316  17.000  0.2185 -0.1238  0.0029
47113DOD     C385160  29.197  11.684  16.838 -0.2686  0.2678 -0.0902
47114DOD     C185161  17.753   3.285  29.610 -0.3379 -0.0013 -0.2528
47114DOD     C285162  17.796   2.821  29.687  0.0205 -0.5155 -0.1054
47114DOD     C385163  17.656   2.409  29.810  0.1871 -0.1371  0.0967
47115DOD     C185164  27.173  26.384  12.254  0.0572  0.0137 -0.0929
47115DOD     C285165  27.169  25.931  12.033  0.3434 -0.0274  0.2202
47115DOD     C385166  27.512  25.677  11.883 -0.0130  0.2853  0.1579
47116DOD     C185167  15.854  16.463  17.881  0.3652  0.0337 -0.2196
47116DOD     C285168  16.120  16.866  17.926 -0.0911 -0.2158 -0.2186
47116DOD     C385169  16.179  17.239  17.735 -0.0017  0.0923  0.1455
47117DOD     C185170   4.945  15.372  28.511 -0.1410 -0.1258  0.1703
47117DOD     C285171   4.699  15.326  28.112 -0.0047 -0.1435 -0.0525
47117DOD     C385172   4.690  14.900  27.969  0.0211 -0.1919 -0.3967
47118DOD     C185173  24.432  24.363  22.736  0.2408 -0.1186  0.0749
47118DOD     C285174  24.834  24.396  22.843 -0.1657  0.3026  0.1649
47118DOD     C385175  25.229  24.535  22.667  0.1181 -0.0111  0.2072
47119DOD     C185176   9.290  14.872   0.608 -0.0564 -0.2848  0.1360
47119DOD     C285177   9.113  14.640   0.323  0.0283 -0.0970  0.1024
47119DOD     C385178   9.072  14.378  30.298  0.2341 -0.1953 -0.1942
47120DOD     C185179   1.010  28.978   9.770 -0.1128  0.2921 -0.1415
47120DOD     C285180   0.978  28.789   9.339 -0.1234 -0.3301 -0.1681
47120DOD     C385181   0.809  28.609   8.892 -0.0462 -0.0741  0.4258
47121DOD     C185182   3.364  14.322  12.919 -0.0211 -0.0442 -0.0974
47121DOD     C285183   3.205  14.109  12.603  0.2033  0.1779 -0.2637
47121DOD     C385184   2.962  13.842  12.297  0.1382 -0.0473 -0.0113
47122DOD     C185185  26.265  12.046  10.112  0.2257  0.3358  0.1661
47122DOD     C285186  26.345  12.513  10.195 -0.3431  0.1187 -0.0646
47122DOD     C385187  26.309  13.013  10.272 -0.1036  0.0833 -0.0772
47123DOD     C185188   5.166  18.650  26.212 -0.0045  0.1655  0.0536
47123DOD     C285189   4.964  18.472  25.837  0.2863  0.2126  0.0081
47123DOD     C385190   4.712  18.250  25.488 -0.1119 -0.2271  0.1116
47124DOD     C185191   8.305  17.509  14.350 -0.2331 -0.1447 -0.2383
47124DOD     C285192   7.861  17.602  14.298 -0.0867 -0.2024  0.0078
47124DOD     C385193   7.479  17.790  14.419  0.3495  0.0141  0.3266
47125DOD     C185194   0.895  25.820  29.828 -0.3511  0.0086 -0.1008
47125DOD     C285195   0.995  25.384  29.743  0.1298  0.0103 -0.1020
47125DOD     C385196   1.280  25.052  29.914  0.2779  0.1871  0.2293
47126DOD     C185197  28.700  21.121   8.556 -0.1271  0.1471 -0.2015
47126DOD     C285198  28.835  20.704   8.458 -0.0981 -0.0324  0.0116
47126DOD     C385199  28.844  20.260   8.332 -0.0839  0.0057  0.1301
47127DOD     C185200  24.693  19.245  27.045 -0.3599  0.2683  0.1196
47127DOD     C285201  24.295  18.961  27.048  0.0429  0.2747  0.0080
47127DOD     C385202  23.840  19.021  27.157 -0.2231  0.4639  0.0565
47128DOD     C185203   4.702  23.897  29.702  0.0053 -0.0646 -0.1440
47128DOD     C285204   4.745  23.833  29.234  0.1380 -0.0021  0.3379
47128DOD     C385205   5.116  23.892  29.055 -0.2557  0.0811  0.0977
47129DOD     C185206  29.372   6.939  19.203  0.0602 -0.0898 -0.0199
47129DOD     C285207  29.868   6.964  19.110  0.2108  0.0456  0.0535
47129DOD     C385208  30.173   7.312  19.035 -0.1321 -0.2220 -0.0574
47130DOD     C185209   5.830   7.933  22.904 -0.0180  0.2952 -0.1730
47130DOD     C285210   6.122   8.281  23.115 -0.0803  0.0075 -0.0265
47130DOD     C385211   6.448   8.648  22.973 -0.1872 -0.1738 -0.2002
47131DOD     C185212  20.597   6.886   3.342  0.0176 -0.0581 -0.0714
47131DOD     C285213  20.489   6.658   3.719  0.3328  0.2885 -0.1271
47131DOD     C385214  20.258   6.402   4.021 -0.0621  0.2223 -0.0495
47132DOD     C185215  27.429  18.395  20.561  0.0078  0.1612  0.0778
47132DOD     C285216  27.234  17.971  20.459 -0.0657  0.1564 -0.0676
47132DOD     C385217  26.837  17.828  20.260  0.1784  0.1335 -0.1699
47133DOD     C185218  28.595  17.807   3.627 -0.3421  0.5261  0.1046
47133DOD     C285219  28.967  17.941   3.857 -0.2452 -0.0544 -0.0911
47133DOD     C385220  29.299  18.095   4.049 -0.2309  0.0467 -0.1177
47134DOD     C185221   4.191  30.158  27.406  0.0887 -0.2774 -0.0022
47134DOD     C285222   4.569  29.848  27.563  0.2853  0.2223 -0.0837
47134DOD     C385223   5.020  29.783  27.708 -0.3301 -0.0861  0.1358
47135DOD     C185224   1.184  11.616  15.995  0.2002  0.0157  0.0585
47135DOD     C285225   1.383  11.972  16.209  0.0298 -0.1191 -0.0335
47135DOD     C385226   1.450  12.423  16.426 -0.1157 -0.1535 -0.2325
47136DOD     C185227   3.714  28.370  20.414 -0.2509 -0.2079 -0.1665
47136DOD     C285228   3.757  27.898  20.386 -0.1296 -0.4781 -0.1391
47136DOD     C385229   3.721  27.638  19.974 -0.3711  0.1042 -0.1508
47137DOD     C185230   5.273  28.859   2.393 -0.1449 -0.0877 -0.0935
47137DOD     C285231   5.168  28.678   1.984 -0.1797  0.0545  0.1210
47137DOD     C385232   4.898  28.700   1.584  0.0634  0.0762 -0.0987
47138DOD     C185233  26.892  27.302   1.493  0.2651  0.1546  0.0384
47138DOD     C285234  27.030  27.630   1.106 -0.2319 -0.3268 -0.0521
47138DOD     C385235  26.930  28.012   0.897 -0.1427  0.1212  0.1271
47139DOD     C185236   7.421  20.955  16.436  0.0017 -0.0038 -0.0880
47139DOD     C285237   7.260  21.142  16.834 -0.2295  0.2068  0.1864
47139DOD     C385238   7.078  21.424  17.225  0.0017 -0.0711 -0.2835
47140DOD     C185239  15.951  16.512  14.137 -0.4221  0.0908 -0.0655
47140DOD     C285240  15.691  16.215  14.377 -0.0184  0.4463 -0.0105
47140DOD     C385241  15.549  15.852  14.640  0.0518 -0.1327  0.0902
47141DOD     C185242  22.383  18.969  15.641  0.2230  0.0086  0.2509
47141DOD     C285243  22.270  19.360  15.556 -0.1104 -0.3563 -0.1255
47141DOD     C385244  21.984  19.750  15.533 -0.0267  0.1019  0.2407
47142DOD     C185245  10.710  16.024  16.673 -0.3415  0.2122 -0.0705
47142DOD     C285246  10.493  16.267  16.993 -0.0228  0.0774 -0.2409
47142DOD     C385247  10.034  16.422  17.069 -0.2652  0.1164  0.2542
47143DOD     C185248  26.657  29.957  23.248  0.1328 -0.0340 -0.0092
47143DOD     C285249  27.091  30.116  23.464 -0.2869  0.1263  0.0385
47143DOD     C385250  27.245  30.047  23.935 -0.1608 -0.0492 -0.0868
47144DOD     C185251   6.592   9.952   3.792  0.2399  0.3100  0.3721
47144DOD     C285252   6.896  10.091   4.109 -0.1144  0.5053 -0.1378
47144DOD     C385253   7.327   9.941   4.304  0.3657  0.0001 -0.0149
47145DOD     C185254   6.888  15.323  17.700  0.0909 -0.1835  0.0950
47145DOD     C285255   6.751  15.277  18.124  0.2772  0.1644  0.1076
47145DOD     C385256   6.609  14.891  18.243  0.1957 -0.1373 -0.1275
47146DOD     C185257  19.877   9.808  20.546 -0.0179 -0.0288 -0.1118
47146DOD     C285258  19.489   9.563  20.398  0.1720 -0.0354 -0.3825
47146DOD     C385259  19.419   9.075  20.418 -0.1569 -0.0485  0.0944
47147DOD     C185260  12.209  12.922  22.459  0.2354 -0.0938  0.2192
47147DOD     C285261  11.930  12.911  22.090 -0.1163 -0.0121 -0.3557
47147DOD     C385262  11.448  12.763  22.002 -0.2201  0.0731  0.1290
47148DOD     C185263   0.386  29.935   8.342  0.1645 -0.2374 -0.1240
47148DOD     C285264   0.602  29.992   7.923  0.1967  0.2399 -0.1426
47148DOD     C385265   0.779  29.816   7.531 -0.0257  0.0371  0.0127
47149DOD     C185266   7.864  30.258  26.623  0.2292 -0.0146 -0.0238
47149DOD     C285267   8.012  29.989  26.986 -0.1218 -0.0674  0.0521
47149DOD     C385268   8.159  29.629  27.158  0.1331  0.1389  0.1525
47150DOD     C185269  10.350   5.914  17.423  0.0485  0.0231 -0.1291
47150DOD     C285270  10.435   6.275  17.752  0.2051  0.0459 -0.2427
47150DOD     C385271  10.508   6.685  17.807  0.1912  0.1821  0.2619
47151DOD     C185272   7.222  25.077   8.336  0.0442 -0.0960 -0.0678
47151DOD     C285273   7.479  24.719   8.551  0.0911 -0.2705 -0.0425
47151DOD     C385274   7.686  24.396   8.793  0.2535  0.0246 -0.0614
47152DOD     C185275  17.494  28.829  29.503 -0.2539  0.2015 -0.0707
47152DOD     C285276  17.758  28.618  29.816 -0.0166 -0.3939 -0.1685
47152DOD     C385277  18.047  28.703  30.199  0.0535  0.0959  0.1870
47153DOD     C185278   1.668  29.334   9.226  0.2440 -0.0582 -0.0308
47153DOD     C285279   1.711  29.192   8.775 -0.1235  0.1520 -0.0324
47153DOD     C385280   1.592  29.463   8.384 -0.1452  0.1258  0.2666
47154DOD     C185281   1.960   3.585  22.589  0.0447  0.0314 -0.0909
47154DOD     C285282   2.180   3.588  22.980  0.0092  0.1757  0.2090
47154DOD     C385283   2.071   3.787  23.394  0.0634  0.1345 -0.0711
47155DOD     C185284   3.816   2.919  13.656  0.0372  0.3010  0.1996
47155DOD     C285285   4.133   2.873  13.998 -0.0568 -0.2382  0.0486
47155DOD     C385286   4.447   2.553  14.214  0.3855 -0.4377 -0.2198
47156DOD     C185287  13.890   2.210  28.108 -0.1326  0.0980  0.0468
47156DOD     C285288  14.220   2.016  27.818  0.0250 -0.5288 -0.0723
47156DOD     C385289  14.665   2.199  27.741 -0.0374  0.1020  0.0115
47157DOD     C185290   2.283   1.062   9.566  0.0198 -0.2869 -0.1038
47157DOD     C285291   2.320   1.438   9.295  0.0679  0.0680  0.0132
47157DOD     C385292   2.374   1.875   9.431  0.0842  0.1445 -0.0209
47158DOD     C185293   7.766   0.930   8.883 -0.1635  0.1179 -0.2785
47158DOD     C285294   8.087   0.724   8.556  0.2588  0.3484  0.0299
47158DOD     C385295   8.176   0.298   8.592 -0.1200 -0.1231  0.2140
47159DOD     C185296   5.415  24.336   9.431  0.0666  0.2372  0.1871
47159DOD     C285297   5.202  24.138   9.024  0.1855  0.3821  0.2548
47159DOD     C385298   5.479  23.935   8.680 -0.2492  0.0034  0.0367
47160DOD     C185299  22.105  28.612  13.972  0.0053 -0.0014 -0.2689
47160DOD     C285300  21.777  28.513  14.216 -0.0228 -0.3773  0.1087
47160DOD     C385301  21.343  28.264  14.234 -0.0962  0.3939 -0.2820
47161DOD     C185302  25.410  25.455  19.133 -0.0991  0.0336 -0.1354
47161DOD     C285303  25.352  25.658  18.716  0.0449  0.0171  0.3902
47161DOD     C385304  25.365  25.726  18.254  0.3472 -0.1784  0.0622
47162DOD     C185305   2.391  23.637  19.130 -0.0740 -0.2676  0.3664
47162DOD     C285306   2.424  23.233  19.348  0.0838  0.1316 -0.1512
47162DOD     C385307   2.512  22.960  19.733 -0.0576  0.1368 -0.2831
47163DOD     C185308   3.971  20.351  16.987 -0.1058 -0.2518 -0.2630
47163DOD     C285309   4.296  20.162  17.283 -0.0462 -0.0354 -0.1233
47163DOD     C385310   4.392  20.134  17.784  0.0042  0.0895 -0.0166
47164DOD     C185311   6.876  23.933   2.204 -0.2979  0.0578  0.2158
47164DOD     C285312   6.702  24.208   2.564 -0.2537  0.0532  0.2090
47164DOD     C385313   6.439  24.399   2.851 -0.1533 -0.1996 -0.1092
47165DOD     C185314  18.643  27.928   8.250  0.2536 -0.0658  0.1403
47165DOD     C285315  18.591  27.673   7.881 -0.1038  0.0987  0.3063
47165DOD     C385316  18.749  27.595   7.436 -0.0819  0.3997 -0.1093
47166DOD     C185317  20.170  11.762  27.066  0.0253  0.2783  0.0868
47166DOD     C285318  20.037  12.247  26.980  0.0644  0.1074 -0.4826
47166DOD     C385319  19.833  12.586  26.666  0.2957 -0.1536  0.2409
47167DOD     C185320   9.212   5.173  28.539 -0.2269 -0.1520 -0.0839
47167DOD     C285321   9.417   4.858  28.233 -0.0200 -0.0171 -0.2117
47167DOD     C385322   9.780   4.842  27.879 -0.0791 -0.1300  0.0593
47168DOD     C185323  26.843  27.158   6.671 -0.2317 -0.0090  0.0431
47168DOD     C285324  26.779  26.899   7.068  0.0164  0.1714 -0.4497
47168DOD     C385325  26.943  26.986   7.569 -0.3579 -0.1344  0.1255
47169DOD     C185326  29.359   3.972  25.858 -0.0330  0.0750  0.0162
47169DOD     C285327  29.248   4.367  25.739  0.0423 -0.2257 -0.2101
47169DOD     C385328  29.367   4.465  25.361 -0.2029  0.0793  0.1145
47170DOD     C185329  25.910  21.104  29.128  0.0281 -0.1086 -0.1570
47170DOD     C285330  25.540  21.320  29.092 -0.5108 -0.1298 -0.1958
47170DOD     C385331  25.114  21.538  29.200 -0.1119  0.1259  0.2030
47171DOD     C185332   8.727  23.602  19.940 -0.0040 -0.0914  0.0984
47171DOD     C285333   9.003  23.539  19.558  0.2198  0.2056 -0.0146
47171DOD     C385334   9.226  23.526  19.145 -0.0045 -0.0714  0.2193
47172DOD     C185335   7.966  11.500   6.743 -0.0788 -0.1328  0.1200
47172DOD     C285336   8.262  11.330   7.083 -0.0105 -0.2292 -0.1636
47172DOD     C385337   8.280  10.969   7.383  0.1639  0.0185  0.0923
47173DOD     C185338  17.858   3.419  17.883  0.1459  0.2406  0.4165
47173DOD     C285339  17.658   3.152  18.188  0.0880  0.1506  0.0474
47173DOD     C385340  17.541   2.752  18.162 -0.2150  0.1148  0.1656
47174DOD     C185341  25.287  23.829   8.282  0.1252 -0.1255 -0.1831
47174DOD     C285342  25.634  24.034   8.548 -0.2410  0.1155  0.0053
47174DOD     C385343  25.691  24.181   9.044  0.1702 -0.4633 -0.0156
47175DOD     C185344  10.365   0.572   3.904  0.2106  0.1084 -0.0689
47175DOD     C285345  10.059   0.879   4.068  0.2403  0.0004  0.0623
47175DOD     C385346   9.986   1.340   4.180 -0.3428 -0.0999 -0.1331
47176DOD     C185347  18.321  13.923   5.418  0.0130  0.0968 -0.0705
47176DOD     C285348  18.004  13.653   5.388  0.1063  0.1542 -0.2194
47176DOD     C385349  17.718  13.288   5.320 -0.1162 -0.0842  0.2645
47177DOD     C185350   6.824  22.338  11.978 -0.2664  0.0967 -0.2370
47177DOD     C285351   7.214  22.542  12.102  0.3522  0.0022  0.0606
47177DOD     C385352   7.699  22.689  12.026 -0.0274  0.2751 -0.0052
47178DOD     C185353  10.560  11.059  26.957  0.0477  0.1938  0.1340
47178DOD     C285354  10.206  11.162  26.635  0.1286 -0.3941  0.0444
47178DOD     C385355  10.010  10.973  26.299  0.1631 -0.1220 -0.1908
47179DOD     C185356  26.872  28.312  11.582 -0.1039  0.0414 -0.0464
47179DOD     C285357  26.828  28.681  11.928  0.2227  0.0056  0.1444
47179DOD     C385358  27.066  28.943  12.206  0.2231  0.1045 -0.0944
47180DOD     C185359  25.654  11.640  20.261 -0.0372 -0.1775 -0.1091
47180DOD     C285360  25.687  11.276  20.002  0.1483  0.0418  0.0184
47180DOD     C385361  25.987  10.925  19.935 -0.2679 -0.2755 -0.2402
47181DOD     C185362   5.874  23.636   7.593 -0.2807  0.1219 -0.0887
47181DOD     C285363   6.300  23.533   7.871  0.1136  0.1114  0.3204
47181DOD     C385364   6.735  23.664   7.730 -0.1090 -0.3077 -0.0048
47182DOD     C185365  11.070  17.022  16.831  0.0329  0.4389  0.3446
47182DOD     C285366  11.472  17.184  16.906 -0.0237  0.0881  0.2480
47182DOD     C385367  11.848  17.378  16.983  0.0695  0.1031  0.0307
47183DOD     C185368  27.140   1.596  27.945  0.0573 -0.0188 -0.1620
47183DOD     C285369  26.872   1.187  28.054 -0.0184 -0.2879 -0.2779
47183DOD     C385370  26.492   1.032  28.283 -0.0196 -0.2612 -0.3597
47184DOD     C185371  10.600   0.879  10.713 -0.0165  0.2198  0.0721
47184DOD     C285372  10.884   0.615  10.411  0.1072  0.1143  0.2317
47184DOD     C385373  10.757   0.406  10.032 -0.0066  0.3353 -0.0416
47185DOD     C185374  11.303  28.772  14.169  0.0496 -0.0794  0.1460
47185DOD     C285375  11.186  29.134  14.326  0.1143  0.0753 -0.1634
47185DOD     C385376  11.163  29.541  14.176  0.2385  0.2196 -0.1084
47186DOD     C185377  28.436  11.974   2.095 -0.4588 -0.2892  0.4746
47186DOD     C285378  28.100  12.111   1.855 -0.0399 -0.2904 -0.1068
47186DOD     C385379  27.742  12.316   2.008 -0.2339  0.3266  0.1290
47187DOD     C185380   5.892   7.608  22.184  0.3606  0.1122 -0.1426
47187DOD     C285381   6.087   8.031  22.200  0.0106 -0.0252 -0.0411
47187DOD     C385382   6.004   8.306  22.560  0.2136 -0.3680  0.2549
47188DOD     C185383  19.828   7.770  22.196 -0.1403 -0.0311  0.1844
47188DOD     C285384  19.474   7.549  22.110  0.1380  0.0036  0.0145
47188DOD     C385385  19.059   7.458  22.022  0.3731  0.1294  0.1747
47189DOD     C185386  12.315   3.524  29.158 -0.2352 -0.0617  0.0206
47189DOD     C285387  12.365   3.961  29.062 -0.0306 -0.1251 -0.2492
47189DOD     C385388  12.255   4.394  28.977  0.0757  0.0925  0.2935
47190DOD     C185389   7.964   0.421   9.696  0.1538  0.0907  0.1262
47190DOD     C285390   8.061   0.015   9.831 -0.3696  0.0777 -0.1069
47190DOD     C385391   8.470  30.040   9.862  0.3190 -0.4026 -0.2023
47191DOD     C185392   8.748   4.280  11.083  0.0796 -0.0800 -0.1442
47191DOD     C285393   8.454   3.940  11.226  0.4847 -0.1439  0.1089
47191DOD     C385394   8.384   3.493  11.300  0.1780  0.0753 -0.1107
47192DOD     C185395  15.289   1.643   1.648  0.1808 -0.0720  0.1244
47192DOD     C285396  15.407   1.264   1.357  0.3031  0.0341  0.1522
47192DOD     C385397  15.617   0.859   1.183 -0.0249  0.1637 -0.0413
47193DOD     C185398  24.750   2.561  19.871  0.2599  0.0172  0.2379
47193DOD     C285399  24.507   2.987  19.873  0.0459 -0.1780 -0.1868
47193DOD     C385400  24.213   3.374  19.872  0.0468 -0.1192 -0.1346
47194DOD     C185401  29.543  27.693   4.264 -0.0311 -0.1292  0.0757
47194DOD     C285402  29.682  28.099   4.071 -0.0636 -0.2565  0.0160
47194DOD     C385403  29.543  28.528   4.141  0.1527 -0.0061  0.0615
47195DOD     C185404   6.020   2.390   5.997 -0.0949 -0.1295  0.2742
47195DOD     C285405   6.400   2.378   6.248 -0.2413  0.0041 -0.3162
47195DOD     C385406   6.640   1.959   6.189  0.0295  0.0264  0.1475
47196DOD     C185407  27.878   0.331  11.868 -0.2616 -0.3141 -0.0365
47196DOD     C285408  27.572   0.382  11.580 -0.1716 -0.0970  0.0922
47196DOD     C385409  27.425   0.380  11.123  0.1694  0.3590  0.0587
47197DOD     C185410   3.951  20.557  12.295  0.0340 -0.2188 -0.0211
47197DOD     C285411   4.070  20.386  12.757  0.1616 -0.3027 -0.2565
47197DOD     C385412   4.391  20.120  12.922 -0.2638  0.2249  0.3101
47198DOD     C185413  26.883  18.360  29.252 -0.1728 -0.1130 -0.0209
47198DOD     C285414  26.701  18.091  29.593 -0.1058  0.1332 -0.2357
47198DOD     C385415  26.283  17.960  29.811  0.0660  0.1239 -0.0793
47199DOD     C185416   9.263  23.565   8.868 -0.1914 -0.0890  0.3234
47199DOD     C285417   9.456  23.643   9.301 -0.1871  0.2752  0.0499
47199DOD     C385418   9.875  23.410   9.407  0.1333 -0.1280  0.2180
47200DOD     C185419  19.693  26.612  17.399  0.1700 -0.2761  0.1398
47200DOD     C285420  19.291  26.690  17.566 -0.1803  0.1140  0.1931
47200DOD     C385421  18.914  26.541  17.337 -0.2280  0.1390  0.1557
47201DOD     C185422  27.997  24.865  16.348  0.2552 -0.1963 -0.2109
47201DOD     C285423  27.798  25.244  16.183  0.0225  0.1177 -0.1155
47201DOD     C385424  27.564  25.312  15.742 -0.1048 -0.0814 -0.4574
47202DOD     C185425   1.695  11.570  20.832 -0.2134 -0.1669 -0.0210
47202DOD     C285426   1.640  11.142  21.045 -0.2656  0.1126  0.1119
47202DOD     C385427   1.634  10.842  21.421  0.1356 -0.2930 -0.0189
47203DOD     C185428  11.706   2.786  12.674 -0.1445 -0.2516  0.3698
47203DOD     C285429  11.837   2.384  12.823 -0.1372 -0.0082 -0.1340
47203DOD     C385430  11.939   2.111  13.165  0.0872  0.1618 -0.2197
47204DOD     C185431  15.524  15.734  17.344  0.3119 -0.1192  0.0514
47204DOD     C285432  15.677  16.182  17.354  0.0797 -0.2047  0.2743
47204DOD     C385433  15.499  16.622  17.472 -0.1158 -0.2682 -0.1725
47205DOD     C185434   5.265  17.602  30.098  0.2110  0.2529 -0.0461
47205DOD     C285435   5.608  17.734  30.372 -0.2213 -0.0980  0.3262
47205DOD     C385436   5.921  17.716   0.356  0.0227 -0.1828  0.0327
47206DOD     C185437   4.753   7.986  11.855  0.0267  0.1202  0.1397
47206DOD     C285438   4.887   7.584  11.563  0.0020 -0.3164  0.2399
47206DOD     C385439   4.594   7.274  11.388  0.0490  0.0905  0.1143
47207DOD     C185440  29.905  20.499   7.236 -0.2928  0.0893  0.0186
47207DOD     C285441  30.191  20.754   7.577 -0.1414 -0.1188 -0.1319
47207DOD     C385442   0.297  20.926   7.666  0.1187 -0.0748 -0.2281
47208DOD     C185443  14.611  21.334  28.804 -0.1467  0.0787  0.2212
47208DOD     C285444  14.428  20.938  28.633 -0.1243 -0.0337 -0.0596
47208DOD     C385445  14.527  20.467  28.635 -0.0733  0.0693 -0.2663
47209DOD     C185446  19.477  29.461   4.735  0.0145  0.0135  0.1067
47209DOD     C285447  19.054  29.303   4.626  0.1968 -0.0961  0.4404
47209DOD     C385448  18.648  29.204   4.866  0.1328 -0.1837  0.2299
47210DOD     C185449  17.879  12.352  23.662 -0.0279  0.0998 -0.1571
47210DOD     C285450  18.194  12.503  23.939 -0.1609 -0.0947 -0.0597
47210DOD     C385451  18.240  12.806  24.289 -0.1640  0.1483 -0.2685
47211DOD     C185452  17.864   5.907   6.512 -0.2082 -0.0699 -0.1100
47211DOD     C285453  18.045   5.472   6.669 -0.0688 -0.2321 -0.0255
47211DOD     C385454  18.445   5.203   6.591 -0.1690 -0.2314  0.1962
47212DOD     C185455  19.867   2.797  12.529 -0.0891 -0.2786 -0.2872
47212DOD     C285456  19.418   2.729  12.653 -0.1655  0.0626  0.1100
47212DOD     C385457  19.012   2.937  12.739 -0.2917 -0.0488  0.1569
47213DOD     C185458   2.230  13.893  13.807 -0.0871  0.0061  0.2677
47213DOD     C285459   1.819  13.977  13.833  0.5124  0.0309 -0.0496
47213DOD     C385460   1.380  13.911  13.711  0.4352  0.1859  0.0798
47214DOD     C185461   2.906  17.050   3.389 -0.2392 -0.0012  0.1916
47214DOD     C285462   3.345  17.124   3.500 -0.1241 -0.1071 -0.2961
47214DOD     C385463   3.659  16.917   3.727 -0.2960  0.1520 -0.0455
47215DOD     C185464   5.745  27.993  21.704 -0.1832  0.2207  0.0525
47215DOD     C285465   5.260  27.932  21.812 -0.0901  0.0050  0.0927
47215DOD     C385466   4.921  27.550  21.947  0.0197  0.1102  0.0643
47216DOD     C185467  17.860  15.057  23.946 -0.2836 -0.0546  0.1891
47216DOD     C285468  17.738  15.515  23.865 -0.0418  0.2061 -0.0236
47216DOD     C385469  17.359  15.809  24.025  0.1761 -0.1017  0.1225
47217DOD     C185470   4.873  15.565  17.217 -0.0877  0.1523  0.1441
47217DOD     C285471   4.746  15.842  16.871  0.0568 -0.1180 -0.0026
47217DOD     C385472   4.597  16.258  16.712  0.3610 -0.3797  0.0775
47218DOD     C185473   8.542  18.939   8.207  0.0757  0.2607  0.0113
47218DOD     C285474   8.137  19.182   8.117  0.2890  0.1801 -0.1563
47218DOD     C385475   7.678  19.182   8.017  0.0564  0.0322 -0.2142
47219DOD     C185476  21.812   3.919   7.155  0.0273  0.1157 -0.1842
47219DOD     C285477  21.621   3.833   6.751  0.0428 -0.1030  0.0665
47219DOD     C385478  21.627   3.585   6.369  0.1482  0.2002  0.1547
47220DOD     C185479   1.184  12.861  14.517  0.1681 -0.3242  0.1597
47220DOD     C285480   1.502  13.038  14.176  0.1240 -0.1682 -0.3012
47220DOD     C385481   1.695  13.372  13.914  0.1335  0.0159  0.2038
47221DOD     C185482  20.322  28.512   5.633 -0.2426  0.2374  0.0161
47221DOD     C285483  20.470  28.346   6.026 -0.2633  0.3243  0.0690
47221DOD     C385484  20.720  28.208   6.348 -0.1862  0.2617 -0.3358
47222DOD     C185485  24.087  16.117   1.984 -0.1823 -0.0474  0.1089
47222DOD     C285486  24.476  16.005   2.189  0.1977  0.1013  0.2657
47222DOD     C385487  24.937  15.980   2.299  0.0217  0.0065 -0.4351
47223DOD     C185488  29.000  21.289  20.801 -0.0996  0.2094  0.0353
47223DOD     C285489  28.670  21.414  21.012 -0.0594  0.0118  0.0680
47223DOD     C385490  28.614  21.251  21.382 -0.0529  0.0270  0.0093
47224DOD     C185491  29.096  21.302   5.447  0.2467 -0.0760  0.2600
47224DOD     C285492  29.068  20.942   5.741 -0.2267  0.1745  0.0218
47224DOD     C385493  28.884  20.749   6.165 -0.0619 -0.1364  0.1873
47225DOD     C185494   8.837  27.445  10.308 -0.0487 -0.2800  0.0787
47225DOD     C285495   9.085  27.096  10.608 -0.0641 -0.3233 -0.0723
47225DOD     C385496   9.164  26.902  11.014 -0.1409  0.0498  0.0168
47226DOD     C185497  17.742  17.787   2.616  0.0935  0.2507  0.0043
47226DOD     C285498  17.336  17.966   2.613  0.1028 -0.1960 -0.1233
47226DOD     C385499  16.935  18.171   2.742  0.1632  0.1090 -0.3806
47227DOD     C185500  15.337  25.143  17.772 -0.2064 -0.0261  0.2203
47227DOD     C285501  15.696  24.831  17.709  0.0720 -0.1956  0.1490
47227DOD     C385502  15.690  24.385  17.517  0.0525  0.0039  0.1024
47228DOD     C185503  25.566  20.231  18.231  0.1616 -0.0974  0.4424
47228DOD     C285504  25.915  20.102  18.529  0.1156 -0.1205 -0.1138
47228DOD     C385505  26.066  20.046  18.936  0.0381  0.1808 -0.1502
47229DOD     C185506  12.433  23.920   9.418  0.0649 -0.1829  0.0773
47229DOD     C285507  12.565  24.093   9.849 -0.2535 -0.1609  0.1009
47229DOD     C385508  12.826  24.478   9.954  0.0532  0.1149  0.3042
47230DOD     C185509  14.337   3.928  12.832 -0.3784 -0.1419  0.2631
47230DOD     C285510  14.761   3.816  12.572  0.1027  0.1136  0.0260
47230DOD     C385511  15.057   4.100  12.375  0.3642  0.0468  0.0927
47231DOD     C185512  10.251   9.690   0.301  0.0854  0.2211 -0.3233
47231DOD     C285513  10.629   9.756  30.246  0.0371 -0.0880  0.0928
47231DOD     C385514  10.922   9.658  29.885  0.0278  0.2393  0.2392
47232DOD     C185515  29.810  15.237  22.005 -0.3183  0.1474 -0.1015
47232DOD     C285516  30.064  15.473  21.737 -0.0676 -0.0366 -0.1507
47232DOD     C385517  30.206  15.813  21.445 -0.2471  0.1810 -0.0974
47233DOD     C185518   8.770  26.651  13.514 -0.1362 -0.0994 -0.0257
47233DOD     C285519   8.415  26.941  13.392 -0.0968  0.2219 -0.2948
47233DOD     C385520   7.946  26.768  13.399  0.0003 -0.1856  0.0795
47234DOD     C185521  26.842   1.993   1.671  0.3782 -0.0562  0.0706
47234DOD     C285522  26.660   2.345   1.450 -0.2850  0.2170 -0.1157
47234DOD     C385523  26.683   2.809   1.439 -0.0076 -0.1076  0.2606
47235DOD     C185524  20.739   3.159  15.468 -0.2228 -0.0193  0.2299
47235DOD     C285525  20.438   2.840  15.262 -0.0217 -0.1051  0.0740
47235DOD     C385526  20.646   2.420  15.153  0.0103  0.1147 -0.2654
47236DOD     C185527   4.394  19.514   9.186 -0.0564 -0.0092 -0.2175
47236DOD     C285528   4.151  19.321   9.522  0.1093 -0.0444  0.0720
47236DOD     C385529   3.981  18.881   9.521  0.1268 -0.0028  0.2663
47237DOD     C185530  24.117   0.128  23.508 -0.1921  0.0775  0.1476
47237DOD     C285531  24.371   0.536  23.530 -0.0517  0.0159  0.0243
47237DOD     C385532  24.663   0.873  23.341 -0.2534  0.0064  0.0171
47238DOD     C185533   3.570  15.870  25.005  0.1208  0.0107 -0.1070
47238DOD     C285534   3.655  16.140  25.357 -0.2284 -0.1295 -0.0121
47238DOD     C385535   3.811  16.161  25.808 -0.2389 -0.1011  0.1970
47239DOD     C185536   6.298  22.593   3.583  0.1592 -0.1879  0.1364
47239DOD     C285537   6.350  22.998   3.767  0.0945  0.2169 -0.0178
47239DOD     C385538   6.367  23.416   3.701 -0.2031  0.0229  0.0591
47240DOD     C185539   0.705  28.574  23.691  0.3075  0.2864 -0.4282
47240DOD     C285540   0.914  28.910  23.994 -0.5108 -0.4267  0.0762
47240DOD     C385541   1.336  28.951  24.219 -0.1501  0.3637 -0.1238
47241DOD     C185542   9.767  14.528   1.244 -0.1585  0.0473  0.1151
47241DOD     C285543  10.057  14.493   0.855 -0.0297 -0.2044  0.2597
47241DOD     C385544  10.470  14.345   0.666  0.0372  0.0770 -0.1042
47242DOD     C185545   4.695  23.442  14.761 -0.0099 -0.0486 -0.1121
47242DOD     C285546   4.463  23.696  14.453 -0.2302 -0.0174 -0.0169
47242DOD     C385547   4.339  23.825  14.047  0.1254  0.1689  0.2028
47243DOD     C185548  13.284  20.873  23.504  0.1992 -0.2175  0.0316
47243DOD     C285549  13.705  20.898  23.618 -0.0284 -0.3438 -0.1458
47243DOD     C385550  14.011  21.136  23.885  0.0593 -0.6541 -0.1672
47244DOD     C185551  20.673   7.246  16.118 -0.1226  0.2532 -0.2635
47244DOD     C285552  20.935   7.505  16.450  0.1736 -0.0867 -0.0699
47244DOD     C385553  21.102   7.905  16.602 -0.0743 -0.1714 -0.0051
47245DOD     C185554   6.858  14.863  21.453  0.1953  0.0939 -0.2481
47245DOD     C285555   6.844  14.635  21.910 -0.2266 -0.0547  0.0588
47245DOD     C385556   6.956  14.799  22.353 -0.0243  0.0777  0.3859
47246DOD     C185557   0.301  23.884   8.084  0.0709  0.1318  0.1026
47246DOD     C285558  30.290  23.663   7.809  0.1702 -0.0075  0.1896
47246DOD     C385559   0.007  23.401   7.429 -0.4234  0.0250  0.1486
47247DOD     C185560   3.555  25.789  14.398 -0.0725  0.2422  0.1168
47247DOD     C285561   3.898  26.005  14.541  0.0346  0.3826  0.0410
47247DOD     C385562   4.146  26.356  14.536 -0.0522  0.0226  0.3427
47248DOD     C185563  25.385   6.507  10.320  0.3333 -0.1671 -0.2021
47248DOD     C285564  25.683   6.821  10.189  0.1605  0.1020  0.2171
47248DOD     C385565  25.835   7.240  10.220  0.0233 -0.3284 -0.1119
47249DOD     C185566  24.380  16.813   7.587 -0.0415  0.0931  0.0443
47249DOD     C285567  24.792  16.636   7.634  0.1439 -0.0408  0.1143
47249DOD     C385568  25.248  16.721   7.559 -0.3864 -0.1669 -0.0372
47250DOD     C185569  16.796  17.203   7.030  0.1196 -0.0730  0.1976
47250DOD     C285570  16.373  17.097   7.070 -0.1615  0.0736 -0.1041
47250DOD     C385571  16.156  17.185   7.415 -0.0265 -0.0285  0.0239
47251DOD     C185572  16.672   7.411  22.786 -0.2103 -0.0998  0.7200
47251DOD     C285573  16.885   7.688  22.500 -0.2276  0.3105 -0.0635
47251DOD     C385574  17.246   7.917  22.258 -0.1242  0.1830 -0.2040
47252DOD     C185575  29.988   3.774  17.507 -0.2139 -0.2518  0.1395
47252DOD     C285576  30.191   3.575  17.907 -0.0190 -0.1954 -0.0231
47252DOD     C385577   0.122   3.392  18.246  0.2427  0.1508 -0.0034
47253DOD     C185578  10.160  24.263  15.789 -0.1814 -0.2494  0.3251
47253DOD     C285579  10.010  24.483  15.352 -0.1063 -0.3081 -0.2213
47253DOD     C385580   9.619  24.519  15.098  0.3541  0.0784 -0.1458
47254DOD     C185581  29.129  25.492  12.415  0.1952  0.1354 -0.2033
47254DOD     C285582  29.540  25.732  12.443  0.1918 -0.1783 -0.0805
47254DOD     C385583  29.991  25.673  12.444 -0.0653  0.0111 -0.0419
47255DOD     C185584   7.373  26.908   0.834  0.0032 -0.1702 -0.1091
47255DOD     C285585   7.406  26.537   0.566  0.0244 -0.2584 -0.0718
47255DOD     C385586   7.391  26.158   0.769 -0.0841  0.1679  0.0383
47256DOD     C185587  17.171  10.668  27.159 -0.1342  0.0668 -0.2886
47256DOD     C285588  17.448  10.947  26.944  0.1357  0.2187 -0.2673
47256DOD     C385589  17.323  11.334  26.740 -0.1167 -0.2807 -0.1972
47257DOD     C185590  19.229  22.650   8.899 -0.0011  0.0286 -0.3725
47257DOD     C285591  19.340  22.333   9.232  0.4479 -0.3863  0.1110
47257DOD     C385592  19.562  21.924   9.333  0.2292  0.0898  0.0856
47258DOD     C185593  30.084  10.094  17.532 -0.1714  0.0137 -0.0311
47258DOD     C285594  29.688   9.968  17.739 -0.1641 -0.0464 -0.2658
47258DOD     C385595  29.567   9.911  18.157 -0.0963  0.1642 -0.0691
47259DOD     C185596  10.172  25.384   9.149 -0.1294 -0.3833  0.2446
47259DOD     C285597   9.903  25.631   8.868  0.2056 -0.1557 -0.3610
47259DOD     C385598   9.450  25.555   8.740 -0.1007  0.4479  0.3931
47260DOD     C185599  11.458   7.603  14.629  0.1731  0.0905  0.1268
47260DOD     C285600  11.033   7.687  14.853 -0.1954 -0.0444 -0.0929
47260DOD     C385601  10.638   7.947  14.991 -0.2324 -0.2608  0.0902
47261DOD     C185602   0.474  21.768   0.113 -0.1717 -0.1588 -0.1334
47261DOD     C285603   0.469  22.180  30.191 -0.2668 -0.2067  0.2362
47261DOD     C385604   0.534  22.506  29.879 -0.0337  0.1760  0.0893
47262DOD     C185605  29.812  12.212  21.443  0.0549  0.1392 -0.1730
47262DOD     C285606  30.233  12.284  21.172  0.1170  0.2405 -0.1894
47262DOD     C385607   0.353  12.217  21.022  0.0825 -0.1733 -0.1952
47263DOD     C185608   3.551  24.154  23.593 -0.0250  0.0870  0.1744
47263DOD     C285609   3.342  23.763  23.442 -0.2033 -0.3746 -0.1410
47263DOD     C385610   3.330  23.420  23.688 -0.3582 -0.1195  0.1313
47264DOD     C185611   1.027  29.487  27.279 -0.0342  0.1607 -0.0275
47264DOD     C285612   0.887  29.110  27.047 -0.3128  0.1124  0.0765
47264DOD     C385613   0.505  28.882  26.979  0.1682  0.1141 -0.4069
47265DOD     C185614  11.855   7.998  14.768 -0.0782 -0.0109 -0.2903
47265DOD     C285615  12.075   8.007  14.335 -0.1902 -0.0068  0.1681
47265DOD     C385616  12.466   8.140  14.155  0.1908 -0.0811  0.1662
47266DOD     C185617  22.780  15.898  24.522  0.0255 -0.0175 -0.2281
47266DOD     C285618  22.999  16.259  24.291 -0.2910  0.2421  0.3249
47266DOD     C385619  23.335  16.274  23.944  0.0592  0.1419 -0.0965
47267DOD     C185620   0.753  24.279   4.943 -0.3565 -0.0855 -0.0050
47267DOD     C285621   0.818  23.828   5.014  0.1439 -0.0641  0.2124
47267DOD     C385622   0.927  23.575   4.611 -0.2652  0.0175  0.1684
47268DOD     C185623   2.415  16.887  16.577  0.0598 -0.1922 -0.0768
47268DOD     C285624   2.830  16.686  16.536  0.1626  0.1250  0.4136
47268DOD     C385625   2.996  16.388  16.180 -0.1779 -0.2132 -0.0019
47269DOD     C185626   7.966   1.051  22.009 -0.0098  0.0064  0.2724
47269DOD     C285627   7.523   1.162  22.012 -0.2697  0.0274  0.0117
47269DOD     C385628   7.081   1.100  21.813 -0.0980  0.0533 -0.1002
47270DOD     C185629   2.113  24.127  17.792 -0.2216  0.5187  0.1293
47270DOD     C285630   1.691  24.083  17.792  0.1919  0.3423 -0.2585
47270DOD     C385631   1.273  24.241  17.597  0.0386  0.0252  0.1659
47271DOD     C185632   6.065  17.738  30.151 -0.2634  0.0669 -0.1835
47271DOD     C285633   5.892  18.150  30.267  0.1243 -0.0075  0.1830
47271DOD     C385634   5.682  18.611  30.178  0.1017  0.0742  0.4216
47272DOD     C185635  25.721   5.195  12.156  0.0558 -0.0339 -0.2788
47272DOD     C285636  26.176   5.124  12.310  0.3608  0.1410 -0.3037
47272DOD     C385637  26.643   5.173  12.293  0.1012 -0.0763 -0.0402
47273DOD     C185638   2.607   1.674  11.041  0.2633  0.1838  0.1170
47273DOD     C285639   2.800   1.786  11.452 -0.0960  0.1073  0.0042
47273DOD     C385640   2.668   1.933  11.908  0.0651 -0.0080  0.0451
47274DOD     C185641   4.662  27.819  20.613  0.0420  0.2342  0.1646
47274DOD     C285642   4.706  27.940  20.118  0.0753  0.3067 -0.0399
47274DOD     C385643   4.594  28.068  19.678 -0.0204  0.0227  0.0655
47275DOD     C185644  20.224  21.592  12.858  0.1293 -0.0757 -0.0520
47275DOD     C285645  19.956  21.946  12.638 -0.1947 -0.0001 -0.2061
47275DOD     C385646  19.763  22.011  12.213 -0.1048 -0.3047  0.2902
47276DOD     C185647  25.270   7.597  26.446 -0.0361  0.1570 -0.0223
47276DOD     C285648  25.064   7.722  26.062 -0.0571 -0.0509  0.1436
47276DOD     C385649  24.669   7.651  25.821  0.0167  0.2013  0.1811
47277DOD     C185650  28.100   2.887  19.296  0.1179  0.0938  0.0312
47277DOD     C285651  27.899   2.524  19.085 -0.0279  0.1258 -0.1569
47277DOD     C385652  27.705   2.124  18.976  0.1957  0.0980 -0.0378
47278DOD     C185653   3.496  24.430   8.446 -0.1356  0.0512 -0.0193
47278DOD     C285654   3.425  23.989   8.591  0.2751 -0.0405  0.0722
47278DOD     C385655   3.484  23.497   8.568 -0.0275 -0.0099 -0.1126
47279DOD     C185656   7.305  21.893  16.288 -0.0093 -0.1005  0.0007
47279DOD     C285657   7.032  22.037  15.948  0.1486  0.0413 -0.2406
47279DOD     C385658   6.912  21.814  15.554  0.0446 -0.0192 -0.0473
47280DOD     C185659  19.445  16.354  13.310 -0.0546  0.0661  0.1019
47280DOD     C285660  19.755  16.629  13.144 -0.0492 -0.2277 -0.1658
47280DOD     C385661  20.059  16.842  12.812 -0.1527 -0.3233 -0.1824
47281DOD     C185662  28.059  21.695  25.238 -0.1012 -0.1853 -0.1186
47281DOD     C285663  28.043  22.032  25.552  0.1085 -0.1101  0.0527
47281DOD     C385664  28.244  22.485  25.488  0.0702 -0.3024 -0.0530
47282DOD     C185665  25.395   2.956  22.446 -0.1123  0.0195  0.0089
47282DOD     C285666  25.374   3.415  22.482 -0.0600 -0.2277  0.0405
47282DOD     C385667  25.128   3.802  22.363 -0.1406 -0.0720  0.2056
47283DOD     C185668   4.270  29.739   9.908 -0.0355 -0.1417 -0.1211
47283DOD     C285669   4.004  29.582  10.302  0.0363  0.3016 -0.3849
47283DOD     C385670   3.734  29.319  10.636 -0.2438 -0.3646  0.2197
47284DOD     C185671   2.074  20.798  11.880  0.1284  0.1424  0.2329
47284DOD     C285672   2.292  20.380  11.691  0.1958  0.1893  0.0023
47284DOD     C385673   2.599  20.008  11.688 -0.1070  0.0616  0.1943
47285DOD     C185674   6.658  20.963   9.795 -0.1208  0.1522 -0.0421
47285DOD     C285675   6.705  20.671  10.197 -0.2250  0.2189 -0.1500
47285DOD     C385676   6.548  20.548  10.584  0.1071 -0.2970  0.0360
47286DOD     C185677  13.000  27.630  15.782 -0.4377  0.0096 -0.0513
47286DOD     C285678  12.619  27.417  15.947 -0.3824 -0.3457  0.0379
47286DOD     C385679  12.161  27.347  15.990  0.0827 -0.1627 -0.0983
47287DOD     C185680   0.434   6.987  28.901 -0.0972  0.0066 -0.1930
47287DOD     C285681   0.215   6.832  29.276  0.1948  0.1787 -0.0819
47287DOD     C385682   0.399   6.702  29.683  0.1628 -0.0815  0.0641
47288DOD     C185683  11.678  27.492  16.994  0.5935 -0.0548  0.1195
47288DOD     C285684  11.679  27.027  17.145 -0.2285 -0.2083 -0.0863
47288DOD     C385685  11.582  26.758  17.521 -0.1622 -0.2402 -0.1817
47289DOD     C185686   6.909  15.317  28.885  0.2421  0.1548  0.1362
47289DOD     C285687   7.015  15.111  28.492  0.0657 -0.0272 -0.1317
47289DOD     C385688   7.228  15.346  28.139 -0.1413  0.1546  0.1625
47290DOD     C185689   5.549  15.425   9.342  0.0652  0.1342  0.1153
47290DOD     C285690   5.400  15.035   9.059 -0.1946  0.1197  0.1578
47290DOD     C385691   5.472  14.619   8.898 -0.0766 -0.2569 -0.1764
47291DOD     C185692  14.218  16.334   1.276 -0.2989 -0.1056  0.0957
47291DOD     C285693  13.858  16.629   1.254 -0.2211  0.2002 -0.2636
47291DOD     C385694  13.579  16.931   0.983 -0.1771 -0.1243  0.1942
47292DOD     C185695  27.671  14.929   0.464  0.3938 -0.2667 -0.3716
47292DOD     C285696  27.938  14.952   0.117  0.1893 -0.2407 -0.0682
47292DOD     C385697  28.227  14.933  30.018  0.1647  0.0817 -0.0110
47293DOD     C185698  21.546   0.811  24.653  0.2663  0.1618  0.1135
47293DOD     C285699  21.224   1.114  24.645 -0.1213 -0.0412 -0.2061
47293DOD     C385700  20.914   1.439  24.435 -0.1384  0.0942  0.2378
47294DOD     C185701  12.508  14.412  18.239  0.0725 -0.0861 -0.0233
47294DOD     C285702  12.140  14.442  18.460  0.0129  0.0527  0.1178
47294DOD     C385703  12.028  14.591  18.847 -0.0139 -0.4391  0.0144
47295DOD     C185704   0.661  22.978   4.561  0.0989  0.0844 -0.0763
47295DOD     C285705   0.377  22.813   4.276 -0.1129  0.1525  0.2294
47295DOD     C385706   0.106  22.806   3.918  0.1810  0.1449 -0.0058
47296DOD     C185707   8.372   8.049   0.336 -0.2314 -0.0794 -0.1446
47296DOD     C285708   8.589   8.385   0.551  0.1292 -0.1186 -0.0721
47296DOD     C385709   8.219   8.641   0.769  0.1002 -0.0259  0.3624
47297DOD     C185710   9.023   6.484   7.308 -0.3280 -0.0512  0.1085
47297DOD     C285711   9.321   6.285   6.924  0.2041 -0.0142  0.3848
47297DOD     C385712   9.778   6.129   6.817 -0.0382 -0.0852  0.0468
47298DOD     C185713   9.188   8.502   4.236  0.2410 -0.3693  0.1770
47298DOD     C285714   9.111   8.127   4.489 -0.0733  0.0218 -0.0602
47298DOD     C385715   9.013   7.726   4.717 -0.1477  0.0783  0.0665
47299DOD     C185716  16.202   0.416   9.492  0.2657 -0.2538 -0.0664
47299DOD     C285717  16.629   0.289   9.664  0.2011  0.2560 -0.0387
47299DOD     C385718  16.942   0.137   9.948  0.1257 -0.3041  0.0520
47300DOD     C185719  13.915   3.642  26.428 -0.0113 -0.0507  0.0912
47300DOD     C285720  14.190   3.349  26.136 -0.0679  0.0293  0.0745
47300DOD     C385721  14.379   3.207  25.747 -0.2326 -0.2263 -0.1330
47301DOD     C185722  29.103  21.042  24.112  0.1239  0.1230 -0.0615
47301DOD     C285723  28.633  20.915  24.107  0.0437 -0.1067 -0.4623
47301DOD     C385724  28.159  20.898  24.044 -0.0055  0.0667 -0.2389
47302DOD     C185725   6.394  27.854  18.538  0.2733 -0.1080 -0.2764
47302DOD     C285726   6.694  27.671  18.211 -0.0969 -0.3001 -0.0794
47302DOD     C385727   7.082  27.741  17.935  0.1254  0.4197  0.1436
47303DOD     C185728  19.051  17.228   1.846  0.0002  0.0583  0.0258
47303DOD     C285729  18.917  17.418   2.251  0.0218  0.0257 -0.1422
47303DOD     C385730  18.750  17.616   2.667  0.0147  0.2148 -0.3074
47304DOD     C185731  30.113   1.226   9.198 -0.1561 -0.2139  0.2189
47304DOD     C285732  30.182   0.963   8.827  0.0460  0.1159  0.0815
47304DOD     C385733   0.195   0.671   8.729  0.0460 -0.0455  0.0232
47305DOD     C185734  15.610   0.648  13.039  0.3577 -0.1645  0.0149
47305DOD     C285735  15.994   0.706  13.282 -0.3174  0.1157  0.0296
47305DOD     C385736  16.031   0.889  13.751  0.0595 -0.0103 -0.0763
47306DOD     C185737  18.280  20.435   9.760 -0.0892 -0.1136 -0.3101
47306DOD     C285738  17.907  20.198   9.914 -0.4057  0.0145 -0.0780
47306DOD     C385739  17.490  20.231   9.767 -0.0142  0.0564  0.0426
47307DOD     C185740   4.976  19.815  10.589  0.0129 -0.1003 -0.0588
47307DOD     C285741   5.215  19.474  10.402  0.0756 -0.0317 -0.0345
47307DOD     C385742   5.267  19.026  10.288  0.0894 -0.1475 -0.1389
47308DOD     C185743  14.569   3.303  23.757 -0.1189 -0.0727 -0.2046
47308DOD     C285744  14.819   2.935  23.689 -0.0416  0.1494  0.0633
47308DOD     C385745  15.204   2.654  23.595  0.0122  0.0599 -0.2448
47309DOD     C185746  13.783  26.691   7.087  0.0881  0.0456  0.1153
47309DOD     C285747  13.549  27.028   7.352 -0.0232  0.3399 -0.0163
47309DOD     C385748  13.219  27.345   7.163  0.2578  0.3417  0.0105
47310DOD     C185749  27.051   4.483  20.216  0.2047 -0.0238  0.1350
47310DOD     C285750  26.750   4.309  20.526 -0.0370 -0.0656 -0.1830
47310DOD     C385751  26.433   4.104  20.774 -0.0892 -0.1848  0.1546
47311DOD     C185752  28.643   8.307  20.865  0.1555  0.0537 -0.1945
47311DOD     C285753  28.340   8.096  20.546  0.0339 -0.3776  0.0591
47311DOD     C385754  28.356   7.812  20.202 -0.1847  0.1758  0.2035
47312DOD     C185755  13.689   3.557  19.515  0.0980  0.2911  0.2182
47312DOD     C285756  13.986   3.795  19.641 -0.0947 -0.1353  0.2083
47312DOD     C385757  14.253   3.947  19.978 -0.2608  0.1086 -0.2034
47313DOD     C185758  27.262  27.417  23.947 -0.0069 -0.0918 -0.2295
47313DOD     C285759  27.396  26.936  23.873 -0.0121  0.0194  0.1110
47313DOD     C385760  27.396  26.507  23.782  0.0310  0.3068 -0.1578
47314DOD     C185761  17.113   4.891  22.685 -0.1051  0.1760  0.0635
47314DOD     C285762  17.494   4.761  22.330 -0.0543 -0.0186 -0.1008
47314DOD     C385763  17.677   4.373  22.120  0.0408 -0.2198  0.0183
47315DOD     C185764   8.226   0.056  28.168 -0.0114 -0.0606  0.0514
47315DOD     C285765   7.846   0.317  28.212 -0.0576  0.0756 -0.1142
47315DOD     C385766   7.497   0.627  28.327 -0.1587  0.0314  0.1169
47316DOD     C185767  25.747   0.007  28.448  0.0196 -0.1573 -0.2701
47316DOD     C285768  25.690   0.416  28.606 -0.1383 -0.2073 -0.0463
47316DOD     C385769  25.266   0.638  28.591 -0.0869  0.2195  0.0316
47317DOD     C185770  27.752  14.954  29.404 -0.0387  0.0282  0.4290
47317DOD     C285771  27.461  15.170  29.719  0.1338  0.2625  0.0881
47317DOD     C385772  27.057  15.398  29.710  0.4392 -0.1186  0.2083
47318DOD     C185773  20.074  28.560  12.177 -0.2194  0.0197  0.0908
47318DOD     C285774  19.724  28.543  11.825 -0.0843 -0.2162  0.0894
47318DOD     C385775  19.532  28.807  11.555  0.3859  0.2265 -0.1565
47319DOD     C185776  18.211  25.453   9.715  0.0567  0.1708  0.0014
47319DOD     C285777  17.997  25.078   9.472  0.1080 -0.1579 -0.0218
47319DOD     C385778  17.587  24.943   9.528  0.4447  0.3029 -0.2624
47320DOD     C185779   9.770  20.175   1.488  0.0017  0.3711 -0.3218
47320DOD     C285780   9.642  19.865   1.864  0.2619  0.0811 -0.0338
47320DOD     C385781   9.460  19.459   2.062 -0.0160 -0.0076 -0.0308
47321DOD     C185782  19.239   4.412  25.405  0.1235 -0.0773 -0.2907
47321DOD     C285783  19.288   3.920  25.406 -0.0706 -0.0698 -0.5395
47321DOD     C385784  19.491   3.702  25.771  0.2035  0.0819 -0.0402
47322DOD     C185785  17.471   7.867  12.528  0.0556  0.0807  0.3028
47322DOD     C285786  17.443   8.315  12.704 -0.2978 -0.0416 -0.1372
47322DOD     C385787  17.308   8.758  12.605 -0.1604 -0.0648 -0.0993
47323DOD     C185788  26.919   1.976  23.521 -0.2398 -0.4435  0.0381
47323DOD     C285789  27.041   2.225  23.118 -0.1586  0.0602  0.0682
47323DOD     C385790  27.154   2.467  22.777 -0.1954  0.0149  0.3705
47324DOD     C185791  15.427  26.354   0.945 -0.1828 -0.0789  0.2130
47324DOD     C285792  15.246  25.888   0.903 -0.0628 -0.1041  0.1852
47324DOD     C385793  15.171  25.459   0.640  0.1847 -0.4252  0.0134
47325DOD     C185794   3.041  20.876  28.595 -0.0813  0.3291  0.2217
47325DOD     C285795   2.759  20.625  28.828 -0.0348  0.3348  0.1001
47325DOD     C385796   2.557  20.202  28.851  0.1437  0.1683  0.1134
47326DOD     C185797  21.156  23.356  28.150  0.0319  0.2128  0.1186
47326DOD     C285798  21.522  23.475  28.411 -0.0787  0.2610 -0.1806
47326DOD     C385799  21.779  23.648  28.801 -0.2082  0.2930 -0.1734
47327DOD     C185800  21.291  17.317  23.191 -0.1573  0.0962  0.3740
47327DOD     C285801  21.335  17.634  22.813  0.3154  0.2494  0.3412
47327DOD     C385802  21.513  17.914  22.510  0.1078  0.0094  0.3265
47328DOD     C185803  20.198  24.003  27.474  0.1988 -0.0947  0.0841
47328DOD     C285804  20.097  23.488  27.542  0.1793 -0.1733  0.2529
47328DOD     C385805  20.074  23.056  27.348 -0.1331  0.2472 -0.2271
47329DOD     C185806  10.139  15.894  20.145 -0.0957  0.2708 -0.1365
47329DOD     C285807   9.988  15.899  19.718  0.0487  0.3357 -0.0421
47329DOD     C385808  10.259  15.869  19.357  0.0422 -0.1823  0.0041
47330DOD     C185809  21.241   0.373  13.327 -0.3375 -0.0471  0.0302
47330DOD     C285810  21.133   0.381  13.794  0.3097 -0.0686  0.2348
47330DOD     C385811  20.950   0.349  14.168  0.0627 -0.2018 -0.2783
47331DOD     C185812   7.172   4.329  13.845  0.1276 -0.1039 -0.1311
47331DOD     C285813   7.197   4.351  14.294 -0.0721  0.1289 -0.3047
47331DOD     C385814   7.598   4.235  14.497  0.0439 -0.3264 -0.1118
47332DOD     C185815  27.770  27.538  29.278 -0.3164  0.0207 -0.0953
47332DOD     C285816  28.004  27.143  29.289  0.1734  0.1736  0.0477
47332DOD     C385817  28.130  26.763  29.003  0.4055  0.1535 -0.0783
47333DOD     C185818  13.197  18.868  15.323 -0.2563 -0.0442  0.2847
47333DOD     C285819  12.972  19.139  14.998 -0.2727  0.2539 -0.1761
47333DOD     C385820  12.841  19.073  14.526  0.1321  0.0819 -0.2599
47334DOD     C185821  16.539   2.623  13.007  0.1740 -0.1558 -0.0461
47334DOD     C285822  16.703   2.175  13.043 -0.1858 -0.0204 -0.3331
47334DOD     C385823  16.739   1.772  13.212  0.0897  0.0006 -0.0622
47335DOD     C185824  26.245  27.364  15.722 -0.1976  0.0233  0.0433
47335DOD     C285825  26.121  27.443  15.251  0.0483 -0.3661 -0.3183
47335DOD     C385826  26.366  27.321  14.865 -0.2285 -0.1948  0.3411
47336DOD     C185827  22.873  13.492  28.759  0.0249  0.2275 -0.0822
47336DOD     C285828  22.889  13.753  28.427 -0.2498  0.3385  0.0770
47336DOD     C385829  22.828  14.036  28.063  0.4600  0.3364  0.2710
47337DOD     C185830  10.445   0.764  16.576 -0.0838  0.1289  0.3850
47337DOD     C285831  10.743   0.735  16.906  0.0117  0.1973  0.1009
47337DOD     C385832  11.099   0.603  17.150 -0.0086  0.0917  0.1393
47338DOD     C185833  11.669  16.770  22.545 -0.0203 -0.0381  0.2461
47338DOD     C285834  11.775  17.049  22.165  0.0451 -0.3095 -0.2158
47338DOD     C385835  11.969  17.507  22.112 -0.2100 -0.2515 -0.0079
47339DOD     C185836   8.606  16.172   9.880  0.2777 -0.0944 -0.0356
47339DOD     C285837   8.431  16.184   9.441  0.2175 -0.4283 -0.0074
47339DOD     C385838   8.190  16.407   9.140  0.0764 -0.0649  0.2344
47340DOD     C185839   1.042  23.666  13.757  0.1946 -0.3532 -0.2026
47340DOD     C285840   1.332  23.993  13.982 -0.1847  0.0245  0.3093
47340DOD     C385841   1.414  24.394  14.079 -0.2073  0.1089  0.1437
47341DOD     C185842  20.497  20.697   4.439  0.0357  0.0853 -0.2940
47341DOD     C285843  20.618  20.807   3.991  0.4486  0.0329  0.0726
47341DOD     C385844  20.753  20.689   3.602 -0.0830 -0.1033  0.1565
47342DOD     C185845  17.329  25.577   7.404  0.0673 -0.2233  0.4026
47342DOD     C285846  17.500  26.021   7.447 -0.1896  0.0854 -0.0982
47342DOD     C385847  17.834  26.403   7.402 -0.2430 -0.2445  0.1880
47343DOD     C185848  16.387  21.549  14.272 -0.0125 -0.1329  0.1651
47343DOD     C285849  16.792  21.357  14.425 -0.0967  0.2567  0.0271
47343DOD     C385850  17.097  21.091  14.647 -0.0253 -0.1610  0.1106
47344DOD     C185851  29.027  20.493  26.427 -0.0086 -0.1338  0.0334
47344DOD     C285852  28.988  20.086  26.246 -0.1413  0.2674 -0.0753
47344DOD     C385853  28.637  20.047  25.988 -0.0545 -0.2786 -0.1148
47345DOD     C185854  25.765   5.934  12.607  0.2378 -0.2693  0.1540
47345DOD     C285855  26.215   5.871  12.664 -0.1025 -0.1429 -0.1008
47345DOD     C385856  26.435   5.395  12.649  0.0937 -0.4680  0.1906
47346DOD     C185857  22.456   2.143  17.940 -0.0788 -0.3181  0.2899
47346DOD     C285858  22.849   2.300  18.074  0.5959  0.1085  0.1388
47346DOD     C385859  23.195   2.602  18.293  0.3496 -0.0382 -0.0800
47347DOD     C185860  26.485   5.010  17.229  0.1372  0.0532 -0.5553
47347DOD     C285861  26.659   4.747  16.937  0.1114  0.1055 -0.1282
47347DOD     C385862  26.833   4.564  16.531  0.2028 -0.2590  0.0595
47348DOD     C185863   3.494  29.198  22.016  0.1277  0.0663  0.0772
47348DOD     C285864   3.863  28.854  22.071 -0.1880  0.0971  0.0266
47348DOD     C385865   4.076  28.556  22.319  0.2088  0.0357  0.1108
47349DOD     C185866  15.015  24.698   1.166  0.0218  0.0159 -0.0340
47349DOD     C285867  14.797  24.346   1.354 -0.0581 -0.1491  0.2756
47349DOD     C385868  14.837  23.848   1.353 -0.2336  0.1026 -0.1704
47350DOD     C185869  27.376  17.868   2.996 -0.4538 -0.3254 -0.2370
47350DOD     C285870  27.525  17.475   2.803  0.1213 -0.1439 -0.0177
47350DOD     C385871  27.661  16.988   2.820  0.0963  0.2999 -0.0647
47351DOD     C185872  14.404  20.682  23.234  0.1383 -0.0528  0.3306
47351DOD     C285873  14.481  20.288  23.481 -0.2227 -0.0494 -0.0339
47351DOD     C385874  14.337  20.254  23.934  0.0520 -0.0399  0.0696
47352DOD     C185875  27.114  11.156   2.960  0.1250  0.1198  0.0822
47352DOD     C285876  27.228  11.368   2.562 -0.0561 -0.2174  0.0301
47352DOD     C385877  27.669  11.482   2.422 -0.1965  0.1401  0.0758
47353DOD     C185878  27.352  29.313   7.797  0.0098  0.1853  0.1335
47353DOD     C285879  27.392  28.882   7.637  0.1498  0.0864 -0.1834
47353DOD     C385880  27.192  28.527   7.814  0.1141  0.0477 -0.0573
47354DOD     C185881  30.081   9.011  21.856 -0.1333  0.1189  0.0711
47354DOD     C285882  30.270   9.463  21.948 -0.0372 -0.2400 -0.2118
47354DOD     C385883  30.227   9.740  22.315  0.1653  0.2203  0.2989
47355DOD     C185884   5.884  16.989  10.953  0.1616  0.1962 -0.1340
47355DOD     C285885   6.006  17.401  11.159  0.3203  0.1141  0.2013
47355DOD     C385886   6.409  17.599  10.973  0.2317 -0.0070  0.1390
47356DOD     C185887  26.310  14.757  30.230  0.1945 -0.1384  0.1741
47356DOD     C285888  26.046  14.923   0.183  0.3694  0.1701 -0.1657
47356DOD     C385889  25.609  14.878   0.334 -0.1099  0.0464  0.1057
47357DOD     C185890  16.879   3.880  12.607  0.2388  0.1648  0.1168
47357DOD     C285891  16.622   4.096  12.231  0.0298 -0.1042  0.1968
47357DOD     C385892  16.235   4.403  12.275 -0.0300  0.1904  0.0007
47358DOD     C185893   4.292   4.906   1.497 -0.1075 -0.1506  0.0157
47358DOD     C285894   3.964   5.183   1.584  0.0553  0.1671 -0.0540
47358DOD     C385895   3.547   5.077   1.707 -0.3700 -0.0512  0.1545
47359DOD     C185896   8.474   7.331  16.224 -0.2789 -0.1345 -0.2169
47359DOD     C285897   8.180   7.120  15.963  0.2625  0.1225 -0.1956
47359DOD     C385898   7.835   6.971  15.687  0.1310  0.1515 -0.3353
47360DOD     C185899  19.165  25.942  14.945 -0.1315 -0.1713  0.1105
47360DOD     C285900  18.782  25.803  15.142 -0.3641  0.1741 -0.3360
47360DOD     C385901  18.544  25.602  15.524  0.0425 -0.3471  0.1501
47361DOD     C185902   1.158  26.166  15.387 -0.0536  0.0904 -0.1223
47361DOD     C285903   1.241  26.404  14.989 -0.2125  0.2262  0.0264
47361DOD     C385904   1.395  26.236  14.606 -0.4261  0.3090  0.1161
47362DOD     C185905  15.657  22.872  30.003  0.0704  0.2009 -0.2528
47362DOD     C285906  15.836  22.730  29.579  0.0286  0.3190  0.1553
47362DOD     C385907  15.980  22.380  29.274 -0.2461  0.1238  0.0598
47363DOD     C185908  25.177  26.214  26.092 -0.4789  0.0662  0.0769
47363DOD     C285909  25.008  26.057  25.662  0.2611  0.0116 -0.0735
47363DOD     C385910  25.370  26.314  25.401 -0.2350  0.1583  0.4004
47364DOD     C185911   1.813   6.338  21.760 -0.2819  0.5018 -0.0521
47364DOD     C285912   1.720   6.336  22.220 -0.1101  0.1514  0.2393
47364DOD     C385913   1.672   6.242  22.633  0.1401  0.0225 -0.0731
47365DOD     C185914  13.959  11.038  13.193  0.3633 -0.0337 -0.2809
47365DOD     C285915  14.193  11.379  13.494  0.1061 -0.1215  0.2629
47365DOD     C385916  14.461  11.643  13.708 -0.0266 -0.0970  0.1515
47366DOD     C185917  27.109   6.705  21.675  0.1108 -0.2298 -0.1943
47366DOD     C285918  27.250   6.750  22.103  0.0971 -0.0510 -0.1276
47366DOD     C385919  27.665   6.595  22.148  0.0930 -0.0378 -0.3005
47367DOD     C185920  30.027  16.811  16.688  0.0890 -0.2726 -0.0143
47367DOD     C285921  30.016  16.436  16.485  0.1740  0.0977  0.0469
47367DOD     C385922  30.209  16.037  16.524  0.1545  0.0040 -0.0975
47368DOD     C185923  29.330  26.279  22.802 -0.1303 -0.0820  0.0704
47368DOD     C285924  29.497  26.743  22.611  0.0160  0.1562 -0.1615
47368DOD     C385925  29.330  27.030  22.337 -0.1085 -0.3678 -0.0575
47369DOD     C185926  15.570  29.692   5.486 -0.2477 -0.0751 -0.0134
47369DOD     C285927  15.518  29.351   5.194 -0.1789  0.1102 -0.1272
47369DOD     C385928  15.373  28.941   5.115  0.2476  0.0189 -0.4201
47370DOD     C185929  16.386   3.753   7.308  0.0236  0.0707 -0.1240
47370DOD     C285930  16.298   4.150   7.477 -0.1601  0.1672  0.0161
47370DOD     C385931  16.047   4.473   7.722 -0.0511  0.0534  0.0417
47371DOD     C185932  16.013  30.275  28.325 -0.2661  0.2308  0.1312
47371DOD     C285933  16.269   0.125  28.691 -0.2438 -0.1564 -0.1900
47371DOD     C385934  16.392   0.268  29.137  0.2053  0.2535  0.2800
47372DOD     C185935   6.483   7.770   3.364 -0.2160 -0.1359  0.1861
47372DOD     C285936   6.076   7.975   3.282 -0.3354  0.0017  0.3164
47372DOD     C385937   5.837   8.366   3.112 -0.2427 -0.1080 -0.2036
47373DOD     C185938  21.328  10.075  13.935 -0.1154 -0.1308 -0.0582
47373DOD     C285939  21.073  10.160  14.289 -0.1524  0.4223  0.1501
47373DOD     C385940  20.651  10.337  14.427  0.1058  0.1255 -0.0904
47374DOD     C185941   0.299  22.995   7.744 -0.5653 -0.4784 -0.0098
47374DOD     C285942   0.501  23.434   7.615  0.1692 -0.2340 -0.0462
47374DOD     C385943   0.464  23.944   7.550  0.0733 -0.0060  0.0786
47375DOD     C185944   3.082  22.333  13.795  0.0645  0.2874 -0.0725
47375DOD     C285945   2.797  22.745  13.800 -0.0388 -0.0584 -0.1408
47375DOD     C385946   2.466  22.778  13.465  0.1997  0.0868 -0.1631
47376DOD     C185947   7.380  10.891   7.997  0.0750  0.0993 -0.0430
47376DOD     C285948   7.576  10.533   7.802  0.1338 -0.1749 -0.1242
47376DOD     C385949   7.488  10.246   7.459  0.0102  0.0844 -0.0651
47377DOD     C185950  20.080   5.887  15.225 -0.0371  0.0880  0.0779
47377DOD     C285951  20.492   5.823  15.005 -0.1038  0.0552 -0.1581
47377DOD     C385952  20.883   5.982  14.863 -0.0874  0.1409 -0.0901
47378DOD     C185953  11.533  27.148   5.138  0.0605  0.0187  0.2483
47378DOD     C285954  11.630  26.956   5.534  0.4091  0.2162 -0.0898
47378DOD     C385955  11.474  27.000   5.984 -0.2171  0.1436  0.2743
47379DOD     C185956   4.997  26.535   6.928  0.3012  0.2333  0.0643
47379DOD     C285957   4.573  26.593   6.868  0.1257  0.2021 -0.0519
47379DOD     C385958   4.227  26.777   7.092 -0.2834 -0.0545  0.2333
47380DOD     C185959   2.164  15.843  10.235 -0.1221  0.1308  0.0234
47380DOD     C285960   2.611  15.961  10.402  0.1325 -0.3669 -0.0634
47380DOD     C385961   2.920  15.847  10.746 -0.1410 -0.0195 -0.1213
47381DOD     C185962   6.346  28.247   6.749  0.1215 -0.0248  0.2037
47381DOD     C285963   6.580  28.507   6.425  0.0060 -0.2257 -0.0266
47381DOD     C385964   6.738  28.985   6.402 -0.2577  0.0357  0.1702
47382DOD     C185965  15.157  19.191   9.816  0.0167 -0.0687  0.1116
47382DOD     C285966  14.882  19.263   9.390 -0.1015 -0.0378 -0.2706
47382DOD     C385967  14.684  19.046   9.028 -0.1131 -0.1248 -0.1253
47383DOD     C185968  18.634   8.191   0.583 -0.0661 -0.0318 -0.1072
47383DOD     C285969  18.539   8.646   0.683 -0.2648 -0.3379 -0.0956
47383DOD     C385970  18.168   8.921   0.669 -0.2834 -0.0257  0.0555
47384DOD     C185971  11.589  22.434   4.865 -0.0923  0.3853  0.0422
47384DOD     C285972  11.225  22.309   4.606  0.0950  0.4037 -0.0814
47384DOD     C385973  11.145  22.196   4.158  0.1888  0.2480  0.0985
47385DOD     C185974   4.537  26.684  20.107 -0.1162  0.0952 -0.0441
47385DOD     C285975   4.947  26.798  19.879  0.0976  0.0115 -0.0434
47385DOD     C385976   5.291  26.793  19.574 -0.2401 -0.0553 -0.0635
47386DOD     C185977   4.755  12.051   7.837  0.1026  0.0221 -0.1653
47386DOD     C285978   4.793  11.999   8.280 -0.1763  0.0710 -0.1190
47386DOD     C385979   4.593  12.259   8.663  0.0025 -0.2974 -0.1366
47387DOD     C185980  28.897  11.052  27.050 -0.0779  0.1927 -0.2040
47387DOD     C285981  29.084  11.291  26.750  0.1719 -0.0057  0.2745
47387DOD     C385982  29.070  11.752  26.648 -0.3948 -0.1577  0.2111
47388DOD     C185983  10.294   8.190  24.820 -0.2797 -0.1960 -0.2963
47388DOD     C285984  10.622   8.141  25.080  0.1345  0.0184 -0.1506
47388DOD     C385985  10.970   7.861  25.012  0.1007  0.3069  0.2665
47389DOD     C185986   9.942   5.502  10.515  0.0040  0.2761  0.1056
47389DOD     C285987   9.593   5.636  10.799 -0.0087 -0.0386 -0.0841
47389DOD     C385988   9.068   5.667  10.794  0.1677 -0.1287  0.2049
47390DOD     C185989  23.946   8.652  20.425  0.0828  0.0679  0.2787
47390DOD     C285990  24.168   8.348  20.085 -0.0879 -0.3547  0.0700
47390DOD     C385991  24.363   8.293  19.658 -0.1906 -0.1832  0.0061
47391DOD     C185992  12.425  23.376  14.125  0.4776 -0.0587 -0.0781
47391DOD     C285993  12.387  23.656  14.472  0.0620  0.1959 -0.1315
47391DOD     C385994  12.594  23.734  14.856  0.3583 -0.1804  0.2155
47392DOD     C185995   6.849  25.545  18.410 -0.2113 -0.1128 -0.0192
47392DOD     C285996   7.226  25.582  18.701 -0.4640 -0.1545  0.1363
47392DOD     C385997   7.525  25.312  18.964 -0.2787 -0.1479  0.1579
47393DOD     C185998  19.515  20.723  15.112 -0.1185  0.0944  0.1396
47393DOD     C285999  19.343  20.865  14.687  0.3638 -0.3042  0.1942
47393DOD     C386000  19.612  21.204  14.593  0.1201 -0.0159 -0.3499
47394DOD     C186001  22.815  27.239  11.509 -0.2859 -0.3289 -0.0276
47394DOD     C286002  22.839  27.027  11.157 -0.3720  0.1874 -0.0155
47394DOD     C386003  23.061  26.794  10.840  0.0278 -0.0003  0.3709
47395DOD     C186004   7.732  25.894   1.778  0.0511  0.0083 -0.4188
47395DOD     C286005   7.965  26.155   1.453  0.2135 -0.4963 -0.2120
47395DOD     C386006   8.192  26.231   1.025  0.2750  0.0757 -0.2431
47396DOD     C186007   6.179  27.503   2.605  0.0905 -0.1273 -0.1619
47396DOD     C286008   6.471  27.386   2.997  0.3888 -0.0530  0.1106
47396DOD     C386009   6.612  27.742   3.313  0.3337  0.1354 -0.2898
47397DOD     C186010  27.851   8.781  10.423  0.2068  0.0816  0.2814
47397DOD     C286011  28.118   8.429  10.636  0.0044  0.1615 -0.1712
47397DOD     C386012  28.399   8.407  11.006  0.1014 -0.1286  0.1384
47398DOD     C186013   5.127  21.467  14.560 -0.0144 -0.2262 -0.2875
47398DOD     C286014   5.048  21.902  14.714 -0.4371 -0.2285 -0.0338
47398DOD     C386015   5.059  22.351  14.775  0.0171 -0.3021  0.0279
47399DOD     C186016   2.272  17.229  11.884  0.0705  0.1975  0.4250
47399DOD     C286017   2.085  17.492  11.547 -0.0745  0.1978 -0.2538
47399DOD     C386018   1.815  17.642  11.220  0.0280  0.3148  0.2086
47400DOD     C186019  17.845  17.554  18.646 -0.2007  0.0417  0.3080
47400DOD     C286020  18.213  17.563  18.316  0.3259 -0.1722 -0.2140
47400DOD     C386021  18.637  17.448  18.340 -0.1902  0.2122 -0.0393
47401DOD     C186022   5.905  18.195  21.163 -0.2279  0.0057  0.2188
47401DOD     C286023   5.564  18.267  21.474  0.3377 -0.0640  0.0466
47401DOD     C386024   5.139  18.182  21.608  0.0999  0.0314 -0.1768
47402DOD     C186025  10.436   1.608  13.101 -0.1906  0.1592 -0.0478
47402DOD     C286026  10.838   1.550  13.340  0.2109  0.2463  0.0693
47402DOD     C386027  11.263   1.422  13.212  0.2568  0.1459 -0.1429
47403DOD     C186028  26.649  29.165  13.282 -0.0814  0.1767 -0.0239
47403DOD     C286029  26.935  28.838  13.551 -0.0492 -0.0050 -0.0894
47403DOD     C386030  26.835  28.398  13.482  0.0782  0.1631 -0.2413
47404DOD     C186031  21.634   0.436  17.530  0.1381 -0.1457 -0.1076
47404DOD     C286032  21.605  30.303  17.701 -0.0741  0.0418  0.0372
47404DOD     C386033  21.533  29.830  17.560  0.3720  0.1784 -0.1662
47405DOD     C186034   2.818  22.830   4.065 -0.0036 -0.2938  0.0227
47405DOD     C286035   3.235  22.708   4.248 -0.0385 -0.2773 -0.1943
47405DOD     C386036   3.621  22.876   4.271 -0.2717  0.1659  0.2947
47406DOD     C186037  21.699  12.553  26.521 -0.1510 -0.1663 -0.0277
47406DOD     C286038  21.726  12.261  26.230  0.1082 -0.3032  0.2865
47406DOD     C386039  21.670  11.821  26.131 -0.1892 -0.0830  0.0368
47407DOD     C186040  21.637  27.370   4.013 -0.0847 -0.2697 -0.5200
47407DOD     C286041  21.646  27.510   3.534  0.0264  0.2726  0.2155
47407DOD     C386042  21.545  27.403   3.081  0.0425 -0.0180  0.0306
47408DOD     C186043  26.769  15.212  24.275 -0.1661  0.1441  0.1001
47408DOD     C286044  26.412  15.203  24.523 -0.0172 -0.1725 -0.0791
47408DOD     C386045  25.897  15.136  24.603 -0.1538  0.0898 -0.0442
47409DOD     C186046  27.299  20.174  12.816 -0.2345 -0.1264 -0.0254
47409DOD     C286047  27.026  20.566  12.799  0.1573  0.1769  0.0748
47409DOD     C386048  26.764  20.817  12.465 -0.0591 -0.0302 -0.0610
47410DOD     C186049  27.982  26.034  20.506 -0.0329  0.1203  0.0333
47410DOD     C286050  27.886  25.961  20.082  0.3157  0.1917  0.2542
47410DOD     C386051  27.757  26.094  19.643 -0.0549 -0.0196  0.1088
47411DOD     C186052   4.235  19.634   1.202  0.0471 -0.1954 -0.2973
47411DOD     C286053   4.139  19.989   1.493 -0.0947  0.3756 -0.1119
47411DOD     C386054   4.348  20.371   1.699 -0.3465  0.1087  0.2017
47412DOD     C186055  29.658  28.875  10.928 -0.1630 -0.3448  0.2418
47412DOD     C286056  30.052  28.935  10.704  0.1104  0.0028  0.1091
47412DOD     C386057   0.098  29.276  10.834  0.1224 -0.1346  0.2813
47413DOD     C186058   0.733  17.335  20.725 -0.4016  0.1823  0.3175
47413DOD     C286059   0.517  17.660  20.421  0.2027  0.1769  0.1856
47413DOD     C386060   0.363  18.101  20.342 -0.2106 -0.1103 -0.1252
47414DOD     C186061  21.335   4.081  21.491  0.1198 -0.0031  0.0538
47414DOD     C286062  21.445   4.223  21.862  0.0051 -0.1118  0.3381
47414DOD     C386063  21.835   4.338  22.105  0.2109 -0.0088  0.1402
47415DOD     C186064  27.215   8.299  15.165  0.1269  0.1126  0.0910
47415DOD     C286065  27.088   8.358  15.649 -0.2982  0.0291  0.3337
47415DOD     C386066  27.246   8.506  16.126  0.2646 -0.0984 -0.0434
47416DOD     C186067  17.868  28.238  30.239 -0.0965 -0.0986  0.1196
47416DOD     C286068  17.601  27.865  30.217  0.2771 -0.1409  0.1788
47416DOD     C386069  17.074  27.851  30.243 -0.0888 -0.2292  0.0302
47417DOD     C186070  17.006  17.468  25.744  0.1393 -0.1228 -0.2224
47417DOD     C286071  16.599  17.642  25.831 -0.1643  0.2631 -0.0513
47417DOD     C386072  16.238  17.844  25.706 -0.1343  0.0358 -0.1114
47418DOD     C186073   5.389  21.723   2.937  0.1812  0.0723 -0.1617
47418DOD     C286074   5.724  21.354   3.046 -0.0700 -0.1083 -0.0749
47418DOD     C386075   5.857  21.035   3.360 -0.4702  0.0471 -0.0048
47419DOD     C186076   7.760  24.344   1.798 -0.1470 -0.0348  0.1919
47419DOD     C286077   8.013  24.471   1.451  0.2977 -0.3155 -0.2989
47419DOD     C386078   8.091  24.884   1.121  0.3489 -0.0400  0.1242
47420DOD     C186079   3.534  16.276   9.248 -0.2885  0.0754 -0.0445
47420DOD     C286080   3.154  16.523   9.400  0.0978 -0.2859 -0.0876
47420DOD     C386081   2.706  16.564   9.559  0.2956 -0.2516 -0.0911
47421DOD     C186082   9.371  28.813  24.513 -0.3936 -0.2883 -0.1080
47421DOD     C286083   9.217  28.409  24.290  0.2387  0.4197  0.3490
47421DOD     C386084   9.097  28.322  23.822 -0.1795  0.0848  0.0418
47422DOD     C186085  25.936  25.805   1.854  0.0832 -0.0093 -0.3615
47422DOD     C286086  26.031  26.264   1.849 -0.1606  0.0392 -0.0048
47422DOD     C386087  26.061  26.738   1.730  0.0611  0.0687  0.0403
47423DOD     C186088  16.012   4.273   0.987 -0.1378  0.4670 -0.3207
47423DOD     C286089  15.625   4.095   0.841 -0.0682 -0.2437  0.2739
47423DOD     C386090  15.207   3.985   0.839 -0.0264  0.2176  0.1618
47424DOD     C186091  15.984   7.138  26.334  0.1236 -0.0367 -0.1947
47424DOD     C286092  16.060   7.142  26.816 -0.0871  0.0363 -0.2637
47424DOD     C386093  16.179   6.831  27.189  0.2367 -0.0691  0.2678
47425DOD     C186094  21.829  15.366  13.202 -0.1279 -0.0029  0.0369
47425DOD     C286095  21.446  15.399  12.942  0.0591  0.0669  0.2041
47425DOD     C386096  20.989  15.210  13.000  0.0327  0.0964  0.1019
47426DOD     C186097  14.620  11.996  18.385 -0.0583 -0.1925 -0.5048
47426DOD     C286098  14.817  12.096  18.757 -0.1322  0.2210  0.3096
47426DOD     C386099  15.127  12.419  18.915  0.0760  0.0502  0.0346
47427DOD     C186100  12.638  29.062   9.820  0.2683 -0.3178 -0.0682
47427DOD     C286101  12.774  29.133   9.398 -0.2111 -0.0859  0.0248
47427DOD     C386102  13.035  29.315   9.043 -0.0830 -0.0383  0.1231
47428DOD     C186103  18.813  27.450  24.953 -0.1397 -0.0065  0.0798
47428DOD     C286104  19.117  27.188  25.201 -0.1649  0.0137 -0.1867
47428DOD     C386105  19.436  26.862  25.089  0.0072  0.0531 -0.0481
47429DOD     C186106  14.571  16.469  17.746  0.2123 -0.0281  0.1274
47429DOD     C286107  14.447  16.786  17.507 -0.1304 -0.0914  0.0967
47429DOD     C386108  14.567  17.276  17.477  0.2043 -0.0714  0.0923
47430DOD     C186109   7.457  18.235  24.981  0.0379 -0.0235 -0.2306
47430DOD     C286110   7.380  18.356  25.417 -0.1293 -0.0993 -0.0280
47430DOD     C386111   7.480  18.589  25.841 -0.0142  0.3307  0.0052
47431DOD     C186112  10.973  13.182   8.987 -0.1240  0.1282 -0.0733
47431DOD     C286113  10.737  13.129   8.653 -0.0378  0.1188 -0.0383
47431DOD     C386114  10.406  13.154   8.388  0.0590 -0.1602 -0.0873
47432DOD     C186115  29.100   9.373  17.609 -0.1570 -0.2068  0.2854
47432DOD     C286116  29.013   9.803  17.346  0.1486 -0.2266  0.3730
47432DOD     C386117  28.848  10.260  17.215 -0.2431 -0.0337 -0.0092
47433DOD     C186118  26.993  20.723  30.001  0.2626 -0.2795  0.3265
47433DOD     C286119  26.575  20.822  29.854 -0.2731 -0.2210  0.0200
47433DOD     C386120  26.141  20.939  29.706 -0.1045 -0.1637  0.1857
47434DOD     C186121  27.351  22.777  28.119  0.0282  0.2453 -0.0554
47434DOD     C286122  27.730  22.640  28.339 -0.0501  0.0479  0.1708
47434DOD     C386123  27.920  22.260  28.564  0.0318 -0.0206  0.1196
47435DOD     C186124  20.843   5.367   2.809  0.0496 -0.1225  0.1483
47435DOD     C286125  21.020   5.195   2.385 -0.1571  0.0412 -0.1804
47435DOD     C386126  21.007   5.039   1.912  0.1547 -0.0527 -0.0672
47436DOD     C186127   6.343  11.976  22.198 -0.0640  0.0773 -0.1109
47436DOD     C286128   5.931  12.078  22.051  0.0643  0.1944 -0.0089
47436DOD     C386129   5.573  12.307  22.170 -0.0447  0.1193  0.2935
47437DOD     C186130  12.529   1.148  26.723  0.0247 -0.0430  0.0407
47437DOD     C286131  12.736   0.887  26.410  0.0682  0.0368  0.1502
47437DOD     C386132  12.875   0.437  26.468 -0.0226 -0.0662  0.0073
47438DOD     C186133  20.313  20.713  12.683 -0.0599 -0.0992  0.0369
47438DOD     C286134  20.189  21.151  12.515 -0.3167 -0.0049  0.2001
47438DOD     C386135  20.165  21.597  12.360  0.3124 -0.0002  0.2672
47439DOD     C186136   9.536  16.466   3.289  0.3015 -0.1966  0.0905
47439DOD     C286137   9.090  16.495   3.171 -0.1795 -0.1840 -0.0342
47439DOD     C386138   8.710  16.423   2.989 -0.0540 -0.3106  0.1644
47440DOD     C186139  26.572  14.707  23.781 -0.3637  0.1374  0.1574
47440DOD     C286140  26.370  15.043  24.016 -0.0103  0.1746  0.0833
47440DOD     C386141  25.965  15.243  24.078 -0.1184  0.0024  0.1111
47441DOD     C186142  28.552  11.711  15.034  0.1386  0.4439 -0.1409
47441DOD     C286143  28.827  11.799  15.413 -0.1439  0.2768 -0.0297
47441DOD     C386144  29.238  11.917  15.445 -0.0863  0.1570  0.0741
47442DOD     C186145  27.956   5.344   4.370 -0.2592  0.0691 -0.0422
47442DOD     C286146  27.571   5.154   4.199 -0.1818 -0.2336 -0.1837
47442DOD     C386147  27.450   5.320   3.801  0.0448 -0.1452  0.0702
47443DOD     C186148   0.466  13.693  15.616  0.0491  0.1869 -0.0109
47443DOD     C286149   0.144  13.373  15.669  0.0823 -0.3010  0.4049
47443DOD     C386150  30.113  13.099  15.554  0.1185  0.0004  0.3496
47444DOD     C186151   6.213   3.515  17.996 -0.0980  0.1529  0.0841
47444DOD     C286152   5.770   3.293  18.053  0.0554 -0.0120  0.0751
47444DOD     C386153   5.415   2.974  18.028 -0.1497 -0.0172 -0.1612
47445DOD     C186154  10.246   4.996  15.049 -0.0350 -0.1193  0.1866
47445DOD     C286155  10.295   4.535  14.966 -0.1355 -0.1004  0.1093
47445DOD     C386156  10.367   4.207  15.255 -0.0097  0.1831  0.1485
47446DOD     C186157  25.444  13.708  28.671 -0.1828  0.3244 -0.3277
47446DOD     C286158  25.761  13.513  28.922  0.0515 -0.0556  0.0310
47446DOD     C386159  26.146  13.628  29.057  0.0432  0.4775  0.2950
47447DOD     C186160  27.407   1.189  19.180 -0.0462 -0.0191  0.2077
47447DOD     C286161  27.321   0.884  19.539  0.0035 -0.2908 -0.1185
47447DOD     C386162  27.507   0.695  19.999 -0.1741  0.1511 -0.1293
47448DOD     C186163   5.635   6.093   5.599  0.3019 -0.0389 -0.2660
47448DOD     C286164   5.409   6.383   5.405 -0.1065  0.2845 -0.1559
47448DOD     C386165   5.029   6.393   5.122  0.1547 -0.2051  0.0980
47449DOD     C186166  10.054   2.842  15.986 -0.1823 -0.2594 -0.1152
47449DOD     C286167   9.710   3.020  15.832 -0.1448 -0.0020  0.1306
47449DOD     C386168   9.398   2.868  15.480  0.1066 -0.2736  0.3639
47450DOD     C186169   6.810  17.935  27.233 -0.4475  0.0080 -0.2614
47450DOD     C286170   6.636  18.247  26.920  0.0906  0.1438  0.2841
47450DOD     C386171   6.416  18.448  26.546 -0.0882  0.0374 -0.2074
47451DOD     C186172  13.498  12.473  22.494  0.1563  0.0564 -0.0631
47451DOD     C286173  13.814  12.183  22.450  0.1592  0.1401 -0.0918
47451DOD     C386174  13.781  11.717  22.325  0.1049  0.0179  0.0111
47452DOD     C186175  12.080  28.090  29.661  0.2163  0.0177 -0.0699
47452DOD     C286176  11.807  27.950  29.319 -0.1527  0.1725  0.0607
47452DOD     C386177  11.668  27.982  28.894 -0.1961  0.1581  0.0228
47453DOD     C186178  16.347   5.130  24.206 -0.3358 -0.2026 -0.0471
47453DOD     C286179  15.943   5.411  24.356  0.1541  0.2117 -0.0858
47453DOD     C386180  15.584   5.633  24.166  0.1418 -0.1672  0.0964
47454DOD     C186181  21.727   8.274  17.202 -0.1253  0.0661 -0.1554
47454DOD     C286182  22.113   8.438  17.493  0.1678  0.5107 -0.1243
47454DOD     C386183  22.506   8.564  17.745 -0.0129 -0.0447  0.1428
47455DOD     C186184  22.829  22.737  23.244  0.0940 -0.0784  0.3520
47455DOD     C286185  22.905  23.104  23.511  0.0022 -0.0963 -0.1026
47455DOD     C386186  22.886  23.501  23.656 -0.0725  0.2380 -0.1461
47456DOD     C186187   9.566  19.180  11.367 -0.0153  0.2431 -0.0921
47456DOD     C286188   9.450  19.320  10.892  0.1881 -0.1381 -0.1082
47456DOD     C386189   9.307  19.614  10.490  0.0342 -0.0544  0.3597
47457DOD     C186190  16.414  23.649   1.245  0.0562  0.1419 -0.0759
47457DOD     C286191  16.398  23.293   1.017 -0.1329  0.1393 -0.2689
47457DOD     C386192  16.477  22.926   0.698  0.0501 -0.0982 -0.1894
47458DOD     C186193  24.420   4.253  17.118 -0.0959 -0.2098 -0.1535
47458DOD     C286194  24.039   4.111  17.367  0.0029  0.2879 -0.1465
47458DOD     C386195  23.961   3.651  17.460 -0.0165  0.2621  0.2381
47459DOD     C186196  13.093   1.921  11.768 -0.1884  0.1608 -0.1527
47459DOD     C286197  12.810   2.089  12.090 -0.0521 -0.0605  0.0545
47459DOD     C386198  12.671   2.097  12.585 -0.2624  0.0157  0.0744
47460DOD     C186199  18.157  25.394  10.831  0.0197  0.2540  0.0227
47460DOD     C286200  18.203  25.786  11.081  0.0492  0.1009 -0.1500
47460DOD     C386201  18.500  26.203  10.957  0.1462 -0.2779 -0.0482
47461DOD     C186202   6.120  19.661  15.337 -0.1912 -0.3005  0.1248
47461DOD     C286203   6.578  19.797  15.420 -0.2050  0.1254  0.4617
47461DOD     C386204   6.865  20.076  15.639 -0.1724 -0.0742  0.1193
47462DOD     C186205  19.897   4.816  25.321  0.1611 -0.2183  0.1042
47462DOD     C286206  19.814   5.236  25.579  0.0850 -0.0069 -0.0175
47462DOD     C386207  19.689   5.210  26.042 -0.2955 -0.3580 -0.0079
47463DOD     C186208  10.824   2.723   2.000  0.3964 -0.2928 -0.0883
47463DOD     C286209  11.165   2.813   2.251  0.1148 -0.2885  0.1887
47463DOD     C386210  11.309   2.827   2.682 -0.0496  0.0961  0.4435
47464DOD     C186211  15.038  12.936  29.333 -0.2620  0.4710 -0.3928
47464DOD     C286212  14.883  13.342  29.166  0.0752 -0.1995 -0.1156
47464DOD     C386213  14.659  13.552  28.840 -0.0233  0.0067 -0.2728
47465DOD     C186214  26.986  14.942  23.545  0.1603  0.1695 -0.1045
47465DOD     C286215  26.918  15.355  23.717 -0.1053  0.2310  0.2507
47465DOD     C386216  26.938  15.784  23.768 -0.1956 -0.0854 -0.1660
47466DOD     C186217  14.059   2.648   3.683 -0.3252  0.2574 -0.0863
47466DOD     C286218  14.254   2.160   3.794 -0.0485 -0.1436  0.3035
47466DOD     C386219  14.254   1.770   4.072 -0.0828 -0.1310 -0.0433
47467DOD     C186220  23.777   1.700  28.880  0.0008 -0.1032  0.2959
47467DOD     C286221  23.739   1.930  28.493  0.2251 -0.1629 -0.1250
47467DOD     C386222  24.030   2.077  28.144 -0.1817 -0.0763  0.1855
47468DOD     C186223   6.603  13.684  14.589 -0.1522  0.0855  0.0673
47468DOD     C286224   6.551  13.781  14.134  0.2158 -0.1762  0.0166
47468DOD     C386225   6.296  13.803  13.730 -0.5196  0.1430  0.0554
47469DOD     C186226   9.242  20.287  13.365 -0.1636  0.0975  0.1021
47469DOD     C286227   9.422  20.085  13.002 -0.2124  0.4019 -0.3709
47469DOD     C386228   9.478  19.634  12.930  0.1246  0.2816 -0.0943
47470DOD     C186229   7.979  15.384  13.613 -0.0869  0.1915  0.1876
47470DOD     C286230   7.788  15.796  13.303 -0.0185 -0.2223 -0.2624
47470DOD     C386231   7.562  15.918  12.928 -0.1302 -0.0395  0.0329
47471DOD     C186232  15.046  27.769  29.740 -0.0168 -0.2507 -0.0020
47471DOD     C286233  15.383  27.496  29.726  0.4137  0.2593 -0.4439
47471DOD     C386234  15.637  27.119  29.717  0.0440 -0.4052 -0.1862
47472DOD     C186235  30.080  14.473   9.357  0.0631  0.3351 -0.0789
47472DOD     C286236  29.938  14.014   9.437  0.1795  0.0646 -0.0194
47472DOD     C386237  30.040  13.575   9.578 -0.0823  0.2779 -0.3623
47473DOD     C186238  20.088  15.645  11.665 -0.1080  0.2117  0.1030
47473DOD     C286239  20.191  15.229  11.386  0.0183 -0.0756  0.1012
47473DOD     C386240  20.445  14.922  11.210  0.1154  0.1056 -0.0478
47474DOD     C186241  15.215  17.750  19.194 -0.1580  0.2239  0.1522
47474DOD     C286242  15.094  17.713  19.644  0.0020  0.3460 -0.1825
47474DOD     C386243  14.990  17.422  19.956 -0.0162  0.0684 -0.0070
47475DOD     C186244  12.298  15.089   2.119  0.3071  0.0427 -0.1680
47475DOD     C286245  12.271  14.712   2.447 -0.0917  0.1883 -0.0597
47475DOD     C386246  12.301  14.408   2.746 -0.4022  0.0715  0.3633
47476DOD     C186247  21.670  21.078  27.068  0.2511  0.4299  0.0157
47476DOD     C286248  21.863  20.888  26.704 -0.1210  0.0849  0.1036
47476DOD     C386249  22.268  20.819  26.375 -0.1744 -0.2930 -0.2106
47477DOD     C186250  22.825  24.454   2.961 -0.4181 -0.2113  0.2584
47477DOD     C286251  22.443  24.750   2.983 -0.0317  0.3301  0.0641
47477DOD     C386252  22.405  25.172   3.308  0.0154 -0.0734 -0.2489
47478DOD     C186253   4.833   9.636  19.319 -0.0102  0.1243  0.0342
47478DOD     C286254   5.319   9.550  19.273  0.1945  0.0087 -0.1424
47478DOD     C386255   5.713   9.331  19.453  0.0112 -0.3862 -0.3163
47479DOD     C186256  29.381  15.640  13.571 -0.0064  0.0441  0.1364
47479DOD     C286257  29.491  15.302  13.909  0.0110 -0.1269  0.4151
47479DOD     C386258  29.740  15.375  14.334  0.0175  0.1045 -0.0809
47480DOD     C186259   2.214   3.003  10.094  0.1167 -0.0269 -0.0212
47480DOD     C286260   2.308   3.474  10.291 -0.0412 -0.0187 -0.2809
47480DOD     C386261   2.222   3.764  10.655 -0.2095 -0.1616  0.0572
47481DOD     C186262   5.119  26.219  27.883  0.2732  0.0495 -0.0128
47481DOD     C286263   4.739  26.246  28.140  0.1098 -0.2993  0.1754
47481DOD     C386264   4.534  25.955  28.420  0.4018  0.2900 -0.1758
47482DOD     C186265  30.283  22.869  15.126  0.1849 -0.0517 -0.0563
47482DOD     C286266  30.341  22.756  14.639  0.2119  0.1013  0.3231
47482DOD     C386267  30.040  22.666  14.241  0.2461 -0.1970 -0.0558
47483DOD     C186268  25.558  16.582  15.077 -0.0250  0.1528  0.0201
47483DOD     C286269  25.371  16.571  15.540 -0.0465  0.5203  0.0349
47483DOD     C386270  25.377  16.565  16.028 -0.0217  0.1199 -0.1092
47484DOD     C186271   4.516  25.037  13.717  0.3631 -0.0617 -0.0606
47484DOD     C286272   4.066  25.234  13.766 -0.1643 -0.1352  0.0360
47484DOD     C386273   3.731  25.596  13.837  0.1122  0.2314 -0.1499
47485DOD     C186274  21.729  29.511  17.924  0.1814  0.1441 -0.0919
47485DOD     C286275  21.881  29.775  18.304 -0.1194 -0.1013  0.3173
47485DOD     C386276  21.900  29.980  18.765 -0.1593  0.0535 -0.0444
47486DOD     C186277  11.497  27.826  14.430 -0.2791  0.1441 -0.0056
47486DOD     C286278  11.352  27.657  14.055  0.3783 -0.1335  0.0216
47486DOD     C386279  11.246  27.267  13.781  0.1056 -0.1389 -0.2603
47487DOD     C186280  21.134  27.813  29.564  0.2509 -0.2790 -0.0691
47487DOD     C286281  21.064  27.798  29.124  0.1873  0.0291 -0.0878
47487DOD     C386282  20.769  27.831  28.744 -0.0022 -0.0137 -0.1038
47488DOD     C186283  24.770  16.725  10.977 -0.0302  0.1235 -0.1831
47488DOD     C286284  24.498  16.565  10.647 -0.1044 -0.0248 -0.0093
47488DOD     C386285  24.163  16.288  10.795 -0.1976 -0.0733 -0.1348
47489DOD     C186286  13.532  23.645  26.789 -0.0702  0.0825  0.0310
47489DOD     C286287  13.139  23.950  26.766 -0.0340  0.0312 -0.3981
47489DOD     C386288  13.109  24.291  26.504 -0.2026 -0.0842 -0.0017
47490DOD     C186289  19.319  27.554  28.925 -0.3118 -0.2017 -0.1502
47490DOD     C286290  19.684  27.810  28.963  0.0939  0.0983  0.0718
47490DOD     C386291  19.914  28.193  29.001 -0.2639  0.1378  0.2020
47491DOD     C186292  22.913  29.749  20.586  0.0454  0.1538 -0.1069
47491DOD     C286293  23.296  29.927  20.426  0.0080  0.1614 -0.1971
47491DOD     C386294  23.718  30.066  20.571 -0.1748 -0.3152  0.0303
47492DOD     C186295   0.647  18.452   5.974 -0.1643 -0.0905  0.2433
47492DOD     C286296   0.939  18.126   5.802  0.0665 -0.2864  0.1682
47492DOD     C386297   0.877  17.673   5.742  0.1052 -0.3851 -0.1726
47493DOD     C186298  13.485  27.924  28.808  0.2185 -0.0362  0.1354
47493DOD     C286299  13.444  27.832  29.231 -0.1742  0.2592 -0.0005
47493DOD     C386300  13.098  27.817  29.563 -0.1249  0.1856 -0.0758
47494DOD     C186301  13.792  29.053  29.868  0.0865 -0.1610  0.0997
47494DOD     C286302  13.449  29.247  29.735 -0.1740 -0.0726  0.1243
47494DOD     C386303  13.031  29.273  29.662 -0.0516 -0.2344  0.0553
47495DOD     C186304  24.597   3.678   1.366 -0.2054 -0.1807  0.1695
47495DOD     C286305  24.945   3.837   1.069 -0.1194  0.1548 -0.1363
47495DOD     C386306  25.277   4.023   0.843 -0.0185 -0.1221  0.1355
47496DOD     C186307   3.960   1.994   6.988  0.0354 -0.4846 -0.2082
47496DOD     C286308   3.748   1.661   6.700  0.1488 -0.1954 -0.1337
47496DOD     C386309   3.736   1.298   6.406  0.0605 -0.0109 -0.0505
47497DOD     C186310  19.098  22.253  12.391  0.2548 -0.0858  0.0029
47497DOD     C286311  19.260  22.121  11.989  0.0281  0.4478 -0.3367
47497DOD     C386312  19.230  21.946  11.599  0.1458  0.0483  0.2252
47498DOD     C186313   5.463  10.565  29.626  0.0738 -0.2241  0.1626
47498DOD     C286314   5.289  10.968  29.648  0.2017 -0.0162  0.3327
47498DOD     C386315   4.957  11.262  29.880 -0.0027  0.3584  0.2141
47499DOD     C186316   0.795  21.509   8.579 -0.2174 -0.1836  0.0143
47499DOD     C286317   0.355  21.564   8.507  0.2577 -0.1762  0.1441
47499DOD     C386318  30.263  21.314   8.446  0.1322 -0.2954 -0.0846
47500DOD     C186319  14.816  10.719  12.195 -0.2428 -0.4055  0.4287
47500DOD     C286320  14.794  11.208  12.323 -0.1671 -0.1134  0.3423
47500DOD     C386321  14.516  11.609  12.305 -0.1536 -0.0255  0.2166
47501DOD     C186322   4.906  22.653  27.167 -0.0564  0.2482  0.1315
47501DOD     C286323   4.892  22.581  26.709  0.1383  0.2842 -0.0760
47501DOD     C386324   4.598  22.397  26.397 -0.3868 -0.0222  0.0160
47502DOD     C186325  12.500  10.202  26.701  0.0218  0.1186 -0.1140
47502DOD     C286326  12.279  10.456  26.904  0.0980 -0.3442 -0.1837
47502DOD     C386327  11.823  10.638  26.934  0.3134  0.0082  0.2360
47503DOD     C186328   3.650  12.866  22.055 -0.0129  0.0028 -0.1340
47503DOD     C286329   3.785  12.484  22.381  0.1008 -0.2579 -0.0972
47503DOD     C386330   3.660  12.097  22.457 -0.3038  0.0801 -0.4345
47504DOD     C186331   0.957   3.012   3.509 -0.1072 -0.0988 -0.1883
47504DOD     C286332   0.553   2.806   3.452  0.2456  0.2407 -0.1817
47504DOD     C386333   0.130   2.592   3.307  0.2409 -0.1170  0.2577
47505DOD     C186334  19.465  11.003   0.355 -0.3565  0.1083  0.1631
47505DOD     C286335  19.685  10.821   0.015 -0.3017 -0.2488 -0.3339
47505DOD     C386336  20.023  10.542  30.154  0.0406 -0.0914  0.0228
47506DOD     C186337   3.220  30.214  10.064  0.0059  0.1841 -0.1135
47506DOD     C286338   3.255   0.250  10.353 -0.1603  0.0740  0.0041
47506DOD     C386339   3.415   0.655  10.464  0.0197 -0.0945 -0.1213
47507DOD     C186340  20.037  12.681  21.272 -0.3465  0.2392  0.2331
47507DOD     C286341  20.336  12.701  20.949 -0.1690  0.0010 -0.1976
47507DOD     C386342  20.495  12.745  20.562 -0.0045 -0.0911  0.2443
47508DOD     C186343   7.993  10.193  24.652 -0.3833  0.1156  0.0636
47508DOD     C286344   8.376   9.913  24.531 -0.0676  0.0838 -0.1607
47508DOD     C386345   8.759   9.693  24.497  0.1015 -0.1268 -0.0622
47509DOD     C186346   8.314  14.854  16.394 -0.0831 -0.0200 -0.0488
47509DOD     C286347   8.583  15.157  16.551 -0.3051 -0.1077 -0.0705
47509DOD     C386348   8.538  15.625  16.349  0.0308 -0.1256  0.2791
47510DOD     C186349   5.154  15.500  26.347  0.1174  0.0883 -0.0753
47510DOD     C286350   5.586  15.520  26.447  0.0113 -0.1874 -0.1051
47510DOD     C386351   5.932  15.331  26.662  0.1498 -0.0219  0.1266
47511DOD     C186352  11.213   9.077  16.999 -0.0869  0.0376 -0.1550
47511DOD     C286353  10.847   9.269  16.914  0.0029  0.0501  0.3408
47511DOD     C386354  10.365   9.230  16.946 -0.0766  0.1981 -0.3164
47512DOD     C186355  10.273  25.788  14.201 -0.1510  0.2039  0.2412
47512DOD     C286356  10.047  25.523  13.883 -0.1120 -0.0390  0.2343
47512DOD     C386357   9.774  25.154  13.945 -0.3127  0.1014  0.2026
47513DOD     C186358   6.254  28.287  14.473 -0.0940 -0.0334 -0.2898
47513DOD     C286359   5.888  28.068  14.264  0.0267  0.0670 -0.0979
47513DOD     C386360   5.463  27.947  14.236  0.2571 -0.1132  0.1296
47514DOD     C186361   7.692  23.842  10.725 -0.1779 -0.0775 -0.1635
47514DOD     C286362   7.758  24.148  10.372 -0.1298 -0.1044  0.0718
47514DOD     C386363   8.106  24.313  10.115  0.1347  0.1764  0.0582
47515DOD     C186364  17.416  29.160   0.414 -0.0206  0.0909  0.0983
47515DOD     C286365  17.237  28.734   0.276  0.2973  0.0729  0.1704
47515DOD     C386366  17.383  28.335   0.103  0.0275 -0.0496 -0.0328
47516DOD     C186367   1.906  24.779  24.187  0.1100 -0.0581 -0.1730
47516DOD     C286368   2.123  24.752  24.619  0.0409 -0.1593  0.0355
47516DOD     C386369   2.210  24.532  25.017  0.1759 -0.2741 -0.0991
47517DOD     C186370  22.210   5.421  17.367  0.0171  0.0268 -0.0903
47517DOD     C286371  22.655   5.303  17.253 -0.1035 -0.0457  0.1315
47517DOD     C386372  23.111   5.299  17.286  0.1307  0.0109  0.0255
47518DOD     C186373  16.592   7.042  21.367  0.1199 -0.3163  0.1146
47518DOD     C286374  16.922   6.827  21.230 -0.0877  0.1644  0.0283
47518DOD     C386375  16.993   6.682  20.788  0.2449  0.0175 -0.0549
47519DOD     C186376  28.109   5.709   1.882  0.0853 -0.0893  0.3159
47519DOD     C286377  28.557   5.488   1.714  0.5094  0.0646 -0.2019
47519DOD     C386378  28.994   5.341   1.916  0.5415  0.0381  0.0323
47520DOD     C186379  25.025   5.857  12.379  0.2910 -0.0786 -0.0250
47520DOD     C286380  25.334   5.762  12.802  0.1570  0.1138  0.1909
47520DOD     C386381  25.720   5.547  12.962  0.1459 -0.0900 -0.2000
47521DOD     C186382   8.348   6.688  29.760 -0.3156  0.0045 -0.4033
47521DOD     C286383   7.958   6.690  29.613  0.0774  0.0953  0.0921
47521DOD     C386384   7.750   6.887  29.224  0.0783  0.2625  0.0268
47522DOD     C186385   5.648  16.942  28.634 -0.1589  0.4848  0.2124
47522DOD     C286386   5.964  17.177  28.805 -0.4142  0.1826 -0.0322
47522DOD     C386387   6.097  17.568  28.995 -0.1156 -0.1251 -0.0339
47523DOD     C186388  17.711   7.034   3.098  0.2861  0.0189  0.2071
47523DOD     C286389  17.339   7.133   2.844 -0.0229 -0.0184 -0.0350
47523DOD     C386390  17.372   7.185   2.410  0.0710 -0.2327  0.3189
47524DOD     C186391   6.189  26.463   5.244  0.2967  0.0804 -0.1289
47524DOD     C286392   5.918  26.347   4.849  0.0731  0.2295  0.1317
47524DOD     C386393   5.519  26.181   4.688 -0.0386  0.0895  0.4182
47525DOD     C186394   2.915  24.550  15.019 -0.2111 -0.1424  0.0540
47525DOD     C286395   3.053  24.858  15.293  0.0882 -0.2244  0.0450
47525DOD     C386396   3.204  25.339  15.343  0.1823  0.1936 -0.3988
47526DOD     C186397  14.969   3.729   5.263 -0.4063  0.2507 -0.0177
47526DOD     C286398  14.923   3.831   5.723 -0.1670  0.0384  0.2669
47526DOD     C386399  14.853   4.225   5.943  0.1374 -0.2045 -0.3857
47527DOD     C186400  25.407  19.036  23.575 -0.3227 -0.2047 -0.0820
47527DOD     C286401  25.058  18.779  23.401 -0.0714  0.3647 -0.1556
47527DOD     C386402  24.807  18.468  23.617  0.1799 -0.1590 -0.0375
47528DOD     C186403  21.160   1.121  21.037  0.1248 -0.1869  0.2967
47528DOD     C286404  21.177   1.550  20.738  0.0523 -0.1941 -0.0388
47528DOD     C386405  20.938   1.747  20.468  0.1643 -0.0944  0.0663
47529DOD     C186406  19.744   7.119  17.308 -0.2406  0.0237  0.4511
47529DOD     C286407  19.308   7.110  17.453 -0.0681 -0.1610  0.1070
47529DOD     C386408  18.869   7.047  17.310  0.0473  0.1754  0.1908
47530DOD     C186409   2.028  12.393  22.932 -0.0676  0.1765 -0.1705
47530DOD     C286410   1.982  12.051  22.588 -0.3463 -0.2549  0.1119
47530DOD     C386411   1.935  11.733  22.325  0.0979 -0.0012  0.1588
47531DOD     C186412  23.023   2.325  26.437 -0.1817 -0.1420 -0.1872
47531DOD     C286413  23.279   2.318  26.089  0.1193 -0.1496  0.1133
47531DOD     C386414  23.619   2.364  25.768  0.1285  0.1400 -0.0505
47532DOD     C186415  30.200   2.633   7.966 -0.3790 -0.0109  0.0335
47532DOD     C286416   0.124   2.955   7.720  0.0999  0.0826 -0.0596
47532DOD     C386417   0.475   3.266   7.725  0.0564  0.1281  0.1059
47533DOD     C186418  11.038   4.883  10.077  0.0329  0.0716 -0.0020
47533DOD     C286419  11.016   4.831   9.591 -0.0957 -0.2325 -0.1973
47533DOD     C386420  11.150   5.157   9.321 -0.0697 -0.1530  0.3541
47534DOD     C186421  25.387  23.947   6.302  0.0506  0.0882 -0.0402
47534DOD     C286422  24.945  23.940   6.393 -0.1061 -0.1938  0.2453
47534DOD     C386423  24.442  24.111   6.455 -0.0578 -0.0307 -0.3248
47535DOD     C186424  25.131  29.314  17.821 -0.0184 -0.0185 -0.0767
47535DOD     C286425  24.679  29.206  17.800 -0.2645 -0.1865  0.2407
47535DOD     C386426  24.372  28.937  17.542 -0.1897 -0.2560 -0.3898
47536DOD     C186427  18.445  28.239  25.099  0.2989  0.0122  0.0654
47536DOD     C286428  18.117  28.024  25.346  0.0199  0.0552  0.1781
47536DOD     C386429  17.897  27.630  25.324  0.2360 -0.1666  0.0755
47537DOD     C186430  27.801  10.501  11.550 -0.2338  0.3705 -0.1182
47537DOD     C286431  27.736  10.684  12.022  0.1159  0.0734 -0.0642
47537DOD     C386432  27.504  10.859  12.369  0.2325  0.1084  0.2422
47538DOD     C186433  29.609  25.118   6.254  0.0590  0.1170  0.2724
47538DOD     C286434  29.230  25.397   6.145  0.2848 -0.1900 -0.0177
47538DOD     C386435  28.784  25.516   6.020  0.2234  0.2345 -0.2608
47539DOD     C186436  12.850   1.571  25.895 -0.2951 -0.1221 -0.0969
47539DOD     C286437  12.858   1.364  26.292 -0.0704 -0.1189 -0.1844
47539DOD     C386438  13.044   1.147  26.672 -0.0018  0.3409 -0.3069
47540DOD     C186439  25.277  21.675  12.556 -0.0695 -0.2183  0.1871
47540DOD     C286440  25.469  21.430  12.204 -0.1479 -0.1793 -0.0257
47540DOD     C386441  25.473  21.464  11.758 -0.1189  0.3066  0.3102
47541DOD     C186442  18.376  22.917   3.348 -0.1311 -0.1635 -0.0006
47541DOD     C286443  18.506  23.041   3.758 -0.3790 -0.0380  0.0986
47541DOD     C386444  18.841  22.926   4.153 -0.1021 -0.2730 -0.1453
47542DOD     C186445  29.407  21.683   5.615 -0.3511  0.2556  0.1206
47542DOD     C286446  29.628  21.670   6.023 -0.1057  0.0671  0.2130
47542DOD     C386447  29.989  21.629   6.392 -0.0138 -0.1146 -0.0606
47543DOD     C186448   5.651   3.270   3.251  0.1104 -0.3235  0.1042
47543DOD     C286449   5.329   3.566   3.030 -0.0995  0.0291 -0.0927
47543DOD     C386450   5.224   3.735   2.623  0.0609  0.2706 -0.1143
47544DOD     C186451  13.893  15.566  23.510  0.0679 -0.0300 -0.0971
47544DOD     C286452  14.035  15.261  23.146  0.1783 -0.3583 -0.3761
47544DOD     C386453  14.420  15.070  22.928 -0.3405  0.0617  0.0225
47545DOD     C186454  20.533  27.377   5.757  0.5015 -0.0606  0.1700
47545DOD     C286455  20.279  27.758   5.909 -0.1037  0.2732 -0.2244
47545DOD     C386456  19.906  27.819   6.117 -0.1242  0.0457 -0.0564
47546DOD     C186457  15.836   0.936  28.556  0.1195 -0.4110  0.1271
47546DOD     C286458  16.299   0.973  28.456 -0.0419 -0.1442 -0.0021
47546DOD     C386459  16.597   1.065  28.151  0.1495 -0.1283  0.3342
47547DOD     C186460  21.624  30.339  28.701  0.1767  0.0457  0.1107
47547DOD     C286461  21.598   0.517  28.785  0.1404  0.4077  0.0039
47547DOD     C386462  21.609   0.824  29.088 -0.3396  0.1400 -0.4611
47548DOD     C186463   1.668  15.621  20.890  0.2754 -0.4170  0.2849
47548DOD     C286464   1.694  15.812  21.333  0.1801  0.0033  0.1582
47548DOD     C386465   1.975  15.961  21.686 -0.1687  0.0085 -0.1526
47549DOD     C186466  21.256  13.361   6.368 -0.3125  0.3704 -0.0560
47549DOD     C286467  21.008  13.112   6.624  0.2056 -0.3456  0.1830
47549DOD     C386468  21.050  13.257   7.081  0.2349 -0.1478  0.0206
47550DOD     C186469  22.413  23.272  22.264  0.4481  0.0813  0.3146
47550DOD     C286470  22.394  23.724  22.444 -0.2169 -0.1323  0.1102
47550DOD     C386471  22.553  23.900  22.835  0.2142  0.1834 -0.0691
47551DOD     C186472  11.997   2.282   6.953  0.1048 -0.0847  0.2737
47551DOD     C286473  11.529   2.149   7.045 -0.2694  0.0469  0.1453
47551DOD     C386474  11.142   1.984   7.024  0.3277  0.3924  0.3162
47552DOD     C186475  18.485  20.714  10.393 -0.1769 -0.0489 -0.1500
47552DOD     C286476  18.251  20.803  10.781  0.0143 -0.1190  0.1625
47552DOD     C386477  17.815  20.659  10.835  0.0028  0.0133 -0.2579
47553DOD     C186478  11.576  27.489  11.465  0.1114  0.4040  0.0990
47553DOD     C286479  11.278  27.671  11.705  0.2236 -0.0388  0.2001
47553DOD     C386480  10.855  27.653  11.894  0.1365 -0.1727 -0.3349
47554DOD     C186481   2.845  13.670  29.906 -0.1375 -0.1567 -0.2848
47554DOD     C286482   3.121  13.322  29.908 -0.1875  0.3961  0.0064
47554DOD     C386483   3.580  13.271  29.815 -0.2397  0.0543  0.0509
47555DOD     C186484   0.825  24.716  28.145 -0.3241  0.0408  0.0382
47555DOD     C286485   0.771  24.870  27.631 -0.0928 -0.1899  0.0731
47555DOD     C386486   0.924  24.815  27.205 -0.2003 -0.0960  0.4443
47556DOD     C186487   6.479  16.263  16.899 -0.0157 -0.0171  0.0711
47556DOD     C286488   6.177  16.455  16.609  0.0124  0.1730  0.1407
47556DOD     C386489   5.909  16.624  16.299 -0.2413 -0.2784  0.2053
47557DOD     C186490   4.246   2.985  26.370 -0.0353 -0.0201 -0.0210
47557DOD     C286491   3.797   2.889  26.552 -0.1153  0.0816  0.2146
47557DOD     C386492   3.458   2.760  26.880 -0.0502  0.0181 -0.1229
47558DOD     C186493   2.615   5.640   2.866  0.0268  0.0593 -0.1615
47558DOD     C286494   2.258   5.902   2.639 -0.0447  0.2453 -0.2290
47558DOD     C386495   1.875   5.939   2.333 -0.2190  0.2239 -0.2144
47559DOD     C186496  21.032  20.479  12.394  0.2371  0.2159 -0.1176
47559DOD     C286497  21.110  20.192  12.746 -0.0568 -0.0068  0.2286
47559DOD     C386498  20.966  19.754  12.865  0.0364 -0.1739 -0.1853
47560DOD     C186499   6.215   2.057   9.765  0.0151 -0.0253  0.1886
47560DOD     C286500   6.314   2.233   9.339  0.0637  0.1669  0.0269
47560DOD     C386501   6.109   2.495   8.963  0.1677 -0.0117 -0.1388
47561DOD     C186502  10.583   1.489   9.752 -0.2875  0.1909  0.0430
47561DOD     C286503  10.828   1.853   9.849  0.0241 -0.0061 -0.1793
47561DOD     C386504  11.016   2.243   9.942 -0.0421  0.0536  0.1279
47562DOD     C186505  13.976  16.318   4.835  0.2021 -0.1902  0.2251
47562DOD     C286506  13.706  16.482   5.236  0.1715 -0.0266 -0.2639
47562DOD     C386507  13.806  16.377   5.659  0.2537 -0.0609 -0.0657
47563DOD     C186508  17.522  14.463   7.062 -0.2065 -0.1803 -0.1768
47563DOD     C286509  17.711  14.228   6.774 -0.1344 -0.3008  0.1962
47563DOD     C386510  18.130  14.358   6.555 -0.0847 -0.2405 -0.1933
47564DOD     C186511   1.241  20.607   7.429 -0.1632 -0.3556 -0.0723
47564DOD     C286512   1.462  20.809   7.007  0.0189 -0.1344  0.4122
47564DOD     C386513   1.926  21.013   6.904  0.0300  0.1174 -0.0015
47565DOD     C186514  13.835   8.030   7.722 -0.1370  0.0769  0.0998
47565DOD     C286515  14.129   8.404   7.762  0.0078 -0.2085  0.1897
47565DOD     C386516  14.033   8.791   7.972  0.0372 -0.0875 -0.0677
47566DOD     C186517  13.739  11.343  18.082 -0.1393 -0.4345 -0.0228
47566DOD     C286518  13.972  11.098  18.431 -0.0997 -0.0521 -0.1396
47566DOD     C386519  14.077  11.050  18.892  0.2813  0.0778  0.1194
47567DOD     C186520  21.749  21.756  29.767  0.2624 -0.1681 -0.3536
47567DOD     C286521  21.444  22.059  29.667  0.4199  0.2722 -0.0251
47567DOD     C386522  21.173  22.245  29.328  0.1855 -0.1775 -0.2128
47568DOD     C186523   9.576  22.706  13.198 -0.3189  0.0594  0.0064
47568DOD     C286524   9.146  22.716  13.035  0.2879 -0.0554 -0.1342
47568DOD     C386525   8.816  22.739  12.733  0.1030 -0.1765 -0.0089
47569DOD     C186526  15.432   8.168  27.760 -0.1441 -0.1203  0.2234
47569DOD     C286527  15.845   8.369  27.846 -0.0377 -0.0349  0.1052
47569DOD     C386528  16.068   8.716  28.072  0.0706  0.3583 -0.1448
47570DOD     C186529  12.954   9.736  20.576  0.2996  0.3747  0.0428
47570DOD     C286530  12.995  10.189  20.470  0.0388  0.2078 -0.1409
47570DOD     C386531  13.288  10.562  20.573 -0.0896  0.1851  0.0384
47571DOD     C186532  21.661  18.921   2.403  0.0498 -0.0810 -0.1126
47571DOD     C286533  21.776  18.947   2.861 -0.0356  0.0793  0.2119
47571DOD     C386534  21.857  18.875   3.320  0.0692  0.0895  0.0303
47572DOD     C186535  17.901   5.229   1.315  0.1875 -0.0570  0.1801
47572DOD     C286536  17.897   5.543   1.697 -0.1082 -0.2613  0.0342
47572DOD     C386537  17.863   5.520   2.129 -0.1699  0.0348  0.1139
47573DOD     C186538  26.998   8.646  22.931 -0.1543  0.0762  0.1560
47573DOD     C286539  27.331   8.823  23.157 -0.0710 -0.1545  0.0933
47573DOD     C386540  27.551   9.009  23.537 -0.3588  0.2799 -0.0546
47574DOD     C186541   4.910  23.075   6.757  0.1551 -0.0355 -0.1030
47574DOD     C286542   4.484  23.277   6.661  0.1297  0.1034  0.1923
47574DOD     C386543   4.121  23.509   6.502 -0.0847 -0.1782 -0.2028
47575DOD     C186544   7.179  16.629  21.768  0.0271  0.0231 -0.1382
47575DOD     C286545   6.764  16.663  21.531 -0.4906 -0.0618  0.1229
47575DOD     C386546   6.428  16.584  21.229 -0.0777  0.1436  0.0768
47576DOD     C186547  26.567  25.375  26.507 -0.1939 -0.1215  0.0176
47576DOD     C286548  26.877  25.096  26.311  0.1322  0.0873 -0.1752
47576DOD     C386549  27.323  25.189  26.159  0.0972  0.0810  0.0492
47577DOD     C186550  18.694   2.503   7.191 -0.0090 -0.2590  0.2049
47577DOD     C286551  19.085   2.264   7.355  0.5470 -0.0795 -0.3206
47577DOD     C386552  19.436   2.115   7.120 -0.1397 -0.0099  0.0590
47578DOD     C186553   3.273   9.690  27.628 -0.0754 -0.0140  0.1854
47578DOD     C286554   3.088   9.812  27.208  0.1510 -0.1814  0.2784
47578DOD     C386555   3.078   9.494  26.898  0.1180  0.3271  0.3588
47579DOD     C186556  22.029  17.542   4.934  0.0239 -0.1364 -0.2636
47579DOD     C286557  22.182  17.563   4.475  0.2498 -0.2284 -0.0054
47579DOD     C386558  22.530  17.661   4.140  0.5741 -0.2261 -0.0701
47580DOD     C186559  21.250  23.889   1.571  0.0658  0.1907  0.1748
47580DOD     C286560  20.797  23.821   1.808  0.1171  0.1284  0.0093
47580DOD     C386561  20.491  23.588   2.141  0.2744 -0.4709 -0.1523
47581DOD     C186562  14.744  14.833  27.783 -0.1397  0.0598  0.0080
47581DOD     C286563  14.544  14.880  28.191 -0.3323 -0.1757  0.0426
47581DOD     C386564  14.739  14.830  28.613 -0.2251  0.3516 -0.1848
47582DOD     C186565  13.698   9.576  17.176  0.1197 -0.3033  0.3505
47582DOD     C286566  13.409   9.971  17.099  0.1476  0.2412 -0.3579
47582DOD     C386567  13.241  10.399  17.122 -0.3957  0.1455  0.5037
47583DOD     C186568  16.154   4.423   4.526  0.1825 -0.0750  0.0207
47583DOD     C286569  15.903   4.049   4.449  0.0244 -0.4537  0.0881
47583DOD     C386570  15.646   3.722   4.301  0.0214 -0.0420 -0.2404
47584DOD     C186571  22.134  26.663   7.016 -0.0922 -0.1689 -0.0869
47584DOD     C286572  22.011  26.464   7.408  0.1187  0.0418 -0.3948
47584DOD     C386573  21.985  26.304   7.851 -0.1858 -0.0435 -0.2751
47585DOD     C186574  22.341  23.848   6.969 -0.3834  0.2862  0.3459
47585DOD     C286575  21.995  24.156   6.738 -0.0067  0.1035  0.1690
47585DOD     C386576  21.806  24.584   6.733 -0.0599  0.0724 -0.0813
47586DOD     C186577  27.022   9.600  22.733 -0.0960  0.0559  0.3867
47586DOD     C286578  27.316   9.228  22.807 -0.0456 -0.2765  0.1010
47586DOD     C386579  27.385   8.806  22.598  0.3166 -0.2066 -0.1581
47587DOD     C186580  22.466  28.340  10.555 -0.0420 -0.3990 -0.2595
47587DOD     C286581  22.040  28.258  10.718  0.1892 -0.0196  0.1015
47587DOD     C386582  21.818  27.908  10.586 -0.0512 -0.1594  0.0915
47588DOD     C186583  24.825  27.446  17.432 -0.2323  0.0485  0.0013
47588DOD     C286584  24.460  27.168  17.572 -0.3186  0.0060  0.1457
47588DOD     C386585  24.098  26.937  17.648  0.4106  0.1885 -0.2194
47589DOD     C186586   7.781  11.302   7.318 -0.0074 -0.0010  0.0055
47589DOD     C286587   7.863  11.036   6.960 -0.0174 -0.1908  0.1064
47589DOD     C386588   7.927  10.606   6.675 -0.2634  0.0351  0.1518
47590DOD     C186589  14.110  25.129  24.498  0.1250  0.1558 -0.0331
47590DOD     C286590  13.604  25.141  24.457  0.0311  0.2225  0.2261
47590DOD     C386591  13.247  24.983  24.263 -0.1581 -0.0301 -0.1282
47591DOD     C186592  12.333   5.946   1.944  0.2622  0.3091  0.3460
47591DOD     C286593  12.532   6.192   1.580  0.3110 -0.0339  0.0572
47591DOD     C386594  12.934   6.238   1.304  0.0276 -0.3047  0.0084
47592DOD     C186595   9.904   7.247  23.910  0.3387 -0.0122  0.0797
47592DOD     C286596   9.808   6.940  23.589 -0.0023  0.0317  0.0878
47592DOD     C386597   9.949   6.796  23.156  0.1171 -0.2364  0.1695
47593DOD     C186598  15.610  18.759  13.570 -0.2549  0.0701 -0.0506
47593DOD     C286599  15.742  18.585  13.947 -0.1107  0.0350  0.0290
47593DOD     C386600  15.567  18.341  14.318 -0.0764  0.1791  0.3115
47594DOD     C186601  20.456  11.986  26.417 -0.1381  0.0900  0.3089
47594DOD     C286602  20.320  12.400  26.510  0.0075 -0.0531 -0.1982
47594DOD     C386603  20.305  12.720  26.200 -0.2491 -0.1190  0.0811
47595DOD     C186604   2.937   3.732   7.253 -0.0226  0.2874 -0.1480
47595DOD     C286605   3.108   3.866   7.657 -0.0650  0.1791  0.1725
47595DOD     C386606   3.161   3.567   7.983 -0.0224  0.2422 -0.1104
47596DOD     C186607  10.827  28.870  22.298  0.0225 -0.0357 -0.0290
47596DOD     C286608  10.951  28.650  21.928 -0.1213  0.0283 -0.0703
47596DOD     C386609  11.228  28.348  21.639  0.3071 -0.2056  0.1281
47597DOD     C186610   2.014  24.961  18.110 -0.0358  0.3314 -0.1957
47597DOD     C286611   1.724  25.106  17.738  0.0887  0.1822 -0.0444
47597DOD     C386612   1.314  25.145  17.401 -0.1926 -0.0014  0.2817
47598DOD     C186613   9.767   7.932   3.623 -0.0668  0.1284  0.1868
47598DOD     C286614  10.102   7.815   3.897  0.1546 -0.2082 -0.0121
47598DOD     C386615  10.422   7.784   4.272  0.1462 -0.1009 -0.0204
47599DOD     C186616  14.102  22.682  14.082  0.0415 -0.3322  0.0222
47599DOD     C286617  14.216  22.520  13.633 -0.0381  0.0844  0.1775
47599DOD     C386618  13.966  22.176  13.423  0.0045  0.1348  0.2411
47600DOD     C186619   6.235  15.583  29.925  0.2346 -0.0122 -0.2049
47600DOD     C286620   6.509  15.960  29.998  0.0256 -0.2076 -0.0426
47600DOD     C386621   6.768  16.315  30.146  0.1243 -0.0770  0.2714
47601DOD     C186622  25.957  18.159   1.886  0.2097  0.1075  0.0013
47601DOD     C286623  25.894  17.924   2.308 -0.1075 -0.3332  0.2725
47601DOD     C386624  25.847  17.481   2.452 -0.2072  0.2337  0.1187
47602DOD     C186625  17.260  24.588   5.050  0.0729  0.0277 -0.0174
47602DOD     C286626  16.971  24.894   4.939  0.0015  0.2442 -0.0666
47602DOD     C386627  16.524  24.993   5.090  0.0703  0.0281 -0.0385
47603DOD     C186628  11.496  14.552  24.592 -0.1914  0.1128  0.0780
47603DOD     C286629  11.672  14.593  24.173  0.0567  0.1914 -0.0276
47603DOD     C386630  11.743  14.331  23.759  0.2260  0.1143 -0.1086
47604DOD     C186631  13.570   3.145  23.016  0.3929  0.1653 -0.0947
47604DOD     C286632  13.692   3.006  22.523  0.5277 -0.2266 -0.2583
47604DOD     C386633  13.579   2.951  22.092  0.1079  0.1715 -0.1699
47605DOD     C186634  15.372  27.803   2.977  0.2032  0.0120 -0.0816
47605DOD     C286635  15.575  27.410   2.928 -0.1463 -0.1567 -0.1897
47605DOD     C386636  15.682  26.992   2.986  0.3199 -0.0322  0.2584
47606DOD     C186637  13.114  21.172  27.855  0.1491  0.1299 -0.4892
47606DOD     C286638  13.457  21.272  28.088 -0.0365 -0.1281  0.1096
47606DOD     C386639  13.772  21.630  28.169  0.2278  0.1207  0.3999
47607DOD     C186640   8.382   9.294  19.146  0.1347  0.1176 -0.3298
47607DOD     C286641   8.374   9.521  19.563  0.2582  0.0655  0.2088
47607DOD     C386642   8.500   9.428  19.981 -0.0931  0.2200  0.1058
47608DOD     C186643  16.432  24.765   9.794 -0.1610 -0.1305 -0.2606
47608DOD     C286644  16.259  24.410   9.587 -0.0524 -0.3857 -0.3379
47608DOD     C386645  15.949  24.100   9.425 -0.1205  0.0168  0.0270
47609DOD     C186646  11.409  14.843  21.330  0.0689  0.1444  0.1374
47609DOD     C286647  11.073  15.003  21.035 -0.0533  0.0802  0.1517
47609DOD     C386648  10.817  14.793  20.675  0.1840  0.1766 -0.3026
47610DOD     C186649  22.541  15.356   0.107  0.0742  0.0050  0.0594
47610DOD     C286650  22.481  15.316  29.968 -0.1887 -0.3153 -0.3200
47610DOD     C386651  22.251  15.315  29.582 -0.1203 -0.2892  0.3457
47611DOD     C186652  12.848   3.744   1.448  0.0870 -0.0983 -0.0170
47611DOD     C286653  12.551   3.796   1.083  0.2322 -0.0022 -0.0353
47611DOD     C386654  12.300   3.850   0.705  0.1111  0.1022  0.1728
47612DOD     C186655  12.905  20.894  13.923 -0.1836  0.0667  0.0385
47612DOD     C286656  13.325  20.937  14.098 -0.0728 -0.0521  0.0024
47612DOD     C386657  13.530  21.111  14.472  0.0120 -0.0614 -0.1992
47613DOD     C186658   6.487  21.920   1.239  0.0018 -0.0598  0.0503
47613DOD     C286659   6.662  22.114   0.870 -0.3036  0.1062  0.3320
47613DOD     C386660   6.558  22.300   0.478  0.1643 -0.0216 -0.3303
47614DOD     C186661  21.486  14.253  28.014 -0.0221  0.2425  0.0326
47614DOD     C286662  21.164  13.967  28.168  0.0650  0.1049  0.2044
47614DOD     C386663  20.982  13.542  28.292  0.3384 -0.0724 -0.0983
47615DOD     C186664  19.270  23.471  13.155  0.0289 -0.0497 -0.3872
47615DOD     C286665  19.598  23.465  12.837  0.0662 -0.0635 -0.1289
47615DOD     C386666  19.972  23.538  12.746 -0.0034 -0.1371 -0.1253
47616DOD     C186667  29.880  24.338  17.427  0.5865  0.1102 -0.1193
47616DOD     C286668  29.734  24.074  17.101  0.2398 -0.0383  0.0894
47616DOD     C386669  29.593  23.712  16.804 -0.0570 -0.0717  0.0459
47617DOD     C186670  14.698  18.268  16.947  0.2451  0.0476  0.0900
47617DOD     C286671  14.589  18.620  17.175  0.0813  0.1091 -0.0503
47617DOD     C386672  14.714  18.891  17.561 -0.0590 -0.0025  0.1083
47618DOD     C186673   5.639  11.979  28.419 -0.1077 -0.0229  0.1131
47618DOD     C286674   5.536  12.054  27.947 -0.0055 -0.2066  0.0120
47618DOD     C386675   5.387  11.891  27.523 -0.1148  0.1856  0.0378
47619DOD     C186676  29.737  15.849  17.264  0.2243  0.0676  0.1415
47619DOD     C286677  30.010  15.744  16.895  0.2207  0.1141 -0.2282
47619DOD     C386678   0.019  15.394  17.016 -0.1316 -0.1592  0.1715
47620DOD     C186679  12.110  17.365  16.205  0.1518  0.0972  0.0633
47620DOD     C286680  11.850  17.786  16.237 -0.0730 -0.0089 -0.0589
47620DOD     C386681  11.730  18.266  16.153 -0.2279  0.2125 -0.0312
47621DOD     C186682  23.772  24.861  21.487  0.2845 -0.0398  0.2744
47621DOD     C286683  24.099  24.997  21.174  0.1003  0.0356  0.0560
47621DOD     C386684  24.386  25.174  20.881 -0.0258 -0.3760  0.2553
47622DOD     C186685  24.727  26.556  26.949 -0.1206  0.1969  0.0756
47622DOD     C286686  24.303  26.594  26.714 -0.1249 -0.1190  0.3519
47622DOD     C386687  23.946  26.803  26.494 -0.1420  0.1560 -0.1819
47623DOD     C186688  28.349   2.077  24.515  0.2344 -0.0326  0.1455
47623DOD     C286689  28.427   1.822  24.957  0.1567  0.0229  0.1025
47623DOD     C386690  28.612   2.036  25.307 -0.1439  0.2124  0.2691
47624DOD     C186691  13.642  10.776  13.460  0.0175 -0.5317  0.1831
47624DOD     C286692  13.904  10.989  13.756 -0.0239  0.2115 -0.1932
47624DOD     C386693  14.069  11.337  13.979 -0.0519 -0.2271  0.0994
47625DOD     C186694  26.318  17.460  17.228 -0.1512  0.0681  0.0562
47625DOD     C286695  26.660  17.807  17.125  0.2340  0.4050 -0.0451
47625DOD     C386696  27.037  17.629  16.943 -0.0755 -0.2393  0.0745
47626DOD     C186697   5.483  24.971   1.772  0.1079  0.0033  0.3556
47626DOD     C286698   5.448  24.547   1.930 -0.1363  0.0915  0.2982
47626DOD     C386699   5.655  24.185   1.755  0.0611 -0.1104 -0.0957
47627DOD     C186700  13.148  12.263   3.497  0.0940 -0.1623  0.0532
47627DOD     C286701  13.548  12.101   3.704  0.0053  0.0543  0.2503
47627DOD     C386702  13.957  12.263   3.806  0.2312  0.1890  0.1227
47628DOD     C186703  13.548   2.952  10.208  0.0092  0.1874  0.4246
47628DOD     C286704  14.002   3.090  10.189  0.0269 -0.1486  0.1195
47628DOD     C386705  14.364   3.346  10.101  0.0104 -0.1989 -0.1317
47629DOD     C186706  15.656  26.888  23.688  0.0563 -0.0088 -0.0525
47629DOD     C286707  15.577  26.548  24.063  0.1238  0.0159 -0.0500
47629DOD     C386708  15.541  26.485  24.559 -0.2945  0.0849  0.0607
47630DOD     C186709  15.082  11.549  29.276 -0.0700 -0.0091 -0.0107
47630DOD     C286710  15.386  11.948  29.116 -0.1124  0.2494 -0.2574
47630DOD     C386711  15.752  12.175  29.314 -0.1934 -0.3886 -0.3106
47631DOD     C186712   2.442   9.550  26.205  0.1347 -0.1302  0.3098
47631DOD     C286713   2.114   9.805  25.930 -0.1464 -0.3759  0.1641
47631DOD     C386714   2.197  10.252  25.815  0.0064  0.5000  0.1226
47632DOD     C186715   4.858   7.446  10.650 -0.0444 -0.2467  0.4317
47632DOD     C286716   5.022   7.808  10.486 -0.3328 -0.1049 -0.0513
47632DOD     C386717   5.287   7.957  10.107 -0.0681 -0.0602  0.0805
47633DOD     C186718  12.966  28.027  27.362  0.0866 -0.0189  0.2502
47633DOD     C286719  12.521  28.091  27.221 -0.3574  0.3298 -0.0622
47633DOD     C386720  12.088  27.863  27.189 -0.3477 -0.0650  0.1918
47634DOD     C186721  21.027  20.131  28.440 -0.2702  0.0364 -0.1995
47634DOD     C286722  20.822  19.805  28.308 -0.1605  0.4368  0.1429
47634DOD     C386723  20.463  19.574  28.001  0.1055 -0.1844  0.3023
47635DOD     C186724  10.620   5.115   2.172  0.0469  0.0027 -0.3288
47635DOD     C286725  10.414   5.170   2.575  0.0210  0.2261 -0.0395
47635DOD     C386726  10.179   5.548   2.785 -0.1793  0.0277  0.1235
47636DOD     C186727  21.824  22.334  11.742  0.0408  0.1279 -0.2272
47636DOD     C286728  22.045  22.643  11.495 -0.1309  0.1378 -0.1700
47636DOD     C386729  22.166  23.005  11.252  0.1709  0.0860  0.2049
47637DOD     C186730  24.976   3.758  29.726 -0.0562 -0.0186 -0.2854
47637DOD     C286731  24.681   3.770  29.354 -0.1390 -0.0714  0.3328
47637DOD     C386732  24.433   3.463  29.125 -0.2503 -0.2300 -0.1322
47638DOD     C186733  14.871  27.350   4.890  0.1965 -0.0565  0.1922
47638DOD     C286734  14.534  27.705   4.940 -0.1884 -0.2654  0.1016
47638DOD     C386735  14.109  27.856   4.800  0.3151  0.0777  0.1169
47639DOD     C186736  16.369  22.323  17.556  0.3984 -0.0476 -0.1956
47639DOD     C286737  16.850  22.340  17.628 -0.1418 -0.3112  0.2340
47639DOD     C386738  17.028  22.754  17.681  0.0288 -0.1005 -0.6043
47640DOD     C186739   4.273   8.432  23.383 -0.2383 -0.2440 -0.1040
47640DOD     C286740   4.271   8.329  23.813  0.0163  0.3522 -0.3200
47640DOD     C386741   4.100   8.170  24.197 -0.0643 -0.0042  0.1323
47641DOD     C186742  25.057  14.226  25.628  0.2069  0.1841  0.1226
47641DOD     C286743  25.447  14.094  25.851 -0.1496 -0.4011 -0.1976
47641DOD     C386744  25.819  13.956  25.674 -0.0457  0.1390 -0.0230
47642DOD     C186745   6.088   7.759   4.340  0.0844  0.0149  0.0217
47642DOD     C286746   5.955   7.293   4.432  0.1464 -0.1953 -0.2537
47642DOD     C386747   5.580   6.999   4.481 -0.3246 -0.0710 -0.1004
47643DOD     C186748   9.716  16.513   1.171 -0.4649  0.0931  0.0809
47643DOD     C286749   9.999  16.157   0.996  0.0960  0.0622  0.2177
47643DOD     C386750  10.044  15.754   0.826  0.1238  0.0909 -0.2411
47644DOD     C186751   5.217  23.263  29.510 -0.1210 -0.0489 -0.3133
47644DOD     C286752   4.926  23.366  29.863 -0.1139  0.2299 -0.1052
47644DOD     C386753   4.593  23.522  30.121 -0.0209 -0.2183  0.3595
47645DOD     C186754   4.390   0.029   3.897  0.0308 -0.2575 -0.1083
47645DOD     C286755   4.387   0.286   4.325  0.2508 -0.0369  0.0596
47645DOD     C386756   4.249   0.237   4.741 -0.0161  0.2113 -0.0852
47646DOD     C186757   4.469   8.489  13.993  0.1696 -0.1218 -0.0994
47646DOD     C286758   4.832   8.726  14.018 -0.0982  0.3634  0.1819
47646DOD     C386759   5.140   9.031  13.833  0.1750 -0.0433 -0.0355
47647DOD     C186760  23.772   9.682   9.854  0.0998 -0.0001 -0.1000
47647DOD     C286761  23.533  10.105  10.124 -0.0816 -0.0168 -0.1791
47647DOD     C386762  23.761  10.496  10.255  0.3528 -0.3723 -0.3565
47648DOD     C186763  20.295   6.176  28.212  0.0865  0.0243  0.0155
47648DOD     C286764  20.596   5.774  28.220  0.0571  0.2349  0.0303
47648DOD     C386765  20.489   5.361  28.070  0.0462  0.0876  0.2474
47649DOD     C186766  19.225  24.408  16.792 -0.2601 -0.0155  0.5980
47649DOD     C286767  19.698  24.428  16.922  0.3330 -0.0213  0.3686
47649DOD     C386768  20.151  24.435  16.820  0.2238  0.1596 -0.0738
47650DOD     C186769   4.425   9.755  11.878  0.0014 -0.0785 -0.0221
47650DOD     C286770   4.850   9.936  11.773 -0.1511 -0.2921  0.1663
47650DOD     C386771   5.275   9.927  11.943  0.0478 -0.1385  0.0647
47651DOD     C186772  25.780  14.663  10.629 -0.0442 -0.1993 -0.3318
47651DOD     C286773  25.951  14.835  11.057  0.0933 -0.0006  0.0932
47651DOD     C386774  26.231  14.736  11.407 -0.0169 -0.2419 -0.0468
47652DOD     C186775  28.375  15.395  14.490  0.4173  0.0731 -0.0810
47652DOD     C286776  28.324  15.529  14.965 -0.0758  0.2374  0.1338
47652DOD     C386777  28.024  15.682  15.311  0.0412  0.0914 -0.3534
47653DOD     C186778  20.649  11.876  18.257 -0.0182  0.1838  0.1128
47653DOD     C286779  20.477  11.780  18.701 -0.0425  0.2097 -0.1791
47653DOD     C386780  20.277  11.822  19.071  0.1561  0.0862 -0.0953
47654DOD     C186781   4.570   0.914  10.030 -0.0401 -0.0911  0.2302
47654DOD     C286782   4.281   1.162   9.692 -0.0130  0.0301 -0.2208
47654DOD     C386783   4.135   1.563   9.570  0.2871  0.0788  0.1097
47655DOD     C186784  22.719   4.043   3.793 -0.2795 -0.1728  0.1882
47655DOD     C286785  23.038   4.377   3.923 -0.2504 -0.2393 -0.2926
47655DOD     C386786  23.505   4.479   3.952 -0.2454  0.2020 -0.0779
47656DOD     C186787   7.748   5.116   4.870  0.0911  0.2644  0.0871
47656DOD     C286788   8.206   5.244   5.075 -0.1344  0.1603  0.1884
47656DOD     C386789   8.612   5.503   5.251 -0.2025  0.0139  0.1969
47657DOD     C186790  25.587  28.306  26.757  0.2207  0.0086 -0.3298
47657DOD     C286791  25.474  28.764  26.930  0.1384  0.0028 -0.1596
47657DOD     C386792  25.261  29.058  27.234  0.3434 -0.0661 -0.3592
47658DOD     C186793  11.077  21.906   7.560  0.0823 -0.1285  0.0430
47658DOD     C286794  11.471  21.645   7.481 -0.4924 -0.1671  0.1197
47658DOD     C386795  11.488  21.283   7.879 -0.0121  0.0050 -0.1347
47659DOD     C186796   8.305   1.115  16.703  0.0970  0.5905 -0.0557
47659DOD     C286797   8.523   0.742  16.812  0.2538  0.0311  0.1531
47659DOD     C386798   8.513   0.384  17.109  0.0983  0.1590  0.0287
47660DOD     C186799  16.212  13.340  25.248 -0.1749 -0.4905  0.0507
47660DOD     C286800  16.312  13.225  25.645 -0.1552  0.4956 -0.0352
47660DOD     C386801  16.638  13.337  26.049  0.0348 -0.0469  0.1814
47661DOD     C186802  14.979  18.604  27.999 -0.1084  0.0665  0.3192
47661DOD     C286803  15.357  18.359  28.048  0.1434 -0.0469  0.2090
47661DOD     C386804  15.784  18.083  28.043 -0.0028 -0.5642  0.3348
47662DOD     C186805  21.231  26.207   8.463 -0.3955  0.1693 -0.1179
47662DOD     C286806  21.164  26.624   8.222 -0.1183 -0.0861  0.4580
47662DOD     C386807  21.079  26.990   7.947 -0.0671  0.2058 -0.3629
47663DOD     C186808  19.020   0.554   2.545  0.4002  0.4072 -0.1369
47663DOD     C286809  19.455   0.368   2.431 -0.1345 -0.1614  0.0226
47663DOD     C386810  19.866   0.597   2.375  0.1612  0.3163 -0.0590
47664DOD     C186811  28.107  16.724  26.387  0.1858 -0.1578  0.0699
47664DOD     C286812  27.866  16.880  25.927  0.2845 -0.0579 -0.0983
47664DOD     C386813  27.587  17.212  25.793 -0.0781 -0.0831 -0.1206
47665DOD     C186814   5.064   4.125   0.517 -0.1595 -0.2289  0.1845
47665DOD     C286815   5.203   3.811   0.175  0.0650  0.0417  0.3867
47665DOD     C386816   5.565   3.482   0.074  0.3413 -0.0607 -0.0767
47666DOD     C186817   8.227  29.389   2.428  0.1631 -0.2423  0.3705
47666DOD     C286818   7.818  29.602   2.492  0.1263  0.0658 -0.1576
47666DOD     C386819   7.417  29.800   2.614  0.0570  0.3260 -0.0538
47667DOD     C186820  24.825  17.784  20.952 -0.1792 -0.0579 -0.1734
47667DOD     C286821  25.027  17.431  21.180 -0.2382 -0.0126 -0.2229
47667DOD     C386822  24.994  17.261  21.583  0.0777 -0.2598  0.2263
47668DOD     C186823   7.644  26.509  25.030 -0.0839 -0.0754 -0.2307
47668DOD     C286824   7.758  26.323  25.422  0.0002  0.1479 -0.2433
47668DOD     C386825   7.811  26.053  25.826  0.4004 -0.1581  0.2016
47669DOD     C186826  25.898   2.324   0.695  0.1578 -0.1269 -0.2033
47669DOD     C286827  26.247   2.316   0.430 -0.1034  0.1133  0.0869
47669DOD     C386828  26.712   2.309   0.467  0.3551 -0.1190 -0.0208
47670DOD     C186829  28.588  10.430  27.495 -0.0701 -0.1596  0.0499
47670DOD     C286830  28.497  10.149  27.139 -0.1263  0.3358 -0.4587
47670DOD     C386831  28.301   9.878  26.824  0.1051  0.3067 -0.0283
47671DOD     C186832  19.689  17.096   9.560  0.0195 -0.1103  0.1052
47671DOD     C286833  19.926  17.161  10.002  0.2805 -0.0054 -0.1132
47671DOD     C386834  20.223  16.836  10.276  0.3023  0.1050  0.1601
47672DOD     C186835   6.329   9.372   7.686 -0.0979  0.0466 -0.1660
47672DOD     C286836   6.711   9.611   7.525 -0.3156 -0.0624  0.0732
47672DOD     C386837   7.078   9.520   7.223 -0.0366  0.0482  0.3067
47673DOD     C186838  22.171  29.087   6.462  0.0558 -0.2048 -0.2830
47673DOD     C286839  22.434  29.448   6.608 -0.0334 -0.1667  0.0132
47673DOD     C386840  22.620  29.878   6.609  0.0034  0.3914  0.2413
47674DOD     C186841  17.408   2.110  25.033 -0.2176 -0.1026  0.1858
47674DOD     C286842  17.342   2.016  24.578  0.2218 -0.2753  0.1809
47674DOD     C386843  17.492   1.854  24.150  0.2996  0.0866 -0.3054
47675DOD     C186844   0.259  15.072  14.840 -0.1688 -0.0460 -0.0554
47675DOD     C286845   0.340  15.201  14.425  0.0251 -0.0557  0.1997
47675DOD     C386846   0.451  15.298  13.987  0.1507  0.0736  0.0478
47676DOD     C186847   6.765   1.157  28.262 -0.1352  0.1636  0.2019
47676DOD     C286848   7.174   1.060  28.110  0.2398  0.1283 -0.1253
47676DOD     C386849   7.358   0.840  27.793 -0.0750 -0.0690  0.0859
47677DOD     C186850  19.523  29.715  19.501 -0.1168  0.0399  0.1005
47677DOD     C286851  19.043  29.703  19.277 -0.1773  0.0445 -0.1530
47677DOD     C386852  18.623  29.748  19.078  0.1547  0.0709  0.0553
47678DOD     C186853   8.636  21.303   7.139 -0.2382 -0.0692  0.1560
47678DOD     C286854   8.245  21.305   6.986  0.2039  0.1693  0.0506
47678DOD     C386855   7.864  21.552   6.910  0.0493  0.0193  0.1237
47679DOD     C186856   9.291  22.808   6.111  0.0361 -0.0241  0.1054
47679DOD     C286857   9.174  23.218   6.221  0.1999  0.0821  0.0590
47679DOD     C386858   9.106  23.609   6.020 -0.0373 -0.0374  0.1416
47680DOD     C186859  13.592   7.134   3.314 -0.3006  0.1916 -0.1245
47680DOD     C286860  13.508   6.904   2.925 -0.0094 -0.1895  0.0336
47680DOD     C386861  13.632   6.566   2.663  0.5538  0.1756 -0.2582
47681DOD     C186862  18.334   7.771   4.272  0.4669  0.2691  0.0890
47681DOD     C286863  18.654   7.745   4.564  0.1285 -0.0998  0.1923
47681DOD     C386864  18.966   7.866   4.843 -0.1398  0.0400 -0.2553
47682DOD     C186865   7.568  24.769  29.908 -0.0332  0.0205  0.4427
47682DOD     C286866   7.342  25.038  29.576  0.3380 -0.3116  0.1058
47682DOD     C386867   7.426  25.343  29.193  0.1856 -0.3050  0.0528
47683DOD     C186868   5.891  23.134   1.303 -0.0378  0.0644 -0.3387
47683DOD     C286869   5.925  22.717   1.394  0.0641 -0.2670  0.1226
47683DOD     C386870   5.777  22.322   1.270  0.1282  0.1851 -0.0235
47684DOD     C186871  23.490  14.060   7.512  0.0041  0.1051  0.0011
47684DOD     C286872  23.214  13.733   7.733  0.2217 -0.2474 -0.1485
47684DOD     C386873  22.779  13.793   7.939  0.0501  0.3232  0.0827
47685DOD     C186874  27.247   8.517   6.289  0.1508  0.0627  0.0638
47685DOD     C286875  27.317   8.042   6.206 -0.3153 -0.0643  0.2135
47685DOD     C386876  27.339   7.592   6.037  0.0103  0.0789  0.1060
47686DOD     C186877  19.160  29.496  15.849 -0.1800  0.3213 -0.3048
47686DOD     C286878  19.333  29.544  15.416  0.1871  0.4308  0.0340
47686DOD     C386879  19.553  29.319  15.082  0.2332 -0.0593  0.1977
47687DOD     C186880   3.532  18.912  17.824 -0.2166  0.0392  0.2859
47687DOD     C286881   3.341  18.937  17.426  0.0710  0.0407  0.0458
47687DOD     C386882   3.357  19.246  17.096 -0.1769  0.0644  0.1270
47688DOD     C186883   6.857  17.242   4.853  0.2402  0.5207 -0.0062
47688DOD     C286884   7.017  17.557   5.087 -0.0392 -0.0299 -0.1307
47688DOD     C386885   7.272  17.868   5.016  0.2262 -0.0006 -0.0322
47689DOD     C186886   6.730   2.525   2.584 -0.2747  0.0409 -0.1272
47689DOD     C286887   6.810   2.811   2.207  0.1097  0.1874 -0.0008
47689DOD     C386888   6.779   3.134   1.876  0.0981  0.0733  0.1628
47690DOD     C186889  17.967   2.277  12.915  0.2149  0.1640 -0.5007
47690DOD     C286890  18.412   2.243  12.716  0.1226 -0.3162 -0.2625
47690DOD     C386891  18.758   2.522  12.850  0.3654 -0.0950 -0.1720
47691DOD     C186892   1.520   1.516  11.916 -0.1658 -0.0379  0.0112
47691DOD     C286893   1.221   1.436  12.258  0.0036  0.2178 -0.1688
47691DOD     C386894   0.909   1.215  12.530 -0.0454 -0.2599  0.3178
47692DOD     C186895   4.899   4.722  16.782 -0.3542  0.2606 -0.1524
47692DOD     C286896   5.164   5.085  16.757 -0.0982  0.5143  0.1649
47692DOD     C386897   5.185   5.515  16.933 -0.0153 -0.1448  0.1300
47693DOD     C186898  10.996  28.920   0.616  0.0846  0.1001 -0.5635
47693DOD     C286899  11.229  29.385   0.629  0.3865 -0.1685 -0.1003
47693DOD     C386900  11.186  29.840   0.821  0.0890 -0.0276  0.0667
47694DOD     C186901  26.947   1.810   0.507 -0.2938 -0.1574 -0.2085
47694DOD     C286902  26.937   1.680   0.076  0.0497  0.2073 -0.3254
47694DOD     C386903  27.231   1.517  30.089  0.0974  0.2629  0.0760
47695DOD     C186904   5.158   4.877   2.589  0.1202  0.0071  0.1198
47695DOD     C286905   4.779   4.783   2.843 -0.0534  0.0125  0.4979
47695DOD     C386906   4.561   4.948   3.215  0.0887 -0.0307 -0.0190
47696DOD     C186907  15.268  27.366   8.544  0.1564 -0.3213  0.0560
47696DOD     C286908  14.824  27.267   8.544  0.0292 -0.2014  0.0467
47696DOD     C386909  14.483  26.941   8.501  0.0206  0.1957 -0.0548
47697DOD     C186910   2.443  26.642  20.996  0.3391 -0.0550 -0.1016
47697DOD     C286911   2.717  26.818  21.324  0.0427  0.1251  0.0294
47697DOD     C386912   2.743  27.203  21.588 -0.1078 -0.1330  0.0570
47698DOD     C186913  20.809  23.096  23.234  0.0678  0.0466 -0.0867
47698DOD     C286914  21.081  22.728  23.227 -0.2218 -0.0207  0.0399
47698DOD     C386915  21.514  22.454  23.275 -0.1094 -0.0067 -0.0718
47699DOD     C186916  17.118  27.453  25.189 -0.2529 -0.3979 -0.0695
47699DOD     C286917  17.416  27.858  25.190  0.1586  0.1631 -0.0222
47699DOD     C386918  17.663  28.108  25.444 -0.1651  0.0059 -0.2137
47700DOD     C186919   8.319  25.725  28.157  0.1271 -0.0819 -0.1789
47700DOD     C286920   8.102  25.370  27.959 -0.1579 -0.1673  0.3333
47700DOD     C386921   7.993  25.233  27.541  0.1063  0.2526 -0.0315
47701DOD     C186922  22.251   8.694   4.431  0.1860 -0.0103  0.1474
47701DOD     C286923  21.947   8.328   4.342  0.0046 -0.1145  0.1586
47701DOD     C386924  21.701   7.954   4.533  0.0280  0.0404 -0.0799
47702DOD     C186925  16.593  21.409   0.025 -0.2543 -0.3179  0.2929
47702DOD     C286926  16.864  21.173  30.068 -0.2340 -0.2335 -0.2409
47702DOD     C386927  16.994  20.761  29.850  0.0037  0.1131 -0.2268
47703DOD     C186928  29.767  24.051  23.401 -0.1703 -0.2122 -0.2412
47703DOD     C286929  29.807  24.283  23.868 -0.0464 -0.0361  0.0071
47703DOD     C386930  29.980  24.271  24.276 -0.3828 -0.6167 -0.0072
47704DOD     C186931  22.502   1.745   6.250 -0.2059 -0.0437  0.1762
47704DOD     C286932  22.832   1.898   5.926  0.1009 -0.2041  0.0472
47704DOD     C386933  23.228   2.075   5.896 -0.0042 -0.2040 -0.2003
47705DOD     C186934   7.347   5.750   3.811  0.1945  0.2325 -0.1419
47705DOD     C286935   7.297   5.972   3.416 -0.0244  0.2880  0.1154
47705DOD     C386936   7.211   5.967   2.968 -0.0265  0.2095 -0.1121
47706DOD     C186937  14.456   2.688  28.855  0.2735 -0.1963  0.0865
47706DOD     C286938  14.425   2.735  28.370  0.0715  0.0099 -0.0321
47706DOD     C386939  14.289   2.501  27.997  0.2282 -0.0469 -0.0990
47707DOD     C186940  12.666  19.917  19.307 -0.1107 -0.1563  0.0725
47707DOD     C286941  12.932  19.547  19.225 -0.0245 -0.2064 -0.0739
47707DOD     C386942  13.049  19.173  18.902  0.4302 -0.2221 -0.2937
47708DOD     C186943  28.965  29.356  10.802 -0.1224  0.3854  0.0693
47708DOD     C286944  28.842  29.104  11.194  0.1646  0.1413  0.0874
47708DOD     C386945  28.488  28.899  11.333  0.0911  0.0673  0.0919
47709DOD     C186946  17.973   4.320  27.952  0.1245  0.2586  0.0567
47709DOD     C286947  18.374   4.400  28.085 -0.2620  0.1839 -0.1933
47709DOD     C386948  18.791   4.519  27.897 -0.1286 -0.1538 -0.2830
47710DOD     C186949   9.449   5.725  15.814  0.0011  0.0322 -0.1999
47710DOD     C286950   9.145   5.359  15.916 -0.4335 -0.2273  0.2782
47710DOD     C386951   9.237   4.920  15.992 -0.0546 -0.0135 -0.1399
47711DOD     C186952  26.522   2.443   4.967 -0.1436  0.3769 -0.1435
47711DOD     C286953  26.189   2.188   5.146 -0.2320  0.3668 -0.0220
47711DOD     C386954  25.766   2.366   5.348  0.0016  0.0641 -0.0383
47712DOD     C186955  18.592  10.500  28.601  0.0857 -0.1378 -0.2032
47712DOD     C286956  18.260  10.302  28.284 -0.3077  0.1278  0.0014
47712DOD     C386957  17.966  10.542  27.989  0.2789  0.0714 -0.1640
47713DOD     C186958   5.561   0.276   6.297  0.0446  0.0661 -0.2033
47713DOD     C286959   5.475   0.307   5.833 -0.0831  0.1928 -0.4510
47713DOD     C386960   5.175   0.237   5.488 -0.2742 -0.3318  0.3424
47714DOD     C186961   1.943  11.773  24.137  0.0339 -0.3195  0.0883
47714DOD     C286962   2.022  12.078  23.781 -0.1997 -0.3136 -0.2119
47714DOD     C386963   2.227  12.311  23.424 -0.1487 -0.1032  0.0544
47715DOD     C186964  22.809   2.450  21.657  0.1488  0.3070  0.0874
47715DOD     C286965  22.383   2.595  21.690  0.0029  0.0894 -0.2527
47715DOD     C386966  21.958   2.465  21.619  0.0370  0.0477  0.1945
47716DOD     C186967  21.662   1.195  30.065 -0.1393  0.0151  0.0553
47716DOD     C286968  21.856   0.788  29.899  0.0729 -0.0219  0.1099
47716DOD     C386969  21.872   0.641  29.474  0.1343 -0.1232  0.2969
47717DOD     C186970   4.746   4.382   3.409  0.0386  0.0312 -0.1392
47717DOD     C286971   4.976   4.648   3.705  0.0077 -0.3743  0.2828
47717DOD     C386972   5.155   4.675   4.134  0.0376 -0.0684  0.1600
47718DOD     C186973  20.580  19.610  18.927 -0.1172 -0.3396 -0.0402
47718DOD     C286974  20.362  19.922  19.166 -0.4807  0.1080  0.2382
47718DOD     C386975  20.017  20.297  19.241  0.0246  0.4494 -0.0180
47719DOD     C186976  19.030  25.870   0.072  0.2750 -0.1172  0.3397
47719DOD     C286977  18.610  25.788  30.181 -0.1936 -0.2367 -0.2080
47719DOD     C386978  18.607  25.757  29.696  0.0365 -0.2313  0.1818
47720DOD     C186979  27.493  16.704  11.198 -0.0105  0.1428 -0.0828
47720DOD     C286980  27.846  17.065  11.303 -0.0644  0.0981 -0.1681
47720DOD     C386981  28.264  17.274  11.116 -0.0249  0.1714 -0.0131
47721DOD     C186982   8.717  30.186  16.457 -0.1370 -0.0066  0.0762
47721DOD     C286983   8.448   0.288  16.594  0.1835  0.1752 -0.1201
47721DOD     C386984   8.067   0.561  16.421  0.2845 -0.2440 -0.1985
47722DOD     C186985  10.152  20.762   0.500 -0.3975 -0.2594  0.0319
47722DOD     C286986  10.507  21.016   0.763  0.0849 -0.0437  0.0717
47722DOD     C386987  10.559  21.473   0.806 -0.2451 -0.4494  0.1283
47723DOD     C186988  14.110  27.696  16.808  0.1974 -0.0648  0.2734
47723DOD     C286989  14.080  28.153  16.966 -0.1294 -0.1781  0.1597
47723DOD     C386990  14.151  28.380  17.353  0.0855 -0.0507  0.1668
47724DOD     C186991  21.836  28.153  12.943  0.0311  0.0059  0.1190
47724DOD     C286992  21.620  28.073  13.363  0.1595 -0.0099  0.0924
47724DOD     C386993  21.684  28.296  13.802 -0.0240  0.0991 -0.0750
47725DOD     C186994  27.972  21.393  13.735  0.0758 -0.1851  0.1014
47725DOD     C286995  28.099  21.562  13.342  0.0350 -0.1833  0.6403
47725DOD     C386996  28.513  21.619  13.127  0.5213  0.1529 -0.2069
47726DOD     C186997  19.692   8.899  14.449 -0.0512  0.1007  0.0129
47726DOD     C286998  20.069   9.105  14.646  0.0781 -0.1978  0.0965
47726DOD     C386999  20.483   9.230  14.805 -0.2815 -0.0982  0.0172
47727DOD     C187000  19.647   2.184  25.775  0.0209 -0.5006 -0.0389
47727DOD     C287001  19.234   2.270  25.543 -0.1778  0.0973 -0.0870
47727DOD     C387002  19.037   2.617  25.374  0.0461  0.2060 -0.0344
47728DOD     C187003  14.061   5.868   6.758  0.0720 -0.2202 -0.0209
47728DOD     C287004  13.722   5.609   6.507 -0.1590 -0.1038  0.1161
47728DOD     C387005  13.484   5.478   6.202 -0.2611  0.3161  0.0639
47729DOD     C187006  23.970  25.002  26.674  0.3986  0.3656 -0.2134
47729DOD     C287007  23.733  24.955  27.073 -0.1948 -0.1126 -0.1664
47729DOD     C387008  23.399  25.008  27.413  0.0319 -0.1970 -0.4574
47730DOD     C187009  26.365  25.449   1.160 -0.0913 -0.0491  0.1455
47730DOD     C287010  26.812  25.277   1.087  0.0892 -0.0031  0.2455
47730DOD     C387011  27.054  25.010   0.832 -0.1596 -0.0843 -0.4316
47731DOD     C187012  26.028  19.531  21.670 -0.1442  0.0703  0.0895
47731DOD     C287013  26.026  20.009  21.763  0.0091  0.0230 -0.1164
47731DOD     C387014  26.356  20.224  21.984 -0.2368 -0.0242  0.0368
47732DOD     C187015  16.055  21.660  10.330  0.0496  0.1839 -0.0159
47732DOD     C287016  15.838  21.210  10.324  0.1572 -0.3558 -0.1699
47732DOD     C387017  15.547  20.845  10.226  0.1770 -0.1368  0.2643
47733DOD     C187018  20.906  10.785   2.326 -0.0895  0.1092  0.0620
47733DOD     C287019  20.610  10.428   2.426  0.0214 -0.2917  0.1600
47733DOD     C387020  20.419  10.246   2.774 -0.2278  0.2214  0.1111
47734DOD     C187021  17.160  12.905  14.160  0.3305 -0.0827  0.1076
47734DOD     C287022  17.085  12.557  14.500 -0.2157 -0.1082  0.1472
47734DOD     C387023  17.099  12.107  14.620 -0.1136 -0.0666 -0.0341
47735DOD     C187024  29.289   2.318  17.004 -0.0207  0.1456  0.0279
47735DOD     C287025  29.264   1.904  17.240 -0.0821 -0.1014  0.2435
47735DOD     C387026  29.446   1.522  17.467 -0.2517 -0.2777  0.3512
47736DOD     C187027   2.137  18.673   9.591  0.0487  0.0329  0.0752
47736DOD     C287028   1.822  19.003   9.750 -0.0448 -0.0502 -0.2645
47736DOD     C387029   1.348  18.946   9.714 -0.1715 -0.3063 -0.1379
47737DOD     C187030   4.242   3.989  19.556 -0.0223  0.0323 -0.0719
47737DOD     C287031   4.429   3.618  19.284 -0.0654 -0.0603 -0.0111
47737DOD     C387032   4.580   3.170  19.177 -0.0073 -0.1381 -0.3880
47738DOD     C187033  15.664  24.091   8.637 -0.1152  0.1684 -0.0144
47738DOD     C287034  15.903  23.738   8.942  0.0809 -0.1124 -0.0930
47738DOD     C387035  16.230  23.645   9.347  0.0633  0.2912  0.3581
47739DOD     C187036  11.896  24.488  19.010  0.0798 -0.3003  0.1565
47739DOD     C287037  12.223  24.775  19.030 -0.0199 -0.3267 -0.0072
47739DOD     C387038  12.669  24.743  19.170 -0.0494  0.4073  0.0173
47740DOD     C187039  23.579   3.935  21.896  0.0574 -0.1897  0.2077
47740DOD     C287040  23.634   3.629  21.574  0.0686  0.1838  0.1363
47740DOD     C387041  23.390   3.231  21.410  0.0466  0.0939  0.0645
47741DOD     C187042   2.729   9.555   7.760  0.1662  0.3093 -0.2189
47741DOD     C287043   3.126   9.581   8.022  0.2515  0.0236  0.2089
47741DOD     C387044   3.399   9.464   8.431 -0.0660  0.0991 -0.0064
47742DOD     C187045   8.850  15.289  18.505 -0.0301  0.1944 -0.1196
47742DOD     C287046   8.608  14.909  18.736  0.2592 -0.0935 -0.1608
47742DOD     C387047   8.316  14.533  18.933  0.0162  0.0203 -0.0064
47743DOD     C187048  13.653  12.132  27.331  0.2861  0.0002  0.3768
47743DOD     C287049  14.067  12.207  27.445 -0.0943  0.1836 -0.0269
47743DOD     C387050  14.456  11.976  27.375  0.0097 -0.0573  0.0041
47744DOD     C187051   9.297   0.968   9.776  0.2800  0.3183 -0.1603
47744DOD     C287052   9.789   1.022   9.906 -0.0307  0.0292  0.1807
47744DOD     C387053   9.985   0.626  10.055  0.2617  0.2406  0.1288
47745DOD     C187054  21.085   8.741   7.397 -0.2037  0.1201 -0.1296
47745DOD     C287055  21.243   8.369   7.731 -0.0771  0.1102 -0.3533
47745DOD     C387056  21.071   8.221   8.152  0.0456 -0.1885 -0.0164
47746DOD     C187057  12.794  22.601  10.314  0.4507 -0.0851  0.1305
47746DOD     C287058  12.585  22.312  10.604 -0.0801 -0.2087 -0.2422
47746DOD     C387059  12.635  21.943  10.913  0.3629  0.3339 -0.0381
47747DOD     C187060  29.266   3.903  27.086 -0.0420 -0.0764 -0.1974
47747DOD     C287061  29.189   3.723  27.498  0.1614 -0.0168  0.0053
47747DOD     C387062  28.837   3.370  27.548  0.2470 -0.0748  0.0713
47748DOD     C187063  12.356   9.296  21.421 -0.1842  0.4547 -0.3435
47748DOD     C287064  11.944   9.269  21.195 -0.1727 -0.1140 -0.1903
47748DOD     C387065  11.586   9.018  21.219 -0.0478 -0.2246 -0.1785
47749DOD     C187066   5.068  13.275  21.908 -0.0055  0.1024  0.2745
47749DOD     C287067   5.447  13.156  21.637 -0.2812  0.2073  0.1597
47749DOD     C387068   5.942  13.168  21.632  0.2155  0.1834 -0.0815
47750DOD     C187069   2.421  13.868   6.604 -0.5191 -0.1468 -0.2568
47750DOD     C287070   2.221  13.474   6.497  0.1967 -0.1006 -0.3055
47750DOD     C387071   2.400  13.048   6.653 -0.0789 -0.1231 -0.0938
47751DOD     C187072  22.536  27.352  25.087 -0.0800 -0.5304 -0.3181
47751DOD     C287073  22.106  27.176  24.968 -0.0527 -0.1643  0.5371
47751DOD     C387074  21.962  26.701  24.886  0.1160 -0.1507  0.1837
47752DOD     C187075  20.020   7.083   5.769  0.0962 -0.0802  0.3207
47752DOD     C287076  20.441   7.312   5.666 -0.2826  0.0137 -0.1661
47752DOD     C387077  20.897   7.485   5.751 -0.1617  0.1213 -0.0545
47753DOD     C187078  18.210   8.678  24.436 -0.0822  0.0277  0.0934
47753DOD     C287079  18.239   8.185  24.485  0.0038  0.1032  0.3371
47753DOD     C387080  18.274   7.725  24.566  0.0415 -0.0185  0.2696
47754DOD     C187081   6.572   2.113  14.218  0.2877  0.1003 -0.2409
47754DOD     C287082   6.996   2.249  14.286 -0.3862 -0.2085  0.3346
47754DOD     C387083   7.352   2.553  14.085 -0.3737  0.0733  0.3539
47755DOD     C187084  13.045   3.269  16.242 -0.0591  0.0651 -0.1338
47755DOD     C287085  13.010   3.645  16.025  0.1653 -0.1637  0.1075
47755DOD     C387086  12.653   3.911  16.056 -0.3420 -0.1388 -0.0691
47756DOD     C187087  17.788  25.205  18.882 -0.1039  0.3931 -0.1029
47756DOD     C287088  17.511  24.978  19.152  0.0823  0.0783 -0.0736
47756DOD     C387089  17.458  25.004  19.575 -0.1657  0.0784  0.3016
47757DOD     C187090   5.990   3.875  16.572  0.2780  0.0146  0.1628
47757DOD     C287091   6.362   4.115  16.620 -0.1081  0.0664 -0.0141
47757DOD     C387092   6.687   4.434  16.572  0.2530  0.1802  0.2988
47758DOD     C187093  27.622  13.265  11.972 -0.1984 -0.0072  0.2038
47758DOD     C287094  27.760  13.340  12.408 -0.0195 -0.2599  0.0065
47758DOD     C387095  27.875  13.468  12.850  0.2321  0.1548 -0.1701
47759DOD     C187096  25.091   2.252  22.599 -0.1340 -0.0232  0.2359
47759DOD     C287097  25.229   1.983  22.965  0.2034 -0.2261 -0.0064
47759DOD     C387098  25.438   1.504  23.015  0.0644 -0.2439 -0.2320
47760DOD     C187099  26.580  10.768  12.786 -0.3107 -0.1031  0.0616
47760DOD     C287100  26.223  10.457  12.719 -0.0855  0.1608  0.1007
47760DOD     C387101  25.803  10.326  12.585 -0.0291  0.0531  0.1417
47761DOD     C187102  15.433  27.836   3.527  0.0283  0.0268 -0.1251
47761DOD     C287103  15.850  27.661   3.703  0.1370  0.0587  0.1155
47761DOD     C387104  16.291  27.698   3.492 -0.1126  0.0081 -0.0834
47762DOD     C187105   5.305  12.525  12.327  0.2110  0.0774 -0.1852
47762DOD     C287106   5.713  12.839  12.307 -0.0360 -0.2162  0.1242
47762DOD     C387107   5.729  13.295  12.451 -0.0833 -0.1241 -0.1277
47763DOD     C187108   1.972  13.056  12.911  0.2243 -0.1416  0.1023
47763DOD     C287109   1.769  12.636  12.994 -0.2114  0.0598 -0.0805
47763DOD     C387110   1.602  12.223  13.219  0.0684 -0.0924  0.4245
47764DOD     C187111   8.925  15.110   4.045  0.2938  0.3333 -0.0340
47764DOD     C287112   8.973  15.147   4.507  0.1725 -0.3897  0.2096
47764DOD     C387113   8.780  15.134   4.926  0.1790  0.0721  0.2743
47765DOD     C187114   6.453   3.016   3.466 -0.0021  0.0637 -0.0309
47765DOD     C287115   6.090   2.971   3.226  0.1038  0.1324 -0.0547
47765DOD     C387116   5.700   2.719   3.251 -0.0033  0.2520 -0.1271
47766DOD     C187117   3.190  23.435  10.156  0.1083 -0.0951 -0.0142
47766DOD     C287118   2.750  23.352  10.121  0.4408 -0.0155 -0.0099
47766DOD     C387119   2.328  23.552   9.994 -0.1783  0.0297  0.0226
47767DOD     C187120  16.922   8.111  13.755  0.0199  0.1647 -0.0570
47767DOD     C287121  16.708   7.848  13.416  0.0373 -0.1206  0.0234
47767DOD     C387122  16.411   7.634  13.124  0.3438  0.0377  0.1307
47768DOD     C187123  30.297   1.745  23.229  0.2481  0.0832  0.1982
47768DOD     C287124  30.000   1.832  22.817 -0.1526 -0.1162 -0.0351
47768DOD     C387125  29.664   2.057  22.593  0.0298 -0.0740  0.0620
47769DOD     C187126  14.215  24.027  14.262 -0.1001 -0.1298 -0.0016
47769DOD     C287127  14.151  24.511  14.439  0.0324 -0.0263  0.1731
47769DOD     C387128  14.488  24.821  14.586  0.0010 -0.0896  0.3550
47770DOD     C187129  16.796  26.555  18.832  0.1042  0.2136  0.1998
47770DOD     C287130  16.625  26.150  18.981 -0.2580  0.0394 -0.3928
47770DOD     C387131  16.605  25.659  19.099 -0.1063  0.3007  0.2032
47771DOD     C187132  29.379  16.218   3.742  0.1049  0.2239  0.0861
47771DOD     C287133  29.620  16.082   3.397  0.3216  0.0720 -0.0352
47771DOD     C387134  29.768  16.215   3.012 -0.2513  0.1757 -0.2186
47772DOD     C187135  11.768   9.937  28.170 -0.3032 -0.1647 -0.1171
47772DOD     C287136  11.631  10.091  28.551  0.2189  0.5253 -0.1801
47772DOD     C387137  11.561   9.985  29.032  0.1861 -0.0409 -0.1024
47773DOD     C187138  15.703  21.198   9.850 -0.3600  0.3649 -0.0183
47773DOD     C287139  15.549  21.571  10.077 -0.1357  0.1737 -0.1582
47773DOD     C387140  15.519  21.942  10.204  0.1310 -0.1055 -0.1819
47774DOD     C187141   6.883   9.279  17.233  0.0580 -0.0192 -0.2105
47774DOD     C287142   6.603   9.565  17.456  0.0235  0.1078 -0.0959
47774DOD     C387143   6.177   9.557  17.639 -0.5148  0.1841  0.0028
47775DOD     C187144  10.970  29.521  13.724 -0.0944 -0.0474 -0.0415
47775DOD     C287145  10.960  29.224  13.410  0.1186  0.0108  0.0654
47775DOD     C387146  10.796  29.264  13.076  0.1203  0.0418 -0.0249
47776DOD     C187147  13.161   0.160   2.278 -0.0752  0.0912 -0.0751
47776DOD     C287148  12.974  30.077   2.444  0.2495 -0.4445  0.0763
47776DOD     C387149  12.732  29.974   2.836  0.1684  0.2650 -0.6397
47777DOD     C187150  17.079  14.828  27.887  0.1971 -0.2684  0.0628
47777DOD     C287151  17.486  15.022  27.996  0.1700 -0.0310  0.2518
47777DOD     C387152  17.520  15.248  28.432 -0.2580  0.3594  0.1757
47778DOD     C187153   8.527   0.215   6.858 -0.0028 -0.0804 -0.2795
47778DOD     C287154   8.543   0.500   7.235  0.0267  0.1418 -0.1038
47778DOD     C387155   8.458   0.801   7.529  0.0047  0.1615 -0.2404
47779DOD     C187156  14.467  19.208   2.586  0.0076  0.1703  0.1383
47779DOD     C287157  14.555  19.447   2.933 -0.0187 -0.2884  0.3681
47779DOD     C387158  14.237  19.786   3.128 -0.1345  0.0530  0.3112
47780DOD     C187159   5.020  22.880  25.933  0.1527  0.1590  0.1126
47780DOD     C287160   4.603  23.069  25.842 -0.0843  0.1573 -0.0734
47780DOD     C387161   4.191  23.112  25.707  0.0632 -0.0460  0.0511
47781DOD     C187162  21.355  30.125  28.272 -0.4451 -0.0893  0.2592
47781DOD     C287163  21.342   0.288  28.423 -0.0882  0.3615  0.1109
47781DOD     C387164  21.503   0.664  28.285 -0.1296  0.0013 -0.1715
47782DOD     C187165  11.796  23.147   8.736  0.2633  0.4944 -0.1038
47782DOD     C287166  11.553  22.720   8.749 -0.1449  0.0761 -0.0937
47782DOD     C387167  11.226  22.465   8.402 -0.0464  0.1566  0.0406
47783DOD     C187168  12.680  17.905   6.152 -0.3009  0.0322  0.5569
47783DOD     C287169  12.396  17.602   5.936  0.0894 -0.0358  0.0406
47783DOD     C387170  12.499  17.231   5.722 -0.3399 -0.4137  0.1065
47784DOD     C187171   4.556  27.044   7.863 -0.0263  0.0962  0.2829
47784DOD     C287172   4.627  26.714   7.536  0.1183  0.3059  0.1018
47784DOD     C387173   4.430  26.360   7.282 -0.1240  0.0916  0.2016
47785DOD     C187174  22.510  14.305   9.458 -0.2270 -0.0299 -0.2277
47785DOD     C287175  22.219  14.194   9.071 -0.0200 -0.1075  0.3707
47785DOD     C387176  22.218  13.958   8.672 -0.1825 -0.0960 -0.1948
47786DOD     C187177  11.880   5.274  21.981 -0.0531 -0.2509  0.1229
47786DOD     C287178  12.158   5.052  21.679  0.1425 -0.0117 -0.0653
47786DOD     C387179  12.185   4.926  21.196 -0.0744  0.0357 -0.1056
47787DOD     C187180  20.543   3.170   9.615  0.2205  0.2627 -0.0054
47787DOD     C287181  20.372   3.217   9.139  0.0361  0.0612 -0.0024
47787DOD     C387182  20.528   3.262   8.685  0.0888 -0.1951 -0.0736
47788DOD     C187183  12.297  19.336   6.631 -0.1398 -0.0856  0.0685
47788DOD     C287184  12.285  19.156   6.114 -0.0792  0.0610 -0.1243
47788DOD     C387185  12.315  19.032   5.719 -0.5290  0.1655 -0.0709
47789DOD     C187186   1.682  23.623  12.635 -0.0476 -0.0222 -0.0606
47789DOD     C287187   1.937  23.209  12.717 -0.3136 -0.2020  0.2842
47789DOD     C387188   1.843  22.757  12.630 -0.1068  0.1714 -0.0271
47790DOD     C187189   2.137   3.048   3.968 -0.0345 -0.1158  0.1042
47790DOD     C287190   2.467   3.266   4.295  0.1045  0.0049 -0.0394
47790DOD     C387191   2.767   3.058   4.548  0.0605  0.1909  0.1314
47791DOD     C187192   1.806   3.416  15.980 -0.1454 -0.2317 -0.0453
47791DOD     C287193   1.429   3.528  15.696  0.2765  0.3670 -0.1381
47791DOD     C387194   1.068   3.825  15.599 -0.1032 -0.1408  0.0797
47792DOD     C187195  10.453   5.615   9.327  0.0351 -0.0605  0.2145
47792DOD     C287196  10.867   5.557   9.430 -0.1580  0.3277  0.0520
47792DOD     C387197  11.084   5.358   9.779 -0.0704 -0.0720 -0.1159
47793DOD     C187198  25.930   3.433  22.131  0.0607 -0.0865  0.0695
47793DOD     C287199  26.177   3.845  21.950 -0.1910 -0.0796 -0.4100
47793DOD     C387200  26.642   3.938  21.809 -0.0197 -0.2211 -0.1694
47794DOD     C187201   2.222   5.121   2.804 -0.0422  0.0933 -0.0119
47794DOD     C287202   1.867   4.921   3.002  0.0318  0.1162 -0.0196
47794DOD     C387203   1.647   5.147   3.367 -0.2077 -0.1023  0.0494
47795DOD     C187204  16.362  14.779   5.674  0.1553  0.5117  0.5294
47795DOD     C287205  16.211  15.200   5.692  0.1486  0.0265  0.0340
47795DOD     C387206  16.128  15.645   5.667 -0.1517 -0.2085  0.1805
47796DOD     C187207  21.724   4.715   7.575  0.2301  0.0363 -0.1627
47796DOD     C287208  21.641   4.903   7.174  0.0584 -0.0058  0.1441
47796DOD     C387209  21.766   5.281   6.956 -0.0100  0.0113  0.3594
47797DOD     C187210   2.879   3.056  11.111  0.0314 -0.0776 -0.2460
47797DOD     C287211   2.761   3.231  11.544  0.0184 -0.1696 -0.0235
47797DOD     C387212   2.502   3.077  11.900 -0.1850 -0.0883  0.1198
47798DOD     C187213  20.332  27.402   7.366  0.3529 -0.1750  0.2529
47798DOD     C287214  20.106  27.199   7.006 -0.1998  0.0289 -0.0314
47798DOD     C387215  19.818  27.229   6.652 -0.2135  0.1825  0.4438
47799DOD     C187216  11.205  11.518   1.841 -0.0080 -0.2526  0.0629
47799DOD     C287217  11.300  11.055   1.668 -0.0566 -0.0871 -0.1356
47799DOD     C387218  11.670  10.785   1.611  0.2298 -0.0480 -0.0488
47800DOD     C187219  27.315  19.829   9.673  0.0658  0.1894 -0.1553
47800DOD     C287220  26.867  19.681   9.719  0.1099 -0.0003 -0.0399
47800DOD     C387221  26.654  19.355   9.881 -0.4640 -0.0091  0.0126
47801DOD     C187222  18.062   6.331  28.107 -0.1221 -0.2326 -0.0829
47801DOD     C287223  17.896   6.667  27.887 -0.1927  0.2248  0.2354
47801DOD     C387224  17.668   6.794  27.497  0.0921 -0.0901  0.0572
47802DOD     C187225  23.243  11.532  26.929 -0.0019 -0.0743 -0.1357
47802DOD     C287226  23.478  11.967  27.077 -0.0836  0.1333 -0.2849
47802DOD     C387227  23.387  12.352  27.320 -0.3993 -0.0689 -0.0230
47803DOD     C187228   4.158   7.760  13.562 -0.1783  0.1527 -0.2096
47803DOD     C287229   4.193   8.220  13.671  0.1783  0.2669  0.0039
47803DOD     C387230   4.292   8.681  13.546  0.0500 -0.1141  0.1056
47804DOD     C187231  19.604  26.979  14.969 -0.2370 -0.1026  0.0679
47804DOD     C287232  20.010  26.717  14.974  0.0491  0.0944  0.1302
47804DOD     C387233  20.459  26.626  15.073 -0.0047 -0.0730  0.4575
47805DOD     C187234  12.049   3.033   8.181  0.1810  0.2485  0.1711
47805DOD     C287235  11.738   3.288   7.985 -0.0792  0.0761  0.1454
47805DOD     C387236  11.494   3.674   7.825 -0.0350  0.0931 -0.1457
47806DOD     C187237  14.508  16.148   5.102 -0.0253  0.0867  0.2987
47806DOD     C287238  14.980  16.356   5.058 -0.1196  0.0804  0.4143
47806DOD     C387239  15.401  16.627   5.043  0.1747 -0.1868 -0.2784
47807DOD     C187240  19.118  29.274   3.661 -0.0281  0.2065  0.1284
47807DOD     C287241  18.930  28.855   3.816 -0.0126  0.1342 -0.0977
47807DOD     C387242  19.066  28.584   4.153  0.0300 -0.2059 -0.0871
47808DOD     C187243   1.565  29.694  13.193  0.1362 -0.1809  0.3861
47808DOD     C287244   1.198  29.535  12.951 -0.2130 -0.1923  0.2942
47808DOD     C387245   0.865  29.174  12.942 -0.2334  0.0995  0.1418
47809DOD     C187246  23.572  21.508  25.377  0.1331 -0.0075  0.1786
47809DOD     C287247  23.379  21.890  25.262  0.4542 -0.0220  0.0507
47809DOD     C387248  23.060  22.212  25.328  0.1612  0.1266  0.3317
47810DOD     C187249  27.647  16.184   5.762 -0.0522  0.1948 -0.2544
47810DOD     C287250  27.520  15.752   5.608 -0.1444  0.2056  0.0448
47810DOD     C387251  27.191  15.525   5.663 -0.1305 -0.2288  0.3017
47811DOD     C187252   5.958  21.601  17.910 -0.3439  0.0070 -0.1229
47811DOD     C287253   6.002  22.070  17.827  0.1178 -0.3174 -0.1488
47811DOD     C387254   6.181  22.517  17.748  0.1313 -0.3264  0.1086
47812DOD     C187255   9.835  20.858   1.864  0.0296 -0.0572 -0.2137
47812DOD     C287256  10.079  21.230   1.658 -0.1299  0.0687 -0.6180
47812DOD     C387257  10.310  21.336   1.306  0.2607 -0.0102  0.2287
47813DOD     C187258  24.740   4.931   1.793  0.1991  0.1372 -0.0500
47813DOD     C287259  24.755   4.812   1.342 -0.1653  0.1186 -0.2857
47813DOD     C387260  24.765   4.930   0.868  0.2588  0.3335 -0.1303
47814DOD     C187261   3.130  19.944   0.067  0.0663 -0.0749 -0.2872
47814DOD     C287262   3.377  19.883  29.965 -0.0832  0.0322 -0.0688
47814DOD     C387263   3.638  19.984  29.568  0.1230 -0.2635  0.2683
47815DOD     C187264   3.208  22.546  26.930  0.4287 -0.1865 -0.1318
47815DOD     C287265   3.646  22.760  26.902 -0.0019  0.1054  0.3241
47815DOD     C387266   3.971  23.046  26.860 -0.0855 -0.2271 -0.1105
47816DOD     C187267   7.506  29.419  25.506 -0.1423 -0.0947 -0.0662
47816DOD     C287268   7.829  29.802  25.379  0.2001  0.1520 -0.1018
47816DOD     C387269   7.880  30.281  25.231 -0.3073 -0.0713  0.2624
47817DOD     C187270  20.989  10.722  21.659 -0.1350  0.3477 -0.2584
47817DOD     C287271  20.572  10.987  21.680  0.0606  0.0817  0.4591
47817DOD     C387272  20.114  11.177  21.686  0.1608  0.0159 -0.4871
47818DOD     C187273   5.478  22.065  14.519  0.1894 -0.1756  0.0746
47818DOD     C287274   5.470  22.005  14.980 -0.1704  0.0617 -0.4123
47818DOD     C387275   5.353  21.833  15.444  0.0048 -0.0745  0.3489
47819DOD     C187276  13.819  13.945  13.917  0.0469 -0.1881  0.0893
47819DOD     C287277  14.223  14.046  14.189 -0.0637  0.0223  0.0244
47819DOD     C387278  14.646  14.080  14.353  0.0715  0.0469  0.3053
47820DOD     C187279  21.083  23.042   6.541 -0.1175  0.4301 -0.0536
47820DOD     C287280  21.118  22.623   6.393 -0.0549  0.5833  0.1844
47820DOD     C387281  21.069  22.197   6.235  0.0352 -0.0777  0.0703
47821DOD     C187282   3.042  20.494  19.189 -0.0388 -0.1289  0.0079
47821DOD     C287283   2.735  20.671  19.430  0.0831  0.0739 -0.2039
47821DOD     C387284   2.426  21.035  19.546  0.0248  0.2417 -0.2524
47822DOD     C187285  20.323  28.637  16.327 -0.1766 -0.1600  0.0594
47822DOD     C287286  20.730  28.719  16.438 -0.0004  0.0093  0.0101
47822DOD     C387287  21.169  28.584  16.367 -0.1090  0.2418 -0.0728
47823DOD     C187288  29.661  26.291  13.789 -0.0362 -0.3223  0.2614
47823DOD     C287289  29.294  26.279  14.000 -0.0574 -0.1371 -0.0999
47823DOD     C387290  28.882  26.442  13.981 -0.1552  0.1841 -0.1877
47824DOD     C187291  25.435  27.218  26.904 -0.0787  0.1259 -0.0844
47824DOD     C287292  25.606  27.688  26.804  0.2271  0.0131  0.1136
47824DOD     C387293  25.910  27.951  27.081 -0.0902 -0.1664 -0.2748
47825DOD     C187294   6.076  28.498   6.406  0.3534 -0.0713 -0.0238
47825DOD     C287295   6.071  28.094   6.109  0.0074  0.2960 -0.1457
47825DOD     C387296   5.715  27.783   5.863 -0.1995 -0.0087 -0.0085
47826DOD     C187297  26.356   4.280   2.286 -0.1194 -0.0885  0.3326
47826DOD     C287298  26.398   4.586   1.927  0.3858  0.0029  0.1898
47826DOD     C387299  26.444   5.042   1.874  0.1441  0.3587  0.0106
47827DOD     C187300  21.784   2.644   9.932 -0.3360  0.1567 -0.3232
47827DOD     C287301  21.406   2.803   9.770  0.0499  0.1313  0.0815
47827DOD     C387302  21.026   2.800   9.585  0.1429  0.0985  0.0348
47828DOD     C187303   9.374  14.232   9.251 -0.2120 -0.1321  0.0219
47828DOD     C287304   9.103  14.312   9.623 -0.0856 -0.0056 -0.4168
47828DOD     C387305   9.109  14.441  10.092  0.0811 -0.3606  0.0084
47829DOD     C187306   5.479  12.107   1.965 -0.0562 -0.1775  0.1725
47829DOD     C287307   5.156  11.839   1.763  0.3982  0.1558 -0.1751
47829DOD     C387308   4.803  11.516   1.900  0.1301 -0.1232  0.1036
47830DOD     C187309  15.440  23.561  16.024 -0.0553 -0.1404  0.1844
47830DOD     C287310  15.030  23.716  15.901  0.0205  0.1279 -0.0050
47830DOD     C387311  14.597  23.904  15.880 -0.1232  0.0304 -0.1628
47831DOD     C187312  23.603   8.050  16.259  0.0796  0.1351 -0.3273
47831DOD     C287313  23.555   7.680  16.525 -0.2066  0.1177  0.0738
47831DOD     C387314  23.381   7.273  16.513  0.0284 -0.1216 -0.1414
47832DOD     C187315  23.383  26.140  23.751 -0.0622  0.2118  0.0606
47832DOD     C287316  23.548  26.138  24.231 -0.1855  0.2891 -0.1490
47832DOD     C387317  23.339  26.007  24.625  0.0035 -0.1303  0.1409
47833DOD     C187318  28.281  23.969  26.734  0.2686  0.0169  0.2055
47833DOD     C287319  28.117  23.678  27.035  0.2639  0.3776  0.2628
47833DOD     C387320  28.213  23.330  27.284  0.2776 -0.2079  0.1440
47834DOD     C187321   2.260  30.246   3.660  0.0656 -0.0851 -0.2316
47834DOD     C287322   2.759  30.177   3.802 -0.0354 -0.1324  0.0367
47834DOD     C387323   3.147  30.083   4.005 -0.2462  0.0282  0.0193
47835DOD     C187324  25.529  16.755  29.208 -0.1727  0.0033  0.3264
47835DOD     C287325  25.367  16.354  29.109 -0.1268  0.2992  0.1271
47835DOD     C387326  25.297  15.870  29.120 -0.1952  0.0942 -0.3408
47836DOD     C187327  11.485  16.872   6.362 -0.0684  0.0501 -0.0793
47836DOD     C287328  11.608  16.931   6.863 -0.2220  0.2762 -0.0716
47836DOD     C387329  11.995  16.784   7.084 -0.1163  0.2562 -0.0659
47837DOD     C187330  23.665  11.763  21.423  0.0533 -0.1369 -0.0826
47837DOD     C287331  23.372  12.062  21.235 -0.0581  0.0824  0.0470
47837DOD     C387332  23.093  11.910  20.882  0.0061 -0.0129  0.0547
47838DOD     C187333   6.035   2.954   8.228  0.1608  0.0268 -0.1273
47838DOD     C287334   5.928   3.039   7.783 -0.0341  0.0508 -0.2995
47838DOD     C387335   5.605   3.220   7.538  0.0500  0.0858  0.1007
47839DOD     C187336  16.455   0.732  14.546  0.1749 -0.1959 -0.2263
47839DOD     C287337  16.891   0.752  14.417 -0.1000  0.0028 -0.2054
47839DOD     C387338  17.179   0.733  14.101 -0.1977  0.1796  0.2362
47840DOD     C187339  28.823   5.829   6.119 -0.1121  0.0188 -0.0336
47840DOD     C287340  29.043   6.049   6.488 -0.2540  0.5285 -0.0571
47840DOD     C387341  29.424   6.226   6.538 -0.0277 -0.0630  0.0018
47841DOD     C187342  26.073  24.668  23.038  0.1419 -0.1558 -0.0458
47841DOD     C287343  26.017  24.714  23.550  0.1777 -0.2591 -0.0019
47841DOD     C387344  25.790  24.625  23.916  0.2105  0.1852 -0.1630
47842DOD     C187345  10.391  27.757  26.506 -0.1871  0.1704  0.0100
47842DOD     C287346  10.491  27.315  26.307  0.1291  0.1686 -0.1908
47842DOD     C387347  10.615  26.835  26.396 -0.4702  0.1856 -0.2685
47843DOD     C187348  10.873  22.619  17.491  0.0961  0.0529  0.3949
47843DOD     C287349  10.794  22.941  17.171  0.1363 -0.0888 -0.3621
47843DOD     C387350  10.929  22.972  16.761 -0.1115 -0.1452  0.1104
47844DOD     C187351   3.098  25.189  27.572 -0.1200  0.1518 -0.3830
47844DOD     C287352   3.359  24.996  27.965  0.1119 -0.0128  0.0090
47844DOD     C387353   3.591  25.022  28.390  0.0272 -0.2098 -0.2275
47845DOD     C187354  16.200   9.162  12.359  0.2615  0.1826  0.0162
47845DOD     C287355  15.845   9.109  12.670 -0.1010 -0.1221  0.0331
47845DOD     C387356  16.136   9.057  13.030 -0.0669 -0.1530 -0.0795
47846DOD     C187357  14.099   3.984   9.158  0.1534  0.2203  0.2761
47846DOD     C287358  14.420   3.855   9.459  0.1596 -0.1368 -0.2387
47846DOD     C387359  14.574   3.430   9.621  0.0265  0.1442 -0.1560
47847DOD     C187360   8.877  15.758  14.958  0.1574 -0.4267 -0.2283
47847DOD     C287361   9.280  15.896  14.960  0.1433  0.0895 -0.0483
47847DOD     C387362   9.613  16.247  14.947  0.2412 -0.0421  0.1276
47848DOD     C187363  27.637  10.433   0.693 -0.3106  0.2571 -0.1201
47848DOD     C287364  27.260  10.504   0.941  0.0851  0.0191 -0.0441
47848DOD     C387365  26.931  10.580   1.259  0.1255 -0.1710 -0.3061
47849DOD     C187366  13.157   2.432  24.269  0.0638  0.1451  0.1020
47849DOD     C287367  13.563   2.552  24.127 -0.0678 -0.1505 -0.3028
47849DOD     C387368  13.951   2.749  24.146  0.1520 -0.1478 -0.0994
47850DOD     C187369  29.904   6.130   2.225 -0.0588  0.0477 -0.1037
47850DOD     C287370  30.056   6.549   2.165  0.1928  0.1618 -0.2546
47850DOD     C387371  30.179   6.996   2.143 -0.3827  0.0704  0.1929
47851DOD     C187372   2.577  21.101  28.726  0.2338 -0.1855 -0.2494
47851DOD     C287373   2.324  20.746  28.937 -0.0616 -0.3456 -0.0301
47851DOD     C387374   2.436  20.489  29.333  0.1703 -0.0606  0.3167
47852DOD     C187375  13.096  13.894   8.724 -0.0293 -0.0519  0.0483
47852DOD     C287376  12.860  14.311   8.848  0.3049 -0.1478 -0.3293
47852DOD     C387377  12.428  14.565   8.968 -0.0712 -0.0398  0.1786
47853DOD     C187378  22.340   9.451  18.271  0.2225  0.0175 -0.0485
47853DOD     C287379  22.784   9.319  18.264  0.3312  0.0401 -0.1424
47853DOD     C387380  23.158   9.139  18.177 -0.0009 -0.0818  0.0345
47854DOD     C187381  28.170   3.495   7.474  0.3634  0.1073  0.0444
47854DOD     C287382  28.469   3.726   7.186  0.0995  0.2754  0.2014
47854DOD     C387383  28.736   3.908   6.816  0.0409 -0.0968  0.0762
47855DOD     C187384  26.376  25.972   1.719  0.0278  0.2227 -0.1272
47855DOD     C287385  26.452  26.329   1.430  0.0343 -0.0195  0.0808
47855DOD     C387386  26.771  26.251   1.075  0.2157 -0.2393  0.1134
47856DOD     C187387  10.021   4.439  17.565  0.3696 -0.0348 -0.1045
47856DOD     C287388  10.038   4.253  17.995  0.0008  0.2320  0.0498
47856DOD     C387389   9.808   4.224  18.397 -0.0812 -0.1615  0.0140
47857DOD     C187390  14.163   0.876  21.233  0.1752 -0.1486  0.1252
47857DOD     C287391  13.741   0.919  21.086  0.4948  0.0387 -0.1216
47857DOD     C387392  13.421   0.752  20.763  0.0516  0.1701  0.0762
47858DOD     C187393   4.010   7.993   5.121 -0.2936  0.0366 -0.0797
47858DOD     C287394   3.626   8.271   5.242  0.2390  0.1409 -0.1510
47858DOD     C387395   3.104   8.132   5.216 -0.0084  0.1695  0.0833
47859DOD     C187396  19.924  11.033  28.302 -0.1396  0.1051 -0.1565
47859DOD     C287397  19.932  10.745  28.681  0.1324  0.1511  0.1274
47859DOD     C387398  19.915  10.374  29.021 -0.0508  0.1014  0.2084
47860DOD     C187399  15.520  19.139  15.243  0.0079 -0.2174  0.1701
47860DOD     C287400  15.808  19.121  15.605  0.0216 -0.2944 -0.0781
47860DOD     C387401  16.150  18.785  15.688 -0.1066  0.0808  0.4176
47861DOD     C187402   9.157  12.974  28.231  0.2526 -0.0854 -0.3112
47861DOD     C287403   9.471  12.647  28.061  0.0180  0.0339  0.1326
47861DOD     C387404   9.513  12.251  28.157 -0.1734  0.0508 -0.0559
47862DOD     C187405  26.812   8.341  17.712  0.0629  0.0608 -0.2366
47862DOD     C287406  26.445   8.361  18.005  0.0583  0.0019 -0.2230
47862DOD     C387407  26.370   8.274  18.444  0.0346 -0.0837  0.0863
47863DOD     C187408  19.365  18.151   4.132  0.0729  0.2245 -0.0684
47863DOD     C287409  19.678  18.160   4.453  0.0465  0.0447 -0.5092
47863DOD     C387410  19.635  17.890   4.847  0.0510 -0.2166  0.0313
47864DOD     C187411   4.555  18.540   4.704  0.0507 -0.5024  0.0288
47864DOD     C287412   4.502  18.616   5.173 -0.0423  0.0852  0.0201
47864DOD     C387413   4.695  18.785   5.549  0.4325  0.0151 -0.1087
47865DOD     C187414  26.941  26.708   8.029 -0.0034  0.1271 -0.1002
47865DOD     C287415  26.543  26.405   7.969  0.0118 -0.3058 -0.1590
47865DOD     C387416  26.382  26.007   7.752  0.0528  0.0852 -0.2428
47866DOD     C187417   2.550  16.003  29.915  0.0890 -0.1142  0.1319
47866DOD     C287418   2.279  15.618  29.879 -0.0194  0.0344 -0.0034
47866DOD     C387419   2.218  15.140  29.897  0.1021  0.0308 -0.0789
47867DOD     C187420  23.097  18.926  19.979  0.4355  0.1845 -0.1337
47867DOD     C287421  23.403  18.773  20.292 -0.0928 -0.0492  0.0408
47867DOD     C387422  23.587  18.934  20.686 -0.0543  0.1659  0.1475
47868DOD     C187423  11.329  15.722  11.801  0.0757 -0.2368  0.0187
47868DOD     C287424  11.435  15.268  11.842 -0.1786  0.0001  0.1374
47868DOD     C387425  11.760  15.176  12.174 -0.1368  0.2200  0.1285
47869DOD     C187426  19.018   5.451  30.019 -0.0123  0.1689  0.1081
47869DOD     C287427  19.065   5.538  29.571 -0.1875 -0.2517 -0.0542
47869DOD     C387428  19.092   5.747  29.134  0.0104  0.2185 -0.1158
47870DOD     C187429  16.773   2.006  24.231 -0.3708 -0.0453  0.0199
47870DOD     C287430  16.507   1.749  24.516  0.0983 -0.0741  0.0222
47870DOD     C387431  16.367   1.395  24.740 -0.2300 -0.3120  0.0006
47871DOD     C187432   1.348   2.683   7.045 -0.0060  0.2821 -0.0288
47871DOD     C287433   1.647   2.306   6.978 -0.0799  0.1523 -0.0639
47871DOD     C387434   1.581   1.869   7.096 -0.2801 -0.0911  0.1069
47872DOD     C187435  27.102   1.739   9.432 -0.1701  0.1271 -0.1780
47872DOD     C287436  26.700   1.915   9.345 -0.1104 -0.0657 -0.2818
47872DOD     C387437  26.287   1.800   9.602 -0.1698  0.0995 -0.1274
47873DOD     C187438  10.091   1.823   9.009 -0.1359  0.3062  0.2664
47873DOD     C287439   9.989   1.445   8.746  0.1523 -0.0847 -0.1176
47873DOD     C387440   9.964   1.017   8.632 -0.0143 -0.0624  0.0802
47874DOD     C187441  17.669  16.577  26.619  0.3613 -0.1347  0.0176
47874DOD     C287442  17.755  16.898  26.278 -0.1643 -0.0179  0.1692
47874DOD     C387443  17.908  17.343  26.172  0.0909  0.3391  0.1621
47875DOD     C187444  10.378   1.783   4.863  0.0869 -0.0383 -0.1193
47875DOD     C287445  10.213   1.850   5.325  0.0497  0.1745  0.1107
47875DOD     C387446  10.261   1.667   5.734  0.0715 -0.1569 -0.1259
47876DOD     C187447  27.767   0.434  25.396  0.1287 -0.2887 -0.0110
47876DOD     C287448  27.504   0.098  25.524  0.1193 -0.1251  0.0333
47876DOD     C387449  27.518  29.975  25.636  0.0883 -0.1116  0.1949
47877DOD     C187450   9.379  28.789   8.786 -0.0228  0.1394 -0.0175
47877DOD     C287451   9.864  28.955   8.894  0.3816 -0.0316  0.2119
47877DOD     C387452  10.336  28.950   8.927  0.0708 -0.0803 -0.0720
47878DOD     C187453   1.466  24.888   9.227  0.0383  0.0098 -0.3524
47878DOD     C287454   1.251  25.257   9.096 -0.1605 -0.0004  0.1866
47878DOD     C387455   1.513  25.651   9.068 -0.1154 -0.2890 -0.1079
47879DOD     C187456  12.926   0.744  13.547 -0.1413  0.0933 -0.0753
47879DOD     C287457  12.561   0.823  13.298  0.2352  0.0446 -0.1078
47879DOD     C387458  12.163   0.598  13.151 -0.0223  0.2197  0.1938
47880DOD     C187459  14.582   1.074  26.536 -0.0922 -0.1406  0.0290
47880DOD     C287460  14.350   1.500  26.502  0.2112 -0.2244  0.1289
47880DOD     C387461  14.596   1.876  26.528  0.1945 -0.1835 -0.2666
47881DOD     C187462   4.839   7.981  19.483  0.1981  0.3279  0.1086
47881DOD     C287463   4.678   8.416  19.294 -0.0147  0.3565 -0.1642
47881DOD     C387464   4.773   8.827  19.122 -0.2409 -0.3246 -0.0885
47882DOD     C187465  12.694  18.824   9.249  0.1148 -0.0891 -0.4107
47882DOD     C287466  13.000  19.189   9.326  0.0985  0.0378  0.0700
47882DOD     C387467  13.413  19.345   9.370  0.0708  0.0153 -0.0770
47883DOD     C187468  17.876  25.977  11.424 -0.0215 -0.0648 -0.4414
47883DOD     C287469  17.693  25.995  10.963 -0.0903  0.1137  0.1176
47883DOD     C387470  17.539  26.139  10.537 -0.2409 -0.2213 -0.0192
47884DOD     C187471   0.923   9.757  28.527  0.0069 -0.1278 -0.0380
47884DOD     C287472   0.686  10.159  28.584 -0.2727 -0.3500 -0.1042
47884DOD     C387473   0.789  10.573  28.810 -0.1173  0.1029  0.3732
47885DOD     C187474  10.874   2.402   7.993 -0.0569  0.1060  0.0414
47885DOD     C287475  11.080   2.542   8.439  0.0636 -0.0401 -0.1145
47885DOD     C387476  11.341   2.899   8.705 -0.0787 -0.1299  0.0568
47886DOD     C187477  11.316  15.833   4.135 -0.3233 -0.0840 -0.2483
47886DOD     C287478  11.244  15.377   4.029 -0.1453 -0.0723 -0.1062
47886DOD     C387479  11.150  14.959   4.170  0.0933 -0.1726 -0.0396
47887DOD     C187480  25.004  17.202  26.190 -0.0301  0.1677 -0.0894
47887DOD     C287481  24.989  17.102  25.739 -0.0865  0.2547 -0.0796
47887DOD     C387482  24.985  17.451  25.413  0.3043  0.1065  0.0866
47888DOD     C187483  19.173   2.549  20.665 -0.1702  0.1028 -0.1315
47888DOD     C287484  18.878   2.853  20.384 -0.2864  0.4233 -0.2947
47888DOD     C387485  18.661   3.289  20.391  0.0037  0.1325 -0.2416
47889DOD     C187486   1.608  11.349  24.983 -0.0252  0.0748  0.1311
47889DOD     C287487   1.929  11.118  24.704  0.0262 -0.2737  0.1020
47889DOD     C387488   2.262  10.893  24.471 -0.1269  0.1630  0.0015
47890DOD     C187489  24.689  27.724   8.116  0.1637 -0.2093  0.1033
47890DOD     C287490  24.384  28.059   8.238 -0.1216  0.0318  0.1359
47890DOD     C387491  24.368  28.388   8.506  0.0138 -0.2478 -0.4401
47891DOD     C187492  18.781   6.225   8.929  0.2605 -0.0863  0.0465
47891DOD     C287493  18.389   6.369   8.760 -0.0473  0.1860 -0.0319
47891DOD     C387494  17.921   6.343   8.632 -0.2104  0.3854 -0.0575
47892DOD     C187495   2.224  30.300  25.765  0.2399 -0.0582 -0.0133
47892DOD     C287496   2.429  30.201  25.340 -0.2629 -0.0701  0.0849
47892DOD     C387497   2.853  30.125  25.238 -0.0158 -0.0376  0.1812
47893DOD     C187498  28.591  25.640  24.437  0.0568  0.0299  0.1507
47893DOD     C287499  28.281  25.566  24.114 -0.4126 -0.0004 -0.2471
47893DOD     C387500  28.360  25.106  23.920 -0.0885 -0.0024 -0.0998
47894DOD     C187501   9.645   0.737  29.731 -0.2382 -0.2710  0.2482
47894DOD     C287502   9.389   0.477  29.508  0.3106  0.3804  0.3990
47894DOD     C387503   8.898   0.484  29.478 -0.0986 -0.1154 -0.1871
47895DOD     C187504   5.246   4.465  19.272  0.1926 -0.1885  0.0901
47895DOD     C287505   4.912   4.661  19.100  0.2304  0.1391  0.0264
47895DOD     C387506   4.495   4.773  18.958 -0.2150 -0.2884 -0.1670
47896DOD     C187507  18.397  14.268  21.890  0.2604 -0.0390  0.3069
47896DOD     C287508  18.355  14.414  22.318 -0.0102 -0.2067 -0.0120
47896DOD     C387509  18.422  14.326  22.764 -0.0294 -0.0433  0.1819
47897DOD     C187510  27.383  25.810  14.568 -0.0078 -0.1184  0.0760
47897DOD     C287511  27.334  26.048  14.984 -0.0966  0.1156  0.0405
47897DOD     C387512  27.280  26.154  15.440  0.1037 -0.2988 -0.1089
47898DOD     C187513   9.422  18.926   3.573  0.0284  0.0510 -0.0861
47898DOD     C287514   9.552  19.319   3.828  0.1255 -0.0227  0.1690
47898DOD     C387515   9.248  19.566   4.091 -0.1743 -0.0522  0.0527
47899DOD     C187516  17.793   2.751  13.141 -0.0618  0.1483 -0.0853
47899DOD     C287517  18.244   2.705  12.953  0.0877 -0.0264  0.3450
47899DOD     C387518  18.577   3.081  12.897  0.2157  0.0182  0.0296
47900DOD     C187519  16.586  19.992  11.296 -0.0363  0.1364 -0.1623
47900DOD     C287520  16.632  19.721  10.924 -0.0094  0.2530  0.0998
47900DOD     C387521  16.517  19.590  10.455 -0.1038 -0.0242 -0.2699
47901DOD     C187522  26.123  21.726   7.654 -0.2538 -0.0788 -0.2034
47901DOD     C287523  25.978  22.009   7.391 -0.2113 -0.2312 -0.0249
47901DOD     C387524  25.783  22.188   7.078  0.0054  0.0870  0.0620
47902DOD     C187525   4.344  15.483  12.654 -0.0620 -0.1740  0.1763
47902DOD     C287526   4.170  14.998  12.730 -0.0330 -0.2809 -0.1549
47902DOD     C387527   4.148  14.528  12.598  0.2525  0.0853  0.0085
47903DOD     C187528   4.857  28.132  19.140  0.3489  0.0166 -0.0135
47903DOD     C287529   4.754  28.386  18.774 -0.1997  0.2668 -0.0048
47903DOD     C387530   4.951  28.771  18.671 -0.0263  0.1905  0.0405
47904DOD     C187531   0.440  11.688  29.417 -0.0184 -0.2244  0.0250
47904DOD     C287532   0.789  11.762  29.140  0.2240  0.1103  0.1083
47904DOD     C387533   1.105  11.597  28.822  0.2203 -0.2104  0.0884
47905DOD     C187534  21.781  12.986   2.550 -0.2704 -0.2370  0.1677
47905DOD     C287535  21.888  13.140   2.134 -0.3944 -0.0155  0.3305
47905DOD     C387536  21.760  13.298   1.697  0.1161  0.1357 -0.0646
47906DOD     C187537  18.057   6.091  28.542 -0.0867 -0.1020 -0.0232
47906DOD     C287538  18.117   5.862  28.129 -0.0249  0.0856 -0.2183
47906DOD     C387539  18.465   5.685  27.869 -0.2182 -0.0604  0.0021
47907DOD     C187540   1.461   4.379   6.020 -0.2414  0.0275 -0.0989
47907DOD     C287541   1.366   4.028   5.793  0.1317  0.2257 -0.0530
47907DOD     C387542   1.179   3.666   5.756  0.5029 -0.1084 -0.3222
47908DOD     C187543  26.836   3.774   3.800 -0.3298  0.1247 -0.1031
47908DOD     C287544  26.881   3.421   4.099 -0.1079  0.1480  0.0312
47908DOD     C387545  27.249   3.168   4.199  0.0775  0.1916 -0.0705
47909DOD     C187546  17.998   3.793  20.465  0.1954  0.3241 -0.1117
47909DOD     C287547  18.336   3.779  20.153  0.1251 -0.0770  0.2906
47909DOD     C387548  18.791   3.728  20.203 -0.1311  0.1745 -0.3557
47910DOD     C187549   8.054  27.004   7.282  0.2406  0.2071 -0.0164
47910DOD     C287550   8.316  27.204   6.928 -0.1191  0.1263 -0.1446
47910DOD     C387551   8.477  27.645   6.864  0.0578  0.2278  0.1805
47911DOD     C187552  20.994  13.155  13.474 -0.1021 -0.0021  0.1074
47911DOD     C287553  20.726  13.516  13.362 -0.2468  0.0804 -0.0054
47911DOD     C387554  20.270  13.586  13.375  0.1575  0.1036  0.1687
47912DOD     C187555  17.008   9.339  29.272  0.0895 -0.0958 -0.0603
47912DOD     C287556  17.015   8.845  29.379  0.0995  0.2350 -0.0547
47912DOD     C387557  16.845   8.473  29.554  0.3212 -0.2715 -0.3032
47913DOD     C187558  23.166  23.962  22.948  0.1250  0.1842  0.1869
47913DOD     C287559  23.393  24.252  22.742 -0.0260 -0.2418 -0.1947
47913DOD     C387560  23.545  24.696  22.713  0.4809  0.2831 -0.3125
47914DOD     C187561  19.265   8.695  19.613  0.0006  0.0190 -0.0248
47914DOD     C287562  19.719   8.646  19.498 -0.2218  0.3706 -0.0206
47914DOD     C387563  20.091   8.469  19.389  0.0808 -0.0086 -0.2833
47915DOD     C187564   5.429  26.675  12.195  0.1711  0.2680  0.2270
47915DOD     C287565   5.830  26.916  12.432  0.3117 -0.4556 -0.1403
47915DOD     C387566   6.320  26.893  12.403  0.0958  0.1034  0.0364
47916DOD     C187567  21.485  10.415   6.054  0.2351 -0.1739  0.1001
47916DOD     C287568  21.402  10.001   6.287 -0.0828 -0.2310 -0.4101
47916DOD     C387569  21.461   9.795   6.671 -0.0020 -0.1291 -0.2500
47917DOD     C187570  25.940  14.446   8.575  0.1208  0.2352  0.0457
47917DOD     C287571  25.920  13.985   8.633 -0.2081  0.1113 -0.0118
47917DOD     C387572  26.245  13.628   8.604  0.0540 -0.3780 -0.2984
47918DOD     C187573   3.458  18.940   6.716  0.3595 -0.0852  0.4531
47918DOD     C287574   3.883  18.862   6.756 -0.0360  0.2070 -0.0052
47918DOD     C387575   4.243  18.656   6.530  0.1806 -0.0208 -0.1826
47919DOD     C187576  29.907   4.703  20.872  0.2389 -0.1012  0.2246
47919DOD     C287577  30.156   4.510  21.163 -0.2170  0.0723  0.2451
47919DOD     C387578   0.101   4.113  21.246 -0.3435 -0.0312 -0.3164
47920DOD     C187579  22.814  27.425  18.897  0.1008 -0.0943  0.0234
47920DOD     C287580  23.213  27.608  18.724 -0.0285 -0.1723  0.1695
47920DOD     C387581  23.347  27.944  18.365 -0.0815 -0.2179  0.0025
47921DOD     C187582  21.126   2.886   1.862 -0.0430  0.2901 -0.2489
47921DOD     C287583  21.415   3.185   1.598  0.0139  0.1610 -0.2648
47921DOD     C387584  21.657   3.263   1.219 -0.1864  0.3291 -0.1854
47922DOD     C187585  10.766  16.644  13.537 -0.0648  0.0686 -0.1782
47922DOD     C287586  11.125  16.864  13.256  0.2368 -0.0936 -0.1084
47922DOD     C387587  11.373  17.128  12.974 -0.0359  0.0868 -0.1712
47923DOD     C187588  19.706   7.717  21.241  0.2049  0.0005  0.0193
47923DOD     C287589  19.680   8.204  21.336 -0.1979  0.3188 -0.1201
47923DOD     C387590  19.602   8.556  21.547  0.1192  0.1188 -0.2889
47924DOD     C187591  16.748  18.480  21.252 -0.2244  0.1117  0.1762
47924DOD     C287592  17.050  18.860  21.137  0.4251  0.2231  0.3838
47924DOD     C387593  17.000  19.313  21.288 -0.0705  0.0293 -0.1548
47925DOD     C187594  22.828  15.496   3.749  0.4727 -0.1842 -0.2032
47925DOD     C287595  22.579  15.147   3.637  0.1736  0.1917 -0.1311
47925DOD     C387596  22.286  14.859   3.348  0.1090 -0.0577  0.2912
47926DOD     C187597  26.531  17.937  13.860 -0.2900 -0.1011 -0.1151
47926DOD     C287598  26.795  17.639  14.062 -0.1476 -0.0944 -0.0786
47926DOD     C387599  26.997  17.354  14.387 -0.1286 -0.2251 -0.1584
47927DOD     C187600   2.373  18.781  20.831  0.4073 -0.1509 -0.3335
47927DOD     C287601   1.996  18.615  20.578 -0.0559 -0.2500  0.0306
47927DOD     C387602   1.572  18.470  20.322  0.0740  0.0031  0.2321
47928DOD     C187603  24.643  24.068  26.369 -0.4808  0.6824 -0.2763
47928DOD     C287604  24.336  23.884  26.745  0.3736  0.1478 -0.1656
47928DOD     C387605  23.955  23.620  26.720 -0.1278  0.1256 -0.2486
47929DOD     C187606  25.974  22.938   5.926 -0.1655 -0.4984  0.2214
47929DOD     C287607  25.994  22.820   6.369  0.1367  0.0578  0.2843
47929DOD     C387608  26.063  23.128   6.738 -0.3164 -0.3940 -0.1631
47930DOD     C187609  25.475  25.615  22.865 -0.2419 -0.1346 -0.0502
47930DOD     C287610  25.536  25.280  23.124 -0.0699 -0.0838  0.1097
47930DOD     C387611  25.548  24.821  23.354 -0.2333  0.1756  0.2242
47931DOD     C187612  13.444  22.291  19.687  0.0670  0.0057 -0.2092
47931DOD     C287613  13.415  22.733  19.804 -0.0894  0.3042 -0.3613
47931DOD     C387614  13.639  23.047  19.579 -0.0222 -0.0150  0.1776
47932DOD     C187615  16.781   8.227  24.262  0.3055  0.0667 -0.0121
47932DOD     C287616  16.732   7.774  24.263  0.2707  0.1129 -0.0090
47932DOD     C387617  16.947   7.419  24.484  0.0550 -0.2991 -0.0813
47933DOD     C187618  12.786   1.331  10.170 -0.0204  0.1690  0.2934
47933DOD     C287619  13.274   1.374  10.066  0.0556 -0.0248  0.1470
47933DOD     C387620  13.667   1.389   9.736 -0.0721 -0.0182  0.0686
47934DOD     C187621  12.991  27.166  27.668  0.0544  0.0831 -0.1486
47934DOD     C287622  12.586  27.201  27.544 -0.1008  0.0280  0.2708
47934DOD     C387623  12.382  27.492  27.245 -0.1617  0.5299  0.1957
47935DOD     C187624  28.065  14.976  26.455 -0.1955 -0.0655 -0.3719
47935DOD     C287625  28.297  15.009  26.843 -0.1224  0.1745  0.0028
47935DOD     C387626  28.295  15.053  27.287  0.1303  0.1285  0.0598
47936DOD     C187627   3.800  27.038  19.682 -0.0858 -0.1671 -0.0069
47936DOD     C287628   3.695  26.631  19.442 -0.3669  0.1042 -0.0452
47936DOD     C387629   3.386  26.375  19.268  0.0506  0.0155  0.0079
47937DOD     C187630   7.090  22.557   8.358 -0.1142  0.1694  0.3741
47937DOD     C287631   7.102  22.967   8.144 -0.3084  0.0008  0.0135
47937DOD     C387632   7.102  23.429   8.053 -0.1331  0.0307  0.2763
47938DOD     C187633  14.040   0.565  18.450  0.0403 -0.1942 -0.2540
47938DOD     C287634  14.344   0.732  18.231 -0.1204 -0.1675  0.0287
47938DOD     C387635  14.329   1.052  17.906  0.0701 -0.1600 -0.2544
47939DOD     C187636   3.417   8.493  28.912 -0.2356  0.2210  0.0240
47939DOD     C287637   3.493   8.716  29.335  0.1665  0.3169 -0.0562
47939DOD     C387638   3.458   8.933  29.778 -0.1557  0.0895 -0.0937
47940DOD     C187639  23.023   1.735   3.520 -0.2676  0.3955  0.2007
47940DOD     C287640  22.892   1.278   3.632  0.1540 -0.1286  0.0807
47940DOD     C387641  22.706   0.896   3.865  0.0415 -0.2967 -0.0275
47941DOD     C187642  29.734  24.072   4.403 -0.1295 -0.2524 -0.2405
47941DOD     C287643  30.018  23.837   4.154 -0.4347  0.0505 -0.3091
47941DOD     C387644   0.150  23.717   4.262 -0.0153 -0.2576  0.4486
47942DOD     C187645  23.197   5.604   0.281 -0.1146 -0.1439  0.1261
47942DOD     C287646  22.786   5.369   0.233  0.0138  0.2057 -0.1080
47942DOD     C387647  22.362   5.616   0.193  0.4623  0.3523  0.0540
47943DOD     C187648  14.091   3.064  24.530  0.0353 -0.2343 -0.3160
47943DOD     C287649  14.328   2.667  24.580  0.2972 -0.2266  0.0617
47943DOD     C387650  14.567   2.423  24.904  0.1646 -0.1791 -0.2187
47944DOD     C187651  18.507  14.131  18.949 -0.0682  0.2524  0.3390
47944DOD     C287652  18.754  14.455  19.163 -0.4571  0.0564 -0.0868
47944DOD     C387653  19.187  14.367  19.306 -0.2957  0.1004 -0.2649
47945DOD     C187654  26.783   6.568  17.377  0.0170 -0.0498  0.0738
47945DOD     C287655  26.688   6.809  17.012  0.0365 -0.3187 -0.1115
47945DOD     C387656  26.583   7.157  16.800  0.4160  0.0518  0.1575
47946DOD     C187657  20.995   9.526   5.637  0.0755 -0.0582 -0.0245
47946DOD     C287658  21.317   9.239   5.565  0.0162  0.0616  0.1463
47946DOD     C387659  21.660   8.950   5.635  0.1045  0.3387  0.3041
47947DOD     C187660   7.821  19.217  27.801 -0.1251 -0.1911 -0.2930
47947DOD     C287661   7.645  18.896  27.547  0.2004 -0.1175  0.0573
47947DOD     C387662   7.519  18.480  27.370 -0.0284  0.0683  0.4120
47948DOD     C187663   9.226  17.981   1.874 -0.0911  0.0681 -0.1224
47948DOD     C287664   9.581  18.299   1.932  0.0308  0.2470  0.2915
47948DOD     C387665   9.933  18.558   1.865  0.2870 -0.1474 -0.2964
47949DOD     C187666  20.814  15.081   7.961  0.0508 -0.2641 -0.0523
47949DOD     C287667  20.406  15.086   7.735 -0.1284  0.1834  0.1930
47949DOD     C387668  19.873  15.109   7.727 -0.0793  0.2087  0.1416
47950DOD     C187669  10.058  20.305  17.320 -0.3684  0.0815 -0.0431
47950DOD     C287670  10.450  20.108  17.148 -0.0106 -0.0741 -0.3204
47950DOD     C387671  10.687  19.822  16.839  0.1463 -0.4933  0.1875
47951DOD     C187672  21.967   8.678   6.803  0.2915 -0.1078 -0.0834
47951DOD     C287673  22.225   9.041   6.846  0.0033  0.1666  0.2683
47951DOD     C387674  22.243   9.462   6.999  0.0377 -0.2611 -0.0762
47952DOD     C187675  22.572   7.884   9.484  0.0322 -0.0920 -0.1843
47952DOD     C287676  22.098   7.804   9.523  0.1278 -0.3101  0.0126
47952DOD     C387677  21.627   7.706   9.488  0.0883  0.2793  0.3212
47953DOD     C187678  23.166  15.528  25.161  0.1116  0.0986 -0.0306
47953DOD     C287679  22.807  15.768  25.377  0.2444 -0.1978  0.1213
47953DOD     C387680  22.390  15.855  25.605  0.0987 -0.1735 -0.0000
47954DOD     C187681  28.944   8.783  10.167  0.0153  0.1966  0.0480
47954DOD     C287682  28.699   8.343  10.087  0.0194  0.3132 -0.0690
47954DOD     C387683  28.443   8.135  10.407  0.1835 -0.0321 -0.2009
47955DOD     C187684   4.363  23.533  25.784 -0.0794  0.0779 -0.0619
47955DOD     C287685   4.193  23.629  25.401 -0.0043  0.0077  0.0650
47955DOD     C387686   4.178  23.922  25.013  0.0558 -0.3194  0.2143
47956DOD     C187687  11.434  14.320   9.758  0.0018  0.0815  0.0666
47956DOD     C287688  11.774  14.040   9.892  0.1756 -0.1988 -0.1979
47956DOD     C387689  12.182  13.993   9.999 -0.0583 -0.0554  0.2590
47957DOD     C187690  20.277   2.438  18.125  0.2163 -0.0812  0.1428
47957DOD     C287691  20.011   2.750  17.890 -0.3467 -0.1022 -0.4858
47957DOD     C387692  19.538   2.768  17.694  0.1058 -0.0521 -0.1279
47958DOD     C187693  16.175  13.248  13.579 -0.1887  0.1063  0.2933
47958DOD     C287694  16.489  12.918  13.673  0.0162 -0.2034  0.2162
47958DOD     C387695  16.596  12.654  14.082  0.1303  0.3797 -0.1660
47959DOD     C187696  26.899   1.949  13.700 -0.0492  0.1923 -0.3054
47959DOD     C287697  27.033   2.332  13.994 -0.0415 -0.0515 -0.1226
47959DOD     C387698  27.137   2.640  14.373  0.3167 -0.0319  0.1333
47960DOD     C187699  10.717   5.364  28.101  0.2335 -0.1064 -0.1487
47960DOD     C287700  10.999   5.627  28.379  0.1921 -0.2228 -0.2289
47960DOD     C387701  11.404   5.730  28.576  0.0498  0.0189 -0.1708
47961DOD     C187702  28.713  13.315  18.156 -0.0889 -0.2597  0.0474
47961DOD     C287703  28.572  13.715  17.934  0.0351 -0.0214 -0.1810
47961DOD     C387704  28.731  14.149  17.787  0.0434  0.1076 -0.0492
47962DOD     C187705  15.425  17.402  13.793 -0.2088 -0.1312  0.1560
47962DOD     C287706  14.967  17.387  13.596 -0.3158  0.0736  0.0962
47962DOD     C387707  14.737  17.290  13.212 -0.0924  0.0557 -0.0803
47963DOD     C187708  14.207   9.940  26.742 -0.0887  0.1328 -0.1148
47963DOD     C287709  14.505   9.942  26.346 -0.0195  0.0682 -0.0338
47963DOD     C387710  14.406  10.082  25.873  0.1173 -0.1199 -0.2015
47964DOD     C187711  23.862  29.256   8.291 -0.0791  0.0733  0.1243
47964DOD     C287712  23.671  28.900   8.061  0.1757  0.1825 -0.1017
47964DOD     C387713  23.669  28.537   7.777  0.1365  0.3545 -0.3365
47965DOD     C187714  16.343  14.960   6.887  0.1401  0.2347 -0.4201
47965DOD     C287715  15.949  14.790   6.714 -0.1670 -0.0014  0.3880
47965DOD     C387716  15.574  15.051   6.565 -0.0097 -0.2731  0.0052
47966DOD     C187717   0.853  10.251   9.138  0.2367 -0.0127 -0.2709
47966DOD     C287718   0.901  10.626   9.389 -0.1284 -0.0641  0.0444
47966DOD     C387719   1.111  10.827   9.738  0.1972 -0.2887 -0.1627
47967DOD     C187720   9.581   4.743  26.951  0.1853  0.0168 -0.0485
47967DOD     C287721   9.759   4.608  26.503 -0.2196  0.3248 -0.0976
47967DOD     C387722   9.721   4.568  26.050  0.3161  0.2156  0.4033
47968DOD     C187723  15.548  22.945   7.022 -0.2020  0.2150 -0.1329
47968DOD     C287724  15.573  23.263   6.702  0.0026 -0.2296 -0.1079
47968DOD     C387725  15.669  23.191   6.277 -0.0698  0.1081 -0.2332
47969DOD     C187726  19.518  27.246  29.702 -0.3017  0.0147  0.0949
47969DOD     C287727  19.486  27.658  29.892 -0.4184 -0.2624  0.1243
47969DOD     C387728  19.300  28.081  29.868 -0.2837  0.4726  0.0393
47970DOD     C187729   6.980  13.250  28.319 -0.0955  0.0091  0.2096
47970DOD     C287730   6.953  13.701  28.500  0.4491  0.0786  0.3587
47970DOD     C387731   6.659  13.972  28.281  0.0678 -0.0293  0.3060
47971DOD     C187732  20.713  26.878  25.895  0.2673 -0.1144 -0.0778
47971DOD     C287733  20.902  26.767  26.322 -0.0042 -0.1253  0.2854
47971DOD     C387734  20.987  26.458  26.680 -0.0404  0.0101  0.3023
47972DOD     C187735   2.215  15.867  13.307  0.0049 -0.0549  0.1233
47972DOD     C287736   2.517  15.468  13.419 -0.0385 -0.2260  0.1901
47972DOD     C387737   2.864  15.138  13.570 -0.0794  0.1126 -0.3365
47973DOD     C187738  14.767  16.322   5.553  0.3892  0.2659 -0.5797
47973DOD     C287739  14.653  16.428   6.014 -0.2412 -0.0889 -0.1530
47973DOD     C387740  14.472  16.621   6.437 -0.1351 -0.0634  0.1760
47974DOD     C187741   5.910  26.432   1.906 -0.0056 -0.2248  0.1659
47974DOD     C287742   6.325  26.272   1.951  0.1242  0.1825 -0.0218
47974DOD     C387743   6.517  26.146   1.533 -0.0102 -0.1569  0.1796
47975DOD     C187744  27.912  23.565  15.269 -0.0436  0.0416  0.0083
47975DOD     C287745  27.972  23.480  15.734 -0.0718 -0.0090  0.3102
47975DOD     C387746  28.076  23.110  15.976  0.1991  0.1026 -0.1390
47976DOD     C187747   2.330  18.075  17.659  0.2512  0.0953  0.0286
47976DOD     C287748   2.775  18.250  17.660  0.0091 -0.1705  0.1267
47976DOD     C387749   3.145  18.551  17.722 -0.2653 -0.1713 -0.0946
47977DOD     C187750  17.326  10.599  14.405 -0.1287 -0.2252 -0.0553
47977DOD     C287751  16.894  10.542  14.631  0.4364 -0.1005 -0.1755
47977DOD     C387752  16.654  10.733  15.035  0.0082 -0.0253  0.0225
47978DOD     C187753   7.610   0.246   4.248  0.2519  0.1310  0.1526
47978DOD     C287754   7.159   0.329   4.313 -0.0197 -0.1950  0.0453
47978DOD     C387755   6.996   0.477   4.719  0.5009 -0.3235  0.0040
47979DOD     C187756  24.434   3.199  21.432 -0.1397  0.3200  0.1483
47979DOD     C287757  24.855   2.989  21.468 -0.0530 -0.5197  0.0450
47979DOD     C387758  25.297   3.094  21.567  0.0333 -0.1491 -0.3025
47980DOD     C187759   0.221  29.072   5.045 -0.0516  0.2204  0.2435
47980DOD     C287760   0.258  28.672   4.870 -0.1357  0.1515  0.0192
47980DOD     C387761  30.199  28.461   4.736 -0.1699 -0.1275 -0.1029
47981DOD     C187762   5.669  12.055   4.921 -0.0884  0.0667  0.0266
47981DOD     C287763   5.373  12.143   5.263 -0.1168  0.0947  0.0676
47981DOD     C387764   5.409  12.300   5.726  0.1997  0.2238 -0.1387
47982DOD     C187765  11.808  10.563  20.904  0.0812 -0.0378  0.0324
47982DOD     C287766  11.894  10.545  21.369  0.2651 -0.1676 -0.1598
47982DOD     C387767  11.638  10.784  21.763  0.1965 -0.1064  0.1383
47983DOD     C187768  18.763   2.104  24.347 -0.1095 -0.1098  0.1211
47983DOD     C287769  18.479   1.750  24.262 -0.0350 -0.1534  0.0903
47983DOD     C387770  18.414   1.507  23.868 -0.1303  0.2102 -0.0100
47984DOD     C187771  26.543  19.939   7.494  0.1012 -0.1571  0.0602
47984DOD     C287772  26.129  19.705   7.289 -0.4083 -0.0372  0.2160
47984DOD     C387773  25.670  19.825   7.289 -0.4341  0.0835 -0.3210
47985DOD     C187774  25.173  11.268  25.968  0.2619  0.0880  0.3139
47985DOD     C287775  25.068  11.064  25.573  0.0124  0.0550  0.1815
47985DOD     C387776  25.140  10.730  25.219 -0.4404 -0.1427 -0.1155
47986DOD     C187777  17.841  17.351  14.757 -0.1966  0.1690  0.3293
47986DOD     C287778  17.967  17.048  14.477  0.0590  0.0981  0.1012
47986DOD     C387779  17.942  16.772  14.057 -0.0456  0.1644 -0.2994
47987DOD     C187780   2.436   9.423   2.566 -0.3995 -0.2083  0.1380
47987DOD     C287781   2.603   9.768   2.885 -0.2428  0.0550 -0.1375
47987DOD     C387782   2.971   9.873   3.107 -0.1336 -0.0733  0.2433
47988DOD     C187783  27.427   3.998   0.016  0.3318 -0.1739  0.0661
47988DOD     C287784  27.143   3.777   0.307 -0.0285 -0.3670 -0.2384
47988DOD     C387785  26.815   3.503   0.497  0.0910 -0.3086  0.1156
47989DOD     C187786  21.238  29.700   1.966 -0.1329 -0.0019 -0.0247
47989DOD     C287787  21.396  30.095   2.049 -0.4783  0.2249  0.0289
47989DOD     C387788  21.553   0.089   1.761 -0.3251 -0.1509 -0.0006
47990DOD     C187789  21.181  11.673   8.813 -0.1173  0.1317 -0.0432
47990DOD     C287790  21.145  12.071   8.979  0.2197  0.0003  0.1677
47990DOD     C387791  20.866  12.312   9.284  0.2063 -0.0252 -0.0449
47991DOD     C187792  23.603  22.312  24.524  0.0313 -0.0851  0.1535
47991DOD     C287793  23.691  22.211  25.005 -0.1150  0.0682 -0.3029
47991DOD     C387794  23.581  22.268  25.489  0.5039  0.1557  0.1271
47992DOD     C187795  23.806  22.152   3.194  0.0878 -0.2176  0.0406
47992DOD     C287796  24.232  22.223   3.123  0.0765 -0.2454  0.2026
47992DOD     C387797  24.675  22.372   3.255 -0.1332 -0.1714 -0.2951
47993DOD     C187798  23.374  27.635  19.724  0.1238 -0.0755 -0.2882
47993DOD     C287799  23.346  27.701  20.188 -0.0709 -0.2402  0.1473
47993DOD     C387800  23.180  27.622  20.606  0.1914  0.0370 -0.5444
47994DOD     C187801  22.538  21.204  19.898  0.1057  0.0174 -0.0519
47994DOD     C287802  22.077  21.266  19.921  0.2370  0.0412  0.0341
47994DOD     C387803  21.855  20.878  19.995  0.1803  0.0763  0.0700
47995DOD     C187804  18.214  26.212  10.544 -0.0946  0.0528 -0.4070
47995DOD     C287805  18.670  26.157  10.464  0.2373  0.0005 -0.2398
47995DOD     C387806  19.085  26.244  10.235 -0.0835 -0.1290 -0.1112
47996DOD     C187807   0.352   5.127  22.276 -0.0307 -0.1611  0.0977
47996DOD     C287808   0.287   4.959  21.843 -0.0760 -0.1235 -0.2513
47996DOD     C387809   0.213   4.839  21.352  0.1888 -0.0566  0.2693
47997DOD     C187810  25.401  23.549  29.749 -0.0388 -0.6355 -0.2916
47997DOD     C287811  25.774  23.343  29.575 -0.2656  0.4029 -0.1943
47997DOD     C387812  26.130  23.453  29.273 -0.1685 -0.3263  0.1197
47998DOD     C187813  29.489   8.865  28.855  0.1839 -0.0077  0.1019
47998DOD     C287814  29.414   9.181  29.208 -0.0956 -0.0521 -0.2025
47998DOD     C387815  29.349   9.614  29.393  0.0234  0.3139  0.0792
47999DOD     C187816  24.856   9.233  20.585 -0.1868 -0.0224 -0.2550
47999DOD     C287817  24.738   8.776  20.641 -0.1749 -0.4822  0.1479
47999DOD     C387818  24.446   8.509  20.497  0.1108 -0.0346 -0.0404
48000DOD     C187819  19.966   9.161  20.838  0.0811 -0.0077  0.0995
48000DOD     C287820  19.670   8.811  20.738  0.0486 -0.0842  0.0570
48000DOD     C387821  19.519   8.476  20.454  0.0486  0.0984  0.0933
48001DOD     C187822   3.407  19.425  19.988 -0.1184  0.2926  0.0427
48001DOD     C287823   3.138  19.591  20.332  0.4311  0.2463  0.1219
48001DOD     C387824   2.965  19.505  20.760  0.3197 -0.1360 -0.0800
48002DOD     C187825  27.140   9.524  11.812  0.0578 -0.2455  0.3773
48002DOD     C287826  27.418   9.162  11.966 -0.4304 -0.0836  0.0275
48002DOD     C387827  27.388   8.712  11.935 -0.2917  0.3668 -0.1201
48003DOD     C187828   8.172  30.224  25.683 -0.2085  0.1404 -0.0273
48003DOD     C287829   8.551   0.103  25.502  0.0713  0.3013  0.2832
48003DOD     C387830   8.570   0.251  25.033 -0.1381 -0.1251 -0.0668
48004DOD     C187831  13.367  29.548   5.923  0.3144  0.0574 -0.2199
48004DOD     C287832  13.580  29.960   5.804  0.1244 -0.1283  0.0317
48004DOD     C387833  13.435   0.070   5.604  0.0712 -0.0861 -0.1074
48005DOD     C187834  20.308  29.908  18.025 -0.0135 -0.0237 -0.0721
48005DOD     C287835  20.535  30.243  17.873 -0.1465  0.0057  0.2309
48005DOD     C387836  20.778   0.209  17.609  0.1610  0.0015 -0.2743
48006DOD     C187837   6.169  19.963  18.110 -0.0114 -0.0617  0.1286
48006DOD     C287838   6.540  19.803  18.201 -0.2942 -0.0695 -0.2298
48006DOD     C387839   6.812  19.740  18.509 -0.0515  0.1890 -0.0634
48007DOD     C187840  16.899  21.023  18.928 -0.0717 -0.1943  0.2252
48007DOD     C287841  16.519  21.292  18.905  0.1111 -0.0147 -0.0448
48007DOD     C387842  16.393  21.686  19.016  0.0565  0.1232  0.1253
48008DOD     C187843   7.926  21.148  26.131 -0.1632  0.3123 -0.1715
48008DOD     C287844   8.003  21.628  26.067  0.1541  0.0097 -0.6812
48008DOD     C387845   8.116  21.908  25.747 -0.2909  0.2260  0.1176
48009DOD     C187846  10.688  24.032  24.314 -0.2977 -0.1462 -0.0078
48009DOD     C287847  10.792  23.747  24.679  0.0552  0.3302  0.0594
48009DOD     C387848  10.606  23.752  25.076  0.1709  0.1766 -0.2578
48010DOD     C187849   3.365  22.405  24.723 -0.0343 -0.3356 -0.0501
48010DOD     C287850   3.312  22.001  24.475 -0.1763  0.1346 -0.1448
48010DOD     C387851   3.519  21.687  24.138  0.2385 -0.0364  0.0488
48011DOD     C187852  11.952  10.979   3.908 -0.1234  0.0322  0.4867
48011DOD     C287853  11.817  11.103   3.477  0.2652 -0.0843 -0.2728
48011DOD     C387854  11.679  10.867   3.111 -0.1139  0.1058  0.0892
48012DOD     C187855  13.406  10.769   8.527 -0.0824  0.2944 -0.2100
48012DOD     C287856  13.069  10.560   8.847 -0.0228  0.1577  0.1884
48012DOD     C387857  12.630  10.650   8.691 -0.0669  0.1083  0.0034
48013DOD     C187858   4.827  29.575  10.762  0.0439  0.1442  0.0483
48013DOD     C287859   4.847  30.059  10.688 -0.3364  0.2091 -0.1592
48013DOD     C387860   4.928   0.210  10.686 -0.2464  0.3311 -0.0007
48014DOD     C187861   0.944  12.904   0.967  0.0557 -0.1663  0.0461
48014DOD     C287862   1.072  12.553   0.640  0.2190 -0.0179  0.1638
48014DOD     C387863   1.436  12.257   0.489  0.1754 -0.0917 -0.1057
48015DOD     C187864  14.175   0.715  26.928  0.0970  0.2580  0.0271
48015DOD     C287865  14.457   1.048  27.065  0.0483  0.0384  0.0764
48015DOD     C387866  14.743   1.233  27.342 -0.1993  0.1480  0.2482
48016DOD     C187867  16.674  28.886  14.844  0.4133 -0.0479  0.0696
48016DOD     C287868  17.121  28.830  15.003 -0.3333  0.0069 -0.0088
48016DOD     C387869  17.484  28.730  15.300  0.2823  0.0738  0.2977
48017DOD     C187870  19.813  29.302   0.403 -0.1390  0.0616 -0.1202
48017DOD     C287871  19.430  29.036   0.383 -0.3152 -0.1005 -0.0262
48017DOD     C387872  18.981  28.955   0.212  0.1252 -0.0658  0.0688
48018DOD     C187873  16.745   2.477  26.465 -0.3283 -0.0727 -0.1248
48018DOD     C287874  16.425   2.735  26.643 -0.0435  0.1272 -0.4336
48018DOD     C387875  16.048   2.849  26.895  0.0615  0.2108  0.3731
48019DOD     C187876  27.930   8.232   3.482  0.1357  0.1129 -0.1855
48019DOD     C287877  28.398   8.205   3.514 -0.3239  0.3031  0.2804
48019DOD     C387878  28.832   8.215   3.615 -0.2988 -0.1504 -0.3442
48020DOD     C187879   1.430  21.641  29.828  0.0469  0.2556 -0.0850
48020DOD     C287880   1.335  21.373  29.415  0.1074 -0.2270 -0.0096
48020DOD     C387881   1.002  21.084  29.270  0.0828  0.2654 -0.1030
48021DOD     C187882  14.049  17.358  11.142  0.2933 -0.0179 -0.0478
48021DOD     C287883  14.322  17.578  11.481  0.1756 -0.1335  0.0627
48021DOD     C387884  14.676  17.736  11.783  0.0340 -0.0386 -0.2086
48022DOD     C187885  14.181   2.317  29.005  0.3066  0.2037  0.0962
48022DOD     C287886  14.373   1.930  29.178  0.0554  0.0646 -0.1429
48022DOD     C387887  14.423   1.552  29.562 -0.2815  0.1184  0.0996
48023DOD     C187888  29.051   4.585  18.719 -0.1579  0.0315  0.1698
48023DOD     C287889  29.380   4.664  18.366  0.2355  0.0475 -0.0050
48023DOD     C387890  29.842   4.641  18.227  0.1817  0.4644 -0.1555
48024DOD     C187891  29.389  26.339  12.490 -0.1984  0.2104 -0.0456
48024DOD     C287892  29.677  26.559  12.772 -0.0466  0.1700 -0.0876
48024DOD     C387893  29.914  26.966  12.725 -0.1370  0.0458  0.2563
48025DOD     C187894   6.117  28.565   4.790 -0.1567  0.0896  0.0764
48025DOD     C287895   5.695  28.482   4.904  0.1250  0.1099  0.1443
48025DOD     C387896   5.440  28.149   5.151  0.0985  0.2073 -0.0079
48026DOD     C187897   1.833  13.323  23.398 -0.0470  0.1071  0.2112
48026DOD     C287898   2.271  13.366  23.390 -0.1095 -0.1216  0.0110
48026DOD     C387899   2.655  13.585  23.246 -0.4409 -0.0259 -0.1501
48027DOD     C187900  15.315  25.823  15.211  0.0887 -0.3209  0.1152
48027DOD     C287901  15.286  26.277  15.308 -0.0481 -0.1508  0.0471
48027DOD     C387902  15.431  26.656  15.157 -0.3316 -0.1196  0.1944
48028DOD     C187903  17.489  27.140  29.367 -0.0149 -0.0182  0.2014
48028DOD     C287904  17.032  27.183  29.458 -0.2774 -0.0578  0.0864
48028DOD     C387905  16.656  27.139  29.737 -0.0738  0.1581 -0.3892
48029DOD     C187906  22.269  25.037  16.323 -0.0301  0.1275  0.0158
48029DOD     C287907  22.023  24.947  16.688  0.0479  0.1854  0.0051
48029DOD     C387908  21.732  24.697  16.918  0.1393 -0.0069  0.2634
48030DOD     C187909  25.951   5.229   5.808  0.3147 -0.1600 -0.0153
48030DOD     C287910  25.644   4.949   5.950 -0.0636 -0.1651 -0.0342
48030DOD     C387911  25.557   4.478   5.776  0.2007 -0.4291 -0.1546
48031DOD     C187912  14.880   0.949  24.838 -0.0309  0.2213 -0.4104
48031DOD     C287913  14.635   0.815  25.252 -0.0134  0.1057 -0.1270
48031DOD     C387914  14.261   1.145  25.428  0.0859  0.0704 -0.0114
48032DOD     C187915   6.249   8.279  20.763  0.3656 -0.1202  0.0756
48032DOD     C287916   6.694   8.490  20.845  0.2346  0.1772 -0.2092
48032DOD     C387917   7.042   8.747  20.661  0.0187  0.1703 -0.1638
48033DOD     C187918  29.414  26.260   2.516 -0.3297 -0.0410 -0.4363
48033DOD     C287919  29.018  26.520   2.553 -0.2113 -0.2789 -0.1521
48033DOD     C387920  28.908  26.782   2.203 -0.0388 -0.0426  0.0818
48034DOD     C187921  23.627   1.726  21.526  0.1258 -0.1567  0.2794
48034DOD     C287922  23.888   1.753  21.229  0.0458 -0.0527 -0.0742
48034DOD     C387923  24.322   2.003  21.299 -0.0885  0.2584 -0.0454
48035DOD     C187924  13.825  28.911  16.066 -0.0579 -0.0664  0.1872
48035DOD     C287925  13.904  29.255  16.388  0.2274  0.1072  0.2849
48035DOD     C387926  13.624  29.317  16.736 -0.0217  0.3875  0.1526
48036DOD     C187927   1.505   1.181   4.775 -0.1108 -0.2931 -0.1583
48036DOD     C287928   1.899   1.182   4.600 -0.1436 -0.0891 -0.2371
48036DOD     C387929   2.397   1.117   4.479 -0.0907  0.1629  0.0324
48037DOD     C187930  29.693  10.842   8.199 -0.1897 -0.0432  0.1993
48037DOD     C287931  29.864  10.841   8.645  0.2205  0.0607 -0.2234
48037DOD     C387932  29.844  10.889   9.106  0.4176  0.1683  0.1585
48038DOD     C187933   5.575  27.115  16.833  0.2733 -0.0706  0.0979
48038DOD     C287934   5.672  27.145  17.281  0.4783  0.1247  0.0702
48038DOD     C387935   5.650  26.932  17.658  0.1696  0.0912  0.0715
48039DOD     C187936  21.971  12.849   1.142  0.1288 -0.3228 -0.0699
48039DOD     C287937  22.265  12.964   1.442 -0.0952 -0.1572  0.3007
48039DOD     C387938  22.738  12.803   1.584 -0.2534 -0.0165 -0.2311
48040DOD     C187939  20.552  16.002   9.897 -0.0469 -0.2006 -0.1627
48040DOD     C287940  20.391  16.379  10.091 -0.0283  0.1349 -0.0918
48040DOD     C387941  20.029  16.625   9.887  0.0856  0.1659  0.1175
48041DOD     C187942   0.040  26.595   0.137  0.0152 -0.1495 -0.1648
48041DOD     C287943   0.359  26.289   0.220  0.0932  0.1104 -0.0876
48041DOD     C387944   0.372  25.835   0.115  0.0253  0.2932 -0.1293
48042DOD     C187945  27.835   6.396  15.575 -0.3398 -0.1021  0.1159
48042DOD     C287946  27.620   6.767  15.778 -0.1141  0.0872 -0.2568
48042DOD     C387947  27.297   7.069  15.894 -0.1437  0.2299 -0.4673
48043DOD     C187948  29.858   2.541   3.206  0.0245  0.1451 -0.2220
48043DOD     C287949  29.485   2.496   2.935 -0.3445  0.0053 -0.1393
48043DOD     C387950  29.506   2.205   2.622 -0.2872  0.1309  0.2644
48044DOD     C187951  11.977   6.827  16.097  0.1969  0.2550 -0.3229
48044DOD     C287952  12.411   6.586  16.221 -0.0914  0.1462  0.1710
48044DOD     C387953  12.451   6.480  16.622 -0.0198 -0.0692 -0.3713
48045DOD     C187954  24.732   7.373  22.703 -0.1922 -0.3510  0.0801
48045DOD     C287955  24.592   7.807  22.803  0.1059  0.1283 -0.1366
48045DOD     C387956  24.394   8.129  22.559 -0.1134 -0.0707  0.0524
48046DOD     C187957   4.962   0.239   2.282  0.0402 -0.0059 -0.3252
48046DOD     C287958   5.166   0.109   2.671 -0.1514 -0.2130 -0.1897
48046DOD     C387959   5.172   0.183   3.114  0.2896 -0.1371  0.0703
48047DOD     C187960  24.489   5.279  14.038 -0.3051 -0.0303  0.0851
48047DOD     C287961  24.652   5.514  14.415 -0.1972 -0.0982 -0.1885
48047DOD     C387962  24.986   5.647  14.697 -0.1699 -0.0110 -0.0770
48048DOD     C187963   1.241  19.975  21.587  0.1473 -0.1420 -0.0906
48048DOD     C287964   1.552  20.105  21.247  0.3593  0.2724  0.2177
48048DOD     C387965   1.606  20.286  20.833  0.0604  0.2657  0.3529
48049DOD     C187966  18.313  22.138  22.272  0.0247 -0.3635  0.0589
48049DOD     C287967  18.219  22.434  22.570 -0.0453 -0.4735  0.1567
48049DOD     C387968  17.883  22.500  22.845 -0.0913  0.0389  0.0943
48050DOD     C187969  22.055  20.954  24.798  0.0185 -0.1602 -0.2016
48050DOD     C287970  21.674  21.177  24.922 -0.1518  0.0743  0.0246
48050DOD     C387971  21.194  21.350  25.068 -0.0235 -0.1579  0.0105
48051DOD     C187972   2.160  19.909   3.794 -0.0217  0.4658  0.2606
48051DOD     C287973   2.163  19.435   3.674  0.5516  0.1341  0.1533
48051DOD     C387974   2.157  19.231   3.267  0.0158  0.0482  0.0370
48052DOD     C187975   2.368  24.734  26.454  0.0165 -0.1412 -0.0037
48052DOD     C287976   2.119  24.371  26.597 -0.0179  0.1003  0.0890
48052DOD     C387977   1.732  24.233  26.436  0.3417  0.3363  0.0073
48053DOD     C187978   4.284   9.098  26.338 -0.1685  0.2891 -0.2035
48053DOD     C287979   3.855   9.292  26.336  0.0284 -0.0272 -0.1754
48053DOD     C387980   3.587   9.543  26.666  0.0373 -0.3437 -0.0777
48054DOD     C187981  10.930  15.926   1.026 -0.2005  0.1104 -0.4102
48054DOD     C287982  10.608  15.790   0.722 -0.1524 -0.5113  0.1465
48054DOD     C387983  10.310  15.676   0.356  0.0412  0.0251  0.2286
48055DOD     C187984  24.712  16.394  19.277 -0.2090  0.0300 -0.1630
48055DOD     C287985  24.457  16.731  19.180  0.1121 -0.3271 -0.0383
48055DOD     C387986  24.155  17.100  19.174  0.0247 -0.1616  0.1948
48056DOD     C187987  20.819   9.044  20.810  0.3210 -0.2510  0.1539
48056DOD     C287988  20.461   9.189  21.036  0.1535 -0.1247 -0.0906
48056DOD     C387989  20.174   9.294  21.435  0.1298  0.2308  0.1465
48057DOD     C187990   5.073  24.821   2.235  0.0992  0.3175 -0.2836
48057DOD     C287991   5.532  24.834   2.277  0.1684 -0.1604  0.2546
48057DOD     C387992   5.843  24.529   2.295  0.0781  0.0459  0.1336
48058DOD     C187993  27.941   6.869   4.415  0.0958  0.1663  0.0082
48058DOD     C287994  28.083   6.931   4.865 -0.2377  0.1636  0.2938
48058DOD     C387995  28.012   6.657   5.213 -0.0961 -0.0983 -0.2039
48059DOD     C187996  11.146   7.922   8.917 -0.0766  0.0570  0.0548
48059DOD     C287997  10.793   7.906   8.600 -0.2583 -0.2785 -0.0032
48059DOD     C387998  10.688   8.092   8.150 -0.0925  0.0105  0.0542
48060DOD     C187999  17.448   2.329  13.126  0.2287 -0.1652 -0.1531
48060DOD     C288000  17.099   2.220  12.795 -0.2858  0.1060  0.2381
48060DOD     C388001  17.037   2.374  12.394 -0.2172 -0.1031 -0.1438
48061DOD     C188002  14.070   3.019  12.521 -0.0876 -0.0570  0.1118
48061DOD     C288003  14.232   3.050  12.088  0.0647  0.1462 -0.0801
48061DOD     C388004  14.350   3.359  11.779  0.2959  0.0695 -0.1071
48062DOD     C188005  26.475  12.703  16.186 -0.0694 -0.0518 -0.2064
48062DOD     C288006  26.639  13.010  16.568 -0.2642  0.3904 -0.0448
48062DOD     C388007  26.939  13.322  16.664  0.2071 -0.1039  0.0414
48063DOD     C188008  12.284   8.477  26.141  0.2909  0.4119  0.1766
48063DOD     C288009  12.672   8.699  26.237 -0.0303  0.3492 -0.1244
48063DOD     C388010  12.836   9.095  26.175 -0.1100 -0.1108  0.0201
48064DOD     C188011  25.564  17.062   7.656  0.3717 -0.1116 -0.2767
48064DOD     C288012  26.004  17.151   7.795  0.1220 -0.2366  0.1263
48064DOD     C388013  26.436  17.207   7.569  0.1712  0.0620  0.0042
48065DOD     C188014  30.072  16.908   1.952  0.0820 -0.1975 -0.2675
48065DOD     C288015   0.146  16.708   1.755 -0.3180 -0.0849  0.1398
48065DOD     C388016   0.645  16.621   1.717 -0.0313  0.0545 -0.3193
48066DOD     C188017  22.266  20.304  26.157 -0.0986  0.0187  0.3435
48066DOD     C288018  21.857  20.275  26.398  0.0293  0.0474 -0.0368
48066DOD     C388019  21.392  20.091  26.277 -0.1918  0.0254 -0.0132
48067DOD     C188020   6.983  28.399  27.224  0.1023 -0.0198  0.2065
48067DOD     C288021   6.890  28.084  26.904 -0.0839  0.0871  0.0041
48067DOD     C388022   6.961  28.084  26.470  0.1325 -0.1133 -0.2176
48068DOD     C188023  15.833   0.362   6.816 -0.2283 -0.1292 -0.1114
48068DOD     C288024  15.523   0.706   6.894 -0.4657  0.1029  0.0978
48068DOD     C388025  15.171   1.007   6.814 -0.0564 -0.1272  0.1261
48069DOD     C188026   5.455  24.668   8.258  0.0117  0.2581 -0.0086
48069DOD     C288027   5.683  24.591   8.685  0.0887  0.1358 -0.0443
48069DOD     C388028   5.747  24.269   9.050  0.1377 -0.2124  0.2376
48070DOD     C188029  22.759  14.725   3.451  0.1368  0.6190  0.0804
48070DOD     C288030  22.783  14.281   3.602  0.2605 -0.0694  0.5224
48070DOD     C388031  22.873  13.970   3.910  0.0178  0.0052 -0.0123
48071DOD     C188032   6.927  15.191   6.777  0.1475 -0.0358  0.1518
48071DOD     C288033   6.596  14.919   6.983 -0.1367 -0.0513  0.2265
48071DOD     C388034   6.158  14.772   6.943  0.4303  0.0318 -0.0289
48072DOD     C188035   6.804   2.565   8.124 -0.1709  0.0916 -0.2483
48072DOD     C288036   6.348   2.623   8.064 -0.1315 -0.2359 -0.2700
48072DOD     C388037   6.048   2.435   8.327  0.0970  0.0816 -0.0331
48073DOD     C188038   0.111  22.913  29.387  0.0291 -0.0150  0.0411
48073DOD     C288039   0.440  23.170  29.277 -0.1441  0.0268 -0.1805
48073DOD     C388040   0.730  23.575  29.322  0.1114  0.0353 -0.1130
48074DOD     C188041  19.649  11.469   6.941 -0.1219  0.0296 -0.0962
48074DOD     C288042  20.059  11.353   7.090  0.2429 -0.0465  0.1140
48074DOD     C388043  20.447  11.287   7.258  0.0809  0.1388  0.0881
48075DOD     C188044   7.665  26.988   8.889 -0.2936 -0.0915  0.0669
48075DOD     C288045   7.336  26.967   9.225 -0.1658  0.2760  0.0669
48075DOD     C388046   6.880  27.095   9.177  0.0193  0.1287 -0.2733
48076DOD     C188047  18.992  12.455  21.299  0.0123  0.2325  0.0411
48076DOD     C288048  18.597  12.665  21.603  0.2683  0.3822  0.5606
48076DOD     C388049  18.348  12.384  21.871  0.1102 -0.0459 -0.2440
48077DOD     C188050  18.282   1.572  16.882  0.1741  0.2089 -0.3441
48077DOD     C288051  18.678   1.487  17.086  0.1726  0.2543 -0.3533
48077DOD     C388052  19.028   1.645  17.386  0.0443  0.3161 -0.1719
48078DOD     C188053  26.222  28.511  25.828 -0.2229  0.1452 -0.0240
48078DOD     C288054  26.122  28.839  25.522  0.1254 -0.0957 -0.1852
48078DOD     C388055  26.160  29.235  25.296  0.0464 -0.4642 -0.3069
48079DOD     C188056   2.874  18.994  10.317  0.4315  0.0500 -0.1387
48079DOD     C288057   3.085  19.439  10.481  0.0995  0.1401 -0.0344
48079DOD     C388058   3.440  19.775  10.575 -0.3350 -0.0643  0.1652
48080DOD     C188059   3.764  21.353  16.362  0.2179 -0.0292 -0.1512
48080DOD     C288060   3.382  21.263  16.664  0.0474  0.1351 -0.0075
48080DOD     C388061   3.188  21.234  17.094 -0.0428 -0.3467  0.0364
48081DOD     C188062  13.921  27.337   9.079  0.2667 -0.3894  0.0941
48081DOD     C288063  13.915  27.430   8.617 -0.0630 -0.1002 -0.0970
48081DOD     C388064  13.959  27.831   8.361 -0.2402  0.2423  0.3314
48082DOD     C188065  26.349  23.627  29.639 -0.2508 -0.2841 -0.2229
48082DOD     C288066  25.942  23.879  29.599 -0.2238 -0.1080 -0.1111
48082DOD     C388067  25.860  24.298  29.734  0.1790  0.0267  0.1035
48083DOD     C188068  18.303   3.733  28.825 -0.2671  0.1984 -0.1591
48083DOD     C288069  18.679   3.448  28.771  0.2433  0.4101 -0.2189
48083DOD     C388070  19.105   3.648  28.867  0.0969 -0.4558  0.0892
48084DOD     C188071  16.848  19.790  17.829 -0.1937 -0.0119  0.2981
48084DOD     C288072  16.463  19.652  17.980 -0.1406 -0.3858  0.2301
48084DOD     C388073  16.167  19.315  17.970 -0.1623  0.1061 -0.1337
48085DOD     C188074  18.153   0.110  13.421 -0.2372  0.2737  0.3347
48085DOD     C288075  18.409  30.100  13.681  0.3702 -0.2629 -0.0938
48085DOD     C388076  18.805  29.976  13.537  0.1783  0.4622  0.0071
48086DOD     C188077  21.597  27.826  29.408  0.0109 -0.0815 -0.0271
48086DOD     C288078  21.754  27.929  28.917 -0.2048  0.1318 -0.4208
48086DOD     C388079  21.840  28.202  28.485  0.1539  0.2990 -0.1681
48087DOD     C188080  23.893  22.430   4.827 -0.1999  0.1634 -0.2216
48087DOD     C288081  23.533  22.741   4.791 -0.0225 -0.1033  0.0511
48087DOD     C388082  23.258  22.870   4.494  0.1672  0.0412  0.0121
48088DOD     C188083  13.598  23.742  19.328 -0.0194  0.0030  0.3073
48088DOD     C288084  13.909  23.450  19.244 -0.0143  0.1636 -0.1214
48088DOD     C388085  14.046  23.008  19.336  0.2103  0.1632  0.1371
48089DOD     C188086  26.386   5.015   5.521  0.4309 -0.2074  0.1452
48089DOD     C288087  26.542   5.034   5.049 -0.4729  0.0424 -0.3272
48089DOD     C388088  26.497   4.629   4.770  0.3371 -0.2113  0.1250
48090DOD     C188089   4.111   8.221   1.167 -0.0197  0.0225 -0.1339
48090DOD     C288090   4.146   8.248   1.646 -0.5846  0.1405 -0.0482
48090DOD     C388091   4.222   8.376   2.050 -0.2579 -0.1445  0.2601
48091DOD     C188092   9.459   7.856   2.748 -0.1587 -0.1238  0.4384
48091DOD     C288093   9.767   7.932   2.380 -0.0957  0.0248 -0.0697
48091DOD     C388094   9.859   7.732   1.907  0.1628  0.0570 -0.1123
48092DOD     C188095  12.486  30.003  22.633  0.1944  0.1852 -0.0544
48092DOD     C288096  12.528  30.144  23.119  0.1609 -0.2065  0.0988
48092DOD     C388097  12.544  29.990  23.544 -0.1772 -0.1456  0.0455
48093DOD     C188098   5.529  22.350  28.715  0.0219  0.1248  0.0948
48093DOD     C288099   5.051  22.264  28.751  0.0212 -0.2805  0.1019
48093DOD     C388100   4.652  22.184  29.017 -0.2094 -0.2146  0.3229
48094DOD     C188101  18.198   0.451  28.124 -0.1248 -0.1864  0.1686
48094DOD     C288102  18.150   0.103  28.404 -0.0318 -0.3011 -0.0877
48094DOD     C388103  17.958  30.017  28.224 -0.2841 -0.0669  0.0379
48095DOD     C188104  16.621  12.550  23.185  0.1580 -0.0028  0.1531
48095DOD     C288105  16.321  12.306  23.488 -0.3038  0.0529  0.1017
48095DOD     C388106  15.959  12.040  23.644 -0.0119  0.0715 -0.0371
48096DOD     C188107   1.826   6.839  16.398  0.1824 -0.3178 -0.0727
48096DOD     C288108   1.927   6.378  16.571  0.1637  0.0549 -0.2755
48096DOD     C388109   1.875   5.898  16.741  0.1123  0.2108  0.0260
48097DOD     C188110   6.391  14.418  18.389 -0.0769  0.2176  0.2202
48097DOD     C288111   6.552  14.266  18.855  0.0429  0.1406  0.1593
48097DOD     C388112   6.876  14.059  19.110 -0.0577  0.0291  0.4015
48098DOD     C188113   6.179  29.822  10.228  0.1570 -0.2110  0.0053
48098DOD     C288114   6.313  30.219  10.472 -0.2500  0.2456  0.5551
48098DOD     C388115   5.899   0.111  10.395 -0.4268  0.0826 -0.2298
48099DOD     C188116  27.360  10.697   9.703  0.0712  0.3514 -0.0897
48099DOD     C288117  26.987  10.842   9.938 -0.1098 -0.0668 -0.1386
48099DOD     C388118  26.508  10.913   9.942  0.2098 -0.2572 -0.1990
48100DOD     C188119  11.870  16.682  29.921 -0.0417 -0.1811 -0.1905
48100DOD     C288120  12.004  16.856   0.014 -0.1035  0.3814  0.0959
48100DOD     C388121  11.698  16.825   0.414  0.1504  0.0258 -0.0649
48101DOD     C188122  24.987  26.749  10.061 -0.0062 -0.2696  0.0318
48101DOD     C288123  24.892  26.378   9.781  0.2407 -0.0635 -0.1511
48101DOD     C388124  24.620  26.052   9.703  0.1528  0.1681  0.1275
48102DOD     C188125   1.972  19.640  30.021 -0.0348 -0.1899 -0.0321
48102DOD     C288126   1.974  19.411  29.641  0.2392  0.2232  0.2668
48102DOD     C388127   1.816  19.225  29.253  0.1003  0.0143  0.0037
48103DOD     C188128  22.822   2.805  11.651  0.2218 -0.2662  0.0744
48103DOD     C288129  22.839   2.317  11.500  0.2329 -0.2017  0.5097
48103DOD     C388130  22.934   2.102  11.093 -0.0241 -0.0369 -0.0197
48104DOD     C188131  29.293  22.930  10.410  0.1035 -0.0160 -0.0337
48104DOD     C288132  29.746  23.101  10.428  0.1619 -0.1541  0.0402
48104DOD     C388133  30.139  23.233  10.594 -0.0888 -0.3138  0.0543
48105DOD     C188134  26.265   9.022   1.051 -0.1121  0.0258 -0.0866
48105DOD     C288135  26.691   9.259   0.973 -0.1251 -0.0712 -0.1798
48105DOD     C388136  27.060   9.526   0.945  0.2062 -0.0638  0.2888
48106DOD     C188137   0.455   1.808  13.466 -0.0649  0.3361 -0.1254
48106DOD     C288138   0.297   1.514  13.149 -0.0449  0.0297 -0.0605
48106DOD     C388139   0.501   1.117  13.271 -0.0098  0.0620 -0.0581
48107DOD     C188140  20.852   7.136  18.688  0.2058  0.2608  0.2237
48107DOD     C288141  21.085   6.728  18.689  0.0697 -0.4088  0.0851
48107DOD     C388142  21.238   6.369  18.524 -0.1255 -0.0136 -0.1388
48108DOD     C188143  29.797  28.501  27.953  0.0996  0.0634 -0.0399
48108DOD     C288144  30.068  28.866  28.079 -0.1861  0.0310 -0.0380
48108DOD     C388145  29.990  29.305  28.050  0.2926  0.1640  0.1201
48109DOD     C188146  20.076  21.902   0.592  0.0478  0.1373  0.1291
48109DOD     C288147  20.069  22.364   0.540 -0.0976  0.0523  0.3241
48109DOD     C388148  20.093  22.790   0.661 -0.2300  0.2379 -0.0729
48110DOD     C188149  16.165  25.198  20.010 -0.0387 -0.1842 -0.0415
48110DOD     C288150  16.203  25.268  20.432  0.0024 -0.3731  0.0121
48110DOD     C388151  16.251  25.417  20.858  0.0061  0.2720 -0.2847
48111DOD     C188152   2.154  13.211   9.902  0.2070 -0.1420 -0.2862
48111DOD     C288153   2.105  12.883  10.223  0.2239  0.0972 -0.2136
48111DOD     C388154   1.981  12.491  10.401  0.1811  0.1808 -0.2636
48112DOD     C188155  24.140  24.284  29.929 -0.1045 -0.1269  0.0275
48112DOD     C288156  24.249  23.891  29.641 -0.0561  0.2284  0.2593
48112DOD     C388157  24.415  23.567  29.301 -0.0327 -0.1435  0.2028
48113DOD     C188158  16.242   6.049  30.317 -0.0564  0.1242  0.1910
48113DOD     C288159  16.285   6.476   0.232 -0.1755  0.2367  0.0530
48113DOD     C388160  16.524   6.838   0.325 -0.2312 -0.1653 -0.2157
48114DOD     C188161   4.419  21.673   5.604 -0.0851  0.3625  0.5030
48114DOD     C288162   4.373  22.089   5.352 -0.3181 -0.1767 -0.1388
48114DOD     C388163   4.546  22.498   5.153  0.2343 -0.0778  0.0549
48115DOD     C188164   1.534  16.924  12.175 -0.1042 -0.0141  0.0422
48115DOD     C288165   1.631  17.178  12.544  0.2028 -0.0205 -0.0653
48115DOD     C388166   1.760  17.561  12.781 -0.1912  0.1000 -0.3942
48116DOD     C188167  16.383  11.515   4.924  0.0186  0.1582 -0.0749
48116DOD     C288168  16.572  11.433   5.395 -0.0867 -0.0244  0.0074
48116DOD     C388169  16.459  11.388   5.834  0.0313  0.2021  0.0514
48117DOD     C188170  27.852  13.185  10.320 -0.4926  0.0545  0.0860
48117DOD     C288171  27.815  13.661  10.334 -0.3077 -0.1968  0.0206
48117DOD     C388172  28.036  14.025  10.388  0.2639  0.5068 -0.2182
48118DOD     C188173  13.664  29.882  24.711 -0.0248  0.1085  0.1203
48118DOD     C288174  13.349  29.820  24.386 -0.0432  0.0709  0.1393
48118DOD     C388175  13.071  29.979  24.089 -0.1174  0.2272  0.3135
48119DOD     C188176   7.058   5.316  23.294 -0.1721  0.0342  0.5372
48119DOD     C288177   7.018   4.878  23.091  0.1973  0.0051  0.1870
48119DOD     C388178   6.723   4.546  23.190  0.2597  0.3377 -0.1421
48120DOD     C188179   0.365   4.788  14.185 -0.1455 -0.2471  0.0746
48120DOD     C288180   0.226   4.791  13.733  0.1085 -0.0022  0.0553
48120DOD     C388181   0.258   4.829  13.251 -0.0549 -0.0964  0.1734
48121DOD     C188182  28.813   7.027   3.833  0.1086 -0.0159  0.2688
48121DOD     C288183  28.832   7.445   3.593  0.1281  0.1968  0.1396
48121DOD     C388184  28.829   7.861   3.298  0.1427 -0.0782 -0.0204
48122DOD     C188185  23.866  10.729  24.787  0.0273  0.0801 -0.4974
48122DOD     C288186  24.267  10.885  24.897  0.0471 -0.0981  0.1172
48122DOD     C388187  24.714  10.829  25.012 -0.1418  0.1325  0.0614
48123DOD     C188188  19.782  16.806  16.605 -0.3652 -0.1094  0.1382
48123DOD     C288189  19.306  16.815  16.810  0.0688  0.0567  0.1838
48123DOD     C388190  19.131  16.913  17.208 -0.3909 -0.4772  0.1295
48124DOD     C188191  29.716  28.565   4.726 -0.2055 -0.0165 -0.0154
48124DOD     C288192  29.304  28.719   4.933  0.1048 -0.0129 -0.0302
48124DOD     C388193  28.970  28.716   5.266 -0.1344 -0.0940  0.0528
48125DOD     C188194  14.773  10.224   8.027 -0.0670 -0.1232  0.0657
48125DOD     C288195  14.431  10.377   7.719  0.1787  0.3598 -0.0051
48125DOD     C388196  14.090  10.643   7.824 -0.1086 -0.2840 -0.0585
48126DOD     C188197  16.182  16.631   2.017 -0.0037 -0.3060 -0.0535
48126DOD     C288198  16.469  16.245   2.095  0.1912  0.3015 -0.2920
48126DOD     C388199  16.584  15.824   1.842 -0.0134 -0.1502  0.3188
48127DOD     C188200  12.313  11.678   7.988  0.3511  0.3005  0.1548
48127DOD     C288201  12.035  11.325   7.864  0.1272  0.2115 -0.1184
48127DOD     C388202  11.977  10.989   7.543  0.1001 -0.1283  0.0762
48128DOD     C188203  27.094  19.031  19.164 -0.1092  0.2076  0.1404
48128DOD     C288204  27.241  19.480  19.234 -0.0648  0.2167 -0.0868
48128DOD     C388205  27.189  19.926  19.195  0.1524  0.1040  0.3430
48129DOD     C188206   1.546  29.320  13.574  0.2615 -0.1416  0.1340
48129DOD     C288207   1.268  29.208  13.941  0.0951 -0.1368 -0.2173
48129DOD     C388208   0.879  29.230  14.225  0.6043 -0.2316  0.0493
48130DOD     C188209   4.365  14.806  10.819 -0.0593  0.0052 -0.2153
48130DOD     C288210   4.418  15.279  10.862  0.0558 -0.1339 -0.1177
48130DOD     C388211   4.712  15.488  11.185  0.2974  0.1730  0.1217
48131DOD     C188212  28.834  22.641   5.549 -0.2701 -0.1219 -0.0184
48131DOD     C288213  28.645  22.609   5.956 -0.0229 -0.0994 -0.0742
48131DOD     C388214  28.473  22.687   6.361  0.2113  0.0923  0.0861
48132DOD     C188215  27.104   2.174  19.955 -0.0711  0.4223  0.0318
48132DOD     C288216  26.818   2.518  20.073 -0.0681  0.3781 -0.0203
48132DOD     C388217  26.503   2.756  20.303 -0.2804  0.1333 -0.4832
48133DOD     C188218   4.343  21.443  18.240 -0.0579 -0.1016 -0.0897
48133DOD     C288219   3.923  21.441  18.039  0.1828  0.0754  0.0275
48133DOD     C388220   3.467  21.527  18.204  0.0110 -0.2195  0.0009
48134DOD     C188221  18.412   2.284  27.418  0.2576  0.0122  0.3281
48134DOD     C288222  18.486   1.851  27.497  0.2048  0.1407 -0.2173
48134DOD     C388223  18.728   1.573  27.751 -0.0954  0.4065 -0.0803
48135DOD     C188224   5.549  19.542  17.360  0.1185  0.0025  0.1738
48135DOD     C288225   5.358  19.748  17.661  0.4050  0.1604 -0.1612
48135DOD     C388226   5.313  20.030  18.049  0.0580 -0.3278  0.0303
48136DOD     C188227  24.661   5.208  24.396 -0.0057 -0.3378 -0.0053
48136DOD     C288228  25.070   5.276  24.164 -0.0658 -0.1281 -0.0451
48136DOD     C388229  25.203   5.310  23.726 -0.0381 -0.2882  0.2157
48137DOD     C188230  10.173   0.225  20.732 -0.0447  0.0448 -0.1861
48137DOD     C288231   9.868  30.277  20.711  0.0865 -0.1956  0.1898
48137DOD     C388232   9.549  30.075  20.902 -0.0186  0.1339 -0.2306
48138DOD     C188233   3.529  17.229  16.449  0.1667 -0.1523  0.0872
48138DOD     C288234   3.324  16.961  16.761 -0.0683  0.1774 -0.1062
48138DOD     C388235   2.918  16.862  17.012  0.0162  0.0134  0.0549
48139DOD     C188236   3.917  26.056  26.203  0.0670 -0.0124 -0.0956
48139DOD     C288237   3.682  25.695  26.475 -0.1297 -0.2544 -0.0339
48139DOD     C388238   3.274  25.518  26.568  0.0443 -0.1003 -0.0367
48140DOD     C188239   4.194  20.652  20.523  0.2241  0.2247  0.3548
48140DOD     C288240   4.492  20.348  20.433 -0.1559 -0.0939 -0.1956
48140DOD     C388241   4.920  20.295  20.237 -0.1682 -0.1174 -0.1092
48141DOD     C188242  17.806  21.308  11.939  0.0220 -0.0405 -0.2508
48141DOD     C288243  17.427  21.321  12.270 -0.2066 -0.2444  0.3691
48141DOD     C388244  17.056  21.571  12.504  0.1007 -0.0533 -0.0619
48142DOD     C188245   9.272   1.463  29.521 -0.0729  0.2400 -0.2384
48142DOD     C288246   9.631   1.220  29.367 -0.3009  0.0273 -0.1182
48142DOD     C388247   9.938   1.179  29.060 -0.0366 -0.2022  0.1052
48143DOD     C188248  30.062  23.166  24.040  0.0683  0.4352 -0.1554
48143DOD     C288249  29.969  23.629  24.165 -0.0374 -0.2961  0.0107
48143DOD     C388250  30.304  23.924  24.143  0.0705 -0.1862  0.2033
48144DOD     C188251   1.754  16.920  22.575  0.0016  0.0243  0.1080
48144DOD     C288252   1.694  17.010  23.005 -0.2129  0.2558  0.0320
48144DOD     C388253   1.492  16.950  23.422  0.0215 -0.1590 -0.1452
48145DOD     C188254  21.384  10.779   1.587 -0.1228 -0.0221  0.0786
48145DOD     C288255  21.390  11.233   1.679 -0.1527 -0.1480 -0.0367
48145DOD     C388256  21.413  11.548   1.989  0.3898  0.0795 -0.2735
48146DOD     C188257   8.128  19.788   1.195  0.0455 -0.0431  0.1400
48146DOD     C288258   7.803  19.765   0.897  0.0088 -0.0136 -0.1535
48146DOD     C388259   7.398  19.511   0.717  0.1688 -0.0290 -0.1373
48147DOD     C188260   6.415   2.159   2.489  0.1218 -0.0794 -0.1172
48147DOD     C288261   6.080   2.461   2.309 -0.2649  0.2848  0.0096
48147DOD     C388262   5.795   2.899   2.321 -0.0916  0.0247 -0.0387
48148DOD     C188263   2.025  11.946  25.909 -0.1845 -0.2419 -0.2034
48148DOD     C288264   1.705  11.696  26.068 -0.0505  0.0676 -0.1952
48148DOD     C388265   1.383  11.480  26.375 -0.1136 -0.1046  0.3462
48149DOD     C188266  19.659   9.663   0.104 -0.3794 -0.0056 -0.1094
48149DOD     C288267  19.609   9.794   0.535  0.0417 -0.0666  0.0263
48149DOD     C388268  19.727  10.029   0.881 -0.2777 -0.4142 -0.1137
48150DOD     C188269  18.437  17.562   2.351  0.0287 -0.2656  0.0386
48150DOD     C288270  18.056  17.344   2.525 -0.4457  0.2589 -0.2154
48150DOD     C388271  17.734  17.132   2.277 -0.0523 -0.0129  0.2052
48151DOD     C188272   2.893  10.944   8.946 -0.1114  0.0664  0.0083
48151DOD     C288273   2.496  11.104   9.086 -0.0586  0.0080 -0.0777
48151DOD     C388274   2.082  10.970   8.906 -0.2050  0.3409 -0.1909
48152DOD     C188275   0.379  24.593  16.462 -0.0398 -0.1757  0.1179
48152DOD     C288276   0.121  24.189  16.539 -0.0710  0.3075 -0.1602
48152DOD     C388277   0.167  23.823  16.972  0.1894 -0.0205  0.2920
48153DOD     C188278   8.189   1.260  28.156 -0.0614 -0.0066 -0.1235
48153DOD     C288279   8.554   1.200  28.508 -0.0258  0.0122 -0.0160
48153DOD     C388280   9.009   1.093  28.623  0.1402 -0.1089 -0.0911
48154DOD     C188281  19.527   5.518  29.798  0.0808 -0.0691  0.0092
48154DOD     C288282  19.769   5.197  29.594  0.1274 -0.0349 -0.0677
48154DOD     C388283  19.937   4.834  29.321  0.1838 -0.1980 -0.0005
48155DOD     C188284  -0.008  26.861  12.080 -0.3947  0.0584 -0.0529
48155DOD     C288285   0.054  26.620  11.642  0.1227  0.1811  0.0357
48155DOD     C388286  30.312  26.460  11.181 -0.0886 -0.1409  0.0878
48156DOD     C188287  22.981  22.360  27.139  0.2841 -0.1720 -0.0473
48156DOD     C288288  23.028  22.700  26.783 -0.0296  0.0769 -0.0941
48156DOD     C388289  22.912  23.061  26.497  0.1625 -0.0174 -0.0891
48157DOD     C188290   7.204  11.787  15.364  0.0806  0.0421  0.3179
48157DOD     C288291   7.391  12.224  15.356  0.0368  0.1373  0.0814
48157DOD     C388292   7.453  12.554  15.062  0.0444 -0.0365 -0.2265
48158DOD     C188293  10.024   6.768  20.640  0.1575  0.1623 -0.0062
48158DOD     C288294   9.831   6.352  20.681 -0.0258  0.0398 -0.0424
48158DOD     C388295   9.878   5.896  20.759  0.0915  0.3062 -0.0099
48159DOD     C188296  11.460   7.088  14.420 -0.0845 -0.1953 -0.1045
48159DOD     C288297  11.789   6.839  14.633  0.0129 -0.1035  0.0532
48159DOD     C388298  12.096   6.933  14.983 -0.0687 -0.1941 -0.1798
48160DOD     C188299  11.431   8.225  17.993  0.0996  0.1293  0.0030
48160DOD     C288300  11.245   8.418  18.358  0.0499  0.0667  0.0464
48160DOD     C388301  10.962   8.692  18.569  0.2705  0.0071 -0.2213
48161DOD     C188302  27.207  28.165   3.769 -0.1459 -0.0209 -0.2763
48161DOD     C288303  27.305  28.637   3.775  0.1320  0.2802  0.0949
48161DOD     C388304  27.263  28.987   3.992  0.1234  0.1823  0.1648
48162DOD     C188305   7.974   1.462  16.104 -0.0032  0.3065 -0.0432
48162DOD     C288306   8.242   1.226  15.761 -0.1298 -0.1735 -0.0725
48162DOD     C388307   8.547   1.200  15.367  0.0982 -0.2321 -0.1530
48163DOD     C188308   8.844  11.928  27.174 -0.2959  0.0678  0.0653
48163DOD     C288309   8.648  12.330  27.284 -0.2246 -0.2252 -0.2988
48163DOD     C388310   8.444  12.768  27.384 -0.2173 -0.0476  0.1359
48164DOD     C188311  11.511  18.830   5.556 -0.1831  0.0850  0.1087
48164DOD     C288312  11.024  18.774   5.498  0.4322 -0.1586 -0.0304
48164DOD     C388313  10.639  18.903   5.486  0.0797 -0.0317  0.1121
48165DOD     C188314  16.928  30.154  29.145  0.1705 -0.0556 -0.3483
48165DOD     C288315  16.807   0.233  29.452  0.4271 -0.1218  0.1135
48165DOD     C388316  16.375   0.474  29.581 -0.0357 -0.0519 -0.1954
48166DOD     C188317  12.744  16.952  13.180 -0.0285  0.3520  0.2334
48166DOD     C288318  13.049  17.168  12.840 -0.1095 -0.2757  0.0195
48166DOD     C388319  13.432  17.318  12.693 -0.1229 -0.0203  0.1267
48167DOD     C188320  27.564  12.217  19.200  0.0395 -0.1921 -0.1028
48167DOD     C288321  27.662  12.653  19.174 -0.0008 -0.5552 -0.1986
48167DOD     C388322  27.526  13.026  18.892  0.2649  0.3045 -0.3363
48168DOD     C188323  15.372  24.868   9.262  0.0123  0.1260  0.3149
48168DOD     C288324  15.445  24.606   8.894  0.2381 -0.3147  0.1517
48168DOD     C388325  15.829  24.554   8.730  0.1429 -0.4040 -0.1124
48169DOD     C188326  15.217  20.894  24.293 -0.0989  0.2760 -0.2032
48169DOD     C288327  15.232  20.569  23.949  0.3914  0.1964 -0.1120
48169DOD     C388328  14.990  20.178  23.970 -0.0764 -0.1082  0.2965
48170DOD     C188329  21.519  10.650   5.622 -0.2807  0.0368 -0.1866
48170DOD     C288330  21.358  10.199   5.635  0.2801  0.0526  0.0369
48170DOD     C388331  21.389   9.790   5.599 -0.0146 -0.0331 -0.3670
48171DOD     C188332  17.368  30.164  20.457  0.2224 -0.0234  0.0061
48171DOD     C288333  16.948  30.261  20.314  0.1143  0.0143 -0.1028
48171DOD     C388334  16.556   0.214  20.175 -0.0285 -0.0243  0.3482
48172DOD     C188335   9.519  16.756  17.553  0.1744  0.1054 -0.1037
48172DOD     C288336   9.704  16.776  17.151  0.2899 -0.0051  0.2461
48172DOD     C388337   9.801  16.652  16.713 -0.0393  0.0376 -0.0998
48173DOD     C188338  12.708   0.794   8.553  0.2265  0.3087  0.2107
48173DOD     C288339  13.114   0.622   8.412 -0.0844 -0.0294 -0.1593
48173DOD     C388340  13.276   0.164   8.302  0.0241 -0.0709  0.2001
48174DOD     C188341   2.518   1.068  19.416  0.2939 -0.0756  0.0585
48174DOD     C288342   2.219   1.038  19.798  0.3521  0.0636 -0.0072
48174DOD     C388343   1.817   1.072  20.019  0.0731  0.1578 -0.1441
48175DOD     C188344  13.199  16.574   5.629  0.1612 -0.0711 -0.2659
48175DOD     C288345  13.146  16.453   5.194 -0.2311  0.4087 -0.1970
48175DOD     C388346  12.728  16.331   5.092 -0.1163 -0.0892 -0.2834
48176DOD     C188347  23.495  25.532  24.707  0.0776  0.1099 -0.2202
48176DOD     C288348  23.827  25.887  24.610  0.2979  0.1860  0.1885
48176DOD     C388349  24.085  26.224  24.790 -0.0064  0.1837  0.1228
48177DOD     C188350  11.149  19.708  21.786  0.1775  0.0672 -0.1087
48177DOD     C288351  10.909  19.771  22.216 -0.0913  0.0066  0.0901
48177DOD     C388352  10.616  19.502  22.478 -0.1553  0.2535  0.2326
48178DOD     C188353  26.806   0.582  15.524 -0.1733 -0.1777 -0.1376
48178DOD     C288354  26.588   0.717  15.943 -0.3143 -0.0945  0.0042
48178DOD     C388355  26.681   1.085  16.172  0.2236  0.1001  0.3341
48179DOD     C188356  30.244  23.068  15.664 -0.0296  0.1703 -0.0482
48179DOD     C288357   0.284  22.860  15.592  0.1394  0.2108 -0.1405
48179DOD     C388358   0.722  22.954  15.729 -0.2745 -0.2315 -0.1078
48180DOD     C188359  13.214   8.365  14.986  0.1039 -0.0100  0.1805
48180DOD     C288360  12.755   8.172  14.938 -0.2248 -0.1542 -0.3486
48180DOD     C388361  12.327   8.004  15.010 -0.1465 -0.0870  0.0670
48181DOD     C188362  16.467  23.317  14.488 -0.0673 -0.0281 -0.2410
48181DOD     C288363  16.700  22.915  14.406  0.0291 -0.1121 -0.0620
48181DOD     C388364  16.532  22.589  14.244 -0.3182  0.0288  0.2566
48182DOD     C188365   4.057  13.853   2.082  0.0060 -0.1153 -0.3543
48182DOD     C288366   4.263  13.441   1.977  0.4228  0.0225  0.1690
48182DOD     C388367   4.691  13.269   2.029  0.1344 -0.1218  0.0764
48183DOD     C188368  18.260   1.030  23.293 -0.1371 -0.0617 -0.1513
48183DOD     C288369  17.806   1.171  23.473  0.2141  0.2545  0.0516
48183DOD     C388370  17.814   1.572  23.759  0.2569  0.0784  0.0838
48184DOD     C188371  18.812   3.695  29.306  0.2958  0.0984 -0.0159
48184DOD     C288372  18.984   3.698  29.660  0.0843 -0.2453  0.0675
48184DOD     C388373  19.077   3.973  30.007 -0.1346  0.0547  0.0613
48185DOD     C188374  24.273  10.629  26.580  0.1529 -0.1362  0.2003
48185DOD     C288375  24.015  10.371  26.280  0.2538 -0.3394 -0.3316
48185DOD     C388376  23.638  10.029  26.226  0.3280 -0.2644  0.0718
48186DOD     C188377   1.363  14.340   8.412 -0.1127 -0.1993  0.1322
48186DOD     C288378   1.286  14.239   8.814  0.2389 -0.2074 -0.2733
48186DOD     C388379   1.112  14.017   9.261  0.1780  0.2476 -0.0961
48187DOD     C188380   3.079   9.206  20.395  0.0377  0.0671 -0.0604
48187DOD     C288381   2.908   8.954  20.064  0.0079 -0.2996  0.1449
48187DOD     C388382   2.794   8.498  20.041  0.0399 -0.0185  0.0086
48188DOD     C188383  16.825   8.817  23.284  0.0643 -0.0428  0.0129
48188DOD     C288384  17.002   8.899  23.710  0.2100  0.1108  0.2075
48188DOD     C388385  16.889   8.687  24.089  0.0163  0.0455  0.1260
48189DOD     C188386  19.322   0.579  30.000  0.2561 -0.0124 -0.0759
48189DOD     C288387  19.335   0.987  29.786  0.0686 -0.1603 -0.0502
48189DOD     C388388  19.293   1.395  29.600  0.1662  0.0130  0.0658
48190DOD     C188389  23.047   3.929   4.737 -0.2175 -0.1055 -0.2058
48190DOD     C288390  22.786   4.007   5.153  0.0308 -0.0406 -0.1839
48190DOD     C388391  22.488   3.911   5.530  0.0904  0.0207 -0.0091
48191DOD     C188392  29.370  14.551  16.432 -0.0363 -0.4077 -0.0850
48191DOD     C288393  29.322  14.166  16.259 -0.2155  0.3108 -0.0676
48191DOD     C388394  29.600  13.772  16.439 -0.1602 -0.0877  0.0588
48192DOD     C188395  25.863  20.513  22.030 -0.3135 -0.2185  0.0258
48192DOD     C288396  25.741  20.666  22.473  0.1172  0.1356 -0.1499
48192DOD     C388397  25.612  20.799  22.949 -0.1714  0.1895  0.1466
48193DOD     C188398   9.726  20.127  12.286  0.2048 -0.1553  0.0247
48193DOD     C288399   9.785  20.430  12.632 -0.0390  0.2031 -0.0393
48193DOD     C388400   9.530  20.577  13.041 -0.0297 -0.1655  0.0819
48194DOD     C188401   2.859  16.738  25.172 -0.1466 -0.0030 -0.0417
48194DOD     C288402   3.229  16.979  25.153 -0.3544  0.2050  0.1952
48194DOD     C388403   3.511  17.354  25.145 -0.1059 -0.0160 -0.0466
48195DOD     C188404  11.310  22.483  24.345  0.3229 -0.2686 -0.1932
48195DOD     C288405  10.846  22.460  24.224  0.1600  0.0910 -0.1901
48195DOD     C388406  10.437  22.477  24.471  0.0001 -0.4142  0.2906
48196DOD     C188407  27.341   0.255   7.206  0.1378 -0.2758 -0.2465
48196DOD     C288408  27.341  30.124   7.207  0.3165  0.1316 -0.3211
48196DOD     C388409  27.482  29.784   7.499  0.0669  0.1381  0.0174
48197DOD     C188410   4.321   3.267  30.061  0.1344 -0.1466  0.0334
48197DOD     C288411   3.935   3.463  30.185  0.1052 -0.0918  0.2221
48197DOD     C388412   3.829   3.796   0.260 -0.1944 -0.2226  0.0526
48198DOD     C188413   6.615   6.100  17.179 -0.2753  0.1603 -0.0976
48198DOD     C288414   6.923   5.809  17.393 -0.2140 -0.0581 -0.3781
48198DOD     C388415   7.021   5.353  17.499 -0.1125  0.3580 -0.0935
48199DOD     C188416  21.662  19.929   0.936  0.1145  0.3266  0.0406
48199DOD     C288417  21.559  19.451   0.849 -0.1526 -0.0031  0.0328
48199DOD     C388418  21.842  19.134   0.551  0.0448 -0.1215 -0.0628
48200DOD     C188419  21.810  12.843   0.196  0.1938 -0.2066 -0.0407
48200DOD     C288420  21.452  13.107   0.084  0.3180  0.0896 -0.0612
48200DOD     C388421  21.364  13.570   0.114  0.0086  0.2047 -0.0285
48201DOD     C188422  26.862  23.571   8.094 -0.3238 -0.3053 -0.1642
48201DOD     C288423  26.761  23.138   8.145 -0.2035  0.0482  0.1009
48201DOD     C388424  26.684  22.668   8.182  0.2158  0.0959 -0.1934
48202DOD     C188425   3.963   0.165  16.377 -0.0176 -0.2382  0.1070
48202DOD     C288426   3.905   0.597  16.509 -0.0274 -0.2229  0.1066
48202DOD     C388427   3.967   0.930  16.884 -0.3674 -0.0685  0.1638
48203DOD     C188428  13.593   0.141  23.958 -0.0010 -0.0774  0.3326
48203DOD     C288429  13.682   0.264  23.543  0.2445  0.1752  0.1098
48203DOD     C388430  13.827   0.334  23.092 -0.0813  0.1173 -0.0905
48204DOD     C188431  12.880  19.291  29.541  0.1342  0.2799  0.1809
48204DOD     C288432  12.991  19.117  29.098  0.2827  0.2270 -0.5075
48204DOD     C388433  12.886  19.020  28.674  0.0867 -0.0313 -0.3099
48205DOD     C188434   6.808   2.587  11.507  0.3104 -0.1064 -0.1233
48205DOD     C288435   6.917   2.827  11.157 -0.1568 -0.0335  0.0540
48205DOD     C388436   6.912   3.181  10.797  0.0806  0.0525  0.4045
48206DOD     C188437  12.535   1.692  12.002 -0.2114  0.4311 -0.1537
48206DOD     C288438  12.657   1.787  11.591  0.0663 -0.1319 -0.2356
48206DOD     C388439  12.450   1.703  11.107  0.2203 -0.0703  0.1627
48207DOD     C188440   9.214  25.375  10.528 -0.0586 -0.1289 -0.2329
48207DOD     C288441   9.370  25.262  10.130 -0.0852 -0.1878  0.3888
48207DOD     C388442   9.349  25.359   9.683 -0.4481  0.0521 -0.2055
48208DOD     C188443  29.213   1.312  26.032  0.2850  0.0550  0.1668
48208DOD     C288444  29.262   1.097  26.402  0.4859  0.0418  0.1445
48208DOD     C388445  28.942   1.086  26.838  0.2934  0.2545  0.0489
48209DOD     C188446  20.619  16.252   4.695  0.1090 -0.0893  0.2626
48209DOD     C288447  20.808  16.157   5.093  0.0676  0.0231  0.0612
48209DOD     C388448  20.927  16.244   5.515  0.2360  0.0157  0.1232
48210DOD     C188449   5.905  22.228  13.188  0.0730  0.1970 -0.2042
48210DOD     C288450   6.031  22.145  12.759 -0.1367  0.1649  0.0866
48210DOD     C388451   6.392  22.010  12.571  0.2369  0.2034 -0.0331
48211DOD     C188452  10.477  18.611   7.228  0.2089  0.0615 -0.1626
48211DOD     C288453  10.908  18.608   6.958 -0.0930 -0.0301  0.1558
48211DOD     C388454  11.326  18.608   6.875 -0.2201  0.2749  0.1477
48212DOD     C188455   7.148  25.925  14.214  0.0975  0.0778 -0.2533
48212DOD     C288456   7.507  25.718  13.920  0.3462 -0.0375 -0.1784
48212DOD     C388457   7.834  25.467  13.628 -0.1455  0.1389 -0.0644
48213DOD     C188458   1.939  16.651  12.320 -0.0661 -0.0168  0.1976
48213DOD     C288459   1.741  16.722  12.739  0.2999  0.0080 -0.1799
48213DOD     C388460   2.059  16.840  13.146  0.3417  0.4072  0.2566
48214DOD     C188461  27.876  25.759  21.406  0.2018  0.1376  0.1630
48214DOD     C288462  28.097  26.064  21.051  0.2506  0.1711 -0.2405
48214DOD     C388463  28.324  26.356  20.748 -0.2922  0.2732  0.3158
48215DOD     C188464   7.768   1.217  21.087 -0.2451  0.0371 -0.1441
48215DOD     C288465   7.983   1.511  21.435  0.1137  0.2994  0.4012
48215DOD     C388466   8.336   1.424  21.713 -0.0294  0.1206  0.2445
48216DOD     C188467  20.138  22.081  20.242 -0.1054 -0.2420  0.0409
48216DOD     C288468  19.726  22.160  19.974 -0.3222 -0.1156 -0.0853
48216DOD     C388469  19.592  22.174  19.496  0.0451  0.1409 -0.5006
48217DOD     C188470  18.870  15.014  18.433  0.0927 -0.1822  0.0155
48217DOD     C288471  19.241  15.280  18.254 -0.0357 -0.1734 -0.0795
48217DOD     C388472  19.625  15.512  18.371 -0.1097  0.4648  0.1118
48218DOD     C188473  13.429  12.728  19.672 -0.0601 -0.0221  0.0392
48218DOD     C288474  13.583  13.114  19.738  0.1605  0.1531 -0.3792
48218DOD     C388475  13.344  13.550  19.725 -0.1868  0.0526 -0.2719
48219DOD     C188476   5.271  20.446  18.480 -0.4039 -0.1515  0.3482
48219DOD     C288477   5.698  20.629  18.436 -0.0600 -0.1432  0.1846
48219DOD     C388478   6.049  20.873  18.406 -0.1584  0.1574  0.1470
48220DOD     C188479  27.193   2.281   3.666  0.0846 -0.0410  0.0686
48220DOD     C288480  27.540   2.273   3.973  0.1052  0.1207  0.4233
48220DOD     C388481  27.986   2.438   4.003  0.2163  0.1932  0.0549
48221DOD     C188482   6.012  25.356  12.417  0.2077  0.2329  0.0927
48221DOD     C288483   6.362  25.642  12.368  0.0991 -0.4585 -0.0850
48221DOD     C388484   6.380  26.096  12.386  0.1742 -0.0023  0.0267
48222DOD     C188485  22.405  23.865   7.803  0.2005 -0.1928 -0.0114
48222DOD     C288486  22.609  24.245   7.725 -0.1277  0.0000  0.0557
48222DOD     C388487  22.969  24.488   7.933  0.0758  0.1116  0.3430
48223DOD     C188488   5.927   5.684  25.124 -0.3231  0.0056 -0.1268
48223DOD     C288489   5.934   5.246  25.162 -0.2485 -0.2891 -0.1130
48223DOD     C388490   5.939   4.875  24.829 -0.2021  0.2261 -0.1370
48224DOD     C188491   5.586  10.582   6.546 -0.0921  0.1412 -0.2980
48224DOD     C288492   5.672  10.710   6.105  0.2345  0.0946 -0.5527
48224DOD     C388493   5.666  10.419   5.723 -0.0204 -0.5596  0.0216
48225DOD     C188494  13.001  21.771  26.407  0.0954  0.0349 -0.1642
48225DOD     C288495  13.119  21.319  26.271 -0.2016 -0.0387  0.1399
48225DOD     C388496  13.021  20.916  25.992  0.1028  0.1191 -0.4057
48226DOD     C188497   5.696   7.906  24.528 -0.3847  0.1788 -0.1311
48226DOD     C288498   6.133   7.943  24.720 -0.1571  0.0205 -0.2795
48226DOD     C388499   6.541   8.129  24.963 -0.2810 -0.2381 -0.0171
48227DOD     C188500  15.655  15.500  12.086  0.1757 -0.1376  0.1634
48227DOD     C288501  15.971  15.653  12.377  0.1306 -0.3978 -0.0846
48227DOD     C388502  16.295  15.873  12.616 -0.0317  0.0700 -0.1735
48228DOD     C188503  23.569  11.216   8.159 -0.0686 -0.1014 -0.2381
48228DOD     C288504  23.594  10.836   7.864 -0.0025 -0.1633 -0.0717
48228DOD     C388505  23.783  10.709   7.446  0.0119  0.2137 -0.0288
48229DOD     C188506   4.408  18.179  15.280 -0.1468 -0.0996  0.1496
48229DOD     C288507   4.738  17.883  15.063 -0.1445 -0.1882 -0.0628
48229DOD     C388508   4.824  17.536  14.732  0.2424 -0.0692  0.1385
48230DOD     C188509   1.702  17.754  11.750 -0.0865 -0.3180 -0.1161
48230DOD     C288510   2.137  17.681  11.991  0.1406  0.1158  0.3413
48230DOD     C388511   2.512  17.548  12.191 -0.2509  0.3320  0.1189
48231DOD     C188512  12.025  16.283   8.144  0.2778  0.2972 -0.0366
48231DOD     C288513  12.395  16.194   7.835 -0.0964  0.1082 -0.1763
48231DOD     C388514  12.388  15.734   7.695  0.1592 -0.2526  0.2429
48232DOD     C188515  28.478  28.856  15.577  0.0108 -0.2829 -0.1059
48232DOD     C288516  28.384  28.537  15.926 -0.2660  0.0582  0.0308
48232DOD     C388517  28.203  28.121  16.051 -0.2077 -0.2910 -0.0549
48233DOD     C188518   0.909  25.692  15.220  0.0979  0.1110  0.1095
48233DOD     C288519   0.929  25.395  15.568  0.0299  0.0526  0.1511
48233DOD     C388520   1.063  25.086  15.827  0.2313 -0.3163 -0.0373
48234DOD     C188521  13.956   2.046  10.140 -0.0069 -0.1138  0.1378
48234DOD     C288522  14.358   2.152   9.882  0.0294  0.0223  0.0354
48234DOD     C388523  14.622   1.930   9.599  0.2808  0.2240  0.1053
48235DOD     C188524  30.191  29.203  15.330 -0.1854  0.0240 -0.0179
48235DOD     C288525  29.942  29.146  14.928 -0.3168  0.0902 -0.1409
48235DOD     C388526  29.586  29.302  14.693  0.1015  0.2135 -0.3852
48236DOD     C188527  20.205  27.053  16.458 -0.0304 -0.1417 -0.0698
48236DOD     C288528  20.306  27.439  16.811 -0.0501 -0.0442 -0.0941
48236DOD     C388529  20.472  27.763  17.125 -0.1256  0.0094  0.1212
48237DOD     C188530  21.617  16.048   4.707 -0.1329  0.1799  0.2094
48237DOD     C288531  21.986  15.914   4.433  0.1183 -0.1041 -0.1460
48237DOD     C388532  22.340  15.740   4.300  0.0059  0.1219 -0.0430
48238DOD     C188533  26.096  11.910   9.483  0.1407  0.4016  0.0764
48238DOD     C288534  26.149  12.381   9.471  0.1132 -0.0829 -0.1536
48238DOD     C388535  25.821  12.663   9.249  0.2832  0.1194  0.0208
48239DOD     C188536   0.245  27.553  27.232 -0.0366  0.0859  0.2058
48239DOD     C288537   0.262  27.456  26.758 -0.1755 -0.1933 -0.0299
48239DOD     C388538   0.005  27.110  26.597 -0.2157  0.1083  0.4985
48240DOD     C188539   9.242  20.825   4.228  0.1715  0.0457  0.2556
48240DOD     C288540   8.988  20.704   4.623 -0.1875  0.0608 -0.1522
48240DOD     C388541   8.615  20.522   4.843  0.0449  0.3449  0.2195
48241DOD     C188542   9.538  28.952   6.461  0.3883  0.0153 -0.2811
48241DOD     C288543   9.417  28.493   6.699 -0.2238  0.1347  0.2523
48241DOD     C388544   9.317  28.090   6.910  0.1984 -0.1349  0.0971
48242DOD     C188545  18.485  11.612  29.687  0.2234 -0.1280  0.1783
48242DOD     C288546  18.906  11.765  29.788 -0.0262  0.0129 -0.0999
48242DOD     C388547  19.238  11.773  30.088 -0.0141  0.0600  0.0262
48243DOD     C188548  28.649  22.773  28.355 -0.1586  0.2366  0.2519
48243DOD     C288549  28.506  22.324  28.329  0.0180  0.0829 -0.1382
48243DOD     C388550  28.303  22.063  27.933  0.1905 -0.2500  0.0114
48244DOD     C188551   6.372  13.922  17.656 -0.0728  0.1930 -0.4099
48244DOD     C288552   6.593  14.199  18.002 -0.0140 -0.0935 -0.0008
48244DOD     C388553   6.892  14.383  18.300 -0.1057 -0.4406 -0.2255
48245DOD     C188554  13.714   8.916  28.971 -0.2514 -0.1948 -0.1819
48245DOD     C288555  13.992   8.645  29.284 -0.1440  0.1255  0.2055
48245DOD     C388556  14.220   8.189  29.414  0.0858 -0.0322 -0.2475
48246DOD     C188557  19.355   1.792  25.457  0.1287  0.3194 -0.0874
48246DOD     C288558  19.440   1.331  25.379 -0.4421 -0.3853  0.0156
48246DOD     C388559  19.589   0.967  25.236 -0.1510  0.0946  0.1890
48247DOD     C188560   1.798  15.618   5.186 -0.1169  0.0630  0.0806
48247DOD     C288561   1.405  15.423   5.339 -0.1003  0.2732 -0.1527
48247DOD     C388562   1.025  15.102   5.470 -0.3512 -0.2111 -0.1430
48248DOD     C188563   2.239   6.023   6.102  0.5246 -0.0831 -0.1340
48248DOD     C288564   2.598   6.299   6.033  0.0271  0.1993 -0.1891
48248DOD     C388565   2.882   6.652   6.053  0.1142  0.0912 -0.4064
48249DOD     C188566   7.927  14.016  20.413 -0.1219  0.0625  0.0360
48249DOD     C288567   7.899  14.368  20.130 -0.3149  0.0159 -0.1286
48249DOD     C388568   7.719  14.772  20.193 -0.3474  0.0550  0.2332
48250DOD     C188569  16.529   5.771  16.595 -0.0564  0.1419 -0.2022
48250DOD     C288570  16.854   5.512  16.507 -0.5440  0.1709  0.1181
48250DOD     C388571  17.200   5.221  16.647 -0.2492  0.1941 -0.3193
48251DOD     C188572  11.326   1.134  17.234 -0.1859 -0.0260  0.0397
48251DOD     C288573  11.597   1.311  16.887 -0.0091 -0.0668 -0.3040
48251DOD     C388574  11.873   1.201  16.502  0.0670 -0.1215  0.1369
48252DOD     C188575   3.023   4.454  24.335 -0.1583 -0.2312 -0.0093
48252DOD     C288576   3.354   4.221  24.045 -0.1410 -0.0893  0.1285
48252DOD     C388577   3.274   3.815  23.868 -0.0431  0.1681  0.0130
48253DOD     C188578   5.155   7.921  10.932 -0.0015 -0.2052 -0.2223
48253DOD     C288579   4.774   7.705  11.091  0.1922 -0.2397  0.1903
48253DOD     C388580   4.385   7.428  10.973  0.0180  0.1229  0.2220
48254DOD     C188581   5.643   2.852  17.082 -0.1204  0.0203  0.0297
48254DOD     C288582   5.441   2.844  16.651  0.3963  0.2861 -0.1889
48254DOD     C388583   4.994   2.780  16.491  0.2486  0.2078 -0.0066
48255DOD     C188584   3.214  28.230   3.527 -0.0461  0.0371  0.0632
48255DOD     C288585   3.545  28.497   3.424 -0.0988  0.2397  0.1193
48255DOD     C388586   3.743  28.246   3.040  0.2512 -0.2241  0.1768
48256DOD     C188587   3.367  20.763  18.620 -0.0905 -0.0958  0.3426
48256DOD     C288588   3.339  21.077  18.258 -0.1852 -0.0940  0.0162
48256DOD     C388589   3.072  21.278  17.954 -0.2378  0.0578 -0.3141
48257DOD     C188590  15.080  26.636  20.976 -0.1445  0.2205  0.1236
48257DOD     C288591  15.477  26.474  20.825  0.3483  0.0848 -0.1637
48257DOD     C388592  15.867  26.275  20.582  0.3866  0.1031  0.0297
48258DOD     C188593   3.520  21.832  16.255 -0.1606 -0.1569  0.1183
48258DOD     C288594   3.886  22.151  16.195 -0.1688  0.0491  0.0704
48258DOD     C388595   4.276  22.367  16.333 -0.2957 -0.2488  0.3242
48259DOD     C188596  10.221   5.760   8.038 -0.1342  0.1558 -0.1341
48259DOD     C288597  10.137   5.346   8.215 -0.3560  0.1781 -0.0778
48259DOD     C388598  10.062   5.004   8.458  0.0565  0.2121 -0.0555
48260DOD     C188599  10.125  29.749  16.147  0.1886 -0.3847  0.0063
48260DOD     C288600  10.530  29.735  16.394 -0.3192  0.2748 -0.1360
48260DOD     C388601  10.683  29.838  16.808  0.0478  0.0471 -0.1888
48261DOD     C188602  11.993  22.213  27.590 -0.3440  0.0456  0.0644
48261DOD     C288603  12.423  22.224  27.423 -0.1727 -0.2741  0.3820
48261DOD     C388604  12.518  21.916  27.093  0.3796  0.3943 -0.0312
48262DOD     C188605  21.160  14.004  16.701  0.1605  0.0688  0.0181
48262DOD     C288606  20.952  14.052  17.120  0.0441 -0.3011 -0.2486
48262DOD     C388607  20.692  14.062  17.504 -0.0199 -0.0821 -0.0303
48263DOD     C188608   9.964   3.394  24.122  0.0091  0.0613  0.2192
48263DOD     C288609   9.920   2.997  24.322 -0.0090 -0.1035  0.2371
48263DOD     C388610  10.189   2.642  24.176  0.0683 -0.1377  0.0483
48264DOD     C188611   2.145  28.235  28.185  0.1135 -0.1966 -0.0823
48264DOD     C288612   2.189  28.594  27.933  0.1812 -0.0096 -0.0064
48264DOD     C388613   2.168  28.778  27.553 -0.0857 -0.0029 -0.2404
48265DOD     C188614  18.530  29.397  27.390 -0.1362  0.1452  0.1867
48265DOD     C288615  18.522  29.261  27.837  0.2629  0.1255  0.1234
48265DOD     C388616  18.617  28.942  28.136 -0.1328 -0.0406 -0.3399
48266DOD     C188617   6.703  26.775   7.216  0.0177 -0.2244 -0.0311
48266DOD     C288618   6.848  26.661   6.770 -0.0550  0.0902  0.2176
48266DOD     C388619   7.004  26.386   6.376  0.1457  0.1649  0.4576
48267DOD     C188620  19.439  11.089   6.549 -0.3292  0.0392  0.0609
48267DOD     C288621  19.028  10.897   6.599 -0.0427  0.1820 -0.0805
48267DOD     C388622  18.959  10.560   6.877 -0.0979  0.1617 -0.1980
48268DOD     C188623   7.515  21.085   3.238 -0.0337  0.0222 -0.3210
48268DOD     C288624   7.548  21.005   2.767  0.0068  0.0207  0.1890
48268DOD     C388625   7.334  20.877   2.413  0.4795  0.0433  0.0388
48269DOD     C188626  19.311   6.039  26.051  0.1129  0.1375  0.2422
48269DOD     C288627  18.927   5.972  26.248  0.0237  0.3421 -0.2192
48269DOD     C388628  18.547   6.108  26.365 -0.1714 -0.1447  0.0967
48270DOD     C188629  13.101  24.024  25.042 -0.1987  0.1692 -0.1452
48270DOD     C288630  12.988  24.159  24.691 -0.0278  0.5143  0.3117
48270DOD     C388631  13.009  24.519  24.337  0.0528 -0.0138 -0.2170
48271DOD     C188632  17.905   1.044  13.141 -0.0835  0.2267 -0.0846
48271DOD     C288633  17.729   0.979  12.706 -0.0371  0.3697  0.0304
48271DOD     C388634  17.557   1.017  12.269  0.1111 -0.0931  0.1275
48272DOD     C188635   9.385  20.527   7.983  0.0104  0.2287 -0.3972
48272DOD     C288636   8.963  20.389   8.160  0.2893  0.1453  0.0146
48272DOD     C388637   8.729  20.406   8.538  0.0493  0.2921 -0.0187
48273DOD     C188638  22.140  24.954   2.594 -0.0021 -0.2253 -0.1685
48273DOD     C288639  22.034  24.981   3.045  0.0013 -0.0981  0.2041
48273DOD     C388640  21.978  25.087   3.496  0.1716  0.0884  0.2061
48274DOD     C188641  25.626  20.323  12.369  0.3056 -0.2640 -0.0343
48274DOD     C288642  25.173  20.545  12.370  0.0020  0.0645  0.0413
48274DOD     C388643  24.719  20.525  12.345 -0.0526 -0.0255  0.2246
48275DOD     C188644  18.313  25.005  16.261  0.0603  0.0822 -0.3187
48275DOD     C288645  18.160  25.173  16.668  0.1011 -0.0296  0.1108
48275DOD     C388646  17.908  25.461  16.970  0.2365 -0.0540  0.3928
48276DOD     C188647  29.098   9.578  10.620 -0.3087  0.0702 -0.2485
48276DOD     C288648  28.770   9.695  10.331 -0.1160  0.3146 -0.0255
48276DOD     C388649  28.424   9.814  10.050 -0.1797  0.1690 -0.0647
48277DOD     C188650  21.254  18.117  23.003  0.2727 -0.1053 -0.2784
48277DOD     C288651  21.311  18.393  22.676 -0.0866 -0.3391  0.0253
48277DOD     C388652  21.140  18.809  22.408  0.0871  0.0949  0.3894
48278DOD     C188653  10.748  15.785  18.553  0.3279 -0.0199 -0.1395
48278DOD     C288654  10.841  15.689  18.100  0.1532 -0.1183 -0.1882
48278DOD     C388655  10.642  15.655  17.684 -0.1542 -0.1312  0.0271
48279DOD     C188656   0.607   1.229  20.006  0.4066 -0.2914 -0.4390
48279DOD     C288657   0.289   1.435  19.682  0.1680  0.1476 -0.2246
48279DOD     C388658  30.289   1.718  19.889 -0.1359 -0.1068  0.0671
48280DOD     C188659   4.454   4.712   8.833 -0.1377  0.3492  0.1833
48280DOD     C288660   4.026   4.762   8.974 -0.0561 -0.1172  0.2098
48280DOD     C388661   3.762   4.424   9.199  0.2237  0.2948  0.0541
48281DOD     C188662   7.818   1.562  22.011 -0.0874 -0.2310 -0.0213
48281DOD     C288663   7.689   1.977  21.945 -0.0544  0.0910  0.2194
48281DOD     C388664   8.026   2.315  21.787  0.1629  0.1343 -0.1068
48282DOD     C188665  16.983  30.085  24.710  0.1432  0.1380 -0.1093
48282DOD     C288666  17.297  29.825  24.510  0.1328 -0.4741  0.2761
48282DOD     C388667  17.305  29.373  24.411 -0.0274  0.0528 -0.2819
48283DOD     C188668   4.396   7.090  29.980  0.0058 -0.2005  0.1518
48283DOD     C288669   4.307   7.124  29.551 -0.3553  0.2540 -0.0687
48283DOD     C388670   4.058   6.983  29.083  0.1650  0.0043  0.3812
48284DOD     C188671   8.602   6.826  19.449  0.1129  0.0302 -0.1693
48284DOD     C288672   8.344   6.436  19.632 -0.2104 -0.0095  0.1069
48284DOD     C388673   8.013   6.242  19.377  0.3530 -0.0599 -0.0869
48285DOD     C188674   8.748  16.790  23.382  0.4555  0.0172  0.0647
48285DOD     C288675   8.352  16.665  23.183 -0.2505 -0.1134  0.1340
48285DOD     C388676   8.165  16.354  22.965  0.0204  0.0877  0.0480
48286DOD     C188677  25.247  25.626  26.900  0.1595 -0.0721 -0.1708
48286DOD     C288678  24.853  25.707  26.632  0.0877  0.0568  0.0936
48286DOD     C388679  24.931  25.705  26.145 -0.3374  0.0809 -0.0060
48287DOD     C188680  12.719   6.595  24.241  0.3354  0.1939  0.1538
48287DOD     C288681  12.421   6.265  24.127 -0.0682  0.2940 -0.2082
48287DOD     C388682  12.242   5.994  24.406  0.0807 -0.4122  0.0817
48288DOD     C188683  12.318  20.539  22.973  0.0483  0.0131  0.1323
48288DOD     C288684  12.725  20.349  23.139 -0.2114  0.1909  0.1294
48288DOD     C388685  13.054  20.063  23.347  0.1233  0.1188  0.0225
48289DOD     C188686  18.904   5.918  17.816 -0.0611  0.3612  0.1188
48289DOD     C288687  18.727   6.304  17.668 -0.2204  0.2445  0.0790
48289DOD     C388688  18.744   6.539  17.266 -0.1111  0.0342 -0.0873
48290DOD     C188689  27.784   8.412  21.273  0.0678  0.0663  0.2930
48290DOD     C288690  28.098   8.322  20.913  0.1341  0.2260 -0.1085
48290DOD     C388691  28.291   8.592  20.581 -0.0490  0.4351 -0.0921
48291DOD     C188692  28.274  18.480  10.458  0.2162 -0.2269  0.2470
48291DOD     C288693  28.706  18.527  10.335  0.0432  0.0466  0.1437
48291DOD     C388694  28.932  18.895  10.221  0.2457  0.1072 -0.1273
48292DOD     C188695  27.731  10.263  13.605 -0.0711 -0.1630 -0.0513
48292DOD     C288696  27.948  10.503  13.922 -0.0559  0.1480 -0.1397
48292DOD     C388697  28.045  10.923  13.945  0.0946 -0.0312 -0.0351
48293DOD     C188698  15.264   5.733   8.136  0.4248 -0.2279  0.0035
48293DOD     C288699  15.206   6.221   8.093 -0.0128  0.1581  0.1409
48293DOD     C388700  15.049   6.540   7.807 -0.1477  0.0592  0.2137
48294DOD     C188701   4.825  18.086   2.842  0.0034 -0.0236 -0.2230
48294DOD     C288702   5.227  18.168   2.652  0.0019  0.2690  0.2367
48294DOD     C388703   5.708  18.052   2.606  0.3411  0.2620 -0.1030
48295DOD     C188704  15.614  13.786  12.226  0.3169 -0.0728  0.1942
48295DOD     C288705  15.466  14.209  12.239  0.1174 -0.3768  0.2094
48295DOD     C388706  15.227  14.645  12.255 -0.0725 -0.0525  0.2936
48296DOD     C188707  19.705  17.789  15.286 -0.2329 -0.1430 -0.0291
48296DOD     C288708  19.903  17.422  15.469  0.2083  0.0948  0.0181
48296DOD     C388709  19.678  16.966  15.381 -0.1561  0.4237  0.3002
48297DOD     C188710  12.711   1.403  18.805 -0.0713  0.1362 -0.2193
48297DOD     C288711  12.670   0.983  19.020  0.0052 -0.1140  0.1028
48297DOD     C388712  12.813   0.588  19.336  0.2682 -0.0648  0.0489
48298DOD     C188713  15.678   8.338  13.817 -0.2770  0.1752 -0.0457
48298DOD     C288714  15.735   7.895  13.649 -0.2556 -0.1824 -0.3043
48298DOD     C388715  15.662   7.422  13.531 -0.2344 -0.1159  0.0286
48299DOD     C188716   8.398  16.908  22.137 -0.4238  0.0022 -0.0372
48299DOD     C288717   8.413  17.200  21.736 -0.2656  0.1770  0.0540
48299DOD     C388718   8.293  17.533  21.463 -0.1205  0.2034 -0.0292
48300DOD     C188719  12.126   5.791   6.861  0.0008  0.1608 -0.1324
48300DOD     C288720  11.742   5.928   6.668 -0.1720 -0.0578  0.1661
48300DOD     C388721  11.493   5.603   6.472  0.0681 -0.0825 -0.1294
48301DOD     C188722  11.938  11.189  15.842 -0.0785  0.0565  0.1161
48301DOD     C288723  12.320  11.337  15.587 -0.0350  0.2799 -0.0437
48301DOD     C388724  12.754  11.638  15.522 -0.1891 -0.1566  0.1727
48302DOD     C188725  24.180   7.495  30.037  0.2852 -0.3037 -0.1621
48302DOD     C288726  24.564   7.763  30.126 -0.2563 -0.1505  0.0991
48302DOD     C388727  24.680   8.253  30.212  0.1741  0.1766  0.0876
48303DOD     C188728  25.704  27.845  20.974 -0.2151  0.2164  0.1197
48303DOD     C288729  26.167  27.765  20.915 -0.0541 -0.0581 -0.0933
48303DOD     C388730  26.595  27.673  20.801 -0.1163  0.0230  0.1011
48304DOD     C188731  24.047  17.087   5.191  0.2132  0.0602  0.0450
48304DOD     C288732  23.796  16.955   4.760 -0.0978 -0.2037 -0.0691
48304DOD     C388733  23.342  16.812   4.687  0.0543 -0.3836 -0.2253
48305DOD     C188734  25.800  10.803  10.474  0.0845  0.1613 -0.0136
48305DOD     C288735  25.420  11.004  10.588  0.0192 -0.0635  0.2895
48305DOD     C388736  25.061  11.214  10.816 -0.1365 -0.1529 -0.2387
48306DOD     C188737  10.799  22.228  20.226 -0.0326 -0.0891  0.0585
48306DOD     C288738  10.592  22.448  19.867 -0.1498 -0.1527 -0.2237
48306DOD     C388739  10.697  22.749  19.543  0.1569 -0.1175  0.3037
48307DOD     C188740  19.482   2.550  29.606  0.1261 -0.0654 -0.0099
48307DOD     C288741  19.268   2.082  29.600 -0.0703  0.0358 -0.0245
48307DOD     C388742  18.992   1.761  29.714 -0.2511  0.0450 -0.1842
48308DOD     C188743  16.915  28.819  25.388 -0.0035  0.2297 -0.0046
48308DOD     C288744  16.492  28.784  25.172  0.0735 -0.1866 -0.1228
48308DOD     C388745  16.075  28.620  25.012  0.2822 -0.0978 -0.4399
48309DOD     C188746  27.056  14.474  11.669 -0.0103  0.2368  0.0517
48309DOD     C288747  26.965  14.303  12.071  0.1133 -0.0128  0.0557
48309DOD     C388748  26.871  13.858  12.117  0.1968  0.0926  0.1088
48310DOD     C188749  15.604  13.383  29.724 -0.0491 -0.0461 -0.0884
48310DOD     C288750  15.517  12.956  29.514  0.0683 -0.2531  0.0480
48310DOD     C388751  15.560  12.635  29.130  0.2801 -0.0250 -0.0103
48311DOD     C188752   2.666  13.089  23.293  0.1373 -0.0699 -0.1055
48311DOD     C288753   2.809  13.286  22.880 -0.0087  0.1216 -0.0880
48311DOD     C388754   2.805  13.770  22.801  0.0562 -0.3313 -0.0262
48312DOD     C188755  24.783  15.339  26.091 -0.1022 -0.1601 -0.2157
48312DOD     C288756  24.610  15.764  26.019 -0.0040 -0.0110  0.0775
48312DOD     C388757  24.578  16.227  25.931 -0.3125 -0.1969  0.1834
48313DOD     C188758  23.948   4.764   7.646  0.2161 -0.0175  0.0632
48313DOD     C288759  24.122   4.359   7.821  0.0738 -0.0432 -0.0500
48313DOD     C388760  24.343   4.034   8.033  0.0383  0.0035 -0.0440
48314DOD     C188761   3.644  26.818   1.720 -0.1369 -0.0563  0.0808
48314DOD     C288762   3.291  27.062   1.504 -0.0945 -0.3545  0.1031
48314DOD     C388763   2.861  27.077   1.355 -0.4819 -0.0487  0.2603
48315DOD     C188764  22.389  16.922  12.378  0.1883  0.1388 -0.0259
48315DOD     C288765  22.434  16.484  12.363 -0.2729  0.1993 -0.0139
48315DOD     C388766  22.096  16.147  12.247 -0.0500 -0.0961 -0.0265
48316DOD     C188767  27.002  25.591   2.140  0.0079 -0.0425  0.1994
48316DOD     C288768  26.959  26.064   2.169 -0.0323 -0.0675  0.0984
48316DOD     C388769  27.232  26.396   2.065  0.1463 -0.0859 -0.0124
48317DOD     C188770   0.797  15.666  17.519 -0.0763 -0.1381  0.1962
48317DOD     C288771   0.426  15.949  17.538  0.0338  0.2732  0.1380
48317DOD     C388772   0.292  16.239  17.189 -0.2674  0.0052 -0.1351
48318DOD     C188773   0.485  11.555  23.810  0.0188  0.1890 -0.0092
48318DOD     C288774   0.216  11.686  23.410 -0.1124  0.2736  0.1961
48318DOD     C388775   0.214  11.786  22.929 -0.1535 -0.4108  0.0200
48319DOD     C188776  30.170  22.487  15.397 -0.2253  0.1181 -0.3804
48319DOD     C288777  29.878  22.396  15.031 -0.1481 -0.1532 -0.1422
48319DOD     C388778  29.768  22.489  14.632  0.0592 -0.1568  0.2238
48320DOD     C188779  19.196  15.551   6.764 -0.1542  0.1441 -0.2552
48320DOD     C288780  19.341  15.732   7.137  0.0393 -0.0013 -0.0002
48320DOD     C388781  19.162  15.917   7.510  0.0162 -0.1362 -0.2967
48321DOD     C188782  18.389  16.492  16.397  0.2668 -0.0759  0.0197
48321DOD     C288783  18.394  16.854  16.118 -0.1491  0.1650  0.1569
48321DOD     C388784  18.577  17.301  16.009  0.1141 -0.0706 -0.3365
48322DOD     C188785  28.352  20.183  22.574 -0.1537  0.0546  0.0801
48322DOD     C288786  28.492  19.740  22.461 -0.0260 -0.0254  0.1330
48322DOD     C388787  28.666  19.373  22.234 -0.1913 -0.2319  0.1020
48323DOD     C188788  12.591  13.222  18.656  0.1839 -0.1173  0.1490
48323DOD     C288789  12.534  12.799  18.860 -0.1478 -0.0358 -0.0342
48323DOD     C388790  12.337  12.415  19.049  0.2014  0.2280  0.1190
48324DOD     C188791  14.788  16.877  28.703 -0.0225 -0.0785 -0.0867
48324DOD     C288792  14.605  17.140  28.392  0.1948 -0.1033 -0.1535
48324DOD     C388793  14.595  17.615  28.234 -0.0258 -0.4139  0.4587
48325DOD     C188794  16.258  22.026   6.909  0.3614 -0.0521 -0.3893
48325DOD     C288795  16.198  21.551   6.972 -0.0812  0.0251 -0.1137
48325DOD     C388796  15.839  21.292   7.206 -0.3778 -0.1964 -0.0765
48326DOD     C188797  19.911   3.697  29.943 -0.4246 -0.0588  0.1525
48326DOD     C288798  20.057   3.272  30.124  0.2714  0.0879 -0.1713
48326DOD     C388799  20.115   2.820   0.020 -0.6162 -0.0352  0.0250
48327DOD     C188800  11.479  10.636  23.435 -0.0186 -0.0376 -0.0032
48327DOD     C288801  11.103  10.719  23.618  0.1254  0.0754  0.0188
48327DOD     C388802  10.775  10.733  23.947 -0.1806  0.2149 -0.2011
48328DOD     C188803   1.322   7.878   1.293 -0.1586 -0.0446 -0.1657
48328DOD     C288804   1.226   7.613   1.695  0.0450  0.0064  0.3162
48328DOD     C388805   1.077   7.150   1.938  0.1862  0.0742  0.1627
48329DOD     C188806  12.574   4.476  24.752 -0.1822 -0.1895  0.0062
48329DOD     C288807  12.426   3.991  24.749 -0.1798  0.0002  0.0146
48329DOD     C388808  12.181   3.613  24.849  0.0623 -0.1663  0.0452
48330DOD     C188809   7.848  11.767   2.647  0.0410  0.1535 -0.0545
48330DOD     C288810   8.214  11.968   2.915 -0.1089  0.0374 -0.0813
48330DOD     C388811   8.343  12.125   3.346  0.1633 -0.1693 -0.2248
48331DOD     C188812   9.676  16.768  26.793 -0.1281  0.1852 -0.1480
48331DOD     C288813   9.924  16.393  26.670 -0.0602  0.3993 -0.0533
48331DOD     C388814  10.248  16.074  26.736  0.0364 -0.2723  0.0479
48332DOD     C188815   6.483  20.583  12.153  0.0465 -0.2188 -0.0196
48332DOD     C288816   6.413  20.175  12.107 -0.1160 -0.2755  0.0558
48332DOD     C388817   6.311  19.819  11.825 -0.0088 -0.0809  0.1349
48333DOD     C188818   6.581  23.194  21.795  0.0135 -0.1248 -0.1362
48333DOD     C288819   6.830  23.449  22.123 -0.3235  0.1861 -0.3029
48333DOD     C388820   7.064  23.692  22.496 -0.0381 -0.0112  0.3524
48334DOD     C188821   0.455  13.521  23.230  0.3262 -0.2424  0.0926
48334DOD     C288822   0.569  13.239  22.868 -0.3464 -0.1829  0.5671
48334DOD     C388823   0.692  13.264  22.459  0.0453 -0.1063  0.1190
48335DOD     C188824   6.594  16.643  21.979 -0.0443 -0.0282 -0.3869
48335DOD     C288825   6.465  16.612  22.403 -0.1208 -0.0497  0.0384
48335DOD     C388826   6.165  16.814  22.721 -0.2217  0.3222  0.1122
48336DOD     C188827   1.769   6.006   6.485 -0.2966  0.1634 -0.0849
48336DOD     C288828   1.856   5.717   6.173 -0.1968  0.2471 -0.1245
48336DOD     C388829   1.621   5.411   5.910  0.2659 -0.0528  0.0128
48337DOD     C188830  27.148  23.787   0.857 -0.1394  0.0492 -0.2739
48337DOD     C288831  26.901  23.568   0.554  0.2430  0.1050 -0.1509
48337DOD     C388832  26.502  23.259   0.496  0.1859  0.1680 -0.2967
48338DOD     C188833  27.328  16.262  11.364 -0.2256  0.0992  0.0506
48338DOD     C288834  27.776  16.128  11.344  0.0432 -0.0242  0.0943
48338DOD     C388835  28.211  15.947  11.353  0.4827  0.0257 -0.1233
48339DOD     C188836   9.750  12.558   7.975  0.0381 -0.0725 -0.1780
48339DOD     C288837   9.344  12.820   7.884  0.0736 -0.1489 -0.0108
48339DOD     C388838   9.124  12.992   7.547  0.1219 -0.0760 -0.0199
48340DOD     C188839   8.360   7.730  27.172  0.2341  0.0645  0.3164
48340DOD     C288840   8.531   7.441  27.519  0.1460 -0.1788 -0.1701
48340DOD     C388841   8.428   7.531  27.973 -0.1611  0.3064 -0.2675
48341DOD     C188842  14.063   8.246  13.626  0.2618  0.1415 -0.0073
48341DOD     C288843  14.142   8.484  14.029  0.2178  0.1631  0.1308
48341DOD     C388844  14.394   8.463  14.396 -0.0508  0.0808  0.1709
48342DOD     C188845   0.159  17.254  12.293  0.1986 -0.2127  0.3560
48342DOD     C288846  30.275  17.629  12.149  0.2639  0.0055  0.0725
48342DOD     C388847  -0.001  17.876  11.721 -0.1483  0.5759  0.2845
48343DOD     C188848   2.252   3.343  29.914  0.1722 -0.2852 -0.0335
48343DOD     C288849   2.441   3.746  29.778 -0.1871  0.4406 -0.1056
48343DOD     C388850   2.677   4.030  29.467 -0.0495  0.0670 -0.0125
48344DOD     C188851  27.511   4.982  25.262  0.1205  0.2246 -0.1408
48344DOD     C288852  27.264   4.600  25.491  0.0306 -0.0625 -0.0798
48344DOD     C388853  26.990   4.296  25.688 -0.0831  0.1400  0.4162
48345DOD     C188854   9.223  16.519  21.089  0.1812  0.1360 -0.0862
48345DOD     C288855   8.886  16.314  20.771  0.1151 -0.1291  0.1790
48345DOD     C388856   8.573  16.066  20.472 -0.0675  0.2812  0.0943
48346DOD     C188857  28.415  15.986   6.891 -0.0828  0.0058 -0.3277
48346DOD     C288858  28.067  15.817   6.612 -0.2843 -0.1738 -0.0231
48346DOD     C388859  27.676  15.774   6.356  0.0621  0.1904 -0.1913
48347DOD     C188860   0.486  24.483  20.840 -0.1064  0.0775  0.2458
48347DOD     C288861   0.814  24.653  21.125  0.0455  0.1638  0.2243
48347DOD     C388862   1.269  24.594  21.194 -0.2597 -0.0235  0.1478
48348DOD     C188863  24.368  23.817  25.232  0.0433  0.0039  0.1543
48348DOD     C288864  24.258  23.963  25.641 -0.1818 -0.1373  0.0269
48348DOD     C388865  24.608  23.814  25.975 -0.1501  0.0193 -0.0970
48349DOD     C188866  16.313   3.369  25.624  0.0942 -0.0944 -0.1393
48349DOD     C288867  16.113   3.113  25.991  0.0990  0.1324 -0.1929
48349DOD     C388868  15.650   3.139  26.099 -0.0940  0.1710 -0.4185
48350DOD     C188869  28.475   6.497  30.034  0.2389 -0.0552 -0.0374
48350DOD     C288870  28.178   6.431   0.034  0.2340 -0.1373 -0.3908
48350DOD     C388871  27.815   6.356   0.251  0.3454  0.2127  0.2219
48351DOD     C188872  27.693   7.527  21.943  0.0316  0.0934 -0.2009
48351DOD     C288873  28.091   7.705  22.084 -0.0179 -0.3621 -0.0784
48351DOD     C388874  28.423   7.933  22.291  0.0280  0.0808  0.1314
48352DOD     C188875  10.830   8.460   7.662 -0.1070  0.1617 -0.0932
48352DOD     C288876  10.745   8.767   8.028  0.0441 -0.2742  0.2478
48352DOD     C388877  10.705   9.221   8.023  0.1696  0.1098 -0.0825
48353DOD     C188878  21.804   7.389  18.171  0.2040 -0.2274  0.1718
48353DOD     C288879  21.624   6.962  18.016  0.0543  0.0081 -0.0325
48353DOD     C388880  21.458   6.553  17.857 -0.3566 -0.2532 -0.5177
48354DOD     C188881  24.468  22.892  14.502 -0.0289 -0.0427 -0.0901
48354DOD     C288882  24.870  22.859  14.232  0.2593  0.2489 -0.2150
48354DOD     C388883  25.291  22.835  14.096 -0.0810  0.1579  0.1146
48355DOD     C188884  16.337  13.313   6.466  0.1984  0.1803 -0.0709
48355DOD     C288885  16.588  13.312   5.976  0.1887 -0.2054  0.1581
48355DOD     C388886  17.098  13.291   6.017  0.0997  0.0654  0.1878
48356DOD     C188887   7.997  29.720  19.186  0.2295  0.0109 -0.0465
48356DOD     C288888   8.169  30.037  19.470  0.0866 -0.1510 -0.1692
48356DOD     C388889   8.403   0.138  19.681 -0.1670  0.2626 -0.2681
48357DOD     C188890  12.998  27.871  17.903  0.3277  0.0989  0.0501
48357DOD     C288891  13.054  28.044  17.465  0.2446 -0.1364  0.2285
48357DOD     C388892  13.063  28.166  17.020 -0.0065 -0.1303 -0.0364
48358DOD     C188893   6.302  18.116  27.399 -0.0930 -0.0131 -0.0998
48358DOD     C288894   6.236  18.093  27.860  0.0542  0.1221  0.2035
48358DOD     C388895   6.383  18.033  28.297  0.1257 -0.1900 -0.2914
48359DOD     C188896  25.665  16.823   4.770 -0.1322  0.0963  0.0354
48359DOD     C288897  25.623  17.128   5.112 -0.2278  0.1596  0.5200
48359DOD     C388898  25.300  17.363   5.371  0.0640 -0.1406  0.0606
48360DOD     C188899  18.946  24.773   3.983  0.0089  0.0013  0.1623
48360DOD     C288900  18.923  24.913   4.401  0.1927  0.0263 -0.2274
48360DOD     C388901  19.202  24.829   4.789  0.0456  0.0357  0.3123
48361DOD     C188902  21.377  29.789  21.420 -0.3527 -0.0290  0.0401
48361DOD     C288903  21.146  29.825  20.944  0.1536 -0.1549 -0.0134
48361DOD     C388904  20.970  29.921  20.537 -0.0410  0.2374 -0.0447
48362DOD     C188905  10.223  28.184  24.971 -0.0951 -0.0480 -0.4556
48362DOD     C288906   9.982  28.468  25.264 -0.2407 -0.0886  0.4931
48362DOD     C388907  10.097  28.910  25.449 -0.0002  0.2089  0.0403
48363DOD     C188908   8.039   1.012   1.035 -0.0147  0.1442 -0.1637
48363DOD     C288909   7.940   0.569   1.081  0.0204 -0.3445 -0.2741
48363DOD     C388910   7.937   0.129   1.247 -0.0747  0.0397  0.0262
48364DOD     C188911   5.203  24.153   3.439  0.3629 -0.0758  0.2022
48364DOD     C288912   5.323  24.296   3.896 -0.2868  0.1287 -0.0463
48364DOD     C388913   5.445  24.768   4.048 -0.0879 -0.0017  0.0419
48365DOD     C188914   3.558  21.992  14.682 -0.2366 -0.2712 -0.2023
48365DOD     C288915   3.263  21.692  14.469  0.2766 -0.2308  0.0843
48365DOD     C388916   3.125  21.363  14.152 -0.2105 -0.1581 -0.1551
48366DOD     C188917   2.234  17.761  25.107 -0.0993  0.0221 -0.0071
48366DOD     C288918   2.305  18.129  24.823  0.2282  0.2496  0.2873
48366DOD     C388919   2.486  18.490  24.635  0.1394  0.1495 -0.0048
48367DOD     C188920  20.951  23.772  19.605  0.0269  0.0719 -0.0525
48367DOD     C288921  20.701  23.413  19.558 -0.1020 -0.2127 -0.0674
48367DOD     C388922  20.380  23.130  19.759  0.2959 -0.0803 -0.1262
48368DOD     C188923  15.775   8.105   2.176  0.2251  0.3802 -0.0253
48368DOD     C288924  15.383   7.971   1.964 -0.1747  0.0343  0.1374
48368DOD     C388925  15.334   7.595   1.734  0.3097 -0.1266 -0.0289
48369DOD     C188926   8.480  10.640  15.339  0.1316  0.2902  0.2215
48369DOD     C288927   8.889  10.634  15.096  0.1961 -0.1595  0.4475
48369DOD     C388928   9.339  10.497  15.142 -0.1715 -0.0605  0.1591
48370DOD     C188929  21.948  29.924   7.578 -0.0753  0.0575 -0.1133
48370DOD     C288930  21.457  29.840   7.704  0.1098  0.0494 -0.1588
48370DOD     C388931  21.231  30.076   8.044  0.3496  0.0494 -0.0595
48371DOD     C188932   6.749  20.079  19.845 -0.1621 -0.0550 -0.0582
48371DOD     C288933   6.505  20.009  19.461  0.2981 -0.0023  0.3102
48371DOD     C388934   6.112  19.947  19.287  0.0901  0.1024 -0.2939
48372DOD     C188935   0.696  20.179   0.627 -0.0916 -0.3749  0.1920
48372DOD     C288936   0.353  19.892   0.631 -0.1646  0.1512  0.0456
48372DOD     C388937  30.320  19.619   0.611  0.1776  0.0045 -0.2683
48373DOD     C188938   3.773  18.174  12.426 -0.0936 -0.1373  0.1509
48373DOD     C288939   3.934  18.582  12.235  0.1592 -0.1823  0.3248
48373DOD     C388940   4.005  18.773  11.858  0.0695 -0.0492  0.0283
48374DOD     C188941  25.677  11.215   4.518 -0.1314 -0.1557  0.2653
48374DOD     C288942  25.310  11.243   4.279 -0.2022  0.0498  0.3708
48374DOD     C388943  24.887  11.279   4.068  0.0616  0.1770  0.1846
48375DOD     C188944   1.997   6.771  29.616  0.3221 -0.1364 -0.0620
48375DOD     C288945   2.062   6.922  29.218 -0.0604 -0.1609  0.1204
48375DOD     C388946   2.155   6.688  28.815 -0.0672 -0.0402 -0.2110
48376DOD     C188947  17.562  29.064  19.076 -0.0050 -0.1713 -0.0790
48376DOD     C288948  17.766  29.246  18.722  0.0396  0.0552  0.1939
48376DOD     C388949  17.917  29.646  18.626  0.1073  0.0783 -0.3622
48377DOD     C188950  29.147  21.939  12.859  0.1259 -0.0225 -0.2272
48377DOD     C288951  29.032  21.469  12.793  0.0226 -0.2200 -0.0545
48377DOD     C388952  29.129  21.078  12.506 -0.0204 -0.2369 -0.0028
48378DOD     C188953  20.862  17.890  15.321  0.0195  0.2004 -0.3106
48378DOD     C288954  21.034  17.482  15.105  0.0950  0.0083 -0.0001
48378DOD     C388955  21.363  17.252  14.964 -0.2051  0.0003  0.1631
48379DOD     C188956   9.581  28.934   5.907 -0.2532 -0.0139 -0.3395
48379DOD     C288957   9.916  29.272   6.075  0.2647 -0.2858  0.2090
48379DOD     C388958   9.892  29.699   6.305 -0.2723 -0.0259  0.0439
48380DOD     C188959   5.073  25.028   1.378 -0.1504 -0.1075  0.2599
48380DOD     C288960   5.277  25.458   1.414  0.4020 -0.1179  0.2516
48380DOD     C388961   5.332  25.922   1.320 -0.1237  0.0462  0.1149
48381DOD     C188962  28.431  14.720  14.477  0.3301 -0.0873 -0.1520
48381DOD     C288963  28.267  15.018  14.106  0.1022 -0.0422 -0.1521
48381DOD     C388964  28.013  15.099  13.783  0.1396  0.0314  0.0294
48382DOD     C188965   1.249  27.580   9.225  0.1919 -0.1203  0.1157
48382DOD     C288966   1.087  27.281   8.922  0.0041 -0.0788 -0.0037
48382DOD     C388967   1.159  27.151   8.495 -0.0421  0.0991 -0.2114
48383DOD     C188968   5.979  13.195  17.587 -0.0901  0.1381 -0.1901
48383DOD     C288969   6.058  13.342  17.140  0.0289  0.2170  0.0827
48383DOD     C388970   6.225  13.751  16.867 -0.0117 -0.0399 -0.0633
48384DOD     C188971   0.262  20.190  22.028 -0.0201  0.1610 -0.1118
48384DOD     C288972  30.280  20.219  22.365  0.0937  0.0689  0.1571
48384DOD     C388973  29.980  20.008  22.642 -0.1253 -0.3389  0.0316
48385DOD     C188974  28.279  26.330  26.830  0.0728  0.0135  0.1569
48385DOD     C288975  28.358  26.032  26.518  0.3185 -0.3243 -0.0352
48385DOD     C388976  28.239  25.765  26.143  0.1854  0.0674  0.0585
48386DOD     C188977  18.769  15.864  29.101  0.0753  0.0441 -0.1207
48386DOD     C288978  19.225  15.696  29.234 -0.4405 -0.0229 -0.1960
48386DOD     C388979  19.645  15.857  29.304 -0.2742 -0.0784 -0.0836
48387DOD     C188980  23.745  -0.036   8.943  0.1952 -0.2752 -0.1082
48387DOD     C288981  23.443   0.173   8.574  0.0933 -0.0482  0.0350
48387DOD     C388982  23.503   0.140   8.135  0.1399  0.2954 -0.2696
48388DOD     C188983  14.100   1.831  25.325 -0.0026  0.0959  0.0147
48388DOD     C288984  13.667   1.648  25.185 -0.1750 -0.1946  0.1872
48388DOD     C388985  13.320   1.578  25.528 -0.1314  0.0170 -0.2359
48389DOD     C188986  10.355  10.030  11.553  0.1514  0.1165  0.0002
48389DOD     C288987  10.783   9.916  11.516 -0.2037  0.1272 -0.2458
48389DOD     C388988  11.282   9.884  11.626 -0.1853  0.0046  0.0576
48390DOD     C188989  22.105   1.918   7.809 -0.2622  0.0606  0.3737
48390DOD     C288990  21.985   1.510   7.553 -0.0782  0.0732  0.2432
48390DOD     C388991  22.024   1.074   7.291 -0.0692 -0.1211 -0.0639
48391DOD     C188992  27.437  27.191  22.951 -0.2820  0.3132 -0.2447
48391DOD     C288993  27.334  26.776  22.741 -0.0927  0.3613 -0.0630
48391DOD     C388994  27.081  26.484  22.544 -0.0817  0.1068 -0.2648
48392DOD     C188995  26.643  17.564  16.253 -0.2185  0.2120 -0.0410
48392DOD     C288996  26.363  17.828  16.536 -0.1173  0.0588 -0.0075
48392DOD     C388997  26.339  18.275  16.622 -0.2705  0.3271  0.0136
48393DOD     C188998   5.705   2.421   1.002 -0.1821 -0.1707 -0.0166
48393DOD     C288999   6.126   2.546   0.851 -0.2925  0.0586 -0.2803
48393DOD     C389000   6.445   2.875   0.785 -0.2479 -0.0289  0.2014
48394DOD     C189001  28.808  18.010  16.759  0.1094 -0.1024  0.1773
48394DOD     C289002  29.207  18.185  16.787  0.3595  0.1238  0.2395
48394DOD     C389003  29.655  18.082  16.949  0.2662  0.2693  0.1213
48395DOD     C189004  26.189  24.986  29.474 -0.3790  0.0731  0.1117
48395DOD     C289005  26.362  24.589  29.475  0.0193  0.2523  0.3329
48395DOD     C389006  26.655  24.307  29.382  0.1831 -0.1676 -0.2381
48396DOD     C189007  12.355   3.229   6.850 -0.1918  0.1729 -0.0935
48396DOD     C289008  12.835   3.052   6.885  0.2348  0.1232 -0.2369
48396DOD     C389009  13.317   2.838   6.868  0.4607 -0.1592 -0.0327
48397DOD     C189010   9.051  25.315  12.878  0.1599 -0.2046 -0.2137
48397DOD     C289011   8.789  25.037  12.569  0.1949  0.2923  0.0563
48397DOD     C389012   8.420  24.735  12.639  0.0637 -0.0493 -0.0036
48398DOD     C189013  19.138  28.933  20.854  0.1890  0.0238 -0.2761
48398DOD     C289014  19.421  29.305  20.874  0.0567  0.2073  0.2142
48398DOD     C389015  19.355  29.666  21.086  0.1150 -0.1265  0.1873
48399DOD     C189016  26.614   6.860  15.093  0.1913 -0.2440 -0.1255
48399DOD     C289017  26.377   6.837  15.540  0.1391  0.1954 -0.2244
48399DOD     C389018  26.072   6.682  15.873 -0.0583 -0.0713 -0.0534
48400DOD     C189019   8.405   9.371  24.618 -0.0854 -0.0607  0.1651
48400DOD     C289020   8.393   8.889  24.568  0.2930 -0.0903  0.0687
48400DOD     C389021   8.376   8.453  24.358 -0.2306 -0.0157  0.1771
48401DOD     C189022  25.536  29.334  20.292 -0.1669 -0.1355 -0.0572
48401DOD     C289023  25.879  29.454  19.943  0.0032 -0.1780 -0.0251
48401DOD     C389024  25.884  29.338  19.473 -0.0174  0.1937  0.2767
48402DOD     C189025  16.534  21.981   1.142 -0.1363  0.0513  0.0296
48402DOD     C289026  16.524  21.854   0.679 -0.0425 -0.0871 -0.0269
48402DOD     C389027  16.588  21.907   0.250  0.0261  0.0283  0.1347
48403DOD     C189028  13.963  12.218  29.960  0.1556 -0.0442 -0.0091
48403DOD     C289029  14.365  12.297  30.089 -0.1911 -0.1132 -0.1043
48403DOD     C389030  14.818  12.223  30.105 -0.1706  0.0716 -0.1905
48404DOD     C189031   3.763   7.293  14.188  0.3130 -0.1181  0.1168
48404DOD     C289032   3.412   6.957  14.053 -0.4097 -0.1416  0.2541
48404DOD     C389033   3.360   6.527  14.081  0.2248 -0.2165 -0.1305
48405DOD     C189034  20.139  13.607   6.733  0.2624  0.1246  0.0367
48405DOD     C289035  20.219  13.530   7.183  0.1017 -0.1627 -0.0138
48405DOD     C389036  20.189  13.363   7.588 -0.1109  0.3160 -0.0426
48406DOD     C189037   1.188   4.610  25.934  0.1368 -0.0243 -0.0111
48406DOD     C289038   0.787   4.685  26.128 -0.0309  0.0150  0.0059
48406DOD     C389039   0.507   5.075  26.134  0.1067 -0.1800 -0.0863
48407DOD     C189040   5.578   9.629   0.916  0.0837  0.0090 -0.1117
48407DOD     C289041   5.485   9.913   1.221 -0.1500  0.0825 -0.0841
48407DOD     C389042   5.646  10.208   1.545  0.0314 -0.0949  0.1090
48408DOD     C189043  30.106  15.496  11.333  0.2594 -0.0889  0.2802
48408DOD     C289044  29.777  15.498  11.640 -0.1081  0.0935 -0.1128
48408DOD     C389045  29.291  15.542  11.710  0.0760  0.1465 -0.2130
48409DOD     C189046   7.285   2.882   5.075 -0.2837  0.0564  0.0906
48409DOD     C289047   7.427   2.872   5.490 -0.5018  0.0473 -0.0343
48409DOD     C389048   7.867   2.669   5.615  0.2482  0.2695 -0.0264
48410DOD     C189049  11.413  17.861   2.166 -0.0200  0.1736 -0.3521
48410DOD     C289050  11.267  17.399   2.082 -0.0188  0.0198  0.1963
48410DOD     C389051  11.457  17.073   1.814 -0.2782  0.1163  0.0514
48411DOD     C189052  24.605  15.490   4.042  0.0715 -0.0038 -0.0365
48411DOD     C289053  24.687  15.412   4.456  0.1426  0.0971 -0.1401
48411DOD     C389054  24.993  15.180   4.691 -0.0447 -0.1598 -0.0490
48412DOD     C189055  12.782  10.929  10.723  0.1455  0.1830  0.0911
48412DOD     C289056  12.461  11.278  10.498 -0.0488 -0.0820  0.0361
48412DOD     C389057  12.107  11.594  10.410  0.1405  0.0691 -0.2671
48413DOD     C189058  11.278  22.952   8.207  0.2012 -0.0918  0.4340
48413DOD     C289059  10.846  22.878   8.292 -0.0132  0.0148  0.2484
48413DOD     C389060  10.410  22.755   8.369 -0.1778  0.0049 -0.3767
48414DOD     C189061   2.176  25.229  25.252  0.3868 -0.0763  0.0110
48414DOD     C289062   1.862  25.041  24.971 -0.0111 -0.2504  0.0563
48414DOD     C389063   1.618  24.950  24.546 -0.0517  0.1261  0.0652
48415DOD     C189064   8.476  29.707  21.879  0.1329 -0.1755  0.1969
48415DOD     C289065   8.493  29.255  21.903 -0.1115  0.0309  0.0048
48415DOD     C389066   8.518  28.880  22.129 -0.2816  0.0630  0.1810
48416DOD     C189067  17.653   1.924   5.473  0.1367 -0.2453  0.0427
48416DOD     C289068  18.113   1.903   5.481  0.0407  0.1488 -0.1232
48416DOD     C389069  18.365   1.523   5.545 -0.1219 -0.3884 -0.1505
48417DOD     C189070  15.628  23.159  18.434  0.1223 -0.4455 -0.2226
48417DOD     C289071  15.307  22.971  18.223 -0.2367  0.2732 -0.0642
48417DOD     C389072  15.273  22.829  17.786  0.2827  0.0816  0.0248
48418DOD     C189073   9.404   3.004  25.924  0.3290  0.1138 -0.1772
48418DOD     C289074   9.743   3.057  26.209 -0.1967 -0.3244 -0.0590
48418DOD     C389075   9.949   2.746  26.506 -0.3627 -0.1756 -0.0777
48419DOD     C189076  26.290  28.199  20.549 -0.1997 -0.0606 -0.0232
48419DOD     C289077  26.222  27.756  20.342  0.1855 -0.0685 -0.0948
48419DOD     C389078  26.217  27.326  20.145 -0.0122 -0.3971 -0.1655
48420DOD     C189079   3.655  28.318  23.103  0.1259 -0.0407 -0.0223
48420DOD     C289080   4.095  28.141  23.049  0.3242 -0.2994  0.1822
48420DOD     C389081   4.304  27.718  23.077  0.0140  0.0263  0.0054
48421DOD     C189082   3.269  19.360   0.313  0.0038  0.0232  0.1142
48421DOD     C289083   3.675  19.399   0.551  0.2981 -0.0451 -0.1125
48421DOD     C389084   3.980  19.222   0.870 -0.0602 -0.0928  0.2290
48422DOD     C189085   6.302   6.093  27.241  0.0642 -0.0422 -0.0139
48422DOD     C289086   6.379   6.231  26.822  0.1146 -0.1959  0.2348
48422DOD     C389087   6.740   6.127  26.468 -0.2099 -0.1411 -0.1769
48423DOD     C189088  18.321  21.856  16.538  0.0651  0.1123 -0.0330
48423DOD     C289089  18.541  21.656  16.955  0.0216 -0.3976  0.2748
48423DOD     C389090  18.707  21.606  17.375  0.0700 -0.1687 -0.0813
48424DOD     C189091  10.556  28.953  26.869 -0.3064  0.2396 -0.2580
48424DOD     C289092  10.728  29.018  26.415 -0.1716  0.1372  0.0808
48424DOD     C389093  11.056  28.911  26.045 -0.0271  0.0753  0.2262
48425DOD     C189094  18.480   0.646  16.430 -0.4502  0.0451  0.0947
48425DOD     C289095  18.487   0.421  15.978 -0.1617  0.0756 -0.2589
48425DOD     C389096  18.406   0.210  15.587 -0.0514  0.0129 -0.1786
48426DOD     C189097  15.553  12.964  12.613  0.1092 -0.0433 -0.0358
48426DOD     C289098  15.630  12.811  12.204 -0.1303  0.2196 -0.1648
48426DOD     C389099  15.779  12.475  11.856 -0.0358  0.3838 -0.3882
48427DOD     C189100   5.054   8.265  20.683 -0.3246  0.2053 -0.2276
48427DOD     C289101   5.300   8.527  21.044  0.3226 -0.1679  0.2654
48427DOD     C389102   5.526   8.881  21.029 -0.0526  0.0113  0.0805
48428DOD     C189103  25.573  26.833   6.635  0.1065 -0.0882 -0.4023
48428DOD     C289104  25.415  26.725   7.035 -0.0569  0.2205 -0.1162
48428DOD     C389105  25.163  26.443   7.292 -0.2266 -0.0076  0.2026
48429DOD     C189106  13.557  13.004  28.641 -0.0894 -0.2423  0.1744
48429DOD     C289107  13.866  13.269  28.405 -0.2158  0.0383  0.1950
48429DOD     C389108  14.025  13.599  28.107  0.2054  0.4266 -0.1153
48430DOD     C189109  16.443  22.327  10.736 -0.0089 -0.3960  0.1716
48430DOD     C289110  16.596  21.904  10.639 -0.3050 -0.1531  0.1762
48430DOD     C389111  17.030  21.739  10.597  0.2221  0.0655 -0.2914
48431DOD     C189112  22.376  15.971  11.264  0.1671  0.1453  0.0181
48431DOD     C289113  22.775  16.061  11.491  0.1051 -0.1344  0.1043
48431DOD     C389114  23.163  16.209  11.687 -0.0561  0.0539  0.0460
48432DOD     C189115  27.568  25.509   9.137  0.4511 -0.3160  0.1014
48432DOD     C289116  27.987  25.519   8.945 -0.1416  0.0835  0.0660
48432DOD     C389117  28.371  25.786   9.073  0.0892  0.0177 -0.3556
48433DOD     C189118  12.735  16.268  19.700 -0.2754 -0.3553  0.1288
48433DOD     C289119  12.494  16.523  20.033  0.0543  0.2324 -0.3049
48433DOD     C389120  12.097  16.573  20.280  0.1009  0.0273 -0.0590
48434DOD     C189121  27.512   7.145  13.179  0.1237  0.0021 -0.1976
48434DOD     C289122  27.693   7.131  13.628  0.1028  0.0880 -0.4962
48434DOD     C389123  27.959   7.242  14.015  0.0848 -0.1422 -0.0638
48435DOD     C189124   0.541  29.884   9.487 -0.1876  0.1283  0.2679
48435DOD     C289125   0.432  29.501   9.203  0.2089 -0.1469 -0.2725
48435DOD     C389126   0.356  29.055   9.239 -0.3062  0.0049  0.1774
48436DOD     C189127   0.498  18.290  23.164 -0.0321 -0.2343  0.0491
48436DOD     C289128   0.452  18.068  22.761  0.0185  0.3545  0.1692
48436DOD     C389129   0.433  17.732  22.450  0.1822 -0.2330 -0.1292
48437DOD     C189130  25.615  27.136   0.080  0.1531 -0.1190 -0.1421
48437DOD     C289131  25.426  27.508   0.289  0.2248 -0.1392  0.1178
48437DOD     C389132  25.074  27.801   0.259 -0.1186  0.0246  0.1589
48438DOD     C189133   7.762   9.643  23.768  0.5676 -0.2144 -0.0810
48438DOD     C289134   7.322   9.648  23.977  0.0048  0.0649  0.1830
48438DOD     C389135   6.904   9.767  24.019  0.1111 -0.1219 -0.0879
48439DOD     C189136  10.106  22.827  20.414  0.2674 -0.2135 -0.3214
48439DOD     C289137  10.088  22.823  20.854  0.1440 -0.0374 -0.0408
48439DOD     C389138  10.042  22.703  21.315  0.3307 -0.0560 -0.3544
48440DOD     C189139  29.568   8.129  20.729 -0.0152 -0.2033 -0.0654
48440DOD     C289140  29.328   8.498  20.691  0.0244 -0.2169 -0.2035
48440DOD     C389141  29.022   8.677  20.993 -0.1471 -0.0497  0.2047
48441DOD     C189142  17.767  29.776  23.336  0.2284  0.1890  0.1016
48441DOD     C289143  17.755  29.342  23.544  0.2197 -0.0978  0.1711
48441DOD     C389144  17.918  28.948  23.422  0.1088  0.0050 -0.1135
48442DOD     C189145  16.207  15.343  25.754  0.0248 -0.0083 -0.1376
48442DOD     C289146  15.893  15.069  25.994 -0.1331 -0.0310  0.0891
48442DOD     C389147  15.446  14.900  25.986  0.0948 -0.3829  0.2541
48443DOD     C189148  23.410  19.713  25.448 -0.0029 -0.3395 -0.1158
48443DOD     C289149  23.449  20.141  25.376 -0.1254 -0.0632  0.0227
48443DOD     C389150  23.745  20.460  25.198 -0.3882 -0.2459  0.2050
48444DOD     C189151  19.955   1.651  25.170  0.3719  0.1132  0.0265
48444DOD     C289152  19.957   1.272  25.415 -0.2178  0.1344  0.1414
48444DOD     C389153  20.093   1.181  25.851  0.1722  0.0121 -0.0995
48445DOD     C189154  18.162  17.005  21.109 -0.0658  0.2916 -0.3582
48445DOD     C289155  18.473  16.873  20.770 -0.4843 -0.0383 -0.0150
48445DOD     C389156  18.879  17.114  20.672 -0.0829 -0.1813  0.0947
48446DOD     C189157  26.078   0.320  11.120  0.5483  0.3313  0.0506
48446DOD     C289158  25.939   0.518  11.506 -0.1066  0.2689  0.1858
48446DOD     C389159  25.765   0.910  11.731  0.0941  0.0147 -0.0851
48447DOD     C189160   5.660  12.126   7.765 -0.0722  0.0659  0.0926
48447DOD     C289161   5.807  11.836   8.155  0.1399  0.0700  0.0991
48447DOD     C389162   5.931  11.979   8.561  0.1169  0.1327  0.6185
48448DOD     C189163  10.801  12.331   4.331 -0.2288  0.2710 -0.3258
48448DOD     C289164  10.959  12.304   3.918 -0.0235 -0.3015 -0.1583
48448DOD     C389165  10.995  11.949   3.587  0.1472  0.1563 -0.1882
48449DOD     C189166  25.123  18.985  15.345  0.1673  0.3793 -0.1185
48449DOD     C289167  25.350  18.950  15.718 -0.0810 -0.0421 -0.0354
48449DOD     C389168  25.517  18.720  16.115  0.0581 -0.0690  0.1198
48450DOD     C189169  24.533   2.497  10.210 -0.1116  0.1414 -0.2518
48450DOD     C289170  24.144   2.750  10.180 -0.2955  0.0333  0.0516
48450DOD     C389171  23.731   2.607  10.052 -0.0049 -0.3922 -0.0116
48451DOD     C189172  12.808   0.336   1.964 -0.0481 -0.0473  0.2305
48451DOD     C289173  12.579   0.023   1.717  0.2919 -0.3817 -0.3634
48451DOD     C389174  12.120  30.258   1.714  0.0422  0.1271  0.0028
48452DOD     C189175   1.235  13.528  18.371 -0.4116  0.3422  0.1848
48452DOD     C289176   0.956  13.370  17.994 -0.1512 -0.3133 -0.0510
48452DOD     C389177   0.906  13.330  17.526 -0.2821  0.2647  0.0875
48453DOD     C189178  27.010  25.303   0.323 -0.2051  0.2998  0.1164
48453DOD     C289179  27.042  25.762   0.351 -0.3181  0.0911 -0.0384
48453DOD     C389180  27.116  26.218   0.173  0.0606 -0.0434  0.2149
48454DOD     C189181   3.604  12.378  20.316 -0.2317 -0.1125 -0.1093
48454DOD     C289182   3.873  12.020  20.245  0.3726  0.0448  0.0756
48454DOD     C389183   3.900  11.605  20.028 -0.2703 -0.0805 -0.2307
48455DOD     C189184   5.131  11.100   8.073 -0.0108  0.5550  0.2097
48455DOD     C289185   5.531  11.275   7.856  0.2898  0.2537 -0.1820
48455DOD     C389186   5.558  11.285   7.374  0.3389 -0.0014 -0.2156
48456DOD     C189187  14.152   0.159  25.161 -0.1786 -0.0532  0.2222
48456DOD     C289188  14.486   0.206  25.470 -0.3489 -0.0968 -0.0110
48456DOD     C389189  14.876   0.425  25.623  0.3411  0.2300  0.0838
48457DOD     C189190   5.832  22.901  25.059  0.6003  0.0554  0.0537
48457DOD     C289191   5.668  23.028  24.639 -0.0907 -0.2963 -0.0446
48457DOD     C389192   5.490  23.210  24.246 -0.0917 -0.4097  0.1176
48458DOD     C189193  26.381  19.789  13.216 -0.0847  0.3013 -0.2011
48458DOD     C289194  26.260  19.517  13.600 -0.1889 -0.0124  0.0736
48458DOD     C389195  26.383  19.136  13.867  0.0563  0.0678 -0.1227
48459DOD     C189196   5.141  24.462   9.816  0.2254  0.0240 -0.3022
48459DOD     C289197   4.924  24.272   9.396  0.2033 -0.3461 -0.3621
48459DOD     C389198   4.865  23.834   9.281  0.0918  0.2548 -0.1882
48460DOD     C189199   7.516  15.368   2.239 -0.1526 -0.1570  0.1013
48460DOD     C289200   8.029  15.477   2.269 -0.0779 -0.2357 -0.0757
48460DOD     C389201   8.225  15.885   2.416  0.0077  0.2313  0.3348
48461DOD     C189202   1.529   0.168  28.291  0.1249 -0.0635 -0.1425
48461DOD     C289203   1.180   0.182  27.968  0.0463  0.0511  0.3461
48461DOD     C389204   0.981   0.207  27.518  0.0084 -0.0174 -0.1686
48462DOD     C189205  17.375  16.267  20.788  0.1830 -0.1503  0.0109
48462DOD     C289206  16.955  16.484  20.653 -0.3093 -0.0585  0.7441
48462DOD     C389207  16.576  16.513  20.415  0.2726 -0.2239 -0.0965
48463DOD     C189208  24.371  23.743  15.038 -0.1334  0.0424 -0.1269
48463DOD     C289209  24.833  23.800  15.147 -0.2707 -0.3049  0.0082
48463DOD     C389210  25.175  23.911  15.494  0.0184 -0.5136  0.1040
48464DOD     C189211  15.864   5.042  14.195 -0.2020 -0.3142  0.2324
48464DOD     C289212  15.915   4.944  14.665  0.0239 -0.0534 -0.0779
48464DOD     C389213  15.697   4.877  15.060 -0.2698 -0.0637 -0.3737
48465DOD     C189214  19.468  15.315  14.624 -0.1139  0.0435  0.1339
48465DOD     C289215  19.580  15.377  15.044 -0.0597 -0.0409 -0.1088
48465DOD     C389216  19.631  15.332  15.520  0.3637 -0.2945 -0.1389
48466DOD     C189217  20.671  15.270  18.221 -0.1693  0.1251  0.1757
48466DOD     C289218  20.553  15.426  17.832 -0.0109  0.0722 -0.1143
48466DOD     C389219  20.473  15.583  17.424  0.4479  0.1123  0.1216
48467DOD     C189220  14.027   2.496  28.555  0.1602 -0.0390 -0.2090
48467DOD     C289221  13.772   2.159  28.756 -0.3899 -0.2810 -0.2293
48467DOD     C389222  13.865   1.818  29.119 -0.1471  0.1876  0.4542
48468DOD     C189223  20.722   9.385  18.982  0.1288  0.0313 -0.0278
48468DOD     C289224  20.432   9.766  18.766 -0.1022 -0.4059 -0.1653
48468DOD     C389225  20.489  10.182  18.603  0.2082  0.1519 -0.0818
48469DOD     C189226  23.461  28.492  27.957 -0.1169 -0.0979  0.2471
48469DOD     C289227  23.086  28.684  27.880 -0.4059 -0.0519 -0.0360
48469DOD     C389228  22.683  28.922  27.945 -0.0951  0.1425 -0.1148
48470DOD     C189229   6.131   3.614  24.493  0.4398  0.1519  0.0687
48470DOD     C289230   6.235   4.052  24.359  0.0007  0.0589  0.0986
48470DOD     C389231   6.220   4.443  24.588  0.0151  0.2940 -0.0309
48471DOD     C189232  10.268  24.724  13.133 -0.2026  0.2095 -0.1485
48471DOD     C289233  10.131  24.460  13.452 -0.0589  0.1086 -0.0981
48471DOD     C389234  10.194  24.042  13.608  0.3570  0.0115  0.2025
48472DOD     C189235  15.887   9.980  12.821 -0.0156 -0.0604 -0.0538
48472DOD     C289236  15.636  10.266  12.569 -0.0857  0.5690  0.1730
48472DOD     C389237  15.245  10.331  12.350  0.1634 -0.0797 -0.0600
48473DOD     C189238   4.725  19.218   5.200 -0.0622  0.0613 -0.3303
48473DOD     C289239   5.160  19.240   4.976 -0.3995 -0.1422 -0.2150
48473DOD     C389240   5.424  19.610   4.846  0.0009 -0.2768 -0.2505
48474DOD     C189241   0.132   9.783  20.328  0.0421 -0.1227 -0.3074
48474DOD     C289242   0.166   9.786  19.884 -0.2023 -0.1605  0.0421
48474DOD     C389243  30.306  10.070  19.653  0.0859 -0.0402  0.0996
48475DOD     C189244  11.290  11.849   4.756  0.2453  0.2164 -0.2113
48475DOD     C289245  11.260  12.064   4.354 -0.0173  0.0809 -0.0415
48475DOD     C389246  11.508  11.913   3.954 -0.2562 -0.2152  0.1367
48476DOD     C189247  13.242  19.883  19.320 -0.0256 -0.1430  0.0842
48476DOD     C289248  13.571  19.559  19.202  0.2216 -0.0569 -0.1484
48476DOD     C389249  13.884  19.174  19.231 -0.0031  0.1120 -0.1562
48477DOD     C189250  14.094   6.306  17.002 -0.0089  0.1844  0.1676
48477DOD     C289251  14.412   6.599  16.984  0.1789 -0.3628 -0.0429
48477DOD     C389252  14.494   6.921  17.340 -0.1958 -0.0152 -0.0998
48478DOD     C189253  29.329  20.261  29.519 -0.0053 -0.0482 -0.1841
48478DOD     C289254  28.939  20.478  29.419 -0.0002  0.0737 -0.0706
48478DOD     C389255  28.540  20.526  29.651  0.2790 -0.2236  0.0741
48479DOD     C189256  19.191  22.304   4.972 -0.0366 -0.0935  0.1767
48479DOD     C289257  19.156  22.036   5.375  0.0672 -0.2678  0.1944
48479DOD     C389258  18.826  21.833   5.646  0.1496  0.1858  0.0296
48480DOD     C189259   5.160  26.304  24.995  0.0208 -0.0743 -0.1676
48480DOD     C289260   4.827  26.579  25.133  0.2394  0.0836 -0.0096
48480DOD     C389261   4.577  26.945  25.102  0.1736 -0.1873  0.1467
48481DOD     C189262  22.947  24.302  11.473  0.1912 -0.0452  0.0578
48481DOD     C289263  23.100  24.149  11.055 -0.0723  0.0322  0.1747
48481DOD     C389264  23.198  23.912  10.655  0.0984  0.0025  0.1984
48482DOD     C189265  13.315  22.300   2.844  0.1192 -0.1037 -0.4309
48482DOD     C289266  13.720  22.417   2.612 -0.0194  0.1266 -0.0580
48482DOD     C389267  14.094  22.571   2.432 -0.1287  0.0223  0.0644
48483DOD     C189268  28.287  11.595  10.809 -0.1458  0.1335 -0.1163
48483DOD     C289269  28.290  11.890  10.446  0.0645 -0.2905 -0.0519
48483DOD     C389270  28.500  12.320  10.234 -0.0073  0.1025  0.0468
48484DOD     C189271  25.100  10.958  10.115  0.1181 -0.1800 -0.5666
48484DOD     C289272  24.763  10.609  10.228 -0.2385 -0.2521  0.1943
48484DOD     C389273  24.287  10.469  10.185 -0.2247  0.2234 -0.2223
48485DOD     C189274  14.029  19.073   6.354  0.2100 -0.0110 -0.2735
48485DOD     C289275  13.733  19.420   6.402  0.0292 -0.0767  0.2085
48485DOD     C389276  13.287  19.433   6.341 -0.1680  0.2879  0.1717
48486DOD     C189277  15.001  19.178  12.572 -0.1085 -0.0417 -0.1099
48486DOD     C289278  15.387  19.149  12.394 -0.0873  0.0426 -0.2439
48486DOD     C389279  15.609  18.885  12.078 -0.0624 -0.5085  0.1306
48487DOD     C189280  12.069  25.557  29.195 -0.3362 -0.1767  0.0421
48487DOD     C289281  12.065  25.165  28.993  0.0862 -0.0269  0.2635
48487DOD     C389282  12.025  24.831  28.590 -0.1072 -0.1191  0.3468
48488DOD     C189283   3.309  18.713   1.741 -0.1711  0.2468 -0.0104
48488DOD     C289284   3.242  18.418   2.112 -0.0562 -0.2848  0.0366
48488DOD     C389285   3.189  18.080   2.469 -0.0587  0.1552  0.1782
48489DOD     C189286  24.861  21.505  11.001 -0.2259 -0.1106  0.2127
48489DOD     C289287  24.482  21.717  11.102  0.0647  0.1631 -0.1505
48489DOD     C389288  24.182  22.050  11.169  0.0057 -0.1448  0.1981
48490DOD     C189289  29.673  25.961  25.715 -0.0420  0.2783  0.1300
48490DOD     C289290  29.461  26.119  26.027 -0.0138 -0.4741  0.2831
48490DOD     C389291  29.129  26.303  26.295 -0.5914  0.0040 -0.1414
48491DOD     C189292  21.930  23.817  25.129 -0.0033  0.5072 -0.0546
48491DOD     C289293  21.738  23.564  24.749  0.0310  0.0112  0.3714
48491DOD     C389294  21.549  23.347  24.408 -0.2820  0.0390 -0.1747
48492DOD     C189295  14.524  11.788  20.993 -0.3392  0.0081 -0.0793
48492DOD     C289296  14.841  11.478  21.142 -0.0176  0.1268 -0.0701
48492DOD     C389297  15.141  11.098  21.186  0.0107 -0.1473 -0.2652
48493DOD     C189298   8.880  21.463  16.924  0.1735 -0.3788  0.2165
48493DOD     C289299   8.850  20.947  16.950 -0.0501 -0.0934  0.0645
48493DOD     C389300   8.723  20.584  16.725 -0.1466 -0.0980 -0.1118
48494DOD     C189301  12.767  16.642  23.507  0.2553  0.1374 -0.1040
48494DOD     C289302  12.980  16.651  23.067 -0.1228 -0.2682  0.2259
48494DOD     C389303  13.094  16.831  22.635 -0.2203  0.1626 -0.3750
48495DOD     C189304  25.618  28.689  13.856  0.2127 -0.0243 -0.2298
48495DOD     C289305  25.603  28.953  14.265  0.0028 -0.0599 -0.0743
48495DOD     C389306  25.235  29.124  14.391  0.2689  0.2918  0.0802
48496DOD     C189307  21.086   9.845   0.040 -0.2606 -0.1431 -0.3953
48496DOD     C289308  21.222   9.480  30.158  0.3245  0.0458  0.0946
48496DOD     C389309  21.435   9.092  30.213 -0.1995  0.1062  0.1789
48497DOD     C189310  30.182   8.642  19.033 -0.2343 -0.0293 -0.0254
48497DOD     C289311   0.045   8.228  19.041 -0.3048 -0.0620  0.2597
48497DOD     C389312  30.201   7.770  18.994 -0.0919  0.0025 -0.2750
48498DOD     C189313   0.959   4.901  25.108  0.1939  0.0922  0.0594
48498DOD     C289314   0.670   5.106  25.422  0.0591  0.3754 -0.2506
48498DOD     C389315   0.407   5.316  25.710  0.0635 -0.0315 -0.4057
48499DOD     C189316  21.653   9.498   2.674 -0.0349  0.2120  0.1398
48499DOD     C289317  21.719   9.222   2.304  0.0325 -0.0732  0.2425
48499DOD     C389318  22.064   9.106   2.134 -0.2359  0.1058  0.0907
48500DOD     C189319  23.566   1.172  27.808 -0.1859 -0.1337  0.0901
48500DOD     C289320  23.295   0.802  27.678 -0.1413  0.0764 -0.1650
48500DOD     C389321  22.951   0.469  27.663 -0.0186  0.0467  0.1160
48501DOD     C189322   0.703  23.452  17.291  0.0424 -0.2519  0.0675
48501DOD     C289323   0.326  23.761  17.490 -0.2552 -0.0535  0.3532
48501DOD     C389324   0.081  23.762  17.842 -0.0663  0.2510  0.2258
48502DOD     C189325   7.432  12.236   4.698 -0.1044 -0.0717 -0.0136
48502DOD     C289326   7.314  12.650   4.812 -0.3099  0.3062 -0.2541
48502DOD     C389327   7.076  12.763   5.219  0.2689 -0.1063  0.0277
48503DOD     C189328   5.580  17.434   5.814  0.1351 -0.2589  0.1364
48503DOD     C289329   5.947  17.592   5.613  0.0589  0.2082  0.0944
48503DOD     C389330   6.145  17.916   5.323  0.3770 -0.0239  0.0503
48504DOD     C189331   4.798  22.876   0.585 -0.0877 -0.0303 -0.0111
48504DOD     C289332   5.071  23.001   0.876  0.1077 -0.1042 -0.0011
48504DOD     C389333   5.480  23.192   1.059 -0.2494 -0.1610 -0.4286
48505DOD     C189334   8.224   5.970  22.564 -0.0704 -0.2259 -0.2183
48505DOD     C289335   8.380   5.662  22.933  0.1565  0.3324 -0.0655
48505DOD     C389336   8.521   5.227  23.126  0.0959  0.1328 -0.3174
48506DOD     C189337  12.875  21.765  17.677  0.0755 -0.0975  0.0085
48506DOD     C289338  13.307  21.752  17.601  0.1515 -0.0256 -0.4262
48506DOD     C389339  13.724  21.926  17.377  0.1726  0.2000 -0.0739
48507DOD     C189340  16.596  24.347  24.643 -0.0590  0.1724 -0.0863
48507DOD     C289341  16.835  24.679  24.814  0.0278 -0.2898  0.3196
48507DOD     C389342  17.324  24.719  24.796 -0.5753  0.3998 -0.1013
48508DOD     C189343  10.889  10.329  20.762 -0.2430  0.0410  0.3709
48508DOD     C289344  11.075  10.805  20.785 -0.2063 -0.0393 -0.2762
48508DOD     C389345  11.340  11.158  20.973  0.0418 -0.0981  0.1671
48509DOD     C189346   5.046  17.911   5.731 -0.2740 -0.0526  0.0197
48509DOD     C289347   4.511  17.903   5.796 -0.0370  0.3976 -0.0277
48509DOD     C389348   4.024  17.984   5.909  0.1623 -0.0213 -0.1255
48510DOD     C189349  20.101  10.275  14.062 -0.0685  0.1088  0.0355
48510DOD     C289350  19.883  10.674  14.159  0.2117 -0.3063 -0.1135
48510DOD     C389351  19.506  10.940  14.330 -0.1097 -0.2632  0.1615
48511DOD     C189352   0.684   1.245   5.675  0.0384 -0.0861 -0.0768
48511DOD     C289353   1.017   1.615   5.642  0.0316  0.2388  0.1424
48511DOD     C389354   1.158   1.805   6.043  0.3268 -0.2671  0.1425
48512DOD     C189355  16.600  12.123  18.268  0.0035 -0.1420 -0.2648
48512DOD     C289356  16.392  11.687  18.390 -0.3283  0.3910  0.2170
48512DOD     C389357  16.288  11.269  18.571  0.2805  0.2682  0.1454
48513DOD     C189358  13.180   2.866  23.446  0.0295 -0.0577  0.1229
48513DOD     C289359  12.931   3.193  23.664  0.5197 -0.1325  0.1814
48513DOD     C389360  12.564   3.419  23.746 -0.1514 -0.2521 -0.1636
48514DOD     C189361  25.429  13.683  27.702  0.0629 -0.1964  0.3757
48514DOD     C289362  25.253  13.245  27.603 -0.1957 -0.2662  0.0543
48514DOD     C389363  25.436  12.916  27.294 -0.2249  0.3352 -0.1325
48515DOD     C189364  18.571  20.135  16.641 -0.1301 -0.4653 -0.3367
48515DOD     C289365  18.437  20.344  16.270  0.1520  0.1604 -0.0771
48515DOD     C389366  18.507  20.615  15.870  0.0280 -0.0516 -0.0550
48516DOD     C189367   3.086  30.099  22.684 -0.0837  0.0812 -0.0223
48516DOD     C289368   3.304  30.040  23.137 -0.4015 -0.0655  0.1407
48516DOD     C389369   3.684  30.018  23.428 -0.1204 -0.0025 -0.2976
48517DOD     C189370   5.864   9.590  21.292 -0.1781 -0.3070  0.1655
48517DOD     C289371   5.638   9.959  21.060  0.0965 -0.0793 -0.0908
48517DOD     C389372   5.761  10.183  20.614 -0.0230 -0.1435 -0.1241
48518DOD     C189373   2.911  12.743  22.799  0.1162 -0.0875 -0.0475
48518DOD     C289374   3.183  12.406  22.992  0.1066  0.0430 -0.0740
48518DOD     C389375   3.474  12.436  23.334 -0.0724 -0.0668 -0.2049
48519DOD     C189376  28.591  24.090   7.220  0.2267 -0.1627  0.0266
48519DOD     C289377  28.967  23.980   7.481 -0.1204  0.0326 -0.0664
48519DOD     C389378  29.191  23.600   7.642 -0.2802 -0.3675  0.2930
48520DOD     C189379   7.875   4.952  22.286  0.0189 -0.0352 -0.2439
48520DOD     C289380   7.522   5.180  22.494 -0.0951 -0.0206 -0.0920
48520DOD     C389381   7.332   5.331  22.881 -0.0809  0.1694 -0.2427
48521DOD     C189382   8.279  16.051  12.962 -0.0546  0.0601 -0.0095
48521DOD     C289383   8.307  16.402  12.639  0.0624 -0.1553  0.4119
48521DOD     C389384   8.231  16.835  12.476 -0.4029 -0.0162  0.2107
48522DOD     C189385  13.232  22.661  11.697  0.1143 -0.0278 -0.0079
48522DOD     C289386  13.406  22.869  12.087 -0.0283 -0.1115 -0.4157
48522DOD     C389387  13.681  23.155  12.256 -0.0713 -0.2458 -0.5220
48523DOD     C189388  10.165   6.037  23.409  0.0610 -0.0828  0.0021
48523DOD     C289389  10.232   5.834  22.948 -0.0888 -0.0450 -0.2467
48523DOD     C389390  10.114   5.594  22.539  0.1347 -0.2111 -0.0540
48524DOD     C189391  11.158  12.492  13.647  0.0767 -0.0696 -0.3001
48524DOD     C289392  11.595  12.602  13.589 -0.1038 -0.2816  0.2621
48524DOD     C389393  11.904  12.386  13.260 -0.0214 -0.2868 -0.2497
48525DOD     C189394  17.255   5.863   3.540  0.0982  0.0318  0.1747
48525DOD     C289395  17.374   5.846   3.983  0.0615 -0.1047  0.0901
48525DOD     C389396  17.798   5.742   4.171  0.1472 -0.3159  0.1192
48526DOD     C189397  -0.066  25.416  10.543 -0.5113 -0.1602 -0.1314
48526DOD     C289398   0.042  25.318  11.007  0.1472  0.3076 -0.3750
48526DOD     C389399   0.465  25.074  11.062  0.0592 -0.4373  0.1649
48527DOD     C189400   8.351   6.447  15.168  0.0816 -0.0560 -0.0041
48527DOD     C289401   8.549   6.780  15.333  0.2510  0.1723  0.2303
48527DOD     C389402   8.302   7.159  15.418 -0.2900 -0.0419 -0.1306
48528DOD     C189403  24.892  28.250  17.000 -0.0494  0.0470 -0.0105
48528DOD     C289404  25.117  28.352  16.513 -0.3588 -0.2654  0.0242
48528DOD     C389405  25.448  28.443  16.281 -0.0243  0.0413 -0.0144
48529DOD     C189406  22.466  19.288  26.763  0.1001  0.1709  0.3475
48529DOD     C289407  22.563  19.409  26.257 -0.0441  0.3239  0.0270
48529DOD     C389408  22.513  19.495  25.800  0.0349  0.3833 -0.1840
48530DOD     C189409  25.223  19.954  25.508  0.2946  0.0128 -0.1891
48530DOD     C289410  25.465  19.726  25.864 -0.4288  0.1512 -0.4139
48530DOD     C389411  25.702  19.616  26.283 -0.0532 -0.0414  0.0330
48531DOD     C189412   1.473  29.363   1.599 -0.1459 -0.1784 -0.4062
48531DOD     C289413   1.428  29.126   1.244 -0.2298  0.1438  0.0643
48531DOD     C389414   1.409  28.822   0.949  0.2966  0.3714  0.1623
48532DOD     C189415   4.835  17.867   9.275 -0.2741  0.1541  0.2569
48532DOD     C289416   4.528  17.754   9.618 -0.0108  0.0639 -0.2700
48532DOD     C389417   4.189  17.451   9.754 -0.3078 -0.1539 -0.3497
48533DOD     C189418  12.376  20.329  26.951 -0.2648  0.2670 -0.0447
48533DOD     C289419  12.508  20.379  26.482  0.1960  0.0358  0.0581
48533DOD     C389420  12.359  20.295  26.044  0.0716 -0.2212  0.2057
48534DOD     C189421  27.991  15.419   4.866 -0.0661  0.0029  0.1708
48534DOD     C289422  28.382  15.386   4.619  0.1900 -0.2186  0.5916
48534DOD     C389423  28.771  15.189   4.475  0.2036  0.1575  0.1276
48535DOD     C189424  18.419  26.877  18.188 -0.1371  0.2297 -0.0475
48535DOD     C289425  18.595  27.038  18.545 -0.1461 -0.0477  0.2417
48535DOD     C389426  18.959  27.287  18.328  0.0784 -0.0558 -0.0296
48536DOD     C189427  24.815  23.449   4.496  0.1633 -0.0904 -0.5796
48536DOD     C289428  25.271  23.558   4.577 -0.0814 -0.0725  0.1690
48536DOD     C389429  25.657  23.703   4.761 -0.3350 -0.1342  0.0431
48537DOD     C189430   9.035  23.591  10.471 -0.1226  0.0641 -0.0483
48537DOD     C289431   8.572  23.506  10.574 -0.2261  0.2773 -0.0467
48537DOD     C389432   8.215  23.757  10.532  0.3099 -0.1109 -0.0436
48538DOD     C189433  11.519  13.455   3.595 -0.2636  0.2530  0.1654
48538DOD     C289434  11.184  13.177   3.490  0.0089 -0.1452  0.0462
48538DOD     C389435  11.039  12.748   3.608  0.2397  0.3959  0.2672
48539DOD     C189436   7.150  22.679  28.148  0.0744  0.2936  0.3490
48539DOD     C289437   7.465  22.429  27.984 -0.1649  0.2628 -0.0166
48539DOD     C389438   7.948  22.326  28.026  0.1255  0.2704  0.0968
48540DOD     C189439   9.100  13.396   8.748  0.1939  0.0291  0.0482
48540DOD     C289440   9.005  13.517   9.230  0.2226  0.0867 -0.0897
48540DOD     C389441   9.184  13.835   9.572 -0.1795  0.1993 -0.3717
48541DOD     C189442   4.383  12.301   3.205  0.1670  0.3473 -0.4062
48541DOD     C289443   4.445  12.214   2.690  0.2075  0.0061  0.0981
48541DOD     C389444   4.661  12.381   2.332 -0.2654  0.1635 -0.0409
48542DOD     C189445   8.223   7.153   2.556  0.0992 -0.1028 -0.3529
48542DOD     C289446   8.046   7.183   2.145 -0.2852  0.0664  0.0708
48542DOD     C389447   8.269   7.011   1.755  0.0695 -0.3172 -0.0743
48543DOD     C189448  19.808  20.706  19.126 -0.0824 -0.0389  0.0724
48543DOD     C289449  20.113  21.016  19.334 -0.2207  0.2308  0.0665
48543DOD     C389450  20.497  21.209  19.532 -0.0565 -0.2234  0.2800
48544DOD     C189451  13.891  29.327   5.860  0.0949  0.3175  0.0429
48544DOD     C289452  14.120  28.938   5.714 -0.2991 -0.2028  0.0316
48544DOD     C389453  13.978  28.487   5.558 -0.0383 -0.0001  0.1887
48545DOD     C189454   0.530  26.193  16.422  0.0752  0.1578 -0.0363
48545DOD     C289455   0.709  25.824  16.216  0.1626  0.0812 -0.0610
48545DOD     C389456   0.589  25.483  15.948 -0.0753  0.0055 -0.0458
48546DOD     C189457   6.251  27.466  14.719 -0.3116  0.1288 -0.0565
48546DOD     C289458   5.909  27.704  14.692 -0.3072 -0.1917 -0.4161
48546DOD     C389459   5.424  27.725  14.759 -0.0776 -0.1020  0.1900
48547DOD     C189460   4.159   2.000  16.011  0.1867 -0.0603 -0.0918
48547DOD     C289461   4.512   2.270  15.797  0.1572  0.1577 -0.2856
48547DOD     C389462   4.973   2.300  15.979 -0.1798 -0.0856 -0.1070
48548DOD     C189463  26.015   4.962  14.651  0.1215 -0.1449  0.1550
48548DOD     C289464  25.831   5.089  15.031 -0.0385 -0.1043  0.0151
48548DOD     C389465  25.777   5.167  15.458  0.1677 -0.0443  0.5141
48549DOD     C189466   9.541  24.544   5.240  0.0453 -0.1935 -0.1102
48549DOD     C289467   9.648  24.264   5.577  0.0781 -0.0636 -0.0708
48549DOD     C389468   9.918  23.898   5.634 -0.2513 -0.1579 -0.3904
48550DOD     C189469  15.068   2.749   9.125  0.0811 -0.4105  0.1127
48550DOD     C289470  15.006   2.449   9.454 -0.1956 -0.4267  0.0123
48550DOD     C389471  14.777   2.337   9.851 -0.2232 -0.4418  0.1676
48551DOD     C189472  15.544  30.264  17.664  0.0793 -0.2803  0.0457
48551DOD     C289473  15.612   0.231  17.296  0.0035 -0.3328 -0.0896
48551DOD     C389474  15.329   0.217  16.945 -0.3188 -0.1094  0.2186
48552DOD     C189475  28.547  16.925  19.330  0.0654 -0.0168  0.3261
48552DOD     C289476  28.705  16.949  18.872 -0.1835 -0.1166  0.0802
48552DOD     C389477  28.878  16.674  18.590 -0.1724  0.0185  0.1306
48553DOD     C189478  14.027   3.718  15.643 -0.0228  0.0934 -0.0846
48553DOD     C289479  14.473   3.592  15.634  0.2146 -0.1563  0.1508
48553DOD     C389480  14.715   3.223  15.878  0.0455 -0.1177 -0.3202
48554DOD     C189481  23.185  24.490   4.705 -0.0866  0.0576 -0.0478
48554DOD     C289482  23.080  24.326   5.113 -0.0504  0.3413 -0.0351
48554DOD     C389483  23.064  23.966   5.410  0.1219 -0.1387 -0.0991
48555DOD     C189484  14.811  15.917   5.803  0.1603  0.2693  0.2253
48555DOD     C289485  14.484  15.920   6.242  0.2204  0.0898 -0.1526
48555DOD     C389486  14.065  16.092   6.413 -0.3671  0.0051 -0.1429
48556DOD     C189487  10.357  28.049  10.549 -0.2840  0.4597 -0.0659
48556DOD     C289488  10.411  27.918  10.976  0.1436  0.1900  0.1248
48556DOD     C389489  10.545  27.951  11.429  0.2910  0.1557 -0.0007
48557DOD     C189490  29.799  10.336  18.038  0.0161  0.1889 -0.0026
48557DOD     C289491  30.095  10.331  18.451  0.0351 -0.0454 -0.0866
48557DOD     C389492   0.014  10.353  18.824 -0.1179  0.0026 -0.0441
48558DOD     C189493  25.282  12.875  12.719  0.0192 -0.2433  0.1351
48558DOD     C289494  25.597  12.639  13.022  0.0259 -0.1616 -0.1439
48558DOD     C389495  25.569  12.387  13.407 -0.1258 -0.0918 -0.1535
48559DOD     C189496   1.025   5.575  16.481  0.0971  0.0767 -0.0929
48559DOD     C289497   0.793   5.921  16.778 -0.0043 -0.3191 -0.0781
48559DOD     C389498   0.387   6.022  16.930  0.1522 -0.2634  0.0714
48560DOD     C189499   5.139  21.814  19.994 -0.0564  0.0906  0.0991
48560DOD     C289500   5.293  21.972  19.624  0.2648 -0.0776 -0.2302
48560DOD     C389501   5.379  21.845  19.200  0.2805 -0.0520 -0.0279
48561DOD     C189502   8.541  14.511  19.632 -0.1117 -0.0356  0.3935
48561DOD     C289503   8.124  14.268  19.497  0.0767  0.3102 -0.3253
48561DOD     C389504   7.777  14.024  19.225 -0.5110  0.1306  0.0344
48562DOD     C189505   7.910  12.742  14.371  0.1363 -0.1421  0.0197
48562DOD     C289506   7.806  12.855  14.779  0.5275 -0.0109  0.0273
48562DOD     C389507   7.968  12.741  15.209 -0.0536  0.1320 -0.0418
48563DOD     C189508  13.261  17.709   1.503 -0.1452 -0.0725 -0.0408
48563DOD     C289509  13.495  17.757   1.918  0.2713  0.1845 -0.1415
48563DOD     C389510  13.950  17.834   1.965  0.1558 -0.0423  0.1258
48564DOD     C189511  14.728  20.600   8.435 -0.0903  0.0260  0.0253
48564DOD     C289512  14.824  20.664   8.007 -0.0998 -0.0946  0.2216
48564DOD     C389513  14.793  21.093   7.821 -0.0430  0.0959 -0.0418
48565DOD     C189514  21.267   4.959  19.446  0.2099 -0.0402 -0.0603
48565DOD     C289515  21.017   5.258  19.187 -0.1599 -0.1364 -0.4182
48565DOD     C389516  21.113   5.512  18.781 -0.0948 -0.2637  0.2771
48566DOD     C189517  18.773   9.214  17.658 -0.1339 -0.1608 -0.0600
48566DOD     C289518  19.064   9.467  17.946  0.4730 -0.1066 -0.2390
48566DOD     C389519  19.309   9.396  18.354  0.1961 -0.2270  0.0593
48567DOD     C189520  22.731  16.189   9.084  0.0578  0.2654 -0.3961
48567DOD     C289521  22.842  15.765   9.199  0.2638  0.1444  0.1032
48567DOD     C389522  22.967  15.353   9.394  0.0314 -0.2926 -0.2246
48568DOD     C189523  10.552  29.810  29.946 -0.1234 -0.1094 -0.1670
48568DOD     C289524  10.469  29.432  30.201 -0.2845 -0.1080 -0.2714
48568DOD     C389525  10.158  29.135   0.066 -0.1727 -0.1274  0.1263
48569DOD     C189526  20.494  27.915  10.010  0.0163  0.3166 -0.2231
48569DOD     C289527  20.279  27.577   9.723 -0.1692 -0.1686  0.0822
48569DOD     C389528  19.944  27.248   9.560  0.1214 -0.1703 -0.1705
48570DOD     C189529  21.584  28.468  19.674  0.0064 -0.4508  0.0344
48570DOD     C289530  21.388  28.822  19.397  0.2035 -0.2256  0.2933
48570DOD     C389531  21.026  28.915  19.091 -0.1570  0.0805  0.1618
48571DOD     C189532  17.866   3.689  12.985 -0.1266  0.0637 -0.1428
48571DOD     C289533  18.037   3.584  12.577  0.0918 -0.0094 -0.2723
48571DOD     C389534  18.240   3.156  12.451  0.0110 -0.1876 -0.0078
48572DOD     C189535  27.931  29.956   4.312  0.0900 -0.0520  0.1303
48572DOD     C289536  28.135  29.838   3.901 -0.0651  0.1062  0.2009
48572DOD     C389537  28.545  29.743   3.649 -0.0685  0.1411 -0.1168
48573DOD     C189538   5.524  19.518  26.874  0.1099 -0.0142 -0.0258
48573DOD     C289539   5.412  19.048  26.972  0.0001  0.0069  0.1226
48573DOD     C389540   5.124  18.703  26.737  0.1978  0.1671  0.2938
48574DOD     C189541  16.285   3.551  20.638 -0.0547 -0.0629  0.0988
48574DOD     C289542  16.025   3.874  20.933  0.2169 -0.1608  0.0972
48574DOD     C389543  15.695   3.990  21.237  0.2517 -0.0617 -0.0796
48575DOD     C189544  26.384   3.762  11.450 -0.0866 -0.1831  0.2665
48575DOD     C289545  26.835   3.587  11.488 -0.1582 -0.3213 -0.1498
48575DOD     C389546  27.271   3.616  11.719  0.1896  0.1576  0.1558
48576DOD     C189547  25.444   4.791  14.641 -0.1388 -0.0478  0.0266
48576DOD     C289548  25.262   4.855  15.099 -0.1517  0.2262  0.2559
48576DOD     C389549  25.315   4.910  15.574 -0.1344 -0.2248  0.2300
48577DOD     C189550  26.162  11.634  29.861  0.1232 -0.3660  0.4848
48577DOD     C289551  25.816  11.846  30.131  0.2390 -0.1327 -0.3964
48577DOD     C389552  25.574  12.069   0.142 -0.0502  0.1283 -0.1830
48578DOD     C189553   6.966  22.894   0.818  0.0287  0.1176 -0.2393
48578DOD     C289554   6.965  22.444   0.991 -0.1408  0.0371 -0.1310
48578DOD     C389555   7.049  21.926   1.138  0.0679  0.0295 -0.2242
48579DOD     C189556  17.492  14.127  25.156  0.0092 -0.1383 -0.2748
48579DOD     C289557  17.799  13.817  24.958 -0.0858 -0.1292 -0.0588
48579DOD     C389558  18.268  13.776  24.832  0.3338  0.0171  0.0675
48580DOD     C189559   3.703  28.511  11.706  0.0023 -0.0745 -0.0209
48580DOD     C289560   3.323  28.402  11.971  0.1022  0.0307 -0.0036
48580DOD     C389561   3.071  28.355  12.341 -0.2518  0.0131  0.0280
48581DOD     C189562  11.278  19.771  21.045 -0.0529  0.0291  0.0519
48581DOD     C289563  10.918  19.639  21.310 -0.0680  0.1869  0.2748
48581DOD     C389564  10.614  19.308  21.401 -0.1697 -0.3034 -0.1056
48582DOD     C189565  21.618  29.540  26.498 -0.0676  0.0092 -0.0337
48582DOD     C289566  21.311  29.812  26.292 -0.2547  0.3149  0.1989
48582DOD     C389567  21.102  29.921  25.912  0.0220 -0.0930  0.3644
48583DOD     C189568  23.725   6.892   8.608  0.0534  0.0046 -0.2410
48583DOD     C289569  23.607   6.481   8.532  0.0577  0.0026  0.0742
48583DOD     C389570  23.556   5.978   8.487  0.1585 -0.1878  0.0126
48584DOD     C189571  18.172  27.774  11.433  0.0157  0.0585  0.0973
48584DOD     C289572  18.213  28.002  11.855 -0.1811  0.3655 -0.1247
48584DOD     C389573  17.910  28.190  12.153  0.0733 -0.0613  0.0156
48585DOD     C189574  22.696   9.748  21.809 -0.1971  0.0476  0.3319
48585DOD     C289575  22.742  10.133  21.583 -0.3077  0.1696  0.0035
48585DOD     C389576  23.035  10.426  21.734 -0.2035  0.0330  0.3161
48586DOD     C189577   3.193   8.739   9.630  0.4519  0.0356  0.3439
48586DOD     C289578   3.611   8.693   9.824 -0.0388  0.0557  0.1348
48586DOD     C389579   3.954   8.437   9.964  0.1505  0.1028  0.0558
48587DOD     C189580   2.544   6.189  23.735  0.0601 -0.1986  0.0454
48587DOD     C289581   2.872   6.226  23.375  0.0700  0.1248  0.1188
48587DOD     C389582   3.097   6.184  23.014  0.0095 -0.0136 -0.0180
48588DOD     C189583  27.013  14.873  27.827 -0.0295 -0.1667  0.1787
48588DOD     C289584  26.808  15.243  27.732  0.1498  0.0415  0.1608
48588DOD     C389585  26.582  15.650  27.817  0.1824  0.0792  0.0835
48589DOD     C189586   8.867  15.164  10.252  0.0988 -0.0877  0.1023
48589DOD     C289587   8.829  15.652  10.131 -0.0612 -0.0561 -0.0720
48589DOD     C389588   8.428  15.705  10.019  0.2160 -0.0706  0.1628
48590DOD     C189589   7.232   3.374   4.924 -0.0790 -0.2501  0.1866
48590DOD     C289590   7.664   3.548   4.944  0.1890  0.0617 -0.3007
48590DOD     C389591   8.135   3.601   5.156 -0.1248 -0.0531  0.1565
48591DOD     C189592   1.601  14.751  20.449  0.2596 -0.1004  0.0754
48591DOD     C289593   1.733  14.328  20.639  0.0201 -0.3306 -0.3506
48591DOD     C389594   2.074  14.077  20.833 -0.0258  0.0099 -0.0912
48592DOD     C189595  21.091  27.917  25.095  0.1341  0.1228  0.1379
48592DOD     C289596  20.731  27.654  24.865 -0.1440  0.1098  0.2837
48592DOD     C389597  20.460  27.299  24.893  0.4556 -0.1598 -0.1099
48593DOD     C189598   6.252  26.181  10.646 -0.4132 -0.1481  0.0076
48593DOD     C289599   5.741  26.084  10.767 -0.3625 -0.0149 -0.0858
48593DOD     C389600   5.384  25.796  10.938 -0.1758 -0.2284  0.2528
48594DOD     C189601  17.015  26.565  23.707 -0.0957  0.0541 -0.0029
48594DOD     C289602  16.927  26.201  24.059 -0.1847 -0.0293  0.0748
48594DOD     C389603  16.619  25.855  24.130  0.0684 -0.2456 -0.4561
48595DOD     C189604   5.296   5.588  15.967  0.1279  0.4361 -0.0582
48595DOD     C289605   5.738   5.391  16.021 -0.4791 -0.1402 -0.0270
48595DOD     C389606   6.147   5.590  16.242  0.0419  0.0898 -0.0291
48596DOD     C189607  19.526   7.918   1.178  0.0160 -0.2658 -0.1541
48596DOD     C289608  19.096   8.043   1.399  0.0480  0.2118 -0.1156
48596DOD     C389609  18.699   8.165   1.557  0.1532  0.0720 -0.2331
48597DOD     C189610   1.838  12.511  22.391  0.0731 -0.3380  0.1485
48597DOD     C289611   2.110  12.920  22.274  0.1036 -0.0750  0.0083
48597DOD     C389612   2.300  12.951  21.865  0.0053 -0.2129  0.2236
48598DOD     C189613   0.407  10.450   4.393 -0.1138 -0.1955  0.1089
48598DOD     C289614   0.851  10.456   4.454 -0.3143  0.0716 -0.0348
48598DOD     C389615   1.248  10.288   4.313 -0.3294 -0.0119 -0.0879
48599DOD     C189616  23.055  17.710  12.379 -0.4707 -0.1040  0.0883
48599DOD     C289617  23.036  17.266  12.175  0.0580  0.1471  0.1118
48599DOD     C389618  23.232  17.130  11.796 -0.2530 -0.0672  0.0444
48600DOD     C189619  21.023  19.080  16.793 -0.0943 -0.1411 -0.0264
48600DOD     C289620  20.863  18.701  17.031  0.2746 -0.1683 -0.0533
48600DOD     C389621  20.705  18.288  17.230  0.1941 -0.2122 -0.1256
48601DOD     C189622  12.590  14.076   3.062  0.0198 -0.1668  0.2316
48601DOD     C289623  12.553  13.802   2.620  0.2702  0.0886  0.0339
48601DOD     C389624  12.827  13.749   2.256 -0.1990 -0.2663 -0.0559
48602DOD     C189625  11.459  25.090  25.668 -0.1204  0.0172 -0.0628
48602DOD     C289626  11.654  24.830  25.295  0.0010  0.4820 -0.0360
48602DOD     C389627  11.654  24.813  24.811 -0.0105  0.0707 -0.0714
48603DOD     C189628  28.835  26.080  16.591 -0.0973 -0.1426  0.3344
48603DOD     C289629  28.763  26.586  16.675  0.0608  0.1519 -0.0054
48603DOD     C389630  29.011  26.986  16.688 -0.1277  0.0757  0.0228
48604DOD     C189631  24.875  18.317  12.984  0.0370  0.1427 -0.0007
48604DOD     C289632  24.663  18.290  12.577 -0.3287  0.1724  0.0296
48604DOD     C389633  24.281  18.154  12.382 -0.1127  0.4000  0.1207
48605DOD     C189634  16.032  16.663  20.217  0.2035  0.0803 -0.2556
48605DOD     C289635  15.995  16.340  19.880 -0.3940  0.0486  0.1101
48605DOD     C389636  16.094  15.892  19.877 -0.3302 -0.2351 -0.3368
48606DOD     C189637  14.969  13.691  23.119  0.3020 -0.0620 -0.0226
48606DOD     C289638  15.013  13.875  23.507 -0.0656 -0.0711 -0.0258
48606DOD     C389639  15.091  14.159  23.927 -0.0802 -0.3223 -0.1693
48607DOD     C189640  28.339  16.677  15.353 -0.0119  0.0128  0.0625
48607DOD     C289641  27.956  16.546  15.715  0.0774  0.1912  0.1109
48607DOD     C389642  27.764  16.666  16.151  0.0971  0.4042  0.1716
48608DOD     C189643   0.623   8.637  10.608 -0.1108  0.1371  0.4721
48608DOD     C289644   0.728   8.909  10.243 -0.1500 -0.1592  0.2872
48608DOD     C389645   0.557   8.881   9.826  0.3455 -0.4034 -0.2074
48609DOD     C189646  28.838  30.092  20.872 -0.1575  0.0798  0.2425
48609DOD     C289647  29.121   0.184  20.890 -0.0193  0.1394 -0.1572
48609DOD     C389648  29.522   0.434  20.819 -0.1985  0.1552  0.0822
48610DOD     C189649   3.401  28.580   2.921  0.0706  0.0298  0.1244
48610DOD     C289650   3.784  28.910   2.893  0.0393 -0.2682 -0.1922
48610DOD     C389651   4.226  28.912   2.909 -0.0390  0.2740 -0.3499
48611DOD     C189652   7.395   2.832  10.914  0.1125  0.2329  0.0751
48611DOD     C289653   7.304   3.136  11.209 -0.1961  0.0949  0.1929
48611DOD     C389654   7.003   3.487  11.239  0.0745 -0.1667 -0.3444
48612DOD     C189655  26.194  20.023   3.707 -0.0889  0.2354 -0.1305
48612DOD     C289656  26.298  20.271   3.248  0.0230  0.1013  0.0347
48612DOD     C389657  26.482  20.533   2.913 -0.0911  0.5569  0.0604
48613DOD     C189658   2.437  12.777  17.324  0.3957 -0.3842  0.2419
48613DOD     C289659   2.287  13.179  17.338  0.0342 -0.1189 -0.2197
48613DOD     C389660   2.080  13.140  17.760  0.0840 -0.2138  0.1068
48614DOD     C189661  12.754   7.169  15.289  0.0552  0.0335  0.0071
48614DOD     C289662  12.608   7.004  14.895  0.0621  0.0155 -0.1113
48614DOD     C389663  12.332   7.051  14.542  0.0329  0.1800 -0.2179
48615DOD     C189664   3.480  26.013  16.867 -0.0624  0.0405 -0.1218
48615DOD     C289665   3.709  26.419  16.777 -0.0991  0.1284 -0.0104
48615DOD     C389666   3.826  26.571  16.339 -0.0696 -0.0625 -0.1658
48616DOD     C189667  13.797  21.507  13.724 -0.0038  0.0749  0.0511
48616DOD     C289668  13.829  21.152  14.018  0.1459 -0.1712  0.1395
48616DOD     C389669  14.053  21.128  14.434  0.0466  0.2337  0.0320
48617DOD     C189670   9.277  11.530   8.778  0.3647  0.0927 -0.0189
48617DOD     C289671   9.545  11.902   8.934  0.0044  0.1162  0.0455
48617DOD     C389672   9.984  11.999   9.099 -0.1685 -0.2726  0.0419
48618DOD     C189673  12.061  21.493   8.644 -0.1076  0.2242 -0.1082
48618DOD     C289674  12.026  21.193   9.016 -0.1867 -0.1216 -0.1155
48618DOD     C389675  12.106  21.133   9.488  0.2759  0.2769  0.1065
48619DOD     C189676   8.562   9.164   7.309 -0.3464 -0.0930  0.0004
48619DOD     C289677   8.082   9.009   7.201 -0.0088  0.1317 -0.2045
48619DOD     C389678   7.591   8.915   7.091  0.3743 -0.4918  0.3052
48620DOD     C189679  18.834  11.961  12.114 -0.3405  0.1404 -0.0945
48620DOD     C289680  18.505  12.265  11.984  0.0239  0.0627 -0.3383
48620DOD     C389681  18.229  12.453  11.646 -0.0888  0.1433 -0.4054
48621DOD     C189682  22.460  17.997  26.347 -0.1781 -0.0431 -0.1522
48621DOD     C289683  22.870  17.891  26.568  0.0729 -0.0217  0.0407
48621DOD     C389684  23.028  17.966  26.996  0.0825  0.0898  0.1047
48622DOD     C189685   1.473   4.142  19.512 -0.0011  0.2056  0.0397
48622DOD     C289686   1.520   3.908  19.126  0.5448  0.1160  0.1422
48622DOD     C389687   1.472   4.050  18.648 -0.0335  0.1734 -0.1477
48623DOD     C189688  17.554  26.889   2.267  0.1923 -0.2932 -0.0074
48623DOD     C289689  17.655  26.830   1.813  0.2431 -0.0617 -0.2151
48623DOD     C389690  18.109  26.845   1.705  0.2290  0.3038 -0.0727
48624DOD     C189691   8.303  13.182   0.616 -0.3882  0.2666  0.2999
48624DOD     C289692   8.339  13.358   0.170  0.0783  0.1722 -0.1545
48624DOD     C389693   8.197  13.481  30.062 -0.3164 -0.0381  0.0414
48625DOD     C189694  28.962   0.170  12.884 -0.2438  0.0731 -0.0325
48625DOD     C289695  29.270   0.277  13.218 -0.1813  0.2329  0.1989
48625DOD     C389696  29.640   0.548  13.316 -0.3799 -0.1527 -0.1028
48626DOD     C189697  22.863   7.052  16.185  0.0233 -0.0805  0.0739
48626DOD     C289698  22.547   6.756  16.426  0.0521  0.0744 -0.3594
48626DOD     C389699  22.283   6.607  16.825  0.0431  0.1845 -0.2307
48627DOD     C189700   8.593  19.940  11.378 -0.2103 -0.2748 -0.1125
48627DOD     C289701   8.978  19.638  11.381 -0.2800 -0.0621  0.2376
48627DOD     C389702   9.063  19.205  11.225  0.0111  0.0355  0.0145
48628DOD     C189703  16.604  20.987   3.332  0.0662 -0.1153  0.0631
48628DOD     C289704  16.232  21.258   3.307  0.1301  0.3506 -0.0346
48628DOD     C389705  15.765  21.358   3.386  0.0637 -0.2037  0.1292
48629DOD     C189706   0.623   9.994   6.729 -0.1739  0.0589 -0.0119
48629DOD     C289707   0.442   9.718   6.399  0.0458 -0.1794 -0.2705
48629DOD     C389708   0.363   9.556   5.980 -0.2027 -0.0175  0.0377
48630DOD     C189709   2.574  17.915  11.852 -0.2387 -0.0420  0.1470
48630DOD     C289710   2.593  17.584  11.566  0.1949  0.2824 -0.0512
48630DOD     C389711   2.479  17.215  11.329 -0.2252  0.3534 -0.2586
48631DOD     C189712   7.603  24.725  11.560 -0.2752  0.0132  0.0426
48631DOD     C289713   7.361  25.069  11.785  0.1553 -0.1280  0.2642
48631DOD     C389714   7.267  25.491  11.936  0.1330  0.0225  0.1213
48632DOD     C189715  10.343  25.739  16.511  0.1644  0.1603  0.1187
48632DOD     C289716  10.357  25.330  16.740 -0.0490  0.0855 -0.0154
48632DOD     C389717  10.031  24.977  16.909  0.1008  0.0272 -0.0247
48633DOD     C189718   2.512   8.751  13.824 -0.2293 -0.0285 -0.2612
48633DOD     C289719   2.473   8.326  13.763 -0.1620 -0.1786  0.0569
48633DOD     C389720   2.340   7.942  14.039 -0.3138  0.0151 -0.2816
48634DOD     C189721  22.112  17.156  26.074 -0.0535 -0.1258 -0.1038
48634DOD     C289722  21.906  17.408  26.452  0.2497 -0.0596  0.2634
48634DOD     C389723  21.685  17.493  26.813 -0.0588  0.0761 -0.1648
48635DOD     C189724   7.931  29.411  18.752 -0.0942 -0.1234 -0.0658
48635DOD     C289725   7.840  29.184  18.346  0.2528  0.2743  0.4431
48635DOD     C389726   7.487  29.054  18.001 -0.0382  0.2458  0.0900
48636DOD     C189727  21.182  15.552  14.415 -0.0284  0.0957  0.0142
48636DOD     C289728  21.485  15.732  14.083  0.3306  0.0929 -0.1151
48636DOD     C389729  21.621  15.447  13.738 -0.0870  0.1551  0.2287
48637DOD     C189730  11.172   7.750   8.107  0.1902  0.2662  0.1767
48637DOD     C289731  10.712   7.595   8.200 -0.0319  0.0036  0.3801
48637DOD     C389732  10.298   7.803   8.387 -0.4687  0.0705  0.0393
48638DOD     C189733  20.701   0.729  29.624  0.0265  0.1705  0.0657
48638DOD     C289734  21.121   0.798  29.451  0.2123 -0.2845 -0.0068
48638DOD     C389735  21.459   0.978  29.686  0.1504  0.4294  0.0697
48639DOD     C189736  10.749   4.292  14.925 -0.3804  0.0204 -0.0125
48639DOD     C289737  11.156   4.138  15.246 -0.2599  0.1422 -0.0038
48639DOD     C389738  11.378   4.071  15.642  0.1254  0.0224 -0.1737
48640DOD     C189739  12.299  26.687   5.094  0.0977  0.2550  0.1962
48640DOD     C289740  12.601  26.679   5.447  0.3858  0.0590 -0.0183
48640DOD     C389741  12.995  26.623   5.600 -0.2285  0.0389 -0.1998
48641DOD     C189742   6.067  13.056  23.804  0.0243 -0.0735 -0.2364
48641DOD     C289743   6.267  13.324  24.129  0.0484  0.0716  0.1589
48641DOD     C389744   6.495  13.066  24.446  0.0119  0.1615  0.3765
48642DOD     C189745  21.581  18.704  28.922  0.3345  0.1450  0.0144
48642DOD     C289746  21.710  18.300  29.164 -0.0045  0.2450 -0.1802
48642DOD     C389747  21.912  17.909  29.190  0.1196  0.1331 -0.0369
48643DOD     C189748  14.204   8.700  20.082  0.1602  0.0173  0.1660
48643DOD     C289749  14.620   8.713  19.913  0.1326  0.1474 -0.0331
48643DOD     C389750  15.003   8.554  20.098 -0.0318  0.1066 -0.2821
48644DOD     C189751  16.144  22.050  22.628  0.2657 -0.1177 -0.3563
48644DOD     C289752  16.171  22.521  22.709 -0.2234  0.2073 -0.1195
48644DOD     C389753  16.443  22.849  22.866  0.1115 -0.2618 -0.0388
48645DOD     C189754  10.733   6.655  22.468  0.0789  0.1866 -0.1633
48645DOD     C289755  10.748   7.074  22.682  0.1433 -0.3353  0.3614
48645DOD     C389756  10.884   7.427  22.991  0.0025 -0.1768  0.1717
48646DOD     C189757  22.956  22.381  28.669  0.2109 -0.2064  0.0883
48646DOD     C289758  22.691  22.776  28.546  0.3113  0.4655 -0.1420
48646DOD     C389759  23.010  23.039  28.406  0.2340 -0.1989 -0.0347
48647DOD     C189760  18.199   8.139   5.117 -0.4934  0.0754  0.1539
48647DOD     C289761  18.575   8.236   4.903 -0.2699  0.0367 -0.0204
48647DOD     C389762  18.855   8.229   4.513  0.0283  0.1017  0.0855
48648DOD     C189763  12.769  23.150  27.295 -0.2066 -0.0434 -0.4157
48648DOD     C289764  13.128  22.822  27.212  0.0156  0.1251  0.0821
48648DOD     C389765  13.566  22.807  27.012 -0.0047  0.2779  0.1136
48649DOD     C189766   0.105  25.848  10.901  0.0488 -0.2822  0.1533
48649DOD     C289767  30.041  26.034  10.977 -0.4183  0.0297 -0.3206
48649DOD     C389768  29.922  26.251  11.422  0.1450 -0.0656  0.1083
48650DOD     C189769   1.009   7.527   3.017 -0.0750 -0.0370 -0.1149
48650DOD     C289770   0.859   7.300   3.429  0.2304 -0.2712  0.1221
48650DOD     C389771   0.972   6.889   3.655  0.0041 -0.4109 -0.0277
48651DOD     C189772   8.622   3.187  13.704 -0.0276  0.1328 -0.1114
48651DOD     C289773   8.399   3.588  13.679 -0.0300  0.2518  0.0803
48651DOD     C389774   8.368   4.043  13.738 -0.0608 -0.1905 -0.0842
48652DOD     C189775   0.421  10.932  27.845  0.2287  0.0564 -0.2699
48652DOD     C289776  30.331  10.657  27.787  0.0672  0.1172  0.3466
48652DOD     C389777  30.073  10.259  27.584  0.2047  0.0314 -0.2528
48653DOD     C189778   3.468   7.277  14.630 -0.0049 -0.0180 -0.2152
48653DOD     C289779   3.543   6.965  14.942 -0.0162 -0.0710  0.2611
48653DOD     C389780   3.549   6.497  14.925  0.1925  0.1121 -0.0553
48654DOD     C189781   7.696  15.936  19.934 -0.0582  0.0314  0.3533
48654DOD     C289782   8.085  16.226  19.789 -0.0726  0.0651 -0.2501
48654DOD     C389783   8.057  16.664  19.697  0.1367  0.0928 -0.1781
48655DOD     C189784  25.872  29.407   6.046 -0.3341  0.1432  0.1830
48655DOD     C289785  26.309  29.259   5.891 -0.0607 -0.1748 -0.2691
48655DOD     C389786  26.675  29.294   5.600  0.1488 -0.0198  0.1321
48656DOD     C189787  12.902  25.863  10.869 -0.1404 -0.1884  0.1042
48656DOD     C289788  12.756  25.737  11.222 -0.0406  0.1338  0.0075
48656DOD     C389789  12.643  25.292  11.291 -0.1542 -0.1269  0.4623
48657DOD     C189790   2.946  27.277  16.422 -0.1178  0.3997  0.1521
48657DOD     C289791   2.696  27.520  16.733 -0.0004 -0.2218 -0.2019
48657DOD     C389792   2.305  27.693  16.771 -0.1287  0.1774  0.0942
48658DOD     C189793  21.836   0.757   2.406 -0.1784 -0.2204 -0.0864
48658DOD     C289794  21.579   1.061   2.616  0.0960 -0.3364  0.1290
48658DOD     C389795  21.326   1.399   2.750  0.1266  0.0309 -0.2589
48659DOD     C189796  25.570  11.087  11.044  0.0974 -0.0574  0.1184
48659DOD     C289797  25.650  11.234  11.488 -0.1339 -0.0553  0.0458
48659DOD     C389798  25.423  11.332  11.800 -0.0749 -0.0889  0.1569
48660DOD     C189799  27.508   8.669   7.600 -0.0941  0.0026 -0.1774
48660DOD     C289800  27.485   8.457   7.182  0.1139  0.0732 -0.3909
48660DOD     C389801  27.485   8.431   6.741 -0.0396 -0.2900 -0.1683
48661DOD     C189802   0.730  23.774  23.596 -0.0727 -0.1065 -0.4119
48661DOD     C289803   1.109  23.710  23.881 -0.0699  0.0423 -0.0699
48661DOD     C389804   1.548  23.890  23.930 -0.3350 -0.2821  0.0651
48662DOD     C189805   4.660  26.073  30.020 -0.2049 -0.2431 -0.0361
48662DOD     C289806   4.362  25.677  30.049  0.0024 -0.0940 -0.0270
48662DOD     C389807   4.393  25.319  29.791  0.1265  0.0440  0.1609
48663DOD     C189808  22.501  15.895   7.242 -0.2132 -0.2942  0.1487
48663DOD     C289809  22.251  16.270   7.374 -0.1183 -0.0169  0.2035
48663DOD     C389810  22.057  16.659   7.426 -0.3945  0.1864  0.1356
48664DOD     C189811   7.810   7.882  19.949 -0.0925  0.0751 -0.2634
48664DOD     C289812   8.047   8.165  20.262 -0.2005 -0.3830  0.0872
48664DOD     C389813   8.386   8.486  20.430  0.1189 -0.0746 -0.2038
48665DOD     C189814  23.906  17.164  10.549  0.3306 -0.0264 -0.2082
48665DOD     C289815  24.060  17.699  10.491 -0.0282  0.1041  0.0264
48665DOD     C389816  23.907  18.122  10.422  0.0701  0.5203 -0.1085
48666DOD     C189817  21.493  16.855  28.038  0.2921 -0.0101  0.4298
48666DOD     C289818  21.440  16.577  28.435  0.0564 -0.0368  0.1310
48666DOD     C389819  21.683  16.487  28.801  0.3326  0.3259  0.1739
48667DOD     C189820  25.989  25.407  25.340  0.1889 -0.1303 -0.0577
48667DOD     C289821  26.058  25.027  25.053  0.2135  0.0176 -0.0497
48667DOD     C389822  25.763  24.839  24.789 -0.2211 -0.2178  0.0976
48668DOD     C189823   4.040  28.764  17.133 -0.2274 -0.2678  0.0710
48668DOD     C289824   4.131  28.263  17.127  0.3493  0.2278 -0.2663
48668DOD     C389825   4.138  27.851  17.001 -0.0541 -0.0462 -0.0495
48669DOD     C189826   5.742  28.660  28.073  0.0456 -0.1441  0.1220
48669DOD     C289827   5.438  28.470  27.778 -0.2184  0.1046 -0.1808
48669DOD     C389828   5.383  28.177  27.435 -0.0089 -0.1603 -0.1562
48670DOD     C189829   6.218  15.834  19.124 -0.0700  0.0013  0.1841
48670DOD     C289830   6.428  15.712  18.705 -0.0680 -0.1385  0.0535
48670DOD     C389831   6.501  15.692  18.255 -0.0890 -0.2769 -0.2419
48671DOD     C189832   6.585  27.836  17.074  0.0141 -0.0288 -0.0102
48671DOD     C289833   6.493  28.190  16.720 -0.1363 -0.1346  0.1206
48671DOD     C389834   6.366  28.205  16.243  0.0596 -0.0674 -0.3076
48672DOD     C189835  22.064   4.458  28.082 -0.0174  0.3178 -0.1122
48672DOD     C289836  21.956   4.810  28.446 -0.2344  0.1194 -0.2785
48672DOD     C389837  21.864   5.282  28.578 -0.2141  0.1334  0.2269
48673DOD     C189838  21.846  18.575   4.387 -0.1524  0.1175  0.1141
48673DOD     C289839  21.636  18.256   4.102  0.0029 -0.1247 -0.0332
48673DOD     C389840  21.401  17.946   3.900 -0.2597  0.2136  0.1149
48674DOD     C189841  18.861  18.567   2.971 -0.1438  0.0539  0.1023
48674DOD     C289842  19.238  18.377   3.251  0.1086  0.2137  0.0340
48674DOD     C389843  19.448  18.251   3.613  0.1304  0.1184  0.2537
48675DOD     C189844  29.711   4.883  19.146  0.2302  0.0982 -0.1564
48675DOD     C289845  29.389   4.862  19.506 -0.4655  0.0832 -0.0025
48675DOD     C389846  29.055   4.570  19.682 -0.2683  0.1311 -0.1552
48676DOD     C189847  12.598  19.181  13.012 -0.0772 -0.1465  0.1470
48676DOD     C289848  12.784  19.425  12.666  0.1874 -0.0215  0.1365
48676DOD     C389849  12.832  19.532  12.214 -0.0580  0.0650  0.2039
48677DOD     C189850  26.978  21.538  14.371 -0.1627 -0.1483  0.1218
48677DOD     C289851  26.899  21.316  14.089  0.1021 -0.0721  0.1538
48677DOD     C389852  27.079  21.217  13.675 -0.0682  0.0747 -0.3017
48678DOD     C189853  23.516  13.981  28.002 -0.1338 -0.1701  0.2742
48678DOD     C289854  23.664  14.227  28.332  0.4138 -0.0860  0.1786
48678DOD     C389855  23.650  14.342  28.811 -0.3027  0.3756 -0.1114
48679DOD     C189856  28.111   4.116  15.924  0.0558  0.3350  0.0800
48679DOD     C289857  28.128   3.935  16.310 -0.1141 -0.0739  0.0495
48679DOD     C389858  27.899   3.591  16.560  0.5370 -0.0032 -0.0190
48680DOD     C189859  23.418  19.921  20.036  0.0152 -0.0893 -0.3077
48680DOD     C289860  23.585  19.463  19.953  0.3112 -0.0348 -0.1687
48680DOD     C389861  23.605  18.986  19.797 -0.1765  0.0024 -0.0516
48681DOD     C189862  23.902  25.980  14.879  0.0118  0.0099  0.2372
48681DOD     C289863  24.062  25.827  15.326  0.2517  0.1146 -0.0173
48681DOD     C389864  24.079  25.557  15.685  0.3952  0.2193 -0.2605
48682DOD     C189865  15.034  20.130  28.997 -0.0357  0.1834 -0.1639
48682DOD     C289866  14.785  20.003  29.350 -0.0552 -0.1629 -0.1545
48682DOD     C389867  14.487  19.768  29.680 -0.0466  0.3783 -0.1248
48683DOD     C189868   4.638  21.713   3.611 -0.0734  0.2632  0.0703
48683DOD     C289869   4.791  22.177   3.700  0.0825  0.0979  0.0509
48683DOD     C389870   5.073  22.588   3.695  0.2429  0.0186 -0.2392
48684DOD     C189871   9.923  22.431   8.657  0.0575 -0.0067 -0.0152
48684DOD     C289872  10.321  22.227   8.591 -0.3884 -0.1089 -0.1151
48684DOD     C389873  10.520  21.918   8.774 -0.0800 -0.0427  0.2463
48685DOD     C189874   1.956   3.219   9.454  0.0012  0.0557  0.1019
48685DOD     C289875   2.079   2.771   9.535  0.0297  0.0099  0.1445
48685DOD     C389876   2.365   2.533   9.752  0.0659  0.1000  0.2471
48686DOD     C189877  10.828   0.376   5.076 -0.3830  0.1632 -0.3142
48686DOD     C289878  10.742   0.257   4.661  0.1167 -0.1559 -0.1280
48686DOD     C389879  10.621   0.591   4.363  0.4180  0.2962  0.0509
48687DOD     C189880  15.410   3.383   6.742  0.0864 -0.4092  0.0452
48687DOD     C289881  15.705   3.640   6.952  0.2022  0.3647 -0.1839
48687DOD     C389882  16.068   3.998   7.048  0.2122  0.2443 -0.1227
48688DOD     C189883   5.197  15.329   2.292 -0.4671  0.0963  0.0214
48688DOD     C289884   4.938  15.179   1.965  0.2365  0.2106 -0.0927
48688DOD     C389885   4.887  14.882   1.692 -0.2148 -0.2761  0.2701
48689DOD     C189886  16.275  15.408  10.172  0.0917  0.0105  0.1715
48689DOD     C289887  16.581  15.630  10.405 -0.1276  0.1330 -0.2172
48689DOD     C389888  17.016  15.650  10.227 -0.0913  0.1065  0.2110
48690DOD     C189889   7.768  18.531  19.955  0.0395  0.0080 -0.0151
48690DOD     C289890   7.797  18.720  20.423 -0.1584 -0.3559 -0.0315
48690DOD     C389891   7.634  18.894  20.873 -0.2417  0.2480  0.2170
48691DOD     C189892   0.659   3.711   0.325  0.0983 -0.0796  0.0943
48691DOD     C289893   0.643   4.088   0.102  0.0145  0.1513  0.3688
48691DOD     C389894   0.386   4.422  30.322  0.1715 -0.1306  0.0527
48692DOD     C189895   5.240  17.544  11.645 -0.1448  0.0065  0.1006
48692DOD     C289896   5.172  17.278  12.011 -0.1549 -0.0589  0.0608
48692DOD     C389897   4.884  16.923  12.141  0.1928 -0.2714 -0.2365
48693DOD     C189898  19.660  22.968   4.410 -0.3233 -0.2759 -0.2333
48693DOD     C289899  19.562  23.394   4.201  0.0279 -0.0348 -0.1753
48693DOD     C389900  19.129  23.557   4.329  0.1059  0.0779  0.0673
48694DOD     C189901   6.427  16.831  16.379 -0.0594 -0.0048 -0.2334
48694DOD     C289902   6.067  17.141  16.390 -0.1304  0.2844 -0.1047
48694DOD     C389903   5.960  17.396  16.007 -0.3078  0.0230  0.0145
48695DOD     C189904  26.667  16.623  24.323  0.0905  0.3269 -0.0615
48695DOD     C289905  26.365  16.699  23.931  0.0393  0.0990  0.2487
48695DOD     C389906  26.036  16.720  23.566  0.3679  0.3213  0.0075
48696DOD     C189907  14.978  22.236  29.675 -0.0968 -0.3876  0.0632
48696DOD     C289908  15.269  21.957  29.955 -0.0759 -0.0217  0.4273
48696DOD     C389909  15.144  21.537  30.107 -0.2201 -0.0565  0.0648
48697DOD     C189910   7.976  22.499  10.393  0.2796 -0.2876 -0.1228
48697DOD     C289911   8.220  22.135  10.519 -0.3308 -0.0389 -0.1875
48697DOD     C389912   8.520  22.105  10.857 -0.0320 -0.1199  0.0670
48698DOD     C189913   2.924  10.471   3.714 -0.3241  0.0776  0.2174
48698DOD     C289914   2.893  10.714   4.144  0.1113 -0.1402 -0.1483
48698DOD     C389915   2.780  11.164   4.363 -0.1098  0.0239 -0.1205
48699DOD     C189916  29.348  18.513  18.654  0.0141 -0.0205  0.1207
48699DOD     C289917  29.099  18.752  18.312  0.1954 -0.2180  0.1707
48699DOD     C389918  28.706  18.982  18.156  0.0761 -0.0780 -0.2051
48700DOD     C189919  28.176  16.562  16.633  0.2752  0.0736 -0.1183
48700DOD     C289920  28.114  16.098  16.662 -0.1745  0.1077 -0.4389
48700DOD     C389921  28.252  15.699  16.805 -0.0565  0.0347  0.4010
48701DOD     C189922  29.368   8.298  15.770  0.2859  0.2679  0.0969
48701DOD     C289923  29.781   8.388  15.649 -0.0998 -0.1071 -0.1251
48701DOD     C389924  29.845   8.737  15.353  0.1571  0.2054 -0.1567
48702DOD     C189925   1.758   8.728  29.423  0.1834 -0.3022 -0.0692
48702DOD     C289926   1.862   9.224  29.420  0.0080  0.0618  0.0195
48702DOD     C389927   1.712   9.642  29.255 -0.0043  0.0234  0.0020
48703DOD     C189928  10.563  26.769  15.765 -0.1075 -0.3433  0.0047
48703DOD     C289929  10.596  27.231  15.731 -0.0012 -0.0785 -0.0073
48703DOD     C389930  10.754  27.481  16.115 -0.0430  0.0441 -0.0988
48704DOD     C189931  14.552  15.560  17.215 -0.1505 -0.0110  0.4123
48704DOD     C289932  14.501  15.088  17.138 -0.1449  0.1091 -0.2236
48704DOD     C389933  14.487  14.696  16.837  0.2490  0.0902 -0.0796
48705DOD     C189934  23.083   6.946  19.475  0.3776 -0.1235 -0.0995
48705DOD     C289935  22.916   7.048  19.040 -0.2038 -0.2399 -0.3399
48705DOD     C389936  22.739   7.127  18.596  0.1728  0.1580 -0.1718
48706DOD     C189937  29.063   4.556  23.140 -0.2075  0.0425  0.0526
48706DOD     C289938  28.763   4.878  23.176  0.2555 -0.0965  0.4439
48706DOD     C389939  28.470   5.150  22.939 -0.2439 -0.1825  0.1462
48707DOD     C189940  15.096  19.015  14.819 -0.2383 -0.2227 -0.1602
48707DOD     C289941  14.951  19.451  14.882 -0.1031 -0.1863  0.0449
48707DOD     C389942  14.795  19.834  14.636  0.1886 -0.1876  0.1411
48708DOD     C189943  25.419  16.265  14.691 -0.3012 -0.0865 -0.3973
48708DOD     C289944  25.667  16.383  14.340 -0.0561  0.0306  0.2180
48708DOD     C389945  25.815  16.765  14.077  0.2173 -0.1909  0.1050
48709DOD     C189946   6.231   0.685  28.704  0.2891 -0.3455  0.0761
48709DOD     C289947   6.544   0.556  28.357  0.0087 -0.2910  0.2246
48709DOD     C389948   6.696   0.144  28.134  0.1924 -0.1105  0.1340
48710DOD     C189949  28.264  16.045  28.832 -0.2631  0.0533  0.1294
48710DOD     C289950  27.725  16.132  28.728 -0.0669 -0.2476 -0.3462
48710DOD     C389951  27.314  16.337  28.835 -0.0490 -0.1005 -0.1753
48711DOD     C189952  24.424  22.497   1.093 -0.0838 -0.0787  0.1483
48711DOD     C289953  24.006  22.706   0.973 -0.1237  0.1350 -0.3744
48711DOD     C389954  23.574  22.939   0.942 -0.1564  0.1737 -0.0383
48712DOD     C189955  14.210  18.556  28.563  0.1427 -0.0846 -0.4163
48712DOD     C289956  14.512  18.685  28.301 -0.1148 -0.0725  0.1057
48712DOD     C389957  14.840  18.959  28.471  0.0592  0.0254 -0.2397
48713DOD     C189958   6.367  28.356  17.824 -0.1251 -0.1504 -0.2811
48713DOD     C289959   6.562  28.231  18.214 -0.0170 -0.1149  0.0279
48713DOD     C389960   7.055  28.156  18.204  0.0569  0.2465 -0.0747
48714DOD     C189961  18.058  26.349  22.210 -0.0441  0.2634 -0.1039
48714DOD     C289962  18.059  26.839  22.205  0.1409 -0.1723  0.1045
48714DOD     C389963  18.130  27.353  22.299  0.4747 -0.1757  0.3160
48715DOD     C189964  25.499  17.238   5.836 -0.1864  0.1457 -0.0980
48715DOD     C289965  25.257  17.629   5.798  0.1620  0.0071  0.1266
48715DOD     C389966  24.969  17.995   5.838 -0.0055  0.0721  0.1046
48716DOD     C189967  11.612   7.486   5.000 -0.0331 -0.3399 -0.1696
48716DOD     C289968  11.499   7.340   5.441 -0.0113 -0.1222  0.0358
48716DOD     C389969  11.433   7.177   5.922  0.1449  0.3237  0.0072
48717DOD     C189970  24.280  28.858  14.097 -0.1524  0.0695 -0.1551
48717DOD     C289971  23.928  29.160  14.058 -0.0693 -0.0358 -0.0684
48717DOD     C389972  23.631  29.306  14.421  0.0642 -0.2415  0.0436
48718DOD     C189973  25.958   4.340  26.640  0.1460 -0.0240 -0.0228
48718DOD     C289974  25.660   4.311  26.262 -0.2799 -0.1872 -0.2608
48718DOD     C389975  25.700   4.023  25.879 -0.0543  0.1444 -0.0170
48719DOD     C189976  26.754   2.101   3.752  0.1975 -0.1070  0.2569
48719DOD     C289977  26.349   1.845   3.769  0.0227  0.1380 -0.0561
48719DOD     C389978  26.022   1.670   4.029 -0.0769 -0.3610  0.2843
48720DOD     C189979  27.086  18.947  17.455  0.0087 -0.1480 -0.1996
48720DOD     C289980  27.238  18.601  17.225 -0.1672  0.0437 -0.0512
48720DOD     C389981  27.152  18.120  17.182  0.0695  0.1112 -0.0325
48721DOD     C189982  27.382  12.509  21.225  0.0845 -0.2427  0.1052
48721DOD     C289983  27.344  12.957  21.158  0.3133 -0.0047  0.0761
48721DOD     C389984  27.623  13.194  20.858  0.0680  0.4198  0.0089
48722DOD     C189985  12.072  25.054  24.471  0.1581  0.0890 -0.1111
48722DOD     C289986  12.395  25.128  24.805  0.0820 -0.2370 -0.1239
48722DOD     C389987  12.653  25.503  24.870 -0.0165  0.1259 -0.3911
48723DOD     C189988   0.055  27.788  18.795 -0.1264 -0.1153  0.1106
48723DOD     C289989   0.152  27.890  18.339  0.0410  0.0952  0.4142
48723DOD     C389990   0.347  27.990  17.944 -0.1793 -0.0397  0.1406
48724DOD     C189991  25.583  30.195   5.616 -0.0882  0.2689 -0.0131
48724DOD     C289992  25.310  29.881   5.375  0.1363  0.1976  0.1086
48724DOD     C389993  24.921  29.573   5.285 -0.0143  0.0659  0.3139
48725DOD     C189994  21.014   4.152  20.204  0.2016  0.2713 -0.0371
48725DOD     C289995  21.039   4.403  20.541  0.2793 -0.0110  0.0198
48725DOD     C389996  20.681   4.390  20.939 -0.4350 -0.3079 -0.0966
48726DOD     C189997  17.430   9.547   9.403 -0.1012  0.0823 -0.0844
48726DOD     C289998  17.579   9.961   9.220  0.3652  0.1201  0.2327
48726DOD     C389999  17.640  10.300   8.922  0.2487  0.2558  0.1062
48727DOD     C190000  25.487  21.337  24.283 -0.5012  0.0142  0.1859
48727DOD     C290001  25.307  20.948  24.354  0.2947  0.0997 -0.2844
48727DOD     C390002  24.993  20.626  24.506  0.0265  0.2072  0.2271
48728DOD     C190003  21.877  26.593  26.781 -0.2327 -0.2368 -0.3363
48728DOD     C290004  21.787  27.045  26.972  0.2414 -0.0008  0.2427
48728DOD     C390005  21.946  27.317  27.320  0.0798 -0.0733  0.0348
48729DOD     C190006  18.473  23.600  10.201  0.3085  0.1555  0.0059
48729DOD     C290007  18.250  23.297  10.507  0.0694  0.2857  0.0010
48729DOD     C390008  17.981  22.867  10.543  0.3078  0.0085 -0.2698
48730DOD     C190009  14.892  27.402  29.176  0.0659 -0.1452 -0.1623
48730DOD     C290010  15.054  27.149  28.821 -0.0792 -0.1631  0.0825
48730DOD     C390011  14.878  26.918  28.502  0.2649 -0.0780  0.3276
48731DOD     C190012  18.368  21.775  25.376 -0.2015  0.0947 -0.0644
48731DOD     C290013  18.129  21.457  25.188  0.0195  0.1605  0.2543
48731DOD     C390014  17.778  21.350  24.915 -0.1162 -0.3785  0.2373
48732DOD     C190015  23.017  18.296   3.337  0.1768 -0.0504 -0.1984
48732DOD     C290016  22.658  18.616   3.374  0.1177 -0.1416 -0.0964
48732DOD     C390017  22.336  18.949   3.245  0.0459  0.1093 -0.0844
48733DOD     C190018  10.636  19.326   4.647  0.0219 -0.0029 -0.1178
48733DOD     C290019  11.045  19.433   4.562  0.1352  0.0581  0.0966
48733DOD     C390020  11.495  19.311   4.622 -0.0556  0.3181  0.2649
48734DOD     C190021   8.877   7.499   8.937 -0.0101 -0.0347  0.4812
48734DOD     C290022   8.524   7.553   9.246 -0.0968  0.0469  0.0905
48734DOD     C390023   8.305   7.270   9.510 -0.0036  0.1324 -0.1841
48735DOD     C190024  12.253  10.124  28.134  0.2188  0.2136  0.2467
48735DOD     C290025  12.009  10.401  28.434 -0.0766 -0.0480  0.0882
48735DOD     C390026  12.103  10.787  28.601 -0.1032  0.0312 -0.1672
48736DOD     C190027  11.897   4.295  13.202 -0.0760 -0.0075  0.0632
48736DOD     C290028  11.652   4.463  12.858 -0.0311  0.4467 -0.1208
48736DOD     C390029  11.847   4.649  12.470  0.0821  0.4693 -0.2665
48737DOD     C190030  28.859   2.881   4.231  0.1721 -0.0097 -0.0528
48737DOD     C290031  28.736   2.441   4.346 -0.1654 -0.1554 -0.1279
48737DOD     C390032  29.029   2.112   4.426 -0.1057 -0.1327  0.0583
48738DOD     C190033  14.824   5.733  13.527  0.1351  0.0244  0.1746
48738DOD     C290034  15.105   5.519  13.278 -0.0532  0.0724  0.2163
48738DOD     C390035  15.445   5.787  13.134 -0.1849  0.0919 -0.1545
48739DOD     C190036   3.974  11.967  18.486  0.0074 -0.3810 -0.1321
48739DOD     C290037   4.256  11.854  18.091 -0.1121 -0.2085  0.0992
48739DOD     C390038   4.420  11.443  17.851  0.0266  0.3278 -0.2596
48740DOD     C190039  12.271  27.514   8.386 -0.4203  0.2608 -0.3240
48740DOD     C290040  11.999  27.135   8.509 -0.2461 -0.1524 -0.0764
48740DOD     C390041  11.620  26.947   8.353 -0.3394 -0.1681  0.0531
48741DOD     C190042   1.120  14.691   4.139 -0.0769 -0.2113  0.0315
48741DOD     C290043   1.060  14.409   4.480 -0.0786  0.3173 -0.0921
48741DOD     C390044   0.591  14.294   4.606  0.1267  0.2273 -0.2474
48742DOD     C190045  11.754  15.674   9.145 -0.0374  0.1548 -0.0296
48742DOD     C290046  11.700  15.397   9.484  0.2108  0.1992  0.2812
48742DOD     C390047  11.347  15.397   9.829 -0.0708  0.0352  0.0030
48743DOD     C190048   8.855  20.393  13.781  0.2208 -0.2217  0.0012
48743DOD     C290049   8.728  20.585  13.364  0.5981 -0.1785  0.0565
48743DOD     C390050   8.624  20.220  13.131 -0.0007  0.2183  0.1268
48744DOD     C190051   0.490  29.255  26.586 -0.0378 -0.1238  0.1974
48744DOD     C290052   0.021  29.253  26.499 -0.0313 -0.2609 -0.1604
48744DOD     C390053  29.936  29.441  26.590  0.0931 -0.2126 -0.2341
48745DOD     C190054  27.261   7.188  29.416  0.2187  0.1194 -0.0925
48745DOD     C290055  27.038   7.483  29.065 -0.3158 -0.4180  0.0627
48745DOD     C390056  26.758   7.587  28.722 -0.3479  0.0333  0.4012
48746DOD     C190057  21.734  19.098  26.290 -0.1306 -0.0613 -0.0124
48746DOD     C290058  22.098  19.401  26.450  0.2063 -0.1755 -0.0394
48746DOD     C390059  22.294  19.844  26.384  0.0538  0.3726 -0.1050
48747DOD     C190060  17.107   1.476   3.814 -0.1903 -0.2996 -0.1147
48747DOD     C290061  16.665   1.339   3.881 -0.0017 -0.0979 -0.2645
48747DOD     C390062  16.427   1.245   4.273 -0.1037  0.0214  0.0295
48748DOD     C190063  29.060  26.893  10.662  0.3229 -0.0565  0.1464
48748DOD     C290064  29.177  26.635  11.041 -0.2445  0.2431 -0.3210
48748DOD     C390065  29.042  26.545  11.468 -0.2927  0.0754 -0.0660
48749DOD     C190066  11.373   6.340   6.827 -0.0778  0.2953  0.0910
48749DOD     C290067  11.142   6.014   6.616  0.1530 -0.0665  0.1354
48749DOD     C390068  10.912   5.640   6.494 -0.2544 -0.0469  0.2000
48750DOD     C190069  17.741   2.918   8.517  0.1165  0.2385 -0.4627
48750DOD     C290070  17.973   3.313   8.521 -0.1318 -0.1855 -0.3363
48750DOD     C390071  18.150   3.820   8.443  0.2476 -0.0024 -0.0353
48751DOD     C190072   7.113  20.466  13.341 -0.0353 -0.2612 -0.0976
48751DOD     C290073   6.655  20.553  13.321 -0.2014 -0.0220  0.2008
48751DOD     C390074   6.611  20.845  13.662 -0.3105  0.0198  0.0120
48752DOD     C190075  26.635   6.915  20.260  0.2908  0.0866 -0.2107
48752DOD     C290076  26.723   6.855  20.739 -0.0612 -0.0627 -0.4065
48752DOD     C390077  26.630   6.688  21.166 -0.2939 -0.0590  0.1769
48753DOD     C190078  21.233  11.524  15.347 -0.0452 -0.0687 -0.2126
48753DOD     C290079  21.256  11.113  15.496 -0.0288  0.1197  0.0480
48753DOD     C390080  21.027  10.738  15.765 -0.2328 -0.0137 -0.1453
48754DOD     C190081  11.509   5.948   5.321  0.1681  0.1409  0.4339
48754DOD     C290082  11.188   5.601   5.341  0.0736 -0.3136 -0.0951
48754DOD     C390083  11.027   5.235   5.583 -0.1281 -0.0479  0.0711
48755DOD     C190084  12.895  27.401  11.524  0.0939 -0.1784 -0.0950
48755DOD     C290085  12.438  27.451  11.688 -0.0992  0.0068  0.0324
48755DOD     C390086  11.959  27.548  11.804 -0.3222 -0.1789  0.2264
48756DOD     C190087   4.784   4.142   2.199  0.2225 -0.1118 -0.1380
48756DOD     C290088   4.433   3.882   1.907 -0.1490 -0.0941  0.3007
48756DOD     C390089   4.031   3.857   1.643  0.2977  0.0034  0.0704
48757DOD     C190090  20.957   7.810   7.812 -0.2436  0.1314  0.1510
48757DOD     C290091  21.417   7.913   7.849  0.0504  0.1248 -0.1662
48757DOD     C390092  21.748   8.196   7.728 -0.0588 -0.0107  0.1901
48758DOD     C190093   8.833   4.895  23.434 -0.2821 -0.0497  0.1243
48758DOD     C290094   8.678   4.716  22.968 -0.1993 -0.2530  0.1583
48758DOD     C390095   8.711   4.633  22.493 -0.3468  0.1041 -0.1172
48759DOD     C190096  24.404  18.028   5.644  0.0758  0.2725 -0.0073
48759DOD     C290097  24.542  17.933   5.174  0.1363 -0.0738 -0.1230
48759DOD     C390098  24.683  18.108   4.780  0.0183  0.1204 -0.0064
48760DOD     C190099  23.798   5.992  11.767  0.0654 -0.1824 -0.3719
48760DOD     C290100  24.097   5.651  11.637 -0.3047 -0.0565 -0.1249
48760DOD     C390101  24.428   5.313  11.545  0.2823  0.0410 -0.2063
48761DOD     C190102   7.882  24.015   8.534  0.1013 -0.0223 -0.0010
48761DOD     C290103   8.136  24.237   8.818  0.0809  0.1222 -0.1121
48761DOD     C390104   8.382  24.281   9.237 -0.1040 -0.3915  0.0756
48762DOD     C190105  28.160   5.391  13.246 -0.1442 -0.3362  0.0476
48762DOD     C290106  27.862   5.643  13.038 -0.1083 -0.1997  0.1721
48762DOD     C390107  27.634   5.517  12.695 -0.1121 -0.1296 -0.0265
48763DOD     C190108  12.670  22.970  25.193  0.0408  0.2430 -0.4398
48763DOD     C290109  12.832  22.595  25.437  0.0952 -0.0811 -0.0295
48763DOD     C390110  12.999  22.172  25.554 -0.1221  0.3709  0.4752
48764DOD     C190111  15.926   5.851  27.250 -0.2248 -0.4537  0.1798
48764DOD     C290112  16.083   5.439  27.369 -0.3219  0.0213  0.0716
48764DOD     C390113  16.279   5.046  27.201  0.0607  0.0557 -0.0138
48765DOD     C190114  30.354  16.024  10.746  0.1895 -0.1159 -0.0224
48765DOD     C290115  30.270  15.569  10.597  0.1792  0.0469 -0.2739
48765DOD     C390116  30.201  15.499  10.139  0.1840 -0.2051  0.0734
48766DOD     C190117  21.846  22.178  22.470  0.1112  0.0650  0.0947
48766DOD     C290118  21.783  22.564  22.601  0.1075  0.0172 -0.1914
48766DOD     C390119  21.497  22.812  22.912 -0.4644 -0.0054  0.0196
48767DOD     C190120  11.007   8.224  19.439 -0.3239 -0.2578 -0.0172
48767DOD     C290121  10.905   8.612  19.230  0.0402 -0.1109  0.3267
48767DOD     C390122  10.680   8.994  19.018  0.0603 -0.1846  0.0459
48768DOD     C190123  23.937  13.300   9.517 -0.2025  0.2780  0.0197
48768DOD     C290124  24.307  13.576   9.477 -0.3134  0.2538  0.0246
48768DOD     C390125  24.522  13.957   9.457  0.1142  0.2866 -0.1946
48769DOD     C190126  24.765  22.534  18.408  0.0962  0.0478 -0.0230
48769DOD     C290127  25.098  22.597  18.683 -0.0792  0.0600 -0.2285
48769DOD     C390128  25.238  22.495  19.086 -0.0512  0.3017 -0.3469
48770DOD     C190129  15.889  28.293   2.823  0.1501  0.1783  0.1426
48770DOD     C290130  15.912  28.614   2.447 -0.0409  0.0851 -0.0147
48770DOD     C390131  15.742  28.878   2.095 -0.1366 -0.3525 -0.2259
48771DOD     C190132   2.595  16.396  29.570  0.2257 -0.0508 -0.0487
48771DOD     C290133   2.979  16.090  29.611 -0.2348  0.2048  0.1531
48771DOD     C390134   3.345  15.808  29.625  0.0277 -0.0512 -0.1935
48772DOD     C190135   1.827   5.995   9.576  0.0770  0.2183  0.2320
48772DOD     C290136   1.971   5.578   9.425  0.2000  0.0874 -0.3158
48772DOD     C390137   2.140   5.312   9.092 -0.0003 -0.2243  0.1320
48773DOD     C190138  23.678   6.511  30.074 -0.1057 -0.2467 -0.0457
48773DOD     C290139  23.600   6.970  30.214 -0.2880  0.3026 -0.2341
48773DOD     C390140  23.649   7.430  30.078  0.0009 -0.0796  0.0400
48774DOD     C190141  20.703  23.591  15.214  0.1546 -0.4096  0.1003
48774DOD     C290142  20.976  23.711  15.635  0.2566 -0.0837 -0.0859
48774DOD     C390143  21.417  23.676  15.714 -0.2877 -0.0206  0.2481
48775DOD     C190144  27.172  24.714  14.059 -0.4026 -0.0260 -0.1349
48775DOD     C290145  27.171  25.070  13.767  0.1977  0.0023  0.0192
48775DOD     C390146  26.880  25.481  13.760 -0.0288  0.3135  0.4253
48776DOD     C190147   9.990  18.515   7.323 -0.3723 -0.0581 -0.2301
48776DOD     C290148   9.826  18.129   7.172  0.2747 -0.0268 -0.0760
48776DOD     C390149  10.044  17.735   7.107 -0.0928 -0.2101 -0.0162
48777DOD     C190150  15.126  14.997   3.978 -0.0345  0.1390  0.2358
48777DOD     C290151  14.896  15.419   3.941  0.0823 -0.4678  0.0217
48777DOD     C390152  14.491  15.684   3.957  0.2945 -0.0528  0.2156
48778DOD     C190153  11.423  20.577  11.112 -0.0164 -0.1371 -0.3080
48778DOD     C290154  11.580  20.748  10.752  0.0714  0.2044  0.1635
48778DOD     C390155  11.780  20.692  10.366  0.0919  0.1103  0.0028
48779DOD     C190156   7.571  19.620  25.013 -0.1634 -0.1655 -0.0936
48779DOD     C290157   7.871  19.877  24.800 -0.0052  0.2381  0.4203
48779DOD     C390158   7.967  20.003  24.318 -0.3202 -0.1580 -0.0671
48780DOD     C190159   7.026   1.682  20.574  0.5493 -0.0144  0.3248
48780DOD     C290160   7.439   1.718  20.323 -0.0344  0.2229  0.0133
48780DOD     C390161   7.815   1.875  20.081  0.1537  0.3017 -0.1771
48781DOD     C190162  15.398   7.500  17.402  0.1404  0.1796  0.0752
48781DOD     C290163  15.300   7.940  17.470 -0.0750  0.2378  0.0018
48781DOD     C390164  15.287   8.431  17.476 -0.0893 -0.0375 -0.0439
48782DOD     C190165  16.686  29.657  27.890 -0.0754 -0.0683 -0.1470
48782DOD     C290166  17.054  29.883  28.073  0.1404  0.1909 -0.0915
48782DOD     C390167  17.479  29.925  27.934 -0.1744 -0.1524  0.0848
48783DOD     C190168   7.010   6.664  25.606  0.3690  0.1497  0.0061
48783DOD     C290169   6.948   6.301  25.901  0.0015 -0.1073  0.1647
48783DOD     C390170   7.168   5.920  26.059  0.1213 -0.0528 -0.2443
48784DOD     C190171  17.902   7.497  22.235  0.0185 -0.0002  0.2769
48784DOD     C290172  18.294   7.207  22.299 -0.1713  0.0464  0.2900
48784DOD     C390173  18.706   7.311  22.406 -0.0316 -0.0817 -0.1945
48785DOD     C190174  13.125  18.829   4.093  0.0883 -0.1340  0.1387
48785DOD     C290175  13.530  18.569   4.006 -0.2191  0.1034 -0.0446
48785DOD     C390176  13.881  18.345   3.877  0.2669  0.0771 -0.2532
48786DOD     C190177  20.311  25.856  27.419  0.0509 -0.1675  0.0687
48786DOD     C290178  20.606  25.767  27.750 -0.2107  0.0660 -0.1692
48786DOD     C390179  20.861  25.441  27.970 -0.0738 -0.2028  0.0982
48787DOD     C190180  21.600   3.227  15.523  0.1873 -0.0976 -0.0694
48787DOD     C290181  21.900   3.292  15.124 -0.0507  0.3703  0.1820
48787DOD     C390182  22.189   3.072  14.769 -0.0306  0.2056 -0.2225
48788DOD     C190183  27.610   1.952  14.960  0.2667  0.1422  0.1276
48788DOD     C290184  27.764   2.220  15.299  0.2072  0.1199 -0.2059
48788DOD     C390185  27.952   2.461  15.660 -0.2636 -0.0472 -0.1260
48789DOD     C190186  15.242  26.804  22.819  0.0634 -0.0254 -0.0513
48789DOD     C290187  15.089  26.452  22.558  0.1871  0.0596 -0.3682
48789DOD     C390188  15.113  26.217  22.155 -0.3277 -0.1467 -0.3021
48790DOD     C190189  14.216  19.840   9.430 -0.3010 -0.3329  0.0873
48790DOD     C290190  14.312  19.942   8.993 -0.2147  0.0078  0.4598
48790DOD     C390191  14.386  19.900   8.493  0.2656 -0.1197 -0.1536
48791DOD     C190192  26.316  24.874  24.699 -0.1438 -0.2606  0.0327
48791DOD     C290193  26.615  25.089  24.372 -0.3921 -0.2367 -0.0467
48791DOD     C390194  26.592  25.323  23.946  0.3440 -0.1029  0.1592
48792DOD     C190195  10.594  11.795  21.723 -0.0807  0.4431 -0.1137
48792DOD     C290196  10.839  11.981  22.056 -0.1950  0.1732 -0.1840
48792DOD     C390197  10.797  11.980  22.536  0.0356  0.1643  0.0320
48793DOD     C190198  13.220  28.893  23.159 -0.1495 -0.0950  0.1822
48793DOD     C290199  13.354  28.769  23.609 -0.1152  0.3008  0.3236
48793DOD     C390200  13.631  29.046  23.851  0.3505 -0.5511 -0.1549
48794DOD     C190201  11.817  22.450  23.457  0.3610  0.2451 -0.1337
48794DOD     C290202  11.544  22.797  23.612  0.0361 -0.1710 -0.4371
48794DOD     C390203  11.112  22.689  23.834 -0.0007  0.1793  0.0083
48795DOD     C190204  22.920   3.505   1.625  0.0017 -0.0106 -0.1790
48795DOD     C290205  23.379   3.583   1.609  0.0155  0.1502 -0.1554
48795DOD     C390206  23.768   3.562   1.824 -0.1301 -0.0252  0.0246
48796DOD     C190207   8.528   8.686  11.217 -0.0186  0.0747  0.0316
48796DOD     C290208   8.508   8.719  11.664  0.0578 -0.0807  0.2636
48796DOD     C390209   8.177   8.688  12.032  0.1409 -0.0589  0.4578
48797DOD     C190210  23.264  21.828  20.218 -0.0701  0.0937 -0.0609
48797DOD     C290211  23.078  21.482  20.433 -0.1157 -0.0733  0.1863
48797DOD     C390212  23.027  21.244  20.806 -0.2712  0.1090  0.0024
48798DOD     C190213  18.334  23.432  18.224 -0.0909  0.1080  0.0440
48798DOD     C290214  18.714  23.568  18.080 -0.4973  0.1077  0.2717
48798DOD     C390215  18.988  23.905  17.953  0.1131  0.2243  0.0245
48799DOD     C190216   7.894  10.014  23.300 -0.2212 -0.2892  0.1757
48799DOD     C290217   7.841  10.451  23.144 -0.1774 -0.3675 -0.0508
48799DOD     C390218   7.853  10.468  22.671 -0.1576  0.0383 -0.3548
48800DOD     C190219  27.860  14.384  29.167  0.1165 -0.2679 -0.2211
48800DOD     C290220  27.397  14.324  29.258  0.0910  0.3705 -0.1131
48800DOD     C390221  26.982  14.503  29.276 -0.1665  0.1113 -0.4029
48801DOD     C190222  14.023   0.056  10.648 -0.2233 -0.1501  0.2366
48801DOD     C290223  14.019  30.255  11.072  0.0142  0.1304  0.0773
48801DOD     C390224  13.755  30.140  11.415 -0.1271  0.1164  0.0179
48802DOD     C190225   7.638  19.711  17.557 -0.2531 -0.1167  0.0504
48802DOD     C290226   7.680  19.567  17.122 -0.3980 -0.0726  0.1701
48802DOD     C390227   7.623  19.574  16.678  0.1770 -0.2660  0.0316
48803DOD     C190228  30.158   5.895  14.356  0.0264 -0.1694 -0.0558
48803DOD     C290229   0.184   5.569  14.409  0.1484 -0.1385 -0.1110
48803DOD     C390230   0.598   5.546  14.658  0.0309 -0.0594  0.0195
48804DOD     C190231   9.584   7.365   2.659  0.4306 -0.2055  0.1630
48804DOD     C290232   9.717   7.518   3.132 -0.1534 -0.0029 -0.1702
48804DOD     C390233  10.145   7.542   3.361  0.1221 -0.1330  0.0837
48805DOD     C190234  25.774   8.103   4.259 -0.0706 -0.0007 -0.3412
48805DOD     C290235  25.377   7.812   4.318 -0.1409 -0.0309 -0.1703
48805DOD     C390236  25.363   7.549   4.011  0.2259  0.2014  0.0121
48806DOD     C190237  21.487   5.467  29.941 -0.0097 -0.1722  0.2582
48806DOD     C290238  21.749   5.841  29.767  0.5185  0.0650 -0.1184
48806DOD     C390239  21.999   6.228  29.926 -0.0262 -0.3140  0.2505
48807DOD     C190240  18.273  28.549  10.990  0.1614  0.0504 -0.4062
48807DOD     C290241  18.582  28.259  10.848 -0.0193  0.1605 -0.0034
48807DOD     C390242  18.512  27.950  10.556 -0.2321  0.0767  0.2190
48808DOD     C190243  23.061  23.610   0.589  0.4675 -0.0300  0.2484
48808DOD     C290244  23.267  23.449   0.244  0.3048 -0.0981  0.0859
48808DOD     C390245  23.727  23.493   0.162 -0.2295  0.2868  0.5888
48809DOD     C190246  19.100  22.888  19.367 -0.0889 -0.0716  0.0241
48809DOD     C290247  18.736  23.161  19.199  0.0503  0.0542  0.0395
48809DOD     C390248  18.487  23.461  19.461 -0.0754  0.5382 -0.0717
48810DOD     C190249  28.134  18.864  25.125 -0.1408  0.3472 -0.1824
48810DOD     C290250  28.385  19.244  25.294  0.2060 -0.1130 -0.2857
48810DOD     C390251  28.639  19.543  25.083  0.1647 -0.3644  0.0956
48811DOD     C190252  12.353  16.110   7.319 -0.3184 -0.0008 -0.0794
48811DOD     C290253  12.828  16.226   7.280 -0.1061 -0.2251  0.0930
48811DOD     C390254  13.031  15.896   6.989 -0.1107 -0.1961 -0.0202
48812DOD     C190255  25.459  26.324  11.357 -0.2383 -0.1412 -0.0918
48812DOD     C290256  25.715  26.729  11.368  0.1432 -0.0887 -0.0038
48812DOD     C390257  25.721  27.193  11.449 -0.0672  0.0988  0.0804
48813DOD     C190258   3.973   9.157  24.904  0.1209 -0.1098 -0.0937
48813DOD     C290259   4.106   8.719  24.871  0.2490  0.0361  0.0004
48813DOD     C390260   4.279   8.340  24.661 -0.1141  0.0453  0.1915
48814DOD     C190261   2.941   6.334  17.889  0.0489  0.1014 -0.0536
48814DOD     C290262   3.117   6.689  17.817  0.6137 -0.0841 -0.1633
48814DOD     C390263   3.138   6.956  17.431 -0.2766  0.1283 -0.5166
48815DOD     C190264   1.917   6.011  29.822  0.0869  0.0894 -0.2073
48815DOD     C290265   2.282   5.740  29.799  0.2787  0.1519  0.0761
48815DOD     C390266   2.764   5.803  29.610 -0.0338  0.1228  0.1044
48816DOD     C190267  21.213   6.511  16.412 -0.1870  0.0655  0.2734
48816DOD     C290268  21.393   6.849  16.607 -0.1467 -0.0756  0.0975
48816DOD     C390269  21.207   7.279  16.776  0.2569 -0.1202 -0.1756
48817DOD     C190270  16.838   4.489   7.025  0.0425 -0.1759  0.3949
48817DOD     C290271  16.638   4.917   7.058 -0.1052  0.0021 -0.3242
48817DOD     C390272  16.548   5.163   7.456  0.2482 -0.2704 -0.2934
48818DOD     C190273   3.598  22.304   1.343  0.0984  0.0305  0.0874
48818DOD     C290274   3.198  22.395   1.479 -0.0682  0.1840 -0.0285
48818DOD     C390275   2.785  22.619   1.328  0.0642  0.0426 -0.2697
48819DOD     C190276  24.769  24.025  22.140  0.0254 -0.2386  0.1055
48819DOD     C290277  25.194  23.768  22.053 -0.1371 -0.0946 -0.1104
48819DOD     C390278  25.567  23.820  21.811 -0.1235 -0.1695 -0.0511
48820DOD     C190279   6.025   4.099  11.742 -0.0160 -0.1239 -0.1318
48820DOD     C290280   5.966   4.255  11.295  0.0220 -0.2316  0.2975
48820DOD     C390281   5.769   4.048  10.918 -0.2853  0.1999  0.0908
48821DOD     C190282   0.923  23.112  14.667 -0.1196  0.1818 -0.1711
48821DOD     C290283   1.203  23.166  15.079  0.0546  0.3296  0.0663
48821DOD     C390284   1.284  22.680  15.285  0.1447 -0.0802  0.0940
48822DOD     C190285  26.736  22.498  17.171 -0.2473 -0.0189  0.0364
48822DOD     C290286  27.055  22.822  17.180 -0.0262 -0.0352  0.2304
48822DOD     C390287  27.395  23.159  17.220 -0.1945 -0.1617  0.2820
48823DOD     C190288  12.860  30.073   0.084  0.1477 -0.0574 -0.2231
48823DOD     C290289  12.903   0.186   0.097  0.2150 -0.4725  0.1780
48823DOD     C390290  12.977   0.582  30.230 -0.3395  0.2004  0.0257
48824DOD     C190291  21.665  29.135  20.626  0.1309  0.2710  0.0574
48824DOD     C290292  22.040  29.061  20.861  0.3364  0.0406  0.1319
48824DOD     C390293  22.178  29.473  21.009 -0.1078  0.0686 -0.0327
48825DOD     C190294  12.924  13.311  29.618 -0.0568 -0.0964  0.0434
48825DOD     C290295  12.620  13.177  29.237 -0.0572  0.1130  0.1194
48825DOD     C390296  12.710  12.816  28.969  0.1793  0.0645  0.1769
48826DOD     C190297  17.752  21.917  30.287 -0.0436 -0.1244 -0.2177
48826DOD     C290298  17.322  22.061  30.150  0.0021 -0.1168 -0.0531
48826DOD     C390299  16.874  22.026  29.935 -0.0427  0.2641 -0.0084
48827DOD     C190300  26.105  16.550  17.102 -0.3877  0.1659 -0.1790
48827DOD     C290301  26.142  16.598  16.637 -0.0488  0.3559  0.0320
48827DOD     C390302  26.367  16.975  16.534 -0.3110  0.0970 -0.1559
48828DOD     C190303   8.065  20.836   2.317 -0.0540  0.2031  0.0484
48828DOD     C290304   8.075  20.414   2.383 -0.3548  0.2870  0.0031
48828DOD     C390305   7.916  19.974   2.522 -0.1956  0.1249  0.0938
48829DOD     C190306  10.373  14.906  24.129  0.1658 -0.1489 -0.2058
48829DOD     C290307  10.547  15.348  24.215 -0.1537  0.0123  0.0224
48829DOD     C390308  10.921  15.606  24.047  0.1006  0.3759  0.1890
48830DOD     C190309  24.027   2.237  15.279  0.0546  0.0796  0.2597
48830DOD     C290310  24.169   1.981  15.041  0.0774 -0.0810 -0.0448
48830DOD     C390311  24.436   1.794  14.764 -0.1238 -0.0116  0.0310
48831DOD     C190312  15.782  26.203   0.596  0.0680 -0.1269  0.1345
48831DOD     C290313  16.272  26.274   0.503 -0.3528 -0.1770 -0.0842
48831DOD     C390314  16.540  26.610   0.291 -0.0749  0.0797  0.0476
48832DOD     C190315  10.304  14.376  24.567 -0.1539  0.0075 -0.0789
48832DOD     C290316   9.893  14.544  24.507 -0.0689  0.0183 -0.2337
48832DOD     C390317   9.683  14.797  24.265 -0.0697 -0.1869 -0.1825
48833DOD     C190318   0.827  20.526   9.672  0.0996  0.0065 -0.2061
48833DOD     C290319   1.160  20.205   9.765 -0.0776 -0.0853  0.1383
48833DOD     C390320   1.531  20.390   9.978 -0.2201 -0.1228 -0.1543
48834DOD     C190321   2.066   6.677  24.094 -0.1660  0.1215 -0.1950
48834DOD     C290322   1.798   6.722  23.667  0.2723  0.0806  0.0648
48834DOD     C390323   1.503   6.680  23.359  0.0339  0.2869 -0.2122
48835DOD     C190324  12.759   0.791  28.881 -0.0682 -0.0838  0.3448
48835DOD     C290325  12.754   0.699  28.433 -0.1227  0.3667 -0.0820
48835DOD     C390326  12.687   0.328  28.128 -0.1012 -0.1661  0.0555
48836DOD     C190327   1.811   4.775   1.868  0.2047 -0.0131  0.1531
48836DOD     C290328   1.681   5.097   2.162  0.0469 -0.0894 -0.0182
48836DOD     C390329   1.331   5.377   1.977  0.0980  0.0130  0.0642
48837DOD     C190330  20.160   3.133  24.521 -0.1426 -0.0496  0.2214
48837DOD     C290331  20.006   3.565  24.621  0.1147 -0.2018 -0.2501
48837DOD     C390332  19.713   3.860  24.878 -0.0190 -0.0009  0.2423
48838DOD     C190333  16.908  11.275  11.076 -0.1352 -0.1721  0.1522
48838DOD     C290334  17.185  11.637  11.137  0.1769 -0.4004  0.3481
48838DOD     C390335  17.554  11.838  11.356 -0.0330  0.1662  0.0683
48839DOD     C190336   3.934  23.186   4.042  0.1087 -0.0808  0.0466
48839DOD     C290337   3.816  23.473   4.378 -0.0180 -0.1666  0.1243
48839DOD     C390338   3.947  23.364   4.840 -0.3046  0.2772  0.0761
48840DOD     C190339  26.718  27.839  12.378 -0.1699 -0.0473 -0.0063
48840DOD     C290340  26.332  28.031  12.266  0.0440  0.0367  0.1808
48840DOD     C390341  25.888  28.273  12.257 -0.2183 -0.3942 -0.1304
48841DOD     C190342  12.429  26.520   3.794 -0.1584 -0.1850 -0.1852
48841DOD     C290343  12.567  26.133   3.874  0.0158  0.2837  0.1885
48841DOD     C390344  12.667  25.678   4.077  0.1551  0.1235  0.1654
48842DOD     C190345   9.552  28.152  26.191 -0.2141  0.0208 -0.0709
48842DOD     C290346   9.352  28.213  26.628  0.2845 -0.0004  0.0412
48842DOD     C390347   9.517  28.530  26.959  0.0479  0.0568 -0.0473
48843DOD     C190348  15.443  17.240  13.342 -0.0641  0.2093 -0.0092
48843DOD     C290349  15.174  17.522  13.147 -0.2477 -0.3951  0.0136
48843DOD     C390350  15.128  17.750  12.775 -0.1129 -0.3676  0.1573
48844DOD     C190351  27.148  13.968   8.665 -0.1611 -0.2892  0.1183
48844DOD     C290352  26.997  13.597   8.849 -0.0368 -0.0583 -0.0229
48844DOD     C390353  26.597  13.370   8.924  0.1172  0.2338  0.0930
48845DOD     C190354  29.204   5.447  24.389  0.0939  0.0115  0.2183
48845DOD     C290355  28.810   5.168  24.430 -0.1970  0.1591 -0.0886
48845DOD     C390356  28.535   4.945  24.784 -0.0283 -0.0919  0.1675
48846DOD     C190357   1.087   8.493  25.018 -0.1240  0.2880 -0.0542
48846DOD     C290358   1.333   8.246  24.680  0.3192  0.0829 -0.0026
48846DOD     C390359   1.462   8.033  24.266 -0.1236 -0.1278  0.0445
48847DOD     C190360   3.508   0.253  21.320 -0.2191 -0.1065  0.0460
48847DOD     C290361   3.575   0.342  20.882 -0.1209  0.2128  0.0211
48847DOD     C390362   3.554   0.544  20.492  0.1942  0.0913 -0.0591
48848DOD     C190363  13.958  13.214  22.360  0.2069  0.0934 -0.0439
48848DOD     C290364  14.117  13.185  22.803 -0.2294 -0.3987  0.0066
48848DOD     C390365  14.316  13.286  23.200 -0.0892 -0.2634  0.1724
48849DOD     C190366   5.825  30.088  14.420 -0.0651  0.0981  0.2376
48849DOD     C290367   6.113   0.148  14.538 -0.1494  0.4452  0.1663
48849DOD     C390368   6.443   0.417  14.715  0.1575 -0.0874  0.0859
48850DOD     C190369  16.954  27.213  16.876  0.0975  0.1237 -0.1467
48850DOD     C290370  16.526  27.499  17.043 -0.0100 -0.0737 -0.2142
48850DOD     C390371  16.220  27.743  16.874  0.0044 -0.0696 -0.2362
48851DOD     C190372  15.104  18.620  22.200  0.0318  0.1172  0.1137
48851DOD     C290373  15.438  18.442  21.965 -0.0485  0.1761 -0.1615
48851DOD     C390374  15.837  18.273  22.119 -0.0251  0.1778  0.2236
48852DOD     C190375   3.944  13.983  15.879 -0.2418 -0.2293 -0.0824
48852DOD     C290376   3.539  13.830  16.020 -0.2561 -0.0145 -0.2909
48852DOD     C390377   3.394  13.643  16.405  0.2492  0.0713  0.0425
48853DOD     C190378  18.406  18.394   3.814 -0.1597  0.0830 -0.1665
48853DOD     C290379  18.077  18.728   3.737 -0.0766 -0.0364  0.2505
48853DOD     C390380  17.917  19.141   3.697  0.0460 -0.0103  0.0367
48854DOD     C190381  12.088  21.460  25.782 -0.2188  0.2965 -0.0286
48854DOD     C290382  11.768  21.520  25.504  0.1273 -0.0352 -0.1901
48854DOD     C390383  11.834  21.324  25.061  0.1247 -0.0870 -0.0521
48855DOD     C190384  19.967  15.232   4.243  0.1013  0.0750 -0.1028
48855DOD     C290385  20.016  15.562   4.588  0.3161 -0.0315 -0.0124
48855DOD     C390386  20.251  15.937   4.553 -0.2273  0.0992 -0.2271
48856DOD     C190387   8.486   9.996  13.638 -0.2088  0.1637 -0.2947
48856DOD     C290388   8.822  10.294  13.444 -0.1729  0.2947 -0.0775
48856DOD     C390389   9.055  10.424  12.985 -0.3043  0.2168 -0.3310
48857DOD     C190390   3.509  12.043   6.510  0.0288 -0.1292 -0.0686
48857DOD     C290391   3.745  12.430   6.248  0.3313 -0.0460  0.2769
48857DOD     C390392   3.941  12.661   5.865 -0.3094  0.0023  0.1470
48858DOD     C190393   5.256   8.164  20.254  0.1150  0.0211  0.0429
48858DOD     C290394   5.095   8.357  19.848  0.1397 -0.0398 -0.0177
48858DOD     C390395   5.120   8.613  19.459 -0.0804 -0.2490 -0.0012
48859DOD     C190396  22.752  24.328  26.698  0.1473 -0.1213 -0.0677
48859DOD     C290397  22.738  24.792  26.803 -0.0074 -0.2455  0.0347
48859DOD     C390398  22.454  25.114  26.574 -0.2352  0.0483 -0.0610
48860DOD     C190399   2.543  20.246  28.294 -0.0938 -0.3244 -0.0618
48860DOD     C290400   2.315  19.862  28.132  0.0611  0.0967 -0.0288
48860DOD     C390401   2.269  19.492  28.380 -0.0623  0.1398 -0.4017
48861DOD     C190402  23.439   4.067   0.066  0.0231 -0.0109  0.0420
48861DOD     C290403  23.853   4.026   0.253 -0.1833  0.0637  0.2396
48861DOD     C390404  24.099   4.165   0.582 -0.0717  0.1474 -0.2747
48862DOD     C190405  14.131  14.648  21.641 -0.0748 -0.1487  0.0046
48862DOD     C290406  14.270  14.441  22.041  0.2586 -0.1621 -0.0089
48862DOD     C390407  14.272  14.463  22.528  0.1423  0.0215  0.1418
48863DOD     C190408   2.881  23.668  28.177 -0.1393  0.0871  0.1772
48863DOD     C290409   2.469  23.916  28.156 -0.2000  0.1746 -0.1138
48863DOD     C390410   2.119  24.235  28.305 -0.0967  0.2587  0.1612
48864DOD     C190411  18.190   9.994  26.474  0.0230 -0.0105  0.1226
48864DOD     C290412  18.429   9.969  26.097  0.2812 -0.3692  0.1652
48864DOD     C390413  18.550   9.824  25.670 -0.1382 -0.3971 -0.1074
48865DOD     C190414   4.472   8.631   9.380 -0.1314  0.3647 -0.0372
48865DOD     C290415   4.554   8.171   9.257  0.1903  0.2590  0.2653
48865DOD     C390416   4.607   7.935   8.829  0.3582  0.2211 -0.0178
48866DOD     C190417  11.939  25.109   8.927 -0.2490 -0.1179  0.1525
48866DOD     C290418  11.697  24.777   9.114  0.0174  0.1053  0.1017
48866DOD     C390419  11.606  24.374   8.997 -0.1115 -0.1292  0.0530
48867DOD     C190420  24.540  12.535   0.924 -0.3765 -0.1759  0.1500
48867DOD     C290421  24.280  12.800   0.649 -0.0231 -0.0970  0.0986
48867DOD     C390422  23.906  12.840   0.410 -0.1409  0.2930 -0.2536
48868DOD     C190423   5.374  22.973   6.935 -0.0330  0.0251  0.0984
48868DOD     C290424   5.066  23.111   7.274 -0.3096  0.0507  0.0256
48868DOD     C390425   4.840  23.464   7.612  0.2075  0.2280 -0.2854
48869DOD     C190426  10.812   4.085  27.308 -0.2163  0.1675 -0.0338
48869DOD     C290427  10.462   4.161  26.961 -0.1369 -0.3501  0.1005
48869DOD     C390428  10.232   4.388  26.587 -0.1831  0.1808  0.0272
48870DOD     C190429  19.831  17.794  25.715 -0.0121 -0.0330  0.0851
48870DOD     C290430  20.081  18.124  25.899 -0.4533 -0.0047 -0.1565
48870DOD     C390431  20.509  18.273  26.053 -0.2156 -0.0483 -0.1827
48871DOD     C190432  10.977  16.558   4.345  0.0096 -0.0189 -0.0397
48871DOD     C290433  11.372  16.398   4.472 -0.3813  0.1681 -0.0697
48871DOD     C390434  11.779  16.365   4.660  0.1114  0.1456 -0.3208
48872DOD     C190435  19.460   1.121  26.901  0.2632  0.1021  0.0716
48872DOD     C290436  19.484   0.924  26.483  0.2121 -0.3468  0.1771
48872DOD     C390437  19.524   0.720  26.030  0.2283  0.3488 -0.0837
48873DOD     C190438  18.182  12.602  26.577  0.0780  0.0011 -0.0938
48873DOD     C290439  18.504  12.510  26.251 -0.0614 -0.3265  0.0315
48873DOD     C390440  18.562  12.410  25.765  0.4558  0.1863  0.0442
48874DOD     C190441   9.028   5.681  19.610 -0.0968  0.0038 -0.0200
48874DOD     C290442   8.846   5.493  20.034  0.3267 -0.1337 -0.1507
48874DOD     C390443   8.661   5.245  20.363  0.1488 -0.0245 -0.0813
48875DOD     C190444  15.909   4.720  12.970 -0.0252  0.0701 -0.0282
48875DOD     C290445  15.708   4.588  12.521 -0.2787 -0.1762 -0.0621
48875DOD     C390446  15.432   4.453  12.189 -0.0569  0.1027  0.0374
48876DOD     C190447  13.776  13.172  30.291 -0.1845 -0.2918  0.0875
48876DOD     C290448  13.365  13.054  30.235 -0.1449 -0.3174 -0.1542
48876DOD     C390449  12.999  13.349  30.256 -0.1044 -0.0086 -0.0085
48877DOD     C190450  17.765  15.858   1.520 -0.1036 -0.0491  0.0516
48877DOD     C290451  17.389  15.645   1.744 -0.2595 -0.0233  0.0907
48877DOD     C390452  16.972  15.503   1.601 -0.0144  0.0417  0.0787
48878DOD     C190453   8.700  21.832  23.976 -0.0960 -0.0756 -0.1770
48878DOD     C290454   8.519  22.002  23.572  0.1602  0.1641  0.0684
48878DOD     C390455   8.809  21.995  23.276  0.0126  0.3587  0.0770
48879DOD     C190456  17.299  28.960   5.832  0.0456 -0.0112  0.0892
48879DOD     C290457  17.339  28.639   6.243  0.0941  0.0069 -0.1448
48879DOD     C390458  17.126  28.280   6.461  0.1608  0.0340  0.2044
48880DOD     C190459  20.313  15.848  14.941  0.0576 -0.2469  0.2091
48880DOD     C290460  20.570  15.606  15.251  0.0634 -0.0924 -0.0653
48880DOD     C390461  20.618  15.441  15.672 -0.2114 -0.2534 -0.1053
48881DOD     C190462  21.778   7.098   1.326 -0.1383  0.2061 -0.0938
48881DOD     C290463  21.874   7.138   0.904  0.0546 -0.3257 -0.2726
48881DOD     C390464  22.036   7.538   0.662 -0.0539 -0.3942  0.0190
48882DOD     C190465   3.775   8.148   2.049 -0.4089  0.0683 -0.0357
48882DOD     C290466   3.573   8.172   2.469 -0.1597  0.0808 -0.0351
48882DOD     C390467   3.397   8.444   2.816 -0.3424  0.1025 -0.0394
48883DOD     C190468  18.953  13.093   6.456 -0.0683  0.0334 -0.0439
48883DOD     C290469  19.277  13.374   6.274  0.2055 -0.1245  0.0473
48883DOD     C390470  19.506  13.367   5.872 -0.2901 -0.0790  0.1598
48884DOD     C190471   5.992  21.091   6.582 -0.1153 -0.0599 -0.2183
48884DOD     C290472   5.793  20.759   6.297 -0.4948  0.0047 -0.1803
48884DOD     C390473   5.484  20.789   5.938  0.0451  0.1561 -0.0371
48885DOD     C190474   1.525  12.058  22.131 -0.2514 -0.0188  0.0871
48885DOD     C290475   1.453  12.109  22.607 -0.1970  0.1692 -0.1735
48885DOD     C390476   1.332  12.077  23.038  0.2250 -0.1568 -0.2806
48886DOD     C190477  26.494  16.984  17.991 -0.1059  0.0608  0.0973
48886DOD     C290478  26.869  16.998  17.825  0.1506 -0.0770 -0.2638
48886DOD     C390479  27.284  16.768  17.775 -0.0747  0.2706 -0.0695
48887DOD     C190480  21.662   9.918  23.025 -0.3204  0.3855  0.0746
48887DOD     C290481  21.664   9.926  22.579 -0.3884  0.0028  0.2633
48887DOD     C390482  21.722   9.979  22.129  0.0526  0.0136  0.1590
48888DOD     C190483   9.505  21.604  13.362 -0.0138 -0.1276  0.0229
48888DOD     C290484   9.116  21.815  13.555 -0.2228 -0.1972  0.0607
48888DOD     C390485   8.870  21.999  13.838 -0.0422 -0.2017 -0.1099
48889DOD     C190486  21.543  25.230   5.958 -0.1979  0.1475 -0.0675
48889DOD     C290487  21.185  25.160   6.219  0.0543  0.0603 -0.1451
48889DOD     C390488  20.752  25.334   6.357 -0.1342 -0.0594 -0.1597
48890DOD     C190489   7.353   5.126   8.325  0.0987 -0.2358 -0.3036
48890DOD     C290490   7.321   5.036   7.876  0.1325  0.3229  0.1041
48890DOD     C390491   7.730   4.888   7.592  0.2462 -0.1892  0.0703
48891DOD     C190492  19.111  21.375   4.747  0.0333 -0.0322 -0.1551
48891DOD     C290493  19.485  21.618   5.000 -0.0973 -0.0719 -0.0483
48891DOD     C390494  19.822  21.687   5.323 -0.1191 -0.0595  0.2834
48892DOD     C190495  11.025  26.300   6.167 -0.1117 -0.3513 -0.2830
48892DOD     C290496  10.601  26.164   6.019  0.0347  0.2416 -0.2189
48892DOD     C390497  10.462  26.102   5.631 -0.4073  0.4200 -0.1704
48893DOD     C190498  29.067  10.254  13.025 -0.1793 -0.0882 -0.2382
48893DOD     C290499  28.661  10.439  12.915 -0.0752  0.0236  0.0497
48893DOD     C390500  28.274  10.555  12.948 -0.1053 -0.3162 -0.1557
48894DOD     C190501   1.789  22.843  10.716 -0.0942  0.1041 -0.0262
48894DOD     C290502   2.140  22.617  10.931 -0.0473 -0.1208 -0.3665
48894DOD     C390503   2.281  22.184  11.124 -0.2283 -0.0486  0.1410
48895DOD     C190504  27.518  27.942  29.454 -0.1479  0.0682 -0.0365
48895DOD     C290505  27.483  27.899  28.963 -0.0722 -0.0152 -0.0274
48895DOD     C390506  27.550  28.012  28.510  0.0267  0.0147  0.1598
48896DOD     C190507  11.790  29.845  28.472  0.1253  0.0993 -0.1547
48896DOD     C290508  11.659  30.226  28.634  0.2573  0.2250 -0.0024
48896DOD     C390509  11.725   0.292  28.797  0.0866 -0.0793 -0.1540
48897DOD     C190510   7.739  29.778  11.859 -0.0410 -0.2528  0.0947
48897DOD     C290511   8.031  29.632  12.182  0.0797  0.1685  0.1134
48897DOD     C390512   8.433  29.529  12.366 -0.0129  0.0295 -0.1487
48898DOD     C190513   4.724  18.188   6.901 -0.1277  0.0671  0.1942
48898DOD     C290514   4.239  18.243   6.839 -0.1752  0.1462  0.0324
48898DOD     C390515   3.945  18.467   7.100  0.0054 -0.0726 -0.1687
48899DOD     C190516   0.498  17.132  18.275  0.0270  0.3877 -0.0436
48899DOD     C290517   0.303  16.969  17.882 -0.0175 -0.1022 -0.2791
48899DOD     C390518  30.250  16.962  17.609 -0.2555  0.1635 -0.0504
48900DOD     C190519   1.825  15.250  12.649 -0.2747  0.2932 -0.1268
48900DOD     C290520   1.427  15.503  12.595  0.0704  0.0683  0.0941
48900DOD     C390521   1.031  15.733  12.594 -0.3119 -0.0220 -0.1370
48901DOD     C190522  10.328  30.139  25.320  0.0878 -0.1096  0.0561
48901DOD     C290523  10.656   0.073  25.189 -0.0898 -0.3675  0.0947
48901DOD     C390524  11.031   0.317  25.358  0.0267  0.2466  0.0901
48902DOD     C190525  17.737  19.111   5.642  0.1158  0.0614  0.0038
48902DOD     C290526  17.748  19.447   5.994  0.0734  0.1107  0.2477
48902DOD     C390527  17.614  19.720   6.328 -0.0990  0.0076  0.2520
48903DOD     C190528   9.279  27.450  18.053 -0.1052 -0.2310 -0.0175
48903DOD     C290529   9.503  27.199  17.785 -0.1724  0.1882  0.1023
48903DOD     C390530   9.969  27.113  17.790 -0.1229 -0.2894  0.1215
48904DOD     C190531  22.291  25.515   0.554  0.1112 -0.3464  0.1139
48904DOD     C290532  22.637  25.647   0.285  0.0904 -0.0629  0.0453
48904DOD     C390533  23.009  25.640   0.013  0.1606  0.0459 -0.2671
48905DOD     C190534  28.700   8.693   8.291  0.3295  0.1701  0.4765
48905DOD     C290535  28.297   8.477   8.177 -0.0574  0.0386 -0.0724
48905DOD     C390536  27.908   8.639   8.004 -0.0703 -0.0738  0.2254
48906DOD     C190537  26.540   4.731  30.019 -0.2494  0.2938  0.0086
48906DOD     C290538  26.554   4.768   0.168 -0.0555  0.1856 -0.0289
48906DOD     C390539  26.236   4.813   0.527  0.2112  0.0721  0.0156
48907DOD     C190540   2.504  18.713  18.434 -0.0751  0.1869  0.0503
48907DOD     C290541   2.578  18.401  18.814 -0.3556 -0.0540  0.0800
48907DOD     C390542   2.583  17.945  18.843 -0.1678 -0.1418 -0.2030
48908DOD     C190543  20.780   6.305   0.048 -0.0600 -0.0070  0.0113
48908DOD     C290544  21.071   6.663  30.205  0.0338 -0.0587  0.1597
48908DOD     C390545  21.295   7.047  30.055 -0.2301 -0.0523  0.0773
48909DOD     C190546   4.118  24.790   8.841  0.3375  0.0170 -0.4229
48909DOD     C290547   3.695  24.706   8.730 -0.0277 -0.0209 -0.0056
48909DOD     C390548   3.196  24.667   8.845  0.1242 -0.0319 -0.1109
48910DOD     C190549  25.943  29.315  14.926 -0.0195  0.2301 -0.0067
48910DOD     C290550  25.932  29.728  14.755 -0.0852  0.0994  0.6174
48910DOD     C390551  26.104  29.869  14.359 -0.0029  0.1050  0.0209
48911DOD     C190552   7.574   0.835  15.048 -0.0996  0.1053 -0.1239
48911DOD     C290553   7.290   0.483  14.831  0.0074  0.3563  0.1106
48911DOD     C390554   6.995   0.143  14.529 -0.1684 -0.0492 -0.2554
48912DOD     C190555   9.909  28.701  11.536 -0.0350  0.1407  0.1054
48912DOD     C290556  10.068  28.679  11.090  0.0175  0.1649 -0.0205
48912DOD     C390557  10.218  28.509  10.688 -0.3337 -0.0091  0.3233
48913DOD     C190558  18.115  30.264  22.165  0.0308 -0.1414 -0.1090
48913DOD     C290559  18.041   0.383  22.070  0.2216 -0.1603 -0.2219
48913DOD     C390560  17.731   0.645  21.845  0.0412  0.2310  0.0134
48914DOD     C190561   3.965  21.657  20.919 -0.0616 -0.2029 -0.0877
48914DOD     C290562   3.716  21.739  20.534 -0.3947 -0.1524 -0.0400
48914DOD     C390563   3.766  21.473  20.160  0.3429  0.1473  0.2553
48915DOD     C190564  14.307  13.975  25.478  0.1601 -0.0520 -0.0945
48915DOD     C290565  14.051  14.230  25.164 -0.0400 -0.4547 -0.0985
48915DOD     C390566  14.145  14.630  24.876  0.0912  0.1700 -0.2852
48916DOD     C190567  28.069  23.143  26.772 -0.3365  0.2451  0.2065
48916DOD     C290568  28.371  22.871  26.988  0.1145  0.0350  0.1103
48916DOD     C390569  28.833  22.883  26.921  0.1331  0.4754  0.0113
48917DOD     C190570  20.157   8.637  29.490 -0.1407  0.2008 -0.2328
48917DOD     C290571  19.756   8.813  29.545  0.1487 -0.0328 -0.4273
48917DOD     C390572  19.331   8.671  29.549 -0.0796  0.3737  0.3185
48918DOD     C190573   5.014   4.322  27.504 -0.1546 -0.0130 -0.0097
48918DOD     C290574   4.841   3.884  27.446  0.2127  0.0668  0.1269
48918DOD     C390575   4.805   3.427  27.393  0.0509 -0.2475 -0.0859
48919DOD     C190576  25.468  19.492   6.078  0.3607 -0.0288 -0.0700
48919DOD     C290577  25.122  19.741   6.021  0.3369 -0.1041 -0.0612
48919DOD     C390578  24.641  19.893   6.083 -0.0989 -0.0308  0.1866
48920DOD     C190579   1.123   4.822  19.193 -0.1668 -0.1344 -0.1453
48920DOD     C290580   1.440   4.994  19.484 -0.0702  0.2477  0.1118
48920DOD     C390581   1.574   5.076  19.912 -0.4112 -0.2630 -0.2211
48921DOD     C190582  19.646   0.339   9.060  0.1130 -0.2091  0.0529
48921DOD     C290583  19.343   0.572   9.253 -0.0773  0.0767 -0.3007
48921DOD     C390584  19.017   0.728   9.549  0.0394 -0.2075  0.2176
48922DOD     C190585  13.862  19.861   3.619 -0.0605  0.1847 -0.0024
48922DOD     C290586  13.960  20.163   3.301  0.1762 -0.0479 -0.0343
48922DOD     C390587  14.117  20.231   2.833 -0.0984 -0.0537 -0.4826
48923DOD     C190588   1.231  27.438  19.245 -0.0307 -0.0950  0.1020
48923DOD     C290589   1.111  27.257  19.638 -0.2752 -0.0390 -0.1405
48923DOD     C390590   0.971  26.942  19.936  0.1201 -0.0166  0.1667
48924DOD     C190591  10.011   2.851  27.941 -0.0392  0.3001 -0.1046
48924DOD     C290592   9.651   2.672  27.683 -0.0576 -0.3935 -0.0551
48924DOD     C390593   9.398   2.379  27.485 -0.0627  0.1172  0.0176
48925DOD     C190594  27.218  23.390   7.183 -0.1895  0.1189 -0.2024
48925DOD     C290595  26.877  23.119   7.115 -0.1129  0.3875  0.1389
48925DOD     C390596  26.449  23.052   7.101  0.0878 -0.0542 -0.0735
48926DOD     C190597   3.465   7.450  17.298 -0.1644 -0.0446  0.0312
48926DOD     C290598   3.839   7.162  17.369  0.2300 -0.2878 -0.0863
48926DOD     C390599   4.033   7.164  17.804 -0.0099  0.0343 -0.0066
48927DOD     C190600  14.898   8.495   9.467  0.1130  0.1144  0.0786
48927DOD     C290601  14.939   8.497   8.997 -0.2028  0.0242 -0.1522
48927DOD     C390602  15.014   8.811   8.654 -0.0965  0.0089  0.1753
48928DOD     C190603  27.929  18.733   7.422 -0.0667  0.0370  0.0944
48928DOD     C290604  27.989  19.143   7.300 -0.0794  0.1344  0.0223
48928DOD     C390605  28.146  19.545   7.418  0.0550  0.1210 -0.0218
48929DOD     C190606   3.991   4.180   6.211 -0.2812  0.1299  0.3584
48929DOD     C290607   3.571   4.056   6.003 -0.0204 -0.0778  0.2222
48929DOD     C390608   3.252   3.951   6.278 -0.0205  0.0570  0.1428
48930DOD     C190609  11.329  20.166  23.030  0.1000  0.1136 -0.3523
48930DOD     C290610  11.525  20.013  22.673  0.3105 -0.0369  0.1199
48930DOD     C390611  11.882  19.905  22.331 -0.0469  0.3696  0.2381
48931DOD     C190612  10.765  23.622  20.761  0.2432  0.0100 -0.1229
48931DOD     C290613  10.672  23.881  20.393 -0.1247 -0.1077 -0.2388
48931DOD     C390614  10.981  24.013  20.078  0.0433 -0.0939  0.2163
48932DOD     C190615   5.325   3.825  14.028 -0.1886 -0.1274  0.1224
48932DOD     C290616   5.073   3.545  13.635 -0.1846 -0.0762 -0.0510
48932DOD     C390617   4.674   3.329  13.680 -0.3436 -0.0643 -0.3183
48933DOD     C190618   3.038  15.806  23.720  0.2303  0.2932 -0.0944
48933DOD     C290619   2.899  15.874  23.322  0.0713  0.0110  0.0757
48933DOD     C390620   2.779  16.287  23.103 -0.3283 -0.1565 -0.2805
48934DOD     C190621   5.789   8.370  20.829  0.0034  0.1818 -0.0930
48934DOD     C290622   5.924   8.727  20.620 -0.2003  0.2797  0.2196
48934DOD     C390623   6.297   8.961  20.671  0.1555 -0.0743  0.0802
48935DOD     C190624   1.654   7.648  26.513 -0.2194  0.0155 -0.0741
48935DOD     C290625   1.369   7.275  26.475 -0.1501 -0.4242  0.0429
48935DOD     C390626   1.084   7.037  26.148  0.1602  0.0142  0.0286
48936DOD     C190627   9.558  13.005  13.972  0.0300 -0.2571 -0.2139
48936DOD     C290628   9.822  12.705  14.137  0.0382  0.1862 -0.0972
48936DOD     C390629   9.908  12.222  14.138  0.2308 -0.1429  0.1483
48937DOD     C190630  22.122  18.398   6.792  0.1367 -0.0377 -0.0768
48937DOD     C290631  22.234  18.092   7.154  0.0909 -0.0002  0.1642
48937DOD     C390632  21.967  17.961   7.505 -0.1817 -0.1301 -0.1444
48938DOD     C190633  28.972   4.418   5.126  0.3872  0.0817  0.5116
48938DOD     C290634  28.975   4.543   5.612 -0.3804  0.0568 -0.0491
48938DOD     C390635  28.856   4.921   5.866  0.0733  0.0350  0.1611
48939DOD     C190636   2.590   0.314  19.583  0.2838 -0.0302  0.0249
48939DOD     C290637   2.254   0.606  19.511  0.2660 -0.0002  0.0473
48939DOD     C390638   1.812   0.719  19.626  0.0019  0.0880  0.2348
48940DOD     C190639   2.822  16.182  14.027  0.1597 -0.0692  0.2541
48940DOD     C290640   3.025  16.239  13.592 -0.3069  0.0200 -0.0465
48940DOD     C390641   3.038  16.569  13.236 -0.1197 -0.0077  0.0399
48941DOD     C190642  12.230   0.027   6.826  0.1433  0.0991 -0.3718
48941DOD     C290643  11.946   0.261   6.522  0.2143  0.0629 -0.1113
48941DOD     C390644  11.773   0.419   6.099  0.0630  0.0536 -0.3233
48942DOD     C190645  15.622  13.750  27.087  0.3551 -0.1392 -0.2674
48942DOD     C290646  15.381  13.702  26.699  0.2465 -0.2403  0.1873
48942DOD     C390647  15.306  13.516  26.343 -0.1868 -0.0440  0.2601
48943DOD     C190648  14.881  15.390  29.292  0.0472  0.0216  0.2793
48943DOD     C290649  14.445  15.573  29.475  0.1569  0.3566  0.0361
48943DOD     C390650  14.285  15.296  29.849  0.0179  0.0781 -0.1875
48944DOD     C190651  15.524  12.280  21.676 -0.1727 -0.2898  0.0157
48944DOD     C290652  15.195  12.328  21.376  0.0335  0.2526 -0.4986
48944DOD     C390653  14.845  12.071  21.245  0.3132 -0.0158 -0.2094
48945DOD     C190654  28.419   0.471  12.606 -0.1224  0.2468 -0.2507
48945DOD     C290655  28.341   0.124  12.289 -0.1125 -0.1548 -0.4007
48945DOD     C390656  27.838   0.027  12.249 -0.1167 -0.2056  0.1391
48946DOD     C190657   9.405   1.108  12.482 -0.2140 -0.0739  0.2887
48946DOD     C290658   9.399   1.563  12.445  0.1135  0.1083 -0.0043
48946DOD     C390659   9.451   1.980  12.621 -0.0874 -0.0487 -0.2437
48947DOD     C190660  22.896  26.134  25.357  0.1444 -0.0132  0.2264
48947DOD     C290661  22.694  26.571  25.276  0.1142 -0.1737  0.0001
48947DOD     C390662  22.771  26.712  24.871  0.3012  0.1263  0.2927
48948DOD     C190663  28.655   1.808   4.523 -0.0932 -0.0030 -0.2854
48948DOD     C290664  28.963   1.879   4.843  0.0374  0.1359  0.0124
48948DOD     C390665  29.300   1.889   5.157 -0.1041 -0.1040 -0.1143
48949DOD     C190666  23.677   0.094  29.294  0.0864 -0.0054 -0.2119
48949DOD     C290667  23.770  30.145  29.692  0.1885  0.0169  0.1972
48949DOD     C390668  23.834  29.747  29.938  0.0911 -0.0504  0.6711
48950DOD     C190669  16.202  11.993   0.918  0.1429  0.0315  0.1089
48950DOD     C290670  16.158  11.509   0.788  0.2766 -0.1203 -0.1626
48950DOD     C390671  16.395  11.155   1.037 -0.0012 -0.1891  0.3045
48951DOD     C190672  10.455   7.195   8.697  0.0959  0.0537 -0.1190
48951DOD     C290673  10.378   7.609   8.930 -0.1934 -0.0989  0.3794
48951DOD     C390674  10.195   7.872   9.231  0.1873  0.1065  0.2315
48952DOD     C190675  16.888  14.697   8.439  0.0035  0.2882 -0.0371
48952DOD     C290676  16.617  14.525   8.733  0.1931  0.0478  0.1377
48952DOD     C390677  16.423  14.480   9.137  0.2723  0.0740  0.1081
48953DOD     C190678  25.050  17.963   5.308 -0.0282 -0.0181 -0.2830
48953DOD     C290679  24.825  17.645   5.526  0.1802  0.2964 -0.4643
48953DOD     C390680  24.572  17.588   5.872  0.0079 -0.0657 -0.0998
48954DOD     C190681  22.859   4.893  21.977  0.0177 -0.0764 -0.0642
48954DOD     C290682  22.769   5.154  22.367  0.1561 -0.1067 -0.0389
48954DOD     C390683  22.734   5.497  22.696 -0.1203 -0.1309  0.0060
48955DOD     C190684  19.554  25.775  27.218  0.1935  0.0392  0.0890
48955DOD     C290685  19.099  25.901  27.045 -0.2227  0.1165  0.1792
48955DOD     C390686  18.706  25.655  27.039 -0.4106 -0.1161 -0.0483
48956DOD     C190687   8.330  12.366   8.611  0.1583 -0.2372  0.2813
48956DOD     C290688   8.743  12.287   8.884  0.0968  0.1085 -0.0494
48956DOD     C390689   8.989  12.451   9.256 -0.0755  0.1377 -0.2463
48957DOD     C190690  24.238  19.893  25.531  0.1433  0.0413  0.1292
48957DOD     C290691  24.380  19.547  25.879  0.3931  0.3621  0.0635
48957DOD     C390692  24.125  19.201  26.141 -0.0557  0.1123  0.0741
48958DOD     C190693  24.252   7.286  25.919  0.0854 -0.0609  0.2596
48958DOD     C290694  23.910   7.453  26.268  0.2492 -0.1739  0.1968
48958DOD     C390695  23.551   7.306  26.515 -0.1995  0.0517  0.2241
48959DOD     C190696  19.286   2.960  24.365  0.2636  0.0939  0.0233
48959DOD     C290697  19.143   3.408  24.298 -0.0118  0.1211 -0.4526
48959DOD     C390698  19.394   3.782  24.517  0.2118  0.0673 -0.0693
48960DOD     C190699  25.158  16.532  12.735 -0.1718 -0.1092  0.1415
48960DOD     C290700  25.331  16.224  12.456 -0.0054  0.1291 -0.2388
48960DOD     C390701  25.581  16.051  12.100 -0.0679 -0.0016  0.0252
48961DOD     C190702   3.830  29.499  11.398 -0.1415  0.1318 -0.5389
48961DOD     C290703   4.265  29.652  11.459  0.1932  0.0469 -0.2278
48961DOD     C390704   4.637  29.724  11.301 -0.1895 -0.1444  0.2538
48962DOD     C190705   7.616  19.476  10.969  0.0633  0.4218  0.3092
48962DOD     C290706   7.388  19.372  10.563  0.4987  0.1198  0.2223
48962DOD     C390707   7.300  19.290  10.097 -0.0535  0.2259  0.2255
48963DOD     C190708  17.651  23.246  14.753 -0.2015  0.1222  0.1846
48963DOD     C290709  17.761  22.815  14.678  0.1329 -0.3739  0.1152
48963DOD     C390710  18.007  22.632  14.335 -0.4177  0.0052 -0.2380
48964DOD     C190711  24.061   6.850  20.881  0.1911  0.2581  0.0052
48964DOD     C290712  24.241   6.472  21.110 -0.0674 -0.0225  0.1204
48964DOD     C390713  24.619   6.108  21.222  0.1673 -0.0350 -0.3453
48965DOD     C190714  16.101  23.975  30.244 -0.0361 -0.0540  0.0434
48965DOD     C290715  16.502  24.162   0.016  0.0939 -0.0893 -0.0090
48965DOD     C390716  16.947  24.246   0.067  0.0706  0.1039 -0.1675
48966DOD     C190717   5.785  13.214   7.764  0.0239 -0.1647 -0.1707
48966DOD     C290718   5.998  13.110   8.181 -0.1229 -0.2548  0.2288
48966DOD     C390719   6.082  13.268   8.621 -0.4026  0.1699 -0.1116
48967DOD     C190720  28.632  25.720   2.838  0.1261 -0.0765 -0.0028
48967DOD     C290721  28.218  25.987   2.658  0.1791  0.0629  0.1337
48967DOD     C390722  27.781  26.174   2.721  0.1189 -0.2100 -0.0209
48968DOD     C190723  29.280  23.737   2.554 -0.1187 -0.0786  0.2973
48968DOD     C290724  29.311  23.408   2.202 -0.1413  0.1836 -0.1789
48968DOD     C390725  29.536  23.099   1.882  0.1154  0.1425 -0.0820
48969DOD     C190726   9.277   3.458  16.283  0.2203 -0.1082  0.2274
48969DOD     C290727   9.256   3.621  15.815 -0.3314 -0.1215  0.3091
48969DOD     C390728   9.114   3.924  15.538  0.0759  0.4045 -0.1308
48970DOD     C190729   0.809   7.080   0.330 -0.0503 -0.1176 -0.1083
48970DOD     C290730   1.066   7.142   0.683  0.0067  0.2129 -0.1208
48970DOD     C390731   1.155   7.462   0.991  0.3701  0.1067 -0.3570
48971DOD     C190732   5.951  11.300  14.661 -0.1144  0.0152  0.0607
48971DOD     C290733   6.406  11.301  14.607  0.1735  0.1262 -0.0912
48971DOD     C390734   6.805  11.316  14.367 -0.2418  0.1599  0.1115
48972DOD     C190735  15.555  18.010  27.402 -0.1259  0.3665  0.0578
48972DOD     C290736  15.921  18.097  27.164 -0.0615 -0.3197  0.1457
48972DOD     C390737  16.054  18.176  26.761 -0.1905  0.0447  0.1773
48973DOD     C190738  13.780  27.086  25.313 -0.2546 -0.2147 -0.2960
48973DOD     C290739  13.411  26.942  25.523  0.1594 -0.0624  0.2346
48973DOD     C390740  13.002  27.198  25.530  0.2087 -0.0185  0.4662
48974DOD     C190741  23.976   5.401  21.487  0.0567  0.0550  0.4197
48974DOD     C290742  23.628   5.537  21.821  0.1754 -0.0226 -0.1005
48974DOD     C390743  23.257   5.533  22.112 -0.0075 -0.0926 -0.0342
48975DOD     C190744  10.702  22.569  14.455  0.1622  0.1343  0.0940
48975DOD     C290745  10.617  22.383  14.879 -0.0716  0.1051 -0.2160
48975DOD     C390746  10.436  22.153  15.234 -0.0644 -0.2481  0.1994
48976DOD     C190747   9.886   9.276   7.127  0.0984 -0.0363  0.0082
48976DOD     C290748   9.531   9.600   7.180 -0.0540  0.1252  0.2593
48976DOD     C390749   9.209   9.874   7.057  0.0146 -0.0623 -0.0063
48977DOD     C190750  19.611  22.520  28.332 -0.0596 -0.0033  0.1562
48977DOD     C290751  19.669  22.862  28.699  0.1631 -0.1502  0.1033
48977DOD     C390752  19.638  23.079  29.131 -0.2624  0.0767  0.2487
48978DOD     C190753   7.078   7.616  24.504 -0.0041  0.0994 -0.1712
48978DOD     C290754   7.203   7.321  24.162 -0.2311 -0.0161 -0.1872
48978DOD     C390755   7.337   6.953  23.915  0.0486  0.0733 -0.1260
48979DOD     C190756  29.874  18.562   9.677  0.1147  0.0424  0.3363
48979DOD     C290757  29.481  18.678   9.430 -0.0040  0.0249  0.1289
48979DOD     C390758  29.040  18.619   9.238  0.0370  0.0658 -0.0422
48980DOD     C190759  26.510   3.345  28.647  0.0038  0.2497  0.3327
48980DOD     C290760  26.319   3.218  29.019  0.0889 -0.3983  0.1579
48980DOD     C390761  26.258   3.429  29.457  0.0638  0.0304  0.4608
48981DOD     C190762   6.765   8.104  26.293  0.0971 -0.3148 -0.0938
48981DOD     C290763   6.731   8.532  26.060  0.3799  0.0336  0.0168
48981DOD     C390764   6.807   8.833  25.663  0.4094 -0.2225  0.1645
48982DOD     C190765  28.568   8.672   3.830  0.2530  0.0193  0.2942
48982DOD     C290766  28.166   8.658   3.559  0.0925  0.1028  0.0144
48982DOD     C390767  27.685   8.688   3.425  0.1109 -0.1726 -0.1284
48983DOD     C190768  22.724  22.182  17.970  0.1474  0.3606  0.0793
48983DOD     C290769  22.896  21.718  18.027 -0.1485 -0.3832 -0.0468
48983DOD     C390770  23.080  21.488  18.445  0.0060 -0.0425  0.1360
48984DOD     C190771  26.542  26.253  14.706  0.2062 -0.3619  0.1619
48984DOD     C290772  26.439  25.988  14.320 -0.0764 -0.1148 -0.1200
48984DOD     C390773  26.478  25.663  14.023 -0.3373  0.2215 -0.0094
48985DOD     C190774   4.033   9.224   7.896 -0.0344 -0.0019  0.1883
48985DOD     C290775   3.597   9.429   7.929  0.3320  0.2425 -0.1038
48985DOD     C390776   3.565   9.879   8.087  0.0332 -0.3777 -0.3355
48986DOD     C190777  14.810  17.271  26.283  0.2635 -0.0539  0.2653
48986DOD     C290778  14.387  17.114  26.357  0.1479 -0.3990 -0.0647
48986DOD     C390779  14.048  16.784  26.294 -0.0798 -0.0306  0.1059
48987DOD     C190780  16.841   3.471  20.769 -0.2345  0.1554  0.0025
48987DOD     C290781  16.468   3.539  21.096  0.0211  0.0156  0.0177
48987DOD     C390782  16.123   3.607  21.388  0.3774 -0.0438 -0.0516
48988DOD     C190783  28.628   3.738  25.492  0.1405 -0.1013  0.3857
48988DOD     C290784  28.325   3.878  25.764 -0.1380  0.1194 -0.2279
48988DOD     C390785  27.990   3.997  26.071 -0.2273 -0.1117  0.1561
48989DOD     C190786  24.691  19.301  29.699  0.1312 -0.0826  0.1629
48989DOD     C290787  25.019  19.332  29.395 -0.1516  0.1416  0.0105
48989DOD     C390788  25.348  19.632  29.254 -0.0064  0.2237  0.0125
48990DOD     C190789  18.922  23.949   1.904 -0.2380  0.1926  0.1436
48990DOD     C290790  18.538  23.828   2.096  0.5034 -0.1321 -0.2292
48990DOD     C390791  18.117  23.769   2.202  0.1558 -0.1116  0.4349
48991DOD     C190792  29.096  30.291  13.610  0.0992  0.3992 -0.1741
48991DOD     C290793  28.712  29.942  13.565 -0.1938  0.1039 -0.2571
48991DOD     C390794  28.316  29.675  13.450 -0.0450 -0.0309 -0.1092
48992DOD     C190795  20.294  27.256  21.419 -0.0541  0.0805 -0.1098
48992DOD     C290796  20.558  27.528  21.718 -0.0684  0.2000 -0.1010
48992DOD     C390797  20.907  27.766  21.928 -0.0221 -0.3921 -0.1120
48993DOD     C190798  17.623  21.207   3.629 -0.2279  0.0115  0.0134
48993DOD     C290799  17.494  21.570   3.914 -0.0450 -0.1748  0.0062
48993DOD     C390800  17.401  21.922   4.236 -0.1051  0.0001 -0.3323
48994DOD     C190801  24.976   5.907   9.998 -0.0266 -0.1514 -0.0101
48994DOD     C290802  25.337   6.207   9.869 -0.2430  0.0844 -0.0870
48994DOD     C390803  25.615   6.164   9.496  0.1145 -0.0705 -0.3623
48995DOD     C190804  25.244   1.801   0.648  0.3153 -0.0926  0.1760
48995DOD     C290805  25.282   1.334   0.624 -0.0654  0.1405  0.1649
48995DOD     C390806  25.311   0.931   0.889 -0.1466  0.0488  0.1948
48996DOD     C190807  12.424   6.538   6.283 -0.0727 -0.0465 -0.0132
48996DOD     C290808  12.780   6.203   6.344 -0.0032 -0.0189  0.0100
48996DOD     C390809  12.924   5.999   6.729 -0.1599 -0.1482  0.1600
48997DOD     C190810  17.400  12.136   0.536  0.0306 -0.0213  0.2278
48997DOD     C290811  17.525  12.454   0.840  0.0076 -0.0342  0.0213
48997DOD     C390812  17.879  12.586   1.019 -0.0997  0.5209  0.0143
48998DOD     C190813   4.362  25.826  17.166  0.5354 -0.1100  0.0969
48998DOD     C290814   4.440  26.288  17.210  0.6104 -0.0915 -0.3926
48998DOD     C390815   4.399  26.681  17.504 -0.1242  0.1927  0.0289
48999DOD     C190816  28.376  16.559  14.772 -0.3963  0.1369 -0.0104
48999DOD     C290817  27.958  16.398  15.011 -0.2703 -0.2731 -0.2107
48999DOD     C390818  27.805  16.169  15.419  0.0700  0.4481  0.0711
49000DOD     C190819  20.368  12.476  27.486  0.3162  0.1232 -0.0068
49000DOD     C290820  19.907  12.555  27.677  0.0040  0.0985 -0.1761
49000DOD     C390821  19.594  12.547  28.008  0.2276  0.4463  0.0614
49001DOD     C190822  26.856  10.039  29.017  0.1287 -0.3522  0.2112
49001DOD     C290823  26.396  10.236  29.064  0.0664  0.4064  0.0623
49001DOD     C390824  26.258  10.686  29.116 -0.1901 -0.3211 -0.1122
49002DOD     C190825  23.185  19.914  17.100 -0.1022  0.1058 -0.1094
49002DOD     C290826  23.492  19.538  17.158 -0.2473  0.0944  0.3603
49002DOD     C390827  23.921  19.356  17.127 -0.1745  0.0876 -0.2232
49003DOD     C190828  15.433   9.493  14.206 -0.1747  0.0679 -0.1013
49003DOD     C290829  15.525   9.908  14.058  0.0957  0.0179  0.3725
49003DOD     C390830  15.945  10.068  13.977 -0.1593  0.1364  0.0429
49004DOD     C190831  22.460   6.657  21.906 -0.2105 -0.2709  0.0741
49004DOD     C290832  22.210   6.668  22.346  0.0068  0.1192 -0.0770
49004DOD     C390833  21.798   6.817  22.629  0.0264 -0.1535 -0.1249
49005DOD     C190834  17.149  21.839   4.655  0.0749 -0.1025 -0.2300
49005DOD     C290835  17.128  22.155   4.927 -0.1076 -0.1132  0.0774
49005DOD     C390836  17.418  22.548   4.831  0.0579  0.1510 -0.1229
49006DOD     C190837  20.723   8.479  10.785 -0.2340  0.0220 -0.1516
49006DOD     C290838  20.528   8.064  10.892 -0.1085 -0.0324  0.3121
49006DOD     C390839  20.241   7.832  11.145  0.1401 -0.2722 -0.1766
49007DOD     C190840  20.871   8.125  26.291  0.3033  0.0339  0.0372
49007DOD     C290841  20.988   7.958  26.693  0.0710 -0.0599 -0.0107
49007DOD     C390842  21.065   8.165  27.119  0.0934  0.3629  0.2853
49008DOD     C190843  15.037  22.274  13.050 -0.1684 -0.1564  0.0819
49008DOD     C290844  15.399  22.158  12.840  0.2080  0.0169 -0.3466
49008DOD     C390845  15.715  21.866  12.653 -0.0319 -0.0068  0.0226
49009DOD     C190846  25.195  12.100   8.542  0.4426 -0.0307 -0.3248
49009DOD     C290847  25.369  12.386   8.240 -0.2039 -0.1263 -0.0227
49009DOD     C390848  25.515  12.620   7.906  0.3302 -0.1412  0.1722
49010DOD     C190849  28.868   3.995   8.649  0.1617  0.2306 -0.2657
49010DOD     C290850  29.131   4.021   8.233  0.0984 -0.1478 -0.0409
49010DOD     C390851  29.171   4.196   7.826 -0.2284 -0.0125 -0.2351
49011DOD     C190852   9.513   5.914  22.409  0.1663 -0.0185 -0.0339
49011DOD     C290853   9.930   6.152  22.542 -0.0088 -0.2989 -0.1324
49011DOD     C390854  10.249   6.499  22.475  0.2516 -0.0018 -0.0355
49012DOD     C190855  18.740   8.170   5.830 -0.0045  0.1137  0.1015
49012DOD     C290856  18.919   8.106   5.456  0.0156  0.0703 -0.1091
49012DOD     C390857  19.047   8.300   5.130  0.2486  0.2034 -0.1736
49013DOD     C190858   8.508  17.525  13.841 -0.0112 -0.0429 -0.2705
49013DOD     C290859   8.793  17.428  13.455  0.2155  0.0892  0.0537
49013DOD     C390860   9.005  17.727  13.133 -0.0339  0.1162  0.0206
49014DOD     C190861  27.397  19.231  20.510 -0.2508 -0.0347 -0.0598
49014DOD     C290862  27.569  18.871  20.784  0.0225  0.0571  0.0927
49014DOD     C390863  27.667  18.529  21.068 -0.2136 -0.4129  0.0386
49015DOD     C190864  23.547  10.297  11.495  0.0571  0.0130  0.2045
49015DOD     C290865  23.839  10.467  11.838 -0.1776 -0.1214 -0.1305
49015DOD     C390866  24.070  10.196  12.157 -0.0814  0.2042 -0.1513
49016DOD     C190867  13.604  20.180   7.958 -0.1254  0.0253 -0.0337
49016DOD     C290868  13.454  20.315   7.517  0.2351 -0.1193  0.0866
49016DOD     C390869  13.188  20.059   7.214  0.0238  0.1928  0.3658
49017DOD     C190870   8.588   5.863  16.525  0.0580 -0.2596  0.0208
49017DOD     C290871   8.368   6.266  16.469  0.4817  0.2222 -0.1550
49017DOD     C390872   8.535   6.691  16.217 -0.2955  0.0275 -0.2248
49018DOD     C190873  18.426  21.335  11.204  0.2725  0.0281 -0.0231
49018DOD     C290874  18.244  21.613  10.906 -0.0310  0.0193 -0.0926
49018DOD     C390875  18.022  21.860  10.582 -0.0771  0.0969  0.1808
49019DOD     C190876  25.515   4.604  25.332  0.1672  0.1127 -0.0047
49019DOD     C290877  25.417   4.241  25.096  0.2351 -0.0894  0.1113
49019DOD     C390878  25.708   3.861  24.939  0.2067 -0.1521 -0.0995
49020DOD     C190879   3.482  16.757  11.437 -0.1328  0.5434 -0.2323
49020DOD     C290880   3.913  16.930  11.456  0.0025 -0.1262 -0.1114
49020DOD     C390881   4.212  17.303  11.434  0.0520  0.0692 -0.1801
49021DOD     C190882  21.782  21.958  21.983  0.0446 -0.1309 -0.0926
49021DOD     C290883  21.457  21.889  22.333  0.1457 -0.1384  0.2567
49021DOD     C390884  21.445  21.560  22.637  0.0889  0.2475  0.1042
49022DOD     C190885  29.079  12.955   3.828  0.0648 -0.0246  0.3692
49022DOD     C290886  29.222  13.390   3.812  0.0244 -0.1683  0.1173
49022DOD     C390887  29.521  13.539   3.473 -0.0737  0.1642 -0.0287
49023DOD     C190888  23.419  23.556  25.066  0.0509 -0.0361 -0.0543
49023DOD     C290889  22.956  23.516  25.194 -0.1951 -0.1394  0.0369
49023DOD     C390890  22.864  23.287  25.597  0.0500 -0.0173 -0.2077
49024DOD     C190891  21.351   8.228  13.756 -0.0070  0.2391  0.2327
49024DOD     C290892  21.590   8.482  13.410  0.0128  0.1266 -0.0267
49024DOD     C390893  21.952   8.635  13.144  0.1075  0.1670  0.1118
49025DOD     C190894  15.603  27.539  22.301 -0.3500  0.3807  0.2546
49025DOD     C290895  15.377  27.957  22.354 -0.3241 -0.1234 -0.3420
49025DOD     C390896  15.431  28.357  22.595 -0.1119  0.0357 -0.2169
49026DOD     C190897   6.930   1.129  26.918  0.2619 -0.1052 -0.0437
49026DOD     C290898   6.909   1.269  26.469  0.1189  0.4416 -0.0274
49026DOD     C390899   7.056   1.338  26.038 -0.2589 -0.4257  0.1909
49027DOD     C190900   3.857   4.740  10.399 -0.0145 -0.0029  0.1617
49027DOD     C290901   4.233   4.445  10.502  0.2728 -0.0625  0.0750
49027DOD     C390902   4.452   4.534  10.867 -0.2693  0.0684  0.1856
49028DOD     C190903  23.118  10.135  24.941  0.0563 -0.1567 -0.2605
49028DOD     C290904  23.031   9.807  24.582 -0.2334 -0.2008 -0.1768
49028DOD     C390905  23.332   9.521  24.317  0.2312  0.0432 -0.1736
49029DOD     C190906  27.517  13.908  22.849 -0.2449  0.1250 -0.0051
49029DOD     C290907  27.895  14.282  22.963 -0.1387 -0.1517  0.1805
49029DOD     C390908  27.989  14.750  23.010  0.2927  0.1004 -0.0720
49030DOD     C190909  29.851  27.570  26.070  0.0097 -0.0275 -0.1155
49030DOD     C290910  30.031  27.147  26.168  0.1668 -0.1488  0.0020
49030DOD     C390911  30.085  26.723  26.362 -0.0201 -0.0932  0.0354
49031DOD     C190912   0.764  28.993  27.489 -0.0882  0.2145  0.2281
49031DOD     C290913   0.586  28.715  27.773  0.3156 -0.2350 -0.1672
49031DOD     C390914   0.319  28.638  28.215  0.0600  0.0815 -0.0460
49032DOD     C190915  15.728   7.560  26.999  0.1746 -0.0046 -0.1145
49032DOD     C290916  15.670   7.416  26.592 -0.0937  0.2384 -0.2253
49032DOD     C390917  15.588   7.565  26.173  0.0284  0.0481  0.2734
49033DOD     C190918   8.658   3.526   6.037  0.0184  0.2726 -0.0280
49033DOD     C290919   8.501   3.697   6.527 -0.2541  0.0657 -0.0561
49033DOD     C390920   8.443   3.856   6.935 -0.1014  0.2710 -0.3664
49034DOD     C190921  13.633   2.507   2.048  0.0699  0.1802  0.3598
49034DOD     C290922  13.684   2.249   2.408  0.0914 -0.1211  0.0964
49034DOD     C390923  13.550   2.117   2.846  0.0229 -0.0332 -0.0780
49035DOD     C190924  27.628   4.107  12.433 -0.0424  0.2840  0.0974
49035DOD     C290925  27.158   4.025  12.540  0.0928  0.1585  0.0323
49035DOD     C390926  26.871   4.118  12.879 -0.1686  0.1463 -0.3612
49036DOD     C190927  10.420  10.472  30.200 -0.2121 -0.0360 -0.1172
49036DOD     C290928  10.432  10.172  29.857 -0.4610 -0.0008 -0.0872
49036DOD     C390929  10.416   9.732  29.812  0.2007  0.1154 -0.0781
49037DOD     C190930  14.408  19.007   8.555  0.2282  0.0828 -0.0482
49037DOD     C290931  13.998  19.042   8.727  0.0357  0.1832  0.1323
49037DOD     C390932  13.560  19.159   8.688  0.2531 -0.1236 -0.2146
49038DOD     C190933  20.562  22.495  19.601 -0.0776  0.2027 -0.1188
49038DOD     C290934  20.242  22.322  19.800 -0.0590 -0.2385  0.1679
49038DOD     C390935  20.019  21.933  19.601 -0.0699 -0.0228  0.1192
49039DOD     C190936  22.321  26.284  30.301 -0.1337 -0.1120  0.1266
49039DOD     C290937  21.870  26.165  30.140  0.0840  0.0552  0.3186
49039DOD     C390938  21.676  25.737  30.234 -0.1668  0.0623  0.3129
49040DOD     C190939  24.808  29.897  28.304  0.1402  0.1553 -0.2081
49040DOD     C290940  24.944  29.928  28.763  0.2082  0.0990  0.0031
49040DOD     C390941  25.123  30.180  29.155 -0.0050 -0.3302  0.1131
49041DOD     C190942   7.244  28.532   5.881  0.0097  0.2480 -0.1850
49041DOD     C290943   7.107  28.558   6.330  0.0017  0.0704 -0.1276
49041DOD     C390944   6.914  28.654   6.736 -0.0130  0.0075  0.2715
49042DOD     C190945  28.709  14.028   9.389 -0.4331 -0.1985  0.2193
49042DOD     C290946  28.570  14.454   9.390 -0.4502 -0.1481  0.1438
49042DOD     C390947  28.398  14.857   9.297 -0.1727 -0.1837 -0.0264
49043DOD     C190948  13.049  22.980  29.691 -0.0707  0.1449 -0.1644
49043DOD     C290949  13.284  23.262  29.418 -0.0221  0.1617 -0.0188
49043DOD     C390950  13.554  23.305  29.073  0.1145 -0.1581 -0.2462
49044DOD     C190951   2.149  18.933  24.953  0.0653 -0.3784 -0.0985
49044DOD     C290952   2.048  18.587  25.220  0.2373  0.1165 -0.1246
49044DOD     C390953   2.409  18.254  25.308  0.1122  0.0112  0.0541
49045DOD     C190954   8.671  29.290  11.389 -0.1342 -0.0370 -0.0535
49045DOD     C290955   8.845  29.218  10.983 -0.0594 -0.1844  0.1986
49045DOD     C390956   8.697  29.338  10.559  0.1179  0.0451 -0.1347
49046DOD     C190957  18.651  29.729  26.443 -0.0608  0.1082  0.0407
49046DOD     C290958  18.800  30.021  26.084  0.0308 -0.1511 -0.1606
49046DOD     C390959  18.900  30.144  25.671 -0.0357 -0.1320 -0.0248
49047DOD     C190960  28.095  16.291   7.187 -0.2450  0.1338 -0.0083
49047DOD     C290961  27.924  16.222   7.662  0.0596  0.0936  0.1092
49047DOD     C390962  27.873  15.968   8.055  0.2020  0.0232  0.0045
49048DOD     C190963  12.696  12.047  28.613  0.0374  0.2273 -0.2866
49048DOD     C290964  12.425  11.716  28.489 -0.1192 -0.0640 -0.0519
49048DOD     C390965  12.327  11.248  28.653  0.2084 -0.1439 -0.0326
49049DOD     C190966   8.679   2.179   1.861 -0.1868 -0.2006  0.0508
49049DOD     C290967   8.852   1.984   2.192 -0.2243 -0.3074  0.1299
49049DOD     C390968   8.798   1.725   2.569  0.2941 -0.1891  0.0156
49050DOD     C190969   0.024  23.418  21.809 -0.2551 -0.1924 -0.1328
49050DOD     C290970  29.871  23.398  21.862  0.0863 -0.1649  0.1693
49050DOD     C390971  29.426  23.388  21.689  0.1980  0.1050  0.3043
49051DOD     C190972  16.896  11.174   8.102 -0.2738  0.1525 -0.0861
49051DOD     C290973  16.969  11.298   7.689  0.0637 -0.1249 -0.0842
49051DOD     C390974  16.600  11.440   7.315  0.0240  0.2722  0.0220
49052DOD     C190975   7.113   5.666   1.997 -0.3117  0.1821 -0.2202
49052DOD     C290976   6.926   5.887   2.317 -0.0548  0.1123 -0.2269
49052DOD     C390977   6.759   5.995   2.724 -0.0320  0.1397  0.0110
49053DOD     C190978  20.234   3.133  27.576  0.2408  0.0861 -0.0519
49053DOD     C290979  20.182   3.579  27.620 -0.2400  0.3268  0.1183
49053DOD     C390980  20.199   4.014  27.574  0.2410 -0.2122 -0.0936
49054DOD     C190981   6.251   0.725  20.190 -0.1092 -0.1136 -0.1475
49054DOD     C290982   6.515   0.796  19.818 -0.1866 -0.1650  0.0125
49054DOD     C390983   6.458   0.966  19.434 -0.1939 -0.3029 -0.5344
49055DOD     C190984  29.683  21.801   0.169  0.1769  0.0219 -0.1096
49055DOD     C290985  29.299  21.640  30.315 -0.0628  0.3008  0.0027
49055DOD     C390986  28.839  21.852  30.313 -0.1475  0.2512  0.0046
49056DOD     C190987  12.072  25.412  13.181 -0.1859 -0.1342  0.0469
49056DOD     C290988  12.250  25.392  12.728 -0.1585  0.0908 -0.1214
49056DOD     C390989  12.483  25.729  12.528  0.0225 -0.2179  0.1178
49057DOD     C190990  17.524  15.042  12.990  0.0403 -0.0436 -0.1806
49057DOD     C290991  17.779  14.658  12.755  0.0638  0.0933  0.0536
49057DOD     C390992  18.196  14.411  12.712 -0.2976 -0.0586  0.3110
49058DOD     C190993   5.392  24.683  29.100  0.1830 -0.1028  0.1248
49058DOD     C290994   5.780  24.748  29.429 -0.0905  0.2125  0.3493
49058DOD     C390995   5.863  24.734  29.893 -0.1085 -0.0511  0.1638
49059DOD     C190996  18.315  10.939   4.450 -0.3906 -0.1907  0.0347
49059DOD     C290997  18.424  10.436   4.399 -0.2564  0.1281  0.0404
49059DOD     C390998  18.571  10.008   4.322  0.1876  0.0601  0.1880
49060DOD     C190999  28.459   9.666  12.394 -0.0294  0.0245  0.0030
49060DOD     C291000  28.311   9.194  12.524  0.0027 -0.0691 -0.2451
49060DOD     C391001  28.322   8.704  12.372  0.0441 -0.4053  0.1565
49061DOD     C191002  27.223   5.337  13.422  0.0539 -0.0022  0.0710
49061DOD     C291003  27.394   5.367  13.858  0.0289  0.1451  0.0285
49061DOD     C391004  27.760   5.504  14.104  0.2088  0.0438 -0.1638
49062DOD     C191005  28.822  14.987  24.522  0.0368 -0.1840 -0.0060
49062DOD     C291006  28.508  15.209  24.330  0.0602 -0.0902  0.1575
49062DOD     C391007  28.037  15.191  24.420  0.4446 -0.1159  0.0121
49063DOD     C191008   0.791  15.554   5.250 -0.1549  0.1903 -0.0045
49063DOD     C291009   0.811  15.178   5.000 -0.1899  0.1517 -0.0021
49063DOD     C391010   0.830  15.022   4.514  0.2122 -0.3211  0.0849
49064DOD     C191011  18.328   8.612  15.448  0.0602 -0.0805  0.1070
49064DOD     C291012  18.655   8.820  15.667  0.1768  0.0383 -0.1101
49064DOD     C391013  19.087   9.016  15.710 -0.0634  0.1487 -0.1968
49065DOD     C191014   0.467  22.970  19.710  0.1899  0.3049 -0.1034
49065DOD     C291015   0.378  23.317  20.016 -0.1045 -0.1498 -0.0771
49065DOD     C391016  30.333  23.619  19.960  0.2599  0.0517 -0.1706
49066DOD     C191017  11.691  23.693   0.859  0.1515 -0.0266 -0.1661
49066DOD     C291018  11.983  23.933   1.047  0.2898  0.0145  0.1083
49066DOD     C391019  12.308  24.219   1.219  0.3350 -0.0097  0.0717
49067DOD     C191020   8.429  12.896  15.423 -0.0476 -0.1590 -0.0339
49067DOD     C291021   8.029  13.079  15.670 -0.0113  0.3050  0.3067
49067DOD     C391022   7.630  13.299  15.667  0.0418 -0.2059 -0.1139
49068DOD     C191023   8.582  17.627  20.927  0.0413 -0.0621  0.3870
49068DOD     C291024   8.800  18.051  20.805 -0.2331  0.1221  0.1465
49068DOD     C391025   8.988  18.428  20.641  0.0314 -0.2878  0.1041
49069DOD     C191026  18.336   3.350  14.050 -0.0306 -0.2186  0.4197
49069DOD     C291027  18.136   2.959  14.089 -0.4325 -0.1169  0.0364
49069DOD     C391028  18.130   2.521  13.915  0.1078  0.1560 -0.1597
49070DOD     C191029  19.175  26.807   7.641 -0.0581  0.0705  0.0933
49070DOD     C291030  19.591  27.015   7.736 -0.0541  0.1290 -0.0571
49070DOD     C391031  19.960  27.049   8.030 -0.1549 -0.1014 -0.0473
49071DOD     C191032  11.547   5.060   9.576 -0.1710 -0.2455  0.0003
49071DOD     C291033  11.609   4.942   9.109  0.1029 -0.0253  0.0811
49071DOD     C391034  11.517   4.647   8.734  0.1446  0.1288 -0.1803
49072DOD     C191035  21.645   2.178   6.357  0.1106  0.1498  0.0396
49072DOD     C291036  21.258   2.220   6.640 -0.1395 -0.4080 -0.1831
49072DOD     C391037  21.138   2.493   7.059 -0.0161 -0.1922  0.5040
49073DOD     C191038   0.753  26.407  22.455  0.1485  0.1495  0.0988
49073DOD     C291039   0.908  26.823  22.599 -0.1218 -0.1108 -0.2794
49073DOD     C391040   1.044  27.233  22.816  0.0505  0.3863 -0.1529
49074DOD     C191041  12.114  14.101  15.767 -0.0125  0.3005 -0.0616
49074DOD     C291042  11.860  14.111  16.159 -0.2994  0.0188 -0.0310
49074DOD     C391043  11.611  14.451  16.385  0.0795  0.2679  0.1656
49075DOD     C191044  25.411  20.237  29.711 -0.0080  0.0042  0.1754
49075DOD     C291045  25.419  19.817  29.731 -0.2477  0.0054 -0.0694
49075DOD     C391046  25.388  19.384  29.777 -0.0756 -0.0698  0.0980
49076DOD     C191047  23.348   6.004  20.343  0.0417 -0.0447  0.1646
49076DOD     C291048  23.092   5.914  19.935 -0.1645 -0.0028 -0.0597
49076DOD     C391049  23.022   6.168  19.554  0.4975 -0.3475  0.3579
49077DOD     C191050  14.495  20.985  17.977 -0.2650  0.1283 -0.0742
49077DOD     C291051  14.131  21.225  17.781  0.1039  0.0282  0.1463
49077DOD     C391052  13.755  21.367  17.492 -0.1264  0.0030  0.4697
49078DOD     C191053  28.189  21.713  10.790 -0.0983  0.2378  0.2307
49078DOD     C291054  27.722  21.530  10.609  0.3349 -0.2591  0.1271
49078DOD     C391055  27.382  21.294  10.381  0.0931  0.1713 -0.1926
49079DOD     C191056  22.726  29.497   5.138 -0.0927 -0.1021  0.3328
49079DOD     C291057  22.302  29.703   5.165 -0.0123  0.1514  0.1243
49079DOD     C391058  21.887  29.864   5.040  0.0022  0.1634 -0.1176
49080DOD     C191059  11.119  12.958  19.339 -0.0491  0.0579  0.2900
49080DOD     C291060  11.168  12.609  19.627  0.0072  0.5144 -0.0672
49080DOD     C391061  11.278  12.326  20.029 -0.1521 -0.1134  0.0593
49081DOD     C191062  12.415  29.002  14.565  0.0380 -0.0247 -0.1517
49081DOD     C291063  12.486  29.043  14.097 -0.1212 -0.0788  0.1033
49081DOD     C391064  12.507  29.070  13.604  0.2462 -0.2883 -0.0042
49082DOD     C191065   2.593  28.330   3.922  0.1595  0.1290  0.0746
49082DOD     C291066   2.327  28.013   3.660  0.0479  0.0705  0.2574
49082DOD     C391067   2.426  27.715   3.298  0.4420 -0.0979  0.3629
49083DOD     C191068  20.129  11.545  27.531 -0.0942  0.1172 -0.0589
49083DOD     C291069  19.877  11.168  27.341  0.2333  0.0222 -0.0172
49083DOD     C391070  19.600  10.767  27.481 -0.0855  0.1307 -0.2320
49084DOD     C191071  21.515   2.316   1.159  0.0139  0.2181  0.1417
49084DOD     C291072  21.697   2.716   1.172  0.3289  0.2896 -0.0174
49084DOD     C391073  22.117   2.905   1.358 -0.0833 -0.0645 -0.1454
49085DOD     C191074  28.011  21.433  27.113  0.0673  0.1443 -0.2882
49085DOD     C291075  28.476  21.263  27.148 -0.1323  0.0737  0.0947
49085DOD     C391076  28.821  21.140  26.859  0.1492 -0.0215  0.2091
49086DOD     C191077   7.152   3.612  10.764 -0.5054  0.1118  0.1693
49086DOD     C291078   7.489   3.373  10.787 -0.1048 -0.2880 -0.1803
49086DOD     C391079   7.868   3.242  11.021  0.3481 -0.3406  0.1594
49087DOD     C191080  21.385   3.963  10.378 -0.1575  0.0759  0.1785
49087DOD     C291081  21.713   3.911  10.679  0.0131 -0.0639  0.0913
49087DOD     C391082  22.036   3.664  10.980  0.0412  0.0104  0.2012
49088DOD     C191083  12.088   8.816  23.655  0.0271 -0.1683 -0.0200
49088DOD     C291084  12.351   8.847  23.287  0.0328  0.0208  0.1360
49088DOD     C391085  12.631   8.648  22.978  0.0528 -0.1137  0.0406
49089DOD     C191086  29.373  17.522   0.958  0.0817 -0.0143  0.2382
49089DOD     C291087  29.429  17.128   1.175  0.0176 -0.0374  0.2581
49089DOD     C391088  29.265  16.782   1.432  0.1132  0.0187  0.0628
49090DOD     C191089   9.731  14.866  13.726  0.0817  0.0074 -0.0628
49090DOD     C291090   9.939  14.497  13.878 -0.0300 -0.0460 -0.2037
49090DOD     C391091  10.163  14.223  14.141  0.1958 -0.0017 -0.1692
49091DOD     C191092  26.112   6.215  28.720  0.0334 -0.1245  0.0133
49091DOD     C291093  25.889   5.869  28.956  0.0540  0.0687  0.1735
49091DOD     C391094  25.691   5.773  29.397  0.1580 -0.1908 -0.0404
49092DOD     C191095  16.097   3.079   0.350  0.1020  0.0746 -0.4343
49092DOD     C291096  16.104   2.592   0.184  0.3311  0.4393  0.1349
49092DOD     C391097  15.913   2.225   0.390  0.1300  0.0362 -0.0785
49093DOD     C191098   8.359  14.222  20.045 -0.1037  0.0085 -0.0936
49093DOD     C291099   8.535  14.390  20.448  0.1237  0.0469 -0.1632
49093DOD     C391100   8.887  14.695  20.561 -0.0127 -0.2231  0.1111
49094DOD     C191101  25.513  23.607  22.807 -0.0872 -0.0396  0.0866
49094DOD     C291102  25.485  23.496  23.228  0.1868  0.2553  0.0100
49094DOD     C391103  25.588  23.440  23.689 -0.0487  0.2265  0.0246
49095DOD     C191104  23.053  18.929   8.276 -0.0280  0.0224  0.1527
49095DOD     C291105  23.159  19.191   8.639 -0.0153 -0.1532  0.3563
49095DOD     C391106  23.210  19.354   9.048  0.0685 -0.0669 -0.0567
49096DOD     C191107   0.036   2.559   1.409 -0.1837  0.0834 -0.3147
49096DOD     C291108   0.220   2.690   0.984 -0.0504 -0.0701 -0.2377
49096DOD     C391109   0.096   2.963   0.618 -0.2151  0.1511 -0.1882
49097DOD     C191110   7.548   5.080   2.510 -0.1235 -0.0534  0.2721
49097DOD     C291111   8.003   4.958   2.564 -0.0491 -0.1155 -0.0717
49097DOD     C391112   8.230   4.532   2.585 -0.0655 -0.0469 -0.0077
49098DOD     C191113  12.692   5.794  23.884 -0.1477  0.0621  0.1104
49098DOD     C291114  12.650   6.018  23.495  0.3547 -0.0960  0.1469
49098DOD     C391115  12.599   6.415  23.185 -0.3722 -0.1234 -0.2862
49099DOD     C191116  18.957  21.868  28.254 -0.0204 -0.0105 -0.1314
49099DOD     C291117  18.691  22.170  28.051  0.2293 -0.2190  0.3675
49099DOD     C391118  18.352  22.469  27.933  0.1948  0.2201  0.3301
49100DOD     C191119  20.890   3.677  26.845 -0.0935  0.1177  0.1662
49100DOD     C291120  20.420   3.689  26.763 -0.1866 -0.2840 -0.1530
49100DOD     C391121  20.079   3.995  26.683 -0.0158 -0.1895 -0.1650
49101DOD     C191122  28.218  21.288   5.338  0.0113  0.0987  0.2580
49101DOD     C291123  28.177  20.812   5.263 -0.0220  0.0850  0.3129
49101DOD     C391124  27.862  20.488   5.215 -0.1408  0.0017  0.0309
49102DOD     C191125   4.001  22.094   3.237  0.2282  0.2403 -0.1862
49102DOD     C291126   4.489  22.082   3.317  0.0385  0.1800 -0.0815
49102DOD     C391127   4.914  21.948   3.128  0.3859  0.0057 -0.1846
49103DOD     C191128  11.672  18.579  20.671 -0.0273  0.2735  0.0678
49103DOD     C291129  11.488  18.155  20.672 -0.2719  0.0076  0.2718
49103DOD     C391130  11.169  17.810  20.468 -0.0568  0.1696 -0.3515
49104DOD     C191131  18.224   4.250  16.484  0.0175  0.0924  0.0538
49104DOD     C291132  17.833   4.168  16.709  0.1520  0.0115  0.2191
49104DOD     C391133  17.442   4.043  16.914 -0.0693  0.2149 -0.1714
49105DOD     C191134  17.453  15.957  19.393  0.0715  0.3516 -0.1603
49105DOD     C291135  17.787  16.286  19.452 -0.1935  0.1005  0.0002
49105DOD     C391136  17.974  16.730  19.374  0.2431 -0.0156 -0.0523
49106DOD     C191137  23.678  13.966  26.958 -0.2212 -0.1734 -0.1400
49106DOD     C291138  23.276  13.771  27.121  0.3592 -0.0688 -0.1526
49106DOD     C391139  22.918  13.501  27.310 -0.1008 -0.6281  0.1362
49107DOD     C191140  24.242  23.079  20.557  0.0266  0.2945  0.2049
49107DOD     C291141  24.664  22.882  20.659 -0.0149 -0.0376 -0.2065
49107DOD     C391142  25.113  22.976  20.495  0.1109 -0.3802 -0.2498
49108DOD     C191143   9.046   1.800  25.083  0.3503 -0.0519 -0.0641
49108DOD     C291144   9.090   1.323  25.068 -0.0071  0.1653  0.0275
49108DOD     C391145   9.371   0.877  25.100 -0.1711  0.2272  0.2915
49109DOD     C191146  27.471  23.724   0.464 -0.0493 -0.1353  0.0281
49109DOD     C291147  27.927  23.608   0.587 -0.0299 -0.4198 -0.1857
49109DOD     C391148  28.410  23.562   0.555  0.0047  0.1737  0.2737
49110DOD     C191149   5.209  13.785   7.002 -0.2873 -0.0297  0.0763
49110DOD     C291150   5.169  14.179   6.709  0.0333 -0.1312  0.1366
49110DOD     C391151   5.309  14.579   6.510 -0.2057 -0.2199  0.0187
49111DOD     C191152  24.247  25.421  28.432  0.0360 -0.1592 -0.1639
49111DOD     C291153  24.619  25.416  28.171  0.0893  0.0309  0.1326
49111DOD     C391154  25.098  25.287  28.214 -0.0050  0.0490  0.0247
49112DOD     C191155  16.737  29.887   7.341  0.0398 -0.1380 -0.1666
49112DOD     C291156  16.697  29.822   6.835 -0.1113 -0.0818 -0.3514
49112DOD     C391157  16.787  29.651   6.443 -0.0583 -0.1979  0.1616
49113DOD     C191158  16.153   2.961  16.946 -0.0974  0.1587  0.1845
49113DOD     C291159  15.807   3.102  17.287 -0.2282 -0.0104  0.0428
49113DOD     C391160  15.544   2.995  17.640  0.2798  0.2593  0.1750
49114DOD     C191161  22.957   7.315  24.970  0.1949  0.0831  0.4191
49114DOD     C291162  23.146   7.562  24.573 -0.0449  0.4087  0.0577
49114DOD     C391163  22.991   7.888  24.275  0.3612  0.2757  0.0159
49115DOD     C191164  28.247   2.881   8.160  0.4667  0.0794  0.0298
49115DOD     C291165  27.976   2.486   8.254 -0.1601 -0.0855 -0.1370
49115DOD     C391166  27.512   2.336   8.216  0.2705  0.0096  0.0834
49116DOD     C191167   0.967  14.010  28.587 -0.0651  0.0192  0.0365
49116DOD     C291168   0.777  14.050  28.150  0.4129  0.2542  0.1994
49116DOD     C391169   0.804  14.369  27.839  0.1551 -0.2054 -0.0163
49117DOD     C191170  25.981  22.674  11.268 -0.0934 -0.1960 -0.0014
49117DOD     C291171  25.935  22.204  11.305  0.3365  0.0454 -0.0078
49117DOD     C391172  25.580  21.953  11.117 -0.1547  0.1547  0.0506
49118DOD     C191173  20.898  13.036  18.543 -0.4788 -0.0420 -0.0768
49118DOD     C291174  20.481  13.128  18.297 -0.5142  0.1737  0.1029
49118DOD     C391175  20.390  13.314  17.900  0.0298 -0.2812  0.2868
49119DOD     C191176  29.286  29.590   4.102 -0.1147  0.1029 -0.1542
49119DOD     C291177  29.597  29.468   4.447 -0.0370  0.1190 -0.1957
49119DOD     C391178  29.853  29.623   4.807 -0.2097 -0.2353  0.1502
49120DOD     C191179  15.026  10.079  14.713 -0.0715 -0.0292 -0.3471
49120DOD     C291180  14.919  10.396  15.080 -0.1449  0.1101 -0.0248
49120DOD     C391181  14.667  10.472  15.462  0.1784 -0.1670  0.1283
49121DOD     C191182  15.898  23.804  28.128  0.0690  0.2359  0.0846
49121DOD     C291183  15.478  23.589  27.997  0.3752 -0.0363  0.1112
49121DOD     C391184  15.176  23.266  27.921  0.0766  0.1254  0.0541
49122DOD     C191185   6.084  25.042  10.906 -0.0322  0.1751  0.0693
49122DOD     C291186   6.206  24.695  10.540 -0.0384 -0.1283  0.3026
49122DOD     C391187   6.442  24.395  10.298  0.0262  0.3827 -0.0655
49123DOD     C191188  11.888   9.556  23.561  0.2124 -0.1857  0.4363
49123DOD     C291189  11.619   9.802  23.893 -0.0496  0.1810  0.1138
49123DOD     C391190  11.596  10.138  24.260 -0.2087 -0.1362  0.1257
49124DOD     C191191  28.758  16.395  27.742  0.1840 -0.0097 -0.2477
49124DOD     C291192  28.417  16.603  27.508  0.1955 -0.2549 -0.0441
49124DOD     C391193  28.077  16.809  27.330  0.1007  0.0237  0.1503
49125DOD     C191194  17.613  21.791  24.061  0.3203  0.3646 -0.2646
49125DOD     C291195  17.189  21.999  24.035 -0.0643  0.0245 -0.0107
49125DOD     C391196  16.792  22.117  23.786  0.0043  0.0417  0.4347
49126DOD     C191197  18.344   2.259  13.225  0.1846 -0.1499 -0.0313
49126DOD     C291198  18.197   1.892  13.547 -0.1786 -0.0612  0.2795
49126DOD     C391199  18.213   1.467  13.711 -0.4939  0.1900 -0.2260
49127DOD     C191200  20.085   4.772  17.062  0.2181  0.2960  0.0639
49127DOD     C291201  20.369   4.695  17.478 -0.2030  0.0787 -0.0224
49127DOD     C391202  20.435   4.533  17.951  0.3293  0.0089  0.0727
49128DOD     C191203  19.285  26.585  25.603  0.2938  0.0682  0.1257
49128DOD     C291204  19.014  26.393  25.302 -0.2385 -0.1690 -0.0925
49128DOD     C391205  19.020  26.308  24.845 -0.0786  0.0000  0.1065
49129DOD     C191206   0.690  15.116  13.601 -0.0511 -0.1866  0.2678
49129DOD     C291207   0.563  14.670  13.500 -0.3519  0.2303  0.2308
49129DOD     C391208   0.691  14.346  13.172 -0.2605 -0.0651  0.0602
49130DOD     C191209  16.367   6.052   8.513  0.0653  0.0049 -0.2974
49130DOD     C291210  16.442   6.276   8.981  0.0716 -0.1419  0.0344
49130DOD     C391211  16.781   6.378   9.317  0.0692  0.0690 -0.2588
49131DOD     C191212  29.831  12.451   1.257 -0.3009  0.1619 -0.1069
49131DOD     C291213  29.507  12.184   1.514  0.1693  0.0762 -0.2308
49131DOD     C391214  29.447  12.165   1.985  0.1659  0.1500  0.0078
49132DOD     C191215  13.921   1.335  17.908 -0.0215  0.0624 -0.0999
49132DOD     C291216  13.896   1.794  17.822  0.2501  0.0390  0.1205
49132DOD     C391217  13.518   2.125  17.879 -0.1104 -0.1205 -0.1243
49133DOD     C191218  30.201  25.945   1.575 -0.2147  0.2069 -0.1810
49133DOD     C291219  30.062  26.418   1.458  0.2720 -0.0865 -0.0662
49133DOD     C391220  30.132  26.863   1.459 -0.2628  0.1049  0.1211
49134DOD     C191221  14.815  20.255  27.665  0.0338  0.0008 -0.0103
49134DOD     C291222  14.666  20.693  27.539  0.0790 -0.2379 -0.0468
49134DOD     C391223  14.252  20.764  27.672  0.1642  0.6666 -0.1213
49135DOD     C191224   6.079  11.941   4.570 -0.1903  0.4219 -0.0703
49135DOD     C291225   5.673  11.678   4.585  0.1500  0.1829 -0.0029
49135DOD     C391226   5.440  11.305   4.754  0.2161 -0.2865  0.1964
49136DOD     C191227  21.338   7.420   8.218 -0.1282  0.2036 -0.1940
49136DOD     C291228  21.178   7.821   8.413  0.1015 -0.0647  0.2510
49136DOD     C391229  21.077   8.033   8.830  0.0239 -0.0219  0.1846
49137DOD     C191230   8.595  28.980  14.622  0.3471 -0.1088  0.0786
49137DOD     C291231   8.777  28.642  14.893 -0.0935 -0.2544  0.4384
49137DOD     C391232   8.831  28.231  15.102  0.0217  0.2485  0.0158
49138DOD     C191233  27.629  23.778   6.272 -0.0013  0.0803 -0.1207
49138DOD     C291234  28.147  23.658   6.263  0.0395 -0.1005  0.1864
49138DOD     C391235  28.521  23.430   6.188 -0.3818 -0.0526 -0.1145
49139DOD     C191236  20.338  29.928   0.068  0.0035 -0.3052  0.2650
49139DOD     C291237  19.956  29.807   0.347  0.0575  0.0438  0.3170
49139DOD     C391238  19.945  29.648   0.768  0.2895  0.0388 -0.2015
49140DOD     C191239  13.772  28.845  11.980 -0.0938 -0.0018  0.1996
49140DOD     C291240  13.639  29.073  11.609  0.1969 -0.2411  0.1552
49140DOD     C391241  13.301  28.838  11.319  0.2611  0.2284  0.2605
49141DOD     C191242   1.362   5.464  23.806 -0.1440  0.0100 -0.2021
49141DOD     C291243   1.472   5.900  23.876 -0.1028 -0.3123 -0.1230
49141DOD     C391244   1.458   6.371  23.777 -0.2646 -0.1546 -0.1532
49142DOD     C191245  10.053  12.564  16.432 -0.1597  0.3757  0.3755
49142DOD     C291246  10.229  12.855  16.177 -0.2151  0.2714  0.1302
49142DOD     C391247  10.181  13.201  15.849  0.2447  0.1505  0.0796
49143DOD     C191248  26.493  20.821  20.770 -0.0721  0.2541 -0.1613
49143DOD     C291249  26.332  20.442  21.041  0.0478  0.3454 -0.0629
49143DOD     C391250  26.054  20.052  21.216  0.2951 -0.1390 -0.1564
49144DOD     C191251  13.703  21.607  23.659  0.1704 -0.3175  0.0597
49144DOD     C291252  13.539  21.292  23.953  0.0427 -0.1025 -0.0525
49144DOD     C391253  13.497  20.831  24.015  0.2938 -0.3135 -0.0221
49145DOD     C191254  26.457   4.049  10.087 -0.3756  0.0552  0.0642
49145DOD     C291255  26.347   3.847  10.523 -0.0656 -0.1752 -0.0279
49145DOD     C391256  26.054   3.531  10.653 -0.1575  0.1361  0.2431
49146DOD     C191257   0.179  18.459   1.237  0.0167  0.0751  0.5119
49146DOD     C291258  30.283  18.606   0.880 -0.1651  0.1657  0.2986
49146DOD     C391259  30.165  18.899   0.530  0.1542 -0.0860  0.0835
49147DOD     C191260   6.869   0.326   7.087  0.2586 -0.0038 -0.1014
49147DOD     C291261   7.149   0.704   7.261 -0.1012 -0.0219  0.1220
49147DOD     C391262   7.384   1.053   7.411  0.0570 -0.2824  0.0587
49148DOD     C191263   0.519  13.283  24.957 -0.1803 -0.2545 -0.0795
49148DOD     C291264   0.153  13.055  25.177  0.0516 -0.1329  0.1103
49148DOD     C391265  30.132  12.756  25.342 -0.0942 -0.0082  0.1711
49149DOD     C191266  24.146  18.161  14.843  0.0651 -0.0126  0.0377
49149DOD     C291267  24.516  18.445  14.647 -0.1967  0.0305 -0.1008
49149DOD     C391268  24.664  18.542  14.207 -0.1211 -0.0692 -0.0980
49150DOD     C191269  23.418  20.793  10.725 -0.2175  0.0977 -0.2539
49150DOD     C291270  23.805  20.777  10.929 -0.0214  0.0780  0.2498
49150DOD     C391271  24.209  20.638  11.113 -0.2348 -0.2859  0.0219
49151DOD     C191272  14.516  25.313  17.232 -0.0275 -0.1638  0.1832
49151DOD     C291273  14.647  25.750  17.215 -0.0414  0.4298 -0.0104
49151DOD     C391274  14.777  26.171  17.233 -0.2198  0.2004 -0.1206
49152DOD     C191275  28.785   6.301   5.721 -0.1316  0.1224  0.1710
49152DOD     C291276  29.186   6.574   5.598  0.2124  0.1151 -0.0103
49152DOD     C391277  29.652   6.654   5.595  0.1467  0.1970 -0.1098
49153DOD     C191278   4.424   6.577   8.906  0.0314 -0.3261  0.0543
49153DOD     C291279   3.895   6.686   8.905  0.0631  0.2648  0.0748
49153DOD     C391280   3.506   6.826   9.208 -0.1186 -0.0261 -0.0559
49154DOD     C191281  23.643  12.736  23.053  0.0792 -0.0969 -0.2399
49154DOD     C291282  23.751  12.936  22.694 -0.1573  0.1671  0.1321
49154DOD     C391283  24.120  12.902  22.386  0.0533  0.1483 -0.0038
49155DOD     C191284  20.956   0.258  16.175 -0.0456 -0.2120 -0.0766
49155DOD     C291285  20.813   0.659  15.900 -0.2368  0.0863  0.1063
49155DOD     C391286  20.879   1.119  15.918  0.0581 -0.3646 -0.0700
49156DOD     C191287  15.338  16.878   2.317  0.2615  0.0264  0.4112
49156DOD     C291288  15.768  16.858   2.094 -0.1038 -0.4515  0.0881
49156DOD     C391289  15.811  16.919   1.664 -0.3471 -0.3084  0.2284
49157DOD     C191290   7.331  23.314  25.810  0.1233 -0.0916  0.0280
49157DOD     C291291   7.600  22.963  26.046  0.0538  0.3166 -0.0645
49157DOD     C391292   7.983  22.746  25.972  0.1466  0.1461  0.0059
49158DOD     C191293   3.202   8.548   1.693 -0.0776 -0.0769 -0.1824
49158DOD     C291294   3.175   9.010   1.666  0.1882 -0.0563  0.0921
49158DOD     C391295   2.746   9.266   1.756  0.0947  0.2832 -0.1333
49159DOD     C191296  17.507  27.034   1.150  0.0966 -0.1099 -0.0328
49159DOD     C291297  17.734  27.203   1.539 -0.0478  0.0399  0.1385
49159DOD     C391298  17.874  27.286   2.006  0.0755  0.0204 -0.1224
49160DOD     C191299  21.783   4.024  27.327  0.2839 -0.0218 -0.3559
49160DOD     C291300  21.531   4.383  27.303  0.0202 -0.3251  0.0121
49160DOD     C391301  21.456   4.877  27.302 -0.0850 -0.3463  0.1362
49161DOD     C191302   8.940   7.935   2.670 -0.0361  0.0520 -0.0667
49161DOD     C291303   8.849   7.542   2.397 -0.1163 -0.1565 -0.0769
49161DOD     C391304   9.026   7.481   1.955  0.0976  0.2432  0.0222
49162DOD     C191305  30.006  21.967  22.953  0.0989 -0.0861  0.3507
49162DOD     C291306  29.802  22.378  22.927  0.2358  0.3760 -0.3333
49162DOD     C391307  29.646  22.681  22.689  0.1819  0.1324 -0.1267
49163DOD     C191308  28.642   6.313   2.861  0.0916 -0.3154 -0.0579
49163DOD     C291309  28.633   5.912   3.100 -0.0076 -0.1328 -0.1075
49163DOD     C391310  28.418   5.607   3.338  0.0771  0.1034 -0.0377
49164DOD     C191311  17.552  19.603  24.333  0.1292  0.0734 -0.0458
49164DOD     C291312  17.422  20.071  24.286 -0.0487 -0.0423  0.2177
49164DOD     C391313  17.458  20.487  24.394 -0.1495 -0.2804 -0.2240
49165DOD     C191314   7.014  17.387  21.032 -0.2076  0.0533 -0.0565
49165DOD     C291315   7.239  17.858  20.982 -0.1028  0.0965  0.1926
49165DOD     C391316   7.070  18.249  20.987  0.1818  0.1057  0.0384
49166DOD     C191317  23.295  26.109  26.378  0.2148 -0.3816 -0.4273
49166DOD     C291318  22.984  26.253  26.054 -0.3878 -0.0620 -0.0692
49166DOD     C391319  22.569  26.466  25.868 -0.2651 -0.4496  0.1656
49167DOD     C191320  27.648  16.463  18.138  0.0048  0.0490 -0.2173
49167DOD     C291321  28.066  16.516  18.455  0.0322  0.2352 -0.1703
49167DOD     C391322  28.239  16.894  18.614 -0.0079  0.1469  0.2186
49168DOD     C191323  28.125  24.694  23.125  0.2122  0.2963  0.1860
49168DOD     C291324  27.922  24.617  22.705 -0.0426 -0.1301 -0.1019
49168DOD     C391325  27.751  24.746  22.301  0.0293  0.0646 -0.5332
49169DOD     C191326  13.222   8.303   7.387  0.1063 -0.0674 -0.1356
49169DOD     C291327  13.189   8.528   7.014  0.1374 -0.0223  0.0210
49169DOD     C391328  12.997   8.511   6.593  0.0195 -0.1772 -0.0699
49170DOD     C191329  10.575  29.130  14.803  0.1048  0.0527  0.2370
49170DOD     C291330  10.358  29.288  15.140  0.2217  0.0470 -0.0187
49170DOD     C391331  10.047  29.498  15.406 -0.0079 -0.3017  0.1326
49171DOD     C191332   1.264   1.484  10.511 -0.0111  0.2743  0.4129
49171DOD     C291333   0.804   1.445  10.702  0.1851 -0.0015 -0.2881
49171DOD     C391334   0.424   1.179  10.698 -0.0644 -0.3361 -0.1965
49172DOD     C191335  11.157   0.520  15.297  0.0620  0.0524  0.0062
49172DOD     C291336  11.563   0.350  15.193 -0.3516 -0.3676 -0.2213
49172DOD     C391337  11.744   0.388  14.813  0.2165  0.0608 -0.0491
49173DOD     C191338   4.733   5.068   0.661 -0.2142  0.0399  0.2037
49173DOD     C291339   5.161   5.025   0.388  0.1259  0.3487  0.0706
49173DOD     C391340   5.365   4.827   0.021  0.1244  0.0488 -0.1390
49174DOD     C191341  15.852  19.570   0.264  0.1531 -0.0042  0.2828
49174DOD     C291342  16.137  19.696   0.620  0.0977  0.3055 -0.0163
49174DOD     C391343  16.290  19.566   1.023 -0.0434  0.4884  0.0611
49175DOD     C191344   6.217  26.815  17.974  0.0425  0.0165 -0.3272
49175DOD     C291345   6.536  27.076  17.854 -0.1713  0.1294 -0.1437
49175DOD     C391346   6.940  27.223  17.850  0.2818 -0.0293  0.0668
49176DOD     C191347   0.106   4.378  26.554  0.2607 -0.2052  0.0637
49176DOD     C291348  30.120   4.032  26.609 -0.0043 -0.0377  0.1565
49176DOD     C391349  29.874   4.015  27.023 -0.0178 -0.0881 -0.1769
49177DOD     C191350  13.623  22.557  13.932 -0.1008 -0.0919 -0.1687
49177DOD     C291351  13.395  22.961  13.758  0.3177 -0.1367  0.0140
49177DOD     C391352  13.327  23.360  13.424 -0.0113 -0.1543  0.1809
49178DOD     C191353  27.551  25.426  10.690 -0.3123 -0.1278 -0.2354
49178DOD     C291354  27.228  25.666  10.435 -0.0729  0.0807  0.1588
49178DOD     C391355  27.129  26.087  10.278 -0.0151  0.0822  0.0609
49179DOD     C191356  19.525  13.877  10.901 -0.1060  0.3140  0.1153
49179DOD     C291357  19.894  13.576  10.894  0.0903 -0.0878 -0.0192
49179DOD     C391358  20.235  13.292  11.094 -0.1038  0.0116 -0.0962
49180DOD     C191359  13.683  15.896  19.966  0.1009  0.0568  0.3696
49180DOD     C291360  13.759  15.458  19.983  0.1606 -0.0288  0.0738
49180DOD     C391361  13.755  15.127  19.828  0.0415 -0.0348 -0.1696
49181DOD     C191362  28.370   1.777   9.751 -0.1056  0.0981  0.0625
49181DOD     C291363  28.135   1.475   9.998 -0.1129 -0.0199 -0.0622
49181DOD     C391364  27.980   1.372  10.413  0.2105  0.0063  0.1194
49182DOD     C191365  21.413  18.210  23.557  0.1561 -0.3159  0.2485
49182DOD     C291366  21.817  18.299  23.816  0.4375 -0.0972 -0.2419
49182DOD     C391367  22.042  18.302  24.190 -0.1266 -0.1455  0.0228
49183DOD     C191368   9.295  13.384  19.109  0.1097  0.0923 -0.1065
49183DOD     C291369   9.170  13.305  19.597  0.0674 -0.0808  0.1399
49183DOD     C391370   9.157  13.046  19.979 -0.0834  0.3047  0.0428
49184DOD     C191371   0.050  29.470   6.862  0.0797 -0.0764 -0.1352
49184DOD     C291372  30.180  29.026   6.799 -0.1072  0.2425  0.0457
49184DOD     C391373  29.916  28.690   6.529  0.2094  0.3126  0.0507
49185DOD     C191374  26.351  15.084  20.117  0.1207 -0.1024  0.2088
49185DOD     C291375  26.695  14.719  20.108  0.1767  0.2531  0.1849
49185DOD     C391376  26.750  14.453  19.714 -0.0123 -0.2522  0.1171
49186DOD     C191377   1.757  19.626   8.449 -0.0521 -0.0364  0.0500
49186DOD     C291378   1.908  19.709   8.906 -0.2223  0.2451 -0.1889
49186DOD     C391379   1.835  19.871   9.360 -0.1355  0.2452  0.1249
49187DOD     C191380  16.097  26.682  24.568  0.2336 -0.0439  0.2404
49187DOD     C291381  16.327  26.731  24.992  0.4137  0.1462  0.2624
49187DOD     C391382  16.134  26.566  25.405  0.2078 -0.1929  0.0226
49188DOD     C191383  10.089   4.679  28.919 -0.1977 -0.4964  0.1045
49188DOD     C291384  10.073   4.309  28.607  0.0429  0.0683  0.3501
49188DOD     C391385   9.933   3.948  28.387 -0.1221  0.0095 -0.3082
49189DOD     C191386  20.032  26.128   6.331 -0.0082 -0.0815  0.2100
49189DOD     C291387  19.699  26.437   6.258 -0.0955 -0.0629  0.0641
49189DOD     C391388  19.621  26.856   6.347  0.0581  0.1458  0.3456
49190DOD     C191389  17.748   0.488  15.827 -0.1581 -0.1349 -0.0781
49190DOD     C291390  17.445   0.225  16.085 -0.2819  0.2738  0.1426
49190DOD     C391391  16.976   0.064  16.036  0.0766  0.2001  0.1225
49191DOD     C191392   0.925   0.770  28.098  0.1325  0.0574 -0.0487
49191DOD     C291393   0.745   0.377  28.310  0.0705  0.3210  0.1108
49191DOD     C391394   0.463  30.366  28.352 -0.1865  0.1861  0.1175
49192DOD     C191395  14.605  18.479   0.991 -0.0111 -0.3086 -0.0429
49192DOD     C291396  15.089  18.588   0.963 -0.0100  0.2324 -0.0963
49192DOD     C391397  15.540  18.493   1.057 -0.0989 -0.1500  0.0134
49193DOD     C191398  25.278   1.496  27.094  0.0169 -0.0776 -0.0608
49193DOD     C291399  25.213   1.195  26.764 -0.0458  0.1346 -0.1298
49193DOD     C391400  25.082   0.749  26.799  0.1789  0.1159 -0.2024
49194DOD     C191401  14.035  26.468  28.268 -0.0727 -0.1889 -0.0196
49194DOD     C291402  14.420  26.704  28.251 -0.0925  0.0393 -0.1508
49194DOD     C391403  14.482  27.141  28.324 -0.2588  0.1085 -0.0068
49195DOD     C191404  27.154   1.656   5.563  0.2324 -0.0153  0.1269
49195DOD     C291405  26.816   1.378   5.759  0.0581 -0.1090  0.1030
49195DOD     C391406  26.585   1.169   6.130  0.1954  0.0944 -0.0144
49196DOD     C191407  14.429  29.572  13.964  0.0792 -0.0528 -0.0977
49196DOD     C291408  14.439  29.240  13.667  0.3522 -0.0769  0.1567
49196DOD     C391409  14.542  28.839  13.464 -0.1269  0.0054 -0.1377
49197DOD     C191410  14.032   9.461   2.335 -0.4542 -0.0203  0.2209
49197DOD     C291411  14.516   9.606   2.313  0.1098  0.1366  0.1756
49197DOD     C391412  14.929   9.780   2.263  0.3858 -0.1550 -0.2131
49198DOD     C191413   7.180  23.655   9.851 -0.0056  0.1365  0.0291
49198DOD     C291414   6.981  23.704   9.419 -0.0619  0.2009 -0.1843
49198DOD     C391415   6.861  23.974   9.028  0.0129 -0.1219 -0.0092
49199DOD     C191416  19.429  20.652   7.325  0.2255  0.0948 -0.2215
49199DOD     C291417  19.221  20.202   7.460 -0.1463 -0.2999 -0.3943
49199DOD     C391418  18.897  19.874   7.407  0.1787  0.3591  0.0249
49200DOD     C191419  17.837  15.111  21.235 -0.2455 -0.1660 -0.0942
49200DOD     C291420  17.427  15.295  21.070  0.4119 -0.0359 -0.0110
49200DOD     C391421  17.200  15.348  20.653 -0.3218 -0.0430 -0.2277
49201DOD     C191422  16.668   3.054  18.279 -0.0308  0.2238 -0.0884
49201DOD     C291423  16.529   3.463  18.430  0.1569 -0.2891  0.1851
49201DOD     C391424  16.206   3.729  18.642  0.1563  0.0320  0.3648
49202DOD     C191425  22.351  18.733  11.217  0.0917  0.1805  0.1879
49202DOD     C291426  22.093  18.774  10.794  0.1826  0.1633  0.0224
49202DOD     C391427  21.680  18.942  10.568 -0.0781  0.1716 -0.3063
49203DOD     C191428  20.193  21.997   5.130 -0.1087  0.2661  0.2341
49203DOD     C291429  20.107  22.155   5.556 -0.1060 -0.1069  0.2031
49203DOD     C391430  20.064  22.298   6.027 -0.0058 -0.0453  0.3737
49204DOD     C191431  10.429  20.549   4.197 -0.1144 -0.2469 -0.1165
49204DOD     C291432  10.678  20.136   4.109 -0.3098 -0.0010 -0.1746
49204DOD     C391433  10.785  19.767   4.334 -0.0414  0.0804  0.0432
49205DOD     C191434  14.642  17.737  27.631 -0.3495  0.0055 -0.0640
49205DOD     C291435  14.285  17.846  27.901  0.0240  0.1100 -0.1975
49205DOD     C391436  13.799  17.878  27.886 -0.0088  0.2900  0.1866
49206DOD     C191437  10.613   2.037   8.436  0.0065  0.0072  0.0265
49206DOD     C291438  10.802   2.228   8.803  0.1106  0.0444  0.0895
49206DOD     C391439  10.649   2.521   9.144  0.1198  0.0675 -0.0227
49207DOD     C191440   8.058   0.747  24.729  0.1341  0.0552 -0.0548
49207DOD     C291441   8.511   0.608  24.671 -0.0249  0.1148  0.0554
49207DOD     C391442   8.817   0.750  24.345 -0.2858  0.0096  0.3567
49208DOD     C191443  13.373   9.661   3.795 -0.0364 -0.0962  0.1676
49208DOD     C291444  13.030   9.694   3.445 -0.1726  0.2993  0.3236
49208DOD     C391445  12.623   9.731   3.196  0.0810 -0.2101  0.2277
49209DOD     C191446   1.308  18.810   3.993  0.0151  0.1632 -0.2468
49209DOD     C291447   1.476  18.799   3.553 -0.4035  0.2804 -0.2224
49209DOD     C391448   1.922  18.773   3.366 -0.0707  0.0897  0.1574
49210DOD     C191449  29.018  29.584  16.008  0.2093  0.1067 -0.0829
49210DOD     C291450  29.089  29.336  15.612 -0.0486 -0.0726  0.0066
49210DOD     C391451  28.810  29.161  15.330  0.1766  0.0726 -0.0444
49211DOD     C191452   6.365  10.444  18.413  0.1211  0.0910 -0.2721
49211DOD     C291453   5.977  10.272  18.570  0.0098  0.0395  0.1104
49211DOD     C391454   5.681   9.970  18.361  0.0980 -0.1955  0.1717
49212DOD     C191455  10.862  27.198  20.125 -0.0165  0.0991  0.2388
49212DOD     C291456  10.628  27.095  19.698 -0.2482  0.0763  0.1277
49212DOD     C391457  10.726  26.775  19.410 -0.0458  0.0619  0.1291
49213DOD     C191458  12.015  26.264   7.382 -0.2861 -0.2038  0.1958
49213DOD     C291459  12.244  26.011   6.964  0.0284 -0.0530 -0.2732
49213DOD     C391460  12.098  26.013   6.505 -0.3582 -0.4419 -0.0202
49214DOD     C191461  22.252   1.192   2.366 -0.0067 -0.1424  0.1288
49214DOD     C291462  22.124   1.458   1.968 -0.0256  0.4416  0.0207
49214DOD     C391463  21.949   1.649   1.520  0.2058  0.2547  0.1641
49215DOD     C191464   9.474  14.050  21.714  0.0654  0.3013 -0.0101
49215DOD     C291465   9.467  14.516  21.817  0.1617  0.0659  0.0130
49215DOD     C391466   9.091  14.696  21.998  0.3919 -0.0804  0.0306
49216DOD     C191467  13.663   5.723  25.892  0.0678 -0.0230 -0.1549
49216DOD     C291468  13.601   5.321  26.019  0.2672 -0.0986 -0.1280
49216DOD     C391469  13.826   4.910  25.985 -0.1923 -0.1375  0.1549
49217DOD     C191470  17.139  13.431   2.337  0.3427  0.4705 -0.2368
49217DOD     C291471  17.318  13.839   2.516  0.2220  0.5329  0.0012
49217DOD     C391472  17.622  13.997   2.925  0.3121 -0.3185 -0.0297
49218DOD     C191473  15.594  24.529  29.665 -0.0601  0.0585 -0.1670
49218DOD     C291474  15.270  24.277  29.783 -0.1527  0.1963  0.1716
49218DOD     C391475  14.861  24.081  29.928 -0.1932 -0.0437  0.0270
49219DOD     C191476   1.423  22.979   4.091 -0.2000  0.1483 -0.0351
49219DOD     C291477   1.712  22.718   4.269 -0.0509 -0.0183  0.1597
49219DOD     C391478   1.929  22.476   4.617  0.2089 -0.0006 -0.2669
49220DOD     C191479  14.962   3.759  13.718  0.2643 -0.3019 -0.1122
49220DOD     C291480  14.631   3.487  13.554  0.0607 -0.0024  0.1921
49220DOD     C391481  14.192   3.376  13.416 -0.0801 -0.2321 -0.3207
49221DOD     C191482  11.228  25.386  22.908 -0.2000 -0.1242  0.0808
49221DOD     C291483  11.167  25.536  22.479  0.1379  0.2324 -0.0377
49221DOD     C391484  11.170  25.845  22.165 -0.4080 -0.0746 -0.2554
49222DOD     C191485  24.335   8.043  21.967 -0.1154  0.6616  0.2918
49222DOD     C291486  24.236   8.435  22.215  0.0756 -0.0967  0.0683
49222DOD     C391487  24.050   8.501  22.624 -0.0087 -0.2828 -0.2054
49223DOD     C191488  26.857   4.263  28.276  0.0949 -0.6155  0.1645
49223DOD     C291489  26.617   4.401  27.891 -0.0501 -0.2638 -0.1981
49223DOD     C391490  26.399   4.741  27.704  0.1659 -0.2961 -0.0072
49224DOD     C191491  11.577  14.652  10.165  0.0683  0.0182 -0.1930
49224DOD     C291492  11.409  14.944  10.509 -0.1049  0.0832  0.0230
49224DOD     C391493  11.361  15.009  11.012  0.3204 -0.1739  0.0268
49225DOD     C191494  10.846   5.711  11.633  0.1061  0.1587 -0.4399
49225DOD     C291495  11.056   6.055  11.575 -0.0065  0.1607 -0.2927
49225DOD     C391496  11.390   6.134  11.259 -0.0049  0.0440 -0.1277
49226DOD     C191497   8.210  12.052  28.343  0.0191  0.0112 -0.2537
49226DOD     C291498   8.420  11.845  28.709  0.0103  0.2332  0.1185
49226DOD     C391499   8.649  12.002  29.095 -0.3141  0.1046  0.2124
49227DOD     C191500   2.760   8.325   7.547 -0.0708 -0.1155  0.0708
49227DOD     C291501   3.004   8.607   7.276  0.0050  0.0786  0.1588
49227DOD     C391502   2.995   8.854   6.933 -0.1524 -0.1519 -0.0636
49228DOD     C191503   1.967   3.040   4.474  0.2007 -0.1907 -0.2729
49228DOD     C291504   1.894   2.902   4.916 -0.0579 -0.2192 -0.1016
49228DOD     C391505   1.783   2.833   5.375 -0.1463  0.3388 -0.2901
49229DOD     C191506  21.918  12.507   5.253  0.1078 -0.1824  0.1481
49229DOD     C291507  21.940  12.345   4.799 -0.0239  0.0415  0.0254
49229DOD     C391508  22.062  12.032   4.455 -0.0185 -0.2034 -0.1269
49230DOD     C191509   4.858  20.729   8.635  0.1546 -0.0522 -0.0998
49230DOD     C291510   5.059  20.947   8.300  0.0439  0.1110  0.1671
49230DOD     C391511   5.459  21.055   8.001  0.3669 -0.1670 -0.0126
49231DOD     C191512   8.221  29.506   2.963 -0.2269  0.0099  0.1209
49231DOD     C291513   7.949  29.890   3.101 -0.0660  0.0484  0.0644
49231DOD     C391514   7.740  30.137   3.411  0.1251  0.0679 -0.0627
49232DOD     C191515   6.278   0.504  11.192 -0.0374 -0.1346 -0.1137
49232DOD     C291516   6.488   0.861  11.338 -0.0974  0.3476 -0.1476
49232DOD     C391517   6.704   1.268  11.308 -0.0597 -0.2153 -0.0824
49233DOD     C191518  18.854  25.462  25.866 -0.1214  0.2576  0.0622
49233DOD     C291519  19.141  25.523  25.530 -0.1223 -0.1944  0.0417
49233DOD     C391520  19.244  25.782  25.160 -0.0016  0.2514  0.1611
49234DOD     C191521  22.183   4.719  13.980 -0.3245  0.1019 -0.0699
49234DOD     C291522  22.401   5.025  14.235  0.0212  0.1643 -0.4027
49234DOD     C391523  22.387   5.305  14.629 -0.3152 -0.0411 -0.1153
49235DOD     C191524  13.094   4.788   4.889 -0.0475  0.2195  0.2637
49235DOD     C291525  12.738   4.516   4.779 -0.0830  0.1059  0.1862
49235DOD     C391526  12.295   4.467   4.639 -0.1700  0.1141 -0.1382
49236DOD     C191527   6.549  19.269  21.398  0.1571  0.4196  0.2018
49236DOD     C291528   6.111  19.350  21.537 -0.0412  0.0704 -0.2688
49236DOD     C391529   5.669  19.252  21.683  0.2464 -0.0517 -0.0758
49237DOD     C191530   7.592  28.957  21.578 -0.0642 -0.0032 -0.0035
49237DOD     C291531   7.701  28.786  21.979 -0.0883  0.0888  0.1026
49237DOD     C391532   8.079  28.795  22.239 -0.2548  0.3125 -0.0404
49238DOD     C191533   3.969  27.112   8.585 -0.3078  0.3827  0.2089
49238DOD     C291534   3.840  27.291   8.970 -0.0141  0.1377 -0.0163
49238DOD     C391535   3.497  27.438   9.283  0.1897 -0.1756 -0.1643
49239DOD     C191536   2.955   2.062  15.457  0.0096 -0.0269 -0.0452
49239DOD     C291537   2.583   2.310  15.284  0.0735 -0.0183 -0.1700
49239DOD     C391538   2.288   2.408  14.912 -0.2300  0.1978  0.1941
49240DOD     C191539  29.411   1.448  10.536  0.1872  0.2367  0.1560
49240DOD     C291540  29.023   1.753  10.564  0.0590  0.2926 -0.1639
49240DOD     C391541  28.642   1.986  10.679  0.2750 -0.0417 -0.1369
49241DOD     C191542  14.033  29.361   4.867  0.1274 -0.0180 -0.0091
49241DOD     C291543  14.176  29.664   5.126  0.3197 -0.3114  0.1701
49241DOD     C391544  14.194  29.932   5.521 -0.1592  0.1895  0.0240
49242DOD     C191545  29.421  21.769   5.031  0.0016  0.1242 -0.1085
49242DOD     C291546  29.806  21.995   4.799  0.0581 -0.0995  0.1375
49242DOD     C391547  30.272  22.163   4.716  0.3691 -0.1832  0.0850
49243DOD     C191548   2.355  25.929  11.920  0.1217  0.2029  0.2760
49243DOD     C291549   2.262  25.667  11.510  0.2185 -0.0688 -0.4794
49243DOD     C391550   1.912  25.388  11.315 -0.0633 -0.2975  0.3989
49244DOD     C191551  28.890  16.976  27.562 -0.1941 -0.2212 -0.0184
49244DOD     C291552  28.585  17.270  27.402 -0.0046 -0.1904 -0.1420
49244DOD     C391553  28.092  17.357  27.402 -0.0798 -0.3742  0.0331
49245DOD     C191554  14.161  19.032   7.651  0.0664  0.0408  0.0379
49245DOD     C291555  14.165  18.721   7.287 -0.4590 -0.1009  0.0254
49245DOD     C391556  13.926  18.450   7.022 -0.0737  0.2062 -0.2991
49246DOD     C191557  28.677  28.011   6.467  0.0622 -0.1277  0.1358
49246DOD     C291558  28.517  28.461   6.467  0.2232  0.4009  0.0352
49246DOD     C391559  28.495  28.915   6.566  0.0996 -0.4037  0.1117
49247DOD     C191560   4.043  12.965  20.874 -0.0067  0.2914  0.0535
49247DOD     C291561   4.479  12.965  20.914 -0.2124 -0.0594  0.0129
49247DOD     C391562   4.943  12.926  20.717  0.4904 -0.3543  0.2779
49248DOD     C191563  11.432  12.948  11.514 -0.1093 -0.0628  0.1295
49248DOD     C291564  11.858  12.868  11.731  0.2126  0.1072 -0.2614
49248DOD     C391565  12.010  12.737  12.166  0.2814 -0.1050  0.0975
49249DOD     C191566   5.289  18.136  10.104 -0.2085  0.0157 -0.0876
49249DOD     C291567   5.610  18.317   9.869 -0.0594 -0.1579 -0.3713
49249DOD     C391568   5.934  18.592   9.648  0.3492 -0.0808 -0.0305
49250DOD     C191569  19.597  21.214   0.181 -0.1127  0.3358 -0.1217
49250DOD     C291570  19.847  21.579   0.107  0.0352 -0.2673  0.0095
49250DOD     C391571  19.932  22.085   0.030 -0.0052  0.0339 -0.0021
49251DOD     C191572   8.899  26.101  29.543  0.0224  0.1378 -0.0518
49251DOD     C291573   9.082  26.009  29.121  0.0759 -0.1671  0.1357
49251DOD     C391574   9.498  26.156  28.912  0.1468  0.1102 -0.1016
49252DOD     C191575  17.638  29.976  15.081 -0.1851  0.0037 -0.0930
49252DOD     C291576  17.474   0.034  15.185  0.3314  0.1495  0.2525
49252DOD     C391577  17.508   0.413  15.375 -0.1762 -0.0755 -0.1335
49253DOD     C191578  10.654  21.345   9.879 -0.1783  0.2463  0.0311
49253DOD     C291579  10.352  21.478  10.166  0.0347  0.1557  0.0672
49253DOD     C391580   9.904  21.477  10.157 -0.1971 -0.0626 -0.0693
49254DOD     C191581   5.016  27.522  11.670  0.0141  0.2785 -0.3180
49254DOD     C291582   5.379  27.473  11.359 -0.1384 -0.4451  0.1318
49254DOD     C391583   5.412  27.589  10.879 -0.3283 -0.2690  0.1027
49255DOD     C191584  22.433   3.975   9.105  0.3162 -0.0933 -0.2933
49255DOD     C291585  22.789   4.100   8.813  0.1192 -0.1405 -0.0503
49255DOD     C391586  23.232   4.141   8.784 -0.0034 -0.2054  0.2894
49256DOD     C191587  18.203  23.866   8.700  0.0868 -0.1373  0.2652
49256DOD     C291588  17.995  23.472   8.540  0.3314  0.0833  0.1168
49256DOD     C391589  17.690  23.125   8.657  0.0222 -0.3382  0.0313
49257DOD     C191590  22.903  20.664  22.730 -0.0029  0.0509 -0.0648
49257DOD     C291591  22.525  20.796  22.969  0.0120  0.0401 -0.1761
49257DOD     C391592  22.141  20.974  23.186  0.1740 -0.2704 -0.1866
49258DOD     C191593  26.182   2.543  22.998 -0.3818 -0.0977 -0.0425
49258DOD     C291594  26.208   2.469  22.545 -0.1665  0.0294  0.1173
49258DOD     C391595  26.271   2.475  22.102  0.0207 -0.2891 -0.0917
49259DOD     C191596  29.824   7.815  10.684 -0.0407  0.1257 -0.1318
49259DOD     C291597  30.244   7.874  10.542 -0.1399  0.0661  0.0348
49259DOD     C391598   0.307   7.683  10.379  0.0649 -0.2025 -0.0402
49260DOD     C191599  20.520   9.379   9.761  0.2099  0.1332 -0.1852
49260DOD     C291600  20.161   9.061   9.749  0.0508  0.0997  0.1003
49260DOD     C391601  19.750   8.981   9.618  0.3651 -0.1753  0.0366
49261DOD     C191602  23.677  21.028   5.289 -0.0927  0.2805  0.1576
49261DOD     C291603  23.606  21.233   4.876  0.2394  0.0845 -0.0436
49261DOD     C391604  23.537  21.486   4.504 -0.2593 -0.0803 -0.1636
49262DOD     C191605   6.943  27.262  10.041  0.0120  0.2997 -0.0803
49262DOD     C291606   7.196  27.103  10.391 -0.4403  0.0428  0.0011
49262DOD     C391607   7.506  26.898  10.692  0.0752 -0.0262 -0.2992
49263DOD     C191608  12.512  12.210  29.596  0.1109  0.0251  0.3152
49263DOD     C291609  12.214  11.973  29.403 -0.2013 -0.1416 -0.0442
49263DOD     C391610  11.916  11.669  29.219  0.2287 -0.0129 -0.3385
49264DOD     C191611  18.612   7.082  17.923  0.0551 -0.0304  0.2977
49264DOD     C291612  18.974   7.313  17.790  0.0358 -0.1667 -0.0893
49264DOD     C391613  18.945   7.675  17.467  0.0281 -0.3156 -0.2610
49265DOD     C191614  12.996   1.713  12.292 -0.2762  0.3016 -0.1743
49265DOD     C291615  13.365   2.003  12.212 -0.1731  0.2667 -0.1554
49265DOD     C391616  13.439   2.425  12.103 -0.0049  0.0789  0.1768
49266DOD     C191617  22.181   0.627  24.676  0.2712  0.0546  0.0511
49266DOD     C291618  22.553   0.354  24.775  0.0718  0.0237  0.2601
49266DOD     C391619  22.871   0.096  24.548 -0.0697 -0.1438  0.1199
49267DOD     C191620  28.366   1.849  11.054 -0.2230 -0.4044  0.0653
49267DOD     C291621  28.064   2.159  11.335  0.2992  0.4883 -0.2188
49267DOD     C391622  27.889   2.597  11.379  0.0455  0.0266 -0.1848
49268DOD     C191623  21.536  23.519   7.976  0.0034  0.2914  0.5314
49268DOD     C291624  21.183  23.836   8.114  0.0159 -0.1055  0.0738
49268DOD     C391625  20.750  23.757   8.137  0.0855  0.0173 -0.1722
49269DOD     C191626   9.975  25.883  17.651 -0.1186  0.0354 -0.1524
49269DOD     C291627   9.659  25.593  17.440  0.1092 -0.0897  0.1260
49269DOD     C391628   9.424  25.568  17.042 -0.1488  0.1634 -0.1217
49270DOD     C191629  18.849   3.809  12.486  0.3043 -0.0369 -0.3160
49270DOD     C291630  19.153   4.158  12.294 -0.0603 -0.0597  0.1463
49270DOD     C391631  19.340   4.406  11.911  0.0885 -0.0271 -0.1312
49271DOD     C191632  28.119   9.235  24.148 -0.2642 -0.0422  0.1855
49271DOD     C291633  28.581   9.276  24.131  0.0512  0.0641  0.2026
49271DOD     C391634  28.878   9.637  24.129  0.0243  0.0119  0.0529
49272DOD     C191635   7.887  12.689  22.637 -0.0538  0.2493 -0.2379
49272DOD     C291636   7.576  12.262  22.689  0.1878  0.1914  0.3797
49272DOD     C391637   7.114  12.143  22.485 -0.1477 -0.1731 -0.0090
49273DOD     C191638  11.557  12.257   5.174  0.0236 -0.4605 -0.1039
49273DOD     C291639  11.561  11.822   5.231  0.0710 -0.0701 -0.1442
49273DOD     C391640  11.581  11.409   5.327  0.1019  0.1213  0.0711
49274DOD     C191641  15.214  22.509   8.412  0.0501 -0.3217 -0.2057
49274DOD     C291642  15.267  22.833   8.738 -0.0851 -0.1648  0.1646
49274DOD     C391643  15.061  23.213   8.900 -0.3165  0.0442  0.2448
49275DOD     C191644   5.456   9.667  22.218 -0.1273 -0.0201  0.0914
49275DOD     C291645   5.599  10.005  22.446  0.1408  0.0121 -0.0726
49275DOD     C391646   5.544  10.264  22.827 -0.3214  0.1512  0.1326
49276DOD     C191647  14.806  18.227  30.073  0.2089 -0.0980 -0.1671
49276DOD     C291648  15.114  18.361  29.743  0.1639 -0.1879  0.0637
49276DOD     C391649  15.361  18.393  29.354 -0.3143 -0.2539 -0.1124
49277DOD     C191650  18.678  13.495   9.860  0.3061 -0.2112 -0.1640
49277DOD     C291651  18.731  13.939   9.771 -0.0711  0.1525  0.0813
49277DOD     C391652  19.075  14.215   9.642  0.0428 -0.0961 -0.2982
49278DOD     C191653  24.351  24.179   2.605 -0.1586  0.2568 -0.1700
49278DOD     C291654  24.036  24.217   2.293  0.0305  0.0400  0.3492
49278DOD     C391655  23.635  24.470   2.433  0.0473 -0.0582 -0.1063
49279DOD     C191656  25.336  14.446  22.911 -0.1120 -0.0685 -0.1684
49279DOD     C291657  25.047  14.444  22.552  0.0235 -0.0179 -0.1063
49279DOD     C391658  24.834  14.082  22.335  0.2912 -0.0032  0.0697
49280DOD     C191659  24.030  24.538  22.447  0.1872  0.0072  0.0564
49280DOD     C291660  23.843  24.959  22.401  0.0434  0.1171  0.1249
49280DOD     C391661  23.486  25.275  22.255 -0.2369  0.1568 -0.0520
49281DOD     C191662  22.361  20.938   6.977 -0.3075 -0.1471  0.0543
49281DOD     C291663  21.985  20.662   7.091 -0.0902  0.1003  0.1330
49281DOD     C391664  21.574  20.670   7.301 -0.2218 -0.0722 -0.1358
49282DOD     C191665   0.137   8.856   5.341 -0.1042 -0.6124 -0.1486
49282DOD     C291666   0.598   8.817   5.443  0.0565  0.2371  0.1119
49282DOD     C391667   0.833   8.424   5.587 -0.4501 -0.0792 -0.0739
49283DOD     C191668  24.007   0.778  14.118 -0.3322  0.0148  0.0198
49283DOD     C291669  24.418   0.476  14.023 -0.0611 -0.2322  0.0329
49283DOD     C391670  24.288   0.005  13.943  0.0056 -0.3588 -0.1069
49284DOD     C191671   4.395  18.608  19.443  0.0953  0.3401 -0.2236
49284DOD     C291672   4.232  19.017  19.251  0.0676  0.2576 -0.0371
49284DOD     C391673   3.839  19.084  19.092 -0.0206  0.0304 -0.2432
49285DOD     C191674   6.238   2.415   1.434 -0.1009 -0.2501 -0.2068
49285DOD     C291675   6.047   2.670   1.848 -0.1740 -0.1245  0.0308
49285DOD     C391676   6.271   2.963   2.178  0.1011  0.0888  0.0121
49286DOD     C191677  18.103  15.443   6.268  0.0465 -0.0918  0.1445
49286DOD     C291678  18.049  15.534   5.891 -0.3576  0.0085 -0.0956
49286DOD     C391679  18.154  15.440   5.448  0.1024 -0.2931 -0.0854
49287DOD     C191680   0.313   9.204  12.209 -0.0341 -0.0476 -0.0214
49287DOD     C291681   0.114   8.870  12.394 -0.1159 -0.2100 -0.2653
49287DOD     C391682  30.157   8.530  12.220  0.0209  0.0200  0.1963
49288DOD     C191683   3.060   4.623   6.291 -0.1121 -0.4322 -0.0115
49288DOD     C291684   2.650   4.732   6.278 -0.0130 -0.2587 -0.0008
49288DOD     C391685   2.270   4.570   6.139 -0.0182  0.0873  0.0862
49289DOD     C191686   5.557   9.107  25.252  0.1207  0.1790 -0.2239
49289DOD     C291687   5.840   8.820  25.535  0.3473  0.0354  0.1270
49289DOD     C391688   6.071   8.784  25.943  0.2969 -0.3615 -0.1140
49290DOD     C191689  18.914  20.259   5.570  0.3906  0.2968  0.3720
49290DOD     C291690  18.924  19.810   5.737 -0.0043 -0.0404 -0.2196
49290DOD     C391691  19.243  19.482   5.528 -0.0266 -0.1108  0.0224
49291DOD     C191692  27.876   4.504  16.823 -0.2195  0.0507  0.1253
49291DOD     C291693  28.098   4.846  16.917  0.0926 -0.4047 -0.2772
49291DOD     C391694  28.546   4.944  17.100 -0.5627 -0.1955  0.1321
49292DOD     C191695  20.275  20.157   7.108  0.0181 -0.2004 -0.3565
49292DOD     C291696  20.031  20.129   6.707 -0.0920 -0.0741 -0.0124
49292DOD     C391697  19.645  20.033   6.436  0.0484  0.2350 -0.2491
49293DOD     C191698   3.783  10.235  12.366  0.0345  0.0674  0.1746
49293DOD     C291699   3.886  10.698  12.424  0.0736 -0.0086 -0.2621
49293DOD     C391700   3.909  11.086  12.681 -0.1752 -0.1617 -0.1884
49294DOD     C191701  10.939   4.759  29.525  0.0936 -0.0144  0.1505
49294DOD     C291702  10.804   5.108  29.790 -0.1313 -0.1355  0.1593
49294DOD     C391703  10.708   5.408  30.072 -0.1642 -0.0124  0.3703
49295DOD     C191704   6.862  13.324  12.902  0.2450  0.1275  0.1402
49295DOD     C291705   6.507  13.564  12.874 -0.2129 -0.1100  0.3786
49295DOD     C391706   6.147  13.537  12.647  0.0395 -0.0701  0.2268
49296DOD     C191707  17.165   4.310  26.617 -0.5298 -0.0960 -0.2430
49296DOD     C291708  17.071   4.051  26.255  0.2085  0.0378  0.0309
49296DOD     C391709  17.160   3.650  26.007  0.1121  0.0207  0.1838
49297DOD     C191710   2.510   4.928  28.870 -0.0747  0.1321 -0.4684
49297DOD     C291711   2.336   4.502  28.705 -0.1513  0.1051 -0.1163
49297DOD     C391712   2.071   4.132  28.629  0.0658 -0.0845  0.1283
49298DOD     C191713  23.554   5.392  25.106  0.0733 -0.0615  0.1241
49298DOD     C291714  23.672   5.702  24.762  0.1192  0.2136 -0.1230
49298DOD     C391715  23.818   5.800  24.314 -0.0296 -0.1247  0.2461
49299DOD     C191716   0.495   5.008  16.256 -0.0253  0.1069 -0.2275
49299DOD     C291717   0.828   4.849  16.030  0.0329 -0.1326  0.1089
49299DOD     C391718   1.220   4.658  16.082  0.0922 -0.1525  0.0493
49300DOD     C191719  13.411   2.563  20.490  0.0571 -0.1555  0.0059
49300DOD     C291720  13.524   3.005  20.543  0.0277 -0.1022 -0.1911
49300DOD     C391721  13.142   3.313  20.534  0.0983  0.2028  0.0674
49301DOD     C191722  24.676  19.339  24.168  0.0944 -0.1269  0.0775
49301DOD     C291723  24.328  19.238  23.860 -0.1132  0.1398 -0.1158
49301DOD     C391724  24.251  19.180  23.385 -0.0227 -0.0003 -0.2315
49302DOD     C191725   7.674  14.901   7.274 -0.0817  0.0591  0.0264
49302DOD     C291726   7.341  15.201   7.504  0.2876  0.1243 -0.1341
49302DOD     C391727   7.187  15.589   7.296 -0.2129 -0.1006 -0.1160
49303DOD     C191728   3.745  18.104  14.720  0.1371 -0.0943 -0.0432
49303DOD     C291729   3.454  17.760  14.633  0.1358  0.0519  0.4184
49303DOD     C391730   3.073  17.667  14.329 -0.0971 -0.0835 -0.3763
49304DOD     C191731   9.877   4.059   1.211 -0.0113  0.1601 -0.1817
49304DOD     C291732   9.691   3.830   0.838  0.2404 -0.0708 -0.0471
49304DOD     C391733   9.443   3.637   0.490  0.1381 -0.0360  0.0037
49305DOD     C191734  15.289  26.317   2.323  0.0787  0.3302  0.0799
49305DOD     C291735  14.859  26.219   2.330  0.3121 -0.0138 -0.1440
49305DOD     C391736  14.364  26.248   2.253  0.1844  0.0760 -0.1584
49306DOD     C191737   8.262   8.416  29.786  0.2570 -0.0766 -0.0711
49306DOD     C291738   8.547   8.784  29.875  0.1826  0.0570  0.0967
49306DOD     C391739   8.767   9.191  29.939  0.2914 -0.0385 -0.3660
49307DOD     C191740  17.911   8.436  25.370 -0.0017 -0.0784  0.1488
49307DOD     C291741  17.807   8.263  25.796  0.2744  0.0405 -0.1222
49307DOD     C391742  17.752   7.882  26.086  0.0464 -0.0292  0.3589
49308DOD     C191743  16.364  18.032  22.321 -0.3772 -0.2639 -0.1522
49308DOD     C291744  16.118  17.726  22.492  0.2733 -0.1268  0.2891
49308DOD     C391745  16.046  17.258  22.505 -0.1091 -0.0095 -0.1056
49309DOD     C191746   8.065  13.932   9.491  0.0493 -0.1366 -0.2486
49309DOD     C291747   8.413  14.066   9.202  0.2211 -0.1004  0.0017
49309DOD     C391748   8.894  14.045   9.231 -0.1720  0.1399 -0.2544
49310DOD     C191749   7.164   9.564  25.391 -0.0569 -0.1049  0.1933
49310DOD     C291750   7.242   9.530  24.961  0.1176 -0.5019  0.0114
49310DOD     C391751   7.278   9.157  24.696  0.0575  0.2612  0.0028
49311DOD     C191752  26.896   9.647  24.770  0.1682  0.2833  0.0089
49311DOD     C291753  27.265   9.901  24.871  0.1016 -0.1697  0.3839
49311DOD     C391754  27.630  10.147  24.891 -0.1477  0.2280  0.0368
49312DOD     C191755  18.029   5.769  21.496 -0.0743 -0.1368 -0.1258
49312DOD     C291756  18.246   6.154  21.644 -0.2718  0.2755  0.0563
49312DOD     C391757  18.575   6.384  21.834 -0.0039  0.2347 -0.1743
49313DOD     C191758  28.653  24.792   0.803 -0.1719  0.2722  0.1228
49313DOD     C291759  28.465  24.787   1.201  0.1683  0.1786 -0.0227
49313DOD     C391760  28.414  24.425   1.488 -0.0324 -0.1032  0.0191
49314DOD     C191761  15.765  12.663   7.161 -0.0483 -0.0392  0.1523
49314DOD     C291762  15.348  12.740   6.988 -0.0032 -0.1370  0.1255
49314DOD     C391763  15.125  13.035   6.722 -0.0096  0.1863 -0.4422
49315DOD     C191764  10.440   8.866  10.634  0.1680 -0.0797  0.4110
49315DOD     C291765  10.751   8.746  10.300  0.0785  0.3909  0.0509
49315DOD     C391766  11.124   8.548  10.095 -0.2850  0.1102 -0.1307
49316DOD     C191767   6.600  18.997  16.322 -0.1539  0.0185 -0.0604
49316DOD     C291768   6.518  19.384  16.024  0.0529 -0.3225  0.1907
49316DOD     C391769   6.238  19.676  15.878  0.2346  0.0368 -0.1293
49317DOD     C191770  10.706  21.792  21.755  0.0640 -0.0917 -0.1399
49317DOD     C291771  10.607  22.027  22.146 -0.0766 -0.1200  0.0618
49317DOD     C391772  10.467  21.814  22.527  0.2560  0.0193 -0.0125
49318DOD     C191773  10.751  22.700   0.445  0.1924  0.3111 -0.2903
49318DOD     C291774  10.689  23.136   0.595  0.1912  0.1679 -0.1061
49318DOD     C391775  10.657  23.541   0.355  0.1098 -0.2345  0.0612
49319DOD     C191776  24.614  24.663  28.081 -0.0892  0.1863  0.3179
49319DOD     C291777  24.380  24.309  28.357 -0.0010 -0.0352  0.3967
49319DOD     C391778  24.061  24.204  28.735 -0.1297  0.1485  0.0079
49320DOD     C191779  25.423   6.000  15.597 -0.0806 -0.0447 -0.1001
49320DOD     C291780  25.340   5.647  15.814  0.2402  0.0214  0.0067
49320DOD     C391781  25.119   5.466  16.190 -0.0632 -0.3940  0.0040
49321DOD     C191782  27.305   2.489   9.103 -0.1374 -0.4535  0.0416
49321DOD     C291783  27.170   1.991   9.037 -0.0016  0.0218 -0.0960
49321DOD     C391784  27.255   1.567   9.004 -0.1118  0.3448  0.1302
49322DOD     C191785  12.325   7.703   7.861  0.0530  0.4500 -0.0134
49322DOD     C291786  12.072   7.459   8.163 -0.5159 -0.2514  0.0686
49322DOD     C391787  12.082   7.076   8.462  0.1827 -0.2666  0.0756
49323DOD     C191788  27.894   0.788   6.410  0.2133  0.0945  0.2662
49323DOD     C291789  28.270   0.971   6.631  0.1348 -0.0723 -0.0695
49323DOD     C391790  28.567   1.244   6.877 -0.1024  0.1887  0.0879
49324DOD     C191791  15.076  25.950  16.319  0.1239 -0.1294 -0.1124
49324DOD     C291792  15.193  26.291  16.063 -0.1600  0.0031  0.0851
49324DOD     C391793  15.433  26.675  16.174 -0.1726 -0.3649  0.4028
49325DOD     C191794  23.943  21.295  27.169 -0.1433 -0.2904  0.3078
49325DOD     C291795  24.113  20.813  27.076 -0.1309  0.0840 -0.0270
49325DOD     C391796  24.319  20.451  26.875  0.3461 -0.0864  0.3691
49326DOD     C191797   7.506  26.074  19.745 -0.0664 -0.1183 -0.0726
49326DOD     C291798   7.320  26.409  19.548  0.0165 -0.0913 -0.2072
49326DOD     C391799   7.168  26.736  19.254  0.0260  0.1053 -0.1141
49327DOD     C191800  11.725  17.835  17.099  0.0726  0.1053  0.0135
49327DOD     C291801  11.340  17.660  16.872 -0.1054  0.0966 -0.3841
49327DOD     C391802  11.108  17.455  16.498  0.2029 -0.0394  0.0159
49328DOD     C191803  21.003  16.589  15.701 -0.1125 -0.2305 -0.2001
49328DOD     C291804  20.574  16.556  15.515 -0.1253 -0.2300  0.2982
49328DOD     C391805  20.203  16.598  15.836  0.1767  0.2705  0.1395
49329DOD     C191806   0.907   2.021  20.428 -0.4759 -0.1437 -0.0248
49329DOD     C291807   0.865   2.229  20.012  0.1498 -0.3300  0.1716
49329DOD     C391808   0.716   2.265  19.541  0.0356  0.1233 -0.0251
49330DOD     C191809  12.675  11.751  18.439 -0.3001 -0.2521 -0.1205
49330DOD     C291810  12.340  11.486  18.264  0.2705  0.0366  0.2470
49330DOD     C391811  12.180  11.242  17.905 -0.1815 -0.2631 -0.1586
49331DOD     C191812  12.088  15.580  29.129 -0.2670  0.0210 -0.0608
49331DOD     C291813  12.249  15.433  29.548 -0.0221 -0.2654  0.1855
49331DOD     C391814  12.345  14.987  29.675 -0.1602 -0.1143 -0.0655
49332DOD     C191815   5.044  19.938  25.990  0.1377  0.1251 -0.2725
49332DOD     C291816   5.422  19.648  25.960  0.1526 -0.0269 -0.1718
49332DOD     C391817   5.757  19.333  26.095 -0.0106 -0.1756  0.1652
49333DOD     C191818   5.396   5.318  28.446  0.0021  0.0122 -0.0345
49333DOD     C291819   5.612   5.587  28.174  0.2506  0.1682 -0.0227
49333DOD     C391820   5.529   6.062  28.055  0.0475  0.3036  0.2468
49334DOD     C191821  23.373  23.335   5.876  0.1809 -0.2399  0.0072
49334DOD     C291822  23.539  23.188   5.422  0.2428 -0.1256  0.0177
49334DOD     C391823  23.530  23.227   4.950 -0.1318 -0.1526  0.1039
49335DOD     C191824  13.884  14.860  26.826 -0.0647 -0.0873 -0.0726
49335DOD     C291825  14.330  15.060  26.852 -0.1328 -0.0774 -0.0013
49335DOD     C391826  14.730  15.165  27.071 -0.0823 -0.3486  0.0271
49336DOD     C191827   2.537  29.208   6.814 -0.1248  0.1085  0.0843
49336DOD     C291828   2.735  29.245   7.217  0.1504  0.3278  0.0413
49336DOD     C391829   2.516  28.973   7.549  0.0921 -0.0915 -0.0636
49337DOD     C191830  22.148  27.294  15.470  0.0137  0.2633  0.2276
49337DOD     C291831  22.071  27.750  15.369  0.2367 -0.0932  0.0996
49337DOD     C391832  21.979  28.140  15.172 -0.2990 -0.0206 -0.2981
49338DOD     C191833  22.818  28.375  27.079  0.1347 -0.0673  0.1659
49338DOD     C291834  22.790  28.023  27.342 -0.0831  0.2251 -0.0381
49338DOD     C391835  22.921  27.561  27.349 -0.7698 -0.0479  0.0338
49339DOD     C191836  28.087  16.506   5.785  0.0373  0.3056  0.1555
49339DOD     C291837  28.087  16.457   5.315  0.0184  0.1119  0.0517
49339DOD     C391838  28.410  16.359   4.980  0.1910 -0.2289  0.0103
49340DOD     C191839   4.743  29.572   5.753 -0.1879 -0.1060  0.3310
49340DOD     C291840   4.458  29.267   5.897  0.0185  0.1634  0.1029
49340DOD     C391841   4.146  28.977   6.089 -0.0170  0.1711 -0.1923
49341DOD     C191842  20.854  26.378  16.329 -0.0440  0.2230  0.0562
49341DOD     C291843  21.213  26.572  16.495  0.3179 -0.1052 -0.1791
49341DOD     C391844  21.596  26.449  16.685  0.2725  0.3208 -0.1445
49342DOD     C191845  11.908  10.996   8.358 -0.1007  0.0890  0.2921
49342DOD     C291846  12.155  10.742   8.688 -0.2116  0.0800  0.1516
49342DOD     C391847  12.313  10.462   9.018 -0.0425  0.0408  0.1991
49343DOD     C191848  11.995   7.771  16.092 -0.1514  0.1737 -0.1097
49343DOD     C291849  12.244   7.810  16.527  0.0911  0.2353  0.1698
49343DOD     C391850  12.341   7.682  16.951 -0.3167  0.0646 -0.1171
49344DOD     C191851   4.265   6.730   9.333  0.0569  0.2644  0.3242
49344DOD     C291852   4.515   7.162   9.498 -0.0964  0.0848 -0.1377
49344DOD     C391853   4.717   7.355   9.827 -0.5624  0.1964 -0.1523
49345DOD     C191854   4.580  20.406  16.762  0.0566  0.0257  0.2977
49345DOD     C291855   4.377  20.664  17.092  0.1323 -0.0612  0.1560
49345DOD     C391856   4.402  20.836  17.564  0.1849 -0.1939 -0.1923
49346DOD     C191857  19.874  20.911  29.016 -0.0818 -0.1034  0.0211
49346DOD     C291858  19.525  20.729  28.785  0.1641  0.2015 -0.2922
49346DOD     C391859  19.176  20.477  28.570  0.1226 -0.1203  0.1366
49347DOD     C191860  29.858  22.457  22.286 -0.1360  0.1106 -0.1125
49347DOD     C291861  29.963  22.591  21.887 -0.1721 -0.0162  0.3491
49347DOD     C391862  -0.031  22.870  21.618 -0.0736 -0.1099  0.3406
49348DOD     C191863  20.630  15.865  24.073 -0.1825  0.0687 -0.0841
49348DOD     C291864  20.647  16.248  24.303  0.1571 -0.2864  0.1832
49348DOD     C391865  20.746  16.690  24.503  0.0269  0.1464 -0.2718
49349DOD     C191866   6.590  24.683  23.245 -0.1083 -0.0438  0.0001
49349DOD     C291867   6.214  24.699  22.982  0.0572  0.1034 -0.1358
49349DOD     C391868   5.780  24.582  23.147 -0.2558  0.1476  0.3517
49350DOD     C191869  20.486  27.725   4.370  0.3379  0.1858  0.0391
49350DOD     C291870  20.761  28.052   4.149  0.1483  0.1685  0.0416
49350DOD     C391871  20.869  28.200   3.755 -0.1633  0.1465  0.2657
49351DOD     C191872  12.721  10.573   0.663 -0.0658 -0.2329 -0.0468
49351DOD     C291873  12.361  10.896   0.614  0.0407  0.1942 -0.1446
49351DOD     C391874  12.146  11.317   0.618  0.1799 -0.0772 -0.1065
49352DOD     C191875  14.283  29.786   1.451  0.0669  0.1521  0.1955
49352DOD     C291876  14.452  29.998   1.078  0.1270  0.4720  0.0711
49352DOD     C391877  14.151  29.937   0.713 -0.1620 -0.2150 -0.0225
49353DOD     C191878  12.160   3.390  29.607  0.1172  0.2289  0.2559
49353DOD     C291879  11.879   3.250  29.947  0.2971 -0.0775  0.1733
49353DOD     C391880  11.589   3.000  30.230  0.3020 -0.1482  0.0885
49354DOD     C191881  28.957   3.667  23.222 -0.1336  0.1033  0.2243
49354DOD     C291882  29.297   3.955  23.073  0.2644  0.0572  0.1361
49354DOD     C391883  29.727   3.889  22.963  0.1627  0.0319  0.2398
49355DOD     C191884  23.681  18.149  14.399  0.2458  0.0774 -0.2286
49355DOD     C291885  23.734  17.815  14.667  0.1336  0.2116 -0.2052
49355DOD     C391886  23.792  17.619  15.105  0.1005  0.1382 -0.1576
49356DOD     C191887   0.194  20.077  21.199  0.1239 -0.1766  0.4025
49356DOD     C291888   0.422  20.375  20.899  0.2872  0.0487 -0.1669
49356DOD     C391889   0.334  20.633  20.483  0.0311  0.1976  0.1158
49357DOD     C191890   8.831   1.643  20.633  0.0839 -0.0760 -0.2887
49357DOD     C291891   8.816   1.450  21.060  0.3456 -0.0645  0.0238
49357DOD     C391892   9.142   1.381  21.306  0.0361  0.2912 -0.2371
49358DOD     C191893  18.124   8.065  18.629  0.2947  0.2326  0.2926
49358DOD     C291894  18.315   7.830  18.977  0.1751  0.0976 -0.1192
49358DOD     C391895  18.196   7.872  19.442  0.1134 -0.1621 -0.2606
49359DOD     C191896  28.569  10.724  24.995  0.1957 -0.0686  0.2108
49359DOD     C291897  28.199  10.815  24.686  0.1295  0.4029 -0.1497
49359DOD     C391898  27.766  10.582  24.652  0.0576 -0.1864 -0.0330
49360DOD     C191899   3.592  14.631  20.554  0.0241 -0.0997 -0.1821
49360DOD     C291900   3.611  14.174  20.741 -0.1863 -0.2104  0.0092
49360DOD     C391901   3.472  13.725  20.864 -0.2367  0.1014 -0.0568
49361DOD     C191902  29.746   1.074  25.015 -0.2198 -0.1496  0.0549
49361DOD     C291903  29.944   1.317  24.665  0.2618 -0.3116  0.2706
49361DOD     C391904  -0.048   1.395  24.419 -0.0842 -0.0233 -0.1513
49362DOD     C191905  18.785  21.141  23.830  0.1456  0.1593 -0.0597
49362DOD     C291906  18.474  21.337  24.118  0.1441 -0.1458 -0.1267
49362DOD     C391907  18.172  21.442  24.414  0.0971 -0.0694  0.0451
49363DOD     C191908  20.141   4.425  20.542 -0.0524 -0.0353 -0.0855
49363DOD     C291909  20.005   4.077  20.259 -0.1342  0.1863  0.0899
49363DOD     C391910  19.694   3.785  20.156  0.3103  0.0739 -0.0828
49364DOD     C191911  27.336   3.747  16.995  0.2256 -0.4072  0.0516
49364DOD     C291912  27.347   3.672  17.364 -0.0060  0.0005  0.0385
49364DOD     C391913  27.506   3.271  17.511 -0.0507 -0.3319  0.0335
49365DOD     C191914   3.423  21.587   7.045  0.0803 -0.1735  0.2145
49365DOD     C291915   3.619  21.539   6.637  0.3578  0.0105 -0.0983
49365DOD     C391916   3.964  21.394   6.325 -0.4083 -0.0680  0.0256
49366DOD     C191917  27.405  15.570  13.110  0.0630  0.0141  0.0019
49366DOD     C291918  27.585  15.092  13.244  0.0994 -0.2439 -0.1037
49366DOD     C391919  27.754  14.719  13.507 -0.2036 -0.0411  0.2254
49367DOD     C191920  29.386   0.904  20.934  0.0595 -0.0194  0.1842
49367DOD     C291921  29.451   1.168  20.545 -0.1707 -0.1914  0.0063
49367DOD     C391922  29.454   1.634  20.491 -0.0429  0.3754 -0.0658
49368DOD     C191923   5.739  15.563  21.645  0.0297  0.0317  0.4549
49368DOD     C291924   5.343  15.361  21.498  0.1402 -0.2157 -0.4697
49368DOD     C391925   5.317  14.880  21.462  0.1433 -0.3387  0.0595
49369DOD     C191926  15.204  15.415  11.881  0.2841  0.1447  0.1105
49369DOD     C291927  15.073  15.164  12.174  0.0998 -0.0215 -0.0923
49369DOD     C391928  14.656  14.965  12.255  0.2910  0.2072 -0.3208
49370DOD     C191929  23.166   2.270  14.181 -0.0339 -0.3356 -0.1112
49370DOD     C291930  22.724   2.475  14.300 -0.2156 -0.0427 -0.0715
49370DOD     C391931  22.360   2.346  14.045  0.0830  0.0902 -0.0493
49371DOD     C191932   5.069   5.824   9.579  0.0215  0.1152  0.0706
49371DOD     C291933   5.079   6.044   9.182  0.1436  0.1363  0.0819
49371DOD     C391934   5.180   5.999   8.716 -0.1404  0.5255 -0.2695
49372DOD     C191935  28.175   6.364   2.712 -0.1010  0.0640  0.0792
49372DOD     C291936  28.018   6.311   2.277  0.1850 -0.0816  0.0790
49372DOD     C391937  27.858   6.108   1.924 -0.1622  0.1264 -0.1721
49373DOD     C191938   4.884   5.965  13.120  0.0277 -0.1387 -0.2423
49373DOD     C291939   4.703   5.839  13.511  0.1024 -0.0325  0.2714
49373DOD     C391940   4.826   5.806  14.007 -0.3856 -0.0362 -0.2877
49374DOD     C191941  17.856  15.319   9.990 -0.1182  0.2870  0.2937
49374DOD     C291942  17.979  15.314   9.563 -0.2575 -0.1876  0.0293
49374DOD     C391943  18.242  15.234   9.200  0.0687 -0.2785  0.2032
49375DOD     C191944   4.159  25.605   3.525 -0.1899 -0.2580  0.0307
49375DOD     C291945   3.690  25.587   3.498 -0.1537  0.1072  0.2322
49375DOD     C391946   3.287  25.462   3.709 -0.0947 -0.1827  0.1194
49376DOD     C191947   6.078   3.515  21.097  0.0382  0.3258  0.0072
49376DOD     C291948   6.089   3.977  20.925 -0.0157  0.0965 -0.0417
49376DOD     C391949   5.950   4.349  20.729 -0.0830  0.1828 -0.1326
49377DOD     C191950   1.291   3.895  10.361 -0.3143 -0.1921 -0.0329
49377DOD     C291951   1.314   3.656   9.935 -0.0836 -0.2024 -0.0664
49377DOD     C391952   1.499   3.292   9.907 -0.0274  0.3228 -0.1941
49378DOD     C191953  19.467  13.294  12.129  0.0119  0.0405  0.3594
49378DOD     C291954  19.580  13.201  12.588 -0.3882 -0.3195 -0.2614
49378DOD     C391955  19.525  12.864  12.862  0.0101  0.1939 -0.1095
49379DOD     C191956   8.056  27.691  24.591  0.0815  0.1480 -0.0472
49379DOD     C291957   8.115  27.260  24.756  0.3096 -0.2752  0.1803
49379DOD     C391958   8.186  26.822  24.662  0.2930 -0.1218 -0.1598
49380DOD     C191959   3.582  22.546   2.794 -0.1814  0.0035  0.0780
49380DOD     C291960   3.458  22.075   2.858  0.1767  0.4831  0.4236
49380DOD     C391961   3.166  21.755   2.834  0.1896  0.0665 -0.3189
49381DOD     C191962   6.312  22.418   1.948 -0.2627 -0.0495  0.0701
49381DOD     C291963   6.072  22.215   1.635 -0.3818 -0.2544 -0.5508
49381DOD     C391964   5.917  21.846   1.476  0.1136  0.1511 -0.1869
49382DOD     C191965  16.760  28.772   7.879 -0.0197  0.0790  0.0884
49382DOD     C291966  17.041  28.784   7.496  0.1546  0.2044 -0.0645
49382DOD     C391967  17.178  28.324   7.359 -0.0529  0.2381  0.0758
49383DOD     C191968  10.131  18.457   5.177 -0.0014 -0.3320 -0.0186
49383DOD     C291969   9.721  18.206   5.157 -0.1482 -0.2038  0.1282
49383DOD     C391970   9.375  17.987   4.947 -0.1800 -0.1968 -0.2476
49384DOD     C191971   4.424   3.133   8.744  0.1647  0.1751 -0.1042
49384DOD     C291972   4.752   2.875   9.042 -0.0684  0.0859  0.1239
49384DOD     C391973   4.866   2.442   8.875 -0.2305  0.3064 -0.4600
49385DOD     C191974  19.815   8.784   1.087  0.1994  0.2164 -0.1959
49385DOD     C291975  19.964   9.159   1.329 -0.3025 -0.1817 -0.3005
49385DOD     C391976  20.009   9.531   1.676 -0.1493  0.4842  0.1193
49386DOD     C191977  17.305   3.443  29.418  0.2479 -0.0351 -0.3200
49386DOD     C291978  17.154   2.964  29.377  0.0691 -0.5435  0.4158
49386DOD     C391979  16.853   2.565  29.362 -0.2694  0.1209 -0.1450
49387DOD     C191980   8.488   7.873   3.868 -0.3406  0.0729  0.2090
49387DOD     C291981   8.804   7.613   3.634  0.0298  0.0168  0.1737
49387DOD     C391982   9.237   7.664   3.480 -0.4385 -0.0320 -0.0179
49388DOD     C191983   5.536  21.670   9.329  0.1707 -0.0038  0.0025
49388DOD     C291984   5.460  21.385   9.679 -0.1707 -0.1669 -0.0965
49388DOD     C391985   5.710  20.978   9.762 -0.3097 -0.0715  0.1974
49389DOD     C191986   2.836   0.813  27.766 -0.2168 -0.1907  0.1038
49389DOD     C291987   2.974   1.006  28.146 -0.1187  0.1996  0.0472
49389DOD     C391988   3.148   0.808  28.462 -0.0074  0.0510 -0.2864
49390DOD     C191989  23.251  17.113  13.137 -0.0247  0.0183  0.1997
49390DOD     C291990  23.242  16.669  12.922 -0.0043 -0.0401  0.1557
49390DOD     C391991  23.530  16.476  12.552  0.0069  0.0240  0.0606
49391DOD     C191992   0.007  19.087  26.272 -0.0645  0.2820  0.0498
49391DOD     C291993   0.429  19.368  26.259  0.0839  0.1599  0.2388
49391DOD     C391994   0.681  19.702  26.049  0.2390 -0.2273 -0.1669
49392DOD     C191995  29.955  23.407   4.517  0.0139  0.2272 -0.0364
49392DOD     C291996  30.097  23.244   4.066  0.3363 -0.1582 -0.0577
49392DOD     C391997  29.931  22.952   3.779  0.1033 -0.3356 -0.0157
49393DOD     C191998  27.865  23.699   4.430 -0.1463 -0.2193 -0.0241
49393DOD     C291999  27.570  23.985   4.679  0.2543 -0.1240  0.0182
49393DOD     C392000  27.469  24.400   4.880  0.0755  0.0751  0.0065
49394DOD     C192001  17.278  21.584  29.978  0.2009 -0.0067  0.0179
49394DOD     C292002  17.476  21.468   0.025  0.1209 -0.0530 -0.2477
49394DOD     C392003  17.551  21.319   0.478  0.0064 -0.0513 -0.3005
49395DOD     C192004  29.452  16.485   6.066  0.0671  0.1094 -0.0949
49395DOD     C292005  29.039  16.260   6.207  0.0953  0.1221 -0.0297
49395DOD     C392006  28.966  15.826   6.244  0.3555 -0.2812  0.0068
49396DOD     C192007  20.448   1.996   5.388  0.1609 -0.0728 -0.1428
49396DOD     C292008  20.150   2.365   5.538 -0.0110 -0.1072  0.3716
49396DOD     C392009  19.702   2.435   5.433  0.2811 -0.3809  0.2663
49397DOD     C192010   8.855  10.396  25.227  0.0662 -0.3658 -0.0351
49397DOD     C292011   8.585  10.087  25.334 -0.1001  0.2543  0.1219
49397DOD     C392012   8.227   9.885  25.008  0.1483  0.4214 -0.0322
49398DOD     C192013  20.353  19.966  22.531 -0.0892 -0.1778 -0.2642
49398DOD     C292014  20.109  19.820  22.907 -0.1132  0.0195 -0.0704
49398DOD     C392015  19.700  19.887  23.121  0.2993 -0.1582  0.0722
49399DOD     C192016  23.314  10.245  18.359 -0.4221  0.2810  0.2356
49399DOD     C292017  23.566  10.665  18.270 -0.0141 -0.2208 -0.3181
49399DOD     C392018  23.756  11.133  18.350 -0.1449  0.3127 -0.0692
49400DOD     C192019  20.607  14.682  13.899 -0.0432  0.0379 -0.2273
49400DOD     C292020  20.390  15.057  13.749 -0.0668  0.2247 -0.1207
49400DOD     C392021  20.423  15.506  13.812  0.3413 -0.1120  0.1533
49401DOD     C192022   4.990  27.439   3.996 -0.1064 -0.0971  0.2888
49401DOD     C292023   4.632  27.377   3.697 -0.1845  0.0952  0.0247
49401DOD     C392024   4.325  27.684   3.657 -0.0488  0.2105 -0.1685
49402DOD     C192025   8.270  15.284   7.786  0.0377 -0.1277 -0.0557
49402DOD     C292026   8.621  15.132   7.467 -0.2117 -0.0087 -0.0176
49402DOD     C392027   8.818  14.905   7.138 -0.1053 -0.1451 -0.0652
49403DOD     C192028  27.491  25.584  29.869 -0.2073  0.1063  0.0948
49403DOD     C292029  27.364  25.853  29.482 -0.3064  0.2601  0.0821
49403DOD     C392030  27.282  25.753  29.014  0.0929  0.1881 -0.1718
49404DOD     C192031  29.686  22.912  21.640  0.0842 -0.2136 -0.1396
49404DOD     C292032  29.274  22.874  21.554 -0.2525  0.0892  0.2348
49404DOD     C392033  28.987  22.564  21.305 -0.0856 -0.2549 -0.0330
49405DOD     C192034   5.443  20.576   7.863  0.2269 -0.0215  0.2143
49405DOD     C292035   5.392  20.124   7.708 -0.1924 -0.0145  0.0924
49405DOD     C392036   5.656  19.676   7.747 -0.1714 -0.1506  0.1007
49406DOD     C192037  15.794   4.230   1.599 -0.0505  0.2466 -0.0907
49406DOD     C292038  15.366   4.393   1.502 -0.1467 -0.3619  0.0900
49406DOD     C392039  14.884   4.390   1.367 -0.1222  0.0271 -0.1165
49407DOD     C192040  26.481  21.074   5.661  0.1133  0.1048  0.0536
49407DOD     C292041  26.409  20.602   5.776 -0.1619 -0.0215  0.0487
49407DOD     C392042  26.490  20.204   5.546  0.1342 -0.3695  0.0368
49408DOD     C192043  12.840  16.017  14.259  0.0033  0.2246  0.0331
49408DOD     C292044  12.641  15.764  14.584  0.1717 -0.0324  0.0392
49408DOD     C392045  12.343  15.963  14.918  0.1535 -0.1360  0.1112
49409DOD     C192046  12.292  14.385  11.483  0.2176 -0.1885  0.1943
49409DOD     C292047  11.906  14.144  11.520  0.1434  0.0167  0.0659
49409DOD     C392048  11.582  13.923  11.851 -0.0596  0.1564 -0.1533
49410DOD     C192049   0.654   9.270   1.418  0.0228 -0.1001 -0.0116
49410DOD     C292050   0.496   9.030   0.968 -0.0574  0.1966  0.0228
49410DOD     C392051   0.571   8.736   0.666 -0.0356  0.0674  0.1057
49411DOD     C192052  23.250  18.563   9.571 -0.0125  0.0109  0.3569
49411DOD     C292053  23.229  19.008   9.449 -0.1673 -0.0829  0.0216
49411DOD     C392054  23.406  19.420   9.683 -0.0615  0.2704  0.1993
49412DOD     C192055  11.234  21.388   9.723 -0.3814  0.0171  0.1413
49412DOD     C292056  10.975  21.097   9.414  0.2608  0.0899 -0.0264
49412DOD     C392057  10.881  20.710   9.248 -0.0457  0.4320  0.0175
49413DOD     C192058   1.065  23.645  27.920 -0.1112  0.2293  0.2021
49413DOD     C292059   1.504  23.658  27.917  0.1092  0.0745 -0.2281
49413DOD     C392060   1.861  23.944  28.033  0.1753 -0.1014 -0.2427
49414DOD     C192061  26.781  21.232   0.499  0.0404  0.1710 -0.0063
49414DOD     C292062  27.158  21.014   0.706 -0.1091 -0.0124  0.1867
49414DOD     C392063  27.310  20.626   0.651 -0.1052 -0.1808 -0.1456
49415DOD     C192064   2.969   5.199  21.106  0.0716  0.0584  0.0910
49415DOD     C292065   2.598   4.997  21.241 -0.3621 -0.1393  0.0054
49415DOD     C392066   2.385   4.629  21.377 -0.0608 -0.3274  0.0447
49416DOD     C192067  18.579   0.303  19.066 -0.0194  0.0710  0.1304
49416DOD     C292068  18.148   0.107  19.086 -0.0514 -0.3859 -0.0980
49416DOD     C392069  17.692   0.106  19.126  0.1692  0.1183 -0.0915
49417DOD     C192070  16.652   2.508  22.436 -0.1043 -0.2037  0.1175
49417DOD     C292071  17.033   2.358  22.156  0.0615  0.2483  0.1880
49417DOD     C392072  17.317   2.088  21.945 -0.3879 -0.1228  0.1272
49418DOD     C192073  18.981   8.623   9.944  0.2057  0.2110 -0.0355
49418DOD     C292074  18.976   8.299   9.598 -0.2671 -0.1479  0.0347
49418DOD     C392075  19.073   8.389   9.176 -0.1518  0.1785 -0.3085
49419DOD     C192076   8.073  19.007  14.321  0.0547  0.1152 -0.0983
49419DOD     C292077   7.864  19.489  14.318 -0.0004  0.1506  0.0274
49419DOD     C392078   7.493  19.772  14.405  0.0954 -0.1669 -0.1160
49420DOD     C192079   3.755  26.615  26.206 -0.0587  0.3163  0.0014
49420DOD     C292080   3.701  26.895  25.920  0.2611 -0.3984 -0.1748
49420DOD     C392081   3.690  26.773  25.498  0.0605 -0.0712  0.2705
49421DOD     C192082  24.156  10.651  15.044  0.0429  0.1951 -0.0186
49421DOD     C292083  24.365  10.200  15.123  0.1369 -0.0643 -0.0896
49421DOD     C392084  24.628   9.813  15.061 -0.0934  0.1466 -0.1583
49422DOD     C192085  15.860  19.667  25.252 -0.2044  0.1232 -0.1956
49422DOD     C292086  15.833  20.180  25.299  0.1727 -0.3106  0.3632
49422DOD     C392087  15.888  20.638  25.314  0.0695 -0.3064 -0.1099
49423DOD     C192088  14.254  16.932  12.013  0.4908 -0.0860 -0.2429
49423DOD     C292089  14.033  17.242  11.789 -0.1024 -0.1006  0.0236
49423DOD     C392090  13.929  17.687  11.702  0.0839 -0.1654 -0.2453
49424DOD     C192091  17.396  17.093   6.394  0.0560 -0.1441  0.0228
49424DOD     C292092  16.888  17.034   6.484 -0.0677  0.3127 -0.1066
49424DOD     C392093  16.474  16.978   6.614  0.1203  0.1658  0.1604
49425DOD     C192094  24.858  23.039  22.264  0.0510  0.1490  0.1180
49425DOD     C292095  24.766  23.356  22.585 -0.0476  0.1137  0.0368
49425DOD     C392096  24.423  23.593  22.710  0.0052  0.1419 -0.4489
49426DOD     C192097  18.383   7.388  18.705  0.0739 -0.1630 -0.0774
49426DOD     C292098  18.036   7.574  18.516 -0.3075  0.1256  0.1857
49426DOD     C392099  17.695   7.573  18.188 -0.2595  0.1035 -0.3104
49427DOD     C192100  26.651  18.345  11.549 -0.1082 -0.0724 -0.0063
49427DOD     C292101  26.476  18.586  11.935  0.1894 -0.0416 -0.3502
49427DOD     C392102  26.564  18.716  12.402  0.1233 -0.0568  0.0171
49428DOD     C192103   1.548  24.914  27.718  0.0646  0.1423  0.0270
49428DOD     C292104   1.579  24.511  27.457 -0.3698 -0.3882 -0.0275
49428DOD     C392105   1.356  24.045  27.439  0.1926 -0.0826  0.0071
49429DOD     C192106  20.096   2.815  22.037 -0.1179 -0.1315 -0.2755
49429DOD     C292107  19.876   3.165  22.256  0.0105 -0.1484 -0.0661
49429DOD     C392108  19.600   3.405  22.548 -0.2387 -0.0470 -0.1182
49430DOD     C192109   9.662  23.870  16.232  0.0225 -0.1774 -0.0329
49430DOD     C292110   9.211  23.814  16.190  0.2364  0.0190 -0.3051
49430DOD     C392111   8.885  24.082  16.344 -0.1344 -0.1467  0.0104
49431DOD     C192112  22.616  17.879  20.165 -0.2399 -0.0747 -0.0064
49431DOD     C292113  22.484  18.096  19.747  0.3112  0.2058 -0.0065
49431DOD     C392114  22.379  18.391  19.377 -0.0893 -0.3019 -0.1536
49432DOD     C192115  25.106  25.065  15.279 -0.1360  0.2648 -0.1131
49432DOD     C292116  25.311  25.327  15.619  0.1434 -0.0908 -0.3123
49432DOD     C392117  25.677  25.482  15.764 -0.0406  0.1135 -0.3065
49433DOD     C192118  12.105  25.010   5.854 -0.2109 -0.0707  0.1075
49433DOD     C292119  12.556  24.960   6.034  0.0967  0.0922  0.0384
49433DOD     C392120  12.911  24.794   6.232 -0.4044 -0.3565  0.0197
49434DOD     C192121  14.731   5.131   1.297 -0.0792 -0.1957  0.3177
49434DOD     C292122  14.519   5.339   1.623 -0.0016  0.0377  0.0682
49434DOD     C392123  14.200   5.315   1.968  0.1776  0.3981 -0.3424
49435DOD     C192124  16.036  25.626  11.370  0.5656  0.0704 -0.0462
49435DOD     C292125  15.658  25.747  11.100  0.4914  0.2614 -0.1149
49435DOD     C392126  15.344  25.642  10.775 -0.3298  0.3566 -0.0642
49436DOD     C192127  19.862  15.785  26.136 -0.1764  0.0587  0.0083
49436DOD     C292128  20.214  15.996  25.876  0.2079 -0.0821 -0.0777
49436DOD     C392129  20.641  16.104  25.985 -0.0013  0.2529  0.1876
49437DOD     C192130   4.495  27.310   5.766  0.2545  0.2677  0.0738
49437DOD     C292131   4.612  26.954   6.083 -0.0639 -0.2356  0.1194
49437DOD     C392132   4.469  26.571   6.332 -0.0852  0.4722 -0.1935
49438DOD     C192133  20.153   5.437  21.052 -0.1086  0.2613  0.4128
49438DOD     C292134  20.004   5.026  21.176  0.0784 -0.2416  0.1326
49438DOD     C392135  20.005   4.600  21.121 -0.2537  0.1481  0.2372
49439DOD     C192136  21.425   8.015  29.453  0.0607  0.1597 -0.1785
49439DOD     C292137  21.671   8.290  29.765  0.0560  0.3245 -0.2521
49439DOD     C392138  22.032   8.554  29.709 -0.1396  0.1874 -0.0659
49440DOD     C192139  28.102  16.294   6.667 -0.0721  0.0510  0.1278
49440DOD     C292140  28.478  16.545   6.533 -0.0329 -0.0713 -0.0036
49440DOD     C392141  28.917  16.657   6.563 -0.1340 -0.0575  0.1808
49441DOD     C192142   4.077   5.023  27.012 -0.1756 -0.4101  0.2680
49441DOD     C292143   3.733   5.243  27.247 -0.2036 -0.0454  0.1440
49441DOD     C392144   3.406   5.586  27.344  0.0666  0.0601  0.3254
49442DOD     C192145   5.067   9.925  18.946  0.1096 -0.1541 -0.0822
49442DOD     C292146   5.096  10.337  19.137 -0.0922  0.3176 -0.2061
49442DOD     C392147   5.427  10.651  19.216  0.1123 -0.2536  0.1709
49443DOD     C192148  22.221  28.654  18.949  0.1010 -0.1234  0.2594
49443DOD     C292149  22.200  28.719  18.479 -0.1402 -0.0556 -0.0394
49443DOD     C392150  22.374  29.053  18.157 -0.4366 -0.1077  0.2472
49444DOD     C192151  20.426  16.937  28.225  0.1296  0.4745 -0.1700
49444DOD     C292152  20.271  16.924  27.796 -0.2046 -0.0063 -0.1677
49444DOD     C392153  20.140  16.844  27.361 -0.0572 -0.1021  0.1117
49445DOD     C192154  18.769  22.284  25.291 -0.0854  0.0399  0.0985
49445DOD     C292155  18.792  22.648  25.605  0.1311  0.1083 -0.4838
49445DOD     C392156  18.601  22.826  25.965  0.3193  0.1248 -0.0980
49446DOD     C192157   8.832  21.869   6.438 -0.2379 -0.3505  0.2870
49446DOD     C292158   9.213  21.590   6.447  0.3077  0.1424  0.2142
49446DOD     C392159   9.635  21.363   6.299  0.0533  0.3556 -0.1284
49447DOD     C192160  18.263  24.775   4.893 -0.0716 -0.2771  0.2400
49447DOD     C292161  18.570  24.758   5.221  0.0583 -0.0563  0.2730
49447DOD     C392162  18.991  24.869   5.241  0.3652 -0.0747  0.3408
49448DOD     C192163  20.865  28.230   9.099 -0.0993 -0.3324  0.0907
49448DOD     C292164  20.520  28.550   9.037  0.0020  0.0408  0.0031
49448DOD     C392165  20.337  28.867   8.735  0.2485 -0.0828  0.1298
49449DOD     C192166  25.627  25.984  29.030 -0.0492 -0.0369 -0.0760
49449DOD     C292167  25.663  25.880  28.530  0.1983 -0.0934 -0.1769
49449DOD     C392168  25.521  25.589  28.153  0.0799  0.1988  0.5917
49450DOD     C192169  14.121   8.311   1.223  0.1041  0.1206 -0.0050
49450DOD     C292170  14.538   8.600   1.285  0.0036  0.3461  0.4162
49450DOD     C392171  14.730   8.771   1.685 -0.2458 -0.0161  0.1059
49451DOD     C192172  20.798   9.373   1.951 -0.2305  0.2021 -0.3028
49451DOD     C292173  20.478   9.603   2.150 -0.3195  0.4336 -0.1192
49451DOD     C392174  20.295   9.959   2.352 -0.2812 -0.2727 -0.1963
49452DOD     C192175  10.870  17.339   5.704 -0.3381 -0.0228  0.3431
49452DOD     C292176  11.099  17.234   5.307  0.3626  0.0679  0.0663
49452DOD     C392177  11.255  17.375   4.849 -0.1485 -0.0994 -0.2393
49453DOD     C192178  12.589   9.291   1.421 -0.3092 -0.2820  0.0670
49453DOD     C292179  12.648   8.942   1.141 -0.1587  0.0090  0.1402
49453DOD     C392180  12.924   8.592   1.183 -0.3557  0.0520 -0.0645
49454DOD     C192181  11.241  20.578  20.380 -0.1055 -0.2117  0.0982
49454DOD     C292182  11.468  21.016  20.249 -0.1761 -0.1668 -0.3576
49454DOD     C392183  11.854  21.290  20.398 -0.0128 -0.4120 -0.1568
49455DOD     C192184   8.092   5.273   1.599  0.2842  0.0608  0.1392
49455DOD     C292185   8.018   5.661   1.883  0.3940 -0.1848  0.0090
49455DOD     C392186   7.621   5.888   2.046  0.0049 -0.1864 -0.1576
49456DOD     C192187  12.395  25.758  18.183 -0.2898 -0.3221 -0.2989
49456DOD     C292188  12.085  25.507  18.483  0.1774  0.1643  0.1494
49456DOD     C392189  11.700  25.272  18.612 -0.0917  0.0330 -0.0905
49457DOD     C192190  12.199   2.104   0.915  0.2905 -0.0796 -0.0492
49457DOD     C292191  12.154   1.803   0.569 -0.0110  0.0101  0.0815
49457DOD     C392192  12.194   1.312   0.418 -0.0103  0.0563 -0.2503
49458DOD     C192193  18.758  24.251   9.227  0.2685 -0.1614 -0.1348
49458DOD     C292194  18.885  23.967   8.938  0.0296 -0.2206  0.0150
49458DOD     C392195  19.301  23.889   8.673  0.0922  0.0387  0.4104
49459DOD     C192196  10.211  25.257  15.725  0.0263 -0.2951  0.1476
49459DOD     C292197  10.376  25.638  15.947 -0.2369  0.0371  0.1720
49459DOD     C392198  10.743  25.864  16.100 -0.2645 -0.0369 -0.1445
49460DOD     C192199   4.224  23.254  14.619 -0.1233  0.1491  0.0699
49460DOD     C292200   4.212  23.582  14.910 -0.2764  0.1481 -0.0264
49460DOD     C392201   4.106  23.919  15.258 -0.0631 -0.0432 -0.0452
49461DOD     C192202  26.082  21.253  14.364  0.0050  0.2540 -0.0051
49461DOD     C292203  26.511  21.335  14.511 -0.3773 -0.1850  0.2753
49461DOD     C392204  26.877  21.249  14.812  0.1588 -0.0595 -0.1966
49462DOD     C192205  25.140  19.266   4.268 -0.1023  0.1368 -0.1608
49462DOD     C292206  25.087  18.881   4.550 -0.0705  0.0221  0.1796
49462DOD     C392207  25.169  18.475   4.558 -0.1865 -0.2308  0.0180
49463DOD     C192208  26.777  19.703   5.880 -0.1677  0.1085 -0.1029
49463DOD     C292209  26.547  19.720   5.464  0.3901  0.2384 -0.1402
49463DOD     C392210  26.163  19.933   5.286 -0.0986 -0.0670 -0.2180
49464DOD     C192211   6.228  29.554  23.630  0.1330  0.1125 -0.2640
49464DOD     C292212   6.559  29.215  23.528  0.1877  0.0361  0.2471
49464DOD     C392213   6.863  28.903  23.307  0.0229  0.0908  0.1974
49465DOD     C192214  20.230  16.431  16.243 -0.0686  0.1840 -0.1295
49465DOD     C292215  19.802  16.540  16.133 -0.0741 -0.0595  0.1856
49465DOD     C392216  19.438  16.833  16.217 -0.0845  0.1717  0.0273
49466DOD     C192217  15.594   2.783  10.406 -0.1064  0.0174 -0.1264
49466DOD     C292218  16.000   3.058  10.500  0.0865  0.1147  0.0256
49466DOD     C392219  16.124   3.555  10.559  0.5382 -0.2101 -0.0881
49467DOD     C192220  28.495   6.156   1.064 -0.2095 -0.1393  0.0395
49467DOD     C292221  28.532   6.026   0.626 -0.0843 -0.0919  0.0036
49467DOD     C392222  28.661   5.710   0.279  0.0199 -0.1737 -0.2391
49468DOD     C192223   5.507  22.745  18.257 -0.0391 -0.0390  0.2602
49468DOD     C292224   5.917  22.465  18.188  0.1208 -0.3796 -0.0795
49468DOD     C392225   6.018  22.088  18.408  0.2522  0.2006  0.1052
49469DOD     C192226  18.571  11.471  23.258 -0.0781  0.3367 -0.0617
49469DOD     C292227  18.965  11.179  23.295  0.0736  0.0549 -0.0080
49469DOD     C392228  19.363  10.979  23.437  0.0266  0.3713 -0.0005
49470DOD     C192229   6.454   0.511   5.264  0.1592  0.0109 -0.0304
49470DOD     C292230   6.902   0.497   5.183  0.1490  0.0022  0.1117
49470DOD     C392231   7.211   0.676   5.459 -0.1310  0.0166  0.3702
49471DOD     C192232   2.926   8.574  10.868 -0.2215 -0.0718  0.0586
49471DOD     C292233   3.285   8.269  10.864 -0.1806 -0.1141 -0.2217
49471DOD     C392234   3.763   8.179  10.828 -0.0872  0.3739 -0.2892
49472DOD     C192235  26.327  17.725  26.972 -0.2546 -0.1387  0.4217
49472DOD     C292236  26.650  17.364  26.983  0.1855  0.1584  0.2033
49472DOD     C392237  26.955  17.166  26.728 -0.2685  0.0009  0.0550
49473DOD     C192238  19.883   2.668   9.091  0.0151  0.0074 -0.2006
49473DOD     C292239  19.722   2.740   8.667 -0.1113 -0.4083  0.0374
49473DOD     C392240  20.002   3.072   8.390  0.0236 -0.0323  0.4097
49474DOD     C192241   9.941  14.537  18.998 -0.0859 -0.2411 -0.2430
49474DOD     C292242   9.644  14.699  18.645  0.0789  0.2140 -0.0036
49474DOD     C392243   9.642  14.374  18.317  0.0986  0.1584  0.1371
49475DOD     C192244   1.486   4.152   8.091  0.2086 -0.0113  0.1119
49475DOD     C292245   1.141   4.334   7.826 -0.1451 -0.2756  0.0321
49475DOD     C392246   0.910   4.684   7.632  0.0919 -0.0798 -0.2400
49476DOD     C192247  21.553   5.739  20.733 -0.0816  0.0623  0.4470
49476DOD     C292248  21.367   5.668  20.333 -0.2486 -0.1326 -0.2508
49476DOD     C392249  21.166   5.997  20.032 -0.0696  0.1105 -0.1251
49477DOD     C192250   2.858   3.769  16.961 -0.0549 -0.0431  0.1824
49477DOD     C292251   2.544   4.099  17.119 -0.0124 -0.1541 -0.0549
49477DOD     C392252   2.534   4.525  17.293  0.0136  0.0955  0.2490
49478DOD     C192253  18.306   2.588   2.846  0.1573 -0.2563  0.1463
49478DOD     C292254  18.216   2.220   2.579  0.0821 -0.1410  0.2462
49478DOD     C392255  17.798   2.057   2.467  0.0445  0.0373  0.4032
49479DOD     C192256  15.242   2.829  26.060  0.0763  0.3044  0.0539
49479DOD     C292257  15.189   3.224  25.803  0.1994 -0.3495 -0.3752
49479DOD     C392258  15.328   3.515  25.423  0.2526  0.0262  0.0734
49480DOD     C192259  28.582  25.760   0.937 -0.0574 -0.1391 -0.0675
49480DOD     C292260  29.054  25.751   0.880  0.0854 -0.1113 -0.4028
49480DOD     C392261  29.464  25.969   0.924 -0.2074 -0.0487  0.1591
49481DOD     C192262  27.556  28.727  10.568 -0.0940 -0.0466  0.0604
49481DOD     C292263  28.030  28.723  10.622 -0.0790  0.2160 -0.1713
49481DOD     C392264  28.392  28.427  10.697  0.0071 -0.1636 -0.0301
49482DOD     C192265  15.245  10.126  23.520 -0.0115  0.2682 -0.2754
49482DOD     C292266  14.906  10.248  23.710  0.3755 -0.2084 -0.0295
49482DOD     C392267  14.629  10.329  24.086  0.1873 -0.0427  0.0704
49483DOD     C192268  22.267  13.600  25.354 -0.4304  0.0345 -0.1882
49483DOD     C292269  21.948  13.253  25.480  0.0556  0.1519 -0.2717
49483DOD     C392270  21.652  12.946  25.581 -0.2831 -0.1231  0.1150
49484DOD     C192271   5.370   6.173  12.029  0.0833 -0.3117 -0.1107
49484DOD     C292272   5.461   6.044  12.421  0.0593 -0.1814  0.5478
49484DOD     C392273   5.658   5.738  12.635 -0.3718 -0.3375 -0.0099
49485DOD     C192274  29.330  10.411  20.447 -0.3501  0.3230  0.3510
49485DOD     C292275  29.289  10.813  20.342  0.0474  0.0475 -0.0227
49485DOD     C392276  29.217  11.179  20.155  0.2717 -0.1736  0.0285
49486DOD     C192277  29.571  12.044   9.997 -0.3001 -0.0196 -0.0158
49486DOD     C292278  29.667  12.284   9.596 -0.0732 -0.1664 -0.2742
49486DOD     C392279  29.581  12.537   9.246  0.0814 -0.0294 -0.1267
49487DOD     C192280   3.605  11.982  21.277 -0.1367  0.1270  0.5583
49487DOD     C292281   3.613  12.126  20.774 -0.1841 -0.2062  0.0714
49487DOD     C392282   3.351  11.985  20.428  0.1103  0.1940 -0.0302
49488DOD     C192283   4.784  25.492  17.169 -0.2453  0.1125 -0.0249
49488DOD     C292284   5.159  25.412  17.004  0.0751 -0.1101  0.0783
49488DOD     C392285   5.382  25.705  16.662 -0.1320 -0.1125  0.3402
49489DOD     C192286  28.865   0.714   9.201 -0.2230  0.2022  0.2666
49489DOD     C292287  28.850   0.385   9.509  0.4341  0.0991  0.0139
49489DOD     C392288  28.715   0.156   9.928 -0.3032  0.3080  0.3043
49490DOD     C192289  21.044   0.631   0.118  0.0710  0.0180 -0.0270
49490DOD     C292290  21.123   0.892  30.057  0.2576 -0.0267  0.0014
49490DOD     C392291  21.148   1.370  30.094 -0.1010 -0.1325 -0.0011
49491DOD     C192292  19.394   7.021  13.406  0.2494  0.2052 -0.2286
49491DOD     C292293  19.334   7.042  12.984  0.2553  0.3308 -0.0600
49491DOD     C392294  19.066   6.903  12.603 -0.0750  0.0015 -0.0018
49492DOD     C192295  15.460  21.324   5.868  0.1303 -0.2279  0.4108
49492DOD     C292296  15.730  20.960   5.663  0.1029  0.0107  0.0039
49492DOD     C392297  16.026  20.769   5.979  0.3949  0.0386 -0.2206
49493DOD     C192298   1.198  19.389   3.732 -0.2208 -0.1646 -0.0701
49493DOD     C292299   1.638  19.288   3.530 -0.2115 -0.3224 -0.0086
49493DOD     C392300   1.601  19.052   3.132  0.0564  0.1275  0.4866
49494DOD     C192301  11.126  13.701  11.557  0.0650 -0.3815 -0.2947
49494DOD     C292302  11.464  13.974  11.353 -0.0318 -0.3654 -0.0170
49494DOD     C392303  11.426  14.392  11.157 -0.0930 -0.1682 -0.1717
49495DOD     C192304  22.175  23.525  20.041 -0.2229 -0.0867 -0.2697
49495DOD     C292305  22.324  23.923  20.186 -0.0014 -0.0873 -0.1274
49495DOD     C392306  22.757  24.007  20.212  0.0313 -0.0550  0.1520
49496DOD     C192307  13.161  29.885  27.214 -0.0815 -0.2405  0.2184
49496DOD     C292308  12.999  29.631  27.594 -0.0456  0.0239 -0.1461
49496DOD     C392309  13.000  29.612  28.048  0.0583 -0.1951 -0.1115
49497DOD     C192310  26.229  11.239  30.257  0.0052  0.2206 -0.0229
49497DOD     C292311  26.175  11.080   0.396  0.3355 -0.3750 -0.1330
49497DOD     C392312  25.865  11.050   0.752 -0.0584 -0.1398 -0.1100
49498DOD     C192313  27.506  27.046  29.105  0.0332 -0.1383  0.1230
49498DOD     C292314  27.675  26.778  29.479 -0.0697  0.3623 -0.0045
49498DOD     C392315  27.818  26.648  29.962  0.0201  0.0480  0.1246
49499DOD     C192316  27.092   0.326  23.692 -0.0361  0.0342 -0.1119
49499DOD     C292317  26.686   0.594  23.700  0.1809 -0.0603  0.0702
49499DOD     C392318  26.210   0.409  23.688  0.1574 -0.0964 -0.2438
49500DOD     C192319  26.100   0.772   8.280 -0.0331  0.1746 -0.2988
49500DOD     C292320  26.029   1.243   8.368  0.5135 -0.3300 -0.1563
49500DOD     C392321  26.002   1.671   8.508  0.0520  0.1914 -0.0200
49501DOD     C192322  28.114  20.064  11.369  0.1282 -0.2069  0.0051
49501DOD     C292323  27.708  20.326  11.493  0.0913  0.2798 -0.1348
49501DOD     C392324  27.519  20.409  11.966  0.1213 -0.2613 -0.0925
49502DOD     C192325  12.279  13.933  26.084 -0.0066  0.1081  0.2207
49502DOD     C292326  12.140  13.509  26.070  0.0062 -0.1336 -0.1307
49502DOD     C392327  12.460  13.152  26.030  0.1591 -0.3309  0.0225
49503DOD     C192328  25.270  20.254  23.868 -0.1036  0.0889 -0.1084
49503DOD     C292329  25.296  20.553  23.560 -0.1184  0.0289 -0.0076
49503DOD     C392330  25.137  20.451  23.145  0.2013  0.1582  0.1980
49504DOD     C192331   6.443  19.920   2.507  0.1454 -0.3015  0.3187
49504DOD     C292332   6.220  20.072   2.834 -0.0565  0.0649 -0.1792
49504DOD     C392333   6.423  20.332   3.187 -0.0292  0.0480  0.2725
49505DOD     C192334  11.098  26.938  19.717 -0.0045 -0.0495  0.0062
49505DOD     C292335  11.388  27.308  19.809 -0.0489  0.1942  0.1558
49505DOD     C392336  11.629  27.710  19.825  0.1538 -0.1099  0.2823
49506DOD     C192337   9.726   0.814  10.423  0.0519 -0.1842 -0.0431
49506DOD     C292338   9.992   1.169  10.381 -0.0856  0.1680  0.0986
49506DOD     C392339  10.317   1.420  10.631  0.0597  0.0740  0.0878
49507DOD     C192340   8.516  17.041  28.124  0.1524  0.1419  0.1491
49507DOD     C292341   8.349  17.143  27.705 -0.0043 -0.0776  0.0398
49507DOD     C392342   8.075  17.309  27.402  0.1411  0.0660 -0.0098
49508DOD     C192343  11.519  25.165  22.374 -0.5065  0.2243 -0.0927
49508DOD     C292344  11.623  25.457  21.979 -0.1463 -0.0462  0.0750
49508DOD     C392345  11.819  25.528  21.613 -0.1461  0.1498  0.0404
49509DOD     C192346   0.052  24.522  24.410 -0.2488  0.2447 -0.1384
49509DOD     C292347   0.357  24.134  24.311 -0.0461  0.0884 -0.1299
49509DOD     C392348   0.439  23.752  24.056 -0.1986 -0.0621  0.0063
49510DOD     C192349  20.998   2.522  14.364 -0.1705  0.1588  0.0469
49510DOD     C292350  21.010   2.274  14.734 -0.2136 -0.1760  0.1099
49510DOD     C392351  21.266   2.409  15.127  0.1144  0.0740 -0.0800
49511DOD     C192352  23.298  30.058  29.571 -0.0101 -0.0355  0.3667
49511DOD     C292353  23.418  29.596  29.604 -0.1450 -0.0784  0.0375
49511DOD     C392354  23.459  29.213  29.893  0.0805  0.2596  0.3922
49512DOD     C192355  25.513  17.627  10.634  0.2625 -0.2845  0.4227
49512DOD     C292356  25.578  18.009  10.905 -0.1395  0.2286 -0.2472
49512DOD     C392357  25.244  18.144  11.132 -0.1818 -0.0815 -0.0292
49513DOD     C192358  19.284  17.771   2.342  0.1094 -0.0710  0.0039
49513DOD     C292359  19.679  17.892   2.085 -0.1371 -0.3342  0.0323
49513DOD     C392360  20.112  17.861   1.929  0.2892  0.0374  0.1105
49514DOD     C192361   9.379   7.973   8.150 -0.0552 -0.1356  0.1145
49514DOD     C292362   9.374   7.904   7.673  0.2368 -0.0012  0.0368
49514DOD     C392363   9.531   8.076   7.281  0.0600 -0.1535 -0.2187
49515DOD     C192364  25.384   7.437  19.238 -0.1564  0.2492  0.1091
49515DOD     C292365  25.235   7.454  18.770 -0.0487 -0.0401 -0.2470
49515DOD     C392366  24.893   7.313  18.461 -0.2518 -0.0633 -0.1237
49516DOD     C192367  22.017  10.594   1.340 -0.0633 -0.0475  0.1087
49516DOD     C292368  22.221  10.279   1.571  0.0590  0.3061 -0.1772
49516DOD     C392369  22.571  10.122   1.854 -0.2953 -0.2029  0.4293
49517DOD     C192370   4.762  28.770   3.066  0.5232 -0.0379 -0.3762
49517DOD     C292371   4.883  29.186   3.209  0.5744 -0.1857  0.3207
49517DOD     C392372   4.781  29.556   3.494  0.1775 -0.1147  0.1220
49518DOD     C192373  18.440  10.001  13.468 -0.1473 -0.0055 -0.2998
49518DOD     C292374  18.179   9.766  13.851 -0.0287 -0.0079  0.2125
49518DOD     C392375  17.769   9.547  13.739 -0.1104 -0.0121  0.1102
49519DOD     C192376  28.572  21.494   0.618  0.0202  0.1813  0.2701
49519DOD     C292377  28.613  21.418   1.030 -0.2084  0.1733 -0.1941
49519DOD     C392378  28.460  21.153   1.363 -0.0364  0.0058 -0.3843
49520DOD     C192379  28.362   8.919  10.982  0.1574  0.3027 -0.1260
49520DOD     C292380  28.311   9.007  10.551  0.1634  0.2291 -0.1380
49520DOD     C392381  28.362   8.737  10.188  0.0384  0.2594 -0.0763
49521DOD     C192382   4.849   4.562  12.641 -0.1699  0.1198 -0.0226
49521DOD     C292383   4.904   4.069  12.560  0.0868 -0.1215 -0.1502
49521DOD     C392384   5.056   3.566  12.657 -0.1055  0.1097 -0.2169
49522DOD     C192385   1.294  11.639  27.671 -0.2203 -0.1427  0.1689
49522DOD     C292386   1.362  11.463  28.084  0.2407  0.0207 -0.1664
49522DOD     C392387   1.032  11.395  28.407 -0.1060  0.0388 -0.0691
49523DOD     C192388  23.788  10.538  19.571  0.1397 -0.3331  0.0946
49523DOD     C292389  23.884  10.390  19.991 -0.0242 -0.0593 -0.1647
49523DOD     C392390  23.658  10.235  20.329  0.2083  0.0603 -0.0893
49524DOD     C192391   9.335  15.951  18.361 -0.0906 -0.0384 -0.1659
49524DOD     C292392   9.572  16.367  18.352 -0.2238 -0.2076 -0.1867
49524DOD     C392393   9.674  16.665  18.739 -0.0853  0.0135 -0.3139
49525DOD     C192394   6.656  24.781  14.064  0.0864  0.3371 -0.2566
49525DOD     C292395   6.398  25.032  13.753 -0.0980  0.0301 -0.1938
49525DOD     C392396   6.277  24.873  13.347 -0.1935 -0.2429  0.2541
49526DOD     C192397   9.834  18.604  16.105  0.3470  0.0971  0.0070
49526DOD     C292398   9.932  19.041  15.957  0.0261  0.0990 -0.1676
49526DOD     C392399   9.777  19.458  15.873 -0.1895 -0.0671  0.2444
49527DOD     C192400   4.962  22.521   0.240 -0.1265  0.2568  0.1792
49527DOD     C292401   4.633  22.266   0.481  0.1101  0.0564  0.1246
49527DOD     C392402   4.702  21.914   0.830  0.0337 -0.2428  0.2483
49528DOD     C192403  25.617   6.630   5.962  0.2971  0.0507 -0.1237
49528DOD     C292404  25.675   6.890   6.373  0.0538 -0.1558 -0.0876
49528DOD     C392405  25.834   7.232   6.670 -0.3437 -0.5251 -0.0023
49529DOD     C192406   5.741  12.620   4.995  0.3667 -0.2333  0.4255
49529DOD     C292407   5.994  13.009   5.104  0.2821  0.1337 -0.0278
49529DOD     C392408   6.262  13.392   5.001 -0.0576 -0.0113  0.3528
49530DOD     C192409  23.574  27.146  10.829  0.0086  0.1709 -0.0523
49530DOD     C292410  23.750  27.471  11.127  0.2325 -0.1241 -0.2798
49530DOD     C392411  24.046  27.715  11.347  0.1147 -0.1098 -0.2039
49531DOD     C192412   8.013   0.599  29.210  0.2739 -0.0558  0.1073
49531DOD     C292413   7.995   0.758  29.652  0.0159  0.3903 -0.3398
49531DOD     C392414   8.111   0.959  30.075 -0.0233 -0.1180 -0.2639
49532DOD     C192415  17.817  27.242  25.744  0.0425 -0.1302 -0.0432
49532DOD     C292416  17.961  27.106  25.308 -0.0392 -0.3067  0.0771
49532DOD     C392417  18.209  27.209  24.988  0.3443  0.2374  0.1095
49533DOD     C192418  21.157  27.892  22.355  0.0329  0.1310 -0.3243
49533DOD     C292419  21.534  27.997  22.592 -0.1062  0.1015 -0.0541
49533DOD     C392420  21.750  27.679  22.842 -0.2082 -0.2572  0.1285
49534DOD     C192421   7.759  18.609  10.304 -0.2455  0.2224  0.1597
49534DOD     C292422   7.637  18.788   9.865 -0.3069 -0.1039  0.2175
49534DOD     C392423   7.297  19.014   9.635 -0.2561  0.0483 -0.0308
49535DOD     C192424  12.590  11.069  27.665 -0.2829 -0.0749 -0.1225
49535DOD     C292425  12.921  11.382  27.967 -0.3224 -0.0163  0.2409
49535DOD     C392426  12.908  11.775  28.279  0.2216 -0.0767  0.2985
49536DOD     C192427  15.916  25.084  17.228 -0.1746 -0.1604 -0.1946
49536DOD     C292428  16.032  25.497  17.321  0.3669  0.0974  0.2778
49536DOD     C392429  16.208  25.809  17.081 -0.1901  0.0122 -0.0147
49537DOD     C192430   2.223  16.700  18.527 -0.4364  0.3002  0.1270
49537DOD     C292431   2.477  16.342  18.506  0.2073 -0.1372 -0.0605
49537DOD     C392432   2.453  15.905  18.371  0.1156 -0.2035  0.0340
49538DOD     C192433  12.384   6.932  23.972  0.1138 -0.1374  0.1804
49538DOD     C292434  12.784   7.190  23.777  0.1551 -0.0077  0.0627
49538DOD     C392435  13.116   7.085  23.426  0.0148  0.0766 -0.3741
49539DOD     C192436  13.097  14.330  26.609  0.1376 -0.4470 -0.2104
49539DOD     C292437  12.953  14.741  26.417  0.0584 -0.0904  0.0762
49539DOD     C392438  12.858  15.154  26.618  0.0232 -0.1750  0.1605
49540DOD     C192439  25.623  22.980  15.799 -0.0620  0.3075 -0.0629
49540DOD     C292440  25.234  23.006  15.596  0.1862  0.0381 -0.2127
49540DOD     C392441  25.082  22.940  15.119 -0.0394 -0.0751 -0.4055
49541DOD     C192442   2.451  22.137   3.920  0.2037  0.2104  0.2052
49541DOD     C292443   2.436  22.242   3.446  0.1418 -0.0822  0.0877
49541DOD     C392444   2.450  22.415   3.020 -0.1521 -0.0688  0.0254
49542DOD     C192445  14.462   4.979  27.285 -0.0534  0.1481 -0.1942
49542DOD     C292446  14.278   5.392  27.428 -0.0501 -0.0133  0.0762
49542DOD     C392447  14.136   5.535  27.844  0.0470 -0.2084 -0.3027
49543DOD     C192448  14.788  16.334  30.356 -0.0748 -0.0608  0.1758
49543DOD     C292449  14.479  16.029  30.306  0.2635 -0.0667  0.1173
49543DOD     C392450  14.238  15.630  30.242  0.1364 -0.2104  0.3068
49544DOD     C192451  21.413  10.620   0.615 -0.4901  0.0410 -0.1741
49544DOD     C292452  20.994  10.466   0.568  0.2324  0.1408  0.0088
49544DOD     C392453  20.700  10.351   0.967 -0.0485  0.1523 -0.3152
49545DOD     C192454  11.127  26.524   7.305 -0.1298 -0.2977 -0.0625
49545DOD     C292455  11.260  26.448   7.817 -0.1544  0.1304 -0.3699
49545DOD     C392456  11.522  26.457   8.178 -0.1160 -0.1487  0.0434
49546DOD     C192457  20.773   0.846  27.610  0.3039 -0.2968 -0.0107
49546DOD     C292458  20.963   0.652  27.208 -0.1012  0.1349  0.0357
49546DOD     C392459  20.967   0.236  26.945 -0.0541 -0.1098  0.1566
49547DOD     C192460   5.231   9.496  26.140  0.1683  0.3367  0.1620
49547DOD     C292461   5.570   9.425  26.476 -0.0577  0.0717  0.1451
49547DOD     C392462   5.865   9.392  26.831 -0.1340 -0.4462 -0.0507
49548DOD     C192463   2.685   3.190   5.999  0.2286 -0.1098  0.2274
49548DOD     C292464   2.366   3.470   5.817 -0.0819  0.4163  0.0829
49548DOD     C392465   2.209   3.837   5.571  0.1003 -0.2566 -0.0402
49549DOD     C192466  17.484  30.061  13.472 -0.0541  0.0764 -0.2935
49549DOD     C292467  17.148  29.789  13.684 -0.1586 -0.1662 -0.0006
49549DOD     C392468  16.728  29.728  13.906  0.1401 -0.1792  0.2643
49550DOD     C192469  29.844   6.960  24.076  0.1340 -0.0807 -0.2916
49550DOD     C292470  29.938   6.435  23.914  0.4198 -0.2778 -0.1441
49550DOD     C392471  30.201   6.167  23.649 -0.2236  0.3250  0.1180
49551DOD     C192472  23.917  19.330  11.042 -0.1770 -0.1428  0.1842
49551DOD     C292473  23.894  19.450  10.588  0.0059  0.1091  0.1508
49551DOD     C392474  24.100  19.587  10.202 -0.0329 -0.2415  0.3773
49552DOD     C192475   4.305  10.893  25.183  0.2860  0.3957 -0.0607
49552DOD     C292476   4.668  10.615  25.199  0.0562 -0.1490  0.0358
49552DOD     C392477   4.953  10.555  24.827 -0.0298  0.2896  0.1012
49553DOD     C192478  28.096  25.975  29.649 -0.0607 -0.0094  0.3593
49553DOD     C292479  28.468  25.670  29.569  0.1121 -0.0421  0.1221
49553DOD     C392480  28.536  25.193  29.657 -0.0985  0.0673  0.0603
49554DOD     C192481  24.169  17.815   3.410  0.1210 -0.1306  0.0220
49554DOD     C292482  23.819  17.634   3.185  0.2256  0.1416  0.4988
49554DOD     C392483  23.429  17.493   2.934  0.2196 -0.0515  0.0422
49555DOD     C192484  23.490   2.756   4.798 -0.3414 -0.4565  0.4343
49555DOD     C292485  23.563   2.980   4.383 -0.0053  0.1705 -0.1749
49555DOD     C392486  23.424   3.019   3.933  0.1868 -0.1124 -0.0535
49556DOD     C192487  27.815   8.025  21.705  0.0449 -0.0782 -0.2339
49556DOD     C292488  27.496   7.995  21.360 -0.2253  0.3742  0.1812
49556DOD     C392489  27.319   8.141  20.928  0.0422  0.1416 -0.2447
49557DOD     C192490   3.530  12.861  24.160 -0.0203  0.0857  0.2586
49557DOD     C292491   3.280  12.579  24.499 -0.3405  0.0574  0.0287
49557DOD     C392492   3.370  12.155  24.629  0.1983  0.0181  0.1275
49558DOD     C192493  20.905   9.832  25.800  0.3504  0.3696 -0.0466
49558DOD     C292494  21.126   9.507  25.495 -0.0637 -0.1104 -0.1586
49558DOD     C392495  21.447   9.274  25.174  0.1379  0.4333 -0.2655
49559DOD     C192496   1.532   5.552   7.101 -0.0051  0.1693 -0.0429
49559DOD     C292497   1.681   5.854   7.352 -0.5185 -0.2628  0.1837
49559DOD     C392498   1.632   6.279   7.570 -0.0036 -0.1341  0.0928
49560DOD     C192499   6.114   4.236  16.210 -0.0885  0.0330 -0.0776
49560DOD     C292500   6.057   4.601  15.900  0.0528 -0.1050 -0.0626
49560DOD     C392501   5.895   4.417  15.492  0.1195  0.3013 -0.1804
49561DOD     C192502  28.622   2.637   3.330 -0.1451 -0.1954 -0.0721
49561DOD     C292503  28.254   2.907   3.185 -0.1348 -0.1134  0.0275
49561DOD     C392504  28.167   3.349   3.088  0.0291 -0.3175 -0.1634
49562DOD     C192505   7.601  25.426  23.181  0.2712 -0.1113 -0.0798
49562DOD     C292506   7.630  25.918  23.028  0.0280 -0.5021 -0.1367
49562DOD     C392507   7.611  26.312  22.825  0.4013 -0.1813 -0.0764
49563DOD     C192508   9.666  20.261   7.100  0.2807  0.2050  0.0927
49563DOD     C292509   9.790  19.812   7.033 -0.2130 -0.2562  0.3687
49563DOD     C392510   9.738  19.355   7.165 -0.0964  0.2828  0.0940
49564DOD     C192511  24.815   5.471  15.691 -0.1191  0.3208  0.2908
49564DOD     C292512  24.966   5.067  15.900  0.0384 -0.0364 -0.1604
49564DOD     C392513  25.443   5.122  16.027 -0.0189 -0.0568  0.3265
49565DOD     C192514   9.920   0.601  10.929  0.0337  0.1735  0.0006
49565DOD     C292515   9.539   0.477  10.736 -0.0955 -0.2418  0.2966
49565DOD     C392516   9.057   0.375  10.818 -0.1156  0.2638 -0.3236
49566DOD     C192517   5.020  12.615   4.482  0.0471 -0.0621 -0.1468
49566DOD     C292518   5.382  12.883   4.718 -0.0345  0.0684 -0.2294
49566DOD     C392519   5.565  13.265   4.981 -0.2768  0.0513  0.3425
49567DOD     C192520  13.513  15.980  26.840 -0.0745 -0.0445  0.1074
49567DOD     C292521  13.291  15.652  26.659  0.3940 -0.1026  0.2124
49567DOD     C392522  13.246  15.222  26.344 -0.0717 -0.0509 -0.1913
49568DOD     C192523  22.687  26.361  19.152 -0.0724 -0.1200  0.1119
49568DOD     C292524  22.426  26.116  18.868 -0.3629  0.0569 -0.2518
49568DOD     C392525  21.959  26.114  18.828  0.3989  0.0931 -0.0394
49569DOD     C192526   7.146   7.775   5.917  0.1790  0.0065 -0.0526
49569DOD     C292527   7.113   8.062   6.272 -0.1563 -0.2408 -0.2219
49569DOD     C392528   7.174   8.462   6.505 -0.0210  0.1019  0.1155
49570DOD     C192529   5.269  24.690   8.881  0.0235  0.3167 -0.0214
49570DOD     C292530   5.608  24.814   9.176 -0.2417  0.1314 -0.1140
49570DOD     C392531   5.909  24.739   9.513 -0.2853 -0.0129  0.2404
49571DOD     C192532   9.562  27.421   0.792  0.1375  0.0576 -0.1636
49571DOD     C292533   9.867  27.167   0.595  0.2471 -0.0794  0.2703
49571DOD     C392534  10.270  26.961   0.479 -0.0608  0.1876 -0.0491
49572DOD     C192535  20.473  28.457  14.842  0.0597  0.1243 -0.1555
49572DOD     C292536  20.045  28.589  15.023  0.0098 -0.2632  0.0862
49572DOD     C392537  19.637  28.840  15.036 -0.1268 -0.3078 -0.3399
49573DOD     C192538  19.597  27.632  12.660  0.1073  0.0877  0.0807
49573DOD     C292539  19.956  27.871  12.520 -0.2393 -0.1307 -0.1830
49573DOD     C392540  20.049  28.331  12.634  0.0872 -0.0430  0.0379
49574DOD     C192541  15.512  20.347   9.596 -0.1051  0.1344  0.1133
49574DOD     C292542  15.331  20.065   9.285 -0.5160  0.0309 -0.0102
49574DOD     C392543  15.198  19.628   9.405  0.1138  0.0139  0.5085
49575DOD     C192544   2.692   7.391  16.132 -0.1750  0.1136 -0.0302
49575DOD     C292545   3.111   7.522  16.365 -0.2501  0.1165  0.2338
49575DOD     C392546   3.452   7.379  16.662 -0.1390  0.1608 -0.0085
49576DOD     C192547  24.182  15.269   4.177  0.1028 -0.0629  0.0413
49576DOD     C292548  23.863  15.285   3.869 -0.0181 -0.0123 -0.0623
49576DOD     C392549  23.532  15.133   3.588 -0.1786 -0.0007  0.1772
49577DOD     C192550  18.297  21.694  26.798 -0.0827 -0.3971  0.0502
49577DOD     C292551  18.770  21.593  26.757 -0.4787 -0.1606  0.0413
49577DOD     C392552  19.141  21.572  26.476  0.0727  0.0715  0.0527
49578DOD     C192553   3.973  24.282  19.271  0.0858  0.2791 -0.3298
49578DOD     C292554   3.548  24.369  19.014 -0.1901 -0.1972 -0.0890
49578DOD     C392555   3.262  24.053  18.809 -0.0622  0.0376  0.0607
49579DOD     C192556  24.299  20.956  28.788  0.0292 -0.1390  0.2075
49579DOD     C292557  24.168  21.392  28.505 -0.1846  0.1312  0.4041
49579DOD     C392558  24.361  21.668  28.183  0.1125 -0.0679  0.0041
49580DOD     C192559  26.224  15.364   9.830  0.1254 -0.0794 -0.2106
49580DOD     C292560  26.644  15.427  10.050 -0.2040 -0.0534  0.2398
49580DOD     C392561  27.107  15.405   9.935 -0.2326 -0.0142 -0.0567
49581DOD     C192562   9.954  29.163  27.599  0.3494 -0.1453  0.0602
49581DOD     C292563   9.831  28.910  27.245 -0.2005  0.0171 -0.0281
49581DOD     C392564  10.091  28.581  26.971 -0.2704 -0.0306  0.0165
49582DOD     C192565   7.460   7.434  27.237 -0.0512  0.0595 -0.0631
49582DOD     C292566   7.705   7.013  27.320  0.0387 -0.2200 -0.1139
49582DOD     C392567   7.975   6.633  27.221  0.0672  0.0024 -0.0039
49583DOD     C192568   2.349  27.203  18.208  0.0239  0.1556  0.0082
49583DOD     C292569   2.804  27.249  18.362 -0.0841  0.1012 -0.0665
49583DOD     C392570   3.001  27.702  18.352  0.0966 -0.0637 -0.2647
49584DOD     C192571  22.563   5.346  16.307  0.1354 -0.2211 -0.1241
49584DOD     C292572  22.504   5.378  15.831  0.0976  0.1358 -0.3214
49584DOD     C392573  22.375   5.571  15.460 -0.0679  0.0238  0.0935
49585DOD     C192574   2.373  28.724  12.583  0.2640 -0.3254  0.0426
49585DOD     C292575   2.777  28.796  12.353 -0.2412  0.0369  0.0372
49585DOD     C392576   2.861  29.145  12.054 -0.2776  0.1623  0.0641
49586DOD     C192577  23.285   7.057  24.522 -0.0006  0.0463 -0.0265
49586DOD     C292578  23.276   6.640  24.848  0.0996  0.0943  0.2829
49586DOD     C392579  23.060   6.318  25.059  0.1967  0.0888 -0.0806
49587DOD     C192580   7.605  19.817  18.024  0.4752  0.0314 -0.1336
49587DOD     C292581   7.494  20.268  18.157  0.2410 -0.2358  0.2628
49587DOD     C392582   7.220  20.576  18.350  0.0073 -0.0650  0.1815
49588DOD     C192583  20.704  25.265  23.430  0.0130  0.3242 -0.2547
49588DOD     C292584  20.766  25.233  22.974  0.0438  0.2498 -0.2726
49588DOD     C392585  20.818  25.192  22.528  0.3271 -0.0795  0.0106
49589DOD     C192586   9.237  17.537  28.501 -0.0158  0.1770 -0.0399
49589DOD     C292587   9.537  17.838  28.719 -0.4056 -0.2425  0.0213
49589DOD     C392588   9.614  18.227  29.014 -0.1447 -0.2872 -0.3223
49590DOD     C192589  13.877  14.691  17.960  0.0527 -0.1584  0.1479
49590DOD     C292590  13.717  14.433  18.351 -0.1206  0.0736  0.1389
49590DOD     C392591  13.406  14.230  18.621  0.0177 -0.2593 -0.0966
49591DOD     C192592   0.795  18.401  24.581 -0.1143 -0.0444 -0.3427
49591DOD     C292593   0.917  18.840  24.559 -0.0516  0.0659  0.3913
49591DOD     C392594   0.888  19.329  24.501 -0.1028 -0.1785 -0.1498
49592DOD     C192595   9.970  14.663  23.787  0.0657 -0.0662  0.3348
49592DOD     C292596   9.477  14.607  23.831 -0.0129  0.0318  0.1188
49592DOD     C392597   9.041  14.718  23.992 -0.1751 -0.2186 -0.0892
49593DOD     C192598  10.701  12.999  14.707 -0.0402  0.2057 -0.2841
49593DOD     C292599  11.075  12.677  14.645 -0.0276 -0.1283 -0.0078
49593DOD     C392600  11.443  12.478  14.517 -0.0820 -0.0936  0.1652
49594DOD     C192601  11.774  23.750  29.653  0.0543 -0.1976 -0.1660
49594DOD     C292602  12.111  23.567  29.412  0.1372 -0.3289 -0.0975
49594DOD     C392603  11.970  23.174  29.114 -0.2352  0.0631 -0.0178
49595DOD     C192604  14.944   3.405  15.376  0.2306  0.1336  0.2295
49595DOD     C292605  14.532   3.210  15.306  0.0611  0.1143 -0.2082
49595DOD     C392606  14.237   2.997  15.024  0.3665  0.1344  0.0722
49596DOD     C192607  29.726  17.398  12.998 -0.0184 -0.2001 -0.1655
49596DOD     C292608  29.688  17.074  13.336 -0.1174 -0.5023  0.1770
49596DOD     C392609  29.850  16.860  13.688 -0.3332  0.4517  0.1065
49597DOD     C192610  11.818  15.273  27.443 -0.3195  0.0683  0.2807
49597DOD     C292611  11.492  15.001  27.178 -0.1888  0.0901  0.2965
49597DOD     C392612  11.153  15.083  26.908  0.0530 -0.0341 -0.2464
49598DOD     C192613   0.852  25.396  11.954  0.0199 -0.1493 -0.0733
49598DOD     C292614   0.625  25.793  12.018 -0.2600  0.3231  0.1614
49598DOD     C392615   0.581  26.044  12.443  0.0704 -0.1513 -0.0603
49599DOD     C192616  12.163  10.458   2.749 -0.1805 -0.0548  0.0115
49599DOD     C292617  11.706  10.412   2.779  0.0076  0.2085 -0.0491
49599DOD     C392618  11.313  10.199   2.683 -0.3115 -0.2309 -0.1069
49600DOD     C192619  17.365   2.462  10.459  0.1576 -0.3378  0.0618
49600DOD     C292620  17.736   2.266  10.214 -0.0649  0.0221  0.0831
49600DOD     C392621  17.956   2.054   9.912 -0.0243 -0.0125 -0.0643
49601DOD     C192622  28.233  27.669   5.243  0.0297 -0.3341 -0.0313
49601DOD     C292623  28.664  27.859   5.246 -0.0698 -0.1879 -0.0698
49601DOD     C392624  29.079  27.917   5.431 -0.0214 -0.1925  0.1104
49602DOD     C192625  24.914  18.890  24.344  0.1385 -0.2671  0.3513
49602DOD     C292626  24.846  18.470  24.199 -0.0982 -0.1499 -0.0773
49602DOD     C392627  24.861  17.985  24.134 -0.3680  0.2388  0.0101
49603DOD     C192628  21.755  22.945   4.915  0.1990  0.0271  0.1610
49603DOD     C292629  21.356  23.114   5.017 -0.1608 -0.2314  0.1876
49603DOD     C392630  20.940  22.949   5.080 -0.3134  0.1627  0.0732
49604DOD     C192631  25.272  21.444  12.963 -0.4376 -0.0939  0.0553
49604DOD     C292632  25.221  21.307  13.369  0.1161 -0.2626 -0.0833
49604DOD     C392633  25.025  21.172  13.764 -0.0217  0.0758  0.2172
49605DOD     C192634  16.347  14.993  11.018  0.1539 -0.0772  0.0587
49605DOD     C292635  16.118  15.222  11.361  0.2071  0.4788 -0.4526
49605DOD     C392636  15.923  15.234  11.780  0.1644 -0.2383  0.0468
49606DOD     C192637   2.037  25.619   1.974 -0.0044 -0.1481 -0.4314
49606DOD     C292638   1.694  25.601   2.286 -0.3607  0.3507 -0.1165
49606DOD     C392639   1.501  25.224   2.404  0.2464 -0.2266  0.1488
49607DOD     C192640   3.681   0.944  13.940  0.2004 -0.2947 -0.0754
49607DOD     C292641   3.340   1.233  13.821  0.4396  0.0614 -0.3077
49607DOD     C392642   2.922   1.489  13.683 -0.0720  0.2012  0.2932
49608DOD     C192643  19.274   0.542  25.102 -0.1151 -0.1389  0.1769
49608DOD     C292644  18.892   0.305  25.206  0.3388  0.1151 -0.1417
49608DOD     C392645  18.504   0.257  25.438 -0.1810 -0.2561  0.0369
49609DOD     C192646  24.013  12.157   1.490 -0.1844 -0.2064 -0.1267
49609DOD     C292647  24.164  11.729   1.392 -0.2538  0.0015 -0.2202
49609DOD     C392648  24.500  11.401   1.486  0.1756 -0.1407  0.2868
49610DOD     C192649   8.585  10.028   0.796 -0.0864 -0.3014 -0.1216
49610DOD     C292650   8.499  10.490   0.776  0.0273 -0.1642  0.0604
49610DOD     C392651   8.613  10.895   0.951  0.0656 -0.2306  0.0454
49611DOD     C192652  25.298   9.345  12.647  0.1381  0.2525 -0.1549
49611DOD     C292653  25.209   9.242  12.247  0.0149  0.0375 -0.0274
49611DOD     C392654  24.806   9.289  12.003 -0.2249 -0.0926 -0.0589
49612DOD     C192655  21.029  12.006  10.077  0.2613  0.1080 -0.1873
49612DOD     C292656  21.225  11.567  10.267  0.4357 -0.0258 -0.2004
49612DOD     C392657  21.585  11.300  10.477 -0.0784  0.3581  0.3244
49613DOD     C192658  21.010  27.398  23.175 -0.1547 -0.1656 -0.2341
49613DOD     C292659  20.571  27.347  23.389 -0.0309 -0.3171 -0.0364
49613DOD     C392660  20.151  27.225  23.608  0.3405 -0.3787  0.2292
49614DOD     C192661   9.590  24.481  11.807 -0.0135  0.1078  0.0238
49614DOD     C292662   9.625  24.087  11.621 -0.2101 -0.2683 -0.0761
49614DOD     C392663   9.393  23.834  11.397  0.2461  0.4268 -0.1982
49615DOD     C192664  29.136  25.552  12.929 -0.0556  0.1948 -0.0780
49615DOD     C292665  29.506  25.533  13.097  0.0497 -0.2975  0.1507
49615DOD     C392666  29.833  25.227  13.100 -0.0218 -0.2278 -0.0230
49616DOD     C192667   1.209   9.926  27.224  0.4776 -0.2617 -0.0305
49616DOD     C292668   1.352   9.609  26.925 -0.1911 -0.1213  0.1171
49616DOD     C392669   1.554   9.649  26.528  0.0185  0.2235  0.2522
49617DOD     C192670  18.859   7.406  18.410  0.1458  0.0702  0.0418
49617DOD     C292671  18.735   7.694  18.780 -0.0734 -0.0012  0.0107
49617DOD     C392672  19.053   8.015  18.927  0.1766 -0.0251 -0.0843
49618DOD     C192673   5.520  23.142  22.669 -0.0503 -0.0494  0.0984
49618DOD     C292674   5.391  22.937  22.245  0.0005  0.1273 -0.0118
49618DOD     C392675   5.579  22.859  21.825  0.1554  0.0401 -0.0115
49619DOD     C192676   1.224   2.296  11.387  0.0537 -0.3971  0.2767
49619DOD     C292677   0.759   2.144  11.295  0.2368 -0.1047 -0.0242
49619DOD     C392678   0.461   1.829  11.389  0.0096 -0.0245  0.2266
49620DOD     C192679   6.192  19.413  26.893 -0.2441  0.4066  0.1636
49620DOD     C292680   5.848  19.242  26.647 -0.0288  0.0198 -0.0666
49620DOD     C392681   5.416  19.162  26.503 -0.1776 -0.3734 -0.1877
49621DOD     C192682   0.806  15.910  27.628  0.0065 -0.1541  0.3289
49621DOD     C292683   0.667  15.789  27.204  0.2453 -0.2664 -0.0291
49621DOD     C392684   0.238  15.902  26.997  0.2627 -0.0049 -0.1090
49622DOD     C192685  29.690  13.339   7.618  0.0761  0.0504 -0.1875
49622DOD     C292686  29.770  13.427   7.148  0.1971  0.0579 -0.0561
49622DOD     C392687  30.140  13.585   6.919  0.2367  0.3052 -0.1557
49623DOD     C192688   9.968  12.100  26.428  0.0052  0.2850 -0.0170
49623DOD     C292689   9.720  12.379  26.096 -0.1152  0.2580 -0.1658
49623DOD     C392690   9.684  12.350  25.638  0.1802  0.0613  0.0341
49624DOD     C192691  13.529   3.989  26.451 -0.1675  0.2131  0.0019
49624DOD     C292692  13.364   4.328  26.731  0.3813  0.0029  0.0138
49624DOD     C392693  13.001   4.596  26.730  0.1606 -0.0398  0.5438
49625DOD     C192694  19.226  20.923   6.227 -0.0716 -0.4215  0.3324
49625DOD     C292695  19.308  21.346   6.409  0.1664 -0.1049  0.0343
49625DOD     C392696  19.421  21.788   6.268 -0.0944  0.1933  0.1422
49626DOD     C192697   6.147   3.851  21.580 -0.3289 -0.0468  0.1785
49626DOD     C292698   6.054   4.234  21.872  0.0252  0.2866  0.2120
49626DOD     C392699   6.180   4.566  22.146  0.0064  0.2553 -0.0106
49627DOD     C192700   3.538  26.227   4.326  0.1300 -0.1064 -0.2977
49627DOD     C292701   3.185  25.926   4.384 -0.4769  0.0158  0.0542
49627DOD     C392702   3.175  25.443   4.248 -0.0416 -0.1199  0.1807
49628DOD     C192703  19.640  26.307   0.785  0.1608  0.0054 -0.0877
49628DOD     C292704  19.504  26.559   1.168  0.0956 -0.0311 -0.0399
49628DOD     C392705  19.206  26.799   1.473 -0.0649 -0.2479  0.1066
49629DOD     C192706  21.700  27.548  14.673 -0.1454 -0.0576 -0.1482
49629DOD     C292707  21.796  27.499  14.216 -0.2030  0.0549 -0.0867
49629DOD     C392708  21.990  27.188  13.880 -0.4768 -0.0034  0.1716
49630DOD     C192709  25.603  25.516  24.876  0.0272  0.0888 -0.1653
49630DOD     C292710  25.115  25.541  24.854 -0.2662  0.0357 -0.2277
49630DOD     C392711  24.855  25.198  24.581  0.0540  0.3606 -0.0758
49631DOD     C192712   7.573   1.685   4.861 -0.2133 -0.3212 -0.1490
49631DOD     C292713   7.671   1.965   4.571  0.3933 -0.0522  0.5596
49631DOD     C392714   7.818   2.291   4.291 -0.1467 -0.1801  0.0369
49632DOD     C192715  22.116  22.325  23.526  0.4065 -0.0629 -0.0400
49632DOD     C292716  22.563  22.357  23.609 -0.0338 -0.1921 -0.3018
49632DOD     C392717  22.957  22.557  23.769  0.0417 -0.1699 -0.0311
49633DOD     C192718  10.910   3.072   1.545 -0.2459  0.3585 -0.0953
49633DOD     C292719  10.737   3.263   1.991 -0.2878 -0.3326  0.0616
49633DOD     C392720  10.563   3.320   2.403 -0.0462 -0.0432 -0.0637
49634DOD     C192721  19.633  13.720  10.458 -0.1698 -0.1943  0.0442
49634DOD     C292722  19.730  13.281  10.556  0.0730  0.2297 -0.3288
49634DOD     C392723  19.519  12.928  10.858 -0.0372  0.0183 -0.3178
49635DOD     C192724   8.718  18.963   5.485  0.0619  0.1383  0.1156
49635DOD     C292725   8.456  19.316   5.441 -0.2159  0.3565 -0.1043
49635DOD     C392726   8.292  19.765   5.355 -0.0519  0.1405 -0.0853
49636DOD     C192727   4.182  26.854   5.742 -0.0271 -0.0689 -0.1086
49636DOD     C292728   4.316  26.885   5.285  0.0010 -0.1116  0.2733
49636DOD     C392729   4.175  27.295   5.088  0.0316 -0.0261  0.1779
49637DOD     C192730  11.031  24.796   7.500  0.2906 -0.0945 -0.3596
49637DOD     C292731  10.760  24.612   7.120 -0.0670 -0.0270 -0.0087
49637DOD     C392732  10.388  24.406   7.004 -0.0724 -0.1356  0.0187
49638DOD     C192733  22.155  24.170  23.678 -0.0177 -0.0108 -0.1718
49638DOD     C292734  22.413  23.782  23.720  0.0450  0.2202 -0.0667
49638DOD     C392735  22.513  23.380  23.901  0.1487 -0.2364 -0.0329
49639DOD     C192736   8.091  23.982   9.616  0.1273  0.0956  0.4345
49639DOD     C292737   8.388  23.823   9.334  0.2051  0.1250  0.1724
49639DOD     C392738   8.478  23.417   9.399  0.1068  0.0487 -0.0359
49640DOD     C192739   5.249  10.608  10.167  0.2147  0.0287 -0.1586
49640DOD     C292740   5.649  10.557  10.402  0.1193  0.1190 -0.3440
49640DOD     C392741   6.036  10.507  10.630  0.3255 -0.2817 -0.2753
49641DOD     C192742  18.285   8.919   9.639  0.0640  0.1318 -0.0914
49641DOD     C292743  17.975   9.099   9.848  0.3075 -0.1898 -0.1782
49641DOD     C392744  17.554   9.427   9.865  0.3001 -0.1057 -0.0331
49642DOD     C192745  18.107  29.120  19.276 -0.1401  0.3055 -0.0077
49642DOD     C292746  18.253  29.367  18.873  0.0159  0.1170  0.1700
49642DOD     C392747  18.475  29.673  18.585 -0.0660  0.0129  0.2691
49643DOD     C192748   3.010  18.600   9.923 -0.0220 -0.0256  0.0108
49643DOD     C292749   3.204  18.149   9.897 -0.3123  0.2129 -0.3922
49643DOD     C392750   3.075  17.737   9.795 -0.2400 -0.1177  0.1819
49644DOD     C192751  26.426   3.756   0.721  0.0065 -0.0355 -0.0017
49644DOD     C292752  26.638   3.975   0.392  0.3287  0.0371 -0.3916
49644DOD     C392753  26.661   4.316   0.090  0.0207  0.2017  0.0094
49645DOD     C192754   3.722  22.545  14.430 -0.2929  0.2043  0.0405
49645DOD     C292755   3.612  22.525  14.848  0.3834  0.1114  0.1888
49645DOD     C392756   3.524  22.812  15.212 -0.2151 -0.0425 -0.1498
49646DOD     C192757  26.849  10.016  20.087  0.3880  0.1118 -0.0576
49646DOD     C292758  26.728  10.461  20.205 -0.1061  0.0152 -0.0860
49646DOD     C392759  26.552  10.868  20.093  0.0286  0.1520  0.3254
49647DOD     C192760  19.966  16.158   6.854 -0.0962  0.0988  0.0963
49647DOD     C292761  19.808  16.209   7.292  0.0468  0.0023  0.2877
49647DOD     C392762  19.385  16.458   7.422  0.2349 -0.0022  0.3280
49648DOD     C192763  23.561  17.924  16.896 -0.2233  0.1805  0.0565
49648DOD     C292764  23.234  17.597  16.947  0.0737  0.1776 -0.2267
49648DOD     C392765  22.814  17.369  16.806 -0.0763 -0.0187 -0.0805
49649DOD     C192766  11.327   3.434   4.088  0.1504 -0.0061  0.1642
49649DOD     C292767  11.541   3.026   3.953  0.1330 -0.1102 -0.2186
49649DOD     C392768  11.807   2.940   3.577 -0.1072 -0.0462 -0.1899
49650DOD     C192769  20.366  20.307   4.105 -0.2699  0.1958 -0.1558
49650DOD     C292770  19.979  20.257   4.401  0.0410  0.0581  0.2256
49650DOD     C392771  19.489  20.425   4.462 -0.1425  0.0238  0.1061
49651DOD     C192772   0.813  24.437  20.377  0.3229  0.0732  0.3759
49651DOD     C292773   1.239  24.615  20.528  0.0767 -0.1927  0.0817
49651DOD     C392774   1.653  24.891  20.358 -0.1323  0.1657 -0.1057
49652DOD     C192775  23.113   9.920  17.117 -0.1258  0.0806 -0.1300
49652DOD     C292776  22.843  10.115  16.802 -0.3099 -0.2375 -0.0527
49652DOD     C392777  22.756  10.475  16.546 -0.0359  0.1818  0.2084
49653DOD     C192778  23.741  24.609  23.468 -0.2907 -0.0034 -0.2547
49653DOD     C292779  23.831  24.813  23.851  0.0166  0.2300  0.3748
49653DOD     C392780  24.040  25.175  24.042  0.0733 -0.2122  0.1718
49654DOD     C192781   7.130  29.773   1.202 -0.1971  0.0026 -0.1947
49654DOD     C292782   7.406  29.404   1.130  0.3730  0.0078 -0.0935
49654DOD     C392783   7.163  29.045   1.366 -0.1395 -0.0170 -0.3202
49655DOD     C192784   6.732  11.781   7.057  0.0819 -0.0362  0.0095
49655DOD     C292785   7.007  11.509   6.826 -0.0806 -0.1376  0.0711
49655DOD     C392786   7.253  11.233   6.556 -0.2446  0.0335 -0.2402
49656DOD     C192787   3.098   1.273  23.874  0.2636 -0.0690  0.0101
49656DOD     C292788   3.210   1.666  23.712  0.1097 -0.2465  0.1499
49656DOD     C392789   3.208   2.107  23.755  0.2379  0.0149  0.3274
49657DOD     C192790   2.978   0.288  19.873 -0.1768  0.2354  0.0461
49657DOD     C292791   3.379   0.061  19.745 -0.2493  0.1675  0.0678
49657DOD     C392792   3.468  30.078  19.376 -0.0754  0.1364 -0.1214
49658DOD     C192793  18.618  24.394  21.610  0.2572 -0.1108  0.3002
49658DOD     C292794  18.382  24.289  21.159  0.0514 -0.2658 -0.3079
49658DOD     C392795  18.015  24.150  20.936 -0.0724  0.0176 -0.1736
49659DOD     C192796  18.509   0.884  15.864 -0.1239 -0.1536 -0.0904
49659DOD     C292797  18.183   0.694  15.723 -0.1929  0.0033 -0.1031
49659DOD     C392798  18.082   0.485  15.323  0.2851 -0.0631  0.2695
49660DOD     C192799  23.612   4.064   1.955  0.3153  0.0960 -0.1163
49660DOD     C292800  23.245   3.781   2.075  0.4235  0.2877  0.2643
49660DOD     C392801  23.185   3.303   2.135  0.1886  0.0948  0.2641
49661DOD     C192802   5.508  10.900  19.945  0.0680 -0.3676  0.1539
49661DOD     C292803   5.066  10.990  19.906  0.1262  0.0729 -0.0776
49661DOD     C392804   4.597  10.952  19.926 -0.0215  0.1266 -0.0531
49662DOD     C192805  28.584   4.788   6.865  0.0465  0.0496 -0.1242
49662DOD     C292806  28.673   5.126   7.151 -0.0960 -0.1799  0.0861
49662DOD     C392807  28.478   5.515   7.344 -0.1384 -0.2489  0.0466
49663DOD     C192808  17.527  23.913  29.113 -0.0456  0.1933  0.2337
49663DOD     C292809  17.151  23.665  29.076  0.1345 -0.0005 -0.0162
49663DOD     C392810  16.645  23.541  28.926  0.0529 -0.2457  0.3814
49664DOD     C192811   6.193  21.545  10.398  0.1194  0.2057  0.0641
49664DOD     C292812   5.927  21.945  10.236 -0.0769  0.0873 -0.2139
49664DOD     C392813   5.674  22.327  10.293 -0.0482 -0.3281 -0.1596
49665DOD     C192814  16.805  24.603  20.362 -0.1364  0.0891 -0.1056
49665DOD     C292815  17.174  24.441  20.125  0.2768 -0.0355 -0.0718
49665DOD     C392816  17.357  24.350  19.742 -0.2688 -0.0114  0.2014
49666DOD     C192817   3.372  17.072  11.873 -0.1493  0.2798  0.0362
49666DOD     C292818   3.151  17.347  11.977  0.3066  0.1053  0.2559
49666DOD     C392819   3.075  17.699  12.281  0.2026  0.0180  0.4093
49667DOD     C192820  21.392  10.981  27.206 -0.2105 -0.1073 -0.2591
49667DOD     C292821  21.302  10.819  27.638  0.0879  0.4284  0.0898
49667DOD     C392822  21.474  10.981  28.041 -0.0409  0.0085  0.1757
49668DOD     C192823  20.496  14.568   3.757 -0.1126  0.0995  0.0698
49668DOD     C292824  20.105  14.476   3.908 -0.2332  0.0884  0.0364
49668DOD     C392825  19.772  14.681   4.186 -0.2079  0.2171 -0.1139
49669DOD     C192826  27.960   9.881  20.113  0.3159 -0.0218 -0.0149
49669DOD     C292827  27.790  10.179  19.822 -0.2487 -0.1646 -0.3104
49669DOD     C392828  27.517  10.561  19.726 -0.0178 -0.3087  0.0950
49670DOD     C192829   6.377   2.348  24.687 -0.1977 -0.0618 -0.0230
49670DOD     C292830   6.116   2.690  24.863 -0.3479 -0.2749  0.0186
49670DOD     C392831   5.862   2.915  25.254 -0.2027  0.1983 -0.0965
49671DOD     C192832  18.308  27.284  15.527  0.2160  0.2714 -0.2134
49671DOD     C292833  18.101  27.001  15.876 -0.3028 -0.0694 -0.1082
49671DOD     C392834  17.667  26.854  15.873  0.1373 -0.0000  0.0842
49672DOD     C192835   0.719   6.009  24.253 -0.0374  0.2358  0.0657
49672DOD     C292836   1.196   6.018  24.292  0.2584  0.0142  0.4312
49672DOD     C392837   1.556   5.902  24.582 -0.0427  0.2223  0.0387
49673DOD     C192838  13.008  19.072  10.590  0.0152 -0.1168  0.0438
49673DOD     C292839  13.417  18.915  10.394  0.2338 -0.2659  0.2262
49673DOD     C392840  13.858  18.890  10.388  0.3090 -0.1108 -0.0322
49674DOD     C192841   4.892  29.560  27.276  0.1042  0.1808  0.1784
49674DOD     C292842   5.242  29.255  27.292  0.1470  0.0138  0.0664
49674DOD     C392843   5.417  28.973  27.635  0.2156 -0.1653  0.0394
49675DOD     C192844  29.216  13.266   7.090 -0.2394 -0.0277  0.1233
49675DOD     C292845  28.786  13.097   7.284  0.3450 -0.1166 -0.0294
49675DOD     C392846  28.391  12.914   7.416 -0.1148 -0.2751  0.0812
49676DOD     C192847  13.478  15.239   6.573  0.0168  0.1169  0.0537
49676DOD     C292848  13.567  15.411   6.996  0.2480  0.1362 -0.1260
49676DOD     C392849  13.463  15.593   7.403  0.1427  0.0382 -0.0484
49677DOD     C192850   7.595  15.322  20.869  0.1509 -0.2786  0.0433
49677DOD     C292851   7.776  15.225  20.452  0.0497 -0.1635  0.1996
49677DOD     C392852   7.628  15.218  20.007 -0.1498  0.1448 -0.0390
49678DOD     C192853   2.290  27.961  12.176  0.0071  0.3940  0.2681
49678DOD     C292854   1.860  27.974  12.188  0.1704 -0.1444 -0.1132
49678DOD     C392855   1.442  27.918  11.936 -0.1131  0.1032 -0.3051
49679DOD     C192856  29.641  23.855  26.317 -0.0973  0.0769 -0.0356
49679DOD     C292857  30.056  24.099  26.199  0.1833  0.1401 -0.0726
49679DOD     C392858  30.180  24.553  26.065 -0.2295 -0.1219  0.0352
49680DOD     C192859   0.075  29.675  19.351 -0.0944  0.0054  0.1028
49680DOD     C292860   0.247  29.912  18.979 -0.2804  0.0909  0.0850
49680DOD     C392861   0.373  30.204  18.567  0.1216  0.1258  0.1711
49681DOD     C192862  25.102  30.011  14.392  0.1483  0.2011  0.2220
49681DOD     C292863  25.216   0.159  14.358  0.0517 -0.2291 -0.2197
49681DOD     C392864  25.266   0.537  14.622 -0.0967 -0.0377 -0.2959
49682DOD     C192865   6.574   1.159  25.942  0.1369  0.1461 -0.1677
49682DOD     C292866   6.605   0.884  26.275  0.1352 -0.2550 -0.1779
49682DOD     C392867   6.728   0.456  26.286  0.0252 -0.0033 -0.4627
49683DOD     C192868   6.587  29.119   1.814  0.3482  0.1496 -0.1156
49683DOD     C292869   6.328  28.779   1.905 -0.0169 -0.1747 -0.1784
49683DOD     C392870   5.964  28.656   1.594  0.0958  0.1174 -0.2579
49684DOD     C192871  17.855   7.063   7.008 -0.2846  0.2643  0.1498
49684DOD     C292872  17.605   6.767   7.251  0.0697  0.1756 -0.1718
49684DOD     C392873  17.474   6.614   7.694  0.3677  0.1750  0.1841
49685DOD     C192874  23.578   7.895   9.628 -0.3518  0.2609 -0.0541
49685DOD     C292875  23.150   7.924   9.304  0.0014  0.1985  0.1134
49685DOD     C392876  22.817   7.914   8.955 -0.0832  0.1371 -0.3726
49686DOD     C192877  24.550   5.226  10.988  0.0082 -0.0205  0.1033
49686DOD     C292878  24.776   4.895  10.702  0.1811  0.0271 -0.3083
49686DOD     C392879  25.024   5.053  10.387  0.1927 -0.0464 -0.1903
49687DOD     C192880  23.153  16.538  23.422  0.0011  0.2238  0.3037
49687DOD     C292881  22.823  16.518  23.747 -0.1670  0.0373  0.2161
49687DOD     C392882  22.554  16.632  24.094 -0.1885  0.0465  0.0429
49688DOD     C192883  14.461   1.348   1.326  0.2008  0.3379  0.1922
49688DOD     C292884  14.564   1.397   0.856  0.1590 -0.0272 -0.0425
49688DOD     C392885  14.843   1.556   0.497 -0.1622 -0.3789 -0.2573
49689DOD     C192886  18.225   9.418  21.410 -0.1517 -0.0587  0.0964
49689DOD     C292887  18.170   9.159  21.802 -0.1802  0.0281  0.0153
49689DOD     C392888  18.052   8.844  22.157  0.2958  0.0795 -0.3405
49690DOD     C192889  16.450   7.275  24.216 -0.0948  0.0167  0.0064
49690DOD     C292890  16.585   6.800  24.130  0.2398  0.1204 -0.1733
49690DOD     C392891  16.760   6.431  24.333 -0.0339  0.2025 -0.2726
49691DOD     C192892   1.776  12.799  11.928  0.3279  0.0215 -0.1386
49691DOD     C292893   2.042  13.029  11.680  0.0823 -0.1881  0.1452
49691DOD     C392894   2.157  13.237  11.307 -0.0548  0.1311  0.0159
49692DOD     C192895   5.283  26.916  27.489  0.3453  0.0024 -0.1716
49692DOD     C292896   5.257  27.349  27.298  0.2006 -0.1788 -0.2052
49692DOD     C392897   5.120  27.734  27.448 -0.2746 -0.1498 -0.1735
49693DOD     C192898   2.219  13.781  25.782  0.0378  0.2220 -0.0016
49693DOD     C292899   2.575  13.949  25.648  0.2361 -0.2869 -0.1891
49693DOD     C392900   2.598  14.281  25.358  0.1247  0.2299  0.0655
49694DOD     C192901  23.184  10.561  19.553  0.1700  0.0157  0.0876
49694DOD     C292902  23.525  10.755  19.919  0.0006 -0.3040  0.2578
49694DOD     C392903  23.802  10.771  20.333 -0.1929  0.0387  0.2908
49695DOD     C192904   4.175   7.845  12.076 -0.0149  0.1143  0.1707
49695DOD     C292905   4.282   8.276  12.160  0.3057 -0.1879  0.1603
49695DOD     C392906   4.559   8.535  11.904  0.1899 -0.4237 -0.0410
49696DOD     C192907  26.236  23.732  24.067 -0.5783  0.1061 -0.0896
49696DOD     C292908  25.831  23.542  24.098 -0.0759  0.4130  0.1066
49696DOD     C392909  25.452  23.350  24.286  0.3694 -0.2048  0.3725
49697DOD     C192910  29.969   1.758  14.968 -0.2320  0.1772 -0.1683
49697DOD     C292911  29.643   1.406  14.962 -0.5141 -0.2370 -0.0005
49697DOD     C392912  29.179   1.303  15.005  0.2908  0.2677 -0.1002
49698DOD     C192913   0.615  11.940   4.786 -0.0706 -0.0149  0.2020
49698DOD     C292914   0.842  11.566   4.930  0.1294 -0.3731 -0.0860
49698DOD     C392915   0.846  11.173   5.116 -0.2219 -0.0664  0.0843
49699DOD     C192916  17.840   4.176  14.934  0.0334 -0.0429 -0.0319
49699DOD     C292917  17.497   4.279  15.281 -0.2602  0.0299 -0.0550
49699DOD     C392918  17.135   4.227  15.653  0.1291 -0.0051  0.0494
49700DOD     C192919   9.978  18.665   3.241 -0.2263 -0.0306 -0.0348
49700DOD     C292920   9.946  18.920   2.824 -0.2081 -0.1588 -0.1963
49700DOD     C392921   9.609  18.987   2.487  0.0027 -0.1133 -0.1247
49701DOD     C192922  11.648  26.526   8.878 -0.3074  0.2917 -0.0270
49701DOD     C292923  12.074  26.616   8.755  0.0749 -0.2985 -0.1088
49701DOD     C392924  12.425  26.935   8.593  0.3372 -0.1673  0.1888
49702DOD     C192925  10.290  19.866  23.355  0.3007  0.1355  0.2790
49702DOD     C292926   9.889  19.993  23.299 -0.1038 -0.0574 -0.0725
49702DOD     C392927   9.458  19.853  23.053 -0.0848 -0.1539  0.1470
49703DOD     C192928   0.951  27.555   4.463 -0.2059  0.0465 -0.1135
49703DOD     C292929   1.087  27.193   4.264 -0.0492 -0.1735 -0.2178
49703DOD     C392930   1.428  26.958   4.023  0.3886  0.1327  0.2289
49704DOD     C192931  10.915  26.504  18.701  0.0903  0.2553 -0.5873
49704DOD     C292932  10.978  26.156  19.037  0.2225 -0.2786 -0.3637
49704DOD     C392933  10.687  25.836  19.195 -0.1464 -0.3063 -0.0689
49705DOD     C192934   0.725  12.385  19.683  0.1262  0.3206 -0.1994
49705DOD     C292935   0.796  12.218  19.243 -0.0063 -0.1076 -0.2573
49705DOD     C392936   0.983  11.839  18.996  0.4175  0.0740 -0.2049
49706DOD     C192937   4.756  23.963   0.717 -0.2504 -0.3692  0.0676
49706DOD     C292938   4.460  23.838   1.091 -0.0795 -0.1692 -0.2144
49706DOD     C392939   4.063  23.723   1.123  0.1652  0.0882 -0.1935
49707DOD     C192940  21.307  16.530  25.588 -0.0762 -0.2990  0.1382
49707DOD     C292941  21.243  16.934  25.372  0.0199 -0.1406  0.0699
49707DOD     C392942  20.949  17.309  25.196 -0.0068  0.0635 -0.0101
49708DOD     C192943  19.903  12.383   2.992 -0.2558  0.0853  0.0425
49708DOD     C292944  19.606  12.624   2.741 -0.1171  0.0542 -0.1061
49708DOD     C392945  19.232  12.841   2.932 -0.0246 -0.1517  0.2040
49709DOD     C192946   7.415  28.588   4.775 -0.0196 -0.0645  0.0023
49709DOD     C292947   7.588  28.963   5.014  0.0424 -0.1802 -0.3743
49709DOD     C392948   7.889  29.066   5.323 -0.4516  0.2066 -0.0199
49710DOD     C192949   9.378  22.246  26.748  0.2295  0.0121 -0.0000
49710DOD     C292950   9.164  22.168  27.126  0.0854  0.0753 -0.0875
49710DOD     C392951   8.789  22.096  27.297 -0.0919 -0.1254  0.3988
49711DOD     C192952  22.368  12.758  24.741  0.2121  0.0361 -0.3738
49711DOD     C292953  22.552  12.646  25.141  0.0046  0.0217 -0.0488
49711DOD     C392954  22.873  12.735  25.424  0.4627  0.3098 -0.0151
49712DOD     C192955  22.594  27.988   6.740 -0.1036 -0.1026  0.0402
49712DOD     C292956  22.934  28.209   7.019  0.2258  0.3833 -0.3559
49712DOD     C392957  23.139  27.994   7.362  0.3087  0.3039  0.1813
49713DOD     C192958  28.246  10.959  29.730 -0.1693  0.3088  0.2459
49713DOD     C292959  28.696  11.139  29.731  0.0413  0.1733  0.1026
49713DOD     C392960  29.066  11.073  29.417 -0.2803 -0.2142  0.1954
49714DOD     C192961   0.629  14.816  20.158  0.0831 -0.0645 -0.1262
49714DOD     C292962   0.597  15.180  19.899 -0.0879  0.0124 -0.0747
49714DOD     C392963   0.226  15.426  19.779 -0.3994  0.1373  0.0900
49715DOD     C192964   4.098  15.746  13.887 -0.0179 -0.1308  0.2404
49715DOD     C292965   4.477  15.573  14.124 -0.0319 -0.1364  0.0053
49715DOD     C392966   4.765  15.206  14.233  0.3111 -0.1273 -0.0943
49716DOD     C192967  17.221   0.746  25.085 -0.1308 -0.3470  0.2739
49716DOD     C292968  16.991   0.492  25.344  0.0221 -0.0565  0.0201
49716DOD     C392969  16.627   0.231  25.353 -0.0715  0.1534 -0.2655
49717DOD     C192970  25.467   7.647  15.022  0.2893  0.1697 -0.1193
49717DOD     C292971  25.756   7.276  15.181 -0.1433 -0.1534  0.0203
49717DOD     C392972  25.806   7.020  15.593 -0.2732 -0.0740  0.0657
49718DOD     C192973  12.249  10.909  18.726  0.0959 -0.0052  0.0247
49718DOD     C292974  11.778  10.897  18.783 -0.2355  0.0873 -0.0370
49718DOD     C392975  11.472  10.920  18.350  0.1372  0.1201 -0.2377
49719DOD     C192976  25.091  16.162  18.795 -0.2963  0.0165  0.3057
49719DOD     C292977  25.589  16.126  18.698  0.0043  0.1126  0.0973
49719DOD     C392978  25.954  16.414  18.710  0.3227  0.3026 -0.1635
49720DOD     C192979   1.870  25.330  17.167 -0.0166  0.4412  0.5313
49720DOD     C292980   2.007  24.850  17.343  0.3035 -0.1139  0.0251
49720DOD     C392981   2.002  24.647  17.741  0.0456 -0.0679 -0.2674
49721DOD     C192982  24.682  26.975  17.093 -0.0530  0.0702 -0.0826
49721DOD     C292983  24.399  26.967  16.723 -0.0253 -0.3248 -0.3036
49721DOD     C392984  24.355  26.895  16.268 -0.2939 -0.0213 -0.2053
49722DOD     C192985  16.309   4.816  16.595  0.2198  0.2733  0.0084
49722DOD     C292986  16.085   5.209  16.727 -0.0151  0.4117 -0.3548
49722DOD     C392987  16.066   5.688  16.873  0.0150  0.1075  0.3408
49723DOD     C192988  29.881   5.442   3.518  0.2028 -0.2328 -0.3044
49723DOD     C292989  29.744   5.843   3.762 -0.1219 -0.0437  0.1051
49723DOD     C392990  29.489   6.031   4.061  0.3450 -0.1891 -0.1235
49724DOD     C192991  27.355   2.764  24.410  0.0015  0.1034 -0.0707
49724DOD     C292992  27.422   2.538  23.966  0.0582 -0.0601  0.1404
49724DOD     C392993  27.420   2.276  23.580 -0.0112 -0.0532  0.2574
49725DOD     C192994  19.931   0.836  10.393  0.0327 -0.0928  0.1886
49725DOD     C292995  20.194   0.808  10.030 -0.0285 -0.1466  0.0981
49725DOD     C392996  20.364   0.580   9.670 -0.0823  0.1373 -0.3367
49726DOD     C192997  19.806  16.417  20.731 -0.0467 -0.1001 -0.4798
49726DOD     C292998  20.218  16.596  20.919 -0.0612  0.0802 -0.1870
49726DOD     C392999  20.321  17.044  21.134 -0.0039  0.2233  0.0892
49727DOD     C193000  30.189  29.602  29.875 -0.0820  0.2169  0.1209
49727DOD     C293001  29.814  29.346  30.022  0.0797  0.0418 -0.0426
49727DOD     C393002  29.899  28.877  29.959  0.1080 -0.2369 -0.0342
49728DOD     C193003  17.224  28.376  23.363  0.4196 -0.0030  0.2568
49728DOD     C293004  17.689  28.330  23.428  0.3905 -0.1560  0.0499
49728DOD     C393005  17.998  28.064  23.122  0.1295  0.2056  0.0538
49729DOD     C193006   1.769  20.023  25.243 -0.1478  0.0480 -0.1174
49729DOD     C293007   1.909  19.629  25.025 -0.0652  0.3711  0.2658
49729DOD     C393008   2.176  19.313  25.262  0.3230  0.1707 -0.2710
49730DOD     C193009  22.480  28.845  14.982 -0.1653  0.2293 -0.2755
49730DOD     C293010  22.074  29.132  14.922 -0.2563 -0.0976  0.1039
49730DOD     C393011  21.845  29.549  14.881  0.2568  0.1452  0.1025
49731DOD     C193012  30.221   4.831  16.031 -0.2061 -0.0104  0.3503
49731DOD     C293013   0.190   4.470  16.111  0.1171 -0.0641 -0.0153
49731DOD     C393014   0.620   4.469  16.301  0.1528 -0.0593 -0.2278
49732DOD     C193015   2.325  17.395  21.845  0.2177 -0.1080 -0.0872
49732DOD     C293016   1.827  17.388  21.785  0.0202  0.0803 -0.0265
49732DOD     C393017   1.368  17.562  21.939  0.1489 -0.2974  0.0434
49733DOD     C193018   6.852   4.328   7.281 -0.1152  0.0808 -0.4878
49733DOD     C293019   6.478   4.121   7.357  0.1219  0.1619 -0.0444
49733DOD     C393020   6.081   3.952   7.207  0.2659  0.1494 -0.0079
49734DOD     C193021   3.176  22.761   7.478 -0.0926  0.0252 -0.2718
49734DOD     C293022   3.498  22.898   7.721  0.0227 -0.2796  0.1231
49734DOD     C393023   3.810  22.863   8.112 -0.0250  0.1332  0.1879
49735DOD     C193024  23.902  29.971  16.954 -0.3386  0.0111  0.2593
49735DOD     C293025  23.797  30.281  16.635 -0.1140  0.0918 -0.1101
49735DOD     C393026  23.601   0.320  16.345 -0.3490 -0.1241  0.1955
49736DOD     C193027  12.194   8.134   4.564 -0.0318 -0.1680 -0.0903
49736DOD     C293028  11.784   8.352   4.604  0.2180 -0.2683  0.0873
49736DOD     C393029  11.315   8.371   4.683  0.1179  0.1398  0.3162
49737DOD     C193030  12.038  14.015   3.580  0.4897  0.0261  0.0968
49737DOD     C293031  12.005  13.557   3.531  0.0748  0.0389  0.5627
49737DOD     C393032  11.894  13.137   3.671 -0.2616  0.2431  0.1056
49738DOD     C193033  29.437  19.982  17.619 -0.3001 -0.4641 -0.3236
49738DOD     C293034  29.821  19.728  17.493 -0.2346  0.1568 -0.1504
49738DOD     C393035  30.264  19.632  17.304  0.2894 -0.0194 -0.1585
49739DOD     C193036   0.819  27.237  11.862  0.0611  0.1593 -0.0792
49739DOD     C293037   1.145  27.494  12.153  0.0679  0.0142 -0.1824
49739DOD     C393038   1.583  27.484  12.188 -0.1647  0.0802  0.3951
49740DOD     C193039  14.666  11.490   2.210 -0.0612 -0.1420  0.0984
49740DOD     C293040  14.741  11.165   2.561 -0.2026  0.0315  0.0774
49740DOD     C393041  15.021  10.842   2.734  0.1531  0.0463 -0.1663
49741DOD     C193042   1.466  12.414  17.501  0.0237  0.1278 -0.2838
49741DOD     C293043   1.101  12.362  17.222 -0.2032  0.0718  0.1497
49741DOD     C393044   0.755  12.322  16.923  0.2418 -0.0917  0.2063
49742DOD     C193045  29.659  26.964  16.089  0.1611  0.1747  0.2813
49742DOD     C293046  29.572  27.022  15.640  0.0446  0.2384  0.2514
49742DOD     C393047  29.352  26.849  15.262  0.2390 -0.0044 -0.2210
49743DOD     C193048   1.237   4.387   1.500 -0.1278  0.0196 -0.0242
49743DOD     C293049   0.824   4.500   1.547  0.1885 -0.1095  0.0374
49743DOD     C393050   0.412   4.416   1.694  0.3474 -0.1379 -0.0678
49744DOD     C193051  15.816   1.069  12.321  0.1471  0.0963  0.0430
49744DOD     C293052  15.580   0.821  11.980  0.3735  0.1509 -0.0286
49744DOD     C393053  15.587   0.541  11.650 -0.0510  0.0711  0.0915
49745DOD     C193054  24.443  13.046   6.193 -0.0643 -0.0003 -0.1840
49745DOD     C293055  24.584  12.738   5.924 -0.1153  0.0293  0.0762
49745DOD     C393056  24.582  12.397   5.575 -0.0290 -0.0722  0.0227
49746DOD     C193057  22.469  10.218   3.785 -0.0909 -0.0194 -0.0272
49746DOD     C293058  22.149  10.403   3.479  0.2500 -0.1073 -0.0764
49746DOD     C393059  21.746  10.727   3.344 -0.2297  0.0139 -0.1435
49747DOD     C193060  20.860  22.810   8.288 -0.1653  0.1507 -0.0150
49747DOD     C293061  20.475  22.561   8.338  0.0380 -0.0964  0.0018
49747DOD     C393062  20.404  22.227   8.035  0.1392  0.1138 -0.2054
49748DOD     C193063   1.067   1.471   7.753  0.3620 -0.5330 -0.1795
49748DOD     C293064   1.005   1.925   7.737 -0.1555  0.0803  0.0323
49748DOD     C393065   0.812   2.344   7.850  0.0787  0.1033 -0.0971
49749DOD     C193066   0.879   6.232  10.036 -0.1385 -0.1522 -0.1924
49749DOD     C293067   0.976   6.338  10.459 -0.1357  0.0549 -0.0803
49749DOD     C393068   1.061   6.721  10.740  0.1985  0.2927  0.1277
49750DOD     C193069   3.366   3.373   3.969  0.1424  0.1757 -0.0538
49750DOD     C293070   3.083   3.032   4.180  0.1992  0.0885 -0.2061
49750DOD     C393071   3.007   2.651   4.459  0.0192  0.0084  0.1521
49751DOD     C193072  29.214  17.918   1.191  0.1684  0.0697  0.1096
49751DOD     C293073  29.510  18.295   1.303 -0.1043 -0.1425 -0.0488
49751DOD     C393074  29.774  18.675   1.297  0.0662  0.0221  0.0499
49752DOD     C193075  18.249  17.663   2.897  0.1583  0.1434  0.0640
49752DOD     C293076  18.596  17.872   3.085 -0.1005  0.0917 -0.1883
49752DOD     C393077  18.795  18.209   3.394 -0.5008 -0.0494  0.2208
49753DOD     C193078   4.156  27.925  12.156 -0.0924 -0.3800  0.0506
49753DOD     C293079   4.224  27.599  11.801 -0.0994 -0.5076  0.2776
49753DOD     C393080   4.592  27.298  11.625 -0.0911 -0.0067  0.1674
49754DOD     C193081  13.160  11.594  17.211 -0.0043 -0.2732 -0.3481
49754DOD     C293082  13.547  11.676  17.005  0.2108  0.1313  0.6196
49754DOD     C393083  13.735  11.730  16.607  0.0527 -0.3683  0.0503
49755DOD     C193084   7.515  24.221   8.348 -0.0970  0.0937 -0.0235
49755DOD     C293085   7.098  24.090   8.573 -0.0857  0.0193 -0.2306
49755DOD     C393086   7.095  23.642   8.698 -0.2750 -0.0870  0.0278
49756DOD     C193087   0.320  10.747  28.683  0.1245 -0.3418  0.1760
49756DOD     C293088   0.505  10.771  29.146 -0.4885 -0.1740  0.0639
49756DOD     C393089   0.487  11.070  29.561  0.2262 -0.0513  0.0138
49757DOD     C193090   7.792   2.728   9.425 -0.0908 -0.2352  0.0531
49757DOD     C293091   7.611   3.182   9.324  0.0513 -0.1138  0.2057
49757DOD     C393092   7.216   3.287   9.122 -0.1702 -0.3105 -0.5195
49758DOD     C193093  18.630  19.960   3.780  0.0052  0.0272  0.6099
49758DOD     C293094  18.616  19.978   4.249 -0.2468  0.0677  0.2954
49758DOD     C393095  18.780  19.831   4.637  0.2837  0.3174  0.0309
49759DOD     C193096  21.001   9.076  12.928 -0.4875 -0.4024 -0.2892
49759DOD     C293097  21.219   9.066  12.544 -0.2693 -0.0858 -0.3429
49759DOD     C393098  21.262   9.313  12.137 -0.0088  0.0716 -0.0864
49760DOD     C193099  17.004  16.428   1.293 -0.0353  0.1484 -0.1950
49760DOD     C293100  16.950  16.454   1.742  0.0404  0.3361 -0.1872
49760DOD     C393101  16.886  16.798   2.098 -0.3148  0.2798  0.0119
49761DOD     C193102  22.435   2.323  16.730 -0.0196 -0.2379 -0.1975
49761DOD     C293103  22.379   2.692  16.456 -0.1114 -0.1097 -0.1758
49761DOD     C393104  22.703   2.969  16.173  0.1694  0.0156 -0.5334
49762DOD     C193105   6.378  24.262  23.366  0.2579  0.0696  0.1875
49762DOD     C293106   5.949  24.437  23.633  0.0171  0.1087 -0.1002
49762DOD     C393107   5.797  24.655  24.020 -0.1476  0.2002  0.0229
49763DOD     C193108  21.764  17.003  15.153 -0.0012  0.0578 -0.0749
49763DOD     C293109  21.759  17.135  15.595 -0.2548  0.0467  0.1434
49763DOD     C393110  21.876  16.934  16.032 -0.0598  0.1048 -0.0205
49764DOD     C193111  12.671   4.077   9.440  0.0829 -0.1562  0.2642
49764DOD     C293112  12.784   4.114   8.981  0.1877  0.0487 -0.3823
49764DOD     C393113  12.757   3.780   8.689 -0.0748 -0.0061  0.1013
49765DOD     C193114   3.189  20.420   2.501  0.0934 -0.2320  0.2746
49765DOD     C293115   3.286  20.030   2.154 -0.0229  0.0149  0.1350
49765DOD     C393116   3.481  19.579   2.159 -0.1999  0.1311  0.3688
49766DOD     C193117   2.589  18.667   7.944 -0.0188 -0.0222  0.0256
49766DOD     C293118   2.694  18.565   8.423  0.3391 -0.2774  0.0606
49766DOD     C393119   2.800  18.900   8.725 -0.0966  0.0025  0.2871
49767DOD     C193120   6.217   2.761  21.685 -0.3156  0.0030  0.2330
49767DOD     C293121   5.804   2.646  21.787  0.2007  0.1596  0.2306
49767DOD     C393122   5.537   2.688  22.134  0.0124 -0.1860  0.1662
49768DOD     C193123   9.077   1.192   8.320 -0.0566  0.0065  0.2359
49768DOD     C293124   9.125   1.616   8.551 -0.0611  0.1190  0.2380
49768DOD     C393125   8.921   1.891   8.894  0.0341 -0.3251 -0.0471
49769DOD     C193126   9.410   1.240  27.372  0.2610 -0.2610 -0.1430
49769DOD     C293127   9.315   1.495  27.765  0.0686  0.0713  0.2652
49769DOD     C393128   9.008   1.750  27.957  0.0861 -0.0253 -0.1227
49770DOD     C193129   8.841  16.580   7.852  0.1205 -0.0002  0.2956
49770DOD     C293130   8.763  16.963   7.598 -0.1242  0.2203  0.0535
49770DOD     C393131   8.574  17.195   7.236  0.3611 -0.0352  0.0100
49771DOD     C193132   7.149  17.465  22.519 -0.3122 -0.0520  0.0603
49771DOD     C293133   7.157  17.137  22.157 -0.0663  0.0822 -0.0864
49771DOD     C393134   6.832  17.037  21.839 -0.0886 -0.1331 -0.4409
49772DOD     C193135  11.930  28.689  26.279 -0.3219 -0.0462 -0.2492
49772DOD     C293136  12.329  28.443  26.355 -0.3745  0.0623 -0.1028
49772DOD     C393137  12.758  28.251  26.368  0.0187 -0.0291 -0.1446
49773DOD     C193138  16.246  29.155  22.226  0.0932 -0.0500 -0.0585
49773DOD     C293139  16.581  29.216  22.578  0.1628  0.1206  0.0185
49773DOD     C393140  16.868  29.545  22.797  0.2040 -0.0672 -0.1938
49774DOD     C193141  10.165  10.530  17.268 -0.1297 -0.0966 -0.0600
49774DOD     C293142  10.412  10.881  17.338  0.1972  0.1365  0.2634
49774DOD     C393143  10.393  11.318  17.425 -0.1426  0.0680 -0.0187
49775DOD     C193144  16.951   2.028  23.785 -0.0704  0.2148  0.0286
49775DOD     C293145  17.251   1.770  23.760 -0.2261  0.0262  0.1878
49775DOD     C393146  17.400   1.441  23.352 -0.4357 -0.1700  0.0144
49776DOD     C193147  24.671   3.210  11.607 -0.2226 -0.1353  0.0210
49776DOD     C293148  24.427   2.843  11.599 -0.0752  0.3186  0.1749
49776DOD     C393149  24.045   2.557  11.471  0.0180 -0.1008  0.3500
49777DOD     C193150  16.427   6.785  23.139 -0.2363 -0.3703 -0.1726
49777DOD     C293151  16.272   7.206  23.292  0.0903  0.0321  0.1393
49777DOD     C393152  16.265   7.259  23.752 -0.0231 -0.1421 -0.0810
49778DOD     C193153  21.680  11.805   8.866 -0.2066  0.0666 -0.0467
49778DOD     C293154  21.530  11.562   8.457  0.0340 -0.2177 -0.0398
49778DOD     C393155  21.698  11.401   8.052  0.0302 -0.3048 -0.3586
49779DOD     C193156  20.752   0.214  22.394  0.2382 -0.1424  0.1844
49779DOD     C293157  20.692   0.087  22.853  0.0406  0.2336  0.0710
49779DOD     C393158  20.446  30.174  23.195  0.1015  0.3155  0.0461
49780DOD     C193159   7.010  14.068  29.616 -0.4593 -0.0909 -0.0095
49780DOD     C293160   7.354  14.226  29.349  0.0160 -0.2119 -0.1617
49780DOD     C393161   7.590  14.621  29.364 -0.0481 -0.2328 -0.0594
49781DOD     C193162   2.780  19.320  23.105  0.2812  0.2235 -0.0088
49781DOD     C293163   2.742  19.087  23.469 -0.1603  0.0100  0.3683
49781DOD     C393164   2.452  18.870  23.719 -0.0845  0.0477 -0.2643
49782DOD     C193165  22.160   8.553  11.567 -0.0323 -0.0840  0.2328
49782DOD     C293166  22.630   8.586  11.603  0.0631 -0.0176 -0.1620
49782DOD     C393167  23.083   8.684  11.732  0.2958 -0.0058  0.1690
49783DOD     C193168   3.820   8.370  22.530  0.1865 -0.1106  0.1330
49783DOD     C293169   3.444   8.144  22.246  0.1439  0.1680 -0.0437
49783DOD     C393170   3.312   7.971  21.837  0.1560 -0.0147  0.1444
49784DOD     C193171   2.237   0.931   2.692 -0.1016 -0.0563 -0.1383
49784DOD     C293172   2.254   1.184   2.210  0.1218  0.0530 -0.1057
49784DOD     C393173   2.510   1.287   1.846  0.1396  0.3158 -0.0730
49785DOD     C193174   5.097  20.271  21.942 -0.0530 -0.0485 -0.0241
49785DOD     C293175   4.769  20.123  21.655 -0.0723  0.3385  0.0043
49785DOD     C393176   4.467  19.791  21.693  0.2112  0.1065  0.1321
49786DOD     C193177  -0.017  15.586  16.527 -0.1172  0.3981 -0.1428
49786DOD     C293178   0.220  15.866  16.200 -0.1499  0.0524  0.2174
49786DOD     C393179   0.617  15.810  15.923 -0.2597  0.1214 -0.1871
49787DOD     C193180  12.761  30.149   5.025 -0.1143 -0.1840 -0.2517
49787DOD     C293181  13.079  30.176   4.706 -0.2273  0.2683 -0.1934
49787DOD     C393182  13.405  29.994   4.441 -0.2159 -0.2245 -0.2127
49788DOD     C193183   2.223   7.229  21.187 -0.1345 -0.0698 -0.1497
49788DOD     C293184   2.414   7.281  20.745 -0.1684 -0.0588  0.3728
49788DOD     C393185   2.569   7.748  20.659  0.2558  0.1028 -0.0556
49789DOD     C193186  18.175  15.691   3.476 -0.2734  0.2876 -0.2405
49789DOD     C293187  17.710  15.655   3.423  0.0857 -0.2110  0.0111
49789DOD     C393188  17.290  15.420   3.375 -0.2038 -0.0226 -0.3909
49790DOD     C193189   6.754  14.820   1.637  0.1444 -0.0241  0.1042
49790DOD     C293190   7.236  14.715   1.449  0.1083 -0.0587 -0.2224
49790DOD     C393191   7.612  14.796   1.170  0.0045 -0.0698  0.1494
49791DOD     C193192  12.460  16.327  28.488 -0.0635 -0.0556  0.0201
49791DOD     C293193  12.184  16.279  28.799 -0.0518 -0.4679 -0.1072
49791DOD     C393194  12.057  16.046  29.213 -0.0952 -0.0606  0.1400
49792DOD     C193195  11.926  20.365  22.543  0.1430 -0.0872  0.1988
49792DOD     C293196  11.533  20.451  22.331  0.1414 -0.2952  0.4051
49792DOD     C393197  11.249  20.681  22.053 -0.2206  0.0046  0.0256
49793DOD     C193198  27.248   3.675  10.994 -0.1457  0.1183  0.3507
49793DOD     C293199  27.346   4.096  10.720 -0.1008 -0.2070 -0.0067
49793DOD     C393200  27.405   4.268  10.279  0.0295 -0.0634  0.2362
49794DOD     C193201  25.429  18.145   1.207 -0.1505 -0.0601  0.3605
49794DOD     C293202  25.151  17.930   1.589  0.1268 -0.0229 -0.0062
49794DOD     C393203  25.131  17.477   1.700  0.2058 -0.1353  0.0739
49795DOD     C193204  17.509   0.878  20.419  0.2052  0.0180 -0.0931
49795DOD     C293205  17.652   0.846  20.884 -0.2732  0.0820  0.0336
49795DOD     C393206  17.720   0.561  21.248  0.0270 -0.0416  0.0109
49796DOD     C193207  29.338   4.772  14.470 -0.1317 -0.0718 -0.0045
49796DOD     C293208  29.002   5.004  14.663 -0.3856 -0.0939 -0.1160
49796DOD     C393209  28.729   5.351  14.531  0.3481  0.0420  0.0683
49797DOD     C193210  28.613   3.667  12.578 -0.0004  0.0715 -0.0677
49797DOD     C293211  28.228   3.355  12.550 -0.1329 -0.1451  0.0286
49797DOD     C393212  27.898   3.196  12.269 -0.2589  0.0036 -0.2218
49798DOD     C193213  13.938   6.570   1.227 -0.1231  0.0290  0.3343
49798DOD     C293214  13.706   6.511   0.800  0.1178 -0.1909  0.5397
49798DOD     C393215  13.408   6.416   0.389 -0.3543  0.0230  0.0654
49799DOD     C193216  13.939   8.633  17.199 -0.0233  0.1187 -0.2500
49799DOD     C293217  13.675   8.730  16.792 -0.2696  0.1091  0.0919
49799DOD     C393218  13.414   8.801  16.421 -0.0221 -0.1738 -0.3114
49800DOD     C193219  27.319   2.468   5.766  0.0961  0.0281 -0.1259
49800DOD     C293220  27.679   2.473   6.031 -0.0721 -0.1732 -0.0043
49800DOD     C393221  27.775   2.618   6.483  0.3954 -0.0762 -0.1944
49801DOD     C193222   6.084  19.755   1.305  0.3245 -0.0909 -0.2490
49801DOD     C293223   5.792  20.060   1.073  0.0896 -0.1096 -0.2097
49801DOD     C393224   5.755  20.379   0.708  0.0018 -0.1939  0.0355
49802DOD     C193225   3.622  16.744  20.626 -0.4368 -0.4462  0.1822
49802DOD     C293226   3.391  16.393  20.364 -0.0626 -0.3879 -0.1998
49802DOD     C393227   3.152  16.421  19.995 -0.1999 -0.1127 -0.0031
49803DOD     C193228   5.225  22.655  21.350 -0.0391  0.2471 -0.0159
49803DOD     C293229   4.784  22.557  21.290 -0.0052  0.1862  0.0581
49803DOD     C393230   4.380  22.381  21.375 -0.0322 -0.2569 -0.3554
49804DOD     C193231   1.938  29.502  23.510 -0.0133 -0.2298  0.0207
49804DOD     C293232   1.462  29.506  23.692  0.3340 -0.0120 -0.0275
49804DOD     C393233   1.247  29.620  24.115  0.2063 -0.0791  0.1189
49805DOD     C193234  12.582   2.055   0.414 -0.1401  0.0993 -0.1303
49805DOD     C293235  12.527   2.471   0.212  0.0235  0.2620  0.2122
49805DOD     C393236  12.804   2.649  30.238 -0.0462  0.2058  0.2219
49806DOD     C193237  25.648   7.493  20.355  0.1647  0.2164 -0.1979
49806DOD     C293238  25.976   7.854  20.366  0.2138 -0.1179 -0.0312
49806DOD     C393239  26.269   8.145  20.612 -0.0786  0.3666  0.1695
49807DOD     C193240  21.311  30.257  21.973 -0.2223 -0.0412 -0.2757
49807DOD     C293241  21.665   0.308  21.947 -0.1058 -0.0577  0.1228
49807DOD     C393242  21.768   0.432  21.548 -0.0057 -0.0785  0.2942
49808DOD     C193243   5.962   2.985  30.228 -0.0401  0.1056  0.0762
49808DOD     C293244   5.745   3.283  29.960 -0.2684 -0.2063  0.1818
49808DOD     C393245   5.839   3.254  29.504  0.0196  0.0043 -0.0724
49809DOD     C193246  23.589  17.690  10.475  0.3684  0.3606  0.0651
49809DOD     C293247  23.682  17.918  10.865 -0.1784 -0.0296 -0.0696
49809DOD     C393248  23.351  18.212  11.033  0.2448 -0.3711  0.0630
49810DOD     C193249   8.354   0.809   1.378  0.2345  0.0921  0.0743
49810DOD     C293250   7.865   0.846   1.463  0.0426 -0.0383  0.0125
49810DOD     C393251   7.448   0.855   1.438  0.0643 -0.0910  0.1159
49811DOD     C193252  20.919  21.025  11.178 -0.0592  0.1255 -0.1614
49811DOD     C293253  20.474  20.727  11.229  0.2707  0.0085  0.2865
49811DOD     C393254  20.090  20.702  10.928 -0.1159 -0.0884  0.1047
49812DOD     C193255   7.157  13.987  21.321  0.0365  0.2726 -0.2802
49812DOD     C293256   7.352  13.778  21.711 -0.4222 -0.0199  0.1939
49812DOD     C393257   7.496  13.337  21.784  0.0825 -0.0625 -0.1092
49813DOD     C193258   5.679  24.195   0.431  0.1035 -0.0138 -0.1900
49813DOD     C293259   5.363  24.527   0.510 -0.0624  0.0504 -0.0030
49813DOD     C393260   5.029  24.823   0.361  0.2215 -0.0207 -0.0242
49814DOD     C193261  18.928   6.986   1.086 -0.0322 -0.2057 -0.0289
49814DOD     C293262  18.647   7.192   0.735 -0.1555  0.0283  0.0915
49814DOD     C393263  18.580   7.638   0.608 -0.0998  0.0118 -0.4719
49815DOD     C193264  29.870   2.450  26.892  0.1445  0.2702 -0.1217
49815DOD     C293265  29.426   2.489  27.112  0.2413  0.0649  0.1664
49815DOD     C393266  28.971   2.443  27.104  0.0672 -0.1922 -0.1688
49816DOD     C193267  30.268  12.374  29.960  0.0819  0.1737 -0.0596
49816DOD     C293268   0.078  12.061  30.249  0.1051  0.1299  0.2276
49816DOD     C393269   0.368  11.748   0.120 -0.0605 -0.2204 -0.0887
49817DOD     C193270  20.494  13.281   0.046  0.0443 -0.1243 -0.2705
49817DOD     C293271  20.019  13.346   0.081  0.0092  0.1342  0.1119
49817DOD     C393272  19.630  13.252   0.333 -0.0056  0.1510  0.3793
49818DOD     C193273   1.333   9.200   2.964  0.0675  0.0396 -0.0032
49818DOD     C293274   1.527   9.647   2.929  0.0082  0.0037 -0.2577
49818DOD     C393275   1.832  10.016   2.850  0.0946  0.1033  0.1510
49819DOD     C193276  15.181   7.658   0.062 -0.2198  0.4133 -0.1335
49819DOD     C293277  15.058   7.231   0.201 -0.1233 -0.1698  0.3282
49819DOD     C393278  14.943   6.790   0.243 -0.0947 -0.1882  0.0914
49820DOD     C193279  16.253  14.348   2.834  0.3980 -0.0418  0.2676
49820DOD     C293280  16.311  14.481   3.236  0.1876 -0.1935 -0.0565
49820DOD     C393281  16.229  14.517   3.652  0.0706 -0.0177  0.1148
49821DOD     C193282  23.428  23.298   2.420  0.0236 -0.0144 -0.1900
49821DOD     C293283  23.422  23.728   2.622 -0.1169 -0.2283  0.0934
49821DOD     C393284  23.209  24.165   2.634  0.1201  0.1419  0.0808
49822DOD     C193285  24.194  27.675  20.587 -0.2977  0.2448  0.2604
49822DOD     C293286  24.398  27.841  20.974  0.0124 -0.0680  0.0471
49822DOD     C393287  24.265  27.987  21.397  0.1265  0.2827 -0.0268
49823DOD     C193288   3.084  11.494  28.610  0.3067 -0.2017  0.2867
49823DOD     C293289   3.197  11.628  29.055  0.0109  0.1224 -0.2309
49823DOD     C393290   3.503  12.023  29.113 -0.0223  0.0492 -0.1604
49824DOD     C193291  17.588   6.877  30.237  0.0188  0.1511 -0.0843
49824DOD     C293292  17.370   6.902   0.329 -0.1776  0.0447 -0.2196
49824DOD     C393293  16.971   6.940   0.536  0.3398  0.1882  0.2253
49825DOD     C193294   9.713  17.618  12.587  0.1397 -0.0040  0.1198
49825DOD     C293295   9.199  17.612  12.679 -0.0279  0.2925  0.2725
49825DOD     C393296   8.778  17.447  12.730 -0.0089  0.0797 -0.2972
49826DOD     C193297   7.063  12.341  20.342  0.1128  0.3954  0.1144
49826DOD     C293298   6.772  12.595  20.091 -0.0300  0.0434 -0.1301
49826DOD     C393299   6.714  12.646  19.587  0.0553 -0.1593  0.0766
49827DOD     C193300   9.089  27.048  22.744 -0.0561 -0.0506  0.3560
49827DOD     C293301   8.899  26.803  22.392 -0.1634  0.0575 -0.0784
49827DOD     C393302   9.024  26.567  21.951  0.3276  0.3221 -0.1435
49828DOD     C193303  19.885  16.540  21.875 -0.0302  0.0808 -0.1561
49828DOD     C293304  20.339  16.781  22.091 -0.0137  0.3670  0.0563
49828DOD     C393305  20.755  16.776  22.235 -0.1051 -0.1392  0.1354
49829DOD     C193306  22.808   5.045   9.072 -0.0766  0.0896  0.1275
49829DOD     C293307  22.397   4.970   9.343  0.1838 -0.1742  0.0412
49829DOD     C393308  22.006   4.700   9.381 -0.1359 -0.0337  0.0032
49830DOD     C193309   1.387  26.705  17.335 -0.0847 -0.1116  0.0567
49830DOD     C293310   1.576  26.794  17.754 -0.1279 -0.0462 -0.1833
49830DOD     C393311   1.699  27.084  18.129 -0.0309 -0.4284  0.2015
49831DOD     C193312  17.994  17.938  13.814 -0.1532  0.1458  0.2261
49831DOD     C293313  18.228  17.788  13.437 -0.1964 -0.2912  0.1413
49831DOD     C393314  18.292  17.778  12.964 -0.0206 -0.0412  0.2475
49832DOD     C193315  21.165  28.740  24.127 -0.0227 -0.0304  0.1871
49832DOD     C293316  21.044  29.196  24.061  0.1654  0.0811  0.3863
49832DOD     C393317  21.122  29.408  23.639  0.1116  0.0800  0.1432
49833DOD     C193318   3.844   2.256  24.014  0.0052 -0.2430 -0.0874
49833DOD     C293319   3.651   1.798  24.025 -0.2078  0.0340  0.2399
49833DOD     C393320   3.556   1.337  24.003 -0.1557  0.1420 -0.4403
49834DOD     C193321   4.830   1.681   4.476  0.0132  0.0201  0.2038
49834DOD     C293322   5.178   1.880   4.375 -0.2394 -0.0791 -0.1970
49834DOD     C393323   5.359   2.243   4.198 -0.0581 -0.1219  0.2347
49835DOD     C193324   6.792  29.334   1.363  0.2446 -0.2937  0.2836
49835DOD     C293325   6.287  29.306   1.393 -0.3275  0.2899 -0.2338
49835DOD     C393326   5.790  29.326   1.510 -0.2428  0.1995 -0.1980
49836DOD     C193327   4.371  29.251   2.275 -0.2000  0.1254 -0.1393
49836DOD     C293328   4.531  28.827   2.467  0.1321 -0.1113 -0.1636
49836DOD     C393329   4.293  28.487   2.321 -0.2255 -0.3784 -0.0412
49837DOD     C193330  23.273  21.878   7.026  0.1430 -0.0348  0.0835
49837DOD     C293331  22.836  21.814   6.836 -0.0408 -0.3948  0.0752
49837DOD     C393332  22.574  21.888   6.454 -0.0431 -0.1149 -0.0142
49838DOD     C193333  28.587  24.320   8.238  0.2038  0.0782 -0.1987
49838DOD     C293334  28.684  24.640   7.901  0.0624 -0.2437 -0.2738
49838DOD     C393335  28.515  24.589   7.439 -0.0857 -0.2599  0.1541
49839DOD     C193336  12.915   2.217  23.379 -0.1800 -0.0657  0.1488
49839DOD     C293337  13.057   1.912  23.722  0.1204  0.0912  0.0081
49839DOD     C393338  13.455   2.002  23.899 -0.1912 -0.1025  0.1518
49840DOD     C193339  30.057  20.709  22.737  0.2015  0.1605 -0.0928
49840DOD     C293340   0.123  20.835  22.443  0.2209  0.0877  0.1310
49840DOD     C393341   0.482  20.562  22.537 -0.2974  0.0904  0.1624
49841DOD     C193342  18.965   0.263   9.298 -0.1507 -0.1643 -0.2362
49841DOD     C293343  19.212   0.239   9.721  0.2188 -0.1815 -0.1112
49841DOD     C393344  19.525   0.190  10.074  0.1632 -0.0483  0.2285
49842DOD     C193345  27.550  19.584  22.454  0.3124 -0.0534  0.1222
49842DOD     C293346  27.368  19.981  22.255  0.3112 -0.0417  0.0688
49842DOD     C393347  27.161  20.393  22.178  0.2241  0.1874 -0.0112
49843DOD     C193348  14.910  23.776  11.251 -0.0965  0.2008  0.0832
49843DOD     C293349  14.649  24.092  11.493  0.1296  0.1528  0.0421
49843DOD     C393350  14.506  24.504  11.666  0.3227  0.3040 -0.2134
49844DOD     C193351  19.114  30.252  14.702 -0.1559 -0.0801  0.0785
49844DOD     C293352  18.852   0.217  14.446  0.0408 -0.1091 -0.1403
49844DOD     C393353  18.560   0.195  14.093 -0.1018 -0.5103  0.0942
49845DOD     C193354   1.099  18.997  23.596 -0.0123 -0.0528  0.2478
49845DOD     C293355   0.795  18.870  23.900  0.3093 -0.1608 -0.0285
49845DOD     C393356   0.855  18.464  24.129  0.2424  0.2520  0.2020
49846DOD     C193357  12.623   4.382  28.167 -0.0117  0.1796  0.2641
49846DOD     C293358  12.883   4.024  27.928  0.1350  0.0360 -0.2022
49846DOD     C393359  13.220   3.737  27.898 -0.3962  0.0815 -0.0942
49847DOD     C193360   5.691  24.053  29.926 -0.1810  0.1080  0.4933
49847DOD     C293361   5.685  23.824  30.306  0.0102  0.0992  0.1189
49847DOD     C393362   5.714  23.489   0.257  0.1343  0.0943  0.0870
49848DOD     C193363  26.359  11.511   1.550 -0.3118  0.0660 -0.1352
49848DOD     C293364  26.409  11.984   1.455 -0.1104  0.0015  0.1887
49848DOD     C393365  26.659  12.355   1.237  0.3834 -0.2063  0.1300
49849DOD     C193366  12.270  29.646  23.851 -0.2840 -0.2974 -0.2274
49849DOD     C293367  12.138  29.710  23.424 -0.2106 -0.2297  0.0329
49849DOD     C393368  11.944  29.914  23.036  0.1129 -0.1176 -0.0536
49850DOD     C193369  15.174   1.996  20.019  0.1108  0.0155  0.2012
49850DOD     C293370  14.866   2.303  19.996  0.2066 -0.1529  0.1570
49850DOD     C393371  14.621   2.690  19.853 -0.0907 -0.1310  0.2989
49851DOD     C193372   2.703  14.216   4.164  0.4687  0.1572  0.2058
49851DOD     C293373   2.250  14.037   4.121 -0.2324 -0.0703  0.5276
49851DOD     C393374   1.823  14.000   3.914 -0.1933  0.0289  0.0891
49852DOD     C193375  27.029  10.616  15.414  0.0500  0.1358  0.0953
49852DOD     C293376  26.928  11.077  15.419  0.3006  0.1605  0.1720
49852DOD     C393377  26.933  11.511  15.460 -0.3615 -0.0996 -0.1884
49853DOD     C193378  29.242  11.535  15.059 -0.3580 -0.0236 -0.0254
49853DOD     C293379  29.676  11.327  14.955  0.1444 -0.0216  0.1901
49853DOD     C393380  29.931  10.936  14.877  0.3827  0.1508  0.0472
49854DOD     C193381  27.019  29.868   3.830  0.2318  0.1554 -0.1244
49854DOD     C293382  27.205  30.206   3.678  0.0780 -0.1289  0.2981
49854DOD     C393383  27.469   0.209   3.458  0.0756 -0.0277  0.1315
49855DOD     C193384   1.054   6.186  26.470 -0.2048 -0.0895  0.1423
49855DOD     C293385   1.459   6.315  26.275 -0.0508  0.3504 -0.0273
49855DOD     C393386   1.663   6.394  25.907 -0.3943  0.2105  0.0422
49856DOD     C193387   9.004  11.724  28.815 -0.1681  0.0948  0.1692
49856DOD     C293388   8.619  11.526  29.021  0.0251  0.0442 -0.0318
49856DOD     C393389   8.246  11.452  29.300 -0.1380 -0.0743  0.0068
49857DOD     C193390  17.163   9.777  10.711  0.0087  0.0718  0.0316
49857DOD     C293391  17.048   9.615  11.177 -0.1604  0.2715 -0.2472
49857DOD     C393392  16.817   9.677  11.589 -0.1991  0.2041 -0.0148
49858DOD     C193393  23.975  10.139   5.585 -0.0716  0.4778  0.0304
49858DOD     C293394  23.591  10.340   5.588 -0.0005 -0.1898 -0.1333
49858DOD     C393395  23.356  10.333   6.063  0.0498  0.1748 -0.0195
49859DOD     C193396  21.545  24.134  13.046  0.0843 -0.4480 -0.1585
49859DOD     C293397  21.725  24.156  13.506  0.1349 -0.2430 -0.1097
49859DOD     C393398  21.938  23.911  13.872  0.1704 -0.2879 -0.2486
49860DOD     C193399  23.037  25.105  18.789 -0.0568  0.0399 -0.1723
49860DOD     C293400  23.156  24.669  18.909 -0.3398  0.0491 -0.0051
49860DOD     C393401  23.145  24.340  18.644  0.4671  0.1833 -0.0284
49861DOD     C193402   8.533  10.858  10.464  0.3844 -0.3122 -0.2933
49861DOD     C293403   8.512  10.485  10.164  0.1938 -0.1542 -0.0205
49861DOD     C393404   8.652  10.229   9.775 -0.0787 -0.2591 -0.1500
49862DOD     C193405   7.393   9.896  24.580 -0.1163  0.1335 -0.3860
49862DOD     C293406   7.491   9.460  24.425 -0.0211 -0.3131 -0.1300
49862DOD     C393407   7.930   9.248  24.393  0.0590 -0.0541  0.2130
49863DOD     C193408  15.959  20.509   3.971 -0.1969 -0.0582  0.1410
49863DOD     C293409  15.650  20.808   3.871  0.1457 -0.1758 -0.1546
49863DOD     C393410  15.428  20.972   3.551 -0.1271 -0.1501  0.0638
49864DOD     C193411  29.746  16.079  22.382 -0.0363 -0.2928  0.2279
49864DOD     C293412  30.044  15.760  22.241  0.0801  0.1704  0.2588
49864DOD     C393413   0.056  15.867  21.898  0.2186  0.2110 -0.5172
49865DOD     C193414   5.486  14.734  29.842  0.0159 -0.2294  0.0515
49865DOD     C293415   5.340  14.503  29.422  0.0395 -0.2052  0.0344
49865DOD     C393416   4.945  14.187  29.334  0.0820  0.2415 -0.1521
49866DOD     C193417  17.008  17.692   8.249  0.1082 -0.0875  0.2087
49866DOD     C293418  16.732  17.987   8.460  0.0287 -0.1686  0.0426
49866DOD     C393419  16.467  18.323   8.564 -0.1794  0.2451 -0.0838
49867DOD     C193420  19.161   5.763  13.560 -0.0454 -0.3093  0.4630
49867DOD     C293421  19.177   5.803  13.125  0.2033 -0.1709 -0.0472
49867DOD     C393422  19.048   6.023  12.763  0.1455 -0.2064  0.0737
49868DOD     C193423   4.166  21.666  22.447  0.1049 -0.3629 -0.0718
49868DOD     C293424   3.733  21.784  22.480  0.2645  0.2754 -0.3273
49868DOD     C393425   3.365  22.065  22.325  0.0328 -0.2276  0.1929
49869DOD     C193426   0.098  19.565   9.987 -0.0314  0.0076  0.1717
49869DOD     C293427   0.117  19.136  10.192  0.0606  0.4140 -0.1371
49869DOD     C393428   0.327  18.689  10.110  0.0419  0.3037  0.0756
49870DOD     C193429   1.545  10.982  12.485 -0.1766  0.1587  0.1325
49870DOD     C293430   1.519  11.421  12.636  0.1116  0.4267 -0.2621
49870DOD     C393431   1.572  11.801  12.905  0.1761  0.0228  0.1352
49871DOD     C193432  16.256  15.124  20.594  0.0723  0.3256  0.0621
49871DOD     C293433  16.185  15.584  20.677  0.1380 -0.1737 -0.1442
49871DOD     C393434  16.444  15.866  20.851 -0.1993  0.2730  0.1780
49872DOD     C193435  16.483  12.293  11.891  0.2207  0.3198  0.2331
49872DOD     C293436  16.400  12.793  11.948 -0.0916 -0.0697 -0.1579
49872DOD     C393437  16.267  13.210  12.179 -0.2042 -0.2324  0.1671
49873DOD     C193438  26.987   7.267  23.796  0.1273  0.4872  0.2196
49873DOD     C293439  26.888   7.379  24.272  0.0132 -0.1748 -0.0529
49873DOD     C393440  27.037   7.435  24.725 -0.0014  0.0037  0.0093
49874DOD     C193441   2.386   4.786   1.675 -0.0815 -0.2031 -0.0899
49874DOD     C293442   2.521   4.470   1.991  0.0202  0.1339 -0.1040
49874DOD     C393443   2.782   4.085   2.159 -0.2000  0.1538  0.3950
49875DOD     C193444   3.832   6.741   2.510 -0.0839 -0.3243  0.4425
49875DOD     C293445   3.805   6.690   2.969 -0.2512  0.0205  0.1805
49875DOD     C393446   3.950   6.544   3.431  0.2682  0.1320 -0.1279
49876DOD     C193447   6.647  20.073  14.641  0.3174 -0.1810 -0.0846
49876DOD     C293448   6.817  20.463  14.869 -0.0938 -0.0545  0.2044
49876DOD     C393449   7.195  20.799  14.900 -0.2024 -0.2776 -0.3008
49877DOD     C193450  11.771  13.740  22.500  0.4308 -0.0358 -0.0603
49877DOD     C293451  11.655  13.926  22.928  0.2300  0.0261 -0.1930
49877DOD     C393452  11.852  14.082  23.357 -0.0141 -0.1267 -0.0278
49878DOD     C193453  11.640  15.635  12.260  0.0082 -0.1416 -0.2040
49878DOD     C293454  11.895  15.602  11.846  0.0655  0.1594  0.0444
49878DOD     C393455  12.207  15.286  11.741  0.1800 -0.0305 -0.1170
49879DOD     C193456  24.460  12.254  17.939  0.0173  0.0616 -0.1952
49879DOD     C293457  24.242  11.827  18.123 -0.3313  0.1445  0.0904
49879DOD     C393458  24.180  11.387  17.973 -0.1307 -0.0801  0.1395
49880DOD     C193459   5.980   0.505  23.696  0.0596 -0.2201  0.0198
49880DOD     C293460   6.268   0.255  23.561 -0.4781 -0.1528  0.0842
49880DOD     C393461   6.776   0.218  23.594  0.1499 -0.0492  0.1809
49881DOD     C193462  10.577   6.112  11.802  0.1780 -0.0094  0.2788
49881DOD     C293463  10.511   6.018  12.247 -0.1645  0.2246 -0.2176
49881DOD     C393464  10.473   5.828  12.653  0.1138 -0.1113 -0.1863
49882DOD     C193465   5.160  26.925   1.218 -0.2004  0.0090  0.0791
49882DOD     C293466   5.638  26.805   1.122 -0.1109 -0.2282 -0.3051
49882DOD     C393467   6.095  26.842   1.030 -0.2631 -0.2344  0.2899
49883DOD     C193468   7.648  13.430   6.495  0.0994  0.1545 -0.0087
49883DOD     C293469   7.672  13.575   6.107  0.0418 -0.4166  0.0114
49883DOD     C393470   7.526  13.672   5.699  0.0586  0.1194 -0.0160
49884DOD     C193471  26.015  24.323   1.994 -0.0054  0.0922 -0.0332
49884DOD     C293472  26.364  24.496   1.749 -0.0304 -0.2556 -0.0164
49884DOD     C393473  26.708  24.397   1.477 -0.2113 -0.2728  0.6189
49885DOD     C193474  25.171  17.100  20.831  0.0448 -0.0466 -0.1806
49885DOD     C293475  25.316  16.822  20.528 -0.2814 -0.2416 -0.2295
49885DOD     C393476  25.635  16.607  20.261 -0.2147  0.1640 -0.0448
49886DOD     C193477   3.709  18.243  11.748 -0.1246  0.1078  0.1488
49886DOD     C293478   3.393  17.898  11.964 -0.0110 -0.0748  0.0062
49886DOD     C393479   3.058  17.808  11.695  0.0523 -0.2152 -0.2936
49887DOD     C193480   4.098   2.342  12.039 -0.0306  0.0609  0.0345
49887DOD     C293481   4.416   2.043  12.229 -0.0082 -0.0796 -0.1695
49887DOD     C393482   4.603   1.746  12.606  0.2542 -0.1092  0.0441
49888DOD     C193483   8.967   4.517  23.820 -0.1135  0.0226  0.2275
49888DOD     C293484   8.509   4.510  23.647 -0.1764 -0.2434 -0.2953
49888DOD     C393485   8.111   4.284  23.570 -0.1298  0.0324  0.1192
49889DOD     C193486   8.264  10.286   9.407  0.0164 -0.2557  0.0168
49889DOD     C293487   8.015  10.161   9.070  0.1003  0.0825 -0.1208
49889DOD     C393488   7.750  10.290   8.703  0.2664  0.1730 -0.0389
49890DOD     C193489   7.935  23.763  27.553  0.1472  0.0650 -0.0436
49890DOD     C293490   8.392  23.930  27.547 -0.1620  0.2027  0.0624
49890DOD     C393491   8.859  23.773  27.586 -0.2552 -0.0994  0.0176
49891DOD     C193492  14.528   3.113  19.553  0.0537  0.1561  0.0690
49891DOD     C293493  14.061   3.127  19.548  0.1654 -0.1997  0.1129
49891DOD     C393494  13.585   3.098  19.631 -0.4656  0.1191  0.1047
49892DOD     C193495   4.659   1.618  23.644  0.3413  0.1213 -0.1598
49892DOD     C293496   4.260   1.657  23.860 -0.1256 -0.1085  0.3005
49892DOD     C393497   4.004   1.404  24.188  0.2550 -0.0492 -0.0949
49893DOD     C193498   0.622  18.863   8.507  0.0823 -0.3684  0.1251
49893DOD     C293499   0.932  18.611   8.692 -0.4034 -0.0614 -0.2184
49893DOD     C393500   1.225  18.414   9.019 -0.1377  0.1271  0.1089
49894DOD     C193501   2.862   0.267  17.768  0.0030  0.2171  0.1243
49894DOD     C293502   2.514  30.299  17.782  0.0290 -0.0719 -0.0025
49894DOD     C393503   2.109  30.057  17.839 -0.1671 -0.1757  0.0151
49895DOD     C193504  12.618   8.924  20.503 -0.0093  0.1834  0.1849
49895DOD     C293505  12.200   8.725  20.484 -0.0533  0.0430  0.1980
49895DOD     C393506  11.877   8.591  20.185 -0.3370 -0.1260 -0.0097
49896DOD     C193507  24.005  13.528  18.754 -0.0906 -0.0780 -0.0970
49896DOD     C293508  23.709  13.885  18.735 -0.0206 -0.0797  0.1529
49896DOD     C393509  23.302  14.087  18.629  0.0049  0.0138 -0.0082
49897DOD     C193510  24.041   0.530  20.863 -0.1783 -0.2393 -0.2858
49897DOD     C293511  23.616   0.505  20.710 -0.1239  0.0164 -0.3301
49897DOD     C393512  23.329   0.706  20.346  0.3265  0.1799  0.1358
49898DOD     C193513   2.983  26.323  19.678  0.1176  0.0901 -0.0762
49898DOD     C293514   2.577  26.157  19.487 -0.1561 -0.0293  0.0554
49898DOD     C393515   2.170  26.164  19.339 -0.0845  0.3056 -0.1299
49899DOD     C193516  25.163  15.732  13.809  0.2618  0.1258  0.1288
49899DOD     C293517  25.464  15.499  13.856 -0.1762  0.0256  0.0276
49899DOD     C393518  25.594  15.229  14.224 -0.0966  0.0382  0.0071
49900DOD     C193519  18.548  27.494  12.792  0.0735  0.0474  0.0823
49900DOD     C293520  18.436  27.915  12.758  0.1015 -0.0125 -0.1668
49900DOD     C393521  18.170  28.275  12.661  0.1217 -0.0295 -0.0744
49901DOD     C193522  14.119  18.826  11.123 -0.3259  0.2223  0.1272
49901DOD     C293523  14.155  18.923  11.620  0.0821  0.0497 -0.1496
49901DOD     C393524  14.078  18.762  12.074 -0.1396 -0.0193 -0.1582
49902DOD     C193525  14.849  19.934   6.925 -0.3082 -0.1537  0.0888
49902DOD     C293526  14.513  19.812   6.609  0.1581 -0.3208  0.3348
49902DOD     C393527  14.259  19.494   6.389 -0.1694  0.0701 -0.3378
49903DOD     C193528   5.669  16.371   0.753  0.0219  0.1592 -0.2202
49903DOD     C293529   5.598  16.383   1.253 -0.2413  0.1512  0.0676
49903DOD     C393530   5.718  16.369   1.674  0.1864 -0.2880 -0.0593
49904DOD     C193531  25.668   5.605  16.300 -0.1744 -0.1539  0.1060
49904DOD     C293532  25.405   5.973  16.233 -0.0602  0.1462  0.4584
49904DOD     C393533  25.198   6.217  15.971 -0.0163 -0.0447 -0.2688
49905DOD     C193534  30.246  22.283  14.492  0.2676 -0.2150  0.0267
49905DOD     C293535  30.067  21.992  14.803  0.1420 -0.2272 -0.0913
49905DOD     C393536  30.010  21.548  14.978 -0.2110  0.1797 -0.2873
49906DOD     C193537  23.134  11.317   7.824 -0.0979  0.0505 -0.0188
49906DOD     C293538  22.875  11.603   7.735  0.2782  0.1111 -0.0075
49906DOD     C393539  22.600  11.961   7.648 -0.1693 -0.0225 -0.1401
49907DOD     C193540  20.742  17.687  26.012 -0.2372  0.0099  0.1014
49907DOD     C293541  21.018  17.445  26.275 -0.1021  0.1262 -0.0220
49907DOD     C393542  21.334  17.185  26.537  0.1414 -0.0848 -0.1603
49908DOD     C193543  13.987  17.112  20.788 -0.0884  0.0735  0.1807
49908DOD     C293544  14.060  17.456  21.060  0.1296  0.1555  0.0276
49908DOD     C393545  14.261  17.867  21.102 -0.0718 -0.1333 -0.2353
49909DOD     C193546  20.849   6.395  15.471 -0.0003 -0.1058 -0.2035
49909DOD     C293547  20.788   5.951  15.351 -0.0735 -0.2735 -0.0831
49909DOD     C393548  20.491   5.604  15.453  0.1494  0.0739  0.0138
49910DOD     C193549  15.161   9.550  14.749 -0.0542 -0.0536  0.2666
49910DOD     C293550  15.582   9.613  14.802 -0.0922 -0.0884  0.4009
49910DOD     C393551  15.869  10.002  14.959  0.0442  0.0887  0.5623
49911DOD     C193552  11.088  29.811  10.282  0.2190 -0.2983 -0.0402
49911DOD     C293553  11.366  29.712   9.906  0.3946  0.3700 -0.1810
49911DOD     C393554  11.426  29.861   9.520  0.2029 -0.0306  0.2529
49912DOD     C193555  15.710  27.611  26.949 -0.2453 -0.1307 -0.2333
49912DOD     C293556  15.659  27.192  26.873  0.2620 -0.2290 -0.0567
49912DOD     C393557  15.929  26.836  26.753  0.1413  0.3701 -0.2943
49913DOD     C193558  15.276   2.319  25.056  0.2171 -0.4191 -0.1786
49913DOD     C293559  15.589   2.280  25.414  0.2485  0.3410 -0.0783
49913DOD     C393560  15.632   1.885  25.588 -0.0463 -0.1686 -0.0837
49914DOD     C193561  19.102  12.432  12.961  0.3553  0.2636 -0.1903
49914DOD     C293562  19.194  12.257  12.521  0.1657  0.1484 -0.2936
49914DOD     C393563  19.174  11.748  12.565  0.6749 -0.4075  0.3587
49915DOD     C193564   6.256   1.792   9.249 -0.2497 -0.1061  0.0737
49915DOD     C293565   6.463   1.518   9.583 -0.1949  0.2344 -0.2565
49915DOD     C393566   6.876   1.415   9.724 -0.1579 -0.0449  0.1247
49916DOD     C193567  28.928  10.065  26.103 -0.0887  0.0274 -0.1403
49916DOD     C293568  29.246   9.815  26.358 -0.0328  0.0445 -0.0030
49916DOD     C393569  29.451   9.672  26.727  0.1545 -0.1291  0.2408
49917DOD     C193570  25.156  19.912   7.524 -0.1516 -0.0872  0.0633
49917DOD     C293571  25.537  19.606   7.693 -0.0825 -0.1373  0.1850
49917DOD     C393572  25.835  19.341   7.542  0.1896  0.1299 -0.0920
49918DOD     C193573   1.613   4.772  16.531  0.0535  0.0007  0.0370
49918DOD     C293574   1.366   4.617  16.825  0.0846 -0.0810 -0.1234
49918DOD     C393575   0.946   4.619  16.968 -0.1267  0.0098 -0.0397
49919DOD     C193576  27.042   2.835  19.742 -0.1505 -0.0602 -0.0460
49919DOD     C293577  26.809   2.416  19.603  0.1394 -0.0735  0.1002
49919DOD     C393578  26.771   2.199  19.165  0.3702 -0.1135  0.1139
49920DOD     C193579   7.589  17.160  29.247 -0.0152 -0.0597 -0.0408
49920DOD     C293580   7.300  17.466  29.545 -0.0035  0.3894 -0.1261
49920DOD     C393581   7.429  17.565  29.951  0.0299  0.2924 -0.1825
49921DOD     C193582  24.098  21.151   8.571  0.2951 -0.0697  0.1462
49921DOD     C293583  24.273  20.739   8.809 -0.1147  0.1926  0.1907
49921DOD     C393584  24.415  20.314   8.977  0.0282  0.0044  0.1583
49922DOD     C193585   7.372  13.123   4.854 -0.0209  0.0199  0.1463
49922DOD     C293586   7.607  12.850   5.157  0.1102 -0.0231 -0.1222
49922DOD     C393587   7.851  12.396   5.087 -0.1885  0.0837  0.1987
49923DOD     C193588  21.132  17.491  13.700  0.0225 -0.0256 -0.1532
49923DOD     C293589  21.095  17.192  13.382  0.1876 -0.3229 -0.0643
49923DOD     C393590  20.903  17.292  12.992 -0.1491 -0.0178  0.1405
49924DOD     C193591  10.106   3.430  29.137  0.1751 -0.0723 -0.0146
49924DOD     C293592   9.801   3.130  28.878 -0.0263 -0.2454  0.0262
49924DOD     C393593   9.882   3.045  28.447  0.2226 -0.4221 -0.2887
49925DOD     C193594   7.973  25.255  17.684  0.2268 -0.0303  0.0128
49925DOD     C293595   7.975  25.642  17.937  0.2630 -0.0552  0.0423
49925DOD     C393596   8.116  25.699  18.354 -0.0184  0.3345 -0.4738
49926DOD     C193597  23.600   8.210   3.954 -0.1475 -0.3455 -0.2534
49926DOD     C293598  23.951   8.126   4.213 -0.2850  0.1472  0.1452
49926DOD     C393599  24.406   8.177   3.988 -0.2491  0.2894 -0.0754
49927DOD     C193600  19.718   6.750  10.802  0.0140 -0.2215  0.1592
49927DOD     C293601  19.521   7.006  10.489  0.1669  0.1427 -0.0026
49927DOD     C393602  19.786   7.304  10.214 -0.1860 -0.0306  0.1018
49928DOD     C193603  28.916  25.507  16.346 -0.0829 -0.0849  0.1122
49928DOD     C293604  28.830  25.622  15.868  0.2588  0.2505 -0.0944
49928DOD     C393605  28.783  25.319  15.521  0.0776 -0.0253 -0.2386
49929DOD     C193606  17.242  20.934  21.691 -0.0063  0.0762  0.2384
49929DOD     C293607  17.227  20.914  22.149 -0.2554 -0.1954  0.1311
49929DOD     C393608  17.509  20.974  22.484  0.1367  0.1663  0.0860
49930DOD     C193609  26.377  28.697  29.837  0.1398 -0.1226  0.2765
49930DOD     C293610  26.087  28.588  29.505 -0.2422  0.3771  0.1702
49930DOD     C393611  25.625  28.623  29.386  0.0423 -0.1537  0.2747
49931DOD     C193612  23.009  18.532  18.047  0.0670  0.3059  0.0991
49931DOD     C293613  22.598  18.273  18.061  0.1969 -0.0714  0.4889
49931DOD     C393614  22.260  18.143  18.324  0.1453  0.0865  0.1056
49932DOD     C193615  12.289   8.961   8.401 -0.0200  0.3538 -0.3160
49932DOD     C293616  12.094   9.328   8.450  0.0668  0.4638 -0.4150
49932DOD     C393617  11.750   9.569   8.510 -0.4024  0.3260 -0.0673
49933DOD     C193618  26.587  23.913   1.241  0.2174  0.0167  0.0547
49933DOD     C293619  26.851  24.303   0.992 -0.1878  0.1439 -0.2108
49933DOD     C393620  27.086  24.482   0.629 -0.1565 -0.1772  0.3641
49934DOD     C193621  13.453   0.270  19.209 -0.0622 -0.0218 -0.1447
49934DOD     C293622  13.380  30.250  18.818 -0.3201 -0.0435 -0.0053
49934DOD     C393623  13.346  30.119  18.379  0.3670  0.0466 -0.1071
49935DOD     C193624   0.265   1.915  15.863 -0.1703  0.2842 -0.2346
49935DOD     C293625   0.083   1.781  15.484  0.1071 -0.4439 -0.2027
49935DOD     C393626   0.260   1.563  15.137  0.0539  0.0873  0.0945
49936DOD     C193627  20.701  21.058   5.720 -0.1948 -0.2315 -0.2873
49936DOD     C293628  20.756  21.551   5.804 -0.1636 -0.0804 -0.1903
49936DOD     C393629  20.906  21.999   5.813  0.2116 -0.1437 -0.2502
49937DOD     C193630  25.726  26.695  14.564 -0.2940 -0.4188 -0.1323
49937DOD     C293631  25.872  27.079  14.837 -0.0670  0.0186  0.1392
49937DOD     C393632  25.870  27.470  14.682 -0.0531 -0.1924  0.2377
49938DOD     C193633  21.088   5.237  18.217  0.0886 -0.0198  0.1475
49938DOD     C293634  20.623   5.332  18.090 -0.2224 -0.0021 -0.3895
49938DOD     C393635  20.359   5.396  17.697 -0.0787  0.0652  0.1169
49939DOD     C193636  24.396  20.524  20.620  0.1780 -0.1805 -0.2403
49939DOD     C293637  24.683  20.816  20.929 -0.0827  0.2563 -0.0620
49939DOD     C393638  24.814  21.029  21.330  0.0750  0.1836 -0.1878
49940DOD     C193639  14.576  23.628  10.448  0.1856  0.0520  0.0101
49940DOD     C293640  14.762  23.374  10.797 -0.1827 -0.0391  0.3497
49940DOD     C393641  15.122  23.079  10.640  0.2888 -0.1386 -0.0822
49941DOD     C193642   6.286  11.583  10.723 -0.4330  0.0452  0.1202
49941DOD     C293643   6.295  11.425  10.260  0.2394  0.1957 -0.1394
49941DOD     C393644   6.624  11.274  10.000  0.0647  0.0374 -0.1021
49942DOD     C193645   7.365  17.195  26.133 -0.0779  0.2197  0.4843
49942DOD     C293646   7.534  17.080  26.563  0.0731 -0.1035 -0.0936
49942DOD     C393647   7.376  16.999  27.019  0.0691 -0.1998 -0.0530
49943DOD     C193648  10.170  26.711   1.449  0.2662  0.0981  0.0191
49943DOD     C293649  10.502  26.584   1.803 -0.1255  0.1379 -0.2996
49943DOD     C393650  10.921  26.791   1.867  0.0323 -0.0131 -0.0965
49944DOD     C193651   0.893   7.449  17.139 -0.2523 -0.0555 -0.2048
49944DOD     C293652   0.548   7.257  16.916  0.4657 -0.0846  0.3094
49944DOD     C393653   0.260   7.174  16.524 -0.2001 -0.1522  0.3781
49945DOD     C193654  15.239  20.334  27.237  0.2285 -0.0749  0.1273
49945DOD     C293655  14.753  20.259  27.202 -0.1308  0.1671 -0.0720
49945DOD     C393656  14.362  20.426  27.086 -0.3796 -0.1224 -0.0641
49946DOD     C193657  25.299  18.396  26.441  0.1707  0.0131  0.1728
49946DOD     C293658  25.530  17.977  26.398 -0.3120  0.1262 -0.6209
49946DOD     C393659  25.872  17.827  26.649 -0.2312  0.0372 -0.0508
49947DOD     C193660  28.240  10.235   9.039 -0.0125  0.0041  0.3135
49947DOD     C293661  27.845  10.236   9.323 -0.1015  0.0624  0.0432
49947DOD     C393662  27.408  10.299   9.404  0.0168 -0.0236  0.0086
49948DOD     C193663   6.366  22.353  11.608 -0.2213 -0.0153 -0.0060
49948DOD     C293664   5.979  22.103  11.703  0.0288  0.2277  0.0637
49948DOD     C393665   5.747  21.718  11.658 -0.0600  0.3545  0.1154
49949DOD     C193666  18.953  28.507  30.210 -0.1833  0.1861  0.0502
49949DOD     C293667  18.876  28.480   0.343 -0.0815  0.2118 -0.2454
49949DOD     C393668  19.218  28.612   0.631  0.0139 -0.0920 -0.1225
49950DOD     C193669   8.250   3.298  12.813 -0.1599  0.2033  0.0188
49950DOD     C293670   8.165   3.731  12.611 -0.1612 -0.2092 -0.1981
49950DOD     C393671   8.063   4.119  12.765 -0.0854 -0.0477  0.1564
49951DOD     C193672  27.603  19.949  28.759 -0.2007  0.3343 -0.1911
49951DOD     C293673  27.299  19.660  28.578  0.0471 -0.1876  0.1145
49951DOD     C393674  27.010  19.263  28.646  0.1185 -0.1054 -0.1212
49952DOD     C193675  28.544  24.712  17.528  0.2456  0.2507  0.1028
49952DOD     C293676  28.749  25.116  17.434 -0.1581 -0.0357  0.2025
49952DOD     C393677  28.635  25.558  17.399  0.3559  0.0336 -0.0315
49953DOD     C193678  21.194  10.306   9.883  0.1846  0.0309 -0.1575
49953DOD     C293679  21.003  10.094  10.251 -0.1334  0.1015 -0.1546
49953DOD     C393680  20.949  10.095  10.746 -0.1159 -0.0765 -0.0122
49954DOD     C193681   8.612  25.624   7.465 -0.2196  0.0158 -0.0307
49954DOD     C293682   8.926  25.555   7.784 -0.2413 -0.0455  0.0224
49954DOD     C393683   8.922  25.212   8.146 -0.3292 -0.1402 -0.3104
49955DOD     C193684   6.328   9.172  25.644 -0.0720 -0.1378  0.1609
49955DOD     C293685   5.886   9.326  25.610 -0.1488 -0.0542 -0.2371
49955DOD     C393686   5.460   9.513  25.677  0.0126  0.3190 -0.1640
49956DOD     C193687   4.518  28.636  10.209  0.2676  0.2587 -0.3411
49956DOD     C293688   4.137  28.573   9.965 -0.1818  0.1519 -0.2953
49956DOD     C393689   3.750  28.826   9.749  0.0421  0.3059 -0.0725
49957DOD     C193690   1.471   3.942  26.620  0.2254 -0.3332  0.0519
49957DOD     C293691   1.363   3.604  26.934  0.3218 -0.1441 -0.1034
49957DOD     C393692   1.197   3.260  27.255 -0.2409  0.0652  0.1100
49958DOD     C193693  10.587  21.160  15.471 -0.0258  0.1161  0.1081
49958DOD     C293694  11.011  21.169  15.399 -0.1442  0.2618  0.0457
49958DOD     C393695  11.082  21.497  15.095  0.3234 -0.0405 -0.2345
49959DOD     C193696  26.727   7.079  28.692  0.1211  0.1820 -0.1081
49959DOD     C293697  26.590   7.245  29.076 -0.1572 -0.0054 -0.4418
49959DOD     C393698  26.343   7.416  29.442  0.0256 -0.1833 -0.0736
49960DOD     C193699  17.494  28.871  23.695 -0.0956  0.0417  0.1852
49960DOD     C293700  17.235  28.486  23.841 -0.1839  0.4240  0.0995
49960DOD     C393701  16.931  28.175  23.901 -0.0289 -0.1862  0.0839
49961DOD     C193702  27.940   5.781   3.459 -0.1395 -0.2635 -0.0169
49961DOD     C293703  27.671   5.990   3.146 -0.1531 -0.2385  0.0846
49961DOD     C393704  27.747   6.083   2.645  0.0466 -0.3938 -0.1322
49962DOD     C193705   5.990  29.017  25.955 -0.2152 -0.0256 -0.2708
49962DOD     C293706   6.220  29.094  26.332  0.4742 -0.0091  0.0848
49962DOD     C393707   6.224  28.956  26.790  0.0878  0.0329 -0.1549
49963DOD     C193708  19.863   7.171   7.484  0.0433 -0.2188  0.2143
49963DOD     C293709  19.588   6.821   7.386  0.0669 -0.3160 -0.1311
49963DOD     C393710  19.538   6.387   7.191  0.0906  0.0346 -0.1355
49964DOD     C193711  27.284  11.864  23.858  0.1057 -0.2237  0.0038
49964DOD     C293712  27.137  11.582  24.188 -0.0666 -0.1184 -0.0330
49964DOD     C393713  27.032  11.245  24.486  0.0649  0.2967 -0.3194
49965DOD     C193714  12.284   7.862   6.659  0.0628  0.0165  0.2377
49965DOD     C293715  12.090   8.015   6.203  0.1119 -0.1787  0.4625
49965DOD     C393716  11.956   8.240   5.803  0.1807  0.1243 -0.0567
49966DOD     C193717  21.781  18.149  18.204 -0.6177  0.0048  0.0693
49966DOD     C293718  21.355  17.937  18.314  0.0842  0.1568  0.0421
49966DOD     C393719  20.912  17.979  18.112  0.2184  0.0851 -0.3285
49967DOD     C193720  21.430  22.218  23.730 -0.3117 -0.3159  0.0489
49967DOD     C293721  21.114  22.226  23.441  0.0908  0.0492 -0.1670
49967DOD     C393722  20.900  22.270  23.015  0.3563 -0.0262 -0.2092
49968DOD     C193723   2.475  24.557   9.705 -0.0012 -0.0244 -0.1422
49968DOD     C293724   2.620  24.214   9.395  0.0923  0.2110  0.1866
49968DOD     C393725   2.396  23.885   9.140  0.1362  0.1366  0.1515
49969DOD     C193726   1.719  16.937  15.337  0.3224 -0.0907  0.0925
49969DOD     C293727   1.456  16.581  15.471 -0.1595 -0.5876  0.0756
49969DOD     C393728   1.618  16.261  15.756  0.0608 -0.1862 -0.2539
49970DOD     C193729  12.780  13.776  26.930 -0.1017  0.1614  0.0031
49970DOD     C293730  13.129  13.717  26.572 -0.0300  0.3734 -0.0333
49970DOD     C393731  13.428  13.776  26.192  0.1056  0.0410 -0.0541
49971DOD     C193732   8.219  28.896   8.005 -0.2464  0.2124 -0.1398
49971DOD     C293733   8.201  28.457   7.850  0.0676 -0.1565  0.2026
49971DOD     C393734   8.507  28.094   7.698  0.0438 -0.0351  0.1080
49972DOD     C193735   6.156   8.275  16.974 -0.1055  0.0951  0.2548
49972DOD     C293736   5.827   8.533  16.808  0.1481  0.0225 -0.2465
49972DOD     C393737   5.475   8.655  16.557 -0.1873  0.4135 -0.1090
49973DOD     C193738  21.301   6.166  11.627 -0.0814  0.0050  0.0345
49973DOD     C293739  21.444   6.478  11.932  0.2653 -0.1957  0.2155
49973DOD     C393740  21.525   6.838  12.183  0.0377 -0.1295 -0.2070
49974DOD     C193741  20.063  22.615  28.507  0.1334  0.3511 -0.0192
49974DOD     C293742  20.372  22.999  28.436  0.0841 -0.0938 -0.3249
49974DOD     C393743  20.688  23.178  28.141  0.2076  0.0563  0.2422
49975DOD     C193744   9.407  16.366  14.377  0.1217 -0.0612  0.0464
49975DOD     C293745   9.898  16.328  14.445  0.0467  0.2266  0.2357
49975DOD     C393746  10.297  16.188  14.575 -0.2645 -0.0112 -0.2512
49976DOD     C193747  21.719  18.564  27.861  0.1184  0.0506 -0.2002
49976DOD     C293748  21.710  18.222  27.540  0.2680 -0.0942 -0.1025
49976DOD     C393749  21.545  18.020  27.176  0.1509  0.0211  0.0970
49977DOD     C193750   0.090  19.181  10.696  0.1372 -0.2233  0.0069
49977DOD     C293751   0.385  19.478  10.467  0.0491  0.0690 -0.3424
49977DOD     C393752   0.780  19.644  10.183 -0.0355 -0.1719 -0.1078
49978DOD     C193753  20.521   4.739   8.782 -0.3807  0.3679 -0.1420
49978DOD     C293754  20.926   4.812   8.971  0.1765 -0.1964 -0.0731
49978DOD     C393755  21.133   5.152   9.223  0.2679 -0.2514  0.2318
49979DOD     C193756  21.413   2.807  13.945 -0.1623  0.3463  0.1279
49979DOD     C293757  21.492   2.500  14.269  0.3943 -0.0256  0.2018
49979DOD     C393758  21.433   2.524  14.689 -0.0355  0.1299 -0.0391
49980DOD     C193759  20.104   9.152  16.886 -0.2945 -0.6513 -0.0865
49980DOD     C293760  19.736   9.226  16.633  0.1722  0.3895  0.1512
49980DOD     C393761  19.290   9.384  16.637  0.2944 -0.4368  0.0101
49981DOD     C193762  21.981  14.546  27.237  0.1153  0.2210  0.1062
49981DOD     C293763  21.539  14.575  27.060  0.0228 -0.0685  0.0688
49981DOD     C393764  21.370  14.596  26.598  0.0177 -0.1549  0.1487
49982DOD     C193765   9.872  11.285  30.337  0.2706  0.0881 -0.0052
49982DOD     C293766   9.505  11.009  30.149  0.1121 -0.1672  0.0777
49982DOD     C393767   9.367  10.550  30.200  0.0730 -0.1009 -0.1140
49983DOD     C193768  19.635  13.786  22.518  0.0640 -0.0586 -0.0512
49983DOD     C293769  19.711  13.823  22.063 -0.2064  0.0107 -0.1823
49983DOD     C393770  20.136  13.737  21.900 -0.4208 -0.1553  0.3270
49984DOD     C193771   9.336  17.981  21.952  0.2084 -0.0438  0.0196
49984DOD     C293772   9.729  18.255  21.891 -0.1114 -0.2688  0.0601
49984DOD     C393773  10.078  18.557  21.914  0.1412 -0.2752 -0.0498
49985DOD     C193774   5.865   9.038  21.903 -0.1732  0.3715  0.1299
49985DOD     C293775   6.294   8.995  21.711  0.2269 -0.0524  0.4360
49985DOD     C393776   6.740   9.005  21.591 -0.2182  0.4908 -0.1296
49986DOD     C193777   7.530   1.079  25.901  0.0689 -0.3359  0.0708
49986DOD     C293778   7.754   1.528  25.859  0.1845 -0.0898 -0.2433
49986DOD     C393779   8.036   1.855  25.623 -0.2340 -0.1418 -0.0878
49987DOD     C193780   0.286  17.445  14.647  0.2384  0.0726  0.1652
49987DOD     C293781   0.464  17.497  14.227  0.1260 -0.1313 -0.1768
49987DOD     C393782   0.829  17.507  13.937  0.0479 -0.0017 -0.2011
49988DOD     C193783  22.820  21.402   1.386 -0.0924 -0.0974  0.3340
49988DOD     C293784  22.738  20.937   1.403  0.2862 -0.1620 -0.0280
49988DOD     C393785  22.605  20.479   1.560  0.2173  0.1357 -0.0232
49989DOD     C193786   7.099  11.306  15.438 -0.2104  0.4079 -0.1048
49989DOD     C293787   7.011  11.584  15.770  0.0398  0.0440 -0.1686
49989DOD     C393788   7.080  11.978  15.972  0.1825 -0.0008 -0.0397
49990DOD     C193789  19.202  17.854  13.184  0.0465  0.2068 -0.1037
49990DOD     C293790  19.648  17.683  13.222 -0.0587  0.1513  0.3503
49990DOD     C393791  19.774  17.393  13.541  0.1139  0.0366  0.0395
49991DOD     C193792  13.033  28.996   3.906  0.1410  0.3376 -0.2358
49991DOD     C293793  13.219  28.719   4.297  0.0436 -0.1357  0.2436
49991DOD     C393794  13.585  28.566   4.438  0.1073  0.0544  0.0212
49992DOD     C193795  15.857  30.254  24.660  0.5047 -0.2957 -0.2077
49992DOD     C293796  15.473   0.113  24.904  0.0014  0.1883  0.1297
49992DOD     C393797  15.277  30.320  25.339 -0.0204  0.2530 -0.0615
49993DOD     C193798  10.676  30.066   7.663  0.2122 -0.0333  0.4203
49993DOD     C293799  11.038  29.791   7.502 -0.0080 -0.2535 -0.0065
49993DOD     C393800  11.372  29.571   7.329  0.3888  0.1433  0.1009
49994DOD     C193801  13.809  23.301  25.391 -0.1550 -0.1127  0.1234
49994DOD     C293802  13.435  23.078  25.560 -0.1768 -0.0526 -0.1178
49994DOD     C393803  13.024  22.962  25.772  0.2532  0.1451 -0.3149
49995DOD     C193804  17.116   4.166  20.779  0.1323 -0.1213  0.0443
49995DOD     C293805  17.417   4.390  21.015 -0.0429  0.0798 -0.1745
49995DOD     C393806  17.907   4.394  21.023 -0.0401  0.0402  0.0687
49996DOD     C193807   0.654  13.578  20.424 -0.0567  0.1179 -0.1630
49996DOD     C293808   0.351  13.668  20.113 -0.1253  0.2302 -0.0292
49996DOD     C393809   0.186  13.748  19.707  0.1209 -0.0978  0.0601
49997DOD     C193810  11.002   4.817  23.166 -0.1423 -0.0706 -0.0288
49997DOD     C293811  10.768   5.141  22.899 -0.2447  0.4089  0.1730
49997DOD     C393812  10.603   5.555  22.663 -0.1753 -0.0809  0.1893
49998DOD     C193813  28.878   1.304  30.189  0.2261  0.0133  0.3491
49998DOD     C293814  29.140   1.692  30.016  0.0511  0.0454  0.0908
49998DOD     C393815  29.335   1.791  29.580 -0.1572 -0.0732  0.0204
49999DOD     C193816   0.906  22.988  29.128  0.1673 -0.0515 -0.0360
49999DOD     C293817   0.506  22.846  28.924 -0.0286 -0.0094 -0.0111
49999DOD     C393818   0.135  22.553  28.929 -0.1216  0.2778  0.0006
50000DOD     C193819  17.909  22.464  28.851  0.0805  0.3086 -0.2299
50000DOD     C293820  17.999  22.121  29.154 -0.0205 -0.2384 -0.3312
50000DOD     C393821  17.912  21.727  29.365 -0.0524  0.2209 -0.3767
50001DOD     C193822  29.007   8.348   6.250 -0.3084  0.1170  0.0559
50001DOD     C293823  28.617   8.599   6.240  0.1165 -0.2548 -0.2566
50001DOD     C393824  28.183   8.722   6.390 -0.1045 -0.0442  0.0645
50002DOD     C193825   9.063  21.700   5.986  0.1385  0.0718 -0.1800
50002DOD     C293826   9.130  21.259   5.891  0.1815 -0.2236 -0.0744
50002DOD     C393827   9.294  20.918   5.580  0.1738  0.1221  0.1481
50003DOD     C193828   4.855   2.036  26.206  0.0376 -0.0914 -0.3611
50003DOD     C293829   5.078   1.611  26.293 -0.0207 -0.0894  0.2846
50003DOD     C393830   5.290   1.195  26.259 -0.0367  0.0073 -0.0008
50004DOD     C193831   2.085   4.561   3.367 -0.4499  0.1059 -0.0116
50004DOD     C293832   1.864   4.391   2.998 -0.0707  0.0531 -0.2530
50004DOD     C393833   1.989   4.200   2.555  0.1867 -0.3359  0.0598
50005DOD     C193834  22.016   8.770   5.280 -0.6039  0.1280  0.1130
50005DOD     C293835  22.449   8.762   5.498 -0.1146  0.0078  0.0134
50005DOD     C393836  22.867   8.566   5.376 -0.0376  0.0373 -0.1791
50006DOD     C193837   4.526   9.249  18.922  0.1517  0.2527 -0.0807
50006DOD     C293838   4.056   9.296  18.998  0.2922  0.0283  0.1034
50006DOD     C393839   3.780   9.031  19.250 -0.1336 -0.3574  0.3521
50007DOD     C193840  21.106   3.056   2.909 -0.2484  0.1496  0.0804
50007DOD     C293841  21.329   3.505   2.884  0.2126 -0.0411 -0.1936
50007DOD     C393842  21.610   3.843   3.009  0.0612  0.0572 -0.0839
50008DOD     C193843  17.558  27.703   7.780 -0.1548 -0.0878  0.1084
50008DOD     C293844  17.762  27.569   7.375  0.2303  0.2015  0.1793
50008DOD     C393845  17.897  27.308   7.012 -0.0989  0.1800 -0.1398
50009DOD     C193846   6.293  14.498   0.068  0.0477 -0.0737 -0.0259
50009DOD     C293847   5.838  14.460   0.306  0.0625 -0.1404 -0.3183
50009DOD     C393848   5.446  14.775   0.487  0.0753  0.2493  0.2139
50010DOD     C193849   2.962  26.314  13.516 -0.1612 -0.1001 -0.1361
50010DOD     C293850   2.913  26.726  13.647 -0.0143 -0.2519 -0.1575
50010DOD     C393851   2.921  27.013  13.992  0.5013  0.0522 -0.0019
50011DOD     C193852  15.493  26.760  20.313  0.1218 -0.2844  0.0768
50011DOD     C293853  15.404  27.217  20.437  0.2716 -0.0465  0.2762
50011DOD     C393854  15.507  27.593  20.667 -0.2341  0.3179 -0.0827
50012DOD     C193855   6.846  25.596  10.971 -0.1389 -0.1882 -0.0569
50012DOD     C293856   7.025  25.549  10.497  0.0580 -0.0813 -0.0677
50012DOD     C393857   7.312  25.373  10.166 -0.2041 -0.0215  0.2715
50013DOD     C193858  28.511  11.084  10.034 -0.2784 -0.2124  0.1215
50013DOD     C293859  28.535  10.812   9.685  0.0309  0.0444  0.0126
50013DOD     C393860  28.268  10.544   9.448 -0.2116 -0.0332  0.0028
50014DOD     C193861   7.890  22.649   2.674  0.2348 -0.1712  0.1314
50014DOD     C293862   7.827  22.213   2.723 -0.1170 -0.1195 -0.0611
50014DOD     C393863   7.470  21.858   2.695  0.1079 -0.1324 -0.0498
50015DOD     C193864  11.086   0.308  14.279 -0.2859  0.0216 -0.1525
50015DOD     C293865  11.564   0.138  14.386  0.2275 -0.1503 -0.1361
50015DOD     C393866  11.953   0.153  14.112  0.2926 -0.2482  0.2617
50016DOD     C193867  13.608  14.951  21.879 -0.3982 -0.0277 -0.3388
50016DOD     C293868  13.428  14.995  22.331 -0.0715  0.2375  0.0553
50016DOD     C393869  13.028  15.097  22.479  0.1957  0.2382  0.0973
50017DOD     C193870   0.568   4.280  26.309 -0.1000  0.2422 -0.3504
50017DOD     C293871   0.191   4.359  25.996  0.3078  0.0669  0.3048
50017DOD     C393872  30.077   4.442  26.122 -0.1424 -0.2291  0.2296
50018DOD     C193873  22.793  17.058  10.717  0.2354 -0.3271  0.1909
50018DOD     C293874  22.848  16.883  11.129  0.1926  0.1178  0.3531
50018DOD     C393875  23.122  16.785  11.452 -0.1742  0.2415  0.0055
50019DOD     C193876  23.518  26.993  29.295  0.1192  0.2142 -0.0600
50019DOD     C293877  23.322  27.374  29.152 -0.0960  0.0670  0.1487
50019DOD     C393878  22.976  27.675  29.262  0.1411  0.0941 -0.0306
50020DOD     C193879  26.000   7.072   2.138  0.2568  0.0779 -0.0748
50020DOD     C293880  26.134   7.304   2.518  0.0896  0.0404 -0.1657
50020DOD     C393881  26.322   7.372   3.001  0.0844  0.2146  0.0228
50021DOD     C193882  30.116   2.166   5.353 -0.0536  0.0823  0.1085
50021DOD     C293883  29.906   2.173   4.999  0.2984  0.0190 -0.0766
50021DOD     C393884  30.164   2.115   4.634  0.0757  0.0864 -0.0333
50022DOD     C193885  22.242  14.264  22.243  0.1817 -0.0150  0.0097
50022DOD     C293886  22.329  14.096  21.865 -0.0569 -0.0041 -0.2687
50022DOD     C393887  22.668  14.244  21.562  0.1484 -0.0354 -0.2531
50023DOD     C193888  26.608   3.538   3.409  0.0779  0.4160 -0.1721
50023DOD     C293889  26.344   3.481   3.773  0.0614 -0.0309 -0.0844
50023DOD     C393890  26.375   3.172   4.151  0.0330 -0.2007  0.0335
50024DOD     C193891   1.594  25.664  28.350  0.0242  0.1787  0.0110
50024DOD     C293892   1.666  25.219  28.309  0.0465 -0.0753  0.3500
50024DOD     C393893   1.717  24.798  28.574 -0.0565 -0.0381  0.0794
50025DOD     C193894  12.313  10.478  14.364  0.3231 -0.0773 -0.0955
50025DOD     C293895  12.599  10.233  14.026  0.0936 -0.0209 -0.1841
50025DOD     C393896  12.947  10.194  13.708 -0.1393  0.2468  0.0877
50026DOD     C193897  23.347  26.151  12.597 -0.0912  0.0398  0.0880
50026DOD     C293898  23.061  26.030  12.221 -0.1927 -0.1143 -0.0546
50026DOD     C393899  22.670  25.804  12.249 -0.2076 -0.1621  0.3140
50027DOD     C193900  10.463  19.001  25.164 -0.1672 -0.1223  0.2775
50027DOD     C293901  10.436  19.478  25.165  0.3746  0.2562  0.1123
50027DOD     C393902  10.543  19.872  25.304  0.0111 -0.0215 -0.2373
50028DOD     C193903   8.326  14.513  10.894  0.0514  0.0618 -0.1205
50028DOD     C293904   8.249  14.994  10.889  0.2482 -0.0745  0.1147
50028DOD     C393905   8.428  15.350  11.139  0.2233  0.2789 -0.2980
50029DOD     C193906  11.990  28.789  21.212  0.2152 -0.0248 -0.0135
50029DOD     C293907  12.316  28.491  21.255  0.0149 -0.3349 -0.1073
50029DOD     C393908  12.803  28.446  21.106  0.1553  0.0059  0.0105
50030DOD     C193909  17.247  10.081  19.823 -0.0387  0.2004 -0.2584
50030DOD     C293910  17.469   9.969  19.460  0.1354 -0.0592  0.1220
50030DOD     C393911  17.613   9.896  19.026 -0.0909 -0.0377 -0.2022
50031DOD     C193912  16.905  15.138  22.089 -0.0765  0.0047 -0.4294
50031DOD     C293913  16.944  15.520  21.797  0.2871  0.0147  0.2064
50031DOD     C393914  17.061  15.401  21.374  0.2780  0.0452  0.0188
50032DOD     C193915  11.893  13.521  23.107  0.1103  0.0290  0.1954
50032DOD     C293916  11.626  13.197  23.269 -0.1287  0.0724  0.0986
50032DOD     C393917  11.326  12.901  23.044  0.0223  0.0279  0.1350
50033DOD     C193918  13.928  15.625  15.847 -0.1925  0.0478 -0.1238
50033DOD     C293919  13.543  15.669  16.094  0.2821 -0.1201 -0.1696
50033DOD     C393920  13.430  15.213  16.219 -0.1181  0.0780 -0.1685
50034DOD     C193921  14.482  17.976  17.670 -0.1859 -0.0466  0.0919
50034DOD     C293922  14.211  17.650  17.514  0.2179 -0.2083  0.2174
50034DOD     C393923  14.011  17.327  17.652 -0.1511  0.3863 -0.0522
50035DOD     C193924  20.620   8.152  17.905  0.3241 -0.1557  0.1311
50035DOD     C293925  20.657   8.018  18.380 -0.0720  0.3567  0.1073
50035DOD     C393926  20.572   7.668  18.710  0.1575  0.2589  0.1586
50036DOD     C193927  19.636  14.283  25.179 -0.2779 -0.0925  0.0909
50036DOD     C293928  19.962  14.187  24.818  0.2655  0.0524  0.0899
50036DOD     C393929  20.147  14.027  24.460 -0.1130  0.1650  0.2123
50037DOD     C193930  16.570  19.513  20.017  0.1666 -0.1796  0.2410
50037DOD     C293931  16.216  19.606  20.187  0.1808  0.2131  0.1155
50037DOD     C393932  15.746  19.686  20.065  0.3809 -0.0030 -0.1023
50038DOD     C193933   4.124  12.268   7.232 -0.3182 -0.1750 -0.3221
50038DOD     C293934   4.297  11.880   7.057 -0.0631 -0.1218 -0.1344
50038DOD     C393935   4.356  11.650   6.628  0.3843  0.0434  0.1703
50039DOD     C193936  10.913  22.524  15.321  0.1560  0.1455  0.0046
50039DOD     C293937  11.025  22.996  15.472  0.2726  0.0855  0.0168
50039DOD     C393938  11.308  23.233  15.781 -0.2465 -0.2007  0.1428
50040DOD     C193939  12.198   3.060  25.984  0.1369  0.0171 -0.4262
50040DOD     C293940  12.272   3.216  25.606  0.2242 -0.0566  0.3861
50040DOD     C393941  12.301   3.234  25.113  0.0028 -0.0047  0.0374
50041DOD     C193942   9.931  23.799  15.604 -0.0931 -0.1963  0.0057
50041DOD     C293943  10.139  23.653  16.031  0.3172  0.0563  0.0462
50041DOD     C393944  10.270  23.888  16.408  0.4180 -0.1526  0.0695
50042DOD     C193945   6.841  10.561  22.990 -0.1589 -0.0017 -0.0900
50042DOD     C293946   6.553  10.825  22.867  0.3164  0.2104 -0.0617
50042DOD     C393947   6.134  10.991  23.056 -0.3090  0.2177 -0.0457
50043DOD     C193948  21.082  24.151   8.766 -0.1258 -0.2214 -0.2588
50043DOD     C293949  20.891  24.194   8.359  0.0038  0.0725 -0.0968
50043DOD     C393950  20.449  24.141   8.255 -0.1568 -0.0310  0.1021
50044DOD     C193951  21.284  22.024   6.782  0.0076 -0.1921 -0.1799
50044DOD     C293952  21.601  21.771   6.485  0.2296  0.0237 -0.4822
50044DOD     C393953  21.782  21.874   6.094 -0.1210 -0.1232  0.1371
50045DOD     C193954  16.076  26.535  21.948 -0.1225 -0.0933  0.1964
50045DOD     C293955  16.305  26.927  21.748  0.0949 -0.0597 -0.0187
50045DOD     C393956  15.975  27.068  21.445  0.0346  0.2529 -0.3890
50046DOD     C193957  17.940  24.742  18.690 -0.0882 -0.2623  0.0840
50046DOD     C293958  17.726  24.389  18.527  0.1374  0.0379  0.0236
50046DOD     C393959  17.413  24.024  18.595 -0.1190 -0.0998  0.0122
50047DOD     C193960  20.154  26.227   7.639 -0.0546  0.0107 -0.1829
50047DOD     C293961  20.198  25.879   7.399 -0.0217  0.0714 -0.0150
50047DOD     C393962  20.154  25.580   7.097  0.1325  0.0588 -0.1234
50048DOD     C193963  21.218  24.385  28.246 -0.0515 -0.2433 -0.5699
50048DOD     C293964  20.992  24.549  27.861  0.2115 -0.2378 -0.1895
50048DOD     C393965  20.713  24.557  27.406 -0.5120  0.0624 -0.4004
50049DOD     C193966  28.954   4.682  19.185  0.0854  0.1941  0.0306
50049DOD     C293967  28.470   4.796  19.070  0.0018 -0.1732  0.0201
50049DOD     C393968  28.292   5.065  18.721  0.0049 -0.0387 -0.1847
50050DOD     C193969  24.706  25.551  12.421 -0.3178  0.2931 -0.0287
50050DOD     C293970  25.121  25.409  12.489  0.1436  0.0238 -0.4179
50050DOD     C393971  25.405  25.547  12.788  0.2240 -0.0133 -0.1728
50051DOD     C193972  29.295  10.944  21.905  0.0684  0.1043 -0.4829
50051DOD     C293973  29.119  10.967  22.361 -0.0477 -0.0844  0.1308
50051DOD     C393974  29.040  11.015  22.824  0.3071  0.2410  0.1115
50052DOD     C193975  11.563  19.169  17.603  0.0418 -0.2069 -0.1940
50052DOD     C293976  11.438  18.702  17.628 -0.0204 -0.0918 -0.1357
50052DOD     C393977  11.135  18.407  17.512 -0.0808 -0.2503  0.0527
50053DOD     C193978  18.786  19.210   0.689 -0.1953 -0.3351 -0.0982
50053DOD     C293979  18.992  18.847   0.526  0.0802  0.1544 -0.2266
50053DOD     C393980  18.985  18.659   0.126  0.2400 -0.0594 -0.0473
50054DOD     C193981   4.627  18.655   8.757  0.0787 -0.1233 -0.1291
50054DOD     C293982   4.407  18.547   9.139 -0.0410 -0.3629  0.1435
50054DOD     C393983   4.006  18.406   9.316  0.6511 -0.2742 -0.0164
50055DOD     C193984   1.701  25.393  25.996 -0.1025 -0.0983 -0.1856
50055DOD     C293985   1.685  25.552  26.441  0.2841  0.1641 -0.1230
50055DOD     C393986   1.604  25.307  26.840 -0.1807  0.3842 -0.1150
50056DOD     C193987  21.439  10.165   0.279  0.0953  0.2471 -0.2991
50056DOD     C293988  21.143   9.895   0.573 -0.1070 -0.1796  0.0655
50056DOD     C393989  20.918   9.849   0.999  0.0398  0.1422 -0.0287
50057DOD     C193990   0.246  25.948  28.693  0.1623  0.0475 -0.0030
50057DOD     C293991   0.350  25.551  28.522  0.2956  0.0558  0.1812
50057DOD     C393992   0.350  25.218  28.225 -0.2618  0.4159  0.2471
50058DOD     C193993   5.205  13.851   7.501  0.2100 -0.1576 -0.0157
50058DOD     C293994   5.482  13.751   7.853 -0.1649  0.1945 -0.0697
50058DOD     C393995   5.826  13.669   8.163 -0.0118  0.0694 -0.1082
50059DOD     C193996  26.417  14.767  25.907 -0.0894  0.0377  0.1865
50059DOD     C293997  26.796  14.538  26.005  0.1087 -0.0585 -0.2696
50059DOD     C393998  26.952  14.244  26.273 -0.3783  0.0453 -0.3952
50060DOD     C193999  23.479   8.605  20.636  0.1535 -0.4641 -0.1696
50060DOD     C294000  23.405   8.817  20.243  0.5329  0.0335  0.1035
50060DOD     C394001  23.125   8.725  19.904  0.0547  0.0020 -0.0634
50061DOD     C194002  10.769   6.092   7.497 -0.0360  0.0046 -0.1885
50061DOD     C294003  10.826   6.019   7.941 -0.0439 -0.2217 -0.0564
50061DOD     C394004  10.696   5.962   8.392 -0.0154  0.0257 -0.1457
50062DOD     C194005  23.497   7.361  15.175  0.1190  0.4604  0.0518
50062DOD     C294006  23.533   7.479  15.591 -0.2282  0.2161  0.3945
50062DOD     C394007  23.750   7.614  16.012 -0.0694 -0.2680 -0.2007
50063DOD     C194008   4.248  21.125  23.859  0.2514 -0.2767  0.0039
50063DOD     C294009   4.174  20.748  23.610  0.3392 -0.1411 -0.1589
50063DOD     C394010   4.029  20.509  23.254  0.1529  0.2799 -0.4003
50064DOD     C194011  26.865  27.213  19.395  0.0953  0.0452  0.0596
50064DOD     C294012  26.532  26.892  19.291  0.2697  0.1811  0.1231
50064DOD     C394013  26.435  26.548  18.933 -0.2710  0.0512 -0.2210
50065DOD     C194014  28.045   3.252  21.790  0.0106  0.0074 -0.0895
50065DOD     C294015  28.185   2.848  22.025 -0.0221 -0.1128  0.2536
50065DOD     C394016  28.384   2.429  22.000 -0.1224 -0.2786  0.0217
50066DOD     C194017  24.142  18.629  19.431  0.1191 -0.0192  0.0646
50066DOD     C294018  23.784  18.307  19.431 -0.0531 -0.2555  0.2831
50066DOD     C394019  23.297  18.178  19.348 -0.3565 -0.2168  0.1948
50067DOD     C194020  18.170  12.136   0.131  0.0511 -0.0043  0.3578
50067DOD     C294021  17.742  12.306   0.110  0.2954 -0.0707 -0.0637
50067DOD     C394022  17.350  12.363  30.238  0.2440 -0.0439  0.1977
50068DOD     C194023  13.529  30.089   2.086  0.3061  0.0690  0.0058
50068DOD     C294024  13.507  29.634   1.900 -0.0576  0.1948  0.1471
50068DOD     C394025  13.343  29.390   1.575  0.3064  0.2135 -0.0340
50069DOD     C194026   0.132   5.448   4.647 -0.2547 -0.2321 -0.2068
50069DOD     C294027   0.505   5.682   4.501  0.1615 -0.0350  0.0818
50069DOD     C394028   0.739   5.816   4.144 -0.0223 -0.0055 -0.1013
50070DOD     C194029   6.246   7.138  11.684 -0.0021  0.0391 -0.2071
50070DOD     C294030   6.505   7.323  11.347 -0.0621 -0.1114  0.1396
50070DOD     C394031   6.902   7.646  11.213 -0.3271 -0.2217  0.1154
50071DOD     C194032  18.056   4.777  28.966 -0.1234  0.1558  0.1810
50071DOD     C294033  18.161   4.720  28.497 -0.3527  0.2350  0.1762
50071DOD     C394034  17.951   4.871  28.150 -0.0132  0.3234  0.0497
50072DOD     C194035   9.609  25.356   4.251 -0.1984 -0.0756  0.0218
50072DOD     C294036   9.709  24.972   4.004 -0.1670  0.2060  0.3319
50072DOD     C394037   9.603  24.459   3.955 -0.1097 -0.4075 -0.1043
50073DOD     C194038  23.903  18.562   0.609 -0.0972  0.2111 -0.1067
50073DOD     C294039  23.989  18.944   0.692 -0.3354 -0.1127 -0.0730
50073DOD     C394040  24.070  19.406   0.753  0.0869 -0.0039  0.1654
50074DOD     C194041  17.980  30.122  19.996  0.3449 -0.1184  0.1010
50074DOD     C294042  17.951  30.030  20.411  0.3378  0.0217  0.1674
50074DOD     C394043  17.779  30.059  20.834  0.0640  0.1994 -0.1187
50075DOD     C194044   2.495   1.335  25.560 -0.2207 -0.1208 -0.1364
50075DOD     C294045   2.815   1.576  25.388 -0.1266 -0.1909 -0.1239
50075DOD     C394046   3.035   1.876  25.128  0.1864 -0.2585  0.0474
50076DOD     C194047  21.262  20.544  30.177  0.2609  0.0234  0.0743
50076DOD     C294048  21.253  20.965  29.930 -0.0394  0.0301 -0.1428
50076DOD     C394049  21.577  21.289  29.825 -0.3211  0.1779  0.0741
50077DOD     C194050  19.246  15.785  15.463  0.3723 -0.0867  0.2906
50077DOD     C294051  19.016  16.154  15.683  0.1552 -0.3379  0.1608
50077DOD     C394052  18.789  16.501  15.413 -0.2918 -0.0156 -0.0004
50078DOD     C194053  15.087   1.501  18.297 -0.2266  0.1255 -0.0055
50078DOD     C294054  15.348   1.308  18.546 -0.2232  0.0149  0.0653
50078DOD     C394055  15.843   1.194  18.438 -0.1328  0.2464  0.1209
50079DOD     C194056   5.225  20.019  13.107 -0.3239  0.0679 -0.0708
50079DOD     C294057   4.827  19.794  12.946 -0.2344  0.0327 -0.2219
50079DOD     C394058   4.442  19.605  12.797  0.0029  0.0866  0.1724
50080DOD     C194059   8.989  16.097  18.848  0.0350  0.0611 -0.1015
50080DOD     C294060   9.243  16.434  19.030  0.0144 -0.1708 -0.2924
50080DOD     C394061   9.316  16.890  19.050  0.2112  0.1283  0.2884
50081DOD     C194062   0.267  12.324  15.446  0.0341 -0.0997 -0.0193
50081DOD     C294063   0.079  12.596  15.158 -0.0693 -0.1058  0.2396
50081DOD     C394064   0.133  12.901  14.802  0.1068 -0.0443 -0.0578
50082DOD     C194065  19.543  19.468  10.334  0.0112  0.3686 -0.0000
50082DOD     C294066  19.825  19.775  10.593  0.4032  0.0775 -0.2300
50082DOD     C394067  20.056  20.155  10.710 -0.1073  0.2396 -0.0620
50083DOD     C194068  29.297  11.878  27.962 -0.2088  0.0229  0.0758
50083DOD     C294069  28.912  11.865  27.738 -0.2249  0.0337 -0.1336
50083DOD     C394070  28.520  12.107  27.743 -0.2991  0.3545 -0.0007
50084DOD     C194071  12.400  21.811  12.805 -0.1276  0.0029 -0.1854
50084DOD     C294072  12.722  21.908  12.547  0.3425 -0.1257 -0.0324
50084DOD     C394073  12.974  21.759  12.201  0.1339 -0.1344  0.0104
50085DOD     C194074   9.292  29.611  30.195 -0.1525 -0.0511 -0.2761
50085DOD     C294075   9.124  30.008  30.085 -0.1950  0.0236  0.1032
50085DOD     C394076   9.151   0.131  30.181 -0.1533  0.0179 -0.2835
50086DOD     C194077   6.951   2.798   6.483  0.1953 -0.0406 -0.1040
50086DOD     C294078   6.973   2.323   6.367 -0.0335  0.1310 -0.2484
50086DOD     C394079   7.098   2.029   5.996 -0.1325  0.1503 -0.2199
50087DOD     C194080   3.380  24.713   2.123 -0.2119  0.0079  0.0632
50087DOD     C294081   3.232  24.649   1.697  0.0384  0.0865  0.1401
50087DOD     C394082   3.214  24.446   1.243 -0.1704  0.0896 -0.6904
50088DOD     C194083  21.923  13.154  26.355 -0.0793 -0.0916 -0.1109
50088DOD     C294084  21.665  13.306  25.953 -0.1901  0.1673  0.1078
50088DOD     C394085  21.772  13.721  25.770 -0.2151 -0.2028 -0.2412
50089DOD     C194086  23.461  -0.016   4.046  0.0921 -0.2396 -0.1013
50089DOD     C294087  23.706  29.881   4.063  0.3386 -0.0452  0.0361
50089DOD     C394088  23.691  29.630   4.471 -0.2391 -0.1707 -0.0524
50090DOD     C194089   4.283  24.377  21.072 -0.4295  0.0238 -0.1447
50090DOD     C294090   4.143  24.061  20.730  0.0553  0.1205 -0.0521
50090DOD     C394091   4.027  23.594  20.569 -0.0130  0.2248 -0.2048
50091DOD     C194092  16.587  21.179  21.426 -0.2120 -0.0018 -0.2717
50091DOD     C294093  16.782  21.571  21.211 -0.0281 -0.1731  0.0701
50091DOD     C394094  16.997  21.489  20.757 -0.2672 -0.1691 -0.1509
50092DOD     C194095   3.234   1.052   4.531 -0.0941 -0.1334 -0.0077
50092DOD     C294096   3.210   0.705   4.908 -0.0387 -0.1538  0.1996
50092DOD     C394097   3.114   0.527   5.345  0.2959 -0.0896 -0.0981
50093DOD     C194098  20.911  17.685  19.846 -0.0799 -0.0431 -0.2473
50093DOD     C294099  21.246  17.559  20.158  0.0464  0.0025  0.0521
50093DOD     C394100  21.635  17.498  20.403  0.1500  0.2323  0.1513
50094DOD     C194101  28.572  13.466   5.506 -0.1579 -0.1274  0.3071
50094DOD     C294102  28.993  13.560   5.372  0.0401 -0.0727  0.0059
50094DOD     C394103  29.505  13.584   5.510 -0.2294  0.1727  0.0385
50095DOD     C194104  24.823  19.710  16.862  0.1822  0.3107  0.0634
50095DOD     C294105  24.331  19.539  16.884  0.0645  0.1286  0.3314
50095DOD     C394106  23.971  19.765  16.760  0.0663 -0.1184  0.0857
50096DOD     C194107  19.683   8.753  10.330  0.0865  0.2447 -0.2035
50096DOD     C294108  19.516   8.589   9.927 -0.1564  0.0175  0.1265
50096DOD     C394109  19.371   8.681   9.475  0.2773 -0.3053 -0.2108
50097DOD     C194110   1.918  21.145   0.827 -0.1310 -0.3487 -0.2296
50097DOD     C294111   1.554  21.012   1.143 -0.0647  0.1390 -0.1278
50097DOD     C394112   1.171  20.859   1.414 -0.0935  0.1214 -0.2194
50098DOD     C194113  18.911  18.957  12.240  0.0618  0.2222  0.0450
50098DOD     C294114  19.078  19.118  12.657 -0.1520 -0.1437  0.1772
50098DOD     C394115  19.518  19.287  12.636  0.0263 -0.1825  0.3009
50099DOD     C194116  16.955  18.045   0.871  0.2149  0.1600 -0.0953
50099DOD     C294117  17.130  18.208   1.299  0.1741 -0.0436  0.0217
50099DOD     C394118  17.127  18.297   1.737  0.0232 -0.2344 -0.1977
50100DOD     C194119  21.669  20.618  29.030 -0.1951  0.1275  0.2368
50100DOD     C294120  21.205  20.434  28.913 -0.0732  0.0186  0.0843
50100DOD     C394121  20.858  20.151  28.918  0.1267 -0.0341  0.0099
50101DOD     C194122   9.607  22.232  24.774 -0.2639  0.0135  0.1658
50101DOD     C294123   9.487  22.534  24.423 -0.1948  0.1774  0.1560
50101DOD     C394124   9.274  22.668  24.000 -0.0999 -0.2303  0.0560
50102DOD     C194125   7.552  15.549  10.520  0.2039  0.1579 -0.0610
50102DOD     C294126   7.582  15.802  10.882 -0.0788 -0.0316  0.1793
50102DOD     C394127   7.816  16.084  11.196  0.2224  0.2556  0.1274
50103DOD     C194128   2.017   2.883  11.891 -0.1244 -0.3072 -0.0581
50103DOD     C294129   2.286   2.439  11.791  0.2220  0.3636  0.0889
50103DOD     C394130   2.265   2.042  11.695 -0.0325 -0.0444  0.1273
50104DOD     C194131   0.535  14.027  23.542  0.3235  0.5204 -0.1971
50104DOD     C294132   0.834  14.330  23.652 -0.1883  0.0228  0.0209
50104DOD     C394133   1.042  14.747  23.592  0.0165 -0.0983  0.3508
50105DOD     C194134  25.562   4.236   9.850 -0.0459  0.5044 -0.3496
50105DOD     C294135  25.190   4.230  10.184 -0.2553  0.2575  0.1010
50105DOD     C394136  25.044   4.588  10.446  0.0110 -0.1069  0.6876
50106DOD     C194137   1.562   0.703  23.104 -0.2336 -0.0254 -0.3058
50106DOD     C294138   1.368   1.032  23.320  0.0717  0.2206  0.0256
50106DOD     C394139   1.083   1.220  23.689 -0.1397  0.0254  0.2920
50107DOD     C194140  10.791   2.068  13.304  0.3416  0.0432 -0.1210
50107DOD     C294141  11.234   1.938  13.384 -0.1470 -0.1059  0.2752
50107DOD     C394142  11.545   1.764  13.092 -0.2304 -0.2639  0.5049
50108DOD     C194143   9.408   7.557  14.465 -0.3054 -0.2944 -0.0722
50108DOD     C294144   9.275   7.659  14.827  0.0448  0.3402 -0.3891
50108DOD     C394145   9.306   7.609  15.297 -0.1051 -0.1405 -0.2236
50109DOD     C194146  22.042   7.233  28.505 -0.2239 -0.2931 -0.0409
50109DOD     C294147  22.491   7.482  28.379 -0.1835  0.2039  0.0330
50109DOD     C394148  22.900   7.723  28.445  0.3706 -0.0791 -0.0319
50110DOD     C194149  22.919  18.499  12.853 -0.0822 -0.0419  0.1642
50110DOD     C294150  23.002  18.371  13.260 -0.3590  0.3031  0.0240
50110DOD     C394151  22.902  18.334  13.751 -0.1343  0.0494  0.1275
50111DOD     C194152   1.202   3.455  12.298 -0.1264  0.1617  0.2013
50111DOD     C294153   1.290   3.703  11.890 -0.0006  0.0317  0.0053
50111DOD     C394154   1.266   4.017  11.567 -0.0371  0.0219  0.1927
50112DOD     C194155  25.721  17.452  29.167  0.2040  0.2761  0.1176
50112DOD     C294156  25.894  17.824  29.381 -0.0443  0.0676 -0.2633
50112DOD     C394157  26.094  18.201  29.119 -0.3674 -0.2859 -0.3000
50113DOD     C194158   0.476  17.734   8.713  0.0270  0.3651 -0.0091
50113DOD     C294159   0.811  17.649   8.407  0.0829  0.1047 -0.0968
50113DOD     C394160   1.006  17.266   8.226 -0.0659  0.0016  0.0115
50114DOD     C194161   0.995  19.178   8.778  0.0243  0.1458  0.0731
50114DOD     C294162   0.666  19.488   8.742  0.1179  0.1302  0.1426
50114DOD     C394163   0.563  19.942   8.870 -0.1997 -0.3742  0.0489
50115DOD     C194164  14.236  27.351   8.212 -0.0058  0.2782  0.0023
50115DOD     C294165  14.116  27.429   7.776 -0.0653 -0.4284  0.0912
50115DOD     C394166  13.911  27.337   7.333 -0.3994  0.2874 -0.0482
50116DOD     C194167  26.457  13.691  27.869  0.2946  0.1079 -0.1153
50116DOD     C294168  26.238  13.306  28.061  0.1563  0.0102 -0.1110
50116DOD     C394169  26.002  12.934  28.108 -0.0911 -0.1127  0.1190
50117DOD     C194170  27.943   0.529   8.729  0.2203 -0.0325  0.0914
50117DOD     C294171  27.645   0.592   8.377  0.1430 -0.0865 -0.0895
50117DOD     C394172  27.266   0.428   8.167  0.2551  0.0229 -0.1564
50118DOD     C194173   5.844  12.418   0.355 -0.1654  0.0377 -0.1003
50118DOD     C294174   6.049  12.015   0.221  0.0763 -0.0544  0.2354
50118DOD     C394175   6.412  11.742   0.146 -0.1341  0.0727 -0.1030
50119DOD     C194176  22.486   8.633   6.671  0.3776 -0.1956  0.1477
50119DOD     C294177  22.953   8.481   6.655 -0.1413 -0.1483 -0.0784
50119DOD     C394178  23.227   8.317   6.267 -0.3155 -0.1465  0.1985
50120DOD     C194179   4.476  21.114  15.918 -0.2961  0.0629 -0.1098
50120DOD     C294180   4.175  21.041  15.570 -0.2690 -0.1016  0.1247
50120DOD     C394181   3.773  20.844  15.537  0.2592 -0.2857  0.3084
50121DOD     C194182  11.434   3.703  13.812  0.0298  0.0032 -0.2757
50121DOD     C294183  11.465   3.261  13.973  0.0359 -0.0629 -0.0135
50121DOD     C394184  11.310   2.830  13.874 -0.2854 -0.0638 -0.1142
50122DOD     C194185  13.261  20.629  12.811  0.3278 -0.1257  0.0944
50122DOD     C294186  13.382  20.704  12.325  0.2616  0.1306  0.1293
50122DOD     C394187  13.616  20.850  11.905  0.1888  0.0340  0.0113
50123DOD     C194188  20.242  19.590  28.500  0.0215 -0.3375  0.0377
50123DOD     C294189  20.638  19.741  28.728 -0.0658 -0.3601  0.3146
50123DOD     C394190  21.145  19.689  28.683 -0.2010  0.1646 -0.4278
50124DOD     C194191  19.023   7.308  11.327 -0.1015 -0.0797 -0.2424
50124DOD     C294192  18.781   7.682  11.318  0.1820  0.2218 -0.0899
50124DOD     C394193  18.546   7.948  11.690  0.0078  0.1762 -0.2242
50125DOD     C194194   1.524  24.904  23.633 -0.0830 -0.1198 -0.0701
50125DOD     C294195   1.308  25.059  23.306 -0.0851 -0.0073 -0.0716
50125DOD     C394196   1.434  25.184  22.828 -0.1430  0.1578  0.0635
50126DOD     C194197   2.015   3.556  25.017 -0.0863 -0.1487 -0.1163
50126DOD     C294198   2.002   3.245  25.413  0.0409  0.2201  0.0620
50126DOD     C394199   2.048   2.868  25.731 -0.1235 -0.2239 -0.2916
50127DOD     C194200  22.852  22.939   7.739  0.2891  0.3938  0.2882
50127DOD     C294201  23.311  22.876   7.725 -0.4284  0.2041  0.0062
50127DOD     C394202  23.663  22.701   7.425 -0.0638 -0.2547 -0.0975
50128DOD     C194203  14.339  30.033  20.752 -0.2464  0.1374 -0.0654
50128DOD     C294204  13.949  29.889  20.879 -0.0585  0.0118  0.1159
50128DOD     C394205  13.514  30.029  20.966 -0.1291  0.0608  0.3544
50129DOD     C194206  21.959   5.869  22.226 -0.0072 -0.0586  0.0575
50129DOD     C294207  22.384   5.883  22.442 -0.0640  0.0143 -0.3403
50129DOD     C394208  22.830   5.888  22.307 -0.2277  0.1867 -0.0636
50130DOD     C194209  23.523  18.663  13.305  0.2274  0.1422  0.2670
50130DOD     C294210  23.989  18.601  13.290  0.0845 -0.0814 -0.0645
50130DOD     C394211  24.443  18.569  13.187 -0.3165 -0.2646 -0.0352
50131DOD     C194212   6.710   0.177  20.545  0.1343 -0.0458  0.0729
50131DOD     C294213   7.079   0.184  20.833  0.1719 -0.2309 -0.0974
50131DOD     C394214   7.063   0.093  21.285  0.1638 -0.0255 -0.2618
50132DOD     C194215  25.834  16.190  17.271  0.3195 -0.0618 -0.1388
50132DOD     C294216  26.078  16.143  16.855  0.0464  0.1219  0.0603
50132DOD     C394217  25.951  15.919  16.441 -0.1204  0.1529 -0.2861
50133DOD     C194218  19.426  30.062  19.978  0.2214 -0.1004  0.1372
50133DOD     C294219  19.005  29.848  19.847 -0.0391  0.2408  0.0501
50133DOD     C394220  18.708  29.605  20.073 -0.3113 -0.1961 -0.0274
50134DOD     C194221  21.826   8.425  12.370  0.0295  0.3566  0.2131
50134DOD     C294222  22.250   8.406  12.452 -0.0714  0.0561  0.1775
50134DOD     C394223  22.607   8.130  12.451  0.3145 -0.2943 -0.5044
50135DOD     C194224   6.341   2.153   7.082 -0.1918  0.0343 -0.1665
50135DOD     C294225   6.162   2.329   6.680 -0.2972 -0.1684  0.0335
50135DOD     C394226   6.096   2.740   6.421  0.1688  0.3336  0.0357
50136DOD     C194227   7.386   2.648  29.171  0.0135  0.0753  0.0138
50136DOD     C294228   7.202   2.734  29.580 -0.0423 -0.1225 -0.0153
50136DOD     C394229   7.175   3.029  29.922 -0.0062 -0.3560 -0.1963
50137DOD     C194230  15.748  29.378  27.068  0.1205  0.2435  0.0782
50137DOD     C294231  16.140  29.386  27.334 -0.2097 -0.0969 -0.1573
50137DOD     C394232  16.216  29.441  27.760  0.3274  0.1622 -0.3434
50138DOD     C194233  16.038  27.854  28.717  0.3647  0.1336  0.0724
50138DOD     C294234  16.027  27.564  29.099 -0.0953  0.0969  0.1545
50138DOD     C394235  15.812  27.466  29.455 -0.5948 -0.2375  0.0031
50139DOD     C194236  15.875  16.200   7.759  0.0885  0.2501 -0.2850
50139DOD     C294237  15.831  16.413   8.126 -0.0475 -0.1990 -0.4326
50139DOD     C394238  15.806  16.466   8.634 -0.2756  0.1243  0.1360
50140DOD     C194239  17.308   1.216  18.346 -0.1931 -0.2302 -0.3492
50140DOD     C294240  16.938   1.199  18.123 -0.2150  0.1271  0.4244
50140DOD     C394241  16.712   1.499  17.902 -0.2921  0.0256 -0.4596
50141DOD     C194242   5.732  17.712   3.858 -0.2630 -0.0314 -0.2586
50141DOD     C294243   6.162  17.967   3.680  0.3350 -0.1646 -0.0008
50141DOD     C394244   6.596  17.958   3.525 -0.0543  0.0900  0.0310
50142DOD     C194245  22.822  14.961  22.039  0.0519 -0.2612 -0.1076
50142DOD     C294246  23.299  14.866  21.928  0.1487  0.0530 -0.1244
50142DOD     C394247  23.653  14.942  21.582 -0.2790 -0.3184  0.1127
50143DOD     C194248  23.535  27.423  10.251 -0.1982 -0.1836  0.1006
50143DOD     C294249  24.005  27.402  10.106  0.0654 -0.2865 -0.0178
50143DOD     C394250  24.319  27.045  10.216 -0.0468 -0.1507  0.0368
50144DOD     C194251   0.092   1.428   7.335 -0.0340  0.4033 -0.0309
50144DOD     C294252   0.427   1.150   7.111  0.2489 -0.2057  0.2171
50144DOD     C394253   0.847   1.153   6.958  0.3715  0.1209 -0.1396
50145DOD     C194254  29.047   0.565   1.718 -0.1265 -0.0598 -0.0590
50145DOD     C294255  29.020   0.155   1.957 -0.0528  0.2772  0.2113
50145DOD     C394256  28.898  30.142   2.255  0.1634 -0.3248  0.1935
50146DOD     C194257   2.950  23.458  24.071 -0.0691 -0.1309 -0.0940
50146DOD     C294258   3.280  23.072  24.116 -0.1018  0.2297 -0.0034
50146DOD     C394259   3.161  22.805  24.428 -0.0609 -0.0803 -0.2281
50147DOD     C194260  27.049  18.857   5.487  0.0105  0.2354 -0.0346
50147DOD     C294261  27.323  19.047   5.824 -0.1024 -0.0073 -0.0979
50147DOD     C394262  27.327  19.152   6.265 -0.3213 -0.0280  0.1933
50148DOD     C194263  12.368  23.220   2.895 -0.3705  0.0795 -0.0481
50148DOD     C294264  12.050  23.585   3.008 -0.0578  0.0597 -0.1707
50148DOD     C394265  11.602  23.651   2.876  0.0188 -0.0271 -0.0013
50149DOD     C194266  19.281  19.695   4.683 -0.2328 -0.0595 -0.1834
50149DOD     C294267  19.109  19.541   4.301  0.3258  0.0624  0.1040
50149DOD     C394268  18.715  19.541   4.080 -0.2145  0.0984  0.0586
50150DOD     C194269  22.264   8.798   2.491  0.1428 -0.1206  0.1324
50150DOD     C294270  21.842   8.936   2.711 -0.3294 -0.1264  0.0510
50150DOD     C394271  21.505   8.755   3.011  0.0726 -0.0149  0.1589
50151DOD     C194272   3.138   1.416  24.977 -0.3381  0.3046  0.0478
50151DOD     C294273   3.239   0.977  25.069 -0.0502 -0.1592  0.2401
50151DOD     C394274   3.006   0.582  25.015 -0.0657 -0.2473 -0.2065
50152DOD     C194275  29.018  30.031  15.149 -0.2554  0.1217  0.3165
50152DOD     C294276  28.848  29.577  15.056  0.2444 -0.2039 -0.1116
50152DOD     C394277  28.767  29.217  14.764  0.2149 -0.2461 -0.1241
50153DOD     C194278   1.075  22.261  12.444 -0.1131 -0.0909  0.0069
50153DOD     C294279   1.174  22.135  12.874 -0.1465 -0.2638  0.0698
50153DOD     C394280   1.420  21.845  13.128  0.0385  0.2415  0.0098
50154DOD     C194281  23.889   2.783   6.255 -0.1250  0.1328  0.0466
50154DOD     C294282  24.174   2.535   6.551 -0.1585 -0.0263  0.0612
50154DOD     C394283  24.494   2.169   6.621  0.2934 -0.1423  0.2324
50155DOD     C194284  11.698  27.020  20.933 -0.0880  0.0533  0.1408
50155DOD     C294285  11.285  26.905  21.021  0.2411 -0.0397  0.0386
50155DOD     C394286  11.013  26.946  21.377 -0.1353  0.0172 -0.0388
50156DOD     C194287  19.685   5.219  18.817 -0.0979 -0.1536 -0.1201
50156DOD     C294288  19.796   4.954  19.237  0.0873 -0.2042  0.0054
50156DOD     C394289  19.845   4.843  19.682 -0.0303  0.4409  0.0103
50157DOD     C194290   4.897  24.910   9.752 -0.2290 -0.0094  0.1779
50157DOD     C294291   4.592  24.536   9.678 -0.1256 -0.3497  0.2496
50157DOD     C394292   4.382  24.377  10.081 -0.3641 -0.0200  0.2479
50158DOD     C194293  21.748   1.441   7.082  0.1784  0.1556 -0.1829
50158DOD     C294294  22.121   1.570   6.875 -0.0297  0.1280  0.1398
50158DOD     C394295  22.544   1.592   6.778  0.2209 -0.1347 -0.2504
50159DOD     C194296  19.059   8.672  25.463  0.0883 -0.0214  0.1160
50159DOD     C294297  18.932   8.155  25.400 -0.0282  0.0951  0.1019
50159DOD     C394298  18.761   7.722  25.437  0.1619 -0.1462  0.0832
50160DOD     C194299  17.574   9.284  26.071  0.1572 -0.5763 -0.0532
50160DOD     C294300  17.659   9.718  26.260  0.3848  0.0074  0.2447
50160DOD     C394301  17.743  10.137  26.540 -0.1192 -0.2403 -0.0526
50161DOD     C194302  29.171  16.860  18.273 -0.0291  0.2028  0.1180
50161DOD     C294303  29.456  17.124  18.116  0.0036  0.0808 -0.0247
50161DOD     C394304  29.912  17.053  18.002 -0.0372  0.2285  0.3314
50162DOD     C194305   8.638  30.085   6.614  0.0164 -0.3874 -0.0373
50162DOD     C294306   8.256  29.836   6.649  0.1638  0.3593  0.2496
50162DOD     C394307   8.056  29.440   6.693 -0.0135  0.1839  0.1988
50163DOD     C194308  25.611   8.488   9.281  0.0788 -0.1678  0.0960
50163DOD     C294309  26.025   8.573   9.121 -0.1364  0.3441  0.0955
50163DOD     C394310  26.103   8.352   8.680  0.1262 -0.2801 -0.3232
50164DOD     C194311  17.134  24.443   4.558 -0.0184  0.1301  0.0099
50164DOD     C294312  16.842  24.167   4.793 -0.0646 -0.3634  0.0915
50164DOD     C394313  16.714  23.713   4.788 -0.0745 -0.0783 -0.1461
50165DOD     C194314  21.785   3.729  13.515  0.0262  0.2078  0.2313
50165DOD     C294315  21.680   3.341  13.492  0.0916  0.2723  0.0130
50165DOD     C394316  21.599   2.961  13.387  0.4354  0.1129 -0.0553
50166DOD     C194317  24.796  24.816  11.505  0.3460 -0.2293  0.0064
50166DOD     C294318  24.949  24.585  11.920  0.0393  0.0504 -0.1205
50166DOD     C394319  25.036  24.156  12.070  0.2308 -0.0158 -0.2074
50167DOD     C194320  13.650  12.636   7.804  0.1704 -0.2342  0.0865
50167DOD     C294321  13.454  12.496   8.238 -0.1219 -0.1579  0.1087
50167DOD     C394322  13.252  12.813   8.483 -0.1075  0.1325  0.1881
50168DOD     C194323   5.117  27.708  24.446  0.1200  0.1145 -0.1788
50168DOD     C294324   4.970  27.422  24.146  0.0906  0.0435  0.0254
50168DOD     C394325   4.737  27.237  23.824 -0.1076  0.1411 -0.0713
50169DOD     C194326  23.684   8.054  18.678  0.0978 -0.0273  0.0996
50169DOD     C294327  23.228   7.908  18.614 -0.0074  0.0019 -0.1840
50169DOD     C394328  22.943   7.634  18.386 -0.1292  0.0842  0.0127
50170DOD     C194329   4.484   7.695   9.580 -0.2564  0.0413 -0.3013
50170DOD     C294330   4.317   7.590   9.197  0.1840 -0.2766 -0.0319
50170DOD     C394331   4.342   7.481   8.744 -0.3032 -0.2605 -0.1099
50171DOD     C194332   1.902  24.926  27.299 -0.2760  0.2369  0.0994
50171DOD     C294333   2.250  24.627  27.088  0.3294 -0.0488 -0.1842
50171DOD     C394334   2.747  24.702  27.002  0.1109  0.0844 -0.0939
50172DOD     C194335  10.420  29.675  24.585 -0.2117 -0.0834  0.0535
50172DOD     C294336  10.858  29.721  24.579  0.0280 -0.1923 -0.0074
50172DOD     C394337  11.247  29.479  24.564  0.1074  0.1055 -0.1803
50173DOD     C194338   6.334  28.793  29.466 -0.1461 -0.1419 -0.0249
50173DOD     C294339   6.754  28.790  29.278  0.1687 -0.3263 -0.1391
50173DOD     C394340   6.926  28.720  28.892 -0.0039  0.0903  0.2839
50174DOD     C194341  23.649  10.918  16.718  0.2145  0.0669 -0.1108
50174DOD     C294342  23.733  10.523  16.502 -0.0475  0.2813 -0.0031
50174DOD     C394343  24.087  10.253  16.249 -0.0138 -0.0190  0.1688
50175DOD     C194344   7.992   9.977  22.744 -0.2377 -0.2059  0.0753
50175DOD     C294345   8.290  10.137  23.055 -0.1838  0.0828  0.1031
50175DOD     C394346   8.662  10.200  23.227  0.3841  0.0793  0.3087
50176DOD     C194347  29.668  13.625  12.297 -0.0070  0.2199  0.0769
50176DOD     C294348  29.993  13.970  12.384 -0.2457 -0.0892  0.0924
50176DOD     C394349   0.115  14.139  12.311 -0.2350 -0.0050 -0.1843
50177DOD     C194350  20.897  23.503  30.169 -0.0150 -0.1173  0.0224
50177DOD     C294351  20.586  23.551   0.279 -0.1268  0.0665  0.0968
50177DOD     C394352  20.331  23.679   0.702  0.0263  0.2258 -0.1113
50178DOD     C194353  17.281   2.919  13.433  0.0931 -0.2619 -0.0432
50178DOD     C294354  16.929   3.030  13.156 -0.1227 -0.0675 -0.2076
50178DOD     C394355  16.730   3.443  13.180 -0.0635  0.0543  0.1229
50179DOD     C194356   9.650  22.094   5.149  0.2960 -0.2439  0.0468
50179DOD     C294357   9.836  21.764   5.476  0.1079 -0.4838  0.1022
50179DOD     C394358  10.080  21.441   5.681 -0.2252  0.1683 -0.0073
50180DOD     C194359   9.466   6.867  16.121 -0.1033  0.0514  0.0709
50180DOD     C294360   9.045   6.728  16.029  0.1446 -0.0705  0.0229
50180DOD     C394361   8.706   6.950  15.744 -0.2446  0.0128 -0.3091
50181DOD     C194362  16.546  20.350  18.621 -0.1013 -0.3524 -0.0661
50181DOD     C294363  16.587  19.939  18.722  0.5376  0.3529 -0.0828
50181DOD     C394364  16.335  19.591  18.952 -0.4430 -0.3034  0.0733
50182DOD     C194365  28.417   6.855  10.002 -0.1251 -0.3271  0.1460
50182DOD     C294366  28.049   6.896  10.259  0.0242  0.0209  0.3452
50182DOD     C394367  27.676   7.119  10.330 -0.0500 -0.1174  0.0970
50183DOD     C194368   3.919  23.733   8.625 -0.0849  0.1856 -0.1290
50183DOD     C294369   4.181  23.341   8.692  0.0258 -0.0277  0.0257
50183DOD     C394370   4.227  23.016   8.983 -0.1580  0.2573  0.0861
50184DOD     C194371  29.838   1.992  11.145 -0.0777 -0.2126 -0.0917
50184DOD     C294372  29.800   1.960  11.585  0.0628 -0.1255 -0.0205
50184DOD     C394373  29.878   2.026  12.040 -0.2602 -0.0580 -0.2860
50185DOD     C194374  14.467   6.822   9.767 -0.1145  0.1922 -0.1074
50185DOD     C294375  14.379   6.918  10.226 -0.0158 -0.3093  0.0101
50185DOD     C394376  14.307   6.609  10.527  0.2828 -0.2604 -0.1278
50186DOD     C194377  19.208   1.268   3.729  0.0793  0.1879 -0.1860
50186DOD     C294378  19.146   1.515   3.330 -0.0569  0.1503  0.3190
50186DOD     C394379  18.961   1.700   2.990 -0.0794 -0.0068  0.0680
50187DOD     C194380   0.532  14.281  20.131 -0.1817  0.2633 -0.1007
50187DOD     C294381   0.781  14.195  20.468  0.1672 -0.2082 -0.2585
50187DOD     C394382   1.026  14.358  20.833 -0.1483  0.2080 -0.0673
50188DOD     C194383  16.417  17.148  27.504  0.2421  0.1589 -0.3199
50188DOD     C294384  16.412  16.676  27.650 -0.2200  0.0163 -0.3598
50188DOD     C394385  16.719  16.303  27.812 -0.0924 -0.0672 -0.0272
50189DOD     C194386  24.078  13.444  19.683 -0.2317  0.0291 -0.0569
50189DOD     C294387  23.665  13.404  19.480 -0.0565  0.4236 -0.2082
50189DOD     C394388  23.289  13.305  19.239 -0.0276  0.1722  0.0970
50190DOD     C194389  17.065  27.641  24.602 -0.0914 -0.0343 -0.2973
50190DOD     C294390  17.031  27.282  24.317 -0.1864  0.1898  0.2892
50190DOD     C394391  17.276  26.898  24.378  0.1063 -0.0472  0.0899
50191DOD     C194392   3.427  21.204  29.983 -0.0752  0.2309  0.0889
50191DOD     C294393   3.290  20.755  30.014 -0.2595  0.0173 -0.0971
50191DOD     C394394   3.472  20.440  29.665  0.3071  0.1155  0.2610
50192DOD     C194395  13.978  30.264   2.759  0.3047 -0.2263  0.1379
50192DOD     C294396  13.654   0.189   2.494  0.0533  0.0955 -0.1873
50192DOD     C394397  13.605   0.561   2.170 -0.2928  0.0383 -0.0856
50193DOD     C194398  15.986  10.531  29.816 -0.1764  0.1374 -0.0235
50193DOD     C294399  15.979  10.203  30.047  0.1743 -0.1831 -0.1975
50193DOD     C394400  15.949  10.027   0.142  0.1813  0.3134 -0.0067
50194DOD     C194401  24.825  12.194  15.816  0.1798  0.1344  0.0781
50194DOD     C294402  24.927  11.834  15.496  0.1305 -0.1252  0.1292
50194DOD     C394403  24.955  11.323  15.504 -0.2292 -0.4180  0.0974
50195DOD     C194404  26.139   6.056   1.309 -0.2025  0.0231 -0.1039
50195DOD     C294405  25.860   6.411   1.166  0.3075  0.0799 -0.0992
50195DOD     C394406  25.724   6.876   1.197 -0.2586  0.0453  0.0958
50196DOD     C194407  20.860   4.431   7.675 -0.0117  0.0560  0.0421
50196DOD     C294408  20.813   4.634   8.119  0.2130 -0.3116  0.4885
50196DOD     C394409  20.713   5.001   8.357  0.0109  0.0869 -0.1578
50197DOD     C194410  10.173   4.099   7.555  0.1487  0.0590 -0.1797
50197DOD     C294411  10.373   3.722   7.583 -0.0545 -0.1889 -0.1044
50197DOD     C394412  10.606   3.572   7.197  0.2932 -0.0914  0.0954
50198DOD     C194413  30.121  14.394  26.360 -0.1124  0.2493  0.0183
50198DOD     C294414  30.312  14.748  26.570 -0.0022  0.2797  0.0628
50198DOD     C394415   0.109  15.096  26.788 -0.0519 -0.3611  0.2690
50199DOD     C194416   2.149  17.872  25.609 -0.0399 -0.0759 -0.0025
50199DOD     C294417   2.569  18.048  25.770  0.2362 -0.0922  0.2132
50199DOD     C394418   2.872  18.224  25.469 -0.0801  0.2318 -0.1585
50200DOD     C194419   6.427  11.105   2.046 -0.1267 -0.1638 -0.1483
50200DOD     C294420   6.664  11.430   2.254  0.0008  0.1719  0.1839
50200DOD     C394421   6.798  11.646   2.570 -0.1547 -0.0125 -0.1378
50201DOD     C194422  27.814  17.495  30.173  0.0547 -0.1340 -0.2652
50201DOD     C294423  27.358  17.486  30.173 -0.0150 -0.1497 -0.1354
50201DOD     C394424  27.162  17.377   0.235 -0.3196  0.0320 -0.1407
50202DOD     C194425  15.431   8.302  21.138 -0.1960  0.1004  0.0745
50202DOD     C294426  15.853   8.188  21.035  0.0366  0.0381 -0.0096
50202DOD     C394427  16.074   7.852  20.769 -0.1356  0.0016 -0.0653
50203DOD     C194428  13.016  22.393   6.221 -0.0496 -0.0577  0.0267
50203DOD     C294429  12.811  22.088   6.528 -0.1419 -0.1062 -0.0041
50203DOD     C394430  12.690  21.880   6.970 -0.4108 -0.1596 -0.1272
50204DOD     C194431  29.977  13.189  12.304  0.2023 -0.0306 -0.0437
50204DOD     C294432   0.086  13.185  12.531 -0.0004  0.2957 -0.1738
50204DOD     C394433   0.337  12.965  12.883  0.3353 -0.2477 -0.0366
50205DOD     C194434  14.854  10.275   0.327  0.0199  0.0090  0.0811
50205DOD     C294435  14.450  10.245   0.591 -0.1766 -0.0998  0.1368
50205DOD     C394436  14.084  10.131   0.385  0.2597  0.0155 -0.2090
50206DOD     C194437  17.823   9.794  19.854  0.1872  0.0374  0.2644
50206DOD     C294438  17.815   9.450  20.129 -0.0923 -0.1038  0.3029
50206DOD     C394439  17.673   9.398  20.600 -0.0750 -0.0379 -0.1136
50207DOD     C194440  21.560  19.098  29.311  0.0898 -0.1053 -0.2096
50207DOD     C294441  21.852  18.824  29.456  0.0802  0.0112  0.1935
50207DOD     C394442  21.973  18.793  29.873  0.0960  0.0525  0.1538
50208DOD     C194443  26.992  12.988   6.824 -0.2286 -0.0926  0.0908
50208DOD     C294444  26.773  13.415   6.661 -0.1409 -0.2899 -0.3326
50208DOD     C394445  26.477  13.752   6.632  0.1135 -0.2256 -0.1173
50209DOD     C194446   4.792   1.443  25.347  0.0538 -0.1143  0.1304
50209DOD     C294447   4.447   1.300  25.038  0.0196 -0.0475 -0.0394
50209DOD     C394448   4.097   1.261  24.675  0.2087  0.1165 -0.1793
50210DOD     C194449   0.480  28.755   9.629 -0.1821 -0.1166  0.0073
50210DOD     C294450   0.755  28.406   9.687 -0.2452  0.2479 -0.1283
50210DOD     C394451   1.193  28.402   9.660  0.0788  0.0646  0.2196
50211DOD     C194452  17.495  14.927  14.727  0.0328 -0.3078 -0.0422
50211DOD     C294453  17.417  14.476  14.665 -0.0350 -0.0552  0.1406
50211DOD     C394454  17.019  14.207  14.802 -0.0068  0.1017  0.2863
50212DOD     C194455   8.732   4.428  14.781 -0.0592  0.1592 -0.4356
50212DOD     C294456   8.617   3.974  14.918  0.0975 -0.0936 -0.0751
50212DOD     C394457   8.734   3.474  14.829 -0.0429 -0.1227  0.0140
50213DOD     C194458  18.887   9.759  28.661  0.4206  0.1281  0.0248
50213DOD     C294459  19.130   9.362  28.757  0.0437 -0.0626  0.0222
50213DOD     C394460  19.318   8.988  28.630 -0.0198 -0.2907  0.0739
50214DOD     C194461   2.769  18.104  23.581 -0.0389 -0.0079 -0.1257
50214DOD     C294462   3.294  18.144  23.642 -0.0743 -0.2007  0.1322
50214DOD     C394463   3.645  18.430  23.464 -0.0853 -0.3631 -0.1407
50215DOD     C194464   1.635  21.324  14.656 -0.1412  0.3267 -0.0177
50215DOD     C294465   1.953  21.166  15.018  0.3183  0.0288  0.1138
50215DOD     C394466   2.264  20.801  15.184 -0.0681 -0.0813 -0.1004
50216DOD     C194467  28.047  12.498   1.050 -0.2929 -0.1126  0.0303
50216DOD     C294468  28.111  12.524   1.518  0.1213 -0.1561  0.1718
50216DOD     C394469  27.909  12.750   1.885  0.3428  0.1220  0.1441
50217DOD     C194470  20.624  12.976   7.401  0.0922 -0.0890  0.3816
50217DOD     C294471  21.013  12.942   7.570 -0.0592  0.3133 -0.1838
50217DOD     C394472  21.255  12.654   7.840 -0.2262  0.0981 -0.2667
50218DOD     C194473  28.778  13.726   2.369  0.1919  0.2923 -0.0052
50218DOD     C294474  28.310  13.617   2.308 -0.4165  0.1313  0.2093
50218DOD     C394475  28.070  13.613   1.922  0.3683 -0.1651  0.0060
50219DOD     C194476  13.799  14.105  19.056 -0.0076 -0.2642 -0.0519
50219DOD     C294477  14.259  14.178  19.175 -0.1816 -0.0111  0.0674
50219DOD     C394478  14.587  13.818  19.182  0.2507  0.0171 -0.1416
50220DOD     C194479   6.667  22.747   6.442  0.0897  0.2022 -0.0948
50220DOD     C294480   6.880  22.964   6.798  0.3818  0.0401  0.0637
50220DOD     C394481   7.315  23.128   6.934  0.1089  0.1257  0.1401
50221DOD     C194482  15.471  20.933  14.915 -0.3638  0.0157  0.3172
50221DOD     C294483  15.677  21.398  15.003  0.0312  0.1291 -0.2600
50221DOD     C394484  15.700  21.766  15.323  0.2048  0.1302  0.0817
50222DOD     C194485  12.240   2.541  23.363 -0.1100 -0.1488  0.0620
50222DOD     C294486  11.925   2.384  23.678 -0.2022 -0.2146  0.0453
50222DOD     C394487  11.704   2.406  24.046 -0.1705  0.1396 -0.2079
50223DOD     C194488  24.387  14.268  29.408 -0.1771  0.0404  0.2630
50223DOD     C294489  23.986  14.414  29.545  0.4148 -0.3891 -0.3109
50223DOD     C394490  23.803  14.853  29.516  0.0035 -0.1420  0.1422
50224DOD     C194491   8.416  27.807   5.632  0.0003  0.0593  0.1789
50224DOD     C294492   8.289  28.201   5.455  0.1061  0.0956 -0.0119
50224DOD     C394493   8.111  28.633   5.543 -0.0761 -0.0806  0.0806
50225DOD     C194494  30.196   3.036  20.609  0.1986  0.0130 -0.0548
50225DOD     C294495  30.087   2.582  20.672  0.1304  0.0893 -0.2376
50225DOD     C394496  30.106   2.112  20.706  0.2078  0.3259 -0.3590
50226DOD     C194497   5.103  18.175  11.159 -0.1271  0.0368 -0.2698
50226DOD     C294498   4.901  18.498  11.439  0.0890 -0.0644  0.1748
50226DOD     C394499   4.499  18.575  11.713 -0.0223  0.0282 -0.2563
50227DOD     C194500  21.929   4.640  26.921  0.4303 -0.3571  0.3705
50227DOD     C294501  22.051   4.639  26.472 -0.1045  0.0144 -0.3138
50227DOD     C394502  21.646   4.620  26.256 -0.0604 -0.2756 -0.0430
50228DOD     C194503   8.558   0.245   0.315 -0.2643 -0.1486  0.3981
50228DOD     C294504   9.045   0.311   0.267  0.1937 -0.1245 -0.0039
50228DOD     C394505   9.387   0.443   0.603 -0.0864 -0.3449 -0.1182
50229DOD     C194506  17.675   4.324  30.016  0.2295 -0.1290 -0.3265
50229DOD     C294507  18.132   4.483  30.049 -0.3289 -0.3226 -0.1403
50229DOD     C394508  18.454   4.805  29.882  0.2341  0.2577  0.1313
50230DOD     C194509  14.671  14.365  19.931 -0.1406  0.0781  0.2534
50230DOD     C294510  14.489  14.005  19.656 -0.0527  0.1029  0.0691
50230DOD     C394511  14.117  13.866  19.547  0.1897  0.0831 -0.0636
50231DOD     C194512   1.042  19.311  19.908 -0.1026 -0.0861  0.1039
50231DOD     C294513   0.919  19.393  19.433 -0.0307  0.2051  0.3793
50231DOD     C394514   0.826  19.188  19.019  0.1790  0.1699  0.4557
50232DOD     C194515   4.428   3.571   8.500 -0.0034  0.0804  0.2271
50232DOD     C294516   4.409   3.349   8.020  0.0822  0.2127  0.1524
50232DOD     C394517   4.276   3.461   7.587  0.3797 -0.1866  0.1444
50233DOD     C194518  13.589   0.478   0.494  0.3331  0.0155 -0.0139
50233DOD     C294519  13.425   0.843   0.262  0.4956 -0.0489  0.0789
50233DOD     C394520  13.399   1.271   0.275  0.0741  0.1556 -0.0525
50234DOD     C194521  19.913  12.779   2.120  0.2303  0.2307  0.0898
50234DOD     C294522  19.991  12.923   1.694 -0.0261  0.0057 -0.0645
50234DOD     C394523  19.919  13.226   1.349  0.2787 -0.2316 -0.1017
50235DOD     C194524  22.923   1.027  18.399 -0.0680  0.2400 -0.0383
50235DOD     C294525  22.448   0.916  18.334  0.1582 -0.1175 -0.0716
50235DOD     C394526  21.980   0.882  18.233  0.3244  0.0388 -0.1436
50236DOD     C194527  27.604   0.093  10.551  0.0527  0.3590  0.1707
50236DOD     C294528  27.909  30.194  10.218 -0.0606  0.1444 -0.0162
50236DOD     C394529  28.330  30.193  10.069 -0.1031 -0.0274  0.0860
50237DOD     C194530   5.930  28.982  29.772  0.1282 -0.3347 -0.0389
50237DOD     C294531   5.613  28.640  29.767 -0.0069 -0.1311  0.0956
50237DOD     C394532   5.450  28.222  29.596  0.1344  0.1753 -0.2769
50238DOD     C194533   9.330  24.486  25.926 -0.1801 -0.2199  0.0231
50238DOD     C294534   9.647  24.511  25.572  0.2346 -0.0651 -0.0549
50238DOD     C394535   9.647  24.599  25.131  0.0718 -0.0665  0.0247
50239DOD     C194536  19.136  26.930  12.543 -0.1307  0.2320  0.0747
50239DOD     C294537  19.259  27.188  12.131  0.1402 -0.0374 -0.1122
50239DOD     C394538  19.594  27.268  11.780 -0.1966 -0.3633 -0.0018
50240DOD     C194539  26.343  20.646  23.270 -0.2435  0.2591 -0.0291
50240DOD     C294540  25.954  20.857  23.471  0.0694 -0.1358 -0.2776
50240DOD     C394541  25.769  21.242  23.714 -0.2529 -0.1111  0.3485
50241DOD     C194542   3.096  25.983  26.531 -0.0442  0.0423 -0.1326
50241DOD     C294543   3.371  25.912  26.897 -0.4393 -0.2133  0.1438
50241DOD     C394544   3.290  25.495  27.149 -0.1741 -0.0264 -0.2675
50242DOD     C194545  20.866  22.898  24.462  0.1541 -0.0962  0.1120
50242DOD     C294546  20.602  23.283  24.699 -0.1889  0.3819  0.1398
50242DOD     C394547  20.214  23.577  24.924  0.0035 -0.1882 -0.2347
50243DOD     C194548   9.377  22.688  14.644  0.1599  0.3278  0.1287
50243DOD     C294549   9.173  23.059  14.873  0.1883 -0.0158  0.1179
50243DOD     C394550   9.279  23.532  14.957 -0.2303 -0.0691 -0.1194
50244DOD     C194551  10.898   4.469   7.961 -0.0467 -0.0499  0.2234
50244DOD     C294552  11.167   4.605   8.257 -0.0702  0.1708  0.0722
50244DOD     C394553  11.289   5.047   8.307 -0.0793  0.2567  0.0615
50245DOD     C194554  11.589  18.173   0.105 -0.3930 -0.0353  0.2633
50245DOD     C294555  11.194  18.279   0.420  0.3970 -0.0547  0.1973
50245DOD     C394556  11.046  18.328   0.881  0.2163 -0.1158  0.1391
50246DOD     C194557  18.497   4.612  20.612 -0.0702  0.0252 -0.0309
50246DOD     C294558  18.507   4.437  21.032 -0.0997 -0.1741  0.1982
50246DOD     C394559  18.358   4.304  21.427 -0.2290 -0.1742  0.0291
50247DOD     C194560   5.772  13.737   5.114 -0.2345  0.1085 -0.2118
50247DOD     C294561   5.642  14.138   5.361  0.1673  0.1081 -0.1642
50247DOD     C394562   5.428  14.481   5.500  0.1239  0.2085 -0.1493
50248DOD     C194563  26.702  13.100  18.929  0.0273  0.0155  0.0432
50248DOD     C294564  26.970  13.423  18.686 -0.3437 -0.0710  0.0889
50248DOD     C394565  27.161  13.768  18.377 -0.0570 -0.0721 -0.1872
50249DOD     C194566  26.243  26.609  24.635  0.0810 -0.0535 -0.2178
50249DOD     C294567  25.800  26.792  24.638  0.0992 -0.0368  0.1746
50249DOD     C394568  25.414  27.031  24.407  0.1129  0.1737  0.0186
50250DOD     C194569  14.892  17.534   5.999 -0.1770 -0.0220  0.0484
50250DOD     C294570  14.979  17.964   5.888 -0.0693 -0.2245 -0.1033
50250DOD     C394571  15.102  18.364   5.719 -0.2911  0.3039  0.0907
50251DOD     C194572   4.738  12.791  11.244 -0.3460  0.0509  0.0736
50251DOD     C294573   4.835  12.530  11.569  0.2273  0.0373 -0.2135
50251DOD     C394574   4.924  12.652  12.025 -0.1963  0.0865  0.1145
50252DOD     C194575  14.833   8.929  17.498  0.0514 -0.0263 -0.3086
50252DOD     C294576  15.200   9.163  17.647 -0.0452 -0.3650 -0.3550
50252DOD     C394577  15.601   9.429  17.760  0.0358  0.0587 -0.0201
50253DOD     C194578  15.819  24.929  16.737  0.2019 -0.1355 -0.0211
50253DOD     C294579  16.210  24.943  16.498  0.0890  0.0355  0.1677
50253DOD     C394580  16.555  25.125  16.454 -0.1583  0.2016  0.0616
50254DOD     C194581  10.831  19.470  12.931 -0.0332  0.0334 -0.0444
50254DOD     C294582  10.659  19.602  13.297 -0.1722  0.1275 -0.4020
50254DOD     C394583  10.258  19.717  13.515  0.0407 -0.1719  0.2965
50255DOD     C194584  15.512   2.948  27.099 -0.0535  0.2817 -0.0447
50255DOD     C294585  15.597   2.949  26.650  0.1003  0.1607  0.3711
50255DOD     C394586  16.013   3.062  26.462  0.0248  0.2043  0.0983
50256DOD     C194587  15.194   7.491   4.441  0.3167 -0.0959  0.1333
50256DOD     C294588  14.752   7.325   4.579 -0.0049  0.1789  0.2602
50256DOD     C394589  14.383   7.513   4.694  0.0758  0.1457  0.2953
50257DOD     C194590  28.981   7.056  20.223  0.1799  0.2022 -0.1533
50257DOD     C294591  29.077   7.253  20.577 -0.1209 -0.2423 -0.3059
50257DOD     C394592  29.061   7.371  21.041  0.1007  0.1751  0.1757
50258DOD     C194593  16.660  14.534   5.937 -0.2730  0.3637  0.2945
50258DOD     C294594  16.570  14.107   6.095  0.4280 -0.0579 -0.0787
50258DOD     C394595  16.808  13.706   6.247 -0.1341  0.3047  0.1733
50259DOD     C194596  15.511  13.241  23.504  0.3971  0.0910  0.0030
50259DOD     C294597  15.123  13.223  23.250  0.1416  0.2027  0.2852
50259DOD     C394598  14.776  13.077  23.121 -0.0664  0.1225  0.1300
50260DOD     C194599  26.641  21.610  18.472 -0.1620  0.0265 -0.0715
50260DOD     C294600  26.491  21.337  18.066  0.0375  0.2391  0.0834
50260DOD     C394601  26.213  21.232  17.741  0.0154  0.1485 -0.1581
50261DOD     C194602   0.392  29.656  22.607 -0.1995  0.3209  0.0585
50261DOD     C294603   0.207  29.459  22.965 -0.0765  0.0568 -0.2304
50261DOD     C394604  30.125  29.552  23.266 -0.2673 -0.1196 -0.0685
50262DOD     C194605  24.393   6.815  11.500 -0.0325 -0.1959 -0.0363
50262DOD     C294606  24.668   6.865  11.136 -0.0618  0.2846  0.0974
50262DOD     C394607  25.059   7.040  10.923  0.1132 -0.2005  0.3863
50263DOD     C194608   1.216  29.112   1.956  0.0726  0.0645 -0.0736
50263DOD     C294609   1.046  29.538   1.781 -0.2586  0.0937 -0.1516
50263DOD     C394610   0.907  29.898   1.518  0.4377  0.2491  0.2178
50264DOD     C194611  12.770   6.686  17.553 -0.1149  0.1093  0.2601
50264DOD     C294612  12.268   6.807  17.465 -0.0013  0.0195  0.0826
50264DOD     C394613  12.083   7.200  17.430  0.1298 -0.2071 -0.2824
50265DOD     C194614   0.063  21.123  10.257 -0.0382  0.4414 -0.0798
50265DOD     C294615  30.191  21.435   9.926 -0.1003  0.1833  0.1633
50265DOD     C394616  29.853  21.715   9.963  0.1750 -0.2549  0.0074
50266DOD     C194617  11.528   0.395   5.097 -0.0874 -0.1937  0.1518
50266DOD     C294618  11.206   0.057   5.263 -0.1983  0.0843 -0.2683
50266DOD     C394619  10.760  30.302   5.439 -0.2097  0.1108 -0.2465
50267DOD     C194620  29.986  12.387  23.530  0.0452 -0.0464  0.1027
50267DOD     C294621  30.292  12.222  23.826 -0.0464 -0.2474  0.1377
50267DOD     C394622   0.370  12.028  23.973 -0.0740 -0.1318 -0.1319
50268DOD     C194623   6.864   6.690  13.501  0.1539 -0.2977 -0.2197
50268DOD     C294624   7.136   6.612  13.879 -0.2589 -0.4502 -0.0050
50268DOD     C394625   7.210   6.518  14.358 -0.1020  0.1969 -0.0926
50269DOD     C194626  11.061  14.806  25.448 -0.3756 -0.0614  0.3906
50269DOD     C294627  10.919  14.508  25.835  0.0101  0.1053 -0.2467
50269DOD     C394628  10.511  14.369  26.138 -0.1879  0.0614 -0.3464
50270DOD     C194629  16.929  17.836   9.902 -0.3071 -0.0073  0.1667
50270DOD     C294630  16.498  17.983   9.832  0.3347  0.3137  0.2570
50270DOD     C394631  16.075  18.297   9.836 -0.2178 -0.0382 -0.2095
50271DOD     C194632   1.278   9.044   1.248 -0.0180 -0.2061 -0.2291
50271DOD     C294633   1.330   9.057   0.746 -0.0767 -0.2228 -0.0798
50271DOD     C394634   1.313   8.888   0.309 -0.2999  0.1192  0.0959
50272DOD     C194635   2.520  14.696  25.112 -0.0652 -0.3144  0.2662
50272DOD     C294636   2.645  14.839  25.514 -0.1654 -0.2230 -0.0611
50272DOD     C394637   3.002  14.971  25.732  0.4202 -0.0103 -0.1221
50273DOD     C194638  13.188  19.421   5.294  0.1816  0.2704  0.1237
50273DOD     C294639  12.782  19.284   5.477  0.2419  0.0810  0.1368
50273DOD     C394640  12.379  19.192   5.213  0.0068  0.0665 -0.3684
50274DOD     C194641  20.908  15.186  27.971 -0.0101 -0.0612 -0.0852
50274DOD     C294642  20.581  14.996  27.676  0.1084  0.0482  0.1115
50274DOD     C394643  20.282  15.238  27.383 -0.1622 -0.3774  0.0234
50275DOD     C194644  26.927  25.632   3.239 -0.2439  0.2938 -0.0013
50275DOD     C294645  26.842  25.939   3.507 -0.0194  0.2323 -0.2610
50275DOD     C394646  26.504  26.279   3.531  0.0584 -0.1193  0.2255
50276DOD     C194647  21.496  11.086  14.998 -0.1514  0.3151 -0.0650
50276DOD     C294648  21.928  11.286  15.043  0.1377  0.0322 -0.0888
50276DOD     C394649  22.103  11.656  15.292  0.1128 -0.1115  0.1461
50277DOD     C194650   7.282   0.537   8.608  0.1196 -0.1952  0.2585
50277DOD     C294651   7.146   0.252   8.984 -0.5755 -0.0758  0.0127
50277DOD     C394652   6.891   0.223   9.282  0.0759  0.0435 -0.1810
50278DOD     C194653   2.326  19.433   2.325  0.3178 -0.0983 -0.2016
50278DOD     C294654   2.645  19.204   2.029 -0.0972 -0.0143 -0.3068
50278DOD     C394655   2.769  18.891   1.723 -0.0737 -0.1295  0.2007
50279DOD     C194656  14.182   9.502   3.785  0.0181 -0.2835 -0.1409
50279DOD     C294657  13.814   9.664   3.545  0.3416 -0.0537 -0.2052
50279DOD     C394658  13.540   9.884   3.179  0.0247  0.2572  0.0086
50280DOD     C194659  22.252   0.352   8.377  0.1572  0.0063  0.3356
50280DOD     C294660  22.260   0.723   8.684  0.0311  0.3694  0.0338
50280DOD     C394661  22.035   0.787   9.076  0.0129 -0.1152 -0.1940
50281DOD     C194662  11.229   8.625  23.165 -0.0683  0.0460 -0.3318
50281DOD     C294663  10.928   8.521  22.856 -0.0032  0.1237 -0.1001
50281DOD     C394664  10.537   8.722  22.616 -0.0045  0.2658  0.1727
50282DOD     C194665  26.153  23.781  10.226  0.2219  0.1581 -0.1166
50282DOD     C294666  25.738  23.993  10.355 -0.1721 -0.3313  0.0808
50282DOD     C394667  25.383  24.279  10.201 -0.0998 -0.0919  0.3337
50283DOD     C194668   7.610  16.894   8.074  0.2369  0.2559  0.2191
50283DOD     C294669   8.013  16.753   8.316 -0.0724 -0.0895  0.2624
50283DOD     C394670   8.377  16.875   8.640 -0.3042 -0.0935 -0.0712
50284DOD     C194671  17.145  12.601  11.199  0.0680 -0.0440 -0.0743
50284DOD     C294672  16.693  12.651  11.113 -0.0761  0.2241  0.0129
50284DOD     C394673  16.458  13.028  11.052  0.1114  0.2037  0.1220
50285DOD     C194674  26.070   5.737  29.728 -0.1389  0.1445  0.3126
50285DOD     C294675  26.271   6.160  29.890  0.0638  0.2004 -0.1344
50285DOD     C394676  26.435   6.134  30.333 -0.0207  0.1901  0.1302
50286DOD     C194677   1.575  17.379  26.338 -0.2366  0.1108 -0.3181
50286DOD     C294678   1.120  17.265  26.271  0.0407 -0.1150  0.1891
50286DOD     C394679   0.710  17.362  26.473 -0.1526 -0.2413  0.1035
50287DOD     C194680  23.861  11.850  29.524 -0.0063 -0.2367 -0.4614
50287DOD     C294681  23.972  12.179  29.248  0.0344  0.2240  0.2103
50287DOD     C394682  24.358  12.432  29.329 -0.1250 -0.2020  0.0356
50288DOD     C194683   2.520  29.230  23.855 -0.2451  0.2304 -0.1099
50288DOD     C294684   2.260  29.004  24.172  0.1065 -0.1020 -0.1232
50288DOD     C394685   1.866  28.904  24.368 -0.2262  0.2922  0.0445
50289DOD     C194686  28.438   9.256   4.248 -0.0377  0.0252 -0.5996
50289DOD     C294687  28.107   9.589   4.142 -0.1108 -0.1460  0.2076
50289DOD     C394688  27.828   9.978   4.053 -0.0503 -0.1818  0.1961
50290DOD     C194689   6.230   3.561  25.822 -0.1509  0.0054 -0.1232
50290DOD     C294690   6.430   3.182  25.980  0.2077 -0.1079  0.0730
50290DOD     C394691   6.618   2.841  26.296  0.2189  0.0103  0.2036
50291DOD     C194692  16.565  18.598   2.529 -0.2563 -0.0733  0.0239
50291DOD     C294693  16.947  18.698   2.789 -0.0927  0.1935 -0.1803
50291DOD     C394694  17.130  18.957   3.129 -0.0234  0.0138  0.0787
50292DOD     C194695  20.797  11.679   7.123  0.3326  0.1788  0.2706
50292DOD     C294696  21.166  11.627   6.760 -0.0368 -0.0089  0.1217
50292DOD     C394697  21.474  11.296   6.680 -0.1781  0.1217 -0.0126
50293DOD     C194698   1.214  30.109  13.024 -0.1768  0.0125 -0.1536
50293DOD     C294699   1.505   0.172  13.211  0.0349  0.1402  0.1134
50293DOD     C394700   1.412   0.618  13.392  0.0949  0.1096  0.3003
50294DOD     C194701   7.898   3.941  23.924  0.1921 -0.1051  0.1861
50294DOD     C294702   8.317   4.016  24.069 -0.2990 -0.4017 -0.3013
50294DOD     C394703   8.737   3.860  24.138  0.1299 -0.3180 -0.3502
50295DOD     C194704  24.688  25.264  29.682 -0.1461  0.1378 -0.1545
50295DOD     C294705  24.904  25.343  29.232  0.1792  0.3010 -0.3167
50295DOD     C394706  24.924  24.979  28.891  0.0443  0.1303  0.2686
50296DOD     C194707   0.688  25.796  18.405 -0.0513 -0.1556 -0.0506
50296DOD     C294708   0.527  25.811  17.924 -0.0393 -0.0386  0.0192
50296DOD     C394709   0.704  25.801  17.502 -0.1456 -0.1115  0.4242
50297DOD     C194710   0.649   5.124   2.910  0.3218  0.4856 -0.0271
50297DOD     C294711   0.927   4.755   2.955  0.0436 -0.0990 -0.4230
50297DOD     C394712   1.359   4.707   3.063  0.1778 -0.1420 -0.0951
50298DOD     C194713  14.789   2.528  20.888 -0.0380 -0.0123  0.1880
50298DOD     C294714  14.601   2.211  21.174  0.3815  0.0720  0.1147
50298DOD     C394715  14.373   2.021  21.574  0.5247 -0.0356  0.0643
50299DOD     C194716  21.194  23.710  16.602  0.2372  0.0399 -0.2833
50299DOD     C294717  20.816  23.680  16.259  0.0124  0.1610  0.0879
50299DOD     C394718  20.608  23.946  15.944  0.3334  0.1721 -0.1741
50300DOD     C194719  13.579  19.626   5.651 -0.0675  0.0038 -0.2306
50300DOD     C294720  13.701  19.237   5.442  0.0858 -0.1953  0.0764
50300DOD     C394721  13.573  18.806   5.551  0.2558 -0.2658  0.0559
50301DOD     C194722  28.946  27.094  23.608  0.1766 -0.0004  0.2483
50301DOD     C294723  29.062  26.670  23.358  0.1741  0.0910 -0.0419
50301DOD     C394724  29.525  26.579  23.448 -0.1760  0.0157  0.0491
50302DOD     C194725   9.340   0.157  22.433 -0.4387  0.2320  0.1329
50302DOD     C294726   9.062  30.171  22.175 -0.3451 -0.0309 -0.0035
50302DOD     C394727   8.680  30.124  21.909  0.3564  0.2503  0.1710
50303DOD     C194728  12.293   4.824  24.998  0.0513  0.0080  0.1136
50303DOD     C294729  12.489   4.906  24.541  0.1952 -0.0637 -0.2649
50303DOD     C394730  12.824   5.049  24.240  0.2021 -0.2131  0.0011
50304DOD     C194731   2.848  26.665   8.439  0.3340 -0.1206  0.2511
50304DOD     C294732   2.472  26.718   8.583  0.0633 -0.0213  0.0138
50304DOD     C394733   1.959  26.819   8.641  0.3110  0.0030  0.2244
50305DOD     C194734  26.145   5.605  23.013 -0.0448 -0.1396  0.0370
50305DOD     C294735  26.600   5.551  23.219  0.1582  0.2215 -0.3665
50305DOD     C394736  26.995   5.342  23.236 -0.0616  0.0313  0.0601
50306DOD     C194737  21.674  18.211   2.310  0.1657 -0.0828  0.1376
50306DOD     C294738  21.651  18.112   1.799  0.0071 -0.1516 -0.0574
50306DOD     C394739  21.469  18.515   1.570  0.0632  0.0901  0.2392
50307DOD     C194740  21.933   4.760   5.891 -0.2457  0.1771  0.3195
50307DOD     C294741  22.081   4.526   6.293  0.2217 -0.4303  0.3190
50307DOD     C394742  22.396   4.446   6.624  0.1665  0.0110 -0.2241
50308DOD     C194743  23.781   5.045   5.622 -0.0377  0.1378 -0.0533
50308DOD     C294744  23.982   5.183   6.003  0.2851  0.3413 -0.0473
50308DOD     C394745  24.045   4.991   6.424 -0.1720 -0.1015  0.0894
50309DOD     C194746  13.978  12.911  26.908  0.0947  0.5652 -0.2483
50309DOD     C294747  14.083  12.462  27.018  0.1511 -0.1480  0.1794
50309DOD     C394748  14.513  12.218  26.968  0.2716  0.3503  0.4530
50310DOD     C194749  13.489   3.777   8.002  0.2720 -0.1687 -0.3282
50310DOD     C294750  13.858   3.574   7.815 -0.2579  0.0877  0.1814
50310DOD     C394751  14.240   3.767   7.821  0.1096 -0.2027 -0.1438
50311DOD     C194752  23.409   7.716  29.529 -0.1804 -0.0536 -0.0347
50311DOD     C294753  23.150   7.325  29.363 -0.0186  0.2100  0.1074
50311DOD     C394754  22.898   6.997  29.132  0.0466 -0.2341 -0.0975
50312DOD     C194755  18.270   6.057   7.783  0.0740 -0.4233  0.0092
50312DOD     C294756  18.604   6.099   7.484 -0.1250 -0.0863  0.1734
50312DOD     C394757  18.690   6.262   7.059 -0.0579 -0.0987 -0.0818
50313DOD     C194758  24.924  18.509  28.482 -0.0359  0.2943 -0.0306
50313DOD     C294759  24.801  18.196  28.792 -0.0789 -0.0326  0.0491
50313DOD     C394760  24.692  17.739  28.901  0.1406 -0.3430 -0.0187
50314DOD     C194761  16.908  12.803  16.006  0.1303 -0.1703  0.3742
50314DOD     C294762  16.898  13.146  16.250 -0.3036  0.0123  0.1865
50314DOD     C394763  16.757  13.552  16.225  0.1478 -0.0032 -0.0756
50315DOD     C194764  14.615  23.543  16.229  0.2461 -0.0447 -0.0664
50315DOD     C294765  14.453  23.387  15.766 -0.1910 -0.1066  0.2400
50315DOD     C394766  14.319  23.637  15.405 -0.2772 -0.0502 -0.0029
50316DOD     C194767  28.641   5.971  21.808 -0.0314 -0.3959  0.0501
50316DOD     C294768  28.927   6.351  21.834 -0.0206  0.0607 -0.0021
50316DOD     C394769  28.810   6.840  21.808 -0.0548 -0.3412 -0.1538
50317DOD     C194770   5.442   2.338  29.573  0.0268 -0.1847  0.1203
50317DOD     C294771   5.875   2.483  29.399 -0.3115  0.1578  0.3839
50317DOD     C394772   6.320   2.338  29.300 -0.0218 -0.5134 -0.2307
50318DOD     C194773  24.850  20.344  30.290 -0.1089  0.0675  0.1695
50318DOD     C294774  24.933  20.107   0.293  0.0607  0.1085 -0.1498
50318DOD     C394775  24.908  19.670   0.483 -0.1326 -0.1838  0.1672
50319DOD     C194776   3.767  22.584   0.958  0.0810  0.2635  0.1901
50319DOD     C294777   3.870  22.224   0.681 -0.2416  0.3766 -0.2171
50319DOD     C394778   4.230  21.950   0.677 -0.1881 -0.0363  0.2043
50320DOD     C194779  15.752  28.303  28.760  0.1924 -0.2144  0.0601
50320DOD     C294780  16.083  28.329  29.117 -0.2202  0.2528 -0.0474
50320DOD     C394781  16.544  28.500  29.132  0.0769  0.0717  0.0716
50321DOD     C194782  19.417  24.601   5.222 -0.1342 -0.0546  0.1906
50321DOD     C294783  19.182  24.562   5.643  0.1885 -0.2107  0.2067
50321DOD     C394784  19.041  24.406   6.025  0.5016  0.1379  0.0269
50322DOD     C194785   4.227  24.875   7.273 -0.0510  0.1266  0.1522
50322DOD     C294786   3.967  24.779   7.591 -0.1688  0.1397  0.0927
50322DOD     C394787   3.783  24.531   7.983  0.1517 -0.0825 -0.1474
50323DOD     C194788  21.793  26.994  15.226  0.0329 -0.1464  0.0913
50323DOD     C294789  22.036  26.689  14.921 -0.0600 -0.2329 -0.1352
50323DOD     C394790  22.325  26.639  14.560  0.3139 -0.0811 -0.1232
50324DOD     C194791  15.111  13.634   7.582  0.0224  0.0920 -0.1369
50324DOD     C294792  14.662  13.677   7.781 -0.0894 -0.0371 -0.0657
50324DOD     C394793  14.275  13.494   7.871  0.1085 -0.0753  0.1323
50325DOD     C194794   6.091  27.867  16.609 -0.0230 -0.0322 -0.2954
50325DOD     C294795   5.759  27.853  16.256 -0.1025 -0.1704 -0.2433
50325DOD     C394796   5.651  28.126  15.902 -0.2328 -0.1471 -0.0358
50326DOD     C194797  16.471  25.259  13.035  0.0426 -0.2106 -0.2528
50326DOD     C294798  16.581  24.984  13.459 -0.0395 -0.0139  0.0690
50326DOD     C394799  16.821  24.845  13.809  0.3238  0.2670 -0.2752
50327DOD     C194800  10.698   5.299  11.841 -0.0655  0.1840  0.2892
50327DOD     C294801  11.147   5.227  11.697 -0.2262  0.1194  0.1899
50327DOD     C394802  11.604   5.167  11.621 -0.2195 -0.0974 -0.1968
50328DOD     C194803  29.743  11.769  28.096 -0.0577 -0.0291 -0.1692
50328DOD     C294804  29.637  12.201  27.842  0.0057  0.3678  0.0574
50328DOD     C394805  29.907  12.600  27.915 -0.0883 -0.3022  0.2854
50329DOD     C194806  24.051  23.056  18.476 -0.2933  0.0716 -0.1211
50329DOD     C294807  23.595  22.890  18.438  0.1533  0.1411  0.0874
50329DOD     C394808  23.142  22.838  18.629  0.2553 -0.0409 -0.0286
50330DOD     C194809  24.445  27.528   2.499 -0.0514 -0.0420  0.5751
50330DOD     C294810  24.416  27.708   2.044 -0.2418 -0.0427  0.3137
50330DOD     C394811  24.684  27.914   1.751  0.1459  0.0121 -0.2238
50331DOD     C194812  16.965  10.153  10.436 -0.2622  0.4267 -0.4282
50331DOD     C294813  16.756  10.506  10.650  0.1183 -0.0260  0.2805
50331DOD     C394814  16.411  10.522  10.950 -0.0998  0.0603 -0.2105
50332DOD     C194815  16.885  14.925  15.946 -0.1054  0.0855  0.0620
50332DOD     C294816  16.611  15.230  16.214  0.0570 -0.0040 -0.2013
50332DOD     C394817  16.156  15.280  16.214  0.1931 -0.3749 -0.3231
50333DOD     C194818   8.586  27.612  12.944 -0.2713 -0.0050  0.0806
50333DOD     C294819   8.813  27.240  13.176  0.0023 -0.0659  0.1508
50333DOD     C394820   8.939  27.152  13.618  0.1573 -0.2444  0.0015
50334DOD     C194821   8.389   9.440  15.261  0.1764 -0.2507  0.0544
50334DOD     C294822   8.692   9.144  15.431  0.2393  0.0584 -0.1195
50334DOD     C394823   8.751   8.767  15.159 -0.6824 -0.0233 -0.0187
50335DOD     C194824  14.137  14.154  21.305 -0.1077  0.0143 -0.2222
50335DOD     C294825  14.400  13.764  21.468 -0.0301  0.1003 -0.0004
50335DOD     C394826  14.426  13.469  21.900 -0.0075  0.0648  0.1759
50336DOD     C194827  18.034  24.245   7.305 -0.1749 -0.0605  0.0381
50336DOD     C294828  18.300  24.584   7.430 -0.0890  0.0017 -0.1266
50336DOD     C394829  18.556  24.732   7.818 -0.1034 -0.1205 -0.3722
50337DOD     C194830  17.814  18.674   5.862 -0.1775 -0.2057  0.0114
50337DOD     C294831  17.700  18.456   5.466  0.1372  0.0851  0.1235
50337DOD     C394832  17.455  18.554   5.107 -0.0897 -0.1139  0.2302
50338DOD     C194833   8.111  29.150  24.681 -0.2695  0.0428 -0.2541
50338DOD     C294834   8.257  28.883  24.335  0.1418 -0.0034 -0.0353
50338DOD     C394835   8.593  28.784  24.008 -0.0375 -0.1225 -0.1905
50339DOD     C194836  23.095  24.903   6.979  0.2110  0.3059  0.1428
50339DOD     C294837  22.911  25.231   6.690  0.1221 -0.1258  0.1866
50339DOD     C394838  22.480  25.241   6.625  0.1661  0.1827 -0.2697
50340DOD     C194839   0.559  13.473  10.150  0.0095  0.0529 -0.1101
50340DOD     C294840   0.358  13.047  10.130 -0.1696 -0.2007 -0.2656
50340DOD     C394841   0.517  12.679  10.331  0.1014 -0.2470 -0.0064
50341DOD     C194842  18.753  27.488   0.623 -0.1548 -0.1559  0.0395
50341DOD     C294843  19.063  27.674   0.354 -0.2296  0.2043  0.0423
50341DOD     C394844  19.094  28.013   0.065  0.1769 -0.1358 -0.1104
50342DOD     C194845  23.354   5.855  24.372  0.0716  0.1721 -0.1799
50342DOD     C294846  23.474   5.546  24.015  0.3170 -0.1600  0.3533
50342DOD     C394847  23.334   5.205  23.706  0.0093  0.0534  0.1004
50343DOD     C194848   4.696  13.489   5.077  0.0853  0.1224  0.0275
50343DOD     C294849   4.789  13.673   4.644  0.2691 -0.0279  0.2433
50343DOD     C394850   5.155  13.725   4.330  0.0656 -0.0485  0.4254
50344DOD     C194851  11.980  24.199   4.713 -0.0292  0.1916 -0.2502
50344DOD     C294852  12.393  24.075   4.962 -0.0377  0.2124 -0.0426
50344DOD     C394853  12.864  24.197   5.008  0.0822 -0.5746  0.0985
50345DOD     C194854  13.845  23.178   8.151  0.1138  0.0725 -0.1537
50345DOD     C294855  13.639  22.985   8.479 -0.1158  0.3314 -0.0024
50345DOD     C394856  13.495  22.979   8.970  0.2572  0.3700 -0.1382
50346DOD     C194857   7.705   0.264  14.463 -0.4246  0.0879 -0.0703
50346DOD     C294858   7.517  30.091  14.442 -0.0983  0.0305 -0.0461
50346DOD     C394859   7.139  29.979  14.666 -0.2301 -0.1582 -0.1659
50347DOD     C194860   1.864  27.653  22.535  0.0147 -0.1398  0.1723
50347DOD     C294861   2.340  27.712  22.565 -0.1022  0.1063  0.3155
50347DOD     C394862   2.626  28.050  22.501  0.1246  0.4039  0.0103
50348DOD     C194863  12.927  17.800   7.552 -0.0067 -0.0368 -0.0112
50348DOD     C294864  13.324  17.930   7.314  0.1370 -0.1119  0.2094
50348DOD     C394865  13.805  17.936   7.289  0.0429 -0.2437  0.0240
50349DOD     C194866   6.681   4.691   9.300 -0.3164 -0.0257 -0.0729
50349DOD     C294867   6.742   4.900   8.879 -0.2673 -0.3315  0.3949
50349DOD     C394868   6.513   4.887   8.431  0.1005  0.3005 -0.3230
50350DOD     C194869   7.070  21.301   9.614 -0.2259  0.2262 -0.0270
50350DOD     C294870   7.100  20.825   9.598 -0.1315 -0.1846 -0.1460
50350DOD     C394871   6.984  20.415   9.406 -0.1165  0.1643 -0.1403
50351DOD     C194872  10.645  30.006   8.319 -0.2338 -0.0691  0.1126
50351DOD     C294873  10.522   0.108   8.533  0.2015 -0.0915 -0.2329
50351DOD     C394874  10.196   0.314   8.744  0.0705 -0.0578 -0.2501
50352DOD     C194875   6.479  21.490   3.956  0.0051 -0.3469 -0.2159
50352DOD     C294876   6.695  21.465   3.593  0.3610 -0.2965  0.1297
50352DOD     C394877   6.616  21.554   3.154 -0.0480  0.1815 -0.1255
50353DOD     C194878   3.006  13.468   4.098  0.0717  0.0299 -0.0908
50353DOD     C294879   2.636  13.619   3.908  0.4080 -0.0438 -0.0441
50353DOD     C394880   2.174  13.629   3.838 -0.2075 -0.0955  0.0273
50354DOD     C194881  21.218   0.173   0.255 -0.1688  0.0763  0.0074
50354DOD     C294882  21.398   0.550   0.506  0.1632 -0.0164 -0.2058
50354DOD     C394883  21.451   0.779   0.888 -0.2277 -0.0389 -0.1343
50355DOD     C194884  22.986  15.157  30.100  0.0105 -0.2208 -0.0416
50355DOD     C294885  23.172  15.516  29.827  0.0012 -0.1371  0.0275
50355DOD     C394886  23.156  15.924  29.737  0.3034 -0.0805 -0.2219
50356DOD     C194887  11.281   1.397  19.393 -0.3242  0.1016  0.1717
50356DOD     C294888  11.042   1.027  19.214 -0.1585 -0.0200 -0.2667
50356DOD     C394889  10.651   0.781  19.133 -0.0433  0.4711  0.4345
50357DOD     C194890  25.534  18.291  25.210  0.0629  0.2162  0.1523
50357DOD     C294891  25.727  18.040  25.491  0.0065  0.1316  0.2434
50357DOD     C394892  25.921  17.997  25.921  0.0286  0.0238 -0.0492
50358DOD     C194893  17.469  21.998   8.696  0.2505 -0.1017 -0.1217
50358DOD     C294894  17.509  21.517   8.681  0.2861  0.2091 -0.0252
50358DOD     C394895  17.860  21.209   8.554 -0.1326  0.4680  0.2083
50359DOD     C194896  12.680  21.161  23.606 -0.0229 -0.0393 -0.1285
50359DOD     C294897  12.527  21.077  24.021  0.0039  0.0235 -0.0295
50359DOD     C394898  12.648  21.021  24.445 -0.0505 -0.1388 -0.1327
50360DOD     C194899  21.048  21.266   9.331 -0.1483  0.0485  0.0459
50360DOD     C294900  21.332  21.600   9.538  0.1363  0.0494  0.3898
50360DOD     C394901  21.258  21.877   9.883  0.0929 -0.0003 -0.0596
50361DOD     C194902  29.325   6.097  12.609 -0.1085 -0.0471 -0.0867
50361DOD     C294903  28.918   6.406  12.529  0.0393  0.0051  0.0391
50361DOD     C394904  28.680   6.763  12.343 -0.2363  0.1394 -0.0710
50362DOD     C194905  22.794  15.159   0.864  0.1868  0.0975  0.0228
50362DOD     C294906  22.547  14.957   0.456 -0.2716  0.2732  0.1588
50362DOD     C394907  22.172  14.668   0.432 -0.0404  0.2089  0.0307
50363DOD     C194908   3.959   9.791  14.601 -0.1098  0.2018 -0.1160
50363DOD     C294909   4.214   9.509  14.809 -0.0762  0.2418 -0.3140
50363DOD     C394910   4.226   9.178  15.115 -0.0364  0.1172  0.2262
50364DOD     C194911   3.643  11.176  21.424  0.1511 -0.1424  0.0494
50364DOD     C294912   3.984  11.447  21.278 -0.1859  0.0985 -0.3336
50364DOD     C394913   4.076  11.914  21.156 -0.3302  0.1239 -0.0571
50365DOD     C194914   7.060  16.842   8.132  0.2744  0.3219 -0.0126
50365DOD     C294915   7.123  16.391   8.131  0.0907  0.0523  0.0188
50365DOD     C394916   6.969  15.948   8.288 -0.1728 -0.0401  0.0128
50366DOD     C194917  18.265  27.398  25.630  0.0608 -0.1431  0.0035
50366DOD     C294918  18.195  27.337  26.061  0.1901 -0.0616  0.4679
50366DOD     C394919  17.807  27.407  26.246 -0.3532 -0.2457 -0.0643
50367DOD     C194920  19.746  13.485  17.667  0.2898 -0.0890  0.1927
50367DOD     C294921  19.640  13.947  17.705  0.2470  0.0084  0.1167
50367DOD     C394922  19.725  14.304  17.971  0.1345  0.2365 -0.1680
50368DOD     C194923   0.466   9.476  20.136  0.0104 -0.5706 -0.0963
50368DOD     C294924   0.708   9.822  19.933  0.0781 -0.1553  0.0897
50368DOD     C394925   0.730  10.174  19.552 -0.1072  0.3244  0.0539
50369DOD     C194926   4.704  26.976   0.159  0.3417  0.2486 -0.2012
50369DOD     C294927   5.126  27.153   0.169 -0.0524  0.4623  0.1145
50369DOD     C394928   5.556  27.342  30.222  0.1994  0.3464  0.2552
50370DOD     C194929  26.925  19.736  22.445 -0.1779 -0.0982  0.2060
50370DOD     C294930  26.786  19.433  22.120  0.0704 -0.0190  0.1276
50370DOD     C394931  26.501  19.502  21.757 -0.1899 -0.0605 -0.3577
50371DOD     C194932  24.938  14.794  25.829 -0.2132  0.2255 -0.0438
50371DOD     C294933  25.272  14.519  26.084 -0.0389 -0.1297  0.2303
50371DOD     C394934  25.344  14.127  26.355 -0.1504 -0.1319 -0.3185
50372DOD     C194935  11.250  17.971   7.059  0.1425 -0.1375  0.0283
50372DOD     C294936  10.977  18.157   6.748 -0.1868 -0.1000  0.0823
50372DOD     C394937  10.602  18.316   6.605  0.1521 -0.2124 -0.2849
50373DOD     C194938  30.131   9.418   1.425 -0.0778  0.4541 -0.1198
50373DOD     C294939  30.206   9.819   1.195  0.0899  0.0141 -0.0866
50373DOD     C394940   0.201  10.038   1.050  0.0717 -0.0726  0.1383
50374DOD     C194941   7.792  20.367  24.639  0.0603  0.0956  0.2241
50374DOD     C294942   7.351  20.144  24.709 -0.1482  0.2461  0.0647
50374DOD     C394943   6.904  20.217  24.699  0.0514  0.1021 -0.0464
50375DOD     C194944  13.443  25.786  18.235  0.0690  0.1645 -0.2929
50375DOD     C294945  13.390  26.055  17.829 -0.0961 -0.2392  0.1188
50375DOD     C394946  13.815  26.048  17.575 -0.2876  0.0037  0.0136
50376DOD     C194947  12.916  25.394  24.194  0.1165  0.0207 -0.1583
50376DOD     C294948  12.500  25.145  24.278 -0.2385  0.2031  0.0600
50376DOD     C394949  12.381  24.679  24.262  0.0208 -0.0600 -0.0772
50377DOD     C194950   7.251  21.569  15.805 -0.0479 -0.0263 -0.0348
50377DOD     C294951   6.866  21.267  15.783  0.0767 -0.0839  0.1332
50377DOD     C394952   6.458  21.105  16.002 -0.0528 -0.0211  0.2506
50378DOD     C194953   9.331  29.824   9.781 -0.1696  0.1399  0.1259
50378DOD     C294954   9.250  30.234  10.017  0.0490 -0.2844  0.0215
50378DOD     C394955   9.346   0.319  10.235 -0.1482  0.0547  0.0494
50379DOD     C194956  11.501  24.028  29.913  0.0111 -0.0267  0.1399
50379DOD     C294957  11.241  24.383  29.711 -0.1829  0.0696  0.0604
50379DOD     C394958  10.872  24.643  29.874  0.0889 -0.0768 -0.0638
50380DOD     C194959  11.848   6.324  17.074  0.0583  0.2015 -0.0551
50380DOD     C294960  11.503   6.396  17.310  0.1038  0.1101  0.0614
50380DOD     C394961  11.403   6.573  17.776 -0.3419  0.1747  0.0947
50381DOD     C194962  10.832   7.049  27.106  0.6306 -0.3208 -0.2629
50381DOD     C294963  10.609   7.060  27.531 -0.1167 -0.0705  0.0780
50381DOD     C394964  10.179   6.809  27.520 -0.1185  0.2926  0.2092
50382DOD     C194965  24.277   9.858   5.223  0.2907  0.0341 -0.3993
50382DOD     C294966  24.481   9.704   4.811 -0.2011 -0.3399  0.1528
50382DOD     C394967  24.556   9.851   4.355 -0.0465  0.1556 -0.1553
50383DOD     C194968  28.223  30.038  13.042 -0.1094 -0.0030 -0.0303
50383DOD     C294969  28.429  29.582  12.920  0.0877  0.2573  0.3327
50383DOD     C394970  28.371  29.343  12.502 -0.0599 -0.0369  0.0527
50384DOD     C194971   0.165  11.249   1.697 -0.0159  0.0486 -0.2199
50384DOD     C294972   0.400  11.020   1.342  0.2678  0.0616  0.1401
50384DOD     C394973   0.563  10.651   1.133 -0.0222 -0.1872 -0.1328
50385DOD     C194974  25.310  10.190  18.870  0.0827 -0.0528  0.0468
50385DOD     C294975  24.914   9.915  18.958  0.0208 -0.2102 -0.0047
50385DOD     C394976  24.553   9.820  19.299 -0.1461 -0.0932 -0.1645
50386DOD     C194977  29.616   3.056  16.302  0.1601  0.0983  0.1635
50386DOD     C294978  29.868   2.778  16.031 -0.1081  0.2696 -0.1659
50386DOD     C394979  30.079   2.445  15.830  0.1823  0.1657 -0.0836
50387DOD     C194980  27.865   1.927  22.112  0.0208 -0.0772  0.0010
50387DOD     C294981  27.663   2.039  22.524 -0.1327 -0.0590 -0.0330
50387DOD     C394982  27.747   1.846  22.924 -0.0169  0.0109  0.2302
50388DOD     C194983  20.066  21.608   3.709 -0.2579 -0.1744 -0.2246
50388DOD     C294984  20.165  21.897   3.392 -0.5334 -0.0573  0.0536
50388DOD     C394985  20.288  22.320   3.270  0.1052  0.1882 -0.0800
50389DOD     C194986   2.997  30.221  21.442  0.2198  0.4357 -0.0011
50389DOD     C294987   3.023  29.905  21.787 -0.1508  0.1759 -0.1805
50389DOD     C394988   2.877  29.555  21.960 -0.1434 -0.2011 -0.2893
50390DOD     C194989  18.513   4.931  28.098 -0.3430 -0.1561  0.1746
50390DOD     C294990  18.334   5.148  27.706 -0.0639 -0.1196  0.2683
50390DOD     C394991  18.263   5.040  27.222 -0.1766 -0.1004  0.1151
50391DOD     C194992   4.371  21.475  24.239  0.2864  0.0229  0.1624
50391DOD     C294993   4.656  21.081  24.270 -0.0917  0.0819  0.2291
50391DOD     C394994   4.691  20.900  23.801 -0.0963  0.2921 -0.1034
50392DOD     C194995   0.452  14.894   5.886  0.0632 -0.1562  0.1004
50392DOD     C294996   0.031  14.674   5.872  0.0518  0.0362 -0.2086
50392DOD     C394997  30.121  14.300   5.863 -0.2937  0.0925 -0.2192
50393DOD     C194998  29.157   4.384  14.187 -0.4491  0.0339  0.0548
50393DOD     C294999  29.427   4.083  14.386  0.0824  0.0523  0.3486
50393DOD     C395000  29.599   3.845  14.806  0.1522 -0.1377 -0.1035
50394DOD     C195001  29.848   1.831  20.203  0.1469  0.1581 -0.4185
50394DOD     C295002  29.571   1.902  19.838  0.0781 -0.1147 -0.2382
50394DOD     C395003  29.222   1.640  19.670  0.2467 -0.0949 -0.0040
50395DOD     C195004  25.151   4.815  28.400  0.1964  0.2079 -0.2056
50395DOD     C295005  24.986   4.607  28.787  0.0172 -0.0322 -0.1415
50395DOD     C395006  24.761   4.596  29.256 -0.1860  0.0697  0.1928
50396DOD     C195007  16.391   3.381  17.086  0.0780 -0.0751  0.1524
50396DOD     C295008  15.970   3.558  17.117 -0.1349 -0.1311 -0.0977
50396DOD     C395009  15.645   3.635  16.806  0.0616  0.0346 -0.0298
50397DOD     C195010  17.028  27.169  21.085  0.1731 -0.0556 -0.2300
50397DOD     C295011  17.294  27.350  21.432  0.2800 -0.2000  0.1468
50397DOD     C395012  17.548  27.184  21.720 -0.1112 -0.0787 -0.0011
50398DOD     C195013   5.426  22.378  29.463  0.3342 -0.2222  0.0371
50398DOD     C295014   5.236  22.004  29.157 -0.0184 -0.4052 -0.0159
50398DOD     C395015   4.924  21.774  28.882 -0.0429  0.1962  0.1185
50399DOD     C195016  24.900  27.784  14.417 -0.3021 -0.1261  0.1617
50399DOD     C295017  25.178  27.425  14.599  0.0206 -0.0613  0.4983
50399DOD     C395018  25.433  27.420  14.957  0.1264  0.2658  0.1690
50400DOD     C195019   0.519   1.621   4.171  0.0434  0.2343  0.2588
50400DOD     C295020   0.572   1.397   3.765 -0.2681 -0.1891 -0.2548
50400DOD     C395021   0.530   1.335   3.326  0.0081  0.0189 -0.0371
50401DOD     C195022  26.809   4.531   3.160 -0.7301  0.0060 -0.0218
50401DOD     C295023  27.087   4.270   2.882  0.1059  0.0590 -0.2619
50401DOD     C395024  27.139   4.185   2.427  0.2572  0.1944 -0.1302
50402DOD     C195025  25.216   3.120  27.667 -0.2752 -0.0491 -0.1884
50402DOD     C295026  25.046   3.400  27.293 -0.0039 -0.0968  0.0339
50402DOD     C395027  24.638   3.236  27.135 -0.0629  0.1343 -0.0347
50403DOD     C195028   5.260   2.370   1.200 -0.0406 -0.2752  0.1975
50403DOD     C295029   5.323   2.234   0.765 -0.1078  0.0370 -0.0573
50403DOD     C395030   5.591   2.232   0.381  0.1049 -0.3528  0.2331
50404DOD     C195031   5.638  24.400  10.884  0.5463 -0.0489 -0.2322
50404DOD     C295032   5.506  23.976  10.934 -0.2761  0.0727  0.1408
50404DOD     C395033   5.128  23.857  11.193 -0.0029  0.0581  0.1756
50405DOD     C195034  27.321   0.298  26.034  0.2373 -0.0662  0.2282
50405DOD     C295035  27.567   0.675  26.198  0.1545 -0.1046  0.1815
50405DOD     C395036  27.443   1.008  26.525 -0.3360 -0.1776 -0.0833
50406DOD     C195037  28.682  23.243  17.754 -0.0599  0.0175 -0.1016
50406DOD     C295038  28.332  23.585  17.657 -0.1450  0.1956 -0.0543
50406DOD     C395039  28.151  23.701  17.210 -0.0954 -0.0174  0.0964
50407DOD     C195040   8.281  22.507  15.446  0.2264  0.1463 -0.0093
50407DOD     C295041   8.466  22.140  15.748 -0.0274 -0.0150 -0.0213
50407DOD     C395042   8.722  21.943  16.124 -0.3124 -0.0880  0.0358
50408DOD     C195043   5.297   4.167  24.940 -0.0010  0.1692  0.2466
50408DOD     C295044   5.509   3.854  24.662 -0.2467  0.3279  0.3113
50408DOD     C395045   5.543   3.381  24.534  0.0370 -0.3132 -0.1205
50409DOD     C195046  12.639  24.919   6.687 -0.5319 -0.0819 -0.2028
50409DOD     C295047  12.744  24.737   7.100 -0.2268  0.0923 -0.1231
50409DOD     C395048  12.687  24.275   7.204 -0.2708  0.1671  0.0454
50410DOD     C195049  25.519  10.040   0.998 -0.1670  0.1856 -0.0223
50410DOD     C295050  25.453  10.064   0.532 -0.3779 -0.0998 -0.1837
50410DOD     C395051  25.539  10.215   0.090 -0.2128  0.1230 -0.0368
50411DOD     C195052   1.901   5.403  28.425 -0.0351 -0.1363 -0.0622
50411DOD     C295053   2.006   5.508  27.968  0.3103 -0.1904  0.3031
50411DOD     C395054   2.318   5.775  27.734  0.2328 -0.0880 -0.2901
50412DOD     C195055  14.207   3.539   2.462 -0.0675 -0.0141 -0.1069
50412DOD     C295056  14.078   3.896   2.146  0.1724  0.3183 -0.0862
50412DOD     C395057  13.686   4.062   2.132 -0.1319  0.3011 -0.0655
50413DOD     C195058  24.771   9.509  22.968  0.2446  0.3379  0.1335
50413DOD     C295059  24.598   9.165  23.251 -0.0536  0.0858 -0.0696
50413DOD     C395060  24.411   8.818  23.498  0.2389  0.0907 -0.0026
50414DOD     C195061   6.708  16.241   5.301 -0.4756 -0.2446 -0.0841
50414DOD     C295062   6.952  15.993   5.627  0.1562  0.2548 -0.2668
50414DOD     C395063   7.364  15.800   5.705  0.0737  0.2883  0.4483
50415DOD     C195064   5.658  24.903   0.844  0.1450  0.0736  0.3501
50415DOD     C295065   5.229  24.957   0.924  0.2494 -0.4023 -0.0032
50415DOD     C395066   5.006  25.339   0.904  0.2323 -0.0721  0.3546
50416DOD     C195067  13.368  18.135  16.992 -0.0854  0.4768  0.1518
50416DOD     C295068  12.982  18.090  17.260  0.0339  0.0029 -0.1647
50416DOD     C395069  12.775  18.052  17.683 -0.0677 -0.0830 -0.1041
50417DOD     C195070   6.271  14.843   4.224  0.0115 -0.0900  0.0386
50417DOD     C295071   6.129  15.306   4.397  0.0502 -0.0875  0.1909
50417DOD     C395072   5.985  15.606   4.748  0.0019  0.1948 -0.0129
50418DOD     C195073  22.390  23.375  17.335  0.1216  0.2897  0.0410
50418DOD     C295074  22.714  23.052  17.265 -0.2176 -0.0312 -0.0622
50418DOD     C395075  22.878  22.940  16.879 -0.0259 -0.1119 -0.0630
50419DOD     C195076  11.290   1.040   2.156 -0.1981  0.0699 -0.0164
50419DOD     C295077  11.661   1.022   2.474 -0.1118  0.1325 -0.0720
50419DOD     C395078  12.040   1.125   2.600  0.4159  0.2081  0.1985
50420DOD     C195079   9.492   9.929  10.870 -0.3030 -0.0009  0.3107
50420DOD     C295080   9.159   9.939  10.532 -0.1351 -0.1343 -0.0690
50420DOD     C395081   9.071   9.753  10.098 -0.2233 -0.1070  0.1253
50421DOD     C195082  27.960   4.566   8.318 -0.1612  0.0546  0.3129
50421DOD     C295083  28.137   4.416   7.872  0.1992 -0.1720 -0.0005
50421DOD     C395084  28.371   4.541   7.508  0.0290 -0.3887  0.0329
50422DOD     C195085   9.757   6.605  16.403  0.1584 -0.1345  0.0965
50422DOD     C295086   9.456   6.390  16.731 -0.0119  0.0989 -0.2723
50422DOD     C395087   9.264   6.092  17.057 -0.1420 -0.0011 -0.1841
50423DOD     C195088  27.270  22.406   9.520 -0.0640  0.0085  0.0541
50423DOD     C295089  27.586  22.089   9.421 -0.2176  0.0707  0.3443
50423DOD     C395090  27.879  21.810   9.202  0.4027  0.2814  0.0906
50424DOD     C195091  11.871  24.082  28.736  0.1112 -0.0957 -0.1297
50424DOD     C295092  12.248  23.886  28.517  0.0148  0.0210  0.0023
50424DOD     C395093  12.638  23.616  28.655 -0.1925  0.1910  0.1567
50425DOD     C195094   9.616  26.074  25.862  0.1319 -0.1909 -0.1298
50425DOD     C295095   9.915  26.063  26.206 -0.0811 -0.0457  0.0411
50425DOD     C395096  10.349  25.891  26.448  0.0827 -0.1036  0.2022
50426DOD     C195097  16.272   9.901  16.246  0.1734 -0.2060 -0.2268
50426DOD     C295098  15.938   9.861  16.540 -0.0730 -0.0641  0.4660
50426DOD     C395099  15.750   9.881  16.936  0.0057 -0.1682  0.1610
50427DOD     C195100  19.859  23.452   5.360  0.3049  0.0295  0.0590
50427DOD     C295101  19.447  23.197   5.243  0.0655  0.0882 -0.2236
50427DOD     C395102  19.080  23.305   4.980 -0.2163  0.2073  0.2623
50428DOD     C195103   2.726   5.323  16.396  0.1154  0.4245 -0.0198
50428DOD     C295104   2.743   5.392  16.859 -0.0195  0.1490 -0.2424
50428DOD     C395105   2.618   5.589  17.318  0.0362 -0.0841  0.0826
50429DOD     C195106  26.135  16.495  17.813  0.3987  0.0149  0.1381
50429DOD     C295107  26.199  16.115  17.623  0.3021  0.0601  0.0835
50429DOD     C395108  26.557  15.874  17.722  0.1078  0.1237  0.1049
50430DOD     C195109  25.619   5.277  23.132  0.0590  0.0904  0.1955
50430DOD     C295110  25.997   5.018  23.112  0.1570 -0.0020 -0.1059
50430DOD     C395111  26.077   4.647  22.835  0.3168  0.1951 -0.2748
50431DOD     C195112  13.474  10.123   3.996 -0.1190  0.1654  0.2940
50431DOD     C295113  13.627  10.241   4.397  0.1298  0.0082 -0.2071
50431DOD     C395114  13.771  10.594   4.678  0.1487 -0.3008 -0.0262
50432DOD     C195115   2.592  26.828  15.976  0.1136 -0.2280  0.0469
50432DOD     C295116   2.841  26.494  15.760  0.1220 -0.1186  0.0707
50432DOD     C395117   2.956  26.078  15.891 -0.2918 -0.1865 -0.1369
50433DOD     C195118   5.540  21.410  13.705 -0.0068  0.0518  0.2500
50433DOD     C295119   5.361  20.974  13.863  0.1998  0.0013 -0.0788
50433DOD     C395120   5.087  20.804  14.254  0.1687  0.0876  0.1866
50434DOD     C195121  24.286  19.526  13.286 -0.0456  0.2014 -0.0821
50434DOD     C295122  24.362  19.412  13.753  0.0233  0.2657 -0.0353
50434DOD     C395123  24.205  19.342  14.138 -0.1631  0.0906  0.0122
50435DOD     C195124  21.420  14.453  22.323 -0.0432  0.1724 -0.0772
50435DOD     C295125  21.257  14.136  22.007  0.0777  0.2271  0.2135
50435DOD     C395126  21.075  13.807  21.713 -0.0273 -0.1746  0.0882
50436DOD     C195127  17.590  16.328  21.530  0.1878  0.0218 -0.0357
50436DOD     C295128  17.186  16.346  21.238  0.1381 -0.2320  0.0921
50436DOD     C395129  16.759  16.256  21.056  0.3337  0.0045  0.2250
50437DOD     C195130  27.450   2.180  10.605 -0.0799 -0.0065 -0.0180
50437DOD     C295131  27.380   2.635  10.490  0.3157  0.1711  0.3198
50437DOD     C395132  27.255   3.111  10.486 -0.1502 -0.2073 -0.1605
50438DOD     C195133  13.141  27.186   9.883 -0.2030  0.0631  0.1736
50438DOD     C295134  13.089  27.219   9.429  0.1275  0.2155  0.0759
50438DOD     C395135  13.450  27.230   9.106  0.0691 -0.0019  0.0326
50439DOD     C195136   6.806  27.330  29.310 -0.0935  0.0582 -0.1077
50439DOD     C295137   6.466  27.406  29.535  0.1740  0.1143  0.1699
50439DOD     C395138   6.260  27.012  29.709 -0.0314  0.1716  0.0857
50440DOD     C195139   3.319   5.861  14.509  0.0443 -0.1686 -0.0946
50440DOD     C295140   3.382   5.432  14.692 -0.1724  0.0664  0.0204
50440DOD     C395141   3.225   5.092  15.051  0.0771 -0.0828 -0.0413
50441DOD     C195142   4.622   9.172  14.238 -0.2356  0.0444  0.0688
50441DOD     C295143   4.147   9.170  14.458  0.0603  0.1387  0.2679
50441DOD     C395144   3.848   9.153  14.814  0.3112 -0.2133 -0.0771
50442DOD     C195145   2.726  25.006   7.163 -0.3368 -0.3719  0.0005
50442DOD     C295146   2.814  25.321   6.855  0.1538  0.0856 -0.0531
50442DOD     C395147   3.024  25.634   6.526 -0.2809 -0.0227  0.1580
50443DOD     C195148  15.095   1.844   7.295  0.1332  0.0325 -0.1915
50443DOD     C295149  15.503   2.009   7.409  0.0038 -0.0535  0.0094
50443DOD     C395150  15.794   2.324   7.387  0.0348  0.4354 -0.2609
50444DOD     C195151  24.840  16.022   3.262 -0.0581 -0.0279 -0.2190
50444DOD     C295152  25.275  15.873   3.285  0.0014 -0.3021  0.1654
50444DOD     C395153  25.736  15.763   3.312 -0.0524  0.0168  0.4478
50445DOD     C195154   1.365  24.615  16.592 -0.0215 -0.0867  0.0175
50445DOD     C295155   1.690  24.357  16.720  0.1254 -0.1206 -0.0654
50445DOD     C395156   2.105  24.345  16.605  0.0661 -0.1273  0.3036
50446DOD     C195157  12.588  22.274   7.365  0.0783 -0.2051  0.2609
50446DOD     C295158  12.868  22.420   7.689 -0.0963  0.0387 -0.1518
50446DOD     C395159  13.254  22.201   7.913 -0.0456 -0.0743 -0.2947
50447DOD     C195160  20.771  10.204  24.276  0.4172 -0.0210  0.1049
50447DOD     C295161  20.391   9.991  24.477 -0.2162 -0.1065 -0.0802
50447DOD     C395162  20.168  10.044  24.872 -0.2388 -0.2258  0.1341
50448DOD     C195163   1.155   3.820   1.557  0.0252 -0.0086  0.0067
50448DOD     C295164   1.392   4.128   1.869  0.0317 -0.0402  0.1567
50448DOD     C395165   1.732   4.304   2.067 -0.3181  0.0539 -0.3574
50449DOD     C195166  27.723  27.559  12.122  0.2001 -0.5378  0.0261
50449DOD     C295167  27.542  28.006  12.075 -0.0924 -0.0280  0.2051
50449DOD     C395168  27.342  28.309  11.783  0.2568  0.0641 -0.2225
50450DOD     C195169  20.005  17.601  29.075 -0.3391  0.0392  0.0778
50450DOD     C295170  20.161  17.196  28.901 -0.1343 -0.0311  0.1464
50450DOD     C395171  20.577  16.962  28.823  0.0698  0.1312 -0.0095
50451DOD     C195172   3.393  15.372  22.684 -0.2552 -0.0854 -0.1266
50451DOD     C295173   3.383  15.362  22.247 -0.1691  0.2395 -0.2390
50451DOD     C395174   3.053  15.150  22.021  0.0235  0.0006  0.1096
50452DOD     C195175   0.388  18.736   0.628 -0.1094 -0.0668  0.2083
50452DOD     C295176   0.760  18.506   0.832 -0.1634  0.1502  0.0469
50452DOD     C395177   0.794  18.136   0.563  0.0332  0.0869  0.0119
50453DOD     C195178  16.384   9.295  21.954 -0.2045  0.0171 -0.1820
50453DOD     C295179  16.838   9.104  22.019  0.0980 -0.0593  0.0007
50453DOD     C395180  17.280   8.890  22.076  0.2876 -0.2714 -0.0176
50454DOD     C195181  16.463  30.172  19.891  0.0711  0.0641  0.1639
50454DOD     C295182  16.857  29.934  19.896 -0.1102  0.1334 -0.1301
50454DOD     C395183  17.315  29.936  20.001 -0.0514 -0.1499 -0.0800
50455DOD     C195184  14.151  12.841  29.463 -0.1095  0.0299 -0.1040
50455DOD     C295185  14.088  12.409  29.550 -0.0368  0.2757  0.1077
50455DOD     C395186  13.710  12.134  29.572 -0.2796  0.0667  0.1258
50456DOD     C195187  22.611   8.119   0.644  0.1157 -0.0290  0.0574
50456DOD     C295188  22.853   7.735   0.847  0.0166  0.1171 -0.0561
50456DOD     C395189  23.178   7.476   0.609  0.0366 -0.0216 -0.2979
50457DOD     C195190  29.186   1.996  28.094  0.4429 -0.0634 -0.0052
50457DOD     C295191  29.562   1.924  28.326 -0.1186 -0.1102 -0.0946
50457DOD     C395192  30.033   1.792  28.250  0.1260  0.1016 -0.0041
50458DOD     C195193   9.446  18.756  24.866  0.2755  0.1323 -0.0705
50458DOD     C295194   9.432  18.406  24.563  0.0468  0.0259 -0.0059
50458DOD     C395195   9.687  18.014  24.583 -0.0776  0.1091  0.2936
50459DOD     C195196  12.933  21.904   4.470 -0.0386  0.0108  0.1898
50459DOD     C295197  13.058  21.743   4.856  0.1828  0.3306 -0.1046
50459DOD     C395198  13.125  21.356   5.088  0.0282  0.0093  0.0207
50460DOD     C195199  18.590  23.902  22.980  0.0092 -0.4303  0.0072
50460DOD     C295200  18.985  23.731  23.180  0.1633  0.2580  0.2374
50460DOD     C395201  19.314  23.692  23.430 -0.2907  0.2558 -0.0707
50461DOD     C195202   3.647  20.861  29.557  0.0617 -0.0759 -0.1863
50461DOD     C295203   3.995  21.049  29.847 -0.2753  0.3630  0.1439
50461DOD     C395204   4.510  21.129  29.875 -0.1313  0.0405 -0.0147
50462DOD     C195205   5.030  22.378  25.256  0.1422 -0.1375 -0.0120
50462DOD     C295206   5.383  22.298  25.026 -0.0524  0.1986 -0.0321
50462DOD     C395207   5.786  22.123  24.855 -0.1480 -0.0565 -0.0458
50463DOD     C195208   6.402   4.729  24.236 -0.4209  0.2778 -0.1683
50463DOD     C295209   6.514   4.351  24.020 -0.1256 -0.1131 -0.0348
50463DOD     C395210   6.430   4.313  23.590  0.1572 -0.1923  0.1636
50464DOD     C195211  26.155  10.141  10.488  0.3251 -0.5881 -0.0029
50464DOD     C295212  25.754  10.266  10.277  0.1063 -0.0881 -0.3400
50464DOD     C395213  25.402  10.556  10.240 -0.0953  0.1560 -0.1358
50465DOD     C195214   6.804   6.109  27.065 -0.3176  0.2180  0.0494
50465DOD     C295215   6.856   6.490  27.233 -0.0257  0.3119 -0.1589
50465DOD     C395216   6.572   6.852  27.359  0.2622  0.0061  0.0455
50466DOD     C195217   7.196  18.473  29.833 -0.0200 -0.3181  0.0266
50466DOD     C295218   7.229  18.926  29.784 -0.0633  0.3360  0.0394
50466DOD     C395219   7.136  19.366  29.818  0.2856  0.0144  0.0395
50467DOD     C195220  20.306  24.453  28.455 -0.1489  0.0507 -0.0282
50467DOD     C295221  20.066  24.629  28.773 -0.2698  0.1389  0.1397
50467DOD     C395222  19.799  25.001  28.954 -0.3007 -0.0875 -0.0296
50468DOD     C195223   2.616   9.025   2.353 -0.1916  0.1767  0.4687
50468DOD     C295224   2.771   9.452   2.178 -0.1986 -0.1565  0.0591
50468DOD     C395225   2.797   9.829   1.916 -0.0114 -0.2008 -0.1123
50469DOD     C195226  24.830  14.970   1.950  0.3194  0.0787 -0.3602
50469DOD     C295227  24.392  15.186   2.060 -0.3429 -0.2379 -0.4857
50469DOD     C395228  24.137  15.596   2.071  0.1495  0.1547  0.0140
50470DOD     C195229   2.644  11.784   9.683  0.0983 -0.0888 -0.1111
50470DOD     C295230   2.202  12.009   9.500 -0.0321  0.2518  0.0526
50470DOD     C395231   1.805  12.071   9.270  0.1789  0.0054 -0.1515
50471DOD     C195232   7.291  10.046  20.584 -0.1076 -0.0090 -0.1491
50471DOD     C295233   6.893   9.882  20.677 -0.0160  0.0031  0.0632
50471DOD     C395234   6.471   9.842  20.485 -0.2599 -0.1239  0.0177
50472DOD     C195235   4.592  24.923  15.806  0.1602  0.2370 -0.2375
50472DOD     C295236   4.451  25.367  15.645  0.0389  0.0228  0.0804
50472DOD     C395237   4.002  25.559  15.674 -0.1927  0.1012  0.1254
50473DOD     C195238  29.585   3.117  25.596  0.0697 -0.1617  0.2019
50473DOD     C295239  29.153   3.055  25.714  0.0554 -0.2099  0.4402
50473DOD     C395240  28.888   2.652  25.650 -0.0725 -0.2490  0.1516
50474DOD     C195241  23.953  25.741  17.261  0.1736 -0.0220 -0.1293
50474DOD     C295242  24.017  25.345  17.154  0.0861 -0.1545 -0.0522
50474DOD     C395243  23.975  24.867  17.213  0.1415 -0.1737 -0.0623
50475DOD     C195244  19.338  20.447   6.350  0.3930  0.0508  0.0217
50475DOD     C295245  19.635  20.345   5.934  0.0956  0.2211  0.3391
50475DOD     C395246  19.515  20.357   5.545  0.1220  0.0402  0.1603
50476DOD     C195247  11.434  15.654  13.882  0.0465  0.0306 -0.3364
50476DOD     C295248  11.622  15.284  13.689  0.3152 -0.0140  0.3107
50476DOD     C395249  11.765  14.919  13.411  0.1832  0.0445 -0.2904
50477DOD     C195250  18.434   2.919   7.395  0.3529  0.0340  0.0073
50477DOD     C295251  18.005   2.781   7.177  0.0376  0.0827 -0.1770
50477DOD     C395252  17.737   2.430   7.375  0.0369 -0.0940 -0.0878
50478DOD     C195253   4.953   5.470   6.171 -0.1195  0.0692  0.1979
50478DOD     C295254   5.124   5.498   6.578  0.0205  0.0872 -0.0438
50478DOD     C395255   5.309   5.581   6.987  0.1760 -0.3357  0.1223
50479DOD     C195256  24.517   1.394  13.312  0.0572 -0.0471  0.0438
50479DOD     C295257  24.609   1.843  13.454  0.0773  0.1362 -0.0128
50479DOD     C395258  24.765   1.953  13.883 -0.0078 -0.1117  0.2075
50480DOD     C195259  21.187  19.041  10.609  0.3730 -0.0258 -0.1446
50480DOD     C295260  21.080  19.122  11.100  0.0606  0.0088  0.1001
50480DOD     C395261  21.057  19.021  11.578 -0.0244  0.1227 -0.2808
50481DOD     C195262  26.668  24.661   9.629 -0.0838  0.1555 -0.1937
50481DOD     C295263  26.822  24.252   9.796 -0.0157  0.0790 -0.2027
50481DOD     C395264  26.698  24.193  10.206  0.0230 -0.2370  0.2639
50482DOD     C195265  19.464  14.871  25.255  0.2353  0.0889  0.3203
50482DOD     C295266  19.467  15.326  25.259  0.2376  0.0419  0.1048
50482DOD     C395267  19.135  15.607  25.117 -0.0067  0.0686 -0.1958
50483DOD     C195268   5.500  25.235  10.470  0.1353  0.2018  0.1207
50483DOD     C295269   5.318  24.924  10.109 -0.0308 -0.0841 -0.2208
50483DOD     C395270   5.596  24.589   9.858 -0.0871  0.2963 -0.1896
50484DOD     C195271   6.854  16.250  21.874 -0.1094  0.1040  0.0803
50484DOD     C295272   6.694  16.012  21.495  0.0756 -0.1450 -0.0733
50484DOD     C395273   6.766  15.748  21.025  0.1913 -0.2015  0.2062
50485DOD     C195274   1.635   8.516  21.676  0.4448  0.4835 -0.2164
50485DOD     C295275   1.760   8.736  21.304  0.0975 -0.2864 -0.0557
50485DOD     C395276   1.698   9.003  20.890  0.3237  0.1028 -0.3847
50486DOD     C195277  12.192   8.860   7.027  0.0074  0.3208 -0.0697
50486DOD     C295278  12.469   9.043   7.421 -0.0769  0.1126  0.1513
50486DOD     C395279  12.740   9.095   7.797 -0.2936  0.1406  0.0295
50487DOD     C195280  28.970  10.198  20.667  0.0600 -0.2903 -0.1384
50487DOD     C295281  28.778  10.451  20.277  0.0375 -0.1808  0.2057
50487DOD     C395282  28.478  10.720  20.225  0.0093 -0.1518  0.1205
50488DOD     C195283  28.589  13.920  29.834  0.0655 -0.3521 -0.2018
50488DOD     C295284  28.984  14.144  29.767  0.1999 -0.0803 -0.1485
50488DOD     C395285  29.368  14.059  29.727  0.0365 -0.0696  0.0080
50489DOD     C195286  15.150   2.976   5.849 -0.0906  0.0286  0.0038
50489DOD     C295287  15.021   2.738   5.433 -0.0398 -0.2811 -0.2906
50489DOD     C395288  15.022   2.238   5.419  0.0576 -0.3252 -0.0239
50490DOD     C195289  14.873   8.099   4.873  0.1951 -0.0526  0.1405
50490DOD     C295290  14.411   8.063   4.781  0.2170 -0.2781 -0.4974
50490DOD     C395291  14.049   7.810   4.833 -0.0247  0.0076  0.0737
50491DOD     C195292  19.413  25.018   3.888 -0.0910  0.0333  0.0930
50491DOD     C295293  19.293  25.304   4.227 -0.0626 -0.3014  0.1442
50491DOD     C395294  18.930  25.519   4.535  0.3235 -0.5451  0.0690
50492DOD     C195295  26.296   4.166  22.741  0.0044 -0.0676  0.2957
50492DOD     C295296  26.123   3.805  22.508  0.0338  0.0373  0.1098
50492DOD     C395297  25.884   3.396  22.602  0.2274 -0.0412 -0.0881
50493DOD     C195298  -0.006  11.378   0.002 -0.1248 -0.0152  0.0842
50493DOD     C295299  30.041  11.695  30.190 -0.0388  0.2163 -0.1194
50493DOD     C395300  29.867  12.062  29.991  0.3994  0.2433  0.2266
50494DOD     C195301   5.383  27.153  23.821 -0.3210  0.2672  0.0472
50494DOD     C295302   5.543  26.669  23.808 -0.2582  0.0755 -0.1750
50494DOD     C395303   5.769  26.295  23.609  0.0186 -0.0311 -0.0477
50495DOD     C195304   4.604   3.924   7.442 -0.3520  0.0019 -0.0702
50495DOD     C295305   5.065   3.947   7.444  0.1773 -0.1236 -0.0028
50495DOD     C395306   5.277   4.087   7.883  0.0294  0.0237 -0.1550
50496DOD     C195307   7.951   3.825  18.598 -0.1646 -0.2427 -0.0493
50496DOD     C295308   8.359   3.828  18.807  0.1178  0.0110  0.1735
50496DOD     C395309   8.765   3.992  18.660  0.0266 -0.1467 -0.1145
50497DOD     C195310   9.172  21.659  14.815 -0.1069  0.0203  0.0118
50497DOD     C295311   9.011  21.258  14.657 -0.0292 -0.0533 -0.2621
50497DOD     C395312   9.239  20.905  14.581 -0.0783  0.0465  0.0334
50498DOD     C195313  23.756  12.801  27.359 -0.0366  0.0312 -0.0250
50498DOD     C295314  23.299  12.815  27.501  0.0698 -0.1006  0.0430
50498DOD     C395315  23.060  13.102  27.773  0.3974 -0.0429 -0.2881
50499DOD     C195316  15.118  15.539  10.038 -0.1694 -0.1739 -0.0044
50499DOD     C295317  14.921  15.227   9.808 -0.0357 -0.1305  0.1816
50499DOD     C395318  14.604  14.908   9.684  0.0438  0.2062 -0.1451
50500DOD     C195319   1.328   6.715   3.178  0.1243  0.2004 -0.2023
50500DOD     C295320   1.237   6.336   2.870  0.0523 -0.0742 -0.1094
50500DOD     C395321   1.180   5.892   3.041  0.3420 -0.1575 -0.0373
50501DOD     C195322   1.285  13.765  14.991  0.1834 -0.0255  0.0490
50501DOD     C295323   1.100  13.931  14.631 -0.0180 -0.0020 -0.0341
50501DOD     C395324   0.933  13.805  14.208  0.0443  0.0527 -0.0558
50502DOD     C195325  20.315   7.968  11.668 -0.0351 -0.1527  0.0549
50502DOD     C295326  19.915   7.960  11.456  0.1695 -0.2807 -0.0429
50502DOD     C395327  19.742   7.804  11.019  0.0406 -0.0614 -0.3172
50503DOD     C195328  11.008  23.714   5.536 -0.0996 -0.0014 -0.1159
50503DOD     C295329  10.765  23.763   5.136  0.0771 -0.1360 -0.2008
50503DOD     C395330  10.678  23.697   4.700  0.0817  0.1784  0.1997
50504DOD     C195331  21.347  18.752  27.616 -0.1071  0.1012 -0.3810
50504DOD     C295332  21.255  19.053  27.303 -0.0898  0.3776 -0.1379
50504DOD     C395333  21.168  19.353  27.022  0.2367 -0.3063  0.1260
50505DOD     C195334   1.291  16.625  17.996 -0.3449  0.3435  0.4713
50505DOD     C295335   1.076  16.772  17.606  0.1010  0.0520 -0.1997
50505DOD     C395336   1.164  17.117  17.379 -0.1387 -0.2566  0.1180
50506DOD     C195337   7.876   7.883  18.592  0.2097 -0.0559 -0.0546
50506DOD     C295338   7.605   8.006  18.200  0.2397 -0.3185 -0.0114
50506DOD     C395339   7.436   8.052  17.768  0.3873  0.2379  0.1773
50507DOD     C195340   2.851  21.925  23.178 -0.0253  0.0349  0.0452
50507DOD     C295341   2.469  22.129  23.130 -0.0296 -0.0605 -0.0137
50507DOD     C395342   2.355  22.553  23.272  0.4342 -0.0478 -0.1172
50508DOD     C195343  28.838  13.681  19.488 -0.2502  0.1818 -0.3149
50508DOD     C295344  29.152  13.305  19.553 -0.3360 -0.0225  0.0296
50508DOD     C395345  29.370  13.015  19.783  0.1212  0.1552  0.5120
50509DOD     C195346  18.390  23.132  17.137  0.0569  0.0683  0.2693
50509DOD     C295347  18.597  23.451  16.897  0.0567  0.0268  0.0241
50509DOD     C395348  18.564  23.628  16.442  0.0307  0.1651 -0.0021
50510DOD     C195349  26.652   5.345   1.499 -0.0443  0.0938 -0.0123
50510DOD     C295350  26.550   5.858   1.588  0.0077 -0.2001 -0.2330
50510DOD     C395351  26.622   6.307   1.690  0.0542 -0.1986 -0.0127
50511DOD     C195352  24.196  24.077   0.113 -0.3665  0.2463  0.2857
50511DOD     C295353  24.492  23.847  30.122  0.1460 -0.0166 -0.0511
50511DOD     C395354  24.410  23.476  29.877 -0.0312 -0.0242  0.0820
50512DOD     C195355   1.309  15.807   4.405 -0.0611  0.0609 -0.1934
50512DOD     C295356   1.454  15.376   4.245  0.2290 -0.0551  0.0658
50512DOD     C395357   1.551  14.928   4.107  0.0350 -0.2648 -0.2675
50513DOD     C195358  27.120   0.177  29.098  0.2379  0.1928 -0.0556
50513DOD     C295359  26.994   0.433  28.713  0.1875  0.1238 -0.1734
50513DOD     C395360  26.923   0.511  28.283 -0.0640  0.3810 -0.3831
50514DOD     C195361   9.231  19.611   5.996  0.0877 -0.0844  0.0744
50514DOD     C295362   8.836  19.491   5.781 -0.3241  0.1408  0.0251
50514DOD     C395363   8.397  19.621   5.820  0.1201  0.1637 -0.0770
50515DOD     C195364  25.981   8.786  14.380  0.0431  0.2586  0.3394
50515DOD     C295365  25.609   9.019  14.593 -0.2374 -0.2015 -0.1494
50515DOD     C395366  25.427   9.159  15.027 -0.2564 -0.2312 -0.2631
50516DOD     C195367  18.756   3.852   4.044 -0.0620 -0.1248 -0.1699
50516DOD     C295368  18.675   4.266   4.212 -0.1801 -0.0362 -0.0404
50516DOD     C395369  18.967   4.495   4.498 -0.0208  0.1253  0.0972
50517DOD     C195370  14.771   6.549   2.202 -0.2394  0.0690 -0.0687
50517DOD     C295371  14.524   6.969   2.143  0.1748  0.0197 -0.1774
50517DOD     C395372  14.313   7.373   2.268  0.3247  0.0763  0.2445
50518DOD     C195373  27.411   5.821   7.473 -0.0642  0.3215  0.2103
50518DOD     C295374  27.816   6.107   7.404  0.3296 -0.0162  0.2894
50518DOD     C395375  28.262   5.968   7.368  0.3658  0.0333 -0.1094
50519DOD     C195376  11.611  12.976  23.852 -0.2759  0.1481 -0.0408
50519DOD     C295377  11.277  12.911  23.506  0.0029  0.0619  0.0394
50519DOD     C395378  10.832  13.089  23.420 -0.0090 -0.1229  0.0201
50520DOD     C195379  12.145  24.654  17.149 -0.2249 -0.1017 -0.2523
50520DOD     C295380  12.115  24.222  17.110  0.2225  0.0107 -0.2849
50520DOD     C395381  12.332  23.850  17.070  0.4216  0.0435 -0.2665
50521DOD     C195382   8.152   7.015  18.023  0.2843  0.1619  0.1524
50521DOD     C295383   7.990   7.238  17.656  0.0829 -0.2931  0.0031
50521DOD     C395384   8.128   7.386  17.267  0.1712  0.1512  0.0389
50522DOD     C195385  24.966  28.863  17.576 -0.1639  0.0885  0.1546
50522DOD     C295386  25.122  28.429  17.492 -0.1702 -0.0449 -0.1970
50522DOD     C395387  25.278  28.014  17.618 -0.2525  0.2594 -0.2306
50523DOD     C195388  16.069   3.917   2.463  0.0806  0.2572 -0.1508
50523DOD     C295389  16.028   3.681   2.073  0.2963 -0.3758  0.0737
50523DOD     C395390  16.289   3.802   1.719 -0.1111  0.1671 -0.3230
50524DOD     C195391  17.172  24.681   8.060  0.2674  0.1751  0.0958
50524DOD     C295392  17.570  24.394   8.042  0.1527  0.0420  0.1938
50524DOD     C395393  17.808  24.162   8.371 -0.1537 -0.0849 -0.0144
50525DOD     C195394  15.065  27.461  18.644 -0.1136  0.1058  0.0154
50525DOD     C295395  15.083  27.213  18.995 -0.1315  0.3526 -0.1584
50525DOD     C395396  14.961  27.086  19.452  0.0950  0.0840  0.1799
50526DOD     C195397  26.397   0.519  24.138 -0.1972  0.1327 -0.1991
50526DOD     C295398  26.013   0.719  24.078 -0.0350  0.0343 -0.1668
50526DOD     C395399  25.638   0.977  24.053 -0.2782 -0.3687 -0.1005
50527DOD     C195400  26.697   0.454   6.041  0.0209 -0.2095 -0.3839
50527DOD     C295401  26.726   0.645   5.590 -0.1699 -0.0969 -0.0739
50527DOD     C395402  26.754   1.033   5.371 -0.1170 -0.1320 -0.0460
50528DOD     C195403  21.938  10.001   8.278  0.0346 -0.0974  0.2239
50528DOD     C295404  22.033  10.248   8.590 -0.2481 -0.3316  0.0053
50528DOD     C395405  21.950  10.707   8.705 -0.1459 -0.0558  0.4317
50529DOD     C195406  13.339   3.806   2.318 -0.0165  0.2059 -0.1506
50529DOD     C295407  13.112   3.658   1.940 -0.0913 -0.1430 -0.3571
50529DOD     C395408  12.715   3.445   1.817  0.2208  0.3324 -0.0528
50530DOD     C195409   9.876   2.231  14.323 -0.0651 -0.0107 -0.2113
50530DOD     C295410  10.256   2.010  14.058 -0.0605  0.0134  0.1226
50530DOD     C395411  10.672   1.995  14.230  0.0491 -0.0599  0.2421
50531DOD     C195412  25.546  28.079   9.385  0.0824 -0.0291  0.0503
50531DOD     C295413  25.435  28.389   9.684 -0.3427  0.0235  0.2594
50531DOD     C395414  25.697  28.678   9.955 -0.0861  0.2671 -0.3065
50532DOD     C195415  17.674   1.935  29.075 -0.0451 -0.0027 -0.3388
50532DOD     C295416  17.891   2.316  29.253 -0.1460  0.0684  0.1005
50532DOD     C395417  18.252   2.569  29.458  0.1955 -0.2223 -0.0149
50533DOD     C195418   3.391  27.916  15.295 -0.3931 -0.3212  0.3058
50533DOD     C295419   3.004  28.078  15.373 -0.0696  0.3158  0.2847
50533DOD     C395420   2.529  28.193  15.358  0.3268  0.1211  0.2764
50534DOD     C195421  16.668  29.036   5.061 -0.0831 -0.1241 -0.0742
50534DOD     C295422  16.882  29.020   4.668  0.0874 -0.0900  0.1209
50534DOD     C395423  17.143  29.085   4.324  0.0007 -0.1379 -0.0775
50535DOD     C195424  24.236  26.519  17.982  0.2501 -0.4368 -0.0999
50535DOD     C295425  23.872  26.489  18.279  0.3739 -0.0659 -0.1278
50535DOD     C395426  23.564  26.387  18.602 -0.2011  0.2166  0.1759
50536DOD     C195427  12.424  17.934  10.166 -0.2772 -0.0076  0.1348
50536DOD     C295428  12.362  17.861  10.643 -0.0135 -0.0959 -0.0075
50536DOD     C395429  12.266  17.462  10.878 -0.3105  0.1509 -0.1064
50537DOD     C195430  15.351   2.670  14.552 -0.3155 -0.0705 -0.3485
50537DOD     C295431  15.131   2.542  14.894  0.0491 -0.0572 -0.0235
50537DOD     C395432  14.769   2.367  15.150 -0.1516 -0.3885 -0.0348
50538DOD     C195433  25.326   3.412   5.581  0.1479  0.1606  0.0351
50538DOD     C295434  24.944   3.594   5.764 -0.2759  0.0189 -0.0955
50538DOD     C395435  24.502   3.519   5.763  0.2708 -0.2500 -0.1145
50539DOD     C195436   5.883   0.743  26.942  0.3571 -0.2238  0.1510
50539DOD     C295437   5.675   0.738  27.404 -0.0559  0.0768  0.2708
50539DOD     C395438   5.631   0.493  27.810  0.1495  0.0618 -0.0557
50540DOD     C195439   2.136  11.303  17.244 -0.2102 -0.0647  0.1056
50540DOD     C295440   2.419  11.309  17.626 -0.0109 -0.1761  0.0219
50540DOD     C395441   2.762  11.398  17.931 -0.0618  0.2726 -0.1215
50541DOD     C195442   2.021  23.085  25.202 -0.2638 -0.3008  0.1497
50541DOD     C295443   1.660  23.436  25.241 -0.0513  0.0525 -0.3146
50541DOD     C395444   1.447  23.832  25.231 -0.1042 -0.0822  0.5204
50542DOD     C195445  13.400  24.560  13.889 -0.3356  0.1887 -0.1952
50542DOD     C295446  13.790  24.711  14.130 -0.1540 -0.1783 -0.0265
50542DOD     C395447  14.128  25.008  14.331 -0.0108  0.0220  0.0509
50543DOD     C195448   9.659  29.151  17.269 -0.0030  0.1754 -0.1547
50543DOD     C295449  10.097  29.072  17.448 -0.2776  0.0628 -0.1014
50543DOD     C395450  10.313  28.644  17.351  0.1793 -0.1449 -0.2658
50544DOD     C195451  26.635   1.757  22.774 -0.0476 -0.3637 -0.2195
50544DOD     C295452  26.511   1.898  23.238  0.0975 -0.0159  0.1072
50544DOD     C395453  26.253   2.024  23.608  0.2335  0.0335  0.0438
50545DOD     C195454  26.372  27.906  29.891 -0.0178  0.0605  0.2747
50545DOD     C295455  26.761  27.722  29.647 -0.0827 -0.0464 -0.2671
50545DOD     C395456  27.007  27.371  29.764 -0.1223  0.0315  0.0203
50546DOD     C195457  18.542  15.906   7.324  0.0977 -0.4021 -0.0866
50546DOD     C295458  18.249  15.674   7.144  0.1682  0.0878 -0.1051
50546DOD     C395459  18.371  15.382   6.733 -0.0407 -0.0055  0.2200
50547DOD     C195460  25.041  28.062  19.821 -0.1427  0.1670  0.0114
50547DOD     C295461  25.462  28.012  20.047  0.2626  0.0517 -0.0352
50547DOD     C395462  25.845  28.070  20.300  0.0292  0.2661 -0.0502
50548DOD     C195463   9.159  30.002  19.790  0.0218  0.1056  0.0228
50548DOD     C295464   9.602  30.203  19.638  0.0482 -0.0962  0.0058
50548DOD     C395465   9.809   0.298  19.524  0.1347 -0.2744  0.0955
50549DOD     C195466   8.656  22.531  20.474 -0.0194 -0.0069 -0.0548
50549DOD     C295467   8.995  22.447  20.780 -0.1347  0.1789 -0.0249
50549DOD     C395468   9.414  22.527  20.900  0.0373  0.4526 -0.0026
50550DOD     C195469   2.920  17.058  13.050  0.0701  0.0511 -0.2073
50550DOD     C295470   3.135  16.973  13.441 -0.1473 -0.1715 -0.0912
50550DOD     C395471   3.523  17.116  13.679 -0.1588  0.1201  0.0848
50551DOD     C195472   9.161  13.086   5.241  0.1008 -0.0440 -0.3605
50551DOD     C295473   9.326  12.642   5.340  0.1793  0.1895 -0.1092
50551DOD     C395474   9.454  12.201   5.196 -0.0282  0.1939 -0.1720
50552DOD     C195475  23.586   1.561  16.433  0.1214 -0.2036  0.2079
50552DOD     C295476  23.655   1.128  16.311 -0.1317 -0.0032  0.2625
50552DOD     C395477  23.839   0.732  16.125 -0.0659  0.1451 -0.1498
50553DOD     C195478  23.765   5.174  23.348 -0.1783 -0.0387 -0.0799
50553DOD     C295479  23.708   5.535  23.587  0.0531  0.0899 -0.0549
50553DOD     C395480  23.930   5.915  23.834 -0.0340 -0.1057  0.0065
50554DOD     C195481   1.615  29.965  23.999 -0.2598  0.1953 -0.1057
50554DOD     C295482   1.954  29.977  23.663  0.2105 -0.1325  0.0032
50554DOD     C395483   1.899  30.115  23.239 -0.7038 -0.1791  0.1547
50555DOD     C195484  17.225   8.378  23.660  0.2093  0.2467  0.1584
50555DOD     C295485  17.655   8.304  23.686  0.0252 -0.0749 -0.4195
50555DOD     C395486  18.005   8.179  23.397  0.2226 -0.0244  0.1168
50556DOD     C195487   0.781   2.785   9.909 -0.1503  0.0954  0.0440
50556DOD     C295488   0.385   3.062   9.727  0.0658  0.0974  0.0513
50556DOD     C395489   0.109   3.268   9.423  0.0832  0.0643 -0.0110
50557DOD     C195490  14.704   1.715   5.147  0.0351 -0.0882 -0.0994
50557DOD     C295491  14.404   1.343   5.178  0.2129  0.0839  0.3109
50557DOD     C395492  14.177   0.977   5.353 -0.2455  0.0090  0.1476
50558DOD     C195493  10.647  23.385  17.168  0.1633 -0.1944 -0.0262
50558DOD     C295494  10.470  23.287  16.727  0.1730  0.0412  0.3217
50558DOD     C395495  10.445  23.246  16.234 -0.0656  0.0068  0.2246
50559DOD     C195496   1.435   6.146   9.851  0.3482 -0.0990  0.0149
50559DOD     C295497   1.290   6.569   9.920 -0.0386  0.0870  0.1327
50559DOD     C395498   1.088   6.979   9.854  0.1353 -0.3901 -0.0945
50560DOD     C195499   3.521   7.359  26.595 -0.0071 -0.2739 -0.0148
50560DOD     C295500   3.981   7.196  26.480 -0.0716 -0.0598  0.2987
50560DOD     C395501   4.433   7.072  26.571  0.2557 -0.0242  0.2443
50561DOD     C195502  18.860   6.840  22.148 -0.1209 -0.1226 -0.0693
50561DOD     C295503  18.672   7.176  21.938 -0.1256  0.0655  0.1157
50561DOD     C395504  18.515   7.588  21.961 -0.3000 -0.0519  0.1941
50562DOD     C195505  15.952  25.050  12.320  0.1361 -0.0809  0.2108
50562DOD     C295506  16.025  24.669  12.029 -0.2366  0.3354 -0.0478
50562DOD     C395507  16.020  24.237  11.865  0.1120 -0.1985 -0.1788
50563DOD     C195508   2.560   2.149  23.053  0.1712 -0.1165 -0.1665
50563DOD     C295509   2.312   1.973  23.401  0.1860  0.0978  0.2071
50563DOD     C395510   2.089   1.543  23.321 -0.0381  0.0126 -0.1394
50564DOD     C195511  30.312  22.442  22.577 -0.0337 -0.3597  0.0515
50564DOD     C295512   0.285  22.623  22.259 -0.2801  0.2784 -0.0361
50564DOD     C395513   0.263  23.048  22.067 -0.1584 -0.0600  0.2872
50565DOD     C195514   4.620  17.491  24.887  0.0325 -0.1670 -0.0891
50565DOD     C295515   4.291  17.332  25.155 -0.0328 -0.0785  0.0151
50565DOD     C395516   3.944  17.058  25.095  0.0684 -0.0264 -0.4357
50566DOD     C195517  24.284  23.635  18.589 -0.1862 -0.0281  0.0881
50566DOD     C295518  24.064  23.951  18.312  0.2177 -0.0908  0.3613
50566DOD     C395519  23.769  24.336  18.347  0.0492  0.1240 -0.0510
50567DOD     C195520  17.127  16.990  28.624 -0.2370  0.3615  0.2124
50567DOD     C295521  17.594  17.051  28.729 -0.0937  0.1611 -0.0001
50567DOD     C395522  17.996  16.971  28.478  0.1064  0.3766  0.0463
50568DOD     C195523   8.134  26.608  20.913 -0.1790 -0.1265 -0.1967
50568DOD     C295524   8.183  27.049  20.930 -0.2616  0.3938  0.2471
50568DOD     C395525   8.519  27.359  21.002 -0.1599  0.1383  0.2694
50569DOD     C195526  29.925  18.624  14.695  0.0528 -0.2063 -0.0290
50569DOD     C295527  29.716  18.573  15.077  0.1230 -0.2313  0.0981
50569DOD     C395528  29.494  18.802  15.396 -0.2196  0.1382 -0.0416
50570DOD     C195529  13.947   7.640  15.790  0.0803  0.0234 -0.1241
50570DOD     C295530  13.572   7.672  15.482  0.1898  0.2053  0.0309
50570DOD     C395531  13.086   7.658  15.480  0.0541 -0.0862  0.3563
50571DOD     C195532   5.963   0.784  17.791 -0.1218 -0.0732 -0.0741
50571DOD     C295533   6.302   0.969  18.067 -0.2581 -0.1564  0.2014
50571DOD     C395534   6.563   1.124  18.431 -0.0521  0.0442  0.0798
50572DOD     C195535  26.287  25.888  26.474 -0.1007  0.1885  0.0183
50572DOD     C295536  26.704  26.082  26.362  0.0544 -0.2305 -0.1110
50572DOD     C395537  27.155  26.101  26.358  0.1167  0.0042 -0.0980
50573DOD     C195538  25.745   2.368   6.260 -0.0184  0.0370 -0.1031
50573DOD     C295539  25.300   2.415   6.098 -0.1811 -0.2220  0.1490
50573DOD     C395540  24.875   2.507   5.967 -0.0793 -0.2531  0.0442
50574DOD     C195541  19.255   1.831  13.149 -0.1253 -0.0013 -0.3093
50574DOD     C295542  19.683   1.881  13.357  0.1419 -0.0978 -0.1888
50574DOD     C395543  20.096   1.639  13.278  0.0458 -0.1552 -0.0749
50575DOD     C195544  27.990   3.880  26.561 -0.0172  0.0002  0.3109
50575DOD     C295545  28.406   3.869  26.559  0.2705 -0.0728  0.1903
50575DOD     C395546  28.778   3.876  26.803  0.0848  0.2634 -0.1638
50576DOD     C195547  24.552  20.752  13.673 -0.0992 -0.2253  0.1749
50576DOD     C295548  24.887  20.701  13.970 -0.2306  0.2950  0.1078
50576DOD     C395549  25.227  20.854  14.190  0.0665  0.2352  0.0504
50577DOD     C195550   0.248   0.459  13.664  0.0516  0.2951  0.0133
50577DOD     C295551   0.598   0.292  13.332  0.0878  0.1343 -0.2202
50577DOD     C395552   0.748  30.282  13.027 -0.2625 -0.0310 -0.1785
50578DOD     C195553   2.092  28.112  13.690 -0.1477  0.3421 -0.0195
50578DOD     C295554   2.026  27.978  14.156 -0.2716  0.5344  0.1799
50578DOD     C395555   2.188  28.071  14.559 -0.2799  0.2005  0.1250
50579DOD     C195556  11.792   9.205  27.123 -0.1480  0.1011  0.2274
50579DOD     C295557  11.874   8.798  26.904  0.1559 -0.0452  0.0353
50579DOD     C395558  11.808   8.344  26.846  0.1977 -0.0896  0.0624
50580DOD     C195559  26.124  18.313  25.558 -0.1403 -0.3532 -0.0683
50580DOD     C295560  26.241  17.863  25.514  0.0366  0.0036 -0.0655
50580DOD     C395561  26.389  17.482  25.258  0.1925  0.0355 -0.1202
50581DOD     C195562  23.617  17.905  11.333 -0.2456  0.2187 -0.3304
50581DOD     C295563  23.384  18.184  11.622 -0.2335  0.1468  0.2318
50581DOD     C395564  23.515  18.479  11.987  0.0642 -0.0030 -0.1822
50582DOD     C195565   3.090  10.262  27.417 -0.0973  0.0034 -0.3282
50582DOD     C295566   3.356  10.412  27.010  0.3212  0.0698  0.0018
50582DOD     C395567   3.608  10.347  26.689  0.1114 -0.0388  0.1389
50583DOD     C195568  22.374   0.214   4.996  0.2225 -0.0816 -0.1325
50583DOD     C295569  22.418   0.090   5.416 -0.0116 -0.2415  0.0326
50583DOD     C395570  22.248   0.051   5.832  0.1811 -0.4094  0.1025
50584DOD     C195571  27.986  27.422  22.996 -0.5027  0.0222 -0.0696
50584DOD     C295572  27.639  27.676  23.178  0.0145  0.2499 -0.0186
50584DOD     C395573  27.239  27.930  23.110 -0.0681  0.1408  0.1566
50585DOD     C195574  23.192   0.560  27.228  0.2419 -0.1750 -0.0451
50585DOD     C295575  22.913   0.900  27.367 -0.1134  0.2588 -0.0550
50585DOD     C395576  22.634   1.297  27.356  0.0437  0.1984  0.0693
50586DOD     C195577  10.417  21.632  24.988  0.3416 -0.2813  0.1839
50586DOD     C295578  10.205  21.512  24.538  0.0567  0.0333  0.3825
50586DOD     C395579   9.917  21.358  24.163  0.3354  0.2160  0.0260
50587DOD     C195580   6.828  22.206   6.896  0.2537  0.1760  0.0697
50587DOD     C295581   7.299  22.263   6.838  0.1746  0.2348  0.0319
50587DOD     C395582   7.669  21.986   7.030  0.1556 -0.2681  0.0513
50588DOD     C195583  21.414  13.633  28.591 -0.0927  0.2042 -0.0937
50588DOD     C295584  21.655  13.749  28.132 -0.0106 -0.1432 -0.1757
50588DOD     C395585  21.737  13.895  27.654  0.0981 -0.1545 -0.3148
50589DOD     C195586   3.860  28.005   7.332  0.2548  0.1354 -0.2806
50589DOD     C295587   4.053  28.387   7.224  0.1502  0.2094 -0.0136
50589DOD     C395588   4.318  28.778   7.086  0.2560 -0.3199 -0.3426
50590DOD     C195589  17.412  24.338  23.968 -0.1544  0.0400 -0.0844
50590DOD     C295590  17.662  24.035  23.730 -0.1746 -0.2443 -0.4301
50590DOD     C395591  17.720  23.675  23.419  0.2249  0.1371 -0.2829
50591DOD     C195592  15.758   6.638  22.161  0.0158 -0.1738  0.1645
50591DOD     C295593  15.915   6.562  22.566  0.1912 -0.1852  0.2903
50591DOD     C395594  15.893   6.794  23.005 -0.0771  0.2539  0.1354
50592DOD     C195595  12.553  10.077   8.714  0.1357 -0.0051 -0.0215
50592DOD     C295596  12.125  10.232   8.578  0.0317 -0.0214  0.0530
50592DOD     C395597  11.729  10.068   8.563  0.1201 -0.0259 -0.1708
50593DOD     C195598   5.875   6.525  24.660  0.0096 -0.1458  0.1832
50593DOD     C295599   6.178   6.840  24.872 -0.5932  0.3254  0.2106
50593DOD     C395600   6.330   7.197  25.192  0.0254  0.1341  0.1444
50594DOD     C195601   4.607  25.891  29.564  0.0506  0.0608  0.1569
50594DOD     C295602   4.502  25.961  29.112 -0.0275 -0.4625  0.0280
50594DOD     C395603   4.292  25.719  28.740 -0.2258 -0.3375 -0.0534
50595DOD     C195604   7.899  24.936   0.101 -0.2608  0.0539 -0.1368
50595DOD     C295605   8.124  25.140  30.050  0.1153 -0.0042 -0.0593
50595DOD     C395606   8.557  25.239  29.942 -0.2174 -0.1643  0.1340
50596DOD     C195607  17.322  11.382  24.093 -0.2237 -0.2920  0.1428
50596DOD     C295608  17.205  11.577  24.527  0.1155  0.0112 -0.1344
50596DOD     C395609  17.258  11.586  25.003  0.0058 -0.0067 -0.1775
50597DOD     C195610  17.301  29.436   4.756 -0.2326 -0.0107 -0.1588
50597DOD     C295611  17.392  29.678   4.397 -0.2419  0.4264 -0.1378
50597DOD     C395612  17.676  30.003   4.191 -0.0627  0.0416 -0.1120
50598DOD     C195613   6.801   5.515   4.880 -0.2052  0.0659 -0.0464
50598DOD     C295614   6.985   5.568   4.447 -0.2099 -0.0744  0.1291
50598DOD     C395615   6.997   5.473   3.951  0.0994  0.1656 -0.0018
50599DOD     C195616  23.914  25.341  20.892  0.1284 -0.2906 -0.0955
50599DOD     C295617  23.853  25.386  21.396 -0.0188  0.0923  0.1793
50599DOD     C395618  24.109  25.574  21.762  0.0201  0.3215 -0.3443
50600DOD     C195619   1.719  24.279  18.816  0.1265 -0.0422 -0.2939
50600DOD     C295620   1.644  23.815  18.912  0.0131 -0.1664 -0.1707
50600DOD     C395621   1.843  23.433  19.161 -0.0032  0.1386 -0.0234
50601DOD     C195622   5.550  16.750  14.483 -0.0259  0.0871  0.2054
50601DOD     C295623   5.800  17.186  14.443 -0.0703 -0.0515  0.2296
50601DOD     C395624   6.132  17.260  14.055  0.2599  0.0010  0.0247
50602DOD     C195625   9.028  17.835  18.510 -0.2000 -0.1530 -0.2340
50602DOD     C295626   9.270  18.170  18.261 -0.3614  0.2135  0.1660
50602DOD     C395627   9.217  18.454  17.865  0.2887  0.0307 -0.1481
50603DOD     C195628  15.883  15.645   7.423  0.1616  0.1709  0.1043
50603DOD     C295629  16.218  15.484   7.082 -0.3151  0.1108 -0.0787
50603DOD     C395630  16.364  15.646   6.687  0.0499  0.2164 -0.2777
50604DOD     C195631  14.363   5.707   4.671 -0.0553  0.0509  0.1576
50604DOD     C295632  14.261   5.512   5.112  0.3153  0.2291  0.3717
50604DOD     C395633  14.030   5.225   5.321 -0.0074  0.0821 -0.0989
50605DOD     C195634  30.211  11.433  27.483  0.0878 -0.0187  0.1590
50605DOD     C295635   0.235  11.363  27.209  0.0822 -0.1235  0.1505
50605DOD     C395636   0.687  11.387  27.070 -0.3144  0.2347  0.0199
50606DOD     C195637   2.741  25.868  26.922 -0.1169 -0.0235 -0.1189
50606DOD     C295638   2.888  25.905  27.294 -0.1857  0.2708  0.0760
50606DOD     C395639   3.203  25.740  27.615  0.0110  0.0402 -0.3171
50607DOD     C195640  13.416  10.013  20.596  0.2987  0.0329  0.0782
50607DOD     C295641  13.402   9.762  20.218  0.2000 -0.0273 -0.0753
50607DOD     C395642  13.591   9.403  19.996  0.0296 -0.1840  0.0715
50608DOD     C195643  18.246  27.776   2.444 -0.0419 -0.3730  0.3516
50608DOD     C295644  18.361  27.581   2.029 -0.0166 -0.0100  0.1473
50608DOD     C395645  18.477  27.126   1.982  0.1140  0.2175 -0.0555
50609DOD     C195646  23.136  25.052  13.886  0.0282 -0.3277  0.0836
50609DOD     C295647  22.965  24.621  13.813 -0.3281 -0.2382  0.1279
50609DOD     C395648  23.206  24.327  13.545  0.1047 -0.0262 -0.1583
50610DOD     C195649   5.355   8.615  20.534 -0.0487  0.0398  0.1481
50610DOD     C295650   4.975   8.719  20.687  0.0607 -0.1042 -0.1480
50610DOD     C395651   4.639   8.962  20.875  0.0839 -0.1565  0.0641
50611DOD     C195652  17.006   1.148  25.693 -0.0475  0.0469  0.2401
50611DOD     C295653  17.080   1.563  25.587  0.2832 -0.3006 -0.1887
50611DOD     C395654  16.940   1.931  25.348 -0.2168  0.1281 -0.0549
50612DOD     C195655  21.260   3.628  25.721 -0.0565 -0.0421  0.1707
50612DOD     C295656  21.140   3.210  25.478 -0.2366  0.0219  0.2603
50612DOD     C395657  21.115   3.278  24.986 -0.1797  0.0324 -0.0261
50613DOD     C195658  21.737  25.744   2.063  0.1478 -0.0618  0.1518
50613DOD     C295659  22.082  26.044   2.073  0.4519  0.0403 -0.1865
50613DOD     C395660  22.549  26.070   2.145  0.1913  0.0879 -0.0583
50614DOD     C195661  30.199  26.123  20.185  0.3324  0.2474 -0.2761
50614DOD     C295662   0.115  25.769  20.479 -0.1037  0.0510 -0.0793
50614DOD     C395663   0.220  25.457  20.838 -0.0886  0.2497 -0.0872
50615DOD     C195664  16.023  24.732  11.022 -0.0378 -0.2032  0.2057
50615DOD     C295665  15.972  25.170  11.067  0.0419  0.2457 -0.1259
50615DOD     C395666  16.297  25.462  11.042  0.0240 -0.2705  0.0929
50616DOD     C195667  23.800   8.519   4.853  0.1494  0.1560  0.0014
50616DOD     C295668  23.607   8.216   4.594  0.1095 -0.1046 -0.2266
50616DOD     C395669  23.259   8.194   4.335 -0.3408 -0.0827 -0.2065
50617DOD     C195670   5.333   3.008   9.006  0.0532  0.1208 -0.0212
50617DOD     C295671   5.054   2.976   8.643  0.0664  0.0789  0.0179
50617DOD     C395672   4.659   2.795   8.482  0.0336  0.4219 -0.1675
50618DOD     C195673  30.081   2.470  22.564 -0.0254 -0.0479 -0.2126
50618DOD     C295674  29.668   2.604  22.773  0.0248  0.1615  0.1892
50618DOD     C395675  29.338   2.747  22.973 -0.0624 -0.1555 -0.0527
50619DOD     C195676   5.788  18.869  24.757 -0.2810  0.0898 -0.2332
50619DOD     C295677   5.757  18.453  24.594  0.2093 -0.0283  0.0035
50619DOD     C395678   5.619  17.992  24.680  0.0396 -0.0231 -0.1335
50620DOD     C195679   1.583  10.035   9.756  0.3536  0.2843 -0.3690
50620DOD     C295680   1.348   9.680   9.898  0.1030  0.1603  0.0141
50620DOD     C395681   1.536   9.261   9.791 -0.5723 -0.1519  0.0966
50621DOD     C195682  11.793  13.826  25.901 -0.0178 -0.4522 -0.1966
50621DOD     C295683  11.661  13.755  26.340  0.0877 -0.0404  0.1708
50621DOD     C395684  11.818  13.798  26.807 -0.0838 -0.0771 -0.0491
50622DOD     C195685  16.846  11.565   8.505 -0.0254  0.0745  0.2267
50622DOD     C295686  16.405  11.494   8.296  0.1738 -0.2254 -0.3023
50622DOD     C395687  16.097  11.166   8.226 -0.2238 -0.4192  0.0928
50623DOD     C195688  23.482  26.430   0.720  0.2168 -0.0575 -0.1297
50623DOD     C295689  23.650  26.756   1.011 -0.3140 -0.0295  0.3776
50623DOD     C395690  24.094  26.894   1.067  0.0402  0.0702 -0.1823
50624DOD     C195691   9.686  26.898   6.898 -0.0111 -0.2860  0.0328
50624DOD     C295692   9.683  27.322   7.110  0.0835  0.0689  0.2177
50624DOD     C395693   9.618  27.804   7.207  0.0340 -0.1951 -0.1172
50625DOD     C195694   6.565  16.403  15.601 -0.0148  0.0323 -0.1861
50625DOD     C295695   6.744  16.598  15.236  0.5217 -0.1277  0.1982
50625DOD     C395696   6.942  16.608  14.766  0.0212 -0.0482  0.0392
50626DOD     C195697   6.741   6.754  29.281 -0.0701 -0.1685 -0.2054
50626DOD     C295698   6.288   6.830  29.447  0.0172  0.0755  0.0721
50626DOD     C395699   5.856   6.768  29.663  0.0404  0.0178  0.1639
50627DOD     C195700  30.205  12.746   3.511  0.0158  0.1502  0.2995
50627DOD     C295701   0.086  13.169   3.383 -0.0396  0.1246  0.2147
50627DOD     C395702   0.243  13.541   3.617  0.0324 -0.0193 -0.0180
50628DOD     C195703  28.096  28.990  19.187 -0.0562  0.0222 -0.1664
50628DOD     C295704  28.209  29.423  19.294  0.3512  0.2020  0.1115
50628DOD     C395705  27.883  29.809  19.303 -0.2026  0.3778  0.0213
50629DOD     C195706  15.783  16.250  10.096  0.1505  0.3964  0.1933
50629DOD     C295707  16.052  15.884  10.257  0.2328 -0.0072 -0.0469
50629DOD     C395708  15.997  15.549  10.612 -0.1230  0.3138  0.1962
50630DOD     C195709   3.598  11.564  22.768 -0.0008  0.0982  0.0619
50630DOD     C295710   3.576  11.594  22.344 -0.4071 -0.2210 -0.4497
50630DOD     C395711   3.351  11.851  22.003 -0.3428 -0.1277 -0.1440
50631DOD     C195712  26.386   0.849  20.613 -0.0437 -0.0789  0.1865
50631DOD     C295713  26.849   0.849  20.415  0.2039 -0.4048  0.2001
50631DOD     C395714  27.018   0.733  19.992  0.0998  0.2126 -0.1087
50632DOD     C195715   2.745  13.132   5.396 -0.0746  0.1541  0.2367
50632DOD     C295716   2.664  12.676   5.540  0.0687  0.3562  0.1066
50632DOD     C395717   2.361  12.534   5.892  0.0797 -0.2250 -0.0314
50633DOD     C195718  15.123  29.245  19.037 -0.0812 -0.1857  0.3234
50633DOD     C295719  14.740  29.209  18.709  0.0018 -0.1899 -0.4547
50633DOD     C395720  14.294  29.145  18.656  0.4233 -0.1990 -0.3014
50634DOD     C195721  24.940  16.919   8.779  0.2038  0.0503 -0.1219
50634DOD     C295722  25.392  16.880   8.611 -0.1104  0.1329  0.3267
50634DOD     C395723  25.634  16.788   8.189  0.1103  0.3201 -0.3027
50635DOD     C195724   1.390   8.424  16.834 -0.2232  0.2679 -0.3172
50635DOD     C295725   1.088   8.764  16.678  0.0138  0.1031 -0.1238
50635DOD     C395726   0.837   9.084  16.496  0.2361 -0.5163 -0.2811
50636DOD     C195727  13.938  14.438  19.421 -0.0676  0.1512  0.2320
50636DOD     C295728  13.600  14.751  19.292  0.0142  0.2726 -0.1605
50636DOD     C395729  13.164  14.752  19.227 -0.1928 -0.1477  0.2548
50637DOD     C195730  14.546  18.308   3.639 -0.0982 -0.2129  0.2162
50637DOD     C295731  14.203  17.963   3.778  0.1124 -0.3996 -0.0834
50637DOD     C395732  13.734  17.735   3.912 -0.2431  0.0709 -0.4725
50638DOD     C195733  24.390  27.450  17.107  0.0734  0.2314 -0.0066
50638DOD     C295734  24.630  27.855  17.118  0.1947  0.2379  0.1609
50638DOD     C395735  25.060  27.840  17.182  0.1465  0.1145 -0.0185
50639DOD     C195736  25.626   3.157  18.439 -0.1240 -0.0273  0.7486
50639DOD     C295737  25.914   3.043  18.087  0.1979 -0.0216 -0.0004
50639DOD     C395738  25.876   2.906  17.635  0.2615  0.0626  0.0975
50640DOD     C195739   4.090  25.972  27.835 -0.2618  0.0806  0.1843
50640DOD     C295740   4.219  25.657  28.150 -0.2036 -0.0580  0.4324
50640DOD     C395741   4.119  25.257  28.342 -0.0477 -0.0791  0.0361
50641DOD     C195742   1.271   0.597  27.168  0.0618 -0.1914 -0.0278
50641DOD     C295743   0.921   0.563  26.872  0.1556 -0.0333 -0.0215
50641DOD     C395744   0.838   0.362  26.482  0.1618 -0.0270  0.0830
50642DOD     C195745  25.172  14.654   2.862  0.3482 -0.0830  0.1140
50642DOD     C295746  25.531  14.879   3.102  0.4448  0.1727  0.1986
50642DOD     C395747  25.786  15.258   3.253 -0.0479  0.0003  0.2628
50643DOD     C195748  11.046   7.707   1.348  0.1636 -0.2451  0.1022
50643DOD     C295749  11.187   7.249   1.200  0.1773  0.2784  0.0041
50643DOD     C395750  11.255   6.800   1.372  0.0192  0.2343 -0.1565
50644DOD     C195751  10.555  24.496  12.782  0.1496  0.0733  0.0288
50644DOD     C295752  10.474  24.489  12.358  0.1317  0.0989  0.0104
50644DOD     C395753  10.530  24.803  12.059  0.0387  0.1621  0.0630
50645DOD     C195754  22.361  20.595   9.278  0.0504  0.0263  0.2438
50645DOD     C295755  21.905  20.670   9.264  0.0420  0.1973  0.1091
50645DOD     C395756  21.567  20.982   9.181 -0.1866  0.0591  0.3522
50646DOD     C195757   9.798  24.868  14.694 -0.0284  0.0217 -0.2392
50646DOD     C295758  10.103  24.531  14.825 -0.1970 -0.1042 -0.0464
50646DOD     C395759  10.423  24.354  15.075 -0.2856 -0.3492  0.3188
50647DOD     C195760  12.756   4.460   5.969  0.0749  0.0482 -0.0930
50647DOD     C295761  12.286   4.360   6.133 -0.1625  0.2513 -0.0032
50647DOD     C395762  11.989   4.167   6.481 -0.1963 -0.4488  0.0249
50648DOD     C195763   3.043  15.065  11.825 -0.0521 -0.3539  0.1467
50648DOD     C295764   2.855  15.507  11.622 -0.1348 -0.1977  0.0676
50648DOD     C395765   2.927  15.890  11.372 -0.3007 -0.4593 -0.1387
50649DOD     C195766   4.286  25.712   9.911  0.0708  0.0651  0.0135
50649DOD     C295767   4.071  25.382  10.058  0.1435 -0.0289  0.2207
50649DOD     C395768   3.953  25.006  10.264  0.0874 -0.1977 -0.0690
50650DOD     C195769  11.502  14.855   2.364 -0.2697 -0.1633  0.0582
50650DOD     C295770  11.479  14.932   2.813 -0.2163  0.1705  0.0951
50650DOD     C395771  11.675  15.292   3.103  0.1815  0.1600  0.2843
50651DOD     C195772  14.517   9.275  27.290 -0.2591 -0.1609  0.1292
50651DOD     C295773  14.903   9.522  27.033 -0.2235 -0.1234 -0.0901
50651DOD     C395774  15.146   9.735  26.677 -0.1069 -0.0027 -0.0615
50652DOD     C195775   3.834  23.224   0.442  0.4935  0.2866 -0.2360
50652DOD     C295776   3.364  23.326   0.520  0.3374  0.2059  0.4447
50652DOD     C395777   3.024  23.551   0.752  0.0882 -0.0751 -0.1428
50653DOD     C195778   3.506  10.229  29.210  0.1370 -0.1521 -0.2701
50653DOD     C295779   3.052  10.169  29.306 -0.0597  0.1897 -0.0153
50653DOD     C395780   2.561  10.220  29.284  0.0931  0.1315  0.1895
50654DOD     C195781  28.365  12.784  18.785  0.1537  0.2824  0.2126
50654DOD     C295782  27.988  13.036  18.844 -0.0137 -0.1901  0.1228
50654DOD     C395783  27.858  13.229  19.272 -0.0589  0.1789  0.2049
50655DOD     C195784   7.916  14.047   1.110  0.1633  0.3673  0.0960
50655DOD     C295785   8.328  14.007   0.860  0.3142  0.0282 -0.0481
50655DOD     C395786   8.605  14.214   0.603  0.2566 -0.1545 -0.2112
50656DOD     C195787  23.349   6.794  21.503  0.1982 -0.2651  0.0589
50656DOD     C295788  23.399   7.113  21.839 -0.0666 -0.2122 -0.1253
50656DOD     C395789  23.619   7.461  22.093  0.0546  0.0213 -0.2559
50657DOD     C195790  12.565  19.925   1.634 -0.0959  0.0036 -0.1655
50657DOD     C295791  12.247  19.628   1.834 -0.3113 -0.2879 -0.2609
50657DOD     C395792  11.901  19.439   2.044 -0.3745  0.0050  0.0133
50658DOD     C195793  29.962  11.255  28.877 -0.2765 -0.1748  0.1692
50658DOD     C295794  29.910  11.016  29.231  0.1282  0.0976  0.0587
50658DOD     C395795  30.084  10.645  29.433  0.0607 -0.0805  0.2078
50659DOD     C195796  23.229   9.599   0.461 -0.0176  0.2970  0.2788
50659DOD     C295797  23.561   9.693   0.777 -0.2032 -0.0751 -0.0418
50659DOD     C395798  23.880   9.767   1.157 -0.1934 -0.0030  0.0381
50660DOD     C195799  20.831  12.678  18.825  0.3070  0.0714 -0.0075
50660DOD     C295800  20.802  12.298  18.583 -0.0565 -0.0454  0.0447
50660DOD     C395801  21.085  11.956  18.456  0.2141 -0.3154  0.0411
50661DOD     C195802   1.560  12.997  10.917 -0.4556 -0.1509 -0.0152
50661DOD     C295803   1.354  12.759  11.249  0.4116  0.0306 -0.1222
50661DOD     C395804   0.920  12.558  11.209  0.0496 -0.0170 -0.0121
50662DOD     C195805  24.310  18.703   3.120  0.0185  0.0339  0.2772
50662DOD     C295806  23.858  18.826   3.262  0.4323  0.0611 -0.0897
50662DOD     C395807  23.453  19.117   3.207  0.1354 -0.0966 -0.0544
50663DOD     C195808   3.826  20.933  11.380 -0.3531  0.0617 -0.0435
50663DOD     C295809   4.274  20.971  11.562 -0.1591 -0.2994  0.1128
50663DOD     C395810   4.432  20.713  11.904 -0.1098 -0.2864 -0.1718
50664DOD     C195811  26.457  17.579  21.239 -0.1651  0.2139 -0.2892
50664DOD     C295812  26.078  17.855  21.058 -0.0804 -0.3329  0.0006
50664DOD     C395813  25.770  18.163  20.960 -0.1341 -0.1963  0.1553
50665DOD     C195814  10.288  17.208  12.713 -0.0396 -0.1890 -0.1199
50665DOD     C295815  10.563  17.546  12.847 -0.2026 -0.1767  0.1004
50665DOD     C395816  10.895  17.669  12.559 -0.1189 -0.0453 -0.0846
50666DOD     C195817  10.618   4.861   4.972 -0.0063 -0.1175  0.1336
50666DOD     C295818  11.023   5.046   4.715 -0.0885  0.1024 -0.1416
50666DOD     C395819  11.255   5.279   4.376  0.0421  0.0929  0.0493
50667DOD     C195820  23.562   2.362  17.891  0.0161  0.1494 -0.3450
50667DOD     C295821  23.843   2.312  17.579  0.2488  0.3383 -0.1304
50667DOD     C395822  24.117   2.575  17.357  0.2260 -0.1943  0.2020
50668DOD     C195823   0.194  12.696  18.711  0.1025  0.0192 -0.3206
50668DOD     C295824   0.017  12.844  18.246  0.1613 -0.0351  0.0208
50668DOD     C395825   0.062  13.274  18.047  0.0269 -0.0866  0.2040
50669DOD     C195826  15.581  25.753   0.544 -0.1573 -0.1062  0.0365
50669DOD     C295827  15.431  26.119   0.291 -0.1626 -0.1111  0.0238
50669DOD     C395828  15.602  26.285  30.257 -0.2856  0.2074  0.1285
50670DOD     C195829   8.562  13.330  11.515 -0.1186 -0.2865 -0.4628
50670DOD     C295830   8.746  13.738  11.460 -0.0317  0.0398 -0.4127
50670DOD     C395831   9.008  14.145  11.495 -0.1548  0.0249 -0.1335
50671DOD     C195832   1.143  27.156  21.806 -0.1426 -0.1750 -0.3212
50671DOD     C295833   0.688  27.130  21.622 -0.2175  0.1567  0.1542
50671DOD     C395834   0.311  27.349  21.363  0.1337 -0.0939 -0.1126
50672DOD     C195835   4.866   0.506   6.405 -0.1685 -0.1517 -0.1074
50672DOD     C295836   5.272   0.772   6.273 -0.1307 -0.2478 -0.0755
50672DOD     C395837   5.556   0.782   6.000  0.1151  0.0088 -0.1673
50673DOD     C195838   7.100  22.862   0.280 -0.0267  0.0779 -0.1026
50673DOD     C295839   6.933  23.257   0.493  0.0349  0.1956  0.0475
50673DOD     C395840   6.820  23.659   0.347  0.1186  0.1985 -0.1239
50674DOD     C195841  24.703  27.984  29.996 -0.0603  0.0029  0.0532
50674DOD     C295842  24.713  28.198   0.100  0.0610 -0.2690 -0.0778
50674DOD     C395843  25.134  28.393   0.287  0.1301 -0.0665  0.1695
50675DOD     C195844   5.945  27.925  22.729 -0.3502  0.3185  0.1443
50675DOD     C295845   6.201  27.580  22.821 -0.0151 -0.1780 -0.0777
50675DOD     C395846   6.221  27.129  22.900  0.3294 -0.1939 -0.1739
50676DOD     C195847  18.798   4.140  27.535 -0.0121  0.0116  0.1440
50676DOD     C295848  18.758   3.639  27.593 -0.1454  0.0196 -0.4827
50676DOD     C395849  18.939   3.325  27.877 -0.0336  0.2437  0.4884
50677DOD     C195850  27.008  23.678  17.969  0.2448 -0.1035 -0.1600
50677DOD     C295851  26.884  23.301  18.132  0.2750  0.3762  0.0249
50677DOD     C395852  26.786  22.822  18.182 -0.0210  0.0823  0.4371
50678DOD     C195853  13.229   6.289  22.676 -0.2983  0.3316 -0.0705
50678DOD     C295854  13.076   6.698  22.896  0.2785  0.2101  0.0530
50678DOD     C395855  13.332   7.104  22.999  0.0311  0.0314 -0.2133
50679DOD     C195856   6.359  14.721  19.098 -0.2096  0.1970  0.3143
50679DOD     C295857   5.961  14.831  19.260  0.0296 -0.5005 -0.0734
50679DOD     C395858   5.851  14.955  19.709 -0.0864 -0.5286 -0.2531
50680DOD     C195859  22.408   4.941   8.229 -0.1415  0.2276  0.1715
50680DOD     C295860  22.186   5.372   8.302 -0.1657 -0.0176 -0.1821
50680DOD     C395861  22.053   5.792   8.408  0.1136  0.0262 -0.3139
50681DOD     C195862  26.656  15.628  23.398 -0.2579 -0.0732 -0.1695
50681DOD     C295863  26.863  16.089  23.427  0.1240 -0.2118  0.2308
50681DOD     C395864  26.956  16.301  22.952  0.0890 -0.0906 -0.1044
50682DOD     C195865   4.802  10.274  30.301  0.0319 -0.0394  0.0396
50682DOD     C295866   5.188  10.129   0.238  0.3229  0.0575  0.0332
50682DOD     C395867   5.540  10.027   0.576 -0.1878 -0.2623  0.1009
50683DOD     C195868  22.243  22.521  20.744 -0.1026  0.1288 -0.0774
50683DOD     C295869  22.606  22.273  20.625  0.1208 -0.1037 -0.0904
50683DOD     C395870  22.942  21.924  20.565  0.3821 -0.0749 -0.0367
50684DOD     C195871  13.317  16.943  20.947  0.1909 -0.3257  0.3225
50684DOD     C295872  13.566  16.833  20.607 -0.3298 -0.0489 -0.2276
50684DOD     C395873  13.815  16.874  20.230 -0.0765 -0.2102  0.0959
50685DOD     C195874   8.446  12.494  17.308 -0.0340  0.1124  0.0418
50685DOD     C295875   8.304  12.019  17.261 -0.1189  0.0294 -0.1147
50685DOD     C395876   8.291  11.542  17.226 -0.3101  0.2265 -0.1840
50686DOD     C195877   1.842   0.103  23.945  0.2353  0.4547 -0.1298
50686DOD     C295878   2.122   0.474  23.879 -0.0630 -0.2230  0.1590
50686DOD     C395879   2.450   0.652  24.123  0.0327  0.0498 -0.1519
50687DOD     C195880  29.868  12.108  28.452 -0.2692  0.0227 -0.1143
50687DOD     C295881  30.230  12.335  28.241 -0.0931  0.1468  0.0045
50687DOD     C395882   0.169  12.744  28.241  0.0252  0.2139  0.0209
50688DOD     C195883  27.631   7.553  26.560 -0.0121 -0.1499  0.0382
50688DOD     C295884  28.001   7.639  26.876 -0.1228  0.0979 -0.0417
50688DOD     C395885  28.120   7.811  27.278 -0.0406  0.2120 -0.0224
50689DOD     C195886   4.502  15.936   2.390  0.1365 -0.2796  0.2244
50689DOD     C295887   4.579  15.789   1.974  0.0485  0.0037  0.1112
50689DOD     C395888   4.345  15.729   1.526  0.0360 -0.0786 -0.1112
50690DOD     C195889  21.634   4.765  16.573 -0.0806 -0.1334  0.1576
50690DOD     C295890  21.663   4.431  16.209  0.0509 -0.0007  0.3387
50690DOD     C395891  21.440   4.454  15.782  0.0999  0.0489 -0.1273
50691DOD     C195892   5.174   5.063  24.258 -0.0173 -0.2435 -0.3070
50691DOD     C295893   5.092   5.083  23.745  0.2101  0.0822 -0.1994
50691DOD     C395894   5.222   4.808  23.418  0.0416 -0.0566  0.1725
50692DOD     C195895  29.732  10.797  28.088 -0.1802  0.1787 -0.5717
50692DOD     C295896  29.989  11.095  28.356 -0.3759 -0.2563 -0.1838
50692DOD     C395897   0.064  11.215  28.625 -0.1733  0.0102  0.2105
50693DOD     C195898  22.114  18.633  12.706  0.0966 -0.0855  0.0030
50693DOD     C295899  22.460  18.346  12.533  0.2247 -0.1536 -0.3310
50693DOD     C395900  22.769  18.247  12.165 -0.0799  0.0997 -0.3003
50694DOD     C195901  13.181   3.966   4.567  0.1659 -0.0462  0.0227
50694DOD     C295902  12.817   3.660   4.657 -0.3168 -0.3428  0.0988
50694DOD     C395903  12.466   3.504   4.883  0.0017  0.0200 -0.0397
50695DOD     C195904  26.158  26.050   7.080 -0.3741  0.1924  0.0812
50695DOD     C295905  26.390  26.363   7.337 -0.0733  0.2829  0.0929
50695DOD     C395906  26.825  26.343   7.552  0.0411 -0.4622 -0.1242
50696DOD     C195907  11.978  21.423  12.470  0.0429 -0.1604 -0.2668
50696DOD     C295908  11.897  21.799  12.751  0.2813  0.1680  0.2286
50696DOD     C395909  11.590  22.149  12.649  0.0770  0.0151 -0.2839
50697DOD     C195910   7.157   0.678  22.133  0.2518  0.0289  0.2513
50697DOD     C295911   7.149   0.767  22.601 -0.1999 -0.1427  0.1403
50697DOD     C395912   7.053   0.653  23.066  0.3673  0.1633  0.2036
50698DOD     C195913   0.539   2.781   1.309 -0.2179 -0.0075  0.3033
50698DOD     C295914   0.949   3.009   1.196  0.1663  0.2838 -0.3052
50698DOD     C395915   1.211   2.878   0.793 -0.1441  0.0179 -0.1582
50699DOD     C195916  10.443  21.908  10.566  0.1899  0.0981  0.2545
50699DOD     C295917  10.635  22.047  10.993  0.1650  0.2230  0.0179
50699DOD     C395918  10.906  22.314  11.296  0.2368  0.3486 -0.2843
50700DOD     C195919  28.587  27.106   0.907  0.4560 -0.1496 -0.1431
50700DOD     C295920  28.255  26.807   0.826 -0.1794 -0.0174  0.1685
50700DOD     C395921  27.950  26.565   0.627  0.1082 -0.1210  0.0651
50701DOD     C195922   9.490  10.126  23.301  0.0546  0.1207 -0.0039
50701DOD     C295923   9.771   9.843  23.168  0.0132  0.4911  0.0886
50701DOD     C395924   9.820   9.429  23.007 -0.1791 -0.0300 -0.0036
50702DOD     C195925  25.947  24.348  10.139 -0.0652  0.2364 -0.0835
50702DOD     C295926  26.294  24.468   9.887  0.2230 -0.2698  0.0374
50702DOD     C395927  26.424  24.260   9.553 -0.1956  0.1675  0.1176
50703DOD     C195928   7.947  23.750  16.659  0.1593  0.3302 -0.1003
50703DOD     C295929   7.899  24.203  16.689  0.0365  0.0025  0.1075
50703DOD     C395930   7.974  24.633  16.909 -0.0384  0.1354 -0.3304
50704DOD     C195931  13.209  29.778  20.116  0.2584 -0.1405  0.3512
50704DOD     C295932  13.547  29.744  19.751  0.4475  0.3111 -0.0591
50704DOD     C395933  13.890  29.969  19.542  0.0562 -0.0130 -0.4017
50705DOD     C195934  20.218   1.582   0.564  0.3235 -0.0517 -0.0536
50705DOD     C295935  20.430   1.593   0.127 -0.4342  0.1385 -0.1447
50705DOD     C395936  20.647   1.686  30.022  0.0367  0.0396 -0.1727
50706DOD     C195937  28.084  18.982  26.918 -0.0697  0.3800  0.0193
50706DOD     C295938  28.533  18.881  27.037 -0.0271 -0.2484  0.0864
50706DOD     C395939  28.936  19.015  27.266 -0.3809 -0.2367 -0.0716
50707DOD     C195940   7.422  26.632   3.067  0.1733 -0.0009  0.0568
50707DOD     C295941   7.440  27.052   3.015  0.0187  0.0034 -0.0183
50707DOD     C395942   7.426  27.475   2.800  0.5172  0.0640 -0.1711
50708DOD     C195943   4.697  17.154  18.623  0.3623  0.1285 -0.2369
50708DOD     C295944   4.657  17.203  18.196  0.2064  0.1007 -0.0796
50708DOD     C395945   4.774  17.242  17.809  0.2705  0.1638 -0.0952
50709DOD     C195946  25.087  12.392   8.921  0.0458 -0.2142 -0.1682
50709DOD     C295947  25.383  12.778   8.888 -0.1038 -0.0321 -0.2371
50709DOD     C395948  25.716  13.086   9.012  0.0085 -0.2861  0.0924
50710DOD     C195949  19.898  17.936  13.752 -0.1052  0.0530 -0.0995
50710DOD     C295950  20.273  18.192  13.829  0.2051 -0.1660 -0.1049
50710DOD     C395951  20.638  18.482  13.590 -0.0303 -0.1153  0.0508
50711DOD     C195952   3.126  16.605   3.763 -0.0718 -0.0459 -0.2078
50711DOD     C295953   3.368  16.670   4.184  0.1558 -0.3401  0.0288
50711DOD     C395954   3.408  16.614   4.616  0.0605 -0.3559 -0.3644
50712DOD     C195955  21.546  25.456  15.816  0.2584 -0.1591  0.0232
50712DOD     C295956  21.044  25.530  15.879 -0.1784  0.2415 -0.0241
50712DOD     C395957  20.768  25.898  16.098 -0.0128 -0.0790  0.2460
50713DOD     C195958  14.376  22.467  22.885  0.0112 -0.1306  0.1647
50713DOD     C295959  14.181  22.311  22.462  0.2587 -0.3143 -0.1480
50713DOD     C395960  14.216  21.976  22.140  0.0029  0.3213  0.2833
50714DOD     C195961  24.841   9.091  19.656 -0.1870 -0.0591 -0.0234
50714DOD     C295962  24.577   9.489  19.739 -0.0482 -0.1221  0.0866
50714DOD     C395963  24.461   9.912  19.818 -0.0094  0.1401  0.0094
50715DOD     C195964  15.380   7.139  19.458  0.1001  0.0317 -0.1835
50715DOD     C295965  15.791   7.375  19.509  0.4572 -0.1324  0.0611
50715DOD     C395966  16.155   7.577  19.257  0.0320  0.0672 -0.1439
50716DOD     C195967  20.641  25.429  15.422  0.1822  0.3241  0.0406
50716DOD     C295968  20.558  25.510  15.863 -0.0930  0.0184 -0.0452
50716DOD     C395969  20.475  25.606  16.358 -0.0771  0.4501 -0.1022
50717DOD     C195970  26.495   7.111  17.960  0.0415  0.0592 -0.0577
50717DOD     C295971  26.887   6.887  17.793 -0.0542 -0.0900  0.0898
50717DOD     C395972  27.236   6.607  17.687  0.1440 -0.1167 -0.0539
50718DOD     C195973   2.142   8.191   5.619 -0.0007 -0.1043  0.2291
50718DOD     C295974   2.325   7.746   5.563  0.0852 -0.1607 -0.0385
50718DOD     C395975   2.098   7.347   5.437  0.0184  0.1329  0.0848
50719DOD     C195976  27.138   8.990  20.685  0.0057  0.1814 -0.0298
50719DOD     C295977  27.517   8.890  20.485  0.3433 -0.0636  0.0056
50719DOD     C395978  27.729   9.009  20.068  0.1418  0.1045  0.3638
50720DOD     C195979  19.972  25.649  17.309 -0.1688  0.5894  0.1876
50720DOD     C295980  19.646  25.599  17.618 -0.2912 -0.1614 -0.0200
50720DOD     C395981  19.294  25.786  17.821  0.0829  0.3416  0.0315
50721DOD     C195982  11.385   7.372  20.188 -0.2979 -0.1597  0.0042
50721DOD     C295983  11.631   7.395  19.826 -0.2309 -0.2360 -0.0756
50721DOD     C395984  11.940   7.028  19.782  0.0180 -0.1920 -0.0745
50722DOD     C195985   6.288  12.458   0.055 -0.2164  0.3100 -0.0806
50722DOD     C295986   6.132  12.512  29.983  0.0498  0.1114  0.1182
50722DOD     C395987   5.914  12.710  29.664  0.2441 -0.0481  0.1475
50723DOD     C195988  17.157  18.100  10.550 -0.1821 -0.2064 -0.0845
50723DOD     C295989  17.414  18.039  10.178 -0.2902 -0.1882  0.2732
50723DOD     C395990  17.330  18.170   9.761  0.0146 -0.2304  0.2235
50724DOD     C195991   2.098  10.791  19.029  0.0659  0.1420 -0.0011
50724DOD     C295992   2.464  10.572  19.167 -0.0163 -0.0502 -0.1626
50724DOD     C395993   2.886  10.588  18.996 -0.1691  0.2336 -0.0999
50725DOD     C195994  22.607  10.833  15.257 -0.0738 -0.0642  0.1955
50725DOD     C295995  22.211  10.983  15.439  0.1647 -0.2950  0.1078
50725DOD     C395996  22.163  11.331  15.748  0.0006  0.1143  0.1803
50726DOD     C195997  17.273  29.668  14.927 -0.0187 -0.1999  0.0474
50726DOD     C295998  16.989  29.342  14.817 -0.1738  0.0678 -0.0419
50726DOD     C395999  16.911  29.052  14.446 -0.0421 -0.1441 -0.0880
50727DOD     C196000  28.158  19.395  16.905 -0.1493  0.1120 -0.0054
50727DOD     C296001  28.368  19.485  16.504 -0.2039 -0.2819  0.2064
50727DOD     C396002  28.665  19.455  16.147 -0.3998  0.0224 -0.1989
50728DOD     C196003  26.846  26.681  12.502  0.1715  0.0757  0.1427
50728DOD     C296004  27.178  26.908  12.280  0.0002  0.1658 -0.1265
50728DOD     C396005  27.558  27.150  12.331  0.0663  0.0860 -0.0454
50729DOD     C196006  19.833  28.836   1.382 -0.1814 -0.3002  0.0326
50729DOD     C296007  20.071  28.640   1.050 -0.2848 -0.4025  0.0180
50729DOD     C396008  20.322  28.560   0.635  0.0974 -0.1922  0.3276
50730DOD     C196009   2.780   5.854   6.232  0.0684 -0.0266 -0.4280
50730DOD     C296010   2.590   5.438   6.085 -0.1031  0.1312  0.2383
50730DOD     C396011   2.368   5.081   6.144  0.1333 -0.1897 -0.0777
50731DOD     C196012  28.378   9.900   8.586 -0.1524 -0.1330 -0.0576
50731DOD     C296013  28.837   9.893   8.431 -0.0982  0.1316 -0.0210
50731DOD     C396014  29.185  10.056   8.249 -0.5139  0.0549  0.1198
50732DOD     C196015  15.695  29.992  22.799 -0.0490 -0.0881  0.0875
50732DOD     C296016  15.794  29.558  22.865 -0.2712  0.1604 -0.0655
50732DOD     C396017  15.968  29.265  23.180 -0.0046  0.0634  0.1534
50733DOD     C196018  26.025  10.882  11.550  0.0102 -0.0140  0.1186
50733DOD     C296019  26.035  10.945  11.077 -0.0222 -0.0158  0.2230
50733DOD     C396020  26.045  11.239  10.811  0.0936  0.1242  0.1020
50734DOD     C196021   5.259  23.516  22.353  0.2422 -0.3858 -0.0247
50734DOD     C296022   5.272  24.009  22.502  0.1438  0.2918  0.4150
50734DOD     C396023   5.022  24.412  22.477  0.1385  0.0432 -0.0179
50735DOD     C196024  23.316  22.736   6.936  0.0275 -0.1680  0.0208
50735DOD     C296025  23.727  22.944   7.001 -0.3907  0.0708 -0.3050
50735DOD     C396026  24.044  23.281   7.101 -0.1309  0.0625  0.0793
50736DOD     C196027   4.876  10.020  24.993 -0.0222  0.2198 -0.0287
50736DOD     C296028   5.025  10.266  25.337 -0.0877  0.0454 -0.1645
50736DOD     C396029   4.935  10.238  25.793  0.0601  0.1036  0.0069
50737DOD     C196030   4.268   6.497  17.158 -0.3866  0.2395 -0.2368
50737DOD     C296031   4.330   6.964  17.299  0.0258 -0.1234  0.3290
50737DOD     C396032   4.439   7.348  17.330  0.1695  0.0696 -0.0412
50738DOD     C196033  26.886  29.970   4.357  0.1741  0.0570  0.3693
50738DOD     C296034  26.996   0.062   4.231  0.2416 -0.0653  0.3624
50738DOD     C396035  27.345   0.361   4.057 -0.0339 -0.0765  0.0900
50739DOD     C196036  13.120  17.991   6.402 -0.3636  0.2272 -0.0971
50739DOD     C296037  13.106  18.417   6.441  0.0158 -0.2656  0.0595
50739DOD     C396038  12.773  18.626   6.739  0.1907  0.3379 -0.0781
50740DOD     C196039   3.836  18.594  19.337 -0.0390  0.2367  0.0718
50740DOD     C296040   3.661  18.825  19.681  0.1722 -0.0873  0.1074
50740DOD     C396041   3.546  18.859  20.175 -0.0475  0.3753 -0.1550
50741DOD     C196042  15.253  29.838  23.945 -0.3364 -0.1827  0.0056
50741DOD     C296043  14.784  29.802  24.127 -0.3172 -0.3251 -0.1455
50741DOD     C396044  14.430  29.687  24.413  0.2943 -0.0671  0.1697
50742DOD     C196045  25.154  16.156  19.733 -0.0004 -0.3596 -0.0633
50742DOD     C296046  25.265  16.069  19.253  0.3129  0.1649 -0.1458
50742DOD     C396047  25.100  15.636  19.046 -0.2270 -0.0118 -0.0497
50743DOD     C196048  26.738  28.613  14.935 -0.2585  0.0067 -0.0123
50743DOD     C296049  27.019  28.526  15.228 -0.1250 -0.0427 -0.1821
50743DOD     C396050  27.206  28.257  15.509 -0.0168  0.2660 -0.2651
50744DOD     C196051  18.586  23.389  12.465 -0.2672  0.0913 -0.0798
50744DOD     C296052  18.112  23.414  12.367  0.2299 -0.1538 -0.0628
50744DOD     C396053  17.847  23.686  12.115  0.0237 -0.4153 -0.2842
50745DOD     C196054  24.777  16.167  25.439 -0.1389  0.2647  0.4250
50745DOD     C296055  25.137  16.230  25.692 -0.0493  0.0311 -0.2996
50745DOD     C396056  25.308  16.586  25.987 -0.2195  0.0575  0.1006
50746DOD     C196057   9.678  12.175  10.654 -0.3296  0.3262  0.4717
50746DOD     C296058   9.297  12.250  10.324 -0.2100 -0.0159 -0.3409
50746DOD     C396059   8.937  12.023  10.123  0.0116  0.3640  0.2998
50747DOD     C196060   2.280   5.136  14.485 -0.3212 -0.1726 -0.0534
50747DOD     C296061   2.406   5.514  14.218  0.1959 -0.1643 -0.1841
50747DOD     C396062   2.654   5.939  14.275 -0.0356 -0.2628 -0.0308
50748DOD     C196063  17.805   0.052  10.272 -0.0570 -0.1017 -0.1048
50748DOD     C296064  17.760  30.031   9.994  0.0041 -0.1585  0.1743
50748DOD     C396065  17.839  30.059   9.542  0.3048  0.0201 -0.1299
50749DOD     C196066  18.314  27.295  23.353  0.1447 -0.2427  0.1553
50749DOD     C296067  18.405  27.664  23.633 -0.1704 -0.0134 -0.3984
50749DOD     C396068  18.771  27.607  23.921  0.1889  0.2169  0.1611
50750DOD     C196069   0.234  21.948   1.661 -0.0714 -0.0794  0.2039
50750DOD     C296070  30.255  22.180   1.399  0.0592 -0.1978 -0.1499
50750DOD     C396071  29.915  22.127   1.076 -0.0876  0.1642 -0.2007
50751DOD     C196072  29.941  25.655  22.844 -0.0752  0.1223  0.0640
50751DOD     C296073  29.786  26.091  22.651  0.4708  0.1828  0.0768
50751DOD     C396074  29.900  26.550  22.567  0.0640  0.0166  0.2647
50752DOD     C196075  10.493  10.684  20.826 -0.0977 -0.0896 -0.2725
50752DOD     C296076  10.568  10.706  21.268  0.1786  0.2181 -0.0830
50752DOD     C396077  10.646  11.007  21.662 -0.0210  0.0724 -0.1422
50753DOD     C196078  17.375   4.228  10.393  0.4208 -0.0210  0.0803
50753DOD     C296079  17.444   4.482  10.773 -0.0732  0.0654 -0.2627
50753DOD     C396080  17.541   4.868  11.039 -0.0032 -0.4528 -0.0700
50754DOD     C196081   8.478  27.009   3.405  0.1998  0.1848 -0.0099
50754DOD     C296082   8.040  27.079   3.603  0.1588 -0.0190  0.2288
50754DOD     C396083   7.906  27.180   4.019  0.0476  0.0033  0.2181
50755DOD     C196084  17.244  27.138   1.839 -0.2781  0.0133 -0.0075
50755DOD     C296085  17.412  27.356   2.234 -0.0618  0.1118 -0.0936
50755DOD     C396086  17.298  27.609   2.658  0.0138 -0.1987 -0.2138
50756DOD     C196087   3.154   6.178  15.086 -0.0947 -0.0713  0.0915
50756DOD     C296088   2.872   6.073  14.721  0.0363  0.1730 -0.0021
50756DOD     C396089   2.427   5.917  14.705 -0.1479  0.2869 -0.0649
50757DOD     C196090  16.767   1.113  12.572 -0.1963 -0.1428 -0.2962
50757DOD     C296091  16.619   0.769  12.909 -0.2025  0.1823  0.1875
50757DOD     C396092  16.917   0.627  13.240  0.1816 -0.0174 -0.1692
50758DOD     C196093  22.236  11.858  21.356  0.0692  0.1582 -0.0004
50758DOD     C296094  22.335  11.738  20.977 -0.0854  0.1392  0.1874
50758DOD     C396095  22.603  11.763  20.573 -0.1721  0.1274  0.1478
50759DOD     C196096  11.395   2.575  12.991  0.1181 -0.0328 -0.1790
50759DOD     C296097  11.319   2.184  12.743  0.1544  0.2373  0.0047
50759DOD     C396098  11.381   1.843  12.432  0.0142  0.0039 -0.0096
50760DOD     C196099  16.546  19.600   4.811 -0.1389  0.0522  0.0249
50760DOD     C296100  16.225  19.304   4.975 -0.1433 -0.1265  0.0147
50760DOD     C396101  16.141  19.113   5.416 -0.0640 -0.2215 -0.2143
50761DOD     C196102  21.227  27.309  29.445 -0.3531  0.1292 -0.0984
50761DOD     C296103  21.140  26.924  29.174  0.0241 -0.0629 -0.1566
50761DOD     C396104  20.999  26.466  29.130 -0.0216  0.0145 -0.0253
50762DOD     C196105  24.104   4.577  19.703 -0.1510  0.3768  0.1249
50762DOD     C296106  24.464   4.222  19.682 -0.2294  0.0677  0.2102
50762DOD     C396107  24.864   4.044  19.550 -0.1656 -0.1462  0.0376
50763DOD     C196108  20.348  21.396  20.067  0.1292 -0.0197  0.1429
50763DOD     C296109  20.624  21.735  20.205  0.0237 -0.0376 -0.1175
50763DOD     C396110  20.978  21.939  20.365 -0.0068 -0.1628 -0.1176
50764DOD     C196111  23.231  14.310  27.003  0.0668 -0.2814  0.2958
50764DOD     C296112  23.266  14.052  26.652 -0.3492  0.0143 -0.1066
50764DOD     C396113  23.086  13.836  26.308  0.0061  0.1992 -0.1027
50765DOD     C196114   7.475  23.194  26.801  0.1967  0.2173 -0.1400
50765DOD     C296115   7.019  23.305  26.786  0.1478  0.1002  0.0165
50765DOD     C396116   6.691  22.935  26.770  0.0395 -0.3157 -0.1983
50766DOD     C196117   9.933  10.988  19.660  0.0396 -0.2839 -0.2413
50766DOD     C296118   9.891  10.534  19.577  0.2615 -0.0741 -0.0623
50766DOD     C396119   9.519  10.236  19.583 -0.1184  0.0550  0.0506
50767DOD     C196120  15.097   2.117  17.364 -0.0278 -0.3000  0.2091
50767DOD     C296121  14.931   2.036  17.801 -0.1906 -0.0791  0.2532
50767DOD     C396122  14.739   1.912  18.232 -0.2010 -0.0014  0.1555
50768DOD     C196123   7.982  12.472  28.208 -0.1980 -0.0164 -0.0385
50768DOD     C296124   7.542  12.515  28.409 -0.1374 -0.1580 -0.1721
50768DOD     C396125   7.101  12.363  28.260 -0.0751 -0.1315  0.1638
50769DOD     C196126  29.949  28.915   8.133 -0.2635  0.1014 -0.5760
50769DOD     C296127  29.683  29.137   7.935  0.1598  0.1281  0.1236
50769DOD     C396128  29.261  29.030   7.700  0.0119  0.3024  0.0959
50770DOD     C196129  29.041  15.885   9.371 -0.1682  0.0351  0.1004
50770DOD     C296130  29.258  15.586   9.685  0.0880  0.1198  0.0022
50770DOD     C396131  29.653  15.215   9.658  0.1052  0.2153 -0.0536
50771DOD     C196132   3.194  18.524   3.643 -0.3671  0.2555  0.3200
50771DOD     C296133   2.739  18.537   3.667  0.1553  0.0326 -0.0883
50771DOD     C396134   2.272  18.598   3.726 -0.1606 -0.1228  0.0534
50772DOD     C196135   1.344  18.701   6.585 -0.1239 -0.1283 -0.0259
50772DOD     C296136   1.173  18.939   6.186  0.1367 -0.0224 -0.0432
50772DOD     C396137   1.222  19.044   5.780  0.2247 -0.1436  0.0324
50773DOD     C196138  24.308  20.374   8.522 -0.0956  0.1402  0.0221
50773DOD     C296139  24.141  19.965   8.780 -0.3270  0.1222 -0.2360
50773DOD     C396140  23.931  19.574   8.961 -0.0128  0.0354 -0.1616
50774DOD     C196141   8.199   9.511   5.909 -0.1943 -0.2354  0.0859
50774DOD     C296142   8.518   9.206   5.837  0.0921 -0.1039 -0.2887
50774DOD     C396143   8.615   9.006   5.446 -0.1533  0.0847  0.3118
50775DOD     C196144  16.083  24.076   0.454  0.2122 -0.1678  0.1181
50775DOD     C296145  16.432  23.756   0.396  0.2140 -0.2617  0.0490
50775DOD     C396146  16.791  23.555   0.131 -0.3111  0.0394  0.0515
50776DOD     C196147   7.686   9.133  16.633  0.4410  0.2356 -0.2080
50776DOD     C296148   8.091   8.854  16.589  0.1260 -0.2594  0.3346
50776DOD     C396149   8.547   8.845  16.614 -0.1970  0.0494  0.0775
50777DOD     C196150  27.085  11.757  22.483  0.0246 -0.2313  0.0199
50777DOD     C296151  26.683  11.635  22.690  0.2295  0.1849  0.1782
50777DOD     C396152  26.228  11.609  22.765 -0.1539  0.0298 -0.2349
50778DOD     C196153  16.657  24.999   6.836 -0.0497 -0.0614  0.0268
50778DOD     C296154  16.861  25.159   6.472  0.1125 -0.0716 -0.0379
50778DOD     C396155  16.882  25.026   6.056 -0.1046  0.0974 -0.0702
50779DOD     C196156  26.955  22.320  30.113  0.2364 -0.0358 -0.1387
50779DOD     C296157  27.086  22.624   0.084  0.2229  0.2159  0.0171
50779DOD     C396158  27.460  22.700   0.324  0.1879  0.1020 -0.0895
50780DOD     C196159   9.225   1.524  26.004 -0.1383  0.2899  0.1081
50780DOD     C296160   9.316   1.410  25.520 -0.0735  0.2595  0.2672
50780DOD     C396161   9.735   1.346  25.338 -0.0894  0.0601 -0.1340
50781DOD     C196162  25.545  18.071  16.931  0.1344  0.2483 -0.2975
50781DOD     C296163  25.841  17.758  16.998  0.0624 -0.2056  0.2641
50781DOD     C396164  26.059  17.441  16.739 -0.0464 -0.2254 -0.5273
50782DOD     C196165   6.611   5.810   1.857 -0.0840  0.0943 -0.0305
50782DOD     C296166   6.486   6.135   1.655 -0.0366  0.1182 -0.1010
50782DOD     C396167   6.657   6.421   1.303  0.0011  0.0245  0.0829
50783DOD     C196168  21.756  17.234  22.989  0.0814  0.1057  0.1716
50783DOD     C296169  21.354  16.949  22.857 -0.0977 -0.2746  0.0403
50783DOD     C396170  20.909  16.907  22.715  0.0918 -0.1408 -0.0044
50784DOD     C196171   5.885   0.516  26.362  0.1086  0.0640  0.3329
50784DOD     C296172   5.505   0.644  26.164  0.2334 -0.1473  0.1904
50784DOD     C396173   5.057   0.687  26.317  0.2741 -0.1512 -0.1782
50785DOD     C196174  16.518  16.193  26.346  0.0268 -0.1358 -0.0449
50785DOD     C296175  16.138  16.326  26.579 -0.0257 -0.0314  0.2549
50785DOD     C396176  15.854  16.668  26.665  0.4575 -0.4235  0.3415
50786DOD     C196177   6.317  15.231  28.707 -0.0985  0.1724  0.1898
50786DOD     C296178   5.877  15.372  28.880  0.0315 -0.1429 -0.1701
50786DOD     C396179   5.518  15.573  28.967  0.0123 -0.2264 -0.0283
50787DOD     C196180   9.946  22.537  25.030 -0.1057  0.0134 -0.3325
50787DOD     C296181   9.852  22.767  24.630 -0.4451  0.1677 -0.2740
50787DOD     C396182   9.654  22.946  24.254  0.0247 -0.2885 -0.0621
50788DOD     C196183  19.566   1.573   6.996 -0.0145 -0.0700  0.0210
50788DOD     C296184  19.839   1.838   7.227  0.1533  0.0771  0.2372
50788DOD     C396185  19.914   2.261   7.157 -0.1780 -0.0622  0.0492
50789DOD     C196186  26.344  14.346  24.070 -0.0441  0.4049 -0.1154
50789DOD     C296187  26.331  14.227  24.511  0.2213 -0.0188 -0.3792
50789DOD     C396188  26.517  13.892  24.774  0.1146 -0.1376 -0.0588
50790DOD     C196189  24.911  19.488   3.653  0.1044 -0.1933  0.0303
50790DOD     C296190  24.787  19.904   3.775  0.0276 -0.0846  0.1735
50790DOD     C396191  24.764  20.178   4.161  0.0074 -0.0847  0.1682
50791DOD     C196192  16.996  15.099  10.217 -0.0624 -0.2400  0.3404
50791DOD     C296193  17.343  14.783  10.127 -0.1255 -0.1067  0.3419
50791DOD     C396194  17.636  14.458   9.890  0.4842 -0.1455 -0.0073
50792DOD     C196195   7.633  22.060  21.378 -0.2280  0.0615  0.4404
50792DOD     C296196   7.363  22.308  21.612 -0.1456  0.0762 -0.2567
50792DOD     C396197   7.060  22.265  21.926 -0.0118  0.2329 -0.0777
50793DOD     C196198   9.310  17.845  17.006  0.3976 -0.0475  0.1553
50793DOD     C296199   9.513  17.573  17.274 -0.1945  0.1978  0.2840
50793DOD     C396200   9.846  17.273  17.385 -0.1604 -0.2013 -0.3339
50794DOD     C196201  20.487  29.255  21.012  0.2146 -0.0609 -0.0850
50794DOD     C296202  20.828  29.427  20.737 -0.0374 -0.1176 -0.0585
50794DOD     C396203  21.281  29.505  20.612 -0.1215 -0.2046 -0.0509
50795DOD     C196204   3.041   9.737  24.870  0.2489 -0.0068  0.1056
50795DOD     C296205   2.585   9.750  24.860 -0.2405  0.1455 -0.1706
50795DOD     C396206   2.205   9.638  24.592  0.2685 -0.2059  0.3129
50796DOD     C196207  17.435  19.332  12.103 -0.1403 -0.2618 -0.2582
50796DOD     C296208  17.473  18.832  12.092 -0.3227 -0.2065 -0.0011
50796DOD     C396209  17.813  18.689  11.852  0.1399 -0.1475 -0.1803
50797DOD     C196210  22.950  11.496   8.265 -0.3671 -0.1343  0.2836
50797DOD     C296211  23.038  11.059   8.363  0.0375 -0.4303  0.0761
50797DOD     C396212  23.219  10.664   8.180 -0.0052  0.1201  0.4966
50798DOD     C196213  29.541  30.114   9.041 -0.1292  0.1825  0.0736
50798DOD     C296214  29.149   0.044   9.159 -0.1652  0.0602 -0.1537
50798DOD     C396215  28.775   0.192   9.031  0.2240  0.2395 -0.1298
50799DOD     C196216  16.365   4.120  21.214  0.0157  0.0303  0.2763
50799DOD     C296217  16.424   4.494  21.506 -0.0699  0.3981  0.0317
50799DOD     C396218  16.336   4.896  21.673  0.2024 -0.4745  0.1900
50800DOD     C196219  11.457   8.120   7.206 -0.1021 -0.2323 -0.0681
50800DOD     C296220  11.785   8.502   7.287  0.1998 -0.0755  0.0948
50800DOD     C396221  11.912   8.605   7.735  0.2386 -0.0827  0.1752
50801DOD     C196222   3.604   0.484  22.947  0.1260  0.0827  0.0653
50801DOD     C296223   3.989   0.727  22.800  0.2921 -0.0941  0.0083
50801DOD     C396224   4.421   0.833  22.762  0.2457  0.4985 -0.2555
50802DOD     C196225  20.869   9.250  24.696 -0.0216 -0.2638 -0.1250
50802DOD     C296226  21.011   9.560  25.006 -0.0164  0.3589 -0.1871
50802DOD     C396227  20.945   9.935  25.348 -0.0458 -0.2191 -0.3346
50803DOD     C196228  24.609   9.556  18.450  0.1316  0.0056 -0.0789
50803DOD     C296229  24.648   9.377  18.847 -0.2443 -0.3195 -0.2068
50803DOD     C396230  24.470   9.297  19.260  0.2071  0.1117  0.2900
50804DOD     C196231  27.137   1.139   3.444 -0.0185 -0.0989 -0.1024
50804DOD     C296232  27.346   0.707   3.504  0.0502  0.0326 -0.0789
50804DOD     C396233  27.774   0.507   3.657  0.2217  0.2070  0.0036
50805DOD     C196234  10.114  21.864  18.816 -0.1281  0.0851  0.0588
50805DOD     C296235   9.951  22.244  18.995 -0.0579  0.1078  0.0030
50805DOD     C396236   9.898  22.482  19.408 -0.3084  0.1200  0.0442
50806DOD     C196237   1.896  11.185  30.245  0.0347  0.2791 -0.1237
50806DOD     C296238   2.116  11.458  29.911 -0.1936 -0.1571 -0.0111
50806DOD     C396239   2.357  11.886  29.789 -0.0046 -0.1762  0.2261
50807DOD     C196240  24.327  26.836  19.413  0.0494 -0.0338  0.1407
50807DOD     C296241  24.312  26.636  18.994 -0.0006 -0.0027  0.2428
50807DOD     C396242  24.380  26.709  18.529  0.3752 -0.0220 -0.1541
50808DOD     C196243   5.964   9.159  17.447 -0.1179 -0.0532 -0.0433
50808DOD     C296244   5.843   9.545  17.296  0.0192  0.2443 -0.1335
50808DOD     C396245   5.760  10.020  17.313  0.1164  0.0311  0.0185
50809DOD     C196246   2.022  14.979   9.644 -0.0263 -0.0546  0.1290
50809DOD     C296247   1.912  14.799   9.242  0.0037  0.2862  0.0900
50809DOD     C396248   2.152  14.839   8.815 -0.2928  0.0554  0.0677
50810DOD     C196249   3.638   6.867  29.360 -0.0760  0.1257  0.1235
50810DOD     C296250   3.411   7.219  29.485 -0.0516 -0.0956 -0.3377
50810DOD     C396251   3.221   7.601  29.343  0.1192  0.1183 -0.1633
50811DOD     C196252  15.065  15.934  12.725 -0.0327 -0.1498 -0.0403
50811DOD     C296253  15.411  16.071  13.004 -0.3397  0.0341 -0.0667
50811DOD     C396254  15.681  15.791  13.239 -0.0963  0.0475  0.0482
50812DOD     C196255  18.596   7.101  26.252 -0.0204  0.1047 -0.2693
50812DOD     C296256  18.987   6.880  26.392  0.1428  0.1312  0.1456
50812DOD     C396257  19.144   6.494  26.621  0.0130  0.2337 -0.0932
50813DOD     C196258  20.132   8.214  26.553  0.0161  0.1525  0.2906
50813DOD     C296259  19.830   7.931  26.347  0.0538  0.2354  0.1165
50813DOD     C396260  19.506   7.724  26.517 -0.1796  0.0566  0.1450
50814DOD     C196261  30.101   4.758  24.129  0.2095  0.1411  0.0080
50814DOD     C296262  29.793   4.580  24.452  0.0583 -0.0437  0.2464
50814DOD     C396263  29.543   4.557  24.851 -0.1099  0.1391 -0.1279
50815DOD     C196264   4.786  11.322  23.397  0.1129  0.1891  0.2596
50815DOD     C296265   4.728  11.771  23.443  0.1623 -0.2007 -0.2600
50815DOD     C396266   4.854  12.193  23.307  0.0323 -0.0535 -0.1177
50816DOD     C196267  28.102   1.866  25.387  0.0111  0.0216  0.0363
50816DOD     C296268  27.897   2.149  25.690 -0.1396  0.0560 -0.3573
50816DOD     C396269  27.890   2.609  25.873  0.4205  0.3498  0.2856
50817DOD     C196270  22.723  10.021  17.831 -0.1788 -0.1208  0.2254
50817DOD     C296271  22.953   9.833  18.189 -0.0655 -0.2955  0.0388
50817DOD     C396272  23.314   9.667  18.332  0.0587  0.5514  0.1936
50818DOD     C196273   2.407  27.843  17.681  0.0944  0.1000 -0.2001
50818DOD     C296274   2.743  27.920  17.943 -0.1239 -0.1043 -0.2655
50818DOD     C396275   3.100  28.221  17.853  0.1193 -0.1201 -0.0181
50819DOD     C196276  24.568  20.995  14.154  0.2117  0.1527  0.1081
50819DOD     C296277  24.155  20.937  14.319 -0.0163 -0.0161  0.0142
50819DOD     C396278  23.862  20.578  14.250 -0.2129 -0.0870  0.0635
50820DOD     C196279  27.849  19.229  28.464  0.1704  0.0643  0.2389
50820DOD     C296280  28.243  19.374  28.224 -0.2433 -0.1687 -0.0124
50820DOD     C396281  28.724  19.323  28.311  0.2593 -0.1669  0.3312
50821DOD     C196282  12.072  21.806  20.667  0.2236  0.0068  0.2395
50821DOD     C296283  12.116  22.155  20.386 -0.2384 -0.1742  0.0742
50821DOD     C396284  12.291  22.566  20.172 -0.0248  0.0281  0.2010
50822DOD     C196285  23.889  16.696  24.536  0.1092  0.1732 -0.4218
50822DOD     C296286  24.108  16.346  24.344  0.0289 -0.0086 -0.1506
50822DOD     C396287  24.187  15.949  24.188  0.0313  0.0267  0.1214
50823DOD     C196288  21.578   2.677  26.050 -0.0117 -0.2751  0.0546
50823DOD     C296289  21.135   2.566  25.959  0.1188  0.3040 -0.2907
50823DOD     C396290  20.787   2.320  25.688 -0.2985  0.0851 -0.4818
50824DOD     C196291   5.105  24.663  18.016 -0.0529 -0.3593 -0.1756
50824DOD     C296292   4.999  25.132  18.118 -0.1490  0.2288  0.0896
50824DOD     C396293   4.592  25.356  18.240 -0.0039  0.1112  0.3953
50825DOD     C196294   6.459   7.240  28.353  0.1831 -0.3314 -0.0230
50825DOD     C296295   5.993   7.178  28.212  0.4032  0.1847 -0.0657
50825DOD     C396296   5.594   7.211  27.928 -0.0269 -0.2100  0.2533
50826DOD     C196297  16.973  16.619  14.834  0.0614  0.2934 -0.1710
50826DOD     C296298  16.813  16.495  15.267 -0.4598 -0.0632  0.0366
50826DOD     C396299  16.666  16.457  15.737  0.0680  0.0611 -0.1514
50827DOD     C196300   3.193  27.934  21.324  0.0793 -0.2422 -0.1190
50827DOD     C296301   3.549  28.118  21.270  0.1958 -0.1102 -0.0235
50827DOD     C396302   3.919  28.011  21.346 -0.0062  0.0249 -0.2619
50828DOD     C196303  11.557  19.589  10.645 -0.1156  0.0457 -0.1067
50828DOD     C296304  11.142  19.624  10.411  0.0617  0.1779  0.3180
50828DOD     C396305  10.985  19.634   9.953  0.0612 -0.0636  0.2233
50829DOD     C196306  25.441  22.742   4.425  0.0258  0.1802 -0.1771
50829DOD     C296307  25.484  22.476   4.022 -0.0224  0.0617 -0.2169
50829DOD     C396308  25.620  22.357   3.577 -0.3231 -0.1926  0.0234
50830DOD     C196309  30.182  15.933   4.773 -0.1748  0.3585 -0.1082
50830DOD     C296310  29.968  16.302   4.977  0.1001  0.0703  0.1652
50830DOD     C396311  29.943  16.566   5.345 -0.3063 -0.2064  0.0757
50831DOD     C196312   6.598  22.939   3.329 -0.0251  0.0340  0.3850
50831DOD     C296313   6.842  22.847   3.731 -0.1566  0.1084 -0.1568
50831DOD     C396314   6.840  22.787   4.236  0.2696 -0.1013  0.0973
50832DOD     C196315   7.926  13.059  18.461  0.0252  0.2918 -0.0065
50832DOD     C296316   8.110  13.033  18.870 -0.0155 -0.0874 -0.2155
50832DOD     C396317   8.462  12.699  18.935  0.0965 -0.1179 -0.0120
50833DOD     C196318  12.591   5.846  15.580  0.2384 -0.2382  0.0069
50833DOD     C296319  12.947   5.527  15.624 -0.2167 -0.2709 -0.0151
50833DOD     C396320  13.418   5.404  15.691  0.0159 -0.1385  0.2265
50834DOD     C196321   0.145   4.142  23.497 -0.1849  0.0008 -0.2779
50834DOD     C296322  30.099   3.827  23.625  0.0140  0.2227 -0.1675
50834DOD     C396323  29.670   3.691  23.770 -0.4054  0.5402 -0.2397
50835DOD     C196324  20.883  29.331  14.621 -0.2694 -0.0015 -0.0490
50835DOD     C296325  20.837  29.321  14.171  0.1141  0.1705 -0.0355
50835DOD     C396326  20.656  28.978  13.966 -0.0011  0.1710 -0.0117
50836DOD     C196327   1.533   5.620  28.182 -0.1121 -0.1440  0.2099
50836DOD     C296328   1.610   5.835  27.788  0.0259  0.0801 -0.0356
50836DOD     C396329   1.400   6.103  27.534  0.1773  0.1795 -0.2019
50837DOD     C196330  21.494   5.642  12.009 -0.2295 -0.0750  0.2105
50837DOD     C296331  21.843   5.954  11.870 -0.0050  0.2187 -0.1941
50837DOD     C396332  22.191   6.153  11.970  0.0544  0.2006  0.0597
50838DOD     C196333  23.522   2.278   1.566 -0.0741  0.0448  0.1076
50838DOD     C296334  23.617   1.836   1.379  0.1202 -0.0371  0.0324
50838DOD     C396335  23.819   1.609   1.101 -0.1875  0.3379  0.2584
50839DOD     C196336   2.637  12.101  27.612  0.3422  0.1254 -0.0947
50839DOD     C296337   2.188  12.033  27.588 -0.1103 -0.3742  0.3280
50839DOD     C396338   1.726  12.260  27.525  0.0564 -0.1062 -0.0232
50840DOD     C196339  22.624  20.928   5.177 -0.1246  0.3137 -0.1456
50840DOD     C296340  22.468  20.755   5.596 -0.3845  0.0287 -0.0978
50840DOD     C396341  22.255  20.940   5.951  0.0829  0.0577 -0.2388
50841DOD     C196342  11.134  27.537  29.784 -0.4090 -0.0149  0.1939
50841DOD     C296343  11.488  27.815  29.818  0.1015  0.1824 -0.0923
50841DOD     C396344  11.531  28.232  30.098  0.1117  0.1972  0.2779
50842DOD     C196345  21.352  11.525  14.216  0.3405 -0.1201 -0.3293
50842DOD     C296346  21.760  11.690  14.300  0.0267 -0.1368 -0.3020
50842DOD     C396347  22.213  11.444  14.365 -0.0315 -0.3416 -0.1468
50843DOD     C196348  17.273  13.958   0.393 -0.1134  0.0462  0.1972
50843DOD     C296349  17.100  13.751   0.056 -0.1358  0.4124 -0.0920
50843DOD     C396350  16.810  13.428  30.231  0.1455  0.0661  0.1719
50844DOD     C196351   8.207   0.777   9.112  0.1410 -0.1322 -0.1521
50844DOD     C296352   8.459   1.131   9.248 -0.0755  0.0446 -0.1399
50844DOD     C396353   8.757   1.451   9.359 -0.2394 -0.0501 -0.2426
50845DOD     C196354  18.526  26.441   6.926 -0.0038 -0.0048  0.2648
50845DOD     C296355  18.697  26.813   6.737  0.1300  0.0941 -0.0430
50845DOD     C396356  18.849  27.243   6.557 -0.1731 -0.0341  0.2170
50846DOD     C196357   7.709  28.494   2.552  0.0527 -0.1620  0.0673
50846DOD     C296358   7.375  28.844   2.647  0.1054  0.0536  0.0474
50846DOD     C396359   7.116  28.960   2.978  0.1805  0.0134  0.0442
50847DOD     C196360  16.365  26.160  28.922  0.2110  0.0270  0.0714
50847DOD     C296361  15.980  26.128  28.846 -0.0330  0.0577  0.3917
50847DOD     C396362  15.582  25.894  28.959 -0.1345 -0.1073  0.2599
50848DOD     C196363  16.137  18.611   9.356 -0.1367  0.1649 -0.1115
50848DOD     C296364  15.752  18.633   9.509  0.0263  0.0838 -0.1365
50848DOD     C396365  15.379  18.844   9.328  0.1676 -0.2105 -0.0457
50849DOD     C196366  26.240  15.178   7.879 -0.3347 -0.1737  0.0335
50849DOD     C296367  26.506  15.073   8.237 -0.0715  0.0470  0.0062
50849DOD     C396368  26.825  14.878   8.447 -0.2892  0.3609  0.0827
50850DOD     C196369   7.038  27.717   3.603 -0.4672  0.2253 -0.1785
50850DOD     C296370   7.414  28.009   3.689 -0.0421 -0.1004  0.1870
50850DOD     C396371   7.795  28.168   3.583 -0.0375  0.0993  0.1679
50851DOD     C196372  13.998  15.162  23.838  0.0656 -0.1035  0.0675
50851DOD     C296373  13.689  14.839  24.017  0.1440 -0.1536  0.1213
50851DOD     C396374  13.497  14.533  24.266  0.1890 -0.0144  0.1820
50852DOD     C196375  17.652  14.122  20.724 -0.1011 -0.0539 -0.1868
50852DOD     C296376  17.400  14.425  21.041 -0.2316 -0.0695  0.0927
50852DOD     C396377  17.191  14.362  21.425  0.1435 -0.1278  0.1811
50853DOD     C196378  27.345   3.769   2.249 -0.0332 -0.1160 -0.0298
50853DOD     C296379  27.518   4.208   2.141 -0.2313 -0.1266  0.0373
50853DOD     C396380  27.654   4.542   1.829 -0.0358  0.1904  0.0285
50854DOD     C196381  25.163   3.177  11.920 -0.0217  0.2788  0.1616
50854DOD     C296382  24.782   2.912  12.039  0.1271  0.1548  0.2387
50854DOD     C396383  24.270   2.869  12.103  0.0326 -0.0492  0.1702
50855DOD     C196384  16.412  13.982  26.222 -0.0069 -0.0524 -0.0268
50855DOD     C296385  16.443  14.497  26.254 -0.0843 -0.2198 -0.2616
50855DOD     C396386  16.287  14.871  26.478  0.0640  0.0535 -0.3493
50856DOD     C196387  15.732   4.154  28.119 -0.0680 -0.0022  0.1521
50856DOD     C296388  15.393   4.086  27.735 -0.4372 -0.1580  0.2656
50856DOD     C396389  15.119   3.969  27.375 -0.1349 -0.0622  0.1774
50857DOD     C196390  23.708   1.668  19.163 -0.1900 -0.1272 -0.0260
50857DOD     C296391  23.907   1.286  19.370  0.0304 -0.0958  0.0620
50857DOD     C396392  23.958   1.047  19.802  0.0638  0.1785  0.2976
50858DOD     C196393  26.060   4.750  25.791  0.0153 -0.0242 -0.0392
50858DOD     C296394  25.646   4.473  25.818 -0.0371 -0.1989  0.2817
50858DOD     C396395  25.350   4.178  25.597 -0.1163 -0.1135  0.2639
50859DOD     C196396  28.369   1.110   2.563 -0.1393 -0.0122  0.0453
50859DOD     C296397  28.172   1.236   2.127 -0.0812  0.3183  0.0641
50859DOD     C396398  27.828   1.409   1.896  0.3005  0.6006  0.2033
50860DOD     C196399  28.844  19.442  15.562  0.1374  0.0078 -0.1983
50860DOD     C296400  28.369  19.341  15.666 -0.1755  0.1263 -0.2091
50860DOD     C396401  28.239  19.189  16.068 -0.2809 -0.0145  0.2247
50861DOD     C196402  28.700   6.956  11.415 -0.0244 -0.0192 -0.1235
50861DOD     C296403  28.485   7.376  11.320 -0.2800  0.0296 -0.0107
50861DOD     C396404  28.578   7.870  11.396  0.0859  0.0121  0.1636
50862DOD     C196405  14.851  18.357  17.478 -0.1305  0.3146 -0.1494
50862DOD     C296406  14.431  18.529  17.667 -0.0122 -0.0942  0.0858
50862DOD     C396407  14.226  18.942  17.806  0.1668  0.2212 -0.0974
50863DOD     C196408  28.959  23.426  17.266 -0.1423  0.2751 -0.2955
50863DOD     C296409  28.691  23.830  17.287 -0.0292  0.1159  0.0024
50863DOD     C396410  28.766  24.275  17.433 -0.0070  0.0581  0.2228
50864DOD     C196411   7.251   2.436  22.809  0.0426  0.2213 -0.2740
50864DOD     C296412   6.859   2.295  22.961 -0.0994 -0.0425  0.2661
50864DOD     C396413   6.482   2.059  22.835  0.1314 -0.2834  0.0688
50865DOD     C196414  15.569  24.170  12.740 -0.0352 -0.2352  0.1637
50865DOD     C296415  15.513  24.599  12.971  0.1263 -0.3306  0.3760
50865DOD     C396416  15.234  24.876  13.131  0.0269 -0.2898 -0.0725
50866DOD     C196417  18.379  11.059   8.031  0.0923  0.0880  0.1224
50866DOD     C296418  18.239  11.270   7.634  0.1442  0.0399 -0.1837
50866DOD     C396419  18.171  11.237   7.215  0.2249 -0.2949  0.2578
50867DOD     C196420  23.088  13.789  30.200  0.2174  0.0093  0.1748
50867DOD     C296421  23.205  13.374  30.327 -0.0485 -0.0374 -0.0579
50867DOD     C396422  23.216  12.909  30.284  0.1407  0.3205  0.0924
50868DOD     C196423  21.910  24.688   6.133  0.0055  0.0798  0.2516
50868DOD     C296424  21.622  24.955   6.351  0.0038  0.0909  0.0132
50868DOD     C396425  21.386  25.135   6.655  0.0412 -0.2077 -0.0979
50869DOD     C196426   4.870  13.875  29.001  0.2923 -0.0456 -0.2677
50869DOD     C296427   4.878  13.397  29.041  0.2201 -0.0555  0.5142
50869DOD     C396428   4.607  13.094  28.760 -0.0288 -0.1454 -0.1847
50870DOD     C196429  13.592  28.633   6.767  0.1287  0.0890  0.0113
50870DOD     C296430  13.801  28.991   6.919 -0.0951  0.0204 -0.1361
50870DOD     C396431  14.151  29.240   7.102 -0.0505 -0.0021 -0.0567
50871DOD     C196432   3.693  27.454   3.494  0.0987 -0.1076 -0.1347
50871DOD     C296433   3.801  27.881   3.662 -0.0345  0.1393 -0.2642
50871DOD     C396434   3.885  28.348   3.781  0.0053 -0.0293  0.2935
50872DOD     C196435   4.006  20.601   5.632  0.2545  0.1597 -0.0265
50872DOD     C296436   3.621  20.746   5.800  0.1610 -0.0519  0.0390
50872DOD     C396437   3.186  20.667   6.005  0.3717 -0.1695  0.2406
50873DOD     C196438  23.751   1.223  17.794 -0.1484 -0.3087 -0.2252
50873DOD     C296439  23.580   1.023  18.212  0.0756  0.0094 -0.1515
50873DOD     C396440  23.685   0.653  18.436 -0.1952 -0.2332  0.1264
50874DOD     C196441  22.966   2.825  12.858 -0.2210 -0.1259  0.0818
50874DOD     C296442  22.706   3.265  12.823  0.0188 -0.1647 -0.1507
50874DOD     C396443  22.622   3.719  12.730 -0.0350 -0.0948 -0.0842
50875DOD     C196444  19.458   3.703  16.006  0.1199 -0.0356  0.2505
50875DOD     C296445  19.625   3.266  15.832  0.0211  0.1230 -0.1312
50875DOD     C396446  19.526   2.852  15.606  0.0052 -0.3075 -0.1739
50876DOD     C196447  11.242   3.603  20.613  0.3633  0.2707  0.0169
50876DOD     C296448  10.992   3.722  20.239  0.2154 -0.0526 -0.1414
50876DOD     C396449  10.516   3.802  20.216 -0.2119 -0.2319  0.2139
50877DOD     C196450  19.292  15.188  16.994 -0.0661  0.2072 -0.1997
50877DOD     C296451  19.231  15.610  16.904 -0.0195  0.1562 -0.0163
50877DOD     C396452  19.204  15.902  16.568 -0.1123  0.2489 -0.2571
50878DOD     C196453  23.568  27.267   0.473  0.1572 -0.2390 -0.4862
50878DOD     C296454  23.340  27.366   0.923  0.0036  0.0723  0.1623
50878DOD     C396455  23.021  27.353   1.278  0.2109  0.0967  0.0318
50879DOD     C196456  28.030  15.932  29.368  0.1288  0.1368  0.0198
50879DOD     C296457  28.148  16.031  29.797  0.2743  0.1133 -0.3338
50879DOD     C396458  28.389  15.687  30.034  0.0333 -0.0503  0.3247
50880DOD     C196459  25.469  14.901  29.953 -0.1154 -0.0494 -0.0151
50880DOD     C296460  25.845  14.993  30.009 -0.1631 -0.0944  0.1267
50880DOD     C396461  26.243  14.936  29.781 -0.1479 -0.1715 -0.2769
50881DOD     C196462  19.487  10.071  13.529  0.3085  0.0062 -0.3297
50881DOD     C296463  19.889  10.222  13.298  0.1710 -0.0671  0.0332
50881DOD     C396464  20.229  10.471  13.262  0.2784 -0.1004 -0.3982
50882DOD     C196465  10.197  10.070  17.943  0.1771  0.0694  0.0988
50882DOD     C296466   9.904   9.858  17.610 -0.0953 -0.0192 -0.0528
50882DOD     C396467   9.486   9.733  17.376  0.2562  0.0118  0.0763
50883DOD     C196468  27.036  20.577   4.948 -0.0093 -0.0154 -0.3664
50883DOD     C296469  27.423  20.816   5.137  0.0785  0.1202  0.2426
50883DOD     C396470  27.770  21.051   5.342  0.0729 -0.1591 -0.2039
50884DOD     C196471   4.261  14.270  18.827  0.2940 -0.4755  0.1957
50884DOD     C296472   3.973  14.615  18.638 -0.3988  0.1779  0.0880
50884DOD     C396473   3.687  14.951  18.725 -0.1380 -0.0780 -0.0767
50885DOD     C196474   9.670   7.168  16.522 -0.1361  0.1881 -0.1332
50885DOD     C296475   9.622   7.486  16.899 -0.2277 -0.0422  0.0745
50885DOD     C396476   9.491   7.904  17.111 -0.1409  0.2526 -0.0145
50886DOD     C196477  23.553   0.742   6.383 -0.2119  0.2033 -0.1176
50886DOD     C296478  23.207   1.083   6.434  0.0961 -0.1404  0.1511
50886DOD     C396479  22.799   1.358   6.477 -0.0103 -0.1692 -0.0198
50887DOD     C196480  18.894  11.989  12.992  0.2082 -0.2834  0.0761
50887DOD     C296481  19.327  12.057  13.089  0.2159 -0.2617  0.0524
50887DOD     C396482  19.643  12.197  13.383  0.1715 -0.0686  0.1055
50888DOD     C196483  25.019  20.189   6.346  0.3265  0.1835 -0.0409
50888DOD     C296484  25.035  20.210   5.869 -0.1223 -0.3878  0.2909
50888DOD     C396485  25.373  20.346   5.544  0.0852 -0.2318  0.0108
50889DOD     C196486   0.292  19.948   4.013 -0.5633  0.0375 -0.1716
50889DOD     C296487  30.329  20.267   4.035  0.1164  0.3554 -0.0636
50889DOD     C396488  29.925  20.526   3.991 -0.0494  0.1325  0.0968
50890DOD     C196489   4.942   9.876  12.337 -0.1565  0.2234  0.0087
50890DOD     C296490   4.514   9.965  12.339  0.1123  0.0153  0.0176
50890DOD     C396491   4.072   9.834  12.472  0.1646  0.1131  0.2068
50891DOD     C196492  23.036  26.412  20.872  0.1191  0.2802  0.1482
50891DOD     C296493  22.726  26.712  20.541 -0.1912  0.1109  0.0909
50891DOD     C396494  22.346  27.006  20.500  0.3485 -0.0854 -0.2999
50892DOD     C196495  24.205  11.540  26.381  0.0275 -0.3471  0.0047
50892DOD     C296496  24.114  11.456  25.963  0.0487  0.0449 -0.1319
50892DOD     C396497  23.834  11.251  25.677  0.3729  0.1393  0.0131
50893DOD     C196498  16.783  25.195  26.334 -0.1679  0.0364  0.1590
50893DOD     C296499  16.861  24.820  26.074  0.0459  0.4436 -0.0686
50893DOD     C396500  17.052  24.391  26.157  0.2611 -0.2422 -0.2573
50894DOD     C196501  15.483  29.083  15.440  0.0916 -0.3729 -0.1064
50894DOD     C296502  15.922  28.907  15.634 -0.1447  0.1785  0.0651
50894DOD     C396503  16.198  28.947  15.999 -0.3305  0.2423 -0.0917
50895DOD     C196504   4.811  27.998   9.084  0.2445 -0.1875  0.2857
50895DOD     C296505   4.841  28.112   9.545 -0.1892  0.0975  0.1292
50895DOD     C396506   4.743  28.165  10.024 -0.0039 -0.2267 -0.3888
50896DOD     C196507  20.331  17.475   2.181 -0.0142  0.1159 -0.3184
50896DOD     C296508  20.327  17.564   2.615 -0.1835 -0.0273 -0.0500
50896DOD     C396509  20.484  17.411   3.059 -0.0174 -0.1440 -0.0803
50897DOD     C196510   1.539  11.115   8.888  0.1161 -0.0723 -0.4416
50897DOD     C296511   1.313  11.549   8.895  0.2531  0.2496 -0.4032
50897DOD     C396512   1.349  12.012   8.895 -0.2862 -0.3574 -0.0850
50898DOD     C196513  14.853   5.763  10.318  0.0376 -0.0318 -0.0672
50898DOD     C296514  14.925   5.371  10.019 -0.1386 -0.1733 -0.1156
50898DOD     C396515  15.387   5.314   9.859 -0.1594  0.3911 -0.1196
50899DOD     C196516   6.702   6.339  29.671 -0.0715 -0.0039 -0.2682
50899DOD     C296517   6.549   6.702  29.967  0.0182  0.0696 -0.0470
50899DOD     C396518   6.770   6.792   0.018  0.0950  0.3131  0.0797
50900DOD     C196519  24.464  25.550  19.212  0.0297  0.0688 -0.5054
50900DOD     C296520  24.849  25.536  19.028  0.2376 -0.0586  0.0526
50900DOD     C396521  25.089  25.082  18.971 -0.0024  0.0683  0.2697
50901DOD     C196522  15.213  14.491   7.993  0.0401 -0.0883  0.1040
50901DOD     C296523  15.069  14.903   7.955  0.3111 -0.2240 -0.0672
50901DOD     C396524  15.042  15.381   7.968 -0.0855  0.0210  0.0940
50902DOD     C196525  10.730  22.286   4.904  0.2713 -0.0656  0.2298
50902DOD     C296526  10.822  22.771   4.908 -0.0962 -0.1504  0.0353
50902DOD     C396527  10.495  23.088   4.839  0.2384  0.1889  0.1233
50903DOD     C196528  19.269   5.271  17.569 -0.0179 -0.2674 -0.2714
50903DOD     C296529  19.407   5.710  17.559 -0.1480  0.2344 -0.1120
50903DOD     C396530  19.318   6.174  17.648 -0.2874 -0.0997 -0.0224
50904DOD     C196531  25.718   8.223  19.018 -0.1247 -0.0054 -0.1130
50904DOD     C296532  25.751   8.407  18.575 -0.0975 -0.2826  0.2011
50904DOD     C396533  25.612   8.761  18.291  0.0292 -0.2975 -0.0716
50905DOD     C196534  16.131  25.456  26.415  0.2442  0.1938  0.0406
50905DOD     C296535  16.532  25.632  26.304 -0.2895 -0.1514 -0.1183
50905DOD     C396536  16.865  25.605  25.977 -0.0407 -0.1999  0.1401
50906DOD     C196537   9.853  23.622  22.551 -0.2381  0.0088  0.2474
50906DOD     C296538   9.945  23.640  23.023 -0.1683 -0.1436 -0.0125
50906DOD     C396539  10.263  23.279  23.065  0.1107 -0.1434  0.1320
50907DOD     C196540  21.579   5.958  18.309 -0.0338  0.2541  0.1601
50907DOD     C296541  21.166   5.891  18.464  0.1110 -0.2249  0.0338
50907DOD     C396542  20.749   5.637  18.445 -0.0920 -0.0512  0.0185
50908DOD     C196543   2.596  12.094  14.386  0.0261  0.1631 -0.2203
50908DOD     C296544   2.790  12.513  14.158  0.2807 -0.4142 -0.0387
50908DOD     C396545   3.071  12.777  13.986  0.0338  0.1204  0.1722
50909DOD     C196546   8.138  27.473  26.590  0.5167  0.1788  0.1311
50909DOD     C296547   7.878  27.087  26.488  0.0527  0.1364  0.1903
50909DOD     C396548   7.464  27.006  26.335 -0.1841  0.0224 -0.2605
50910DOD     C196549  24.729  10.766  21.735  0.1583  0.2296  0.0977
50910DOD     C296550  24.412  11.025  21.674 -0.2478  0.3021  0.0627
50910DOD     C396551  24.026  11.304  21.567  0.0319 -0.6461 -0.0107
50911DOD     C196552   4.159  23.735   7.462  0.0010  0.1289 -0.3122
50911DOD     C296553   4.593  23.881   7.521  0.0730 -0.0589 -0.1548
50911DOD     C396554   4.775  24.304   7.572  0.2130  0.1678  0.2173
50912DOD     C196555  14.911   7.733   8.684  0.0248 -0.0787  0.5145
50912DOD     C296556  14.515   8.007   8.818  0.1017 -0.0146  0.1381
50912DOD     C396557  14.108   8.249   8.723  0.0371  0.1103 -0.0218
50913DOD     C196558  23.518  14.784  26.958 -0.4124  0.3255  0.0631
50913DOD     C296559  23.401  15.108  27.304  0.0045 -0.0520  0.0371
50913DOD     C396560  23.226  15.517  27.469 -0.0726 -0.2376 -0.0600
50914DOD     C196561  11.508   0.914  20.605 -0.1237  0.0614 -0.1807
50914DOD     C296562  11.979   1.051  20.770  0.0486 -0.2702  0.2313
50914DOD     C396563  12.192   1.130  21.154  0.0603  0.0461 -0.0054
50915DOD     C196564  28.886  25.139  10.209  0.0733  0.2877  0.0310
50915DOD     C296565  28.724  24.701  10.176 -0.1555  0.1592 -0.2287
50915DOD     C396566  28.729  24.318   9.890 -0.1365 -0.1651  0.0850
50916DOD     C196567   4.214  28.259   0.944  0.0290 -0.0569 -0.1803
50916DOD     C296568   4.041  28.592   1.145 -0.3326 -0.3106  0.1067
50916DOD     C396569   3.791  28.841   1.467 -0.0797 -0.0564  0.0191
50917DOD     C196570  18.148  17.982  10.375  0.1745  0.2441  0.1249
50917DOD     C296571  17.972  18.414  10.568  0.0634  0.0857  0.1203
50917DOD     C396572  18.156  18.849  10.677  0.1802 -0.0993  0.0305
50918DOD     C196573  17.941  14.269  16.479  0.0930 -0.2286 -0.0456
50918DOD     C296574  17.564  14.195  16.712  0.2192  0.0985  0.1503
50918DOD     C396575  17.459  13.871  16.955  0.3042 -0.0777  0.0324
50919DOD     C196576   4.726   0.823  12.131  0.1752  0.0654 -0.0536
50919DOD     C296577   4.328   0.992  12.045 -0.1832 -0.1296 -0.0859
50919DOD     C396578   4.177   1.367  11.746  0.1835  0.1686  0.1791
50920DOD     C196579  15.032  27.489   8.127 -0.0956  0.0834 -0.2693
50920DOD     C296580  14.945  27.790   7.772  0.1468  0.3345 -0.0330
50920DOD     C396581  15.145  27.879   7.379  0.0901 -0.0308 -0.1400
50921DOD     C196582   9.229  14.403  18.840 -0.1848 -0.1757 -0.1684
50921DOD     C296583   9.083  14.856  18.899 -0.0070  0.0280  0.3531
50921DOD     C396584   9.058  15.129  19.267  0.0610  0.0828  0.0512
50922DOD     C196585  21.148   9.791  29.762  0.0508 -0.0656  0.2171
50922DOD     C296586  20.812   9.979  29.960 -0.1823  0.1093  0.1749
50922DOD     C396587  20.364   9.997  30.196  0.0292 -0.0274  0.0318
50923DOD     C196588   2.583  28.390  17.940 -0.0211 -0.0951  0.1908
50923DOD     C296589   2.201  28.279  17.664 -0.0314 -0.2151  0.1091
50923DOD     C396590   1.936  28.175  17.268  0.0120 -0.0776 -0.4165
50924DOD     C196591  15.054  17.272  29.702 -0.0902 -0.0161 -0.0415
50924DOD     C296592  14.809  17.574  29.469 -0.3401 -0.0942  0.0315
50924DOD     C396593  14.761  18.009  29.497 -0.2012 -0.1738  0.4442
50925DOD     C196594   0.913  27.412  17.212 -0.1413 -0.1852 -0.1427
50925DOD     C296595   0.633  27.208  16.983 -0.1826 -0.1107  0.1271
50925DOD     C396596   0.493  26.785  16.872  0.0705  0.1056  0.0845
50926DOD     C196597  19.069   4.097   4.908  0.2770 -0.0759 -0.1352
50926DOD     C296598  18.975   4.568   4.984  0.0141 -0.1557 -0.1259
50926DOD     C396599  18.729   4.927   4.905 -0.2688  0.2723 -0.0877
50927DOD     C196600   5.583  17.656  15.601 -0.0022  0.0648  0.1550
50927DOD     C296601   5.635  17.462  15.189 -0.2164  0.0647  0.1793
50927DOD     C396602   5.567  17.099  14.881 -0.0779 -0.1822  0.0158
50928DOD     C196603  21.343  12.258  23.706  0.0310  0.3752  0.1253
50928DOD     C296604  21.424  12.684  23.614 -0.1312 -0.0250 -0.3012
50928DOD     C396605  21.556  13.098  23.465 -0.0037 -0.1013  0.0997
50929DOD     C196606  29.249   5.553   6.356 -0.2264  0.0208 -0.2952
50929DOD     C296607  29.258   5.941   6.073  0.1524 -0.2475 -0.0953
50929DOD     C396608  29.502   6.255   5.863  0.2705  0.2429  0.2585
50930DOD     C196609  22.862   7.992  10.416  0.1867  0.3117 -0.1645
50930DOD     C296610  22.756   7.808  10.001  0.3034  0.4271  0.0006
50930DOD     C396611  23.030   7.623   9.679 -0.0995 -0.0801 -0.1393
50931DOD     C196612   4.213  29.615   9.436  0.1584  0.4302 -0.1618
50931DOD     C296613   3.883  29.835   9.209  0.2423 -0.1089 -0.0625
50931DOD     C396614   3.470  29.756   9.070 -0.0161  0.0163 -0.0768
50932DOD     C196615  23.602  17.086  24.400 -0.0600  0.2238 -0.1420
50932DOD     C296616  23.336  17.322  24.655 -0.2555  0.0770  0.2381
50932DOD     C396617  23.120  17.535  25.053 -0.3353 -0.1372 -0.1821
50933DOD     C196618  30.111   6.280  13.169 -0.2091 -0.0209 -0.0667
50933DOD     C296619  30.197   6.317  13.641 -0.2889  0.2215  0.0681
50933DOD     C396620   0.116   6.193  14.045  0.0271 -0.1202  0.0216
50934DOD     C196621  10.064   3.833  21.500  0.2129 -0.1407  0.2694
50934DOD     C296622  10.025   4.126  21.899  0.3312  0.0755 -0.0830
50934DOD     C396623  10.226   4.417  22.222 -0.0815 -0.3546  0.0781
50935DOD     C196624  12.580  20.843   1.393  0.0219  0.0616  0.1600
50935DOD     C296625  12.492  20.877   1.841 -0.1894 -0.2683 -0.1133
50935DOD     C396626  12.281  20.741   2.227  0.1432  0.0962  0.3400
50936DOD     C196627  10.481   6.736   1.482 -0.3336  0.1122 -0.1146
50936DOD     C296628  10.907   6.507   1.678  0.1355  0.3614 -0.0630
50936DOD     C396629  11.126   6.207   2.023 -0.0483  0.0361  0.0811
50937DOD     C196630  21.918  20.347  26.891  0.2784 -0.0128 -0.0395
50937DOD     C296631  22.232  20.131  27.186 -0.1477  0.1801  0.2634
50937DOD     C396632  22.297  19.981  27.615 -0.0537  0.3650 -0.0615
50938DOD     C196633  18.045  26.345  11.067  0.1795  0.1871  0.2681
50938DOD     C296634  17.718  26.617  11.292  0.3558 -0.1459 -0.1062
50938DOD     C396635  17.433  26.962  11.167  0.1653 -0.1367 -0.0620
50939DOD     C196636   9.200  18.390   9.942  0.2922 -0.1317  0.1309
50939DOD     C296637   8.891  18.165   9.683  0.3263  0.0408 -0.3247
50939DOD     C396638   8.840  17.872   9.305 -0.0995 -0.2364  0.0106
50940DOD     C196639  12.676   7.254   2.047  0.1131 -0.3792  0.1177
50940DOD     C296640  12.370   7.167   1.664 -0.2755  0.1621 -0.1699
50940DOD     C396641  11.963   7.142   1.428  0.0553  0.1277  0.0744
50941DOD     C196642  21.131  26.179   2.106 -0.2777  0.1472  0.0936
50941DOD     C296643  21.217  26.422   2.487  0.1457 -0.1125 -0.2473
50941DOD     C396644  21.508  26.411   2.859 -0.3731 -0.0615 -0.1942
50942DOD     C196645  11.302  12.796   8.862  0.1018  0.4076  0.0581
50942DOD     C296646  11.722  12.933   8.855 -0.1870  0.0829 -0.2092
50942DOD     C396647  11.869  13.226   9.181 -0.0597 -0.1286  0.2489
50943DOD     C196648  28.857  22.619   2.645 -0.1042 -0.1667 -0.1774
50943DOD     C296649  28.645  23.001   2.461  0.1079 -0.4696  0.1138
50943DOD     C396650  28.257  23.307   2.590 -0.2250  0.1507  0.0598
50944DOD     C196651  27.588   3.706  13.341  0.1948 -0.0342 -0.1335
50944DOD     C296652  27.370   3.794  13.706  0.0303 -0.0160 -0.1160
50944DOD     C396653  27.070   4.031  13.999 -0.1972 -0.0185  0.0599
50945DOD     C196654   1.021  28.354  19.611  0.3907 -0.0431  0.1359
50945DOD     C296655   1.442  28.568  19.520  0.0609  0.0743 -0.3011
50945DOD     C396656   1.603  28.969  19.607 -0.1557  0.0793  0.0324
50946DOD     C196657  16.483   8.388   5.088  0.2386 -0.0479  0.0607
50946DOD     C296658  16.801   8.439   5.405  0.3279  0.1725  0.0464
50946DOD     C396659  17.004   8.319   5.789  0.0995 -0.3247 -0.0167
50947DOD     C196660  23.894   7.281   4.410  0.2206  0.0484  0.3523
50947DOD     C296661  23.751   7.204   3.961 -0.1898  0.3186 -0.0024
50947DOD     C396662  23.658   7.507   3.644 -0.1511  0.1382 -0.1207
50948DOD     C196663   7.948   7.183   9.869 -0.1960  0.1059  0.3150
50948DOD     C296664   7.482   7.364   9.897  0.2509  0.0098 -0.2787
50948DOD     C396665   7.087   7.218  10.092  0.0453 -0.2734 -0.2027
50949DOD     C196666  29.035  29.028   7.308  0.2521  0.1174  0.3713
50949DOD     C296667  29.416  29.106   7.229  0.1112 -0.0247  0.1735
50949DOD     C396668  29.768  29.413   7.333 -0.0136 -0.2266  0.0872
50950DOD     C196669   9.300   8.224  25.525  0.0906  0.0237 -0.1888
50950DOD     C296670   9.301   8.699  25.531 -0.2186 -0.0063 -0.2336
50950DOD     C396671   9.609   8.964  25.817 -0.0267 -0.1103  0.0453
50951DOD     C196672  18.204  18.280  26.629 -0.1243 -0.0578  0.1497
50951DOD     C296673  17.889  18.445  26.946 -0.0462  0.2496  0.0867
50951DOD     C396674  17.699  18.575  27.338 -0.1968  0.1215  0.2249
50952DOD     C196675  17.175  19.721  18.722  0.1737  0.0498  0.1635
50952DOD     C296676  17.042  20.115  18.684  0.1394 -0.1437 -0.1296
50952DOD     C396677  16.985  20.411  19.041 -0.3093  0.0930 -0.2935
50953DOD     C196678  12.424  25.845  18.693 -0.1785 -0.3251  0.2889
50953DOD     C296679  12.008  26.006  18.554 -0.2422  0.2708 -0.0488
50953DOD     C396680  11.905  26.455  18.453 -0.1916 -0.0428 -0.0212
50954DOD     C196681   8.427   4.310  13.099 -0.2313  0.0245  0.2185
50954DOD     C296682   8.311   4.477  13.480  0.1404 -0.2691  0.1303
50954DOD     C396683   8.242   4.645  13.932 -0.2715 -0.1216 -0.0064
50955DOD     C196684  10.290  13.714  12.939 -0.1375  0.1776  0.1353
50955DOD     C296685  10.038  14.082  13.054 -0.2121  0.3171 -0.0079
50955DOD     C396686   9.952  14.447  12.837 -0.2386 -0.1691  0.1743
50956DOD     C196687  13.688  25.494  21.142  0.0047 -0.0796 -0.2072
50956DOD     C296688  13.332  25.159  21.168 -0.2183  0.4011  0.1958
50956DOD     C396689  13.096  24.793  21.225 -0.0875  0.0969 -0.3155
50957DOD     C196690  20.650  20.570   7.407  0.0908  0.0505 -0.1010
50957DOD     C296691  20.752  20.490   6.953  0.0954  0.2843  0.2052
50957DOD     C396692  21.093  20.521   6.602  0.2415  0.2331  0.1313
50958DOD     C196693   4.749  20.912   6.170 -0.2522 -0.2360  0.0701
50958DOD     C296694   5.139  20.967   6.232  0.0304  0.1588  0.1565
50958DOD     C396695   5.346  20.864   6.570  0.1871  0.2300 -0.1971
50959DOD     C196696  15.850  13.857  23.550 -0.2871 -0.0209  0.1860
50959DOD     C296697  15.821  13.501  23.219  0.0593 -0.1527 -0.2121
50959DOD     C396698  15.602  13.167  23.013 -0.1753 -0.2841 -0.1389
50960DOD     C196699  15.413  16.221   9.715  0.1136 -0.0153  0.0703
50960DOD     C296700  15.574  15.803   9.776  0.1978  0.1550  0.1722
50960DOD     C396701  15.440  15.347   9.665  0.1696 -0.4256  0.0479
50961DOD     C196702   2.242  29.531  10.782  0.0765  0.0102  0.2174
50961DOD     C296703   2.475  29.899  10.604  0.1511 -0.0772 -0.1652
50961DOD     C396704   2.244  29.975  10.233  0.2498 -0.0489 -0.2193
50962DOD     C196705  16.953  12.679  13.756 -0.1708  0.3415 -0.0528
50962DOD     C296706  16.991  13.130  13.675  0.0025  0.0789  0.3238
50962DOD     C396707  16.743  13.475  13.407  0.2103 -0.2247  0.1041
50963DOD     C196708  20.045  22.391  12.864 -0.0068 -0.1722  0.2785
50963DOD     C296709  19.662  22.544  12.963  0.0969 -0.1460  0.4409
50963DOD     C396710  19.345  22.570  12.654 -0.2108 -0.3444 -0.0929
50964DOD     C196711  14.416  21.588  24.317 -0.0923  0.1363 -0.2992
50964DOD     C296712  14.823  21.767  24.411 -0.0668 -0.1519  0.0287
50964DOD     C396713  15.144  22.089  24.555  0.0804 -0.0248 -0.5095
50965DOD     C196714  29.297  14.295  27.690  0.0587 -0.2022 -0.0543
50965DOD     C296715  29.232  14.740  27.658 -0.2940 -0.1582 -0.1009
50965DOD     C396716  29.169  15.210  27.566 -0.1717 -0.0907 -0.5496
50966DOD     C196717   5.533  12.606   0.636  0.3606  0.0277 -0.1986
50966DOD     C296718   5.278  13.039   0.720  0.0047 -0.1157 -0.3195
50966DOD     C396719   5.164  13.278   1.082 -0.3535  0.4229  0.0685
50967DOD     C196720  13.339  25.136  17.589  0.0115  0.1836  0.0636
50967DOD     C296721  13.647  24.859  17.759 -0.0902  0.0324 -0.2955
50967DOD     C396722  13.553  24.408  17.680  0.0310 -0.0105 -0.0292
50968DOD     C196723  26.111  13.694  20.950 -0.1145 -0.0292  0.3143
50968DOD     C296724  26.379  14.010  21.170  0.2549 -0.1548  0.1069
50968DOD     C396725  26.787  14.272  21.297 -0.1596 -0.2286 -0.1831
50969DOD     C196726  10.931  13.187  29.304 -0.1337 -0.0410 -0.1327
50969DOD     C296727  10.915  13.613  29.146 -0.0128 -0.0874 -0.0050
50969DOD     C396728  10.665  14.003  29.290 -0.1318  0.0775 -0.4011
50970DOD     C196729   2.514  27.339   5.640 -0.0600  0.2205 -0.0144
50970DOD     C296730   2.881  27.592   5.660  0.2201  0.1780  0.0287
50970DOD     C396731   3.307  27.780   5.818 -0.1768 -0.1980 -0.5548
50971DOD     C196732  11.223  15.379  27.382  0.2734  0.1034 -0.1067
50971DOD     C296733  11.007  15.588  26.985 -0.2682 -0.1483 -0.2147
50971DOD     C396734  10.722  15.846  26.679  0.1163  0.1072 -0.0304
50972DOD     C196735   4.140  27.169   6.091 -0.1638  0.1790  0.0392
50972DOD     C296736   4.007  26.680   6.136 -0.0397  0.1425 -0.2247
50972DOD     C396737   3.798  26.300   6.188  0.0469 -0.2487  0.0932
50973DOD     C196738  25.980  24.417  11.079 -0.2210  0.0038 -0.3459
50973DOD     C296739  25.631  24.659  11.357 -0.3374  0.1898  0.3073
50973DOD     C396740  25.187  24.547  11.523 -0.0677  0.1764 -0.2334
50974DOD     C196741  17.592  16.213  12.628  0.3304  0.1759 -0.1635
50974DOD     C296742  17.578  16.603  12.783  0.0791 -0.1010 -0.0585
50974DOD     C396743  17.561  17.064  12.795 -0.4465 -0.2304 -0.1232
50975DOD     C196744  17.176  16.365   4.607 -0.2604  0.0008  0.2125
50975DOD     C296745  17.657  16.449   4.626  0.1502  0.1719 -0.1742
50975DOD     C396746  18.005  16.486   4.982  0.1547 -0.1428  0.2519
50976DOD     C196747  10.792  18.858   2.614  0.0833 -0.0316 -0.0989
50976DOD     C296748  10.481  18.508   2.528  0.0357 -0.0875 -0.0291
50976DOD     C396749  10.496  18.069   2.598 -0.0991  0.2003 -0.0735
50977DOD     C196750  26.161  15.162  28.851  0.0926  0.1039 -0.0019
50977DOD     C296751  26.342  15.196  29.276  0.3240 -0.2341 -0.2832
50977DOD     C396752  26.547  15.358  29.656 -0.1120 -0.0543  0.0853
50978DOD     C196753  16.156  12.305  13.109 -0.0179  0.0509 -0.2507
50978DOD     C296754  15.943  12.604  13.395 -0.0849  0.1510 -0.3063
50978DOD     C396755  15.714  13.019  13.435  0.0237  0.1866 -0.0961
50979DOD     C196756  25.513  19.563   1.071 -0.0906 -0.3276 -0.0220
50979DOD     C296757  25.527  19.436   0.564 -0.1692 -0.1774  0.0106
50979DOD     C396758  25.789  19.365   0.168  0.3020 -0.3460  0.1406
50980DOD     C196759  29.896  11.962   1.334 -0.2205  0.2036 -0.0031
50980DOD     C296760  30.210  12.151   1.091  0.1461 -0.3225 -0.1409
50980DOD     C396761   0.070  12.527   0.737  0.0049 -0.0247 -0.2482
50981DOD     C196762   9.203   8.986   2.939 -0.0227 -0.3466 -0.0248
50981DOD     C296763   9.163   9.365   3.280  0.0454  0.1336  0.1497
50981DOD     C396764   9.152   9.651   3.609  0.2120 -0.0167  0.4350
50982DOD     C196765  13.930  12.153  23.406 -0.2839 -0.2044 -0.2912
50982DOD     C296766  14.175  12.284  23.089 -0.1992 -0.0696 -0.1457
50982DOD     C396767  14.409  12.370  22.727 -0.0904 -0.4972 -0.0407
50983DOD     C196768   7.270  25.900  20.159  0.2853  0.0432 -0.1665
50983DOD     C296769   7.138  26.331  19.962  0.1663 -0.2027 -0.1917
50983DOD     C396770   6.946  26.669  19.737  0.2650 -0.0834 -0.1127
50984DOD     C196771  29.694  22.709  30.252 -0.2974 -0.1308  0.0716
50984DOD     C296772  29.355  22.996   0.092  0.1810  0.2023  0.1093
50984DOD     C396773  28.936  23.073   0.359  0.2483 -0.1791 -0.0637
50985DOD     C196774  10.315  11.421  21.544 -0.1311 -0.1177  0.0680
50985DOD     C296775  10.087  11.353  22.034  0.0304  0.1286  0.0038
50985DOD     C396776   9.710  11.300  22.353  0.0674 -0.3328 -0.3426
50986DOD     C196777  15.930  20.914   3.483  0.0841  0.2070 -0.0965
50986DOD     C296778  16.241  20.688   3.227  0.2065  0.2246  0.1389
50986DOD     C396779  16.549  20.721   2.892 -0.1192  0.1275  0.0186
50987DOD     C196780  17.322  22.434  17.904  0.1154  0.2129  0.0549
50987DOD     C296781  17.072  22.265  18.259  0.0223  0.0781 -0.0764
50987DOD     C396782  17.118  21.825  18.391  0.2208 -0.0486  0.0342
50988DOD     C196783   6.592   9.917  27.333 -0.0251  0.1720 -0.0789
50988DOD     C296784   6.220  10.147  27.213  0.0959  0.1715 -0.1479
50988DOD     C396785   5.863  10.455  27.029  0.2308  0.0563 -0.0045
50989DOD     C196786  13.614  10.164  22.957  0.0341 -0.0176 -0.0083
50989DOD     C296787  14.109  10.239  22.860 -0.0678  0.1144  0.0284
50989DOD     C396788  14.537  10.204  22.703 -0.6654 -0.0514  0.1120
50990DOD     C196789   9.140  23.833  14.026 -0.1500  0.3088 -0.0263
50990DOD     C296790   9.222  23.581  13.693  0.0811 -0.2012  0.4636
50990DOD     C396791   9.585  23.729  13.346  0.1209  0.0240 -0.3182
50991DOD     C196792  29.171  27.822  15.308 -0.1404 -0.3457  0.1192
50991DOD     C296793  28.857  28.056  15.046  0.2129  0.0609  0.2528
50991DOD     C396794  28.534  28.374  14.918 -0.1511  0.0420  0.0834
50992DOD     C196795   2.941   3.114   1.249 -0.2630 -0.1851 -0.0042
50992DOD     C296796   2.958   3.409   1.562 -0.1447 -0.1185  0.1081
50992DOD     C396797   2.901   3.521   2.040 -0.2045 -0.2218  0.1852
50993DOD     C196798  15.850  10.415  14.391 -0.3138 -0.2592 -0.0692
50993DOD     C296799  16.210  10.499  14.087 -0.1075  0.0050  0.0896
50993DOD     C396800  16.627  10.411  13.956  0.0698  0.0416 -0.1931
50994DOD     C196801  19.454   0.103  25.130  0.1745 -0.0003 -0.1237
50994DOD     C296802  19.384   0.225  24.678 -0.4637  0.0706  0.2321
50994DOD     C396803  19.349   0.581  24.369  0.2633 -0.0843  0.0827
50995DOD     C196804   9.496   9.441  22.326 -0.0699  0.1426 -0.1452
50995DOD     C296805   9.477   9.741  22.679  0.0281  0.2052  0.0840
50995DOD     C396806   9.536  10.172  22.834 -0.0123 -0.0927  0.0613
50996DOD     C196807   2.210  12.358  18.301 -0.0265  0.1347  0.2031
50996DOD     C296808   2.298  12.633  17.904  0.3587 -0.0684  0.1835
50996DOD     C396809   2.614  12.965  17.746 -0.2250  0.0111 -0.1335
50997DOD     C196810  11.597   4.872  21.262 -0.2660 -0.0120 -0.2023
50997DOD     C296811  11.616   4.823  21.787 -0.0249  0.3436 -0.1209
50997DOD     C396812  11.321   4.509  21.977  0.1072  0.5295 -0.4497
50998DOD     C196813   8.525  16.403  11.594 -0.0893 -0.1226 -0.2577
50998DOD     C296814   8.496  16.852  11.560  0.2951 -0.0076 -0.0058
50998DOD     C396815   8.152  17.088  11.765  0.3210  0.1920 -0.1160
50999DOD     C196816   5.961   4.674  12.568 -0.3729  0.0109  0.1409
50999DOD     C296817   6.007   5.168  12.760  0.0144 -0.1487 -0.2119
50999DOD     C396818   6.221   5.621  12.634 -0.1513  0.1091 -0.2000
51000DOD     C196819   5.754  20.067   2.044 -0.0433  0.4136 -0.1779
51000DOD     C296820   5.812  20.097   2.474 -0.1912  0.4670 -0.0303
51000DOD     C396821   5.775  20.282   2.875 -0.0314  0.0170  0.0823
51001DOD     C196822   4.228   8.061  14.184  0.0107  0.0575  0.2416
51001DOD     C296823   3.780   8.154  14.126  0.0981 -0.2571  0.2854
51001DOD     C396824   3.450   8.533  14.099  0.2517 -0.1089 -0.1115
51002DOD     C196825   3.724   4.810   5.597  0.1173 -0.1698  0.0667
51002DOD     C296826   3.808   5.151   5.301 -0.3224  0.0010  0.0811
51002DOD     C396827   3.686   5.589   5.134  0.1046  0.0997  0.2314
51003DOD     C196828  22.952   1.655  21.036 -0.0630 -0.1645  0.1123
51003DOD     C296829  22.595   1.281  20.955 -0.2794 -0.3313 -0.0789
51003DOD     C396830  22.525   0.793  20.832  0.0896  0.0899 -0.0887
51004DOD     C196831  22.801   7.254  29.716  0.1240  0.3441  0.0411
51004DOD     C296832  22.663   7.562  30.044  0.2555 -0.3167  0.0414
51004DOD     C396833  22.407   7.856  30.255  0.2747  0.0749 -0.0864
51005DOD     C196834   8.356  11.082  28.287  0.0895  0.2987 -0.1870
51005DOD     C296835   7.993  11.333  28.205  0.3632  0.0987  0.1376
51005DOD     C396836   7.621  11.549  28.201 -0.0261  0.1108 -0.1592
51006DOD     C196837  21.422  17.883  30.117 -0.3151 -0.0037  0.0892
51006DOD     C296838  21.442  17.447  30.308 -0.0422  0.0035 -0.2012
51006DOD     C396839  21.066  17.120  30.242 -0.0573 -0.1889 -0.2676
51007DOD     C196840  11.816   5.659  20.366  0.1209 -0.0075 -0.0388
51007DOD     C296841  12.104   5.338  20.190  0.2332 -0.6602 -0.0787
51007DOD     C396842  12.389   5.005  20.284  0.3013  0.0217  0.1753
51008DOD     C196843  28.186   5.406  27.721 -0.2864  0.0499  0.2427
51008DOD     C296844  28.029   5.254  28.149  0.0451  0.0258  0.2784
51008DOD     C396845  27.872   5.423  28.576  0.0257  0.0356 -0.0156
51009DOD     C196846  26.167   9.673  13.655 -0.0076  0.2699 -0.2560
51009DOD     C296847  25.859   9.496  13.941 -0.1739 -0.1277  0.2116
51009DOD     C396848  25.900   9.376  14.385  0.2979 -0.1167 -0.0549
51010DOD     C196849  27.685  12.863  22.330 -0.3859 -0.0539  0.0023
51010DOD     C296850  27.550  13.113  21.966 -0.0377 -0.0087 -0.1976
51010DOD     C396851  27.544  12.964  21.572 -0.2128  0.0147  0.1822
51011DOD     C196852   3.107   2.131   4.663 -0.0198  0.1041 -0.0954
51011DOD     C296853   2.697   1.851   4.632 -0.1127  0.2313 -0.0825
51011DOD     C396854   2.298   1.963   4.748 -0.2127 -0.1479  0.2370
51012DOD     C196855  14.686  25.363   8.707  0.2935  0.1575 -0.0191
51012DOD     C296856  14.952  25.040   8.435 -0.0501  0.0724 -0.0817
51012DOD     C396857  14.940  24.695   8.181 -0.1156  0.1254  0.2075
51013DOD     C196858  23.176   0.181  13.357  0.1878 -0.1363  0.1501
51013DOD     C296859  22.815   0.156  13.062  0.1537 -0.3943  0.2421
51013DOD     C396860  22.444   0.061  12.818  0.3112 -0.1718  0.0992
51014DOD     C196861   4.500   2.108  21.375 -0.3475 -0.0582 -0.1772
51014DOD     C296862   4.725   1.831  21.682  0.0819 -0.2668  0.5050
51014DOD     C396863   4.979   1.768  22.068 -0.1445 -0.2924  0.0429
51015DOD     C196864   0.702  22.961  20.119  0.2870  0.3582  0.0226
51015DOD     C296865   0.522  22.574  20.330 -0.3470  0.0573 -0.0402
51015DOD     C396866   0.191  22.258  20.141 -0.2167 -0.1132  0.1309
51016DOD     C196867  16.244  19.833  23.091  0.4478 -0.0567  0.0926
51016DOD     C296868  16.654  19.612  23.221  0.0129 -0.1133  0.0226
51016DOD     C396869  16.729  19.289  23.513 -0.2997 -0.0899  0.0486
51017DOD     C196870  24.464  17.456   0.782  0.0889  0.0988  0.0898
51017DOD     C296871  24.835  17.134   0.836  0.3783 -0.0861  0.0224
51017DOD     C396872  25.183  16.809   0.894  0.2199  0.1648 -0.0938
51018DOD     C196873  23.746  15.766   4.707 -0.2640  0.5963 -0.0887
51018DOD     C296874  23.933  16.165   4.573  0.0241  0.2568  0.2260
51018DOD     C396875  23.764  16.568   4.352 -0.1239  0.0472 -0.1146
51019DOD     C196876  18.112   6.074   4.458 -0.1847 -0.0574 -0.2570
51019DOD     C296877  18.407   5.835   4.169 -0.1489  0.1070 -0.0883
51019DOD     C396878  18.787   5.544   4.151  0.1583  0.0847 -0.4721
51020DOD     C196879  15.666   4.350  23.509 -0.0244 -0.0148 -0.1501
51020DOD     C296880  15.243   4.438  23.551  0.1900  0.2552 -0.1383
51020DOD     C396881  14.856   4.173  23.627  0.1567  0.1054  0.0453
51021DOD     C196882  28.184  26.479  12.213  0.1537  0.2453 -0.0603
51021DOD     C296883  28.354  26.266  11.845 -0.1929  0.0946 -0.2756
51021DOD     C396884  28.427  25.838  11.735 -0.2870 -0.1811  0.0126
51022DOD     C196885   1.924   1.692  22.054  0.1796  0.2849 -0.0020
51022DOD     C296886   1.885   1.958  21.674  0.2255  0.0597  0.0134
51022DOD     C396887   2.056   2.180  21.324 -0.2567 -0.2473 -0.1838
51023DOD     C196888  28.136  28.446  14.232 -0.0898  0.0424 -0.1942
51023DOD     C296889  28.587  28.664  14.113 -0.1511 -0.0472 -0.1017
51023DOD     C396890  29.016  28.855  13.963  0.0049  0.0939  0.1847
51024DOD     C196891   2.733  11.806  28.869 -0.2050 -0.2286 -0.0079
51024DOD     C296892   2.670  11.653  29.358  0.0006 -0.1568  0.2265
51024DOD     C396893   2.622  11.447  29.791  0.2166  0.0602  0.0215
51025DOD     C196894   0.750   8.039  27.004 -0.2266 -0.0276 -0.0223
51025DOD     C296895   1.198   8.169  26.879  0.1518 -0.0253 -0.4208
51025DOD     C396896   1.554   8.130  26.560 -0.0455 -0.1001 -0.3203
51026DOD     C196897  14.561   3.511   5.537  0.0476 -0.2975 -0.1546
51026DOD     C296898  14.879   3.218   5.356 -0.1190 -0.2102  0.0767
51026DOD     C396899  15.196   3.088   5.002 -0.0383 -0.0276  0.0739
51027DOD     C196900  11.861   1.869  15.449 -0.0629 -0.2114  0.1149
51027DOD     C296901  11.420   2.098  15.465  0.1383 -0.0308 -0.0781
51027DOD     C396902  11.327   2.524  15.690 -0.0266 -0.0596 -0.0255
51028DOD     C196903   9.481  22.469  21.580  0.3104  0.1131  0.2968
51028DOD     C296904   9.345  22.885  21.505  0.0884  0.3967  0.0233
51028DOD     C396905   9.372  23.326  21.449  0.0639  0.3119  0.2178
51029DOD     C196906  29.390  23.682   4.644  0.1942  0.0578  0.4401
51029DOD     C296907  29.507  23.430   5.016  0.1796  0.2359 -0.0076
51029DOD     C396908  29.322  23.318   5.399  0.1097  0.0656 -0.1401
51030DOD     C196909  14.976   1.907  12.425  0.0818 -0.0099 -0.2610
51030DOD     C296910  14.985   1.558  12.131 -0.1880 -0.1180  0.1626
51030DOD     C396911  14.950   1.088  12.011  0.0840  0.1213  0.5177
51031DOD     C196912  29.505  10.174  12.941 -0.0540 -0.0990 -0.1488
51031DOD     C296913  29.314  10.109  12.591 -0.1155  0.0352 -0.2166
51031DOD     C396914  29.306  10.274  12.185  0.0396  0.1887  0.0811
51032DOD     C196915  13.155   6.207   2.178  0.0176  0.1075  0.2540
51032DOD     C296916  13.264   6.642   2.177 -0.2490  0.1953  0.1082
51032DOD     C396917  13.406   6.990   2.470  0.0733 -0.1043 -0.2913
51033DOD     C196918  11.830  21.008  25.968 -0.0428  0.1256 -0.2397
51033DOD     C296919  11.789  21.021  26.398 -0.4434 -0.0532  0.2342
51033DOD     C396920  11.605  21.216  26.815  0.0256  0.0152 -0.1497
51034DOD     C196921   4.804  30.220   9.085  0.2196  0.2466  0.0395
51034DOD     C296922   4.594  29.934   9.465  0.0909  0.4938 -0.0135
51034DOD     C396923   4.756  29.821   9.884  0.1991  0.1668 -0.1307
51035DOD     C196924  15.826  27.876  23.614 -0.3593  0.1164  0.2456
51035DOD     C296925  15.612  27.616  23.913 -0.0850  0.0628  0.2667
51035DOD     C396926  15.678  27.442  24.362 -0.3514  0.1879  0.0652
51036DOD     C196927  18.970   2.737  21.221  0.1588  0.0430  0.0073
51036DOD     C296928  19.121   2.647  21.619 -0.1033 -0.2519  0.0566
51036DOD     C396929  19.094   2.793  22.106 -0.1516 -0.0828  0.1817
51037DOD     C196930  25.716   8.029  12.946  0.3000  0.1765  0.0207
51037DOD     C296931  25.666   8.050  12.475  0.0304  0.1599  0.1221
51037DOD     C396932  25.703   7.847  12.034  0.2960 -0.3593 -0.0911
51038DOD     C196933  13.812  23.077  14.809 -0.2263  0.0784  0.2410
51038DOD     C296934  13.936  22.659  14.805  0.0776 -0.1047  0.2881
51038DOD     C396935  14.223  22.322  14.945 -0.2080  0.0513 -0.3611
51039DOD     C196936  25.703  14.150  27.533 -0.1625  0.1841 -0.0578
51039DOD     C296937  26.086  13.909  27.578  0.2057 -0.5735  0.0873
51039DOD     C396938  26.421  13.699  27.347 -0.0278  0.0679 -0.0602
51040DOD     C196939  20.385   2.190  29.573  0.0061  0.2926  0.1084
51040DOD     C296940  19.998   2.230  29.768 -0.1104  0.1196  0.2840
51040DOD     C396941  19.684   1.978  29.922 -0.1515  0.1536  0.2377
51041DOD     C196942  26.275  21.508  19.282  0.0310 -0.2759  0.1721
51041DOD     C296943  26.381  21.010  19.294 -0.0975 -0.1292  0.0338
51041DOD     C396944  26.606  20.695  19.541  0.1170 -0.1612 -0.0879
51042DOD     C196945  16.139   8.696  12.617  0.3873 -0.2167  0.1759
51042DOD     C296946  16.394   8.331  12.501 -0.1720 -0.1556  0.1196
51042DOD     C396947  16.637   7.958  12.415  0.0778  0.0840  0.1317
51043DOD     C196948  21.198   6.146   3.298  0.1489 -0.0508 -0.2688
51043DOD     C296949  20.796   6.382   3.440 -0.2456 -0.4443 -0.0670
51043DOD     C396950  20.371   6.133   3.577  0.3975 -0.3470  0.0450
51044DOD     C196951  26.120   0.651   6.703 -0.0524  0.2842 -0.0588
51044DOD     C296952  25.990   0.847   6.284  0.2511  0.1798  0.4370
51044DOD     C396953  26.099   1.202   6.064 -0.2509 -0.0059  0.2145
51045DOD     C196954  10.877   5.257  23.450 -0.2195 -0.0795 -0.1426
51045DOD     C296955  10.511   5.029  23.654  0.1159 -0.0827 -0.1350
51045DOD     C396956  10.450   4.827  24.038 -0.2101 -0.0281  0.3327
51046DOD     C196957  23.403  16.661   9.811  0.0799  0.1526  0.1558
51046DOD     C296958  23.276  16.452  10.209 -0.0588 -0.1943  0.0526
51046DOD     C396959  23.070  16.280  10.584  0.3317  0.1171  0.2831
51047DOD     C196960   7.798  16.769  12.084 -0.3415 -0.3635 -0.2450
51047DOD     C296961   7.528  17.043  11.803 -0.0204  0.0502 -0.3035
51047DOD     C396962   7.193  17.380  11.923  0.0854  0.2405 -0.0601
51048DOD     C196963  13.166  30.095  11.374 -0.0465  0.0009 -0.0836
51048DOD     C296964  12.896  30.005  11.760 -0.0449 -0.0777 -0.3955
51048DOD     C396965  12.786  29.735  12.174  0.0168  0.1860  0.4105
51049DOD     C196966   5.975   5.771  19.279  0.0415 -0.2662  0.0382
51049DOD     C296967   6.160   5.995  19.694  0.0561 -0.1198  0.3191
51049DOD     C396968   5.979   6.143  20.076 -0.0698  0.4671 -0.0420
51050DOD     C196969   0.131   4.483  21.783  0.3054  0.0748  0.2181
51050DOD     C296970  30.069   4.738  21.626 -0.0020  0.1345 -0.2382
51050DOD     C396971  29.940   4.986  21.305 -0.0448  0.1361  0.2689
51051DOD     C196972  23.827  29.613  27.427 -0.0426  0.5404 -0.0999
51051DOD     C296973  24.067  29.636  27.019  0.1462 -0.3981  0.2995
51051DOD     C396974  24.342  29.954  26.796 -0.2176 -0.2023 -0.1555
51052DOD     C196975  12.341   0.063  15.155 -0.2188  0.0692 -0.1209
51052DOD     C296976  12.684   0.010  14.842 -0.0417 -0.1398  0.2341
51052DOD     C396977  13.178   0.057  14.814 -0.0416 -0.1769  0.1005
51053DOD     C196978  19.889  23.670   0.855  0.3088 -0.1589  0.2493
51053DOD     C296979  20.027  24.102   0.702 -0.1269  0.0558  0.2521
51053DOD     C396980  20.287  24.502   0.727 -0.1558 -0.2618  0.3055
51054DOD     C196981  10.363  12.801   9.311  0.1524 -0.0815 -0.3799
51054DOD     C296982  10.108  12.476   9.366 -0.1076  0.1487  0.0652
51054DOD     C396983   9.837  12.168   9.545  0.1427  0.0728  0.2320
51055DOD     C196984  13.638  28.551   9.999 -0.0517 -0.1638 -0.1956
51055DOD     C296985  13.637  28.202  10.331  0.0729 -0.0782  0.0764
51055DOD     C396986  13.359  28.022  10.686  0.0222  0.0773 -0.0293
51056DOD     C196987   0.808  26.570  10.941  0.1220 -0.1592 -0.2301
51056DOD     C296988   0.954  26.147  11.192  0.1342  0.3945 -0.1708
51056DOD     C396989   1.106  25.717  11.051 -0.1108 -0.5013 -0.0477
51057DOD     C196990   5.682  19.844   0.072  0.1807  0.2013 -0.1172
51057DOD     C296991   5.546  19.396   0.155  0.0109  0.2025 -0.1401
51057DOD     C396992   5.306  19.026   0.054 -0.1119  0.2271 -0.0664
51058DOD     C196993   9.687  15.313  29.022  0.1029 -0.4035  0.0643
51058DOD     C296994   9.889  15.258  29.460 -0.0396 -0.1088  0.0015
51058DOD     C396995  10.248  15.364  29.704  0.2921 -0.0723  0.2782
51059DOD     C196996  10.408  12.619  17.389 -0.2109 -0.0365 -0.1665
51059DOD     C296997  10.299  12.403  16.997  0.0774 -0.0514  0.0146
51059DOD     C396998   9.904  12.182  16.900 -0.0715  0.0506 -0.0370
51060DOD     C196999  18.869  28.292   7.964 -0.3107 -0.0730  0.2425
51060DOD     C297000  19.354  28.185   7.993  0.3970 -0.0993  0.0063
51060DOD     C397001  19.709  28.400   8.150  0.1612  0.1478 -0.1367
51061DOD     C197002   3.030  16.007  15.726 -0.1072 -0.1257 -0.0196
51061DOD     C297003   3.311  16.418  15.665  0.2212  0.3231 -0.1293
51061DOD     C397004   3.772  16.434  15.486  0.0739 -0.2181  0.0323
51062DOD     C197005  23.233  16.448   1.342  0.1715  0.0118  0.2856
51062DOD     C297006  23.322  16.531   0.895 -0.1751 -0.2399  0.1387
51062DOD     C397007  23.601  16.616   0.503 -0.0133  0.0987 -0.2252
51063DOD     C197008  19.916   8.183  12.881  0.0022  0.1102  0.3193
51063DOD     C297009  20.176   8.411  12.549  0.1324 -0.2578 -0.0533
51063DOD     C397010  20.027   8.714  12.168  0.2100 -0.2719  0.1982
51064DOD     C197011  23.386  29.785  27.853 -0.0628 -0.0240 -0.0047
51064DOD     C297012  23.658  29.369  27.879  0.1253  0.0027  0.1258
51064DOD     C397013  24.051  29.219  28.081  0.0438  0.1365 -0.3348
51065DOD     C197014  26.791  20.337   1.929  0.1031 -0.0126 -0.1436
51065DOD     C297015  26.352  20.398   2.076  0.1666  0.1020 -0.0861
51065DOD     C397016  26.069  20.713   2.315  0.2757 -0.2167 -0.0894
51066DOD     C197017  20.908   6.641  17.454  0.1307  0.1544  0.0253
51066DOD     C297018  20.452   6.609  17.511  0.0752  0.2357 -0.0632
51066DOD     C397019  20.014   6.711  17.710 -0.1023  0.0861 -0.1653
51067DOD     C197020  27.604  29.286   1.993  0.3378 -0.3538 -0.0424
51067DOD     C297021  27.736  29.677   1.905  0.0030 -0.0070 -0.0449
51067DOD     C397022  27.927  30.106   1.757 -0.0517  0.2307 -0.1417
51068DOD     C197023  21.540  19.158   5.674 -0.0697 -0.0776 -0.2621
51068DOD     C297024  21.893  19.258   5.875  0.0987 -0.1080  0.1425
51068DOD     C397025  22.391  19.093   5.862  0.0717  0.1718 -0.1424
51069DOD     C197026   4.245  11.469  11.859  0.1809 -0.0145  0.3154
51069DOD     C297027   3.797  11.549  11.875  0.0506  0.2122 -0.2343
51069DOD     C397028   3.328  11.593  11.734  0.1431 -0.1836 -0.2765
51070DOD     C197029  24.721  10.265  29.854  0.1304 -0.2738 -0.1352
51070DOD     C297030  24.280  10.237  29.931  0.0295 -0.2192  0.0831
51070DOD     C397031  23.868  10.014  29.924  0.0069  0.0131  0.0202
51071DOD     C197032   9.433  11.752  28.353  0.2019 -0.0396 -0.2327
51071DOD     C297033   9.059  11.829  28.256  0.0008  0.0395 -0.1038
51071DOD     C397034   8.650  11.905  28.109  0.0865  0.0767 -0.1443
51072DOD     C197035   2.513  11.068  10.901 -0.1477  0.2248 -0.2169
51072DOD     C297036   2.384  11.413  10.559  0.2313 -0.0814 -0.0728
51072DOD     C397037   1.983  11.629  10.393 -0.0683 -0.0099 -0.0161
51073DOD     C197038  12.917  12.742  25.679 -0.2187 -0.1380 -0.1769
51073DOD     C297039  12.722  13.138  25.573 -0.1403 -0.0628  0.3969
51073DOD     C397040  12.573  13.534  25.752 -0.0813 -0.0124 -0.1610
51074DOD     C197041  22.283   8.116   1.777  0.1972  0.1996 -0.2292
51074DOD     C297042  21.850   8.106   1.976  0.1712 -0.0640 -0.0380
51074DOD     C397043  21.495   7.905   1.757  0.0792  0.1609  0.0328
51075DOD     C197044  20.150  20.739   1.315  0.2261 -0.0893 -0.1895
51075DOD     C297045  20.002  21.080   1.048  0.2310 -0.2073  0.1084
51075DOD     C397046  19.977  21.438   0.657  0.0189  0.1443 -0.4801
51076DOD     C197047  20.344  14.946   5.950 -0.1049 -0.3059 -0.0902
51076DOD     C297048  20.544  14.598   6.136 -0.1554 -0.0435  0.0493
51076DOD     C397049  20.587  14.134   5.975  0.1556 -0.4674  0.2084
51077DOD     C197050  22.708   1.607  27.715  0.3215  0.0056 -0.4049
51077DOD     C297051  23.109   1.379  27.526  0.3276  0.0714  0.0872
51077DOD     C397052  23.385   1.112  27.273 -0.0114  0.0540 -0.1406
51078DOD     C197053  28.452   6.214  16.493 -0.0479 -0.1909  0.2586
51078DOD     C297054  28.016   6.326  16.694  0.0217  0.2896 -0.0266
51078DOD     C397055  27.788   6.354  17.120  0.0357 -0.2404  0.1442
51079DOD     C197056  20.824   6.778   7.502  0.1150  0.1098 -0.0176
51079DOD     C297057  20.412   6.858   7.443  0.0432  0.2593 -0.3767
51079DOD     C397058  20.000   6.543   7.415  0.0875 -0.1095  0.1402
51080DOD     C197059  20.470  29.199  12.554  0.0115  0.1797 -0.0837
51080DOD     C297060  20.625  28.863  12.932 -0.0053  0.0344  0.2697
51080DOD     C397061  20.669  28.528  13.273  0.2065  0.0217 -0.0018
51081DOD     C197062   2.464  13.397   7.600  0.1513  0.0063  0.2107
51081DOD     C297063   2.730  13.378   7.958 -0.1663 -0.0939  0.0833
51081DOD     C397064   3.009  13.022   7.818 -0.0003  0.1839  0.3839
51082DOD     C197065  16.552  12.476   5.747 -0.0096  0.0147  0.0060
51082DOD     C297066  16.919  12.301   5.907  0.1734 -0.1407 -0.0223
51082DOD     C397067  17.107  12.147   6.292  0.0147 -0.0002 -0.0123
51083DOD     C197068  23.024  24.364  17.837  0.1014 -0.2279  0.1325
51083DOD     C297069  23.447  24.574  17.749 -0.0008 -0.1637  0.1092
51083DOD     C397070  23.912  24.507  17.511  0.4888 -0.1254  0.0851
51084DOD     C197071  11.204   1.245   8.823  0.1886  0.1298 -0.3260
51084DOD     C297072  10.786   1.409   8.785 -0.1164 -0.1061 -0.2159
51084DOD     C397073  10.578   1.819   8.878  0.0123  0.0465  0.1917
51085DOD     C197074  15.808  29.237  24.940 -0.2649 -0.0011  0.0661
51085DOD     C297075  16.050  29.194  25.330 -0.0226  0.1745 -0.2902
51085DOD     C397076  16.337  28.957  25.606 -0.2298 -0.0342  0.1966
51086DOD     C197077   8.535  10.687   4.818 -0.1639  0.0451 -0.0036
51086DOD     C297078   8.889  10.528   5.092 -0.4603 -0.1569  0.0468
51086DOD     C397079   9.300  10.548   5.278  0.1920  0.3479 -0.1005
51087DOD     C197080  17.887   9.540  12.686 -0.0113  0.0104  0.2610
51087DOD     C297081  18.293   9.484  12.927  0.1676  0.1319  0.1671
51087DOD     C397082  18.669   9.277  13.089  0.3047 -0.1211  0.3579
51088DOD     C197083   3.535  28.634  24.196  0.2091  0.1366  0.2224
51088DOD     C297084   3.286  28.991  24.395 -0.1501  0.3674  0.3467
51088DOD     C397085   3.085  29.043  24.832  0.0630 -0.0527  0.0085
51089DOD     C197086   5.265  17.533   0.950 -0.1785 -0.2238 -0.0545
51089DOD     C297087   5.354  17.548   0.489 -0.1729 -0.0262 -0.1926
51089DOD     C397088   5.494  17.257   0.137  0.1249  0.0811  0.1488
51090DOD     C197089   5.297  19.322  24.827 -0.2618 -0.3232 -0.0570
51090DOD     C297090   5.564  19.235  24.503  0.0074  0.2630  0.2850
51090DOD     C397091   6.021  19.227  24.418 -0.2015 -0.3947 -0.1594
51091DOD     C197092   6.026   1.986  20.265  0.1728  0.1146 -0.1421
51091DOD     C297093   5.583   1.993  20.249  0.1918 -0.0756 -0.1155
51091DOD     C397094   5.245   1.769  20.320 -0.0612 -0.1615  0.1356
51092DOD     C197095   6.358   3.453  12.522 -0.0587 -0.0192 -0.0629
51092DOD     C297096   6.252   3.060  12.780  0.0499 -0.0049  0.0022
51092DOD     C397097   6.136   2.600  12.862 -0.0890 -0.2916  0.0558
51093DOD     C197098  22.404  27.045  22.458 -0.0268 -0.2482  0.1025
51093DOD     C297099  22.163  27.265  22.117 -0.0849 -0.1883  0.1471
51093DOD     C397100  21.967  27.564  21.856  0.2155  0.2581  0.1649
51094DOD     C197101  13.592  25.543  16.682  0.2923 -0.2756  0.2190
51094DOD     C297102  13.987  25.544  17.026 -0.0351  0.1075  0.2265
51094DOD     C397103  14.027  25.645  17.431  0.2301  0.0965 -0.1761
51095DOD     C197104  25.816  13.927  20.539  0.1961 -0.1707 -0.1301
51095DOD     C297105  25.824  14.417  20.702 -0.1161  0.2056 -0.3725
51095DOD     C397106  25.861  14.852  20.828 -0.1932  0.3558  0.1448
51096DOD     C197107  28.349   3.472  24.426  0.3468  0.0377 -0.2464
51096DOD     C297108  28.151   3.114  24.663  0.1325 -0.0823  0.1607
51096DOD     C397109  28.205   2.650  24.668  0.1589 -0.0724  0.1251
51097DOD     C197110  25.032  29.598   2.304  0.2059 -0.1823  0.1814
51097DOD     C297111  24.989  29.941   1.994 -0.1681 -0.0799 -0.2014
51097DOD     C397112  25.323  30.177   1.742  0.0961 -0.2258  0.0551
51098DOD     C197113  22.136  11.603  26.007  0.0188  0.2271 -0.0648
51098DOD     C297114  22.355  11.530  26.418 -0.2405  0.1604  0.0145
51098DOD     C397115  22.731  11.246  26.481 -0.0884  0.1354 -0.2703
51099DOD     C197116   5.685   2.552   1.531 -0.0606 -0.3571  0.3241
51099DOD     C297117   5.354   2.317   1.737 -0.1679  0.3359 -0.2131
51099DOD     C397118   4.846   2.200   1.688  0.2549  0.0825 -0.1008
51100DOD     C197119   9.420  15.427   6.704  0.0018 -0.2554 -0.0009
51100DOD     C297120   9.098  15.106   6.572 -0.0173  0.1298 -0.2279
51100DOD     C397121   9.063  14.669   6.500 -0.1248  0.1970 -0.1488
51101DOD     C197122  23.758   7.037  12.103  0.3084 -0.1105  0.0490
51101DOD     C297123  23.283   6.993  12.198  0.0530  0.1614  0.0145
51101DOD     C397124  23.012   6.789  12.437  0.2846 -0.1046  0.1652
51102DOD     C197125  17.528  26.049  11.757  0.2326  0.1864 -0.0626
51102DOD     C297126  17.810  26.141  12.031 -0.2361 -0.1078  0.0212
51102DOD     C397127  18.114  26.077  12.387  0.1254  0.0471 -0.1482
51103DOD     C197128  29.979   8.276   5.060  0.0671 -0.3548  0.2024
51103DOD     C297129  29.868   7.822   5.201 -0.2310  0.0136 -0.1878
51103DOD     C397130  30.018   7.491   5.554 -0.0549  0.0896  0.0254
51104DOD     C197131  26.994   0.984  23.077 -0.0845  0.2555 -0.0211
51104DOD     C297132  26.890   0.520  23.214  0.1287  0.0194 -0.1533
51104DOD     C397133  26.548   0.178  23.384 -0.0817  0.5532 -0.4164
51105DOD     C197134   5.440   8.557   0.092 -0.0555  0.1643 -0.1164
51105DOD     C297135   5.562   8.897   0.426  0.2602 -0.4201 -0.0535
51105DOD     C397136   5.613   9.422   0.486 -0.1206 -0.1470 -0.0065
51106DOD     C197137   6.346  24.748  30.081 -0.0033  0.3937 -0.2613
51106DOD     C297138   6.258  24.570  29.660  0.1114  0.0311 -0.0168
51106DOD     C397139   6.282  24.613  29.234  0.1400  0.2804 -0.1972
51107DOD     C197140   7.110  13.544  20.945 -0.1092 -0.0442  0.1260
51107DOD     C297141   7.430  13.482  21.253  0.0771  0.1379 -0.1098
51107DOD     C397142   7.927  13.423  21.336  0.1559 -0.3254  0.1496
51108DOD     C197143  21.515  17.962   8.417 -0.2076 -0.2163  0.1696
51108DOD     C297144  21.834  17.724   8.179 -0.0831  0.3202  0.1265
51108DOD     C397145  22.112  17.425   8.271 -0.0117 -0.0899 -0.0732
51109DOD     C197146  23.916  15.863  20.923 -0.1898 -0.0994  0.0825
51109DOD     C297147  24.370  15.820  20.772 -0.1316  0.0739  0.3686
51109DOD     C397148  24.822  15.933  20.598 -0.1823  0.0347  0.1793
51110DOD     C197149  15.853  26.248   1.493 -0.4075 -0.1242 -0.1759
51110DOD     C297150  15.638  26.489   1.842  0.0115  0.0641 -0.1882
51110DOD     C397151  15.562  26.735   2.180  0.1246  0.0109 -0.1079
51111DOD     C197152  30.310  13.072   9.504  0.3574 -0.1187 -0.1874
51111DOD     C297153  29.883  13.169   9.276  0.0931  0.2238  0.1017
51111DOD     C397154  29.495  13.465   9.343  0.2691 -0.2156 -0.1000
51112DOD     C197155  13.315   0.700  19.631 -0.1728  0.1017 -0.3822
51112DOD     C297156  13.214   1.021  19.335 -0.1852  0.0354  0.0557
51112DOD     C397157  13.103   1.448  19.126 -0.1137 -0.3720 -0.0502
51113DOD     C197158  11.690  19.882  23.901  0.1171 -0.1217 -0.4270
51113DOD     C297159  11.537  20.229  24.181 -0.0721  0.0540  0.1521
51113DOD     C397160  11.628  20.465  24.578 -0.1410  0.0732 -0.0853
51114DOD     C197161  13.301   4.098  10.390 -0.1077 -0.2742  0.1792
51114DOD     C297162  13.679   3.925  10.148  0.1754 -0.4803 -0.3992
51114DOD     C397163  13.740   3.996   9.670 -0.0282 -0.1167 -0.0830
51115DOD     C197164  18.191  21.658   7.303 -0.0701  0.2569  0.0232
51115DOD     C297165  18.427  21.966   7.618  0.1935  0.2086  0.2193
51115DOD     C397166  18.312  22.180   8.029 -0.1559 -0.1425 -0.0328
51116DOD     C197167   8.930   7.331  13.110  0.0928 -0.0933 -0.3492
51116DOD     C297168   9.060   7.243  12.637 -0.2766 -0.0382 -0.1888
51116DOD     C397169   8.933   7.053  12.256  0.1275 -0.2631  0.2875
51117DOD     C197170  23.340  17.705  28.466  0.0598  0.2312 -0.0370
51117DOD     C297171  23.742  17.814  28.729  0.2863 -0.0078 -0.0582
51117DOD     C397172  23.732  17.545  29.094 -0.1923 -0.2027 -0.4189
51118DOD     C197173  17.912  30.245   5.800 -0.0199  0.0118  0.1254
51118DOD     C297174  18.195  30.128   6.187  0.0291  0.0633 -0.0160
51118DOD     C397175  18.135  29.895   6.590 -0.1589  0.1201 -0.2234
51119DOD     C197176  19.656  17.310  26.347 -0.1557  0.3695 -0.0837
51119DOD     C297177  19.952  17.662  26.249  0.2024  0.2346  0.3584
51119DOD     C397178  20.309  17.936  26.342  0.2308 -0.0251 -0.2772
51120DOD     C197179  10.269  19.985   6.173  0.2461 -0.0911 -0.0263
51120DOD     C297180  10.545  19.849   5.807 -0.1118 -0.2281 -0.0196
51120DOD     C397181  10.582  19.850   5.398  0.2346  0.0747  0.1732
51121DOD     C197182  20.310  16.031   6.488 -0.0896 -0.0269 -0.0602
51121DOD     C297183  20.474  16.493   6.452 -0.0100 -0.3037 -0.1621
51121DOD     C397184  20.507  16.962   6.556 -0.0268 -0.1367 -0.1062
51122DOD     C197185  15.384  25.084   4.601 -0.3281  0.1179 -0.1364
51122DOD     C297186  14.922  25.231   4.565  0.0454  0.1719  0.0020
51122DOD     C397187  14.579  25.311   4.147  0.2240  0.2200  0.2074
51123DOD     C197188   9.836  15.059   3.016  0.2262  0.3772 -0.0106
51123DOD     C297189  10.013  14.745   3.349 -0.2571  0.1989 -0.0338
51123DOD     C397190  10.254  14.589   3.708 -0.0014  0.3163 -0.0048
51124DOD     C197191   4.313  18.622  28.304  0.1839 -0.1135 -0.0598
51124DOD     C297192   4.419  19.065  28.461  0.1121 -0.2096  0.2273
51124DOD     C397193   4.091  19.318  28.714  0.0767 -0.0277 -0.3658
51125DOD     C197194   4.247   6.048  10.507  0.0208  0.1807  0.2691
51125DOD     C297195   4.136   6.504  10.696 -0.0550 -0.0510  0.0919
51125DOD     C397196   4.117   6.985  10.633  0.0001 -0.1323 -0.1821
51126DOD     C197197   9.958   3.043   3.300 -0.3334 -0.4844  0.1115
51126DOD     C297198   9.908   2.661   3.618  0.2941 -0.0683  0.1325
51126DOD     C397199   9.835   2.693   4.030 -0.1303  0.1211 -0.0462
51127DOD     C197200  27.236  18.735   6.675 -0.1563 -0.0033 -0.0788
51127DOD     C297201  27.398  18.614   7.035 -0.0794  0.0100 -0.3175
51127DOD     C397202  27.557  18.285   7.380 -0.0774  0.1044  0.1043
51128DOD     C197203   2.610  13.249   2.463 -0.0498 -0.0747  0.1668
51128DOD     C297204   2.247  13.493   2.311 -0.2242 -0.1711  0.0540
51128DOD     C397205   2.009  13.888   2.270 -0.1007 -0.1016  0.1526
51129DOD     C197206   0.169  14.910  16.775 -0.0918 -0.0002  0.3024
51129DOD     C297207   0.593  14.785  16.898 -0.2287  0.0310 -0.1078
51129DOD     C397208   0.800  14.421  17.082 -0.0870  0.0676 -0.1362
51130DOD     C197209  23.458  22.474  21.803 -0.1414 -0.0871 -0.1374
51130DOD     C297210  23.315  22.243  22.225  0.0425 -0.2010  0.0582
51130DOD     C397211  23.585  21.977  22.479  0.2425  0.1138 -0.0416
51131DOD     C197212  28.418   9.806   1.815  0.0961  0.2463 -0.0442
51131DOD     C297213  28.068   9.645   1.573  0.3235 -0.0768  0.1967
51131DOD     C397214  27.915   9.868   1.169 -0.0503  0.0403  0.0266
51132DOD     C197215   1.239  19.115  16.511  0.0614  0.3923  0.0357
51132DOD     C297216   1.394  19.500  16.441  0.1279 -0.0089  0.0999
51132DOD     C397217   1.489  19.847  16.076  0.2110  0.0971 -0.3965
51133DOD     C197218  24.517   4.541   5.105 -0.1508 -0.1698 -0.1371
51133DOD     C297219  24.448   4.671   4.636  0.3090 -0.2299  0.0576
51133DOD     C397220  24.261   5.067   4.402 -0.3240  0.0499 -0.1479
51134DOD     C197221  15.727  13.303   3.769  0.0974  0.3349  0.1768
51134DOD     C297222  15.901  13.359   4.179 -0.3245 -0.1100 -0.2586
51134DOD     C397223  16.286  13.344   4.497 -0.0109 -0.0189  0.3347
51135DOD     C197224  20.039   4.292  11.077 -0.2362 -0.2370  0.0786
51135DOD     C297225  20.164   4.626  11.317  0.2416 -0.1820  0.1066
51135DOD     C397226  20.218   5.049  11.355  0.1271 -0.3750  0.0316
51136DOD     C197227  15.323   2.515  29.310  0.1231 -0.1585 -0.0088
51136DOD     C297228  15.452   2.532  28.902  0.0024  0.0806  0.1491
51136DOD     C397229  15.460   2.252  28.584 -0.3306  0.1363  0.0963
51137DOD     C197230   2.128  19.535   1.536  0.0428  0.3209 -0.2556
51137DOD     C297231   1.965  19.781   1.136 -0.0343  0.0926  0.0676
51137DOD     C397232   2.059  19.812   0.712 -0.2667 -0.3460  0.0386
51138DOD     C197233  16.348  15.587   2.259 -0.0372 -0.0952 -0.0927
51138DOD     C297234  16.778  15.832   2.298 -0.1189  0.5228 -0.1696
51138DOD     C397235  17.165  15.849   2.602  0.1760  0.2303  0.1597
51139DOD     C197236   9.448  30.223  26.897 -0.0069 -0.3930  0.3276
51139DOD     C297237   9.738  29.862  26.884  0.1010  0.2991  0.3534
51139DOD     C397238  10.199  29.830  26.959 -0.0665 -0.0172 -0.0454
51140DOD     C197239  25.197  27.629  20.285 -0.0395  0.2703  0.1855
51140DOD     C297240  25.207  28.037  20.478 -0.1621  0.0679  0.1454
51140DOD     C397241  25.418  28.442  20.398 -0.1485  0.1967 -0.1611
51141DOD     C197242  11.939   5.849  10.659  0.0441 -0.0903  0.1326
51141DOD     C297243  12.328   5.767  10.902 -0.1091 -0.1082  0.1938
51141DOD     C397244  12.348   5.990  11.331  0.1260  0.2207 -0.1100
51142DOD     C197245  11.674  23.357   2.317 -0.0265  0.2250  0.0861
51142DOD     C297246  11.492  22.988   2.369 -0.0929 -0.1133 -0.2438
51142DOD     C397247  11.230  22.648   2.568  0.3854  0.4999 -0.1418
51143DOD     C197248  29.363   2.147  27.650  0.1477 -0.3505  0.1334
51143DOD     C297249  28.978   2.061  27.670  0.2129 -0.0078 -0.0252
51143DOD     C397250  28.595   2.244  27.397 -0.0303 -0.1039 -0.3553
51144DOD     C197251  20.389  14.311  19.234  0.1690 -0.1659  0.0163
51144DOD     C297252  20.224  14.013  19.518  0.0976  0.0601 -0.2417
51144DOD     C397253  19.927  13.975  19.846  0.3254  0.0240  0.2697
51145DOD     C197254  13.947  11.230  20.558 -0.2033 -0.1938 -0.0330
51145DOD     C297255  14.340  11.460  20.457 -0.2283  0.1575 -0.0621
51145DOD     C397256  14.749  11.350  20.598 -0.3543  0.0221  0.1068
51146DOD     C197257  21.815   7.769   8.100 -0.0988  0.0168 -0.0746
51146DOD     C297258  21.596   8.142   8.326  0.0977  0.0087  0.0508
51146DOD     C397259  21.239   8.385   8.580 -0.2086 -0.0735 -0.2512
51147DOD     C197260   0.521  21.270  14.089 -0.0180  0.0242 -0.1223
51147DOD     C297261   0.604  20.817  14.128 -0.1932  0.5024  0.3875
51147DOD     C397262   0.606  20.371  14.041 -0.1033  0.0556 -0.1257
51148DOD     C197263  19.803  18.156  21.711  0.0861  0.2064  0.2165
51148DOD     C297264  20.039  17.780  21.617  0.0213 -0.2372  0.0021
51148DOD     C397265  20.364  17.557  21.338  0.0390  0.1724  0.1349
51149DOD     C197266   7.353   3.019  20.443  0.2268 -0.2633 -0.0346
51149DOD     C297267   7.221   3.144  20.888 -0.0663 -0.1790  0.0964
51149DOD     C397268   6.832   3.131  21.120 -0.1209  0.0298 -0.1731
51150DOD     C197269  23.842  24.130   1.031  0.1760 -0.0975 -0.5349
51150DOD     C297270  23.884  23.638   1.008 -0.0254 -0.4057  0.0116
51150DOD     C397271  23.944  23.178   1.152 -0.2313  0.3223 -0.0257
51151DOD     C197272  24.808  21.001  17.241 -0.1156  0.0350 -0.1743
51151DOD     C297273  24.995  20.592  17.366 -0.0175  0.0365  0.2598
51151DOD     C397274  25.211  20.149  17.509  0.0366 -0.2487  0.2496
51152DOD     C197275  27.760  20.275  29.224  0.1094  0.1204  0.2038
51152DOD     C297276  28.130  20.332  29.362 -0.2875  0.1977  0.1722
51152DOD     C397277  28.559  20.110  29.324 -0.3281  0.0632 -0.0153
51153DOD     C197278   9.312  11.887  13.422  0.2840  0.0557 -0.2142
51153DOD     C297279   8.979  12.019  13.799 -0.0889  0.2831  0.2065
51153DOD     C397280   8.594  12.277  13.919  0.1094 -0.0361 -0.1360
51154DOD     C197281  20.252  28.003  14.809 -0.0858 -0.3629  0.0709
51154DOD     C297282  19.868  28.242  14.706  0.1098  0.0655  0.0856
51154DOD     C397283  19.870  28.709  14.555  0.3651 -0.1406  0.3329
51155DOD     C197284  11.739  24.447  21.889  0.0487 -0.1785  0.1710
51155DOD     C297285  11.920  24.039  21.833  0.3108 -0.0646 -0.3266
51155DOD     C397286  11.836  23.569  21.721 -0.2359  0.0263  0.1432
51156DOD     C197287  29.904  21.965  17.981 -0.3660 -0.1850 -0.4355
51156DOD     C297288  29.586  22.235  17.834 -0.0098  0.0601 -0.1087
51156DOD     C397289  29.218  22.402  18.041  0.0534  0.0065  0.4929
51157DOD     C197290   9.561  20.281   8.881  0.0996 -0.2758  0.1373
51157DOD     C297291   9.339  20.431   8.498 -0.0951  0.1463 -0.0879
51157DOD     C397292   9.035  20.782   8.577 -0.0320 -0.0873 -0.0707
51158DOD     C197293  12.773  10.329  11.419  0.0615 -0.0175 -0.0634
51158DOD     C297294  12.306  10.329  11.376 -0.0580  0.3830 -0.1031
51158DOD     C397295  11.885  10.173  11.462 -0.3653  0.1160  0.0349
51159DOD     C197296  24.867   1.000   7.624 -0.0645  0.3020  0.0081
51159DOD     C297297  25.277   0.986   7.826 -0.0189 -0.0068 -0.0342
51159DOD     C397298  25.750   1.130   7.908  0.2572 -0.0612  0.3141
51160DOD     C197299  28.532  23.930   6.431 -0.0615 -0.0146  0.1124
51160DOD     C297300  28.107  24.048   6.681 -0.0226  0.1850  0.0132
51160DOD     C397301  27.682  24.033   6.824  0.2412 -0.1058  0.0377
51161DOD     C197302  14.443  11.849  17.393 -0.1970  0.1408  0.2094
51161DOD     C297303  14.833  12.069  17.190 -0.1508  0.2744  0.0197
51161DOD     C397304  15.042  12.243  16.774 -0.0140  0.1840  0.1541
51162DOD     C197305  23.713   2.596  22.389 -0.1840  0.1637 -0.1756
51162DOD     C297306  23.574   2.298  22.770 -0.0364  0.3247  0.0420
51162DOD     C397307  23.161   2.198  22.926  0.0194  0.1108 -0.1062
51163DOD     C197308  24.487  26.128  26.497 -0.0569 -0.0478 -0.2212
51163DOD     C297309  24.114  26.426  26.279  0.2098  0.1172 -0.2281
51163DOD     C397310  23.770  26.355  26.072 -0.1611 -0.1363  0.2294
51164DOD     C197311  17.413  23.363  28.822  0.1882 -0.1116  0.1513
51164DOD     C297312  17.767  23.439  29.085 -0.1172 -0.0549 -0.1239
51164DOD     C397313  18.118  23.447  29.390 -0.1459 -0.1268  0.0840
51165DOD     C197314  11.318  23.853   0.574 -0.1545  0.3311 -0.1684
51165DOD     C297315  10.941  24.012   0.316 -0.1330  0.0195 -0.0401
51165DOD     C397316  10.740  24.399   0.171 -0.2002 -0.2218  0.0870
51166DOD     C197317  22.948   6.815  30.132 -0.0047 -0.0785  0.1392
51166DOD     C297318  23.154   6.748   0.216 -0.0896  0.1753  0.4432
51166DOD     C397319  23.319   6.978   0.603  0.2370 -0.2191  0.0818
51167DOD     C197320  24.533  10.122  11.585  0.1368  0.0641  0.0282
51167DOD     C297321  24.636  10.542  11.301  0.2875  0.1555  0.0739
51167DOD     C397322  24.684  10.992  11.329  0.0179 -0.1064  0.0239
51168DOD     C197323  13.028  12.983  25.192 -0.1348  0.1408  0.1456
51168DOD     C297324  12.537  13.155  25.129 -0.0532 -0.2096  0.1212
51168DOD     C397325  12.157  13.310  25.326 -0.0044 -0.2470  0.0786
51169DOD     C197326   0.432  12.068  21.951  0.2373 -0.1633 -0.0971
51169DOD     C297327   0.346  12.563  21.830  0.3750 -0.2721  0.4370
51169DOD     C397328   0.235  13.017  21.677  0.1754  0.0337  0.1026
51170DOD     C197329   8.306  11.027  15.827 -0.1666 -0.0675  0.0833
51170DOD     C297330   8.047  10.975  16.202 -0.2354  0.0191  0.3203
51170DOD     C397331   7.794  10.930  16.600 -0.1342 -0.2081 -0.0306
51171DOD     C197332   0.515  17.299   2.568 -0.1588 -0.0179 -0.2277
51171DOD     C297333   0.578  17.791   2.602 -0.2245  0.0210  0.0467
51171DOD     C397334   0.758  18.244   2.481  0.0187 -0.1703  0.2296
51172DOD     C197335  12.367   8.377  28.683 -0.2527  0.1335  0.0626
51172DOD     C297336  12.493   8.483  29.144  0.2511  0.0358  0.0405
51172DOD     C397337  12.212   8.489  29.471  0.0133  0.2951  0.1888
51173DOD     C197338  23.465  15.766  30.095 -0.2314  0.1098 -0.3451
51173DOD     C297339  23.214  16.017   0.053  0.2102  0.3983 -0.1854
51173DOD     C397340  23.282  16.429   0.123 -0.2463 -0.2007 -0.1028
51174DOD     C197341  25.231   7.980  22.699 -0.1728  0.0359 -0.0927
51174DOD     C297342  24.987   7.739  22.462  0.0578 -0.2665  0.2487
51174DOD     C397343  24.570   7.726  22.278 -0.2686 -0.2251  0.2290
51175DOD     C197344  15.874  24.994   8.913  0.1171  0.1765 -0.1085
51175DOD     C297345  15.699  24.946   8.494  0.2302  0.0209  0.1617
51175DOD     C397346  15.407  25.129   8.141  0.3100 -0.0294 -0.1445
51176DOD     C197347  13.329  30.150  21.459 -0.0334 -0.0658 -0.0627
51176DOD     C297348  13.063  30.322  21.037  0.0397  0.2156  0.3054
51176DOD     C397349  12.713   0.341  21.021  0.3664  0.0366  0.0033
51177DOD     C197350  20.311  25.102  22.840  0.1139  0.2804  0.5139
51177DOD     C297351  20.603  24.713  22.983  0.0667 -0.2698  0.1404
51177DOD     C397352  20.996  24.757  23.085 -0.3660  0.1809  0.1377
51178DOD     C197353  17.968  19.733   1.635 -0.0783  0.0138 -0.0216
51178DOD     C297354  17.939  19.492   2.056 -0.0494 -0.0103 -0.0029
51178DOD     C397355  17.700  19.213   2.380 -0.4802  0.2994  0.0114
51179DOD     C197356  26.401   1.466  26.281 -0.0672  0.1691  0.2088
51179DOD     C297357  26.299   1.102  25.986  0.2388 -0.2476  0.0110
51179DOD     C397358  26.628   0.803  25.724 -0.1138 -0.1167 -0.1457
51180DOD     C197359   0.013  14.698   4.591 -0.0797 -0.1685 -0.0366
51180DOD     C297360  30.130  14.449   4.897  0.2915 -0.2971 -0.0483
51180DOD     C397361  29.946  14.403   5.311 -0.2805  0.2202  0.0693
51181DOD     C197362  22.693   4.528  28.896  0.0479  0.3436 -0.1172
51181DOD     C297363  22.444   4.863  28.747 -0.3054 -0.0776  0.4536
51181DOD     C397364  22.196   5.233  28.977 -0.0381 -0.2163 -0.1396
51182DOD     C197365   5.264  11.835   7.473  0.1148 -0.1934 -0.2712
51182DOD     C297366   5.025  12.154   7.214 -0.0016  0.0710  0.4064
51182DOD     C397367   4.577  12.322   7.073  0.0412 -0.0202  0.0221
51183DOD     C197368   4.330  19.412   5.010  0.3350  0.1034 -0.0578
51183DOD     C297369   4.241  18.961   4.929 -0.1494 -0.0164 -0.3968
51183DOD     C397370   3.988  18.536   4.850 -0.0495  0.1660  0.1741
51184DOD     C197371  17.424   7.744  10.169 -0.0497  0.2641 -0.4490
51184DOD     C297372  17.660   8.123  10.278 -0.0463  0.0864  0.0185
51184DOD     C397373  18.021   8.361  10.419 -0.1425 -0.1356 -0.0372
51185DOD     C197374   8.327  21.120  23.466 -0.0910 -0.0466 -0.0360
51185DOD     C297375   8.616  21.151  23.826 -0.1516 -0.1868  0.0112
51185DOD     C397376   8.480  20.931  24.216  0.0201 -0.1438 -0.1991
51186DOD     C197377  23.316  12.406   2.429  0.0301 -0.1941 -0.1033
51186DOD     C297378  23.705  12.446   2.234 -0.1276 -0.1546  0.1102
51186DOD     C397379  24.094  12.485   1.925 -0.2334 -0.0477 -0.0867
51187DOD     C197380  14.922  25.017   0.364  0.0623 -0.0749  0.4100
51187DOD     C297381  14.452  24.916   0.479 -0.3485 -0.1119 -0.1854
51187DOD     C397382  14.181  25.116   0.775  0.1889 -0.0593 -0.2829
51188DOD     C197383  13.664  17.250   1.605 -0.0102 -0.0085  0.2087
51188DOD     C297384  13.496  16.853   1.533  0.0310 -0.0182 -0.1682
51188DOD     C397385  13.126  16.552   1.573 -0.1261  0.0769  0.0264
51189DOD     C197386   4.254  22.979   0.565  0.2097 -0.0121 -0.1105
51189DOD     C297387   4.260  22.547   0.725  0.1911  0.0299 -0.4646
51189DOD     C397388   4.105  22.319   1.120 -0.3341  0.3500  0.0202
51190DOD     C197389   4.440  29.994  18.972 -0.0351  0.3203 -0.0755
51190DOD     C297390   4.753   0.052  18.917 -0.2659 -0.5927  0.2769
51190DOD     C397391   4.918   0.490  18.832 -0.1280 -0.2863  0.1778
51191DOD     C197392  13.049  19.564   7.353  0.2936 -0.1649  0.0883
51191DOD     C297393  12.976  19.843   7.744  0.3099  0.2729  0.4423
51191DOD     C397394  12.693  20.201   7.958  0.0080  0.3236  0.1000
51192DOD     C197395  21.164   8.477  29.806  0.0506 -0.2667 -0.2115
51192DOD     C297396  21.177   8.616  -0.035  0.1698  0.0200 -0.4339
51192DOD     C397397  21.311   8.880   0.385  0.0166  0.0106 -0.1570
51193DOD     C197398  24.036   3.603   5.605 -0.1400  0.1355 -0.1393
51193DOD     C297399  23.690   3.574   5.918  0.0537 -0.1083 -0.1120
51193DOD     C397400  23.541   3.254   6.268  0.3596  0.2105 -0.2561
51194DOD     C197401  27.147   9.639  27.316  0.0994 -0.0956 -0.0028
51194DOD     C297402  27.464   9.696  27.020 -0.2155 -0.1201  0.2049
51194DOD     C397403  27.683   9.672  26.622  0.1825 -0.0481 -0.1774
51195DOD     C197404  21.603  11.332  18.044 -0.4013 -0.2475  0.1203
51195DOD     C297405  21.319  11.425  18.364 -0.0371 -0.0343 -0.3136
51195DOD     C397406  20.910  11.519  18.575  0.1964 -0.0130  0.1239
51196DOD     C197407  13.070  20.093   8.662  0.3260  0.0714 -0.2717
51196DOD     C297408  13.146  20.062   8.231 -0.0020 -0.2584  0.0127
51196DOD     C397409  13.155  20.404   7.909 -0.0417 -0.0289 -0.0917
51197DOD     C197410  11.161  23.482  20.533  0.0592 -0.3090  0.0629
51197DOD     C297411  11.086  23.113  20.270  0.0680 -0.2322 -0.0693
51197DOD     C397412  10.688  22.850  20.119 -0.0988  0.2223 -0.2966
51198DOD     C197413  14.670   5.499  16.763  0.0308 -0.0210  0.0657
51198DOD     C297414  14.229   5.331  16.777 -0.0234 -0.1808  0.2080
51198DOD     C397415  13.795   5.300  17.055 -0.1551 -0.0478  0.0048
51199DOD     C197416   1.586  15.350  22.545  0.1027 -0.2210  0.2933
51199DOD     C297417   1.782  15.136  22.188 -0.1996 -0.1309 -0.3626
51199DOD     C397418   1.954  14.752  21.937 -0.1947  0.2432  0.3539
51200DOD     C197419  16.146  10.593  26.632 -0.0593 -0.2799 -0.0666
51200DOD     C297420  16.179  10.135  26.472 -0.1976  0.2903  0.0693
51200DOD     C397421  16.490   9.910  26.166  0.1577 -0.0067  0.0869
51201DOD     C197422  11.975  20.023  29.393  0.2932  0.3984  0.1850
51201DOD     C297423  11.837  20.296  29.715 -0.0498  0.0101 -0.0597
51201DOD     C397424  11.628  20.310  30.138 -0.0139  0.2408  0.2210
51202DOD     C197425   9.279  15.854  19.175 -0.0541  0.0150  0.3248
51202DOD     C297426   9.584  16.087  18.820 -0.0564  0.2687 -0.0094
51202DOD     C397427   9.939  16.055  18.499  0.2433 -0.1025 -0.0791
51203DOD     C197428   0.420   3.930  25.806  0.2554 -0.1988 -0.0335
51203DOD     C297429   0.830   4.201  25.887 -0.1303  0.1062  0.0445
51203DOD     C397430   1.053   4.299  26.337  0.0838  0.1329 -0.0259
51204DOD     C197431  26.510   5.186  14.503  0.2082 -0.2440  0.2100
51204DOD     C297432  26.280   5.345  14.825  0.0055  0.3479  0.2679
51204DOD     C397433  26.146   5.527  15.218  0.3714 -0.0754  0.0948
51205DOD     C197434  13.169  29.780  26.661  0.2495 -0.1053  0.1377
51205DOD     C297435  13.053  30.232  26.653 -0.0325 -0.3325  0.0343
51205DOD     C397436  13.127   0.280  26.886 -0.0860 -0.3481 -0.0367
51206DOD     C197437  24.244  26.485  11.134 -0.3879 -0.3843  0.0271
51206DOD     C297438  24.575  26.812  11.038 -0.2973  0.0727  0.1078
51206DOD     C397439  24.972  26.998  10.949  0.2597 -0.1182  0.2524
51207DOD     C197440  28.481  10.185  28.909  0.1762 -0.2264 -0.0717
51207DOD     C297441  28.868   9.948  28.918 -0.2202 -0.1497  0.3577
51207DOD     C397442  28.965   9.490  29.026  0.0184 -0.0357 -0.0719
51208DOD     C197443   1.652   6.688  24.960 -0.0407  0.0142 -0.2459
51208DOD     C297444   1.196   6.733  24.932 -0.2173 -0.0061  0.0868
51208DOD     C397445   0.754   6.675  24.900  0.0932  0.0668  0.2057
51209DOD     C197446  28.111   6.558  14.259  0.1728  0.0425 -0.1981
51209DOD     C297447  27.903   6.186  14.328 -0.1698 -0.2435 -0.0482
51209DOD     C397448  27.807   5.821  14.485  0.1095  0.2478  0.2541
51210DOD     C197449  19.743  15.299  17.079 -0.2685 -0.1947  0.0676
51210DOD     C297450  20.225  15.236  17.056 -0.0071 -0.0836  0.2101
51210DOD     C397451  20.628  15.004  17.083  0.1650 -0.0903  0.2368
51211DOD     C197452  13.220   7.260  15.692 -0.2205 -0.0981 -0.0928
51211DOD     C297453  13.301   7.543  16.045 -0.0608  0.1055 -0.2233
51211DOD     C397454  13.332   7.879  16.406  0.0030  0.5678 -0.2575
51212DOD     C197455  26.301   5.973  26.286 -0.2786 -0.1986  0.1055
51212DOD     C297456  26.270   6.076  25.829  0.0292  0.0028 -0.1833
51212DOD     C397457  26.610   6.318  25.619 -0.3057 -0.0606  0.4267
51213DOD     C197458   8.218   6.491  17.048 -0.0942  0.2245 -0.3261
51213DOD     C297459   8.535   6.676  16.748  0.1754 -0.0749 -0.1456
51213DOD     C397460   8.770   7.043  16.509  0.2441 -0.0849 -0.1266
51214DOD     C197461  25.539  21.961  15.619 -0.0876 -0.2784 -0.3027
51214DOD     C297462  25.451  22.086  16.042  0.1235 -0.0052 -0.0518
51214DOD     C397463  25.512  22.353  16.412 -0.0219  0.1477 -0.3238
51215DOD     C197464  24.136  28.380  14.771 -0.1762 -0.0393 -0.0237
51215DOD     C297465  24.289  28.330  14.299 -0.1333  0.1731  0.0959
51215DOD     C397466  24.532  27.988  14.042  0.1771  0.3121  0.0237
51216DOD     C197467   0.852  28.654  11.552 -0.1275  0.2029  0.1778
51216DOD     C297468   0.598  28.821  11.145 -0.1725  0.3688 -0.2581
51216DOD     C397469   0.796  28.835  10.716  0.3815 -0.0012  0.1720
51217DOD     C197470  27.120   9.353  16.427 -0.0119  0.0064 -0.0911
51217DOD     C297471  26.964   9.007  16.134  0.2927  0.0381 -0.3264
51217DOD     C397472  26.816   8.707  15.859  0.2506  0.0424 -0.2463
51218DOD     C197473  18.333  27.750  22.515 -0.1966  0.2167  0.2443
51218DOD     C297474  18.509  28.133  22.706 -0.0274 -0.1616 -0.1390
51218DOD     C397475  18.551  28.561  22.914  0.1432  0.2749 -0.3037
51219DOD     C197476  10.878   2.703   1.115 -0.0839  0.0316 -0.0454
51219DOD     C297477  10.946   2.540   1.547  0.1993  0.0595  0.1006
51219DOD     C397478  10.985   2.223   1.880 -0.1781 -0.0161 -0.2174
51220DOD     C197479  29.101   6.460   7.672  0.1353  0.0997 -0.1015
51220DOD     C297480  29.281   6.118   7.416  0.5128  0.0713 -0.0497
51220DOD     C397481  29.264   5.895   7.055  0.0939 -0.0938  0.0321
51221DOD     C197482   5.402  28.867  11.983 -0.0069 -0.0973 -0.0540
51221DOD     C297483   5.061  29.187  12.138 -0.0595 -0.1212 -0.1624
51221DOD     C397484   4.790  29.306  12.516  0.0410 -0.0164  0.0297
51222DOD     C197485   6.677  12.604   6.346 -0.0777  0.1746  0.0502
51222DOD     C297486   6.539  12.726   5.968  0.0787  0.0607  0.2177
51222DOD     C397487   6.707  12.632   5.541  0.0475 -0.0908 -0.2416
51223DOD     C197488   3.518   1.053   9.169  0.0931  0.3363 -0.4092
51223DOD     C297489   3.460   1.175   8.706 -0.4317 -0.2103 -0.1618
51223DOD     C397490   3.363   1.297   8.247  0.2679 -0.3938 -0.0387
51224DOD     C197491  13.386  17.451  25.226 -0.0230 -0.1457  0.2727
51224DOD     C297492  13.753  17.378  24.928 -0.0275 -0.0156 -0.1889
51224DOD     C397493  14.034  17.403  24.552  0.4323 -0.0104 -0.0960
51225DOD     C197494  22.920   9.786   3.244  0.0936 -0.0081  0.0386
51225DOD     C297495  22.499   9.696   3.365  0.6097 -0.1988  0.2144
51225DOD     C397496  22.263   9.396   3.601  0.1782  0.0763  0.1513
51226DOD     C197497  12.565  22.873  15.051  0.1219 -0.1081 -0.0471
51226DOD     C297498  12.265  22.582  15.262  0.0393  0.2928  0.0099
51226DOD     C397499  12.030  22.284  15.534 -0.1012 -0.3036  0.0388
51227DOD     C197500  29.874   4.511  26.647  0.2679 -0.2114 -0.0279
51227DOD     C297501  29.984   4.876  26.384 -0.0751  0.0505 -0.1069
51227DOD     C397502   0.110   4.803  26.242 -0.0615  0.0178  0.2324
51228DOD     C197503   8.748   1.218  13.597  0.1903 -0.1224  0.0701
51228DOD     C297504   8.630   1.523  13.917 -0.1541  0.0159 -0.2101
51228DOD     C397505   8.647   1.810  14.269 -0.0587  0.1376 -0.0265
51229DOD     C197506   5.057  27.577  13.731 -0.0779  0.2852  0.0639
51229DOD     C297507   5.202  27.236  13.464 -0.1421 -0.0278  0.2585
51229DOD     C397508   5.393  26.893  13.139 -0.0088 -0.0964 -0.3040
51230DOD     C197509  21.504  23.429   6.694  0.2362 -0.0301  0.5115
51230DOD     C297510  21.075  23.345   6.964  0.0075 -0.2578 -0.1440
51230DOD     C397511  20.832  23.106   7.334  0.1319  0.0133  0.1105
51231DOD     C197512  29.654  25.998  23.143 -0.0534  0.1300  0.3605
51231DOD     C297513  29.298  25.771  23.094  0.1403  0.3416  0.4235
51231DOD     C397514  28.920  25.925  22.864 -0.1687  0.2670  0.0923
51232DOD     C197515  20.417   0.271   2.015 -0.0097  0.3341 -0.2298
51232DOD     C297516  20.848   0.517   2.101  0.2012 -0.0430 -0.0945
51232DOD     C397517  21.251   0.249   2.085  0.0509  0.2512  0.1841
51233DOD     C197518  21.015  15.733  17.911 -0.0228  0.2047  0.0211
51233DOD     C297519  20.693  16.002  17.748  0.0084  0.2166  0.2640
51233DOD     C397520  20.244  16.157  17.846  0.0215 -0.2018 -0.1251
51234DOD     C197521  17.208  15.268  25.650  0.1325  0.3088 -0.0371
51234DOD     C297522  16.786  15.335  25.648 -0.2665 -0.0048 -0.0859
51234DOD     C397523  16.399  15.427  25.347  0.1061  0.2823 -0.1593
51235DOD     C197524  24.987  19.805  29.542  0.1402 -0.2727  0.1207
51235DOD     C297525  24.947  20.221  29.778  0.2913  0.0896  0.1880
51235DOD     C397526  25.145  20.618  29.981 -0.1273 -0.0106  0.0790
51236DOD     C197527   1.804  24.356   6.838  0.0606  0.1016 -0.0721
51236DOD     C297528   1.557  24.632   6.576  0.2178 -0.1908 -0.2172
51236DOD     C397529   1.220  24.559   6.282 -0.1220 -0.2294  0.1847
51237DOD     C197530   5.552  28.592   8.841 -0.2169 -0.0089  0.0798
51237DOD     C297531   5.948  28.751   8.738  0.3595 -0.1282  0.1099
51237DOD     C397532   6.351  28.983   8.578  0.1381  0.3623  0.1573
51238DOD     C197533  23.375   3.286  28.602 -0.1454  0.0072 -0.4340
51238DOD     C297534  23.148   3.118  28.965 -0.1491  0.0975 -0.2980
51238DOD     C397535  22.964   2.956  29.343  0.1892 -0.3269  0.0290
51239DOD     C197536  18.658  16.679  17.334 -0.0615 -0.2263 -0.0436
51239DOD     C297537  18.556  16.356  17.647  0.0815  0.0183 -0.1549
51239DOD     C397538  18.598  16.014  18.002  0.0506  0.2211  0.0964
51240DOD     C197539  12.215   3.747   2.170  0.3253 -0.1763 -0.3497
51240DOD     C297540  11.916   3.990   2.237 -0.1312  0.0450 -0.1907
51240DOD     C397541  11.539   4.039   2.553  0.0765 -0.0651  0.1225
51241DOD     C197542  25.612  11.663  16.549 -0.0844  0.3315 -0.0947
51241DOD     C297543  25.546  11.425  16.185  0.2907  0.2148  0.0017
51241DOD     C397544  25.465  11.210  15.736  0.0937  0.0534 -0.3733
51242DOD     C197545  17.732  30.019  21.347  0.1020  0.0744 -0.0613
51242DOD     C297546  17.903  29.905  21.812  0.2019  0.2503 -0.2956
51242DOD     C397547  18.177  29.540  21.891  0.2951  0.1669  0.0990
51243DOD     C197548   7.704   8.344  11.855 -0.3594 -0.0239  0.0910
51243DOD     C297549   7.310   8.616  11.815 -0.1148  0.0281  0.2560
51243DOD     C397550   7.006   8.790  11.517 -0.0083 -0.1107  0.2855
51244DOD     C197551  19.533  24.986   1.302  0.0680  0.1311  0.3733
51244DOD     C297552  19.433  25.358   1.584 -0.2780 -0.0882 -0.1860
51244DOD     C397553  19.319  25.767   1.709 -0.1247  0.0164  0.1990
51245DOD     C197554   3.937   6.759  12.674 -0.4946 -0.1315  0.0398
51245DOD     C297555   4.231   6.511  12.380  0.1080 -0.0097 -0.1707
51245DOD     C397556   4.506   6.126  12.211 -0.0127 -0.0588 -0.1445
51246DOD     C197557  22.581  20.285  10.598  0.0773 -0.1394  0.3015
51246DOD     C297558  22.775  19.820  10.661 -0.3501 -0.0023  0.0639
51246DOD     C397559  22.870  19.373  10.620  0.1551 -0.0794  0.1163
51247DOD     C197560  10.517  11.507  26.396 -0.0925  0.0538 -0.1921
51247DOD     C297561  10.955  11.569  26.221 -0.1697 -0.1106  0.2717
51247DOD     C397562  11.417  11.549  26.096 -0.0962  0.2107  0.2976
51248DOD     C197563  27.674  19.102  24.994 -0.0705  0.0177 -0.0910
51248DOD     C297564  27.637  18.774  25.315  0.3703  0.3922 -0.1579
51248DOD     C397565  27.813  18.564  25.696  0.1869  0.2876 -0.2085
51249DOD     C197566   5.780  27.621   4.771  0.0686  0.2391  0.3874
51249DOD     C297567   5.848  27.573   4.280  0.0366 -0.1348  0.0425
51249DOD     C397568   6.049  27.769   3.961 -0.2439 -0.1122 -0.0697
51250DOD     C197569  26.900  21.497  23.902 -0.0054 -0.2524 -0.0934
51250DOD     C297570  26.530  21.497  24.262  0.1388 -0.1290  0.1785
51250DOD     C397571  26.296  21.680  24.632  0.1250 -0.3404  0.0523
51251DOD     C197572  28.495   2.049  18.328  0.3909  0.1667 -0.1330
51251DOD     C297573  28.868   2.175  18.488  0.1822 -0.0602 -0.0945
51251DOD     C397574  29.052   2.569  18.658 -0.1051  0.1295 -0.0663
51252DOD     C197575  24.960   0.783  11.769 -0.2268 -0.0530 -0.0419
51252DOD     C297576  25.411   0.756  11.964  0.4780  0.1726 -0.4278
51252DOD     C397577  25.852   0.913  12.240 -0.1196  0.2087 -0.0800
51253DOD     C197578   2.360  12.585   4.868 -0.0844  0.1001 -0.1060
51253DOD     C297579   2.361  12.332   5.252 -0.2481 -0.0800 -0.1739
51253DOD     C397580   2.465  12.083   5.662 -0.2980 -0.1129 -0.0311
51254DOD     C197581   3.590  22.370   4.110 -0.0587 -0.1148 -0.3641
51254DOD     C297582   3.288  22.406   3.798  0.1895 -0.0447  0.1566
51254DOD     C397583   2.835  22.358   3.768  0.2856  0.1167  0.0782
51255DOD     C197584  27.298  16.890  24.048  0.3078  0.4590  0.0785
51255DOD     C297585  27.356  17.284  24.283 -0.0997 -0.0028  0.0265
51255DOD     C397586  27.030  17.659  24.260  0.2545 -0.0728 -0.2286
51256DOD     C197587  17.636  19.335  25.273 -0.1577 -0.3106  0.0644
51256DOD     C297588  17.636  18.926  25.015 -0.1950 -0.1155  0.1539
51256DOD     C397589  17.736  18.660  24.674 -0.0456 -0.2191 -0.2134
51257DOD     C197590  20.928  12.389  10.586  0.1683  0.0738 -0.2508
51257DOD     C297591  20.639  12.077  10.564 -0.0720 -0.1265 -0.2223
51257DOD     C397592  20.233  11.797  10.578 -0.1038 -0.0947 -0.1588
51258DOD     C197593  22.756  29.902  14.127 -0.0119  0.1047  0.0585
51258DOD     C297594  22.728  29.488  13.874 -0.1224  0.1143  0.1228
51258DOD     C397595  22.601  29.018  13.794 -0.1876 -0.0335  0.0091
51259DOD     C197596  11.462  27.847   1.292  0.0509 -0.0443 -0.0225
51259DOD     C297597  11.059  27.705   1.291  0.2339 -0.1583  0.0207
51259DOD     C397598  10.606  27.561   1.218 -0.2908 -0.1313  0.0542
51260DOD     C197599  19.278   6.527   9.782  0.2885  0.2340 -0.1526
51260DOD     C297600  19.373   6.868   9.394 -0.0356 -0.1196  0.1151
51260DOD     C397601  19.700   7.070   9.086 -0.1438 -0.1762 -0.2822
51261DOD     C197602  24.769   4.315  14.134 -0.1577  0.0394 -0.0033
51261DOD     C297603  24.762   4.180  14.596 -0.0001  0.1902 -0.1916
51261DOD     C397604  24.834   3.980  14.989 -0.0536  0.0304  0.1591
51262DOD     C197605  14.126   1.248  28.297 -0.0889  0.1005  0.1745
51262DOD     C297606  14.184   0.958  27.933  0.0008  0.3608  0.0631
51262DOD     C397607  14.286   0.888  27.476  0.0246 -0.1687 -0.0374
51263DOD     C197608  27.544   8.343  14.218  0.3308 -0.2066  0.2169
51263DOD     C297609  27.782   8.070  13.888  0.0678 -0.0582  0.1397
51263DOD     C397610  28.142   7.776  14.000 -0.2754 -0.2542  0.1449
51264DOD     C197611  24.533   6.638  17.313 -0.0626  0.2622 -0.1824
51264DOD     C297612  24.646   6.832  16.921  0.3969  0.0088  0.2992
51264DOD     C397613  25.081   6.813  16.721  0.0249  0.1015  0.2227
51265DOD     C197614  18.827  11.657  10.650  0.3794  0.0854  0.3371
51265DOD     C297615  18.807  11.374  10.292 -0.0614  0.0060 -0.5694
51265DOD     C397616  18.708  11.053   9.987  0.1241 -0.1679 -0.0764
51266DOD     C197617   9.682  13.101  18.200  0.2913  0.0824  0.1416
51266DOD     C297618   9.994  12.961  18.526 -0.1021 -0.4578  0.1312
51266DOD     C397619  10.144  12.816  18.934  0.1914 -0.1390 -0.2578
51267DOD     C197620  25.985  27.923  23.025  0.2266 -0.1783 -0.1583
51267DOD     C297621  26.139  27.500  23.168 -0.0759  0.0454  0.3016
51267DOD     C397622  26.130  27.162  22.827  0.0846 -0.0009 -0.2370
51268DOD     C197623  27.762   7.366  15.703  0.1256  0.1217  0.2254
51268DOD     C297624  27.871   7.131  16.088 -0.1815 -0.0687 -0.0232
51268DOD     C397625  28.010   6.726  16.378  0.1802  0.1263  0.1165
51269DOD     C197626  26.479  16.342  13.882 -0.0902 -0.1066  0.1296
51269DOD     C297627  26.405  15.902  13.928 -0.1198  0.2653  0.1923
51269DOD     C397628  26.336  15.441  14.156 -0.0147 -0.2798 -0.0921
51270DOD     C197629  13.062  14.841  24.108  0.4985 -0.1428  0.3415
51270DOD     C297630  13.302  15.076  24.460 -0.4883 -0.1017 -0.0140
51270DOD     C397631  13.731  14.957  24.643 -0.3248 -0.0554  0.2359
51271DOD     C197632  23.383   3.714   7.023 -0.1545 -0.0868  0.2437
51271DOD     C297633  23.689   3.495   6.800 -0.3709 -0.2154  0.0556
51271DOD     C397634  23.962   3.576   6.395  0.0931 -0.0810 -0.1230
51272DOD     C197635   6.666  29.376   6.676  0.1526  0.2034  0.1520
51272DOD     C297636   6.681  29.759   6.981 -0.0260 -0.0902  0.0369
51272DOD     C397637   6.518  30.169   7.081  0.0035 -0.2125 -0.0018
51273DOD     C197638  20.774   0.090   2.335  0.1479  0.2283 -0.1961
51273DOD     C297639  20.799  30.345   2.833 -0.4339  0.2243  0.0374
51273DOD     C397640  20.797  30.092   3.218 -0.0906 -0.0748  0.1826
51274DOD     C197641  13.250  12.805  23.957  0.1229 -0.1284 -0.2468
51274DOD     C297642  13.686  12.849  24.150 -0.0556 -0.0048 -0.0222
51274DOD     C397643  13.814  12.437  24.309  0.0284  0.1971  0.0983
51275DOD     C197644   9.763  30.278  17.351  0.0710  0.1658 -0.0822
51275DOD     C297645  10.032   0.171  16.982 -0.2065  0.1256 -0.1179
51275DOD     C397646  10.422   0.410  17.040 -0.0737 -0.1207  0.1947
51276DOD     C197647  20.366  23.025  25.057 -0.0886 -0.0587  0.5127
51276DOD     C297648  20.276  22.900  24.604 -0.1905 -0.0769  0.0871
51276DOD     C397649  20.116  22.497  24.378 -0.4000  0.0514 -0.2667
51277DOD     C197650   0.803   2.780  15.745 -0.2635 -0.1864 -0.0798
51277DOD     C297651   0.952   2.944  15.307  0.3925  0.1100 -0.1005
51277DOD     C397652   1.076   3.133  14.905  0.2255 -0.0236  0.0823
51278DOD     C197653   4.738  16.996  26.943 -0.0941 -0.0833  0.1235
51278DOD     C297654   4.302  16.913  26.911 -0.2305  0.1561 -0.1193
51278DOD     C397655   3.854  16.800  27.003  0.2219 -0.2911  0.0904
51279DOD     C197656   7.687  19.787  29.334  0.0459  0.1125 -0.0955
51279DOD     C297657   8.111  20.052  29.243 -0.1135 -0.0192 -0.1357
51279DOD     C397658   8.618  20.022  29.274  0.1801 -0.1061  0.2273
51280DOD     C197659  10.257   8.748  16.798 -0.2851 -0.0276 -0.0907
51280DOD     C297660  10.455   8.963  16.444  0.0698 -0.1603 -0.2163
51280DOD     C397661  10.814   9.262  16.385 -0.0441  0.1584 -0.3298
51281DOD     C197662  19.477  15.762  15.937  0.0609  0.2004  0.3902
51281DOD     C297663  19.418  15.454  16.330 -0.0019  0.0977  0.4572
51281DOD     C397664  19.490  15.085  16.497 -0.0051 -0.1432  0.0513
51282DOD     C197665  18.342  16.367  10.375  0.0402  0.0673 -0.0161
51282DOD     C297666  18.023  16.586  10.682  0.1270  0.1387 -0.3512
51282DOD     C397667  17.569  16.693  10.582 -0.0664 -0.0466 -0.0608
51283DOD     C197668  26.546  15.653   2.078  0.1646  0.3573  0.1179
51283DOD     C297669  26.627  15.235   1.751 -0.1044 -0.3121 -0.2260
51283DOD     C397670  26.817  14.841   1.584 -0.0860  0.1044  0.3875
51284DOD     C197671  15.046  23.409  30.119  0.1147 -0.3202 -0.3123
51284DOD     C297672  15.511  23.342  30.049 -0.0170  0.3645 -0.1000
51284DOD     C397673  15.867  23.284  30.272  0.0658 -0.0045  0.2668
51285DOD     C197674   3.236   1.076  13.301 -0.0423 -0.2420 -0.0584
51285DOD     C297675   3.317   1.522  13.353  0.1523  0.2370  0.0730
51285DOD     C397676   3.492   1.952  13.179 -0.0066 -0.3167  0.0275
51286DOD     C197677   1.017   2.178  26.175 -0.2259 -0.1368 -0.3628
51286DOD     C297678   0.670   2.453  26.301  0.2432 -0.3420  0.1398
51286DOD     C397679   0.432   2.850  26.340 -0.0530 -0.0221 -0.0629
51287DOD     C197680  23.787   5.768   5.824 -0.1637 -0.0352  0.0654
51287DOD     C297681  23.705   5.515   5.485 -0.1290  0.1097 -0.0141
51287DOD     C397682  23.742   5.189   5.141 -0.0988 -0.0186  0.1611
51288DOD     C197683  21.555  24.808   1.851 -0.0074  0.1562  0.0250
51288DOD     C297684  21.105  24.706   1.844 -0.2309  0.3359  0.1563
51288DOD     C397685  20.723  24.749   1.640  0.2839 -0.0115  0.0179
51289DOD     C197686  25.002  21.341   8.410 -0.0937  0.1207  0.2008
51289DOD     C297687  24.965  21.606   8.085 -0.0652 -0.0634 -0.1598
51289DOD     C397688  25.265  21.835   7.822 -0.0130  0.1855  0.1779
51290DOD     C197689  20.143  18.660  29.684  0.0384 -0.0034 -0.2359
51290DOD     C297690  20.399  19.061  29.679  0.0619  0.0177  0.5158
51290DOD     C397691  20.697  19.240  29.378 -0.0130 -0.0537  0.0708
51291DOD     C197692   3.471  18.312  21.097  0.1827  0.1144 -0.0038
51291DOD     C297693   3.549  17.846  20.940  0.1331  0.1931  0.0690
51291DOD     C397694   3.456  17.458  21.121 -0.0830  0.0266  0.2072
51292DOD     C197695  23.036  15.086   6.346  0.3529 -0.0764 -0.0236
51292DOD     C297696  22.885  14.675   6.488  0.0674  0.0442 -0.0305
51292DOD     C397697  22.623  14.288   6.388 -0.2715  0.2419 -0.0629
51293DOD     C197698  23.731   0.092  10.089  0.0882 -0.3582 -0.0091
51293DOD     C297699  23.803  30.073  10.382 -0.4426 -0.0238 -0.0646
51293DOD     C397700  23.806  29.620  10.501  0.1127  0.0889 -0.1544
51294DOD     C197701   1.009  17.267   5.965  0.0783  0.1001  0.0038
51294DOD     C297702   1.060  16.821   6.147  0.1893 -0.1621  0.1882
51294DOD     C397703   1.375  16.528   6.383 -0.3959 -0.2088 -0.0866
51295DOD     C197704  15.794   6.427   8.931  0.0272  0.1221  0.2357
51295DOD     C297705  15.888   6.023   8.696  0.1026 -0.1114 -0.1208
51295DOD     C397706  15.890   5.844   8.248 -0.3082 -0.2403 -0.1642
51296DOD     C197707   3.106   2.281  11.851  0.0234  0.1540  0.1011
51296DOD     C297708   2.729   2.315  11.595 -0.1088  0.0145  0.4406
51296DOD     C397709   2.435   2.194  11.257  0.3719  0.0388 -0.3201
51297DOD     C197710  17.918   2.030  15.391  0.0517 -0.0394 -0.0430
51297DOD     C297711  18.017   1.628  15.207 -0.2422 -0.0554  0.1783
51297DOD     C397712  18.082   1.541  14.723  0.0033  0.0859  0.1710
51298DOD     C197713  14.551  16.822  29.890 -0.0428  0.0016 -0.3988
51298DOD     C297714  14.725  16.393  29.771  0.2161 -0.0239  0.4322
51298DOD     C397715  14.788  15.963  29.765 -0.2122 -0.1429  0.1916
51299DOD     C197716  30.115   8.047  14.420  0.1949 -0.2650  0.0098
51299DOD     C297717  29.844   7.928  14.072 -0.0226  0.0406  0.0497
51299DOD     C397718  29.544   7.693  13.723  0.0174 -0.1749  0.0933
51300DOD     C197719  29.663  25.766   3.553 -0.0173  0.4653  0.3400
51300DOD     C297720  29.813  26.005   3.915  0.2989  0.1416  0.3405
51300DOD     C397721  29.913  26.330   4.223  0.2581 -0.3455 -0.0224
51301DOD     C197722   5.402   3.474  19.226  0.0573  0.2166 -0.1689
51301DOD     C297723   4.957   3.637  19.371 -0.1863  0.0554  0.1377
51301DOD     C397724   4.706   3.869  19.667 -0.0225  0.2980  0.0099
51302DOD     C197725  13.347   4.162   7.697  0.1023  0.2293  0.3003
51302DOD     C297726  13.277   4.572   7.745 -0.0907 -0.0185  0.1119
51302DOD     C397727  13.468   4.958   7.984  0.2521  0.0116 -0.0713
51303DOD     C197728  20.490   4.859  18.344  0.2567 -0.1055 -0.0989
51303DOD     C297729  20.266   4.427  18.473  0.3450  0.5036  0.3899
51303DOD     C397730  20.400   3.971  18.430 -0.3656  0.0487 -0.2001
51304DOD     C197731   4.606  15.904   7.933 -0.3050  0.1437 -0.1338
51304DOD     C297732   4.975  15.644   7.916  0.1088 -0.0899  0.2361
51304DOD     C397733   5.312  15.472   8.159 -0.0700  0.1610 -0.2146
51305DOD     C197734  17.288   7.350   1.669 -0.2744  0.0992 -0.1187
51305DOD     C297735  17.606   7.132   1.912  0.1149  0.0050 -0.1195
51305DOD     C397736  17.946   7.160   2.180  0.4361  0.1352  0.0194
51306DOD     C197737   2.181  16.619  29.432 -0.2497  0.2821 -0.1326
51306DOD     C297738   2.001  16.314  29.079  0.2476  0.0416  0.2408
51306DOD     C397739   1.684  16.148  28.778 -0.3423 -0.1756 -0.3334
51307DOD     C197740  23.814  21.748  20.043 -0.0375  0.2291 -0.3679
51307DOD     C297741  23.851  22.042  19.680  0.0400  0.3966 -0.1440
51307DOD     C397742  23.955  22.498  19.753 -0.0375  0.1530  0.0769
51308DOD     C197743  22.828  25.171  13.395  0.1263  0.0553 -0.0879
51308DOD     C297744  22.876  24.719  13.361 -0.1508 -0.0671  0.2022
51308DOD     C397745  22.692  24.264  13.304 -0.0870  0.3420  0.1383
51309DOD     C197746   4.751  24.668   5.464  0.1152 -0.1189 -0.1550
51309DOD     C297747   4.713  24.558   5.935 -0.1707  0.3070 -0.0917
51309DOD     C397748   4.386  24.598   6.278 -0.2302  0.0984 -0.0379
51310DOD     C197749  10.752  25.761  14.019 -0.1709  0.1967  0.2881
51310DOD     C297750  10.651  25.439  13.684  0.0349 -0.1048  0.0068
51310DOD     C397751  10.234  25.182  13.504  0.2549  0.2331  0.0341
51311DOD     C197752  21.656  19.179  16.239 -0.4325 -0.2308 -0.1693
51311DOD     C297753  22.120  19.199  16.039 -0.1068  0.0115 -0.0102
51311DOD     C397754  22.578  19.157  16.082 -0.2977 -0.0380  0.0979
51312DOD     C197755  17.867   8.401   2.774  0.2551 -0.2132 -0.2778
51312DOD     C297756  18.040   8.772   2.597 -0.1089 -0.4356 -0.1326
51312DOD     C397757  18.088   9.150   2.344 -0.1752  0.0483  0.0001
51313DOD     C197758   1.225  13.201   6.988 -0.1378  0.4989 -0.3766
51313DOD     C297759   1.475  13.536   7.244  0.2962  0.5126  0.1719
51313DOD     C397760   1.855  13.799   7.216  0.1484  0.0208 -0.0431
51314DOD     C197761  11.034   8.960   6.578 -0.0559 -0.5055  0.2947
51314DOD     C297762  11.039   9.306   6.837  0.1076  0.2187 -0.1605
51314DOD     C397763  10.991   9.462   7.250  0.1073  0.2234  0.3093
51315DOD     C197764   0.617  30.248  29.302  0.1176  0.3797 -0.2515
51315DOD     C297765   0.823  29.802  29.502  0.2914 -0.1289 -0.1593
51315DOD     C397766   0.490  29.415  29.605 -0.1732 -0.1158  0.1043
51316DOD     C197767  18.806   9.115  10.181  0.3346  0.0481 -0.0988
51316DOD     C297768  18.601   8.884  10.523  0.2700 -0.1031  0.1432
51316DOD     C397769  18.350   8.541  10.731 -0.1593  0.0410 -0.0406
51317DOD     C197770  28.972  10.899   9.442  0.3799 -0.0112  0.1091
51317DOD     C297771  28.894  11.202   9.746 -0.1148 -0.0112 -0.0557
51317DOD     C397772  28.860  11.605  10.022 -0.3675  0.2199  0.2866
51318DOD     C197773  10.856  21.272   4.283 -0.0056 -0.2002  0.2792
51318DOD     C297774  10.778  21.614   3.946  0.1337  0.2482  0.1478
51318DOD     C397775  10.884  21.615   3.479 -0.1500  0.0445 -0.0651
51319DOD     C197776  13.613  14.474  24.758  0.2249 -0.1012 -0.3547
51319DOD     C297777  13.320  14.436  25.121  0.1935 -0.0643 -0.0889
51319DOD     C397778  13.151  14.220  25.431 -0.0827  0.2174  0.4362
51320DOD     C197779  25.739   9.979  24.016 -0.1921  0.2925 -0.4652
51320DOD     C297780  25.272   9.860  24.031 -0.0995  0.2102 -0.1588
51320DOD     C397781  25.011   9.506  23.908 -0.2549  0.0358  0.5100
51321DOD     C197782  10.595  10.331   2.162  0.0529 -0.3229  0.1114
51321DOD     C297783  10.752  10.500   1.795 -0.0464 -0.1073  0.0435
51321DOD     C397784  11.171  10.547   1.651  0.0200 -0.3300  0.0053
51322DOD     C197785  17.221  15.839   8.964 -0.3005 -0.0449 -0.2727
51322DOD     C297786  17.401  15.448   8.853  0.1859  0.0676  0.2950
51322DOD     C397787  17.824  15.363   8.839  0.0035  0.2239 -0.0558
51323DOD     C197788   4.956   6.425  11.576 -0.1101 -0.0727  0.4214
51323DOD     C297789   4.588   6.696  11.549 -0.0317  0.4034  0.1346
51323DOD     C397790   4.414   6.904  11.926  0.0341 -0.1188 -0.1723
51324DOD     C197791  23.257   5.576  23.414  0.1532 -0.0916  0.0591
51324DOD     C297792  23.611   5.549  23.032 -0.0086  0.1128 -0.1289
51324DOD     C397793  23.956   5.692  22.761 -0.1240  0.0814 -0.0467
51325DOD     C197794  23.327  23.724   7.408 -0.1526 -0.0790 -0.0183
51325DOD     C297795  23.303  23.407   7.727  0.0618 -0.1322 -0.0302
51325DOD     C397796  23.137  23.269   8.127 -0.1903  0.4163 -0.1772
51326DOD     C197797  22.756  21.437  10.890 -0.0745 -0.2590  0.3755
51326DOD     C297798  22.433  21.629  10.611  0.0076  0.0555 -0.0919
51326DOD     C397799  21.999  21.677  10.376  0.1001  0.1807 -0.0957
51327DOD     C197800  17.778  13.471  10.402  0.0380  0.0172  0.1436
51327DOD     C297801  17.970  13.335  10.786  0.0763  0.3992 -0.1584
51327DOD     C397802  17.917  13.074  11.169 -0.1943  0.1114  0.2768
51328DOD     C197803  13.288  22.070   3.411  0.1067  0.4334 -0.0258
51328DOD     C297804  13.319  21.738   3.769  0.1278 -0.2390 -0.0125
51328DOD     C397805  13.343  21.673   4.243 -0.0777 -0.1906 -0.0566
51329DOD     C197806  16.099  29.512   8.172 -0.0127 -0.0577  0.0586
51329DOD     C297807  16.076  29.035   8.255 -0.1093 -0.0495 -0.0195
51329DOD     C397808  16.501  28.786   8.308 -0.1989 -0.1092 -0.1176
51330DOD     C197809   2.921  12.084  26.203  0.0471  0.0320 -0.0735
51330DOD     C297810   2.710  12.252  25.895  0.1181 -0.0980  0.1900
51330DOD     C397811   2.618  12.673  25.832  0.1759 -0.0609 -0.1923
51331DOD     C197812  17.447   7.733  18.552  0.0355  0.0252  0.0740
51331DOD     C297813  17.793   7.820  18.862 -0.3293 -0.1308 -0.1525
51331DOD     C397814  17.837   7.526  19.256  0.2442 -0.1070  0.0085
51332DOD     C197815  28.487   4.382  25.960 -0.1510  0.1195  0.0440
51332DOD     C297816  28.224   4.405  25.585  0.2316 -0.0193 -0.2997
51332DOD     C397817  28.082   4.766  25.322  0.1681 -0.0953  0.0230
51333DOD     C197818  28.481  20.035   8.077 -0.1544 -0.0549 -0.0669
51333DOD     C297819  28.011  19.990   7.949 -0.1108 -0.1073 -0.1006
51333DOD     C397820  27.602  19.888   8.095 -0.1437  0.1442 -0.3010
51334DOD     C197821   4.658  26.682  26.276  0.1148 -0.0049  0.2521
51334DOD     C297822   4.388  26.442  25.947  0.1630 -0.2223  0.0477
51334DOD     C397823   3.914  26.279  25.791  0.1009  0.0671  0.3019
51335DOD     C197824  29.672  11.624  27.598  0.2013  0.0765 -0.1105
51335DOD     C297825  29.797  11.374  27.197  0.1533  0.1504 -0.0679
51335DOD     C397826  29.730  10.923  26.971  0.0584  0.2728  0.0551
51336DOD     C197827  17.878   4.165  10.456  0.0808  0.3513  0.3469
51336DOD     C297828  17.924   4.247  10.873 -0.1351  0.0212 -0.4155
51336DOD     C397829  18.256   4.173  11.206  0.1589  0.2447  0.2446
51337DOD     C197830  10.650  15.351   0.498 -0.2625 -0.0975  0.0656
51337DOD     C297831  11.075  15.224   0.353  0.1564  0.0806  0.0563
51337DOD     C397832  11.369  15.173  30.332  0.1198  0.1217  0.0667
51338DOD     C197833  10.708  10.654   4.280  0.0249  0.0034 -0.1901
51338DOD     C297834  10.348  10.550   4.049  0.0260  0.0567 -0.3002
51338DOD     C397835   9.892  10.409   3.943  0.1942  0.1293  0.2817
51339DOD     C197836  24.648  23.895  24.271 -0.1016  0.1032  0.1142
51339DOD     C297837  24.209  24.011  24.282 -0.0793  0.0104  0.1780
51339DOD     C397838  23.799  23.911  24.057  0.3677  0.2241  0.1403
51340DOD     C197839   7.616  30.066  16.134  0.0867  0.1957 -0.0174
51340DOD     C297840   7.898  29.913  16.491 -0.1145 -0.1441  0.1817
51340DOD     C397841   8.195  29.625  16.697 -0.1082  0.1064 -0.1364
51341DOD     C197842  12.540  15.023  14.210 -0.1420 -0.1383  0.0475
51341DOD     C297843  12.786  15.207  14.542 -0.0162 -0.1448  0.1018
51341DOD     C397844  13.194  15.174  14.644 -0.0211  0.0048  0.1832
51342DOD     C197845  10.855   9.910   8.710 -0.1285  0.2354  0.2394
51342DOD     C297846  10.550   9.566   8.730  0.4000 -0.1790 -0.3075
51342DOD     C397847  10.449   9.152   8.951  0.0405 -0.0152 -0.1166
51343DOD     C197848  17.780  24.912  26.116 -0.2939 -0.0473 -0.0495
51343DOD     C297849  17.764  24.464  26.165  0.0828  0.2811  0.1436
51343DOD     C397850  18.123  24.201  26.347  0.1253  0.3531 -0.0605
51344DOD     C197851  18.068  14.545  28.080 -0.0660 -0.1160 -0.1221
51344DOD     C297852  17.986  14.992  28.140 -0.3068  0.3274  0.4805
51344DOD     C397853  18.019  15.260  28.549 -0.1267  0.0400 -0.1708
51345DOD     C197854  23.553  14.436  24.550 -0.2230  0.1528  0.1132
51345DOD     C297855  23.342  14.786  24.683  0.0663  0.3234 -0.0296
51345DOD     C397856  23.246  15.231  24.640 -0.1517  0.1324 -0.0335
51346DOD     C197857  18.043  10.137  29.131 -0.2739 -0.0171  0.2833
51346DOD     C297858  18.384   9.877  28.903  0.1268 -0.0322  0.0316
51346DOD     C397859  18.524   9.453  28.748 -0.2318  0.1388  0.0095
51347DOD     C197860  21.509  19.185  11.533  0.1183 -0.2683 -0.0644
51347DOD     C297861  21.601  19.356  11.113 -0.1552  0.0581 -0.1316
51347DOD     C397862  22.001  19.183  11.020  0.1181 -0.2600  0.1107
51348DOD     C197863  13.141  10.567  17.648  0.1563  0.1674  0.1415
51348DOD     C297864  13.439  10.677  17.986 -0.0415  0.0549  0.2426
51348DOD     C397865  13.500  10.761  18.442  0.3658  0.1414  0.1341
51349DOD     C197866  29.433  21.299  17.550  0.2003  0.2551  0.0909
51349DOD     C297867  29.495  20.933  17.886  0.1603  0.4056 -0.1466
51349DOD     C397868  29.178  20.695  18.137  0.3253 -0.2378 -0.2666
51350DOD     C197869  21.880  26.165  16.339 -0.1296  0.3063 -0.0435
51350DOD     C297870  21.642  25.774  16.349 -0.1265  0.0978 -0.1729
51350DOD     C397871  21.229  25.545  16.367  0.1579 -0.1407  0.3280
51351DOD     C197872  29.270   8.464  22.981  0.0443 -0.1679  0.1217
51351DOD     C297873  29.119   8.626  22.569  0.1677  0.2539  0.3905
51351DOD     C397874  28.861   8.980  22.586  0.2325  0.1257 -0.0234
51352DOD     C197875  15.621  13.879  16.425  0.1809 -0.0122 -0.0424
51352DOD     C297876  15.594  13.483  16.690 -0.0289  0.3181  0.0942
51352DOD     C397877  15.552  13.076  16.893  0.0966 -0.1150 -0.3533
51353DOD     C197878  29.508   1.414  13.738 -0.0262 -0.0510  0.2635
51353DOD     C297879  29.153   1.482  13.428 -0.1800  0.4444  0.1024
51353DOD     C397880  28.944   1.493  13.059 -0.0408  0.0841 -0.0466
51354DOD     C197881  16.234  17.465  22.950 -0.0675 -0.2808  0.1336
51354DOD     C297882  16.527  17.177  22.806  0.1066  0.3413 -0.1300
51354DOD     C397883  16.950  17.027  22.857 -0.1005  0.0842  0.0236
51355DOD     C197884  15.502  20.740  25.746  0.3688  0.0985  0.0341
51355DOD     C297885  15.341  20.548  25.408 -0.0787  0.0880 -0.2228
51355DOD     C397886  15.254  20.097  25.269 -0.0682 -0.2951  0.2084
51356DOD     C197887  16.791  13.131   2.018  0.0388 -0.2176 -0.1204
51356DOD     C297888  16.742  12.801   2.352  0.0289 -0.0892 -0.0179
51356DOD     C397889  17.018  12.593   2.704  0.0741  0.1969 -0.0844
51357DOD     C197890  23.053  19.590   3.834 -0.1290  0.1550 -0.1763
51357DOD     C297891  23.266  19.181   3.799 -0.3047  0.2290  0.3215
51357DOD     C397892  23.643  18.961   3.685  0.1669 -0.0858 -0.0584
51358DOD     C197893   8.460   1.874   8.127  0.2352  0.0508 -0.0906
51358DOD     C297894   8.654   1.666   7.702 -0.1076 -0.1546  0.0011
51358DOD     C397895   8.601   1.314   7.417  0.2135  0.0007  0.1054
51359DOD     C197896  25.974   1.044   1.859  0.1950  0.2905  0.1154
51359DOD     C297897  25.574   1.291   1.812  0.0319  0.0353  0.0493
51359DOD     C397898  25.224   1.599   1.840 -0.2192  0.1701  0.0534
51360DOD     C197899  10.641  11.102   6.891 -0.1765 -0.1499  0.0026
51360DOD     C297900  11.098  11.091   7.112  0.3009  0.1361 -0.2249
51360DOD     C397901  11.572  11.184   7.265  0.0990  0.1552  0.0598
51361DOD     C197902   0.233  26.141  20.827 -0.0205 -0.0057  0.2070
51361DOD     C297903   0.164  26.540  20.715  0.3185  0.0427  0.4231
51361DOD     C397904   0.159  26.897  20.400  0.1563 -0.0601 -0.1352
51362DOD     C197905   4.316  13.660  14.013  0.0249 -0.2892  0.1064
51362DOD     C297906   3.886  13.792  13.849 -0.1239  0.2078 -0.2445
51362DOD     C397907   3.445  13.986  13.825  0.0483  0.0830 -0.1275
51363DOD     C197908  20.282  22.702   2.930  0.0159 -0.1724  0.0212
51363DOD     C297909  20.599  22.471   2.616  0.3342  0.3364  0.1980
51363DOD     C397910  20.848  22.407   2.246  0.0755  0.1058  0.0222
51364DOD     C197911   6.340  22.107  25.304  0.2135  0.1502 -0.2463
51364DOD     C297912   6.682  22.045  25.020  0.1735  0.1954  0.1954
51364DOD     C397913   6.802  22.354  24.778 -0.0254  0.1963 -0.1460
51365DOD     C197914   5.364  10.334  30.097  0.0141  0.1311  0.1375
51365DOD     C297915   5.800  10.435  29.997  0.1696  0.2883  0.3184
51365DOD     C397916   6.201  10.584  30.106 -0.1129 -0.0116 -0.0406
51366DOD     C197917  23.946  21.535  22.371  0.2271 -0.2353 -0.1035
51366DOD     C297918  24.084  21.431  21.970 -0.1730 -0.0306  0.3631
51366DOD     C397919  24.146  21.273  21.554  0.2224 -0.0600 -0.1354
51367DOD     C197920  28.727   2.014  24.205 -0.0238  0.0609 -0.0480
51367DOD     C297921  28.945   1.586  24.108  0.1597  0.2083 -0.0686
51367DOD     C397922  29.106   1.424  23.704  0.1716 -0.3105 -0.1493
51368DOD     C197923   4.402  10.426   3.849 -0.1957 -0.2674  0.1598
51368DOD     C297924   4.768  10.194   3.559  0.0711 -0.2223  0.1101
51368DOD     C397925   5.224  10.027   3.544  0.2577  0.0061  0.1528
51369DOD     C197926  23.172   5.371  29.446 -0.3123 -0.1687  0.1706
51369DOD     C297927  22.982   5.634  29.144  0.1109 -0.0616 -0.1015
51369DOD     C397928  22.670   5.697  28.798 -0.2292 -0.1422  0.2294
51370DOD     C197929  11.453  16.750   4.784 -0.2104 -0.0527 -0.0846
51370DOD     C297930  11.698  16.483   5.105 -0.0049  0.2804  0.3310
51370DOD     C397931  11.935  16.200   5.400 -0.0420 -0.2198 -0.4014
51371DOD     C197932  20.111  29.571  16.861  0.0090 -0.0716 -0.3224
51371DOD     C297933  19.695  29.377  16.821 -0.0195 -0.0601 -0.1339
51371DOD     C397934  19.512  28.920  16.825 -0.0721 -0.1403 -0.1748
51372DOD     C197935   1.361  12.512  27.248 -0.1701 -0.1643  0.1176
51372DOD     C297936   1.412  12.378  26.798 -0.2000  0.0458 -0.1016
51372DOD     C397937   1.466  11.974  26.671 -0.0184  0.2232 -0.1274
51373DOD     C197938  25.781  10.794  25.119  0.1671 -0.0179  0.0307
51373DOD     C297939  25.971  10.914  24.672  0.1758 -0.2707 -0.1042
51373DOD     C397940  26.194  10.693  24.349 -0.0651  0.1921 -0.4112
51374DOD     C197941   6.617   5.951   5.917  0.0405 -0.1428 -0.1330
51374DOD     C297942   6.669   5.708   5.571 -0.1239 -0.1300 -0.2863
51374DOD     C397943   7.041   5.476   5.374  0.1392  0.1405 -0.1956
51375DOD     C197944  17.445  13.049   8.900 -0.0993  0.2397 -0.3650
51375DOD     C297945  17.078  13.290   8.827  0.3204 -0.0550  0.0587
51375DOD     C397946  16.834  13.668   8.709 -0.4939  0.0988  0.0908
51376DOD     C197947   8.612  10.289   0.282 -0.0452 -0.2085 -0.0934
51376DOD     C297948   9.094  10.211   0.280  0.1231  0.0714 -0.0995
51376DOD     C397949   9.567  10.164   0.411 -0.4688  0.1514  0.0886
51377DOD     C197950   0.983  17.369  13.520 -0.2656  0.1120  0.1242
51377DOD     C297951   1.212  17.132  13.867  0.0039 -0.0487 -0.1474
51377DOD     C397952   1.592  16.792  14.026  0.1935  0.1059 -0.0259
51378DOD     C197953  12.728   5.713  17.034 -0.0520 -0.1194 -0.0560
51378DOD     C297954  12.651   6.009  16.662 -0.0024  0.0611  0.3620
51378DOD     C397955  12.391   6.059  16.283 -0.2966  0.1192  0.1336
51379DOD     C197956  22.140  22.154  14.322 -0.0481 -0.0691 -0.0734
51379DOD     C297957  22.137  22.151  14.786 -0.2080  0.2401  0.1328
51379DOD     C397958  22.401  21.859  15.070 -0.6921 -0.3812 -0.0025
51380DOD     C197959  26.769  19.612  20.952  0.0846 -0.1578 -0.4318
51380DOD     C297960  26.936  19.981  20.905  0.3441  0.0791  0.2811
51380DOD     C397961  26.802  20.362  20.890  0.0387 -0.1376 -0.1132
51381DOD     C197962   6.220  26.648  25.574  0.4087 -0.0326 -0.0684
51381DOD     C297963   6.060  26.210  25.722  0.0239  0.5635 -0.0889
51381DOD     C397964   5.868  25.820  25.401 -0.0135 -0.1490 -0.0634
51382DOD     C197965  11.928  19.690  25.453  0.0513 -0.2680 -0.1856
51382DOD     C297966  11.751  19.435  25.155  0.0811 -0.2197  0.0487
51382DOD     C397967  11.364  19.466  24.854  0.1545  0.0846 -0.0986
51383DOD     C197968  12.146   1.846  12.327  0.1125 -0.2664  0.0368
51383DOD     C297969  11.816   2.247  12.244 -0.1881 -0.2656  0.4590
51383DOD     C397970  11.467   2.560  12.309 -0.0428  0.0516 -0.0301
51384DOD     C197971   8.487   4.922  20.024  0.2153 -0.0817  0.1287
51384DOD     C297972   8.242   4.962  20.419 -0.0975  0.0134 -0.3132
51384DOD     C397973   8.146   4.624  20.723 -0.0291 -0.4410  0.0222
51385DOD     C197974  24.634  21.067  22.770  0.2271  0.0529  0.0450
51385DOD     C297975  24.712  21.315  23.203 -0.0037  0.1986  0.1131
51385DOD     C397976  24.425  21.505  23.565 -0.0910 -0.0916 -0.2279
51386DOD     C197977  22.549  10.274  16.056 -0.0997  0.0471 -0.0855
51386DOD     C297978  22.898  10.023  16.221 -0.2283 -0.3354  0.0579
51386DOD     C397979  23.079   9.569  16.212 -0.0312 -0.1228  0.0324
51387DOD     C197980   7.267   8.427  25.951 -0.1752 -0.0509  0.2878
51387DOD     C297981   6.981   8.049  25.836  0.0607 -0.0503 -0.1127
51387DOD     C397982   6.858   7.660  25.809 -0.1337  0.1316  0.3630
51388DOD     C197983   5.427  30.064   1.958 -0.2355 -0.1920  0.0017
51388DOD     C297984   5.045  -0.061   1.778 -0.0777 -0.2917  0.0079
51388DOD     C397985   4.763   0.143   1.422 -0.1400 -0.1196  0.1107
51389DOD     C197986  12.672   9.654  26.499 -0.1877 -0.1604 -0.0504
51389DOD     C297987  12.533   9.955  26.150 -0.2220 -0.1606 -0.2115
51389DOD     C397988  12.455  10.417  26.044  0.1018  0.0411  0.1190
51390DOD     C197989   1.563   1.492  19.680  0.4491 -0.4814 -0.0350
51390DOD     C297990   1.767   1.947  19.765  0.0708 -0.0755  0.2037
51390DOD     C397991   1.994   2.374  19.865 -0.1730  0.0808  0.0043
51391DOD     C197992  27.174  11.545  18.183 -0.2591 -0.1620  0.0784
51391DOD     C297993  27.341  11.869  17.845 -0.3575 -0.0592  0.0622
51391DOD     C397994  27.437  12.249  17.601 -0.1933 -0.2032  0.0663
51392DOD     C197995   6.880  15.045   5.551  0.1188 -0.0968 -0.1204
51392DOD     C297996   6.737  15.408   5.302  0.1964 -0.1811  0.1212
51392DOD     C397997   6.904  15.838   5.102 -0.1285 -0.0858  0.1433
51393DOD     C197998  25.483  30.137  25.344 -0.1187 -0.0057  0.0521
51393DOD     C297999  25.940  30.078  25.321 -0.4894 -0.1431  0.1157
51393DOD     C398000  26.210  29.744  25.118  0.1234 -0.5391 -0.1417
51394DOD     C198001  28.713  20.621   2.916  0.0253 -0.0579 -0.3132
51394DOD     C298002  28.786  21.072   2.892 -0.5607 -0.0102 -0.1503
51394DOD     C398003  28.625  21.348   3.122 -0.1286  0.2781  0.2035
51395DOD     C198004   2.879  29.504  22.544  0.1261 -0.1330 -0.0125
51395DOD     C298005   2.450  29.524  22.721  0.3751  0.0058  0.2194
51395DOD     C398006   2.189  29.358  23.096  0.4232 -0.3043 -0.2372
51396DOD     C198007  15.185  15.863   4.430 -0.5058 -0.1718 -0.0609
51396DOD     C298008  15.467  15.712   4.108 -0.2824  0.0455 -0.2280
51396DOD     C398009  15.870  15.917   3.911 -0.0692  0.1522 -0.3946
51397DOD     C198010  25.318   4.683  15.999  0.0538 -0.1441 -0.2584
51397DOD     C298011  25.347   4.454  16.413 -0.0023 -0.0147  0.1864
51397DOD     C398012  25.301   4.237  16.811 -0.1016  0.2037  0.1188
51398DOD     C198013  15.920   8.000  18.878  0.0974  0.0972 -0.1177
51398DOD     C298014  15.546   8.236  19.067 -0.1335  0.1012 -0.0815
51398DOD     C398015  15.137   8.003  19.182  0.1367  0.3101 -0.1940
51399DOD     C198016  16.251  19.487  15.860 -0.1418 -0.0977  0.0923
51399DOD     C298017  16.241  19.816  16.170  0.2286 -0.1931 -0.4075
51399DOD     C398018  16.251  20.226  16.429 -0.4675  0.1237  0.0230
51400DOD     C198019   8.209  18.992  15.617  0.0320 -0.1919 -0.0648
51400DOD     C298020   8.132  19.096  15.167  0.0917 -0.2733  0.2167
51400DOD     C398021   7.833  19.225  14.813 -0.3252 -0.3289  0.2013
51401DOD     C198022   0.763  11.549   1.149 -0.2494 -0.1108 -0.1488
51401DOD     C298023   0.368  11.649   1.347 -0.2322 -0.1811  0.0830
51401DOD     C398024  30.260  11.674   1.456  0.1162  0.3584  0.0968
51402DOD     C198025   6.316   9.088  19.446  0.0007 -0.1688 -0.2350
51402DOD     C298026   6.147   9.481  19.259 -0.0046 -0.2250 -0.1575
51402DOD     C398027   6.191   9.932  19.033  0.0772  0.2103  0.0535
51403DOD     C198028  12.867  10.888  27.257 -0.0817  0.0638 -0.3300
51403DOD     C298029  13.149  10.983  26.915  0.0424 -0.1299 -0.0280
51403DOD     C398030  13.542  11.098  26.684  0.2174  0.3878  0.2951
51404DOD     C198031  20.977   7.397   2.114 -0.2008  0.0616  0.1504
51404DOD     C298032  21.033   7.768   1.852 -0.1236  0.1281  0.1391
51404DOD     C398033  21.066   8.206   1.869  0.0717 -0.1264 -0.2868
51405DOD     C198034  12.949   1.358  23.660 -0.2524  0.1481 -0.3345
51405DOD     C298035  13.246   0.993  23.526  0.3948 -0.1155 -0.1208
51405DOD     C398036  13.647   0.830  23.391 -0.0912  0.0376  0.1279
51406DOD     C198037  28.534  16.413   6.004 -0.1819  0.3560 -0.3189
51406DOD     C298038  28.324  16.084   5.701  0.2103  0.3431 -0.1024
51406DOD     C398039  27.977  16.002   5.436  0.0641 -0.2580 -0.1941
51407DOD     C198040  22.678   1.124   4.679 -0.2256  0.0529 -0.0042
51407DOD     C298041  22.855   0.851   4.349 -0.1720  0.2738 -0.1252
51407DOD     C398042  23.175   0.598   4.064  0.1498  0.0149 -0.2302
51408DOD     C198043  10.211  29.132  20.896 -0.1835  0.0418 -0.2031
51408DOD     C298044  10.347  29.575  20.820 -0.1168 -0.1696  0.0798
51408DOD     C398045  10.329  30.039  20.912 -0.1548 -0.1915 -0.0322
51409DOD     C198046   0.160   7.532  21.820 -0.3818  0.0118  0.0909
51409DOD     C298047  30.232   7.299  22.122 -0.0982 -0.0657  0.0405
51409DOD     C398048  29.867   7.256  22.363 -0.0932 -0.3435 -0.1475
51410DOD     C198049  15.620  23.030  26.980 -0.3759 -0.2399 -0.0473
51410DOD     C298050  15.193  23.125  26.946  0.0679 -0.0416  0.1998
51410DOD     C398051  14.871  23.149  27.249  0.0637  0.3282 -0.2633
51411DOD     C198052   1.684  28.541  22.263 -0.0057  0.1569  0.3135
51411DOD     C298053   1.855  28.951  22.071 -0.1006  0.0117  0.1094
51411DOD     C398054   1.972  29.356  21.860  0.0433  0.0800  0.0276
51412DOD     C198055  18.431   3.251   9.374 -0.0273  0.2495 -0.1284
51412DOD     C298056  18.777   3.362   9.070  0.0912 -0.1264 -0.2925
51412DOD     C398057  18.926   3.760   8.816 -0.1217  0.2018 -0.0148
51413DOD     C198058  14.558  14.699  27.311 -0.0492 -0.1316 -0.0208
51413DOD     C298059  14.957  14.440  27.336 -0.2141 -0.0845  0.3460
51413DOD     C398060  15.149  14.449  27.740 -0.1114  0.1795  0.2472
51414DOD     C198061   4.703  10.613  21.570  0.0837 -0.0291 -0.0019
51414DOD     C298062   4.364  10.290  21.703  0.2529  0.0054 -0.2746
51414DOD     C398063   3.944  10.143  21.662  0.0217 -0.1903 -0.1548
51415DOD     C198064  13.180  14.669  25.881  0.3926  0.0195  0.0893
51415DOD     C298065  12.832  14.877  25.991 -0.2428  0.2088  0.3079
51415DOD     C398066  12.372  14.971  25.827 -0.1528 -0.0174  0.0717
51416DOD     C198067  21.836  28.417   3.664 -0.0371 -0.2706  0.5834
51416DOD     C298068  22.049  28.694   3.920  0.2558  0.1428 -0.0885
51416DOD     C398069  22.373  28.559   4.151 -0.1494  0.2473  0.3266
51417DOD     C198070  11.982   7.416   9.626  0.0098 -0.1668  0.2362
51417DOD     C298071  11.927   6.922   9.516 -0.1387  0.3614 -0.1009
51417DOD     C398072  11.557   6.701   9.653 -0.3480  0.1214 -0.0761
51418DOD     C198073   1.317   4.992   0.294  0.2853  0.0745  0.2361
51418DOD     C298074   0.997   5.115  30.307 -0.0037  0.0272  0.0114
51418DOD     C398075   0.545   5.159  30.178  0.0257 -0.0560 -0.3168
51419DOD     C198076   8.212   3.630  10.798  0.0941 -0.4442 -0.0803
51419DOD     C298077   8.385   3.924  10.481  0.1975  0.0569 -0.1200
51419DOD     C398078   8.736   3.987  10.232 -0.1259 -0.0124 -0.1732
51420DOD     C198079   6.755   6.021  20.638  0.2306  0.1272  0.1342
51420DOD     C298080   6.309   6.092  20.616  0.2077  0.3035  0.2282
51420DOD     C398081   6.008   6.438  20.511  0.2142 -0.3403  0.0418
51421DOD     C198082  22.227  28.175  19.045 -0.0186 -0.0477  0.2070
51421DOD     C298083  22.445  27.964  19.431  0.0004  0.1063  0.0420
51421DOD     C398084  22.853  27.670  19.587  0.0529  0.0680  0.1496
51422DOD     C198085   7.468  12.035  14.852 -0.3729  0.0757 -0.0055
51422DOD     C298086   7.021  12.143  14.927  0.1587 -0.2181  0.0324
51422DOD     C398087   6.592  12.037  15.023  0.3232  0.0800  0.1297
51423DOD     C198088  20.122   9.629  28.520  0.1246  0.1150  0.0495
51423DOD     C298089  20.249   9.398  28.183  0.0750 -0.1078 -0.2342
51423DOD     C398090  20.654   9.282  27.982  0.0219  0.0839 -0.3385
51424DOD     C198091  29.181  16.990  25.569 -0.2381  0.1372 -0.2171
51424DOD     C298092  29.615  16.975  25.535  0.1744  0.0260  0.1799
51424DOD     C398093  29.931  16.866  25.839 -0.0283  0.3120  0.3375
51425DOD     C198094  12.057  17.879  12.726  0.0130  0.2749  0.0530
51425DOD     C298095  12.248  17.515  12.975 -0.0652 -0.1233 -0.0199
51425DOD     C398096  12.699  17.466  13.166 -0.3124  0.0477 -0.2094
51426DOD     C198097   5.716  15.953  17.698 -0.0316  0.2503  0.1678
51426DOD     C298098   5.724  15.716  18.065 -0.1555  0.1525  0.2014
51426DOD     C398099   5.988  15.641  18.407  0.3199 -0.1933  0.0133
51427DOD     C198100   9.782   4.914   3.431 -0.0627  0.2399  0.1506
51427DOD     C298101   9.634   4.870   3.858  0.1202 -0.0733  0.1562
51427DOD     C398102   9.529   5.268   4.171 -0.0023  0.0532  0.0978
51428DOD     C198103   1.455   9.853  14.546 -0.4036  0.1431  0.0054
51428DOD     C298104   1.042   9.982  14.397 -0.0463 -0.2313  0.1568
51428DOD     C398105   0.581   9.997  14.407  0.0364 -0.0076 -0.0236
51429DOD     C198106  13.844  28.413  14.192  0.0317  0.2802  0.3451
51429DOD     C298107  14.054  28.673  14.506  0.2626  0.0397  0.0603
51429DOD     C398108  14.304  28.752  14.873 -0.0059  0.2719  0.0204
51430DOD     C198109  19.356  12.356  24.389 -0.1364  0.2421 -0.0440
51430DOD     C298110  19.774  12.575  24.473  0.0220 -0.2441  0.0425
51430DOD     C398111  20.104  12.834  24.626  0.0344 -0.0772 -0.0913
51431DOD     C198112   7.485   1.437  26.281  0.1050  0.3799 -0.1146
51431DOD     C298113   7.867   1.179  26.384  0.0189  0.4481  0.4035
51431DOD     C398114   8.195   0.885  26.636 -0.1698  0.3073 -0.2751
51432DOD     C198115   7.979   4.991  29.601  0.3132  0.2418  0.0801
51432DOD     C298116   7.980   5.165  29.120 -0.1604  0.0857 -0.3067
51432DOD     C398117   7.580   5.363  29.000 -0.1579 -0.1159 -0.0829
51433DOD     C198118  20.411   8.360   7.450  0.0718  0.2588 -0.0388
51433DOD     C298119  20.520   8.367   7.867 -0.0542  0.3221 -0.0081
51433DOD     C398120  20.565   8.626   8.204  0.1148  0.2095 -0.1520
51434DOD     C198121  13.065  14.837  25.409  0.2312  0.1044 -0.0665
51434DOD     C298122  12.663  15.040  25.304  0.1256 -0.0812 -0.0878
51434DOD     C398123  12.527  15.501  25.213  0.1838  0.1700 -0.2493
51435DOD     C198124  24.742   1.722  23.917 -0.3202  0.1444  0.1001
51435DOD     C298125  24.466   2.076  23.896 -0.1445  0.1604  0.0083
51435DOD     C398126  24.394   2.547  24.063 -0.1048  0.0129 -0.0475
51436DOD     C198127  19.883   7.917  29.562 -0.1387  0.1163  0.2034
51436DOD     C298128  20.290   8.136  29.618  0.0387  0.0906  0.3316
51436DOD     C398129  20.655   8.315  29.879 -0.2096 -0.0356  0.0598
51437DOD     C198130  25.936  21.391   4.829 -0.0384 -0.2757 -0.3681
51437DOD     C298131  25.642  21.758   4.701 -0.0715 -0.0411  0.1294
51437DOD     C398132  25.486  22.052   4.367  0.1755 -0.1216  0.0152
51438DOD     C198133   0.257  10.371  19.877 -0.0665  0.1820  0.2366
51438DOD     C298134  30.171  10.202  20.104  0.0629  0.0955  0.3148
51438DOD     C398135  29.717  10.233  20.061 -0.3542 -0.2328  0.1526
51439DOD     C198136   8.591  28.515  29.650 -0.1476  0.4116 -0.0801
51439DOD     C298137   8.387  28.777  29.861  0.1682  0.0894 -0.0286
51439DOD     C398138   8.272  29.024  30.266 -0.0055  0.0297 -0.1546
51440DOD     C198139  15.319   1.732   0.176  0.1400 -0.1249  0.2387
51440DOD     C298140  15.033   1.914  30.236 -0.1263  0.0607  0.1049
51440DOD     C398141  14.833   2.123  29.865 -0.0477 -0.0384  0.2640
51441DOD     C198142  25.083  15.248  13.647 -0.1239 -0.3453  0.1818
51441DOD     C298143  24.714  15.539  13.707  0.3542  0.2871 -0.1823
51441DOD     C398144  24.298  15.810  13.807 -0.0540  0.2200 -0.1966
51442DOD     C198145  11.740  15.553  23.389 -0.0703  0.0995  0.2580
51442DOD     C298146  11.506  15.504  23.788  0.2385  0.2360 -0.0163
51442DOD     C398147  11.420  15.488  24.244 -0.1777  0.1754 -0.3134
51443DOD     C198148   4.848  20.050   0.638  0.1905  0.0444  0.1269
51443DOD     C298149   4.485  19.827   0.796  0.3459  0.0333 -0.0599
51443DOD     C398150   4.055  19.788   0.743 -0.0918 -0.0072 -0.0511
51444DOD     C198151  13.745  28.879  19.263 -0.3072  0.0203  0.0923
51444DOD     C298152  13.924  28.431  19.294 -0.2980 -0.0217  0.0859
51444DOD     C398153  14.201  28.077  19.364  0.0011  0.2973  0.0603
51445DOD     C198154   6.544  18.378  26.004  0.0744 -0.2871 -0.2240
51445DOD     C298155   6.138  18.632  25.968  0.0829 -0.1618  0.2856
51445DOD     C398156   6.008  18.997  25.686  0.0129  0.1520  0.1089
51446DOD     C198157   5.384   4.081  14.481 -0.3571  0.3867  0.3101
51446DOD     C298158   5.643   3.739  14.740  0.0510  0.0905 -0.0577
51446DOD     C398159   5.650   3.745  15.163  0.1267 -0.2346  0.2022
51447DOD     C198160  15.497  15.034  11.844  0.0215 -0.1356  0.0112
51447DOD     C298161  15.737  14.820  11.487 -0.1020 -0.0451 -0.0898
51447DOD     C398162  15.909  14.672  11.089  0.1182  0.2522 -0.0060
51448DOD     C198163   6.828   5.467   1.086 -0.4590  0.1862 -0.5317
51448DOD     C298164   7.217   5.605   1.317 -0.2395  0.0034 -0.0736
51448DOD     C398165   7.503   5.826   1.582  0.1228  0.0279 -0.1566
51449DOD     C198166  11.227   1.432  13.842 -0.2968 -0.1214  0.2358
51449DOD     C298167  11.194   0.981  13.677 -0.0854  0.0227 -0.0857
51449DOD     C398168  11.354   0.945  13.181 -0.0452  0.0162  0.0274
51450DOD     C198169  25.063   8.741  29.623 -0.0596  0.1215  0.1916
51450DOD     C298170  24.910   8.875  30.051 -0.1163 -0.2414  0.3395
51450DOD     C398171  24.856   8.643   0.143 -0.0825 -0.2183 -0.0878
51451DOD     C198172   8.824   9.195  19.480  0.1574  0.3501  0.1891
51451DOD     C298173   8.809   8.876  19.841  0.1998 -0.0825 -0.2915
51451DOD     C398174   8.828   8.544  20.168 -0.2845 -0.0137  0.0294
51452DOD     C198175  16.946   6.016   8.941  0.0701  0.0632  0.3353
51452DOD     C298176  17.428   5.949   8.916  0.0418  0.2286 -0.3596
51452DOD     C398177  17.664   6.267   9.105  0.0988 -0.2895  0.0118
51453DOD     C198178  17.814  17.496  28.509  0.0285 -0.1814 -0.1705
51453DOD     C298179  17.378  17.511  28.669  0.1832  0.0125  0.1929
51453DOD     C398180  16.947  17.705  28.858 -0.3003  0.4111  0.0023
51454DOD     C198181   8.711  26.353   8.957 -0.0533 -0.0070 -0.0766
51454DOD     C298182   8.982  25.969   9.059  0.4140  0.1001  0.1625
51454DOD     C398183   9.033  25.773   9.515  0.0282  0.1165 -0.1237
51455DOD     C198184  14.787   7.251  11.970 -0.3019 -0.1090  0.1748
51455DOD     C298185  14.457   7.064  12.258 -0.0794  0.1457 -0.0501
51455DOD     C398186  14.288   6.824  12.552 -0.0209  0.0670  0.3363
51456DOD     C198187   5.821   6.041  20.581 -0.1978 -0.0910  0.0877
51456DOD     C298188   5.527   5.774  20.353  0.1204 -0.0055  0.2219
51456DOD     C398189   5.079   5.756  20.270  0.1932 -0.0081 -0.2090
51457DOD     C198190  24.361  18.663  16.421 -0.1677 -0.1060  0.2480
51457DOD     C298191  24.393  18.208  16.371 -0.1718  0.1163 -0.0774
51457DOD     C398192  24.777  17.947  16.299  0.1122  0.1854 -0.1597
51458DOD     C198193  27.865  26.680  26.640  0.3616  0.1778 -0.2848
51458DOD     C298194  27.657  27.017  26.859 -0.0799 -0.0454  0.0027
51458DOD     C398195  27.272  27.088  27.164  0.0349  0.1557 -0.1645
51459DOD     C198196  10.525   9.232   7.165  0.1930 -0.2907  0.1556
51459DOD     C298197  10.630   8.925   6.780  0.1669 -0.0581 -0.4161
51459DOD     C398198  10.847   8.486   6.719  0.0704 -0.0626 -0.1162
51460DOD     C198199  20.456  14.887   3.370  0.2002  0.1959 -0.0390
51460DOD     C298200  20.839  14.812   3.102  0.1266  0.0072  0.1847
51460DOD     C398201  21.132  15.110   2.895  0.3958 -0.0882  0.2613
51461DOD     C198202  26.666  23.629  16.232  0.2386  0.2440 -0.3910
51461DOD     C298203  26.376  23.873  15.927  0.0970 -0.0685  0.2698
51461DOD     C398204  26.037  23.648  15.671  0.2712 -0.3735 -0.1180
51462DOD     C198205   0.980   3.635  28.468  0.1383  0.1543 -0.3032
51462DOD     C298206   1.269   3.860  28.225 -0.0738  0.0959  0.1151
51462DOD     C398207   1.266   4.063  27.848 -0.0873  0.1435  0.0933
51463DOD     C198208  20.073  12.284  21.627  0.1413  0.1205  0.1765
51463DOD     C298209  19.881  12.689  21.726  0.1125 -0.0223  0.2170
51463DOD     C398210  19.614  12.967  21.458 -0.1515 -0.1022  0.0832
51464DOD     C198211  15.868  17.285  17.243  0.1837  0.0684  0.2237
51464DOD     C298212  16.216  17.667  17.146 -0.1509  0.1877  0.0760
51464DOD     C398213  16.664  17.857  17.285  0.0766 -0.1522 -0.2144
51465DOD     C198214   0.487  14.374  24.130  0.0993  0.0949  0.0521
51465DOD     C298215   0.754  14.552  24.491 -0.2260 -0.1800  0.2003
51465DOD     C398216   0.645  14.643  24.963  0.1840 -0.1343  0.1746
51466DOD     C198217   9.088   5.325  26.777  0.1547  0.0276  0.0559
51466DOD     C298218   8.974   5.186  26.325 -0.1620  0.1178 -0.3162
51466DOD     C398219   8.737   4.819  26.340  0.4093  0.0904 -0.3388
51467DOD     C198220  23.614   3.920  24.790  0.0780  0.0188  0.1041
51467DOD     C298221  23.162   3.925  24.981 -0.1756  0.0321 -0.5314
51467DOD     C398222  22.860   3.785  25.310 -0.0595  0.0907  0.0950
51468DOD     C198223   6.585  22.916   0.229  0.1744  0.2859  0.1659
51468DOD     C298224   6.484  23.003   0.695  0.1468 -0.2017  0.2466
51468DOD     C398225   6.269  23.224   0.995  0.0403 -0.0987 -0.5131
51469DOD     C198226  11.206   3.322   0.136 -0.1178 -0.1220  0.0667
51469DOD     C298227  10.810   3.118   0.206  0.1500 -0.0626  0.1539
51469DOD     C398228  10.447   2.841   0.227  0.1340 -0.0365 -0.1019
51470DOD     C198229   0.897   9.283   7.285 -0.2154 -0.2552  0.0323
51470DOD     C298230   0.931   9.715   7.204  0.0222 -0.1150  0.2746
51470DOD     C398231   0.835  10.118   7.388 -0.1673 -0.1623 -0.1612
51471DOD     C198232  16.389  25.016  12.049 -0.4905 -0.0268  0.0123
51471DOD     C298233  16.558  24.572  11.927 -0.0368 -0.0539  0.0718
51471DOD     C398234  16.442  24.190  12.111  0.1752  0.1199 -0.0140
51472DOD     C198235  19.568   3.858  26.930 -0.0517  0.0128  0.0558
51472DOD     C298236  19.748   3.660  26.532 -0.1975  0.0725 -0.2026
51472DOD     C398237  19.601   3.358  26.191  0.0143 -0.1871 -0.4706
51473DOD     C198238   9.239  20.498  15.822  0.2242 -0.0188 -0.0433
51473DOD     C298239   8.949  20.309  15.487 -0.1010  0.0284  0.0023
51473DOD     C398240   8.756  20.186  15.082  0.0623  0.0359 -0.0182
51474DOD     C198241  23.896  23.616  22.758 -0.0959 -0.0392 -0.1650
51474DOD     C298242  24.224  23.737  23.160 -0.1931 -0.2072 -0.1052
51474DOD     C398243  24.580  24.092  23.163  0.1340 -0.0337 -0.0994
51475DOD     C198244  28.254  14.586  13.145 -0.0539 -0.1185 -0.1085
51475DOD     C298245  28.259  14.610  13.598 -0.0189  0.2130 -0.0153
51475DOD     C398246  28.153  14.531  14.054  0.4684 -0.0851 -0.2818
51476DOD     C198247  16.572   8.820  12.160 -0.1149 -0.0031 -0.0793
51476DOD     C298248  16.801   9.136  12.457 -0.2139  0.1398  0.0108
51476DOD     C398249  16.549   9.373  12.816 -0.0536 -0.3242  0.1106
51477DOD     C198250  13.942   1.220  26.903  0.1900 -0.2086 -0.0414
51477DOD     C298251  13.889   1.582  26.700 -0.1614  0.0039 -0.0912
51477DOD     C398252  13.739   1.930  26.475  0.1572 -0.0133 -0.3066
51478DOD     C198253   5.663  13.284   8.934 -0.0689 -0.1793  0.3175
51478DOD     C298254   5.230  13.249   8.736 -0.1299 -0.1834 -0.3254
51478DOD     C398255   4.893  12.940   8.789  0.3521 -0.0643  0.0734
51479DOD     C198256  15.035   2.711   1.179 -0.1174 -0.1489 -0.0909
51479DOD     C298257  15.056   2.573   1.646 -0.1447  0.1471 -0.0003
51479DOD     C398258  15.086   2.115   1.633  0.2085  0.0703 -0.1248
51480DOD     C198259   3.399  28.126   1.027 -0.1648 -0.0003 -0.0857
51480DOD     C298260   3.783  28.214   1.271 -0.0742  0.1615  0.4886
51480DOD     C398261   4.057  28.223   1.641  0.0708 -0.3679  0.4139
51481DOD     C198262  15.307   9.857   0.740 -0.1937 -0.0730 -0.0141
51481DOD     C298263  15.110  10.040   1.145  0.2944 -0.3208  0.1300
51481DOD     C398264  15.162  10.121   1.570  0.2316  0.2755  0.2162
51482DOD     C198265   1.803   4.699  12.801  0.2985 -0.3710 -0.0029
51482DOD     C298266   1.709   4.495  12.449 -0.2825 -0.2493  0.1584
51482DOD     C398267   1.512   4.388  12.026  0.0846  0.1755 -0.0342
51483DOD     C198268  13.730   2.076   1.627 -0.1500  0.4831  0.0029
51483DOD     C298269  13.850   2.103   1.181 -0.1640  0.2752 -0.3061
51483DOD     C398270  13.641   2.164   0.734  0.1671  0.0147  0.0793
51484DOD     C198271   7.997  17.638  15.624  0.2027  0.1371 -0.0296
51484DOD     C298272   8.226  17.570  15.213  0.3706 -0.0994  0.1531
51484DOD     C398273   8.141  17.341  14.790 -0.1657 -0.2228 -0.2536
51485DOD     C198274  16.500   5.410  16.932 -0.1190 -0.0318  0.0066
51485DOD     C298275  16.636   5.107  16.691 -0.1249 -0.1199  0.5123
51485DOD     C398276  16.761   4.668  16.707  0.0799 -0.0917 -0.1488
51486DOD     C198277  27.773  10.060  11.309  0.0518 -0.2964  0.0268
51486DOD     C298278  28.161  10.298  11.269  0.0034  0.0539  0.1648
51486DOD     C398279  28.517  10.668  11.343  0.4713  0.0159  0.1652
51487DOD     C198280  29.376   2.734  29.946 -0.1585 -0.0717 -0.1943
51487DOD     C298281  29.648   2.848  30.267  0.1283 -0.1708 -0.2449
51487DOD     C398282  29.724   3.133   0.291  0.1238  0.3138  0.1578
51488DOD     C198283  17.096   0.008  13.807 -0.1430 -0.1592  0.1314
51488DOD     C298284  16.773   0.204  13.505 -0.1726  0.0109 -0.0731
51488DOD     C398285  16.732   0.243  13.070  0.2670 -0.5153  0.0883
51489DOD     C198286  28.012   1.534   5.066 -0.0645  0.0845 -0.1366
51489DOD     C298287  28.348   1.832   5.254 -0.0789 -0.3187  0.3231
51489DOD     C398288  28.570   2.154   5.061 -0.4764  0.1224  0.0326
51490DOD     C198289  30.020   2.197   1.175 -0.1168  0.0143 -0.2220
51490DOD     C298290  29.984   2.272   0.673  0.2127 -0.0595  0.0551
51490DOD     C398291  29.637   2.329   0.337 -0.0091  0.0434  0.0175
51491DOD     C198292  24.894   0.602  25.831 -0.1229  0.0095  0.0295
51491DOD     C298293  24.530   0.772  26.050 -0.1937 -0.2322  0.3270
51491DOD     C398294  24.422   1.105  26.322  0.2711 -0.0453  0.0921
51492DOD     C198295  22.281  24.946   5.904 -0.1349 -0.1055  0.0053
51492DOD     C298296  22.550  25.131   5.491  0.2939 -0.1429  0.3127
51492DOD     C398297  22.994  25.178   5.368  0.0053  0.0713 -0.0051
51493DOD     C198298  23.729  12.748  15.015  0.4421  0.1894 -0.1497
51493DOD     C298299  23.573  12.260  15.155 -0.2078  0.1158  0.0611
51493DOD     C398300  23.431  11.820  15.259 -0.2026  0.3939 -0.0923
51494DOD     C198301  14.665  14.061   7.219 -0.0783 -0.2032  0.2114
51494DOD     C298302  14.515  13.654   7.281 -0.7202 -0.0387  0.0475
51494DOD     C398303  14.514  13.186   7.431  0.1029 -0.3895 -0.1895
51495DOD     C198304  23.080  13.931   9.177  0.4397 -0.1042  0.0047
51495DOD     C298305  22.610  13.803   9.181  0.1230 -0.2603 -0.1630
51495DOD     C398306  22.137  13.724   9.243 -0.1561 -0.1538  0.2740
51496DOD     C198307  22.659  23.991   8.569  0.0105  0.1947  0.0057
51496DOD     C298308  22.759  23.956   8.981  0.3863 -0.0123 -0.0959
51496DOD     C398309  22.841  23.961   9.446 -0.1692 -0.1616  0.0225
51497DOD     C198310  18.326  13.699  10.660  0.0107  0.1687  0.2601
51497DOD     C298311  18.337  13.727  10.157  0.2549  0.0147  0.2302
51497DOD     C398312  18.234  14.100   9.893  0.0215  0.1021 -0.1469
51498DOD     C198313   6.671   8.132  18.333 -0.0594 -0.0811  0.3004
51498DOD     C298314   6.843   7.741  18.504  0.0726 -0.1146  0.0085
51498DOD     C398315   6.852   7.323  18.691  0.0204  0.2178  0.1635
51499DOD     C198316  18.772  10.031   5.907 -0.0193  0.0337 -0.1352
51499DOD     C298317  18.658  10.455   5.620  0.1305  0.0267  0.1719
51499DOD     C398318  18.321  10.574   5.295  0.0125  0.2689  0.2072
51500DOD     C198319  13.217  22.174   0.754 -0.2623 -0.3345 -0.1110
51500DOD     C298320  12.803  22.149   0.731  0.2835 -0.1072  0.0231
51500DOD     C398321  12.333  22.023   0.844 -0.1407  0.1350  0.0375
51501DOD     C198322  23.369   3.859  27.439 -0.1100  0.1886  0.0770
51501DOD     C298323  23.320   3.726  27.846  0.0933  0.1651  0.2705
51501DOD     C398324  23.582   3.449  28.173 -0.1644  0.0015 -0.2102
51502DOD     C198325  10.414  14.972   7.961  0.2411  0.1533  0.2212
51502DOD     C298326   9.964  15.026   7.731 -0.0945 -0.0891 -0.2211
51502DOD     C398327   9.529  14.934   7.597 -0.0630 -0.1306  0.1441
51503DOD     C198328   0.388  28.969   4.491  0.0665 -0.1160  0.0046
51503DOD     C298329   0.706  29.244   4.632 -0.3500  0.2056  0.0862
51503DOD     C398330   1.044  29.399   4.288  0.0901 -0.2971  0.0223
51504DOD     C198331   1.182   5.079   4.523 -0.1649  0.2061 -0.1104
51504DOD     C298332   1.620   4.981   4.389  0.3574  0.1021  0.2745
51504DOD     C398333   2.067   4.858   4.366 -0.0376  0.0906 -0.0408
51505DOD     C198334   4.354  16.246  17.638  0.0437 -0.0512 -0.2255
51505DOD     C298335   4.026  16.054  17.429  0.1579 -0.1265  0.0460
51505DOD     C398336   3.616  15.794  17.453 -0.0509 -0.2199 -0.1582
51506DOD     C198337   7.785  14.231  23.645  0.2597 -0.0416 -0.0070
51506DOD     C298338   8.241  14.289  23.682  0.3808  0.0365  0.0668
51506DOD     C398339   8.542  13.996  23.887 -0.0550 -0.0917  0.2164
51507DOD     C198340  19.954  20.144   9.980  0.0739  0.0955  0.0513
51507DOD     C298341  19.919  19.682  10.111 -0.0147 -0.0990  0.1455
51507DOD     C398342  20.142  19.328  10.392  0.0865  0.2265 -0.0501
51508DOD     C198343  20.019  29.490  19.436 -0.1438 -0.0727 -0.0081
51508DOD     C298344  19.932  29.828  19.130  0.1076  0.1593  0.2454
51508DOD     C398345  19.661  30.184  19.118 -0.0572 -0.0482  0.0191
51509DOD     C198346  19.193  11.773  11.452  0.1480  0.0039 -0.2146
51509DOD     C298347  18.895  11.837  11.084  0.1231 -0.0755 -0.2231
51509DOD     C398348  18.890  12.215  10.811  0.0272 -0.1011 -0.2720
51510DOD     C198349  16.354  26.396   1.582  0.1461  0.4213 -0.0113
51510DOD     C298350  16.378  25.969   1.426  0.4550 -0.3517 -0.2610
51510DOD     C398351  15.963  25.723   1.487  0.0836 -0.2731 -0.0238
51511DOD     C198352  15.427   6.271  18.628  0.0330  0.1843 -0.0359
51511DOD     C298353  15.406   6.718  18.508 -0.1166 -0.0555  0.2261
51511DOD     C398354  15.465   7.191  18.362 -0.0394  0.0439 -0.2953
51512DOD     C198355  20.753  22.621   6.707  0.2157  0.1533 -0.1670
51512DOD     C298356  20.792  22.156   6.690  0.0712  0.0973 -0.2522
51512DOD     C398357  20.763  21.773   6.901  0.0559  0.1317 -0.0708
51513DOD     C198358   2.091  10.167  23.320  0.1410  0.1089  0.0824
51513DOD     C298359   1.928   9.737  23.485 -0.0815  0.3179  0.3690
51513DOD     C398360   1.649   9.586  23.814  0.3113 -0.1863 -0.1841
51514DOD     C198361  30.284  18.813   7.698 -0.2072 -0.1406  0.0835
51514DOD     C298362  -0.013  18.847   7.210 -0.4166 -0.0417 -0.2619
51514DOD     C398363  30.014  19.063   6.884 -0.0745  0.2265  0.1795
51515DOD     C198364  21.726   8.087   9.830  0.1571 -0.1524  0.0055
51515DOD     C298365  21.437   8.469   9.977  0.2236  0.2052  0.2334
51515DOD     C398366  21.379   8.901   9.908 -0.0139  0.0061  0.2138
51516DOD     C198367   6.593   0.220  21.599 -0.2103  0.2546  0.1290
51516DOD     C298368   6.788   0.109  22.005  0.1014 -0.0548  0.0464
51516DOD     C398369   6.742   0.002  22.478 -0.1387  0.0009 -0.0604
51517DOD     C198370  17.879  19.806  23.853 -0.0781 -0.0214 -0.1180
51517DOD     C298371  17.422  19.987  23.820  0.0110  0.1479 -0.0185
51517DOD     C398372  16.936  20.062  23.870 -0.1852  0.1337 -0.0323
51518DOD     C198373  22.779  23.993   8.107 -0.3060  0.0172  0.1390
51518DOD     C298374  22.929  23.783   7.750 -0.0208  0.1473 -0.3366
51518DOD     C398375  22.886  23.406   7.435  0.0516  0.1136  0.3596
51519DOD     C198376  17.252  16.478  26.841  0.0233 -0.0621  0.1565
51519DOD     C298377  16.948  16.379  26.464  0.3872 -0.2930 -0.2498
51519DOD     C398378  16.720  16.634  26.109 -0.3996  0.1562 -0.0093
51520DOD     C198379  24.702  18.995   4.251  0.1744 -0.0354 -0.1353
51520DOD     C298380  24.587  19.418   4.062  0.0722 -0.1887 -0.0128
51520DOD     C398381  24.388  19.592   3.696  0.2947  0.0939  0.1864
51521DOD     C198382  27.330  16.852  12.135 -0.2168  0.0080  0.1979
51521DOD     C298383  27.691  16.556  12.301 -0.2482 -0.0107  0.4412
51521DOD     C398384  28.005  16.263  12.259 -0.0770 -0.0571  0.0335
51522DOD     C198385   5.630   0.283  20.716 -0.1006 -0.2737  0.2976
51522DOD     C298386   6.106   0.302  20.694  0.3498 -0.2019 -0.0254
51522DOD     C398387   6.327   0.719  20.704  0.0957  0.0869 -0.0811
51523DOD     C198388   8.919  26.372  19.755 -0.0372 -0.1299  0.0422
51523DOD     C298389   9.333  26.188  19.730  0.0310  0.0115  0.0483
51523DOD     C398390   9.528  25.986  19.312  0.0718 -0.0426  0.2071
51524DOD     C198391  18.559  29.105  16.861  0.2088 -0.0351  0.2197
51524DOD     C298392  18.509  28.964  16.392  0.0049 -0.0322 -0.2210
51524DOD     C398393  18.481  28.927  15.954  0.2092 -0.2110 -0.0391
51525DOD     C198394  10.162  28.739   7.536 -0.2400 -0.0960  0.1878
51525DOD     C298395   9.811  28.412   7.623 -0.1796  0.1112 -0.1760
51525DOD     C398396   9.453  28.350   7.304  0.2913  0.2974  0.0554
51526DOD     C198397  13.969   9.972   2.939  0.1457  0.0847  0.2007
51526DOD     C298398  13.880  10.344   2.645  0.1712 -0.2527 -0.2722
51526DOD     C398399  13.617  10.632   2.561  0.2213 -0.0699  0.1315
51527DOD     C198400  15.052  20.441  17.567 -0.1973  0.0971  0.1760
51527DOD     C298401  14.804  20.162  17.787 -0.0817 -0.5535 -0.1524
51527DOD     C398402  14.582  20.333  18.173  0.1105 -0.1812 -0.4727
51528DOD     C198403  16.077  14.070  24.356  0.1172 -0.0638  0.2011
51528DOD     C298404  16.483  13.886  24.360  0.0995 -0.2821 -0.0868
51528DOD     C398405  16.698  13.634  24.120  0.0344  0.0006  0.0620
51529DOD     C198406  29.184  22.110  23.540  0.1259 -0.1992 -0.1587
51529DOD     C298407  29.437  22.122  23.144 -0.0856  0.0256 -0.3254
51529DOD     C398408  29.389  22.183  22.738 -0.1647 -0.0738 -0.1271
51530DOD     C198409  18.154  24.939  28.526 -0.0223  0.1361  0.3583
51530DOD     C298410  18.574  24.910  28.262  0.1368  0.0434  0.1377
51530DOD     C398411  18.733  24.595  27.953  0.1091  0.1240 -0.0303
51531DOD     C198412  28.259  26.835  24.168  0.0613  0.1837 -0.2828
51531DOD     C298413  28.583  26.781  23.813  0.3987  0.0884  0.0421
51531DOD     C398414  28.770  26.410  23.690  0.2870  0.2554  0.2604
51532DOD     C198415  29.832   3.750  19.607  0.1268  0.4343  0.2928
51532DOD     C298416  29.471   3.949  19.525  0.0512 -0.1368 -0.1328
51532DOD     C398417  29.079   3.829  19.374  0.0761  0.1021 -0.1538
51533DOD     C198418  26.892  29.572   2.703 -0.2413  0.0519 -0.0345
51533DOD     C298419  27.152  29.595   2.333  0.1399 -0.1289 -0.0163
51533DOD     C398420  27.351  29.927   2.150  0.0555  0.0990 -0.0356
51534DOD     C198421  12.202  26.653  21.572 -0.1677  0.0632  0.2894
51534DOD     C298422  12.465  26.833  21.311  0.0423 -0.0081 -0.2674
51534DOD     C398423  12.908  26.701  21.123 -0.0492  0.1709  0.0713
51535DOD     C198424   7.363  15.318  29.283 -0.0865  0.2634 -0.3873
51535DOD     C298425   7.464  15.653  29.581  0.0735  0.1249  0.1296
51535DOD     C398426   7.287  16.006  29.651  0.0701 -0.3001 -0.0334
51536DOD     C198427   5.229  11.253  29.124 -0.1018  0.1850  0.1879
51536DOD     C298428   5.024  11.369  28.673  0.4531 -0.2402 -0.1623
51536DOD     C398429   5.024  11.195  28.311 -0.0154  0.0481 -0.0382
51537DOD     C198430  12.021  27.514   0.886  0.0675 -0.3987  0.3695
51537DOD     C298431  11.896  27.069   0.926  0.1459  0.2308 -0.1346
51537DOD     C398432  11.496  26.921   0.996 -0.0578 -0.0513 -0.1478
51538DOD     C198433  20.967   0.196  25.259  0.0033 -0.0033  0.0646
51538DOD     C298434  21.076  30.070  25.418  0.0062 -0.0477  0.0447
51538DOD     C398435  20.974  29.596  25.476 -0.2331  0.1805 -0.1529
51539DOD     C198436   3.394  25.111  26.238  0.0606  0.1246  0.3610
51539DOD     C298437   3.746  25.368  25.994 -0.5135  0.1496 -0.0993
51539DOD     C398438   4.075  25.583  26.179 -0.1894 -0.1526 -0.0029
51540DOD     C198439   5.022  19.806  14.507 -0.2203  0.2123  0.4534
51540DOD     C298440   4.848  19.619  14.852  0.0766 -0.1230 -0.0407
51540DOD     C398441   4.481  19.374  15.033 -0.1740  0.4645 -0.1132
51541DOD     C198442  19.026  17.550  12.269  0.0823  0.2045  0.1754
51541DOD     C298443  18.743  17.441  12.025  0.0117  0.0294  0.1989
51541DOD     C398444  18.465  17.350  11.670 -0.3824 -0.1172 -0.1350
51542DOD     C198445   1.415   5.330  14.006  0.2776  0.0549  0.1611
51542DOD     C298446   1.611   4.954  14.129 -0.1649  0.2427  0.1543
51542DOD     C398447   1.968   4.632  14.301  0.2730 -0.1232 -0.1551
51543DOD     C198448  29.375  16.170  12.803  0.3539 -0.0238 -0.1402
51543DOD     C298449  29.540  16.012  12.361  0.1573  0.1706 -0.1672
51543DOD     C398450  29.655  15.854  11.977  0.1436  0.1202  0.2226
51544DOD     C198451  15.682  16.885  22.040  0.2059 -0.0976  0.4126
51544DOD     C298452  15.255  16.646  22.051 -0.2772  0.0486 -0.1016
51544DOD     C398453  14.830  16.731  22.153 -0.0201 -0.1642 -0.1627
51545DOD     C198454   3.527   6.320  29.626 -0.0170 -0.2527 -0.0042
51545DOD     C298455   3.516   6.390  30.081  0.2666 -0.1174  0.2872
51545DOD     C398456   3.630   6.577   0.122 -0.0448 -0.1441 -0.2921
51546DOD     C198457   3.324  10.242   7.141 -0.0791 -0.0564  0.0969
51546DOD     C298458   3.202  10.616   6.853  0.0097 -0.0615 -0.1308
51546DOD     C398459   3.062  11.070   6.802  0.2457 -0.0339 -0.1035
51547DOD     C198460  28.894  21.768   3.058 -0.0668 -0.0341  0.0549
51547DOD     C298461  29.352  21.730   3.115  0.0330 -0.0827  0.0107
51547DOD     C398462  29.734  21.486   3.254 -0.0002  0.0652  0.2129
51548DOD     C198463  29.059  28.597   3.068 -0.0421  0.0168  0.0593
51548DOD     C298464  29.120  28.365   2.617 -0.3336 -0.1601  0.0217
51548DOD     C398465  29.191  28.245   2.130  0.0622  0.1358 -0.2189
51549DOD     C198466  10.170   9.098   6.806 -0.0287 -0.1319  0.1024
51549DOD     C298467  10.436   9.254   6.512  0.1634 -0.0635 -0.1456
51549DOD     C398468  10.865   9.478   6.433  0.0560 -0.1139  0.1061
51550DOD     C198469  20.393  23.377  28.759 -0.2152 -0.2477  0.1390
51550DOD     C298470  20.789  23.116  28.778  0.0453  0.0409  0.2887
51550DOD     C398471  21.052  22.931  28.423  0.1672  0.2519 -0.3323
51551DOD     C198472   1.541  13.851  29.652 -0.2988 -0.1315  0.0594
51551DOD     C298473   1.538  14.127  30.028  0.0207  0.0700 -0.1938
51551DOD     C398474   1.464  14.096   0.158  0.2285 -0.0426  0.1131
51552DOD     C198475  29.432  18.281  27.272  0.0081  0.0432  0.0976
51552DOD     C298476  29.311  17.826  27.311  0.1512  0.1195  0.0343
51552DOD     C398477  28.981  17.506  27.245  0.0754 -0.1845  0.2600
51553DOD     C198478  12.874   1.017  19.731 -0.1973 -0.0346  0.0738
51553DOD     C298479  12.717   1.331  19.404 -0.0533  0.0597 -0.5712
51553DOD     C398480  12.590   1.709  19.134 -0.1300  0.1687 -0.1597
51554DOD     C198481  24.460   9.192  24.832  0.3050 -0.3090 -0.0749
51554DOD     C298482  24.783   9.456  24.618  0.0418  0.0714  0.0815
51554DOD     C398483  24.856   9.793  24.343  0.1073  0.2687 -0.0575
51555DOD     C198484   5.636   1.338  30.320  0.2982 -0.2220  0.1989
51555DOD     C298485   5.348   1.674   0.007  0.1127  0.0645  0.0210
51555DOD     C398486   5.250   2.120   0.095  0.0073  0.0663 -0.2019
51556DOD     C198487   0.875  15.446  22.891 -0.0097 -0.1135 -0.0426
51556DOD     C298488   0.699  14.969  22.883  0.2063  0.1521  0.0892
51556DOD     C398489   0.567  14.560  23.034 -0.1714 -0.0950 -0.0277
51557DOD     C198490  10.608   8.752  21.693  0.2252 -0.1747  0.1011
51557DOD     C298491  10.718   8.843  21.234  0.0793  0.1699 -0.2124
51557DOD     C398492  10.523   8.797  20.840 -0.0072  0.0949 -0.3153
51558DOD     C198493   3.836  19.188   3.056 -0.0219  0.2432  0.3508
51558DOD     C298494   3.723  18.794   2.886 -0.2635  0.0224  0.0779
51558DOD     C398495   3.557  18.422   2.543 -0.0821 -0.0626 -0.0036
51559DOD     C198496  19.632  23.313  20.203 -0.4080 -0.1961  0.1012
51559DOD     C298497  19.906  23.125  19.875 -0.0317  0.3213  0.2963
51559DOD     C398498  20.110  22.771  19.580  0.2254  0.1084  0.1020
51560DOD     C198499  22.212  18.541  23.025  0.2081 -0.2948 -0.1528
51560DOD     C298500  22.421  18.657  23.442 -0.0968  0.0148 -0.2343
51560DOD     C398501  22.659  18.774  23.770 -0.2874  0.3370 -0.4146
51561DOD     C198502  10.426  12.451  19.574 -0.0145  0.0193 -0.1366
51561DOD     C298503   9.970  12.432  19.582  0.3602  0.1585 -0.2482
51561DOD     C398504   9.488  12.363  19.565  0.1306  0.1108  0.0065
51562DOD     C198505  28.961  12.016   0.909  0.1092  0.0250 -0.2027
51562DOD     C298506  29.073  11.542   0.870 -0.0834 -0.1559  0.3343
51562DOD     C398507  29.409  11.277   1.080 -0.0629  0.4509  0.2696
51563DOD     C198508   3.690   5.463  29.573 -0.2192  0.0971  0.1905
51563DOD     C298509   3.857   5.707  29.944 -0.2182  0.2345  0.0200
51563DOD     C398510   3.948   6.088  30.269  0.1796  0.2876  0.2392
51564DOD     C198511  24.670  24.138  25.472 -0.2526  0.0477 -0.0754
51564DOD     C298512  24.788  24.294  25.933 -0.1274 -0.1019  0.0663
51564DOD     C398513  24.919  24.484  26.323  0.1198 -0.0817  0.1034
51565DOD     C198514   7.340  15.409   8.051 -0.0011  0.2292 -0.0989
51565DOD     C298515   7.573  15.608   7.706  0.0427  0.1509 -0.0810
51565DOD     C398516   7.830  15.702   7.317  0.0464 -0.0102  0.1926
51566DOD     C198517  19.563   9.507  23.708 -0.0749 -0.0688 -0.1047
51566DOD     C298518  19.123   9.626  23.723  0.0455  0.1768 -0.0270
51566DOD     C398519  18.747   9.825  23.668 -0.1157  0.1427  0.0281
51567DOD     C198520   1.326   4.350  21.058  0.1947  0.1495 -0.0152
51567DOD     C298521   0.920   4.612  21.164 -0.3763  0.3557 -0.1363
51567DOD     C398522   0.571   4.897  20.993 -0.0357  0.3855  0.0215
51568DOD     C198523   1.647  27.491   9.021 -0.0210 -0.2445 -0.0077
51568DOD     C298524   1.884  27.330   8.648  0.0897  0.0703 -0.1268
51568DOD     C398525   1.901  27.234   8.218  0.1152 -0.0304  0.0077
51569DOD     C198526   5.965  24.347  26.271 -0.1396 -0.2931 -0.2391
51569DOD     C298527   5.708  23.924  26.212 -0.2014 -0.0752  0.2453
51569DOD     C398528   5.761  23.483  26.190  0.1267 -0.0151  0.0942
51570DOD     C198529   2.476   8.594  22.403  0.0209 -0.0555  0.0801
51570DOD     C298530   2.321   8.734  22.786 -0.1642 -0.0889 -0.2066
51570DOD     C398531   2.198   8.822  23.212  0.0006 -0.0773 -0.0531
51571DOD     C198532  22.173   1.472  13.687 -0.1648 -0.2737 -0.2504
51571DOD     C298533  21.856   1.532  13.367  0.2495 -0.0123 -0.1344
51571DOD     C398534  21.668   1.567  12.963  0.1683  0.1504 -0.3109
51572DOD     C198535  12.908  22.180   4.027  0.0045  0.0234  0.2091
51572DOD     C298536  13.326  22.152   4.086 -0.1221  0.0253  0.0274
51572DOD     C398537  13.591  22.287   4.431  0.0414  0.1442  0.1043
51573DOD     C198538  30.196  22.776   4.414  0.4003 -0.2155 -0.3730
51573DOD     C298539   0.149  22.363   4.298 -0.0877 -0.0898 -0.0482
51573DOD     C398540   0.438  22.024   4.234 -0.3288  0.1176  0.0901
51574DOD     C198541  15.310   5.879  11.751 -0.1539  0.1249 -0.2821
51574DOD     C298542  15.135   5.828  12.196 -0.1201  0.1499 -0.0611
51574DOD     C398543  14.998   5.692  12.573  0.2998 -0.0625  0.0409
51575DOD     C198544  24.750   9.932  28.527  0.0843  0.1521  0.2697
51575DOD     C298545  24.831  10.173  28.139  0.0901  0.1697 -0.2213
51575DOD     C398546  24.883  10.475  27.750  0.1969 -0.0270 -0.0153
51576DOD     C198547  26.658  19.598  28.612 -0.2551 -0.1768 -0.1103
51576DOD     C298548  26.177  19.479  28.649  0.0327 -0.1161  0.1544
51576DOD     C398549  25.810  19.477  28.369  0.0365 -0.4310  0.1610
51577DOD     C198550  19.965   5.830  15.737  0.1929 -0.0215  0.0947
51577DOD     C298551  19.675   5.608  15.462 -0.3981  0.0310  0.1391
51577DOD     C398552  19.458   5.405  15.121 -0.3462 -0.1279  0.0431
51578DOD     C198553  13.903   3.482  22.177 -0.0817 -0.2748 -0.1620
51578DOD     C298554  13.848   3.841  22.433 -0.0349  0.0048  0.2866
51578DOD     C398555  13.989   4.270  22.315 -0.0221 -0.1415 -0.4294
51579DOD     C198556  12.230  27.714  15.104  0.1006  0.1468 -0.3625
51579DOD     C298557  12.254  28.186  15.242 -0.0930 -0.1252 -0.0881
51579DOD     C398558  12.589  28.507  15.454  0.0790  0.0118 -0.2611
51580DOD     C198559  16.457  20.632   4.792 -0.0007  0.2095 -0.1428
51580DOD     C298560  16.524  20.196   4.794  0.1073  0.2681 -0.1724
51580DOD     C398561  16.963  19.952   4.909 -0.2159  0.0705  0.0525
51581DOD     C198562   7.693  18.314  11.805 -0.0181  0.3213 -0.0546
51581DOD     C298563   8.123  18.278  12.001 -0.0040 -0.0449  0.1988
51581DOD     C398564   8.477  17.977  11.842  0.1830  0.0559 -0.1350
51582DOD     C198565  15.884  20.375  28.539  0.1156 -0.1528  0.0025
51582DOD     C298566  15.672  20.225  28.096  0.0544 -0.0999  0.1779
51582DOD     C398567  15.730  19.837  27.812  0.0893 -0.2605  0.0711
51583DOD     C198568  17.827  24.764  27.552  0.1927 -0.2533  0.1332
51583DOD     C298569  17.666  24.977  27.221  0.0352 -0.1738 -0.0401
51583DOD     C398570  17.636  24.809  26.770 -0.0695 -0.0731  0.1637
51584DOD     C198571   3.288   1.559   4.335 -0.0747 -0.0826 -0.1162
51584DOD     C298572   2.804   1.473   4.253  0.3343 -0.1829 -0.1879
51584DOD     C398573   2.344   1.482   4.140  0.2215  0.2056  0.1219
51585DOD     C198574  19.628   2.538  26.848  0.3632  0.2593  0.1308
51585DOD     C298575  19.178   2.413  26.918  0.2916 -0.0575  0.0260
51585DOD     C398576  18.839   2.515  27.231  0.1732 -0.0194 -0.1901
51586DOD     C198577   7.601  28.245  21.114  0.0499 -0.1379  0.1214
51586DOD     C298578   7.568  28.721  20.857  0.0337  0.1343  0.0513
51586DOD     C398579   7.544  29.095  20.588 -0.1265  0.2066  0.2858
51587DOD     C198580  13.129  22.888  13.276  0.2215  0.1959  0.1171
51587DOD     C298581  13.374  22.613  12.953 -0.1734 -0.0224  0.0933
51587DOD     C398582  13.555  22.678  12.505 -0.1324  0.0010 -0.0283
51588DOD     C198583   9.740  13.527  12.333 -0.2883 -0.0139  0.2148
51588DOD     C298584  10.006  13.867  12.554 -0.0634  0.1620 -0.1973
51588DOD     C398585  10.330  14.169  12.653  0.1708 -0.1695 -0.2296
51589DOD     C198586  18.296   1.748  17.712 -0.1572  0.0269 -0.3274
51589DOD     C298587  18.655   1.438  17.618  0.1831  0.0124  0.0689
51589DOD     C398588  19.077   1.182  17.624  0.1256  0.0980  0.3367
51590DOD     C198589  15.314   0.166   2.928 -0.0884  0.0203 -0.3470
51590DOD     C298590  15.063  30.139   2.885 -0.2650 -0.1413 -0.1767
51590DOD     C398591  14.792  29.818   3.021 -0.0319 -0.1867  0.1075
51591DOD     C198592   9.561  22.344   2.877  0.2743  0.3035 -0.0049
51591DOD     C298593   9.588  22.502   3.338 -0.1572  0.1614 -0.3351
51591DOD     C398594   9.822  22.679   3.693  0.2274 -0.2171  0.1065
51592DOD     C198595  30.237   5.668  15.799 -0.0171 -0.0386  0.0749
51592DOD     C298596   0.116   5.914  16.118  0.0466 -0.0351  0.0592
51592DOD     C398597   0.084   5.787  16.561  0.0389  0.0460 -0.2339
51593DOD     C198598  28.261  15.543  21.694 -0.5772 -0.2978  0.0063
51593DOD     C298599  28.512  15.247  21.506 -0.1760  0.0101 -0.0196
51593DOD     C398600  28.770  14.894  21.322 -0.1572 -0.0898  0.0993
51594DOD     C198601   5.299  14.234  23.969  0.1414 -0.1058 -0.2414
51594DOD     C298602   5.760  14.332  23.912  0.1253 -0.0344 -0.1632
51594DOD     C398603   6.162  14.137  23.760 -0.0109  0.0742 -0.1298
51595DOD     C198604   5.998  14.950  27.096  0.0420 -0.2569  0.1078
51595DOD     C298605   5.984  14.529  27.290  0.0987 -0.3836  0.2623
51595DOD     C398606   5.784  14.130  27.329 -0.1232 -0.0154 -0.2684
51596DOD     C198607   1.101  17.925  21.841  0.0975 -0.0200 -0.1107
51596DOD     C298608   1.119  18.361  22.014 -0.1438  0.0538 -0.1670
51596DOD     C398609   1.005  18.657  22.402  0.0789 -0.2275  0.1659
51597DOD     C198610  16.023  27.946  29.443  0.2736  0.0548  0.1805
51597DOD     C298611  16.472  27.985  29.449  0.1228 -0.1431 -0.0937
51597DOD     C398612  16.828  27.639  29.549  0.0700  0.2190  0.1531
51598DOD     C198613  19.443  21.615  13.221  0.0478 -0.0226  0.1110
51598DOD     C298614  19.288  21.182  13.287 -0.1116  0.0389  0.1311
51598DOD     C398615  19.416  20.934  13.673  0.3038  0.0729 -0.1714
51599DOD     C198616  24.075  18.663  15.892 -0.1902  0.1247 -0.1533
51599DOD     C298617  23.608  18.694  15.915  0.1757 -0.2994 -0.0324
51599DOD     C398618  23.099  18.641  15.916 -0.1526  0.2527 -0.0494
51600DOD     C198619  20.766   5.398  26.882 -0.0871  0.2149 -0.2320
51600DOD     C298620  21.019   5.733  27.026 -0.2170 -0.0453 -0.1618
51600DOD     C398621  21.298   5.815  27.426 -0.0871  0.1419  0.1214
51601DOD     C198622  30.122   2.393   3.636  0.4021  0.0278  0.1002
51601DOD     C298623   0.157   2.676   3.767 -0.0768 -0.1062  0.0565
51601DOD     C398624   0.543   2.796   3.966  0.0693 -0.0947 -0.1401
51602DOD     C198625   7.517   8.664  17.577  0.2243 -0.1631 -0.0561
51602DOD     C298626   7.640   8.697  17.145 -0.0172 -0.1579 -0.0063
51602DOD     C398627   7.627   8.563  16.660 -0.0175 -0.1317  0.1780
51603DOD     C198628  16.932   8.240  22.514 -0.0841  0.0164 -0.0875
51603DOD     C298629  16.811   8.682  22.449 -0.3227 -0.0153 -0.0045
51603DOD     C398630  16.608   8.926  22.818 -0.1860  0.1401  0.0579
51604DOD     C198631  29.389  21.591  19.946  0.0293 -0.0136  0.0155
51604DOD     C298632  29.133  21.797  19.625  0.1065 -0.3569 -0.0075
51604DOD     C398633  28.891  21.859  19.285 -0.2292 -0.2131  0.2298
51605DOD     C198634   1.798   0.820  16.138  0.3342 -0.0134 -0.0947
51605DOD     C298635   1.746   1.285  16.086 -0.2670 -0.3702 -0.0250
51605DOD     C398636   1.494   1.550  15.804 -0.2212 -0.0051  0.3809
51606DOD     C198637  20.361  14.821   2.845  0.1149 -0.2650 -0.1664
51606DOD     C298638  20.201  15.128   2.542 -0.0932 -0.0082 -0.1636
51606DOD     C398639  20.474  15.468   2.310  0.2210 -0.2651 -0.1898
51607DOD     C198640   7.829   3.517  14.661 -0.0970  0.1543  0.1668
51607DOD     C298641   8.244   3.267  14.610 -0.3595 -0.1110  0.0507
51607DOD     C398642   8.346   2.850  14.674  0.1025  0.1560 -0.0766
51608DOD     C198643  17.820  26.995  24.746  0.1321 -0.0187  0.0495
51608DOD     C298644  17.509  26.788  25.087  0.3851 -0.0144 -0.2680
51608DOD     C398645  17.389  26.317  25.097  0.0333 -0.2005  0.2075
51609DOD     C198646  17.613   3.526  26.354  0.2531 -0.1572 -0.1251
51609DOD     C298647  17.562   3.994  26.471  0.0178 -0.0659  0.2269
51609DOD     C398648  17.877   4.198  26.755 -0.0604  0.1768 -0.1121
51610DOD     C198649  19.535   9.549  15.830  0.3128  0.0100  0.0892
51610DOD     C298650  19.526   9.963  15.686  0.1283 -0.1158  0.1219
51610DOD     C398651  19.482  10.423  15.798  0.1771 -0.1120  0.1111
51611DOD     C198652  26.196   7.552  16.220  0.0193  0.0124 -0.4588
51611DOD     C298653  25.997   7.992  16.185 -0.2891  0.0570  0.0253
51611DOD     C398654  25.973   8.384  16.425 -0.2948 -0.2655 -0.1193
51612DOD     C198655  27.882  15.777   8.730 -0.2462  0.1117  0.2821
51612DOD     C298656  27.899  15.304   8.594  0.0288  0.1780  0.0111
51612DOD     C398657  27.933  15.062   8.223 -0.0696 -0.3027  0.2735
51613DOD     C198658  24.680  13.527   7.059 -0.0268 -0.0429  0.0300
51613DOD     C298659  24.652  13.914   6.867  0.1912 -0.1482 -0.0899
51613DOD     C398660  24.583  14.352   6.951 -0.4733 -0.1822  0.0460
51614DOD     C198661  15.669   2.234  22.889 -0.0422  0.2680  0.1008
51614DOD     C298662  15.374   2.186  22.548 -0.0529  0.1559  0.2417
51614DOD     C398663  14.979   2.214  22.271 -0.0550  0.3333  0.4898
51615DOD     C198664   1.191  12.008   1.493 -0.2727 -0.2145 -0.1716
51615DOD     C298665   1.149  12.258   1.869 -0.2037 -0.1317 -0.2335
51615DOD     C398666   1.110  12.708   2.043 -0.0681 -0.0556  0.0189
51616DOD     C198667  23.596  16.602   5.084  0.0369  0.0314  0.1863
51616DOD     C298668  23.144  16.595   5.084 -0.0093  0.3292  0.1093
51616DOD     C398669  22.915  16.560   5.459 -0.1547  0.1460  0.1965
51617DOD     C198670  14.630  20.083  24.334  0.0926  0.1503 -0.0874
51617DOD     C298671  14.589  19.643  24.254 -0.1683  0.1082  0.0066
51617DOD     C398672  14.835  19.388  24.038 -0.4887  0.2071  0.2936
51618DOD     C198673  15.191   3.985  20.131  0.4027 -0.0736 -0.1316
51618DOD     C298674  15.000   3.585  20.261 -0.2032 -0.0928 -0.1083
51618DOD     C398675  14.853   3.195  20.272  0.2936 -0.2738 -0.1701
51619DOD     C198676  17.179  24.098   5.079 -0.2092 -0.0735  0.0142
51619DOD     C298677  17.609  24.199   4.956 -0.1363  0.3126 -0.0581
51619DOD     C398678  17.656  24.366   4.607 -0.2738 -0.0825 -0.1004
51620DOD     C198679  19.227  27.483   0.841  0.2782 -0.0293  0.2268
51620DOD     C298680  18.872  27.643   1.158 -0.0631  0.2139 -0.2540
51620DOD     C398681  18.753  27.448   1.550 -0.0131  0.0754  0.1855
51621DOD     C198682  28.058  24.968  28.367  0.1025 -0.3354  0.0946
51621DOD     C298683  28.493  25.072  28.565 -0.3437 -0.3936  0.0175
51621DOD     C398684  28.886  25.259  28.750 -0.1414  0.0094  0.1591
51622DOD     C198685  16.536  11.649  11.427  0.0513  0.0780  0.4379
51622DOD     C298686  16.247  11.329  11.671  0.0101 -0.0053 -0.0858
51622DOD     C398687  15.837  11.197  11.577 -0.0847  0.0619 -0.0380
51623DOD     C198688  20.497  12.774  20.088  0.4331  0.2951 -0.5645
51623DOD     C298689  20.638  13.230  20.226 -0.2982  0.0002  0.0565
51623DOD     C398690  20.673  13.678  20.399 -0.0567  0.0609  0.0753
51624DOD     C198691  26.105  16.187   6.433 -0.3042 -0.1477 -0.2616
51624DOD     C298692  26.222  16.646   6.210  0.0418  0.1335 -0.0133
51624DOD     C398693  26.458  16.997   6.125  0.1102 -0.0962  0.4145
51625DOD     C198694  13.128  18.021  23.534 -0.0064 -0.0643 -0.1353
51625DOD     C298695  13.280  18.333  23.254  0.2904 -0.3000 -0.2590
51625DOD     C398696  13.593  18.126  23.010 -0.2251  0.2935 -0.3249
51626DOD     C198697  23.191   5.860  25.348 -0.0083 -0.2908  0.1198
51626DOD     C298698  23.592   6.015  25.131  0.0398  0.1194  0.1228
51626DOD     C398699  23.959   6.267  25.107 -0.2691  0.0430  0.0605
51627DOD     C198700  28.070   2.896  15.269 -0.2224 -0.0150 -0.3291
51627DOD     C298701  28.463   2.926  15.013 -0.2264 -0.0329 -0.1369
51627DOD     C398702  28.671   3.136  14.701  0.0804  0.3029  0.1882
51628DOD     C198703  21.665  25.026  21.140 -0.1944 -0.1763  0.0812
51628DOD     C298704  22.015  25.271  20.890  0.2369 -0.2527 -0.1441
51628DOD     C398705  22.230  25.290  20.492 -0.0598 -0.2057 -0.2038
51629DOD     C198706  19.376  28.660   9.855  0.2706 -0.1788 -0.2507
51629DOD     C298707  19.241  28.350   9.563  0.1265  0.2199  0.0442
51629DOD     C398708  18.921  28.293   9.223 -0.1751 -0.1506 -0.0607
51630DOD     C198709  25.511  25.171   6.737 -0.1094 -0.1660  0.2609
51630DOD     C298710  25.511  24.827   7.117 -0.3082  0.2044  0.0808
51630DOD     C398711  25.257  24.979   7.467 -0.1125  0.4158  0.3192
51631DOD     C198712  21.380   4.972   4.010  0.0678  0.0798 -0.0874
51631DOD     C298713  21.189   4.745   4.396 -0.3255 -0.0537  0.1401
51631DOD     C398714  20.781   4.711   4.647  0.2253  0.0737  0.0292
51632DOD     C198715  22.003  11.729  28.228  0.0522  0.1056  0.2003
51632DOD     C298716  22.176  12.224  28.225 -0.0561  0.1836 -0.2821
51632DOD     C398717  22.356  12.601  28.272 -0.5461 -0.0207 -0.0682
51633DOD     C198718   4.777  10.414   1.922  0.0227 -0.1384  0.2745
51633DOD     C298719   4.897   9.983   1.803  0.2127  0.1476 -0.0412
51633DOD     C398720   5.037   9.686   1.447  0.2620  0.0457 -0.1434
51634DOD     C198721  15.270   7.147  14.304 -0.0717 -0.3109  0.0866
51634DOD     C298722  14.875   6.930  14.474 -0.0448 -0.0824 -0.1346
51634DOD     C398723  14.778   6.767  14.897 -0.1276  0.2425 -0.0873
51635DOD     C198724  14.046  30.198  26.924  0.3029  0.0113 -0.0023
51635DOD     C298725  13.916   0.280  27.015  0.0473 -0.1259 -0.3234
51635DOD     C398726  14.174   0.425  27.413  0.2334 -0.0950 -0.0678
51636DOD     C198727   0.748  21.512  25.779  0.3935 -0.3888  0.2413
51636DOD     C298728   0.530  21.510  26.166  0.0389  0.1274 -0.2279
51636DOD     C398729   0.041  21.563  26.354  0.1149  0.1807  0.2911
51637DOD     C198730  16.776  24.137  27.206  0.0320  0.3554  0.0028
51637DOD     C298731  17.026  23.888  26.900  0.0576 -0.2099  0.2471
51637DOD     C398732  17.182  23.757  26.493  0.4001  0.2655 -0.2942
51638DOD     C198733  21.261   7.011  17.620  0.3055 -0.0261 -0.3110
51638DOD     C298734  20.760   7.174  17.760  0.1088  0.0465 -0.3501
51638DOD     C398735  20.662   7.259  18.242 -0.0485 -0.2082 -0.0184
51639DOD     C198736  29.062  13.248   2.207  0.0606  0.0725  0.0986
51639DOD     C298737  29.354  12.985   1.916 -0.1066  0.2128  0.3400
51639DOD     C398738  29.620  12.604   1.726 -0.3472 -0.2488  0.0062
51640DOD     C198739  29.240   5.749  17.468 -0.0981  0.0583  0.2662
51640DOD     C298740  29.205   5.468  17.825 -0.0503  0.3944  0.0559
51640DOD     C398741  29.529   5.281  18.142 -0.2515 -0.0316  0.2174
51641DOD     C198742  12.336   0.299  12.149 -0.0213  0.2577  0.1226
51641DOD     C298743  12.150  30.186  12.056  0.1276 -0.2173 -0.2087
51641DOD     C398744  12.113  29.942  12.444 -0.1852 -0.0038 -0.0890
51642DOD     C198745  22.444  14.265  10.524  0.0810  0.2142 -0.0810
51642DOD     C298746  22.332  13.838  10.425  0.1295  0.1822  0.2285
51642DOD     C398747  22.311  13.496  10.165  0.1257 -0.2616  0.0214
51643DOD     C198748  14.402  25.760  25.585 -0.2280  0.0351 -0.2307
51643DOD     C298749  14.616  26.141  25.484  0.0417 -0.0676 -0.0743
51643DOD     C398750  14.847  26.507  25.256  0.2037  0.0523  0.0345
51644DOD     C198751  28.167  13.415  18.629 -0.1606 -0.2296  0.2139
51644DOD     C298752  28.122  13.034  18.366 -0.1787  0.0043  0.0949
51644DOD     C398753  27.938  12.759  18.037  0.0303  0.0846  0.0591
51645DOD     C198754   9.081  13.604   1.200 -0.0206 -0.2410 -0.2421
51645DOD     C298755   8.923  13.413   0.793 -0.0819 -0.4316  0.3759
51645DOD     C398756   8.839  13.309   0.394 -0.0042  0.2477 -0.1871
51646DOD     C198757   3.745   6.811   7.546 -0.1457 -0.0666 -0.1248
51646DOD     C298758   4.062   6.595   7.308  0.0838 -0.1560 -0.0382
51646DOD     C398759   4.353   6.761   6.930 -0.1489 -0.0624 -0.0605
51647DOD     C198760   4.442  18.912   9.606 -0.0155 -0.1028 -0.3362
51647DOD     C298761   4.724  19.285   9.587 -0.3316  0.0859  0.1756
51647DOD     C398762   5.210  19.331   9.568 -0.2524  0.0745 -0.1458
51648DOD     C198763  13.624   7.445   3.699  0.0473 -0.1169 -0.0272
51648DOD     C298764  13.959   7.230   3.955 -0.3314 -0.1196 -0.0358
51648DOD     C398765  14.339   7.297   4.271  0.2573  0.0415 -0.1213
51649DOD     C198766  19.491   0.925  17.970  0.1549 -0.0530  0.1005
51649DOD     C298767  19.694   1.289  18.171 -0.0445  0.0645 -0.0457
51649DOD     C398768  19.703   1.731  18.174 -0.1271  0.0280 -0.0152
51650DOD     C198769   6.113   0.389  15.058  0.0239 -0.1774  0.0375
51650DOD     C298770   6.037   0.843  15.235 -0.1643  0.2459 -0.0337
51650DOD     C398771   6.372   1.146  15.377  0.0386  0.2203 -0.3480
51651DOD     C198772   4.683  11.773  19.414 -0.2946 -0.0132 -0.0870
51651DOD     C298773   4.790  11.527  18.990 -0.0745 -0.0489  0.0797
51651DOD     C398774   5.144  11.557  18.646 -0.1192 -0.1280 -0.0039
51652DOD     C198775  26.607  13.484  16.997 -0.1489 -0.0642  0.0112
51652DOD     C298776  26.646  13.709  16.568 -0.0646  0.0788 -0.1682
51652DOD     C398777  27.126  13.738  16.491  0.1332  0.2256  0.1117
51653DOD     C198778   2.840  10.138  11.375 -0.1386  0.1198 -0.2630
51653DOD     C298779   3.326  10.242  11.195  0.2560 -0.0487  0.1021
51653DOD     C398780   3.783  10.332  11.328  0.1068  0.0840 -0.0807
51654DOD     C198781  24.032   7.095  11.650  0.1482 -0.1314 -0.2320
51654DOD     C298782  23.949   7.477  11.331  0.0953  0.0399 -0.0446
51654DOD     C398783  23.747   7.796  11.066  0.5003 -0.1106  0.1400
51655DOD     C198784  11.140  11.218  25.790  0.0699  0.2787 -0.1740
51655DOD     C298785  11.613  11.303  25.523 -0.3142  0.1416 -0.1093
51655DOD     C398786  12.007  11.496  25.686  0.3716  0.2151  0.2863
51656DOD     C198787  25.690  28.868   6.258 -0.1983 -0.0828  0.1249
51656DOD     C298788  25.507  28.674   6.640  0.0989 -0.0154 -0.0238
51656DOD     C398789  25.312  28.814   7.017  0.1521 -0.2148 -0.0057
51657DOD     C198790  25.162  17.406  29.733 -0.0731 -0.0941 -0.1507
51657DOD     C298791  25.626  17.294  29.612 -0.0530 -0.1711  0.2383
51657DOD     C398792  25.931  16.915  29.405 -0.3060  0.0232  0.4291
51658DOD     C198793   6.644  27.698   8.031 -0.0334 -0.2646  0.2337
51658DOD     C298794   6.267  27.492   8.012  0.2070 -0.2412  0.1288
51658DOD     C398795   6.103  27.064   7.791  0.0767  0.1913 -0.2531
51659DOD     C198796   5.432   0.751  17.920 -0.2072  0.1264 -0.2151
51659DOD     C298797   5.789   0.875  18.264 -0.1622  0.2243  0.3516
51659DOD     C398798   6.177   0.850  18.551 -0.1136 -0.0141  0.0360
51660DOD     C198799  19.794  24.032  10.586  0.0284 -0.0941 -0.1171
51660DOD     C298800  19.835  23.588  10.429  0.0931 -0.1303  0.0233
51660DOD     C398801  20.217  23.340  10.529 -0.0020  0.1000  0.1241
51661DOD     C198802  21.274  10.587   8.078 -0.1428 -0.1352  0.0655
51661DOD     C298803  20.882  10.852   8.313 -0.0159 -0.3136  0.0045
51661DOD     C398804  20.453  10.857   8.472  0.1557  0.0574 -0.0196
51662DOD     C198805   1.911   5.937   8.466 -0.0864 -0.2090 -0.0568
51662DOD     C298806   2.317   6.158   8.368  0.1780  0.1674 -0.0853
51662DOD     C398807   2.605   6.464   8.523  0.2742 -0.0290  0.1293
51663DOD     C198808   7.706   8.280  23.121 -0.1203  0.1167 -0.1753
51663DOD     C298809   8.018   8.113  22.785  0.1258  0.0875 -0.1584
51663DOD     C398810   8.378   8.254  22.605 -0.0997 -0.2072  0.1329
51664DOD     C198811  14.549  18.851  23.846  0.3072  0.3517 -0.4305
51664DOD     C298812  14.312  18.503  23.627 -0.1198  0.0057 -0.1444
51664DOD     C398813  14.397  18.088  23.547  0.0573  0.0596  0.3841
51665DOD     C198814  26.604  13.324  18.232 -0.1455 -0.0012  0.2589
51665DOD     C298815  26.670  12.924  18.127 -0.1110 -0.0250 -0.2272
51665DOD     C398816  26.612  12.472  18.100 -0.3639  0.1052  0.1738
51666DOD     C198817   3.805  17.725  10.270 -0.0515  0.3536  0.3884
51666DOD     C298818   3.428  17.487  10.041  0.0767  0.1878 -0.1406
51666DOD     C398819   3.027  17.208  10.203  0.1326 -0.1142  0.1043
51667DOD     C198820  24.909  25.029   0.536  0.1608  0.0633 -0.0593
51667DOD     C298821  24.777  25.123   0.049  0.0282  0.1860 -0.2350
51667DOD     C398822  24.871  24.874  29.942 -0.0374  0.2059 -0.0423
51668DOD     C198823   8.110   2.321  11.816 -0.2742  0.0177  0.1149
51668DOD     C298824   8.324   1.995  12.062 -0.0257  0.1352  0.0508
51668DOD     C398825   8.536   1.623  12.310  0.2389  0.1447 -0.2470
51669DOD     C198826   9.556  16.350   3.754 -0.0674 -0.1986 -0.0249
51669DOD     C298827   9.812  16.086   3.435 -0.0860 -0.4360 -0.1342
51669DOD     C398828  10.081  16.178   3.069 -0.0801  0.0251 -0.0563
51670DOD     C198829   1.233  20.649  20.465  0.0365  0.0588 -0.4132
51670DOD     C298830   1.054  20.571  20.002 -0.0417  0.1255  0.1314
51670DOD     C398831   0.780  20.841  19.749 -0.2861  0.1012 -0.0987
51671DOD     C198832   2.428  27.633  29.451  0.1357 -0.3331  0.1784
51671DOD     C298833   2.405  27.255  29.680 -0.3560  0.2145  0.0634
51671DOD     C398834   2.210  26.843  29.746 -0.3481  0.0114  0.2899
51672DOD     C198835  11.452   7.105   1.692  0.0819 -0.3993  0.0687
51672DOD     C298836  11.817   7.017   1.951  0.1693  0.0565  0.0955
51672DOD     C398837  12.189   7.251   2.144 -0.0782 -0.0826  0.0051
51673DOD     C198838  24.172  11.715  19.194  0.0928 -0.3179 -0.0727
51673DOD     C298839  24.540  11.649  18.934 -0.0637 -0.1193  0.0701
51673DOD     C398840  24.944  11.786  19.185  0.0146 -0.1633  0.1457
51674DOD     C198841  17.641  29.052  24.649  0.0069  0.0636  0.0354
51674DOD     C298842  18.076  28.949  24.741  0.0264 -0.1619 -0.1461
51674DOD     C398843  18.504  28.778  24.825 -0.0104 -0.0378 -0.0856
51675DOD     C198844  21.810   0.971   0.191 -0.0878 -0.2062  0.0707
51675DOD     C298845  22.231   0.852  30.328  0.0200  0.1530  0.1192
51675DOD     C398846  22.460   0.908  29.877  0.0278  0.1982  0.0978
51676DOD     C198847  23.696  24.029   0.052 -0.0443  0.0109 -0.0262
51676DOD     C298848  23.672  24.080  29.914  0.2393 -0.1151 -0.2430
51676DOD     C398849  23.861  24.083  29.491 -0.0274  0.0903 -0.0694
51677DOD     C198850   1.958   0.760  27.922 -0.1634  0.3450  0.1628
51677DOD     C298851   1.994   0.296  27.898 -0.3778  0.1333 -0.0210
51677DOD     C398852   1.945  30.177  27.635  0.3067 -0.0510  0.3550
51678DOD     C198853   4.587  25.623  10.385 -0.2118 -0.0482  0.0022
51678DOD     C298854   4.725  25.193  10.441  0.2742 -0.0684 -0.0511
51678DOD     C398855   4.854  24.784  10.289  0.1730 -0.1217 -0.2610
51679DOD     C198856  20.150  13.638  15.851 -0.0608 -0.1695 -0.0583
51679DOD     C298857  20.128  13.590  15.406  0.1903 -0.0613  0.0361
51679DOD     C398858  20.078  13.576  14.934 -0.0122 -0.0499 -0.0858
51680DOD     C198859   6.545   1.321  21.136 -0.0494  0.0279 -0.1948
51680DOD     C298860   6.590   1.659  20.826  0.0589  0.1095  0.3994
51680DOD     C398861   6.529   1.927  20.453 -0.0651  0.0413  0.0236
51681DOD     C198862   2.070  20.519  29.699 -0.0556 -0.0740 -0.2028
51681DOD     C298863   2.177  21.028  29.607  0.2012 -0.2602  0.2705
51681DOD     C398864   2.454  21.432  29.706  0.3142 -0.2290 -0.0689
51682DOD     C198865   8.650  26.628   2.570  0.1355  0.3962 -0.1129
51682DOD     C298866   8.206  26.760   2.533  0.0029 -0.2182  0.1101
51682DOD     C398867   7.809  26.814   2.817  0.5372  0.1288  0.3090
51683DOD     C198868  14.254  10.359  27.454 -0.0702 -0.4103  0.1155
51683DOD     C298869  14.193  10.548  27.028  0.1006 -0.0051  0.1391
51683DOD     C398870  13.913  10.382  26.708  0.1740 -0.0329  0.0130
51684DOD     C198871   2.280   5.481  19.165  0.1657  0.2084  0.1494
51684DOD     C298872   2.108   5.668  19.580 -0.2273  0.0330 -0.3095
51684DOD     C398873   1.902   5.616  19.966  0.0395 -0.0861 -0.0107
51685DOD     C198874  20.901  17.534  23.919 -0.4531  0.1767  0.2408
51685DOD     C298875  20.722  17.820  23.590 -0.0730 -0.0784  0.0512
51685DOD     C398876  20.870  18.148  23.301 -0.0643  0.6603  0.0959
51686DOD     C198877   3.141  28.474   8.692  0.0303  0.0076  0.0620
51686DOD     C298878   3.472  28.419   8.354  0.0567  0.1958  0.2340
51686DOD     C398879   3.965  28.457   8.186 -0.0425  0.2160 -0.2076
51687DOD     C198880  16.525   2.994   0.606  0.3041 -0.0223  0.0378
51687DOD     C298881  16.444   3.425   0.372  0.1129 -0.0352 -0.0198
51687DOD     C398882  16.480   3.775   0.062 -0.0197  0.0087 -0.1568
51688DOD     C198883  25.534   5.831   2.320  0.0220  0.4475  0.5195
51688DOD     C298884  25.984   5.809   2.445 -0.3436 -0.0640 -0.2563
51688DOD     C398885  26.445   5.833   2.523 -0.2374  0.2514 -0.3305
51689DOD     C198886   3.590   4.137  18.124  0.1576 -0.1830  0.0848
51689DOD     C298887   3.253   4.357  18.175  0.1300  0.0176  0.0976
51689DOD     C398888   2.867   4.299  18.383  0.0511  0.1331  0.0380
51690DOD     C198889   7.814  19.482   7.220  0.1026 -0.0529 -0.2203
51690DOD     C298890   7.880  19.104   6.983 -0.1021 -0.3543  0.2027
51690DOD     C398891   7.638  18.787   7.113 -0.0136 -0.1950 -0.2796
51691DOD     C198892  23.635   5.208   7.580 -0.0488  0.0394  0.2676
51691DOD     C298893  23.154   5.276   7.653 -0.1310 -0.2019 -0.3180
51691DOD     C398894  22.743   5.166   7.876  0.1004  0.0344 -0.1800
51692DOD     C198895  26.268  28.071  21.539 -0.2412 -0.4438 -0.0358
51692DOD     C298896  26.014  28.116  21.186 -0.1871 -0.3127 -0.0906
51692DOD     C398897  25.882  28.305  20.790  0.1924 -0.0533 -0.2376
51693DOD     C198898   7.878   7.302  25.904  0.0086 -0.4212  0.1140
51693DOD     C298899   7.523   7.097  25.785 -0.0283 -0.0055 -0.0564
51693DOD     C398900   7.081   7.145  25.714 -0.5810  0.0641 -0.3733
51694DOD     C198901  13.542  10.146  26.476 -0.2454 -0.3880 -0.1273
51694DOD     C298902  13.532  10.119  25.989  0.1363 -0.5130 -0.1502
51694DOD     C398903  13.492  10.451  25.619 -0.2325 -0.0720  0.1511
51695DOD     C198904   2.344   9.657   1.651 -0.1146 -0.0322 -0.1246
51695DOD     C298905   2.157   9.585   2.118  0.2235 -0.2925 -0.0346
51695DOD     C398906   1.731   9.626   2.368  0.0657 -0.0378  0.2418
51696DOD     C198907  19.468  14.793  19.685  0.2693  0.2476 -0.0049
51696DOD     C298908  19.328  15.041  20.059  0.0493 -0.2239  0.0915
51696DOD     C398909  19.322  15.013  20.506  0.0292 -0.1928 -0.1906
51697DOD     C198910   6.891  18.974  10.579 -0.2369  0.2236 -0.3086
51697DOD     C298911   7.126  18.629  10.779  0.1156 -0.1977 -0.1695
51697DOD     C398912   7.196  18.232  10.903  0.1258  0.0421  0.0143
51698DOD     C198913  28.047  11.587  17.661 -0.0795  0.2889 -0.0009
51698DOD     C298914  28.250  12.033  17.674 -0.2180  0.3818  0.3071
51698DOD     C398915  28.597  12.294  17.439 -0.0645  0.1180 -0.1567
51699DOD     C198916   4.271   0.336   7.664 -0.1293  0.0866  0.0372
51699DOD     C298917   4.085   0.133   7.279  0.2086  0.1407 -0.0468
51699DOD     C398918   3.744  30.253   7.043  0.2052 -0.3636 -0.1004
51700DOD     C198919   1.097   2.254  27.251 -0.0356 -0.0145 -0.1172
51700DOD     C298920   0.910   1.876  27.107 -0.1936 -0.0242  0.1263
51700DOD     C398921   0.450   1.781  27.192 -0.1958  0.0722  0.0039
51701DOD     C198922   3.485  14.067   9.207  0.0344 -0.0400  0.0456
51701DOD     C298923   3.285  14.217   9.650  0.0459  0.0862 -0.1477
51701DOD     C398924   3.257  14.011  10.023  0.0832  0.0576 -0.3727
51702DOD     C198925  11.243  23.682   9.644  0.0678  0.0031  0.0139
51702DOD     C298926  10.935  23.340   9.707  0.0091 -0.1088 -0.3609
51702DOD     C398927  10.677  23.027   9.872 -0.0478 -0.2882  0.1134
51703DOD     C198928   2.726   0.938   9.658  0.1592  0.3104  0.0087
51703DOD     C298929   2.762   1.355   9.553 -0.1104  0.2467  0.2631
51703DOD     C398930   2.795   1.740   9.751 -0.2879 -0.1566 -0.0473
51704DOD     C198931  14.599  21.513  17.629 -0.2491  0.0997 -0.3296
51704DOD     C298932  14.323  21.573  17.244  0.2821  0.0460 -0.1514
51704DOD     C398933  13.973  21.572  16.990  0.1363  0.0730  0.1881
51705DOD     C198934  17.934  21.159  17.369 -0.0768 -0.3177 -0.0847
51705DOD     C298935  18.163  20.991  17.729  0.3320  0.1963  0.1045
51705DOD     C398936  18.439  21.156  18.101  0.0938  0.0442 -0.3089
51706DOD     C198937  11.120  19.701   1.644  0.2058 -0.0860 -0.1583
51706DOD     C298938  10.761  19.506   1.879 -0.0429 -0.1653 -0.2832
51706DOD     C398939  10.316  19.533   1.832 -0.1067 -0.1703 -0.1516
51707DOD     C198940   8.570   0.298   4.266 -0.3239  0.0399  0.1306
51707DOD     C298941   8.535  30.187   4.330  0.0902 -0.2676  0.1407
51707DOD     C398942   8.553  29.907   3.932  0.3451  0.0018  0.0804
51708DOD     C198943  28.213   7.031  12.158  0.2938 -0.0383 -0.1152
51708DOD     C298944  28.035   7.286  11.772  0.0423  0.0542  0.1434
51708DOD     C398945  28.118   7.652  11.507 -0.0951  0.0191 -0.2922
51709DOD     C198946  28.194  15.444  11.157 -0.1005  0.2668  0.0549
51709DOD     C298947  28.395  15.478  10.687 -0.0316  0.0693 -0.1334
51709DOD     C398948  28.286  15.474  10.237 -0.0456 -0.0012  0.0238
51710DOD     C198949  10.101   2.757   1.039 -0.1606 -0.2946  0.2294
51710DOD     C298950  10.396   2.452   1.183 -0.0910  0.0494 -0.0778
51710DOD     C398951  10.778   2.181   1.101  0.0295  0.1059 -0.0026
51711DOD     C198952   5.363  18.848   4.618  0.1370 -0.1474 -0.0461
51711DOD     C298953   5.037  18.432   4.704  0.1816  0.2015 -0.0374
51711DOD     C398954   4.764  18.135   4.916 -0.1980 -0.1148  0.2624
51712DOD     C198955  25.587  14.024  12.173  0.1731  0.2842 -0.3273
51712DOD     C298956  25.751  13.867  11.731 -0.0731 -0.0852 -0.1963
51712DOD     C398957  25.914  14.094  11.342 -0.0237  0.1228  0.1896
51713DOD     C198958  19.415   6.023  10.610 -0.2969  0.0561 -0.2060
51713DOD     C298959  19.781   5.948  10.971  0.2296 -0.1093  0.2660
51713DOD     C398960  20.068   5.601  11.179 -0.0699 -0.1540 -0.0691
51714DOD     C198961   4.152  28.990   0.023 -0.0592 -0.0322 -0.3241
51714DOD     C298962   4.501  29.101   0.254  0.1240  0.1947  0.0849
51714DOD     C398963   4.955  29.034   0.387 -0.0845 -0.2696 -0.1410
51715DOD     C198964  21.941  12.097  21.879  0.0870  0.1613  0.2076
51715DOD     C298965  22.281  11.755  21.828  0.1408 -0.0067  0.0275
51715DOD     C398966  22.673  11.765  21.666 -0.0327  0.0815  0.2146
51716DOD     C198967   3.794   6.177   7.498  0.4700 -0.1271  0.4814
51716DOD     C298968   3.836   6.051   7.021  0.0562  0.0368 -0.2556
51716DOD     C398969   3.732   5.639   6.818 -0.0182  0.0380  0.2183
51717DOD     C198970   9.396   7.769  25.180 -0.0745  0.2616  0.0491
51717DOD     C298971   9.028   7.434  25.160  0.0571  0.1246  0.3600
51717DOD     C398972   8.623   7.394  24.908 -0.1977 -0.2133  0.0123
51718DOD     C198973  10.688  15.427   2.314 -0.1835 -0.0660  0.1266
51718DOD     C298974  11.151  15.448   2.448 -0.2276  0.0365 -0.1064
51718DOD     C398975  11.588  15.465   2.563  0.1435  0.1377 -0.2733
51719DOD     C198976  21.757  11.079  17.159  0.1353 -0.0510 -0.1874
51719DOD     C298977  21.367  11.125  17.227  0.1410  0.1078 -0.0302
51719DOD     C398978  20.881  11.187  17.284 -0.0458  0.1438 -0.2153
51720DOD     C198979   0.832  16.450  29.326  0.1205  0.1709 -0.0050
51720DOD     C298980   0.423  16.568  29.185 -0.4297 -0.2031  0.2079
51720DOD     C398981   0.112  16.610  29.472  0.4040 -0.1925 -0.0320
51721DOD     C198982   7.490  11.369  22.259 -0.2321 -0.0426  0.1577
51721DOD     C298983   7.399  11.278  21.795  0.3067  0.1360 -0.2010
51721DOD     C398984   7.522  11.556  21.459 -0.1702  0.1038 -0.3422
51722DOD     C198985  25.050  17.963   0.513  0.0547  0.1956 -0.2251
51722DOD     C298986  24.943  18.383   0.403 -0.2080 -0.2951  0.2145
51722DOD     C398987  24.732  18.563   0.041 -0.0227  0.2720 -0.1815
51723DOD     C198988   5.162  28.521   9.800 -0.1653 -0.1708  0.3415
51723DOD     C298989   5.612  28.513   9.919  0.3628 -0.0371  0.1462
51723DOD     C398990   5.941  28.792  10.165  0.0592 -0.1134  0.0338
51724DOD     C198991  25.271  23.279  17.361 -0.1220  0.0742  0.0436
51724DOD     C298992  24.923  23.495  17.192 -0.1487  0.0672 -0.1225
51724DOD     C398993  24.706  23.692  16.862  0.0266 -0.0112  0.2608
51725DOD     C198994  24.806   8.387  17.738 -0.2741  0.0720  0.1334
51725DOD     C298995  25.186   8.637  17.674  0.2172  0.2590  0.0594
51725DOD     C398996  25.238   8.962  17.366  0.1394  0.1579  0.0462
51726DOD     C198997   7.595  18.154  14.102 -0.2072  0.1813 -0.0124
51726DOD     C298998   7.823  17.826  13.837 -0.0426 -0.1263  0.0084
51726DOD     C398999   7.758  17.542  13.509 -0.1075 -0.1752  0.2290
51727DOD     C199000  20.366   8.906  16.062  0.0301 -0.1946  0.0142
51727DOD     C299001  20.500   9.002  16.510  0.3742 -0.1320 -0.0681
51727DOD     C399002  20.512   8.949  17.020  0.1573 -0.0422 -0.4189
51728DOD     C199003  13.142  30.022  25.003 -0.0749  0.0247 -0.3237
51728DOD     C299004  12.732  30.279  25.169 -0.0624  0.0599 -0.3519
51728DOD     C399005  12.313  30.264  25.353  0.0580 -0.1229  0.0639
51729DOD     C199006  17.245  21.504   5.892  0.1823  0.1168  0.1652
51729DOD     C299007  17.276  21.502   5.427  0.0566  0.2435 -0.1690
51729DOD     C399008  17.028  21.522   5.023 -0.0150 -0.0845  0.0608
51730DOD     C199009   7.664   7.184  28.770  0.0559  0.1231  0.2019
51730DOD     C299010   7.746   7.217  28.296 -0.0109 -0.0105 -0.1955
51730DOD     C399011   7.947   7.097  27.919 -0.0430  0.0392  0.1913
51731DOD     C199012  11.591  29.422   8.614 -0.2219 -0.0396  0.1214
51731DOD     C299013  11.168  29.373   8.701  0.2528  0.1658 -0.1425
51731DOD     C399014  10.838  29.247   8.953  0.3119 -0.0303 -0.4311
51732DOD     C199015   2.907   0.383  16.304 -0.3686  0.0624  0.1053
51732DOD     C299016   2.598   0.537  15.951  0.0457 -0.2998 -0.1059
51732DOD     C399017   2.362   0.657  15.549  0.3210  0.0613 -0.2388
51733DOD     C199018   7.148   8.071   7.275  0.0250  0.0289  0.1271
51733DOD     C299019   7.244   8.389   7.629 -0.3555  0.0496  0.2070
51733DOD     C399020   7.143   8.791   7.825  0.2860  0.1926  0.0991
51734DOD     C199021   7.832   1.162   4.012 -0.0123  0.1229 -0.2105
51734DOD     C299022   7.801   1.027   4.406  0.0609 -0.0163  0.0315
51734DOD     C399023   7.805   0.972   4.851 -0.0010 -0.1007 -0.1703
51735DOD     C199024  27.656  25.894  10.607 -0.0993  0.2551  0.2591
51735DOD     C299025  28.011  25.842  10.918 -0.1183  0.0205 -0.2007
51735DOD     C399026  28.369  25.792  11.287 -0.0760  0.1066  0.0741
51736DOD     C199027  26.189  26.484  28.258 -0.1416 -0.2290  0.0479
51736DOD     C299028  26.419  26.205  27.956  0.1206  0.1802 -0.2509
51736DOD     C399029  26.399  25.791  27.756  0.3192 -0.0631  0.1679
51737DOD     C199030  24.192  28.311   5.588  0.0056 -0.1489 -0.2055
51737DOD     C299031  24.635  28.104   5.623 -0.0942 -0.1114  0.0497
51737DOD     C399032  24.794  27.720   5.403 -0.0884  0.1265  0.1309
51738DOD     C199033  25.154  25.801  17.595  0.2619 -0.2126 -0.1999
51738DOD     C299034  25.400  26.075  17.883  0.1183  0.2378 -0.0512
51738DOD     C399035  25.391  26.254  18.334  0.0123  0.1377  0.0625
51739DOD     C199036  14.375   3.713  11.032  0.0809  0.0754 -0.1803
51739DOD     C299037  14.814   3.590  11.131  0.0424 -0.1076  0.1698
51739DOD     C399038  15.251   3.675  11.352 -0.0812 -0.1329  0.0378
51740DOD     C199039   4.318  24.908  12.008 -0.0831 -0.1395  0.1016
51740DOD     C299040   4.191  24.935  11.596 -0.0410 -0.1542 -0.1498
51740DOD     C399041   4.081  25.088  11.172  0.4680  0.1012 -0.1168
51741DOD     C199042  14.417  10.034  24.443  0.0041 -0.0947  0.2480
51741DOD     C299043  14.674  10.457  24.588 -0.0439  0.2736 -0.0898
51741DOD     C399044  14.768  10.881  24.499 -0.0637  0.3269 -0.0161
51742DOD     C199045   9.747  11.442  26.979  0.2772  0.0604  0.4242
51742DOD     C299046  10.089  11.721  27.074 -0.0005  0.2191 -0.4633
51742DOD     C399047  10.532  11.634  26.928  0.0037 -0.1586 -0.4006
51743DOD     C199048  13.769   7.631  12.345  0.0731 -0.0275  0.1046
51743DOD     C299049  14.081   7.923  12.411 -0.2255  0.2345  0.0880
51743DOD     C399050  14.506   7.954  12.186 -0.1225  0.0593 -0.3647
51744DOD     C199051  18.718   7.783   9.449  0.0765 -0.1274  0.1823
51744DOD     C299052  18.308   7.891   9.628 -0.0688 -0.1956 -0.2697
51744DOD     C399053  17.835   7.824   9.720  0.0778  0.3950 -0.1215
51745DOD     C199054  15.740  11.285   5.798  0.1694 -0.0045 -0.1505
51745DOD     C299055  15.333  11.413   5.959 -0.1341 -0.0603  0.0080
51745DOD     C399056  15.086  11.172   5.670  0.3635  0.0759  0.3407
51746DOD     C199057  16.619  20.455  14.655 -0.1367 -0.0933  0.0396
51746DOD     C299058  16.646  20.128  14.341 -0.0562 -0.1101 -0.4432
51746DOD     C399059  16.943  19.815  14.149 -0.0612  0.1715  0.0091
51747DOD     C199060   9.483   0.224  16.908 -0.1491 -0.1344  0.0826
51747DOD     C299061   9.762   0.152  16.584 -0.1379 -0.0208 -0.0614
51747DOD     C399062  10.076  30.089  16.500  0.2152 -0.0971 -0.1343
51748DOD     C199063  11.288  10.884   0.145 -0.0105 -0.0248  0.1094
51748DOD     C299064  11.239  10.836   0.635 -0.1710 -0.1280 -0.1294
51748DOD     C399065  11.127  10.485   0.894 -0.2633 -0.0161  0.0618
51749DOD     C199066   5.305   0.579  27.030  0.0979 -0.3538 -0.3049
51749DOD     C299067   5.260   0.232  27.378  0.2153 -0.3088  0.1832
51749DOD     C399068   5.231  30.245  27.701 -0.1498 -0.1015 -0.0782
51750DOD     C199069   6.896   8.953   7.015  0.3420 -0.2535  0.0212
51750DOD     C299070   7.209   9.009   6.723 -0.1224 -0.1096 -0.0410
51750DOD     C399071   7.355   8.921   6.346  0.1650 -0.0370 -0.4002
51751DOD     C199072  13.205   2.171   7.343  0.2585  0.0695  0.1133
51751DOD     C299073  12.846   1.992   7.552 -0.3095 -0.2778 -0.2077
51751DOD     C399074  12.789   1.970   8.038 -0.2100 -0.0793  0.1556
51752DOD     C199075  14.071  17.165  28.588  0.1600 -0.0125  0.0739
51752DOD     C299076  14.406  17.133  28.940  0.1350  0.1370  0.0335
51752DOD     C399077  14.842  17.249  29.046 -0.3392  0.0198  0.0180
51753DOD     C199078  22.470  19.542  10.201  0.0085  0.0889 -0.3109
51753DOD     C299079  22.363  19.347   9.799  0.1216  0.2148 -0.0368
51753DOD     C399080  22.183  18.866   9.762 -0.0249  0.0347  0.0944
51754DOD     C199081  26.326  23.678  22.806 -0.3018 -0.1207  0.3408
51754DOD     C299082  26.791  23.811  22.834  0.1289 -0.1320 -0.3129
51754DOD     C399083  27.260  23.833  23.075  0.4903 -0.0603 -0.0487
51755DOD     C199084  19.704  20.722  11.933 -0.2578 -0.1318  0.2031
51755DOD     C299085  19.957  21.119  12.018  0.1934  0.3637 -0.1605
51755DOD     C399086  20.184  21.439  11.787  0.2386 -0.0509 -0.0118
51756DOD     C199087   1.537   2.010  21.209 -0.1473 -0.3791 -0.3274
51756DOD     C299088   1.819   2.046  20.784 -0.0283  0.1912  0.0105
51756DOD     C399089   2.201   1.856  20.571  0.2241  0.0545 -0.1039
51757DOD     C199090   7.016  15.724  29.946 -0.1489 -0.0118  0.1473
51757DOD     C299091   7.027  15.301  29.802  0.0527  0.2993  0.0439
51757DOD     C399092   7.294  14.934  29.665 -0.0329  0.1521 -0.0211
51758DOD     C199093  26.428  27.827  23.916 -0.3662 -0.1604  0.1020
51758DOD     C299094  26.017  27.787  24.142  0.1492  0.0731 -0.0430
51758DOD     C399095  25.921  28.125  24.471 -0.0228 -0.2037  0.2500
51759DOD     C199096   0.996  24.109   2.245  0.0737 -0.1749 -0.0320
51759DOD     C299097   1.184  24.412   2.571 -0.2571 -0.0616  0.1758
51759DOD     C399098   1.158  24.356   3.013 -0.0562  0.0429 -0.2629
51760DOD     C199099  18.524  21.741  27.234 -0.3002 -0.2240 -0.0060
51760DOD     C299100  18.120  21.944  27.329  0.0602  0.1505  0.1832
51760DOD     C399101  17.960  22.271  27.635 -0.1507  0.1425 -0.1172
51761DOD     C199102  21.718  18.146   3.179  0.0693 -0.3783 -0.2035
51761DOD     C299103  21.934  18.137   3.594 -0.0882 -0.1733  0.2573
51761DOD     C399104  22.190  18.214   3.943 -0.0500 -0.0798 -0.0663
51762DOD     C199105   5.001  28.078  23.361  0.1061  0.1563 -0.2047
51762DOD     C299106   5.064  28.304  23.688 -0.0164 -0.1659 -0.1162
51762DOD     C399107   4.790  28.417  24.124 -0.1051  0.1739  0.2092
51763DOD     C199108  18.988  27.395  25.996 -0.0854  0.0853 -0.1741
51763DOD     C299109  18.823  27.470  25.576  0.1052  0.2918 -0.1883
51763DOD     C399110  18.557  27.183  25.295 -0.0244 -0.2245 -0.1045
51764DOD     C199111  26.853  17.718  21.539 -0.0406 -0.0665  0.0244
51764DOD     C299112  26.612  17.949  21.776  0.1814  0.2939  0.1816
51764DOD     C399113  26.307  17.803  22.079  0.1993  0.1658 -0.2801
51765DOD     C199114  11.749  15.586  10.308  0.2315 -0.2640  0.1229
51765DOD     C299115  12.158  15.480  10.591 -0.0920  0.3120  0.5209
51765DOD     C399116  12.452  15.151  10.598  0.1911  0.1893  0.1625
51766DOD     C199117  28.041  15.227   5.290 -0.1854  0.0361 -0.2769
51766DOD     C299118  27.930  15.522   5.643 -0.2689  0.3149 -0.3374
51766DOD     C399119  28.133  15.746   5.994 -0.0563  0.0097 -0.0502
51767DOD     C199120  27.892  18.417   6.851  0.0116  0.0009 -0.1513
51767DOD     C299121  28.291  18.122   6.785  0.1771 -0.4361  0.1096
51767DOD     C399122  28.734  18.011   6.865 -0.3430 -0.0517 -0.0604
51768DOD     C199123  15.548  10.495  23.429  0.1651 -0.2034 -0.2627
51768DOD     C299124  15.761  10.597  23.030 -0.1315  0.1790  0.0309
51768DOD     C399125  15.801  10.312  22.619  0.4205  0.1158 -0.1878
51769DOD     C199126  17.670  11.072   9.741 -0.1264 -0.3929 -0.0633
51769DOD     C299127  17.451  10.705   9.843 -0.0213  0.1877 -0.1077
51769DOD     C399128  17.050  10.474   9.959  0.3941 -0.0395 -0.0511
51770DOD     C199129  10.560  27.756  23.696 -0.2710 -0.0514 -0.0704
51770DOD     C299130  10.343  27.873  23.334  0.1278 -0.2558 -0.0023
51770DOD     C399131   9.889  28.023  23.193 -0.0214 -0.1489 -0.0110
51771DOD     C199132  20.061  12.321  10.281 -0.2536 -0.2692 -0.0598
51771DOD     C299133  20.231  12.326  10.706 -0.3170 -0.2041 -0.0521
51771DOD     C399134  20.127  12.314  11.193 -0.1797 -0.1562 -0.1362
51772DOD     C199135  28.925  26.048  14.492 -0.0365  0.1487 -0.0470
51772DOD     C299136  29.015  25.844  14.110 -0.0067  0.2464 -0.1070
51772DOD     C399137  28.700  25.774  13.741 -0.3356 -0.0587 -0.1256
51773DOD     C199138   6.742   2.233  15.692 -0.1120 -0.1152 -0.1383
51773DOD     C299139   6.933   2.664  15.689 -0.0647  0.3329  0.0304
51773DOD     C399140   7.160   3.086  15.852  0.3627 -0.0069  0.0107
51774DOD     C199141  23.939  14.926  22.557 -0.2749  0.0209 -0.0278
51774DOD     C299142  24.301  14.732  22.302 -0.0357  0.1901 -0.2780
51774DOD     C399143  24.750  14.634  22.130  0.3219 -0.0529 -0.1699
51775DOD     C199144  22.800  27.648  29.779  0.0060 -0.1332  0.1609
51775DOD     C299145  22.751  27.595  30.231 -0.0191  0.2369 -0.0538
51775DOD     C399146  22.544  27.425   0.288  0.3745 -0.0330 -0.1612
51776DOD     C199147  19.529   5.738  12.813 -0.3577 -0.1544  0.0583
51776DOD     C299148  19.638   6.191  12.782  0.1206 -0.0729 -0.0263
51776DOD     C399149  19.951   6.453  12.964  0.1742  0.3091 -0.2839
51777DOD     C199150   5.599  14.625  11.756  0.2154 -0.1575 -0.1733
51777DOD     C299151   5.699  15.061  11.598  0.0464  0.0807  0.0658
51777DOD     C399152   5.809  15.439  11.463  0.0906 -0.3554  0.3718
51778DOD     C199153   7.379  15.088  19.520  0.1817  0.0084  0.1699
51778DOD     C299154   7.787  15.010  19.455  0.1709  0.3060  0.1380
51778DOD     C399155   8.118  15.332  19.444  0.3146 -0.2305 -0.2683
51779DOD     C199156  19.899  11.896  21.949 -0.2210 -0.0394  0.0083
51779DOD     C299157  20.316  11.739  21.896  0.0037  0.3205  0.3528
51779DOD     C399158  20.585  11.468  21.586  0.2965  0.1643 -0.4877
51780DOD     C199159  27.101   9.095  29.977 -0.0881  0.1642 -0.2099
51780DOD     C299160  27.036   9.581  30.005 -0.1507 -0.0453 -0.0280
51780DOD     C399161  27.114  10.006  29.994  0.0215  0.4014 -0.1002
51781DOD     C199162  16.102  14.515   1.484  0.5976  0.0843  0.1941
51781DOD     C299163  15.937  14.305   1.055  0.1615  0.5496 -0.1011
51781DOD     C399164  15.842  14.501   0.641 -0.2702 -0.1156  0.0879
51782DOD     C199165  19.782  24.082  23.160 -0.2564 -0.3104  0.1363
51782DOD     C299166  19.623  24.367  23.468  0.2133 -0.0081 -0.3606
51782DOD     C399167  19.561  24.831  23.501  0.1307 -0.3989 -0.1645
51783DOD     C199168  21.912  10.605  20.436  0.0013  0.4246 -0.3471
51783DOD     C299169  22.005  10.436  20.836  0.0601 -0.1484 -0.3206
51783DOD     C399170  21.888  10.038  21.033  0.0492  0.3201 -0.0703
51784DOD     C199171  23.537   3.752  10.708  0.0107 -0.1096  0.1678
51784DOD     C299172  23.834   3.938  10.409  0.1362  0.2529  0.2800
51784DOD     C399173  24.252   4.138  10.334 -0.1030  0.1775  0.0932
51785DOD     C199174  25.312  14.543  18.391  0.1429 -0.2625  0.0615
51785DOD     C299175  24.933  14.208  18.436 -0.2013 -0.2115  0.0481
51785DOD     C399176  24.685  13.854  18.279 -0.0496  0.0163  0.1146
51786DOD     C199177   5.791  26.630  13.307 -0.0591 -0.1014 -0.0899
51786DOD     C299178   5.889  26.199  13.169  0.4104  0.1471 -0.0001
51786DOD     C399179   5.916  25.980  12.719 -0.2069 -0.1766  0.1105
51787DOD     C199180  28.467  16.231  29.244 -0.3354 -0.1314  0.0117
51787DOD     C299181  28.065  16.448  29.139  0.2172 -0.1595 -0.1065
51787DOD     C399182  27.663  16.340  29.244 -0.0052 -0.1630  0.0562
51788DOD     C199183   8.454   4.845  29.863  0.4694 -0.1317 -0.2314
51788DOD     C299184   8.009   4.921  30.085  0.0974 -0.2424  0.2652
51788DOD     C399185   7.627   5.107  30.313 -0.0363 -0.0846  0.0943
51789DOD     C199186  29.636  20.452  18.361 -0.0947 -0.0311 -0.0723
51789DOD     C299187  29.422  20.229  18.045  0.5265  0.1828  0.1780
51789DOD     C399188  29.177  19.865  18.024 -0.2142 -0.0161 -0.1259
51790DOD     C199189   5.978  16.072   3.753  0.0410 -0.1779 -0.0002
51790DOD     C299190   5.586  16.329   3.599 -0.0361  0.3581 -0.0818
51790DOD     C399191   5.409  16.434   3.114  0.1473 -0.2189  0.3180
51791DOD     C199192  13.107   5.317   7.849 -0.0108  0.3631  0.2128
51791DOD     C299193  12.607   5.295   7.839  0.2746  0.0632  0.1998
51791DOD     C399194  12.184   5.492   7.871 -0.0070  0.2461  0.1648
51792DOD     C199195  27.646   2.499   8.750  0.0291 -0.0235 -0.3353
51792DOD     C299196  27.735   2.887   8.971 -0.0799  0.1342  0.2337
51792DOD     C399197  27.607   3.302   9.170 -0.1444  0.2774  0.0514
51793DOD     C199198  18.800   5.214   5.308  0.4356  0.1172  0.0411
51793DOD     C299199  18.310   5.197   5.386  0.1652  0.1866 -0.0154
51793DOD     C399200  18.004   5.434   5.634 -0.0295  0.4739  0.1562
51794DOD     C199201  13.318  30.226  23.644  0.0857 -0.4579 -0.1357
51794DOD     C299202  12.849   0.073  23.746 -0.0108  0.0215 -0.2513
51794DOD     C399203  12.395   0.190  23.587  0.1707 -0.1917  0.2238
51795DOD     C199204  17.587  28.872  26.173 -0.1117  0.1307  0.0101
51795DOD     C299205  17.262  29.222  26.162  0.0830  0.1094 -0.1507
51795DOD     C399206  17.388  29.657  26.218  0.1431  0.0981 -0.1020
51796DOD     C199207  10.777  15.697  26.111  0.2513  0.0889 -0.0209
51796DOD     C299208  10.751  16.140  26.094  0.0743 -0.4521 -0.0204
51796DOD     C399209  10.498  16.364  25.815  0.2426  0.0671 -0.0321
51797DOD     C199210   8.752   6.546  12.510  0.1298 -0.2053 -0.0194
51797DOD     C299211   8.467   6.213  12.294 -0.2698 -0.2571  0.1134
51797DOD     C399212   8.349   5.717  12.247  0.2168  0.1394 -0.2490
51798DOD     C199213   7.390   0.064  23.614 -0.1685 -0.3506  0.1966
51798DOD     C299214   7.296   0.160  23.176  0.1343  0.2464 -0.1335
51798DOD     C399215   7.158   0.275  22.728 -0.0734  0.1352  0.1706
51799DOD     C199216   1.545  19.943  26.317 -0.0300  0.0503  0.0660
51799DOD     C299217   1.115  19.999  26.118  0.0502 -0.2237  0.1744
51799DOD     C399218   0.933  20.399  25.954  0.0433  0.2838  0.0010
51800DOD     C199219  16.131   6.848  28.102  0.0277  0.0207  0.2052
51800DOD     C299220  15.687   6.793  28.214 -0.1806 -0.0481 -0.2080
51800DOD     C399221  15.323   6.613  28.021  0.2164 -0.2903 -0.0661
51801DOD     C199222  26.848  25.336  19.503 -0.3108  0.3455  0.0756
51801DOD     C299223  26.634  25.256  19.931  0.0828  0.2017  0.1067
51801DOD     C399224  26.201  25.355  20.019 -0.1306  0.0068  0.0761
51802DOD     C199225  25.715  11.982   8.532  0.0966  0.2537  0.0913
51802DOD     C299226  26.171  11.920   8.675  0.2697 -0.4330  0.1397
51802DOD     C399227  26.588  11.817   8.692 -0.0150  0.1754  0.1748
51803DOD     C199228   2.862   0.445  15.357  0.1169  0.0178 -0.5815
51803DOD     C299229   2.891   0.762  15.011  0.2096  0.0884  0.0773
51803DOD     C399230   2.536   0.882  14.738  0.0925 -0.0552  0.1231
51804DOD     C199231  24.301  19.338   9.747  0.1072  0.1196  0.0817
51804DOD     C299232  23.881  19.165   9.801 -0.1362  0.1183  0.3935
51804DOD     C399233  23.516  18.912   9.891  0.0087  0.5004  0.3340
51805DOD     C199234  18.511  16.409  20.729 -0.3115 -0.2348 -0.1742
51805DOD     C299235  18.911  16.567  20.611 -0.0462 -0.0968  0.1984
51805DOD     C399236  19.365  16.781  20.604 -0.1147 -0.0367  0.3736
51806DOD     C199237  26.005  19.501  10.477  0.2712  0.1909 -0.2096
51806DOD     C299238  26.187  19.699  10.886  0.0175 -0.1805 -0.2729
51806DOD     C399239  26.171  19.711  11.367  0.2858  0.0756 -0.0729
51807DOD     C199240   0.258   8.778  13.183 -0.0918 -0.1570  0.0413
51807DOD     C299241   0.445   8.332  13.073 -0.1689  0.1588 -0.1214
51807DOD     C399242   0.526   7.887  12.976 -0.2529 -0.1659 -0.0836
51808DOD     C199243   0.125  26.470  16.696 -0.0184 -0.1155  0.1854
51808DOD     C299244  30.086  26.567  16.878  0.1126 -0.2532  0.0711
51808DOD     C399245  29.792  26.468  17.244 -0.1348 -0.2747  0.1056
51809DOD     C199246   0.429   4.775  19.742 -0.2270 -0.2970 -0.0707
51809DOD     C299247   0.437   5.072  19.364 -0.0378 -0.0990  0.0548
51809DOD     C399248   0.180   5.468  19.273  0.1625 -0.0665  0.1189
51810DOD     C199249  16.715  12.017   4.088 -0.0429  0.0408 -0.0934
51810DOD     C299250  16.614  11.691   3.799 -0.0517  0.3079 -0.1280
51810DOD     C399251  16.535  11.227   3.781 -0.0948  0.1775  0.1094
51811DOD     C199252  19.419   4.551   5.136 -0.1708  0.0270  0.2716
51811DOD     C299253  19.792   4.335   5.325 -0.4233 -0.0067 -0.1736
51811DOD     C399254  20.064   4.044   5.055 -0.1785  0.0314 -0.0442
51812DOD     C199255  10.532  29.825  11.676  0.0174  0.0889  0.0276
51812DOD     C299256  10.887  29.532  11.812 -0.0019  0.0140 -0.0561
51812DOD     C399257  11.003  29.108  11.572  0.0288 -0.1737 -0.1694
51813DOD     C199258   1.171  13.317  20.470 -0.2338 -0.1121  0.5204
51813DOD     C299259   1.433  13.392  20.849  0.1038 -0.0260 -0.3165
51813DOD     C399260   1.663  13.151  21.155 -0.0112 -0.2850 -0.1314
51814DOD     C199261  13.331  20.497  14.922 -0.4162  0.0710 -0.3342
51814DOD     C299262  12.963  20.619  15.218 -0.2860  0.1940 -0.1819
51814DOD     C399263  12.703  20.423  15.544 -0.0941  0.0489 -0.1519
51815DOD     C199264   8.087   8.725  23.904 -0.2886 -0.0215 -0.0689
51815DOD     C299265   8.181   8.754  23.446  0.1647  0.2450  0.0257
51815DOD     C399266   8.210   8.453  23.080  0.0501 -0.0917  0.0565
51816DOD     C199267   6.864  24.139  16.094  0.0609 -0.0061  0.0799
51816DOD     C299268   6.779  23.685  15.934  0.0763 -0.0289  0.0472
51816DOD     C399269   6.976  23.303  15.695  0.0729  0.3659  0.2717
51817DOD     C199270   2.891  17.532   3.431  0.3374 -0.0642  0.0574
51817DOD     C299271   3.083  17.674   3.850 -0.1471 -0.0962  0.2188
51817DOD     C399272   3.212  18.141   3.994  0.1041  0.2252  0.1076
51818DOD     C199273   1.368  17.723  16.471 -0.1284  0.2157 -0.1619
51818DOD     C299274   1.004  17.667  16.164 -0.1481  0.3726 -0.0910
51818DOD     C399275   0.620  17.859  16.161  0.2362 -0.1685 -0.0880
51819DOD     C199276  13.598  27.279  29.251 -0.0043  0.0237  0.0955
51819DOD     C299277  13.133  27.272  29.450 -0.0696 -0.1292  0.2299
51819DOD     C399278  12.828  27.082  29.738  0.1073 -0.2080  0.1014
51820DOD     C199279   0.989  26.766  14.640 -0.1657 -0.0100 -0.2687
51820DOD     C299280   1.268  26.926  15.001  0.1233 -0.0287  0.1756
51820DOD     C399281   1.668  26.645  15.082  0.0512 -0.1789 -0.1503
51821DOD     C199282  27.509  14.854  21.882  0.0381  0.1911  0.0680
51821DOD     C299283  27.712  14.642  22.249  0.0489  0.0440 -0.1595
51821DOD     C399284  27.981  14.363  22.432  0.0831 -0.2463 -0.1286
51822DOD     C199285  21.798  17.203   3.661  0.0138  0.0366  0.1033
51822DOD     C299286  21.589  17.380   4.125  0.0219  0.1688  0.1140
51822DOD     C399287  21.568  17.701   4.414  0.1219 -0.0790  0.0318
51823DOD     C199288  29.972   6.193  19.967 -0.0259 -0.3410 -0.1859
51823DOD     C299289  30.251   5.840  20.148  0.1331  0.0373 -0.0125
51823DOD     C399290   0.337   5.686  20.330 -0.3676  0.0106 -0.1406
51824DOD     C199291  14.739  18.950  21.403 -0.0417 -0.2061  0.0019
51824DOD     C299292  15.021  18.937  21.022 -0.0966  0.1817 -0.3154
51824DOD     C399293  15.136  18.926  20.570 -0.2147 -0.0678  0.3765
51825DOD     C199294   1.250  11.521  17.656  0.1027 -0.0233  0.0135
51825DOD     C299295   1.213  11.220  18.008  0.0551 -0.1441  0.1451
51825DOD     C399296   0.913  10.867  18.229  0.1494  0.1636 -0.0319
51826DOD     C199297  12.258  17.035  24.442 -0.0973  0.0829  0.1232
51826DOD     C299298  12.393  17.335  24.135  0.1714  0.0839 -0.3897
51826DOD     C399299  12.457  17.473  23.681  0.0342 -0.3382 -0.0168
51827DOD     C199300   5.592  14.318  30.172 -0.1385 -0.0425 -0.0397
51827DOD     C299301   5.724  14.326  29.744 -0.3712  0.1777 -0.0931
51827DOD     C399302   5.778  14.684  29.409 -0.1624 -0.0630  0.1162
51828DOD     C199303  27.287   9.844  11.206 -0.2034 -0.1372 -0.0383
51828DOD     C299304  27.397  10.348  11.215  0.1726 -0.2545 -0.1701
51828DOD     C399305  27.493  10.828  11.176 -0.1550  0.3458 -0.0678
51829DOD     C199306  19.171  15.658  11.004  0.3379  0.1332 -0.1099
51829DOD     C299307  19.559  15.780  10.768  0.0686 -0.1949 -0.0698
51829DOD     C399308  19.946  15.760  10.556 -0.0624  0.0852  0.1333
51830DOD     C199309  15.994   9.239   8.093 -0.1153  0.1200 -0.0057
51830DOD     C299310  15.892   9.174   8.532 -0.0833  0.1704  0.1807
51830DOD     C399311  15.715   9.440   8.932  0.2235 -0.1236  0.1441
51831DOD     C199312  28.713   5.070   0.352  0.1912  0.0970 -0.0811
51831DOD     C299313  28.951   4.729   0.289 -0.1822 -0.1016 -0.1006
51831DOD     C399314  29.413   4.678   0.410 -0.2341  0.2114 -0.0980
51832DOD     C199315  18.954   0.967   5.844  0.1947  0.1878 -0.1419
51832DOD     C299316  19.105   1.165   6.250 -0.2240  0.0319  0.0657
51832DOD     C399317  19.264   1.346   6.611 -0.4288  0.1054 -0.0454
51833DOD     C199318   3.643  28.172  19.038  0.0469 -0.0907 -0.1193
51833DOD     C299319   3.342  28.402  19.340 -0.0396  0.3497 -0.0708
51833DOD     C399320   3.121  28.790  19.532 -0.0724  0.1852  0.2412
51834DOD     C199321   8.248   9.828   7.922  0.1120  0.1957 -0.1304
51834DOD     C299322   8.585   9.980   7.631  0.1609 -0.2450 -0.3014
51834DOD     C399323   8.721  10.180   7.220  0.0968 -0.1314  0.0388
51835DOD     C199324   4.299   2.974   7.701 -0.1881 -0.0847 -0.2634
51835DOD     C299325   3.961   2.640   7.823 -0.3180  0.1192  0.0006
51835DOD     C399326   3.659   2.460   7.601  0.1033  0.2008 -0.1649
51836DOD     C199327  28.458  15.924  17.240  0.3543 -0.2777  0.1642
51836DOD     C299328  27.994  15.938  17.156  0.3775 -0.1065  0.0427
51836DOD     C399329  27.713  15.711  16.868  0.0964 -0.1156  0.0801
51837DOD     C199330  15.825   4.385  17.437  0.0891 -0.0370 -0.2440
51837DOD     C299331  16.011   3.992  17.586  0.0963  0.2356 -0.0698
51837DOD     C399332  16.118   3.551  17.594  0.1493  0.0297 -0.0926
51838DOD     C199333  10.231  16.850  21.266  0.1762 -0.4995 -0.0564
51838DOD     C299334  10.036  17.132  21.504 -0.0650 -0.1101 -0.1361
51838DOD     C399335   9.792  17.450  21.771  0.1198  0.1702 -0.5923
51839DOD     C199336   0.682  21.646  15.136 -0.2821  0.0696 -0.0618
51839DOD     C299337   1.110  21.615  14.890  0.1229 -0.0430  0.0366
51839DOD     C399338   1.440  21.783  14.617 -0.0601  0.0036 -0.0219
51840DOD     C199339  26.079   9.491  -0.018 -0.3006  0.1478 -0.3996
51840DOD     C299340  26.520   9.511   0.043 -0.2141  0.2524 -0.1368
51840DOD     C399341  26.918   9.280   0.076  0.0351  0.1492 -0.1152
51841DOD     C199342  13.883   4.445  20.164 -0.0935  0.0235 -0.0360
51841DOD     C299343  13.827   4.562  20.584 -0.1765  0.1235  0.0076
51841DOD     C399344  13.700   4.614  21.017  0.2054  0.1012  0.4083
51842DOD     C199345  21.634  13.926  30.175  0.1602 -0.2405  0.2307
51842DOD     C299346  21.445  13.667  29.885  0.0733  0.1804  0.1313
51842DOD     C399347  21.446  13.139  29.833  0.0205  0.2491  0.0297
51843DOD     C199348   9.290  28.086  23.362  0.1143  0.0852  0.0375
51843DOD     C299349   9.465  27.796  23.025  0.2469  0.0131 -0.0588
51843DOD     C399350   9.407  27.402  22.847  0.0214  0.3877  0.1057
51844DOD     C199351   2.506  10.732  12.814  0.5617  0.0637  0.1358
51844DOD     C299352   2.752  10.988  13.166 -0.0868 -0.2182 -0.0175
51844DOD     C399353   2.968  11.365  13.164  0.3120 -0.0585 -0.1272
51845DOD     C199354  23.449  24.788  14.182 -0.0973 -0.3013 -0.0449
51845DOD     C299355  23.434  24.595  14.573  0.0969  0.2667 -0.4698
51845DOD     C399356  23.470  24.380  15.022  0.1600  0.2764 -0.3579
51846DOD     C199357   4.228  14.319  21.941  0.1904 -0.0884  0.1064
51846DOD     C299358   3.849  14.346  22.153  0.1141  0.0597  0.0385
51846DOD     C399359   3.594  14.237  22.531  0.0761 -0.3179 -0.2502
51847DOD     C199360  23.460   9.955  18.870  0.0246  0.1520  0.3029
51847DOD     C299361  23.716   9.782  19.209  0.0089  0.0928 -0.3609
51847DOD     C399362  24.139   9.599  19.359  0.0846 -0.2880  0.0091
51848DOD     C199363  15.193   1.850   1.191 -0.0386 -0.2899 -0.0056
51848DOD     C299364  15.656   1.659   1.164 -0.1745 -0.1094  0.2333
51848DOD     C399365  15.850   1.380   0.840 -0.1233  0.2489  0.0933
51849DOD     C199366  11.096  18.316  29.532 -0.1256  0.2419  0.0963
51849DOD     C299367  11.290  18.666  29.381  0.0061 -0.4451  0.1223
51849DOD     C399368  11.133  19.086  29.168  0.3121  0.0857  0.0045
51850DOD     C199369  20.027  29.181  14.961 -0.2204 -0.1869 -0.0922
51850DOD     C299370  19.859  29.503  14.683  0.0167 -0.1279  0.1039
51850DOD     C399371  20.107  29.908  14.417 -0.0828 -0.1720  0.1672
51851DOD     C199372   1.309  19.878  13.853  0.0685  0.1368  0.0737
51851DOD     C299373   1.196  19.820  13.390 -0.0191 -0.3609  0.2936
51851DOD     C399374   1.380  19.649  12.993  0.0552 -0.0561  0.0369
51852DOD     C199375  24.654   3.627  10.822 -0.1621 -0.0338 -0.3293
51852DOD     C299376  24.411   3.646  10.430 -0.0850  0.1270 -0.0405
51852DOD     C399377  24.295   3.643   9.998  0.0557 -0.1260 -0.2028
51853DOD     C199378   3.153   6.920   2.011  0.1749 -0.1423 -0.3736
51853DOD     C299379   2.676   6.918   2.135  0.2572  0.1374 -0.3351
51853DOD     C399380   2.271   6.934   2.181 -0.0684 -0.1634 -0.3081
51854DOD     C199381   9.808   0.611  16.793 -0.1862 -0.1583  0.1738
51854DOD     C299382   9.391   0.753  17.033  0.3019 -0.1089  0.3313
51854DOD     C399383   9.110   0.785  17.374  0.0938  0.1491 -0.0274
51855DOD     C199384   1.908  28.370   4.557  0.2140 -0.2254 -0.1769
51855DOD     C299385   1.586  28.699   4.607 -0.0543  0.4002  0.2298
51855DOD     C399386   1.203  28.991   4.555  0.1830 -0.0998  0.0881
51856DOD     C199387  13.750  19.841  27.974  0.1223  0.2531  0.0920
51856DOD     C299388  13.703  20.189  28.244  0.1243 -0.1441  0.2677
51856DOD     C399389  13.300  20.420  28.376 -0.2268 -0.1095  0.0393
51857DOD     C199390  23.745   2.259  30.002 -0.0944  0.0625  0.4180
51857DOD     C299391  23.572   2.403  29.595 -0.1093  0.0590  0.1392
51857DOD     C399392  23.301   2.550  29.223  0.1685 -0.2159  0.0255
51858DOD     C199393  28.707   6.925   2.122 -0.1287  0.3099 -0.1971
51858DOD     C299394  28.529   6.866   2.563  0.3473  0.2932  0.1653
51858DOD     C399395  28.471   6.744   3.018  0.0416  0.0104  0.3503
51859DOD     C199396  12.952  15.216  10.224 -0.0021  0.0050  0.3754
51859DOD     C299397  13.425  15.279  10.255 -0.0291 -0.1165  0.0130
51859DOD     C399398  13.879  15.215  10.231 -0.1367  0.2280 -0.1748
51860DOD     C199399  16.943   9.943  22.931 -0.1214 -0.1506  0.1990
51860DOD     C299400  17.171  10.339  23.056 -0.1846 -0.0541  0.1655
51860DOD     C399401  17.120  10.641  23.441  0.1367  0.2180 -0.0437
51861DOD     C199402  14.015  14.937   2.069 -0.0472  0.0460  0.2308
51861DOD     C299403  14.299  14.995   1.744 -0.3699  0.0201  0.3318
51861DOD     C399404  14.516  14.879   1.268  0.3262  0.3574  0.3238
51862DOD     C199405   3.913  10.233   8.310 -0.2618  0.2526  0.1578
51862DOD     C299406   4.249  10.444   8.106 -0.4112 -0.4895  0.1471
51862DOD     C399407   4.431  10.609   7.672 -0.0475 -0.0667 -0.1259
51863DOD     C199408  28.236  20.792  17.427 -0.2660 -0.1379 -0.2194
51863DOD     C299409  28.005  20.420  17.228 -0.2717 -0.0484  0.2457
51863DOD     C399410  27.640  20.146  17.335 -0.1207  0.0129 -0.4740
51864DOD     C199411  24.551  30.294  24.663 -0.3178 -0.1879  0.1939
51864DOD     C299412  24.765   0.307  24.355  0.1671 -0.1598 -0.2851
51864DOD     C399413  24.832   0.808  24.465  0.0522  0.1858  0.3628
51865DOD     C199414  25.261  26.429  21.760 -0.2366  0.1184  0.0664
51865DOD     C299415  25.092  26.726  21.395  0.0120 -0.1353 -0.0070
51865DOD     C399416  25.008  26.890  20.938 -0.1419  0.0462  0.0229
51866DOD     C199417  16.073  20.405   5.051  0.1140  0.1491 -0.1365
51866DOD     C299418  15.884  20.157   5.369 -0.0024 -0.0360  0.1053
51866DOD     C399419  15.755  20.326   5.732 -0.0350 -0.0653  0.0673
51867DOD     C199420  10.108   9.692  10.333  0.0635  0.2110  0.1201
51867DOD     C299421  10.227   9.916  10.710  0.0608  0.1137  0.3131
51867DOD     C399422   9.884  10.207  10.857 -0.0978  0.0463 -0.0851
51868DOD     C199423  21.082   8.609  13.953  0.0506  0.0889  0.0192
51868DOD     C299424  20.975   8.208  14.163  0.3145  0.2506  0.2911
51868DOD     C399425  20.852   7.810  14.379  0.1362 -0.1089 -0.3125
51869DOD     C199426  29.775  29.205  16.185 -0.1552 -0.0874 -0.1113
51869DOD     C299427  30.156  29.462  16.260  0.0170  0.2401 -0.0726
51869DOD     C399428   0.032  29.818  16.126  0.0181 -0.3433 -0.1392
51870DOD     C199429  19.196   0.331  18.825 -0.4438 -0.1737 -0.0362
51870DOD     C299430  18.935   0.630  18.580 -0.1428  0.3232  0.0659
51870DOD     C399431  19.134   0.993  18.432  0.3662  0.1435  0.0324
51871DOD     C199432   0.263  18.482   7.466  0.3514 -0.0612 -0.0733
51871DOD     C299433   0.088  18.312   7.889 -0.0028  0.5274 -0.2209
51871DOD     C399434   0.284  18.464   8.235 -0.3616 -0.2888 -0.0058
51872DOD     C199435   3.467   8.308  13.220  0.0012 -0.1541 -0.2803
51872DOD     C299436   3.245   7.875  13.351  0.4496  0.1000 -0.0437
51872DOD     C399437   3.186   7.447  13.573 -0.0426  0.1541 -0.0348
51873DOD     C199438   6.371  11.173   0.469  0.1661  0.1166 -0.1856
51873DOD     C299439   5.937  11.005   0.352 -0.0964 -0.0010  0.0717
51873DOD     C399440   5.511  11.232   0.330  0.0412  0.2721 -0.0154
51874DOD     C199441  16.000  23.627  15.434  0.0476 -0.0387  0.1247
51874DOD     C299442  15.621  23.902  15.549 -0.0814 -0.0275 -0.0128
51874DOD     C399443  15.129  23.984  15.529 -0.0352  0.1642 -0.0373
51875DOD     C199444  14.789  13.569  11.550 -0.1496 -0.0275  0.1428
51875DOD     C299445  14.463  13.370  11.830  0.0699 -0.1976 -0.1515
51875DOD     C399446  14.344  13.382  12.312  0.2693 -0.0375  0.1320
51876DOD     C199447   9.712  10.647  23.495 -0.0042 -0.0084  0.0249
51876DOD     C299448   9.920  10.448  23.129 -0.3214 -0.0958 -0.1063
51876DOD     C399449   9.992  10.562  22.667  0.0763  0.0468  0.1600
51877DOD     C199450  13.898  17.944  21.643 -0.4616 -0.1831 -0.0776
51877DOD     C299451  13.605  17.791  21.336 -0.0983  0.1134  0.3180
51877DOD     C399452  13.444  17.522  21.020  0.0758  0.1441  0.2666
51878DOD     C199453  12.449  18.082  20.813 -0.2468 -0.0078  0.0992
51878DOD     C299454  11.985  18.092  20.992 -0.0847  0.1904  0.2480
51878DOD     C399455  11.615  18.319  21.194  0.0238  0.0163 -0.0654
51879DOD     C199456  19.283   3.659   5.054 -0.1681  0.1269 -0.0612
51879DOD     C299457  19.718   3.697   5.258  0.0276  0.1580 -0.0816
51879DOD     C399458  20.066   3.862   5.518 -0.1835 -0.2891 -0.1655
51880DOD     C199459   0.934  18.929  22.000  0.0429  0.0878 -0.0152
51880DOD     C299460   1.366  18.794  22.118  0.0287  0.2007 -0.0781
51880DOD     C399461   1.780  18.770  22.307 -0.0436  0.1678  0.1489
51881DOD     C199462  12.132   1.884  11.704  0.3064  0.1484  0.0947
51881DOD     C299463  12.302   2.212  12.018 -0.1683  0.1795  0.0592
51881DOD     C399464  12.243   2.405  12.493 -0.0944 -0.2354  0.2510
51882DOD     C199465  22.174  11.035  19.515  0.2841 -0.0074 -0.0780
51882DOD     C299466  21.845  10.904  19.877 -0.0070 -0.1732 -0.1280
51882DOD     C399467  21.455  11.024  19.923 -0.2001 -0.1243  0.0823
51883DOD     C199468  26.008  20.647   4.104  0.1033 -0.0462 -0.0680
51883DOD     C299469  26.329  20.332   4.215  0.2746 -0.0311  0.0092
51883DOD     C399470  26.515  19.993   4.109  0.0710 -0.2474  0.0978
51884DOD     C199471  12.913  13.865  26.092 -0.0408  0.1775  0.1826
51884DOD     C299472  12.688  13.578  26.286  0.2114  0.1046 -0.2373
51884DOD     C399473  12.387  13.691  26.564 -0.2147 -0.0421 -0.1036
51885DOD     C199474   0.016   4.220  16.636 -0.3413  0.3501 -0.0681
51885DOD     C299475   0.089   4.688  16.540  0.2807  0.2439 -0.4010
51885DOD     C399476   0.146   5.158  16.622 -0.0844 -0.5949  0.1404
51886DOD     C199477   2.459   0.234  16.282  0.1045  0.1822 -0.1688
51886DOD     C299478   2.644   0.005  15.897 -0.1159 -0.0248  0.3341
51886DOD     C399479   2.694  30.199  15.420 -0.1363 -0.2873 -0.2905
51887DOD     C199480   9.014   5.851   0.961  0.0403  0.1005 -0.1052
51887DOD     C299481   8.588   5.818   0.816  0.1972  0.2020  0.1531
51887DOD     C399482   8.170   5.758   0.675 -0.1162  0.0423  0.2637
51888DOD     C199483  24.510  15.611   3.086  0.2665 -0.3027 -0.0801
51888DOD     C299484  24.992  15.564   2.972 -0.0613 -0.0579 -0.0289
51888DOD     C399485  25.315  15.372   3.230 -0.2319  0.2121  0.3364
51889DOD     C199486   8.936  19.577  20.023  0.2253  0.3219 -0.1169
51889DOD     C299487   9.243  19.296  20.185  0.2398  0.3829  0.2216
51889DOD     C399488   9.559  19.072  20.326 -0.1580  0.0789 -0.0244
51890DOD     C199489  28.502  11.782  12.075 -0.2345  0.2691  0.1368
51890DOD     C299490  28.545  12.219  12.357 -0.0800  0.4525  0.0462
51890DOD     C399491  28.666  12.599  12.527  0.0161  0.1391  0.0885
51891DOD     C199492  24.065  11.426  22.537 -0.3520 -0.1405 -0.1128
51891DOD     C299493  23.847  11.340  22.962  0.1634 -0.1066 -0.1089
51891DOD     C399494  24.010  11.414  23.399 -0.3328 -0.1908 -0.2067
51892DOD     C199495  16.661   2.379  13.947  0.1846  0.1106  0.1961
51892DOD     C299496  16.861   2.800  14.018  0.2649 -0.0794 -0.1968
51892DOD     C399497  17.012   3.117  13.770  0.3472 -0.0510 -0.0252
51893DOD     C199498  25.321  17.866  16.189  0.0871  0.1971 -0.0599
51893DOD     C299499  25.593  18.249  16.010  0.2326  0.2226 -0.2287
51893DOD     C399500  25.633  18.535  15.628 -0.1948  0.2117  0.0655
51894DOD     C199501   7.437  19.323  20.782 -0.1109 -0.1592 -0.0283
51894DOD     C299502   7.237  19.011  20.523  0.0954  0.1535  0.2057
51894DOD     C399503   6.855  18.804  20.354  0.0041  0.3583  0.0145
51895DOD     C199504  29.431  11.963   1.058  0.0230  0.4026 -0.0361
51895DOD     C299505  29.199  11.673   1.382  0.1741  0.1368 -0.3004
51895DOD     C399506  28.879  11.399   1.546  0.2628 -0.0512 -0.2513
51896DOD     C199507  29.989  14.404  25.039  0.3329 -0.2321 -0.1092
51896DOD     C299508  30.041  14.722  24.690 -0.1174  0.5761 -0.1329
51896DOD     C399509  30.276  14.933  24.280  0.1583 -0.0784 -0.1343
51897DOD     C199510  29.785  23.074   2.427 -0.1243 -0.1510  0.3808
51897DOD     C299511  29.812  23.443   2.196 -0.2138 -0.1480 -0.1921
51897DOD     C399512  30.013  23.868   2.340  0.0749 -0.1407  0.2484
51898DOD     C199513  22.361  17.399   3.751 -0.0101 -0.1269 -0.0723
51898DOD     C299514  22.771  17.150   3.910  0.3790 -0.0647 -0.2525
51898DOD     C399515  22.983  17.120   4.389 -0.3141  0.1263  0.3285
51899DOD     C199516  17.074   8.781  20.059  0.2934  0.2498 -0.0667
51899DOD     C299517  16.857   8.451  19.799 -0.2105  0.1250 -0.0352
51899DOD     C399518  16.508   8.343  19.511  0.0407 -0.0520  0.2006
51900DOD     C199519  26.122  11.269  18.653  0.0223 -0.1111 -0.1651
51900DOD     C299520  25.761  10.937  18.724  0.0162  0.0961  0.0816
51900DOD     C399521  25.404  10.692  18.993  0.1493 -0.2602  0.2726
51901DOD     C199522  20.490   9.336  23.141  0.0119  0.1376 -0.0925
51901DOD     C299523  20.848   9.062  23.242 -0.3549 -0.0928 -0.1543
51901DOD     C399524  21.312   9.150  23.314 -0.1474  0.0924  0.2013
51902DOD     C199525  23.380  19.808  15.024  0.1044 -0.0006 -0.0955
51902DOD     C299526  23.640  19.720  14.611  0.1825 -0.1133 -0.1536
51902DOD     C399527  23.774  19.696  14.150 -0.3670 -0.3231  0.1686
51903DOD     C199528   5.408  24.590  24.321  0.1745  0.1358  0.0658
51903DOD     C299529   5.290  24.324  23.973 -0.1703  0.4379 -0.0393
51903DOD     C399530   5.169  23.892  23.929 -0.0000  0.0698 -0.0202
51904DOD     C199531  29.586   5.465  24.043 -0.2576 -0.1372  0.1212
51904DOD     C299532  29.909   5.178  23.859  0.0675 -0.0911 -0.3456
51904DOD     C399533  30.225   5.155  23.468 -0.1636  0.2895 -0.0923
51905DOD     C199534  11.889  18.609  22.437  0.2670  0.3317  0.1619
51905DOD     C299535  11.873  18.229  22.149 -0.0912  0.1182 -0.1845
51905DOD     C399536  11.919  17.965  21.764  0.1215  0.1492  0.0796
51906DOD     C199537  14.714   2.029   2.483  0.0481  0.0304 -0.2127
51906DOD     C299538  14.905   1.624   2.518  0.1790  0.2428  0.1437
51906DOD     C399539  15.113   1.238   2.619 -0.2792 -0.0474 -0.1756
51907DOD     C199540  20.676  22.533  28.527 -0.1647  0.1358 -0.1119
51907DOD     C299541  20.678  22.641  28.995  0.0238  0.1103 -0.1199
51907DOD     C399542  20.951  22.744  29.413  0.0169 -0.0646 -0.1454
51908DOD     C199543   6.506   0.666  27.757 -0.0007  0.1695 -0.0147
51908DOD     C299544   6.565   0.459  27.324 -0.0869  0.2805 -0.1055
51908DOD     C399545   6.464  -0.027  27.221 -0.1586 -0.0991  0.1494
51909DOD     C199546  16.167  17.790   7.111  0.1316 -0.4260 -0.3795
51909DOD     C299547  15.923  17.405   7.030 -0.0834 -0.0482 -0.0630
51909DOD     C399548  15.938  16.873   6.935 -0.2084  0.0141 -0.2253
51910DOD     C199549   7.623   7.471  26.285 -0.2249  0.0597 -0.0170
51910DOD     C299550   8.017   7.190  26.341 -0.2971  0.2043 -0.0205
51910DOD     C399551   8.374   7.070  26.062  0.2354  0.1870 -0.0423
51911DOD     C199552  22.453  14.694   4.332 -0.1462  0.1531 -0.2498
51911DOD     C299553  22.075  14.580   4.582  0.0814 -0.0405  0.0289
51911DOD     C399554  21.925  14.167   4.736  0.2234  0.1911 -0.3333
51912DOD     C199555   5.350   7.757  15.833 -0.0487 -0.1755  0.3466
51912DOD     C299556   5.758   7.616  15.802 -0.0749 -0.0028 -0.0735
51912DOD     C399557   6.235   7.614  15.711 -0.1050 -0.0863 -0.1316
51913DOD     C199558  22.090  15.023   3.757  0.1342  0.0623  0.0010
51913DOD     C299559  22.248  15.160   4.236 -0.0749 -0.0765 -0.0321
51913DOD     C399560  22.473  15.105   4.632 -0.3884  0.1627  0.2161
51914DOD     C199561  29.367  29.883  16.110  0.0527  0.0289  0.0320
51914DOD     C299562  29.552  29.541  15.846  0.0456  0.2057  0.0970
51914DOD     C399563  29.937  29.360  15.685 -0.1711 -0.1890  0.2359
51915DOD     C199564  23.751  16.752  18.248 -0.0834 -0.0930 -0.2036
51915DOD     C299565  24.004  16.493  17.858  0.2569 -0.3961 -0.0869
51915DOD     C399566  24.424  16.391  17.659 -0.4995  0.0223  0.2809
51916DOD     C199567  28.193   8.431  22.139  0.0446 -0.1614 -0.1924
51916DOD     C299568  27.756   8.484  22.003 -0.3539  0.0269 -0.0417
51916DOD     C399569  27.444   8.444  21.660  0.1544 -0.0432  0.0664
51917DOD     C199570  17.283  16.213  13.099  0.1672  0.0476 -0.1109
51917DOD     C299571  17.458  15.837  13.261 -0.0822 -0.0740 -0.0152
51917DOD     C399572  17.695  15.453  13.149  0.2883 -0.0159  0.1272
51918DOD     C199573  24.375   0.194  20.632 -0.0282  0.1688  0.3661
51918DOD     C299574  24.560   0.585  20.687 -0.2439 -0.1731  0.0136
51918DOD     C399575  24.736   0.988  20.790  0.1790  0.0362  0.1110
51919DOD     C199576   0.515  28.452  10.519  0.2338  0.0786 -0.1882
51919DOD     C299577   0.766  28.087  10.643 -0.1772 -0.1396 -0.1274
51919DOD     C399578   1.000  27.663  10.709 -0.0847 -0.1033  0.1215
51920DOD     C199579   6.286  14.772   6.400  0.0898  0.1763  0.1998
51920DOD     C299580   6.037  15.149   6.423 -0.1007 -0.0462  0.2865
51920DOD     C399581   5.543  15.234   6.461  0.0312  0.0833  0.1004
51921DOD     C199582  26.065  30.303  17.309  0.2449  0.1769  0.1345
51921DOD     C299583  25.863  30.024  17.660 -0.1245  0.0137 -0.1867
51921DOD     C399584  25.686  30.108  18.133 -0.1627  0.0304 -0.1006
51922DOD     C199585   6.466  12.726  24.049 -0.1233  0.0849 -0.2370
51922DOD     C299586   6.635  12.748  23.617 -0.0556 -0.0629  0.0663
51922DOD     C399587   7.039  12.557  23.491 -0.4239  0.1408  0.1122
51923DOD     C199588  14.588   7.069  18.984 -0.0686  0.0893 -0.1532
51923DOD     C299589  15.026   7.155  19.127 -0.0406  0.1318 -0.2702
51923DOD     C399590  15.421   7.167  18.840  0.1612 -0.4678  0.0404
51924DOD     C199591   1.240   1.025  22.020  0.0435  0.0192  0.0085
51924DOD     C299592   1.693   1.159  22.042 -0.0357  0.0624  0.1034
51924DOD     C399593   2.131   1.218  22.173  0.3338 -0.3073  0.0397
51925DOD     C199594   6.171   3.312  23.085 -0.0896  0.2516 -0.1048
51925DOD     C299595   6.467   3.353  22.746  0.3837  0.2562  0.0404
51925DOD     C399596   6.900   3.269  22.601 -0.2640  0.0052 -0.1258
51926DOD     C199597  13.891  29.578   6.397 -0.0812 -0.1077 -0.0058
51926DOD     C299598  14.282  29.638   6.743 -0.0194 -0.0417 -0.0504
51926DOD     C399599  14.558  29.759   7.099 -0.1295  0.0920 -0.0686
51927DOD     C199600  30.294   2.695   5.268 -0.0650 -0.0187  0.0470
51927DOD     C299601  30.089   2.957   5.023  0.0426  0.3109 -0.0224
51927DOD     C399602  29.996   3.052   4.573 -0.0261  0.0545 -0.1801
51928DOD     C199603   0.173   6.198  28.649  0.0322  0.0700  0.0464
51928DOD     C299604   0.308   6.382  29.035  0.0226  0.3978  0.0037
51928DOD     C399605   0.676   6.585  29.282 -0.2502  0.1575 -0.0006
51929DOD     C199606   8.935  23.933  20.262  0.1308  0.1354  0.2040
51929DOD     C299607   9.175  23.861  19.867 -0.1812 -0.0430  0.0051
51929DOD     C399608   9.092  23.964  19.395 -0.1344 -0.1257 -0.1299
51930DOD     C199609   3.740  27.672  17.343 -0.0678  0.0647  0.0071
51930DOD     C299610   4.203  27.577  17.383 -0.1054  0.0821 -0.0598
51930DOD     C399611   4.425  27.239  17.578 -0.1553 -0.0607  0.0301
51931DOD     C199612   6.127   2.640  19.195 -0.0361  0.0980 -0.1439
51931DOD     C299613   6.474   2.850  19.399  0.0387 -0.1644 -0.1690
51931DOD     C399614   6.765   2.545  19.251 -0.1727  0.2941  0.1176
51932DOD     C199615   9.224  10.744  27.932  0.0797  0.1630  0.1034
51932DOD     C299616   9.579  10.942  27.766 -0.0768 -0.0414  0.0884
51932DOD     C399617   9.876  11.308  27.757  0.1668  0.1034  0.0354
51933DOD     C199618   3.661  21.389   4.242  0.2436 -0.1696 -0.1055
51933DOD     C299619   3.334  21.610   4.404  0.1125  0.0092 -0.1379
51933DOD     C399620   2.903  21.500   4.427  0.0991 -0.3170 -0.1886
51934DOD     C199621   5.833   4.583  11.995 -0.0952  0.0184 -0.0430
51934DOD     C299622   5.561   4.986  11.861  0.1657 -0.4305  0.1169
51934DOD     C399623   5.266   5.310  11.578  0.1684  0.1010  0.2587
51935DOD     C199624  28.147   5.308   9.123 -0.1504  0.3713 -0.0966
51935DOD     C299625  28.556   5.539   9.109 -0.1859  0.0876  0.0290
51935DOD     C399626  28.980   5.587   9.312  0.0228  0.1699 -0.1253
51936DOD     C199627  22.852  24.809  23.891  0.3493  0.1667  0.0210
51936DOD     C299628  22.967  24.478  24.152  0.0355  0.0833  0.1262
51936DOD     C399629  22.980  24.197  24.483  0.0305 -0.1731  0.3149
51937DOD     C199630  20.709   7.668  10.660 -0.1502 -0.2015  0.0637
51937DOD     C299631  20.548   7.216  10.666  0.2297  0.2770  0.0204
51937DOD     C399632  20.327   6.817  10.828 -0.2526 -0.0902  0.0525
51938DOD     C199633   4.277  22.295  13.642  0.0760  0.2229  0.2177
51938DOD     C299634   4.534  22.460  13.983  0.1072 -0.0141 -0.1469
51938DOD     C399635   4.910  22.658  14.180  0.1767 -0.3136  0.1316
51939DOD     C199636   2.801  21.130  21.374 -0.1019 -0.0159  0.0026
51939DOD     C299637   2.614  20.723  21.174  0.1209  0.0822  0.0124
51939DOD     C399638   2.437  20.272  21.124 -0.1292 -0.0434 -0.0296
51940DOD     C199639  16.923  13.422  14.164 -0.1961  0.1551 -0.0202
51940DOD     C299640  17.302  13.473  13.894 -0.3475  0.2033  0.4699
51940DOD     C399641  17.773  13.335  13.934  0.1054  0.0035  0.1518
51941DOD     C199642  17.944  21.445   3.276  0.3143 -0.1007 -0.0970
51941DOD     C299643  17.554  21.603   2.949  0.0877 -0.2118  0.4821
51941DOD     C399644  17.381  21.768   2.540 -0.3143 -0.4284  0.1853
51942DOD     C199645  16.140  12.634  29.335 -0.1595 -0.1561 -0.0297
51942DOD     C299646  16.599  12.519  29.386  0.0316  0.1663 -0.0637
51942DOD     C399647  17.004  12.280  29.449 -0.0488  0.1133 -0.3154
51943DOD     C199648   9.732  14.194  15.667 -0.2047 -0.5156 -0.2009
51943DOD     C299649   9.366  14.244  15.415  0.2675 -0.2776  0.0494
51943DOD     C399650   9.098  14.270  15.073 -0.0330  0.3806 -0.0870
51944DOD     C199651  14.083  16.895  19.369 -0.0293  0.1160 -0.0747
51944DOD     C299652  14.408  17.128  19.562 -0.1551 -0.0109  0.5248
51944DOD     C399653  14.853  16.992  19.689 -0.0460  0.2595 -0.1117
51945DOD     C199654   6.590   2.960  11.782  0.1094 -0.1606 -0.0905
51945DOD     C299655   6.616   3.209  11.368  0.2698 -0.0372  0.4298
51945DOD     C399656   6.445   3.490  10.992  0.0390  0.0164  0.2599
51946DOD     C199657  17.675  18.565  11.419  0.0099 -0.0504  0.3358
51946DOD     C299658  17.562  18.184  11.145 -0.1832 -0.1303 -0.1696
51946DOD     C399659  17.664  18.079  10.709 -0.0677 -0.1098 -0.0853
51947DOD     C199660  17.898  26.997  12.640 -0.1838  0.2160 -0.3463
51947DOD     C299661  18.192  26.726  12.910 -0.3466  0.1314  0.0584
51947DOD     C399662  18.209  26.572  13.329 -0.2381  0.0637 -0.0983
51948DOD     C199663  14.112  22.478  18.374 -0.1574  0.1723 -0.1422
51948DOD     C299664  13.910  22.111  18.215  0.1241 -0.1005 -0.1309
51948DOD     C399665  13.670  21.931  17.868  0.1457 -0.0845 -0.1556
51949DOD     C199666   5.606  27.775   0.127 -0.2260 -0.4139  0.1621
51949DOD     C299667   5.723  27.962   0.510  0.1496  0.0407  0.1826
51949DOD     C399668   5.554  28.163   0.880 -0.1783 -0.1572  0.1241
51950DOD     C199669   4.659  27.653  12.058 -0.0735  0.0268  0.1393
51950DOD     C299670   5.056  27.809  12.117 -0.3381  0.0248 -0.1126
51950DOD     C399671   5.431  27.857  12.283  0.1780  0.1569 -0.0462
51951DOD     C199672  20.602  30.024  12.318 -0.1786  0.0672 -0.0618
51951DOD     C299673  20.724  29.719  12.595  0.0277 -0.0578  0.3390
51951DOD     C399674  20.804  29.323  12.938  0.4437 -0.0333  0.0361
51952DOD     C199675   4.130  24.557  22.108 -0.0443 -0.1809  0.0598
51952DOD     C299676   4.548  24.314  22.076 -0.1894  0.0580 -0.1418
51952DOD     C399677   5.012  24.308  21.975  0.0812  0.2589 -0.2789
51953DOD     C199678  29.194   7.615  27.995  0.0276 -0.0096  0.2630
51953DOD     C299679  29.479   7.350  27.765  0.1246  0.0647  0.0670
51953DOD     C399680  29.902   7.174  27.819  0.0658  0.1922  0.1806
51954DOD     C199681  19.765  19.912  19.084 -0.0166 -0.4958  0.0987
51954DOD     C299682  20.052  19.699  19.454 -0.0213 -0.2043  0.3091
51954DOD     C399683  20.463  19.437  19.389  0.0403 -0.0702  0.1684
51955DOD     C199684  19.754   9.949  24.743 -0.1168  0.1532  0.4112
51955DOD     C299685  19.933   9.676  24.406 -0.0831  0.0898  0.0171
51955DOD     C399686  20.091   9.527  23.958  0.1052  0.0060 -0.1522
51956DOD     C199687  29.737   5.067  27.872 -0.0841 -0.0183 -0.5940
51956DOD     C299688  30.163   4.888  28.031 -0.0320 -0.0075 -0.1578
51956DOD     C399689   0.291   4.649  27.943  0.0209  0.0821 -0.0609
51957DOD     C199690  17.310  12.232  19.583  0.0748 -0.2744 -0.2800
51957DOD     C299691  17.591  12.204  19.209  0.2129 -0.1401  0.0283
51957DOD     C399692  17.742  11.952  18.837  0.1568 -0.0318 -0.2738
51958DOD     C199693  12.950   5.582   2.781  0.1765 -0.2199 -0.0900
51958DOD     C299694  12.951   5.178   2.943  0.2154 -0.0181  0.0336
51958DOD     C399695  12.846   4.751   3.046  0.0159 -0.1541 -0.0972
51959DOD     C199696  19.735  18.929  22.319  0.1241 -0.0876 -0.0100
51959DOD     C299697  19.419  18.999  22.700  0.2191 -0.0614  0.0729
51959DOD     C399698  19.031  18.893  22.957  0.0007 -0.1259  0.1310
51960DOD     C199699  13.078   0.271   2.810 -0.0754 -0.2064  0.0233
51960DOD     C299700  12.656   0.152   2.672  0.1212  0.1358 -0.2565
51960DOD     C399701  12.366  30.173   2.684  0.1288  0.0849  0.0150
51961DOD     C199702   9.389   8.223  16.635 -0.1223  0.0907 -0.0680
51961DOD     C299703   8.985   8.302  16.670  0.1530 -0.1254  0.0137
51961DOD     C399704   8.569   8.312  16.412  0.0893 -0.3012 -0.0413
51962DOD     C199705  15.070  25.552  22.465 -0.0900  0.2090  0.2682
51962DOD     C299706  14.954  25.809  22.833  0.2054  0.0785 -0.1494
51962DOD     C399707  14.532  25.903  22.975 -0.1210 -0.1332 -0.0684
51963DOD     C199708  10.598   1.521  10.237 -0.0105 -0.1309  0.1100
51963DOD     C299709  11.057   1.720  10.338  0.3142  0.3032  0.1107
51963DOD     C399710  10.969   2.017  10.619 -0.4030 -0.1768 -0.0074
51964DOD     C199711  22.793  21.655  11.882 -0.0540 -0.0242 -0.1088
51964DOD     C299712  22.861  21.159  11.889  0.1097 -0.2352 -0.3206
51964DOD     C399713  22.636  20.803  12.021 -0.0540 -0.2499 -0.0985
51965DOD     C199714  12.234   1.639  14.175 -0.2430 -0.2177  0.0150
51965DOD     C299715  12.647   1.420  14.164 -0.0225  0.0119  0.1348
51965DOD     C399716  12.902   1.087  14.306  0.1093  0.0142 -0.2263
51966DOD     C199717  21.689   1.967  24.577 -0.0868  0.1007  0.2941
51966DOD     C299718  21.755   2.381  24.333  0.1720  0.1552 -0.1523
51966DOD     C399719  22.084   2.695  24.316  0.0909 -0.0439  0.2869
51967DOD     C199720  11.958  20.653  30.057  0.2305 -0.2172  0.1849
51967DOD     C299721  12.383  20.867  30.110 -0.0624 -0.0926 -0.1553
51967DOD     C399722  12.614  21.256  29.893 -0.0516 -0.0024  0.1826
51968DOD     C199723  22.920  25.635  24.767  0.0287 -0.0181  0.0255
51968DOD     C299724  22.703  25.990  24.541 -0.2647 -0.1607  0.2671
51968DOD     C399725  22.716  26.382  24.400  0.2522  0.0287 -0.1686
51969DOD     C199726  22.753  27.228   2.591  0.1939 -0.1637  0.1502
51969DOD     C299727  22.698  27.613   2.900  0.1479 -0.2372 -0.0493
51969DOD     C399728  22.735  28.020   2.859  0.4536 -0.1975  0.0827
51970DOD     C199729  12.462  13.440  24.137  0.0262 -0.0739 -0.0434
51970DOD     C299730  12.824  13.152  24.224 -0.1288  0.0459 -0.0898
51970DOD     C399731  13.144  12.878  24.441 -0.0710  0.1191 -0.0378
51971DOD     C199732   3.375  28.011   4.553  0.1128 -0.1454 -0.0590
51971DOD     C299733   3.772  27.737   4.534 -0.2814 -0.1120 -0.0300
51971DOD     C399734   3.924  27.300   4.634  0.1625 -0.0265 -0.2729
51972DOD     C199735  16.489  15.274  19.869  0.1011  0.2105 -0.1193
51972DOD     C299736  16.293  15.475  20.199  0.0408 -0.1801 -0.0289
51972DOD     C399737  15.854  15.677  20.313 -0.0590  0.0861  0.1499
51973DOD     C199738   7.753  28.095  23.148  0.1635 -0.0219  0.0158
51973DOD     C299739   8.018  27.786  22.930 -0.1242  0.0690  0.1509
51973DOD     C399740   7.826  27.372  22.771 -0.3652 -0.1305 -0.5026
51974DOD     C199741  29.656   1.527  19.344  0.1011 -0.1341 -0.0185
51974DOD     C299742  30.013   1.697  19.489  0.0497  0.2465 -0.1756
51974DOD     C399743  30.202   2.108  19.618 -0.0464 -0.0783 -0.0885
51975DOD     C199744   3.110  16.112  28.829 -0.0610  0.0883 -0.0368
51975DOD     C299745   3.572  16.274  28.917  0.0035  0.3167 -0.2343
51975DOD     C399746   3.737  16.726  28.935  0.3360  0.0010 -0.1796
51976DOD     C199747  12.003   1.948  10.303 -0.1085  0.0689  0.2127
51976DOD     C299748  12.284   1.892  10.693  0.1847 -0.0886  0.2589
51976DOD     C399749  12.786   1.906  10.764 -0.0859  0.3925 -0.4148
51977DOD     C199750  21.944   9.256  13.953  0.2573 -0.0906  0.2248
51977DOD     C299751  21.795   9.730  14.054  0.3157 -0.0684  0.0142
51977DOD     C399752  22.087  10.040  14.146 -0.0844  0.1587  0.1097
51978DOD     C199753  13.037  24.058  10.226  0.2549 -0.0384  0.2916
51978DOD     C299754  13.163  24.447  10.481 -0.1801  0.1365 -0.0298
51978DOD     C399755  13.138  24.797  10.815  0.3645 -0.0670 -0.1916
51979DOD     C199756   9.515  22.422  23.689  0.1452  0.6825  0.3636
51979DOD     C299757   9.838  22.427  23.990 -0.2278  0.0160 -0.0046
51979DOD     C399758   9.954  22.295  24.430 -0.0806  0.0773 -0.0891
51980DOD     C199759   0.141   4.672   5.924 -0.0647  0.1340 -0.0835
51980DOD     C299760  30.131   4.677   6.271  0.1787  0.0156 -0.1195
51980DOD     C399761  29.733   4.891   6.396 -0.2082 -0.0524 -0.2637
51981DOD     C199762   1.187   1.478   4.988 -0.4574 -0.2559  0.1089
51981DOD     C299763   0.713   1.352   4.907 -0.0522  0.1049  0.0442
51981DOD     C399764   0.395   1.212   5.269  0.2999  0.2090  0.1221
51982DOD     C199765   9.390   4.571  23.174 -0.2171  0.2178 -0.4133
51982DOD     C299766   9.316   4.897  23.544 -0.0840 -0.1249  0.0222
51982DOD     C399767   9.220   5.159  23.928  0.0086  0.0778  0.1538
51983DOD     C199768  10.347   3.612   5.416  0.1494  0.0279  0.1343
51983DOD     C299769  10.604   3.816   5.724  0.4917  0.0601  0.1835
51983DOD     C399770  10.701   3.911   6.154  0.0834  0.3603  0.2010
51984DOD     C199771  19.179  28.099  18.128  0.0973  0.2105 -0.0927
51984DOD     C299772  18.767  28.236  18.386 -0.0709 -0.1600  0.1413
51984DOD     C399773  18.755  28.118  18.851 -0.1884  0.0098 -0.0546
51985DOD     C199774  25.657  21.409   6.538  0.1500 -0.1824 -0.1227
51985DOD     C299775  25.888  21.214   6.210 -0.0519  0.1752  0.0327
51985DOD     C399776  25.990  21.226   5.749  0.1471  0.0786 -0.1603
51986DOD     C199777  24.681  14.095   3.668  0.0294 -0.3542  0.2885
51986DOD     C299778  25.027  13.774   3.734 -0.2252  0.1852 -0.1593
51986DOD     C399779  25.390  13.532   3.558  0.0791 -0.1710  0.0715
51987DOD     C199780  11.950  27.284   8.047 -0.0887 -0.0669  0.1659
51987DOD     C299781  11.634  27.418   8.324 -0.1250 -0.1647  0.2836
51987DOD     C399782  11.291  27.668   8.555  0.1740 -0.1428 -0.0295
51988DOD     C199783   8.182  17.856   2.029  0.0634 -0.0960  0.0576
51988DOD     C299784   8.350  18.268   2.201  0.0807  0.1258 -0.0153
51988DOD     C399785   8.433  18.652   2.457  0.0628  0.1033 -0.3383
51989DOD     C199786  10.835  11.440   9.164  0.1283 -0.1771 -0.2173
51989DOD     C299787  10.898  11.610   8.750  0.0984  0.1064  0.0312
51989DOD     C399788  10.991  11.749   8.331  0.1558 -0.1885 -0.2443
51990DOD     C199789  24.773   6.520   3.246  0.2238  0.1923  0.0422
51990DOD     C299790  24.391   6.720   3.407  0.0747 -0.0312 -0.1384
51990DOD     C399791  24.202   6.842   3.806  0.1274 -0.4099 -0.1315
51991DOD     C199792  13.763  24.618   7.382 -0.2410  0.1175  0.0967
51991DOD     C299793  13.618  24.990   7.520 -0.1812  0.1368 -0.2081
51991DOD     C399794  13.648  25.239   7.945  0.0737  0.0057  0.1113
51992DOD     C199795  28.418   5.647   0.941 -0.0560  0.0451  0.1692
51992DOD     C299796  28.783   5.510   1.172  0.2767  0.1086  0.1917
51992DOD     C399797  28.997   5.689   1.544 -0.2143  0.2952 -0.1061
51993DOD     C199798  16.450  28.401   6.100  0.0380 -0.1075  0.1549
51993DOD     C299799  16.580  28.187   6.475 -0.0035 -0.4468  0.4084
51993DOD     C399800  16.393  28.125   6.854  0.2437  0.0003 -0.1519
51994DOD     C199801  19.809  20.081  22.554  0.1572 -0.2499 -0.0445
51994DOD     C299802  19.333  19.998  22.479 -0.2629 -0.0906 -0.0843
51994DOD     C399803  18.890  20.179  22.580 -0.0533  0.1068 -0.1899
51995DOD     C199804  22.874   2.851  30.270 -0.0578 -0.0860  0.0566
51995DOD     C299805  22.712   2.572  29.988  0.1676 -0.1497  0.1744
51995DOD     C399806  22.281   2.647  29.868 -0.2735  0.1615  0.1777
51996DOD     C199807  18.691  29.512  21.753 -0.0325  0.0222 -0.2163
51996DOD     C299808  19.026  29.528  21.985 -0.3041  0.3164 -0.4272
51996DOD     C399809  19.462  29.421  22.069 -0.3073 -0.2612  0.0709
51997DOD     C199810  28.956  17.785   5.493  0.0187  0.0283  0.1329
51997DOD     C299811  28.912  18.185   5.558  0.2278 -0.1656 -0.3047
51997DOD     C399812  28.492  18.386   5.539  0.0974  0.2967 -0.0573
51998DOD     C199813   5.892  26.781  21.061  0.2617 -0.1930  0.5826
51998DOD     C299814   6.159  26.435  21.192  0.0210  0.1843  0.1534
51998DOD     C399815   6.392  26.068  21.390  0.0429  0.1893 -0.1558
51999DOD     C199816   0.200   7.010   4.387  0.0767 -0.0341 -0.3246
51999DOD     C299817   0.610   7.253   4.439  0.0845  0.0326 -0.0181
51999DOD     C399818   0.863   7.620   4.305 -0.0951  0.1715 -0.0620
52000DOD     C199819  14.210   8.815   9.563  0.0671 -0.0006 -0.3017
52000DOD     C299820  13.992   8.674   9.969  0.2189  0.3883  0.0271
52000DOD     C399821  13.699   8.768  10.306  0.1464 -0.1316  0.0714
52001DOD     C199822   2.662   6.769  28.707 -0.0524  0.0436 -0.1134
52001DOD     C299823   2.834   6.547  29.065  0.2593 -0.2101  0.0876
52001DOD     C399824   2.923   6.272  29.412 -0.0965 -0.0041  0.1351
52002DOD     C199825  26.746   5.573   5.277 -0.3539 -0.3992 -0.0580
52002DOD     C299826  26.694   5.718   4.834 -0.1115  0.0559 -0.1370
52002DOD     C399827  26.731   5.926   4.466  0.2352 -0.2194  0.1677
52003DOD     C199828  21.766   8.796  11.480 -0.1751 -0.0030  0.0106
52003DOD     C299829  21.397   8.534  11.516 -0.0947  0.2281  0.3407
52003DOD     C399830  21.000   8.512  11.746  0.2217  0.0696 -0.2397
52004DOD     C199831   7.862  29.641   3.847  0.0763  0.0478 -0.4244
52004DOD     C299832   8.222  29.532   4.090 -0.2023  0.1957  0.1677
52004DOD     C399833   8.281  29.798   4.517  0.0110 -0.2366  0.0348
52005DOD     C199834  16.726  16.064  25.360 -0.3276  0.3708 -0.2072
52005DOD     C299835  16.899  15.636  25.280 -0.1397 -0.2618 -0.0797
52005DOD     C399836  17.263  15.378  25.121 -0.0639  0.1635 -0.1806
52006DOD     C199837   7.027  20.533   2.562  0.2818 -0.1473 -0.1087
52006DOD     C299838   7.297  20.398   2.201 -0.2103  0.1046 -0.0554
52006DOD     C399839   7.609  20.674   2.004 -0.0390  0.2017 -0.3062
52007DOD     C199840   0.665  17.470  16.490 -0.2276 -0.3512  0.0920
52007DOD     C299841   1.011  17.186  16.431 -0.1145 -0.4249  0.1601
52007DOD     C399842   1.372  16.893  16.365 -0.3484 -0.0483 -0.1047
52008DOD     C199843  24.314  25.759  24.501 -0.0963 -0.2611 -0.1590
52008DOD     C299844  24.520  26.193  24.485 -0.2853  0.0007 -0.1003
52008DOD     C399845  24.789  26.394  24.119 -0.0939  0.1448 -0.0631
52009DOD     C199846   2.956  20.578  12.898  0.0476 -0.0103 -0.1277
52009DOD     C299847   3.143  20.939  12.590 -0.1889  0.3083 -0.1937
52009DOD     C399848   3.293  21.377  12.581  0.1126 -0.2734  0.0255
52010DOD     C199849   9.059  10.203  16.049  0.0284  0.0393  0.0147
52010DOD     C299850   9.002   9.832  15.802  0.2054  0.3222 -0.1366
52010DOD     C399851   9.105   9.429  15.517 -0.0677  0.0010 -0.0276
52011DOD     C199852   4.871   6.751  14.915  0.3442  0.0256 -0.0594
52011DOD     C299853   5.238   6.747  14.659 -0.2099  0.0386  0.1706
52011DOD     C399854   5.432   7.046  14.363 -0.0817  0.2042 -0.0671
52012DOD     C199855  28.213   6.261   3.203 -0.2857 -0.0234 -0.0060
52012DOD     C299856  28.564   6.358   3.400 -0.0240 -0.1220  0.0113
52012DOD     C399857  29.001   6.163   3.355 -0.0279 -0.0583  0.0234
52013DOD     C199858  27.408  16.029  20.535  0.1063 -0.0273 -0.0288
52013DOD     C299859  27.673  16.301  20.664  0.0052 -0.0079 -0.0515
52013DOD     C399860  27.835  16.643  20.986  0.2028 -0.1779  0.1650
52014DOD     C199861  23.006  22.027  16.399 -0.3155 -0.1187  0.0373
52014DOD     C299862  23.363  21.798  16.710 -0.4320 -0.2596 -0.1368
52014DOD     C399863  23.561  21.400  16.952  0.0905 -0.2760  0.1584
52015DOD     C199864  19.145  21.615   9.346  0.0341  0.3740  0.1641
52015DOD     C299865  18.888  21.974   9.244 -0.0837 -0.0144  0.0929
52015DOD     C399866  18.525  22.237   9.400 -0.3055  0.1123 -0.0909
52016DOD     C199867   6.968   8.764   6.106 -0.2250 -0.0265 -0.2642
52016DOD     C299868   6.917   8.703   5.660  0.0812  0.1604  0.0576
52016DOD     C399869   6.818   8.641   5.208 -0.0121  0.2156  0.1783
52017DOD     C199870  25.888  24.821  17.906  0.1293 -0.0004  0.1572
52017DOD     C299871  26.229  24.544  17.940 -0.1051 -0.1547  0.3022
52017DOD     C399872  26.573  24.541  17.595  0.1156 -0.0465  0.0996
52018DOD     C199873  16.051   0.353   3.855 -0.1594 -0.0883 -0.0168
52018DOD     C299874  15.831   0.383   3.473 -0.0055  0.0850 -0.1762
52018DOD     C399875  15.480   0.656   3.255  0.0088 -0.2636  0.2388
52019DOD     C199876   1.917   0.035  18.553  0.2039 -0.0807 -0.0916
52019DOD     C299877   1.711  30.341  18.092 -0.0882  0.2477  0.0969
52019DOD     C399878   1.447   0.026  17.648 -0.1370  0.0730  0.2227
52020DOD     C199879  18.714  16.350   8.172  0.0148  0.1854  0.0280
52020DOD     C299880  18.270  16.308   8.144  0.3270 -0.1470 -0.3750
52020DOD     C399881  17.742  16.408   8.198  0.1961  0.4009 -0.0565
52021DOD     C199882  10.314  11.222   1.894 -0.0205 -0.0833 -0.2132
52021DOD     C299883  10.499  10.857   2.149  0.1758  0.0314 -0.2076
52021DOD     C399884  10.526  10.782   2.581  0.1560  0.2831 -0.1852
52022DOD     C199885  22.686  22.742  29.146 -0.0411 -0.0854  0.1039
52022DOD     C299886  23.040  22.807  29.441  0.0937 -0.0953  0.2237
52022DOD     C399887  23.357  22.919  29.762 -0.1897  0.0889  0.0997
52023DOD     C199888  28.715  27.228  28.516  0.5617 -0.1496  0.0249
52023DOD     C299889  28.709  27.668  28.678 -0.0984  0.0524 -0.2974
52023DOD     C399890  28.672  28.077  28.798  0.1626  0.0227 -0.0163
52024DOD     C199891  28.730  30.235   3.778 -0.0156  0.2470  0.2627
52024DOD     C299892  29.069  29.970   3.688 -0.1396 -0.2499 -0.3005
52024DOD     C399893  29.566  29.930   3.746  0.3843  0.3468 -0.2133
52025DOD     C199894  19.490  28.865   3.933  0.0248  0.2019 -0.2289
52025DOD     C299895  19.640  29.226   3.616  0.3129  0.0101 -0.1158
52025DOD     C399896  19.963  29.472   3.435  0.0352  0.1740 -0.1105
52026DOD     C199897   9.159  18.846  23.757 -0.2146 -0.0135 -0.1747
52026DOD     C299898   8.733  18.977  23.613  0.0204 -0.0660 -0.0370
52026DOD     C399899   8.450  18.823  23.270  0.0791  0.2023 -0.0242
52027DOD     C199900   2.544  15.946   5.456 -0.3547  0.2967 -0.3642
52027DOD     C299901   2.386  15.887   5.891 -0.2027  0.2261 -0.2966
52027DOD     C399902   2.177  15.659   6.263  0.2320  0.0155 -0.0275
52028DOD     C199903   2.773   9.264   6.740  0.0576 -0.0178  0.0458
52028DOD     C299904   2.799   9.404   6.261 -0.2875  0.2582 -0.2066
52028DOD     C399905   2.801   9.241   5.868 -0.0312  0.1179  0.2152
52029DOD     C199906   0.798   3.904  10.587 -0.0264  0.4926  0.0106
52029DOD     C299907   0.413   3.811  10.406 -0.1002  0.1299 -0.1318
52029DOD     C399908  30.286   3.830  10.279  0.2033 -0.1535  0.1822
52030DOD     C199909  25.936  16.289  23.003  0.0978 -0.2955  0.0165
52030DOD     C299910  26.028  16.726  22.962  0.2184  0.0337 -0.0080
52030DOD     C399911  26.274  17.106  23.169 -0.1022 -0.1743  0.1473
52031DOD     C199912  15.055   7.494   5.413  0.1466 -0.0198 -0.3109
52031DOD     C299913  14.919   7.942   5.351 -0.2613  0.2188  0.0903
52031DOD     C399914  15.054   8.370   5.320  0.2156 -0.1009  0.0895
52032DOD     C199915  27.053  25.194  24.671  0.1147  0.0678 -0.0663
52032DOD     C299916  26.854  25.617  24.580 -0.0170  0.3289 -0.1232
52032DOD     C399917  26.499  25.937  24.646 -0.1664 -0.0659  0.0084
52033DOD     C199918  28.453  20.838  27.494  0.2698 -0.0860  0.1057
52033DOD     C299919  28.861  20.520  27.522 -0.0489 -0.1573 -0.2979
52033DOD     C399920  29.312  20.340  27.606 -0.2388  0.2628 -0.1715
52034DOD     C199921  25.535  14.111   4.574 -0.0936  0.4097 -0.1935
52034DOD     C299922  25.533  13.650   4.386 -0.0395 -0.0339 -0.2767
52034DOD     C399923  25.672  13.370   4.012  0.0446 -0.0865  0.1955
52035DOD     C199924  21.044  30.117  10.403  0.0845 -0.0870  0.0916
52035DOD     C299925  20.974   0.230  10.662  0.1363  0.2014 -0.1405
52035DOD     C399926  21.244   0.477  11.013 -0.1252 -0.3387  0.2552
52036DOD     C199927  28.641  13.161  16.646 -0.1367 -0.0922 -0.1889
52036DOD     C299928  29.046  12.856  16.691  0.0014 -0.2547 -0.0253
52036DOD     C399929  29.473  13.103  16.692 -0.0594  0.1747  0.4113
52037DOD     C199930  27.263  12.247   8.397 -0.1427  0.2274  0.1582
52037DOD     C299931  27.273  12.043   7.994 -0.2412  0.0416  0.2055
52037DOD     C399932  27.058  11.917   7.588  0.2150 -0.0573 -0.1193
52038DOD     C199933   0.394  15.488  26.750  0.2718  0.4739 -0.1736
52038DOD     C299934   0.500  15.431  26.305 -0.2844 -0.4392  0.2171
52038DOD     C399935   0.716  15.238  25.923  0.1613 -0.0689  0.0049
52039DOD     C199936  22.012   0.357  28.912  0.0629  0.0568 -0.1440
52039DOD     C299937  21.860   0.167  29.309  0.2438 -0.1938  0.0283
52039DOD     C399938  21.693  30.104  29.547  0.1823 -0.1298 -0.0541
52040DOD     C199939  13.556  20.280  18.382  0.1724 -0.0355 -0.0328
52040DOD     C299940  13.137  20.037  18.350 -0.2631 -0.0006 -0.2947
52040DOD     C399941  12.868  19.628  18.443  0.1168 -0.3800  0.1605
52041DOD     C199942  13.726   6.898   4.654  0.3543  0.0925 -0.0082
52041DOD     C299943  13.392   7.226   4.732 -0.0230 -0.1691  0.0291
52041DOD     C399944  13.016   7.546   4.808  0.2050 -0.1369 -0.0387
52042DOD     C199945   1.665  28.953   1.828 -0.1868 -0.1097 -0.2889
52042DOD     C299946   1.306  28.683   1.610  0.0504 -0.1340  0.1448
52042DOD     C399947   0.900  28.605   1.857 -0.0620 -0.0820  0.0641
52043DOD     C199948  11.192   8.092  29.501 -0.1613  0.2085 -0.1615
52043DOD     C299949  11.521   7.771  29.366 -0.0559 -0.2967 -0.0590
52043DOD     C399950  11.866   7.525  29.117  0.0602  0.2544  0.0404
52044DOD     C199951  24.157  13.685   3.860  0.2785  0.1335  0.0245
52044DOD     C299952  23.752  13.864   4.063 -0.1868 -0.1970  0.0578
52044DOD     C399953  23.394  14.143   3.905  0.4274 -0.3647  0.1187
52045DOD     C199954  28.256  22.103   3.068 -0.4065  0.3055  0.1005
52045DOD     C299955  28.568  22.144   2.727 -0.0147 -0.1119  0.0146
52045DOD     C399956  29.000  21.997   2.577 -0.1919 -0.1569  0.0385
52046DOD     C199957  16.604  24.840  17.466  0.0432 -0.2346 -0.0184
52046DOD     C299958  16.696  25.238  17.778 -0.1892  0.0592 -0.3412
52046DOD     C399959  16.956  25.205  18.206  0.0420 -0.2874 -0.1436
52047DOD     C199960   3.425   3.116  10.383 -0.1014  0.2389 -0.3312
52047DOD     C299961   3.001   2.915  10.537  0.0562 -0.1483  0.0686
52047DOD     C399962   2.592   2.807  10.756 -0.0760  0.0660  0.0698
52048DOD     C199963  22.284  14.448  21.321 -0.2022 -0.1136 -0.0495
52048DOD     C299964  21.885  14.742  21.360 -0.0553 -0.0559 -0.3170
52048DOD     C399965  21.573  14.958  21.047  0.0576  0.3218 -0.3375
52049DOD     C199966   8.286  15.917   5.472  0.5705  0.1069  0.4820
52049DOD     C299967   8.536  15.722   5.836  0.1294  0.0415  0.0348
52049DOD     C399968   8.731  15.371   6.145 -0.0540  0.0699 -0.0585
52050DOD     C199969  28.622  17.189  12.159  0.0927  0.1560 -0.2079
52050DOD     C299970  28.511  17.610  12.188 -0.1333 -0.1148 -0.1721
52050DOD     C399971  28.313  17.936  12.018  0.4561 -0.0318  0.1901
52051DOD     C199972  11.884  28.983  19.293 -0.0952  0.3563 -0.3316
52051DOD     C299973  11.811  29.389  19.425 -0.1076 -0.2677 -0.1003
52051DOD     C399974  11.834  29.742  19.709  0.0698 -0.0110 -0.1121
52052DOD     C199975  22.806  24.564   9.846  0.1877  0.2447  0.2355
52052DOD     C299976  22.407  24.376   9.690 -0.2885  0.1387 -0.1467
52052DOD     C399977  21.980  24.339   9.504  0.2014 -0.0951 -0.3012
52053DOD     C199978  14.393   2.688   6.687 -0.1328  0.0885  0.2035
52053DOD     C299979  14.479   2.217   6.608 -0.3114  0.3550 -0.1889
52053DOD     C399980  14.596   1.827   6.830 -0.2469 -0.1126  0.1605
52054DOD     C199981  15.858   4.339   5.320 -0.0346 -0.0224 -0.0707
52054DOD     C299982  15.978   4.348   5.809 -0.1733 -0.2315 -0.0359
52054DOD     C399983  16.284   4.436   6.166  0.1851 -0.3732  0.1525
52055DOD     C199984  14.924  26.799   9.819 -0.0288 -0.0970 -0.1170
52055DOD     C299985  14.706  27.227  10.004 -0.0685  0.0700 -0.0575
52055DOD     C399986  14.681  27.727   9.988 -0.3065  0.0723  0.1150
52056DOD     C199987  20.669  23.068  30.295  0.0040  0.2012  0.1308
52056DOD     C299988  20.264  23.043   0.105 -0.0959  0.0043  0.0855
52056DOD     C399989  19.993  22.664   0.059  0.2176  0.1988 -0.1742
52057DOD     C199990  17.155  18.310  22.324 -0.0061 -0.0953 -0.0342
52057DOD     C299991  17.030  18.453  21.894 -0.0667 -0.2752 -0.0068
52057DOD     C399992  17.013  18.881  21.674  0.1184 -0.0816 -0.2422
52058DOD     C199993  17.276  28.595  13.158  0.0271 -0.3972  0.1589
52058DOD     C299994  17.243  28.206  12.892  0.0641  0.1800 -0.0058
52058DOD     C399995  17.423  28.154  12.522  0.0188 -0.2262  0.0574
52059DOD     C199996   7.572  25.229  30.114 -0.3753 -0.1534  0.2567
52059DOD     C299997   7.298  25.337   0.136  0.1568  0.0923 -0.1139
52059DOD     C399998   6.916  25.028   0.329 -0.0476  0.2919  0.2636
52060DOD     C199999  15.759  19.224  17.480  0.3218  0.1856 -0.0161
52060DOD     C2    0  16.041  19.124  17.111 -0.0059 -0.0049 -0.0389
52060DOD     C3    1  16.392  19.313  16.927  0.0795 -0.1324  0.0107
52061DOD     C1    2  19.722   8.437  26.350  0.1022  0.0140 -0.0467
52061DOD     C2    3  19.675   8.239  26.784  0.1404  0.1034  0.0602
52061DOD     C3    4  19.652   7.872  27.065 -0.1484  0.0690  0.3259
52062DOD     C1    5   3.180  26.216  21.781  0.3545 -0.0399 -0.0277
52062DOD     C2    6   3.224  25.938  21.361  0.1102 -0.0160 -0.0106
52062DOD     C3    7   3.315  25.818  20.928 -0.2429 -0.2751  0.1815
52063DOD     C1    8   1.682   0.949   5.790  0.0346  0.1620 -0.2391
52063DOD     C2    9   1.963   0.719   5.464 -0.0079 -0.1812  0.0531
52063DOD     C3   10   2.007   0.223   5.552  0.0752 -0.0341  0.1704
52064DOD     C1   11  24.407  20.833   5.749  0.1918  0.2809 -0.0231
52064DOD     C2   12  24.169  20.985   5.406 -0.1565 -0.1927 -0.2227
52064DOD     C3   13  24.174  21.127   4.971  0.2321 -0.0884 -0.0370
52065DOD     C1   14  23.292  26.034  17.693 -0.0065 -0.4176 -0.1024
52065DOD     C2   15  23.375  25.676  17.430  0.3022  0.0254 -0.3664
52065DOD     C3   16  23.506  25.278  17.259  0.1449  0.4490  0.2469
52066DOD     C1   17  14.552  18.018  23.999  0.1144  0.0594 -0.2565
52066DOD     C2   18  14.816  18.412  23.963 -0.2612 -0.0647  0.1918
52066DOD     C3   19  15.196  18.586  23.899 -0.0311  0.0083  0.0513
52067DOD     C1   20   0.336  17.401  27.799 -0.0065  0.0811 -0.2158
52067DOD     C2   21   0.588  17.237  27.408  0.0008 -0.1790 -0.0537
52067DOD     C3   22   0.645  17.145  26.974 -0.2603  0.2510  0.1812
52068DOD     C1   23   8.877  12.286   8.425  0.1162  0.0554 -0.0293
52068DOD     C2   24   9.190  11.919   8.471 -0.1685 -0.2397  0.0073
52068DOD     C3   25   9.550  11.674   8.369 -0.1237 -0.2764 -0.0809
52069DOD     C1   26   4.425  12.943   9.784 -0.1400  0.1183  0.1838
52069DOD     C2   27   4.419  12.524   9.573  0.0075  0.0929 -0.0046
52069DOD     C3   28   4.291  12.069   9.473  0.0348 -0.0955  0.0182
52070DOD     C1   29   2.542   8.563  21.893  0.1047  0.1084  0.1343
52070DOD     C2   30   2.403   9.025  21.994  0.0243  0.2472 -0.0346
52070DOD     C3   31   1.970   9.204  22.165 -0.0689 -0.2706  0.0237
52071DOD     C1   32   2.362  25.059  22.520  0.2274  0.0576 -0.0410
52071DOD     C2   33   2.592  25.371  22.236  0.0888  0.1573 -0.0481
52071DOD     C3   34   2.852  25.414  21.919 -0.2945 -0.1373  0.1245
52072DOD     C1   35   0.913   6.124  28.352 -0.0177 -0.4201  0.0715
52072DOD     C2   36   0.654   5.915  28.651 -0.2091  0.0393  0.0754
52072DOD     C3   37   0.365   5.920  29.028  0.0104  0.0929  0.0223
52073DOD     C1   38  14.923  13.678  15.832  0.0179  0.1704 -0.1527
52073DOD     C2   39  15.273  13.363  15.725  0.2420 -0.3065  0.2462
52073DOD     C3   40  15.518  12.998  15.840 -0.0495  0.1822  0.0243
52074DOD     C1   41  28.017  24.458   6.923 -0.2307  0.0427  0.0448
52074DOD     C2   42  28.370  24.743   6.961 -0.0205  0.1518 -0.2215
52074DOD     C3   43  28.528  25.181   6.964 -0.2992  0.1647  0.4190
52075DOD     C1   44   3.236  20.665  29.074  0.4296  0.3909 -0.1035
52075DOD     C2   45   3.106  20.846  29.493 -0.2639  0.0649 -0.0991
52075DOD     C3   46   3.067  21.283  29.549  0.3940  0.0461  0.1762
52076DOD     C1   47  25.765   7.916  21.969 -0.0843 -0.1568 -0.0690
52076DOD     C2   48  25.533   7.679  21.656  0.1920 -0.1890  0.3123
52076DOD     C3   49  25.177   7.513  21.393  0.0671 -0.0254 -0.2602
52077DOD     C1   50  17.601   3.839  15.496 -0.2488 -0.1704  0.1199
52077DOD     C2   51  18.097   3.648  15.526 -0.1150  0.5085 -0.0597
52077DOD     C3   52  18.598   3.512  15.511  0.0056  0.0125 -0.1282
52078DOD     C1   53   9.451   0.682  15.094  0.1144  0.1010  0.0722
52078DOD     C2   54   9.043   0.625  14.945  0.1609 -0.0670  0.2608
52078DOD     C3   55   8.684   0.713  15.172 -0.2488 -0.1682 -0.0320
52079DOD     C1   56  14.854  15.868  15.433  0.0838 -0.0131  0.2379
52079DOD     C2   57  15.209  15.546  15.406  0.3086 -0.0673 -0.2253
52079DOD     C3   58  15.317  15.358  15.002  0.0195  0.1600  0.0423
52080DOD     C1   59   4.185  13.591   4.473  0.0600 -0.2909 -0.0978
52080DOD     C2   60   4.207  13.869   4.111  0.0550 -0.5862 -0.2329
52080DOD     C3   61   4.568  14.110   3.910  0.1358  0.1229  0.1638
52081DOD     C1   62   4.843  29.715   4.196  0.0356  0.1626  0.0826
52081DOD     C2   63   4.723  29.238   4.330 -0.1171 -0.2377  0.3692
52081DOD     C3   64   4.424  28.898   4.378 -0.0701  0.2148 -0.1507
52082DOD     C1   65  19.617  23.745   1.793  0.0930 -0.3128  0.0482
52082DOD     C2   66  19.335  23.912   1.460 -0.1217 -0.0007 -0.0209
52082DOD     C3   67  19.060  24.092   1.125 -0.1652  0.2444  0.1572
52083DOD     C1   68   4.634   3.957  18.467 -0.0197 -0.3422  0.1027
52083DOD     C2   69   5.107   3.983  18.341  0.0814  0.1570 -0.1337
52083DOD     C3   70   5.372   3.690  18.164  0.3298 -0.1810  0.2756
52084DOD     C1   71   7.669  14.053  27.370 -0.0234 -0.0430  0.1411
52084DOD     C2   72   7.555  13.891  26.979 -0.0457  0.0539  0.0480
52084DOD     C3   73   7.606  13.913  26.540 -0.0211  0.1266  0.0054
52085DOD     C1   74  17.773  27.870  12.439 -0.0190 -0.3490 -0.2221
52085DOD     C2   75  17.999  27.560  12.636 -0.1989  0.0152  0.0717
52085DOD     C3   76  18.258  27.234  12.446  0.3994  0.0098 -0.1108
52086DOD     C1   77  18.608  11.283  15.791 -0.0261  0.0031 -0.0111
52086DOD     C2   78  18.983  11.092  15.823 -0.1024  0.0139  0.0264
52086DOD     C3   79  19.071  10.641  15.882 -0.0952  0.1564 -0.1893
52087DOD     C1   80   7.310  12.027   6.978  0.0022 -0.2105  0.2305
52087DOD     C2   81   7.581  12.346   7.212  0.1991  0.0004 -0.1013
52087DOD     C3   82   7.941  12.695   7.226 -0.1114  0.0720 -0.2530
52088DOD     C1   83  17.822   2.866  28.632  0.0614 -0.0473  0.1194
52088DOD     C2   84  17.596   2.505  28.912  0.1224 -0.0653 -0.0547
52088DOD     C3   85  17.458   2.552  29.341 -0.0116 -0.4458  0.0820
52089DOD     C1   86   8.152  29.986   3.631 -0.0843 -0.1444 -0.0528
52089DOD     C2   87   8.090  30.119   4.091 -0.2999 -0.0225  0.0364
52089DOD     C3   88   7.854  30.153   4.558 -0.0028 -0.0668  0.0480
52090DOD     C1   89   8.755   8.035  10.473  0.0638 -0.0151 -0.3941
52090DOD     C2   90   8.364   7.846  10.233  0.0876 -0.2462  0.1594
52090DOD     C3   91   8.295   7.641   9.833 -0.0309  0.3402  0.1333
52091DOD     C1   92   9.342   5.649  27.556  0.1963  0.1607 -0.0149
52091DOD     C2   93   9.354   6.116  27.442  0.0508 -0.2557 -0.2293
52091DOD     C3   94   9.391   6.420  27.725  0.0708  0.0884 -0.0275
52092DOD     C1   95   9.585  10.486  18.280 -0.3816 -0.1398  0.1286
52092DOD     C2   96   9.269  10.848  18.189  0.2702  0.0601 -0.2162
52092DOD     C3   97   8.817  10.751  17.956  0.0041 -0.2706  0.3400
52093DOD     C1   98  15.505  15.640  24.916 -0.0928  0.1024 -0.2500
52093DOD     C2   99  15.963  15.819  24.871  0.0725 -0.0016  0.1608
52093DOD     C3  100  16.221  15.910  25.195  0.1117  0.1291 -0.2623
52094DOD     C1  101  26.729   1.484  27.589 -0.0802 -0.1373 -0.1549
52094DOD     C2  102  26.434   1.168  27.698  0.0147 -0.0424 -0.1671
52094DOD     C3  103  26.080   0.990  27.958  0.1061  0.0007 -0.4246
52095DOD     C1  104  24.628   2.267  13.016  0.0066 -0.0563 -0.2468
52095DOD     C2  105  24.961   1.978  13.006 -0.1913  0.0495 -0.2033
52095DOD     C3  106  25.331   1.850  12.689 -0.0031  0.2588  0.1046
52096DOD     C1  107   5.326  23.403  13.718 -0.1508  0.0798 -0.1584
52096DOD     C2  108   5.302  23.803  13.475  0.3012  0.0975 -0.1785
52096DOD     C3  109   5.337  24.265  13.436  0.5063  0.0331  0.2598
52097DOD     C1  110  12.015  11.731  16.659  0.0179 -0.1783 -0.2372
52097DOD     C2  111  11.556  11.797  16.539 -0.1482  0.0925  0.0951
52097DOD     C3  112  11.092  11.878  16.489  0.0784 -0.1801 -0.1619
52098DOD     C1  113  20.434   4.081  10.970  0.2123 -0.2783  0.3941
52098DOD     C2  114  20.729   4.337  10.687 -0.0518 -0.0784 -0.0771
52098DOD     C3  115  21.101   4.524  10.489 -0.0115  0.0455  0.2440
52099DOD     C1  116   7.022   8.139  17.438  0.2070  0.0430  0.0245
52099DOD     C2  117   7.483   8.172  17.321 -0.0373  0.0831  0.0794
52099DOD     C3  118   7.943   8.166  17.397  0.1527 -0.1084 -0.0265
52100DOD     C1  119  20.929   8.336  25.018 -0.1269  0.0132 -0.0498
52100DOD     C2  120  20.882   7.845  25.086 -0.0972 -0.3524 -0.0564
52100DOD     C3  121  21.152   7.502  25.187 -0.0984  0.0453  0.1071
52101DOD     C1  122   9.234  25.568  20.757 -0.2467  0.3003 -0.0235
52101DOD     C2  123   8.956  25.731  21.164  0.2627  0.3352  0.0068
52101DOD     C3  124   8.707  26.080  21.346 -0.3010 -0.0734 -0.0951
52102DOD     C1  125  27.957  27.134   7.531  0.3841  0.1673 -0.0035
52102DOD     C2  126  28.382  27.031   7.476 -0.2670 -0.0160  0.0782
52102DOD     C3  127  28.708  26.856   7.202 -0.1715  0.1687 -0.2500
52103DOD     C1  128  12.662   1.226   8.828  0.1578 -0.1438 -0.1765
52103DOD     C2  129  13.070   1.447   8.863  0.3369  0.0006 -0.0442
52103DOD     C3  130  13.372   1.764   8.642 -0.0233 -0.2768  0.1433
52104DOD     C1  131  10.171  19.110   0.834 -0.0734 -0.0579 -0.0939
52104DOD     C2  132  10.086  19.547   0.631 -0.0070 -0.1048 -0.0718
52104DOD     C3  133   9.887  19.905   0.869  0.1236 -0.1752  0.2846
52105DOD     C1  134  13.812   4.560   7.784 -0.2060  0.0849  0.1145
52105DOD     C2  135  13.645   4.399   8.139  0.3992  0.3251  0.2130
52105DOD     C3  136  13.247   4.532   8.241  0.3346 -0.0257 -0.0059
52106DOD     C1  137  14.435   5.049   9.288 -0.2070 -0.0849  0.1471
52106DOD     C2  138  14.202   5.127   8.857  0.0263 -0.0435 -0.1690
52106DOD     C3  139  13.800   5.378   8.781  0.1849  0.2424 -0.1914
52107DOD     C1  140  20.655  28.646  16.997 -0.2105  0.0375 -0.0934
52107DOD     C2  141  20.668  28.277  16.655  0.1592  0.1233  0.3006
52107DOD     C3  142  21.043  28.114  16.411 -0.2714  0.2996  0.0541
52108DOD     C1  143   7.365   6.621  26.921 -0.1367 -0.1287 -0.1200
52108DOD     C2  144   7.193   6.595  26.529  0.0758 -0.1983  0.1404
52108DOD     C3  145   7.239   6.742  26.080  0.1554  0.2605 -0.1177
52109DOD     C1  146  14.144  19.303  23.607 -0.0443 -0.1817 -0.1016
52109DOD     C2  147  13.995  19.037  23.210 -0.1059  0.1659  0.2036
52109DOD     C3  148  13.803  19.160  22.791  0.0042  0.1280 -0.2842
52110DOD     C1  149   2.781  12.955  25.435  0.0993 -0.1635 -0.4474
52110DOD     C2  150   2.834  13.392  25.311 -0.0841  0.0890 -0.1359
52110DOD     C3  151   2.787  13.818  25.192  0.0941  0.0189  0.0133
52111DOD     C1  152  19.342   5.072  29.900  0.1350 -0.1700 -0.0002
52111DOD     C2  153  19.324   4.927  29.492  0.2540  0.0653  0.5480
52111DOD     C3  154  18.987   4.726  29.151 -0.1127 -0.2032  0.1274
52112DOD     C1  155  21.777  18.356   7.201  0.1610  0.4479  0.1706
52112DOD     C2  156  21.803  17.922   6.999  0.1648  0.1671  0.0227
52112DOD     C3  157  22.002  17.459   6.825  0.0662  0.1026  0.2272
52113DOD     C1  158   0.246   5.404   2.935 -0.2759 -0.0795 -0.1331
52113DOD     C2  159   0.352   5.306   2.478  0.0687 -0.0990  0.0534
52113DOD     C3  160   0.536   5.465   2.093  0.3470 -0.0501  0.0222
52114DOD     C1  161   4.521   0.152   2.001  0.3385  0.0040  0.1371
52114DOD     C2  162   4.652   0.624   2.024 -0.0570 -0.1094 -0.4042
52114DOD     C3  163   4.712   1.071   2.217  0.2199 -0.0513  0.1595
52115DOD     C1  164   2.277   1.843  10.686  0.0278 -0.3773 -0.1318
52115DOD     C2  165   2.640   1.737  10.420 -0.0057 -0.0916 -0.2315
52115DOD     C3  166   2.877   1.424  10.171  0.0877 -0.0500  0.0448
52116DOD     C1  167   2.456   2.241  17.877 -0.0442 -0.2829 -0.0243
52116DOD     C2  168   2.398   2.284  18.315  0.2252 -0.0284  0.1551
52116DOD     C3  169   2.123   2.602  18.457  0.1481  0.2109 -0.1507
52117DOD     C1  170   8.223   0.126   4.676  0.0316 -0.0160  0.1895
52117DOD     C2  171   8.262  30.026   4.912 -0.0614  0.0107 -0.2077
52117DOD     C3  172   8.389  29.573   4.984  0.2628 -0.1477  0.0919
52118DOD     C1  173  10.285  30.005   0.573  0.1026  0.0979 -0.1128
52118DOD     C2  174  10.216  29.790   1.015 -0.0759 -0.0990 -0.2022
52118DOD     C3  175  10.163  30.043   1.417  0.2024  0.0357 -0.1207
52119DOD     C1  176   3.004  28.625  26.622  0.3191  0.1964 -0.1647
52119DOD     C2  177   3.352  28.960  26.614 -0.0398  0.1584 -0.3504
52119DOD     C3  178   3.656  29.332  26.489  0.2805  0.1211 -0.1441
52120DOD     C1  179   0.639  25.512  10.157  0.2045  0.1753  0.3136
52120DOD     C2  180   0.686  25.667   9.732  0.2457  0.1585 -0.0865
52120DOD     C3  181   0.928  25.358   9.466  0.0827 -0.2277 -0.0018
52121DOD     C1  182  29.025   5.186  14.199  0.1742  0.4695  0.1814
52121DOD     C2  183  29.250   4.860  13.956  0.0705  0.0025 -0.2287
52121DOD     C3  184  29.161   4.487  13.721  0.0663 -0.2469 -0.0176
52122DOD     C1  185  21.048  27.446   4.532 -0.0326  0.0576 -0.1679
52122DOD     C2  186  20.852  27.515   4.110 -0.2038 -0.1670  0.1919
52122DOD     C3  187  20.762  27.655   3.678 -0.0006  0.4657 -0.0653
52123DOD     C1  188  22.640  10.246   7.095 -0.2319 -0.2706 -0.6571
52123DOD     C2  189  22.187  10.388   7.170  0.2168  0.0315  0.2879
52123DOD     C3  190  21.780  10.412   7.093 -0.3827 -0.0582  0.1146
52124DOD     C1  191  15.254  15.307  26.234 -0.0468 -0.1451  0.0051
52124DOD     C2  192  14.870  15.117  26.020 -0.1352  0.1688  0.2496
52124DOD     C3  193  14.482  14.948  25.898  0.2026  0.0431  0.1821
52125DOD     C1  194   7.372  16.295  28.234  0.1859 -0.0238  0.1025
52125DOD     C2  195   7.226  16.318  28.699  0.3890 -0.0491 -0.1267
52125DOD     C3  196   7.232  16.270  29.152  0.1677 -0.1140 -0.0568
52126DOD     C1  197   1.357  19.527  15.053 -0.1794  0.0592  0.0183
52126DOD     C2  198   1.352  19.888  15.360  0.0062 -0.2621 -0.1000
52126DOD     C3  199   1.215  20.318  15.272 -0.3794 -0.1195  0.0281
52127DOD     C1  200  21.603   3.100   2.111  0.0373 -0.2038 -0.4132
52127DOD     C2  201  21.687   3.530   1.980 -0.0306  0.1083  0.0567
52127DOD     C3  202  21.472   3.914   1.975  0.0365  0.0048  0.0517
52128DOD     C1  203  20.919  15.976  20.411 -0.1432  0.1614 -0.0759
52128DOD     C2  204  20.530  15.769  20.667  0.0487  0.0956  0.3776
52128DOD     C3  205  20.250  15.354  20.778 -0.3175  0.1177 -0.1142
52129DOD     C1  206  19.722   3.447  12.692 -0.0497 -0.0577  0.4645
52129DOD     C2  207  19.248   3.527  12.732  0.0558 -0.1127 -0.0412
52129DOD     C3  208  18.891   3.434  13.003  0.5175 -0.2659 -0.0212
52130DOD     C1  209   0.808  28.140  29.442 -0.0338  0.0448 -0.0955
52130DOD     C2  210   1.040  27.975  29.097 -0.1550  0.1386  0.2416
52130DOD     C3  211   1.318  27.981  28.741  0.2393  0.0760  0.0841
52131DOD     C1  212  24.063  25.783   9.118 -0.0542  0.0370  0.1157
52131DOD     C2  213  23.801  25.429   9.346  0.2917 -0.0198 -0.1432
52131DOD     C3  214  23.810  24.983   9.531 -0.1018 -0.1983 -0.0293
52132DOD     C1  215  14.489   4.670   1.480 -0.1315  0.0597 -0.2255
52132DOD     C2  216  14.616   4.812   1.902  0.0925  0.2057 -0.2649
52132DOD     C3  217  14.533   4.838   2.357 -0.2865 -0.0564  0.0412
52133DOD     C1  218  29.189  29.483  12.030 -0.0577  0.2987  0.0332
52133DOD     C2  219  28.813  29.328  12.119  0.0616 -0.2619 -0.0433
52133DOD     C3  220  28.357  29.409  11.998 -0.1417 -0.0496  0.3502
52134DOD     C1  221  21.404   0.430  29.319 -0.1848  0.4742 -0.0286
52134DOD     C2  222  21.475   0.516  29.817  0.0128 -0.1431  0.0114
52134DOD     C3  223  21.550   0.599  30.304  0.1627 -0.1216  0.0531
52135DOD     C1  224  25.851   9.509  23.627 -0.1078 -0.0724  0.2719
52135DOD     C2  225  25.553   9.415  23.972 -0.0360  0.2753  0.3040
52135DOD     C3  226  25.241   9.462  24.337  0.2999 -0.0565  0.2769
52136DOD     C1  227   9.022  18.263  18.892 -0.3375  0.0036  0.0476
52136DOD     C2  228   9.421  18.374  18.636  0.1866  0.0997  0.0855
52136DOD     C3  229   9.483  18.590  18.242 -0.0148 -0.1375 -0.0060
52137DOD     C1  230  24.157  26.028  12.930 -0.0301 -0.0284 -0.2680
52137DOD     C2  231  23.918  26.170  12.548 -0.2626  0.1074 -0.1862
52137DOD     C3  232  24.097  26.259  12.145  0.0080  0.0428 -0.1122
52138DOD     C1  233   7.110  23.562  27.707 -0.1043 -0.0984  0.0890
52138DOD     C2  234   7.445  23.852  27.663 -0.0577  0.0234 -0.0410
52138DOD     C3  235   7.532  23.959  27.219 -0.0112 -0.3833  0.0138
52139DOD     C1  236  24.509   5.762   8.111 -0.0492 -0.1456 -0.0165
52139DOD     C2  237  24.487   5.920   7.669  0.0803 -0.1951 -0.3073
52139DOD     C3  238  24.067   6.034   7.426 -0.6474 -0.0711 -0.0336
52140DOD     C1  239  14.434   4.846  10.770 -0.0173 -0.3979 -0.2381
52140DOD     C2  240  14.156   4.403  10.869 -0.2057 -0.0037  0.2437
52140DOD     C3  241  14.149   3.991  10.669  0.0701  0.2484  0.2486
52141DOD     C1  242  20.273  26.725  11.732 -0.1898 -0.3014  0.1712
52141DOD     C2  243  20.095  27.098  11.501  0.1273  0.1603 -0.1295
52141DOD     C3  244  19.891  27.469  11.405 -0.2071  0.0313 -0.0559
52142DOD     C1  245   4.491  23.597   9.068 -0.2703 -0.2675  0.0091
52142DOD     C2  246   4.848  23.713   8.747 -0.1280  0.1560  0.0093
52142DOD     C3  247   5.017  23.922   8.392  0.1827 -0.1068 -0.0919
52143DOD     C1  248   4.223   2.920   8.229  0.0028 -0.1839 -0.1037
52143DOD     C2  249   4.458   2.516   8.074  0.2058 -0.0381  0.1928
52143DOD     C3  250   4.477   2.156   7.811 -0.3425  0.0432  0.0928
52144DOD     C1  251  10.483   8.997  11.513 -0.1276  0.2043  0.0531
52144DOD     C2  252  10.649   8.989  11.051 -0.3379  0.2431 -0.0709
52144DOD     C3  253  10.862   9.206  10.703  0.0202  0.1163 -0.0886
52145DOD     C1  254   3.046  18.044   3.451 -0.1460  0.0340 -0.1901
52145DOD     C2  255   2.651  17.968   3.736  0.1497  0.1124 -0.0589
52145DOD     C3  256   2.499  17.704   4.102 -0.0360 -0.1448  0.0227
52146DOD     C1  257  25.156  29.923  23.064  0.1091  0.2388 -0.1461
52146DOD     C2  258  24.880  30.305  23.080 -0.1532  0.2717  0.0513
52146DOD     C3  259  24.489   0.222  23.181 -0.1412 -0.0087 -0.1062
52147DOD     C1  260  28.216  25.300  15.902 -0.0679 -0.2411 -0.0848
52147DOD     C2  261  27.956  24.917  15.832 -0.0475 -0.1208  0.0067
52147DOD     C3  262  27.786  24.472  15.761 -0.0859  0.1082  0.4827
52148DOD     C1  263  22.095   5.947   4.608 -0.1516 -0.2812  0.2456
52148DOD     C2  264  22.184   6.229   4.960  0.1111  0.1135  0.0204
52148DOD     C3  265  22.499   6.511   5.174 -0.1628  0.0958 -0.2749
52149DOD     C1  266  18.387  27.716  19.650  0.0145  0.1497  0.2059
52149DOD     C2  267  18.634  27.341  19.610 -0.1648  0.3484  0.3482
52149DOD     C3  268  18.855  26.908  19.529  0.0450 -0.1560 -0.2417
52150DOD     C1  269  28.349  25.134   9.503  0.1296 -0.1752  0.2114
52150DOD     C2  270  28.662  25.369   9.191 -0.0372  0.1943 -0.1101
52150DOD     C3  271  29.116  25.562   9.177  0.2667 -0.4393 -0.1588
52151DOD     C1  272  12.814  24.441  22.150 -0.0324 -0.0527 -0.0425
52151DOD     C2  273  12.557  24.531  21.743 -0.0940  0.2670 -0.1894
52151DOD     C3  274  12.505  24.679  21.239 -0.1311 -0.0328  0.2296
52152DOD     C1  275  21.832  17.700  15.824 -0.1053 -0.1173  0.3250
52152DOD     C2  276  21.440  17.446  15.898 -0.1125 -0.3687 -0.1302
52152DOD     C3  277  21.129  17.427  16.279  0.1227 -0.1038 -0.1006
52153DOD     C1  278   7.730  23.338   3.694  0.3202 -0.1210 -0.1598
52153DOD     C2  279   7.578  23.368   4.111 -0.4293 -0.2288 -0.0315
52153DOD     C3  280   7.507  23.477   4.551  0.1412  0.0625  0.0671
52154DOD     C1  281   3.828  23.665  17.898  0.0338  0.2015  0.1430
52154DOD     C2  282   4.003  23.438  18.255  0.0598  0.3340 -0.1607
52154DOD     C3  283   4.042  23.108  18.585  0.3236 -0.2629 -0.0121
52155DOD     C1  284  21.066  13.266  22.419 -0.2427 -0.1777 -0.2100
52155DOD     C2  285  20.588  13.339  22.422 -0.1554  0.0252  0.2822
52155DOD     C3  286  20.188  13.157  22.583 -0.1137  0.2569 -0.1132
52156DOD     C1  287   1.795   6.413   5.379 -0.1971  0.0049 -0.0475
52156DOD     C2  288   1.949   6.000   5.181  0.0698 -0.0072 -0.0032
52156DOD     C3  289   1.896   5.524   5.134  0.0660 -0.1468 -0.0122
52157DOD     C1  290   3.771  24.137  27.929  0.2054  0.3945 -0.0571
52157DOD     C2  291   3.853  23.718  27.780  0.2840  0.1212 -0.1456
52157DOD     C3  292   3.534  23.425  27.568  0.1701  0.1355 -0.1309
52158DOD     C1  293  14.920   8.283  22.263  0.1943  0.0420 -0.2635
52158DOD     C2  294  15.182   8.030  21.930  0.0511 -0.0532 -0.0333
52158DOD     C3  295  15.486   8.005  21.579 -0.2336 -0.2265  0.1580
52159DOD     C1  296   2.246  10.003  27.713 -0.1498 -0.1487 -0.1838
52159DOD     C2  297   2.354  10.015  28.142 -0.1533  0.0623  0.0891
52159DOD     C3  298   2.661  10.147  28.431 -0.1612 -0.0698  0.0251
52160DOD     C1  299  26.726  25.384  30.092 -0.0095  0.1817  0.0111
52160DOD     C2  300  26.879  25.754  30.214 -0.0126  0.1548 -0.1026
52160DOD     C3  301  27.268  25.964  30.065  0.0108 -0.1898 -0.2177
52161DOD     C1  302  27.999   6.137  25.983  0.1151  0.2691  0.1119
52161DOD     C2  303  27.648   6.342  26.159 -0.1929  0.2959  0.4619
52161DOD     C3  304  27.447   6.625  26.409  0.0703  0.1560  0.2743
52162DOD     C1  305  29.938  26.900  23.381  0.1055 -0.0495 -0.0548
52162DOD     C2  306  30.121  26.469  23.573  0.0381  0.1253  0.0755
52162DOD     C3  307   0.280  26.355  23.669  0.1802 -0.1269  0.3593
52163DOD     C1  308  23.942  22.530  13.328  0.1879 -0.0889 -0.0087
52163DOD     C2  309  24.115  22.069  13.210 -0.2616  0.0957  0.2657
52163DOD     C3  310  24.218  21.726  12.953  0.3335 -0.0094 -0.0294
52164DOD     C1  311   4.639  20.717  15.712 -0.1558 -0.0734  0.0454
52164DOD     C2  312   4.725  21.109  15.428 -0.3258 -0.0153 -0.0165
52164DOD     C3  313   4.852  21.538  15.532  0.2339  0.0033 -0.0840
52165DOD     C1  314  13.109  15.363  18.404  0.0051 -0.3271  0.0623
52165DOD     C2  315  13.220  15.162  18.856 -0.1164  0.0247  0.0167
52165DOD     C3  316  12.839  15.111  19.133 -0.0100  0.2316 -0.3465
52166DOD     C1  317  16.049  13.227  16.709 -0.0479  0.1102  0.1316
52166DOD     C2  318  15.813  13.027  16.371 -0.2394  0.1163 -0.0648
52166DOD     C3  319  16.006  12.945  15.928 -0.0030  0.3209 -0.0898
52167DOD     C1  320  14.857  14.166  17.634 -0.2073 -0.2484 -0.1514
52167DOD     C2  321  14.774  13.868  18.001 -0.2663  0.1435 -0.3258
52167DOD     C3  322  14.701  13.471  18.301 -0.3982 -0.0987  0.1478
52168DOD     C1  323  27.662  20.646  14.016  0.1547  0.0351  0.2091
52168DOD     C2  324  27.854  21.033  14.141 -0.0054 -0.1697 -0.1793
52168DOD     C3  325  28.077  21.444  14.233  0.2269  0.0425  0.0082
52169DOD     C1  326  30.254  29.281   9.182 -0.0443 -0.1360 -0.0949
52169DOD     C2  327  29.800  29.152   9.225 -0.2139 -0.1734  0.1036
52169DOD     C3  328  29.389  29.362   9.057  0.1045 -0.1726  0.1594
52170DOD     C1  329  11.419   4.073  20.486  0.0121 -0.3124  0.0589
52170DOD     C2  330  11.158   4.378  20.733 -0.0552  0.0679  0.0971
52170DOD     C3  331  10.727   4.567  20.698 -0.0404 -0.0466 -0.0714
52171DOD     C1  332   0.311  22.141   6.885  0.0226 -0.0285  0.1184
52171DOD     C2  333  30.243  22.276   7.080  0.3364  0.2201  0.0183
52171DOD     C3  334  29.843  22.311   6.836 -0.0759 -0.1273  0.1025
52172DOD     C1  335  17.069  29.886  14.379  0.0952 -0.3617  0.0372
52172DOD     C2  336  17.046  29.477  14.293  0.1821 -0.0095  0.1139
52172DOD     C3  337  16.710  29.261  14.095  0.1590  0.1861 -0.0578
52173DOD     C1  338   4.018  29.648  13.401 -0.0753  0.0257 -0.0338
52173DOD     C2  339   3.599  29.421  13.315  0.0523 -0.1033  0.0595
52173DOD     C3  340   3.309  29.087  13.504  0.1692 -0.2360 -0.2088
52174DOD     C1  341  22.565   2.105  11.861 -0.0021  0.0913  0.1670
52174DOD     C2  342  22.353   1.837  11.498  0.2171 -0.1973 -0.1046
52174DOD     C3  343  21.962   1.551  11.455 -0.0109 -0.0227  0.0535
52175DOD     C1  344  28.892  29.235   8.061  0.1320 -0.0030 -0.1360
52175DOD     C2  345  29.305  29.483   7.900 -0.1645  0.0442  0.1140
52175DOD     C3  346  29.718  29.603   7.800  0.0021 -0.1237 -0.0311
52176DOD     C1  347  13.781   3.698  11.701 -0.0214 -0.0647  0.0399
52176DOD     C2  348  13.409   3.498  11.892  0.1837  0.2749  0.0528
52176DOD     C3  349  12.976   3.349  11.900  0.0474  0.0607 -0.0314
52177DOD     C1  350  11.105  26.094  27.398  0.2739  0.0431  0.1679
52177DOD     C2  351  11.012  26.464  27.670 -0.1923  0.0727  0.1020
52177DOD     C3  352  10.918  26.920  27.797 -0.0537  0.3991  0.1491
52178DOD     C1  353   6.354  11.030   7.474 -0.3052 -0.1187  0.0369
52178DOD     C2  354   6.323  11.509   7.433 -0.1112  0.0083 -0.2376
52178DOD     C3  355   6.410  12.000   7.595 -0.2865  0.1544 -0.3232
52179DOD     C1  356  26.875   1.327   8.641 -0.0411  0.1951 -0.0346
52179DOD     C2  357  27.100   1.038   8.940 -0.5186  0.2757  0.0695
52179DOD     C3  358  27.073   0.661   9.268 -0.0106  0.0053  0.0962
52180DOD     C1  359   4.765  25.819  18.621 -0.0852  0.0221  0.4760
52180DOD     C2  360   4.475  26.188  18.584  0.1136  0.0690  0.0832
52180DOD     C3  361   4.306  26.564  18.817  0.0557 -0.0379  0.1700
52181DOD     C1  362  28.729   6.416  22.362  0.1656  0.4052 -0.0473
52181DOD     C2  363  29.088   6.628  22.152  0.0421  0.1405 -0.1110
52181DOD     C3  364  29.430   6.601  21.833  0.0290 -0.2158 -0.2216
52182DOD     C1  365   9.819  11.160   6.418 -0.2796 -0.2041  0.0592
52182DOD     C2  366   9.724  10.823   6.738  0.2145 -0.0469 -0.2373
52182DOD     C3  367   9.952  10.423   6.928 -0.0387  0.0777 -0.1880
52183DOD     C1  368  17.398  19.768   8.208 -0.0740 -0.1744  0.2441
52183DOD     C2  369  17.278  19.366   8.475  0.0904 -0.1674  0.6255
52183DOD     C3  370  17.316  18.905   8.499  0.0395  0.1056 -0.2423
52184DOD     C1  371  29.735  26.628  14.597  0.1577 -0.0382  0.2430
52184DOD     C2  372  29.553  26.334  14.958 -0.2933 -0.2016  0.0589
52184DOD     C3  373  29.246  25.952  15.033 -0.1657  0.1166  0.0562
52185DOD     C1  374   3.250  25.674  12.753 -0.3060  0.1427  0.0112
52185DOD     C2  375   3.262  25.787  13.270 -0.1189  0.0870  0.3478
52185DOD     C3  376   3.233  25.464  13.563 -0.0934  0.1650 -0.1026
52186DOD     C1  377   0.188  29.324  25.029  0.1561  0.3033 -0.0767
52186DOD     C2  378   0.069  28.872  25.159 -0.1520  0.0089  0.0578
52186DOD     C3  379  30.197  28.510  25.406 -0.1575 -0.1482  0.0573
52187DOD     C1  380   2.421  27.105  26.871 -0.2996 -0.3048 -0.1313
52187DOD     C2  381   2.251  27.569  26.899 -0.1311  0.1894 -0.0149
52187DOD     C3  382   2.019  27.952  26.667  0.3378  0.1275 -0.0884
52188DOD     C1  383  19.696   5.543  19.238  0.0575  0.2742  0.2268
52188DOD     C2  384  19.687   5.784  19.696  0.0962 -0.0924  0.0955
52188DOD     C3  385  20.112   5.777  19.907  0.2200  0.0098  0.0331
52189DOD     C1  386   2.416  28.487   1.725 -0.2274 -0.0715  0.0030
52189DOD     C2  387   2.876  28.529   1.725  0.0310  0.0744 -0.0157
52189DOD     C3  388   3.310  28.552   1.534 -0.2982 -0.0213 -0.4409
52190DOD     C1  389   2.880  14.666   7.491  0.1059  0.0134 -0.2123
52190DOD     C2  390   3.017  14.257   7.449 -0.0142  0.0730 -0.2540
52190DOD     C3  391   3.250  14.063   7.800  0.2326 -0.0283  0.0020
52191DOD     C1  392  25.720   1.201  20.672  0.3555 -0.0763  0.1016
52191DOD     C2  393  25.534   1.559  20.759 -0.0495 -0.0911 -0.0186
52191DOD     C3  394  25.333   2.028  20.591 -0.1626 -0.3461  0.0229
52192DOD     C1  395  22.733  14.057  12.117 -0.1372  0.1605  0.0729
52192DOD     C2  396  22.498  14.260  11.810  0.1387 -0.0232  0.0793
52192DOD     C3  397  22.256  14.467  11.472  0.2602 -0.0489 -0.0875
52193DOD     C1  398  23.900  25.869  10.025 -0.0962  0.2789  0.0333
52193DOD     C2  399  24.157  25.883   9.599 -0.2308 -0.0662 -0.1736
52193DOD     C3  400  24.469  25.650   9.421  0.2547 -0.1935  0.0332
52194DOD     C1  401  28.534  17.000  14.963 -0.1416  0.0709 -0.2653
52194DOD     C2  402  28.054  16.947  15.091  0.0067  0.3397  0.1560
52194DOD     C3  403  27.713  16.822  15.358  0.4701  0.1460  0.0830
52195DOD     C1  404   2.010   5.878   8.936  0.0086  0.1295 -0.0663
52195DOD     C2  405   2.087   6.186   9.231 -0.1051  0.1290 -0.4593
52195DOD     C3  406   2.254   6.359   9.673  0.1896 -0.3216 -0.2844
52196DOD     C1  407  16.967   9.926  29.669  0.0525  0.0306 -0.0973
52196DOD     C2  408  17.206   9.824  29.288  0.1404 -0.0058  0.0891
52196DOD     C3  409  17.097   9.616  28.880  0.0722 -0.1022  0.0149
52197DOD     C1  410  13.321   7.894  26.653 -0.1419  0.0033 -0.2266
52197DOD     C2  411  13.674   7.683  26.489 -0.3994 -0.2545  0.0578
52197DOD     C3  412  14.099   7.766  26.318 -0.1321  0.3549  0.0127
52198DOD     C1  413  25.856  16.517  18.252 -0.0329  0.1798  0.0210
52198DOD     C2  414  26.282  16.648  18.346 -0.1444  0.0777  0.1485
52198DOD     C3  415  26.768  16.748  18.313 -0.1368  0.2070 -0.3289
52199DOD     C1  416  24.110  11.840  13.755 -0.1941  0.1121 -0.0686
52199DOD     C2  417  24.067  11.674  14.233 -0.0552 -0.2769  0.0333
52199DOD     C3  418  24.030  11.231  14.309  0.2440  0.1407  0.4929
52200DOD     C1  419   8.296   2.633  20.080 -0.0332 -0.0926  0.1661
52200DOD     C2  420   7.904   2.395  20.119 -0.1880  0.1398 -0.0148
52200DOD     C3  421   7.598   2.203  20.395 -0.0987  0.2297  0.2245
52201DOD     C1  422  29.296   3.459  24.046  0.1038 -0.3763 -0.3259
52201DOD     C2  423  29.360   3.349  23.599  0.0419  0.0734  0.3450
52201DOD     C3  424  29.708   3.523  23.285 -0.2670  0.1061 -0.2131
52202DOD     C1  425  25.936  21.925  18.641  0.0834 -0.0862 -0.1801
52202DOD     C2  426  25.616  21.821  18.292  0.1049 -0.0012  0.1688
52202DOD     C3  427  25.319  21.776  17.931 -0.0712 -0.3913 -0.0938
52203DOD     C1  428  29.302  12.886   9.441 -0.0915 -0.0342 -0.1020
52203DOD     C2  429  28.943  13.105   9.637 -0.0476 -0.0658  0.0065
52203DOD     C3  430  28.747  13.291  10.024  0.2983 -0.0858  0.3157
52204DOD     C1  431  19.554  28.555  29.633  0.0435 -0.1144  0.2307
52204DOD     C2  432  19.886  28.431  29.878 -0.2554 -0.0180  0.0985
52204DOD     C3  433  20.364  28.253  30.051  0.1350 -0.3517 -0.2221
52205DOD     C1  434  25.031  18.773  28.941  0.2107  0.0615 -0.2267
52205DOD     C2  435  25.276  18.370  28.797  0.4295  0.1175 -0.1173
52205DOD     C3  436  25.205  17.924  28.729 -0.1231  0.1989  0.0573
52206DOD     C1  437  20.782  26.511  11.592  0.4087 -0.4159  0.0009
52206DOD     C2  438  20.597  26.101  11.489 -0.3809  0.2949 -0.0008
52206DOD     C3  439  20.266  25.985  11.219 -0.1936  0.4327 -0.2191
52207DOD     C1  440  17.875  15.390  17.188  0.0887  0.1044  0.0012
52207DOD     C2  441  18.001  15.832  17.152  0.1130  0.1377 -0.0759
52207DOD     C3  442  17.814  16.220  17.232 -0.1512  0.0772 -0.3836
52208DOD     C1  443   2.587  11.794  11.063  0.0622 -0.2119  0.2786
52208DOD     C2  444   2.842  11.428  10.902 -0.1814 -0.1974 -0.1603
52208DOD     C3  445   2.847  11.176  10.518 -0.0872 -0.4742 -0.1553
52209DOD     C1  446  21.223   2.082  22.065  0.2779  0.1333 -0.2350
52209DOD     C2  447  21.204   1.648  21.865  0.1120 -0.2015 -0.0965
52209DOD     C3  448  21.343   1.271  21.597  0.0818  0.2595  0.3420
52210DOD     C1  449  27.754  27.952   6.740  0.0442  0.1438  0.1649
52210DOD     C2  450  27.433  28.126   7.016  0.0458 -0.0405  0.2619
52210DOD     C3  451  27.330  28.529   7.267 -0.3050 -0.0904 -0.1188
52211DOD     C1  452  21.035   0.296  11.990  0.0650 -0.0069  0.2242
52211DOD     C2  453  21.141  30.274  12.296 -0.4023  0.1559  0.0818
52211DOD     C3  454  21.212  29.998  12.656 -0.4480  0.2213  0.1086
52212DOD     C1  455   8.015  10.265   6.259 -0.1448  0.1512 -0.0669
52212DOD     C2  456   8.175  10.171   6.700 -0.5418 -0.1324 -0.0224
52212DOD     C3  457   8.186  10.348   7.066  0.1419  0.1245  0.0447
52213DOD     C1  458   0.638   0.875  28.528 -0.2953  0.0391 -0.3516
52213DOD     C2  459   1.068   1.022  28.619 -0.0163  0.0067  0.1389
52213DOD     C3  460   1.385   1.068  28.940 -0.0208 -0.0812 -0.1240
52214DOD     C1  461   4.630   9.810  13.347  0.1353  0.0077 -0.2672
52214DOD     C2  462   4.813  10.209  13.168  0.1262  0.1056 -0.0795
52214DOD     C3  463   4.687  10.613  12.959  0.0245 -0.2231  0.1399
52215DOD     C1  464  28.686  27.194  10.561 -0.3135  0.0812 -0.4201
52215DOD     C2  465  28.408  26.958  10.287  0.0953  0.0682 -0.1338
52215DOD     C3  466  28.317  26.908   9.855 -0.2640 -0.1372 -0.1480
52216DOD     C1  467   3.536   4.575   8.717 -0.1156  0.1844 -0.2568
52216DOD     C2  468   3.145   4.617   9.004  0.2162  0.2156  0.2538
52216DOD     C3  469   3.172   4.743   9.397 -0.2113  0.1883  0.1455
52217DOD     C1  470   6.001  14.888   2.199  0.4654 -0.1984  0.1128
52217DOD     C2  471   6.133  15.248   2.010  0.0043  0.1766  0.2591
52217DOD     C3  472   6.327  15.657   2.082 -0.1857 -0.0718 -0.2932
52218DOD     C1  473  29.239   8.256  27.779 -0.0134  0.0272 -0.1669
52218DOD     C2  474  28.993   8.687  27.821 -0.0692  0.3478  0.1065
52218DOD     C3  475  28.964   8.987  28.099 -0.1580 -0.1014  0.0944
52219DOD     C1  476  11.706  25.016  10.855 -0.0578  0.0071  0.1909
52219DOD     C2  477  11.995  25.384  10.738  0.0814  0.2434  0.1831
52219DOD     C3  478  11.975  25.796  10.840 -0.2483  0.1229 -0.2120
52220DOD     C1  479   8.952  13.701  25.941 -0.1630 -0.3492  0.0041
52220DOD     C2  480   8.783  13.458  25.590  0.1412  0.1808  0.2577
52220DOD     C3  481   8.694  13.024  25.446  0.0467 -0.2088 -0.1031
52221DOD     C1  482  25.084   6.753   8.581 -0.0454  0.0580  0.0527
52221DOD     C2  483  25.356   7.030   8.895  0.1543 -0.0599 -0.0157
52221DOD     C3  484  25.453   7.398   9.202  0.1903 -0.2280  0.0431
52222DOD     C1  485  29.126   5.130  24.000  0.1820  0.0169 -0.2797
52222DOD     C2  486  29.088   4.924  23.567  0.0836 -0.1509 -0.5556
52222DOD     C3  487  29.383   4.908  23.249  0.2004  0.0336  0.1252
52223DOD     C1  488  29.587  27.886  21.741 -0.0663  0.0009 -0.2040
52223DOD     C2  489  29.691  27.946  22.168  0.1607 -0.2563 -0.0601
52223DOD     C3  490  29.823  28.355  22.474  0.0479  0.0277 -0.0197
52224DOD     C1  491  24.361  18.733  23.793 -0.0186  0.1712 -0.0494
52224DOD     C2  492  24.780  18.924  23.826  0.0935 -0.0232  0.3334
52224DOD     C3  493  25.196  18.700  23.881  0.2173 -0.0392  0.0420
52225DOD     C1  494  12.940  28.727   8.992  0.1050 -0.2882  0.0953
52225DOD     C2  495  13.408  28.705   9.045 -0.1777  0.0756 -0.4713
52225DOD     C3  496  13.804  28.950   9.186  0.0084 -0.1767 -0.0051
52226DOD     C1  497  20.967  18.094   4.860 -0.3083 -0.1599  0.1786
52226DOD     C2  498  21.119  17.874   4.459 -0.2537 -0.0083  0.0485
52226DOD     C3  499  21.011  17.520   4.236  0.1820  0.1915 -0.0428
52227DOD     C1  500   2.559   5.943   7.942  0.0138 -0.0428  0.1893
52227DOD     C2  501   2.442   6.432   7.977 -0.0985 -0.1333  0.1819
52227DOD     C3  502   2.269   6.880   7.876 -0.2827 -0.1528 -0.0438
52228DOD     C1  503   8.718  28.698   3.447 -0.0296 -0.0783 -0.3330
52228DOD     C2  504   9.153  28.719   3.271  0.2715 -0.2515  0.1296
52228DOD     C3  505   9.551  28.856   3.149 -0.0683 -0.2188  0.1118
52229DOD     C1  506   1.647  10.526  20.956 -0.1013  0.1583 -0.0251
52229DOD     C2  507   1.560  10.286  20.576 -0.2568  0.2886 -0.4808
52229DOD     C3  508   1.462  10.359  20.119  0.3847  0.0465  0.1327
52230DOD     C1  509   8.712  29.631  13.634  0.0617  0.2713  0.1183
52230DOD     C2  510   8.363  29.407  13.862 -0.0458  0.1460  0.3762
52230DOD     C3  511   7.967  29.501  14.021 -0.3610  0.1169  0.1286
52231DOD     C1  512  29.094   0.975   7.540  0.1616 -0.3362 -0.1696
52231DOD     C2  513  29.329   1.311   7.303  0.0447 -0.4454  0.2007
52231DOD     C3  514  29.581   1.540   6.946  0.1919  0.0219 -0.1678
52232DOD     C1  515  17.244  12.396  13.025  0.0400  0.2732 -0.0477
52232DOD     C2  516  17.399  12.557  13.462  0.3387 -0.0408  0.0756
52232DOD     C3  517  17.519  12.831  13.843  0.2041 -0.5277  0.1929
52233DOD     C1  518  24.151   7.240  23.893  0.1244  0.3918 -0.1660
52233DOD     C2  519  24.613   7.247  23.724 -0.2567 -0.4634  0.1758
52233DOD     C3  520  24.975   7.453  23.488 -0.0842  0.0395 -0.0780
52234DOD     C1  521   6.135  25.176  25.300 -0.1486 -0.1092 -0.2754
52234DOD     C2  522   5.779  24.998  25.116 -0.2022 -0.0044  0.1291
52234DOD     C3  523   5.338  24.749  25.062  0.0588  0.0220  0.2901
52235DOD     C1  524  21.956  29.576  16.045  0.0771 -0.3490  0.2308
52235DOD     C2  525  22.453  29.485  16.039 -0.2437  0.0838 -0.1326
52235DOD     C3  526  22.848  29.244  16.057  0.1547 -0.1524 -0.2425
52236DOD     C1  527   3.790  14.888  26.349 -0.0189  0.1370  0.1382
52236DOD     C2  528   4.128  15.195  26.470 -0.1329 -0.1617 -0.0481
52236DOD     C3  529   4.400  15.586  26.291  0.3307  0.3281  0.0166
52237DOD     C1  530  18.744  17.748  13.294 -0.0235 -0.2018 -0.1175
52237DOD     C2  531  18.543  18.107  13.213 -0.2231 -0.0628  0.2969
52237DOD     C3  532  18.141  18.306  13.037 -0.2158  0.1389 -0.2987
52238DOD     C1  533  21.101   8.215  18.291  0.2902  0.0298 -0.2313
52238DOD     C2  534  21.565   8.315  18.430  0.0149 -0.0533 -0.0625
52238DOD     C3  535  21.985   8.408  18.316  0.1500 -0.3601 -0.1704
52239DOD     C1  536   0.787   7.388  18.205  0.1694 -0.1230 -0.3107
52239DOD     C2  537   0.405   7.371  17.895 -0.0667 -0.3931 -0.0322
52239DOD     C3  538  30.316   7.310  17.676 -0.0035 -0.3649 -0.2066
52240DOD     C1  539  12.488   0.070  19.667  0.2644  0.1628 -0.0158
52240DOD     C2  540  12.776  30.310  19.405 -0.1053  0.0367  0.0840
52240DOD     C3  541  12.923   0.097  18.982 -0.0188 -0.1556  0.3036
52241DOD     C1  542   7.130  16.343   4.813 -0.0847 -0.2214  0.1235
52241DOD     C2  543   7.559  16.213   4.942  0.0563 -0.0532  0.2483
52241DOD     C3  544   7.891  16.157   5.248  0.0842 -0.1077  0.0007
52242DOD     C1  545  10.635  15.826  20.872  0.0886 -0.1610  0.2266
52242DOD     C2  546  11.072  15.740  20.878 -0.2763 -0.0235 -0.3122
52242DOD     C3  547  11.477  15.805  20.594 -0.1574  0.0087 -0.2492
52243DOD     C1  548  29.691   2.576   5.212  0.1023 -0.2948 -0.4997
52243DOD     C2  549  29.374   2.372   4.936  0.0245  0.1235  0.1869
52243DOD     C3  550  28.935   2.470   4.797  0.1540  0.0364  0.0685
52244DOD     C1  551  17.474  15.544  18.501  0.0285  0.1305 -0.1028
52244DOD     C2  552  17.245  15.218  18.241 -0.0525 -0.0121  0.1529
52244DOD     C3  553  17.203  14.779  18.311 -0.2474 -0.1793  0.2611
52245DOD     C1  554  18.004   8.075  25.042 -0.2145  0.1693 -0.0818
52245DOD     C2  555  17.776   7.938  24.579 -0.1730  0.0477 -0.3168
52245DOD     C3  556  17.832   8.131  24.138  0.2077 -0.2071 -0.1557
52246DOD     C1  557  15.721  24.605  12.492 -0.1187 -0.0413  0.3547
52246DOD     C2  558  15.855  24.239  12.328  0.2946 -0.0844  0.0308
52246DOD     C3  559  15.658  23.935  12.006 -0.2625 -0.2333  0.1828
52247DOD     C1  560  10.434  13.367  16.329 -0.3775  0.1129  0.0366
52247DOD     C2  561  10.720  13.292  15.882  0.2603  0.4966 -0.0987
52247DOD     C3  562  10.931  13.355  15.497 -0.1351  0.0846 -0.0722
52248DOD     C1  563  29.768  28.890   0.480  0.1188 -0.1955 -0.0376
52248DOD     C2  564  29.563  29.292   0.373  0.1047  0.2320  0.2529
52248DOD     C3  565  29.411  29.603   0.030 -0.2126  0.0976  0.0695
52249DOD     C1  566  10.116   6.332   1.651 -0.2007 -0.2176 -0.1634
52249DOD     C2  567   9.759   6.598   1.791 -0.3453  0.1947  0.0883
52249DOD     C3  568   9.737   7.063   1.730 -0.1532 -0.0930  0.1883
52250DOD     C1  569   4.937  10.739  21.106 -0.0336  0.2306  0.2236
52250DOD     C2  570   4.703  10.896  20.755  0.1081  0.0282 -0.3070
52250DOD     C3  571   4.390  10.861  20.455 -0.0908 -0.0183  0.0052
52251DOD     C1  572   1.574   6.655  13.997 -0.1890 -0.3404 -0.3622
52251DOD     C2  573   1.813   6.291  13.825  0.3255  0.2547 -0.1384
52251DOD     C3  574   1.858   5.859  13.615 -0.0517 -0.0880 -0.0617
52252DOD     C1  575  17.593   6.668  25.261 -0.1161 -0.1461 -0.2840
52252DOD     C2  576  17.738   6.469  25.680 -0.3043 -0.2076  0.1103
52252DOD     C3  577  17.884   6.580  26.099 -0.2531  0.1695 -0.0045
52253DOD     C1  578  16.009  10.068  21.625 -0.5509 -0.1625  0.0431
52253DOD     C2  579  16.220  10.027  21.213  0.1075  0.0595 -0.3528
52253DOD     C3  580  16.162  10.030  20.764 -0.3384  0.1150 -0.0681
52254DOD     C1  581  20.562   1.206  16.349 -0.0218 -0.0248 -0.2416
52254DOD     C2  582  20.476   0.770  16.415  0.1965  0.1546  0.3310
52254DOD     C3  583  20.754   0.419  16.623 -0.1717  0.4037 -0.0468
52255DOD     C1  584  21.592  23.204  12.411 -0.0809 -0.0801 -0.0448
52255DOD     C2  585  21.183  23.127  12.204  0.0605 -0.0789  0.0768
52255DOD     C3  586  20.761  22.959  12.167 -0.0626  0.1521 -0.1144
52256DOD     C1  587  12.317   4.703  15.560 -0.2737 -0.0721  0.0345
52256DOD     C2  588  12.611   4.836  15.299 -0.1648 -0.0986  0.2389
52256DOD     C3  589  12.922   4.839  14.979 -0.1135  0.1797 -0.2435
52257DOD     C1  590  27.597  23.006  13.556 -0.2264 -0.2027  0.1155
52257DOD     C2  591  28.076  23.075  13.476 -0.0824 -0.1458  0.2293
52257DOD     C3  592  28.518  23.271  13.648 -0.0289  0.0268  0.0570
52258DOD     C1  593  21.560  21.986  15.422 -0.0022  0.2601 -0.2102
52258DOD     C2  594  21.384  22.008  14.952 -0.1124 -0.4430 -0.2189
52258DOD     C3  595  21.219  21.905  14.497  0.2072  0.0705 -0.2257
52259DOD     C1  596  22.071  22.340  21.839  0.2800 -0.1163 -0.0192
52259DOD     C2  597  22.241  22.105  21.507  0.1110 -0.0197  0.2032
52259DOD     C3  598  22.068  21.875  21.145 -0.3505 -0.0148 -0.6127
52260DOD     C1  599   7.221   7.074   5.045  0.1331  0.0186 -0.0483
52260DOD     C2  600   7.007   7.397   4.887 -0.1511 -0.0038  0.0219
52260DOD     C3  601   7.012   7.830   4.880 -0.1645 -0.0397 -0.1918
52261DOD     C1  602  13.243  23.080   8.176 -0.0888 -0.3281  0.0072
52261DOD     C2  603  13.176  22.865   8.611 -0.0903 -0.0953  0.1668
52261DOD     C3  604  12.809  22.597   8.729  0.1533  0.0140 -0.0830
52262DOD     C1  605  19.037  26.654   0.363 -0.0404  0.0581  0.2945
52262DOD     C2  606  19.349  26.709   0.741 -0.1044 -0.2252  0.0903
52262DOD     C3  607  19.495  27.098   0.998  0.1630  0.1869 -0.0299
52263DOD     C1  608  14.611  27.270  18.593 -0.0696  0.0469  0.4256
52263DOD     C2  609  14.920  27.243  18.208 -0.3488 -0.3687  0.0376
52263DOD     C3  610  15.171  27.236  17.857 -0.0896  0.1467 -0.2365
52264DOD     C1  611   0.986  19.012   1.137  0.4893  0.1810  0.0646
52264DOD     C2  612   1.073  19.365   1.273 -0.0924 -0.1843  0.3583
52264DOD     C3  613   1.036  19.758   1.489  0.3519 -0.2068  0.1810
52265DOD     C1  614   7.465   6.632   2.719 -0.3581 -0.0075 -0.0452
52265DOD     C2  615   7.780   6.874   2.942  0.0317 -0.4027 -0.0233
52265DOD     C3  616   8.170   7.118   3.083 -0.0076  0.0126 -0.0166
52266DOD     C1  617   2.778   9.020  27.154 -0.2986  0.2969 -0.1235
52266DOD     C2  618   3.021   9.262  27.487 -0.1328  0.2228  0.1009
52266DOD     C3  619   2.994   9.330  27.933  0.3370  0.1345 -0.0384
52267DOD     C1  620  23.390  28.076  28.158 -0.2901  0.1247 -0.0686
52267DOD     C2  621  23.335  27.648  28.089 -0.1011 -0.1202 -0.0336
52267DOD     C3  622  23.277  27.295  28.324 -0.0273 -0.2459 -0.0588
52268DOD     C1  623  27.082  24.067   0.343  0.2535  0.2277 -0.0644
52268DOD     C2  624  27.034  23.707   0.084 -0.0165 -0.1230 -0.0162
52268DOD     C3  625  27.380  23.547  30.162  0.0300 -0.1016  0.1778
52269DOD     C1  626   8.453   1.343   5.882 -0.1986  0.2804 -0.1882
52269DOD     C2  627   7.996   1.410   5.983  0.1508  0.2452  0.0846
52269DOD     C3  628   7.606   1.330   6.221  0.2045 -0.2162 -0.0802
52270DOD     C1  629  27.126  29.841  16.231 -0.1746  0.1520  0.1705
52270DOD     C2  630  27.193  30.245  16.082  0.1114 -0.1803  0.1916
52270DOD     C3  631  26.886   0.202  15.868  0.3816 -0.1084  0.0547
52271DOD     C1  632   9.266  27.051  21.961 -0.0074  0.0222 -0.0576
52271DOD     C2  633   9.244  27.313  22.336 -0.1867 -0.0097 -0.1364
52271DOD     C3  634   8.897  27.502  22.622  0.2535 -0.1035  0.1662
52272DOD     C1  635   1.738  15.519  28.620 -0.1311  0.0310 -0.0002
52272DOD     C2  636   1.701  15.964  28.347 -0.2387  0.1256  0.1945
52272DOD     C3  637   1.673  15.940  27.891 -0.1268  0.0231  0.0849
52273DOD     C1  638  25.136   2.951  21.070 -0.1337  0.2050  0.1938
52273DOD     C2  639  25.525   3.196  21.172  0.1751  0.2295  0.0507
52273DOD     C3  640  25.919   3.417  21.030 -0.0540  0.1057  0.1823
52274DOD     C1  641  10.515  14.588  30.006 -0.1566  0.2525  0.2227
52274DOD     C2  642  10.501  14.531   0.169  0.1060 -0.0239 -0.0091
52274DOD     C3  643  10.115  14.248   0.327 -0.2726 -0.2614 -0.0761
52275DOD     C1  644   2.069  23.297  26.492 -0.0533  0.0186 -0.1447
52275DOD     C2  645   1.651  23.288  26.438 -0.2259 -0.0653 -0.3108
52275DOD     C3  646   1.481  23.153  26.035  0.0610 -0.0588  0.1089
52276DOD     C1  647  21.658  17.746   2.890 -0.2421 -0.1825  0.5105
52276DOD     C2  648  21.475  18.153   2.756 -0.1952  0.2148 -0.4901
52276DOD     C3  649  21.303  18.565   2.552 -0.2894  0.0091  0.0954
52277DOD     C1  650  17.369  15.805  21.182 -0.0776 -0.0872  0.1535
52277DOD     C2  651  17.505  15.723  20.762  0.2443  0.1608 -0.0368
52277DOD     C3  652  17.475  15.920  20.334 -0.0689 -0.0219  0.1137
52278DOD     C1  653  25.305  11.073   1.640  0.0220  0.1495  0.1422
52278DOD     C2  654  25.120  10.899   1.247  0.2139 -0.0886 -0.2570
52278DOD     C3  655  24.863  10.691   0.891 -0.4123  0.0983 -0.1723
52279DOD     C1  656  15.886  15.285  15.785 -0.1796 -0.1850 -0.1632
52279DOD     C2  657  15.674  15.628  15.573  0.0669 -0.1493 -0.2284
52279DOD     C3  658  15.854  16.034  15.424  0.2232  0.1512  0.0054
52280DOD     C1  659   3.262   9.871  26.618 -0.2935  0.0590 -0.0130
52280DOD     C2  660   2.906   9.958  26.388  0.0334 -0.2843 -0.0000
52280DOD     C3  661   2.467  10.065  26.241  0.1347 -0.1435  0.1557
52281DOD     C1  662   5.497   1.416  13.863  0.2947 -0.1468  0.0576
52281DOD     C2  663   5.037   1.478  13.684  0.3282 -0.0603 -0.2266
52281DOD     C3  664   4.716   1.788  13.627 -0.1462 -0.1694  0.0564
52282DOD     C1  665  26.209  23.579   6.574 -0.0567  0.1308 -0.2434
52282DOD     C2  666  26.600  23.466   6.816 -0.0400  0.0817  0.0323
52282DOD     C3  667  26.933  23.760   6.862  0.1325 -0.0267 -0.0701
52283DOD     C1  668   6.711   2.837  29.707  0.1833 -0.0049  0.0182
52283DOD     C2  669   6.686   3.278  29.771 -0.0025 -0.0789 -0.1297
52283DOD     C3  670   6.989   3.529  30.060 -0.1029 -0.1287 -0.0451
52284DOD     C1  671  12.690   1.384  14.845 -0.3559 -0.2637 -0.4366
52284DOD     C2  672  12.359   1.004  14.968 -0.1320  0.3030 -0.0603
52284DOD     C3  673  12.213   0.516  14.859 -0.1161  0.4420 -0.1674
52285DOD     C1  674  21.341   7.679  24.729 -0.2405  0.0752  0.0110
52285DOD     C2  675  21.519   7.268  24.828  0.0983 -0.2261  0.1922
52285DOD     C3  676  21.504   6.857  24.563  0.0499  0.3077 -0.0337
52286DOD     C1  677  10.864  11.440  23.246 -0.1182  0.1378  0.1019
52286DOD     C2  678  10.941  11.625  23.695 -0.1351  0.0380 -0.2611
52286DOD     C3  679  10.988  11.605  24.128 -0.0806 -0.0148 -0.1979
52287DOD     C1  680  20.268   3.758   3.977 -0.1610  0.0533  0.1490
52287DOD     C2  681  20.310   4.141   4.081  0.0232  0.0356  0.1494
52287DOD     C3  682  20.163   4.589   4.117 -0.4111  0.0545  0.1446
52288DOD     C1  683  15.455   1.580  20.286  0.5189  0.0444 -0.3584
52288DOD     C2  684  15.042   1.668  20.343  0.0563 -0.2588  0.1091
52288DOD     C3  685  14.560   1.624  20.123 -0.2661 -0.0122 -0.2971
52289DOD     C1  686   1.241  28.130  14.816 -0.2901 -0.0100 -0.1259
52289DOD     C2  687   1.649  28.124  15.079 -0.1059  0.2003  0.1202
52289DOD     C3  688   1.906  28.113  15.491  0.0903  0.0871  0.0356
52290DOD     C1  689  15.301  26.156  24.300 -0.0408  0.2134  0.1449
52290DOD     C2  690  15.608  25.795  24.116  0.2141 -0.0175 -0.1112
52290DOD     C3  691  15.569  25.418  23.879 -0.4220  0.0943 -0.0841
52291DOD     C1  692   0.843  21.469   1.095  0.1635  0.1428  0.0767
52291DOD     C2  693   0.620  21.267   0.781 -0.0075 -0.1029 -0.1731
52291DOD     C3  694   0.346  20.911   0.678  0.1520 -0.1290  0.2121
52292DOD     C1  695   7.438   3.711  18.237  0.0872 -0.1270 -0.0889
52292DOD     C2  696   7.278   4.123  17.982  0.3720 -0.1134  0.0844
52292DOD     C3  697   7.045   4.480  17.698  0.0585  0.0065  0.0909
52293DOD     C1  698  11.862   0.118  27.631 -0.1439  0.1718  0.1717
52293DOD     C2  699  11.961   0.384  27.262  0.1614  0.2015  0.2956
52293DOD     C3  700  11.856   0.599  26.878  0.3864 -0.0903 -0.3066
52294DOD     C1  701   4.573   9.189  21.361  0.3430  0.0009  0.1956
52294DOD     C2  702   4.206   8.939  21.561 -0.0048 -0.1870  0.0387
52294DOD     C3  703   4.139   8.620  21.910 -0.1938  0.1312  0.0220
52295DOD     C1  704   4.379   0.286  11.472 -0.1562  0.0515 -0.0001
52295DOD     C2  705   4.381  30.139  11.623 -0.1537  0.1344  0.2773
52295DOD     C3  706   4.149  29.810  11.918 -0.1651  0.2484 -0.1444
52296DOD     C1  707   4.209   1.956  13.748 -0.1251  0.0860 -0.0797
52296DOD     C2  708   4.269   1.468  13.760  0.0933  0.4553 -0.2060
52296DOD     C3  709   4.310   1.099  14.127  0.0851  0.0191 -0.0791
52297DOD     C1  710  27.506   7.186  26.153  0.1245  0.2218 -0.3628
52297DOD     C2  711  27.839   6.829  26.305  0.0163 -0.0005  0.0103
52297DOD     C3  712  28.285   6.845  26.460  0.0655  0.0692  0.2782
52298DOD     C1  713   2.255  22.336  10.419  0.2432  0.1748  0.0086
52298DOD     C2  714   2.450  22.438  10.001 -0.1675  0.0007 -0.3847
52298DOD     C3  715   2.774  22.586   9.770 -0.2675  0.0650  0.1964
52299DOD     C1  716   7.829  10.195   7.950  0.1422 -0.2591  0.1338
52299DOD     C2  717   7.409  10.109   8.036 -0.0302 -0.4229  0.0178
52299DOD     C3  718   7.095  10.432   7.962 -0.2746 -0.2708  0.0148
52300DOD     C1  719  16.698   0.219   0.144 -0.1779  0.0966  0.0501
52300DOD     C2  720  17.047   0.345   0.423  0.2231  0.0140  0.0741
52300DOD     C3  721  17.407   0.372   0.745  0.1415  0.1223  0.0520
52301DOD     C1  722  24.726  29.591  21.801  0.0208 -0.0781  0.1922
52301DOD     C2  723  25.138  29.767  21.750  0.1823  0.1185  0.1566
52301DOD     C3  724  25.550  29.945  21.684 -0.0019 -0.1323 -0.2275
52302DOD     C1  725  15.997   9.029   0.140  0.0783  0.0828  0.2020
52302DOD     C2  726  16.235   9.289   0.448  0.1786  0.0187  0.0119
52302DOD     C3  727  16.431   9.381   0.880  0.0271  0.1799  0.0025
52303DOD     C1  728  14.230   4.473  14.427  0.2277  0.0229  0.3367
52303DOD     C2  729  14.576   4.729  14.224  0.0189  0.1542  0.0395
52303DOD     C3  730  14.919   4.818  13.893 -0.0393 -0.2487  0.0921
52304DOD     C1  731  17.804   8.945  14.285 -0.2434  0.0313 -0.0822
52304DOD     C2  732  17.987   8.559  14.010 -0.0727 -0.0296  0.0938
52304DOD     C3  733  18.112   8.272  13.681 -0.1290 -0.1637  0.5871
52305DOD     C1  734  26.074  15.889   1.775  0.0235 -0.2604  0.1084
52305DOD     C2  735  26.206  15.550   1.487  0.1890  0.0562 -0.2725
52305DOD     C3  736  26.196  15.131   1.226 -0.2242 -0.2385 -0.1871
52306DOD     C1  737  20.995  13.019   8.126 -0.1873 -0.0356  0.2475
52306DOD     C2  738  21.033  13.488   8.211  0.1462  0.1265  0.1431
52306DOD     C3  739  21.228  13.827   8.003 -0.0527 -0.0524  0.2088
52307DOD     C1  740  14.120  28.130  28.099 -0.2820 -0.0500 -0.0716
52307DOD     C2  741  13.839  28.089  27.690  0.1414 -0.2583 -0.1189
52307DOD     C3  742  13.486  28.317  27.455 -0.1174 -0.0099  0.0725
52308DOD     C1  743   2.344  10.018  19.279 -0.1336  0.0719  0.1837
52308DOD     C2  744   2.225  10.326  19.608  0.2510 -0.0761 -0.2250
52308DOD     C3  745   1.856  10.504  19.772  0.2141 -0.0619 -0.2407
52309DOD     C1  746  22.387   0.893  27.105  0.1855  0.0973 -0.1434
52309DOD     C2  747  22.486   0.836  27.554  0.0307  0.1760  0.0738
52309DOD     C3  748  22.855   0.975  27.851  0.0644 -0.0554  0.1266
52310DOD     C1  749  11.603  25.169  15.982 -0.2240 -0.1748 -0.0721
52310DOD     C2  750  11.156  25.007  15.849 -0.0318  0.1682  0.0423
52310DOD     C3  751  10.777  24.728  15.983  0.0326 -0.0657 -0.0198
52311DOD     C1  752  25.372  29.637  30.106 -0.2354 -0.0154 -0.1523
52311DOD     C2  753  24.899  29.600  30.172  0.3910  0.3495  0.0805
52311DOD     C3  754  24.449  29.634   0.051  0.3894 -0.2458  0.1206
52312DOD     C1  755   4.934   8.171  28.537 -0.1505  0.1594  0.0902
52312DOD     C2  756   4.642   8.105  28.157  0.1254  0.2738  0.1014
52312DOD     C3  757   4.286   7.854  27.891 -0.2531  0.1523 -0.1587
52313DOD     C1  758  24.115  13.981  13.416 -0.2966 -0.2508 -0.0510
52313DOD     C2  759  23.998  14.418  13.443  0.0095 -0.1050 -0.2584
52313DOD     C3  760  23.946  14.834  13.211 -0.1155  0.0769 -0.1666
52314DOD     C1  761   7.400   9.568  27.783 -0.0751  0.1506 -0.2030
52314DOD     C2  762   7.173   9.805  28.113  0.2341  0.3509 -0.0037
52314DOD     C3  763   7.155   9.798  28.572 -0.3561  0.0357  0.4573
52315DOD     C1  764   1.069   1.583   1.637  0.1024 -0.1590  0.1939
52315DOD     C2  765   0.923   1.694   2.079  0.0043 -0.0383 -0.1508
52315DOD     C3  766   0.589   1.680   2.393  0.2863  0.1277 -0.0857
52316DOD     C1  767   5.320   2.482  21.662  0.2866  0.0501  0.1104
52316DOD     C2  768   5.649   2.156  21.714  0.0156  0.0891  0.0917
52316DOD     C3  769   6.107   2.129  21.941  0.1812  0.0409 -0.3686
52317DOD     C1  770  16.381   3.553  12.275  0.0010 -0.2135 -0.3448
52317DOD     C2  771  16.568   3.462  11.858 -0.1397 -0.0469 -0.0293
52317DOD     C3  772  16.553   3.224  11.446  0.0143 -0.2392 -0.0183
52318DOD     C1  773  12.674  15.564  26.857 -0.0030 -0.0644  0.1277
52318DOD     C2  774  12.778  15.978  26.568 -0.1840 -0.0462 -0.1271
52318DOD     C3  775  12.833  16.339  26.284 -0.3269 -0.0665 -0.1612
52319DOD     C1  776  28.545  29.916  20.060 -0.0116 -0.0812  0.2779
52319DOD     C2  777  28.597   0.082  20.146 -0.1628 -0.0034  0.0268
52319DOD     C3  778  28.844   0.492  20.180  0.3485  0.0765  0.1870
52320DOD     C1  779  17.724  16.752  22.041 -0.0823 -0.0904  0.1998
52320DOD     C2  780  18.202  16.823  22.078 -0.0192  0.1028  0.1183
52320DOD     C3  781  18.634  17.072  22.083  0.0955 -0.2056 -0.1065
52321DOD     C1  782  24.095   9.978   1.998 -0.1065  0.2767  0.4048
52321DOD     C2  783  24.351   9.617   2.173  0.0208  0.1113  0.4546
52321DOD     C3  784  24.250   9.178   2.375  0.1932 -0.1043  0.1298
52322DOD     C1  785  21.536  22.790  28.449  0.1185  0.0662 -0.1396
52322DOD     C2  786  21.751  22.558  28.800  0.0779  0.3692 -0.0531
52322DOD     C3  787  21.859  22.178  28.886  0.3369 -0.1221  0.0722
52323DOD     C1  788  14.643  20.817  19.942  0.0111  0.2325 -0.0967
52323DOD     C2  789  14.959  20.524  20.174 -0.3048  0.1252  0.0504
52323DOD     C3  790  15.075  20.330  20.579  0.0257  0.0622  0.0029
52324DOD     C1  791   6.088  21.722   2.470 -0.1135  0.0463 -0.0328
52324DOD     C2  792   5.733  21.447   2.447 -0.1957 -0.2085  0.0079
52324DOD     C3  793   5.480  21.197   2.161  0.1862  0.0945 -0.0796
52325DOD     C1  794  23.215  26.731  14.381 -0.0217 -0.2285  0.2204
52325DOD     C2  795  23.136  26.441  14.049  0.0507  0.2269  0.1954
52325DOD     C3  796  22.799  26.185  13.813  0.0098  0.0055  0.3592
52326DOD     C1  797  11.940  15.732  12.691 -0.1113 -0.0948  0.0083
52326DOD     C2  798  11.619  16.075  12.617  0.1424 -0.2010 -0.0318
52326DOD     C3  799  11.310  16.220  12.335  0.0991 -0.0350 -0.3200
52327DOD     C1  800   2.983  19.024  12.474  0.1130 -0.1648 -0.1914
52327DOD     C2  801   2.790  19.262  12.852  0.1481 -0.0459 -0.1281
52327DOD     C3  802   2.815  19.354  13.361 -0.0039 -0.0775  0.0147
52328DOD     C1  803  18.839  29.345   2.904  0.0855 -0.1522  0.0080
52328DOD     C2  804  18.955  29.097   3.220  0.0693 -0.1181 -0.0494
52328DOD     C3  805  18.879  28.670   3.381  0.1802 -0.0220  0.2527
52329DOD     C1  806  11.742   1.334  13.379 -0.1455  0.2549 -0.1747
52329DOD     C2  807  12.012   1.507  13.008  0.1126 -0.1676 -0.1087
52329DOD     C3  808  11.828   1.832  12.737  0.2818  0.2425  0.2679
52330DOD     C1  809   0.218  10.214  17.785 -0.1634  0.2181 -0.2605
52330DOD     C2  810  30.245  10.536  17.852 -0.0194  0.1475 -0.0688
52330DOD     C3  811  29.927  10.821  17.754  0.1635  0.0703 -0.0159
52331DOD     C1  812  16.291  12.565   0.756 -0.1591  0.0158 -0.1120
52331DOD     C2  813  16.593  12.806   0.460  0.2083 -0.2334  0.0280
52331DOD     C3  814  16.525  12.992   0.058  0.0895 -0.2246 -0.0521
52332DOD     C1  815   9.357   5.027  23.044 -0.1648 -0.0210  0.0511
52332DOD     C2  816   9.738   4.920  23.273  0.0187  0.1210 -0.0586
52332DOD     C3  817   9.719   4.562  23.599  0.1971 -0.5419 -0.1995
52333DOD     C1  818  24.074  10.499  29.543  0.3536 -0.2372  0.0978
52333DOD     C2  819  23.873  10.568  29.916 -0.2225  0.1465  0.0728
52333DOD     C3  820  23.618  10.404  30.289  0.1624  0.2380 -0.0622
52334DOD     C1  821   2.031   0.610   1.047 -0.1403 -0.2773 -0.0994
52334DOD     C2  822   2.430   0.721   1.283  0.2412  0.0671  0.0978
52334DOD     C3  823   2.733   0.816   1.652  0.0238 -0.1876 -0.1678
52335DOD     C1  824   2.860  28.476  23.735 -0.1906 -0.0060  0.0924
52335DOD     C2  825   2.998  28.894  23.660 -0.0779  0.1381  0.4173
52335DOD     C3  826   3.001  29.355  23.883  0.1247  0.1229 -0.3775
52336DOD     C1  827  13.794  21.241  13.343 -0.0249  0.1062  0.0571
52336DOD     C2  828  13.949  21.274  12.971  0.1522 -0.1955 -0.1511
52336DOD     C3  829  13.834  21.590  12.611  0.3617 -0.0308  0.1808
52337DOD     C1  830  17.374  20.024  26.901 -0.1990  0.1820  0.3076
52337DOD     C2  831  17.417  20.079  27.369 -0.1463  0.1302 -0.0431
52337DOD     C3  832  17.629  20.267  27.741  0.0782  0.0340 -0.0311
52338DOD     C1  833  14.038  16.599  28.219  0.2261 -0.2379  0.2631
52338DOD     C2  834  13.764  16.972  28.240  0.3017  0.0028  0.1491
52338DOD     C3  835  13.879  17.403  28.061 -0.1326 -0.2443 -0.0099
52339DOD     C1  836  22.810   4.849  19.142 -0.1157  0.1340  0.2411
52339DOD     C2  837  23.260   4.841  19.017 -0.1665  0.1809 -0.0996
52339DOD     C3  838  23.699   5.000  18.887  0.2155  0.4098 -0.3360
52340DOD     C1  839   8.720   8.046  24.110  0.0732 -0.1756 -0.2057
52340DOD     C2  840   8.420   7.939  23.781  0.1993  0.0266 -0.1470
52340DOD     C3  841   8.346   7.600  23.440 -0.3078  0.0010 -0.2527
52341DOD     C1  842  29.601  28.487  20.599 -0.1176 -0.3474 -0.1356
52341DOD     C2  843  29.944  28.670  20.426  0.0391 -0.1451  0.0122
52341DOD     C3  844  30.095  29.159  20.615  0.0155  0.0439 -0.1093
52342DOD     C1  845  28.514  11.918   8.741 -0.2797  0.1616 -0.0517
52342DOD     C2  846  28.737  11.555   8.934  0.0402 -0.4439  0.0822
52342DOD     C3  847  29.031  11.378   9.197 -0.0649  0.0667 -0.0496
52343DOD     C1  848  13.932   1.882  19.115  0.2517 -0.0706 -0.1302
52343DOD     C2  849  13.517   2.095  19.283 -0.1341 -0.3443  0.2013
52343DOD     C3  850  13.051   1.979  19.110 -0.1475 -0.2044  0.0816
52344DOD     C1  851  10.616   3.387  23.587 -0.1133 -0.1833 -0.0731
52344DOD     C2  852  10.730   3.787  23.444 -0.0309  0.2655 -0.0364
52344DOD     C3  853  10.760   4.100  23.095 -0.1761  0.0610  0.1639
52345DOD     C1  854  19.012  22.193  29.168  0.2000  0.2563 -0.0685
52345DOD     C2  855  18.982  21.745  29.206  0.0778 -0.0102  0.1009
52345DOD     C3  856  19.192  21.452  28.916 -0.0170  0.0763 -0.1863
52346DOD     C1  857   7.454  28.105   5.711  0.0016  0.2322  0.0587
52346DOD     C2  858   7.777  28.102   5.402  0.0854 -0.0500 -0.1825
52346DOD     C3  859   7.776  27.762   5.022  0.2463  0.1356 -0.2562
52347DOD     C1  860  18.722  23.646   4.633 -0.1041  0.2148  0.3373
52347DOD     C2  861  18.642  23.172   4.673 -0.3266  0.1718  0.0953
52347DOD     C3  862  18.521  22.816   4.980 -0.1922 -0.1162 -0.0271
52348DOD     C1  863  16.808  19.551  15.928 -0.3441  0.0755  0.1408
52348DOD     C2  864  17.073  19.915  16.045 -0.6075  0.0558  0.2057
52348DOD     C3  865  17.263  20.305  16.148 -0.1594  0.2845 -0.0863
52349DOD     C1  866  25.290   7.881  19.103 -0.0073  0.1062 -0.0465
52349DOD     C2  867  25.067   7.931  19.553 -0.3028  0.3295  0.4493
52349DOD     C3  868  25.121   8.045  20.047 -0.1040  0.0885  0.2491
52350DOD     C1  869  22.491  12.083   6.449  0.0409  0.0028  0.1188
52350DOD     C2  870  22.803  11.910   6.760 -0.0493 -0.2032  0.1320
52350DOD     C3  871  23.273  11.881   6.863  0.2545  0.1069  0.2365
52351DOD     C1  872  20.557   0.042  21.926 -0.3891  0.3363  0.1801
52351DOD     C2  873  20.573  29.934  21.740  0.1273  0.0898 -0.1945
52351DOD     C3  874  20.314  29.611  21.887  0.0118  0.4303  0.0963
52352DOD     C1  875   6.707   4.758  23.793  0.0742  0.0266  0.0329
52352DOD     C2  876   6.952   4.350  23.740 -0.2353  0.1365 -0.0507
52352DOD     C3  877   6.894   4.064  23.312  0.1153  0.0445  0.4841
52353DOD     C1  878  26.192   2.405   6.480  0.1585  0.0203 -0.1020
52353DOD     C2  879  26.705   2.342   6.432 -0.0293  0.0033 -0.1133
52353DOD     C3  880  27.062   2.192   6.117  0.1904 -0.0282  0.0874
52354DOD     C1  881  11.265   5.503  15.052  0.3451 -0.1205 -0.0339
52354DOD     C2  882  10.933   5.486  15.362  0.3935  0.0394  0.0328
52354DOD     C3  883  10.503   5.377  15.293 -0.3099  0.1422  0.2047
52355DOD     C1  884   6.061  11.385   9.512 -0.2856 -0.0261  0.3355
52355DOD     C2  885   6.249  11.042   9.863  0.3043 -0.0353 -0.2612
52355DOD     C3  886   6.553  10.685   9.914  0.2298 -0.1350 -0.1633
52356DOD     C1  887  23.632   0.200  27.518 -0.0745  0.1211  0.0537
52356DOD     C2  888  23.745   0.616  27.251 -0.1772 -0.0388 -0.2464
52356DOD     C3  889  23.526   0.893  26.899 -0.0244 -0.0254 -0.1134
52357DOD     C1  890   0.804   6.145  17.301  0.0427 -0.0312 -0.1865
52357DOD     C2  891   0.515   6.495  17.130  0.0281  0.2606 -0.1163
52357DOD     C3  892   0.034   6.422  17.011  0.1649 -0.0048  0.0995
52358DOD     C1  893   4.312   7.789   2.377 -0.3406  0.1179 -0.4464
52358DOD     C2  894   4.041   8.019   2.649  0.1076 -0.3263 -0.1810
52358DOD     C3  895   3.731   8.028   2.994  0.1591  0.1572  0.1663
52359DOD     C1  896  19.162  19.427  17.225 -0.3751  0.1374 -0.3507
52359DOD     C2  897  18.891  19.281  17.494  0.2781 -0.3900 -0.2828
52359DOD     C3  898  18.651  18.846  17.582 -0.3080 -0.3144 -0.2405
52360DOD     C1  899  20.968  19.927   3.533 -0.0446 -0.0613 -0.1115
52360DOD     C2  900  20.671  19.612   3.767 -0.0569  0.0312  0.1406
52360DOD     C3  901  20.542  19.177   3.705  0.2406  0.0188  0.2976
52361DOD     C1  902  28.732  24.172   1.822 -0.1646 -0.0245  0.5323
52361DOD     C2  903  28.397  23.948   1.582  0.3260  0.1774  0.0716
52361DOD     C3  904  28.122  23.988   1.270 -0.3749  0.1342  0.2361
52362DOD     C1  905  22.032  27.620  29.265  0.0849  0.1816 -0.1870
52362DOD     C2  906  21.750  27.347  29.523 -0.1281  0.0015 -0.0784
52362DOD     C3  907  21.671  27.101  29.976  0.0582 -0.0863  0.1080
52363DOD     C1  908   9.215  14.733   2.639  0.0939 -0.1366 -0.2116
52363DOD     C2  909   9.228  15.003   2.294  0.0992  0.2724 -0.0269
52363DOD     C3  910   9.487  15.069   1.911 -0.1513 -0.0308  0.0357
52364DOD     C1  911   8.621  10.694  22.701  0.0526  0.1210 -0.1615
52364DOD     C2  912   8.681  11.155  22.553 -0.0081 -0.2017 -0.1647
52364DOD     C3  913   8.691  11.438  22.197  0.1137  0.1500 -0.4485
52365DOD     C1  914  22.850  29.629  14.530  0.5923 -0.0973  0.0080
52365DOD     C2  915  22.427  29.490  14.279 -0.0516  0.0435 -0.3600
52365DOD     C3  916  22.160  29.173  14.002 -0.0242  0.1523 -0.0711
52366DOD     C1  917  12.254   8.121  13.281 -0.1096 -0.0625 -0.1043
52366DOD     C2  918  12.592   7.993  13.577 -0.3402 -0.0692  0.0303
52366DOD     C3  919  12.860   8.245  13.788  0.0535  0.0196 -0.3669
52367DOD     C1  920   6.419   6.111   3.702  0.2094 -0.1553 -0.0030
52367DOD     C2  921   6.481   6.416   3.334 -0.2778 -0.4810 -0.2413
52367DOD     C3  922   6.302   6.793   3.116  0.1768  0.0881  0.1649
52368DOD     C1  923  12.787  21.445  25.279 -0.1387 -0.0497  0.0264
52368DOD     C2  924  12.487  21.185  25.044  0.0004 -0.3605  0.3491
52368DOD     C3  925  12.104  20.927  24.866  0.0775 -0.0762 -0.2288
52369DOD     C1  926   6.970   2.153  11.362  0.1082 -0.1412 -0.0977
52369DOD     C2  927   6.819   2.335  10.945 -0.1936 -0.0213 -0.4358
52369DOD     C3  928   6.352   2.380  10.868  0.0457  0.1549  0.0301
52370DOD     C1  929  23.583   5.460  19.809 -0.0347  0.1284  0.4367
52370DOD     C2  930  23.526   5.117  20.048 -0.0528 -0.1393 -0.0715
52370DOD     C3  931  23.540   4.913  20.475 -0.0448 -0.2308  0.2444
52371DOD     C1  932  16.544   7.649  18.843  0.1976 -0.0849  0.0514
52371DOD     C2  933  16.393   8.018  19.077  0.0295  0.3224 -0.0533
52371DOD     C3  934  16.175   8.389  19.153  0.3215 -0.2708  0.1213
52372DOD     C1  935   3.096  14.575   7.917  0.2877 -0.2635  0.1491
52372DOD     C2  936   3.419  14.588   7.583  0.0946 -0.1379 -0.1660
52372DOD     C3  937   3.476  14.514   7.148  0.0296  0.0863 -0.2044
52373DOD     C1  938  25.544  12.119  25.880 -0.0832 -0.0170 -0.2844
52373DOD     C2  939  25.106  12.148  25.750 -0.1366 -0.1411  0.2161
52373DOD     C3  940  24.737  12.354  25.543  0.2948  0.0950  0.0315
52374DOD     C1  941  19.711   5.548  12.408 -0.1608 -0.2109  0.3054
52374DOD     C2  942  19.543   5.913  12.245  0.2924  0.1573 -0.0486
52374DOD     C3  943  19.332   6.203  11.864 -0.2065 -0.0398 -0.1131
52375DOD     C1  944  25.931  18.631   5.997  0.0518  0.0268  0.0938
52375DOD     C2  945  26.051  18.523   6.467 -0.2756  0.1998  0.1020
52375DOD     C3  946  26.114  18.143   6.729 -0.4316 -0.2189 -0.1635
52376DOD     C1  947   3.536  29.125  19.429  0.0929  0.1745 -0.0324
52376DOD     C2  948   3.485  29.037  19.885 -0.3876  0.0796 -0.2676
52376DOD     C3  949   3.765  28.820  20.165  0.0030  0.0286  0.0575
52377DOD     C1  950   2.493   6.163  15.887  0.0313  0.1794  0.2685
52377DOD     C2  951   2.832   5.809  15.968 -0.1180 -0.0683 -0.0431
52377DOD     C3  952   2.851   5.370  15.972 -0.0423  0.1374  0.0069
52378DOD     C1  953  16.763  12.171   1.791 -0.3122 -0.1470  0.0676
52378DOD     C2  954  16.931  12.559   1.953 -0.1069 -0.0330 -0.1786
52378DOD     C3  955  17.382  12.682   1.842  0.2122 -0.2177 -0.3591
52379DOD     C1  956  17.918   6.974   9.840  0.1323  0.0847  0.3178
52379DOD     C2  957  17.617   7.060   9.421  0.0046 -0.1492  0.0514
52379DOD     C3  958  17.197   7.351   9.298 -0.0545  0.0648 -0.2268
52380DOD     C1  959  18.278  29.623  13.564 -0.4178  0.3092 -0.0371
52380DOD     C2  960  18.570  29.697  13.925  0.0051  0.0947 -0.0160
52380DOD     C3  961  18.794  29.343  14.169 -0.2123 -0.1862 -0.3027
52381DOD     C1  962   8.142  29.887  13.304  0.0357 -0.3562  0.0677
52381DOD     C2  963   7.945  -0.026  13.480 -0.0374 -0.2300  0.0135
52381DOD     C3  964   7.676   0.159  13.789 -0.0484 -0.2799 -0.1246
52382DOD     C1  965  25.309  21.938  19.188 -0.0887  0.0085  0.1463
52382DOD     C2  966  25.503  22.092  18.806 -0.2357 -0.0279  0.2576
52382DOD     C3  967  25.305  22.252  18.398  0.1792  0.0203 -0.0898
52383DOD     C1  968  23.107  20.705  29.235 -0.1103  0.0097  0.0700
52383DOD     C2  969  22.899  21.090  29.162 -0.0804 -0.3825 -0.0758
52383DOD     C3  970  22.629  21.501  29.127 -0.1723 -0.1873 -0.0003
52384DOD     C1  971   9.953  16.954   1.438 -0.2103  0.3364 -0.2935
52384DOD     C2  972  10.091  16.537   1.616 -0.0509 -0.1955 -0.0634
52384DOD     C3  973  10.374  16.210   1.559  0.0926 -0.0214  0.1097
52385DOD     C1  974  25.634  13.521  21.286  0.0821 -0.2184  0.0861
52385DOD     C2  975  25.318  13.202  21.259 -0.2314 -0.0683 -0.0819
52385DOD     C3  976  24.820  13.082  21.267 -0.1501 -0.1764 -0.1106
52386DOD     C1  977  29.918  23.147  12.455 -0.2803 -0.1509 -0.0817
52386DOD     C2  978  30.094  23.557  12.215  0.0773 -0.0769 -0.3741
52386DOD     C3  979  29.910  23.989  12.058 -0.0146  0.0198 -0.1068
52387DOD     C1  980  19.327  13.108   3.377 -0.2747  0.0118  0.0856
52387DOD     C2  981  19.350  13.032   3.840 -0.0587  0.0876  0.3097
52387DOD     C3  982  19.687  13.185   4.119 -0.3309  0.0449 -0.1036
52388DOD     C1  983  15.657  21.693  10.718 -0.0175 -0.2256 -0.0350
52388DOD     C2  984  15.454  22.132  10.686  0.0317 -0.3659 -0.0226
52388DOD     C3  985  15.275  22.547  10.661  0.0693 -0.0436 -0.2909
52389DOD     C1  986   2.428   0.559   8.425  0.0142 -0.0714 -0.1172
52389DOD     C2  987   2.883   0.547   8.325 -0.1224  0.1480 -0.0227
52389DOD     C3  988   3.193   0.829   8.399 -0.2508 -0.1579  0.0894
52390DOD     C1  989  19.181  16.401  11.970 -0.3224  0.0552  0.3085
52390DOD     C2  990  19.464  16.231  11.673 -0.0401  0.1079 -0.0893
52390DOD     C3  991  19.753  16.045  11.324 -0.0383 -0.0241 -0.0807
52391DOD     C1  992  13.843  22.959  13.691 -0.4662  0.0679  0.2392
52391DOD     C2  993  13.650  22.985  13.218  0.0717  0.2264  0.2659
52391DOD     C3  994  13.665  23.095  12.766 -0.2854  0.0801  0.0394
52392DOD     C1  995  18.857  21.237   8.295 -0.1249 -0.0358  0.1342
52392DOD     C2  996  19.255  21.255   8.048  0.0132  0.0258  0.0556
52392DOD     C3  997  19.628  21.159   7.854  0.0560  0.0498  0.2336
52393DOD     C1  998   8.604  18.532   9.285 -0.3085  0.0788  0.1002
52393DOD     C2  999   8.474  18.833   9.555 -0.0280  0.1800 -0.3198
52393DOD     C3 1000   8.678  19.231   9.736 -0.0146  0.1418  0.0865
52394DOD     C1 1001  23.633  12.267  28.877 -0.0047 -0.2013  0.0218
52394DOD     C2 1002  23.231  11.966  28.843  0.0439 -0.0338 -0.0523
52394DOD     C3 1003  22.791  11.725  28.873  0.2095 -0.1653 -0.1175
52395DOD     C1 1004  14.454  13.691  11.227  0.2649 -0.0654 -0.1979
52395DOD     C2 1005  14.790  14.013  11.064 -0.1335  0.2302  0.0041
52395DOD     C3 1006  15.185  14.114  10.776 -0.1168  0.0415 -0.1936
52396DOD     C1 1007  27.208  12.884   4.898 -0.0612 -0.1488  0.1619
52396DOD     C2 1008  27.667  12.793   4.744  0.1036  0.2560  0.0555
52396DOD     C3 1009  28.031  13.116   4.786 -0.4381  0.3202  0.4839
52397DOD     C1 1010   3.180  16.450  16.825  0.0546 -0.3288 -0.0006
52397DOD     C2 1011   3.350  16.697  17.269  0.1177  0.3036  0.1754
52397DOD     C3 1012   3.263  17.051  17.545  0.1406 -0.4458 -0.0198
52398DOD     C1 1013   1.153  22.470  28.436 -0.6710 -0.1593  0.4376
52398DOD     C2 1014   1.034  22.839  28.208 -0.1013 -0.0856 -0.2103
52398DOD     C3 1015   0.815  23.090  27.862  0.1461  0.2176  0.0999
52399DOD     C1 1016  22.927   6.257  16.606  0.0377 -0.1822 -0.2715
52399DOD     C2 1017  22.575   6.080  16.861  0.0473 -0.1301  0.1110
52399DOD     C3 1018  22.407   5.786  17.124 -0.2391 -0.0253 -0.3728
52400DOD     C1 1019   0.867   6.179  13.525 -0.1506  0.1553  0.1050
52400DOD     C2 1020   0.774   5.721  13.527 -0.2875  0.0380 -0.1799
52400DOD     C3 1021   0.956   5.320  13.745 -0.0995 -0.1113 -0.1650
52401DOD     C1 1022   5.226   3.540  21.963  0.0144  0.0197  0.2815
52401DOD     C2 1023   5.213   3.235  22.353 -0.0230  0.0536  0.1879
52401DOD     C3 1024   5.248   3.073  22.779 -0.2201 -0.4662  0.1640
52402DOD     C1 1025  30.066   6.182  16.497 -0.0645 -0.1980 -0.0388
52402DOD     C2 1026  29.842   6.531  16.751 -0.0542 -0.3375  0.1631
52402DOD     C3 1027  29.544   6.849  16.949  0.2647  0.0277 -0.0805
52403DOD     C1 1028  28.305  22.600  29.769  0.0092 -0.4268 -0.1200
52403DOD     C2 1029  28.583  22.396  29.421 -0.1221 -0.0481 -0.2590
52403DOD     C3 1030  28.674  22.371  28.919  0.1327 -0.2169  0.1275
52404DOD     C1 1031  27.712  24.139   9.298 -0.1389  0.0852 -0.3852
52404DOD     C2 1032  28.093  23.910   9.310  0.0091  0.2378  0.1019
52404DOD     C3 1033  28.394  23.614   9.196 -0.0684 -0.0012 -0.0627
52405DOD     C1 1034  22.330   2.102  25.690 -0.0963  0.0809 -0.1529
52405DOD     C2 1035  22.668   2.265  25.956 -0.2119  0.3697 -0.1643
52405DOD     C3 1036  22.994   2.616  25.878  0.0257 -0.0222  0.2006
52406DOD     C1 1037  12.140  28.804  25.628 -0.0721 -0.1071 -0.1527
52406DOD     C2 1038  11.920  28.461  25.832  0.3616 -0.0118  0.1941
52406DOD     C3 1039  11.668  28.206  26.120 -0.0439 -0.1843 -0.1636
52407DOD     C1 1040  13.092  23.650  18.447  0.2330 -0.1734  0.1010
52407DOD     C2 1041  13.516  23.742  18.380  0.1506  0.1557 -0.2212
52407DOD     C3 1042  13.945  23.829  18.356  0.2643 -0.3782 -0.1073
52408DOD     C1 1043  27.649  17.272  21.295  0.0654  0.0984 -0.1801
52408DOD     C2 1044  27.446  17.603  21.087 -0.0290 -0.2023 -0.0996
52408DOD     C3 1045  27.570  18.016  20.839  0.2887  0.0326  0.1077
52409DOD     C1 1046   0.519  23.428   8.183 -0.3023  0.0597  0.2862
52409DOD     C2 1047   0.812  23.710   7.901 -0.1091  0.2365  0.2173
52409DOD     C3 1048   1.047  23.719   7.461 -0.1552 -0.1999  0.1951
52410DOD     C1 1049   5.917  22.787  27.775 -0.0552 -0.0289 -0.0561
52410DOD     C2 1050   5.883  23.047  27.418 -0.0892 -0.2937  0.3551
52410DOD     C3 1051   5.596  23.284  27.153  0.4129  0.2052  0.1371
52411DOD     C1 1052  22.665  12.241  12.902  0.2164  0.2466 -0.2431
52411DOD     C2 1053  22.271  12.008  12.954 -0.0833 -0.1564  0.2272
52411DOD     C3 1054  22.023  11.686  13.025  0.3917 -0.3094  0.0595
52412DOD     C1 1055  24.409   1.154  24.084  0.1423  0.0129 -0.0096
52412DOD     C2 1056  24.368   1.562  24.353 -0.1516  0.0990 -0.2011
52412DOD     C3 1057  24.080   1.963  24.380  0.2559  0.2883  0.0775
52413DOD     C1 1058  23.457  14.235   3.196 -0.0477 -0.0049  0.1449
52413DOD     C2 1059  23.782  14.457   3.456 -0.1079  0.2871 -0.1189
52413DOD     C3 1060  24.091  14.815   3.443 -0.3692  0.0126  0.0452
52414DOD     C1 1061  18.680   9.839   3.845 -0.0080 -0.0975 -0.0981
52414DOD     C2 1062  18.593  10.163   3.486  0.0988  0.2129  0.1161
52414DOD     C3 1063  18.367  10.584   3.492  0.2000 -0.1544  0.3979
52415DOD     C1 1064  26.917   6.251  20.800  0.2072  0.2218  0.0358
52415DOD     C2 1065  27.400   6.195  20.808  0.3720 -0.0940 -0.1350
52415DOD     C3 1066  27.585   6.209  21.235  0.1411  0.2291 -0.1326
52416DOD     C1 1067  18.383   2.871  23.898  0.2869 -0.0223  0.0844
52416DOD     C2 1068  18.588   2.640  24.205  0.1684  0.0939  0.1023
52416DOD     C3 1069  18.982   2.518  24.447  0.3301  0.1318  0.0940
52417DOD     C1 1070  23.165  14.910  23.498  0.1190  0.1666  0.1833
52417DOD     C2 1071  23.258  15.305  23.769 -0.1546 -0.0920  0.0190
52417DOD     C3 1072  23.301  15.752  23.787  0.0356 -0.0247  0.0958
52418DOD     C1 1073  19.793  10.863   6.210  0.0803  0.1904  0.3604
52418DOD     C2 1074  19.835  10.543   6.522  0.2638 -0.0734  0.3288
52418DOD     C3 1075  19.975  10.128   6.695  0.0248 -0.1103 -0.2018
52419DOD     C1 1076  17.169   1.988   9.433 -0.2297 -0.0931 -0.0518
52419DOD     C2 1077  17.398   1.610   9.328 -0.0858  0.2323  0.0305
52419DOD     C3 1078  17.779   1.245   9.373  0.3384  0.0651 -0.2966
52420DOD     C1 1079   3.329  20.297  18.719 -0.0497  0.1736 -0.0069
52420DOD     C2 1080   2.884  20.416  18.703 -0.0649 -0.0268  0.1302
52420DOD     C3 1081   2.520  20.519  18.418 -0.2735 -0.2405 -0.1033
52421DOD     C1 1082   0.287  25.005  20.117  0.0020  0.0933  0.0378
52421DOD     C2 1083  30.189  25.112  19.890 -0.0350 -0.2265  0.1180
52421DOD     C3 1084  29.869  24.974  19.568  0.0279  0.2157 -0.2906
52422DOD     C1 1085   8.823   7.808  21.288 -0.2442  0.0915 -0.3062
52422DOD     C2 1086   8.448   7.997  21.181  0.0303  0.2128 -0.2714
52422DOD     C3 1087   8.332   8.395  20.948  0.2171 -0.1723 -0.1452
52423DOD     C1 1088  16.346  17.068  17.308  0.2345 -0.2938 -0.1966
52423DOD     C2 1089  16.764  17.085  17.114 -0.2213  0.2036 -0.2381
52423DOD     C3 1090  17.032  17.504  17.120  0.0151 -0.4218 -0.0897
52424DOD     C1 1091  13.800   4.706   3.115 -0.2479 -0.5269 -0.2909
52424DOD     C2 1092  14.181   4.872   3.334 -0.0400  0.1586 -0.0105
52424DOD     C3 1093  14.579   5.039   3.444 -0.1631 -0.2619  0.0310
52425DOD     C1 1094  15.863  15.600  11.072  0.1521 -0.1466 -0.1395
52425DOD     C2 1095  15.453  15.472  10.934  0.0534 -0.2343  0.5463
52425DOD     C3 1096  15.208  15.493  10.518  0.0692 -0.0255 -0.0765
52426DOD     C1 1097  28.408  14.195  15.685  0.2099  0.1912 -0.0493
52426DOD     C2 1098  28.058  13.873  15.643  0.0198  0.2083 -0.0099
52426DOD     C3 1099  27.811  13.495  15.764 -0.1342 -0.0272  0.0682
52427DOD     C1 1100  25.883  26.248   7.464  0.1014 -0.1539  0.0075
52427DOD     C2 1101  26.132  26.522   7.722  0.1896  0.1709  0.3930
52427DOD     C3 1102  26.471  26.813   7.610 -0.0535  0.1887 -0.3080
52428DOD     C1 1103   9.588   5.469  17.867  0.2828 -0.2415 -0.1157
52428DOD     C2 1104   9.919   5.137  17.962  0.1953  0.0181 -0.0033
52428DOD     C3 1105  10.250   5.059  18.246 -0.1192  0.2343  0.2476
52429DOD     C1 1106   7.476  25.916   7.019 -0.2590 -0.0642 -0.0746
52429DOD     C2 1107   7.143  25.635   7.067 -0.3018 -0.3011  0.0109
52429DOD     C3 1108   6.836  25.537   6.771  0.2126  0.1162  0.1938
52430DOD     C1 1109  11.572  16.375   3.053  0.0175  0.0298 -0.2290
52430DOD     C2 1110  11.578  16.229   2.650 -0.0832  0.1628  0.1015
52430DOD     C3 1111  11.857  15.862   2.609  0.3339 -0.0237 -0.0049
52431DOD     C1 1112   9.668  10.833   3.996 -0.3334 -0.2641  0.2512
52431DOD     C2 1113   9.931  10.978   4.329 -0.1532  0.1379  0.0429
52431DOD     C3 1114  10.197  11.303   4.566  0.3765  0.1003 -0.0932
52432DOD     C1 1115  18.481   7.272  12.895 -0.1247  0.0953  0.0841
52432DOD     C2 1116  18.187   7.075  13.228 -0.2720 -0.0945  0.1370
52432DOD     C3 1117  17.756   6.958  13.343  0.3948 -0.1594 -0.0578
52433DOD     C1 1118  10.820  26.539  14.341  0.2234  0.2580 -0.1814
52433DOD     C2 1119  10.491  26.733  14.609  0.1068 -0.0875 -0.1385
52433DOD     C3 1120  10.102  26.771  14.848  0.0564 -0.0518 -0.0959
52434DOD     C1 1121   3.331  29.542   0.417  0.1604  0.2965  0.6715
52434DOD     C2 1122   3.523  29.963   0.535 -0.0752  0.0996 -0.0066
52434DOD     C3 1123   3.338   0.026   0.390  0.2150 -0.0391  0.0605
52435DOD     C1 1124  13.135  24.832  19.980  0.0473 -0.0777 -0.3402
52435DOD     C2 1125  13.057  24.450  20.099  0.2413  0.0014  0.2645
52435DOD     C3 1126  13.243  24.217  20.438 -0.3585 -0.1024  0.0773
52436DOD     C1 1127  29.225  21.941  16.001 -0.2887  0.0733 -0.2241
52436DOD     C2 1128  29.528  21.942  15.598  0.1874  0.0974  0.0467
52436DOD     C3 1129  29.880  21.938  15.271 -0.1014  0.0066  0.0794
52437DOD     C1 1130  14.500  15.818  16.486  0.3067  0.1054 -0.1313
52437DOD     C2 1131  14.951  15.879  16.780 -0.0158 -0.0740 -0.0708
52437DOD     C3 1132  15.389  15.984  16.954  0.1648  0.2253  0.4506
52438DOD     C1 1133   4.212  13.708  14.487 -0.1992 -0.1053 -0.0037
52438DOD     C2 1134   4.349  13.956  14.839 -0.0662 -0.2288 -0.0085
52438DOD     C3 1135   4.325  14.167  15.232 -0.1668 -0.0998 -0.0186
52439DOD     C1 1136  15.062   2.656  18.590 -0.1765 -0.1419 -0.0141
52439DOD     C2 1137  15.459   2.480  18.382  0.2842  0.0580  0.0975
52439DOD     C3 1138  15.854   2.699  18.553 -0.0252  0.2733  0.0086
52440DOD     C1 1139  10.956  21.453   7.745 -0.0243  0.2546 -0.0423
52440DOD     C2 1140  11.170  21.127   7.494  0.0258  0.0823 -0.0549
52440DOD     C3 1141  11.553  21.156   7.323  0.0657  0.0440  0.2047
52441DOD     C1 1142   6.314  21.908  19.733 -0.0111  0.4213 -0.0056
52441DOD     C2 1143   6.440  21.973  19.316 -0.0667  0.2367  0.1275
52441DOD     C3 1144   6.814  22.056  19.044  0.1792  0.0679  0.0309
52442DOD     C1 1145   6.352  16.881  25.641 -0.3992  0.0491  0.1113
52442DOD     C2 1146   6.483  16.663  25.294 -0.3039 -0.0817  0.2389
52442DOD     C3 1147   6.334  16.504  24.872 -0.2969 -0.0089  0.1620
52443DOD     C1 1148  20.837  14.152  29.070  0.0805 -0.0334 -0.0955
52443DOD     C2 1149  20.615  14.514  29.197  0.1126  0.1697  0.0350
52443DOD     C3 1150  20.459  14.865  29.449 -0.3548 -0.1785 -0.2717
52444DOD     C1 1151   1.630  14.570  23.567 -0.3551  0.0386  0.0009
52444DOD     C2 1152   1.605  14.757  23.141 -0.3655 -0.1244  0.2235
52444DOD     C3 1153   1.873  14.902  22.807  0.3934  0.1554 -0.1772
52445DOD     C1 1154   8.121  11.412   3.002 -0.0448 -0.2763 -0.0400
52445DOD     C2 1155   8.369  11.209   3.390  0.0207  0.0238  0.1157
52445DOD     C3 1156   8.569  11.149   3.781 -0.2610 -0.1183  0.3143
52446DOD     C1 1157  13.034  16.724  22.102  0.1680  0.3097  0.0721
52446DOD     C2 1158  12.842  16.476  22.390 -0.1500  0.1426 -0.0947
52446DOD     C3 1159  12.939  16.179  22.765  0.0889  0.6020  0.4558
52447DOD     C1 1160  12.147  22.284  12.550  0.2795  0.3063 -0.0393
52447DOD     C2 1161  12.461  22.324  12.914 -0.1441  0.0372 -0.0555
52447DOD     C3 1162  12.591  22.103  13.260  0.1146 -0.0691 -0.4084
52448DOD     C1 1163  26.108  25.137  11.624 -0.1748  0.0851 -0.1192
52448DOD     C2 1164  25.872  24.877  11.942  0.1117 -0.2464  0.1226
52448DOD     C3 1165  25.824  24.516  12.248  0.1461 -0.1164  0.0468
52449DOD     C1 1166  11.594  13.508  15.912  0.0210  0.0491 -0.3063
52449DOD     C2 1167  11.468  13.303  16.276  0.2787  0.1906  0.0943
52449DOD     C3 1168  11.046  13.079  16.330 -0.0408 -0.0347  0.1472
52450DOD     C1 1169  29.123  27.774   6.322 -0.2178  0.0730 -0.0037
52450DOD     C2 1170  28.783  27.528   6.155  0.2082  0.1039 -0.1739
52450DOD     C3 1171  28.376  27.267   6.062 -0.1322  0.0236  0.1651
52451DOD     C1 1172   7.148   4.064  22.166  0.1281 -0.1218 -0.2562
52451DOD     C2 1173   7.483   4.341  22.012 -0.1990  0.0481  0.0068
52451DOD     C3 1174   7.837   4.550  22.084  0.1248 -0.1834 -0.2974
52452DOD     C1 1175   5.598   4.266  24.415 -0.0543 -0.1300 -0.0043
52452DOD     C2 1176   5.146   4.099  24.430  0.0527 -0.0365 -0.1475
52452DOD     C3 1177   4.698   3.950  24.321 -0.0294 -0.0807  0.0208
52453DOD     C1 1178  28.408  30.058  18.517 -0.3068 -0.2379  0.4810
52453DOD     C2 1179  28.098   0.011  18.355 -0.1295 -0.0286 -0.0031
52453DOD     C3 1180  27.638   0.033  18.323 -0.0241  0.0993  0.1433
52454DOD     C1 1181   2.794  23.484  22.928 -0.2725  0.0730  0.2739
52454DOD     C2 1182   2.973  23.833  23.143 -0.2503 -0.1982 -0.0934
52454DOD     C3 1183   3.255  24.221  23.164 -0.2828 -0.0323 -0.1073
52455DOD     C1 1184  11.500  29.839  12.452 -0.1423  0.1715 -0.0470
52455DOD     C2 1185  11.828  29.641  12.146  0.2103 -0.0182  0.2241
52455DOD     C3 1186  12.294  29.644  12.032  0.0099  0.0846 -0.1447
52456DOD     C1 1187  18.900  16.741  21.036  0.0467 -0.4013  0.1772
52456DOD     C2 1188  18.713  17.129  21.212  0.1367  0.0904  0.0138
52456DOD     C3 1189  18.509  17.527  21.354 -0.1416 -0.0722 -0.0304
52457DOD     C1 1190  26.262  13.105  30.149  0.0980  0.1319  0.0073
52457DOD     C2 1191  26.035  13.375   0.116 -0.2241 -0.1428 -0.0862
52457DOD     C3 1192  25.673  13.585   0.226 -0.1292 -0.1552  0.1712
52458DOD     C1 1193  11.324   0.116   1.960  0.1824  0.2419 -0.2970
52458DOD     C2 1194  11.482   0.072   2.417  0.2168 -0.1284  0.2382
52458DOD     C3 1195  11.963   0.151   2.647  0.0076  0.0629  0.0291
52459DOD     C1 1196  19.248  28.271  23.250  0.0722  0.1802 -0.0883
52459DOD     C2 1197  19.245  28.541  22.861  0.1067 -0.0661  0.0340
52459DOD     C3 1198  19.203  28.736  22.382  0.2394  0.1371  0.0837
52460DOD     C1 1199  25.647   5.093  23.823  0.4740  0.0783  0.3172
52460DOD     C2 1200  25.737   5.512  23.604 -0.1551  0.0330 -0.2257
52460DOD     C3 1201  26.166   5.637  23.519  0.1006 -0.0087  0.1680
52461DOD     C1 1202  17.310  26.574   2.608  0.2659 -0.0362 -0.0128
52461DOD     C2 1203  17.052  26.954   2.441 -0.2404  0.4242 -0.0939
52461DOD     C3 1204  16.967  27.450   2.372 -0.0839 -0.1433  0.0702
52462DOD     C1 1205  12.493   2.032  19.511 -0.0699  0.2477 -0.1787
52462DOD     C2 1206  12.722   2.230  19.906 -0.2931 -0.0091  0.0160
52462DOD     C3 1207  13.026   2.489  20.149  0.1365 -0.1057 -0.2300
52463DOD     C1 1208   3.668  11.575   7.933  0.3788  0.1351  0.1334
52463DOD     C2 1209   3.310  11.821   7.777 -0.0495 -0.1276 -0.1594
52463DOD     C3 1210   3.016  11.975   7.368 -0.1105 -0.0036  0.1492
52464DOD     C1 1211  15.351  18.682   3.395 -0.1529 -0.2368 -0.0143
52464DOD     C2 1212  15.497  18.191   3.364  0.0789 -0.0520  0.1684
52464DOD     C3 1213  15.844  17.952   3.303  0.1638  0.0770  0.0467
52465DOD     C1 1214  28.658  18.775   9.652  0.0475  0.1334  0.0289
52465DOD     C2 1215  28.845  19.173   9.652  0.0341 -0.3240  0.0015
52465DOD     C3 1216  29.015  19.508   9.433 -0.4874  0.0017  0.1299
52466DOD     C1 1217   9.906  12.013  29.226  0.0110  0.0844  0.2073
52466DOD     C2 1218   9.535  12.102  29.436 -0.1271  0.3870  0.1249
52466DOD     C3 1219   9.258  12.375  29.673  0.4400 -0.0745 -0.0852
52467DOD     C1 1220  15.976   7.485  15.335  0.0374 -0.2075 -0.1958
52467DOD     C2 1221  15.620   7.306  15.568 -0.1103  0.2492  0.1224
52467DOD     C3 1222  15.586   7.368  16.018 -0.3826  0.1821 -0.0308
52468DOD     C1 1223  10.714  15.935  10.374 -0.1165 -0.1829  0.1712
52468DOD     C2 1224  10.727  15.508  10.416 -0.0919 -0.0073  0.0905
52468DOD     C3 1225  10.660  15.022  10.475  0.1993 -0.1747 -0.1221
52469DOD     C1 1226   3.971  23.922   6.208 -0.1270  0.1735 -0.0772
52469DOD     C2 1227   3.861  23.466   6.120  0.1019 -0.0295  0.0370
52469DOD     C3 1228   3.801  22.943   6.050  0.3872 -0.0691 -0.0673
52470DOD     C1 1229   3.802   5.487  18.529 -0.1119  0.2837 -0.1704
52470DOD     C2 1230   4.002   5.786  18.214  0.4042 -0.0362  0.1361
52470DOD     C3 1231   4.013   6.229  18.142  0.0343  0.1429 -0.2948
52471DOD     C1 1232   7.128  29.786   7.906  0.0488  0.0311 -0.2947
52471DOD     C2 1233   6.776  30.050   8.007  0.0215 -0.3445  0.5447
52471DOD     C3 1234   6.505  30.032   8.430  0.3939  0.2714  0.1660
52472DOD     C1 1235  29.204  13.302  27.710 -0.3014  0.0598  0.1165
52472DOD     C2 1236  28.763  13.237  27.883 -0.0140  0.1256  0.0756
52472DOD     C3 1237  28.458  13.512  28.123  0.0402  0.1970 -0.4732
52473DOD     C1 1238  13.335  18.273  28.514  0.2963 -0.0516 -0.1212
52473DOD     C2 1239  13.320  17.865  28.778  0.0059 -0.0897 -0.1286
52473DOD     C3 1240  13.088  17.862  29.207 -0.2975  0.1338 -0.1957
52474DOD     C1 1241  25.762   3.064  26.550  0.3713  0.4060  0.3091
52474DOD     C2 1242  25.722   3.545  26.629  0.0133 -0.0242 -0.0595
52474DOD     C3 1243  25.520   3.987  26.610  0.0376  0.0675  0.2677
52475DOD     C1 1244  12.257  14.187  14.977  0.0820 -0.1500  0.1198
52475DOD     C2 1245  12.106  14.123  14.550 -0.2581  0.1874  0.0158
52475DOD     C3 1246  12.019  14.129  14.078 -0.3093  0.0851 -0.2129
52476DOD     C1 1247  26.046  26.583  10.070  0.1339  0.2662 -0.2376
52476DOD     C2 1248  25.805  26.707  10.445  0.0728  0.1936  0.0159
52476DOD     C3 1249  25.854  27.132  10.564  0.2654  0.2892  0.0001
52477DOD     C1 1250  25.338   8.385  24.482  0.0456  0.0679  0.2272
52477DOD     C2 1251  25.242   8.572  24.893 -0.2564 -0.0520 -0.1781
52477DOD     C3 1252  25.561   8.546  25.223  0.1886 -0.1454  0.0739
52478DOD     C1 1253  13.215  20.458  22.999  0.1618  0.1069 -0.0812
52478DOD     C2 1254  13.454  20.833  23.005 -0.0671  0.1290  0.2101
52478DOD     C3 1255  13.824  20.988  23.116 -0.1324  0.0474  0.0335
52479DOD     C1 1256   9.883  20.656   8.031  0.1978 -0.1046  0.3522
52479DOD     C2 1257   9.595  20.815   8.321 -0.3036  0.0745  0.1065
52479DOD     C3 1258   9.502  20.812   8.754  0.1697 -0.1979  0.0117
52480DOD     C1 1259   7.013  25.952  12.568 -0.1704 -0.0994 -0.0210
52480DOD     C2 1260   6.840  25.664  12.233  0.0075  0.2845 -0.0134
52480DOD     C3 1261   6.558  25.886  11.932  0.0116  0.0955  0.1743
52481DOD     C1 1262   3.076   6.204  25.995 -0.2768  0.0333 -0.0271
52481DOD     C2 1263   2.810   6.625  25.944  0.1707  0.1917 -0.3465
52481DOD     C3 1264   2.373   6.787  25.878  0.3858  0.2069  0.0460
52482DOD     C1 1265   2.696  20.626  23.052  0.2517  0.1075  0.0964
52482DOD     C2 1266   2.688  20.511  22.556 -0.0496  0.2313  0.2210
52482DOD     C3 1267   2.581  20.400  22.117 -0.0260 -0.2780 -0.4564
52483DOD     C1 1268  24.944  11.630  20.422 -0.2253  0.0720  0.0661
52483DOD     C2 1269  25.289  11.569  20.674 -0.1868  0.1498  0.1029
52483DOD     C3 1270  25.721  11.765  20.728 -0.5526 -0.0753 -0.1287
52484DOD     C1 1271   6.640  17.127  26.023 -0.0484 -0.0517 -0.0372
52484DOD     C2 1272   6.804  17.051  25.590  0.0069  0.0280 -0.2024
52484DOD     C3 1273   7.145  16.982  25.241  0.2214  0.1650  0.0371
52485DOD     C1 1274  16.457  11.373   8.938 -0.0265  0.5334  0.0656
52485DOD     C2 1275  16.416  11.779   8.805  0.1040 -0.1578  0.0892
52485DOD     C3 1276  16.743  12.061   8.704  0.0734 -0.1450 -0.0066
52486DOD     C1 1277  10.283  28.485  26.225  0.0463 -0.0984  0.0326
52486DOD     C2 1278   9.899  28.602  26.357  0.0117 -0.2357  0.1769
52486DOD     C3 1279   9.480  28.704  26.128  0.0764  0.1856  0.0602
52487DOD     C1 1280   6.750   9.309  25.516  0.2796 -0.1882 -0.2551
52487DOD     C2 1281   7.014   9.066  25.182  0.0073 -0.0029  0.2405
52487DOD     C3 1282   7.364   8.677  25.138 -0.0454 -0.0611  0.0434
52488DOD     C1 1283  24.710  27.623  14.857  0.0479  0.2453 -0.0120
52488DOD     C2 1284  24.599  27.251  14.538  0.3677  0.1266  0.0767
52488DOD     C3 1285  24.245  27.073  14.309  0.1148  0.0152 -0.1284
52489DOD     C1 1286  24.645  11.011   7.015 -0.0985 -0.0567 -0.0554
52489DOD     C2 1287  24.831  10.722   7.298 -0.1139 -0.3828  0.0186
52489DOD     C3 1288  25.106  10.750   7.689  0.0089  0.0671  0.1066
52490DOD     C1 1289  12.748  23.493  16.951  0.2353  0.1134 -0.0114
52490DOD     C2 1290  12.336  23.301  17.018 -0.0888  0.2236 -0.1444
52490DOD     C3 1291  11.888  23.165  17.025 -0.2682 -0.4205  0.0047
52491DOD     C1 1292   2.531  28.935  11.033  0.4615  0.1694 -0.1407
52491DOD     C2 1293   2.969  28.767  11.015  0.0553  0.1882  0.1445
52491DOD     C3 1294   3.350  28.933  11.310  0.1199 -0.0180  0.1617
52492DOD     C1 1295   6.610  11.496  11.091  0.0009  0.2833 -0.0491
52492DOD     C2 1296   7.092  11.598  11.149  0.0204  0.2157  0.0528
52492DOD     C3 1297   7.487  11.523  11.284  0.0291 -0.0296 -0.0806
52493DOD     C1 1298  28.362  16.913  14.438  0.1371 -0.1162 -0.1863
52493DOD     C2 1299  28.399  17.429  14.518  0.0350 -0.0045  0.2016
52493DOD     C3 1300  28.009  17.723  14.367  0.1067 -0.2781 -0.0113
52494DOD     C1 1301   0.685  20.804  21.283 -0.0533 -0.0858  0.0196
52494DOD     C2 1302   0.604  20.904  20.855  0.1893  0.0262 -0.0992
52494DOD     C3 1303   0.463  21.152  20.498  0.1681  0.0258  0.1527
52495DOD     C1 1304   7.189   0.450  25.198  0.2274 -0.2929 -0.1821
52495DOD     C2 1305   6.904   0.422  25.573  0.5645 -0.0023  0.0829
52495DOD     C3 1306   6.648   0.652  25.852 -0.2244 -0.0431 -0.0429
52496DOD     C1 1307  28.269  28.219  24.122  0.1403  0.2654 -0.0482
52496DOD     C2 1308  28.149  27.841  24.396  0.2598  0.1298 -0.0816
52496DOD     C3 1309  28.141  27.332  24.416  0.2224 -0.1716  0.0724
52497DOD     C1 1310  28.416  30.347   2.718  0.0834 -0.1110 -0.3739
52497DOD     C2 1311  28.329   0.385   2.945  0.0298  0.3045  0.2001
52497DOD     C3 1312  27.935   0.465   3.157 -0.0958 -0.2940 -0.3347
52498DOD     C1 1313  19.286  13.935  21.652 -0.2314 -0.1189  0.2317
52498DOD     C2 1314  19.684  14.157  21.731  0.1363  0.0435  0.1013
52498DOD     C3 1315  20.051  14.256  21.463 -0.0727 -0.0807 -0.2913
52499DOD     C1 1316  21.114  16.651   8.796  0.1628 -0.1954  0.1576
52499DOD     C2 1317  20.903  16.943   8.989 -0.0628 -0.2133 -0.0449
52499DOD     C3 1318  20.590  17.177   9.205  0.1493 -0.1832  0.1670
52500DOD     C1 1319  27.540   8.944  21.360  0.0465  0.0024  0.3756
52500DOD     C2 1320  27.625   9.378  21.481  0.0871  0.0328 -0.0813
52500DOD     C3 1321  27.924   9.709  21.266 -0.3441 -0.1326 -0.1601
52501DOD     C1 1322  18.239  18.624  18.250  0.1663  0.2820  0.2634
52501DOD     C2 1323  18.541  19.060  18.277  0.1487  0.3631  0.1211
52501DOD     C3 1324  18.894  19.080  17.982  0.1004  0.0773  0.2165
52502DOD     C1 1325  25.975  15.415   7.499  0.0881 -0.0112 -0.1932
52502DOD     C2 1326  26.108  15.781   7.279  0.0920 -0.1644 -0.1635
52502DOD     C3 1327  26.332  16.082   6.949 -0.0936  0.3585  0.2133
52503DOD     C1 1328  10.407  21.245   2.138 -0.1521  0.1636  0.1173
52503DOD     C2 1329  10.385  20.855   1.881  0.1595  0.2423  0.2223
52503DOD     C3 1330  10.221  20.464   1.764  0.1755  0.1512  0.0774
52504DOD     C1 1331  17.919  25.130  21.921  0.1498  0.1411 -0.0142
52504DOD     C2 1332  17.899  24.987  21.496  0.0966 -0.2297  0.0738
52504DOD     C3 1333  17.986  25.164  21.056  0.0833  0.1351  0.0337
52505DOD     C1 1334  16.642  21.944  11.875 -0.0871  0.2527  0.1363
52505DOD     C2 1335  16.358  22.294  12.052  0.4523 -0.1715 -0.0251
52505DOD     C3 1336  16.148  22.539  12.328  0.0822 -0.0444 -0.1493
52506DOD     C1 1337  19.644  13.107  17.294 -0.0801 -0.0358  0.0598
52506DOD     C2 1338  19.272  13.144  17.602 -0.3000  0.1093  0.3562
52506DOD     C3 1339  19.105  13.282  17.984  0.1790  0.1125 -0.0913
52507DOD     C1 1340  18.190   0.493  11.576  0.1966  0.1098 -0.0632
52507DOD     C2 1341  18.211   0.777  11.919 -0.2321 -0.1970  0.3173
52507DOD     C3 1342  18.074   0.954  12.300 -0.0572  0.2411  0.0950
52508DOD     C1 1343  27.273  18.469  14.055  0.0793 -0.0675 -0.0401
52508DOD     C2 1344  27.641  18.664  13.909  0.0397 -0.4112  0.0207
52508DOD     C3 1345  28.066  18.810  14.077 -0.0042 -0.0724 -0.1054
52509DOD     C1 1346  27.385  12.675  12.791  0.2095  0.2008  0.1072
52509DOD     C2 1347  27.739  12.833  12.492 -0.0745  0.0085  0.1309
52509DOD     C3 1348  28.010  12.986  12.175 -0.2454 -0.0009 -0.3163
52510DOD     C1 1349   8.539  20.638   0.352  0.1674 -0.0727  0.1385
52510DOD     C2 1350   8.807  20.269   0.313 -0.0930 -0.0794 -0.4364
52510DOD     C3 1351   8.759  19.790   0.371 -0.0139 -0.2639  0.3163
52511DOD     C1 1352  26.616  10.982  10.902  0.0030  0.2024 -0.0554
52511DOD     C2 1353  27.119  11.063  10.777  0.0447 -0.2373  0.1752
52511DOD     C3 1354  27.491  11.253  10.777 -0.0696  0.2065 -0.0941
52512DOD     C1 1355  30.161  24.614  25.513  0.0003 -0.2628 -0.0269
52512DOD     C2 1356  29.853  24.567  25.170 -0.2790  0.1645 -0.1321
52512DOD     C3 1357  29.830  24.268  24.750 -0.1735 -0.2168  0.2067
52513DOD     C1 1358  17.887  26.806  30.282  0.0182  0.3913  0.2753
52513DOD     C2 1359  17.878  26.506   0.324  0.0956 -0.2323  0.1383
52513DOD     C3 1360  17.919  26.214   0.640  0.2641  0.4690 -0.0684
52514DOD     C1 1361   3.697  22.099  18.097 -0.1404 -0.0068 -0.0787
52514DOD     C2 1362   4.137  21.919  18.025 -0.0679  0.0947 -0.3095
52514DOD     C3 1363   4.544  21.877  17.841 -0.0827  0.1463 -0.2379
52515DOD     C1 1364  23.472  18.812  26.600  0.2660  0.1570  0.1452
52515DOD     C2 1365  23.618  18.763  26.117  0.3051  0.0136  0.1236
52515DOD     C3 1366  23.682  18.530  25.755  0.1263 -0.1735 -0.3844
52516DOD     C1 1367  22.282  25.321   4.202 -0.1406 -0.0501  0.0292
52516DOD     C2 1368  22.272  25.758   4.457  0.2821  0.0456 -0.1206
52516DOD     C3 1369  22.642  26.053   4.405 -0.1870  0.2618  0.1342
52517DOD     C1 1370  29.879  15.489  30.121 -0.3187 -0.0384  0.1760
52517DOD     C2 1371  29.810  15.414  29.655 -0.0805  0.1039  0.0232
52517DOD     C3 1372  29.852  15.183  29.217  0.0909 -0.1324 -0.1077
52518DOD     C1 1373  10.882  28.614  28.962  0.3021 -0.1023  0.3322
52518DOD     C2 1374  10.629  28.453  29.293 -0.3007  0.1710 -0.3888
52518DOD     C3 1375  10.243  28.281  29.487  0.1033 -0.2000 -0.1518
52519DOD     C1 1376  23.622  27.796  12.215 -0.1593 -0.2332  0.0270
52519DOD     C2 1377  23.824  28.232  12.356  0.1574  0.0164  0.0018
52519DOD     C3 1378  23.981  28.738  12.275  0.0715 -0.1349 -0.0300
52520DOD     C1 1379  28.276  23.146   8.277 -0.1413 -0.1252  0.0566
52520DOD     C2 1380  28.464  22.747   8.342  0.0146 -0.0026 -0.0318
52520DOD     C3 1381  28.776  22.576   8.592 -0.2518 -0.0257 -0.0275
52521DOD     C1 1382  18.350  16.467  14.249  0.1465  0.0475  0.1548
52521DOD     C2 1383  18.673  16.286  14.433 -0.0790 -0.0907  0.0425
52521DOD     C3 1384  19.056  16.071  14.597 -0.0137  0.1191  0.0697
52522DOD     C1 1385  14.325   1.776   1.776 -0.3717  0.3815 -0.0322
52522DOD     C2 1386  14.763   1.674   1.567 -0.2990  0.1737 -0.0764
52522DOD     C3 1387  14.935   1.387   1.221  0.0209 -0.0014  0.1326
52523DOD     C1 1388  25.948   1.556  24.137  0.0877  0.0639 -0.1228
52523DOD     C2 1389  26.338   1.614  23.828  0.2050 -0.0888  0.1286
52523DOD     C3 1390  26.216   1.572  23.380  0.0177 -0.0719 -0.1712
52524DOD     C1 1391   3.672   3.432  22.740  0.0669 -0.2869  0.1525
52524DOD     C2 1392   4.018   3.494  23.038  0.0708 -0.0105 -0.1121
52524DOD     C3 1393   4.333   3.304  23.336 -0.1736  0.3882 -0.0975
52525DOD     C1 1394  17.837  27.737   4.583  0.2114  0.0094  0.2064
52525DOD     C2 1395  18.115  27.926   4.868 -0.1082 -0.1870  0.1171
52525DOD     C3 1396  18.318  28.346   4.856  0.0695 -0.0602 -0.1199
52526DOD     C1 1397   3.298   8.659  22.265  0.0815 -0.1749 -0.0690
52526DOD     C2 1398   2.979   8.349  22.052  0.1962 -0.1634  0.0521
52526DOD     C3 1399   2.641   8.097  22.022 -0.1373  0.1431 -0.0168
52527DOD     C1 1400  24.893  26.930  17.562 -0.1757 -0.0407 -0.3517
52527DOD     C2 1401  25.094  27.114  17.911  0.2553 -0.2290 -0.2717
52527DOD     C3 1402  25.218  27.475  18.203  0.2631  0.1601 -0.3704
52528DOD     C1 1403   1.093  12.909   8.960  0.1627  0.0720  0.1943
52528DOD     C2 1404   1.516  12.800   8.779  0.3799  0.0978  0.3078
52528DOD     C3 1405   1.747  12.418   8.756 -0.3769  0.1936 -0.2103
52529DOD     C1 1406  14.112   5.220  19.533 -0.0281 -0.0049 -0.1093
52529DOD     C2 1407  14.011   4.855  19.214 -0.0192  0.4044 -0.0252
52529DOD     C3 1408  14.062   4.529  18.845 -0.0618 -0.1708 -0.2034
52530DOD     C1 1409  14.765  10.642  22.978 -0.0777  0.0635 -0.2145
52530DOD     C2 1410  14.989  10.639  23.365 -0.1130 -0.1969  0.3234
52530DOD     C3 1411  15.206  10.642  23.773  0.1241  0.1266  0.2942
52531DOD     C1 1412  22.443  21.133  29.420 -0.2078 -0.0548 -0.0186
52531DOD     C2 1413  22.058  21.068  29.660  0.1193 -0.2127 -0.0173
52531DOD     C3 1414  21.750  20.802  29.925  0.2464 -0.3053 -0.0298
52532DOD     C1 1415  30.144   8.705   7.505  0.0209  0.3345 -0.0044
52532DOD     C2 1416  29.878   8.404   7.354  0.1914  0.1562  0.1075
52532DOD     C3 1417  29.995   7.957   7.207 -0.0439  0.2059 -0.1678
52533DOD     C1 1418  22.509  16.622  21.102  0.2603  0.1636  0.0617
52533DOD     C2 1419  22.722  16.235  21.255 -0.0597 -0.0576  0.0943
52533DOD     C3 1420  22.752  15.858  21.524 -0.0623 -0.1059 -0.0975
52534DOD     C1 1421  28.359   5.491  20.954  0.0610 -0.0507 -0.1006
52534DOD     C2 1422  28.000   5.488  20.717  0.0229 -0.2227 -0.1073
52534DOD     C3 1423  27.835   5.103  20.570 -0.0999  0.1442  0.0595
52535DOD     C1 1424  18.274  20.645  14.802  0.0546  0.2468  0.1057
52535DOD     C2 1425  18.474  20.943  15.030 -0.1015  0.0406 -0.4130
52535DOD     C3 1426  18.511  21.362  14.921  0.1674 -0.2691  0.1562
52536DOD     C1 1427  12.235  25.503   3.142 -0.3075  0.0539  0.3164
52536DOD     C2 1428  12.019  25.310   2.744  0.0102  0.1060 -0.1297
52536DOD     C3 1429  11.754  24.959   2.620 -0.1021  0.3063 -0.0136
52537DOD     C1 1430   2.295  24.060  25.332 -0.1321 -0.3139 -0.0365
52537DOD     C2 1431   2.396  24.409  25.615  0.0806 -0.1216  0.0578
52537DOD     C3 1432   2.706  24.735  25.700  0.0523 -0.1947  0.1937
52538DOD     C1 1433  25.212  27.624   9.373  0.0322  0.0445  0.1107
52538DOD     C2 1434  24.787  27.730   9.290 -0.0843 -0.1409  0.1107
52538DOD     C3 1435  24.546  28.110   9.292 -0.1784 -0.1139  0.0006
52539DOD     C1 1436  17.510   8.214   7.466 -0.1995 -0.0429  0.2701
52539DOD     C2 1437  17.936   8.450   7.500  0.1717 -0.0098  0.0203
52539DOD     C3 1438  18.429   8.524   7.569 -0.1290 -0.0886 -0.2667
52540DOD     C1 1439   6.554   5.062   7.705  0.0022 -0.1789 -0.0280
52540DOD     C2 1440   6.604   5.527   7.727  0.0792  0.0038  0.3156
52540DOD     C3 1441   6.890   5.791   7.467  0.0579 -0.3369  0.2991
52541DOD     C1 1442  12.917  16.465  20.825 -0.0811 -0.2401  0.1103
52541DOD     C2 1443  13.002  16.788  20.516  0.1664  0.1031  0.1057
52541DOD     C3 1444  12.766  16.927  20.165 -0.3578 -0.0804 -0.0130
52542DOD     C1 1445  22.848  20.457  10.056  0.0540 -0.0139  0.3188
52542DOD     C2 1446  23.147  20.286  10.424 -0.0600  0.1794  0.0925
52542DOD     C3 1447  23.485  20.286  10.702  0.0831 -0.2551  0.0717
52543DOD     C1 1448  25.827   4.481  27.726  0.2082  0.2434 -0.2626
52543DOD     C2 1449  25.549   4.202  27.481 -0.2630  0.0093  0.0671
52543DOD     C3 1450  25.141   4.040  27.413 -0.0337  0.1210 -0.1237
52544DOD     C1 1451  16.916   9.359  21.055  0.0877 -0.0372 -0.0312
52544DOD     C2 1452  16.618   9.069  20.838 -0.1008 -0.0494  0.0476
52544DOD     C3 1453  16.497   8.615  20.727  0.1292  0.1224  0.0572
52545DOD     C1 1454  17.944  24.124   5.353  0.0433 -0.0814  0.6278
52545DOD     C2 1455  18.136  23.745   5.448 -0.0370 -0.1349  0.0467
52545DOD     C3 1456  17.870  23.401   5.572  0.1340  0.1679  0.1359
52546DOD     C1 1457   8.829   5.283  19.012 -0.0564  0.1816  0.1963
52546DOD     C2 1458   9.103   5.212  18.663 -0.3865  0.0175 -0.1957
52546DOD     C3 1459   9.242   5.450  18.276 -0.0869 -0.1656  0.0298
52547DOD     C1 1460  15.635   4.596   1.895  0.1375 -0.0737 -0.0982
52547DOD     C2 1461  15.483   4.934   1.535 -0.2704  0.0158 -0.4568
52547DOD     C3 1462  15.327   5.362   1.408 -0.0151  0.0421  0.3544
52548DOD     C1 1463  23.882  11.910  16.584  0.1774  0.1265  0.2910
52548DOD     C2 1464  24.316  12.115  16.637  0.0691  0.1772  0.0622
52548DOD     C3 1465  24.608  12.428  16.801  0.1073  0.0566 -0.2285
52549DOD     C1 1466  13.709  28.770   3.112  0.1062 -0.0057  0.2323
52549DOD     C2 1467  14.136  28.969   3.214  0.1575  0.0332 -0.1773
52549DOD     C3 1468  14.546  28.894   3.051 -0.0509 -0.1812 -0.2606
52550DOD     C1 1469   5.405  10.141  29.209  0.2316  0.1880 -0.1080
52550DOD     C2 1470   5.309  10.546  29.006  0.1718  0.2370  0.5437
52550DOD     C3 1471   4.936  10.839  28.973 -0.0871  0.1632 -0.0623
52551DOD     C1 1472   5.044  19.251  25.291  0.0290  0.1478 -0.2921
52551DOD     C2 1473   4.945  19.501  25.689 -0.1288 -0.0500 -0.2318
52551DOD     C3 1474   4.848  19.486  26.146 -0.0281  0.1410  0.0433
52552DOD     C1 1475   3.679   3.184  17.989  0.1982  0.1752  0.0457
52552DOD     C2 1476   4.028   3.427  17.837 -0.1801 -0.0338 -0.0492
52552DOD     C3 1477   4.076   3.877  17.784  0.2914  0.2158  0.0665
52553DOD     C1 1478  17.436  10.618  17.275  0.1312 -0.1626 -0.0458
52553DOD     C2 1479  17.187  10.212  17.326  0.1157  0.0614 -0.0087
52553DOD     C3 1480  16.895   9.814  17.240 -0.1327 -0.1344 -0.0678
52554DOD     C1 1481  17.758  15.338  18.180 -0.1110 -0.1580 -0.0794
52554DOD     C2 1482  17.664  14.975  18.441 -0.2707  0.1279 -0.2704
52554DOD     C3 1483  17.621  14.626  18.639 -0.0883 -0.0941  0.1617
52555DOD     C1 1484  23.286  14.615  10.551  0.0179 -0.0705 -0.0801
52555DOD     C2 1485  23.113  14.955  10.844  0.2861  0.0475 -0.2018
52555DOD     C3 1486  23.024  15.060  11.250  0.2708 -0.1799  0.0864
52556DOD     C1 1487  11.977   8.917  11.210 -0.1796 -0.0118  0.1852
52556DOD     C2 1488  11.732   9.278  11.418 -0.0968  0.0290 -0.3235
52556DOD     C3 1489  11.281   9.369  11.522 -0.0396 -0.0263 -0.1600
52557DOD     C1 1490  28.796  14.348   5.554 -0.3469  0.1183 -0.3042
52557DOD     C2 1491  28.628  13.921   5.653  0.1167  0.0450 -0.0281
52557DOD     C3 1492  28.391  13.712   6.028 -0.3165 -0.2114 -0.1834
52558DOD     C1 1493  20.740  12.992  21.156  0.1916 -0.2194 -0.0629
52558DOD     C2 1494  20.660  13.079  21.658  0.3652  0.0938 -0.1354
52558DOD     C3 1495  20.699  12.941  22.079 -0.0913 -0.0799 -0.0777
52559DOD     C1 1496   3.517  14.300  18.711 -0.2644 -0.2293 -0.2582
52559DOD     C2 1497   3.223  14.698  18.735  0.0116 -0.0740 -0.0587
52559DOD     C3 1498   3.277  15.034  19.020 -0.1811  0.2549 -0.0783
52560DOD     C1 1499  28.866  19.591  22.694  0.1671 -0.1441  0.1040
52560DOD     C2 1500  28.990  19.720  23.138  0.1314  0.0118 -0.0654
52560DOD     C3 1501  29.188  20.069  23.297 -0.0354  0.1230  0.1333
52561DOD     C1 1502  16.124  10.498  26.089  0.2939  0.2121 -0.2642
52561DOD     C2 1503  16.120  10.165  25.758  0.0277  0.1754 -0.0038
52561DOD     C3 1504  16.155  10.274  25.299 -0.2543 -0.2069  0.1166
52562DOD     C1 1505   5.225  21.128  21.041  0.2676  0.1941  0.0314
52562DOD     C2 1506   4.903  20.977  20.727 -0.1785  0.3617 -0.1418
52562DOD     C3 1507   4.616  20.893  20.365  0.2407  0.2387 -0.0439
52563DOD     C1 1508  28.718  29.435   2.039 -0.0427  0.1730 -0.0547
52563DOD     C2 1509  28.624  29.660   2.434  0.2670  0.3013 -0.1551
52563DOD     C3 1510  28.394  29.866   2.788  0.2383  0.0675 -0.0994
52564DOD     C1 1511  25.147  16.013   5.579 -0.0421 -0.0660 -0.3881
52564DOD     C2 1512  25.331  16.100   5.980  0.1323  0.0413 -0.0683
52564DOD     C3 1513  25.628  16.054   6.386  0.0958  0.0778 -0.0473
52565DOD     C1 1514   5.923  14.331  19.093  0.0968 -0.1743  0.2314
52565DOD     C2 1515   5.982  13.972  19.358  0.1335 -0.1434  0.3996
52565DOD     C3 1516   6.073  13.501  19.347 -0.0674  0.1914  0.1110
52566DOD     C1 1517  27.956   9.453   8.680  0.0868 -0.0158  0.0285
52566DOD     C2 1518  28.138   9.366   8.240  0.2630 -0.1234  0.1909
52566DOD     C3 1519  27.837   9.167   7.904  0.2571  0.2196 -0.0403
52567DOD     C1 1520  28.359   1.345  18.884  0.2421 -0.1330 -0.1926
52567DOD     C2 1521  28.117   1.330  19.216  0.1181 -0.1002 -0.0224
52567DOD     C3 1522  27.826   1.070  19.425  0.0898  0.2875 -0.1163
52568DOD     C1 1523  14.630   5.625  21.418  0.0188  0.0833 -0.1765
52568DOD     C2 1524  14.782   5.417  21.818  0.1013  0.0639  0.2502
52568DOD     C3 1525  15.071   5.165  22.097  0.0326  0.0308 -0.0151
52569DOD     C1 1526   7.382  15.439  11.755  0.1134 -0.2607 -0.1585
52569DOD     C2 1527   7.805  15.581  11.968  0.2433  0.0543  0.0895
52569DOD     C3 1528   8.245  15.672  11.812  0.1822 -0.0601  0.4576
52570DOD     C1 1529  12.296  14.083  19.310  0.0674 -0.0544  0.0080
52570DOD     C2 1530  12.325  14.550  19.410 -0.2203 -0.0385 -0.3437
52570DOD     C3 1531  12.720  14.719  19.591  0.1837 -0.0485 -0.1661
52571DOD     C1 1532   1.486   3.407  16.453  0.0334 -0.2107 -0.3139
52571DOD     C2 1533   1.223   2.980  16.602  0.2506  0.1002 -0.1082
52571DOD     C3 1534   0.762   2.917  16.664 -0.1352  0.2279 -0.0780
52572DOD     C1 1535   6.854  21.467  21.718 -0.1982 -0.1673  0.1709
52572DOD     C2 1536   7.164  21.255  21.967  0.3485  0.0487 -0.0049
52572DOD     C3 1537   7.096  20.932  22.290  0.1994  0.1445 -0.4095
52573DOD     C1 1538   7.501  18.711  30.121 -0.0572 -0.2361 -0.2169
52573DOD     C2 1539   7.776  18.430   0.095 -0.1290 -0.0696  0.0362
52573DOD     C3 1540   8.007  18.054   0.169  0.0267 -0.0889  0.1786
52574DOD     C1 1541   4.489  13.748  11.638  0.1358 -0.2803  0.2008
52574DOD     C2 1542   4.658  13.797  12.020  0.1593  0.0451  0.0587
52574DOD     C3 1543   4.937  14.121  12.052  0.1229 -0.2519 -0.2082
52575DOD     C1 1544  21.747  14.753  15.962 -0.1232  0.0860 -0.0322
52575DOD     C2 1545  21.903  14.706  16.386 -0.3072  0.3436  0.3761
52575DOD     C3 1546  21.804  14.291  16.615 -0.0558  0.0278 -0.0594
52576DOD     C1 1547  11.700  19.840  29.785  0.0318  0.1119  0.0401
52576DOD     C2 1548  11.206  19.869  29.769 -0.1664 -0.3460  0.1341
52576DOD     C3 1549  10.726  19.765  29.965 -0.0336  0.0908  0.2712
52577DOD     C1 1550  21.013  28.942   4.801 -0.2605  0.0241  0.0540
52577DOD     C2 1551  21.345  29.268   4.782 -0.3101 -0.1178  0.0125
52577DOD     C3 1552  21.471  29.556   5.055  0.0507 -0.1229 -0.3578
52578DOD     C1 1553  19.925  14.903  15.596 -0.2355  0.0451  0.2867
52578DOD     C2 1554  19.507  14.818  15.519  0.1071  0.0585 -0.2132
52578DOD     C3 1555  19.118  14.681  15.317  0.0779  0.0133 -0.2575
52579DOD     C1 1556  19.328  14.670  25.851 -0.2164  0.2560 -0.1077
52579DOD     C2 1557  19.146  14.549  25.478 -0.1436 -0.2582 -0.1555
52579DOD     C3 1558  19.039  14.341  25.090 -0.5334  0.0997 -0.0834
52580DOD     C1 1559  23.544  14.147   9.604 -0.2120 -0.0443  0.0237
52580DOD     C2 1560  23.302  13.867   9.858 -0.1284  0.2346 -0.2357
52580DOD     C3 1561  23.005  13.618   9.619 -0.1328  0.1580  0.1919
52581DOD     C1 1562  19.980  11.499  30.001  0.1312  0.1686 -0.0882
52581DOD     C2 1563  19.842  11.267  29.574  0.3819 -0.2600 -0.2741
52581DOD     C3 1564  19.925  11.104  29.170  0.0667  0.0460 -0.0224
52582DOD     C1 1565   9.003   0.340   8.792 -0.3746 -0.1097  0.3429
52582DOD     C2 1566   9.153  30.282   8.999  0.1801  0.1213 -0.1442
52582DOD     C3 1567   9.185  29.884   9.286  0.1714  0.3200  0.0219
52583DOD     C1 1568  10.966  25.730   5.703 -0.1676  0.2962  0.0746
52583DOD     C2 1569  10.528  25.634   5.850 -0.0340 -0.4404  0.3264
52583DOD     C3 1570  10.080  25.699   5.827 -0.4459  0.1876 -0.0112
52584DOD     C1 1571  20.680  12.497  27.912  0.0834  0.0390  0.1712
52584DOD     C2 1572  20.654  12.701  28.337  0.1363 -0.0162 -0.0619
52584DOD     C3 1573  20.758  12.964  28.677  0.0600 -0.0242  0.1068
52585DOD     C1 1574  27.619   2.533  18.699  0.4021 -0.1289 -0.1170
52585DOD     C2 1575  27.462   2.977  18.622 -0.1693  0.0271  0.1577
52585DOD     C3 1576  27.056   3.137  18.460 -0.0900 -0.1297  0.0227
52586DOD     C1 1577  28.608  20.598  25.601  0.2666  0.1870 -0.0634
52586DOD     C2 1578  28.997  20.362  25.795  0.0234  0.0646  0.3219
52586DOD     C3 1579  29.417  20.198  25.921  0.0991 -0.0276  0.0256
52587DOD     C1 1580   1.375  29.823  19.045 -0.1622  0.0639  0.0535
52587DOD     C2 1581   1.054  29.539  19.029  0.0266  0.2106  0.0484
52587DOD     C3 1582   0.644  29.621  19.097  0.0760  0.0741 -0.1471
52588DOD     C1 1583  15.592  20.212   8.806  0.1219  0.0707  0.3755
52588DOD     C2 1584  15.279  19.882   8.836  0.0034 -0.2631 -0.1608
52588DOD     C3 1585  14.902  19.823   8.606 -0.1786 -0.1890  0.1082
52589DOD     C1 1586   3.912  13.511  19.058 -0.3475 -0.3826 -0.0166
52589DOD     C2 1587   4.044  13.055  19.066 -0.4193  0.2659 -0.0649
52589DOD     C3 1588   4.293  12.643  19.193 -0.0241  0.1049  0.1137
52590DOD     C1 1589  17.540   3.577   5.421 -0.2118  0.2999  0.0623
52590DOD     C2 1590  17.249   3.203   5.520 -0.0721  0.0776 -0.0484
52590DOD     C3 1591  17.008   2.840   5.722  0.3734  0.1473 -0.0320
52591DOD     C1 1592  23.904  20.181   0.106  0.1399  0.0700  0.0845
52591DOD     C2 1593  23.527  19.956   0.049  0.3310 -0.3591 -0.0395
52591DOD     C3 1594  23.174  19.817   0.352 -0.0571  0.0826  0.0777
52592DOD     C1 1595   0.640  21.462  14.539 -0.0236 -0.1097 -0.2242
52592DOD     C2 1596   1.050  21.503  14.336 -0.1553 -0.0731 -0.3618
52592DOD     C3 1597   1.442  21.373  14.098 -0.0916 -0.2639 -0.1353
52593DOD     C1 1598  14.986  20.525   5.939 -0.1647 -0.0282  0.0186
52593DOD     C2 1599  15.063  20.493   6.370 -0.0097  0.5644 -0.1282
52593DOD     C3 1600  15.142  20.379   6.799  0.3039 -0.0797  0.1113
52594DOD     C1 1601   2.664   2.053  25.442  0.1620 -0.4537  0.1568
52594DOD     C2 1602   2.795   1.829  25.791  0.0076  0.0947 -0.0702
52594DOD     C3 1603   2.719   1.479  26.038  0.3918  0.0872 -0.1481
52595DOD     C1 1604  17.887  18.778  23.280 -0.0555 -0.1225 -0.2446
52595DOD     C2 1605  17.599  18.697  22.883 -0.1469  0.2289  0.2386
52595DOD     C3 1606  17.535  18.582  22.399 -0.0716 -0.2877  0.0502
52596DOD     C1 1607  27.800   5.473  22.409  0.1031  0.4204 -0.0633
52596DOD     C2 1608  27.763   5.206  22.047 -0.1015  0.0062  0.0801
52596DOD     C3 1609  27.395   4.972  21.882  0.1035  0.0951  0.2609
52597DOD     C1 1610   7.157  23.519  26.390  0.0089 -0.0238 -0.1394
52597DOD     C2 1611   7.406  23.780  26.048  0.2089  0.2378  0.1830
52597DOD     C3 1612   7.720  23.912  25.739 -0.1505  0.0310 -0.0646
52598DOD     C1 1613  26.789   1.110  23.927  0.1051 -0.1305  0.2262
52598DOD     C2 1614  27.160   0.873  24.025 -0.0332 -0.0687 -0.1691
52598DOD     C3 1615  27.458   0.593  24.273 -0.1385 -0.0928  0.1974
52599DOD     C1 1616  29.346   9.538  28.075 -0.2396 -0.0772 -0.3485
52599DOD     C2 1617  29.636   9.813  28.238 -0.0469  0.3197 -0.2232
52599DOD     C3 1618  29.656  10.092  28.604 -0.0555 -0.2643 -0.0890
52600DOD     C1 1619   8.421  18.128   8.629  0.1966 -0.0571 -0.0784
52600DOD     C2 1620   8.193  18.565   8.569  0.0776 -0.0450 -0.3184
52600DOD     C3 1621   7.981  18.930   8.566 -0.2965 -0.2234  0.2357
52601DOD     C1 1622   6.041  24.178  19.889 -0.0710 -0.1456 -0.1016
52601DOD     C2 1623   6.500  24.150  20.019  0.1457 -0.1407 -0.0186
52601DOD     C3 1624   6.918  23.950  20.097  0.1158  0.0002 -0.0525
52602DOD     C1 1625  22.745  25.036  18.353 -0.1979  0.2851  0.2247
52602DOD     C2 1626  22.724  24.622  18.381 -0.0585 -0.3353 -0.0031
52602DOD     C3 1627  22.701  24.185  18.170 -0.0170  0.2869  0.1148
52603DOD     C1 1628   7.932  11.068  26.255  0.1668 -0.0185 -0.0261
52603DOD     C2 1629   8.337  11.183  26.047 -0.0059 -0.2195 -0.3434
52603DOD     C3 1630   8.671  11.443  26.264 -0.1626 -0.0847  0.2401
52604DOD     C1 1631  27.441  21.263  16.217  0.3762 -0.0527 -0.2855
52604DOD     C2 1632  27.499  21.381  16.679  0.3803  0.1530  0.1560
52604DOD     C3 1633  27.916  21.535  16.984  0.2410 -0.0243  0.1998
52605DOD     C1 1634  12.943   8.665   8.201 -0.2939 -0.1174  0.1255
52605DOD     C2 1635  13.216   8.945   7.932 -0.4255 -0.0414 -0.2619
52605DOD     C3 1636  13.178   9.268   7.575 -0.2280  0.0796 -0.4510
52606DOD     C1 1637  16.226  13.695  27.153  0.1100 -0.0449  0.2707
52606DOD     C2 1638  16.096  13.727  26.686  0.4577 -0.3318 -0.1420
52606DOD     C3 1639  15.747  13.684  26.332 -0.4464  0.0148 -0.5076
52607DOD     C1 1640   2.477  16.336  25.005 -0.1653 -0.1393  0.1340
52607DOD     C2 1641   2.870  16.285  24.653 -0.0428  0.1505 -0.0857
52607DOD     C3 1642   3.230  16.593  24.689 -0.6139 -0.2341  0.2858
52608DOD     C1 1643   9.979  12.599   4.613  0.1514 -0.0337 -0.0116
52608DOD     C2 1644  10.179  12.240   4.786  0.3199 -0.0063 -0.0817
52608DOD     C3 1645  10.291  11.767   4.662  0.0771 -0.0690 -0.1705
52609DOD     C1 1646  16.839  23.244  11.782 -0.0099 -0.1540 -0.1583
52609DOD     C2 1647  16.762  22.989  12.147  0.1709 -0.0082 -0.1626
52609DOD     C3 1648  16.648  22.607  12.330 -0.2962  0.2243  0.0607
52610DOD     C1 1649  25.771   8.462  13.922 -0.1635  0.1496 -0.1144
52610DOD     C2 1650  26.222   8.526  13.967 -0.1293  0.0508 -0.1714
52610DOD     C3 1651  26.593   8.279  13.894  0.3044  0.0995 -0.2345
52611DOD     C1 1652  16.540   7.054  17.409  0.0824 -0.1201 -0.1603
52611DOD     C2 1653  16.392   7.457  17.195 -0.1568 -0.1181 -0.1648
52611DOD     C3 1654  16.063   7.698  17.007 -0.3000 -0.1767  0.1297
52612DOD     C1 1655  20.239  15.466  14.355  0.3847 -0.1000 -0.1091
52612DOD     C2 1656  20.609  15.818  14.236  0.0994 -0.2516  0.0051
52612DOD     C3 1657  21.022  15.908  14.134  0.0943 -0.0871  0.0040
52613DOD     C1 1658   0.598  26.136  29.643 -0.2116 -0.1411  0.2782
52613DOD     C2 1659   0.461  25.790  29.398  0.0889  0.1134 -0.1104
52613DOD     C3 1660   0.555  25.597  28.964 -0.0781  0.1374 -0.0326
52614DOD     C1 1661   2.544  25.474   2.194  0.2590  0.1047 -0.0271
52614DOD     C2 1662   2.122  25.342   2.372 -0.1285  0.0016  0.3025
52614DOD     C3 1663   1.843  25.242   2.754 -0.4258 -0.0045  0.0670
52615DOD     C1 1664  20.023  26.149  18.823 -0.0175 -0.1461 -0.3007
52615DOD     C2 1665  20.095  26.067  18.337 -0.2614 -0.3809  0.0376
52615DOD     C3 1666  20.136  26.285  17.969 -0.2241 -0.0943  0.0290
52616DOD     C1 1667  26.613  17.431   9.699  0.0936 -0.1727 -0.1051
52616DOD     C2 1668  26.608  17.624  10.107 -0.2918  0.0658 -0.1459
52616DOD     C3 1669  26.480  17.541  10.501 -0.3745  0.0594  0.1085
52617DOD     C1 1670  21.484  30.274  24.092  0.1913  0.1244  0.0804
52617DOD     C2 1671  21.410  30.260  24.525  0.1025 -0.0126 -0.1328
52617DOD     C3 1672  21.322  30.212  24.992  0.1153  0.2293  0.1268
52618DOD     C1 1673   4.121  11.394  22.906 -0.1002  0.0171 -0.1523
52618DOD     C2 1674   3.929  11.780  23.056  0.2586  0.1996  0.0697
52618DOD     C3 1675   3.839  12.089  23.338 -0.1907 -0.2562 -0.0499
52619DOD     C1 1676  16.230   0.462  22.052 -0.0193 -0.0873  0.0470
52619DOD     C2 1677  16.046   0.552  22.422  0.2645 -0.0810  0.1001
52619DOD     C3 1678  15.686   0.625  22.650 -0.0201 -0.0316 -0.0708
52620DOD     C1 1679  24.057  21.965  22.669  0.0988 -0.3775  0.2690
52620DOD     C2 1680  24.075  22.428  22.821  0.0736  0.2646  0.2769
52620DOD     C3 1681  24.354  22.865  22.797  0.0837 -0.4642  0.1078
52621DOD     C1 1682  14.840  24.080  12.420 -0.0151  0.3418  0.1608
52621DOD     C2 1683  14.479  23.818  12.380 -0.0836 -0.0472 -0.0561
52621DOD     C3 1684  14.164  23.893  12.043 -0.0397 -0.3399 -0.0468
52622DOD     C1 1685   9.370  28.013   0.453  0.3958 -0.0012 -0.1048
52622DOD     C2 1686   9.499  28.300   0.166 -0.2447 -0.1973  0.1900
52622DOD     C3 1687   9.662  28.658   0.096  0.0251 -0.5399 -0.3151
52623DOD     C1 1688  10.880   9.934  10.899 -0.0485 -0.2729  0.0114
52623DOD     C2 1689  11.175   9.727  11.198  0.0733 -0.0102 -0.3643
52623DOD     C3 1690  11.634   9.796  11.296 -0.1428  0.1026  0.1632
52624DOD     C1 1691  30.271   3.392   4.347  0.1737 -0.2781 -0.2553
52624DOD     C2 1692   0.034   3.747   4.090  0.0452  0.1964 -0.3314
52624DOD     C3 1693   0.352   3.923   3.947  0.0865  0.0043  0.1135
52625DOD     C1 1694   9.209  26.105  18.287  0.3796 -0.2077 -0.0181
52625DOD     C2 1695   9.277  26.428  17.996  0.0018  0.3598  0.0409
52625DOD     C3 1696   9.277  26.769  17.661 -0.1057 -0.1017 -0.4628
52626DOD     C1 1697  10.543  12.806  25.475 -0.0475  0.1547  0.0302
52626DOD     C2 1698  10.047  12.803  25.432  0.4462  0.2680 -0.4987
52626DOD     C3 1699   9.649  12.692  25.243 -0.0905  0.0055 -0.1402
52627DOD     C1 1700  15.272   0.842  19.939 -0.2548 -0.1360 -0.2216
52627DOD     C2 1701  14.845   0.716  20.110  0.0228  0.1045  0.1712
52627DOD     C3 1702  14.664   0.325  20.233 -0.2411 -0.1699  0.3620
52628DOD     C1 1703  28.885   3.492  11.800 -0.1016 -0.1996  0.2395
52628DOD     C2 1704  28.953   3.632  12.216 -0.0671 -0.0567 -0.2914
52628DOD     C3 1705  29.219   3.667  12.617  0.4801  0.1276  0.4117
52629DOD     C1 1706  17.726   4.065  16.244  0.0158 -0.1326  0.0648
52629DOD     C2 1707  17.438   3.785  16.475  0.3119 -0.0422  0.1614
52629DOD     C3 1708  17.388   3.541  16.920  0.1891  0.2116  0.1948
52630DOD     C1 1709  13.341  17.350  26.599 -0.0081 -0.2252 -0.0398
52630DOD     C2 1710  13.029  17.158  26.826 -0.0715 -0.0860  0.1313
52630DOD     C3 1711  12.548  17.187  27.109  0.0437 -0.2034 -0.2555
52631DOD     C1 1712  17.909  13.536   7.680  0.0651  0.0874  0.0099
52631DOD     C2 1713  17.908  13.965   7.625 -0.0018 -0.0833 -0.3418
52631DOD     C3 1714  17.899  14.371   7.413 -0.1222  0.4479  0.2077
52632DOD     C1 1715  15.208  19.007  15.660  0.1283  0.1011  0.0009
52632DOD     C2 1716  14.896  18.993  15.397  0.1862 -0.2532 -0.0138
52632DOD     C3 1717  14.416  19.145  15.282 -0.0598 -0.1236  0.0911
52633DOD     C1 1718  25.421  29.478   2.611  0.1100 -0.2333  0.1632
52633DOD     C2 1719  25.511  29.606   2.156 -0.1575 -0.0696 -0.0434
52633DOD     C3 1720  25.594  29.450   1.724 -0.0670 -0.0012  0.2435
52634DOD     C1 1721  29.907  13.745   2.083  0.1710  0.0823  0.1534
52634DOD     C2 1722  29.809  13.693   2.567 -0.2672  0.1337  0.1846
52634DOD     C3 1723  29.593  13.833   3.010 -0.3382  0.3400  0.2134
52635DOD     C1 1724  22.184  17.560  20.157  0.3353  0.0451 -0.1963
52635DOD     C2 1725  22.114  17.988  20.246  0.0165 -0.1280 -0.1207
52635DOD     C3 1726  21.875  18.441  20.324  0.1468 -0.1263  0.0565
52636DOD     C1 1727  28.241   6.362   1.741  0.0224  0.2054  0.0268
52636DOD     C2 1728  28.107   6.398   1.282 -0.1077  0.0055  0.0179
52636DOD     C3 1729  27.941   6.704   0.963  0.0075  0.0754  0.0410
52637DOD     C1 1730  19.103  20.288   1.805  0.2709 -0.0450 -0.1115
52637DOD     C2 1731  19.077  20.301   2.299 -0.1333  0.3411  0.0217
52637DOD     C3 1732  19.177  20.431   2.770  0.1154 -0.0860 -0.0641
52638DOD     C1 1733   8.207   6.624   7.236 -0.2709  0.0380 -0.1124
52638DOD     C2 1734   7.788   6.799   7.314  0.3525  0.1990 -0.0211
52638DOD     C3 1735   7.575   7.274   7.380  0.1271 -0.2266  0.0009
52639DOD     C1 1736   1.912   3.556   3.497  0.1787 -0.0306  0.0034
52639DOD     C2 1737   1.657   3.920   3.311 -0.1917 -0.2677  0.0055
52639DOD     C3 1738   1.367   4.244   3.207  0.2080 -0.2876  0.0719
52640DOD     C1 1739  11.814   9.413  25.783 -0.4019  0.0610  0.1402
52640DOD     C2 1740  12.008   9.592  26.128  0.0057 -0.2111  0.1401
52640DOD     C3 1741  12.200   9.729  26.572 -0.1300 -0.0487  0.3884
52641DOD     C1 1742  11.917   6.404   8.109 -0.2804 -0.0970 -0.2381
52641DOD     C2 1743  11.533   6.287   7.988 -0.0391 -0.0238 -0.1628
52641DOD     C3 1744  11.289   5.865   8.059 -0.0605  0.1724 -0.0479
52642DOD     C1 1745  14.569   6.854   8.896  0.3038  0.1739 -0.1105
52642DOD     C2 1746  14.614   6.408   8.790  0.0897 -0.0777 -0.0902
52642DOD     C3 1747  14.460   5.977   8.660  0.2010  0.3813  0.3018
52643DOD     C1 1748   8.797  13.080  27.682 -0.0243 -0.2859  0.1217
52643DOD     C2 1749   9.242  12.978  27.722 -0.0164  0.1065 -0.1846
52643DOD     C3 1750   9.641  12.764  27.588  0.3040 -0.0366  0.1617
52644DOD     C1 1751  13.743  22.325  26.279 -0.0809  0.0413 -0.2177
52644DOD     C2 1752  13.879  22.743  26.186 -0.2571 -0.2635 -0.2156
52644DOD     C3 1753  13.839  22.940  25.743  0.3003  0.3185 -0.1775
52645DOD     C1 1754  18.592   9.720   7.437  0.0845 -0.2025  0.5639
52645DOD     C2 1755  18.447  10.183   7.492  0.2946 -0.1342 -0.0664
52645DOD     C3 1756  18.459  10.657   7.367 -0.2544  0.1988 -0.3266
52646DOD     C1 1757  21.778  13.598   1.236 -0.1297 -0.0010  0.1819
52646DOD     C2 1758  21.575  13.305   0.942  0.0295 -0.1068 -0.0283
52646DOD     C3 1759  21.723  12.887   0.692 -0.3069  0.0089 -0.1660
52647DOD     C1 1760  24.295   1.630   5.410  0.2128 -0.1004 -0.2666
52647DOD     C2 1761  24.522   1.463   5.752 -0.2700  0.3494  0.1657
52647DOD     C3 1762  24.485   1.311   6.200 -0.2707 -0.3203  0.0719
52648DOD     C1 1763  18.359   2.871   1.820  0.0208  0.2044 -0.2943
52648DOD     C2 1764  18.579   3.253   1.728  0.0375  0.1463  0.1330
52648DOD     C3 1765  18.807   3.570   1.441 -0.2401 -0.2524 -0.0568
52649DOD     C1 1766  30.237   0.726   0.215  0.2268  0.2674  0.1557
52649DOD     C2 1767  30.196   0.326   0.304 -0.1952  0.1760  0.1716
52649DOD     C3 1768   0.198  30.305   0.297 -0.1508 -0.0568  0.3142
52650DOD     C1 1769  24.127  24.110  27.395 -0.0832 -0.1717  0.0901
52650DOD     C2 1770  23.751  23.925  27.600 -0.0920  0.2206 -0.5584
52650DOD     C3 1771  23.386  23.794  27.825 -0.0131  0.1056 -0.0670
52651DOD     C1 1772  18.360  25.001   6.523  0.0996 -0.1106  0.2974
52651DOD     C2 1773  18.674  24.709   6.222  0.1525  0.2376  0.0826
52651DOD     C3 1774  18.769  24.781   5.790  0.1502  0.1019 -0.0755
52652DOD     C1 1775  10.885  19.845  11.589 -0.0814  0.0840 -0.3008
52652DOD     C2 1776  10.747  19.782  11.137  0.0842  0.3678 -0.2096
52652DOD     C3 1777  10.837  19.478  10.816  0.1010 -0.0147 -0.1099
52653DOD     C1 1778  13.937  29.076   2.719 -0.1721  0.1256 -0.1779
52653DOD     C2 1779  13.654  28.782   2.516  0.1071  0.1724 -0.0310
52653DOD     C3 1780  13.739  28.591   2.120 -0.1279  0.0913  0.3492
52654DOD     C1 1781  11.027  19.636   5.276 -0.3133  0.1685 -0.1032
52654DOD     C2 1782  10.924  19.305   5.641 -0.0710  0.3260  0.1831
52654DOD     C3 1783  10.762  19.360   6.067 -0.2513  0.1055 -0.1091
52655DOD     C1 1784   9.470  16.664   2.197  0.2203  0.0055  0.1081
52655DOD     C2 1785   9.631  17.081   2.316  0.0973  0.2174 -0.1093
52655DOD     C3 1786   9.750  17.514   2.506  0.6192  0.2074 -0.0612
52656DOD     C1 1787   7.658  12.473  10.903  0.0840  0.1988  0.0978
52656DOD     C2 1788   7.882  12.558  10.563  0.1510  0.0743  0.1263
52656DOD     C3 1789   8.286  12.417  10.461 -0.0228  0.2186 -0.0161
52657DOD     C1 1790  21.545  16.809   7.229 -0.4117  0.2935  0.1446
52657DOD     C2 1791  21.406  16.504   6.925  0.2055  0.1362 -0.1184
52657DOD     C3 1792  21.139  16.416   6.591  0.2842  0.0820 -0.0153
52658DOD     C1 1793  17.134  29.059   5.372 -0.2036 -0.0663 -0.1926
52658DOD     C2 1794  16.816  28.929   5.715 -0.1709  0.0706 -0.2916
52658DOD     C3 1795  16.897  28.813   6.176  0.1494  0.0700 -0.0108
52659DOD     C1 1796   8.997   8.069  12.800  0.1510 -0.0840 -0.0507
52659DOD     C2 1797   9.062   8.413  12.539 -0.1110 -0.3190  0.0774
52659DOD     C3 1798   8.892   8.805  12.473  0.2172 -0.0002  0.3774
52660DOD     C1 1799  20.484  26.303   9.349 -0.0583 -0.1972  0.1265
52660DOD     C2 1800  20.871  26.084   9.463 -0.1690 -0.1458  0.1821
52660DOD     C3 1801  21.231  25.816   9.284 -0.1236  0.1334  0.1066
52661DOD     C1 1802  14.196  16.441  27.102 -0.1700  0.0748 -0.1519
52661DOD     C2 1803  14.054  16.077  26.838 -0.0366 -0.2695  0.0359
52661DOD     C3 1804  13.859  15.705  26.616 -0.1961 -0.0332  0.2477
52662DOD     C1 1805  21.063  26.714  11.207 -0.0275 -0.2057 -0.0916
52662DOD     C2 1806  20.973  26.943  10.761 -0.0110  0.1487 -0.1157
52662DOD     C3 1807  21.050  27.414  10.559  0.0530  0.0440  0.1291
52663DOD     C1 1808   2.936  24.869  21.760 -0.2272  0.0373  0.3229
52663DOD     C2 1809   2.893  25.221  21.448  0.0244 -0.3171 -0.2240
52663DOD     C3 1810   2.527  25.275  21.106  0.0409  0.2666 -0.0643
52664DOD     C1 1811   5.306  12.166  26.886  0.0859  0.1642  0.2302
52664DOD     C2 1812   5.550  11.810  27.022 -0.0479  0.1445 -0.2314
52664DOD     C3 1813   5.947  11.621  26.959  0.1855  0.0907  0.4047
52665DOD     C1 1814  15.338   3.432  27.681  0.0858  0.1241  0.0240
52665DOD     C2 1815  14.978   3.449  27.321  0.0098 -0.1335 -0.0350
52665DOD     C3 1816  14.858   3.043  27.303  0.0485 -0.0356  0.1081
52666DOD     C1 1817  13.308  17.680   5.435 -0.0770  0.2391  0.1226
52666DOD     C2 1818  12.966  17.353   5.605  0.0299 -0.2078 -0.0926
52666DOD     C3 1819  12.898  16.953   5.901 -0.0228 -0.1089  0.2006
52667DOD     C1 1820   2.320  18.054  12.287  0.4101 -0.1104 -0.1538
52667DOD     C2 1821   1.883  18.080  12.292  0.0372  0.3664  0.1728
52667DOD     C3 1822   1.471  17.926  12.140  0.1952  0.2199 -0.3524
52668DOD     C1 1823  23.781  12.395   7.432  0.4883 -0.1112 -0.0530
52668DOD     C2 1824  23.700  12.671   7.837 -0.1333  0.0200 -0.2420
52668DOD     C3 1825  24.010  12.900   8.121 -0.0423 -0.2383  0.0419
52669DOD     C1 1826   5.735   7.355  26.709 -0.2384 -0.1764 -0.2455
52669DOD     C2 1827   5.311   7.173  26.829  0.4626  0.1771 -0.2775
52669DOD     C3 1828   4.864   7.331  26.884 -0.3007  0.1616 -0.2014
52670DOD     C1 1829  29.638  25.261  12.541 -0.1381 -0.1231  0.2676
52670DOD     C2 1830  29.325  25.027  12.793 -0.1444  0.1002 -0.2699
52670DOD     C3 1831  29.018  24.652  12.932 -0.0793  0.2924 -0.0342
52671DOD     C1 1832  10.172  12.777  15.150  0.0860  0.0160 -0.2668
52671DOD     C2 1833   9.850  12.364  15.216 -0.3273 -0.0308 -0.3706
52671DOD     C3 1834   9.444  12.083  15.062 -0.0771  0.2194 -0.0680
52672DOD     C1 1835  26.563  13.831   0.482  0.0571 -0.0582  0.1567
52672DOD     C2 1836  26.931  14.043   0.541  0.0350  0.1959  0.1245
52672DOD     C3 1837  27.256  14.142   0.191 -0.0013 -0.0334  0.0175
52673DOD     C1 1838  24.695  12.006  23.146  0.0564 -0.1943 -0.2467
52673DOD     C2 1839  24.247  12.176  23.136 -0.0080  0.1507 -0.0470
52673DOD     C3 1840  23.785  12.296  23.251 -0.2076 -0.2054  0.0084
52674DOD     C1 1841   0.544  24.374  23.521  0.0230  0.3326  0.0129
52674DOD     C2 1842   0.232  24.101  23.613  0.3125 -0.0674  0.1837
52674DOD     C3 1843   0.193  23.642  23.479  0.1663 -0.3794 -0.0352
52675DOD     C1 1844   8.695  27.497  23.526 -0.0674  0.0614 -0.0692
52675DOD     C2 1845   8.670  27.477  23.987  0.1081 -0.0241  0.4542
52675DOD     C3 1846   8.861  27.506  24.420  0.0322 -0.1267  0.0744
52676DOD     C1 1847  18.052  26.449  16.692  0.2778 -0.2430 -0.2032
52676DOD     C2 1848  18.444  26.615  16.652 -0.1579  0.2077  0.1064
52676DOD     C3 1849  18.672  27.055  16.630 -0.2587 -0.0576 -0.1186
52677DOD     C1 1850  15.099  10.742  30.108 -0.0094 -0.0162 -0.0254
52677DOD     C2 1851  14.918  10.541  29.705  0.0974 -0.0998  0.0208
52677DOD     C3 1852  14.858  10.267  29.337 -0.1535  0.0504  0.1374
52678DOD     C1 1853   7.751   8.610   6.438 -0.0449 -0.2454  0.0406
52678DOD     C2 1854   7.832   8.615   5.982 -0.0720 -0.0231  0.0818
52678DOD     C3 1855   7.795   8.707   5.544  0.1167  0.0282  0.0883
52679DOD     C1 1856  19.167  27.916  21.109  0.1089 -0.2153 -0.1033
52679DOD     C2 1857  18.965  28.333  21.135 -0.1524  0.0801  0.1909
52679DOD     C3 1858  18.632  28.413  20.844  0.0276  0.1503  0.5928
52680DOD     C1 1859  18.410  13.354  17.482  0.2298 -0.1257  0.1885
52680DOD     C2 1860  18.783  13.176  17.310 -0.0755  0.0377  0.1133
52680DOD     C3 1861  19.095  12.843  17.263 -0.0926  0.1425  0.3741
52681DOD     C1 1862  19.989  25.724   8.402 -0.0002 -0.1747  0.1159
52681DOD     C2 1863  20.128  25.413   8.775 -0.1918 -0.0356 -0.4082
52681DOD     C3 1864  20.044  25.166   9.218  0.1745 -0.0699  0.2881
52682DOD     C1 1865  29.502   3.537   3.118 -0.1308  0.3587  0.0156
52682DOD     C2 1866  29.092   3.349   3.092  0.0963 -0.3303  0.0563
52682DOD     C3 1867  28.620   3.552   3.098 -0.0122  0.0365 -0.0078
52683DOD     C1 1868  26.176   2.362   6.976  0.1666 -0.0534  0.2883
52683DOD     C2 1869  26.652   2.205   7.041  0.2474 -0.0549 -0.0357
52683DOD     C3 1870  27.080   2.141   6.751 -0.0858 -0.3442 -0.2316
52684DOD     C1 1871  23.069  20.213  25.951  0.2321 -0.2520  0.3194
52684DOD     C2 1872  22.745  20.493  26.198  0.0637  0.1793 -0.1801
52684DOD     C3 1873  22.521  20.278  26.619  0.0648  0.6018 -0.1872
52685DOD     C1 1874  30.254   3.038   8.275 -0.2015 -0.2408  0.0612
52685DOD     C2 1875   0.424   3.219   8.270  0.0843  0.2336 -0.2283
52685DOD     C3 1876   0.827   3.201   8.337  0.0070 -0.1107  0.1967
52686DOD     C1 1877  17.412  24.020  12.985  0.0437  0.1949  0.0294
52686DOD     C2 1878  16.947  23.964  12.960  0.3014 -0.2090 -0.0749
52686DOD     C3 1879  16.517  23.869  13.178  0.1994 -0.1500 -0.1320
52687DOD     C1 1880  21.815  28.952  27.387 -0.0572 -0.1189  0.1453
52687DOD     C2 1881  21.915  29.340  27.149 -0.1780  0.0921  0.0334
52687DOD     C3 1882  21.733  29.708  26.994  0.0132 -0.1063 -0.1441
52688DOD     C1 1883  13.648   5.805   9.040  0.0887 -0.2012  0.2627
52688DOD     C2 1884  14.025   6.031   9.233  0.1433  0.3482 -0.1947
52688DOD     C3 1885  14.456   6.156   9.237  0.1660  0.0663  0.0923
52689DOD     C1 1886   3.880  21.094  19.773  0.1418 -0.0766 -0.0058
52689DOD     C2 1887   3.421  21.218  19.822 -0.0176  0.0682  0.1016
52689DOD     C3 1888   2.985  21.075  19.600  0.0737  0.0305  0.1706
52690DOD     C1 1889   3.287   0.013  27.583 -0.2583  0.1096 -0.0914
52690DOD     C2 1890   3.235   0.169  27.133 -0.1891  0.2257 -0.1054
52690DOD     C3 1891   3.073  30.195  26.791  0.1396 -0.0482 -0.1237
52691DOD     C1 1892  17.661  25.397  13.473 -0.1713 -0.2132  0.2373
52691DOD     C2 1893  17.389  25.202  13.783  0.1929  0.0003 -0.1895
52691DOD     C3 1894  17.427  25.367  14.183  0.0836  0.1203 -0.1877
52692DOD     C1 1895  12.913  25.183  15.429 -0.0128 -0.1381 -0.1095
52692DOD     C2 1896  12.822  25.047  15.000  0.0382 -0.0939 -0.1177
52692DOD     C3 1897  12.724  24.795  14.599 -0.1368  0.0643  0.1091
52693DOD     C1 1898  29.642   5.823  14.343  0.0919 -0.2543  0.0261
52693DOD     C2 1899  29.406   5.826  13.985 -0.2297  0.2008  0.3185
52693DOD     C3 1900  29.038   5.843  13.653  0.1373  0.0580 -0.6290
52694DOD     C1 1901  16.978  22.828  13.934  0.0531 -0.2122  0.1703
52694DOD     C2 1902  17.239  22.705  13.523 -0.2356  0.1056  0.0183
52694DOD     C3 1903  17.392  22.731  13.058 -0.1991  0.0050  0.1029
52695DOD     C1 1904  26.774   8.553   6.282 -0.0997 -0.1577  0.0132
52695DOD     C2 1905  26.754   8.829   6.689  0.0199  0.0726  0.0228
52695DOD     C3 1906  26.379   8.812   6.983 -0.1582  0.0220  0.1979
52696DOD     C1 1907  26.430  14.680   7.107  0.3552 -0.2634 -0.0346
52696DOD     C2 1908  26.563  14.336   7.351  0.1184  0.1811 -0.4771
52696DOD     C3 1909  26.860  14.136   7.705  0.0236  0.2734  0.4246
52697DOD     C1 1910  24.881   0.497   4.121 -0.0896 -0.1322 -0.0731
52697DOD     C2 1911  24.893   0.547   4.609  0.1550 -0.2666 -0.3399
52697DOD     C3 1912  24.577   0.319   4.886  0.0966 -0.0292 -0.0371
52698DOD     C1 1913  21.045  10.996   6.630 -0.1782  0.0065 -0.1613
52698DOD     C2 1914  20.895  11.101   7.063  0.2074  0.1781  0.1078
52698DOD     C3 1915  20.909  11.331   7.463 -0.3675  0.2031 -0.1081
52699DOD     C1 1916  13.126   0.564  12.736 -0.0942  0.2668 -0.0561
52699DOD     C2 1917  12.967   1.011  12.611  0.0046 -0.0022 -0.3457
52699DOD     C3 1918  12.787   1.281  12.239  0.0815  0.1349 -0.0715
52700DOD     C1 1919  20.918  16.332  20.114  0.2613  0.0027  0.2054
52700DOD     C2 1920  21.339  16.220  20.245 -0.0627  0.2635  0.1275
52700DOD     C3 1921  21.772  16.067  20.146 -0.0129 -0.3409  0.0944
52701DOD     C1 1922   5.462  17.885  28.976  0.2265 -0.0070  0.0470
52701DOD     C2 1923   5.832  17.885  29.266 -0.1106 -0.1531  0.2677
52701DOD     C3 1924   6.009  17.484  29.530 -0.0180 -0.2764 -0.1176
52702DOD     C1 1925   4.343  18.610  22.860 -0.0226 -0.0145 -0.3346
52702DOD     C2 1926   4.397  19.079  22.841 -0.0917 -0.1734 -0.0957
52702DOD     C3 1927   4.775  19.370  22.772 -0.0745  0.1927  0.1372
52703DOD     C1 1928  19.862  11.633  16.581  0.0249  0.2010 -0.0357
52703DOD     C2 1929  19.422  11.782  16.392 -0.0130 -0.2105  0.3549
52703DOD     C3 1930  18.982  11.837  16.520  0.1472 -0.0412 -0.0316
52704DOD     C1 1931  14.205  19.347   9.397  0.3272  0.0814 -0.5694
52704DOD     C2 1932  14.157  19.476   8.912  0.3201  0.3468  0.0703
52704DOD     C3 1933  13.856  19.634   8.566  0.1334 -0.0316 -0.1674
52705DOD     C1 1934  25.448  25.939   4.967 -0.5809  0.1055 -0.1493
52705DOD     C2 1935  25.615  26.042   4.549  0.0023  0.1457 -0.2781
52705DOD     C3 1936  25.632  26.323   4.183 -0.0645 -0.1101 -0.2581
52706DOD     C1 1937  17.898   0.189   7.600  0.0463  0.0635 -0.0757
52706DOD     C2 1938  18.055  30.142   7.408 -0.4283 -0.0270  0.0369
52706DOD     C3 1939  18.350  29.814   7.342  0.1168  0.2977 -0.5132
52707DOD     C1 1940   8.500  29.237   6.723  0.3350  0.0121 -0.1475
52707DOD     C2 1941   8.720  28.820   6.889  0.0396  0.0108  0.2583
52707DOD     C3 1942   8.506  28.406   6.743 -0.1258  0.0754 -0.1402
52708DOD     C1 1943   5.663   4.633  11.483 -0.0063 -0.0210 -0.2909
52708DOD     C2 1944   5.787   5.081  11.299  0.0792  0.0328 -0.3720
52708DOD     C3 1945   5.598   5.449  11.188  0.0311 -0.1511 -0.2701
52709DOD     C1 1946  25.202  28.362  27.899  0.3417  0.2275  0.2789
52709DOD     C2 1947  25.643  28.348  27.932 -0.0019 -0.0748 -0.1226
52709DOD     C3 1948  25.964  28.512  28.134  0.1346  0.1284  0.0438
52710DOD     C1 1949   7.359  21.979  24.049 -0.0094  0.0198  0.0009
52710DOD     C2 1950   7.477  22.406  24.241 -0.3767 -0.4343  0.1037
52710DOD     C3 1951   7.355  22.857  24.297 -0.4168 -0.0733  0.0046
52711DOD     C1 1952  15.440  27.017  28.407  0.0126 -0.0375 -0.0536
52711DOD     C2 1953  15.537  26.998  28.838  0.2447 -0.1992 -0.1927
52711DOD     C3 1954  15.819  27.008  29.204  0.2480 -0.0068  0.0303
52712DOD     C1 1955  30.221  20.391   2.976  0.0760  0.0597  0.0862
52712DOD     C2 1956  30.230  20.851   2.773 -0.3399  0.0663 -0.1241
52712DOD     C3 1957   0.075  21.117   2.390  0.0887  0.0181 -0.0425
52713DOD     C1 1958  10.406  28.246  15.413 -0.2544 -0.1211 -0.2526
52713DOD     C2 1959  10.167  28.070  15.688  0.1697  0.0817 -0.1709
52713DOD     C3 1960   9.917  27.686  15.742 -0.1488 -0.2401 -0.2460
52714DOD     C1 1961  27.457  15.801  23.484 -0.1590  0.0624 -0.0655
52714DOD     C2 1962  27.508  15.330  23.471 -0.0276 -0.2532 -0.0919
52714DOD     C3 1963  27.225  15.104  23.161 -0.2710  0.0107 -0.0926
52715DOD     C1 1964  16.108   1.220  17.326  0.1316  0.0979 -0.1621
52715DOD     C2 1965  15.663   1.330  17.194  0.2026 -0.1978  0.0735
52715DOD     C3 1966  15.503   1.626  16.848 -0.0740 -0.0663 -0.3160
52716DOD     C1 1967   1.787  19.465   2.373 -0.2028  0.0846 -0.3482
52716DOD     C2 1968   1.900  19.701   2.004 -0.1257  0.0423  0.0617
52716DOD     C3 1969   1.969  19.984   1.641  0.3852  0.0016 -0.0165
52717DOD     C1 1970  16.537   4.430  12.692 -0.3702  0.1201  0.0958
52717DOD     C2 1971  16.393   4.757  12.987 -0.1769  0.1138 -0.0291
52717DOD     C3 1972  16.314   4.709  13.459 -0.0587  0.1480  0.0057
52718DOD     C1 1973  25.016  26.990  18.745 -0.3372 -0.2218  0.0357
52718DOD     C2 1974  25.164  26.524  18.721  0.0327 -0.0316 -0.2131
52718DOD     C3 1975  25.429  26.203  18.922 -0.0819  0.1244  0.0178
52719DOD     C1 1976  18.718  16.227   5.222 -0.4638  0.3775 -0.3894
52719DOD     C2 1977  18.370  16.085   4.950  0.1988  0.0498 -0.0573
52719DOD     C3 1978  18.084  16.180   4.613  0.0002  0.0635 -0.2071
52720DOD     C1 1979  17.194   8.828  17.417  0.0879  0.0209 -0.1633
52720DOD     C2 1980  17.586   8.860  17.678  0.3060  0.1230 -0.0768
52720DOD     C3 1981  17.933   8.675  17.886  0.0957  0.1248 -0.0217
52721DOD     C1 1982  22.496  29.957  20.225  0.3956 -0.0714 -0.0345
52721DOD     C2 1983  22.821  29.839  19.909  0.0930  0.0091 -0.2906
52721DOD     C3 1984  23.147  29.773  19.646  0.0020 -0.1294  0.1672
52722DOD     C1 1985   7.438  12.067  21.325 -0.1580  0.1790 -0.0229
52722DOD     C2 1986   7.655  11.965  21.719  0.2401  0.0508  0.2582
52722DOD     C3 1987   7.809  11.571  21.934 -0.1497  0.3693 -0.0591
52723DOD     C1 1988  17.640   8.037  21.574 -0.4903  0.1606 -0.1674
52723DOD     C2 1989  17.748   7.637  21.808 -0.0686  0.0813  0.2764
52723DOD     C3 1990  17.604   7.163  21.696  0.0147 -0.0261 -0.0987
52724DOD     C1 1991  21.895  21.610  22.464 -0.2302 -0.1522 -0.0747
52724DOD     C2 1992  22.233  21.780  22.163  0.0702  0.3177  0.2345
52724DOD     C3 1993  22.515  22.049  21.909  0.1831  0.1163 -0.2342
52725DOD     C1 1994   1.950  15.474  13.534 -0.1877 -0.0407 -0.1585
52725DOD     C2 1995   1.886  15.923  13.741 -0.1395 -0.0052  0.3081
52725DOD     C3 1996   1.906  16.346  14.002  0.2772  0.0279  0.1486
52726DOD     C1 1997   3.745  27.602  17.921  0.0954 -0.1868  0.0644
52726DOD     C2 1998   3.897  27.296  17.627 -0.1508  0.1152 -0.2167
52726DOD     C3 1999   4.043  27.013  17.332  0.1240  0.1417 -0.2701
52727DOD     C1 2000  18.464  10.239  17.228  0.0863  0.0007  0.0802
52727DOD     C2 2001  18.861   9.970  17.071 -0.2613 -0.0685 -0.1599
52727DOD     C3 2002  19.219   9.908  16.741 -0.1420  0.1737  0.3903
52728DOD     C1 2003  14.849   2.577  27.064 -0.0466  0.1072 -0.0506
52728DOD     C2 2004  15.264   2.568  26.845  0.0345  0.1485  0.2013
52728DOD     C3 2005  15.409   2.203  26.573  0.2707 -0.0373  0.1066
52729DOD     C1 2006   5.799   3.078   5.071  0.3076  0.0242  0.2250
52729DOD     C2 2007   5.539   3.457   5.002 -0.1396  0.2320  0.1631
52729DOD     C3 2008   5.198   3.744   4.823 -0.2522 -0.1294  0.0605
52730DOD     C1 2009   4.899   0.392   8.224 -0.3258  0.1551  0.0476
52730DOD     C2 2010   4.468   0.309   8.399  0.2120 -0.1717 -0.4576
52730DOD     C3 2011   4.236   0.108   8.748 -0.0392  0.3084  0.1321
52731DOD     C1 2012  16.073  15.540  21.595  0.0831 -0.0276  0.1234
52731DOD     C2 2013  16.452  15.781  21.784  0.0852 -0.2307 -0.0225
52731DOD     C3 2014  16.574  16.237  21.858  0.1666 -0.1142  0.2420
52732DOD     C1 2015  27.325  13.243   0.173  0.1410 -0.0411 -0.4320
52732DOD     C2 2016  27.363  13.334   0.608  0.1887 -0.1578 -0.0233
52732DOD     C3 2017  27.407  13.656   0.952 -0.1057 -0.0625  0.1485
52733DOD     C1 2018   4.834  23.561   5.184  0.0823  0.0757 -0.0863
52733DOD     C2 2019   4.845  23.967   4.980 -0.1277 -0.0226  0.0445
52733DOD     C3 2020   5.186  24.192   4.787 -0.4867 -0.0378 -0.0719
52734DOD     C1 2021  11.969   7.718   2.485  0.1821  0.1176  0.1135
52734DOD     C2 2022  11.645   8.013   2.579 -0.2767 -0.0674  0.2314
52734DOD     C3 2023  11.179   8.024   2.609 -0.4783  0.1979  0.0027
52735DOD     C1 2024   5.303  25.831  25.134 -0.2312 -0.0344 -0.4542
52735DOD     C2 2025   5.470  25.902  24.733  0.2366 -0.0910 -0.2484
52735DOD     C3 2026   5.795  26.054  24.488 -0.1147  0.2183 -0.0942
52736DOD     C1 2027  24.726  25.028   7.843 -0.0104  0.2294  0.1780
52736DOD     C2 2028  24.839  24.733   8.172  0.2133 -0.0805 -0.1843
52736DOD     C3 2029  24.717  24.557   8.601 -0.1630 -0.2004 -0.0685
52737DOD     C1 2030  26.349   4.969  10.695 -0.2002 -0.0274  0.0394
52737DOD     C2 2031  26.805   4.840  10.585 -0.3622  0.1497 -0.1504
52737DOD     C3 2032  27.093   4.601  10.407 -0.1275  0.3406 -0.1196
52738DOD     C1 2033  14.024   6.056   2.393  0.0217  0.0804  0.3884
52738DOD     C2 2034  13.590   6.114   2.351 -0.1136 -0.0060  0.7368
52738DOD     C3 2035  13.211   5.834   2.457  0.0695 -0.1498 -0.1001
52739DOD     C1 2036   7.589   4.853  10.810  0.0387 -0.1298  0.1929
52739DOD     C2 2037   7.917   4.727  11.071  0.0829 -0.0373  0.0751
52739DOD     C3 2038   8.362   4.614  11.294  0.0039 -0.1564 -0.0581
52740DOD     C1 2039  22.509  11.237  20.620  0.0736 -0.2356  0.1945
52740DOD     C2 2040  22.095  11.458  20.572  0.0674 -0.0779  0.0504
52740DOD     C3 2041  21.818  11.747  20.262  0.3413 -0.0702  0.1153
52741DOD     C1 2042  27.795  10.616  24.157  0.0256 -0.4541 -0.1451
52741DOD     C2 2043  28.215  10.648  24.206 -0.0224  0.1870 -0.2108
52741DOD     C3 2044  28.657  10.608  24.046  0.1028 -0.0036 -0.2471
52742DOD     C1 2045  23.757   4.995  11.623  0.0070  0.1549 -0.0506
52742DOD     C2 2046  23.461   4.997  11.284  0.1909 -0.0971 -0.1651
52742DOD     C3 2047  22.999   4.895  11.054 -0.1259  0.1876 -0.2905
52743DOD     C1 2048  19.507  12.650  26.045 -0.4487 -0.0588  0.0629
52743DOD     C2 2049  19.781  13.037  25.933 -0.1363 -0.1773 -0.0821
52743DOD     C3 2050  20.175  13.213  26.132  0.0330 -0.0991  0.0017
52744DOD     C1 2051  20.514  12.848  11.246  0.2309 -0.2921  0.0649
52744DOD     C2 2052  20.931  12.746  11.081  0.2025  0.0309 -0.2045
52744DOD     C3 2053  21.284  12.619  11.297 -0.0138  0.0179 -0.0774
52745DOD     C1 2054  29.270  20.607   3.903  0.3162 -0.0176 -0.2083
52745DOD     C2 2055  29.195  20.953   4.209  0.0982 -0.1045 -0.1136
52745DOD     C3 2056  29.389  21.359   4.221 -0.3605  0.1691  0.1856
52746DOD     C1 2057  22.708   5.023   3.582  0.2440  0.0368  0.3176
52746DOD     C2 2058  22.783   4.537   3.482 -0.2730 -0.2472  0.1530
52746DOD     C3 2059  22.794   4.160   3.157  0.0699  0.2159  0.2472
52747DOD     C1 2060   6.061  14.327   1.178 -0.2357  0.0227 -0.0872
52747DOD     C2 2061   6.023  14.469   1.600 -0.2335  0.4193  0.1746
52747DOD     C3 2062   5.686  14.595   1.922 -0.2507 -0.1421  0.2870
52748DOD     C1 2063   6.197   8.057  27.238  0.2809 -0.1035 -0.1419
52748DOD     C2 2064   6.350   8.395  27.529 -0.1016 -0.2592  0.0618
52748DOD     C3 2065   6.391   8.898  27.575 -0.0115 -0.0848  0.1423
52749DOD     C1 2066   8.058  18.588  11.081 -0.1677  0.0989 -0.0096
52749DOD     C2 2067   7.975  18.234  11.420 -0.0164  0.1591 -0.1578
52749DOD     C3 2068   7.962  17.894  11.758 -0.1017  0.1892 -0.1931
52750DOD     C1 2069   4.654  28.064  22.974  0.0583  0.2197 -0.2531
52750DOD     C2 2070   5.019  27.774  23.005  0.1192 -0.1406  0.1114
52750DOD     C3 2071   5.493  27.778  23.017 -0.1074 -0.2832  0.0413
52751DOD     C1 2072  25.915  28.532   2.796 -0.0789 -0.2613  0.0394
52751DOD     C2 2073  25.452  28.575   2.679  0.0898  0.0126  0.0169
52751DOD     C3 2074  25.050  28.749   2.541  0.0783 -0.0665 -0.1957
52752DOD     C1 2075  25.793   9.059   0.678  0.1995  0.1697  0.1708
52752DOD     C2 2076  25.465   8.740   0.748 -0.2167  0.3514  0.1400
52752DOD     C3 2077  25.359   8.439   0.435  0.0896 -0.1661  0.2607
52753DOD     C1 2078  26.136  10.349  22.489  0.4180  0.0612  0.4192
52753DOD     C2 2079  25.734  10.506  22.472  0.0783 -0.3888  0.0649
52753DOD     C3 2080  25.432  10.705  22.731  0.0125 -0.2235  0.3450
52754DOD     C1 2081  25.093  19.703   4.844  0.0580 -0.0807  0.2866
52754DOD     C2 2082  24.772  20.042   4.651  0.1478 -0.1265  0.2733
52754DOD     C3 2083  24.342  20.259   4.684  0.1263  0.0204  0.0359
52755DOD     C1 2084  15.751  11.985   6.365  0.0030  0.3285  0.0836
52755DOD     C2 2085  15.955  11.662   6.657 -0.1601 -0.1699  0.0553
52755DOD     C3 2086  15.976  11.433   7.014  0.0708 -0.0113 -0.3642
52756DOD     C1 2087   4.862  10.178   8.107  0.0878 -0.1174 -0.2219
52756DOD     C2 2088   4.938  10.488   7.721 -0.0216  0.1494  0.1963
52756DOD     C3 2089   5.237  10.846   7.633  0.0860  0.0426  0.2785
52757DOD     C1 2090   2.768  13.756  21.464  0.0835  0.1728 -0.0778
52757DOD     C2 2091   3.026  13.974  21.165  0.1975 -0.0266  0.2568
52757DOD     C3 2092   3.014  14.271  20.791 -0.1948  0.3678 -0.4468
52758DOD     C1 2093   0.631  22.170  22.709 -0.2147  0.1228 -0.1780
52758DOD     C2 2094   0.635  21.737  22.520  0.2895  0.3376  0.0299
52758DOD     C3 2095   0.698  21.330  22.480  0.0537 -0.1797 -0.0186
52759DOD     C1 2096  14.095  15.103  20.453 -0.1329 -0.0454  0.0779
52759DOD     C2 2097  13.937  14.833  20.177  0.0048  0.1324  0.1901
52759DOD     C3 2098  13.689  14.585  19.836 -0.2928  0.0295  0.4375
52760DOD     C1 2099   2.053   8.179  24.354  0.1794  0.2519  0.1321
52760DOD     C2 2100   1.840   8.046  24.731 -0.3419 -0.1770 -0.1208
52760DOD     C3 2101   1.983   8.306  25.094  0.1021  0.4432 -0.2672
52761DOD     C1 2102  18.850  24.493  28.511  0.2304 -0.1337 -0.2206
52761DOD     C2 2103  19.209  24.244  28.383  0.1967  0.0505 -0.2594
52761DOD     C3 2104  19.406  23.887  28.155  0.1678  0.0742 -0.0833
52762DOD     C1 2105   3.372   2.258  20.004  0.0216  0.3946 -0.2360
52762DOD     C2 2106   2.919   2.253  19.900  0.0655  0.0029 -0.0917
52762DOD     C3 2107   2.535   2.072  19.700 -0.0258  0.1843  0.2413
52763DOD     C1 2108  23.026  26.648  29.179 -0.0261 -0.1989 -0.0519
52763DOD     C2 2109  22.714  26.944  29.419 -0.1203 -0.0439  0.2929
52763DOD     C3 2110  22.620  27.142  29.871 -0.0482 -0.0732 -0.1032
52764DOD     C1 2111   2.088   4.938  25.906 -0.2994  0.0186  0.0211
52764DOD     C2 2112   2.184   4.954  26.340  0.2319  0.2744 -0.2749
52764DOD     C3 2113   2.199   5.030  26.829 -0.1426 -0.2033  0.0734
52765DOD     C1 2114   2.196  23.659  19.549 -0.0704  0.1643 -0.1154
52765DOD     C2 2115   1.715  23.730  19.557 -0.3251 -0.4359 -0.0046
52765DOD     C3 2116   1.349  23.637  19.269  0.1523  0.1189  0.2493
52766DOD     C1 2117  16.821  13.428  18.954  0.0794  0.1239  0.0785
52766DOD     C2 2118  17.004  13.079  19.268 -0.0224  0.0884 -0.0793
52766DOD     C3 2119  17.264  12.706  19.287  0.1095  0.2732  0.0179
52767DOD     C1 2120   8.035  18.625   5.218  0.0275 -0.1117 -0.2546
52767DOD     C2 2121   8.122  19.070   5.175 -0.2752 -0.0283 -0.2670
52767DOD     C3 2122   8.475  19.340   4.974 -0.1938  0.2626 -0.3571
52768DOD     C1 2123   6.169   9.783  27.638  0.3043  0.4078 -0.0612
52768DOD     C2 2124   6.238   9.860  28.139  0.0567 -0.1061  0.5502
52768DOD     C3 2125   6.084   9.887  28.627 -0.0505 -0.3015  0.2025
52769DOD     C1 2126  25.619  18.420  10.521 -0.1404  0.2462  0.0791
52769DOD     C2 2127  25.210  18.182  10.670  0.1484  0.2461  0.0914
52769DOD     C3 2128  25.046  17.744  10.738 -0.3559 -0.0585  0.0172
52770DOD     C1 2129  25.950  27.481  14.002 -0.0971 -0.0801  0.1155
52770DOD     C2 2130  25.750  27.134  13.754  0.0862  0.1550 -0.1331
52770DOD     C3 2131  25.316  27.016  13.591 -0.3370  0.1531  0.1571
52771DOD     C1 2132   5.251   5.038  17.802 -0.3208 -0.0591 -0.0355
52771DOD     C2 2133   5.418   4.665  17.631 -0.0311  0.1945 -0.1483
52771DOD     C3 2134   5.390   4.307  17.315 -0.0887  0.1026  0.2522
52772DOD     C1 2135  28.730  11.582  19.045 -0.0765 -0.2453 -0.0479
52772DOD     C2 2136  28.896  11.738  18.666  0.1600  0.0383 -0.1258
52772DOD     C3 2137  28.851  11.621  18.261  0.0735 -0.1308 -0.0006
52773DOD     C1 2138  26.092  28.683  18.934 -0.1757  0.1196 -0.1109
52773DOD     C2 2139  26.020  28.816  19.386  0.1928  0.0702 -0.0283
52773DOD     C3 2140  26.037  28.999  19.839 -0.2394  0.2195  0.3370
52774DOD     C1 2141   5.987  21.053  16.254 -0.3484 -0.3520 -0.2210
52774DOD     C2 2142   6.363  20.893  16.516  0.0929  0.1469  0.1015
52774DOD     C3 2143   6.805  21.072  16.666 -0.1643 -0.0361 -0.3766
52775DOD     C1 2144  19.340   9.812  15.220 -0.0759 -0.2107  0.1092
52775DOD     C2 2145  19.783   9.730  15.354  0.3090 -0.0282 -0.3602
52775DOD     C3 2146  19.957   9.351  15.553 -0.2809 -0.0143  0.0706
52776DOD     C1 2147   1.444  19.556  28.034 -0.3343  0.2092  0.0889
52776DOD     C2 2148   1.918  19.601  27.939 -0.1672  0.0892  0.2729
52776DOD     C3 2149   2.359  19.434  27.854  0.3717 -0.1921 -0.1841
52777DOD     C1 2150   1.675  16.460   5.040  0.3085 -0.1365  0.0741
52777DOD     C2 2151   1.588  16.314   4.587  0.2663 -0.0487  0.1447
52777DOD     C3 2152   1.786  16.190   4.216  0.3462  0.3754  0.0177
52778DOD     C1 2153   7.287  16.807  13.153 -0.5018  0.0549  0.1952
52778DOD     C2 2154   7.660  16.994  13.332  0.2337  0.1016  0.0204
52778DOD     C3 2155   8.094  17.227  13.324  0.1382  0.0396 -0.0283
52779DOD     C1 2156  22.960  19.322  17.229 -0.0479 -0.1414  0.0818
52779DOD     C2 2157  23.064  19.604  17.559 -0.0595 -0.0594  0.1185
52779DOD     C3 2158  22.900  19.793  17.901  0.1915  0.1968  0.2007
52780DOD     C1 2159   9.660  10.037   4.203  0.1043 -0.0641  0.2255
52780DOD     C2 2160   9.381   9.971   4.584 -0.0335 -0.0456 -0.0880
52780DOD     C3 2161   9.144  10.104   5.023 -0.0880 -0.1515  0.0932
52781DOD     C1 2162   9.213  25.256  30.244 -0.1450 -0.2597  0.1672
52781DOD     C2 2163   8.842  24.944  30.307 -0.1299 -0.0927 -0.1064
52781DOD     C3 2164   8.420  24.743  30.189  0.0266  0.0078  0.3700
52782DOD     C1 2165   3.106  29.138  13.012  0.0914  0.1855  0.0032
52782DOD     C2 2166   3.408  29.475  12.794  0.0843 -0.3070  0.5102
52782DOD     C3 2167   3.842  29.671  12.732 -0.0844  0.3214 -0.3683
52783DOD     C1 2168  11.456  16.831  29.191  0.0209  0.0387 -0.0768
52783DOD     C2 2169  11.540  17.006  29.631 -0.2119 -0.0774 -0.0558
52783DOD     C3 2170  11.311  17.368  29.848 -0.1106  0.0811  0.0112
52784DOD     C1 2171  25.145   0.626   9.626 -0.1043 -0.0375  0.2609
52784DOD     C2 2172  24.772   0.626   9.303 -0.0444 -0.0712  0.1419
52784DOD     C3 2173  24.303   0.659   9.207  0.0792  0.1030 -0.1523
52785DOD     C1 2174  18.417   0.058  21.301 -0.1561 -0.1554  0.0761
52785DOD     C2 2175  18.019   0.136  21.101 -0.1257  0.0500  0.2968
52785DOD     C3 2176  17.637   0.172  20.929 -0.4382 -0.3717 -0.2230
52786DOD     C1 2177   4.084  20.283   0.595 -0.3091 -0.3584  0.0881
52786DOD     C2 2178   4.279  20.031   0.271 -0.2182 -0.2034  0.2636
52786DOD     C3 2179   4.582  19.650   0.156  0.0346  0.1160  0.1792
52787DOD     C1 2180  17.367   8.854  10.842  0.0062 -0.1175  0.0048
52787DOD     C2 2181  17.424   9.322  10.735  0.1201 -0.0820 -0.2659
52787DOD     C3 2182  17.579   9.656  10.435 -0.1565 -0.0022  0.2231
52788DOD     C1 2183  20.088   2.470  25.646 -0.0825  0.0208 -0.0746
52788DOD     C2 2184  20.143   2.029  25.569 -0.6124 -0.1584 -0.1243
52788DOD     C3 2185  20.299   1.679  25.858 -0.1585  0.0904 -0.0643
52789DOD     C1 2186  17.602   4.173   0.169  0.1703  0.0670 -0.0108
52789DOD     C2 2187  17.371   3.873  30.212  0.2951 -0.1591  0.0547
52789DOD     C3 2188  17.523   3.604  29.867  0.0960  0.5060 -0.3603
52790DOD     C1 2189  21.025  28.634   9.888 -0.1689 -0.1939 -0.1137
52790DOD     C2 2190  20.654  28.349   9.760  0.0473  0.0193 -0.1409
52790DOD     C3 2191  20.236  28.357   9.920  0.0093  0.2094  0.4431
52791DOD     C1 2192  28.951  12.852  19.495 -0.0127  0.0389  0.1981
52791DOD     C2 2193  29.180  12.559  19.164 -0.3993 -0.0958 -0.2059
52791DOD     C3 2194  29.512  12.222  19.096 -0.2687 -0.2681 -0.2547
52792DOD     C1 2195  20.529  16.960  15.076 -0.1188 -0.0766 -0.2327
52792DOD     C2 2196  20.106  17.164  15.016 -0.3389  0.1611 -0.0881
52792DOD     C3 2197  19.687  17.178  14.902 -0.1642  0.0762  0.1790
52793DOD     C1 2198  20.366  22.423  15.556  0.4967  0.0000 -0.0534
52793DOD     C2 2199  19.935  22.525  15.769  0.3625  0.2969 -0.0157
52793DOD     C3 2200  19.504  22.708  15.754  0.1692 -0.1106 -0.0289
52794DOD     C1 2201  21.074  11.992  25.370  0.1892  0.5835  0.1285
52794DOD     C2 2202  20.831  12.270  25.682 -0.0347  0.0727 -0.2181
52794DOD     C3 2203  20.469  12.256  25.967 -0.5352  0.0094  0.1714
52795DOD     C1 2204  10.456  30.186   3.417 -0.1989 -0.4813 -0.0612
52795DOD     C2 2205  10.507  30.227   3.879 -0.3773  0.2559  0.0124
52795DOD     C3 2206  10.420   0.160   4.270  0.2439  0.1671  0.1813
52796DOD     C1 2207  28.613   6.513   6.330  0.0171 -0.2789  0.1041
52796DOD     C2 2208  28.981   6.515   6.565  0.0940  0.1677 -0.0612
52796DOD     C3 2209  29.205   6.478   6.947 -0.1830  0.1503  0.1939
52797DOD     C1 2210   2.387  17.094  20.979 -0.0143 -0.2539  0.0679
52797DOD     C2 2211   2.505  16.663  21.132  0.1693  0.1341 -0.1889
52797DOD     C3 2212   2.613  16.252  21.057 -0.1789 -0.1034  0.0052
52798DOD     C1 2213  26.797  24.336   1.929  0.1735  0.1357 -0.1994
52798DOD     C2 2214  26.461  24.292   2.262  0.1774  0.1369  0.0050
52798DOD     C3 2215  26.022  24.265   2.458 -0.0049  0.0502  0.0377
52799DOD     C1 2216  28.346  19.658   6.692 -0.1718 -0.1908 -0.0840
52799DOD     C2 2217  28.068  19.527   6.335 -0.2437  0.0853 -0.0952
52799DOD     C3 2218  27.640  19.528   6.365 -0.1365 -0.3685 -0.0125
52800DOD     C1 2219  29.643  23.527  11.202 -0.0449  0.5292  0.4088
52800DOD     C2 2220  29.743  23.140  10.932  0.0696 -0.2565  0.2175
52800DOD     C3 2221  29.786  22.708  10.776  0.0641  0.2508  0.0572
52801DOD     C1 2222  11.087   9.878   3.667 -0.0961  0.1601  0.4304
52801DOD     C2 2223  11.145   9.887   4.117 -0.2643  0.0835 -0.0639
52801DOD     C3 2224  11.426   9.895   4.513  0.2547 -0.0533 -0.0280
52802DOD     C1 2225   1.583   6.361   2.368 -0.3325  0.1240 -0.0299
52802DOD     C2 2226   1.142   6.222   2.312 -0.1924  0.0007  0.1630
52802DOD     C3 2227   0.759   6.178   2.004 -0.2928  0.2402  0.3561
52803DOD     C1 2228  15.729  21.596  25.604 -0.0011  0.0226  0.4277
52803DOD     C2 2229  15.778  22.055  25.580 -0.0771  0.3591 -0.1578
52803DOD     C3 2230  16.011  22.445  25.622 -0.2900  0.0057  0.0114
52804DOD     C1 2231  16.853  14.593  16.387 -0.2270  0.0890 -0.0060
52804DOD     C2 2232  17.165  15.001  16.458  0.2007  0.2546 -0.0003
52804DOD     C3 2233  17.365  15.316  16.683  0.1749 -0.0963 -0.2445
52805DOD     C1 2234  12.788  11.202   5.697 -0.3550  0.1480 -0.2200
52805DOD     C2 2235  12.685  11.586   5.953 -0.0076 -0.0960  0.3974
52805DOD     C3 2236  12.538  12.060   5.878 -0.1163 -0.3279  0.0891
52806DOD     C1 2237  16.070   3.765   1.141  0.2996 -0.2714  0.2560
52806DOD     C2 2238  16.319   4.181   1.335  0.0109 -0.0843 -0.1742
52806DOD     C3 2239  16.489   4.605   1.158  0.0754  0.1629 -0.3359
52807DOD     C1 2240   8.224  11.504  11.613  0.0176  0.1021  0.2015
52807DOD     C2 2241   8.551  11.457  11.239 -0.0133  0.2364  0.0371
52807DOD     C3 2242   8.904  11.148  11.320 -0.2873 -0.2966 -0.2348
52808DOD     C1 2243  10.067  13.483   6.824  0.2627  0.3304  0.1485
52808DOD     C2 2244  10.221  13.827   6.518 -0.3515  0.1077 -0.0196
52808DOD     C3 2245  10.531  14.111   6.658 -0.1320 -0.1146 -0.1848
52809DOD     C1 2246   7.619  12.299   4.237  0.0007 -0.4787 -0.1271
52809DOD     C2 2247   7.918  11.933   4.186  0.0494  0.4348 -0.0595
52809DOD     C3 2248   7.976  11.516   4.155  0.0885 -0.1165  0.0211
52810DOD     C1 2249  23.790   7.841   5.868  0.3504  0.0703 -0.0510
52810DOD     C2 2250  24.006   7.931   5.468 -0.3086 -0.2177 -0.2648
52810DOD     C3 2251  24.237   7.774   5.057  0.2191  0.0622  0.4001
52811DOD     C1 2252  16.087  13.773   7.347 -0.1426  0.1217 -0.1170
52811DOD     C2 2253  16.460  14.028   7.299  0.0301 -0.2167 -0.0061
52811DOD     C3 2254  16.902  14.096   7.086  0.0981 -0.6337 -0.1423
52812DOD     C1 2255  16.838   8.522  11.008  0.0677  0.0249 -0.1963
52812DOD     C2 2256  16.909   8.496  10.590  0.0971 -0.3434 -0.0612
52812DOD     C3 2257  17.137   8.601  10.218 -0.1461  0.1067 -0.1292
52813DOD     C1 2258  26.189  22.973  21.197 -0.0382  0.0765  0.2014
52813DOD     C2 2259  26.439  22.715  21.377  0.1158  0.1181 -0.2443
52813DOD     C3 2260  26.738  22.610  21.740 -0.2221 -0.1645 -0.1281
52814DOD     C1 2261  26.919  13.033   4.370  0.0620 -0.0009  0.1645
52814DOD     C2 2262  26.642  13.048   4.784 -0.1799 -0.1134 -0.0578
52814DOD     C3 2263  26.267  12.886   4.990 -0.2497  0.2366 -0.0732
52815DOD     C1 2264   2.346   1.802  22.369 -0.0414 -0.0949 -0.0086
52815DOD     C2 2265   2.633   1.999  22.027  0.0242 -0.0970 -0.2108
52815DOD     C3 2266   2.839   1.912  21.641  0.0335  0.0799  0.0537
52816DOD     C1 2267  20.372  21.814   6.543 -0.0704 -0.1552  0.2899
52816DOD     C2 2268  20.594  21.481   6.307  0.1169  0.1560 -0.1989
52816DOD     C3 2269  20.632  21.052   6.196 -0.0330 -0.0034 -0.3812
52817DOD     C1 2270   5.496   6.808   7.700 -0.2929 -0.1426 -0.0196
52817DOD     C2 2271   5.518   6.371   7.755 -0.2962 -0.0038 -0.0780
52817DOD     C3 2272   5.500   5.925   7.806  0.0599 -0.0509 -0.2988
52818DOD     C1 2273  12.862   8.928   7.061  0.4165  0.0589  0.2172
52818DOD     C2 2274  12.569   8.836   6.696  0.3193  0.1503  0.0315
52818DOD     C3 2275  12.685   8.773   6.266 -0.3603 -0.3016  0.2911
52819DOD     C1 2276   6.105   2.903  22.828 -0.1624 -0.1277 -0.2202
52819DOD     C2 2277   6.385   2.833  23.246 -0.0548 -0.0977  0.0842
52819DOD     C3 2278   6.367   2.933  23.691 -0.2399  0.1081 -0.2895
52820DOD     C1 2279  13.012  26.258   3.926 -0.0799  0.0302  0.0348
52820DOD     C2 2280  12.832  26.654   4.082 -0.2132 -0.1319  0.1769
52820DOD     C3 2281  12.574  27.033   3.987 -0.1808  0.1120  0.2647
52821DOD     C1 2282  16.372   9.980   9.085 -0.0789 -0.1015  0.0118
52821DOD     C2 2283  16.470   9.920   8.645 -0.1649  0.0142 -0.2105
52821DOD     C3 2284  16.715   9.636   8.317  0.2109 -0.2167  0.1543
52822DOD     C1 2285  18.396  12.927   7.108  0.0465 -0.0545 -0.3068
52822DOD     C2 2286  18.797  13.006   7.308  0.0647  0.1335 -0.2466
52822DOD     C3 2287  19.126  12.681   7.328 -0.0701  0.1458  0.0793
52823DOD     C1 2288  25.312  12.360  18.250 -0.2205 -0.0685  0.0482
52823DOD     C2 2289  25.191  12.796  18.066 -0.2328  0.0897  0.3695
52823DOD     C3 2290  24.824  13.041  18.055 -0.1712  0.3882 -0.1086
52824DOD     C1 2291   5.884   4.869  10.315  0.3423 -0.0707  0.0145
52824DOD     C2 2292   6.299   4.677  10.205 -0.1213  0.3241  0.3199
52824DOD     C3 2293   6.794   4.820  10.257  0.1851  0.0158  0.0815
52825DOD     C1 2294  16.466  14.491   7.043 -0.1593 -0.2173 -0.0335
52825DOD     C2 2295  16.211  14.165   6.813 -0.1229  0.3047  0.2281
52825DOD     C3 2296  16.069  13.846   6.502 -0.2386  0.0043  0.0351
52826DOD     C1 2297   1.475  24.402  13.000  0.0068 -0.1658  0.1345
52826DOD     C2 2298   1.464  24.251  12.528  0.5427 -0.2405  0.0034
52826DOD     C3 2299   1.178  23.965  12.277  0.0249 -0.3546  0.0379
52827DOD     C1 2300  25.098  12.395  20.456  0.1663  0.2214  0.0693
52827DOD     C2 2301  24.754  12.690  20.470 -0.0897 -0.1515 -0.3378
52827DOD     C3 2302  24.277  12.718  20.483  0.1744 -0.1751 -0.1044
52828DOD     C1 2303  14.573  12.803  20.576 -0.2206 -0.1606 -0.1150
52828DOD     C2 2304  14.682  12.942  21.021  0.1526  0.0107  0.0557
52828DOD     C3 2305  14.598  13.071  21.534 -0.2549 -0.1037  0.1302
52829DOD     C1 2306  21.544   7.305  24.289 -0.0804  0.0924  0.1947
52829DOD     C2 2307  21.641   7.736  24.341 -0.1537  0.0930  0.2022
52829DOD     C3 2308  21.936   8.063  24.456  0.2253  0.3669 -0.2163
52830DOD     C1 2309  12.001  27.560  29.811  0.1127  0.2521 -0.0432
52830DOD     C2 2310  12.314  27.199  29.833  0.1560 -0.1554 -0.0053
52830DOD     C3 2311  12.266  26.733  29.752 -0.3991 -0.5949 -0.1827
52831DOD     C1 2312  20.770  29.646  10.374  0.0150 -0.1679 -0.2256
52831DOD     C2 2313  20.376  29.503  10.690 -0.3305 -0.2911  0.0944
52831DOD     C3 2314  20.081  29.651  11.022  0.0828 -0.1095 -0.0440
52832DOD     C1 2315  26.855   2.147  21.942 -0.0920  0.2456 -0.0585
52832DOD     C2 2316  27.121   1.822  22.200 -0.1138 -0.1601  0.2097
52832DOD     C3 2317  27.117   1.339  22.148  0.0698  0.0967  0.3922
52833DOD     C1 2318   3.705   7.940  20.475  0.0192  0.1330  0.1229
52833DOD     C2 2319   3.764   7.843  20.016  0.2652 -0.1400  0.1675
52833DOD     C3 2320   3.383   7.676  19.774 -0.0337 -0.0589  0.0899
52834DOD     C1 2321  13.643  21.233   3.943  0.0509 -0.2913  0.0999
52834DOD     C2 2322  13.227  21.123   4.124 -0.1511  0.0005  0.0315
52834DOD     C3 2323  12.728  21.010   4.164 -0.0163 -0.1317 -0.1275
52835DOD     C1 2324  20.561  23.883  12.807  0.1306  0.1227 -0.0584
52835DOD     C2 2325  20.301  24.190  12.504  0.3123 -0.3606  0.1769
52835DOD     C3 2326  19.953  24.323  12.231 -0.0259  0.3400  0.1225
52836DOD     C1 2327  20.863   0.284  27.481  0.4119 -0.0336 -0.0768
52836DOD     C2 2328  21.010  30.180  27.305  0.2249  0.0736 -0.1451
52836DOD     C3 2329  21.457  30.127  27.185 -0.1740 -0.3635  0.0557
52837DOD     C1 2330  14.580   5.887  12.756  0.1464  0.2616 -0.1026
52837DOD     C2 2331  14.683   5.990  12.302 -0.0920  0.0846  0.0746
52837DOD     C3 2332  14.785   6.129  11.850  0.3804 -0.2009 -0.3577
52838DOD     C1 2333  18.119   7.912   8.428 -0.4310 -0.1371  0.3931
52838DOD     C2 2334  17.755   7.703   8.565 -0.0915 -0.0151 -0.1382
52838DOD     C3 2335  17.585   7.829   8.986  0.0016 -0.1727  0.0408
52839DOD     C1 2336   1.250  20.147   6.124  0.2035  0.1642  0.1601
52839DOD     C2 2337   1.184  19.860   6.501  0.0284  0.0589  0.0192
52839DOD     C3 2338   1.271  19.871   6.979 -0.2593  0.3366 -0.3879
52840DOD     C1 2339   8.299   0.808  18.491 -0.0340  0.0451 -0.0068
52840DOD     C2 2340   8.590   0.465  18.409  0.0913  0.1034  0.1304
52840DOD     C3 2341   9.045   0.411  18.297 -0.1735  0.1073 -0.0652
52841DOD     C1 2342  22.438   4.465  18.133 -0.5994  0.0789 -0.0003
52841DOD     C2 2343  22.489   4.935  18.230 -0.1284  0.0342  0.0940
52841DOD     C3 2344  22.662   5.335  18.050 -0.0780  0.2640 -0.0799
52842DOD     C1 2345  10.581  17.760   8.304  0.2261  0.1765  0.0845
52842DOD     C2 2346  10.846  17.627   8.607 -0.1458  0.0926 -0.0858
52842DOD     C3 2347  10.809  17.464   9.035  0.1288  0.3450 -0.1283
52843DOD     C1 2348  16.679  22.661  10.278  0.0649 -0.1753  0.1424
52843DOD     C2 2349  17.136  22.752  10.344  0.0342 -0.0087 -0.1484
52843DOD     C3 2350  17.476  22.783  10.694 -0.1016 -0.0559  0.0092
52844DOD     C1 2351  10.201  28.788  17.925  0.2592  0.1730  0.2125
52844DOD     C2 2352  10.433  28.363  17.808 -0.0081 -0.2040  0.3994
52844DOD     C3 2353  10.606  27.947  17.693  0.1588  0.0773  0.0696
52845DOD     C1 2354  24.610  13.371  23.157 -0.1085  0.1835  0.0935
52845DOD     C2 2355  24.961  13.705  23.162  0.3251  0.1633  0.1298
52845DOD     C3 2356  25.189  14.111  23.309  0.0428 -0.0888 -0.3307
52846DOD     C1 2357  26.515  23.036  20.084 -0.1296 -0.0898 -0.1109
52846DOD     C2 2358  26.519  22.675  20.346 -0.4292 -0.1747  0.1380
52846DOD     C3 2359  26.776  22.360  20.624  0.0377 -0.0091  0.1099
52847DOD     C1 2360  26.221  27.882   1.901  0.1975 -0.3064 -0.0344
52847DOD     C2 2361  26.503  28.237   1.798  0.1490  0.1954 -0.0429
52847DOD     C3 2362  26.739  28.620   1.929  0.1845 -0.1905 -0.2609
52848DOD     C1 2363   8.811  11.222   6.283 -0.1565  0.3253  0.0639
52848DOD     C2 2364   9.139  11.150   5.959 -0.0272  0.0697 -0.1281
52848DOD     C3 2365   9.580  11.160   5.824 -0.1541 -0.2367  0.1044
52849DOD     C1 2366  22.729  13.409  23.947 -0.0631  0.0609  0.1833
52849DOD     C2 2367  22.407  13.475  24.259  0.0984 -0.4314 -0.0671
52849DOD     C3 2368  22.130  13.715  24.586  0.0590  0.1048 -0.1605
52850DOD     C1 2369  25.481  23.895  25.038  0.4560 -0.1623 -0.1603
52850DOD     C2 2370  25.221  24.216  25.258 -0.1877 -0.1590  0.1536
52850DOD     C3 2371  25.374  24.660  25.322  0.0208  0.2675  0.0932
52851DOD     C1 2372   6.654  13.114   1.626  0.3232  0.4286 -0.1466
52851DOD     C2 2373   6.227  13.027   1.831  0.2090  0.0666 -0.2408
52851DOD     C3 2374   5.956  12.707   2.124 -0.0552  0.1038  0.3062
52852DOD     C1 2375   1.643  24.222  21.904  0.2894  0.1675  0.0622
52852DOD     C2 2376   1.306  24.156  22.229  0.2079 -0.1252  0.1328
52852DOD     C3 2377   1.040  24.255  22.517  0.2312 -0.0637 -0.2567
52853DOD     C1 2378   6.655  25.124  12.995  0.1481  0.0691 -0.2647
52853DOD     C2 2379   6.673  25.286  12.556 -0.3293 -0.0227 -0.2053
52853DOD     C3 2380   6.472  25.257  12.143 -0.1057 -0.0279  0.0514
52854DOD     C1 2381  19.386  11.087  23.924  0.1360 -0.2456  0.2512
52854DOD     C2 2382  19.281  10.639  24.019 -0.0644  0.1545  0.2797
52854DOD     C3 2383  19.160  10.132  24.006  0.1743  0.0281  0.3862
52855DOD     C1 2384  17.262  17.477   6.806 -0.0636  0.0586 -0.3987
52855DOD     C2 2385  16.884  17.492   6.560 -0.2558  0.1067 -0.3420
52855DOD     C3 2386  16.593  17.368   6.267 -0.2005  0.1870 -0.0579
52856DOD     C1 2387   9.202   6.718  21.421 -0.0689 -0.0880 -0.0243
52856DOD     C2 2388   8.823   6.817  21.618  0.0848  0.0386  0.1044
52856DOD     C3 2389   8.802   7.183  21.880  0.1894  0.0523 -0.1110
52857DOD     C1 2390  23.745  26.747  27.015 -0.1150 -0.1524  0.1057
52857DOD     C2 2391  23.558  27.138  26.912 -0.2092  0.1652  0.0372
52857DOD     C3 2392  23.377  27.487  27.196  0.2733 -0.0035 -0.1639
52858DOD     C1 2393  14.545   3.647  28.769 -0.1097  0.3518  0.1687
52858DOD     C2 2394  14.108   3.585  28.934 -0.0860  0.0241  0.6299
52858DOD     C3 2395  13.749   3.708  29.205 -0.2015  0.0406 -0.2159
52859DOD     C1 2396  18.912  23.066  16.755 -0.1163 -0.0542  0.2836
52859DOD     C2 2397  18.896  22.885  16.341  0.1613  0.3696  0.0251
52859DOD     C3 2398  19.315  22.594  16.188  0.0821  0.0396  0.2254
52860DOD     C1 2399  11.031  28.167  29.216 -0.0486  0.3862  0.0848
52860DOD     C2 2400  11.344  27.792  29.275 -0.3461  0.2041  0.1280
52860DOD     C3 2401  11.603  27.421  29.472 -0.1154  0.0667 -0.1122
52861DOD     C1 2402  16.451  20.375  29.835 -0.1485  0.0054 -0.2155
52861DOD     C2 2403  16.559  20.716  30.163  0.2867 -0.0481  0.2505
52861DOD     C3 2404  16.634  20.925   0.210 -0.0994  0.0741  0.2110
52862DOD     C1 2405  15.944  20.729  17.634  0.1496 -0.0989  0.1557
52862DOD     C2 2406  16.139  20.380  17.911 -0.5778 -0.2024 -0.0429
52862DOD     C3 2407  16.110  19.977  18.149  0.2673  0.2717  0.1011
52863DOD     C1 2408  22.246  22.767  27.810  0.0365 -0.0003 -0.2697
52863DOD     C2 2409  22.326  22.864  28.224  0.0666 -0.0567 -0.3298
52863DOD     C3 2410  22.464  23.250  28.525  0.2070  0.3717  0.1802
52864DOD     C1 2411  24.819  29.144  28.467 -0.0162 -0.3864 -0.1352
52864DOD     C2 2412  25.122  29.472  28.367 -0.1479  0.0225  0.1750
52864DOD     C3 2413  25.461  29.670  28.081  0.0895  0.1751  0.0148
52865DOD     C1 2414  20.617  25.875   4.300  0.0871  0.0644  0.2346
52865DOD     C2 2415  20.345  26.144   4.081 -0.1981  0.1812 -0.0447
52865DOD     C3 2416  20.539  26.360   3.745 -0.0205  0.1462 -0.4674
52866DOD     C1 2417  27.636  17.432   7.637 -0.0606 -0.0981  0.2690
52866DOD     C2 2418  27.403  17.156   7.284  0.0320  0.2559  0.1148
52866DOD     C3 2419  27.232  16.801   7.062 -0.0160  0.1092  0.0224
52867DOD     C1 2420  28.418  23.672   6.853 -0.3210 -0.1095 -0.1591
52867DOD     C2 2421  28.739  23.318   6.767  0.1436  0.0594 -0.1606
52867DOD     C3 2422  28.647  22.860   6.889  0.3758 -0.1181 -0.0280
52868DOD     C1 2423  19.555  27.690   6.535 -0.0235 -0.4992  0.0358
52868DOD     C2 2424  19.340  27.286   6.663  0.0378  0.2875 -0.0313
52868DOD     C3 2425  19.198  26.868   6.679  0.3345 -0.2701 -0.1810
52869DOD     C1 2426  26.031  16.253  20.011  0.1334  0.0672 -0.1773
52869DOD     C2 2427  26.055  15.800  19.969  0.0521 -0.0233 -0.0976
52869DOD     C3 2428  26.187  15.453  19.701 -0.0960  0.1685  0.2001
52870DOD     C1 2429   1.877  12.020   6.663  0.1008 -0.0810 -0.0930
52870DOD     C2 2430   2.310  12.206   6.588  0.0947  0.1948  0.2219
52870DOD     C3 2431   2.385  12.638   6.498  0.2530  0.1515  0.0003
52871DOD     C1 2432  14.518   0.639  25.848  0.0871  0.0767 -0.3415
52871DOD     C2 2433  14.208   0.972  26.024  0.1081 -0.2096 -0.2102
52871DOD     C3 2434  14.004   1.118  26.438 -0.2819  0.1358  0.3025
52872DOD     C1 2435   7.850  11.723  21.067  0.0041 -0.2155  0.1814
52872DOD     C2 2436   7.431  11.669  20.940 -0.0016 -0.2810  0.3098
52872DOD     C3 2437   7.035  11.457  20.834 -0.3175 -0.1169 -0.0398
52873DOD     C1 2438   0.906  22.548   4.863  0.2093  0.1309 -0.1277
52873DOD     C2 2439   0.689  22.853   5.159  0.0233  0.1205 -0.1773
52873DOD     C3 2440   0.334  22.920   5.467  0.4430  0.0658  0.0820
52874DOD     C1 2441  23.782  20.740   4.051 -0.2067 -0.0617  0.0419
52874DOD     C2 2442  24.030  20.550   3.658  0.2180 -0.0045 -0.2351
52874DOD     C3 2443  23.830  20.414   3.276  0.2732 -0.0390  0.0768
52875DOD     C1 2444  27.874  28.310  21.561  0.3023  0.0686 -0.2837
52875DOD     C2 2445  27.819  28.705  21.782 -0.1006 -0.0059  0.2237
52875DOD     C3 2446  27.915  29.181  21.848  0.0570 -0.0652  0.0626
52876DOD     C1 2447   6.459   3.594   0.717 -0.2744 -0.5116 -0.0614
52876DOD     C2 2448   6.708   3.436   1.053  0.0855 -0.3014 -0.0397
52876DOD     C3 2449   6.718   3.518   1.508 -0.1250  0.1314 -0.2695
52877DOD     C1 2450  24.951  11.316  20.916 -0.0122 -0.0736  0.1235
52877DOD     C2 2451  24.881  11.082  20.550 -0.1261  0.0848  0.2966
52877DOD     C3 2452  24.947  10.901  20.157 -0.1972 -0.1315 -0.0664
52878DOD     C1 2453  18.236  21.846   2.347  0.1091 -0.1897 -0.2038
52878DOD     C2 2454  18.476  21.722   2.721 -0.0751  0.0486  0.0583
52878DOD     C3 2455  18.667  21.325   2.604  0.0346  0.3686  0.4734
52879DOD     C1 2456   4.291  21.667  22.911 -0.2766  0.1636  0.0437
52879DOD     C2 2457   3.930  21.434  22.808  0.1364 -0.3068 -0.0290
52879DOD     C3 2458   3.530  21.130  22.869 -0.1509  0.2405 -0.0536
52880DOD     C1 2459   6.472  27.176  18.356  0.1157  0.1382 -0.2053
52880DOD     C2 2460   6.544  26.936  18.789 -0.0499  0.0536  0.0498
52880DOD     C3 2461   6.706  26.887  19.246  0.0842 -0.1137  0.0065
52881DOD     C1 2462  18.146  25.122  12.431 -0.1334  0.1567  0.3126
52881DOD     C2 2463  17.926  25.545  12.383 -0.1961 -0.1295 -0.1652
52881DOD     C3 2464  17.516  25.685  12.142  0.0089  0.1419  0.0822
52882DOD     C1 2465   5.730  24.768  19.018  0.1273 -0.1553  0.1753
52882DOD     C2 2466   5.456  24.485  19.292  0.0768 -0.3991 -0.1095
52882DOD     C3 2467   5.047  24.358  19.310  0.1802 -0.2155 -0.1205
52883DOD     C1 2468   3.077  12.588  25.767 -0.0017 -0.1608 -0.3290
52883DOD     C2 2469   3.485  12.393  25.730 -0.0015 -0.0668  0.2236
52883DOD     C3 2470   3.798  12.166  25.513  0.4033  0.0524 -0.0207
52884DOD     C1 2471   8.328  10.860   5.616 -0.1164  0.1049  0.3731
52884DOD     C2 2472   8.298  10.531   5.875  0.3458 -0.3384 -0.0245
52884DOD     C3 2473   8.678  10.278   6.077 -0.0419  0.0521  0.1273
52885DOD     C1 2474  11.946  16.743  18.815  0.1547  0.0517  0.1723
52885DOD     C2 2475  11.525  16.925  18.990  0.1548  0.0867  0.0598
52885DOD     C3 2476  11.066  17.036  18.979 -0.3386  0.0707 -0.0956
52886DOD     C1 2477  30.294  16.724  17.203  0.1388  0.0955  0.0264
52886DOD     C2 2478  30.154  16.317  17.489  0.0580 -0.0165 -0.0312
52886DOD     C3 2479  30.105  15.905  17.788 -0.3522 -0.1465 -0.1346
52887DOD     C1 2480   6.059   5.668  20.447 -0.1088 -0.0611  0.0955
52887DOD     C2 2481   5.830   5.582  20.033 -0.3087 -0.1580 -0.1900
52887DOD     C3 2482   5.813   5.263  19.713  0.1849 -0.3754 -0.1645
52888DOD     C1 2483   3.678   4.863  22.228 -0.3931 -0.0333  0.0422
52888DOD     C2 2484   3.789   5.175  21.842  0.2251  0.1500 -0.3303
52888DOD     C3 2485   4.034   5.214  21.510  0.0073  0.0180  0.2355
52889DOD     C1 2486   7.864  15.095  13.126  0.1189  0.1199  0.2155
52889DOD     C2 2487   7.733  14.759  13.436  0.2196 -0.1904  0.0138
52889DOD     C3 2488   7.750  14.612  13.836  0.2423 -0.0526 -0.4939
52890DOD     C1 2489  13.979  29.855   6.038 -0.2305  0.1332 -0.0718
52890DOD     C2 2490  14.407  29.974   6.262  0.1790  0.0768  0.0929
52890DOD     C3 2491  14.871  29.871   6.159  0.1445 -0.1591 -0.0757
52891DOD     C1 2492  13.978  11.398  22.857  0.0698  0.0340  0.1677
52891DOD     C2 2493  14.125  11.837  22.732  0.1306 -0.0300  0.1220
52891DOD     C3 2494  14.244  12.001  22.328  0.0003 -0.1644 -0.0576
52892DOD     C1 2495  17.370  10.290  22.559  0.0222  0.3177 -0.1105
52892DOD     C2 2496  17.091   9.974  22.248  0.3154  0.1247 -0.1458
52892DOD     C3 2497  16.907   9.783  21.830 -0.0107 -0.1655 -0.2102
52893DOD     C1 2498   8.965  14.326   2.408  0.3027  0.2824 -0.2056
52893DOD     C2 2499   8.879  13.927   2.501  0.0895 -0.1202 -0.2995
52893DOD     C3 2500   9.009  13.500   2.544 -0.0531 -0.0132 -0.0455
52894DOD     C1 2501  25.619  26.255  15.032  0.1212 -0.4353  0.1438
52894DOD     C2 2502  25.312  26.524  14.929 -0.2003 -0.2356 -0.0354
52894DOD     C3 2503  25.319  26.959  14.716  0.1504  0.2786  0.0145
52895DOD     C1 2504   6.756  11.229   6.359  0.0673 -0.1154 -0.4731
52895DOD     C2 2505   6.847  10.918   6.701 -0.0267  0.0389 -0.0389
52895DOD     C3 2506   7.017  10.526   6.929 -0.0365 -0.1439  0.0414
52896DOD     C1 2507  14.258  26.233  14.109  0.0396  0.1299 -0.0880
52896DOD     C2 2508  14.210  26.369  13.696  0.0818 -0.0125 -0.1189
52896DOD     C3 2509  14.457  26.572  13.360  0.2103 -0.0467 -0.2099
52897DOD     C1 2510   0.801  19.419  30.084 -0.4061 -0.1825 -0.1124
52897DOD     C2 2511   1.134  19.253  29.822  0.1982 -0.0851 -0.3426
52897DOD     C3 2512   1.354  18.947  29.534 -0.3899  0.1268 -0.1807
52898DOD     C1 2513   9.986  15.389  13.439 -0.1227  0.0944 -0.0918
52898DOD     C2 2514   9.532  15.421  13.401  0.2499  0.0008 -0.0329
52898DOD     C3 2515   9.098  15.432  13.366  0.0928  0.0141 -0.0765
52899DOD     C1 2516  14.174  12.108  13.515  0.0830 -0.1927  0.0360
52899DOD     C2 2517  13.985  11.889  13.805 -0.1478 -0.2435  0.0809
52899DOD     C3 2518  14.037  11.743  14.258  0.0432  0.3536  0.1686
52900DOD     C1 2519   2.012  24.575  21.661  0.2788 -0.0809 -0.1327
52900DOD     C2 2520   1.880  24.669  21.192 -0.0113  0.2285  0.1687
52900DOD     C3 2521   1.630  24.497  20.783 -0.0748  0.0591  0.0667
52901DOD     C1 2522  20.763  10.169  24.981  0.0820  0.1374  0.3428
52901DOD     C2 2523  20.424  10.481  24.932 -0.1925  0.2421  0.3669
52901DOD     C3 2524  20.123  10.770  25.115 -0.2300  0.0327  0.1084
52902DOD     C1 2525  27.709  26.793  24.214 -0.1209 -0.2686 -0.4707
52902DOD     C2 2526  27.523  27.229  24.320  0.0190  0.2908  0.2625
52902DOD     C3 2527  27.480  27.648  24.441  0.2302  0.0237 -0.1334
52903DOD     C1 2528   9.081  16.438  18.344  0.2366  0.0421 -0.2387
52903DOD     C2 2529   8.817  16.811  18.276  0.2190 -0.0887  0.3020
52903DOD     C3 2530   8.621  17.183  18.488 -0.2360  0.1443  0.3400
52904DOD     C1 2531  21.372   1.733  27.417  0.1858 -0.1194 -0.1392
52904DOD     C2 2532  21.306   1.975  27.839  0.2008  0.2211  0.1435
52904DOD     C3 2533  21.096   2.191  28.159  0.1341 -0.0427 -0.1620
52905DOD     C1 2534  12.224  21.885   7.232  0.4035  0.0991  0.2037
52905DOD     C2 2535  12.013  22.210   7.046  0.2139 -0.5454 -0.1112
52905DOD     C3 2536  11.910  22.506   6.697 -0.0824 -0.0317 -0.0157
52906DOD     C1 2537  29.648  21.813   4.392  0.1763 -0.0520 -0.4333
52906DOD     C2 2538  29.431  22.236   4.230  0.3285  0.0750 -0.3790
52906DOD     C3 2539  29.007  22.288   4.306  0.0172 -0.1634  0.1143
52907DOD     C1 2540  17.082  27.274  17.438 -0.1527 -0.0459  0.1567
52907DOD     C2 2541  17.221  26.799  17.583 -0.0389 -0.1453  0.0114
52907DOD     C3 2542  17.514  26.416  17.648  0.1588 -0.0351  0.0332
52908DOD     C1 2543  27.199  19.843   3.819  0.1123 -0.0690  0.0116
52908DOD     C2 2544  26.757  19.912   3.664  0.1176  0.0460 -0.3160
52908DOD     C3 2545  26.551  20.302   3.648 -0.0973 -0.1978  0.2807
52909DOD     C1 2546  19.049  22.480   5.520 -0.0532  0.0293 -0.0774
52909DOD     C2 2547  18.674  22.295   5.266 -0.1757  0.2761 -0.0666
52909DOD     C3 2548  18.622  22.232   4.788  0.1574 -0.0995  0.0724
52910DOD     C1 2549  15.201  15.143  25.089 -0.0325 -0.1653  0.1145
52910DOD     C2 2550  15.603  15.266  25.253 -0.3024  0.1048  0.0728
52910DOD     C3 2551  15.874  15.608  25.445  0.0706 -0.1288 -0.1413
52911DOD     C1 2552  25.588  14.715  26.384  0.1629 -0.0835  0.1675
52911DOD     C2 2553  25.889  14.454  26.609 -0.1082 -0.0129 -0.0639
52911DOD     C3 2554  25.921  14.148  27.002  0.3508  0.1428 -0.0811
52912DOD     C1 2555   8.992  14.242   3.492  0.0464 -0.2880  0.1357
52912DOD     C2 2556   9.351  14.547   3.301  0.1579  0.0141 -0.0643
52912DOD     C3 2557   9.582  15.011   3.446  0.2669 -0.0360 -0.1832
52913DOD     C1 2558   3.450  28.314  29.132 -0.0512  0.1528  0.0834
52913DOD     C2 2559   3.797  28.609  29.157 -0.0802  0.0250 -0.1420
52913DOD     C3 2560   4.179  28.753  29.334 -0.3316 -0.0872 -0.3671
52914DOD     C1 2561  22.555   1.948  19.047 -0.3303  0.1844 -0.0423
52914DOD     C2 2562  22.959   2.235  19.069 -0.0607 -0.0283 -0.2901
52914DOD     C3 2563  23.140   2.639  19.225  0.1829  0.0770 -0.1038
52915DOD     C1 2564   3.540  21.403   6.123 -0.2257 -0.0784  0.0042
52915DOD     C2 2565   3.333  21.107   5.872 -0.1471  0.0341  0.1311
52915DOD     C3 2566   2.880  21.140   5.778  0.1401 -0.1487  0.0725
52916DOD     C1 2567  13.959  15.983   5.390 -0.0507 -0.0131  0.4228
52916DOD     C2 2568  14.102  15.755   4.985  0.0175  0.2421  0.2486
52916DOD     C3 2569  14.369  15.840   4.605  0.3157 -0.2137 -0.1591
52917DOD     C1 2570   7.967  23.457  25.889 -0.0465 -0.1765 -0.2961
52917DOD     C2 2571   8.141  23.773  26.063  0.0040  0.2797  0.3988
52917DOD     C3 2572   8.051  24.161  26.128 -0.1614 -0.0231  0.1302
52918DOD     C1 2573  15.324  14.565  18.945 -0.2131  0.1307 -0.2778
52918DOD     C2 2574  15.067  14.767  18.614 -0.1828 -0.1439 -0.1250
52918DOD     C3 2575  14.813  15.001  18.292 -0.0382 -0.2490  0.2679
52919DOD     C1 2576   7.807  20.218  23.421 -0.1209  0.3288 -0.2724
52919DOD     C2 2577   8.058  20.117  23.828  0.0153 -0.2521 -0.2282
52919DOD     C3 2578   8.463  19.980  23.983  0.1808 -0.1643 -0.1469
52920DOD     C1 2579  21.910  20.168  27.838  0.0816  0.3159 -0.2658
52920DOD     C2 2580  21.632  20.480  27.638 -0.1011 -0.1752  0.1081
52920DOD     C3 2581  21.670  20.958  27.612  0.1202 -0.0322  0.0289
52921DOD     C1 2582  12.474  27.153   6.410  0.3935  0.2901 -0.2957
52921DOD     C2 2583  12.290  27.097   5.994 -0.1759 -0.1865 -0.3734
52921DOD     C3 2584  12.224  26.951   5.536 -0.1363 -0.1638 -0.0421
52922DOD     C1 2585  13.152   2.286   7.903 -0.2311  0.0116  0.0564
52922DOD     C2 2586  13.233   1.910   8.069 -0.1052  0.1142  0.0696
52922DOD     C3 2587  12.975   1.619   8.341 -0.2673  0.0574 -0.2836
52923DOD     C1 2588  20.027  13.858   2.614 -0.4799  0.0135 -0.1383
52923DOD     C2 2589  20.022  13.805   2.149  0.1402  0.2398  0.2811
52923DOD     C3 2590  19.910  13.828   1.684  0.1301  0.2947 -0.1075
52924DOD     C1 2591  19.649  26.966  14.479 -0.0838 -0.0542 -0.1665
52924DOD     C2 2592  20.049  27.272  14.511 -0.0670  0.0134  0.2161
52924DOD     C3 2593  20.407  27.567  14.631 -0.0053 -0.0770 -0.0253
52925DOD     C1 2594   8.135  25.053   9.568  0.1254 -0.1087 -0.2014
52925DOD     C2 2595   8.302  24.932   9.960 -0.2630  0.1109 -0.2643
52925DOD     C3 2596   8.293  24.798  10.397  0.1684 -0.0730  0.2070
52926DOD     C1 2597  17.383  12.951   9.521  0.4541 -0.1678  0.0990
52926DOD     C2 2598  17.494  13.241   9.861 -0.0610  0.2102  0.0234
52926DOD     C3 2599  17.856  13.580   9.923  0.0591  0.0721  0.0766
52927DOD     C1 2600  10.901   1.811   3.882 -0.0716  0.1226 -0.0705
52927DOD     C2 2601  10.761   1.354   3.929 -0.0082 -0.0905  0.0427
52927DOD     C3 2602  10.581   0.979   3.784 -0.3041  0.1924  0.0237
52928DOD     C1 2603  18.028  29.020  15.801  0.0550 -0.1033  0.0360
52928DOD     C2 2604  17.628  28.800  15.860  0.4041 -0.2743 -0.2482
52928DOD     C3 2605  17.148  28.765  15.717  0.0784 -0.1121 -0.3855
52929DOD     C1 2606   7.953   6.381   2.952 -0.0696  0.2180 -0.1350
52929DOD     C2 2607   8.169   6.396   2.514 -0.2671 -0.1445 -0.1746
52929DOD     C3 2608   8.542   6.286   2.414 -0.2747 -0.0854 -0.0914
52930DOD     C1 2609   7.446  22.172  26.572  0.2496 -0.0015 -0.2652
52930DOD     C2 2610   7.115  21.888  26.372  0.0718 -0.1763 -0.0113
52930DOD     C3 2611   6.741  22.097  26.273  0.0372  0.0989  0.2493
52931DOD     C1 2612  24.364   7.181   4.095  0.1772  0.0070 -0.2696
52931DOD     C2 2613  24.134   6.831   4.365  0.0290  0.2275 -0.1314
52931DOD     C3 2614  24.042   6.354   4.454  0.0920 -0.0686  0.0625
52932DOD     C1 2615   5.147   9.954   2.684  0.2286 -0.0994 -0.3934
52932DOD     C2 2616   5.504  10.222   2.733  0.1919 -0.0455  0.2842
52932DOD     C3 2617   5.579  10.676   2.830  0.0908 -0.1759  0.0244
52933DOD     C1 2618  16.853  16.422  23.909 -0.0604  0.0392  0.0919
52933DOD     C2 2619  16.885  16.225  24.307 -0.3685  0.0848 -0.3523
52933DOD     C3 2620  16.520  15.951  24.442 -0.2921 -0.1550 -0.1541
52934DOD     C1 2621  29.445   6.410  18.280 -0.1762 -0.3346  0.0318
52934DOD     C2 2622  29.371   6.287  17.842 -0.4207  0.4483 -0.1467
52934DOD     C3 2623  28.979   6.202  17.613  0.0558  0.0536 -0.0030
52935DOD     C1 2624  11.391   4.492   4.132  0.0372  0.1594 -0.1967
52935DOD     C2 2625  10.995   4.337   3.954 -0.0398  0.1626 -0.2220
52935DOD     C3 2626  10.565   4.433   3.706  0.0477  0.0241 -0.2782
52936DOD     C1 2627  22.969   3.211  24.418 -0.3801 -0.0724 -0.1714
52936DOD     C2 2628  22.533   3.046  24.497  0.0862  0.2190 -0.0216
52936DOD     C3 2629  22.220   2.861  24.805  0.0448  0.4022  0.1162
52937DOD     C1 2630   8.361   2.179   8.676  0.2918 -0.0484  0.0062
52937DOD     C2 2631   8.458   2.527   8.466 -0.1120  0.0378 -0.0492
52937DOD     C3 2632   8.466   2.842   8.093  0.1212  0.0638  0.0447
52938DOD     C1 2633  22.739  15.838  15.563  0.1038 -0.1700  0.0152
52938DOD     C2 2634  23.043  15.846  15.915  0.0143 -0.0709  0.2294
52938DOD     C3 2635  23.461  15.877  16.129  0.1654  0.3026  0.1604
52939DOD     C1 2636  17.229  21.902  17.831 -0.0988 -0.1140  0.1327
52939DOD     C2 2637  17.163  21.472  18.084  0.1521 -0.2034  0.0161
52939DOD     C3 2638  16.901  21.123  18.076  0.2655 -0.1219 -0.0492
52940DOD     C1 2639   2.799  13.794  10.165 -0.0056 -0.2238 -0.0330
52940DOD     C2 2640   2.859  14.224  10.349  0.0774  0.0003  0.0552
52940DOD     C3 2641   2.880  14.711  10.526  0.0679 -0.1980  0.0243
52941DOD     C1 2642  24.042  18.286  26.068 -0.2013 -0.3584  0.0050
52941DOD     C2 2643  24.287  18.613  26.311 -0.1420  0.1562  0.2451
52941DOD     C3 2644  24.664  18.781  26.583  0.2307 -0.3069  0.1323
52942DOD     C1 2645   9.547  24.762  14.210 -0.0642 -0.2726  0.0498
52942DOD     C2 2646   9.941  24.504  14.317  0.0606 -0.2516  0.0034
52942DOD     C3 2647  10.231  24.414  13.973 -0.1259  0.0506 -0.2000
52943DOD     C1 2648  13.751  11.431  15.912 -0.1928  0.0096  0.1074
52943DOD     C2 2649  13.489  11.460  16.263 -0.0320  0.2374  0.0209
52943DOD     C3 2650  13.286  11.330  16.710 -0.0391 -0.0180 -0.0022
52944DOD     C1 2651   1.999   3.781   2.960 -0.0862 -0.1088 -0.0702
52944DOD     C2 2652   2.301   3.747   2.614  0.0282  0.0691 -0.0731
52944DOD     C3 2653   2.630   3.508   2.525  0.1849 -0.0902 -0.0111
52945DOD     C1 2654  10.251  14.674  21.554 -0.0589  0.0501 -0.0512
52945DOD     C2 2655  10.533  14.785  21.917  0.2846  0.5096  0.1806
52945DOD     C3 2656  10.681  14.670  22.334  0.1329  0.0297  0.0309
52946DOD     C1 2657  14.522   5.806   9.970 -0.0115 -0.0098 -0.1840
52946DOD     C2 2658  14.076   5.728   9.728  0.1940  0.2426 -0.0215
52946DOD     C3 2659  13.706   5.948   9.614  0.0139  0.0802 -0.1756
52947DOD     C1 2660  19.256   3.146  17.578 -0.0056  0.2211 -0.1859
52947DOD     C2 2661  18.940   2.806  17.506 -0.2261  0.0514  0.0776
52947DOD     C3 2662  18.602   2.786  17.194 -0.0295  0.2953  0.6113
52948DOD     C1 2663   5.249  29.500   3.368 -0.1289  0.0756 -0.0231
52948DOD     C2 2664   5.589  29.139   3.442 -0.3601 -0.0348 -0.1552
52948DOD     C3 2665   5.672  28.709   3.555 -0.1038  0.2007 -0.0720
52949DOD     C1 2666  15.960  30.068   3.643  0.2521  0.0223 -0.1164
52949DOD     C2 2667  16.082  30.277   3.287  0.1567 -0.0304  0.1177
52949DOD     C3 2668  16.300   0.353   3.122  0.0324 -0.2191  0.2454
52950DOD     C1 2669   5.664   2.848  23.042 -0.2099  0.2656 -0.1580
52950DOD     C2 2670   5.760   3.255  22.845  0.3280 -0.2731  0.0597
52950DOD     C3 2671   6.006   3.394  22.491 -0.3230 -0.2596  0.0923
52951DOD     C1 2672   8.201  11.314  10.794 -0.3258  0.0397  0.0240
52951DOD     C2 2673   8.293  11.318  10.328 -0.1889  0.0657 -0.0029
52951DOD     C3 2674   8.610  11.155   9.989  0.1818  0.6027 -0.2624
52952DOD     C1 2675  21.036  10.194   6.757 -0.2777  0.0145 -0.0496
52952DOD     C2 2676  21.321  10.155   7.093 -0.1875 -0.4606 -0.0232
52952DOD     C3 2677  21.392  10.527   7.360  0.1976 -0.2316 -0.0885
52953DOD     C1 2678  28.476   9.470  12.932  0.0417  0.1217  0.0548
52953DOD     C2 2679  28.194   9.557  13.318 -0.0509 -0.1194 -0.0523
52953DOD     C3 2680  27.855   9.641  13.616  0.1969 -0.1794  0.4752
52954DOD     C1 2681   3.134   7.111  16.128  0.0809  0.2412  0.0306
52954DOD     C2 2682   3.367   6.917  15.793  0.0044  0.1804 -0.3182
52954DOD     C3 2683   3.438   6.483  15.594 -0.1626 -0.0234  0.2603
52955DOD     C1 2684   9.848   5.347  27.696  0.0068  0.1587 -0.0950
52955DOD     C2 2685  10.237   5.115  27.877 -0.0413 -0.3005  0.1871
52955DOD     C3 2686  10.642   4.829  28.026  0.1140 -0.1960 -0.2170
52956DOD     C1 2687   4.301  25.097   6.748  0.0205 -0.2090 -0.1985
52956DOD     C2 2688   4.344  25.361   6.349  0.1933  0.1275 -0.1480
52956DOD     C3 2689   4.564  25.045   6.071 -0.1269  0.1979 -0.1551
52957DOD     C1 2690  23.387   8.018  11.400  0.2361  0.1228  0.0945
52957DOD     C2 2691  23.103   7.702  11.432  0.1458 -0.2903 -0.0324
52957DOD     C3 2692  22.631   7.662  11.491  0.0224  0.1990 -0.2400
52958DOD     C1 2693  21.856  25.368   4.544  0.3730 -0.2620  0.0709
52958DOD     C2 2694  21.463  25.456   4.441  0.2825 -0.2262 -0.1848
52958DOD     C3 2695  21.050  25.322   4.483  0.1246 -0.0762  0.1226
52959DOD     C1 2696  23.691   4.561  16.447  0.0928  0.0894  0.3412
52959DOD     C2 2697  23.610   4.733  16.824  0.0483 -0.1728 -0.1401
52959DOD     C3 2698  23.686   5.122  17.109 -0.0849 -0.4810  0.2269
52960DOD     C1 2699   8.836   9.910  13.992 -0.1889  0.0872 -0.0237
52960DOD     C2 2700   9.173   9.738  13.684 -0.2820  0.1310 -0.2926
52960DOD     C3 2701   9.078   9.539  13.293 -0.1204 -0.1877 -0.2696
52961DOD     C1 2702  23.275  22.981  13.841 -0.3519 -0.1463 -0.1306
52961DOD     C2 2703  23.352  23.454  13.839 -0.1363 -0.2157 -0.0296
52961DOD     C3 2704  23.375  23.875  13.667 -0.2698  0.2883 -0.3267
52962DOD     C1 2705   8.374  23.027   3.307  0.2061 -0.1771  0.0816
52962DOD     C2 2706   7.935  23.186   3.248 -0.0477  0.0410 -0.4555
52962DOD     C3 2707   7.513  23.163   3.170 -0.0898 -0.0652  0.0409
52963DOD     C1 2708  15.786  17.743  25.934 -0.0781  0.1785  0.1253
52963DOD     C2 2709  15.663  17.711  26.369 -0.2589  0.1452  0.0548
52963DOD     C3 2710  15.623  17.932  26.744  0.2771 -0.0368 -0.1140
52964DOD     C1 2711  19.737  10.973   9.056 -0.2544  0.2143  0.1034
52964DOD     C2 2712  20.011  10.991   9.414 -0.1474 -0.1286 -0.0419
52964DOD     C3 2713  20.158  11.049   9.846 -0.2428  0.0626  0.1729
52965DOD     C1 2714   1.915  25.641   3.151 -0.0287  0.1147 -0.0829
52965DOD     C2 2715   1.500  25.371   3.074  0.0198  0.0337 -0.0633
52965DOD     C3 2716   1.127  25.399   2.828 -0.1124  0.1557 -0.1867
52966DOD     C1 2717  25.747   0.241  27.360 -0.2151 -0.1859 -0.1340
52966DOD     C2 2718  26.028   0.245  26.975  0.1242 -0.0627  0.1036
52966DOD     C3 2719  26.424   0.133  26.776 -0.2622  0.0622  0.0130
52967DOD     C1 2720  25.650  28.224  22.685  0.3084  0.0173  0.0440
52967DOD     C2 2721  26.104  28.320  22.722  0.1145  0.2689  0.0352
52967DOD     C3 2722  26.460  28.192  23.026 -0.0476 -0.1160  0.0509
52968DOD     C1 2723  20.450   5.783   5.414 -0.1275 -0.0619 -0.3103
52968DOD     C2 2724  20.258   6.186   5.604  0.1244 -0.2842 -0.3069
52968DOD     C3 2725  19.949   6.500   5.766 -0.3223 -0.0637 -0.2733
52969DOD     C1 2726  27.155   0.711   5.446  0.0197  0.2017 -0.1945
52969DOD     C2 2727  27.160   0.398   5.840 -0.1178 -0.4281 -0.0259
52969DOD     C3 2728  27.125   0.052   6.150 -0.0187 -0.2041 -0.0070
52970DOD     C1 2729  10.283   8.174   3.602  0.0833 -0.0084 -0.3245
52970DOD     C2 2730  10.448   8.534   3.380 -0.1349  0.1118 -0.3022
52970DOD     C3 2731  10.774   8.864   3.413 -0.1178  0.2050 -0.1353
52971DOD     C1 2732  20.715   5.539  21.770  0.0200 -0.3273  0.0183
52971DOD     C2 2733  20.381   5.418  22.094  0.3371  0.0168  0.0478
52971DOD     C3 2734  19.951   5.304  22.284 -0.2319 -0.0698 -0.0147
52972DOD     C1 2735  19.614  21.663  28.715  0.1135  0.1419  0.3901
52972DOD     C2 2736  19.691  21.364  29.026  0.1282  0.0435  0.0045
52972DOD     C3 2737  19.489  21.079  29.321 -0.0658  0.3345  0.1607
52973DOD     C1 2738   3.551  24.787  24.825 -0.1064  0.0453 -0.0765
52973DOD     C2 2739   3.106  24.999  24.705 -0.0974  0.2139 -0.0002
52973DOD     C3 2740   2.766  25.284  24.501 -0.0008  0.2653 -0.1559
52974DOD     C1 2741  15.734  22.774   0.178 -0.4186  0.1300  0.2326
52974DOD     C2 2742  15.669  23.204   0.361  0.0143 -0.1813  0.2100
52974DOD     C3 2743  15.591  23.440   0.744 -0.0196 -0.0008  0.0177
52975DOD     C1 2744  28.990  15.510   2.383 -0.1009  0.0073 -0.1595
52975DOD     C2 2745  28.694  15.384   2.636  0.2565 -0.1982 -0.0194
52975DOD     C3 2746  28.361  15.676   2.891  0.2239  0.2462  0.2248
52976DOD     C1 2747   6.918  17.132  11.488  0.0538 -0.0891 -0.0074
52976DOD     C2 2748   7.190  16.763  11.515  0.0817  0.1313 -0.1777
52976DOD     C3 2749   7.552  16.481  11.546  0.2402 -0.0825  0.0008
52977DOD     C1 2750  24.396  13.061  23.904 -0.1381  0.0548  0.0797
52977DOD     C2 2751  24.476  12.940  23.413 -0.0078 -0.1865  0.1161
52977DOD     C3 2752  24.838  12.867  23.120  0.2862 -0.0722  0.1209
52978DOD     C1 2753  19.240   5.215  20.994 -0.1170 -0.2861 -0.1867
52978DOD     C2 2754  19.682   5.196  20.869 -0.1656  0.1707  0.1325
52978DOD     C3 2755  20.033   5.015  20.615  0.1504  0.1684  0.0046
52979DOD     C1 2756  10.719  27.909  26.998  0.1847  0.1844 -0.1511
52979DOD     C2 2757  10.284  28.074  26.866  0.0442  0.0356 -0.1059
52979DOD     C3 2758   9.818  28.123  27.010  0.0913 -0.1787 -0.0241
52980DOD     C1 2759  13.405  26.070  20.334 -0.0329  0.1434 -0.0084
52980DOD     C2 2760  13.454  26.510  20.111  0.0610 -0.3013 -0.1810
52980DOD     C3 2761  13.615  26.939  20.145 -0.0166 -0.0715 -0.3535
52981DOD     C1 2762   5.211   3.637  24.186  0.2875 -0.1272  0.1338
52981DOD     C2 2763   5.123   3.225  24.093 -0.0100 -0.0336  0.1031
52981DOD     C3 2764   5.112   2.805  23.966 -0.1460  0.3562  0.3643
52982DOD     C1 2765  18.489  27.315  17.304  0.0596  0.1307  0.0440
52982DOD     C2 2766  18.655  26.884  17.516  0.0289  0.4092 -0.3574
52982DOD     C3 2767  18.649  26.483  17.832 -0.1885 -0.1726 -0.1571
52983DOD     C1 2768   9.360  27.727  24.168 -0.1119  0.1431  0.0034
52983DOD     C2 2769   8.962  27.974  24.196  0.0356  0.0377  0.1210
52983DOD     C3 2770   8.528  27.843  24.312 -0.1295  0.0564  0.2638
52984DOD     C1 2771  13.066   8.672  16.783  0.0244 -0.1399  0.3306
52984DOD     C2 2772  13.202   9.114  16.965 -0.2490  0.0974 -0.3271
52984DOD     C3 2773  12.983   9.497  16.885  0.0758 -0.1015  0.0238
52985DOD     C1 2774  21.335  13.910  20.534  0.0952  0.3087 -0.1322
52985DOD     C2 2775  21.500  13.898  20.091 -0.2222 -0.2541 -0.0272
52985DOD     C3 2776  21.651  13.994  19.685  0.0623  0.1119 -0.1046
52986DOD     C1 2777  20.092  16.437   5.674 -0.0278  0.3237  0.0463
52986DOD     C2 2778  20.115  16.265   6.089  0.1738  0.0609 -0.0566
52986DOD     C3 2779  19.819  15.969   6.325 -0.1399  0.0815  0.4498
52987DOD     C1 2780  21.025   7.870  18.957  0.1544  0.1611  0.3787
52987DOD     C2 2781  20.823   7.493  19.108 -0.0593  0.2954  0.1896
52987DOD     C3 2782  20.534   7.046  19.118 -0.2200  0.0017 -0.1367
52988DOD     C1 2783  28.081  28.321   5.491 -0.0318  0.2716 -0.1197
52988DOD     C2 2784  27.836  28.684   5.540  0.2170 -0.1694 -0.2276
52988DOD     C3 2785  27.476  28.876   5.824  0.3896 -0.0745  0.0843
52989DOD     C1 2786  16.704   1.753   9.141 -0.1923  0.2002  0.1590
52989DOD     C2 2787  16.884   2.079   8.846 -0.0209 -0.1490 -0.1296
52989DOD     C3 2788  16.806   2.480   8.577  0.1358 -0.2811  0.2705
52990DOD     C1 2789   3.434  13.203  26.944 -0.0978  0.1247  0.2356
52990DOD     C2 2790   2.963  13.098  26.880 -0.0847 -0.2555  0.1044
52990DOD     C3 2791   2.582  12.792  26.921 -0.1741  0.1742  0.1580
52991DOD     C1 2792   3.031  26.150   5.137  0.2687  0.0531 -0.0303
52991DOD     C2 2793   3.122  26.584   5.149 -0.0085  0.0712 -0.3348
52991DOD     C3 2794   3.178  27.072   5.105  0.2111 -0.1110  0.2170
52992DOD     C1 2795   3.287  26.147  11.319 -0.0620  0.2971 -0.1717
52992DOD     C2 2796   3.326  25.847  11.660  0.1127 -0.1738 -0.0452
52992DOD     C3 2797   3.408  25.375  11.729  0.0933  0.3154  0.1445
52993DOD     C1 2798  29.795   7.035   1.830 -0.2931  0.1881 -0.2790
52993DOD     C2 2799  29.940   6.621   1.692  0.0438  0.1822 -0.3624
52993DOD     C3 2800  30.196   6.268   1.762  0.0452 -0.3689  0.2444
52994DOD     C1 2801   7.805  26.918  23.034  0.1033  0.1212 -0.0308
52994DOD     C2 2802   7.904  26.891  23.521  0.0812 -0.1258 -0.0353
52994DOD     C3 2803   7.682  26.653  23.915  0.0960 -0.1438  0.3315
52995DOD     C1 2804   0.304   0.108  29.773  0.3654  0.0465  0.0535
52995DOD     C2 2805   0.445   0.059  30.179  0.0422 -0.0309 -0.0503
52995DOD     C3 2806   0.694  30.181   0.262  0.1431 -0.3350  0.0571
52996DOD     C1 2807  28.400  24.242  17.055 -0.1681 -0.0622 -0.0305
52996DOD     C2 2808  28.862  24.351  16.913  0.0173 -0.1820  0.0483
52996DOD     C3 2809  29.292  24.274  16.747  0.2562 -0.0142 -0.2355
52997DOD     C1 2810  16.374  20.296   3.932  0.2362 -0.1864  0.0858
52997DOD     C2 2811  16.780  20.122   3.943  0.2563 -0.1401  0.1203
52997DOD     C3 2812  17.108  19.866   4.018 -0.2133 -0.0221 -0.1427
52998DOD     C1 2813   1.437  26.650  15.482  0.1491  0.1194  0.3444
52998DOD     C2 2814   1.743  26.624  15.845 -0.2380  0.1729  0.1006
52998DOD     C3 2815   1.849  26.277  16.100  0.1039  0.1465 -0.0621
52999DOD     C1 2816  28.743  27.411  12.943  0.2015 -0.1126 -0.4061
52999DOD     C2 2817  28.427  27.447  12.630 -0.2586 -0.1839 -0.2994
52999DOD     C3 2818  28.199  27.057  12.514 -0.1170 -0.2268 -0.1819
53000DOD     C1 2819   1.627  20.674  15.930 -0.1373  0.0860  0.0411
53000DOD     C2 2820   1.293  20.935  15.836 -0.1001 -0.0048  0.1306
53000DOD     C3 2821   0.919  21.261  15.978  0.0652 -0.0856 -0.2497
53001DOD     C1 2822  23.507  25.429  11.909  0.0355 -0.1914  0.0041
53001DOD     C2 2823  23.958  25.362  11.827  0.0866 -0.1813  0.1934
53001DOD     C3 2824  24.145  24.943  11.969 -0.4371  0.0320  0.2320
53002DOD     C1 2825  17.348  16.414  15.339  0.2264 -0.3947  0.2357
53002DOD     C2 2826  17.679  16.587  15.596 -0.2746 -0.1171 -0.2753
53002DOD     C3 2827  17.903  16.953  15.686  0.2509  0.0995 -0.0451
53003DOD     C1 2828   8.487  29.563  17.591  0.1763 -0.1209  0.1314
53003DOD     C2 2829   8.219  29.511  17.192  0.1288 -0.0066  0.1167
53003DOD     C3 2830   7.954  29.936  17.119 -0.0049 -0.1283 -0.1406
53004DOD     C1 2831  11.421  18.698   8.894 -0.0287  0.0365  0.1558
53004DOD     C2 2832  11.819  18.710   8.592 -0.0468  0.3074  0.0386
53004DOD     C3 2833  12.042  18.445   8.228 -0.1475  0.1665  0.3355
53005DOD     C1 2834  13.249  15.721   7.825  0.1305 -0.0233 -0.0858
53005DOD     C2 2835  13.099  15.323   7.641 -0.0088  0.0239 -0.1108
53005DOD     C3 2836  13.092  14.906   7.612 -0.2555  0.1307  0.1274
53006DOD     C1 2837  11.564   8.060  14.228  0.2124  0.0546 -0.1172
53006DOD     C2 2838  11.841   8.364  14.047  0.0474 -0.0116 -0.0966
53006DOD     C3 2839  11.981   8.840  13.955  0.0124  0.0264 -0.0748
53007DOD     C1 2840  21.211  27.506   2.755 -0.0221  0.0470 -0.0354
53007DOD     C2 2841  21.231  27.641   2.321  0.0597  0.0628  0.3469
53007DOD     C3 2842  21.547  27.391   2.106  0.2337 -0.0430  0.1850
53008DOD     C1 2843  22.909  13.084  20.023 -0.0004 -0.1006  0.0369
53008DOD     C2 2844  23.431  13.168  19.926 -0.2235  0.0031 -0.4192
53008DOD     C3 2845  23.847  12.979  19.814  0.1870 -0.2563  0.0268
53009DOD     C1 2846   8.978   9.239   8.120  0.2731  0.1920  0.2374
53009DOD     C2 2847   9.016   9.446   8.491 -0.0840  0.0398 -0.0994
53009DOD     C3 2848   8.946   9.686   8.890 -0.2135 -0.1361  0.1273
53010DOD     C1 2849   9.177   2.500   8.089 -0.3592 -0.0692  0.0462
53010DOD     C2 2850   8.895   2.724   8.381 -0.0165 -0.1387 -0.1301
53010DOD     C3 2851   8.846   2.753   8.859  0.0465  0.0439  0.0745
53011DOD     C1 2852  12.910   6.733  11.070  0.1498  0.1967 -0.2147
53011DOD     C2 2853  12.845   7.041  10.747  0.3505  0.1819  0.1317
53011DOD     C3 2854  13.015   6.848  10.338  0.2661  0.2648 -0.2309
53012DOD     C1 2855  30.228  12.221   2.154 -0.2248 -0.0924 -0.0961
53012DOD     C2 2856  29.820  12.158   2.367 -0.1823 -0.0094  0.0073
53012DOD     C3 2857  29.452  12.150   2.614 -0.2352  0.2969  0.4572
53013DOD     C1 2858  28.768  21.391  29.629  0.2190  0.2378 -0.4445
53013DOD     C2 2859  28.701  20.988  29.380 -0.2284  0.1048  0.1831
53013DOD     C3 2860  28.282  20.816  29.303 -0.0115  0.2622  0.1514
53014DOD     C1 2861  15.042  25.328  24.452  0.2171  0.3054  0.5404
53014DOD     C2 2862  14.793  25.002  24.190 -0.0354  0.1663 -0.1527
53014DOD     C3 2863  14.426  24.733  24.266  0.2264 -0.1946  0.0412
53015DOD     C1 2864  15.867  24.922   5.576  0.0730  0.1715  0.2264
53015DOD     C2 2865  16.038  25.322   5.829 -0.1374 -0.1334  0.1740
53015DOD     C3 2866  16.303  25.756   5.971  0.1095  0.1360  0.1672
53016DOD     C1 2867  25.741  16.464  22.603 -0.1795  0.1853 -0.2220
53016DOD     C2 2868  25.338  16.230  22.558 -0.1174 -0.1200  0.1930
53016DOD     C3 2869  25.297  15.769  22.578  0.0533 -0.3075 -0.4246
53017DOD     C1 2870   7.775  14.699  29.808 -0.0184  0.2291  0.5815
53017DOD     C2 2871   8.094  15.051  29.901 -0.1056 -0.2560  0.2738
53017DOD     C3 2872   8.419  14.961  30.224  0.3121  0.0937 -0.2053
53018DOD     C1 2873  13.912   1.413   7.261 -0.0014  0.0296  0.0652
53018DOD     C2 2874  13.933   0.988   7.414  0.0396  0.1297 -0.4518
53018DOD     C3 2875  14.215   0.646   7.521  0.0902  0.1998  0.1446
53019DOD     C1 2876  11.619   8.358   1.843  0.4306 -0.1353  0.0382
53019DOD     C2 2877  11.760   7.990   2.101  0.2506 -0.4741  0.1398
53019DOD     C3 2878  11.715   7.513   2.113  0.1758 -0.0514 -0.0886
53020DOD     C1 2879   2.323   3.602   6.786  0.0737  0.1319 -0.2050
53020DOD     C2 2880   2.083   3.358   7.051 -0.1419  0.0264 -0.3534
53020DOD     C3 2881   2.020   2.885   7.144 -0.1802  0.3078  0.0255
53021DOD     C1 2882   5.068  10.068   0.864  0.1929 -0.3285 -0.1775
53021DOD     C2 2883   4.731   9.959   0.546  0.0297  0.1890  0.0406
53021DOD     C3 2884   4.428   9.703   0.237 -0.2729  0.0033 -0.3016
53022DOD     C1 2885  21.074   5.994  20.638 -0.0631  0.0579 -0.0530
53022DOD     C2 2886  20.625   6.169  20.499 -0.1655 -0.0831 -0.0126
53022DOD     C3 2887  20.342   6.520  20.412 -0.1768  0.1331 -0.2297
53023DOD     C1 2888   6.003   9.736  26.449 -0.1383  0.0092 -0.1049
53023DOD     C2 2889   6.203  10.165  26.660 -0.0864  0.0423 -0.1007
53023DOD     C3 2890   6.398  10.490  26.912 -0.0003  0.1585 -0.2113
53024DOD     C1 2891  10.522   1.340  22.570  0.0689  0.0052  0.2135
53024DOD     C2 2892  10.968   1.495  22.751  0.1368  0.1211 -0.0079
53024DOD     C3 2893  11.401   1.515  22.861 -0.4103  0.0779 -0.1640
53025DOD     C1 2894   1.922  30.212  24.410  0.2319  0.1379 -0.1851
53025DOD     C2 2895   2.176  29.929  24.170 -0.1295 -0.2815 -0.1807
53025DOD     C3 2896   2.576  29.713  24.099  0.0042  0.0663  0.1699
53026DOD     C1 2897  23.658  19.932  24.281 -0.2357  0.1739  0.0986
53026DOD     C2 2898  23.938  19.617  24.531 -0.1842  0.2625  0.0784
53026DOD     C3 2899  24.306  19.322  24.496 -0.0797  0.2745 -0.1624
53027DOD     C1 2900  20.728  15.645  14.701  0.1978 -0.0336  0.0552
53027DOD     C2 2901  21.036  15.997  14.689  0.0315 -0.0792  0.2134
53027DOD     C3 2902  21.484  15.995  14.506  0.2407 -0.0643 -0.2064
53028DOD     C1 2903   0.886   3.241   6.277 -0.1196 -0.1084 -0.0859
53028DOD     C2 2904   1.225   3.190   5.944  0.1387 -0.1268  0.0238
53028DOD     C3 2905   1.615   3.093   5.832 -0.0647  0.3594 -0.0497
53029DOD     C1 2906  13.998  16.994   3.437 -0.0357 -0.0463  0.1559
53029DOD     C2 2907  13.580  17.131   3.595 -0.1506 -0.2140 -0.3133
53029DOD     C3 2908  13.204  16.938   3.661 -0.2957  0.2599 -0.0461
53030DOD     C1 2909   4.237  26.873   8.267 -0.0329 -0.1737 -0.3536
53030DOD     C2 2910   4.379  26.802   8.726 -0.1431  0.1024  0.2528
53030DOD     C3 2911   4.597  26.563   9.122  0.1706  0.2158 -0.1423
53031DOD     C1 2912  28.558  22.327   4.507  0.2225 -0.1958  0.5283
53031DOD     C2 2913  28.465  22.629   4.143  0.0209  0.1254  0.1675
53031DOD     C3 2914  28.178  22.974   3.963  0.4856 -0.2450 -0.2490
53032DOD     C1 2915  19.099  20.405  29.791  0.3219  0.2099 -0.0243
53032DOD     C2 2916  19.483  20.693  29.654 -0.0567 -0.0958  0.1352
53032DOD     C3 2917  19.834  20.512  29.338  0.1028  0.0898  0.0521
53033DOD     C1 2918  22.605  27.150  24.640 -0.1613 -0.0387 -0.2519
53033DOD     C2 2919  22.383  26.792  24.552  0.2549  0.0438  0.1384
53033DOD     C3 2920  22.260  26.332  24.451  0.2822  0.2725  0.1524
53034DOD     C1 2921   1.562  30.148  17.072 -0.0559  0.0069  0.3150
53034DOD     C2 2922   1.618   0.129  16.715  0.0781 -0.0306 -0.1538
53034DOD     C3 2923   1.730   0.549  16.788  0.0238 -0.3437  0.3356
53035DOD     C1 2924  29.977   1.245   7.613  0.2421 -0.0342 -0.0324
53035DOD     C2 2925  29.777   1.148   7.176 -0.1925 -0.0045 -0.0559
53035DOD     C3 2926  29.799   1.168   6.690  0.1293 -0.0227 -0.2291
53036DOD     C1 2927  19.200  20.046  29.481 -0.0262  0.0664 -0.0503
53036DOD     C2 2928  19.400  20.250  29.136 -0.1235  0.2945 -0.3755
53036DOD     C3 2929  19.555  20.199  28.674  0.1423  0.2064  0.0331
53037DOD     C1 2930   5.939  17.009  29.263 -0.2260 -0.2495 -0.0673
53037DOD     C2 2931   6.375  17.232  29.316  0.0816  0.1270 -0.0805
53037DOD     C3 2932   6.527  17.616  29.257  0.1212 -0.1874  0.3375
53038DOD     C1 2933   3.476   0.931  19.730  0.3019  0.1551 -0.2814
53038DOD     C2 2934   3.427   0.921  19.243 -0.0253 -0.1194  0.3249
53038DOD     C3 2935   3.308   0.687  18.832 -0.1587  0.4138 -0.0236
53039DOD     C1 2936   8.611   1.908  19.563  0.1864  0.0923  0.0955
53039DOD     C2 2937   9.061   1.761  19.559 -0.0123  0.0790 -0.1772
53039DOD     C3 2938   9.448   1.803  19.882 -0.1745  0.2637  0.3852
53040DOD     C1 2939  15.597   7.215  15.055 -0.1485 -0.2760 -0.0737
53040DOD     C2 2940  15.172   7.453  14.923 -0.0105 -0.0533 -0.3280
53040DOD     C3 2941  14.854   7.773  14.908  0.0198 -0.2434 -0.0431
53041DOD     C1 2942   3.129   0.186   6.805  0.4271 -0.2652  0.1374
53041DOD     C2 2943   2.708   0.201   6.602 -0.4941  0.0126  0.0540
53041DOD     C3 2944   2.363   0.266   6.336 -0.0065  0.2088  0.0739
53042DOD     C1 2945  25.058  23.272  10.996 -0.3042  0.4766  0.6233
53042DOD     C2 2946  24.978  23.773  11.068 -0.1980  0.1330  0.0669
53042DOD     C3 2947  24.965  24.066  11.398  0.4274  0.1274 -0.0328
53043DOD     C1 2948   5.207   7.811   2.794  0.0391  0.3839  0.1493
53043DOD     C2 2949   5.479   7.538   3.138  0.3014 -0.0934  0.2080
53043DOD     C3 2950   5.780   7.398   3.408  0.0126  0.2049  0.1538
53044DOD     C1 2951  17.058  27.651  10.272  0.1746 -0.0428  0.2118
53044DOD     C2 2952  17.293  27.614   9.955 -0.1480  0.2153 -0.2575
53044DOD     C3 2953  17.705  27.548   9.734  0.0780 -0.0597 -0.0007
53045DOD     C1 2954  27.681   9.636  11.875  0.0961  0.0225 -0.2333
53045DOD     C2 2955  28.005   9.722  11.535 -0.0258  0.0151 -0.0235
53045DOD     C3 2956  28.139   9.809  11.097  0.5285 -0.0969 -0.0537
53046DOD     C1 2957   1.510  13.046  19.347  0.0977  0.0060  0.2743
53046DOD     C2 2958   1.764  12.747  19.060  0.3050  0.1556 -0.0992
53046DOD     C3 2959   2.162  12.763  18.883  0.1097  0.1647 -0.0617
53047DOD     C1 2960   5.043   4.038   6.646  0.3924  0.0976 -0.1948
53047DOD     C2 2961   4.699   3.952   6.957 -0.0944 -0.2109 -0.1369
53047DOD     C3 2962   4.286   3.794   7.078 -0.0345  0.0734 -0.0185
53048DOD     C1 2963  20.820   9.765  12.125  0.1584  0.0762 -0.2421
53048DOD     C2 2964  20.725   9.342  12.065  0.3554  0.3677 -0.1370
53048DOD     C3 2965  20.939   8.940  11.952  0.1130 -0.0895 -0.1116
53049DOD     C1 2966  11.100   0.657   1.278 -0.2619 -0.0576 -0.1621
53049DOD     C2 2967  11.275   0.254   1.046 -0.0211 -0.1237  0.1879
53049DOD     C3 2968  11.545  30.226   1.018  0.1298  0.0567  0.2366
53050DOD     C1 2969  18.496   0.836   9.376 -0.2960  0.1738 -0.0442
53050DOD     C2 2970  18.636   1.007   9.773  0.1506 -0.1210  0.2849
53050DOD     C3 2971  18.811   1.078  10.204 -0.3441 -0.2719  0.0821
53051DOD     C1 2972  15.171   8.461  18.418  0.0671 -0.0475  0.0233
53051DOD     C2 2973  14.958   8.112  18.654  0.3586  0.0908 -0.0824
53051DOD     C3 2974  14.838   7.711  18.806  0.0946  0.0368 -0.1266
53052DOD     C1 2975   5.404  22.174  10.914 -0.0448 -0.2062  0.0702
53052DOD     C2 2976   5.467  21.985  10.486  0.1638  0.0802 -0.3554
53052DOD     C3 2977   5.366  21.742  10.074 -0.3114 -0.2644  0.0561
53053DOD     C1 2978  17.091  20.523   7.678  0.1133  0.0587 -0.0192
53053DOD     C2 2979  17.134  20.122   7.903 -0.1707  0.3004 -0.1398
53053DOD     C3 2980  17.436  19.768   7.672  0.0387 -0.0902 -0.2935
53054DOD     C1 2981   9.586  10.367   8.517 -0.0692 -0.2498  0.1890
53054DOD     C2 2982   9.745  10.155   8.941 -0.0702 -0.4390 -0.1653
53054DOD     C3 2983   9.766   9.773   9.218  0.1466 -0.1253  0.0263
53055DOD     C1 2984  19.430  24.204   3.044  0.0286  0.1077  0.1135
53055DOD     C2 2985  19.296  24.638   3.020  0.1672 -0.2145  0.0401
53055DOD     C3 2986  19.461  25.064   2.816 -0.2215  0.0392 -0.0544
53056DOD     C1 2987  12.360  17.272   8.444  0.3237  0.0223  0.4452
53056DOD     C2 2988  11.960  17.589   8.384  0.0918  0.1325 -0.0913
53056DOD     C3 2989  11.517  17.636   8.550  0.0454  0.0570 -0.1883
53057DOD     C1 2990  22.161  11.909  19.697 -0.3496  0.3297 -0.2721
53057DOD     C2 2991  22.537  11.681  19.601  0.1210 -0.2009 -0.1086
53057DOD     C3 2992  22.795  11.646  19.209 -0.2889  0.1351 -0.1528
53058DOD     C1 2993   3.949  13.393  29.385 -0.0868 -0.2001  0.0409
53058DOD     C2 2994   3.818  13.801  29.112  0.0482  0.1301 -0.0470
53058DOD     C3 2995   3.374  13.745  28.934 -0.1584  0.0066 -0.0394
53059DOD     C1 2996  10.227   0.286   1.743 -0.1411  0.2399  0.0926
53059DOD     C2 2997  10.232   0.680   1.597  0.0503 -0.0954  0.0007
53059DOD     C3 2998  10.031   1.103   1.755  0.1486  0.2964  0.1040
53060DOD     C1 2999   5.744   2.687  22.569  0.0161 -0.0942 -0.0879
53060DOD     C2 3000   6.048   2.515  22.241  0.1279 -0.3192 -0.3705
53060DOD     C3 3001   6.477   2.620  22.128 -0.4701  0.1411  0.0752
53061DOD     C1 3002  13.919  13.865  14.514  0.0795 -0.1695 -0.1749
53061DOD     C2 3003  14.298  13.669  14.715  0.1534 -0.0075  0.0423
53061DOD     C3 3004  14.732  13.708  14.964 -0.0541 -0.0079 -0.2021
53062DOD     C1 3005  24.962  14.977   4.255 -0.1648  0.2016  0.0594
53062DOD     C2 3006  25.375  14.784   4.010  0.1630 -0.1432 -0.1025
53062DOD     C3 3007  25.698  14.418   4.113 -0.0322  0.0734  0.0164
53063DOD     C1 3008  10.079  11.311  28.812 -0.0991  0.0786 -0.1200
53063DOD     C2 3009   9.918  10.872  28.654 -0.0435 -0.0364 -0.2680
53063DOD     C3 3010  10.004  10.490  28.408  0.1174  0.2228 -0.0920
53064DOD     C1 3011   3.784  23.476  14.654 -0.0503  0.0004 -0.2497
53064DOD     C2 3012   3.710  23.708  14.263  0.0985 -0.0590  0.2561
53064DOD     C3 3013   3.863  24.080  13.956  0.1615  0.2849  0.0115
53065DOD     C1 3014  29.603   2.754   3.569 -0.1759 -0.2892  0.1011
53065DOD     C2 3015  29.616   2.353   3.615  0.0247 -0.0745 -0.0869
53065DOD     C3 3016  29.401   1.960   3.610 -0.0857  0.1584  0.2300
53066DOD     C1 3017  24.666  19.142   6.564 -0.3207 -0.2749 -0.0311
53066DOD     C2 3018  24.397  18.838   6.755 -0.3581  0.1372  0.0749
53066DOD     C3 3019  24.096  18.485   6.760  0.1037 -0.0199 -0.0237
53067DOD     C1 3020  17.430  -0.062  16.513 -0.2082 -0.5529 -0.1942
53067DOD     C2 3021  17.096  29.961  16.292 -0.1171 -0.0930  0.2665
53067DOD     C3 3022  16.896  29.584  16.221  0.1568  0.1685 -0.0796
53068DOD     C1 3023  15.583  15.320  20.100 -0.1470  0.2264  0.2723
53068DOD     C2 3024  15.524  15.704  19.912 -0.0488  0.0317  0.2124
53068DOD     C3 3025  15.566  16.122  19.763 -0.0003 -0.1473  0.0633
53069DOD     C1 3026  27.083  18.356  17.618  0.0742  0.5462 -0.0575
53069DOD     C2 3027  27.380  18.348  18.004  0.2078 -0.1644  0.1359
53069DOD     C3 3028  27.423  18.651  18.425 -0.0370 -0.2660  0.2987
53070DOD     C1 3029  29.813   0.537  12.362  0.2445 -0.2342  0.0326
53070DOD     C2 3030  30.045   0.592  12.800 -0.2005 -0.2561  0.0512
53070DOD     C3 3031  30.112   0.990  13.022  0.0821  0.3404 -0.1086
53071DOD     C1 3032  25.453  13.044   3.399  0.0763  0.0742  0.1651
53071DOD     C2 3033  25.821  13.186   3.533  0.0182  0.0111 -0.0429
53071DOD     C3 3034  26.168  13.323   3.870  0.2268 -0.2089 -0.0982
53072DOD     C1 3035  24.920  27.866   1.063 -0.1855  0.0959 -0.1291
53072DOD     C2 3036  25.059  28.323   1.141  0.1718  0.0721  0.0882
53072DOD     C3 3037  25.315  28.431   1.566 -0.0555 -0.3038  0.1614
53073DOD     C1 3038  19.622   5.945  10.162 -0.0932  0.2859  0.2365
53073DOD     C2 3039  19.915   5.850   9.806  0.0096  0.0136  0.2015
53073DOD     C3 3040  20.193   5.893   9.424  0.0958 -0.2035  0.0303
53074DOD     C1 3041  26.491  21.602  10.234 -0.2234 -0.2433 -0.0103
53074DOD     C2 3042  26.161  21.474  10.486 -0.0118 -0.2312  0.0101
53074DOD     C3 3043  26.008  21.725  10.881  0.2207  0.0362 -0.0766
53075DOD     C1 3044   3.039  23.322  22.514  0.0911  0.3532  0.0827
53075DOD     C2 3045   3.172  23.710  22.698 -0.2328 -0.1620 -0.0688
53075DOD     C3 3046   3.176  24.136  22.609 -0.0110  0.2178 -0.0473
53076DOD     C1 3047  22.187  28.607   1.445  0.1601  0.0603  0.1616
53076DOD     C2 3048  22.187  29.072   1.245  0.1326  0.3790  0.2107
53076DOD     C3 3049  22.479  29.438   1.184  0.2956 -0.1328 -0.2875
53077DOD     C1 3050   6.248   8.185  17.959  0.0237 -0.0876 -0.0718
53077DOD     C2 3051   5.994   8.495  17.687 -0.0479 -0.0589  0.1771
53077DOD     C3 3052   5.713   8.864  17.801 -0.4601  0.1980 -0.2145
53078DOD     C1 3053   2.739  13.377   0.549  0.2736  0.1161  0.1711
53078DOD     C2 3054   3.174  13.374   0.476 -0.1718 -0.1944  0.0362
53078DOD     C3 3055   3.519  13.177   0.194 -0.1005  0.2053 -0.5112
53079DOD     C1 3056  16.158  22.624  13.871 -0.2327  0.0902  0.0082
53079DOD     C2 3057  16.111  22.653  13.375 -0.0655  0.1776  0.1110
53079DOD     C3 3058  15.792  22.900  13.135 -0.2277  0.0211 -0.1259
53080DOD     C1 3059   3.210  13.606  14.470  0.0629  0.0094  0.3406
53080DOD     C2 3060   3.511  13.379  14.648  0.1749  0.0827  0.0399
53080DOD     C3 3061   3.954  13.260  14.610 -0.0955 -0.0773 -0.1256
53081DOD     C1 3062   0.327  15.838   4.929  0.2321  0.1309  0.1710
53081DOD     C2 3063   0.113  16.156   5.248  0.0121 -0.0712 -0.0796
53081DOD     C3 3064  30.084  16.093   5.491 -0.3078  0.0783  0.1053
53082DOD     C1 3065  11.066   6.346  19.143  0.0305  0.0286 -0.1591
53082DOD     C2 3066  11.307   6.562  18.809  0.1431  0.0955 -0.3121
53082DOD     C3 3067  11.367   6.977  18.620 -0.1836 -0.0735  0.2185
53083DOD     C1 3068   6.771   9.476   4.868 -0.2384  0.2392  0.1340
53083DOD     C2 3069   6.689   9.045   4.675  0.0342  0.3451  0.1287
53083DOD     C3 3070   6.980   8.784   4.432  0.0060 -0.2597 -0.1268
53084DOD     C1 3071   4.489  13.532   7.755  0.0640 -0.2061  0.0756
53084DOD     C2 3072   4.853  13.445   7.432  0.3287  0.0399  0.2493
53084DOD     C3 3073   5.151  13.243   7.156 -0.0859  0.1331  0.0554
53085DOD     C1 3074  14.650  19.007  29.346  0.0082  0.1697  0.1176
53085DOD     C2 3075  14.642  18.658  28.929  0.0951 -0.0337 -0.1081
53085DOD     C3 3076  14.884  18.442  28.593  0.0544 -0.0689 -0.2269
53086DOD     C1 3077  20.122  14.742   7.997 -0.0134  0.0897 -0.1217
53086DOD     C2 3078  20.397  14.996   8.249  0.0739 -0.2747  0.2052
53086DOD     C3 3079  20.265  15.301   8.506 -0.0633  0.1630  0.0863
53087DOD     C1 3080  17.256  29.333  22.548  0.1096 -0.0082  0.0408
53087DOD     C2 3081  17.430  29.751  22.617 -0.1829  0.2673  0.1397
53087DOD     C3 3082  17.120  30.009  22.921 -0.2573  0.1292  0.0279
53088DOD     C1 3083   9.010  18.937   9.928 -0.0166  0.2415  0.0617
53088DOD     C2 3084   9.047  18.870   9.539 -0.1958 -0.0085  0.2040
53088DOD     C3 3085   8.928  19.214   9.280  0.0539  0.0058  0.0136
53089DOD     C1 3086  10.611  16.680   7.599  0.0156 -0.1654  0.3296
53089DOD     C2 3087  10.273  16.925   7.424  0.0859 -0.2094 -0.1104
53089DOD     C3 3088  10.238  17.391   7.414  0.0196  0.3660 -0.1561
53090DOD     C1 3089   7.292  13.109   3.510 -0.0979  0.0921 -0.0338
53090DOD     C2 3090   7.392  13.083   3.041 -0.4569  0.0558 -0.0587
53090DOD     C3 3091   7.196  12.884   2.633  0.1661  0.5003  0.4855
53091DOD     C1 3092   0.823  13.082  16.297 -0.0656 -0.3492  0.0360
53091DOD     C2 3093   1.119  13.233  16.691  0.0694  0.2195 -0.1221
53091DOD     C3 3094   1.207  13.390  17.148  0.0059  0.0978  0.1890
53092DOD     C1 3095   4.637  21.933  16.808  0.1195 -0.1282 -0.0826
53092DOD     C2 3096   4.537  21.511  16.691  0.0925  0.1396 -0.1432
53092DOD     C3 3097   4.280  21.249  16.385 -0.0838  0.2313  0.0045
53093DOD     C1 3098  26.483  17.603  17.742  0.1470 -0.0825  0.2225
53093DOD     C2 3099  26.738  17.971  17.643  0.1643  0.0690  0.1540
53093DOD     C3 3100  26.653  18.437  17.431  0.2017  0.0182  0.1301
53094DOD     C1 3101  26.044   0.316  25.107 -0.0261 -0.0114 -0.1390
53094DOD     C2 3102  25.579   0.319  25.194 -0.2341 -0.0197 -0.0522
53094DOD     C3 3103  25.133   0.206  25.305  0.1481  0.1972  0.1032
53095DOD     C1 3104   2.251   4.471   7.433  0.0876  0.1076  0.0697
53095DOD     C2 3105   2.381   4.553   7.011 -0.1414  0.2586 -0.1545
53095DOD     C3 3106   2.747   4.564   6.718  0.0509  0.0550  0.3340
53096DOD     C1 3107  15.907  21.636  11.236 -0.0667 -0.0589  0.0046
53096DOD     C2 3108  16.159  21.243  11.301  0.2408  0.0879 -0.0195
53096DOD     C3 3109  16.239  20.777  11.180 -0.1051  0.1094 -0.0781
53097DOD     C1 3110  10.385   6.911   3.548 -0.2416 -0.1420 -0.1040
53097DOD     C2 3111  10.829   6.987   3.780  0.2297  0.1721 -0.0077
53097DOD     C3 3112  11.275   6.747   3.817  0.0179 -0.0610 -0.0081
53098DOD     C1 3113  29.679  27.785  20.049 -0.1124 -0.0025 -0.1095
53098DOD     C2 3114  29.914  27.406  20.156  0.3016 -0.0582  0.2203
53098DOD     C3 3115  29.847  26.962  20.181 -0.0354  0.2514  0.2319
53099DOD     C1 3116  11.475  23.213  27.366  0.0114 -0.0330  0.1900
53099DOD     C2 3117  11.345  22.782  27.222  0.2985 -0.1362  0.0554
53099DOD     C3 3118  11.214  22.504  26.822  0.2119  0.1536  0.1091
53100DOD     C1 3119  15.656   4.763  23.863 -0.1671  0.0172  0.1434
53100DOD     C2 3120  15.516   5.066  24.199  0.4913  0.2194 -0.2160
53100DOD     C3 3121  15.448   5.061  24.668  0.0155  0.1213  0.1501
53101DOD     C1 3122  23.859  14.118   0.027 -0.3011  0.3036  0.1734
53101DOD     C2 3123  24.161  14.395   0.299  0.0955 -0.2625  0.2481
53101DOD     C3 3124  24.446  14.726   0.536 -0.0009  0.2426 -0.0929
53102DOD     C1 3125  13.234  29.644  13.114  0.1540  0.0469 -0.2423
53102DOD     C2 3126  12.971  29.699  13.513 -0.1118  0.0629 -0.1492
53102DOD     C3 3127  12.851  29.811  13.998 -0.0953 -0.1560  0.1795
53103DOD     C1 3128   9.581   1.619   0.551 -0.1556  0.1002  0.1107
53103DOD     C2 3129   9.410   1.677   0.973  0.0765  0.0836  0.2043
53103DOD     C3 3130   9.289   1.351   1.267 -0.0952  0.2437  0.0531
53104DOD     C1 3131   2.825  18.375  13.363 -0.0274  0.1805  0.2133
53104DOD     C2 3132   2.735  18.269  13.864 -0.1546 -0.2216  0.0978
53104DOD     C3 3133   2.707  17.970  14.203 -0.0329 -0.0662 -0.0570
53105DOD     C1 3134  27.887   7.085   9.360 -0.2228 -0.1011 -0.3914
53105DOD     C2 3135  27.425   7.214   9.403 -0.1007  0.1407  0.1292
53105DOD     C3 3136  27.019   7.172   9.575 -0.2328 -0.0814  0.2559
53106DOD     C1 3137  27.566   9.318  11.445 -0.0169 -0.0449  0.2222
53106DOD     C2 3138  27.682   9.509  11.071 -0.1003  0.0700  0.0634
53106DOD     C3 3139  27.772   9.753  10.697 -0.1618 -0.0140  0.2582
53107DOD     C1 3140  19.728  11.033  12.743 -0.1700  0.1263 -0.0937
53107DOD     C2 3141  19.643  11.447  12.483 -0.2935  0.0295  0.0167
53107DOD     C3 3142  19.620  11.905  12.330  0.3031  0.1860  0.0760
53108DOD     C1 3143  18.191  28.208  13.151  0.1157 -0.0301 -0.3339
53108DOD     C2 3144  18.214  27.727  13.166 -0.0688  0.3207  0.0468
53108DOD     C3 3145  18.183  27.296  13.036 -0.0925  0.0438 -0.1686
53109DOD     C1 3146  14.674   8.770  19.387  0.1044  0.2310 -0.1348
53109DOD     C2 3147  15.074   8.741  19.648 -0.1236 -0.0590 -0.2305
53109DOD     C3 3148  15.327   8.905  20.016 -0.0204  0.2862  0.2608
53110DOD     C1 3149  15.319  29.154  16.119 -0.3297 -0.2156  0.0120
53110DOD     C2 3150  14.900  29.410  16.053 -0.0155 -0.4268  0.0888
53110DOD     C3 3151  14.582  29.691  16.294  0.0666 -0.3845 -0.1232
53111DOD     C1 3152   0.731   3.741  26.154 -0.0589  0.0384  0.3057
53111DOD     C2 3153   1.111   3.409  26.076 -0.4794  0.1706  0.0123
53111DOD     C3 3154   1.537   3.357  25.913 -0.1287  0.1449  0.0066
53112DOD     C1 3155  25.235   5.193  22.875 -0.2202  0.3932 -0.0867
53112DOD     C2 3156  25.022   5.172  23.278 -0.0810 -0.0871  0.0100
53112DOD     C3 3157  24.963   4.895  23.676 -0.0086 -0.0754 -0.1394
53113DOD     C1 3158  11.779   7.342  28.108 -0.1291 -0.0600 -0.0865
53113DOD     C2 3159  11.956   7.739  27.988  0.0923 -0.1983  0.1385
53113DOD     C3 3160  12.044   8.240  28.057 -0.1602  0.1128 -0.1652
53114DOD     C1 3161  19.156   5.358  11.559  0.2532 -0.1492  0.0810
53114DOD     C2 3162  18.697   5.463  11.544 -0.0497 -0.2721 -0.1301
53114DOD     C3 3163  18.282   5.567  11.428 -0.2344 -0.0443  0.0738
53115DOD     C1 3164  25.383  25.515  17.220 -0.1294  0.2522 -0.4793
53115DOD     C2 3165  25.137  25.262  17.539  0.2344 -0.2555 -0.5594
53115DOD     C3 3166  24.972  24.834  17.715  0.0041 -0.2883 -0.0150
53116DOD     C1 3167  27.612  29.413   8.256 -0.1644 -0.3200 -0.1151
53116DOD     C2 3168  27.745  29.847   8.079  0.0850 -0.0835 -0.0826
53116DOD     C3 3169  28.052  29.896   7.713 -0.0197  0.3768 -0.3145
53117DOD     C1 3170  11.511  10.158  25.260 -0.1108  0.3689  0.1371
53117DOD     C2 3171  11.645  10.446  25.547  0.1214  0.1487 -0.0047
53117DOD     C3 3172  11.795  10.612  25.975 -0.1107  0.1933 -0.0611
53118DOD     C1 3173  19.284  23.325   6.967 -0.2979  0.1221  0.2763
53118DOD     C2 3174  19.304  23.141   6.547  0.0064 -0.1628  0.0339
53118DOD     C3 3175  19.482  23.207   6.086 -0.0535  0.0765  0.0398
53119DOD     C1 3176  24.791  10.912  15.723  0.1421 -0.2050  0.2918
53119DOD     C2 3177  24.915  10.753  16.119  0.1915  0.2253 -0.0463
53119DOD     C3 3178  24.649  10.671  16.530 -0.0198 -0.0165 -0.0301
53120DOD     C1 3179  25.271   8.161   9.619  0.0369  0.1021  0.0318
53120DOD     C2 3180  25.696   8.153   9.787 -0.1344 -0.0792 -0.0500
53120DOD     C3 3181  26.171   8.118   9.962 -0.1117 -0.1496 -0.1774
53121DOD     C1 3182  16.430   0.627  26.718 -0.3336 -0.1102  0.1843
53121DOD     C2 3183  16.266   0.259  26.429 -0.1589 -0.1983  0.2753
53121DOD     C3 3184  16.169  30.230  26.096  0.2323  0.1646  0.0747
53122DOD     C1 3185   9.183  12.937  17.777  0.2089  0.2232 -0.0874
53122DOD     C2 3186   9.219  13.360  17.674  0.1947  0.1035 -0.0935
53122DOD     C3 3187   9.290  13.654  17.306 -0.0129  0.1379 -0.2020
53123DOD     C1 3188  22.554   2.467  20.435 -0.1103 -0.1644  0.2208
53123DOD     C2 3189  22.568   2.551  19.956 -0.0898  0.2170  0.0156
53123DOD     C3 3190  22.591   2.412  19.466 -0.0959  0.0151 -0.0390
53124DOD     C1 3191  20.909  20.909  19.696  0.0125  0.2245  0.2319
53124DOD     C2 3192  20.953  20.736  19.266  0.1394 -0.1938  0.3704
53124DOD     C3 3193  20.774  20.335  19.132  0.1307 -0.1321  0.0843
53125DOD     C1 3194  23.288  20.695  11.745 -0.1240 -0.2178 -0.1226
53125DOD     C2 3195  23.602  20.579  12.099 -0.1618  0.0585 -0.1377
53125DOD     C3 3196  23.861  20.401  12.416  0.0360  0.0170  0.0185
53126DOD     C1 3197  29.503   2.389  28.123 -0.1305  0.3298  0.1859
53126DOD     C2 3198  29.425   2.738  27.864  0.0039 -0.4564 -0.0654
53126DOD     C3 3199  29.344   2.932  27.499 -0.2097  0.0330 -0.2562
53127DOD     C1 3200  13.898  12.677  22.302  0.0127 -0.1948 -0.0921
53127DOD     C2 3201  13.760  12.766  21.819 -0.1142 -0.0544  0.0322
53127DOD     C3 3202  13.841  12.996  21.456 -0.2182 -0.0863  0.1316
53128DOD     C1 3203  26.453   4.862  26.676  0.0729  0.2583 -0.0088
53128DOD     C2 3204  26.147   4.734  27.012 -0.2989  0.0726 -0.1350
53128DOD     C3 3205  26.065   4.416  27.320  0.2049 -0.1384  0.1250
53129DOD     C1 3206   6.207  17.245   6.449 -0.2897  0.3567  0.0671
53129DOD     C2 3207   6.331  17.634   6.650 -0.1058 -0.1721  0.2010
53129DOD     C3 3208   6.263  18.068   6.571  0.0500 -0.0031  0.0343
53130DOD     C1 3209  16.068  20.989  14.905  0.0802  0.1323  0.3687
53130DOD     C2 3210  16.148  20.516  14.920  0.1162 -0.0077 -0.0168
53130DOD     C3 3211  16.311  20.106  14.806 -0.0068  0.1426  0.0266
53131DOD     C1 3212   8.719   8.150  19.923  0.2344 -0.1819 -0.2727
53131DOD     C2 3213   8.705   7.687  19.976 -0.0542  0.1515 -0.0073
53131DOD     C3 3214   8.600   7.261  20.127 -0.1951  0.2986 -0.1123
53132DOD     C1 3215   8.657  28.639  18.284  0.2014 -0.2087  0.2862
53132DOD     C2 3216   8.245  28.876  18.315 -0.2612  0.0850  0.1012
53132DOD     C3 3217   8.003  28.849  18.714 -0.1532 -0.0140  0.1381
53133DOD     C1 3218   8.473   2.312  21.916 -0.1412  0.0647 -0.2019
53133DOD     C2 3219   8.246   1.946  21.983  0.0120  0.3629 -0.0282
53133DOD     C3 3220   8.261   1.522  22.163 -0.2264 -0.1613 -0.0035
53134DOD     C1 3221  20.082   5.089  14.366  0.2183 -0.1726  0.1402
53134DOD     C2 3222  19.651   5.294  14.321 -0.0904  0.0838  0.1534
53134DOD     C3 3223  19.380   5.590  14.596  0.0104 -0.1423 -0.0360
53135DOD     C1 3224  19.836   0.930   7.622  0.3723  0.1556  0.1654
53135DOD     C2 3225  20.113   0.561   7.342  0.1356  0.0815  0.2810
53135DOD     C3 3226  20.245   0.156   7.260 -0.4250 -0.3764 -0.0849
53136DOD     C1 3227  12.535  21.067  17.722  0.2694  0.1843 -0.1504
53136DOD     C2 3228  12.594  21.331  17.370  0.4353 -0.1753 -0.0627
53136DOD     C3 3229  12.994  21.508  17.204 -0.0198 -0.0558  0.3646
53137DOD     C1 3230  22.725   1.904  29.448 -0.1239  0.1602  0.0485
53137DOD     C2 3231  23.215   2.002  29.442  0.1886  0.3698  0.1702
53137DOD     C3 3232  23.632   1.963  29.281 -0.0057  0.0372 -0.0455
53138DOD     C1 3233  10.140   3.160   1.782 -0.5605  0.0113 -0.1750
53138DOD     C2 3234  10.127   3.259   1.346  0.2449  0.1908  0.1133
53138DOD     C3 3235   9.900   3.241   0.957  0.1183  0.0739 -0.1751
53139DOD     C1 3236   6.979  22.632   6.049 -0.0930 -0.2992  0.0514
53139DOD     C2 3237   6.921  22.738   5.630 -0.1612  0.0902 -0.0943
53139DOD     C3 3238   6.985  22.738   5.140  0.2217  0.0315 -0.1735
53140DOD     C1 3239  21.993   3.268   5.469  0.0392  0.0059 -0.2042
53140DOD     C2 3240  21.954   3.765   5.400 -0.1920  0.2150  0.0054
53140DOD     C3 3241  22.254   4.119   5.159 -0.0846 -0.1190  0.1204
53141DOD     C1 3242   6.979   4.075  25.031 -0.1199  0.2618  0.0578
53141DOD     C2 3243   6.975   4.225  25.436  0.2453 -0.3919 -0.0300
53141DOD     C3 3244   7.121   4.245  25.895  0.2664  0.0864 -0.3204
53142DOD     C1 3245   4.992  12.002  15.893 -0.2325 -0.1618  0.0406
53142DOD     C2 3246   5.354  12.199  16.131 -0.0100  0.0439  0.1189
53142DOD     C3 3247   5.455  12.659  16.294  0.0640 -0.0285 -0.0672
53143DOD     C1 3248  19.320  24.650  17.277  0.0862 -0.2177 -0.2285
53143DOD     C2 3249  19.564  24.405  17.600 -0.0191 -0.0733 -0.0040
53143DOD     C3 3250  19.462  24.036  17.902 -0.0717 -0.1054 -0.1960
53144DOD     C1 3251  28.803  24.883  24.044 -0.1563  0.2290 -0.1267
53144DOD     C2 3252  28.600  24.456  23.977 -0.1162 -0.1610  0.0572
53144DOD     C3 3253  28.384  24.202  24.313  0.0926  0.1122  0.2387
53145DOD     C1 3254   2.662  18.030   7.370 -0.1358  0.3251  0.2799
53145DOD     C2 3255   3.024  17.974   7.068  0.1620  0.1021 -0.1075
53145DOD     C3 3256   3.405  17.855   6.961  0.1129  0.0649 -0.1411
53146DOD     C1 3257   8.825  11.415  14.652  0.1736 -0.0872 -0.0054
53146DOD     C2 3258   8.611  11.717  14.994  0.0854 -0.0631 -0.0141
53146DOD     C3 3259   8.351  11.879  15.349 -0.1917 -0.0722 -0.0216
53147DOD     C1 3260  16.745  17.598  15.521 -0.2599 -0.0589 -0.2324
53147DOD     C2 3261  16.896  17.756  15.136  0.1852 -0.1702 -0.0853
53147DOD     C3 3262  17.137  18.099  14.888 -0.0343 -0.1155  0.0421
53148DOD     C1 3263  20.278  13.637  26.814 -0.0266 -0.1798 -0.1943
53148DOD     C2 3264  20.330  13.292  27.140  0.0102  0.0043 -0.2884
53148DOD     C3 3265  20.102  12.951  27.354 -0.1109  0.2933  0.1704
53149DOD     C1 3266  14.214  17.206   2.407  0.1795 -0.0489  0.0575
53149DOD     C2 3267  14.457  17.375   1.990  0.0044 -0.1443 -0.0256
53149DOD     C3 3268  14.301  17.678   1.674  0.1053  0.0618 -0.0699
53150DOD     C1 3269  15.009  17.846  24.131  0.0421 -0.1017 -0.1063
53150DOD     C2 3270  15.172  18.090  24.470  0.1351  0.1889  0.2093
53150DOD     C3 3271  15.407  18.085  24.877 -0.1402 -0.1107  0.2008
53151DOD     C1 3272  16.460   9.414  27.525 -0.0274  0.5087  0.0665
53151DOD     C2 3273  16.748   9.236  27.164 -0.2846 -0.1127  0.1918
53151DOD     C3 3274  16.987   9.090  26.820 -0.1155 -0.3174 -0.1016
53152DOD     C1 3275  23.546  11.004  26.635 -0.2625 -0.0590 -0.1517
53152DOD     C2 3276  23.572  10.950  27.081 -0.2225 -0.0458 -0.1378
53152DOD     C3 3277  23.598  10.651  27.438 -0.0160  0.1868 -0.0834
53153DOD     C1 3278  14.312  11.471   8.089 -0.0591 -0.0306 -0.5471
53153DOD     C2 3279  14.157  11.597   8.466  0.0671  0.0444 -0.2946
53153DOD     C3 3280  14.108  11.560   8.934 -0.0831 -0.1135 -0.1773
53154DOD     C1 3281  10.759   3.629  20.867  0.0879  0.0909 -0.1179
53154DOD     C2 3282  10.773   4.023  20.589 -0.1581  0.0479 -0.2590
53154DOD     C3 3283  10.997   4.258  20.240 -0.2470 -0.0924  0.2948
53155DOD     C1 3284   2.470  21.007  25.715 -0.1885 -0.1150 -0.1759
53155DOD     C2 3285   2.086  20.741  25.639 -0.1603 -0.1203  0.2236
53155DOD     C3 3286   1.729  21.043  25.657 -0.4106 -0.3506  0.0303
53156DOD     C1 3287   4.393  15.573   5.422  0.1277 -0.3826  0.3960
53156DOD     C2 3288   4.409  15.644   5.874 -0.0903 -0.0770  0.0842
53156DOD     C3 3289   4.498  16.070   6.018  0.0482 -0.0576 -0.0231
53157DOD     C1 3290   7.473  18.944   1.390  0.0645 -0.0529 -0.0691
53157DOD     C2 3291   7.589  19.357   1.273 -0.0006 -0.1124 -0.0411
53157DOD     C3 3292   7.627  19.793   1.377 -0.1505 -0.1887  0.1395
53158DOD     C1 3293  23.867  10.086  21.149 -0.0155  0.2069 -0.3521
53158DOD     C2 3294  23.583   9.971  21.601 -0.0743 -0.0545 -0.2501
53158DOD     C3 3295  23.838   9.796  21.948  0.1491  0.1312 -0.1510
53159DOD     C1 3296  25.534  18.158  24.716 -0.1724  0.1240  0.1812
53159DOD     C2 3297  25.281  17.803  24.548  0.3554  0.1868  0.0466
53159DOD     C3 3298  24.948  17.541  24.423  0.0636  0.0055 -0.1240
53160DOD     C1 3299   9.276   0.599  15.579  0.2475 -0.1159  0.2849
53160DOD     C2 3300   9.527   0.952  15.607 -0.0900 -0.0377 -0.1104
53160DOD     C3 3301   9.529   1.444  15.685  0.2799  0.0799 -0.1926
53161DOD     C1 3302   9.644   1.731  29.273  0.1666 -0.0666 -0.2217
53161DOD     C2 3303  10.079   1.691  29.132  0.1796  0.0848 -0.1506
53161DOD     C3 3304  10.374   1.395  29.235  0.3271 -0.0774 -0.0101
53162DOD     C1 3305  21.341  13.606   9.776  0.1967 -0.1084  0.0739
53162DOD     C2 3306  21.686  13.329   9.699 -0.0499 -0.1392 -0.2717
53162DOD     C3 3307  22.137  13.351   9.609  0.0783 -0.2049 -0.1096
53163DOD     C1 3308  20.755  10.258  13.530  0.1453  0.0200  0.3213
53163DOD     C2 3309  20.302  10.067  13.530 -0.3688 -0.1875 -0.2645
53163DOD     C3 3310  20.172   9.840  13.170  0.3809 -0.1321  0.0740
53164DOD     C1 3311  25.905   0.874  27.493 -0.1384 -0.0926 -0.0405
53164DOD     C2 3312  25.768   0.666  27.087  0.0681  0.2217  0.0076
53164DOD     C3 3313  25.523   0.380  26.793  0.0863  0.0139 -0.2114
53165DOD     C1 3314  11.626   3.597  14.847  0.1179 -0.0229 -0.2131
53165DOD     C2 3315  11.682   3.479  14.390  0.1382  0.1594 -0.0172
53165DOD     C3 3316  11.977   3.516  14.046 -0.4534 -0.0125 -0.0376
53166DOD     C1 3317  16.660  14.028  10.317 -0.2048  0.1939 -0.2537
53166DOD     C2 3318  16.590  14.301   9.975  0.1110 -0.0659 -0.0445
53166DOD     C3 3319  16.640  14.332   9.525 -0.2921  0.2668  0.0788
53167DOD     C1 3320  16.283   1.455  19.500  0.0450  0.1195 -0.1380
53167DOD     C2 3321  16.475   1.045  19.475 -0.0320 -0.2185 -0.3822
53167DOD     C3 3322  16.402   0.734  19.101  0.1235  0.1932  0.0400
53168DOD     C1 3323   1.347  29.810   8.631 -0.0753 -0.0087  0.0968
53168DOD     C2 3324   1.161  29.384   8.821 -0.0407 -0.0595  0.0896
53168DOD     C3 3325   0.701  29.235   8.895 -0.0783 -0.0426  0.0122
53169DOD     C1 3326  27.951  17.059   5.710  0.0975  0.0346  0.1946
53169DOD     C2 3327  28.021  16.902   6.103 -0.0920 -0.1538  0.0074
53169DOD     C3 3328  28.076  16.824   6.601  0.0232 -0.0198 -0.0197
53170DOD     C1 3329  19.666  29.047  23.439 -0.0933 -0.0827 -0.1130
53170DOD     C2 3330  19.660  28.910  23.034  0.0416 -0.1933  0.0578
53170DOD     C3 3331  19.627  28.955  22.531  0.2000 -0.2265 -0.0771
53171DOD     C1 3332  26.726  15.409  21.568  0.2060 -0.1612  0.0321
53171DOD     C2 3333  26.362  15.176  21.532  0.0527  0.3465  0.1240
53171DOD     C3 3334  26.084  14.820  21.528  0.1611 -0.1490  0.5117
53172DOD     C1 3335  21.701  13.068  25.079  0.4400  0.1810 -0.1438
53172DOD     C2 3336  21.260  13.092  25.245 -0.0053  0.0269 -0.3320
53172DOD     C3 3337  20.916  13.064  25.534 -0.2691  0.0945 -0.0501
53173DOD     C1 3338   5.986  13.970   0.449 -0.1466 -0.0906  0.0371
53173DOD     C2 3339   6.227  14.320   0.660  0.0750  0.0822  0.0931
53173DOD     C3 3340   6.363  14.679   0.820 -0.0843 -0.1440  0.0505
53174DOD     C1 3341   9.725  17.517  22.318 -0.0890 -0.0959 -0.2423
53174DOD     C2 3342  10.105  17.317  22.155 -0.2035  0.4198 -0.1430
53174DOD     C3 3343  10.339  17.531  21.796 -0.0041  0.0801  0.1459
53175DOD     C1 3344  22.787  16.703  21.504 -0.2545  0.0201  0.4825
53175DOD     C2 3345  22.503  16.826  21.819 -0.1202  0.2624 -0.2425
53175DOD     C3 3346  22.403  17.240  21.960  0.0971 -0.1734  0.0844
53176DOD     C1 3347  26.969  15.731  14.832 -0.2133  0.4091  0.2128
53176DOD     C2 3348  27.456  15.673  14.970 -0.0166 -0.3509 -0.3336
53176DOD     C3 3349  27.868  15.846  14.882 -0.0207 -0.0768 -0.1450
53177DOD     C1 3350  14.374  12.529   4.072  0.3467 -0.1333 -0.2925
53177DOD     C2 3351  14.285  12.650   3.659  0.0275  0.0756  0.0297
53177DOD     C3 3352  14.147  12.453   3.280 -0.5326  0.0775 -0.0337
53178DOD     C1 3353  15.079  10.834   4.289  0.1238 -0.0567 -0.0066
53178DOD     C2 3354  15.440  11.097   4.505 -0.2008 -0.0656  0.3300
53178DOD     C3 3355  15.471  11.318   4.861 -0.3463 -0.0003  0.1417
53179DOD     C1 3356   2.460  13.697   9.718  0.2327 -0.0904 -0.1648
53179DOD     C2 3357   2.165  13.542   9.452 -0.0792  0.0484 -0.2199
53179DOD     C3 3358   1.980  13.512   9.023 -0.1322  0.2284 -0.1120
53180DOD     C1 3359  19.173   1.161   9.892  0.0966 -0.2965  0.0843
53180DOD     C2 3360  19.272   1.295  10.294 -0.2170  0.0371 -0.1535
53180DOD     C3 3361  18.992   1.338  10.680 -0.0623 -0.1803  0.1562
53181DOD     C1 3362   2.786  23.533   6.555  0.0857  0.0189 -0.1399
53181DOD     C2 3363   2.997  23.409   6.974 -0.0766 -0.0762 -0.2281
53181DOD     C3 3364   3.094  23.330   7.403  0.3224  0.1026 -0.4124
53182DOD     C1 3365  21.200   4.467  16.954  0.0567 -0.0306  0.0639
53182DOD     C2 3366  21.617   4.289  16.751 -0.0388  0.2467  0.1331
53182DOD     C3 3367  21.674   3.989  16.399 -0.0948  0.0257 -0.0398
53183DOD     C1 3368  28.822   5.705  19.084 -0.0287 -0.0609  0.1958
53183DOD     C2 3369  29.235   5.653  18.854 -0.3292  0.0520 -0.0071
53183DOD     C3 3370  29.473   5.258  18.695 -0.0430  0.1009  0.0306
53184DOD     C1 3371  11.513  26.575   5.182  0.0669  0.0116 -0.2769
53184DOD     C2 3372  11.870  26.869   4.951  0.2593  0.2742 -0.0317
53184DOD     C3 3373  12.084  27.218   5.087  0.0117 -0.1059 -0.2111
53185DOD     C1 3374  16.240   1.638  10.788 -0.0897 -0.1043 -0.0821
53185DOD     C2 3375  16.385   1.407  10.401 -0.3123 -0.0061 -0.0524
53185DOD     C3 3376  16.491   1.214  10.016  0.2323  0.0976 -0.1067
53186DOD     C1 3377  27.677  27.542  22.622 -0.0958  0.2132 -0.0301
53186DOD     C2 3378  27.339  27.885  22.626  0.1179 -0.0943  0.2339
53186DOD     C3 3379  26.886  28.095  22.732  0.1228 -0.0990 -0.2670
53187DOD     C1 3380  15.296  23.046  29.734 -0.2839  0.1506 -0.0172
53187DOD     C2 3381  15.078  23.464  29.624 -0.1697  0.1475  0.2355
53187DOD     C3 3382  14.668  23.670  29.713 -0.0977 -0.2893  0.0683
53188DOD     C1 3383  29.740  20.120  15.420  0.3851 -0.1742  0.0308
53188DOD     C2 3384  29.670  19.837  15.776  0.0285 -0.2159  0.0829
53188DOD     C3 3385  29.666  19.427  16.033 -0.1175  0.0115 -0.2149
53189DOD     C1 3386  25.915   0.720  20.695 -0.0995  0.1236 -0.1507
53189DOD     C2 3387  26.052   1.022  21.002  0.0096 -0.1388  0.1122
53189DOD     C3 3388  26.335   1.267  21.274 -0.2154  0.2344  0.5854
53190DOD     C1 3389   4.726   8.881  12.537  0.0158  0.1215  0.2228
53190DOD     C2 3390   5.096   9.154  12.355 -0.0522 -0.3189  0.0499
53190DOD     C3 3391   5.575   9.249  12.334 -0.0845  0.1761  0.3110
53191DOD     C1 3392   8.321  11.831  19.380  0.0493  0.0889 -0.0762
53191DOD     C2 3393   8.302  11.734  19.835 -0.1709 -0.0321  0.3109
53191DOD     C3 3394   8.458  11.781  20.308 -0.2017  0.3386  0.0842
53192DOD     C1 3395   3.790  21.900  17.117 -0.0055 -0.3253  0.0973
53192DOD     C2 3396   4.145  21.822  16.841 -0.0327  0.3482 -0.0824
53192DOD     C3 3397   4.274  21.815  16.392  0.0443 -0.0153  0.1447
53193DOD     C1 3398   5.886  13.740  20.681  0.0855  0.0117 -0.0152
53193DOD     C2 3399   6.159  14.133  20.523  0.0822  0.2757 -0.0923
53193DOD     C3 3400   6.514  14.173  20.161 -0.0391 -0.0404  0.1246
53194DOD     C1 3401  29.348  30.329  29.131  0.0618  0.0248  0.2339
53194DOD     C2 3402  29.434   0.412  29.003 -0.0318 -0.1017 -0.1600
53194DOD     C3 3403  29.707   0.817  29.084  0.0589  0.2198  0.2268
53195DOD     C1 3404  19.728   6.343  29.806 -0.2510 -0.1049 -0.1351
53195DOD     C2 3405  19.571   6.452  29.384  0.0705  0.2077  0.0188
53195DOD     C3 3406  19.250   6.745  29.262  0.0872 -0.1927 -0.1987
53196DOD     C1 3407  19.959  11.370  10.437  0.1540 -0.1272  0.0015
53196DOD     C2 3408  20.063  10.897  10.346  0.2641  0.0175  0.0645
53196DOD     C3 3409  20.204  10.455  10.328 -0.1276 -0.0420 -0.1891
53197DOD     C1 3410  18.090  24.134  23.542 -0.2780  0.1477 -0.1532
53197DOD     C2 3411  18.207  23.765  23.322  0.2575 -0.0264  0.0883
53197DOD     C3 3412  18.178  23.409  22.998 -0.1238  0.1709 -0.3168
53198DOD     C1 3413  26.061  14.992  25.677 -0.0482  0.1120 -0.0772
53198DOD     C2 3414  25.953  15.325  25.407 -0.2046  0.1392  0.1420
53198DOD     C3 3415  26.130  15.690  25.221 -0.2642 -0.1857  0.2365
53199DOD     C1 3416  27.216  27.827  14.414 -0.1574 -0.1917 -0.1673
53199DOD     C2 3417  27.241  28.079  14.849 -0.2998  0.0025  0.2352
53199DOD     C3 3418  27.607  28.369  14.990  0.0649 -0.1763  0.2917
53200DOD     C1 3419  28.175  16.960  26.851 -0.1008 -0.0936  0.0519
53200DOD     C2 3420  28.587  16.926  27.006 -0.2644 -0.0619 -0.0233
53200DOD     C3 3421  29.067  17.040  26.988  0.1829  0.0253  0.0958
53201DOD     C1 3422  18.371  30.184  17.702  0.2312 -0.0799  0.0445
53201DOD     C2 3423  18.525  29.812  17.991  0.0126 -0.1428 -0.0007
53201DOD     C3 3424  18.684  29.407  18.213  0.1223  0.1659 -0.1225
53202DOD     C1 3425  28.461  19.750   2.381  0.1626  0.3448  0.0587
53202DOD     C2 3426  28.821  19.530   2.291 -0.1048 -0.0942  0.1485
53202DOD     C3 3427  29.107  19.150   2.247  0.5419 -0.0452  0.1272
53203DOD     C1 3428   6.188  29.512   6.892 -0.1242 -0.2069  0.0738
53203DOD     C2 3429   6.205  29.216   6.505 -0.0415  0.4772 -0.0254
53203DOD     C3 3430   6.031  29.249   6.071 -0.1104 -0.0907 -0.2407
53204DOD     C1 3431  12.117   7.223  18.332 -0.0206  0.2876  0.0212
53204DOD     C2 3432  11.839   6.902  18.463  0.1548 -0.2586  0.1431
53204DOD     C3 3433  11.525   6.608  18.257 -0.3878 -0.2818  0.1660
53205DOD     C1 3434  27.820   6.973  21.469  0.3034  0.0062  0.0781
53205DOD     C2 3435  27.567   6.641  21.573  0.1436 -0.0544  0.0487
53205DOD     C3 3436  27.435   6.212  21.754 -0.2000 -0.2312 -0.2436
53206DOD     C1 3437   3.899  14.501  12.182 -0.1477  0.2495  0.4233
53206DOD     C2 3438   4.117  14.883  12.189  0.0811 -0.1061 -0.1259
53206DOD     C3 3439   4.480  15.050  12.342  0.1521  0.1165  0.3159
53207DOD     C1 3440  15.343  15.988  15.703  0.0271  0.0455 -0.1251
53207DOD     C2 3441  15.163  16.296  15.414  0.2126  0.1071  0.2675
53207DOD     C3 3442  14.896  16.253  15.026  0.1483  0.4355 -0.1374
53208DOD     C1 3443   6.463  15.348  21.022  0.0199  0.0679  0.2358
53208DOD     C2 3444   6.012  15.210  21.201  0.1398 -0.2466 -0.1917
53208DOD     C3 3445   5.801  15.087  21.584  0.2932 -0.0518 -0.0759
53209DOD     C1 3446   3.330  18.250  25.148 -0.2124 -0.0799  0.0746
53209DOD     C2 3447   3.321  18.481  25.540  0.0595 -0.2391  0.1515
53209DOD     C3 3448   3.121  18.764  25.859 -0.2809  0.0631  0.0032
53210DOD     C1 3449   3.292  20.051  20.558 -0.1366  0.1425 -0.3184
53210DOD     C2 3450   2.882  20.007  20.767  0.0823  0.0946  0.3279
53210DOD     C3 3451   2.464  20.012  20.669  0.2358  0.0093  0.1564
53211DOD     C1 3452  29.455   7.724   5.475  0.1286  0.0885 -0.0817
53211DOD     C2 3453  29.236   7.599   5.070 -0.0132  0.0985 -0.1667
53211DOD     C3 3454  28.916   7.520   4.730  0.0337 -0.0011 -0.0892
53212DOD     C1 3455   0.058  19.531  11.849  0.2215  0.3394 -0.1432
53212DOD     C2 3456  30.230  19.306  11.503 -0.2324  0.0816  0.0750
53212DOD     C3 3457  29.880  19.343  11.172  0.0503  0.0817 -0.3665
53213DOD     C1 3458   9.714   5.706   8.354 -0.1649  0.2399 -0.0165
53213DOD     C2 3459   9.769   5.466   7.913  0.1275  0.2084 -0.2422
53213DOD     C3 3460  10.011   5.023   7.765 -0.0037  0.1501 -0.1683
53214DOD     C1 3461  23.198  17.969  22.134  0.0514 -0.0581 -0.0424
53214DOD     C2 3462  23.390  17.627  22.298  0.0460  0.0609  0.4124
53214DOD     C3 3463  23.762  17.353  22.487  0.2684  0.0280  0.1616
53215DOD     C1 3464  10.906  14.795  29.645 -0.1750  0.2588 -0.3044
53215DOD     C2 3465  10.668  15.003  29.339 -0.1911  0.0822 -0.1539
53215DOD     C3 3466  10.521  14.846  28.918  0.0321 -0.1226  0.2478
53216DOD     C1 3467   0.897  19.608  22.537 -0.1087  0.1200 -0.2096
53216DOD     C2 3468   1.262  19.891  22.459  0.3430 -0.2498  0.1077
53216DOD     C3 3469   1.315  20.337  22.233  0.1010 -0.0263  0.0269
53217DOD     C1 3470   3.153   6.750  22.193 -0.1771  0.2133  0.0084
53217DOD     C2 3471   3.222   7.167  22.160 -0.1344  0.0918 -0.3975
53217DOD     C3 3472   2.944   7.476  21.920  0.2389  0.1945  0.2005
53218DOD     C1 3473   6.216  27.000  24.948  0.0628 -0.1769 -0.3192
53218DOD     C2 3474   6.517  26.656  25.009 -0.1232  0.2069 -0.1331
53218DOD     C3 3475   6.832  26.335  24.967 -0.2658 -0.0228  0.0037
53219DOD     C1 3476  20.854  21.563   3.340  0.0761  0.1012  0.1864
53219DOD     C2 3477  21.120  21.962   3.233 -0.1323 -0.0192  0.2121
53219DOD     C3 3478  21.089  22.396   3.324 -0.1058  0.0259 -0.1387
53220DOD     C1 3479   8.853   2.830  25.881  0.0510  0.5076 -0.2481
53220DOD     C2 3480   8.501   2.758  25.626  0.0337 -0.0003 -0.0289
53220DOD     C3 3481   8.050   2.728  25.473 -0.1933 -0.1465 -0.2755
53221DOD     C1 3482  12.293   1.399   1.804  0.0327  0.2907 -0.2517
53221DOD     C2 3483  11.998   1.788   1.818  0.1987 -0.0663 -0.2063
53221DOD     C3 3484  11.888   2.255   1.863 -0.2851 -0.0132  0.0012
53222DOD     C1 3485  17.505   6.560  23.617 -0.4369  0.1219 -0.0509
53222DOD     C2 3486  17.776   6.265  23.856  0.1554  0.2153 -0.0974
53222DOD     C3 3487  18.234   6.206  23.797  0.0966 -0.1416 -0.0108
53223DOD     C1 3488  21.006   0.793   8.655  0.0676 -0.3444 -0.3208
53223DOD     C2 3489  21.198   0.375   8.755  0.1503  0.2471  0.1936
53223DOD     C3 3490  21.491  30.383   8.551  0.2507  0.4044 -0.0794
53224DOD     C1 3491  15.426   3.480   8.869  0.3792 -0.2804  0.1985
53224DOD     C2 3492  15.902   3.449   8.813 -0.0465 -0.3309 -0.0954
53224DOD     C3 3493  16.301   3.299   8.584  0.2201  0.2013 -0.0951
53225DOD     C1 3494  23.145   9.120  29.073 -0.1177 -0.2027  0.4989
53225DOD     C2 3495  23.409   8.894  29.347 -0.0330  0.0456  0.0059
53225DOD     C3 3496  23.569   8.492  29.523 -0.0302 -0.0638 -0.1000
53226DOD     C1 3497  15.353  17.332   0.318  0.2529  0.0433  0.2211
53226DOD     C2 3498  15.433  16.910   0.114 -0.0392 -0.0720 -0.0430
53226DOD     C3 3499  15.721  16.568  30.287  0.0840 -0.0000  0.1329
53227DOD     C1 3500  22.262  10.303  29.362  0.2405  0.3582 -0.0714
53227DOD     C2 3501  22.357  10.213  29.806 -0.0341  0.0226 -0.2846
53227DOD     C3 3502  22.332  10.193  -0.037 -0.0114  0.0725 -0.1884
53228DOD     C1 3503  26.870   4.016  27.688  0.0641  0.0709  0.0516
53228DOD     C2 3504  27.213   4.165  27.944 -0.1801 -0.3594  0.1162
53228DOD     C3 3505  27.503   3.988  28.251  0.1904 -0.2175 -0.1164
53229DOD     C1 3506  18.502   9.604   6.072 -0.0557  0.0678  0.0401
53229DOD     C2 3507  18.402   9.124   6.052  0.0679 -0.1682  0.0274
53229DOD     C3 3508  18.533   8.698   6.080  0.0708  0.0874  0.1392
53230DOD     C1 3509   2.819  29.069   3.116 -0.2228 -0.0712  0.0082
53230DOD     C2 3510   2.933  28.604   3.210  0.0404  0.0267 -0.2101
53230DOD     C3 3511   2.743  28.214   3.418  0.4086 -0.3871  0.0173
53231DOD     C1 3512  17.062  23.481   4.359  0.0526 -0.0830 -0.1652
53231DOD     C2 3513  16.916  23.255   4.727  0.0478  0.1438  0.1117
53231DOD     C3 3514  16.950  22.989   5.091 -0.1791 -0.2537  0.0867
53232DOD     C1 3515  30.067  23.974   1.759 -0.1511  0.0675 -0.0221
53232DOD     C2 3516  29.939  23.763   1.325  0.0556 -0.0650 -0.3751
53232DOD     C3 3517  29.792  23.782   0.862  0.3593 -0.1034  0.2312
53233DOD     C1 3518   9.530  27.942  15.936 -0.1197  0.1672 -0.2258
53233DOD     C2 3519   9.182  27.652  16.147  0.2800 -0.0604 -0.0449
53233DOD     C3 3520   8.857  27.434  16.354 -0.0574  0.3010  0.0913
53234DOD     C1 3521   2.097  21.494   2.095  0.0862  0.0134 -0.1817
53234DOD     C2 3522   2.312  21.168   2.386 -0.0231 -0.1888 -0.0260
53234DOD     C3 3523   2.332  21.048   2.851  0.0462  0.0687  0.2614
53235DOD     C1 3524  12.076  17.374  28.309 -0.1164  0.1353 -0.0239
53235DOD     C2 3525  12.247  17.184  28.705 -0.3414 -0.0319  0.0923
53235DOD     C3 3526  12.307  17.420  29.142 -0.3128  0.2055  0.2164
53236DOD     C1 3527   6.062  27.483   6.060 -0.0496 -0.3178  0.0479
53236DOD     C2 3528   6.509  27.500   5.985  0.1215 -0.1490  0.3593
53236DOD     C3 3529   6.898  27.671   6.141 -0.2785 -0.0163  0.2045
53237DOD     C1 3530  25.129  29.957  19.759 -0.0261  0.0635 -0.0513
53237DOD     C2 3531  25.355  30.096  20.151  0.1512 -0.0814 -0.0575
53237DOD     C3 3532  25.727  30.291  20.285  0.1147  0.1801  0.0565
53238DOD     C1 3533  17.465  19.508  21.018 -0.1472  0.2692 -0.0052
53238DOD     C2 3534  17.127  19.842  20.985  0.0397  0.2728  0.0115
53238DOD     C3 3535  16.641  19.899  21.060  0.0058 -0.0455  0.1099
53239DOD     C1 3536  17.777   3.457   2.174  0.0360 -0.1323  0.0089
53239DOD     C2 3537  17.899   3.331   1.771 -0.0065  0.1660 -0.1131
53239DOD     C3 3538  17.962   2.895   1.543  0.1709  0.2947  0.1185
53240DOD     C1 3539  28.811  20.118   3.089  0.1587  0.3397 -0.2942
53240DOD     C2 3540  28.424  19.817   3.081  0.3132  0.1638  0.0887
53240DOD     C3 3541  28.019  19.614   3.139  0.0017 -0.0712 -0.1869
53241DOD     C1 3542  22.377   7.728   3.584 -0.3466 -0.3189  0.0992
53241DOD     C2 3543  22.224   7.871   3.999  0.2149 -0.1872  0.2638
53241DOD     C3 3544  22.137   7.642   4.405 -0.1298 -0.2043 -0.0662
53242DOD     C1 3545  13.742   7.305  16.244  0.2663  0.1161 -0.0773
53242DOD     C2 3546  13.883   7.726  16.316 -0.0558  0.0744  0.2728
53242DOD     C3 3547  14.070   8.156  16.149 -0.3315 -0.0653 -0.0139
53243DOD     C1 3548  28.407  22.158  22.179  0.1655  0.2150  0.0223
53243DOD     C2 3549  28.126  22.448  21.911  0.0377  0.3085  0.2076
53243DOD     C3 3550  27.959  22.879  21.967 -0.3100  0.2029 -0.2330
53244DOD     C1 3551  14.705  27.353   3.623  0.1211  0.0244 -0.3701
53244DOD     C2 3552  15.163  27.298   3.395  0.0797  0.2901 -0.2870
53244DOD     C3 3553  15.589  27.292   3.449 -0.1046 -0.0911  0.0875
53245DOD     C1 3554  24.311   6.804  25.698  0.1183  0.1814 -0.0048
53245DOD     C2 3555  24.526   6.462  25.966 -0.1344 -0.0370 -0.0667
53245DOD     C3 3556  24.454   6.310  26.395  0.1128  0.0622 -0.3424
53246DOD     C1 3557  25.934  24.678  29.029 -0.1357  0.0198  0.1239
53246DOD     C2 3558  26.264  24.349  28.967 -0.1111 -0.2237  0.0245
53246DOD     C3 3559  26.294  23.955  29.224  0.2635  0.0213  0.3462
53247DOD     C1 3560  18.246  13.207  13.488 -0.2331 -0.0485 -0.3813
53247DOD     C2 3561  17.941  13.264  13.112  0.0092  0.0927  0.0293
53247DOD     C3 3562  17.831  13.038  12.667 -0.3666  0.0099  0.2202
53248DOD     C1 3563  14.870   4.104  25.548  0.0718 -0.0739 -0.2409
53248DOD     C2 3564  15.180   4.176  25.976 -0.0352  0.2753  0.0754
53248DOD     C3 3565  15.243   4.304  26.411  0.1969 -0.0498  0.1389
53249DOD     C1 3566  24.717  24.570  28.729  0.0331 -0.0208 -0.1426
53249DOD     C2 3567  24.473  24.367  29.058  0.1096 -0.2691 -0.0458
53249DOD     C3 3568  24.390  24.396  29.500 -0.0188  0.4416 -0.0253
53250DOD     C1 3569  18.730  10.761  17.507 -0.0840 -0.0692  0.4364
53250DOD     C2 3570  18.310  11.054  17.431  0.3458 -0.2044  0.2333
53250DOD     C3 3571  17.971  11.029  17.103  0.0591 -0.0025 -0.1039
53251DOD     C1 3572  24.322   3.938  17.806 -0.0449 -0.1388  0.2143
53251DOD     C2 3573  24.447   3.777  17.395  0.1034  0.0012 -0.2036
53251DOD     C3 3574  24.818   3.847  17.144 -0.0580  0.0819 -0.1454
53252DOD     C1 3575   2.073  13.722  11.330  0.0182 -0.0626  0.1183
53252DOD     C2 3576   1.909  13.560  11.752  0.0704 -0.2002 -0.2156
53252DOD     C3 3577   2.081  13.248  12.101 -0.2093  0.0730  0.0662
53253DOD     C1 3578   5.191   1.008  16.632 -0.0631 -0.1188  0.2045
53253DOD     C2 3579   5.266   1.507  16.666  0.0799  0.0194  0.1575
53253DOD     C3 3580   5.487   1.895  16.867 -0.0339  0.1582 -0.1632
53254DOD     C1 3581  22.240  11.230  22.549  0.1710 -0.0570  0.0458
53254DOD     C2 3582  22.156  11.613  22.329  0.1511  0.1706  0.1271
53254DOD     C3 3583  22.243  12.069  22.321  0.0023  0.1295  0.0198
53255DOD     C1 3584  30.283   3.762  12.335 -0.1414  0.0444  0.1194
53255DOD     C2 3585   0.067   4.139  12.648  0.0172 -0.0399 -0.1921
53255DOD     C3 3586   0.341   4.310  13.049 -0.2584 -0.0575 -0.3713
53256DOD     C1 3587  29.564   1.252   0.719  0.0617 -0.1555 -0.1889
53256DOD     C2 3588  29.860   0.899   0.852  0.0019  0.1034 -0.0185
53256DOD     C3 3589  30.087   0.483   0.804  0.0611 -0.1076  0.1446
53257DOD     C1 3590   7.111  27.393  27.953  0.3628  0.0899 -0.0540
53257DOD     C2 3591   7.602  27.353  27.835  0.3613 -0.2776  0.1227
53257DOD     C3 3592   7.884  27.373  27.500 -0.2269 -0.0840 -0.0003
53258DOD     C1 3593  27.342  18.252  12.573  0.5298 -0.1300 -0.0448
53258DOD     C2 3594  26.926  18.299  12.385  0.0500  0.1642 -0.1352
53258DOD     C3 3595  26.679  18.117  12.052  0.3852  0.1994 -0.3352
53259DOD     C1 3596   0.909  24.218  12.633  0.2288  0.1551  0.1453
53259DOD     C2 3597   1.085  24.635  12.623 -0.1387 -0.0743  0.0969
53259DOD     C3 3598   0.939  25.050  12.816 -0.2497  0.1054 -0.0904
53260DOD     C1 3599   4.178  28.664  27.390 -0.0171 -0.2227  0.0365
53260DOD     C2 3600   4.415  28.987  27.572  0.0304  0.1318 -0.1062
53260DOD     C3 3601   4.786  29.241  27.675 -0.0621  0.2583  0.0963
53261DOD     C1 3602   5.426  23.652   9.600 -0.0623  0.1475  0.0106
53261DOD     C2 3603   5.285  23.266   9.383 -0.3372  0.0333 -0.0765
53261DOD     C3 3604   5.210  22.790   9.345  0.1299  0.0625 -0.2791
53262DOD     C1 3605  25.936  19.589   3.540 -0.2818  0.1322  0.0512
53262DOD     C2 3606  26.138  19.516   3.957  0.1400  0.1077 -0.1135
53262DOD     C3 3607  26.410  19.497   4.349  0.3333 -0.0502  0.1700
53263DOD     C1 3608  22.803   2.332   7.301 -0.1899 -0.2950  0.0525
53263DOD     C2 3609  22.435   2.509   6.994  0.1018 -0.1516 -0.0503
53263DOD     C3 3610  22.295   2.715   6.624  0.1603 -0.0909 -0.0874
53264DOD     C1 3611  10.261  21.612  16.776  0.0356 -0.2582  0.1770
53264DOD     C2 3612  10.112  21.211  16.604  0.3156 -0.1805 -0.1858
53264DOD     C3 3613   9.708  20.955  16.575  0.0817 -0.2224  0.3484
53265DOD     C1 3614  19.949  25.726   1.078  0.2420  0.1991  0.0354
53265DOD     C2 3615  19.956  25.528   1.494 -0.0925 -0.0929 -0.1408
53265DOD     C3 3616  19.885  25.124   1.763  0.2611  0.0171  0.0928
53266DOD     C1 3617  30.197  14.450  28.334  0.4386  0.0292 -0.0143
53266DOD     C2 3618  29.832  14.384  28.605 -0.0248 -0.1792 -0.0603
53266DOD     C3 3619  29.496  14.306  28.944  0.1922 -0.2273  0.0163
53267DOD     C1 3620  16.162  11.550  20.710 -0.2525 -0.1890  0.0315
53267DOD     C2 3621  16.200  11.694  20.231  0.2671  0.0852 -0.0049
53267DOD     C3 3622  16.360  11.790  19.786 -0.0970  0.1282  0.2760
53268DOD     C1 3623  30.025  21.451   7.107  0.0068 -0.0207  0.0295
53268DOD     C2 3624  30.091  21.829   6.837  0.1524 -0.1143  0.2135
53268DOD     C3 3625  30.258  22.148   6.520 -0.1953  0.1457 -0.0426
53269DOD     C1 3626  25.995   1.405   7.034 -0.0634 -0.0749  0.2018
53269DOD     C2 3627  26.020   1.307   7.479  0.2354  0.2540  0.1171
53269DOD     C3 3628  26.172   1.514   7.905  0.1936  0.0837  0.1171
53270DOD     C1 3629  29.822  11.667   8.990 -0.0035  0.0571 -0.1779
53270DOD     C2 3630  29.545  11.439   9.295 -0.0619 -0.1270  0.0653
53270DOD     C3 3631  29.488  11.020   9.403  0.0018  0.1575 -0.1830
53271DOD     C1 3632  11.549   7.117   8.447  0.2095  0.0491  0.3427
53271DOD     C2 3633  11.796   7.058   8.094 -0.0339 -0.0132 -0.1494
53271DOD     C3 3634  12.095   7.226   7.718 -0.1066 -0.1009 -0.0295
53272DOD     C1 3635  13.588   2.098  27.163  0.0134  0.0972 -0.0497
53272DOD     C2 3636  14.023   2.088  27.118  0.0729 -0.4065 -0.3183
53272DOD     C3 3637  14.334   2.430  27.417  0.0279  0.0506 -0.2554
53273DOD     C1 3638  20.517  16.111  19.948 -0.3463 -0.0657  0.2181
53273DOD     C2 3639  20.711  15.805  19.642 -0.2963  0.1302  0.3493
53273DOD     C3 3640  20.806  15.416  19.358  0.1553  0.0767 -0.4750
53274DOD     C1 3641   6.518  26.309  20.472  0.0215 -0.0333 -0.0105
53274DOD     C2 3642   6.573  26.562  20.816  0.1101  0.2279 -0.0591
53274DOD     C3 3643   6.639  26.525  21.304  0.0742  0.1778  0.0441
53275DOD     C1 3644   9.902   4.093   5.910  0.1701  0.0428  0.0288
53275DOD     C2 3645   9.557   4.120   5.531 -0.1863 -0.0801  0.3312
53275DOD     C3 3646   9.303   4.312   5.252 -0.1788  0.0228 -0.2981
53276DOD     C1 3647  11.525   5.285   5.623 -0.2015  0.1008  0.0743
53276DOD     C2 3648  11.437   5.721   5.778 -0.2575 -0.2806 -0.0077
53276DOD     C3 3649  11.489   6.219   5.711  0.0195 -0.1382  0.0162
53277DOD     C1 3650  10.577  29.049  25.902 -0.0799  0.0676 -0.2791
53277DOD     C2 3651  10.179  28.889  25.935 -0.0649 -0.0085  0.1926
53277DOD     C3 3652   9.841  28.502  25.865  0.0607  0.2296  0.1849
53278DOD     C1 3653  25.111  21.586   4.398 -0.0836 -0.1682  0.1323
53278DOD     C2 3654  24.645  21.696   4.347 -0.0279 -0.1575 -0.1990
53278DOD     C3 3655  24.301  21.994   4.320  0.1888 -0.1427 -0.1666
53279DOD     C1 3656   4.470   1.088   2.683  0.0897  0.2377 -0.0003
53279DOD     C2 3657   4.550   1.467   2.423  0.2735 -0.1355 -0.0516
53279DOD     C3 3658   4.533   1.928   2.303 -0.0168 -0.1147 -0.0492
53280DOD     C1 3659  12.229  16.045   3.536 -0.0714 -0.0918 -0.0601
53280DOD     C2 3660  12.344  15.812   3.159 -0.3236  0.1025 -0.0653
53280DOD     C3 3661  12.332  15.512   2.848 -0.0070 -0.1839  0.3064
53281DOD     C1 3662  12.288   8.650   5.995 -0.0705  0.1752  0.4043
53281DOD     C2 3663  12.533   8.282   5.951  0.5250  0.0715  0.0281
53281DOD     C3 3664  12.345   7.912   5.721  0.0310 -0.0538  0.0334
53282DOD     C1 3665   3.217   7.559  23.017  0.1525  0.1735  0.1110
53282DOD     C2 3666   3.315   7.491  22.588 -0.2622 -0.0447 -0.1000
53282DOD     C3 3667   3.494   7.618  22.167  0.1143 -0.1131 -0.2006
53283DOD     C1 3668  19.725  28.798   0.703  0.2651  0.1058  0.1292
53283DOD     C2 3669  19.419  28.685   1.055  0.1584 -0.0262 -0.2207
53283DOD     C3 3670  19.105  28.927   1.262  0.2956 -0.5298  0.3005
53284DOD     C1 3671  26.298   4.578  14.444  0.1701  0.1869  0.0718
53284DOD     C2 3672  26.540   4.413  14.737 -0.0248  0.0158 -0.1595
53284DOD     C3 3673  26.698   4.511  15.170  0.0647  0.1580  0.2063
53285DOD     C1 3674  17.366  24.936   4.592  0.1607 -0.1010 -0.1432
53285DOD     C2 3675  16.959  24.973   4.403  0.0519  0.1417  0.0655
53285DOD     C3 3676  16.601  25.075   4.649 -0.1668 -0.2861  0.2926
53286DOD     C1 3677  27.669   9.745  14.328 -0.0971 -0.1975 -0.1113
53286DOD     C2 3678  27.902   9.863  14.692 -0.2783 -0.3288  0.1816
53286DOD     C3 3679  27.942  10.180  15.049 -0.0392 -0.1902  0.0208
53287DOD     C1 3680   3.864   0.332   4.208 -0.2979 -0.2396 -0.1424
53287DOD     C2 3681   4.016   0.730   4.482 -0.1636 -0.0022 -0.3388
53287DOD     C3 3682   3.677   0.867   4.780 -0.0648 -0.1199  0.0770
53288DOD     C1 3683   2.676   8.505  28.022  0.0181 -0.1116  0.1677
53288DOD     C2 3684   3.056   8.821  28.031 -0.2509 -0.1604  0.1976
53288DOD     C3 3685   3.541   8.886  28.039  0.0048 -0.2681 -0.1551
53289DOD     C1 3686  23.241  27.958  11.932  0.1316 -0.2135 -0.1627
53289DOD     C2 3687  23.307  28.207  12.200 -0.1836 -0.0553  0.1931
53289DOD     C3 3688  23.468  28.611  12.210 -0.1515  0.4421  0.2328
53290DOD     C1 3689  19.774   2.606  30.094 -0.0969 -0.0960  0.0599
53290DOD     C2 3690  20.204   2.754  29.896  0.2474  0.1629  0.3250
53290DOD     C3 3691  20.564   2.688  29.729 -0.2079 -0.4611 -0.0541
53291DOD     C1 3692  25.735   2.121  28.757  0.0626  0.1533  0.0969
53291DOD     C2 3693  25.225   2.234  28.848 -0.0081  0.0571 -0.1600
53291DOD     C3 3694  25.065   2.579  28.980 -0.1525 -0.3927 -0.0646
53292DOD     C1 3695   5.144   4.200  23.709  0.0943  0.0210 -0.3286
53292DOD     C2 3696   5.453   4.252  23.430 -0.0348  0.2738  0.0288
53292DOD     C3 3697   5.621   4.083  23.029 -0.0363  0.1960  0.3664
53293DOD     C1 3698  21.071  12.123  18.024 -0.4418 -0.1379  0.0967
53293DOD     C2 3699  20.989  11.711  17.971 -0.1358  0.1636  0.1804
53293DOD     C3 3700  21.157  11.302  17.861 -0.0755  0.1560  0.2366
53294DOD     C1 3701   7.942  16.599  24.310 -0.0138  0.1585  0.0935
53294DOD     C2 3702   8.089  16.802  24.741  0.0904 -0.0826  0.0714
53294DOD     C3 3703   8.086  17.101  25.040 -0.1117  0.0309  0.1358
53295DOD     C1 3704   1.477   9.164  25.411 -0.0319 -0.1098 -0.0209
53295DOD     C2 3705   1.444   9.484  25.739  0.5109  0.1084 -0.2499
53295DOD     C3 3706   1.213   9.667  26.079  0.0948 -0.3438 -0.0766
53296DOD     C1 3707  16.961   4.323  10.143 -0.0784 -0.1629  0.4044
53296DOD     C2 3708  16.992   4.583  10.473 -0.2101 -0.1019  0.0073
53296DOD     C3 3709  16.831   5.075  10.445 -0.2057 -0.1250 -0.1643
53297DOD     C1 3710   5.241  28.724   0.124 -0.0601 -0.5102  0.4853
53297DOD     C2 3711   4.821  28.479   0.189  0.1396  0.0740  0.2543
53297DOD     C3 3712   4.480  28.281   0.399 -0.2092  0.1221  0.0273
53298DOD     C1 3713  12.976   6.678   6.332 -0.0078 -0.0358  0.1035
53298DOD     C2 3714  13.070   6.585   6.768 -0.0399  0.0148  0.2688
53298DOD     C3 3715  13.415   6.602   7.174 -0.0815 -0.2006  0.0198
53299DOD     C1 3716   5.910  22.284  17.109  0.1777  0.2009  0.0918
53299DOD     C2 3717   6.280  22.038  17.262 -0.1011  0.0477 -0.0951
53299DOD     C3 3718   6.741  22.133  17.365 -0.2579  0.2247 -0.0195
53300DOD     C1 3719  10.168  26.832   8.168 -0.2191  0.1214 -0.1060
53300DOD     C2 3720   9.945  26.985   7.792 -0.1527 -0.0919 -0.1998
53300DOD     C3 3721   9.944  27.357   7.525  0.0073  0.1149  0.0313
53301DOD     C1 3722  21.875  17.002  29.630  0.0894  0.0528  0.1211
53301DOD     C2 3723  21.647  17.030  29.149  0.1118  0.0222  0.0365
53301DOD     C3 3724  21.435  16.977  28.728  0.0489  0.2364  0.1142
53302DOD     C1 3725   5.354  27.759   7.976  0.0255  0.3850 -0.0611
53302DOD     C2 3726   5.416  28.166   7.779 -0.0188  0.3715  0.1645
53302DOD     C3 3727   5.337  28.561   7.538 -0.1688  0.2458  0.1041
53303DOD     C1 3728  22.968  25.953  24.079  0.0422  0.1294 -0.1243
53303DOD     C2 3729  22.933  25.682  23.723  0.0819  0.0786 -0.2283
53303DOD     C3 3730  22.700  25.567  23.314 -0.0262  0.0189  0.0347
53304DOD     C1 3731  20.320  19.764  24.602 -0.3898 -0.0156 -0.3090
53304DOD     C2 3732  19.978  19.553  24.767  0.1474  0.0470  0.2785
53304DOD     C3 3733  19.577  19.594  25.033 -0.1478  0.1489  0.1024
53305DOD     C1 3734  27.003  13.127  21.548 -0.1418 -0.0385  0.1880
53305DOD     C2 3735  27.180  13.566  21.751  0.1129 -0.0267  0.0311
53305DOD     C3 3736  27.438  13.943  21.769 -0.1440 -0.2706  0.0977
53306DOD     C1 3737   2.972  29.337   2.521 -0.1401  0.1416 -0.1194
53306DOD     C2 3738   2.992  28.883   2.686  0.0144 -0.1632  0.3016
53306DOD     C3 3739   2.795  28.455   2.724 -0.1567  0.1146  0.1753
53307DOD     C1 3740   4.892  15.099  24.737 -0.2721 -0.1322  0.1821
53307DOD     C2 3741   4.800  15.473  24.525  0.0861 -0.1065 -0.0036
53307DOD     C3 3742   5.031  15.814  24.401  0.1504 -0.2083  0.2934
53308DOD     C1 3743   1.965  27.790   7.503  0.0969  0.1242  0.1967
53308DOD     C2 3744   1.621  27.595   7.623  0.3282 -0.3311  0.0752
53308DOD     C3 3745   1.386  27.393   8.065  0.1544 -0.0707 -0.1925
53309DOD     C1 3746  17.327  28.699   4.575 -0.0172  0.2245 -0.3128
53309DOD     C2 3747  17.270  28.682   5.030  0.0501 -0.0215  0.0108
53309DOD     C3 3748  16.880  28.578   5.317 -0.2596 -0.0104 -0.1203
53310DOD     C1 3749  17.725  18.292  25.650 -0.2623 -0.2307 -0.0525
53310DOD     C2 3750  17.406  18.226  25.966 -0.2936 -0.0925 -0.1203
53310DOD     C3 3751  17.291  18.526  26.318 -0.1021  0.0322 -0.0728
53311DOD     C1 3752  25.785  18.843  23.981  0.0065 -0.2746  0.1915
53311DOD     C2 3753  25.887  18.706  23.532  0.0522  0.0315  0.0040
53311DOD     C3 3754  25.978  19.044  23.186  0.1226  0.2382 -0.3894
53312DOD     C1 3755   2.276   4.940   9.473 -0.0855 -0.2989 -0.0171
53312DOD     C2 3756   2.146   5.268   9.774 -0.1540  0.0812 -0.0726
53312DOD     C3 3757   1.749   5.487   9.918 -0.4056 -0.1578  0.0180
53313DOD     C1 3758   5.679  15.111  27.450  0.0134 -0.0596  0.1466
53313DOD     C2 3759   5.458  15.511  27.553 -0.2643  0.1367  0.0312
53313DOD     C3 3760   5.379  15.955  27.464  0.2196  0.2082  0.0119
53314DOD     C1 3761  25.096  22.078  16.618  0.1655 -0.0544  0.1338
53314DOD     C2 3762  24.739  22.404  16.695 -0.0736  0.0848  0.2462
53314DOD     C3 3763  24.781  22.737  16.938  0.0070  0.0698 -0.2429
53315DOD     C1 3764  19.197  17.011  17.728  0.1052  0.2813 -0.1292
53315DOD     C2 3765  19.057  16.571  17.621 -0.3277  0.0025 -0.0429
53315DOD     C3 3766  19.008  16.217  17.925  0.0179  0.0497 -0.1068
53316DOD     C1 3767   1.368  18.866   9.134  0.1471 -0.1132 -0.1550
53316DOD     C2 3768   1.495  18.823   8.681 -0.2398 -0.1455  0.0764
53316DOD     C3 3769   1.653  18.961   8.312  0.0765 -0.2002  0.1127
53317DOD     C1 3770   2.853  29.728  12.766 -0.0308  0.2728 -0.1092
53317DOD     C2 3771   3.052  29.695  13.194 -0.0680  0.0909  0.1017
53317DOD     C3 3772   3.229  29.575  13.630  0.1640  0.2762  0.1726
53318DOD     C1 3773  17.921  17.578  14.332  0.0901  0.4519 -0.2471
53318DOD     C2 3774  17.833  17.460  13.884 -0.0694  0.2519  0.0178
53318DOD     C3 3775  18.146  17.199  13.595  0.5565 -0.2362 -0.2397
53319DOD     C1 3776   4.861   3.313  13.146 -0.0412 -0.1225 -0.0169
53319DOD     C2 3777   4.737   2.901  13.297  0.0879  0.0154 -0.0819
53319DOD     C3 3778   4.639   2.506  13.076 -0.0765 -0.0007  0.4211
53320DOD     C1 3779  28.417   2.109   7.608  0.3872  0.1006  0.4319
53320DOD     C2 3780  28.151   2.163   7.219 -0.0050  0.4395 -0.1542
53320DOD     C3 3781  28.056   1.985   6.826  0.3272 -0.0556  0.0352
53321DOD     C1 3782   1.328  14.059   4.802 -0.0323 -0.1915  0.0922
53321DOD     C2 3783   1.283  14.500   4.940 -0.1894 -0.0775  0.1688
53321DOD     C3 3784   1.272  14.963   5.009  0.2882  0.0276 -0.1074
53322DOD     C1 3785   4.849  17.926  21.914 -0.1391  0.1221  0.1010
53322DOD     C2 3786   5.122  17.688  21.625 -0.0823  0.0237  0.0482
53322DOD     C3 3787   5.476  17.683  21.320 -0.0720  0.2557 -0.1657
53323DOD     C1 3788  21.362  12.383  21.093  0.0356  0.0545  0.0663
53323DOD     C2 3789  21.145  12.496  21.506  0.0680 -0.0038  0.0904
53323DOD     C3 3790  20.866  12.525  21.893 -0.2981  0.2545  0.0118
53324DOD     C1 3791  10.887  10.802  17.020 -0.0810  0.0267  0.2399
53324DOD     C2 3792  10.530  10.639  16.773 -0.0295 -0.2405  0.1830
53324DOD     C3 3793  10.133  10.477  16.702  0.2334  0.4031  0.0235
53325DOD     C1 3794  13.897  24.940  12.158 -0.0063 -0.0304  0.0426
53325DOD     C2 3795  13.681  24.746  11.807  0.0943 -0.2553  0.0176
53325DOD     C3 3796  13.301  24.459  11.662 -0.1201 -0.1312 -0.3378
53326DOD     C1 3797   2.860   2.569  22.458 -0.2550 -0.0799  0.2797
53326DOD     C2 3798   3.314   2.514  22.477  0.0117  0.1763 -0.0657
53326DOD     C3 3799   3.744   2.493  22.286 -0.1288 -0.0859  0.3115
53327DOD     C1 3800  30.306  21.266  20.456 -0.0739  0.1014  0.0984
53327DOD     C2 3801  30.145  20.847  20.396  0.1536 -0.1770  0.0557
53327DOD     C3 3802  29.776  20.705  20.661 -0.2209  0.2740  0.1224
53328DOD     C1 3803  21.390   7.995   4.024 -0.3780  0.2600  0.3118
53328DOD     C2 3804  21.822   8.174   3.844  0.0566 -0.0948 -0.0561
53328DOD     C3 3805  22.280   8.381   3.821  0.1261  0.1055 -0.2889
53329DOD     C1 3806  21.869  21.660  28.843 -0.3375  0.1785 -0.2496
53329DOD     C2 3807  21.561  21.820  28.462 -0.2692 -0.2224  0.1001
53329DOD     C3 3808  21.512  22.276  28.370  0.1585  0.1636 -0.2069
53330DOD     C1 3809   0.594  21.072   9.623  0.2514  0.0477 -0.4025
53330DOD     C2 3810   0.368  20.663   9.511 -0.0966 -0.2757  0.0240
53330DOD     C3 3811   0.127  20.514   9.899  0.1777 -0.1197  0.0857
53331DOD     C1 3812   4.106  13.215   3.502 -0.0058  0.0125 -0.0675
53331DOD     C2 3813   4.346  13.082   3.101 -0.2019  0.1828  0.4083
53331DOD     C3 3814   4.590  12.715   3.014 -0.3640  0.0884 -0.0144
53332DOD     C1 3815   5.923   5.349  28.923  0.1644 -0.0283  0.0174
53332DOD     C2 3816   5.631   5.671  28.807  0.0359  0.0541 -0.2347
53332DOD     C3 3817   5.125   5.639  28.807  0.0286 -0.1384  0.4582
53333DOD     C1 3818  10.015   3.749  11.591  0.1394 -0.1263 -0.1338
53333DOD     C2 3819   9.580   3.816  11.751 -0.0995  0.2967 -0.0047
53333DOD     C3 3820   9.086   3.690  11.647  0.0946  0.2900 -0.1520
53334DOD     C1 3821   7.560   9.231  23.887 -0.2381 -0.1886 -0.0402
53334DOD     C2 3822   7.636   8.897  23.612 -0.2664  0.2251 -0.0925
53334DOD     C3 3823   7.558   8.452  23.585  0.0424 -0.0436  0.2029
53335DOD     C1 3824  29.998   2.077  29.805 -0.1190 -0.3620 -0.0330
53335DOD     C2 3825  29.513   2.262  29.779  0.0798  0.0841  0.2246
53335DOD     C3 3826  29.112   2.228  29.483  0.1307 -0.0849  0.2418
53336DOD     C1 3827  22.549  21.602  16.309  0.0275  0.0604 -0.0712
53336DOD     C2 3828  22.358  21.268  16.568  0.1633 -0.0340 -0.2654
53336DOD     C3 3829  22.242  20.878  16.824 -0.1997 -0.0979 -0.0833
53337DOD     C1 3830  20.658  14.236  11.808  0.1586  0.1939 -0.6293
53337DOD     C2 3831  20.283  14.174  11.529  0.0608 -0.0461 -0.1001
53337DOD     C3 3832  19.938  14.033  11.234  0.4427  0.1112  0.1105
53338DOD     C1 3833  15.462   5.218  14.864  0.4698 -0.2226 -0.3065
53338DOD     C2 3834  15.009   5.268  14.917 -0.1203 -0.3477 -0.2017
53338DOD     C3 3835  14.831   5.552  15.321  0.0515  0.2322 -0.2159
53339DOD     C1 3836  29.796   5.637  20.595 -0.1962 -0.1935  0.3291
53339DOD     C2 3837  29.356   5.791  20.573  0.1605 -0.1701  0.0478
53339DOD     C3 3838  28.932   5.894  20.453  0.4250  0.1423 -0.1671
53340DOD     C1 3839  21.611   3.038   5.487 -0.1859  0.5745 -0.2333
53340DOD     C2 3840  21.554   2.733   5.831 -0.0164  0.1427 -0.3410
53340DOD     C3 3841  21.776   2.350   5.913  0.1712  0.0503 -0.1732
53341DOD     C1 3842  19.607  25.996  26.687  0.1394  0.1383 -0.2603
53341DOD     C2 3843  19.352  26.043  26.283 -0.2532 -0.2041  0.3052
53341DOD     C3 3844  19.069  26.274  25.995 -0.0917  0.1509  0.2069
53342DOD     C1 3845  20.900   3.444  17.165 -0.3250 -0.1158 -0.0105
53342DOD     C2 3846  20.908   3.454  17.603 -0.3257  0.0406  0.0328
53342DOD     C3 3847  21.120   3.577  18.024  0.1365  0.0800 -0.0823
53343DOD     C1 3848  23.386  16.067   9.922  0.1068  0.0485 -0.2543
53343DOD     C2 3849  23.030  15.747   9.949 -0.2678 -0.1639 -0.2463
53343DOD     C3 3850  22.691  15.474   9.998  0.1798  0.2599 -0.0431
53344DOD     C1 3851   4.522   6.472   5.177  0.1668 -0.1441 -0.1640
53344DOD     C2 3852   4.092   6.418   5.360  0.0332  0.3194  0.1302
53344DOD     C3 3853   3.725   6.622   5.589 -0.0188 -0.0893  0.2180
53345DOD     C1 3854   0.951  29.308  29.313  0.0154  0.3351 -0.2181
53345DOD     C2 3855   0.852  29.487  28.914 -0.4531  0.1553 -0.0775
53345DOD     C3 3856   1.099  29.701  28.497  0.0406  0.0177 -0.1441
53346DOD     C1 3857  26.300  21.461   0.286  0.3745 -0.0562 -0.2451
53346DOD     C2 3858  26.205  21.237  30.205  0.0352 -0.1328 -0.0449
53346DOD     C3 3859  25.820  21.198  29.994 -0.4676 -0.1517 -0.0840
53347DOD     C1 3860   1.081  11.118  17.390  0.1053 -0.1873 -0.1973
53347DOD     C2 3861   0.777  11.382  17.516 -0.1050  0.0619 -0.1904
53347DOD     C3 3862   0.314  11.348  17.612  0.0293 -0.2209 -0.2190
53348DOD     C1 3863  29.533   6.323   5.195  0.1568  0.0100  0.2041
53348DOD     C2 3864  29.142   6.211   4.922 -0.1192 -0.0907 -0.0751
53348DOD     C3 3865  28.749   6.128   4.776  0.3262  0.0931  0.0026
53349DOD     C1 3866  21.482  20.532   5.823  0.0168 -0.0046  0.1593
53349DOD     C2 3867  21.107  20.252   5.889  0.1412 -0.5233 -0.2008
53349DOD     C3 3868  20.678  20.115   5.768  0.1127 -0.0477  0.1776
53350DOD     C1 3869   9.856   0.849  19.920  0.1831  0.0063  0.3593
53350DOD     C2 3870  10.169   0.940  20.269 -0.0825  0.1157  0.1844
53350DOD     C3 3871  10.457   0.641  20.501  0.1364 -0.1490  0.1595
53351DOD     C1 3872  12.942  29.203  24.968  0.0698 -0.1147  0.2113
53351DOD     C2 3873  13.042  29.575  24.690  0.0325 -0.1748  0.0878
53351DOD     C3 3874  12.830  30.065  24.640  0.1883 -0.0158  0.0265
53352DOD     C1 3875  13.051  14.218  17.149 -0.1856 -0.1034 -0.0162
53352DOD     C2 3876  13.224  14.313  16.696 -0.1402 -0.1038  0.2055
53352DOD     C3 3877  12.972  14.464  16.302 -0.0260  0.1603 -0.2076
53353DOD     C1 3878   4.848   6.751  26.917 -0.0617  0.0799 -0.1976
53353DOD     C2 3879   4.650   6.391  26.669  0.0199  0.1026 -0.2014
53353DOD     C3 3880   4.443   6.279  26.244 -0.0432  0.0302  0.0390
53354DOD     C1 3881   7.055  14.565   9.269 -0.0560  0.1642  0.2847
53354DOD     C2 3882   6.940  14.934   9.571 -0.2276 -0.4989  0.2209
53354DOD     C3 3883   7.053  15.355   9.723 -0.0485  0.1436 -0.0219
53355DOD     C1 3884  12.453  17.466  18.935 -0.0548 -0.1613 -0.2284
53355DOD     C2 3885  12.409  17.000  18.679  0.1501 -0.1066 -0.1792
53355DOD     C3 3886  12.566  16.559  18.665  0.1879  0.0798 -0.3320
53356DOD     C1 3887  13.146  12.479  10.904 -0.2221  0.0091  0.0266
53356DOD     C2 3888  12.866  12.297  11.276  0.0722  0.1694  0.1577
53356DOD     C3 3889  12.513  12.331  11.605  0.0478  0.2042  0.0939
53357DOD     C1 3890  28.854  15.200  20.915 -0.0054 -0.1333  0.0878
53357DOD     C2 3891  28.781  14.732  20.808  0.3025  0.1357 -0.1203
53357DOD     C3 3892  28.960  14.321  20.666 -0.0036 -0.0258 -0.2024
53358DOD     C1 3893  27.830   4.079  24.264 -0.0424  0.1367 -0.1801
53358DOD     C2 3894  27.589   4.449  24.549  0.3382 -0.3259 -0.4357
53358DOD     C3 3895  27.492   4.879  24.784  0.0753  0.1145  0.1659
53359DOD     C1 3896   7.501  16.892   7.459  0.3630 -0.1438  0.1452
53359DOD     C2 3897   7.366  16.531   7.718 -0.1776  0.1838  0.1215
53359DOD     C3 3898   7.348  16.037   7.859 -0.0145 -0.4245 -0.0699
53360DOD     C1 3899   8.468   4.764   5.427 -0.0770  0.0174  0.3322
53360DOD     C2 3900   8.144   4.665   5.779 -0.1328 -0.0426 -0.1199
53360DOD     C3 3901   8.144   4.404   6.156 -0.0016 -0.2419  0.2297
53361DOD     C1 3902   8.100  22.114   1.888  0.0532 -0.3088 -0.4400
53361DOD     C2 3903   7.736  21.855   1.797  0.2758  0.1441 -0.0742
53361DOD     C3 3904   7.628  21.404   1.717  0.0109 -0.1375  0.2576
53362DOD     C1 3905   2.215   4.041   4.931  0.0430 -0.1070 -0.4151
53362DOD     C2 3906   2.123   4.408   4.627  0.2702  0.0763  0.2764
53362DOD     C3 3907   2.374   4.532   4.236 -0.0195  0.0146  0.0093
53363DOD     C1 3908  27.752  14.783  26.778 -0.0409  0.0975 -0.0551
53363DOD     C2 3909  28.105  14.504  26.819 -0.0282 -0.1398 -0.4401
53363DOD     C3 3910  28.456  14.600  27.144 -0.0687 -0.2014 -0.1448
53364DOD     C1 3911   9.904  14.127  26.085  0.0829  0.3528  0.1302
53364DOD     C2 3912  10.039  14.132  26.540 -0.1779 -0.0261 -0.0320
53364DOD     C3 3913  10.207  14.140  26.972 -0.0819  0.2123 -0.3590
53365DOD     C1 3914   0.379   3.602  19.838 -0.0197  0.2781 -0.1282
53365DOD     C2 3915   0.273   3.188  19.992 -0.3340  0.1637  0.2610
53365DOD     C3 3916   0.311   2.993  20.377 -0.1993  0.1090 -0.0505
53366DOD     C1 3917  19.268  28.926  30.062 -0.0798 -0.4049  0.2711
53366DOD     C2 3918  19.422  28.495  30.119 -0.1098 -0.0749  0.2983
53366DOD     C3 3919  19.558  28.108  30.257 -0.2730 -0.2438  0.0671
53367DOD     C1 3920  25.840  16.758  25.900  0.2576 -0.1447 -0.2176
53367DOD     C2 3921  26.221  16.502  25.876 -0.0040  0.1609  0.1265
53367DOD     C3 3922  26.598  16.209  25.951  0.1795 -0.0640  0.0694
53368DOD     C1 3923  15.086  24.411  24.759 -0.0088  0.2622  0.0226
53368DOD     C2 3924  14.838  24.573  25.162 -0.2464  0.1248 -0.1218
53368DOD     C3 3925  14.589  24.974  25.306 -0.0771  0.2563 -0.0632
53369DOD     C1 3926  27.589  22.323   0.668 -0.0231  0.0366  0.1756
53369DOD     C2 3927  27.518  22.163   0.230  0.2414 -0.1238  0.2436
53369DOD     C3 3928  27.439  22.326  30.109 -0.1284  0.0915  0.2416
53370DOD     C1 3929  16.622  22.528  13.097 -0.0961 -0.0166  0.0516
53370DOD     C2 3930  16.610  22.058  13.217 -0.2470  0.2949 -0.0350
53370DOD     C3 3931  16.421  21.651  13.400  0.3718  0.1909 -0.0509
53371DOD     C1 3932   0.798   4.658  20.450 -0.0448 -0.1140 -0.2014
53371DOD     C2 3933   1.205   4.781  20.719 -0.0526  0.0070 -0.1224
53371DOD     C3 3934   1.373   5.151  20.943 -0.1222 -0.2862  0.0506
53372DOD     C1 3935  20.092   3.533  13.831 -0.0189  0.0553 -0.0213
53372DOD     C2 3936  19.780   3.687  13.478  0.4103  0.0142  0.1258
53372DOD     C3 3937  19.543   3.840  13.063 -0.2119  0.3086  0.4749
53373DOD     C1 3938  16.186  13.759  24.770  0.2678 -0.2562 -0.0296
53373DOD     C2 3939  16.449  13.422  24.609  0.0534  0.2670 -0.1866
53373DOD     C3 3940  16.635  13.084  24.376  0.0661  0.0871  0.0869
53374DOD     C1 3941  21.977   0.095  26.910 -0.1141  0.0734  0.2569
53374DOD     C2 3942  21.996   0.556  26.908 -0.1378  0.0670 -0.0205
53374DOD     C3 3943  21.884   1.022  26.999 -0.0289  0.1052  0.0766
53375DOD     C1 3944  12.549   5.562  11.592 -0.1200  0.0294  0.0436
53375DOD     C2 3945  12.634   5.519  12.012 -0.0792  0.0423 -0.0792
53375DOD     C3 3946  12.625   5.251  12.420 -0.5103 -0.2132  0.0794
53376DOD     C1 3947  23.223  21.800   8.531 -0.1239  0.0307  0.0093
53376DOD     C2 3948  23.407  22.101   8.846 -0.0274 -0.1320 -0.1113
53376DOD     C3 3949  23.627  22.372   9.165  0.0979 -0.2399  0.0242
53377DOD     C1 3950  13.662  15.160   9.801  0.1596 -0.3013  0.0827
53377DOD     C2 3951  13.636  14.646   9.834  0.1250  0.0462 -0.2460
53377DOD     C3 3952  13.891  14.244   9.803  0.0053 -0.2268  0.1432
53378DOD     C1 3953  24.470  13.505   8.640 -0.0900  0.2880  0.0765
53378DOD     C2 3954  24.963  13.558   8.698 -0.0986  0.0022 -0.0728
53378DOD     C3 3955  25.465  13.679   8.747 -0.0044  0.2029  0.1067
53379DOD     C1 3956   2.441  11.942  24.075  0.0551 -0.2708 -0.2091
53379DOD     C2 3957   2.768  11.738  24.397 -0.3866  0.2886 -0.3423
53379DOD     C3 3958   2.971  11.496  24.730  0.3120  0.2765  0.2720
53380DOD     C1 3959  14.880   9.604  16.596 -0.0491 -0.0425  0.1083
53380DOD     C2 3960  14.578   9.324  16.813  0.0207  0.2124  0.0848
53380DOD     C3 3961  14.527   8.918  17.128 -0.1943 -0.0450 -0.0438
53381DOD     C1 3962  10.263  29.638   9.456 -0.2703 -0.1732 -0.0503
53381DOD     C2 3963  10.102  30.106   9.474  0.1683 -0.0714  0.0125
53381DOD     C3 3964  10.017   0.278   9.602 -0.1747  0.1332 -0.2202
53382DOD     C1 3965  29.988   3.989  13.242 -0.2407 -0.0532 -0.0714
53382DOD     C2 3966  30.204   3.742  13.552  0.1308 -0.2644 -0.0405
53382DOD     C3 3967  30.257   3.569  13.988  0.1885  0.2116  0.0505
53383DOD     C1 3968  17.342  20.618  11.479  0.1175 -0.0043  0.1974
53383DOD     C2 3969  17.269  20.315  11.123  0.2446  0.0367  0.0446
53383DOD     C3 3970  17.386  20.312  10.710  0.1694 -0.1871  0.1177
53384DOD     C1 3971  17.318  23.718  19.000  0.1197 -0.0040 -0.0412
53384DOD     C2 3972  17.572  24.086  19.115 -0.0099 -0.2237 -0.1217
53384DOD     C3 3973  17.871  24.354  19.430  0.0186 -0.0548  0.0639
53385DOD     C1 3974  27.278  28.679  23.150 -0.1572 -0.0529  0.1370
53385DOD     C2 3975  26.914  28.865  23.436  0.3618  0.2582  0.1335
53385DOD     C3 3976  26.827  29.014  23.856 -0.0404 -0.2397 -0.2988
53386DOD     C1 3977   9.517  15.774   7.569 -0.1840  0.1319 -0.0728
53386DOD     C2 3978   9.776  16.131   7.783  0.0829  0.0520  0.3403
53386DOD     C3 3979   9.836  16.314   8.201  0.1311 -0.0222 -0.0635
53387DOD     C1 3980  24.980   9.747  12.465  0.0529  0.1892 -0.3725
53387DOD     C2 3981  24.685   9.382  12.548  0.4419  0.0496  0.1000
53387DOD     C3 3982  24.447   9.095  12.845  0.0038  0.3371 -0.2069
53388DOD     C1 3983  21.063  22.771  12.543 -0.0537  0.2340 -0.1687
53388DOD     C2 3984  20.742  23.015  12.718  0.0149 -0.0811 -0.4167
53388DOD     C3 3985  20.339  23.123  12.794  0.1909  0.0779 -0.2700
53389DOD     C1 3986   4.484  19.698   6.651  0.0664  0.2302  0.0845
53389DOD     C2 3987   4.564  20.000   6.948 -0.1177  0.0245 -0.0471
53389DOD     C3 3988   4.480  19.926   7.316 -0.0527  0.0552 -0.0798
53390DOD     C1 3989   6.932  17.541  19.780 -0.0344 -0.3114  0.0469
53390DOD     C2 3990   6.666  17.150  19.943 -0.1966  0.0513  0.1500
53390DOD     C3 3991   6.428  16.806  20.123 -0.0570 -0.1325  0.2069
53391DOD     C1 3992  19.027  16.036  14.076  0.2078 -0.2990 -0.0517
53391DOD     C2 3993  19.057  16.026  13.616 -0.0466 -0.0677  0.0012
53391DOD     C3 3994  19.051  15.998  13.175 -0.1299 -0.2087 -0.0260
53392DOD     C1 3995  10.546  14.059  30.097  0.0756 -0.1162 -0.0230
53392DOD     C2 3996  10.581  13.813   0.165  0.3028 -0.2526 -0.1386
53392DOD     C3 3997  10.644  13.581   0.606 -0.1174  0.0164 -0.1711
53393DOD     C1 3998  15.304  23.202  19.694  0.0497  0.1972 -0.1562
53393DOD     C2 3999  14.946  23.002  19.478  0.3064 -0.1732  0.1543
53393DOD     C3 4000  14.521  22.905  19.502 -0.0669  0.2530  0.1593
53394DOD     C1 4001  24.243   0.977  23.662  0.1002 -0.0729  0.2172
53394DOD     C2 4002  23.853   1.162  23.850 -0.0304 -0.1728  0.0623
53394DOD     C3 4003  23.536   1.278  24.167  0.3032  0.0184 -0.2164
53395DOD     C1 4004  18.465  13.400  16.457 -0.1125 -0.1341 -0.1144
53395DOD     C2 4005  18.793  13.600  16.617  0.1178  0.0913  0.2553
53395DOD     C3 4006  18.914  13.956  16.854  0.2633  0.0900  0.2297
53396DOD     C1 4007  27.332  26.894   2.186 -0.1833 -0.0202 -0.0920
53396DOD     C2 4008  27.267  26.763   1.747  0.0095 -0.1488 -0.1775
53396DOD     C3 4009  27.043  26.486   1.430  0.0875 -0.1226  0.3390
53397DOD     C1 4010  11.222  14.385  23.473  0.0101 -0.0366  0.0576
53397DOD     C2 4011  10.854  14.635  23.263 -0.1223  0.1091  0.0244
53397DOD     C3 4012  10.819  14.761  22.817 -0.1320 -0.2965 -0.0037
53398DOD     C1 4013   2.688  11.339  27.869 -0.0346 -0.3589 -0.0623
53398DOD     C2 4014   2.680  11.272  28.331  0.1731  0.0285  0.2194
53398DOD     C3 4015   2.650  10.892  28.578  0.0332 -0.0539 -0.2243
53399DOD     C1 4016  13.815   3.392  17.827 -0.1450  0.2395 -0.1252
53399DOD     C2 4017  14.039   3.735  17.625  0.3567 -0.1741 -0.2580
53399DOD     C3 4018  14.253   4.098  17.521 -0.1786 -0.1172 -0.0136
53400DOD     C1 4019  13.162  26.079  15.075 -0.4114  0.3724  0.3364
53400DOD     C2 4020  12.944  26.050  14.669  0.1855 -0.1547 -0.2003
53400DOD     C3 4021  12.732  26.039  14.175 -0.1887  0.1161 -0.0422
53401DOD     C1 4022   3.059  15.590  12.165 -0.0538  0.2085  0.2092
53401DOD     C2 4023   3.386  15.387  11.982 -0.0040 -0.2178  0.0921
53401DOD     C3 4024   3.781  15.168  11.839 -0.1721 -0.0882 -0.1744
53402DOD     C1 4025  10.275   0.694  14.605  0.2556 -0.5015 -0.1515
53402DOD     C2 4026  10.078   1.059  14.477  0.0681 -0.0591 -0.2055
53402DOD     C3 4027   9.852   1.419  14.685  0.1807 -0.1742 -0.1849
53403DOD     C1 4028  11.090  27.098  25.419 -0.0765  0.0490 -0.3045
53403DOD     C2 4029  11.329  26.837  25.109 -0.0685  0.1129  0.4066
53403DOD     C3 4030  11.720  26.942  24.873 -0.2565  0.0416  0.0689
53404DOD     C1 4031  23.955   7.453   6.184  0.0115  0.2779 -0.0556
53404DOD     C2 4032  24.393   7.307   6.138 -0.1057 -0.0170  0.0399
53404DOD     C3 4033  24.762   6.992   6.352  0.2836 -0.0619  0.1557
53405DOD     C1 4034  21.468  16.132  21.304 -0.1623 -0.1123  0.1175
53405DOD     C2 4035  21.942  16.114  21.262 -0.0515  0.3854 -0.0206
53405DOD     C3 4036  22.272  16.090  20.924  0.2161 -0.2190 -0.2707
53406DOD     C1 4037  28.423  27.044   9.388 -0.1698 -0.0823  0.1826
53406DOD     C2 4038  28.417  27.475   9.196  0.0276  0.2995 -0.0671
53406DOD     C3 4039  28.751  27.818   9.162 -0.1269 -0.1037 -0.1622
53407DOD     C1 4040  26.260   6.422  17.291  0.3971  0.0599  0.1989
53407DOD     C2 4041  25.863   6.502  17.496 -0.1312  0.0781 -0.1931
53407DOD     C3 4042  25.448   6.633  17.824 -0.1850 -0.2665 -0.3311
53408DOD     C1 4043  16.092  11.498   3.758  0.2689  0.3523  0.1092
53408DOD     C2 4044  16.359  11.502   3.317  0.0578 -0.0196 -0.2096
53408DOD     C3 4045  16.515  11.238   2.888 -0.0648 -0.0993  0.0901
53409DOD     C1 4046   7.321   7.935  19.695 -0.0350  0.0814 -0.4284
53409DOD     C2 4047   7.235   7.587  19.393  0.0217 -0.1987 -0.1252
53409DOD     C3 4048   7.294   7.438  18.956  0.2093  0.2460 -0.2112
53410DOD     C1 4049  26.378  21.541  16.989  0.4099  0.0003  0.1969
53410DOD     C2 4050  26.771  21.778  16.852 -0.0581  0.0305  0.1049
53410DOD     C3 4051  27.114  22.025  16.656 -0.0538 -0.0376 -0.0127
53411DOD     C1 4052   4.519  23.249   7.334  0.0275  0.0651 -0.2476
53411DOD     C2 4053   4.647  22.901   7.667 -0.0166  0.1026  0.1161
53411DOD     C3 4054   4.721  22.547   7.875 -0.0722  0.0075  0.0716
53412DOD     C1 4055   6.222   2.424  18.343 -0.3798 -0.0774  0.0638
53412DOD     C2 4056   6.617   2.646  18.344 -0.1489 -0.0110  0.1111
53412DOD     C3 4057   7.056   2.611  18.375 -0.2322 -0.3104 -0.1243
53413DOD     C1 4058  27.009   1.608  25.033 -0.0439 -0.1621  0.1498
53413DOD     C2 4059  26.921   1.842  24.652  0.1054  0.0620  0.3364
53413DOD     C3 4060  26.716   2.211  24.391 -0.2618 -0.2776 -0.0391
53414DOD     C1 4061  21.313  17.570  21.740  0.2907  0.2432 -0.3219
53414DOD     C2 4062  21.122  17.913  21.526 -0.2489  0.2881  0.0180
53414DOD     C3 4063  20.718  18.009  21.308  0.1258 -0.0255  0.2264
53415DOD     C1 4064  21.351  14.806  15.304 -0.0146 -0.0954  0.0627
53415DOD     C2 4065  21.650  15.154  15.114  0.1267 -0.0292 -0.1606
53415DOD     C3 4066  22.082  15.393  15.263  0.1996 -0.2157  0.3946
53416DOD     C1 4067  30.354  24.462  24.989  0.2729 -0.0897 -0.3012
53416DOD     C2 4068  30.143  24.188  25.280  0.2687 -0.3350 -0.0309
53416DOD     C3 4069  30.266  24.182  25.743  0.0862  0.0379  0.0864
53417DOD     C1 4070   2.861  22.280   4.248  0.0472 -0.1174 -0.0210
53417DOD     C2 4071   2.674  22.358   4.656 -0.0553  0.1169  0.3927
53417DOD     C3 4072   2.526  22.250   5.141  0.1899  0.0570  0.0523
53418DOD     C1 4073   4.465   4.499   3.983 -0.1595  0.3605  0.1680
53418DOD     C2 4074   4.844   4.189   3.848  0.0054  0.3790 -0.2646
53418DOD     C3 4075   5.236   3.971   3.911 -0.2720 -0.1077 -0.1526
53419DOD     C1 4076  26.449   8.386  24.599 -0.0229  0.2764  0.1357
53419DOD     C2 4077  26.517   7.963  24.835 -0.1678  0.2004 -0.2279
53419DOD     C3 4078  26.789   7.687  25.085 -0.0865 -0.2036 -0.0372
53420DOD     C1 4079   1.573  27.427  14.902  0.1353  0.0497  0.1031
53420DOD     C2 4080   1.872  27.091  14.981 -0.0252  0.0899  0.3055
53420DOD     C3 4081   2.351  26.923  15.036 -0.1732 -0.0241  0.0737
53421DOD     C1 4082   7.543  10.853   1.477  0.2226 -0.2528 -0.1616
53421DOD     C2 4083   7.192  10.844   1.760 -0.0653  0.0377 -0.1384
53421DOD     C3 4084   6.981  11.006   2.178  0.0040 -0.1937 -0.2011
53422DOD     C1 4085   9.458  25.785  16.311 -0.2842  0.1902 -0.0300
53422DOD     C2 4086   9.817  25.500  16.072  0.2121  0.0476  0.0421
53422DOD     C3 4087  10.194  25.238  16.260  0.0131  0.0607  0.0675
53423DOD     C1 4088  13.930  27.690  29.005 -0.0076 -0.0764 -0.1420
53423DOD     C2 4089  13.946  27.914  29.404 -0.0802  0.0033  0.0551
53423DOD     C3 4090  13.700  28.030  29.752 -0.2960  0.0677  0.1342
53424DOD     C1 4091  13.105   5.775  27.214  0.1154 -0.0278 -0.0167
53424DOD     C2 4092  12.722   5.993  27.048 -0.0820  0.2247 -0.1303
53424DOD     C3 4093  12.760   6.264  26.688  0.0618 -0.0584  0.1766
53425DOD     C1 4094  13.622  17.526  28.572  0.0327  0.0194  0.2182
53425DOD     C2 4095  13.751  17.955  28.470  0.0765  0.3184  0.0455
53425DOD     C3 4096  14.016  18.196  28.274 -0.0804 -0.0249  0.0532
53426DOD     C1 4097   2.064  25.273  24.506  0.1291 -0.0790 -0.0213
53426DOD     C2 4098   2.383  25.184  24.842 -0.1175 -0.3374 -0.0137
53426DOD     C3 4099   2.640  24.841  25.033  0.0161  0.4133  0.0613
53427DOD     C1 4100   5.363  26.022  11.441 -0.0606  0.1800  0.3116
53427DOD     C2 4101   5.059  26.093  11.818  0.2089 -0.0007  0.0612
53427DOD     C3 4102   4.784  25.799  12.059  0.0175  0.0314 -0.1280
53428DOD     C1 4103   6.924   0.087   7.507  0.2327 -0.0083 -0.2655
53428DOD     C2 4104   7.224  30.283   7.873  0.2602  0.0712 -0.1773
53428DOD     C3 4105   7.625  29.993   7.915 -0.0340  0.5627 -0.0435
53429DOD     C1 4106  10.717  26.542  18.017 -0.1685  0.3355 -0.2372
53429DOD     C2 4107  10.628  26.573  17.555  0.3453  0.0012 -0.3420
53429DOD     C3 4108  10.898  26.398  17.172  0.0357  0.0679  0.0036
53430DOD     C1 4109  12.552  27.389   8.898 -0.1020  0.1517 -0.1015
53430DOD     C2 4110  12.930  27.132   8.960 -0.1497 -0.1642  0.0270
53430DOD     C3 4111  13.243  26.969   8.693  0.1191 -0.1419  0.2032
53431DOD     C1 4112   1.129  10.819  23.476  0.2050 -0.2228  0.1851
53431DOD     C2 4113   0.785  11.147  23.288  0.1033 -0.0766 -0.0813
53431DOD     C3 4114   0.524  11.377  22.947 -0.2204 -0.0892 -0.2882
53432DOD     C1 4115   7.626  28.319  17.382 -0.0447  0.0718 -0.0845
53432DOD     C2 4116   7.547  28.730  17.502  0.2384 -0.0219 -0.0978
53432DOD     C3 4117   7.667  29.150  17.337  0.0192  0.4205 -0.3938
53433DOD     C1 4118  11.724  22.557   2.682 -0.2325  0.0034 -0.0221
53433DOD     C2 4119  11.685  22.487   2.228  0.1361  0.0304  0.1015
53433DOD     C3 4120  11.677  22.155   1.939 -0.0771 -0.1045 -0.3074
53434DOD     C1 4121  29.200  23.278  25.898  0.0756  0.0019  0.0094
53434DOD     C2 4122  29.244  23.086  25.474  0.0811  0.0065  0.1078
53434DOD     C3 4123  29.553  22.924  25.129  0.0993  0.0645  0.1305
53435DOD     C1 4124  16.233  10.955   1.969  0.0274  0.0502 -0.2156
53435DOD     C2 4125  16.401  11.350   1.827  0.2291  0.0068 -0.1405
53435DOD     C3 4126  16.681  11.625   1.600 -0.2234 -0.0657 -0.0465
53436DOD     C1 4127  27.954  14.722   4.196  0.1001 -0.0495 -0.1219
53436DOD     C2 4128  27.736  15.145   4.014 -0.0750  0.0397  0.5013
53436DOD     C3 4129  27.438  15.171   3.650  0.1593  0.0927 -0.0537
53437DOD     C1 4130  29.072  15.008   6.637  0.3393  0.1790 -0.0733
53437DOD     C2 4131  28.895  15.342   6.365 -0.0497 -0.0310  0.0196
53437DOD     C3 4132  28.714  15.530   5.959 -0.2424  0.0777  0.1406
53438DOD     C1 4133  27.198  24.822  13.298 -0.0579 -0.0454  0.1660
53438DOD     C2 4134  27.454  25.198  13.388 -0.1508 -0.3759 -0.3461
53438DOD     C3 4135  27.692  25.553  13.231 -0.0996 -0.1139 -0.1068
53439DOD     C1 4136   6.358   6.264   4.176  0.2952  0.1234  0.1986
53439DOD     C2 4137   6.596   6.535   4.486  0.3624  0.1630  0.1299
53439DOD     C3 4138   6.682   6.901   4.788  0.0694 -0.1073  0.0750
53440DOD     C1 4139   7.490  12.387  14.489  0.0155 -0.5146  0.0473
53440DOD     C2 4140   7.100  12.270  14.354  0.2215  0.0321  0.0387
53440DOD     C3 4141   6.727  12.332  14.601 -0.3173 -0.0583  0.0646
53441DOD     C1 4142   0.247  19.169   7.533 -0.3246  0.0358 -0.0011
53441DOD     C2 4143   0.731  19.282   7.589 -0.1196 -0.0799  0.3250
53441DOD     C3 4144   1.150  19.403   7.826  0.2728 -0.3946 -0.0475
53442DOD     C1 4145  17.413   6.453  28.960 -0.0087 -0.3605 -0.2679
53442DOD     C2 4146  17.869   6.409  28.849 -0.1151 -0.3311 -0.0478
53442DOD     C3 4147  18.273   6.673  29.049 -0.2051 -0.4530 -0.1705
53443DOD     C1 4148   0.848  26.686  11.716  0.3887  0.1927 -0.2830
53443DOD     C2 4149   0.569  26.373  11.544 -0.2529 -0.1854  0.0586
53443DOD     C3 4150   0.238  26.084  11.476  0.0646  0.0355  0.1352
53444DOD     C1 4151   4.159  27.728  11.331  0.0067  0.0251 -0.0806
53444DOD     C2 4152   3.701  27.619  11.372 -0.2114 -0.2693  0.1131
53444DOD     C3 4153   3.281  27.703  11.227 -0.0329 -0.3423  0.0062
53445DOD     C1 4154   6.829  26.811  27.888  0.0517 -0.1812  0.5194
53445DOD     C2 4155   6.823  26.521  27.493  0.2547  0.3761 -0.0934
53445DOD     C3 4156   6.992  26.263  27.141 -0.1422  0.3211  0.1176
53446DOD     C1 4157  17.189  16.829  19.006  0.1717 -0.1026 -0.0464
53446DOD     C2 4158  17.199  17.028  18.641  0.3736  0.0689  0.1050
53446DOD     C3 4159  17.413  17.408  18.588 -0.1707 -0.0814 -0.0767
53447DOD     C1 4160  12.154   2.016   3.674  0.0087  0.3045 -0.2049
53447DOD     C2 4161  12.002   2.067   3.239 -0.3708 -0.0509  0.0328
53447DOD     C3 4162  12.195   2.473   3.125  0.2881 -0.0886 -0.1972
53448DOD     C1 4163  12.690  16.056  17.653 -0.2444  0.2425  0.0062
53448DOD     C2 4164  13.003  16.318  17.350  0.0810  0.0677  0.0411
53448DOD     C3 4165  13.452  16.339  17.349  0.2400 -0.1699  0.1068
53449DOD     C1 4166  10.563  29.672   7.346 -0.1551  0.0682  0.0106
53449DOD     C2 4167  10.058  29.660   7.415  0.2799 -0.0222 -0.1792
53449DOD     C3 4168   9.615  29.697   7.583  0.0629 -0.3658  0.0061
53450DOD     C1 4169  14.793   7.548  23.336  0.3628  0.0374 -0.0290
53450DOD     C2 4170  14.358   7.804  23.428  0.0660 -0.1835  0.1997
53450DOD     C3 4171  14.176   7.964  23.780 -0.0673  0.0537  0.0131
53451DOD     C1 4172  19.702  29.759   3.862  0.2346 -0.2745 -0.0378
53451DOD     C2 4173  19.475  29.402   4.078  0.0132 -0.5747  0.0645
53451DOD     C3 4174  19.112  29.086   4.225 -0.0388  0.0785 -0.0155
53452DOD     C1 4175   1.164   7.984  16.997 -0.0990  0.3013 -0.2936
53452DOD     C2 4176   0.704   7.884  16.946 -0.1979  0.0673  0.1006
53452DOD     C3 4177   0.272   7.787  16.768 -0.2125 -0.2930  0.3549
53453DOD     C1 4178  11.019   8.449  11.490  0.1099  0.2066 -0.2234
53453DOD     C2 4179  11.054   8.935  11.433 -0.1248 -0.0209 -0.1858
53453DOD     C3 4180  10.884   9.257  11.755  0.1562 -0.2472 -0.1226
53454DOD     C1 4181  27.067   2.265   2.547  0.3051  0.0882 -0.1401
53454DOD     C2 4182  27.046   1.898   2.841  0.2371 -0.0384  0.0833
53454DOD     C3 4183  27.090   1.622   3.208  0.1112  0.1907 -0.0707
53455DOD     C1 4184  28.445  25.846   2.188 -0.0345  0.1325 -0.3221
53455DOD     C2 4185  28.676  26.062   2.486 -0.0827 -0.0805 -0.3176
53455DOD     C3 4186  28.594  26.245   2.932 -0.2656  0.0591 -0.0349
53456DOD     C1 4187  11.352   8.275  27.451  0.2364  0.0219 -0.1827
53456DOD     C2 4188  11.244   7.810  27.426 -0.1479  0.1164 -0.1246
53456DOD     C3 4189  11.407   7.395  27.199 -0.0221 -0.0562  0.1510
53457DOD     C1 4190  10.593  13.138   2.711  0.1270  0.2826 -0.1721
53457DOD     C2 4191  11.011  13.251   2.921  0.2360  0.1861 -0.1124
53457DOD     C3 4192  11.401  13.423   3.066  0.0236 -0.2680  0.2379
53458DOD     C1 4193   9.862   5.290  12.403 -0.0728  0.1451 -0.4724
53458DOD     C2 4194   9.710   4.838  12.364  0.2067  0.0787 -0.4319
53458DOD     C3 4195   9.550   4.419  12.272  0.0059 -0.1291 -0.0216
53459DOD     C1 4196  12.635   9.690  21.708  0.0666  0.1224  0.1420
53459DOD     C2 4197  12.828   9.260  21.755  0.0826  0.1116  0.2587
53459DOD     C3 4198  12.740   8.813  21.870 -0.0413  0.1545  0.2192
53460DOD     C1 4199  18.882  12.929  23.525 -0.0663 -0.1577  0.1903
53460DOD     C2 4200  18.952  13.143  23.108 -0.0922 -0.1286 -0.2662
53460DOD     C3 4201  18.764  13.433  22.819 -0.2016 -0.0691 -0.0462
53461DOD     C1 4202  16.624   4.366  13.697  0.2086 -0.4240  0.4293
53461DOD     C2 4203  16.717   4.811  13.863  0.0996 -0.4186  0.1266
53461DOD     C3 4204  16.554   5.167  13.637  0.1283 -0.2264  0.0302
53462DOD     C1 4205  11.109  19.915  13.254  0.4147 -0.0244 -0.3232
53462DOD     C2 4206  10.748  20.045  13.515  0.0886  0.2966  0.0983
53462DOD     C3 4207  10.315  20.196  13.438  0.1883 -0.2511 -0.2166
53463DOD     C1 4208  24.529  25.732   1.335 -0.1243  0.0010 -0.0577
53463DOD     C2 4209  24.287  25.579   1.697  0.1301 -0.1459  0.0629
53463DOD     C3 4210  24.304  25.716   2.180  0.1952 -0.0718  0.1625
53464DOD     C1 4211  17.114  20.960   3.491 -0.2818 -0.3843  0.1109
53464DOD     C2 4212  17.241  21.375   3.282 -0.4579  0.3085  0.2390
53464DOD     C3 4213  17.124  21.815   3.043  0.2663 -0.2666  0.2521
53465DOD     C1 4214   9.667  13.672   6.642  0.1445 -0.1409 -0.2594
53465DOD     C2 4215   9.902  13.605   6.276  0.2182 -0.0936 -0.0167
53465DOD     C3 4216  10.306  13.591   6.013  0.0303  0.1851 -0.0362
53466DOD     C1 4217   2.018  15.426  15.617  0.0653  0.0750 -0.0760
53466DOD     C2 4218   2.316  15.812  15.585 -0.0449  0.0318 -0.1263
53466DOD     C3 4219   2.634  16.091  15.347  0.1136  0.0119  0.2920
53467DOD     C1 4220  15.816  11.721  16.237  0.1800 -0.1872  0.4069
53467DOD     C2 4221  16.117  11.529  16.509 -0.1860  0.1510  0.0483
53467DOD     C3 4222  16.275  11.135  16.744  0.0672  0.0229  0.0368
53468DOD     C1 4223  20.894  25.038  19.027 -0.0178 -0.1012  0.1516
53468DOD     C2 4224  20.705  25.456  19.102 -0.1611 -0.2799 -0.0748
53468DOD     C3 4225  20.335  25.737  19.154  0.1218  0.2086  0.0414
53469DOD     C1 4226  23.321  21.504  14.889 -0.0698  0.0877  0.3298
53469DOD     C2 4227  23.233  21.186  14.610  0.2596 -0.0924 -0.2012
53469DOD     C3 4228  23.245  21.098  14.157 -0.1064  0.1056  0.1499
53470DOD     C1 4229   6.676  11.329  25.774 -0.2529 -0.0773 -0.1211
53470DOD     C2 4230   7.098  11.197  25.955 -0.0720 -0.2445  0.2215
53470DOD     C3 4231   7.370  11.092  26.359 -0.1588  0.1864  0.1982
53471DOD     C1 4232   4.393  24.926  21.184  0.1733 -0.3811 -0.1805
53471DOD     C2 4233   3.952  24.849  21.337  0.1274 -0.1051  0.0034
53471DOD     C3 4234   3.514  24.909  21.406 -0.2164  0.0901  0.1753
53472DOD     C1 4235   0.776  13.192   9.382 -0.4360 -0.0729  0.1066
53472DOD     C2 4236   0.442  13.170   9.674 -0.0560  0.4509 -0.1315
53472DOD     C3 4237   0.146  13.511   9.839  0.1197  0.0165 -0.0668
53473DOD     C1 4238  28.604   0.404   5.628  0.1550  0.0089 -0.0966
53473DOD     C2 4239  28.441   0.867   5.722  0.0632  0.0733 -0.1461
53473DOD     C3 4240  28.418   1.124   6.068  0.0100 -0.1379  0.0332
53474DOD     C1 4241  29.701  19.610  27.418 -0.0775 -0.2523  0.0798
53474DOD     C2 4242  29.286  19.756  27.520 -0.1305 -0.1216  0.0278
53474DOD     C3 4243  28.953  20.001  27.432  0.1863  0.0590 -0.0421
53475DOD     C1 4244  13.974   5.484   9.220  0.1170 -0.0524 -0.1289
53475DOD     C2 4245  13.676   5.145   9.203 -0.0044  0.2584  0.0558
53475DOD     C3 4246  13.549   4.715   9.109 -0.1357  0.1505 -0.0114
53476DOD     C1 4247  22.335   9.820  21.431  0.3578  0.2337 -0.0663
53476DOD     C2 4248  22.353   9.351  21.375 -0.2154 -0.1989  0.1712
53476DOD     C3 4249  22.539   8.950  21.554 -0.0139 -0.1863 -0.0176
53477DOD     C1 4250  12.373  14.258   7.516  0.2632  0.0849 -0.1248
53477DOD     C2 4251  12.051  13.979   7.740 -0.1658 -0.2032 -0.0001
53477DOD     C3 4252  11.770  13.583   7.716  0.2995 -0.0306 -0.0798
53478DOD     C1 4253  14.263  17.495  22.013  0.2713  0.1087 -0.0035
53478DOD     C2 4254  14.681  17.295  22.038  0.4041 -0.0465 -0.1082
53478DOD     C3 4255  15.160  17.171  22.089  0.3140  0.3170  0.1862
53479DOD     C1 4256  19.038  17.989  18.011  0.0695  0.0680  0.0151
53479DOD     C2 4257  18.768  17.629  17.868  0.1152  0.2092  0.1887
53479DOD     C3 4258  18.358  17.483  17.814 -0.0404 -0.1007 -0.1042
53480DOD     C1 4259  24.698  25.777  24.750  0.3455 -0.2268  0.3244
53480DOD     C2 4260  24.382  25.892  25.003 -0.0468 -0.2476 -0.3404
53480DOD     C3 4261  24.083  26.097  25.267 -0.0844  0.1382 -0.3071
53481DOD     C1 4262  11.829  23.721  14.837  0.1957 -0.0390 -0.0474
53481DOD     C2 4263  11.763  23.469  14.507  0.0366  0.0174  0.0290
53481DOD     C3 4264  11.374  23.340  14.250  0.2215 -0.2897 -0.3194
53482DOD     C1 4265  15.902  16.502  29.679 -0.0092  0.0276 -0.0746
53482DOD     C2 4266  15.487  16.599  29.809  0.0161  0.0979 -0.0155
53482DOD     C3 4267  15.118  16.746  30.083  0.2622 -0.0947 -0.0997
53483DOD     C1 4268   4.362  14.602   6.673  0.0688 -0.1737  0.0614
53483DOD     C2 4269   4.187  14.311   6.981 -0.2882 -0.2028  0.1117
53483DOD     C3 4270   3.861  14.093   7.148 -0.2631 -0.1054 -0.1764
53484DOD     C1 4271  13.931  27.187  23.347 -0.5517 -0.1897  0.1668
53484DOD     C2 4272  13.566  27.387  23.514  0.3117  0.3308  0.1726
53484DOD     C3 4273  13.183  27.413  23.842  0.0242 -0.3467  0.2999
53485DOD     C1 4274  25.381  21.760  13.924  0.1125  0.2857 -0.2613
53485DOD     C2 4275  25.473  22.106  13.562 -0.1441 -0.1206 -0.2249
53485DOD     C3 4276  25.710  22.296  13.241  0.0848 -0.1190  0.1307
53486DOD     C1 4277  27.384  21.121  21.628 -0.1558  0.4194 -0.3957
53486DOD     C2 4278  27.769  21.179  21.324 -0.1487  0.0094  0.1435
53486DOD     C3 4279  28.128  21.173  20.986 -0.1272 -0.0268 -0.2233
53487DOD     C1 4280  14.810  12.479  19.318 -0.2529 -0.2238 -0.0546
53487DOD     C2 4281  14.613  12.071  19.220 -0.0511 -0.1363  0.0842
53487DOD     C3 4282  14.190  11.926  19.248 -0.1690  0.0147 -0.0291
53488DOD     C1 4283   0.941  26.023  20.947  0.0296  0.3427  0.0860
53488DOD     C2 4284   0.546  25.887  21.105  0.3269  0.0317 -0.2653
53488DOD     C3 4285   0.138  25.830  21.342 -0.2368 -0.2242 -0.0092
53489DOD     C1 4286  27.269  21.368  19.242 -0.3448 -0.0184 -0.1233
53489DOD     C2 4287  27.173  21.277  19.642 -0.1561  0.0891  0.1085
53489DOD     C3 4288  27.194  21.544  20.082 -0.4083  0.0340  0.2101
53490DOD     C1 4289  16.390  18.136  20.785 -0.1290  0.1290  0.1398
53490DOD     C2 4290  16.121  18.511  20.862 -0.0840 -0.1242 -0.2652
53490DOD     C3 4291  16.074  18.946  20.775 -0.1160  0.2596  0.0180
53491DOD     C1 4292   7.881   4.517  11.533  0.3645 -0.2426  0.1096
53491DOD     C2 4293   7.557   4.335  11.166  0.1951 -0.1043 -0.0917
53491DOD     C3 4294   7.245   4.068  10.872 -0.0409 -0.2230  0.2230
53492DOD     C1 4295   6.200  23.077   9.367 -0.3148  0.2365  0.4289
53492DOD     C2 4296   6.372  23.421   9.112  0.0247 -0.0603  0.1501
53492DOD     C3 4297   6.609  23.645   8.815 -0.1690  0.0224 -0.2533
53493DOD     C1 4298  21.639  13.701  13.715 -0.0242 -0.1363 -0.0280
53493DOD     C2 4299  21.584  14.082  13.424 -0.2091 -0.2506 -0.3432
53493DOD     C3 4300  21.195  14.436  13.283  0.1936  0.4467  0.3943
53494DOD     C1 4301  18.940  27.031   0.761 -0.0141 -0.1111  0.3209
53494DOD     C2 4302  18.581  27.068   0.989 -0.0901 -0.0375  0.2136
53494DOD     C3 4303  18.351  26.780   1.267  0.0457  0.1359  0.2703
53495DOD     C1 4304  13.202   0.860  16.600  0.2419 -0.1856 -0.1330
53495DOD     C2 4305  12.941   0.613  16.862  0.1239 -0.1794 -0.1544
53495DOD     C3 4306  12.665   0.398  17.193  0.2286  0.1147 -0.1504
53496DOD     C1 4307  10.849  10.158   1.147  0.0873  0.0430 -0.3580
53496DOD     C2 4308  10.746  10.557   1.210  0.1237  0.0761  0.1291
53496DOD     C3 4309  10.698  10.897   0.889 -0.1390 -0.0509  0.0465
53497DOD     C1 4310  27.283  19.682  15.386 -0.1048 -0.1623 -0.2038
53497DOD     C2 4311  27.085  19.813  15.005  0.1750 -0.1063  0.0971
53497DOD     C3 4312  27.027  20.125  14.684  0.2080 -0.0249  0.2494
53498DOD     C1 4313  10.201   5.108   4.757 -0.3471 -0.0408 -0.0026
53498DOD     C2 4314  10.555   5.022   4.479 -0.0882 -0.2450 -0.3137
53498DOD     C3 4315  10.473   4.765   4.157 -0.1123 -0.0392 -0.5461
53499DOD     C1 4316  11.450  22.308  11.591 -0.1815 -0.1325  0.0855
53499DOD     C2 4317  11.819  22.460  11.789  0.0500  0.3524  0.1624
53499DOD     C3 4318  12.054  22.755  12.111 -0.2934  0.0559 -0.0478
53500DOD     C1 4319  15.750  19.550   6.385  0.0853  0.0165  0.0032
53500DOD     C2 4320  15.277  19.619   6.464  0.1125 -0.1544  0.0263
53500DOD     C3 4321  14.980  19.937   6.421 -0.2284 -0.1050 -0.0998
53501DOD     C1 4322  21.581   3.348  11.028  0.3015 -0.3846  0.0556
53501DOD     C2 4323  21.696   3.342  10.603 -0.2624 -0.0064  0.1428
53501DOD     C3 4324  21.581   3.556  10.175 -0.3297  0.0140 -0.0941
53502DOD     C1 4325  27.891   8.917   9.945  0.1836 -0.2701  0.1390
53502DOD     C2 4326  27.827   9.091   9.490  0.2028 -0.0215 -0.2090
53502DOD     C3 4327  27.625   9.250   9.123 -0.0321  0.3858 -0.2018
53503DOD     C1 4328  16.702   3.005  26.985 -0.1895  0.0975  0.1740
53503DOD     C2 4329  16.942   2.935  26.577  0.0421 -0.1157 -0.1592
53503DOD     C3 4330  17.371   2.935  26.388 -0.2847  0.0843  0.2013
53504DOD     C1 4331  28.734   2.969  18.592  0.0017 -0.1985 -0.0558
53504DOD     C2 4332  29.172   2.994  18.839 -0.1413  0.0458 -0.0990
53504DOD     C3 4333  29.230   3.411  19.059 -0.0174 -0.1857  0.5360
53505DOD     C1 4334  13.212   2.490  23.798  0.2628  0.4084 -0.0561
53505DOD     C2 4335  13.410   2.366  23.446 -0.0127  0.0065 -0.1707
53505DOD     C3 4336  13.830   2.494  23.305  0.2533  0.4109 -0.4195
53506DOD     C1 4337  29.631  13.568   4.649 -0.2222  0.0065 -0.0679
53506DOD     C2 4338  29.275  13.480   4.314 -0.3570  0.4169 -0.0934
53506DOD     C3 4339  28.903  13.655   4.119  0.0946 -0.0389  0.2073
53507DOD     C1 4340  18.792  23.667  18.583  0.2585  0.2965 -0.0596
53507DOD     C2 4341  18.973  23.297  18.795 -0.2309 -0.0737 -0.0843
53507DOD     C3 4342  19.038  22.856  18.811  0.0258 -0.2375  0.0222
53508DOD     C1 4343  28.108  16.860   1.124  0.1929 -0.0954  0.2063
53508DOD     C2 4344  27.679  17.135   1.151  0.0704  0.0123  0.0379
53508DOD     C3 4345  27.233  17.343   1.123 -0.2402 -0.0937 -0.2241
53509DOD     C1 4346   8.957   8.039   7.389 -0.2054 -0.2977  0.1357
53509DOD     C2 4347   9.066   8.429   7.634 -0.4328  0.0251 -0.0595
53509DOD     C3 4348   9.252   8.843   7.783  0.0179 -0.2071  0.1277
53510DOD     C1 4349  13.899  20.101  24.178 -0.1750  0.2156  0.1770
53510DOD     C2 4350  14.194  20.332  24.505 -0.1882 -0.3154 -0.1139
53510DOD     C3 4351  14.259  20.271  24.906 -0.3640 -0.3585 -0.0264
53511DOD     C1 4352  11.146   1.941  22.589 -0.1967  0.1254  0.1254
53511DOD     C2 4353  11.389   2.245  22.848 -0.0799 -0.0346  0.0967
53511DOD     C3 4354  11.583   2.225  23.286  0.0319  0.0978 -0.0474
53512DOD     C1 4355   1.630   8.311  12.247  0.0081 -0.2341 -0.0980
53512DOD     C2 4356   1.257   8.368  12.571  0.0535 -0.0266  0.0064
53512DOD     C3 4357   0.879   8.439  12.884 -0.2666  0.1566 -0.0609
53513DOD     C1 4358   8.916  24.529  17.829 -0.0514  0.1483 -0.0633
53513DOD     C2 4359   8.466  24.390  17.788  0.2391 -0.1094 -0.1088
53513DOD     C3 4360   8.072  24.237  17.933  0.0895 -0.3894 -0.1773
53514DOD     C1 4361  18.720  12.109   5.353  0.0542  0.0232 -0.0907
53514DOD     C2 4362  18.479  12.490   5.351 -0.1216 -0.2500 -0.3547
53514DOD     C3 4363  18.411  12.780   5.761  0.1199 -0.0057  0.0718
53515DOD     C1 4364  29.953  19.940  29.168  0.1396  0.1488  0.1752
53515DOD     C2 4365  29.509  19.863  29.215  0.0274 -0.0347  0.0856
53515DOD     C3 4366  29.142  19.662  29.075  0.0896  0.2124 -0.1486
53516DOD     C1 4367  28.215  23.208  28.446 -0.0787 -0.2102  0.1975
53516DOD     C2 4368  27.925  23.562  28.315  0.1195 -0.4280 -0.0634
53516DOD     C3 4369  27.719  23.993  28.201 -0.1330 -0.1214 -0.3212
53517DOD     C1 4370  12.848   1.908  22.389  0.0544 -0.1209  0.1023
53517DOD     C2 4371  13.058   2.316  22.544  0.2141 -0.1921 -0.0107
53517DOD     C3 4372  13.222   2.731  22.397  0.0193 -0.2938 -0.1892
53518DOD     C1 4373  18.335   6.269  26.898  0.0106 -0.0366 -0.1409
53518DOD     C2 4374  18.046   6.147  26.601 -0.2642 -0.0815  0.4415
53518DOD     C3 4375  17.641   6.359  26.484 -0.1446 -0.1300 -0.2613
53519DOD     C1 4376  16.259  18.994  19.163  0.1104  0.2851  0.0091
53519DOD     C2 4377  16.006  19.397  19.276  0.0849 -0.0812 -0.0964
53519DOD     C3 4378  15.655  19.728  19.410  0.1427 -0.1422 -0.1937
53520DOD     C1 4379  27.900   5.287   3.543  0.0003  0.1905 -0.0382
53520DOD     C2 4380  27.656   5.481   3.194 -0.3611  0.0334 -0.0034
53520DOD     C3 4381  27.686   5.613   2.750  0.0051  0.1355 -0.2174
53521DOD     C1 4382  14.855   5.987  27.829 -0.0356  0.2520 -0.1453
53521DOD     C2 4383  14.970   5.750  27.487  0.2598  0.2941  0.0397
53521DOD     C3 4384  15.336   5.781  27.193 -0.2728 -0.0187  0.1269
53522DOD     C1 4385  12.637  28.434  25.920 -0.0546  0.0906  0.0674
53522DOD     C2 4386  12.677  28.902  25.988 -0.0009 -0.1169 -0.2217
53522DOD     C3 4387  12.787  29.268  26.276  0.2030 -0.1074  0.1192
53523DOD     C1 4388  20.364   0.358  13.562 -0.1487 -0.0242  0.1741
53523DOD     C2 4389  20.363   0.293  13.113  0.2173 -0.1053 -0.3737
53523DOD     C3 4390  20.386   0.612  12.792  0.3300 -0.0426  0.4194
53524DOD     C1 4391  19.595  26.621  18.840 -0.0873  0.2989  0.0044
53524DOD     C2 4392  19.658  26.537  18.370  0.1616 -0.4678  0.1027
53524DOD     C3 4393  19.718  26.567  17.889 -0.2927  0.0802  0.3443
53525DOD     C1 4394   2.034  25.556  18.062 -0.2795  0.0853 -0.2494
53525DOD     C2 4395   2.076  25.780  18.474  0.2151  0.0487  0.1933
53525DOD     C3 4396   2.317  25.908  18.876 -0.0347  0.1302 -0.0394
53526DOD     C1 4397  25.965   4.984  25.009  0.1077  0.0176 -0.1138
53526DOD     C2 4398  25.769   5.135  24.662 -0.0172 -0.4084 -0.2604
53526DOD     C3 4399  25.523   5.045  24.282  0.0862 -0.1153 -0.0602
53527DOD     C1 4400  12.001  13.358  14.354 -0.3526  0.0783 -0.0549
53527DOD     C2 4401  11.695  13.127  14.035 -0.0395 -0.0498 -0.1152
53527DOD     C3 4402  11.500  12.712  14.051 -0.0823  0.0881 -0.0865
53528DOD     C1 4403  24.361   8.804   5.148 -0.1533 -0.2047 -0.2424
53528DOD     C2 4404  23.915   8.902   5.232 -0.1408 -0.0162  0.0537
53528DOD     C3 4405  23.692   9.233   5.359  0.0145 -0.1474 -0.1358
53529DOD     C1 4406   7.860  29.711   4.848  0.0946 -0.0383 -0.4135
53529DOD     C2 4407   7.940  29.926   5.285  0.0824  0.2328  0.0817
53529DOD     C3 4408   8.034   0.015   5.529 -0.0260 -0.3151 -0.3536
53530DOD     C1 4409  12.340   9.988  10.142  0.0976 -0.0413 -0.3549
53530DOD     C2 4410  12.655   9.698  10.192  0.2931 -0.2999 -0.1061
53530DOD     C3 4411  12.995   9.561   9.946  0.1027  0.3152 -0.0670
53531DOD     C1 4412  20.128  22.504   3.800 -0.0277  0.0496  0.4918
53531DOD     C2 4413  19.826  22.160   3.632 -0.4274  0.2829  0.4199
53531DOD     C3 4414  19.612  21.759   3.511 -0.2693 -0.2866  0.0083
53532DOD     C1 4415   5.825   6.842  17.163 -0.3047 -0.1568  0.2126
53532DOD     C2 4416   6.111   6.890  17.496  0.1295  0.0321  0.0329
53532DOD     C3 4417   6.539   6.785  17.544 -0.0691  0.0762 -0.1014
53533DOD     C1 4418  24.657  12.854  24.364 -0.1015 -0.1171  0.3229
53533DOD     C2 4419  24.689  12.658  24.758 -0.2229  0.0401 -0.1380
53533DOD     C3 4420  24.738  12.270  25.048 -0.0849  0.2634 -0.0408
53534DOD     C1 4421  17.468  25.344  21.168  0.2547  0.1285 -0.0382
53534DOD     C2 4422  17.370  25.653  20.849  0.3198 -0.0466 -0.0655
53534DOD     C3 4423  17.379  25.740  20.320  0.2692  0.2582 -0.0411
53535DOD     C1 4424  20.618  14.728   0.313 -0.0915  0.2705  0.0932
53535DOD     C2 4425  20.462  15.044  30.339 -0.0043  0.1294  0.3010
53535DOD     C3 4426  20.606  15.077  29.888 -0.1596  0.1409  0.0353
53536DOD     C1 4427  29.393   5.029   5.622 -0.1584  0.1863 -0.4612
53536DOD     C2 4428  29.820   4.928   5.421 -0.3841  0.0703 -0.1226
53536DOD     C3 4429  30.276   4.788   5.273 -0.2045 -0.1369 -0.1521
53537DOD     C1 4430   1.173  25.600  15.936  0.2131 -0.0201  0.1405
53537DOD     C2 4431   1.354  25.758  15.523  0.3151 -0.0418 -0.1367
53537DOD     C3 4432   1.768  25.686  15.413 -0.2563  0.1515  0.4775
53538DOD     C1 4433   7.197   7.669   1.677 -0.0502  0.1504 -0.1378
53538DOD     C2 4434   7.314   7.931   2.036 -0.1240  0.1253 -0.0125
53538DOD     C3 4435   7.652   8.115   2.236 -0.1655 -0.1679 -0.2223
53539DOD     C1 4436  28.340   1.545  10.618 -0.0523  0.0338  0.1085
53539DOD     C2 4437  27.955   1.788  10.680  0.3718 -0.2254  0.1204
53539DOD     C3 4438  27.717   1.977  10.974  0.1887 -0.3146  0.1031
53540DOD     C1 4439  23.963  10.368   6.583 -0.1985 -0.2081 -0.2465
53540DOD     C2 4440  24.243   9.991   6.458 -0.0053 -0.6943 -0.1723
53540DOD     C3 4441  24.383   9.610   6.590  0.0554 -0.0802 -0.0039
53541DOD     C1 4442   6.287  26.569  19.193  0.1670 -0.1424  0.0436
53541DOD     C2 4443   6.674  26.401  19.309 -0.0693  0.0668  0.2583
53541DOD     C3 4444   6.957  26.085  19.530  0.0097  0.0772  0.3169
53542DOD     C1 4445  29.429  17.552  11.505  0.2976  0.1031 -0.2491
53542DOD     C2 4446  29.023  17.515  11.280  0.0021 -0.3532  0.1092
53542DOD     C3 4447  28.628  17.747  11.176  0.1976  0.0807  0.1148
53543DOD     C1 4448   6.871  11.864   5.856 -0.1902  0.1132  0.1734
53543DOD     C2 4449   6.786  11.500   5.613 -0.0842  0.1687  0.0999
53543DOD     C3 4450   6.658  11.055   5.367 -0.2295 -0.1511 -0.0426
53544DOD     C1 4451  21.659  10.643   9.937  0.1646 -0.1092 -0.0621
53544DOD     C2 4452  21.809  10.377   9.553 -0.2572 -0.1899  0.0572
53544DOD     C3 4453  21.707  10.334   9.051  0.2261  0.1613 -0.1317
53545DOD     C1 4454  26.216  16.406   4.878  0.0146 -0.0225 -0.2573
53545DOD     C2 4455  25.803  16.253   4.880 -0.0433  0.0537 -0.0682
53545DOD     C3 4456  25.420  16.074   5.048 -0.0897  0.0788  0.1276
53546DOD     C1 4457  15.829  15.645   2.218 -0.0416 -0.3920 -0.0759
53546DOD     C2 4458  16.040  15.672   1.828  0.0402 -0.0297  0.0670
53546DOD     C3 4459  16.017  15.528   1.388 -0.2489  0.5428 -0.0772
53547DOD     C1 4460  29.877  16.600  29.614 -0.0507  0.2677  0.0891
53547DOD     C2 4461  29.993  16.346  29.927  0.1077 -0.1691 -0.3145
53547DOD     C3 4462   0.084  16.286  30.140  0.0639  0.1675 -0.0027
53548DOD     C1 4463  29.544  16.074   5.495  0.0422 -0.0470 -0.0874
53548DOD     C2 4464  29.172  16.191   5.331 -0.0934 -0.1267  0.2722
53548DOD     C3 4465  28.810  16.074   5.207  0.0793  0.3292 -0.0803
53549DOD     C1 4466  25.820  29.093  27.374 -0.1505  0.2704 -0.0207
53549DOD     C2 4467  25.672  28.760  27.607 -0.0216  0.0785 -0.0382
53549DOD     C3 4468  25.481  28.785  28.053 -0.0731 -0.2239  0.2078
53550DOD     C1 4469  25.277  28.785   5.858 -0.3265 -0.2098 -0.2260
53550DOD     C2 4470  25.677  28.994   5.763  0.0891  0.0951  0.1066
53550DOD     C3 4471  25.984  29.201   5.559  0.0240 -0.1855  0.1100
53551DOD     C1 4472  21.543   5.312  10.165  0.0677 -0.0427 -0.0814
53551DOD     C2 4473  21.429   4.878  10.331 -0.2109 -0.1577  0.2893
53551DOD     C3 4474  21.616   4.460  10.434 -0.0493 -0.0747 -0.0394
53552DOD     C1 4475  29.056  24.044   5.864 -0.3147 -0.2265  0.1180
53552DOD     C2 4476  28.975  23.641   5.609 -0.1369 -0.3314  0.2633
53552DOD     C3 4477  28.831  23.296   5.329 -0.0314  0.1068 -0.2692
53553DOD     C1 4478   3.961  18.078  20.300  0.3308  0.3313  0.2510
53553DOD     C2 4479   3.620  17.746  20.436  0.3317 -0.0657  0.2643
53553DOD     C3 4480   3.203  17.843  20.279 -0.1663  0.1139  0.1283
53554DOD     C1 4481   7.777  24.235  29.692 -0.0237 -0.0004 -0.1540
53554DOD     C2 4482   7.811  24.598  29.372 -0.0194 -0.0648  0.1793
53554DOD     C3 4483   8.190  24.793  29.296  0.2238 -0.3379 -0.1139
53555DOD     C1 4484  22.684  22.593   7.423  0.2937 -0.1045 -0.3982
53555DOD     C2 4485  22.216  22.429   7.275  0.1162 -0.1645 -0.1582
53555DOD     C3 4486  21.834  22.188   7.306  0.1113 -0.3034  0.1635
53556DOD     C1 4487  26.592   8.192  24.068  0.2270 -0.2128  0.1756
53556DOD     C2 4488  26.934   8.285  23.860  0.0179  0.1813  0.1642
53556DOD     C3 4489  27.136   8.633  23.637 -0.1297 -0.3528 -0.1099
53557DOD     C1 4490  19.160   3.095  15.286 -0.3630 -0.0450  0.1801
53557DOD     C2 4491  18.964   2.687  15.172  0.0474  0.0193 -0.0168
53557DOD     C3 4492  18.955   2.225  15.176  0.4796  0.1911 -0.0326
53558DOD     C1 4493  19.958  14.441  20.037 -0.0288  0.1361 -0.2029
53558DOD     C2 4494  20.399  14.450  19.798  0.2357  0.3015 -0.1418
53558DOD     C3 4495  20.813  14.609  19.822 -0.4386  0.2036  0.0306
53559DOD     C1 4496   9.667   8.680   8.965  0.3438  0.2324  0.0401
53559DOD     C2 4497   9.285   8.831   8.887  0.0040  0.0417  0.0800
53559DOD     C3 4498   8.858   9.021   8.952 -0.2455  0.2362 -0.1890
53560DOD     C1 4499  23.883  24.530  26.770 -0.0385 -0.0478 -0.2223
53560DOD     C2 4500  23.840  24.423  26.288  0.0527 -0.0503 -0.1088
53560DOD     C3 4501  23.897  24.475  25.863 -0.2456 -0.0984  0.0463
53561DOD     C1 4502  24.088  11.078  12.646 -0.1245  0.2347  0.1119
53561DOD     C2 4503  24.421  10.740  12.786 -0.0867 -0.2260 -0.1089
53561DOD     C3 4504  24.618  10.302  12.802  0.0448  0.4629  0.1256
53562DOD     C1 4505   5.023  16.847  25.167 -0.1025 -0.0263  0.1727
53562DOD     C2 4506   5.457  16.659  25.169 -0.1715  0.0222  0.3674
53562DOD     C3 4507   5.766  16.549  24.830 -0.0459  0.0891  0.2358
53563DOD     C1 4508  21.229   8.032   0.376  0.4432  0.1410  0.3210
53563DOD     C2 4509  21.271   8.061   0.862  0.2252  0.0766  0.0001
53563DOD     C3 4510  21.273   8.055   1.355 -0.1842 -0.1921  0.0306
53564DOD     C1 4511  14.563  25.493  12.603 -0.0966 -0.0190 -0.1255
53564DOD     C2 4512  14.444  25.173  12.282 -0.2011  0.0662  0.1107
53564DOD     C3 4513  14.611  24.943  11.883  0.0261 -0.1915  0.1421
53565DOD     C1 4514  15.387  16.527  25.056 -0.2693  0.1541 -0.0633
53565DOD     C2 4515  15.767  16.829  25.203  0.3859  0.2073  0.1375
53565DOD     C3 4516  16.203  17.015  25.363 -0.0734 -0.0881 -0.2522
53566DOD     C1 4517  26.836   6.764   5.880 -0.2002  0.3086 -0.1189
53566DOD     C2 4518  26.569   6.659   6.228 -0.0042 -0.2706  0.1159
53566DOD     C3 4519  26.087   6.470   6.367 -0.1063  0.0404 -0.0065
53567DOD     C1 4520  26.024  12.285  26.652 -0.0333  0.2700 -0.0112
53567DOD     C2 4521  26.214  12.178  27.045  0.0606  0.3162  0.0766
53567DOD     C3 4522  26.371  11.832  27.355 -0.2418  0.3753  0.1304
53568DOD     C1 4523   6.422   3.709  16.945  0.0933  0.0884 -0.1376
53568DOD     C2 4524   6.592   3.328  17.181 -0.0536 -0.0908  0.1760
53568DOD     C3 4525   6.677   2.996  17.528  0.3516  0.0822  0.0102
53569DOD     C1 4526   8.272  13.892   0.038 -0.0084 -0.0034  0.0817
53569DOD     C2 4527   7.863  13.796  30.320  0.2392 -0.0336  0.1135
53569DOD     C3 4528   7.441  13.663   0.173  0.0196 -0.1189 -0.2470
53570DOD     C1 4529   3.117  25.394  23.010  0.0139  0.1809 -0.0589
53570DOD     C2 4530   2.766  25.366  22.749  0.0060  0.0634  0.1674
53570DOD     C3 4531   2.378  25.638  22.764  0.0047 -0.2609  0.1774
53571DOD     C1 4532  16.744   1.416   8.670  0.3577 -0.2407 -0.1204
53571DOD     C2 4533  16.549   1.138   9.010  0.2891  0.1021  0.0901
53571DOD     C3 4534  16.465   1.233   9.458 -0.2326 -0.2784 -0.1228
53572DOD     C1 4535  24.260   6.943  19.321  0.2039 -0.0923 -0.2290
53572DOD     C2 4536  24.241   6.729  19.805 -0.2702  0.2384  0.1380
53572DOD     C3 4537  24.252   6.626  20.249  0.2882  0.3010  0.0298
53573DOD     C1 4538  17.152  23.966   8.954 -0.1404 -0.1330 -0.2545
53573DOD     C2 4539  16.936  23.953   8.610 -0.1714 -0.0122 -0.2506
53573DOD     C3 4540  16.654  24.042   8.269  0.0241 -0.3248 -0.0966
53574DOD     C1 4541   8.524   7.456  20.602  0.0790 -0.1454  0.1922
53574DOD     C2 4542   8.958   7.415  20.497  0.0876 -0.2136 -0.4722
53574DOD     C3 4543   9.144   7.524  20.059  0.1990 -0.2731  0.2041
53575DOD     C1 4544  24.276  10.013   8.236 -0.1198 -0.1041 -0.0055
53575DOD     C2 4545  24.277   9.689   7.920  0.0389  0.0389 -0.1289
53575DOD     C3 4546  24.315   9.422   7.538  0.1582  0.2442 -0.3798
53576DOD     C1 4547  26.673  25.135  29.419 -0.3773  0.0143  0.0510
53576DOD     C2 4548  26.483  25.531  29.615  0.2566 -0.1278 -0.1634
53576DOD     C3 4549  26.451  25.856  29.938  0.1112  0.2240 -0.0240
53577DOD     C1 4550  17.693  15.551  16.007 -0.1470  0.1468 -0.1571
53577DOD     C2 4551  17.508  15.805  16.372 -0.0159 -0.0293  0.0485
53577DOD     C3 4552  17.249  16.149  16.528 -0.0283  0.1725 -0.0372
53578DOD     C1 4553   3.499   6.786  24.518  0.1100  0.3134  0.1760
53578DOD     C2 4554   3.926   6.943  24.579 -0.1682  0.1509  0.2119
53578DOD     C3 4555   4.280   7.160  24.676 -0.0110 -0.4417 -0.3283
53579DOD     C1 4556  22.309  16.742  25.963  0.0262  0.0756 -0.3211
53579DOD     C2 4557  22.819  16.655  25.977  0.1000 -0.4480  0.0962
53579DOD     C3 4558  23.103  17.011  26.134 -0.0278 -0.1828 -0.3077
53580DOD     C1 4559   9.724   6.119   0.064 -0.0625 -0.0509 -0.0212
53580DOD     C2 4560  10.016   6.243   0.369  0.2319 -0.1705 -0.1954
53580DOD     C3 4561  10.373   6.573   0.452 -0.0877  0.4058  0.0201
53581DOD     C1 4562  28.259  21.082   4.449  0.0774 -0.2404 -0.0255
53581DOD     C2 4563  28.439  21.208   4.840  0.0235 -0.2752 -0.1967
53581DOD     C3 4564  28.853  21.079   5.058  0.3179  0.0862  0.0202
53582DOD     C1 4565  29.264  24.367  10.154 -0.0985 -0.0897  0.1390
53582DOD     C2 4566  29.626  24.195   9.906 -0.1673 -0.3136 -0.0237
53582DOD     C3 4567  29.866  23.825   9.816  0.0986  0.0531  0.0149
53583DOD     C1 4568  12.990   0.199   0.600  0.0001  0.0407 -0.0401
53583DOD     C2 4569  12.891   0.639   0.375 -0.2678 -0.2748 -0.0296
53583DOD     C3 4570  12.920   1.068   0.251  0.2401 -0.0446  0.0104
53584DOD     C1 4571  16.577  26.164  21.203  0.1466 -0.1804  0.1882
53584DOD     C2 4572  16.569  25.972  20.789  0.3407 -0.0965  0.0723
53584DOD     C3 4573  16.493  25.683  20.439 -0.2295 -0.3321 -0.1359
53585DOD     C1 4574  21.557   4.880  26.748  0.4654 -0.1589  0.0448
53585DOD     C2 4575  21.179   4.570  26.896 -0.0319  0.0541 -0.1718
53585DOD     C3 4576  21.079   4.218  27.148 -0.0176  0.0178  0.0157
53586DOD     C1 4577   2.756  14.136  15.278  0.2739  0.2870  0.1774
53586DOD     C2 4578   3.000  14.577  15.117  0.1024  0.1462 -0.0834
53586DOD     C3 4579   3.379  14.639  14.817 -0.1794 -0.1491 -0.0474
53587DOD     C1 4580   0.669  29.597  25.891 -0.0540 -0.0951 -0.1553
53587DOD     C2 4581   0.770  29.181  26.059  0.4613 -0.0495 -0.0550
53587DOD     C3 4582   1.019  28.814  25.997  0.3392 -0.0027  0.0786
53588DOD     C1 4583  23.338  13.986  20.448  0.2362 -0.1755 -0.1107
53588DOD     C2 4584  23.729  14.094  20.301  0.1657 -0.2602 -0.2898
53588DOD     C3 4585  23.977  14.430  19.988 -0.3006  0.2461  0.1453
53589DOD     C1 4586  22.458  11.805  18.284  0.4306 -0.1345  0.4263
53589DOD     C2 4587  22.307  11.338  18.385  0.1261  0.3738  0.0766
53589DOD     C3 4588  22.223  11.013  18.650 -0.1206  0.1045 -0.0377
53590DOD     C1 4589  16.168   4.316  28.289  0.2111 -0.0462  0.2931
53590DOD     C2 4590  15.930   4.546  28.599 -0.0604  0.2122 -0.0529
53590DOD     C3 4591  15.612   4.666  28.909 -0.0108  0.0501  0.2013
53591DOD     C1 4592  14.120  12.241  18.386  0.0887 -0.0784  0.2532
53591DOD     C2 4593  14.493  12.509  18.449  0.2025  0.3099  0.5646
53591DOD     C3 4594  14.620  12.988  18.473 -0.2135  0.1129  0.4014
53592DOD     C1 4595   7.644   9.403  29.759 -0.0398 -0.1144 -0.1093
53592DOD     C2 4596   7.715   9.185  30.126 -0.3208 -0.0196 -0.2693
53592DOD     C3 4597   7.571   8.953   0.180 -0.4196  0.2380 -0.4672
53593DOD     C1 4598  10.399   2.849  15.488 -0.3796 -0.1767  0.4847
53593DOD     C2 4599  10.295   2.806  14.994 -0.2904  0.0719  0.0567
53593DOD     C3 4600  10.159   2.509  14.669 -0.0636  0.0268  0.0428
53594DOD     C1 4601  15.585   9.393  19.868  0.2456  0.1708 -0.1184
53594DOD     C2 4602  15.853   9.168  20.156  0.0003  0.2348 -0.0131
53594DOD     C3 4603  16.160   8.882  20.393 -0.1549  0.2807  0.0126
53595DOD     C1 4604  19.133   7.380  28.136 -0.0050 -0.1255 -0.0487
53595DOD     C2 4605  19.287   7.811  28.294  0.0145 -0.0824 -0.4999
53595DOD     C3 4606  19.631   7.931  28.653  0.0306 -0.3535  0.1028
53596DOD     C1 4607  29.021  11.529  11.493 -0.0234  0.0580 -0.1451
53596DOD     C2 4608  28.955  11.565  11.931 -0.2850 -0.3158 -0.2844
53596DOD     C3 4609  28.859  11.396  12.412  0.0619 -0.1424  0.2378
53597DOD     C1 4610   3.332  24.978  14.519 -0.3177  0.0292  0.3440
53597DOD     C2 4611   2.965  25.066  14.704  0.3701 -0.2550  0.0310
53597DOD     C3 4612   2.787  25.321  15.073  0.1274  0.0934  0.0195
53598DOD     C1 4613  11.549  12.151  13.947 -0.0077  0.0064  0.1862
53598DOD     C2 4614  11.104  11.960  14.072 -0.0984  0.1932 -0.0261
53598DOD     C3 4615  10.837  11.592  14.241 -0.0774  0.1939 -0.0475
53599DOD     C1 4616   9.725   8.582  12.118 -0.0864  0.1466 -0.0823
53599DOD     C2 4617   9.971   8.401  12.503 -0.3982  0.1360  0.1019
53599DOD     C3 4618  10.161   8.536  12.916 -0.0734 -0.2334  0.0958
53600DOD     C1 4619   4.922   8.210  21.215 -0.1642 -0.0539 -0.0352
53600DOD     C2 4620   4.909   8.639  21.450  0.0311 -0.1706  0.2962
53600DOD     C3 4621   4.667   8.834  21.756 -0.3133 -0.0145  0.0236
53601DOD     C1 4622  22.914   1.936   7.600 -0.0714  0.0412 -0.0753
53601DOD     C2 4623  23.231   1.919   7.290 -0.0355  0.4021  0.0562
53601DOD     C3 4624  23.610   1.857   6.993  0.1830 -0.1198 -0.1385
53602DOD     C1 4625  11.744  28.684  11.960 -0.0154  0.0310  0.1186
53602DOD     C2 4626  11.491  28.861  12.344 -0.3431 -0.1700  0.1960
53602DOD     C3 4627  11.100  29.043  12.480  0.1708 -0.3408 -0.3023
53603DOD     C1 4628   7.802   6.757  26.024  0.0422 -0.3144 -0.1702
53603DOD     C2 4629   7.922   6.364  25.732  0.2121 -0.0214  0.4425
53603DOD     C3 4630   7.681   5.980  25.752 -0.1815 -0.0776 -0.4496
53604DOD     C1 4631   8.721   4.825  13.175 -0.1375  0.1441  0.0744
53604DOD     C2 4632   9.121   4.724  13.126  0.0219  0.0525 -0.0070
53604DOD     C3 4633   9.349   4.368  13.311  0.4932  0.2234  0.1482
53605DOD     C1 4634  19.288  19.851   6.051  0.1920 -0.0957 -0.0145
53605DOD     C2 4635  19.138  19.964   6.464  0.1665  0.0038 -0.1144
53605DOD     C3 4636  19.449  20.210   6.834 -0.0851 -0.0529  0.1107
53606DOD     C1 4637  18.272  11.739  15.750 -0.0749  0.0609  0.2185
53606DOD     C2 4638  18.719  11.830  15.908  0.1806  0.0420 -0.1292
53606DOD     C3 4639  19.055  12.136  15.949  0.1112 -0.1354  0.1516
53607DOD     C1 4640  11.308   9.237  16.574 -0.0650  0.0784  0.2457
53607DOD     C2 4641  11.549   9.048  16.268  0.0920 -0.0114  0.1602
53607DOD     C3 4642  11.758   8.704  16.179  0.1379  0.0792  0.0284
53608DOD     C1 4643  23.170  29.539   0.732 -0.3165  0.0607  0.0066
53608DOD     C2 4644  23.185  29.988   0.743  0.1071 -0.0514  0.2047
53608DOD     C3 4645  23.306   0.074   0.871  0.0985  0.0709 -0.0267
53609DOD     C1 4646   2.524  26.289   0.835  0.1549  0.1231 -0.0190
53609DOD     C2 4647   2.656  26.278   0.342 -0.2271 -0.0437 -0.1648
53609DOD     C3 4648   2.526  26.368  30.248 -0.1985  0.0400 -0.0622
53610DOD     C1 4649  10.342   3.693  16.612 -0.2696 -0.2180  0.2686
53610DOD     C2 4650  10.633   3.328  16.738 -0.1688 -0.0193 -0.1612
53610DOD     C3 4651  10.916   3.185  16.983  0.1609 -0.0364 -0.0375
53611DOD     C1 4652   0.836  13.748  23.851  0.1228 -0.0287  0.3253
53611DOD     C2 4653   1.008  13.789  23.437 -0.1315  0.0105  0.1012
53611DOD     C3 4654   0.794  14.065  23.128  0.0353 -0.2109 -0.1043
53612DOD     C1 4655   3.007   8.604   2.493 -0.0362 -0.2368 -0.1224
53612DOD     C2 4656   3.396   8.763   2.174  0.1213 -0.0472  0.0788
53612DOD     C3 4657   3.696   9.112   2.211 -0.0501  0.2837  0.0543
53613DOD     C1 4658  14.260  15.885  12.503 -0.0583 -0.2218  0.1462
53613DOD     C2 4659  14.555  15.527  12.605 -0.1554  0.0152 -0.0468
53613DOD     C3 4660  14.857  15.162  12.792 -0.0869  0.1022  0.1929
53614DOD     C1 4661   4.879  16.397  21.675 -0.1238 -0.1113  0.0563
53614DOD     C2 4662   4.932  16.439  22.169  0.0740 -0.1032 -0.2824
53614DOD     C3 4663   4.989  16.074  22.441 -0.1783  0.0737 -0.1197
53615DOD     C1 4664  12.354   0.620   2.013 -0.0702 -0.1190 -0.1125
53615DOD     C2 4665  12.358   0.229   2.155  0.0175  0.2099  0.3665
53615DOD     C3 4666  12.465  30.081   2.165 -0.0854 -0.1041  0.1007
53616DOD     C1 4667  26.228  14.389  24.967  0.2040 -0.1198  0.1028
53616DOD     C2 4668  26.729  14.347  24.862  0.0554 -0.1161  0.2867
53616DOD     C3 4669  27.121  14.202  24.695 -0.3515 -0.0631  0.2681
53617DOD     C1 4670   5.673   4.442  25.864 -0.1770 -0.0123  0.0472
53617DOD     C2 4671   5.178   4.642  25.869  0.2464  0.2285  0.0473
53617DOD     C3 4672   4.893   4.912  25.576  0.3781  0.2980  0.2316
53618DOD     C1 4673  16.182   7.106   8.401 -0.0775  0.0795 -0.0268
53618DOD     C2 4674  16.140   7.515   8.215  0.1306 -0.0337 -0.0660
53618DOD     C3 4675  16.284   7.981   8.243  0.1816 -0.0966 -0.0023
53619DOD     C1 4676  22.923   8.876  14.931  0.1081  0.1692 -0.1439
53619DOD     C2 4677  23.359   8.825  15.120 -0.2207  0.1745  0.2808
53619DOD     C3 4678  23.489   8.948  15.561  0.1435 -0.0983  0.0092
53620DOD     C1 4679   5.458  10.838  21.944  0.0002 -0.2731  0.0413
53620DOD     C2 4680   5.860  10.892  21.636  0.2911  0.1133  0.2322
53620DOD     C3 4681   6.283  10.762  21.587 -0.1879  0.3158 -0.0635
53621DOD     C1 4682  22.473  15.338  26.290  0.1612  0.0114  0.1831
53621DOD     C2 4683  22.313  15.813  26.175  0.1219 -0.0245  0.3786
53621DOD     C3 4684  22.401  16.204  26.050 -0.0795 -0.2050  0.0220
53622DOD     C1 4685   3.986  10.439   4.788 -0.1462 -0.1037 -0.1368
53622DOD     C2 4686   3.546  10.501   4.671  0.1002  0.1098  0.1044
53622DOD     C3 4687   3.259  10.416   4.354 -0.1859 -0.0721  0.2314
53623DOD     C1 4688  26.551   1.348  10.747 -0.3647 -0.4540  0.3249
53623DOD     C2 4689  26.642   0.976  11.044 -0.0745 -0.1332  0.2057
53623DOD     C3 4690  26.879   0.568  11.161 -0.0691  0.0665 -0.0183
53624DOD     C1 4691  13.156  16.911   4.278  0.2710 -0.1882 -0.1937
53624DOD     C2 4692  12.819  17.116   4.014 -0.2260 -0.4512 -0.0746
53624DOD     C3 4693  12.696  16.949   3.602  0.1626  0.1024  0.0877
53625DOD     C1 4694  23.792  24.221  25.182  0.2154  0.2186  0.1057
53625DOD     C2 4695  23.364  24.002  25.246  0.0834 -0.1629  0.4690
53625DOD     C3 4696  22.964  24.084  25.060 -0.2507  0.0211  0.0795
53626DOD     C1 4697   9.299  29.150  26.493  0.3124  0.1508  0.1305
53626DOD     C2 4698   8.856  29.258  26.656  0.1602  0.1949 -0.1525
53626DOD     C3 4699   8.421  29.400  26.561  0.1405  0.2207  0.1662
53627DOD     C1 4700  17.674   7.753   4.245 -0.1709  0.2832 -0.1977
53627DOD     C2 4701  17.974   7.386   4.208  0.0973  0.5387  0.3501
53627DOD     C3 4702  18.057   7.138   4.594  0.1371 -0.0567 -0.0789
53628DOD     C1 4703   1.287   7.797  16.501 -0.0926 -0.2368  0.1204
53628DOD     C2 4704   1.479   7.492  16.170 -0.0761 -0.2613  0.0385
53628DOD     C3 4705   1.630   7.142  15.925  0.0588  0.0004  0.1292
53629DOD     C1 4706   4.611  22.538  22.923 -0.0036 -0.0979 -0.2723
53629DOD     C2 4707   4.335  22.183  23.106  0.2507 -0.0284 -0.0160
53629DOD     C3 4708   3.920  21.979  23.246  0.2906 -0.1258  0.2156
53630DOD     C1 4709   1.163  14.091   0.709  0.0997  0.2043 -0.0915
53630DOD     C2 4710   1.261  14.524   0.537 -0.1402  0.0060  0.0113
53630DOD     C3 4711   1.219  14.964   0.788 -0.1539  0.0966 -0.0205
53631DOD     C1 4712   1.113  20.348  16.772  0.0275  0.0164  0.0010
53631DOD     C2 4713   0.898  20.609  17.045  0.1083 -0.2391  0.1747
53631DOD     C3 4714   0.996  20.930  17.360  0.0037 -0.0829  0.0746
53632DOD     C1 4715   8.685   8.520   4.427  0.0520  0.1772  0.1199
53632DOD     C2 4716   8.493   8.123   4.499 -0.2077 -0.0691  0.0914
53632DOD     C3 4717   8.091   8.087   4.760  0.0465  0.0375  0.0894
53633DOD     C1 4718  24.889  28.810  27.117  0.0324 -0.0488  0.4303
53633DOD     C2 4719  24.496  28.529  27.208  0.1182  0.1707 -0.0105
53633DOD     C3 4720  24.141  28.437  26.900 -0.1670  0.1061 -0.0064
53634DOD     C1 4721   6.638  25.436  28.713  0.2425  0.2193 -0.1027
53634DOD     C2 4722   6.248  25.665  28.952  0.2163 -0.3608  0.2928
53634DOD     C3 4723   5.833  25.818  29.123 -0.1389 -0.0767 -0.2882
53635DOD     C1 4724  19.385  27.004  24.243 -0.1451 -0.0911  0.3702
53635DOD     C2 4725  19.499  26.764  23.882  0.1190  0.0509  0.0648
53635DOD     C3 4726  19.840  26.726  23.654 -0.1749  0.0403 -0.1692
53636DOD     C1 4727   1.140  11.227   4.713  0.1698  0.0138 -0.0879
53636DOD     C2 4728   1.516  11.515   4.696  0.0793  0.0861  0.0818
53636DOD     C3 4729   1.812  11.909   4.592 -0.1086  0.0751  0.0893
53637DOD     C1 4730  11.533  15.821   2.987  0.0262  0.1054 -0.0288
53637DOD     C2 4731  11.197  15.531   3.044  0.5174  0.2447  0.3285
53637DOD     C3 4732  10.934  15.188   2.812  0.2284  0.1814 -0.0097
53638DOD     C1 4733   4.865  28.059   7.821 -0.0653  0.1142 -0.1153
53638DOD     C2 4734   4.854  28.490   7.794  0.0354  0.0308  0.1355
53638DOD     C3 4735   4.733  28.893   7.737 -0.2637 -0.1057  0.2154
53639DOD     C1 4736  28.096   9.554  18.830 -0.0917  0.2151  0.2955
53639DOD     C2 4737  28.326   9.245  18.593  0.1969  0.2990  0.3395
53639DOD     C3 4738  28.637   8.923  18.499 -0.1188 -0.1607  0.0782
53640DOD     C1 4739   8.160   6.321  24.153  0.1298  0.0036  0.2926
53640DOD     C2 4740   8.515   6.614  24.372  0.1349 -0.0739  0.1910
53640DOD     C3 4741   8.493   6.763  24.790  0.2728 -0.0112  0.1147
53641DOD     C1 4742  10.311  26.148  19.108  0.0127 -0.0235  0.4684
53641DOD     C2 4743  10.229  25.815  19.453 -0.0253 -0.3722  0.1052
53641DOD     C3 4744  10.275  25.525  19.831 -0.0902  0.0423  0.3061
53642DOD     C1 4745  29.313   8.484  11.349  0.1560 -0.0511  0.2511
53642DOD     C2 4746  29.280   8.464  10.840  0.1289 -0.0511  0.0377
53642DOD     C3 4747  29.299   8.506  10.414  0.4944  0.1799  0.0733
53643DOD     C1 4748   6.232  14.283  23.308  0.2064 -0.0567 -0.2196
53643DOD     C2 4749   6.322  14.527  22.905  0.2543 -0.0576 -0.1795
53643DOD     C3 4750   6.155  14.853  22.634 -0.0523  0.3174  0.0391
53644DOD     C1 4751  27.004   4.893  16.227 -0.0846 -0.2233  0.0361
53644DOD     C2 4752  27.025   5.003  16.656  0.2053  0.0100  0.1724
53644DOD     C3 4753  27.010   5.044  17.117 -0.3702  0.1721  0.1102
53645DOD     C1 4754   3.530   5.904  15.719  0.0413 -0.3249 -0.2426
53645DOD     C2 4755   3.947   6.175  15.673 -0.0300 -0.0342 -0.2381
53645DOD     C3 4756   4.379   6.334  15.621 -0.0437  0.0025 -0.0245
53646DOD     C1 4757   6.544   7.723  14.088 -0.2810  0.3086  0.3028
53646DOD     C2 4758   6.615   8.164  14.210 -0.0570  0.3152  0.0212
53646DOD     C3 4759   7.013   8.339  14.432 -0.4870 -0.2816  0.1313
53647DOD     C1 4760   3.670  20.618   2.482 -0.0700 -0.0214 -0.1026
53647DOD     C2 4761   3.606  21.051   2.666  0.0448  0.0428 -0.0549
53647DOD     C3 4762   3.690  21.522   2.708 -0.1351 -0.0052 -0.3637
53648DOD     C1 4763  15.294  16.353   6.567  0.2265 -0.2032  0.4177
53648DOD     C2 4764  15.300  15.904   6.697 -0.1134  0.5392  0.1964
53648DOD     C3 4765  15.256  15.550   7.099 -0.0955 -0.3329  0.1638
53649DOD     C1 4766  29.330   2.158  18.747  0.0352 -0.2211  0.0990
53649DOD     C2 4767  29.256   1.746  18.558 -0.0466  0.5416  0.2411
53649DOD     C3 4768  29.060   1.380  18.243  0.4832  0.1707  0.1450
53650DOD     C1 4769   0.977   6.424  16.903 -0.1368  0.2534 -0.2571
53650DOD     C2 4770   1.200   6.601  16.554 -0.2603  0.3122 -0.1762
53650DOD     C3 4771   1.106   6.880  16.179  0.0168  0.0990 -0.0876
53651DOD     C1 4772  26.692  23.512   7.293 -0.0224 -0.2974 -0.0566
53651DOD     C2 4773  26.803  23.259   7.659 -0.0418  0.2347  0.2645
53651DOD     C3 4774  27.161  22.942   7.776 -0.1177  0.0568  0.0223
53652DOD     C1 4775  28.727  20.303   7.716 -0.2133 -0.0472  0.0978
53652DOD     C2 4776  28.620  20.632   8.028  0.2130  0.3056 -0.2170
53652DOD     C3 4777  28.367  20.927   8.240  0.3457 -0.1202  0.3675
53653DOD     C1 4778  23.974  27.391  22.459 -0.2006 -0.1316  0.0318
53653DOD     C2 4779  23.983  27.355  22.958 -0.2274 -0.0447 -0.0700
53653DOD     C3 4780  23.983  26.983  23.138 -0.2103  0.3029  0.3563
53654DOD     C1 4781  10.087  16.919  17.599 -0.3128  0.1296 -0.1666
53654DOD     C2 4782   9.991  16.480  17.554 -0.1450  0.3303 -0.3386
53654DOD     C3 4783   9.621  16.275  17.400  0.2514  0.2299  0.2077
53655DOD     C1 4784  18.181   6.344  29.391 -0.2232 -0.0261 -0.3507
53655DOD     C2 4785  17.781   6.211  29.485 -0.1871  0.0401 -0.2522
53655DOD     C3 4786  17.449   5.909  29.698 -0.1227  0.2579 -0.0574
53656DOD     C1 4787  26.527  26.800  16.370  0.1646  0.1641 -0.0548
53656DOD     C2 4788  26.230  26.523  16.178  0.4274 -0.5125 -0.2692
53656DOD     C3 4789  25.803  26.295  16.249 -0.0810 -0.5276  0.1205
53657DOD     C1 4790  22.314   1.422  11.863  0.3979 -0.0136  0.0113
53657DOD     C2 4791  22.277   1.768  12.180 -0.0423 -0.1301  0.1930
53657DOD     C3 4792  22.256   2.236  12.271 -0.1288 -0.4212 -0.0620
53658DOD     C1 4793  23.998  14.787  10.619  0.0455 -0.0606 -0.0473
53658DOD     C2 4794  23.635  14.604  10.917 -0.1356 -0.0226 -0.0647
53658DOD     C3 4795  23.213  14.589  11.174  0.1183  0.0055  0.1518
53659DOD     C1 4796  26.949  28.178   7.366 -0.0813 -0.1117 -0.0045
53659DOD     C2 4797  27.384  28.080   7.540  0.2609 -0.0802 -0.0889
53659DOD     C3 4798  27.825  27.948   7.455 -0.4869  0.0798 -0.0655
53660DOD     C1 4799   1.913  12.719  17.260 -0.0291 -0.1672  0.1208
53660DOD     C2 4800   1.780  12.718  17.726 -0.3008 -0.2149  0.1346
53660DOD     C3 4801   1.902  12.780  18.156 -0.0078  0.2590  0.2049
53661DOD     C1 4802   3.253  19.751  16.564  0.1545 -0.3243 -0.0470
53661DOD     C2 4803   3.517  19.717  16.944 -0.2718  0.1847  0.1499
53661DOD     C3 4804   3.924  19.768  17.125 -0.1222 -0.1076 -0.0604
53662DOD     C1 4805  14.065  11.568  19.531  0.1621 -0.2758 -0.1389
53662DOD     C2 4806  14.487  11.726  19.722 -0.4477  0.2119 -0.3665
53662DOD     C3 4807  14.722  11.857  20.160  0.2527  0.0662 -0.1336
53663DOD     C1 4808  22.809  29.431  12.287  0.0379  0.2909 -0.0121
53663DOD     C2 4809  22.545  29.180  12.638  0.1825  0.1731 -0.0463
53663DOD     C3 4810  22.218  28.946  12.874  0.0488 -0.0388  0.0740
53664DOD     C1 4811  29.778   8.450   9.120 -0.1085 -0.0101  0.0763
53664DOD     C2 4812  29.529   8.389   8.735  0.0867 -0.4626  0.1685
53664DOD     C3 4813  29.571   8.500   8.266  0.1438  0.1459  0.1745
53665DOD     C1 4814  21.532   5.964   2.736 -0.1077  0.1301 -0.2600
53665DOD     C2 4815  21.329   5.515   2.589  0.3521 -0.1838  0.0356
53665DOD     C3 4816  21.481   5.075   2.628 -0.1241 -0.2253 -0.0841
53666DOD     C1 4817  30.297  23.107  18.945 -0.1458  0.0373 -0.0386
53666DOD     C2 4818  29.842  23.054  18.891  0.0661 -0.1009 -0.1192
53666DOD     C3 4819  29.488  23.340  18.809 -0.0934 -0.0894  0.0560
53667DOD     C1 4820  18.488   1.854  21.272 -0.0633  0.0006  0.1412
53667DOD     C2 4821  18.921   1.707  21.129 -0.0320 -0.1497 -0.0391
53667DOD     C3 4822  19.348   1.915  21.032 -0.2265 -0.2188  0.1568
53668DOD     C1 4823   0.029  12.859   5.047 -0.1507  0.3542  0.2604
53668DOD     C2 4824   0.274  13.250   4.868 -0.2010  0.0273  0.1804
53668DOD     C3 4825   0.695  13.422   4.862  0.1441  0.2026 -0.1970
53669DOD     C1 4826  20.905   6.103  12.817  0.1383  0.2410 -0.5400
53669DOD     C2 4827  21.212   6.435  12.679 -0.0716 -0.1626  0.2421
53669DOD     C3 4828  21.429   6.862  12.714  0.2026 -0.0313 -0.0445
53670DOD     C1 4829   4.896   2.615   7.821  0.1252  0.1697  0.1006
53670DOD     C2 4830   4.521   2.545   7.528 -0.1682 -0.0178  0.0716
53670DOD     C3 4831   4.117   2.314   7.452  0.1434 -0.3317 -0.2445
53671DOD     C1 4832   4.491  29.485  30.252 -0.3919  0.0096  0.0285
53671DOD     C2 4833   4.556  29.835   0.291  0.1099  0.2587 -0.1074
53671DOD     C3 4834   4.746  30.086   0.603  0.0156  0.1672 -0.1924
53672DOD     C1 4835   2.992  25.291   7.448  0.2747  0.5268  0.1288
53672DOD     C2 4836   3.004  25.712   7.288  0.0627  0.0993  0.0364
53672DOD     C3 4837   2.815  25.860   6.893  0.0653  0.1471 -0.0824
53673DOD     C1 4838  21.450  18.347   9.184 -0.0576  0.1603 -0.0762
53673DOD     C2 4839  21.793  18.528   9.494 -0.0105 -0.1088 -0.0916
53673DOD     C3 4840  21.751  18.765   9.831  0.1977  0.3239 -0.0138
53674DOD     C1 4841   8.502   9.470   7.746  0.1407  0.1331 -0.0672
53674DOD     C2 4842   8.527   9.568   8.193 -0.1811  0.0528 -0.0421
53674DOD     C3 4843   8.145   9.554   8.405  0.1886 -0.2303 -0.1450
53675DOD     C1 4844   1.214  10.327   0.086 -0.3491 -0.0502  0.1181
53675DOD     C2 4845   1.160  10.674   0.389  0.0343  0.1504 -0.0991
53675DOD     C3 4846   1.044  11.063   0.376  0.1331 -0.0131  0.0191
53676DOD     C1 4847  18.710  14.363   8.029 -0.1042 -0.1050 -0.1254
53676DOD     C2 4848  18.373  14.200   8.196  0.0707  0.2676 -0.1314
53676DOD     C3 4849  17.907  14.242   8.085 -0.0520  0.4849  0.0365
53677DOD     C1 4850  18.791  12.459  12.352 -0.0321  0.0076 -0.0989
53677DOD     C2 4851  19.036  12.450  11.981 -0.0588  0.0581 -0.0448
53677DOD     C3 4852  19.439  12.179  11.897 -0.0902 -0.1219  0.1707
53678DOD     C1 4853  21.819  15.628   9.793  0.0784  0.1578 -0.2839
53678DOD     C2 4854  22.007  15.306  10.008  0.0037 -0.0704 -0.0576
53678DOD     C3 4855  22.225  15.106  10.387 -0.1079  0.2462 -0.0890
53679DOD     C1 4856   0.171  12.760  21.218  0.1093 -0.0878 -0.0687
53679DOD     C2 4857   0.578  12.537  21.414  0.0448  0.1323  0.1313
53679DOD     C3 4858   0.722  12.157  21.562 -0.2930 -0.1699  0.0618
53680DOD     C1 4859  28.089  15.972  26.722  0.0855 -0.0502 -0.3016
53680DOD     C2 4860  28.114  16.233  26.357 -0.5467 -0.1132  0.3417
53680DOD     C3 4861  27.943  16.417  25.938 -0.3276  0.1084 -0.5257
53681DOD     C1 4862  25.969  20.578   6.033 -0.0167  0.0340 -0.0955
53681DOD     C2 4863  25.688  20.546   6.460  0.2254  0.0536  0.0445
53681DOD     C3 4864  25.595  20.943   6.739  0.3251  0.0692  0.0840
53682DOD     C1 4865  27.343  19.077  28.289  0.2910 -0.2147 -0.1566
53682DOD     C2 4866  27.237  19.481  28.050 -0.3765  0.3139 -0.2349
53682DOD     C3 4867  26.913  19.648  27.721 -0.1271 -0.1827  0.1535
53683DOD     C1 4868  10.843   3.273  12.567 -0.0118  0.0958  0.2989
53683DOD     C2 4869  10.628   3.382  12.138 -0.2857 -0.1015  0.1775
53683DOD     C3 4870  10.176   3.429  12.008 -0.0591 -0.0363 -0.0975
53684DOD     C1 4871  20.113   2.125  27.413  0.0482  0.2648  0.0411
53684DOD     C2 4872  19.829   2.093  27.053  0.4007 -0.0312  0.1712
53684DOD     C3 4873  19.381   1.854  26.906 -0.1035  0.1013 -0.1230
53685DOD     C1 4874   8.072  19.548  25.088  0.0569  0.0479 -0.2614
53685DOD     C2 4875   8.277  19.184  24.936 -0.2774 -0.1443 -0.0060
53685DOD     C3 4876   8.598  18.824  24.926  0.0160  0.0763  0.1083
53686DOD     C1 4877   6.420  22.815  21.471 -0.1219 -0.0272  0.0866
53686DOD     C2 4878   6.265  22.817  21.927 -0.0953 -0.1409  0.1900
53686DOD     C3 4879   6.011  23.083  22.148 -0.1746 -0.1362 -0.4406
53687DOD     C1 4880   2.484  28.518  26.462 -0.3056  0.4113 -0.1682
53687DOD     C2 4881   2.530  28.484  26.944 -0.1094  0.1412  0.0652
53687DOD     C3 4882   2.801  28.196  27.200  0.0609  0.0034  0.0162
53688DOD     C1 4883   4.525   4.247  18.907 -0.2174 -0.1126  0.0711
53688DOD     C2 4884   4.758   3.843  18.951 -0.0050 -0.1300 -0.3460
53688DOD     C3 4885   4.985   3.443  18.924 -0.2848 -0.0607  0.2630
53689DOD     C1 4886  11.535  22.839  11.370  0.3109  0.2884  0.1176
53689DOD     C2 4887  11.272  23.193  11.483  0.0049  0.0529  0.1742
53689DOD     C3 4888  11.038  23.565  11.614  0.1790 -0.0062 -0.1771
53690DOD     C1 4889  10.186  14.324  16.989  0.0448 -0.2133 -0.0265
53690DOD     C2 4890  10.000  13.960  17.155 -0.0922 -0.3537 -0.0052
53690DOD     C3 4891   9.763  13.752  17.460  0.1784  0.1303 -0.3576
53691DOD     C1 4892  24.578  13.055  22.360  0.1179  0.2055 -0.2275
53691DOD     C2 4893  24.516  12.725  22.617  0.1075 -0.1270  0.1626
53691DOD     C3 4894  24.586  12.473  23.003  0.0393 -0.2190 -0.2336
53692DOD     C1 4895  21.120  16.531   9.293 -0.1725 -0.2394 -0.1513
53692DOD     C2 4896  21.235  16.048   9.394  0.4319 -0.0249  0.1993
53692DOD     C3 4897  21.399  15.645   9.468 -0.3519  0.0748  0.0328
53693DOD     C1 4898   6.370  26.073  19.599 -0.1070  0.1048 -0.0738
53693DOD     C2 4899   6.620  26.296  19.975 -0.2271  0.2068  0.0634
53693DOD     C3 4900   6.874  26.598  20.266 -0.2649  0.4338 -0.2135
53694DOD     C1 4901  18.664  13.928  16.309  0.0181 -0.1698  0.1236
53694DOD     C2 4902  18.400  13.847  16.715  0.0933 -0.2504  0.1115
53694DOD     C3 4903  18.297  13.769  17.147  0.0846 -0.3764  0.2427
53695DOD     C1 4904  14.082  19.577  29.849 -0.0370  0.2321 -0.1739
53695DOD     C2 4905  14.101  20.059  29.886 -0.0914  0.0403 -0.1947
53695DOD     C3 4906  14.008  20.510  29.829  0.1023  0.1759  0.1304
53696DOD     C1 4907   9.539  17.376   3.400  0.0418 -0.0725  0.1372
53696DOD     C2 4908   9.680  17.851   3.507  0.0691 -0.0892 -0.0678
53696DOD     C3 4909  10.001  18.104   3.260 -0.3498 -0.2846  0.0585
53697DOD     C1 4910   2.492  16.323  23.565 -0.0731 -0.1831  0.0255
53697DOD     C2 4911   2.060  16.104  23.584 -0.1166 -0.0501  0.0088
53697DOD     C3 4912   2.038  15.859  24.006  0.0953  0.1944 -0.3438
53698DOD     C1 4913  13.425  15.918  29.821 -0.0833 -0.3410  0.1133
53698DOD     C2 4914  13.019  15.892  29.621  0.1198 -0.1813 -0.0292
53698DOD     C3 4915  12.723  15.585  29.435 -0.3181 -0.0504  0.0433
53699DOD     C1 4916  12.759  19.027  23.241 -0.0561 -0.1040 -0.0856
53699DOD     C2 4917  12.963  19.197  22.858  0.1934 -0.2331  0.0202
53699DOD     C3 4918  13.104  19.503  22.549  0.0171 -0.2228 -0.2745
53700DOD     C1 4919  22.671  23.808  29.315  0.0370 -0.0702  0.0512
53700DOD     C2 4920  22.549  23.336  29.353 -0.1997  0.1082  0.0580
53700DOD     C3 4921  22.625  22.959  29.606 -0.0807  0.1016  0.0134
53701DOD     C1 4922  19.867   7.351  29.919  0.0312  0.2111  0.0223
53701DOD     C2 4923  19.441   7.348  30.124  0.2085 -0.1998  0.0811
53701DOD     C3 4924  19.044   7.211  29.993 -0.1305  0.0979  0.1626
53702DOD     C1 4925  25.378   5.616  16.720 -0.0289 -0.0006 -0.0642
53702DOD     C2 4926  25.604   5.771  17.047  0.0339 -0.0472 -0.2329
53702DOD     C3 4927  25.663   5.960  17.458 -0.1059  0.0652  0.4184
53703DOD     C1 4928  20.166  12.051  27.473  0.1353  0.2421  0.0583
53703DOD     C2 4929  19.754  11.953  27.376  0.3212  0.0556  0.1325
53703DOD     C3 4930  19.535  11.582  27.234 -0.0840  0.3147 -0.2691
53704DOD     C1 4931   5.726  17.525  28.473 -0.2207 -0.2013 -0.2334
53704DOD     C2 4932   5.827  17.957  28.690 -0.3147  0.2738 -0.1003
53704DOD     C3 4933   5.745  18.303  28.972  0.0085  0.0762 -0.2055
53705DOD     C1 4934   9.218  22.993  18.769 -0.1317 -0.1358 -0.3989
53705DOD     C2 4935   8.926  22.780  18.480  0.2291 -0.0037 -0.0642
53705DOD     C3 4936   8.513  22.926  18.210 -0.0141  0.2177 -0.1135
53706DOD     C1 4937  17.781  11.335  15.903  0.2149  0.1564 -0.2994
53706DOD     C2 4938  18.010  11.325  15.522  0.2413  0.0339 -0.1178
53706DOD     C3 4939  18.431  11.409  15.345 -0.0568  0.0015 -0.2957
53707DOD     C1 4940  13.401   3.200   8.253 -0.0467 -0.0393  0.0051
53707DOD     C2 4941  13.049   3.139   8.611 -0.2853  0.2408  0.3033
53707DOD     C3 4942  12.835   3.351   8.977  0.0014  0.0534 -0.3233
53708DOD     C1 4943   9.380  14.641  15.689  0.0362  0.1696  0.0033
53708DOD     C2 4944   9.820  14.715  15.543  0.2054  0.2153 -0.1444
53708DOD     C3 4945  10.234  14.588  15.406 -0.3344  0.1081  0.3030
53709DOD     C1 4946   7.809  19.301  26.379 -0.1083 -0.1844  0.2537
53709DOD     C2 4947   7.526  19.694  26.380  0.1183  0.4444  0.0937
53709DOD     C3 4948   7.198  20.073  26.372  0.1224 -0.1964 -0.0335
53710DOD     C1 4949  22.369  27.219  25.565 -0.1431  0.2764 -0.0700
53710DOD     C2 4950  22.799  27.062  25.436 -0.1563 -0.2479  0.2120
53710DOD     C3 4951  23.183  27.273  25.279 -0.2694 -0.2118  0.0628
53711DOD     C1 4952  24.087   3.248   3.513  0.1731 -0.0935 -0.2416
53711DOD     C2 4953  23.720   2.896   3.394  0.0010 -0.1681 -0.2407
53711DOD     C3 4954  23.296   2.719   3.549 -0.1267 -0.0580  0.1176
53712DOD     C1 4955   6.723  16.869  13.450  0.1473  0.0295 -0.0301
53712DOD     C2 4956   6.830  16.777  13.931 -0.0647  0.0240  0.0037
53712DOD     C3 4957   6.668  16.639  14.394 -0.0294 -0.1380  0.1271
53713DOD     C1 4958  24.587  27.924  13.227 -0.1351  0.3198  0.1195
53713DOD     C2 4959  24.556  27.677  13.591 -0.0804 -0.0485 -0.0073
53713DOD     C3 4960  24.697  27.467  14.008 -0.1978 -0.0180  0.1002
53714DOD     C1 4961  26.908  24.460  29.787 -0.0993  0.1409 -0.0827
53714DOD     C2 4962  26.996  24.665  29.385 -0.0988  0.0058  0.0869
53714DOD     C3 4963  26.674  24.732  29.109 -0.1115 -0.1252  0.1564
53715DOD     C1 4964  23.412   9.235   6.831 -0.1262 -0.1906 -0.0045
53715DOD     C2 4965  23.817   9.191   7.035  0.1966  0.3197 -0.2637
53715DOD     C3 4966  24.244   9.091   6.843 -0.0384  0.1317 -0.0282
53716DOD     C1 4967  29.719   0.108  18.586  0.0501  0.3893  0.0537
53716DOD     C2 4968  29.643  30.175  18.967  0.1446 -0.2333  0.1697
53716DOD     C3 4969  29.393  30.056  19.346 -0.3535  0.0147  0.0189
53717DOD     C1 4970   5.940  23.664   3.741  0.0138  0.1960  0.1383
53717DOD     C2 4971   6.232  24.017   3.771  0.0399  0.2979  0.2687
53717DOD     C3 4972   6.196  24.481   3.747 -0.2145 -0.0833  0.2323
53718DOD     C1 4973  22.397   5.431  13.102 -0.0955 -0.3148 -0.0040
53718DOD     C2 4974  22.319   4.913  13.081  0.2551 -0.1982  0.1929
53718DOD     C3 4975  22.646   4.714  13.328  0.1804 -0.1826  0.2638
53719DOD     C1 4976  19.627   8.166   5.208  0.0881  0.0712 -0.1109
53719DOD     C2 4977  19.761   7.761   5.055 -0.2099  0.0405  0.0560
53719DOD     C3 4978  19.777   7.383   4.766  0.2227  0.2129 -0.2027
53720DOD     C1 4979  20.198   8.545  25.663  0.3518 -0.2021 -0.1530
53720DOD     C2 4980  20.360   8.895  25.362 -0.1275  0.3344  0.1132
53720DOD     C3 4981  20.209   9.306  25.258  0.3958 -0.3594  0.0609
53721DOD     C1 4982  28.113  18.368   2.014 -0.1011 -0.2829  0.0929
53721DOD     C2 4983  28.217  18.418   2.483  0.2997 -0.2456  0.0420
53721DOD     C3 4984  28.482  18.805   2.648  0.0406 -0.3697 -0.1350
53722DOD     C1 4985  17.191  23.943  22.372  0.0863  0.1339 -0.2307
53722DOD     C2 4986  17.370  23.479  22.426 -0.0588  0.1442 -0.0595
53722DOD     C3 4987  17.262  23.061  22.619 -0.0255  0.0220  0.1949
53723DOD     C1 4988  12.774  19.491   0.351 -0.0110 -0.1009  0.2464
53723DOD     C2 4989  13.070  19.882   0.374  0.3213  0.1210  0.3365
53723DOD     C3 4990  13.113  20.312   0.404 -0.0552 -0.0433  0.2747
53724DOD     C1 4991  10.374  14.780  18.956  0.1167 -0.2599 -0.0095
53724DOD     C2 4992  10.785  14.897  18.745  0.0859 -0.0229 -0.1972
53724DOD     C3 4993  10.884  15.122  18.308  0.1227  0.0686  0.0379
53725DOD     C1 4994   3.102  16.262  27.378  0.1788  0.0057  0.0118
53725DOD     C2 4995   3.293  15.906  27.124 -0.0678 -0.1861 -0.0517
53725DOD     C3 4996   3.688  15.764  26.942  0.2462  0.1082 -0.2610
53726DOD     C1 4997  27.002  14.576  23.151 -0.0352 -0.1939  0.1166
53726DOD     C2 4998  26.882  14.315  23.550 -0.1092 -0.0342  0.0937
53726DOD     C3 4999  26.980  13.977  23.897  0.4139 -0.1985  0.3286
53727DOD     C1 5000   7.932  25.273  18.614  0.0662  0.2654  0.3260
53727DOD     C2 5001   7.539  25.000  18.557 -0.0487  0.0923  0.1972
53727DOD     C3 5002   7.468  24.678  18.212  0.0461 -0.0098 -0.3753
53728DOD     C1 5003  27.404  21.852  24.765 -0.0227 -0.1719  0.4152
53728DOD     C2 5004  27.849  21.624  24.805 -0.0154  0.2389  0.1822
53728DOD     C3 5005  28.287  21.612  24.761  0.2092  0.2721 -0.1388
53729DOD     C1 5006   8.855   1.969   6.256 -0.1359 -0.0973 -0.0422
53729DOD     C2 5007   9.244   1.706   6.191  0.1183  0.1931  0.1048
53729DOD     C3 5008   9.362   1.384   5.850  0.2466 -0.0263  0.1122
53730DOD     C1 5009   8.447   3.226   1.136  0.0032 -0.5981  0.0092
53730DOD     C2 5010   8.298   2.934   0.843 -0.2723  0.0172  0.2367
53730DOD     C3 5011   8.515   2.460   0.758 -0.1480  0.0610 -0.2309
53731DOD     C1 5012   8.265  29.582  10.698  0.2260 -0.3426  0.3158
53731DOD     C2 5013   7.816  29.560  10.730  0.1667 -0.0087 -0.0753
53731DOD     C3 5014   7.401  29.267  10.715 -0.1471  0.0655  0.2064
53732DOD     C1 5015   3.173  17.522   4.491  0.1805  0.3050  0.2684
53732DOD     C2 5016   2.805  17.330   4.334  0.0375 -0.1594  0.2413
53732DOD     C3 5017   2.359  17.160   4.238 -0.1919 -0.0924 -0.0677
53733DOD     C1 5018  21.450  13.903  10.819 -0.0403 -0.0087 -0.0794
53733DOD     C2 5019  21.457  13.625  10.457  0.0859 -0.0254  0.0715
53733DOD     C3 5020  21.777  13.627  10.079 -0.0668  0.4079  0.4101
53734DOD     C1 5021  14.197  22.507  10.217 -0.2997  0.1267  0.3068
53734DOD     C2 5022  14.130  22.626  10.619  0.1900 -0.0365 -0.3879
53734DOD     C3 5023  13.915  22.857  10.980  0.1284  0.1446  0.0801
53735DOD     C1 5024  21.323  22.928   5.542 -0.1170  0.1871 -0.2907
53735DOD     C2 5025  21.464  22.508   5.407 -0.1229 -0.1256  0.3485
53735DOD     C3 5026  21.603  22.373   5.008 -0.0412 -0.0353  0.0452
53736DOD     C1 5027   6.146  21.488   3.318  0.3200  0.0137 -0.1583
53736DOD     C2 5028   6.096  21.804   3.624  0.1099 -0.0972 -0.2693
53736DOD     C3 5029   6.237  22.150   3.907 -0.2084 -0.1972  0.2046
53737DOD     C1 5030   8.329  19.682  19.282  0.0272  0.3116  0.1503
53737DOD     C2 5031   8.105  20.069  19.459  0.0744 -0.1172  0.0043
53737DOD     C3 5032   7.726  20.252  19.698  0.0566 -0.3121 -0.0064
53738DOD     C1 5033  29.755  19.378  23.726 -0.1532 -0.2802 -0.0603
53738DOD     C2 5034  29.746  19.830  23.523  0.1382  0.0061 -0.2110
53738DOD     C3 5035  29.972  20.134  23.210 -0.0974  0.0346 -0.2829
53739DOD     C1 5036   6.870  28.155  21.239  0.2634  0.2360 -0.3488
53739DOD     C2 5037   6.510  28.310  20.970  0.3313 -0.1706 -0.1419
53739DOD     C3 5038   6.347  28.747  21.049  0.0764  0.0374  0.0877
53740DOD     C1 5039  25.722  28.555  22.350  0.0490  0.0518 -0.1958
53740DOD     C2 5040  25.772  28.803  22.797 -0.1342 -0.0207 -0.1033
53740DOD     C3 5041  25.602  29.192  23.070  0.1474  0.0350 -0.2892
53741DOD     C1 5042   6.831  23.316  17.966  0.0672  0.6391 -0.0509
53741DOD     C2 5043   6.498  23.058  17.778  0.0630 -0.2645  0.0837
53741DOD     C3 5044   6.069  22.978  17.936  0.1533 -0.0515 -0.1758
53742DOD     C1 5045  10.966   7.116  23.605  0.0622  0.0376  0.0047
53742DOD     C2 5046  10.763   6.949  23.206 -0.1349  0.0033  0.0763
53742DOD     C3 5047  10.485   6.707  22.935  0.1581  0.0047  0.0549
53743DOD     C1 5048   4.017  18.401  28.622 -0.0311 -0.0111  0.2870
53743DOD     C2 5049   3.650  18.179  28.706 -0.1747  0.1573  0.2661
53743DOD     C3 5050   3.194  18.152  28.806 -0.0938  0.4900 -0.0513
53744DOD     C1 5051  22.350  14.881  23.998  0.0520 -0.2308 -0.0021
53744DOD     C2 5052  22.135  14.636  24.295  0.2588  0.3137  0.3238
53744DOD     C3 5053  21.703  14.657  24.479  0.0785  0.0086 -0.0402
53745DOD     C1 5054   5.103   1.465  18.628 -0.1169 -0.4283 -0.1233
53745DOD     C2 5055   4.726   1.236  18.804 -0.2423  0.1336  0.0782
53745DOD     C3 5056   4.274   1.198  18.698 -0.0684 -0.0889  0.3756
53746DOD     C1 5057   3.421  26.722  15.092 -0.0045 -0.1178 -0.0076
53746DOD     C2 5058   3.429  26.952  14.700  0.0162 -0.1376  0.0898
53746DOD     C3 5059   3.365  27.079  14.210  0.0724 -0.1966 -0.0310
53747DOD     C1 5060  14.547   0.288   2.182 -0.0615  0.1617  0.1183
53747DOD     C2 5061  14.290   0.403   2.541  0.1115 -0.1511 -0.1416
53747DOD     C3 5062  14.228   0.417   2.934 -0.2007  0.3539 -0.0615
53748DOD     C1 5063  26.699   3.962  10.881  0.1915 -0.0234 -0.0214
53748DOD     C2 5064  26.939   3.988  10.472  0.1819 -0.2124  0.0480
53748DOD     C3 5065  26.932   4.241  10.051 -0.0974  0.0500  0.0984
53749DOD     C1 5066   2.832  19.900  23.891 -0.1588  0.3585  0.2513
53749DOD     C2 5067   2.715  19.790  24.328  0.0696  0.1177 -0.0440
53749DOD     C3 5068   2.366  19.671  24.680  0.2991 -0.1718  0.0140
53750DOD     C1 5069  27.421   9.739  19.188 -0.0605  0.2200 -0.1147
53750DOD     C2 5070  27.389  10.039  19.596  0.0052 -0.1366  0.2600
53750DOD     C3 5071  27.310  10.002  20.062 -0.1302  0.0957 -0.2311
53751DOD     C1 5072  17.124   9.191   9.623  0.1340  0.0215  0.1965
53751DOD     C2 5073  17.079   9.618   9.774  0.1245 -0.1381  0.0407
53751DOD     C3 5074  17.095  10.050   9.679  0.0597  0.3775 -0.1479
53752DOD     C1 5075  22.291   5.367   1.840 -0.1134 -0.4752  0.0518
53752DOD     C2 5076  21.923   5.313   2.041  0.0682 -0.0524  0.2700
53752DOD     C3 5077  21.449   5.286   2.172 -0.1511 -0.2977 -0.0672
53753DOD     C1 5078  18.910  24.546  29.000 -0.0917 -0.1106 -0.0097
53753DOD     C2 5079  18.838  24.071  29.101  0.1859  0.2305  0.1037
53753DOD     C3 5080  18.509  23.851  29.450  0.0579  0.1188 -0.0663
53754DOD     C1 5081  10.218  29.721   8.414 -0.0134  0.2064  0.1606
53754DOD     C2 5082  10.612  29.418   8.438  0.1443  0.0936 -0.0791
53754DOD     C3 5083  10.900  29.071   8.359 -0.2078 -0.0854  0.2667
53755DOD     C1 5084  11.355  27.153  18.741 -0.1305 -0.1119 -0.1637
53755DOD     C2 5085  11.702  26.977  18.472  0.1801 -0.1293  0.0114
53755DOD     C3 5086  12.130  26.894  18.288  0.0282 -0.0389  0.0280
53756DOD     C1 5087  27.431  21.562   4.524  0.0667 -0.2413 -0.0005
53756DOD     C2 5088  26.944  21.506   4.571  0.2063 -0.1055 -0.1684
53756DOD     C3 5089  26.509  21.461   4.608 -0.0130  0.0055 -0.1412
53757DOD     C1 5090  26.110  14.313  11.718 -0.1495 -0.0676 -0.0854
53757DOD     C2 5091  26.367  14.384  12.106 -0.0895  0.0234  0.0917
53757DOD     C3 5092  26.498  14.214  12.482  0.2096  0.1042  0.0002
53758DOD     C1 5093  24.558  27.623  20.175  0.1658  0.0889 -0.1475
53758DOD     C2 5094  24.117  27.737  20.079 -0.0230  0.0197 -0.0063
53758DOD     C3 5095  23.710  27.950  19.913 -0.1730  0.1504 -0.1394
53759DOD     C1 5096  14.684  10.529   2.492  0.0587  0.1080 -0.1256
53759DOD     C2 5097  15.052  10.345   2.671 -0.2019  0.0215 -0.3563
53759DOD     C3 5098  15.513  10.351   2.594  0.3118 -0.1758 -0.2217
53760DOD     C1 5099   5.042   6.322   7.690  0.3383  0.0761  0.0212
53760DOD     C2 5100   4.686   6.318   7.930  0.0915  0.0728 -0.0244
53760DOD     C3 5101   4.354   6.640   7.784 -0.0582 -0.1210 -0.0968
53761DOD     C1 5102  29.848  23.902  21.599 -0.2189  0.1578  0.2317
53761DOD     C2 5103  29.585  23.957  21.248 -0.0730  0.2271  0.2377
53761DOD     C3 5104  29.385  24.341  20.970 -0.2990  0.0948 -0.2184
53762DOD     C1 5105   4.749  19.505   4.772  0.0042 -0.0491  0.1076
53762DOD     C2 5106   4.347  19.818   4.699 -0.1191  0.2270 -0.2465
53762DOD     C3 5107   3.911  19.751   4.546 -0.0204  0.1813 -0.1022
53763DOD     C1 5108  20.893  28.625  15.943  0.1560  0.0788  0.0064
53763DOD     C2 5109  20.616  28.325  16.126 -0.0158 -0.3077  0.0352
53763DOD     C3 5110  20.331  28.047  16.428 -0.1062  0.0489 -0.2901
53764DOD     C1 5111  28.401  19.482  10.997  0.2383 -0.1160  0.1768
53764DOD     C2 5112  28.126  19.865  10.871  0.0604 -0.0433  0.0391
53764DOD     C3 5113  27.712  19.948  10.714  0.2136 -0.0332  0.1307
53765DOD     C1 5114   8.618  21.952   2.985 -0.2324  0.0011  0.1883
53765DOD     C2 5115   8.146  21.743   2.827  0.2423 -0.0648 -0.0268
53765DOD     C3 5116   7.969  21.721   2.377  0.2363  0.0303  0.2725
53766DOD     C1 5117  11.297   8.757   6.935 -0.3699 -0.0714  0.0944
53766DOD     C2 5118  10.968   8.970   7.183 -0.0972 -0.0050 -0.0889
53766DOD     C3 5119  10.725   8.964   7.526  0.1111  0.0808 -0.0989
53767DOD     C1 5120  13.761  12.496  25.256  0.1289  0.0096 -0.0408
53767DOD     C2 5121  13.608  12.953  25.220 -0.0817  0.0676  0.2345
53767DOD     C3 5122  13.678  13.412  25.077 -0.1432  0.2662 -0.1330
53768DOD     C1 5123  10.015   9.186  10.518 -0.3857 -0.0150 -0.2072
53768DOD     C2 5124   9.906   8.784  10.749 -0.4102 -0.0880  0.1323
53768DOD     C3 5125   9.589   8.475  10.772  0.2725 -0.4234 -0.0794
53769DOD     C1 5126   9.296   6.364  16.194  0.2398  0.2293  0.0395
53769DOD     C2 5127   9.324   5.960  16.435 -0.2091 -0.2168  0.2842
53769DOD     C3 5128   9.599   5.787  16.724  0.1371  0.0323  0.1364
53770DOD     C1 5129   6.189  15.213  21.971  0.2516 -0.0578 -0.2416
53770DOD     C2 5130   5.836  14.987  22.251 -0.0801 -0.1924 -0.2527
53770DOD     C3 5131   5.677  14.691  22.606 -0.0829 -0.2003 -0.1728
53771DOD     C1 5132   0.939   6.972  13.652  0.3235  0.0575 -0.0130
53771DOD     C2 5133   1.050   6.946  14.080 -0.2722 -0.0365 -0.0837
53771DOD     C3 5134   1.210   6.584  14.374  0.2952 -0.1140  0.0350
53772DOD     C1 5135  19.561  17.782  16.895 -0.0854 -0.2558 -0.0785
53772DOD     C2 5136  19.557  18.109  16.551 -0.0640  0.2199  0.1380
53772DOD     C3 5137  19.558  18.362  16.156  0.0127  0.1172  0.2790
53773DOD     C1 5138  13.651  11.855  25.957 -0.0626  0.0757 -0.2093
53773DOD     C2 5139  13.711  12.070  26.387 -0.0884  0.0329 -0.0544
53773DOD     C3 5140  13.695  12.382  26.710  0.1344 -0.0205 -0.1622
53774DOD     C1 5141  11.111   9.006   1.656  0.0522 -0.0467  0.0755
53774DOD     C2 5142  11.197   8.995   2.125 -0.1084  0.4037 -0.0540
53774DOD     C3 5143  11.461   9.276   2.359  0.0091 -0.3904  0.2559
53775DOD     C1 5144  14.615   9.226  15.133  0.2641 -0.2682 -0.2208
53775DOD     C2 5145  14.168   9.492  15.037 -0.0372  0.1516  0.1207
53775DOD     C3 5146  13.958   9.477  14.609 -0.1121 -0.1905 -0.0378
53776DOD     C1 5147   8.717  20.627   0.814 -0.0890  0.2335 -0.2432
53776DOD     C2 5148   8.860  20.193   0.857  0.0846  0.3268  0.0300
53776DOD     C3 5149   8.722  19.743   0.922  0.0144 -0.0612 -0.0209
53777DOD     C1 5150  10.944  21.327  21.628  0.0289 -0.1353 -0.3639
53777DOD     C2 5151  11.048  21.671  21.310  0.3457 -0.2448 -0.3987
53777DOD     C3 5152  10.886  21.932  20.987  0.0048 -0.3796 -0.3229
53778DOD     C1 5153  21.788  24.482  28.335 -0.1618 -0.3345  0.1330
53778DOD     C2 5154  21.798  24.524  28.830  0.1586 -0.1333  0.3238
53778DOD     C3 5155  21.623  24.739  29.147  0.1958  0.0366 -0.0522
53779DOD     C1 5156  18.337  20.150  17.556  0.2481 -0.0343  0.0706
53779DOD     C2 5157  18.333  20.190  17.111 -0.2155 -0.1256  0.0595
53779DOD     C3 5158  18.103  20.013  16.789 -0.1741 -0.1909  0.0706
53780DOD     C1 5159  12.989  14.323   3.122  0.1193 -0.1274  0.1004
53780DOD     C2 5160  13.120  14.554   3.506 -0.0556 -0.2103  0.0099
53780DOD     C3 5161  13.128  14.910   3.870 -0.1752  0.0548 -0.0521
53781DOD     C1 5162  19.359  25.767  15.782  0.4414 -0.1294  0.0627
53781DOD     C2 5163  19.751  25.570  15.790  0.0139 -0.1430  0.0759
53781DOD     C3 5164  20.103  25.413  16.111  0.1442  0.0415 -0.1004
53782DOD     C1 5165  10.917  10.270  23.470 -0.0191 -0.0995 -0.0276
53782DOD     C2 5166  10.486  10.352  23.609  0.3215  0.2121 -0.2277
53782DOD     C3 5167  10.267  10.716  23.570 -0.1056 -0.0217  0.0109
53783DOD     C1 5168  18.251   4.632   0.474 -0.3114 -0.0569  0.2011
53783DOD     C2 5169  17.831   4.715   0.205 -0.1530  0.0966  0.3993
53783DOD     C3 5170  17.481   4.799  30.220  0.0162  0.3011  0.0800
53784DOD     C1 5171  22.833   5.525  21.858  0.0022 -0.2639 -0.0429
53784DOD     C2 5172  22.518   5.900  21.877 -0.0459 -0.2521 -0.2352
53784DOD     C3 5173  22.489   6.239  22.159  0.1491  0.0014 -0.0129
53785DOD     C1 5174   7.088   9.477  20.473  0.0238  0.2316  0.0668
53785DOD     C2 5175   7.297   9.084  20.447 -0.2050  0.1389  0.1802
53785DOD     C3 5176   7.162   8.700  20.150  0.1055 -0.3190 -0.2212
53786DOD     C1 5177  22.186   5.645  30.000 -0.1151 -0.0261  0.0713
53786DOD     C2 5178  21.856   5.743  -0.012  0.2740  0.2172 -0.1759
53786DOD     C3 5179  21.809   6.188   0.149  0.2480 -0.0524 -0.1075
53787DOD     C1 5180  29.388  26.057   9.210 -0.0339 -0.2654 -0.0945
53787DOD     C2 5181  29.113  26.256   8.871 -0.1516  0.1070 -0.0214
53787DOD     C3 5182  28.646  26.266   8.738 -0.2955  0.1152 -0.1394
53788DOD     C1 5183   8.642  22.158   9.502 -0.2763  0.0141 -0.0934
53788DOD     C2 5184   8.568  22.498   9.778 -0.0684 -0.1460 -0.2961
53788DOD     C3 5185   8.760  22.902   9.922 -0.1584  0.3546 -0.1990
53789DOD     C1 5186  25.655  29.929  12.395 -0.0771 -0.1380 -0.2123
53789DOD     C2 5187  25.472  29.532  12.543  0.1165  0.0603 -0.2250
53789DOD     C3 5188  25.065  29.180  12.477  0.1255  0.1486  0.2140
53790DOD     C1 5189  27.163  11.211  27.494 -0.0008  0.1165 -0.2373
53790DOD     C2 5190  27.179  11.629  27.723 -0.1372  0.2237  0.1076
53790DOD     C3 5191  27.312  11.899  28.117  0.2317  0.0759  0.1030
53791DOD     C1 5192   5.626   2.209  30.170 -0.1284 -0.0421 -0.4334
53791DOD     C2 5193   5.855   2.521   0.034  0.2165 -0.0247 -0.1632
53791DOD     C3 5194   5.951   2.720   0.421 -0.0367 -0.2000 -0.2837
53792DOD     C1 5195   2.022  10.886  16.583  0.3057  0.0038  0.1522
53792DOD     C2 5196   2.062  10.696  16.948  0.1636 -0.2699  0.1216
53792DOD     C3 5197   2.016  10.726  17.392 -0.1097  0.2894 -0.3066
53793DOD     C1 5198  16.067  21.238  17.577 -0.2264 -0.3089 -0.1080
53793DOD     C2 5199  16.039  21.338  18.020  0.1741  0.2350 -0.0576
53793DOD     C3 5200  15.685  21.323  18.346  0.1125 -0.0005 -0.1402
53794DOD     C1 5201   8.372  10.836   9.689  0.1523 -0.1195  0.0054
53794DOD     C2 5202   7.961  10.687   9.672  0.2343  0.1241  0.1206
53794DOD     C3 5203   7.801  10.282   9.719  0.1208  0.4287 -0.0399
53795DOD     C1 5204   7.518  20.234  20.544 -0.0751 -0.0168  0.3017
53795DOD     C2 5205   7.533  20.287  21.004 -0.3203 -0.1156  0.0248
53795DOD     C3 5206   7.400  20.687  21.279 -0.0146 -0.0195 -0.1659
53796DOD     C1 5207   0.213   6.338  21.140 -0.2002  0.5473 -0.2216
53796DOD     C2 5208  30.233   6.635  21.086  0.0365 -0.1769  0.0248
53796DOD     C3 5209  29.918   6.904  21.271 -0.1018  0.1898  0.0798
53797DOD     C1 5210  23.820  12.868  25.828 -0.2113 -0.0096  0.1616
53797DOD     C2 5211  23.352  12.803  25.712  0.1329 -0.1650 -0.2466
53797DOD     C3 5212  23.030  12.768  26.039 -0.3138  0.1842  0.1040
53798DOD     C1 5213  28.151  10.726  27.749 -0.3527 -0.0331 -0.1666
53798DOD     C2 5214  28.272  10.855  28.227  0.3690  0.1698  0.2591
53798DOD     C3 5215  28.455  11.192  28.453 -0.0697  0.0645 -0.0313
53799DOD     C1 5216   1.138   3.407  19.905 -0.2125  0.2865  0.4040
53799DOD     C2 5217   0.728   3.455  20.104 -0.3204 -0.1678 -0.1921
53799DOD     C3 5218   0.524   3.882  20.218 -0.0339  0.1883 -0.2358
53800DOD     C1 5219  28.799  26.861   5.149 -0.0052  0.1261  0.2164
53800DOD     C2 5220  28.544  26.669   5.435 -0.0889 -0.2129  0.0846
53800DOD     C3 5221  28.592  26.342   5.838 -0.0621  0.2105 -0.0935
53801DOD     C1 5222  14.190  26.454  14.558  0.1223 -0.1507 -0.3413
53801DOD     C2 5223  13.761  26.376  14.314  0.1078 -0.1707  0.2115
53801DOD     C3 5224  13.281  26.444  14.268 -0.1223 -0.3285  0.2075
53802DOD     C1 5225  20.383   6.810  28.651  0.1439 -0.2799  0.0775
53802DOD     C2 5226  20.717   7.145  28.522 -0.3066  0.0795 -0.0808
53802DOD     C3 5227  21.133   7.166  28.313  0.1600 -0.0229  0.1292
53803DOD     C1 5228  30.258  15.672   5.227 -0.1758  0.0471 -0.0809
53803DOD     C2 5229  29.838  15.831   5.115  0.0447  0.0092 -0.1325
53803DOD     C3 5230  29.421  15.928   4.974 -0.0745 -0.0708  0.3554
53804DOD     C1 5231  20.466  13.972  21.258 -0.0417 -0.1925  0.2771
53804DOD     C2 5232  20.372  14.373  21.004 -0.3752 -0.5388  0.0296
53804DOD     C3 5233  20.416  14.869  21.024 -0.2107 -0.1488 -0.1418
53805DOD     C1 5234  24.976  27.133  26.618  0.0808  0.4344  0.0439
53805DOD     C2 5235  24.597  27.063  26.783 -0.1770 -0.0029  0.0010
53805DOD     C3 5236  24.134  27.069  26.900 -0.3840 -0.3869 -0.1367
53806DOD     C1 5237  24.887  17.404   9.386  0.0652 -0.2740 -0.2744
53806DOD     C2 5238  24.830  17.870   9.499  0.4073 -0.2137  0.1050
53806DOD     C3 5239  24.949  18.133   9.822  0.0404  0.2439  0.0191
53807DOD     C1 5240   2.796  23.235   2.624 -0.0188 -0.2046 -0.1055
53807DOD     C2 5241   3.177  22.933   2.564 -0.2144  0.0485 -0.0128
53807DOD     C3 5242   3.579  22.851   2.306  0.1048  0.0096 -0.0038
53808DOD     C1 5243  30.050  23.567   8.908  0.1086 -0.3258  0.0867
53808DOD     C2 5244  30.075  23.119   8.964 -0.2081  0.1585  0.0047
53808DOD     C3 5245  30.057  22.674   8.985 -0.1922  0.0319 -0.2347
53809DOD     C1 5246  14.172   9.955   7.952 -0.5063 -0.1361  0.0217
53809DOD     C2 5247  13.830   9.901   8.228  0.0083 -0.0889 -0.3765
53809DOD     C3 5248  13.604   9.754   8.577 -0.5729  0.0042 -0.3459
53810DOD     C1 5249  21.143  20.639  25.204  0.1191  0.1747 -0.2190
53810DOD     C2 5250  21.487  20.551  25.533  0.1138  0.1827 -0.3872
53810DOD     C3 5251  21.736  20.186  25.735 -0.4947  0.1781 -0.1980
53811DOD     C1 5252  28.509  18.615  19.731 -0.0677 -0.0010 -0.3263
53811DOD     C2 5253  28.793  18.411  19.963 -0.0514 -0.0889 -0.0216
53811DOD     C3 5254  28.913  18.587  20.351  0.1670  0.1237 -0.1961
53812DOD     C1 5255   0.006  21.618  17.932 -0.0634  0.0061  0.0217
53812DOD     C2 5256   0.156  21.408  17.538  0.0474  0.1948 -0.0517
53812DOD     C3 5257   0.076  21.657  17.153 -0.1785  0.2953 -0.0292
53813DOD     C1 5258  10.632  19.423  19.546 -0.0303 -0.0037 -0.0925
53813DOD     C2 5259  10.813  19.057  19.374  0.3701  0.1316 -0.0364
53813DOD     C3 5260  10.606  18.676  19.418  0.1256  0.0657 -0.1420
53814DOD     C1 5261  10.400  13.590   2.361  0.0186  0.1400  0.0075
53814DOD     C2 5262  10.467  13.466   1.895 -0.0297  0.2767 -0.1735
53814DOD     C3 5263  10.509  13.435   1.419  0.0986 -0.0409  0.0073
53815DOD     C1 5264  15.663   6.166  27.577 -0.0069 -0.1374  0.0696
53815DOD     C2 5265  16.126   6.251  27.472 -0.0452 -0.1721  0.1266
53815DOD     C3 5266  16.408   6.171  27.064  0.1385 -0.1032  0.0240
53816DOD     C1 5267  16.692  23.011  12.683 -0.0476 -0.2086 -0.1393
53816DOD     C2 5268  17.099  22.795  12.621 -0.1815 -0.0282 -0.3567
53816DOD     C3 5269  17.313  22.741  12.295 -0.1656 -0.0444 -0.1895
53817DOD     C1 5270  26.222   9.839  28.813  0.0028  0.3122 -0.1880
53817DOD     C2 5271  26.169   9.326  28.636 -0.2186 -0.1378  0.1957
53817DOD     C3 5272  25.978   8.879  28.551  0.0634 -0.0852  0.1924
53818DOD     C1 5273  19.168   1.581   1.863  0.1151  0.0332 -0.1466
53818DOD     C2 5274  18.884   1.983   1.767 -0.0740  0.0897  0.1347
53818DOD     C3 5275  18.496   2.029   1.546  0.1129 -0.1468  0.0805
53819DOD     C1 5276  23.795   6.534  27.140 -0.0253  0.1387  0.1333
53819DOD     C2 5277  24.186   6.746  27.015 -0.1214  0.1170 -0.3059
53819DOD     C3 5278  24.542   6.723  26.761 -0.0054  0.3303  0.0900
53820DOD     C1 5279  15.503  17.800   2.175  0.1794 -0.0915 -0.1664
53820DOD     C2 5280  15.464  17.368   2.047  0.1084  0.2983  0.4271
53820DOD     C3 5281  15.346  17.002   1.789  0.2219  0.1326  0.0207
53821DOD     C1 5282  17.026   6.060  14.845 -0.2810 -0.1532 -0.3551
53821DOD     C2 5283  16.585   6.139  14.699  0.1079 -0.0618  0.3848
53821DOD     C3 5284  16.276   6.240  14.358  0.0181 -0.6024 -0.0024
53822DOD     C1 5285   6.513   3.438  20.845  0.0903 -0.0541  0.1481
53822DOD     C2 5286   6.358   3.442  20.330  0.1515  0.0463 -0.0260
53822DOD     C3 5287   6.049   3.230  20.073 -0.0811 -0.0894  0.0666
53823DOD     C1 5288  11.577  26.894  13.922 -0.2547 -0.1569 -0.2223
53823DOD     C2 5289  11.297  26.988  14.279 -0.4612  0.1214  0.0999
53823DOD     C3 5290  10.956  26.972  14.632  0.3165 -0.0363 -0.2298
53824DOD     C1 5291   1.706  29.788  28.274 -0.1003  0.3084  0.1861
53824DOD     C2 5292   1.880  29.970  28.662  0.1910  0.1691  0.0648
53824DOD     C3 5293   2.217  30.212  28.930 -0.1458  0.3599 -0.0509
53825DOD     C1 5294  14.878  28.952   7.989 -0.1125 -0.0223  0.0316
53825DOD     C2 5295  14.523  29.237   8.131 -0.0463 -0.2029  0.0243
53825DOD     C3 5296  14.080  29.398   7.960 -0.0194  0.1158  0.2117
53826DOD     C1 5297   9.889  27.813  18.930  0.4714  0.2022  0.2164
53826DOD     C2 5298  10.090  28.090  18.636 -0.0616 -0.1970 -0.2057
53826DOD     C3 5299  10.220  28.496  18.418  0.0780  0.0094  0.0193
53827DOD     C1 5300  18.702   4.690  26.262  0.0448 -0.1617 -0.0229
53827DOD     C2 5301  18.711   5.059  26.573  0.1058 -0.0388  0.1428
53827DOD     C3 5302  18.740   5.534  26.520  0.0028  0.1001  0.0170
53828DOD     C1 5303   3.951   3.883  26.811 -0.0310 -0.0209 -0.1838
53828DOD     C2 5304   3.900   4.227  27.166  0.0523  0.0753 -0.0258
53828DOD     C3 5305   3.922   4.543  27.479 -0.1138  0.0421  0.2182
53829DOD     C1 5306   4.653  21.435  28.331 -0.0905  0.0940 -0.0721
53829DOD     C2 5307   4.596  20.987  28.400 -0.1439  0.0920  0.2556
53829DOD     C3 5308   4.357  20.600  28.375 -0.1110  0.0726 -0.1834
53830DOD     C1 5309  27.558   3.133   6.400  0.0782 -0.1217  0.0412
53830DOD     C2 5310  27.117   3.074   6.215 -0.0214 -0.1943 -0.0307
53830DOD     C3 5311  26.697   3.326   6.215  0.2404  0.2950  0.1970
53831DOD     C1 5312  18.720   3.463  21.381 -0.1087 -0.0351  0.0062
53831DOD     C2 5313  19.176   3.328  21.414  0.2486  0.2355  0.0238
53831DOD     C3 5314  19.438   2.961  21.463 -0.0686 -0.1028 -0.0160
53832DOD     C1 5315   1.867  27.385  13.162 -0.0413 -0.2511  0.1890
53832DOD     C2 5316   2.273  27.252  13.067  0.1575  0.0718 -0.2594
53832DOD     C3 5317   2.470  26.889  13.268  0.0767  0.2562 -0.0369
53833DOD     C1 5318  24.374  26.041  17.863  0.2319 -0.2763  0.1624
53833DOD     C2 5319  24.743  26.178  17.589  0.2256  0.2861 -0.1722
53833DOD     C3 5320  25.100  26.440  17.592 -0.1296 -0.2125  0.0491
53834DOD     C1 5321  18.576  25.208  29.751 -0.0377  0.0040 -0.4680
53834DOD     C2 5322  18.249  25.462  29.924  0.0787 -0.0804  0.0854
53834DOD     C3 5323  17.937  25.597  30.322  0.0314  0.0627 -0.1491
53835DOD     C1 5324  11.165  26.675   8.832 -0.1643  0.2011 -0.2084
53835DOD     C2 5325  10.978  26.464   9.204 -0.0921  0.0132  0.1640
53835DOD     C3 5326  10.791  26.276   9.647  0.1695 -0.0602  0.1127
53836DOD     C1 5327   2.881  21.968  14.645 -0.1305 -0.2266 -0.1210
53836DOD     C2 5328   2.433  21.872  14.692  0.1470 -0.1719  0.2096
53836DOD     C3 5329   2.025  21.636  14.669 -0.0171  0.0666 -0.2000
53837DOD     C1 5330  12.051  28.021   1.073 -0.0531 -0.2080 -0.0764
53837DOD     C2 5331  12.531  28.150   1.182  0.2399  0.1096  0.0349
53837DOD     C3 5332  12.826  28.265   1.550  0.0931  0.1252 -0.1957
53838DOD     C1 5333  23.100  18.411  23.712 -0.3108  0.0232 -0.0590
53838DOD     C2 5334  23.502  18.475  23.443  0.1798 -0.0784 -0.0644
53838DOD     C3 5335  23.615  18.814  23.133 -0.0092 -0.0429 -0.1440
53839DOD     C1 5336  27.309  22.902  22.721  0.0276  0.1106  0.0167
53839DOD     C2 5337  26.893  22.971  22.501  0.1965  0.0270  0.0547
53839DOD     C3 5338  26.582  22.872  22.134 -0.1216  0.1308 -0.1739
53840DOD     C1 5339  16.557  12.811  27.533 -0.1648  0.1246  0.0799
53840DOD     C2 5340  16.430  12.654  27.963 -0.0176 -0.0107  0.4122
53840DOD     C3 5341  16.229  12.282  28.166  0.0504 -0.0772  0.0461
53841DOD     C1 5342   3.318   3.619  16.645 -0.0206 -0.1022 -0.0826
53841DOD     C2 5343   3.288   3.915  16.231  0.0736 -0.0789  0.2780
53841DOD     C3 5344   3.037   3.962  15.863  0.0696  0.3873 -0.3156
53842DOD     C1 5345  19.253   9.338  17.486  0.2273 -0.0603  0.2958
53842DOD     C2 5346  18.864   9.494  17.227  0.0332 -0.0934 -0.2027
53842DOD     C3 5347  18.440   9.675  17.198  0.1310 -0.2294 -0.0090
53843DOD     C1 5348  27.318   6.632   3.993  0.0730  0.1771  0.0809
53843DOD     C2 5349  27.677   6.400   4.169  0.0112  0.2025  0.1469
53843DOD     C3 5350  28.150   6.431   4.191  0.1088 -0.0057 -0.1764
53844DOD     C1 5351   4.493   0.859  28.349  0.4269  0.0832 -0.1479
53844DOD     C2 5352   4.649   0.959  28.864 -0.2354 -0.1706 -0.2124
53844DOD     C3 5353   4.878   1.227  29.192 -0.2024  0.3837 -0.2986
53845DOD     C1 5354   5.610  15.269   0.856 -0.0693 -0.0619 -0.1819
53845DOD     C2 5355   5.544  15.632   0.511  0.2083 -0.0728 -0.2111
53845DOD     C3 5356   5.620  16.058   0.296  0.0045  0.2160 -0.1760
53846DOD     C1 5357   4.118  26.994  15.668 -0.1223  0.1525  0.2339
53846DOD     C2 5358   3.685  26.941  15.541  0.0001  0.2792 -0.2667
53846DOD     C3 5359   3.240  26.800  15.564  0.0263  0.1386 -0.0205
53847DOD     C1 5360   6.185  18.312   9.988 -0.3655  0.1771  0.1476
53847DOD     C2 5361   6.421  18.091  10.342 -0.1419  0.0053  0.0117
53847DOD     C3 5362   6.761  17.759  10.477  0.0912 -0.0576  0.0332
53848DOD     C1 5363   0.195  22.938   4.747  0.2625  0.2111 -0.2741
53848DOD     C2 5364   0.161  23.271   4.492 -0.2205 -0.3778  0.1860
53848DOD     C3 5365   0.310  23.286   4.050 -0.0931  0.0450 -0.0712
53849DOD     C1 5366  22.975   8.923  24.494 -0.2674  0.2642 -0.0880
53849DOD     C2 5367  23.058   8.813  24.939  0.2498  0.1135  0.1108
53849DOD     C3 5368  23.438   8.642  25.200 -0.0724 -0.2892 -0.0593
53850DOD     C1 5369  24.329  10.068  21.214 -0.0492 -0.0832 -0.0636
53850DOD     C2 5370  24.122  10.106  21.637  0.7412 -0.1459  0.1101
53850DOD     C3 5371  24.175  10.160  22.100 -0.0746 -0.1801 -0.0393
53851DOD     C1 5372  29.449   5.754   5.144 -0.4193  0.0110  0.2241
53851DOD     C2 5373  29.631   5.630   4.749  0.1622  0.2924  0.1654
53851DOD     C3 5374  30.081   5.722   4.562  0.0933  0.0860 -0.0876
53852DOD     C1 5375  27.042  15.147  27.176 -0.0806  0.0835 -0.2260
53852DOD     C2 5376  26.879  15.227  26.767  0.0588  0.0588 -0.2402
53852DOD     C3 5377  26.463  15.553  26.799 -0.1926 -0.2755 -0.4000
53853DOD     C1 5378  19.277   0.051  15.434  0.2193  0.0196 -0.1037
53853DOD     C2 5379  19.665  30.233  15.596 -0.2114 -0.4707  0.0180
53853DOD     C3 5380  20.091  30.022  15.709  0.2696  0.1808  0.1522
53854DOD     C1 5381   1.771   1.500   4.223  0.2449 -0.0538 -0.0614
53854DOD     C2 5382   2.074   1.871   4.367 -0.0632  0.3974 -0.0324
53854DOD     C3 5383   2.255   2.235   4.134  0.0245  0.0341  0.2746
53855DOD     C1 5384  13.497  22.439   8.749 -0.0108  0.1581 -0.1458
53855DOD     C2 5385  13.495  21.970   8.798  0.0527  0.1619 -0.3210
53855DOD     C3 5386  13.439  21.573   8.926  0.0601  0.1102 -0.5166
53856DOD     C1 5387  10.113  13.271  11.241  0.1166 -0.3404  0.1458
53856DOD     C2 5388  10.001  13.629  10.977  0.2165 -0.0238 -0.2059
53856DOD     C3 5389   9.734  14.029  11.056 -0.2270 -0.5210 -0.3349
53857DOD     C1 5390   2.779  21.427  17.501  0.0725  0.0522  0.0690
53857DOD     C2 5391   3.017  21.024  17.553  0.0065 -0.0592  0.2072
53857DOD     C3 5392   3.386  20.698  17.387  0.2504 -0.2488  0.0342
53858DOD     C1 5393   1.766  24.503  23.782  0.0096 -0.0969 -0.0189
53858DOD     C2 5394   2.211  24.622  23.810 -0.0396 -0.0810  0.0043
53858DOD     C3 5395   2.655  24.699  23.840 -0.1386  0.1256 -0.2030
53859DOD     C1 5396  13.238   9.015   1.938  0.0148 -0.2507  0.1488
53859DOD     C2 5397  12.758   8.969   1.982  0.1498  0.0949  0.1205
53859DOD     C3 5398  12.348   9.103   1.841  0.0015 -0.2477 -0.0861
53860DOD     C1 5399  12.547  10.728  25.228 -0.3106  0.2122 -0.2022
53860DOD     C2 5400  12.719  11.025  25.542 -0.1071  0.2793 -0.3568
53860DOD     C3 5401  12.716  11.502  25.653  0.1832  0.1326 -0.4085
53861DOD     C1 5402  16.386   7.260  25.924  0.2281 -0.1594  0.1331
53861DOD     C2 5403  16.068   6.953  25.905 -0.2525  0.0710 -0.3244
53861DOD     C3 5404  15.964   6.482  25.904 -0.0286  0.1571  0.1467
53862DOD     C1 5405  29.123  20.121  17.281 -0.2236  0.1988 -0.1667
53862DOD     C2 5406  28.756  20.196  17.052  0.1683 -0.0109 -0.1074
53862DOD     C3 5407  28.855  20.249  16.630  0.0479 -0.0803 -0.0695
53863DOD     C1 5408  11.310  17.677   9.048 -0.2037  0.0387  0.0033
53863DOD     C2 5409  11.718  17.924   9.067  0.0265 -0.1808  0.0656
53863DOD     C3 5410  12.079  18.092   8.984  0.1910  0.0992  0.0217
53864DOD     C1 5411  10.539   3.019  24.038 -0.1249 -0.1919  0.0135
53864DOD     C2 5412  10.909   2.822  24.170  0.1878 -0.1165  0.1164
53864DOD     C3 5413  11.143   2.610  24.530 -0.4248  0.0620  0.3613
53865DOD     C1 5414  27.624   0.709  19.026  0.0650  0.0360  0.1038
53865DOD     C2 5415  27.849   0.977  18.730 -0.1604  0.1222 -0.1360
53865DOD     C3 5416  27.675   0.966  18.308  0.0069 -0.2460 -0.0261
53866DOD     C1 5417  18.283   6.627  23.135 -0.3944 -0.0015  0.0409
53866DOD     C2 5418  18.573   6.654  23.431 -0.1251  0.3055 -0.1067
53866DOD     C3 5419  18.967   6.567  23.717  0.1257  0.3218 -0.0067
53867DOD     C1 5420   2.824  15.738   9.206  0.0778 -0.1088  0.0268
53867DOD     C2 5421   2.745  15.279   9.324 -0.1572  0.0263  0.2430
53867DOD     C3 5422   2.410  14.952   9.293  0.1335 -0.0845  0.0777
53868DOD     C1 5423   1.221  14.097  11.637  0.3679  0.1538  0.1700
53868DOD     C2 5424   0.939  13.902  11.269  0.0887 -0.0791  0.2058
53868DOD     C3 5425   0.580  13.844  10.934 -0.2731  0.0679 -0.0028
53869DOD     C1 5426  30.363  24.006  28.651  0.3052 -0.0423 -0.0270
53869DOD     C2 5427  30.188  24.363  28.356  0.2253 -0.2786  0.1373
53869DOD     C3 5428  29.875  24.603  28.083 -0.1454  0.3075 -0.1095
53870DOD     C1 5429  10.012  16.016  13.899 -0.1499  0.1152  0.0851
53870DOD     C2 5430  10.308  15.692  13.796 -0.2757  0.0767  0.0259
53870DOD     C3 5431  10.584  15.453  14.056 -0.0523  0.0884 -0.0144
53871DOD     C1 5432   6.765  27.604   5.193 -0.0677 -0.0130  0.0793
53871DOD     C2 5433   6.433  27.344   5.353  0.0795  0.0460 -0.0069
53871DOD     C3 5434   5.986  27.297   5.543  0.0325 -0.2396  0.0179
53872DOD     C1 5435  11.478  27.493  16.402 -0.1607  0.1849 -0.0919
53872DOD     C2 5436  11.379  27.143  16.729 -0.2929 -0.0102  0.1122
53872DOD     C3 5437  11.323  26.707  16.899 -0.0401  0.3837  0.0698
53873DOD     C1 5438  26.641  14.712  24.289 -0.1614 -0.1746  0.0232
53873DOD     C2 5439  27.091  14.733  24.474 -0.0642 -0.2494 -0.1550
53873DOD     C3 5440  27.492  14.902  24.463 -0.1912  0.1073  0.0104
53874DOD     C1 5441  28.492   8.404   7.598 -0.1198  0.0260  0.0222
53874DOD     C2 5442  28.715   8.853   7.653  0.2775 -0.0089 -0.2373
53874DOD     C3 5443  28.622   9.328   7.616  0.0076 -0.3372 -0.2969
53875DOD     C1 5444   0.582  29.235   4.067 -0.0965 -0.2071  0.1347
53875DOD     C2 5445   0.526  29.629   4.362 -0.0849  0.1320  0.2669
53875DOD     C3 5446   0.491  30.096   4.489 -0.0918  0.1355 -0.2200
53876DOD     C1 5447   6.680  11.105  21.304 -0.2036 -0.0907 -0.0216
53876DOD     C2 5448   6.751  11.081  21.795  0.0469 -0.5553  0.1481
53876DOD     C3 5449   7.051  11.160  22.207  0.0611 -0.1908  0.0151
53877DOD     C1 5450  10.054  12.902  17.694 -0.0799  0.0027  0.0940
53877DOD     C2 5451  10.023  12.652  18.049 -0.1766 -0.1002 -0.0505
53877DOD     C3 5452  10.085  12.474  18.484  0.0498 -0.1298 -0.0468
53878DOD     C1 5453   5.999  10.119   5.512 -0.2451 -0.0395  0.1136
53878DOD     C2 5454   6.068  10.262   5.067  0.0427  0.0773  0.0942
53878DOD     C3 5455   6.440  10.224   4.773  0.0198 -0.1423  0.1940
53879DOD     C1 5456  11.366  13.189  25.565  0.0965  0.0223  0.0939
53879DOD     C2 5457  11.290  13.657  25.682 -0.0719  0.0572  0.1642
53879DOD     C3 5458  10.887  13.934  25.766  0.0690 -0.0353  0.1463
53880DOD     C1 5459  13.444  20.609  26.096 -0.2119 -0.1788 -0.4623
53880DOD     C2 5460  13.435  20.796  26.568  0.0014  0.2152  0.2604
53880DOD     C3 5461  13.190  21.180  26.766 -0.3381  0.0145  0.0825
53881DOD     C1 5462  15.091   1.746  11.202  0.2875  0.0133 -0.0174
53881DOD     C2 5463  15.511   1.691  11.394 -0.5136  0.0137 -0.1439
53881DOD     C3 5464  15.845   1.955  11.617  0.2708 -0.0668  0.0259
53882DOD     C1 5465  22.706  23.921  28.806 -0.0142 -0.0950  0.0697
53882DOD     C2 5466  22.324  23.735  28.998  0.1902  0.3584 -0.0820
53882DOD     C3 5467  22.055  23.415  29.175  0.1633 -0.0857  0.0513
53883DOD     C1 5468   7.335  22.068  11.981 -0.2936  0.1357 -0.0966
53883DOD     C2 5469   7.290  21.624  12.201 -0.1396  0.2114  0.2623
53883DOD     C3 5470   7.371  21.199  12.082 -0.0479  0.3338  0.2182
53884DOD     C1 5471   5.531  24.102   8.146 -0.0390 -0.2898 -0.2460
53884DOD     C2 5472   5.574  23.689   8.013  0.1787 -0.1380  0.1088
53884DOD     C3 5473   5.844  23.353   8.210  0.3181 -0.2198  0.0009
53885DOD     C1 5474  23.003  27.908  23.066  0.0776  0.2195 -0.2837
53885DOD     C2 5475  22.701  27.608  22.938 -0.1640 -0.2279 -0.0137
53885DOD     C3 5476  22.910  27.327  22.641 -0.0342  0.0754 -0.1231
53886DOD     C1 5477   0.481   4.988  12.640 -0.1799  0.0175  0.2919
53886DOD     C2 5478   0.096   5.290  12.586  0.0651 -0.0861  0.1160
53886DOD     C3 5479  30.011   5.442  12.811  0.1128 -0.0574  0.2444
53887DOD     C1 5480  14.995   6.047   2.398 -0.0950 -0.4581 -0.1164
53887DOD     C2 5481  15.375   5.921   2.131  0.0802  0.0617 -0.0292
53887DOD     C3 5482  15.856   5.922   2.004 -0.0617 -0.0041 -0.0841
53888DOD     C1 5483  15.493  17.337   0.861 -0.1246 -0.2539  0.2252
53888DOD     C2 5484  15.644  17.048   0.535 -0.1583 -0.1260 -0.5072
53888DOD     C3 5485  15.996  16.940   0.279 -0.2527  0.2424 -0.0557
53889DOD     C1 5486  10.158  11.997  20.701 -0.5164 -0.0094 -0.3634
53889DOD     C2 5487   9.842  11.982  20.346 -0.2851  0.1792  0.0869
53889DOD     C3 5488   9.410  11.876  20.271 -0.1408  0.0150 -0.1952
53890DOD     C1 5489   0.618  24.228  16.217 -0.1119 -0.1060 -0.2104
53890DOD     C2 5490   0.934  24.598  16.304 -0.1387  0.2500  0.2247
53890DOD     C3 5491   1.321  24.767  16.117  0.0475 -0.0036 -0.2153
53891DOD     C1 5492  25.786   3.081  28.821 -0.1627  0.1375  0.2586
53891DOD     C2 5493  25.998   2.799  29.113  0.2289 -0.3728 -0.0170
53891DOD     C3 5494  26.181   2.766  29.573 -0.0007  0.3252 -0.0663
53892DOD     C1 5495   8.013  15.279  21.240  0.1533  0.0793  0.1509
53892DOD     C2 5496   8.115  15.079  20.830 -0.1453  0.1917  0.1699
53892DOD     C3 5497   8.187  14.807  20.415  0.0549 -0.0311  0.0184
53893DOD     C1 5498  16.947  22.730  22.989 -0.2760  0.0611  0.0048
53893DOD     C2 5499  16.914  23.166  22.907  0.1606 -0.1482  0.0092
53893DOD     C3 5500  17.173  23.522  22.917 -0.0906  0.0792  0.0117
53894DOD     C1 5501   8.323   3.924  25.056  0.0550 -0.0378 -0.2463
53894DOD     C2 5502   7.886   3.713  24.873  0.1886 -0.1740 -0.0420
53894DOD     C3 5503   7.462   3.720  25.012 -0.1504  0.0372 -0.2218
53895DOD     C1 5504   6.815  25.181  23.267 -0.4351  0.3544  0.1008
53895DOD     C2 5505   6.673  25.542  23.449  0.2310  0.1606  0.1379
53895DOD     C3 5506   6.723  25.711  23.884 -0.1970 -0.1241  0.1215
53896DOD     C1 5507  16.999  11.319   8.964 -0.2051  0.1289 -0.1334
53896DOD     C2 5508  17.234  11.175   8.566  0.4984  0.2742  0.0089
53896DOD     C3 5509  17.650  11.139   8.435 -0.1907 -0.3529 -0.0721
53897DOD     C1 5510  13.659   8.661  17.621 -0.1854  0.0977  0.0793
53897DOD     C2 5511  13.502   8.214  17.704 -0.2867 -0.0537 -0.0549
53897DOD     C3 5512  13.199   7.850  17.602 -0.1320  0.1231  0.0384
53898DOD     C1 5513  18.911  20.972  14.277 -0.3547  0.0615 -0.0926
53898DOD     C2 5514  18.882  20.919  13.874  0.0496 -0.1752 -0.2475
53898DOD     C3 5515  18.810  21.115  13.466 -0.1501 -0.3292 -0.0166
53899DOD     C1 5516  28.004  13.943   8.786 -0.2885  0.0443 -0.0281
53899DOD     C2 5517  27.610  13.692   8.615  0.1320 -0.3662  0.0059
53899DOD     C3 5518  27.355  13.512   8.276 -0.1189  0.0873 -0.0364
53900DOD     C1 5519  18.252  17.380  16.904  0.1093 -0.1598 -0.1583
53900DOD     C2 5520  18.312  17.364  16.470 -0.2710 -0.1076  0.1707
53900DOD     C3 5521  18.022  17.367  16.069  0.0793  0.1131  0.1405
53901DOD     C1 5522  11.202  17.637   3.667 -0.1230 -0.2144 -0.0389
53901DOD     C2 5523  11.378  18.010   3.396  0.1620  0.0000  0.1369
53901DOD     C3 5524  11.693  18.023   3.066  0.0878 -0.1583 -0.0754
53902DOD     C1 5525   6.496  20.518  19.907  0.0047 -0.0811 -0.4479
53902DOD     C2 5526   6.313  20.992  19.867  0.0453 -0.0174  0.2188
53902DOD     C3 5527   6.026  21.115  20.260  0.1172  0.0704  0.1245
53903DOD     C1 5528   4.745   6.000  12.641  0.3113 -0.0812  0.0202
53903DOD     C2 5529   4.582   6.343  12.929 -0.4332 -0.0194  0.0314
53903DOD     C3 5530   4.894   6.670  13.090 -0.0610 -0.0149  0.1758
53904DOD     C1 5531  29.372  19.917   9.915  0.3290  0.0944 -0.0394
53904DOD     C2 5532  29.241  20.002   9.474  0.3048  0.0431  0.1677
53904DOD     C3 5533  29.553  20.014   9.100  0.2660 -0.1178  0.0624
53905DOD     C1 5534  12.123   6.793   1.079  0.0422 -0.1141 -0.1028
53905DOD     C2 5535  11.868   6.810   0.714 -0.0295 -0.4299 -0.0010
53905DOD     C3 5536  11.650   6.916   0.308  0.2240 -0.1369 -0.0175
53906DOD     C1 5537  22.596   8.242  16.535 -0.2423 -0.5020 -0.1374
53906DOD     C2 5538  23.056   8.131  16.473 -0.1454 -0.0715  0.0171
53906DOD     C3 5539  23.095   8.023  16.066 -0.0839  0.1729  0.0552
53907DOD     C1 5540  19.135  16.653  11.466 -0.2489 -0.0326  0.1988
53907DOD     C2 5541  19.575  16.725  11.288  0.0617  0.1635  0.1068
53907DOD     C3 5542  20.027  16.585  11.301  0.0424 -0.0279  0.2208
53908DOD     C1 5543  22.714  12.380  26.113 -0.1030 -0.2146  0.0927
53908DOD     C2 5544  22.916  12.061  25.802 -0.2741 -0.0147  0.0014
53908DOD     C3 5545  23.051  11.879  25.361  0.2266 -0.3550 -0.1467
53909DOD     C1 5546  11.454   5.213  10.097 -0.0367  0.1324 -0.1676
53909DOD     C2 5547  11.428   5.544  10.438 -0.1312  0.4018  0.0242
53909DOD     C3 5548  11.434   5.831  10.805 -0.0553 -0.0742 -0.1879
53910DOD     C1 5549   1.102   2.060  20.892 -0.1859 -0.4389 -0.4979
53910DOD     C2 5550   1.385   2.247  20.554 -0.0753  0.2351  0.1642
53910DOD     C3 5551   1.462   2.697  20.472  0.2390 -0.0243  0.2023
53911DOD     C1 5552  18.180  27.958   1.277  0.0645  0.0779 -0.2247
53911DOD     C2 5553  17.767  27.685   1.217  0.1048 -0.1876 -0.2829
53911DOD     C3 5554  17.568  27.589   0.836  0.2050  0.0100 -0.1589
53912DOD     C1 5555  14.269   4.143  15.678  0.1282 -0.2823 -0.0410
53912DOD     C2 5556  14.042   4.544  15.459  0.1608 -0.0459 -0.1700
53912DOD     C3 5557  14.146   4.919  15.740  0.2188  0.0685  0.0107
53913DOD     C1 5558  11.692  21.664  26.453 -0.0457  0.1445 -0.2136
53913DOD     C2 5559  12.088  21.965  26.519 -0.0917  0.0974 -0.0777
53913DOD     C3 5560  12.526  22.001  26.574 -0.0726  0.1887  0.2201
53914DOD     C1 5561   6.628   6.485   5.769 -0.0882  0.0509 -0.2986
53914DOD     C2 5562   6.482   6.382   5.310  0.1222 -0.1420 -0.0359
53914DOD     C3 5563   6.287   6.527   4.892  0.2271 -0.1549  0.0460
53915DOD     C1 5564  29.701  28.317  27.010  0.2019  0.0955  0.0874
53915DOD     C2 5565  29.907  27.956  26.756 -0.1745  0.2029 -0.1013
53915DOD     C3 5566  30.169  27.624  26.553 -0.1024 -0.3700 -0.0246
53916DOD     C1 5567   0.639  22.908  26.257  0.0098  0.1307 -0.0318
53916DOD     C2 5568   0.669  22.585  25.914 -0.2055  0.0041 -0.4845
53916DOD     C3 5569   0.764  22.212  25.673 -0.1372 -0.0078 -0.2564
53917DOD     C1 5570  23.485   3.134  24.487 -0.2187 -0.0696 -0.2410
53917DOD     C2 5571  23.829   3.345  24.691  0.2352  0.0288  0.0018
53917DOD     C3 5572  24.049   3.691  24.980  0.0651  0.0641 -0.0686
53918DOD     C1 5573  22.617  24.978  20.418 -0.2525  0.1287 -0.0716
53918DOD     C2 5574  22.159  24.873  20.297 -0.0821  0.1696 -0.0291
53918DOD     C3 5575  21.890  24.672  19.974 -0.0210  0.0112 -0.0968
53919DOD     C1 5576   4.064  13.125  26.774  0.2903 -0.3038 -0.2414
53919DOD     C2 5577   4.295  13.524  26.765  0.2246 -0.1939 -0.4134
53919DOD     C3 5578   4.457  13.769  26.433 -0.1456  0.3699 -0.2503
53920DOD     C1 5579   4.364   4.717  23.366  0.0039 -0.1184 -0.1252
53920DOD     C2 5580   4.757   4.681  23.158 -0.0681 -0.0139  0.2288
53920DOD     C3 5581   5.172   4.461  23.009  0.3849  0.1180 -0.2113
53921DOD     C1 5582   6.517  22.411  21.850 -0.2222  0.1824  0.0652
53921DOD     C2 5583   6.872  22.513  21.528 -0.0290  0.2096  0.1352
53921DOD     C3 5584   7.226  22.636  21.270 -0.0430  0.0952 -0.2808
53922DOD     C1 5585  13.767   0.879  18.095 -0.0946 -0.0093 -0.1889
53922DOD     C2 5586  13.557   0.468  18.236 -0.0569  0.0494 -0.0675
53922DOD     C3 5587  13.818   0.051  18.246  0.0355 -0.0762  0.1565
53923DOD     C1 5588  22.984  10.975  21.504  0.2543  0.0286 -0.3626
53923DOD     C2 5589  23.396  10.754  21.592  0.0466 -0.1184  0.1285
53923DOD     C3 5590  23.746  10.559  21.323  0.0373 -0.1984 -0.2379
53924DOD     C1 5591  29.746  25.966  20.356  0.0605  0.1149 -0.0104
53924DOD     C2 5592  29.695  26.465  20.259 -0.1334  0.0375  0.0962
53924DOD     C3 5593  29.420  26.789  20.414  0.3086  0.0723  0.1612
53925DOD     C1 5594  29.980   1.669   6.149  0.1764  0.0349  0.4212
53925DOD     C2 5595  30.166   1.317   6.416  0.0255 -0.3707  0.3409
53925DOD     C3 5596  30.205   1.221   6.925  0.0443  0.0703 -0.1535
53926DOD     C1 5597  14.714  19.541  27.898 -0.1434  0.2290  0.0707
53926DOD     C2 5598  14.481  19.217  28.165 -0.2975  0.1021  0.5023
53926DOD     C3 5599  14.037  19.014  28.152  0.5886  0.1494  0.0404
53927DOD     C1 5600  27.534   9.512  14.829 -0.0719  0.1683 -0.3464
53927DOD     C2 5601  27.953   9.252  14.878 -0.0550  0.1050 -0.0320
53927DOD     C3 5602  28.322   9.107  15.122 -0.1147  0.3935 -0.0433
53928DOD     C1 5603  14.821   6.673  23.024  0.0533 -0.0455  0.2031
53928DOD     C2 5604  14.467   6.722  22.709  0.2318  0.0482  0.2964
53928DOD     C3 5605  14.058   6.553  22.607  0.2282  0.1256  0.1216
53929DOD     C1 5606  12.549  10.569  13.574  0.3282  0.2115 -0.0629
53929DOD     C2 5607  12.433  10.850  13.957 -0.3044 -0.2314 -0.0066
53929DOD     C3 5608  12.400  11.082  14.329  0.2703 -0.1349  0.1678
53930DOD     C1 5609   8.657  16.124  27.309 -0.1366  0.2137 -0.2932
53930DOD     C2 5610   8.989  15.902  27.522 -0.0231  0.1049  0.0252
53930DOD     C3 5611   9.277  15.547  27.631  0.3659 -0.0871  0.0020
53931DOD     C1 5612  27.774  20.860   0.713  0.1873  0.1056  0.0395
53931DOD     C2 5613  27.738  21.065   0.294 -0.0881 -0.0200  0.0432
53931DOD     C3 5614  27.400  21.227   0.009 -0.2324  0.2652 -0.3836
53932DOD     C1 5615  16.566  19.323  12.182  0.1493 -0.0930  0.0434
53932DOD     C2 5616  16.515  18.877  12.386  0.1848  0.2332 -0.0663
53932DOD     C3 5617  16.472  18.469  12.607  0.1768  0.2844  0.1966
53933DOD     C1 5618  29.311  20.110  25.489 -0.2930  0.0167  0.4648
53933DOD     C2 5619  29.724  19.843  25.496  0.1053 -0.0397 -0.2258
53933DOD     C3 5620  29.917  19.573  25.196  0.2175 -0.3629  0.0331
53934DOD     C1 5621   0.917  21.075   8.285 -0.1858 -0.2024 -0.0120
53934DOD     C2 5622   0.423  21.180   8.239  0.0957  0.3219 -0.0217
53934DOD     C3 5623  30.358  21.195   7.973  0.3266  0.3160  0.0400
53935DOD     C1 5624  16.188  18.037  14.329 -0.3904  0.0119 -0.0378
53935DOD     C2 5625  16.018  18.188  13.956  0.0769 -0.0660 -0.0016
53935DOD     C3 5626  16.106  18.446  13.593 -0.0815 -0.0403  0.0106
53936DOD     C1 5627   1.280  20.465  17.561 -0.2491  0.1956  0.1240
53936DOD     C2 5628   1.156  20.118  17.278  0.1799 -0.0357  0.3292
53936DOD     C3 5629   0.950  19.685  17.345 -0.1257 -0.0871 -0.1803
53937DOD     C1 5630   8.801   5.248   0.733  0.1446  0.0655  0.0166
53937DOD     C2 5631   9.205   5.007   0.698 -0.2003  0.0634  0.0064
53937DOD     C3 5632   9.333   4.579   0.640 -0.0427  0.2348  0.1440
53938DOD     C1 5633  21.156  16.519   3.580  0.0017 -0.0129  0.0609
53938DOD     C2 5634  20.978  16.699   3.984 -0.0766 -0.1944  0.1820
53938DOD     C3 5635  20.935  16.586   4.413  0.0898  0.2896  0.0919
53939DOD     C1 5636  27.204   7.854  23.902 -0.1616  0.1690 -0.2461
53939DOD     C2 5637  27.052   7.955  23.483 -0.2289  0.2235  0.0787
53939DOD     C3 5638  26.865   8.294  23.281 -0.1394  0.2829  0.3091
53940DOD     C1 5639   7.616   9.804   7.629 -0.0030  0.1908 -0.0924
53940DOD     C2 5640   7.709   9.767   8.113 -0.3361 -0.1176  0.0456
53940DOD     C3 5641   8.036  10.010   8.391  0.0260 -0.1051  0.0691
53941DOD     C1 5642  21.202   6.795  22.631  0.1058  0.1615 -0.2020
53941DOD     C2 5643  20.844   6.572  22.392  0.2371  0.0005  0.1236
53941DOD     C3 5644  20.371   6.558  22.351  0.0291 -0.1263  0.0582
53942DOD     C1 5645   7.987   9.406   7.951  0.0425 -0.1373 -0.0810
53942DOD     C2 5646   7.924   9.453   7.487 -0.0022  0.0367 -0.0760
53942DOD     C3 5647   7.687   9.420   7.052 -0.2329  0.1082  0.0024
53943DOD     C1 5648  16.736   5.277   1.594 -0.1224  0.1271  0.3897
53943DOD     C2 5649  17.160   5.105   1.574  0.0316  0.0517  0.2112
53943DOD     C3 5650  17.479   4.857   1.336  0.2177  0.0752  0.1887
53944DOD     C1 5651  20.214   3.876   8.232 -0.3022 -0.1305 -0.0600
53944DOD     C2 5652  20.085   3.557   8.613  0.1827 -0.2310  0.3277
53944DOD     C3 5653  20.004   3.596   9.082 -0.0869 -0.0140  0.0533
53945DOD     C1 5654  12.124  28.574  19.325 -0.2085 -0.0937 -0.4357
53945DOD     C2 5655  12.167  28.426  19.763 -0.0540  0.0880  0.0429
53945DOD     C3 5656  12.293  28.255  20.168  0.2287  0.0679 -0.2581
53946DOD     C1 5657  22.677   9.629   2.684 -0.1861  0.0477  0.1505
53946DOD     C2 5658  22.998   9.965   2.746 -0.3284 -0.2813 -0.2148
53946DOD     C3 5659  22.840  10.371   2.949  0.2438  0.1473 -0.0281
53947DOD     C1 5660   8.596  15.348  19.118 -0.1667  0.2253  0.3828
53947DOD     C2 5661   8.731  15.824  19.135 -0.1346 -0.1816 -0.0442
53947DOD     C3 5662   8.848  16.216  19.338  0.0084  0.1774 -0.0123
53948DOD     C1 5663  25.616   9.475   7.284 -0.0287 -0.0344  0.0512
53948DOD     C2 5664  25.367   9.527   6.864  0.1401  0.2356 -0.0889
53948DOD     C3 5665  24.929   9.474   6.897 -0.1140 -0.3375 -0.1448
53949DOD     C1 5666  16.964  26.009  26.375  0.1573  0.1281  0.0084
53949DOD     C2 5667  17.071  26.421  26.613 -0.1742  0.2803 -0.2215
53949DOD     C3 5668  17.088  26.525  27.034 -0.1134  0.4159 -0.1920
53950DOD     C1 5669  15.472  21.709   3.521 -0.0120 -0.0703 -0.0084
53950DOD     C2 5670  15.753  21.947   3.266 -0.0824 -0.1820 -0.0736
53950DOD     C3 5671  15.834  22.208   2.863  0.0356 -0.3193  0.2582
53951DOD     C1 5672   1.801  15.486   0.242 -0.1547  0.0048 -0.0242
53951DOD     C2 5673   1.809  15.431  30.058 -0.0706 -0.0919  0.1118
53951DOD     C3 5674   1.817  15.477  29.536  0.0129  0.1475 -0.1075
53952DOD     C1 5675  12.633  26.226  27.762 -0.1470 -0.0839 -0.1816
53952DOD     C2 5676  12.811  26.648  27.608 -0.0520 -0.1106  0.1136
53952DOD     C3 5677  12.937  26.964  27.238 -0.0700  0.1264 -0.0252
53953DOD     C1 5678   7.624  29.290   2.843 -0.0260 -0.2570 -0.4077
53953DOD     C2 5679   7.790  29.100   2.460 -0.0322 -0.0540 -0.0001
53953DOD     C3 5680   7.808  28.948   2.024 -0.0189  0.1839  0.1029
53954DOD     C1 5681  14.440   1.110   8.584 -0.5494  0.3300  0.1752
53954DOD     C2 5682  14.137   1.403   8.341  0.0653 -0.1620  0.4213
53954DOD     C3 5683  13.766   1.682   8.158  0.0050 -0.2180 -0.1605
53955DOD     C1 5684   8.682  15.567   2.582  0.2493  0.1621 -0.1218
53955DOD     C2 5685   8.680  15.231   2.235  0.1504 -0.1230  0.0381
53955DOD     C3 5686   8.823  14.771   2.149 -0.0595  0.0665  0.0446
53956DOD     C1 5687  10.976  10.155  21.832  0.1423 -0.2294  0.0333
53956DOD     C2 5688  10.744  10.359  22.219 -0.1866 -0.2107 -0.1643
53956DOD     C3 5689  10.441  10.572  22.498 -0.0471  0.0444 -0.1109
53957DOD     C1 5690  16.152   8.379  25.406  0.1830 -0.0144  0.1163
53957DOD     C2 5691  15.818   8.060  25.302 -0.3244 -0.1419  0.0163
53957DOD     C3 5692  15.727   7.628  25.316  0.1080 -0.1240 -0.0192
53958DOD     C1 5693  19.530   2.627   6.858  0.1640 -0.1127  0.1746
53958DOD     C2 5694  19.562   2.933   6.515 -0.0126  0.2635  0.2493
53958DOD     C3 5695  19.764   2.796   6.078 -0.0375  0.0551  0.2317
53959DOD     C1 5696   3.565  14.995  17.881 -0.1686 -0.2204 -0.0042
53959DOD     C2 5697   3.859  14.929  17.494 -0.4041 -0.2801  0.1224
53959DOD     C3 5698   4.116  14.778  17.143  0.0417  0.0069 -0.1045
53960DOD     C1 5699  22.118  21.529   4.055 -0.0806 -0.0703  0.1091
53960DOD     C2 5700  22.570  21.729   4.014 -0.3129  0.0078  0.0928
53960DOD     C3 5701  22.911  21.596   3.841 -0.4013 -0.3360  0.1090
53961DOD     C1 5702  27.953   4.594  26.075  0.0637  0.0898 -0.0498
53961DOD     C2 5703  28.210   4.333  26.401  0.2146 -0.1197 -0.1355
53961DOD     C3 5704  28.526   4.281  26.789  0.1138 -0.4653  0.0572
53962DOD     C1 5705   6.608   4.885  19.342 -0.1252  0.3540  0.2345
53962DOD     C2 5706   6.884   4.563  19.232 -0.0706 -0.0108  0.4169
53962DOD     C3 5707   7.132   4.182  19.043 -0.3226 -0.0014  0.0597
53963DOD     C1 5708  11.790   2.059  14.208 -0.0162 -0.0868  0.0057
53963DOD     C2 5709  11.969   1.773  14.539 -0.1321  0.1348  0.2305
53963DOD     C3 5710  11.920   1.386  14.792 -0.0077 -0.1692  0.1160
53964DOD     C1 5711  17.183  11.737  20.606  0.2549  0.1219  0.0806
53964DOD     C2 5712  16.934  12.148  20.764  0.0477  0.3134  0.0808
53964DOD     C3 5713  16.504  12.294  20.935 -0.0459  0.0310 -0.1955
53965DOD     C1 5714  28.759  10.499  19.684  0.1126 -0.3638 -0.0692
53965DOD     C2 5715  28.924  10.860  19.849 -0.0899 -0.2110 -0.1029
53965DOD     C3 5716  28.717  11.177  20.102  0.3363 -0.3509 -0.0941
53966DOD     C1 5717  11.662   4.349   6.985  0.0757  0.1511  0.2110
53966DOD     C2 5718  11.729   3.914   6.816 -0.4210 -0.0563 -0.0980
53966DOD     C3 5719  11.874   3.511   6.960  0.0611 -0.0105 -0.0339
53967DOD     C1 5720  25.165  29.415   0.940 -0.0909 -0.0480  0.3247
53967DOD     C2 5721  25.588  29.195   0.878  0.0214 -0.2837  0.3536
53967DOD     C3 5722  25.939  29.411   0.686  0.1418  0.2469  0.0949
53968DOD     C1 5723  23.657  10.456  25.772  0.3291  0.0778  0.0912
53968DOD     C2 5724  23.322  10.428  25.510 -0.0241 -0.2597  0.1667
53968DOD     C3 5725  22.985  10.055  25.410  0.4166 -0.0823 -0.0080
53969DOD     C1 5726  26.498  15.574  23.974  0.1835 -0.1049 -0.2396
53969DOD     C2 5727  26.507  16.004  23.830  0.0273 -0.1962 -0.1701
53969DOD     C3 5728  26.360  16.361  23.465  0.0035  0.5069 -0.2221
53970DOD     C1 5729  22.483   8.721  24.289  0.1941 -0.0153  0.3486
53970DOD     C2 5730  22.842   8.839  23.973  0.0745  0.0202  0.0308
53970DOD     C3 5731  23.068   9.105  23.631 -0.0103  0.0117 -0.1989
53971DOD     C1 5732   9.499  29.399  29.680 -0.1964  0.0509 -0.3944
53971DOD     C2 5733   9.124  29.210  29.963 -0.1364  0.2197  0.3491
53971DOD     C3 5734   8.914  28.856  29.781  0.2255 -0.0877 -0.3058
53972DOD     C1 5735  16.674  23.570  11.442 -0.0301  0.3775 -0.1773
53972DOD     C2 5736  16.295  23.714  11.190 -0.0572 -0.2593  0.0401
53972DOD     C3 5737  16.005  23.924  10.874  0.0702 -0.2658 -0.1794
53973DOD     C1 5738   4.295   3.575   0.168 -0.2202 -0.3696 -0.3270
53973DOD     C2 5739   4.721   3.528  30.294 -0.2455 -0.1793 -0.3107
53973DOD     C3 5740   4.746   3.367  29.846 -0.1302 -0.0805  0.1819
53974DOD     C1 5741  15.206  13.813  14.825  0.1186  0.1237  0.1368
53974DOD     C2 5742  15.435  13.407  14.733 -0.0318  0.0084 -0.0992
53974DOD     C3 5743  15.405  13.000  14.409  0.2465 -0.1849  0.0145
53975DOD     C1 5744  23.089  12.372  15.204 -0.3171  0.2660 -0.2549
53975DOD     C2 5745  22.810  12.392  14.845  0.0894  0.0812 -0.2687
53975DOD     C3 5746  22.623  12.597  14.436 -0.3781 -0.0987 -0.2367
53976DOD     C1 5747  13.049  21.847  10.153 -0.0430 -0.0144 -0.1192
53976DOD     C2 5748  13.208  22.265  10.033  0.0927 -0.4259 -0.0822
53976DOD     C3 5749  13.248  22.732   9.923  0.0387 -0.3334  0.0350
53977DOD     C1 5750  21.820  14.089   3.243  0.3091  0.2749 -0.1563
53977DOD     C2 5751  21.864  14.490   3.431  0.3377  0.1493  0.0738
53977DOD     C3 5752  21.762  14.912   3.349 -0.0888  0.3161 -0.1290
53978DOD     C1 5753  14.628  14.507  25.519  0.0727 -0.0456  0.1338
53978DOD     C2 5754  14.258  14.725  25.317  0.1648 -0.0761  0.0848
53978DOD     C3 5755  13.813  14.771  25.182  0.1484 -0.0524 -0.1321
53979DOD     C1 5756  24.374  20.341  11.695  0.1671  0.0926 -0.0048
53979DOD     C2 5757  24.249  20.321  12.137  0.1999  0.0797  0.0017
53979DOD     C3 5758  24.258  20.084  12.548 -0.0606  0.2821  0.0458
53980DOD     C1 5759   7.614  23.315  13.353  0.2229 -0.2701  0.2673
53980DOD     C2 5760   7.503  22.918  13.605 -0.0827  0.0594 -0.2773
53980DOD     C3 5761   7.213  22.740  13.925 -0.0187  0.0286 -0.0540
53981DOD     C1 5762  21.242  16.529  27.665 -0.0948  0.0705  0.4483
53981DOD     C2 5763  21.042  16.429  27.233  0.0827  0.0250 -0.1732
53981DOD     C3 5764  20.802  16.330  26.891 -0.1107 -0.1056 -0.1047
53982DOD     C1 5765  30.037  29.324   2.915  0.3576  0.1939  0.0993
53982DOD     C2 5766  30.201  29.360   2.441  0.1590 -0.3687  0.1066
53982DOD     C3 5767  -0.022  29.508   2.028 -0.3725 -0.0824  0.0587
53983DOD     C1 5768  24.662  10.429   6.337 -0.0356  0.3706 -0.2002
53983DOD     C2 5769  24.788  10.050   6.629 -0.1878  0.2470  0.1444
53983DOD     C3 5770  25.075   9.928   6.893 -0.1893 -0.0660  0.0527
53984DOD     C1 5771   6.758   1.447  24.448  0.0062  0.1630  0.0149
53984DOD     C2 5772   6.999   1.120  24.234  0.2282 -0.0095 -0.1299
53984DOD     C3 5773   7.242   0.773  24.054 -0.1624 -0.1521 -0.0102
53985DOD     C1 5774   0.524   5.495  16.785  0.2405  0.4477 -0.3530
53985DOD     C2 5775   0.613   5.703  17.215 -0.0237  0.0390 -0.1319
53985DOD     C3 5776   0.466   5.530  17.628 -0.2210  0.0622  0.2258
53986DOD     C1 5777   4.375   2.326   4.070 -0.0810  0.0273  0.2045
53986DOD     C2 5778   3.977   2.590   3.995  0.1044  0.0349 -0.2411
53986DOD     C3 5779   3.565   2.601   3.832 -0.1684  0.2341  0.1475
53987DOD     C1 5780  22.257  24.491   2.641 -0.1123 -0.2714  0.1160
53987DOD     C2 5781  22.179  24.255   2.240  0.1671 -0.0568  0.1085
53987DOD     C3 5782  22.097  23.943   1.867 -0.1014 -0.0342 -0.0922
53988DOD     C1 5783  27.268   4.365  13.687 -0.2442  0.1558  0.1227
53988DOD     C2 5784  27.676   4.154  13.560 -0.1608  0.0383  0.0118
53988DOD     C3 5785  28.056   3.937  13.466 -0.1751 -0.1133 -0.3160
53989DOD     C1 5786   7.990  19.327   6.005  0.0415 -0.0381  0.2123
53989DOD     C2 5787   7.598  19.006   6.024 -0.1621  0.2172  0.0657
53989DOD     C3 5788   7.228  18.731   6.011  0.0653  0.0727 -0.1334
53990DOD     C1 5789  27.879  18.645   1.096  0.0578 -0.0767  0.2979
53990DOD     C2 5790  27.517  18.762   1.393 -0.2103 -0.1641  0.0727
53990DOD     C3 5791  27.206  18.970   1.662 -0.0565 -0.1638 -0.0478
53991DOD     C1 5792   8.058  21.579  26.685  0.2571 -0.0654  0.1736
53991DOD     C2 5793   7.901  21.945  26.491  0.0439  0.1140 -0.2680
53991DOD     C3 5794   7.753  22.106  26.076 -0.0148 -0.3764 -0.1164
53992DOD     C1 5795   0.020  19.664  23.463 -0.1229  0.0355  0.0987
53992DOD     C2 5796   0.064  19.908  23.088 -0.2870  0.1897 -0.0479
53992DOD     C3 5797   0.122  20.303  22.901  0.2335 -0.2125  0.1434
53993DOD     C1 5798   6.113  27.819  21.387  0.4689 -0.3992  0.0734
53993DOD     C2 5799   6.238  27.739  21.858 -0.0004 -0.0975 -0.0471
53993DOD     C3 5800   6.270  27.835  22.304 -0.1643  0.0846  0.4563
53994DOD     C1 5801   2.314  18.046  13.842 -0.0192 -0.1037 -0.0881
53994DOD     C2 5802   2.501  17.777  13.527  0.1545 -0.0536 -0.0329
53994DOD     C3 5803   2.866  17.455  13.385 -0.1292  0.1358  0.4368
53995DOD     C1 5804   7.145   1.679   1.255  0.0016  0.0837 -0.1933
53995DOD     C2 5805   7.019   2.113   1.020 -0.0048 -0.1446 -0.0266
53995DOD     C3 5806   7.066   2.296   0.597  0.0710 -0.1496  0.0043
53996DOD     C1 5807   6.668   9.589   3.265 -0.0987 -0.1362 -0.0254
53996DOD     C2 5808   6.746   9.979   3.090 -0.1709  0.2863  0.0118
53996DOD     C3 5809   6.701  10.465   3.151  0.3945  0.1392 -0.0582
53997DOD     C1 5810  30.182   5.175   6.400  0.0756  0.0620 -0.1262
53997DOD     C2 5811  30.143   5.626   6.270 -0.0932  0.0247 -0.2519
53997DOD     C3 5812  30.272   6.036   6.201  0.1318 -0.2378  0.2641
53998DOD     C1 5813  19.566   4.001   8.003  0.2019 -0.0977 -0.0194
53998DOD     C2 5814  19.660   3.961   8.485  0.3445 -0.4692 -0.1371
53998DOD     C3 5815  19.453   3.644   8.777 -0.0862 -0.3545 -0.2543
53999DOD     C1 5816  18.455   0.802  24.882 -0.0776  0.0260  0.3324
53999DOD     C2 5817  18.636   0.786  25.303  0.0729 -0.3532  0.3093
53999DOD     C3 5818  19.013   0.739  25.599  0.1687 -0.4636 -0.0353
54000DOD     C1 5819  18.416  21.319   2.176 -0.1604 -0.0847 -0.0040
54000DOD     C2 5820  18.690  21.701   2.239 -0.0801 -0.1763 -0.0359
54000DOD     C3 5821  18.723  22.079   2.361 -0.0930  0.4163 -0.3387
54001DOD     C1 5822  12.842   1.605  17.227 -0.0849 -0.1424  0.2051
54001DOD     C2 5823  12.956   1.281  16.900  0.1246 -0.0185 -0.3422
54001DOD     C3 5824  12.550   1.113  16.740  0.1117  0.1142  0.0373
54002DOD     C1 5825   6.045  20.600  26.489 -0.3872  0.3571  0.2985
54002DOD     C2 5826   6.518  20.638  26.313 -0.0139  0.2093  0.3729
54002DOD     C3 5827   6.858  20.398  26.124 -0.1091  0.1921 -0.1699
54003DOD     C1 5828  26.023  27.035   2.817  0.3219  0.0279  0.1008
54003DOD     C2 5829  26.062  26.607   2.647  0.1303 -0.0441  0.0033
54003DOD     C3 5830  26.041  26.208   2.380  0.0824  0.1557 -0.0634
54004DOD     C1 5831  15.041  24.733  26.103  0.1738  0.3323  0.1495
54004DOD     C2 5832  14.680  24.930  25.877  0.2640  0.1924  0.0216
54004DOD     C3 5833  14.617  25.363  25.693 -0.0939  0.2115 -0.0907
54005DOD     C1 5834   3.952  18.803  27.107 -0.0318  0.0747 -0.2552
54005DOD     C2 5835   4.171  18.547  26.744 -0.1371  0.4273  0.3021
54005DOD     C3 5836   4.358  18.194  26.524 -0.0983  0.1629  0.0490
54006DOD     C1 5837  21.187   7.050  11.854 -0.1243 -0.1964 -0.3952
54006DOD     C2 5838  21.531   7.005  11.499  0.0286  0.1195 -0.0292
54006DOD     C3 5839  21.943   6.863  11.301  0.3679 -0.0895 -0.1943
54007DOD     C1 5840  16.993  23.953  23.930 -0.1278  0.3946  0.1221
54007DOD     C2 5841  17.187  23.786  23.486  0.1723 -0.0762 -0.3272
54007DOD     C3 5842  17.203  23.993  23.054 -0.1497  0.1443  0.1168
54008DOD     C1 5843  23.803  29.160   6.752  0.2325  0.1772  0.1784
54008DOD     C2 5844  23.965  29.127   6.315 -0.2438 -0.0838  0.1031
54008DOD     C3 5845  23.967  28.720   6.140 -0.0117 -0.2171  0.2717
54009DOD     C1 5846  20.217  25.073  20.841  0.2365 -0.2318 -0.1084
54009DOD     C2 5847  20.684  25.058  21.007  0.2629 -0.1588  0.0182
54009DOD     C3 5848  21.145  24.987  20.941  0.2959 -0.0676 -0.2580
54010DOD     C1 5849  16.919  11.329   5.722 -0.2154 -0.1443 -0.1393
54010DOD     C2 5850  16.841  11.201   6.158 -0.0463  0.2550  0.0096
54010DOD     C3 5851  16.825  11.061   6.562  0.1065 -0.0367 -0.1631
54011DOD     C1 5852   4.072  10.570   4.205 -0.0730  0.0719  0.3399
54011DOD     C2 5853   3.650  10.752   4.254 -0.1615 -0.0043 -0.2217
54011DOD     C3 5854   3.303  10.870   3.930 -0.1112 -0.0741 -0.0893
54012DOD     C1 5855  20.427  14.862  15.215 -0.0009 -0.2743  0.0411
54012DOD     C2 5856  20.248  15.219  15.413  0.2203  0.1040  0.0495
54012DOD     C3 5857  20.120  15.662  15.405  0.2257  0.0902 -0.2458
54013DOD     C1 5858   4.809  19.130   3.911 -0.0718 -0.0883  0.3001
54013DOD     C2 5859   5.019  19.163   3.457 -0.0708 -0.1374  0.0452
54013DOD     C3 5860   5.319  18.932   3.158  0.1114  0.1634 -0.2674
54014DOD     C1 5861  10.160   2.452   4.956 -0.1997  0.1184 -0.1953
54014DOD     C2 5862   9.923   2.284   5.306 -0.1098 -0.1302  0.1290
54014DOD     C3 5863   9.818   2.538   5.699 -0.0427  0.2842 -0.1904
54015DOD     C1 5864  27.052  15.841  12.535 -0.0776 -0.0763  0.0907
54015DOD     C2 5865  27.220  15.476  12.677 -0.0803 -0.1455  0.1245
54015DOD     C3 5866  27.642  15.290  12.756  0.1080 -0.0129  0.1964
54016DOD     C1 5867   5.677  20.931  13.458  0.1976 -0.1015 -0.0346
54016DOD     C2 5868   5.533  20.827  13.008  0.0518 -0.0941  0.1207
54016DOD     C3 5869   5.446  20.705  12.555 -0.0318 -0.0428  0.1746
54017DOD     C1 5870  23.283   2.916  23.548 -0.0805  0.1861 -0.2772
54017DOD     C2 5871  23.562   3.269  23.665 -0.1209 -0.0656  0.1287
54017DOD     C3 5872  23.765   3.656  23.787 -0.1362  0.0092  0.0267
54018DOD     C1 5873  17.438   1.522  29.401  0.1736  0.1651 -0.1788
54018DOD     C2 5874  17.203   1.190  29.653  0.0330  0.1135 -0.2633
54018DOD     C3 5875  16.941   0.782  29.656  0.0022 -0.0501 -0.4548
54019DOD     C1 5876  18.380  21.047  13.999  0.0635  0.0682  0.0315
54019DOD     C2 5877  17.968  21.015  13.812  0.2882  0.1598  0.2586
54019DOD     C3 5878  17.518  21.164  13.743 -0.1313 -0.2461  0.0169
54020DOD     C1 5879   6.698  15.615   7.063 -0.2791 -0.1138  0.1884
54020DOD     C2 5880   6.657  15.242   7.322 -0.3448  0.0454  0.1676
54020DOD     C3 5881   6.475  15.110   7.722  0.2709 -0.0382 -0.3231
54021DOD     C1 5882   9.392  24.328  17.417  0.2992 -0.1352 -0.0483
54021DOD     C2 5883   9.273  24.758  17.561 -0.0011  0.0581  0.3129
54021DOD     C3 5884   9.101  24.968  17.909 -0.0740  0.1476 -0.1350
54022DOD     C1 5885   4.155   8.848  18.703 -0.0888  0.1920  0.2867
54022DOD     C2 5886   4.296   8.658  19.123  0.3024 -0.0928  0.2136
54022DOD     C3 5887   4.182   8.535  19.521  0.3507  0.0012 -0.1940
54023DOD     C1 5888  26.004  29.394  24.795 -0.0793 -0.4417  0.0454
54023DOD     C2 5889  25.727  29.758  24.958 -0.0402  0.2613 -0.1386
54023DOD     C3 5890  25.691  30.248  24.930 -0.1222  0.0224  0.3584
54024DOD     C1 5891  24.544  11.687   0.964  0.2287 -0.2148  0.3839
54024DOD     C2 5892  24.208  11.389   0.791 -0.0907 -0.1166  0.0550
54024DOD     C3 5893  23.782  11.422   0.575 -0.1773 -0.0225  0.2399
54025DOD     C1 5894   0.892  13.444  21.846 -0.0575  0.1064 -0.1611
54025DOD     C2 5895   0.859  13.003  21.785  0.0473 -0.0828  0.3984
54025DOD     C3 5896   0.936  12.617  21.894 -0.0421  0.3206  0.2368
54026DOD     C1 5897  25.396   7.234   4.360  0.3023  0.0788 -0.0645
54026DOD     C2 5898  25.633   6.990   4.703 -0.0816  0.0203 -0.1894
54026DOD     C3 5899  25.552   7.068   5.173 -0.0064  0.1358  0.0020
54027DOD     C1 5900   4.497  23.091  29.896 -0.1458 -0.2585  0.1148
54027DOD     C2 5901   4.168  23.138  30.178  0.3523  0.0100 -0.2822
54027DOD     C3 5902   4.326  23.398   0.231  0.1582 -0.1536 -0.1402
54028DOD     C1 5903  19.271  27.998  26.447 -0.2090  0.2645  0.2563
54028DOD     C2 5904  18.881  27.681  26.447 -0.0519 -0.2922 -0.3479
54028DOD     C3 5905  18.553  27.659  26.742  0.2562  0.0195  0.0051
54029DOD     C1 5906   3.147   9.668   0.094  0.3854  0.1175 -0.2779
54029DOD     C2 5907   3.276   9.797   0.528 -0.2921  0.0776 -0.0116
54029DOD     C3 5908   3.574  10.098   0.737  0.0284  0.1712  0.0312
54030DOD     C1 5909   3.102  28.197   3.988  0.2885 -0.0605  0.1647
54030DOD     C2 5910   2.930  28.379   4.327 -0.0818 -0.1099  0.0200
54030DOD     C3 5911   3.015  28.861   4.408  0.0147  0.0176  0.1311
54031DOD     C1 5912  19.428  23.844  22.919 -0.0076  0.2810  0.1430
54031DOD     C2 5913  19.351  24.332  23.036 -0.2047 -0.0806 -0.0798
54031DOD     C3 5914  19.220  24.787  23.088 -0.0699  0.2917  0.3805
54032DOD     C1 5915  24.204   7.821  16.412 -0.1134 -0.3587  0.4894
54032DOD     C2 5916  24.695   7.857  16.602 -0.0165  0.0239  0.0995
54032DOD     C3 5917  24.977   7.828  16.992  0.1677 -0.0694  0.2655
54033DOD     C1 5918   3.880   9.784  10.640  0.0493  0.0062 -0.0800
54033DOD     C2 5919   3.745  10.008  10.281 -0.1729  0.0122 -0.0355
54033DOD     C3 5920   3.766  10.137   9.781 -0.2583 -0.1277 -0.1306
54034DOD     C1 5921  16.461  13.149   0.871  0.0494 -0.3546  0.2524
54034DOD     C2 5922  16.575  13.575   0.885 -0.1087 -0.1155  0.1814
54034DOD     C3 5923  16.861  13.699   0.552  0.1996  0.4680 -0.3344
54035DOD     C1 5924  15.703  27.605  28.442 -0.1058 -0.0885  0.0460
54035DOD     C2 5925  15.315  27.717  28.186  0.2761  0.0894 -0.0436
54035DOD     C3 5926  14.992  27.964  28.377 -0.0606  0.0960 -0.0569
54036DOD     C1 5927  11.944   4.449  16.656 -0.0398  0.1522 -0.0521
54036DOD     C2 5928  11.820   4.401  17.141 -0.0878 -0.2783  0.3183
54036DOD     C3 5929  12.088   4.499  17.552 -0.1490 -0.4145  0.2732
54037DOD     C1 5930  28.854  13.798   8.946  0.0649  0.0685  0.2452
54037DOD     C2 5931  28.550  14.201   8.900 -0.1299 -0.1521 -0.1751
54037DOD     C3 5932  28.671  14.660   8.866 -0.1260 -0.1316  0.0007
54038DOD     C1 5933   9.873  25.390   9.640 -0.1596 -0.1089  0.1276
54038DOD     C2 5934   9.620  25.516   9.282 -0.0847 -0.0790  0.1695
54038DOD     C3 5935   9.172  25.409   9.213 -0.2863  0.1091 -0.3773
54039DOD     C1 5936  29.021  18.546  23.950  0.2197 -0.0984  0.0726
54039DOD     C2 5937  29.055  19.015  23.884 -0.0197 -0.0761  0.0391
54039DOD     C3 5938  29.056  19.379  23.527  0.0663 -0.0994 -0.0434
54040DOD     C1 5939  24.930   5.617  10.337 -0.1278  0.0247 -0.0599
54040DOD     C2 5940  25.019   6.038  10.486 -0.1288  0.1240  0.1709
54040DOD     C3 5941  24.904   6.501  10.677  0.0320  0.0264 -0.2239
54041DOD     C1 5942  29.647   4.511  21.264  0.1654 -0.3112 -0.1842
54041DOD     C2 5943  29.931   4.252  21.567 -0.2504  0.0380  0.2133
54041DOD     C3 5944   0.022   3.971  21.697 -0.1456  0.0025  0.1055
54042DOD     C1 5945  26.257   2.586  27.726 -0.2131  0.1873 -0.3130
54042DOD     C2 5946  26.341   2.582  27.250 -0.2089 -0.0885 -0.2507
54042DOD     C3 5947  26.683   2.443  26.928  0.2713  0.3422  0.3177
54043DOD     C1 5948   0.364  29.476  22.080  0.3153  0.3514  0.1040
54043DOD     C2 5949   0.187  29.902  22.013  0.0580  0.1135 -0.1108
54043DOD     C3 5950  30.256  30.327  21.870  0.0222  0.1361 -0.2562
54044DOD     C1 5951  21.541  23.188   7.097  0.0435 -0.0442 -0.0059
54044DOD     C2 5952  21.275  23.205   7.465 -0.0540 -0.2360 -0.1089
54044DOD     C3 5953  21.020  23.499   7.693 -0.1657 -0.0318  0.3985
54045DOD     C1 5954  18.198  22.048   8.988  0.3891 -0.0509  0.2098
54045DOD     C2 5955  17.755  22.252   9.037 -0.2050 -0.1322  0.2003
54045DOD     C3 5956  17.631  22.698   9.170 -0.0909  0.2961  0.2674
54046DOD     C1 5957  25.824  21.498  18.012 -0.3129  0.2664 -0.1448
54046DOD     C2 5958  25.743  21.300  17.582  0.1281 -0.0062 -0.0103
54046DOD     C3 5959  26.068  21.189  17.271 -0.0842  0.1499 -0.1085
54047DOD     C1 5960  26.506   6.256  21.483  0.0112 -0.1649 -0.1278
54047DOD     C2 5961  26.959   6.310  21.317  0.0060  0.0921  0.2126
54047DOD     C3 5962  27.216   6.618  21.049 -0.2000  0.0776 -0.0925
54048DOD     C1 5963   8.919  20.036  30.214  0.0861 -0.0413 -0.0526
54048DOD     C2 5964   9.230  19.997  29.897  0.1846 -0.1859 -0.1387
54048DOD     C3 5965   9.211  20.015  29.418  0.0953  0.0368 -0.3577
54049DOD     C1 5966   8.937  17.071  15.396  0.1568 -0.0980  0.0128
54049DOD     C2 5967   8.766  16.727  15.224 -0.1318 -0.0888 -0.1065
54049DOD     C3 5968   8.461  16.432  14.999  0.0925  0.1324  0.0805
54050DOD     C1 5969  11.245   8.012  22.827  0.1438 -0.0321  0.1674
54050DOD     C2 5970  10.993   7.659  22.526 -0.2593  0.2156 -0.2872
54050DOD     C3 5971  10.918   7.406  22.160  0.0383  0.0629 -0.0509
54051DOD     C1 5972  14.515  24.865  29.301  0.2925 -0.0656  0.2895
54051DOD     C2 5973  14.133  24.914  29.040  0.2271 -0.2902  0.0470
54051DOD     C3 5974  13.764  25.179  29.179  0.2935  0.0405 -0.1587
54052DOD     C1 5975  21.035  11.613   0.352  0.0919  0.0429  0.0917
54052DOD     C2 5976  21.169  11.971   0.667  0.0140  0.2375 -0.0322
54052DOD     C3 5977  21.328  12.360   0.798  0.1361  0.1443  0.2671
54053DOD     C1 5978  27.111   5.327   8.135 -0.1759 -0.0107 -0.0517
54053DOD     C2 5979  27.490   5.519   7.938  0.3115 -0.0402 -0.1251
54053DOD     C3 5980  27.865   5.348   7.768 -0.0406 -0.2745 -0.1771
54054DOD     C1 5981   8.193   4.743   4.418  0.3021 -0.2958 -0.0140
54054DOD     C2 5982   8.315   4.359   4.657  0.2478  0.0568  0.1748
54054DOD     C3 5983   8.500   4.003   4.887  0.1032  0.0042  0.0516
54055DOD     C1 5984   2.626  15.165  17.311  0.1209  0.0084 -0.2672
54055DOD     C2 5985   2.630  15.508  17.660  0.0967  0.0513  0.0474
54055DOD     C3 5986   2.833  15.692  18.104  0.2277 -0.0594  0.0648
54056DOD     C1 5987  21.536   7.210  17.170  0.3515 -0.1799 -0.1612
54056DOD     C2 5988  21.690   7.378  16.716  0.1905  0.2818  0.0672
54056DOD     C3 5989  21.935   7.482  16.389 -0.3533  0.2870 -0.2591
54057DOD     C1 5990  24.386  13.516   4.628  0.0672  0.0452  0.1145
54057DOD     C2 5991  24.605  13.445   5.052  0.0645 -0.5102  0.0174
54057DOD     C3 5992  24.947  13.276   5.286 -0.2219 -0.0455  0.0814
54058DOD     C1 5993  16.523  30.102  13.631 -0.1620  0.1503 -0.3544
54058DOD     C2 5994  16.707  30.157  14.060 -0.2851  0.1331  0.1185
54058DOD     C3 5995  16.630  30.183  14.521  0.1677  0.0228 -0.3082
54059DOD     C1 5996  21.260  22.463  28.742  0.1849 -0.0943 -0.0963
54059DOD     C2 5997  21.347  22.022  28.835  0.1519 -0.0688 -0.4026
54059DOD     C3 5998  21.583  21.890  29.262 -0.0679 -0.0411  0.2397
54060DOD     C1 5999  23.457   4.325   4.485  0.0341 -0.1431  0.2258
54060DOD     C2 6000  23.326   4.764   4.584 -0.3786  0.2734  0.0891
54060DOD     C3 6001  23.387   5.176   4.719  0.0836  0.1139  0.0497
54061DOD     C1 6002   9.398  19.623   1.441  0.0146 -0.1892 -0.3198
54061DOD     C2 6003   9.240  19.263   1.654 -0.5695 -0.0071 -0.0813
54061DOD     C3 6004   8.827  19.143   1.819  0.4244  0.0617  0.2163
54062DOD     C1 6005   6.937  20.957  12.115 -0.1952 -0.2181 -0.0636
54062DOD     C2 6006   7.223  20.724  11.898 -0.1931 -0.2168  0.2214
54062DOD     C3 6007   7.329  20.261  11.785  0.0857 -0.1646  0.3098
54063DOD     C1 6008  17.844  23.812   4.682  0.0939 -0.0881  0.1635
54063DOD     C2 6009  17.851  23.635   4.216  0.0352  0.1966 -0.0114
54063DOD     C3 6010  17.879  23.817   3.744  0.2905 -0.1164  0.0359
54064DOD     C1 6011   4.073   9.061  18.058 -0.0980 -0.2532  0.0480
54064DOD     C2 6012   4.234   8.815  17.695  0.0252 -0.0575  0.0651
54064DOD     C3 6013   4.375   8.368  17.605 -0.0285  0.0879 -0.1179
54065DOD     C1 6014   4.591   5.773  15.547 -0.3911 -0.3420 -0.2452
54065DOD     C2 6015   4.276   5.823  15.880  0.0991 -0.0296 -0.1622
54065DOD     C3 6016   4.019   6.007  16.258  0.1695 -0.0270  0.0424
54066DOD     C1 6017  13.815  11.868  28.989  0.3688  0.1556 -0.0456
54066DOD     C2 6018  14.133  11.706  28.672  0.4047 -0.2941 -0.2717
54066DOD     C3 6019  14.349  11.710  28.202  0.0697 -0.1997  0.0298
54067DOD     C1 6020   6.526  17.776   8.024 -0.0456  0.3559 -0.0999
54067DOD     C2 6021   6.153  18.134   7.924  0.5105 -0.1455 -0.0159
54067DOD     C3 6022   5.999  18.331   7.543  0.1658 -0.0734 -0.1168
54068DOD     C1 6023  22.495  22.477   5.035 -0.0807  0.1532 -0.1942
54068DOD     C2 6024  22.280  22.853   4.860  0.0156 -0.0514 -0.0556
54068DOD     C3 6025  22.171  23.254   4.591 -0.1257 -0.1172  0.1870
54069DOD     C1 6026  25.974   5.716  16.725 -0.2648 -0.3480  0.0317
54069DOD     C2 6027  25.771   5.305  16.910 -0.2035  0.0153  0.0137
54069DOD     C3 6028  25.931   4.935  17.260 -0.2846  0.0079  0.2885
54070DOD     C1 6029  23.539  21.548  29.261  0.1777 -0.0576  0.0945
54070DOD     C2 6030  23.031  21.548  29.396 -0.0414 -0.0590  0.1631
54070DOD     C3 6031  22.723  21.387  29.776 -0.0299  0.0852 -0.0582
54071DOD     C1 6032  16.240  13.449   5.648 -0.0364  0.2054 -0.0313
54071DOD     C2 6033  16.118  13.196   5.997 -0.2416  0.0476 -0.2443
54071DOD     C3 6034  16.345  12.881   6.190  0.2498 -0.0389  0.1339
54072DOD     C1 6035  27.746   9.988  29.291  0.2988  0.0944  0.0927
54072DOD     C2 6036  27.355  10.021  28.998 -0.2528 -0.0803  0.2301
54072DOD     C3 6037  27.177  10.366  28.745 -0.0893 -0.0233  0.3152
54073DOD     C1 6038   0.306  15.580  28.179  0.1879  0.0072 -0.1264
54073DOD     C2 6039   0.081  15.870  27.924  0.0721 -0.0197  0.1991
54073DOD     C3 6040   0.156  16.308  27.807 -0.0505  0.1476 -0.0041
54074DOD     C1 6041   1.235  11.764  25.891 -0.0489  0.3361 -0.2079
54074DOD     C2 6042   0.843  11.531  26.046  0.2207 -0.0043  0.1374
54074DOD     C3 6043   0.694  11.136  26.240  0.0031  0.1148  0.3010
54075DOD     C1 6044   0.326  20.797  26.864 -0.1772 -0.1569 -0.0040
54075DOD     C2 6045   0.324  21.132  27.222 -0.1500  0.3751  0.1542
54075DOD     C3 6046   0.098  21.332  27.618 -0.0134 -0.2031  0.0688
54076DOD     C1 6047  22.484  23.992   4.192  0.2976 -0.5878  0.1394
54076DOD     C2 6048  22.434  23.565   4.114  0.1775  0.2375  0.3738
54076DOD     C3 6049  22.490  23.243   3.868  0.0707  0.0273  0.5789
54077DOD     C1 6050   3.301   0.709  24.586 -0.2238 -0.0276  0.0965
54077DOD     C2 6051   3.290   1.183  24.466 -0.2554  0.0468 -0.0309
54077DOD     C3 6052   3.142   1.563  24.265  0.0621  0.1819  0.0502
54078DOD     C1 6053  29.925  22.863  29.437  0.0607 -0.1719  0.2900
54078DOD     C2 6054  30.020  22.860  28.998 -0.0638  0.1946  0.1721
54078DOD     C3 6055  30.046  22.620  28.624  0.1872  0.1851  0.2058
54079DOD     C1 6056   3.583   6.132  27.402 -0.0918  0.2161  0.0467
54079DOD     C2 6057   3.466   6.275  27.000 -0.1500  0.0038 -0.1662
54079DOD     C3 6058   3.675   6.426  26.601 -0.2540 -0.0675  0.0182
54080DOD     C1 6059  18.001  25.264  27.542 -0.0637 -0.2787  0.0766
54080DOD     C2 6060  17.710  25.480  27.860 -0.2266  0.1193  0.2111
54080DOD     C3 6061  17.800  25.629  28.310  0.0653  0.1185 -0.6357
54081DOD     C1 6062  15.714  12.548  14.172  0.2387 -0.2461 -0.3452
54081DOD     C2 6063  15.456  12.529  14.557  0.0571  0.0759  0.0143
54081DOD     C3 6064  15.456  12.427  15.006 -0.0284 -0.0356 -0.3013
54082DOD     C1 6065   7.003  21.588  29.534  0.1551 -0.3615 -0.3676
54082DOD     C2 6066   7.062  22.035  29.568 -0.0949  0.2261  0.0233
54082DOD     C3 6067   7.098  22.529  29.702 -0.3470 -0.1021  0.1500
54083DOD     C1 6068  11.737   2.291   7.546 -0.0550  0.1855 -0.0225
54083DOD     C2 6069  12.206   2.281   7.552  0.0164 -0.1764 -0.1309
54083DOD     C3 6070  12.452   2.084   7.199 -0.0018 -0.2658  0.0716
54084DOD     C1 6071  19.676  24.224   1.919  0.0377  0.1248 -0.2243
54084DOD     C2 6072  19.734  24.119   2.384  0.1073 -0.1101 -0.3026
54084DOD     C3 6073  19.595  23.837   2.736  0.0026  0.0009  0.3927
54085DOD     C1 6074  21.240  22.383   5.821 -0.0639 -0.2432 -0.0364
54085DOD     C2 6075  21.251  22.065   5.452  0.2777 -0.1333 -0.1007
54085DOD     C3 6076  21.617  21.857   5.215 -0.0416 -0.2468  0.0066
54086DOD     C1 6077   4.925  12.233  24.339 -0.0515 -0.1455  0.2411
54086DOD     C2 6078   5.200  12.302  24.696 -0.0346 -0.0139 -0.0548
54086DOD     C3 6079   5.422  12.138  25.096 -0.3536  0.1123  0.3203
54087DOD     C1 6080  27.677  24.933   1.220 -0.0849 -0.0205 -0.0479
54087DOD     C2 6081  28.085  25.090   1.247 -0.0866 -0.1716 -0.0929
54087DOD     C3 6082  28.544  25.301   1.258 -0.0828 -0.1083  0.0673
54088DOD     C1 6083  12.582  18.846  11.764 -0.2321 -0.1482 -0.1069
54088DOD     C2 6084  12.369  18.894  11.367  0.0320  0.2010  0.1141
54088DOD     C3 6085  12.560  19.174  10.940 -0.0361  0.2266 -0.0077
54089DOD     C1 6086  10.267  21.692   6.996 -0.1808 -0.0358  0.1827
54089DOD     C2 6087  10.312  22.067   6.693 -0.0316 -0.3724 -0.1629
54089DOD     C3 6088  10.058  22.329   6.347  0.0026 -0.1153  0.1003
54090DOD     C1 6089  26.694  19.153  21.251 -0.3248 -0.0746 -0.1009
54090DOD     C2 6090  26.490  19.211  20.857 -0.0450  0.1543 -0.2046
54090DOD     C3 6091  26.411  19.586  20.571  0.1834  0.0734 -0.0977
54091DOD     C1 6092  14.618  10.059  20.324 -0.1899 -0.0328  0.0964
54091DOD     C2 6093  14.970  10.024  20.000  0.1583  0.1475  0.5347
54091DOD     C3 6094  15.324   9.782  20.107 -0.0731 -0.0821  0.1226
54092DOD     C1 6095   8.565   0.843   0.840 -0.1565  0.0517  0.0627
54092DOD     C2 6096   8.833   0.848   0.468 -0.0198 -0.1417  0.3001
54092DOD     C3 6097   9.002   1.184   0.180  0.0575 -0.2020 -0.2560
54093DOD     C1 6098   6.312  16.274  20.424 -0.3287 -0.2094  0.2709
54093DOD     C2 6099   6.506  16.283  19.993 -0.3249  0.1285  0.3540
54093DOD     C3 6100   6.923  16.118  19.875 -0.1168 -0.1888  0.3251
54094DOD     C1 6101  17.850  25.756  25.638 -0.2160 -0.2641  0.1028
54094DOD     C2 6102  17.727  25.535  26.068 -0.1544 -0.2177  0.0092
54094DOD     C3 6103  17.765  25.346  26.448  0.0896  0.1196 -0.2078
54095DOD     C1 6104   4.807  26.545   3.667  0.0902  0.0558  0.1807
54095DOD     C2 6105   4.418  26.820   3.675 -0.0052  0.1224 -0.3525
54095DOD     C3 6106   4.033  26.731   3.955 -0.0522  0.2305 -0.0010
54096DOD     C1 6107  10.768  19.182   3.050  0.2854 -0.0516  0.0947
54096DOD     C2 6108  10.332  19.308   3.015  0.2688 -0.2981  0.0987
54096DOD     C3 6109   9.847  19.383   2.967 -0.2405  0.0464 -0.1805
54097DOD     C1 6110  13.329  16.145  27.277 -0.1225 -0.0252 -0.0021
54097DOD     C2 6111  13.386  15.648  27.266  0.1755 -0.0395 -0.2766
54097DOD     C3 6112  13.662  15.387  27.574  0.0619 -0.2645 -0.0708
54098DOD     C1 6113  27.223  20.888  16.863  0.0500  0.1474 -0.0319
54098DOD     C2 6114  27.550  20.553  17.003  0.0158  0.1553  0.3017
54098DOD     C3 6115  27.646  20.182  16.772  0.1214  0.4763  0.1115
54099DOD     C1 6116   9.496  18.724  17.079 -0.6725 -0.1392  0.1123
54099DOD     C2 6117   9.455  18.497  17.456 -0.0767  0.0106 -0.2145
54099DOD     C3 6118   9.701  18.642  17.794 -0.1645 -0.0928 -0.1119
54100DOD     C1 6119   3.596   3.075  26.130 -0.1074 -0.0300  0.1281
54100DOD     C2 6120   3.439   3.374  25.802  0.0677  0.1732  0.2775
54100DOD     C3 6121   3.454   3.581  25.332  0.2712  0.2727  0.0509
54101DOD     C1 6122   1.137   0.027  19.994  0.1737  0.0278 -0.0334
54101DOD     C2 6123   1.233  30.053  20.355 -0.2742  0.0946 -0.1562
54101DOD     C3 6124   0.945  29.945  20.629  0.1587  0.2540  0.0055
54102DOD     C1 6125  25.580  22.449  10.357 -0.0900 -0.1141 -0.2339
54102DOD     C2 6126  25.436  22.200  10.022  0.1099  0.0650 -0.2527
54102DOD     C3 6127  25.105  22.127   9.693 -0.1953 -0.0292  0.3330
54103DOD     C1 6128  17.169   0.587  11.123  0.2907  0.1360 -0.1705
54103DOD     C2 6129  17.172   0.563  11.521 -0.0750 -0.2411  0.1232
54103DOD     C3 6130  17.142   0.335  11.936 -0.2442 -0.2945  0.0957
54104DOD     C1 6131  26.899  23.300   1.771 -0.0984  0.3409  0.3758
54104DOD     C2 6132  27.065  23.559   1.368  0.0485 -0.0214  0.0744
54104DOD     C3 6133  27.484  23.593   1.120 -0.2737 -0.0882 -0.0208
54105DOD     C1 6134  23.801  27.008  10.342 -0.0318 -0.3189 -0.0208
54105DOD     C2 6135  23.633  26.685  10.626  0.0534  0.3655 -0.0713
54105DOD     C3 6136  23.450  26.564  11.014 -0.2060 -0.1637  0.2777
54106DOD     C1 6137  23.717   8.256  27.482  0.3504 -0.1350 -0.0293
54106DOD     C2 6138  23.478   7.949  27.247  0.0860 -0.1719 -0.0406
54106DOD     C3 6139  23.120   7.695  27.187  0.2774 -0.1410  0.1806
54107DOD     C1 6140  16.381   9.677  13.630  0.1227 -0.2259 -0.1010
54107DOD     C2 6141  16.520   9.401  13.294 -0.1523  0.1739  0.0958
54107DOD     C3 6142  16.595   8.973  13.263 -0.1295 -0.1095  0.2050
54108DOD     C1 6143   3.126   7.122  26.613  0.0577  0.1564  0.2391
54108DOD     C2 6144   2.899   7.186  26.220  0.0696 -0.2447 -0.0572
54108DOD     C3 6145   2.807   7.097  25.794 -0.1439  0.0285  0.1660
54109DOD     C1 6146   2.207  15.715   8.737 -0.0674  0.0616 -0.1884
54109DOD     C2 6147   2.248  15.717   9.233 -0.0616  0.0578  0.0574
54109DOD     C3 6148   2.187  15.398   9.507 -0.1287 -0.0067  0.0285
54110DOD     C1 6149  19.212   8.172  14.902 -0.2210  0.0843 -0.1431
54110DOD     C2 6150  18.885   8.102  15.224 -0.2252  0.4588  0.1203
54110DOD     C3 6151  18.476   8.084  15.356 -0.3062  0.1892 -0.0722
54111DOD     C1 6152  17.876  14.180  23.966  0.4222 -0.2685 -0.3256
54111DOD     C2 6153  17.436  14.383  24.039  0.0798  0.0008  0.0119
54111DOD     C3 6154  16.995  14.596  23.930  0.0889  0.3856  0.1376
54112DOD     C1 6155  13.475  21.240  22.447  0.0094  0.2107  0.0313
54112DOD     C2 6156  13.438  20.753  22.332 -0.3108 -0.1012 -0.0932
54112DOD     C3 6157  13.429  20.381  22.611  0.1155  0.4708 -0.0700
54113DOD     C1 6158   6.499  11.667  23.890  0.0200 -0.6205 -0.2440
54113DOD     C2 6159   6.521  11.438  24.307 -0.2171 -0.1331  0.0335
54113DOD     C3 6160   6.459  11.318  24.763  0.0162  0.2217  0.1032
54114DOD     C1 6161   5.681   3.871  19.529 -0.0230 -0.0494  0.0170
54114DOD     C2 6162   5.641   4.112  19.907  0.0442 -0.0147 -0.0124
54114DOD     C3 6163   5.869   4.202  20.260 -0.2550  0.0603  0.0862
54115DOD     C1 6164  19.383   3.335   7.958 -0.2347  0.3243 -0.4395
54115DOD     C2 6165  19.305   3.627   8.335 -0.0567 -0.1446 -0.0640
54115DOD     C3 6166  19.045   4.029   8.311  0.0975  0.0180 -0.2083
54116DOD     C1 6167  20.426  13.237  28.047  0.0356 -0.1504 -0.3729
54116DOD     C2 6168  20.076  13.402  27.820 -0.0742  0.1094 -0.1726
54116DOD     C3 6169  19.874  13.416  27.352  0.0783  0.2242  0.0324
54117DOD     C1 6170  19.003  10.241   0.908 -0.3644  0.0058 -0.0700
54117DOD     C2 6171  18.690  10.226   1.172  0.0053 -0.1357 -0.0449
54117DOD     C3 6172  18.532  10.177   1.605  0.2826  0.0196  0.0792
54118DOD     C1 6173   3.106  24.723  19.914 -0.1522  0.3010  0.0625
54118DOD     C2 6174   3.113  24.598  20.355 -0.3786 -0.1695  0.4625
54118DOD     C3 6175   3.177  24.531  20.824  0.1611 -0.0401  0.2106
54119DOD     C1 6176   7.364  10.049   1.521 -0.2190 -0.0438 -0.0506
54119DOD     C2 6177   7.066   9.742   1.718 -0.4926  0.3522  0.2778
54119DOD     C3 6178   6.805   9.383   1.772  0.4598 -0.1222 -0.2136
54120DOD     C1 6179   3.318  15.328  13.169 -0.1731  0.2541  0.1032
54120DOD     C2 6180   3.107  15.061  12.835  0.0952  0.4032 -0.1481
54120DOD     C3 6181   3.114  14.628  12.639 -0.0139 -0.4242  0.1814
54121DOD     C1 6182  25.341  13.394  22.801 -0.2917  0.0545  0.0351
54121DOD     C2 6183  25.740  13.644  22.701  0.1028 -0.0155 -0.1086
54121DOD     C3 6184  26.072  13.863  22.473 -0.1476 -0.0040  0.0425
54122DOD     C1 6185  14.740   5.879  25.791 -0.0779 -0.1041 -0.1219
54122DOD     C2 6186  14.707   6.156  26.212  0.0987  0.2432 -0.1471
54122DOD     C3 6187  14.384   6.235  26.588  0.0984 -0.1868 -0.0163
54123DOD     C1 6188  28.312  20.039  29.740 -0.0394  0.1853  0.0525
54123DOD     C2 6189  27.822  19.959  29.660 -0.0874 -0.0000  0.2553
54123DOD     C3 6190  27.331  20.005  29.722 -0.3920 -0.0259  0.1586
54124DOD     C1 6191  28.642  24.998   1.676  0.0545  0.0297 -0.0299
54124DOD     C2 6192  28.988  24.660   1.836 -0.2680 -0.0915 -0.0462
54124DOD     C3 6193  29.023  24.459   2.278  0.0028 -0.0203 -0.1984
54125DOD     C1 6194  24.344  26.746   4.031  0.1370  0.0819  0.1773
54125DOD     C2 6195  24.587  27.027   4.354 -0.2684  0.2988  0.0525
54125DOD     C3 6196  25.010  27.132   4.610 -0.0128  0.2024  0.0634
54126DOD     C1 6197  14.517  22.957  20.714  0.3261  0.1072  0.0291
54126DOD     C2 6198  14.926  22.988  20.898 -0.1285 -0.1320  0.1638
54126DOD     C3 6199  15.220  23.085  21.245 -0.0428 -0.0571 -0.0012
54127DOD     C1 6200  27.517  26.580   4.864  0.1945 -0.0397 -0.2172
54127DOD     C2 6201  27.430  27.066   4.951  0.1832  0.0820  0.0578
54127DOD     C3 6202  27.322  27.391   4.689 -0.0927  0.0999 -0.2243
54128DOD     C1 6203  20.378   4.822  16.581 -0.0678  0.1928 -0.0983
54128DOD     C2 6204  20.616   4.869  17.027 -0.0873  0.0285  0.1517
54128DOD     C3 6205  20.629   5.209  17.304 -0.0087 -0.1477  0.1732
54129DOD     C1 6206  28.965   3.516   6.625 -0.2541  0.0231  0.3045
54129DOD     C2 6207  29.097   3.059   6.699  0.1312  0.0991 -0.1702
54129DOD     C3 6208  29.108   2.617   6.670 -0.2113 -0.3770 -0.0699
54130DOD     C1 6209  23.001   0.228  14.739 -0.0701 -0.0599  0.0751
54130DOD     C2 6210  22.881   0.702  14.912 -0.1009 -0.2655 -0.1897
54130DOD     C3 6211  23.095   1.122  14.778  0.1523 -0.0752  0.1172
54131DOD     C1 6212  21.750   6.599   8.280 -0.2044  0.2989 -0.0026
54131DOD     C2 6213  21.751   6.631   8.752  0.0068  0.1566  0.1004
54131DOD     C3 6214  21.687   6.728   9.227  0.0894  0.0959 -0.1456
54132DOD     C1 6215  14.073   6.140  24.003  0.5260 -0.0506  0.1949
54132DOD     C2 6216  13.986   6.199  24.467 -0.0367 -0.1120 -0.1067
54132DOD     C3 6217  13.776   5.825  24.692  0.1280 -0.3018 -0.1296
54133DOD     C1 6218   6.813  29.967  25.208 -0.0630 -0.4252 -0.1527
54133DOD     C2 6219   6.491   0.004  25.326  0.0476  0.0339 -0.2319
54133DOD     C3 6220   6.345   0.439  25.537 -0.1383  0.1599  0.4573
54134DOD     C1 6221  23.041  17.695  30.034  0.1929  0.0354 -0.3866
54134DOD     C2 6222  23.302  17.343  29.998 -0.0175 -0.0999 -0.0872
54134DOD     C3 6223  23.776  17.212  29.988 -0.1239 -0.0694 -0.2476
54135DOD     C1 6224   1.272  30.308  21.398  0.0698  0.2735 -0.2185
54135DOD     C2 6225   0.946   0.227  21.652 -0.4364  0.1128 -0.0031
54135DOD     C3 6226   0.892   0.536  21.961 -0.1655  0.1118  0.1309
54136DOD     C1 6227  16.642   9.607  29.510  0.2094  0.0797 -0.2547
54136DOD     C2 6228  16.606   9.632  29.031 -0.0049 -0.0705  0.1288
54136DOD     C3 6229  16.482   9.571  28.579 -0.0579  0.0111 -0.2143
54137DOD     C1 6230   8.554   8.649   3.438 -0.1425 -0.0481  0.3702
54137DOD     C2 6231   8.854   8.372   3.135 -0.0961  0.1446  0.0991
54137DOD     C3 6232   9.296   8.054   3.148  0.0414  0.0267  0.2450
54138DOD     C1 6233  25.636   3.695  25.505  0.0448  0.1529  0.4786
54138DOD     C2 6234  25.819   4.156  25.362  0.2738 -0.0223  0.1002
54138DOD     C3 6235  26.075   4.601  25.310 -0.0286  0.1862  0.1988
54139DOD     C1 6236  -0.044  10.858  11.496  0.1090  0.1363 -0.3304
54139DOD     C2 6237  30.050  10.884  11.086  0.1911 -0.2853  0.0844
54139DOD     C3 6238  29.998  11.028  10.647  0.0081 -0.0062  0.2440
54140DOD     C1 6239  23.708  17.434  10.962 -0.3178 -0.1494  0.2196
54140DOD     C2 6240  23.257  17.582  11.061 -0.1389  0.1215 -0.3245
54140DOD     C3 6241  22.786  17.490  10.952 -0.3889  0.1826 -0.1215
54141DOD     C1 6242   5.530  16.361   4.779 -0.2819  0.0693 -0.0338
54141DOD     C2 6243   5.324  16.779   4.956  0.1333 -0.1791 -0.1215
54141DOD     C3 6244   5.123  17.161   4.811 -0.0550  0.0442  0.0179
54142DOD     C1 6245  25.307  20.877  25.391 -0.0096  0.1415  0.0512
54142DOD     C2 6246  25.155  20.477  25.180  0.1834 -0.1386  0.3065
54142DOD     C3 6247  25.072  20.112  24.878  0.3221 -0.2896 -0.1896
54143DOD     C1 6248   9.285   4.769   6.243 -0.0105 -0.0286  0.1214
54143DOD     C2 6249   9.032   4.871   5.848 -0.0210  0.2198 -0.3357
54143DOD     C3 6250   8.576   4.962   5.881 -0.2269 -0.1125 -0.2700
54144DOD     C1 6251   2.911  11.684  30.197  0.2666 -0.0718  0.3015
54144DOD     C2 6252   2.896  12.069  29.924  0.1281  0.1920 -0.1268
54144DOD     C3 6253   2.650  12.218  29.568 -0.0869 -0.0082  0.2020
54145DOD     C1 6254  22.103  29.883   4.339  0.1710 -0.0171  0.1910
54145DOD     C2 6255  21.662  29.660   4.435 -0.0780 -0.4985 -0.2919
54145DOD     C3 6256  21.313  29.885   4.170 -0.1156 -0.0096  0.3372
54146DOD     C1 6257  19.421  19.964   3.447 -0.1278 -0.0837  0.0577
54146DOD     C2 6258  19.771  19.701   3.327 -0.0547 -0.0875 -0.0595
54146DOD     C3 6259  20.153  19.412   3.179  0.1797  0.2542  0.2359
54147DOD     C1 6260   1.257  22.839  15.753  0.1922 -0.1215 -0.1074
54147DOD     C2 6261   1.431  22.430  15.688 -0.1583 -0.2584 -0.0251
54147DOD     C3 6262   1.789  22.205  15.741 -0.1573 -0.0649 -0.0845
54148DOD     C1 6263   0.399  25.440  23.304  0.1823  0.0092  0.1115
54148DOD     C2 6264   0.224  25.089  23.019  0.1739  0.2415 -0.0431
54148DOD     C3 6265   0.379  24.649  23.074  0.0516 -0.2139  0.0453
54149DOD     C1 6266  21.886   1.567   3.624  0.1060 -0.0726  0.0698
54149DOD     C2 6267  22.027   1.820   3.321 -0.0935 -0.0382  0.0682
54149DOD     C3 6268  22.295   2.158   3.176  0.1392  0.0458  0.1057
54150DOD     C1 6269  29.425   8.973  27.927 -0.0772 -0.0903  0.0934
54150DOD     C2 6270  29.749   8.734  28.194  0.1452 -0.2318  0.0160
54150DOD     C3 6271  30.191   8.599  28.052  0.3563 -0.1297  0.0337
54151DOD     C1 6272  25.317   2.477  24.864  0.0123  0.0127 -0.1974
54151DOD     C2 6273  25.752   2.638  24.953  0.0982 -0.2292 -0.4435
54151DOD     C3 6274  26.105   2.743  25.246 -0.0153 -0.0218  0.0004
54152DOD     C1 6275  27.467  18.765  17.708  0.0068 -0.0036 -0.1878
54152DOD     C2 6276  27.582  19.080  17.365  0.3811  0.3875 -0.0127
54152DOD     C3 6277  27.620  19.234  16.934  0.1687  0.0232 -0.0877
54153DOD     C1 6278  15.968   6.537  24.594 -0.0320  0.0083  0.1809
54153DOD     C2 6279  15.760   6.541  25.013 -0.0814  0.5940 -0.1956
54153DOD     C3 6280  15.862   6.699  25.469 -0.3207  0.2332 -0.2309
54154DOD     C1 6281   0.740  21.914   1.298  0.3235 -0.0312  0.2330
54154DOD     C2 6282   0.642  22.356   1.352 -0.1130  0.1952  0.2494
54154DOD     C3 6283   0.556  22.775   1.135  0.1427  0.0386  0.1347
54155DOD     C1 6284  16.232   6.443  25.241 -0.0610 -0.1621 -0.1431
54155DOD     C2 6285  16.161   6.838  25.064 -0.1134 -0.2950  0.1730
54155DOD     C3 6286  16.052   7.294  24.954  0.4499  0.0626  0.1486
54156DOD     C1 6287  24.037  27.597  13.474 -0.2747  0.3556  0.0096
54156DOD     C2 6288  23.703  27.599  13.827  0.0822  0.1431 -0.2733
54156DOD     C3 6289  23.338  27.571  14.103  0.1445 -0.0232 -0.0884
54157DOD     C1 6290   3.295  23.080  23.302 -0.0190  0.0586  0.0396
54157DOD     C2 6291   3.274  23.399  23.049  0.4644  0.0911  0.2031
54157DOD     C3 6292   3.570  23.773  22.991  0.1071  0.1806  0.2288
54158DOD     C1 6293  23.708  10.107  24.757 -0.0967 -0.0373  0.0151
54158DOD     C2 6294  23.518   9.712  24.722  0.2605 -0.1730  0.1693
54158DOD     C3 6295  23.195   9.372  24.806 -0.1402  0.1705  0.0345
54159DOD     C1 6296  20.098  15.374  14.990 -0.4824 -0.1357 -0.1878
54159DOD     C2 6297  19.951  14.929  15.102 -0.1876 -0.1882  0.1340
54159DOD     C3 6298  19.844  14.515  15.215  0.0153 -0.0234  0.0320
54160DOD     C1 6299  28.434  15.320  17.323  0.1676  0.0068  0.1109
54160DOD     C2 6300  27.958  15.426  17.330  0.2224 -0.2233  0.2793
54160DOD     C3 6301  27.507  15.646  17.324 -0.1964 -0.2071  0.1723
54161DOD     C1 6302   1.993   9.375   6.210 -0.1993 -0.1026 -0.1975
54161DOD     C2 6303   1.792   9.458   5.847  0.2029  0.2529  0.3922
54161DOD     C3 6304   1.774   9.145   5.491 -0.1412 -0.0418  0.0361
54162DOD     C1 6305  19.311  22.014  29.555  0.1566 -0.1225  0.0659
54162DOD     C2 6306  19.052  22.228  29.857  0.2820 -0.2022 -0.1759
54162DOD     C3 6307  18.589  22.218  30.009 -0.0754  0.0655 -0.0190
54163DOD     C1 6308  11.893  18.722  21.964  0.3523  0.2455 -0.0826
54163DOD     C2 6309  11.805  19.162  21.897 -0.4335 -0.3823 -0.1636
54163DOD     C3 6310  11.574  19.569  21.907  0.0794 -0.1573  0.0042
54164DOD     C1 6311   7.359  26.885   2.554  0.1046 -0.0679  0.0923
54164DOD     C2 6312   7.677  26.742   2.203  0.0494  0.0447  0.1441
54164DOD     C3 6313   7.809  26.404   1.910 -0.1980 -0.1710 -0.1066
54165DOD     C1 6314  12.448   0.308  21.438  0.3298 -0.0275  0.1374
54165DOD     C2 6315  12.170   0.096  21.751 -0.0857 -0.0429 -0.1272
54165DOD     C3 6316  12.151   0.254  22.198  0.1951  0.1735 -0.0818
54166DOD     C1 6317  29.878  17.136   4.301 -0.0652 -0.0684 -0.2314
54166DOD     C2 6318  29.933  16.755   4.036  0.1016  0.0591  0.2718
54166DOD     C3 6319  30.156  16.391   3.873  0.0369  0.1691 -0.1010
54167DOD     C1 6320  29.948   9.550   0.434  0.0640  0.0074  0.3544
54167DOD     C2 6321  29.556   9.724   0.626 -0.2541 -0.1946  0.1879
54167DOD     C3 6322  29.106   9.690   0.833  0.0629  0.1239 -0.1395
54168DOD     C1 6323   1.905  20.254   1.129 -0.1072  0.0026  0.0528
54168DOD     C2 6324   2.169  20.316   0.745 -0.0179 -0.0778  0.1458
54168DOD     C3 6325   2.337  20.096   0.410 -0.0037 -0.0838 -0.0475
54169DOD     C1 6326  10.651  18.843  28.200  0.0969 -0.2656  0.0271
54169DOD     C2 6327  10.421  18.746  27.758 -0.2573  0.0768 -0.0646
54169DOD     C3 6328  10.374  18.524  27.364  0.1191  0.1861  0.0857
54170DOD     C1 6329  16.874  27.921  25.020  0.2708 -0.2026  0.2829
54170DOD     C2 6330  16.436  27.867  24.793  0.0799 -0.1870 -0.3829
54170DOD     C3 6331  16.048  27.637  24.747 -0.1332 -0.1265 -0.0043
54171DOD     C1 6332  13.418  20.484  24.721  0.2875 -0.0028 -0.1934
54171DOD     C2 6333  13.518  20.952  24.686  0.1484 -0.2537 -0.1281
54171DOD     C3 6334  13.822  21.216  24.359 -0.1381  0.0086 -0.2292
54172DOD     C1 6335   2.596  28.101  27.893 -0.2358  0.0449 -0.3245
54172DOD     C2 6336   2.944  27.835  27.800 -0.2627  0.2560 -0.1785
54172DOD     C3 6337   3.317  27.736  27.434  0.1042 -0.0545  0.0103
54173DOD     C1 6338  14.111  10.339  17.679 -0.0850  0.2740 -0.0441
54173DOD     C2 6339  14.101   9.974  17.474 -0.1671  0.0266 -0.0004
54173DOD     C3 6340  14.189   9.539  17.251 -0.1942 -0.0390 -0.3325
54174DOD     C1 6341  27.210  28.465   0.947  0.1948  0.3097  0.0767
54174DOD     C2 6342  27.612  28.263   0.727  0.3105  0.1602 -0.2940
54174DOD     C3 6343  27.886  27.907   0.500  0.0364  0.1026  0.1493
54175DOD     C1 6344   1.417  14.220   6.833 -0.0391  0.0756 -0.1129
54175DOD     C2 6345   1.463  14.075   7.267 -0.0321 -0.2728  0.2134
54175DOD     C3 6346   1.560  13.928   7.679  0.0487 -0.1157  0.1447
54176DOD     C1 6347  21.046   2.331   5.464  0.0469 -0.1486  0.0652
54176DOD     C2 6348  21.046   2.719   5.696 -0.2310  0.1804  0.0992
54176DOD     C3 6349  20.977   3.066   5.998 -0.3130 -0.1871 -0.1839
54177DOD     C1 6350  26.657  19.925   0.735 -0.0828 -0.0158  0.0848
54177DOD     C2 6351  26.988  20.190   0.820  0.1834 -0.1911 -0.1889
54177DOD     C3 6352  26.839  20.636   1.031 -0.0448  0.1152  0.0817
54178DOD     C1 6353  22.574  22.334   4.034  0.1498  0.0821  0.1788
54178DOD     C2 6354  22.913  22.555   3.832  0.2500 -0.0962  0.2853
54178DOD     C3 6355  22.985  22.990   3.574 -0.0126 -0.0393  0.3664
54179DOD     C1 6356  17.342  16.670  16.216  0.0241  0.1329  0.0301
54179DOD     C2 6357  17.414  16.974  15.835  0.2338  0.3465 -0.0047
54179DOD     C3 6358  17.450  17.307  15.570  0.3064 -0.0981 -0.0231
54180DOD     C1 6359  25.207  23.930   5.701 -0.0337  0.5387 -0.1854
54180DOD     C2 6360  25.215  23.559   5.992 -0.0938 -0.0619 -0.1078
54180DOD     C3 6361  25.201  23.208   6.282 -0.1563  0.1473 -0.1657
54181DOD     C1 6362   9.690  20.622   1.346  0.1756  0.2010 -0.1512
54181DOD     C2 6363   9.722  20.379   0.967  0.3616 -0.1092  0.0422
54181DOD     C3 6364   9.676  20.208   0.517 -0.2109  0.2230  0.1774
54182DOD     C1 6365  27.877  24.661  25.474 -0.2684 -0.3851 -0.5102
54182DOD     C2 6366  27.695  24.687  25.922  0.1886 -0.3044 -0.1784
54182DOD     C3 6367  27.686  24.621  26.381 -0.0352 -0.1350 -0.0782
54183DOD     C1 6368  16.802  15.745  24.032 -0.0618  0.0017 -0.2663
54183DOD     C2 6369  16.520  16.028  23.769 -0.2784 -0.2647 -0.1523
54183DOD     C3 6370  16.207  16.381  23.832 -0.0300  0.0441  0.3051
54184DOD     C1 6371   7.862  14.875  11.703 -0.1486  0.0149 -0.4110
54184DOD     C2 6372   7.510  14.978  11.505 -0.0798 -0.0302 -0.2128
54184DOD     C3 6373   7.417  15.381  11.250 -0.1742  0.0385  0.3521
54185DOD     C1 6374  27.547  24.812   0.560 -0.0694  0.0199 -0.1108
54185DOD     C2 6375  27.672  24.481   0.804 -0.1452  0.0420  0.0238
54185DOD     C3 6376  27.738  24.065   0.901 -0.3435 -0.1546  0.1715
54186DOD     C1 6377   5.355   1.440   7.357  0.1361  0.1073  0.0727
54186DOD     C2 6378   5.752   1.622   7.153 -0.0638  0.2484  0.2350
54186DOD     C3 6379   5.957   1.878   6.887 -0.2676 -0.2965  0.0130
54187DOD     C1 6380   8.565  14.231  30.072  0.3251  0.1979  0.2728
54187DOD     C2 6381   8.590  14.485   0.161  0.1773  0.1269  0.0946
54187DOD     C3 6382   8.675  14.910   0.363  0.2759 -0.2574  0.0532
54188DOD     C1 6383   7.228  29.301  13.876 -0.1710  0.2382  0.1206
54188DOD     C2 6384   6.783  29.359  13.717  0.1732  0.0267  0.1488
54188DOD     C3 6385   6.541  29.471  13.397 -0.0311 -0.0130  0.1853
54189DOD     C1 6386  17.389   0.038  18.695  0.2721 -0.0609 -0.0329
54189DOD     C2 6387  17.446   0.445  18.899  0.3001 -0.2800 -0.1950
54189DOD     C3 6388  17.278   0.757  19.200  0.1614  0.1620  0.0921
54190DOD     C1 6389  22.555  21.258   9.934 -0.0124  0.0399 -0.0772
54190DOD     C2 6390  22.505  20.825  10.059  0.4658 -0.1391  0.0510
54190DOD     C3 6391  22.391  20.487   9.756  0.1329 -0.1641 -0.4109
54191DOD     C1 6392  24.381  27.939   5.194  0.1122 -0.3109 -0.3554
54191DOD     C2 6393  24.153  27.967   4.846 -0.0892 -0.1367 -0.2478
54191DOD     C3 6394  23.968  27.805   4.463  0.1745  0.0764  0.2711
54192DOD     C1 6395  24.794  15.157  28.378 -0.2093 -0.0636 -0.0554
54192DOD     C2 6396  24.491  15.231  28.011 -0.0194  0.1752 -0.0000
54192DOD     C3 6397  24.244  15.239  27.629 -0.1346 -0.2686 -0.1814
54193DOD     C1 6398  13.072  23.413  13.008  0.4879 -0.2036 -0.1179
54193DOD     C2 6399  13.149  23.028  12.724 -0.1112 -0.3424  0.1316
54193DOD     C3 6400  12.910  22.861  12.359  0.1206 -0.1753 -0.0641
54194DOD     C1 6401  22.829  14.787   5.979 -0.0304 -0.2459  0.2322
54194DOD     C2 6402  23.260  14.663   5.852 -0.0052 -0.0343 -0.1403
54194DOD     C3 6403  23.643  14.480   6.061  0.2503  0.4708  0.1520
54195DOD     C1 6404  21.515  10.623   1.087  0.3731 -0.0138  0.1735
54195DOD     C2 6405  21.759  10.239   1.159 -0.0131  0.3056 -0.2155
54195DOD     C3 6406  21.978   9.819   1.004  0.0056  0.0182 -0.0743
54196DOD     C1 6407  21.608   5.359  12.459  0.0833 -0.0776 -0.0547
54196DOD     C2 6408  21.184   5.253  12.266 -0.0039 -0.4481 -0.0889
54196DOD     C3 6409  20.731   5.093  12.378  0.0378 -0.2685 -0.1650
54197DOD     C1 6410  16.666  18.286  22.598 -0.0777 -0.3351  0.4307
54197DOD     C2 6411  16.845  18.197  22.996  0.1069 -0.0290 -0.3329
54197DOD     C3 6412  17.000  18.050  23.456 -0.1552 -0.0136  0.3455
54198DOD     C1 6413  10.223  11.604  16.157  0.0011  0.0709 -0.0074
54198DOD     C2 6414  10.210  11.799  16.591 -0.2189  0.0773  0.1384
54198DOD     C3 6415  10.155  11.616  17.053  0.1753 -0.0975  0.1799
54199DOD     C1 6416   4.394  29.360  29.281 -0.1462  0.0988 -0.2165
54199DOD     C2 6417   4.130  29.091  28.998 -0.0287 -0.1553 -0.3283
54199DOD     C3 6418   3.777  29.147  28.688 -0.3672 -0.0776 -0.1377
54200DOD     C1 6419   5.396  11.288  16.200  0.0191 -0.1120  0.0059
54200DOD     C2 6420   5.239  11.401  15.801  0.1273  0.2704 -0.0143
54200DOD     C3 6421   4.823  11.564  15.660 -0.0109 -0.0170 -0.1793
54201DOD     C1 6422  12.556  18.373  16.998 -0.2056 -0.0283 -0.2309
54201DOD     C2 6423  12.235  18.051  16.911 -0.1788 -0.1686  0.0598
54201DOD     C3 6424  12.091  17.724  16.647 -0.1375 -0.2222  0.1955
54202DOD     C1 6425   2.307  10.644  11.643 -0.1838 -0.3064 -0.0343
54202DOD     C2 6426   2.264  11.066  11.756  0.0847  0.0237  0.1340
54202DOD     C3 6427   2.466  11.364  12.102 -0.0776  0.1888  0.0396
54203DOD     C1 6428   5.484  28.820  24.997 -0.3521  0.0443 -0.0000
54203DOD     C2 6429   5.432  29.020  24.605 -0.1369  0.0581 -0.1228
54203DOD     C3 6430   5.396  29.370  24.334  0.3012 -0.0645  0.0842
54204DOD     C1 6431   5.004   3.748   1.687 -0.0216 -0.3397  0.1288
54204DOD     C2 6432   5.164   3.954   2.034 -0.4109  0.0347 -0.0293
54204DOD     C3 6433   5.252   4.219   2.382  0.0319 -0.3877  0.1205
54205DOD     C1 6434  16.679  23.892  19.269  0.1794  0.0584 -0.0673
54205DOD     C2 6435  16.523  23.919  19.743  0.0567  0.1221  0.2464
54205DOD     C3 6436  16.600  24.134  20.140  0.1963  0.1335 -0.0293
54206DOD     C1 6437   1.064  26.239  29.583  0.0720  0.0666  0.3963
54206DOD     C2 6438   1.372  26.049  29.283  0.1730 -0.0025  0.3479
54206DOD     C3 6439   1.446  25.626  29.027 -0.2221 -0.0991  0.3376
54207DOD     C1 6440  21.316  25.983   5.307  0.1501 -0.0463 -0.2134
54207DOD     C2 6441  21.472  25.765   5.702 -0.2318 -0.1858  0.2281
54207DOD     C3 6442  21.892  25.804   5.939 -0.0100  0.2358  0.1835
54208DOD     C1 6443  19.263  27.778  20.681 -0.0458 -0.0068  0.2403
54208DOD     C2 6444  19.687  27.744  20.850  0.0371  0.0394  0.1547
54208DOD     C3 6445  20.108  27.500  21.023  0.0540  0.0173 -0.0566
54209DOD     C1 6446  19.575   6.080  17.162  0.1880 -0.0691  0.0472
54209DOD     C2 6447  19.796   5.670  17.207 -0.1041  0.2025  0.1940
54209DOD     C3 6448  19.708   5.257  17.370 -0.0571  0.3779  0.0292
54210DOD     C1 6449  22.088   1.491  25.880 -0.1599  0.0432  0.0737
54210DOD     C2 6450  22.460   1.397  25.734  0.1123 -0.2958 -0.3126
54210DOD     C3 6451  22.612   1.046  25.507 -0.0659  0.2631 -0.3038
54211DOD     C1 6452  24.215   4.599  25.235  0.1103 -0.0539  0.1112
54211DOD     C2 6453  24.314   4.753  25.583  0.0258  0.0566 -0.1179
54211DOD     C3 6454  24.383   5.189  25.577  0.0775  0.2433  0.1341
54212DOD     C1 6455  29.411   4.624   1.352  0.1128 -0.1756  0.1105
54212DOD     C2 6456  28.985   4.711   1.239  0.3200  0.0657  0.3119
54212DOD     C3 6457  28.535   4.912   1.145  0.0054  0.1425 -0.0666
54213DOD     C1 6458  22.850   0.039   4.942  0.0861  0.1076  0.2400
54213DOD     C2 6459  22.660  30.014   5.180  0.1013 -0.1492  0.0694
54213DOD     C3 6460  22.590  29.862   5.602  0.1715 -0.2701 -0.2597
54214DOD     C1 6461  15.844  27.658  21.563  0.3583 -0.1318  0.0797
54214DOD     C2 6462  15.432  27.616  21.431 -0.0868 -0.0182  0.2828
54214DOD     C3 6463  15.047  27.758  21.609  0.2934 -0.1677 -0.0563
54215DOD     C1 6464  18.160  11.378  27.898  0.3839 -0.2974  0.0349
54215DOD     C2 6465  18.004  11.810  27.994 -0.0597 -0.1059 -0.0666
54215DOD     C3 6466  17.865  12.137  28.339  0.0132 -0.0427 -0.0896
54216DOD     C1 6467  17.314   6.151  13.297  0.1998 -0.3328 -0.0746
54216DOD     C2 6468  17.423   5.838  12.938  0.1974 -0.0366 -0.0647
54216DOD     C3 6469  17.371   5.522  12.581 -0.4079  0.1226  0.1817
54217DOD     C1 6470  12.823  17.785  20.616 -0.2318  0.5763 -0.0670
54217DOD     C2 6471  12.649  17.663  21.015  0.1287  0.0011  0.1561
54217DOD     C3 6472  12.542  17.418  21.413 -0.3766 -0.0445  0.0845
54218DOD     C1 6473  25.776  24.969  15.887  0.0949 -0.1363  0.1679
54218DOD     C2 6474  25.744  25.108  15.403  0.0441 -0.0530  0.0944
54218DOD     C3 6475  26.020  25.281  15.129  0.0780 -0.0967  0.0530
54219DOD     C1 6476   1.874   1.748   7.979  0.2092 -0.1757  0.0090
54219DOD     C2 6477   1.391   1.745   8.059 -0.2020  0.0167 -0.2403
54219DOD     C3 6478   1.056   1.709   8.345  0.2205 -0.1001  0.1473
54220DOD     C1 6479  10.012   0.594   5.935 -0.1502  0.3034  0.1329
54220DOD     C2 6480   9.680   0.727   5.580  0.1839  0.0742  0.1725
54220DOD     C3 6481   9.456   1.095   5.463  0.0688 -0.0779  0.2249
54221DOD     C1 6482  12.419  21.522  26.798 -0.1716 -0.0327  0.0073
54221DOD     C2 6483  12.894  21.565  26.837  0.0972 -0.0637  0.2144
54221DOD     C3 6484  13.359  21.674  26.832 -0.2351  0.0440 -0.2260
54222DOD     C1 6485  15.052  23.502   9.313 -0.2604 -0.0540  0.1558
54222DOD     C2 6486  14.910  23.655   9.705 -0.2094 -0.0393  0.0063
54222DOD     C3 6487  15.046  23.645  10.118 -0.1289  0.1671  0.0668
54223DOD     C1 6488  10.124   7.009  13.787  0.1141 -0.0839 -0.2874
54223DOD     C2 6489  10.054   7.182  13.366  0.3265  0.1314  0.0310
54223DOD     C3 6490   9.953   7.493  13.097 -0.1478  0.1257  0.0363
54224DOD     C1 6491  15.779   2.264  11.118 -0.1303  0.0926  0.0179
54224DOD     C2 6492  15.452   2.214  11.467 -0.5169 -0.0115 -0.0015
54224DOD     C3 6493  15.151   2.327  11.743  0.2774 -0.1300  0.1670
54225DOD     C1 6494   6.491   7.044   5.258  0.0453  0.0242  0.0003
54225DOD     C2 6495   6.852   7.048   5.526 -0.1027 -0.1265 -0.2531
54225DOD     C3 6496   7.052   6.805   5.910  0.2822 -0.0683  0.1706
54226DOD     C1 6497  18.923   6.198   3.827 -0.1076 -0.0218  0.2024
54226DOD     C2 6498  18.521   6.258   3.929 -0.0002  0.2353  0.0227
54226DOD     C3 6499  18.059   6.079   3.930  0.1387  0.1799 -0.1846
54227DOD     C1 6500  14.608   9.787  14.265  0.5074 -0.2938 -0.0758
54227DOD     C2 6501  14.581  10.106  13.930  0.0468  0.0575 -0.1684
54227DOD     C3 6502  14.285  10.446  13.842  0.2754  0.0932 -0.1653
54228DOD     C1 6503  28.727  25.031  20.555 -0.2348  0.2100  0.0079
54228DOD     C2 6504  28.704  25.348  20.292 -0.2456  0.2782  0.0616
54228DOD     C3 6505  28.857  25.632  19.941 -0.1035  0.0011  0.1724
54229DOD     C1 6506   3.590  25.321  19.157  0.1092 -0.2555 -0.0173
54229DOD     C2 6507   3.337  25.531  18.811 -0.1600  0.0513  0.5635
54229DOD     C3 6508   3.191  25.792  18.460 -0.0130 -0.0716 -0.1225
54230DOD     C1 6509  12.850   3.259  21.664  0.1987 -0.1412  0.1703
54230DOD     C2 6510  12.756   2.785  21.544  0.0739  0.2848 -0.0387
54230DOD     C3 6511  12.732   2.369  21.688 -0.1003 -0.2462 -0.1610
54231DOD     C1 6512  24.834   3.090  23.967  0.2992 -0.1366  0.1760
54231DOD     C2 6513  25.026   3.455  23.752 -0.4787 -0.3407 -0.3094
54231DOD     C3 6514  25.450   3.757  23.767 -0.0682 -0.0701  0.0172
54232DOD     C1 6515  28.890  15.162  20.423 -0.2008  0.1580  0.2546
54232DOD     C2 6516  28.965  15.621  20.515  0.0199  0.0304 -0.3002
54232DOD     C3 6517  29.308  15.917  20.672  0.5732  0.1553  0.1056
54233DOD     C1 6518   6.397   5.999   6.381 -0.1443 -0.2589 -0.6104
54233DOD     C2 6519   6.288   6.388   6.146  0.1635 -0.0851  0.3700
54233DOD     C3 6520   6.387   6.872   6.016 -0.0942  0.1210 -0.0921
54234DOD     C1 6521   3.474   1.815   9.709  0.1656 -0.2190 -0.1158
54234DOD     C2 6522   3.225   2.188   9.854 -0.1479 -0.0798  0.1665
54234DOD     C3 6523   2.772   2.172   9.972  0.0579  0.0096 -0.0495
54235DOD     C1 6524  13.089  27.138   0.326 -0.0493  0.1549  0.1464
54235DOD     C2 6525  12.676  26.995   0.479 -0.0487  0.0569 -0.2404
54235DOD     C3 6526  12.417  27.144   0.864 -0.1346 -0.0122  0.2494
54236DOD     C1 6527  13.613   9.316  23.396  0.0604  0.2249 -0.1418
54236DOD     C2 6528  13.484   8.847  23.415  0.0890  0.3328 -0.5009
54236DOD     C3 6529  13.758   8.550  23.270  0.3681  0.0569  0.0511
54237DOD     C1 6530  11.759   5.552  15.181  0.1621  0.0444 -0.1346
54237DOD     C2 6531  11.993   5.668  15.621 -0.3496  0.0235 -0.1759
54237DOD     C3 6532  12.223   6.050  15.786  0.0875 -0.2471 -0.3388
54238DOD     C1 6533   0.159   9.172  13.875 -0.2570 -0.0231 -0.3444
54238DOD     C2 6534  30.106   9.547  13.854 -0.2854 -0.1743 -0.0035
54238DOD     C3 6535  29.725   9.630  13.639 -0.2110  0.2027 -0.0284
54239DOD     C1 6536  27.108  19.014   7.114 -0.0042 -0.2082  0.0460
54239DOD     C2 6537  26.864  19.479   7.092  0.1329  0.2162  0.1424
54239DOD     C3 6538  26.828  19.980   7.093  0.0457 -0.0697 -0.1664
54240DOD     C1 6539  15.536  12.626   1.348 -0.0147 -0.0732  0.2524
54240DOD     C2 6540  15.463  12.658   1.790 -0.1021 -0.1010 -0.1485
54240DOD     C3 6541  15.349  12.547   2.274 -0.1097  0.3207  0.1736
54241DOD     C1 6542   9.087  13.452  12.265  0.1414 -0.1195 -0.3820
54241DOD     C2 6543   8.704  13.673  12.039  0.0768 -0.0276 -0.1373
54241DOD     C3 6544   8.356  13.733  12.328  0.1783  0.3365  0.0410
54242DOD     C1 6545  17.366  22.299   6.339 -0.1700 -0.1808 -0.0192
54242DOD     C2 6546  17.169  22.430   6.697  0.0526  0.1292 -0.0318
54242DOD     C3 6547  16.889  22.774   6.900 -0.1184 -0.0472 -0.1497
54243DOD     C1 6548  23.223  29.588  13.664  0.3760  0.0239  0.0753
54243DOD     C2 6549  23.260  29.859  13.994  0.0308  0.1336 -0.1742
54243DOD     C3 6550  23.150  30.172  14.365 -0.0319  0.2892  0.1341
54244DOD     C1 6551  16.467   7.703   9.861  0.0612  0.1214  0.0980
54244DOD     C2 6552  16.246   7.787   9.442 -0.1528  0.2042  0.2599
54244DOD     C3 6553  15.960   7.874   9.097  0.0283  0.0099 -0.0721
54245DOD     C1 6554  29.247  13.899   3.831 -0.4705  0.0012  0.4625
54245DOD     C2 6555  29.620  13.695   4.008  0.4852  0.0333 -0.1860
54245DOD     C3 6556  29.910  13.383   4.303 -0.2112 -0.3393 -0.1291
54246DOD     C1 6557   3.892  24.727   5.067  0.5220  0.1248  0.1113
54246DOD     C2 6558   4.059  25.066   4.763 -0.1096  0.0189  0.0465
54246DOD     C3 6559   4.328  25.393   5.037 -0.2384  0.0260  0.0229
54247DOD     C1 6560   9.055   0.582  22.649  0.3075  0.2101 -0.0953
54247DOD     C2 6561   9.461   0.669  22.494  0.2629 -0.0795 -0.1564
54247DOD     C3 6562   9.907   0.758  22.367 -0.2776  0.0442  0.1038
54248DOD     C1 6563  17.767  20.597  21.070  0.1476  0.0215 -0.0898
54248DOD     C2 6564  17.815  20.577  21.545  0.1657 -0.0644  0.2343
54248DOD     C3 6565  17.548  20.242  21.796 -0.3547 -0.0326 -0.1559
54249DOD     C1 6566  11.637  11.670   5.810 -0.0351  0.0596  0.2845
54249DOD     C2 6567  11.711  11.996   6.183 -0.0197  0.0722 -0.3049
54249DOD     C3 6568  11.871  12.293   6.547 -0.2301 -0.2756  0.2883
54250DOD     C1 6569  26.218  26.857   5.852 -0.0767  0.2405  0.3167
54250DOD     C2 6570  26.428  26.524   6.019  0.2775 -0.0167  0.0999
54250DOD     C3 6571  26.694  26.257   6.310 -0.0001  0.0251 -0.0437
54251DOD     C1 6572  15.088  17.940   2.556 -0.1050  0.0963 -0.1952
54251DOD     C2 6573  15.533  17.867   2.738 -0.1755 -0.0682  0.0422
54251DOD     C3 6574  15.771  17.580   2.995 -0.0478 -0.2559  0.0724
54252DOD     C1 6575   1.206  25.289  17.902  0.1513  0.0277  0.0050
54252DOD     C2 6576   1.554  25.631  17.816 -0.3017  0.0502 -0.0534
54252DOD     C3 6577   1.896  25.614  17.513 -0.0267  0.0814 -0.3745
54253DOD     C1 6578  22.136  21.757   6.493 -0.1651 -0.1433 -0.1696
54253DOD     C2 6579  21.951  22.199   6.389 -0.2338  0.1837  0.1239
54253DOD     C3 6580  21.501  22.345   6.407  0.0899 -0.0247  0.0360
54254DOD     C1 6581  20.170  27.421  17.320  0.1906 -0.2888  0.0602
54254DOD     C2 6582  19.995  26.991  17.190  0.0315 -0.1701 -0.0895
54254DOD     C3 6583  19.773  26.707  16.871  0.0707 -0.0635 -0.2685
54255DOD     C1 6584  10.381   2.021   6.618  0.1670 -0.3974  0.0967
54255DOD     C2 6585  10.321   1.607   6.415 -0.0368 -0.1967 -0.0627
54255DOD     C3 6586  10.300   1.314   6.105 -0.1327  0.1316 -0.3375
54256DOD     C1 6587   9.895   6.983   3.497  0.0210  0.1196  0.1174
54256DOD     C2 6588   9.488   7.171   3.479  0.0414 -0.1516 -0.0718
54256DOD     C3 6589   9.017   7.111   3.505  0.0815  0.1968 -0.0334
54257DOD     C1 6590  23.009   8.602  18.046 -0.0040 -0.2468 -0.0953
54257DOD     C2 6591  23.382   8.418  17.815 -0.0337 -0.0909 -0.1397
54257DOD     C3 6592  23.468   8.568  17.395  0.1998  0.0926  0.4431
54258DOD     C1 6593  18.529  16.877  13.435 -0.0662 -0.1006 -0.0156
54258DOD     C2 6594  18.926  17.044  13.145  0.0613  0.0276  0.0414
54258DOD     C3 6595  19.253  17.378  13.117  0.2161  0.0909  0.0195
54259DOD     C1 6596  23.128  13.329  13.023  0.0501  0.3465  0.1710
54259DOD     C2 6597  22.660  13.446  13.086 -0.2812  0.0701 -0.0024
54259DOD     C3 6598  22.278  13.610  13.204  0.2820  0.3516  0.0083
54260DOD     C1 6599  10.965   9.154  29.869  0.0238 -0.1669  0.1847
54260DOD     C2 6600  10.581   9.233  29.983  0.1594 -0.0870 -0.1203
54260DOD     C3 6601  10.213   9.224  29.673 -0.0896  0.0113 -0.0623
54261DOD     C1 6602  19.517   6.321  20.589  0.2553 -0.0293  0.0876
54261DOD     C2 6603  19.930   6.259  20.537 -0.0544 -0.1160 -0.0443
54261DOD     C3 6604  20.231   5.917  20.358  0.3068  0.1078 -0.3512
54262DOD     C1 6605  29.357  27.550  20.948 -0.0860 -0.0493  0.0711
54262DOD     C2 6606  29.198  27.478  20.517 -0.1201 -0.1341  0.2671
54262DOD     C3 6607  29.373  27.255  20.127  0.2194 -0.0474 -0.2781
54263DOD     C1 6608  20.076  29.427  15.697 -0.0123  0.0002  0.3578
54263DOD     C2 6609  19.963  29.561  15.269 -0.1377  0.4497 -0.1520
54263DOD     C3 6610  19.688  29.898  15.214  0.3453 -0.0099 -0.0757
54264DOD     C1 6611   3.997  20.249  29.798 -0.1067  0.3653  0.1277
54264DOD     C2 6612   3.788  20.624  29.995  0.3710 -0.0955  0.0870
54264DOD     C3 6613   3.736  20.874   0.059  0.2826 -0.0352  0.3774
54265DOD     C1 6614  13.648  25.903  11.372 -0.3158  0.1223  0.0717
54265DOD     C2 6615  13.258  25.830  11.225 -0.0772  0.1393  0.0002
54265DOD     C3 6616  13.012  26.182  11.276 -0.2710 -0.1707  0.1703
54266DOD     C1 6617  11.541  27.993   1.891  0.1455 -0.1470  0.0762
54266DOD     C2 6618  11.587  27.602   2.116  0.1880 -0.1250 -0.1248
54266DOD     C3 6619  11.738  27.513   2.596 -0.0169 -0.3116 -0.0833
54267DOD     C1 6620  15.268   7.539  19.954 -0.1071  0.1541  0.1713
54267DOD     C2 6621  14.995   7.590  19.575 -0.0227  0.3382  0.2002
54267DOD     C3 6622  14.693   7.527  19.221  0.2423  0.0773  0.1822
54268DOD     C1 6623  21.382   4.487  23.832 -0.0901 -0.2503 -0.3096
54268DOD     C2 6624  21.621   4.406  24.207 -0.1283  0.0547 -0.2369
54268DOD     C3 6625  21.985   4.256  24.488 -0.3818  0.4997  0.1920
54269DOD     C1 6626  11.789  10.218   4.641 -0.1362 -0.1881  0.2745
54269DOD     C2 6627  11.750  10.706   4.670 -0.1680  0.0528  0.0393
54269DOD     C3 6628  11.552  11.119   4.531  0.0504  0.3217 -0.2948
54270DOD     C1 6629  29.285   7.282  28.567 -0.2151  0.0223  0.1049
54270DOD     C2 6630  29.533   7.504  28.851 -0.2622  0.3127 -0.0743
54270DOD     C3 6631  30.038   7.488  28.949  0.2184 -0.0058  0.1018
54271DOD     C1 6632   9.522  25.742  15.014 -0.0527 -0.0405 -0.1356
54271DOD     C2 6633   9.609  26.147  15.238 -0.4706  0.2064  0.0628
54271DOD     C3 6634   9.709  26.381  15.641  0.3828  0.2185 -0.0865
54272DOD     C1 6635   5.617  10.859  22.439 -0.1262  0.0714  0.1631
54272DOD     C2 6636   5.473  11.093  22.756 -0.1444 -0.4033 -0.1473
54272DOD     C3 6637   5.675  11.112  23.173 -0.0484  0.0167  0.3942
54273DOD     C1 6638   9.919  16.807  15.996  0.0708  0.3814 -0.0759
54273DOD     C2 6639   9.489  16.672  16.108  0.0071 -0.1077  0.2189
54273DOD     C3 6640   9.336  16.382  16.413 -0.1646 -0.3104  0.0029
54274DOD     C1 6641  23.664   0.881   8.283  0.0226 -0.0110 -0.0888
54274DOD     C2 6642  23.367   1.124   8.046 -0.1509 -0.3150  0.3314
54274DOD     C3 6643  22.914   1.044   8.193 -0.0556  0.0678  0.0279
54275DOD     C1 6644   6.761  14.059  21.067 -0.2865 -0.1311  0.1882
54275DOD     C2 6645   6.836  13.952  20.630 -0.0360  0.2475  0.4102
54275DOD     C3 6646   7.029  14.035  20.245  0.0736  0.0091  0.0016
54276DOD     C1 6647  18.491   2.335   6.189  0.0441 -0.0263  0.0858
54276DOD     C2 6648  18.749   2.551   5.848 -0.1196 -0.0241  0.0922
54276DOD     C3 6649  18.965   2.892   5.609  0.2496 -0.1636 -0.0078
54277DOD     C1 6650  13.724  22.926   2.570  0.0075  0.0317  0.0029
54277DOD     C2 6651  13.338  22.765   2.742  0.0821  0.3351 -0.1363
54277DOD     C3 6652  12.862  22.746   2.727 -0.3593 -0.2390  0.0424
54278DOD     C1 6653  15.440   5.196  21.021  0.1186  0.0783 -0.0590
54278DOD     C2 6654  15.688   5.488  21.366  0.1734  0.1802  0.4244
54278DOD     C3 6655  16.092   5.784  21.424  0.2475  0.0109  0.3096
54279DOD     C1 6656  10.931  25.143  21.610  0.1969  0.1310 -0.1113
54279DOD     C2 6657  10.469  25.139  21.650  0.0801 -0.1357  0.0022
54279DOD     C3 6658  10.010  25.177  21.496 -0.1471  0.1228 -0.0998
54280DOD     C1 6659   9.238  15.898  13.251  0.4109 -0.1597  0.1927
54280DOD     C2 6660   9.544  15.693  13.006  0.0874 -0.0193 -0.2658
54280DOD     C3 6661   9.916  15.371  12.957 -0.2439  0.0182 -0.1432
54281DOD     C1 6662  16.663  20.714   0.720 -0.2703  0.2935 -0.3109
54281DOD     C2 6663  17.000  20.625   0.400  0.2997 -0.0203 -0.1983
54281DOD     C3 6664  17.214  20.674   0.029 -0.1645 -0.5504 -0.2015
54282DOD     C1 6665  11.375  11.354   8.113  0.0551  0.0522 -0.0201
54282DOD     C2 6666  11.110  10.979   7.999  0.0718  0.4130  0.3850
54282DOD     C3 6667  10.896  10.908   7.551  0.0131 -0.1244 -0.4662
54283DOD     C1 6668  29.799   5.765  21.066 -0.2877 -0.0385  0.5160
54283DOD     C2 6669  30.095   5.418  21.044 -0.2090  0.1498 -0.1297
54283DOD     C3 6670   0.033   5.015  20.949 -0.0151  0.0607  0.0582
54284DOD     C1 6671  12.907   8.257  17.722 -0.2392  0.3055  0.0979
54284DOD     C2 6672  12.693   8.692  17.622  0.1634 -0.3419 -0.0167
54284DOD     C3 6673  12.689   9.084  17.762  0.0987  0.0100  0.0588
54285DOD     C1 6674  28.624  11.862  27.258  0.0352 -0.2100 -0.1060
54285DOD     C2 6675  29.000  11.617  27.183  0.1570 -0.2492 -0.1370
54285DOD     C3 6676  29.340  11.299  27.283 -0.1194 -0.1417  0.0531
54286DOD     C1 6677   2.531  20.323   9.139 -0.1578 -0.1328 -0.2260
54286DOD     C2 6678   2.938  20.214   8.758  0.1192  0.1477 -0.1784
54286DOD     C3 6679   3.369  20.147   8.895 -0.2715 -0.3133 -0.3317
54287DOD     C1 6680  26.615  26.401   1.961 -0.2305 -0.1995 -0.1804
54287DOD     C2 6681  26.270  26.579   2.174  0.2874  0.1890 -0.0177
54287DOD     C3 6682  26.031  26.972   2.281  0.1287  0.0867  0.0319
54288DOD     C1 6683  11.801  17.858  23.657  0.1038  0.3647  0.0379
54288DOD     C2 6684  12.164  17.749  23.937 -0.0121 -0.1328  0.5367
54288DOD     C3 6685  12.245  17.730  24.365  0.3132  0.1491 -0.2581
54289DOD     C1 6686  27.782  23.576   8.320  0.0373 -0.2143  0.0815
54289DOD     C2 6687  27.622  23.175   8.363  0.0279 -0.0425  0.3004
54289DOD     C3 6688  27.280  22.901   8.274  0.1421 -0.1593 -0.0891
54290DOD     C1 6689  12.087  27.077  27.452  0.1967 -0.1137 -0.0996
54290DOD     C2 6690  12.050  27.533  27.640 -0.3957  0.2569  0.0211
54290DOD     C3 6691  11.807  27.744  27.985 -0.2687 -0.0338  0.1220
54291DOD     C1 6692   7.520  21.183  15.872  0.2141 -0.0458 -0.2618
54291DOD     C2 6693   7.820  21.123  15.565 -0.1158  0.0723  0.1305
54291DOD     C3 6694   8.140  20.788  15.500 -0.1341 -0.0734 -0.0706
54292DOD     C1 6695  25.876  13.414  22.112 -0.0405 -0.1022 -0.2351
54292DOD     C2 6696  25.949  12.947  22.227  0.0351  0.2302  0.1369
54292DOD     C3 6697  25.872  12.476  22.084  0.0700  0.1392  0.2929
54293DOD     C1 6698  18.155  22.231  25.140  0.0269  0.0994  0.1908
54293DOD     C2 6699  18.543  22.155  24.878 -0.1837  0.0026  0.0989
54293DOD     C3 6700  18.508  21.906  24.452  0.1451 -0.2120 -0.3079
54294DOD     C1 6701  15.870  29.795  16.187 -0.0548  0.0539  0.1325
54294DOD     C2 6702  15.790  29.797  16.644 -0.2080 -0.1596 -0.1741
54294DOD     C3 6703  15.597  30.032  17.036  0.4436  0.1032 -0.0358
54295DOD     C1 6704  24.963  21.701  15.833  0.1454  0.0034  0.1423
54295DOD     C2 6705  24.904  22.051  16.089  0.0625 -0.0192  0.0938
54295DOD     C3 6706  25.083  22.485  16.170  0.0039  0.0168  0.0647
54296DOD     C1 6707  25.129  27.142   3.223 -0.1252  0.1586 -0.3630
54296DOD     C2 6708  24.973  26.920   2.778 -0.0730  0.1493  0.2936
54296DOD     C3 6709  24.650  27.054   2.466  0.1712 -0.1101  0.0183
54297DOD     C1 6710   7.136  24.877  19.888 -0.2357 -0.2782  0.0054
54297DOD     C2 6711   7.233  24.579  19.520 -0.1332  0.0787  0.1910
54297DOD     C3 6712   7.489  24.281  19.266  0.1163  0.0674  0.4678
54298DOD     C1 6713  16.704  17.324  22.207 -0.4084  0.0535 -0.1491
54298DOD     C2 6714  16.930  16.987  21.953  0.4315 -0.1194  0.0791
54298DOD     C3 6715  16.852  16.660  21.590 -0.2343 -0.3703  0.1476
54299DOD     C1 6716  13.085  29.266  22.862  0.1075  0.0582  0.1825
54299DOD     C2 6717  12.697  29.169  23.139  0.2801  0.0348  0.0594
54299DOD     C3 6718  12.397  28.756  23.348  0.0098  0.1681  0.2615
54300DOD     C1 6719   7.374  22.622  19.907  0.1503  0.0645  0.4305
54300DOD     C2 6720   7.260  22.437  19.496  0.1304  0.2991  0.3433
54300DOD     C3 6721   7.322  22.125  19.121 -0.2137  0.0197 -0.2422
54301DOD     C1 6722   1.624  11.819   9.629  0.2878  0.0467 -0.0987
54301DOD     C2 6723   1.767  11.600   9.222  0.0667  0.0183 -0.1884
54301DOD     C3 6724   1.808  11.785   8.770 -0.0398 -0.3283  0.0597
54302DOD     C1 6725   0.941  29.362  13.412 -0.1444 -0.1969 -0.0137
54302DOD     C2 6726   0.888  29.587  13.815  0.0560  0.0868 -0.2481
54302DOD     C3 6727   0.987  29.767  14.270  0.3079  0.3247  0.0411
54303DOD     C1 6728  15.900  26.106  17.353 -0.0215 -0.2100 -0.2527
54303DOD     C2 6729  16.189  26.396  17.033  0.3006  0.1457  0.4522
54303DOD     C3 6730  16.317  26.836  16.815  0.1008  0.1172 -0.0047
54304DOD     C1 6731  12.923   0.161  28.568 -0.1043  0.1526 -0.2723
54304DOD     C2 6732  12.572   0.390  28.782  0.1564  0.1729  0.0302
54304DOD     C3 6733  12.223   0.513  29.050  0.4211  0.0869  0.3013
54305DOD     C1 6734  16.275  13.536  23.112 -0.1607  0.1296  0.0819
54305DOD     C2 6735  16.490  13.617  22.719 -0.2987  0.0178  0.1542
54305DOD     C3 6736  16.735  13.554  22.332 -0.0481 -0.2467  0.3720
54306DOD     C1 6737  23.053  10.706   2.548 -0.0275  0.0563 -0.3159
54306DOD     C2 6738  23.202  10.262   2.410  0.0349 -0.1232 -0.0102
54306DOD     C3 6739  23.662  10.160   2.241  0.2498 -0.0046  0.2420
54307DOD     C1 6740   1.169   3.147   2.169 -0.5148  0.2181 -0.2178
54307DOD     C2 6741   1.138   2.703   2.053 -0.0433  0.0070  0.1981
54307DOD     C3 6742   1.246   2.285   1.915  0.1576  0.2272 -0.2250
54308DOD     C1 6743  19.226  20.231  15.676 -0.1198  0.2758  0.1732
54308DOD     C2 6744  19.140  19.969  16.032  0.0314  0.0931  0.4379
54308DOD     C3 6745  18.718  19.834  16.157  0.1859  0.3681 -0.3509
54309DOD     C1 6746  17.276  14.778  22.915 -0.2220 -0.0085 -0.0969
54309DOD     C2 6747  17.531  14.774  23.283 -0.3854 -0.0021  0.1193
54309DOD     C3 6748  17.503  14.800  23.717 -0.1638 -0.1948 -0.5004
54310DOD     C1 6749  15.435   9.364   2.327 -0.1397  0.0984  0.0496
54310DOD     C2 6750  15.382   8.887   2.371 -0.0816  0.1561 -0.2125
54310DOD     C3 6751  15.345   8.618   2.761 -0.2293 -0.0480  0.0713
54311DOD     C1 6752  25.252  17.802   2.999  0.0215 -0.3931  0.3534
54311DOD     C2 6753  24.919  17.896   2.736 -0.0679  0.0614  0.2333
54311DOD     C3 6754  24.599  17.885   2.404 -0.0117  0.0572 -0.0679
54312DOD     C1 6755   4.339   4.638   0.454 -0.0050  0.1525 -0.2159
54312DOD     C2 6756   4.336   4.593   0.977 -0.0746 -0.0886 -0.1378
54312DOD     C3 6757   4.584   4.408   1.256  0.2607  0.2426 -0.1020
54313DOD     C1 6758   7.516  20.604  23.327 -0.3726  0.2159  0.3702
54313DOD     C2 6759   7.585  20.983  23.558  0.1838 -0.1627  0.4031
54313DOD     C3 6760   7.852  21.378  23.474 -0.1318 -0.0369  0.1256
54314DOD     C1 6761  20.615  19.108   0.617  0.1463 -0.2865 -0.0054
54314DOD     C2 6762  20.978  18.832   0.723  0.0125  0.0147 -0.0570
54314DOD     C3 6763  21.275  18.530   0.848  0.1246  0.1769  0.2939
54315DOD     C1 6764  14.100   4.197  27.156 -0.1843  0.0318 -0.2983
54315DOD     C2 6765  14.378   4.142  26.795 -0.0524 -0.0393 -0.2303
54315DOD     C3 6766  14.642   4.358  26.443  0.2588 -0.4136 -0.0113
54316DOD     C1 6767  11.398   9.974  12.273 -0.0353  0.0140  0.2224
54316DOD     C2 6768  11.430   9.516  12.090  0.2487  0.0070 -0.2342
54316DOD     C3 6769  11.723   9.193  11.963  0.0123 -0.0926 -0.1523
54317DOD     C1 6770  27.513   1.301   6.459  0.1059 -0.0193  0.0241
54317DOD     C2 6771  27.087   1.236   6.222 -0.3221 -0.0760  0.1453
54317DOD     C3 6772  26.971   0.905   5.919  0.2549  0.3591 -0.1713
54318DOD     C1 6773  28.878  27.023   6.002 -0.1407 -0.0275 -0.1094
54318DOD     C2 6774  29.290  27.364   5.922  0.5969  0.0608  0.2134
54318DOD     C3 6775  29.431  27.785   5.787  0.0361  0.2546 -0.0276
54319DOD     C1 6776  26.219  12.937   2.219 -0.0120 -0.0114 -0.0287
54319DOD     C2 6777  26.526  12.992   1.855  0.0183 -0.1268  0.0194
54319DOD     C3 6778  26.643  13.038   1.387  0.1492 -0.0239 -0.1278
54320DOD     C1 6779  14.277   5.899  20.931  0.0105 -0.0757  0.0431
54320DOD     C2 6780  13.977   5.919  21.281 -0.1826 -0.1123  0.0872
54320DOD     C3 6781  13.635   6.183  21.444 -0.0159 -0.0004 -0.0317
54321DOD     C1 6782  26.685  28.824   4.529 -0.0366 -0.1801  0.0691
54321DOD     C2 6783  26.827  28.756   4.092  0.0412 -0.0524  0.5498
54321DOD     C3 6784  26.879  28.675   3.619  0.0075  0.2800 -0.2425
54322DOD     C1 6785   5.082  28.046   5.976  0.0267  0.0385 -0.2120
54322DOD     C2 6786   5.043  28.392   6.253  0.0793 -0.3804 -0.1479
54322DOD     C3 6787   4.824  28.621   6.598 -0.1924  0.3937  0.1094
54323DOD     C1 6788  10.258  13.875   7.042 -0.0731  0.3550 -0.3005
54323DOD     C2 6789  10.505  13.946   7.449  0.0837 -0.0374  0.0748
54323DOD     C3 6790  10.591  14.041   7.887 -0.1629 -0.2656 -0.1472
54324DOD     C1 6791   3.311   0.837   2.774  0.2238 -0.0294  0.3750
54324DOD     C2 6792   3.186   1.071   2.415 -0.0555 -0.0786 -0.5404
54324DOD     C3 6793   3.191   1.504   2.235  0.1090  0.1063  0.0289
54325DOD     C1 6794  21.871  22.514  17.145 -0.0953 -0.0810  0.0906
54325DOD     C2 6795  21.400  22.660  17.150  0.0291  0.1297  0.0243
54325DOD     C3 6796  20.944  22.491  17.205 -0.2008 -0.2681 -0.0657
54326DOD     C1 6797   8.286   1.911  21.502  0.1379  0.2086 -0.0673
54326DOD     C2 6798   7.859   1.995  21.379  0.1326 -0.1968 -0.3405
54326DOD     C3 6799   7.596   1.727  21.146  0.0745 -0.0454  0.0475
54327DOD     C1 6800   6.839   3.272  22.108 -0.0709 -0.0203 -0.0599
54327DOD     C2 6801   6.405   3.582  22.176 -0.2728  0.1131 -0.2032
54327DOD     C3 6802   6.104   3.840  22.190 -0.2193  0.1884  0.3430
54328DOD     C1 6803   4.227  24.924  27.677 -0.3258  0.0638  0.2617
54328DOD     C2 6804   3.877  25.120  27.862  0.0725  0.2881  0.2006
54328DOD     C3 6805   3.570  25.454  27.884  0.1424 -0.0206 -0.0434
54329DOD     C1 6806  24.451  21.987   6.639 -0.2133 -0.3098  0.0203
54329DOD     C2 6807  24.239  21.556   6.721  0.0264  0.1530  0.0065
54329DOD     C3 6808  24.164  21.204   6.992 -0.0320  0.3439  0.1186
54330DOD     C1 6809   9.521   5.968   7.991 -0.1451 -0.2435 -0.0004
54330DOD     C2 6810   9.386   6.268   8.323  0.1616  0.0618  0.2175
54330DOD     C3 6811   9.245   6.514   8.706  0.2381  0.0363  0.0075
54331DOD     C1 6812  10.651  20.046  22.685  0.1155 -0.0590  0.5637
54331DOD     C2 6813  11.048  20.159  22.469 -0.2462  0.0556  0.1184
54331DOD     C3 6814  11.395  20.014  22.146  0.0803  0.0222  0.0988
54332DOD     C1 6815  27.577  13.133  27.853  0.2312 -0.2307  0.3772
54332DOD     C2 6816  27.561  13.493  28.164  0.0933 -0.1973 -0.1728
54332DOD     C3 6817  27.280  13.740  28.434  0.1967 -0.1631  0.1149
54333DOD     C1 6818  28.771   1.575   6.340 -0.1554 -0.0287 -0.0969
54333DOD     C2 6819  28.775   1.933   6.080 -0.1001  0.0316  0.2404
54333DOD     C3 6820  28.638   2.389   6.010  0.2554  0.0548  0.0115
54334DOD     C1 6821  14.675  24.182   8.605 -0.2244  0.1745 -0.0539
54334DOD     C2 6822  14.514  23.791   8.488 -0.0680 -0.0437 -0.1590
54334DOD     C3 6823  14.155  23.535   8.269 -0.1409  0.0282  0.4647
54335DOD     C1 6824  14.860  22.072  28.569 -0.0120  0.4280  0.0804
54335DOD     C2 6825  14.497  21.794  28.520 -0.1679 -0.1953  0.2946
54335DOD     C3 6826  14.226  21.382  28.423  0.0074 -0.0897 -0.1037
54336DOD     C1 6827  19.926  20.843   3.200 -0.1650  0.1591  0.1654
54336DOD     C2 6828  19.600  20.792   3.489  0.3148 -0.1384 -0.0130
54336DOD     C3 6829  19.368  20.896   3.866 -0.1609 -0.2398  0.2079
54337DOD     C1 6830  10.988  14.427  30.147  0.0450  0.1215  0.1759
54337DOD     C2 6831  10.984  14.219  29.718 -0.2361  0.0058  0.0088
54337DOD     C3 6832  11.171  13.987  29.317  0.3381 -0.1296  0.3482
54338DOD     C1 6833  18.748  12.803   4.707  0.4440 -0.0160 -0.3052
54338DOD     C2 6834  18.679  13.001   4.308 -0.1757 -0.0480 -0.0685
54338DOD     C3 6835  18.801  13.267   3.964 -0.0832  0.0638  0.3192
54339DOD     C1 6836  20.057   2.912  15.693 -0.2513 -0.1459  0.1152
54339DOD     C2 6837  20.200   3.298  15.847  0.2648  0.0720 -0.0028
54339DOD     C3 6838  20.201   3.747  15.859  0.0560  0.1086 -0.2004
54340DOD     C1 6839  17.721  19.887  26.513  0.1362 -0.1069 -0.0077
54340DOD     C2 6840  18.160  19.775  26.667  0.1913  0.1278  0.0987
54340DOD     C3 6841  18.602  19.663  26.696 -0.2857  0.2589 -0.0368
54341DOD     C1 6842  24.312  16.797  13.168  0.1384  0.2309  0.1427
54341DOD     C2 6843  24.669  16.828  13.481 -0.1905 -0.0332  0.3550
54341DOD     C3 6844  25.012  16.769  13.730 -0.4473  0.0082 -0.0064
54342DOD     C1 6845  28.916   5.574  22.121  0.1971  0.0245  0.1999
54342DOD     C2 6846  28.499   5.374  21.994  0.1737  0.1145 -0.2396
54342DOD     C3 6847  28.265   4.980  22.000  0.2485  0.2960  0.1055
54343DOD     C1 6848  22.652  19.417   7.532 -0.1269  0.0018 -0.0664
54343DOD     C2 6849  22.693  19.107   7.852 -0.0866 -0.4618  0.0953
54343DOD     C3 6850  22.419  19.054   8.250  0.2763  0.0281  0.2923
54344DOD     C1 6851  13.130   5.246   1.715  0.4669  0.1516 -0.3586
54344DOD     C2 6852  13.510   4.909   1.672  0.0857 -0.0458  0.3397
54344DOD     C3 6853  13.558   4.480   1.842  0.0340 -0.0932  0.1298
54345DOD     C1 6854  12.636   4.519  14.436  0.0347 -0.0746  0.1772
54345DOD     C2 6855  12.826   4.113  14.517 -0.1015  0.0308  0.2229
54345DOD     C3 6856  12.972   3.758  14.262  0.0806  0.1795 -0.2870
54346DOD     C1 6857  22.970   0.694  21.144 -0.0305  0.1714  0.0534
54346DOD     C2 6858  23.368   0.887  20.979  0.1294 -0.1271  0.0325
54346DOD     C3 6859  23.658   1.114  20.715  0.0989  0.1549  0.0218
54347DOD     C1 6860  14.534  15.431  28.479  0.1680  0.2039  0.0171
54347DOD     C2 6861  14.871  15.232  28.183 -0.2144 -0.3386 -0.0014
54347DOD     C3 6862  15.118  15.130  27.863 -0.1267  0.1046 -0.1007
54348DOD     C1 6863  25.721   5.308   6.503  0.0758 -0.2736 -0.0594
54348DOD     C2 6864  25.339   5.171   6.292  0.1349 -0.0451  0.2657
54348DOD     C3 6865  24.987   5.047   5.996 -0.1507  0.1127 -0.0146
54349DOD     C1 6866  18.109  11.777  15.265 -0.1568  0.1405  0.3519
54349DOD     C2 6867  17.615  11.826  15.049  0.0844 -0.1101 -0.2332
54349DOD     C3 6868  17.194  12.006  15.129 -0.2805  0.0798 -0.0899
54350DOD     C1 6869  17.139  21.004  11.333 -0.0066 -0.0514  0.2086
54350DOD     C2 6870  16.861  20.666  11.099  0.3424  0.0898  0.2431
54350DOD     C3 6871  16.487  20.360  11.029 -0.0916 -0.0202 -0.0122
54351DOD     C1 6872   6.570  28.739  17.577 -0.1203 -0.0573 -0.2841
54351DOD     C2 6873   6.804  28.822  17.195 -0.0282 -0.1165 -0.0624
54351DOD     C3 6874   6.823  28.465  16.952  0.0323 -0.0347 -0.1623
54352DOD     C1 6875  21.202   5.192  12.854  0.0863 -0.1434  0.4669
54352DOD     C2 6876  21.238   5.160  13.272 -0.1305  0.0529 -0.1846
54352DOD     C3 6877  21.263   5.248  13.733 -0.1514 -0.1266 -0.3666
54353DOD     C1 6878   1.202  18.108   9.588  0.1987  0.1484  0.2076
54353DOD     C2 6879   1.110  18.556   9.522 -0.1111 -0.1473 -0.0174
54353DOD     C3 6880   0.933  18.974   9.344 -0.3796 -0.0042 -0.2094
54354DOD     C1 6881   3.727   9.366  15.570  0.1914 -0.2329  0.2840
54354DOD     C2 6882   3.433   8.979  15.590 -0.1792  0.2680 -0.2014
54354DOD     C3 6883   3.133   8.648  15.715 -0.0483 -0.0833  0.0220
54355DOD     C1 6884  15.163  11.528  20.297  0.0802 -0.0515 -0.2866
54355DOD     C2 6885  15.428  11.894  20.466 -0.0313 -0.1125  0.0568
54355DOD     C3 6886  15.875  11.986  20.529  0.0946 -0.0320  0.0821
54356DOD     C1 6887  21.245  11.661  19.270 -0.2236 -0.0908  0.2226
54356DOD     C2 6888  21.572  11.868  19.566 -0.0225 -0.0699  0.1885
54356DOD     C3 6889  21.734  12.144  19.933 -0.2572 -0.0188  0.0631
54357DOD     C1 6890   5.233   2.606   9.236 -0.2094  0.0142  0.2321
54357DOD     C2 6891   5.353   2.170   9.168 -0.2836  0.4905 -0.2553
54357DOD     C3 6892   5.558   1.921   9.522 -0.0381 -0.0599  0.2121
54358DOD     C1 6893  13.220   1.119   0.729  0.3007 -0.0779  0.0060
54358DOD     C2 6894  12.768   0.993   0.818  0.0155 -0.0097  0.2723
54358DOD     C3 6895  12.333   0.886   0.687 -0.1719 -0.0192 -0.0323
54359DOD     C1 6896  24.336  12.916  11.697 -0.1210  0.2022  0.1362
54359DOD     C2 6897  24.166  12.719  12.096 -0.2498 -0.1815  0.1224
54359DOD     C3 6898  23.862  12.800  12.442  0.2061 -0.0597  0.0555
54360DOD     C1 6899   9.798  12.153   3.782 -0.0586 -0.2783 -0.1324
54360DOD     C2 6900  10.009  12.555   3.892 -0.1343  0.0867 -0.0741
54360DOD     C3 6901   9.810  12.930   3.934  0.2079 -0.4516  0.1711
54361DOD     C1 6902  15.823  23.640   9.640 -0.1515 -0.1338  0.0225
54361DOD     C2 6903  16.113  23.955   9.949  0.1865  0.0110  0.4217
54361DOD     C3 6904  16.208  24.271  10.267  0.6133 -0.2232 -0.2406
54362DOD     C1 6905  27.984   8.654   4.562 -0.3860 -0.1587  0.5694
54362DOD     C2 6906  27.606   8.791   4.771  0.1730  0.4220  0.0011
54362DOD     C3 6907  27.297   8.596   5.064 -0.1060 -0.1342  0.1116
54363DOD     C1 6908  17.950   6.561  11.407 -0.3969 -0.0224  0.2610
54363DOD     C2 6909  17.556   6.343  11.469  0.2475  0.1372 -0.3233
54363DOD     C3 6910  17.370   5.957  11.572 -0.0523  0.1588 -0.0433
54364DOD     C1 6911  12.720  20.126  13.686 -0.2254  0.0368  0.1408
54364DOD     C2 6912  12.699  20.572  13.608 -0.0262 -0.1783 -0.0282
54364DOD     C3 6913  12.514  20.965  13.432  0.3582  0.0412 -0.0803
54365DOD     C1 6914   4.295  10.428  29.975 -0.0047 -0.2957 -0.2169
54365DOD     C2 6915   4.509  10.694  29.665  0.0736 -0.0732 -0.3256
54365DOD     C3 6916   4.851  10.920  29.455 -0.0432 -0.2113  0.1626
54366DOD     C1 6917  22.556   6.229  10.777  0.3746 -0.3021 -0.1162
54366DOD     C2 6918  22.310   6.587  10.645  0.0058  0.1932 -0.0581
54366DOD     C3 6919  22.269   6.680  10.161 -0.0568  0.2983  0.1441
54367DOD     C1 6920  19.792  28.971  17.749  0.0125 -0.1565  0.0486
54367DOD     C2 6921  20.133  29.258  17.620  0.2981 -0.1071 -0.0044
54367DOD     C3 6922  20.294  29.634  17.515  0.1483 -0.1324 -0.0063
54368DOD     C1 6923   5.298   6.843   9.540 -0.1172 -0.2509 -0.0188
54368DOD     C2 6924   5.112   6.433   9.640  0.0513 -0.0767 -0.1623
54368DOD     C3 6925   4.699   6.329   9.503  0.2420  0.0055 -0.1367
54369DOD     C1 6926   3.864  19.932  15.584  0.0025  0.0922  0.0825
54369DOD     C2 6927   4.042  19.642  15.904  0.0457 -0.2267 -0.0594
54369DOD     C3 6928   4.229  19.771  16.279 -0.0080  0.1301 -0.0620
54370DOD     C1 6929  13.995   6.539   7.221 -0.1330  0.0463  0.0364
54370DOD     C2 6930  13.732   6.365   6.850  0.0518  0.4366  0.0335
54370DOD     C3 6931  13.438   6.049   6.659 -0.0231 -0.0514  0.2253
54371DOD     C1 6932  26.741  13.937  22.175 -0.3408 -0.3582 -0.0077
54371DOD     C2 6933  26.858  13.885  21.669  0.3697  0.0638 -0.3151
54371DOD     C3 6934  26.906  13.549  21.330  0.1370 -0.0644  0.0484
54372DOD     C1 6935  27.507  10.793   3.414 -0.2398  0.0742  0.1328
54372DOD     C2 6936  27.891  11.030   3.326 -0.1816 -0.0775  0.2041
54372DOD     C3 6937  28.212  11.183   2.963  0.1319 -0.0574 -0.1294
54373DOD     C1 6938  18.130  20.483  23.596  0.0396 -0.1976 -0.1803
54373DOD     C2 6939  17.971  20.113  23.445 -0.1410  0.2767  0.0564
54373DOD     C3 6940  17.939  19.645  23.382  0.1032  0.1105  0.0735
54374DOD     C1 6941  21.394  11.314  20.332 -0.0402  0.3705  0.2366
54374DOD     C2 6942  21.374  10.795  20.365  0.1717  0.1615 -0.0233
54374DOD     C3 6943  21.568  10.423  20.094  0.1016 -0.0679 -0.0169
54375DOD     C1 6944  16.139  28.775  28.767 -0.2152  0.1979 -0.3066
54375DOD     C2 6945  15.835  28.669  28.441  0.0597  0.1768 -0.0487
54375DOD     C3 6946  15.704  28.622  27.989  0.0030 -0.3053 -0.0432
54376DOD     C1 6947   2.644  29.058  22.670  0.4643  0.3667 -0.1014
54376DOD     C2 6948   2.259  29.109  22.465  0.1221  0.0463 -0.2259
54376DOD     C3 6949   1.902  29.392  22.373 -0.1125  0.1096 -0.2918
54377DOD     C1 6950  20.286  14.113   6.928 -0.0894  0.2376  0.0689
54377DOD     C2 6951  20.591  13.971   7.321  0.1546 -0.3717  0.1099
54377DOD     C3 6952  20.832  14.196   7.625  0.0450 -0.0139 -0.0705
54378DOD     C1 6953  18.789   7.136  27.831  0.2340  0.0112 -0.1301
54378DOD     C2 6954  18.966   6.788  28.180 -0.0676 -0.0137  0.1116
54378DOD     C3 6955  19.129   6.486  28.511  0.0502  0.0084  0.2347
54379DOD     C1 6956  14.387  15.820  17.640  0.1112 -0.1074  0.0145
54379DOD     C2 6957  14.856  15.928  17.686 -0.0871  0.0581  0.2426
54379DOD     C3 6958  15.243  15.676  17.756 -0.3957 -0.0666 -0.4938
54380DOD     C1 6959   2.191   7.588   2.520 -0.0816  0.2477  0.0513
54380DOD     C2 6960   1.888   7.287   2.299 -0.4766 -0.1094  0.1729
54380DOD     C3 6961   1.442   7.187   2.287 -0.0004  0.2505  0.0883
54381DOD     C1 6962  10.251   3.788  19.757 -0.4194  0.4362  0.1510
54381DOD     C2 6963  10.208   4.193  20.075  0.0969  0.0354 -0.1205
54381DOD     C3 6964  10.248   4.171  20.512 -0.1501  0.0580 -0.3893
54382DOD     C1 6965  12.836   0.106   3.897 -0.1638 -0.2837 -0.3396
54382DOD     C2 6966  12.606   0.507   4.080  0.1116  0.1865 -0.2989
54382DOD     C3 6967  12.360   0.846   4.319  0.0500 -0.3781  0.0040
54383DOD     C1 6968  28.541  12.413  27.269  0.0022 -0.1502  0.1286
54383DOD     C2 6969  29.004  12.402  27.338  0.1456 -0.0769 -0.3387
54383DOD     C3 6970  29.198  12.370  27.764  0.1518 -0.0784  0.0015
54384DOD     C1 6971  19.777  27.544  17.008 -0.1196  0.3801  0.0445
54384DOD     C2 6972  19.791  27.195  16.756 -0.1728 -0.2678 -0.0061
54384DOD     C3 6973  19.688  26.959  16.444  0.2212  0.1331 -0.2438
54385DOD     C1 6974  28.427   8.332  19.591  0.0213  0.0578 -0.0768
54385DOD     C2 6975  28.588   8.574  19.281 -0.4144 -0.0588  0.0608
54385DOD     C3 6976  28.403   8.886  18.986  0.0525  0.0863 -0.1175
54386DOD     C1 6977   2.261  16.075   0.892 -0.2401  0.0829  0.0233
54386DOD     C2 6978   2.142  16.513   0.746 -0.1627 -0.1403  0.4764
54386DOD     C3 6979   1.938  16.620   0.347 -0.0792 -0.0388  0.1189
54387DOD     C1 6980   2.967   0.660   6.542 -0.1340  0.3138 -0.1248
54387DOD     C2 6981   3.279   0.400   6.313 -0.0376 -0.2240  0.2479
54387DOD     C3 6982   3.574   0.061   6.143 -0.1769  0.2552 -0.2921
54388DOD     C1 6983   1.704  22.264  10.433  0.1412 -0.1523 -0.2372
54388DOD     C2 6984   1.365  22.222  10.700  0.2919 -0.0399 -0.0077
54388DOD     C3 6985   0.954  22.342  10.834  0.0139  0.0722  0.0225
54389DOD     C1 6986  10.830   5.523   2.421 -0.1933 -0.1690  0.3515
54389DOD     C2 6987  10.905   5.758   2.840  0.0505 -0.1419  0.0622
54389DOD     C3 6988  11.197   6.028   3.048  0.2455  0.2759  0.1174
54390DOD     C1 6989  27.113  13.374   3.938 -0.1226  0.1855 -0.2409
54390DOD     C2 6990  27.347  13.776   3.794 -0.0517  0.2927  0.1965
54390DOD     C3 6991  27.290  14.205   3.708  0.2410  0.1141  0.0468
54391DOD     C1 6992  13.789  15.346  14.120 -0.1641 -0.0377 -0.3896
54391DOD     C2 6993  13.478  14.966  14.194  0.2667 -0.1383  0.0538
54391DOD     C3 6994  13.041  14.881  14.225  0.0995  0.0261 -0.0429
54392DOD     C1 6995  18.704  23.125  19.784 -0.0261 -0.0355 -0.1222
54392DOD     C2 6996  18.391  22.990  19.482 -0.3042  0.0535  0.2105
54392DOD     C3 6997  18.020  23.140  19.200  0.0804  0.1427 -0.0341
54393DOD     C1 6998  21.541  14.670  28.361 -0.3023  0.0969 -0.2166
54393DOD     C2 6999  22.003  14.715  28.377  0.1321  0.0939 -0.0119
54393DOD     C3 7000  22.333  14.860  28.143  0.0153 -0.1188  0.0800
54394DOD     C1 7001  21.327  17.057  24.688  0.1746 -0.0838  0.1891
54394DOD     C2 7002  21.303  17.522  24.869  0.1185 -0.2351  0.6901
54394DOD     C3 7003  21.211  18.022  24.827 -0.2799 -0.0723  0.0256
54395DOD     C1 7004   3.563  18.256   7.402 -0.1113 -0.2700  0.2212
54395DOD     C2 7005   3.948  18.375   7.611 -0.4543 -0.1224  0.2747
54395DOD     C3 7006   4.375  18.370   7.853  0.2464  0.0705 -0.1013
54396DOD     C1 7007  18.439  25.579   8.182 -0.0008  0.0451 -0.0116
54396DOD     C2 7008  18.805  25.460   7.854  0.0683 -0.0679 -0.2465
54396DOD     C3 7009  18.893  25.554   7.370  0.0950 -0.2995 -0.2723
54397DOD     C1 7010  12.639   8.850   2.751 -0.3615 -0.3275 -0.1397
54397DOD     C2 7011  12.174   8.842   2.709  0.0671 -0.2163 -0.3183
54397DOD     C3 7012  11.840   9.072   2.621 -0.0253 -0.1437 -0.0979
54398DOD     C1 7013   7.869  24.541  22.024 -0.1952 -0.1746  0.0520
54398DOD     C2 7014   8.268  24.718  22.192  0.0355 -0.0590 -0.0394
54398DOD     C3 7015   8.635  24.774  22.444  0.0849  0.0260  0.0700
54399DOD     C1 7016  14.535  16.489  28.455 -0.0373  0.3315 -0.4180
54399DOD     C2 7017  14.988  16.566  28.348 -0.1172  0.1178  0.4008
54399DOD     C3 7018  15.433  16.650  28.163 -0.0912 -0.1221 -0.1909
54400DOD     C1 7019  27.491  26.392   8.175  0.2190  0.0356  0.2832
54400DOD     C2 7020  27.708  26.192   7.835 -0.2585  0.0918 -0.1207
54400DOD     C3 7021  27.756  26.195   7.333 -0.0458 -0.4033  0.1268
54401DOD     C1 7022  18.095  23.546  22.068  0.0486  0.2801 -0.0426
54401DOD     C2 7023  18.397  23.313  21.780  0.1510 -0.2123  0.0908
54401DOD     C3 7024  18.662  23.109  21.540 -0.0414  0.1448 -0.1139
54402DOD     C1 7025  20.023   3.826   0.686  0.0069  0.1958  0.1433
54402DOD     C2 7026  20.418   3.801   0.914 -0.0665  0.0099  0.0143
54402DOD     C3 7027  20.618   4.133   1.161  0.0585  0.0149  0.1138
54403DOD     C1 7028   2.646  20.064  14.992  0.0584 -0.0838 -0.0158
54403DOD     C2 7029   2.669  20.494  15.220 -0.0180  0.1312  0.2972
54403DOD     C3 7030   2.810  20.888  15.446 -0.2843  0.1792 -0.1280
54404DOD     C1 7031   6.134  16.440  23.039 -0.0055 -0.1297 -0.0137
54404DOD     C2 7032   6.044  16.312  22.596 -0.3197  0.1697  0.2185
54404DOD     C3 7033   5.752  16.142  22.266  0.0292  0.0727 -0.0325
54405DOD     C1 7034  16.614  12.594  25.802 -0.0728  0.0873 -0.1885
54405DOD     C2 7035  16.864  12.760  26.166 -0.1402 -0.2996 -0.0255
54405DOD     C3 7036  17.321  12.722  26.313  0.1260 -0.0916 -0.0617
54406DOD     C1 7037  24.738   2.637   7.471 -0.2277  0.0172 -0.1121
54406DOD     C2 7038  25.120   2.330   7.442 -0.1643 -0.0709  0.3274
54406DOD     C3 7039  25.603   2.250   7.425 -0.1601 -0.0709  0.3722
54407DOD     C1 7040   3.388  19.401   4.317 -0.1462  0.0643  0.0832
54407DOD     C2 7041   3.730  19.403   4.025  0.4513  0.1541  0.3211
54407DOD     C3 7042   3.900  19.197   3.651 -0.1986 -0.2391 -0.2062
54408DOD     C1 7043   4.012   9.103   2.796  0.1260 -0.0100 -0.5043
54408DOD     C2 7044   4.172   9.432   3.131 -0.0529  0.0705 -0.1570
54408DOD     C3 7045   4.178   9.782   3.471 -0.2679 -0.0538 -0.0511
54409DOD     C1 7046   8.314  29.717  15.690 -0.0052 -0.0832 -0.0357
54409DOD     C2 7047   8.089  29.937  15.989 -0.1168  0.1650 -0.0910
54409DOD     C3 7048   8.182   0.083  16.145 -0.2874 -0.0745  0.1701
54410DOD     C1 7049  22.001  13.063  20.789 -0.1773  0.0107 -0.3611
54410DOD     C2 7050  22.122  12.776  20.428 -0.1305  0.0459 -0.4609
54410DOD     C3 7051  22.097  12.797  19.972  0.0094 -0.1267  0.3046
54411DOD     C1 7052  12.642   5.578  24.969  0.2559  0.0978  0.1718
54411DOD     C2 7053  12.533   5.436  24.544  0.0102  0.3362  0.1739
54411DOD     C3 7054  12.285   5.513  24.160 -0.0428 -0.2591 -0.1665
54412DOD     C1 7055   4.059   6.485  16.404 -0.1236  0.2048  0.0429
54412DOD     C2 7056   4.502   6.555  16.360  0.0240  0.0004 -0.0281
54412DOD     C3 7057   4.916   6.473  16.365 -0.1936  0.1734 -0.1996
54413DOD     C1 7058  25.191  25.907  19.280 -0.1680 -0.0111  0.0653
54413DOD     C2 7059  25.055  26.402  19.174 -0.3680 -0.1329 -0.1466
54413DOD     C3 7060  24.825  26.805  19.114  0.1480  0.0866  0.2180
54414DOD     C1 7061   1.471   0.398   1.372  0.1475 -0.3266 -0.0012
54414DOD     C2 7062   1.305   0.766   1.177 -0.1058 -0.1101 -0.3475
54414DOD     C3 7063   0.880   0.791   1.366  0.2737  0.0605 -0.0840
54415DOD     C1 7064   2.338   5.278  18.089 -0.2826 -0.0820 -0.2858
54415DOD     C2 7065   2.426   5.081  17.633  0.0671 -0.0114  0.0237
54415DOD     C3 7066   2.397   4.993  17.163  0.0719  0.1584 -0.1440
54416DOD     C1 7067  21.953  23.937  21.341  0.1942 -0.0587  0.0786
54416DOD     C2 7068  21.888  24.059  21.763 -0.0780 -0.1761 -0.0290
54416DOD     C3 7069  21.866  23.805  22.186 -0.1035  0.3057  0.3115
54417DOD     C1 7070  12.449   5.943   4.576 -0.2051  0.1936  0.1506
54417DOD     C2 7071  12.395   6.041   4.149 -0.2348  0.1821 -0.0693
54417DOD     C3 7072  12.290   6.255   3.770  0.1603  0.2888 -0.2728
54418DOD     C1 7073   8.771  30.187  24.797  0.2865  0.1021 -0.0152
54418DOD     C2 7074   8.458  30.071  25.115  0.3841  0.0937  0.1864
54418DOD     C3 7075   8.357  29.738  25.392  0.2265 -0.0772  0.1042
54419DOD     C1 7076   5.134   1.121   9.356  0.1128 -0.0404 -0.1799
54419DOD     C2 7077   4.796   1.402   9.090  0.0910 -0.1273 -0.0784
54419DOD     C3 7078   4.371   1.504   9.030 -0.1110 -0.2008  0.1464
54420DOD     C1 7079   8.402  27.250  12.525 -0.2246  0.0545  0.0504
54420DOD     C2 7080   8.837  27.445  12.546 -0.0183 -0.1897  0.0677
54420DOD     C3 7081   9.153  27.632  12.767  0.0969 -0.0304  0.0112
54421DOD     C1 7082  16.989   0.031  29.843 -0.1491 -0.0484 -0.0495
54421DOD     C2 7083  16.905  29.961  30.011 -0.2277 -0.1890  0.0722
54421DOD     C3 7084  16.924  29.536  29.908  0.0368 -0.0088  0.0822
54422DOD     C1 7085   9.097  16.454  22.708  0.1754 -0.0489  0.2419
54422DOD     C2 7086   8.652  16.402  22.872 -0.1650  0.1439 -0.1209
54422DOD     C3 7087   8.435  15.944  22.897  0.2590  0.0948 -0.1336
54423DOD     C1 7088  28.359  12.925  28.215  0.1474  0.0540  0.1985
54423DOD     C2 7089  28.385  12.605  27.901  0.3512  0.2788 -0.0310
54423DOD     C3 7090  28.109  12.363  27.615  0.1488 -0.0901  0.2127
54424DOD     C1 7091  11.954  24.297  30.038  0.3060 -0.0290 -0.1211
54424DOD     C2 7092  11.869  24.479   0.173 -0.0738  0.5193  0.2738
54424DOD     C3 7093  11.992  24.480   0.677  0.0974  0.1711 -0.2324
54425DOD     C1 7094  25.853  27.284  24.415 -0.0268  0.2403  0.0827
54425DOD     C2 7095  25.747  27.405  23.997  0.0316 -0.1254  0.1085
54425DOD     C3 7096  25.576  27.352  23.524 -0.0802  0.1196  0.1288
54426DOD     C1 7097   5.657  26.065   0.971  0.1937  0.0663  0.3015
54426DOD     C2 7098   5.744  26.215   1.394  0.3887 -0.0486  0.0643
54426DOD     C3 7099   6.058  26.026   1.607 -0.1800  0.2727  0.1003
54427DOD     C1 7100   0.837   5.790  22.431  0.3946 -0.0359 -0.0238
54427DOD     C2 7101   0.780   5.831  22.028 -0.2369 -0.2426 -0.1444
54427DOD     C3 7102   0.894   6.180  21.694 -0.0098 -0.1100 -0.0445
54428DOD     C1 7103   6.461   7.497  25.612 -0.3731  0.1361 -0.0431
54428DOD     C2 7104   6.447   7.917  25.866 -0.3649  0.0052 -0.0824
54428DOD     C3 7105   6.581   8.295  25.613  0.2372 -0.1279 -0.0757
54429DOD     C1 7106  15.948  22.121  10.083  0.2442  0.1078  0.0513
54429DOD     C2 7107  16.363  22.027  10.209  0.0171 -0.1662  0.1281
54429DOD     C3 7108  16.712  21.683  10.163 -0.1812 -0.0799 -0.0317
54430DOD     C1 7109  16.470   9.447   2.371  0.2110  0.2780  0.2822
54430DOD     C2 7110  16.880   9.340   2.453  0.6680 -0.2289 -0.1313
54430DOD     C3 7111  17.282   9.428   2.604  0.3695 -0.1094  0.2369
54431DOD     C1 7112  18.239  14.255  27.326  0.2432  0.0773 -0.2398
54431DOD     C2 7113  18.418  14.455  27.715 -0.0996  0.0802 -0.0192
54431DOD     C3 7114  18.756  14.625  27.993  0.1769 -0.1092  0.0571
54432DOD     C1 7115  16.546   3.059  21.565 -0.2348 -0.0443 -0.3291
54432DOD     C2 7116  16.799   3.061  21.147 -0.2342  0.1647  0.0778
54432DOD     C3 7117  17.251   3.191  20.949 -0.0645  0.1127 -0.0025
54433DOD     C1 7118  28.071   9.498  28.058 -0.0900 -0.0782 -0.1784
54433DOD     C2 7119  27.981   9.883  28.339  0.0845  0.2317  0.1867
54433DOD     C3 7120  27.989  10.105  28.794 -0.0260  0.2713  0.0146
54434DOD     C1 7121  21.549  23.027  16.383  0.2263 -0.0433  0.3830
54434DOD     C2 7122  21.730  22.641  16.612 -0.0356  0.0057 -0.2847
54434DOD     C3 7123  21.733  22.200  16.538  0.0190 -0.1110 -0.0158
54435DOD     C1 7124  11.684  16.258   2.174 -0.0066 -0.2091 -0.0618
54435DOD     C2 7125  11.486  15.820   2.273 -0.1743 -0.2752 -0.0419
54435DOD     C3 7126  10.964  15.785   2.170 -0.2608 -0.2087  0.2570
54436DOD     C1 7127  22.266  29.008   4.539 -0.1549  0.0288 -0.4328
54436DOD     C2 7128  22.500  29.035   4.136  0.1580  0.2771 -0.0823
54436DOD     C3 7129  22.569  28.813   3.739 -0.3911  0.1904 -0.1245
54437DOD     C1 7130  20.008  18.771  28.127 -0.0844  0.1653 -0.1352
54437DOD     C2 7131  19.740  18.935  28.482 -0.1831 -0.3587 -0.0293
54437DOD     C3 7132  19.833  19.352  28.692 -0.0598 -0.0724 -0.2271
54438DOD     C1 7133  20.106  15.130  25.338  0.0089  0.0855 -0.0673
54438DOD     C2 7134  19.863  15.053  25.018  0.2517  0.1833  0.1370
54438DOD     C3 7135  19.539  15.002  24.663  0.1017 -0.1342  0.0899
54439DOD     C1 7136  23.189  25.126  12.935 -0.1742  0.1444 -0.0621
54439DOD     C2 7137  23.273  24.652  13.018 -0.2511 -0.2130 -0.1349
54439DOD     C3 7138  23.105  24.187  12.998  0.1523 -0.3043  0.1065
54440DOD     C1 7139   0.808   8.791   0.142 -0.0193  0.2218 -0.0218
54440DOD     C2 7140   0.875   9.098   0.574 -0.3527  0.1021  0.1193
54440DOD     C3 7141   0.928   9.239   1.024  0.3047 -0.0553 -0.1147
54441DOD     C1 7142   8.335  16.529  23.928  0.2010  0.1849  0.1324
54441DOD     C2 7143   8.468  16.807  24.310 -0.1221  0.0406 -0.0661
54441DOD     C3 7144   8.727  16.659  24.690 -0.2732  0.1338  0.1217
54442DOD     C1 7145   6.156  24.301   4.872  0.1753  0.0140 -0.0729
54442DOD     C2 7146   6.112  24.515   4.488 -0.2737  0.1228  0.2503
54442DOD     C3 7147   5.852  24.517   4.142  0.0441  0.0478 -0.1013
54443DOD     C1 7148  10.114  12.274   8.183 -0.2029  0.0665  0.1814
54443DOD     C2 7149  10.398  12.508   8.463  0.1182  0.1793 -0.3528
54443DOD     C3 7150  10.346  12.809   8.828  0.0065  0.0168 -0.2625
54444DOD     C1 7151  13.038   9.908  21.899 -0.1557 -0.1713 -0.0862
54444DOD     C2 7152  13.009   9.880  21.474 -0.1390  0.0485  0.2895
54444DOD     C3 7153  13.194   9.812  21.021 -0.2424 -0.1661 -0.0127
54445DOD     C1 7154   6.260  25.527   0.609  0.1499 -0.2853 -0.0310
54445DOD     C2 7155   5.980  25.321   0.919 -0.0375 -0.1056  0.1289
54445DOD     C3 7156   6.236  25.255   1.367  0.1119  0.2122  0.0413
54446DOD     C1 7157   9.115   8.407  19.788 -0.1896  0.0132  0.2342
54446DOD     C2 7158   9.196   8.133  20.179  0.1917  0.3283  0.0816
54446DOD     C3 7159   8.800   7.923  20.355 -0.1856  0.1478  0.0657
54447DOD     C1 7160  25.890   6.036  19.508  0.2358  0.1189 -0.0594
54447DOD     C2 7161  26.012   5.554  19.627 -0.1110 -0.0026 -0.0119
54447DOD     C3 7162  26.376   5.510  19.960  0.1015  0.0425  0.0955
54448DOD     C1 7163   4.735   4.930   1.243 -0.0255  0.0879 -0.1046
54448DOD     C2 7164   5.140   5.092   1.178 -0.2125 -0.0253  0.1466
54448DOD     C3 7165   5.611   5.159   1.078 -0.2145  0.0048 -0.0286
54449DOD     C1 7166  23.790  12.754  18.106 -0.3747  0.1605  0.1608
54449DOD     C2 7167  23.597  12.500  18.416  0.0775 -0.1936 -0.2109
54449DOD     C3 7168  23.134  12.351  18.480  0.0201  0.2334 -0.2289
54450DOD     C1 7169  15.936  29.589  18.824 -0.0243 -0.0641 -0.0363
54450DOD     C2 7170  16.071  29.391  19.231  0.2558  0.0956 -0.0303
54450DOD     C3 7171  16.250  29.191  19.606  0.4703  0.0552  0.0161
54451DOD     C1 7172  21.282  19.582  19.240  0.3190 -0.0803  0.2818
54451DOD     C2 7173  21.438  19.179  19.005 -0.0929  0.1037 -0.1610
54451DOD     C3 7174  21.620  18.850  18.754 -0.1068  0.0698 -0.2052
54452DOD     C1 7175  14.875  19.537  29.477 -0.1336  0.2915 -0.3503
54452DOD     C2 7176  15.317  19.656  29.561 -0.0907 -0.0106  0.2242
54452DOD     C3 7177  15.728  19.829  29.622  0.0511 -0.1571 -0.2079
54453DOD     C1 7178  24.940   9.669   4.042 -0.2112  0.1086  0.1561
54453DOD     C2 7179  25.077   9.208   4.105 -0.2813  0.2029 -0.3519
54453DOD     C3 7180  24.746   8.917   4.197  0.1606  0.0550 -0.2654
54454DOD     C1 7181  11.712  28.486  10.258  0.3120  0.1608 -0.0629
54454DOD     C2 7182  11.663  28.585   9.820  0.0567 -0.2020 -0.3018
54454DOD     C3 7183  11.955  28.434   9.515 -0.1269 -0.4537 -0.2034
54455DOD     C1 7184  18.452  27.252  23.869 -0.0772 -0.1018 -0.1283
54455DOD     C2 7185  18.235  26.912  24.001  0.2112  0.0553  0.3096
54455DOD     C3 7186  17.791  26.808  24.120  0.0573  0.1925 -0.3449
54456DOD     C1 7187  23.621  26.991  24.530  0.0685  0.0181 -0.0332
54456DOD     C2 7188  23.793  27.411  24.457 -0.2084 -0.1188  0.1074
54456DOD     C3 7189  24.027  27.757  24.465  0.0366 -0.0624  0.0907
54457DOD     C1 7190  21.218  14.583   4.559 -0.1378 -0.2826 -0.1759
54457DOD     C2 7191  21.567  14.747   4.851  0.1419 -0.0052 -0.0518
54457DOD     C3 7192  21.852  14.507   5.061 -0.0248 -0.0821 -0.1585
54458DOD     C1 7193   5.205   8.227  23.835  0.1905  0.1654 -0.3296
54458DOD     C2 7194   4.851   8.027  24.067  0.0347 -0.0798  0.3423
54458DOD     C3 7195   4.442   7.893  23.900 -0.2142 -0.2091  0.0466
54459DOD     C1 7196  26.865  25.053  13.018 -0.0087 -0.2105 -0.2580
54459DOD     C2 7197  27.210  25.080  12.718 -0.2422  0.1667  0.2672
54459DOD     C3 7198  27.273  25.058  12.249  0.3215 -0.1122 -0.3258
54460DOD     C1 7199  25.995  15.023   8.686 -0.1690  0.1346  0.0171
54460DOD     C2 7200  26.001  14.833   8.244 -0.0654 -0.0701  0.3669
54460DOD     C3 7201  26.023  14.624   7.848  0.0648 -0.0121  0.0342
54461DOD     C1 7202   8.959   6.456   3.954 -0.1448  0.4570 -0.0975
54461DOD     C2 7203   9.277   6.777   3.736  0.0147  0.1173  0.1314
54461DOD     C3 7204   9.651   6.939   3.901  0.0146  0.1944 -0.1841
54462DOD     C1 7205   0.875  12.374  14.914  0.2736 -0.1636  0.1667
54462DOD     C2 7206   1.187  12.112  15.194  0.2335  0.1473 -0.0131
54462DOD     C3 7207   1.245  11.984  15.629  0.1118  0.1738 -0.4291
54463DOD     C1 7208   0.980  24.215  10.383 -0.1640 -0.2142 -0.3174
54463DOD     C2 7209   0.755  23.905  10.620  0.2858  0.3470 -0.2187
54463DOD     C3 7210   0.539  23.504  10.443  0.0892 -0.1427 -0.0699
54464DOD     C1 7211   5.341  29.277  12.579 -0.1630  0.0895  0.0693
54464DOD     C2 7212   5.611  29.454  12.251 -0.1177  0.2569 -0.2471
54464DOD     C3 7213   6.014  29.315  12.046  0.1899  0.3263  0.1323
54465DOD     C1 7214  27.934   9.008  18.972  0.4547 -0.0968 -0.1009
54465DOD     C2 7215  27.636   9.363  18.902 -0.3164 -0.0940  0.0886
54465DOD     C3 7216  27.391   9.559  18.584  0.0522 -0.3172 -0.1458
54466DOD     C1 7217  13.094  13.836  23.638 -0.3242 -0.1719  0.2495
54466DOD     C2 7218  13.154  14.078  23.254 -0.1098 -0.0836 -0.2997
54466DOD     C3 7219  13.244  14.489  23.108 -0.0403 -0.0888 -0.0161
54467DOD     C1 7220  25.568  12.363  20.679  0.1856  0.0173 -0.0019
54467DOD     C2 7221  25.527  12.722  20.386 -0.2339 -0.0383 -0.1195
54467DOD     C3 7222  25.521  13.128  20.069 -0.1153  0.3447 -0.0507
54468DOD     C1 7223  17.715  29.691  24.375  0.1087  0.0399 -0.0314
54468DOD     C2 7224  17.560  29.529  24.818 -0.5436 -0.4704  0.2813
54468DOD     C3 7225  17.740  29.229  25.098  0.3606  0.1143  0.3175
54469DOD     C1 7226  19.705  10.614   5.304 -0.0790 -0.2846 -0.0602
54469DOD     C2 7227  19.649  10.183   5.408 -0.1946 -0.1765  0.0966
54469DOD     C3 7228  19.933   9.830   5.630  0.0218  0.0479 -0.1106
54470DOD     C1 7229  15.725   4.415   8.493 -0.3833  0.0251 -0.0290
54470DOD     C2 7230  15.307   4.349   8.737 -0.1402  0.7222 -0.1201
54470DOD     C3 7231  14.865   4.303   8.880 -0.2184 -0.1194  0.1206
54471DOD     C1 7232  16.913   2.956  11.051 -0.1182  0.1337  0.1579
54471DOD     C2 7233  17.030   2.864  10.619 -0.0974 -0.1240 -0.1316
54471DOD     C3 7234  17.389   3.019  10.364 -0.0877 -0.0124 -0.0811
54472DOD     C1 7235   2.391  11.240  25.391 -0.0134 -0.1679  0.1001
54472DOD     C2 7236   2.686  11.306  25.720  0.3478  0.3637 -0.1559
54472DOD     C3 7237   2.891  11.602  25.958  0.2404 -0.3431  0.1308
54473DOD     C1 7238  24.105  27.926  11.774  0.3148  0.0645 -0.2058
54473DOD     C2 7239  24.524  28.110  11.594  0.1370 -0.0334  0.1574
54473DOD     C3 7240  24.959  28.311  11.587  0.2453 -0.1618 -0.3372
54474DOD     C1 7241  10.861   0.176   5.975 -0.0511  0.1912  0.2295
54474DOD     C2 7242  10.854  30.057   6.113 -0.1964  0.1474 -0.3074
54474DOD     C3 7243  11.067  29.644   6.133  0.0569 -0.2351 -0.3596
54475DOD     C1 7244  14.710  10.791  15.013  0.0152 -0.2487 -0.2082
54475DOD     C2 7245  15.203  10.807  15.081  0.4524 -0.4584  0.3662
54475DOD     C3 7246  15.547  10.675  15.373  0.0560 -0.2223  0.2339
54476DOD     C1 7247   4.096  10.833  20.072  0.0776  0.3446  0.2050
54476DOD     C2 7248   4.069  10.415  20.291  0.1255 -0.3193 -0.3248
54476DOD     C3 7249   3.871  10.351  20.696 -0.0866 -0.1082 -0.0638
54477DOD     C1 7250  19.567   3.479  25.290  0.0096  0.0214  0.2471
54477DOD     C2 7251  19.537   3.016  25.373  0.2376 -0.2620  0.1080
54477DOD     C3 7252  19.377   2.734  25.719 -0.1986  0.3006  0.1877
54478DOD     C1 7253   2.730  29.756  27.495 -0.0492 -0.0958  0.1365
54478DOD     C2 7254   2.305  29.883  27.474  0.0968  0.0980  0.0560
54478DOD     C3 7255   1.926  29.589  27.419  0.1785 -0.3952 -0.0097
54479DOD     C1 7256  26.452  13.906  29.558 -0.1035  0.2379 -0.1734
54479DOD     C2 7257  26.875  13.785  29.705  0.2196  0.0949  0.0852
54479DOD     C3 7258  27.307  13.849  29.709 -0.0460  0.1164  0.2347
54480DOD     C1 7259  18.090  12.628   8.883 -0.1475  0.2083  0.1643
54480DOD     C2 7260  18.103  12.158   8.851 -0.0986 -0.1385 -0.0386
54480DOD     C3 7261  18.333  11.822   8.657  0.1491 -0.0788  0.3410
54481DOD     C1 7262  28.436   7.748  16.785  0.1081 -0.0252 -0.2763
54481DOD     C2 7263  28.577   7.536  16.447 -0.0056 -0.0136 -0.0389
54481DOD     C3 7264  28.828   7.301  16.174  0.1875  0.1195 -0.0770
54482DOD     C1 7265  18.807   1.534  21.628 -0.0793  0.2764 -0.1350
54482DOD     C2 7266  18.841   1.220  21.972  0.3932 -0.0111  0.4771
54482DOD     C3 7267  18.808   0.977  22.354 -0.2691 -0.1731 -0.0733
54483DOD     C1 7268  26.483   8.025   6.584  0.2987 -0.0376 -0.3404
54483DOD     C2 7269  26.727   7.791   6.991  0.1284  0.3693  0.2662
54483DOD     C3 7270  27.030   7.523   7.010 -0.0484 -0.2245 -0.1363
54484DOD     C1 7271   3.326  24.983   5.600  0.1620 -0.0110  0.1242
54484DOD     C2 7272   3.702  25.245   5.767 -0.2371  0.1992  0.1211
54484DOD     C3 7273   4.167  25.213   5.873 -0.1785  0.2969  0.0697
54485DOD     C1 7274   1.815  20.566  28.894 -0.2621 -0.2182 -0.1357
54485DOD     C2 7275   2.042  20.729  28.521 -0.0978  0.0550 -0.0255
54485DOD     C3 7276   2.492  20.740  28.393  0.2395 -0.1054 -0.1192
54486DOD     C1 7277  29.883  23.619   3.239  0.1196 -0.0337  0.3877
54486DOD     C2 7278  30.221  23.763   2.902 -0.2112  0.0777  0.0676
54486DOD     C3 7279   0.174  23.817   2.514 -0.1420 -0.0146  0.1719
54487DOD     C1 7280  28.400   1.174   0.771  0.1598  0.0010  0.0999
54487DOD     C2 7281  28.075   0.873   0.628 -0.2478 -0.2173  0.1888
54487DOD     C3 7282  27.611   0.710   0.632 -0.0815  0.2966 -0.0419
54488DOD     C1 7283  27.071   8.996  27.619  0.0185  0.0062 -0.0844
54488DOD     C2 7284  26.929   8.743  27.287 -0.1518  0.1076  0.0292
54488DOD     C3 7285  26.667   8.613  26.922 -0.0225  0.3124 -0.0903
54489DOD     C1 7286  24.155  13.940  26.719  0.0193  0.0010 -0.2553
54489DOD     C2 7287  23.890  13.558  26.706 -0.1854  0.3179  0.0152
54489DOD     C3 7288  23.882  13.122  26.969  0.1493  0.0723  0.1362
54490DOD     C1 7289  10.094  25.147  29.307  0.1358 -0.0061  0.1248
54490DOD     C2 7290   9.723  25.443  29.410  0.2388 -0.1471  0.3543
54490DOD     C3 7291   9.373  25.743  29.472  0.1351 -0.0912  0.1121
54491DOD     C1 7292  29.235  11.058  14.874  0.0940 -0.4565  0.1671
54491DOD     C2 7293  29.346  11.097  15.298  0.3182 -0.0579  0.0519
54491DOD     C3 7294  29.766  10.956  15.340  0.0565 -0.1992  0.1088
54492DOD     C1 7295  21.156  24.722  20.071 -0.1965  0.0609 -0.4184
54492DOD     C2 7296  21.533  24.608  20.310  0.0478  0.0369 -0.0409
54492DOD     C3 7297  21.936  24.271  20.300  0.1572 -0.0549  0.0511
54493DOD     C1 7298  20.276   1.737   2.125  0.1230  0.1398 -0.1429
54493DOD     C2 7299  20.708   1.812   2.267 -0.0419 -0.0758 -0.1673
54493DOD     C3 7300  21.122   1.604   2.391  0.0812 -0.0200  0.1652
54494DOD     C1 7301   8.301  12.837  14.637 -0.1736 -0.1329  0.0617
54494DOD     C2 7302   8.070  13.262  14.616  0.3048 -0.0492 -0.0089
54494DOD     C3 7303   7.652  13.461  14.734  0.2974 -0.0212 -0.1200
54495DOD     C1 7304   3.414   6.956  29.979  0.1676  0.0845  0.3327
54495DOD     C2 7305   3.832   6.817  29.832 -0.0313 -0.0897  0.4291
54495DOD     C3 7306   4.080   6.676  29.456 -0.0172 -0.0653  0.0906
54496DOD     C1 7307  11.128   7.112  27.535 -0.1047  0.0052 -0.4425
54496DOD     C2 7308  11.281   6.855  27.145  0.2234  0.1738  0.0642
54496DOD     C3 7309  11.331   6.767  26.695  0.1258 -0.0136 -0.2330
54497DOD     C1 7310  28.617  16.758   2.052 -0.1021  0.1748  0.3242
54497DOD     C2 7311  28.355  16.693   1.754  0.0542  0.1250 -0.1207
54497DOD     C3 7312  28.392  16.532   1.279  0.1725 -0.0427 -0.1233
54498DOD     C1 7313   8.578  12.170  16.191  0.2702  0.1215 -0.0106
54498DOD     C2 7314   8.669  11.777  16.434  0.3218 -0.1264 -0.5042
54498DOD     C3 7315   8.831  11.312  16.428 -0.1728 -0.1960  0.1871
54499DOD     C1 7316  13.887  17.277   2.031 -0.0534 -0.0914  0.4603
54499DOD     C2 7317  13.900  16.869   2.236 -0.2687  0.4625  0.0341
54499DOD     C3 7318  13.893  16.630   2.617 -0.0646 -0.0844 -0.0419
54500DOD     C1 7319  12.211   3.246  20.948  0.0887  0.0571  0.0742
54500DOD     C2 7320  12.486   3.396  21.251 -0.1888 -0.1870  0.3807
54500DOD     C3 7321  12.357   3.448  21.688 -0.0612  0.1138  0.3750
54501DOD     C1 7322  13.790   4.062  15.407  0.0357 -0.0378 -0.0524
54501DOD     C2 7323  13.577   4.377  15.696  0.0146 -0.0944  0.0549
54501DOD     C3 7324  13.779   4.618  16.075 -0.2210 -0.1046 -0.1157
54502DOD     C1 7325   9.679  13.495  17.871  0.0642 -0.1391  0.0118
54502DOD     C2 7326   9.468  13.877  18.067 -0.1183 -0.1035 -0.0006
54502DOD     C3 7327   9.507  14.309  17.827 -0.1512  0.1861  0.1213
54503DOD     C1 7328  15.521   4.554  26.062  0.2842  0.0498 -0.0570
54503DOD     C2 7329  15.704   4.231  25.778 -0.0906  0.0411  0.1511
54503DOD     C3 7330  15.648   3.755  25.700 -0.0975 -0.2927 -0.2090
54504DOD     C1 7331   5.943   7.555  25.084 -0.0602 -0.0385  0.0213
54504DOD     C2 7332   5.485   7.644  24.997 -0.1095 -0.1660 -0.1252
54504DOD     C3 7333   5.022   7.688  24.798 -0.2000 -0.0974  0.1700
54505DOD     C1 7334   1.806  22.190  10.927 -0.1224 -0.1123 -0.0964
54505DOD     C2 7335   2.052  21.941  10.586 -0.1090 -0.1209 -0.0456
54505DOD     C3 7336   2.477  21.896  10.736  0.2681 -0.1260  0.2839
54506DOD     C1 7337  22.676  15.227  12.016 -0.2669 -0.0595  0.1970
54506DOD     C2 7338  22.990  15.048  11.751 -0.0288 -0.1631 -0.3052
54506DOD     C3 7339  23.299  14.790  11.611  0.2499  0.2226 -0.1936
54507DOD     C1 7340   5.585  18.591   3.588  0.0161  0.2524 -0.0572
54507DOD     C2 7341   5.263  18.312   3.784  0.1262  0.0473 -0.0375
54507DOD     C3 7342   4.845  18.085   3.828  0.0916 -0.0209  0.0407
54508DOD     C1 7343   0.425   6.538   1.724 -0.1405  0.0692  0.3332
54508DOD     C2 7344   0.515   6.852   1.382  0.1333 -0.1870 -0.0951
54508DOD     C3 7345   0.670   7.080   1.022  0.0312 -0.3370  0.3392
54509DOD     C1 7346  22.302  10.840  26.423 -0.1037 -0.2181  0.1834
54509DOD     C2 7347  21.864  10.951  26.531  0.0409 -0.1054  0.2394
54509DOD     C3 7348  21.491  11.192  26.654 -0.0339 -0.2654 -0.0028
54510DOD     C1 7349  16.759  15.275  27.872 -0.1540  0.1384 -0.2697
54510DOD     C2 7350  17.137  15.282  27.655  0.3061  0.1754 -0.1654
54510DOD     C3 7351  17.429  15.416  27.290 -0.0549  0.3179 -0.0103
54511DOD     C1 7352  24.895  14.153   9.819 -0.0752 -0.0705  0.0520
54511DOD     C2 7353  25.020  14.301   9.402 -0.1765  0.2439 -0.1189
54511DOD     C3 7354  25.034  14.425   8.942 -0.1128 -0.1857  0.0935
54512DOD     C1 7355  11.266   4.250   5.916 -0.0001  0.1052  0.0684
54512DOD     C2 7356  10.854   4.376   5.982  0.0049 -0.0213  0.0372
54512DOD     C3 7357  10.374   4.257   5.948  0.2435 -0.4411  0.0123
54513DOD     C1 7358  25.811  17.904  15.734  0.2167  0.0627 -0.0050
54513DOD     C2 7359  25.373  17.817  15.597 -0.0410 -0.1177 -0.0975
54513DOD     C3 7360  24.958  17.815  15.320  0.2942  0.0396 -0.1878
54514DOD     C1 7361  20.372  18.024   2.288  0.2118  0.0010  0.0371
54514DOD     C2 7362  20.124  18.216   2.624 -0.3064  0.2160 -0.0667
54514DOD     C3 7363  19.729  18.244   2.466 -0.1815 -0.1635 -0.0817
54515DOD     C1 7364  26.705   0.752  12.141 -0.0968  0.1034  0.2650
54515DOD     C2 7365  26.436   0.393  12.400 -0.2830  0.1445 -0.0569
54515DOD     C3 7366  26.369   0.172  12.833  0.2557 -0.1080  0.2987
54516DOD     C1 7367  15.673  29.449   0.322 -0.0881 -0.0241 -0.2263
54516DOD     C2 7368  15.753  29.886   0.447 -0.1980 -0.0685 -0.1279
54516DOD     C3 7369  15.945  30.053   0.800 -0.0033 -0.1968 -0.1320
54517DOD     C1 7370   5.007  22.986   5.731  0.0976 -0.0148  0.1801
54517DOD     C2 7371   4.645  22.949   6.026  0.4382  0.0248  0.1196
54517DOD     C3 7372   4.265  23.098   6.244 -0.1130  0.2417 -0.0409
54518DOD     C1 7373  29.041  20.172   3.877  0.1066 -0.0142 -0.0396
54518DOD     C2 7374  29.122  20.265   3.455  0.0562 -0.2436 -0.0563
54518DOD     C3 7375  29.312  20.174   3.080  0.0923 -0.0080  0.4196
54519DOD     C1 7376   7.641  23.648  13.820  0.1065 -0.2547 -0.0412
54519DOD     C2 7377   7.519  23.250  14.032 -0.0341 -0.2958 -0.3459
54519DOD     C3 7378   7.492  22.929  14.327  0.0557  0.1168  0.0323
54520DOD     C1 7379  14.544   0.169  20.772  0.0020 -0.1325  0.3322
54520DOD     C2 7380  14.194   0.050  21.051 -0.2388  0.0530  0.0939
54520DOD     C3 7381  13.844  30.120  21.331  0.3068  0.0437  0.3838
54521DOD     C1 7382   1.371  19.803   5.754  0.0579  0.0601  0.0227
54521DOD     C2 7383   1.385  20.170   5.474  0.3489 -0.0055 -0.0884
54521DOD     C3 7384   1.190  20.474   5.196 -0.1934 -0.1932 -0.0614
54522DOD     C1 7385  28.748  17.234  16.042 -0.0765  0.1225  0.0881
54522DOD     C2 7386  28.482  16.973  15.757 -0.0261 -0.0330  0.1164
54522DOD     C3 7387  28.081  17.096  15.549  0.0161  0.3099 -0.1009
54523DOD     C1 7388  20.748  28.439   8.486  0.0085  0.1120  0.0958
54523DOD     C2 7389  21.002  28.691   8.788 -0.1963  0.2730 -0.2485
54523DOD     C3 7390  21.418  28.753   8.963  0.1615 -0.0680 -0.1809
54524DOD     C1 7391  23.424  18.310  18.261 -0.0830  0.2467  0.0740
54524DOD     C2 7392  23.782  18.060  18.476  0.0950  0.2573 -0.0403
54524DOD     C3 7393  24.178  17.739  18.537 -0.1054  0.1305 -0.0942
54525DOD     C1 7394  10.083   2.038   1.610 -0.0447 -0.0423 -0.0624
54525DOD     C2 7395   9.890   2.350   1.289  0.0961  0.2317 -0.1930
54525DOD     C3 7396   9.590   2.583   1.014  0.0197 -0.1345  0.0840
54526DOD     C1 7397  18.113  29.829  16.946 -0.3184 -0.2636  0.3147
54526DOD     C2 7398  18.141  30.298  16.972  0.1331  0.1336  0.4196
54526DOD     C3 7399  18.190   0.473  16.861  0.3893 -0.3002 -0.1277
54527DOD     C1 7400   1.219  18.144  29.225 -0.0298  0.0125  0.0985
54527DOD     C2 7401   1.673  17.906  29.183  0.2395 -0.2916 -0.1465
54527DOD     C3 7402   1.988  17.591  28.963 -0.0683 -0.1022  0.0454
54528DOD     C1 7403  16.253   7.735  12.660  0.0171  0.0310 -0.1444
54528DOD     C2 7404  16.287   7.766  12.177  0.2099  0.4193 -0.0329
54528DOD     C3 7405  16.188   7.916  11.708 -0.1577  0.2431 -0.1194
54529DOD     C1 7406   5.522   1.869  13.748 -0.0016  0.1762  0.1828
54529DOD     C2 7407   5.478   2.250  14.059 -0.2702 -0.2784  0.3899
54529DOD     C3 7408   5.427   2.355  14.553 -0.0109 -0.3432 -0.1164
54530DOD     C1 7409  28.859  18.920  29.673  0.2817  0.0835  0.0388
54530DOD     C2 7410  28.614  19.316  29.800 -0.1716  0.0341  0.1537
54530DOD     C3 7411  28.336  19.637  30.072  0.0992 -0.2491 -0.0318
54531DOD     C1 7412  12.340  20.184  13.411 -0.0731  0.0679  0.0712
54531DOD     C2 7413  12.299  19.800  13.658  0.0971  0.2137 -0.2442
54531DOD     C3 7414  12.337  19.497  13.976 -0.0789 -0.3650  0.2505
54532DOD     C1 7415   4.880  11.619  12.597 -0.0508 -0.0147 -0.2116
54532DOD     C2 7416   5.206  11.400  12.855 -0.3461  0.0062 -0.0638
54532DOD     C3 7417   5.625  11.466  13.067  0.2206 -0.4022 -0.1831
54533DOD     C1 7418   1.341  28.302  18.039 -0.2910 -0.0624  0.0091
54533DOD     C2 7419   1.316  27.914  17.833  0.2899  0.0382 -0.1579
54533DOD     C3 7420   0.991  27.688  17.643  0.2314 -0.0559  0.0946
54534DOD     C1 7421  11.896   4.101  18.989  0.0460  0.0417 -0.1683
54534DOD     C2 7422  11.660   4.144  19.345  0.4246 -0.0343 -0.1965
54534DOD     C3 7423  11.420   3.974  19.687  0.0762  0.1335 -0.0633
54535DOD     C1 7424  13.131  10.023  25.677 -0.0632 -0.1812  0.1489
54535DOD     C2 7425  13.026  10.283  26.010 -0.2631  0.2720  0.2126
54535DOD     C3 7426  12.887  10.628  26.239  0.1826 -0.2005 -0.1535
54536DOD     C1 7427  21.197  24.417  27.170 -0.1186 -0.1607  0.0281
54536DOD     C2 7428  21.134  23.963  27.344  0.2404 -0.0197  0.0156
54536DOD     C3 7429  21.146  23.552  27.626  0.4253 -0.0754  0.0483
54537DOD     C1 7430  13.960  23.904   8.624 -0.0772 -0.2394 -0.1097
54537DOD     C2 7431  13.659  24.148   8.385 -0.3204  0.0558  0.1090
54537DOD     C3 7432  13.687  24.305   7.958  0.0039  0.0514 -0.1298
54538DOD     C1 7433   0.710  13.060   4.524  0.1761 -0.0430  0.1678
54538DOD     C2 7434   1.155  13.048   4.601  0.0056 -0.2583 -0.1440
54538DOD     C3 7435   1.518  13.156   4.336 -0.0496 -0.0264 -0.1504
54539DOD     C1 7436   6.484   6.206  16.337  0.0909 -0.5535 -0.0389
54539DOD     C2 7437   6.089   6.049  16.617 -0.2163  0.2548 -0.0991
54539DOD     C3 7438   5.975   5.620  16.717 -0.1176  0.0346 -0.1978
54540DOD     C1 7439  25.483  27.748   7.074 -0.0470 -0.1837  0.1115
54540DOD     C2 7440  25.394  27.624   6.596 -0.1685 -0.1194 -0.0221
54540DOD     C3 7441  25.352  27.249   6.262 -0.3457  0.0332  0.0718
54541DOD     C1 7442   7.017  21.046  24.449 -0.3011  0.2166  0.3448
54541DOD     C2 7443   6.771  20.702  24.660 -0.2964 -0.3338 -0.0048
54541DOD     C3 7444   6.436  20.512  24.717  0.0031  0.1798 -0.3084
54542DOD     C1 7445  25.747   8.563  19.391  0.0057 -0.1402 -0.0727
54542DOD     C2 7446  25.992   8.965  19.324  0.2291  0.0682 -0.2488
54542DOD     C3 7447  26.298   9.157  19.652 -0.1290  0.1204  0.2838
54543DOD     C1 7448  25.426  29.391   5.399 -0.1661  0.1391 -0.0702
54543DOD     C2 7449  25.756  29.630   5.617 -0.3448 -0.0569 -0.2546
54543DOD     C3 7450  25.644  29.896   5.995 -0.1530 -0.0491 -0.0636
54544DOD     C1 7451   4.415  28.426   4.650  0.0445 -0.4516  0.3349
54544DOD     C2 7452   4.540  28.752   4.963  0.1035  0.2622  0.2177
54544DOD     C3 7453   4.852  28.909   5.229 -0.0189 -0.2300 -0.0660
54545DOD     C1 7454  16.712  29.861  25.075  0.0642  0.3146 -0.0216
54545DOD     C2 7455  16.494  30.049  25.434 -0.0538  0.1049 -0.0665
54545DOD     C3 7456  16.265   0.073  25.616 -0.1878 -0.0926 -0.0672
54546DOD     C1 7457  27.843  16.058  24.238 -0.2562 -0.1224 -0.1370
54546DOD     C2 7458  28.301  16.121  24.420  0.0687 -0.3294  0.0190
54546DOD     C3 7459  28.732  16.242  24.559 -0.0108 -0.3331 -0.0339
54547DOD     C1 7460   7.774  24.738  23.360  0.3004 -0.3064 -0.1537
54547DOD     C2 7461   7.806  25.206  23.543 -0.0297 -0.0043  0.0676
54547DOD     C3 7462   7.638  25.551  23.777 -0.0800 -0.0123 -0.2283
54548DOD     C1 7463  25.032  26.907  22.189  0.0302 -0.0262  0.0868
54548DOD     C2 7464  24.678  26.717  21.880 -0.0696 -0.1129 -0.0841
54548DOD     C3 7465  24.287  26.805  21.596 -0.3242  0.0731 -0.1707
54549DOD     C1 7466   7.519   1.502  27.205  0.0967 -0.0626  0.3165
54549DOD     C2 7467   7.218   1.123  27.285 -0.0160  0.2278  0.2064
54549DOD     C3 7468   6.904   0.836  27.513 -0.0525 -0.0470  0.1708
54550DOD     C1 7469  16.485   8.829  23.725 -0.0479 -0.1024 -0.0232
54550DOD     C2 7470  16.103   8.857  23.981 -0.0318 -0.1044  0.0648
54550DOD     C3 7471  15.672   8.983  23.967  0.1106 -0.2478  0.0175
54551DOD     C1 7472  24.455  17.113  25.654 -0.1114  0.0632 -0.1534
54551DOD     C2 7473  24.366  16.686  25.691  0.1878  0.4106 -0.0298
54551DOD     C3 7474  24.085  16.442  25.980  0.0677  0.0467  0.2857
54552DOD     C1 7475  21.444  15.498  30.199 -0.2645  0.0882 -0.0978
54552DOD     C2 7476  21.290  15.836  29.971  0.1510 -0.1339  0.3337
54552DOD     C3 7477  21.285  16.163  29.653 -0.0976  0.0616 -0.1771
54553DOD     C1 7478  28.280  29.063   7.950 -0.0157  0.2189  0.1104
54553DOD     C2 7479  28.263  29.050   7.474  0.0075  0.0972 -0.2443
54553DOD     C3 7480  28.448  28.869   7.070 -0.0963 -0.3377  0.1065
54554DOD     C1 7481  16.316  16.381   4.776 -0.0235 -0.1060 -0.2473
54554DOD     C2 7482  16.159  16.653   5.164  0.1943 -0.4018 -0.2051
54554DOD     C3 7483  15.715  16.781   5.352 -0.2414  0.4380 -0.0010
54555DOD     C1 7484  17.359  20.445  16.626 -0.0996  0.0946  0.2485
54555DOD     C2 7485  17.553  20.778  16.327 -0.1034  0.0547 -0.0830
54555DOD     C3 7486  17.535  20.764  15.904 -0.0127 -0.3385  0.0114
54556DOD     C1 7487  18.672  20.010  17.950 -0.0237  0.0426  0.1831
54556DOD     C2 7488  18.659  20.242  18.379 -0.1679 -0.0513 -0.3104
54556DOD     C3 7489  18.501  20.501  18.758 -0.0231  0.0654  0.2101
54557DOD     C1 7490  29.867   2.690   1.201 -0.1115 -0.2342 -0.3085
54557DOD     C2 7491  29.368   2.769   1.220 -0.1494  0.1640 -0.0193
54557DOD     C3 7492  29.190   3.147   0.933  0.0084  0.4506  0.0618
54558DOD     C1 7493  29.111   4.937   8.549  0.0470  0.1734 -0.2257
54558DOD     C2 7494  29.594   4.843   8.561 -0.0477 -0.2550  0.0142
54558DOD     C3 7495  29.934   5.046   8.850  0.0762 -0.1259 -0.1035
54559DOD     C1 7496   8.937  14.664  20.002 -0.3740  0.2283 -0.2691
54559DOD     C2 7497   8.937  14.220  20.241 -0.1085 -0.2726 -0.0625
54559DOD     C3 7498   8.665  13.821  20.156 -0.0443  0.1639  0.0601
54560DOD     C1 7499  15.890  10.526   1.222  0.0791 -0.2248 -0.0117
54560DOD     C2 7500  15.621  10.104   1.122  0.0265  0.1314 -0.2340
54560DOD     C3 7501  15.431   9.654   1.221 -0.0263 -0.4799 -0.0430
54561DOD     C1 7502  22.141  10.363  26.189 -0.0093  0.4141 -0.1741
54561DOD     C2 7503  22.012  10.031  26.482  0.0304 -0.0662 -0.0385
54561DOD     C3 7504  21.784   9.691  26.601  0.1170  0.0611 -0.2675
54562DOD     C1 7505  27.988   2.661  16.980  0.1447 -0.0752 -0.1334
54562DOD     C2 7506  28.464   2.776  16.825 -0.1407  0.0177 -0.2546
54562DOD     C3 7507  28.844   2.690  17.025  0.3610 -0.4036  0.4589
54563DOD     C1 7508  26.215  22.259   1.204 -0.2782 -0.2145 -0.0619
54563DOD     C2 7509  26.135  22.603   0.906 -0.0716  0.3299 -0.2198
54563DOD     C3 7510  26.471  22.802   0.717 -0.1615 -0.2525  0.0272
54564DOD     C1 7511  10.441   0.737   2.841  0.1496  0.0414  0.0778
54564DOD     C2 7512  10.625   0.317   3.009  0.3943 -0.1938  0.2685
54564DOD     C3 7513  10.920   0.056   3.132  0.1455  0.1066 -0.0851
54565DOD     C1 7514  20.719  12.583  11.985  0.2268 -0.0038  0.0946
54565DOD     C2 7515  20.465  12.322  12.210  0.1130  0.0704 -0.2714
54565DOD     C3 7516  20.203  12.036  12.480  0.1171  0.0198  0.0084
54566DOD     C1 7517  19.693   9.560   1.029  0.0756 -0.0415  0.0453
54566DOD     C2 7518  20.106   9.610   1.197 -0.3210  0.0756  0.1229
54566DOD     C3 7519  20.514   9.713   1.416 -0.0846  0.1540  0.3314
54567DOD     C1 7520  26.141  30.041   8.847  0.0514  0.3077  0.1607
54567DOD     C2 7521  25.752  30.040   8.813 -0.1367 -0.2408  0.0240
54567DOD     C3 7522  25.343  30.288   8.873  0.0924  0.0251 -0.0014
54568DOD     C1 7523  21.541   0.281   9.113  0.2694 -0.2583 -0.0544
54568DOD     C2 7524  21.819   0.437   9.408 -0.1562  0.1199  0.0343
54568DOD     C3 7525  22.007   0.424   9.842 -0.2570  0.3464  0.0541
54569DOD     C1 7526  27.043  10.583  10.927 -0.0657 -0.1872 -0.2631
54569DOD     C2 7527  26.909  10.173  11.058 -0.1512 -0.0240  0.0919
54569DOD     C3 7528  26.736   9.738  11.019 -0.4604 -0.1295  0.2456
54570DOD     C1 7529   8.071  28.912  14.683  0.1122 -0.0283 -0.0097
54570DOD     C2 7530   8.315  28.896  15.095 -0.1975  0.2836 -0.0177
54570DOD     C3 7531   8.720  28.946  15.277  0.0850  0.1793 -0.0740
54571DOD     C1 7532  24.801  20.196   6.804  0.2607  0.0579  0.0411
54571DOD     C2 7533  24.488  20.329   6.464  0.1922  0.1386  0.0127
54571DOD     C3 7534  24.473  20.419   6.037 -0.0354 -0.1545  0.2016
54572DOD     C1 7535  28.105  25.728   5.359  0.0417  0.4341  0.1982
54572DOD     C2 7536  27.802  25.942   5.563  0.2251 -0.1828 -0.0770
54572DOD     C3 7537  27.559  26.099   5.861  0.0102  0.4745 -0.1226
54573DOD     C1 7538  30.150  25.409  21.900  0.0606  0.1350 -0.0273
54573DOD     C2 7539  29.710  25.414  22.093 -0.0242 -0.0343  0.0885
54573DOD     C3 7540  29.243  25.383  22.144 -0.1240  0.1159 -0.0417
54574DOD     C1 7541   3.131  29.797  24.024 -0.1058 -0.2285 -0.0559
54574DOD     C2 7542   2.850  30.218  24.152  0.4295 -0.3129  0.1274
54574DOD     C3 7543   2.830   0.331  24.423  0.1775  0.0453 -0.0497
54575DOD     C1 7544  12.602  13.810  28.597 -0.0045 -0.2715  0.1591
54575DOD     C2 7545  12.520  13.601  29.003  0.3873 -0.4587 -0.1640
54575DOD     C3 7546  12.461  13.602  29.457  0.2587 -0.2437 -0.1917
54576DOD     C1 7547   4.765   9.297   6.343  0.0501 -0.1941 -0.3570
54576DOD     C2 7548   4.653   9.304   6.767  0.1480 -0.0028 -0.0562
54576DOD     C3 7549   4.869   9.077   7.076 -0.0685 -0.2505  0.3352
54577DOD     C1 7550  12.104  23.118  25.103  0.0455  0.2960  0.0601
54577DOD     C2 7551  12.381  22.859  24.798 -0.1257 -0.0155 -0.1342
54577DOD     C3 7552  12.390  22.415  24.574 -0.2090 -0.2687  0.0729
54578DOD     C1 7553   4.086  21.454  23.468  0.0836 -0.0343 -0.0314
54578DOD     C2 7554   3.701  21.412  23.228  0.1225  0.0258  0.1591
54578DOD     C3 7555   3.202  21.614  23.223  0.0546 -0.0071  0.1381
54579DOD     C1 7556   7.732  14.052  13.713  0.1247  0.1724 -0.0322
54579DOD     C2 7557   7.421  14.267  13.925  0.2177  0.1577 -0.1035
54579DOD     C3 7558   7.198  14.493  14.224 -0.2593  0.0703  0.0220
54580DOD     C1 7559  26.012  16.109  24.599  0.0829  0.1277 -0.1140
54580DOD     C2 7560  25.810  16.349  24.896 -0.1153 -0.0270  0.0858
54580DOD     C3 7561  25.640  16.685  25.107 -0.0683  0.2891 -0.2467
54581DOD     C1 7562  22.219   2.493   2.667 -0.1793 -0.3536 -0.1997
54581DOD     C2 7563  22.643   2.642   2.551 -0.0567  0.1810  0.1685
54581DOD     C3 7564  22.965   2.950   2.661 -0.2478  0.2525  0.0707
54582DOD     C1 7565   6.750  13.854  27.779  0.0139  0.3118 -0.0574
54582DOD     C2 7566   6.610  13.481  28.069 -0.0842 -0.1054 -0.1472
54582DOD     C3 7567   6.433  13.075  28.120  0.1308 -0.3463  0.0197
54583DOD     C1 7568  12.522  26.997  24.623  0.0408  0.2769 -0.1047
54583DOD     C2 7569  12.631  26.668  24.316  0.1248  0.1939 -0.0500
54583DOD     C3 7570  13.033  26.458  24.233  0.0718  0.1060  0.2219
54584DOD     C1 7571  12.337  13.052  27.937 -0.0692  0.0152 -0.1127
54584DOD     C2 7572  12.606  12.626  28.020  0.1498 -0.1027 -0.0157
54584DOD     C3 7573  12.959  12.286  28.107 -0.1850  0.1175 -0.0712
54585DOD     C1 7574   6.456   3.215  14.219  0.0070 -0.1018  0.0196
54585DOD     C2 7575   6.530   3.067  13.767  0.3979  0.0433 -0.2111
54585DOD     C3 7576   6.534   2.627  13.662  0.2771 -0.0380  0.1010
54586DOD     C1 7577  17.804   1.450   0.737 -0.1640  0.0642  0.0999
54586DOD     C2 7578  17.579   1.557   0.386  0.2100 -0.2057  0.5534
54586DOD     C3 7579  17.239   1.300   0.194  0.0708 -0.1619 -0.0451
54587DOD     C1 7580   1.043  11.791   0.787  0.2196 -0.1403 -0.4209
54587DOD     C2 7581   1.138  11.325   0.840 -0.0862 -0.0786 -0.2052
54587DOD     C3 7582   1.170  10.900   0.969  0.1164  0.1754  0.2424
54588DOD     C1 7583   3.116  21.577   5.849  0.1802 -0.1961 -0.0940
54588DOD     C2 7584   3.102  21.462   6.291 -0.2467  0.0152  0.1970
54588DOD     C3 7585   3.108  21.283   6.761 -0.2652 -0.1961  0.1794
54589DOD     C1 7586  29.334  11.450   3.135 -0.0253 -0.1056  0.1900
54589DOD     C2 7587  29.036  11.613   3.457  0.1588 -0.5013  0.1372
54589DOD     C3 7588  28.575  11.781   3.545 -0.1810  0.1170  0.0426
54590DOD     C1 7589  24.800  26.571  17.944  0.2994  0.2008  0.0598
54590DOD     C2 7590  24.579  26.940  18.022  0.0299 -0.2926  0.4947
54590DOD     C3 7591  24.674  27.434  18.129 -0.4158 -0.0882  0.0520
54591DOD     C1 7592  21.311  20.025   9.085  0.3892  0.0948  0.0721
54591DOD     C2 7593  21.652  19.645   9.151  0.0252 -0.4055  0.0172
54591DOD     C3 7594  21.780  19.248   8.952  0.0509  0.0391  0.2524
54592DOD     C1 7595  25.165  23.498   2.965  0.0100 -0.0504  0.2745
54592DOD     C2 7596  25.139  23.053   2.902 -0.0170 -0.0579 -0.3757
54592DOD     C3 7597  24.762  22.783   2.926  0.0528 -0.3568 -0.3403
54593DOD     C1 7598  14.486  10.831  12.829  0.1526 -0.3462 -0.0877
54593DOD     C2 7599  14.859  10.866  12.698 -0.1016 -0.2160 -0.2337
54593DOD     C3 7600  15.230  11.126  12.676  0.1420  0.0274  0.1639
54594DOD     C1 7601   8.217  22.080  24.977 -0.1876 -0.1263 -0.2222
54594DOD     C2 7602   8.211  22.337  25.364 -0.0169 -0.2842  0.1573
54594DOD     C3 7603   8.116  22.756  25.515  0.3270 -0.1913  0.1547
54595DOD     C1 7604  12.385   3.984   4.689  0.1595 -0.1240  0.0531
54595DOD     C2 7605  12.709   4.210   4.412 -0.3794  0.1965 -0.1467
54595DOD     C3 7606  12.786   4.502   4.116  0.0078  0.1740 -0.1572
54596DOD     C1 7607  27.276   9.504   0.371 -0.2361 -0.2429  0.1579
54596DOD     C2 7608  27.269   9.109   0.552  0.1655  0.1190  0.1785
54596DOD     C3 7609  27.263   8.885   0.993 -0.1824 -0.2793  0.1068
54597DOD     C1 7610  18.826  21.807  27.703 -0.2260 -0.2475 -0.0018
54597DOD     C2 7611  18.370  21.844  27.781  0.2006  0.2557 -0.1361
54597DOD     C3 7612  17.980  21.934  28.030  0.0694  0.0025 -0.0527
54598DOD     C1 7613   1.092  10.878  14.698  0.0617  0.0632 -0.2388
54598DOD     C2 7614   1.301  11.299  14.568 -0.0518  0.0495 -0.0190
54598DOD     C3 7615   1.567  11.686  14.447 -0.2412  0.2297  0.0963
54599DOD     C1 7616  19.375  18.681   6.590 -0.2671 -0.2952  0.0861
54599DOD     C2 7617  19.827  18.652   6.615 -0.0091 -0.1639  0.0085
54599DOD     C3 7618  20.153  18.483   6.889  0.0626  0.0452 -0.0647
54600DOD     C1 7619  15.044   1.467   6.810 -0.0095  0.0489 -0.1854
54600DOD     C2 7620  15.306   1.403   7.148  0.0337  0.1477 -0.0785
54600DOD     C3 7621  15.701   1.120   7.188  0.5945 -0.0085 -0.0852
54601DOD     C1 7622  12.229   2.798  29.534  0.0670 -0.0826  0.1079
54601DOD     C2 7623  11.835   2.819  29.276  0.0599 -0.0345  0.2338
54601DOD     C3 7624  11.600   2.455  29.041 -0.2940 -0.2900 -0.2973
54602DOD     C1 7625   0.544   4.429  23.346 -0.1163  0.0660  0.4150
54602DOD     C2 7626   0.747   4.059  23.513 -0.2006  0.0166  0.2606
54602DOD     C3 7627   1.136   4.017  23.718 -0.3307 -0.0022  0.4212
54603DOD     C1 7628  16.599   7.818  28.129 -0.2961  0.1158  0.0316
54603DOD     C2 7629  16.701   8.074  27.809 -0.0960  0.0713 -0.0220
54603DOD     C3 7630  16.897   8.340  27.505  0.0844  0.0903 -0.0916
54604DOD     C1 7631  10.379   4.560  13.560 -0.0132  0.3916 -0.4659
54604DOD     C2 7632  10.781   4.577  13.249 -0.1210  0.1269  0.1739
54604DOD     C3 7633  11.096   4.655  12.968 -0.2644 -0.3874 -0.1705
54605DOD     C1 7634  12.576  20.121   3.620 -0.3389  0.0503 -0.1686
54605DOD     C2 7635  12.896  20.492   3.506 -0.1934  0.0009  0.0306
54605DOD     C3 7636  13.136  20.752   3.771 -0.0283 -0.0574  0.2600
54606DOD     C1 7637  29.820   9.738  21.969 -0.1623 -0.2503  0.1262
54606DOD     C2 7638  29.792   9.370  21.623  0.2168  0.0425 -0.4085
54606DOD     C3 7639  29.881   9.038  21.348  0.2296 -0.1449 -0.3061
54607DOD     C1 7640  12.107  21.416  21.445  0.1373  0.1233 -0.1993
54607DOD     C2 7641  12.218  21.851  21.299 -0.2401  0.1659  0.0503
54607DOD     C3 7642  12.167  22.199  20.996 -0.0882  0.1063 -0.0714
54608DOD     C1 7643  28.305  23.127   0.288 -0.1424  0.1471  0.0603
54608DOD     C2 7644  28.098  23.135   0.695 -0.0123  0.1383 -0.0752
54608DOD     C3 7645  28.135  23.411   1.109 -0.1248 -0.1696 -0.0413
54609DOD     C1 7646  24.466  25.610  13.780 -0.2020 -0.2319 -0.0643
54609DOD     C2 7647  24.553  25.511  13.340 -0.1373 -0.2116  0.0486
54609DOD     C3 7648  24.372  25.485  12.881 -0.0069  0.2395  0.1781
54610DOD     C1 7649   7.220  24.653  18.967 -0.4359 -0.2736  0.1896
54610DOD     C2 7650   6.967  24.414  18.648  0.3240  0.2124  0.2988
54610DOD     C3 7651   6.642  24.247  18.337  0.1069  0.1214  0.1656
54611DOD     C1 7652   9.286   8.678   2.244  0.3236 -0.3149 -0.3510
54611DOD     C2 7653   9.248   8.189   2.285 -0.0100  0.3473  0.0344
54611DOD     C3 7654   9.278   7.750   2.288  0.0478  0.1685 -0.3183
54612DOD     C1 7655  24.291  30.193   8.174 -0.2758 -0.0511  0.2093
54612DOD     C2 7656  23.975   0.035   7.980  0.0065  0.0693  0.0993
54612DOD     C3 7657  23.815  30.324   7.545 -0.0055  0.0396  0.3556
54613DOD     C1 7658  22.396  24.009  13.713  0.0837  0.2066  0.1632
54613DOD     C2 7659  22.120  23.871  13.336 -0.2051  0.0490 -0.1571
54613DOD     C3 7660  21.971  23.803  12.946  0.0671 -0.2439 -0.1009
54614DOD     C1 7661  28.109  16.391   0.695  0.1009 -0.0480  0.0301
54614DOD     C2 7662  27.994  15.968   0.670 -0.2244 -0.0081  0.0167
54614DOD     C3 7663  27.921  15.644   1.013  0.0039 -0.0900  0.1787
54615DOD     C1 7664  25.909  28.978  12.480  0.0029  0.2007  0.0956
54615DOD     C2 7665  25.762  29.274  12.847 -0.1675  0.0851  0.0193
54615DOD     C3 7666  25.604  29.598  13.122  0.0244  0.1037  0.1150
54616DOD     C1 7667  10.581  28.189  16.851 -0.0814 -0.3323 -0.0200
54616DOD     C2 7668  10.227  28.454  16.795 -0.2063 -0.1709  0.0787
54616DOD     C3 7669  10.038  28.734  16.464  0.1633 -0.1199 -0.0374
54617DOD     C1 7670  23.006  16.241  29.113  0.0628  0.1859  0.0335
54617DOD     C2 7671  23.204  16.459  29.411 -0.2769  0.2213 -0.0303
54617DOD     C3 7672  23.686  16.590  29.411  0.3025 -0.0682  0.0611
54618DOD     C1 7673   3.141  14.797  26.544 -0.1995 -0.0698 -0.1242
54618DOD     C2 7674   3.559  14.814  26.786 -0.2122 -0.1119  0.1250
54618DOD     C3 7675   4.029  14.824  26.888 -0.0468  0.0445 -0.0671
54619DOD     C1 7676   2.797  22.964  27.607 -0.1117 -0.3732 -0.0210
54619DOD     C2 7677   3.234  22.992  27.825  0.1748 -0.0298  0.3261
54619DOD     C3 7678   3.673  23.122  27.941  0.0134  0.0393 -0.0622
54620DOD     C1 7679  29.294  25.658   5.755  0.2003  0.0023  0.1016
54620DOD     C2 7680  29.650  25.347   5.780  0.3923  0.0416 -0.1343
54620DOD     C3 7681  30.148  25.230   5.809 -0.2031  0.0717 -0.2810
54621DOD     C1 7682   4.314  19.587  13.766 -0.2502 -0.0539  0.2816
54621DOD     C2 7683   4.073  19.401  14.190 -0.1011 -0.1962 -0.2965
54621DOD     C3 7684   3.769  19.687  14.454  0.1986 -0.3451  0.1141
54622DOD     C1 7685  14.326  18.943  16.307 -0.1536 -0.1579  0.1471
54622DOD     C2 7686  14.188  19.022  16.766  0.3148 -0.0424  0.0500
54622DOD     C3 7687  13.779  18.937  17.013  0.0838  0.0236 -0.1326
54623DOD     C1 7688  28.380   9.020   7.969  0.3160 -0.0768  0.0967
54623DOD     C2 7689  28.081   8.891   8.349  0.2066 -0.0827  0.1471
54623DOD     C3 7690  27.949   8.975   8.797  0.0045 -0.1307  0.1415
54624DOD     C1 7691  15.425   7.207   0.613  0.0066 -0.0664 -0.1389
54624DOD     C2 7692  14.996   7.069   0.648  0.2690 -0.1760  0.1801
54624DOD     C3 7693  14.522   6.907   0.664  0.1828 -0.2256  0.2791
54625DOD     C1 7694  28.538   0.720  29.033  0.3923  0.0178  0.0827
54625DOD     C2 7695  28.609   0.403  28.653 -0.0183  0.0437 -0.0381
54625DOD     C3 7696  28.946   0.219  28.428  0.2360 -0.0101 -0.1321
54626DOD     C1 7697   6.448  13.748   0.622  0.1940 -0.0091  0.1826
54626DOD     C2 7698   6.090  13.438   0.695 -0.1658 -0.2662  0.0606
54626DOD     C3 7699   5.797  13.039   0.682  0.1233 -0.0893 -0.1269
54627DOD     C1 7700  30.140  13.835  27.028 -0.1050 -0.2624 -0.0306
54627DOD     C2 7701  30.273  14.267  26.952  0.2789  0.0884  0.1195
54627DOD     C3 7702   0.255  14.629  26.991  0.0481 -0.1497  0.1424
54628DOD     C1 7703   4.820  24.649  12.828  0.1354 -0.0371 -0.1052
54628DOD     C2 7704   4.813  24.858  13.225 -0.1785  0.1028 -0.1144
54628DOD     C3 7705   5.137  25.206  13.296 -0.0771  0.1164 -0.0398
54629DOD     C1 7706  24.652  25.686  25.629  0.0920 -0.1948  0.3394
54629DOD     C2 7707  24.545  25.955  25.938  0.2658  0.1963  0.1880
54629DOD     C3 7708  24.658  26.382  26.047 -0.1402  0.3582 -0.1759
54630DOD     C1 7709  10.925  12.916  18.891  0.0873  0.1455 -0.0367
54630DOD     C2 7710  10.788  13.271  19.136 -0.1571  0.2625  0.0145
54630DOD     C3 7711  10.523  13.353  19.497 -0.1530  0.2318  0.0238
54631DOD     C1 7712  14.673  18.644   5.742 -0.1643 -0.0163  0.0723
54631DOD     C2 7713  14.788  18.553   6.178 -0.0148 -0.3309 -0.1535
54631DOD     C3 7714  14.820  18.490   6.673  0.3958 -0.3404 -0.2216
54632DOD     C1 7715   1.014   5.483  15.478  0.0661  0.0377 -0.0657
54632DOD     C2 7716   1.151   5.255  15.830  0.2008  0.3496  0.2768
54632DOD     C3 7717   1.274   5.169  16.242  0.0866 -0.0834 -0.3244
54633DOD     C1 7718   8.979  20.975   7.306  0.2292  0.1853 -0.0592
54633DOD     C2 7719   8.765  20.708   7.018 -0.0779  0.0403 -0.0443
54633DOD     C3 7720   8.459  20.327   6.924  0.2590 -0.3626  0.0523
54634DOD     C1 7721  12.204   7.396  15.494 -0.2068  0.0638  0.0982
54634DOD     C2 7722  12.294   7.836  15.558  0.0769 -0.0204 -0.0728
54634DOD     C3 7723  11.870   8.061  15.462 -0.1365  0.1041  0.0709
54635DOD     C1 7724  25.108  28.273  19.011  0.0481 -0.0523 -0.2509
54635DOD     C2 7725  25.031  28.475  19.472  0.1586  0.5008 -0.0101
54635DOD     C3 7726  25.058  28.897  19.707  0.1526 -0.2287  0.0243
54636DOD     C1 7727  16.316  25.798  23.218 -0.1425  0.1801  0.1363
54636DOD     C2 7728  16.428  25.629  23.672 -0.0891  0.1869 -0.0206
54636DOD     C3 7729  16.575  25.358  24.084  0.2904 -0.2287  0.0468
54637DOD     C1 7730  10.222  17.668   3.769 -0.1995 -0.1800  0.3494
54637DOD     C2 7731  10.522  17.949   3.523 -0.0254 -0.0856  0.0328
54637DOD     C3 7732  10.948  18.079   3.613  0.2431 -0.0483  0.0647
54638DOD     C1 7733  17.944  29.994  22.839  0.1417 -0.0499 -0.1054
54638DOD     C2 7734  18.380  30.035  22.648  0.0816 -0.0230 -0.3382
54638DOD     C3 7735  18.655  29.775  22.357 -0.0101  0.1345  0.0802
54639DOD     C1 7736  15.492  16.979  29.507  0.1254  0.1359  0.0303
54639DOD     C2 7737  15.561  16.631  29.218 -0.2111 -0.0933 -0.3539
54639DOD     C3 7738  15.480  16.185  28.992  0.1354  0.3101 -0.0439
54640DOD     C1 7739  16.538  25.239  22.030  0.0457  0.0194  0.2699
54640DOD     C2 7740  16.584  25.212  22.542  0.1540  0.0170 -0.1686
54640DOD     C3 7741  16.763  25.498  22.827  0.1832  0.2552 -0.0994
54641DOD     C1 7742  13.415  14.150  28.656  0.2784  0.2886  0.0651
54641DOD     C2 7743  13.148  13.788  28.840  0.1674  0.3833 -0.2849
54641DOD     C3 7744  12.993  13.595  29.242 -0.0840  0.0450  0.3173
54642DOD     C1 7745  13.362  22.475  16.058  0.2497 -0.1419 -0.0883
54642DOD     C2 7746  13.405  22.710  16.460  0.0379  0.0617  0.0068
54642DOD     C3 7747  13.181  22.931  16.818 -0.1780  0.1119 -0.0155
54643DOD     C1 7748   3.743  14.185  15.303  0.2019 -0.1389 -0.2160
54643DOD     C2 7749   3.794  14.545  15.023 -0.1782  0.0777  0.0414
54643DOD     C3 7750   3.800  14.936  14.842  0.1451  0.3376 -0.0842
54644DOD     C1 7751  15.189   8.872  13.368  0.0629  0.1578 -0.4246
54644DOD     C2 7752  15.614   8.781  13.288 -0.0013  0.0709 -0.2233
54644DOD     C3 7753  15.706   8.604  12.869 -0.1952 -0.1101 -0.0731
54645DOD     C1 7754   9.384  12.454   7.532  0.3991 -0.0384 -0.0953
54645DOD     C2 7755   9.019  12.588   7.359  0.1953 -0.0063 -0.1168
54645DOD     C3 7756   8.549  12.682   7.355  0.1741 -0.0504  0.3111
54646DOD     C1 7757  30.112  16.538  18.058 -0.0428 -0.0460 -0.1667
54646DOD     C2 7758   0.150  16.515  18.325 -0.0540  0.0295  0.2183
54646DOD     C3 7759   0.579  16.691  18.570 -0.0096  0.2535  0.0812
54647DOD     C1 7760  20.237  29.711  23.388 -0.0234  0.2441 -0.2453
54647DOD     C2 7761  19.929  29.567  23.626  0.0177 -0.0323  0.1613
54647DOD     C3 7762  19.796  29.677  24.086  0.2074 -0.0298 -0.0993
54648DOD     C1 7763  23.196   2.089  17.741  0.3629 -0.1940 -0.1114
54648DOD     C2 7764  23.452   1.806  17.646 -0.0609 -0.0447 -0.0121
54648DOD     C3 7765  23.854   1.628  17.503  0.0090  0.0796  0.1226
54649DOD     C1 7766  16.115  29.548   0.960  0.0909 -0.2095  0.2723
54649DOD     C2 7767  15.643  29.525   0.844 -0.0787  0.1181  0.1956
54649DOD     C3 7768  15.313  29.728   0.593  0.0966 -0.2425 -0.1701
54650DOD     C1 7769   7.208   9.820  17.462 -0.2485 -0.1092 -0.1250
54650DOD     C2 7770   6.834   9.996  17.448  0.1866  0.1477 -0.0054
54650DOD     C3 7771   6.409  10.019  17.700 -0.3116 -0.3087  0.4614
54651DOD     C1 7772  15.727  11.257  12.557 -0.0727  0.0652 -0.2069
54651DOD     C2 7773  15.537  11.671  12.737 -0.0222 -0.1998  0.2228
54651DOD     C3 7774  15.134  11.831  12.867 -0.0248 -0.0860  0.2155
54652DOD     C1 7775   7.973  27.414   1.148 -0.0023  0.0124 -0.0081
54652DOD     C2 7776   7.841  26.969   1.037 -0.2068  0.1970  0.1702
54652DOD     C3 7777   7.675  26.548   1.074  0.1172 -0.2942 -0.1028
54653DOD     C1 7778   3.346  18.911   0.555  0.3568  0.3389 -0.2256
54653DOD     C2 7779   3.577  18.507   0.523  0.1757 -0.2037  0.0212
54653DOD     C3 7780   3.988  18.320   0.547 -0.1796  0.2140  0.0524
54654DOD     C1 7781   7.029   7.868  16.107  0.0289  0.0479  0.2100
54654DOD     C2 7782   6.579   7.907  16.052 -0.0771 -0.0085 -0.0988
54654DOD     C3 7783   6.152   7.757  16.175  0.3095 -0.1875 -0.1993
54655DOD     C1 7784   6.143  13.129  22.563  0.0932  0.0897  0.3234
54655DOD     C2 7785   6.060  13.020  22.086  0.0915  0.3349 -0.2765
54655DOD     C3 7786   5.914  12.621  21.914 -0.1345  0.2677  0.0269
54656DOD     C1 7787  20.167  20.273  11.235 -0.4322  0.2107  0.2700
54656DOD     C2 7788  20.469  20.390  10.869  0.1005 -0.0761  0.2015
54656DOD     C3 7789  20.670  20.777  10.636  0.1257 -0.0781  0.1387
54657DOD     C1 7790   1.756  28.918  29.240  0.4204  0.0041  0.0286
54657DOD     C2 7791   1.705  29.333  29.356  0.1550 -0.2315 -0.2829
54657DOD     C3 7792   1.362  29.673  29.428  0.0544  0.0004  0.0828
54658DOD     C1 7793  11.265  22.547  23.343 -0.1317 -0.3082  0.0212
54658DOD     C2 7794  11.380  22.929  23.112  0.1246  0.0213 -0.3728
54658DOD     C3 7795  11.389  23.379  22.997  0.1035 -0.3050  0.1311
54659DOD     C1 7796  16.198   8.335   7.618 -0.1379  0.0029 -0.0208
54659DOD     C2 7797  15.757   8.402   7.708 -0.0704  0.1757 -0.0774
54659DOD     C3 7798  15.348   8.666   7.662  0.0509  0.1549 -0.0386
54660DOD     C1 7799  17.210  29.415   9.576  0.1795  0.2454  0.0869
54660DOD     C2 7800  16.829  29.205   9.397 -0.3278  0.1901 -0.0313
54660DOD     C3 7801  16.582  29.110   9.078  0.2556  0.6177  0.0850
54661DOD     C1 7802  25.097   9.001  24.583  0.0800  0.5288  0.1688
54661DOD     C2 7803  25.550   9.009  24.407  0.1681  0.2380  0.0030
54661DOD     C3 7804  26.018   9.002  24.356 -0.0285 -0.3461 -0.1948
54662DOD     C1 7805   2.594  16.223  13.270 -0.0011 -0.0911  0.0841
54662DOD     C2 7806   2.848  16.314  12.878 -0.1622 -0.1306 -0.1038
54662DOD     C3 7807   2.972  16.221  12.426 -0.3193  0.3204 -0.2412
54663DOD     C1 7808   0.980   7.203   1.454 -0.0821  0.1369 -0.1278
54663DOD     C2 7809   0.961   6.724   1.617 -0.1223  0.3292 -0.0432
54663DOD     C3 7810   1.155   6.357   1.403 -0.1447  0.0599 -0.0269
54664DOD     C1 7811   1.039   2.374   8.783  0.0069 -0.1662 -0.1829
54664DOD     C2 7812   0.690   2.495   9.120 -0.0906 -0.1872 -0.2724
54664DOD     C3 7813   0.418   2.424   9.561 -0.0079  0.0412  0.0263
54665DOD     C1 7814  24.504  27.239   9.329 -0.1699  0.1358 -0.1102
54665DOD     C2 7815  24.839  26.943   9.412  0.0466 -0.1925  0.2703
54665DOD     C3 7816  25.267  26.761   9.439  0.0080  0.1240  0.1735
54666DOD     C1 7817  25.895  10.874  14.511 -0.0312 -0.0925 -0.1719
54666DOD     C2 7818  25.496  11.052  14.693 -0.1503 -0.0186 -0.3437
54666DOD     C3 7819  25.215  11.415  14.846  0.0897  0.1541  0.0495
54667DOD     C1 7820  29.480  24.944  13.704 -0.0218 -0.2801  0.1560
54667DOD     C2 7821  29.343  25.246  14.040  0.0228 -0.2855  0.0088
54667DOD     C3 7822  29.533  25.373  14.428  0.0812  0.0130 -0.0780
54668DOD     C1 7823  19.226  24.759   3.478 -0.1288 -0.4625 -0.0550
54668DOD     C2 7824  18.896  25.079   3.519  0.2982 -0.2563  0.0439
54668DOD     C3 7825  18.752  25.504   3.383  0.0764 -0.1109  0.0333
54669DOD     C1 7826  18.901   2.142  21.439  0.1025 -0.1450 -0.1405
54669DOD     C2 7827  18.884   2.207  20.980 -0.0435  0.2447  0.3628
54669DOD     C3 7828  19.068   2.089  20.558 -0.0832  0.1385 -0.3225
54670DOD     C1 7829  24.665   7.852   0.772  0.2687 -0.0316 -0.0823
54670DOD     C2 7830  25.109   7.891   0.630  0.0057  0.0614 -0.0218
54670DOD     C3 7831  25.486   7.985   0.370 -0.0266  0.2437 -0.2334
54671DOD     C1 7832  16.245  20.330   5.719 -0.0758 -0.2167 -0.2665
54671DOD     C2 7833  16.202  19.854   5.725 -0.1097 -0.0361 -0.1022
54671DOD     C3 7834  16.008  19.416   5.803  0.0001  0.1352 -0.2123
54672DOD     C1 7835   6.353  22.501  25.008 -0.2078  0.1583 -0.2878
54672DOD     C2 7836   6.045  22.572  24.669  0.0535  0.0245 -0.0358
54672DOD     C3 7837   5.934  22.307  24.267  0.1167  0.1520 -0.1281
54673DOD     C1 7838  16.989   7.646   5.540 -0.1930  0.2538 -0.1999
54673DOD     C2 7839  16.837   7.942   5.265  0.0783  0.3335 -0.1063
54673DOD     C3 7840  16.543   7.896   4.873  0.1857  0.2320  0.2573
54674DOD     C1 7841   1.042   4.847   8.834  0.0636  0.1823 -0.0403
54674DOD     C2 7842   1.299   4.471   8.753  0.1845 -0.2929 -0.2955
54674DOD     C3 7843   1.261   4.081   9.003  0.3086  0.1294  0.2674
54675DOD     C1 7844   4.507  11.936   1.996  0.0751 -0.0307 -0.3108
54675DOD     C2 7845   4.142  12.064   1.763  0.1104  0.1241 -0.2194
54675DOD     C3 7846   3.697  12.067   1.950  0.1526  0.1912 -0.1785
54676DOD     C1 7847  27.830  20.849   6.722 -0.2432  0.1009 -0.0580
54676DOD     C2 7848  27.595  21.152   6.487  0.0792 -0.0444  0.1496
54676DOD     C3 7849  27.702  21.175   6.025  0.1632 -0.0815 -0.2090
54677DOD     C1 7850  13.143  13.026  29.213  0.0525 -0.0435  0.1649
54677DOD     C2 7851  13.416  13.381  29.100 -0.0728  0.1089  0.1712
54677DOD     C3 7852  13.646  13.754  28.955  0.2015  0.0986 -0.1049
54678DOD     C1 7853  20.581  20.192  29.947 -0.0077 -0.2264  0.0016
54678DOD     C2 7854  20.728  20.543  30.218  0.3664  0.2581 -0.4164
54678DOD     C3 7855  21.010  20.879   0.054 -0.2725  0.0406 -0.0065
54679DOD     C1 7856   3.743  25.707  27.416 -0.0857 -0.0723 -0.1438
54679DOD     C2 7857   4.014  25.673  27.051 -0.0546 -0.1437 -0.1205
54679DOD     C3 7858   4.019  25.955  26.675 -0.0570 -0.0096 -0.1702
54680DOD     C1 7859   3.400  20.172  25.375 -0.1203  0.0550  0.0642
54680DOD     C2 7860   3.712  20.487  25.182  0.1576  0.2268  0.3503
54680DOD     C3 7861   4.024  20.757  24.895 -0.0631  0.1520  0.2254
54681DOD     C1 7862  23.631  18.398   9.847  0.3858  0.2630 -0.0236
54681DOD     C2 7863  24.014  18.546  10.010  0.2317 -0.1002  0.0386
54681DOD     C3 7864  24.167  18.528  10.440 -0.1475 -0.0454 -0.2663
54682DOD     C1 7865  13.466  11.292  29.877  0.0312 -0.1137 -0.0748
54682DOD     C2 7866  13.334  11.160  29.444 -0.2228  0.1336  0.1215
54682DOD     C3 7867  13.538  10.987  29.044  0.1136  0.1354 -0.0707
54683DOD     C1 7868   1.195   7.279  10.811 -0.1533 -0.0565  0.1852
54683DOD     C2 7869   1.071   7.725  10.910  0.2874 -0.0993 -0.0398
54683DOD     C3 7870   0.940   8.170  10.857 -0.2736  0.1897  0.2351
54684DOD     C1 7871   5.375  19.012   6.844  0.2161  0.0913  0.1524
54684DOD     C2 7872   5.456  19.449   6.984 -0.2046  0.1110 -0.2349
54684DOD     C3 7873   5.259  19.690   7.398  0.0484  0.2091 -0.2797
54685DOD     C1 7874  22.544   2.041   7.965  0.1004  0.0645 -0.1572
54685DOD     C2 7875  22.249   2.413   7.938  0.0291  0.1297  0.0292
54685DOD     C3 7876  22.147   2.798   7.704  0.0670  0.0568  0.1510
54686DOD     C1 7877   2.852  23.495  25.128 -0.2340 -0.3671  0.2183
54686DOD     C2 7878   2.853  23.994  25.218 -0.1090  0.0184  0.0845
54686DOD     C3 7879   2.642  24.345  25.006  0.1919  0.3163 -0.1613
54687DOD     C1 7880   7.999  28.041  13.898  0.0798  0.2824  0.0610
54687DOD     C2 7881   8.364  27.955  13.607 -0.1860  0.0410  0.1394
54687DOD     C3 7882   8.665  27.952  13.246  0.0104 -0.1186  0.2018
54688DOD     C1 7883  22.458   5.732  14.792 -0.1055 -0.2428  0.0051
54688DOD     C2 7884  22.235   5.900  15.181  0.2959 -0.4151  0.0471
54688DOD     C3 7885  21.788   5.920  15.408  0.0902  0.3275 -0.0323
54689DOD     C1 7886   8.472  27.384  29.690  0.1451 -0.0264  0.0478
54689DOD     C2 7887   8.768  27.285  30.062 -0.1324 -0.0659  0.3382
54689DOD     C3 7888   8.896  27.168   0.218 -0.1630  0.0768 -0.1534
54690DOD     C1 7889  28.229  19.316  17.684 -0.3178  0.2987  0.0207
54690DOD     C2 7890  28.149  19.696  17.945  0.0072  0.0879  0.0635
54690DOD     C3 7891  28.142  20.110  18.036 -0.0166  0.0632 -0.2855
54691DOD     C1 7892  20.513  13.376   3.391 -0.0949 -0.0202  0.2777
54691DOD     C2 7893  20.053  13.562   3.362  0.1737 -0.0233  0.0278
54691DOD     C3 7894  19.600  13.665   3.462 -0.1319 -0.0331  0.4274
54692DOD     C1 7895   0.239  13.680  17.017  0.0757  0.0128  0.0317
54692DOD     C2 7896   0.486  13.673  17.374  0.2723 -0.0414  0.2589
54692DOD     C3 7897   0.762  13.808  17.773  0.0286  0.0277 -0.2574
54693DOD     C1 7898   2.726  10.644   0.452  0.2874  0.1149 -0.0583
54693DOD     C2 7899   2.692  10.612  -0.001 -0.4168  0.4377  0.0918
54693DOD     C3 7900   2.350  10.482  30.088  0.1800  0.1191 -0.0309
54694DOD     C1 7901  20.257  12.828  12.140 -0.1782 -0.2975 -0.3001
54694DOD     C2 7902  20.355  13.144  12.537  0.0046 -0.1114  0.2678
54694DOD     C3 7903  20.399  13.440  12.905 -0.0995  0.0780  0.0459
54695DOD     C1 7904  25.655   6.584  13.169 -0.3319  0.0830 -0.0082
54695DOD     C2 7905  26.026   6.831  13.191 -0.1521 -0.1200  0.0705
54695DOD     C3 7906  26.325   7.187  13.107  0.0869 -0.1208  0.1854
54696DOD     C1 7907  11.912  20.531  21.545  0.0333 -0.0704  0.1124
54696DOD     C2 7908  11.623  20.233  21.342  0.1900  0.0249 -0.1772
54696DOD     C3 7909  11.534  19.809  21.502 -0.0132 -0.0030 -0.1835
54697DOD     C1 7910  25.870   6.454   9.876 -0.0042  0.1842  0.1503
54697DOD     C2 7911  25.951   6.511   9.440 -0.2149  0.1703 -0.0460
54697DOD     C3 7912  26.170   6.869   9.260 -0.0212  0.0890  0.1956
54698DOD     C1 7913  30.064  17.319   0.526 -0.2855  0.2979  0.0370
54698DOD     C2 7914  29.599  17.165   0.472  0.1988 -0.3748  0.1937
54698DOD     C3 7915  29.156  17.235   0.595  0.0099 -0.1081  0.1366
54699DOD     C1 7916   6.388   3.903   4.650  0.0823  0.0269 -0.2516
54699DOD     C2 7917   6.448   4.019   5.094  0.1164  0.0210  0.0128
54699DOD     C3 7918   6.570   3.742   5.434  0.1331 -0.0974  0.2131
54700DOD     C1 7919   4.317  12.716   7.296 -0.1095  0.0326  0.2261
54700DOD     C2 7920   4.741  12.905   7.307  0.2265 -0.0214 -0.0941
54700DOD     C3 7921   5.108  12.624   7.142 -0.2139  0.0868 -0.2771
54701DOD     C1 7922  29.209  24.836  24.263 -0.1255 -0.0111 -0.1962
54701DOD     C2 7923  29.086  24.769  24.704 -0.2829  0.0116  0.1911
54701DOD     C3 7924  29.502  24.633  24.864  0.0755  0.2168  0.3150
54702DOD     C1 7925  15.673  23.025  23.205 -0.0539 -0.0505  0.1143
54702DOD     C2 7926  15.879  23.036  22.792 -0.1682  0.0988 -0.0473
54702DOD     C3 7927  15.926  23.300  22.430 -0.0472  0.2298 -0.3337
54703DOD     C1 7928   0.485   5.322  21.378  0.1049  0.0436  0.0683
54703DOD     C2 7929   0.791   5.575  21.553  0.0150  0.0717 -0.1420
54703DOD     C3 7930   1.162   5.716  21.708 -0.0955 -0.1459 -0.1273
54704DOD     C1 7931  29.498   7.891  21.188  0.0708  0.1568 -0.0100
54704DOD     C2 7932  29.203   7.766  20.821 -0.0054  0.2054 -0.0484
54704DOD     C3 7933  28.737   7.851  20.682  0.3635  0.4130  0.0938
54705DOD     C1 7934   5.256   0.420   4.513  0.0378  0.0662  0.1849
54705DOD     C2 7935   4.871   0.328   4.777  0.1408 -0.1150  0.1504
54705DOD     C3 7936   4.741   0.399   5.178 -0.2355 -0.2179  0.2349
54706DOD     C1 7937  28.135  26.560  15.550  0.0488  0.1046  0.0439
54706DOD     C2 7938  28.540  26.824  15.555 -0.3020 -0.0200  0.2476
54706DOD     C3 7939  28.994  27.010  15.550  0.3231  0.3205 -0.2324
54707DOD     C1 7940   7.814  24.449   2.368 -0.1318  0.0333  0.1881
54707DOD     C2 7941   7.893  24.400   2.809  0.0256 -0.0550 -0.1988
54707DOD     C3 7942   7.944  24.278   3.271 -0.3121 -0.2342 -0.1449
54708DOD     C1 7943  28.898   3.249  12.687 -0.0006  0.4221  0.2160
54708DOD     C2 7944  29.151   3.262  13.067  0.1138  0.1107 -0.3423
54708DOD     C3 7945  29.641   3.332  12.929 -0.1892 -0.3525  0.1481
54709DOD     C1 7946  21.574  17.062  18.599 -0.1207  0.1113 -0.2544
54709DOD     C2 7947  21.766  17.455  18.875 -0.3263  0.1792 -0.3535
54709DOD     C3 7948  21.871  17.607  19.300  0.0137 -0.2211  0.1476
54710DOD     C1 7949   9.675  26.897   7.382  0.1675 -0.1268 -0.0413
54710DOD     C2 7950   9.416  26.700   7.676 -0.2056  0.2655  0.0519
54710DOD     C3 7951   9.054  26.485   7.581  0.1409 -0.2093 -0.1668
54711DOD     C1 7952  27.914  16.371  13.908 -0.0993  0.0326  0.3849
54711DOD     C2 7953  28.080  15.903  13.920 -0.1975 -0.0987  0.2007
54711DOD     C3 7954  28.421  15.529  14.018 -0.1673  0.0247 -0.0276
54712DOD     C1 7955  25.744  18.338   0.092  0.0642 -0.0924 -0.0689
54712DOD     C2 7956  25.755  18.617  30.055 -0.1857  0.1505  0.2131
54712DOD     C3 7957  25.467  18.762  29.688 -0.1999 -0.1859  0.4837
54713DOD     C1 7958   4.937   5.688  17.700  0.3608  0.1828  0.0264
54713DOD     C2 7959   4.549   5.888  17.958  0.2372 -0.2963  0.1520
54713DOD     C3 7960   4.402   5.971  18.363 -0.1448  0.1093 -0.1597
54714DOD     C1 7961   0.285   8.024  22.143 -0.2493 -0.0983  0.1103
54714DOD     C2 7962   0.399   8.006  21.703  0.1774  0.1491 -0.1819
54714DOD     C3 7963   0.595   7.751  21.359  0.0669 -0.2634  0.3238
54715DOD     C1 7964  23.086  19.373  10.103 -0.1571 -0.2140 -0.0540
54715DOD     C2 7965  22.892  19.795  10.040 -0.0931 -0.0235  0.2012
54715DOD     C3 7966  22.501  20.031  10.146 -0.4309  0.0432  0.2392
54716DOD     C1 7967   7.380   8.943  26.644 -0.1013 -0.0476 -0.0243
54716DOD     C2 7968   7.632   9.335  26.758  0.2342  0.1408 -0.0354
54716DOD     C3 7969   7.924   9.475  27.085  0.0446 -0.2093 -0.1539
54717DOD     C1 7970  21.102  25.842   0.050  0.0149 -0.2183 -0.0271
54717DOD     C2 7971  21.004  25.468   0.223 -0.1349 -0.1138 -0.0663
54717DOD     C3 7972  20.812  25.187   0.500  0.0856  0.5341  0.0383
54718DOD     C1 7973  22.667   4.936  22.791 -0.2649 -0.0619  0.1790
54718DOD     C2 7974  22.333   5.017  22.539 -0.1052  0.1121  0.1973
54718DOD     C3 7975  22.002   4.949  22.257  0.0876 -0.0420  0.0818
54719DOD     C1 7976  15.418  18.542   4.269 -0.2990 -0.0502  0.1758
54719DOD     C2 7977  15.687  18.217   4.560  0.4135  0.1157 -0.1155
54719DOD     C3 7978  15.616  18.123   4.980  0.1619 -0.0345 -0.1397
54720DOD     C1 7979   6.662  15.786   6.463  0.0771  0.2089  0.1078
54720DOD     C2 7980   6.596  16.246   6.396  0.1376 -0.0870 -0.3360
54720DOD     C3 7981   6.780  16.684   6.254 -0.0619 -0.2053  0.0256
54721DOD     C1 7982   7.467  17.835  11.646 -0.2050  0.1352  0.0022
54721DOD     C2 7983   7.171  17.894  11.316  0.0369  0.0576  0.0722
54721DOD     C3 7984   6.808  17.918  11.028  0.2521 -0.0176  0.0253
54722DOD     C1 7985  29.959  15.731  18.299  0.0340  0.0761 -0.1069
54722DOD     C2 7986  29.859  15.928  18.655  0.1592 -0.3047 -0.0555
54722DOD     C3 7987  29.544  16.100  18.911 -0.0599  0.3370  0.0514
54723DOD     C1 7988  16.161  23.103   5.280 -0.0879  0.0333  0.0530
54723DOD     C2 7989  16.167  23.560   5.251 -0.1936 -0.0377  0.1362
54723DOD     C3 7990  15.952  23.977   5.294 -0.1444  0.1584  0.2572
54724DOD     C1 7991  15.913  17.481  13.201  0.0539 -0.3642 -0.5986
54724DOD     C2 7992  15.579  17.736  13.469 -0.2308  0.1657  0.1085
54724DOD     C3 7993  15.099  17.907  13.553  0.2075 -0.1141 -0.0370
54725DOD     C1 7994  27.374   9.500  13.932  0.2170 -0.0991  0.2126
54725DOD     C2 7995  27.644   9.260  14.266  0.0634 -0.0459 -0.1010
54725DOD     C3 7996  28.089   9.243  14.365 -0.3347 -0.1793 -0.0072
54726DOD     C1 7997   9.186  29.328  22.633 -0.1183 -0.0056 -0.1911
54726DOD     C2 7998   9.081  29.691  22.445  0.2723  0.1036  0.4030
54726DOD     C3 7999   8.964  29.674  22.021 -0.0474  0.2542  0.5442
54727DOD     C1 8000  15.923   2.576  23.761  0.1960 -0.0732  0.0176
54727DOD     C2 8001  15.785   2.359  24.225  0.1651 -0.1026  0.4563
54727DOD     C3 8002  15.576   1.991  24.415  0.0874 -0.3527 -0.0919
54728DOD     C1 8003   0.297  10.120  11.792  0.1016 -0.2111  0.1990
54728DOD     C2 8004   0.402  10.269  11.308  0.0694 -0.2023  0.0904
54728DOD     C3 8005   0.816  10.270  11.061 -0.1459  0.1754  0.0504
54729DOD     C1 8006  24.661   1.737  20.857  0.0475  0.2821  0.1674
54729DOD     C2 8007  25.055   1.508  20.747  0.3648  0.1276 -0.3993
54729DOD     C3 8008  25.197   1.050  20.736 -0.2345 -0.1632 -0.3837
54730DOD     C1 8009  19.673  15.238   7.087 -0.1256  0.2075  0.0559
54730DOD     C2 8010  19.797  14.823   7.305 -0.3839  0.0799  0.1507
54730DOD     C3 8011  19.744  14.591   7.708  0.0665 -0.0420  0.3489
54731DOD     C1 8012   8.162  26.365  28.507 -0.1143 -0.0260 -0.2025
54731DOD     C2 8013   8.361  25.978  28.626 -0.2250  0.2319  0.2812
54731DOD     C3 8014   8.758  25.813  28.380  0.2568 -0.2696  0.1917
54732DOD     C1 8015   6.022  24.143   8.676 -0.1703 -0.0531 -0.0595
54732DOD     C2 8016   6.435  24.169   8.871  0.2367 -0.3026  0.0830
54732DOD     C3 8017   6.683  24.393   9.196 -0.1710 -0.1065 -0.2059
54733DOD     C1 8018  28.147  14.065  21.019  0.1052 -0.1183 -0.0916
54733DOD     C2 8019  28.358  13.596  20.919 -0.3062 -0.1458  0.1049
54733DOD     C3 8020  28.542  13.425  20.516  0.0861 -0.4193  0.0028
54734DOD     C1 8021   1.546  15.517  13.156  0.2208 -0.1659  0.0250
54734DOD     C2 8022   1.809  15.768  12.834  0.4965 -0.0098  0.0359
54734DOD     C3 8023   2.192  15.827  12.716  0.0801 -0.0200  0.2003
54735DOD     C1 8024   2.778   7.228  16.603 -0.0061  0.0685  0.2275
54735DOD     C2 8025   2.988   6.801  16.530 -0.0193 -0.2278  0.2939
54735DOD     C3 8026   3.261   6.577  16.222 -0.0674 -0.1779 -0.0705
54736DOD     C1 8027   5.076   6.606   0.198 -0.4340 -0.3206 -0.0982
54736DOD     C2 8028   5.027   7.024   0.028  0.2912 -0.0480  0.1478
54736DOD     C3 8029   5.045   7.253  29.934 -0.0108 -0.1429 -0.0990
54737DOD     C1 8030  29.481   0.759  26.860 -0.0026  0.1812  0.1521
54737DOD     C2 8031  29.419   1.033  27.238  0.3770 -0.2256 -0.5588
54737DOD     C3 8032  29.408   1.154  27.676  0.4507  0.0236  0.3445
54738DOD     C1 8033  15.002   4.268   8.332  0.1206 -0.0474  0.0300
54738DOD     C2 8034  15.096   3.896   8.656 -0.1573 -0.3820 -0.0207
54738DOD     C3 8035  14.881   3.759   9.108 -0.1799  0.1153  0.0361
54739DOD     C1 8036   4.255  22.925  16.265 -0.1234  0.1664 -0.1669
54739DOD     C2 8037   4.144  23.272  15.973  0.0193 -0.0471 -0.0087
54739DOD     C3 8038   3.837  23.630  15.932 -0.1958 -0.0826  0.2512
54740DOD     C1 8039  21.949  22.453  21.182  0.0539  0.1041 -0.0671
54740DOD     C2 8040  21.712  22.215  21.545 -0.0847  0.1426  0.0413
54740DOD     C3 8041  21.374  22.318  21.798  0.2266 -0.0118 -0.0559
54741DOD     C1 8042  25.004   6.732   1.276 -0.1560  0.0888 -0.0629
54741DOD     C2 8043  25.423   6.577   1.474  0.3079 -0.1664 -0.0739
54741DOD     C3 8044  25.700   6.267   1.668 -0.1745 -0.1987 -0.2462
54742DOD     C1 8045  22.090   7.233  14.210 -0.1591 -0.1715  0.2924
54742DOD     C2 8046  21.740   7.318  13.935 -0.4113  0.0922 -0.1243
54742DOD     C3 8047  21.611   7.432  13.487  0.4100 -0.2334  0.0464
54743DOD     C1 8048  19.861  21.159  18.942 -0.2561 -0.1998  0.0076
54743DOD     C2 8049  19.382  20.999  19.011 -0.1896  0.1572 -0.3012
54743DOD     C3 8050  19.167  20.582  19.128 -0.2945  0.1886 -0.0964
54744DOD     C1 8051  27.121   8.330   7.625  0.0126  0.0740 -0.2402
54744DOD     C2 8052  26.964   8.752   7.812 -0.2163 -0.0811  0.2010
54744DOD     C3 8053  26.812   9.138   7.690 -0.0123 -0.0715  0.1304
54745DOD     C1 8054  27.489   0.529   8.952 -0.1429 -0.1221  0.0892
54745DOD     C2 8055  27.180   0.644   8.651  0.0324  0.1663 -0.2097
54745DOD     C3 8056  26.923   0.772   8.285 -0.0393  0.0990  0.0632
54746DOD     C1 8057   2.391  17.618   3.302 -0.1307 -0.2461  0.2222
54746DOD     C2 8058   2.047  17.289   3.321  0.0546 -0.1344  0.1559
54746DOD     C3 8059   1.647  17.068   3.167 -0.0330  0.3562 -0.0704
54747DOD     C1 8060  20.055  13.137  17.521  0.0850 -0.0091  0.0264
54747DOD     C2 8061  20.340  12.781  17.346  0.1849  0.3728 -0.0770
54747DOD     C3 8062  20.539  12.537  17.018 -0.1382 -0.2210 -0.0308
54748DOD     C1 8063  26.679  25.355  20.426 -0.1849 -0.1934 -0.0390
54748DOD     C2 8064  26.783  25.327  20.867 -0.0165  0.2896  0.1665
54748DOD     C3 8065  26.699  25.252  21.296  0.3149 -0.3054 -0.2216
54749DOD     C1 8066   9.837  16.512  13.977  0.0718  0.1669 -0.1672
54749DOD     C2 8067   9.661  16.808  13.656  0.1671 -0.0114  0.0583
54749DOD     C3 8068   9.527  16.760  13.226 -0.1619 -0.1903  0.0033
54750DOD     C1 8069  13.566  23.399  10.779 -0.2019  0.0499  0.0738
54750DOD     C2 8070  13.154  23.325  11.064  0.0959  0.0491 -0.1641
54750DOD     C3 8071  12.801  23.088  10.922 -0.2818  0.0665  0.0458
54751DOD     C1 8072  15.754  23.928  20.268  0.0415  0.1857 -0.3033
54751DOD     C2 8073  15.824  23.979  20.764  0.0731  0.0262  0.4941
54751DOD     C3 8074  15.814  24.069  21.219  0.1410 -0.0568  0.1551
54752DOD     C1 8075  17.490   0.399   1.335 -0.1353  0.1225 -0.0029
54752DOD     C2 8076  17.795   0.245   1.033  0.0577 -0.2260  0.1363
54752DOD     C3 8077  18.135   0.127   0.731 -0.0788 -0.3282  0.3355
54753DOD     C1 8078   1.634   9.874  26.019 -0.1372 -0.1127  0.1343
54753DOD     C2 8079   1.718  10.119  25.617  0.0364 -0.0166  0.0823
54753DOD     C3 8080   1.840  10.549  25.474  0.1073  0.2295  0.1559
54754DOD     C1 8081  14.879   8.118  21.037  0.2807  0.0657  0.0489
54754DOD     C2 8082  15.200   7.927  20.801 -0.4236  0.0854 -0.3915
54754DOD     C3 8083  15.592   7.678  20.950 -0.0277 -0.1589  0.3726
54755DOD     C1 8084  20.147  21.142   4.547 -0.0917 -0.1873 -0.3719
54755DOD     C2 8085  19.969  21.171   5.033 -0.0682 -0.0113 -0.0946
54755DOD     C3 8086  19.554  21.207   5.258  0.2059  0.3648 -0.1783
54756DOD     C1 8087  23.736  16.126   4.068 -0.0286  0.1100 -0.4487
54756DOD     C2 8088  23.377  16.336   4.244 -0.0152  0.0619 -0.0571
54756DOD     C3 8089  22.939  16.285   4.442  0.3630  0.0513 -0.0611
54757DOD     C1 8090   0.527  26.267  18.253  0.1099  0.1318 -0.1414
54757DOD     C2 8091   0.268  26.261  17.854 -0.3556 -0.1810  0.0855
54757DOD     C3 8092   0.222  26.027  17.484  0.1623  0.0123 -0.0579
54758DOD     C1 8093  20.158   2.358  12.596 -0.4299 -0.0683  0.2861
54758DOD     C2 8094  19.768   2.403  12.814 -0.2770 -0.1500  0.2252
54758DOD     C3 8095  19.329   2.298  12.900 -0.1670 -0.2686 -0.0855
54759DOD     C1 8096  21.898   8.123  13.015 -0.1550  0.0602  0.0614
54759DOD     C2 8097  21.519   8.347  12.925  0.0149  0.2936 -0.0836
54759DOD     C3 8098  21.140   8.570  12.822  0.0540  0.1975  0.2120
54760DOD     C1 8099  12.737  13.804  10.129  0.1054 -0.1764  0.1066
54760DOD     C2 8100  12.840  14.078   9.768 -0.3088  0.4456  0.0111
54760DOD     C3 8101  12.764  14.312   9.365  0.1980 -0.2497  0.0414
54761DOD     C1 8102  15.840   3.891  23.771 -0.0544  0.0783 -0.0627
54761DOD     C2 8103  15.704   4.291  24.009  0.0367  0.2807  0.0012
54761DOD     C3 8104  15.420   4.426  24.374  0.0241  0.1601 -0.1507
54762DOD     C1 8105  16.252  24.862  18.590  0.1026  0.0206  0.2448
54762DOD     C2 8106  16.722  24.865  18.502 -0.3300  0.3789 -0.3420
54762DOD     C3 8107  16.916  24.688  18.120  0.1138  0.0498  0.0460
54763DOD     C1 8108   2.846  29.314  13.433  0.0659  0.1808 -0.0258
54763DOD     C2 8109   2.547  29.486  13.139  0.1791  0.1336 -0.0627
54763DOD     C3 8110   2.164  29.753  13.208 -0.0227 -0.0549  0.0307
54764DOD     C1 8111  29.357  26.738  20.962 -0.0625 -0.4370  0.3202
54764DOD     C2 8112  29.270  26.437  21.277 -0.4624 -0.0370 -0.0788
54764DOD     C3 8113  29.478  26.314  21.693  0.2960  0.0512  0.2987
54765DOD     C1 8114  11.040   9.987  22.447  0.0421 -0.3346 -0.0002
54765DOD     C2 8115  10.765   9.577  22.580  0.0637  0.2115 -0.3997
54765DOD     C3 8116  10.432   9.428  22.838 -0.0425 -0.0943  0.1353
54766DOD     C1 8117  11.756  20.695   0.767 -0.1817 -0.1098  0.0145
54766DOD     C2 8118  11.702  20.643   0.290 -0.0133 -0.0582 -0.2953
54766DOD     C3 8119  12.088  20.489   0.162 -0.2249  0.1587  0.1122
54767DOD     C1 8120  10.701  16.684  21.069 -0.3009  0.0532  0.1623
54767DOD     C2 8121  10.809  16.660  21.528  0.0857 -0.0902 -0.1289
54767DOD     C3 8122  10.816  16.693  21.978 -0.0535  0.0256 -0.1103
54768DOD     C1 8123  30.048   4.147   0.885 -0.2179 -0.0621  0.0237
54768DOD     C2 8124  29.995   4.549   0.695 -0.0252  0.0793 -0.0751
54768DOD     C3 8125  29.907   4.790   0.330 -0.0193  0.0512 -0.3582
54769DOD     C1 8126  15.296  10.383  17.474  0.1705 -0.0746 -0.0089
54769DOD     C2 8127  15.625  10.644  17.271 -0.2850  0.2523 -0.0848
54769DOD     C3 8128  15.910  10.878  17.037 -0.0316  0.0891  0.1393
54770DOD     C1 8129  14.419  24.785   9.049 -0.3183 -0.0627  0.2050
54770DOD     C2 8130  14.924  24.866   8.935  0.0402  0.0439  0.0052
54770DOD     C3 8131  15.277  25.150   8.793  0.0386 -0.3196  0.3281
54771DOD     C1 8132   7.292  20.672   3.541  0.0115  0.0940 -0.0729
54771DOD     C2 8133   7.296  20.719   4.001  0.1297 -0.3041 -0.1720
54771DOD     C3 8134   7.379  21.016   4.377  0.0723 -0.4028 -0.1981
54772DOD     C1 8135   8.752   4.735   4.558  0.1477  0.0850  0.2364
54772DOD     C2 8136   8.513   4.853   4.864 -0.2531 -0.2251  0.1524
54772DOD     C3 8137   8.134   4.728   5.098  0.0429 -0.1141 -0.0488
54773DOD     C1 8138  29.765  16.258  21.550  0.2204  0.0289  0.1753
54773DOD     C2 8139  29.355  16.398  21.774  0.0833  0.2200  0.1201
54773DOD     C3 8140  29.096  16.705  22.017  0.0025  0.0181 -0.1606
54774DOD     C1 8141  16.660  10.085  27.918  0.1963 -0.0763  0.0275
54774DOD     C2 8142  16.937   9.803  27.600 -0.0266  0.0825 -0.1990
54774DOD     C3 8143  17.280   9.534  27.553  0.1506 -0.1513 -0.3490
54775DOD     C1 8144  13.650  27.960  28.355 -0.0459 -0.1406 -0.1772
54775DOD     C2 8145  13.388  28.070  27.922  0.0118 -0.3219 -0.1330
54775DOD     C3 8146  13.097  28.437  27.797 -0.1281 -0.0119  0.1622
54776DOD     C1 8147  19.584   2.481  25.327  0.0576  0.0288  0.1753
54776DOD     C2 8148  19.383   2.374  24.912 -0.0851 -0.2784 -0.3146
54776DOD     C3 8149  18.979   2.165  24.788  0.2480 -0.0441  0.2176
54777DOD     C1 8150   0.841  16.026  23.849  0.0060 -0.2664  0.0543
54777DOD     C2 8151   0.647  15.590  23.754 -0.0444  0.1729  0.1013
54777DOD     C3 8152   0.615  15.225  23.397  0.0424 -0.2583  0.3575
54778DOD     C1 8153   6.230  14.853   3.184  0.1071 -0.1888 -0.4210
54778DOD     C2 8154   6.637  14.944   3.451 -0.2846  0.3884 -0.0550
54778DOD     C3 8155   6.984  15.058   3.720 -0.0289 -0.2588  0.0060
54779DOD     C1 8156   0.459  11.298  28.274 -0.1451  0.0708  0.0322
54779DOD     C2 8157   0.706  11.041  28.584  0.2223  0.0743 -0.0195
54779DOD     C3 8158   0.920  11.101  28.987 -0.0466 -0.2558 -0.2428
54780DOD     C1 8159  18.430   4.955   7.777 -0.0316 -0.0379 -0.1556
54780DOD     C2 8160  18.533   4.515   7.667 -0.0176 -0.0527  0.0124
54780DOD     C3 8161  18.763   4.193   7.437 -0.1471 -0.2063  0.0411
54781DOD     C1 8162  21.113  28.362  19.898  0.0638  0.0170  0.0083
54781DOD     C2 8163  20.909  27.963  19.952 -0.1847  0.1280 -0.3872
54781DOD     C3 8164  20.666  27.716  19.664 -0.2129 -0.1390  0.1945
54782DOD     C1 8165  23.809  13.885  19.486 -0.2557  0.4444 -0.0710
54782DOD     C2 8166  24.159  13.709  19.301 -0.0327  0.0413 -0.3724
54782DOD     C3 8167  24.466  13.356  19.147  0.2150 -0.2221  0.0915
54783DOD     C1 8168  23.927  22.274   6.436 -0.0494  0.0724  0.2716
54783DOD     C2 8169  23.966  22.670   6.648 -0.1101 -0.4839 -0.0578
54783DOD     C3 8170  23.968  23.133   6.630 -0.0732 -0.0169  0.0732
54784DOD     C1 8171  27.012  15.252  14.540  0.2248 -0.0461  0.2770
54784DOD     C2 8172  26.759  15.125  14.135 -0.4308 -0.0140  0.1541
54784DOD     C3 8173  26.494  15.076  13.780  0.0718 -0.0774  0.1927
54785DOD     C1 8174  18.997  21.062  25.666 -0.0374  0.2909 -0.1320
54785DOD     C2 8175  19.450  20.927  25.723  0.0557 -0.1055  0.1837
54785DOD     C3 8176  19.648  20.624  25.472  0.1938 -0.1231 -0.0104
54786DOD     C1 8177   2.850  21.043   6.449 -0.1398 -0.2637  0.1104
54786DOD     C2 8178   3.330  21.019   6.393  0.1852  0.5459 -0.0261
54786DOD     C3 8179   3.765  20.925   6.368  0.3012 -0.3704  0.3803
54787DOD     C1 8180  29.238   4.942  24.489 -0.1470  0.1293 -0.2859
54787DOD     C2 8181  29.544   4.876  24.123 -0.2510 -0.2302 -0.0011
54787DOD     C3 8182  29.560   4.607  23.724  0.2045 -0.3202  0.4357
54788DOD     C1 8183   3.421  11.605   7.130  0.1287  0.4113  0.0097
54788DOD     C2 8184   3.264  11.383   7.483  0.1840 -0.0148 -0.2104
54788DOD     C3 8185   3.145  11.219   7.891 -0.0495  0.1212  0.1996
54789DOD     C1 8186  18.047   9.305   0.359  0.5541  0.3913 -0.1089
54789DOD     C2 8187  18.153   9.774   0.235 -0.2719 -0.3112 -0.4069
54789DOD     C3 8188  18.257  10.232   0.196 -0.1954  0.0150  0.0467
54790DOD     C1 8189   6.614  10.011  21.189  0.1007 -0.3360 -0.1472
54790DOD     C2 8190   7.073  10.028  21.147 -0.3038 -0.1578  0.0073
54790DOD     C3 8191   7.516  10.035  21.018  0.0311  0.0271  0.1066
54791DOD     C1 8192   4.819  10.391  26.297 -0.1835 -0.3482  0.0020
54791DOD     C2 8193   5.302  10.394  26.189 -0.0562  0.0204  0.1386
54791DOD     C3 8194   5.810  10.323  26.109 -0.0038 -0.1044 -0.2269
54792DOD     C1 8195   6.281  11.608  12.454 -0.0731  0.0344  0.0318
54792DOD     C2 8196   5.840  11.851  12.339  0.3212 -0.3013  0.0631
54792DOD     C3 8197   5.435  11.972  12.113  0.0796  0.0138 -0.3182
54793DOD     C1 8198   6.634  14.152  12.297 -0.0563  0.0785  0.3162
54793DOD     C2 8199   6.383  14.031  12.664  0.2305 -0.0315  0.2620
54793DOD     C3 8200   6.039  13.921  12.922  0.0076  0.0354 -0.2345
54794DOD     C1 8201   2.027  26.785  26.265 -0.4200  0.0959  0.5162
54794DOD     C2 8202   2.440  26.589  26.294 -0.2775 -0.3190 -0.0116
54794DOD     C3 8203   2.902  26.482  26.373  0.1830  0.2031  0.0117
54795DOD     C1 8204  11.803  27.324   5.848 -0.0147  0.1382  0.0925
54795DOD     C2 8205  12.121  27.462   5.655 -0.4130 -0.3063  0.2348
54795DOD     C3 8206  12.029  27.698   5.220 -0.4365  0.1499 -0.1854
54796DOD     C1 8207   2.942  10.298  24.214  0.1103 -0.0296  0.1246
54796DOD     C2 8208   2.719  10.647  23.942 -0.1837 -0.0012 -0.1244
54796DOD     C3 8209   2.403  10.572  23.645  0.0566 -0.1934  0.2733
54797DOD     C1 8210  19.398  27.061   5.699  0.3140  0.1164 -0.1560
54797DOD     C2 8211  19.215  27.073   6.125 -0.2166  0.3461 -0.2739
54797DOD     C3 8212  19.121  27.506   6.170  0.0612 -0.0690 -0.0295
54798DOD     C1 8213  15.951  13.878  17.333  0.0636 -0.0781 -0.2632
54798DOD     C2 8214  15.781  14.024  17.748  0.2234 -0.2723  0.2422
54798DOD     C3 8215  15.402  13.960  17.973 -0.2335 -0.2687 -0.2695
54799DOD     C1 8216  16.162  18.163  19.783 -0.0072 -0.0787 -0.0527
54799DOD     C2 8217  16.206  18.193  20.278 -0.0303 -0.0795 -0.0351
54799DOD     C3 8218  15.884  18.064  20.631  0.1348  0.0446  0.3902
54800DOD     C1 8219  17.308   7.647  14.959 -0.1856  0.0640  0.3493
54800DOD     C2 8220  16.939   7.382  15.112 -0.0362 -0.1717 -0.0890
54800DOD     C3 8221  16.486   7.354  15.165 -0.2694  0.3265  0.5250
54801DOD     C1 8222  22.788  14.503  15.157 -0.1292  0.1588 -0.0435
54801DOD     C2 8223  22.601  14.127  15.016 -0.0866 -0.0233 -0.2814
54801DOD     C3 8224  22.520  13.695  15.193 -0.1253  0.0237  0.0912
54802DOD     C1 8225   2.926  10.227  15.284  0.3744  0.0537 -0.1463
54802DOD     C2 8226   2.599  10.063  15.037  0.0256 -0.0124 -0.1024
54802DOD     C3 8227   2.150  10.101  15.097 -0.2490  0.2995 -0.1228
54803DOD     C1 8228  16.733  10.462  22.873 -0.0958 -0.0899  0.0479
54803DOD     C2 8229  16.692  10.228  22.474  0.0476  0.2382  0.1301
54803DOD     C3 8230  16.594  10.151  22.035  0.0193 -0.3154 -0.2454
54804DOD     C1 8231  29.381   3.586  14.456  0.0718 -0.0421  0.2474
54804DOD     C2 8232  28.956   3.445  14.385 -0.1448  0.0529  0.2600
54804DOD     C3 8233  28.497   3.488  14.273  0.2948  0.1369 -0.1539
54805DOD     C1 8234   8.139   1.380   6.469  0.0848  0.1625  0.2030
54805DOD     C2 8235   8.524   1.147   6.423 -0.1556 -0.0712 -0.1096
54805DOD     C3 8236   8.968   1.194   6.365  0.1468  0.2928 -0.0821
54806DOD     C1 8237  19.800  14.624  23.158  0.0442  0.1879  0.2263
54806DOD     C2 8238  19.714  14.925  22.799  0.0046  0.1555  0.1068
54806DOD     C3 8239  19.730  15.086  22.361  0.3542 -0.2188 -0.1695
54807DOD     C1 8240   9.828  24.129  16.574  0.1048 -0.2321 -0.1013
54807DOD     C2 8241   9.880  24.577  16.375 -0.0319 -0.2988 -0.1244
54807DOD     C3 8242  10.107  24.820  16.017  0.0018 -0.0111  0.0443
54808DOD     C1 8243   3.096  22.200  26.611  0.2839 -0.0791 -0.0217
54808DOD     C2 8244   3.165  22.066  26.190  0.1202 -0.4987  0.6100
54808DOD     C3 8245   3.292  22.390  25.833 -0.1416 -0.1813 -0.1768
54809DOD     C1 8246  27.402  28.452   8.657  0.1302  0.0106  0.1085
54809DOD     C2 8247  27.121  28.433   8.303  0.3768  0.2019  0.1659
54809DOD     C3 8248  26.762  28.256   7.961  0.0164  0.1950  0.0666
54810DOD     C1 8249  16.261   2.606  20.646  0.1420  0.2151  0.1738
54810DOD     C2 8250  15.923   2.633  20.984  0.2093 -0.1412 -0.1229
54810DOD     C3 8251  15.721   2.728  21.386  0.0784 -0.0137 -0.0697
54811DOD     C1 8252   5.176  18.307  12.981  0.1026  0.0266 -0.0914
54811DOD     C2 8253   5.121  18.182  12.548 -0.2603 -0.0057  0.1309
54811DOD     C3 8254   5.226  17.985  12.150  0.1897  0.3414 -0.0984
54812DOD     C1 8255  11.384  25.607   3.785  0.2630 -0.0034 -0.1540
54812DOD     C2 8256  11.594  25.963   4.018 -0.1561  0.1631 -0.0999
54812DOD     C3 8257  12.032  26.122   4.074  0.0064  0.2344 -0.0930
54813DOD     C1 8258   0.432  19.070  24.231 -0.0798 -0.0671 -0.2465
54813DOD     C2 8259  -0.005  18.897  24.276 -0.2484  0.0055 -0.0433
54813DOD     C3 8260  30.039  18.556  24.332  0.0413 -0.0823  0.1237
54814DOD     C1 8261  16.519  25.809  15.864  0.3091  0.0730 -0.0564
54814DOD     C2 8262  16.501  25.589  16.285 -0.0087  0.2382  0.4335
54814DOD     C3 8263  16.550  25.688  16.693  0.0425  0.0875 -0.3138
54815DOD     C1 8264  25.363   2.659  22.847 -0.0296  0.2099 -0.1180
54815DOD     C2 8265  25.736   2.857  22.859  0.0266 -0.2050  0.0385
54815DOD     C3 8266  26.185   2.997  22.817  0.3301 -0.3308  0.1339
54816DOD     C1 8267   7.398  18.720  13.401 -0.0025  0.1538 -0.2510
54816DOD     C2 8268   7.669  18.309  13.338 -0.2522  0.0441 -0.2289
54816DOD     C3 8269   8.027  18.009  13.142 -0.0212 -0.1543 -0.1172
54817DOD     C1 8270   8.338   9.105   9.565 -0.3231 -0.1072  0.0887
54817DOD     C2 8271   8.588   8.684   9.556 -0.0849  0.0757 -0.1964
54817DOD     C3 8272   8.955   8.381   9.679 -0.1017 -0.0478  0.1240
54818DOD     C1 8273  26.959   5.983  21.866  0.0122  0.1066 -0.0996
54818DOD     C2 8274  26.586   6.331  21.981 -0.1777  0.2505 -0.0465
54818DOD     C3 8275  26.201   6.527  22.148  0.0655 -0.2894 -0.0796
54819DOD     C1 8276  16.167  17.388  27.026 -0.1468  0.2522  0.0381
54819DOD     C2 8277  16.139  17.662  26.666 -0.0958 -0.1363  0.1017
54819DOD     C3 8278  16.570  17.622  26.406  0.3447 -0.0333  0.0976
54820DOD     C1 8279   2.352  12.687  11.341  0.0293 -0.0435 -0.0130
54820DOD     C2 8280   2.627  12.900  11.648  0.1616 -0.0516  0.1563
54820DOD     C3 8281   3.038  12.849  11.854  0.0546  0.0835 -0.1262
54821DOD     C1 8282  25.891  15.944   5.302  0.0233 -0.2666  0.0688
54821DOD     C2 8283  26.099  16.320   5.489  0.0698  0.0899 -0.2412
54821DOD     C3 8284  26.406  16.644   5.439 -0.0449  0.4247  0.0847
54822DOD     C1 8285  13.053  19.546  28.463  0.2373 -0.2010 -0.3173
54822DOD     C2 8286  13.235  19.898  28.176  0.2996 -0.2954  0.2086
54822DOD     C3 8287  13.331  20.090  27.733 -0.3072  0.2330 -0.0161
54823DOD     C1 8288  27.864  30.250  25.960  0.2458 -0.0148 -0.0770
54823DOD     C2 8289  27.960   0.383  25.834 -0.2317 -0.0739 -0.2342
54823DOD     C3 8290  28.014   0.768  25.662  0.1518  0.0482 -0.0818
54824DOD     C1 8291  19.186   2.020   2.189 -0.0308 -0.0460  0.2605
54824DOD     C2 8292  19.575   2.018   2.475 -0.3480  0.0687  0.1165
54824DOD     C3 8293  19.934   2.076   2.173 -0.1539  0.0545 -0.0468
54825DOD     C1 8294  18.679  20.650   8.883  0.3192  0.1085 -0.1007
54825DOD     C2 8295  18.947  21.027   8.748  0.1841 -0.2234  0.0716
54825DOD     C3 8296  19.336  21.222   8.597  0.0400  0.2048 -0.4005
54826DOD     C1 8297  24.456  25.805  18.756 -0.3574  0.0571  0.1580
54826DOD     C2 8298  24.603  26.082  19.135 -0.2899  0.0880 -0.3775
54826DOD     C3 8299  24.601  26.446  19.454  0.4828  0.0624 -0.2776
54827DOD     C1 8300  11.298  10.221  17.647  0.2603  0.0702 -0.0358
54827DOD     C2 8301  11.174  10.573  17.954 -0.5151 -0.0610 -0.3971
54827DOD     C3 8302  10.977  11.003  18.059 -0.2824  0.2809 -0.3357
54828DOD     C1 8303   9.522   4.252   6.211  0.1762  0.1792  0.0394
54828DOD     C2 8304   9.371   3.791   6.404 -0.1143 -0.0827 -0.1933
54828DOD     C3 8305   9.478   3.452   6.198  0.1346 -0.2587  0.2915
54829DOD     C1 8306   6.317   6.638   3.805  0.1404  0.1777 -0.0058
54829DOD     C2 8307   6.757   6.510   3.862 -0.1642  0.1360 -0.3440
54829DOD     C3 8308   7.053   6.365   3.529  0.3863  0.0935 -0.0989
54830DOD     C1 8309   6.744  23.930  18.830  0.0509  0.1169  0.3573
54830DOD     C2 8310   7.070  23.881  18.489  0.4016 -0.0559 -0.0092
54830DOD     C3 8311   7.433  23.859  18.221  0.0300 -0.4002 -0.1510
54831DOD     C1 8312  28.239   2.091  22.851  0.1380  0.1372  0.0643
54831DOD     C2 8313  27.965   2.423  22.791 -0.1559 -0.2536 -0.0379
54831DOD     C3 8314  28.004   2.792  22.483 -0.0068  0.2422  0.1917
54832DOD     C1 8315  25.878  20.286  20.810  0.3555 -0.0586 -0.1954
54832DOD     C2 8316  26.304  20.309  20.562 -0.1471  0.2939  0.0577
54832DOD     C3 8317  26.688  20.490  20.418 -0.2721  0.0341  0.4285
54833DOD     C1 8318  11.309  17.197   3.529 -0.3452 -0.1376  0.0919
54833DOD     C2 8319  11.810  17.255   3.554  0.0823 -0.1127 -0.1360
54833DOD     C3 8320  12.276  17.109   3.492 -0.1255 -0.1143 -0.3113
54834DOD     C1 8321  18.262  15.986  27.359 -0.0966 -0.1782 -0.3985
54834DOD     C2 8322  18.134  15.983  26.913  0.2231  0.0700  0.2590
54834DOD     C3 8323  17.965  16.112  26.532  0.0526 -0.0597  0.0230
54835DOD     C1 8324  23.583  16.695  17.659 -0.0483 -0.0609  0.2675
54835DOD     C2 8325  23.469  16.350  17.464 -0.0365  0.0765  0.3192
54835DOD     C3 8326  23.190  16.192  17.086 -0.2124 -0.0889 -0.2328
54836DOD     C1 8327  29.552  10.642  20.765 -0.0109  0.0307  0.0717
54836DOD     C2 8328  29.167  10.912  20.806  0.3484 -0.1080  0.1969
54836DOD     C3 8329  28.880  11.208  20.549  0.0355  0.2429 -0.1706
54837DOD     C1 8330  19.337  17.779  10.856 -0.0331 -0.0367  0.0010
54837DOD     C2 8331  19.237  17.308  10.796 -0.0551 -0.1834 -0.0573
54837DOD     C3 8332  19.253  16.976  10.519 -0.1668 -0.0214  0.0516
54838DOD     C1 8333  15.084  11.339  22.259  0.0605 -0.2556  0.0518
54838DOD     C2 8334  15.245  10.948  22.050 -0.1467 -0.0495 -0.0118
54838DOD     C3 8335  15.483  10.949  21.612  0.0246 -0.1273 -0.2228
54839DOD     C1 8336   3.014  13.229  23.635  0.1431 -0.1890  0.0654
54839DOD     C2 8337   3.426  13.007  23.692  0.1220 -0.0001 -0.0321
54839DOD     C3 8338   3.799  12.876  23.546 -0.1130 -0.1331 -0.0258
54840DOD     C1 8339   1.691   8.478  20.904 -0.1830  0.1264 -0.0750
54840DOD     C2 8340   1.778   8.567  20.487 -0.3520 -0.0941 -0.1051
54840DOD     C3 8341   1.881   8.889  20.138 -0.1293 -0.1438 -0.0199
54841DOD     C1 8342   7.896  21.914   8.343  0.0742 -0.0905  0.0172
54841DOD     C2 8343   8.044  21.518   8.576 -0.0537 -0.2098 -0.0491
54841DOD     C3 8344   8.191  21.219   8.884  0.3224  0.1646 -0.2208
54842DOD     C1 8345  28.304  21.602  17.273 -0.0899  0.1621 -0.3951
54842DOD     C2 8346  28.390  21.861  16.863 -0.0918  0.0058 -0.0864
54842DOD     C3 8347  28.373  21.791  16.424  0.2404  0.3569 -0.2722
54843DOD     C1 8348  17.882  25.190  13.070 -0.0507 -0.1886  0.5519
54843DOD     C2 8349  17.871  24.915  13.467  0.0359  0.0129  0.1705
54843DOD     C3 8350  17.738  24.466  13.523  0.0155 -0.2232  0.3153
54844DOD     C1 8351   4.628  21.764  17.270  0.1430  0.0369 -0.2601
54844DOD     C2 8352   4.773  21.430  17.113 -0.2472  0.2573 -0.2612
54844DOD     C3 8353   5.077  21.211  16.795 -0.1590  0.1416  0.1980
54845DOD     C1 8354   1.448   9.985  28.454 -0.0022 -0.1202  0.1398
54845DOD     C2 8355   1.350   9.747  28.085  0.2652 -0.0300  0.0008
54845DOD     C3 8356   1.454   9.315  27.950  0.0860 -0.2402  0.1556
54846DOD     C1 8357  11.420  15.147  18.956 -0.0145  0.1764 -0.1611
54846DOD     C2 8358  11.194  15.381  18.593 -0.0451  0.0692 -0.0740
54846DOD     C3 8359  11.302  15.785  18.301  0.0725  0.1943 -0.0933
54847DOD     C1 8360  28.307  22.266   3.524  0.0526  0.5644 -0.4103
54847DOD     C2 8361  28.387  22.766   3.431 -0.0962  0.0946 -0.2409
54847DOD     C3 8362  28.362  23.237   3.630 -0.0376 -0.0872 -0.2473
54848DOD     C1 8363   4.237   2.853  28.289 -0.0346  0.0129 -0.1142
54848DOD     C2 8364   4.614   2.685  28.484  0.2706 -0.0118  0.2530
54848DOD     C3 8365   4.968   2.406  28.626  0.1553  0.1348  0.1551
54849DOD     C1 8366  23.314   0.222   5.732 -0.0936  0.1161 -0.2407
54849DOD     C2 8367  23.152   0.595   6.018  0.1353  0.2779 -0.0381
54849DOD     C3 8368  22.901   0.951   6.098 -0.0847  0.0491 -0.1374
54850DOD     C1 8369  16.316  27.544   6.685  0.0649 -0.0937  0.1665
54850DOD     C2 8370  16.734  27.690   6.656  0.0785  0.0156 -0.0997
54850DOD     C3 8371  17.180  27.550   6.724 -0.0723 -0.0424 -0.0880
54851DOD     C1 8372  26.054  17.920  10.748 -0.3293 -0.0378 -0.0908
54851DOD     C2 8373  26.000  18.020  11.219  0.1935  0.0388  0.1392
54851DOD     C3 8374  25.593  18.023  11.470  0.0639 -0.0311  0.1623
54852DOD     C1 8375   2.840  14.807   8.997  0.1576 -0.0938 -0.1445
54852DOD     C2 8376   2.890  14.495   9.410 -0.3212  0.2122 -0.1142
54852DOD     C3 8377   2.712  14.093   9.552  0.1026 -0.2587  0.1119
54853DOD     C1 8378   2.091  27.727  10.569  0.0646 -0.2441 -0.3884
54853DOD     C2 8379   2.358  28.096  10.538 -0.1847 -0.4834 -0.0792
54853DOD     C3 8380   2.478  28.474  10.307  0.3932  0.2329 -0.0101
54854DOD     C1 8381   1.716  20.267   7.687 -0.1867  0.2797 -0.2412
54854DOD     C2 8382   1.310  20.372   7.901 -0.0882 -0.0156 -0.0623
54854DOD     C3 8383   1.128  20.566   8.252  0.3328  0.0951  0.0295
54855DOD     C1 8384  14.703   3.578  13.024 -0.1196  0.0005 -0.1392
54855DOD     C2 8385  14.980   3.228  13.256  0.1539  0.1339 -0.0115
54855DOD     C3 8386  15.371   3.021  13.285  0.3465 -0.1544  0.0518
54856DOD     C1 8387  13.198  17.460  27.344  0.0728  0.0396 -0.1209
54856DOD     C2 8388  13.009  17.059  27.365  0.0390 -0.2252  0.1424
54856DOD     C3 8389  13.194  16.611  27.264 -0.3575  0.0655 -0.0541
54857DOD     C1 8390  23.913  16.451  11.236  0.1416  0.3020  0.0089
54857DOD     C2 8391  23.468  16.546  11.128  0.0929  0.1097 -0.0490
54857DOD     C3 8392  22.996  16.385  11.089 -0.5085 -0.2438 -0.3661
54858DOD     C1 8393   9.534  16.258   1.937 -0.3876  0.0624 -0.2970
54858DOD     C2 8394   9.283  15.789   2.000 -0.1101 -0.2032 -0.1591
54858DOD     C3 8395   9.093  15.350   1.998  0.1494  0.1095  0.0632
54859DOD     C1 8396   4.165   1.626   7.660 -0.0597  0.0877  0.1062
54859DOD     C2 8397   4.373   1.921   7.351 -0.1606  0.0006  0.0636
54859DOD     C3 8398   4.536   1.971   6.930  0.0152 -0.0868 -0.3977
54860DOD     C1 8399  29.527  18.059  24.501  0.0974 -0.2744 -0.0713
54860DOD     C2 8400  29.373  18.260  24.940 -0.0262 -0.0972 -0.3084
54860DOD     C3 8401  29.069  18.566  25.130 -0.0810 -0.4276  0.1169
54861DOD     C1 8402  11.159   8.863   4.862 -0.0554 -0.1706 -0.0862
54861DOD     C2 8403  10.899   9.056   4.518  0.2015 -0.1375 -0.1583
54861DOD     C3 8404  10.484   9.183   4.390  0.0939  0.1860  0.2327
54862DOD     C1 8405   0.134  16.839  10.066  0.2138 -0.3178 -0.0249
54862DOD     C2 8406  30.190  16.449  10.008 -0.1758 -0.1763 -0.0349
54862DOD     C3 8407  30.117  16.019  10.207 -0.1423  0.4004  0.3857
54863DOD     C1 8408  27.791  23.406   7.448 -0.1588 -0.1568 -0.1053
54863DOD     C2 8409  27.664  23.128   7.815  0.2096 -0.0650 -0.0680
54863DOD     C3 8410  27.905  22.815   8.175  0.0254  0.0740 -0.0329
54864DOD     C1 8411  23.567  24.943  12.069 -0.0871 -0.0251 -0.3326
54864DOD     C2 8412  23.842  25.218  12.288 -0.2192 -0.2708  0.2052
54864DOD     C3 8413  24.269  25.285  12.384  0.3391  0.2437 -0.0425
54865DOD     C1 8414  10.168  20.621  11.301 -0.0064 -0.0997 -0.5892
54865DOD     C2 8415  10.530  20.799  11.077 -0.2695 -0.0626  0.0176
54865DOD     C3 8416  10.984  20.725  10.968  0.1753  0.2527 -0.1697
54866DOD     C1 8417  12.068   5.747  19.872 -0.0088  0.1720  0.3368
54866DOD     C2 8418  11.778   5.531  19.631 -0.3657 -0.0395 -0.0550
54866DOD     C3 8419  11.319   5.535  19.552  0.0235  0.0250 -0.1552
54867DOD     C1 8420   6.319  23.993  25.579 -0.4200 -0.0642 -0.0952
54867DOD     C2 8421   6.797  24.078  25.739  0.1734  0.0313 -0.0931
54867DOD     C3 8422   7.249  24.024  25.626 -0.1803 -0.3768 -0.1510
54868DOD     C1 8423  15.206  30.321   1.499  0.0326 -0.0401 -0.1581
54868DOD     C2 8424  15.046  30.028   1.151  0.1924  0.2630  0.3829
54868DOD     C3 8425  14.877  30.008   0.717 -0.1366 -0.1682 -0.0115
54869DOD     C1 8426   5.171  15.413  19.140  0.1935 -0.1699  0.0602
54869DOD     C2 8427   5.027  15.539  18.683  0.0504  0.0318  0.1719
54869DOD     C3 8428   4.905  15.388  18.292  0.2335 -0.1390 -0.1963
54870DOD     C1 8429  29.916  16.253  11.596 -0.2796 -0.0310  0.1283
54870DOD     C2 8430  29.551  16.021  11.521  0.1993 -0.0473  0.0342
54870DOD     C3 8431  29.230  15.840  11.243 -0.0279 -0.0256 -0.4994
54871DOD     C1 8432   9.653  30.200  13.674  0.2276  0.3370 -0.1536
54871DOD     C2 8433   9.826  29.986  14.055 -0.0968 -0.0005  0.0140
54871DOD     C3 8434  10.184  29.946  14.427 -0.1345 -0.0684 -0.2237
54872DOD     C1 8435  14.448  30.293  26.360  0.0681  0.1196 -0.1235
54872DOD     C2 8436  14.580  30.091  25.932 -0.2547  0.0650 -0.1691
54872DOD     C3 8437  14.903  30.130  25.622 -0.0387 -0.2327  0.0353
54873DOD     C1 8438  18.715  16.895   3.549  0.0387  0.1286  0.2862
54873DOD     C2 8439  18.911  16.674   3.871  0.1944  0.0053  0.1075
54873DOD     C3 8440  19.204  16.495   4.214 -0.0163  0.0635  0.1726
54874DOD     C1 8441  29.985  12.012  23.117 -0.0590 -0.3101 -0.2084
54874DOD     C2 8442  29.948  11.825  23.561  0.1969 -0.2300  0.2126
54874DOD     C3 8443  30.283  11.732  23.874  0.0767 -0.0375 -0.0492
54875DOD     C1 8444  22.017   9.311  28.393 -0.2541 -0.2020 -0.1050
54875DOD     C2 8445  21.672   9.393  28.124  0.1871 -0.0179 -0.2263
54875DOD     C3 8446  21.469   9.617  27.720  0.2178 -0.0621 -0.1035
54876DOD     C1 8447  20.562  10.322  11.288 -0.0678  0.0834  0.2275
54876DOD     C2 8448  20.724   9.896  11.254  0.2580 -0.0787  0.1441
54876DOD     C3 8449  21.108   9.671  11.048  0.2296  0.2186  0.0407
54877DOD     C1 8450  16.367  19.962  17.631  0.2171 -0.1718 -0.0842
54877DOD     C2 8451  16.313  19.974  17.152  0.0150  0.0777  0.0872
54877DOD     C3 8452  16.055  20.320  16.926 -0.1839 -0.0074 -0.0564
54878DOD     C1 8453  21.452   7.346  12.976  0.1069 -0.0727 -0.0550
54878DOD     C2 8454  21.344   6.984  13.321  0.0701 -0.1434  0.0161
54878DOD     C3 8455  21.317   6.900  13.840  0.0508  0.1142 -0.2498
54879DOD     C1 8456  28.684  23.126   8.627 -0.0418  0.0145  0.3568
54879DOD     C2 8457  28.679  23.444   8.246 -0.1591 -0.0952 -0.1905
54879DOD     C3 8458  28.399  23.706   7.987  0.1428  0.1666  0.1321
54880DOD     C1 8459  29.606   1.842   0.967 -0.3315 -0.1856 -0.2217
54880DOD     C2 8460  29.759   1.824   1.440 -0.0273 -0.0199  0.0143
54880DOD     C3 8461  30.109   1.811   1.776  0.1107 -0.1593  0.0123
54881DOD     C1 8462  29.618  26.783  30.228 -0.0781 -0.2837 -0.0688
54881DOD     C2 8463  29.803  27.024  29.913  0.0978  0.0565 -0.1921
54881DOD     C3 8464  29.909  27.478  29.758  0.0732  0.0081  0.0148
54882DOD     C1 8465   6.979  10.863  16.357 -0.0814 -0.1456  0.0253
54882DOD     C2 8466   7.115  10.453  16.566 -0.2617 -0.0236 -0.0436
54882DOD     C3 8467   7.278  10.142  16.790  0.1471  0.0842 -0.2212
54883DOD     C1 8468  28.011  13.159  11.136 -0.3416  0.0570  0.0328
54883DOD     C2 8469  28.090  13.578  11.274 -0.1319  0.2244  0.0017
54883DOD     C3 8470  27.906  14.005  11.280 -0.1483  0.0684  0.0191
54884DOD     C1 8471   3.561  22.594   5.748  0.1137  0.0753 -0.1908
54884DOD     C2 8472   3.358  22.336   5.415  0.1463  0.0626  0.1198
54884DOD     C3 8473   3.150  22.132   5.058 -0.0676 -0.3172  0.0100
54885DOD     C1 8474  15.142  13.299  23.779  0.1268  0.0619  0.0139
54885DOD     C2 8475  14.719  13.397  23.553  0.5482  0.0637 -0.0126
54885DOD     C3 8476  14.279  13.534  23.735 -0.1335 -0.0956 -0.2639
54886DOD     C1 8477   5.728   0.126  27.272  0.1700 -0.0795  0.0711
54886DOD     C2 8478   5.712   0.240  26.844  0.1478 -0.1619  0.0702
54886DOD     C3 8479   5.263   0.282  26.606  0.1520  0.1322  0.0237
54887DOD     C1 8480   0.074  16.432  10.450  0.1273  0.0902 -0.1141
54887DOD     C2 8481   0.408  16.422  10.138 -0.1277  0.0941  0.1838
54887DOD     C3 8482   0.318  16.575   9.720  0.3227  0.2426 -0.1093
54888DOD     C1 8483   8.108   8.187   6.471 -0.0181 -0.0879 -0.0135
54888DOD     C2 8484   8.517   7.962   6.608  0.3083 -0.0758  0.1474
54888DOD     C3 8485   8.816   7.925   6.927  0.3094  0.1695  0.0974
54889DOD     C1 8486   9.778  29.698  27.841  0.1038  0.0810  0.2374
54889DOD     C2 8487  10.147  29.516  27.986  0.2720 -0.2552  0.3522
54889DOD     C3 8488  10.236  29.470  28.418  0.0786 -0.3031 -0.0154
54890DOD     C1 8489   1.337  29.171  22.040  0.0842 -0.0735 -0.0678
54890DOD     C2 8490   1.402  28.795  21.845  0.0278  0.1804 -0.0741
54890DOD     C3 8491   1.180  28.578  21.524  0.1012  0.0727  0.0560
54891DOD     C1 8492   9.148  19.816   4.650  0.3655  0.0068  0.1106
54891DOD     C2 8493   8.776  19.585   4.415 -0.2316  0.0524  0.0632
54891DOD     C3 8494   8.551  19.201   4.406  0.1687 -0.0800 -0.2456
54892DOD     C1 8495  16.076   9.264   3.955 -0.0559  0.1084  0.1490
54892DOD     C2 8496  16.410   9.032   4.172 -0.2989  0.3755 -0.4439
54892DOD     C3 8497  16.484   8.549   4.164 -0.1433  0.0932 -0.0022
54893DOD     C1 8498  30.114   9.155   8.633 -0.0384  0.0104 -0.3176
54893DOD     C2 8499  29.828   9.267   8.965  0.1505  0.0579  0.3504
54893DOD     C3 8500  29.476   9.257   9.298  0.1660  0.1021 -0.2529
54894DOD     C1 8501  14.677   8.171   1.585  0.2404  0.0792  0.4186
54894DOD     C2 8502  14.799   7.854   1.892  0.0192 -0.1591  0.0866
54894DOD     C3 8503  14.675   7.408   1.876 -0.0537  0.0025  0.2278
54895DOD     C1 8504   9.378  27.292  14.460  0.0992  0.1708  0.2362
54895DOD     C2 8505   9.064  27.647  14.320  0.1437  0.0148 -0.1551
54895DOD     C3 8506   9.048  28.088  14.133 -0.0768 -0.0984  0.1254
54896DOD     C1 8507  24.164  12.517   7.740  0.0436 -0.1497 -0.1644
54896DOD     C2 8508  24.304  12.194   7.463 -0.1072 -0.0166  0.1956
54896DOD     C3 8509  24.692  11.908   7.401 -0.3011  0.0622  0.1572
54897DOD     C1 8510  28.785   2.283   8.342  0.0152  0.1101  0.2052
54897DOD     C2 8511  28.794   2.007   7.937  0.3881  0.0217 -0.2087
54897DOD     C3 8512  28.906   2.116   7.507 -0.0984  0.0142  0.1583
54898DOD     C1 8513  20.763  26.795  14.732  0.2972  0.1431  0.2198
54898DOD     C2 8514  21.193  26.775  14.819 -0.1519 -0.0155  0.1238
54898DOD     C3 8515  21.550  26.562  15.080 -0.0881 -0.1129  0.0455
54899DOD     C1 8516   3.898   3.494  12.240 -0.0625  0.0654 -0.0916
54899DOD     C2 8517   4.084   3.316  12.577  0.0696  0.0965 -0.2208
54899DOD     C3 8518   4.121   3.525  12.979  0.0815 -0.3409  0.0056
54900DOD     C1 8519  21.935  10.950   0.992  0.0599 -0.1012  0.0285
54900DOD     C2 8520  21.930  10.511   0.785 -0.2962 -0.1884 -0.1383
54900DOD     C3 8521  21.910  10.115   0.646 -0.0063 -0.0212  0.0700
54901DOD     C1 8522   4.297  29.244  29.878  0.2948  0.2653 -0.1422
54901DOD     C2 8523   4.232  28.815  29.824  0.1833  0.1057 -0.3002
54901DOD     C3 8524   4.146  28.350  29.835 -0.0234 -0.0825  0.0805
54902DOD     C1 8525  17.848  10.611  13.467  0.4505 -0.0065 -0.0210
54902DOD     C2 8526  17.744  11.070  13.355 -0.0212  0.4344 -0.0495
54902DOD     C3 8527  17.506  11.420  13.234  0.2661  0.0140  0.0308
54903DOD     C1 8528   4.263  18.158   3.057  0.2939  0.0064 -0.1048
54903DOD     C2 8529   4.027  18.209   3.483 -0.0979  0.0397  0.2558
54903DOD     C3 8530   3.833  17.984   3.868 -0.0679 -0.1608  0.1736
54904DOD     C1 8531  24.475  27.603  29.010  0.0809  0.2144 -0.0013
54904DOD     C2 8532  24.519  27.378  29.358 -0.0707  0.1414  0.3546
54904DOD     C3 8533  24.370  26.910  29.450 -0.0216  0.0221  0.0423
54905DOD     C1 8534   9.168  29.010  10.034 -0.0879 -0.0855  0.0537
54905DOD     C2 8535   8.893  28.572   9.940  0.1134  0.0253 -0.0330
54905DOD     C3 8536   9.036  28.159   9.800  0.1658 -0.1009 -0.2329
54906DOD     C1 8537  22.929  26.033  10.873 -0.0261  0.0639  0.1636
54906DOD     C2 8538  22.567  26.058  10.548  0.2480 -0.2854  0.3023
54906DOD     C3 8539  22.285  26.387  10.256 -0.0028  0.0696 -0.0829
54907DOD     C1 8540  16.165  22.672  23.680  0.0057 -0.2206  0.1037
54907DOD     C2 8541  16.188  22.206  23.563  0.1497 -0.1653 -0.2727
54907DOD     C3 8542  16.114  21.884  23.223  0.0699 -0.1692 -0.1880
54908DOD     C1 8543  25.987  25.877  16.073 -0.1254  0.0424  0.0216
54908DOD     C2 8544  26.271  25.803  16.457 -0.0753 -0.0936  0.0874
54908DOD     C3 8545  26.680  25.915  16.591  0.0511  0.2573  0.0152
54909DOD     C1 8546  12.158  22.605  27.166 -0.0093  0.1177  0.2077
54909DOD     C2 8547  12.297  22.834  26.772  0.1777 -0.0299 -0.0802
54909DOD     C3 8548  12.612  23.204  26.727  0.1884 -0.0081  0.4612
54910DOD     C1 8549  16.219  20.298   2.928 -0.0733  0.0526 -0.0349
54910DOD     C2 8550  15.871  20.074   3.103 -0.2189  0.0789 -0.0196
54910DOD     C3 8551  15.760  19.761   3.407  0.0378 -0.1442  0.1288
54911DOD     C1 8552  18.176  28.459   7.362 -0.4180 -0.2978  0.0960
54911DOD     C2 8553  18.503  28.487   7.676  0.1584 -0.4116 -0.1395
54911DOD     C3 8554  18.641  28.822   7.994 -0.1466 -0.3391  0.0196
54912DOD     C1 8555  16.569  16.525   0.204 -0.1909  0.1684 -0.1777
54912DOD     C2 8556  16.526  17.008   0.159  0.1711  0.1031 -0.2389
54912DOD     C3 8557  16.621  17.420   0.377  0.0057 -0.1724 -0.0841
54913DOD     C1 8558   6.296  22.455  15.156  0.0204  0.3102  0.1352
54913DOD     C2 8559   6.737  22.625  15.168 -0.0907  0.0426 -0.2122
54913DOD     C3 8560   7.011  22.898  15.403 -0.0466  0.2543 -0.1166
54914DOD     C1 8561  21.207  20.915  21.022 -0.1750  0.2042  0.2175
54914DOD     C2 8562  20.813  20.805  21.035  0.1801 -0.1028 -0.0720
54914DOD     C3 8563  20.368  20.721  20.889 -0.2534  0.0157 -0.0140
54915DOD     C1 8564  24.872  20.171  17.121 -0.1690  0.2315 -0.0908
54915DOD     C2 8565  25.097  20.168  16.685  0.2517 -0.0187 -0.2245
54915DOD     C3 8566  25.259  20.117  16.261 -0.1829 -0.0473  0.2115
54916DOD     C1 8567  24.960   4.859  11.253 -0.2246  0.1134 -0.1243
54916DOD     C2 8568  25.224   4.695  10.909 -0.2914 -0.1439 -0.1536
54916DOD     C3 8569  25.477   4.654  10.505  0.0886  0.0653  0.0275
54917DOD     C1 8570  25.649   8.662  23.579 -0.1698 -0.1559  0.1399
54917DOD     C2 8571  25.900   8.976  23.843  0.1270 -0.0429  0.0381
54917DOD     C3 8572  26.196   9.333  23.922  0.0491  0.0280 -0.1518
54918DOD     C1 8573  21.903   0.861   5.198 -0.0857  0.0657 -0.4126
54918DOD     C2 8574  21.917   1.063   4.840 -0.0911 -0.1066 -0.1388
54918DOD     C3 8575  21.743   1.482   4.912  0.0780  0.0702  0.0864
54919DOD     C1 8576  18.980  11.944  28.928 -0.1245 -0.0521 -0.2399
54919DOD     C2 8577  19.125  12.238  29.346  0.0517  0.1337 -0.2109
54919DOD     C3 8578  19.265  12.192  29.821 -0.0582 -0.1468 -0.0903
54920DOD     C1 8579  15.608  30.069   4.556 -0.1090 -0.3422  0.1139
54920DOD     C2 8580  16.021  30.240   4.718  0.3451  0.2216 -0.0622
54920DOD     C3 8581  16.458  30.096   4.586 -0.1506 -0.1517 -0.2101
54921DOD     C1 8582   0.754  19.082   6.542  0.0137 -0.1420 -0.0848
54921DOD     C2 8583   0.513  18.861   6.223 -0.2544 -0.3399  0.1484
54921DOD     C3 8584   0.434  18.870   5.768 -0.1778  0.1941  0.3604
54922DOD     C1 8585  18.716  12.507  27.968 -0.1570 -0.1567 -0.1397
54922DOD     C2 8586  18.598  12.475  28.423  0.2532 -0.0409  0.2224
54922DOD     C3 8587  18.249  12.432  28.705  0.0031 -0.1960 -0.1659
54923DOD     C1 8588  18.614  11.095  22.812  0.1036 -0.3477  0.2284
54923DOD     C2 8589  18.593  10.904  23.211  0.0538 -0.2036  0.1284
54923DOD     C3 8590  18.348  10.676  23.572 -0.3531  0.1021  0.0506
54924DOD     C1 8591  21.455  24.856  27.052  0.0286  0.1311 -0.1956
54924DOD     C2 8592  21.919  24.843  27.190  0.0335 -0.0380 -0.0860
54924DOD     C3 8593  22.312  25.018  27.013  0.1508  0.0391  0.1585
54925DOD     C1 8594  12.302   8.795  18.810 -0.0974 -0.2321 -0.3403
54925DOD     C2 8595  12.311   8.614  18.371  0.1694 -0.1250 -0.1524
54925DOD     C3 8596  12.289   8.251  18.102  0.0448 -0.1096 -0.0390
54926DOD     C1 8597   3.112  11.188   6.327 -0.2746  0.1236  0.0571
54926DOD     C2 8598   3.335  10.782   6.394  0.1376  0.0414 -0.1136
54926DOD     C3 8599   3.443  10.417   6.113 -0.1383 -0.0244  0.1562
54927DOD     C1 8600  11.319  14.205   3.430  0.1045  0.0343 -0.0456
54927DOD     C2 8601  11.148  13.769   3.500  0.2187 -0.2647  0.1496
54927DOD     C3 8602  10.830  13.454   3.356  0.0615  0.1005  0.0369
54928DOD     C1 8603   2.368   4.010  23.040 -0.0609 -0.3665  0.1164
54928DOD     C2 8604   2.642   3.673  23.270  0.0339  0.4401  0.2846
54928DOD     C3 8605   3.020   3.679  23.489 -0.0089 -0.1591  0.1428
54929DOD     C1 8606  21.121  24.925  23.773 -0.0023  0.0643  0.3152
54929DOD     C2 8607  21.431  24.692  23.497  0.0554 -0.0299 -0.0644
54929DOD     C3 8608  21.527  24.713  23.008  0.2814 -0.1334 -0.1840
54930DOD     C1 8609   8.518  15.501   8.188  0.0115  0.0575 -0.0226
54930DOD     C2 8610   8.655  15.608   7.738  0.2251  0.2093 -0.0007
54930DOD     C3 8611   8.830  15.711   7.330  0.1129 -0.2089  0.1051
54931DOD     C1 8612  19.964   0.526  12.507  0.0945  0.1826  0.0662
54931DOD     C2 8613  19.456   0.446  12.436 -0.1438 -0.1033  0.0223
54931DOD     C3 8614  19.098   0.180  12.672 -0.0077 -0.2591 -0.0809
54932DOD     C1 8615   1.928  11.242  21.557 -0.1074  0.1214 -0.0226
54932DOD     C2 8616   2.073  11.467  21.184  0.1519  0.0620  0.5137
54932DOD     C3 8617   2.388  11.365  20.851  0.1989  0.3207 -0.1834
54933DOD     C1 8618  18.429  25.678   7.493  0.2363 -0.1977  0.0378
54933DOD     C2 8619  18.274  25.761   7.075 -0.2568  0.3518 -0.0089
54933DOD     C3 8620  17.968  26.051   7.007  0.0472  0.0263 -0.1383
54934DOD     C1 8621  14.792  28.524  10.379 -0.1830  0.0684 -0.1041
54934DOD     C2 8622  14.478  28.280  10.119 -0.4157 -0.2020  0.1508
54934DOD     C3 8623  14.093  28.069  10.052 -0.1195  0.1279 -0.0579
54935DOD     C1 8624   7.213  15.791  21.157  0.1523  0.5251  0.1724
54935DOD     C2 8625   7.084  15.345  21.024  0.1379 -0.1002 -0.2633
54935DOD     C3 8626   6.860  14.974  20.914  0.1126  0.0375  0.2468
54936DOD     C1 8627  28.713   4.282  22.819  0.0263 -0.1215 -0.1613
54936DOD     C2 8628  28.790   3.867  22.589  0.1734  0.1365 -0.3269
54936DOD     C3 8629  28.844   3.373  22.517  0.3678 -0.0428 -0.4130
54937DOD     C1 8630  12.164  29.692  20.122 -0.0117  0.0326  0.1426
54937DOD     C2 8631  12.303  29.447  19.809 -0.2874 -0.1659 -0.0241
54937DOD     C3 8632  12.336  29.169  19.384  0.0928 -0.0216 -0.3010
54938DOD     C1 8633  12.173  26.096  24.601 -0.1600 -0.0245  0.0131
54938DOD     C2 8634  12.311  26.120  24.105 -0.2180  0.0722 -0.1809
54938DOD     C3 8635  12.679  26.310  23.912  0.1210  0.1957 -0.1410
54939DOD     C1 8636  14.702  20.052  13.307 -0.3630 -0.0166  0.4104
54939DOD     C2 8637  14.781  19.890  13.767 -0.2498 -0.2620  0.0187
54939DOD     C3 8638  14.632  19.946  14.186 -0.2605  0.1989 -0.1779
54940DOD     C1 8639   0.048   3.308  19.561 -0.0763  0.0353  0.1147
54940DOD     C2 8640  30.134   3.179  19.178 -0.1644  0.0859  0.3747
54940DOD     C3 8641  30.171   2.955  18.738 -0.1070  0.0568  0.0541
54941DOD     C1 8642   1.976  23.067  19.466 -0.3795 -0.1627 -0.0147
54941DOD     C2 8643   1.531  23.229  19.591 -0.2955  0.2116 -0.2270
54941DOD     C3 8644   1.212  23.528  19.758  0.1237 -0.0727 -0.2202
54942DOD     C1 8645   0.707  12.770  27.887  0.1076 -0.2214 -0.0779
54942DOD     C2 8646   0.510  12.896  27.473  0.0139  0.0573  0.0736
54942DOD     C3 8647   0.267  13.231  27.278  0.1408  0.0697  0.0544
54943DOD     C1 8648  20.270  27.723  20.028 -0.0477 -0.0469 -0.0367
54943DOD     C2 8649  19.854  27.584  19.815  0.0665 -0.0044  0.0809
54943DOD     C3 8650  19.403  27.398  19.781 -0.2954 -0.0343 -0.1743
54944DOD     C1 8651  11.821  23.520  19.774  0.0573 -0.0598  0.0770
54944DOD     C2 8652  12.270  23.547  19.897  0.0115 -0.0573 -0.2668
54944DOD     C3 8653  12.745  23.442  19.863  0.2293  0.0147  0.0552
54945DOD     C1 8654  29.291   7.539  22.690  0.0856 -0.1377 -0.0052
54945DOD     C2 8655  29.506   7.141  22.718  0.0017  0.2672  0.1708
54945DOD     C3 8656  29.823   6.806  22.601 -0.0523 -0.0957  0.3096
54946DOD     C1 8657  27.173  23.231  15.953 -0.2438  0.3539 -0.0492
54946DOD     C2 8658  27.396  22.959  15.693  0.0246  0.2697 -0.2124
54946DOD     C3 8659  27.533  22.537  15.706  0.1120  0.1350  0.1662
54947DOD     C1 8660  24.367  10.635  13.829 -0.2563 -0.1374 -0.0654
54947DOD     C2 8661  24.100  10.675  14.281  0.0829 -0.1053  0.2649
54947DOD     C3 8662  23.865  10.914  14.667 -0.2685  0.0293  0.0097
54948DOD     C1 8663  25.726  23.196   6.427 -0.1253  0.1000  0.4013
54948DOD     C2 8664  25.770  23.635   6.425 -0.3588 -0.0964  0.1160
54948DOD     C3 8665  25.896  24.014   6.315 -0.4710  0.1548 -0.0085
54949DOD     C1 8666  27.592   9.753   9.286  0.2557  0.0285  0.1940
54949DOD     C2 8667  27.736   9.621   9.718  0.0242 -0.2159  0.1178
54949DOD     C3 8668  27.976   9.450  10.121 -0.0739 -0.2587  0.0254
54950DOD     C1 8669  24.315  22.153  12.620 -0.1240  0.1272  0.0842
54950DOD     C2 8670  23.906  22.076  12.729  0.0107  0.1750  0.0259
54950DOD     C3 8671  23.633  21.693  12.845 -0.2992 -0.1026  0.1418
54951DOD     C1 8672  14.361  15.267  17.573  0.0072 -0.0734  0.0764
54951DOD     C2 8673  14.663  14.981  17.691  0.2195 -0.0814  0.0788
54951DOD     C3 8674  14.938  14.660  17.924  0.1468  0.3863 -0.0759
54952DOD     C1 8675   1.223  12.942  20.942  0.2025  0.0764 -0.1872
54952DOD     C2 8676   1.563  12.657  21.065 -0.1901 -0.1080 -0.0760
54952DOD     C3 8677   1.603  12.342  21.343 -0.0569 -0.1493 -0.0399
54953DOD     C1 8678  28.246  25.076  20.937  0.0756  0.2400 -0.1325
54953DOD     C2 8679  28.741  24.923  21.038  0.0959  0.1183 -0.0759
54953DOD     C3 8680  29.004  24.637  20.783  0.0047  0.1953  0.1055
54954DOD     C1 8681  12.488   7.985  18.509 -0.0465  0.0605 -0.2288
54954DOD     C2 8682  12.819   8.202  18.253  0.4735 -0.1672  0.0561
54954DOD     C3 8683  12.754   8.642  18.088  0.1893 -0.3672 -0.3240
54955DOD     C1 8684  18.061  14.934  25.063  0.3698 -0.2820  0.1625
54955DOD     C2 8685  17.691  14.856  24.845  0.0966 -0.0284 -0.2087
54955DOD     C3 8686  17.277  15.019  24.821 -0.0661 -0.1533  0.2063
54956DOD     C1 8687  12.674   1.360  19.930 -0.1146 -0.0822 -0.1527
54956DOD     C2 8688  12.399   1.076  19.713  0.1133 -0.1670  0.1457
54956DOD     C3 8689  12.311   0.838  19.327  0.0500 -0.0400 -0.2403
54957DOD     C1 8690  12.372  26.937   1.801 -0.3036  0.1354  0.0395
54957DOD     C2 8691  12.373  27.427   1.870  0.1366  0.2096  0.1967
54957DOD     C3 8692  12.054  27.761   2.088 -0.2245  0.2360  0.0849
54958DOD     C1 8693  23.582  22.235   7.838  0.1042  0.2250 -0.0223
54958DOD     C2 8694  23.750  21.842   7.961 -0.0072 -0.1268 -0.0426
54958DOD     C3 8695  24.117  21.544   8.099  0.0645 -0.1455  0.1185
54959DOD     C1 8696  11.467  25.654  29.186 -0.0052  0.0718 -0.1089
54959DOD     C2 8697  11.541  25.188  29.129 -0.0018 -0.0890 -0.0715
54959DOD     C3 8698  11.463  24.780  29.312 -0.0114 -0.1520 -0.1141
54960DOD     C1 8699  14.627   8.641  13.953  0.1965 -0.1484  0.1251
54960DOD     C2 8700  14.582   8.685  13.494 -0.4389  0.3883 -0.0451
54960DOD     C3 8701  14.782   9.099  13.328  0.2072 -0.1830  0.1995
54961DOD     C1 8702  23.308   7.331  13.401  0.0917 -0.3286 -0.0346
54961DOD     C2 8703  23.412   7.765  13.207  0.0388  0.1879 -0.0468
54961DOD     C3 8704  23.335   8.213  13.289  0.0591  0.0788 -0.1280
54962DOD     C1 8705  19.180  10.996  10.236  0.0369 -0.0023  0.3651
54962DOD     C2 8706  19.298  11.417  10.483  0.1489 -0.0400 -0.0368
54962DOD     C3 8707  19.238  11.448  10.981  0.0423  0.1576  0.1190
54963DOD     C1 8708  12.255  26.821  10.902 -0.1638 -0.1438  0.1175
54963DOD     C2 8709  12.295  26.608  11.314  0.4407 -0.0012  0.0807
54963DOD     C3 8710  11.913  26.581  11.594 -0.3049 -0.0610  0.3505
54964DOD     C1 8711  30.259  10.168   4.322  0.1143  0.2775 -0.0998
54964DOD     C2 8712  30.031  10.388   4.630  0.1748  0.2000 -0.0932
54964DOD     C3 8713  29.976  10.666   5.010 -0.0359 -0.0463  0.0401
54965DOD     C1 8714   9.534   8.393  24.232 -0.0198 -0.3029 -0.0800
54965DOD     C2 8715   9.726   7.978  24.099  0.2859 -0.0155  0.0606
54965DOD     C3 8716   9.945   7.916  23.716  0.1690 -0.0662  0.0559
54966DOD     C1 8717   0.885  13.284   8.568  0.1614  0.0503 -0.0094
54966DOD     C2 8718   0.722  12.880   8.563  0.0742  0.2391  0.0834
54966DOD     C3 8719   0.702  12.438   8.371  0.1414 -0.0753  0.0332
54967DOD     C1 8720  21.725   3.746   3.822  0.2010  0.1200 -0.1510
54967DOD     C2 8721  21.576   4.186   3.993 -0.1854  0.1142  0.0395
54967DOD     C3 8722  21.629   4.606   4.255  0.3374 -0.1855  0.2527
54968DOD     C1 8723  27.989  29.064   4.799 -0.2099  0.1866  0.0686
54968DOD     C2 8724  27.678  28.765   4.656  0.4095  0.1196  0.0836
54968DOD     C3 8725  27.409  28.449   4.705  0.2201  0.2554  0.2518
54969DOD     C1 8726   9.844  18.048  13.272 -0.1386 -0.1030 -0.1389
54969DOD     C2 8727   9.795  17.609  13.491  0.1547  0.2209  0.1230
54969DOD     C3 8728   9.725  17.194  13.375 -0.1935 -0.1275  0.0056
54970DOD     C1 8729  12.267   9.881  24.721  0.1725 -0.4381 -0.2258
54970DOD     C2 8730  12.290   9.638  25.150  0.0316  0.0513  0.1349
54970DOD     C3 8731  12.287   9.404  25.568  0.3051  0.0079 -0.1900
54971DOD     C1 8732  20.744  14.272  13.304 -0.1942 -0.0394 -0.0253
54971DOD     C2 8733  20.501  14.244  13.704 -0.0465 -0.1306  0.0595
54971DOD     C3 8734  20.153  14.386  13.938 -0.0542 -0.0818  0.0001
54972DOD     C1 8735  25.144   5.728  22.209  0.4171  0.2137  0.1066
54972DOD     C2 8736  25.232   5.864  22.643 -0.1978 -0.1191  0.2850
54972DOD     C3 8737  25.538   6.187  22.644  0.0603 -0.1135 -0.1084
54973DOD     C1 8738   7.971   2.228   1.310  0.2677  0.2665 -0.1375
54973DOD     C2 8739   8.327   2.443   1.219 -0.1227 -0.0525 -0.1847
54973DOD     C3 8740   8.642   2.770   1.225  0.1315  0.0818 -0.3077
54974DOD     C1 8741  18.739  28.887  23.226 -0.3172 -0.0520  0.2142
54974DOD     C2 8742  18.387  29.037  23.091 -0.0964 -0.0272  0.0455
54974DOD     C3 8743  18.004  29.326  23.037  0.0983  0.2812  0.1799
54975DOD     C1 8744   6.279  25.644  19.291 -0.2843 -0.1236 -0.0077
54975DOD     C2 8745   6.070  25.279  19.134 -0.3073  0.4498  0.2055
54975DOD     C3 8746   6.229  24.907  18.948  0.1173  0.1856  0.1428
54976DOD     C1 8747  26.558  15.555  15.072 -0.1110  0.0036  0.2505
54976DOD     C2 8748  26.752  15.145  14.989 -0.1689  0.2743 -0.2893
54976DOD     C3 8749  27.226  15.155  14.956  0.1994  0.0467 -0.0899
54977DOD     C1 8750  13.762   5.057   3.929  0.1286 -0.0912  0.2629
54977DOD     C2 8751  14.190   4.918   3.885 -0.0007 -0.1408 -0.0903
54977DOD     C3 8752  14.624   4.709   3.839 -0.0167  0.1608  0.0799
54978DOD     C1 8753  13.936   6.128   1.441  0.1479  0.0908 -0.0006
54978DOD     C2 8754  14.355   6.401   1.510 -0.2686  0.0004  0.3096
54978DOD     C3 8755  14.586   6.738   1.741  0.0935 -0.2912 -0.1054
54979DOD     C1 8756   4.109  25.343   7.153  0.0125 -0.3021  0.3539
54979DOD     C2 8757   3.815  25.048   6.961 -0.2907 -0.3045 -0.0700
54979DOD     C3 8758   3.594  24.723   6.712  0.0834  0.0880  0.0707
54980DOD     C1 8759  16.560   2.666   4.808  0.1014 -0.0382  0.2896
54980DOD     C2 8760  16.682   2.242   5.019 -0.0133  0.0465  0.1747
54980DOD     C3 8761  16.402   1.903   5.146 -0.2034 -0.2578  0.1194
54981DOD     C1 8762  14.662  11.847   0.163  0.0232 -0.0351  0.0953
54981DOD     C2 8763  14.356  11.593   0.436  0.0737 -0.0945 -0.5234
54981DOD     C3 8764  14.217  11.292   0.793 -0.2622 -0.0305  0.2846
54982DOD     C1 8765   9.038   7.865   1.382  0.2098  0.1978  0.2110
54982DOD     C2 8766   9.255   8.109   1.037 -0.0262 -0.0506 -0.1669
54982DOD     C3 8767   9.446   8.479   0.899  0.1041 -0.1247  0.1662
54983DOD     C1 8768  14.638  28.538  25.884 -0.0902  0.2033 -0.2852
54983DOD     C2 8769  14.175  28.703  25.919  0.1846  0.0061 -0.1897
54983DOD     C3 8770  13.834  28.560  26.217 -0.3344 -0.1307 -0.2650
54984DOD     C1 8771   2.144  26.877  17.865  0.0859  0.0114  0.0702
54984DOD     C2 8772   2.405  27.011  17.493 -0.2988 -0.0016  0.0562
54984DOD     C3 8773   2.493  27.363  17.234  0.0276  0.1014  0.1843
54985DOD     C1 8774   0.144  11.464  17.112 -0.0564 -0.2013 -0.2719
54985DOD     C2 8775  30.214  11.675  17.453 -0.1295 -0.0423 -0.2215
54985DOD     C3 8776  30.146  11.998  17.756 -0.3652  0.1143  0.2932
54986DOD     C1 8777   3.953  28.596   5.170 -0.0996 -0.2399 -0.0614
54986DOD     C2 8778   4.130  29.028   5.177 -0.2680 -0.1107 -0.0079
54986DOD     C3 8779   4.484  29.290   5.328  0.1509  0.0030  0.0882
54987DOD     C1 8780  18.083  17.699  15.721 -0.1634  0.2321  0.0893
54987DOD     C2 8781  17.793  18.026  15.526 -0.0624 -0.1532  0.1810
54987DOD     C3 8782  17.710  18.427  15.489  0.2557 -0.2126  0.2131
54988DOD     C1 8783   4.750  12.208   9.647  0.2553  0.2031  0.1600
54988DOD     C2 8784   5.027  12.329   9.954 -0.1028 -0.0046 -0.1053
54988DOD     C3 8785   5.282  12.668  10.166  0.3351  0.0971 -0.1657
54989DOD     C1 8786  19.510  27.076  17.876 -0.0845  0.0284 -0.0184
54989DOD     C2 8787  19.831  27.459  17.690  0.1303  0.0934  0.1260
54989DOD     C3 8788  20.176  27.728  17.770  0.0558 -0.2969  0.2641
54990DOD     C1 8789  25.745   6.057  29.932 -0.3792 -0.1620  0.1899
54990DOD     C2 8790  25.311   6.068  29.993 -0.1803 -0.0692 -0.0749
54990DOD     C3 8791  24.889   6.181  29.793 -0.0635 -0.0570  0.0977
54991DOD     C1 8792  28.909   8.119  22.740  0.2172  0.0481  0.2626
54991DOD     C2 8793  28.611   7.983  23.016 -0.2085  0.0512 -0.1498
54991DOD     C3 8794  28.450   7.985  23.437  0.0082  0.0204  0.2538
54992DOD     C1 8795  25.051   5.102  17.636 -0.0805 -0.1963  0.0620
54992DOD     C2 8796  24.632   5.239  17.484 -0.0169  0.1656  0.0700
54992DOD     C3 8797  24.190   5.207  17.316 -0.2577  0.0583 -0.1615
54993DOD     C1 8798  21.601   4.788  18.450  0.0786  0.0231  0.1033
54993DOD     C2 8799  21.800   4.824  18.003 -0.2702 -0.2397  0.5423
54993DOD     C3 8800  21.774   5.056  17.597  0.1450  0.0492  0.0354
54994DOD     C1 8801  15.836  26.372   2.389  0.1602  0.1068  0.0663
54994DOD     C2 8802  15.945  26.796   2.538 -0.0772  0.1038  0.0963
54994DOD     C3 8803  16.272  27.033   2.853  0.1069 -0.2722  0.4061
54995DOD     C1 8804   3.462  15.095  14.287  0.1131 -0.0894 -0.4353
54995DOD     C2 8805   3.797  14.856  14.039 -0.1075 -0.4188  0.2528
54995DOD     C3 8806   4.209  14.631  14.103 -0.2846  0.0740 -0.1389
54996DOD     C1 8807   4.362   5.565   5.564  0.0120  0.1775 -0.0774
54996DOD     C2 8808   4.141   5.204   5.770  0.2515 -0.1451  0.2898
54996DOD     C3 8809   3.918   5.201   6.113 -0.0740 -0.2770 -0.0504
54997DOD     C1 8810  12.207  29.582  27.056 -0.1953 -0.0992  0.0160
54997DOD     C2 8811  12.046  29.260  27.285  0.2184 -0.3229 -0.0093
54997DOD     C3 8812  11.635  29.064  27.182 -0.1135  0.0409  0.0058
54998DOD     C1 8813  16.282  24.891   9.265 -0.2316 -0.2038  0.0257
54998DOD     C2 8814  16.662  24.666   9.316 -0.0176  0.1913 -0.0041
54998DOD     C3 8815  16.837  24.473   9.730 -0.3434 -0.3645  0.2493
54999DOD     C1 8816  14.411   0.555  26.348  0.0181  0.1063 -0.2449
54999DOD     C2 8817  13.956   0.379  26.430  0.1220  0.2888 -0.0536
54999DOD     C3 8818  13.493   0.298  26.445 -0.2513  0.1121  0.0265
55000DOD     C1 8819   7.817  26.871  15.569 -0.0563 -0.0425  0.2701
55000DOD     C2 8820   7.861  27.132  15.154  0.0738  0.2851  0.3492
55000DOD     C3 8821   7.973  27.176  14.701 -0.0495 -0.0981  0.1584
55001DOD     C1 8822  12.986  28.299  22.784 -0.2673  0.0808  0.2716
55001DOD     C2 8823  12.864  27.933  22.555 -0.1738 -0.1263 -0.0245
55001DOD     C3 8824  12.576  27.936  22.229 -0.1880 -0.0964  0.1121
55002DOD     C1 8825  27.800  18.763  10.346 -0.2227  0.2198 -0.3903
55002DOD     C2 8826  27.353  18.891  10.172  0.1794  0.0024 -0.2708
55002DOD     C3 8827  26.899  19.074  10.290 -0.2048  0.3903  0.1328
55003DOD     C1 8828  19.219  25.327  23.706 -0.0953  0.2250 -0.1551
55003DOD     C2 8829  19.376  25.202  23.265  0.2743 -0.1030  0.1115
55003DOD     C3 8830  19.563  25.285  22.834  0.3021  0.0789  0.0868
55004DOD     C1 8831  14.223   4.040  28.719 -0.0122 -0.1270 -0.1546
55004DOD     C2 8832  13.838   4.030  28.396 -0.0460  0.4715 -0.3966
55004DOD     C3 8833  13.694   4.074  27.917 -0.1801 -0.2247 -0.1407
55005DOD     C1 8834  30.073  17.934  28.276 -0.2165  0.0332  0.4503
55005DOD     C2 8835  29.678  17.697  28.193 -0.0541  0.0090 -0.0621
55005DOD     C3 8836  29.421  17.370  28.046  0.0925 -0.1126  0.3389
55006DOD     C1 8837   4.945  27.110   7.599 -0.3473 -0.0960  0.2231
55006DOD     C2 8838   5.397  27.314   7.801 -0.2191  0.1559 -0.0642
55006DOD     C3 8839   5.799  27.330   8.089 -0.3408  0.0534  0.1443
55007DOD     C1 8840  24.056   1.544  16.262 -0.1526  0.2940 -0.3286
55007DOD     C2 8841  24.310   1.941  16.209 -0.2051  0.1075  0.1533
55007DOD     C3 8842  24.261   2.280  15.862 -0.1185  0.0260  0.1047
55008DOD     C1 8843  16.469  13.050  22.764 -0.3583 -0.0467  0.1408
55008DOD     C2 8844  16.598  13.048  23.198  0.0550  0.0422  0.0130
55008DOD     C3 8845  16.374  12.817  23.518  0.0431  0.3118  0.3340
55009DOD     C1 8846  13.911  30.234  13.169  0.0178 -0.2404 -0.2556
55009DOD     C2 8847  13.499  30.274  13.412  0.1292 -0.0900 -0.0404
55009DOD     C3 8848  13.184  30.160  13.720 -0.2890  0.1559 -0.0135
55010DOD     C1 8849   7.849  27.770   3.845 -0.0451 -0.0955  0.0918
55010DOD     C2 8850   8.239  28.083   3.852 -0.1817  0.3521 -0.1883
55010DOD     C3 8851   8.729  28.137   3.827  0.1001 -0.0422 -0.0223
55011DOD     C1 8852   8.699  26.886  21.143 -0.1060 -0.1247  0.1279
55011DOD     C2 8853   8.654  26.442  20.927 -0.1367  0.3233 -0.1127
55011DOD     C3 8854   8.798  26.026  20.766 -0.2126 -0.0190  0.0882
55012DOD     C1 8855  11.714   6.671   1.423  0.1305 -0.1088 -0.0889
55012DOD     C2 8856  11.489   6.414   1.127  0.2843 -0.0153 -0.1396
55012DOD     C3 8857  11.014   6.345   1.188  0.2145  0.0585 -0.4134
55013DOD     C1 8858  28.867   6.441   1.005 -0.2733 -0.0422 -0.2526
55013DOD     C2 8859  28.907   6.365   0.521  0.3027  0.0663  0.1296
55013DOD     C3 8860  28.634   6.227   0.165  0.0918 -0.0059  0.2429
55014DOD     C1 8861  11.412  21.792  10.157 -0.2496 -0.0366 -0.0642
55014DOD     C2 8862  11.504  21.744  10.609 -0.0834  0.1046  0.0288
55014DOD     C3 8863  11.604  21.966  11.004 -0.0704 -0.1161  0.1153
55015DOD     C1 8864  11.352  15.278  13.273 -0.0151  0.2692 -0.0391
55015DOD     C2 8865  11.047  15.371  13.614  0.0240 -0.1784 -0.2088
55015DOD     C3 8866  10.809  15.698  13.717 -0.2234  0.0300  0.2584
55016DOD     C1 8867  29.063  27.252  15.126 -0.3570  0.1029  0.5441
55016DOD     C2 8868  29.441  27.431  15.159 -0.3022  0.2693  0.0361
55016DOD     C3 8869  29.856  27.596  15.209 -0.0034  0.1742 -0.0174
55017DOD     C1 8870  24.643   4.407  26.367  0.2582 -0.2007 -0.1288
55017DOD     C2 8871  24.913   4.673  26.644  0.1855 -0.4539 -0.0395
55017DOD     C3 8872  25.119   4.858  26.994  0.0809 -0.1747  0.3901
55018DOD     C1 8873   3.251   0.130  14.622 -0.1846 -0.1465 -0.1553
55018DOD     C2 8874   3.272   0.224  15.053  0.3203  0.1943  0.1805
55018DOD     C3 8875   3.573   0.328  15.412  0.0899 -0.5709 -0.0916
55019DOD     C1 8876  19.534  19.938   8.445 -0.1756  0.0070 -0.2842
55019DOD     C2 8877  19.051  19.816   8.426  0.2036 -0.4465 -0.1014
55019DOD     C3 8878  18.652  19.865   8.273  0.0114 -0.0271 -0.0959
55020DOD     C1 8879  12.188  14.559  13.540  0.3155 -0.0475  0.3215
55020DOD     C2 8880  12.642  14.397  13.454  0.1001 -0.1088  0.0107
55020DOD     C3 8881  13.088  14.319  13.239  0.0492 -0.2396  0.0659
55021DOD     C1 8882  15.105  13.813  27.065  0.4566 -0.0910  0.0143
55021DOD     C2 8883  15.153  14.238  26.857 -0.0005  0.1592 -0.0333
55021DOD     C3 8884  15.233  14.637  26.899 -0.1288 -0.0159 -0.0573
55022DOD     C1 8885  26.469  15.217  14.641 -0.0538  0.4124 -0.2047
55022DOD     C2 8886  26.256  15.088  15.055  0.0344  0.0732  0.0808
55022DOD     C3 8887  26.379  14.959  15.503 -0.0994  0.2714  0.2475
55023DOD     C1 8888  15.291  13.503  24.283  0.0174 -0.0511 -0.2215
55023DOD     C2 8889  15.442  13.458  24.749 -0.0065 -0.0010  0.2058
55023DOD     C3 8890  15.501  13.360  25.219 -0.0443 -0.0850  0.2114
55024DOD     C1 8891   9.374  29.689  27.580 -0.2143  0.0315  0.0982
55024DOD     C2 8892   9.694  30.050  27.478  0.2872 -0.2534  0.2334
55024DOD     C3 8893  10.118  30.018  27.707  0.1260 -0.1221  0.0373
55025DOD     C1 8894  26.108  18.533  11.510 -0.2387 -0.1089 -0.0379
55025DOD     C2 8895  26.108  18.820  11.124  0.0610 -0.1139 -0.1674
55025DOD     C3 8896  26.090  19.159  10.856 -0.0339  0.1925  0.3447
55026DOD     C1 8897  26.836  12.049  27.278 -0.1043 -0.1033  0.1105
55026DOD     C2 8898  26.825  11.580  27.221 -0.0243 -0.0279 -0.1688
55026DOD     C3 8899  26.852  11.106  27.048  0.2927  0.0961 -0.1992
55027DOD     C1 8900  24.377  13.999  12.601 -0.2911 -0.0542 -0.1236
55027DOD     C2 8901  24.628  13.616  12.391  0.2198  0.0812 -0.1833
55027DOD     C3 8902  24.941  13.276  12.520 -0.1700  0.2434  0.3772
55028DOD     C1 8903   4.010  14.205  28.967 -0.1059 -0.0736  0.1451
55028DOD     C2 8904   3.578  14.301  28.780 -0.2845 -0.0287  0.1481
55028DOD     C3 8905   3.237  14.248  28.452 -0.4775 -0.2466 -0.1921
55029DOD     C1 8906  18.426   1.418  10.121  0.1958  0.3434  0.0705
55029DOD     C2 8907  18.404   1.852   9.897 -0.1855  0.0354 -0.1982
55029DOD     C3 8908  18.287   2.015   9.441 -0.0314  0.1793  0.1264
55030DOD     C1 8909  10.278  20.282  23.770  0.0962  0.0433  0.1605
55030DOD     C2 8910   9.870  20.596  23.680 -0.0480  0.0076  0.3439
55030DOD     C3 8911   9.451  20.637  23.835  0.1312 -0.4604  0.0050
55031DOD     C1 8912   1.863  14.830   5.771  0.1875 -0.0942 -0.0534
55031DOD     C2 8913   1.604  15.220   5.773 -0.0866  0.0714 -0.0687
55031DOD     C3 8914   1.184  15.232   5.927 -0.0190  0.1830  0.2317
55032DOD     C1 8915   6.968  10.371   2.464 -0.1256 -0.2086  0.3546
55032DOD     C2 8916   7.144  10.422   2.927 -0.0033  0.0715 -0.1925
55032DOD     C3 8917   7.258  10.251   3.352 -0.0540 -0.2539 -0.1241
55033DOD     C1 8918   7.148   6.593  11.114  0.0861 -0.0705 -0.0302
55033DOD     C2 8919   7.307   6.735  11.530 -0.0810  0.0989 -0.1780
55033DOD     C3 8920   7.469   7.110  11.756 -0.0338 -0.3836  0.1747
55034DOD     C1 8921   5.681  15.917   9.025 -0.3613  0.0116 -0.2605
55034DOD     C2 8922   6.168  15.986   8.998 -0.2856 -0.1016  0.1361
55034DOD     C3 8923   6.210  16.392   8.845 -0.0967  0.1184  0.0431
55035DOD     C1 8924   6.151  21.434  11.556 -0.0949  0.1677  0.5165
55035DOD     C2 8925   6.255  21.836  11.389  0.0030 -0.3266 -0.0337
55035DOD     C3 8926   6.575  22.148  11.199  0.1176 -0.2214  0.1267
55036DOD     C1 8927   2.116  23.829  18.600 -0.2154  0.2491 -0.1761
55036DOD     C2 8928   1.763  23.517  18.560 -0.1842  0.1922 -0.2699
55036DOD     C3 8929   1.442  23.327  18.786  0.2393  0.0429  0.2359
55037DOD     C1 8930  22.195  18.353  16.701 -0.0496 -0.2064 -0.3434
55037DOD     C2 8931  22.103  18.147  17.135 -0.0631 -0.1716 -0.0608
55037DOD     C3 8932  21.759  18.145  17.468 -0.0624 -0.3778 -0.0707
55038DOD     C1 8933   6.908  29.650  23.421  0.1791  0.0410 -0.0006
55038DOD     C2 8934   7.325  29.901  23.496  0.3210 -0.2338  0.2783
55038DOD     C3 8935   7.649  30.069  23.144  0.0158 -0.1110 -0.2220
55039DOD     C1 8936   1.599   3.385  22.818  0.3944  0.0681  0.2504
55039DOD     C2 8937   1.709   3.394  23.224  0.2185 -0.1509  0.0161
55039DOD     C3 8938   1.792   3.260  23.655  0.4518  0.1882 -0.1230
55040DOD     C1 8939  14.632  22.923  25.137 -0.1067  0.0036  0.0295
55040DOD     C2 8940  14.516  22.480  25.321 -0.1411  0.2662  0.1201
55040DOD     C3 8941  14.526  22.154  25.651 -0.2213 -0.2142 -0.0585
55041DOD     C1 8942   2.798  26.887   8.904  0.0449  0.2185  0.2510
55041DOD     C2 8943   2.361  26.837   9.066 -0.0828  0.0502 -0.1921
55041DOD     C3 8944   2.020  27.089   9.108  0.1714 -0.1696 -0.0534
55042DOD     C1 8945   8.064  15.246   7.279 -0.1500 -0.1703  0.0176
55042DOD     C2 8946   8.128  15.494   6.921 -0.0745 -0.0260  0.1242
55042DOD     C3 8947   8.432  15.871   6.923 -0.1954  0.2304 -0.0957
55043DOD     C1 8948  28.477  28.964   5.546  0.3747 -0.2097 -0.0966
55043DOD     C2 8949  28.140  28.936   5.264  0.1361 -0.0045  0.3020
55043DOD     C3 8950  27.951  28.585   5.038  0.4940  0.1333  0.0796
55044DOD     C1 8951  16.472  19.552  21.718 -0.0192 -0.1304  0.0251
55044DOD     C2 8952  16.238  19.498  22.134 -0.1501 -0.0383 -0.2300
55044DOD     C3 8953  15.961  19.725  22.454 -0.2192  0.0725 -0.0320
55045DOD     C1 8954  22.154  21.812  16.600  0.0857 -0.0707 -0.0896
55045DOD     C2 8955  21.968  21.944  16.190 -0.1678 -0.0688  0.1548
55045DOD     C3 8956  22.050  22.075  15.770  0.3340 -0.2735  0.0843
55046DOD     C1 8957   2.729  10.981  22.880  0.1053  0.2781 -0.3839
55046DOD     C2 8958   2.286  11.072  23.077 -0.1157 -0.0438 -0.1815
55046DOD     C3 8959   1.976  10.932  23.374 -0.0695 -0.0986 -0.1780
55047DOD     C1 8960  21.098   0.244  30.054 -0.1600  0.0953  0.1258
55047DOD     C2 8961  20.738   0.257  29.765 -0.1238 -0.1954 -0.1108
55047DOD     C3 8962  20.366   0.363  29.530  0.0702  0.0033 -0.0697
55048DOD     C1 8963  27.309  23.315  22.391  0.0816  0.0477  0.2197
55048DOD     C2 8964  27.007  23.365  22.044  0.0067 -0.2609 -0.2262
55048DOD     C3 8965  26.769  23.129  21.715  0.2146 -0.2053 -0.0035
55049DOD     C1 8966  16.815  16.704   7.096 -0.2797  0.2913 -0.0869
55049DOD     C2 8967  17.193  16.804   6.899 -0.3720 -0.1978  0.0275
55049DOD     C3 8968  17.643  17.026   6.996  0.0473 -0.0253  0.2099
55050DOD     C1 8969   8.416  19.214  11.965  0.0165 -0.1115  0.0898
55050DOD     C2 8970   8.297  19.515  11.615  0.1922  0.0491 -0.1699
55050DOD     C3 8971   8.124  19.800  11.256  0.1510 -0.2081 -0.2706
55051DOD     C1 8972   2.949   8.024   9.154  0.0315 -0.1726  0.2356
55051DOD     C2 8973   3.151   7.605   9.067 -0.0227 -0.2686 -0.3040
55051DOD     C3 8974   3.554   7.387   9.198  0.0770 -0.0130  0.0893
55052DOD     C1 8975  19.320  15.417  22.615  0.1942  0.1813 -0.2434
55052DOD     C2 8976  18.901  15.217  22.458 -0.1325 -0.4469  0.0932
55052DOD     C3 8977  18.488  15.285  22.198 -0.0203  0.3407  0.4710
55053DOD     C1 8978   6.162  23.546   0.032 -0.0173 -0.2335  0.2042
55053DOD     C2 8979   6.352  23.201  30.184 -0.0376 -0.0276 -0.4088
55053DOD     C3 8980   6.448  23.307  29.696 -0.1549  0.1922  0.2654
55054DOD     C1 8981   6.663   1.030  21.519 -0.1750 -0.0656  0.0455
55054DOD     C2 8982   6.656   1.258  21.972 -0.1561 -0.0747 -0.0699
55054DOD     C3 8983   6.780   1.496  22.377  0.2216 -0.0027  0.2003
55055DOD     C1 8984   8.875  21.940  29.426  0.0620  0.1261  0.0448
55055DOD     C2 8985   9.137  22.343  29.356  0.0055 -0.3416 -0.0563
55055DOD     C3 8986   9.035  22.802  29.349  0.2000 -0.1565  0.0821
55056DOD     C1 8987   3.799  25.765   4.449  0.0317  0.0001 -0.0533
55056DOD     C2 8988   4.239  25.604   4.548 -0.1046  0.0833 -0.1531
55056DOD     C3 8989   4.663  25.465   4.557 -0.0516 -0.1534 -0.0179
55057DOD     C1 8990  13.714   0.766   1.619  0.0199  0.1348  0.3252
55057DOD     C2 8991  13.976   0.513   1.882  0.1699 -0.2256 -0.0718
55057DOD     C3 8992  14.352   0.325   1.668  0.0822 -0.0611  0.3267
55058DOD     C1 8993  21.914  22.230   0.197 -0.2272  0.0986  0.0383
55058DOD     C2 8994  22.281  22.434  30.294 -0.1044  0.2495  0.5785
55058DOD     C3 8995  22.557  22.693  30.058 -0.0148  0.2024 -0.0614
55059DOD     C1 8996  28.774  13.231  29.340  0.0680 -0.2716 -0.2699
55059DOD     C2 8997  29.204  13.309  29.465  0.2522  0.1748  0.2083
55059DOD     C3 8998  29.601  13.342  29.300  0.0897  0.0067 -0.0082
55060DOD     C1 8999  26.298  19.523  21.240 -0.1441  0.1141 -0.2067
55060DOD     C2 9000  26.203  19.095  21.448  0.0346 -0.0810  0.0881
55060DOD     C3 9001  26.195  18.729  21.700  0.0652  0.2967  0.3193
55061DOD     C1 9002  27.096   7.576  23.051 -0.0685  0.1725 -0.0727
55061DOD     C2 9003  26.751   7.505  23.356  0.0084 -0.0003  0.0887
55061DOD     C3 9004  26.734   7.694  23.798 -0.2145  0.1775  0.1832
55062DOD     C1 9005   2.706   8.035  15.443  0.3359  0.2098  0.0652
55062DOD     C2 9006   2.951   8.158  15.038  0.2690 -0.2800 -0.2330
55062DOD     C3 9007   2.811   8.149  14.602  0.0857 -0.3168  0.2490
55063DOD     C1 9008  23.812  14.870  22.091  0.2307  0.0537  0.0432
55063DOD     C2 9009  23.473  15.051  22.402 -0.2417 -0.0149 -0.2399
55063DOD     C3 9010  23.226  15.426  22.624 -0.2408  0.3666  0.1387
55064DOD     C1 9011  15.311  28.752  24.177 -0.1276  0.1371  0.0076
55064DOD     C2 9012  14.897  28.824  23.944 -0.1348 -0.0412 -0.0008
55064DOD     C3 9013  14.497  28.910  23.566 -0.1231  0.2560  0.1635
55065DOD     C1 9014  12.360  13.431  23.128 -0.3092 -0.0548 -0.0023
55065DOD     C2 9015  12.220  13.830  22.893 -0.2381 -0.1883 -0.0919
55065DOD     C3 9016  12.333  14.225  22.664  0.1680 -0.0368 -0.0813
55066DOD     C1 9017  21.682   6.272  22.775  0.0538 -0.0344  0.3204
55066DOD     C2 9018  21.289   6.317  23.050  0.2439  0.1567  0.2688
55066DOD     C3 9019  20.933   6.639  23.088  0.1120  0.0774  0.2188
55067DOD     C1 9020  28.381  11.700  22.055 -0.2718 -0.0610 -0.3001
55067DOD     C2 9021  28.353  12.151  22.168 -0.2590  0.0954 -0.0257
55067DOD     C3 9022  28.124  12.549  22.385  0.0664  0.0209 -0.0022
55068DOD     C1 9023  20.147  29.089  14.391 -0.0820 -0.2599 -0.1302
55068DOD     C2 9024  20.247  28.705  14.180  0.0269  0.1593  0.0496
55068DOD     C3 9025  20.250  28.321  14.394 -0.0745  0.0028  0.2013
55069DOD     C1 9026  17.398  22.184  29.175  0.0632 -0.1139  0.0893
55069DOD     C2 9027  17.207  22.266  28.718 -0.0410 -0.1878 -0.0789
55069DOD     C3 9028  17.038  22.115  28.253 -0.0766  0.1892 -0.4481
55070DOD     C1 9029  20.533  18.995  28.018  0.1070 -0.1472  0.0009
55070DOD     C2 9030  20.967  19.007  27.813 -0.1175  0.1656  0.1187
55070DOD     C3 9031  21.366  19.227  27.777  0.1775 -0.0852  0.0953
55071DOD     C1 9032   9.287   2.326   3.037 -0.1679  0.0693 -0.0944
55071DOD     C2 9033   9.099   2.723   3.217  0.1049 -0.1875  0.0748
55071DOD     C3 9034   9.047   3.065   3.446  0.0680 -0.1813  0.2076
55072DOD     C1 9035  24.557  16.329   2.563 -0.2227  0.0903  0.1806
55072DOD     C2 9036  24.170  16.534   2.304  0.0860 -0.2193 -0.0159
55072DOD     C3 9037  23.857  16.839   2.427 -0.0340 -0.0750  0.3405
55073DOD     C1 9038  17.988  26.557  25.153 -0.3171  0.2480 -0.1359
55073DOD     C2 9039  17.781  26.728  25.589 -0.1959 -0.0103 -0.1626
55073DOD     C3 9040  17.695  26.573  25.979 -0.0853  0.3300  0.0213
55074DOD     C1 9041  27.394  28.327  14.439  0.0942  0.0785  0.2121
55074DOD     C2 9042  26.954  28.380  14.408  0.0063 -0.2503  0.0651
55074DOD     C3 9043  26.467  28.390  14.395  0.2089 -0.2748  0.0239
55075DOD     C1 9044  19.689  13.749  27.730 -0.0174  0.0723  0.1777
55075DOD     C2 9045  19.269  13.629  27.908  0.1885 -0.1539  0.0271
55075DOD     C3 9046  18.926  13.292  27.765  0.0140 -0.0334 -0.1624
55076DOD     C1 9047  19.428   0.773  27.363 -0.1934  0.1475 -0.1487
55076DOD     C2 9048  19.025   0.873  27.612 -0.2106 -0.2692 -0.3374
55076DOD     C3 9049  18.867   1.106  27.998 -0.0698  0.0701 -0.0643
55077DOD     C1 9050  13.860  24.115   9.355 -0.2831  0.1753 -0.3046
55077DOD     C2 9051  13.738  23.724   9.105 -0.2328  0.2232  0.1580
55077DOD     C3 9052  13.403  23.420   9.224 -0.2372 -0.2717  0.1883
55078DOD     C1 9053   1.262  28.180  11.534  0.2194 -0.3256 -0.0562
55078DOD     C2 9054   1.598  28.378  11.324 -0.1156 -0.1970 -0.2061
55078DOD     C3 9055   1.573  28.779  11.009 -0.3000  0.0876  0.0257
55079DOD     C1 9056  22.785  20.811  11.492  0.3044  0.0873  0.0676
55079DOD     C2 9057  22.782  20.726  11.070 -0.0526  0.0924 -0.1197
55079DOD     C3 9058  22.890  20.735  10.567 -0.0329  0.1533 -0.2145
55080DOD     C1 9059  22.896  25.870   5.283  0.3433 -0.1930  0.0590
55080DOD     C2 9060  22.426  25.934   5.321  0.1254 -0.3523 -0.0063
55080DOD     C3 9061  22.175  25.867   4.946  0.1681  0.1514  0.3394
55081DOD     C1 9062   4.392   1.403  27.863 -0.1261  0.1314  0.0110
55081DOD     C2 9063   4.022   1.714  27.909  0.1185  0.3558  0.1448
55081DOD     C3 9064   3.684   2.040  27.902  0.1344 -0.0326 -0.2331
55082DOD     C1 9065   2.557   3.825   3.883  0.0162  0.0961 -0.2103
55082DOD     C2 9066   2.368   3.444   3.683 -0.1064  0.0735 -0.2992
55082DOD     C3 9067   2.317   3.037   3.375 -0.1544 -0.1313  0.0403
55083DOD     C1 9068  15.516  15.611   0.233 -0.0066  0.2174 -0.2962
55083DOD     C2 9069  15.623  16.016   0.051  0.1650  0.1455  0.2902
55083DOD     C3 9070  15.367  16.273  30.137  0.4354 -0.3056  0.2164
55084DOD     C1 9071  19.245  17.431  17.222 -0.0387 -0.1005 -0.1616
55084DOD     C2 9072  18.870  17.649  17.334  0.1369  0.0312 -0.0902
55084DOD     C3 9073  18.410  17.593  17.315 -0.1669  0.2048 -0.0962
55085DOD     C1 9074   7.587  13.671  17.903  0.2531  0.1032 -0.2437
55085DOD     C2 9075   7.329  13.862  17.555 -0.0625 -0.1374  0.2868
55085DOD     C3 9076   6.970  14.056  17.425  0.0767  0.0299  0.2693
55086DOD     C1 9077   7.237  14.234  12.848  0.1416 -0.0721 -0.3090
55086DOD     C2 9078   6.824  14.192  13.093  0.0243 -0.0555 -0.4454
55086DOD     C3 9079   6.388  14.355  13.012 -0.0926  0.1118 -0.0617
55087DOD     C1 9080  20.605  23.465  26.151  0.2311 -0.0130 -0.2418
55087DOD     C2 9081  20.503  23.037  26.328  0.0441  0.2305  0.2397
55087DOD     C3 9082  20.522  22.608  26.527  0.0397 -0.1365  0.0155
55088DOD     C1 9083   2.518   6.395  14.918 -0.1606  0.1630 -0.1850
55088DOD     C2 9084   2.931   6.605  14.774 -0.2165  0.2908  0.2107
55088DOD     C3 9085   3.202   6.838  14.526  0.0053  0.0394 -0.1687
55089DOD     C1 9086  13.873  18.290  23.848 -0.3191  0.2332 -0.0168
55089DOD     C2 9087  13.711  17.902  23.602  0.3405  0.0228  0.0147
55089DOD     C3 9088  13.435  17.502  23.496 -0.1003 -0.2684 -0.1924
55090DOD     C1 9089  22.728  27.027   5.460  0.1578 -0.0990  0.0350
55090DOD     C2 9090  23.138  26.725   5.605  0.0887 -0.0493  0.1422
55090DOD     C3 9091  23.509  26.589   5.371 -0.1220 -0.0617  0.0516
55091DOD     C1 9092  14.258  18.285  20.629 -0.2192  0.2058  0.0631
55091DOD     C2 9093  14.016  18.575  20.852 -0.3929 -0.2723 -0.0929
55091DOD     C3 9094  13.743  18.972  20.758 -0.3597  0.0425  0.1474
55092DOD     C1 9095  26.553  25.795  23.528  0.2574 -0.0981 -0.1621
55092DOD     C2 9096  26.240  25.610  23.153  0.1663 -0.2010 -0.1975
55092DOD     C3 9097  25.948  25.417  22.819 -0.4024  0.0588 -0.1068
55093DOD     C1 9098  29.430   8.895   8.923 -0.1482  0.1581  0.1242
55093DOD     C2 9099  29.340   9.341   8.783  0.2246  0.0556  0.1298
55093DOD     C3 9100  29.141   9.503   8.419 -0.3065  0.2498  0.0154
55094DOD     C1 9101   8.682  24.853  19.988 -0.1002  0.1137  0.0822
55094DOD     C2 9102   8.966  24.916  19.619 -0.1482  0.0686  0.1100
55094DOD     C3 9103   9.292  24.813  19.357  0.3400  0.0487  0.1199
55095DOD     C1 9104   8.799  23.782   5.568  0.1077 -0.0456 -0.1768
55095DOD     C2 9105   8.561  23.570   5.936 -0.0556 -0.2114  0.0967
55095DOD     C3 9106   8.238  23.452   6.288 -0.2147 -0.5858  0.2040
55096DOD     C1 9107   5.797   5.116  13.986 -0.4004 -0.1096  0.0562
55096DOD     C2 9108   5.414   5.004  13.904 -0.1103  0.2168  0.2602
55096DOD     C3 9109   5.186   4.935  13.423  0.2053 -0.5632 -0.2049
55097DOD     C1 9110  21.442  18.381  28.419 -0.2489  0.2794 -0.0650
55097DOD     C2 9111  21.535  18.051  28.770  0.0519  0.0492  0.1183
55097DOD     C3 9112  21.382  17.885  29.194  0.0833 -0.0421  0.1899
55098DOD     C1 9113  21.746  25.574  28.835  0.0671 -0.0246  0.2526
55098DOD     C2 9114  22.020  25.628  29.213 -0.1275 -0.3822 -0.0649
55098DOD     C3 9115  22.338  25.588  29.553 -0.0143  0.0788  0.2252
55099DOD     C1 9116  10.188   4.520  12.031  0.0311  0.0028  0.1665
55099DOD     C2 9117  10.507   4.506  12.285 -0.2329 -0.3326 -0.0484
55099DOD     C3 9118  10.700   4.551  12.648  0.1547 -0.1620 -0.1610
55100DOD     C1 9119  29.952  25.382  29.548 -0.0016 -0.1697  0.1776
55100DOD     C2 9120  30.261  25.090  29.739  0.0732 -0.0983  0.0939
55100DOD     C3 9121   0.034  25.054  30.163 -0.0096  0.1638  0.4558
55101DOD     C1 9122   1.383   7.885   3.040  0.4403  0.1046 -0.3285
55101DOD     C2 9123   1.751   8.155   3.193  0.2738 -0.0904  0.0376
55101DOD     C3 9124   2.026   8.407   2.922  0.1859 -0.1432 -0.0652
55102DOD     C1 9125   7.174  25.161  18.228  0.5306 -0.0704 -0.2904
55102DOD     C2 9126   6.940  24.736  18.236 -0.0623  0.3393 -0.1076
55102DOD     C3 9127   6.486  24.706  18.235 -0.1862 -0.1835 -0.2437
55103DOD     C1 9128  15.372  23.125  14.475 -0.0969  0.1320 -0.1637
55103DOD     C2 9129  15.747  23.350  14.285 -0.3140  0.1790 -0.2907
55103DOD     C3 9130  16.061  23.636  14.536  0.1586 -0.0583  0.0490
55104DOD     C1 9131  21.216   6.318   0.888  0.0760  0.0337  0.2113
55104DOD     C2 9132  21.610   6.200   0.661  0.0742  0.1735 -0.4437
55104DOD     C3 9133  21.989   5.879   0.480  0.2157 -0.0887  0.2980
55105DOD     C1 9134   1.413   5.088  14.826  0.1491 -0.1276  0.0559
55105DOD     C2 9135   1.226   4.783  14.511  0.2894 -0.1817 -0.1607
55105DOD     C3 9136   1.073   4.911  14.043 -0.1059  0.1836 -0.1332
55106DOD     C1 9137   6.565  28.152  24.108  0.0503  0.3537  0.0925
55106DOD     C2 9138   6.604  28.096  24.546 -0.2412  0.1511 -0.0529
55106DOD     C3 9139   6.771  27.806  24.936 -0.0618  0.1060  0.0558
55107DOD     C1 9140  19.470  21.693  10.691 -0.2774  0.1146  0.0082
55107DOD     C2 9141  19.206  21.734  11.073  0.3591  0.1042  0.1052
55107DOD     C3 9142  18.916  21.290  11.085 -0.0414  0.0176 -0.2029
55108DOD     C1 9143   1.777   8.130   9.865  0.0843  0.1299  0.3392
55108DOD     C2 9144   1.413   8.382   9.717  0.1035  0.1716  0.4207
55108DOD     C3 9145   1.014   8.345   9.367  0.1473  0.0421  0.0758
55109DOD     C1 9146  29.842  26.410  24.004  0.1892  0.1588  0.0019
55109DOD     C2 9147  30.274  26.499  24.154 -0.0749 -0.2229 -0.1394
55109DOD     C3 9148   0.344  26.596  24.149  0.0044 -0.2995 -0.0861
55110DOD     C1 9149  15.487  21.440  14.079  0.0306  0.0380  0.1150
55110DOD     C2 9150  15.411  21.002  14.043  0.3125  0.1223  0.0828
55110DOD     C3 9151  15.548  20.597  14.123  0.2481  0.1135  0.0212
55111DOD     C1 9152  25.351  10.468  28.010 -0.1182  0.0143 -0.0218
55111DOD     C2 9153  25.067  10.649  28.324  0.0929  0.2870  0.1111
55111DOD     C3 9154  24.770  11.005  28.428  0.2623 -0.0315 -0.2895
55112DOD     C1 9155   8.601  21.085  13.302 -0.0162 -0.4211  0.1389
55112DOD     C2 9156   8.803  21.038  13.748  0.0320  0.3043 -0.3238
55112DOD     C3 9157   8.784  21.174  14.216 -0.0683  0.1839 -0.2714
55113DOD     C1 9158  29.292  24.927  11.295 -0.2052  0.2394 -0.3284
55113DOD     C2 9159  29.056  25.147  11.644 -0.0652 -0.2855  0.2522
55113DOD     C3 9160  28.760  25.077  11.992  0.1783  0.2982 -0.1391
55114DOD     C1 9161  29.407   1.614   2.467 -0.0548 -0.1904 -0.0627
55114DOD     C2 9162  29.251   2.069   2.251 -0.1244 -0.0926 -0.0801
55114DOD     C3 9163  29.573   2.371   2.172 -0.0852  0.1064  0.2352
55115DOD     C1 9164  18.521  16.071  17.116 -0.4136 -0.0799 -0.1064
55115DOD     C2 9165  18.250  16.142  16.736  0.1891 -0.1088  0.0198
55115DOD     C3 9166  18.023  16.018  16.348  0.0831 -0.0689 -0.1619
55116DOD     C1 9167   4.429   1.493  12.196  0.0491 -0.2334  0.0203
55116DOD     C2 9168   4.586   1.709  11.809  0.0914  0.0440 -0.2930
55116DOD     C3 9169   4.780   1.683  11.349 -0.3796  0.2056 -0.1150
55117DOD     C1 9170  28.371  10.632  19.419  0.0025  0.0123  0.0128
55117DOD     C2 9171  27.902  10.690  19.342  0.3888  0.3450  0.0489
55117DOD     C3 9172  27.577  10.500  19.115  0.3324 -0.4527  0.1511
55118DOD     C1 9173  12.261  21.448   0.927 -0.0585  0.0856  0.2631
55118DOD     C2 9174  12.441  21.339   0.515 -0.1715  0.1381 -0.1362
55118DOD     C3 9175  12.398  21.409   0.077 -0.0790 -0.1476  0.0695
55119DOD     C1 9176  11.798   0.231  29.935 -0.1295  0.0375 -0.0002
55119DOD     C2 9177  11.928   0.416   0.013 -0.0593  0.2114  0.0242
55119DOD     C3 9178  11.728   0.624   0.416 -0.0938 -0.2035  0.0479
55120DOD     C1 9179  27.988  16.689   3.884  0.2518 -0.0687  0.0386
55120DOD     C2 9180  27.890  17.133   3.915  0.4341  0.2111  0.3008
55120DOD     C3 9181  27.619  17.426   4.122 -0.0957 -0.1432 -0.2400
55121DOD     C1 9182   0.713  21.983   1.873 -0.0040 -0.0448  0.1235
55121DOD     C2 9183   0.870  22.232   2.248 -0.1200 -0.0616  0.2615
55121DOD     C3 9184   1.189  22.271   2.608 -0.1904 -0.0075  0.0145
55122DOD     C1 9185   3.957  27.927  25.608  0.1995 -0.1019  0.0428
55122DOD     C2 9186   4.347  27.689  25.610  0.3919  0.0287 -0.1550
55122DOD     C3 9187   4.789  27.562  25.670  0.0205 -0.1134  0.0864
55123DOD     C1 9188   4.137  22.586  24.691 -0.1967  0.0910 -0.0646
55123DOD     C2 9189   4.438  22.800  24.931 -0.1606 -0.0538  0.1776
55123DOD     C3 9190   4.416  23.179  25.203  0.1080 -0.0605 -0.2964
55124DOD     C1 9191  19.678  18.870   3.854 -0.0119  0.0863  0.1645
55124DOD     C2 9192  19.744  18.419   3.963  0.1022 -0.0573 -0.1844
55124DOD     C3 9193  19.791  17.959   3.992  0.2799 -0.1129  0.0418
55125DOD     C1 9194   4.791  19.015  18.567  0.0063 -0.3306  0.0509
55125DOD     C2 9195   4.571  18.603  18.566  0.2922  0.1417  0.0114
55125DOD     C3 9196   4.300  18.351  18.843 -0.1856  0.0948 -0.1821
55126DOD     C1 9197  12.466   2.877   4.955  0.1105  0.3128  0.2312
55126DOD     C2 9198  12.785   2.776   4.639  0.1035  0.0546 -0.1265
55126DOD     C3 9199  13.167   2.624   4.393  0.3730  0.3273  0.2282
55127DOD     C1 9200   0.085  24.140  20.524  0.1088  0.1246 -0.1528
55127DOD     C2 9201  30.067  23.854  20.430  0.1015 -0.3441  0.1991
55127DOD     C3 9202  29.933  23.402  20.314  0.1167 -0.0548  0.0910
55128DOD     C1 9203   1.236   6.487   6.788 -0.2228  0.1718 -0.1353
55128DOD     C2 9204   0.809   6.757   6.789  0.0412 -0.1379 -0.0690
55128DOD     C3 9205   0.480   7.034   6.732 -0.0221 -0.0029  0.2774
55129DOD     C1 9206  14.504  25.264  14.164  0.2873  0.0002  0.2520
55129DOD     C2 9207  14.886  25.293  13.947  0.3217  0.0738 -0.0927
55129DOD     C3 9208  15.215  25.206  13.538 -0.0987  0.3920 -0.0932
55130DOD     C1 9209  27.450   3.322  10.055 -0.1931  0.0296  0.0872
55130DOD     C2 9210  27.261   2.827  10.028  0.1380 -0.0062 -0.2614
55130DOD     C3 9211  26.896   2.626  10.249  0.1473  0.1697  0.0445
55131DOD     C1 9212  18.649  23.074  11.449 -0.2839 -0.0477 -0.0778
55131DOD     C2 9213  18.526  22.615  11.612 -0.2204 -0.1884  0.1370
55131DOD     C3 9214  18.675  22.452  12.056  0.0807  0.1809  0.1782
55132DOD     C1 9215  11.448   8.662  27.188  0.1406 -0.0657 -0.1521
55132DOD     C2 9216  11.013   8.731  27.091 -0.2418  0.0131  0.2069
55132DOD     C3 9217  10.726   9.083  27.318  0.0101  0.0800  0.3015
55133DOD     C1 9218  20.753  29.127  13.395  0.0651 -0.0447 -0.0580
55133DOD     C2 9219  21.033  29.466  13.380  0.1407  0.0180  0.1568
55133DOD     C3 9220  21.273  29.608  13.744 -0.0614  0.1116 -0.1239
55134DOD     C1 9221   8.422  10.621  28.081  0.2107 -0.3559  0.0218
55134DOD     C2 9222   8.740  10.910  27.938  0.0720  0.1044  0.1600
55134DOD     C3 9223   8.881  11.384  27.991  0.4746 -0.0239  0.1525
55135DOD     C1 9224  21.381  25.113  19.043  0.1624 -0.3307  0.0725
55135DOD     C2 9225  21.449  25.325  18.638  0.0099  0.2570  0.1288
55135DOD     C3 9226  21.770  25.139  18.295  0.2156 -0.3208  0.1657
55136DOD     C1 9227   3.506   8.999  27.145 -0.1260 -0.0931 -0.2912
55136DOD     C2 9228   3.225   8.987  26.797 -0.3399 -0.0298 -0.0360
55136DOD     C3 9229   2.751   8.927  26.613  0.0205 -0.3057  0.2181
55137DOD     C1 9230   8.207  23.967  11.998  0.1035  0.4646  0.0041
55137DOD     C2 9231   8.325  24.097  11.515  0.0152  0.0997 -0.0723
55137DOD     C3 9232   8.485  24.256  11.103  0.1013 -0.0650  0.0724
55138DOD     C1 9233  17.511   6.941  12.640 -0.0746  0.1958 -0.0813
55138DOD     C2 9234  17.310   6.714  12.290  0.3114  0.1960 -0.1613
55138DOD     C3 9235  17.302   6.377  11.982  0.1069  0.1985  0.0799
55139DOD     C1 9236  29.548  13.708  13.804  0.0062  0.1494 -0.0197
55139DOD     C2 9237  29.937  13.960  13.774  0.1378  0.1933  0.1817
55139DOD     C3 9238   0.001  13.962  13.965 -0.2146 -0.1059 -0.2290
55140DOD     C1 9239  11.437  10.769  10.742  0.0175  0.0574 -0.0703
55140DOD     C2 9240  11.754  10.950  11.070  0.1411 -0.0439 -0.1166
55140DOD     C3 9241  12.042  11.238  11.414  0.0651 -0.1470 -0.1795
55141DOD     C1 9242  28.494  12.562  19.461  0.0481 -0.2112 -0.1610
55141DOD     C2 9243  28.689  12.505  19.074  0.0371 -0.2666  0.2957
55141DOD     C3 9244  28.916  12.577  18.653 -0.1901  0.3658 -0.2285
55142DOD     C1 9245  20.312   1.182  23.663  0.1193  0.0744 -0.0617
55142DOD     C2 9246  20.551   1.512  23.921 -0.0738  0.1192  0.3157
55142DOD     C3 9247  20.866   1.896  24.036 -0.0684 -0.0373 -0.3483
55143DOD     C1 9248  26.250  26.403  13.496 -0.2178 -0.1336 -0.1001
55143DOD     C2 9249  25.900  26.499  13.152  0.0302 -0.0788 -0.1161
55143DOD     C3 9250  25.571  26.604  12.861  0.0079 -0.0741 -0.3865
55144DOD     C1 9251  13.997  14.492  23.931 -0.1138 -0.1129 -0.0475
55144DOD     C2 9252  14.077  14.007  23.937 -0.1824 -0.1633  0.0187
55144DOD     C3 9253  14.223  13.669  24.236 -0.0220 -0.2552  0.3115
55145DOD     C1 9254  12.115  17.489   0.586 -0.2589  0.2156 -0.1345
55145DOD     C2 9255  12.172  17.027   0.530 -0.2238 -0.0844 -0.0739
55145DOD     C3 9256  12.461  16.811   0.242 -0.1902 -0.0441 -0.2542
55146DOD     C1 9257  23.680   2.809   9.113 -0.0359 -0.0650 -0.0427
55146DOD     C2 9258  23.210   2.837   9.148 -0.0232  0.1435  0.1058
55146DOD     C3 9259  22.760   2.672   9.191 -0.0636 -0.1471 -0.1821
55147DOD     C1 9260  15.908  22.141  15.061  0.1102  0.0104  0.3423
55147DOD     C2 9261  15.545  22.382  14.911  0.0814  0.3749 -0.1943
55147DOD     C3 9262  15.366  22.653  14.561  0.0511 -0.1863 -0.1131
55148DOD     C1 9263   0.735  28.112  12.586 -0.1709  0.0533 -0.0230
55148DOD     C2 9264   0.375  28.397  12.596  0.0116 -0.0288 -0.0362
55148DOD     C3 9265   0.075  28.733  12.371  0.2040  0.1522  0.1065
55149DOD     C1 9266  27.329   5.871   1.470 -0.2510 -0.0980 -0.2064
55149DOD     C2 9267  27.115   6.110   1.127  0.0100 -0.0114 -0.0761
55149DOD     C3 9268  26.978   6.207   0.723 -0.0987 -0.3342  0.1660
55150DOD     C1 9269  12.623   5.265  14.880 -0.0075 -0.0975 -0.2446
55150DOD     C2 9270  12.634   5.526  15.214 -0.0711 -0.0280 -0.0526
55150DOD     C3 9271  12.458   5.398  15.620 -0.0112  0.0957 -0.1110
55151DOD     C1 9272  10.202  17.521  28.739  0.4807 -0.1762  0.0968
55151DOD     C2 9273  10.415  17.190  29.058 -0.2795  0.1350  0.2195
55151DOD     C3 9274  10.483  16.802  29.245  0.1803  0.1376 -0.1780
55152DOD     C1 9275  10.323  11.033  30.157  0.0941  0.0691 -0.0314
55152DOD     C2 9276  10.145  11.453  29.937  0.1673  0.2761  0.1423
55152DOD     C3 9277   9.880  11.702  29.627 -0.4356 -0.0764  0.3874
55153DOD     C1 9278  25.083  28.207  12.128  0.2488  0.0302 -0.0027
55153DOD     C2 9279  24.994  27.840  11.858  0.0557  0.2258 -0.0936
55153DOD     C3 9280  24.765  27.700  11.415 -0.2112  0.2721 -0.1102
55154DOD     C1 9281  19.249  21.666  20.738 -0.0635  0.1264  0.2499
55154DOD     C2 9282  18.908  21.714  20.440  0.2599  0.0636 -0.0604
55154DOD     C3 9283  18.701  21.764  20.015 -0.0367  0.2079 -0.0869
55155DOD     C1 9284   3.342  26.426  15.994 -0.2273 -0.0544  0.2042
55155DOD     C2 9285   3.667  26.089  15.945  0.1815 -0.3516  0.1483
55155DOD     C3 9286   3.710  25.643  16.071  0.0205 -0.1194 -0.1268
55156DOD     C1 9287  25.660   9.825   1.447  0.1001  0.0559  0.2068
55156DOD     C2 9288  25.359   9.538   1.472 -0.1717 -0.1741  0.2618
55156DOD     C3 9289  25.273   9.141   1.732 -0.2668  0.3036  0.0342
55157DOD     C1 9290  29.869  26.952  10.451 -0.1733  0.3032 -0.0145
55157DOD     C2 9291  29.505  26.667  10.514 -0.0810 -0.3056  0.0211
55157DOD     C3 9292  29.180  26.399  10.570  0.1715 -0.3394 -0.0619
55158DOD     C1 9293  14.487   1.522  20.628  0.0769  0.0314  0.1584
55158DOD     C2 9294  14.216   1.268  20.882  0.0776  0.0132 -0.3859
55158DOD     C3 9295  14.100   1.323  21.335  0.0688  0.2074 -0.1509
55159DOD     C1 9296   0.300   1.196  15.956  0.1061 -0.2947 -0.0443
55159DOD     C2 9297   0.346   1.188  16.439 -0.1851  0.1886  0.2842
55159DOD     C3 9298   0.651   1.124  16.841  0.4743  0.4357 -0.1187
55160DOD     C1 9299  26.979   5.556  25.766 -0.1669 -0.0720  0.1168
55160DOD     C2 9300  27.304   5.528  25.398  0.2227  0.0618 -0.1505
55160DOD     C3 9301  27.481   5.401  24.985  0.1243  0.1617  0.3189
55161DOD     C1 9302  15.113   3.214  11.918  0.0387  0.2567 -0.0565
55161DOD     C2 9303  15.279   3.418  12.321  0.0120  0.0628  0.3271
55161DOD     C3 9304  15.129   3.371  12.746 -0.0390  0.1110  0.0601
55162DOD     C1 9305   3.296  26.327  12.911 -0.1134  0.3011  0.1364
55162DOD     C2 9306   3.428  26.496  13.332  0.0126  0.0562  0.1639
55162DOD     C3 9307   3.873  26.532  13.587 -0.0343  0.0352  0.2480
55163DOD     C1 9308  21.729  22.387  13.248 -0.0460  0.0511 -0.1698
55163DOD     C2 9309  21.523  22.759  13.017  0.1884 -0.0720  0.0091
55163DOD     C3 9310  21.258  23.144  12.908  0.0026  0.0195 -0.1180
55164DOD     C1 9311  14.209   9.741  24.906 -0.0706 -0.0763 -0.2031
55164DOD     C2 9312  14.537   9.578  25.188 -0.0432  0.0489 -0.2230
55164DOD     C3 9313  14.701   9.252  25.467 -0.0854  0.0567  0.0222
55165DOD     C1 9314  27.529   0.299  16.193  0.3603 -0.1385 -0.2249
55165DOD     C2 9315  27.347   0.465  15.803 -0.0401  0.0824 -0.2392
55165DOD     C3 9316  27.358   0.776  15.461  0.3176  0.1256  0.1926
55166DOD     C1 9317   7.270  14.345   2.812  0.4830 -0.1317 -0.5015
55166DOD     C2 9318   6.969  14.422   2.391 -0.0185  0.2609 -0.0694
55166DOD     C3 9319   6.935  14.371   1.935 -0.1920 -0.0648 -0.0920
55167DOD     C1 9320  22.652   3.510  10.414  0.1599  0.0702  0.0373
55167DOD     C2 9321  23.011   3.768  10.325 -0.2645  0.1644 -0.0726
55167DOD     C3 9322  23.278   4.154  10.455 -0.2573 -0.0661  0.0646
55168DOD     C1 9323   1.076  13.377   1.335 -0.0624  0.2739 -0.2598
55168DOD     C2 9324   0.631  13.246   1.416  0.1703 -0.0317  0.1534
55168DOD     C3 9325   0.172  13.245   1.248 -0.0396 -0.0232  0.2308
55169DOD     C1 9326  29.868  29.921  16.074 -0.1783 -0.0816  0.0086
55169DOD     C2 9327  29.734   0.024  15.898  0.1241 -0.0457 -0.2869
55169DOD     C3 9328  29.910   0.057  15.477 -0.0788 -0.2939  0.0468
55170DOD     C1 9329  10.514  29.768  15.030  0.3112  0.1320  0.1282
55170DOD     C2 9330  10.458  29.592  14.618  0.0050  0.3840 -0.0992
55170DOD     C3 9331  10.185  29.337  14.306 -0.2149 -0.2101  0.1829
55171DOD     C1 9332  22.060  18.846   0.052 -0.2425 -0.0071 -0.1869
55171DOD     C2 9333  21.961  19.304   0.082  0.0948 -0.2129 -0.4897
55171DOD     C3 9334  21.669  19.628  30.131  0.0979 -0.3082  0.3071
55172DOD     C1 9335  19.890  10.267   6.055  0.0219 -0.0608 -0.2198
55172DOD     C2 9336  19.601  10.511   5.771  0.0111  0.5045 -0.1435
55172DOD     C3 9337  19.239  10.407   5.515  0.0158 -0.1718  0.0942
55173DOD     C1 9338  11.681  14.879   8.470  0.0483 -0.0563 -0.1715
55173DOD     C2 9339  11.253  14.644   8.444  0.0741  0.1320  0.0822
55173DOD     C3 9340  10.829  14.644   8.643  0.0774 -0.0862 -0.2923
55174DOD     C1 9341  24.764  22.878  15.804 -0.2779  0.2032  0.2111
55174DOD     C2 9342  24.605  22.719  15.356  0.1334  0.1401  0.1199
55174DOD     C3 9343  24.632  22.607  14.897 -0.2036 -0.2709  0.1660
55175DOD     C1 9344  17.834  26.987  26.754 -0.1213 -0.3743  0.0578
55175DOD     C2 9345  18.013  26.738  27.093  0.0019 -0.0633 -0.1301
55175DOD     C3 9346  18.384  26.461  27.248  0.0121  0.0111  0.0861
55176DOD     C1 9347   9.062  13.060  26.513 -0.0507 -0.2106 -0.2849
55176DOD     C2 9348   9.323  12.721  26.747  0.1955  0.0796 -0.2383
55176DOD     C3 9349   9.589  12.385  26.668  0.0946 -0.0546 -0.0847
55177DOD     C1 9350  10.791  18.766  29.524  0.2572  0.1828 -0.3900
55177DOD     C2 9351  11.090  18.733  29.858 -0.0479  0.0553 -0.1192
55177DOD     C3 9352  11.223  18.831  30.290 -0.0282  0.0001  0.0517
55178DOD     C1 9353   8.025  25.706  23.143 -0.0771  0.1185 -0.1628
55178DOD     C2 9354   8.096  25.804  22.667 -0.3171 -0.0415  0.0655
55178DOD     C3 9355   8.345  25.933  22.270 -0.1303 -0.0900  0.0962
55179DOD     C1 9356   7.031  18.187  20.059 -0.2070 -0.2850 -0.0127
55179DOD     C2 9357   7.205  17.868  20.384  0.1713 -0.1585 -0.2224
55179DOD     C3 9358   7.309  17.474  20.514 -0.1544  0.2635 -0.4084
55180DOD     C1 9359   0.430  22.444  24.704 -0.2295 -0.2208 -0.0708
55180DOD     C2 9360   0.311  22.895  24.576  0.0061  0.1826 -0.0709
55180DOD     C3 9361   0.105  23.267  24.335  0.0172 -0.1216  0.1183
55181DOD     C1 9362  18.908   5.712  21.070  0.1839 -0.0219  0.1757
55181DOD     C2 9363  19.245   6.048  21.178 -0.1140  0.1059  0.1977
55181DOD     C3 9364  19.639   6.340  21.172 -0.0097  0.0858 -0.1356
55182DOD     C1 9365   2.250  15.366  14.424 -0.1311 -0.3133  0.2976
55182DOD     C2 9366   1.873  15.112  14.513 -0.2230  0.2111 -0.0844
55182DOD     C3 9367   1.483  14.997  14.776  0.0062  0.1440  0.1423
55183DOD     C1 9368   0.073   5.469  28.823  0.2462 -0.1510 -0.1901
55183DOD     C2 9369  30.262   5.068  28.998 -0.0443 -0.0824  0.1135
55183DOD     C3 9370  30.116   4.606  29.117 -0.1612  0.0821  0.2332
55184DOD     C1 9371   8.838  25.000  29.136  0.0997  0.1450 -0.1092
55184DOD     C2 9372   9.129  24.703  29.295 -0.2323  0.0949  0.0855
55184DOD     C3 9373   9.419  24.443  29.598  0.0573 -0.2928  0.2355
55185DOD     C1 9374  17.745  26.985  17.937  0.2178 -0.0493  0.0907
55185DOD     C2 9375  17.939  26.958  18.379 -0.1581  0.3209  0.0648
55185DOD     C3 9376  18.147  26.883  18.800  0.1627  0.0375 -0.4119
55186DOD     C1 9377   3.879   0.769   6.457  0.2419  0.0158 -0.0956
55186DOD     C2 9378   4.050   0.367   6.397  0.1089 -0.0976  0.2238
55186DOD     C3 9379   4.465   0.097   6.371  0.0307  0.1705 -0.1503
55187DOD     C1 9380  18.254  23.238  15.631 -0.2283  0.2760  0.0309
55187DOD     C2 9381  18.300  22.859  15.826  0.0522  0.3385 -0.0309
55187DOD     C3 9382  18.189  22.383  15.803 -0.0324 -0.4198 -0.1906
55188DOD     C1 9383   1.159   7.560   2.223  0.2622 -0.1250 -0.2013
55188DOD     C2 9384   0.959   8.053   2.143  0.1638  0.0625 -0.0302
55188DOD     C3 9385   0.929   8.508   2.024  0.0187 -0.1176 -0.0782
55189DOD     C1 9386   4.862  18.254  25.033 -0.0791  0.1908 -0.1797
55189DOD     C2 9387   4.688  18.248  24.574  0.3073 -0.0568 -0.2785
55189DOD     C3 9388   4.415  18.174  24.223  0.1345  0.2743  0.0620
55190DOD     C1 9389  11.852  10.685  23.013  0.1750 -0.0138  0.3528
55190DOD     C2 9390  12.028  10.631  23.453 -0.2607  0.1529 -0.0811
55190DOD     C3 9391  12.058  10.409  23.909 -0.1239 -0.3169  0.0036
55191DOD     C1 9392  13.650   8.894   9.606  0.0279 -0.0535  0.1209
55191DOD     C2 9393  13.805   9.202   9.307  0.0325 -0.0036 -0.0556
55191DOD     C3 9394  13.919   9.620   9.123  0.1799  0.0135 -0.2177
55192DOD     C1 9395  28.476   3.746   9.596 -0.4246  0.0993 -0.0099
55192DOD     C2 9396  28.384   3.610  10.026 -0.1491  0.1935  0.0286
55192DOD     C3 9397  28.365   3.824  10.510  0.0533 -0.1045  0.2676
55193DOD     C1 9398  13.764  19.925  15.313  0.1968 -0.3679  0.1347
55193DOD     C2 9399  14.040  19.792  14.998 -0.1303 -0.1568  0.0674
55193DOD     C3 9400  14.163  19.795  14.559  0.1366  0.1193  0.2839
55194DOD     C1 9401  22.996   3.951  27.172  0.0692  0.2397 -0.2706
55194DOD     C2 9402  23.052   3.518  27.109 -0.0987  0.0151  0.0627
55194DOD     C3 9403  23.273   3.204  27.361 -0.0030 -0.0213 -0.1664
55195DOD     C1 9404  17.181   2.044   1.111  0.0009  0.0995  0.2827
55195DOD     C2 9405  16.770   2.264   1.030 -0.0957  0.0225  0.0358
55195DOD     C3 9406  16.324   2.332   0.899  0.1429 -0.0722 -0.0738
55196DOD     C1 9407  21.130  25.050   0.904  0.1087 -0.0517  0.2087
55196DOD     C2 9408  21.293  25.381   0.597  0.0272  0.1528 -0.2120
55196DOD     C3 9409  21.427  25.758   0.419 -0.0012 -0.1322  0.3197
55197DOD     C1 9410   2.149   0.269  20.430  0.0684 -0.0269  0.0253
55197DOD     C2 9411   1.752   0.345  20.625 -0.0655 -0.1086 -0.1215
55197DOD     C3 9412   1.357   0.215  20.529 -0.1652 -0.0223 -0.2466
55198DOD     C1 9413  29.523  26.582  27.155 -0.1021  0.4493  0.1445
55198DOD     C2 9414  29.536  26.265  26.822  0.4269 -0.0754 -0.2582
55198DOD     C3 9415  29.543  25.896  26.567  0.1514  0.1202  0.0685
55199DOD     C1 9416  19.602   9.588   5.364 -0.2218  0.2380  0.0920
55199DOD     C2 9417  19.817   9.253   5.138 -0.0570 -0.2489  0.0154
55199DOD     C3 9418  20.265   9.057   5.165 -0.2919 -0.1842  0.0787
55200DOD     C1 9419  28.279  26.619  27.541  0.0536  0.2005  0.3146
55200DOD     C2 9420  28.360  26.148  27.616 -0.1855  0.1064  0.1894
55200DOD     C3 9421  28.542  25.768  27.766 -0.1349  0.3710  0.1657
55201DOD     C1 9422   1.741  30.191  16.229 -0.0911 -0.1337  0.3800
55201DOD     C2 9423   2.123  30.231  16.489 -0.0376  0.0828 -0.0886
55201DOD     C3 9424   2.451  30.128  16.756 -0.1398  0.2834  0.1305
55202DOD     C1 9425  28.810   5.441   0.661  0.0670  0.1718 -0.4239
55202DOD     C2 9426  29.251   5.669   0.643  0.1588 -0.1225  0.2503
55202DOD     C3 9427  29.379   6.084   0.573 -0.1563  0.1626 -0.1435
55203DOD     C1 9428   5.884   4.387  14.033  0.3494  0.1262  0.1680
55203DOD     C2 9429   5.733   4.013  13.891  0.1135 -0.1848 -0.0897
55203DOD     C3 9430   5.421   3.908  13.519 -0.1314 -0.0500  0.0296
55204DOD     C1 9431   5.469   5.885   0.877 -0.4651  0.0362 -0.1283
55204DOD     C2 9432   5.896   5.719   0.985  0.0484 -0.0814 -0.1084
55204DOD     C3 9433   6.142   5.431   1.267  0.0920  0.2012 -0.1434
55205DOD     C1 9434  18.587   5.899  29.349 -0.0148  0.3075 -0.1498
55205DOD     C2 9435  18.662   5.461  29.265  0.2626 -0.1328  0.1471
55205DOD     C3 9436  19.075   5.176  29.175 -0.0590 -0.1309  0.1348
55206DOD     C1 9437  24.339  21.051  17.387 -0.1655  0.3061 -0.0798
55206DOD     C2 9438  24.070  20.827  17.043  0.1259 -0.0501 -0.0806
55206DOD     C3 9439  23.755  20.949  16.665  0.3585  0.2887  0.0574
55207DOD     C1 9440  13.471  21.813  26.222 -0.3695 -0.2187  0.0993
55207DOD     C2 9441  13.370  22.155  26.531  0.2889 -0.0728 -0.0738
55207DOD     C3 9442  13.228  22.469  26.850  0.1746 -0.1050  0.0082
55208DOD     C1 9443  15.920  12.502  23.261  0.0548 -0.1989  0.3752
55208DOD     C2 9444  15.653  12.652  22.924  0.1267 -0.0381  0.2164
55208DOD     C3 9445  15.218  12.872  22.722  0.2735 -0.1134  0.1103
55209DOD     C1 9446   0.295  22.082   1.058  0.0391  0.0392 -0.0672
55209DOD     C2 9447   0.008  22.065   0.640 -0.1686  0.0653 -0.1276
55209DOD     C3 9448  30.115  21.807   0.309 -0.0983  0.1028 -0.3087
55210DOD     C1 9449  15.482   7.909  11.070 -0.1244 -0.0482 -0.0160
55210DOD     C2 9450  15.758   7.719  11.429 -0.2649  0.2010 -0.0843
55210DOD     C3 9451  16.006   7.344  11.700  0.1771 -0.1972 -0.0013
55211DOD     C1 9452  23.746   5.092  21.154 -0.2179 -0.0338  0.1281
55211DOD     C2 9453  23.967   4.989  20.761  0.1457  0.0715 -0.0882
55211DOD     C3 9454  24.335   4.632  20.843  0.0431  0.0306  0.0842
55212DOD     C1 9455  29.336   9.397  10.967  0.0996 -0.0584 -0.2563
55212DOD     C2 9456  29.555   9.691  10.754 -0.0759  0.1926 -0.3888
55212DOD     C3 9457  29.794  10.037  10.728  0.1538 -0.1014 -0.0403
55213DOD     C1 9458   9.156   6.811  28.526  0.0654 -0.0666  0.0883
55213DOD     C2 9459   8.779   6.860  28.271  0.3535 -0.2289 -0.1036
55213DOD     C3 9460   8.409   7.151  28.282 -0.0016 -0.0109 -0.0710
55214DOD     C1 9461  29.526   8.875   6.748  0.0997 -0.1866 -0.0786
55214DOD     C2 9462  29.932   8.647   6.822 -0.2131 -0.1485 -0.1033
55214DOD     C3 9463  30.280   8.384   7.098  0.0073  0.0708 -0.0979
55215DOD     C1 9464  30.022  15.401  22.540  0.1169  0.3591 -0.0334
55215DOD     C2 9465  29.810  15.782  22.795 -0.4065 -0.2754 -0.1240
55215DOD     C3 9466  29.635  16.089  23.025 -0.0974 -0.0428  0.0359
55216DOD     C1 9467   0.510  17.736  21.600 -0.0659 -0.2600  0.1187
55216DOD     C2 9468   0.920  17.805  21.368 -0.0352  0.0039 -0.1669
55216DOD     C3 9469   1.442  17.823  21.326  0.1795 -0.1955 -0.0972
55217DOD     C1 9470  15.941   5.578  22.551 -0.1765  0.1400  0.1910
55217DOD     C2 9471  15.897   5.218  22.831  0.2271  0.1529  0.3980
55217DOD     C3 9472  15.401   5.262  23.023 -0.0870  0.0764 -0.2100
55218DOD     C1 9473  21.447  24.747  22.129  0.3204  0.1171  0.2121
55218DOD     C2 9474  21.475  24.443  21.780  0.2758  0.0513  0.2578
55218DOD     C3 9475  21.397  24.046  21.619 -0.1905 -0.2230 -0.2684
55219DOD     C1 9476   8.609  18.617  30.251 -0.1491  0.0895 -0.0607
55219DOD     C2 9477   8.350  18.460   0.267 -0.0791  0.2025  0.2607
55219DOD     C3 9478   8.288  18.483   0.737  0.3129  0.2144  0.0901
55220DOD     C1 9479   5.705  24.960   4.971 -0.2196 -0.1153 -0.2606
55220DOD     C2 9480   5.322  24.956   5.245 -0.0482 -0.0193  0.3038
55220DOD     C3 9481   4.992  25.084   5.525 -0.2006 -0.0572 -0.1460
55221DOD     C1 9482  25.472  17.570  14.562 -0.1042 -0.1619 -0.2512
55221DOD     C2 9483  25.622  17.229  14.279 -0.0086 -0.2799 -0.1346
55221DOD     C3 9484  25.295  16.898  14.143 -0.0709  0.1204 -0.1886
55222DOD     C1 9485   4.679  21.126   4.179  0.1879  0.3280 -0.0775
55222DOD     C2 9486   4.770  20.669   4.275  0.0643  0.1524 -0.6502
55222DOD     C3 9487   4.530  20.238   4.137  0.0392 -0.0002  0.0733
55223DOD     C1 9488  28.537  29.958   8.574  0.1240  0.0057  0.0921
55223DOD     C2 9489  28.855  30.126   8.733 -0.2379 -0.1984  0.1048
55223DOD     C3 9490  29.085   0.159   8.627 -0.0578 -0.1052 -0.0699
55224DOD     C1 9491  12.549  17.054   9.991 -0.3651 -0.1592  0.1620
55224DOD     C2 9492  12.823  16.892   9.663 -0.4842  0.1486 -0.1639
55224DOD     C3 9493  13.109  16.939   9.256  0.1542  0.3384 -0.0759
55225DOD     C1 9494  17.539   1.871  11.310 -0.1743 -0.2630 -0.1446
55225DOD     C2 9495  17.458   2.331  11.385  0.0391 -0.1617 -0.1560
55225DOD     C3 9496  17.785   2.688  11.286  0.1479 -0.5406  0.1466
55226DOD     C1 9497  17.473  28.200  22.028 -0.0924 -0.2934 -0.0689
55226DOD     C2 9498  17.200  28.571  22.057 -0.2053  0.0424 -0.0107
55226DOD     C3 9499  17.328  29.024  22.098  0.3865 -0.0001 -0.2097
55227DOD     C1 9500   4.781  24.976   4.617 -0.1758 -0.0313  0.1134
55227DOD     C2 9501   4.963  25.101   4.227 -0.0019 -0.1247 -0.0057
55227DOD     C3 9502   5.002  25.139   3.755 -0.1339 -0.0624  0.0895
55228DOD     C1 9503  24.936  27.209  25.665 -0.0473 -0.1161 -0.2494
55228DOD     C2 9504  25.117  27.621  25.629  0.1387  0.1821  0.1261
55228DOD     C3 9505  24.945  28.053  25.545 -0.2415  0.1655  0.1911
55229DOD     C1 9506  23.339  29.309  27.480  0.1415  0.1241  0.1164
55229DOD     C2 9507  23.319  29.713  27.391 -0.1232 -0.4047 -0.0267
55229DOD     C3 9508  23.690  30.053  27.386  0.1011 -0.4534 -0.1165
55230DOD     C1 9509   1.025  20.361   1.499  0.0749 -0.0463  0.0378
55230DOD     C2 9510   1.404  20.029   1.695 -0.0643  0.2112 -0.1357
55230DOD     C3 9511   1.682  20.154   2.083  0.2009 -0.1032 -0.0354
55231DOD     C1 9512   7.158  27.083  21.964 -0.2247 -0.1433  0.1739
55231DOD     C2 9513   7.145  26.795  22.311  0.3556 -0.1338 -0.3825
55231DOD     C3 9514   7.407  26.865  22.730  0.2176 -0.1144  0.2436
55232DOD     C1 9515  18.055  27.224  21.344 -0.2130 -0.0225  0.3225
55232DOD     C2 9516  18.397  26.984  21.129 -0.0468 -0.4400  0.3190
55232DOD     C3 9517  18.637  26.613  20.957  0.0903  0.1589  0.1053
55233DOD     C1 9518  10.223   8.372  10.859  0.0671  0.0571 -0.2635
55233DOD     C2 9519  10.139   7.897  10.878 -0.0266  0.2547 -0.1981
55233DOD     C3 9520  10.101   7.420  10.907 -0.1923  0.0275  0.3753
55234DOD     C1 9521  21.590  29.238   1.499 -0.1630  0.0237  0.1035
55234DOD     C2 9522  21.554  29.682   1.492 -0.1217 -0.0701  0.2086
55234DOD     C3 9523  21.841  30.027   1.308  0.1102 -0.2076 -0.1436
55235DOD     C1 9524   5.957  25.477  19.664  0.0044 -0.0310  0.0492
55235DOD     C2 9525   5.888  25.089  19.803  0.0756  0.3133 -0.2333
55235DOD     C3 9526   5.831  24.705  20.101 -0.2163  0.1384 -0.1256
55236DOD     C1 9527  17.710  16.217   6.672  0.0391 -0.1479  0.2556
55236DOD     C2 9528  17.966  16.470   6.376  0.0049  0.1132  0.2991
55236DOD     C3 9529  18.218  16.827   6.420  0.0065  0.1828 -0.0546
55237DOD     C1 9530  17.142  14.837   5.847  0.0371 -0.0406 -0.1032
55237DOD     C2 9531  17.200  15.279   5.688  0.2136 -0.0562 -0.0701
55237DOD     C3 9532  17.168  15.709   5.713  0.0593 -0.1719  0.0639
55238DOD     C1 9533  23.328  27.442   8.736 -0.0611 -0.2560 -0.2109
55238DOD     C2 9534  23.112  27.335   8.317  0.0608 -0.3044  0.1859
55238DOD     C3 9535  23.010  27.265   7.850 -0.0690  0.1619 -0.2151
55239DOD     C1 9536  11.016  21.317  20.978 -0.2597 -0.4065 -0.3310
55239DOD     C2 9537  11.363  21.303  21.304  0.1144  0.0947  0.1699
55239DOD     C3 9538  11.718  21.085  21.461  0.1217 -0.0629 -0.0825
55240DOD     C1 9539   6.354   5.431  13.183  0.0720 -0.1230  0.3994
55240DOD     C2 9540   6.522   5.737  13.480 -0.1573  0.4224 -0.1725
55240DOD     C3 9541   6.546   6.211  13.432  0.2529  0.0791  0.0278
55241DOD     C1 9542   9.562   3.682  22.323 -0.0981  0.4167  0.2565
55241DOD     C2 9543   9.384   3.982  21.989  0.3098  0.0561  0.0429
55241DOD     C3 9544   9.630   4.060  21.538  0.4572  0.0355 -0.3237
55242DOD     C1 9545  19.687  21.840   4.003 -0.0183  0.1970  0.0089
55242DOD     C2 9546  19.784  21.926   4.410 -0.1963  0.0791 -0.0707
55242DOD     C3 9547  19.953  21.669   4.749  0.0090 -0.0232  0.2142
55243DOD     C1 9548  19.339   9.877   8.129  0.1564  0.2075 -0.1363
55243DOD     C2 9549  19.528   9.473   8.185  0.4176  0.0022  0.1562
55243DOD     C3 9550  19.464   9.092   8.407 -0.0886 -0.0200  0.3994
55244DOD     C1 9551   8.457  14.292  13.812 -0.1139  0.0999  0.0230
55244DOD     C2 9552   8.861  14.102  13.810  0.0084  0.2575  0.0176
55244DOD     C3 9553   9.200  13.887  14.032  0.1793 -0.1571 -0.1953
55245DOD     C1 9554  15.588  28.275   3.384 -0.1863 -0.1943  0.0966
55245DOD     C2 9555  16.005  28.567   3.281  0.0504 -0.3850 -0.1222
55245DOD     C3 9556  16.307  29.002   3.180 -0.1031 -0.0078 -0.1477
55246DOD     C1 9557  15.557   4.041   7.246  0.3899  0.0408  0.3605
55246DOD     C2 9558  15.509   4.276   7.636 -0.1590  0.0131  0.1092
55246DOD     C3 9559  15.635   4.428   8.036 -0.5695  0.0940  0.1432
55247DOD     C1 9560  20.799   5.158   4.982  0.1330  0.1194 -0.0762
55247DOD     C2 9561  20.548   5.121   4.609  0.0696  0.0329  0.1066
55247DOD     C3 9562  20.605   4.891   4.241 -0.1238  0.1294 -0.0131
55248DOD     C1 9563  26.493   1.769   0.706 -0.0775  0.0915 -0.0429
55248DOD     C2 9564  26.530   1.864   0.282  0.1345  0.2696 -0.2109
55248DOD     C3 9565  26.449   2.202  30.314  0.0615 -0.2204 -0.0069
55249DOD     C1 9566  14.094  22.084   6.896 -0.0825  0.0166 -0.2165
55249DOD     C2 9567  13.857  22.356   6.638  0.0784 -0.1430  0.2694
55249DOD     C3 9568  13.623  22.725   6.457  0.1133 -0.1038  0.2983
55250DOD     C1 9569  16.771  28.046  24.367 -0.1763 -0.0359  0.0299
55250DOD     C2 9570  16.940  27.682  24.126 -0.1102  0.2870  0.1641
55250DOD     C3 9571  17.054  27.465  23.763 -0.3304  0.3172 -0.0545
55251DOD     C1 9572  27.246   4.448  14.191 -0.3227 -0.2462  0.0352
55251DOD     C2 9573  27.223   4.870  14.031  0.1022  0.0173 -0.0180
55251DOD     C3 9574  26.935   5.272  14.033  0.1429  0.4156  0.0739
55252DOD     C1 9575  12.637  21.425  12.517  0.1702  0.0949  0.0113
55252DOD     C2 9576  12.299  21.267  12.797 -0.1659  0.0709 -0.1285
55252DOD     C3 9577  12.267  21.321  13.203  0.2481  0.3910 -0.3078
55253DOD     C1 9578  27.021  28.660  26.021  0.1104 -0.0234  0.3466
55253DOD     C2 9579  27.210  28.731  26.426  0.0571  0.2034  0.4075
55253DOD     C3 9580  27.150  28.668  26.841 -0.2241  0.4536  0.2127
55254DOD     C1 9581  25.965  23.557  20.465  0.0844  0.4773 -0.0346
55254DOD     C2 9582  26.416  23.432  20.586 -0.2361  0.0626 -0.1469
55254DOD     C3 9583  26.778  23.181  20.422  0.2353  0.2331 -0.1527
55255DOD     C1 9584  10.902  14.682  26.486 -0.2703 -0.1747 -0.3656
55255DOD     C2 9585  11.236  14.608  26.273  0.0140  0.1766 -0.0330
55255DOD     C3 9586  11.669  14.692  26.309 -0.1124 -0.1076 -0.0713
55256DOD     C1 9587  10.284  14.060   2.211 -0.3150  0.0980 -0.0009
55256DOD     C2 9588  10.501  14.153   1.808  0.0899  0.0181 -0.0570
55256DOD     C3 9589  10.807  13.852   1.635  0.2102 -0.1942 -0.1078
55257DOD     C1 9590   6.411   3.716   7.664 -0.1346 -0.1189 -0.0732
55257DOD     C2 9591   6.548   3.592   8.094  0.1884  0.2507 -0.0326
55257DOD     C3 9592   6.479   3.537   8.532  0.1766  0.1065 -0.0167
55258DOD     C1 9593  27.528  12.246  21.818 -0.1427  0.2382  0.1007
55258DOD     C2 9594  27.141  12.046  21.550  0.5601  0.0614 -0.2720
55258DOD     C3 9595  26.685  11.884  21.663 -0.1772 -0.2669  0.1043
55259DOD     C1 9596  22.987  27.309  14.378 -0.1917  0.0217  0.1379
55259DOD     C2 9597  23.314  27.086  14.658  0.1324  0.2504  0.1171
55259DOD     C3 9598  23.804  26.998  14.634  0.0465 -0.1215  0.0549
55260DOD     C1 9599   1.689   1.927   6.099 -0.0899  0.3322 -0.0244
55260DOD     C2 9600   1.647   2.281   5.816 -0.1480 -0.4259 -0.2905
55260DOD     C3 9601   1.417   2.501   5.471 -0.0093 -0.0793  0.2258
55261DOD     C1 9602  27.507  20.131   0.847  0.1689 -0.0422 -0.5801
55261DOD     C2 9603  27.428  19.801   0.526  0.1269 -0.0755  0.0441
55261DOD     C3 9604  27.690  19.604   0.200  0.1996  0.1362  0.0899
55262DOD     C1 9605  28.468  11.756  12.559  0.3153 -0.0069  0.0274
55262DOD     C2 9606  28.536  11.931  13.010 -0.1158 -0.2606 -0.0226
55262DOD     C3 9607  28.299  11.941  13.361 -0.0567 -0.3488  0.0853
55263DOD     C1 9608   4.127   8.659   1.356 -0.1338  0.1017  0.3301
55263DOD     C2 9609   3.839   8.613   0.968  0.2896  0.0689 -0.2587
55263DOD     C3 9610   3.995   8.908   0.625 -0.0497  0.1061  0.3684
55264DOD     C1 9611   3.625  25.823   6.993  0.3446  0.3994 -0.0639
55264DOD     C2 9612   3.988  25.933   7.202  0.1803  0.1081 -0.0318
55264DOD     C3 9613   4.103  25.981   7.711  0.3585  0.1137  0.0776
55265DOD     C1 9614  17.790   6.258  13.818 -0.2111  0.1204  0.2246
55265DOD     C2 9615  17.411   6.400  13.978  0.1318 -0.1722  0.2634
55265DOD     C3 9616  17.363   6.871  14.061 -0.2876 -0.0471 -0.0915
55266DOD     C1 9617   8.213  20.833  17.604 -0.0726 -0.1488  0.0140
55266DOD     C2 9618   8.095  21.268  17.492 -0.0434 -0.0191  0.1627
55266DOD     C3 9619   8.173  21.572  17.796 -0.0743 -0.0934  0.0366
55267DOD     C1 9620   1.022  27.532  15.086 -0.0166  0.1783 -0.2277
55267DOD     C2 9621   0.754  27.184  14.916 -0.1730 -0.0766  0.0602
55267DOD     C3 9622   0.384  26.963  14.762 -0.1639  0.0325 -0.2400
55268DOD     C1 9623  17.748   2.386   5.582 -0.0040 -0.2363 -0.1835
55268DOD     C2 9624  18.059   2.383   5.270 -0.2427  0.2884 -0.1920
55268DOD     C3 9625  18.459   2.257   5.035  0.0119 -0.1323 -0.3669
55269DOD     C1 9626  14.496  11.266  24.711 -0.0868 -0.0746  0.0875
55269DOD     C2 9627  14.327  10.831  24.819  0.0086 -0.0240 -0.0186
55269DOD     C3 9628  14.196  10.386  24.956 -0.0265  0.1716  0.0245
55270DOD     C1 9629  13.503  18.451   2.214  0.2034  0.2435 -0.2063
55270DOD     C2 9630  13.289  18.804   2.036  0.2766 -0.2159  0.0066
55270DOD     C3 9631  13.074  19.102   1.742  0.0924  0.0523  0.1197
55271DOD     C1 9632   5.055   7.032  24.903  0.1106  0.0015  0.1664
55271DOD     C2 9633   5.112   6.734  24.533  0.2088  0.0226 -0.0303
55271DOD     C3 9634   5.478   6.441  24.376  0.0845  0.3788  0.0125
55272DOD     C1 9635  21.262  26.093  16.567  0.0513 -0.1146 -0.1125
55272DOD     C2 9636  21.206  26.343  16.993  0.1914 -0.3601 -0.5032
55272DOD     C3 9637  21.373  26.668  17.213  0.1560 -0.0224  0.0834
55273DOD     C1 9638  16.025   1.147  10.063  0.5337 -0.1457 -0.0379
55273DOD     C2 9639  15.722   0.832   9.894 -0.0648  0.3512 -0.3348
55273DOD     C3 9640  15.683   0.414   9.711  0.1882 -0.2732 -0.1590
55274DOD     C1 9641   0.118  10.171   1.506 -0.3509 -0.2977  0.1718
55274DOD     C2 9642   0.118  10.578   1.419  0.0737  0.3091  0.1398
55274DOD     C3 9643  30.231  10.976   1.265 -0.1648  0.1214 -0.0104
55275DOD     C1 9644  21.413  24.651  19.630  0.0714 -0.0394  0.0299
55275DOD     C2 9645  21.559  25.033  19.828  0.0355 -0.1716 -0.3281
55275DOD     C3 9646  21.794  25.186  20.207 -0.1061  0.3531 -0.2829
55276DOD     C1 9647  21.479  29.120  23.858  0.1609  0.0416 -0.1259
55276DOD     C2 9648  21.729  28.770  24.056 -0.3993  0.0726 -0.3338
55276DOD     C3 9649  21.917  28.399  24.205 -0.0315  0.0916 -0.0659
55277DOD     C1 9650   4.535  19.332  13.370  0.2642  0.4367 -0.2490
55277DOD     C2 9651   4.074  19.252  13.555 -0.0313 -0.0865 -0.2738
55277DOD     C3 9652   3.657  19.255  13.810 -0.0829 -0.2252  0.1772
55278DOD     C1 9653  28.073   3.146  24.071  0.2114 -0.1471  0.0109
55278DOD     C2 9654  27.923   3.194  23.681 -0.1253  0.0930 -0.1375
55278DOD     C3 9655  27.896   3.170  23.235  0.0547  0.2981  0.0645
55279DOD     C1 9656  23.090  29.496  19.219  0.3403  0.0540  0.0129
55279DOD     C2 9657  23.544  29.543  19.113  0.1857 -0.0263  0.2173
55279DOD     C3 9658  23.902  29.375  18.819  0.1813 -0.4426 -0.0584
55280DOD     C1 9659   9.342  28.546  10.062 -0.1941  0.1352 -0.1934
55280DOD     C2 9660   9.524  28.860   9.779 -0.2017  0.0243  0.1652
55280DOD     C3 9661   9.305  29.292   9.637  0.0056 -0.3689  0.0326
55281DOD     C1 9662  26.777  28.570   0.009 -0.1756 -0.0527  0.0591
55281DOD     C2 9663  26.798  28.413  29.887 -0.0991 -0.0015 -0.2113
55281DOD     C3 9664  26.566  28.277  29.538  0.1636  0.0514 -0.1720
55282DOD     C1 9665   7.428  21.820  17.110  0.1415 -0.1827  0.2096
55282DOD     C2 9666   7.350  21.596  16.681 -0.0799 -0.1179  0.0831
55282DOD     C3 9667   7.567  21.446  16.327 -0.0811  0.1906 -0.2566
55283DOD     C1 9668  17.410   3.214   2.336 -0.0929 -0.0199 -0.1236
55283DOD     C2 9669  17.527   2.993   2.707  0.2046 -0.0358  0.0615
55283DOD     C3 9670  17.915   3.036   2.918 -0.1702  0.1370 -0.2837
55284DOD     C1 9671  17.539  24.830  28.455  0.0334 -0.1682  0.4936
55284DOD     C2 9672  17.346  24.874  28.866 -0.2237 -0.1315  0.1405
55284DOD     C3 9673  17.294  25.227  29.214  0.0913  0.0635 -0.0899
55285DOD     C1 9674  19.044   0.064  27.025 -0.1907 -0.0569 -0.2340
55285DOD     C2 9675  19.380   0.005  26.719 -0.1520  0.1626 -0.0587
55285DOD     C3 9676  19.835   0.039  26.556  0.1505 -0.1768  0.3989
55286DOD     C1 9677   6.545  23.191  24.973 -0.1417  0.0109  0.1952
55286DOD     C2 9678   6.528  23.196  24.489  0.1321 -0.2507 -0.2287
55286DOD     C3 9679   6.600  23.559  24.267  0.1095 -0.0014 -0.2344
55287DOD     C1 9680   8.069   7.257   7.475  0.0278  0.2679 -0.2255
55287DOD     C2 9681   8.497   7.081   7.306 -0.2333  0.2322 -0.2917
55287DOD     C3 9682   8.848   6.901   7.583 -0.3361  0.1421 -0.1314
55288DOD     C1 9683   3.260   9.725   5.233  0.0242 -0.0845 -0.2041
55288DOD     C2 9684   3.354   9.271   4.977  0.2066  0.0902  0.1383
55288DOD     C3 9685   3.362   8.898   4.666 -0.2622 -0.1278 -0.1072
55289DOD     C1 9686  17.845   0.878  25.715  0.1003  0.1668  0.1887
55289DOD     C2 9687  18.237   0.918  25.869 -0.3041 -0.0432 -0.0454
55289DOD     C3 9688  18.669   1.106  25.729  0.4129  0.1416 -0.0502
55290DOD     C1 9689  15.353   7.202   3.730  0.1638  0.0490  0.0032
55290DOD     C2 9690  15.192   6.820   3.509 -0.1423 -0.3423 -0.1382
55290DOD     C3 9691  15.027   6.405   3.255  0.3672  0.0951  0.2476
55291DOD     C1 9692  28.053   2.551  14.921 -0.1731  0.0061  0.1608
55291DOD     C2 9693  28.359   2.485  15.244 -0.1223  0.2457 -0.0112
55291DOD     C3 9694  28.754   2.675  15.347 -0.0847  0.1369 -0.3008
55292DOD     C1 9695  19.269  18.063  14.410  0.3650  0.2287 -0.2658
55292DOD     C2 9696  19.259  18.374  14.059 -0.1116  0.0797  0.0780
55292DOD     C3 9697  19.371  18.768  13.937  0.2633  0.2015 -0.0773
55293DOD     C1 9698   9.380  19.140  21.753  0.3940  0.1056  0.2281
55293DOD     C2 9699   8.948  19.042  21.606 -0.1477  0.0315  0.3011
55293DOD     C3 9700   8.716  18.621  21.629 -0.2186 -0.0509  0.0368
55294DOD     C1 9701  15.728   1.174   5.526 -0.0833 -0.1462  0.0091
55294DOD     C2 9702  15.390   1.260   5.201  0.1790  0.0236 -0.1447
55294DOD     C3 9703  15.218   1.563   4.959  0.0733 -0.0830  0.3091
55295DOD     C1 9704  24.669   7.326  12.397  0.4910  0.2702  0.1423
55295DOD     C2 9705  24.854   7.747  12.515  0.3296 -0.0297 -0.0463
55295DOD     C3 9706  25.212   7.980  12.660  0.0222  0.0463 -0.2311
55296DOD     C1 9707   6.964   2.356  27.896  0.0334 -0.0692  0.2054
55296DOD     C2 9708   6.699   2.377  27.500 -0.0652  0.1178 -0.0169
55296DOD     C3 9709   6.255   2.721  27.607  0.1100  0.3676 -0.1345
55297DOD     C1 9710  12.650  15.569  10.923 -0.0049  0.1562 -0.2781
55297DOD     C2 9711  12.619  15.562  10.445 -0.3333 -0.4889  0.3240
55297DOD     C3 9712  12.370  15.351  10.142  0.0587  0.3267  0.1543
55298DOD     C1 9713   9.572  25.816  30.165  0.0365 -0.1381 -0.0338
55298DOD     C2 9714   9.203  25.877  29.919  0.3623  0.1544 -0.2775
55298DOD     C3 9715   8.734  25.699  29.959 -0.0934  0.0868  0.0338
55299DOD     C1 9716   0.969  16.217  23.110  0.0384  0.2742 -0.0342
55299DOD     C2 9717   1.249  16.174  23.509  0.0480  0.3640  0.0166
55299DOD     C3 9718   1.632  16.217  23.814  0.0982  0.3860  0.0949
55300DOD     C1 9719  15.194  27.538  17.206 -0.1042 -0.0966  0.0764
55300DOD     C2 9720  15.017  27.930  16.955  0.1183  0.0447  0.0563
55300DOD     C3 9721  14.803  28.350  16.894  0.0508 -0.0917 -0.1804
55301DOD     C1 9722  18.589   0.127  28.242  0.1462  0.3832 -0.0593
55301DOD     C2 9723  18.659   0.468  28.507 -0.3293  0.1901  0.0519
55301DOD     C3 9724  18.939   0.576  28.879  0.0586 -0.3308 -0.3162
55302DOD     C1 9725   5.726  10.929   3.744  0.0180 -0.0559 -0.3305
55302DOD     C2 9726   5.698  11.376   3.764 -0.1864  0.0240  0.0083
55302DOD     C3 9727   5.613  11.845   3.699  0.1291 -0.0874  0.0275
55303DOD     C1 9728  13.790   5.954  14.698 -0.2601 -0.0737  0.0396
55303DOD     C2 9729  13.566   5.577  14.765  0.0503 -0.0765  0.0916
55303DOD     C3 9730  13.123   5.362  14.721 -0.0009 -0.1330 -0.1333
55304DOD     C1 9731   0.042   8.859  30.051 -0.1600  0.2374 -0.2073
55304DOD     C2 9732  30.209   8.739  29.602  0.0086  0.2327  0.1515
55304DOD     C3 9733  30.082   8.406  29.304 -0.5084 -0.0082 -0.2524
55305DOD     C1 9734   7.031   3.715   4.101 -0.1431  0.0183  0.1477
55305DOD     C2 9735   7.359   3.677   4.456 -0.1344  0.0946 -0.2214
55305DOD     C3 9736   7.434   4.035   4.698 -0.1573 -0.1939  0.1910
55306DOD     C1 9737  21.625   7.066   1.858  0.2519  0.0483  0.0335
55306DOD     C2 9738  21.174   6.821   1.858 -0.2188  0.0564 -0.3266
55306DOD     C3 9739  20.789   6.772   1.556  0.4211 -0.1067  0.0524
55307DOD     C1 9740  15.560   9.287  28.929  0.1328  0.0099  0.1794
55307DOD     C2 9741  15.791   9.257  29.327  0.2319  0.1087  0.0126
55307DOD     C3 9742  16.078   9.119  29.649  0.1071 -0.0471  0.2467
55308DOD     C1 9743   8.083   8.167  26.983 -0.1208  0.2000  0.0844
55308DOD     C2 9744   8.119   8.242  26.510  0.0464 -0.0439  0.1759
55308DOD     C3 9745   8.038   8.253  26.047  0.0577  0.0983  0.2212
55309DOD     C1 9746  17.667   8.908   0.717  0.0108 -0.0639 -0.0394
55309DOD     C2 9747  17.910   8.552   0.803  0.1850 -0.0621 -0.1143
55309DOD     C3 9748  17.835   8.125   0.871  0.2798 -0.0593 -0.2099
55310DOD     C1 9749  27.349   8.415   0.915  0.0555  0.0632 -0.2492
55310DOD     C2 9750  27.378   8.575   0.467  0.1726 -0.2532 -0.1225
55310DOD     C3 9751  27.312   8.268   0.136 -0.0370 -0.2035  0.1578
55311DOD     C1 9752   4.072   8.739  29.814  0.1583  0.1469 -0.1727
55311DOD     C2 9753   4.256   8.437  29.544  0.0544 -0.3317  0.1598
55311DOD     C3 9754   4.297   8.207  29.144  0.0379 -0.1084 -0.0700
55312DOD     C1 9755  17.754  10.009  20.548  0.0234 -0.2484 -0.1340
55312DOD     C2 9756  18.064   9.741  20.462 -0.0503 -0.1026 -0.0190
55312DOD     C3 9757  18.265   9.352  20.240 -0.2014 -0.2602 -0.1087
55313DOD     C1 9758  17.490  25.889  29.017  0.3007 -0.1232  0.0759
55313DOD     C2 9759  17.411  26.369  28.911 -0.2249  0.1597  0.0398
55313DOD     C3 9760  17.157  26.725  29.087 -0.0001  0.0390  0.1104
55314DOD     C1 9761   0.796   3.411  26.983 -0.1298  0.1335  0.1206
55314DOD     C2 9762   0.446   3.196  27.231  0.3530 -0.0552 -0.3161
55314DOD     C3 9763   0.332   2.811  27.430 -0.2531  0.3121  0.2886
55315DOD     C1 9764  29.186  14.608  21.128  0.0813 -0.0652  0.0459
55315DOD     C2 9765  29.328  15.075  21.141  0.2361 -0.0245  0.1163
55315DOD     C3 9766  29.741  15.312  21.034  0.1023  0.3393 -0.0011
55316DOD     C1 9767   1.475  11.921  24.051 -0.2615  0.1964  0.2283
55316DOD     C2 9768   1.070  11.744  23.836  0.3074  0.0372  0.0543
55316DOD     C3 9769   0.851  11.618  23.418 -0.0867 -0.2463 -0.3452
55317DOD     C1 9770  30.054   8.382   0.151 -0.0468  0.1973  0.0489
55317DOD     C2 9771  29.689   8.479   0.376 -0.2313  0.1686 -0.3502
55317DOD     C3 9772  29.383   8.714   0.503  0.2318 -0.2188 -0.1481
55318DOD     C1 9773  16.632  22.640   2.042  0.1415 -0.1541  0.1915
55318DOD     C2 9774  16.935  22.402   1.695 -0.0631 -0.0975 -0.2825
55318DOD     C3 9775  17.005  22.318   1.240  0.0069 -0.0193  0.0149
55319DOD     C1 9776  25.602  24.385   4.904 -0.1528  0.3601 -0.2050
55319DOD     C2 9777  25.748  24.784   4.657  0.1598  0.1711  0.4751
55319DOD     C3 9778  25.456  24.976   4.345  0.2346  0.0635  0.2909
55320DOD     C1 9779  25.745  25.840  23.214  0.1888  0.2294 -0.0135
55320DOD     C2 9780  25.421  25.568  23.479  0.2493  0.0221  0.2924
55320DOD     C3 9781  25.210  25.196  23.490 -0.0241  0.2104 -0.2950
55321DOD     C1 9782   0.375   9.703   3.612  0.0678 -0.0620  0.0535
55321DOD     C2 9783   0.812   9.758   3.460 -0.1480  0.1158  0.0860
55321DOD     C3 9784   1.196  10.097   3.451 -0.0791  0.2385  0.1610
55322DOD     C1 9785  25.161   3.338  14.278  0.2453 -0.4138 -0.0671
55322DOD     C2 9786  25.323   2.885  14.226  0.0169 -0.1080 -0.1685
55322DOD     C3 9787  25.651   2.740  13.877 -0.0102  0.0519  0.0641
55323DOD     C1 9788   2.783  17.941   6.608  0.0911  0.0462  0.1168
55323DOD     C2 9789   2.842  18.368   6.504 -0.0406 -0.1735  0.1805
55323DOD     C3 9790   2.941  18.802   6.691  0.1473  0.0685 -0.0840
55324DOD     C1 9791  26.039   0.823  25.503  0.1076  0.2712  0.1563
55324DOD     C2 9792  25.919   0.406  25.654 -0.3497 -0.1791  0.2680
55324DOD     C3 9793  26.106  30.304  25.720 -0.0517  0.1693 -0.3476
55325DOD     C1 9794  17.061  19.145  15.849 -0.0568  0.4467  0.2570
55325DOD     C2 9795  16.852  19.318  15.490 -0.0438 -0.0157  0.1428
55325DOD     C3 9796  17.278  19.407  15.225 -0.3657  0.1323  0.0317
55326DOD     C1 9797  24.821   3.249   8.151 -0.1362  0.0265  0.2159
55326DOD     C2 9798  24.880   3.527   8.498  0.1999 -0.3538 -0.2922
55326DOD     C3 9799  24.843   3.768   8.941  0.0912 -0.0589 -0.1133
55327DOD     C1 9800  28.685  10.138  11.099  0.3325 -0.1456 -0.1448
55327DOD     C2 9801  28.793  10.052  11.558  0.0134 -0.1427 -0.0816
55327DOD     C3 9802  28.959  10.419  11.847 -0.3039 -0.3388 -0.0035
55328DOD     C1 9803  19.874  27.820   8.741 -0.0472 -0.0496  0.1159
55328DOD     C2 9804  20.314  27.633   8.892  0.0859 -0.0635  0.0759
55328DOD     C3 9805  20.494  27.435   9.219  0.1884  0.1759 -0.0366
55329DOD     C1 9806  10.209  19.801  10.404  0.0619 -0.2026 -0.0598
55329DOD     C2 9807  10.498  19.983  10.729 -0.0765  0.0861 -0.0998
55329DOD     C3 9808  10.242  19.785  11.076  0.1884 -0.0406  0.0244
55330DOD     C1 9809   7.461  24.042   5.260 -0.0199  0.0150 -0.1639
55330DOD     C2 9810   7.002  24.084   5.344 -0.0386  0.1970  0.0447
55330DOD     C3 9811   6.804  23.680   5.466 -0.0350 -0.0986  0.0532
55331DOD     C1 9812   7.389  22.143  20.817 -0.0014 -0.2119 -0.3289
55331DOD     C2 9813   7.352  22.332  20.389 -0.1213 -0.1127  0.0905
55331DOD     C3 9814   7.626  22.737  20.327 -0.0255 -0.2671  0.0820
55332DOD     C1 9815  22.682  24.503  17.440  0.2778 -0.2241  0.0634
55332DOD     C2 9816  22.379  24.300  17.691  0.1840  0.1427 -0.2312
55332DOD     C3 9817  22.396  24.643  18.032  0.1672  0.0695 -0.0178
55333DOD     C1 9818   7.185   8.403  27.858  0.1435  0.0674  0.3194
55333DOD     C2 9819   7.252   8.160  27.441  0.1151 -0.0810 -0.1781
55333DOD     C3 9820   7.102   8.187  26.957  0.0843 -0.0181  0.1337
55334DOD     C1 9821   2.979  16.951  14.998 -0.2904 -0.0610  0.0207
55334DOD     C2 9822   2.731  17.270  15.226  0.0356 -0.0294  0.1174
55334DOD     C3 9823   2.523  17.453  15.572  0.1545  0.0437  0.0120
55335DOD     C1 9824  19.776  16.411  15.395 -0.1245 -0.0992 -0.0176
55335DOD     C2 9825  20.171  16.201  15.481 -0.0522 -0.1656  0.2033
55335DOD     C3 9826  20.616  16.080  15.315  0.0471 -0.3749  0.0718
55336DOD     C1 9827  29.192  13.887   3.289 -0.2564 -0.2751  0.1471
55336DOD     C2 9828  29.085  13.446   3.109 -0.1119  0.1993  0.1865
55336DOD     C3 9829  28.782  13.173   2.903 -0.4585  0.1465 -0.0644
55337DOD     C1 9830  19.748   9.514   2.114  0.1651  0.1725 -0.1708
55337DOD     C2 9831  19.797   9.120   2.364 -0.1123 -0.0045 -0.3035
55337DOD     C3 9832  20.008   8.820   2.633 -0.0848 -0.3715 -0.1706
55338DOD     C1 9833   4.912  11.226  24.991 -0.0744  0.0181  0.1645
55338DOD     C2 9834   4.565  10.973  24.753 -0.0983  0.2012 -0.1276
55338DOD     C3 9835   4.393  10.680  24.436  0.2356  0.1582 -0.1823
55339DOD     C1 9836   8.642  20.515   5.570  0.0497 -0.4072 -0.0761
55339DOD     C2 9837   8.888  20.409   5.949  0.3936  0.2709 -0.2752
55339DOD     C3 9838   9.039  20.654   6.309 -0.3459 -0.3744  0.0763
55340DOD     C1 9839  13.074   1.921   6.138 -0.2566 -0.0086  0.2201
55340DOD     C2 9840  13.152   1.895   5.646  0.1467  0.0120  0.0267
55340DOD     C3 9841  13.022   2.128   5.255 -0.3454  0.4502  0.0152
55341DOD     C1 9842  12.693   6.301  11.226 -0.4019 -0.2767 -0.4386
55341DOD     C2 9843  13.170   6.327  11.101 -0.0177 -0.1606 -0.3117
55341DOD     C3 9844  13.610   6.303  11.006 -0.2434  0.0071 -0.0211
55342DOD     C1 9845   2.030  29.905  26.980  0.0101  0.1078 -0.4678
55342DOD     C2 9846   2.219   0.008  26.927  0.1013  0.0616 -0.1444
55342DOD     C3 9847   2.261   0.422  26.729  0.2959 -0.0125  0.0210
55343DOD     C1 9848  16.811  18.344  10.000 -0.0141 -0.0554  0.1117
55343DOD     C2 9849  16.924  18.527  10.393  0.1522 -0.1503 -0.2072
55343DOD     C3 9850  17.235  18.913  10.472  0.2962  0.1642  0.1880
55344DOD     C1 9851  26.597  19.305   6.264 -0.2346 -0.0332  0.4447
55344DOD     C2 9852  26.760  19.210   5.846 -0.1354 -0.0938  0.0953
55344DOD     C3 9853  26.698  19.216   5.353  0.0889 -0.0645 -0.1423
55345DOD     C1 9854  19.533   9.394  20.901 -0.0202 -0.2705  0.2651
55345DOD     C2 9855  19.712   9.505  21.316 -0.0055  0.0636  0.3655
55345DOD     C3 9856  19.778   9.419  21.780 -0.2602 -0.0279 -0.2532
55346DOD     C1 9857  19.964  24.345   6.342  0.2906  0.0718 -0.4914
55346DOD     C2 9858  20.226  24.718   6.494  0.0186  0.0767 -0.1207
55346DOD     C3 9859  20.169  24.961   6.890 -0.1360 -0.1509 -0.1882
55347DOD     C1 9860   7.904  25.481  26.156 -0.1814 -0.1588 -0.1965
55347DOD     C2 9861   8.145  25.904  26.305 -0.0051  0.1627 -0.2169
55347DOD     C3 9862   8.247  26.368  26.315 -0.1585 -0.0555  0.1745
55348DOD     C1 9863   4.482  10.701  15.384  0.0088  0.0023 -0.1199
55348DOD     C2 9864   4.317  10.271  15.421 -0.2051  0.0203  0.0176
55348DOD     C3 9865   3.898  10.042  15.452  0.0900  0.0267  0.2539
55349DOD     C1 9866  18.512  10.991   6.753  0.6933  0.2519 -0.2864
55349DOD     C2 9867  18.605  11.097   6.318 -0.1398  0.0600  0.0500
55349DOD     C3 9868  18.575  11.072   5.884 -0.0692  0.2977  0.2320
55350DOD     C1 9869  29.478   8.388   6.604  0.1091  0.2861 -0.1811
55350DOD     C2 9870  29.509   8.480   7.046 -0.3445  0.1511  0.1121
55350DOD     C3 9871  29.329   8.121   7.316  0.1324 -0.1010 -0.2242
55351DOD     C1 9872  12.837   3.652  27.543 -0.2382  0.2199  0.0907
55351DOD     C2 9873  12.706   3.418  27.961 -0.0098  0.1792 -0.0757
55351DOD     C3 9874  12.317   3.162  27.909 -0.1904  0.1656  0.4356
55352DOD     C1 9875  29.357   0.736  23.525  0.1733  0.0553  0.1657
55352DOD     C2 9876  28.908   0.827  23.613  0.0125 -0.2511  0.0091
55352DOD     C3 9877  28.462   0.743  23.712 -0.0848  0.2495 -0.2634
55353DOD     C1 9878  28.882  25.217   0.903  0.0060 -0.0790  0.1955
55353DOD     C2 9879  28.442  25.254   0.720  0.0322  0.2960  0.4390
55353DOD     C3 9880  27.946  25.262   0.659 -0.4541 -0.1500 -0.0514
55354DOD     C1 9881   2.864  27.566  30.000 -0.2060 -0.0017 -0.0975
55354DOD     C2 9882   3.258  27.696  29.804  0.0031  0.0067 -0.0583
55354DOD     C3 9883   3.681  27.873  29.688  0.0804  0.2777 -0.2702
55355DOD     C1 9884   5.686  18.889   5.845  0.4134  0.1585 -0.1952
55355DOD     C2 9885   6.078  18.855   6.133  0.1898 -0.2993  0.3335
55355DOD     C3 9886   6.321  18.875   6.534 -0.1110 -0.2909 -0.1228
55356DOD     C1 9887  20.512  30.185  14.304  0.0325 -0.2904 -0.0567
55356DOD     C2 9888  20.184   0.071  14.560  0.1860  0.1293  0.2771
55356DOD     C3 9889  19.739   0.291  14.596  0.0190  0.0229 -0.0255
55357DOD     C1 9890  12.858  24.662  26.252  0.0943 -0.0283  0.1848
55357DOD     C2 9891  13.099  24.578  25.834  0.2214 -0.0418 -0.1079
55357DOD     C3 9892  12.954  24.304  25.461 -0.5536 -0.5009 -0.0695
55358DOD     C1 9893  19.284  13.215  23.612 -0.0710  0.2110  0.0356
55358DOD     C2 9894  19.562  12.868  23.504  0.0972  0.2106  0.0257
55358DOD     C3 9895  20.062  12.782  23.536  0.3493  0.0686 -0.1438
55359DOD     C1 9896  27.874  13.344   7.518  0.1473 -0.0592 -0.0059
55359DOD     C2 9897  27.830  13.771   7.706  0.0081 -0.4160 -0.1770
55359DOD     C3 9898  27.716  13.914   8.131 -0.0434  0.0531 -0.1180
55360DOD     C1 9899   2.356   1.516   0.979 -0.0719  0.1015 -0.0209
55360DOD     C2 9900   2.651   1.839   0.866 -0.2205  0.2911 -0.4487
55360DOD     C3 9901   2.769   2.324   0.885 -0.1258 -0.0521 -0.0341
55361DOD     C1 9902  30.184   9.493   4.482 -0.0369  0.1290 -0.0524
55361DOD     C2 9903  29.897   9.334   4.115  0.1884 -0.2186 -0.2536
55361DOD     C3 9904  29.669   8.950   3.955 -0.3430  0.0656  0.2146
55362DOD     C1 9905  17.805   6.511  12.501 -0.2007 -0.0355 -0.0194
55362DOD     C2 9906  17.612   6.096  12.316 -0.1658  0.1886 -0.0204
55362DOD     C3 9907  17.377   5.781  12.070 -0.1820  0.1690  0.0125
55363DOD     C1 9908   5.274  18.294  26.887  0.1257  0.0133  0.0344
55363DOD     C2 9909   5.580  17.976  26.675  0.1147  0.2078  0.0692
55363DOD     C3 9910   5.605  17.536  26.731 -0.0108 -0.1574 -0.0445
55364DOD     C1 9911  15.742  14.853  22.735 -0.3734  0.3180 -0.1645
55364DOD     C2 9912  15.542  14.478  22.984  0.4120 -0.2428  0.0019
55364DOD     C3 9913  15.109  14.343  23.090  0.1569  0.0327 -0.0729
55365DOD     C1 9914   1.632  21.549  18.043 -0.0386 -0.0745 -0.2328
55365DOD     C2 9915   2.067  21.298  17.982  0.2758 -0.0180 -0.2138
55365DOD     C3 9916   2.399  20.954  17.897 -0.1182 -0.2870  0.1928
55366DOD     C1 9917   5.121   7.402  19.481  0.1834  0.0306  0.0284
55366DOD     C2 9918   5.159   7.702  19.118  0.1088  0.2661 -0.0776
55366DOD     C3 9919   4.946   7.825  18.690  0.0774  0.3919 -0.1278
55367DOD     C1 9920  22.720   8.709  16.823 -0.1593 -0.0863  0.0531
55367DOD     C2 9921  22.608   8.427  17.191 -0.1126  0.0546  0.0939
55367DOD     C3 9922  22.364   8.060  17.124  0.3972 -0.0662  0.0204
55368DOD     C1 9923   2.562  26.557  17.808 -0.0666 -0.0374  0.0412
55368DOD     C2 9924   2.690  26.969  17.971 -0.2966  0.1248 -0.3053
55368DOD     C3 9925   3.035  27.315  17.914  0.2087  0.2687 -0.2100
55369DOD     C1 9926  14.070  19.805   5.501  0.0849  0.0881 -0.0156
55369DOD     C2 9927  14.085  20.127   5.750 -0.1688 -0.2005  0.0793
55369DOD     C3 9928  13.925  20.540   5.683 -0.0297  0.1595 -0.3805
55370DOD     C1 9929  21.384  15.124  29.698  0.2264  0.2582 -0.0360
55370DOD     C2 9930  21.069  15.367  29.886  0.2517 -0.3630 -0.0532
55370DOD     C3 9931  20.794  15.432  30.261 -0.0384  0.3626  0.3318
55371DOD     C1 9932  20.045   1.207  12.936  0.2943 -0.1196  0.0352
55371DOD     C2 9933  19.941   1.514  12.721 -0.1950  0.0366  0.1690
55371DOD     C3 9934  19.661   1.891  12.828  0.0204 -0.1568  0.2933
55372DOD     C1 9935  16.198  17.085  23.797  0.2187 -0.1268 -0.1345
55372DOD     C2 9936  15.993  16.806  24.118  0.1798  0.0030  0.1325
55372DOD     C3 9937  15.803  16.396  24.088  0.0471 -0.1428 -0.0290
55373DOD     C1 9938   6.445  17.962  21.552  0.0503 -0.0223 -0.2739
55373DOD     C2 9939   6.536  17.955  22.010  0.1903  0.2628 -0.0286
55373DOD     C3 9940   6.362  17.765  22.417 -0.0697 -0.1334 -0.0164
55374DOD     C1 9941  26.344  12.216  14.633 -0.1105 -0.4480  0.0197
55374DOD     C2 9942  26.096  11.846  14.710 -0.0704  0.3582  0.0183
55374DOD     C3 9943  25.660  11.637  14.553  0.2773 -0.0511  0.1430
55375DOD     C1 9944  27.357  29.149   2.499  0.2172  0.0422  0.0338
55375DOD     C2 9945  27.657  29.488   2.444 -0.0152  0.0997 -0.1089
55375DOD     C3 9946  28.071  29.606   2.251 -0.0465 -0.0196 -0.0158
55376DOD     C1 9947   2.669   4.871   5.403  0.2010 -0.1816  0.0739
55376DOD     C2 9948   2.279   4.912   5.644 -0.0650 -0.0153  0.1148
55376DOD     C3 9949   2.128   5.350   5.744 -0.0415  0.1234  0.1470
55377DOD     C1 9950  17.574  29.112   4.483  0.1887 -0.2775 -0.2123
55377DOD     C2 9951  17.669  29.072   4.939 -0.1319 -0.0386  0.0184
55377DOD     C3 9952  17.707  29.096   5.407 -0.1938  0.0483 -0.0541
55378DOD     C1 9953   1.194  26.831   0.317  0.1581  0.2611  0.0892
55378DOD     C2 9954   1.041  26.705  30.224  0.1490 -0.2402  0.0036
55378DOD     C3 9955   1.294  26.581  29.846 -0.3033  0.2781  0.0281
55379DOD     C1 9956  24.039  18.363   9.575  0.2159 -0.0416 -0.2060
55379DOD     C2 9957  23.755  18.754   9.489 -0.0033  0.0391 -0.0710
55379DOD     C3 9958  23.671  19.154   9.289 -0.1101 -0.0352  0.1891
55380DOD     C1 9959  19.199   1.717   6.233  0.2673  0.3578  0.2941
55380DOD     C2 9960  19.660   1.847   6.065 -0.1123 -0.0140 -0.1567
55380DOD     C3 9961  19.850   2.271   5.935 -0.0760  0.4660  0.1607
55381DOD     C1 9962  25.872  30.190   7.931  0.1227 -0.0993 -0.2026
55381DOD     C2 9963  26.159   0.165   7.891 -0.1255  0.0715 -0.1371
55381DOD     C3 9964  26.278   0.566   7.625 -0.1694  0.0861 -0.1108
55382DOD     C1 9965  29.518  10.760  29.678 -0.2152  0.1179  0.1122
55382DOD     C2 9966  29.274  10.643  29.301 -0.3073 -0.0946  0.1194
55382DOD     C3 9967  29.297  10.403  28.884 -0.1583  0.1144 -0.0095
55383DOD     C1 9968  21.472   8.103  14.283 -0.0205  0.0573 -0.0083
55383DOD     C2 9969  21.575   8.173  14.763  0.0887 -0.1523 -0.1072
55383DOD     C3 9970  21.646   7.861  15.081 -0.1886 -0.3722  0.1886
55384DOD     C1 9971  25.796  21.266   9.032  0.1101 -0.0421  0.0778
55384DOD     C2 9972  25.654  21.350   9.459 -0.0946 -0.0322 -0.1124
55384DOD     C3 9973  25.916  21.233   9.849 -0.1278  0.0577  0.2527
55385DOD     C1 9974  14.465  14.891   5.204  0.1891 -0.1822  0.0548
55385DOD     C2 9975  14.370  14.868   5.662 -0.0388  0.2883  0.2706
55385DOD     C3 9976  14.522  14.601   6.054  0.1089 -0.1064  0.2065
55386DOD     C1 9977  16.714   1.639   0.719  0.1301  0.2706  0.1495
55386DOD     C2 9978  16.431   1.777   1.086  0.1440 -0.1694 -0.2016
55386DOD     C3 9979  16.128   1.843   1.421  0.4517 -0.0576  0.1356
55387DOD     C1 9980  18.870  13.741  26.489 -0.0284 -0.0533  0.2483
55387DOD     C2 9981  18.805  13.529  26.881 -0.1318 -0.2131 -0.2765
55387DOD     C3 9982  18.919  13.535  27.359  0.2439  0.1981  0.1881
55388DOD     C1 9983  20.072  22.258   9.377 -0.2256  0.2924 -0.0831
55388DOD     C2 9984  20.436  22.145   9.638 -0.1060 -0.1663  0.3107
55388DOD     C3 9985  20.719  21.907   9.956  0.3152  0.1743  0.0128
55389DOD     C1 9986  15.393  11.367   1.451  0.1170 -0.0267  0.0103
55389DOD     C2 9987  15.446  11.802   1.672 -0.0256 -0.0677  0.1705
55389DOD     C3 9988  15.692  12.218   1.686  0.1208 -0.2341  0.0978
55390DOD     C1 9989  15.466  27.536  14.744 -0.0632  0.2922 -0.0629
55390DOD     C2 9990  15.250  27.542  15.122  0.1162 -0.1800 -0.3108
55390DOD     C3 9991  15.169  27.462  15.588 -0.1892  0.0045 -0.2936
55391DOD     C1 9992  24.879  11.792  28.015  0.0234 -0.1644  0.0114
55391DOD     C2 9993  25.119  11.516  27.737  0.0060 -0.1255 -0.0084
55391DOD     C3 9994  25.185  11.156  27.439 -0.0397  0.1159 -0.0116
55392DOD     C1 9995  29.265   7.993  25.988 -0.1824 -0.1376  0.2679
55392DOD     C2 9996  28.810   8.144  25.966  0.1034 -0.0950 -0.0696
55392DOD     C3 9997  28.690   8.585  26.016  0.1084  0.0933 -0.3364
55393DOD     C1 9998   7.229   9.213  16.735  0.1055 -0.1698 -0.0209
55393DOD     C2 9999   6.954   8.868  16.823 -0.0048 -0.2286  0.0705
55393DOD     C310000   6.737   8.425  16.974 -0.1789 -0.1739 -0.0475
55394DOD     C110001  18.762  18.846  25.715 -0.1482  0.0004  0.1868
55394DOD     C210002  19.173  19.041  25.877 -0.1345  0.0603 -0.1749
55394DOD     C310003  19.424  19.348  26.172 -0.4703 -0.2653  0.2210
55395DOD     C110004  25.087  15.277   3.816  0.2249 -0.3538 -0.1357
55395DOD     C210005  24.758  15.462   3.492 -0.0158  0.2306  0.0268
55395DOD     C310006  24.448  15.809   3.519 -0.0369  0.0357 -0.2270
55396DOD     C110007  25.871  27.055   9.809 -0.0852 -0.1160  0.1970
55396DOD     C210008  25.955  27.064   9.368  0.0987 -0.2094 -0.1677
55396DOD     C310009  25.907  27.239   8.917  0.2439  0.0984 -0.0375
55397DOD     C110010  16.843  14.778  27.439  0.0961 -0.3819 -0.1153
55397DOD     C210011  17.068  15.007  27.058 -0.0217 -0.1968 -0.1974
55397DOD     C310012  17.215  14.966  26.602  0.1144 -0.1308  0.2731
55398DOD     C110013  11.377  23.363  19.531 -0.2812 -0.1867  0.0593
55398DOD     C210014  11.650  22.929  19.448 -0.1535  0.1241  0.0550
55398DOD     C310015  11.586  22.523  19.612 -0.0943 -0.2079 -0.2175
55399DOD     C110016  27.605  21.786  22.605  0.1441 -0.1006  0.0015
55399DOD     C210017  27.784  22.066  22.960 -0.1260  0.2694 -0.0643
55399DOD     C310018  27.700  21.883  23.454  0.0966 -0.2545  0.0589
55400DOD     C110019  24.941  14.306  14.248  0.3353  0.0434  0.1030
55400DOD     C210020  24.712  14.656  14.019  0.1474 -0.0157 -0.0246
55400DOD     C310021  24.689  15.066  14.046  0.2818 -0.0633  0.0484
55401DOD     C110022  10.391   7.869   1.328 -0.1876  0.1207  0.0108
55401DOD     C210023  10.572   7.430   1.199 -0.1976  0.0546 -0.1651
55401DOD     C310024  10.830   7.377   0.837  0.1262 -0.3445 -0.2198
55402DOD     C110025  13.896   4.108  15.993 -0.4272 -0.2483 -0.4144
55402DOD     C210026  13.486   4.175  16.227 -0.1273 -0.0218  0.0859
55402DOD     C310027  13.066   4.124  16.387  0.1394 -0.1083 -0.0741
55403DOD     C110028  22.905   5.263  26.420 -0.1865  0.0043 -0.1531
55403DOD     C210029  23.150   5.129  26.834 -0.1635  0.2349  0.0509
55403DOD     C310030  23.289   4.860  27.227  0.2435 -0.1631  0.3968
55404DOD     C110031  11.764   2.431   1.062 -0.2371  0.0201 -0.4414
55404DOD     C210032  11.630   2.785   0.764 -0.1862 -0.1672 -0.0340
55404DOD     C310033  11.557   3.254   0.691 -0.1924 -0.1341  0.2924
55405DOD     C110034   9.137  16.261   5.776 -0.1213 -0.3292  0.0506
55405DOD     C210035   9.047  15.785   5.803 -0.2594  0.3203 -0.0791
55405DOD     C310036   9.217  15.381   5.686 -0.0712 -0.0022  0.3066
55406DOD     C110037  24.026   6.083  21.318 -0.3363 -0.2074  0.0451
55406DOD     C210038  24.176   5.668  21.122 -0.1095  0.1642 -0.0949
55406DOD     C310039  24.365   5.281  20.841  0.0613 -0.1209  0.0124
55407DOD     C110040  27.622   9.395  12.843  0.0655 -0.2051  0.1419
55407DOD     C210041  27.710   9.355  12.405 -0.2264  0.0574 -0.0037
55407DOD     C310042  27.974   9.032  12.123 -0.1792  0.0846 -0.2759
55408DOD     C110043  26.990  14.913   0.674 -0.3287 -0.0508 -0.0017
55408DOD     C210044  26.769  14.526   0.701 -0.1884  0.1687 -0.0439
55408DOD     C310045  26.345  14.332   0.699  0.1273  0.1968 -0.2516
55409DOD     C110046  24.901  24.876   3.740  0.0188 -0.1189  0.2295
55409DOD     C210047  25.165  25.219   3.872 -0.2456 -0.1118  0.0324
55409DOD     C310048  25.396  25.609   3.710 -0.0531 -0.3341 -0.1782
55410DOD     C110049   3.514  18.130   3.413  0.0493 -0.2764 -0.0920
55410DOD     C210050   3.583  18.547   3.318 -0.1185 -0.0947 -0.4748
55410DOD     C310051   3.521  19.013   3.349 -0.0609 -0.1620  0.2818
55411DOD     C110052  18.404  13.089  10.654 -0.6353  0.0561 -0.2282
55411DOD     C210053  18.654  13.387  10.393  0.3129 -0.1572  0.0526
55411DOD     C310054  18.767  13.807  10.317 -0.0744  0.1279  0.0561
55412DOD     C110055  22.578   4.709   4.564 -0.0892  0.2310  0.3513
55412DOD     C210056  22.555   4.566   4.996  0.1963 -0.1351 -0.1942
55412DOD     C310057  22.633   4.418   5.450  0.2259 -0.1559  0.0075
55413DOD     C110058  13.391  14.701   1.389  0.2016 -0.1257  0.1504
55413DOD     C210059  13.636  14.678   1.035  0.1565 -0.0756 -0.0615
55413DOD     C310060  13.553  14.398   0.706  0.0273 -0.0401  0.0646
55414DOD     C110061  21.810  20.166   9.095  0.1551 -0.0519 -0.0322
55414DOD     C210062  21.469  20.477   9.107  0.0063 -0.2420  0.2195
55414DOD     C310063  21.077  20.760   9.179 -0.4344 -0.0886  0.1731
55415DOD     C110064  15.212  19.372  23.583 -0.1824  0.0943 -0.0811
55415DOD     C210065  15.627  19.137  23.580 -0.2250  0.0345 -0.0478
55415DOD     C310066  15.933  18.864  23.444  0.0068  0.0041 -0.3564
55416DOD     C110067   8.362   4.400  16.612 -0.0721 -0.2667  0.3199
55416DOD     C210068   8.610   4.114  16.281  0.0893 -0.1406  0.0945
55416DOD     C310069   8.920   3.886  16.098 -0.0400  0.0302  0.1227
55417DOD     C110070  22.212  28.091   3.555 -0.2640 -0.3472 -0.2459
55417DOD     C210071  22.292  28.517   3.405 -0.4630  0.1559 -0.0255
55417DOD     C310072  22.215  28.968   3.419 -0.0710  0.2059  0.2411
55418DOD     C110073   8.352   4.844  11.725 -0.0415 -0.3779 -0.2446
55418DOD     C210074   8.031   4.646  12.001 -0.1697  0.1487  0.2270
55418DOD     C310075   7.657   4.381  12.012 -0.0363 -0.0362  0.2524
55419DOD     C110076   1.591   4.207   6.715 -0.0359 -0.0571  0.1021
55419DOD     C210077   1.892   4.502   6.808 -0.0930 -0.1142  0.2729
55419DOD     C310078   2.183   4.738   6.574 -0.2763 -0.4531 -0.2626
55420DOD     C110079  27.721  13.705  24.288 -0.0165 -0.2362  0.1061
55420DOD     C210080  27.737  14.183  24.220 -0.1515 -0.0877  0.1020
55420DOD     C310081  27.460  14.491  24.138 -0.2817  0.1681 -0.1393
55421DOD     C110082   8.308  25.629  19.971  0.2400 -0.0077 -0.0064
55421DOD     C210083   8.472  25.312  20.250 -0.0220 -0.0484  0.0189
55421DOD     C310084   8.626  24.936  20.548  0.0831 -0.0337 -0.1179
55422DOD     C110085  29.912  11.195  14.429  0.3580 -0.0249 -0.1172
55422DOD     C210086  29.592  10.893  14.251 -0.1514 -0.0584  0.0543
55422DOD     C310087  29.480  10.485  14.039  0.1894 -0.1389  0.1196
55423DOD     C110088   7.784   4.490   5.468 -0.1125 -0.1010  0.0710
55423DOD     C210089   7.498   4.435   5.824  0.4708 -0.3764  0.0398
55423DOD     C310090   7.289   4.818   6.047  0.3204  0.2705 -0.0922
55424DOD     C110091  21.482  20.621  20.312  0.0835  0.0236 -0.2823
55424DOD     C210092  21.575  20.587  20.768 -0.2863  0.0642 -0.0754
55424DOD     C310093  21.807  20.413  21.179  0.4099  0.1813 -0.0784
55425DOD     C110094   5.434  25.134   0.441 -0.0158 -0.3238  0.1738
55425DOD     C210095   5.780  24.756   0.283 -0.2355 -0.0197 -0.1923
55425DOD     C310096   6.125  24.451   0.188 -0.4194 -0.0833 -0.0311
55426DOD     C110097   2.347  26.062  19.962 -0.0094  0.2422 -0.1866
55426DOD     C210098   2.423  25.700  19.637  0.0471 -0.1691  0.1461
55426DOD     C310099   2.595  25.717  19.198 -0.1708 -0.0841 -0.4463
55427DOD     C110100   0.411  22.461  12.824 -0.2566 -0.0872  0.0804
55427DOD     C210101   0.236  22.168  13.110 -0.1032 -0.0072 -0.0830
55427DOD     C310102   0.044  21.759  13.104 -0.1288 -0.0383 -0.0246
55428DOD     C110103   1.252  17.377  21.425  0.0015 -0.1000  0.0045
55428DOD     C210104   0.797  17.338  21.322 -0.1632 -0.0423  0.0771
55428DOD     C310105   0.347  17.265  21.485  0.0475  0.0433 -0.1025
55429DOD     C110106  25.604  20.797   5.498 -0.2123  0.2017  0.0806
55429DOD     C210107  25.305  21.068   5.693 -0.0995  0.2251 -0.2330
55429DOD     C310108  25.019  21.194   6.011  0.1167  0.5374  0.3989
55430DOD     C110109   3.062   8.446   6.424  0.2839 -0.0510 -0.2460
55430DOD     C210110   2.610   8.351   6.314 -0.0197 -0.1832 -0.2330
55430DOD     C310111   2.224   8.212   6.139 -0.1921  0.0491 -0.0256
55431DOD     C110112  23.022  17.550   7.510 -0.0906  0.0052 -0.0577
55431DOD     C210113  23.515  17.488   7.511 -0.2520 -0.2277 -0.0597
55431DOD     C310114  23.889  17.705   7.476  0.1140 -0.1988  0.3114
55432DOD     C110115  12.745   8.167  26.129  0.2069  0.0710 -0.0869
55432DOD     C210116  12.833   8.160  26.594  0.0635  0.1290  0.3951
55432DOD     C310117  13.045   8.221  26.975  0.1155 -0.0339 -0.0275
55433DOD     C110118  21.208   9.239  27.924  0.4921  0.2918 -0.1240
55433DOD     C210119  21.107   9.664  28.130 -0.3331  0.2469 -0.0174
55433DOD     C310120  20.982   9.934  28.570  0.1305  0.2097  0.0174
55434DOD     C110121   2.047   7.967  26.697  0.2293 -0.1655  0.1258
55434DOD     C210122   2.201   8.275  27.037 -0.0625  0.0295 -0.0452
55434DOD     C310123   2.457   8.633  27.166 -0.1432 -0.3104 -0.2683
55435DOD     C110124   3.262   3.391  13.165  0.1046 -0.1362  0.0955
55435DOD     C210125   3.588   3.721  13.277 -0.1323  0.0780  0.1241
55435DOD     C310126   3.646   3.865  13.781  0.1325 -0.0518  0.0978
55436DOD     C110127   5.472  24.935  19.644 -0.1432 -0.0054 -0.0645
55436DOD     C210128   5.421  25.130  19.249 -0.0362 -0.0655  0.1807
55436DOD     C310129   5.447  25.471  18.885 -0.1761 -0.1146 -0.1302
55437DOD     C110130  13.527  19.910  17.387 -0.0355 -0.3355  0.0374
55437DOD     C210131  13.228  20.204  17.611 -0.0358  0.1536  0.2339
55437DOD     C310132  13.208  20.418  17.984  0.2058  0.0778  0.0393
55438DOD     C110133  29.543  19.499  17.093 -0.1078 -0.1652  0.0931
55438DOD     C210134  29.935  19.600  16.823  0.1052  0.1220  0.1260
55438DOD     C310135   0.090  19.557  16.702 -0.0882 -0.1019 -0.1720
55439DOD     C110136  13.548  13.389  27.951  0.0959 -0.1007 -0.5694
55439DOD     C210137  13.184  13.685  28.010 -0.2064 -0.0930 -0.3610
55439DOD     C310138  12.923  13.940  28.240 -0.2534  0.0472  0.2467
55440DOD     C110139   8.118  11.592   1.372 -0.0273 -0.0996 -0.1058
55440DOD     C210140   8.188  11.379   0.972  0.1574 -0.3474  0.2394
55440DOD     C310141   8.230  11.181   0.498  0.0215  0.0996 -0.2597
55441DOD     C110142  28.464  22.839   0.933  0.0281  0.1494  0.2105
55441DOD     C210143  28.638  23.261   0.849  0.2823  0.2220  0.1523
55441DOD     C310144  28.891  23.471   0.627 -0.1298  0.2797  0.3709
55442DOD     C110145  27.560  30.215  22.364  0.1864  0.1934  0.1032
55442DOD     C210146  27.806  -0.009  21.966  0.2614  0.0200 -0.0963
55442DOD     C310147  28.162   0.342  21.954  0.0080  0.0063 -0.0375
55443DOD     C110148  16.059  26.787   3.252  0.2760  0.1530 -0.2341
55443DOD     C210149  15.845  26.486   3.049 -0.0056 -0.2166 -0.1063
55443DOD     C310150  15.829  26.029   3.161 -0.1194 -0.1226 -0.1928
55444DOD     C110151  13.388  13.865  25.138 -0.0216 -0.0419 -0.1231
55444DOD     C210152  13.178  13.452  25.094 -0.0751 -0.0183 -0.0442
55444DOD     C310153  12.899  13.241  24.760  0.2161 -0.0719  0.0785
55445DOD     C110154  11.920   0.372  29.417 -0.2908  0.1383  0.0961
55445DOD     C210155  11.694   0.725  29.632 -0.2812 -0.0002 -0.3353
55445DOD     C310156  11.659   0.812  30.165 -0.0731 -0.3605 -0.0125
55446DOD     C110157  23.012   1.062  16.388 -0.0051  0.0714  0.0904
55446DOD     C210158  22.572   1.013  16.264  0.0804 -0.0145 -0.1145
55446DOD     C310159  22.117   1.165  16.058 -0.1644  0.0312 -0.0187
55447DOD     C110160  10.934   4.459  15.701  0.4002  0.1197 -0.0230
55447DOD     C210161  11.283   4.530  16.009 -0.2636  0.2768  0.1250
55447DOD     C310162  11.549   4.613  16.391  0.1069  0.0701  0.2511
55448DOD     C110163  30.026  21.787  17.549  0.1197  0.0247  0.3275
55448DOD     C210164  29.586  21.745  17.287  0.1956 -0.2612  0.1139
55448DOD     C310165  29.262  21.707  16.944 -0.2486 -0.2250  0.0770
55449DOD     C110166  20.695  16.939  12.672 -0.1156 -0.0508  0.0900
55449DOD     C210167  20.365  16.830  12.367  0.1667  0.0496 -0.1721
55449DOD     C310168  20.082  16.451  12.222 -0.3060 -0.0985 -0.3153
55450DOD     C110169  23.024  18.961   9.874  0.0106  0.0747 -0.3239
55450DOD     C210170  22.613  19.015  10.135  0.2455 -0.3101 -0.1271
55450DOD     C310171  22.409  19.129  10.510  0.2203  0.0902  0.0126
55451DOD     C110172  29.352  13.663  21.190  0.0095  0.2653  0.3745
55451DOD     C210173  29.564  13.814  21.578 -0.0038  0.0232 -0.2932
55451DOD     C310174  29.781  13.743  22.009 -0.4389 -0.0365  0.0654
55452DOD     C110175   7.821  25.136  28.280  0.5274 -0.0796 -0.0113
55452DOD     C210176   7.995  25.510  28.561  0.0695  0.0670 -0.1153
55452DOD     C310177   7.951  25.829  28.865  0.0009 -0.1142 -0.1181
55453DOD     C110178  25.129  20.911   3.271 -0.2540  0.0845  0.2090
55453DOD     C210179  24.851  20.954   3.697  0.0940  0.1608  0.1002
55453DOD     C310180  25.064  21.153   4.068 -0.1200  0.1142 -0.3497
55454DOD     C110181  28.885   9.849  14.592 -0.3288 -0.1292  0.1344
55454DOD     C210182  28.803   9.425  14.441  0.3303  0.0938  0.0500
55454DOD     C310183  28.537   9.058  14.468 -0.4511 -0.3364 -0.3007
55455DOD     C110184  25.972  23.302   5.109  0.0911 -0.3363  0.2009
55455DOD     C210185  26.414  23.429   5.085 -0.2076  0.2235  0.1755
55455DOD     C310186  26.608  23.419   4.621  0.0681  0.0935  0.0233
55456DOD     C110187  16.041  17.353  12.776  0.2137 -0.0721 -0.0058
55456DOD     C210188  16.368  17.613  12.892 -0.1790 -0.1946 -0.2981
55456DOD     C310189  16.779  17.701  13.103  0.0219  0.2250 -0.0077
55457DOD     C110190   9.118  21.784  25.814  0.0125  0.2738  0.1165
55457DOD     C210191   8.691  21.632  25.815  0.3373 -0.0143  0.1904
55457DOD     C310192   8.248  21.435  25.623  0.0767 -0.0715 -0.2002
55458DOD     C110193  14.356  20.149   3.773  0.0120  0.1993  0.0689
55458DOD     C210194  14.295  19.649   3.696 -0.1713 -0.0227 -0.1159
55458DOD     C310195  14.425  19.295   3.388 -0.0548 -0.2023  0.0637
55459DOD     C110196  18.327  15.972  20.995 -0.2615  0.0987 -0.2387
55459DOD     C210197  18.609  15.754  21.344  0.1883  0.0406 -0.0526
55459DOD     C310198  18.806  15.747  21.794 -0.3634  0.3787 -0.1848
55460DOD     C110199  11.528  23.849  22.599  0.2209 -0.1200 -0.0959
55460DOD     C210200  11.884  23.645  22.738  0.0394 -0.2929 -0.3959
55460DOD     C310201  12.355  23.557  22.712  0.5083 -0.1402  0.3218
55461DOD     C110202  10.614   1.300  27.917  0.2201  0.1253 -0.2210
55461DOD     C210203  10.566   0.843  27.907 -0.0200 -0.1485  0.1646
55461DOD     C310204  10.510   0.508  28.109 -0.0957 -0.1681 -0.1816
55462DOD     C110205  20.645  25.410  25.316  0.4668 -0.2040  0.2241
55462DOD     C210206  21.113  25.477  25.242 -0.0606  0.0606  0.0587
55462DOD     C310207  21.386  25.883  25.315 -0.4223 -0.1739 -0.1942
55463DOD     C110208   5.666   1.089  17.531  0.0964 -0.0770 -0.1499
55463DOD     C210209   6.109   1.219  17.463 -0.3413 -0.0638 -0.3748
55463DOD     C310210   6.490   1.288  17.232 -0.1789  0.2149  0.1060
55464DOD     C110211  12.449   3.182  24.551 -0.0494 -0.2430 -0.1860
55464DOD     C210212  12.859   3.045  24.326  0.1383  0.1984  0.1840
55464DOD     C310213  13.232   2.949  24.028  0.3545 -0.0400  0.0934
55465DOD     C110214  12.392  27.425  16.754 -0.0246  0.0174  0.2526
55465DOD     C210215  12.574  27.510  17.154 -0.3647  0.1098  0.0698
55465DOD     C310216  12.992  27.636  17.211  0.2077  0.0080  0.2519
55466DOD     C110217  24.360  27.954  27.460 -0.2114 -0.4183 -0.2435
55466DOD     C210218  23.992  28.055  27.200  0.1693  0.0967 -0.3206
55466DOD     C310219  23.527  27.944  27.092  0.0241 -0.0733 -0.3136
55467DOD     C110220  14.272  11.734   6.984 -0.0387  0.0255  0.3023
55467DOD     C210221  14.384  11.827   6.528  0.2312  0.2223  0.3681
55467DOD     C310222  14.091  11.948   6.172  0.0952 -0.4994  0.0978
55468DOD     C110223  24.864  15.237   9.587  0.5367  0.2217  0.0799
55468DOD     C210224  25.156  14.854   9.617 -0.4531  0.1827 -0.1323
55468DOD     C310225  25.399  14.598   9.323  0.0724  0.1693  0.1897
55469DOD     C110226  25.728  26.481   1.342 -0.1147  0.1650  0.0536
55469DOD     C210227  26.018  26.143   1.369 -0.0225 -0.1348 -0.0484
55469DOD     C310228  26.289  25.939   1.082  0.0538 -0.1722 -0.0491
55470DOD     C110229  10.640  24.819  30.274  0.2864 -0.1575 -0.2540
55470DOD     C210230  10.947  25.100  30.102  0.3205 -0.0435 -0.3082
55470DOD     C310231  11.092  25.480  30.011  0.1912 -0.0585 -0.0580
55471DOD     C110232   0.857  17.175  25.222 -0.2588  0.1689 -0.3394
55471DOD     C210233   0.674  17.036  25.643  0.0618  0.3893  0.3371
55471DOD     C310234   0.619  17.059  26.076 -0.2456 -0.0437  0.0159
55472DOD     C110235   7.091  16.120   9.389 -0.2059  0.0945  0.0785
55472DOD     C210236   7.077  15.881   9.792  0.1080 -0.3555  0.0013
55472DOD     C310237   7.117  15.690  10.223 -0.0408 -0.0159 -0.0542
55473DOD     C110238  13.536   7.010  19.454 -0.0593 -0.2212  0.0801
55473DOD     C210239  13.860   7.233  19.710 -0.0429  0.0405  0.2244
55473DOD     C310240  14.045   7.647  19.908  0.1060  0.0536 -0.0375
55474DOD     C110241   0.110   3.522  25.905  0.1902 -0.1460 -0.0648
55474DOD     C210242   0.523   3.261  26.022  0.1340  0.0357  0.1410
55474DOD     C310243   0.818   3.210  26.384  0.2421 -0.3286 -0.0042
55475DOD     C110244  27.409  23.027  27.658 -0.0728  0.0202  0.2685
55475DOD     C210245  27.754  22.768  27.775 -0.1391 -0.0594  0.0081
55475DOD     C310246  28.124  22.640  28.057  0.1297  0.1390  0.1708
55476DOD     C110247  11.048   1.565   8.380  0.2459  0.0825  0.1705
55476DOD     C210248  11.009   1.385   7.915 -0.0366  0.0653 -0.1090
55476DOD     C310249  11.166   1.099   7.540  0.2108  0.1020  0.0387
55477DOD     C110250   8.356  26.816   7.705 -0.1024 -0.0219  0.0864
55477DOD     C210251   8.328  27.025   8.080 -0.0847 -0.1648 -0.1261
55477DOD     C310252   8.384  26.694   8.421 -0.1761  0.0071 -0.0407
55478DOD     C110253   0.498  18.464  29.528  0.0580  0.2622 -0.1540
55478DOD     C210254   0.184  18.766  29.658  0.1905 -0.0217 -0.1055
55478DOD     C310255  30.218  18.953  29.940 -0.2858 -0.0634  0.1906
55479DOD     C110256   2.232  10.928  27.519 -0.0518 -0.1779 -0.1167
55479DOD     C210257   1.905  10.799  27.185  0.0684  0.2852  0.0138
55479DOD     C310258   1.953  10.962  26.749  0.2394  0.2399  0.1144
55480DOD     C110259  21.299  14.271  15.262  0.0937 -0.3170  0.3510
55480DOD     C210260  21.728  14.264  15.371 -0.0448  0.1201  0.0973
55480DOD     C310261  22.042  14.371  15.714  0.0072  0.0266  0.0271
55481DOD     C110262   6.870  27.496  20.713  0.4610  0.1383 -0.2135
55481DOD     C210263   7.031  27.865  20.551 -0.1850 -0.1266  0.1575
55481DOD     C310264   7.172  28.105  20.177 -0.0383 -0.0609  0.3615
55482DOD     C110265   6.181  23.089  18.897 -0.1231  0.0622  0.0021
55482DOD     C210266   6.586  22.880  18.891 -0.1157 -0.0869  0.0411
55482DOD     C310267   6.684  22.401  18.739  0.0881  0.4398  0.2314
55483DOD     C110268  21.687  17.743  25.049 -0.0718  0.0093  0.2848
55483DOD     C210269  21.381  17.584  25.386 -0.0894 -0.0608  0.1651
55483DOD     C310270  21.149  17.780  25.728 -0.0891  0.1056  0.1569
55484DOD     C110271   4.119  13.972  19.173 -0.4014 -0.1587 -0.0593
55484DOD     C210272   4.286  13.740  19.578 -0.0288 -0.0750  0.2065
55484DOD     C310273   4.456  13.522  19.971 -0.3871  0.1643 -0.1654
55485DOD     C110274  16.531   9.027  16.920 -0.0703 -0.2138  0.2667
55485DOD     C210275  16.526   9.444  16.642 -0.0452 -0.2288 -0.0441
55485DOD     C310276  16.645   9.914  16.627  0.1743  0.0194 -0.1047
55486DOD     C110277  11.453   6.156   9.884 -0.0256  0.0367  0.0843
55486DOD     C210278  11.546   6.038  10.327  0.1153 -0.0897  0.1339
55486DOD     C310279  11.778   6.314  10.608 -0.0137  0.1620 -0.2198
55487DOD     C110280  15.362   1.375  23.258  0.0316  0.1171  0.0585
55487DOD     C210281  15.148   1.489  22.878 -0.1652  0.3258 -0.4509
55487DOD     C310282  15.056   1.695  22.482 -0.0260 -0.2625  0.1682
55488DOD     C110283  16.763   9.182  27.978 -0.4024  0.0765 -0.1075
55488DOD     C210284  16.855   9.593  28.240  0.0405  0.2182  0.2307
55488DOD     C310285  16.774   9.956  28.572  0.2648  0.0667  0.0641
55489DOD     C110286  19.078  17.809  15.556  0.0034 -0.0570  0.3534
55489DOD     C210287  19.047  18.116  15.826  0.0960  0.0636  0.0493
55489DOD     C310288  19.096  18.166  16.278 -0.0728  0.1640 -0.3100
55490DOD     C110289  22.263  10.552   0.365 -0.0160 -0.0466  0.1200
55490DOD     C210290  21.853  10.467   0.271  0.2181  0.0005 -0.0655
55490DOD     C310291  21.484  10.578   0.049  0.0870  0.0608 -0.1650
55491DOD     C110292   4.676   5.668   9.356  0.1229  0.1730 -0.1770
55491DOD     C210293   4.439   5.346   9.465  0.1009 -0.1358  0.4122
55491DOD     C310294   4.067   5.138   9.307 -0.0069  0.0644  0.0106
55492DOD     C110295  19.681  13.526  15.216  0.1316 -0.0751  0.2538
55492DOD     C210296  19.569  13.707  14.807 -0.3550  0.1297 -0.0845
55492DOD     C310297  19.601  13.676  14.281 -0.0301 -0.2049 -0.1276
55493DOD     C110298   5.029  18.922   8.949 -0.1106 -0.5229 -0.0478
55493DOD     C210299   5.362  19.238   9.109 -0.0129 -0.2549  0.0671
55493DOD     C310300   5.533  19.661   9.325  0.1005 -0.1758 -0.0621
55494DOD     C110301   8.608  18.602  12.529  0.0793 -0.2056  0.0391
55494DOD     C210302   8.344  18.650  12.119 -0.0217 -0.0197 -0.1457
55494DOD     C310303   8.215  18.705  11.658  0.1842 -0.0866  0.0007
55495DOD     C110304  13.702  27.610  10.834  0.3148  0.2815  0.0221
55495DOD     C210305  13.405  27.306  10.629 -0.2109  0.0656 -0.0244
55495DOD     C310306  12.981  27.088  10.665 -0.1390 -0.0444  0.0499
55496DOD     C110307  22.828   7.074  16.708 -0.3115  0.3992  0.0868
55496DOD     C210308  23.142   7.199  17.033  0.0558 -0.2170  0.2386
55496DOD     C310309  23.335   7.662  16.997 -0.1964  0.4472  0.0154
55497DOD     C110310  14.712  28.728  28.076  0.1957  0.1089 -0.1022
55497DOD     C210311  14.759  28.815  27.645 -0.0978 -0.1377 -0.1840
55497DOD     C310312  15.037  28.799  27.250 -0.0216 -0.0969 -0.0969
55498DOD     C110313  20.356  22.221   8.704  0.1289 -0.1764  0.2999
55498DOD     C210314  20.186  22.594   8.946  0.1052  0.2760  0.2543
55498DOD     C310315  20.210  22.886   9.271  0.1440 -0.1674  0.2551
55499DOD     C110316  21.532   9.982  16.670 -0.1366  0.0843 -0.3929
55499DOD     C210317  21.972   9.951  16.654  0.3324  0.2404  0.1161
55499DOD     C310318  22.314   9.758  16.934 -0.0235 -0.0303  0.0174
55500DOD     C110319  25.765  14.222  10.034 -0.2686 -0.0233 -0.1321
55500DOD     C210320  25.685  14.678  10.104  0.1734 -0.2188 -0.1282
55500DOD     C310321  25.458  14.985  10.353 -0.0356  0.0972  0.0963
55501DOD     C110322  24.789   9.473   8.732 -0.3125 -0.0530 -0.0659
55501DOD     C210323  25.243   9.689   8.710  0.1462  0.1082  0.0986
55501DOD     C310324  25.652   9.922   8.548  0.1359 -0.0168  0.1764
55502DOD     C110325   6.550   8.554   6.382 -0.0125  0.2764 -0.1622
55502DOD     C210326   6.593   9.042   6.449 -0.0955 -0.2082 -0.0932
55502DOD     C310327   6.303   9.460   6.500  0.0011 -0.1385  0.1204
55503DOD     C110328  15.749  18.617   6.250  0.1501  0.2023  0.1435
55503DOD     C210329  16.163  18.542   6.429 -0.1270  0.0002  0.0145
55503DOD     C310330  16.320  18.507   6.873 -0.3048 -0.1566  0.1486
55504DOD     C110331  27.011  25.053  24.112  0.4277  0.0362  0.1072
55504DOD     C210332  27.255  25.495  24.164  0.1106 -0.2116 -0.2581
55504DOD     C310333  27.480  25.880  24.457 -0.0312 -0.3229 -0.0710
55505DOD     C110334  19.553  29.380  21.573 -0.0599  0.2137  0.1554
55505DOD     C210335  19.707  29.805  21.659  0.2878 -0.2593 -0.1294
55505DOD     C310336  19.979  30.156  21.848 -0.3768  0.2022  0.2833
55506DOD     C110337   6.472  21.253  27.651  0.0181  0.1738  0.4607
55506DOD     C210338   6.506  21.715  27.737  0.1714 -0.2164  0.1588
55506DOD     C310339   6.568  22.089  27.546 -0.1974 -0.0034 -0.0765
55507DOD     C110340  24.986  15.827  15.552 -0.2827  0.0078  0.0662
55507DOD     C210341  24.622  15.707  15.253  0.2951  0.0945  0.2517
55507DOD     C310342  24.156  15.803  15.246  0.2635 -0.0579 -0.1503
55508DOD     C110343  26.740   5.287  23.713  0.1460 -0.0525 -0.1109
55508DOD     C210344  26.597   5.068  23.289  0.2015 -0.0457 -0.2085
55508DOD     C310345  26.450   5.192  22.923 -0.1212  0.0672 -0.0564
55509DOD     C110346  25.056  13.518   5.730 -0.0585  0.2450  0.0394
55509DOD     C210347  25.336  13.658   5.384 -0.5818 -0.0742 -0.0937
55509DOD     C310348  25.686  13.942   5.378  0.0145  0.0617 -0.1701
55510DOD     C110349  22.820  19.076  16.739  0.0386  0.0953 -0.1122
55510DOD     C210350  22.407  19.287  16.807  0.3637 -0.0527  0.0382
55510DOD     C310351  22.255  19.772  16.828  0.2502  0.0598  0.1425
55511DOD     C110352   7.211   8.861  16.374 -0.4121 -0.1334  0.1241
55511DOD     C210353   7.348   9.284  16.241  0.2643  0.3327 -0.0588
55511DOD     C310354   7.474   9.699  15.952  0.1090 -0.2152  0.0063
55512DOD     C110355  18.711   6.605  25.368 -0.0442 -0.2238  0.0965
55512DOD     C210356  18.866   6.175  25.452  0.2930 -0.1219  0.1733
55512DOD     C310357  19.133   5.893  25.231  0.0083  0.1760  0.0589
55513DOD     C110358  26.612   7.472  12.784 -0.2776  0.0814  0.0844
55513DOD     C210359  27.008   7.601  13.015  0.1954 -0.0595  0.0034
55513DOD     C310360  27.476   7.645  13.061  0.1044 -0.2903 -0.3310
55514DOD     C110361   5.624  15.433   8.792 -0.1557  0.2713 -0.1301
55514DOD     C210362   5.746  15.374   8.292 -0.1516 -0.0814 -0.0651
55514DOD     C310363   6.055  15.628   8.155  0.1326 -0.0581  0.0569
55515DOD     C110364  13.790  22.124  15.167  0.1897  0.2581  0.2186
55515DOD     C210365  13.469  21.748  15.218  0.1268  0.3475 -0.1613
55515DOD     C310366  13.004  21.558  15.291  0.3325  0.1332 -0.3651
55516DOD     C110367  17.567   8.538   7.887  0.1102  0.2997 -0.1499
55516DOD     C210368  17.095   8.370   7.981  0.0866  0.0693 -0.1622
55516DOD     C310369  17.030   8.045   8.273  0.1807  0.2169  0.1907
55517DOD     C110370  12.809  26.799  23.816  0.1829  0.0013 -0.1369
55517DOD     C210371  12.447  27.065  24.040 -0.0970 -0.0774  0.3758
55517DOD     C310372  12.100  27.098  24.295 -0.0096  0.0309 -0.3776
55518DOD     C110373  22.371   7.105  14.598  0.0438 -0.2793 -0.2526
55518DOD     C210374  22.818   7.115  14.664  0.0024 -0.0102  0.4858
55518DOD     C310375  23.146   7.102  14.982 -0.3602 -0.0850  0.0818
55519DOD     C110376   0.573   4.505   6.615 -0.0627 -0.1296 -0.1318
55519DOD     C210377   0.492   4.702   7.052 -0.1825 -0.1078 -0.4304
55519DOD     C310378   0.152   4.873   7.264  0.1184  0.1053 -0.0319
55520DOD     C110379   2.719   6.144  25.670 -0.1216 -0.1392 -0.1003
55520DOD     C210380   2.584   6.483  25.392  0.1895  0.1442 -0.3651
55520DOD     C310381   2.526   6.938  25.310  0.0989 -0.0734 -0.2281
55521DOD     C110382  24.493  29.738   8.956  0.1877  0.0991  0.0044
55521DOD     C210383  24.432  29.271   9.163  0.1318 -0.0339 -0.3467
55521DOD     C310384  24.135  28.923   9.335 -0.0240 -0.0624  0.3452
55522DOD     C110385  19.699   1.162  14.518 -0.0720 -0.3162  0.2540
55522DOD     C210386  19.678   0.768  14.320  0.3347  0.2812 -0.0313
55522DOD     C310387  19.869   0.525  13.957  0.5244  0.2983 -0.0545
55523DOD     C110388   7.611  16.867  21.455 -0.1830  0.1155  0.0815
55523DOD     C210389   7.497  17.137  21.771 -0.0977  0.0764 -0.0171
55523DOD     C310390   7.469  17.546  22.041 -0.0996 -0.1228  0.0759
55524DOD     C110391  26.840   7.452  20.190 -0.1520 -0.0071  0.0604
55524DOD     C210392  26.931   7.319  19.805 -0.0217 -0.2280  0.0102
55524DOD     C310393  27.018   6.936  19.545 -0.0910  0.2667 -0.0698
55525DOD     C110394  17.444  17.379  17.653  0.0097 -0.3545  0.2317
55525DOD     C210395  17.040  17.596  17.635 -0.2237  0.1582  0.0087
55525DOD     C310396  16.632  17.526  17.616  0.0117  0.0839 -0.0881
55526DOD     C110397   8.534  30.200  27.084 -0.0549 -0.0113  0.0225
55526DOD     C210398   8.201   0.127  27.037  0.0046  0.1912  0.0714
55526DOD     C310399   8.036   0.425  26.712 -0.1763  0.1042 -0.1042
55527DOD     C110400  18.258   9.116  29.817  0.0850  0.1814  0.0887
55527DOD     C210401  17.823   8.998  29.646 -0.0226 -0.4339  0.0573
55527DOD     C310402  17.402   8.725  29.696  0.1466  0.2006 -0.0674
55528DOD     C110403   4.635  25.022  27.358  0.1733  0.0110  0.0922
55528DOD     C210404   4.833  24.856  26.993 -0.1135 -0.1588 -0.1341
55528DOD     C310405   5.239  25.040  26.936 -0.0668  0.0605  0.0181
55529DOD     C110406  11.213  11.015  23.164  0.1177  0.0178  0.1003
55529DOD     C210407  10.814  10.749  23.192  0.0979 -0.0158 -0.1122
55529DOD     C310408  10.402  10.582  23.091  0.0174  0.1047  0.2562
55530DOD     C110409   0.952   6.485  29.685 -0.2992  0.0310 -0.1845
55530DOD     C210410   1.004   6.911  29.504 -0.0424 -0.0788  0.1524
55530DOD     C310411   0.787   7.245  29.292 -0.0809 -0.0972  0.2229
55531DOD     C110412   2.438   5.828   9.314  0.1859  0.0022 -0.4003
55531DOD     C210413   2.536   5.588   8.904 -0.3240 -0.0152  0.0679
55531DOD     C310414   2.282   5.612   8.511  0.0378  0.0572  0.1278
55532DOD     C110415  21.519  10.699  11.116  0.1194 -0.0567  0.0989
55532DOD     C210416  21.301  10.599  10.718 -0.4933  0.2238 -0.0549
55532DOD     C310417  21.336  10.836  10.296  0.1106 -0.1388 -0.1349
55533DOD     C110418   1.186  28.735  27.589 -0.1354  0.1894 -0.5048
55533DOD     C210419   1.023  29.080  27.891 -0.2398  0.0226 -0.1113
55533DOD     C310420   0.568  29.132  28.045 -0.0012 -0.0456 -0.0330
55534DOD     C110421  26.389  12.121   4.691 -0.2215  0.4860 -0.1320
55534DOD     C210422  26.058  12.002   4.989  0.2029  0.1219  0.1600
55534DOD     C310423  26.057  12.023   5.416  0.0710  0.0876  0.0935
55535DOD     C110424   7.983  21.134   4.994 -0.1104  0.1415 -0.3842
55535DOD     C210425   7.639  20.768   4.838 -0.2137  0.1925 -0.2066
55535DOD     C310426   7.510  20.509   5.168  0.2615  0.1003  0.2118
55536DOD     C110427  22.056   2.302   5.363 -0.1477 -0.0834  0.1561
55536DOD     C210428  22.001   1.843   5.593  0.1996 -0.3597 -0.3712
55536DOD     C310429  21.808   1.463   5.505  0.1858  0.1336 -0.1399
55537DOD     C110430  24.481  16.289   4.720 -0.2407 -0.0576 -0.1939
55537DOD     C210431  24.388  16.241   4.282  0.0919  0.0250  0.2433
55537DOD     C310432  24.645  16.135   3.890 -0.0476 -0.1260  0.0899
55538DOD     C110433  13.990  21.588  18.098 -0.2518 -0.0783  0.1225
55538DOD     C210434  14.435  21.570  18.142  0.0709 -0.0990  0.0913
55538DOD     C310435  14.769  21.896  18.037 -0.0453  0.3112  0.2256
55539DOD     C110436   4.427   7.644   2.891 -0.2619 -0.2570  0.0612
55539DOD     C210437   4.725   7.944   2.676 -0.0010  0.0317  0.1171
55539DOD     C310438   5.080   8.212   2.525  0.2850  0.1361 -0.2971
55540DOD     C110439  21.438  26.846  12.456  0.0154 -0.1780  0.2458
55540DOD     C210440  21.287  27.097  12.129 -0.0453 -0.0161  0.1060
55540DOD     C310441  21.250  27.037  11.618  0.2136  0.0446 -0.2199
55541DOD     C110442  23.419  20.917   1.143 -0.1170  0.1445  0.1686
55541DOD     C210443  23.051  20.611   1.137 -0.3920 -0.0991 -0.0669
55541DOD     C310444  22.710  20.279   1.101  0.0754 -0.0788  0.2536
55542DOD     C110445   6.003  12.669   0.880  0.0037  0.2433 -0.0032
55542DOD     C210446   5.850  12.292   0.866 -0.4038  0.1526  0.1638
55542DOD     C310447   5.817  11.820   0.953 -0.1365 -0.1719  0.0909
55543DOD     C110448  20.303  22.021  13.102  0.0434  0.3818 -0.2615
55543DOD     C210449  20.738  22.211  13.195 -0.4551 -0.0994  0.2115
55543DOD     C310450  21.156  22.359  13.373  0.1213  0.0226 -0.2318
55544DOD     C110451  14.611   5.050   4.336 -0.2735  0.1150  0.2063
55544DOD     C210452  14.424   5.264   4.715  0.1320  0.1280  0.0259
55544DOD     C310453  13.987   5.343   4.704 -0.0906  0.2508  0.4475
55545DOD     C110454  18.268   4.139  23.775  0.1599  0.0967  0.0264
55545DOD     C210455  18.508   3.796  23.959  0.4564 -0.3152 -0.0154
55545DOD     C310456  18.622   3.419  24.182  0.0749 -0.1906 -0.0490
55546DOD     C110457  17.302  14.852  20.465 -0.0821 -0.0100  0.2257
55546DOD     C210458  17.194  14.436  20.537  0.0942 -0.0521  0.1939
55546DOD     C310459  17.122  14.063  20.764 -0.0155 -0.0447 -0.3410
55547DOD     C110460   3.910  10.687   2.487 -0.1450 -0.2404  0.0959
55547DOD     C210461   3.999  10.291   2.440  0.0884 -0.0978  0.1619
55547DOD     C310462   4.195   9.930   2.326  0.0237  0.1198 -0.1234
55548DOD     C110463  24.911   8.163   6.270 -0.1149  0.0276 -0.0052
55548DOD     C210464  24.605   7.873   6.040  0.0953 -0.0914  0.2937
55548DOD     C310465  24.265   7.649   5.781  0.0253  0.5348 -0.0153
55549DOD     C110466  12.073  15.558  26.348  0.3595 -0.0534 -0.2130
55549DOD     C210467  12.440  15.281  26.219  0.0948 -0.3953  0.1357
55549DOD     C310468  12.447  14.836  26.311 -0.0431  0.4283 -0.1754
55550DOD     C110469  16.963  21.281  16.414 -0.0085 -0.1912 -0.0018
55550DOD     C210470  17.227  20.970  16.704  0.1999  0.2044 -0.1099
55550DOD     C310471  17.546  20.692  17.018  0.1502  0.0813  0.3659
55551DOD     C110472   3.887  15.732   5.473  0.0004 -0.1025  0.3635
55551DOD     C210473   3.689  15.361   5.656 -0.1494 -0.3419 -0.1204
55551DOD     C310474   3.371  15.116   5.610  0.0016 -0.0956 -0.2492
55552DOD     C110475  19.868  16.570  23.805  0.0213 -0.0134 -0.0741
55552DOD     C210476  19.721  16.722  23.384 -0.0102 -0.0020 -0.1539
55552DOD     C310477  19.368  16.952  23.222  0.0610  0.2504  0.0723
55553DOD     C110478   4.083   0.785  27.560 -0.0196 -0.0605 -0.2494
55553DOD     C210479   3.981   1.128  27.867  0.0001  0.0062  0.1265
55553DOD     C310480   4.056   1.305  28.318 -0.0855  0.0156  0.4165
55554DOD     C110481   1.374  26.466  18.123 -0.0432  0.0147 -0.1675
55554DOD     C210482   0.911  26.602  18.247  0.0198 -0.0102 -0.1482
55554DOD     C310483   0.720  27.059  18.198 -0.1608  0.1781 -0.1923
55555DOD     C110484  12.438  22.567  11.106  0.0394  0.3536  0.0110
55555DOD     C210485  12.388  22.215  11.398 -0.0124  0.2248  0.0993
55555DOD     C310486  12.200  21.904  11.637 -0.0648 -0.0662 -0.2879
55556DOD     C110487   0.023  29.246   4.242 -0.1930  0.0566 -0.1086
55556DOD     C210488  30.111  29.573   4.327  0.3335 -0.0245  0.0408
55556DOD     C310489  29.744  29.927   4.246  0.1811  0.1579  0.1575
55557DOD     C110490  20.450   4.739   3.228  0.0657 -0.0861  0.2015
55557DOD     C210491  20.306   4.462   2.933  0.0471 -0.0716  0.1249
55557DOD     C310492  20.050   4.091   2.695 -0.0093 -0.4397  0.0191
55558DOD     C110493   5.594  29.478   4.439  0.1641 -0.2611  0.0885
55558DOD     C210494   5.948  29.740   4.641  0.1689  0.0347 -0.0751
55558DOD     C310495   6.295  30.021   4.624 -0.1793 -0.1845 -0.1860
55559DOD     C110496  17.171  18.885   9.115  0.0980  0.2693 -0.2672
55559DOD     C210497  16.953  18.675   9.497  0.0388  0.1130  0.2032
55559DOD     C310498  16.585  18.739   9.746 -0.0456  0.1443 -0.0297
55560DOD     C110499   9.293  26.457  13.950  0.2646 -0.2060  0.0112
55560DOD     C210500   9.295  26.019  13.947 -0.0046  0.2608  0.3537
55560DOD     C310501   9.418  25.663  13.782  0.1953 -0.0492  0.0344
55561DOD     C110502  19.245  12.930   6.035  0.3384  0.0871  0.1092
55561DOD     C210503  19.391  12.665   5.699 -0.0996  0.1967  0.0529
55561DOD     C310504  19.693  12.729   5.305 -0.1035 -0.1128  0.3105
55562DOD     C110505  13.536  28.328  17.146  0.1741  0.1100  0.1369
55562DOD     C210506  13.570  28.159  16.707 -0.0999 -0.1683  0.0627
55562DOD     C310507  13.898  28.151  16.368  0.1074 -0.1962 -0.1096
55563DOD     C110508  25.840  16.902  24.648  0.0756  0.2366  0.0225
55563DOD     C210509  25.566  16.526  24.493  0.0512  0.0214 -0.0531
55563DOD     C310510  25.223  16.241  24.276 -0.1649  0.2524 -0.0283
55564DOD     C110511  21.055  15.333   2.465 -0.0436 -0.5337 -0.1507
55564DOD     C210512  21.477  15.483   2.673 -0.0865  0.0324 -0.0245
55564DOD     C310513  21.928  15.584   2.610  0.0622  0.0561  0.0556
55565DOD     C110514  25.747   0.356   6.523  0.0861  0.0024 -0.2790
55565DOD     C210515  25.481   0.722   6.519 -0.2097  0.0476  0.1419
55565DOD     C310516  25.260   1.074   6.661 -0.2047 -0.0571 -0.0338
55566DOD     C110517   4.780  24.001  27.457 -0.1719 -0.1244  0.1239
55566DOD     C210518   4.795  23.638  27.799  0.2638 -0.1076  0.0619
55566DOD     C310519   4.696  23.238  27.701 -0.1638  0.2321 -0.0023
55567DOD     C110520   5.919  27.330  27.747  0.2243 -0.2287  0.1254
55567DOD     C210521   5.431  27.436  27.843 -0.1565 -0.1566  0.1412
55567DOD     C310522   5.183  27.842  27.950  0.2166 -0.3869  0.1806
55568DOD     C110523  19.220   3.313  20.362  0.5409 -0.0259  0.1206
55568DOD     C210524  19.615   3.312  20.519  0.0020  0.1107 -0.2010
55568DOD     C310525  20.088   3.516  20.437 -0.2181 -0.1515 -0.0286
55569DOD     C110526  13.599  13.078  24.763  0.0718 -0.0603 -0.2068
55569DOD     C210527  13.781  12.671  24.766  0.2023 -0.2795  0.1211
55569DOD     C310528  13.720  12.184  24.836 -0.0922 -0.2100 -0.2810
55570DOD     C110529  24.469   5.397  13.003  0.0756 -0.1311 -0.2216
55570DOD     C210530  24.423   5.818  13.165 -0.0673 -0.0114  0.0009
55570DOD     C310531  24.559   6.246  13.278  0.1028 -0.0711 -0.2296
55571DOD     C110532  12.140  14.958   9.085  0.1919 -0.0459 -0.2194
55571DOD     C210533  12.162  14.909   8.632  0.0857  0.1123  0.0685
55571DOD     C310534  12.233  14.836   8.136 -0.2524  0.3211 -0.2217
55572DOD     C110535  26.442   9.221  29.964  0.0876 -0.1699  0.0154
55572DOD     C210536  26.164   9.532  29.815 -0.1910  0.0737 -0.3440
55572DOD     C310537  25.774   9.675  29.526 -0.0958  0.0704 -0.2430
55573DOD     C110538  22.333   8.680   7.234 -0.6300 -0.0486  0.3232
55573DOD     C210539  21.917   8.534   7.331 -0.0690  0.0600 -0.0801
55573DOD     C310540  21.590   8.717   7.558  0.2933 -0.0862  0.1451
55574DOD     C110541  18.195  17.770  28.802 -0.0560  0.1681  0.4766
55574DOD     C210542  17.772  17.737  28.991  0.0830 -0.1291 -0.4283
55574DOD     C310543  17.336  17.827  29.145 -0.0352  0.1948 -0.0451
55575DOD     C110544  16.375  30.326  10.995  0.0274  0.0831  0.0178
55575DOD     C210545  16.255   0.204  11.362 -0.0606 -0.0697 -0.0250
55575DOD     C310546  16.104   0.543  11.636 -0.1671 -0.1387 -0.2469
55576DOD     C110547   8.131  12.062  15.848  0.0566 -0.0390  0.3529
55576DOD     C210548   8.019  11.631  15.677  0.2501 -0.0569  0.0166
55576DOD     C310549   8.088  11.248  15.390 -0.2302 -0.2578  0.0224
55577DOD     C110550  28.026   3.356  14.251  0.1685 -0.0326 -0.1414
55577DOD     C210551  28.286   3.213  13.898  0.0249 -0.3239 -0.2687
55577DOD     C310552  28.286   3.104  13.462  0.4093  0.3646 -0.1205
55578DOD     C110553   8.536   1.065  26.320  0.2689 -0.0544  0.0520
55578DOD     C210554   8.965   1.106  26.315 -0.1000  0.0355  0.0332
55578DOD     C310555   9.350   0.821  26.324 -0.2029 -0.2725  0.1839
55579DOD     C110556   5.731   8.445  21.353 -0.3571  0.1232  0.0657
55579DOD     C210557   5.828   8.911  21.386  0.1017  0.1651  0.0437
55579DOD     C310558   5.917   9.148  21.020 -0.1300 -0.0158  0.2802
55580DOD     C110559  22.248  11.904  15.781 -0.3337  0.1071  0.0678
55580DOD     C210560  22.111  12.294  15.877  0.1440 -0.1937 -0.0238
55580DOD     C310561  22.032  12.565  16.174 -0.0015 -0.0796  0.3069
55581DOD     C110562   5.693  17.288  21.003  0.0547  0.1236  0.2766
55581DOD     C210563   6.037  17.068  20.788  0.1042 -0.2192 -0.0131
55581DOD     C310564   6.391  17.161  20.493 -0.1162 -0.0728 -0.5514
55582DOD     C110565   3.405   1.331  27.100  0.2861  0.0665 -0.1936
55582DOD     C210566   3.545   1.694  26.778 -0.0207  0.0215 -0.0426
55582DOD     C310567   3.431   2.053  26.467 -0.0584 -0.0734  0.4374
55583DOD     C110568   3.784   6.542  24.027  0.0549  0.0199 -0.1867
55583DOD     C210569   3.442   6.443  23.734 -0.2616 -0.2218  0.1833
55583DOD     C310570   3.235   6.655  23.358 -0.2546  0.1123 -0.0382
55584DOD     C110571   1.984  20.774  20.395 -0.0335  0.0673  0.0291
55584DOD     C210572   2.264  20.902  20.053  0.2426  0.0960 -0.1884
55584DOD     C310573   2.541  21.276  20.047 -0.0649 -0.1779  0.1464
55585DOD     C110574  25.730  30.223  28.963 -0.1478  0.0905  0.2192
55585DOD     C210575  26.084  30.040  28.728 -0.2093 -0.0015 -0.1217
55585DOD     C310576  26.393  29.941  28.349  0.0766 -0.1975  0.4541
55586DOD     C110577  22.571  11.574   6.364  0.1169  0.1783 -0.1821
55586DOD     C210578  23.030  11.407   6.406 -0.1400  0.0405 -0.0935
55586DOD     C310579  23.508  11.596   6.462  0.3908 -0.0130  0.0217
55587DOD     C110580   2.512  23.320   6.984  0.1765  0.2042  0.1467
55587DOD     C210581   2.406  23.066   6.599 -0.0752  0.2155 -0.1864
55587DOD     C310582   2.343  22.787   6.261 -0.3450 -0.0462  0.1039
55588DOD     C110583   7.627  14.445  11.650  0.3001  0.1374  0.2040
55588DOD     C210584   8.083  14.402  11.549  0.1065 -0.0367 -0.1705
55588DOD     C310585   8.583  14.425  11.418 -0.0035 -0.0993 -0.2543
55589DOD     C110586   1.987   5.103  28.925 -0.4453  0.0737 -0.1974
55589DOD     C210587   2.146   4.997  28.510  0.0119  0.0372  0.1305
55589DOD     C310588   2.011   4.831  28.064 -0.3285  0.4030 -0.2291
55590DOD     C110589  11.064   2.783   9.134 -0.0432 -0.0505  0.1202
55590DOD     C210590  11.241   3.158   9.268  0.2289 -0.0755 -0.0069
55590DOD     C310591  11.092   3.556   9.532  0.0532  0.1561 -0.0549
55591DOD     C110592  26.977  25.225  27.274 -0.0242  0.1594 -0.1657
55591DOD     C210593  27.224  24.868  27.249  0.0115 -0.1755 -0.1169
55591DOD     C310594  27.501  24.472  27.207  0.0853  0.0492  0.0166
55592DOD     C110595  13.540   1.134  21.966  0.2729 -0.0996 -0.0228
55592DOD     C210596  13.627   1.556  22.141 -0.1658 -0.0963  0.0101
55592DOD     C310597  13.417   1.931  22.184 -0.2030  0.0108  0.1918
55593DOD     C110598   5.417  11.056  19.482  0.1769  0.0976  0.0754
55593DOD     C210599   5.425  11.413  19.857  0.2158 -0.2439  0.1463
55593DOD     C310600   5.512  11.364  20.350 -0.1439  0.1719 -0.0310
55594DOD     C110601  17.382  28.903  21.589  0.2398  0.1127  0.1519
55594DOD     C210602  17.813  28.823  21.368 -0.1979 -0.1951  0.0609
55594DOD     C310603  18.041  28.474  21.523 -0.1066 -0.1533 -0.1238
55595DOD     C110604  22.560  11.674  10.190  0.1983  0.1576  0.0632
55595DOD     C210605  22.245  11.434   9.882  0.1202 -0.3488  0.2824
55595DOD     C310606  21.800  11.240   9.757  0.1677  0.2769  0.2404
55596DOD     C110607  17.131   0.065   6.407 -0.0832  0.3406 -0.0025
55596DOD     C210608  16.813  -0.036   6.789  0.0192 -0.1305  0.0664
55596DOD     C310609  16.470   0.039   7.121  0.1320 -0.0572 -0.0118
55597DOD     C110610  19.209   0.462   5.102  0.0291 -0.1043 -0.0714
55597DOD     C210611  19.309   0.175   5.403 -0.0185  0.0876  0.3008
55597DOD     C310612  19.513   0.139   5.815  0.0235 -0.0848  0.2910
55598DOD     C110613  26.991  20.067  23.784 -0.2968  0.1515 -0.1175
55598DOD     C210614  26.839  20.433  23.497  0.1229  0.0721 -0.0822
55598DOD     C310615  26.841  20.848  23.286  0.2743  0.0241  0.2620
55599DOD     C110616  20.136  19.832   9.619 -0.0204 -0.2247  0.2827
55599DOD     C210617  20.426  19.534   9.507  0.0117  0.1311  0.1429
55599DOD     C310618  20.888  19.301   9.453  0.0980 -0.1230 -0.0172
55600DOD     C110619  12.678  21.006   8.255 -0.0891 -0.2005  0.0266
55600DOD     C210620  13.102  20.841   8.344 -0.1551  0.0485 -0.2801
55600DOD     C310621  13.366  20.436   8.403  0.0555 -0.1276  0.0716
55601DOD     C110622  16.611  10.020  12.592  0.2547  0.1277  0.0713
55601DOD     C210623  16.736  10.345  12.309 -0.2335  0.1676  0.1747
55601DOD     C310624  16.595  10.564  11.936  0.0170  0.0133  0.0288
55602DOD     C110625  25.294   3.428   8.240 -0.0996 -0.1646  0.2850
55602DOD     C210626  25.021   3.671   8.004  0.0201 -0.0301 -0.0988
55602DOD     C310627  24.767   3.672   7.636 -0.1507 -0.1160 -0.2216
55603DOD     C110628   4.064  18.177  10.316 -0.2905  0.0972  0.3470
55603DOD     C210629   3.726  18.153   9.961 -0.2502  0.1383  0.1726
55603DOD     C310630   3.472  18.540   9.752 -0.2109 -0.0631 -0.1047
55604DOD     C110631  24.604  27.812  12.720  0.1203  0.1608 -0.2688
55604DOD     C210632  24.863  27.555  12.986  0.1260 -0.0525 -0.0904
55604DOD     C310633  25.282  27.744  12.911  0.3124 -0.1126  0.0218
55605DOD     C110634   8.277  13.348  19.759 -0.2036  0.2880  0.2302
55605DOD     C210635   7.816  13.369  19.696 -0.1133 -0.2086  0.1377
55605DOD     C310636   7.398  13.197  19.584  0.1607 -0.2751  0.0370
55606DOD     C110637  24.982  23.952  21.595 -0.0025 -0.2951  0.1880
55606DOD     C210638  25.259  23.601  21.474  0.0581  0.2270 -0.0390
55606DOD     C310639  25.361  23.172  21.393 -0.0396  0.0822 -0.1258
55607DOD     C110640  27.942  11.968  14.243 -0.2774  0.1092  0.1879
55607DOD     C210641  27.991  11.737  13.785  0.0406 -0.2711  0.1790
55607DOD     C310642  28.080  11.274  13.579 -0.0245 -0.0385 -0.0925
55608DOD     C110643   5.199  29.861   2.518  0.0434 -0.2845 -0.1379
55608DOD     C210644   5.477  29.463   2.658 -0.3135  0.1160 -0.3193
55608DOD     C310645   5.594  29.105   2.932 -0.0878  0.2250  0.3772
55609DOD     C110646  24.375  25.184   7.305 -0.3742 -0.0317 -0.2706
55609DOD     C210647  24.271  25.320   7.721  0.1598 -0.1636  0.0930
55609DOD     C310648  24.014  25.298   8.114 -0.4562 -0.0999 -0.3101
55610DOD     C110649   4.046   4.921  26.150  0.0766  0.0528 -0.1794
55610DOD     C210650   4.483   4.924  26.368 -0.3363  0.4846  0.1317
55610DOD     C310651   4.811   5.065  26.690  0.4674 -0.0821  0.1475
55611DOD     C110652  25.748  18.824   6.719 -0.1254 -0.3391  0.0249
55611DOD     C210653  25.341  18.559   6.679 -0.2018 -0.0746 -0.3233
55611DOD     C310654  24.914  18.715   6.447  0.0261 -0.0844 -0.1100
55612DOD     C110655   3.127  14.892   3.488 -0.2178 -0.0624  0.0105
55612DOD     C210656   3.130  15.331   3.512  0.0321 -0.1078 -0.0852
55612DOD     C310657   3.133  15.730   3.584 -0.0393  0.1096  0.1227
55613DOD     C110658  16.735  10.615   2.849 -0.1885  0.0112 -0.0238
55613DOD     C210659  16.347  10.759   3.049 -0.0145 -0.0671 -0.1807
55613DOD     C310660  16.074  10.544   3.351  0.3100  0.1624  0.0701
55614DOD     C110661  20.469  17.123  19.274  0.0775  0.1593  0.0216
55614DOD     C210662  20.950  17.218  19.215  0.1027  0.0870  0.2496
55614DOD     C310663  21.351  17.285  19.031  0.0889 -0.0923 -0.0651
55615DOD     C110664  28.663   0.942   1.619 -0.1410  0.0357 -0.0824
55615DOD     C210665  28.861   0.872   2.063 -0.1063 -0.1060 -0.0541
55615DOD     C310666  28.719   0.713   2.471  0.0730  0.0075 -0.1607
55616DOD     C110667  11.347  15.341  22.924 -0.0937 -0.1320  0.0114
55616DOD     C210668  11.235  15.543  23.308  0.0621 -0.0481  0.2070
55616DOD     C310669  11.112  15.798  23.651 -0.1754  0.2232  0.2174
55617DOD     C110670   5.350   1.941   7.441 -0.0179 -0.3392  0.1845
55617DOD     C210671   5.597   2.222   7.137 -0.0821  0.0721  0.1709
55617DOD     C310672   5.718   2.543   6.868 -0.3763 -0.0469 -0.3460
55618DOD     C110673   2.731  29.717  16.788  0.1087 -0.1017  0.2836
55618DOD     C210674   2.564  29.867  17.173  0.2388 -0.1432 -0.0003
55618DOD     C310675   2.468  29.766  17.583  0.0195 -0.2110  0.0529
55619DOD     C110676  24.161   4.913  27.103  0.1691  0.1577 -0.0529
55619DOD     C210677  24.291   4.990  27.534 -0.1594 -0.0716  0.0636
55619DOD     C310678  24.347   5.192  27.938 -0.0534  0.0818  0.1741
55620DOD     C110679  24.320   9.399  15.606  0.0141 -0.1934  0.2982
55620DOD     C210680  24.717   9.127  15.541  0.3708  0.2862 -0.0367
55620DOD     C310681  25.162   8.997  15.463 -0.1844  0.4954 -0.1722
55621DOD     C110682  29.928   7.563  10.195  0.0816 -0.1564 -0.1116
55621DOD     C210683  30.245   7.792   9.954  0.0909  0.2543  0.0060
55621DOD     C310684   0.315   8.119  10.059  0.0204 -0.3046 -0.0341
55622DOD     C110685   9.385  26.280  20.963  0.1544 -0.0704 -0.1810
55622DOD     C210686   9.376  26.008  20.532 -0.3509 -0.1431  0.1389
55622DOD     C310687   9.165  25.966  20.147  0.3315 -0.2774 -0.0667
55623DOD     C110688  24.360  20.545  14.047  0.1864 -0.3289  0.2889
55623DOD     C210689  24.146  20.229  13.933  0.3492 -0.1941  0.2137
55623DOD     C310690  23.795  20.210  13.617 -0.1256  0.0291 -0.1418
55624DOD     C110691  28.577  29.606   9.411 -0.0284  0.0409 -0.1602
55624DOD     C210692  28.145  29.560   9.430 -0.0718  0.1419 -0.0937
55624DOD     C310693  27.723  29.491   9.439  0.0438 -0.2252  0.1870
55625DOD     C110694  17.174  10.987  28.945 -0.1597  0.2671 -0.2134
55625DOD     C210695  17.684  10.943  28.875  0.2708 -0.0488 -0.0375
55625DOD     C310696  17.986  10.592  28.866 -0.0901 -0.0117  0.2112
55626DOD     C110697  18.080  25.172  14.932 -0.0864  0.0244 -0.1205
55626DOD     C210698  18.254  25.210  15.332  0.1618  0.1957  0.2822
55626DOD     C310699  18.562  25.075  15.702 -0.3623  0.2528 -0.1140
55627DOD     C110700  19.245  21.558   0.179 -0.1223  0.2538 -0.0374
55627DOD     C210701  19.159  21.228   0.490  0.2940 -0.0990 -0.0494
55627DOD     C310702  18.919  20.816   0.432 -0.1533  0.0722 -0.2909
55628DOD     C110703   2.787   4.824   7.885  0.0754 -0.1372  0.0183
55628DOD     C210704   2.956   5.263   7.920 -0.2132  0.1327  0.0876
55628DOD     C310705   3.055   5.697   8.051 -0.1001  0.0287 -0.2084
55629DOD     C110706  16.833   2.657  20.789 -0.0924  0.0756 -0.2440
55629DOD     C210707  16.924   2.995  20.500  0.0628  0.1223  0.0798
55629DOD     C310708  17.258   3.271  20.422  0.1326  0.4208  0.0524
55630DOD     C110709  11.774  27.139   7.006 -0.2026 -0.1183  0.0343
55630DOD     C210710  11.461  27.538   7.054 -0.0643 -0.2347  0.2629
55630DOD     C310711  11.121  27.876   6.979  0.1089 -0.0116 -0.0504
55631DOD     C110712   7.814  17.655  16.626 -0.0685  0.0065  0.0259
55631DOD     C210713   7.998  18.010  16.459 -0.0386  0.2372  0.2300
55631DOD     C310714   8.238  18.385  16.325 -0.3305 -0.0251  0.2113
55632DOD     C110715  14.559  11.878  23.633  0.0947 -0.2601 -0.1455
55632DOD     C210716  14.405  11.425  23.589 -0.1444  0.1393 -0.2296
55632DOD     C310717  14.474  10.972  23.506 -0.3062  0.3432  0.0085
55633DOD     C110718  15.171   9.980  19.370 -0.0579  0.1049  0.0733
55633DOD     C210719  14.726  10.095  19.502 -0.0820 -0.0490 -0.1325
55633DOD     C310720  14.387  10.097  19.818 -0.0360  0.0578  0.0803
55634DOD     C110721  20.127   3.407   0.900 -0.1151 -0.0052 -0.0176
55634DOD     C210722  20.208   3.326   1.401 -0.0566  0.0200  0.0226
55634DOD     C310723  20.367   3.598   1.797 -0.0122 -0.0581 -0.0763
55635DOD     C110724  30.107   4.458  28.676  0.1118 -0.2027 -0.1065
55635DOD     C210725   0.073   4.820  28.561  0.0006  0.1695 -0.3428
55635DOD     C310726   0.472   4.832  28.442 -0.1562 -0.2188  0.0517
55636DOD     C110727  22.163  14.156   2.905 -0.1043  0.2554  0.0812
55636DOD     C210728  22.084  13.964   2.526 -0.2951  0.1737 -0.1018
55636DOD     C310729  22.041  14.051   2.059 -0.1506 -0.0853 -0.1162
55637DOD     C110730   1.753  24.262   0.442 -0.0315 -0.1402 -0.1793
55637DOD     C210731   2.122  24.568   0.518 -0.4191  0.3571 -0.1814
55637DOD     C310732   2.303  24.863   0.274  0.0461  0.0119  0.0775
55638DOD     C110733  17.152  16.980  26.911  0.3073  0.1519 -0.0701
55638DOD     C210734  16.760  16.657  27.033  0.0291 -0.0208 -0.1917
55638DOD     C310735  16.505  16.647  26.643 -0.1792 -0.2358  0.3353
55639DOD     C110736  13.456  12.883  26.790  0.4601  0.1520 -0.0245
55639DOD     C210737  13.132  12.762  26.531  0.0524 -0.1421  0.1792
55639DOD     C310738  12.857  12.631  26.169 -0.1099 -0.0358  0.0425
55640DOD     C110739   8.577  20.171   5.264  0.4412 -0.3981  0.1714
55640DOD     C210740   8.224  20.033   4.937  0.0443  0.0555 -0.0064
55640DOD     C310741   7.878  20.221   4.626 -0.1105  0.2585  0.0502
55641DOD     C110742   4.156  17.166   3.579  0.3691 -0.1271  0.1100
55641DOD     C210743   4.279  17.154   3.152 -0.0859 -0.0243 -0.1900
55641DOD     C310744   4.451  16.847   2.900 -0.0789 -0.0699 -0.1826
55642DOD     C110745  13.231  12.346  26.292 -0.1774 -0.2261 -0.0530
55642DOD     C210746  13.227  11.882  26.276 -0.1068 -0.1966 -0.3018
55642DOD     C310747  13.403  11.445  26.059  0.1427 -0.0444  0.0770
55643DOD     C110748   2.048  23.887  23.954  0.0995 -0.0410 -0.0705
55643DOD     C210749   2.476  23.708  24.051  0.1197 -0.2193  0.2491
55643DOD     C310750   2.894  23.912  24.246 -0.0373 -0.1236 -0.3435
55644DOD     C110751  12.671  17.871   5.601 -0.2591  0.2643 -0.0128
55644DOD     C210752  13.035  17.762   5.856  0.2640  0.1625 -0.0127
55644DOD     C310753  13.325  17.533   6.080 -0.0530  0.0189  0.0968
55645DOD     C110754  30.243   3.310  15.511  0.2233  0.0578 -0.2848
55645DOD     C210755  29.824   3.047  15.523 -0.0127  0.0112 -0.0648
55645DOD     C310756  29.448   2.995  15.750  0.0683 -0.0681  0.1355
55646DOD     C110757  16.162  27.921   2.543 -0.0379 -0.0869  0.1999
55646DOD     C210758  15.743  27.798   2.631 -0.1191 -0.2231  0.1135
55646DOD     C310759  15.325  27.592   2.412  0.1267 -0.0741  0.2141
55647DOD     C110760  29.402  26.922  27.646  0.1578 -0.1246 -0.1525
55647DOD     C210761  29.144  27.218  27.420  0.0605  0.1288  0.2309
55647DOD     C310762  28.761  27.449  27.546  0.1260  0.0186  0.4813
55648DOD     C110763  16.473  27.644  27.628 -0.1217  0.1040  0.1762
55648DOD     C210764  16.566  27.278  27.931 -0.0178  0.0117  0.2007
55648DOD     C310765  16.685  27.240  28.434 -0.3996  0.0758 -0.1559
55649DOD     C110766  18.469  12.172  19.327 -0.2258  0.0850 -0.2220
55649DOD     C210767  18.780  12.085  18.969  0.0831 -0.0170  0.1837
55649DOD     C310768  19.251  12.060  18.929  0.1095  0.2041  0.1706
55650DOD     C110769  13.001  22.640   5.141 -0.0722  0.1349 -0.1001
55650DOD     C210770  13.410  22.560   4.912 -0.2099  0.1156  0.0295
55650DOD     C310771  13.858  22.796   5.010 -0.2875  0.1718 -0.2634
55651DOD     C110772  28.109   7.535   8.230 -0.1415  0.0756  0.0244
55651DOD     C210773  27.988   7.119   8.435 -0.3024 -0.0217 -0.2444
55651DOD     C310774  27.688   7.142   8.843  0.2683  0.2555 -0.0144
55652DOD     C110775  16.635  21.895   5.874 -0.3479 -0.0982  0.1157
55652DOD     C210776  16.348  21.559   6.042 -0.3082  0.1922  0.1434
55652DOD     C310777  15.991  21.307   5.964  0.3047  0.5256 -0.0038
55653DOD     C110778  26.646  28.947  17.846 -0.2208 -0.2092 -0.2790
55653DOD     C210779  26.353  28.945  18.207 -0.0890  0.0984  0.0307
55653DOD     C310780  26.126  28.609  18.412  0.0453  0.1585  0.1091
55654DOD     C110781  29.136  12.662  22.342 -0.0766  0.1584 -0.2314
55654DOD     C210782  29.311  12.786  21.947 -0.1130 -0.2474  0.0166
55654DOD     C310783  29.383  13.245  21.697  0.2020  0.0346  0.0646
55655DOD     C110784   5.224  21.596   5.715 -0.1509 -0.0785  0.3021
55655DOD     C210785   5.421  21.276   5.942 -0.1003 -0.2150 -0.0049
55655DOD     C310786   5.862  21.200   6.042 -0.0899  0.1207 -0.0963
55656DOD     C110787  26.867  15.084  16.472  0.0341 -0.0412 -0.2829
55656DOD     C210788  27.099  15.164  16.074 -0.0352 -0.2887 -0.0595
55656DOD     C310789  27.492  15.147  15.890 -0.1158  0.2102  0.0765
55657DOD     C110790  16.074  25.787   0.550 -0.0024 -0.1167  0.0526
55657DOD     C210791  16.344  25.332   0.611 -0.0024  0.2178 -0.1792
55657DOD     C310792  16.698  25.133   0.383 -0.0480  0.0898 -0.0522
55658DOD     C110793   5.497   4.860  15.908 -0.4381 -0.1832  0.1060
55658DOD     C210794   5.540   4.378  15.866  0.1162 -0.1345  0.1159
55658DOD     C310795   5.722   3.993  15.999 -0.0067 -0.0001 -0.0245
55659DOD     C110796  16.901  11.591  18.473  0.1051  0.1877 -0.1664
55659DOD     C210797  17.078  11.916  18.243 -0.1361  0.1869  0.0911
55659DOD     C310798  17.304  12.091  17.873 -0.1730  0.1585  0.2424
55660DOD     C110799  20.898  26.123  24.499 -0.2111 -0.2779 -0.2416
55660DOD     C210800  21.350  26.168  24.433 -0.2648  0.0471  0.0068
55660DOD     C310801  21.770  26.278  24.512 -0.1018  0.0519  0.3736
55661DOD     C110802  12.815  15.933  17.085 -0.0634  0.0688  0.2059
55661DOD     C210803  12.448  15.603  16.991  0.0969  0.0774 -0.0519
55661DOD     C310804  12.013  15.610  16.815 -0.0134 -0.1347 -0.0738
55662DOD     C110805  14.197  22.783   8.594  0.1724 -0.0564  0.0573
55662DOD     C210806  14.522  23.151   8.479 -0.0734  0.1577  0.0718
55662DOD     C310807  14.578  23.436   8.071 -0.0949  0.0136  0.2059
55663DOD     C110808   5.367  27.563  17.087  0.1007 -0.2217 -0.2429
55663DOD     C210809   5.229  27.811  17.451 -0.3165 -0.2089 -0.0119
55663DOD     C310810   5.068  28.162  17.687  0.2171 -0.3720 -0.1868
55664DOD     C110811  24.230  13.478   1.929 -0.2218  0.0214 -0.5738
55664DOD     C210812  23.979  13.238   1.580  0.1193  0.3253  0.4593
55664DOD     C310813  23.792  12.874   1.345 -0.2084  0.1206  0.1027
55665DOD     C110814   2.375  15.755  10.817 -0.3085  0.0113  0.0838
55665DOD     C210815   2.290  15.381  10.515  0.0235 -0.1339 -0.1139
55665DOD     C310816   2.557  15.000  10.332 -0.0001  0.0765  0.2558
55666DOD     C110817  19.750  11.334  18.015 -0.1444  0.0177 -0.0218
55666DOD     C210818  19.291  11.289  18.079 -0.3640 -0.1260 -0.5455
55666DOD     C310819  18.879  11.455  18.201  0.1864 -0.1787 -0.0696
55667DOD     C110820  20.021   4.272  10.050 -0.2500  0.0657  0.0319
55667DOD     C210821  19.817   4.068  10.385 -0.0748 -0.2345  0.5428
55667DOD     C310822  19.625   3.623  10.519  0.0102  0.4230 -0.0709
55668DOD     C110823  21.189  18.112  14.265  0.1438 -0.1274  0.0572
55668DOD     C210824  20.892  18.526  14.418  0.2941 -0.2884 -0.2468
55668DOD     C310825  20.959  18.939  14.483 -0.1769 -0.3747  0.1862
55669DOD     C110826  25.787  24.553  13.329 -0.1517  0.0316 -0.2108
55669DOD     C210827  26.100  24.778  13.113 -0.0918 -0.0893  0.1997
55669DOD     C310828  26.587  24.640  13.163 -0.3970  0.1265 -0.0259
55670DOD     C110829  18.082  12.017  26.589 -0.1091 -0.4296 -0.1283
55670DOD     C210830  18.537  12.004  26.441 -0.1491  0.0322 -0.1018
55670DOD     C310831  18.943  11.901  26.268  0.2122  0.1703 -0.2851
55671DOD     C110832  18.405   1.340   4.146 -0.1246 -0.0474  0.2601
55671DOD     C210833  18.840   1.307   4.141  0.2574  0.2285  0.1790
55671DOD     C310834  19.296   1.396   4.199 -0.0107 -0.0000 -0.0608
55672DOD     C110835  20.019  26.990  24.041  0.1314 -0.1902 -0.2371
55672DOD     C210836  19.687  27.285  23.868  0.2389  0.1082  0.3660
55672DOD     C310837  19.643  27.721  23.698  0.2476  0.1816 -0.3854
55673DOD     C110838   4.845   0.283   9.526 -0.2227 -0.0524 -0.1451
55673DOD     C210839   4.656   0.379   9.149 -0.2844 -0.0489 -0.2108
55673DOD     C310840   4.242   0.526   9.001 -0.1427  0.1176 -0.1217
55674DOD     C110841   8.865   7.750  26.281 -0.1518  0.1865 -0.1554
55674DOD     C210842   8.503   7.603  26.090  0.0232  0.0937 -0.2867
55674DOD     C310843   8.143   7.729  26.292  0.2244 -0.0910  0.0873
55675DOD     C110844  18.625   9.780  29.886  0.0456  0.3926  0.1481
55675DOD     C210845  18.853   9.334  29.876 -0.1540  0.2284  0.1519
55675DOD     C310846  19.075   8.918  29.936  0.1409  0.0012 -0.3334
55676DOD     C110847  15.291  21.535  22.699 -0.2055 -0.1714 -0.2661
55676DOD     C210848  15.154  21.999  22.707  0.1796  0.0766 -0.0259
55676DOD     C310849  15.285  22.368  22.508  0.1610 -0.0347  0.0249
55677DOD     C110850  13.911  25.885  21.424 -0.1221  0.1537  0.2860
55677DOD     C210851  14.001  26.368  21.325  0.0468  0.1171 -0.0542
55677DOD     C310852  13.684  26.730  21.586 -0.1350  0.1205  0.1976
55678DOD     C110853  24.429  13.582  22.348  0.2737  0.2308 -0.2113
55678DOD     C210854  24.778  13.442  22.696  0.1054  0.2250 -0.0435
55678DOD     C310855  25.016  13.074  22.642  0.3151 -0.1216 -0.0275
55679DOD     C110856  28.085  10.412  16.018 -0.2225 -0.0861 -0.0027
55679DOD     C210857  27.793  10.769  16.230 -0.1897 -0.0208 -0.1908
55679DOD     C310858  27.377  10.926  16.289 -0.2890 -0.0049 -0.0178
55680DOD     C110859  26.949  23.083  19.627  0.3279 -0.1127  0.2829
55680DOD     C210860  27.053  23.073  20.062 -0.0325  0.0429  0.2060
55680DOD     C310861  27.118  22.769  20.434  0.0951  0.2684 -0.0636
55681DOD     C110862   2.427  29.567   4.870 -0.3671  0.0308  0.0227
55681DOD     C210863   1.974  29.623   5.092 -0.0832 -0.1999  0.2470
55681DOD     C310864   1.561  29.478   5.298 -0.1883  0.5670 -0.2129
55682DOD     C110865   7.398   9.494  15.451  0.2163 -0.0108 -0.0908
55682DOD     C210866   7.126   9.317  15.783  0.1505 -0.3147 -0.1660
55682DOD     C310867   6.914   9.619  16.147  0.5558  0.3367 -0.1005
55683DOD     C110868  27.728   6.161   5.137  0.1190  0.1012  0.0579
55683DOD     C210869  28.126   6.069   5.226 -0.3089  0.0337  0.2833
55683DOD     C310870  28.594   6.088   5.347  0.0658 -0.0458  0.1458
55684DOD     C110871  19.038   4.733   1.085 -0.0807 -0.0171 -0.1329
55684DOD     C210872  19.412   4.937   1.245  0.1495 -0.0322 -0.2481
55684DOD     C310873  19.333   5.390   1.424 -0.1299  0.1009  0.0299
55685DOD     C110874   3.932   2.155  14.113 -0.2874 -0.0843  0.1871
55685DOD     C210875   3.995   2.513  14.403  0.0937 -0.0481  0.0121
55685DOD     C310876   4.212   2.904  14.541 -0.0039  0.1686 -0.2083
55686DOD     C110877   9.825   2.981  30.124  0.5263 -0.0549 -0.2342
55686DOD     C210878   9.969   2.615   0.134  0.0621 -0.1371 -0.1323
55686DOD     C310879  10.155   2.204   0.192 -0.0208 -0.3315 -0.3806
55687DOD     C110880   8.283   1.165   8.438  0.0571  0.0205 -0.1868
55687DOD     C210881   8.592   1.083   8.131  0.0114 -0.0020  0.3467
55687DOD     C310882   8.929   1.185   7.774 -0.0750  0.1127  0.0644
55688DOD     C110883  23.475  24.629  21.820  0.0433 -0.1969 -0.1911
55688DOD     C210884  23.890  24.443  21.850  0.1930 -0.1295 -0.2767
55688DOD     C310885  24.306  24.261  22.010  0.2315  0.1411 -0.0369
55689DOD     C110886  19.014  18.572  17.322 -0.0931  0.2859  0.1408
55689DOD     C210887  19.169  18.872  17.544 -0.1725  0.3016  0.0196
55689DOD     C310888  19.550  18.816  17.815  0.1547  0.0788 -0.3101
55690DOD     C110889   8.712  27.234   2.679  0.0458 -0.1618 -0.1216
55690DOD     C210890   8.660  27.708   2.460  0.2398  0.3069 -0.4515
55690DOD     C310891   8.559  28.097   2.292  0.0988  0.0417 -0.0114
55691DOD     C110892   2.696  26.394  13.091  0.2344  0.1365  0.0140
55691DOD     C210893   2.757  26.425  12.639 -0.2480 -0.3767  0.2498
55691DOD     C310894   2.571  26.182  12.277 -0.1248  0.1617  0.1907
55692DOD     C110895   4.873   2.561   6.122 -0.1686  0.0115 -0.3470
55692DOD     C210896   5.180   2.631   5.743  0.2312  0.1313 -0.1332
55692DOD     C310897   5.434   2.693   5.350 -0.0335  0.1829  0.0971
55693DOD     C110898  18.091   6.773  18.246  0.0346  0.1816  0.5644
55693DOD     C210899  17.766   6.978  18.493 -0.1213 -0.0977  0.1289
55693DOD     C310900  17.404   7.173  18.464 -0.1718  0.1117 -0.0840
55694DOD     C110901  18.006   9.629  24.535 -0.3911 -0.3289  0.0036
55694DOD     C210902  18.014   9.945  24.878  0.0796 -0.1957 -0.0885
55694DOD     C310903  17.961  10.293  25.217 -0.1798  0.0148 -0.1600
55695DOD     C110904  12.797  23.182   6.522 -0.1207 -0.0869  0.1160
55695DOD     C210905  12.904  22.871   6.795 -0.0372  0.1864  0.2514
55695DOD     C310906  12.928  22.463   7.058 -0.0467  0.0791 -0.2497
55696DOD     C110907  20.800  13.216  26.043 -0.1595 -0.0657 -0.0155
55696DOD     C210908  21.107  13.363  26.379  0.3229  0.1750 -0.0623
55696DOD     C310909  21.282  13.361  26.852 -0.0093  0.0562 -0.2010
55697DOD     C110910   2.329  24.394   9.088 -0.1259 -0.2882  0.0934
55697DOD     C210911   2.375  24.823   9.305 -0.0030 -0.1276 -0.1002
55697DOD     C310912   2.430  25.174   9.658 -0.0108  0.0003  0.1301
55698DOD     C110913  26.838  27.667  12.830  0.2571  0.2635 -0.2108
55698DOD     C210914  26.777  28.035  13.106 -0.0105  0.0491 -0.0834
55698DOD     C310915  26.466  28.335  13.125  0.4322  0.0990 -0.1003
55699DOD     C110916  11.462   4.544  15.031 -0.0134  0.2996  0.0293
55699DOD     C210917  11.584   4.883  14.720  0.2508  0.0240  0.1438
55699DOD     C310918  11.602   5.082  14.297  0.0836  0.0516  0.2289
55700DOD     C110919  25.350   8.289  19.400  0.4213 -0.3024  0.2259
55700DOD     C210920  25.514   8.232  19.850  0.2819 -0.0348 -0.3034
55700DOD     C310921  25.914   8.259  20.026 -0.0622  0.2643 -0.0894
55701DOD     C110922   1.412  30.244  27.629 -0.0056  0.1637 -0.2525
55701DOD     C210923   1.462   0.384  27.621  0.0822 -0.0696 -0.0026
55701DOD     C310924   1.265   0.808  27.667 -0.0056 -0.0552  0.0679
55702DOD     C110925  17.981  10.646   0.198  0.1195 -0.0445  0.1357
55702DOD     C210926  18.367  10.723   0.441 -0.6241  0.0473  0.1325
55702DOD     C310927  18.453  11.133   0.702  0.1703  0.3171  0.2592
55703DOD     C110928  12.826  14.354  26.068  0.3706  0.0056  0.0230
55703DOD     C210929  13.265  14.218  26.143 -0.2786  0.2177  0.0531
55703DOD     C310930  13.750  14.163  26.093  0.0417  0.0330 -0.1730
55704DOD     C110931  16.198   6.597  17.312 -0.1001  0.0364  0.0995
55704DOD     C210932  16.236   6.889  16.995 -0.0350 -0.1124  0.1322
55704DOD     C310933  16.158   7.262  16.668  0.2585  0.3840 -0.2026
55705DOD     C110934  27.899  17.548  20.951  0.0954 -0.0717  0.1694
55705DOD     C210935  28.068  17.469  21.402  0.2283  0.2041 -0.0309
55705DOD     C310936  27.859  17.417  21.760 -0.2411 -0.1448  0.0371
55706DOD     C110937  29.453   7.644  14.872 -0.0336  0.2245  0.0384
55706DOD     C210938  29.488   7.579  14.368 -0.2237 -0.2599  0.3390
55706DOD     C310939  29.795   7.412  14.073 -0.0993  0.1174 -0.1811
55707DOD     C110940   5.071  20.505  17.028  0.1492  0.0001 -0.3286
55707DOD     C210941   5.407  20.772  16.809 -0.1011  0.2003  0.0244
55707DOD     C310942   5.343  20.977  16.444  0.2606  0.1312 -0.2566
55708DOD     C110943  18.120  10.682  14.405  0.0897  0.0702  0.2259
55708DOD     C210944  17.885  10.880  14.704  0.1811 -0.2211  0.2922
55708DOD     C310945  17.777  10.914  15.151 -0.2266  0.2211 -0.0509
55709DOD     C110946  16.456  28.803   4.429 -0.0648  0.0333  0.1046
55709DOD     C210947  16.452  28.356   4.407  0.0844  0.0598 -0.2758
55709DOD     C310948  16.530  28.034   4.725  0.0213  0.0385 -0.1343
55710DOD     C110949   7.731  19.261  29.240 -0.2101 -0.0207 -0.1637
55710DOD     C210950   7.773  19.587  28.870  0.3121 -0.2567  0.1817
55710DOD     C310951   7.967  19.910  28.615 -0.0827 -0.0667 -0.2727
55711DOD     C110952  10.754   4.013  26.280  0.2053 -0.1107  0.3838
55711DOD     C210953  10.313   3.861  26.275  0.5204 -0.2763 -0.0460
55711DOD     C310954   9.859   3.908  26.082  0.0731  0.0152 -0.2765
55712DOD     C110955   8.560  16.945  17.618  0.0357 -0.0366  0.1476
55712DOD     C210956   8.609  17.192  17.218 -0.0925  0.3587 -0.0590
55712DOD     C310957   8.415  17.302  16.840  0.1558  0.0483 -0.0044
55713DOD     C110958   9.032  11.952  23.645 -0.2124  0.1573  0.0328
55713DOD     C210959   9.081  11.433  23.680  0.4808  0.2395  0.0852
55713DOD     C310960   8.948  11.026  23.457 -0.2097  0.0076  0.1042
55714DOD     C110961  20.703   1.673  16.081  0.2460  0.0359  0.0030
55714DOD     C210962  20.251   1.489  15.970 -0.6202 -0.0448 -0.4550
55714DOD     C310963  19.904   1.167  15.965  0.0600  0.0570 -0.2453
55715DOD     C110964   6.541  25.193  14.252 -0.0222 -0.3200  0.0253
55715DOD     C210965   6.863  25.204  14.627 -0.1085  0.1201  0.0163
55715DOD     C310966   7.108  25.599  14.595  0.0654 -0.0985  0.3605
55716DOD     C110967   5.330  29.108   4.838  0.1821  0.3756  0.1283
55716DOD     C210968   5.141  29.490   4.609  0.0054 -0.5252  0.1749
55716DOD     C310969   4.972  29.927   4.703  0.0631 -0.1007 -0.1121
55717DOD     C110970  22.400   9.939  18.424 -0.0789 -0.3609  0.0471
55717DOD     C210971  22.249   9.869  17.965 -0.2793 -0.0979  0.0016
55717DOD     C310972  21.946  10.130  17.696  0.0809  0.1405 -0.0927
55718DOD     C110973  23.373  15.978   1.262  0.2580 -0.1780 -0.0730
55718DOD     C210974  23.001  16.074   1.041  0.0632  0.1514  0.0010
55718DOD     C310975  22.583  16.218   0.865  0.0609  0.2730 -0.1083
55719DOD     C110976  15.529  24.875  27.339 -0.0518  0.0312  0.0898
55719DOD     C210977  15.959  24.973  27.298 -0.0494  0.0594  0.0653
55719DOD     C310978  16.367  25.115  27.355  0.0698  0.1183 -0.0543
55720DOD     C110979  25.942  25.642  28.933  0.2285 -0.0709 -0.0893
55720DOD     C210980  26.064  25.940  29.279 -0.1033  0.1221  0.0463
55720DOD     C310981  26.035  26.033  29.753  0.1535 -0.0406  0.1768
55721DOD     C110982  13.277  14.523   9.142 -0.0370 -0.1443 -0.0268
55721DOD     C210983  13.124  14.055   9.196 -0.4260 -0.0077 -0.0534
55721DOD     C310984  12.744  13.780   9.130 -0.0954  0.1322  0.1096
55722DOD     C110985  16.824  26.312   2.821  0.1561  0.1107 -0.0199
55722DOD     C210986  17.269  26.108   2.861  0.0790 -0.0462 -0.3457
55722DOD     C310987  17.723  26.174   2.966  0.0007  0.0259 -0.0801
55723DOD     C110988   3.707  10.388   2.859  0.3744 -0.0751 -0.1043
55723DOD     C210989   3.324  10.066   2.829 -0.1439 -0.1318 -0.2143
55723DOD     C310990   3.079   9.792   2.596  0.2692  0.0281 -0.0758
55724DOD     C110991  28.130   8.046  26.586  0.1725 -0.1122 -0.2256
55724DOD     C210992  28.353   7.842  26.175  0.3516 -0.2606  0.1013
55724DOD     C310993  28.451   7.566  25.778 -0.1477 -0.2255 -0.3512
55725DOD     C110994   9.231  22.725   3.601 -0.3063  0.0048 -0.0623
55725DOD     C210995   9.556  23.097   3.449  0.0650 -0.0103  0.0951
55725DOD     C310996   9.746  23.485   3.562 -0.0195 -0.2365 -0.2333
55726DOD     C110997  14.716   0.196  12.781  0.0084 -0.1312  0.1401
55726DOD     C210998  14.518   0.651  12.832 -0.1018 -0.0996 -0.2053
55726DOD     C310999  14.240   0.793  13.187 -0.4126  0.0593  0.2473
55727DOD     C111000  28.469   1.722  20.009 -0.1034  0.3099 -0.1690
55727DOD     C211001  28.260   2.130  19.764  0.1325 -0.0281 -0.2133
55727DOD     C311002  27.920   2.386  19.567  0.0898 -0.2678 -0.0088
55728DOD     C111003  24.152  25.659   3.439  0.2340 -0.0895  0.1972
55728DOD     C211004  24.407  25.620   3.816  0.4059  0.1492 -0.0624
55728DOD     C311005  24.898  25.653   3.996 -0.2422 -0.0914  0.0352
55729DOD     C111006  12.565   6.366   9.183  0.0082 -0.1470  0.0109
55729DOD     C211007  12.263   6.105   9.023 -0.3272 -0.0126 -0.1162
55729DOD     C311008  11.882   5.801   8.972 -0.2516 -0.0750 -0.0600
55730DOD     C111009  13.923  15.736  28.763  0.2081 -0.2960  0.0597
55730DOD     C211010  13.679  15.736  28.405  0.1785 -0.1875  0.1303
55730DOD     C311011  13.545  15.461  28.075  0.1537 -0.1393  0.0169
55731DOD     C111012  16.731  15.192   8.217  0.0934  0.0193 -0.3517
55731DOD     C211013  16.383  14.869   8.326 -0.1434  0.0851  0.0801
55731DOD     C311014  16.049  14.619   8.605 -0.1686  0.0428 -0.0214
55732DOD     C111015  17.537   1.422   2.969  0.2030 -0.0941  0.1268
55732DOD     C211016  17.231   1.720   3.155 -0.0855  0.0100 -0.0843
55732DOD     C311017  17.069   2.193   3.202 -0.2291  0.2053 -0.1717
55733DOD     C111018   8.358  28.863   1.177  0.0877 -0.1232 -0.1124
55733DOD     C211019   8.525  29.159   1.498 -0.0631  0.0027 -0.1363
55733DOD     C311020   8.326  29.511   1.795 -0.0292  0.2396 -0.0459
55734DOD     C111021  15.086  10.999   0.674  0.2079  0.0187  0.1853
55734DOD     C211022  14.838  10.984   1.023  0.1794  0.3281 -0.4628
55734DOD     C311023  14.624  10.834   1.414 -0.3056  0.1523  0.1892
55735DOD     C111024  24.860   7.984  15.365  0.0850 -0.1129 -0.3335
55735DOD     C211025  25.041   8.298  15.669  0.1312  0.2948  0.0350
55735DOD     C311026  25.210   8.373  16.139 -0.2167  0.1237 -0.2014
55736DOD     C111027   4.142  18.979   7.418  0.3506 -0.1010 -0.3830
55736DOD     C211028   4.364  18.582   7.323 -0.1335 -0.1345  0.4523
55736DOD     C311029   4.725  18.350   7.422 -0.1347  0.0479  0.0864
55737DOD     C111030  14.442  13.756   1.164 -0.0555  0.2558  0.0383
55737DOD     C211031  14.150  14.061   1.363  0.2680 -0.1288 -0.1124
55737DOD     C311032  13.795  14.249   1.613  0.0430  0.1846 -0.4425
55738DOD     C111033   7.513  14.661  25.887  0.0514 -0.1828  0.0833
55738DOD     C211034   7.927  14.762  26.116 -0.2853 -0.2463  0.2793
55738DOD     C311035   8.409  14.883  26.029 -0.0142  0.0002  0.2177
55739DOD     C111036  12.454  28.975  24.818  0.0914  0.0016 -0.2392
55739DOD     C211037  12.066  29.246  24.879 -0.2514 -0.2788 -0.1177
55739DOD     C311038  11.977  29.693  25.036 -0.1011  0.0216  0.1025
55740DOD     C111039  13.293  26.476  30.029  0.2046 -0.2214 -0.4657
55740DOD     C211040  13.135  26.360   0.148 -0.2936 -0.1960 -0.3048
55740DOD     C311041  12.708  26.456   0.413  0.0395  0.2201  0.0468
55741DOD     C111042  24.048  15.244  11.690 -0.0181  0.0302  0.1010
55741DOD     C211043  24.257  15.502  11.320 -0.0457  0.1875  0.1776
55741DOD     C311044  24.592  15.810  11.349 -0.2682  0.0714 -0.0835
55742DOD     C111045   0.093  29.685  26.248 -0.0198  0.0988 -0.1592
55742DOD     C211046   0.536  29.733  26.426 -0.1378 -0.1273 -0.3809
55742DOD     C311047   0.935  29.899  26.337 -0.0333  0.0712 -0.1020
55743DOD     C111048   7.134  21.364   9.008  0.1111 -0.0465 -0.1650
55743DOD     C211049   7.159  21.863   9.059  0.1487 -0.1620 -0.5709
55743DOD     C311050   7.510  22.139   8.853 -0.1518 -0.0296 -0.2522
55744DOD     C111051  11.839   5.751   8.314  0.0101  0.4103 -0.1495
55744DOD     C211052  11.755   5.305   8.110 -0.1071  0.1010 -0.0130
55744DOD     C311053  11.737   4.855   8.274  0.1908 -0.1213  0.1742
55745DOD     C111054  26.888   8.777  29.164 -0.0659  0.3406 -0.2079
55745DOD     C211055  26.442   8.630  29.149  0.0459 -0.3262  0.0409
55745DOD     C311056  25.960   8.709  29.047 -0.4807  0.2746  0.1151
55746DOD     C111057   5.217   7.735  24.091 -0.1328 -0.2545 -0.0711
55746DOD     C211058   5.189   8.020  24.431 -0.0336 -0.0744  0.0451
55746DOD     C311059   5.162   8.138  24.940 -0.0825  0.0013 -0.0305
55747DOD     C111060  21.449  18.095  21.883 -0.0870  0.1259 -0.0353
55747DOD     C211061  21.496  18.343  21.489 -0.2910  0.2525  0.1999
55747DOD     C311062  21.764  18.402  21.097  0.1314 -0.0814  0.0280
55748DOD     C111063  13.397  12.384  24.551 -0.3326 -0.1476  0.0801
55748DOD     C211064  13.146  12.409  24.192 -0.3040  0.1012  0.0256
55748DOD     C311065  12.946  12.424  23.811 -0.1422  0.1339 -0.1616
55749DOD     C111066  28.823   1.181  15.468 -0.0040  0.0655 -0.1315
55749DOD     C211067  29.073   1.590  15.533  0.0451 -0.2240  0.0924
55749DOD     C311068  28.906   2.010  15.643 -0.2417 -0.0225 -0.4134
55750DOD     C111069   9.963   5.769   6.569  0.3727 -0.2234 -0.1779
55750DOD     C211070   9.665   5.461   6.419 -0.0271  0.0316 -0.0504
55750DOD     C311071   9.342   5.153   6.577  0.1363  0.1407 -0.0650
55751DOD     C111072   7.844  22.694   0.557  0.0014  0.0836 -0.2294
55751DOD     C211073   7.953  22.383   0.940  0.0147  0.0967 -0.2683
55751DOD     C311074   7.899  22.274   1.385 -0.1093 -0.0400  0.5997
55752DOD     C111075   3.808   8.999  13.756 -0.1278  0.2524 -0.0171
55752DOD     C211076   3.467   8.803  13.612  0.0981  0.0679 -0.0033
55752DOD     C311077   3.046   8.857  13.751 -0.2417  0.0261  0.0168
55753DOD     C111078  18.858  25.301   4.056  0.1330  0.2905  0.1158
55753DOD     C211079  19.170  25.481   3.738 -0.0569  0.2186 -0.2820
55753DOD     C311080  19.549  25.754   3.783  0.3343  0.0736 -0.2131
55754DOD     C111081  19.566   3.356  24.801  0.4164  0.0218 -0.0523
55754DOD     C211082  19.702   3.295  24.335 -0.1797 -0.0436  0.3804
55754DOD     C311083  20.073   3.291  24.063 -0.2916 -0.3428  0.0611
55755DOD     C111084  28.094   8.046  14.653  0.0228 -0.2325  0.1249
55755DOD     C211085  28.207   8.451  14.673 -0.0977  0.4334  0.0830
55755DOD     C311086  28.470   8.783  14.861 -0.0914  0.0749  0.1467
55756DOD     C111087  17.793  28.155   5.302 -0.0701  0.0522 -0.0447
55756DOD     C211088  17.588  27.785   5.094 -0.0726 -0.2098  0.2098
55756DOD     C311089  17.319  27.685   4.693 -0.4248 -0.4328  0.2277
55757DOD     C111090  13.142   8.230  17.266 -0.0253  0.2671  0.1064
55757DOD     C211091  13.380   8.619  17.206  0.0148 -0.0052  0.3374
55757DOD     C311092  13.649   9.027  17.317 -0.0416  0.2031  0.1802
55758DOD     C111093  18.164  26.420  25.871  0.0124  0.1334  0.1146
55758DOD     C211094  18.336  26.103  25.571  0.0671 -0.1610 -0.2360
55758DOD     C311095  18.284  26.003  25.138 -0.1859  0.0502 -0.0195
55759DOD     C111096   7.441  24.548  25.517 -0.2734 -0.1158  0.0218
55759DOD     C211097   7.259  24.365  25.099  0.0300 -0.0168  0.0101
55759DOD     C311098   7.018  24.175  24.744 -0.2528  0.2376 -0.0334
55760DOD     C111099  28.264   5.373  26.359 -0.0660  0.3355 -0.3259
55760DOD     C211100  27.930   5.100  26.072  0.0272 -0.0601  0.2266
55760DOD     C311101  27.671   4.923  25.762  0.1180  0.1101  0.0185
55761DOD     C111102  13.430  29.649  28.434 -0.1082 -0.0510  0.0319
55761DOD     C211103  13.870  29.630  28.458 -0.4042 -0.1883  0.0833
55761DOD     C311104  14.205  29.316  28.341 -0.1195  0.1960 -0.0247
55762DOD     C111105  25.629  15.363  18.314  0.1565  0.1581 -0.1012
55762DOD     C211106  25.581  15.265  17.873 -0.1051 -0.1744 -0.0397
55762DOD     C311107  25.390  15.212  17.487  0.1506 -0.2348 -0.2266
55763DOD     C111108   3.890  12.929   9.695 -0.2748  0.0382 -0.0367
55763DOD     C211109   4.021  12.607  10.042 -0.3468 -0.1038  0.2230
55763DOD     C311110   4.026  12.297  10.417  0.1414 -0.1700  0.0401
55764DOD     C111111   0.920  26.718  16.565  0.1548 -0.1148  0.2580
55764DOD     C211112   0.761  27.126  16.479  0.1525 -0.0567  0.2230
55764DOD     C311113   0.630  27.562  16.462 -0.0721  0.1707 -0.1760
55765DOD     C111114  30.213  24.680  23.044  0.1358 -0.1567  0.1498
55765DOD     C211115   0.051  24.892  22.589 -0.1455 -0.1716 -0.0219
55765DOD     C311116   0.051  25.387  22.663 -0.4211 -0.1841  0.1796
55766DOD     C111117  17.258   7.468  23.130  0.2478  0.3475  0.0491
55766DOD     C211118  16.848   7.412  23.405 -0.0465  0.0259 -0.0061
55766DOD     C311119  16.664   7.542  23.816  0.2622  0.0619  0.1189
55767DOD     C111120  24.739  -0.052  14.178 -0.1467 -0.1734 -0.3402
55767DOD     C211121  25.084  30.232  13.875  0.1335 -0.1277 -0.1220
55767DOD     C311122  25.390   0.083  13.585 -0.2149 -0.1039  0.2399
55768DOD     C111123   0.171  23.302  17.405  0.0267  0.0546 -0.1578
55768DOD     C211124   0.302  23.043  17.734  0.0481 -0.1382  0.0421
55768DOD     C311125   0.182  22.623  18.025 -0.0458 -0.2694  0.0146
55769DOD     C111126  18.928  12.969   9.392 -0.2859  0.1285  0.2465
55769DOD     C211127  19.325  13.047   9.133 -0.0453 -0.0714 -0.0396
55769DOD     C311128  19.762  13.102   8.911  0.0446  0.1755  0.2123
55770DOD     C111129   6.115   1.639  13.019  0.1360  0.1477 -0.0896
55770DOD     C211130   6.030   1.236  12.906  0.0900  0.2055  0.1873
55770DOD     C311131   6.289   0.872  12.771 -0.0152 -0.0049 -0.3019
55771DOD     C111132  13.180  11.916  15.974  0.1781 -0.0876  0.1886
55771DOD     C211133  13.053  11.753  16.385 -0.1929  0.3271  0.0649
55771DOD     C311134  12.878  11.617  16.811 -0.2410 -0.1869  0.0394
55772DOD     C111135  12.387  18.562  22.958  0.1719  0.3090  0.0155
55772DOD     C211136  12.146  18.789  23.330 -0.0213  0.0008 -0.2014
55772DOD     C311137  11.781  19.111  23.308  0.2137 -0.1108  0.0365
55773DOD     C111138  12.322   4.502  14.015  0.3097  0.2003 -0.0127
55773DOD     C211139  12.669   4.180  14.032  0.2116 -0.2309 -0.0120
55773DOD     C311140  13.082   4.136  13.912 -0.1322  0.1109 -0.1446
55774DOD     C111141  25.026  18.865   0.220 -0.0724 -0.2476 -0.3900
55774DOD     C211142  24.758  19.233   0.320  0.1462  0.0284 -0.1119
55774DOD     C311143  24.323  19.354   0.262 -0.2096  0.3656  0.3948
55775DOD     C111144   2.651  10.485   1.467 -0.3803 -0.1205  0.0146
55775DOD     C211145   2.850  10.414   1.007  0.3204  0.1949 -0.1956
55775DOD     C311146   3.090  10.272   0.632 -0.0468 -0.0448  0.1955
55776DOD     C111147  22.475   4.588  14.403 -0.0179 -0.2354  0.1866
55776DOD     C211148  22.455   4.602  14.835  0.1488 -0.0698  0.0798
55776DOD     C311149  22.367   4.998  15.093 -0.0409 -0.1881  0.3698
55777DOD     C111150   7.160  14.046  16.361 -0.0071  0.3040  0.0819
55777DOD     C211151   7.382  13.708  16.102 -0.2704 -0.0186  0.2890
55777DOD     C311152   7.684  13.370  16.182 -0.1272  0.0032 -0.1492
55778DOD     C111153  18.137   6.715  12.777 -0.0302  0.0926 -0.1982
55778DOD     C211154  18.290   6.409  13.114 -0.3237 -0.2289  0.1948
55778DOD     C311155  18.025   6.024  13.159 -0.0243 -0.0781 -0.1418
55779DOD     C111156   6.103   8.558  27.144 -0.2377  0.1503  0.2109
55779DOD     C211157   6.524   8.541  27.009  0.1140 -0.0613 -0.0412
55779DOD     C311158   6.998   8.735  26.938 -0.1610 -0.4674 -0.3671
55780DOD     C111159   2.586   3.200  26.908 -0.0390 -0.0516 -0.2260
55780DOD     C211160   2.324   3.383  26.574 -0.0203 -0.3877 -0.1885
55780DOD     C311161   2.250   3.671  26.249  0.3177 -0.4919  0.0377
55781DOD     C111162  12.549  21.415   8.531 -0.2008 -0.0056  0.0133
55781DOD     C211163  12.414  21.755   8.826 -0.2014  0.0611  0.0412
55781DOD     C311164  12.592  22.123   8.686 -0.1551  0.1406  0.3434
55782DOD     C111165  22.352  23.504   2.833 -0.0054 -0.2784 -0.1798
55782DOD     C211166  22.418  23.670   2.417 -0.2991 -0.0925 -0.1842
55782DOD     C311167  22.598  23.525   1.990 -0.2605 -0.2540  0.0550
55783DOD     C111168   9.244   1.864  20.904  0.0976  0.1223 -0.0453
55783DOD     C211169   9.048   1.874  21.304  0.1347  0.1218  0.0821
55783DOD     C311170   8.745   1.822  21.704 -0.0009  0.2226  0.2206
55784DOD     C111171   1.247  13.276  23.811 -0.0986  0.0516 -0.2902
55784DOD     C211172   1.494  12.975  23.521  0.1165  0.0961  0.0258
55784DOD     C311173   1.610  12.600  23.263 -0.2540  0.1104  0.0256
55785DOD     C111174   2.938  11.281  21.231 -0.0001  0.0411 -0.1377
55785DOD     C211175   2.694  11.605  21.381 -0.1264  0.1096 -0.0800
55785DOD     C311176   2.293  11.690  21.652 -0.1102 -0.0540 -0.1330
55786DOD     C111177  23.163   8.875  11.284  0.0978 -0.1579 -0.2068
55786DOD     C211178  22.921   9.221  11.522  0.0414 -0.3026 -0.1389
55786DOD     C311179  23.111   9.633  11.564 -0.2933  0.2145 -0.1177
55787DOD     C111180  11.355  21.640  27.834  0.1664  0.0722 -0.0757
55787DOD     C211181  11.700  21.410  28.058 -0.2095  0.1712 -0.0178
55787DOD     C311182  12.114  21.335  28.275 -0.2598 -0.2424  0.1526
55788DOD     C111183   9.207  28.904  10.988  0.0981  0.0503 -0.0990
55788DOD     C211184   9.684  28.991  10.892  0.1262  0.0503 -0.1751
55788DOD     C311185  10.080  29.244  10.938 -0.0262  0.0458  0.0811
55789DOD     C111186  17.770  25.553  14.572 -0.2049 -0.1414 -0.0197
55789DOD     C211187  17.944  26.017  14.584 -0.3991 -0.2728  0.0960
55789DOD     C311188  17.993  26.423  14.400 -0.3570  0.0229  0.0794
55790DOD     C111189  18.013  20.898   7.310 -0.3009  0.1766  0.1838
55790DOD     C211190  18.120  20.771   6.850  0.0686  0.0153 -0.0430
55790DOD     C311191  18.543  20.551   6.825  0.1260 -0.0478  0.1230
55791DOD     C111192  28.370  20.718   4.728 -0.1523  0.2157  0.1035
55791DOD     C211193  28.485  20.297   4.947  0.2150 -0.0612  0.1307
55791DOD     C311194  28.915  20.086   4.917  0.0094  0.1804  0.0460
55792DOD     C111195   3.743  15.704  16.954 -0.0359  0.1973  0.0738
55792DOD     C211196   4.068  15.530  17.316  0.3888  0.0778  0.0244
55792DOD     C311197   4.308  15.186  17.441 -0.0966 -0.1469 -0.2540
55793DOD     C111198  17.350  10.026   1.085 -0.1224  0.0488  0.1080
55793DOD     C211199  17.440   9.563   1.144  0.1266  0.2719  0.1280
55793DOD     C311200  17.839   9.324   0.953 -0.1749  0.0933  0.1546
55794DOD     C111201   1.495  19.283  10.513 -0.0229  0.0537  0.4436
55794DOD     C211202   1.059  19.484  10.627  0.0162  0.1505 -0.0485
55794DOD     C311203   0.863  19.925  10.620 -0.1287  0.0858  0.2303
55795DOD     C111204  15.205  13.966  26.233  0.0510 -0.2754 -0.1273
55795DOD     C211205  15.582  14.226  26.129 -0.2424  0.0109  0.3948
55795DOD     C311206  15.982  14.114  25.959  0.0372  0.1846  0.2382
55796DOD     C111207  24.213  27.805  22.648  0.0730 -0.3812 -0.0430
55796DOD     C211208  24.655  27.724  22.532  0.2469 -0.1213 -0.0895
55796DOD     C311209  24.816  27.444  22.234  0.2222  0.0196 -0.0224
55797DOD     C111210  25.708   8.720  19.932 -0.2765 -0.0498  0.3016
55797DOD     C211211  25.481   8.494  20.295  0.0694  0.2185 -0.1418
55797DOD     C311212  25.260   8.431  20.765 -0.0690 -0.0312 -0.1462
55798DOD     C111213   0.218  29.624  14.066  0.2132  0.1837  0.0723
55798DOD     C211214   0.568  29.911  13.997  0.1186  0.0588  0.1121
55798DOD     C311215   0.503   0.060  13.887  0.2432  0.1312  0.0160
55799DOD     C111216  21.370  23.696   2.645 -0.0378  0.3319  0.0811
55799DOD     C211217  21.563  23.400   2.375 -0.1847 -0.2530 -0.4592
55799DOD     C311218  21.736  23.087   2.094  0.0856 -0.0268 -0.4292
55800DOD     C111219   3.237  26.688  16.744  0.1484  0.1852  0.0675
55800DOD     C211220   3.294  26.956  17.102 -0.1223  0.1745  0.3241
55800DOD     C311221   3.422  27.122  17.471  0.0140  0.1011  0.0836
55801DOD     C111222  16.593  24.449   5.633 -0.1084 -0.2547 -0.1466
55801DOD     C211223  16.512  24.907   5.678  0.3021 -0.0045  0.1105
55801DOD     C311224  16.477  25.225   5.993 -0.0288  0.2437 -0.1873
55802DOD     C111225  22.803   4.977  12.867  0.1116  0.0646  0.4913
55802DOD     C211226  22.896   5.373  13.066 -0.0490 -0.3310  0.0841
55802DOD     C311227  23.255   5.667  13.104  0.1385  0.0843 -0.1324
55803DOD     C111228   4.731   2.274   4.961 -0.0847  0.0894  0.0153
55803DOD     C211229   4.809   2.220   4.511  0.0875 -0.3620  0.1876
55803DOD     C311230   4.879   2.126   4.063 -0.0919 -0.0842  0.1327
55804DOD     C111231  20.762  13.486  15.635  0.0897 -0.2778  0.2615
55804DOD     C211232  20.569  13.890  15.626 -0.0373 -0.2043  0.1519
55804DOD     C311233  20.183  14.091  15.872 -0.0962  0.1932  0.4482
55805DOD     C111234  13.019  18.799  24.406 -0.1179  0.0186  0.0303
55805DOD     C211235  13.143  19.027  24.724 -0.0966  0.2435 -0.0749
55805DOD     C311236  13.274  19.266  25.120 -0.2883  0.2127  0.1272
55806DOD     C111237  13.737  16.036   1.056  0.1279  0.0798 -0.1570
55806DOD     C211238  13.317  15.881   0.926 -0.1727  0.1651  0.0413
55806DOD     C311239  12.861  15.985   0.951 -0.2968  0.0555  0.1727
55807DOD     C111240  12.431   8.012  12.075  0.1272 -0.1973  0.1728
55807DOD     C211241  12.157   8.331  12.351 -0.4679 -0.2907  0.0459
55807DOD     C311242  11.833   8.570  12.598 -0.1116 -0.1571  0.1010
55808DOD     C111243  28.962   7.829  25.632  0.0826 -0.0773  0.1245
55808DOD     C211244  29.390   7.634  25.621  0.0266 -0.1142 -0.1540
55808DOD     C311245  29.840   7.466  25.587  0.4632 -0.2308  0.2376
55809DOD     C111246  19.690   4.421  23.479  0.1329 -0.0897  0.0691
55809DOD     C211247  19.592   4.117  23.148 -0.2308 -0.4913  0.1704
55809DOD     C311248  19.784   3.761  22.921 -0.2220 -0.1319  0.2049
55810DOD     C111249  28.984   6.949  12.849  0.0904 -0.2117 -0.3314
55810DOD     C211250  29.090   6.498  12.981  0.2510 -0.1368  0.0782
55810DOD     C311251  29.127   6.106  13.225 -0.2330  0.1273  0.2284
55811DOD     C111252   1.567   5.824  30.161 -0.1593  0.0762 -0.0063
55811DOD     C211253   1.340   5.471  29.945  0.2985 -0.0834  0.0982
55811DOD     C311254   1.534   5.101  29.677  0.0122 -0.0637  0.1362
55812DOD     C111255  22.070   6.955  15.382 -0.1843  0.1853  0.1196
55812DOD     C211256  21.899   6.907  14.933  0.0114 -0.2011 -0.2502
55812DOD     C311257  21.574   6.825  14.582 -0.0518  0.2272 -0.0785
55813DOD     C111258  11.479  13.016  14.574  0.1365  0.0438 -0.1920
55813DOD     C211259  11.864  12.815  14.664  0.0027 -0.0105 -0.0250
55813DOD     C311260  12.207  13.109  14.776  0.1549 -0.1869 -0.0852
55814DOD     C111261  22.758  19.018  23.359 -0.0087 -0.0237  0.1081
55814DOD     C211262  22.959  18.624  23.313  0.0038 -0.1795  0.0365
55814DOD     C311263  23.205  18.341  23.011 -0.1946  0.1786 -0.0220
55815DOD     C111264   7.611   1.402  23.488  0.1023  0.0296 -0.3610
55815DOD     C211265   7.918   1.082  23.489  0.2613 -0.2639  0.1712
55815DOD     C311266   8.041   0.643  23.375  0.0284 -0.1432 -0.1576
55816DOD     C111267   6.230  23.034  13.614 -0.1997 -0.0381  0.0951
55816DOD     C211268   6.689  23.191  13.609 -0.1952 -0.2986 -0.2687
55816DOD     C311269   7.031  22.981  13.473 -0.2225 -0.2482  0.1018
55817DOD     C111270  13.585  16.014  18.579 -0.0103 -0.3016 -0.0481
55817DOD     C211271  13.976  16.082  18.868  0.0609 -0.3242  0.1095
55817DOD     C311272  14.225  15.847  19.118  0.1343  0.3930 -0.3408
55818DOD     C111273   9.703   2.908   6.590  0.0681  0.0599 -0.0347
55818DOD     C211274   9.376   3.218   6.560  0.0223  0.1870 -0.2472
55818DOD     C311275   8.984   3.520   6.462 -0.3194  0.0101  0.0970
55819DOD     C111276  18.083  10.465  26.209 -0.0248 -0.1446  0.4536
55819DOD     C211277  18.334  10.462  26.618  0.1339  0.2483  0.1637
55819DOD     C311278  18.542  10.187  26.909  0.0641  0.1127 -0.0694
55820DOD     C111279  27.348   1.069  10.393 -0.1301  0.0543  0.0894
55820DOD     C211280  27.546   1.440  10.163  0.2231 -0.0931 -0.0681
55820DOD     C311281  27.518   1.607   9.739  0.2654 -0.3844 -0.0396
55821DOD     C111282  13.280   6.496  12.986 -0.3325 -0.2894  0.2229
55821DOD     C211283  13.217   6.938  13.066  0.0332 -0.3014  0.1721
55821DOD     C311284  13.537   7.297  13.105 -0.0861  0.2583  0.2152
55822DOD     C111285   5.735  22.218  18.935  0.0272 -0.2737 -0.0717
55822DOD     C211286   5.364  22.372  19.184 -0.0640  0.1462  0.0960
55822DOD     C311287   5.018  22.663  19.306 -0.0644 -0.2172  0.1238
55823DOD     C111288  13.813  24.028  21.526  0.1971 -0.1254 -0.0294
55823DOD     C211289  13.871  23.805  21.953  0.3012  0.0648  0.1066
55823DOD     C311290  13.868  23.456  22.324 -0.2622  0.1459 -0.2457
55824DOD     C111291   2.450  10.796  17.865  0.1281 -0.0158  0.2936
55824DOD     C211292   2.467  10.876  17.373  0.2739  0.0931 -0.2933
55824DOD     C311293   2.470  11.044  16.951 -0.4710 -0.4401  0.0394
55825DOD     C111294  24.326  24.413  26.258  0.1005  0.0663 -0.1677
55825DOD     C211295  24.180  23.970  26.238  0.1742  0.2390 -0.0533
55825DOD     C311296  24.305  23.547  26.397 -0.2211 -0.0904  0.1351
55826DOD     C111297  20.196   4.679  16.168  0.0051  0.1123  0.0181
55826DOD     C211298  19.838   4.990  16.054  0.0931 -0.0531  0.3351
55826DOD     C311299  19.747   5.453  15.916 -0.2018  0.1536 -0.1249
55827DOD     C111300  22.610  20.676  29.050 -0.1441  0.1722  0.0076
55827DOD     C211301  22.195  20.738  29.268  0.0476 -0.1529  0.0938
55827DOD     C311302  21.898  20.522  29.529 -0.5745  0.2455  0.0608
55828DOD     C111303  11.689  21.019  29.148 -0.0669  0.0082  0.1347
55828DOD     C211304  11.552  20.636  29.283  0.0105 -0.0942  0.0568
55828DOD     C311305  11.409  20.235  29.463 -0.0514  0.1318  0.0157
55829DOD     C111306  27.827  19.866  11.793  0.2892  0.0314 -0.1194
55829DOD     C211307  28.288  19.709  11.697  0.0092 -0.0788  0.1341
55829DOD     C311308  28.595  19.815  11.344 -0.1187 -0.2156  0.1683
55830DOD     C111309  20.274   1.301  22.209 -0.2140 -0.2073  0.0336
55830DOD     C211310  20.191   1.746  22.069 -0.0160 -0.2096 -0.1974
55830DOD     C311311  19.921   1.743  21.707  0.3436 -0.0633 -0.0531
55831DOD     C111312   3.288   1.789  22.794 -0.2045  0.1430  0.3950
55831DOD     C211313   3.168   1.331  22.772 -0.0267 -0.0693 -0.0566
55831DOD     C311314   3.253   0.930  23.015  0.0085  0.0165 -0.0849
55832DOD     C111315  22.849  28.382  20.239 -0.2269  0.1182  0.0199
55832DOD     C211316  22.857  28.800  20.523 -0.1246  0.0553 -0.1802
55832DOD     C311317  22.546  29.090  20.745 -0.2625 -0.0911 -0.1546
55833DOD     C111318   4.176  20.165   3.250 -0.1169 -0.2626 -0.2733
55833DOD     C211319   4.621  20.336   3.251 -0.3492  0.3139  0.1233
55833DOD     C311320   4.889  20.529   2.993 -0.2444 -0.3415 -0.0806
55834DOD     C111321  19.003  16.605  14.620  0.1599  0.0862  0.1610
55834DOD     C211322  18.668  16.359  14.916  0.1146 -0.0431 -0.1254
55834DOD     C311323  18.469  16.124  15.237 -0.1905 -0.0997  0.1718
55835DOD     C111324   9.214   6.204  26.362  0.0165 -0.1864 -0.2174
55835DOD     C211325   8.848   6.234  26.683 -0.0165  0.0192  0.0473
55835DOD     C311326   8.505   5.876  26.607  0.1449  0.3085  0.2183
55836DOD     C111327   1.607  26.838  28.474 -0.1066  0.3214 -0.2581
55836DOD     C211328   1.290  26.535  28.198  0.0324  0.0163  0.0395
55836DOD     C311329   1.046  26.091  28.066 -0.0643 -0.1625 -0.0349
55837DOD     C111330  23.040  19.390   3.316 -0.0326  0.0615  0.0553
55837DOD     C211331  22.866  19.066   3.555  0.2490  0.1560 -0.2736
55837DOD     C311332  22.767  18.734   3.848  0.1479 -0.0916  0.1776
55838DOD     C111333   1.227   0.586  18.707  0.0092 -0.0760  0.2362
55838DOD     C211334   0.882   0.406  18.950 -0.0729 -0.0757 -0.2423
55838DOD     C311335   0.527   0.495  19.313  0.0365 -0.0966  0.0129
55839DOD     C111336   2.514   9.662   0.845 -0.0332  0.0823 -0.1202
55839DOD     C211337   2.796   9.630   0.437 -0.1370 -0.1280  0.0490
55839DOD     C311338   2.630   9.556   0.029  0.3975 -0.0326 -0.1058
55840DOD     C111339  22.597   9.941  14.028  0.0163 -0.0622 -0.2222
55840DOD     C211340  22.809  10.281  13.799 -0.0261  0.0692  0.1521
55840DOD     C311341  22.626  10.620  13.520 -0.1947  0.0524 -0.3816
55841DOD     C111342   7.812   1.858  14.890  0.1654  0.1067  0.0201
55841DOD     C211343   7.864   2.166  14.548  0.1589 -0.0753  0.1039
55841DOD     C311344   7.872   2.421  14.156  0.3880 -0.2769  0.0923
55842DOD     C111345   4.043   1.870   4.191 -0.1070  0.0858 -0.0434
55842DOD     C211346   4.335   1.973   4.592  0.2741 -0.2171 -0.2524
55842DOD     C311347   4.596   1.803   4.917  0.2250 -0.1965  0.2731
55843DOD     C111348   1.458  20.932   8.331 -0.0444  0.1979 -0.2598
55843DOD     C211349   1.681  20.743   7.911  0.0383  0.0065 -0.0453
55843DOD     C311350   1.904  20.678   7.491 -0.3051 -0.0710  0.0229
55844DOD     C111351  17.590   2.347  28.410  0.1970 -0.1956  0.0093
55844DOD     C211352  17.625   1.929  28.541 -0.0316  0.2566 -0.1953
55844DOD     C311353  18.011   1.648  28.692 -0.1067 -0.0049 -0.0869
55845DOD     C111354  18.882   2.096  15.651  0.2570 -0.0226 -0.1672
55845DOD     C211355  18.855   1.708  15.429  0.1326 -0.0554 -0.0392
55845DOD     C311356  18.487   1.432  15.200  0.0402  0.1470  0.1104
55846DOD     C111357   2.347  10.124   3.029  0.0970  0.0140  0.2446
55846DOD     C211358   2.761  10.239   2.780  0.1456  0.2143  0.2175
55846DOD     C311359   3.197  10.546   2.716 -0.3622  0.0758 -0.0384
55847DOD     C111360  27.621  12.488   9.576  0.0171 -0.1338 -0.0675
55847DOD     C211361  27.478  12.496   9.175  0.1204  0.0471  0.0580
55847DOD     C311362  27.408  12.179   8.890  0.0823  0.0189 -0.0974
55848DOD     C111363  29.770   5.034   6.945  0.3536  0.0477 -0.4357
55848DOD     C211364  29.544   5.407   7.097 -0.1407  0.1072 -0.3559
55848DOD     C311365  29.167   5.485   7.364 -0.1717 -0.1710  0.1434
55849DOD     C111366  21.734  18.082  16.866  0.0090  0.1532  0.1729
55849DOD     C211367  21.654  18.373  16.524  0.2755 -0.1985 -0.1448
55849DOD     C311368  21.591  18.299  16.041 -0.0099  0.0129 -0.0752
55850DOD     C111369  29.934   4.450   5.160  0.1178 -0.0757  0.0262
55850DOD     C211370  29.961   4.294   4.752 -0.0185  0.1135  0.1107
55850DOD     C311371  30.052   3.954   4.445 -0.0404  0.1227  0.0274
55851DOD     C111372  16.218   0.882   5.543  0.2580  0.1639 -0.1598
55851DOD     C211373  16.173   0.981   5.079  0.1706 -0.2653  0.2581
55851DOD     C311374  16.055   0.969   4.655  0.0628  0.3495  0.0634
55852DOD     C111375  29.800   1.739   8.114  0.2080 -0.0123 -0.0226
55852DOD     C211376  29.518   1.657   8.456 -0.0767 -0.1091 -0.2001
55852DOD     C311377  29.201   1.611   8.828  0.1167  0.2042  0.1813
55853DOD     C111378  28.164  25.068  29.970 -0.2815 -0.2133  0.3872
55853DOD     C211379  28.339  24.694  30.195  0.2990  0.2399  0.3090
55853DOD     C311380  28.589  24.336  30.123  0.0734 -0.1163 -0.1253
55854DOD     C111381  10.078  16.713   2.100  0.1085  0.4599  0.1560
55854DOD     C211382  10.510  16.767   2.200 -0.2033  0.3031  0.1268
55854DOD     C311383  10.826  17.027   2.376  0.1991 -0.3054  0.1708
55855DOD     C111384  15.574  21.835  24.757 -0.0980 -0.0744  0.3301
55855DOD     C211385  15.335  22.063  25.055 -0.1366 -0.1842 -0.3556
55855DOD     C311386  15.240  22.090  25.496  0.0281  0.1872  0.1857
55856DOD     C111387  11.256  13.117  29.679  0.1950  0.1147  0.0113
55856DOD     C211388  10.984  12.767  29.646  0.0007 -0.1099  0.0593
55856DOD     C311389  10.558  12.640  29.805  0.2406  0.0934  0.2981
55857DOD     C111390  13.786  20.985  18.920  0.0637 -0.1618 -0.1572
55857DOD     C211391  13.981  20.796  19.304  0.1301 -0.4900  0.4046
55857DOD     C311392  14.380  20.635  19.479 -0.0745 -0.1393 -0.0350
55858DOD     C111393  22.836   9.280   5.601 -0.5621  0.1544 -0.3380
55858DOD     C211394  22.347   9.230   5.629 -0.0007  0.2989  0.0490
55858DOD     C311395  22.039   9.190   5.971 -0.4534  0.1051  0.0634
55859DOD     C111396  28.638  20.286  26.766  0.2248  0.1886  0.0946
55859DOD     C211397  28.627  19.915  26.505  0.4361 -0.1280  0.1677
55859DOD     C311398  28.452  19.537  26.329 -0.1019  0.1397 -0.1815
55860DOD     C111399   3.293  29.324  23.462 -0.1708  0.1146  0.0120
55860DOD     C211400   3.537  29.563  23.743  0.3536 -0.1659 -0.4809
55860DOD     C311401   3.615  29.961  23.977 -0.1119  0.4066  0.1985
55861DOD     C111402  11.376  22.244  15.287 -0.3050  0.1426  0.1592
55861DOD     C211403  11.675  21.970  15.508 -0.0718  0.0006  0.0110
55861DOD     C311404  12.031  21.621  15.670 -0.1120  0.1525 -0.1571
55862DOD     C111405  24.483  27.276  13.266  0.0358 -0.1362  0.0719
55862DOD     C211406  24.354  27.200  13.698  0.0384 -0.0269  0.0366
55862DOD     C311407  24.185  26.780  13.954 -0.1670  0.0180 -0.2477
55863DOD     C111408  22.030  23.348   8.229 -0.2313 -0.0227 -0.1410
55863DOD     C211409  21.656  23.480   8.466  0.1740  0.1875 -0.1107
55863DOD     C311410  21.278  23.666   8.683  0.2140  0.1304 -0.2797
55864DOD     C111411  25.411  11.967  28.075  0.1674  0.0922 -0.2456
55864DOD     C211412  25.031  12.257  28.075  0.1517  0.0599 -0.2459
55864DOD     C311413  24.686  12.554  28.162 -0.2031  0.2823 -0.1436
55865DOD     C111414   4.364  17.965   9.199  0.1365 -0.1612  0.1429
55865DOD     C211415   4.584  18.258   9.524  0.2411 -0.1070 -0.0568
55865DOD     C311416   4.968  18.268   9.690  0.0560 -0.1346 -0.0432
55866DOD     C111417  20.355  10.921  25.612  0.2097  0.1388  0.3471
55866DOD     C211418  20.462  10.570  25.886  0.0390 -0.0806  0.0505
55866DOD     C311419  20.520  10.097  25.987  0.1200 -0.0628 -0.4352
55867DOD     C111420  26.767   6.885  23.485 -0.0196  0.2316 -0.0392
55867DOD     C211421  26.488   6.590  23.673  0.0774 -0.2593 -0.2383
55867DOD     C311422  26.257   6.210  23.781  0.1875  0.1843 -0.1540
55868DOD     C111423  11.626  16.268  18.523 -0.2827 -0.2149  0.0970
55868DOD     C211424  11.485  16.330  18.953 -0.0138 -0.2600 -0.4275
55868DOD     C311425  11.390  16.332  19.435  0.0420 -0.2594  0.0327
55869DOD     C111426  23.855   3.594  13.811 -0.0905  0.2726  0.1967
55869DOD     C211427  24.253   3.807  13.911  0.0749 -0.0564 -0.2923
55869DOD     C311428  24.616   4.091  13.725 -0.2454 -0.4011 -0.1937
55870DOD     C111429  23.136  28.914  29.464 -0.1071  0.0615  0.0222
55870DOD     C211430  22.892  29.179  29.727  0.1365 -0.0273 -0.0786
55870DOD     C311431  22.827  29.480  29.998 -0.0768 -0.0473 -0.0621
55871DOD     C111432  28.456   0.925  21.138 -0.0121 -0.0616  0.1113
55871DOD     C211433  28.815   0.686  21.385  0.2245 -0.0414  0.0016
55871DOD     C311434  29.264   0.640  21.293 -0.0184 -0.0824 -0.1339
55872DOD     C111435   3.420   3.016   2.030  0.1700  0.0641 -0.1677
55872DOD     C211436   3.597   3.121   2.429 -0.0399  0.0413 -0.2376
55872DOD     C311437   3.869   3.439   2.574  0.0973  0.2168  0.0962
55873DOD     C111438   1.601  28.423  21.126  0.0145  0.1320  0.0631
55873DOD     C211439   1.773  28.027  20.850 -0.1413 -0.0655  0.2435
55873DOD     C311440   2.096  27.686  20.930  0.0306  0.1028 -0.3399
55874DOD     C111441  18.855  22.550  21.040  0.1795  0.0195 -0.1143
55874DOD     C211442  18.896  22.154  21.360  0.3558 -0.0191  0.1139
55874DOD     C311443  19.098  21.811  21.634  0.2820  0.0192 -0.0487
55875DOD     C111444  29.904   0.403  22.830  0.1422 -0.1035  0.1371
55875DOD     C211445  29.931   0.889  22.880  0.1137 -0.1975  0.1973
55875DOD     C311446  30.117   1.340  23.017 -0.2353  0.0151  0.0589
55876DOD     C111447  24.227   3.513   6.942 -0.1193 -0.1779  0.0686
55876DOD     C211448  23.948   3.813   7.179  0.0972  0.2858  0.0052
55876DOD     C311449  23.572   3.827   7.477  0.0252  0.1627  0.0384
55877DOD     C111450   6.832  21.164   4.105 -0.0544 -0.2095  0.0722
55877DOD     C211451   7.008  21.077   3.696  0.1143 -0.4058 -0.0825
55877DOD     C311452   7.031  21.181   3.241  0.4196 -0.0648 -0.0574
55878DOD     C111453  19.362   3.112   7.072 -0.1603  0.1659 -0.2533
55878DOD     C211454  19.801   3.181   6.930 -0.1111  0.0172 -0.1926
55878DOD     C311455  20.225   3.455   6.974  0.1088 -0.0235  0.2880
55879DOD     C111456   9.624  24.147  15.846  0.1225  0.0410  0.1234
55879DOD     C211457   9.666  24.154  15.431 -0.0248 -0.2100 -0.2706
55879DOD     C311458   9.582  23.796  15.166 -0.3564  0.1630  0.1990
55880DOD     C111459  11.950  16.726  21.302  0.2275 -0.0947  0.2445
55880DOD     C211460  11.757  16.673  21.763  0.1424  0.2735 -0.0480
55880DOD     C311461  11.791  16.411  22.125  0.0276 -0.1060  0.1053
55881DOD     C111462   7.075   4.564  26.274 -0.1256  0.1970  0.0183
55881DOD     C211463   7.184   4.985  26.256  0.0015 -0.0608  0.0303
55881DOD     C311464   6.923   5.379  26.219 -0.1028  0.1923 -0.1490
55882DOD     C111465   6.649  13.384  25.333  0.3957 -0.0087  0.0201
55882DOD     C211466   7.060  13.410  25.524 -0.1182 -0.2457 -0.2426
55882DOD     C311467   7.351  13.684  25.673  0.1296 -0.0212 -0.2572
55883DOD     C111468  15.236   2.500  15.363  0.0840 -0.1239  0.0578
55883DOD     C211469  15.622   2.786  15.462  0.0593 -0.0334 -0.0576
55883DOD     C311470  15.795   3.190  15.644  0.1093  0.2109 -0.0586
55884DOD     C111471  17.630  21.435  19.284  0.0685  0.0368  0.2386
55884DOD     C211472  17.315  21.448  18.936 -0.0739  0.0387  0.3295
55884DOD     C311473  16.978  21.760  18.893 -0.3062  0.0389 -0.1619
55885DOD     C111474  19.238  21.475  20.143 -0.1268 -0.0143  0.0822
55885DOD     C211475  19.660  21.310  20.033 -0.1605 -0.0797 -0.0028
55885DOD     C311476  20.004  20.941  20.058 -0.2008  0.2673 -0.0377
55886DOD     C111477   4.136  16.946  12.873 -0.0895  0.1031 -0.1460
55886DOD     C211478   4.045  16.659  13.184  0.1137  0.2543  0.0035
55886DOD     C311479   3.547  16.704  13.285  0.0252  0.1764 -0.2442
55887DOD     C111480   1.620  27.163  22.681  0.1005 -0.2849 -0.2412
55887DOD     C211481   1.473  27.545  22.843  0.1222 -0.0857 -0.3218
55887DOD     C311482   1.057  27.728  22.773 -0.0688 -0.1983 -0.0079
55888DOD     C111483  11.130  24.517   6.055 -0.0634 -0.0120 -0.0129
55888DOD     C211484  11.581  24.544   6.266  0.3148  0.1389 -0.0009
55888DOD     C311485  11.579  24.532   6.716 -0.0548  0.1510  0.3899
55889DOD     C111486  22.062  25.136  27.553 -0.1255  0.2142 -0.0643
55889DOD     C211487  21.593  25.231  27.475 -0.3179  0.1088 -0.1212
55889DOD     C311488  21.197  25.360  27.622  0.0707 -0.0783  0.0313
55890DOD     C111489  15.909   1.542   3.489  0.1546  0.0284  0.1705
55890DOD     C211490  16.344   1.248   3.508  0.3116 -0.0682 -0.1746
55890DOD     C311491  16.777   1.397   3.374 -0.0570 -0.1875 -0.0136
55891DOD     C111492   4.421  10.316   0.327 -0.1050 -0.0897  0.1409
55891DOD     C211493   4.777  10.444   0.502 -0.3819 -0.1067  0.2401
55891DOD     C311494   5.219  10.555   0.578  0.2580  0.0239  0.2585
55892DOD     C111495  17.082  13.467  28.408  0.3035  0.0888  0.0860
55892DOD     C211496  16.695  13.398  28.255 -0.1887 -0.0425  0.2108
55892DOD     C311497  16.450  13.039  28.379  0.0207  0.1885 -0.2031
55893DOD     C111498  21.342  25.639   4.864 -0.2561 -0.0769 -0.5539
55893DOD     C211499  20.929  25.788   4.697 -0.4730 -0.0068  0.2803
55893DOD     C311500  20.493  25.777   4.961  0.2616  0.0667 -0.0762
55894DOD     C111501  22.530   2.808   7.355  0.1853 -0.1454  0.0079
55894DOD     C211502  22.646   2.932   6.935  0.1442  0.0741  0.0629
55894DOD     C311503  22.941   2.787   6.634  0.1165 -0.3505 -0.0493
55895DOD     C111504   4.712   2.352  13.613  0.1370 -0.1600  0.2945
55895DOD     C211505   4.608   2.175  14.011 -0.4335  0.0726  0.1798
55895DOD     C311506   4.401   2.063  14.412  0.1885 -0.1064 -0.0200
55896DOD     C111507   4.990  27.083  24.691 -0.2963  0.0411 -0.1652
55896DOD     C211508   4.745  26.684  24.637  0.1500  0.0040 -0.3638
55896DOD     C311509   4.477  26.367  24.861 -0.0718  0.0550 -0.2074
55897DOD     C111510   1.991  12.043   5.643 -0.3055  0.0084 -0.2247
55897DOD     C211511   1.511  12.017   5.834  0.2473 -0.0432  0.2841
55897DOD     C311512   1.051  11.861   5.929 -0.2088 -0.0564  0.3429
55898DOD     C111513  12.320  18.010  21.346  0.0613  0.0062  0.1625
55898DOD     C211514  12.738  17.890  21.445 -0.2734  0.1114 -0.2365
55898DOD     C311515  12.980  17.684  21.838 -0.2954 -0.2679  0.0287
55899DOD     C111516  24.593  18.972   9.297 -0.1682  0.1535 -0.1011
55899DOD     C211517  24.763  19.017   9.745  0.0415  0.3255 -0.0919
55899DOD     C311518  24.497  18.875  10.114 -0.0461 -0.1137  0.2521
55900DOD     C111519  20.679  19.815  30.322  0.0914 -0.0934  0.0036
55900DOD     C211520  21.043  20.111  30.117 -0.2702 -0.4465 -0.1088
55900DOD     C311521  21.444  20.014  29.900  0.0063  0.0728 -0.0199
55901DOD     C111522  12.483  23.683  24.006  0.0106 -0.2094 -0.1875
55901DOD     C211523  12.112  23.690  23.717 -0.0321  0.1693 -0.0847
55901DOD     C311524  11.887  24.087  23.611  0.0504  0.1370  0.2227
55902DOD     C111525  19.274  15.343  23.805  0.1152  0.3231 -0.0910
55902DOD     C211526  19.500  15.106  24.134 -0.1995 -0.0021  0.1166
55902DOD     C311527  19.841  14.833  23.896 -0.0197 -0.1258 -0.0033
55903DOD     C111528   0.341   7.151  26.107  0.1113  0.0452 -0.0345
55903DOD     C211529   0.147   7.346  26.478  0.1225  0.1393  0.1307
55903DOD     C311530  30.217   7.611  26.697 -0.0620  0.3368 -0.4087
55904DOD     C111531  25.004  30.342  29.741  0.0312  0.1473  0.0062
55904DOD     C211532  24.727  29.969  29.816 -0.0105  0.2429  0.1333
55904DOD     C311533  24.426  29.610  29.864  0.3111  0.0281 -0.1391
55905DOD     C111534   9.060  19.082   3.953 -0.0778  0.2490  0.0516
55905DOD     C211535   8.686  18.830   3.847  0.0865 -0.1581  0.2370
55905DOD     C311536   8.521  18.899   3.389 -0.0475 -0.1012 -0.3716
55906DOD     C111537  22.708   9.819   6.181 -0.6402  0.0735  0.0923
55906DOD     C211538  22.452  10.104   6.364 -0.3133  0.0527  0.1908
55906DOD     C311539  22.176  10.373   6.627 -0.1732 -0.0287 -0.1781
55907DOD     C111540  27.216  11.675  28.988 -0.0486 -0.1168 -0.0816
55907DOD     C211541  26.978  11.307  28.714 -0.1665  0.0502 -0.1121
55907DOD     C311542  26.883  10.977  28.402  0.0943 -0.0128 -0.1181
55908DOD     C111543  18.426  22.102  13.941 -0.1626 -0.1752  0.1589
55908DOD     C211544  18.033  22.114  14.210 -0.0000 -0.0460  0.1938
55908DOD     C311545  17.908  22.166  14.705 -0.1524  0.1082  0.2248
55909DOD     C111546  11.189  29.051  24.348 -0.3069 -0.0553  0.2324
55909DOD     C211547  10.932  28.655  24.514  0.0566  0.1801 -0.2407
55909DOD     C311548  10.746  28.248  24.756 -0.0123 -0.3075 -0.1932
55910DOD     C111549  10.364  28.527  11.446  0.1770  0.1407  0.2827
55910DOD     C211550  10.544  28.423  11.034 -0.0958  0.1014 -0.1227
55910DOD     C311551  10.864  28.109  10.915  0.0668  0.1154  0.1310
55911DOD     C111552  20.433  17.688  16.612  0.1082  0.2602 -0.3819
55911DOD     C211553  20.803  17.887  16.427  0.0240 -0.0917 -0.4065
55911DOD     C311554  21.157  18.146  16.287  0.0364  0.1349  0.0008
55912DOD     C111555  28.511   0.206  19.288  0.2035 -0.0149  0.1373
55912DOD     C211556  28.426   0.546  18.974 -0.2124  0.0129  0.1605
55912DOD     C311557  28.206   0.487  18.584 -0.0580 -0.2781  0.3459
55913DOD     C111558  30.231  21.715   5.957 -0.2148 -0.2507 -0.0935
55913DOD     C211559   0.375  21.799   6.106  0.3114 -0.1262  0.3823
55913DOD     C311560   0.801  21.597   6.176 -0.2092 -0.5066  0.1253
55914DOD     C111561   7.018  20.156  20.376  0.2322 -0.3015  0.0276
55914DOD     C211562   6.936  20.551  20.135  0.1837 -0.2307 -0.2932
55914DOD     C311563   6.934  21.047  20.023 -0.1143 -0.1537 -0.2839
55915DOD     C111564  14.040   7.124  22.760  0.0430  0.2534 -0.1780
55915DOD     C211565  13.847   6.993  22.346 -0.0298 -0.1979  0.2683
55915DOD     C311566  13.917   6.564  22.159 -0.1441  0.0677 -0.1418
55916DOD     C111567  15.402   5.748  21.072  0.1713  0.0649  0.0451
55916DOD     C211568  15.551   6.183  21.120  0.1714  0.0615  0.1115
55916DOD     C311569  15.533   6.589  21.390  0.4921  0.1850  0.4219
55917DOD     C111570  15.007  27.396   9.598 -0.0822 -0.1151 -0.0279
55917DOD     C211571  14.815  27.778   9.397 -0.2043 -0.1874 -0.0059
55917DOD     C311572  14.620  27.912   8.974  0.1934 -0.0324 -0.2373
55918DOD     C111573   0.054  29.862   9.318 -0.1083  0.1363 -0.1683
55918DOD     C211574   0.203  30.301   9.334 -0.0647  0.2645  0.1436
55918DOD     C311575   0.271   0.434   9.172  0.0801 -0.2561 -0.1338
55919DOD     C111576   0.906  12.071  10.973 -0.0033  0.1224  0.1710
55919DOD     C211577   0.852  11.899  11.352 -0.1020 -0.1875  0.0610
55919DOD     C311578   0.730  11.476  11.361  0.0479  0.2141 -0.0421
55920DOD     C111579  21.640  20.151   0.459 -0.1309  0.1225 -0.1255
55920DOD     C211580  21.221  20.306   0.298  0.1293 -0.0159 -0.1998
55920DOD     C311581  20.785  20.222   0.330 -0.0153 -0.0806  0.1780
55921DOD     C111582   8.365   1.715   2.092  0.1240 -0.2852  0.1187
55921DOD     C211583   8.225   2.121   2.318  0.0684  0.2912  0.4194
55921DOD     C311584   7.894   2.408   2.347 -0.4420  0.1983 -0.1662
55922DOD     C111585  10.033  22.359  29.235 -0.3079  0.0173  0.3966
55922DOD     C211586  10.235  22.736  29.333 -0.1865 -0.0683 -0.1579
55922DOD     C311587  10.425  23.031  29.020  0.0327  0.2171  0.1452
55923DOD     C111588  11.179  13.252  26.022 -0.0446  0.1589  0.1912
55923DOD     C211589  10.902  12.947  26.231 -0.0814 -0.0325 -0.2338
55923DOD     C311590  10.533  12.918  26.518 -0.0762  0.1512 -0.0114
55924DOD     C111591   3.109  22.746  21.089  0.1195 -0.0339  0.0224
55924DOD     C211592   3.523  22.826  20.937 -0.1458 -0.2637  0.1381
55924DOD     C311593   3.886  22.670  20.808  0.1314 -0.0619 -0.1773
55925DOD     C111594  15.081  11.319  21.682  0.0092 -0.2362 -0.1281
55925DOD     C211595  15.353  11.615  21.384  0.1343 -0.1802  0.2095
55925DOD     C311596  15.295  11.948  21.065  0.1457  0.1299  0.0689
55926DOD     C111597  25.798  13.015  10.149 -0.1701  0.0507 -0.2666
55926DOD     C211598  25.830  13.410  10.375 -0.3306 -0.0119  0.0294
55926DOD     C311599  25.577  13.775  10.415 -0.0038  0.3561 -0.1575
55927DOD     C111600  24.741  29.513   7.001 -0.2035 -0.1907 -0.0157
55927DOD     C211601  25.052  29.692   6.710  0.0877 -0.1533 -0.0687
55927DOD     C311602  25.180  29.908   6.310  0.2242  0.2121 -0.3037
55928DOD     C111603  26.015   9.894  23.305 -0.2923  0.3546 -0.1553
55928DOD     C211604  25.711  10.066  23.557 -0.0160 -0.2187  0.0620
55928DOD     C311605  25.459  10.349  23.865 -0.6883 -0.0603 -0.2526
55929DOD     C111606   4.810  20.602  25.366 -0.1162 -0.0293  0.0883
55929DOD     C211607   4.484  20.400  25.620  0.2872  0.0243 -0.1393
55929DOD     C311608   4.233  20.669  25.944  0.0887 -0.0506 -0.1261
55930DOD     C111609  29.302  15.636   7.558  0.0366  0.2003 -0.0120
55930DOD     C211610  29.167  15.398   7.146 -0.0489  0.0104  0.1374
55930DOD     C311611  28.765  15.227   6.958  0.0942 -0.2029  0.0732
55931DOD     C111612  21.518   8.548   6.987 -0.2966  0.1471 -0.2321
55931DOD     C211613  21.512   8.812   6.619 -0.0151 -0.0604 -0.0275
55931DOD     C311614  21.845   9.045   6.394 -0.2776 -0.2363  0.1216
55932DOD     C111615  11.664  11.674  13.993 -0.0261 -0.0282 -0.1390
55932DOD     C211616  11.972  11.419  14.265 -0.0505  0.0570  0.1188
55932DOD     C311617  12.023  11.224  14.688  0.1782 -0.2646 -0.2393
55933DOD     C111618   5.676  19.221  13.228  0.0555 -0.0888  0.3593
55933DOD     C211619   5.901  19.558  13.435  0.1818  0.1095 -0.1349
55933DOD     C311620   6.329  19.596  13.644  0.1365  0.1528 -0.3107
55934DOD     C111621   1.352   2.147  16.590  0.1872  0.0149  0.0237
55934DOD     C211622   1.568   2.207  16.262 -0.2725 -0.2834  0.2711
55934DOD     C311623   1.912   2.104  15.858  0.2528  0.3300  0.1325
55935DOD     C111624   7.385  24.704   0.073 -0.1536  0.0410  0.2551
55935DOD     C211625   7.396  24.855   0.493 -0.1254 -0.1399 -0.1377
55935DOD     C311626   7.308  25.290   0.620 -0.1135 -0.2450 -0.1516
55936DOD     C111627  20.455  22.938  27.740  0.3239 -0.3568  0.0682
55936DOD     C211628  20.209  22.604  27.506  0.0327 -0.0538 -0.2017
55936DOD     C311629  20.013  22.176  27.497  0.0112  0.3944  0.2277
55937DOD     C111630   6.206   3.195   8.755  0.0618 -0.0870  0.3293
55937DOD     C211631   6.495   2.989   8.412 -0.0304  0.2590 -0.1720
55937DOD     C311632   6.386   3.123   7.951 -0.1452  0.3451 -0.1042
55938DOD     C111633  23.981   5.155  28.865 -0.0055  0.0260  0.2627
55938DOD     C211634  24.277   5.234  29.208  0.1861 -0.0009 -0.2276
55938DOD     C311635  24.729   5.184  29.198  0.0737  0.0043 -0.1145
55939DOD     C111636  27.467  27.775  23.678  0.0291 -0.0267  0.0991
55939DOD     C211637  27.674  27.382  23.608  0.0904  0.0554 -0.1433
55939DOD     C311638  28.055  27.267  23.800  0.2371 -0.2805 -0.3473
55940DOD     C111639   9.440  20.249  23.574 -0.1255 -0.0277  0.3242
55940DOD     C211640   9.155  20.349  23.202  0.0019  0.1228  0.0928
55940DOD     C311641   8.949  20.645  22.969  0.0545  0.0403 -0.1036
55941DOD     C111642   8.207  29.709  26.045  0.0523 -0.0416  0.0398
55941DOD     C211643   8.074  29.780  26.481 -0.1722  0.1408 -0.2096
55941DOD     C311644   7.835  29.519  26.806  0.0690 -0.1357 -0.0225
55942DOD     C111645   4.726   3.767  13.950  0.3871  0.2023 -0.0679
55942DOD     C211646   4.909   3.423  14.167  0.0171 -0.0871  0.0145
55942DOD     C311647   5.329   3.260  14.029  0.0716 -0.1330  0.0643
55943DOD     C111648  17.111  11.094   0.460  0.1470  0.2538  0.2019
55943DOD     C211649  17.081  11.528   0.569  0.1175 -0.0865 -0.2278
55943DOD     C311650  17.044  11.874   0.343  0.1354 -0.2653  0.1932
55944DOD     C111651   9.748  17.753  19.893  0.1913  0.2097  0.2279
55944DOD     C211652   9.615  17.613  20.388  0.0225 -0.2229 -0.0378
55944DOD     C311653   9.592  17.607  20.835 -0.2068 -0.0429 -0.0386
55945DOD     C111654   7.267   8.148  26.471  0.2592 -0.1428  0.1320
55945DOD     C211655   7.616   8.456  26.410 -0.1374 -0.2455 -0.0254
55945DOD     C311656   7.463   8.773  26.196 -0.1336  0.2685 -0.1384
55946DOD     C111657  19.233   5.358  21.853  0.1742  0.2266  0.1583
55946DOD     C211658  19.630   5.526  21.774  0.2390  0.0271  0.0288
55946DOD     C311659  20.023   5.328  21.603  0.2163  0.1252 -0.3298
55947DOD     C111660  16.614   1.443   4.977  0.0401 -0.0510 -0.2270
55947DOD     C211661  16.581   1.064   4.737 -0.1201  0.0865  0.0206
55947DOD     C311662  16.570   0.611   4.595 -0.1893  0.0789  0.2591
55948DOD     C111663  29.712  14.902   3.984  0.0397  0.0931  0.0803
55948DOD     C211664  29.352  14.700   4.315  0.1055  0.1394  0.3816
55948DOD     C311665  29.470  14.402   4.688 -0.0448  0.0341  0.2046
55949DOD     C111666   8.515  27.246   8.814 -0.2210 -0.0323  0.1876
55949DOD     C211667   8.347  27.438   8.455  0.1501 -0.1454  0.2519
55949DOD     C311668   8.393  27.580   7.964  0.1005 -0.0967 -0.0940
55950DOD     C111669  14.756   2.046  22.713  0.3337 -0.1776 -0.0857
55950DOD     C211670  14.932   2.461  22.672  0.0014 -0.2362  0.1636
55950DOD     C311671  15.042   2.899  22.568 -0.2556 -0.1325  0.1214
55951DOD     C111672  13.294   8.618   0.747 -0.0687  0.2074  0.0976
55951DOD     C211673  13.222   8.928   1.055  0.0939 -0.3715  0.1439
55951DOD     C311674  12.992   9.068   1.467  0.0056  0.0697 -0.0821
55952DOD     C111675  16.293  29.457  21.311 -0.0164 -0.0220 -0.3253
55952DOD     C211676  16.658  29.401  21.574 -0.0379  0.3508  0.1642
55952DOD     C311677  16.902  29.121  21.810  0.1001 -0.0557 -0.1878
55953DOD     C111678  22.926  17.182   9.245 -0.4324  0.1801  0.2324
55953DOD     C211679  22.953  17.443   9.626  0.0640  0.1487  0.1534
55953DOD     C311680  23.171  17.808   9.783 -0.1158 -0.0372 -0.0301
55954DOD     C111681  14.107   6.564  23.138  0.3012  0.1177 -0.1669
55954DOD     C211682  14.151   6.089  23.060  0.0084 -0.0773  0.2850
55954DOD     C311683  13.914   5.679  23.078  0.3294  0.0530 -0.2756
55955DOD     C111684  22.778  20.505   2.918  0.2602 -0.2332  0.0721
55955DOD     C211685  22.964  20.869   3.176 -0.2356 -0.1477  0.1939
55955DOD     C311686  22.849  21.257   3.468  0.0192 -0.3051  0.1078
55956DOD     C111687   4.361  11.010  12.517  0.0264 -0.0037  0.1675
55956DOD     C211688   4.570  11.363  12.267 -0.1946 -0.0987  0.0523
55956DOD     C311689   4.523  11.828  12.275 -0.0095  0.1593  0.2475
55957DOD     C111690   1.908  19.059  18.006  0.0672  0.2568  0.0978
55957DOD     C211691   1.657  19.393  17.817  0.0861  0.0029  0.1426
55957DOD     C311692   1.230  19.465  17.716 -0.1321 -0.0937  0.1566
55958DOD     C111693  25.884   9.158  18.273  0.1177  0.0817  0.2268
55958DOD     C211694  25.895   9.573  18.396 -0.2314  0.2314 -0.1098
55958DOD     C311695  25.951  10.005  18.598  0.3176 -0.0827  0.3378
55959DOD     C111696  13.810  16.680   7.787 -0.1517  0.1948 -0.0893
55959DOD     C211697  13.586  16.319   7.921 -0.3784  0.3078 -0.0783
55959DOD     C311698  13.570  16.019   8.242  0.1551  0.0795  0.0459
55960DOD     C111699  17.237   4.611   8.464 -0.3215 -0.0968  0.0096
55960DOD     C211700  17.083   4.956   8.780 -0.0004  0.2679 -0.0369
55960DOD     C311701  16.889   4.995   9.190  0.3105 -0.0439 -0.2002
55961DOD     C111702  17.945  13.302  16.405 -0.1649  0.2528  0.1851
55961DOD     C211703  17.768  13.541  16.072  0.0405  0.2712  0.0793
55961DOD     C311704  17.551  13.702  15.719 -0.2593 -0.1798 -0.1637
55962DOD     C111705  13.101   9.574   1.441  0.0044  0.1606 -0.0616
55962DOD     C211706  13.221   9.423   0.974 -0.1747 -0.1306 -0.2311
55962DOD     C311707  13.265   9.165   0.615 -0.2131  0.2676 -0.0244
55963DOD     C111708  10.462  25.670   2.704  0.2867 -0.0436  0.0137
55963DOD     C211709  10.369  25.298   2.494 -0.1585  0.4758 -0.2282
55963DOD     C311710  10.635  25.024   2.275  0.2392  0.0136  0.0889
55964DOD     C111711   0.970  13.144  14.927 -0.0631  0.4312  0.3920
55964DOD     C211712   0.609  12.812  14.830  0.0324  0.0769  0.2087
55964DOD     C311713   0.371  12.531  14.550  0.1027  0.1687  0.1458
55965DOD     C111714  19.118  24.648  12.432  0.0839 -0.0482 -0.2679
55965DOD     C211715  19.532  24.366  12.610  0.1654 -0.2131 -0.1231
55965DOD     C311716  19.961  24.430  12.798 -0.0629  0.0525  0.2536
55966DOD     C111717  13.490  29.281   7.100 -0.6027 -0.2168 -0.0806
55966DOD     C211718  13.378  28.843   7.186 -0.2075  0.2815  0.0444
55966DOD     C311719  13.513  28.389   7.217 -0.2530  0.1616  0.1054
55967DOD     C111720   5.144  10.519   4.566  0.0241 -0.0129  0.0675
55967DOD     C211721   4.836  10.116   4.469  0.0342  0.0031 -0.1073
55967DOD     C311722   4.703   9.862   4.782 -0.2271  0.3202 -0.3606
55968DOD     C111723   6.449  19.193  17.780  0.0731 -0.0908 -0.1147
55968DOD     C211724   6.546  18.761  17.710  0.0258  0.0454 -0.0001
55968DOD     C311725   6.818  18.522  18.057  0.1661 -0.0267 -0.3452
55969DOD     C111726  12.973   9.865  14.188 -0.0155 -0.0130  0.0179
55969DOD     C211727  13.172   9.514  14.379 -0.1253 -0.3992 -0.1040
55969DOD     C311728  13.604   9.365  14.268  0.0576 -0.0027 -0.2553
55970DOD     C111729  21.134  14.453   2.140 -0.5259  0.2000  0.2251
55970DOD     C211730  21.104  14.950   2.106  0.0585  0.1334  0.3733
55970DOD     C311731  20.920  15.273   1.842  0.2820  0.3666 -0.0082
55971DOD     C111732  25.681  15.354   0.320 -0.1664 -0.2301 -0.1230
55971DOD     C211733  26.078  15.419   0.550  0.0708 -0.1229  0.0221
55971DOD     C311734  26.318  15.766   0.550 -0.1396 -0.0167  0.0011
55972DOD     C111735   0.109  18.288  22.328 -0.0717  0.1135  0.0202
55972DOD     C211736   0.047  18.732  22.208  0.0479 -0.2123 -0.2094
55972DOD     C311737   0.280  19.164  22.103 -0.0181  0.0710  0.2343
55973DOD     C111738   6.622   7.915  27.006 -0.3313 -0.0980 -0.0403
55973DOD     C211739   6.454   7.794  26.608  0.3106 -0.0989 -0.2092
55973DOD     C311740   6.582   7.673  26.232  0.0333 -0.0339  0.1922
55974DOD     C111741   5.601   5.275  10.353  0.1877 -0.0567  0.1012
55974DOD     C211742   5.916   5.534  10.121  0.1742 -0.1857 -0.0577
55974DOD     C311743   5.878   6.012  10.009  0.3814  0.0915 -0.0830
55975DOD     C111744   1.779  12.810  24.442 -0.1921 -0.2253 -0.1580
55975DOD     C211745   2.130  12.866  24.180 -0.0508 -0.0261 -0.2693
55975DOD     C311746   2.435  13.069  23.872 -0.1474  0.0763  0.1494
55976DOD     C111747  10.032  15.024   4.581  0.2181  0.3792  0.0742
55976DOD     C211748  10.361  14.979   4.855 -0.1178 -0.0168  0.2630
55976DOD     C311749  10.770  14.918   5.085 -0.1474 -0.1964 -0.3171
55977DOD     C111750  27.449   5.635  28.379 -0.0486 -0.1333  0.1362
55977DOD     C211751  27.435   5.157  28.225 -0.0722  0.0118 -0.3425
55977DOD     C311752  27.521   4.894  27.860 -0.0399 -0.1513  0.0652
55978DOD     C111753  13.126  24.400   5.508 -0.2595  0.1888 -0.0598
55978DOD     C211754  13.238  24.520   5.954  0.0497 -0.0412 -0.1350
55978DOD     C311755  13.353  25.001   6.094 -0.1615  0.0870 -0.3904
55979DOD     C111756  29.674  29.048  20.372  0.1121  0.1191 -0.0757
55979DOD     C211757  29.424  28.918  20.771 -0.1179 -0.1000  0.2395
55979DOD     C311758  29.397  28.578  21.107 -0.1158  0.1919 -0.0613
55980DOD     C111759  12.745  14.894  27.892 -0.0244  0.0258  0.0345
55980DOD     C211760  12.883  15.270  28.060  0.2151 -0.1774 -0.1560
55980DOD     C311761  13.088  15.690  28.212  0.0610  0.3043 -0.1393
55981DOD     C111762   6.089  29.368  30.068  0.0515 -0.1445 -0.0108
55981DOD     C211763   6.490  29.407  30.304 -0.2683  0.2508  0.1298
55981DOD     C311764   6.624  29.529   0.389 -0.0834  0.1362  0.2096
55982DOD     C111765   4.968   0.432   3.635 -0.0998 -0.0848 -0.0659
55982DOD     C211766   4.618   0.206   3.477  0.1911  0.3181  0.0985
55982DOD     C311767   4.551  30.126   3.249 -0.2190  0.2761 -0.1207
55983DOD     C111768  28.221  27.409  28.508  0.0369  0.1356  0.1426
55983DOD     C211769  28.236  27.542  28.974  0.1956 -0.0653 -0.0386
55983DOD     C311770  28.438  27.806  29.296 -0.0950  0.0329  0.1185
55984DOD     C111771  25.567   2.093  25.798 -0.1164 -0.0051  0.3692
55984DOD     C211772  25.293   2.471  25.703  0.3533 -0.1034  0.0624
55984DOD     C311773  25.341   2.914  25.798 -0.0479 -0.1546 -0.0713
55985DOD     C111774   9.797  15.575  10.693  0.1502  0.1135 -0.2386
55985DOD     C211775  10.035  15.337  11.079  0.2407  0.0369  0.1080
55985DOD     C311776  10.262  14.963  10.977 -0.3214  0.1745 -0.2383
55986DOD     C111777   7.388  17.427   5.470  0.0518 -0.2124 -0.0692
55986DOD     C211778   7.359  17.044   5.689  0.1586  0.0349  0.2210
55986DOD     C311779   7.455  16.773   6.025  0.0074 -0.2130 -0.2409
55987DOD     C111780  16.326  13.645   6.893 -0.1539  0.2238  0.1542
55987DOD     C211781  15.964  13.336   7.046  0.2343 -0.1408  0.0659
55987DOD     C311782  15.669  13.131   7.394 -0.2309  0.0011  0.4272
55988DOD     C111783   1.785  14.251  22.119 -0.1220  0.0436  0.1204
55988DOD     C211784   1.900  14.208  22.508 -0.0529 -0.0434 -0.1711
55988DOD     C311785   1.880  14.291  22.988 -0.0382 -0.0262 -0.1911
55989DOD     C111786   0.834  18.513  16.074 -0.1248 -0.0453  0.1533
55989DOD     C211787   0.450  18.328  15.870  0.0357 -0.3097  0.0401
55989DOD     C311788   0.013  18.121  15.692  0.1485 -0.0650 -0.0544
55990DOD     C111789   7.539   1.855   5.459 -0.0274 -0.0163 -0.0037
55990DOD     C211790   7.535   1.738   5.925 -0.1479 -0.1473 -0.0287
55990DOD     C311791   7.253   1.666   6.339 -0.2008 -0.1394  0.1117
55991DOD     C111792  30.210   8.754  11.229 -0.0238 -0.1270 -0.1423
55991DOD     C211793  30.005   8.369  11.456  0.1730  0.1776 -0.0276
55991DOD     C311794  29.879   8.234  11.935  0.0915  0.0542 -0.1471
55992DOD     C111795  22.011   7.226  11.639 -0.0859  0.1008  0.1258
55992DOD     C211796  22.111   7.622  11.768 -0.0221 -0.3439  0.1105
55992DOD     C311797  21.990   7.935  11.507 -0.1718  0.1409  0.0742
55993DOD     C111798   5.610   8.173  15.701  0.0708 -0.1907  0.0465
55993DOD     C211799   5.998   8.056  15.648 -0.2415  0.2025 -0.2845
55993DOD     C311800   6.424   8.117  15.458 -0.1680 -0.0463  0.1848
55994DOD     C111801  16.591  21.356  13.822 -0.0525  0.1171  0.2666
55994DOD     C211802  16.455  21.047  14.101  0.3959 -0.0897 -0.2049
55994DOD     C311803  16.406  20.905  14.517  0.1053 -0.4188  0.2123
55995DOD     C111804  26.702  14.483  30.054  0.2597  0.1068 -0.0248
55995DOD     C211805  26.341  14.244  29.963  0.2511 -0.2737  0.2333
55995DOD     C311806  25.997  13.925  30.159 -0.0581 -0.0358  0.2753
55996DOD     C111807  16.376   6.529  26.719 -0.0833 -0.0204  0.0347
55996DOD     C211808  16.758   6.365  26.581 -0.0943 -0.2405  0.0272
55996DOD     C311809  17.171   6.154  26.513  0.1417 -0.0369 -0.0644
55997DOD     C111810  15.016   6.896  18.207  0.2233  0.0296  0.0734
55997DOD     C211811  15.426   6.820  17.964  0.0758 -0.4871 -0.0355
55997DOD     C311812  15.737   6.672  17.704  0.1736 -0.0111 -0.0070
55998DOD     C111813  15.904  23.651   2.495 -0.0071 -0.1436 -0.1708
55998DOD     C211814  15.576  23.429   2.752  0.1744 -0.1220 -0.2772
55998DOD     C311815  15.163  23.295   2.752 -0.3073 -0.6811  0.0987
55999DOD     C111816  13.601  19.651  24.806 -0.3464  0.6260  0.0281
55999DOD     C211817  14.013  19.653  25.017 -0.1412 -0.4386  0.0428
55999DOD     C311818  14.322  19.891  25.260 -0.1346  0.1020 -0.0254
56000DOD     C111819   7.486  21.303  30.034  0.0099  0.0304  0.1893
56000DOD     C211820   7.484  21.176  29.553 -0.0054  0.0318 -0.1793
56000DOD     C311821   7.236  21.152  29.146 -0.1453  0.0842  0.0168
56001DOD     C111822   6.831  24.118   0.968  0.1989 -0.0897 -0.1702
56001DOD     C211823   6.450  24.168   0.607 -0.3348  0.0331 -0.1647
56001DOD     C311824   6.097  24.366   0.708  0.1751 -0.0752  0.1103
56002DOD     C111825  28.941   4.239   7.340 -0.4738  0.0586 -0.1634
56002DOD     C211826  28.578   4.283   7.114 -0.0307  0.0287  0.2248
56002DOD     C311827  28.178   4.470   7.006 -0.3388  0.0848 -0.0496
56003DOD     C111828   0.736   2.194  13.798 -0.0942 -0.0995 -0.0692
56003DOD     C211829   0.950   2.436  14.047  0.2553 -0.0656 -0.0977
56003DOD     C311830   1.367   2.501  13.921 -0.0749 -0.1642  0.5242
56004DOD     C111831  15.495  20.028  13.299  0.0193  0.0839  0.0287
56004DOD     C211832  15.911  19.949  13.278 -0.0671 -0.1815  0.3787
56004DOD     C311833  16.330  20.132  13.163 -0.0974  0.0247  0.1913
56005DOD     C111834   6.375   4.017  17.954  0.2919  0.0586 -0.1876
56005DOD     C211835   6.095   4.380  18.145  0.0185 -0.1438 -0.0320
56005DOD     C311836   6.282   4.760  18.383 -0.0966  0.1844 -0.3147
56006DOD     C111837  27.506   9.672   8.188  0.1216  0.0870 -0.2822
56006DOD     C211838  27.542   9.702   8.672 -0.2357  0.2567  0.1970
56006DOD     C311839  27.368  10.045   8.942 -0.1706 -0.3098  0.0466
56007DOD     C111840   7.621  15.857  25.948  0.5480 -0.1803  0.1454
56007DOD     C211841   7.967  15.830  26.253 -0.1156 -0.1798 -0.1699
56007DOD     C311842   8.159  15.791  26.700  0.0395 -0.1058  0.2560
56008DOD     C111843  14.756  22.925  11.458 -0.0908  0.2755 -0.2309
56008DOD     C211844  14.618  23.317  11.284 -0.2037 -0.2488 -0.3053
56008DOD     C311845  14.285  23.679  11.154 -0.1231  0.0256 -0.0018
56009DOD     C111846  10.503  11.134  29.635  0.1031  0.1116 -0.0396
56009DOD     C211847  10.128  11.275  29.350  0.1344 -0.0808 -0.0672
56009DOD     C311848   9.697  11.450  29.243  0.3449 -0.0287 -0.1494
56010DOD     C111849  25.407   5.799  28.311  0.0130  0.3737  0.1478
56010DOD     C211850  25.422   6.118  27.922  0.0315 -0.0144 -0.2774
56010DOD     C311851  25.364   6.590  27.785 -0.1073 -0.0818  0.0122
56011DOD     C111852   7.617  16.680   1.923 -0.2410  0.0370  0.0365
56011DOD     C211853   7.565  16.220   1.800  0.0378 -0.0358  0.2750
56011DOD     C311854   7.497  15.705   1.887 -0.0659 -0.3336  0.0141
56012DOD     C111855   9.866  28.058   5.905 -0.0118 -0.0436 -0.0637
56012DOD     C211856  10.134  27.811   6.160  0.2013  0.1420  0.2658
56012DOD     C311857  10.493  27.978   6.460 -0.3573 -0.1696  0.1854
56013DOD     C111858  11.152   3.334   6.370  0.1085 -0.1223  0.0575
56013DOD     C211859  11.114   3.777   6.407 -0.0274  0.1155 -0.0904
56013DOD     C311860  10.913   4.197   6.470  0.2540 -0.2256 -0.3190
56014DOD     C111861  28.219   4.846  28.389 -0.0341 -0.0587 -0.2216
56014DOD     C211862  27.811   4.814  28.364 -0.0439 -0.1134  0.1017
56014DOD     C311863  27.398   4.873  28.686 -0.1053  0.3708  0.0514
56015DOD     C111864   3.816   8.183   0.681 -0.2997 -0.2066 -0.2103
56015DOD     C211865   4.218   8.469   0.750  0.1050  0.0104 -0.0445
56015DOD     C311866   4.690   8.550   0.681 -0.2233 -0.1237 -0.0201
56016DOD     C111867  12.203  11.357   6.856  0.0929 -0.1030  0.0863
56016DOD     C211868  12.647  11.343   6.956 -0.0342  0.3157 -0.0280
56016DOD     C311869  12.991  11.306   6.701 -0.0792  0.0292  0.1528
56017DOD     C111870  15.634  24.661  10.338  0.0765 -0.2296 -0.0274
56017DOD     C211871  15.254  24.654  10.645  0.1259  0.0605  0.1138
56017DOD     C311872  14.795  24.546  10.762 -0.1808 -0.1831 -0.1287
56018DOD     C111873   5.413   9.045  22.414 -0.2382  0.2014  0.1054
56018DOD     C211874   5.703   8.640  22.323 -0.0642  0.2460 -0.0769
56018DOD     C311875   5.648   8.399  21.941  0.1663  0.1814 -0.0299
56019DOD     C111876  26.227  12.538  20.167 -0.3057  0.0060  0.0561
56019DOD     C211877  25.962  12.177  20.242  0.0995 -0.0634 -0.3490
56019DOD     C311878  26.134  11.787  20.348  0.3407  0.0335 -0.0342
56020DOD     C111879  17.483   9.026  29.193 -0.0012 -0.0661  0.0505
56020DOD     C211880  17.580   9.169  28.740 -0.2322  0.0439 -0.1375
56020DOD     C311881  17.355   9.463  28.469  0.3046 -0.1230 -0.0722
56021DOD     C111882   5.891  12.603   5.981 -0.0705  0.2034 -0.1850
56021DOD     C211883   6.004  12.126   5.891 -0.2062  0.0783  0.2159
56021DOD     C311884   6.241  11.768   5.899  0.3036 -0.2414 -0.0752
56022DOD     C111885  27.853   2.618  17.441 -0.0517 -0.1607  0.1693
56022DOD     C211886  27.892   2.948  17.758 -0.1434  0.1517  0.2080
56022DOD     C311887  27.811   2.787  18.205 -0.2020  0.1526 -0.0237
56023DOD     C111888   2.669   7.106   6.064 -0.1908 -0.0294 -0.1944
56023DOD     C211889   2.441   6.766   5.813  0.0400 -0.0343 -0.1031
56023DOD     C311890   2.166   6.407   5.675  0.2863 -0.0805  0.2368
56024DOD     C111891  25.525  22.912   0.401  0.1345 -0.0808 -0.0654
56024DOD     C211892  25.239  23.251   0.445 -0.0140  0.0479  0.0122
56024DOD     C311893  24.921  23.542   0.293  0.0403  0.1087 -0.0135
56025DOD     C111894  13.913   4.688   1.428 -0.1167 -0.2438  0.2009
56025DOD     C211895  14.158   4.766   1.052  0.1674 -0.1247 -0.0061
56025DOD     C311896  14.314   5.158   0.824  0.1746 -0.2262  0.0073
56026DOD     C111897   4.162   4.636  10.015  0.2892  0.0574 -0.1353
56026DOD     C211898   4.499   4.773  10.288 -0.1721  0.0281 -0.1629
56026DOD     C311899   4.937   4.996  10.247  0.2195 -0.1590 -0.1421
56027DOD     C111900   6.390  21.631   8.518 -0.0107  0.1506 -0.0426
56027DOD     C211901   6.308  21.584   8.070  0.3563  0.0496 -0.0202
56027DOD     C311902   6.149  21.604   7.600  0.0124 -0.2725 -0.0062
56028DOD     C111903  29.087   4.415  11.638 -0.0501  0.0645 -0.1980
56028DOD     C211904  29.379   4.777  11.750  0.3523  0.0183  0.2161
56028DOD     C311905  29.620   5.160  11.695 -0.1822 -0.1643 -0.0150
56029DOD     C111906  19.338  28.450   5.932  0.1096  0.0720  0.2334
56029DOD     C211907  19.539  28.064   5.834 -0.0842  0.0316  0.5306
56029DOD     C311908  19.407  27.605   5.729 -0.2297  0.0961 -0.1109
56030DOD     C111909  10.218  29.528  19.641  0.0538 -0.0469 -0.0160
56030DOD     C211910  10.514  29.847  19.592 -0.2986  0.2353  0.0371
56030DOD     C311911  10.643  30.168  19.876  0.1419 -0.1541  0.1319
56031DOD     C111912   8.874   0.656   6.189 -0.1165 -0.2278 -0.1344
56031DOD     C211913   8.630   0.616   6.551  0.1726  0.0484 -0.2440
56031DOD     C311914   8.190   0.555   6.590 -0.0842  0.2381  0.0308
56032DOD     C111915  25.667  18.492  12.660  0.0880  0.0580  0.0701
56032DOD     C211916  25.766  18.876  12.971 -0.1273  0.0548  0.1703
56032DOD     C311917  26.028  19.132  13.273  0.6345 -0.1133 -0.0902
56033DOD     C111918   8.903   4.896  28.233 -0.2263  0.0998  0.3149
56033DOD     C211919   8.468   4.867  28.065  0.5093 -0.0115 -0.0023
56033DOD     C311920   8.059   4.671  28.161  0.1912 -0.0624 -0.1997
56034DOD     C111921   2.797   3.717  16.273 -0.2422 -0.1538 -0.1660
56034DOD     C211922   2.801   3.501  15.875 -0.4439 -0.1736  0.0546
56034DOD     C311923   2.728   3.331  15.456  0.2955 -0.1146 -0.1795
56035DOD     C111924  25.681   5.937  14.144  0.0688 -0.3432 -0.1950
56035DOD     C211925  25.865   6.058  14.539 -0.2549 -0.0080  0.0952
56035DOD     C311926  26.114   6.028  14.912 -0.3346  0.4057 -0.0571
56036DOD     C111927   7.896  18.078  22.763  0.0616  0.5493  0.0805
56036DOD     C211928   7.650  18.350  22.526 -0.2717  0.0572 -0.0350
56036DOD     C311929   7.390  18.723  22.431  0.0406  0.0297  0.2339
56037DOD     C111930   2.870   2.733  17.761  0.2319 -0.2159  0.2226
56037DOD     C211931   2.739   3.143  17.824 -0.2121  0.1937 -0.1445
56037DOD     C311932   2.449   3.448  17.710  0.3584  0.0585  0.3870
56038DOD     C111933  21.560   1.585  28.222 -0.0624  0.1357  0.1262
56038DOD     C211934  21.169   1.713  28.377 -0.3249 -0.1577 -0.1634
56038DOD     C311935  20.759   1.924  28.372 -0.2616  0.3384  0.2894
56039DOD     C111936  15.120   5.675  21.445  0.1948  0.1972  0.0916
56039DOD     C211937  15.010   5.355  21.094  0.1896 -0.0339  0.0083
56039DOD     C311938  15.154   5.485  20.702  0.0193 -0.0589 -0.1368
56040DOD     C111939  28.601   5.541  27.229  0.1361 -0.0807 -0.1953
56040DOD     C211940  29.083   5.578  27.283  0.5174  0.2001 -0.2422
56040DOD     C311941  29.491   5.508  27.047 -0.1396 -0.3838 -0.3483
56041DOD     C111942  20.573  23.624   3.866  0.1081 -0.1222  0.0758
56041DOD     C211943  20.472  23.762   4.342 -0.0573  0.1432 -0.0680
56041DOD     C311944  20.183  23.733   4.675  0.0984 -0.1553 -0.0917
56042DOD     C111945   0.166  28.790  13.632 -0.1552 -0.1507  0.0656
56042DOD     C211946   0.415  28.453  13.404  0.0015  0.0192  0.2536
56042DOD     C311947   0.627  28.331  13.050  0.2615 -0.1690  0.1386
56043DOD     C111948  22.722   7.511   4.484  0.0349  0.0097  0.3094
56043DOD     C211949  22.662   7.655   4.069  0.1378 -0.2473  0.2874
56043DOD     C311950  22.703   8.069   3.787 -0.1653  0.2025 -0.2642
56044DOD     C111951   3.189  12.823   5.421  0.2791 -0.2443 -0.1523
56044DOD     C211952   3.326  13.201   5.309 -0.1441 -0.0942  0.1501
56044DOD     C311953   3.134  13.634   5.234  0.1937 -0.3024  0.3367
56045DOD     C111954  16.867   2.854   9.634  0.0304  0.3910 -0.0063
56045DOD     C211955  17.199   2.533   9.697 -0.2206  0.0301  0.0428
56045DOD     C311956  17.588   2.245   9.603  0.0945  0.1231  0.2102
56046DOD     C111957  10.568  12.910  17.785  0.1346 -0.2980  0.1593
56046DOD     C211958  10.850  12.628  17.493 -0.3070 -0.2114  0.2325
56046DOD     C311959  10.818  12.583  16.991 -0.0105 -0.0789  0.2512
56047DOD     C111960  26.431  24.770  10.289 -0.1255  0.1534 -0.0991
56047DOD     C211961  26.293  24.347  10.554 -0.1757  0.0010  0.0542
56047DOD     C311962  26.295  24.049  10.913  0.1680 -0.1002 -0.0223
56048DOD     C111963  26.249  26.045  10.115 -0.1602  0.0593 -0.1294
56048DOD     C211964  25.940  26.186  10.395  0.0238  0.0301 -0.1174
56048DOD     C311965  25.511  26.327  10.562 -0.1067  0.0704 -0.1553
56049DOD     C111966  10.124  19.780  19.951 -0.0524 -0.1377  0.0573
56049DOD     C211967  10.308  19.370  19.937  0.1848  0.1358 -0.1610
56049DOD     C311968  10.284  19.041  19.626  0.0411  0.0485  0.0664
56050DOD     C111969  26.471  19.394   3.556  0.0427  0.3042 -0.1489
56050DOD     C211970  26.462  19.767   3.318  0.1692  0.1782 -0.0802
56050DOD     C311971  26.133  19.888   2.985 -0.3280  0.2908  0.1238
56051DOD     C111972  17.812  21.605   8.276 -0.1145  0.0362  0.0221
56051DOD     C211973  17.964  22.028   8.401  0.0231  0.1409 -0.1619
56051DOD     C311974  18.266  22.326   8.577 -0.0439  0.1475 -0.0825
56052DOD     C111975  26.429  15.181   5.003 -0.3637  0.3091 -0.1709
56052DOD     C211976  26.138  15.567   4.942  0.1247 -0.0419  0.0759
56052DOD     C311977  26.317  15.928   5.020 -0.2838 -0.0044  0.0425
56053DOD     C111978  26.486  26.096  15.249 -0.1295  0.0839  0.2198
56053DOD     C211979  26.092  26.202  15.390  0.1422 -0.3627 -0.1450
56053DOD     C311980  25.705  26.061  15.633  0.1428 -0.1847 -0.1694
56054DOD     C111981   7.798  28.471  24.213 -0.1650  0.1800 -0.0714
56054DOD     C211982   7.518  28.771  24.383  0.0385  0.0875  0.2195
56054DOD     C311983   7.205  29.107  24.255 -0.0294 -0.0411 -0.0721
56055DOD     C111984  11.841   5.008  13.829  0.0264 -0.1140  0.1169
56055DOD     C211985  12.098   5.293  14.176  0.2265 -0.2880 -0.0567
56055DOD     C311986  12.033   5.655  14.427 -0.1359 -0.0086 -0.1930
56056DOD     C111987   3.617  22.435   8.024 -0.2242 -0.3759 -0.0882
56056DOD     C211988   3.500  21.998   7.997  0.2626  0.0986  0.2994
56056DOD     C311989   3.036  22.040   7.907 -0.0009  0.0113  0.3364
56057DOD     C111990  25.226   5.458  13.751 -0.5393 -0.0194 -0.2189
56057DOD     C211991  24.858   5.114  13.713  0.0119  0.0738 -0.3214
56057DOD     C311992  24.952   4.636  13.703  0.2760 -0.0494  0.0502
56058DOD     C111993  12.991   1.602   2.791 -0.1627 -0.1092  0.0205
56058DOD     C211994  13.292   1.297   2.747  0.0993  0.3208 -0.0118
56058DOD     C311995  13.740   1.171   2.862  0.2390 -0.0386  0.3537
56059DOD     C111996  12.569  15.656  19.069 -0.0379  0.1265  0.0555
56059DOD     C211997  12.186  15.482  19.356  0.0857  0.1073  0.1792
56059DOD     C311998  11.719  15.491  19.298 -0.2823 -0.0904  0.3364
56060DOD     C111999   6.911  15.021  15.635 -0.1117 -0.0457  0.1112
56060DOD     C212000   7.377  15.150  15.823 -0.0174  0.1304  0.2211
56060DOD     C312001   7.772  15.345  15.784 -0.1271 -0.2112  0.4864
56061DOD     C112002  10.651  26.635   6.484 -0.0286  0.0595  0.1315
56061DOD     C212003  10.391  26.721   6.088 -0.0115  0.1198  0.1694
56061DOD     C312004  10.211  26.533   5.740 -0.0941  0.1926  0.1361
56062DOD     C112005  27.426  26.215  19.268 -0.0409 -0.2850  0.1832
56062DOD     C212006  27.022  25.972  19.233  0.4778  0.1536 -0.2516
56062DOD     C312007  26.666  25.898  18.929 -0.0189 -0.1017 -0.3180
56063DOD     C112008  25.258   2.958  23.315 -0.1570 -0.3251 -0.1308
56063DOD     C212009  25.575   2.617  23.320 -0.2582  0.0218 -0.0838
56063DOD     C312010  25.887   2.300  23.360 -0.1198  0.0564  0.0660
56064DOD     C112011  17.873   1.675  25.866  0.1698 -0.4827 -0.1390
56064DOD     C212012  17.973   1.295  26.100  0.2496 -0.1701  0.2010
56064DOD     C312013  18.204   1.014  26.386 -0.1677 -0.0037 -0.0221
56065DOD     C112014  18.190   4.869  22.888  0.2877 -0.0236  0.1989
56065DOD     C212015  18.427   4.533  22.671  0.1626  0.2076  0.1947
56065DOD     C312016  18.503   4.153  22.397  0.0127  0.0147 -0.1056
56066DOD     C112017  18.329  21.097   0.176 -0.4829  0.3479  0.1040
56066DOD     C212018  18.116  20.701   0.068 -0.2940  0.1836 -0.0219
56066DOD     C312019  17.726  20.476   0.116  0.3485 -0.2561 -0.2002
56067DOD     C112020  12.792  24.586  19.618  0.0320 -0.1194 -0.0262
56067DOD     C212021  12.349  24.372  19.724  0.2273 -0.4856  0.3012
56067DOD     C312022  12.040  24.488  20.069  0.0859 -0.0385  0.1377
56068DOD     C112023   4.667  30.115  25.992  0.2904 -0.2213 -0.4292
56068DOD     C212024   4.504  29.685  25.957  0.0142  0.3674  0.4102
56068DOD     C312025   4.445  29.305  26.243  0.2393 -0.0557  0.0002
56069DOD     C112026   9.164  22.603  16.348  0.0251  0.1442  0.1758
56069DOD     C212027   9.250  22.194  16.206  0.0483  0.2137 -0.2674
56069DOD     C312028   9.410  21.679  16.189 -0.1044 -0.0118  0.1519
56070DOD     C112029  27.124   3.841   5.680 -0.1897 -0.1697  0.0119
56070DOD     C212030  26.824   3.812   6.040 -0.0837  0.1285 -0.0088
56070DOD     C312031  26.635   3.709   6.453 -0.0201 -0.4099 -0.2855
56071DOD     C112032   8.916  17.794   8.109 -0.1642 -0.0012 -0.0011
56071DOD     C212033   8.614  18.132   7.964  0.0619 -0.0771 -0.1727
56071DOD     C312034   8.218  18.282   8.155  0.2741  0.1390 -0.2318
56072DOD     C112035  29.682   1.510  16.426  0.0752 -0.0390 -0.0476
56072DOD     C212036  29.535   1.053  16.332 -0.2003 -0.0546  0.3567
56072DOD     C312037  29.659   0.722  15.977  0.1597 -0.0589  0.1818
56073DOD     C112038   0.362   9.435   8.443  0.3116  0.0087 -0.1173
56073DOD     C212039   0.693   9.215   8.234 -0.3281  0.0905 -0.2364
56073DOD     C312040   1.118   9.097   8.133 -0.4109 -0.2118  0.0854
56074DOD     C112041  15.268   3.293   6.270 -0.0923 -0.0431  0.0538
56074DOD     C212042  15.012   3.674   6.462  0.1871  0.1449 -0.1727
56074DOD     C312043  14.659   3.884   6.700  0.0321 -0.1660 -0.3389
56075DOD     C112044  27.299  13.992  24.323 -0.2542 -0.2148  0.1515
56075DOD     C212045  27.556  13.995  24.748 -0.0481  0.0529  0.1353
56075DOD     C312046  27.740  13.773  25.095 -0.2181 -0.0008 -0.0529
56076DOD     C112047  17.387  26.327   5.248 -0.0748  0.1287 -0.3249
56076DOD     C212048  17.484  26.221   4.829 -0.1312  0.0444  0.0724
56076DOD     C312049  17.195  26.321   4.456  0.0548 -0.3521  0.0620
56077DOD     C112050  29.062  22.140   8.247 -0.0547 -0.0801  0.1918
56077DOD     C212051  29.112  21.996   7.814  0.3335  0.3465 -0.0822
56077DOD     C312052  28.842  21.754   7.567 -0.0608  0.2808  0.2240
56078DOD     C112053  18.097  15.974   5.690 -0.2150 -0.3480 -0.3641
56078DOD     C212054  18.228  16.311   5.384  0.0156 -0.0133 -0.1460
56078DOD     C312055  18.403  16.666   5.080 -0.0509  0.1842  0.1131
56079DOD     C112056   7.319  23.816  23.809 -0.1189 -0.1508  0.1412
56079DOD     C212057   7.745  23.903  23.621  0.1222  0.2257 -0.4129
56079DOD     C312058   8.111  23.798  23.351  0.1455  0.2696 -0.1657
56080DOD     C112059  22.273   1.480   4.666  0.0186 -0.2682  0.2150
56080DOD     C212060  22.033   1.910   4.647 -0.0720 -0.1275  0.1371
56080DOD     C312061  21.723   2.288   4.732  0.0985  0.1769  0.0999
56081DOD     C112062  18.634  24.524  30.329 -0.1080  0.0130  0.1804
56081DOD     C212063  18.741  24.966   0.011  0.1784 -0.1530 -0.3183
56081DOD     C312064  18.873  25.400   0.059  0.0009  0.0922  0.0054
56082DOD     C112065   2.149  25.912  21.659 -0.0518 -0.2071  0.1017
56082DOD     C212066   1.838  25.634  21.479  0.0402 -0.0772  0.0069
56082DOD     C312067   1.817  25.331  21.136  0.1235 -0.1904 -0.1322
56083DOD     C112068  29.550  23.840  13.364  0.3309 -0.1006  0.0527
56083DOD     C212069  29.062  23.803  13.393  0.2513  0.1395 -0.7280
56083DOD     C312070  28.601  23.754  13.326 -0.1432  0.0055  0.2109
56084DOD     C112071  15.840   5.299  29.173  0.1294  0.1345  0.0442
56084DOD     C212072  15.624   5.148  28.829 -0.2643 -0.3641  0.3485
56084DOD     C312073  15.516   4.958  28.402  0.3462  0.1165  0.0917
56085DOD     C112074  28.839  12.655   9.307  0.2088  0.0351  0.0659
56085DOD     C212075  29.038  12.744   8.947  0.0345  0.1910 -0.2147
56085DOD     C312076  29.092  12.895   8.442 -0.1028 -0.0543 -0.0112
56086DOD     C112077   4.203  26.264  19.863  0.1207 -0.0325  0.2967
56086DOD     C212078   4.601  26.369  19.663 -0.0087  0.2396 -0.0240
56086DOD     C312079   4.888  26.592  19.385  0.0822  0.0792  0.0584
56087DOD     C112080  21.313  28.048  25.949  0.3478  0.1084 -0.0040
56087DOD     C212081  21.493  28.359  26.278 -0.1849 -0.1005 -0.1688
56087DOD     C312082  21.790  28.451  26.634  0.1622  0.0764  0.3266
56088DOD     C112083  14.548   8.561  22.586  0.0261 -0.1011 -0.1230
56088DOD     C212084  14.506   9.028  22.683 -0.0289  0.0443  0.5923
56088DOD     C312085  14.479   9.272  23.088  0.0348 -0.0264  0.1730
56089DOD     C112086  14.242  13.268   0.880 -0.1223  0.0995 -0.2167
56089DOD     C212087  14.688  13.034   0.979  0.1697  0.1328  0.1997
56089DOD     C312088  14.975  13.286   1.251 -0.0794 -0.0392 -0.2785
56090DOD     C112089   7.384  19.918  10.708  0.2677 -0.1034  0.4619
56090DOD     C212090   6.975  20.051  10.490 -0.1125 -0.0063  0.1334
56090DOD     C312091   6.494  20.032  10.355 -0.2719 -0.2547 -0.4125
56091DOD     C112092   7.425  25.788  20.801  0.1007 -0.2594  0.1065
56091DOD     C212093   7.044  25.712  20.954  0.0520 -0.0162 -0.0484
56091DOD     C312094   6.630  25.492  20.937 -0.1873 -0.0827  0.4521
56092DOD     C112095  28.563  10.917   9.151  0.4006  0.2096 -0.1732
56092DOD     C212096  28.881  11.021   8.825  0.0139 -0.0721 -0.2309
56092DOD     C312097  29.014  11.342   8.511 -0.3142 -0.1406  0.2250
56093DOD     C112098   5.818  21.531   0.125 -0.3166  0.0114  0.3540
56093DOD     C212099   6.193  21.283   0.323  0.0257  0.1903 -0.1885
56093DOD     C312100   6.638  21.419   0.408 -0.0591 -0.2538 -0.1845
56094DOD     C112101  22.366  20.619   3.796 -0.0740  0.2479 -0.1962
56094DOD     C212102  22.403  20.156   3.852  0.0886 -0.0580 -0.0841
56094DOD     C312103  22.507  19.732   3.701  0.1358  0.2193  0.4646
56095DOD     C112104  26.491  27.264  22.470  0.0729  0.1309  0.1876
56095DOD     C212105  26.528  26.986  22.125  0.1821 -0.1461  0.0149
56095DOD     C312106  26.675  26.506  22.105  0.0184 -0.0163  0.1066
56096DOD     C112107  10.399   2.989   9.091  0.2874 -0.0598 -0.0472
56096DOD     C212108  10.030   2.905   9.318 -0.0297 -0.2093 -0.2059
56096DOD     C312109   9.526   2.865   9.318 -0.0736  0.0538  0.1050
56097DOD     C112110  16.768  28.102   3.922  0.0068 -0.1686 -0.0397
56097DOD     C212111  16.526  28.125   3.582 -0.2132  0.1565 -0.0624
56097DOD     C312112  16.039  28.120   3.556 -0.1760  0.2867 -0.2538
56098DOD     C112113  12.011  16.882  15.854  0.2813 -0.1290  0.1731
56098DOD     C212114  12.186  16.776  16.299  0.0278  0.0362 -0.0232
56098DOD     C312115  12.227  16.689  16.814  0.0780 -0.0778  0.1347
56099DOD     C112116   1.524  11.911   7.495  0.0683 -0.3083  0.0447
56099DOD     C212117   1.748  11.807   7.098  0.2459  0.1172 -0.2286
56099DOD     C312118   2.201  11.728   7.027 -0.3680  0.4285 -0.0057
56100DOD     C112119  11.999  24.741  21.574  0.2894 -0.1500  0.3177
56100DOD     C212120  12.049  25.155  21.364 -0.1698  0.0489  0.1550
56100DOD     C312121  12.111  25.575  21.129 -0.0737 -0.1650  0.0267
56101DOD     C112122  18.852   7.906  19.842  0.2414 -0.1432  0.1976
56101DOD     C212123  18.425   8.067  19.902  0.1172  0.0940  0.0779
56101DOD     C312124  18.177   8.375  20.153  0.0179 -0.0507  0.0267
56102DOD     C112125   9.980   5.063   2.867 -0.3247 -0.1119 -0.6202
56102DOD     C212126  10.154   4.664   2.753  0.2108 -0.2719  0.1916
56102DOD     C312127  10.441   4.352   2.862 -0.1369  0.2767  0.5432
56103DOD     C112128   0.344  21.912  25.678 -0.1294 -0.0026 -0.2996
56103DOD     C212129   0.235  22.363  25.854  0.0737  0.1141 -0.1202
56103DOD     C312130  30.245  22.728  25.807  0.0342  0.1108  0.2799
56104DOD     C112131  17.881  20.526  16.692 -0.0146  0.0162  0.0717
56104DOD     C212132  18.045  20.958  16.465 -0.1916  0.2174 -0.1801
56104DOD     C312133  18.334  20.984  16.143 -0.0511 -0.0671 -0.0031
56105DOD     C112134  10.941   5.949   9.149 -0.0445  0.1473  0.0476
56105DOD     C212135  10.560   5.890   8.904  0.0475 -0.0949 -0.3689
56105DOD     C312136  10.374   6.295   8.644 -0.0699 -0.0326  0.1388
56106DOD     C112137  28.094  18.326  13.890  0.0412 -0.1292 -0.2601
56106DOD     C212138  27.817  17.977  13.756  0.0446  0.2447 -0.1705
56106DOD     C312139  27.481  17.688  13.585 -0.2612 -0.2175  0.0812
56107DOD     C112140  13.985  27.170  15.577  0.0870 -0.0762 -0.5086
56107DOD     C212141  13.919  26.748  15.509  0.0067  0.0049  0.1465
56107DOD     C312142  13.637  26.389  15.451  0.0980 -0.0715 -0.0661
56108DOD     C112143  18.042  11.182   0.297 -0.0826 -0.1282  0.2428
56108DOD     C212144  17.666  10.997   0.074 -0.2827 -0.1254  0.0785
56108DOD     C312145  17.321  11.342   0.061 -0.1720 -0.0858 -0.1895
56109DOD     C112146  29.852  10.749  11.559 -0.4873 -0.0254 -0.1582
56109DOD     C212147  29.585  10.653  11.174 -0.1568  0.0641  0.0617
56109DOD     C312148  29.427  10.434  10.755  0.0781  0.0225  0.2584
56110DOD     C112149  29.335  30.249  22.010 -0.1216 -0.0717  0.0183
56110DOD     C212150  29.724  30.196  21.786 -0.0433 -0.0004  0.1745
56110DOD     C312151  30.072  29.855  21.797  0.0793  0.4954  0.1126
56111DOD     C112152  23.124  27.346  12.142 -0.3099  0.0409 -0.1786
56111DOD     C212153  22.928  27.602  11.806 -0.3037 -0.1891  0.0674
56111DOD     C312154  22.524  27.797  11.642 -0.2518  0.2134  0.2675
56112DOD     C112155  19.583   1.104   8.525  0.0418  0.1379  0.1141
56112DOD     C212156  19.215   1.061   8.830  0.2064 -0.2029 -0.0564
56112DOD     C312157  18.921   0.828   9.044 -0.0837 -0.3787  0.0570
56113DOD     C112158  20.120   3.508  15.385  0.2062  0.1063 -0.0880
56113DOD     C212159  19.903   3.151  15.218 -0.0987 -0.0959  0.0932
56113DOD     C312160  19.937   2.690  15.274  0.2840 -0.2297 -0.2810
56114DOD     C112161  19.910  22.282  23.128 -0.1568  0.2041  0.0038
56114DOD     C212162  20.055  22.716  23.208 -0.1051  0.2890  0.1636
56114DOD     C312163  20.197  23.149  23.136  0.1415 -0.1761 -0.0312
56115DOD     C112164  27.409   5.808   6.477 -0.2679 -0.3151  0.1454
56115DOD     C212165  27.053   5.507   6.343  0.0028  0.4211  0.1953
56115DOD     C312166  26.569   5.311   6.428  0.1479  0.3719 -0.0322
56116DOD     C112167  16.203   6.767  19.832  0.0950  0.1357 -0.1859
56116DOD     C212168  16.631   6.842  19.699 -0.0099  0.1995  0.2823
56116DOD     C312169  17.028   6.921  19.431  0.2724  0.2964 -0.0307
56117DOD     C112170   3.763  23.618  25.021  0.3184 -0.0145  0.1588
56117DOD     C212171   3.604  23.268  24.829  0.1211 -0.1725 -0.2052
56117DOD     C312172   3.617  22.879  24.504  0.2130  0.1337 -0.0079
56118DOD     C112173  25.654   4.818  29.706  0.0230  0.0619  0.0192
56118DOD     C212174  25.943   4.638  30.004  0.1708 -0.0343  0.1074
56118DOD     C312175  26.147   4.503   0.090  0.0662  0.2637  0.0169
56119DOD     C112176  22.491  20.821  24.152  0.2896  0.0071 -0.1192
56119DOD     C212177  22.237  21.138  23.856  0.1178  0.2137 -0.1647
56119DOD     C312178  21.945  21.357  23.500 -0.0635  0.3398  0.1129
56120DOD     C112179   1.727  20.081  21.708  0.2473 -0.0493 -0.1201
56120DOD     C212180   1.439  20.477  21.767  0.1531 -0.0220  0.1007
56120DOD     C312181   1.212  20.831  21.957 -0.3306 -0.1579  0.4748
56121DOD     C112182  25.024  19.775   8.950 -0.4225 -0.0222  0.0286
56121DOD     C212183  24.822  20.161   9.205  0.1035 -0.2286 -0.1839
56121DOD     C312184  24.403  20.227   9.473 -0.4032 -0.1367 -0.1998
56122DOD     C112185  16.023  28.639  14.181 -0.1058  0.1080 -0.0003
56122DOD     C212186  16.095  28.164  14.130 -0.0280 -0.1137 -0.0465
56122DOD     C312187  16.202  27.814  14.408  0.0241 -0.0853 -0.1662
56123DOD     C112188   5.839  21.392  26.278 -0.0564 -0.0315 -0.1385
56123DOD     C212189   5.846  21.115  25.940 -0.0464  0.1844 -0.2672
56123DOD     C312190   6.123  21.079  25.492  0.1177 -0.3212 -0.0971
56124DOD     C112191  14.500  13.789  23.327  0.0374  0.3814  0.1875
56124DOD     C212192  14.689  14.215  23.293  0.0301 -0.1441  0.0290
56124DOD     C312193  14.987  14.450  23.533 -0.3512  0.0385  0.2296
56125DOD     C112194  24.387   0.321   9.583 -0.2617 -0.1135 -0.0850
56125DOD     C212195  24.589   0.690   9.728 -0.0919 -0.0780 -0.1893
56125DOD     C312196  24.516   1.072   9.989  0.1824  0.1255 -0.0123
56126DOD     C112197   5.836  23.542  23.953  0.0581  0.0484 -0.0899
56126DOD     C212198   5.684  23.943  23.730 -0.0439 -0.0059  0.3430
56126DOD     C312199   5.397  24.201  23.478  0.3169 -0.0141  0.3124
56127DOD     C112200  12.470  15.449  20.636  0.1193  0.2392  0.2294
56127DOD     C212201  12.478  15.791  20.336  0.1224 -0.0193  0.1467
56127DOD     C312202  12.270  16.126  20.102 -0.1400 -0.2124  0.0401
56128DOD     C112203  18.905  14.215  15.533  0.0942 -0.0559  0.0005
56128DOD     C212204  18.644  13.868  15.786 -0.2550  0.1414  0.1493
56128DOD     C312205  18.206  13.742  15.746 -0.0206  0.1554  0.0065
56129DOD     C112206  15.343  15.982  23.919 -0.4854  0.1416  0.1921
56129DOD     C212207  15.325  16.455  23.873  0.0884 -0.1251 -0.0095
56129DOD     C312208  15.220  16.961  23.914  0.2753  0.0937  0.0484
56130DOD     C112209  24.720  10.238  22.914 -0.0341 -0.1190 -0.1081
56130DOD     C212210  25.189  10.299  22.884 -0.3068 -0.0725  0.2349
56130DOD     C312211  25.604  10.206  23.042 -0.2251  0.3080  0.2929
56131DOD     C112212  22.947  17.741  22.949  0.4768 -0.3011  0.3544
56131DOD     C212213  23.310  17.837  23.187  0.1406 -0.4604  0.0276
56131DOD     C312214  23.723  18.058  23.264 -0.1344  0.0356  0.3087
56132DOD     C112215  20.829  13.086  13.975 -0.0514  0.0651  0.1609
56132DOD     C212216  20.544  12.738  14.048 -0.0040 -0.2438 -0.1812
56132DOD     C312217  20.245  12.435  13.998 -0.1694 -0.1217  0.2182
56133DOD     C112218  21.341   0.619   9.432 -0.2263  0.0815  0.4406
56133DOD     C212219  20.999   0.789   9.168 -0.0023 -0.1904 -0.3935
56133DOD     C312220  20.751   1.106   8.910 -0.2167  0.1578 -0.0651
56134DOD     C112221  28.967   9.254   9.222 -0.2674 -0.0202 -0.1345
56134DOD     C212222  28.662   8.862   9.256 -0.0686 -0.0232 -0.2816
56134DOD     C312223  28.204   8.809   9.224 -0.2326 -0.2139 -0.0813
56135DOD     C112224   2.366  24.860  13.368 -0.2078  0.1590 -0.0650
56135DOD     C212225   2.301  25.003  13.842  0.1649 -0.0249  0.2636
56135DOD     C312226   2.229  24.825  14.280 -0.2654  0.1809 -0.0298
56136DOD     C112227  18.260   7.439  11.414  0.4179 -0.0722 -0.2655
56136DOD     C212228  18.475   7.030  11.470 -0.0324  0.0209  0.0313
56136DOD     C312229  18.443   6.562  11.502 -0.0391  0.0579  0.0748
56137DOD     C112230  11.170  13.361  24.133 -0.0433  0.1006  0.1352
56137DOD     C212231  11.267  13.452  23.664 -0.1091 -0.1144  0.2911
56137DOD     C312232  11.176  13.383  23.257  0.3132 -0.0107  0.0055
56138DOD     C112233  26.818  23.043  23.527 -0.1014  0.0921  0.0390
56138DOD     C212234  26.526  23.413  23.322  0.1038 -0.1992  0.0265
56138DOD     C312235  26.441  23.891  23.208  0.1640 -0.1957  0.1016
56139DOD     C112236  14.639   8.717  12.950 -0.3206 -0.0107  0.0853
56139DOD     C212237  14.970   8.794  12.665 -0.0743  0.2317 -0.0528
56139DOD     C312238  15.396   8.886  12.540  0.1222 -0.1372 -0.0719
56140DOD     C112239   6.738  19.653   0.406 -0.1679 -0.0875  0.1002
56140DOD     C212240   6.907  19.238   0.645  0.3187  0.2553 -0.0057
56140DOD     C312241   6.806  19.163   1.087  0.0631  0.0066  0.0758
56141DOD     C112242  15.724  12.478  17.566  0.1015 -0.2907  0.1500
56141DOD     C212243  16.129  12.242  17.613 -0.0165 -0.0325 -0.0048
56141DOD     C312244  16.301  11.918  17.898 -0.2272 -0.2014  0.0180
56142DOD     C112245  17.434  17.596   8.844 -0.1538 -0.3284 -0.1017
56142DOD     C212246  17.542  17.397   9.279 -0.0743 -0.2771  0.1294
56142DOD     C312247  17.486  17.077   9.584 -0.1793  0.2137  0.2804
56143DOD     C112248  27.798  28.920  20.176 -0.0862  0.0881  0.0264
56143DOD     C212249  28.231  28.746  20.194  0.1658  0.2555 -0.4769
56143DOD     C312250  28.480  28.399  20.389 -0.0002 -0.1458 -0.1281
56144DOD     C112251   7.000   5.600   5.923 -0.0827 -0.0090 -0.3916
56144DOD     C212252   6.685   5.542   6.300 -0.0715  0.0244  0.1303
56144DOD     C312253   6.829   5.341   6.664 -0.5986 -0.0135  0.3688
56145DOD     C112254   7.220   0.977  20.365 -0.2822 -0.0994  0.1521
56145DOD     C212255   7.136   1.313  20.094  0.2235  0.0138 -0.2043
56145DOD     C312256   6.853   1.435  19.762 -0.2975  0.1367 -0.1570
56146DOD     C112257   7.832  14.919  10.573  0.1654  0.0380 -0.3402
56146DOD     C212258   7.357  14.756  10.531 -0.0561  0.2066 -0.3162
56146DOD     C312259   6.929  14.569  10.497  0.0748  0.3530  0.1818
56147DOD     C112260  29.685  15.610  10.030 -0.1421 -0.1230  0.0508
56147DOD     C212261  29.962  15.849   9.727 -0.0840 -0.0756 -0.3669
56147DOD     C312262   0.029  16.169   9.548 -0.0659  0.1624 -0.1282
56148DOD     C112263  23.160   4.790  23.931 -0.0528 -0.0834 -0.1377
56148DOD     C212264  22.841   5.087  23.856 -0.1684  0.4656 -0.3910
56148DOD     C312265  22.409   5.058  23.895  0.1524 -0.4159  0.0370
56149DOD     C112266  18.443  25.218   7.599 -0.1955  0.3825 -0.1857
56149DOD     C212267  18.138  24.964   7.896  0.2549 -0.1220 -0.0155
56149DOD     C312268  18.027  24.713   8.253 -0.0271  0.0444  0.1672
56150DOD     C112269  27.166   7.334  18.713 -0.0658  0.2248  0.2556
56150DOD     C212270  27.464   7.690  18.673  0.0989  0.3291  0.2570
56150DOD     C312271  27.549   8.087  18.502 -0.1996 -0.0462  0.0107
56151DOD     C112272  12.416   6.578  14.715  0.0575 -0.1966 -0.0783
56151DOD     C212273  12.195   6.651  14.288 -0.1924  0.2598  0.0180
56151DOD     C312274  12.071   6.407  13.926  0.3574  0.1849 -0.3420
56152DOD     C112275  26.422  23.365  26.672 -0.0309  0.2398 -0.1506
56152DOD     C212276  26.021  23.164  26.525 -0.0869  0.0422 -0.0911
56152DOD     C312277  25.812  23.107  26.133 -0.0065 -0.4941 -0.0560
56153DOD     C112278   8.935  27.896   1.724 -0.0879 -0.1545  0.1168
56153DOD     C212279   9.310  27.796   1.533  0.2176 -0.3405  0.0193
56153DOD     C312280   9.561  27.844   1.168 -0.4383 -0.0114 -0.2046
56154DOD     C112281   8.798  11.455   8.426 -0.2105 -0.0821 -0.0262
56154DOD     C212282   8.811  11.200   8.076  0.2187 -0.3064  0.1078
56154DOD     C312283   9.130  10.937   7.852 -0.1159  0.0747 -0.1441
56155DOD     C112284  13.440  27.993  22.726 -0.1439 -0.1949 -0.0080
56155DOD     C212285  13.250  27.620  22.975  0.0118 -0.3303  0.2783
56155DOD     C312286  13.052  27.490  23.381  0.1686  0.1869  0.1324
56156DOD     C112287  30.143   2.598  23.090  0.0162  0.2196  0.1415
56156DOD     C212288   0.120   2.781  22.752  0.2529 -0.0135  0.0178
56156DOD     C312289   0.533   2.818  22.547  0.1760 -0.2154  0.1792
56157DOD     C112290   4.374  23.945  20.300  0.1863 -0.0884  0.0541
56157DOD     C212291   4.519  24.400  20.204 -0.1035 -0.1898  0.0520
56157DOD     C312292   4.381  24.787  19.951  0.1959 -0.0214  0.1564
56158DOD     C112293   0.540   1.530  15.555  0.0807 -0.0691 -0.1760
56158DOD     C212294   0.519   1.932  15.290 -0.0833  0.3353 -0.0026
56158DOD     C312295   0.611   2.362  15.457  0.1120  0.1940  0.0161
56159DOD     C112296  12.486   3.924  12.447  0.0579  0.2451 -0.2248
56159DOD     C212297  12.396   4.121  12.038 -0.4580 -0.0461  0.2565
56159DOD     C312298  12.644   4.492  11.814 -0.2154  0.0539 -0.0397
56160DOD     C112299   2.551   5.960  10.239  0.3132 -0.1627  0.0258
56160DOD     C212300   2.928   5.811  10.337 -0.0016 -0.0109  0.1864
56160DOD     C312301   3.348   5.738  10.486 -0.3528  0.2614 -0.0540
56161DOD     C112302  19.038   6.445  15.372 -0.2050 -0.1693 -0.2810
56161DOD     C212303  18.815   6.840  15.360  0.0357  0.2995 -0.2431
56161DOD     C312304  18.749   7.210  15.091  0.2709 -0.2157 -0.1861
56162DOD     C112305  12.779   2.768   8.804  0.3501 -0.1902  0.2027
56162DOD     C212306  12.518   2.961   8.457  0.1615 -0.1951  0.2666
56162DOD     C312307  12.495   3.073   8.005 -0.0327 -0.0677  0.0187
56163DOD     C112308   0.634   5.404  19.002  0.2174 -0.0306  0.0360
56163DOD     C212309   0.619   5.600  19.426 -0.1473  0.2844 -0.0177
56163DOD     C312310   0.588   5.379  19.811  0.0144 -0.1643  0.2026
56164DOD     C112311   3.650  12.487   8.058  0.0833  0.1174 -0.0030
56164DOD     C212312   3.443  12.180   8.355  0.2277  0.1171  0.0050
56164DOD     C312313   3.011  12.064   8.353  0.4743 -0.0445 -0.1465
56165DOD     C112314  13.257   5.611  15.177  0.0590  0.0582  0.0388
56165DOD     C212315  13.082   5.987  15.401 -0.1652 -0.1167  0.1265
56165DOD     C312316  13.143   6.340  15.710  0.0986  0.2069 -0.1239
56166DOD     C112317  24.273  18.965   4.512  0.2136  0.1218 -0.1543
56166DOD     C212318  24.559  18.596   4.613  0.2336 -0.3239  0.4795
56166DOD     C312319  24.816  18.360   4.248 -0.0597 -0.0184  0.0627
56167DOD     C112320  24.320   8.296  16.573 -0.0678  0.0055 -0.2494
56167DOD     C212321  24.702   8.393  16.316 -0.1097  0.0892 -0.0971
56167DOD     C312322  25.010   8.747  16.362 -0.1190  0.2319  0.0573
56168DOD     C112323   8.060   3.028  19.824  0.1452  0.2554 -0.1370
56168DOD     C212324   7.723   2.889  20.116  0.0806 -0.2184 -0.2008
56168DOD     C312325   7.398   2.559  20.174  0.2324 -0.0050 -0.0128
56169DOD     C112326  13.902  20.388  17.174  0.1333 -0.1998 -0.2367
56169DOD     C212327  13.747  20.734  16.894 -0.2848  0.1781  0.1887
56169DOD     C312328  13.728  21.171  16.675 -0.0223  0.0847 -0.2051
56170DOD     C112329  25.801   0.387   2.552  0.1328  0.1152  0.1879
56170DOD     C212330  25.420   0.408   2.335 -0.3015  0.1165 -0.0907
56170DOD     C312331  25.097   0.311   2.050  0.1560 -0.2171  0.0893
56171DOD     C112332   7.700  16.207  26.437 -0.1366 -0.3015  0.4605
56171DOD     C212333   7.444  16.462  26.727 -0.1024 -0.1227 -0.3025
56171DOD     C312334   7.029  16.734  26.798  0.1017  0.2007  0.4595
56172DOD     C112335   8.344  18.835   4.697 -0.0298 -0.1664 -0.0692
56172DOD     C212336   8.140  18.868   4.272 -0.0424  0.1040 -0.1213
56172DOD     C312337   8.162  19.017   3.842  0.3324 -0.0838 -0.2449
56173DOD     C112338  26.461   0.915  25.282 -0.0190  0.3468  0.0112
56173DOD     C212339  26.738   1.284  25.365 -0.0445  0.1860  0.1058
56173DOD     C312340  26.634   1.641  25.646 -0.0152  0.0460 -0.1887
56174DOD     C112341  28.508  10.437  23.382 -0.0921  0.0997  0.2365
56174DOD     C212342  28.187  10.710  23.261  0.3248  0.1346 -0.2402
56174DOD     C312343  27.925  11.123  23.280 -0.0965  0.4102  0.0721
56175DOD     C112344  10.760  27.500   5.637  0.0461  0.2223 -0.0467
56175DOD     C212345  10.280  27.523   5.767 -0.0032 -0.2372 -0.1140
56175DOD     C312346   9.831  27.441   5.772  0.0358  0.1302 -0.0384
56176DOD     C112347  30.113  21.439  12.114  0.0862 -0.0072 -0.0276
56176DOD     C212348   0.092  21.471  11.680 -0.2391 -0.2266 -0.0008
56176DOD     C312349   0.156  21.212  11.247 -0.2122 -0.3684  0.2222
56177DOD     C112350   3.462   3.746  26.144  0.2198  0.1885  0.2046
56177DOD     C212351   3.192   3.395  26.257 -0.1965 -0.0345 -0.0572
56177DOD     C312352   3.085   3.068  26.606  0.3403  0.1481  0.3221
56178DOD     C112353   4.217   5.182   1.052  0.0369 -0.1840  0.1963
56178DOD     C212354   3.793   5.433   1.183 -0.0430 -0.1228  0.1178
56178DOD     C312355   3.548   5.616   1.488 -0.4087  0.0681  0.0019
56179DOD     C112356  26.748  14.544  17.906  0.0044  0.0838 -0.0337
56179DOD     C212357  26.409  14.343  17.630  0.1812 -0.1229  0.1008
56179DOD     C312358  26.223  13.903  17.485  0.1340  0.0818  0.1563
56180DOD     C112359   9.624  18.183  29.949 -0.0470 -0.0119  0.2708
56180DOD     C212360   9.429  18.465  29.564 -0.0191  0.0091 -0.0879
56180DOD     C312361   9.222  18.520  29.074  0.0129  0.0394 -0.0329
56181DOD     C112362  13.064  18.422  14.975  0.0620  0.4650  0.0613
56181DOD     C212363  13.273  18.760  14.807 -0.0926 -0.3043  0.0344
56181DOD     C312364  13.325  19.133  14.510 -0.2530 -0.1591 -0.2407
56182DOD     C112365  12.415  18.630  21.685 -0.0638 -0.0078 -0.1081
56182DOD     C212366  12.322  19.003  21.957 -0.1403 -0.1022 -0.3180
56182DOD     C312367  12.144  19.038  22.360  0.1596  0.2926  0.0055
56183DOD     C112368  26.130  23.309  23.736  0.1869  0.3534 -0.2280
56183DOD     C212369  26.345  22.861  23.719  0.2443 -0.1402  0.1078
56183DOD     C312370  26.550  22.503  23.500  0.3150 -0.0109 -0.0940
56184DOD     C112371  24.737  20.525  26.343  0.1147  0.2627  0.0356
56184DOD     C212372  25.056  20.820  26.326  0.1707 -0.0877 -0.0753
56184DOD     C312373  25.018  21.289  26.340  0.1335  0.0549 -0.2335
56185DOD     C112374  13.539   4.078   0.248  0.0535  0.1122 -0.3766
56185DOD     C212375  13.196   3.921  30.210  0.0741  0.0926 -0.1676
56185DOD     C312376  12.921   3.639  29.988 -0.2804  0.2204  0.0242
56186DOD     C112377   2.972  16.092  21.454 -0.0286 -0.2169 -0.0684
56186DOD     C212378   2.938  16.385  21.820 -0.1270 -0.0379 -0.1525
56186DOD     C312379   3.106  16.746  22.028  0.2271  0.1945 -0.0545
56187DOD     C112380  25.230   9.206  13.806 -0.1840  0.0636  0.2286
56187DOD     C212381  24.831   8.990  13.716 -0.1082 -0.0151  0.0181
56187DOD     C312382  24.595   8.685  13.875 -0.2250 -0.0144 -0.0890
56188DOD     C112383  18.190   2.727   4.914  0.1779 -0.0180 -0.1288
56188DOD     C212384  17.948   2.853   5.299 -0.0507 -0.1666  0.2070
56188DOD     C312385  17.698   2.913   5.687 -0.0953 -0.0545 -0.2272
56189DOD     C112386   5.927  19.671  25.506 -0.0659  0.1601 -0.2439
56189DOD     C212387   5.973  19.852  25.145  0.2949  0.3280 -0.2573
56189DOD     C312388   6.136  20.117  24.792  0.1119 -0.0575 -0.2179
56190DOD     C112389   5.790  28.083  27.822  0.1465 -0.0646  0.2048
56190DOD     C212390   5.933  28.075  27.356 -0.2457 -0.2408 -0.1039
56190DOD     C312391   5.959  27.670  27.083 -0.2167  0.1191  0.1896
56191DOD     C112392  26.341  14.388  19.526  0.3469  0.1420 -0.2994
56191DOD     C212393  26.336  14.311  19.996  0.3610 -0.0002  0.1516
56191DOD     C312394  26.151  13.918  20.169 -0.1518 -0.2173  0.1790
56192DOD     C112395  29.362   9.824  28.902 -0.1366 -0.1115 -0.0636
56192DOD     C212396  29.613   9.491  28.664 -0.0322  0.3184  0.0044
56192DOD     C312397  29.468   9.130  28.422  0.0243  0.2402 -0.0702
56193DOD     C112398  30.000  18.253   1.146 -0.1820 -0.0208  0.1664
56193DOD     C212399  -0.012  18.028   0.914 -0.0000 -0.0924 -0.0982
56193DOD     C312400   0.258  17.663   0.721 -0.2914 -0.0756 -0.0104
56194DOD     C112401  21.831   9.359  20.476 -0.0989 -0.1564  0.2817
56194DOD     C212402  22.087   8.988  20.566 -0.0363 -0.2848 -0.1647
56194DOD     C312403  22.083   8.545  20.741  0.0139 -0.2747  0.0369
56195DOD     C112404  16.612  29.598  28.952  0.2062 -0.0771  0.3942
56195DOD     C212405  16.842  29.264  29.174  0.0661  0.3425  0.1197
56195DOD     C312406  16.859  28.888  29.486 -0.2130  0.4414 -0.0548
56196DOD     C112407   9.203  29.035  21.431 -0.2723 -0.0418 -0.2456
56196DOD     C212408   8.969  29.064  21.844 -0.1012 -0.0254 -0.1607
56196DOD     C312409   8.880  29.115  22.294 -0.0939  0.1182 -0.0059
56197DOD     C112410   3.490  20.289   0.009 -0.2159  0.0111 -0.0411
56197DOD     C212411   3.911  20.075  30.239 -0.1636  0.0353  0.2469
56197DOD     C312412   4.375  20.116  30.029  0.1015 -0.2553 -0.0400
56198DOD     C112413  12.648   3.170  19.607 -0.2036  0.0768 -0.0871
56198DOD     C212414  12.731   2.814  19.907 -0.1606 -0.2226 -0.0234
56198DOD     C312415  12.534   2.621  20.210 -0.1073  0.3193  0.0461
56199DOD     C112416   0.802  14.045  10.529 -0.0069  0.0823  0.0961
56199DOD     C212417   0.723  14.397  10.832 -0.2184 -0.0865  0.1925
56199DOD     C312418   1.001  14.582  11.171  0.0801  0.1015  0.1598
56200DOD     C112419   5.978  16.597   2.037  0.0718 -0.1746 -0.0078
56200DOD     C212420   6.157  16.607   2.416  0.2369 -0.2437 -0.1799
56200DOD     C312421   6.333  16.723   2.838  0.1014 -0.2245  0.2079
56201DOD     C112422   0.405  24.581  15.126  0.1116  0.0759  0.0142
56201DOD     C212423   0.691  24.295  14.931 -0.0697 -0.3789  0.1922
56201DOD     C312424   0.742  23.893  14.687 -0.0208  0.2418 -0.0458
56202DOD     C112425  27.623  12.921   3.574 -0.0179 -0.1949 -0.3519
56202DOD     C212426  27.145  12.929   3.727  0.1609 -0.3128 -0.1130
56202DOD     C312427  26.691  13.098   3.825 -0.1765 -0.2821  0.0273
56203DOD     C112428  29.242   8.780  26.975  0.1834  0.2979 -0.2318
56203DOD     C212429  29.489   9.038  26.691  0.0531 -0.1128 -0.5288
56203DOD     C312430  29.845   9.308  26.792 -0.0024 -0.3221  0.2521
56204DOD     C112431  10.657  20.656   8.788  0.0034  0.2462 -0.0356
56204DOD     C212432  10.834  20.296   8.999  0.0723  0.3083 -0.0627
56204DOD     C312433  10.687  20.028   9.383 -0.3061  0.0906  0.1544
56205DOD     C112434   9.530   1.437   5.130  0.3676  0.1557 -0.0382
56205DOD     C212435   9.116   1.380   5.121 -0.0656  0.0614 -0.1172
56205DOD     C312436   8.840   1.167   5.418  0.5733 -0.4134 -0.0979
56206DOD     C112437   1.708  18.273   5.156  0.0785  0.1573  0.0993
56206DOD     C212438   2.183  18.261   5.238  0.0742  0.1556 -0.0764
56206DOD     C312439   2.414  17.925   5.430 -0.1190  0.0232 -0.0052
56207DOD     C112440   0.634  19.044   1.629  0.3536  0.0099  0.3092
56207DOD     C212441   0.196  19.023   1.603  0.0994 -0.2004  0.0431
56207DOD     C312442  30.158  19.016   1.848 -0.0308  0.1377 -0.0578
56208DOD     C112443  25.768   6.478  27.002  0.1876 -0.2268 -0.0586
56208DOD     C212444  26.135   6.690  27.136 -0.0037 -0.0254 -0.3446
56208DOD     C312445  26.520   6.574  27.449  0.0422  0.1242  0.1066
56209DOD     C112446   0.852   2.295  12.809 -0.0623  0.2060  0.0100
56209DOD     C212447   0.726   2.582  12.498 -0.0767 -0.1499 -0.1191
56209DOD     C312448   0.397   2.927  12.531  0.0026  0.0998  0.2795
56210DOD     C112449  18.243  17.071  18.220  0.1237 -0.2521 -0.0885
56210DOD     C212450  18.243  17.212  18.708  0.1710  0.3342 -0.1347
56210DOD     C312451  18.220  17.491  19.105 -0.4383 -0.0047  0.4315
56211DOD     C112452  29.952  13.233  14.573  0.1385 -0.1023  0.0855
56211DOD     C212453  29.685  12.861  14.415 -0.0710 -0.1843 -0.0334
56211DOD     C312454  29.217  12.855  14.435  0.1461 -0.0606 -0.0113
56212DOD     C112455   5.050   9.427  29.279 -0.1011  0.2174 -0.2392
56212DOD     C212456   4.732   9.133  29.487 -0.5604  0.0033 -0.2201
56212DOD     C312457   4.595   8.863  29.885 -0.0034  0.3035 -0.3473
56213DOD     C112458  10.790  22.841  29.343  0.0545 -0.2680 -0.1722
56213DOD     C212459  10.508  22.885  29.690 -0.3785  0.1071  0.3787
56213DOD     C312460  10.078  23.023  29.785 -0.1332  0.2079  0.1459
56214DOD     C112461  17.388   8.319  11.116  0.1416  0.1124 -0.3749
56214DOD     C212462  17.039   8.092  10.909 -0.0014  0.1005  0.2577
56214DOD     C312463  16.774   7.734  10.863 -0.2646  0.2902  0.0814
56215DOD     C112464   6.153   4.841   7.250 -0.5490 -0.0987 -0.0210
56215DOD     C212465   5.969   4.495   7.410 -0.0356 -0.1842 -0.0255
56215DOD     C312466   6.025   4.108   7.729 -0.0027 -0.2889 -0.0489
56216DOD     C112467   6.305   6.651  16.442 -0.1749 -0.1926  0.1390
56216DOD     C212468   6.717   6.789  16.564 -0.0438  0.0710  0.1418
56216DOD     C312469   7.196   6.648  16.570 -0.0118  0.0525 -0.0723
56217DOD     C112470   5.689  17.930  19.468  0.0564 -0.1744  0.0459
56217DOD     C212471   5.518  17.515  19.319 -0.1323  0.0381 -0.2507
56217DOD     C312472   5.551  17.025  19.418 -0.0910  0.2826  0.0452
56218DOD     C112473   3.235  27.986  28.242 -0.0020 -0.1000 -0.2649
56218DOD     C212474   3.547  28.163  28.519 -0.0249 -0.1816 -0.0747
56218DOD     C312475   3.708  28.525  28.700 -0.1207  0.3132 -0.0174
56219DOD     C112476  21.203   3.203  15.134  0.1751  0.1253  0.1192
56219DOD     C212477  21.075   2.825  14.952  0.1222  0.3292 -0.0153
56219DOD     C312478  20.673   2.671  14.744 -0.1079  0.2044  0.2003
56220DOD     C112479   2.154  10.930  20.580 -0.2119 -0.0377  0.0723
56220DOD     C212480   2.061  10.483  20.593 -0.1017  0.0027 -0.5890
56220DOD     C312481   2.046  10.023  20.752  0.1842  0.1215 -0.2059
56221DOD     C112482   3.094  10.351  24.738  0.2317 -0.0738  0.0165
56221DOD     C212483   3.490  10.175  24.555 -0.1379  0.1700  0.2314
56221DOD     C312484   3.806  10.408  24.318 -0.0549  0.2248  0.1191
56222DOD     C112485   0.121   7.900  26.357 -0.0314  0.2612 -0.2849
56222DOD     C212486   0.425   8.137  26.087 -0.2437  0.0160 -0.0557
56222DOD     C312487   0.803   7.885  26.116  0.1332  0.1471 -0.2078
56223DOD     C112488  23.718   8.541   7.926  0.1638  0.3119  0.1767
56223DOD     C212489  23.550   8.849   7.626  0.1439  0.0179  0.1325
56223DOD     C312490  23.403   8.884   7.169  0.1916 -0.2170  0.1082
56224DOD     C112491   0.579  25.743  21.652 -0.0425 -0.2693 -0.2975
56224DOD     C212492   0.371  25.491  21.982 -0.2464  0.2749  0.2513
56224DOD     C312493   0.112  25.136  22.210  0.0991  0.1165  0.2057
56225DOD     C112494  29.014   0.001   7.878 -0.0230 -0.0239 -0.0488
56225DOD     C212495  29.361   0.208   8.119 -0.0439 -0.1836  0.0513
56225DOD     C312496  29.658   0.563   8.191  0.0734 -0.0051 -0.0398
56226DOD     C112497  27.601  29.210  22.287  0.1319  0.3727 -0.0046
56226DOD     C212498  27.902  28.937  22.424  0.1593 -0.3114  0.0551
56226DOD     C312499  27.996  28.501  22.238  0.0715 -0.1881  0.1763
56227DOD     C112500   2.194  26.270  17.744 -0.1008  0.0814 -0.1893
56227DOD     C212501   1.848  26.074  17.907  0.1540  0.3016 -0.2418
56227DOD     C312502   1.605  25.997  18.270 -0.1264 -0.0582  0.3645
56228DOD     C112503   0.552  11.470  25.208  0.0425 -0.1150  0.3833
56228DOD     C212504   0.315  11.580  25.619  0.1565 -0.1213 -0.1054
56228DOD     C312505   0.291  11.535  26.063  0.0803  0.2267 -0.1682
56229DOD     C112506  25.758  18.681   2.669  0.1845  0.3809 -0.1790
56229DOD     C212507  25.750  18.947   2.309  0.0343  0.0080 -0.3404
56229DOD     C312508  25.771  19.211   1.905 -0.1454  0.0850  0.2866
56230DOD     C112509   2.811   2.280  14.217  0.2590  0.0269  0.1931
56230DOD     C212510   3.074   2.528  13.952 -0.1463 -0.2284  0.0371
56230DOD     C312511   3.243   2.837  13.650 -0.1493 -0.0010  0.0226
56231DOD     C112512  16.461  26.329   8.540 -0.0116  0.5733 -0.2278
56231DOD     C212513  16.477  26.580   8.184  0.1581  0.1151  0.0673
56231DOD     C312514  16.547  26.527   7.757 -0.2256  0.2454  0.0649
56232DOD     C112515   3.895   5.322  19.004  0.1059  0.0539  0.3390
56232DOD     C212516   3.658   4.976  19.040  0.1056  0.5087  0.1133
56232DOD     C312517   3.249   4.762  19.079  0.1055 -0.3378 -0.3445
56233DOD     C112518  15.567  17.788   1.168  0.2454 -0.1935  0.1111
56233DOD     C212519  15.161  18.068   1.078 -0.2983  0.2122 -0.0486
56233DOD     C312520  14.817  18.061   0.789 -0.3395 -0.1590  0.0538
56234DOD     C112521  11.314   8.298  22.399 -0.4709 -0.2307  0.1367
56234DOD     C212522  11.596   8.424  22.714  0.1210  0.1140 -0.2830
56234DOD     C312523  11.740   8.183  23.084 -0.0053 -0.2399 -0.0328
56235DOD     C112524  21.308  14.382  24.601 -0.1778  0.0798 -0.3343
56235DOD     C212525  21.310  13.897  24.663 -0.0056 -0.4472  0.1572
56235DOD     C312526  21.038  13.709  24.897 -0.1176  0.3433 -0.2071
56236DOD     C112527  25.328  20.516   3.045 -0.0709  0.1062 -0.0375
56236DOD     C212528  25.696  20.669   3.289 -0.0205 -0.2450 -0.0405
56236DOD     C312529  25.812  20.906   3.687 -0.2402 -0.0493  0.3036
56237DOD     C112530  12.295   3.812  25.378  0.2362  0.3093 -0.1167
56237DOD     C212531  12.665   3.535  25.290  0.2741  0.0469  0.0450
56237DOD     C312532  12.730   3.085  25.391 -0.3304 -0.2911  0.3317
56238DOD     C112533  25.220  15.799  23.929  0.1489 -0.4113  0.1719
56238DOD     C212534  25.058  15.479  23.651 -0.3278  0.2061 -0.1097
56238DOD     C312535  24.692  15.480  23.377 -0.0070 -0.0450  0.0135
56239DOD     C112536   7.512   4.019  23.034 -0.1370 -0.2595  0.0446
56239DOD     C212537   7.803   3.890  23.363  0.0639 -0.1334 -0.2041
56239DOD     C312538   7.925   3.485  23.599 -0.3065 -0.0052  0.3689
56240DOD     C112539   6.367  15.918  13.788 -0.2310  0.1591  0.1943
56240DOD     C212540   5.957  16.155  13.880 -0.1509  0.0924  0.0311
56240DOD     C312541   5.524  16.226  14.006  0.3689  0.1359  0.1382
56241DOD     C112542   0.542   8.099  18.883 -0.0321 -0.1962 -0.2860
56241DOD     C212543   0.551   8.145  19.334 -0.1770  0.0701 -0.0940
56241DOD     C312544   0.626   7.760  19.562  0.0194  0.2565  0.1926
56242DOD     C112545   9.165  18.979   6.489  0.1462 -0.0733  0.2018
56242DOD     C212546   9.240  19.342   6.793 -0.3419 -0.2965  0.4520
56242DOD     C312547   9.067  19.681   7.089 -0.0976 -0.2742 -0.1459
56243DOD     C112548  30.264   5.080   3.296  0.1581 -0.3402 -0.1066
56243DOD     C212549   0.207   4.820   3.046  0.0966  0.3502  0.0978
56243DOD     C312550   0.519   4.492   2.884  0.0620  0.3987  0.1867
56244DOD     C112551   1.568   9.725  16.653 -0.0644 -0.1141  0.0959
56244DOD     C212552   1.166   9.677  16.597  0.0088 -0.2039  0.1328
56244DOD     C312553   0.732   9.535  16.376 -0.0822 -0.1979  0.0928
56245DOD     C112554   3.537  30.215  26.591 -0.0894  0.2250 -0.1761
56245DOD     C212555   3.898  29.899  26.569  0.0172 -0.1541 -0.0424
56245DOD     C312556   4.089  29.535  26.670  0.2984  0.3658 -0.1781
56246DOD     C112557   5.291   4.894   7.308 -0.0307  0.1351 -0.0054
56246DOD     C212558   5.684   4.854   7.560 -0.2737  0.0839  0.2192
56246DOD     C312559   5.977   4.634   7.891 -0.1195  0.1305 -0.0442
56247DOD     C112560  19.602  18.874  16.323  0.0116 -0.2599 -0.0876
56247DOD     C212561  19.334  19.069  15.982  0.1292 -0.1263 -0.2339
56247DOD     C312562  19.096  19.042  15.610  0.2903 -0.0379  0.1225
56248DOD     C112563   8.370  21.369  26.298  0.1188 -0.0218  0.2433
56248DOD     C212564   8.284  20.897  26.361  0.1428 -0.1223  0.1136
56248DOD     C312565   8.243  20.474  26.148  0.5041  0.0777  0.3242
56249DOD     C112566   5.486   3.414  20.331  0.0532 -0.0848  0.3646
56249DOD     C212567   5.650   3.451  19.867  0.0418  0.0251 -0.0749
56249DOD     C312568   5.995   3.505  19.512 -0.0970 -0.1274 -0.0038
56250DOD     C112569   8.465  17.869  10.727  0.0215  0.2036  0.0738
56250DOD     C212570   8.941  17.937  10.710 -0.0430 -0.0258 -0.0308
56250DOD     C312571   9.321  17.732  10.464  0.1474 -0.0692 -0.0421
56251DOD     C112572   0.206  16.593   9.218 -0.3401  0.0219 -0.0886
56251DOD     C212573  30.192  16.697   9.589  0.1121  0.2837  0.1167
56251DOD     C312574  30.103  17.050   9.829 -0.0800  0.2308 -0.0670
56252DOD     C112575  23.272  21.912  28.890 -0.0306  0.0969 -0.1633
56252DOD     C212576  22.875  21.696  28.692  0.1006  0.1588  0.1146
56252DOD     C312577  22.415  21.685  28.638  0.0596 -0.0728  0.1215
56253DOD     C112578  24.995  20.051   1.606  0.0749  0.2530  0.0650
56253DOD     C212579  24.947  19.631   1.381 -0.1786 -0.0059 -0.3110
56253DOD     C312580  24.952  19.375   1.011 -0.0437  0.1879 -0.2575
56254DOD     C112581  18.461  30.258  16.256 -0.1520 -0.2060  0.0754
56254DOD     C212582  18.881  30.162  16.003  0.1604 -0.0562  0.0558
56254DOD     C312583  19.133  29.942  15.694 -0.3157  0.0156  0.2449
56255DOD     C112584   3.084  22.218  12.007 -0.2818  0.2229 -0.2259
56255DOD     C212585   3.205  22.372  12.410  0.1145  0.1323 -0.0068
56255DOD     C312586   3.042  22.773  12.646  0.0230 -0.3000  0.2605
56256DOD     C112587  26.075  21.853  21.019  0.3341  0.4768 -0.1987
56256DOD     C212588  25.844  21.489  21.233  0.0406 -0.0653 -0.0584
56256DOD     C312589  25.888  21.304  21.660  0.2571 -0.1451 -0.3104
56257DOD     C112590   6.615   8.339  14.749 -0.0371 -0.1760  0.2679
56257DOD     C212591   6.655   8.720  14.987  0.0393 -0.0087  0.1584
56257DOD     C312592   6.883   8.908  15.378  0.1758  0.1526 -0.1018
56258DOD     C112593  10.700  10.012   2.993 -0.0461  0.0905 -0.0551
56258DOD     C212594  10.720  10.466   2.980 -0.1334  0.0742 -0.1088
56258DOD     C312595  10.479  10.892   3.080 -0.1294  0.0189  0.1913
56259DOD     C112596  17.944  21.836  13.742 -0.2146 -0.3239 -0.0490
56259DOD     C212597  17.994  21.453  13.457  0.0678 -0.0633 -0.2238
56259DOD     C312598  18.247  21.172  13.271 -0.4310  0.4076  0.1507
56260DOD     C112599  27.429   8.200  27.934 -0.0878  0.1068  0.0732
56260DOD     C212600  27.405   8.441  27.515  0.3879  0.0583  0.0035
56260DOD     C312601  27.544   8.824  27.377  0.2047 -0.0499 -0.2609
56261DOD     C112602  15.818  11.673  13.597 -0.1627  0.3173 -0.1205
56261DOD     C212603  15.711  11.275  13.877 -0.0693  0.0049  0.1572
56261DOD     C312604  15.760  10.788  13.874 -0.1286 -0.2963  0.0346
56262DOD     C112605  19.260  13.288  11.630 -0.0026 -0.1369  0.2339
56262DOD     C212606  18.946  13.076  11.364  0.1244  0.2025 -0.0556
56262DOD     C312607  18.585  12.888  11.122  0.1993  0.3085 -0.3214
56263DOD     C112608  23.181  14.393  22.672  0.2563 -0.1011  0.1604
56263DOD     C212609  23.581  14.641  22.733 -0.2756  0.0705  0.2590
56263DOD     C312610  23.957  14.471  22.885  0.0291  0.3886  0.4255
56264DOD     C112611  23.936   3.913  29.291  0.0025 -0.0240 -0.1578
56264DOD     C212612  23.873   3.510  29.099  0.3331 -0.2621 -0.2000
56264DOD     C312613  23.754   3.101  28.892  0.3432 -0.0322 -0.0476
56265DOD     C112614  12.813  17.708  23.317 -0.2073 -0.1839  0.0847
56265DOD     C212615  12.460  17.527  23.103  0.1333  0.0404  0.1284
56265DOD     C312616  11.970  17.637  23.009  0.0545  0.0375  0.0824
56266DOD     C112617   4.080  22.446   0.215 -0.1699  0.0607  0.1231
56266DOD     C212618   3.802  22.730   0.394 -0.0032 -0.1047 -0.1546
56266DOD     C312619   3.485  22.891   0.688  0.1241  0.0891 -0.0717
56267DOD     C112620  20.683  20.114  25.720  0.2478 -0.1841  0.0300
56267DOD     C212621  21.025  20.435  25.773  0.5028 -0.4403  0.0786
56267DOD     C312622  21.118  20.866  25.861  0.1306  0.1164  0.2380
56268DOD     C112623  12.636  29.349   1.719  0.0609  0.2136  0.1966
56268DOD     C212624  12.893  29.679   1.811 -0.3281 -0.0810 -0.2009
56268DOD     C312625  12.965  30.128   1.943  0.1976  0.1606 -0.1620
56269DOD     C112626  12.527   7.210  20.661  0.1404  0.0235  0.3521
56269DOD     C212627  12.732   6.793  20.532  0.0103  0.1927 -0.0754
56269DOD     C312628  13.066   6.617  20.588  0.2300 -0.0726 -0.0001
56270DOD     C112629   1.159   1.579   2.595  0.0292  0.0819  0.1745
56270DOD     C212630   1.071   1.284   2.941  0.0624  0.1486  0.4019
56270DOD     C312631   1.418   1.062   3.242  0.1344 -0.4379 -0.2352
56271DOD     C112632  15.063   4.197   5.335  0.2060  0.0705  0.1329
56271DOD     C212633  14.739   4.506   5.407 -0.0917  0.0646 -0.0742
56271DOD     C312634  14.233   4.582   5.472 -0.0934  0.3600  0.1340
56272DOD     C112635  28.280  23.800  25.172  0.0644 -0.0734 -0.1400
56272DOD     C212636  28.661  23.974  25.363  0.2399  0.2199 -0.0616
56272DOD     C312637  28.698  24.392  25.544 -0.1520 -0.3256 -0.3860
56273DOD     C112638  22.236   4.208  21.063 -0.0388 -0.4820 -0.1359
56273DOD     C212639  22.290   3.929  21.416 -0.0013 -0.0847  0.1706
56273DOD     C312640  22.186   3.475  21.575  0.0275  0.1590  0.5545
56274DOD     C112641   4.505  16.487   5.742 -0.0128 -0.0579  0.2737
56274DOD     C212642   4.108  16.684   5.773  0.1624 -0.1676  0.1004
56274DOD     C312643   3.679  16.807   5.984  0.1957  0.1732  0.1668
56275DOD     C112644   8.163   0.161  19.232  0.2089  0.1986  0.1195
56275DOD     C212645   7.835  30.275  18.938  0.0555  0.0961 -0.2052
56275DOD     C312646   7.463   0.212  18.865 -0.3362 -0.3013  0.3201
56276DOD     C112647  24.123   5.956  16.629  0.2636 -0.1301 -0.1515
56276DOD     C212648  24.400   5.828  16.303 -0.0918  0.0132  0.1258
56276DOD     C312649  24.750   5.877  15.970 -0.1135 -0.0732 -0.1233
56277DOD     C112650  15.480   7.124  12.565 -0.1906  0.1236 -0.3622
56277DOD     C212651  15.445   6.713  12.315 -0.0160 -0.1466  0.0648
56277DOD     C312652  15.266   6.367  12.020 -0.0279 -0.0169 -0.0548
56278DOD     C112653   3.189  12.674  25.309  0.0191 -0.1627 -0.2450
56278DOD     C212654   3.495  12.873  25.596  0.2154 -0.1280  0.2614
56278DOD     C312655   3.565  13.113  25.974  0.1282 -0.1021  0.0630
56279DOD     C112656  28.854  15.842   8.005  0.3023 -0.0264 -0.0024
56279DOD     C212657  29.273  15.594   8.051  0.1377  0.1213  0.0819
56279DOD     C312658  29.674  15.389   8.140  0.0078 -0.0017 -0.0986
56280DOD     C112659   8.875   3.197   2.964  0.2150 -0.0505 -0.1330
56280DOD     C212660   8.725   3.654   2.909 -0.0135  0.1625 -0.0841
56280DOD     C312661   8.869   4.049   2.733 -0.0090 -0.3204  0.0460
56281DOD     C112662  12.258  30.029  15.536  0.0316 -0.0018  0.0160
56281DOD     C212663  12.275  29.622  15.534 -0.3540  0.0665  0.0462
56281DOD     C312664  12.126  29.211  15.510 -0.1103 -0.0392  0.0552
56282DOD     C112665  22.184   4.233  27.600  0.1164 -0.1080  0.0710
56282DOD     C212666  22.142   3.780  27.703  0.2718  0.2245  0.1348
56282DOD     C312667  22.116   3.332  27.654  0.0038  0.0649 -0.2412
56283DOD     C112668   4.531  18.897  25.485 -0.2349  0.1689  0.1709
56283DOD     C212669   4.577  19.007  25.024 -0.0129  0.0776 -0.3517
56283DOD     C312670   4.603  19.118  24.536  0.0936  0.1303 -0.0354
56284DOD     C112671  27.053  21.512  24.729 -0.4396 -0.1729  0.0180
56284DOD     C212672  26.996  21.829  24.416 -0.0826  0.1364 -0.0004
56284DOD     C312673  27.102  22.121  24.010  0.0064  0.3006  0.0840
56285DOD     C112674  16.529  26.978  26.894  0.2779 -0.0836  0.1298
56285DOD     C212675  16.975  27.007  26.871  0.0231 -0.0873 -0.1052
56285DOD     C312676  17.332  26.861  26.671 -0.1972 -0.2067 -0.0280
56286DOD     C112677   1.302   2.805   2.513  0.1600 -0.1010  0.0135
56286DOD     C212678   1.172   2.351   2.399  0.1230  0.2401 -0.2921
56286DOD     C312679   0.837   2.173   2.175 -0.0119  0.0781  0.1686
56287DOD     C112680   9.082  27.876  10.291  0.3435  0.3170  0.2311
56287DOD     C212681   8.904  28.288  10.366  0.0682 -0.2275  0.2680
56287DOD     C312682   8.432  28.395  10.220  0.1095  0.1048  0.2404
56288DOD     C112683   3.007  10.140  25.936  0.1682 -0.0265 -0.1836
56288DOD     C212684   2.593   9.943  25.745 -0.0494 -0.0049 -0.0912
56288DOD     C312685   2.502   9.666  25.348  0.0782  0.1096 -0.2142
56289DOD     C112686  17.242  25.892  25.195 -0.2661  0.0255 -0.0487
56289DOD     C212687  17.029  25.508  25.073  0.0301 -0.0216  0.0158
56289DOD     C312688  16.976  25.055  25.091 -0.1746 -0.0636  0.2593
56290DOD     C112689   8.743  10.639   8.808  0.1732  0.1514  0.0055
56290DOD     C212690   9.035  10.887   9.040 -0.0628  0.1843  0.0511
56290DOD     C312691   9.477  11.064   8.948 -0.1338 -0.0425 -0.3798
56291DOD     C112692   0.656  28.464   6.426 -0.2312 -0.1859  0.0301
56291DOD     C212693   0.372  28.086   6.576  0.2014  0.1311  0.1838
56291DOD     C312694   0.056  27.782   6.802 -0.0352 -0.3021 -0.0623
56292DOD     C112695  26.884  20.222  22.524  0.0802  0.0551 -0.1474
56292DOD     C212696  26.472  20.053  22.446 -0.0012 -0.0066 -0.0785
56292DOD     C312697  26.294  19.755  22.111  0.2534  0.0318  0.0307
56293DOD     C112698   9.851  13.110  20.672 -0.0983  0.1470  0.2024
56293DOD     C212699   9.684  13.536  20.549 -0.0347  0.0748 -0.1135
56293DOD     C312700   9.571  14.005  20.434 -0.4025  0.2915 -0.0417
56294DOD     C112701  15.820   6.874  20.331 -0.0650 -0.1483  0.1241
56294DOD     C212702  15.548   6.522  20.428  0.1834  0.1747 -0.1057
56294DOD     C312703  15.644   6.084  20.656  0.1651 -0.1891 -0.1926
56295DOD     C112704  14.031   1.130  17.098  0.0635 -0.0334 -0.1144
56295DOD     C212705  13.646   1.189  16.869 -0.1151 -0.1678 -0.2740
56295DOD     C312706  13.377   1.393  16.594 -0.1821  0.1654  0.3123
56296DOD     C112707  26.730  17.857   6.727 -0.3613 -0.0652  0.2364
56296DOD     C212708  26.589  18.159   7.025  0.0453  0.0598  0.0489
56296DOD     C312709  26.411  18.458   7.306  0.0039  0.0755 -0.0032
56297DOD     C112710   0.303  20.956  24.214 -0.0389  0.0157  0.2777
56297DOD     C212711   0.656  21.161  24.406  0.3953  0.1914  0.1103
56297DOD     C312712   0.821  21.017  24.845  0.2430  0.1946  0.2146
56298DOD     C112713  27.762  23.314  13.895 -0.1852 -0.0277 -0.3833
56298DOD     C212714  27.288  23.299  13.801 -0.3751 -0.1971  0.1279
56298DOD     C312715  26.896  23.493  13.674  0.1963 -0.2836 -0.1163
56299DOD     C112716  20.341   6.569  14.234  0.2678  0.1863 -0.1397
56299DOD     C212717  19.906   6.486  14.181 -0.0487  0.1764 -0.0164
56299DOD     C312718  19.570   6.474  13.835 -0.2500 -0.3866  0.0753
56300DOD     C112719   0.869  28.497  25.620 -0.3406  0.2597  0.2133
56300DOD     C212720   1.118  28.783  25.318 -0.3877 -0.0326 -0.1348
56300DOD     C312721   1.344  29.136  25.064  0.0930 -0.0218  0.2227
56301DOD     C112722   5.000   4.171  29.214  0.0247 -0.0479  0.0802
56301DOD     C212723   4.993   4.416  28.788  0.1894  0.1298  0.2088
56301DOD     C312724   5.276   4.742  28.582 -0.1766  0.1449  0.0606
56302DOD     C112725  20.518  28.658  21.783  0.1632  0.3367  0.1781
56302DOD     C212726  20.716  29.018  22.045 -0.0353  0.2055  0.1116
56302DOD     C312727  20.734  29.465  22.154 -0.1794  0.2029  0.3482
56303DOD     C112728   1.360  13.683   0.402  0.3143 -0.2301 -0.3549
56303DOD     C212729   1.803  13.793   0.429 -0.3381 -0.0478 -0.2586
56303DOD     C312730   2.132  13.950   0.744 -0.0308  0.0332 -0.1878
56304DOD     C112731  12.827   3.417   8.279  0.4110  0.2991  0.0530
56304DOD     C212732  13.172   3.593   8.338 -0.1232 -0.1827 -0.3161
56304DOD     C312733  13.315   4.051   8.515 -0.1184  0.0497 -0.0384
56305DOD     C112734  20.977   5.090  10.497  0.2970  0.2096  0.2343
56305DOD     C212735  20.870   5.478  10.779  0.1315 -0.2540  0.0050
56305DOD     C312736  21.022   5.960  10.785  0.0499 -0.1686  0.1929
56306DOD     C112737  22.040  27.944  25.697  0.1644  0.0814  0.1415
56306DOD     C212738  21.954  27.485  25.652 -0.0101  0.1707  0.0423
56306DOD     C312739  21.750  27.155  25.351  0.4696  0.2701 -0.0594
56307DOD     C112740  22.627   0.137   2.626  0.2693  0.0770  0.0151
56307DOD     C212741  23.063   0.053   2.523  0.2580 -0.0591  0.0643
56307DOD     C312742  23.435  30.217   2.342  0.0191 -0.2260 -0.1707
56308DOD     C112743   8.252  19.212   2.872 -0.0324 -0.0243 -0.2109
56308DOD     C212744   7.841  18.981   2.855 -0.0786 -0.0708 -0.0064
56308DOD     C312745   7.415  18.797   2.795  0.2773 -0.0482 -0.1409
56309DOD     C112746  27.979  11.597  17.107 -0.0288  0.1732 -0.1508
56309DOD     C212747  28.035  11.601  16.642 -0.0762  0.0123 -0.1451
56309DOD     C312748  28.299  11.937  16.512  0.1761 -0.1875 -0.3719
56310DOD     C112749  19.311   5.408  19.571 -0.2018  0.0107 -0.2465
56310DOD     C212750  18.999   5.742  19.461 -0.2487  0.3107  0.0313
56310DOD     C312751  18.762   5.978  19.157 -0.1302  0.1976  0.4444
56311DOD     C112752  29.178  16.274  27.961  0.0019  0.1619 -0.2105
56311DOD     C212753  29.160  15.905  28.244  0.4177  0.1710 -0.1135
56311DOD     C312754  29.234  15.739  28.708 -0.2318 -0.1913 -0.0093
56312DOD     C112755   4.363   2.311   8.555 -0.0519  0.0817  0.1297
56312DOD     C212756   4.189   2.728   8.696  0.0830 -0.0599  0.1022
56312DOD     C312757   4.064   2.979   9.091  0.3230 -0.0078 -0.0202
56313DOD     C112758  21.474  28.732  23.439 -0.0048  0.3153  0.3955
56313DOD     C212759  21.073  28.833  23.627  0.2608  0.3496  0.0128
56313DOD     C312760  20.661  29.051  23.676  0.0485 -0.2269  0.2611
56314DOD     C112761  28.299  25.981  29.169  0.3312  0.0070  0.1398
56314DOD     C212762  28.157  26.361  29.309 -0.1009 -0.2480 -0.1785
56314DOD     C312763  28.192  26.777  29.576  0.0837 -0.2022  0.0187
56315DOD     C112764  25.353   7.021  18.995 -0.2834  0.2669  0.0479
56315DOD     C212765  25.136   6.764  18.650  0.0824  0.1195  0.0695
56315DOD     C312766  25.047   6.696  18.213  0.0949 -0.3626 -0.4389
56316DOD     C112767  22.424  23.274  16.841  0.2267  0.2143  0.4731
56316DOD     C212768  21.987  23.393  16.599 -0.2698 -0.1133 -0.4343
56316DOD     C312769  21.703  23.542  16.239  0.1197  0.0974 -0.1569
56317DOD     C112770  24.479  10.863  28.054 -0.2147 -0.2657  0.2981
56317DOD     C212771  24.833  11.094  27.862 -0.1816 -0.0182  0.1391
56317DOD     C312772  25.300  10.937  27.871  0.1016  0.2898  0.2405
56318DOD     C112773   2.988  27.854  25.900 -0.1655 -0.0236  0.1983
56318DOD     C212774   3.029  27.521  25.597 -0.1857  0.2305 -0.0328
56318DOD     C312775   3.199  27.100  25.607 -0.0577 -0.0562 -0.0089
56319DOD     C112776  15.986   3.411   5.556  0.0316  0.0705 -0.2812
56319DOD     C212777  16.142   3.103   5.238  0.1357  0.0055 -0.0250
56319DOD     C312778  16.511   3.121   4.985 -0.1591 -0.2255  0.4349
56320DOD     C112779  14.784  13.678  24.048  0.1352 -0.3634 -0.1661
56320DOD     C212780  14.619  13.783  24.461 -0.3265  0.0338  0.2303
56320DOD     C312781  14.304  13.507  24.682 -0.2373 -0.0518  0.0802
56321DOD     C112782  27.284  28.343  13.105  0.1555 -0.0079  0.0913
56321DOD     C212783  27.582  28.371  12.760 -0.2103  0.1714 -0.3160
56321DOD     C312784  27.880  28.331  12.344  0.0122  0.0561  0.0806
56322DOD     C112785   0.317   2.544  21.901  0.0077 -0.0868 -0.2856
56322DOD     C212786   0.518   2.935  22.066 -0.0403 -0.0673 -0.3676
56322DOD     C312787   0.496   3.405  22.289  0.0439 -0.1242 -0.0544
56323DOD     C112788   6.650  15.547  11.139  0.0350  0.1266  0.1120
56323DOD     C212789   6.660  15.471  11.552  0.2412  0.2774 -0.2063
56323DOD     C312790   6.413  15.213  11.861 -0.1576  0.0390 -0.1902
56324DOD     C112791  18.481   1.592  27.057  0.2128  0.0780  0.1544
56324DOD     C212792  18.693   1.305  26.774 -0.1398  0.0630 -0.0063
56324DOD     C312793  18.610   1.335  26.314  0.1537  0.0832  0.3445
56325DOD     C112794  10.110  24.498  16.826  0.0006  0.0392  0.1022
56325DOD     C212795  10.465  24.264  17.058  0.4003 -0.1714  0.4604
56325DOD     C312796  10.762  24.016  17.327  0.0627 -0.1083  0.2681
56326DOD     C112797  22.184  10.123  28.818 -0.1291 -0.0631  0.1517
56326DOD     C212798  22.620  10.420  28.859  0.3848 -0.1165 -0.5415
56326DOD     C312799  22.637  10.857  29.077  0.2614  0.1673  0.1072
56327DOD     C112800  18.508   5.738  15.019 -0.1664 -0.0190 -0.1080
56327DOD     C212801  18.868   5.467  15.179 -0.0722  0.0161  0.1666
56327DOD     C312802  19.086   5.057  15.200  0.0184 -0.1009  0.0877
56328DOD     C112803  11.933   3.963   4.980 -0.0142 -0.1115  0.0055
56328DOD     C212804  11.964   4.102   4.576  0.1973  0.1386  0.2101
56328DOD     C312805  11.925   4.224   4.168 -0.2196 -0.3207 -0.1327
56329DOD     C112806   4.535  28.548  22.199  0.1931 -0.0243  0.0382
56329DOD     C212807   4.715  28.805  22.541 -0.1257  0.0461  0.0435
56329DOD     C312808   5.201  28.952  22.582  0.0635  0.1723  0.0066
56330DOD     C112809  24.029   9.279  10.884 -0.3008 -0.1333  0.1826
56330DOD     C212810  23.922   9.689  11.049  0.0996 -0.1643  0.1344
56330DOD     C312811  23.767  10.123  11.036  0.1147 -0.3056  0.0737
56331DOD     C112812  17.369  22.843  21.035  0.1296 -0.0587 -0.0170
56331DOD     C212813  17.766  22.787  21.313  0.2139 -0.1928 -0.0081
56331DOD     C312814  18.061  22.988  21.631  0.3421  0.1526 -0.2722
56332DOD     C112815  12.015  15.036  26.255 -0.0724 -0.0336  0.0110
56332DOD     C212816  12.249  15.186  26.669  0.0724 -0.0264  0.2826
56332DOD     C312817  12.387  15.149  27.157  0.0943  0.0818  0.2147
56333DOD     C112818  28.874  16.272  23.156 -0.0519 -0.0829  0.0838
56333DOD     C212819  29.177  16.582  23.174  0.1011  0.1784  0.1967
56333DOD     C312820  29.361  17.002  23.277  0.0444  0.0090  0.1924
56334DOD     C112821   1.427   5.045  12.767  0.3135  0.1079 -0.1552
56334DOD     C212822   1.545   5.463  12.913 -0.5577 -0.0495 -0.0249
56334DOD     C312823   1.836   5.711  12.696  0.1325 -0.0561 -0.2587
56335DOD     C112824  18.117   1.067  20.838  0.0974 -0.0585  0.2021
56335DOD     C212825  17.734   1.293  20.689  0.2669 -0.2702 -0.1218
56335DOD     C312826  17.469   1.398  20.318 -0.2715 -0.3305  0.1181
56336DOD     C112827   6.475   5.001  12.945  0.1631  0.0171  0.4402
56336DOD     C212828   6.824   4.718  12.922 -0.3110  0.3011  0.2880
56336DOD     C312829   7.275   4.811  12.700  0.2746  0.0492 -0.0653
56337DOD     C112830  20.602  17.047  23.956  0.4225 -0.0217 -0.1978
56337DOD     C212831  20.485  17.277  23.547 -0.0256  0.0304  0.2163
56337DOD     C312832  20.382  17.658  23.288 -0.2672  0.0590  0.1263
56338DOD     C112833  21.224  28.732  26.322  0.1802 -0.0212 -0.1430
56338DOD     C212834  20.847  28.545  26.152  0.1412  0.2839 -0.0311
56338DOD     C312835  20.651  28.290  25.820  0.0165 -0.0378  0.2585
56339DOD     C112836  18.179  13.947  22.195 -0.0356 -0.0831 -0.0698
56339DOD     C212837  17.967  13.842  22.579  0.0549 -0.0269  0.0517
56339DOD     C312838  17.623  13.664  22.801  0.2564  0.0064  0.1355
56340DOD     C112839   8.253   0.728   4.356  0.0999  0.2037  0.2892
56340DOD     C212840   7.895   0.485   4.585 -0.1091  0.0006 -0.0513
56340DOD     C312841   7.526   0.218   4.721 -0.0276  0.1443  0.3286
56341DOD     C112842  12.178   4.794  27.710  0.1345 -0.0278 -0.2468
56341DOD     C212843  12.192   4.570  28.070  0.1232 -0.1342  0.1192
56341DOD     C312844  12.098   4.212  28.355 -0.2523 -0.1082 -0.1037
56342DOD     C112845  15.341  11.682   6.371 -0.3378 -0.0180  0.3123
56342DOD     C212846  15.365  11.650   6.801 -0.0424 -0.1416  0.2731
56342DOD     C312847  15.711  11.837   7.076 -0.4168 -0.1995 -0.1629
56343DOD     C112848  16.369  29.523   9.006  0.1728  0.4344 -0.0645
56343DOD     C212849  16.470  29.943   8.928 -0.0545  0.0243  0.0511
56343DOD     C312850  16.632  30.202   8.596  0.2211  0.0915 -0.0319
56344DOD     C112851  19.391   4.785  17.706 -0.3346 -0.0399  0.0519
56344DOD     C212852  19.323   4.370  17.558 -0.0222 -0.1583 -0.2653
56344DOD     C312853  19.108   4.084  17.283 -0.0131 -0.1039 -0.1838
56345DOD     C112854   6.456   1.833   3.779  0.0469  0.2110 -0.1328
56345DOD     C212855   6.747   2.085   3.540  0.3420  0.1018 -0.1361
56345DOD     C312856   7.079   2.389   3.378  0.0465  0.3933 -0.2980
56346DOD     C112857  21.336   1.240   1.181 -0.1241 -0.0971  0.0915
56346DOD     C212858  21.446   1.640   1.376 -0.0595 -0.0468  0.1351
56346DOD     C312859  21.594   2.074   1.569  0.0373  0.1659 -0.1463
56347DOD     C112860   4.476  17.841  19.448 -0.0284  0.0057  0.0693
56347DOD     C212861   4.731  18.219  19.630  0.3234  0.0235 -0.0676
56347DOD     C312862   4.966  18.564  19.462  0.2164 -0.1132 -0.1414
56348DOD     C112863   7.594  29.113  14.638 -0.1972  0.1725  0.0347
56348DOD     C212864   7.900  29.457  14.530  0.4736 -0.1682  0.1245
56348DOD     C312865   8.072  29.933  14.527 -0.0583 -0.1684  0.0589
56349DOD     C112866   2.006  17.894  27.912 -0.0279 -0.0685 -0.1372
56349DOD     C212867   2.430  17.662  28.104 -0.1084 -0.1754  0.0233
56349DOD     C312868   2.527  17.216  28.328 -0.0888  0.1204 -0.1349
56350DOD     C112869   2.209  27.753  27.983 -0.1884 -0.2427 -0.1086
56350DOD     C212870   2.159  28.118  27.683  0.2147 -0.0342  0.1237
56350DOD     C312871   2.495  28.426  27.512  0.0521  0.2091  0.0186
56351DOD     C112872  30.027  22.721  13.239  0.1987 -0.3909  0.0509
56351DOD     C212873   0.161  22.683  13.302 -0.2551  0.1487  0.4861
56351DOD     C312874   0.587  22.639  13.536  0.3608 -0.2030 -0.0119
56352DOD     C112875   0.684   1.090  27.640  0.1981 -0.0009 -0.1780
56352DOD     C212876   1.030   1.467  27.524 -0.0309  0.0069  0.0086
56352DOD     C312877   1.360   1.764  27.586  0.1649  0.1085  0.0080
56353DOD     C112878   9.190  15.492  18.249 -0.2728  0.0383 -0.0007
56353DOD     C212879   8.905  15.509  17.912  0.0033 -0.0308 -0.2814
56353DOD     C312880   8.677  15.685  17.546  0.0586 -0.2297  0.1050
56354DOD     C112881  14.057  11.168  12.726 -0.1627 -0.1637  0.1427
56354DOD     C212882  14.405  11.292  13.008 -0.0097  0.3968 -0.2684
56354DOD     C312883  14.700  11.334  13.388 -0.1489 -0.0459  0.0355
56355DOD     C112884  26.472   4.240  11.369 -0.0267  0.2710  0.0574
56355DOD     C212885  26.070   4.452  11.130 -0.0145 -0.0061  0.0792
56355DOD     C312886  25.644   4.315  10.960  0.2724 -0.2263  0.2503
56356DOD     C112887   0.936  27.547  13.661 -0.2078 -0.1354 -0.0095
56356DOD     C212888   0.742  27.152  13.426  0.0482  0.1332 -0.0973
56356DOD     C312889   0.260  27.113  13.288 -0.0997  0.0362 -0.1177
56357DOD     C112890  26.762  28.010  14.635 -0.2113 -0.0611 -0.0489
56357DOD     C212891  26.750  27.957  14.228  0.2928 -0.3157 -0.2475
56357DOD     C312892  26.527  28.128  13.867 -0.3921 -0.0266 -0.0123
56358DOD     C112893  12.822  15.366  13.243 -0.1664  0.0790  0.1973
56358DOD     C212894  12.649  15.544  13.573  0.5170  0.2208  0.1312
56358DOD     C312895  12.849  15.919  13.657  0.0033 -0.0984 -0.0915
56359DOD     C112896  25.425   9.366   0.384 -0.1722 -0.0116 -0.3206
56359DOD     C212897  25.751   9.155   0.116  0.0189 -0.3234 -0.2329
56359DOD     C312898  26.187   9.035   0.083  0.0811  0.0561 -0.0425
56360DOD     C112899   3.922  30.253  19.614 -0.0872 -0.0128  0.1806
56360DOD     C212900   4.132  29.920  19.915 -0.0693  0.0278 -0.2752
56360DOD     C312901   4.332  29.495  19.814  0.0131  0.5248  0.1007
56361DOD     C112902   5.186   5.083   8.283 -0.3246 -0.1714 -0.0470
56361DOD     C212903   4.967   4.863   8.617  0.1501  0.0651 -0.3881
56361DOD     C312904   5.018   4.529   8.899 -0.0964  0.0546  0.1347
56362DOD     C112905  28.461  28.178  21.586 -0.0919 -0.3016 -0.0791
56362DOD     C212906  28.431  28.437  21.995  0.0202 -0.1068  0.5011
56362DOD     C312907  28.490  28.669  22.415 -0.5164 -0.2638 -0.0071
56363DOD     C112908   1.908   3.325   3.092  0.2755 -0.0143  0.2179
56363DOD     C212909   1.589   2.987   2.936  0.0452  0.3262 -0.0707
56363DOD     C312910   1.135   2.841   3.053 -0.2121  0.1522 -0.4209
56364DOD     C112911   1.744  11.100  26.270  0.0054 -0.0457  0.0238
56364DOD     C212912   2.147  11.421  26.280  0.2324  0.1847 -0.2441
56364DOD     C312913   2.438  11.728  26.062  0.2996  0.0715 -0.0841
56365DOD     C112914   4.921   8.524   8.221 -0.2907  0.1425 -0.4900
56365DOD     C212915   4.678   8.076   8.287 -0.1572 -0.0505  0.0058
56365DOD     C312916   4.344   7.822   8.323 -0.1526 -0.0739 -0.2334
56366DOD     C112917  11.489  11.868   6.670 -0.2098  0.0459  0.4051
56366DOD     C212918  11.300  12.180   6.387 -0.1742  0.1385  0.4953
56366DOD     C312919  11.261  12.613   6.159 -0.1072  0.1801 -0.0231
56367DOD     C112920  13.531  12.593  20.979 -0.0572  0.2077 -0.0481
56367DOD     C212921  13.395  12.120  21.063 -0.0089  0.0557  0.0875
56367DOD     C312922  12.922  12.059  21.123  0.3034 -0.1080 -0.0042
56368DOD     C112923  12.642  22.007  18.490 -0.4065 -0.0557 -0.0982
56368DOD     C212924  12.621  22.106  18.038  0.0984  0.0834  0.0538
56368DOD     C312925  12.424  22.085  17.641  0.0423  0.0256 -0.2085
56369DOD     C112926   1.157  10.475   3.793 -0.0343  0.1049 -0.1685
56369DOD     C212927   1.349  10.606   3.415 -0.2696  0.1777 -0.1611
56369DOD     C312928   1.631  10.557   3.040 -0.1335 -0.0886 -0.3638
56370DOD     C112929  18.223  26.814  24.470 -0.3159  0.2685  0.2603
56370DOD     C212930  18.449  26.790  24.915  0.0805  0.2683 -0.1168
56370DOD     C312931  18.532  26.564  25.291 -0.0216  0.0804 -0.1830
56371DOD     C112932  26.366   5.435  21.949  0.1680  0.2759  0.2318
56371DOD     C212933  26.064   5.497  21.590  0.3352  0.1014  0.1519
56371DOD     C312934  25.737   5.666  21.338  0.1548  0.2349  0.1343
56372DOD     C112935  24.329   0.708   1.488 -0.0580 -0.3685  0.1829
56372DOD     C212936  24.031   0.450   1.734 -0.2609 -0.0862  0.1367
56372DOD     C312937  23.881   0.027   1.557 -0.0818  0.1672  0.1632
56373DOD     C112938  16.843   6.157  21.429  0.2938  0.2639  0.0860
56373DOD     C212939  17.172   5.987  21.695 -0.3633  0.4360 -0.0389
56373DOD     C312940  17.662   6.015  21.812 -0.2221  0.1279  0.2262
56374DOD     C112941   7.622  20.532   0.783  0.1888 -0.0573 -0.2367
56374DOD     C212942   7.961  20.216   0.989  0.1315  0.1794 -0.0063
56374DOD     C312943   8.401  20.241   1.079  0.1375  0.3204 -0.0366
56375DOD     C112944  21.478  23.721   0.696  0.0725 -0.0935  0.2320
56375DOD     C212945  21.534  24.067   1.042 -0.1277  0.3517 -0.1377
56375DOD     C312946  21.711  24.517   1.135 -0.4927  0.0757 -0.0862
56376DOD     C112947   6.346  30.082   5.807 -0.1006  0.0411  0.2473
56376DOD     C212948   6.612  30.298   6.139 -0.0627  0.0279 -0.3017
56376DOD     C312949   6.801   0.424   6.284 -0.1562  0.2623  0.1734
56377DOD     C112950   8.790   7.098   9.243 -0.1264 -0.1668 -0.0119
56377DOD     C212951   9.115   6.959   8.925 -0.0413  0.0339  0.3671
56377DOD     C312952   9.526   6.935   8.681  0.3743  0.0420 -0.0531
56378DOD     C112953   4.043  22.601  14.010 -0.0317 -0.1023 -0.1315
56378DOD     C212954   3.842  22.564  13.563 -0.0407 -0.1607 -0.1760
56378DOD     C312955   3.437  22.563  13.373  0.2451 -0.1449  0.0675
56379DOD     C112956  22.188  22.983  26.169  0.1198  0.0099 -0.1626
56379DOD     C212957  22.549  22.641  26.237 -0.0445 -0.0612  0.1141
56379DOD     C312958  22.591  22.171  26.242  0.2411 -0.1694 -0.0604
56380DOD     C112959  25.026  27.526  11.011  0.1073  0.0476  0.1453
56380DOD     C212960  25.253  27.461  11.396 -0.1761  0.1075 -0.2008
56380DOD     C312961  25.113  27.364  11.839 -0.0966 -0.1009 -0.1314
56381DOD     C112962  10.844  11.128   2.811  0.0507  0.0027  0.0056
56381DOD     C212963  10.875  11.139   3.245 -0.1890  0.0095  0.2255
56381DOD     C312964  10.681  11.136   3.654 -0.2522 -0.2986 -0.2106
56382DOD     C112965  26.204   1.492   0.460 -0.1068 -0.1262  0.2107
56382DOD     C212966  25.821   1.621   0.665  0.0428  0.2938 -0.2225
56382DOD     C312967  25.562   1.753   0.980 -0.2433 -0.1183 -0.1163
56383DOD     C112968  22.024  12.825  17.614  0.3267  0.0475  0.1161
56383DOD     C212969  21.826  13.262  17.683 -0.1668  0.0485  0.0088
56383DOD     C312970  21.729  13.783  17.749 -0.4012  0.0569 -0.1813
56384DOD     C112971  25.455  18.785  29.183 -0.1037 -0.2549 -0.0227
56384DOD     C212972  25.626  18.328  29.253  0.2599  0.0290  0.0265
56384DOD     C312973  25.532  17.931  29.077 -0.1169 -0.2971 -0.0719
56385DOD     C112974  18.295  19.005  16.903  0.0340 -0.3774  0.3027
56385DOD     C212975  18.538  18.789  16.513 -0.3002  0.3083 -0.2001
56385DOD     C312976  18.577  18.460  16.158 -0.3375  0.0076 -0.1447
56386DOD     C112977  29.938  17.139  11.253  0.0460 -0.2656  0.0463
56386DOD     C212978  -0.024  17.407  11.385 -0.2248 -0.0222  0.1851
56386DOD     C312979   0.250  17.419  11.769 -0.1391  0.0035 -0.0169
56387DOD     C112980  18.681  11.258  24.652  0.0107  0.0153 -0.0535
56387DOD     C212981  19.083  11.210  24.881  0.2315 -0.1136  0.1794
56387DOD     C312982  19.351  11.207  25.218  0.3573 -0.1203 -0.0597
56388DOD     C112983  15.926   5.059  15.998 -0.1658  0.0687  0.0750
56388DOD     C212984  16.080   4.621  16.129  0.1321  0.5711  0.0844
56388DOD     C312985  16.565   4.693  16.203  0.0909  0.0109  0.0708
56389DOD     C112986   0.932  14.794  12.076  0.0131  0.3159 -0.2442
56389DOD     C212987   0.924  14.556  11.683  0.2875  0.0562 -0.3209
56389DOD     C312988   0.667  14.269  11.408  0.1759  0.0901 -0.3153
56390DOD     C112989   5.549  14.211   9.289 -0.1173  0.0965 -0.0872
56390DOD     C212990   5.965  14.198   9.540 -0.0457  0.0372 -0.4854
56390DOD     C312991   6.348  14.069   9.704 -0.0665  0.1637 -0.0410
56391DOD     C112992  16.528   8.465  21.193  0.0342 -0.0450  0.0256
56391DOD     C212993  16.553   8.905  21.309  0.0428 -0.0208 -0.0689
56391DOD     C312994  16.708   9.293  21.515 -0.0774  0.0496  0.1453
56392DOD     C112995  10.321  13.834  26.235 -0.0167  0.0099 -0.2293
56392DOD     C212996  10.470  13.634  26.634  0.2267 -0.0726  0.0616
56392DOD     C312997  10.451  13.653  27.108  0.1859 -0.1401 -0.1661
56393DOD     C112998  11.421   4.224   6.551 -0.3358 -0.2789 -0.1796
56393DOD     C212999  11.580   4.012   6.186 -0.0912 -0.4920 -0.0236
56393DOD     C313000  11.988   3.857   5.945 -0.1653  0.0469 -0.1093
56394DOD     C113001  26.344  22.153  21.409  0.0325  0.0363  0.0098
56394DOD     C213002  26.722  22.278  21.171  0.1645  0.1935 -0.2062
56394DOD     C313003  27.147  22.121  21.174  0.2175 -0.1257 -0.0826
56395DOD     C113004   8.151  14.547  30.157 -0.1491  0.1150 -0.0230
56395DOD     C213005   8.429  14.672  29.801  0.2404 -0.1337 -0.0163
56395DOD     C313006   8.457  15.012  29.504 -0.1976 -0.1092  0.0452
56396DOD     C113007  11.883  17.898  28.437 -0.1505 -0.2410 -0.1712
56396DOD     C213008  11.960  18.243  28.776  0.2345 -0.0231 -0.0790
56396DOD     C313009  12.214  18.292  29.161 -0.0013  0.0839  0.0751
56397DOD     C113010   8.564  13.776  14.067 -0.2032 -0.3070  0.3091
56397DOD     C213011   8.282  14.091  14.279  0.0879 -0.1701 -0.1031
56397DOD     C313012   8.260  14.551  14.495 -0.1220  0.1166 -0.1557
56398DOD     C113013   3.312  12.606   3.338  0.1742  0.2303 -0.3528
56398DOD     C213014   3.435  13.085   3.371 -0.1298 -0.1387 -0.4607
56398DOD     C313015   3.662  13.453   3.233  0.0787  0.3137 -0.1683
56399DOD     C113016   6.588   4.085  22.814  0.1936 -0.1093 -0.1643
56399DOD     C213017   6.287   4.298  23.096 -0.0035 -0.3941  0.3157
56399DOD     C313018   5.995   4.166  23.400  0.1818  0.1557  0.1117
56400DOD     C113019   5.247   2.811  23.493  0.2671  0.0991 -0.0596
56400DOD     C213020   5.379   2.386  23.589 -0.2344  0.1165  0.0099
56400DOD     C313021   5.714   2.160  23.743 -0.1480 -0.0782 -0.1321
56401DOD     C113022  12.451  19.486  16.107  0.0811 -0.0934 -0.1292
56401DOD     C213023  12.316  19.130  16.410  0.1161  0.1035  0.2609
56401DOD     C313024  12.323  19.053  16.844 -0.0280  0.0094 -0.2268
56402DOD     C113025  12.654  25.816   7.142 -0.0438  0.1921  0.2582
56402DOD     C213026  13.102  25.743   7.331 -0.2475  0.1479 -0.0522
56402DOD     C313027  13.282  25.470   7.634  0.1165 -0.5599  0.2204
56403DOD     C113028   7.198   6.639  22.548 -0.0404 -0.2464  0.1561
56403DOD     C213029   7.626   6.823  22.415  0.0512 -0.2523  0.0337
56403DOD     C313030   8.090   6.790  22.500  0.0170  0.1223  0.0418
56404DOD     C113031   8.961  15.071  23.599 -0.0000  0.1312  0.4767
56404DOD     C213032   9.097  14.645  23.462  0.1340  0.1114  0.0652
56404DOD     C313033   9.456  14.371  23.421 -0.1491 -0.2042  0.1156
56405DOD     C113034   5.540  20.988  14.321 -0.0379  0.0668 -0.0336
56405DOD     C213035   5.814  20.995  13.953  0.1478  0.0061 -0.0199
56405DOD     C313036   6.121  21.195  13.653  0.0564  0.1265  0.1490
56406DOD     C113037  26.559  24.800   0.788 -0.1791  0.1098 -0.3782
56406DOD     C213038  26.696  24.854   0.351  0.0171  0.4556 -0.0246
56406DOD     C313039  26.770  24.777  30.220  0.0109  0.0891  0.0115
56407DOD     C113040  12.501  25.320  28.697  0.2497 -0.2022  0.4831
56407DOD     C213041  12.634  25.617  28.387 -0.2092 -0.1783  0.3131
56407DOD     C313042  12.709  25.743  27.921 -0.0946 -0.2507 -0.1483
56408DOD     C113043   1.663   2.028   3.087  0.0414  0.2294  0.0128
56408DOD     C213044   1.439   2.002   2.666  0.1429 -0.2238  0.0358
56408DOD     C313045   1.360   1.922   2.224  0.0401 -0.3099  0.0474
56409DOD     C113046  12.940   8.359  16.437  0.0915  0.1543  0.0793
56409DOD     C213047  12.591   8.590  16.670  0.0553 -0.0031  0.1434
56409DOD     C313048  12.312   9.007  16.710 -0.0981  0.1606  0.0099
56410DOD     C113049  26.412  19.726  18.858  0.3205 -0.0099 -0.0460
56410DOD     C213050  25.988  19.607  18.727  0.0238 -0.0883  0.3045
56410DOD     C313051  25.606  19.540  18.871  0.1609 -0.2030  0.2485
56411DOD     C113052  28.777  19.469  27.362  0.0652 -0.0734 -0.1873
56411DOD     C213053  29.071  19.357  27.767 -0.2647  0.1664 -0.0885
56411DOD     C313054  29.288  19.487  28.219  0.0487  0.4144 -0.0252
56412DOD     C113055   4.701   0.991   1.663  0.0994 -0.4470 -0.1023
56412DOD     C213056   4.588   0.630   1.369  0.1952  0.1283 -0.1356
56412DOD     C313057   4.135   0.625   1.221 -0.3994 -0.0356  0.1252
56413DOD     C113058   0.228  26.335   1.768 -0.0095 -0.2319  0.0802
56413DOD     C213059   0.593  26.201   2.032  0.1945  0.2064  0.2609
56413DOD     C313060   0.823  26.179   2.435  0.3333 -0.2735  0.1907
56414DOD     C113061  26.508  29.768  24.620 -0.1486 -0.0035  0.2588
56414DOD     C213062  26.873  29.567  24.407  0.2393  0.2046 -0.2036
56414DOD     C313063  27.262  29.554  24.144 -0.0321  0.1466 -0.2612
56415DOD     C113064  10.705   0.619  29.204  0.0258 -0.0480 -0.2298
56415DOD     C213065  10.296   0.710  29.303  0.0011  0.1063 -0.1951
56415DOD     C313066  10.050   1.033  29.576 -0.0805 -0.0289 -0.1873
56416DOD     C113067   4.506   8.977  25.106  0.2534  0.0836  0.2228
56416DOD     C213068   4.232   8.773  25.415 -0.1514 -0.3483 -0.2058
56416DOD     C313069   4.074   8.432  25.704 -0.1862 -0.0032 -0.0820
56417DOD     C113070   8.482   5.783  10.131  0.1577  0.1341  0.1352
56417DOD     C213071   8.174   6.003  10.474 -0.0730  0.3197 -0.1293
56417DOD     C313072   7.933   6.192  10.794 -0.0788  0.1221 -0.0483
56418DOD     C113073  23.887  12.838   9.743  0.2256 -0.0149 -0.2564
56418DOD     C213074  23.949  12.411   9.522 -0.0441 -0.0297 -0.1361
56418DOD     C313075  23.959  12.038   9.875  0.2719 -0.1675  0.2477
56419DOD     C113076  25.146   1.084   1.977 -0.1088  0.1600 -0.0220
56419DOD     C213077  24.680   1.125   2.065  0.1927  0.0128 -0.0711
56419DOD     C313078  24.242   1.232   2.199 -0.1418  0.2574 -0.1951
56420DOD     C113079  28.520  24.275  10.324  0.2183 -0.0919  0.1009
56420DOD     C213080  28.455  23.962  10.720 -0.1024 -0.1224  0.3206
56420DOD     C313081  28.220  23.706  11.025 -0.0236 -0.0322 -0.0233
56421DOD     C113082  11.697   8.242  15.968 -0.0439 -0.1060  0.2760
56421DOD     C213083  11.433   8.220  15.591 -0.0864 -0.0763 -0.0143
56421DOD     C313084  11.504   8.288  15.182  0.1191  0.1467  0.2138
56422DOD     C113085   0.648   1.354  24.599 -0.1813 -0.0407 -0.0823
56422DOD     C213086   0.323   1.528  24.856 -0.1572  0.0121 -0.2727
56422DOD     C313087   0.073   1.675  25.206  0.1030  0.1411  0.0031
56423DOD     C113088  12.435   2.260  13.499  0.1312 -0.1439  0.1253
56423DOD     C213089  12.913   2.301  13.523  0.1584 -0.1421 -0.4197
56423DOD     C313090  13.131   2.396  13.917 -0.0905  0.2259 -0.0745
56424DOD     C113091  20.954  24.863  12.891  0.2466 -0.3921  0.2903
56424DOD     C213092  21.029  24.480  13.197  0.2392 -0.0010 -0.1668
56424DOD     C313093  21.185  24.093  13.481 -0.1520  0.1305 -0.1189
56425DOD     C113094   5.656  18.524   2.389  0.1246 -0.2500 -0.0116
56425DOD     C213095   6.057  18.311   2.395 -0.2799  0.1036  0.0385
56425DOD     C313096   6.273  17.990   2.104 -0.1112  0.2863  0.3075
56426DOD     C113097  19.658  25.806   6.389 -0.0896  0.0441 -0.0800
56426DOD     C213098  19.874  25.641   6.002  0.1427 -0.0341 -0.0849
56426DOD     C313099  19.918  25.221   5.744  0.1111 -0.0545  0.0937
56427DOD     C113100  16.512   8.679  26.707  0.0139 -0.1931  0.1958
56427DOD     C213101  16.425   8.327  26.394  0.3298  0.0716  0.0965
56427DOD     C313102  16.329   7.907  26.102  0.1318  0.0296 -0.3922
56428DOD     C113103  18.367   3.853  22.816  0.2515  0.0877 -0.0369
56428DOD     C213104  18.266   3.714  22.411 -0.1274  0.2562 -0.1363
56428DOD     C313105  18.487   3.746  21.989 -0.3033 -0.2691  0.0463
56429DOD     C113106   7.549  14.254   4.043 -0.1280  0.1302  0.2062
56429DOD     C213107   7.388  13.807   4.217  0.0846  0.3683  0.2682
56429DOD     C313108   7.550  13.400   4.428 -0.0238  0.0746  0.2731
56430DOD     C113109  21.075  16.732   5.682 -0.0432  0.0908  0.1125
56430DOD     C213110  21.391  16.684   6.042  0.0310 -0.0817  0.0332
56430DOD     C313111  21.595  16.637   6.479 -0.0237 -0.3967 -0.0387
56431DOD     C113112  26.080  15.295  22.959 -0.2315 -0.0301 -0.1506
56431DOD     C213113  25.694  15.120  22.712  0.0784  0.3083 -0.2069
56431DOD     C313114  25.485  14.762  22.534  0.3222 -0.1802 -0.1739
56432DOD     C113115  22.513  18.761   5.552  0.3319  0.0987  0.1759
56432DOD     C213116  22.929  18.517   5.584  0.1051 -0.0804 -0.3399
56432DOD     C313117  23.326  18.542   5.445  0.0512 -0.0405 -0.1370
56433DOD     C113118  25.460  18.291   1.777  0.0978 -0.0209  0.1097
56433DOD     C213119  25.644  17.917   1.577 -0.2968 -0.0526 -0.0957
56433DOD     C313120  26.038  17.932   1.305  0.2114 -0.0550 -0.1134
56434DOD     C113121  21.104  17.195  19.814  0.1890  0.1845  0.3905
56434DOD     C213122  20.665  17.270  19.697 -0.0716  0.0976 -0.2249
56434DOD     C313123  20.596  17.601  19.367 -0.0985  0.1052  0.0631
56435DOD     C113124  16.513  24.530   8.211  0.0379  0.0405 -0.4025
56435DOD     C213125  16.765  24.925   8.161  0.0412 -0.0430  0.1364
56435DOD     C313126  17.072  25.223   8.237  0.0256  0.0312  0.2224
56436DOD     C113127  23.845  15.250  26.922 -0.1849  0.0074 -0.2132
56436DOD     C213128  23.501  15.552  27.051 -0.0651  0.1975 -0.1315
56436DOD     C313129  23.570  15.973  26.856 -0.0848  0.0438  0.2226
56437DOD     C113130   1.076  24.564   5.209 -0.4364 -0.1567  0.0657
56437DOD     C213131   1.223  24.391   4.820 -0.0004 -0.0050  0.2177
56437DOD     C313132   1.005  24.128   4.472  0.0878 -0.1151  0.1011
56438DOD     C113133  18.298  26.645   5.036  0.1256  0.3716  0.0605
56438DOD     C213134  18.518  26.287   4.855  0.1011 -0.1559  0.1296
56438DOD     C313135  18.839  26.078   4.587  0.0817 -0.0332 -0.1275
56439DOD     C113136  25.246  13.985  22.776  0.1037 -0.1740 -0.0336
56439DOD     C213137  25.203  13.726  22.355  0.2708  0.0041  0.0197
56439DOD     C313138  25.160  13.258  22.205  0.0387  0.4213 -0.0838
56440DOD     C113139  26.075  12.102   7.925 -0.2230  0.0147 -0.1587
56440DOD     C213140  25.876  12.381   8.217  0.0445  0.0098 -0.1468
56440DOD     C313141  25.794  12.662   8.563  0.0341 -0.0574  0.0960
56441DOD     C113142  15.079  27.775  10.691  0.1943  0.0767 -0.0425
56441DOD     C213143  15.059  28.113  10.334  0.3256 -0.3477 -0.2484
56441DOD     C313144  15.213  28.341  10.005 -0.3519 -0.2560  0.0350
56442DOD     C113145  25.592   0.854  28.231 -0.2542 -0.0461  0.0541
56442DOD     C213146  25.209   0.723  28.071 -0.1023 -0.5107 -0.2106
56442DOD     C313147  24.757   1.004  28.128 -0.0246  0.0760 -0.1443
56443DOD     C113148  18.523  16.412  22.103  0.1898  0.2709  0.3719
56443DOD     C213149  18.417  16.105  21.726  0.0778  0.0738  0.0654
56443DOD     C313150  18.098  15.955  21.415  0.2357 -0.0453  0.0275
56444DOD     C113151  29.698   2.856  26.657  0.4152  0.2318 -0.1073
56444DOD     C213152  30.079   2.675  26.486  0.0374  0.1844 -0.0432
56444DOD     C313153   0.138   2.448  26.688 -0.4898  0.1269  0.0185
56445DOD     C113154  27.572  18.612  22.762 -0.0646  0.0728  0.1559
56445DOD     C213155  27.522  19.113  22.730 -0.1414  0.1028 -0.2171
56445DOD     C313156  27.286  19.456  22.998  0.2834 -0.3408 -0.0034
56446DOD     C113157  22.803   0.057  26.277 -0.0045  0.1191  0.0731
56446DOD     C213158  23.239   0.183  26.288 -0.1773  0.1948  0.1151
56446DOD     C313159  23.501   0.437  25.993 -0.2577  0.1207 -0.2367
56447DOD     C113160   0.581  23.485  17.983 -0.1441  0.1869 -0.1171
56447DOD     C213161   0.952  23.635  18.154 -0.2671 -0.1077  0.0447
56447DOD     C313162   1.185  24.028  18.112  0.0108 -0.1260 -0.0521
56448DOD     C113163   7.326   1.502  17.183  0.0929  0.0704  0.2950
56448DOD     C213164   7.145   1.923  16.981 -0.2783 -0.2895  0.0312
56448DOD     C313165   6.697   2.141  16.929 -0.0214 -0.2007 -0.0233
56449DOD     C113166  10.811  17.510  13.293  0.2297  0.0120  0.0869
56449DOD     C213167  10.999  17.902  13.019 -0.0887  0.2934  0.2027
56449DOD     C313168  11.236  18.304  12.931  0.0600 -0.2213  0.6405
56450DOD     C113169  17.296  26.939   5.150  0.0872  0.3857 -0.0988
56450DOD     C213170  17.478  27.348   5.341 -0.0312  0.0938 -0.2880
56450DOD     C313171  17.659  27.719   5.570  0.0448  0.1798 -0.1331
56451DOD     C113172   7.907  11.637  12.717 -0.4112 -0.1346 -0.2898
56451DOD     C213173   7.578  11.296  12.530 -0.1259  0.0022  0.1372
56451DOD     C313174   7.290  11.096  12.159 -0.1918 -0.1680  0.1223
56452DOD     C113175  25.543   0.161  30.252 -0.1686 -0.0217 -0.3117
56452DOD     C213176  25.616  30.054   0.115 -0.2318 -0.4875 -0.0336
56452DOD     C313177  25.922  29.834   0.372 -0.0776  0.2453 -0.1631
56453DOD     C113178  28.249   4.010  12.643 -0.0829  0.1792  0.2177
56453DOD     C213179  27.905   3.780  12.942  0.1251  0.3240  0.2233
56453DOD     C313180  27.447   3.620  12.886  0.1066 -0.3873  0.0537
56454DOD     C113181   7.645  19.207   0.311 -0.0130  0.2127  0.0962
56454DOD     C213182   8.094  19.322   0.481  0.0317 -0.1005  0.2824
56454DOD     C313183   8.540  19.352   0.562  0.2215 -0.2657 -0.1118
56455DOD     C113184  12.628  23.596  27.449 -0.3067  0.0375  0.5197
56455DOD     C213185  12.409  23.619  26.998 -0.4432  0.2165 -0.0242
56455DOD     C313186  12.447  23.615  26.506  0.1500 -0.1839  0.2862
56456DOD     C113187  22.966  14.468   8.323  0.1003 -0.4552 -0.0084
56456DOD     C213188  22.616  14.458   8.079  0.3759 -0.2121  0.2999
56456DOD     C313189  22.452  14.247   7.675 -0.0561 -0.0892 -0.1617
56457DOD     C113190  19.849  10.574  25.546 -0.0079  0.2811 -0.2377
56457DOD     C213191  20.201  10.268  25.533 -0.0068  0.1598 -0.1587
56457DOD     C313192  20.447   9.902  25.372 -0.0064 -0.1537  0.0695
56458DOD     C113193  27.721   3.445   2.151 -0.2892 -0.3132 -0.1547
56458DOD     C213194  27.740   3.111   1.824  0.0910  0.1653 -0.0023
56458DOD     C313195  28.055   2.751   1.768  0.3320 -0.0547 -0.2079
56459DOD     C113196  23.169  16.722  17.341 -0.0946  0.0559  0.4128
56459DOD     C213197  22.663  16.641  17.490 -0.2049 -0.0320  0.0059
56459DOD     C313198  22.289  16.387  17.560 -0.0885 -0.0291 -0.0796
56460DOD     C113199  13.568   0.930  20.103 -0.2121 -0.4081  0.0128
56460DOD     C213200  14.028   0.874  19.960 -0.1468  0.1924 -0.4364
56460DOD     C313201  14.388   0.615  19.828  0.0108  0.1682  0.0654
56461DOD     C113202  18.397  13.535  22.391 -0.1182 -0.2694 -0.1343
56461DOD     C213203  18.605  13.911  22.495  0.0560 -0.1660  0.1477
56461DOD     C313204  18.865  14.255  22.438  0.3180 -0.1183 -0.1778
56462DOD     C113205  18.701   4.418  12.604  0.2447 -0.0449  0.0924
56462DOD     C213206  18.242   4.468  12.673  0.2709  0.2754  0.0071
56462DOD     C313207  17.858   4.693  12.794 -0.0069  0.1362 -0.0121
56463DOD     C113208  25.809   0.057  16.743 -0.0002 -0.0216 -0.0733
56463DOD     C213209  25.611  30.346  17.191 -0.0015  0.3794 -0.2382
56463DOD     C313210  25.427  30.295  17.601  0.1769  0.0339 -0.4035
56464DOD     C113211   6.369  17.222  14.522  0.1157 -0.3409  0.1188
56464DOD     C213212   6.203  16.760  14.441  0.1098 -0.0042 -0.0695
56464DOD     C313213   5.915  16.378  14.373  0.0329 -0.1762  0.1092
56465DOD     C113214  22.320  24.221  19.149  0.0231  0.0287 -0.2532
56465DOD     C213215  22.571  24.555  19.375 -0.1546 -0.1369  0.0610
56465DOD     C313216  22.634  24.920  19.703  0.0503  0.3101  0.1640
56466DOD     C113217  16.700  29.057  29.966  0.4317  0.0337 -0.0941
56466DOD     C213218  17.108  29.023  30.106  0.0090 -0.0932  0.0028
56466DOD     C313219  17.529  28.760  30.244  0.3039  0.0864 -0.3289
56467DOD     C113220   5.798  22.865   7.978 -0.3527  0.2969  0.0828
56467DOD     C213221   5.718  22.419   7.924 -0.6158  0.0587  0.3748
56467DOD     C313222   5.841  22.008   7.726 -0.0040  0.0777  0.0076
56468DOD     C113223  22.462  18.824  16.396 -0.0907  0.1351  0.0820
56468DOD     C213224  22.048  18.992  16.551  0.5791  0.1695 -0.0977
56468DOD     C313225  21.917  19.407  16.683  0.0980  0.1112 -0.1746
56469DOD     C113226  28.122   2.210  27.154  0.1131  0.1328  0.0760
56469DOD     C213227  27.883   2.464  27.506  0.2303 -0.3488  0.1566
56469DOD     C313228  27.610   2.776  27.825 -0.0081 -0.0009 -0.0378
56470DOD     C113229  24.531   4.525  10.471  0.1041  0.0830  0.1904
56470DOD     C213230  24.668   4.327  10.072 -0.2291  0.0497  0.4967
56470DOD     C313231  24.632   4.196   9.658 -0.1841  0.1051  0.1875
56471DOD     C113232   9.328  29.065  15.188 -0.1165 -0.3495  0.1041
56471DOD     C213233   9.738  29.229  15.078  0.1427 -0.1921 -0.0766
56471DOD     C313234  10.056  29.087  14.743 -0.3899  0.1797  0.0969
56472DOD     C113235   2.007  28.157  10.881 -0.2006 -0.1130 -0.0344
56472DOD     C213236   2.373  27.923  11.075  0.0891 -0.4079  0.0409
56472DOD     C313237   2.494  27.456  11.130  0.0720 -0.2319 -0.1259
56473DOD     C113238  18.659  11.949  29.294  0.1240  0.1221 -0.3080
56473DOD     C213239  18.839  11.486  29.140  0.1257 -0.2372  0.2094
56473DOD     C313240  18.777  11.232  28.760 -0.2148 -0.2359  0.4472
56474DOD     C113241  15.496  19.591  21.498  0.2235  0.1069  0.0380
56474DOD     C213242  15.253  19.484  21.841 -0.0916  0.0483  0.1835
56474DOD     C313243  15.411  19.530  22.342  0.2242 -0.1069 -0.0253
56475DOD     C113244  14.032  26.351  26.748 -0.0559  0.1747 -0.0314
56475DOD     C213245  14.352  26.103  26.532  0.2210  0.0097 -0.0415
56475DOD     C313246  14.332  25.665  26.465 -0.3245 -0.2218 -0.1063
56476DOD     C113247  13.628  18.689  21.108 -0.1075 -0.0029 -0.0797
56476DOD     C213248  13.402  18.394  21.324 -0.0875  0.2490 -0.0726
56476DOD     C313249  13.262  18.091  21.680  0.0573  0.2082  0.0298
56477DOD     C113250   4.228   8.275   3.742 -0.3326 -0.1274  0.0822
56477DOD     C213251   4.082   8.276   4.206 -0.3267 -0.1920 -0.2766
56477DOD     C313252   3.941   8.071   4.635  0.2709 -0.1674 -0.0495
56478DOD     C113253   6.035  28.134   4.570  0.0729  0.1795  0.0569
56478DOD     C213254   6.231  27.731   4.633 -0.1205  0.0167 -0.0794
56478DOD     C313255   6.488  27.397   4.825  0.0760  0.0698 -0.2888
56479DOD     C113256  12.320   4.895   9.755 -0.2537  0.5387  0.3089
56479DOD     C213257  12.535   5.313   9.682  0.1033 -0.0752 -0.2805
56479DOD     C313258  12.680   5.781   9.726 -0.0576 -0.3656  0.2100
56480DOD     C113259  26.557  14.590  13.785  0.0530  0.0307 -0.0830
56480DOD     C213260  26.901  14.639  14.081  0.1559 -0.3426 -0.1780
56480DOD     C313261  27.263  14.831  14.355  0.1476  0.2642  0.3171
56481DOD     C113262   9.146  16.603  10.328 -0.1336 -0.0113 -0.1226
56481DOD     C213263   9.057  17.074  10.490 -0.0875  0.4173  0.1703
56481DOD     C313264   8.883  17.432  10.658  0.0820 -0.4985  0.0683
56482DOD     C113265   7.287  29.746  22.979 -0.0578  0.1184  0.0142
56482DOD     C213266   6.952  30.107  22.909 -0.1022 -0.0573 -0.1587
56482DOD     C313267   6.754   0.241  23.024 -0.3713 -0.0508  0.3495
56483DOD     C113268  12.257  18.672  16.209  0.1413  0.0280 -0.0861
56483DOD     C213269  11.954  18.708  16.477  0.0778  0.0846  0.0215
56483DOD     C313270  11.714  19.050  16.546  0.0732 -0.0704  0.0682
56484DOD     C113271  24.332  20.481  24.262  0.0776  0.0464  0.0773
56484DOD     C213272  24.750  20.337  24.160  0.0905  0.1318  0.1615
56484DOD     C313273  25.067  20.062  24.340  0.3603 -0.0928 -0.0991
56485DOD     C113274  25.473  19.955   2.922 -0.0263  0.1909 -0.0137
56485DOD     C213275  25.749  19.587   3.064  0.2338 -0.2038 -0.2337
56485DOD     C313276  25.670  19.110   3.172 -0.2999 -0.1193 -0.0021
56486DOD     C113277  10.004  11.497  19.818  0.1809  0.3540  0.0862
56486DOD     C213278   9.860  11.214  20.096 -0.2785 -0.0673  0.4417
56486DOD     C313279   9.653  10.958  20.457 -0.0931 -0.3102 -0.2201
56487DOD     C113280  22.031   1.824  11.008 -0.0880  0.0342  0.0566
56487DOD     C213281  22.138   2.020  10.598 -0.1377 -0.1230  0.1072
56487DOD     C313282  21.899   2.319  10.295  0.2144 -0.0469  0.1439
56488DOD     C113283  14.379   5.724   2.610  0.1685  0.1930  0.1541
56488DOD     C213284  14.314   5.309   2.537  0.0785 -0.3805  0.5083
56488DOD     C313285  13.937   5.049   2.351 -0.2100 -0.0876 -0.1807
56489DOD     C113286  15.953  27.206  28.746  0.4779 -0.0548 -0.2487
56489DOD     C213287  15.589  27.519  28.921 -0.0891 -0.0392  0.2928
56489DOD     C313288  15.222  27.607  28.682  0.1954  0.0584 -0.0582
56490DOD     C113289  17.019   1.552  26.672  0.0140 -0.0313  0.0209
56490DOD     C213290  17.182   1.521  27.112  0.2305 -0.2789 -0.1450
56490DOD     C313291  17.416   1.610  27.562 -0.0183  0.1997  0.0006
56491DOD     C113292  29.037   2.348   3.528 -0.3966  0.1216  0.0594
56491DOD     C213293  28.745   2.086   3.352  0.0575  0.3219  0.2387
56491DOD     C313294  28.445   1.882   3.161  0.3386 -0.1424  0.0161
56492DOD     C113295   3.189  19.048  13.502 -0.1038 -0.1576  0.2543
56492DOD     C213296   2.805  18.834  13.769  0.0571 -0.2754 -0.1525
56492DOD     C313297   2.487  18.807  14.040 -0.1900 -0.1305 -0.1442
56493DOD     C113298  16.453  19.957  24.156 -0.0641 -0.0874 -0.0031
56493DOD     C213299  16.071  19.948  23.908 -0.3060  0.0487 -0.0079
56493DOD     C313300  15.638  20.175  23.933 -0.0357  0.0599  0.3079
56494DOD     C113301   5.160  26.970   5.827  0.0124 -0.3057 -0.3320
56494DOD     C213302   5.623  26.850   5.721 -0.1381  0.1168 -0.1673
56494DOD     C313303   6.071  26.782   5.765  0.1039 -0.0582  0.3825
56495DOD     C113304  21.482  26.397   3.992 -0.0826 -0.0695  0.0159
56495DOD     C213305  21.541  26.469   4.462 -0.1759  0.0947 -0.1231
56495DOD     C313306  21.327  26.204   4.727  0.0153  0.2198  0.0776
56496DOD     C113307  18.634  19.334   4.745 -0.0236 -0.1521  0.1764
56496DOD     C213308  18.332  19.567   4.499 -0.3064 -0.2565  0.0967
56496DOD     C313309  18.072  19.509   4.099  0.0463 -0.2239 -0.1251
56497DOD     C113310  11.804  10.272  12.396  0.3270  0.0103  0.1257
56497DOD     C213311  11.917   9.959  12.031 -0.4176  0.1108  0.0616
56497DOD     C313312  11.775   9.664  11.728  0.3049  0.3063  0.0829
56498DOD     C113313  24.539  21.627   0.141  0.1608 -0.0270 -0.2102
56498DOD     C213314  24.435  21.149   0.125  0.1318  0.0673 -0.0678
56498DOD     C313315  24.206  20.832  30.134  0.2767 -0.4856 -0.1550
56499DOD     C113316  15.881   7.947  19.405 -0.2151  0.0042 -0.2333
56499DOD     C213317  15.947   8.303  19.677  0.0628 -0.1063 -0.1656
56499DOD     C313318  16.154   8.770  19.682  0.0244 -0.0882  0.0283
56500DOD     C113319   0.613  28.615   1.345  0.1928 -0.0336  0.1932
56500DOD     C213320   0.425  29.044   1.280  0.0210  0.0010  0.4019
56500DOD     C313321   0.104  29.331   1.176 -0.1853 -0.1626 -0.1299
56501DOD     C113322  19.512  19.978   1.576  0.4764 -0.0051 -0.1554
56501DOD     C213323  19.833  19.622   1.595  0.0737  0.0215  0.2957
56501DOD     C313324  20.032  19.217   1.508 -0.1250 -0.0114  0.2499
56502DOD     C113325  18.256  24.746  24.839  0.3410  0.0013 -0.0998
56502DOD     C213326  18.059  24.634  24.422 -0.1208  0.1007  0.4025
56502DOD     C313327  17.642  24.690  24.247 -0.0472 -0.0962  0.1523
56503DOD     C113328   9.459  12.354   5.693  0.2886  0.0151 -0.0171
56503DOD     C213329   9.209  12.724   5.821 -0.3822 -0.1842 -0.1056
56503DOD     C313330   9.026  13.128   5.912 -0.0869  0.1093 -0.2943
56504DOD     C113331  29.760  11.745   3.371 -0.1808  0.0426 -0.2563
56504DOD     C213332  30.235  11.784   3.360 -0.0943 -0.2410 -0.0885
56504DOD     C313333   0.220  12.044   2.994  0.0463 -0.0006  0.1137
56505DOD     C113334   8.080   6.933  25.606 -0.1583 -0.1598  0.0956
56505DOD     C213335   7.812   7.228  25.358  0.1486  0.1538  0.2130
56505DOD     C313336   7.741   7.473  24.954  0.2139 -0.0202  0.0258
56506DOD     C113337  25.100   4.077   8.394  0.1914 -0.1543 -0.1405
56506DOD     C213338  24.924   4.161   7.972 -0.2123  0.0660  0.0431
56506DOD     C313339  24.619   4.159   7.597 -0.0237  0.0681  0.1448
56507DOD     C113340   4.922  19.119  27.079  0.2364  0.1152 -0.0532
56507DOD     C213341   4.713  19.552  26.943  0.2292  0.0677 -0.0978
56507DOD     C313342   4.785  19.811  26.519  0.2503  0.1841  0.0155
56508DOD     C113343  10.932   4.518   8.709 -0.2687  0.3941  0.0704
56508DOD     C213344  10.820   4.868   8.438  0.1536  0.1357  0.0988
56508DOD     C313345  10.660   5.303   8.509 -0.0583 -0.0053 -0.0241
56509DOD     C113346  24.862  19.481  16.424  0.0600  0.1340 -0.0364
56509DOD     C213347  24.462  19.209  16.478  0.0413  0.4831 -0.1203
56509DOD     C313348  24.094  19.123  16.711  0.2943 -0.0393 -0.0003
56510DOD     C113349  16.618  26.345  25.069 -0.1444 -0.0661 -0.0365
56510DOD     C213350  16.970  26.211  24.874 -0.0333 -0.2671 -0.2477
56510DOD     C313351  16.945  25.844  24.679  0.1783  0.2207  0.0742
56511DOD     C113352  14.473  19.611  12.296 -0.0914  0.1283 -0.2653
56511DOD     C213353  14.808  19.639  12.681 -0.1559  0.0087 -0.1154
56511DOD     C313354  14.646  19.484  13.115 -0.0349  0.1641  0.1163
56512DOD     C113355   9.304   8.832  19.961  0.2446  0.1053  0.3025
56512DOD     C213356   9.612   8.456  19.843  0.0362 -0.1845  0.0388
56512DOD     C313357   9.632   7.996  19.886 -0.2119  0.1130  0.0967
56513DOD     C113358  14.014  17.935   9.667  0.0218 -0.1640 -0.0605
56513DOD     C213359  13.848  17.550   9.899  0.2643  0.1859  0.1496
56513DOD     C313360  14.158  17.241  10.086 -0.0159  0.0286  0.0456
56514DOD     C113361  27.891  25.531  20.380  0.0232  0.1050 -0.0762
56514DOD     C213362  27.724  25.168  20.161 -0.1434  0.3481 -0.0438
56514DOD     C313363  27.406  24.809  20.192 -0.0472  0.0019 -0.1246
56515DOD     C113364   7.404  17.072  18.247  0.0098 -0.0226 -0.0710
56515DOD     C213365   7.618  17.202  17.910 -0.1530 -0.1656 -0.1302
56515DOD     C313366   7.705  17.509  17.588  0.1365 -0.1293  0.0372
56516DOD     C113367  11.080   3.379   0.608 -0.0535  0.2665  0.0708
56516DOD     C213368  11.182   2.995   0.904 -0.3608 -0.1798 -0.0188
56516DOD     C313369  11.348   2.738   1.222 -0.0637  0.2357  0.0449
56517DOD     C113370  26.198   7.942  13.059  0.0128 -0.1151 -0.1559
56517DOD     C213371  26.612   8.122  13.311 -0.1782 -0.2178  0.0653
56517DOD     C313372  27.084   8.027  13.223  0.0635  0.2260  0.2131
56518DOD     C113373  16.988  25.699  18.690 -0.0152  0.1000  0.0328
56518DOD     C213374  17.103  26.068  18.977  0.4147  0.1781 -0.0741
56518DOD     C313375  16.930  26.238  19.367 -0.1927 -0.3357 -0.2148
56519DOD     C113376  24.320  12.658  25.676 -0.0941  0.0488  0.2301
56519DOD     C213377  24.606  12.990  25.755 -0.0161  0.1787 -0.0273
56519DOD     C313378  24.922  13.154  26.094  0.0274 -0.2546  0.4473
56520DOD     C113379  29.933  19.828  12.294  0.3401  0.0802 -0.0629
56520DOD     C213380  30.051  20.340  12.356 -0.1820 -0.1209  0.0471
56520DOD     C313381   0.042  20.520  12.634  0.0108  0.5257  0.0099
56521DOD     C113382  11.665  29.291   4.729  0.2731 -0.0308 -0.2829
56521DOD     C213383  12.100  29.263   4.726  0.2171  0.2802 -0.2687
56521DOD     C313384  12.486  29.155   4.959 -0.3006  0.3213 -0.0552
56522DOD     C113385   3.598   3.532   7.372  0.1054  0.2629  0.0484
56522DOD     C213386   3.688   3.643   7.816  0.1202 -0.1083 -0.0554
56522DOD     C313387   3.406   3.965   8.085  0.2746 -0.0609  0.2456
56523DOD     C113388  23.756   7.015  21.281 -0.1385  0.3293 -0.0748
56523DOD     C213389  23.808   6.607  21.458 -0.0127  0.3252 -0.3998
56523DOD     C313390  24.051   6.378  21.792  0.1988  0.1119 -0.1576
56524DOD     C113391  10.635   5.029  26.644 -0.1353 -0.1228  0.1340
56524DOD     C213392  11.049   4.838  26.859  0.0681  0.1955 -0.0112
56524DOD     C313393  11.108   4.413  27.138  0.2297  0.0381 -0.1704
56525DOD     C113394  24.905   5.911  13.004 -0.1174 -0.2743  0.2008
56525DOD     C213395  24.925   5.480  12.770 -0.0061 -0.0287  0.0019
56525DOD     C313396  24.889   5.381  12.282 -0.0344 -0.1666  0.0744
56526DOD     C113397   6.343   5.856  21.255 -0.1471  0.3181 -0.0750
56526DOD     C213398   5.923   5.941  21.359  0.1789  0.0007  0.0967
56526DOD     C313399   5.485   5.882  21.504 -0.0497 -0.0608  0.1264
56527DOD     C113400   5.796  29.443  23.269  0.1508 -0.2793 -0.1565
56527DOD     C213401   6.192  29.631  23.156  0.1630 -0.0123  0.1540
56527DOD     C313402   6.568  29.781  22.860  0.2431 -0.0559  0.1516
56528DOD     C113403  21.291  25.890  27.485 -0.4596 -0.1025  0.0884
56528DOD     C213404  21.404  26.310  27.599  0.2279  0.1801 -0.6189
56528DOD     C313405  21.470  26.723  27.814 -0.0259 -0.0280 -0.1263
56529DOD     C113406  11.158   5.273  19.059 -0.0294 -0.1982 -0.3393
56529DOD     C213407  11.073   5.006  19.434 -0.1848  0.1790  0.0892
56529DOD     C313408  11.290   4.965  19.811  0.1878 -0.0155  0.1978
56530DOD     C113409  16.654   0.831  25.436  0.1857 -0.2110 -0.0864
56530DOD     C213410  16.590   0.979  25.880 -0.1238  0.1041  0.0808
56530DOD     C313411  16.504   0.947  26.372 -0.1286 -0.4921 -0.2224
56531DOD     C113412   0.578   8.084  30.077 -0.2117 -0.1373 -0.2908
56531DOD     C213413   1.041   8.180  30.071 -0.0729 -0.1628  0.1081
56531DOD     C313414   1.449   8.040  30.182 -0.2062 -0.2381 -0.1691
56532DOD     C113415  22.940  22.044  24.838 -0.1700  0.1578 -0.3564
56532DOD     C213416  23.366  21.945  24.727 -0.0136  0.0226 -0.2364
56532DOD     C313417  23.775  21.644  24.764  0.1612 -0.0728  0.2634
56533DOD     C113418  23.067  23.298  15.992  0.2248  0.0195  0.4219
56533DOD     C213419  22.704  22.942  15.865 -0.0678  0.2240 -0.0990
56533DOD     C313420  22.490  22.535  16.075  0.0562  0.1124 -0.2096
56534DOD     C113421   4.692  13.831   8.059 -0.1231  0.3378  0.4897
56534DOD     C213422   4.812  14.054   7.683 -0.1180  0.2768 -0.1543
56534DOD     C313423   5.053  14.376   7.560 -0.1110  0.2032  0.0659
56535DOD     C113424   6.337   0.158   6.630  0.1745  0.0213 -0.2320
56535DOD     C213425   6.158   0.588   6.745 -0.0422  0.0932  0.1580
56535DOD     C313426   5.985   1.012   6.820 -0.0735  0.1955  0.0107
56536DOD     C113427  10.392   7.240   0.599  0.0117 -0.0878 -0.0867
56536DOD     C213428  10.555   7.661   0.329 -0.0140 -0.4017  0.0576
56536DOD     C313429  10.877   7.725  30.239 -0.0819  0.1702 -0.1300
56537DOD     C113430  25.817   6.141  16.506 -0.0911 -0.1068  0.2617
56537DOD     C213431  26.183   6.396  16.361 -0.1002  0.1316 -0.1162
56537DOD     C313432  26.493   6.465  15.976  0.1446 -0.0342 -0.0933
56538DOD     C113433  27.785  23.387  10.310  0.0662 -0.0471 -0.1783
56538DOD     C213434  27.492  22.958  10.209 -0.1723  0.2250  0.0850
56538DOD     C313435  27.146  22.772  10.020  0.0121  0.3300  0.1657
56539DOD     C113436  24.690  26.775  27.862 -0.2345  0.0156  0.0529
56539DOD     C213437  24.451  26.381  27.988  0.1216 -0.0148  0.1766
56539DOD     C313438  24.172  26.249  28.352 -0.0842 -0.3316  0.0737
56540DOD     C113439  16.552   2.129  20.038  0.0038  0.0135  0.0330
56540DOD     C213440  16.198   1.996  19.728 -0.0662  0.0920  0.1486
56540DOD     C313441  15.903   1.813  19.439 -0.0205  0.2410  0.0803
56541DOD     C113442   0.783  13.321   5.735  0.4048  0.0578 -0.1920
56541DOD     C213443   0.781  13.690   5.459  0.1025 -0.0275  0.0924
56541DOD     C313444   0.581  14.099   5.239 -0.0951 -0.1805 -0.0406
56542DOD     C113445   4.358  23.902   5.922 -0.0314  0.0528  0.2971
56542DOD     C213446   4.520  23.502   6.088  0.0232 -0.0734  0.0227
56542DOD     C313447   4.863  23.437   6.408  0.2766  0.0293  0.4242
56543DOD     C113448   3.185  14.610  17.969  0.3299  0.1829  0.1925
56543DOD     C213449   3.477  14.539  17.647 -0.0195  0.0945 -0.1505
56543DOD     C313450   3.680  14.484  17.191 -0.1073 -0.2108 -0.0611
56544DOD     C113451  10.335   6.001  22.236 -0.0526 -0.1203  0.0216
56544DOD     C213452  10.511   5.947  21.824 -0.1029 -0.0640  0.0730
56544DOD     C313453  10.994   5.943  21.666  0.2463 -0.1466 -0.0461
56545DOD     C113454  26.992  17.434  25.765 -0.2518 -0.3462 -0.1988
56545DOD     C213455  26.804  17.267  26.095 -0.2319 -0.0530 -0.0936
56545DOD     C313456  26.855  16.886  26.355 -0.3312 -0.1422  0.0360
56546DOD     C113457  21.814  27.562   1.646 -0.0288 -0.0382  0.1946
56546DOD     C213458  21.684  27.941   1.878 -0.0540 -0.0899  0.0772
56546DOD     C313459  21.395  28.315   2.022  0.0446  0.2323  0.1626
56547DOD     C113460  28.788  20.525   5.337 -0.2789 -0.0705  0.0445
56547DOD     C213461  28.716  20.099   5.500 -0.1024  0.1855 -0.0330
56547DOD     C313462  28.741  19.718   5.688  0.1862  0.1539 -0.1685
56548DOD     C113463   2.754  12.362  11.308 -0.0900 -0.2149  0.0187
56548DOD     C213464   2.887  12.714  11.111 -0.1494 -0.1987 -0.0864
56548DOD     C313465   2.562  13.014  11.054 -0.1357  0.1202 -0.3120
56549DOD     C113466   7.512   7.780  27.624 -0.1296  0.0166  0.3035
56549DOD     C213467   7.586   7.355  27.801 -0.2769 -0.0822  0.1804
56549DOD     C313468   7.421   6.897  27.866  0.4525  0.3705  0.0456
56550DOD     C113469  25.969   5.607   9.095  0.0367 -0.0526  0.1297
56550DOD     C213470  26.050   6.026   8.913 -0.1184 -0.0172 -0.2640
56550DOD     C313471  26.207   6.439   8.847  0.1202 -0.2027 -0.0418
56551DOD     C113472   1.091   9.866   2.027 -0.2593  0.0200  0.1097
56551DOD     C213473   0.640   9.718   1.977  0.0426  0.2804  0.3371
56551DOD     C313474   0.360   9.377   1.851  0.2457 -0.1029  0.1053
56552DOD     C113475  24.160   4.748  14.732 -0.1694  0.0125 -0.4532
56552DOD     C213476  23.900   4.657  14.379 -0.3432  0.0743  0.2860
56552DOD     C313477  23.725   4.635  13.931 -0.0071  0.0248  0.2504
56553DOD     C113478  16.661  14.295  17.501  0.3178  0.2140  0.0898
56553DOD     C213479  16.636  14.775  17.663  0.4545  0.2186 -0.0304
56553DOD     C313480  16.659  15.239  17.576  0.0168 -0.1394 -0.0609
56554DOD     C113481  20.526   8.220  20.403  0.1910 -0.0409 -0.1754
56554DOD     C213482  20.107   8.442  20.437 -0.0653 -0.2061  0.0166
56554DOD     C313483  19.792   8.095  20.355  0.0322 -0.0878 -0.1156
56555DOD     C113484  13.758   1.354  17.426  0.3023  0.1704 -0.2913
56555DOD     C213485  13.406   1.641  17.731 -0.0606 -0.4148  0.2346
56555DOD     C313486  13.149   1.832  18.077 -0.2472 -0.1230 -0.1283
56556DOD     C113487  16.709  26.785  26.392  0.2182  0.2972 -0.0079
56556DOD     C213488  16.497  27.173  26.259  0.1923 -0.0382 -0.3447
56556DOD     C313489  16.214  27.538  26.208  0.1739  0.0846 -0.0834
56557DOD     C113490  19.330   0.095   6.275  0.2894  0.1037 -0.2535
56557DOD     C213491  19.355   0.290   6.696  0.0751 -0.1715  0.4319
56557DOD     C313492  19.259   0.144   7.092 -0.0574 -0.1177  0.0020
56558DOD     C113493  23.995  28.666  27.357 -0.1637 -0.0893  0.1630
56558DOD     C213494  24.063  28.413  27.682  0.5256  0.2761 -0.1626
56558DOD     C313495  23.987  28.127  28.099 -0.4209  0.0534 -0.0425
56559DOD     C113496   2.980  14.885  24.897  0.3773 -0.0242  0.2178
56559DOD     C213497   3.219  15.004  25.256  0.1137  0.2252  0.0825
56559DOD     C313498   3.525  15.153  25.580  0.1933  0.3026 -0.1254
56560DOD     C113499  14.634  11.393   9.930 -0.0562 -0.0497 -0.1223
56560DOD     C213500  14.336  11.797   9.790 -0.1224 -0.0845  0.0228
56560DOD     C313501  13.916  11.827   9.689  0.1052 -0.2933  0.1233
56561DOD     C113502   4.910  24.278  10.219 -0.3239 -0.0760  0.0561
56561DOD     C213503   5.391  24.179  10.155  0.0990 -0.1041 -0.3250
56561DOD     C313504   5.761  23.935  10.373  0.2586 -0.2726 -0.2131
56562DOD     C113505   8.216  16.561  18.065 -0.0831 -0.3313 -0.1839
56562DOD     C213506   8.414  16.981  18.083 -0.4422 -0.4184 -0.3347
56562DOD     C313507   8.287  17.330  17.784 -0.1268 -0.2675  0.1736
56563DOD     C113508  21.876  23.095   7.782 -0.2460 -0.1060  0.0522
56563DOD     C213509  21.834  22.596   7.718 -0.2997 -0.0890 -0.0445
56563DOD     C313510  21.641  22.163   7.870 -0.0608 -0.1613  0.1194
56564DOD     C113511  24.281  15.685  13.192 -0.0546  0.2371  0.3295
56564DOD     C213512  23.959  15.822  13.492  0.1046  0.3610  0.1431
56564DOD     C313513  23.787  15.940  13.866 -0.0623 -0.0860 -0.2634
56565DOD     C113514  28.441  12.564  16.567  0.0145  0.1793  0.2440
56565DOD     C213515  28.732  12.249  16.358 -0.0805 -0.0753 -0.1289
56565DOD     C313516  28.775  12.037  15.930  0.0748  0.1035  0.1547
56566DOD     C113517  13.791  28.229   8.614 -0.0722 -0.1158 -0.0369
56566DOD     C213518  13.364  28.125   8.689 -0.0708 -0.3266  0.1952
56566DOD     C313519  13.075  28.197   8.999  0.1935  0.0566 -0.0991
56567DOD     C113520  15.629  21.776  19.114 -0.1272 -0.0689 -0.0383
56567DOD     C213521  15.478  21.676  19.516  0.2055 -0.0969 -0.0956
56567DOD     C313522  15.060  21.537  19.652  0.3751 -0.0305  0.1479
56568DOD     C113523   5.312  14.820   1.067 -0.0476  0.1595  0.2716
56568DOD     C213524   5.181  14.367   0.932 -0.0370  0.1794 -0.1340
56568DOD     C313525   5.413  14.045   0.662  0.0949  0.0647  0.2242
56569DOD     C113526   3.583   3.267  21.047 -0.0014  0.0747 -0.0897
56569DOD     C213527   3.704   2.857  21.349 -0.0333 -0.1229 -0.1866
56569DOD     C313528   3.661   2.639  21.801 -0.0734  0.1733 -0.3340
56570DOD     C113529  14.890   2.934  15.546 -0.1278  0.1628  0.2166
56570DOD     C213530  14.707   2.846  15.066  0.0557 -0.2354  0.0275
56570DOD     C313531  14.440   2.674  14.694 -0.1390  0.0188  0.2893
56571DOD     C113532  21.761   4.401  12.572  0.1271 -0.0995 -0.1541
56571DOD     C213533  21.567   4.788  12.316 -0.0023 -0.1443 -0.0516
56571DOD     C313534  21.587   5.045  11.931 -0.1546  0.0530 -0.2748
56572DOD     C113535  18.667  19.446  20.340 -0.0274 -0.1337  0.2834
56572DOD     C213536  19.112  19.519  20.303  0.0315 -0.0394  0.0275
56572DOD     C313537  19.307  19.511  19.855 -0.0979 -0.3225 -0.1991
56573DOD     C113538   0.242  14.240   6.003 -0.0180  0.0802  0.1218
56573DOD     C213539   0.633  13.956   6.082  0.0238 -0.0254  0.1433
56573DOD     C313540   1.083  13.777   5.933 -0.0562  0.0146  0.0149
56574DOD     C113541   0.876   7.145  12.389 -0.1758  0.0285  0.1867
56574DOD     C213542   0.504   7.025  12.598 -0.0402 -0.4042  0.0154
56574DOD     C313543   0.092   7.059  12.762  0.2168  0.0816 -0.1022
56575DOD     C113544  16.207   8.622   6.929  0.1124 -0.1775  0.2467
56575DOD     C213545  15.828   8.640   7.250  0.0375 -0.1938  0.3926
56575DOD     C313546  15.444   8.362   7.281  0.2014  0.1046 -0.1637
56576DOD     C113547  19.320  29.963  27.087  0.0489  0.1128 -0.1264
56576DOD     C213548  19.725  30.100  27.042  0.0428  0.0720  0.0996
56576DOD     C313549  20.015   0.143  27.141  0.1188  0.2148 -0.1302
56577DOD     C113550  29.598  21.170  13.640  0.2551 -0.3589  0.0085
56577DOD     C213551  29.874  21.019  13.225  0.2568 -0.0623 -0.0596
56577DOD     C313552  30.342  21.128  13.222  0.2315 -0.0052  0.1826
56578DOD     C113553  24.236   5.463  19.593 -0.0620 -0.2135 -0.2475
56578DOD     C213554  23.866   5.532  19.423 -0.0826 -0.0620 -0.0302
56578DOD     C313555  23.558   5.131  19.341 -0.0290 -0.1895 -0.2516
56579DOD     C113556  16.258   0.241  21.003 -0.1670 -0.2471 -0.0340
56579DOD     C213557  16.667   0.435  21.207  0.1595  0.2767 -0.0994
56579DOD     C313558  16.911   0.430  21.569 -0.0849  0.1312  0.1203
56580DOD     C113559  26.860  19.421  13.795 -0.2407  0.1438  0.1135
56580DOD     C213560  27.279  19.443  13.590  0.0174 -0.0066  0.2022
56580DOD     C313561  27.715  19.734  13.669  0.3031 -0.0357 -0.3202
56581DOD     C113562   0.963   5.109   9.858 -0.3033 -0.2321  0.0049
56581DOD     C213563   1.341   4.925   9.632 -0.2127  0.2828 -0.2005
56581DOD     C313564   1.758   5.023   9.385 -0.0461 -0.1335  0.0706
56582DOD     C113565   8.907   0.321   7.454 -0.2290  0.0963  0.5655
56582DOD     C213566   9.185   0.280   7.849 -0.0396 -0.0651 -0.0694
56582DOD     C313567   9.513   0.211   8.189  0.1692  0.1704 -0.0451
56583DOD     C113568   2.468  18.764  19.485 -0.0983 -0.1355 -0.0280
56583DOD     C213569   2.596  18.907  19.904  0.1086  0.1421  0.0770
56583DOD     C313570   2.996  19.038  20.096  0.1560  0.0784  0.1491
56584DOD     C113571  19.474  19.171   5.237 -0.2022  0.0493 -0.1268
56584DOD     C213572  19.249  18.861   5.541 -0.0589 -0.2698  0.0044
56584DOD     C313573  19.032  18.437   5.551  0.3334  0.1210  0.0397
56585DOD     C113574   5.207   6.659   8.161 -0.0935  0.1653  0.0777
56585DOD     C213575   5.463   6.337   8.310 -0.1633 -0.0122 -0.1222
56585DOD     C313576   5.681   6.233   8.696  0.1324 -0.2175  0.2716
56586DOD     C113577   7.626   7.758  19.130  0.0322  0.5059  0.0650
56586DOD     C213578   7.798   7.456  18.821 -0.3508 -0.1296 -0.1495
56586DOD     C313579   7.936   7.157  18.510 -0.0687 -0.3394 -0.1634
56587DOD     C113580   5.504   1.538  17.255 -0.0854  0.2748  0.1067
56587DOD     C213581   5.720   1.990  17.293  0.0580 -0.2661 -0.1299
56587DOD     C313582   5.989   2.352  17.115  0.0392 -0.0410 -0.1569
56588DOD     C113583  25.317  17.946   0.088  0.1003  0.4197 -0.0518
56588DOD     C213584  25.345  18.139  29.963  0.1859 -0.0065  0.1107
56588DOD     C313585  25.451  17.864  29.588 -0.1327  0.2207 -0.2771
56589DOD     C113586   8.527  27.166  22.975  0.3482  0.1942  0.1337
56589DOD     C213587   8.155  27.000  22.728 -0.1114 -0.0359  0.2087
56589DOD     C313588   7.980  26.585  22.616 -0.2084  0.0806  0.0605
56590DOD     C113589  17.000  28.130  18.478  0.1143  0.0414  0.0642
56590DOD     C213590  16.484  28.163  18.464  0.0195 -0.2056 -0.0475
56590DOD     C313591  16.050  28.053  18.406  0.0066  0.2464 -0.3286
56591DOD     C113592  13.328   9.837   7.290  0.0480  0.0443  0.1306
56591DOD     C213593  13.545   9.794   7.714  0.1147  0.5507  0.6559
56591DOD     C313594  13.448   9.486   7.990 -0.0152  0.0223 -0.1550
56592DOD     C113595   9.778  27.606   6.686 -0.1148 -0.2441 -0.0933
56592DOD     C213596   9.958  27.222   6.675  0.1229  0.0233 -0.1961
56592DOD     C313597  10.092  26.834   6.510 -0.1478 -0.1277  0.2625
56593DOD     C113598   7.782  17.474  11.539 -0.4071 -0.4497  0.0518
56593DOD     C213599   7.330  17.416  11.303 -0.0815 -0.0768 -0.1337
56593DOD     C313600   6.904  17.369  11.049 -0.1652 -0.0185 -0.1460
56594DOD     C113601  10.500  14.807  26.795 -0.1249 -0.2114  0.1416
56594DOD     C213602  10.202  14.660  26.440 -0.2519 -0.0423 -0.2443
56594DOD     C313603   9.780  14.537  26.299 -0.2621  0.0222  0.2915
56595DOD     C113604  22.002   8.801  28.006 -0.4618  0.0681 -0.0680
56595DOD     C213605  21.923   8.466  28.317 -0.0430  0.0602 -0.0950
56595DOD     C313606  21.662   8.093  28.424 -0.1579 -0.3692 -0.0165
56596DOD     C113607   0.344  21.573   7.737 -0.0013  0.0359  0.1487
56596DOD     C213608   0.728  21.523   8.022  0.0215  0.2510  0.2145
56596DOD     C313609   1.117  21.756   8.196  0.1280  0.2430 -0.0463
56597DOD     C113610  -0.022  13.614  22.886 -0.1809 -0.0242  0.2771
56597DOD     C213611  30.116  14.029  22.841  0.0612 -0.1223  0.1925
56597DOD     C313612  29.993  14.379  22.578 -0.1654  0.2526 -0.0299
56598DOD     C113613  15.763  22.894   2.323 -0.4382  0.0317 -0.3310
56598DOD     C213614  15.978  23.174   2.599  0.0302  0.0805  0.1406
56598DOD     C313615  16.408  23.423   2.616  0.0875 -0.0083  0.3280
56599DOD     C113616   3.756   0.645  12.328  0.1868  0.1415  0.0009
56599DOD     C213617   3.507   1.033  12.370 -0.0556 -0.3622 -0.0590
56599DOD     C313618   3.484   1.480  12.387 -0.2223 -0.0713  0.0802
56600DOD     C113619  22.588  25.598  30.092 -0.1264 -0.2121 -0.0999
56600DOD     C213620  22.794  25.195  30.032 -0.0947  0.0347  0.1116
56600DOD     C313621  23.189  24.920  29.942  0.0760 -0.1071 -0.0179
56601DOD     C113622  25.411   0.983  20.296  0.2306 -0.1871  0.3988
56601DOD     C213623  25.837   1.010  20.101 -0.1236  0.2483 -0.4039
56601DOD     C313624  26.223   0.730  20.130  0.1220  0.0462  0.1638
56602DOD     C113625   4.545   1.568  18.408 -0.0980  0.1620 -0.1563
56602DOD     C213626   4.708   1.781  18.746  0.0459  0.3508  0.1750
56602DOD     C313627   5.070   2.015  18.802  0.1706  0.1776  0.2147
56603DOD     C113628   0.266  17.235   8.737  0.1467 -0.2257 -0.2180
56603DOD     C213629   0.062  17.122   9.155  0.2294  0.2044  0.1213
56603DOD     C313630  29.966  16.813   9.184  0.0258  0.0560  0.2057
56604DOD     C113631   7.246   5.583  27.094 -0.0295 -0.1973 -0.1203
56604DOD     C213632   7.616   5.780  26.849  0.0887  0.1150  0.0479
56604DOD     C313633   8.012   5.877  26.679 -0.2398  0.0052  0.0301
56605DOD     C113634   3.670   4.373   6.609 -0.0232 -0.1104  0.1405
56605DOD     C213635   3.527   4.525   6.203  0.0595  0.2322  0.1304
56605DOD     C313636   3.391   4.536   5.768  0.2616  0.1306  0.0616
56606DOD     C113637  13.582  30.044  26.703 -0.0696  0.4088  0.1378
56606DOD     C213638  13.696  29.761  27.073  0.1981 -0.3771  0.4650
56606DOD     C313639  13.750  29.560  27.473  0.0247  0.1075  0.1283
56607DOD     C113640  23.393  19.997   9.632 -0.2656  0.3593  0.0414
56607DOD     C213641  23.107  19.708   9.425  0.0653  0.5452  0.2431
56607DOD     C313642  22.805  19.347   9.422 -0.3048 -0.0098 -0.0565
56608DOD     C113643   1.947  25.989  17.192  0.2989 -0.0140 -0.1087
56608DOD     C213644   2.341  26.178  16.957  0.1642  0.0879  0.0908
56608DOD     C313645   2.642  26.108  16.641 -0.2146  0.2757 -0.0759
56609DOD     C113646   9.675  29.302   4.788  0.0053 -0.1679 -0.1088
56609DOD     C213647  10.094  29.173   4.980 -0.2487  0.1001  0.2065
56609DOD     C313648  10.338  28.876   5.293  0.0740 -0.0536  0.2217
56610DOD     C113649   3.569  26.081  30.244  0.1160  0.1765  0.0416
56610DOD     C213650   3.864  25.813  29.970 -0.0565  0.1145 -0.0086
56610DOD     C313651   4.025  25.590  29.628 -0.0686  0.1251 -0.1721
56611DOD     C113652  28.343  11.418  21.252  0.0862 -0.0331 -0.0167
56611DOD     C213653  28.476  11.471  20.821  0.0328 -0.0504  0.1494
56611DOD     C313654  28.363  11.556  20.355 -0.1749  0.2704 -0.1216
56612DOD     C113655  24.119   8.588   3.924  0.3195 -0.3093  0.0466
56612DOD     C213656  24.264   8.482   4.382 -0.0019  0.0692  0.0377
56612DOD     C313657  24.563   8.618   4.740 -0.0247  0.0637  0.1862
56613DOD     C113658   4.390  29.910   8.921  0.2454 -0.1905  0.2229
56613DOD     C213659   4.605  29.540   9.076  0.1022 -0.2017  0.0191
56613DOD     C313660   4.990  29.369   9.194 -0.3642 -0.1332 -0.0555
56614DOD     C113661   1.904  12.073   0.306 -0.1329  0.1857  0.3482
56614DOD     C213662   2.030  12.268  30.210  0.1491  0.3681 -0.2072
56614DOD     C313663   2.435  12.373  30.016 -0.0615  0.2085  0.2296
56615DOD     C113664   6.669  17.877   3.994 -0.0086 -0.2093 -0.1310
56615DOD     C213665   6.967  17.651   3.677 -0.0400  0.2791 -0.2125
56615DOD     C313666   7.227  17.278   3.455 -0.0392 -0.1949  0.0537
56616DOD     C113667  12.046  12.430   3.666  0.2462 -0.1243  0.2083
56616DOD     C213668  12.325  12.766   3.468 -0.2754  0.2507  0.2133
56616DOD     C313669  12.198  13.138   3.231 -0.0924 -0.3772 -0.4645
56617DOD     C113670  16.806  15.452  17.140 -0.1976  0.1168 -0.2251
56617DOD     C213671  17.015  15.783  16.918  0.2438  0.1586 -0.1928
56617DOD     C313672  17.287  16.104  17.144 -0.0344 -0.1495  0.0154
56618DOD     C113673  21.498  19.051  24.839  0.1441 -0.1767  0.0834
56618DOD     C213674  21.619  19.493  24.996  0.0309 -0.3836  0.1701
56618DOD     C313675  22.008  19.719  25.102  0.1744  0.2024  0.1497
56619DOD     C113676   2.316   0.762  12.876  0.0257 -0.0198  0.2926
56619DOD     C213677   2.473   0.836  12.447  0.0074  0.2761 -0.1845
56619DOD     C313678   2.452   1.156  12.130  0.0510  0.2112 -0.0526
56620DOD     C113679  27.199  14.983  29.326 -0.0228 -0.3302 -0.2157
56620DOD     C213680  27.264  15.205  28.945  0.0128 -0.2078  0.3238
56620DOD     C313681  27.664  15.229  28.766 -0.0610  0.2264  0.1888
56621DOD     C113682  27.148  19.728  11.354  0.0752 -0.0335  0.0928
56621DOD     C213683  27.430  19.521  11.734  0.2921  0.0361  0.1632
56621DOD     C313684  27.816  19.341  11.899 -0.0313  0.0189  0.2236
56622DOD     C113685  16.841  23.420  13.135 -0.0688 -0.0903  0.0925
56622DOD     C213686  17.149  23.253  12.817  0.3077  0.0739  0.2138
56622DOD     C313687  17.175  23.181  12.316  0.0195 -0.0797 -0.1858
56623DOD     C113688   6.693  30.212  12.780  0.2186  0.0873 -0.1294
56623DOD     C213689   6.817   0.324  12.773 -0.0180  0.0673  0.1424
56623DOD     C313690   6.757   0.699  13.029  0.0767  0.3213 -0.1687
56624DOD     C113691  22.303  27.512  22.609 -0.0922  0.0311 -0.0904
56624DOD     C213692  21.886  27.306  22.546  0.1750  0.0604  0.3382
56624DOD     C313693  21.446  27.106  22.432 -0.0837  0.1371 -0.0416
56625DOD     C113694   4.704  27.426  20.291  0.0308  0.2602 -0.0753
56625DOD     C213695   4.875  27.269  20.716 -0.1199 -0.2305 -0.0729
56625DOD     C313696   5.192  27.228  21.079 -0.3272  0.0208  0.0969
56626DOD     C113697  21.695   2.191  19.326  0.3880  0.1506 -0.2583
56626DOD     C213698  21.745   1.777  19.440 -0.0225  0.1061  0.2204
56626DOD     C313699  21.822   1.312  19.343 -0.1851 -0.3216  0.1979
56627DOD     C113700   3.163  18.001  13.255 -0.1538  0.1862 -0.1861
56627DOD     C213701   2.740  17.963  13.155 -0.0428  0.1894  0.4057
56627DOD     C313702   2.303  17.779  12.989 -0.0297 -0.0665  0.0252
56628DOD     C113703   4.354  29.682  18.448 -0.0099 -0.2512 -0.2694
56628DOD     C213704   4.402  29.996  18.161  0.0651 -0.1809 -0.2516
56628DOD     C313705   4.107  30.352  17.996 -0.1204  0.4242 -0.2551
56629DOD     C113706   4.514  29.613   2.892 -0.2191 -0.1902 -0.1229
56629DOD     C213707   4.627  30.041   2.766 -0.2478  0.0204  0.1252
56629DOD     C313708   4.480   0.130   2.504  0.1226  0.0471 -0.0718
56630DOD     C113709  23.524  27.641  18.035  0.0574  0.0526 -0.2041
56630DOD     C213710  23.556  27.688  17.620  0.2413  0.0274  0.0824
56630DOD     C313711  23.231  27.856  17.316  0.0616 -0.2621 -0.2100
56631DOD     C113712   9.778  14.589  14.599 -0.0948 -0.1374  0.2071
56631DOD     C213713   9.614  14.174  14.747 -0.1342 -0.3400 -0.0619
56631DOD     C313714   9.320  13.855  14.987 -0.0590  0.0711  0.1328
56632DOD     C113715  12.986  21.912   2.821  0.0971 -0.0125  0.1986
56632DOD     C213716  12.908  22.215   3.131  0.0568 -0.1963 -0.1312
56632DOD     C313717  12.646  22.374   3.481 -0.1824 -0.6152 -0.2099
56633DOD     C113718  19.634  29.971  13.953 -0.1595  0.0554 -0.0581
56633DOD     C213719  19.535  29.773  13.515  0.1924 -0.1840  0.1705
56633DOD     C313720  19.160  29.752  13.215  0.0324 -0.1602 -0.1067
56634DOD     C113721   8.619  18.031  13.162  0.1113  0.0336 -0.2779
56634DOD     C213722   8.454  17.601  13.091  0.1158 -0.1923 -0.3596
56634DOD     C313723   8.563  17.143  13.101 -0.0508 -0.1833 -0.0478
56635DOD     C113724  25.538  24.978  28.195  0.3262  0.1402 -0.2115
56635DOD     C213725  25.386  24.616  27.966 -0.0042 -0.2265  0.2559
56635DOD     C313726  25.553  24.201  27.758  0.0258  0.1249 -0.2053
56636DOD     C113727  19.869  24.987  27.440 -0.3204 -0.0681  0.2870
56636DOD     C213728  20.093  24.658  27.593 -0.1318 -0.0515 -0.2476
56636DOD     C313729  20.319  24.344  27.833 -0.2676 -0.1002 -0.0593
56637DOD     C113730  23.444  13.051  14.009  0.0418 -0.1087 -0.1815
56637DOD     C213731  23.684  12.937  13.605 -0.1002  0.0022 -0.1624
56637DOD     C313732  24.015  12.701  13.389 -0.2571 -0.1911 -0.0544
56638DOD     C113733   4.099  19.960   7.731 -0.2428  0.1664 -0.1572
56638DOD     C213734   3.937  19.613   8.044 -0.1471 -0.1393 -0.1118
56638DOD     C313735   4.006  19.253   8.308 -0.0924 -0.6331 -0.4940
56639DOD     C113736  27.160  22.169   7.290 -0.0300  0.2227  0.3881
56639DOD     C213737  27.226  22.651   7.346  0.2304 -0.2337  0.2474
56639DOD     C313738  27.455  23.005   7.385  0.1957 -0.0996  0.1246
56640DOD     C113739  11.702  25.814  18.917  0.1631 -0.3066  0.1136
56640DOD     C213740  11.983  25.763  19.287 -0.4060  0.1824 -0.1785
56640DOD     C313741  12.316  25.436  19.492  0.1312 -0.3390  0.2553
56641DOD     C113742  23.767  13.981  20.840 -0.1161  0.1893  0.4138
56641DOD     C213743  23.323  13.989  20.995  0.4436  0.0367  0.2277
56641DOD     C313744  23.032  14.110  21.288 -0.3237  0.0280  0.1040
56642DOD     C113745  18.904   7.241  20.636  0.0586 -0.1594  0.3443
56642DOD     C213746  19.286   7.399  20.436  0.0831  0.0332 -0.0079
56642DOD     C313747  19.322   7.782  20.136 -0.1473  0.1669  0.1246
56643DOD     C113748  15.809  18.466  21.266 -0.1404  0.0678 -0.0079
56643DOD     C213749  16.234  18.714  21.298  0.1080 -0.0037 -0.2291
56643DOD     C313750  16.518  19.052  21.406  0.0231 -0.1688  0.1018
56644DOD     C113751   4.283   4.975   8.323  0.2191  0.3456 -0.0402
56644DOD     C213752   4.013   4.600   8.503  0.2527 -0.1470  0.0627
56644DOD     C313753   4.095   4.306   8.865 -0.0230  0.0206  0.0757
56645DOD     C113754  13.492   5.544  29.835  0.1725 -0.2222  0.0763
56645DOD     C213755  13.862   5.226  29.644  0.0507 -0.0094  0.1452
56645DOD     C313756  14.237   5.121  29.266  0.3521 -0.3793  0.0732
56646DOD     C113757   7.007   8.505  28.273  0.0710 -0.0569  0.2578
56646DOD     C213758   7.078   8.045  28.251  0.0519  0.0413  0.1071
56646DOD     C313759   6.830   7.652  28.355 -0.1511 -0.0098  0.1083
56647DOD     C113760   0.772   2.009  11.830  0.0718  0.0152  0.0415
56647DOD     C213761   1.139   1.843  11.965 -0.0192 -0.0578 -0.1409
56647DOD     C313762   1.485   1.892  12.215 -0.0461 -0.0699 -0.0659
56648DOD     C113763  13.367  23.719   6.946 -0.0473  0.1552 -0.1395
56648DOD     C213764  13.031  23.894   7.200  0.0847 -0.0688 -0.0650
56648DOD     C313765  12.905  23.920   7.645 -0.0094  0.1278 -0.0379
56649DOD     C113766   1.604  28.075  13.765 -0.3187 -0.0140  0.1594
56649DOD     C213767   1.198  28.305  13.820  0.1207  0.3350 -0.4394
56649DOD     C313768   0.758  28.460  13.752 -0.1829 -0.0405 -0.0751
56650DOD     C113769  28.811  20.403  20.929  0.2130  0.2082  0.0432
56650DOD     C213770  29.129  20.232  20.608  0.3175 -0.2169 -0.3040
56650DOD     C313771  29.481  20.155  20.291 -0.3888  0.1455 -0.0201
56651DOD     C113772   0.789  23.287  23.885  0.0445  0.2973 -0.1605
56651DOD     C213773   0.587  23.211  24.317 -0.3766 -0.1577 -0.3281
56651DOD     C313774   0.421  23.603  24.582  0.1323  0.1603 -0.0955
56652DOD     C113775  18.798  20.375  17.223 -0.0044  0.1273  0.3891
56652DOD     C213776  18.701  20.734  16.925  0.0716 -0.3120  0.2885
56652DOD     C313777  18.711  20.723  16.441  0.0221  0.0657 -0.2780
56653DOD     C113778  29.763   1.365  22.705 -0.1845 -0.1359  0.1031
56653DOD     C213779  29.403   1.471  22.362 -0.0611 -0.0339  0.2314
56653DOD     C313780  29.154   1.185  22.102 -0.0691  0.0348 -0.2467
56654DOD     C113781  19.100   8.795  10.408  0.0096 -0.0172  0.3289
56654DOD     C213782  19.271   8.372  10.330 -0.4256 -0.1536 -0.2459
56654DOD     C313783  19.440   7.962  10.574 -0.2971 -0.0538  0.0309
56655DOD     C113784  18.037  11.751  26.184  0.1437 -0.1850  0.1499
56655DOD     C213785  17.805  11.475  26.477  0.0088  0.0239 -0.1549
56655DOD     C313786  17.529  11.155  26.305 -0.2487  0.2424 -0.2920
56656DOD     C113787  28.148  19.101  12.344 -0.1019  0.0441  0.0336
56656DOD     C213788  28.020  18.642  12.293  0.0683 -0.0977 -0.2351
56656DOD     C313789  27.640  18.398  12.183  0.2946  0.0172  0.3844
56657DOD     C113790   8.204  13.690  24.842  0.2546 -0.1004  0.1325
56657DOD     C213791   8.105  13.875  25.291 -0.0051  0.1032  0.1475
56657DOD     C313792   7.866  14.150  25.684  0.1991  0.2264  0.3078
56658DOD     C113793  24.624   4.598  27.074  0.3311  0.1933  0.2870
56658DOD     C213794  24.679   4.156  27.260 -0.1568 -0.1349  0.0543
56658DOD     C313795  24.722   3.708  27.384  0.1082 -0.1992 -0.0805
56659DOD     C113796  27.319  25.473  25.499  0.1434 -0.2307 -0.0853
56659DOD     C213797  26.965  25.382  25.210  0.0897 -0.4279  0.2326
56659DOD     C313798  26.611  25.339  24.887  0.2080 -0.0771 -0.1164
56660DOD     C113799  26.162  26.903  19.848 -0.2693  0.1964  0.1983
56660DOD     C213800  26.009  26.482  19.778 -0.3113 -0.0725 -0.2508
56660DOD     C313801  25.801  26.220  19.446  0.0655 -0.1775  0.0414
56661DOD     C113802  24.433   1.025   5.518 -0.1950 -0.1059  0.1458
56661DOD     C213803  24.829   1.295   5.301  0.2887 -0.2108 -0.1516
56661DOD     C313804  25.232   1.427   5.136 -0.0384  0.1307  0.1017
56662DOD     C113805  13.004   0.216  24.224  0.3599  0.5798 -0.0022
56662DOD     C213806  12.629   0.529  24.189  0.1724 -0.3128  0.2594
56662DOD     C313807  12.247   0.679  23.957  0.4801 -0.4540 -0.1247
56663DOD     C113808  14.266  23.268   3.321 -0.1985  0.0799  0.0431
56663DOD     C213809  14.201  23.182   3.756  0.0329 -0.0089  0.0944
56663DOD     C313810  14.217  22.749   3.903  0.0753  0.1737 -0.1429
56664DOD     C113811   2.546  27.933  26.773  0.1884  0.2422  0.1535
56664DOD     C213812   2.273  28.066  27.123  0.2291 -0.0508 -0.1332
56664DOD     C313813   1.829  27.946  27.204  0.2089  0.2330 -0.4298
56665DOD     C113814  21.912  27.393   0.246 -0.0247 -0.1417  0.0899
56665DOD     C213815  21.870  27.612  30.131 -0.4100  0.0013 -0.0695
56665DOD     C313816  21.483  27.589  29.873 -0.1133 -0.2271  0.0922
56666DOD     C113817  10.441  29.402  16.029 -0.4435  0.0526  0.0219
56666DOD     C213818  10.175  29.225  16.388 -0.1320 -0.1495  0.1646
56666DOD     C313819   9.848  29.136  16.723 -0.0704  0.0624 -0.0896
56667DOD     C113820   0.753  29.937   5.444  0.0773  0.1945  0.0429
56667DOD     C213821   0.299  29.924   5.312  0.3495  0.0433  0.0323
56667DOD     C313822  30.156  29.929   5.185  0.0029  0.1747  0.3157
56668DOD     C113823   8.317  23.218  19.657  0.2746  0.0181 -0.1698
56668DOD     C213824   8.360  23.187  19.196 -0.1586  0.2278  0.2048
56668DOD     C313825   8.417  22.858  18.796 -0.3166 -0.5680  0.1132
56669DOD     C113826  11.083  29.354  22.717 -0.0241  0.0495 -0.0178
56669DOD     C213827  11.311  29.431  23.143 -0.0610 -0.1514  0.0568
56669DOD     C313828  11.463  29.268  23.580  0.1480 -0.0354 -0.2885
56670DOD     C113829  13.500  20.284  23.364  0.1186  0.2471 -0.0478
56670DOD     C213830  13.388  20.054  23.787  0.1321 -0.1673  0.1435
56670DOD     C313831  13.343  19.594  23.892 -0.0659  0.0057  0.0130
56671DOD     C113832  13.161   3.615   5.070 -0.1353  0.0503 -0.0023
56671DOD     C213833  12.797   3.543   5.404 -0.2083 -0.0817  0.1999
56671DOD     C313834  12.468   3.729   5.687  0.0115 -0.0253 -0.2403
56672DOD     C113835  16.547   4.573   6.603  0.1843  0.0679  0.2100
56672DOD     C213836  16.079   4.453   6.671 -0.0888 -0.3392  0.2894
56672DOD     C313837  15.653   4.288   6.691 -0.0106  0.0634  0.3200
56673DOD     C113838  21.881  15.907  14.892  0.1267 -0.2947  0.0232
56673DOD     C213839  22.071  15.778  14.518  0.0509  0.2407 -0.0205
56673DOD     C313840  21.942  15.639  14.068 -0.1383  0.1339 -0.2254
56674DOD     C113841  18.131  11.187  14.448 -0.0392 -0.0527 -0.1673
56674DOD     C213842  18.242  11.561  14.717 -0.2052  0.2686  0.1568
56674DOD     C313843  18.467  11.936  14.834 -0.3174 -0.0643  0.1017
56675DOD     C113844  18.935   1.400   0.451 -0.1424  0.3206  0.2286
56675DOD     C213845  18.538   1.094   0.584  0.1151  0.0295  0.1243
56675DOD     C313846  18.028   1.071   0.551  0.0860  0.0848 -0.1466
56676DOD     C113847  20.001  25.679  20.349 -0.1250  0.0050 -0.0079
56676DOD     C213848  19.904  25.478  20.766  0.0042  0.0630 -0.0618
56676DOD     C313849  19.723  25.196  21.172 -0.1441 -0.3523 -0.0175
56677DOD     C113850  21.371  23.951  28.846 -0.0438  0.3500 -0.0344
56677DOD     C213851  21.084  23.783  28.466  0.3348  0.1050  0.1617
56677DOD     C313852  20.628  23.835  28.442 -0.0471 -0.0019  0.1174
56678DOD     C113853   5.674  23.770  29.505  0.1340 -0.2467 -0.0207
56678DOD     C213854   5.473  23.578  29.095  0.2026 -0.0246  0.1409
56678DOD     C313855   5.271  23.614  28.670 -0.0679  0.1781  0.4175
56679DOD     C113856   9.892  15.948  17.031 -0.1133 -0.0782  0.3201
56679DOD     C213857  10.155  16.005  16.665  0.0465  0.1370 -0.2131
56679DOD     C313858   9.947  16.342  16.353  0.0606 -0.1534 -0.0367
56680DOD     C113859  27.627  28.426   1.828  0.3904  0.1672  0.0821
56680DOD     C213860  27.963  28.773   1.950 -0.0480  0.0760 -0.0325
56680DOD     C313861  28.078  29.191   1.837  0.2295  0.2197  0.0436
56681DOD     C113862  18.565  23.591   8.851  0.0531 -0.1664  0.0133
56681DOD     C213863  18.298  23.837   9.186 -0.0696 -0.0022  0.0170
56681DOD     C313864  17.976  24.148   9.258  0.0982 -0.0748 -0.0074
56682DOD     C113865  11.009  24.168  30.105 -0.1048 -0.1106 -0.0033
56682DOD     C213866  10.848  23.771  30.212  0.1410  0.1321  0.0560
56682DOD     C313867  10.734  23.380  30.029  0.2623  0.2356 -0.2748
56683DOD     C113868  11.308   6.036  22.152  0.2827  0.1802  0.1704
56683DOD     C213869  11.637   6.117  21.819  0.0719 -0.2528 -0.0567
56683DOD     C313870  12.009   6.307  21.663  0.1186  0.1854 -0.0216
56684DOD     C113871  25.938  24.170   6.799  0.1901  0.0647 -0.2709
56684DOD     C213872  25.617  24.147   7.230 -0.0445 -0.0257 -0.0479
56684DOD     C313873  25.450  24.416   7.580 -0.2474 -0.1480  0.1632
56685DOD     C113874  13.509  10.218  27.056  0.2189 -0.2887 -0.0005
56685DOD     C213875  13.891  10.021  27.180  0.1211 -0.0659  0.0678
56685DOD     C313876  14.153   9.720  27.480 -0.0082  0.4005 -0.1207
56686DOD     C113877   1.159  22.249  13.388  0.2130  0.0860  0.0950
56686DOD     C213878   1.450  21.915  13.619 -0.1150  0.0857  0.2171
56686DOD     C313879   1.810  21.673  13.644  0.1259 -0.1401 -0.2396
56687DOD     C113880   7.600  26.242  24.387 -0.1130 -0.1948 -0.0369
56687DOD     C213881   7.982  26.302  24.621  0.1394 -0.2315 -0.0698
56687DOD     C313882   8.409  26.154  24.575 -0.1584  0.1138 -0.0546
56688DOD     C113883   4.851  10.462  11.645 -0.0561  0.1302  0.3214
56688DOD     C213884   4.952  10.338  12.093 -0.1325  0.1758 -0.0869
56688DOD     C313885   4.813  10.277  12.551 -0.0040  0.1610 -0.2068
56689DOD     C113886  12.771   4.278  12.613  0.2317  0.0099 -0.0032
56689DOD     C213887  12.859   4.200  12.158  0.2782 -0.1474  0.0199
56689DOD     C313888  12.957   4.070  11.751  0.0154 -0.3811  0.1683
56690DOD     C113889  16.628  13.555  11.075  0.0581  0.2621  0.0360
56690DOD     C213890  16.728  13.590  11.538  0.0664 -0.0875  0.0998
56690DOD     C313891  16.861  13.906  11.841 -0.2533  0.0954  0.1514
56691DOD     C113892  19.572   3.467   6.527 -0.1790  0.0692  0.1855
56691DOD     C213893  19.512   3.907   6.632  0.1892 -0.1246 -0.3265
56691DOD     C313894  19.215   4.165   6.429  0.0653  0.0758 -0.1811
56692DOD     C113895  24.455  24.220  19.654  0.3103 -0.4204 -0.1593
56692DOD     C213896  24.264  24.502  19.384 -0.0495 -0.1055  0.1795
56692DOD     C313897  23.888  24.799  19.400 -0.1259  0.2644  0.1102
56693DOD     C113898  16.822  13.737  15.061  0.1856  0.0407  0.0607
56693DOD     C213899  17.261  13.778  14.898 -0.1049  0.1733  0.1077
56693DOD     C313900  17.558  13.402  14.843  0.1263 -0.0620 -0.2853
56694DOD     C113901  21.273   7.653  14.209  0.1547 -0.1567 -0.0419
56694DOD     C213902  21.528   7.296  14.414  0.1439  0.1327 -0.2263
56694DOD     C313903  21.870   7.235  14.622  0.1024 -0.0499  0.0281
56695DOD     C113904  26.085  11.147  25.869  0.1850  0.0856 -0.1279
56695DOD     C213905  25.985  11.618  25.833  0.1102 -0.1533  0.0395
56695DOD     C313906  26.034  12.073  25.687  0.0853 -0.2086  0.0298
56696DOD     C113907  29.207   0.667  22.192  0.0031  0.1544  0.1007
56696DOD     C213908  28.859   0.704  22.455  0.0769  0.3038 -0.1656
56696DOD     C313909  28.641   1.074  22.452 -0.0947  0.1689 -0.0375
56697DOD     C113910  24.902  23.954  13.888 -0.3252  0.0944  0.1585
56697DOD     C213911  24.808  23.722  14.312  0.1627 -0.2216  0.1706
56697DOD     C313912  24.768  23.380  14.617 -0.2877 -0.2616  0.0285
56698DOD     C113913  14.636   5.424  27.782 -0.0118 -0.5295  0.1507
56698DOD     C213914  15.033   5.459  27.934  0.3388  0.0120 -0.4311
56698DOD     C313915  15.343   5.839  27.837  0.0359  0.3840  0.1717
56699DOD     C113916   9.259  16.859  19.817  0.1189  0.1110  0.1759
56699DOD     C213917   8.799  16.886  19.925  0.0086  0.3156 -0.0042
56699DOD     C313918   8.452  17.053  19.561 -0.2462 -0.1697 -0.2043
56700DOD     C113919   4.779  10.977   2.391  0.0199  0.0118 -0.0391
56700DOD     C213920   5.147  11.260   2.312 -0.0330 -0.0831 -0.2352
56700DOD     C313921   5.559  11.431   2.357 -0.0519  0.0225 -0.2393
56701DOD     C113922  26.364   6.481  18.948  0.1494  0.2623  0.2457
56701DOD     C213923  26.620   6.463  18.553 -0.1199 -0.1326 -0.3694
56701DOD     C313924  26.872   6.444  18.166 -0.2977 -0.1019 -0.2960
56702DOD     C113925   1.181   4.127   6.394  0.3204 -0.0643  0.0443
56702DOD     C213926   0.863   3.929   6.073  0.1992  0.0171 -0.0021
56702DOD     C313927   0.452   3.995   5.897  0.1977 -0.1043  0.1144
56703DOD     C113928   3.563  17.464  23.363  0.2524 -0.0373 -0.3413
56703DOD     C213929   3.473  17.231  23.746 -0.2698  0.0761  0.1760
56703DOD     C313930   3.167  16.844  23.788  0.2281  0.1981  0.0190
56704DOD     C113931  24.949  18.012  18.168  0.0874  0.3130 -0.0909
56704DOD     C213932  24.718  18.409  18.129 -0.2126 -0.1561  0.0628
56704DOD     C313933  24.704  18.864  18.028 -0.0052 -0.1171 -0.2633
56705DOD     C113934  28.327   6.953   0.789  0.0597 -0.0038  0.2357
56705DOD     C213935  28.763   6.877   0.646 -0.3290  0.1407 -0.0044
56705DOD     C313936  29.231   6.888   0.519  0.1326 -0.0709  0.0355
56706DOD     C113937  25.248  13.071  18.496 -0.0909 -0.0621 -0.2376
56706DOD     C213938  25.240  13.309  18.141  0.0533  0.0292  0.0237
56706DOD     C313939  25.148  13.810  18.134 -0.5147  0.1145 -0.2977
56707DOD     C113940   8.679   8.828  28.334 -0.0740 -0.0432 -0.3385
56707DOD     C213941   8.540   8.551  27.977  0.1700 -0.1059 -0.0001
56707DOD     C313942   8.360   8.191  27.683 -0.4631  0.0368 -0.3334
56708DOD     C113943  29.476   5.534  11.286  0.2836 -0.0677  0.1784
56708DOD     C213944  29.037   5.726  11.311 -0.0298  0.1951  0.1322
56708DOD     C313945  28.753   5.828  11.665  0.1081 -0.0348 -0.2622
56709DOD     C113946   2.521  18.121  11.022 -0.0184  0.0685 -0.1671
56709DOD     C213947   2.905  18.192  11.280  0.0123  0.2152 -0.3086
56709DOD     C313948   3.274  18.337  11.531  0.1298  0.0720 -0.2191
56710DOD     C113949  22.998   6.520   5.380 -0.0333  0.0799 -0.1814
56710DOD     C213950  23.349   6.758   5.321  0.1720 -0.1024 -0.0253
56710DOD     C313951  23.748   6.563   5.376  0.2653 -0.0004  0.4425
56711DOD     C113952  27.758  24.218  12.208  0.4011 -0.1569 -0.1473
56711DOD     C213953  28.121  24.089  12.363 -0.2829 -0.2114 -0.0210
56711DOD     C313954  28.506  23.958  12.614  0.1343  0.1206  0.0519
56712DOD     C113955   1.390  27.628  27.199  0.1716  0.2394  0.3021
56712DOD     C213956   1.269  27.776  27.548  0.0098  0.5391 -0.2323
56712DOD     C313957   1.194  28.154  27.795 -0.0433 -0.1547 -0.1627
56713DOD     C113958  11.785  23.281   4.056 -0.0407  0.0938  0.1992
56713DOD     C213959  11.833  23.683   3.789 -0.2138  0.0670  0.1962
56713DOD     C313960  12.062  24.021   3.560  0.2235  0.1798 -0.3363
56714DOD     C113961  17.237   2.525  22.619  0.1412  0.1889 -0.0049
56714DOD     C213962  17.018   2.134  22.823  0.2072 -0.0350  0.0991
56714DOD     C313963  16.856   1.685  22.696  0.0822  0.0667  0.0120
56715DOD     C113964  29.367  24.986  23.275 -0.2359  0.2473  0.1086
56715DOD     C213965  29.881  25.128  23.349 -0.1529  0.2441 -0.3500
56715DOD     C313966  30.186  25.373  23.165 -0.1670  0.1114  0.0215
56716DOD     C113967   1.242  17.698  29.085  0.1397 -0.0745  0.3449
56716DOD     C213968   1.188  17.339  29.387  0.4675 -0.2229  0.3007
56716DOD     C313969   0.864  17.227  29.715  0.0102 -0.0207 -0.0205
56717DOD     C113970   7.470  12.974  17.158 -0.2381 -0.0844  0.3064
56717DOD     C213971   7.158  12.826  17.383  0.2686  0.3007 -0.1507
56717DOD     C313972   6.798  12.544  17.340 -0.3926 -0.3003 -0.0511
56718DOD     C113973   0.810   5.547  12.219 -0.2513  0.0146 -0.4011
56718DOD     C213974   1.171   5.259  12.327  0.1221  0.0461  0.0481
56718DOD     C313975   1.267   4.818  12.323 -0.2020  0.0845  0.1478
56719DOD     C113976  27.862  21.171   9.074 -0.2926 -0.0103 -0.1685
56719DOD     C213977  28.008  21.543   8.797 -0.0784  0.3264  0.1814
56719DOD     C313978  28.232  21.593   8.405 -0.0969 -0.0886  0.2787
56720DOD     C113979   4.709  24.003  21.741 -0.0299  0.2916  0.1131
56720DOD     C213980   5.085  24.086  21.443  0.0174  0.0687 -0.3481
56720DOD     C313981   5.498  24.348  21.550  0.1553 -0.0111 -0.0148
56721DOD     C113982  30.021   9.966  11.228  0.0713  0.0358 -0.1302
56721DOD     C213983  29.635  10.078  11.197 -0.2115  0.2036 -0.1199
56721DOD     C313984  29.171  10.040  11.139 -0.0052  0.2471 -0.3672
56722DOD     C113985  20.915   8.992  16.237  0.0643  0.0237 -0.2181
56722DOD     C213986  21.191   9.262  16.452  0.2638  0.0878  0.6058
56722DOD     C313987  21.594   9.395  16.281 -0.2132  0.0547 -0.2033
56723DOD     C113988   9.825   9.923  22.324  0.0421 -0.1686 -0.1371
56723DOD     C213989  10.072   9.874  22.723 -0.1762 -0.0962  0.0699
56723DOD     C313990  10.401  10.028  23.089  0.1697 -0.3618 -0.0176
56724DOD     C113991  13.842  25.920  28.214 -0.0125  0.1037  0.0947
56724DOD     C213992  13.807  25.447  28.326  0.0544  0.3346  0.0402
56724DOD     C313993  13.380  25.220  28.321  0.5147  0.1362 -0.2881
56725DOD     C113994  11.874  14.814  14.728 -0.1081 -0.2265 -0.2041
56725DOD     C213995  11.839  15.266  14.732  0.1056  0.0939 -0.0352
56725DOD     C313996  12.015  15.646  14.575 -0.0827 -0.1798 -0.0079
56726DOD     C113997   1.471  15.973  14.136  0.6375  0.1914 -0.2820
56726DOD     C213998   1.787  16.069  14.441  0.1901 -0.1163  0.1736
56726DOD     C313999   2.147  16.348  14.630  0.1336  0.2734 -0.0929
56727DOD     C114000  14.208   2.310   1.582  0.0612  0.4632  0.1626
56727DOD     C214001  14.537   2.231   1.906 -0.2706 -0.0760 -0.2599
56727DOD     C314002  14.971   2.316   2.127 -0.1533 -0.2155 -0.1539
56728DOD     C114003  24.997   0.866  10.121  0.3430 -0.0178  0.2831
56728DOD     C214004  25.244   0.839  10.509 -0.0208 -0.0088 -0.0637
56728DOD     C314005  25.468   1.177  10.767 -0.2369 -0.1794 -0.0660
56729DOD     C114006   0.803   5.081   7.903  0.0902  0.0309  0.2358
56729DOD     C214007   0.390   4.910   7.758  0.0576  0.1449 -0.1699
56729DOD     C314008  30.207   4.881   7.719 -0.1651 -0.0846  0.0093
56730DOD     C114009  29.283  21.441  15.821 -0.1493  0.2962 -0.0666
56730DOD     C214010  29.692  21.582  16.013  0.0026 -0.1060 -0.3559
56730DOD     C314011  29.932  21.786  16.327  0.1178 -0.1562  0.1524
56731DOD     C114012   7.198  23.204  21.703 -0.3388 -0.1880  0.2350
56731DOD     C214013   6.885  23.045  21.402 -0.1035 -0.0148 -0.0934
56731DOD     C314014   6.756  22.729  21.057 -0.1685  0.4120 -0.0383
56732DOD     C114015  12.104  26.746   9.391  0.1717  0.1104  0.0241
56732DOD     C214016  12.477  26.719   9.083 -0.0369  0.0208 -0.2053
56732DOD     C314017  12.833  26.685   8.837  0.1270  0.0109 -0.0031
56733DOD     C114018   5.137   3.420  20.646 -0.0176  0.2140 -0.0566
56733DOD     C214019   5.141   3.792  20.950  0.3122 -0.2899 -0.2104
56733DOD     C314020   5.066   4.149  21.153 -0.3866  0.0017  0.0524
56734DOD     C114021   2.820  29.243   9.369  0.1346  0.0333 -0.0468
56734DOD     C214022   2.595  28.846   9.444  0.0140  0.2685 -0.0899
56734DOD     C314023   2.177  28.554   9.585 -0.5095  0.1857  0.0000
56735DOD     C114024   1.349  12.113   1.048  0.1058 -0.1866  0.1236
56735DOD     C214025   1.543  11.772   0.689 -0.0472 -0.0853 -0.0549
56735DOD     C314026   1.597  11.421   0.385  0.1616  0.2177  0.1217
56736DOD     C114027   2.133  10.862   2.205 -0.2884 -0.1424  0.0592
56736DOD     C214028   2.074  11.088   2.531  0.1629 -0.0671 -0.0306
56736DOD     C314029   1.904  11.071   2.936 -0.0998  0.1095  0.0504
56737DOD     C114030   6.931  15.344  22.762 -0.1093 -0.0114  0.3142
56737DOD     C214031   6.843  15.726  22.536 -0.1650  0.1787  0.1012
56737DOD     C314032   6.846  16.181  22.415  0.0989  0.0472  0.0380
56738DOD     C114033  19.850   2.787   1.914 -0.1541 -0.0317  0.0062
56738DOD     C214034  19.930   2.547   2.332  0.0696 -0.3961  0.3414
56738DOD     C314035  19.758   2.440   2.754  0.0636 -0.0073 -0.2116
56739DOD     C114036  13.867  23.184  15.257  0.1743 -0.1249 -0.0190
56739DOD     C214037  14.292  23.256  15.127  0.2652  0.0176 -0.2003
56739DOD     C314038  14.679  23.139  15.291  0.1216  0.0490 -0.1477
56740DOD     C114039   8.472  22.496   7.181  0.1951  0.2860  0.1453
56740DOD     C214040   8.172  22.813   7.369 -0.1311 -0.0978 -0.0665
56740DOD     C314041   7.984  23.046   7.781  0.1294 -0.0317  0.2812
56741DOD     C114042  13.444  10.032  27.649 -0.0906  0.1599 -0.1860
56741DOD     C214043  13.587  10.172  28.082  0.1709 -0.2281 -0.1763
56741DOD     C314044  13.863  10.279  28.409  0.4124 -0.0224  0.0573
56742DOD     C114045   3.253   8.085  18.321  0.1793  0.3426  0.0128
56742DOD     C214046   3.689   8.240  18.318  0.0834  0.2332 -0.0713
56742DOD     C314047   4.054   8.224  18.048  0.2505 -0.2639 -0.2338
56743DOD     C114048  23.714  14.474  21.751  0.0292  0.1403 -0.0292
56743DOD     C214049  24.159  14.409  21.847 -0.2539 -0.0813 -0.0978
56743DOD     C314050  24.513  14.171  21.931 -0.1534  0.0969  0.0909
56744DOD     C114051   4.340  15.999  27.793 -0.0394  0.1096  0.0399
56744DOD     C214052   4.538  15.739  28.100  0.1434  0.1009  0.1712
56744DOD     C314053   4.517  15.608  28.569 -0.0665 -0.0206 -0.2106
56745DOD     C114054  13.709  22.481  16.848  0.2378  0.2779 -0.0273
56745DOD     C214055  13.678  22.034  16.863  0.0168 -0.1690 -0.0460
56745DOD     C314056  13.510  21.700  16.567  0.0275  0.0738 -0.2184
56746DOD     C114057  12.978  27.090  18.344  0.2997  0.2946 -0.1274
56746DOD     C214058  13.161  27.375  17.985 -0.1231  0.3055 -0.2665
56746DOD     C314059  13.287  27.497  17.578 -0.1676 -0.0011  0.1915
56747DOD     C114060  10.288  16.041  22.486 -0.0798  0.0970  0.3196
56747DOD     C214061  10.436  15.914  22.873  0.0938  0.2255  0.0336
56747DOD     C314062  10.699  15.608  22.967  0.2584 -0.0730  0.0601
56748DOD     C114063  21.925  28.749  19.996 -0.1368  0.0738 -0.0077
56748DOD     C214064  22.095  28.330  20.176 -0.0245 -0.1757 -0.0289
56748DOD     C314065  22.276  27.895  19.965  0.2718 -0.1852 -0.1571
56749DOD     C114066  10.657  19.343  27.267 -0.0052 -0.0341  0.0515
56749DOD     C214067  10.568  19.043  26.925 -0.1117  0.0085 -0.0008
56749DOD     C314068  10.683  18.926  26.521  0.3576  0.0423  0.0138
56750DOD     C114069   6.814  21.617  17.636 -0.2384  0.2476 -0.0929
56750DOD     C214070   7.237  21.745  17.595  0.2494 -0.0827  0.1134
56750DOD     C314071   7.707  21.761  17.542  0.2611  0.2064  0.0845
56751DOD     C114072  25.497  19.893  11.957  0.0359 -0.1763  0.3069
56751DOD     C214073  25.673  19.845  12.402  0.1748 -0.0428  0.2960
56751DOD     C314074  25.945  19.918  12.778  0.2958 -0.1667  0.2272
56752DOD     C114075  22.515  10.578  18.620 -0.1151  0.2566 -0.1086
56752DOD     C214076  22.460  10.162  18.842  0.0834 -0.1824 -0.0052
56752DOD     C314077  22.420   9.864  19.154  0.0682 -0.4293 -0.0352
56753DOD     C114078   7.654  21.785  20.321  0.0952 -0.0104  0.0836
56753DOD     C214079   7.162  21.858  20.423  0.1103 -0.0317 -0.0635
56753DOD     C314080   6.901  21.853  20.789 -0.0192  0.1903 -0.1513
56754DOD     C114081  23.562  12.928   1.807 -0.1921 -0.1919 -0.1438
56754DOD     C214082  23.668  12.509   1.669  0.0716  0.1181 -0.2274
56754DOD     C314083  23.477  12.242   1.375  0.1571 -0.1348 -0.2986
56755DOD     C114084   1.951  20.851  27.576  0.0055 -0.0732  0.3660
56755DOD     C214085   2.175  20.617  27.256  0.1650 -0.0064 -0.0443
56755DOD     C314086   2.615  20.619  27.059 -0.2014  0.1571  0.2112
56756DOD     C114087   3.672  20.681   6.828 -0.1288  0.0135 -0.1222
56756DOD     C214088   3.851  20.298   6.634 -0.0167  0.2551  0.3589
56756DOD     C314089   4.284  20.140   6.531  0.0552  0.1971  0.5211
56757DOD     C114090  12.588  17.468  10.348 -0.0170 -0.2198  0.2396
56757DOD     C214091  12.128  17.270  10.341 -0.1801  0.1825 -0.0963
56757DOD     C314092  11.823  17.165  10.708 -0.1585 -0.1586 -0.0591
56758DOD     C114093  13.042  28.196  25.991 -0.1302 -0.2936 -0.1233
56758DOD     C214094  13.031  28.507  25.622  0.1792 -0.3360 -0.1281
56758DOD     C314095  12.915  28.920  25.358 -0.0642 -0.2536  0.2271
56759DOD     C114096  11.453   6.797  28.589  0.2776 -0.0562 -0.0979
56759DOD     C214097  11.227   6.442  28.786  0.2085  0.2458 -0.3690
56759DOD     C314098  10.823   6.137  28.780  0.3619  0.0612 -0.2170
56760DOD     C114099   8.153  16.883  23.597  0.0469  0.1055 -0.0619
56760DOD     C214100   7.756  17.098  23.574  0.1896 -0.0577  0.4510
56760DOD     C314101   7.589  17.496  23.712 -0.4068  0.1732 -0.1581
56761DOD     C114102  25.215  16.351   0.661 -0.0088 -0.0806  0.2174
56761DOD     C214103  24.938  16.235   0.984 -0.2935  0.1518 -0.0672
56761DOD     C314104  24.648  16.034   1.256 -0.4064  0.0055  0.1708
56762DOD     C114105  24.513   9.164   8.199 -0.3034 -0.2300 -0.1933
56762DOD     C214106  24.901   9.011   8.396  0.2117  0.1727 -0.4562
56762DOD     C314107  25.329   8.913   8.411 -0.1666  0.0635 -0.0716
56763DOD     C114108  24.109   2.246  10.019  0.2645  0.0468 -0.1450
56763DOD     C214109  23.996   1.885  10.102 -0.0455 -0.2920  0.1791
56763DOD     C314110  23.769   1.519   9.935  0.3811  0.0633 -0.0260
56764DOD     C114111   2.135   9.738  22.954 -0.0774 -0.0640 -0.0578
56764DOD     C214112   2.088   9.401  22.664  0.1364 -0.2973 -0.0548
56764DOD     C314113   1.782   9.071  22.758  0.1834 -0.1343  0.1307
56765DOD     C114114  29.728  23.856  18.516  0.1162  0.1108  0.3503
56765DOD     C214115  30.097  23.675  18.223  0.2521 -0.0796  0.0421
56765DOD     C314116   0.067  23.378  18.086  0.3892  0.1221  0.2087
56766DOD     C114117  23.569  14.185  19.796 -0.0268 -0.2157 -0.0487
56766DOD     C214118  23.453  14.481  20.120 -0.1857 -0.1421 -0.1671
56766DOD     C314119  23.547  14.884  20.393  0.1622  0.0223  0.1251
56767DOD     C114120   4.280  23.949   0.139  0.0051 -0.0350 -0.1127
56767DOD     C214121   4.363  24.430   0.256  0.0926  0.2713 -0.4009
56767DOD     C314122   4.546  24.835   0.427  0.1394 -0.0498 -0.2895
56768DOD     C114123   4.447  29.961  27.081  0.1500  0.1693  0.0660
56768DOD     C214124   4.602  30.317  26.847 -0.1654  0.1006  0.1097
56768DOD     C314125   4.843   0.413  26.881 -0.3141  0.0971 -0.1571
56769DOD     C114126  10.939  27.708  30.257 -0.0616 -0.1323  0.2686
56769DOD     C214127  11.369  27.722  30.335 -0.0709 -0.4307  0.2604
56769DOD     C314128  11.868  27.792  30.223 -0.2719  0.2077 -0.0618
56770DOD     C114129  13.285  26.008  14.109 -0.0153 -0.0710  0.1570
56770DOD     C214130  13.546  26.303  13.857 -0.2635  0.0558  0.0708
56770DOD     C314131  13.737  26.689  13.710 -0.1441 -0.0749  0.1710
56771DOD     C114132  25.187   9.256  30.264 -0.3180 -0.2407  0.1129
56771DOD     C214133  24.727   9.313  30.116  0.1106  0.0491  0.2280
56771DOD     C314134  24.287   9.281  30.021  0.0467  0.0798  0.1121
56772DOD     C114135  21.719   8.642  30.224 -0.1180  0.0544  0.0068
56772DOD     C214136  22.051   8.899   0.115  0.0144  0.3014  0.0727
56772DOD     C314137  22.494   8.888   0.212 -0.0575 -0.2079 -0.3416
56773DOD     C114138  13.091  19.229  13.081 -0.1242  0.0497  0.2030
56773DOD     C214139  12.788  19.665  13.084  0.0891 -0.2144 -0.0355
56773DOD     C314140  12.713  20.112  13.117 -0.0259 -0.1388 -0.1145
56774DOD     C114141  17.510   1.525  30.084  0.1958 -0.2539  0.1352
56774DOD     C214142  17.794   1.928  29.995  0.2061  0.0473  0.1102
56774DOD     C314143  18.090   2.264  29.827  0.3780  0.1435  0.1324
56775DOD     C114144   7.323  16.260  30.143 -0.0908 -0.0842 -0.2218
56775DOD     C214145   7.523  15.805  30.166  0.0497 -0.1627 -0.0335
56775DOD     C314146   7.756  15.409  -0.010 -0.2050  0.2345 -0.2836
56776DOD     C114147  25.656  27.882   6.164 -0.3325 -0.0427  0.1827
56776DOD     C214148  25.675  28.002   6.659  0.0377 -0.4229  0.3324
56776DOD     C314149  25.546  28.291   7.023 -0.0338 -0.1556  0.0296
56777DOD     C114150  15.182  16.879   0.620  0.2496  0.1673 -0.0213
56777DOD     C214151  15.385  16.525   0.827  0.4168  0.1825  0.1776
56777DOD     C314152  15.156  16.123   0.930 -0.1063  0.1979  0.2623
56778DOD     C114153  21.051  24.785  13.602  0.2970 -0.0651  0.1803
56778DOD     C214154  20.846  24.404  13.651 -0.0312  0.0255  0.0078
56778DOD     C314155  20.820  23.938  13.786 -0.1633  0.1482  0.0854
56779DOD     C114156  17.682   4.735  22.764  0.1125  0.0085 -0.0083
56779DOD     C214157  18.002   4.701  22.499  0.0960  0.2672  0.0177
56779DOD     C314158  18.248   4.610  22.107  0.2655  0.1251 -0.4529
56780DOD     C114159  17.637   5.498   6.339 -0.0479 -0.4293 -0.2004
56780DOD     C214160  17.260   5.570   6.060  0.0756 -0.1534  0.1529
56780DOD     C314161  17.164   5.779   5.598 -0.0810 -0.1615  0.2799
56781DOD     C114162  22.579  21.108  28.762 -0.1891 -0.0600  0.1052
56781DOD     C214163  22.207  21.278  28.890 -0.1687  0.1431  0.1079
56781DOD     C314164  21.761  21.131  28.996  0.2331  0.0199  0.1583
56782DOD     C114165  26.315  15.725  29.934  0.1892 -0.2198 -0.1696
56782DOD     C214166  26.771  15.758  29.934  0.1590 -0.0877  0.2301
56782DOD     C314167  27.155  15.954  29.750  0.0887 -0.1790 -0.0720
56783DOD     C114168   7.116  24.198  15.587  0.1047 -0.1287  0.1549
56783DOD     C214169   6.725  24.480  15.699  0.1553 -0.0401 -0.1956
56783DOD     C314170   6.495  24.466  16.114  0.0250  0.0384  0.2296
56784DOD     C114171  10.869   9.788  23.335 -0.0943 -0.0678  0.0068
56784DOD     C214172  10.717   9.350  23.382 -0.0486  0.0452  0.2644
56784DOD     C314173  10.855   8.942  23.198 -0.2784 -0.0540  0.1484
56785DOD     C114174  10.630  25.434   1.213 -0.1352 -0.5131  0.1773
56785DOD     C214175  10.552  25.253   0.761 -0.3650 -0.2002  0.0833
56785DOD     C314176  10.629  24.889   0.477  0.2813  0.0910  0.2422
56786DOD     C114177   1.799   6.321  12.530 -0.1637  0.0193 -0.0049
56786DOD     C214178   2.059   6.114  12.208 -0.2774 -0.0293 -0.0389
56786DOD     C314179   2.036   5.778  11.909 -0.2027  0.0896 -0.1923
56787DOD     C114180  27.547  27.129  19.346 -0.4854 -0.1029  0.0360
56787DOD     C214181  27.315  27.222  19.708  0.0648  0.0043 -0.0508
56787DOD     C314182  27.149  27.166  20.135 -0.1076 -0.1815 -0.0487
56788DOD     C114183  17.056   7.156  25.688  0.3166 -0.1383 -0.2860
56788DOD     C214184  16.789   6.804  25.837  0.0142  0.2644  0.0211
56788DOD     C314185  16.428   6.491  25.727 -0.2192 -0.1472  0.1254
56789DOD     C114186   2.952   0.307   0.638  0.1049 -0.3253  0.1898
56789DOD     C214187   3.096   0.496   1.082  0.0638  0.5587 -0.2450
56789DOD     C314188   3.363   0.234   1.366 -0.0064 -0.1422  0.2021
56790DOD     C114189  21.260  11.271   9.857 -0.4456 -0.2352  0.0645
56790DOD     C214190  20.946  11.179  10.160  0.2566  0.1604  0.2040
56790DOD     C314191  20.901  11.250  10.675 -0.2040 -0.2751  0.0687
56791DOD     C114192  27.169  15.746   4.609  0.1189 -0.0289 -0.1301
56791DOD     C214193  26.988  16.137   4.518  0.1208 -0.0196 -0.0561
56791DOD     C314194  26.649  16.418   4.397  0.2357 -0.0717  0.1307
56792DOD     C114195  24.332  30.114  21.780 -0.1620  0.0365 -0.0674
56792DOD     C214196  24.162  30.258  21.361  0.0293 -0.1528  0.2874
56792DOD     C314197  23.751  30.240  21.083 -0.2486  0.1537  0.1874
56793DOD     C114198  18.398   1.130   1.866  0.0218  0.0707  0.3636
56793DOD     C214199  18.146   1.505   1.997 -0.2056  0.5251 -0.0768
56793DOD     C314200  18.329   1.899   2.154  0.3139 -0.0036  0.0053
56794DOD     C114201   8.028  18.073  10.908  0.1510 -0.3723  0.0658
56794DOD     C214202   8.103  18.252  10.480 -0.0739 -0.3807 -0.1978
56794DOD     C314203   8.226  18.734  10.523  0.0716 -0.0835  0.1411
56795DOD     C114204  11.609   3.439  16.753  0.2146  0.0270  0.1928
56795DOD     C214205  11.609   2.998  16.547 -0.0236  0.3022 -0.1221
56795DOD     C314206  12.034   2.768  16.503 -0.1301  0.2344 -0.1551
56796DOD     C114207  25.912   9.165  29.968  0.1208  0.1380  0.0324
56796DOD     C214208  25.563   9.239  29.675 -0.0909 -0.0803 -0.1728
56796DOD     C314209  25.304   9.496  29.391 -0.3160  0.1713  0.0368
56797DOD     C114210   9.633  19.807   3.906  0.0315  0.2307  0.0164
56797DOD     C214211   9.181  19.967   3.771 -0.1174 -0.0153  0.1488
56797DOD     C314212   8.766  19.840   3.684  0.1978  0.1192  0.0081
56798DOD     C114213  14.988  23.558  15.342 -0.0434 -0.1331 -0.2121
56798DOD     C214214  14.745  23.772  15.003 -0.4722  0.2134  0.1539
56798DOD     C314215  14.277  23.719  14.968  0.1461 -0.0419  0.0163
56799DOD     C114216   8.524   4.135  25.678 -0.0944  0.1084  0.0494
56799DOD     C214217   8.509   3.707  25.519 -0.2156 -0.1918  0.0581
56799DOD     C314218   8.145   3.442  25.260  0.0338  0.0999 -0.1554
56800DOD     C114219  12.946   8.004  16.777 -0.4715 -0.0923 -0.1739
56800DOD     C214220  12.874   7.681  16.456 -0.1191 -0.0187  0.2745
56800DOD     C314221  12.560   7.704  16.147 -0.1424 -0.1428  0.0935
56801DOD     C114222  25.406  17.739  27.262 -0.1300  0.1916  0.2553
56801DOD     C214223  25.702  17.587  27.550  0.2094 -0.0613 -0.0018
56801DOD     C314224  26.165  17.525  27.614  0.1971  0.0293 -0.0880
56802DOD     C114225  22.059   7.848  12.523  0.0828  0.1033  0.4354
56802DOD     C214226  22.436   7.696  12.260  0.0918  0.0353  0.1679
56802DOD     C314227  22.490   7.393  11.917 -0.1252 -0.1883 -0.1144
56803DOD     C114228  13.201  30.229  30.017  0.1525  0.0280  0.1440
56803DOD     C214229  13.562   0.059  29.724  0.0600 -0.0421  0.1079
56803DOD     C314230  13.596  30.213  29.288 -0.1347 -0.0242  0.0119
56804DOD     C114231  14.384  13.895  27.841 -0.1077 -0.2012 -0.1311
56804DOD     C214232  14.234  14.011  28.315 -0.2055 -0.1426  0.1369
56804DOD     C314233  13.890  14.023  28.627 -0.0167  0.0563 -0.3154
56805DOD     C114234  14.054  18.856   5.663  0.1096  0.1027 -0.0153
56805DOD     C214235  14.422  18.938   5.430 -0.1548  0.1920 -0.2882
56805DOD     C314236  14.789  19.237   5.363 -0.1415  0.2653 -0.2636
56806DOD     C114237   4.104  17.522  21.712 -0.2076 -0.0824 -0.1617
56806DOD     C214238   4.135  17.556  22.174 -0.1036 -0.2821  0.0173
56806DOD     C314239   4.188  17.454  22.630 -0.1955  0.1747  0.1890
56807DOD     C114240  28.311  30.146   0.625  0.1627  0.3619 -0.0094
56807DOD     C214241  27.925  30.039   0.932 -0.2697  0.2296  0.2256
56807DOD     C314242  27.816  29.824   1.316  0.4216  0.3245  0.2014
56808DOD     C114243   4.972  14.837  10.941 -0.2232 -0.2341 -0.0142
56808DOD     C214244   5.219  14.459  10.937 -0.0419 -0.1054 -0.1992
56808DOD     C314245   5.327  14.049  10.927 -0.1599  0.1128  0.1307
56809DOD     C114246  28.569   1.282  14.017 -0.0511  0.0841  0.2237
56809DOD     C214247  28.860   1.036  13.676 -0.4767 -0.1216  0.1585
56809DOD     C314248  29.167   1.012  13.309  0.1284  0.2528  0.0551
56810DOD     C114249  26.638  28.131   2.275 -0.0661  0.4757  0.0980
56810DOD     C214250  26.239  28.384   2.224 -0.0729  0.1052 -0.4378
56810DOD     C314251  25.848  28.268   2.315 -0.1086  0.0840 -0.2475
56811DOD     C114252  17.873   5.312  21.744  0.2526 -0.1602  0.2395
56811DOD     C214253  17.592   5.215  21.392  0.4188 -0.2023  0.2008
56811DOD     C314254  17.372   5.404  21.016  0.2770  0.0932  0.0991
56812DOD     C114255  12.585  23.559  15.289  0.2949 -0.0056 -0.0494
56812DOD     C214256  12.708  23.302  14.872 -0.0701 -0.1447 -0.2069
56812DOD     C314257  12.603  23.070  14.482  0.0965  0.1155 -0.0989
56813DOD     C114258   2.312  19.897  13.250  0.0722 -0.2751  0.0526
56813DOD     C214259   2.099  19.488  13.328  0.0286 -0.3400 -0.2203
56813DOD     C314260   1.786  19.219  13.065  0.0050 -0.2147  0.0158
56814DOD     C114261  17.371   8.644   4.259 -0.0822 -0.0632 -0.2038
56814DOD     C214262  17.341   8.205   4.418 -0.0087 -0.1019 -0.0902
56814DOD     C314263  17.245   7.764   4.763 -0.0925 -0.1846  0.1268
56815DOD     C114264  25.213  22.737  22.380  0.4124  0.0115 -0.0837
56815DOD     C214265  25.265  23.210  22.539  0.2385  0.1747  0.0504
56815DOD     C314266  25.101  23.331  22.934 -0.1183 -0.0165  0.1656
56816DOD     C114267  11.940  25.584  15.468  0.2054 -0.2976  0.2245
56816DOD     C214268  12.031  25.208  15.715 -0.1711  0.2507  0.0685
56816DOD     C314269  11.978  24.836  15.920  0.2000  0.1615 -0.0294
56817DOD     C114270  16.951   6.522   7.581 -0.1709 -0.2569  0.0040
56817DOD     C214271  17.075   6.755   7.960 -0.1336 -0.0444  0.0495
56817DOD     C314272  17.120   6.733   8.464  0.1241 -0.0297 -0.1524
56818DOD     C114273  27.951  25.455  30.347 -0.1161 -0.0845  0.1488
56818DOD     C214274  27.869  25.847  30.131  0.1410 -0.3132  0.3194
56818DOD     C314275  27.753  26.253  30.211 -0.0378 -0.0014 -0.1682
56819DOD     C114276   3.902   5.491  16.412 -0.1696 -0.4097  0.0496
56819DOD     C214277   3.786   5.166  16.669 -0.0096  0.1835 -0.2891
56819DOD     C314278   3.531   4.841  16.889 -0.0187  0.1374  0.0715
56820DOD     C114279  26.146  24.257  21.759 -0.1624  0.4706 -0.2814
56820DOD     C214280  26.380  24.625  21.922 -0.4066  0.0627 -0.0268
56820DOD     C314281  26.799  24.827  22.053  0.2792  0.1647 -0.2051
56821DOD     C114282  19.120  28.680  21.492 -0.1783 -0.0011  0.0071
56821DOD     C214283  18.725  28.756  21.164 -0.0342 -0.1720  0.0695
56821DOD     C314284  18.258  28.762  21.143 -0.1831 -0.2237 -0.1235
56822DOD     C114285  19.222   6.184  29.056  0.1206 -0.4640  0.0166
56822DOD     C214286  18.786   6.285  29.059 -0.0795  0.0804  0.0338
56822DOD     C314287  18.440   6.175  28.886 -0.0943 -0.1811  0.0285
56823DOD     C114288   2.965  17.993  18.571 -0.2901  0.0620  0.0844
56823DOD     C214289   3.330  17.793  18.577 -0.1791  0.0618 -0.0405
56823DOD     C314290   3.782  17.616  18.593 -0.2771  0.2173  0.0065
56824DOD     C114291   3.360   6.723  25.997  0.1702  0.3508 -0.1262
56824DOD     C214292   3.141   6.534  26.396  0.0854  0.1552 -0.1435
56824DOD     C314293   3.083   6.192  26.730  0.1690 -0.0512  0.1844
56825DOD     C114294  22.617  21.274   3.016  0.0796  0.0775 -0.0947
56825DOD     C214295  22.422  21.678   2.975 -0.2156 -0.2117  0.1120
56825DOD     C314296  22.186  21.957   3.226  0.2076 -0.0105  0.0363
56826DOD     C114297   5.875  16.744  14.067 -0.0767  0.0327 -0.1296
56826DOD     C214298   5.941  16.941  13.666 -0.1919  0.1688 -0.0702
56826DOD     C314299   5.921  16.960  13.197  0.1417  0.2319 -0.1743
56827DOD     C114300  12.818  11.419  24.632  0.1042  0.2482  0.0412
56827DOD     C214301  12.687  11.096  24.236  0.0123  0.1519 -0.1603
56827DOD     C314302  12.825  10.869  23.818  0.2246  0.1381 -0.2287
56828DOD     C114303   0.701   6.591   9.754 -0.0848 -0.0174  0.2588
56828DOD     C214304   0.928   6.861   9.368  0.0728  0.2927  0.0761
56828DOD     C314305   1.107   7.188   9.066  0.1980  0.0553  0.1564
56829DOD     C114306  19.939   1.223  24.894 -0.3243 -0.0827  0.0613
56829DOD     C214307  20.137   0.940  24.569  0.0199  0.1320  0.0324
56829DOD     C314308  20.340   0.552  24.508  0.1423  0.3642 -0.0771
56830DOD     C114309  15.661  27.405  30.162 -0.2691  0.2784  0.0705
56830DOD     C214310  15.496  27.843  30.166  0.0509 -0.0750 -0.1137
56830DOD     C314311  15.086  28.089  30.253  0.0888 -0.0851 -0.0908
56831DOD     C114312  22.591  22.317  27.646  0.2498  0.0494  0.1665
56831DOD     C214313  22.851  22.681  27.635 -0.1956 -0.1938 -0.1105
56831DOD     C314314  23.172  22.892  27.921 -0.1951  0.2308 -0.0324
56832DOD     C114315  20.549  13.264   8.410 -0.1387 -0.0070 -0.0028
56832DOD     C214316  20.536  13.611   8.155  0.0453 -0.0043 -0.2246
56832DOD     C314317  20.705  13.752   7.792  0.0735 -0.3373  0.0196
56833DOD     C114318   1.974  10.192  29.158  0.1418  0.2469 -0.1592
56833DOD     C214319   1.637  10.482  29.097 -0.1850 -0.0787  0.1345
56833DOD     C314320   1.303  10.695  28.883  0.0918 -0.0568 -0.3722
56834DOD     C114321  26.794  20.735   7.753 -0.2791  0.0504  0.2558
56834DOD     C214322  26.574  21.023   8.017  0.4305 -0.0340  0.4138
56834DOD     C314323  26.361  21.442   8.084 -0.0056 -0.0406  0.0639
56835DOD     C114324  29.845   0.427  28.656 -0.1409  0.1017  0.1196
56835DOD     C214325  29.422   0.687  28.606 -0.0150  0.0168  0.0421
56835DOD     C314326  29.026   0.876  28.363  0.1180  0.0841 -0.0756
56836DOD     C114327  22.530  22.492  12.256 -0.1505  0.2495 -0.0241
56836DOD     C214328  22.566  22.943  12.378  0.1655  0.0631  0.3605
56836DOD     C314329  22.585  23.437  12.360  0.0431 -0.1203  0.1578
56837DOD     C114330  29.154  16.998  24.909  0.2037 -0.1511 -0.0296
56837DOD     C214331  29.393  16.599  24.780 -0.0946  0.1368  0.0844
56837DOD     C314332  29.239  16.352  24.388 -0.0730  0.1211  0.1076
56838DOD     C114333  17.192  23.271  29.404  0.2961  0.0157  0.0355
56838DOD     C214334  17.354  22.900  29.707 -0.3742  0.1865  0.1773
56838DOD     C314335  17.750  22.883  29.972  0.0235 -0.0954 -0.1186
56839DOD     C114336  26.655   6.070  16.260  0.3251 -0.0547  0.0927
56839DOD     C214337  26.550   5.703  15.996 -0.2863 -0.0263  0.0901
56839DOD     C314338  26.863   5.395  15.714  0.0895  0.0117  0.0434
56840DOD     C114339  15.726   8.372   6.855  0.1050 -0.1244  0.2397
56840DOD     C214340  15.684   8.110   6.512  0.0923 -0.3657 -0.1978
56840DOD     C314341  15.502   7.828   6.192  0.2209  0.0327 -0.1580
56841DOD     C114342  29.648   1.257   8.855  0.1113 -0.0281 -0.1696
56841DOD     C214343  29.955   1.274   8.477 -0.0701 -0.1326  0.1201
56841DOD     C314344  30.181   1.425   8.078  0.2914  0.4399 -0.0162
56842DOD     C114345  13.761   1.315   4.016 -0.2259 -0.0925  0.2632
56842DOD     C214346  13.767   1.826   3.899 -0.0183  0.2380  0.1458
56842DOD     C314347  13.721   2.308   3.844 -0.0859  0.0651 -0.0375
56843DOD     C114348   3.056  20.316   5.102 -0.1146  0.1118 -0.0996
56843DOD     C214349   2.604  20.294   4.909  0.1553 -0.1136  0.0542
56843DOD     C314350   2.520  20.583   4.530  0.1858 -0.0273  0.2872
56844DOD     C114351   6.287  16.403  30.199  0.2081  0.0386 -0.1549
56844DOD     C214352   5.855  16.209  30.118 -0.1894  0.3656  0.0537
56844DOD     C314353   5.552  15.901  30.133  0.4201 -0.5390  0.2095
56845DOD     C114354   5.009  11.247   6.154 -0.0396  0.0659  0.3685
56845DOD     C214355   4.956  11.325   6.575 -0.3810  0.2903 -0.2005
56845DOD     C314356   4.681  11.353   6.941  0.1590 -0.0345 -0.0063
56846DOD     C114357   7.470   1.087  11.090 -0.3180 -0.2618 -0.0395
56846DOD     C214358   7.342   0.662  10.897  0.3294 -0.3457  0.0844
56846DOD     C314359   7.534   0.204  10.989 -0.6043 -0.4673  0.0075
56847DOD     C114360  19.679  20.172   7.242 -0.1352 -0.2565  0.1138
56847DOD     C214361  19.598  19.912   7.572 -0.1595  0.2424 -0.4621
56847DOD     C314362  19.593  19.475   7.765 -0.1492  0.3256 -0.1014
56848DOD     C114363  23.625  13.633  22.211  0.0004 -0.1193  0.0134
56848DOD     C214364  23.960  13.587  22.537 -0.1742  0.2376  0.0848
56848DOD     C314365  24.268  13.265  22.716 -0.0432  0.1755 -0.2190
56849DOD     C114366   8.314  30.176  29.342  0.0611 -0.0789  0.2110
56849DOD     C214367   8.222  29.901  28.912 -0.3187  0.0261  0.1484
56849DOD     C314368   8.378  29.935  28.457  0.0204 -0.1693  0.1772
56850DOD     C114369  27.818  17.013  12.532  0.1523  0.1641 -0.2005
56850DOD     C214370  28.057  16.634  12.599  0.1082 -0.1405 -0.0707
56850DOD     C314371  28.460  16.516  12.608  0.0476 -0.2469  0.0508
56851DOD     C114372  14.901  10.719  17.718 -0.0840 -0.0484  0.3558
56851DOD     C214373  14.454  10.668  17.569 -0.1571  0.1795  0.1561
56851DOD     C314374  14.095  10.757  17.268 -0.0133 -0.0244 -0.1432
56852DOD     C114375   9.944  21.290  29.575  0.4580 -0.2491  0.2128
56852DOD     C214376   9.810  21.706  29.351  0.1623 -0.2134  0.1729
56852DOD     C314377   9.625  22.131  29.535 -0.2827 -0.4096 -0.0977
56853DOD     C114378  26.034  17.528  30.097 -0.0803 -0.2682  0.2977
56853DOD     C214379  25.792  17.931  29.979  0.1174 -0.0885  0.3062
56853DOD     C314380  25.853  18.283  29.664  0.0374 -0.0639  0.4633
56854DOD     C114381   1.224  17.888  25.477 -0.0168  0.0880 -0.0002
56854DOD     C214382   1.648  17.740  25.390  0.3056  0.1810 -0.1094
56854DOD     C314383   1.844  17.439  25.632  0.1401  0.0007  0.1606
56855DOD     C114384  16.050  27.319  25.820  0.3060 -0.0942  0.1831
56855DOD     C214385  15.715  27.560  26.000  0.0929  0.0158 -0.0189
56855DOD     C314386  15.355  27.817  26.149 -0.0212  0.0999  0.2268
56856DOD     C114387  19.897  15.999   4.858 -0.1982  0.1917  0.0875
56856DOD     C214388  19.778  16.264   4.505 -0.0731  0.3121 -0.1652
56856DOD     C314389  19.525  16.668   4.532  0.2180 -0.2384 -0.2350
56857DOD     C114390  25.152  27.927   1.574 -0.1522  0.2609  0.1474
56857DOD     C214391  25.483  28.032   1.190  0.0966  0.0127 -0.2351
56857DOD     C314392  25.947  28.053   1.065 -0.0675  0.1997 -0.0866
56858DOD     C114393   2.095  12.584  24.744 -0.0133  0.2495 -0.0285
56858DOD     C214394   1.915  12.716  25.137 -0.0502 -0.3027 -0.0955
56858DOD     C314395   1.905  13.122  25.351 -0.0585  0.2273  0.3676
56859DOD     C114396   3.975  11.731  15.839  0.0402 -0.1070  0.2086
56859DOD     C214397   4.052  12.143  15.968 -0.0553 -0.2098  0.0707
56859DOD     C314398   4.044  12.571  16.259  0.1892  0.2068 -0.1776
56860DOD     C114399   7.899  16.617  10.939  0.1731  0.1784  0.1637
56860DOD     C214400   8.257  16.444  11.151 -0.0571 -0.0834 -0.4243
56860DOD     C314401   8.515  16.135  10.911  0.0946 -0.0308  0.3552
56861DOD     C114402  17.130   1.843  17.220 -0.0413 -0.0766  0.0636
56861DOD     C214403  17.558   1.669  17.202  0.0040 -0.2179 -0.0961
56861DOD     C314404  17.774   1.634  16.788 -0.0195 -0.4022  0.1546
56862DOD     C114405   8.486  11.835   8.335 -0.4207 -0.0811  0.2619
56862DOD     C214406   8.115  11.601   8.127  0.0128 -0.3122  0.0815
56862DOD     C314407   7.699  11.611   8.033 -0.3578 -0.1054  0.0866
56863DOD     C114408  10.658  20.885   9.743  0.2693  0.0983 -0.2596
56863DOD     C214409  10.179  21.049   9.789 -0.0226  0.1441 -0.0168
56863DOD     C314410   9.946  20.941  10.219 -0.0712  0.1129 -0.0225
56864DOD     C114411  20.179  18.744   9.816 -0.1454  0.1390 -0.3676
56864DOD     C214412  19.736  18.581   9.975  0.2722 -0.1690 -0.1437
56864DOD     C314413  19.370  18.413  10.237  0.0951 -0.2930 -0.2522
56865DOD     C114414  29.183  18.598  10.549 -0.0927 -0.3082 -0.1518
56865DOD     C214415  29.583  18.837  10.721 -0.2467  0.3004 -0.1361
56865DOD     C314416  29.796  19.290  10.667 -0.0667  0.0759  0.0381
56866DOD     C114417   9.194  27.862   3.238  0.1467 -0.3477  0.0572
56866DOD     C214418   9.391  28.225   3.144 -0.1677  0.0158  0.2253
56866DOD     C314419   9.745  28.400   2.863  0.1674 -0.1847 -0.1379
56867DOD     C114420  18.569  18.617  17.077 -0.0181  0.0282 -0.1804
56867DOD     C214421  18.583  18.148  17.157 -0.2520  0.0321  0.1415
56867DOD     C314422  18.469  17.823  16.912  0.2676 -0.0058  0.1018
56868DOD     C114423  28.807  19.512  24.618 -0.0032 -0.0133  0.1340
56868DOD     C214424  28.406  19.705  24.526 -0.1283 -0.0035 -0.1954
56868DOD     C314425  28.446  20.023  24.163 -0.0331  0.2932 -0.0919
56869DOD     C114426  30.043  27.921  13.154  0.0187  0.4046  0.0712
56869DOD     C214427  29.660  27.884  12.889  0.0351  0.1154  0.1642
56869DOD     C314428  29.326  27.673  12.640 -0.5014 -0.0702 -0.3839
56870DOD     C114429  10.087  25.242  22.428 -0.1088 -0.3479 -0.1347
56870DOD     C214430   9.829  25.242  22.041 -0.1501 -0.1670 -0.0975
56870DOD     C314431   9.720  25.575  21.696 -0.0251 -0.2318  0.0038
56871DOD     C114432  26.071  25.665  15.501 -0.1727  0.2802  0.0381
56871DOD     C214433  25.692  25.661  15.279  0.4359  0.1039  0.1396
56871DOD     C314434  25.504  25.363  15.040  0.0080 -0.1317 -0.0139
56872DOD     C114435  15.508  13.918   9.292  0.0531  0.0981  0.0431
56872DOD     C214436  15.514  14.407   9.285 -0.1590 -0.3826  0.1144
56872DOD     C314437  15.645  14.516   8.859 -0.2739  0.3491  0.3012
56873DOD     C114438   0.720  11.837  25.673 -0.1798  0.1093  0.0893
56873DOD     C214439   0.985  11.942  25.278  0.0233 -0.0713 -0.4012
56873DOD     C314440   1.426  11.741  25.259  0.0343 -0.0806  0.0351
56874DOD     C114441   7.045   7.679   6.884  0.3024 -0.0752  0.0014
56874DOD     C214442   7.487   7.661   7.062  0.0258  0.1572  0.0745
56874DOD     C314443   7.864   7.838   7.337  0.0586  0.1419 -0.1473
56875DOD     C114444   4.562   3.407  12.746  0.1665 -0.2904  0.1367
56875DOD     C214445   4.730   3.573  12.314 -0.1604  0.0782 -0.0179
56875DOD     C314446   5.153   3.766  12.045  0.1365 -0.0173  0.0187
56876DOD     C114447   7.191   7.151   1.745 -0.1530 -0.0217  0.3477
56876DOD     C214448   7.077   6.999   1.316  0.1885  0.0186  0.4698
56876DOD     C314449   6.744   6.855   0.981  0.0935  0.2316  0.0776
56877DOD     C114450   1.786   0.613  18.682  0.1367  0.0261 -0.1569
56877DOD     C214451   1.604   0.447  18.273 -0.0142 -0.0920 -0.2081
56877DOD     C314452   1.474   0.505  17.777 -0.0445  0.0034 -0.1119
56878DOD     C114453   7.739   2.231  22.829  0.1903 -0.2578 -0.2017
56878DOD     C214454   7.604   2.307  23.308  0.2198  0.0723  0.3800
56878DOD     C314455   7.780   2.177  23.729  0.2335  0.1590 -0.0624
56879DOD     C114456   1.974   7.712  24.196 -0.2722  0.2485 -0.0277
56879DOD     C214457   2.482   7.678  24.114  0.1328  0.1106 -0.1477
56879DOD     C314458   2.847   7.804  23.824  0.0646 -0.1122  0.4924
56880DOD     C114459  25.765  25.362   4.462  0.1881  0.0834 -0.1390
56880DOD     C214460  26.199  25.325   4.612 -0.0415 -0.2505  0.2215
56880DOD     C314461  26.320  25.389   5.045 -0.2219 -0.0287 -0.0335
56881DOD     C114462   7.806   2.291  30.124 -0.0807 -0.1123 -0.0817
56881DOD     C214463   8.232   2.309  29.855 -0.3569 -0.0412  0.3277
56881DOD     C314464   8.504   2.615  29.651 -0.1525  0.2830 -0.0388
56882DOD     C114465  16.523   8.453   8.449  0.0496  0.1233 -0.0105
56882DOD     C214466  16.761   8.392   8.782  0.0790  0.0134 -0.1518
56882DOD     C314467  16.631   8.085   9.163  0.0529 -0.1290 -0.2343
56883DOD     C114468  24.073  22.346   5.345 -0.0812  0.3755  0.0070
56883DOD     C214469  24.402  22.436   4.999  0.0793 -0.1283  0.2818
56883DOD     C314470  24.523  22.466   4.561  0.1249 -0.1406  0.0821
56884DOD     C114471  19.784   3.826  18.578  0.0670  0.0185  0.3770
56884DOD     C214472  20.027   4.048  18.907 -0.1970  0.2291  0.0521
56884DOD     C314473  20.422   4.261  18.939 -0.2509  0.0556 -0.1070
56885DOD     C114474   3.240   2.363  13.514  0.0959 -0.1771 -0.0115
56885DOD     C214475   3.038   2.069  13.279  0.0899 -0.4659 -0.1549
56885DOD     C314476   3.044   1.706  13.014  0.0918  0.2014  0.0681
56886DOD     C114477  13.583  25.919   0.985  0.0011 -0.0599 -0.1001
56886DOD     C214478  13.884  26.268   1.126  0.0068 -0.0528 -0.0229
56886DOD     C314479  14.021  26.692   1.319  0.0056 -0.2352  0.0326
56887DOD     C114480  11.957   7.202  12.435  0.0395  0.1642 -0.0610
56887DOD     C214481  11.826   7.548  12.644 -0.1072 -0.0606 -0.0207
56887DOD     C314482  11.935   7.943  12.507  0.0286 -0.5210 -0.2682
56888DOD     C114483   0.159   2.032  13.771 -0.0232  0.1712 -0.0891
56888DOD     C214484  30.063   2.073  13.845  0.0664  0.0599 -0.1455
56888DOD     C314485  29.692   1.943  13.608  0.2948  0.1131 -0.0161
56889DOD     C114486   2.713  23.837  21.355  0.1375 -0.1505 -0.2506
56889DOD     C214487   2.358  23.816  21.076  0.0109  0.0249  0.1407
56889DOD     C314488   1.909  23.798  20.987 -0.3544  0.4980  0.0798
56890DOD     C114489  16.136  27.921   2.033 -0.0003 -0.1708  0.3593
56890DOD     C214490  15.971  27.501   1.874 -0.2144 -0.1420  0.2179
56890DOD     C314491  15.583  27.298   2.038  0.1280  0.2018  0.0053
56891DOD     C114492  29.010  10.751  12.207  0.1669  0.2324  0.0369
56891DOD     C214493  28.581  10.613  12.128 -0.2888  0.3774 -0.2974
56891DOD     C314494  28.158  10.739  12.284  0.0443 -0.2236 -0.3275
56892DOD     C114495  30.168   1.161  18.839 -0.2310  0.1469 -0.4685
56892DOD     C214496  29.856   1.030  18.537 -0.0509  0.2261 -0.1565
56892DOD     C314497  29.560   1.222  18.242  0.0488 -0.1120  0.0396
56893DOD     C114498  15.491  13.881  23.046 -0.0978 -0.1268  0.1382
56893DOD     C214499  15.953  13.915  22.963 -0.1038 -0.2734 -0.0810
56893DOD     C314500  16.355  14.120  23.102 -0.1352 -0.1493  0.1281
56894DOD     C114501  14.688   2.827   7.097  0.0875 -0.3089 -0.1635
56894DOD     C214502  15.095   2.685   6.921  0.2134  0.2021  0.3784
56894DOD     C314503  15.420   2.880   6.631 -0.2698 -0.1498  0.0753
56895DOD     C114504  17.752   1.327  18.644 -0.4790  0.1043 -0.2123
56895DOD     C214505  18.112   1.073  18.801 -0.1730 -0.1228 -0.1617
56895DOD     C314506  18.450   0.731  18.927  0.2724  0.0071  0.2304
56896DOD     C114507  22.782   3.976   2.271  0.2177  0.2917 -0.2689
56896DOD     C214508  22.397   3.958   2.506 -0.0923 -0.0334 -0.1216
56896DOD     C314509  22.009   3.977   2.744 -0.0124 -0.1789 -0.0066
56897DOD     C114510  27.471   7.205  12.110 -0.0505  0.1855 -0.0438
56897DOD     C214511  27.221   7.552  11.923 -0.2594  0.1771  0.0656
56897DOD     C314512  26.993   7.964  11.875 -0.1869  0.0922  0.0372
56898DOD     C114513  16.288  24.447   6.742  0.0865  0.1103  0.0156
56898DOD     C214514  16.740  24.470   6.726  0.2758  0.0725 -0.0140
56898DOD     C314515  17.025  24.668   6.437  0.1515 -0.1828 -0.3435
56899DOD     C114516  27.418  23.884   9.614  0.0462 -0.3401  0.4007
56899DOD     C214517  27.280  24.317   9.636 -0.1200  0.5699 -0.0334
56899DOD     C314518  27.146  24.782   9.570  0.3778  0.0756  0.1888
56900DOD     C114519  24.254  13.456  29.807  0.0736 -0.0279 -0.1150
56900DOD     C214520  24.341  13.588  29.369  0.0218  0.0779 -0.1734
56900DOD     C314521  24.461  13.914  29.037 -0.0647  0.1996 -0.2007
56901DOD     C114522  28.706  18.045  29.513 -0.2713  0.1890 -0.2092
56901DOD     C214523  28.911  18.315  29.842  0.0868 -0.0681 -0.1982
56901DOD     C314524  29.253  18.612  29.975  0.0265 -0.1154 -0.0518
56902DOD     C114525  13.112  11.437  26.610 -0.0301  0.2309  0.2122
56902DOD     C214526  12.814  11.617  26.312  0.4101 -0.2407 -0.2964
56902DOD     C314527  12.773  12.092  26.156 -0.2669 -0.0264 -0.1993
56903DOD     C114528   5.334   5.008   2.158  0.3679 -0.2092  0.0934
56903DOD     C214529   5.621   5.030   2.516 -0.0018  0.0567 -0.2948
56903DOD     C314530   5.600   5.170   2.932 -0.3680 -0.0518  0.0957
56904DOD     C114531  13.861  23.842  15.331 -0.0889  0.3369 -0.4042
56904DOD     C214532  13.403  23.758  15.331 -0.1103  0.0794 -0.3403
56904DOD     C314533  13.020  23.693  15.073 -0.0866 -0.1267  0.4144
56905DOD     C114534  17.576  19.375  19.420 -0.1442 -0.2336  0.0466
56905DOD     C214535  17.926  19.606  19.249  0.0464  0.3708  0.2894
56905DOD     C314536  18.410  19.460  19.272 -0.0213 -0.0789  0.0270
56906DOD     C114537   3.907  20.619  18.459 -0.3763  0.0687  0.0602
56906DOD     C214538   3.612  20.630  18.165 -0.1181 -0.0106 -0.1588
56906DOD     C314539   3.225  20.759  17.904 -0.0911  0.1962 -0.1059
56907DOD     C114540  25.117  27.799  19.061  0.3576 -0.0760 -0.1310
56907DOD     C214541  25.172  27.375  19.143 -0.3326  0.4981 -0.1173
56907DOD     C314542  25.157  27.063  19.492  0.0338  0.4043 -0.0679
56908DOD     C114543  17.604  26.288   7.891 -0.2685 -0.2239  0.2917
56908DOD     C214544  17.384  26.264   8.305  0.0685 -0.3437 -0.3076
56908DOD     C314545  17.102  26.562   8.582  0.1204  0.1371  0.0998
56909DOD     C114546  12.717  11.521  17.883  0.2671  0.3273 -0.1883
56909DOD     C214547  12.353  11.683  17.768  0.1511 -0.4031 -0.3843
56909DOD     C314548  12.113  11.691  17.376 -0.0511 -0.1781  0.0357
56910DOD     C114549  28.105  22.560   2.693 -0.0712 -0.0775 -0.0875
56910DOD     C214550  28.009  22.542   3.175 -0.1457 -0.0126  0.1656
56910DOD     C314551  27.922  22.631   3.649 -0.0793  0.0022  0.0325
56911DOD     C114552  19.312  23.330  27.780 -0.2146  0.2673  0.3488
56911DOD     C214553  18.958  23.123  27.958 -0.1810 -0.1325 -0.0136
56911DOD     C314554  18.515  23.105  28.109  0.0287  0.0196 -0.0631
56912DOD     C114555  14.761  30.163  10.391 -0.3171  0.1658  0.0434
56912DOD     C214556  14.883  29.961  10.000 -0.0202 -0.1426  0.0497
56912DOD     C314557  14.818  29.968   9.504  0.3296  0.2231  0.0561
56913DOD     C114558   9.499  23.765  17.342  0.1504 -0.2013 -0.0354
56913DOD     C214559   9.339  23.970  17.744  0.0071  0.0094 -0.0681
56913DOD     C314560   9.278  24.240  18.100 -0.2315 -0.2045 -0.2645
56914DOD     C114561  15.048  26.117  16.831 -0.4162  0.1669  0.2049
56914DOD     C214562  15.057  25.644  16.816 -0.1129  0.0542 -0.2024
56914DOD     C314563  14.721  25.320  16.741  0.0955 -0.3616 -0.0206
56915DOD     C114564  30.148  10.434  11.258  0.1432 -0.0788 -0.1033
56915DOD     C214565   0.071  10.239  10.957 -0.4581 -0.0892  0.0779
56915DOD     C314566   0.024  10.377  10.495 -0.2612 -0.3379  0.1161
56916DOD     C114567   0.781  23.143  17.682 -0.0820 -0.2792  0.1130
56916DOD     C214568   0.670  22.671  17.569  0.1670 -0.0087  0.0583
56916DOD     C314569   0.642  22.219  17.482  0.1743  0.2421 -0.1477
56917DOD     C114570  16.067   3.191  24.483  0.2429 -0.3607 -0.1015
56917DOD     C214571  16.227   3.129  24.888 -0.1016  0.1313  0.2697
56917DOD     C314572  16.040   3.038  25.336  0.2692 -0.0779  0.1224
56918DOD     C114573   4.174  27.333  16.951 -0.3845 -0.1654  0.2752
56918DOD     C214574   4.605  27.407  17.161  0.1676 -0.0484 -0.1561
56918DOD     C314575   5.052  27.370  17.399  0.0346  0.1581 -0.1988
56919DOD     C114576   0.507  13.273  14.033 -0.0151 -0.1375 -0.3577
56919DOD     C214577   0.585  12.833  14.238  0.2113  0.0368  0.0033
56919DOD     C314578   0.859  12.496  14.359 -0.1627 -0.0392  0.1593
56920DOD     C114579  21.539   3.468   7.140 -0.1618 -0.0396 -0.1018
56920DOD     C214580  21.470   3.814   7.479  0.3157  0.5333 -0.1228
56920DOD     C314581  21.724   4.160   7.643  0.3991 -0.0037  0.1212
56921DOD     C114582  16.272  12.575  30.202  0.3953  0.4354 -0.2382
56921DOD     C214583  16.083  12.755   0.209 -0.0963 -0.1042 -0.2555
56921DOD     C314584  15.931  12.977   0.572  0.1781  0.0031 -0.2797
56922DOD     C114585   5.654  16.498  17.146  0.1786 -0.1983 -0.2923
56922DOD     C214586   5.184  16.635  17.164  0.0593 -0.1031  0.1039
56922DOD     C314587   4.786  16.725  16.928 -0.0646  0.0631  0.2672
56923DOD     C114588  16.008  12.757   3.293 -0.1317  0.1075  0.0432
56923DOD     C214589  16.244  12.600   2.886 -0.0516 -0.1280  0.1384
56923DOD     C314590  16.270  12.832   2.422 -0.1468 -0.0012 -0.2961
56924DOD     C114591  15.138  20.953  29.811 -0.4376  0.1147  0.1608
56924DOD     C214592  15.361  21.381  29.577  0.1600 -0.1417  0.0086
56924DOD     C314593  15.794  21.490  29.374  0.2232 -0.5673 -0.0331
56925DOD     C114594   2.385  17.059  25.579 -0.2135  0.0039 -0.1225
56925DOD     C214595   2.714  16.790  25.676  0.1859 -0.4201  0.3776
56925DOD     C314596   3.072  16.805  25.878 -0.1326  0.1507  0.1552
56926DOD     C114597   3.696  25.320   4.578  0.1948 -0.0055 -0.2874
56926DOD     C214598   3.667  24.835   4.552  0.0116  0.1435  0.1093
56926DOD     C314599   3.731  24.380   4.512  0.2682  0.0993  0.2039
56927DOD     C114600   1.858  23.816   0.822 -0.1683  0.1866 -0.0304
56927DOD     C214601   1.737  24.165   1.058 -0.0249 -0.0164  0.2523
56927DOD     C314602   1.800  24.271   1.512  0.0132  0.2357  0.0574
56928DOD     C114603  25.857   1.176  11.121 -0.3027 -0.0287 -0.0705
56928DOD     C214604  25.745   0.740  11.148  0.1682  0.0698  0.0880
56928DOD     C314605  25.562   0.336  11.221  0.3381 -0.2076  0.0635
56929DOD     C114606  29.930   8.262  17.624  0.2706  0.2837 -0.2153
56929DOD     C214607  29.594   8.517  17.402  0.3784 -0.0737 -0.2066
56929DOD     C314608  29.415   8.829  17.137  0.2124 -0.0191  0.2364
56930DOD     C114609   8.358   9.286   6.368  0.3440  0.0454  0.0121
56930DOD     C214610   8.577   9.169   6.776  0.2749  0.2689 -0.0708
56930DOD     C314611   8.887   8.900   7.039  0.1418 -0.0956 -0.0175
56931DOD     C114612   3.134  20.837   5.431  0.0731  0.0445  0.0108
56931DOD     C214613   3.165  21.301   5.375  0.2757 -0.0215 -0.1170
56931DOD     C314614   3.387  21.693   5.355  0.0909  0.2011  0.2286
56932DOD     C114615   4.929  20.556  30.104 -0.1041 -0.3032  0.1989
56932DOD     C214616   5.321  20.789  30.179 -0.0245  0.3984 -0.1779
56932DOD     C314617   5.680  21.028  30.340 -0.1763 -0.2595 -0.0624
56933DOD     C114618   5.128   3.151   1.792 -0.2851  0.1347  0.1098
56933DOD     C214619   4.702   3.139   2.094 -0.0605 -0.1538  0.2044
56933DOD     C314620   4.502   3.285   2.474 -0.0196  0.0880  0.1012
56934DOD     C114621  15.851  26.365   8.289  0.0651 -0.0263 -0.0278
56934DOD     C214622  15.980  26.566   7.867  0.2057 -0.1440  0.1218
56934DOD     C314623  16.125  26.607   7.417 -0.1965 -0.1376  0.2146
56935DOD     C114624  18.723  20.652  23.378  0.1160 -0.2872  0.2326
56935DOD     C214625  18.688  20.279  23.647 -0.1439 -0.2587  0.0939
56935DOD     C314626  18.872  19.838  23.803 -0.1012  0.1013 -0.1944
56936DOD     C114627  26.242  21.838  28.150 -0.1294 -0.2541  0.1907
56936DOD     C214628  25.866  21.693  28.399 -0.2141  0.1090 -0.2286
56936DOD     C314629  25.519  21.742  28.759  0.3761  0.0823  0.0080
56937DOD     C114630   7.328  18.902  15.900  0.0639  0.1737  0.0309
56937DOD     C214631   7.078  18.567  16.166 -0.2371 -0.2106  0.0061
56937DOD     C314632   6.811  18.534  16.570 -0.1649 -0.2642  0.4153
56938DOD     C114633  10.134  21.000   5.464 -0.1825 -0.1859  0.1755
56938DOD     C214634  10.364  20.852   5.762 -0.1466  0.0851  0.1894
56938DOD     C314635  10.608  20.866   6.170 -0.1446 -0.1928  0.1761
56939DOD     C114636  25.721  20.681  29.868  0.3449 -0.1489  0.1042
56939DOD     C214637  25.874  20.479  29.451  0.2037  0.1698  0.1285
56939DOD     C314638  26.092  20.594  29.085 -0.2901 -0.0065 -0.0947
56940DOD     C114639   2.130  21.840   7.089 -0.3329  0.3168 -0.0897
56940DOD     C214640   1.937  22.253   6.961  0.0259 -0.2912 -0.0579
56940DOD     C314641   1.922  22.488   6.596 -0.0038  0.3286 -0.0221
56941DOD     C114642  24.851  14.479   4.240  0.3258 -0.1706 -0.0817
56941DOD     C214643  24.489  14.163   4.201 -0.0511  0.1519 -0.0436
56941DOD     C314644  24.229  13.871   4.300  0.0378  0.4613  0.1414
56942DOD     C114645  24.459  11.549  17.197  0.2511 -0.0885 -0.1582
56942DOD     C214646  24.246  11.725  17.591  0.1036 -0.1274 -0.1214
56942DOD     C314647  23.836  11.706  17.741 -0.0409 -0.0431 -0.1485
56943DOD     C114648  25.576   2.761  18.776 -0.0240  0.2119 -0.0409
56943DOD     C214649  25.529   2.300  18.831  0.0633 -0.1317  0.0175
56943DOD     C314650  25.896   2.052  18.751 -0.2107  0.2683 -0.0532
56944DOD     C114651   2.968   8.825  29.776  0.1280  0.2291  0.0287
56944DOD     C214652   3.327   8.485  29.833  0.1907  0.0562  0.0580
56944DOD     C314653   3.711   8.356  29.655  0.0678 -0.2782 -0.1361
56945DOD     C114654  23.998  16.626   2.873  0.2393  0.3964  0.0268
56945DOD     C214655  24.238  16.914   3.142 -0.2477  0.2054 -0.0674
56945DOD     C314656  24.332  17.336   3.326 -0.1687 -0.0742 -0.0338
56946DOD     C114657  15.162   1.170  27.720  0.2063 -0.0728 -0.1747
56946DOD     C214658  15.353   1.428  28.063 -0.0388 -0.0833 -0.2359
56946DOD     C314659  15.367   1.861  28.270 -0.1441  0.0677 -0.0740
56947DOD     C114660  29.092  16.976  29.196 -0.1116 -0.0799 -0.0210
56947DOD     C214661  28.791  17.078  29.488  0.0410 -0.0622  0.0923
56947DOD     C314662  28.670  17.081  29.972  0.0671  0.0709  0.3925
56948DOD     C114663   2.972   4.093  25.987  0.1953 -0.1957  0.1618
56948DOD     C214664   3.396   4.254  26.115  0.1860 -0.0085 -0.1522
56948DOD     C314665   3.652   4.637  26.252 -0.0296 -0.0495 -0.0736
56949DOD     C114666   2.740  14.909   4.436  0.1166 -0.2176  0.1595
56949DOD     C214667   2.588  14.709   4.087 -0.1675  0.2167 -0.0809
56949DOD     C314668   2.332  14.544   3.727 -0.2018 -0.1712 -0.1502
56950DOD     C114669  26.650   5.957  15.051  0.0784  0.1747 -0.1783
56950DOD     C214670  26.678   5.645  14.656  0.0435 -0.2706  0.0440
56950DOD     C314671  26.740   5.752  14.225 -0.0595 -0.1406  0.1224
56951DOD     C114672   5.181   1.928  20.867  0.2385 -0.2711  0.0625
56951DOD     C214673   5.609   1.798  20.748  0.4374 -0.1692 -0.1087
56951DOD     C314674   6.082   1.839  20.783  0.1669  0.1089 -0.0129
56952DOD     C114675  16.785  27.231  12.936 -0.1325  0.1300  0.3958
56952DOD     C214676  17.006  27.640  12.744  0.0800  0.0417  0.1624
56952DOD     C314677  17.453  27.647  12.818 -0.1257  0.1624  0.1120
56953DOD     C114678  21.536  23.638  18.412  0.1637  0.3994 -0.1622
56953DOD     C214679  21.569  23.478  17.974 -0.0197 -0.2448  0.1748
56953DOD     C314680  21.687  23.629  17.563 -0.2320 -0.0810  0.2386
56954DOD     C114681  10.500  13.242  20.017 -0.2642 -0.1978  0.3544
56954DOD     C214682  10.103  13.199  20.219 -0.0085  0.0455 -0.3417
56954DOD     C314683   9.653  13.136  20.191  0.0551  0.0234  0.2178
56955DOD     C114684   0.404   4.989  24.254 -0.2747  0.2251  0.1727
56955DOD     C214685   0.732   4.639  24.237 -0.1173  0.0338  0.0581
56955DOD     C314686   1.025   4.440  23.944 -0.1919  0.0002  0.0828
56956DOD     C114687  10.071   6.585  17.252  0.0750 -0.0387 -0.0840
56956DOD     C214688  10.494   6.416  17.262  0.0527 -0.1200 -0.2920
56956DOD     C314689  10.912   6.411  17.459  0.0803  0.1335 -0.0336
56957DOD     C114690   3.296  22.859  26.350  0.0653  0.0384 -0.0685
56957DOD     C214691   3.797  22.968  26.444 -0.0188 -0.0479 -0.0860
56957DOD     C314692   4.187  22.712  26.531 -0.1283  0.1994 -0.0081
56958DOD     C114693   4.496  16.651  21.914 -0.1169 -0.0278 -0.1435
56958DOD     C214694   4.443  16.296  22.152 -0.1481  0.2535 -0.0182
56958DOD     C314695   4.353  16.312  22.629  0.0839 -0.0483  0.2410
56959DOD     C114696   2.242  14.060   4.670 -0.1979 -0.0567  0.0697
56959DOD     C214697   1.876  13.975   4.415 -0.1118 -0.5219  0.1575
56959DOD     C314698   1.431  13.905   4.264  0.1920  0.0453  0.1049
56960DOD     C114699  28.762  12.012  17.902  0.0844 -0.0466  0.2676
56960DOD     C214700  28.675  11.581  17.699  0.4119  0.0099  0.2525
56960DOD     C314701  28.743  11.133  17.574 -0.0652  0.1780 -0.3801
56961DOD     C114702  19.257  26.020  11.164 -0.5215 -0.1037  0.1474
56961DOD     C214703  19.051  26.000  10.750 -0.2546  0.2015  0.0045
56961DOD     C314704  19.006  25.759  10.316  0.2116 -0.1298  0.0473
56962DOD     C114705   3.261  12.602  26.248  0.0024 -0.1063  0.0683
56962DOD     C214706   3.517  12.243  26.410  0.0645 -0.0533 -0.0951
56962DOD     C314707   3.684  11.927  26.681  0.2135  0.3582  0.1368
56963DOD     C114708   8.115   5.450  20.156  0.2307  0.2010  0.3112
56963DOD     C214709   7.632   5.263  20.122 -0.0748 -0.2520  0.2580
56963DOD     C314710   7.349   5.197  19.762  0.1405  0.0700  0.0774
56964DOD     C114711  19.403  30.255  28.378  0.0010  0.0263  0.1550
56964DOD     C214712  19.055   0.230  28.176  0.0018 -0.0858 -0.1278
56964DOD     C314713  18.767   0.598  28.036 -0.2432  0.1567  0.1109
56965DOD     C114714  26.622  17.139  17.454  0.0908  0.0622  0.0180
56965DOD     C214715  26.897  17.488  17.464 -0.0186 -0.2383  0.0491
56965DOD     C314716  27.176  17.761  17.746 -0.3699  0.2116 -0.3388
56966DOD     C114717  11.967  26.053  14.937 -0.0586  0.1519 -0.2556
56966DOD     C214718  12.073  25.593  14.957 -0.0936  0.3584  0.0836
56966DOD     C314719  11.977  25.125  14.947 -0.3918  0.2366 -0.1426
56967DOD     C114720  16.264   2.320  25.013  0.4630  0.4170 -0.0606
56967DOD     C214721  16.064   2.397  25.415  0.0010 -0.0659 -0.0935
56967DOD     C314722  15.992   2.274  25.889 -0.1697  0.1548  0.0272
56968DOD     C114723  28.675  24.741  23.560  0.1629  0.2204 -0.0899
56968DOD     C214724  28.946  24.632  23.267  0.0348  0.0627 -0.1357
56968DOD     C314725  28.998  24.371  22.881 -0.3805 -0.0024 -0.0124
56969DOD     C114726  22.683   5.025  25.426 -0.0474  0.1504  0.0308
56969DOD     C214727  22.240   5.021  25.390  0.0730 -0.0122  0.0622
56969DOD     C314728  21.778   5.161  25.378  0.0940  0.2309  0.0800
56970DOD     C114729  24.568   1.475   1.183 -0.1127 -0.1458 -0.2329
56970DOD     C214730  24.633   1.119   1.561 -0.1159  0.0071  0.2029
56970DOD     C314731  24.910   0.717   1.636  0.1152 -0.3449 -0.0329
56971DOD     C114732   9.778  18.304   1.433  0.2841  0.1950  0.2288
56971DOD     C214733   9.347  18.312   1.483 -0.0034 -0.0218 -0.1239
56971DOD     C314734   8.906  18.207   1.510  0.0733 -0.0970 -0.4471
56972DOD     C114735  30.204  16.255   8.824  0.2110  0.0896 -0.0025
56972DOD     C214736   0.008  15.824   8.680 -0.1169  0.1379 -0.0859
56972DOD     C314737   0.229  15.566   8.376 -0.3182  0.0331  0.1214
56973DOD     C114738   4.206  23.153   2.304  0.1077 -0.0583  0.0004
56973DOD     C214739   3.965  23.019   1.932  0.0471 -0.0612  0.1769
56973DOD     C314740   3.944  22.742   1.551 -0.1402 -0.1445 -0.2852
56974DOD     C114741  17.247  19.048  17.037  0.1989 -0.2867  0.3002
56974DOD     C214742  17.649  19.242  17.006  0.0225  0.0591 -0.0117
56974DOD     C314743  18.071  19.450  16.946  0.1309 -0.1590 -0.0883
56975DOD     C114744  16.338  23.883  13.667 -0.0887 -0.1558 -0.0196
56975DOD     C214745  16.242  23.493  13.442  0.1507 -0.1114 -0.2737
56975DOD     C314746  16.379  23.062  13.290 -0.3791 -0.1820 -0.0039
56976DOD     C114747  23.122   1.642  25.032 -0.2930 -0.0359 -0.2584
56976DOD     C214748  22.869   1.430  25.329 -0.0627 -0.0569 -0.3355
56976DOD     C314749  22.889   1.613  25.766 -0.0571  0.0854 -0.2554
56977DOD     C114750  26.921   8.514  16.635 -0.0708  0.2180 -0.1234
56977DOD     C214751  26.819   8.069  16.702  0.0619  0.1546  0.0189
56977DOD     C314752  26.807   7.748  17.042  0.1204  0.0455 -0.4772
56978DOD     C114753  24.961  24.258  24.255  0.1731  0.2236  0.0510
56978DOD     C214754  24.788  24.545  24.608 -0.0321 -0.2665 -0.0850
56978DOD     C314755  24.590  24.877  24.911  0.0737 -0.1685  0.0043
56979DOD     C114756   3.747  19.256  20.417 -0.2262 -0.1081 -0.0247
56979DOD     C214757   4.191  19.440  20.470 -0.1664 -0.1134  0.2122
56979DOD     C314758   4.470  19.784  20.464 -0.3288 -0.1378 -0.2426
56980DOD     C114759  24.084   3.879  22.020 -0.0945  0.0931  0.0791
56980DOD     C214760  23.838   4.065  22.335  0.2993 -0.1016  0.1234
56980DOD     C314761  23.467   4.301  22.249 -0.0391 -0.0842  0.1198
56981DOD     C114762  26.693  29.533   3.255  0.0069  0.1269  0.2891
56981DOD     C214763  26.460  29.333   2.882  0.2645  0.0720 -0.3065
56981DOD     C314764  26.305  29.285   2.444 -0.1374 -0.1564  0.1898
56982DOD     C114765  27.834  25.309  21.143 -0.1088 -0.0557  0.4619
56982DOD     C214766  27.591  24.938  21.158 -0.3226  0.1202 -0.2414
56982DOD     C314767  27.187  24.961  20.900  0.2519  0.0627 -0.1461
56983DOD     C114768  14.645   9.908  28.960  0.4199  0.0225 -0.1262
56983DOD     C214769  14.760   9.697  28.592  0.0151 -0.0731  0.0543
56983DOD     C314770  14.850   9.806  28.145 -0.1190  0.2069  0.2406
56984DOD     C114771  22.066   4.938  12.272 -0.2696  0.0928 -0.0207
56984DOD     C214772  22.380   5.235  12.109  0.1341 -0.1447 -0.1814
56984DOD     C314773  22.796   5.428  11.950  0.1811  0.0746  0.2144
56985DOD     C114774  19.512   6.878  17.909 -0.1354  0.3780  0.3942
56985DOD     C214775  19.654   7.292  17.825  0.3379  0.0844 -0.0764
56985DOD     C314776  19.744   7.763  17.816  0.0088 -0.0326  0.0501
56986DOD     C114777   3.044   7.335  17.041 -0.2196  0.2559 -0.1552
56986DOD     C214778   3.421   7.010  16.984 -0.2455  0.0662  0.2495
56986DOD     C314779   3.462   6.592  17.298 -0.0630 -0.0102  0.1543
56987DOD     C114780   3.150   7.208   1.279  0.0021  0.0561  0.1379
56987DOD     C214781   3.513   6.961   1.135  0.2384  0.1133 -0.0198
56987DOD     C314782   3.940   7.036   0.968 -0.0522 -0.1207  0.0444
56988DOD     C114783   5.654  24.167   3.250  0.0708 -0.0093 -0.1905
56988DOD     C214784   5.803  24.591   3.339 -0.1368 -0.1695  0.0830
56988DOD     C314785   5.852  24.801   3.713 -0.2716 -0.5016 -0.1269
56989DOD     C114786  20.854  19.257  19.131 -0.2170  0.1414 -0.0790
56989DOD     C214787  21.008  18.820  19.250  0.0587  0.0262 -0.0501
56989DOD     C314788  21.453  18.751  19.484  0.1596 -0.1081 -0.0973
56990DOD     C114789  12.584  22.782   5.042 -0.0326  0.0025  0.3686
56990DOD     C214790  12.907  22.819   4.668 -0.1478 -0.0018  0.3141
56990DOD     C314791  13.122  22.540   4.370 -0.0439  0.1367 -0.0441
56991DOD     C114792   8.899  28.971  14.027  0.0289  0.0004  0.1360
56991DOD     C214793   9.428  29.019  14.057 -0.0043  0.3075 -0.0197
56991DOD     C314794   9.849  28.888  14.173 -0.1208 -0.1587  0.0885
56992DOD     C114795   6.081   1.623   3.003 -0.0901 -0.2776 -0.0896
56992DOD     C214796   6.331   1.985   2.950 -0.1216 -0.0492  0.3063
56992DOD     C314797   6.295   2.430   2.937  0.2118 -0.1451  0.1375
56993DOD     C114798  14.077  19.963   2.195  0.1450 -0.0593 -0.1336
56993DOD     C214799  13.832  19.947   2.512  0.2088  0.1759 -0.2018
56993DOD     C314800  13.723  19.905   2.970  0.3159 -0.0200  0.1339
56994DOD     C114801  19.434  28.962   1.634 -0.1198  0.2494 -0.1771
56994DOD     C214802  19.309  28.666   2.023 -0.3341  0.2189 -0.0544
56994DOD     C314803  19.152  28.661   2.492 -0.0461  0.4319 -0.1901
56995DOD     C114804  15.078   3.285   9.761 -0.1722  0.1902  0.0752
56995DOD     C214805  15.124   3.711   9.563  0.1054 -0.1212 -0.4967
56995DOD     C314806  15.334   3.947   9.162 -0.3386  0.2858 -0.0004
56996DOD     C114807  15.233  20.805   7.653 -0.2083 -0.2820 -0.2374
56996DOD     C214808  15.285  20.455   7.366  0.0432 -0.3380  0.2226
56996DOD     C314809  15.294  19.988   7.403  0.2404 -0.0011 -0.1811
56997DOD     C114810  24.960  16.021  14.414 -0.0276  0.1134  0.3346
56997DOD     C214811  24.744  16.050  14.002 -0.2096  0.2033 -0.0177
56997DOD     C314812  24.610  16.348  13.705 -0.1635 -0.2504 -0.0541
56998DOD     C114813   5.334  23.989  27.026 -0.2523  0.1315  0.2023
56998DOD     C214814   5.268  24.165  27.482  0.0848 -0.3918 -0.1773
56998DOD     C314815   5.506  23.967  27.807  0.3375  0.0357 -0.1980
56999DOD     C114816  17.635  12.361  16.890  0.0521 -0.3439  0.0754
56999DOD     C214817  17.587  12.562  16.455 -0.1764  0.0722 -0.0410
56999DOD     C314818  17.355  12.921  16.300 -0.2542 -0.0572 -0.0405
57000DOD     C114819  22.452  23.222   6.122  0.2222 -0.0126  0.3709
57000DOD     C214820  22.113  23.130   6.417 -0.2918 -0.0201  0.1864
57000DOD     C314821  22.036  22.916   6.820  0.2213 -0.0142 -0.0147
57001DOD     C114822  13.904  12.892   5.699  0.1812 -0.0409  0.1798
57001DOD     C214823  13.989  13.342   5.589 -0.0835  0.0833  0.0015
57001DOD     C314824  14.373  13.606   5.463 -0.2763  0.4109 -0.2132
57002DOD     C114825  24.729  29.890  15.841  0.1364  0.0614  0.1762
57002DOD     C214826  24.841  29.466  15.688 -0.0286 -0.1250  0.1623
57002DOD     C314827  25.186  29.207  15.569 -0.2329 -0.0542  0.0273
57003DOD     C114828  12.338  10.457  23.034 -0.0165 -0.1277  0.1212
57003DOD     C214829  11.933  10.241  23.034 -0.0177 -0.1908  0.0425
57003DOD     C314830  11.517  10.203  22.806 -0.0535  0.0327 -0.1263
57004DOD     C114831  27.079  28.687  15.782  0.1305 -0.1423 -0.0554
57004DOD     C214832  27.137  28.424  16.094  0.0672 -0.1974  0.0966
57004DOD     C314833  27.321  28.034  16.130  0.1696 -0.2088 -0.1681
57005DOD     C114834   0.645  20.400   5.395 -0.0682  0.2274  0.2206
57005DOD     C214835   0.814  20.127   5.778  0.3589  0.2818 -0.0402
57005DOD     C314836   0.787  19.925   6.141  0.1386 -0.2333  0.2559
57006DOD     C114837  29.882  18.579  22.040  0.0215  0.2188  0.0961
57006DOD     C214838  29.556  18.233  22.033 -0.0054 -0.0164 -0.0987
57006DOD     C314839  29.475  17.779  22.154  0.0300 -0.0268  0.1732
57007DOD     C114840  19.229   7.474  21.063  0.2249 -0.1510 -0.2183
57007DOD     C214841  19.298   7.099  21.369 -0.4565 -0.2360  0.2222
57007DOD     C314842  19.284   6.596  21.434  0.0535 -0.1289  0.0519
57008DOD     C114843  18.010  27.625  26.732  0.1131  0.3081 -0.1969
57008DOD     C214844  18.235  27.800  26.341 -0.1799  0.0917  0.1485
57008DOD     C314845  18.569  27.658  26.004  0.0998 -0.1637  0.2075
57009DOD     C114846   6.362   7.785   1.583  0.1397  0.1294 -0.3308
57009DOD     C214847   6.297   7.518   1.163 -0.1953 -0.1922 -0.0849
57009DOD     C314848   6.241   7.131   1.008  0.0701 -0.0553  0.2535
57010DOD     C114849   4.899  18.042  17.969 -0.2329 -0.0815 -0.2695
57010DOD     C214850   4.800  18.027  17.499 -0.1090  0.0850 -0.1364
57010DOD     C314851   4.983  18.156  17.066 -0.1216  0.0494  0.3049
57011DOD     C114852  13.755  21.918   3.593 -0.1102  0.0224  0.0056
57011DOD     C214853  14.080  21.616   3.770 -0.0370  0.0288 -0.0969
57011DOD     C314854  14.204  21.463   4.215 -0.0854 -0.1659 -0.0116
57012DOD     C114855   9.957  19.279  18.833  0.2092  0.1263  0.0183
57012DOD     C214856   9.890  18.844  18.984 -0.0560 -0.0387  0.2224
57012DOD     C314857   9.627  18.447  19.208  0.0656 -0.0937 -0.2961
57013DOD     C114858  27.972   0.038   9.758  0.2248 -0.0597  0.2763
57013DOD     C214859  27.517  -0.029   9.473  0.0165  0.0578 -0.0504
57013DOD     C314860  27.467  29.942   9.286  0.0388 -0.0691  0.1211
57014DOD     C114861   6.252   5.948  28.055  0.2707 -0.0368 -0.1078
57014DOD     C214862   6.426   5.797  27.638  0.0330 -0.0283 -0.1346
57014DOD     C314863   6.670   5.673  27.225 -0.0863 -0.2442  0.3439
57015DOD     C114864  16.473   1.881  27.803  0.1152  0.1156 -0.0820
57015DOD     C214865  16.340   1.918  28.278  0.2994 -0.3097 -0.1346
57015DOD     C314866  15.969   1.991  28.585 -0.0714 -0.2136  0.2069
57016DOD     C114867   5.722   7.886   2.834 -0.0179 -0.2111 -0.1509
57016DOD     C214868   5.486   8.258   2.755 -0.1282 -0.2604  0.0151
57016DOD     C314869   5.310   8.658   2.756  0.1847  0.1150 -0.1450
57017DOD     C114870  17.071   0.426   1.645 -0.2019 -0.0483  0.3361
57017DOD     C214871  17.277   0.790   1.885 -0.2124  0.2245  0.1536
57017DOD     C314872  17.240   1.247   1.913 -0.1820  0.0094 -0.1962
57018DOD     C114873  22.572  20.020  25.833  0.2035 -0.2549 -0.2355
57018DOD     C214874  22.244  20.294  25.665 -0.1251  0.2161  0.0251
57018DOD     C314875  21.957  20.672  25.656 -0.1641 -0.0677  0.1038
57019DOD     C114876  14.330   8.533  15.928 -0.1528  0.1123  0.0914
57019DOD     C214877  14.743   8.704  16.078 -0.0231  0.2654 -0.0138
57019DOD     C314878  15.182   8.662  16.216 -0.0525  0.0081  0.1940
57020DOD     C114879   0.597  16.817  28.268 -0.1409  0.1815  0.1420
57020DOD     C214880   0.252  16.802  27.919 -0.2545  0.1181 -0.0574
57020DOD     C314881  30.126  16.732  27.953 -0.0757  0.1820 -0.0246
57021DOD     C114882  14.234  19.673  28.072  0.0991 -0.0662 -0.0526
57021DOD     C214883  13.931  19.528  28.432  0.0707  0.0805 -0.1451
57021DOD     C314884  13.985  19.380  28.914 -0.1685  0.0811  0.0871
57022DOD     C114885  23.050   1.829   6.340 -0.0128  0.0919 -0.1618
57022DOD     C214886  23.049   2.311   6.280 -0.2015 -0.3470  0.3628
57022DOD     C314887  22.923   2.690   6.038  0.0169  0.2375 -0.0483
57023DOD     C114888   4.268  10.218   2.821  0.0366 -0.2445 -0.0130
57023DOD     C214889   3.972   9.877   2.834 -0.3675 -0.1128 -0.0055
57023DOD     C314890   3.628   9.612   3.104 -0.2109 -0.0101  0.4705
57024DOD     C114891  22.968   2.220  12.954 -0.2458 -0.1003 -0.2870
57024DOD     C214892  23.024   2.527  13.311 -0.1512  0.1810 -0.2301
57024DOD     C314893  22.936   2.498  13.752  0.2711  0.1345 -0.1315
57025DOD     C114894  29.694  27.061  21.020 -0.4594 -0.5181  0.3249
57025DOD     C214895  29.836  26.735  20.719 -0.3479 -0.0560  0.0450
57025DOD     C314896  30.036  26.343  20.625  0.0908 -0.1193  0.0694
57026DOD     C114897  23.325   1.708  25.471  0.2973 -0.0345 -0.3223
57026DOD     C214898  23.772   1.865  25.472 -0.1599 -0.0210 -0.0799
57026DOD     C314899  24.161   1.843  25.239 -0.0708 -0.1241  0.0611
57027DOD     C114900  27.891  11.062   1.291  0.0489 -0.4206 -0.1742
57027DOD     C214901  28.265  11.263   1.536  0.1181 -0.2536 -0.0312
57027DOD     C314902  28.484  11.504   1.926 -0.0539 -0.0537  0.0303
57028DOD     C114903  16.923  25.704  20.654  0.0642  0.0918 -0.0621
57028DOD     C214904  17.026  25.962  21.063  0.1266  0.0965 -0.0720
57028DOD     C314905  17.037  26.225  21.377  0.1092 -0.1664  0.1614
57029DOD     C114906   4.747   1.396  26.553 -0.2492  0.2190  0.1187
57029DOD     C214907   5.108   1.106  26.672 -0.0608 -0.0194 -0.1808
57029DOD     C314908   5.454   0.811  26.654 -0.0922 -0.0953  0.0560
57030DOD     C114909  15.845  28.571  20.461 -0.0342  0.0498  0.3209
57030DOD     C214910  16.266  28.735  20.265  0.3151  0.0472 -0.1632
57030DOD     C314911  16.524  28.708  19.826 -0.0323  0.0261 -0.2895
57031DOD     C114912   6.623  25.999  28.034 -0.0058 -0.1388  0.0374
57031DOD     C214913   6.458  26.430  28.009 -0.0206 -0.2627  0.0123
57031DOD     C314914   5.961  26.578  27.944  0.0141 -0.2826 -0.0185
57032DOD     C114915  14.035   7.551  22.456  0.0432  0.0048  0.0666
57032DOD     C214916  13.750   7.456  22.120  0.0536  0.0930  0.0288
57032DOD     C314917  13.297   7.397  21.965 -0.0240 -0.1559  0.1267
57033DOD     C114918  13.946   7.417   7.294 -0.0926 -0.3095  0.0312
57033DOD     C214919  14.080   7.731   7.013 -0.0695  0.2784  0.2713
57033DOD     C314920  14.093   8.044   6.706  0.0877 -0.0355 -0.0270
57034DOD     C114921  23.348   0.717  16.096  0.1441  0.2178 -0.2089
57034DOD     C214922  22.842   0.664  16.243  0.0527  0.1970 -0.0588
57034DOD     C314923  22.331   0.555  16.303 -0.3906 -0.1550  0.2016
57035DOD     C114924   6.608   9.017  13.938 -0.0328 -0.1927  0.6909
57035DOD     C214925   6.449   9.351  13.653  0.0964  0.3010 -0.2710
57035DOD     C314926   6.417   9.809  13.579 -0.2365  0.0926  0.3381
57036DOD     C114927  13.297   6.492  21.747 -0.1816 -0.0886  0.0103
57036DOD     C214928  12.924   6.336  21.503 -0.1046  0.0512 -0.0779
57036DOD     C314929  12.553   6.554  21.422  0.0336 -0.2971 -0.2076
57037DOD     C114930  25.866   9.998  21.387 -0.3433 -0.0981  0.0710
57037DOD     C214931  25.966  10.098  21.005  0.1425  0.0051  0.1238
57037DOD     C314932  25.923  10.104  20.545 -0.0072  0.1840  0.1584
57038DOD     C114933   9.224  16.995  21.118 -0.1667 -0.0676 -0.0319
57038DOD     C214934   8.916  17.173  20.795  0.2266 -0.3691 -0.4460
57038DOD     C314935   8.640  17.345  20.478  0.0319 -0.2015 -0.1727
57039DOD     C114936   0.081  27.399  20.331 -0.0035 -0.1045 -0.0172
57039DOD     C214937  30.161  27.758  20.504  0.2176  0.1629  0.0447
57039DOD     C314938  29.924  28.115  20.360  0.2417 -0.5560  0.0190
57040DOD     C114939   9.008   1.478  10.344  0.2053 -0.0026  0.5123
57040DOD     C214940   9.137   1.440   9.867 -0.0833 -0.0769 -0.0781
57040DOD     C314941   9.542   1.469   9.739 -0.2464 -0.1785  0.3445
57041DOD     C114942   1.758   9.783  10.781 -0.1846  0.0335  0.3292
57041DOD     C214943   2.154   9.907  11.048  0.0285  0.1614  0.2772
57041DOD     C314944   2.313   9.993  11.482  0.4194 -0.1085 -0.2144
57042DOD     C114945   4.869  18.987  18.040 -0.0004 -0.1775  0.1173
57042DOD     C214946   4.869  18.925  17.535 -0.3245 -0.1025 -0.0724
57042DOD     C314947   5.232  19.059  17.288 -0.0333  0.0540  0.0916
57043DOD     C114948  20.276  23.239  20.277  0.2414 -0.2429  0.1198
57043DOD     C214949  20.702  23.087  20.363  0.0029 -0.2236 -0.1769
57043DOD     C314950  21.056  23.363  20.338 -0.1412  0.0557 -0.4271
57044DOD     C114951   4.287  21.747   7.552  0.1901 -0.1215 -0.0684
57044DOD     C214952   4.594  22.000   7.262  0.0810 -0.0875  0.0056
57044DOD     C314953   4.675  22.341   6.929 -0.0430  0.0897  0.2851
57045DOD     C114954  27.334  26.990  25.931 -0.0851  0.3328  0.3062
57045DOD     C214955  27.404  26.814  26.339  0.2667  0.0900 -0.2601
57045DOD     C314956  27.298  26.685  26.756  0.1153 -0.1740 -0.1785
57046DOD     C114957   8.197   6.036  20.480  0.0716  0.0429 -0.2658
57046DOD     C214958   8.429   5.868  20.099  0.0338 -0.0825  0.1297
57046DOD     C314959   8.730   6.033  19.759  0.1242  0.0939  0.3431
57047DOD     C114960  13.373  19.513  20.153  0.1294  0.0664  0.0913
57047DOD     C214961  13.182  19.821  20.413  0.4689 -0.0263  0.0830
57047DOD     C314962  13.428  19.979  20.797 -0.0119  0.0750 -0.0077
57048DOD     C114963  20.827  20.520  11.966 -0.1924  0.0796  0.2986
57048DOD     C214964  20.820  20.562  11.491 -0.4207 -0.0316  0.0314
57048DOD     C314965  21.041  20.548  11.045  0.2229 -0.1316 -0.0258
57049DOD     C114966  13.360  29.533   3.152  0.0490 -0.0409  0.4338
57049DOD     C214967  13.070  29.617   2.733  0.1985 -0.2022 -0.1533
57049DOD     C314968  12.707  29.655   2.378 -0.2426 -0.0929  0.2437
57050DOD     C114969   6.104  21.096  13.109 -0.0335  0.0997 -0.3163
57050DOD     C214970   6.198  20.761  13.411  0.2058  0.2024  0.2685
57050DOD     C314971   6.172  20.591  13.836  0.1856 -0.0411 -0.1995
57051DOD     C114972  29.448  14.909   8.086  0.0421  0.0528  0.0277
57051DOD     C214973  29.187  15.167   8.362  0.1087  0.2390  0.1267
57051DOD     C314974  29.106  15.152   8.813 -0.0497 -0.3746  0.3962
57052DOD     C114975  24.651   4.317   8.368  0.1151  0.0742  0.0431
57052DOD     C214976  25.053   4.572   8.607 -0.0315 -0.1240  0.1500
57052DOD     C314977  25.179   5.020   8.424 -0.0518 -0.0898 -0.2890
57053DOD     C114978  21.877  20.953  28.358 -0.1855 -0.0212  0.2719
57053DOD     C214979  21.844  21.424  28.359 -0.0174  0.3128  0.0043
57053DOD     C314980  21.783  21.702  28.015  0.1457 -0.0983  0.3112
57054DOD     C114981  24.415   7.511  27.366 -0.1872  0.1290  0.0821
57054DOD     C214982  24.377   7.754  26.952  0.3336  0.0035  0.0417
57054DOD     C314983  24.577   8.142  26.734  0.2241  0.1965  0.0715
57055DOD     C114984  11.596   0.782  11.150 -0.3075 -0.0081  0.0840
57055DOD     C214985  11.415   0.378  11.262  0.0284 -0.1075 -0.1560
57055DOD     C314986  11.196  30.307  11.319  0.0314  0.1296  0.0706
57056DOD     C114987   3.658  29.062  17.341 -0.1005 -0.1427 -0.1949
57056DOD     C214988   3.251  29.082  17.090 -0.0088  0.2186 -0.0005
57056DOD     C314989   2.908  29.435  17.126 -0.1400  0.1422  0.2241
57057DOD     C114990   6.785  17.137  15.263 -0.0999  0.1988 -0.1685
57057DOD     C214991   7.089  17.158  15.663 -0.0721 -0.2403  0.1602
57057DOD     C314992   7.428  17.281  15.949 -0.0247 -0.1157 -0.2025
57058DOD     C114993  17.806  23.137   1.279 -0.1609 -0.0715  0.0332
57058DOD     C214994  17.856  23.575   1.520 -0.2390  0.1986  0.2738
57058DOD     C314995  17.696  23.814   1.880 -0.0820 -0.1122 -0.0513
57059DOD     C114996  11.780   3.160  25.587 -0.0018 -0.0549  0.2846
57059DOD     C214997  11.360   3.155  25.607 -0.1232  0.0799  0.0304
57059DOD     C314998  10.922   3.231  25.431 -0.1553  0.1387  0.2602
57060DOD     C114999   0.848  17.251  16.985  0.0883  0.1189  0.2410
57060DOD     C215000   1.083  16.889  16.838 -0.0898 -0.2507 -0.0727
57060DOD     C315001   1.150  16.515  16.631 -0.0997 -0.2256  0.1044
57061DOD     C115002   6.761  17.860  20.473 -0.1028 -0.1398 -0.0960
57061DOD     C215003   6.382  17.672  20.408 -0.1572  0.1136  0.3951
57061DOD     C315004   5.956  17.761  20.190  0.1939 -0.0155 -0.1810
57062DOD     C115005  28.880  29.621  17.938 -0.2204 -0.0754 -0.0389
57062DOD     C215006  28.872  29.184  18.111 -0.0011  0.0189  0.0184
57062DOD     C315007  28.642  28.935  18.399 -0.2388  0.1487  0.0708
57063DOD     C115008  11.854  22.645  12.771  0.0160  0.0243 -0.0481
57063DOD     C215009  11.650  22.564  12.340 -0.1335  0.0072  0.0087
57063DOD     C315010  11.464  22.776  11.999 -0.1584  0.0536  0.1905
57064DOD     C115011  22.158  15.694  20.597 -0.2486  0.0598 -0.0965
57064DOD     C215012  22.250  15.800  20.168 -0.1516  0.0013  0.2012
57064DOD     C315013  22.304  15.655  19.721 -0.4346  0.1284  0.1176
57065DOD     C115014   0.293  29.498   1.609 -0.1546  0.2173 -0.1727
57065DOD     C215015   0.093  29.900   1.702  0.5725 -0.3485 -0.3419
57065DOD     C315016   0.247  -0.001   1.891  0.0870 -0.0373  0.3476
57066DOD     C115017   1.609  15.300   8.151  0.0214 -0.1077 -0.3491
57066DOD     C215018   1.354  14.874   8.114 -0.3431  0.1694  0.1200
57066DOD     C315019   1.027  14.630   8.100 -0.2073  0.0863  0.0821
57067DOD     C115020  24.034   3.070   0.426  0.0377  0.1766 -0.2164
57067DOD     C215021  24.381   3.207   0.148 -0.2738 -0.2088  0.1147
57067DOD     C315022  24.706   3.348  30.088  0.2802  0.2675 -0.2345
57068DOD     C115023  29.542  16.689  18.810 -0.1012  0.0844  0.3882
57068DOD     C215024  29.649  16.683  18.296  0.1282 -0.0273 -0.2945
57068DOD     C315025  29.624  16.639  17.810 -0.2229 -0.2777 -0.1624
57069DOD     C115026  15.485  27.333  27.850 -0.0344  0.1114 -0.0144
57069DOD     C215027  15.086  27.230  27.611  0.2004 -0.1125  0.1350
57069DOD     C315028  14.658  27.438  27.483 -0.1893 -0.2435  0.0739
57070DOD     C115029  20.011  27.666  27.648 -0.1763  0.0690  0.1205
57070DOD     C215030  20.064  27.618  27.214  0.1972 -0.1435  0.1633
57070DOD     C315031  20.363  27.791  26.895  0.4387  0.0033 -0.1534
57071DOD     C115032   8.372  15.798   4.001 -0.0442  0.2106  0.3403
57071DOD     C215033   8.662  16.064   3.749  0.0108 -0.3665  0.1591
57071DOD     C315034   9.111  16.229   3.590  0.5286 -0.2472  0.5534
57072DOD     C115035   3.426  15.295  11.420 -0.3687  0.0817  0.1117
57072DOD     C215036   3.259  14.895  11.388 -0.2400 -0.0401 -0.0175
57072DOD     C315037   3.263  14.454  11.347 -0.0070 -0.0054 -0.0502
57073DOD     C115038  19.471  16.767  14.476 -0.1438  0.1663  0.0740
57073DOD     C215039  19.358  16.845  14.939 -0.2899 -0.2045  0.0007
57073DOD     C315040  19.157  16.884  15.366 -0.1992  0.0447 -0.2430
57074DOD     C115041  13.801  19.367  12.207 -0.1420 -0.2493 -0.3054
57074DOD     C215042  14.226  19.266  11.999 -0.0631 -0.1253 -0.0650
57074DOD     C315043  14.509  19.566  11.761 -0.3029 -0.0608  0.2666
57075DOD     C115044  30.019  10.926  18.277 -0.0272  0.1726  0.1203
57075DOD     C215045  29.650  11.186  18.155 -0.1163  0.2765  0.2198
57075DOD     C315046  29.244  11.402  17.952 -0.5162  0.0804  0.3031
57076DOD     C115047   3.202   1.177   9.776 -0.0446 -0.2381 -0.0486
57076DOD     C215048   3.231   1.477   9.461 -0.2314  0.1991  0.3483
57076DOD     C315049   3.245   1.584   9.084  0.0789  0.0469  0.0374
57077DOD     C115050  17.292   2.900  19.641 -0.2411  0.0505  0.1907
57077DOD     C215051  17.171   3.261  19.858  0.1790  0.2456  0.2233
57077DOD     C315052  17.006   3.577  20.086  0.0107  0.1641  0.1133
57078DOD     C115053  21.911  23.762   7.802 -0.0057 -0.2912 -0.0891
57078DOD     C215054  21.661  24.160   7.951 -0.0321 -0.0757  0.2588
57078DOD     C315055  21.197  24.351   7.982 -0.0670  0.0791  0.0616
57079DOD     C115056  21.038  21.942  21.926 -0.0187  0.0213 -0.0230
57079DOD     C215057  20.924  21.605  21.628  0.1761  0.4422 -0.2694
57079DOD     C315058  20.835  21.189  21.466  0.5327  0.0482 -0.0518
57080DOD     C115059  26.610   1.464  12.624  0.2976 -0.3005 -0.0773
57080DOD     C215060  26.557   1.301  13.092  0.2005  0.3518 -0.2036
57080DOD     C315061  26.244   1.040  13.318 -0.2782 -0.1052 -0.1768
57081DOD     C115062   5.805  14.168  28.722 -0.1002 -0.1274 -0.2773
57081DOD     C215063   5.708  13.742  28.931  0.0551  0.3379 -0.1393
57081DOD     C315064   5.518  13.403  29.204  0.0116 -0.2861  0.1240
57082DOD     C115065   4.314  21.463   0.346 -0.0473  0.0204  0.1381
57082DOD     C215066   4.769  21.498   0.488  0.2159  0.0058  0.0574
57082DOD     C315067   5.110  21.589   0.814 -0.2770 -0.0052  0.0506
57083DOD     C115068   7.072   4.947  29.943  0.2185  0.0017 -0.3490
57083DOD     C215069   7.284   4.732  30.286 -0.0427  0.2408  0.0774
57083DOD     C315070   7.291   4.453   0.325  0.0397  0.0371  0.2316
57084DOD     C115071   6.856  23.714   4.600  0.1765 -0.5706 -0.2372
57084DOD     C215072   6.821  24.019   4.921  0.1487 -0.0705 -0.1548
57084DOD     C315073   6.519  24.247   5.242  0.0295  0.0493 -0.2005
57085DOD     C115074  25.727   4.960  11.572 -0.0581  0.0224  0.0717
57085DOD     C215075  25.497   4.602  11.382  0.1791 -0.0553  0.1502
57085DOD     C315076  25.107   4.365  11.303 -0.1096 -0.2321  0.1291
57086DOD     C115077  17.774  24.465  17.804  0.0261  0.2830 -0.0442
57086DOD     C215078  17.536  24.228  18.117 -0.2533 -0.0394 -0.4181
57086DOD     C315079  17.047  24.111  17.995  0.0633  0.1052  0.0461
57087DOD     C115080  10.744  20.037  20.992 -0.1768  0.0909 -0.0685
57087DOD     C215081  11.031  20.167  21.367  0.0490 -0.1123  0.3637
57087DOD     C315082  11.267  20.286  21.744  0.0774  0.2846 -0.0150
57088DOD     C115083  19.514  29.430   1.912 -0.2130 -0.2494 -0.0200
57088DOD     C215084  19.540  29.082   2.255 -0.2808  0.1504  0.1649
57088DOD     C315085  19.707  28.657   2.430  0.1290 -0.1996 -0.2630
57089DOD     C115086  26.655  19.413  15.278 -0.1790  0.0484 -0.1675
57089DOD     C215087  26.819  19.742  15.504 -0.0712  0.0713 -0.1982
57089DOD     C315088  26.763  20.145  15.755 -0.1462 -0.0924  0.0501
57090DOD     C115089  25.261  25.234  18.452  0.0865  0.1102 -0.1592
57090DOD     C215090  24.847  25.009  18.451  0.4557 -0.0327  0.0613
57090DOD     C315091  24.421  24.967  18.339  0.0561  0.2033  0.1616
57091DOD     C115092   7.863  25.771  10.114  0.0524 -0.0747  0.0111
57091DOD     C215093   8.031  26.158  10.113  0.4109 -0.3208  0.0897
57091DOD     C315094   8.371  26.477   9.929  0.3295 -0.0890  0.0671
57092DOD     C115095   2.052   5.977  22.974  0.1577 -0.0034 -0.2187
57092DOD     C215096   2.198   6.026  23.414 -0.1662  0.1186  0.4082
57092DOD     C315097   2.021   6.182  23.843  0.2416 -0.2099 -0.0375
57093DOD     C115098  21.474  28.643  21.836 -0.2825  0.1953 -0.1276
57093DOD     C215099  21.428  28.410  21.443 -0.0376 -0.2838  0.1996
57093DOD     C315100  21.485  28.045  21.192 -0.0404 -0.0100 -0.1311
57094DOD     C115101  15.231  24.808   0.717 -0.0712  0.1420 -0.1182
57094DOD     C215102  15.553  25.018   0.986  0.1156 -0.1648 -0.2590
57094DOD     C315103  15.924  25.182   1.242  0.2982  0.0185  0.0935
57095DOD     C115104   0.192   1.466  11.580  0.1254 -0.1554  0.3627
57095DOD     C215105   0.524   1.134  11.501 -0.3629 -0.3786  0.2053
57095DOD     C315106   0.932   1.002  11.526 -0.1233 -0.1548  0.1117
57096DOD     C115107  17.222  17.111  16.884 -0.3194  0.0479  0.3142
57096DOD     C215108  17.145  17.326  16.472  0.0249  0.3388  0.0223
57096DOD     C315109  17.476  17.347  16.163 -0.2378 -0.0679 -0.0676
57097DOD     C115110   5.302   4.804  29.225 -0.1305  0.1910 -0.0264
57097DOD     C215111   5.195   4.883  29.656 -0.3344 -0.1116  0.1029
57097DOD     C315112   5.244   5.205  30.047  0.2206 -0.1670  0.1346
57098DOD     C115113   0.631   9.765  22.262 -0.1884 -0.1128 -0.0412
57098DOD     C215114   0.535   9.384  21.961 -0.1138  0.0558 -0.1358
57098DOD     C315115   0.314   8.976  21.898 -0.0023 -0.2241 -0.0531
57099DOD     C115116   0.307  19.526  26.925 -0.0404  0.2610 -0.3024
57099DOD     C215117   0.270  19.802  26.550 -0.1949 -0.1470  0.1860
57099DOD     C315118   0.084  19.734  26.134  0.0281  0.3493 -0.2003
57100DOD     C115119   0.358   1.694  26.636 -0.1040 -0.2707 -0.1144
57100DOD     C215120   0.366   1.909  26.262 -0.1380 -0.0012 -0.0096
57100DOD     C315121   0.517   2.193  25.912  0.3518  0.4538 -0.0652
57101DOD     C115122   2.550   6.921  15.152  0.0307 -0.0724 -0.2235
57101DOD     C215123   2.153   7.029  15.393  0.1381 -0.0386  0.1995
57101DOD     C315124   1.907   7.407  15.504 -0.2063 -0.1669  0.0409
57102DOD     C115125  26.081  23.170  15.597  0.1571 -0.2054  0.1270
57102DOD     C215126  26.474  23.012  15.399  0.2372 -0.3284 -0.2076
57102DOD     C315127  26.562  22.898  14.925 -0.3194  0.0997 -0.1080
57103DOD     C115128  19.808  10.680  13.078 -0.0399 -0.0093  0.0013
57103DOD     C215129  19.627  10.254  12.906 -0.1455  0.1980 -0.0455
57103DOD     C315130  19.241  10.039  13.036  0.2961  0.0482  0.0066
57104DOD     C115131  15.992   0.296  10.163 -0.3100 -0.0404  0.2397
57104DOD     C215132  15.858  30.214  10.243 -0.1092  0.0897  0.0111
57104DOD     C315133  15.740  29.761  10.408  0.0821  0.0805 -0.2998
57105DOD     C115134  25.828   7.941  17.718  0.0881  0.2420 -0.0618
57105DOD     C215135  25.489   7.959  17.413 -0.1068  0.0345  0.0737
57105DOD     C315136  25.537   7.938  16.957 -0.1893 -0.0726  0.0258
57106DOD     C115137   6.604  22.302  29.740  0.0329 -0.0808 -0.0131
57106DOD     C215138   6.147  22.444  29.693  0.0284  0.1249 -0.1836
57106DOD     C315139   5.762  22.366  29.868 -0.1481  0.1572 -0.0634
57107DOD     C115140  26.809  21.759  28.264  0.0550 -0.0112  0.1091
57107DOD     C215141  27.035  21.867  28.665 -0.2173 -0.0862 -0.2228
57107DOD     C315142  27.249  22.038  29.048  0.2379  0.0950  0.1341
57108DOD     C115143  16.410  25.171  19.200  0.1945  0.0217  0.1753
57108DOD     C215144  16.414  24.803  19.549  0.0756 -0.1303  0.3364
57108DOD     C315145  16.503  24.614  19.989 -0.1260  0.2231 -0.0295
57109DOD     C115146   8.829  26.998  23.680  0.1216 -0.1047  0.1120
57109DOD     C215147   8.823  27.008  24.119  0.4106 -0.1547  0.1501
57109DOD     C315148   9.003  26.798  24.511 -0.1916 -0.0653 -0.1669
57110DOD     C115149   7.031  20.038   4.807  0.1403 -0.0536  0.0973
57110DOD     C215150   7.509  20.007   4.931 -0.0520 -0.3590 -0.0776
57110DOD     C315151   7.849  19.991   5.218 -0.1385 -0.0619  0.2859
57111DOD     C115152  27.574   5.742  20.967  0.2335  0.2415 -0.0777
57111DOD     C215153  27.460   5.325  21.015 -0.1543 -0.1466  0.2504
57111DOD     C315154  27.334   4.974  20.740  0.1316  0.1250 -0.2685
57112DOD     C115155   3.202  23.589   8.126  0.0596  0.0228 -0.2481
57112DOD     C215156   3.423  23.370   7.782 -0.0534  0.0261 -0.3772
57112DOD     C315157   3.810  23.553   7.706  0.0186  0.0179 -0.1548
57113DOD     C115158   1.441   4.753  21.308  0.3756  0.0477 -0.1019
57113DOD     C215159   1.117   4.582  21.614  0.1943  0.0855  0.0247
57113DOD     C315160   1.016   4.191  21.811  0.3306 -0.0603  0.0822
57114DOD     C115161  17.345   9.039  15.290 -0.0407  0.0522 -0.2639
57114DOD     C215162  17.432   9.006  15.766  0.2194 -0.3437  0.6511
57114DOD     C315163  17.773   8.950  16.108  0.1000  0.0221  0.2255
57115DOD     C115164   0.891  25.407  22.300 -0.0111 -0.3653  0.0136
57115DOD     C215165   0.529  25.642  22.432 -0.2665 -0.1409  0.1269
57115DOD     C315166   0.486  26.044  22.679  0.3005  0.1421  0.1219
57116DOD     C115167   9.770  25.875  14.327  0.1751  0.0442 -0.0753
57116DOD     C215168   9.767  26.003  13.879  0.4683  0.5615  0.0492
57116DOD     C315169  10.138  26.214  13.651  0.1217 -0.1537  0.1690
57117DOD     C115170  23.222   8.679  25.691 -0.4170  0.0336  0.0921
57117DOD     C215171  22.928   8.511  25.288 -0.1184 -0.0863  0.3276
57117DOD     C315172  22.510   8.343  25.228 -0.0806  0.2608 -0.0880
57118DOD     C115173  18.870   9.358  29.215 -0.0014  0.0124  0.1861
57118DOD     C215174  18.773   8.931  29.424  0.0091 -0.1255 -0.1183
57118DOD     C315175  18.378   8.645  29.515 -0.1297 -0.0560 -0.0559
57119DOD     C115176   2.849  19.678   2.004  0.0806 -0.0867  0.0719
57119DOD     C215177   2.628  19.736   1.593  0.0004  0.1301 -0.0675
57119DOD     C315178   2.370  20.056   1.312  0.3578 -0.1586  0.3710
57120DOD     C115179   7.152  21.567  19.016 -0.2290 -0.0157  0.0310
57120DOD     C215180   6.766  21.575  19.291  0.0279  0.1566  0.0311
57120DOD     C315181   6.574  21.394  19.712  0.0912  0.1775 -0.1488
57121DOD     C115182  19.520  27.133  17.347  0.1238 -0.3392 -0.1343
57121DOD     C215183  19.051  27.213  17.521 -0.0455  0.0396 -0.3574
57121DOD     C315184  18.736  27.300  17.827 -0.1839  0.1399 -0.1567
57122DOD     C115185   0.062  14.881  23.797  0.0815  0.4259  0.1027
57122DOD     C215186  30.136  14.591  23.554  0.2409 -0.0705  0.0750
57122DOD     C315187  30.264  14.186  23.282  0.1051  0.0444  0.2491
57123DOD     C115188  24.651  23.374   0.665 -0.1451  0.2883  0.2126
57123DOD     C215189  24.932  22.929   0.665 -0.2610  0.0504 -0.1175
57123DOD     C315190  25.092  22.657   1.039 -0.0125 -0.0205  0.0649
57124DOD     C115191  24.058  25.115  21.852 -0.1464  0.2435 -0.3829
57124DOD     C215192  23.639  25.297  21.795 -0.3535  0.3051 -0.1977
57124DOD     C315193  23.199  25.188  21.619 -0.0796 -0.0543  0.0564
57125DOD     C115194   3.854  10.105   3.273 -0.1567 -0.2110  0.0085
57125DOD     C215195   3.373  10.280   3.410  0.1290  0.0421 -0.0759
57125DOD     C315196   2.968  10.348   3.220  0.2359 -0.2440 -0.2344
57126DOD     C115197   6.976   3.082  29.330  0.1308  0.0607 -0.2332
57126DOD     C215198   7.190   3.383  29.566  0.0292 -0.2594  0.1323
57126DOD     C315199   7.499   3.564  29.853 -0.1113 -0.1993 -0.0203
57127DOD     C115200   8.613  24.396  22.819 -0.1274 -0.1673  0.1458
57127DOD     C215201   8.764  24.487  23.214 -0.0195  0.2243 -0.0448
57127DOD     C315202   8.612  24.355  23.682  0.0212 -0.2307  0.0001
57128DOD     C115203   8.380   4.260   4.079  0.0336 -0.1222  0.2644
57128DOD     C215204   8.382   3.942   3.790  0.4581  0.0282  0.0193
57128DOD     C315205   8.486   3.579   3.486 -0.0029 -0.2084  0.1212
57129DOD     C115206   2.034  22.949   1.335  0.3350  0.0106 -0.1529
57129DOD     C215207   2.388  22.846   1.568  0.0152 -0.0168  0.2681
57129DOD     C315208   2.806  23.113   1.518 -0.2378  0.0439 -0.1356
57130DOD     C115209   4.206  13.352  20.586 -0.0319 -0.0185  0.3474
57130DOD     C215210   4.409  13.763  20.454 -0.1312 -0.2144  0.0571
57130DOD     C315211   4.533  14.020  20.075 -0.0748 -0.1033  0.0349
57131DOD     C115212  26.038  17.302   5.778 -0.0308  0.0335  0.5628
57131DOD     C215213  26.062  17.107   5.397 -0.0054  0.1891 -0.1394
57131DOD     C315214  25.947  16.690   5.198 -0.1388  0.0809 -0.4012
57132DOD     C115215   7.036   3.702  17.987 -0.0085  0.1691  0.1188
57132DOD     C215216   6.808   4.044  17.784 -0.0463  0.0978  0.0977
57132DOD     C315217   6.543   4.291  17.515 -0.0939  0.1804  0.2634
57133DOD     C115218  12.694  13.692  22.081 -0.1683 -0.1349  0.1799
57133DOD     C215219  12.355  13.832  22.380 -0.2720  0.0054 -0.1484
57133DOD     C315220  12.005  14.116  22.313 -0.0402 -0.1128 -0.0148
57134DOD     C115221  28.985  14.471  16.172  0.0166 -0.1129 -0.0415
57134DOD     C215222  28.821  14.096  15.984 -0.0983 -0.0579  0.1726
57134DOD     C315223  28.504  13.726  15.879  0.0333 -0.3590 -0.2807
57135DOD     C115224  17.980  20.723  29.070  0.0462 -0.2102  0.1742
57135DOD     C215225  17.972  20.786  29.520  0.0938  0.3048  0.3247
57135DOD     C315226  17.770  20.637  29.944 -0.1614  0.0312  0.2113
57136DOD     C115227   8.057  27.345  23.325 -0.2335 -0.2531  0.1120
57136DOD     C215228   7.739  27.645  23.458  0.1194 -0.0812 -0.1513
57136DOD     C315229   7.449  27.658  23.807 -0.2234 -0.0773  0.0424
57137DOD     C115230  25.895   4.927   0.070 -0.0419 -0.0861 -0.1495
57137DOD     C215231  25.629   5.235   0.247 -0.1395 -0.0086 -0.3460
57137DOD     C315232  25.762   5.659   0.475  0.0846  0.0919 -0.3367
57138DOD     C115233   6.272  11.425   5.421 -0.0801  0.1613 -0.2394
57138DOD     C215234   5.810  11.405   5.532 -0.2066 -0.0378  0.4559
57138DOD     C315235   5.476  11.335   5.777  0.1683  0.0985  0.1470
57139DOD     C115236  18.001  28.277  13.723 -0.2293  0.0081  0.0366
57139DOD     C215237  17.751  28.453  13.289 -0.0518  0.0140 -0.0072
57139DOD     C315238  17.754  28.597  12.908 -0.1560  0.0767 -0.0583
57140DOD     C115239   1.573  29.690  17.110 -0.1707  0.1726 -0.0418
57140DOD     C215240   1.399  29.806  17.539 -0.0758  0.0195 -0.0530
57140DOD     C315241   1.571  29.871  17.948 -0.1157  0.1634 -0.0855
57141DOD     C115242   7.379  21.601   6.686 -0.2999 -0.0425  0.1534
57141DOD     C215243   7.150  21.299   6.412 -0.1366  0.4099 -0.0581
57141DOD     C315244   6.965  20.909   6.590  0.0812  0.2358 -0.1198
57142DOD     C115245  24.761  15.558   1.852 -0.0185  0.1576 -0.2194
57142DOD     C215246  24.677  15.516   2.343 -0.2024 -0.0369  0.2699
57142DOD     C315247  24.255  15.655   2.647  0.0103  0.3742 -0.3028
57143DOD     C115248   5.392  13.629   5.462 -0.1938  0.1655  0.1329
57143DOD     C215249   5.265  13.806   5.048  0.0339  0.1778  0.1414
57143DOD     C315250   5.207  14.001   4.705  0.0290 -0.0704  0.0040
57144DOD     C115251  18.252   6.873   5.677 -0.1057 -0.0155  0.0662
57144DOD     C215252  18.303   6.460   5.435  0.3432 -0.1803 -0.0404
57144DOD     C315253  18.374   5.979   5.597  0.0368 -0.2609  0.2940
57145DOD     C115254   0.316  23.422   2.861  0.2428 -0.0941  0.2699
57145DOD     C215255   0.723  23.418   3.114  0.1852  0.0532  0.0048
57145DOD     C315256   0.989  23.207   3.460  0.0526 -0.0081 -0.0322
57146DOD     C115257   2.678   9.159  11.550 -0.1480 -0.1898  0.0163
57146DOD     C215258   2.270   8.937  11.484  0.2494 -0.1033  0.1898
57146DOD     C315259   2.167   8.654  11.120  0.0706  0.0700 -0.2547
57147DOD     C115260  30.190   2.657  19.260 -0.1101  0.1118 -0.1550
57147DOD     C215261  29.835   2.417  19.460  0.3027  0.1334 -0.3244
57147DOD     C315262  29.534   2.044  19.357  0.1393 -0.1183  0.2401
57148DOD     C115263   8.028  21.008  25.444  0.0906  0.0564  0.1255
57148DOD     C215264   8.322  21.042  25.080  0.2819  0.1080  0.3182
57148DOD     C315265   8.370  21.212  24.666 -0.0096  0.1628  0.1606
57149DOD     C115266  27.773  21.143  25.499 -0.1643  0.0443  0.0393
57149DOD     C215267  27.506  21.302  25.854  0.1068  0.1154  0.0376
57149DOD     C315268  27.564  21.449  26.299 -0.1424 -0.1480 -0.0174
57150DOD     C115269  11.022  21.987   8.467  0.2265  0.0767 -0.0434
57150DOD     C215270  10.825  22.358   8.685  0.0192  0.0250 -0.1241
57150DOD     C315271  10.989  22.578   9.119 -0.1056  0.2337 -0.1203
57151DOD     C115272  20.159  15.849   5.849 -0.1898  0.1546  0.3479
57151DOD     C215273  19.962  16.014   5.432  0.1470 -0.1019  0.1111
57151DOD     C315274  19.556  15.993   5.251  0.0923 -0.0110  0.3292
57152DOD     C115275   7.821  15.647  18.689  0.3365  0.1273  0.0153
57152DOD     C215276   7.403  15.767  18.545  0.2368 -0.0431 -0.0172
57152DOD     C315277   7.015  15.569  18.369  0.3309  0.6694  0.0105
57153DOD     C115278  24.579   0.381   1.836  0.0372  0.1012 -0.1368
57153DOD     C215279  24.682  30.265   1.786  0.1434 -0.0925  0.0335
57153DOD     C315280  24.672  29.801   1.671  0.3215 -0.1682  0.3004
57154DOD     C115281  22.102  26.759   2.196  0.0643 -0.0825  0.2229
57154DOD     C215282  22.570  26.569   2.255 -0.0115 -0.0403 -0.1410
57154DOD     C315283  22.978  26.287   2.178  0.1648  0.0455 -0.1506
57155DOD     C115284   8.833  11.011  28.395 -0.0933 -0.0787 -0.1036
57155DOD     C215285   9.140  11.294  28.566 -0.2273 -0.0267 -0.1728
57155DOD     C315286   9.572  11.371  28.744  0.0993  0.1213  0.0698
57156DOD     C115287  27.042  22.755  29.941 -0.0884 -0.1828  0.0225
57156DOD     C215288  26.572  22.675  30.057  0.0232 -0.0616 -0.0586
57156DOD     C315289  26.182  22.530  30.280  0.2246  0.2184 -0.2510
57157DOD     C115290   5.640  15.834  24.035  0.2189  0.5136  0.2045
57157DOD     C215291   5.233  15.591  23.982  0.1047 -0.0193  0.3759
57157DOD     C315292   4.771  15.659  24.051  0.0022  0.1920 -0.1333
57158DOD     C115293   9.118   3.520  25.014 -0.1533  0.2167 -0.1728
57158DOD     C215294   9.405   3.264  25.248  0.2630 -0.2203  0.1809
57158DOD     C315295   9.780   3.090  25.423 -0.2321 -0.0056  0.0105
57159DOD     C115296  16.063  21.060  23.861 -0.0194 -0.2762 -0.0628
57159DOD     C215297  16.424  21.325  24.071 -0.0662  0.1580 -0.1515
57159DOD     C315298  16.768  21.605  24.107  0.0746  0.0940  0.0549
57160DOD     C115299  21.253  29.901  26.793  0.1904 -0.0614  0.1315
57160DOD     C215300  21.163  30.289  26.557  0.1616 -0.2331 -0.0471
57160DOD     C315301  20.900   0.277  26.371 -0.1234 -0.0451 -0.2631
57161DOD     C115302   7.270  11.560  12.768 -0.3620  0.0573  0.2839
57161DOD     C215303   7.081  11.100  12.637 -0.1524 -0.1899 -0.0326
57161DOD     C315304   6.888  10.756  12.429  0.1674 -0.2104 -0.3897
57162DOD     C115305   0.368  19.623  19.752  0.1419  0.2021  0.1106
57162DOD     C215306   0.286  20.011  20.004  0.0651 -0.1094 -0.1230
57162DOD     C315307   0.089  20.402  20.137 -0.2540 -0.1205  0.1890
57163DOD     C115308   3.242   9.594   3.475  0.1208 -0.0062  0.1817
57163DOD     C215309   2.765   9.539   3.424  0.1978  0.0369 -0.3849
57163DOD     C315310   2.458   9.309   3.169 -0.0323  0.2594  0.1619
57164DOD     C115311  10.519   5.234   9.829  0.3308 -0.1441 -0.1624
57164DOD     C215312  10.256   5.542  10.099 -0.1624  0.1399 -0.1373
57164DOD     C315313  10.168   5.944  10.347  0.1049 -0.0707  0.0467
57165DOD     C115314  23.095  25.435  14.973  0.3615 -0.1226 -0.0034
57165DOD     C215315  22.718  25.235  15.105  0.1093 -0.1046  0.0850
57165DOD     C315316  22.257  25.218  14.950  0.1617  0.2772 -0.2620
57166DOD     C115317  26.084  16.689  15.781 -0.2489 -0.1680  0.3870
57166DOD     C215318  26.488  16.464  15.611  0.1657  0.1730 -0.0635
57166DOD     C315319  26.766  16.173  15.753  0.0532 -0.0681  0.1756
57167DOD     C115320  12.393   1.444  29.486 -0.0539 -0.0324 -0.1411
57167DOD     C215321  12.458   1.157  29.772  0.0157  0.2724  0.2130
57167DOD     C315322  12.610   1.072  30.213  0.0380 -0.2678  0.0158
57168DOD     C115323   4.974  27.673  26.971  0.1300  0.1067 -0.1056
57168DOD     C215324   4.565  27.622  26.871  0.2927 -0.0873  0.0048
57168DOD     C315325   4.229  27.363  26.708  0.0285  0.1293  0.0626
57169DOD     C115326  24.742  26.044   4.222 -0.1059 -0.2565 -0.2656
57169DOD     C215327  24.547  26.469   4.417 -0.0866  0.1287  0.0590
57169DOD     C315328  24.146  26.789   4.520  0.0111  0.2498  0.2430
57170DOD     C115329  16.258  28.876  23.099  0.0036  0.2956 -0.1018
57170DOD     C215330  16.632  28.679  23.260  0.0835 -0.0870  0.0034
57170DOD     C315331  16.701  28.309  23.515 -0.1542  0.1360 -0.1282
57171DOD     C115332  23.594   0.564  22.685 -0.2073  0.2150  0.1016
57171DOD     C215333  23.668   0.917  22.936 -0.1913 -0.1101  0.1617
57171DOD     C315334  23.783   1.077  23.320  0.3040 -0.0154 -0.1516
57172DOD     C115335  17.197   3.665   3.308 -0.0703 -0.1969  0.0330
57172DOD     C215336  17.552   3.544   3.655  0.0437  0.2239  0.0053
57172DOD     C315337  17.675   3.873   3.963 -0.3148  0.1706 -0.3313
57173DOD     C115338   3.982   9.924  27.375 -0.1098 -0.1468 -0.0689
57173DOD     C215339   4.120   9.449  27.335  0.0633 -0.3484  0.0960
57173DOD     C315340   4.058   8.981  27.286 -0.1234  0.1776 -0.1664
57174DOD     C115341   2.027   4.430   1.571 -0.2303 -0.0744 -0.3104
57174DOD     C215342   1.889   4.817   1.388  0.0751 -0.0023  0.0259
57174DOD     C315343   1.626   5.176   1.157  0.1808  0.1582  0.0560
57175DOD     C115344  16.673  22.127  18.573  0.1273 -0.1833 -0.0226
57175DOD     C215345  16.219  22.224  18.734 -0.0705  0.0609 -0.3126
57175DOD     C315346  15.741  22.274  18.823 -0.2014 -0.1897 -0.0873
57176DOD     C115347   4.803   1.058  27.951 -0.4345 -0.3133  0.1262
57176DOD     C215348   4.543   1.018  27.566  0.0582  0.2371  0.1293
57176DOD     C315349   4.416   0.805  27.183  0.0361  0.0190 -0.0590
57177DOD     C115350   9.884   6.806  22.299 -0.1315  0.1129  0.5056
57177DOD     C215351   9.643   6.438  22.213  0.0883 -0.0615  0.0049
57177DOD     C315352   9.167   6.302  22.384 -0.3704  0.1766 -0.1130
57178DOD     C115353   0.218  19.145  14.445  0.1482 -0.1277  0.3648
57178DOD     C215354  30.124  19.025  14.478 -0.5037  0.1755 -0.0686
57178DOD     C315355  29.668  19.013  14.421  0.1446  0.1777  0.0071
57179DOD     C115356   8.383  15.980  29.344  0.3396 -0.0120 -0.0566
57179DOD     C215357   8.657  16.313  29.118 -0.0837  0.2108  0.0245
57179DOD     C315358   8.752  16.552  28.760  0.2860  0.3452  0.0138
57180DOD     C115359  27.997  14.908  17.198 -0.0548  0.1149  0.2466
57180DOD     C215360  27.827  14.577  16.832 -0.0453 -0.3139 -0.2424
57180DOD     C315361  27.761  14.336  16.436 -0.1011  0.0003 -0.0939
57181DOD     C115362   6.222   5.158  29.386  0.1273 -0.0028  0.0136
57181DOD     C215363   6.398   4.750  29.512 -0.3820 -0.2342 -0.0443
57181DOD     C315364   6.775   4.491  29.641 -0.2898  0.0420 -0.1059
57182DOD     C115365  28.581  24.741  26.352 -0.3054 -0.1291 -0.0730
57182DOD     C215366  28.669  25.202  26.456  0.1458 -0.1812 -0.1198
57182DOD     C315367  28.690  25.646  26.510 -0.1397 -0.2463 -0.0162
57183DOD     C115368   1.060  23.875  13.296 -0.2994 -0.1414 -0.2300
57183DOD     C215369   0.673  24.020  13.097 -0.0066  0.0287 -0.0380
57183DOD     C315370   0.415  24.304  12.879  0.1130  0.0698  0.0352
57184DOD     C115371   9.781  25.597  22.571 -0.1285  0.0307 -0.0300
57184DOD     C215372   9.828  25.275  22.900 -0.3476  0.2642  0.1672
57184DOD     C315373  10.039  24.893  23.118 -0.3261 -0.1470  0.0671
57185DOD     C115374  28.732  10.485  30.099  0.0789  0.1321  0.4842
57185DOD     C215375  29.195  10.403  30.274  0.0446  0.3258  0.1393
57185DOD     C315376  29.635  10.301  30.231  0.1100 -0.1027 -0.1763
57186DOD     C115377  23.276  30.033   8.582  0.0941 -0.0445  0.2878
57186DOD     C215378  23.350  29.863   9.019  0.4308 -0.1935  0.1806
57186DOD     C315379  23.592  29.888   9.415 -0.2642  0.0320 -0.1220
57187DOD     C115380  14.273  18.993  13.383 -0.1663 -0.0140 -0.4287
57187DOD     C215381  14.221  18.961  12.966  0.3010  0.1945 -0.0286
57187DOD     C315382  13.894  19.049  12.631 -0.2220 -0.0144 -0.0064
57188DOD     C115383  25.546  19.495  18.350 -0.1972 -0.1462  0.2774
57188DOD     C215384  25.366  19.061  18.289  0.0102  0.1190 -0.0626
57188DOD     C315385  25.109  18.730  18.321 -0.1463  0.1588  0.1137
57189DOD     C115386  12.852  14.038   7.332  0.1336 -0.4910  0.3668
57189DOD     C215387  12.854  14.553   7.253 -0.1814 -0.0971  0.2759
57189DOD     C315388  12.715  15.020   7.293  0.0066  0.0419 -0.0891
57190DOD     C115389  18.281   7.453   2.985 -0.0830  0.0794 -0.2648
57190DOD     C215390  18.168   7.474   3.418  0.0072 -0.0242 -0.0730
57190DOD     C315391  17.920   7.179   3.684 -0.0231  0.1236  0.1538
57191DOD     C115392  27.310  25.927  17.880 -0.1243  0.0110 -0.0381
57191DOD     C215393  27.356  25.546  18.166  0.0849  0.1344  0.2643
57191DOD     C315394  27.149  25.352  18.522 -0.0024  0.0090  0.1638
57192DOD     C115395   1.499  25.911  16.127  0.4702 -0.2344  0.0570
57192DOD     C215396   1.875  25.787  16.370 -0.0079  0.3708 -0.0770
57192DOD     C315397   2.086  25.750  16.789 -0.2419  0.2632  0.0163
57193DOD     C115398   9.758  20.491  22.525  0.2782 -0.1907  0.2348
57193DOD     C215399   9.968  20.308  22.170 -0.1486 -0.3113 -0.2003
57193DOD     C315400   9.905  20.161  21.742 -0.0424  0.0504  0.1045
57194DOD     C115401  15.448  17.799  16.835  0.0089 -0.0194  0.1110
57194DOD     C215402  15.827  17.817  16.545 -0.1745 -0.4546  0.2112
57194DOD     C315403  16.201  17.603  16.332 -0.0690  0.1258  0.1122
57195DOD     C115404   0.123  25.676  27.844  0.3009  0.2458 -0.2327
57195DOD     C215405   0.243  26.101  27.621 -0.0053 -0.1479 -0.1858
57195DOD     C315406   0.287  26.429  27.315  0.2787 -0.0120 -0.5571
57196DOD     C115407  28.162   3.959  22.035 -0.0655  0.1965  0.1242
57196DOD     C215408  27.833   4.188  21.766  0.0118 -0.1489  0.0763
57196DOD     C315409  27.592   4.571  21.575  0.4060  0.1758 -0.0818
57197DOD     C115410  28.542   1.851   7.033 -0.0167  0.0661 -0.1266
57197DOD     C215411  28.812   2.128   6.761 -0.1501 -0.2786 -0.1672
57197DOD     C315412  28.938   2.276   6.355  0.2207  0.4060 -0.1037
57198DOD     C115413   3.303   4.494  15.133  0.0824 -0.0833 -0.0928
57198DOD     C215414   3.183   4.685  14.749 -0.1473 -0.1546 -0.1652
57198DOD     C315415   2.978   5.081  14.557 -0.0668 -0.2683 -0.0193
57199DOD     C115416  16.071  13.233  23.602 -0.1383 -0.0764 -0.2762
57199DOD     C215417  15.728  13.251  23.943 -0.0793  0.1563 -0.1370
57199DOD     C315418  15.364  12.896  23.932  0.0587 -0.0448 -0.0801
57200DOD     C115419  13.979   2.842   6.314  0.1207 -0.2011  0.0154
57200DOD     C215420  14.285   3.123   6.439 -0.2227  0.3582  0.1962
57200DOD     C315421  14.489   3.497   6.336 -0.0275 -0.2441  0.1476
57201DOD     C115422  29.676  21.080  23.111  0.4011  0.3929  0.1052
57201DOD     C215423  29.609  20.882  22.663 -0.2171 -0.0525  0.2000
57201DOD     C315424  29.368  20.878  22.303  0.2183 -0.1022 -0.0773
57202DOD     C115425  28.767  12.211  22.529  0.3400 -0.1598  0.0034
57202DOD     C215426  29.192  12.354  22.744 -0.0250  0.0166  0.0157
57202DOD     C315427  29.608  12.156  22.752  0.0566  0.0813  0.0131
57203DOD     C115428  16.236   5.241  13.953  0.1649 -0.0473  0.0098
57203DOD     C215429  16.227   5.582  13.661  0.0831  0.2173  0.1872
57203DOD     C315430  15.837   5.770  13.468 -0.0850 -0.0322 -0.0637
57204DOD     C115431   8.361  26.781  14.710 -0.1897 -0.0538 -0.0482
57204DOD     C215432   8.587  27.042  14.399  0.0679 -0.2716  0.1232
57204DOD     C315433   8.608  27.499  14.366 -0.2705  0.1823  0.1765
57205DOD     C115434  23.096   6.355  21.367 -0.1361  0.0431  0.0271
57205DOD     C215435  22.725   6.620  21.254 -0.2270  0.0588  0.1666
57205DOD     C315436  22.304   6.787  21.344  0.2740 -0.1893  0.0793
57206DOD     C115437   4.552   7.687  25.069 -0.2420 -0.0114 -0.0620
57206DOD     C215438   4.247   7.339  25.133 -0.1531  0.0667 -0.0988
57206DOD     C315439   3.900   6.974  25.080 -0.1705 -0.0415 -0.4857
57207DOD     C115440  12.051  27.436  26.657 -0.1100  0.2656  0.2488
57207DOD     C215441  11.876  27.221  27.025 -0.0035  0.2355 -0.2853
57207DOD     C315442  11.742  26.802  27.210  0.0645  0.1895  0.0857
57208DOD     C115443  19.662  14.672   1.902  0.0465  0.1162  0.0001
57208DOD     C215444  19.333  14.331   2.113 -0.0029 -0.2359  0.1859
57208DOD     C315445  18.892  14.147   2.066 -0.2104 -0.0677  0.0134
57209DOD     C115446  19.508  16.010  16.978  0.0112  0.0200  0.1738
57209DOD     C215447  19.445  16.370  16.614 -0.1817  0.2617 -0.0281
57209DOD     C315448  19.356  16.343  16.166 -0.0799  0.0094 -0.0779
57210DOD     C115449  12.707  29.286  18.712  0.0635  0.3991 -0.1146
57210DOD     C215450  12.764  28.860  18.876  0.0289  0.0613  0.2660
57210DOD     C315451  12.540  28.473  18.920  0.1362 -0.0022 -0.0881
57211DOD     C115452  25.001  13.980   4.255 -0.1309 -0.0623  0.0712
57211DOD     C215453  25.143  14.281   3.895 -0.1044  0.0720 -0.0107
57211DOD     C315454  25.299  14.546   3.488  0.0888  0.0879  0.3056
57212DOD     C115455  23.116  12.579  24.366  0.0844 -0.0898 -0.2725
57212DOD     C215456  23.369  12.260  24.476 -0.0137  0.1772  0.0536
57212DOD     C315457  23.624  11.931  24.729 -0.3410 -0.1429 -0.0131
57213DOD     C115458  26.488  15.920  16.671 -0.0040 -0.0654 -0.0361
57213DOD     C215459  26.580  16.359  16.558 -0.0709  0.0568  0.1308
57213DOD     C315460  26.685  16.560  16.168  0.2634 -0.2657  0.0121
57214DOD     C115461  14.439   2.517   9.570  0.0442  0.0700  0.0227
57214DOD     C215462  14.064   2.749   9.414  0.2974 -0.1353 -0.2288
57214DOD     C315463  13.856   3.016   9.123  0.2696  0.1288 -0.4348
57215DOD     C115464   8.693  14.654  21.696  0.1996  0.1416  0.1491
57215DOD     C215465   8.626  14.599  22.192  0.2663  0.2997  0.0412
57215DOD     C315466   8.263  14.792  22.377 -0.1402 -0.0948  0.0099
57216DOD     C115467  19.043   4.464   7.897 -0.1695  0.0477  0.0382
57216DOD     C215468  19.477   4.639   7.920 -0.1297 -0.1831  0.2350
57216DOD     C315469  19.871   4.863   7.998  0.0520 -0.3322 -0.1911
57217DOD     C115470  10.764   6.917  29.420  0.0518  0.3029 -0.1873
57217DOD     C215471  11.225   6.883  29.614 -0.0671 -0.0910 -0.0159
57217DOD     C315472  11.623   6.592  29.701  0.4342  0.0536  0.2549
57218DOD     C115473  30.209   0.928  23.310 -0.1386 -0.1004  0.2244
57218DOD     C215474  29.777   1.054  23.333  0.0451 -0.3368  0.0024
57218DOD     C315475  29.613   1.328  23.720  0.1706  0.1503  0.1434
57219DOD     C115476   5.969   3.392  13.199  0.2516 -0.0620  0.0938
57219DOD     C215477   6.400   3.328  13.265 -0.0168 -0.0191 -0.4090
57219DOD     C315478   6.860   3.209  13.375  0.1449  0.0009 -0.2152
57220DOD     C115479  17.056  11.689  22.392 -0.0669 -0.0918  0.1048
57220DOD     C215480  17.310  11.517  22.021  0.1854 -0.0133 -0.1781
57220DOD     C315481  17.329  11.776  21.689 -0.0508 -0.0287  0.2009
57221DOD     C115482  14.015   4.944  11.766 -0.0730  0.1314  0.1615
57221DOD     C215483  13.912   5.020  11.326  0.2339 -0.0060  0.1732
57221DOD     C315484  13.941   4.822  10.952 -0.0306  0.1674 -0.1298
57222DOD     C115485   7.562   7.029  19.216 -0.3159 -0.0851 -0.1643
57222DOD     C215486   7.139   6.857  19.109  0.1769 -0.1668  0.1916
57222DOD     C315487   6.670   6.915  18.984  0.2657 -0.0488  0.1900
57223DOD     C115488  22.415  16.940  28.329 -0.2190 -0.2320 -0.1778
57223DOD     C215489  22.558  16.667  27.931 -0.0424  0.2267  0.0975
57223DOD     C315490  22.888  16.649  27.645  0.0278  0.3596 -0.1770
57224DOD     C115491   2.343  13.583   3.254  0.1404 -0.0040 -0.2068
57224DOD     C215492   2.024  13.337   3.464 -0.2064 -0.0966 -0.1691
57224DOD     C315493   1.829  13.104   3.782 -0.1174  0.1597  0.1204
57225DOD     C115494  17.863   2.061  17.052 -0.0205  0.0493 -0.1614
57225DOD     C215495  17.902   2.185  17.523 -0.3160  0.1762  0.3542
57225DOD     C315496  17.778   2.365  17.919  0.0727 -0.0239  0.0157
57226DOD     C115497   0.112  12.533   0.159 -0.4335  0.2633  0.0025
57226DOD     C215498   0.239  12.901   0.385 -0.2073 -0.3374 -0.2743
57226DOD     C315499  30.287  13.107   0.759  0.2201  0.1526 -0.1402
57227DOD     C115500  13.934  28.790  29.094  0.0210  0.1337 -0.1006
57227DOD     C215501  13.751  28.371  28.988  0.1628  0.1368  0.0177
57227DOD     C315502  13.983  28.046  28.696  0.1109 -0.3122 -0.0187
57228DOD     C115503  10.080   1.513   6.892 -0.5726  0.2478  0.1090
57228DOD     C215504   9.933   1.334   6.451 -0.1005 -0.5689 -0.2805
57228DOD     C315505   9.838   1.095   6.025  0.0424  0.0497 -0.0262
57229DOD     C115506   8.743   5.097  15.928 -0.1162 -0.1075 -0.2914
57229DOD     C215507   8.410   4.754  15.900 -0.0018 -0.2180  0.0241
57229DOD     C315508   8.137   4.487  16.115  0.0978  0.0426  0.2825
57230DOD     C115509  13.582   3.210  23.545 -0.0778 -0.2486  0.2982
57230DOD     C215510  13.784   3.563  23.734 -0.1538  0.3783  0.0124
57230DOD     C315511  14.170   3.704  23.988 -0.0201  0.0235  0.0937
57231DOD     C115512  25.138  25.936   4.486 -0.0685  0.1470 -0.0448
57231DOD     C215513  25.085  26.442   4.453  0.2243  0.3035  0.0389
57231DOD     C315514  25.191  26.883   4.218 -0.2936 -0.2630  0.3643
57232DOD     C115515  22.369  14.952  25.924 -0.0493 -0.0320 -0.1803
57232DOD     C215516  22.467  14.500  25.957 -0.2312 -0.1086 -0.2004
57232DOD     C315517  22.662  14.104  26.108  0.0184  0.0689  0.0427
57233DOD     C115518  28.980   3.559   3.664  0.1880 -0.0777 -0.0372
57233DOD     C215519  29.459   3.685   3.548 -0.0750  0.0207  0.0744
57233DOD     C315520  29.905   3.699   3.685  0.0890 -0.2289  0.1918
57234DOD     C115521  11.840   4.281  12.180  0.1216  0.0595 -0.2327
57234DOD     C215522  11.486   4.392  11.864 -0.1821  0.0728  0.0205
57234DOD     C315523  11.313   4.268  11.438  0.1018 -0.1188  0.1283
57235DOD     C115524   9.696  10.671  12.190 -0.0554  0.1098  0.1964
57235DOD     C215525  10.054  10.668  11.875 -0.1878 -0.0882 -0.1866
57235DOD     C315526  10.530  10.475  11.897 -0.0485 -0.1178  0.0927
57236DOD     C115527  23.547   6.089  21.214 -0.0471  0.0865  0.4350
57236DOD     C215528  23.660   6.102  21.682  0.1630 -0.1933  0.3929
57236DOD     C315529  23.437   6.083  22.119  0.0401  0.0166  0.0360
57237DOD     C115530   2.941   9.578  25.985  0.0779  0.0573 -0.1851
57237DOD     C215531   2.896   9.459  26.435 -0.1213 -0.1120  0.1074
57237DOD     C315532   2.503   9.429  26.673  0.0525  0.3001  0.1448
57238DOD     C115533  27.510  11.743  20.597 -0.1597 -0.0719  0.0138
57238DOD     C215534  27.522  11.845  20.191  0.1995  0.0722  0.1185
57238DOD     C315535  27.366  12.010  19.814  0.0328  0.2516  0.1011
57239DOD     C115536   2.375   3.662  16.738  0.0271  0.2275  0.2585
57239DOD     C215537   2.075   3.990  16.547  0.1868 -0.0248  0.0281
57239DOD     C315538   1.876   3.909  16.128 -0.0348 -0.1187  0.2551
57240DOD     C115539   1.281   5.369  24.850  0.2876  0.2467  0.1877
57240DOD     C215540   1.473   5.018  25.037  0.1175 -0.0054 -0.0648
57240DOD     C315541   1.762   4.679  25.118  0.0522  0.1411 -0.2211
57241DOD     C115542  26.777  14.760  14.585 -0.0657 -0.0599  0.3124
57241DOD     C215543  26.850  14.271  14.713  0.3636  0.1132  0.1643
57241DOD     C315544  26.833  13.915  14.424 -0.0261  0.1863 -0.0120
57242DOD     C115545  23.974  22.874   5.702  0.3297 -0.1820  0.0556
57242DOD     C215546  23.973  23.331   5.751 -0.1223  0.0325  0.4325
57242DOD     C315547  23.644  23.656   5.641  0.1457 -0.2257 -0.0909
57243DOD     C115548   4.828  19.757   2.331  0.1339  0.0067  0.1589
57243DOD     C215549   4.958  19.698   1.843  0.0451  0.2523 -0.1072
57243DOD     C315550   5.323  19.451   1.797 -0.1521  0.1983  0.0899
57244DOD     C115551  16.931  20.200  17.580 -0.3630  0.1904  0.1773
57244DOD     C215552  17.358  20.231  17.702 -0.1610  0.1282  0.0187
57244DOD     C315553  17.675  20.250  18.025  0.1343  0.0144  0.2680
57245DOD     C115554  11.677  13.371  26.081 -0.1324 -0.0988 -0.2017
57245DOD     C215555  11.888  13.160  25.740  0.1788  0.1567 -0.1984
57245DOD     C315556  12.061  12.824  25.514 -0.3032 -0.1154  0.5391
57246DOD     C115557  11.195  18.509   3.448  0.0051  0.2451  0.1866
57246DOD     C215558  10.857  18.780   3.493  0.0281 -0.2016  0.2214
57246DOD     C315559  10.464  18.885   3.791  0.0262 -0.0316  0.0950
57247DOD     C115560  13.645   7.665  10.530  0.4845 -0.3573  0.2225
57247DOD     C215561  13.347   7.381  10.304 -0.0611 -0.1006  0.0919
57247DOD     C315562  12.873   7.388  10.221 -0.1815  0.0247 -0.0931
57248DOD     C115563  23.997  18.244  15.354 -0.0373 -0.0002 -0.0744
57248DOD     C215564  23.913  18.161  15.804 -0.0232  0.0033  0.0256
57248DOD     C315565  23.956  17.845  16.151  0.0772  0.1521 -0.1076
57249DOD     C115566  23.166  14.522   3.755 -0.0329 -0.0101  0.2222
57249DOD     C215567  22.741  14.681   3.909 -0.2371 -0.0005  0.0483
57249DOD     C315568  22.321  14.552   3.758  0.1433  0.2928  0.0840
57250DOD     C115569   2.496  18.592   1.335  0.2561  0.0756 -0.3316
57250DOD     C215570   2.891  18.419   1.589 -0.1194 -0.1208 -0.3375
57250DOD     C315571   3.351  18.266   1.445  0.0019 -0.1702  0.0566
57251DOD     C115572   0.923   0.508  14.223 -0.2060  0.2775 -0.1602
57251DOD     C215573   0.816   0.519  13.778 -0.1093 -0.1480 -0.4143
57251DOD     C315574   0.802   0.710  13.361 -0.0816  0.0524 -0.2297
57252DOD     C115575  29.534   6.448  25.341 -0.1361 -0.2199  0.0237
57252DOD     C215576  29.103   6.622  25.164 -0.3225  0.1471 -0.0183
57252DOD     C315577  28.896   6.655  24.754 -0.1801 -0.2725  0.3579
57253DOD     C115578  22.648   9.441   1.220  0.1950  0.0091  0.0246
57253DOD     C215579  22.542   9.895   1.019  0.2543 -0.0074 -0.1549
57253DOD     C315580  22.244  10.215   1.042 -0.2186  0.0948 -0.1958
57254DOD     C115581   6.079  16.576   3.733 -0.3109  0.0693  0.4138
57254DOD     C215582   6.054  17.012   3.894  0.0978  0.2073 -0.1422
57254DOD     C315583   5.908  17.305   3.548  0.0587 -0.2974 -0.2721
57255DOD     C115584   5.425  25.281  15.611  0.0284 -0.1029  0.0728
57255DOD     C215585   5.650  25.565  15.300  0.3757 -0.1664 -0.1205
57255DOD     C315586   5.698  26.015  15.337 -0.0560  0.0523 -0.1116
57256DOD     C115587  28.376  16.750  12.160  0.1247 -0.1118 -0.2292
57256DOD     C215588  28.814  16.717  12.279 -0.1228  0.0935 -0.1457
57256DOD     C315589  29.071  16.560  12.609 -0.2463  0.1489 -0.1927
57257DOD     C115590  11.235  13.333  17.652 -0.0726  0.0844 -0.0689
57257DOD     C215591  11.134  12.927  17.849 -0.0562 -0.0320  0.2973
57257DOD     C315592  10.991  12.475  18.003 -0.2513 -0.0950 -0.1051
57258DOD     C115593   1.153  18.729  26.643  0.1462  0.1946 -0.2520
57258DOD     C215594   1.122  19.166  26.792  0.1668  0.1695 -0.3141
57258DOD     C315595   0.784  19.442  26.832  0.2123 -0.2420 -0.2909
57259DOD     C115596   0.516   0.826  17.187  0.0711 -0.0143 -0.1478
57259DOD     C215597   0.482   0.651  16.737 -0.2321  0.2644  0.2042
57259DOD     C315598   0.531   0.199  16.555  0.3189 -0.2441 -0.0229
57260DOD     C115599  14.112   4.792  23.072  0.0509 -0.1460  0.1010
57260DOD     C215600  14.252   4.433  22.818 -0.1140  0.0596  0.1296
57260DOD     C315601  14.754   4.473  22.568 -0.0755  0.0195 -0.0675
57261DOD     C115602  22.025   8.889  26.706  0.1156  0.4416 -0.1224
57261DOD     C215603  21.767   8.573  26.951  0.0913  0.1567  0.0060
57261DOD     C315604  21.524   8.172  26.980 -0.0180 -0.0363 -0.2239
57262DOD     C115605  23.489  14.505   4.270 -0.4250 -0.1053  0.2309
57262DOD     C215606  23.375  14.098   4.461  0.3399  0.2472 -0.0703
57262DOD     C315607  23.347  13.667   4.260 -0.2217 -0.0110 -0.0151
57263DOD     C115608  20.097  14.416   1.075 -0.0343  0.4418 -0.2951
57263DOD     C215609  20.026  13.986   1.246  0.0222  0.0598 -0.0140
57263DOD     C315610  19.955  13.604   1.047 -0.3503  0.3328 -0.1258
57264DOD     C115611  20.240   0.581  12.056 -0.1234  0.6185 -0.1187
57264DOD     C215612  20.588   0.691  12.319  0.0060  0.2431  0.0798
57264DOD     C315613  20.986   0.641  12.496 -0.2821 -0.0183 -0.2390
57265DOD     C115614  17.771   8.534  10.896 -0.0742 -0.3019 -0.1122
57265DOD     C215615  17.847   8.939  10.843 -0.3181 -0.0052  0.3628
57265DOD     C315616  17.929   9.384  10.811 -0.0623 -0.1196  0.3004
57266DOD     C115617  16.487   2.488  28.922  0.1206  0.2558  0.2440
57266DOD     C215618  16.155   2.671  28.673  0.0649 -0.1076 -0.3062
57266DOD     C315619  15.724   2.794  28.490 -0.1484  0.2518 -0.1032
57267DOD     C115620   0.827  12.396  20.499 -0.4086 -0.0084  0.0775
57267DOD     C215621   0.602  12.584  20.176 -0.1920  0.1598  0.2070
57267DOD     C315622   0.130  12.665  20.153 -0.0759  0.1217 -0.0981
57268DOD     C115623   8.409  11.581   5.211  0.0641 -0.0013 -0.2047
57268DOD     C215624   8.219  11.349   5.481  0.1851  0.3532 -0.1077
57268DOD     C315625   8.347  11.334   5.989  0.0150  0.2465  0.1353
57269DOD     C115626  26.873  20.845   1.617 -0.0234 -0.3758  0.1196
57269DOD     C215627  26.623  20.827   2.075 -0.1840  0.0987 -0.1288
57269DOD     C315628  26.662  20.600   2.499  0.1225  0.0237  0.0749
57270DOD     C115629  14.710  23.582   0.939 -0.0049 -0.1747  0.5384
57270DOD     C215630  14.625  23.402   1.362  0.2959  0.0959 -0.0081
57270DOD     C315631  14.615  23.010   1.743 -0.0566  0.1728 -0.0897
57271DOD     C115632  25.807  21.349  15.700  0.3880  0.1157  0.0576
57271DOD     C215633  25.533  21.558  15.968 -0.1108  0.1796  0.3853
57271DOD     C315634  25.238  21.558  16.332 -0.1321  0.0672  0.1836
57272DOD     C115635  23.225  10.718  16.540  0.1766 -0.0793  0.1454
57272DOD     C215636  23.279  10.215  16.489  0.1318 -0.3387 -0.4650
57272DOD     C315637  23.230   9.773  16.629  0.0385 -0.1709 -0.1154
57273DOD     C115638  22.462   7.101  28.766 -0.0122  0.0163 -0.1169
57273DOD     C215639  22.357   6.747  28.558 -0.1090 -0.1537  0.1288
57273DOD     C315640  22.372   6.502  28.144 -0.1812  0.1799  0.2272
57274DOD     C115641  17.545  17.124  10.121  0.3576 -0.0299  0.0417
57274DOD     C215642  17.171  16.990  10.393  0.1843  0.0875  0.3230
57274DOD     C315643  16.771  16.896  10.678  0.1558 -0.3172 -0.0301
57275DOD     C115644   8.264  22.987  15.425 -0.2294  0.0694 -0.0626
57275DOD     C215645   8.399  23.446  15.370  0.1554 -0.0272  0.0231
57275DOD     C315646   8.557  23.899  15.349 -0.0263 -0.0544 -0.2990
57276DOD     C115647  28.795  12.461   7.460 -0.0115 -0.1994 -0.0250
57276DOD     C215648  28.934  12.244   7.848 -0.0554 -0.0054 -0.0548
57276DOD     C315649  29.295  12.267   8.162 -0.1650 -0.2652 -0.2650
57277DOD     C115650   1.300  21.080   9.125  0.1351 -0.1042 -0.3351
57277DOD     C215651   0.989  21.287   9.386  0.2100  0.2285 -0.1124
57277DOD     C315652   0.840  21.573   9.691 -0.4149 -0.0263 -0.0835
57278DOD     C115653  10.412  20.946  12.713  0.0733 -0.2146 -0.0663
57278DOD     C215654   9.998  20.875  12.539  0.3383 -0.0491  0.1063
57278DOD     C315655   9.519  20.883  12.657 -0.1853 -0.3084 -0.0764
57279DOD     C115656  14.798   4.938   5.826 -0.3398  0.1610  0.4075
57279DOD     C215657  15.186   4.886   5.549 -0.3522  0.1421  0.0649
57279DOD     C315658  15.334   4.624   5.162 -0.3216  0.2872  0.2106
57280DOD     C115659   4.787  17.644   3.313 -0.0318  0.1404 -0.0322
57280DOD     C215660   4.554  18.083   3.486  0.0045  0.2705 -0.3313
57280DOD     C315661   4.440  18.463   3.701 -0.1478 -0.1728  0.2567
57281DOD     C115662  25.494  26.194  21.375 -0.1737 -0.0515  0.0893
57281DOD     C215663  25.687  26.183  20.961 -0.0301 -0.0599  0.2359
57281DOD     C315664  26.029  25.935  20.797  0.0044  0.1463 -0.1417
57282DOD     C115665  15.627  10.208  18.015  0.4444  0.3897  0.0479
57282DOD     C215666  15.530   9.941  17.603  0.5034  0.0810  0.0367
57282DOD     C315667  15.337   9.821  17.226  0.3442  0.0732  0.2402
57283DOD     C115668  19.570  12.233  24.898 -0.0171  0.1980 -0.1665
57283DOD     C215669  20.039  12.236  24.812  0.2940 -0.0987 -0.1701
57283DOD     C315670  20.374  11.987  24.547 -0.0612  0.0163 -0.0862
57284DOD     C115671   8.400  13.823  12.864  0.1900  0.1002 -0.4802
57284DOD     C215672   8.765  13.934  13.240 -0.3898  0.1292  0.3190
57284DOD     C315673   9.201  13.974  13.467  0.0153  0.0466 -0.0127
57285DOD     C115674   2.313  14.537  22.791  0.0720 -0.0711 -0.0429
57285DOD     C215675   2.749  14.673  22.642 -0.2097  0.0311 -0.0359
57285DOD     C315676   3.216  14.595  22.474  0.1397  0.2253 -0.4606
57286DOD     C115677  24.473  12.516   4.462  0.0165  0.2362 -0.3372
57286DOD     C215678  24.551  12.940   4.425 -0.0232 -0.0789 -0.0841
57286DOD     C315679  24.738  13.165   4.053  0.0176  0.0193  0.1474
57287DOD     C115680   9.624  14.249  14.227 -0.2898  0.0176  0.2058
57287DOD     C215681   9.343  14.363  13.840 -0.0554 -0.0051  0.1177
57287DOD     C315682   9.283  14.509  13.421  0.1788  0.1250  0.1302
57288DOD     C115683  18.894   0.699   0.922  0.4028  0.3882 -0.2333
57288DOD     C215684  18.930   1.201   0.918  0.1342  0.0366  0.1232
57288DOD     C315685  18.991   1.666   0.852  0.1155 -0.1345 -0.0100
57289DOD     C115686  11.071  15.232  28.546 -0.0819 -0.0300 -0.4486
57289DOD     C215687  11.308  15.284  28.987 -0.4074 -0.0949 -0.1460
57289DOD     C315688  11.656  15.350  29.306 -0.1360  0.2011 -0.0761
57290DOD     C115689  30.127  21.338  19.293  0.2093 -0.0934 -0.5110
57290DOD     C215690  30.066  20.927  19.037 -0.2620  0.0331  0.2658
57290DOD     C315691  29.998  20.885  18.578  0.0659  0.1937 -0.1390
57291DOD     C115692   1.351   4.111  25.748 -0.1291  0.1601  0.0491
57291DOD     C215693   1.817   4.184  25.802  0.2150  0.0649  0.0158
57291DOD     C315694   2.192   4.227  26.047 -0.0943  0.2126  0.0563
57292DOD     C115695  27.547   3.567  12.224 -0.2152 -0.0320  0.0191
57292DOD     C215696  27.531   3.978  11.941 -0.2581 -0.0668 -0.2459
57292DOD     C315697  27.636   4.276  11.568 -0.2058 -0.0200 -0.2958
57293DOD     C115698  20.444   0.798  18.050  0.0122  0.2256  0.0007
57293DOD     C215699  20.349   0.341  18.148  0.0213  0.0089  0.0256
57293DOD     C315700  20.270  30.262  18.351  0.1089  0.1100 -0.1632
57294DOD     C115701  16.232  14.122  20.288 -0.0041 -0.0328 -0.2591
57294DOD     C215702  16.486  13.830  20.023 -0.1578 -0.0826  0.0092
57294DOD     C315703  16.726  13.480  20.140  0.1658  0.1426  0.0498
57295DOD     C115704  18.364  20.123   2.961  0.3432 -0.0441 -0.1930
57295DOD     C215705  17.897  20.112   2.911 -0.0385  0.3315  0.1700
57295DOD     C315706  17.465  20.077   3.155 -0.3597 -0.1176  0.1461
57296DOD     C115707  23.307  17.365  15.461  0.0603 -0.0194  0.0893
57296DOD     C215708  23.766  17.339  15.553 -0.0930 -0.0226 -0.0739
57296DOD     C315709  24.139  17.324  15.320 -0.1568 -0.2721  0.0325
57297DOD     C115710  17.284  25.419  14.795 -0.2651 -0.1348  0.0112
57297DOD     C215711  17.389  24.981  14.886  0.0047  0.0684  0.2834
57297DOD     C315712  17.529  24.535  14.863  0.1343  0.0580 -0.0354
57298DOD     C115713  16.821  21.328   3.694  0.5078  0.1843 -0.0817
57298DOD     C215714  16.530  21.675   3.552 -0.2936  0.2231 -0.0270
57298DOD     C315715  16.289  22.002   3.334  0.0689  0.3854 -0.0184
57299DOD     C115716  27.632  14.162   0.495 -0.1736 -0.2286  0.1519
57299DOD     C215717  27.951  13.962   0.212  0.2397 -0.2282 -0.2312
57299DOD     C315718  28.018  13.539   0.138 -0.2692 -0.1293 -0.2191
57300DOD     C115719  20.965  20.240  27.447  0.2969  0.0317  0.1089
57300DOD     C215720  20.884  20.353  26.991  0.2011  0.2635 -0.4717
57300DOD     C315721  20.856  20.094  26.591  0.1537 -0.2956  0.2922
57301DOD     C115722  14.090   0.023   2.164 -0.2815 -0.0853 -0.1149
57301DOD     C215723  14.352  30.144   1.831 -0.1278 -0.2266  0.1047
57301DOD     C315724  14.679  30.228   1.492 -0.1671  0.1292 -0.2332
57302DOD     C115725   3.048  28.005  26.824  0.1776 -0.2559  0.4751
57302DOD     C215726   2.823  27.662  27.052 -0.2548 -0.0051  0.1513
57302DOD     C315727   2.655  27.309  27.275  0.0838 -0.0092  0.0869
57303DOD     C115728   5.713  19.956  17.034 -0.0059  0.0576 -0.0196
57303DOD     C215729   6.162  19.958  17.127  0.4860  0.2411 -0.1255
57303DOD     C315730   6.601  20.147  17.120  0.1227 -0.3627  0.0056
57304DOD     C115731  26.386  19.953  15.402 -0.4098 -0.0810 -0.4156
57304DOD     C215732  26.229  20.273  15.692 -0.0605 -0.2107 -0.3595
57304DOD     C315733  26.209  20.552  16.090  0.2021  0.0532 -0.1607
57305DOD     C115734  14.656  14.977  29.648  0.1295 -0.0043 -0.0499
57305DOD     C215735  14.227  15.089  29.443  0.0486 -0.1972  0.2636
57305DOD     C315736  14.076  15.443  29.134  0.1124 -0.2085  0.0076
57306DOD     C115737   3.269   8.748   9.028  0.1249 -0.1280 -0.0369
57306DOD     C215738   3.020   8.438   8.812 -0.3632  0.1983 -0.1116
57306DOD     C315739   2.899   8.021   8.624  0.1407 -0.4711 -0.0705
57307DOD     C115740  23.135  14.217  28.424 -0.0221 -0.1578 -0.0936
57307DOD     C215741  23.392  13.813  28.429 -0.0320  0.3486 -0.1664
57307DOD     C315742  23.613  13.520  28.095 -0.1374  0.4603 -0.1552
57308DOD     C115743  13.769  18.671  19.030  0.1497 -0.2409  0.0517
57308DOD     C215744  14.106  18.957  18.822  0.3824 -0.2958  0.0309
57308DOD     C315745  14.415  19.186  18.562 -0.0419 -0.4033 -0.2411
57309DOD     C115746  18.283  29.359  23.435  0.1459 -0.0088 -0.2462
57309DOD     C215747  18.109  29.621  23.789  0.1676 -0.0701  0.0470
57309DOD     C315748  18.340  30.015  23.830 -0.0801 -0.0280 -0.0877
57310DOD     C115749  10.449   8.341   7.029  0.1978  0.3087  0.0318
57310DOD     C215750  10.841   8.485   7.204  0.1426  0.0072 -0.0143
57310DOD     C315751  11.245   8.475   7.389  0.1814 -0.0128 -0.1100
57311DOD     C115752  27.324   6.672   9.480  0.1501 -0.1121 -0.0073
57311DOD     C215753  26.869   6.654   9.635  0.2902 -0.1935 -0.1759
57311DOD     C315754  26.800   6.681  10.090  0.1066 -0.2572  0.0648
57312DOD     C115755  10.190  27.907   5.386 -0.1776 -0.2813  0.1632
57312DOD     C215756   9.963  27.543   5.174 -0.0046 -0.0455 -0.3746
57312DOD     C315757   9.699  27.176   5.300  0.1403  0.0406  0.0308
57313DOD     C115758  20.958  29.654  27.346 -0.0213  0.0761  0.0209
57313DOD     C215759  20.691  29.833  26.971  0.0779  0.0554 -0.0739
57313DOD     C315760  20.278  30.019  26.860 -0.0406 -0.0067  0.0721
57314DOD     C115761  22.705   9.049   2.673  0.1139 -0.1575 -0.0216
57314DOD     C215762  22.571   9.278   3.059 -0.0976  0.1503  0.2475
57314DOD     C315763  22.790   9.342   3.507 -0.0082 -0.2183 -0.1411
57315DOD     C115764  20.506   7.477   0.861  0.1273 -0.2104 -0.1240
57315DOD     C215765  20.753   7.198   1.191 -0.3137  0.1072 -0.2959
57315DOD     C315766  21.008   7.231   1.646  0.0691  0.2157 -0.2530
57316DOD     C115767  10.429   3.829  14.881  0.1933 -0.2387 -0.2005
57316DOD     C215768  10.729   3.490  14.740 -0.0888 -0.1130  0.0716
57316DOD     C315769  11.140   3.280  14.830  0.0813 -0.0340  0.0934
57317DOD     C115770  11.403   4.792   4.539  0.3952 -0.0036  0.1724
57317DOD     C215771  11.885   4.699   4.454 -0.2995  0.3146  0.1880
57317DOD     C315772  12.233   4.646   4.138  0.1088  0.2042  0.4707
57318DOD     C115773  20.787  15.359  14.143  0.0596  0.0951 -0.2390
57318DOD     C215774  20.877  15.075  13.777  0.1290  0.0389 -0.0159
57318DOD     C315775  20.807  14.771  13.356  0.1403 -0.0274 -0.1807
57319DOD     C115776  -0.012   7.971  16.318 -0.3970  0.3307  0.2122
57319DOD     C215777  30.116   7.962  16.757  0.2255  0.1722  0.3243
57319DOD     C315778  29.703   7.795  16.929  0.1183 -0.2152  0.1188
57320DOD     C115779   2.113   9.089   2.280 -0.1960  0.0958 -0.0034
57320DOD     C215780   2.290   9.183   1.841  0.1470 -0.0194  0.1078
57320DOD     C315781   2.163   9.222   1.398  0.0004  0.3276  0.0386
57321DOD     C115782  27.464  10.274   6.747  0.0492 -0.0813 -0.2088
57321DOD     C215783  27.080  10.531   6.695 -0.1536  0.1987 -0.0346
57321DOD     C315784  27.009  10.985   6.658 -0.1580 -0.0413  0.3564
57322DOD     C115785  24.481   8.350  13.479 -0.0165 -0.1051 -0.0122
57322DOD     C215786  24.966   8.226  13.489  0.1367 -0.1632 -0.1536
57322DOD     C315787  25.313   7.890  13.380 -0.0459 -0.0467 -0.3793
57323DOD     C115788  15.120  16.385   3.723  0.2833 -0.0051 -0.0573
57323DOD     C215789  14.710  16.091   3.702 -0.0245 -0.2560 -0.0791
57323DOD     C315790  14.317  15.782   3.518 -0.0637 -0.0233 -0.0522
57324DOD     C115791   2.624   1.451   8.895  0.1701 -0.1599  0.1369
57324DOD     C215792   2.354   1.840   8.866 -0.2229 -0.0933 -0.0821
57324DOD     C315793   1.921   1.963   8.718 -0.0873  0.1251  0.1218
57325DOD     C115794   7.771  10.995  23.099 -0.1171 -0.0322  0.1288
57325DOD     C215795   7.480  11.399  22.969 -0.3541 -0.1104  0.0056
57325DOD     C315796   7.442  11.785  22.631  0.2022 -0.0676 -0.2575
57326DOD     C115797  10.630   8.089  22.708 -0.1415  0.1208  0.0060
57326DOD     C215798  10.606   8.338  22.291 -0.0285  0.0775  0.1559
57326DOD     C315799  10.323   8.579  22.043 -0.1238  0.1174 -0.0811
57327DOD     C115800  17.227   0.881  20.039  0.3128  0.0253  0.1302
57327DOD     C215801  17.124   1.337  19.915  0.0154 -0.1285 -0.0026
57327DOD     C315802  17.213   1.770  19.731 -0.1311 -0.0343  0.2271
57328DOD     C115803   6.971  19.094  11.987 -0.1359 -0.0453 -0.2286
57328DOD     C215804   7.384  19.236  11.822  0.0695  0.2537  0.2225
57328DOD     C315805   7.649  19.428  11.468  0.0351 -0.0564 -0.2533
57329DOD     C115806  22.473  18.902   1.128 -0.3336 -0.0936  0.0158
57329DOD     C215807  22.413  18.796   1.597 -0.1666 -0.0039  0.1480
57329DOD     C315808  22.525  18.879   1.990 -0.4081  0.2326  0.3018
57330DOD     C115809  25.714  28.969  23.638 -0.0175  0.0776  0.1481
57330DOD     C215810  25.745  28.595  23.866 -0.1678  0.0044 -0.0133
57330DOD     C315811  25.686  28.159  23.994  0.0168 -0.0038  0.1055
57331DOD     C115812  21.083   5.167   9.934  0.0885 -0.0218 -0.0252
57331DOD     C215813  21.307   4.769   9.889  0.1634 -0.0210 -0.1659
57331DOD     C315814  21.602   4.392   9.947  0.0715 -0.1720  0.1447
57332DOD     C115815   2.239  12.364  24.317 -0.1410 -0.0063 -0.1691
57332DOD     C215816   2.576  12.494  23.993 -0.0836 -0.2017 -0.1346
57332DOD     C315817   2.606  12.630  23.509  0.0962 -0.2707 -0.0957
57333DOD     C115818   0.064   2.176  22.879 -0.2624 -0.1742  0.1276
57333DOD     C215819   0.506   2.395  22.964 -0.1706 -0.3319 -0.0109
57333DOD     C315820   0.687   2.788  23.031  0.2535  0.4872  0.1399
57334DOD     C115821  12.942  25.701   2.980 -0.1140 -0.3148  0.0444
57334DOD     C215822  12.736  25.330   3.249 -0.1393 -0.1367 -0.1593
57334DOD     C315823  12.572  25.014   3.533 -0.0233  0.1984  0.1342
57335DOD     C115824  22.341  24.331  12.222 -0.0233  0.0573 -0.2613
57335DOD     C215825  22.352  23.902  11.962  0.3048 -0.1274  0.1007
57335DOD     C315826  22.616  23.539  11.872 -0.2310  0.0215  0.0934
57336DOD     C115827   7.013  12.017   2.926  0.1165 -0.0351  0.2373
57336DOD     C215828   6.758  12.158   3.293  0.2252  0.3843 -0.3043
57336DOD     C315829   6.485  12.039   3.623 -0.0108  0.1639  0.1068
57337DOD     C115830   6.210  14.384   2.906 -0.5073 -0.2624 -0.0959
57337DOD     C215831   6.537  14.442   3.211 -0.0758 -0.0161  0.0672
57337DOD     C315832   6.686  14.296   3.588 -0.1090  0.0427  0.0796
57338DOD     C115833   8.069   6.327  23.316  0.2839 -0.0041  0.4878
57338DOD     C215834   8.407   6.207  23.030  0.1091  0.1989  0.2900
57338DOD     C315835   8.835   6.163  23.139  0.0294 -0.0016 -0.0365
57339DOD     C115836  20.300  26.853   2.610  0.1371  0.0329  0.1337
57339DOD     C215837  20.074  27.216   2.760 -0.3230  0.0507  0.1108
57339DOD     C315838  19.689  27.403   2.946 -0.1413 -0.1300  0.4045
57340DOD     C115839   1.470   8.308   2.799  0.1835  0.0643 -0.2665
57340DOD     C215840   1.341   7.951   2.501  0.1226 -0.1578  0.0677
57340DOD     C315841   1.657   7.745   2.255  0.0907 -0.1439 -0.2383
57341DOD     C115842   9.734  22.492  11.256  0.0383 -0.1472 -0.1349
57341DOD     C215843   9.965  22.576  10.890  0.0614 -0.2049  0.2527
57341DOD     C315844  10.417  22.439  10.790  0.0990 -0.4725 -0.0555
57342DOD     C115845   5.018  19.820   6.925  0.1895 -0.2965  0.0878
57342DOD     C215846   5.065  19.618   6.520 -0.0489 -0.0066  0.0713
57342DOD     C315847   4.929  19.502   6.117 -0.0240 -0.1635  0.0207
57343DOD     C115848  14.014  11.085  21.669 -0.3139 -0.0150  0.0803
57343DOD     C215849  14.148  11.330  22.027 -0.3680  0.0627 -0.0646
57343DOD     C315850  14.307  11.539  22.394  0.4436 -0.1479 -0.0006
57344DOD     C115851   9.516   9.653  20.675  0.2485  0.1195 -0.3476
57344DOD     C215852   9.506   9.957  21.035  0.0851 -0.0535 -0.1795
57344DOD     C315853   9.648  10.277  21.405 -0.2398 -0.3197 -0.0480
57345DOD     C115854  19.474  14.938   7.905 -0.1100  0.1297  0.0482
57345DOD     C215855  19.403  15.231   7.525  0.0307  0.2191  0.0933
57345DOD     C315856  19.026  15.477   7.476  0.1108 -0.3294 -0.1313
57346DOD     C115857   5.009  16.329  12.793 -0.2476 -0.1495 -0.1444
57346DOD     C215858   5.002  16.733  12.600  0.0798  0.1173  0.0876
57346DOD     C315859   5.262  17.065  12.442  0.0274 -0.1371  0.0389
57347DOD     C115860  12.314  29.274   0.781 -0.1981 -0.0373 -0.0979
57347DOD     C215861  12.565  28.930   0.557 -0.0834 -0.0753 -0.3084
57347DOD     C315862  12.710  28.481   0.502 -0.1835 -0.0150  0.2913
57348DOD     C115863  28.453   7.057   3.488 -0.0207  0.1443 -0.0890
57348DOD     C215864  28.790   6.803   3.402  0.1757  0.3531  0.1905
57348DOD     C315865  28.987   6.763   2.954  0.0749 -0.0166  0.2656
57349DOD     C115866  26.757  26.701  21.641  0.0791  0.2797  0.1661
57349DOD     C215867  26.309  26.728  21.695  0.1172 -0.0894  0.0335
57349DOD     C315868  26.042  27.110  21.836  0.0368 -0.0213  0.0316
57350DOD     C115869  16.585  14.909  12.512 -0.2932  0.1752  0.3799
57350DOD     C215870  16.927  14.916  12.213  0.2459 -0.1337 -0.0078
57350DOD     C315871  16.730  14.906  11.750  0.0349 -0.1617 -0.0940
57351DOD     C115872  25.890  24.615   1.262  0.1410 -0.2361  0.1571
57351DOD     C215873  25.771  24.735   1.686  0.1415 -0.0318 -0.4114
57351DOD     C315874  26.046  24.826   2.008  0.2384  0.0092 -0.1259
57352DOD     C115875  27.929  13.048  29.501 -0.2690  0.3735  0.2328
57352DOD     C215876  28.289  12.940  29.203 -0.0238  0.0102 -0.0879
57352DOD     C315877  28.644  13.008  28.866  0.1463 -0.2308 -0.0055
57353DOD     C115878  26.508   3.567  22.287  0.0303  0.1676  0.1480
57353DOD     C215879  26.366   3.101  22.271 -0.2156 -0.3048 -0.0729
57353DOD     C315880  25.954   2.894  22.372 -0.0353 -0.0758 -0.0127
57354DOD     C115881  20.240  14.044  15.214  0.0131 -0.3090 -0.2443
57354DOD     C215882  19.789  13.980  15.417 -0.0760  0.2256 -0.0030
57354DOD     C315883  19.564  13.905  15.849  0.2824  0.2099 -0.2020
57355DOD     C115884  14.337  19.838  16.648 -0.1403 -0.0837  0.0817
57355DOD     C215885  14.305  20.117  16.972 -0.2111  0.0324 -0.0329
57355DOD     C315886  14.554  20.257  17.377  0.1495 -0.1020  0.1952
57356DOD     C115887   1.813  29.968   5.501 -0.1317  0.0044 -0.0569
57356DOD     C215888   1.756  30.271   5.151 -0.0650 -0.0589  0.1937
57356DOD     C315889   1.708   0.357   4.952 -0.2079  0.0456  0.2968
57357DOD     C115890   0.352  10.370  16.301  0.1811  0.0735 -0.2083
57357DOD     C215891   0.777  10.116  16.215 -0.0396  0.0425 -0.0222
57357DOD     C315892   0.965   9.777  15.972  0.2586  0.1745 -0.0694
57358DOD     C115893  23.949  25.720  27.528 -0.2931 -0.2098  0.3139
57358DOD     C215894  24.183  25.891  27.897  0.4711  0.0996 -0.0043
57358DOD     C315895  24.642  25.925  28.029 -0.0624  0.1194 -0.0453
57359DOD     C115896   9.246  27.333  30.240  0.0314 -0.0822  0.2584
57359DOD     C215897   9.529  27.424   0.314  0.3400 -0.0411 -0.0698
57359DOD     C315898   9.863  27.698   0.504 -0.0360 -0.2348 -0.0462
57360DOD     C115899  30.246   9.285   7.779  0.1646 -0.1791 -0.0131
57360DOD     C215900  29.987   9.679   7.809 -0.3289 -0.1048  0.0630
57360DOD     C315901  29.917  10.128   7.697  0.0689 -0.0104 -0.1466
57361DOD     C115902  12.283  19.533  13.272  0.2821  0.3061  0.0480
57361DOD     C215903  11.942  19.768  13.019 -0.1735  0.2591  0.2479
57361DOD     C315904  11.554  20.001  12.936  0.0899 -0.3275  0.1023
57362DOD     C115905   1.891  24.714  26.281  0.1067  0.0741 -0.0511
57362DOD     C215906   1.729  24.851  25.846 -0.3282  0.2745 -0.0682
57362DOD     C315907   2.037  24.793  25.420  0.2067  0.1720  0.0829
57363DOD     C115908   1.849  22.070  20.204  0.4075  0.0158 -0.0084
57363DOD     C215909   2.022  21.847  20.604 -0.1031 -0.3889  0.4082
57363DOD     C315910   1.954  21.691  21.033 -0.0311 -0.1228 -0.0947
57364DOD     C115911  11.730  24.873  16.421  0.0538  0.0962  0.0378
57364DOD     C215912  11.853  25.312  16.573  0.0558  0.1800  0.1315
57364DOD     C315913  12.046  25.675  16.648  0.3742  0.0956 -0.2068
57365DOD     C115914  29.636  15.975  29.729 -0.0271  0.2893  0.1470
57365DOD     C215915  29.603  16.210  30.157 -0.0311 -0.2018 -0.3036
57365DOD     C315916  29.447  16.645  30.215 -0.3145 -0.0455 -0.0069
57366DOD     C115917  21.878   9.976   5.863 -0.0887 -0.1773 -0.1681
57366DOD     C215918  21.980  10.344   6.142  0.1518  0.3894  0.1609
57366DOD     C315919  21.891  10.757   6.104 -0.1876 -0.5059 -0.2359
57367DOD     C115920  18.997  13.976  27.030 -0.2046  0.1699 -0.1070
57367DOD     C215921  18.602  13.889  27.231 -0.0650  0.2634 -0.1667
57367DOD     C315922  18.410  13.748  27.617  0.3673 -0.1557 -0.1243
57368DOD     C115923   5.575  17.833   4.425  0.1369  0.2296 -0.0515
57368DOD     C215924   5.439  17.547   4.695  0.3239  0.2454 -0.2010
57368DOD     C315925   5.768  17.206   4.877  0.1357 -0.1780 -0.1394
57369DOD     C115926   1.823  27.092  15.535  0.0237 -0.1257  0.2145
57369DOD     C215927   1.377  27.242  15.372 -0.0944 -0.0455 -0.1851
57369DOD     C315928   0.897  27.096  15.367 -0.0111  0.0851 -0.3774
57370DOD     C115929   2.793  24.596  26.163  0.1800  0.1696  0.0180
57370DOD     C215930   2.886  25.074  26.077 -0.1756 -0.2542 -0.1345
57370DOD     C315931   2.947  25.510  26.200  0.1716  0.1341  0.3110
57371DOD     C115932   3.247  29.909  27.268 -0.4002 -0.0958  0.0845
57371DOD     C215933   3.668  30.145  27.233  0.0808 -0.1538 -0.1330
57371DOD     C315934   4.050  30.242  26.939  0.2412  0.0875  0.3978
57372DOD     C115935  11.916  22.822  23.144 -0.2234  0.3236  0.0583
57372DOD     C215936  11.923  23.016  22.733  0.0912  0.0154 -0.0649
57372DOD     C315937  12.277  22.896  22.356 -0.2804  0.0183  0.0690
57373DOD     C115938   1.028  15.558  22.317  0.0985 -0.2250  0.0196
57373DOD     C215939   1.253  15.179  22.145  0.1137 -0.0272  0.2487
57373DOD     C315940   1.366  15.088  21.688  0.2922 -0.1719  0.0487
57374DOD     C115941  14.122   7.657   8.823  0.2744  0.4343 -0.2288
57374DOD     C215942  14.187   7.218   8.955 -0.1219 -0.0535 -0.1930
57374DOD     C315943  14.185   6.912   9.330 -0.1691  0.0101  0.0700
57375DOD     C115944  19.414  17.548  10.366  0.1043 -0.0990  0.2126
57375DOD     C215945  19.693  17.215  10.452  0.0105  0.0321  0.1118
57375DOD     C315946  20.141  17.229  10.551 -0.1814  0.1713 -0.1206
57376DOD     C115947   9.874  17.416  15.779 -0.1577 -0.0544 -0.1721
57376DOD     C215948   9.567  17.722  15.645  0.2905  0.1480  0.4394
57376DOD     C315949   9.207  17.961  15.486 -0.0444 -0.1109  0.0735
57377DOD     C115950   2.953  15.215  26.268 -0.0365  0.1624  0.2850
57377DOD     C215951   2.935  15.328  26.714 -0.0486  0.4281 -0.3092
57377DOD     C315952   3.241  15.348  27.019  0.1282  0.4326 -0.0352
57378DOD     C115953   0.328  17.677  26.778 -0.0215  0.1729 -0.0612
57378DOD     C215954   0.232  17.413  27.146 -0.1174  0.2715  0.0502
57378DOD     C315955  30.325  17.167  27.552  0.2469  0.0383 -0.0420
57379DOD     C115956  26.815  23.232  16.871  0.0134  0.0205 -0.0336
57379DOD     C215957  26.370  23.136  17.100 -0.0666 -0.2572 -0.2111
57379DOD     C315958  25.853  23.047  17.085  0.0053  0.1988  0.0819
57380DOD     C115959   7.242  22.121   5.901 -0.2464 -0.0477  0.2593
57380DOD     C215960   7.508  22.532   5.872 -0.0684  0.1064 -0.2098
57380DOD     C315961   7.762  22.729   6.216 -0.3043 -0.1275 -0.0844
57381DOD     C115962  18.149  29.139  13.707 -0.1497  0.0019  0.0079
57381DOD     C215963  18.093  29.478  13.975  0.2308 -0.1016 -0.0634
57381DOD     C315964  17.902  29.797  14.283 -0.0135 -0.0533  0.0821
57382DOD     C115965   2.735  20.166   3.374 -0.1541 -0.0577  0.0515
57382DOD     C215966   2.483  20.326   3.727  0.0027 -0.1936 -0.1206
57382DOD     C315967   2.235  20.433   4.124  0.1281  0.3212 -0.4348
57383DOD     C115968   7.898  19.039  30.271 -0.0210 -0.1011  0.2773
57383DOD     C215969   8.100  18.692  30.162  0.3024  0.1215  0.2196
57383DOD     C315970   8.269  18.313  30.114 -0.0480 -0.3154  0.0758
57384DOD     C115971  17.544   0.366  17.788 -0.0490 -0.1493 -0.2377
57384DOD     C215972  17.896   0.715  17.876  0.1099  0.0183  0.3367
57384DOD     C315973  18.134   0.841  18.256 -0.0933  0.0302 -0.1735
57385DOD     C115974   8.304   5.311  16.257 -0.3263  0.1330  0.0125
57385DOD     C215975   8.605   4.925  16.395  0.1307 -0.0875 -0.1304
57385DOD     C315976   8.875   4.616  16.198  0.1207 -0.2183 -0.1671
57386DOD     C115977   0.076  18.295  13.876 -0.0885  0.0276 -0.0760
57386DOD     C215978   0.502  18.234  13.820  0.0917  0.0389 -0.1356
57386DOD     C315979   0.736  17.986  14.138  0.1757  0.0355 -0.0867
57387DOD     C115980  20.068  12.834   2.595 -0.3688 -0.1968 -0.2844
57387DOD     C215981  20.491  12.827   2.594  0.1623  0.2185  0.1542
57387DOD     C315982  20.935  12.688   2.618  0.1608  0.1638 -0.1646
57388DOD     C115983   1.273  24.179  17.081 -0.0444  0.0013  0.1105
57388DOD     C215984   1.195  24.096  16.613  0.0347  0.2765 -0.0023
57388DOD     C315985   1.531  24.045  16.363 -0.0561  0.1099  0.1790
57389DOD     C115986   5.024   8.263   1.060 -0.0683 -0.0122  0.0089
57389DOD     C215987   5.046   8.744   0.978  0.4533 -0.3410  0.4158
57389DOD     C315988   5.223   9.113   0.734 -0.0584 -0.2142  0.2237
57390DOD     C115989   5.243  19.827   0.290  0.0061 -0.0151 -0.1368
57390DOD     C215990   5.049  19.518   0.645  0.2023  0.1073 -0.0968
57390DOD     C315991   4.910  19.200   0.980 -0.1553  0.0622  0.1238
57391DOD     C115992   7.476  22.785  24.772  0.0814  0.0788 -0.1379
57391DOD     C215993   7.324  22.336  24.906  0.1005 -0.2166 -0.0005
57391DOD     C315994   7.585  21.965  24.898  0.0661 -0.0577  0.4011
57392DOD     C115995   6.019   7.723   8.302 -0.0922  0.1282 -0.4470
57392DOD     C215996   6.172   7.291   8.172  0.0164 -0.2188 -0.2661
57392DOD     C315997   6.314   6.885   8.356  0.1670 -0.4409  0.2920
57393DOD     C115998  27.136   5.851   7.947 -0.0559  0.0469 -0.0616
57393DOD     C215999  27.150   6.271   8.117  0.0526 -0.3056 -0.1705
57393DOD     C316000  27.164   6.733   7.924 -0.0048  0.2521 -0.0354
57394DOD     C116001  13.146  15.721  13.976  0.1262 -0.4410 -0.1194
57394DOD     C216002  12.745  15.553  14.046  0.1538 -0.3451  0.0763
57394DOD     C316003  12.301  15.489  14.217 -0.4546 -0.2022  0.0363
57395DOD     C116004   3.796  28.629   0.733 -0.0143 -0.2082 -0.3426
57395DOD     C216005   3.835  29.032   0.979  0.1494  0.0648 -0.1665
57395DOD     C316006   4.198  29.107   1.289 -0.2090 -0.1692  0.1537
57396DOD     C116007  11.187   7.164  14.900  0.2256 -0.2123 -0.0953
57396DOD     C216008  11.364   6.762  14.829  0.2974  0.1715 -0.4450
57396DOD     C316009  11.569   6.379  14.587  0.0289  0.2315 -0.0231
57397DOD     C116010   2.722  21.938  25.599  0.1182  0.2655 -0.1588
57397DOD     C216011   2.784  22.301  25.895  0.1333  0.2371  0.0738
57397DOD     C316012   2.924  22.730  26.054  0.1231 -0.3506 -0.4241
57398DOD     C116013  15.084   4.355  13.851 -0.0574  0.0951  0.1302
57398DOD     C216014  14.662   4.143  13.781 -0.1081 -0.1575  0.0938
57398DOD     C316015  14.216   4.349  13.887 -0.0723 -0.1159 -0.3600
57399DOD     C116016  16.984  29.803   8.173  0.3913 -0.0179  0.3150
57399DOD     C216017  16.515  29.819   8.335  0.0282 -0.0201  0.1617
57399DOD     C316018  16.150  29.870   8.534  0.3319  0.0329 -0.1891
57400DOD     C116019   1.704   7.790  18.057 -0.1694 -0.2778  0.1590
57400DOD     C216020   1.291   8.014  18.157 -0.0425  0.0022  0.0383
57400DOD     C316021   0.837   8.000  18.286 -0.0580 -0.1268  0.0241
57401DOD     C116022  19.380   3.241  10.238  0.3040  0.2398 -0.0301
57401DOD     C216023  19.670   3.521  10.057  0.3051  0.2010 -0.2910
57401DOD     C316024  20.079   3.683  10.042 -0.4527  0.2677  0.1225
57402DOD     C116025   7.792  14.417  26.960  0.3539  0.2031 -0.0876
57402DOD     C216026   7.506  14.419  26.594 -0.0832  0.1176  0.3065
57402DOD     C316027   7.180  14.648  26.359  0.0524  0.0990  0.2751
57403DOD     C116028  21.057  22.137  11.783  0.1044 -0.1716 -0.0319
57403DOD     C216029  20.660  22.361  11.878  0.1555 -0.3040 -0.0337
57403DOD     C316030  20.381  22.729  11.932  0.4754 -0.1494 -0.0404
57404DOD     C116031   1.362   7.601   8.222 -0.3870 -0.1731  0.1057
57404DOD     C216032   1.179   7.315   8.438  0.0629 -0.3615  0.0920
57404DOD     C316033   0.820   7.070   8.341 -0.1074  0.0083 -0.1399
57405DOD     C116034   2.223   4.364  10.385 -0.0706 -0.3408  0.1163
57405DOD     C216035   1.918   4.702  10.276  0.0534 -0.0939 -0.2278
57405DOD     C316036   1.774   4.907   9.906 -0.3950  0.3189 -0.2092
57406DOD     C116037  26.757  19.494   7.591  0.0113 -0.0466  0.1215
57406DOD     C216038  26.989  19.835   7.795 -0.2135 -0.2000 -0.0684
57406DOD     C316039  27.223  20.166   8.038 -0.2038  0.0363 -0.0175
57407DOD     C116040  19.000  27.575  22.108  0.1504  0.2170  0.0441
57407DOD     C216041  18.840  27.840  22.442  0.1066  0.0705  0.1746
57407DOD     C316042  18.954  28.341  22.515  0.1675 -0.3218  0.0843
57408DOD     C116043   5.674  17.363  12.080 -0.0878  0.1378  0.1562
57408DOD     C216044   5.667  17.718  11.777 -0.3711 -0.2028 -0.1740
57408DOD     C316045   5.964  18.112  11.835  0.2170  0.2740 -0.1043
57409DOD     C116046  13.206  16.599  13.178 -0.0516  0.3764 -0.0037
57409DOD     C216047  13.274  17.041  13.287  0.1975 -0.2836 -0.3570
57409DOD     C316048  13.217  17.537  13.161  0.0386  0.1232 -0.2221
57410DOD     C116049  23.021   1.312  18.788 -0.1446 -0.1024 -0.1181
57410DOD     C216050  22.935   1.654  18.413 -0.1044 -0.0149  0.0365
57410DOD     C316051  22.870   1.761  17.977 -0.2149 -0.0729  0.3932
57411DOD     C116052  15.016  19.199   2.718  0.3243  0.3138  0.2182
57411DOD     C216053  15.027  18.830   2.979  0.2057  0.0414 -0.1100
57411DOD     C316054  15.150  18.434   2.808 -0.3155  0.2091 -0.0110
57412DOD     C116055   7.766   9.115  10.032  0.1277 -0.1898  0.2338
57412DOD     C216056   7.712   9.373   9.635 -0.1464  0.0332  0.0792
57412DOD     C316057   7.669   9.408   9.146 -0.0828  0.1135 -0.0084
57413DOD     C116058  15.197  29.983  17.837 -0.0739 -0.0184 -0.0414
57413DOD     C216059  14.976  29.592  17.798 -0.1059 -0.1587 -0.0916
57413DOD     C316060  14.927  29.116  17.861  0.0938 -0.3052 -0.1333
57414DOD     C116061  22.272  27.205  17.874 -0.0279 -0.2733  0.4380
57414DOD     C216062  22.470  26.856  18.091 -0.2823 -0.1566 -0.2374
57414DOD     C316063  22.770  26.577  18.375 -0.0808  0.1348  0.3039
57415DOD     C116064  20.739  16.694  21.134 -0.0905  0.1390 -0.0371
57415DOD     C216065  20.800  17.103  21.280  0.1347 -0.2757 -0.1884
57415DOD     C316066  21.095  17.496  21.229  0.1948 -0.0712 -0.1099
57416DOD     C116067   8.743  22.085   5.354  0.1270  0.1174  0.2315
57416DOD     C216068   8.368  21.828   5.445 -0.0183  0.1442  0.2634
57416DOD     C316069   7.996  21.473   5.490  0.0910 -0.0706  0.0435
57417DOD     C116070   3.489   1.988  22.329 -0.1619 -0.0739 -0.0825
57417DOD     C216071   3.957   2.044  22.207 -0.1246 -0.3157  0.2796
57417DOD     C316072   4.321   2.175  22.513  0.1820 -0.0735  0.2404
57418DOD     C116073   0.243  25.646  26.753  0.0598  0.1156  0.1811
57418DOD     C216074   0.129  25.201  26.581  0.1237 -0.2971 -0.2013
57418DOD     C316075   0.248  24.818  26.318 -0.1719 -0.0610 -0.0027
57419DOD     C116076   5.366  16.105   2.620  0.2534  0.0373  0.2503
57419DOD     C216077   4.908  16.148   2.773 -0.5871  0.1205 -0.2959
57419DOD     C316078   4.451  16.301   2.904  0.2260 -0.1405 -0.1539
57420DOD     C116079  29.289  15.988  25.971 -0.0202 -0.1416  0.0973
57420DOD     C216080  28.883  15.811  26.043 -0.2271  0.5517 -0.0931
57420DOD     C316081  28.592  15.555  25.787 -0.2585 -0.1865  0.3747
57421DOD     C116082  23.446  14.461  26.512 -0.0361  0.0465 -0.0643
57421DOD     C216083  23.038  14.769  26.725  0.1298 -0.0821  0.1483
57421DOD     C316084  22.699  14.608  27.052  0.0662 -0.1298  0.0638
57422DOD     C116085  13.880  10.078  20.236 -0.1492 -0.0594  0.0729
57422DOD     C216086  14.077   9.698  20.005 -0.1267  0.0535  0.1845
57422DOD     C316087  14.408   9.629  19.583  0.0825 -0.0912 -0.2413
57423DOD     C116088   2.371  25.361  28.197  0.0376 -0.0668  0.0329
57423DOD     C216089   2.133  25.272  28.600 -0.0991  0.2942  0.1105
57423DOD     C316090   1.727  25.225  28.800 -0.1766  0.0520  0.0999
57424DOD     C116091  10.607   4.540  21.809  0.4416  0.0355 -0.1419
57424DOD     C216092  10.792   4.614  22.225  0.0738 -0.0716  0.2266
57424DOD     C316093  10.878   4.396  22.627  0.1450  0.0710  0.4576
57425DOD     C116094  21.469  22.674  11.592  0.2229 -0.2326 -0.4676
57425DOD     C216095  21.374  22.224  11.407  0.4145  0.1164  0.1232
57425DOD     C316096  21.209  21.786  11.310  0.2762 -0.0561  0.0263
57426DOD     C116097  13.655  20.279  10.577 -0.0210  0.0029  0.0585
57426DOD     C216098  13.635  20.600  10.905 -0.0577 -0.1250 -0.2415
57426DOD     C316099  13.543  21.061  10.774  0.1632 -0.0396 -0.0327
57427DOD     C116100  15.121  27.414  24.707  0.0919 -0.0108  0.0658
57427DOD     C216101  15.056  27.524  25.124 -0.2054 -0.1280  0.0459
57427DOD     C316102  14.713  27.470  25.424  0.1538  0.1722  0.0974
57428DOD     C116103   7.008   5.307  29.163  0.0580  0.0270  0.0540
57428DOD     C216104   6.700   5.041  28.944  0.3472  0.0744 -0.2276
57428DOD     C316105   6.295   4.994  28.707 -0.0950  0.2017  0.0543
57429DOD     C116106   1.204   3.954   0.365 -0.2386  0.1162 -0.1645
57429DOD     C216107   1.534   3.727   0.042  0.2755  0.1494 -0.0345
57429DOD     C316108   1.853   3.773  29.998 -0.3371  0.1066  0.1755
57430DOD     C116109   7.083   7.745  27.198 -0.2831  0.0884  0.1627
57430DOD     C216110   7.445   7.789  26.843  0.0377 -0.1293 -0.0482
57430DOD     C316111   7.734   7.996  26.514 -0.0177 -0.0407  0.3305
57431DOD     C116112   5.548  10.444   3.269 -0.1603  0.0189  0.0630
57431DOD     C216113   5.682  10.828   3.265 -0.2425  0.0876  0.0021
57431DOD     C316114   5.897  11.274   3.252 -0.1283  0.0090  0.0468
57432DOD     C116115  19.073   3.948  13.210  0.0497  0.3205 -0.1653
57432DOD     C216116  18.738   4.044  12.945 -0.3036 -0.1263 -0.0393
57432DOD     C316117  18.270   3.946  12.791 -0.1512 -0.1749 -0.1465
57433DOD     C116118   7.269   1.201  13.685  0.0398 -0.0940 -0.4131
57433DOD     C216119   6.867   1.202  13.401  0.1474  0.2439  0.0399
57433DOD     C316120   6.635   1.256  13.022  0.2544 -0.0093  0.1625
57434DOD     C116121  16.016  28.234  16.971 -0.1787 -0.1267 -0.0669
57434DOD     C216122  15.789  27.877  16.800  0.0324 -0.2324 -0.0928
57434DOD     C316123  15.390  27.952  16.571 -0.0445  0.0177  0.0883
57435DOD     C116124  28.399  23.493  15.407 -0.2209 -0.2458  0.1939
57435DOD     C216125  28.417  23.542  15.922  0.1054 -0.2558 -0.2376
57435DOD     C316126  28.526  23.668  16.361  0.1871  0.3935  0.1429
57436DOD     C116127  10.912  23.673  23.412 -0.0060  0.1239  0.1280
57436DOD     C216128  11.127  23.768  23.003 -0.1735 -0.4889  0.0455
57436DOD     C316129  11.003  23.639  22.575 -0.2605  0.4160 -0.0861
57437DOD     C116130  23.762   3.821   9.928 -0.2129 -0.2972  0.2734
57437DOD     C216131  23.517   3.600  10.227  0.1291  0.0399 -0.3278
57437DOD     C316132  23.447   3.230  10.533  0.0501 -0.2209  0.1939
57438DOD     C116133  13.573   2.874  12.441  0.1700 -0.0426  0.0225
57438DOD     C216134  13.859   2.690  12.120  0.0736  0.1934 -0.0270
57438DOD     C316135  13.927   2.352  11.865 -0.1519  0.1128 -0.2844
57439DOD     C116136  22.889  10.203  22.250  0.0415  0.1148 -0.2411
57439DOD     C216137  22.588   9.876  22.271 -0.0546  0.0540  0.1414
57439DOD     C316138  22.398   9.495  22.089  0.1504  0.3508  0.2127
57440DOD     C116139  12.791  20.464   8.323 -0.3045 -0.2516 -0.3102
57440DOD     C216140  12.520  20.705   8.687  0.0849  0.0830  0.1435
57440DOD     C316141  12.136  20.915   8.565 -0.0686 -0.1310  0.3533
57441DOD     C116142  14.006  28.389   3.038 -0.0629  0.4197  0.4692
57441DOD     C216143  14.172  28.616   2.657 -0.0992 -0.4231  0.2705
57441DOD     C316144  14.129  28.897   2.263 -0.0544  0.0494  0.0335
57442DOD     C116145  24.598  17.526  15.584  0.0361  0.0469  0.0600
57442DOD     C216146  24.848  17.151  15.558  0.3167 -0.1545 -0.0332
57442DOD     C316147  25.291  17.207  15.415  0.1940 -0.0580  0.1613
57443DOD     C116148  25.956   6.278  11.527  0.2411 -0.0902  0.1734
57443DOD     C216149  25.610   5.967  11.336  0.0070  0.2995 -0.1048
57443DOD     C316150  25.313   5.628  11.172  0.0278  0.3142  0.1990
57444DOD     C116151  21.966   9.342   1.216 -0.3388 -0.1442  0.0259
57444DOD     C216152  22.275   9.438   0.886 -0.1917  0.1452  0.0687
57444DOD     C316153  22.600   9.653   0.555 -0.1321 -0.3094 -0.2519
57445DOD     C116154  24.192  27.597  13.919 -0.2419 -0.0577  0.1902
57445DOD     C216155  24.254  27.644  14.381  0.0269 -0.2544  0.2762
57445DOD     C316156  24.200  27.740  14.850 -0.0900 -0.1090 -0.0849
57446DOD     C116157  27.792   3.123  28.191  0.1570  0.0207 -0.2786
57446DOD     C216158  27.535   2.875  28.478  0.3870  0.1772 -0.2382
57446DOD     C316159  27.085   2.772  28.714  0.0153 -0.2174  0.1559
57447DOD     C116160  27.299  13.132  23.252 -0.1287  0.2681 -0.1163
57447DOD     C216161  27.329  13.427  23.630  0.0012  0.3159  0.0125
57447DOD     C316162  27.283  13.482  24.096 -0.0157 -0.3748 -0.0460
57448DOD     C116163   3.837  20.852   3.525 -0.1645 -0.2105  0.1132
57448DOD     C216164   4.245  20.652   3.351  0.1213  0.1474  0.0265
57448DOD     C316165   4.657  20.824   3.333  0.0951  0.0553  0.1083
57449DOD     C116166   7.486  14.633   4.338  0.1071  0.4847 -0.0538
57449DOD     C216167   7.497  15.108   4.313  0.0872  0.2661 -0.0155
57449DOD     C316168   7.572  15.552   4.366 -0.0850  0.1938 -0.0918
57450DOD     C116169   6.496  18.876  29.728 -0.0070  0.1316 -0.0211
57450DOD     C216170   6.802  18.902  30.093 -0.4365  0.0081  0.0425
57450DOD     C316171   6.991  19.194   0.127 -0.0306  0.1883 -0.0361
57451DOD     C116172  17.564   9.436  14.372 -0.0618 -0.3480 -0.1903
57451DOD     C216173  17.779   9.807  14.259  0.1234 -0.4043  0.0978
57451DOD     C316174  17.661  10.125  13.909 -0.0635 -0.0072 -0.4001
57452DOD     C116175   9.761  16.543  11.074  0.1334  0.0953  0.0061
57452DOD     C216176   9.693  16.081  11.007 -0.3559  0.1790  0.0655
57452DOD     C316177  10.090  15.830  11.058  0.0997 -0.4291  0.2563
57453DOD     C116178   4.011  19.225  26.564  0.0407  0.4019  0.2192
57453DOD     C216179   3.846  19.119  26.149  0.1078 -0.0307  0.1101
57453DOD     C316180   3.658  18.753  25.871 -0.5470  0.3487 -0.1406
57454DOD     C116181  15.853  24.706   7.548  0.0697 -0.3875 -0.1412
57454DOD     C216182  15.974  24.671   7.101 -0.0835  0.0142  0.0876
57454DOD     C316183  15.867  24.663   6.654  0.0001 -0.3502 -0.3726
57455DOD     C116184   6.546  29.674  27.436 -0.1767 -0.1763 -0.3566
57455DOD     C216185   6.568  29.170  27.514 -0.1242 -0.2958  0.3465
57455DOD     C316186   6.790  28.851  27.294 -0.0553 -0.4473 -0.1136
57456DOD     C116187  24.937  17.869  26.358 -0.1461 -0.1169 -0.0857
57456DOD     C216188  25.315  17.577  26.278  0.0763  0.0645  0.3795
57456DOD     C316189  25.747  17.549  26.067 -0.1183  0.0604  0.2445
57457DOD     C116190   1.437   1.888  10.160 -0.0880 -0.3078 -0.0428
57457DOD     C216191   1.761   1.912   9.833  0.2302  0.0863 -0.2830
57457DOD     C316192   1.881   1.839   9.366 -0.0254 -0.0258  0.1844
57458DOD     C116193  25.760  13.790   7.826 -0.0418  0.0202  0.2484
57458DOD     C216194  25.655  14.236   7.834  0.0088 -0.2239 -0.1773
57458DOD     C316195  25.520  14.656   7.937  0.0391 -0.1024  0.0845
57459DOD     C116196  26.039   4.343   6.640  0.2285  0.0624 -0.0458
57459DOD     C216197  25.745   4.784   6.556  0.2594  0.2376 -0.0584
57459DOD     C316198  25.478   5.032   6.866 -0.0261 -0.1106  0.5157
57460DOD     C116199  15.015  14.183   7.588  0.0820 -0.0173 -0.1448
57460DOD     C216200  14.871  14.639   7.494 -0.1440  0.1126 -0.0689
57460DOD     C316201  15.054  15.051   7.505  0.0032  0.0303  0.2161
57461DOD     C116202  25.688  13.592   8.267  0.0185  0.0602 -0.2214
57461DOD     C216203  25.533  14.012   8.308  0.1046 -0.1126 -0.0939
57461DOD     C316204  25.301  14.393   8.362 -0.0821 -0.1504  0.0337
57462DOD     C116205  16.645  17.890   3.968  0.1917 -0.1113 -0.1235
57462DOD     C216206  16.958  18.189   4.173  0.0355  0.2164  0.4018
57462DOD     C316207  17.286  18.403   3.947 -0.3672 -0.1894  0.4007
57463DOD     C116208  17.704   2.592  26.682  0.1266 -0.2838  0.0467
57463DOD     C216209  17.942   2.720  26.293 -0.1199  0.1272  0.2662
57463DOD     C316210  18.036   2.994  25.956 -0.3647  0.3484  0.1626
57464DOD     C116211   7.532  27.888  17.730  0.1935  0.1854 -0.0535
57464DOD     C216212   7.831  27.569  17.884  0.1971 -0.2588  0.0740
57464DOD     C316213   8.094  27.332  18.200  0.3137  0.1968  0.0979
57465DOD     C116214  13.157   2.826  16.589 -0.2030 -0.1133 -0.0799
57465DOD     C216215  13.227   3.195  16.953 -0.1643  0.4090 -0.0832
57465DOD     C316216  13.328   3.608  16.865  0.1660 -0.2323 -0.1044
57466DOD     C116217   6.222   9.588   9.826 -0.1541  0.2409 -0.2162
57466DOD     C216218   5.867   9.266   9.951 -0.1585  0.1758 -0.0493
57466DOD     C316219   5.599   8.913  10.147 -0.1837 -0.3140 -0.2817
57467DOD     C116220  24.993   7.103   7.021  0.0048 -0.1610  0.0983
57467DOD     C216221  24.836   7.408   6.662 -0.0876  0.1349  0.0695
57467DOD     C316222  24.562   7.743   6.516  0.0342 -0.0491  0.0142
57468DOD     C116223  28.013   1.560  23.303 -0.0395  0.0271  0.0195
57468DOD     C216224  27.980   1.294  22.921 -0.1407 -0.0907 -0.0729
57468DOD     C316225  28.115   1.113  22.514  0.1887  0.2466  0.0567
57469DOD     C116226  27.461  12.090  23.477 -0.1879 -0.1898  0.1327
57469DOD     C216227  27.426  12.303  23.015 -0.1731 -0.0252 -0.1617
57469DOD     C316228  27.123  12.318  22.663 -0.1518 -0.1814 -0.0927
57470DOD     C116229   8.923   4.573   8.596 -0.3780 -0.0217  0.2533
57470DOD     C216230   8.591   4.804   8.801  0.1003 -0.1639  0.1479
57470DOD     C316231   8.169   4.928   8.766  0.1007 -0.4720  0.2269
57471DOD     C116232  15.777   5.704  16.039 -0.1858 -0.3255 -0.2169
57471DOD     C216233  16.238   5.616  15.862 -0.1026  0.5187  0.1600
57471DOD     C316234  16.710   5.725  15.889 -0.1093 -0.1733 -0.2143
57472DOD     C116235  15.356  20.156  15.716 -0.2521  0.2494  0.0259
57472DOD     C216236  15.379  20.599  15.483 -0.1120 -0.0514  0.0799
57472DOD     C316237  15.512  21.024  15.389 -0.0776  0.0835 -0.0695
57473DOD     C116238  25.361   6.967  28.155  0.1513 -0.3811  0.0307
57473DOD     C216239  25.741   6.730  28.207 -0.3206 -0.0921  0.2085
57473DOD     C316240  26.178   6.664  28.196 -0.3233  0.0606  0.2215
57474DOD     C116241  26.551  24.746  22.515  0.1010 -0.1937 -0.1083
57474DOD     C216242  26.117  24.897  22.570 -0.1037 -0.0761  0.0040
57474DOD     C316243  25.680  24.939  22.802  0.0856 -0.2242  0.4310
57475DOD     C116244  25.329  19.572  30.348 -0.1311  0.1774  0.1944
57475DOD     C216245  25.323  19.150  30.303 -0.4113 -0.1325 -0.0346
57475DOD     C316246  25.599  18.831   0.171  0.0150 -0.2980 -0.1104
57476DOD     C116247  25.701   4.977  26.824  0.1233 -0.0935 -0.0686
57476DOD     C216248  26.036   5.226  26.993 -0.0168 -0.2004 -0.1714
57476DOD     C316249  26.397   5.091  27.274  0.0617 -0.0017  0.2302
57477DOD     C116250  18.066   9.875  25.493  0.2083 -0.1311  0.0167
57477DOD     C216251  18.134   9.591  25.873  0.1179  0.0015 -0.0218
57477DOD     C316252  18.053   9.234  26.157  0.0033  0.3901  0.3695
57478DOD     C116253   3.748   4.878   9.631  0.2541  0.1077  0.1634
57478DOD     C216254   3.620   4.919   9.216  0.3066 -0.4333  0.2300
57478DOD     C316255   3.519   5.304   8.990  0.3245  0.2036  0.0732
57479DOD     C116256  29.567   5.644  12.545 -0.0272  0.1219  0.1561
57479DOD     C216257  29.373   5.443  12.082  0.1571  0.2459  0.1844
57479DOD     C316258  29.177   5.340  11.665 -0.1526 -0.2305  0.0808
57480DOD     C116259  18.615  20.873   5.875  0.1374  0.1752 -0.1698
57480DOD     C216260  18.195  20.782   5.634  0.1618  0.5563  0.3187
57480DOD     C316261  17.871  20.653   5.277  0.2226 -0.0891 -0.2359
57481DOD     C116262   1.232  16.917  22.588 -0.4779  0.1244 -0.0696
57481DOD     C216263   1.145  17.367  22.580 -0.2762 -0.4514  0.0981
57481DOD     C316264   0.983  17.781  22.686 -0.1784 -0.2095 -0.0088
57482DOD     C116265   9.615  18.487   5.752 -0.1154  0.0946 -0.1385
57482DOD     C216266   9.706  18.049   5.908 -0.0753 -0.2321  0.0000
57482DOD     C316267   9.478  17.726   5.974 -0.2767  0.0751  0.1867
57483DOD     C116268  14.651   1.454  17.823  0.0640  0.3770 -0.1764
57483DOD     C216269  15.026   1.219  17.863 -0.0460  0.0755 -0.0281
57483DOD     C316270  15.222   0.845  17.638  0.0791  0.1715 -0.0693
57484DOD     C116271  11.938   9.620   9.272  0.1551  0.1011  0.1202
57484DOD     C216272  11.664   9.925   9.027  0.1139  0.1488  0.0422
57484DOD     C316273  11.296  10.150   8.949 -0.0743 -0.1571  0.0836
57485DOD     C116274   3.330  23.781   6.741 -0.4907 -0.3284  0.1528
57485DOD     C216275   3.775  23.778   6.699 -0.0839 -0.1551 -0.1410
57485DOD     C316276   4.166  23.753   6.992  0.2416  0.0040 -0.0217
57486DOD     C116277  29.174  22.807  18.285  0.1023  0.1231 -0.0888
57486DOD     C216278  29.513  22.885  17.984  0.4420 -0.1362 -0.1918
57486DOD     C316279  29.650  22.702  17.577 -0.0841 -0.1355 -0.3432
57487DOD     C116280   3.107  22.996  28.358 -0.0414 -0.1874 -0.1411
57487DOD     C216281   2.668  22.817  28.218 -0.1912  0.0311 -0.1816
57487DOD     C316282   2.350  22.784  27.824 -0.3751 -0.0476  0.0677
57488DOD     C116283  15.617  17.544   7.412  0.1603 -0.1591  0.5895
57488DOD     C216284  15.415  17.358   7.779 -0.0394  0.1011  0.2336
57488DOD     C316285  15.471  17.223   8.233  0.0190  0.1092  0.1477
57489DOD     C116286   7.446  29.932   5.676 -0.0254  0.4163 -0.0751
57489DOD     C216287   7.916  29.957   5.801  0.3723  0.0188  0.2369
57489DOD     C316288   8.157  29.808   6.136  0.2422  0.2904  0.3249
57490DOD     C116289   2.613   6.923  17.831  0.2089  0.0382  0.0080
57490DOD     C216290   2.711   6.617  17.488  0.0535  0.0722 -0.2837
57490DOD     C316291   2.502   6.399  17.144  0.2018  0.1439 -0.0977
57491DOD     C116292   0.105  22.351  14.937 -0.2401 -0.0187 -0.3072
57491DOD     C216293   0.477  22.604  15.205  0.2102 -0.0310  0.1642
57491DOD     C316294   0.820  22.882  15.230 -0.0241 -0.0028  0.0628
57492DOD     C116295   8.707  16.113  14.617  0.0841 -0.3733  0.2103
57492DOD     C216296   9.080  15.958  14.310 -0.0619  0.0440 -0.0331
57492DOD     C316297   9.559  15.911  14.182  0.1934  0.0796  0.2978
57493DOD     C116298   6.891   7.933   2.278 -0.0412  0.1496 -0.1269
57493DOD     C216299   7.103   7.896   2.713  0.0324  0.1667  0.0931
57493DOD     C316300   7.522   7.904   2.906 -0.1512 -0.3029 -0.0440
57494DOD     C116301  21.177  20.652  10.066 -0.1094  0.3158 -0.1052
57494DOD     C216302  21.217  20.511   9.611  0.0542 -0.2640 -0.3489
57494DOD     C316303  20.962  20.308   9.397 -0.2232 -0.0414  0.2504
57495DOD     C116304   2.219  27.727   1.018 -0.1571 -0.1352 -0.0948
57495DOD     C216305   1.801  27.901   0.885  0.0924 -0.3446 -0.1947
57495DOD     C316306   1.321  27.956   0.847  0.1808 -0.1410  0.1931
57496DOD     C116307   0.260   8.310  14.593  0.0433 -0.0506 -0.0592
57496DOD     C216308   0.404   8.394  15.057  0.0108  0.0093 -0.0861
57496DOD     C316309   0.512   8.251  15.540  0.1585 -0.0329 -0.2667
57497DOD     C116310  17.280   6.866  10.685 -0.0378  0.1378 -0.0563
57497DOD     C216311  17.470   6.979  10.263 -0.4892  0.3573 -0.3289
57497DOD     C316312  17.372   6.776   9.823 -0.1119 -0.0250  0.1271
57498DOD     C116313  13.026   1.769  23.190 -0.1791 -0.0066 -0.2532
57498DOD     C216314  13.387   1.510  23.208  0.3113  0.0780 -0.0641
57498DOD     C316315  13.485   1.084  23.009  0.0667  0.0861  0.3115
57499DOD     C116316   8.854  24.065  28.101  0.0627 -0.0826  0.0931
57499DOD     C216317   8.971  23.634  28.221  0.1756 -0.0992 -0.0137
57499DOD     C316318   8.982  23.310  27.907  0.1504  0.2540  0.2610
57500DOD     C116319  11.891   9.660  27.345 -0.4048 -0.1306 -0.2144
57500DOD     C216320  11.702   9.570  27.784 -0.1477  0.0725 -0.1475
57500DOD     C316321  11.968   9.463  28.188  0.0260 -0.2316  0.3462
57501DOD     C116322  27.073  14.061   5.938 -0.1363  0.0583  0.0420
57501DOD     C216323  27.414  14.238   5.720  0.0040  0.2628 -0.3739
57501DOD     C316324  27.788  14.528   5.779  0.2761  0.0876 -0.0298
57502DOD     C116325   2.585  23.795  24.769  0.3405  0.2930 -0.1287
57502DOD     C216326   2.676  23.383  24.503  0.0881  0.0752  0.1337
57502DOD     C316327   2.470  23.076  24.287 -0.2551  0.4369 -0.0833
57503DOD     C116328  16.582   4.158  16.434 -0.0100  0.3425  0.2307
57503DOD     C216329  16.978   4.271  16.546 -0.1740  0.2307  0.1048
57503DOD     C316330  17.383   4.350  16.488 -0.1425  0.2188  0.0174
57504DOD     C116331   1.308  20.687   3.925  0.1231  0.1941 -0.2263
57504DOD     C216332   1.450  20.530   4.364 -0.0073  0.0325 -0.3974
57504DOD     C316333   1.337  20.826   4.711  0.3724  0.2672 -0.0005
57505DOD     C116334  20.665  10.724  13.221  0.0457 -0.0201  0.0229
57505DOD     C216335  21.093  10.775  12.986 -0.0117 -0.2808 -0.2028
57505DOD     C316336  21.400  10.827  12.665  0.1226  0.0023  0.2900
57506DOD     C116337  15.380  26.046   6.029 -0.3552  0.5608  0.0071
57506DOD     C216338  15.114  25.649   5.930 -0.3030  0.1322  0.0592
57506DOD     C316339  15.071  25.228   6.057 -0.0104 -0.1471 -0.0761
57507DOD     C116340   1.105  14.008  18.198 -0.2361 -0.0962  0.0444
57507DOD     C216341   1.328  14.283  18.513 -0.4771 -0.0113  0.1145
57507DOD     C316342   1.612  14.571  18.721  0.2650  0.1769  0.3435
57508DOD     C116343  13.015   2.587   1.308  0.1719 -0.0866 -0.2191
57508DOD     C216344  12.595   2.793   1.257  0.0823 -0.1222 -0.0673
57508DOD     C316345  12.220   2.732   1.027  0.0238 -0.1988 -0.3905
57509DOD     C116346  15.314   9.299   9.923 -0.0074  0.3377  0.6707
57509DOD     C216347  15.286   8.884  10.047  0.0289  0.0016  0.0863
57509DOD     C316348  15.216   8.438   9.898 -0.0812  0.0218 -0.0263
57510DOD     C116349  21.755  29.048   0.956  0.0526 -0.2729  0.0249
57510DOD     C216350  21.713  28.676   1.215  0.1129 -0.0919 -0.4114
57510DOD     C316351  21.580  28.402   1.559 -0.1145 -0.0478 -0.1104
57511DOD     C116352  17.551  25.800   7.909 -0.2715  0.1049  0.1396
57511DOD     C216353  17.582  25.337   8.053 -0.1905 -0.2028 -0.0251
57511DOD     C316354  17.613  24.888   8.040 -0.1581 -0.1445  0.0949
57512DOD     C116355  11.230   1.067  30.230 -0.3833 -0.0466  0.1570
57512DOD     C216356  11.557   1.231  29.868 -0.0829 -0.0910 -0.0119
57512DOD     C316357  11.588   1.169  29.379  0.0751  0.0359  0.2047
57513DOD     C116358  12.423  27.000  12.265 -0.0752  0.1133 -0.1865
57513DOD     C216359  12.352  27.455  12.252 -0.1280 -0.1223  0.0206
57513DOD     C316360  12.295  27.911  12.040 -0.1535 -0.1342  0.2043
57514DOD     C116361   9.532   8.974   9.395  0.1813 -0.1273  0.0097
57514DOD     C216362   9.679   8.510   9.447  0.0674 -0.3104  0.1441
57514DOD     C316363   9.890   8.066   9.584 -0.0324  0.1170 -0.2316
57515DOD     C116364  28.629  20.422  21.953  0.0554  0.0995 -0.1395
57515DOD     C216365  28.548  20.859  22.099  0.3622 -0.0928  0.0131
57515DOD     C316366  28.772  21.181  22.362 -0.1856  0.0658  0.1425
57516DOD     C116367  13.326  19.112  23.855 -0.0423  0.0319 -0.0350
57516DOD     C216368  13.515  18.796  24.126  0.0919 -0.2729 -0.0446
57516DOD     C316369  13.550  18.762  24.595 -0.2662 -0.0436  0.1548
57517DOD     C116370  28.124  26.476   5.054  0.0865  0.0746 -0.1653
57517DOD     C216371  27.977  26.953   4.950  0.0602 -0.0738  0.1402
57517DOD     C316372  27.813  27.349   5.134 -0.1108 -0.0659 -0.0170
57518DOD     C116373   6.799  23.163   6.279 -0.4265 -0.0843 -0.0481
57518DOD     C216374   6.415  23.166   6.542 -0.1560 -0.0602  0.1200
57518DOD     C316375   6.374  22.932   6.940 -0.5005  0.1360  0.1682
57519DOD     C116376  16.698  13.365   1.496  0.0887 -0.2989  0.1426
57519DOD     C216377  16.331  13.125   1.406  0.2089 -0.1079  0.1150
57519DOD     C316378  16.191  12.709   1.219  0.1457 -0.2699  0.2693
57520DOD     C116379  19.037  25.285  17.603 -0.0289 -0.1307  0.1159
57520DOD     C216380  18.947  24.873  17.524 -0.2581  0.2967 -0.1347
57520DOD     C316381  18.579  24.685  17.326  0.1065  0.0735  0.0930
57521DOD     C116382  13.932   3.801  12.612  0.2011  0.0016 -0.0592
57521DOD     C216383  13.482   3.671  12.631  0.0810  0.1901  0.0918
57521DOD     C316384  13.187   3.471  12.912  0.2841  0.1531  0.1949
57522DOD     C116385   4.630  27.860   5.770 -0.2786 -0.1627 -0.2766
57522DOD     C216386   4.321  27.802   6.083 -0.2876  0.2396  0.1669
57522DOD     C316387   4.100  27.519   6.423  0.0228 -0.0602  0.0627
57523DOD     C116388   9.888   5.311  29.674 -0.0454 -0.1759  0.0720
57523DOD     C216389   9.744   5.683  29.920 -0.2057  0.5900 -0.2340
57523DOD     C316390   9.641   6.124  29.769  0.1995  0.0382 -0.5714
57524DOD     C116391   1.729  18.394   3.706 -0.1760 -0.0845 -0.1769
57524DOD     C216392   1.593  18.434   4.150  0.1695  0.1501 -0.1100
57524DOD     C316393   1.304  18.089   4.326 -0.3135  0.2801 -0.2031
57525DOD     C116394  27.138   9.528  23.296 -0.0736  0.1485 -0.0326
57525DOD     C216395  26.797   9.818  23.155  0.1719 -0.0733  0.0593
57525DOD     C316396  26.527  10.122  23.411 -0.0408  0.2271 -0.0355
57526DOD     C116397  13.020   4.096  13.292 -0.2238  0.0549  0.0644
57526DOD     C216398  13.230   4.236  12.906 -0.1061 -0.0018  0.0786
57526DOD     C316399  13.353   4.191  12.459  0.0111  0.0199  0.0267
57527DOD     C116400   0.083  17.914  12.566 -0.2006 -0.1259 -0.0613
57527DOD     C216401  30.204  18.314  12.520  0.0558  0.1341 -0.0675
57527DOD     C316402  29.959  18.662  12.330  0.1411  0.2532  0.0054
57528DOD     C116403  24.613  12.128   0.533 -0.1400  0.2582 -0.0264
57528DOD     C216404  24.672  11.692   0.460 -0.0326  0.1142 -0.4100
57528DOD     C316405  24.943  11.455   0.755  0.0558  0.1772 -0.1712
57529DOD     C116406  12.099  12.628  10.452  0.0703 -0.0699  0.1529
57529DOD     C216407  12.451  12.493  10.206 -0.4128  0.3367 -0.3250
57529DOD     C316408  12.780  12.272  10.019 -0.1046 -0.0123  0.2633
57530DOD     C116409  26.959  12.620  27.292 -0.3878 -0.0366  0.2895
57530DOD     C216410  27.066  13.027  27.546 -0.1718 -0.1734 -0.0714
57530DOD     C316411  27.250  13.446  27.632 -0.2040 -0.2352  0.0582
57531DOD     C116412  15.613  13.729  20.909 -0.1260 -0.1561  0.0245
57531DOD     C216413  16.052  13.842  20.770 -0.2560 -0.4724  0.0930
57531DOD     C316414  16.371  13.609  20.683 -0.0677  0.2280  0.2272
57532DOD     C116415   4.338  27.392   8.812  0.3511  0.0160  0.1304
57532DOD     C216416   4.364  27.723   8.462 -0.0097  0.1121 -0.2191
57532DOD     C316417   4.381  28.050   8.164  0.2442  0.1796  0.0993
57533DOD     C116418  22.662  23.432  17.731 -0.1006  0.2029  0.0395
57533DOD     C216419  22.963  23.499  17.380  0.0789  0.1150  0.0079
57533DOD     C316420  23.194  23.206  17.116  0.0386 -0.1640 -0.1030
57534DOD     C116421  22.225   4.996  16.435  0.2791 -0.1120  0.0756
57534DOD     C216422  22.364   4.580  16.337  0.0358  0.0700  0.1345
57534DOD     C316423  22.772   4.314  16.338 -0.0090  0.1230 -0.2147
57535DOD     C116424   0.018   2.852  21.054 -0.0139 -0.0598 -0.1879
57535DOD     C216425   0.054   2.694  21.518 -0.2016  0.0032  0.3230
57535DOD     C316426  30.206   2.335  21.779  0.2814 -0.2345  0.1914
57536DOD     C116427  16.016  15.537   3.133 -0.4393 -0.3157  0.0426
57536DOD     C216428  16.112  15.810   3.478  0.1374  0.0774  0.1405
57536DOD     C316429  16.311  16.103   3.784  0.0623  0.1076  0.0192
57537DOD     C116430  24.456  17.400  28.307  0.0456 -0.2614  0.1035
57537DOD     C216431  24.299  17.512  28.704 -0.2406  0.2146 -0.0690
57537DOD     C316432  24.196  17.315  29.121  0.0489  0.1796 -0.2818
57538DOD     C116433  22.300   9.281  22.491 -0.0125  0.2305  0.0284
57538DOD     C216434  22.783   9.169  22.555  0.2242 -0.0030  0.1532
57538DOD     C316435  23.169   9.264  22.450 -0.2916  0.0624 -0.0737
57539DOD     C116436   1.503   7.903  12.496  0.3732  0.1397 -0.0272
57539DOD     C216437   1.310   7.960  12.093 -0.2110  0.1841 -0.2634
57539DOD     C316438   1.444   7.734  11.666  0.3582  0.0573  0.0974
57540DOD     C116439   2.957  19.437   4.549 -0.0418  0.0949  0.4042
57540DOD     C216440   3.025  19.777   4.222  0.2393  0.1446 -0.1973
57540DOD     C316441   3.048  19.809   3.754 -0.0314 -0.0182 -0.0203
57541DOD     C116442   1.501  13.440   7.761 -0.1140 -0.2787  0.0379
57541DOD     C216443   1.396  13.026   7.454  0.0471 -0.1072 -0.4543
57541DOD     C316444   1.299  12.647   7.676 -0.1378 -0.2983  0.0160
57542DOD     C116445  16.453  16.718  16.344  0.0476  0.1012 -0.0232
57542DOD     C216446  16.270  16.727  15.918  0.0727  0.0437  0.2457
57542DOD     C316447  16.101  16.480  15.568 -0.1314  0.2003  0.1743
57543DOD     C116448  29.194  10.331   5.348 -0.0417  0.0295 -0.0674
57543DOD     C216449  28.942  10.201   5.016 -0.0047  0.2403  0.1746
57543DOD     C316450  28.950  10.097   4.580  0.3430  0.0885  0.3313
57544DOD     C116451  12.271  11.961  12.753  0.1313 -0.0642  0.0587
57544DOD     C216452  11.883  12.069  12.836 -0.0772 -0.2276  0.2851
57544DOD     C316453  11.463  12.275  12.890 -0.1369 -0.4785  0.1433
57545DOD     C116454  15.951  10.252  26.960 -0.1492  0.1955  0.1358
57545DOD     C216455  16.011  10.358  27.429 -0.1313 -0.1341 -0.2123
57545DOD     C316456  16.055  10.208  27.853  0.0288 -0.0873  0.2535
57546DOD     C116457   6.767  20.123  21.822 -0.1251 -0.1491 -0.0045
57546DOD     C216458   6.887  20.372  21.508 -0.0241  0.0571  0.1819
57546DOD     C316459   6.878  20.720  21.177 -0.0061 -0.0702 -0.0809
57547DOD     C116460   3.035   7.861  17.289 -0.1962  0.0590  0.1060
57547DOD     C216461   2.950   8.181  16.958  0.3269 -0.0462  0.0831
57547DOD     C316462   2.577   8.445  16.813  0.1394  0.0549 -0.0663
57548DOD     C116463  24.462   0.185  18.877  0.0848  0.1982 -0.1015
57548DOD     C216464  24.139   0.312  18.610 -0.0109 -0.1135  0.0063
57548DOD     C316465  24.034   0.146  18.208  0.4345 -0.0062 -0.0388
57549DOD     C116466   4.943  24.384  27.060  0.1672  0.0756 -0.0472
57549DOD     C216467   4.523  24.465  26.854 -0.1167 -0.1695 -0.4328
57549DOD     C316468   4.292  24.130  27.058  0.1598 -0.1811  0.0808
57550DOD     C116469  27.930  23.566   6.806 -0.1010  0.0401 -0.1804
57550DOD     C216470  28.032  23.815   7.166  0.1060  0.4491 -0.1114
57550DOD     C316471  28.254  23.738   7.539 -0.3152  0.1700 -0.1461
57551DOD     C116472   4.115  26.575  17.087  0.1370 -0.0764  0.1070
57551DOD     C216473   3.860  26.922  16.881  0.1001 -0.1383 -0.1149
57551DOD     C316474   3.651  27.327  16.914 -0.1312 -0.0272  0.0967
57552DOD     C116475  20.754  26.705  15.461 -0.0628 -0.1009  0.0362
57552DOD     C216476  20.845  26.377  15.113  0.1182 -0.2801  0.0196
57552DOD     C316477  21.187  26.181  14.892 -0.0715  0.1266  0.1498
57553DOD     C116478   6.651  19.537  26.759 -0.2239  0.3264  0.3590
57553DOD     C216479   6.888  19.304  27.155  0.0365  0.0411  0.2155
57553DOD     C316480   7.129  19.246  27.538 -0.1414  0.1461 -0.1452
57554DOD     C116481  20.133   9.555  17.933  0.0819 -0.3883 -0.0159
57554DOD     C216482  20.206   9.847  18.284 -0.2051  0.8434  0.0390
57554DOD     C316483  20.076  10.273  18.313 -0.1886  0.2267  0.1890
57555DOD     C116484  23.980   1.612  26.162 -0.5917 -0.0376  0.0658
57555DOD     C216485  24.159   1.491  25.721  0.3128 -0.2712  0.2756
57555DOD     C316486  24.458   1.434  25.437  0.2034 -0.1724  0.1741
57556DOD     C116487  21.754  28.824  21.195 -0.1400 -0.0670 -0.0565
57556DOD     C216488  21.404  28.635  20.974 -0.0787 -0.1348 -0.1380
57556DOD     C316489  20.995  28.418  20.905 -0.0991  0.1442  0.1479
57557DOD     C116490   7.335  13.008  20.981 -0.0573  0.3440 -0.3356
57557DOD     C216491   7.526  13.135  20.546 -0.2048 -0.1834 -0.1740
57557DOD     C316492   7.497  13.133  20.040 -0.0463 -0.2301 -0.0403
57558DOD     C116493   2.493  10.510  27.379 -0.2052  0.1701 -0.0408
57558DOD     C216494   2.034  10.464  27.629  0.0291  0.0843 -0.1101
57558DOD     C316495   1.690  10.266  27.832  0.1100 -0.1380 -0.2339
57559DOD     C116496  16.106   9.344  20.608 -0.0248  0.0429  0.0146
57559DOD     C216497  15.795   9.330  20.935 -0.2945 -0.0364 -0.1982
57559DOD     C316498  15.812   9.519  21.373 -0.0722 -0.0465  0.0668
57560DOD     C116499   3.506  22.672  12.843 -0.1539  0.3088  0.0646
57560DOD     C216500   3.411  23.036  13.052  0.0590  0.0674 -0.1804
57560DOD     C316501   3.642  23.383  13.273 -0.0902 -0.0584  0.0631
57561DOD     C116502   6.957  13.978   3.257 -0.1232 -0.1833  0.1497
57561DOD     C216503   6.846  13.881   2.818  0.2312  0.1022 -0.0398
57561DOD     C316504   6.524  13.705   2.510 -0.0058 -0.1819 -0.0596
57562DOD     C116505  21.278  23.263  14.350  0.0563 -0.0841  0.0401
57562DOD     C216506  21.309  22.813  14.368 -0.0306 -0.0680 -0.3468
57562DOD     C316507  21.296  22.467  14.045  0.0237  0.1211 -0.2038
57563DOD     C116508  19.529   5.473  29.224  0.1174 -0.0670  0.2927
57563DOD     C216509  19.616   5.100  29.032 -0.0746 -0.2679  0.3345
57563DOD     C316510  19.542   4.641  29.039 -0.2648 -0.0217 -0.3361
57564DOD     C116511  23.630  18.715   0.093 -0.0190 -0.1894 -0.0012
57564DOD     C216512  23.488  18.810   0.538 -0.5847  0.0404  0.1032
57564DOD     C316513  23.472  19.098   0.954 -0.1695 -0.1727  0.0400
57565DOD     C116514  17.544  16.294  30.091  0.0116  0.0422 -0.0118
57565DOD     C216515  17.551  16.343   0.263 -0.0662 -0.1667  0.0192
57565DOD     C316516  17.364  16.487   0.722 -0.0259 -0.0056  0.0195
57566DOD     C116517  24.019  12.652   4.691 -0.0408  0.1558  0.0798
57566DOD     C216518  24.359  12.891   4.892 -0.1738  0.2497  0.1131
57566DOD     C316519  24.820  12.884   4.912 -0.2586 -0.0150 -0.1397
57567DOD     C116520  11.803  14.082  12.500 -0.1624  0.1085 -0.0372
57567DOD     C216521  11.859  14.123  12.959 -0.3560 -0.1807 -0.1734
57567DOD     C316522  12.252  14.178  13.192  0.0754 -0.3125 -0.1324
57568DOD     C116523  12.541   7.139  29.745  0.2810 -0.0212  0.0938
57568DOD     C216524  12.141   7.332  29.837  0.3561  0.1653  0.0954
57568DOD     C316525  11.729   7.491  29.721  0.0426  0.2571 -0.0309
57569DOD     C116526  22.995  23.882  18.650 -0.5053 -0.2194  0.1324
57569DOD     C216527  22.566  23.966  18.538 -0.1668  0.2946  0.0915
57569DOD     C316528  22.126  23.925  18.609 -0.2963  0.2572 -0.1425
57570DOD     C116529  17.222  21.645  22.053 -0.1716 -0.2046 -0.0022
57570DOD     C216530  17.052  21.340  22.371 -0.1348  0.0986  0.3656
57570DOD     C316531  17.025  20.983  22.706  0.0046  0.1997 -0.3004
57571DOD     C116532   3.209  16.411   9.851 -0.0176 -0.1641 -0.2157
57571DOD     C216533   3.465  16.046   9.714  0.2741 -0.3160  0.1929
57571DOD     C316534   3.784  15.725   9.799 -0.3490 -0.0709 -0.0525
57572DOD     C116535  19.833  14.229  10.239  0.0285 -0.3694  0.0111
57572DOD     C216536  20.063  14.284   9.796  0.0373 -0.0271 -0.1893
57572DOD     C316537  20.309  14.036   9.439 -0.1053 -0.2638 -0.1597
57573DOD     C116538  10.170   3.037   6.212 -0.0749  0.0694 -0.1868
57573DOD     C216539  10.277   2.934   6.692 -0.3491 -0.0274  0.0309
57573DOD     C316540  10.080   2.804   7.087 -0.1566  0.0815 -0.2135
57574DOD     C116541  16.324  16.551   6.917 -0.0655  0.0981 -0.2658
57574DOD     C216542  16.056  16.543   7.314 -0.0455 -0.2661  0.0210
57574DOD     C316543  15.963  16.731   7.740  0.4247  0.4128 -0.0087
57575DOD     C116544   7.207  10.013   7.108  0.0896 -0.0180  0.0076
57575DOD     C216545   7.244   9.663   6.780 -0.2872  0.1112 -0.0115
57575DOD     C316546   7.515   9.459   6.462  0.1107  0.1489 -0.2505
57576DOD     C116547   3.147  14.608  19.824 -0.3210 -0.0909  0.0176
57576DOD     C216548   3.388  14.900  20.149  0.1877  0.3319  0.0603
57576DOD     C316549   3.479  15.335  20.064  0.0413  0.0404  0.0797
57577DOD     C116550  25.979  14.969  15.850 -0.0067  0.0081  0.2451
57577DOD     C216551  26.221  15.373  15.945 -0.1459 -0.0542 -0.2231
57577DOD     C316552  26.687  15.380  15.964  0.0061  0.2535  0.2024
57578DOD     C116553  30.247  19.242   0.123 -0.2504  0.1622  0.0446
57578DOD     C216554   0.310  19.209   0.381  0.2013  0.0890 -0.1825
57578DOD     C316555   0.693  19.394   0.279 -0.0707 -0.1054 -0.3575
57579DOD     C116556   1.804  23.278   2.763  0.3119 -0.1990  0.1969
57579DOD     C216557   2.209  23.222   2.976  0.5273 -0.0038 -0.1644
57579DOD     C316558   2.643  23.085   3.123  0.0833 -0.1154  0.1364
57580DOD     C116559  13.553  11.651  11.168  0.0777 -0.2555 -0.0667
57580DOD     C216560  13.838  12.016  11.107 -0.3197 -0.1583 -0.5131
57580DOD     C316561  14.056  12.192  11.510  0.3913 -0.1749  0.0189
57581DOD     C116562  19.422   1.170  19.160  0.0835  0.4371  0.1115
57581DOD     C216563  19.361   0.850  18.861 -0.0150 -0.1133  0.2010
57581DOD     C316564  19.406   0.592  18.476  0.0133 -0.2018 -0.0684
57582DOD     C116565  19.569  21.085   4.718  0.0543  0.1190  0.2778
57582DOD     C216566  19.540  20.686   5.025  0.0616  0.0456  0.2597
57582DOD     C316567  19.610  20.219   5.050 -0.1339 -0.0764 -0.0043
57583DOD     C116568  11.593  12.314  20.389  0.3559 -0.1662  0.0164
57583DOD     C216569  11.469  12.493  20.845 -0.0515 -0.1493 -0.0278
57583DOD     C316570  11.331  12.838  21.090  0.0601  0.0428  0.2258
57584DOD     C116571  12.425   8.255  22.630 -0.3113 -0.0499 -0.0752
57584DOD     C216572  12.055   8.552  22.637  0.2167 -0.0869 -0.1122
57584DOD     C316573  11.812   8.913  22.575  0.2003 -0.0231 -0.1608
57585DOD     C116574   8.861  12.963  19.039 -0.4417  0.1355 -0.1386
57585DOD     C216575   9.036  13.162  18.617  0.1104 -0.0556  0.1567
57585DOD     C316576   9.184  12.883  18.248 -0.1005  0.1443 -0.0420
57586DOD     C116577  15.819   2.285  21.818  0.2973 -0.2640  0.0254
57586DOD     C216578  15.449   2.406  21.645 -0.0919  0.3414 -0.0869
57586DOD     C316579  15.014   2.336  21.762 -0.0019  0.0161 -0.2404
57587DOD     C116580  29.117  13.264  16.992  0.1068 -0.1243  0.1880
57587DOD     C216581  29.266  12.873  17.167 -0.3631  0.0695  0.4165
57587DOD     C316582  29.537  12.476  17.114 -0.0734  0.0278 -0.0088
57588DOD     C116583   6.869   7.329  19.177  0.2400  0.0521  0.1683
57588DOD     C216584   6.640   7.224  19.562  0.1405  0.0220 -0.0347
57588DOD     C316585   6.309   7.038  19.772  0.5115  0.2524 -0.0650
57589DOD     C116586  15.488   4.998  11.426 -0.1888 -0.0303 -0.0118
57589DOD     C216587  15.529   4.611  11.733 -0.0314  0.0957 -0.1060
57589DOD     C316588  15.422   4.165  11.710 -0.1783 -0.1528 -0.0928
57590DOD     C116589  19.523  18.664  23.613  0.3159  0.0899  0.0417
57590DOD     C216590  19.630  18.261  23.384  0.2648  0.0105 -0.1089
57590DOD     C316591  19.709  18.129  22.947  0.1625 -0.0862  0.1167
57591DOD     C116592  26.589   5.047  15.932  0.0267 -0.2788 -0.0833
57591DOD     C216593  26.905   5.327  16.196  0.2450 -0.1404 -0.3025
57591DOD     C316594  27.021   5.513  16.627  0.0266  0.0676  0.0371
57592DOD     C116595  18.252  10.005  20.054 -0.2551  0.0579  0.0906
57592DOD     C216596  18.019  10.327  20.269  0.3362 -0.5076 -0.0741
57592DOD     C316597  17.772  10.552  20.577 -0.0426 -0.0808  0.0593
57593DOD     C116598  17.720  14.194  21.605  0.1738  0.2021  0.0319
57593DOD     C216599  18.037  13.896  21.645  0.0659 -0.1376 -0.1318
57593DOD     C316600  18.500  13.701  21.699 -0.1150  0.0317  0.0653
57594DOD     C116601   3.962  15.393  27.379  0.0343 -0.0531 -0.1209
57594DOD     C216602   3.551  15.529  27.361 -0.1200 -0.0854 -0.1644
57594DOD     C316603   3.251  15.758  27.624  0.3271  0.0323 -0.1758
57595DOD     C116604  18.792  20.380  26.855 -0.0826  0.3940 -0.0601
57595DOD     C216605  18.637  20.410  27.313  0.0775 -0.1742  0.0293
57595DOD     C316606  18.949  20.460  27.679  0.0604 -0.1269  0.1074
57596DOD     C116607   5.933   0.908   9.173 -0.1171 -0.0929 -0.1554
57596DOD     C216608   5.442   0.761   9.007 -0.1215  0.0193  0.0405
57596DOD     C316609   4.993   0.700   9.083 -0.0748  0.1622  0.0846
57597DOD     C116610  11.423  22.900  24.746  0.1570  0.2089  0.1806
57597DOD     C216611  11.325  23.044  25.181  0.1619  0.2635  0.0081
57597DOD     C316612  11.245  23.119  25.591 -0.2057  0.4164 -0.2480
57598DOD     C116613  28.051  12.297   0.424  0.1141 -0.0630  0.0538
57598DOD     C216614  27.700  12.406   0.705 -0.0927  0.2528  0.0436
57598DOD     C316615  27.498  12.595   1.093  0.0726 -0.0342 -0.0789
57599DOD     C116616  28.122   4.613   1.803 -0.0408 -0.2012 -0.0322
57599DOD     C216617  28.322   4.824   2.118  0.4692 -0.3926  0.3312
57599DOD     C316618  28.360   5.270   2.158  0.0056  0.2343  0.0812
57600DOD     C116619   3.394   7.449   7.515  0.1989 -0.1901 -0.1955
57600DOD     C216620   3.698   7.279   7.835 -0.3272  0.0260  0.2148
57600DOD     C316621   3.702   7.196   8.315 -0.0076  0.2721  0.2057
57601DOD     C116622  28.870  23.748   9.347 -0.0823  0.0051 -0.1500
57601DOD     C216623  29.055  23.909   9.732  0.1306 -0.1534  0.1746
57601DOD     C316624  29.342  23.786  10.051  0.1148  0.2334 -0.2396
57602DOD     C116625  25.943  13.774  21.550  0.1968  0.2581  0.2737
57602DOD     C216626  26.378  13.561  21.529  0.1790 -0.1659  0.1046
57602DOD     C316627  26.659  13.371  21.842  0.0841  0.0625 -0.0980
57603DOD     C116628  29.066  10.640   4.443 -0.1928 -0.1948  0.1495
57603DOD     C216629  29.487  10.486   4.597 -0.1499  0.0707  0.0436
57603DOD     C316630  29.619  10.282   5.040 -0.1250 -0.2669  0.0602
57604DOD     C116631  14.230  28.500   0.379 -0.1540 -0.0886  0.1231
57604DOD     C216632  14.318  28.113   0.529 -0.0575  0.4134  0.0700
57604DOD     C316633  14.385  27.689   0.600  0.0002  0.1337 -0.0550
57605DOD     C116634  23.049  26.589  25.705 -0.0601  0.1989 -0.1196
57605DOD     C216635  23.339  26.628  26.036  0.0431  0.1623 -0.2288
57605DOD     C316636  23.357  26.848  26.442  0.1030 -0.0528  0.0284
57606DOD     C116637   5.929  10.725  25.147  0.2662 -0.0558  0.2914
57606DOD     C216638   5.706  10.419  25.291 -0.2446  0.0892 -0.0156
57606DOD     C316639   5.509   9.970  25.338  0.1378 -0.0138  0.0850
57607DOD     C116640  30.014  27.630  22.452 -0.0528  0.0042 -0.2099
57607DOD     C216641   0.200  27.537  22.447 -0.0930 -0.3095 -0.0756
57607DOD     C316642   0.672  27.504  22.494  0.1360 -0.1387 -0.1881
57608DOD     C116643   6.527   2.301  21.721 -0.2802 -0.1422  0.1803
57608DOD     C216644   6.621   2.122  22.124 -0.0661 -0.0685 -0.0503
57608DOD     C316645   6.404   1.820  22.428 -0.1852  0.1042  0.4734
57609DOD     C116646  11.047  20.156   9.805  0.0107  0.0275  0.0547
57609DOD     C216647  11.480  20.058   9.824  0.0529  0.0402 -0.1604
57609DOD     C316648  11.912  20.270   9.870 -0.0580  0.1208 -0.1077
57610DOD     C116649   8.961   6.366  24.131  0.2390  0.0244 -0.1027
57610DOD     C216650   9.315   6.331  24.430  0.0737 -0.1315  0.0875
57610DOD     C316651   9.686   6.346  24.704 -0.1887  0.2412  0.2107
57611DOD     C116652  28.550  14.125  14.177 -0.3508 -0.1984  0.0419
57611DOD     C216653  28.799  13.900  13.861 -0.1622  0.0685  0.1399
57611DOD     C316654  28.976  13.459  13.754 -0.3271  0.0811  0.2280
57612DOD     C116655   3.880  16.193  22.273  0.0600  0.0793  0.0566
57612DOD     C216656   4.114  16.636  22.314  0.1627 -0.1863  0.0461
57612DOD     C316657   4.279  17.072  22.240 -0.2247  0.1867 -0.0519
57613DOD     C116658  28.188   2.313  30.275  0.0798  0.1357 -0.0250
57613DOD     C216659  28.547   2.561  30.080  0.0123 -0.0121  0.3176
57613DOD     C316660  28.933   2.579  29.791  0.1303 -0.1114  0.2899
57614DOD     C116661  11.416   1.379  12.707 -0.0481  0.2145  0.2135
57614DOD     C216662  11.470   1.344  12.251  0.1758 -0.2680 -0.1403
57614DOD     C316663  11.801   1.551  11.992 -0.2536 -0.1139 -0.1417
57615DOD     C116664   3.164   5.007   8.678 -0.2697  0.2500 -0.0861
57615DOD     C216665   3.361   4.918   8.260 -0.0386 -0.0308 -0.0960
57615DOD     C316666   3.388   4.928   7.789 -0.1681  0.0339  0.0440
57616DOD     C116667  16.450   6.194  17.609  0.1518  0.3798 -0.2804
57616DOD     C216668  16.169   6.524  17.828  0.2330  0.2629 -0.1153
57616DOD     C316669  15.759   6.524  18.191  0.2335  0.0129 -0.0009
57617DOD     C116670  29.999   8.735  22.323  0.0368 -0.1331  0.2915
57617DOD     C216671  30.251   8.432  22.021  0.3333 -0.1112  0.1125
57617DOD     C316672  30.200   8.021  21.816  0.0876  0.2242  0.2789
57618DOD     C116673  14.935  19.905   9.155 -0.2822  0.3408 -0.0340
57618DOD     C216674  14.958  20.363   9.129 -0.2293 -0.0202 -0.2340
57618DOD     C316675  14.884  20.765   8.851  0.1652 -0.1991  0.0400
57619DOD     C116676  16.776  29.073  15.271 -0.0804 -0.1737 -0.0128
57619DOD     C216677  16.823  28.606  15.369 -0.0878  0.1798  0.0824
57619DOD     C316678  16.882  28.303  15.709 -0.0662 -0.0520  0.3170
57620DOD     C116679   8.232  23.628   0.405  0.2188 -0.0721  0.1838
57620DOD     C216680   8.021  23.993   0.231  0.0445  0.0075  0.1083
57620DOD     C316681   8.193  24.424   0.315  0.0877 -0.1163 -0.1220
57621DOD     C116682  19.997  18.958   9.456  0.2131  0.1078  0.2304
57621DOD     C216683  19.630  19.048   9.710 -0.2520 -0.0538  0.2208
57621DOD     C316684  19.420  19.013  10.130  0.0823 -0.0669  0.0328
57622DOD     C116685  10.941  25.105  22.462  0.0422 -0.0052 -0.1647
57622DOD     C216686  10.887  24.724  22.742 -0.1930  0.1422  0.1121
57622DOD     C316687  10.801  24.328  22.973 -0.3311 -0.0091  0.0579
57623DOD     C116688  22.225  20.408  10.271 -0.0680 -0.0038  0.0433
57623DOD     C216689  21.867  20.326  10.146 -0.1590 -0.0975 -0.0926
57623DOD     C316690  21.475  20.210   9.961  0.0046  0.0049  0.1817
57624DOD     C116691  17.932   1.570  15.857  0.1655  0.0536  0.1566
57624DOD     C216692  17.592   1.657  15.581 -0.0541  0.1502 -0.2562
57624DOD     C316693  17.211   1.442  15.450 -0.1560  0.0074  0.1866
57625DOD     C116694  25.051  14.113  21.904 -0.1506 -0.1099 -0.0808
57625DOD     C216695  24.812  14.463  21.680 -0.1831 -0.0972  0.3375
57625DOD     C316696  24.427  14.302  21.418 -0.2516 -0.1006  0.3560
57626DOD     C116697  28.678  15.623   4.917  0.2096 -0.3857 -0.1623
57626DOD     C216698  28.760  16.083   4.743  0.2782  0.0280  0.0538
57626DOD     C316699  29.098  16.272   4.513  0.1500  0.1959  0.0542
57627DOD     C116700  22.011  19.351  25.568  0.1521 -0.3619  0.2530
57627DOD     C216701  22.068  19.538  25.994 -0.0546  0.1138  0.2202
57627DOD     C316702  21.819  19.802  26.285 -0.4076 -0.0525 -0.0743
57628DOD     C116703   3.871  21.792  19.058 -0.1440 -0.3188 -0.0600
57628DOD     C216704   3.607  21.450  19.237  0.2276  0.0751 -0.0936
57628DOD     C316705   3.131  21.427  19.213  0.3631 -0.0912 -0.2111
57629DOD     C116706  10.711  15.430   9.185 -0.3570 -0.1553  0.0120
57629DOD     C216707  10.958  15.845   9.112 -0.0137 -0.1594  0.0158
57629DOD     C316708  10.729  16.189   9.180  0.1443 -0.1547  0.4864
57630DOD     C116709  23.035  17.362  14.379 -0.3118  0.1780  0.1056
57630DOD     C216710  23.352  17.153  14.145  0.1650  0.0477 -0.4238
57630DOD     C316711  23.650  16.908  13.822  0.0366 -0.1894 -0.4483
57631DOD     C116712  17.212  29.977  29.640 -0.0069  0.2521 -0.1783
57631DOD     C216713  17.372  29.790  30.080 -0.1686 -0.0585  0.2257
57631DOD     C316714  17.516  29.402  30.296  0.0616 -0.0366  0.0070
57632DOD     C116715  15.482  24.933  22.026 -0.0141  0.1537  0.0475
57632DOD     C216716  15.861  25.041  22.083  0.1228 -0.2592  0.0752
57632DOD     C316717  16.093  25.072  22.447  0.2454 -0.0475  0.2754
57633DOD     C116718  11.597  10.067  16.776  0.2432  0.0892  0.1076
57633DOD     C216719  11.437  10.401  17.062 -0.0325  0.1532  0.0212
57633DOD     C316720  11.180  10.595  17.386 -0.0061 -0.0058 -0.0931
57634DOD     C116721  11.100  15.192  27.882 -0.2906 -0.3443 -0.0578
57634DOD     C216722  10.697  15.017  27.700  0.0326 -0.1202  0.1760
57634DOD     C316723  10.568  14.671  27.462  0.0761  0.0104 -0.1594
57635DOD     C116724  20.424   8.467  20.926 -0.0705 -0.0308 -0.1931
57635DOD     C216725  20.211   8.032  20.764 -0.0122 -0.1666  0.2425
57635DOD     C316726  20.377   7.671  20.502 -0.2673 -0.0293  0.2869
57636DOD     C116727   2.787  18.089  12.278 -0.1625 -0.3659  0.3382
57636DOD     C216728   2.698  18.490  12.361  0.0603 -0.0853 -0.1423
57636DOD     C316729   2.500  18.809  12.687  0.2123 -0.1913  0.3456
57637DOD     C116730  14.902  16.458  26.720 -0.3116 -0.1314 -0.0484
57637DOD     C216731  14.794  16.903  26.587 -0.1339  0.0579 -0.1649
57637DOD     C316732  14.710  17.242  26.924 -0.0627 -0.2026 -0.1791
57638DOD     C116733  27.769  20.395   7.005  0.1035  0.1653  0.2237
57638DOD     C216734  27.893  20.519   7.453  0.0742  0.2018 -0.0462
57638DOD     C316735  27.673  20.305   7.813  0.1184 -0.1003 -0.0892
57639DOD     C116736  19.841  29.768   5.919  0.3426 -0.1500  0.0532
57639DOD     C216737  19.839  30.159   6.196 -0.0746 -0.1335 -0.1743
57639DOD     C316738  20.117   0.119   6.421  0.1226 -0.3456  0.1773
57640DOD     C116739  22.916  15.721  29.342 -0.0832 -0.1364  0.0376
57640DOD     C216740  23.299  15.404  29.333 -0.0362 -0.1379  0.0653
57640DOD     C316741  23.683  15.328  29.582  0.1093  0.0448  0.0426
57641DOD     C116742  26.789  16.349  22.504  0.2197 -0.1497  0.3449
57641DOD     C216743  26.754  15.925  22.425  0.2717 -0.0857  0.1726
57641DOD     C316744  26.474  15.657  22.657 -0.0232  0.0907  0.2640
57642DOD     C116745  13.747   8.188  16.496 -0.0815  0.0955  0.1020
57642DOD     C216746  13.397   8.357  16.222  0.1505 -0.2111  0.0614
57642DOD     C316747  13.090   8.627  16.020  0.0322  0.0052 -0.2139
57643DOD     C116748  26.033  22.079  30.223  0.3832  0.0352 -0.0609
57643DOD     C216749  26.369  21.723  30.146  0.0480  0.0435 -0.1552
57643DOD     C316750  26.736  21.535   0.020 -0.1974  0.2382 -0.0872
57644DOD     C116751   5.521   6.134  21.077 -0.0218 -0.1162  0.1968
57644DOD     C216752   5.962   6.322  20.980 -0.0380  0.2540  0.5215
57644DOD     C316753   6.400   6.390  21.098 -0.1326 -0.3974 -0.2577
57645DOD     C116754  13.585   6.934  10.149 -0.2666 -0.2184  0.1023
57645DOD     C216755  13.878   6.795  10.506  0.1847 -0.2432  0.0647
57645DOD     C316756  14.155   7.081  10.771  0.0250 -0.0430  0.1499
57646DOD     C116757  28.797  22.302  13.102  0.1943  0.2131 -0.1419
57646DOD     C216758  29.004  22.690  13.246  0.0228  0.1448 -0.1586
57646DOD     C316759  29.440  22.834  13.170  0.0120 -0.3262 -0.2323
57647DOD     C116760   9.477  23.638  21.087  0.1024 -0.1173 -0.0188
57647DOD     C216761   9.215  24.031  21.236 -0.0148 -0.1376  0.1851
57647DOD     C316762   8.783  24.219  21.359 -0.3327  0.1011 -0.1369
57648DOD     C116763   0.466  28.779  17.133  0.3115 -0.0929 -0.2949
57648DOD     C216764   0.951  28.581  17.182  0.3290  0.0071 -0.1833
57648DOD     C316765   1.078  28.217  17.490  0.0131  0.1427  0.0732
57649DOD     C116766  29.490  23.622  20.341 -0.2866 -0.1856  0.0956
57649DOD     C216767  29.089  23.449  20.237  0.0834  0.0307  0.0802
57649DOD     C316768  28.841  23.127  20.487 -0.3112  0.2884 -0.4152
57650DOD     C116769  15.129   9.147  16.532  0.3127  0.0184 -0.2156
57650DOD     C216770  14.767   9.162  16.238 -0.2765  0.2646 -0.1059
57650DOD     C316771  14.365   9.042  15.980 -0.1610 -0.0782  0.4603
57651DOD     C116772  15.302   4.327  29.094  0.1148 -0.0581 -0.2698
57651DOD     C216773  15.346   3.921  29.346  0.2550 -0.3516 -0.0623
57651DOD     C316774  15.229   3.635  29.744 -0.0877 -0.3164 -0.1641
57652DOD     C116775  11.180  11.266  30.124  0.3108 -0.0501 -0.2970
57652DOD     C216776  11.504  11.507  29.857 -0.1537 -0.2341 -0.1505
57652DOD     C316777  11.963  11.656  29.733 -0.0928 -0.1246  0.0073
57653DOD     C116778   9.324   6.044  13.147  0.0608  0.0019 -0.1249
57653DOD     C216779   9.687   6.315  13.307 -0.0088 -0.0003 -0.0256
57653DOD     C316780   9.914   6.705  13.437 -0.0153  0.0173 -0.0723
57654DOD     C116781   7.730  29.622  15.831  0.2143 -0.0442 -0.0930
57654DOD     C216782   7.812  29.669  15.371  0.3008  0.0665 -0.2325
57654DOD     C316783   7.798  29.776  14.905 -0.1301  0.0251  0.1311
57655DOD     C116784  17.617  26.853  28.882  0.2404  0.2135 -0.0223
57655DOD     C216785  17.903  26.488  28.892 -0.3671 -0.0137 -0.2379
57655DOD     C316786  17.942  26.118  29.192  0.0517 -0.0249  0.0131
57656DOD     C116787  23.834   1.877   5.837  0.1699  0.3130  0.0133
57656DOD     C216788  24.020   1.428   5.773 -0.1364  0.0335 -0.0672
57656DOD     C316789  23.956   0.936   5.642  0.0778  0.0716  0.1798
57657DOD     C116790   4.261   5.115  16.543  0.3599  0.2792  0.1829
57657DOD     C216791   4.310   5.207  16.123 -0.0984 -0.0501  0.1538
57657DOD     C316792   4.506   5.286  15.729  0.0402 -0.0727  0.0909
57658DOD     C116793  24.594  29.350   1.540  0.0272 -0.3193 -0.0292
57658DOD     C216794  24.955  29.125   1.377 -0.0333 -0.0970  0.0714
57658DOD     C316795  25.319  28.898   1.230 -0.0292  0.1776  0.0128
57659DOD     C116796   9.843   0.474   7.900  0.2853 -0.2846 -0.2312
57659DOD     C216797   9.681   0.414   7.506  0.0018  0.2733  0.0893
57659DOD     C316798   9.458   0.111   7.220  0.1994 -0.2881  0.1642
57660DOD     C116799  20.383  19.604  26.277  0.0279 -0.1487 -0.0093
57660DOD     C216800  20.397  19.933  26.671  0.1614  0.1041 -0.0418
57660DOD     C316801  20.331  20.044  27.109  0.1298 -0.0623 -0.1281
57661DOD     C116802   1.567  19.544   3.027 -0.3690 -0.1551  0.2490
57661DOD     C216803   1.172  19.350   3.248  0.1601 -0.1086 -0.0210
57661DOD     C316804   0.994  18.880   3.492  0.0072  0.1879 -0.0195
57662DOD     C116805  19.231   0.314   8.774  0.0153 -0.1268 -0.0208
57662DOD     C216806  19.418   0.678   8.545 -0.0439 -0.0718  0.0947
57662DOD     C316807  19.706   0.711   8.179 -0.0694  0.0326 -0.3172
57663DOD     C116808  12.808   3.594  20.760  0.2876 -0.0308 -0.2116
57663DOD     C216809  12.674   3.638  20.335 -0.0326  0.2403 -0.0553
57663DOD     C316810  12.781   3.833  19.872  0.0613  0.2575  0.0087
57664DOD     C116811  24.972  21.305  21.693  0.4068  0.1529 -0.0571
57664DOD     C216812  25.113  21.055  22.039  0.0604  0.1084  0.1512
57664DOD     C316813  25.152  20.605  22.228  0.1600  0.2452 -0.3327
57665DOD     C116814  19.607  24.009  18.793  0.0430 -0.2346  0.1119
57665DOD     C216815  19.661  24.261  19.109 -0.0183  0.0767 -0.0566
57665DOD     C316816  19.789  24.492  19.518  0.1128 -0.1769  0.2808
57666DOD     C116817  25.687  29.822   7.500 -0.2168 -0.0225  0.0975
57666DOD     C216818  25.414  30.142   7.740  0.2443  0.0417 -0.0836
57666DOD     C316819  25.222   0.143   8.006  0.1521 -0.2804  0.0007
57667DOD     C116820  14.432  26.975   3.924  0.1039 -0.0830 -0.0428
57667DOD     C216821  14.423  27.462   4.023  0.0050  0.2607  0.2407
57667DOD     C316822  14.503  27.915   3.990 -0.1759 -0.2090  0.1884
57668DOD     C116823  16.963  22.209   0.117 -0.3534 -0.3047 -0.2552
57668DOD     C216824  16.531  22.401  30.263  0.0303  0.0925  0.1763
57668DOD     C316825  16.106  22.271   0.040 -0.2900  0.4577  0.2017
57669DOD     C116826  19.286   1.438  24.898 -0.1930  0.1317 -0.1426
57669DOD     C216827  18.908   1.661  25.038 -0.1480  0.0698 -0.1959
57669DOD     C316828  18.590   1.905  24.807 -0.0256 -0.0916  0.3147
57670DOD     C116829  18.626  21.545   8.923  0.1383  0.0253 -0.3076
57670DOD     C216830  19.049  21.666   8.683 -0.1157  0.1488  0.2492
57670DOD     C316831  19.267  21.764   8.245 -0.1836 -0.0962 -0.0926
57671DOD     C116832  12.996   5.298  24.739  0.1159 -0.0453  0.1105
57671DOD     C216833  12.934   4.810  24.841 -0.1981 -0.3058 -0.1333
57671DOD     C316834  12.742   4.592  25.199 -0.0881  0.1865 -0.0494
57672DOD     C116835   7.788  25.884  13.208 -0.2525  0.1083  0.0608
57672DOD     C216836   7.583  26.110  13.576  0.1365  0.0039  0.1851
57672DOD     C316837   7.520  26.311  14.001 -0.1606  0.1579  0.2477
57673DOD     C116838  21.685   4.636  24.689 -0.0532 -0.2124  0.1506
57673DOD     C216839  21.216   4.742  24.861  0.0946  0.1497  0.0890
57673DOD     C316840  21.030   5.124  25.049  0.0952  0.1375  0.1933
57674DOD     C116841  29.046  25.904  10.533  0.2453  0.0016  0.0799
57674DOD     C216842  28.573  25.879  10.509 -0.0327  0.3421  0.3928
57674DOD     C316843  28.180  26.031  10.414  0.1762  0.0386  0.3181
57675DOD     C116844  12.354  25.002  16.619 -0.0709  0.3202  0.1934
57675DOD     C216845  12.158  24.578  16.526  0.1059 -0.0516  0.0099
57675DOD     C316846  11.890  24.336  16.201 -0.0922 -0.0963 -0.0538
57676DOD     C116847  19.415  15.193  28.118 -0.3318 -0.1807 -0.0423
57676DOD     C216848  19.486  14.788  27.988 -0.1644  0.2591  0.1968
57676DOD     C316849  19.653  14.394  27.785 -0.1696 -0.0992 -0.0602
57677DOD     C116850   3.512  12.642  11.915 -0.1212 -0.1582 -0.2405
57677DOD     C216851   3.145  12.375  12.072 -0.0480 -0.1901  0.0047
57677DOD     C316852   2.930  11.973  11.892 -0.1440 -0.2070  0.0238
57678DOD     C116853   0.598  12.461   4.573 -0.2550 -0.0432  0.2239
57678DOD     C216854   1.026  12.570   4.680  0.0912 -0.4008 -0.0899
57678DOD     C316855   1.239  12.779   5.009  0.3521 -0.0715 -0.0263
57679DOD     C116856  17.514  12.750  22.969  0.0524  0.1492  0.2962
57679DOD     C216857  17.132  12.891  22.894 -0.0760  0.1815  0.2237
57679DOD     C316858  16.874  12.953  22.503  0.0699  0.3158  0.0113
57680DOD     C116859  29.746  15.123  23.916  0.1285  0.1716  0.2767
57680DOD     C216860  29.685  15.496  24.201 -0.1181  0.0590  0.1648
57680DOD     C316861  29.688  15.910  24.354  0.2613 -0.3698  0.0719
57681DOD     C116862   1.151  17.557  19.182 -0.0408  0.1360 -0.2335
57681DOD     C216863   1.544  17.572  19.405 -0.2004  0.1323  0.3413
57681DOD     C316864   1.792  17.200  19.548 -0.3752  0.0155  0.0095
57682DOD     C116865   2.458  15.674  26.866 -0.2879 -0.0934 -0.1544
57682DOD     C216866   2.723  15.725  26.463  0.0670 -0.0363  0.0396
57682DOD     C316867   2.980  15.700  26.092 -0.2702 -0.1273 -0.1417
57683DOD     C116868  27.585  11.262   6.351  0.1682 -0.2720  0.0198
57683DOD     C216869  27.904  11.014   6.093  0.0607 -0.2508  0.1210
57683DOD     C316870  28.242  10.655   6.124 -0.0850 -0.0871  0.0506
57684DOD     C116871  18.177   1.814  29.235  0.1538 -0.0502 -0.1709
57684DOD     C216872  18.483   2.168  29.183  0.3529  0.0584 -0.2067
57684DOD     C316873  18.689   2.533  28.932  0.0169 -0.0989  0.0015
57685DOD     C116874   2.165  23.231   8.044  0.1775 -0.1006 -0.0204
57685DOD     C216875   2.583  23.240   7.951 -0.0013 -0.0263 -0.1854
57685DOD     C316876   2.979  23.071   7.859  0.2015  0.1519 -0.0715
57686DOD     C116877  21.863  19.086  23.907  0.5503 -0.3675 -0.2474
57686DOD     C216878  21.942  18.940  23.514 -0.0817  0.1466 -0.0319
57686DOD     C316879  21.883  18.539  23.358 -0.0547  0.0478 -0.0570
57687DOD     C116880   6.177   2.200  10.292  0.0209 -0.1018 -0.4099
57687DOD     C216881   6.000   1.972  10.667 -0.0451 -0.0204  0.1128
57687DOD     C316882   5.585   1.757  10.900 -0.2041 -0.0533 -0.2935
57688DOD     C116883  27.377   0.802  28.970 -0.1088  0.1308  0.0255
57688DOD     C216884  26.920   0.804  29.037  0.0593  0.2703 -0.0670
57688DOD     C316885  26.624   0.480  29.173 -0.1289  0.0317  0.0420
57689DOD     C116886  30.216  28.919  15.915  0.2440  0.1801 -0.1409
57689DOD     C216887   0.100  29.302  15.819 -0.0160  0.2406  0.2252
57689DOD     C316888   0.329  29.720  15.766 -0.1546 -0.0161 -0.1815
57690DOD     C116889  15.251  16.303   5.988 -0.2806  0.4193  0.2636
57690DOD     C216890  15.231  15.919   6.212 -0.2393 -0.4544  0.2345
57690DOD     C316891  14.961  15.522   6.101  0.1465  0.0732 -0.1637
57691DOD     C116892  19.575  27.543   4.272  0.1252  0.0306 -0.1126
57691DOD     C216893  20.048  27.565   4.259 -0.2368  0.0555  0.1810
57691DOD     C316894  20.407  27.226   4.207  0.2069  0.0167 -0.2098
57692DOD     C116895   5.373  10.307  27.150  0.0280 -0.0573  0.0789
57692DOD     C216896   5.751  10.277  27.477 -0.0391 -0.0408 -0.1089
57692DOD     C316897   5.868  10.088  27.884 -0.2665 -0.3383  0.0347
57693DOD     C116898   1.122   9.277  11.560  0.1549 -0.2020 -0.0578
57693DOD     C216899   1.089   8.937  11.931 -0.2487 -0.0524  0.0404
57693DOD     C316900   0.943   8.689  12.351 -0.0689 -0.0631  0.3498
57694DOD     C116901  26.418   9.917  26.678  0.1161  0.0810  0.0436
57694DOD     C216902  26.310   9.865  27.133 -0.1134 -0.0523 -0.0428
57694DOD     C316903  25.912   9.960  27.355  0.2609 -0.0143  0.1100
57695DOD     C116904  26.628   6.051   1.146  0.0661  0.3588  0.1662
57695DOD     C216905  26.922   5.671   1.245  0.0620 -0.2104  0.0110
57695DOD     C316906  26.861   5.217   1.003  0.1877  0.0791  0.0529
57696DOD     C116907  22.795  20.050  28.050  0.0218  0.0738  0.3411
57696DOD     C216908  22.321  20.007  28.166 -0.0760  0.2296  0.0772
57696DOD     C316909  21.913  19.868  28.219  0.1542  0.1437  0.5099
57697DOD     C116910  18.808   5.278   7.485  0.3762 -0.3136 -0.0367
57697DOD     C216911  18.428   5.452   7.624  0.0164  0.0517 -0.1044
57697DOD     C316912  18.039   5.229   7.490  0.1134 -0.0208 -0.2633
57698DOD     C116913   3.829  18.835  13.169  0.0178  0.0494  0.1765
57698DOD     C216914   3.767  19.310  12.960  0.3022 -0.2406  0.1198
57698DOD     C316915   3.943  19.630  12.636 -0.0309  0.0880  0.1403
57699DOD     C116916   8.672   5.166   8.289 -0.1563 -0.3660  0.1147
57699DOD     C216917   8.442   5.449   8.023 -0.0452 -0.0626 -0.0742
57699DOD     C316918   8.442   5.843   7.781 -0.1098  0.1860  0.1617
57700DOD     C116919   8.561  21.990  28.633 -0.0004  0.0090  0.0679
57700DOD     C216920   8.798  21.809  28.296 -0.2041  0.2926 -0.0326
57700DOD     C316921   8.876  21.415  28.002 -0.0008  0.3062  0.1966
57701DOD     C116922  26.199   4.945  16.822  0.0494  0.0696  0.0360
57701DOD     C216923  26.027   5.157  16.410 -0.1101 -0.0673 -0.3305
57701DOD     C316924  26.020   5.389  16.014  0.1290 -0.2558  0.1067
57702DOD     C116925  25.475  15.677   4.703  0.1638  0.1600  0.1346
57702DOD     C216926  25.410  15.291   4.946 -0.1170 -0.1248 -0.1009
57702DOD     C316927  25.454  14.846   4.932  0.1111  0.3016  0.0779
57703DOD     C116928  13.783  20.962   0.293  0.1237  0.1508  0.1578
57703DOD     C216929  13.750  21.398   0.272  0.0075 -0.1539 -0.0625
57703DOD     C316930  13.860  21.791   0.056 -0.2072 -0.1183  0.1735
57704DOD     C116931   6.986  27.609   1.909 -0.2208 -0.0138  0.0775
57704DOD     C216932   7.340  27.878   2.084 -0.0312 -0.2513 -0.0136
57704DOD     C316933   7.666  28.247   2.037  0.1007 -0.2609  0.1447
57705DOD     C116934  25.956   3.611  23.127  0.1164 -0.1441 -0.2949
57705DOD     C216935  26.341   3.370  23.209  0.0186 -0.0357 -0.0396
57705DOD     C316936  26.538   2.932  23.215 -0.1273 -0.1870  0.0310
57706DOD     C116937  18.453  20.624  17.742 -0.1880 -0.0143 -0.2130
57706DOD     C216938  17.988  20.522  17.772 -0.1963 -0.1244 -0.2102
57706DOD     C316939  17.658  20.760  17.544  0.1486 -0.1881 -0.3124
57707DOD     C116940  17.714  21.374  22.197 -0.0147  0.4641 -0.1852
57707DOD     C216941  17.652  21.863  22.233  0.0426  0.1423 -0.0931
57707DOD     C316942  17.641  22.226  22.492  0.0006  0.1445  0.2284
57708DOD     C116943  10.226   4.058   3.815 -0.0454 -0.0139  0.0423
57708DOD     C216944  10.455   4.116   4.231  0.0895  0.0288  0.4553
57708DOD     C316945  10.266   4.097   4.701  0.1995 -0.0948 -0.0129
57709DOD     C116946  22.887  25.570  15.864 -0.0310 -0.4306 -0.0473
57709DOD     C216947  23.095  25.997  15.723  0.0249 -0.0162 -0.1278
57709DOD     C316948  23.498  26.209  15.606 -0.2273 -0.1975  0.0318
57710DOD     C116949  21.894   7.652   0.063 -0.2772 -0.1917  0.1043
57710DOD     C216950  22.296   7.418   0.182  0.1970 -0.1292 -0.0924
57710DOD     C316951  22.615   7.179  30.320 -0.1220 -0.3612  0.1000
57711DOD     C116952  15.565  12.448  20.668  0.1823 -0.1961 -0.3533
57711DOD     C216953  15.686  12.839  20.904  0.3136 -0.1126  0.2787
57711DOD     C316954  15.866  13.275  20.954 -0.3731 -0.0884 -0.2413
57712DOD     C116955  26.975  28.902   5.692 -0.1845  0.0360  0.1037
57712DOD     C216956  27.243  28.581   5.466 -0.0368  0.0336 -0.0434
57712DOD     C316957  27.485  28.271   5.194  0.3114  0.1406  0.1083
57713DOD     C116958  17.571   5.821  19.310 -0.0990 -0.1832 -0.3510
57713DOD     C216959  17.982   5.716  19.547 -0.0103  0.0417  0.1884
57713DOD     C316960  18.165   5.326  19.724  0.3042 -0.3095 -0.0546
57714DOD     C116961  27.865  29.347  26.358 -0.1750  0.1812 -0.1862
57714DOD     C216962  28.179  29.571  26.571 -0.1002 -0.3719 -0.1369
57714DOD     C316963  28.511  29.473  26.849 -0.2981 -0.0983 -0.1814
57715DOD     C116964  16.923  13.062  11.320 -0.0870 -0.2185  0.1419
57715DOD     C216965  16.924  13.083  10.849 -0.0828  0.0200  0.2475
57715DOD     C316966  16.970  12.982  10.438 -0.0756  0.3574  0.0818
57716DOD     C116967   5.584   9.255  10.725  0.2636  0.2411 -0.4479
57716DOD     C216968   5.130   9.295  10.779  0.0622 -0.0525 -0.1702
57716DOD     C316969   4.761   9.552  10.926  0.0861  0.2259 -0.2575
57717DOD     C116970  21.110  20.891   7.529 -0.0904 -0.0660  0.0919
57717DOD     C216971  20.766  20.929   7.188  0.0368  0.2196  0.1163
57717DOD     C316972  20.346  20.817   7.084 -0.0432  0.0498  0.1144
57718DOD     C116973   5.506  29.554  26.962 -0.0178  0.0313  0.2097
57718DOD     C216974   5.757  29.109  26.919 -0.1956  0.0268 -0.2916
57718DOD     C316975   5.479  28.779  26.867 -0.0250 -0.1602 -0.1320
57719DOD     C116976   8.131  11.200  12.790  0.2472 -0.0476  0.1209
57719DOD     C216977   8.386  11.539  12.628  0.0093  0.1268 -0.1620
57719DOD     C316978   8.596  11.892  12.808 -0.0790  0.1200 -0.4297
57720DOD     C116979   7.371  14.965   6.789 -0.3294  0.2406 -0.3431
57720DOD     C216980   7.340  14.894   6.312  0.0941  0.3529 -0.1638
57720DOD     C316981   7.107  14.835   5.911 -0.1456  0.1914 -0.3438
57721DOD     C116982   0.040  10.993  29.194 -0.3245 -0.2400  0.1283
57721DOD     C216983  30.093  10.787  28.840 -0.0540 -0.1615 -0.1404
57721DOD     C316984  29.650  10.635  28.661  0.1804  0.1654 -0.0548
57722DOD     C116985  10.241  28.479  27.411  0.0247  0.1900 -0.0799
57722DOD     C216986   9.989  28.512  27.842 -0.1697  0.1760  0.0997
57722DOD     C316987   9.577  28.765  27.882 -0.0602 -0.0596 -0.0691
57723DOD     C116988  22.389   2.804   2.131 -0.0535 -0.0047  0.0328
57723DOD     C216989  22.354   3.156   1.801  0.0250 -0.0093 -0.0240
57723DOD     C316990  21.921   3.230   1.646 -0.0552  0.1535  0.0266
57724DOD     C116991   6.536  17.175   5.292  0.0766  0.2805  0.0912
57724DOD     C216992   6.348  17.205   5.695 -0.0629 -0.0549 -0.0411
57724DOD     C316993   6.464  17.024   6.105 -0.1121 -0.2232  0.2082
57725DOD     C116994   9.081   6.417   2.284 -0.3938 -0.1234  0.1022
57725DOD     C216995   8.856   6.531   1.829 -0.2106 -0.0525  0.0218
57725DOD     C316996   8.738   6.965   1.775 -0.0102 -0.1690  0.1221
57726DOD     C116997   2.313  27.202  12.434  0.0298  0.0713 -0.0554
57726DOD     C216998   2.560  26.953  12.773 -0.1715  0.1126  0.3160
57726DOD     C316999   2.815  27.255  13.006  0.0059 -0.1949  0.0352
57727DOD     C117000  20.973  27.034   3.955  0.0849  0.0785  0.1465
57727DOD     C217001  20.674  26.672   4.093 -0.0435  0.0667 -0.1893
57727DOD     C317002  20.223  26.685   4.203  0.1665  0.1207  0.1291
57728DOD     C117003  15.925   4.303  11.777 -0.3111 -0.0416 -0.0373
57728DOD     C217004  16.067   4.680  11.602 -0.5151 -0.1303  0.1387
57728DOD     C317005  15.920   5.123  11.639 -0.2260  0.4914 -0.0122
57729DOD     C117006  25.712   0.370  17.733  0.0652 -0.2400  0.0679
57729DOD     C217007  25.580   0.535  17.270 -0.1614 -0.2434  0.0016
57729DOD     C317008  25.390   0.338  16.913 -0.0526 -0.1708 -0.3468
57730DOD     C117009  17.702  13.620  11.064 -0.4665  0.3901 -0.0681
57730DOD     C217010  18.059  13.826  11.170  0.0055  0.2284  0.1275
57730DOD     C317011  18.516  13.954  11.203  0.0010 -0.0857  0.2211
57731DOD     C117012  16.739  20.396   7.948  0.0988 -0.0449  0.0058
57731DOD     C217013  16.300  20.242   8.014  0.0061  0.0404 -0.2437
57731DOD     C317014  15.959  19.955   7.933  0.5336 -0.1927  0.2878
57732DOD     C117015   3.749  11.375  23.234  0.1296  0.1180  0.2957
57732DOD     C217016   3.410  11.609  23.380 -0.2872 -0.1280  0.0851
57732DOD     C317017   3.391  11.567  23.861 -0.1184 -0.0393 -0.1189
57733DOD     C117018  25.870  24.417  28.103 -0.1456  0.2523  0.1992
57733DOD     C217019  25.733  24.007  28.313  0.0798  0.0500  0.0213
57733DOD     C317020  25.627  23.640  28.600  0.2161 -0.1553 -0.1861
57734DOD     C117021  16.309  14.471  13.529 -0.0451  0.0809  0.1402
57734DOD     C217022  16.067  14.833  13.605  0.1230 -0.2739  0.1757
57734DOD     C317023  16.188  15.285  13.418 -0.4551  0.3139 -0.0071
57735DOD     C117024   3.021   4.447  26.399  0.0699 -0.1470 -0.3194
57735DOD     C217025   2.976   4.850  26.655  0.1448 -0.4152 -0.1115
57735DOD     C317026   2.679   5.112  27.005  0.0074 -0.4388  0.0682
57736DOD     C117027   9.879  10.418  12.587  0.3692  0.0404  0.0601
57736DOD     C217028  10.331  10.503  12.435  0.1865  0.2110 -0.0674
57736DOD     C317029  10.842  10.536  12.372  0.0714 -0.2126  0.2205
57737DOD     C117030  23.768  21.500  25.891  0.4395 -0.0332  0.2014
57737DOD     C217031  24.078  21.273  25.649 -0.2374  0.3191  0.2837
57737DOD     C317032  24.484  21.066  25.535  0.0207  0.0230 -0.0678
57738DOD     C117033   7.883   0.077   5.015  0.0162 -0.2929  0.0097
57738DOD     C217034   7.544  30.079   4.938 -0.0254  0.2467  0.1011
57738DOD     C317035   7.292  29.706   4.912  0.2475 -0.1807  0.2520
57739DOD     C117036  13.513  13.823  18.237 -0.0473  0.3046  0.3029
57739DOD     C217037  13.551  14.151  17.834  0.0269 -0.1120 -0.1559
57739DOD     C317038  13.717  14.431  17.567  0.0531 -0.0293  0.1455
57740DOD     C117039   7.372  25.578  10.905 -0.2218  0.0462 -0.0725
57740DOD     C217040   7.234  26.058  10.781  0.0506 -0.3028  0.0905
57740DOD     C317041   7.338  26.477  10.482 -0.1307  0.1824  0.6165
57741DOD     C117042  25.250  21.638  10.774  0.0291 -0.0225 -0.2710
57741DOD     C217043  25.228  21.200  10.846 -0.1851 -0.1349 -0.0069
57741DOD     C317044  25.352  20.797  11.035  0.1550  0.0124  0.2939
57742DOD     C117045  15.326   6.084   6.206 -0.1137 -0.2855  0.1942
57742DOD     C217046  15.578   6.158   6.659 -0.1726 -0.0264  0.2772
57742DOD     C317047  15.670   6.237   7.096 -0.1611  0.0779 -0.2064
57743DOD     C117048  18.297   1.373   9.623  0.4838 -0.3158 -0.0457
57743DOD     C217049  17.904   1.659   9.647 -0.1188 -0.1373 -0.1854
57743DOD     C317050  17.781   1.908   9.279  0.0048 -0.2153 -0.0074
57744DOD     C117051  20.165  23.994   6.652  0.0803  0.1674 -0.1148
57744DOD     C217052  19.877  24.277   6.949 -0.2592 -0.0613  0.1276
57744DOD     C317053  19.458  24.480   6.770  0.0584  0.0313 -0.0824
57745DOD     C117054   5.588  21.597  14.753  0.1304 -0.1141 -0.0119
57745DOD     C217055   5.595  21.539  14.275 -0.0729 -0.0207 -0.1471
57745DOD     C317056   5.952  21.555  13.994 -0.2518 -0.0115  0.2924
57746DOD     C117057   3.945  21.326   4.623  0.0731  0.4330 -0.0901
57746DOD     C217058   4.171  21.018   4.356 -0.0969 -0.1682 -0.0579
57746DOD     C317059   4.233  20.583   4.504  0.0598  0.0123 -0.0883
57747DOD     C117060  17.524   5.658  21.418 -0.1418  0.0499 -0.0928
57747DOD     C217061  17.279   5.975  21.197  0.1434 -0.1105 -0.1489
57747DOD     C317062  17.192   6.384  21.114  0.0915 -0.3677 -0.1497
57748DOD     C117063   2.667  18.566  25.709 -0.2267 -0.1310  0.0370
57748DOD     C217064   2.224  18.436  25.720  0.1300 -0.3140 -0.0271
57748DOD     C317065   1.754  18.164  25.734 -0.2274  0.1097  0.2856
57749DOD     C117066  16.546  22.254  22.904  0.1925 -0.1967  0.0963
57749DOD     C217067  16.565  21.818  22.622 -0.1206  0.1825 -0.0250
57749DOD     C317068  16.741  21.701  22.264 -0.0150 -0.3412 -0.2559
57750DOD     C117069  22.983   4.193  15.654  0.1423  0.0947  0.0956
57750DOD     C217070  22.813   3.940  16.024  0.0525 -0.0295 -0.1635
57750DOD     C317071  22.466   3.752  16.100 -0.0305 -0.1514  0.0298
57751DOD     C117072  11.046   6.445   9.353 -0.1379 -0.3287 -0.0546
57751DOD     C217073  10.652   6.338   9.132 -0.0583 -0.0267 -0.0618
57751DOD     C317074  10.158   6.332   9.081 -0.2496  0.1385  0.0645
57752DOD     C117075  20.908  21.251  28.083  0.3088  0.1067  0.3343
57752DOD     C217076  21.065  20.841  28.307  0.0593  0.2068  0.2029
57752DOD     C317077  21.449  20.767  28.571 -0.0554 -0.1630 -0.0279
57753DOD     C117078  20.470  18.206  29.610  0.3424 -0.2489  0.1449
57753DOD     C217079  20.886  18.329  29.460  0.3825 -0.2328 -0.0883
57753DOD     C317080  21.104  18.388  29.022 -0.2118 -0.0494  0.0498
57754DOD     C117081   6.452  24.861  25.157  0.0742  0.2633 -0.0560
57754DOD     C217082   6.094  24.653  24.925  0.0247 -0.0151 -0.0414
57754DOD     C317083   5.870  24.810  24.553 -0.0080 -0.1193  0.1831
57755DOD     C117084  13.939   5.939  11.548 -0.1881 -0.2316  0.1788
57755DOD     C217085  13.833   5.706  11.132  0.0661 -0.0743  0.1445
57755DOD     C317086  13.914   5.723  10.665  0.0319  0.2683 -0.1751
57756DOD     C117087  20.723   6.833  20.602 -0.0478  0.1475  0.1119
57756DOD     C217088  20.481   6.599  20.933  0.2732  0.0152 -0.2517
57756DOD     C317089  20.608   6.143  21.030 -0.0857 -0.4416  0.0885
57757DOD     C117090  16.054  23.886   2.895  0.2574  0.0080 -0.0540
57757DOD     C217091  15.625  23.989   2.882  0.1514  0.0657 -0.1755
57757DOD     C317092  15.176  23.812   2.988  0.3542  0.3403  0.2416
57758DOD     C117093   8.219  11.518  13.626  0.2448  0.0301  0.2338
57758DOD     C217094   8.355  11.346  14.079 -0.0690  0.0588  0.0895
57758DOD     C317095   8.416  11.078  14.495  0.4166  0.1820 -0.2047
57759DOD     C117096  14.376  26.453  28.655 -0.0231  0.2354  0.1451
57759DOD     C217097  14.042  26.047  28.730 -0.0383 -0.0143 -0.2609
57759DOD     C317098  13.705  25.739  28.733  0.1669 -0.0332  0.0914
57760DOD     C117099  12.490  14.416   7.993  0.0573  0.0564 -0.2841
57760DOD     C217100  12.820  14.646   8.192 -0.2901 -0.2499  0.1967
57760DOD     C317101  12.871  14.745   8.637 -0.0984 -0.2043  0.0242
57761DOD     C117102  15.956  27.261  21.911  0.1160  0.0474 -0.0512
57761DOD     C217103  15.713  26.855  22.067 -0.2635 -0.2741  0.0770
57761DOD     C317104  15.588  26.490  22.315 -0.1066  0.0355  0.2028
57762DOD     C117105   3.972  16.167  21.692 -0.1832 -0.0588  0.0953
57762DOD     C217106   3.681  15.892  21.397  0.0726  0.2229 -0.0433
57762DOD     C317107   3.272  15.764  21.191  0.3749  0.0045 -0.0736
57763DOD     C117108   8.045   1.723  23.720  0.1613 -0.0660  0.0731
57763DOD     C217109   8.264   2.154  23.679  0.1376 -0.0964 -0.1039
57763DOD     C317110   8.553   2.537  23.636  0.1467 -0.1326  0.0617
57764DOD     C117111   2.357  11.394   0.178  0.1199 -0.1844  0.0208
57764DOD     C217112   2.351  10.941   0.213  0.1141  0.2994 -0.0033
57764DOD     C317113   2.197  10.586   0.490 -0.2302  0.0121  0.0696
57765DOD     C117114  19.959  27.797   7.117  0.2509  0.0227 -0.1573
57765DOD     C217115  20.155  27.822   7.529 -0.3844  0.0188  0.1220
57765DOD     C317116  20.084  28.102   7.899 -0.2943  0.0366 -0.2223
57766DOD     C117117  21.121   4.738   6.364  0.0665  0.1033  0.1681
57766DOD     C217118  21.037   4.372   6.057 -0.0914  0.0845  0.0338
57766DOD     C317119  20.971   3.944   5.990  0.0040 -0.2074 -0.0141
57767DOD     C117120  26.160  27.652  27.819 -0.2058  0.2003 -0.2282
57767DOD     C217121  25.973  27.440  28.158 -0.1108 -0.1163  0.0248
57767DOD     C317122  25.722  27.554  28.530  0.3042  0.1114  0.2895
57768DOD     C117123   2.339  28.539  18.799 -0.1551 -0.2640 -0.0420
57768DOD     C217124   2.618  28.803  19.086 -0.1598  0.1331  0.1019
57768DOD     C317125   2.625  28.960  19.460 -0.1141 -0.1714 -0.2570
57769DOD     C117126  16.794   4.098  23.106  0.0427  0.0099  0.1397
57769DOD     C217127  17.176   4.138  23.369  0.1524 -0.1980  0.3470
57769DOD     C317128  17.355   3.825  23.624  0.0992 -0.0417  0.0998
57770DOD     C117129  24.715  11.997  28.897  0.2069  0.0458  0.1370
57770DOD     C217130  24.325  11.794  29.105 -0.3280  0.0155 -0.0322
57770DOD     C317131  23.922  11.766  28.946  0.2032 -0.0090  0.1138
57771DOD     C117132   3.680   8.039   9.730  0.1317  0.0582  0.0519
57771DOD     C217133   3.724   7.965   9.230 -0.2822 -0.0406  0.1096
57771DOD     C317134   3.985   7.929   8.768 -0.3050 -0.0330  0.0091
57772DOD     C117135   7.244  20.969  15.524 -0.0310  0.1047 -0.0229
57772DOD     C217136   7.565  20.606  15.345 -0.1592  0.1107  0.0703
57772DOD     C317137   7.945  20.296  15.444  0.2157  0.1864  0.1235
57773DOD     C117138   4.560   1.648  16.568 -0.0130  0.0149  0.0586
57773DOD     C217139   4.814   1.455  16.939 -0.0573 -0.0670  0.1243
57773DOD     C317140   5.187   1.185  17.127  0.1279 -0.1715  0.1207
57774DOD     C117141  17.246  17.574  27.201 -0.1055 -0.0239 -0.0938
57774DOD     C217142  17.099  18.034  27.318  0.2083 -0.0821  0.1456
57774DOD     C317143  17.038  18.522  27.350 -0.0729 -0.0835  0.3314
57775DOD     C117144  12.433   3.651  16.377  0.1480  0.0723  0.0112
57775DOD     C217145  12.161   3.758  15.976  0.1142 -0.0054 -0.0815
57775DOD     C317146  11.966   3.968  15.620  0.3043  0.0193  0.0468
57776DOD     C117147  29.926  13.457  26.636 -0.1509  0.3824  0.1126
57776DOD     C217148  30.132  13.305  27.066 -0.2736  0.1785  0.3366
57776DOD     C317149  30.183  13.356  27.534  0.2902 -0.0889 -0.1293
57777DOD     C117150  22.228   4.655  24.628 -0.0088 -0.0591  0.1232
57777DOD     C217151  22.221   5.142  24.427 -0.1156  0.1657 -0.3168
57777DOD     C317152  22.497   5.422  24.231  0.0163  0.0100 -0.3245
57778DOD     C117153   7.462  20.926   7.268 -0.0031 -0.0974  0.1222
57778DOD     C217154   7.898  20.929   7.111  0.1462 -0.0242 -0.0786
57778DOD     C317155   8.149  20.708   6.793  0.1968 -0.1169 -0.0306
57779DOD     C117156   2.201   1.441  17.515 -0.0002  0.1502  0.0054
57779DOD     C217157   1.865   1.161  17.726  0.0685  0.2066 -0.0189
57779DOD     C317158   1.599   0.927  18.026  0.1316  0.0224  0.1825
57780DOD     C117159  11.548  12.453   9.248  0.0963  0.0127 -0.0154
57780DOD     C217160  11.494  12.937   9.329 -0.1609 -0.1559 -0.0109
57780DOD     C317161  11.455  13.413   9.355  0.0069  0.0941  0.0027
57781DOD     C117162   5.673   9.111  26.023 -0.1159  0.4131 -0.2481
57781DOD     C217163   5.510   8.622  26.050 -0.0203  0.2809 -0.2504
57781DOD     C317164   5.056   8.557  25.948 -0.0309  0.1480  0.1527
57782DOD     C117165  19.240  28.417  18.741  0.2529 -0.0397  0.1221
57782DOD     C217166  18.990  28.728  18.600  0.2026 -0.0826  0.3440
57782DOD     C317167  18.720  28.830  18.260  0.3588  0.0210  0.1108
57783DOD     C117168  10.739  15.270  21.687  0.2758 -0.0898  0.0377
57783DOD     C217169  10.753  15.211  22.124  0.1066 -0.0813 -0.2416
57783DOD     C317170  10.855  15.196  22.598  0.0366  0.0573  0.0098
57784DOD     C117171   0.893  22.757  23.540  0.2889  0.2192 -0.0496
57784DOD     C217172   1.089  22.949  23.121  0.2624  0.3165 -0.2370
57784DOD     C317173   1.432  22.936  22.757  0.1683  0.0589  0.0033
57785DOD     C117174   3.120  16.833  20.464 -0.1754  0.0270  0.0635
57785DOD     C217175   2.845  16.441  20.483  0.2725 -0.0586  0.1343
57785DOD     C317176   2.581  16.201  20.131  0.2182 -0.1883 -0.1018
57786DOD     C117177  16.184   8.011  17.826 -0.1551 -0.0991  0.0145
57786DOD     C217178  15.738   7.945  17.792  0.0246  0.5543 -0.0844
57786DOD     C317179  15.256   7.745  17.949 -0.1748 -0.0486 -0.1899
57787DOD     C117180  29.428   5.440   7.865 -0.0797 -0.2611 -0.2682
57787DOD     C217181  29.615   5.719   7.538  0.3360  0.0616  0.0886
57787DOD     C317182  29.855   6.078   7.313  0.2596 -0.1053 -0.1063
57788DOD     C117183  23.571  27.026   9.884 -0.2751  0.1717  0.0083
57788DOD     C217184  23.318  26.944  10.350  0.0272 -0.0910  0.2614
57788DOD     C317185  22.895  27.114  10.507 -0.5121  0.2109  0.0006
57789DOD     C117186  21.163  15.078  17.131 -0.0136 -0.0520 -0.4561
57789DOD     C217187  21.056  14.838  16.774  0.2198  0.0843  0.0786
57789DOD     C317188  20.868  14.476  16.569 -0.0499 -0.1244  0.1060
57790DOD     C117189  29.485   1.972   6.111 -0.1751  0.1012  0.1674
57790DOD     C217190  29.268   1.938   5.696 -0.0420  0.0412  0.1944
57790DOD     C317191  28.855   1.981   5.533  0.1548 -0.2090 -0.0727
57791DOD     C117192  12.185  15.906   9.395  0.3713  0.0890 -0.1345
57791DOD     C217193  12.182  16.298   9.549  0.0929  0.2653  0.1293
57791DOD     C317194  12.060  16.353  10.006  0.0128 -0.0840  0.0195
57792DOD     C117195   5.823  14.756  27.735  0.1537 -0.3467 -0.2058
57792DOD     C217196   5.939  14.304  27.774 -0.1820 -0.1252 -0.0422
57792DOD     C317197   6.374  14.164  27.844  0.1813  0.4726  0.1597
57793DOD     C117198  25.637   6.495  18.757 -0.0927  0.0441  0.0785
57793DOD     C217199  25.947   6.813  18.877  0.1654  0.0144 -0.0063
57793DOD     C317200  26.267   6.843  19.203  0.1475 -0.0379 -0.3859
57794DOD     C117201  22.133   2.836  15.211  0.2662  0.2815 -0.2970
57794DOD     C217202  22.382   2.528  15.443  0.0211  0.5859 -0.0543
57794DOD     C317203  22.665   2.313  15.694 -0.1136 -0.1668  0.0605
57795DOD     C117204  14.623  27.322  24.880 -0.4004 -0.1958  0.2415
57795DOD     C217205  14.970  27.021  24.975  0.0443 -0.3409 -0.2098
57795DOD     C317206  15.289  26.715  25.101 -0.2098  0.1623 -0.0455
57796DOD     C117207  23.244  16.010   7.256 -0.1384 -0.1259  0.0453
57796DOD     C217208  23.478  16.391   7.437 -0.1926  0.0973 -0.0853
57796DOD     C317209  23.844  16.687   7.503  0.0418 -0.2462 -0.0918
57797DOD     C117210  15.908  17.161  19.166 -0.0259  0.2730 -0.0076
57797DOD     C217211  16.110  17.557  19.003  0.1897 -0.0826  0.1494
57797DOD     C317212  16.012  17.993  18.846 -0.1012 -0.1856 -0.2205
57798DOD     C117213  12.389  19.974  14.129 -0.0020 -0.2615 -0.0345
57798DOD     C217214  12.728  20.123  14.397 -0.0832 -0.1875  0.0703
57798DOD     C317215  13.067  20.378  14.308 -0.3599  0.0721 -0.1416
57799DOD     C117216  19.846   1.651  16.956  0.0929 -0.0240  0.0049
57799DOD     C217217  20.183   1.986  16.791  0.0544  0.2643 -0.1977
57799DOD     C317218  20.339   2.357  16.707  0.1237  0.2376  0.3444
57800DOD     C117219   1.060  27.490  16.731 -0.1338 -0.0272 -0.0240
57800DOD     C217220   1.117  27.035  16.927  0.0479 -0.0054  0.1016
57800DOD     C317221   1.313  26.608  16.809  0.3007  0.0157 -0.0676
57801DOD     C117222  28.573  27.103  15.085  0.2208 -0.1190  0.0899
57801DOD     C217223  28.534  27.559  15.065 -0.2351 -0.1207 -0.6850
57801DOD     C317224  28.335  27.932  15.145  0.0747  0.0275  0.0303
57802DOD     C117225   5.704  24.901   4.457  0.1008 -0.0352  0.0702
57802DOD     C217226   5.878  25.196   4.161 -0.3965 -0.1015  0.0774
57802DOD     C317227   6.226  25.327   3.887  0.1690  0.1276  0.3477
57803DOD     C117228  23.514  21.071  28.539 -0.2521 -0.1181  0.0930
57803DOD     C217229  23.861  21.185  28.869 -0.2647  0.1542 -0.0788
57803DOD     C317230  24.097  21.568  28.998 -0.0871  0.2753  0.1012
57804DOD     C117231  21.983  25.787  25.264 -0.0256 -0.0479  0.3435
57804DOD     C217232  21.852  26.218  25.418  0.1347 -0.0102 -0.2108
57804DOD     C317233  21.680  26.632  25.355 -0.3060  0.2072  0.1155
57805DOD     C117234   3.404  19.088  29.274 -0.0443 -0.0276 -0.2009
57805DOD     C217235   3.031  19.299  29.427  0.3150  0.0242  0.1268
57805DOD     C317236   2.724  19.148  29.756  0.0886 -0.3881  0.1104
57806DOD     C117237  25.298   0.216  13.127  0.1201  0.1441  0.0113
57806DOD     C217238  25.415   0.090  12.699 -0.0534 -0.0609 -0.0253
57806DOD     C317239  25.746   0.123  12.311  0.2283  0.0197  0.3290
57807DOD     C117240  13.935   7.257  20.980 -0.0071 -0.0392 -0.2425
57807DOD     C217241  13.840   6.796  21.155 -0.2386  0.1326  0.0496
57807DOD     C317242  13.786   6.627  21.578  0.0491 -0.1109  0.0475
57808DOD     C117243  13.719  10.644   3.576  0.0701  0.2165  0.2970
57808DOD     C217244  13.483  11.115   3.614 -0.0679  0.0271 -0.1813
57808DOD     C317245  13.142  11.264   3.322 -0.0349 -0.1534  0.1792
57809DOD     C117246  11.812  28.056  10.437  0.3457  0.0137 -0.0659
57809DOD     C217247  11.770  27.544  10.489 -0.2973 -0.0122 -0.1089
57809DOD     C317248  11.954  27.127  10.640  0.0951  0.0396 -0.1288
57810DOD     C117249  15.564  12.499  13.681 -0.2037  0.0223  0.3154
57810DOD     C217250  15.211  12.843  13.523 -0.1237  0.0354  0.0015
57810DOD     C317251  15.017  13.229  13.251 -0.4330 -0.2455  0.0071
57811DOD     C117252  29.077  17.888   6.332  0.0133  0.1011  0.1566
57811DOD     C217253  29.002  18.245   6.073  0.1052 -0.3474 -0.1178
57811DOD     C317254  28.797  18.688   6.006 -0.4141  0.1196 -0.1553
57812DOD     C117255   7.090  16.301  11.585 -0.3659 -0.0587 -0.0301
57812DOD     C217256   6.903  16.426  11.135 -0.1022  0.1447 -0.1310
57812DOD     C317257   6.794  16.821  10.897 -0.0791  0.0776 -0.0460
57813DOD     C117258  23.542  23.469  12.410  0.0734 -0.0483 -0.4691
57813DOD     C217259  23.371  23.452  12.853  0.2075  0.0969 -0.3942
57813DOD     C317260  23.119  23.618  13.195  0.1569  0.2233  0.0590
57814DOD     C117261   5.075   6.533  23.982  0.1485  0.1811 -0.0455
57814DOD     C217262   4.843   6.351  24.329 -0.3488 -0.0604  0.0684
57814DOD     C317263   4.627   6.339  24.827  0.0686  0.0077 -0.0566
57815DOD     C117264  24.478  14.110   7.429  0.0319  0.3070 -0.4540
57815DOD     C217265  24.929  14.102   7.257 -0.2147 -0.3528 -0.0219
57815DOD     C317266  25.148  14.151   6.828  0.1509  0.3236  0.0799
57816DOD     C117267  11.388  13.940  23.855 -0.0805 -0.1367 -0.0327
57816DOD     C217268  11.372  13.778  24.264  0.0686 -0.0302 -0.0941
57816DOD     C317269  11.234  13.492  24.621  0.0761 -0.0034 -0.2443
57817DOD     C117270   0.465   9.588  25.457  0.0405 -0.0426 -0.1647
57817DOD     C217271   0.286   9.570  25.887  0.1412 -0.2861  0.0461
57817DOD     C317272   0.467   9.790  26.277 -0.0204 -0.1251  0.3951
57818DOD     C117273  20.528   3.802   4.530  0.0431  0.1944 -0.0693
57818DOD     C217274  20.423   4.223   4.693 -0.0823  0.1447  0.2001
57818DOD     C317275  20.309   4.700   4.584  0.2424  0.1365  0.0168
57819DOD     C117276  23.556  25.182   4.242 -0.0010  0.1575 -0.0851
57819DOD     C217277  23.378  25.609   4.279 -0.0692  0.2115 -0.0162
57819DOD     C317278  23.067  25.843   4.051  0.1549  0.0839 -0.0694
57820DOD     C117279  10.803  28.123  19.867  0.1035 -0.0800 -0.0600
57820DOD     C217280  11.206  28.126  19.714  0.0931  0.1891 -0.1912
57820DOD     C317281  11.628  28.273  19.625 -0.3705  0.3431  0.2404
57821DOD     C117282   7.488  17.070   6.486 -0.3544 -0.2353  0.0110
57821DOD     C217283   7.406  17.342   6.826 -0.0292  0.1170 -0.1183
57821DOD     C317284   7.567  17.466   7.284 -0.3392  0.0704 -0.1586
57822DOD     C117285  11.524   9.737   1.711  0.1460  0.2067 -0.1655
57822DOD     C217286  11.209   9.554   1.971  0.0240 -0.1008  0.1284
57822DOD     C317287  10.908   9.439   2.284  0.1492 -0.1797 -0.1574
57823DOD     C117288  11.006   9.189   9.030 -0.4267  0.2736 -0.2949
57823DOD     C217289  10.873   8.758   9.191  0.0327  0.1507  0.1476
57823DOD     C317290  10.516   8.480   9.217 -0.2532  0.0231 -0.1596
57824DOD     C117291  29.857  27.209  26.851 -0.2042  0.2725  0.2129
57824DOD     C217292  30.249  27.213  27.095 -0.0802  0.1719  0.1848
57824DOD     C317293   0.334  26.983  27.026  0.1139  0.1699 -0.2124
57825DOD     C117294  27.893  20.003  22.524  0.3184  0.1330  0.2476
57825DOD     C217295  28.167  20.054  22.119 -0.1026 -0.2060 -0.0368
57825DOD     C317296  28.605  19.943  21.983 -0.1654  0.0011  0.1046
57826DOD     C117297  24.311   9.781  23.197 -0.0233 -0.2301  0.1047
57826DOD     C217298  24.074  10.176  23.122  0.1837  0.0062 -0.1580
57826DOD     C317299  24.009  10.492  23.446 -0.0449  0.3191 -0.1161
57827DOD     C117300  23.066  10.280  18.771 -0.0038 -0.1727 -0.3792
57827DOD     C217301  22.802  10.250  18.385  0.0103  0.2015  0.2283
57827DOD     C317302  22.433  10.340  18.124  0.1587  0.1995 -0.2218
57828DOD     C117303   3.537  20.759  22.501  0.0989  0.1725 -0.5414
57828DOD     C217304   3.132  20.692  22.734 -0.0129 -0.0808  0.1986
57828DOD     C317305   3.246  20.691  23.216  0.2028 -0.0023  0.1145
57829DOD     C117306  17.336  16.525   5.018 -0.0785  0.1467 -0.1167
57829DOD     C217307  17.135  16.328   5.446  0.0991  0.0214 -0.1634
57829DOD     C317308  17.147  16.187   5.901 -0.0101  0.2019  0.0885
57830DOD     C117309  23.848  26.346  22.536  0.2573  0.1972 -0.1465
57830DOD     C217310  23.844  26.521  22.967 -0.0734  0.2088 -0.0181
57830DOD     C317311  23.679  26.561  23.431 -0.0159  0.0603  0.1226
57831DOD     C117312  14.495   2.190  22.154  0.0009  0.1581 -0.0158
57831DOD     C217313  14.118   2.527  22.169  0.1109 -0.0602  0.0368
57831DOD     C317314  14.136   3.018  22.148 -0.0779  0.1112  0.2762
57832DOD     C117315  21.102  18.666  25.382 -0.0705  0.1426  0.2300
57832DOD     C217316  21.162  18.508  24.958 -0.1013  0.0927  0.3486
57832DOD     C317317  21.112  18.776  24.599  0.1327 -0.1360  0.1491
57833DOD     C117318   3.614  26.428   7.815  0.4372 -0.2732  0.0512
57833DOD     C217319   3.875  26.263   8.105  0.7360 -0.1481 -0.0763
57833DOD     C317320   4.234  25.981   8.148  0.0097  0.0663  0.0574
57834DOD     C117321   7.115  24.250  18.132  0.1953 -0.0223  0.1370
57834DOD     C217322   6.767  24.378  17.854 -0.0640 -0.5234  0.1153
57834DOD     C317323   6.708  24.474  17.424  0.2423 -0.0543  0.0825
57835DOD     C117324  17.944  28.179  15.794 -0.1635  0.1858 -0.1732
57835DOD     C217325  17.574  28.278  15.515 -0.0290  0.0399  0.0531
57835DOD     C317326  17.187  28.318  15.258 -0.4770  0.1210 -0.0513
57836DOD     C117327  30.079  25.349   7.162 -0.0854  0.1694  0.0508
57836DOD     C217328   0.085  25.051   6.987 -0.1163  0.0029 -0.0870
57836DOD     C317329   0.575  24.917   6.933  0.3783 -0.2815  0.2915
57837DOD     C117330   4.355  25.533  26.702 -0.0834 -0.4353 -0.3400
57837DOD     C217331   4.693  25.864  26.717  0.1077  0.1322 -0.1985
57837DOD     C317332   5.196  25.804  26.810  0.0884 -0.0683 -0.0574
57838DOD     C117333   6.370  10.305  28.277  0.1521  0.1103 -0.0024
57838DOD     C217334   5.911  10.358  28.291 -0.0894  0.0166  0.1784
57838DOD     C317335   5.539  10.440  28.538 -0.1784  0.0008 -0.1815
57839DOD     C117336   2.610   4.800  14.632  0.4614 -0.4370  0.0137
57839DOD     C217337   2.716   5.112  15.022  0.0619  0.4550  0.2179
57839DOD     C317338   2.886   5.276  15.443  0.1878  0.2353 -0.0507
57840DOD     C117339   5.082  14.219  26.921 -0.0300  0.3301 -0.0561
57840DOD     C217340   4.980  14.693  26.996  0.0945  0.3074  0.1529
57840DOD     C317341   4.726  15.011  27.162  0.4025  0.1415  0.0256
57841DOD     C117342  27.017  22.558  18.938 -0.3548  0.0916  0.0299
57841DOD     C217343  26.674  22.323  19.152 -0.0997  0.1102  0.1125
57841DOD     C317344  26.553  22.200  19.561 -0.0453 -0.0236  0.0536
57842DOD     C117345  27.564  19.278  21.632  0.1942  0.1278 -0.0613
57842DOD     C217346  27.386  19.013  21.252 -0.1212 -0.0558 -0.1047
57842DOD     C317347  27.104  18.691  21.182  0.0392  0.1070  0.0603
57843DOD     C117348  17.362   0.816  25.540  0.0629 -0.0834 -0.3021
57843DOD     C217349  17.680   0.491  25.395 -0.0982 -0.0499  0.0913
57843DOD     C317350  17.612   0.200  25.058  0.0553  0.0265  0.1058
57844DOD     C117351  17.721   8.622   2.171 -0.3209 -0.0403 -0.1171
57844DOD     C217352  17.988   8.807   1.859 -0.0393 -0.3059 -0.1379
57844DOD     C317353  18.199   9.240   1.774 -0.1880  0.2307 -0.0695
57845DOD     C117354  16.830  19.630  25.378  0.0082  0.3046 -0.0390
57845DOD     C217355  16.942  19.931  25.041 -0.2536 -0.1937 -0.0393
57845DOD     C317356  17.255  20.095  24.744 -0.1779  0.1168 -0.0721
57846DOD     C117357  13.475  22.473  18.081  0.3294 -0.1164  0.2930
57846DOD     C217358  13.448  22.261  17.603 -0.0195 -0.0127 -0.1569
57846DOD     C317359  13.761  22.416  17.302 -0.0590  0.0853 -0.2182
57847DOD     C117360  19.908  23.651   1.423  0.0319 -0.2209 -0.3990
57847DOD     C217361  20.154  23.879   1.180  0.0293 -0.1854  0.1823
57847DOD     C317362  20.574  23.844   1.353  0.0041 -0.1708 -0.1093
57848DOD     C117363   5.858  29.959  13.063 -0.0013  0.0356 -0.2312
57848DOD     C217364   6.114   0.008  13.020  0.4515  0.0583 -0.4040
57848DOD     C317365   6.268   0.378  12.796 -0.1895  0.2784  0.0091
57849DOD     C117366   5.959   2.472  24.492  0.1036  0.0563  0.2712
57849DOD     C217367   5.659   2.370  24.195 -0.2431  0.1620  0.1722
57849DOD     C317368   5.174   2.215  24.146 -0.0852  0.1585 -0.0304
57850DOD     C117369  17.129  11.701   1.677 -0.1363  0.0213 -0.2490
57850DOD     C217370  17.347  11.288   1.610 -0.1899  0.1492  0.0040
57850DOD     C317371  17.373  10.897   1.389  0.0492 -0.0130  0.0471
57851DOD     C117372  26.040  20.735  20.734  0.4169  0.3687  0.1141
57851DOD     C217373  26.186  20.714  20.285  0.2929  0.1754 -0.2393
57851DOD     C317374  26.520  20.833  20.052  0.0634 -0.2205 -0.2734
57852DOD     C117375   8.439  19.813  30.090  0.2761  0.0536  0.0123
57852DOD     C217376   8.426  20.253  30.244 -0.1922  0.1406 -0.2352
57852DOD     C317377   8.042  20.556  30.241  0.0807 -0.1208 -0.2508
57853DOD     C117378   2.601  23.309  26.639  0.0724 -0.0069 -0.0484
57853DOD     C217379   2.710  23.114  27.072 -0.1085  0.1259  0.4067
57853DOD     C317380   2.803  22.663  27.181  0.0842  0.1685 -0.1569
57854DOD     C117381  16.536  11.310  21.619  0.2502 -0.3455 -0.0397
57854DOD     C217382  16.989  11.193  21.703  0.0699 -0.3592  0.0137
57854DOD     C317383  17.266  11.010  21.995 -0.1768 -0.1066  0.1833
57855DOD     C117384  27.028  26.148  29.190  0.2242  0.1407  0.1186
57855DOD     C217385  26.836  26.509  29.444 -0.0787 -0.3326  0.1758
57855DOD     C317386  26.775  26.931  29.664 -0.1226 -0.1253  0.2077
57856DOD     C117387  19.150   1.097  26.034  0.1617  0.1131 -0.2197
57856DOD     C217388  19.524   1.187  25.832 -0.1151 -0.0026 -0.1269
57856DOD     C317389  19.761   1.581  25.750  0.1948  0.3709  0.1646
57857DOD     C117390   3.428   3.689  10.324  0.3317 -0.2193 -0.2316
57857DOD     C217391   3.016   3.458  10.362  0.4974  0.0725  0.2113
57857DOD     C317392   2.723   3.148  10.158 -0.2653  0.3173  0.3338
57858DOD     C117393  15.449   8.493  16.653  0.0508  0.1711  0.0132
57858DOD     C217394  15.480   8.314  17.056 -0.1134  0.0146 -0.0626
57858DOD     C317395  15.775   8.001  17.247  0.4717  0.1213  0.0937
57859DOD     C117396  23.440  11.528  19.328 -0.0237 -0.1270  0.0179
57859DOD     C217397  23.240  11.934  19.278  0.2250 -0.1702 -0.0070
57859DOD     C317398  22.985  12.374  19.186 -0.1064  0.2074  0.0494
57860DOD     C117399  26.561  12.564  21.699  0.0842 -0.2033  0.2631
57860DOD     C217400  26.195  12.434  21.328  0.0080 -0.1053 -0.0380
57860DOD     C317401  25.891  12.227  21.031 -0.2316 -0.0919 -0.0098
57861DOD     C117402   7.278   3.353  21.479 -0.0756 -0.1652 -0.0716
57861DOD     C217403   7.620   3.399  21.804  0.3444 -0.0425  0.1914
57861DOD     C317404   7.843   3.508  22.192  0.1670 -0.2560 -0.0062
57862DOD     C117405  25.963  19.566  14.259  0.3495  0.1629  0.1299
57862DOD     C217406  25.869  19.234  13.898  0.1452  0.1420 -0.1213
57862DOD     C317407  26.065  18.792  13.849 -0.1624  0.2529 -0.2272
57863DOD     C117408   4.244  22.592   6.149 -0.1887 -0.1415 -0.1559
57863DOD     C217409   3.865  22.232   6.096  0.2433 -0.0493  0.0217
57863DOD     C317410   3.566  21.928   5.868  0.0713  0.3635  0.1444
57864DOD     C117411   3.395   6.733   9.732 -0.0837 -0.0646  0.2303
57864DOD     C217412   3.004   6.606   9.870 -0.1031  0.1033  0.2007
57864DOD     C317413   2.716   6.239   9.936  0.0722 -0.0556 -0.0704
57865DOD     C117414   8.458   7.971  14.512  0.1186 -0.2346 -0.1754
57865DOD     C217415   8.345   7.958  14.981 -0.1787 -0.3559  0.1182
57865DOD     C317416   8.430   7.693  15.335  0.2892 -0.0589 -0.3216
57866DOD     C117417   1.334  15.478  28.958  0.1042  0.0852  0.0551
57866DOD     C217418   1.054  15.683  28.629  0.2250 -0.2051  0.1849
57866DOD     C317419   0.596  15.780  28.506 -0.2502 -0.1222 -0.2991
57867DOD     C117420  27.422  15.555  30.090  0.2685  0.1057 -0.0254
57867DOD     C217421  27.095  15.267  30.207 -0.1195  0.0967 -0.1945
57867DOD     C317422  26.658  15.088  30.041  0.1374  0.7575 -0.1701
57868DOD     C117423  11.344  27.792  26.194 -0.0209  0.2734  0.1153
57868DOD     C217424  11.001  27.523  26.457 -0.2011  0.0407  0.0019
57868DOD     C317425  10.870  27.464  26.864  0.0649 -0.0490  0.1727
57869DOD     C117426  13.790  15.514  18.351  0.0212  0.2705 -0.0509
57869DOD     C217427  13.488  15.726  18.046  0.0324 -0.1745  0.2660
57869DOD     C317428  13.186  15.969  17.853  0.1756  0.2169 -0.0039
57870DOD     C117429  29.680  16.798  22.430  0.0756  0.0697 -0.2068
57870DOD     C217430  30.044  17.110  22.357  0.1396 -0.1733 -0.1523
57870DOD     C317431   0.047  17.439  22.377 -0.1580 -0.0090  0.1460
57871DOD     C117432  21.916  29.125   5.457 -0.0304  0.2454  0.1467
57871DOD     C217433  22.155  29.453   5.724 -0.1413  0.2774 -0.3275
57871DOD     C317434  22.408  29.366   6.127 -0.3057 -0.2928 -0.3760
57872DOD     C117435  16.205  12.055  11.457  0.0427  0.0183  0.1490
57872DOD     C217436  15.899  11.674  11.477  0.1120  0.1988 -0.0847
57872DOD     C317437  15.446  11.576  11.343 -0.0307  0.0273 -0.2771
57873DOD     C117438  19.882  15.172  13.726  0.0258  0.0055  0.0618
57873DOD     C217439  19.805  14.716  13.708 -0.2214 -0.0623  0.0818
57873DOD     C317440  19.634  14.417  14.055  0.1067 -0.1320 -0.0949
57874DOD     C117441   3.298  23.413  28.065 -0.1698 -0.4603 -0.0220
57874DOD     C217442   3.401  23.825  27.870 -0.1155  0.1392  0.0524
57874DOD     C317443   3.464  24.112  27.483 -0.2302 -0.1660  0.0663
57875DOD     C117444   7.148   8.891  27.871 -0.0836  0.3389  0.0251
57875DOD     C217445   7.237   9.173  27.484  0.0308 -0.0317  0.3022
57875DOD     C317446   7.174   9.230  26.995  0.1175 -0.0580 -0.3731
57876DOD     C117447  15.943  13.633  18.393 -0.0569 -0.0541  0.2445
57876DOD     C217448  15.866  13.433  18.027  0.3066  0.2330  0.0237
57876DOD     C317449  15.982  13.335  17.605 -0.1489 -0.0662  0.0725
57877DOD     C117450  12.788  19.048   0.128 -0.0958  0.1896  0.3296
57877DOD     C217451  12.582  18.674   0.323 -0.0467  0.0237 -0.0475
57877DOD     C317452  12.418  18.423   0.671  0.2059  0.2133 -0.1600
57878DOD     C117453   9.928   1.581   6.028 -0.1158  0.2805 -0.2586
57878DOD     C217454   9.825   1.992   6.266 -0.4543 -0.0726 -0.1598
57878DOD     C317455   9.810   2.463   6.198 -0.1085  0.0937  0.3842
57879DOD     C117456   2.170  25.156   6.011 -0.0211 -0.0029  0.0200
57879DOD     C217457   2.528  24.914   5.864 -0.1945 -0.0354  0.1630
57879DOD     C317458   2.977  24.858   5.950 -0.2991  0.2163  0.4928
57880DOD     C117459  11.471  22.179  29.026  0.0740 -0.0088  0.0072
57880DOD     C217460  11.511  21.925  28.620 -0.6030 -0.0454  0.0302
57880DOD     C317461  11.783  21.861  28.225 -0.0726 -0.0416  0.0949
57881DOD     C117462  28.394   0.642   8.150  0.3118  0.2780 -0.3200
57881DOD     C217463  28.800   0.482   8.241  0.2850  0.2752  0.3893
57881DOD     C317464  28.829   0.555   8.703 -0.4033 -0.2448  0.0079
57882DOD     C117465  12.981   7.836  28.522  0.0992 -0.2302 -0.1899
57882DOD     C217466  12.774   8.027  28.878  0.4460  0.0204  0.1080
57882DOD     C317467  12.386   7.966  29.186 -0.0851 -0.0083  0.0988
57883DOD     C117468  14.294   5.609  17.942 -0.1078  0.3599 -0.1948
57883DOD     C217469  14.072   5.885  18.237 -0.0209  0.0968 -0.0461
57883DOD     C317470  13.989   6.371  18.313  0.2758 -0.0723  0.0963
57884DOD     C117471  27.991  13.553  20.581  0.4487 -0.0268 -0.3431
57884DOD     C217472  27.854  13.196  20.287 -0.3010 -0.1302 -0.0479
57884DOD     C317473  28.086  12.984  19.935  0.1955 -0.1214  0.1759
57885DOD     C117474  21.652  19.898   2.504 -0.1328  0.2544  0.3730
57885DOD     C217475  21.542  20.351   2.556 -0.0774 -0.1841  0.2823
57885DOD     C317476  21.467  20.799   2.390 -0.0087  0.3608  0.4185
57886DOD     C117477   5.818  15.746  14.067 -0.0989  0.0006  0.2879
57886DOD     C217478   5.862  15.622  14.509 -0.1358  0.3332 -0.1604
57886DOD     C317479   5.469  15.455  14.770 -0.1679  0.1798 -0.4045
57887DOD     C117480  22.443  22.453  14.118 -0.2015 -0.4259  0.2542
57887DOD     C217481  22.738  22.221  13.917  0.0569  0.2146 -0.0960
57887DOD     C317482  23.012  21.884  14.031 -0.1213 -0.1497  0.0092
57888DOD     C117483  13.582  29.313  17.290 -0.1901  0.0172  0.0512
57888DOD     C217484  13.276  28.970  17.208 -0.0926  0.0524 -0.0888
57888DOD     C317485  13.294  28.679  16.775  0.0619 -0.2038 -0.2066
57889DOD     C117486   2.823   9.882  24.423 -0.2036  0.2818  0.0856
57889DOD     C217487   2.556   9.674  24.076  0.1305  0.0930 -0.1696
57889DOD     C317488   2.497   9.695  23.588  0.0196  0.1991  0.2767
57890DOD     C117489   8.375  13.800  13.491 -0.3306 -0.2699  0.3810
57890DOD     C217490   8.097  13.716  13.907 -0.1886 -0.2368  0.1440
57890DOD     C317491   7.921  13.673  14.300 -0.2357 -0.0725 -0.3197
57891DOD     C117492  27.008  27.532  30.275  0.0320 -0.0206 -0.1380
57891DOD     C217493  27.315  27.210  30.106  0.0602  0.0775  0.2645
57891DOD     C317494  27.275  26.885  29.726  0.1705  0.0122 -0.3313
57892DOD     C117495  25.703  22.542   2.652 -0.1777 -0.2009  0.3230
57892DOD     C217496  25.499  22.716   3.048  0.0703  0.1049 -0.1243
57892DOD     C317497  25.640  22.889   3.443  0.0202  0.0814 -0.0203
57893DOD     C117498   3.173  26.740  22.705  0.2421  0.0093 -0.4166
57893DOD     C217499   3.478  26.466  22.559 -0.2074 -0.1813  0.2600
57893DOD     C317500   3.845  26.219  22.689  0.1995 -0.0761  0.2470
57894DOD     C117501  29.890  29.166  25.043  0.0496 -0.0534 -0.0283
57894DOD     C217502  29.885  28.875  25.442  0.1689 -0.1994  0.0748
57894DOD     C317503  29.675  28.462  25.572 -0.0076 -0.1198  0.2695
57895DOD     C117504  13.007  15.878  27.008 -0.0734  0.0509  0.5001
57895DOD     C217505  12.840  16.325  26.989  0.4050  0.0817  0.1253
57895DOD     C317506  12.683  16.743  26.995 -0.0467  0.4289  0.0655
57896DOD     C117507  14.436  18.328  20.041 -0.0831  0.0520  0.2171
57896DOD     C217508  14.172  18.542  19.722  0.3729 -0.0899  0.0020
57896DOD     C317509  13.846  18.819  19.556  0.2256 -0.1653 -0.0372
57897DOD     C117510   5.002   8.783   4.427  0.2417 -0.1948 -0.5628
57897DOD     C217511   4.668   9.165   4.304 -0.1022  0.1099 -0.1628
57897DOD     C317512   4.690   9.605   4.365  0.1014 -0.2495 -0.1021
57898DOD     C117513  17.725  25.264  28.633 -0.2460  0.1736 -0.1655
57898DOD     C217514  17.356  25.476  28.787 -0.0993  0.0557 -0.0340
57898DOD     C317515  16.973  25.691  28.901  0.1754  0.0416  0.2159
57899DOD     C117516  29.100   8.133   6.795 -0.0623  0.1061  0.0359
57899DOD     C217517  29.016   8.569   6.876 -0.0535 -0.0761 -0.0960
57899DOD     C317518  28.907   8.892   6.577 -0.0043 -0.0045 -0.0321
57900DOD     C117519   8.267   8.164   6.993  0.2750  0.0734 -0.0982
57900DOD     C217520   8.710   8.390   6.917 -0.0695  0.2452 -0.1744
57900DOD     C317521   9.064   8.575   6.659  0.1777  0.0060 -0.0960
57901DOD     C117522  28.164  12.955   2.311  0.1914  0.1093  0.0685
57901DOD     C217523  28.368  13.140   1.990  0.2790 -0.0096  0.0443
57901DOD     C317524  28.290  13.081   1.560  0.1305  0.2811  0.1524
57902DOD     C117525   2.377  27.690   5.341  0.4359  0.3380  0.1681
57902DOD     C217526   2.077  27.345   5.331  0.0289 -0.1155 -0.1031
57902DOD     C317527   1.645  27.232   5.472 -0.2113  0.0374  0.1323
57903DOD     C117528  19.311  16.547  23.603 -0.0182 -0.0163 -0.3519
57903DOD     C217529  19.626  16.253  23.440  0.0221 -0.1114  0.1101
57903DOD     C317530  19.900  16.071  23.753 -0.0725 -0.1163  0.2150
57904DOD     C117531  19.588   0.750  24.772  0.2269 -0.1691  0.0986
57904DOD     C217532  19.921   0.372  24.736  0.0432  0.2553 -0.0860
57904DOD     C317533  20.295   0.254  25.033  0.0383 -0.2732 -0.3418
57905DOD     C117534  11.215   3.935  26.112  0.0073 -0.2151 -0.0261
57905DOD     C217535  11.661   4.002  26.172 -0.0985  0.3022  0.0689
57905DOD     C317536  12.102   3.932  26.190 -0.0276  0.0346 -0.0249
57906DOD     C117537   1.621  15.960   5.526  0.2304 -0.0509  0.4681
57906DOD     C217538   1.923  15.705   5.728  0.1087 -0.0499 -0.1029
57906DOD     C317539   2.081  15.292   5.854 -0.2970 -0.0243  0.0202
57907DOD     C117540   8.887  18.325   2.019 -0.2256  0.2407 -0.4916
57907DOD     C217541   8.713  18.746   2.070  0.2122 -0.1271  0.0586
57907DOD     C317542   8.353  19.006   1.838  0.3611  0.0613 -0.1191
57908DOD     C117543   3.809  28.946   3.914 -0.3756 -0.1018 -0.1530
57908DOD     C217544   3.631  29.344   4.043 -0.1370  0.2238 -0.0419
57908DOD     C317545   3.908  29.733   4.101 -0.2657  0.0941 -0.3866
57909DOD     C117546   9.521  21.588  17.271 -0.5328  0.1267  0.2689
57909DOD     C217547   9.520  22.044  17.196  0.0468 -0.0404 -0.1874
57909DOD     C317548   9.440  22.534  17.191 -0.0858 -0.0146 -0.1216
57910DOD     C117549  15.944   6.771  11.269  0.2543 -0.1226 -0.2315
57910DOD     C217550  15.825   7.169  11.136 -0.5314 -0.2699 -0.0700
57910DOD     C317551  15.828   7.531  10.916 -0.0476 -0.1976 -0.0753
57911DOD     C117552   7.612  26.767   1.551 -0.1320 -0.1648 -0.2527
57911DOD     C217553   7.284  26.637   1.882 -0.0027 -0.0700 -0.3764
57911DOD     C317554   7.122  26.532   2.304 -0.0963  0.4052  0.2046
57912DOD     C117555  21.474  29.586  11.235 -0.3059  0.2363  0.2262
57912DOD     C217556  21.849  29.361  11.393  0.0401  0.0371 -0.0361
57912DOD     C317557  22.218  29.457  11.732  0.0373  0.1221 -0.0963
57913DOD     C117558   2.697   5.693  18.315  0.1537 -0.1216  0.0578
57913DOD     C217559   2.905   5.277  18.267  0.3134 -0.0755  0.1763
57913DOD     C317560   3.298   5.136  18.170  0.1148  0.0297 -0.2425
57914DOD     C117561  26.376  12.735  17.785 -0.2751  0.3890 -0.0346
57914DOD     C217562  26.022  13.027  17.723  0.1516  0.1743  0.1497
57914DOD     C317563  25.720  13.405  17.672  0.3120 -0.0765 -0.0862
57915DOD     C117564  20.042  27.871  14.347 -0.2418 -0.1628  0.0385
57915DOD     C217565  19.878  27.699  14.745  0.0811 -0.1273  0.3089
57915DOD     C317566  19.495  27.576  15.040 -0.0502  0.1860  0.1895
57916DOD     C117567   2.185  20.297  17.071 -0.1511  0.1070  0.2561
57916DOD     C217568   1.726  20.142  16.982 -0.0249 -0.0029 -0.1949
57916DOD     C317569   1.448  20.020  16.583 -0.1753 -0.0656 -0.1562
57917DOD     C117570  21.781   4.770   0.666 -0.1305  0.1792  0.0425
57917DOD     C217571  22.028   4.695   1.071 -0.0277 -0.2193  0.0681
57917DOD     C317572  22.435   4.855   1.153  0.2150  0.0873  0.1803
57918DOD     C117573  13.761  28.037   3.329  0.2337  0.0084 -0.0201
57918DOD     C217574  14.170  28.094   3.397 -0.1073 -0.0880 -0.2073
57918DOD     C317575  14.637  28.056   3.520 -0.0656  0.4890  0.1348
57919DOD     C117576   2.420   4.443   7.949 -0.2850  0.1335 -0.0571
57919DOD     C217577   2.335   4.859   7.742  0.0497  0.0345  0.0997
57919DOD     C317578   2.504   5.310   7.697  0.1432  0.3528  0.0533
57920DOD     C117579  15.850   8.452  14.888  0.0775 -0.0746  0.0689
57920DOD     C217580  15.562   8.275  14.617 -0.0702  0.1027 -0.1345
57920DOD     C317581  15.264   7.922  14.663  0.0619 -0.2630  0.5018
57921DOD     C117582  17.346  11.252   2.702  0.3704  0.0596 -0.1388
57921DOD     C217583  17.023  11.176   3.009 -0.3624 -0.0720  0.0274
57921DOD     C317584  16.704  10.987   3.285  0.0551  0.1415  0.0377
57922DOD     C117585  21.535  21.510  14.322  0.0051 -0.4424 -0.0835
57922DOD     C217586  21.164  21.229  14.320 -0.0644  0.2799  0.2492
57922DOD     C317587  20.673  21.114  14.316 -0.0575  0.4172 -0.1575
57923DOD     C117588  20.064  23.280  15.913  0.1640  0.0347 -0.1954
57923DOD     C217589  19.728  23.548  15.760 -0.0517 -0.0686  0.0392
57923DOD     C317590  19.278  23.356  15.728  0.1270  0.0569 -0.0035
57924DOD     C117591  16.195   3.364   0.800 -0.1171  0.1162 -0.0270
57924DOD     C217592  16.543   3.657   0.891  0.0799  0.1357 -0.0523
57924DOD     C317593  16.989   3.743   0.872 -0.0349 -0.0883 -0.3291
57925DOD     C117594  19.462  11.900   6.960  0.1611  0.0446  0.2321
57925DOD     C217595  18.986  11.817   6.811  0.0421 -0.0022  0.0549
57925DOD     C317596  18.585  11.669   6.655 -0.0469 -0.1866 -0.1518
57926DOD     C117597  27.546  20.877  15.052 -0.1657 -0.1962  0.1531
57926DOD     C217598  27.734  21.207  15.250  0.1954 -0.4267  0.1293
57926DOD     C317599  28.117  21.393  15.415 -0.1525 -0.1105 -0.0653
57927DOD     C117600  19.407  18.332  12.699  0.0961  0.0013  0.0535
57927DOD     C217601  18.972  18.510  12.568  0.1245  0.1303  0.0010
57927DOD     C317602  18.555  18.490  12.719  0.4081  0.2222  0.2733
57928DOD     C117603  15.729   9.182   9.388  0.0957 -0.0711 -0.5201
57928DOD     C217604  16.066   9.096   9.053  0.1527 -0.1347 -0.0740
57928DOD     C317605  16.402   9.051   8.700  0.1349  0.0630 -0.1158
57929DOD     C117606  20.451  17.395   4.391  0.1225  0.1417 -0.1270
57929DOD     C217607  20.744  17.108   4.337 -0.2710 -0.4761  0.1122
57929DOD     C317608  21.207  17.058   4.259  0.2672 -0.0440  0.2492
57930DOD     C117609   3.965   1.763  21.368 -0.0500  0.3735  0.0321
57930DOD     C217610   4.092   2.040  21.741 -0.1977 -0.0315  0.1063
57930DOD     C317611   4.445   2.145  21.988 -0.1403  0.1986  0.0630
57931DOD     C117612   9.874   6.229  16.872 -0.0787  0.0813 -0.1521
57931DOD     C217613  10.202   6.427  16.697  0.0188 -0.1549  0.0306
57931DOD     C317614  10.408   6.783  16.497 -0.1006  0.1973  0.1001
57932DOD     C117615  10.993  26.515  29.328  0.0960 -0.0838 -0.0795
57932DOD     C217616  11.133  26.466  28.886  0.1556  0.1475  0.0054
57932DOD     C317617  11.009  26.262  28.493 -0.1471 -0.1352  0.1869
57933DOD     C117618   9.672  10.870   5.301 -0.2181 -0.1861 -0.0971
57933DOD     C217619   9.536  10.667   5.686  0.1172  0.1282  0.1868
57933DOD     C317620   9.573  10.734   6.125 -0.3541  0.0490 -0.1048
57934DOD     C117621  13.190  10.276  21.158  0.2112 -0.1549  0.0489
57934DOD     C217622  12.782  10.138  21.024 -0.0472  0.0623 -0.0798
57934DOD     C317623  12.606   9.705  21.081  0.1536  0.0333  0.1555
57935DOD     C117624  18.144  29.127  28.191 -0.0870  0.0492 -0.1983
57935DOD     C217625  17.732  29.079  27.902  0.1453 -0.0885 -0.0682
57935DOD     C317626  17.372  29.069  27.565 -0.1643 -0.0334  0.0241
57936DOD     C117627  13.223  26.405  20.730  0.0217  0.3149 -0.0100
57936DOD     C217628  12.888  26.057  20.893 -0.3117  0.3126  0.0314
57936DOD     C317629  12.494  25.916  21.078  0.2009  0.2994  0.0249
57937DOD     C117630   3.143  26.658  22.161 -0.1944  0.3539 -0.2629
57937DOD     C217631   3.121  26.200  22.268  0.2079 -0.0932  0.1505
57937DOD     C317632   3.352  25.908  22.568 -0.0447  0.1207  0.2757
57938DOD     C117633  22.177  26.876  13.100  0.1068 -0.0748  0.3281
57938DOD     C217634  22.462  27.173  12.862  0.1594  0.2463 -0.3835
57938DOD     C317635  22.731  27.344  12.514  0.2065  0.0908 -0.1105
57939DOD     C117636  28.668   9.654  13.658 -0.1278 -0.1013 -0.0676
57939DOD     C217637  28.672   9.265  13.969  0.1412 -0.0148  0.2048
57939DOD     C317638  29.026   8.958  14.087  0.0280  0.0781  0.3610
57940DOD     C117639  29.631   8.359  15.007 -0.2741  0.1469 -0.0517
57940DOD     C217640  29.675   8.032  15.299 -0.1413 -0.2677  0.0422
57940DOD     C317641  30.012   7.925  15.561 -0.0785 -0.1021 -0.0433
57941DOD     C117642   5.418   0.959   7.266  0.0374  0.1807 -0.1226
57941DOD     C217643   5.648   0.663   6.929  0.1554  0.3533 -0.0059
57941DOD     C317644   5.795   0.229   6.807  0.0364 -0.5920 -0.1671
57942DOD     C117645  15.170  10.387  16.326 -0.1618  0.0867  0.2415
57942DOD     C217646  15.224  10.716  16.658 -0.0170 -0.1094  0.1496
57942DOD     C317647  15.459  11.025  16.890 -0.0558 -0.2281 -0.0002
57943DOD     C117648   7.659  14.919   8.026  0.0413 -0.0082  0.2776
57943DOD     C217649   7.259  14.974   8.292 -0.1679  0.0502  0.1138
57943DOD     C317650   6.943  14.635   8.391 -0.2424  0.1341  0.1716
57944DOD     C117651   2.308  16.857   6.636 -0.0346 -0.0900  0.1607
57944DOD     C217652   2.542  16.590   6.337 -0.1746  0.2291 -0.0167
57944DOD     C317653   2.833  16.509   5.980  0.0830  0.1146  0.0546
57945DOD     C117654  17.145  27.369   1.354  0.1280 -0.0153  0.2226
57945DOD     C217655  17.093  27.581   0.938  0.0350 -0.2794  0.0968
57945DOD     C317656  17.176  28.013   0.716 -0.1614 -0.0659  0.1219
57946DOD     C117657  28.738  16.848  12.914 -0.1701 -0.1028  0.0626
57946DOD     C217658  28.950  17.085  12.548  0.1136 -0.0877  0.1148
57946DOD     C317659  29.020  17.511  12.340 -0.2872 -0.0684  0.0616
57947DOD     C117660  17.670  13.211  27.205 -0.1337  0.2178  0.1441
57947DOD     C217661  17.755  12.788  27.392 -0.2139 -0.0994 -0.0846
57947DOD     C317662  18.156  12.497  27.458  0.2839 -0.3124 -0.0314
57948DOD     C117663  22.848  26.935  21.053  0.1013  0.5906 -0.0495
57948DOD     C217664  22.492  26.989  21.335 -0.0516 -0.1128  0.0063
57948DOD     C317665  22.128  27.141  21.620  0.0482 -0.0982  0.0255
57949DOD     C117666  10.728   0.812  11.300 -0.0462 -0.2089 -0.2545
57949DOD     C217667  10.897   0.469  10.993 -0.0154  0.1214  0.0639
57949DOD     C317668  10.707   0.209  10.648 -0.1299 -0.3358  0.1079
57950DOD     C117669  23.962  21.924  25.384 -0.1946  0.0461 -0.1233
57950DOD     C217670  24.299  21.900  25.734  0.0862 -0.0630 -0.1810
57950DOD     C317671  24.353  22.126  26.173 -0.3627  0.2502  0.1647
57951DOD     C117672  26.343  23.309  21.527 -0.1917  0.1238  0.0644
57951DOD     C217673  26.313  23.525  21.097  0.0882  0.0153  0.0448
57951DOD     C317674  26.151  23.892  20.809  0.2142 -0.1063  0.0867
57952DOD     C117675  19.249  27.054  29.099  0.1272  0.1581  0.0649
57952DOD     C217676  18.856  27.317  29.074  0.0260  0.1005  0.2999
57952DOD     C317677  18.406  27.506  29.207  0.2374  0.2512  0.1718
57953DOD     C117678   4.226  10.337  18.801 -0.0259  0.0210 -0.0624
57953DOD     C217679   3.785  10.287  18.875 -0.3818 -0.0135 -0.2650
57953DOD     C317680   3.460  10.403  19.195  0.2397 -0.2826  0.0752
57954DOD     C117681  10.106   7.333  14.523 -0.3074  0.1546 -0.0826
57954DOD     C217682  10.491   7.342  14.226 -0.2591 -0.0282  0.1935
57954DOD     C317683  10.563   7.249  13.777 -0.0699  0.1158 -0.1225
57955DOD     C117684   5.087   1.620  14.215 -0.1959  0.0879 -0.0338
57955DOD     C217685   4.647   1.620  14.046  0.1006 -0.1095  0.0858
57955DOD     C317686   4.184   1.663  14.189  0.0869 -0.1169 -0.0285
57956DOD     C117687   3.159  25.390  14.271 -0.0448 -0.1518  0.3148
57956DOD     C217688   3.247  25.776  13.989  0.1537  0.2559 -0.1673
57956DOD     C317689   3.030  26.200  14.007  0.2913  0.0566  0.0587
57957DOD     C117690   6.055  17.796  13.888 -0.0054 -0.0131 -0.1350
57957DOD     C217691   6.473  17.609  14.041 -0.1205  0.0826  0.2674
57957DOD     C317692   6.612  17.193  14.080 -0.2587  0.0585 -0.3918
57958DOD     C117693  26.761  13.341  27.225  0.0770 -0.0280  0.2307
57958DOD     C217694  26.758  13.334  27.711 -0.1255 -0.2032  0.1814
57958DOD     C317695  26.929  13.063  28.041 -0.1515 -0.0914  0.1275
57959DOD     C117696  25.617  14.090   2.131 -0.2314 -0.0863  0.1865
57959DOD     C217697  25.771  14.541   2.098 -0.2046 -0.1953  0.0050
57959DOD     C317698  25.906  14.973   2.119  0.0246 -0.0878 -0.0679
57960DOD     C117699  12.991  13.552  16.033 -0.1589  0.0516  0.0359
57960DOD     C217700  12.837  13.104  15.974 -0.0198  0.0225 -0.0625
57960DOD     C317701  12.979  12.652  15.938 -0.1880  0.2856  0.1372
57961DOD     C117702  26.595  20.493  30.202 -0.2734 -0.1730 -0.2366
57961DOD     C217703  26.870  20.201   0.165  0.4207 -0.0433 -0.0947
57961DOD     C317704  27.004  19.746   0.261  0.1033  0.1227 -0.2541
57962DOD     C117705  21.070  26.357  18.185 -0.0371 -0.2006  0.1885
57962DOD     C217706  20.997  26.115  18.573 -0.2619  0.0014  0.2050
57962DOD     C317707  20.796  25.902  18.965  0.0742 -0.0737  0.0176
57963DOD     C117708  25.771   3.356  29.294 -0.0020  0.0371  0.2538
57963DOD     C217709  25.873   3.186  29.737 -0.0359 -0.0961  0.1661
57963DOD     C317710  25.667   3.247  30.181 -0.0157 -0.1956 -0.1852
57964DOD     C117711   2.167   6.380  14.470 -0.4711  0.0224 -0.2192
57964DOD     C217712   2.029   6.144  14.878  0.0596 -0.1144 -0.4867
57964DOD     C317713   1.794   6.050  15.314  0.4215  0.1877  0.4073
57965DOD     C117714   2.230  30.120   6.618 -0.3150 -0.1211 -0.1339
57965DOD     C217715   2.078   0.264   6.795  0.0954  0.2474 -0.1124
57965DOD     C317716   1.682   0.459   6.936  0.0538 -0.0781 -0.2828
57966DOD     C117717   7.376   3.191  22.184 -0.0214  0.2008  0.2805
57966DOD     C217718   7.200   3.573  22.344  0.0110  0.2548 -0.0863
57966DOD     C317719   6.743   3.702  22.534  0.0930  0.2612  0.1343
57967DOD     C117720  29.446  27.243  16.572  0.0994  0.1034 -0.2404
57967DOD     C217721  29.661  26.739  16.609 -0.0575 -0.3403  0.1090
57967DOD     C317722  29.831  26.458  16.268 -0.0352 -0.0022  0.0411
57968DOD     C117723  14.874   7.318  20.733  0.5723  0.1290  0.1687
57968DOD     C217724  15.191   7.443  20.930  0.0422 -0.2387 -0.1441
57968DOD     C317725  15.478   7.166  21.148  0.1804 -0.2197 -0.2543
57969DOD     C117726  29.749   9.174  20.626  0.2774 -0.2337  0.1530
57969DOD     C217727  29.623   8.886  20.939 -0.1423  0.0364 -0.1955
57969DOD     C317728  29.603   8.460  21.201  0.1131  0.0622 -0.1988
57970DOD     C117729  28.725  25.012   0.305 -0.0378 -0.1678 -0.0577
57970DOD     C217730  28.755  24.942  30.162  0.2224 -0.2178  0.2134
57970DOD     C317731  28.597  24.733  29.746 -0.5597 -0.1542  0.2028
57971DOD     C117732  24.027  27.156  13.199 -0.1968  0.1926 -0.1019
57971DOD     C217733  24.224  26.802  13.405 -0.1096 -0.2967 -0.2598
57971DOD     C317734  24.649  26.688  13.304  0.2233 -0.1263  0.1719
57972DOD     C117735  24.838  12.044   2.971  0.1235 -0.1404  0.0796
57972DOD     C217736  25.077  11.939   2.544 -0.0181 -0.1396 -0.3347
57972DOD     C317737  25.021  11.967   2.081  0.0552 -0.0809 -0.1669
57973DOD     C117738  13.122  13.200   1.668 -0.2671  0.0467 -0.2354
57973DOD     C217739  12.880  13.277   2.075 -0.1745  0.0781 -0.1321
57973DOD     C317740  12.395  13.385   2.159 -0.2475  0.1943  0.3432
57974DOD     C117741  24.597  12.572   0.168  0.1372  0.0516  0.0605
57974DOD     C217742  24.873  12.719   0.538  0.0218  0.1759  0.0925
57974DOD     C317743  25.240  12.608   0.780 -0.1888  0.3485 -0.0094
57975DOD     C117744   1.947  14.287  30.285  0.1007 -0.0175  0.1571
57975DOD     C217745   1.890  13.835  30.195  0.2286  0.0101  0.1112
57975DOD     C317746   1.921  13.540  29.767  0.1562  0.1240 -0.2146
57976DOD     C117747  21.753   1.896   7.432 -0.1045  0.0345 -0.0372
57976DOD     C217748  21.451   1.524   7.466 -0.0646 -0.1946  0.4218
57976DOD     C317749  21.266   1.079   7.499 -0.3548 -0.1778  0.1283
57977DOD     C117750  15.221  12.757  10.093  0.1444 -0.1264 -0.2756
57977DOD     C217751  15.612  12.572  10.074 -0.1446 -0.1685 -0.0242
57977DOD     C317752  15.913  12.209  10.261  0.0115 -0.2762  0.1892
57978DOD     C117753  18.504  14.081  13.830  0.1210  0.2093 -0.3830
57978DOD     C217754  18.892  13.799  13.871  0.2874 -0.0138 -0.3813
57978DOD     C317755  19.164  13.417  13.896 -0.2407 -0.3491 -0.2583
57979DOD     C117756  21.110   8.539   9.066  0.1166  0.1440 -0.3267
57979DOD     C217757  20.688   8.737   9.204  0.1027  0.4235  0.1606
57979DOD     C317758  20.330   8.599   9.543  0.0137  0.0364 -0.0462
57980DOD     C117759  16.217  26.209  23.762  0.3538 -0.0716  0.1246
57980DOD     C217760  15.980  25.843  23.623 -0.2355  0.0392  0.2715
57980DOD     C317761  15.986  25.457  23.316  0.0664  0.0412 -0.0809
57981DOD     C117762  22.642  24.226  23.728  0.3217  0.1749  0.0901
57981DOD     C217763  22.582  24.323  23.265  0.2766 -0.1011  0.1625
57981DOD     C317764  22.243  24.360  22.876 -0.0318  0.2680 -0.0759
57982DOD     C117765  16.038   1.074  19.039 -0.0952  0.0878 -0.1006
57982DOD     C217766  15.992   0.892  19.504 -0.0774  0.1364 -0.0740
57982DOD     C317767  16.295   0.762  19.854  0.1973  0.0372  0.4056
57983DOD     C117768  14.553  29.215  15.359 -0.0669  0.2737 -0.0929
57983DOD     C217769  14.630  29.112  15.800  0.5355  0.1917 -0.0085
57983DOD     C317770  14.868  28.886  16.147  0.1199 -0.4306 -0.1243
57984DOD     C117771   9.758   7.896  29.065  0.1093 -0.1351  0.0373
57984DOD     C217772   9.784   7.450  28.972 -0.2724 -0.0154  0.0941
57984DOD     C317773   9.900   7.008  29.053  0.0656  0.1750 -0.0261
57985DOD     C117774   9.290  10.671  22.005 -0.0141  0.1154  0.1891
57985DOD     C217775   9.222  10.221  21.861 -0.1377  0.0727  0.1132
57985DOD     C317776   9.311   9.802  22.053 -0.1150  0.1795 -0.1800
57986DOD     C117777   2.966  22.591  27.896  0.1343 -0.0418  0.5799
57986DOD     C217778   3.210  22.217  27.941  0.1085  0.1856 -0.3045
57986DOD     C317779   3.174  21.840  28.193  0.0766  0.1359  0.0422
57987DOD     C117780  17.850  17.428  16.522 -0.1411 -0.1265  0.0805
57987DOD     C217781  17.792  17.195  16.911  0.0571 -0.0247  0.3149
57987DOD     C317782  17.756  17.062  17.334  0.0221 -0.3040  0.3728
57988DOD     C117783   4.650   7.029  13.259  0.2089 -0.1586 -0.3276
57988DOD     C217784   4.455   7.506  13.251 -0.3426 -0.2697  0.1570
57988DOD     C317785   4.341   7.786  12.907  0.1270 -0.1807  0.2438
57989DOD     C117786  13.640   3.322  10.468 -0.0422  0.3062  0.2130
57989DOD     C217787  13.907   3.343  10.887 -0.0690  0.0964 -0.0415
57989DOD     C317788  14.079   3.295  11.319 -0.0051 -0.3023 -0.0478
57990DOD     C117789   9.776   9.748   0.338  0.1307 -0.0990  0.5066
57990DOD     C217790   9.347   9.704   0.158  0.0755 -0.0004  0.1996
57990DOD     C317791   9.182   9.353  30.204  0.2217  0.2005 -0.0246
57991DOD     C117792  25.478  13.893  10.959  0.1820  0.2776  0.0006
57991DOD     C217793  25.860  14.103  10.725 -0.1093 -0.0932 -0.1468
57991DOD     C317794  26.131  14.333  10.437  0.2831 -0.0030  0.0116
57992DOD     C117795  12.716   4.717  18.118 -0.3183  0.1326 -0.0880
57992DOD     C217796  13.044   4.547  17.868 -0.2120 -0.1841 -0.5225
57992DOD     C317797  13.454   4.543  17.722  0.0702  0.0580  0.1792
57993DOD     C117798  27.129   8.471  20.601  0.0282 -0.1116  0.4651
57993DOD     C217799  27.621   8.453  20.683  0.0335 -0.0063 -0.2136
57993DOD     C317800  27.924   8.831  20.763 -0.1843 -0.1320 -0.3518
57994DOD     C117801  25.767   7.465  21.290 -0.5001  0.2420  0.2817
57994DOD     C217802  25.452   7.115  21.213  0.3509 -0.0330  0.1815
57994DOD     C317803  25.483   6.673  21.022 -0.0730  0.0873  0.3038
57995DOD     C117804  25.034   0.749  27.508  0.3246  0.2877 -0.4445
57995DOD     C217805  24.643   0.694  27.233 -0.1155 -0.0446  0.2037
57995DOD     C317806  24.224   0.679  27.368  0.3415 -0.0226 -0.2894
57996DOD     C117807   4.689  24.265   1.844  0.0259  0.0377 -0.2662
57996DOD     C217808   4.288  24.335   1.662  0.1021  0.0002 -0.0019
57996DOD     C317809   4.166  24.196   1.240  0.0280 -0.2989  0.1456
57997DOD     C117810  15.309   9.011  26.911 -0.0736  0.0758  0.0871
57997DOD     C217811  15.373   8.670  26.581 -0.3561  0.1158 -0.1117
57997DOD     C317812  15.561   8.358  26.261  0.2537 -0.1974  0.1361
57998DOD     C117813  26.444  16.593  29.605 -0.1033 -0.0331 -0.1788
57998DOD     C217814  26.216  16.145  29.598  0.0024 -0.1813  0.2109
57998DOD     C317815  25.896  15.805  29.543  0.1572 -0.2983  0.0416
57999DOD     C117816  16.036  20.340  26.312 -0.1327  0.2652 -0.1602
57999DOD     C217817  15.866  20.770  26.542  0.0963  0.2650  0.0565
57999DOD     C317818  15.826  21.176  26.837 -0.3379 -0.1422 -0.3864
58000DOD     C117819   9.863  24.326  29.158 -0.1372  0.1324 -0.0332
58000DOD     C217820   9.449  24.340  29.039 -0.0438 -0.0265  0.0643
58000DOD     C317821   9.156  24.147  29.327 -0.0790 -0.2090 -0.2759
58001DOD     C117822   8.527  13.205  12.312 -0.1307 -0.1903  0.0013
58001DOD     C217823   8.867  13.207  11.940 -0.0299  0.0835 -0.1446
58001DOD     C317824   8.909  12.901  11.532 -0.0538 -0.4253  0.0481
58002DOD     C117825   7.455  25.892  25.312 -0.2279  0.1372 -0.2571
58002DOD     C217826   7.386  26.030  24.896  0.0597  0.1382  0.0851
58002DOD     C317827   7.006  26.061  24.627 -0.0956 -0.0573  0.2489
58003DOD     C117828   1.346   6.274  20.479 -0.3933  0.0231 -0.1049
58003DOD     C217829   1.192   6.002  20.812 -0.0654 -0.1222 -0.1396
58003DOD     C317830   1.202   5.822  21.206  0.2669  0.0245  0.3230
58004DOD     C117831   5.409  24.064  11.681  0.0016 -0.0310 -0.1074
58004DOD     C217832   5.301  24.282  11.273 -0.1988  0.0253 -0.0602
58004DOD     C317833   5.185  24.639  11.035  0.1328 -0.0530  0.0349
58005DOD     C117834  15.845  21.055  19.566 -0.1224 -0.0586  0.0126
58005DOD     C217835  15.917  21.471  19.742 -0.0265  0.1033  0.2058
58005DOD     C317836  15.900  21.904  19.625 -0.0037 -0.0510 -0.0350
58006DOD     C117837  13.367   3.902  22.098 -0.4254 -0.0966  0.3549
58006DOD     C217838  13.218   3.611  22.414 -0.0369 -0.3718  0.2656
58006DOD     C317839  12.862   3.553  22.717  0.0301 -0.3926  0.0179
58007DOD     C117840   7.089  27.132  25.460 -0.0075  0.0340 -0.0530
58007DOD     C217841   6.963  26.919  25.091  0.2777 -0.0001  0.1895
58007DOD     C317842   7.144  26.975  24.652 -0.1430 -0.0366  0.1576
58008DOD     C117843   5.567  14.436   1.251 -0.0025  0.1773  0.1018
58008DOD     C217844   5.848  14.794   1.234  0.0144  0.0846  0.4093
58008DOD     C317845   6.297  14.779   1.291 -0.0243  0.1071  0.3162
58009DOD     C117846  23.263  24.365   5.739 -0.2242 -0.3212  0.2512
58009DOD     C217847  23.658  24.210   5.479 -0.2580  0.3447  0.0351
58009DOD     C317848  24.060  23.987   5.614 -0.1704 -0.2617  0.2042
58010DOD     C117849  23.364  28.966   7.635  0.3733 -0.4499  0.2337
58010DOD     C217850  23.760  29.111   7.632 -0.2787 -0.3043  0.0832
58010DOD     C317851  24.168  28.901   7.713  0.1106 -0.1662 -0.1635
58011DOD     C117852   9.411  -0.011  20.500 -0.3693 -0.0775  0.1377
58011DOD     C217853   9.505   0.455  20.321  0.0183  0.1560  0.1732
58011DOD     C317854   9.557   0.923  20.334 -0.0717 -0.1009 -0.2288
58012DOD     C117855  21.365  12.624  17.345 -0.1307 -0.3310  0.0390
58012DOD     C217856  21.113  12.675  17.771 -0.1162  0.1991  0.2035
58012DOD     C317857  20.966  13.147  17.993  0.0109 -0.0110  0.1405
58013DOD     C117858  30.046  15.872  20.210  0.3393 -0.0548 -0.1290
58013DOD     C217859  29.643  15.664  20.385  0.0823 -0.1401  0.0301
58013DOD     C317860  29.363  15.375  20.599 -0.0827 -0.1457 -0.0427
58014DOD     C117861   6.291  21.860   9.892  0.0223 -0.0035  0.3745
58014DOD     C217862   5.894  21.669   9.775 -0.2409  0.1980 -0.1229
58014DOD     C317863   5.692  21.373  10.159 -0.0249 -0.0039 -0.2238
58015DOD     C117864  14.173   9.633   8.589 -0.1419 -0.1329 -0.1012
58015DOD     C217865  14.425   9.584   8.233  0.0524  0.2107 -0.0613
58015DOD     C317866  14.785   9.603   7.987  0.0020 -0.2241 -0.1649
58016DOD     C117867   5.296  12.646  22.555  0.2086 -0.2710  0.0197
58016DOD     C217868   4.821  12.564  22.521  0.0134  0.0124 -0.2106
58016DOD     C317869   4.423  12.490  22.300  0.1989 -0.1244 -0.0888
58017DOD     C117870   2.983   3.990  20.534 -0.1064  0.2014  0.3092
58017DOD     C217871   2.551   4.254  20.481  0.0414 -0.1478  0.4353
58017DOD     C317872   2.360   4.686  20.601 -0.3015  0.1594 -0.3131
58018DOD     C117873  15.357   3.419  22.228  0.1873  0.1666  0.0795
58018DOD     C217874  15.693   3.712  22.195  0.3701 -0.0141  0.0725
58018DOD     C317875  16.115   3.787  22.101 -0.4926 -0.2068 -0.0393
58019DOD     C117876   0.550  10.201  10.112  0.3874 -0.2106 -0.0777
58019DOD     C217877   0.290  10.587  10.171 -0.5301 -0.0082 -0.2055
58019DOD     C317878   0.510  10.957   9.960 -0.1505  0.1985  0.1818
58020DOD     C117879   8.032  18.818  16.203 -0.2697 -0.1690  0.1893
58020DOD     C217880   8.076  18.723  16.696  0.0795  0.1483  0.0951
58020DOD     C317881   8.325  18.797  17.147 -0.2815  0.1194  0.2012
58021DOD     C117882   7.671  10.041  13.442  0.3005 -0.2441  0.0223
58021DOD     C217883   7.537  10.468  13.221  0.1168 -0.1030 -0.1354
58021DOD     C317884   7.521  10.887  13.019  0.0855 -0.0786  0.2297
58022DOD     C117885  21.892  26.822  11.479  0.1333  0.2792 -0.1865
58022DOD     C217886  22.095  26.446  11.248  0.1606 -0.0293  0.0220
58022DOD     C317887  22.206  26.163  10.922  0.0650 -0.3051 -0.2053
58023DOD     C117888  12.023  10.601  25.253  0.2390 -0.1122  0.0815
58023DOD     C217889  11.658  10.568  24.951 -0.2936 -0.2366 -0.2483
58023DOD     C317890  11.459  10.798  24.579 -0.0557  0.2169  0.0924
58024DOD     C117891  12.770   9.195  13.820  0.4675 -0.0592 -0.2097
58024DOD     C217892  12.893   9.360  13.414  0.0649  0.1123 -0.2600
58024DOD     C317893  12.869   9.619  12.969 -0.3210  0.0339 -0.1571
58025DOD     C117894  17.606  18.234  12.494  0.1721  0.1290 -0.2876
58025DOD     C217895  17.266  17.896  12.660 -0.2558 -0.0762  0.0493
58025DOD     C317896  17.372  17.543  12.975 -0.3772 -0.1250  0.0834
58026DOD     C117897   9.934  10.647  14.549  0.0994  0.0561  0.0037
58026DOD     C217898   9.866  11.143  14.510  0.0729  0.0695  0.1893
58026DOD     C317899  10.042  11.496  14.727  0.0657 -0.0635  0.2457
58027DOD     C117900   8.244  20.284  25.564 -0.3167  0.2124  0.2615
58027DOD     C217901   8.145  20.011  25.926 -0.1464  0.0938  0.0787
58027DOD     C317902   8.075  19.725  26.287 -0.0437 -0.2108 -0.2351
58028DOD     C117903  13.990   4.357  23.264 -0.0088 -0.2336  0.2650
58028DOD     C217904  14.469   4.467  23.276  0.3128 -0.0259  0.1349
58028DOD     C317905  14.794   4.203  23.044 -0.4933 -0.0754  0.0715
58029DOD     C117906  25.603  17.397   9.467  0.0311  0.2106 -0.0883
58029DOD     C217907  25.244  17.079   9.476 -0.3781 -0.1488 -0.0492
58029DOD     C317908  24.975  16.890   9.250 -0.1428 -0.2397 -0.0524
58030DOD     C117909  29.093   7.018  17.147 -0.0295  0.0074  0.1184
58030DOD     C217910  29.096   6.668  16.875  0.1173  0.1339 -0.2634
58030DOD     C317911  29.396   6.454  16.555  0.0805  0.0960 -0.0086
58031DOD     C117912  20.452  22.588   5.316 -0.0828  0.0496 -0.1023
58031DOD     C217913  20.403  22.416   4.867  0.1100 -0.0327  0.1838
58031DOD     C317914  20.257  22.063   4.551 -0.2873 -0.3568  0.1324
58032DOD     C117915  17.445   6.339   0.365 -0.2461 -0.0715  0.2070
58032DOD     C217916  17.771   6.413   0.014 -0.2961 -0.0014 -0.0410
58032DOD     C317917  17.994   6.384  29.946 -0.2336 -0.0784  0.1852
58033DOD     C117918   8.924  19.982   5.638 -0.0165  0.5066  0.2982
58033DOD     C217919   9.086  20.317   5.392 -0.2725  0.0610 -0.0965
58033DOD     C317920   9.471  20.566   5.207  0.0458  0.1484  0.2552
58034DOD     C117921  17.270  24.835  20.503  0.0190  0.0603 -0.2165
58034DOD     C217922  17.566  24.835  20.874 -0.2600  0.0497 -0.1126
58034DOD     C317923  18.001  24.651  20.984  0.2882  0.0497  0.0648
58035DOD     C117924  27.962   3.640   6.491  0.0668 -0.0219  0.1702
58035DOD     C217925  28.353   3.538   6.733 -0.1915  0.0850 -0.1979
58035DOD     C317926  28.521   3.135   6.718  0.0732  0.3101 -0.0559
58036DOD     C117927   4.223  24.305   7.969  0.0812 -0.0374 -0.0176
58036DOD     C217928   4.153  23.841   8.032 -0.1906  0.2528  0.4070
58036DOD     C317929   3.886  23.461   8.188 -0.0528 -0.2985  0.0151
58037DOD     C117930   2.572  19.679  14.520  0.1421  0.0775 -0.1017
58037DOD     C217931   2.806  19.780  14.109  0.0806  0.0326 -0.3668
58037DOD     C317932   2.918  19.416  13.861 -0.0492 -0.2304 -0.0758
58038DOD     C117933   2.721   2.941  15.827 -0.0232 -0.0817  0.0199
58038DOD     C217934   2.692   3.136  16.278 -0.0341  0.0899 -0.1441
58038DOD     C317935   2.829   3.391  16.639 -0.0293 -0.3585  0.1178
58039DOD     C117936   0.223  24.273  19.631  0.2304  0.1890  0.1072
58039DOD     C217937   0.691  24.241  19.488 -0.2213 -0.0625 -0.2094
58039DOD     C317938   0.983  23.947  19.339 -0.1998  0.0880  0.0119
58040DOD     C117939  22.629  11.601  24.251 -0.3042 -0.0134 -0.0336
58040DOD     C217940  22.227  11.446  24.443 -0.2535  0.0962  0.0476
58040DOD     C317941  21.907  11.307  24.768 -0.2494 -0.0454  0.1416
58041DOD     C117942  11.568  21.104  12.624 -0.1259  0.3209  0.0401
58041DOD     C217943  11.146  20.878  12.771 -0.1780  0.1066  0.2582
58041DOD     C317944  10.738  20.568  12.759  0.1792  0.2188 -0.1620
58042DOD     C117945  10.604  25.701  13.094  0.1273  0.1998 -0.1582
58042DOD     C217946  11.055  25.670  13.264  0.2637 -0.5515 -0.3233
58042DOD     C317947  11.112  25.601  13.742  0.3207 -0.0742  0.3105
58043DOD     C117948  24.304  13.184   6.708 -0.0850 -0.1336 -0.2622
58043DOD     C217949  24.107  13.197   7.161 -0.3805  0.0457  0.2451
58043DOD     C317950  23.792  12.974   7.372  0.1017 -0.0079 -0.1677
58044DOD     C117951  29.966  28.431  12.448 -0.1162  0.1450 -0.0267
58044DOD     C217952  30.026  28.010  12.547 -0.1598  0.1046 -0.2565
58044DOD     C317953  30.028  27.582  12.715  0.0664 -0.0365 -0.0547
58045DOD     C117954  23.692  22.910   8.966  0.3088  0.1125  0.1541
58045DOD     C217955  23.354  23.216   9.031 -0.1994  0.3068 -0.2700
58045DOD     C317956  23.151  23.661   9.107  0.0068  0.3128 -0.2811
58046DOD     C117957   1.488   3.590  24.995  0.4531 -0.1301 -0.1511
58046DOD     C217958   1.350   3.550  24.555  0.2541  0.2774  0.1821
58046DOD     C317959   1.444   3.180  24.255  0.0810  0.0945  0.1866
58047DOD     C117960   2.024  17.411   6.210 -0.0696 -0.3078 -0.1630
58047DOD     C217961   1.833  17.869   6.246 -0.3757 -0.0781  0.3564
58047DOD     C317962   1.502  18.185   6.259  0.0530 -0.1125 -0.2185
58048DOD     C117963  21.170   9.206   3.653  0.1879  0.2163  0.0299
58048DOD     C217964  21.126   9.062   3.203  0.3883 -0.1982  0.0276
58048DOD     C317965  21.199   9.087   2.768  0.0196 -0.0880  0.1922
58049DOD     C117966   0.202  28.923   3.886 -0.1248  0.2762 -0.0685
58049DOD     C217967   0.065  28.543   3.975  0.0886 -0.0843 -0.0419
58049DOD     C317968  30.008  28.384   4.268 -0.1402 -0.1693  0.1234
58050DOD     C117969   9.940  15.426   3.340  0.1680  0.0966 -0.0577
58050DOD     C217970   9.719  15.383   3.758  0.3946 -0.3183 -0.1576
58050DOD     C317971   9.292  15.382   3.898 -0.1133 -0.0428 -0.0290
58051DOD     C117972  13.097  24.396  14.528 -0.0895  0.3594 -0.1358
58051DOD     C217973  13.193  24.790  14.845  0.0383  0.1322  0.0252
58051DOD     C317974  13.298  25.205  15.027  0.1546  0.1185  0.0151
58052DOD     C117975  18.497  11.582  28.638 -0.1039  0.0535 -0.2767
58052DOD     C217976  18.497  12.011  28.803  0.0956 -0.2075 -0.0209
58052DOD     C317977  18.774  12.420  28.867 -0.4054  0.0464 -0.1437
58053DOD     C117978  25.393  20.572  17.010 -0.0110 -0.0557 -0.0372
58053DOD     C217979  25.664  20.402  16.709  0.2758  0.3188  0.1828
58053DOD     C317980  26.118  20.538  16.609 -0.0174  0.1604 -0.0316
58054DOD     C117981  22.154  12.285   0.142 -0.1726  0.0092 -0.4624
58054DOD     C217982  22.398  11.950   0.387  0.0894  0.1781 -0.2259
58054DOD     C317983  22.507  11.495   0.540 -0.0006 -0.3569  0.0080
58055DOD     C117984  29.271  16.522  27.557  0.1077  0.1160  0.1730
58055DOD     C217985  28.940  16.632  27.248 -0.0094  0.3406  0.1312
58055DOD     C317986  28.965  16.532  26.784  0.0273 -0.0971 -0.1410
58056DOD     C117987  19.533  10.660  20.695  0.0092 -0.0014 -0.2562
58056DOD     C217988  19.273  10.962  21.006 -0.0928  0.0213  0.4763
58056DOD     C317989  19.340  11.411  21.172 -0.2147 -0.3143  0.1122
58057DOD     C117990   5.701  29.885  12.517 -0.3221 -0.1765 -0.4017
58057DOD     C217991   5.984  29.477  12.510 -0.0658 -0.0549 -0.2381
58057DOD     C317992   6.269  29.099  12.560 -0.3204  0.2454 -0.0499
58058DOD     C117993  26.758  17.042  21.892  0.0716  0.1336  0.0017
58058DOD     C217994  26.949  17.263  21.568  0.1117 -0.2324  0.1203
58058DOD     C317995  26.964  17.420  21.110  0.0990 -0.1702 -0.1822
58059DOD     C117996  22.382  19.837  14.633  0.1253 -0.3388  0.1250
58059DOD     C217997  21.969  19.883  14.634  0.1419  0.0586  0.1523
58059DOD     C317998  21.520  20.078  14.697  0.0986  0.3627 -0.3884
58060DOD     C117999  19.946  25.572  18.728 -0.2997  0.1988  0.0543
58060DOD     C218000  19.729  25.676  18.298 -0.2317 -0.1233  0.0559
58060DOD     C318001  19.671  26.095  18.022  0.1633  0.2442  0.0041
58061DOD     C118002  16.625   0.124  11.725  0.0712  0.0713 -0.0475
58061DOD     C218003  16.728   0.355  11.374  0.0906 -0.0545  0.0147
58061DOD     C318004  16.705   0.821  11.247 -0.2155 -0.0301 -0.1194
58062DOD     C118005  27.437  16.726  21.467  0.1910 -0.6047  0.0893
58062DOD     C218006  27.172  16.424  21.620  0.0507  0.2117  0.4108
58062DOD     C318007  26.996  16.362  22.051 -0.3200  0.1517 -0.0982
58063DOD     C118008  17.261  21.236   6.369 -0.0025  0.3139  0.3117
58063DOD     C218009  17.661  21.222   6.104  0.0204  0.1053  0.0208
58063DOD     C318010  17.779  21.558   5.780 -0.0849  0.0552  0.0496
58064DOD     C118011  11.701  10.941  26.614 -0.0143 -0.0829 -0.0803
58064DOD     C218012  11.787  10.526  26.451 -0.1109  0.0717 -0.1715
58064DOD     C318013  12.126  10.206  26.302  0.0142 -0.1832  0.0879
58065DOD     C118014  14.084  19.519  19.580  0.1209  0.0362 -0.0042
58065DOD     C218015  14.284  19.494  20.025  0.1843 -0.0023  0.3579
58065DOD     C318016  14.216  19.597  20.429 -0.3201 -0.0096 -0.1371
58066DOD     C118017  17.308  26.625  25.610 -0.1907 -0.3972 -0.0275
58066DOD     C218018  17.394  26.190  25.694  0.1836 -0.1383 -0.2702
58066DOD     C318019  17.272  25.911  25.961  0.0764  0.1783 -0.3207
58067DOD     C118020  28.315  12.019   0.870 -0.0788 -0.1855  0.1895
58067DOD     C218021  28.603  12.325   1.113 -0.2070 -0.4244 -0.0723
58067DOD     C318022  28.510  12.784   1.217  0.1173  0.1514  0.0163
58068DOD     C118023  17.038  17.891   5.697 -0.0313 -0.1325 -0.2353
58068DOD     C218024  17.133  18.287   5.514 -0.1725 -0.1099 -0.0682
58068DOD     C318025  17.346  18.696   5.669  0.1170  0.4432 -0.2347
58069DOD     C118026  13.223  15.211  25.801 -0.2709 -0.0630  0.2278
58069DOD     C218027  13.612  15.171  26.037 -0.0946  0.1930  0.1642
58069DOD     C318028  13.790  15.250  26.425 -0.0916 -0.3552 -0.0189
58070DOD     C118029  28.646  30.260  13.187 -0.0394 -0.2241  0.0101
58070DOD     C218030  28.298   0.261  13.182 -0.1876  0.1431  0.1914
58070DOD     C318031  28.030   0.489  13.553  0.0371  0.0837  0.0167
58071DOD     C118032   8.357  20.449  21.517  0.3094 -0.0311  0.0540
58071DOD     C218033   8.359  20.402  22.001  0.0285 -0.2709  0.2263
58071DOD     C318034   8.595  20.150  22.278  0.2024 -0.0901 -0.0421
58072DOD     C118035   6.686  21.213   1.255  0.1536 -0.0278 -0.0609
58072DOD     C218036   6.622  20.768   1.122  0.1991  0.2757 -0.0861
58072DOD     C318037   6.678  20.458   0.797 -0.1605 -0.1955  0.1453
58073DOD     C118038  28.951  24.369  10.571 -0.1685 -0.0241  0.0548
58073DOD     C218039  28.965  23.965  10.335 -0.4309 -0.2675 -0.1435
58073DOD     C318040  28.600  23.738  10.157 -0.0324 -0.0635  0.1194
58074DOD     C118041  14.164  27.477  13.992  0.0471 -0.3195 -0.0545
58074DOD     C218042  13.775  27.216  14.059 -0.1310 -0.3586  0.1096
58074DOD     C318043  13.374  27.420  14.260  0.0262  0.0300  0.0577
58075DOD     C118044   1.178  15.179  11.938 -0.1287  0.1100 -0.0354
58075DOD     C218045   1.065  15.563  11.692 -0.0000 -0.3351  0.2467
58075DOD     C318046   0.993  15.910  11.414 -0.1764 -0.1431 -0.3892
58076DOD     C118047   6.788   8.292  15.890 -0.0028  0.0181  0.2519
58076DOD     C218048   7.114   8.352  15.589 -0.2553  0.1674  0.2770
58076DOD     C318049   7.557   8.439  15.420 -0.0474 -0.2274  0.2890
58077DOD     C118050  25.250   8.830  10.489  0.0488  0.0178  0.0569
58077DOD     C218051  24.922   8.957  10.179 -0.1438 -0.3091  0.2358
58077DOD     C318052  24.645   9.328  10.091  0.0655 -0.2110 -0.0170
58078DOD     C118053  27.679  23.053  12.659  0.2482  0.3598 -0.0479
58078DOD     C218054  27.203  23.071  12.788  0.1370  0.1228 -0.1458
58078DOD     C318055  26.936  23.360  13.041  0.3501  0.1008 -0.0431
58079DOD     C118056  16.270  11.845  23.268 -0.2345 -0.1140 -0.1014
58079DOD     C218057  16.347  12.187  22.888 -0.0613 -0.1553 -0.2546
58079DOD     C318058  16.159  12.583  22.822 -0.4104 -0.1369 -0.3115
58080DOD     C118059  29.913   7.671  30.240 -0.1625 -0.0026  0.1702
58080DOD     C218060  29.673   7.723  29.783  0.1678 -0.0425 -0.1065
58080DOD     C318061  29.538   8.134  29.542  0.1441 -0.0649  0.1679
58081DOD     C118062  11.325  24.465  12.976  0.2589  0.3248 -0.2851
58081DOD     C218063  11.243  24.201  13.379  0.2987 -0.0281 -0.1375
58081DOD     C318064  11.162  24.088  13.810  0.1421  0.2865 -0.5595
58082DOD     C118065   7.161  30.269   6.100 -0.1151  0.3159 -0.0303
58082DOD     C218066   7.591  30.259   5.954 -0.0044  0.0473  0.1335
58082DOD     C318067   8.074  -0.025   6.096 -0.0251 -0.0920  0.1217
58083DOD     C118068  17.258  21.106   9.039  0.0140 -0.0482 -0.0600
58083DOD     C218069  17.714  21.289   9.164  0.2692  0.1360 -0.4145
58083DOD     C318070  18.031  21.389   9.524  0.1688 -0.2386 -0.1566
58084DOD     C118071  22.662  14.340  25.101  0.3597 -0.3456 -0.0777
58084DOD     C218072  22.829  13.985  25.358  0.3942 -0.2533 -0.2073
58084DOD     C318073  22.754  13.504  25.371  0.2742  0.0986  0.3012
58085DOD     C118074   0.272   4.384   8.966  0.0989 -0.2144 -0.0033
58085DOD     C218075   0.115   3.890   8.891 -0.0789  0.0093  0.2658
58085DOD     C318076   0.003   3.477   8.701 -0.2492  0.1610 -0.1020
58086DOD     C118077   5.294   7.620  26.583  0.3755 -0.0474  0.4532
58086DOD     C218078   5.662   7.638  26.199 -0.0962 -0.1898 -0.2391
58086DOD     C318079   6.047   7.625  25.869  0.1764 -0.0954 -0.0575
58087DOD     C118080   3.736  23.265   8.919 -0.1131 -0.1245  0.2036
58087DOD     C218081   3.857  22.971   8.600  0.2013 -0.3350  0.1198
58087DOD     C318082   4.150  22.625   8.445  0.2098 -0.1730  0.0362
58088DOD     C118083  13.089  20.330   2.412 -0.1690 -0.1293 -0.1167
58088DOD     C218084  13.287  19.925   2.325  0.1313  0.2502  0.0595
58088DOD     C318085  13.529  19.581   2.553  0.0342 -0.3340 -0.0543
58089DOD     C118086  20.269  26.162   5.932  0.0620 -0.0664  0.2278
58089DOD     C218087  20.638  26.038   6.060 -0.0468  0.1494 -0.0483
58089DOD     C318088  21.028  26.080   6.396 -0.0535 -0.0507  0.2166
58090DOD     C118089   8.502   3.878   5.464 -0.0684  0.0537  0.3095
58090DOD     C218090   8.920   4.010   5.678 -0.0959  0.5582  0.1523
58090DOD     C318091   9.303   3.922   5.925  0.1767  0.0746  0.0171
58091DOD     C118092  10.509   2.681   2.998 -0.1108 -0.2445  0.1387
58091DOD     C218093  10.414   2.684   3.448  0.2116 -0.2862  0.0401
58091DOD     C318094  10.244   2.907   3.812 -0.0755 -0.1076 -0.1594
58092DOD     C118095  19.758  12.155  28.453 -0.2428 -0.0206  0.2824
58092DOD     C218096  20.077  12.428  28.172  0.2023 -0.3372  0.0506
58092DOD     C318097  20.305  12.799  27.899  0.2283 -0.0542  0.3253
58093DOD     C118098  14.177   7.587  25.822 -0.0963 -0.0358 -0.2868
58093DOD     C218099  13.740   7.621  25.983  0.1914  0.0900  0.1777
58093DOD     C318100  13.490   7.272  25.946 -0.1510  0.0885 -0.1407
58094DOD     C118101  20.897  11.267  14.256  0.1158  0.1966  0.0959
58094DOD     C218102  20.800  11.690  14.426  0.1569  0.0756  0.0588
58094DOD     C318103  21.064  12.003  14.281 -0.2041  0.2897  0.1195
58095DOD     C118104  30.075  11.478  18.255  0.2764  0.1357 -0.1436
58095DOD     C218105  30.147  11.277  17.894  0.1777 -0.2972  0.2942
58095DOD     C318106  30.189  11.115  17.450  0.1039  0.4579  0.0110
58096DOD     C118107   0.712  22.150  13.129  0.1391  0.2041  0.0048
58096DOD     C218108   0.631  22.090  12.645 -0.1328 -0.1087  0.3404
58096DOD     C318109   0.603  22.131  12.207  0.0014  0.4431  0.2225
58097DOD     C118110  29.919   4.193  14.975  0.1923 -0.3510 -0.0728
58097DOD     C218111  29.921   4.308  15.421  0.0761 -0.0470  0.1578
58097DOD     C318112  30.117   4.291  15.874 -0.0248 -0.1187  0.1051
58098DOD     C118113  24.788  17.910   7.349 -0.1111  0.1894 -0.0237
58098DOD     C218114  24.453  18.088   7.677  0.0787  0.3086  0.1040
58098DOD     C318115  24.237  18.257   8.060 -0.0179 -0.0591  0.0597
58099DOD     C118116  13.555  19.728  19.735  0.3292 -0.1438 -0.2171
58099DOD     C218117  13.592  20.147  19.543 -0.0174  0.0359 -0.0921
58099DOD     C318118  13.514  20.529  19.314 -0.2095  0.4068 -0.0207
58100DOD     C118119  21.343  29.921   4.714  0.0236  0.1266  0.2732
58100DOD     C218120  21.449  30.144   5.112  0.0694 -0.1593 -0.1801
58100DOD     C318121  21.655  30.253   5.497 -0.0311  0.1509  0.3513
58101DOD     C118122   0.257   0.098  19.073 -0.0163  0.3380 -0.1546
58101DOD     C218123   0.209   0.465  18.839 -0.2626 -0.4804  0.0323
58101DOD     C318124   0.321   0.952  18.766 -0.1663 -0.1194  0.0118
58102DOD     C118125   2.848  18.500  23.969  0.3656  0.0906 -0.0166
58102DOD     C218126   2.886  18.597  23.513 -0.0272  0.2316 -0.1903
58102DOD     C318127   3.190  18.427  23.221  0.0500  0.0393 -0.0053
58103DOD     C118128   9.636  23.193  18.459  0.0957  0.0830 -0.0864
58103DOD     C218129   9.689  23.273  18.918  0.1709 -0.0145 -0.3041
58103DOD     C318130   9.809  23.526  19.299 -0.1600  0.1119  0.0361
58104DOD     C118131   0.030  13.096   8.927 -0.1513 -0.1231 -0.1108
58104DOD     C218132   0.250  13.409   9.258  0.1544  0.2496  0.3468
58104DOD     C318133   0.603  13.624   9.404  0.1782 -0.2176 -0.1918
58105DOD     C118134   9.981  30.202  15.897 -0.2942  0.1494 -0.1120
58105DOD     C218135   9.765   0.188  16.117  0.3508 -0.0087 -0.3101
58105DOD     C318136   9.467   0.538  15.986  0.1372  0.2769 -0.3178
58106DOD     C118137  10.350  13.224   3.137  0.0137  0.1219 -0.0246
58106DOD     C218138  10.469  13.608   2.908  0.1536  0.0838  0.0892
58106DOD     C318139  10.629  13.961   2.625 -0.0447 -0.1106 -0.3289
58107DOD     C118140  10.721  23.455   7.500 -0.2114 -0.0694  0.0619
58107DOD     C218141  10.617  23.552   7.923  0.1344 -0.1107 -0.2202
58107DOD     C318142  10.646  23.764   8.336  0.3256  0.1199 -0.1102
58108DOD     C118143  21.975   2.860   0.741 -0.0573 -0.0199  0.0565
58108DOD     C218144  22.151   3.312   0.705  0.0030 -0.2031 -0.0039
58108DOD     C318145  21.993   3.724   0.656 -0.1214  0.0294 -0.1149
58109DOD     C118146   6.137  19.319   3.179  0.1979 -0.0439  0.4225
58109DOD     C218147   6.228  19.528   2.782 -0.0325  0.0361  0.0411
58109DOD     C318148   6.420  19.254   2.399  0.2625 -0.0518 -0.0777
58110DOD     C118149   2.034  23.070   4.537  0.0653  0.1573 -0.1102
58110DOD     C218150   2.499  23.150   4.588  0.0789  0.1767  0.0125
58110DOD     C318151   2.872  22.851   4.614 -0.1233  0.1154  0.0636
58111DOD     C118152   4.847   1.973  16.839  0.2195 -0.3338 -0.3009
58111DOD     C218153   5.034   1.870  16.406  0.0127  0.0734 -0.3308
58111DOD     C318154   5.205   1.517  16.166  0.1452 -0.0010 -0.0800
58112DOD     C118155  20.525  18.485  23.415  0.1088  0.1810  0.0025
58112DOD     C218156  20.707  18.909  23.175 -0.2702  0.2309  0.1405
58112DOD     C318157  20.927  19.268  23.360  0.1096  0.4608 -0.1767
58113DOD     C118158   7.236  22.415   5.447  0.1260 -0.0241  0.0588
58113DOD     C218159   7.199  22.048   5.160  0.0842  0.0762 -0.0454
58113DOD     C318160   6.986  21.639   5.087 -0.0881  0.3561  0.0091
58114DOD     C118161  27.302  15.313   6.961  0.0570 -0.3084 -0.2345
58114DOD     C218162  27.324  15.735   7.039 -0.2225  0.3629 -0.2041
58114DOD     C318163  27.653  15.955   6.901  0.1633  0.1561 -0.2471
58115DOD     C118164  26.501  10.175  28.603 -0.4202  0.1804  0.1846
58115DOD     C218165  26.566   9.714  28.494 -0.1352  0.0261  0.1274
58115DOD     C318166  26.589   9.254  28.239  0.0231  0.1587 -0.2732
58116DOD     C118167  13.953  14.420   8.906 -0.0667 -0.1389  0.2794
58116DOD     C218168  14.359  14.534   8.726 -0.1157  0.1820  0.1710
58116DOD     C318169  14.759  14.651   8.832  0.0226 -0.0591  0.1152
58117DOD     C118170  11.982  22.654  16.477 -0.0920  0.1701  0.2772
58117DOD     C218171  12.102  22.893  16.130  0.0518  0.1491  0.1023
58117DOD     C318172  12.106  22.814  15.668 -0.1769  0.1853 -0.3296
58118DOD     C118173  29.698   2.090  10.609  0.1405  0.2476  0.2295
58118DOD     C218174  29.766   2.007  10.161  0.2152  0.0323  0.1815
58118DOD     C318175  30.134   1.855   9.962  0.3356  0.0107  0.1367
58119DOD     C118176  22.752  21.295  23.784  0.0531  0.1330 -0.1680
58119DOD     C218177  22.530  21.666  23.600 -0.0231 -0.0407  0.0402
58119DOD     C318178  22.342  21.932  23.263 -0.2158  0.0257 -0.1102
58120DOD     C118179  13.145  16.143  25.413  0.1437 -0.1642 -0.1988
58120DOD     C218180  12.885  15.864  25.098  0.3154 -0.0139 -0.0667
58120DOD     C318181  12.778  15.689  24.662  0.0554  0.1267  0.1940
58121DOD     C118182  22.800  21.850  24.004 -0.2120 -0.2654 -0.1626
58121DOD     C218183  22.405  21.560  24.085  0.0070  0.0339  0.3256
58121DOD     C318184  21.943  21.479  24.094 -0.1812  0.1719 -0.0052
58122DOD     C118185   7.748   9.844   1.244 -0.0360  0.1208 -0.0042
58122DOD     C218186   7.785   9.881   1.693 -0.0073 -0.1801  0.0276
58122DOD     C318187   7.572   9.672   1.969 -0.1085  0.0109  0.0669
58123DOD     C118188  17.662  25.094  15.281  0.0251 -0.2130 -0.0185
58123DOD     C218189  17.938  24.780  15.464 -0.2250  0.0472  0.2599
58123DOD     C318190  17.912  24.338  15.579 -0.2800  0.1014  0.1918
58124DOD     C118191  14.443  22.561   7.700  0.0847  0.1543  0.2191
58124DOD     C218192  14.483  22.875   7.337 -0.3255 -0.1491  0.2509
58124DOD     C318193  14.612  23.164   7.004 -0.0259 -0.0390 -0.3345
58125DOD     C118194  18.198  19.492  24.887  0.2317 -0.1632 -0.0951
58125DOD     C218195  17.854  19.741  24.887  0.2140 -0.0029  0.1862
58125DOD     C318196  17.423  19.704  25.102 -0.1453  0.0141  0.0265
58126DOD     C118197  26.931   0.796  25.289 -0.1129 -0.0847 -0.1027
58126DOD     C218198  27.184   1.167  25.532  0.0618  0.3820  0.2483
58126DOD     C318199  27.156   1.560  25.720  0.1350  0.0175  0.1051
58127DOD     C118200   5.498   4.283  18.003 -0.2480 -0.3415  0.3067
58127DOD     C218201   5.237   4.605  18.151  0.0142 -0.0783  0.0200
58127DOD     C318202   5.376   5.032  18.356 -0.2798  0.0451 -0.0398
58128DOD     C118203   2.426  24.317  14.259 -0.1027  0.1906  0.0600
58128DOD     C218204   1.969  24.427  14.240 -0.0545 -0.2576  0.0271
58128DOD     C318205   1.634  24.812  14.288  0.1419  0.5531  0.1908
58129DOD     C118206  11.769  24.069   3.175  0.4519 -0.0441 -0.1200
58129DOD     C218207  11.394  24.289   3.138 -0.0300 -0.0174  0.0560
58129DOD     C318208  11.183  24.680   3.320  0.2815 -0.0158 -0.1161
58130DOD     C118209   7.910  21.897  27.169 -0.2431  0.2588 -0.1069
58130DOD     C218210   7.925  22.281  27.346  0.1248 -0.0231 -0.0768
58130DOD     C318211   8.195  22.694  27.427  0.2022 -0.1335 -0.0204
58131DOD     C118212   1.501  12.415  21.821 -0.3556  0.0030 -0.0253
58131DOD     C218213   1.657  12.863  21.907  0.0534 -0.1426 -0.0427
58131DOD     C318214   1.787  13.292  22.083  0.1779 -0.1690 -0.0962
58132DOD     C118215  18.277  12.103  18.834  0.1516  0.1727  0.0099
58132DOD     C218216  18.182  11.753  19.117 -0.2157  0.1802  0.4010
58132DOD     C318217  18.296  11.582  19.547 -0.1167 -0.1228 -0.1297
58133DOD     C118218  28.666   7.644  23.873  0.1478  0.2155  0.0405
58133DOD     C218219  28.518   7.446  23.497 -0.1648 -0.0464  0.1620
58133DOD     C318220  28.517   7.221  23.131  0.0580  0.0144 -0.2911
58134DOD     C118221   7.857  16.585   6.531 -0.0901 -0.4572 -0.0883
58134DOD     C218222   7.856  16.930   6.185 -0.3234  0.0500  0.0086
58134DOD     C318223   8.138  17.365   6.088  0.1298  0.0323 -0.2304
58135DOD     C118224   3.179   4.784   6.789 -0.5082 -0.0880 -0.0582
58135DOD     C218225   2.897   5.064   6.930  0.0284  0.4705  0.1864
58135DOD     C318226   2.476   5.240   6.778 -0.0539  0.3346 -0.0065
58136DOD     C118227  27.319  15.376  14.094  0.1812  0.1021  0.0607
58136DOD     C218228  27.642  15.038  14.125  0.1474 -0.1548  0.2124
58136DOD     C318229  27.622  14.622  13.997 -0.4547 -0.1786 -0.1687
58137DOD     C118230   2.978  11.300  20.565 -0.1867 -0.1257 -0.2509
58137DOD     C218231   2.912  10.921  20.292  0.0170  0.1057  0.0564
58137DOD     C318232   3.016  10.523  20.069  0.1022  0.1834 -0.0203
58138DOD     C118233  17.192  23.662  24.955  0.3041  0.1264 -0.1516
58138DOD     C218234  17.075  23.761  24.500  0.0527 -0.0341  0.1029
58138DOD     C318235  16.971  24.219  24.354  0.0542 -0.3119 -0.0873
58139DOD     C118236   3.470   3.891   4.878 -0.0247  0.0059 -0.1671
58139DOD     C218237   3.779   4.073   4.699 -0.2030 -0.1795  0.0608
58139DOD     C318238   4.008   4.450   4.807 -0.0490  0.1499  0.2697
58140DOD     C118239   0.489   5.928  11.580  0.2110 -0.1653  0.2958
58140DOD     C218240   0.779   6.294  11.690 -0.2067  0.1241  0.2958
58140DOD     C318241   0.984   6.525  12.046  0.3773 -0.2487  0.0657
58141DOD     C118242  22.806   0.996  26.817 -0.2902 -0.2533 -0.1558
58141DOD     C218243  23.096   1.356  26.952  0.2494  0.2080 -0.0813
58141DOD     C318244  23.089   1.777  27.080 -0.0125 -0.0465  0.3350
58142DOD     C118245  30.242   5.514  25.700  0.1851  0.1305 -0.0656
58142DOD     C218246   0.088   5.817  26.026  0.0322  0.1605 -0.0294
58142DOD     C318247   0.207   6.228  25.922  0.0630 -0.1110 -0.3348
58143DOD     C118248   6.151  21.218  21.489 -0.3077  0.0795 -0.3803
58143DOD     C218249   6.156  21.275  21.040 -0.1470  0.0539  0.2472
58143DOD     C318250   6.207  21.448  20.574 -0.0920  0.0500 -0.0980
58144DOD     C118251  13.742   5.078  22.842  0.0196 -0.5424  0.1380
58144DOD     C218252  14.022   4.841  22.531  0.2667 -0.1826  0.1427
58144DOD     C318253  14.169   5.209  22.305 -0.0962  0.0666  0.3785
58145DOD     C118254  26.637  24.699   4.125 -0.2180 -0.1858 -0.2764
58145DOD     C218255  27.030  24.626   3.931  0.1299 -0.1438 -0.1386
58145DOD     C318256  27.390  24.316   3.903 -0.4583 -0.0533  0.3662
58146DOD     C118257  21.797  18.943  20.301 -0.3280 -0.0325  0.1079
58146DOD     C218258  21.495  18.714  20.632 -0.3065  0.1271  0.0154
58146DOD     C318259  21.311  18.658  21.041 -0.4597 -0.0718 -0.0294
58147DOD     C118260   6.623  14.297   6.298 -0.1460 -0.4109 -0.1039
58147DOD     C218261   6.534  14.419   6.730  0.2660 -0.0459 -0.1933
58147DOD     C318262   6.369  14.278   7.132  0.0933 -0.0010 -0.0006
58148DOD     C118263  14.235  18.062  24.401 -0.1078 -0.0699  0.1065
58148DOD     C218264  13.805  17.909  24.234  0.0558 -0.0324 -0.3844
58148DOD     C318265  13.357  17.748  24.106 -0.2664 -0.1670  0.0394
58149DOD     C118266   2.289  25.929  15.085 -0.1827  0.0770  0.0885
58149DOD     C218267   2.049  26.227  15.372 -0.1517  0.1450 -0.0611
58149DOD     C318268   2.089  26.727  15.365  0.0038  0.0392 -0.2303
58150DOD     C118269  18.868  18.293   8.154 -0.0174  0.0713  0.2295
58150DOD     C218270  19.161  18.030   7.949 -0.1979 -0.0284  0.1095
58150DOD     C318271  19.533  17.823   7.939  0.0683  0.1040 -0.0332
58151DOD     C118272  12.400   5.698  10.358 -0.4417  0.0486 -0.3188
58151DOD     C218273  12.754   5.526  10.144  0.2883  0.0296  0.0310
58151DOD     C318274  13.098   5.442   9.826 -0.0180 -0.0038  0.2153
58152DOD     C118275  20.218  15.188   1.988  0.3261  0.0604  0.1602
58152DOD     C218276  19.748  15.314   1.882  0.1051 -0.0890  0.0280
58152DOD     C318277  19.459  15.718   1.848  0.0786 -0.0803  0.1201
58153DOD     C118278  23.586  22.569  15.489 -0.2390 -0.1727  0.2162
58153DOD     C218279  23.633  22.474  14.993 -0.1553  0.4425  0.1820
58153DOD     C318280  23.858  22.289  14.660  0.1008 -0.1621  0.1318
58154DOD     C118281  22.685  14.449  13.089 -0.2687  0.1302  0.1384
58154DOD     C218282  22.591  14.885  12.884 -0.0516  0.1664 -0.1890
58154DOD     C318283  22.634  15.043  12.482 -0.0544  0.0948 -0.0242
58155DOD     C118284  22.071   8.909  16.016  0.2652  0.1793  0.0404
58155DOD     C218285  22.129   9.138  15.556 -0.3217 -0.2702 -0.1571
58155DOD     C318286  22.133   9.354  15.129 -0.0515 -0.0735  0.2328
58156DOD     C118287  23.512  23.839  18.522  0.1763  0.0165  0.0019
58156DOD     C218288  23.828  23.524  18.448 -0.0394 -0.0853  0.1685
58156DOD     C318289  24.124  23.482  18.124 -0.2331 -0.0077  0.0235
58157DOD     C118290  13.256  12.707   8.969  0.1801 -0.0941  0.0362
58157DOD     C218291  13.571  12.345   9.116 -0.2461  0.1984  0.0750
58157DOD     C318292  13.821  11.962   9.228  0.2493 -0.0822  0.1006
58158DOD     C118293  24.606  23.789   6.029  0.0217  0.1201 -0.2638
58158DOD     C218294  24.450  24.193   5.891  0.0671  0.0359 -0.2898
58158DOD     C318295  24.070  24.474   5.672 -0.1126 -0.1012  0.0134
58159DOD     C118296  18.137  12.795  24.843  0.0847 -0.0424 -0.1043
58159DOD     C218297  18.373  12.429  24.731 -0.0101 -0.0634  0.1808
58159DOD     C318298  18.483  12.084  24.998  0.0326 -0.1836 -0.2372
58160DOD     C118299  15.379   7.259  20.290 -0.4086 -0.1433  0.0905
58160DOD     C218300  15.386   7.019  20.687 -0.1662 -0.0354  0.5599
58160DOD     C318301  15.648   6.722  20.911  0.1741  0.0875 -0.0774
58161DOD     C118302   7.384  28.434   3.388 -0.1147 -0.2281  0.0378
58161DOD     C218303   7.292  28.434   2.936  0.3108  0.2325 -0.2051
58161DOD     C318304   6.871  28.562   2.689 -0.2518  0.1727  0.2461
58162DOD     C118305   8.497  14.558   9.101 -0.2091 -0.2225 -0.0260
58162DOD     C218306   8.138  14.430   9.377 -0.0093 -0.2241  0.2137
58162DOD     C318307   7.701  14.312   9.467 -0.1413 -0.0588  0.1517
58163DOD     C118308  22.118  25.572   3.083  0.0754  0.4577 -0.0208
58163DOD     C218309  21.767  25.376   2.829 -0.1402 -0.1497 -0.1489
58163DOD     C318310  21.511  24.997   2.788 -0.1316  0.0761 -0.1965
58164DOD     C118311  22.718   0.090  19.689 -0.0916  0.0023 -0.4761
58164DOD     C218312  22.489   0.141  19.318  0.0588  0.0559 -0.1667
58164DOD     C318313  22.446   0.179  18.816  0.2087  0.1959 -0.1484
58165DOD     C118314  23.473   3.340  13.022  0.2497 -0.0016  0.0568
58165DOD     C218315  23.146   3.588  12.811  0.0029  0.0067  0.1137
58165DOD     C318316  23.059   4.032  12.636 -0.2134 -0.0147 -0.1728
58166DOD     C118317  14.358   9.050  14.770 -0.1062  0.1939 -0.2174
58166DOD     C218318  14.665   8.734  14.821 -0.0745 -0.0658 -0.4978
58166DOD     C318319  14.891   8.466  15.129 -0.0757  0.1526 -0.0473
58167DOD     C118320   1.742  18.866  23.184 -0.0785  0.4337  0.0098
58167DOD     C218321   1.939  18.741  22.784 -0.0831  0.1558  0.0658
58167DOD     C318322   2.396  18.734  22.636 -0.0814 -0.0140  0.0908
58168DOD     C118323   0.996   8.308  19.110 -0.0282 -0.1860  0.0269
58168DOD     C218324   0.851   8.452  18.678 -0.0975  0.3706  0.1293
58168DOD     C318325   0.463   8.323  18.428  0.0128 -0.1618  0.2799
58169DOD     C118326  26.379  20.925  16.395 -0.1614 -0.0199  0.3627
58169DOD     C218327  26.407  21.020  15.936 -0.0776 -0.1662  0.1070
58169DOD     C318328  26.200  20.807  15.567  0.0292 -0.0314  0.0985
58170DOD     C118329   3.651   6.093  21.192 -0.4063  0.2917  0.1867
58170DOD     C218330   3.775   5.966  21.646  0.3416  0.1104 -0.1171
58170DOD     C318331   4.148   5.803  21.845 -0.0920 -0.2223 -0.2186
58171DOD     C118332  20.591  23.921  16.586  0.1643  0.0669  0.0993
58171DOD     C218333  20.606  24.353  16.864 -0.1757  0.1384  0.0248
58171DOD     C318334  20.535  24.768  16.764 -0.0133 -0.1239 -0.1013
58172DOD     C118335   2.160  15.272   7.330  0.0125  0.1023 -0.2496
58172DOD     C218336   2.569  15.076   7.451 -0.1822  0.3196  0.0162
58172DOD     C318337   2.887  15.071   7.793 -0.0859  0.1048 -0.1299
58173DOD     C118338  13.486   5.022  20.950 -0.0005  0.0517  0.3325
58173DOD     C218339  13.166   4.680  20.730 -0.1854  0.1488 -0.1820
58173DOD     C318340  12.776   4.482  20.569  0.0886  0.0943  0.1214
58174DOD     C118341   2.440  19.044  28.703 -0.2941  0.2159 -0.4829
58174DOD     C218342   2.389  18.588  28.849  0.0725 -0.0571 -0.1277
58174DOD     C318343   2.771  18.304  28.814  0.5786  0.1157 -0.0478
58175DOD     C118344  28.156  17.864  21.675  0.1277 -0.0014 -0.1133
58175DOD     C218345  28.088  18.297  21.427 -0.1055  0.0831  0.4483
58175DOD     C318346  27.856  18.713  21.472  0.2408 -0.0275 -0.2809
58176DOD     C118347   3.792   1.709  13.852 -0.1235  0.0280  0.1605
58176DOD     C218348   3.776   2.116  13.600  0.2714  0.0994 -0.1448
58176DOD     C318349   3.817   2.474  13.354  0.3802  0.3180 -0.2162
58177DOD     C118350  13.371  15.662  23.562  0.0294 -0.4146 -0.2632
58177DOD     C218351  13.054  15.366  23.353  0.0163 -0.0478 -0.1340
58177DOD     C318352  12.983  15.013  23.012 -0.0373 -0.1238 -0.0289
58178DOD     C118353  19.406  26.385  17.053  0.1262 -0.1604 -0.1525
58178DOD     C218354  19.064  26.064  17.137  0.0330 -0.2562 -0.0161
58178DOD     C318355  18.920  25.766  17.484  0.2556  0.2757 -0.0509
58179DOD     C118356  15.912   1.711  29.110 -0.2421 -0.0338  0.0976
58179DOD     C218357  15.901   1.233  29.080 -0.0714 -0.0293 -0.5320
58179DOD     C318358  15.665   0.794  29.059  0.0942  0.0986  0.1807
58180DOD     C118359   0.747   0.474   2.837  0.0675 -0.3618  0.1413
58180DOD     C218360   1.183   0.301   2.829  0.0726  0.0601 -0.0580
58180DOD     C318361   1.340  30.253   2.551  0.3382  0.2950 -0.1326
58181DOD     C118362  17.032  22.855  18.885 -0.1441 -0.2370 -0.2372
58181DOD     C218363  16.597  22.592  19.018  0.1684  0.0589  0.0158
58181DOD     C318364  16.096  22.591  19.085 -0.1280  0.2459 -0.0789
58182DOD     C118365  28.144  15.882  15.777  0.0926  0.3333 -0.2468
58182DOD     C218366  28.249  15.466  15.946 -0.0848  0.1120  0.2434
58182DOD     C318367  28.394  15.182  16.325 -0.1761 -0.3002 -0.2032
58183DOD     C118368  22.210  26.057   8.512 -0.1557  0.3452  0.4741
58183DOD     C218369  22.083  26.502   8.715  0.0560  0.1168  0.2957
58183DOD     C318370  21.980  26.959   8.675  0.0275 -0.0011  0.1158
58184DOD     C118371  17.984  26.744   7.022  0.4005  0.0477 -0.0744
58184DOD     C218372  17.714  26.961   6.698  0.3070  0.2803  0.1978
58184DOD     C318373  17.749  26.829   6.260 -0.0056  0.1504 -0.2150
58185DOD     C118374   7.344  23.264  16.460  0.1142 -0.0669  0.1054
58185DOD     C218375   7.432  23.344  16.002  0.0837 -0.0725 -0.1094
58185DOD     C318376   7.667  23.580  15.692  0.0354  0.1742 -0.0179
58186DOD     C118377  10.126  21.381  15.539 -0.3001  0.3999  0.1811
58186DOD     C218378   9.866  21.732  15.742 -0.3961 -0.0534  0.0150
58186DOD     C318379   9.752  22.126  15.988 -0.1572  0.0260  0.2960
58187DOD     C118380   9.735   4.827  11.893 -0.1217 -0.0530 -0.0972
58187DOD     C218381   9.753   5.181  11.579 -0.0384  0.1070 -0.1217
58187DOD     C318382   9.790   5.584  11.718 -0.0992  0.4844  0.3560
58188DOD     C118383   0.192  12.570  14.017 -0.2551  0.0871  0.1986
58188DOD     C218384   0.323  12.240  13.659 -0.1557 -0.1146  0.0747
58188DOD     C318385   0.195  11.797  13.771  0.3212 -0.3664 -0.1925
58189DOD     C118386  30.000  26.938  27.824  0.2052  0.0102 -0.0235
58189DOD     C218387  29.695  26.698  28.013 -0.1099  0.0323 -0.0603
58189DOD     C318388  29.573  26.322  28.272 -0.1623  0.0024 -0.0499
58190DOD     C118389  17.962  15.962   6.289  0.1555 -0.0250 -0.2696
58190DOD     C218390  18.323  16.185   6.137  0.1277  0.1828  0.2503
58190DOD     C318391  18.389  16.607   5.885  0.4249 -0.3523 -0.1929
58191DOD     C118392   2.213  10.898   5.736  0.0200 -0.1896 -0.0487
58191DOD     C218393   2.602  10.840   6.061 -0.1426 -0.1155  0.0954
58191DOD     C318394   3.035  10.790   6.042  0.0584  0.1781  0.0331
58192DOD     C118395  14.643   1.982   7.498 -0.0085  0.2917 -0.1163
58192DOD     C218396  14.801   1.656   7.778  0.1036 -0.1603 -0.2654
58192DOD     C318397  15.072   1.298   7.922  0.1915 -0.4312 -0.2057
58193DOD     C118398  29.688  27.273   0.209 -0.0344  0.1741  0.1742
58193DOD     C218399  30.024  27.406   0.511 -0.3291 -0.2586 -0.0725
58193DOD     C318400   0.036  27.385   0.830 -0.2360  0.0013  0.0984
58194DOD     C118401  22.957   1.385   5.978  0.1099  0.1797  0.0653
58194DOD     C218402  22.908   1.133   5.605 -0.0124  0.3312 -0.2877
58194DOD     C318403  23.004   0.975   5.156 -0.1515  0.3052  0.0668
58195DOD     C118404  19.508  25.255   9.353  0.1344  0.0544  0.0859
58195DOD     C218405  19.508  25.715   9.550  0.0365 -0.0136  0.2918
58195DOD     C318406  19.473  26.097   9.766  0.0981 -0.0606  0.0313
58196DOD     C118407   0.955  12.411   0.150 -0.1501  0.2124 -0.0056
58196DOD     C218408   0.546  12.396   0.401 -0.0147  0.0017  0.1402
58196DOD     C318409   0.197  12.098   0.482 -0.2382  0.2712 -0.0874
58197DOD     C118410  27.200  28.047  12.681  0.0587  0.1358 -0.1807
58197DOD     C218411  27.174  27.706  12.377  0.0052 -0.0192 -0.1368
58197DOD     C318412  27.132  27.399  11.987 -0.0256  0.0958  0.1263
58198DOD     C118413  12.225  16.307   4.966  0.0776  0.0550 -0.3474
58198DOD     C218414  12.496  16.518   4.712  0.1098 -0.0450  0.2232
58198DOD     C318415  12.688  16.680   4.310 -0.3425  0.0661  0.0972
58199DOD     C118416   3.527  22.119   6.943  0.1455  0.0088 -0.0330
58199DOD     C218417   3.650  22.560   7.002 -0.0481 -0.1796  0.0920
58199DOD     C318418   3.650  22.952   7.188 -0.3827 -0.0361 -0.1090
58200DOD     C118419   7.769  21.252  14.194  0.0549 -0.0494  0.1612
58200DOD     C218420   7.386  21.041  14.350  0.0081  0.3895 -0.0470
58200DOD     C318421   7.092  20.693  14.410  0.0154  0.1897 -0.0205
58201DOD     C118422   7.170  14.341   6.257 -0.1587 -0.0534  0.1508
58201DOD     C218423   6.925  13.987   6.460 -0.2655  0.1167 -0.1047
58201DOD     C318424   7.047  13.548   6.663 -0.1194  0.2763  0.0654
58202DOD     C118425   2.479  15.784  11.507 -0.0971 -0.1015 -0.1823
58202DOD     C218426   2.504  16.084  11.177 -0.0153  0.1279  0.0901
58202DOD     C318427   2.667  16.342  10.800 -0.1200 -0.0970 -0.0827
58203DOD     C118428  29.256  24.542  14.003  0.0539 -0.0058 -0.1356
58203DOD     C218429  29.550  24.820  14.220 -0.0868 -0.0285  0.3185
58203DOD     C318430  29.935  24.967  14.457  0.1087  0.0129  0.0996
58204DOD     C118431   7.499  23.732  26.793 -0.2204  0.1161 -0.3911
58204DOD     C218432   7.068  23.836  26.902  0.0189 -0.1615 -0.1534
58204DOD     C318433   6.600  23.891  27.045  0.0208 -0.3219  0.3167
58205DOD     C118434   7.953  25.260  20.426  0.0172 -0.1040  0.1110
58205DOD     C218435   7.536  25.522  20.387  0.0754 -0.1208  0.2152
58205DOD     C318436   7.044  25.560  20.446  0.1712  0.1640 -0.2533
58206DOD     C118437  28.810   0.840  21.991  0.0069  0.1435 -0.3444
58206DOD     C218438  28.332   0.844  21.912  0.0391 -0.1789 -0.1182
58206DOD     C318439  27.913   0.829  22.104 -0.0187 -0.1943  0.0357
58207DOD     C118440   9.809  15.681   2.834  0.1343  0.4757  0.0795
58207DOD     C218441   9.499  15.464   3.122 -0.1806 -0.0207 -0.0489
58207DOD     C318442   9.130  15.400   3.364 -0.0073  0.0665 -0.0724
58208DOD     C118443  18.988  26.160  21.704 -0.0833  0.0372  0.1633
58208DOD     C218444  19.407  26.379  21.576  0.0199  0.1173 -0.2078
58208DOD     C318445  19.811  26.550  21.680  0.0621 -0.1044 -0.3096
58209DOD     C118446  29.456   8.745  25.427 -0.2683  0.1347 -0.0350
58209DOD     C218447  29.482   8.302  25.197  0.0012 -0.1193  0.0487
58209DOD     C318448  29.296   7.896  25.105  0.0119 -0.0341 -0.3087
58210DOD     C118449  22.694   4.225  22.757 -0.3216 -0.2059 -0.1675
58210DOD     C218450  22.474   4.046  22.403  0.0274 -0.1212  0.1001
58210DOD     C318451  22.354   4.070  21.928 -0.1888  0.0418  0.0293
58211DOD     C118452  28.300   2.037  12.431 -0.3955  0.2040  0.1472
58211DOD     C218453  27.966   1.810  12.184  0.0927 -0.1784 -0.2221
58211DOD     C318454  27.641   1.479  12.163  0.1289 -0.2298  0.0499
58212DOD     C118455   7.235  11.690   7.870 -0.0573 -0.1254  0.0937
58212DOD     C218456   7.437  11.811   7.472  0.3082  0.0945  0.1278
58212DOD     C318457   7.795  11.801   7.135  0.1208  0.0309  0.1088
58213DOD     C118458  16.950   7.685  27.002  0.1666 -0.1217  0.5084
58213DOD     C218459  16.643   7.948  27.267  0.1778  0.1049  0.0123
58213DOD     C318460  16.460   8.377  27.294 -0.0640  0.0104 -0.0374
58214DOD     C118461   1.249  24.473  27.081 -0.3211  0.1933 -0.1391
58214DOD     C218462   1.417  24.915  27.133  0.0579  0.2280 -0.0822
58214DOD     C318463   1.574  25.286  27.391  0.0916 -0.0686  0.1835
58215DOD     C118464  13.855  11.972  18.908 -0.1213  0.0622  0.1263
58215DOD     C218465  13.716  11.957  18.461 -0.1258  0.1491 -0.1863
58215DOD     C318466  13.712  11.858  17.983 -0.1893  0.0839 -0.0107
58216DOD     C118467  18.934  28.021  22.971  0.0314  0.1042  0.0967
58216DOD     C218468  18.791  27.579  22.835 -0.0819  0.6663 -0.0068
58216DOD     C318469  18.372  27.389  22.838 -0.0483 -0.5182  0.0567
58217DOD     C118470   9.418  16.569  21.786 -0.0413 -0.1578 -0.1972
58217DOD     C218471   9.468  17.036  21.637  0.2062 -0.0174  0.1366
58217DOD     C318472   9.471  17.407  21.348  0.0821  0.0576 -0.1114
58218DOD     C118473  28.400  21.019  11.322  0.0356 -0.1992  0.1464
58218DOD     C218474  28.516  21.028  10.856 -0.1676  0.0938 -0.0378
58218DOD     C318475  28.278  21.171  10.482 -0.0090 -0.0961 -0.2631
58219DOD     C118476  28.227   7.929  21.376 -0.0186 -0.0319 -0.1509
58219DOD     C218477  28.341   8.092  21.821 -0.2171  0.0782 -0.4819
58219DOD     C318478  28.773   8.170  21.967  0.2256 -0.2324  0.0065
58220DOD     C118479  22.970  25.831  15.242 -0.0227 -0.0915 -0.4437
58220DOD     C218480  23.098  25.923  14.828  0.1305 -0.0337 -0.2469
58220DOD     C318481  23.268  26.054  14.376 -0.2578  0.1295  0.0681
58221DOD     C118482   3.622  10.405   8.698 -0.1196 -0.0941 -0.0226
58221DOD     C218483   3.382  10.403   8.292  0.0946  0.1480  0.1728
58221DOD     C318484   3.021  10.515   8.012 -0.0155  0.0212  0.0078
58222DOD     C118485  30.050  14.375  10.788  0.2315 -0.2417  0.0611
58222DOD     C218486  30.043  14.078  10.418 -0.1102  0.3576 -0.0557
58222DOD     C318487  29.997  13.946   9.962  0.0753  0.0702  0.1238
58223DOD     C118488  15.455  22.890  25.152  0.1797  0.0859 -0.0122
58223DOD     C218489  15.104  23.167  25.180 -0.0288 -0.0978 -0.1887
58223DOD     C318490  14.806  23.413  25.404  0.1328 -0.0082  0.1947
58224DOD     C118491  10.407  30.218  16.840 -0.1679 -0.4766 -0.1610
58224DOD     C218492  10.105  29.946  17.037 -0.1064  0.0597  0.1115
58224DOD     C318493   9.914  29.540  17.038  0.3013 -0.3626 -0.5238
58225DOD     C118494  21.136   0.640  10.438 -0.0749  0.0160 -0.0714
58225DOD     C218495  20.885   0.783  10.833 -0.3541 -0.0451  0.1432
58225DOD     C318496  20.815   1.008  11.226 -0.1476  0.4414 -0.0328
58226DOD     C118497   9.783  17.669   9.459 -0.1745 -0.2741  0.1465
58226DOD     C218498  10.148  17.669   9.737  0.0768 -0.0044 -0.3198
58226DOD     C318499  10.644  17.686   9.824  0.0859  0.1673 -0.1187
58227DOD     C118500  25.099   4.262  26.942  0.1328  0.1934 -0.3898
58227DOD     C218501  25.013   4.530  27.347  0.0983  0.2338 -0.2111
58227DOD     C318502  24.734   4.830  27.503  0.1347 -0.1361  0.0418
58228DOD     C118503  22.452  19.261  14.143  0.1171  0.2848  0.1115
58228DOD     C218504  22.243  18.806  14.113 -0.0667  0.1066 -0.3823
58228DOD     C318505  21.987  18.474  14.410  0.0453  0.0530  0.1422
58229DOD     C118506  15.104  17.720  12.112 -0.2458  0.0502  0.0664
58229DOD     C218507  15.210  17.282  12.297 -0.1173  0.1587 -0.1498
58229DOD     C318508  14.958  16.924  12.384  0.1916  0.4735  0.1884
58230DOD     C118509   8.602  26.778   0.440 -0.1077  0.3161  0.0612
58230DOD     C218510   8.329  26.409   0.167 -0.0910 -0.0484  0.1284
58230DOD     C318511   8.312  25.999  30.283 -0.2335 -0.0152  0.0874
58231DOD     C118512  14.157  21.800  28.827 -0.1907 -0.0851  0.2774
58231DOD     C218513  14.562  21.861  29.013  0.1814  0.0489 -0.1473
58231DOD     C318514  14.693  22.194  29.282  0.2321 -0.1052  0.1227
58232DOD     C118515  21.371  19.349  15.302 -0.0229 -0.1083 -0.0548
58232DOD     C218516  21.007  19.688  15.264 -0.0456  0.1462  0.0286
58232DOD     C318517  20.977  20.056  15.012 -0.0226  0.1587 -0.0068
58233DOD     C118518  26.765  23.100  26.417 -0.0134  0.0473 -0.4195
58233DOD     C218519  26.892  23.196  26.869  0.0266 -0.1093  0.0741
58233DOD     C318520  26.842  23.485  27.256  0.1079 -0.2861 -0.0382
58234DOD     C118521  25.593  15.362  19.707  0.1507  0.0112  0.0912
58234DOD     C218522  25.516  15.071  20.090 -0.4615 -0.0539  0.2901
58234DOD     C318523  25.379  14.657  20.305 -0.0966 -0.2211  0.0411
58235DOD     C118524  12.339  29.702  25.600  0.0302 -0.0075 -0.2637
58235DOD     C218525  12.499  29.971  25.932  0.0898 -0.0015  0.1080
58235DOD     C318526  12.796  29.871  26.301  0.0015 -0.2985 -0.1822
58236DOD     C118527  10.917   0.025  16.914 -0.0442 -0.2485 -0.1935
58236DOD     C218528  10.908   0.368  16.619  0.2043  0.1371 -0.0475
58236DOD     C318529  11.020   0.789  16.410 -0.1041  0.2073  0.0998
58237DOD     C118530  22.491   3.658  27.326  0.5493  0.0389  0.0514
58237DOD     C218531  22.357   4.140  27.202 -0.4149 -0.2821 -0.2594
58237DOD     C318532  22.305   4.618  27.255  0.0731 -0.2283 -0.1869
58238DOD     C118533   4.415   3.063  12.350  0.1847  0.1225 -0.2386
58238DOD     C218534   4.127   2.995  12.055 -0.0283  0.0698 -0.1234
58238DOD     C318535   3.850   2.965  11.767 -0.3221 -0.0384  0.0017
58239DOD     C118536   7.443  28.346  17.956  0.0417  0.1229 -0.1867
58239DOD     C218537   7.291  28.706  18.258  0.0557  0.0340  0.1286
58239DOD     C318538   7.179  29.109  18.438  0.0906 -0.1227 -0.2825
58240DOD     C118539   0.644   2.425  24.325 -0.0436  0.0050  0.3181
58240DOD     C218540   0.969   2.376  24.617  0.0502  0.3443 -0.1037
58240DOD     C318541   1.435   2.607  24.629  0.1832  0.1077 -0.0591
58241DOD     C118542   6.239  22.200   4.588  0.0483  0.0428 -0.0900
58241DOD     C218543   5.975  21.822   4.634 -0.2508  0.1668 -0.0320
58241DOD     C318544   5.834  21.394   4.531 -0.1312 -0.0494  0.2123
58242DOD     C118545  13.483  27.831  17.130  0.0569 -0.1832 -0.1676
58242DOD     C218546  13.864  27.869  17.344  0.0814 -0.2563 -0.0883
58242DOD     C318547  14.122  27.902  17.721 -0.3214  0.1030  0.2782
58243DOD     C118548  10.224  12.320  25.145  0.2910  0.0886 -0.0905
58243DOD     C218549  10.134  11.941  24.868 -0.0274 -0.0057 -0.4003
58243DOD     C318550  10.045  11.738  24.470  0.0349 -0.1617  0.4813
58244DOD     C118551  10.714  12.508  30.324 -0.0839 -0.1907  0.0363
58244DOD     C218552  11.113  12.379  29.997  0.1063  0.4285  0.0709
58244DOD     C318553  11.471  12.585  29.796 -0.0234 -0.1595 -0.3874
58245DOD     C118554  20.130   4.138  24.904  0.3977 -0.0540  0.2088
58245DOD     C218555  19.741   4.326  24.642 -0.4833  0.0334  0.1419
58245DOD     C318556  19.691   4.660  24.273 -0.0186 -0.4496 -0.2208
58246DOD     C118557  17.573  10.922   7.178  0.1493  0.0407  0.2418
58246DOD     C218558  17.744  11.220   7.499 -0.3053  0.0717  0.2059
58246DOD     C318559  17.808  11.427   7.905 -0.0443 -0.0194 -0.2020
58247DOD     C118560  17.068  12.694  27.243  0.1858 -0.0361 -0.0191
58247DOD     C218561  16.981  13.051  27.048  0.0890 -0.1468 -0.1146
58247DOD     C318562  17.014  13.455  26.873 -0.1746 -0.2715  0.1656
58248DOD     C118563  20.005  27.652  26.587  0.2838  0.0103 -0.1763
58248DOD     C218564  19.665  27.960  26.800  0.1551  0.0107  0.0096
58248DOD     C318565  19.306  28.282  26.953 -0.2491  0.0123 -0.0515
58249DOD     C118566  13.720  18.499   8.933 -0.2073 -0.1382  0.2713
58249DOD     C218567  13.516  18.540   8.551  0.0574 -0.3381  0.1289
58249DOD     C318568  13.629  18.448   8.163 -0.3749 -0.1716 -0.0162
58250DOD     C118569  27.568  11.026   8.051 -0.0347  0.1414 -0.2421
58250DOD     C218570  27.388  11.003   7.586 -0.2127  0.1664 -0.2189
58250DOD     C318571  27.185  10.949   7.150  0.2444  0.1632 -0.2010
58251DOD     C118572   9.907   9.300  23.611  0.0462  0.0308  0.1223
58251DOD     C218573  10.354   9.367  23.668  0.1049  0.2412  0.0096
58251DOD     C318574  10.746   9.409  23.953 -0.1643  0.0132  0.0569
58252DOD     C118575  18.790   6.409  12.968  0.3960  0.1108  0.0335
58252DOD     C218576  19.219   6.506  12.860  0.0894  0.0506  0.0680
58252DOD     C318577  19.597   6.716  12.648 -0.2492 -0.1249  0.0232
58253DOD     C118578  13.781  20.142  24.773 -0.2537 -0.1428 -0.0912
58253DOD     C218579  13.457  20.043  25.066  0.2958  0.6508  0.1205
58253DOD     C318580  13.388  19.843  25.465 -0.1918  0.1743  0.0789
58254DOD     C118581  25.816  10.573  15.870 -0.0819  0.3285  0.4058
58254DOD     C218582  26.162  10.764  15.652  0.1088 -0.2195  0.0517
58254DOD     C318583  26.393  11.047  15.358  0.1635  0.0332 -0.0940
58255DOD     C118584  19.188   8.026  28.971  0.2839  0.4071  0.1441
58255DOD     C218585  19.563   8.229  29.091 -0.2348 -0.0366 -0.0181
58255DOD     C318586  19.819   8.533  28.866 -0.0850  0.1978  0.1316
58256DOD     C118587   6.139  19.322   6.866  0.1604  0.3246 -0.1776
58256DOD     C218588   5.871  19.008   6.619 -0.0037  0.1376  0.0066
58256DOD     C318589   5.566  18.769   6.361 -0.0476 -0.2543 -0.2727
58257DOD     C118590  20.139  25.726   7.874  0.1085 -0.2023  0.1622
58257DOD     C218591  20.331  25.447   7.590  0.2587  0.0809 -0.0152
58257DOD     C318592  20.541  25.300   7.185 -0.3000  0.0075 -0.1767
58258DOD     C118593  26.476  30.210   8.494  0.0292 -0.0953 -0.0969
58258DOD     C218594  26.068   0.071   8.400  0.1476  0.0689  0.2883
58258DOD     C318595  25.794   0.437   8.473  0.0586 -0.3417  0.1640
58259DOD     C118596  19.166  25.765  12.246 -0.4190 -0.0245 -0.0117
58259DOD     C218597  19.215  25.982  12.712  0.0648  0.3278  0.0364
58259DOD     C318598  19.202  26.227  13.092 -0.0482 -0.1250  0.5064
58260DOD     C118599  21.211  12.615  22.820  0.1104 -0.1499  0.1780
58260DOD     C218600  20.990  12.727  22.434  0.4426 -0.0484  0.1759
58260DOD     C318601  20.521  12.766  22.455  0.0820  0.1933  0.2368
58261DOD     C118602   4.388  25.677   9.352  0.1533  0.4370  0.1851
58261DOD     C218603   4.736  25.906   9.633 -0.0843  0.2392  0.0395
58261DOD     C318604   4.892  25.810  10.018 -0.1649  0.5520 -0.2650
58262DOD     C118605   1.282   9.020  14.637  0.0230  0.1003  0.2072
58262DOD     C218606   1.416   9.434  14.776 -0.0158 -0.0058  0.0713
58262DOD     C318607   1.460   9.751  15.067 -0.2007  0.0067 -0.3195
58263DOD     C118608   7.480  30.084   4.037 -0.1541  0.1221 -0.0757
58263DOD     C218609   7.080  29.817   4.114 -0.1845 -0.2060 -0.1201
58263DOD     C318610   6.615  29.964   4.136 -0.2261 -0.1500  0.0213
58264DOD     C118611   9.278  17.602   5.221 -0.3391 -0.5194 -0.0030
58264DOD     C218612   9.744  17.795   5.413 -0.0474 -0.0908  0.0706
58264DOD     C318613  10.012  18.098   5.536 -0.2347  0.0066 -0.0068
58265DOD     C118614  13.661   3.437  15.568  0.0727  0.1161  0.0538
58265DOD     C218615  13.887   3.419  15.134 -0.2223  0.3310 -0.3446
58265DOD     C318616  13.908   3.232  14.711  0.1694  0.1226 -0.3813
58266DOD     C118617  10.695   8.345   8.624 -0.1583  0.0246  0.0427
58266DOD     C218618  11.031   8.369   8.382 -0.0553 -0.0254 -0.0128
58266DOD     C318619  11.475   8.135   8.346 -0.0062  0.0650 -0.0803
58267DOD     C118620  17.752  22.397  26.423 -0.1348 -0.3167  0.2489
58267DOD     C218621  18.126  22.640  26.323 -0.1209  0.3220  0.1992
58267DOD     C318622  18.440  22.395  26.080 -0.1796 -0.1100  0.1106
58268DOD     C118623   1.883   1.201  17.155 -0.1372 -0.0093 -0.1409
58268DOD     C218624   2.133   0.829  16.865 -0.1775 -0.0311  0.0355
58268DOD     C318625   2.160   0.319  16.846 -0.1596 -0.0073  0.3955
58269DOD     C118626  15.967   6.985  18.060 -0.2110  0.0341 -0.1601
58269DOD     C218627  15.609   7.220  17.838  0.1834  0.0105  0.3416
58269DOD     C318628  15.148   7.244  17.825 -0.0559 -0.5041  0.0886
58270DOD     C118629  24.025   0.429   7.404  0.1167  0.0596 -0.1996
58270DOD     C218630  23.951   0.066   7.033  0.0567  0.2418  0.2133
58270DOD     C318631  24.084  30.027   6.820 -0.0081 -0.0582  0.1681
58271DOD     C118632  13.837  22.973  21.558 -0.2829 -0.1405 -0.1241
58271DOD     C218633  13.926  23.002  22.009  0.2857  0.3256 -0.3099
58271DOD     C318634  14.308  23.163  22.316  0.0337  0.0264  0.0726
58272DOD     C118635  25.893  27.054  29.463  0.1787  0.2703  0.4715
58272DOD     C218636  25.404  26.990  29.516 -0.1336  0.1960 -0.1782
58272DOD     C318637  25.202  26.667  29.715 -0.1667 -0.0684  0.0448
58273DOD     C118638  21.553  28.315  10.635 -0.3003  0.0065  0.0682
58273DOD     C218639  21.205  28.449  10.364  0.0187  0.2277  0.1454
58273DOD     C318640  20.757  28.349  10.234  0.2523  0.1020  0.0339
58274DOD     C118641  24.126   3.843  28.163 -0.0046 -0.1691 -0.0088
58274DOD     C218642  24.004   3.590  27.763  0.1318  0.0651 -0.1105
58274DOD     C318643  24.289   3.365  27.471  0.0184  0.4179  0.0820
58275DOD     C118644  15.650  21.331  12.654 -0.1747 -0.4724  0.2319
58275DOD     C218645  15.640  21.159  13.074 -0.1190 -0.0785  0.1359
58275DOD     C318646  15.717  20.914  13.517  0.2641  0.2748 -0.2436
58276DOD     C118647  26.087  29.203  20.287 -0.3080 -0.0659  0.0524
58276DOD     C218648  25.866  29.416  20.679  0.2001  0.0052  0.0820
58276DOD     C318649  25.823  29.809  20.953  0.2941 -0.0548  0.0744
58277DOD     C118650   9.279  23.233  15.354  0.2184 -0.0610 -0.2086
58277DOD     C218651   9.421  22.835  15.250  0.1105 -0.1979  0.0626
58277DOD     C318652   9.848  22.657  15.137  0.1808 -0.0985 -0.0333
58278DOD     C118653   5.916   9.263  28.278 -0.0378 -0.0460  0.1451
58278DOD     C218654   6.373   9.394  28.298  0.2152 -0.0485 -0.0631
58278DOD     C318655   6.796   9.470  28.281  0.0058 -0.3277  0.0073
58279DOD     C118656   9.729  21.954   8.533  0.1273  0.0873 -0.3027
58279DOD     C218657   9.459  22.362   8.404  0.2432  0.1135 -0.0498
58279DOD     C318658   9.287  22.622   8.016 -0.0840  0.0956 -0.0760
58280DOD     C118659  14.052  16.998  10.597 -0.2351  0.0252  0.3679
58280DOD     C218660  14.185  16.791  10.992  0.0175  0.1398  0.1137
58280DOD     C318661  14.354  16.965  11.364  0.0560  0.0201 -0.3228
58281DOD     C118662  14.888  17.172  30.186  0.2378 -0.1932  0.0199
58281DOD     C218663  14.579  17.298  29.823 -0.2024 -0.1313  0.0782
58281DOD     C318664  14.377  17.317  29.427 -0.0825 -0.2780 -0.0537
58282DOD     C118665  23.759  26.715  27.658  0.1378 -0.1394  0.1529
58282DOD     C218666  24.029  26.357  27.597  0.0265  0.0289 -0.0781
58282DOD     C318667  24.389  26.028  27.442 -0.0021 -0.2109 -0.2989
58283DOD     C118668  28.973  18.258  24.615  0.0645 -0.1567 -0.3315
58283DOD     C218669  28.695  18.224  25.019 -0.3258 -0.0447 -0.1072
58283DOD     C318670  28.589  18.076  25.457 -0.1494  0.0261 -0.2090
58284DOD     C118671  20.385  15.563   0.262 -0.0184 -0.3928  0.0141
58284DOD     C218672  20.739  15.875   0.377  0.1592  0.2015 -0.1002
58284DOD     C318673  20.795  16.056  30.315  0.3588 -0.1495 -0.0527
58285DOD     C118674  13.981  21.252  27.921  0.1536  0.1174 -0.0762
58285DOD     C218675  13.799  20.825  28.020 -0.3929  0.2324 -0.2330
58285DOD     C318676  13.676  20.440  27.823  0.2283 -0.2513 -0.1317
58286DOD     C118677   2.428  14.919   5.669 -0.0882 -0.1259  0.1972
58286DOD     C218678   2.492  15.043   5.245 -0.0216 -0.2872  0.0225
58286DOD     C318679   2.802  15.199   5.009  0.0913 -0.0415 -0.3079
58287DOD     C118680   8.099   8.698  18.839  0.1303 -0.0867 -0.0269
58287DOD     C218681   8.477   8.595  19.134 -0.0464  0.1229 -0.1207
58287DOD     C318682   8.801   8.563  19.467  0.2644 -0.4010 -0.1198
58288DOD     C118683  11.485  12.569  21.553 -0.3845  0.1354  0.1385
58288DOD     C218684  11.721  12.936  21.416  0.1243 -0.0016  0.0359
58288DOD     C318685  12.110  13.154  21.387 -0.2134 -0.0735 -0.1127
58289DOD     C118686  18.098   1.972  16.601 -0.0102  0.0643 -0.1250
58289DOD     C218687  18.102   1.548  16.390  0.0048  0.3033 -0.0402
58289DOD     C318688  17.992   1.120  16.533 -0.0816  0.0942 -0.1014
58290DOD     C118689  10.497  14.885  21.060 -0.1458 -0.1968  0.1487
58290DOD     C218690  10.729  14.826  21.429 -0.2726  0.0532 -0.1066
58290DOD     C318691  11.088  14.922  21.693 -0.1349 -0.5130 -0.0721
58291DOD     C118692  11.207  10.297  29.249 -0.1245 -0.1872  0.0520
58291DOD     C218693  11.104  10.210  28.808 -0.0749 -0.0805 -0.2693
58291DOD     C318694  11.028   9.855  28.511  0.1456 -0.0313 -0.1494
58292DOD     C118695   7.760   9.169  17.621 -0.1653  0.0664 -0.1256
58292DOD     C218696   7.609   9.004  18.057  0.1637  0.1632 -0.0457
58292DOD     C318697   7.213   8.907  18.382 -0.1575 -0.1494 -0.5061
58293DOD     C118698   1.169  19.235   2.735  0.1526  0.1574 -0.1233
58293DOD     C218699   1.205  19.683   2.780 -0.2188  0.0837  0.2081
58293DOD     C318700   0.997  20.048   2.798  0.1164 -0.0913  0.0477
58294DOD     C118701   0.216  28.791  23.712  0.2288  0.0531  0.0287
58294DOD     C218702   0.418  29.193  23.805 -0.0880  0.1184  0.0737
58294DOD     C318703   0.403  29.518  24.023  0.0503 -0.0083  0.2604
58295DOD     C118704  11.198  12.750   8.030  0.0665  0.0163  0.1497
58295DOD     C218705  11.366  12.688   7.610  0.2097 -0.0726 -0.2169
58295DOD     C318706  11.445  12.719   7.133  0.0841  0.1080 -0.3758
58296DOD     C118707   8.446   5.480   6.645  0.1026  0.1938 -0.2803
58296DOD     C218708   8.254   5.306   6.279  0.0750 -0.1219  0.0968
58296DOD     C318709   7.943   5.179   5.946  0.2857 -0.0104  0.2388
58297DOD     C118710  16.928   6.942  15.951  0.0616  0.0240  0.2016
58297DOD     C218711  16.577   7.259  16.001 -0.1962  0.0916 -0.0432
58297DOD     C318712  16.379   7.624  16.191  0.2449 -0.0706  0.1254
58298DOD     C118713  20.532  22.979   2.395 -0.2763 -0.2993 -0.1293
58298DOD     C218714  20.238  23.310   2.426 -0.1843 -0.1630  0.0537
58298DOD     C318715  19.857  23.547   2.249  0.3214  0.1968  0.0398
58299DOD     C118716  29.520  18.976   0.499 -0.1195 -0.2242 -0.2879
58299DOD     C218717  29.300  18.806   0.129  0.1085 -0.0799  0.1337
58299DOD     C318718  28.899  18.982  30.195 -0.0301  0.1349 -0.0223
58300DOD     C118719   5.553  19.612  18.198  0.2237 -0.3375  0.0218
58300DOD     C218720   5.488  19.602  18.657  0.1624  0.2182  0.0915
58300DOD     C318721   5.766  19.735  19.031 -0.3814 -0.0133 -0.0773
58301DOD     C118722  27.734  20.554  19.908  0.0652 -0.0802 -0.0782
58301DOD     C218723  27.674  20.724  20.320  0.0848 -0.2052 -0.2126
58301DOD     C318724  27.699  20.950  20.797 -0.1784  0.1624 -0.1230
58302DOD     C118725  18.936  19.221   0.184  0.0261  0.2745 -0.0285
58302DOD     C218726  19.305  19.240   0.399 -0.0522  0.2215  0.2517
58302DOD     C318727  19.663  19.166   0.690  0.0702  0.3904  0.0557
58303DOD     C118728   0.662   2.104  18.958  0.2673  0.0333  0.1387
58303DOD     C218729   0.644   1.665  18.781 -0.0172  0.1732  0.2754
58303DOD     C318730   0.665   1.233  18.568  0.3677  0.1967 -0.0173
58304DOD     C118731   8.223   1.150  22.952  0.0016  0.1776 -0.3442
58304DOD     C218732   8.004   1.577  23.002 -0.0789  0.0899 -0.2323
58304DOD     C318733   7.797   1.884  23.275 -0.2456 -0.0518  0.1055
58305DOD     C118734  10.525  10.320  10.231 -0.2027  0.1643 -0.1537
58305DOD     C218735  10.847  10.138   9.959 -0.2387  0.0381 -0.1163
58305DOD     C318736  11.226   9.888   9.973  0.1049  0.1906 -0.0265
58306DOD     C118737   9.451   3.183  27.494 -0.0789 -0.0168 -0.0509
58306DOD     C218738   9.156   2.858  27.327  0.0847  0.0541 -0.1952
58306DOD     C318739   8.862   2.448  27.296 -0.0795 -0.0785  0.0176
58307DOD     C118740  10.018   4.691   9.003  0.2494  0.1665  0.1861
58307DOD     C218741  10.474   4.792   8.952  0.1701  0.1545  0.1874
58307DOD     C318742  10.921   4.866   9.019 -0.0195  0.1302  0.0243
58308DOD     C118743   2.822  13.251  29.501  0.0856  0.0222 -0.1480
58308DOD     C218744   3.013  13.637  29.336 -0.0771 -0.1696  0.2436
58308DOD     C318745   3.398  13.929  29.369 -0.0927 -0.1106  0.1245
58309DOD     C118746  25.161  28.615  26.637 -0.1066 -0.2339 -0.1075
58309DOD     C218747  25.136  28.917  26.259  0.1237 -0.1004 -0.1940
58309DOD     C318748  25.379  29.180  25.994 -0.1365 -0.1080  0.0424
58310DOD     C118749  14.570  15.312  23.997  0.0060  0.0406  0.1793
58310DOD     C218750  14.274  15.258  24.397 -0.2704  0.3331 -0.1536
58310DOD     C318751  14.260  15.086  24.764  0.0228 -0.1924 -0.0973
58311DOD     C118752  27.778   0.810  17.620 -0.1211 -0.0909  0.0625
58311DOD     C218753  28.069   1.162  17.436 -0.0782 -0.0310 -0.1147
58311DOD     C318754  28.465   1.184  17.191 -0.2356 -0.3278 -0.1186
58312DOD     C118755  12.164  28.682  27.253  0.0740 -0.2210  0.4440
58312DOD     C218756  11.884  28.896  27.565  0.1531  0.3280 -0.2045
58312DOD     C318757  11.914  29.305  27.788 -0.1142 -0.1090  0.0195
58313DOD     C118758   7.027  28.411  10.004  0.1549 -0.0963 -0.1036
58313DOD     C218759   7.125  28.156  10.429 -0.3642 -0.1124 -0.1121
58313DOD     C318760   7.452  28.150  10.777 -0.0337  0.1367  0.1334
58314DOD     C118761   5.244  21.741  11.682  0.0408  0.0281  0.2032
58314DOD     C218762   4.848  21.517  11.759 -0.1240 -0.2770  0.0362
58314DOD     C318763   4.598  21.201  11.988 -0.1989  0.0044  0.0262
58315DOD     C118764  11.369  13.219  19.028  0.1537 -0.0386 -0.1377
58315DOD     C218765  11.397  12.921  18.621 -0.0767 -0.3215 -0.0674
58315DOD     C318766  11.359  12.653  18.267  0.0237 -0.1366  0.3568
58316DOD     C118767  18.596  14.659  15.466 -0.2994 -0.2042 -0.0182
58316DOD     C218768  18.692  15.111  15.400  0.0982  0.0124 -0.5141
58316DOD     C318769  18.755  15.542  15.233 -0.4142  0.2853 -0.0679
58317DOD     C118770  11.364   8.901  20.092  0.1341 -0.0357 -0.1338
58317DOD     C218771  11.150   9.114  20.458  0.0661 -0.2390 -0.1814
58317DOD     C318772  11.088   9.063  20.916  0.0371  0.1306 -0.0908
58318DOD     C118773  22.938  30.284  12.642  0.0218  0.0593 -0.1890
58318DOD     C218774  23.334  30.243  12.381  0.0388  0.0633 -0.1603
58318DOD     C318775  23.776  30.240  12.251 -0.1244  0.0628 -0.4839
58319DOD     C118776   8.762  18.924   0.524  0.2486 -0.3730  0.0920
58319DOD     C218777   8.382  18.947   0.276  0.2572 -0.1876  0.0534
58319DOD     C318778   7.950  18.816   0.396 -0.0219  0.0170 -0.0851
58320DOD     C118779   2.305  26.860   5.460  0.5323  0.0542 -0.1904
58320DOD     C218780   2.559  26.569   5.280 -0.0394 -0.2908 -0.1339
58320DOD     C318781   2.837  26.256   5.550  0.1402 -0.0494 -0.1996
58321DOD     C118782   6.701   7.425  15.953  0.3036  0.1897 -0.1777
58321DOD     C218783   6.704   7.514  16.395  0.0529  0.0123  0.0040
58321DOD     C318784   6.571   7.317  16.824 -0.2424 -0.2743  0.0055
58322DOD     C118785   4.657  21.018   2.829  0.1923  0.0035 -0.2483
58322DOD     C218786   4.334  21.161   3.157  0.0294  0.3297 -0.0710
58322DOD     C318787   3.889  21.112   3.071 -0.0256 -0.1098  0.0234
58323DOD     C118788   9.524  28.322  27.657 -0.0778 -0.2088  0.1864
58323DOD     C218789   9.240  28.396  28.033  0.2272 -0.1009 -0.1036
58323DOD     C318790   9.187  28.317  28.484 -0.2455 -0.1931  0.0821
58324DOD     C118791  15.344  13.161  11.813  0.0245 -0.4604  0.0835
58324DOD     C218792  15.231  12.698  11.901  0.0614  0.3052 -0.0864
58324DOD     C318793  15.308  12.374  11.630  0.2103 -0.1906  0.1269
58325DOD     C118794  24.990   8.294  23.863 -0.1907 -0.3540  0.0594
58325DOD     C218795  25.070   8.591  23.530  0.1364  0.2287  0.1588
58325DOD     C318796  25.322   8.793  23.164 -0.1989  0.1130  0.0339
58326DOD     C118797   6.552  11.553  21.524  0.1509 -0.0340  0.2850
58326DOD     C218798   6.311  11.937  21.610 -0.0990 -0.0714  0.2830
58326DOD     C318799   6.324  12.346  21.813  0.0328  0.2025 -0.1352
58327DOD     C118800  12.082  24.429   5.152  0.3205  0.1822 -0.2873
58327DOD     C218801  11.884  24.700   4.796  0.1388 -0.1348 -0.2490
58327DOD     C318802  11.771  24.712   4.338  0.1062  0.2555  0.0528
58328DOD     C118803  15.912  14.593  26.838  0.0688  0.3794  0.2449
58328DOD     C218804  15.586  14.438  27.150  0.0385  0.2703 -0.1569
58328DOD     C318805  15.338  14.123  27.405  0.2901 -0.3244  0.1452
58329DOD     C118806  29.005  20.674  26.856  0.1789 -0.2059 -0.3940
58329DOD     C218807  29.152  20.356  27.149  0.1645 -0.0439 -0.0946
58329DOD     C318808  29.390  19.970  27.015  0.1229  0.0020  0.1681
58330DOD     C118809  14.331   8.886   5.623  0.0461  0.0795 -0.0460
58330DOD     C218810  14.608   8.756   5.225  0.1246  0.3622 -0.0466
58330DOD     C318811  14.615   8.565   4.794  0.2235  0.1372  0.0911
58331DOD     C118812  29.272  15.567  27.865 -0.0653 -0.0266  0.0799
58331DOD     C218813  29.550  15.955  27.694 -0.0141  0.0592 -0.1435
58331DOD     C318814  29.965  16.160  27.745 -0.0944  0.1599 -0.0156
58332DOD     C118815  17.316   2.539   8.500 -0.3387 -0.0206 -0.1564
58332DOD     C218816  17.691   2.265   8.449  0.1286 -0.2381 -0.1939
58332DOD     C318817  17.909   1.899   8.272  0.1263 -0.0786 -0.2058
58333DOD     C118818  27.379   2.833   6.738 -0.3824  0.0684  0.0102
58333DOD     C218819  27.269   2.605   6.354  0.1443 -0.1309  0.0649
58333DOD     C318820  26.931   2.688   6.040  0.1808  0.3697  0.3237
58334DOD     C118821   1.375   8.923  23.234 -0.0340  0.3679 -0.0049
58334DOD     C218822   1.727   9.205  23.278  0.1102  0.2118  0.0673
58334DOD     C318823   2.134   9.341  23.198 -0.0324 -0.0789 -0.2492
58335DOD     C118824   7.929  29.714  21.366 -0.1354 -0.0631 -0.1018
58335DOD     C218825   8.370  29.876  21.449 -0.0441  0.1093 -0.0501
58335DOD     C318826   8.611  30.275  21.292 -0.1347  0.0264 -0.3032
58336DOD     C118827  24.113  24.277  11.164 -0.1306 -0.0772  0.0572
58336DOD     C218828  24.378  24.429  11.510  0.2096 -0.0523 -0.4434
58336DOD     C318829  24.679  24.207  11.798  0.0126 -0.2376 -0.2645
58337DOD     C118830  15.264   9.462   6.751 -0.0741 -0.1643  0.1690
58337DOD     C218831  15.323   9.070   6.448  0.2636  0.0928  0.0423
58337DOD     C318832  15.375   8.579   6.492 -0.1624  0.3733  0.0786
58338DOD     C118833   4.578  14.824   8.998  0.1953  0.1781  0.1699
58338DOD     C218834   4.489  14.374   9.141 -0.0626 -0.2734  0.1488
58338DOD     C318835   4.745  14.010   9.267  0.1031  0.2541  0.2526
58339DOD     C118836   9.441  21.945  18.552 -0.0765  0.1667  0.1834
58339DOD     C218837   9.582  22.124  18.103 -0.0324 -0.2555 -0.0829
58339DOD     C318838   9.725  21.923  17.639  0.2069 -0.1760 -0.2658
58340DOD     C118839   2.365   1.089  20.316 -0.0016  0.0010 -0.1531
58340DOD     C218840   1.976   1.346  20.471  0.1875  0.0438 -0.1112
58340DOD     C318841   1.552   1.388  20.306 -0.1037  0.3405  0.0182
58341DOD     C118842   0.753   8.618   2.815  0.1077 -0.0745 -0.0297
58341DOD     C218843   0.642   8.750   2.347  0.1101 -0.1616 -0.1170
58341DOD     C318844   0.691   8.962   1.942 -0.0523 -0.3733 -0.0957
58342DOD     C118845  17.167  17.277  13.387 -0.1102  0.4097 -0.0525
58342DOD     C218846  16.778  17.440  13.591 -0.1214 -0.0179 -0.0794
58342DOD     C318847  16.370  17.468  13.355 -0.2388 -0.0752  0.1318
58343DOD     C118848  19.354  24.269   2.599  0.4056 -0.0774  0.0368
58343DOD     C218849  19.258  24.373   2.193 -0.3584 -0.1145  0.0491
58343DOD     C318850  19.019  24.394   1.759  0.0773  0.2707 -0.0357
58344DOD     C118851  15.380   1.637  29.479  0.2374  0.0815 -0.1813
58344DOD     C218852  15.741   1.747  29.756 -0.3195  0.0020 -0.0466
58344DOD     C318853  15.629   1.851  30.162  0.1557  0.3184  0.0025
58345DOD     C118854  22.403  10.954   4.018 -0.0477 -0.0875  0.0039
58345DOD     C218855  22.552  11.108   4.435 -0.2071 -0.0387  0.0811
58345DOD     C318856  22.730  11.116   4.897  0.0320 -0.2363 -0.3932
58346DOD     C118857   1.789  11.438   4.273  0.2172 -0.1356  0.2451
58346DOD     C218858   1.836  11.798   3.960  0.1024 -0.3629  0.4360
58346DOD     C318859   2.132  11.809   3.534 -0.2009 -0.1256 -0.0902
58347DOD     C118860  17.530   9.353  12.944 -0.2056 -0.1669  0.1034
58347DOD     C218861  17.381   9.555  13.366 -0.3015 -0.1070 -0.0242
58347DOD     C318862  17.257   9.533  13.880  0.0142 -0.1450  0.0139
58348DOD     C118863  15.780  23.503  20.604 -0.1972  0.1521 -0.0331
58348DOD     C218864  15.384  23.354  20.824  0.1332 -0.2478  0.0714
58348DOD     C318865  15.001  23.537  20.743 -0.0216 -0.0221 -0.2175
58349DOD     C118866  16.063  19.353  21.533  0.2573 -0.2790  0.0249
58349DOD     C218867  15.720  19.227  21.203  0.1308 -0.0934 -0.0397
58349DOD     C318868  15.506  18.890  20.995  0.1655  0.1018 -0.2564
58350DOD     C118869  17.462   7.495  27.133  0.0005 -0.3162 -0.0271
58350DOD     C218870  17.395   7.190  27.441 -0.1036 -0.4130  0.2102
58350DOD     C318871  17.585   7.088  27.879 -0.2145 -0.0301 -0.0304
58351DOD     C118872  12.019  27.860  16.018 -0.1638  0.0572 -0.1743
58351DOD     C218873  12.030  27.706  15.603 -0.1415  0.0093  0.0633
58351DOD     C318874  11.914  27.328  15.290  0.0340  0.1785 -0.0526
58352DOD     C118875  16.557  14.623  24.168 -0.1198 -0.0338  0.0041
58352DOD     C218876  16.110  14.484  24.100  0.2780 -0.0405 -0.0592
58352DOD     C318877  15.771  14.250  23.930  0.0721  0.2785 -0.1059
58353DOD     C118878   1.534  29.750  27.757  0.0533 -0.2265 -0.1608
58353DOD     C218879   1.403  30.076  28.084  0.1471 -0.1757  0.0182
58353DOD     C318880   0.998  30.191  28.234  0.1381 -0.0087 -0.1832
58354DOD     C118881  21.533   7.235   8.682  0.3999  0.2952  0.1063
58354DOD     C218882  21.384   6.907   8.337 -0.2176  0.1075 -0.1955
58354DOD     C318883  21.291   6.533   8.036  0.1323 -0.1257 -0.0699
58355DOD     C118884   0.419  21.724   3.476  0.0353  0.0839  0.1959
58355DOD     C218885   0.603  22.057   3.720 -0.0183  0.0299  0.0918
58355DOD     C318886   0.577  22.528   3.817 -0.1067  0.2558 -0.0249
58356DOD     C118887  22.663  13.234   5.673 -0.2517  0.0828 -0.0079
58356DOD     C218888  22.510  12.868   5.814  0.1684 -0.1119  0.0762
58356DOD     C318889  22.494  12.551   6.102  0.0923 -0.0496 -0.0040
58357DOD     C118890  15.070  20.585  26.446 -0.1656  0.1161 -0.2080
58357DOD     C218891  15.398  20.643  26.804 -0.1416  0.0018  0.1520
58357DOD     C318892  15.764  20.732  27.098  0.0526  0.4301 -0.3242
58358DOD     C118893   7.499  13.673  19.458 -0.1600 -0.2609 -0.0566
58358DOD     C218894   7.281  13.374  19.136  0.1734 -0.1843 -0.3386
58358DOD     C318895   7.090  13.138  18.848 -0.1312  0.3675  0.0293
58359DOD     C118896  26.078   2.984  21.923  0.1794  0.1497 -0.2165
58359DOD     C218897  25.847   3.066  21.521  0.2448 -0.0645 -0.0024
58359DOD     C318898  25.574   2.706  21.287  0.1851 -0.2195  0.1307
58360DOD     C118899   8.539  11.330  20.100  0.0351  0.0906  0.0650
58360DOD     C218900   8.604  11.360  19.572  0.0545  0.0966 -0.3760
58360DOD     C318901   8.664  11.432  19.122  0.1022 -0.0298 -0.0797
58361DOD     C118902  14.041   1.191  29.248  0.0650 -0.0644  0.0305
58361DOD     C218903  14.159   0.888  29.516  0.0702 -0.0399  0.1661
58361DOD     C318904  14.248   0.711  29.895  0.0043  0.2116 -0.1903
58362DOD     C118905  28.555  16.839  23.658 -0.0778 -0.2343  0.1858
58362DOD     C218906  28.233  16.797  24.027  0.1678 -0.3402 -0.2080
58362DOD     C318907  27.978  16.512  24.350 -0.1312 -0.0062 -0.3660
58363DOD     C118908   8.025   5.961  21.481  0.1410 -0.0358 -0.0543
58363DOD     C218909   7.664   5.646  21.476  0.1998  0.1126 -0.1115
58363DOD     C318910   7.263   5.740  21.283 -0.0157 -0.0550 -0.0592
58364DOD     C118911  24.939  10.904   3.317 -0.0715 -0.0401 -0.0312
58364DOD     C218912  24.885  10.821   3.777 -0.1333 -0.1765  0.0803
58364DOD     C318913  24.522  10.551   4.000 -0.4693  0.1197 -0.1795
58365DOD     C118914   0.861  12.392   6.027 -0.1194  0.3176 -0.0671
58365DOD     C218915   1.041  12.203   6.449  0.0819  0.1793 -0.2492
58365DOD     C318916   0.903  12.210   6.900  0.3205 -0.0524 -0.1823
58366DOD     C118917  19.570   7.185  25.259  0.2303  0.0113  0.0864
58366DOD     C218918  19.567   6.714  25.341  0.0343 -0.3207 -0.3658
58366DOD     C318919  19.734   6.310  25.222  0.0412  0.2944 -0.0196
58367DOD     C118920  20.197  14.151  17.659  0.3817  0.0754 -0.0554
58367DOD     C218921  19.897  14.401  17.425  0.2647  0.4263 -0.3244
58367DOD     C318922  19.767  14.453  16.981  0.1504 -0.1954  0.0764
58368DOD     C118923  26.424   4.379   3.480  0.0134 -0.2067  0.2505
58368DOD     C218924  26.147   4.072   3.746 -0.1377 -0.2647  0.2103
58368DOD     C318925  25.811   3.730   3.701  0.2354 -0.0757 -0.1987
58369DOD     C118926   3.070   3.613  21.835 -0.1981 -0.1060  0.0492
58369DOD     C218927   3.219   4.075  21.860 -0.1947 -0.0053  0.0664
58369DOD     C318928   3.449   4.466  22.047  0.0423  0.0496 -0.0015
58370DOD     C118929  22.545   4.009   6.391  0.0631 -0.1303  0.1056
58370DOD     C218930  22.475   3.832   6.866  0.1576 -0.0912  0.1967
58370DOD     C318931  22.325   3.834   7.306  0.4204  0.3972 -0.0480
58371DOD     C118932  29.732   3.251  26.102  0.0042  0.0892 -0.0759
58371DOD     C218933  29.346   3.409  25.938 -0.0168 -0.2425 -0.3631
58371DOD     C318934  28.986   3.589  25.748 -0.1248  0.0179 -0.1473
58372DOD     C118935  27.881  24.813  24.323  0.0563 -0.1438 -0.1996
58372DOD     C218936  28.380  24.719  24.369  0.4671  0.1285 -0.0993
58372DOD     C318937  28.747  24.468  24.567  0.1735 -0.0992  0.1152
58373DOD     C118938   8.763  22.873  24.888 -0.2293 -0.2053  0.1306
58373DOD     C218939   8.623  22.931  25.344  0.5127  0.0111 -0.1840
58373DOD     C318940   8.595  22.675  25.734 -0.1049  0.1202 -0.0051
58374DOD     C118941  12.525  16.120   5.487  0.0655  0.1483  0.0045
58374DOD     C218942  12.980  16.063   5.503 -0.0963 -0.3787  0.0537
58374DOD     C318943  13.436  16.086   5.551  0.0794 -0.4391  0.3668
58375DOD     C118944  24.423  22.349   5.757  0.0096  0.3487  0.1786
58375DOD     C218945  24.347  22.062   6.114 -0.1965  0.0002 -0.1160
58375DOD     C318946  24.258  21.639   6.180 -0.0287  0.2744  0.0409
58376DOD     C118947   2.549  30.181  19.171  0.1752 -0.1113  0.0090
58376DOD     C218948   2.562   0.273  18.895 -0.0412  0.0696 -0.0985
58376DOD     C318949   2.840   0.553  18.623 -0.2586 -0.0288  0.1136
58377DOD     C118950  28.066   9.196  12.966 -0.0891  0.1630 -0.2355
58377DOD     C218951  28.318   8.864  12.941 -0.2370 -0.2334 -0.0468
58377DOD     C318952  28.751   8.827  13.093  0.1005 -0.2664 -0.0098
58378DOD     C118953   7.551  28.245   9.883 -0.1703  0.0704  0.0144
58378DOD     C218954   7.907  28.125   9.570 -0.0249 -0.2419  0.1973
58378DOD     C318955   8.224  28.158   9.243  0.1668 -0.0048  0.2333
58379DOD     C118956   2.529  18.944  16.608 -0.0634  0.0539  0.0759
58379DOD     C218957   2.617  18.786  17.032  0.1901 -0.0966  0.1024
58379DOD     C318958   2.647  18.645  17.432 -0.0440  0.2792  0.2375
58380DOD     C118959  28.569   6.489   2.248 -0.4573 -0.2982 -0.1928
58380DOD     C218960  28.466   6.032   2.425  0.0303 -0.0497  0.1233
58380DOD     C318961  28.435   5.560   2.627 -0.1447 -0.0899  0.1545
58381DOD     C118962   9.531  16.286   5.366  0.3733 -0.1263 -0.1585
58381DOD     C218963   9.902  16.200   5.566 -0.3338 -0.0622 -0.1285
58381DOD     C318964  10.360  16.088   5.427 -0.1139  0.1669  0.1355
58382DOD     C118965  28.522   4.499  12.759 -0.1640  0.1182  0.0938
58382DOD     C218966  28.887   4.646  12.905 -0.0821 -0.4104 -0.2128
58382DOD     C318967  29.375   4.629  12.690 -0.5131 -0.0494  0.4391
58383DOD     C118968   1.623  17.249  11.399  0.0847  0.3603  0.4005
58383DOD     C218969   2.045  17.003  11.460  0.0169  0.0278 -0.2441
58383DOD     C318970   2.084  16.775  11.851  0.0801  0.2553  0.3838
58384DOD     C118971  10.037   5.162  20.395 -0.1593  0.1490 -0.1284
58384DOD     C218972  10.168   4.946  20.053  0.2234 -0.1189 -0.2376
58384DOD     C318973  10.203   4.613  19.727  0.1318  0.2394  0.0568
58385DOD     C118974   2.070   7.677  20.887  0.2032 -0.1506 -0.1066
58385DOD     C218975   1.840   7.641  20.527 -0.2305  0.0583  0.0031
58385DOD     C318976   1.375   7.510  20.479 -0.0236  0.1465  0.1734
58386DOD     C118977   9.314   1.861   5.156  0.1295  0.2892  0.2637
58386DOD     C218978   9.538   1.756   4.740  0.0575  0.1756  0.0494
58386DOD     C318979   9.968   1.619   4.630 -0.1405 -0.0308  0.3185
58387DOD     C118980   1.691  24.209  26.887 -0.0734  0.2597 -0.3283
58387DOD     C218981   1.433  24.596  26.653 -0.3861  0.2747 -0.3756
58387DOD     C318982   1.117  24.957  26.659 -0.0109  0.0195 -0.6868
58388DOD     C118983  21.305  11.837  15.866 -0.0460 -0.1352  0.1123
58388DOD     C218984  21.665  12.010  15.549  0.3093 -0.1275  0.1318
58388DOD     C318985  22.032  12.163  15.379 -0.0451  0.2322  0.1937
58389DOD     C118986  29.476  19.069   1.903 -0.2050 -0.3082  0.0039
58389DOD     C218987  29.320  19.026   1.450 -0.1051 -0.0040 -0.3305
58389DOD     C318988  29.427  18.932   0.999  0.1637  0.1139 -0.3705
58390DOD     C118989  17.406   1.008  13.199  0.1334  0.0271 -0.1091
58390DOD     C218990  17.247   0.990  12.732  0.2102 -0.2534  0.2073
58390DOD     C318991  17.220   1.362  12.462 -0.1054 -0.1270 -0.0285
58391DOD     C118992  15.974  16.752  28.367 -0.2159 -0.1016  0.1191
58391DOD     C218993  15.798  17.077  28.039  0.0587  0.0280 -0.0503
58391DOD     C318994  16.020  17.325  27.723 -0.1560 -0.2166  0.0840
58392DOD     C118995   7.415   1.734  19.698 -0.0484  0.1084  0.0074
58392DOD     C218996   7.495   1.819  19.247  0.0026  0.0836 -0.1546
58392DOD     C318997   7.764   1.609  19.045  0.1721  0.0126  0.1714
58393DOD     C118998  25.531  24.798  24.328  0.0353 -0.1183  0.2001
58393DOD     C218999  25.110  24.768  24.293 -0.2741  0.1529 -0.0468
58393DOD     C319000  24.670  24.772  24.140  0.2283  0.0637  0.0858
58394DOD     C119001  25.966  22.403  21.158  0.0746  0.0061 -0.1739
58394DOD     C219002  25.673  22.167  20.847  0.0052  0.2276 -0.0718
58394DOD     C319003  25.283  22.018  20.548  0.0252  0.0569  0.0357
58395DOD     C119004  29.175  20.215   7.494 -0.1239  0.1332 -0.1289
58395DOD     C219005  28.762  20.012   7.327 -0.1191 -0.0268  0.1400
58395DOD     C319006  28.554  19.636   7.162 -0.1495 -0.2370 -0.0322
58396DOD     C119007   1.037  30.097   9.440  0.1048 -0.0323  0.1300
58396DOD     C219008   1.191   0.013   9.835 -0.0692 -0.2821 -0.1756
58396DOD     C319009   0.869   0.086  10.214  0.0203 -0.2273 -0.0868
58397DOD     C119010  17.550  18.816   2.880 -0.1705  0.0527 -0.1507
58397DOD     C219011  17.597  19.312   2.879 -0.1196  0.1952  0.0960
58397DOD     C319012  17.483  19.726   2.814  0.1457 -0.0369  0.0261
58398DOD     C119013  27.486  29.402  29.595  0.1571  0.2753 -0.2437
58398DOD     C219014  27.157  29.171  29.303 -0.2053  0.1928 -0.0650
58398DOD     C319015  27.048  29.182  28.823 -0.1025 -0.0489 -0.5297
58399DOD     C119016   9.225  29.263  17.537  0.0989 -0.3669 -0.0865
58399DOD     C219017   9.601  29.377  17.796 -0.1276 -0.1589  0.0583
58399DOD     C319018  10.003  29.231  17.914  0.0899  0.0789  0.4327
58400DOD     C119019   0.099   6.318  20.653 -0.3384  0.1486  0.1218
58400DOD     C219020   0.469   6.020  20.707  0.3072  0.1290 -0.1310
58400DOD     C319021   0.730   5.699  20.647  0.0674  0.1123  0.0553
58401DOD     C119022  22.239  10.460  16.449  0.2281  0.0120 -0.0884
58401DOD     C219023  22.477  10.054  16.515 -0.2139  0.2441 -0.1647
58401DOD     C319024  22.594   9.627  16.424 -0.0152 -0.4061  0.0719
58402DOD     C119025  10.812  24.049   1.011 -0.0396  0.1529 -0.2663
58402DOD     C219026  11.043  24.378   0.801  0.2597  0.3023 -0.2853
58402DOD     C319027  11.116  24.768   0.530 -0.2272 -0.1787  0.0865
58403DOD     C119028  15.813   9.238  25.394 -0.0663  0.0574 -0.2423
58403DOD     C219029  15.940   8.771  25.611  0.0080  0.0026  0.1890
58403DOD     C319030  15.586   8.426  25.712 -0.1547  0.1363 -0.2012
58404DOD     C119031  19.353  10.721  25.688  0.0867  0.0817  0.1691
58404DOD     C219032  19.020  10.941  25.448  0.1867  0.2328  0.1113
58404DOD     C319033  18.604  11.000  25.211 -0.0747 -0.0014 -0.2361
58405DOD     C119034   2.056  16.214  25.164  0.0419  0.1919  0.1931
58405DOD     C219035   1.589  16.169  25.061  0.1055  0.0819 -0.0550
58405DOD     C319036   1.129  16.356  25.055  0.1471  0.0866 -0.0653
58406DOD     C119037  13.185   0.027   3.561  0.0091  0.0185  0.2580
58406DOD     C219038  13.641  30.299   3.624 -0.1709 -0.0981 -0.0411
58406DOD     C319039  13.923   0.159   3.940  0.0802  0.1456 -0.3263
58407DOD     C119040   2.939  12.462   4.037  0.0048  0.3544 -0.0792
58407DOD     C219041   2.573  12.433   4.334  0.0811  0.4892 -0.1712
58407DOD     C319042   2.171  12.128   4.327  0.1819  0.3775  0.0519
58408DOD     C119043   7.633  27.894  27.299 -0.0780 -0.2921  0.3873
58408DOD     C219044   7.413  27.808  27.741  0.0279  0.2531 -0.0018
58408DOD     C319045   7.345  27.742  28.178 -0.3094 -0.2660 -0.1094
58409DOD     C119046   6.332  28.633  20.525 -0.1047  0.3936 -0.3803
58409DOD     C219047   6.471  28.650  20.086  0.0649 -0.0392  0.0095
58409DOD     C319048   6.202  28.493  19.688  0.0587 -0.0190 -0.2245
58410DOD     C119049   4.179   4.785  13.774 -0.0006  0.1327  0.1540
58410DOD     C219050   4.587   4.594  13.622  0.0444  0.1207 -0.0026
58410DOD     C319051   5.011   4.636  13.836 -0.3075 -0.2021  0.1116
58411DOD     C119052  13.102  23.717  28.271  0.3522  0.1175  0.0511
58411DOD     C219053  13.254  23.628  27.847 -0.0131  0.2471  0.1855
58411DOD     C319054  13.670  23.716  27.620 -0.2521 -0.0242  0.2705
58412DOD     C119055  20.568  12.220  27.041  0.2034  0.2802  0.0480
58412DOD     C219056  20.903  12.127  26.731 -0.0961 -0.1627 -0.1784
58412DOD     C319057  21.328  12.199  26.539  0.1295 -0.0704  0.1846
58413DOD     C119058  30.034  16.569  26.923  0.2122 -0.2225  0.0513
58413DOD     C219059   0.078  16.581  26.642 -0.2814 -0.1377  0.0792
58413DOD     C319060   0.422  16.874  26.499  0.1106 -0.0574 -0.2530
58414DOD     C119061  20.258   3.232  10.884 -0.0203 -0.2177  0.2941
58414DOD     C219062  20.244   2.831  10.694  0.0835  0.0808 -0.3124
58414DOD     C319063  20.526   2.609  10.427 -0.1163  0.1475  0.2980
58415DOD     C119064   3.971  26.102   4.736 -0.0898  0.3022  0.0077
58415DOD     C219065   3.887  25.670   4.935 -0.2295 -0.2221 -0.0657
58415DOD     C319066   3.697  25.207   5.039  0.1359  0.0085 -0.1361
58416DOD     C119067  28.607  28.888  12.233 -0.1650  0.0041  0.3295
58416DOD     C219068  28.422  28.642  12.528 -0.1275  0.0426 -0.1173
58416DOD     C319069  28.112  28.462  12.820 -0.0307  0.2583  0.2725
58417DOD     C119070  21.691   0.047  12.762 -0.3297  0.0846 -0.1478
58417DOD     C219071  21.334  30.286  13.073  0.2266 -0.0174  0.2140
58417DOD     C319072  21.283  30.150  13.505  0.1076  0.0841 -0.0912
58418DOD     C119073  17.069  10.806   8.867 -0.2225 -0.0296  0.0726
58418DOD     C219074  17.387  10.721   9.229 -0.2597  0.1291 -0.0681
58418DOD     C319075  17.833  10.740   9.393 -0.2540  0.2448  0.0277
58419DOD     C119076  29.271   9.090  20.637  0.0909 -0.0842  0.0467
58419DOD     C219077  29.417   9.521  20.632 -0.1644  0.1745 -0.0185
58419DOD     C319078  29.446   9.945  20.761 -0.0322  0.0691 -0.1004
58420DOD     C119079   7.674   3.689  28.552  0.1220 -0.1124 -0.1803
58420DOD     C219080   7.951   4.047  28.776 -0.0599 -0.0789  0.0371
58420DOD     C319081   8.134   4.461  28.776  0.1517  0.2427 -0.3047
58421DOD     C119082  23.481  28.721  29.857  0.0503 -0.0395 -0.0033
58421DOD     C219083  23.120  28.881  30.154  0.2488  0.3110 -0.0637
58421DOD     C319084  22.678  28.879   0.002  0.0935 -0.1474 -0.3344
58422DOD     C119085  29.230  20.962  14.836 -0.4534 -0.3711 -0.1064
58422DOD     C219086  29.682  20.903  14.682  0.0619 -0.2452 -0.3143
58422DOD     C319087  30.107  20.761  14.558 -0.0167  0.0403  0.0108
58423DOD     C119088   4.571  10.223  17.854 -0.2259 -0.0601  0.1829
58423DOD     C219089   4.972  10.105  17.996 -0.0802  0.0520 -0.1589
58423DOD     C319090   5.353  10.315  18.229  0.0981  0.2445 -0.1543
58424DOD     C119091  25.482   0.493  10.791  0.2271 -0.0113 -0.0217
58424DOD     C219092  25.060   0.699  11.034  0.1255  0.1613  0.3086
58424DOD     C319093  24.766   0.934  11.245 -0.0688  0.0163 -0.1890
58425DOD     C119094  11.252  10.671  19.881  0.0849 -0.1734  0.0317
58425DOD     C219095  11.755  10.698  19.886  0.1344 -0.1845  0.2135
58425DOD     C319096  12.169  10.857  19.647 -0.0322 -0.1987 -0.1536
58426DOD     C119097  29.710   4.279  12.902 -0.4681  0.1644 -0.2460
58426DOD     C219098  30.123   4.414  12.973 -0.1094  0.0104 -0.1088
58426DOD     C319099   0.143   4.652  12.751  0.0005  0.0814  0.0365
58427DOD     C119100   5.676  18.097  18.995  0.0078 -0.0323  0.0099
58427DOD     C219101   6.038  18.356  18.753  0.5329  0.2441  0.0314
58427DOD     C319102   6.373  18.666  18.607  0.1089 -0.4943  0.0908
58428DOD     C119103   8.821  14.551  13.635  0.1872 -0.1766  0.1000
58428DOD     C219104   9.164  14.880  13.723  0.0998  0.1855 -0.2154
58428DOD     C319105   9.435  15.211  13.898  0.0269  0.1167 -0.0742
58429DOD     C119106  18.790  25.103  21.106  0.0320 -0.0422 -0.2917
58429DOD     C219107  18.762  25.484  21.329  0.3325  0.0482 -0.0837
58429DOD     C319108  18.518  25.739  21.634  0.1083 -0.0021 -0.1238
58430DOD     C119109   3.202  21.189  22.306 -0.0666 -0.2423  0.0468
58430DOD     C219110   2.801  21.395  22.199  0.1200 -0.0033 -0.0850
58430DOD     C319111   2.455  21.641  22.079 -0.0748  0.0403  0.0380
58431DOD     C119112   8.842  10.159   4.615 -0.1765 -0.1477 -0.0898
58431DOD     C219113   8.766   9.820   4.837  0.1664 -0.1121 -0.1090
58431DOD     C319114   8.870   9.328   4.907  0.2275 -0.3193 -0.1323
58432DOD     C119115  25.485  19.008  17.077  0.3370 -0.2339 -0.0809
58432DOD     C219116  25.593  19.353  16.801  0.0722  0.0986  0.3070
58432DOD     C319117  25.353  19.749  16.632 -0.1547  0.0713 -0.3071
58433DOD     C119118  19.898  14.214   7.977 -0.2256  0.1206  0.3854
58433DOD     C219119  20.356  14.200   7.917 -0.0382  0.1603 -0.0072
58433DOD     C319120  20.775  14.111   8.159  0.1427  0.0212  0.1620
58434DOD     C119121  29.445  29.953  23.483  0.4210 -0.2053 -0.2299
58434DOD     C219122  29.282   0.055  23.543 -0.0412  0.0955  0.1506
58434DOD     C319123  29.051   0.393  23.377 -0.3113  0.0172 -0.1817
58435DOD     C119124  13.531  23.403   4.433 -0.0950 -0.0616 -0.0373
58435DOD     C219125  13.068  23.504   4.493  0.0492 -0.1949  0.2579
58435DOD     C319126  12.685  23.767   4.583  0.0235 -0.1189 -0.1936
58436DOD     C119127   7.930   4.603   3.439  0.2350  0.3237 -0.2594
58436DOD     C219128   8.218   4.241   3.361 -0.1132  0.0083 -0.0814
58436DOD     C319129   8.197   3.887   3.129  0.1523  0.0951 -0.2452
58437DOD     C119130   7.710  10.842  27.164 -0.1190 -0.2006 -0.2324
58437DOD     C219131   7.799  11.159  26.812  0.0588 -0.0109  0.0777
58437DOD     C319132   7.703  11.564  26.619 -0.1496  0.0127  0.0682
58438DOD     C119133  30.173  28.776   9.091 -0.0288 -0.1766  0.2015
58438DOD     C219134   0.162  28.879   8.821  0.0369 -0.2381 -0.3393
58438DOD     C319135   0.524  28.781   8.487  0.0281 -0.2096 -0.4937
58439DOD     C119136   8.039   7.600  16.113 -0.1292  0.1472 -0.1043
58439DOD     C219137   8.011   7.734  16.592  0.1371  0.2227 -0.0628
58439DOD     C319138   7.788   8.049  16.828  0.1130  0.0248 -0.0847
58440DOD     C119139   9.772   4.743   1.995 -0.1108 -0.0142 -0.1868
58440DOD     C219140   9.570   4.323   2.039  0.2287  0.0409  0.2126
58440DOD     C319141   9.367   3.886   2.163  0.1573  0.0153  0.2235
58441DOD     C119142  29.581   2.062  23.568  0.1403 -0.1255  0.2728
58441DOD     C219143  29.401   1.750  23.863  0.1846 -0.1609 -0.2433
58441DOD     C319144  29.394   1.377  24.173  0.0474 -0.3730  0.1175
58442DOD     C119145  30.331  22.572  29.710  0.2478  0.0555  0.3090
58442DOD     C219146  30.117  22.438  29.296  0.0379 -0.0934  0.0451
58442DOD     C319147  29.914  22.242  28.903 -0.1800 -0.0519  0.0314
58443DOD     C119148  25.608   2.128  25.183 -0.3901 -0.2587  0.0637
58443DOD     C219149  25.750   2.493  25.428  0.4283  0.1881  0.0962
58443DOD     C319150  26.022   2.642  25.723  0.0779 -0.2638 -0.1822
58444DOD     C119151  24.384   4.068  25.255 -0.1230  0.0174 -0.3841
58444DOD     C219152  24.134   4.256  24.885  0.1713 -0.1100 -0.0760
58444DOD     C319153  24.215   4.247  24.394 -0.0358 -0.1705  0.0464
58445DOD     C119154   7.724   1.838  18.553  0.3596 -0.1059  0.0007
58445DOD     C219155   7.800   2.108  18.895  0.0337 -0.2330  0.0687
58445DOD     C319156   7.881   2.574  18.796  0.0972  0.1199 -0.2302
58446DOD     C119157  20.150  30.276  18.870 -0.1088 -0.2002  0.0279
58446DOD     C219158  19.936  29.989  18.663  0.3893  0.1979  0.3011
58446DOD     C319159  19.542  29.662  18.476 -0.1679  0.0529  0.3079
58447DOD     C119160  26.388  24.379  20.862 -0.4056  0.2584 -0.1048
58447DOD     C219161  26.882  24.333  20.764 -0.0769 -0.2198  0.1747
58447DOD     C319162  27.207  24.023  20.793 -0.0201 -0.0702  0.0128
58448DOD     C119163  -0.009   6.063   6.672  0.0851 -0.0268  0.2619
58448DOD     C219164  29.892   6.231   6.621 -0.0359  0.1999  0.3021
58448DOD     C319165  29.838   6.370   6.182 -0.0940 -0.0845  0.0479
58449DOD     C119166  29.845  28.347  29.728 -0.2056  0.0564  0.1440
58449DOD     C219167  29.924  28.373  29.281  0.3142 -0.0523  0.0681
58449DOD     C319168  29.674  28.037  28.988 -0.0129 -0.5744 -0.1367
58450DOD     C119169  17.002   8.788  15.722  0.3529 -0.3785 -0.2158
58450DOD     C219170  16.929   9.255  15.784  0.0436 -0.1682 -0.1093
58450DOD     C319171  16.619   9.466  16.065 -0.1154  0.0121  0.0277
58451DOD     C119172  18.292   1.365  13.208 -0.1149  0.4395 -0.0121
58451DOD     C219173  17.864   1.546  13.183 -0.0081 -0.0150  0.0247
58451DOD     C319174  17.821   1.990  13.292  0.2208  0.1908 -0.1490
58452DOD     C119175  25.479  20.224  25.854 -0.2782 -0.0086  0.1027
58452DOD     C219176  25.648  20.477  25.483 -0.0923 -0.2320  0.0056
58452DOD     C319177  25.714  20.928  25.634  0.2350  0.0153 -0.0478
58453DOD     C119178   7.833  15.861  25.007 -0.0710 -0.2260  0.1386
58453DOD     C219179   8.291  15.864  25.096 -0.1599  0.0721 -0.2850
58453DOD     C319180   8.637  16.015  25.403 -0.1057  0.0916 -0.3545
58454DOD     C119181  24.183   1.014   7.119 -0.0750 -0.0195 -0.0303
58454DOD     C219182  24.697   1.028   7.150 -0.1981 -0.1001  0.0546
58454DOD     C319183  25.183   1.038   7.133  0.0535  0.0678  0.0575
58455DOD     C119184  12.648   9.584  19.121 -0.0774  0.0494 -0.3181
58455DOD     C219185  12.869   9.448  18.726  0.0391  0.1154 -0.0781
58455DOD     C319186  12.990   9.330  18.258 -0.0580  0.0531  0.4450
58456DOD     C119187   5.765   5.932  11.584  0.2801 -0.3123  0.0037
58456DOD     C219188   6.257   5.888  11.684 -0.0475 -0.2278  0.0728
58456DOD     C319189   6.752   5.930  11.737 -0.4902 -0.1387  0.2005
58457DOD     C119190  26.812  17.879  24.724  0.2646 -0.0959 -0.3135
58457DOD     C219191  26.372  17.860  24.950 -0.2111 -0.0035  0.1891
58457DOD     C319192  25.889  17.883  24.988  0.0526  0.1521 -0.3524
58458DOD     C119193  24.881  17.151   9.838  0.1367 -0.0974  0.0484
58458DOD     C219194  24.500  17.054  10.090  0.1023  0.3276  0.0871
58458DOD     C319195  24.218  16.815  10.346 -0.2715 -0.0935 -0.1866
58459DOD     C119196   2.484  13.899  12.548 -0.0723  0.0574  0.0128
58459DOD     C219197   2.854  13.895  12.917 -0.0639 -0.1652 -0.2680
58459DOD     C319198   3.171  13.799  13.196 -0.0866  0.1111 -0.4081
58460DOD     C119199  19.772   0.745  12.098  0.2371  0.0391  0.3006
58460DOD     C219200  19.324   0.851  12.138 -0.0046  0.1588  0.1898
58460DOD     C319201  18.978   0.548  12.256 -0.1532 -0.0674  0.2688
58461DOD     C119202  29.101  16.187   3.337  0.0123 -0.1792 -0.2489
58461DOD     C219203  29.284  16.224   2.929  0.1361  0.1538 -0.0805
58461DOD     C319204  29.485  16.536   2.623 -0.1672  0.0159  0.1365
58462DOD     C119205  12.995   0.629  15.812 -0.1636  0.1900 -0.2208
58462DOD     C219206  13.295   0.597  16.176  0.1253  0.3524  0.1340
58462DOD     C319207  13.647   0.402  16.281  0.0979 -0.0861  0.4035
58463DOD     C119208  26.316  25.607  26.880  0.1148 -0.0414 -0.2338
58463DOD     C219209  26.776  25.720  26.863 -0.1135 -0.2673 -0.1704
58463DOD     C319210  27.201  25.987  26.880 -0.0658  0.1149 -0.1317
58464DOD     C119211   2.730  14.940  16.178  0.2382  0.1742  0.0221
58464DOD     C219212   2.816  14.740  16.585 -0.1011 -0.1485  0.4828
58464DOD     C319213   2.824  14.891  16.984 -0.0167 -0.3852 -0.2655
58465DOD     C119214  16.020   3.165  18.578 -0.1034  0.0237  0.1717
58465DOD     C219215  15.663   3.508  18.652  0.2003  0.2439  0.6372
58465DOD     C319216  15.299   3.469  18.877  0.2648 -0.0237 -0.0447
58466DOD     C119217  21.199  13.617   1.081  0.0817 -0.1363 -0.3243
58466DOD     C219218  20.807  13.721   1.349  0.5128 -0.0378 -0.3103
58466DOD     C319219  20.410  13.874   1.566 -0.2528  0.1264  0.1191
58467DOD     C119220  25.566  19.674  28.757  0.1405 -0.4504 -0.2224
58467DOD     C219221  25.369  19.741  28.364  0.0143 -0.3556 -0.0069
58467DOD     C319222  25.066  19.735  27.996  0.0079  0.2174 -0.2604
58468DOD     C119223  16.810  11.414   0.186  0.1616 -0.1343  0.0639
58468DOD     C219224  16.926  11.638  30.143  0.0677 -0.0131  0.0770
58468DOD     C319225  17.077  11.983  29.918  0.2285  0.0967 -0.1815
58469DOD     C119226  19.389  19.846  11.655  0.1549 -0.1185  0.1870
58469DOD     C219227  19.476  19.870  12.104  0.2891 -0.0289 -0.2003
58469DOD     C319228  19.689  19.935  12.482  0.0615 -0.0078  0.1407
58470DOD     C119229  16.538  13.221  23.845  0.0026 -0.0323 -0.1007
58470DOD     C219230  16.859  13.476  23.645 -0.0611 -0.2231  0.1108
58470DOD     C319231  17.346  13.478  23.603  0.1107 -0.4490  0.0597
58471DOD     C119232  24.468   5.107  23.327 -0.4089  0.1884 -0.0371
58471DOD     C219233  24.226   5.509  23.493  0.0546  0.0165  0.0851
58471DOD     C319234  24.054   5.810  23.267 -0.1781  0.1036 -0.1030
58472DOD     C119235  19.001  16.221  17.252  0.3769  0.2250  0.3262
58472DOD     C219236  19.369  16.186  17.494 -0.2059  0.1345 -0.3087
58472DOD     C319237  19.857  16.313  17.545 -0.0068 -0.2797 -0.0782
58473DOD     C119238  16.224  18.880   8.931  0.0624  0.0898  0.1997
58473DOD     C219239  15.903  19.051   9.277 -0.0290 -0.1338 -0.0411
58473DOD     C319240  15.676  19.142   9.668  0.0196  0.1309 -0.2692
58474DOD     C119241  23.562   7.732   5.314  0.1049  0.1478 -0.0775
58474DOD     C219242  23.402   7.943   5.631  0.0853  0.0733  0.0011
58474DOD     C319243  23.215   8.340   5.687 -0.3686  0.0314 -0.0107
58475DOD     C119244  26.552  26.536  20.178 -0.2715 -0.1090  0.0212
58475DOD     C219245  26.389  26.179  19.885  0.0740  0.0965 -0.3187
58475DOD     C319246  26.035  25.878  19.738 -0.0485 -0.0583 -0.0517
58476DOD     C119247  23.333  12.172  13.447  0.1290  0.0239 -0.1396
58476DOD     C219248  23.227  12.156  12.984  0.2113 -0.2012 -0.2290
58476DOD     C319249  23.053  12.406  12.588  0.0374  0.2183  0.2392
58477DOD     C119250   1.487   9.159  20.450  0.4664  0.1466  0.1400
58477DOD     C219251   1.123   8.849  20.412  0.2232 -0.2612 -0.0550
58477DOD     C319252   0.650   8.887  20.429  0.1632 -0.2920 -0.0083
58478DOD     C119253  28.350  27.462  19.238 -0.1112 -0.1547  0.0199
58478DOD     C219254  28.164  27.749  18.925 -0.2581 -0.3150 -0.0505
58478DOD     C319255  27.807  27.770  18.623 -0.0434 -0.2117  0.1407
58479DOD     C119256  23.355   9.954  22.793  0.1679  0.1749  0.1248
58479DOD     C219257  23.375   9.507  22.828  0.0428 -0.0761  0.1195
58479DOD     C319258  23.621   9.215  23.109  0.0886  0.0958  0.3294
58480DOD     C119259   5.743  14.240  25.094 -0.2136  0.1672 -0.1163
58480DOD     C219260   6.048  14.079  25.365  0.0742  0.1867  0.1874
58480DOD     C319261   6.365  13.962  25.649  0.1279  0.0203  0.3437
58481DOD     C119262   4.954  29.032   0.858  0.1063  0.5383 -0.3390
58481DOD     C219263   5.158  28.631   1.106 -0.0188  0.0479  0.0501
58481DOD     C319264   5.426  28.489   1.515  0.5467 -0.0807  0.0043
58482DOD     C119265   3.003   7.950  20.265  0.1402 -0.1303  0.0534
58482DOD     C219266   3.337   8.153  20.015 -0.1572 -0.0323  0.2548
58482DOD     C319267   3.648   8.204  19.673  0.0248 -0.2001  0.2742
58483DOD     C119268  21.606   0.781   6.279  0.0378  0.0313 -0.0156
58483DOD     C219269  21.826   0.706   6.752  0.2986 -0.1248  0.0244
58483DOD     C319270  22.201   0.477   6.939  0.2524 -0.0966 -0.5320
58484DOD     C119271   2.687  29.831   9.963 -0.1493 -0.1492 -0.1217
58484DOD     C219272   3.048  29.597   9.860 -0.1867 -0.0649 -0.1119
58484DOD     C319273   3.201  29.168   9.674 -0.1096  0.0797  0.0498
58485DOD     C119274  10.143   0.959   5.627 -0.0232  0.0366  0.1405
58485DOD     C219275  10.487   1.257   5.451  0.2680  0.0814 -0.1784
58485DOD     C319276  10.667   1.668   5.337  0.3721  0.0586 -0.0992
58486DOD     C119277  30.187  24.994  28.041  0.1830  0.1189 -0.0744
58486DOD     C219278   0.058  25.144  27.573 -0.3614 -0.0968 -0.1195
58486DOD     C319279   0.290  25.279  27.223 -0.1023 -0.0797  0.1610
58487DOD     C119280  30.011   6.190  19.396 -0.2417  0.1776  0.0416
58487DOD     C219281  30.154   6.653  19.466  0.1918 -0.0801  0.2207
58487DOD     C319282   0.121   7.013  19.325 -0.2035 -0.0710  0.0240
58488DOD     C119283  29.195  19.351  11.945 -0.3149  0.0712  0.2765
58488DOD     C219284  29.005  19.310  11.503  0.2529  0.4583 -0.0870
58488DOD     C319285  28.514  19.264  11.474  0.2614 -0.0886 -0.0884
58489DOD     C119286  22.341  27.960  12.065  0.1824 -0.0448  0.1037
58489DOD     C219287  22.542  28.199  12.446  0.1322  0.1657 -0.1161
58489DOD     C319288  22.630  28.126  12.939  0.1228 -0.1201 -0.0713
58490DOD     C119289  12.320  24.501   6.979 -0.0527 -0.2222  0.3972
58490DOD     C219290  12.225  24.057   6.915 -0.0304 -0.1955  0.1616
58490DOD     C319291  12.010  23.684   7.017  0.0700 -0.0774  0.0069
58491DOD     C119292  14.161  29.606  18.637  0.0306  0.1843 -0.3199
58491DOD     C219293  14.049  30.022  18.640 -0.1700 -0.0306 -0.1102
58491DOD     C319294  13.833   0.153  18.726  0.3405 -0.0385 -0.3484
58492DOD     C119295  27.273   7.703  25.431 -0.4873  0.1776 -0.0344
58492DOD     C219296  27.199   7.345  25.184  0.3892  0.1875 -0.2024
58492DOD     C319297  26.914   6.916  25.204 -0.0899 -0.1182 -0.1093
58493DOD     C119298   3.112  28.715   8.121 -0.0643 -0.2085  0.3117
58493DOD     C219299   3.267  28.889   8.506  0.1777  0.0160 -0.1200
58493DOD     C319300   3.604  29.145   8.743 -0.2013  0.4082 -0.0709
58494DOD     C119301  20.957  19.552  27.871 -0.0892  0.1502  0.0358
58494DOD     C219302  21.031  20.030  27.901  0.0084  0.3462  0.2151
58494DOD     C319303  21.178  20.467  27.832 -0.1167 -0.1673  0.1653
58495DOD     C119304   0.039   1.890  24.246 -0.0002 -0.1270  0.1979
58495DOD     C219305  30.089   2.242  24.383  0.1209 -0.0561  0.0108
58495DOD     C319306  29.687   2.490  24.323  0.0269  0.2071  0.0026
58496DOD     C119307  16.033  11.151   3.024  0.0395  0.0558 -0.0876
58496DOD     C219308  15.557  11.159   3.008 -0.2496  0.0257 -0.1986
58496DOD     C319309  15.390  11.569   3.043  0.0098 -0.0596 -0.1821
58497DOD     C119310   4.612   4.246   8.793  0.4843 -0.0268  0.1983
58497DOD     C219311   4.803   3.860   8.608 -0.1830 -0.1786  0.3146
58497DOD     C319312   4.915   3.479   8.355  0.0559  0.2489 -0.4359
58498DOD     C119313  23.985   8.554   9.178  0.1383  0.1600  0.0916
58498DOD     C219314  24.439   8.413   9.174 -0.0227 -0.1627  0.0041
58498DOD     C319315  24.604   8.016   9.125 -0.0242 -0.0205 -0.0399
58499DOD     C119316  20.147  12.975  14.891  0.1501 -0.1110  0.1278
58499DOD     C219317  20.449  13.303  14.835  0.4217 -0.0316  0.1272
58499DOD     C319318  20.735  13.541  14.529  0.2292 -0.1240 -0.2337
58500DOD     C119319   1.222  25.558  30.142 -0.1502  0.0765 -0.0638
58500DOD     C219320   1.215  26.094  30.122  0.1947  0.0262  0.1082
58500DOD     C319321   1.080  26.318   0.197  0.0204 -0.0039  0.2396
58501DOD     C119322  17.603   1.485  19.774 -0.1145 -0.0107  0.3142
58501DOD     C219323  17.800   1.936  19.669  0.0432  0.1071  0.1330
58501DOD     C319324  17.931   2.378  19.735  0.0746  0.0360 -0.2894
58502DOD     C119325   3.316  18.835  10.251 -0.1914  0.0753 -0.2768
58502DOD     C219326   3.355  19.023   9.817 -0.0051 -0.3120 -0.2132
58502DOD     C319327   3.415  19.188   9.274  0.0497  0.0266 -0.0007
58503DOD     C119328   0.024   9.529  16.394 -0.2613 -0.1490 -0.2497
58503DOD     C219329   0.363   9.372  16.707  0.1345 -0.1268  0.2206
58503DOD     C319330   0.487   9.320  17.171  0.1346 -0.2183 -0.0506
58504DOD     C119331  27.732  18.112   3.225  0.0102  0.2278 -0.0040
58504DOD     C219332  27.547  18.187   3.638 -0.1365 -0.1505  0.3246
58504DOD     C319333  27.147  18.347   3.806  0.1476  0.2023  0.1479
58505DOD     C119334  24.343  30.232   6.467 -0.2824 -0.0240  0.0194
58505DOD     C219335  23.943   0.160   6.535  0.1462 -0.1520  0.1523
58505DOD     C319336  23.608   0.376   6.757 -0.3170 -0.1308  0.1121
58506DOD     C119337   9.712  15.121   0.298 -0.2569 -0.3790  0.1980
58506DOD     C219338   9.626  15.493  30.281  0.0256  0.1463 -0.0465
58506DOD     C319339   9.778  15.688  29.888  0.0335 -0.2779 -0.0783
58507DOD     C119340   9.769   5.754  18.236 -0.1442 -0.1298  0.0179
58507DOD     C219341   9.920   5.925  18.602 -0.3084 -0.1893  0.0246
58507DOD     C319342   9.868   5.695  19.063  0.1893  0.0389 -0.1653
58508DOD     C119343  14.392  23.922   2.300 -0.0370  0.0356 -0.2844
58508DOD     C219344  14.083  24.026   2.014 -0.2569  0.0053  0.0986
58508DOD     C319345  13.765  24.195   1.729 -0.0630  0.0127  0.3751
58509DOD     C119346  22.998  26.424   5.254  0.2047 -0.3387 -0.1214
58509DOD     C219347  23.316  26.100   5.316 -0.0322 -0.0580 -0.1285
58509DOD     C319348  23.466  25.759   5.668 -0.0369 -0.1717 -0.1468
58510DOD     C119349  10.284  30.046  29.239  0.5739 -0.1258  0.1001
58510DOD     C219350  10.465  29.582  29.132 -0.1223  0.0352 -0.0886
58510DOD     C319351  10.580  29.328  28.782 -0.0980 -0.0455 -0.2325
58511DOD     C119352   5.346   2.041  26.845 -0.5414 -0.1665 -0.0501
58511DOD     C219353   5.349   1.543  26.675  0.0192 -0.3527  0.0439
58511DOD     C319354   5.687   1.239  26.597 -0.1572 -0.0952  0.1543
58512DOD     C119355  14.598  20.485  13.647 -0.1319 -0.3285 -0.1591
58512DOD     C219356  14.147  20.551  13.793 -0.1556 -0.1664 -0.4356
58512DOD     C319357  13.943  20.641  14.235  0.3131  0.1959  0.0671
58513DOD     C119358  21.688   9.303  14.407 -0.2161 -0.0396 -0.1734
58513DOD     C219359  21.358   9.669  14.277 -0.0968  0.0291  0.2061
58513DOD     C319360  20.985   9.741  14.096  0.0421  0.3882 -0.1116
58514DOD     C119361  16.143   6.941  14.254  0.2349 -0.0228 -0.0779
58514DOD     C219362  16.537   6.675  14.280  0.0188  0.2492  0.0915
58514DOD     C319363  16.934   6.553  14.048  0.2303  0.0845 -0.2028
58515DOD     C119364  19.767   4.348  12.352  0.1868  0.0069 -0.2710
58515DOD     C219365  19.788   4.731  12.643 -0.1787 -0.2004  0.1298
58515DOD     C319366  19.533   5.087  12.774 -0.1806  0.1232 -0.0299
58516DOD     C119367  21.670  21.016  14.178 -0.0434  0.0030 -0.1492
58516DOD     C219368  21.888  21.217  13.830 -0.0394 -0.1012 -0.1007
58516DOD     C319369  22.104  21.516  13.524 -0.3139  0.0170 -0.0174
58517DOD     C119370   5.161  16.522   3.816 -0.0906 -0.0372  0.1477
58517DOD     C219371   5.369  16.246   4.090 -0.0008  0.0639  0.0116
58517DOD     C319372   5.475  15.990   4.452 -0.0231 -0.0884 -0.1848
58518DOD     C119373   7.844  12.697   1.759  0.1853  0.1035 -0.2835
58518DOD     C219374   8.222  12.425   1.879 -0.1419 -0.2731 -0.0055
58518DOD     C319375   8.721  12.329   1.983  0.2256  0.2080 -0.1269
58519DOD     C119376  14.111   3.554  14.337 -0.2018  0.0649 -0.2106
58519DOD     C219377  14.243   3.611  14.844  0.1848 -0.1244 -0.1048
58519DOD     C319378  14.309   3.861  15.228 -0.0437  0.1793  0.0778
58520DOD     C119379   0.423  22.644  17.088  0.1433 -0.1147 -0.0490
58520DOD     C219380   0.436  23.048  17.021  0.0405 -0.3000  0.0924
58520DOD     C319381   0.042  23.275  16.879  0.2190 -0.2510  0.0283
58521DOD     C119382   6.579  21.840  27.068  0.0756 -0.0619  0.0888
58521DOD     C219383   6.604  21.751  26.601  0.0809  0.1006 -0.2434
58521DOD     C319384   6.791  21.440  26.326 -0.1731  0.0513 -0.0427
58522DOD     C119385  25.337   2.581   0.627  0.0913 -0.3540 -0.0755
58522DOD     C219386  25.704   2.755   0.879  0.1907  0.0097  0.0313
58522DOD     C319387  25.922   3.118   0.990  0.0245 -0.1182 -0.0134
58523DOD     C119388   8.490   7.366  17.642 -0.1456 -0.0669  0.2648
58523DOD     C219389   8.317   6.914  17.506 -0.0868  0.1090 -0.1447
58523DOD     C319390   8.200   6.447  17.571 -0.0654 -0.0802  0.1374
58524DOD     C119391  15.071   4.552  23.966 -0.0592  0.0355  0.0634
58524DOD     C219392  14.812   4.662  23.564 -0.1459  0.2527 -0.1151
58524DOD     C319393  14.424   4.923  23.490  0.0707 -0.2742  0.0543
58525DOD     C119394  27.611  21.538   9.614 -0.0945 -0.2069 -0.0276
58525DOD     C219395  28.087  21.656   9.713 -0.0906  0.5218  0.0068
58525DOD     C319396  28.535  21.769   9.737  0.1279  0.0999  0.0438
58526DOD     C119397   2.818   9.398  24.473 -0.1296 -0.1520  0.3972
58526DOD     C219398   2.624   9.262  24.813  0.2641 -0.2101 -0.1683
58526DOD     C319399   2.489   9.124  25.245  0.0294 -0.1276 -0.3469
58527DOD     C119400   6.785  22.988   2.834  0.0043  0.1516  0.0945
58527DOD     C219401   6.636  23.244   2.480 -0.0550  0.3669  0.0457
58527DOD     C319402   6.472  23.382   2.091 -0.2025  0.0869  0.2899
58528DOD     C119403   8.070  29.549  28.505 -0.1507 -0.3102  0.1269
58528DOD     C219404   7.930  29.520  28.067  0.0362  0.2208 -0.1691
58528DOD     C319405   7.947  29.553  27.644 -0.3600 -0.2699  0.3656
58529DOD     C119406   1.117   3.426  23.010  0.0131 -0.1451  0.1160
58529DOD     C219407   0.796   3.374  23.350 -0.1016  0.1775 -0.0193
58529DOD     C319408   0.441   3.092  23.485  0.1477 -0.3473  0.0320
58530DOD     C119409  20.798  14.127  20.393 -0.2148 -0.3323 -0.1022
58530DOD     C219410  20.987  14.056  19.972  0.0340 -0.1449 -0.1365
58530DOD     C319411  21.213  14.238  19.592 -0.1220  0.1044 -0.5256
58531DOD     C119412  19.435  26.393   1.674 -0.1946  0.1360  0.2014
58531DOD     C219413  19.934  26.413   1.603  0.0235 -0.0427 -0.0583
58531DOD     C319414  20.277  26.622   1.668  0.2856 -0.1384 -0.3422
58532DOD     C119415  21.406  28.717  14.526 -0.1255  0.1416  0.0459
58532DOD     C219416  21.630  29.094  14.709  0.1687  0.0664 -0.0128
58532DOD     C319417  21.634  29.175  15.183 -0.1159 -0.1099 -0.3594
58533DOD     C119418  26.574  29.884  15.363  0.1516  0.1527  0.1041
58533DOD     C219419  26.683  30.070  15.768  0.1335 -0.0628  0.0731
58533DOD     C319420  26.716  30.187  16.255  0.2648 -0.4263 -0.1991
58534DOD     C119421   1.758  28.996   2.309  0.3983  0.0136 -0.2316
58534DOD     C219422   1.847  29.294   2.661 -0.0667  0.0447 -0.3089
58534DOD     C319423   1.830  29.587   2.980 -0.1586  0.0944  0.1333
58535DOD     C119424  17.327  19.200  14.348 -0.2094 -0.0163  0.0723
58535DOD     C219425  17.512  18.772  14.223  0.1126 -0.2180  0.0760
58535DOD     C319426  17.712  18.547  13.844 -0.1993  0.2332  0.1085
58536DOD     C119427   7.357  24.669   2.968 -0.2569 -0.0180 -0.1808
58536DOD     C219428   6.948  24.434   3.179 -0.3786  0.1189 -0.1786
58536DOD     C319429   6.605  24.407   3.522  0.2680 -0.0671 -0.1922
58537DOD     C119430   8.720   4.439  26.700 -0.2256 -0.0239 -0.0883
58537DOD     C219431   9.116   4.746  26.689  0.0745 -0.1673 -0.0859
58537DOD     C319432   9.443   5.036  26.537  0.4577  0.0804 -0.1373
58538DOD     C119433   8.844  24.332   5.532  0.0010  0.0981 -0.2622
58538DOD     C219434   9.191  24.516   5.898 -0.0283  0.0930  0.1184
58538DOD     C319435   9.377  24.979   5.987 -0.0857  0.0035  0.0692
58539DOD     C119436  13.430   2.617  11.373 -0.1822 -0.0199 -0.1540
58539DOD     C219437  13.637   2.945  11.470  0.0484 -0.1259  0.2790
58539DOD     C319438  13.834   3.197  11.773 -0.2196 -0.0535  0.1100
58540DOD     C119439  29.169  30.126  28.656 -0.0159  0.1709  0.4244
58540DOD     C219440  28.922  29.985  28.295 -0.2276  0.2265 -0.1581
58540DOD     C319441  28.959  29.680  27.969  0.1237 -0.0751  0.0282
58541DOD     C119442   9.078  27.729  23.709  0.0767  0.1093 -0.0071
58541DOD     C219443   9.532  27.731  23.646 -0.1450  0.0727 -0.0298
58541DOD     C319444   9.970  27.528  23.540  0.6217 -0.0485  0.0770
58542DOD     C119445   0.631  27.061  23.828 -0.0686  0.2261 -0.2612
58542DOD     C219446   0.802  26.605  23.796 -0.1210 -0.1229  0.0486
58542DOD     C319447   0.974  26.290  24.125 -0.1502  0.1521  0.0522
58543DOD     C119448  23.840  19.395   7.372 -0.1619 -0.2822 -0.1187
58543DOD     C219449  24.089  19.058   7.204  0.0355 -0.2460 -0.2532
58543DOD     C319450  24.312  18.659   7.217 -0.0946  0.2285  0.0105
58544DOD     C119451  17.234  13.583  15.318  0.1902  0.0259  0.0642
58544DOD     C219452  17.073  13.838  15.658  0.2324 -0.0468  0.0009
58544DOD     C319453  17.005  14.016  16.127 -0.0222 -0.1661 -0.0457
58545DOD     C119454  22.889   5.166   4.503 -0.0105  0.2745  0.0722
58545DOD     C219455  22.902   5.339   4.052  0.1703  0.2202 -0.1951
58545DOD     C319456  23.082   5.365   3.622 -0.1040 -0.2434 -0.2894
58546DOD     C119457  29.637  29.401  16.767 -0.3266  0.0881  0.2756
58546DOD     C219458  29.649  28.979  16.786  0.0643  0.4250  0.1688
58546DOD     C319459  29.914  28.659  16.495  0.1492  0.1891  0.0004
58547DOD     C119460  16.030   2.146   9.736 -0.3238  0.5048 -0.0565
58547DOD     C219461  15.984   1.719   9.882 -0.2811 -0.0369 -0.0991
58547DOD     C319462  15.930   1.356   9.554  0.3741  0.1422 -0.0595
58548DOD     C119463   2.898   5.851   7.278  0.0310  0.0048  0.1893
58548DOD     C219464   2.493   5.851   7.496 -0.0920  0.1085 -0.1680
58548DOD     C319465   2.144   6.099   7.647  0.1096 -0.0091 -0.0664
58549DOD     C119466  25.264  24.959   2.608 -0.5394  0.1044 -0.1318
58549DOD     C219467  25.141  25.167   2.242  0.2385  0.1138  0.4160
58549DOD     C319468  25.138  25.187   1.777 -0.0467  0.2668 -0.4017
58550DOD     C119469  26.806  21.986   4.680 -0.1811  0.1551 -0.1940
58550DOD     C219470  26.785  22.474   4.802  0.0369 -0.1249 -0.0022
58550DOD     C319471  26.543  22.774   4.484  0.2703  0.0128  0.3516
58551DOD     C119472  12.511  10.891  29.516  0.0024 -0.2143 -0.1073
58551DOD     C219473  12.366  10.826  29.034  0.1169 -0.0706  0.0441
58551DOD     C319474  12.422  10.467  28.813  0.0368 -0.1285  0.0574
58552DOD     C119475  13.259   3.366  27.400 -0.0902 -0.1153 -0.0633
58552DOD     C219476  13.042   3.625  27.103 -0.2846 -0.1104  0.2756
58552DOD     C319477  13.096   3.872  26.749  0.1504 -0.1228 -0.0198
58553DOD     C119478   0.530  29.876   1.853  0.1007 -0.0265 -0.3091
58553DOD     C219479   0.465  30.160   1.465  0.0173 -0.0964 -0.0819
58553DOD     C319480   0.514   0.152   1.083 -0.0470 -0.1878 -0.3752
58554DOD     C119481  11.596  15.382  16.954  0.1155  0.1926 -0.0512
58554DOD     C219482  11.188  15.644  17.087  0.3754  0.3834 -0.2377
58554DOD     C319483  10.836  15.940  17.281 -0.0662  0.0925  0.2918
58555DOD     C119484  18.925  26.608   9.800 -0.2017  0.0104 -0.1551
58555DOD     C219485  18.944  26.174   9.708 -0.1736  0.3694 -0.0856
58555DOD     C319486  19.049  25.701   9.797  0.3832  0.1312 -0.1425
58556DOD     C119487   3.143   5.298  11.269  0.1159 -0.0554 -0.2445
58556DOD     C219488   3.467   4.946  11.226 -0.2071 -0.2139  0.3905
58556DOD     C319489   3.492   4.490  11.314 -0.0942  0.1283  0.2712
58557DOD     C119490   8.714  15.109  13.718 -0.0618  0.1243 -0.1712
58557DOD     C219491   8.473  15.521  13.775  0.1959 -0.0082  0.4145
58557DOD     C319492   8.146  15.755  13.982 -0.2785  0.0515 -0.3373
58558DOD     C119493  15.684  28.709  16.147  0.0101 -0.0759 -0.0186
58558DOD     C219494  15.238  28.567  16.240 -0.2825 -0.0270  0.2377
58558DOD     C319495  14.932  28.266  16.416 -0.1242 -0.3380  0.1839
58559DOD     C119496  13.203   8.293   5.540  0.1844  0.0199 -0.1986
58559DOD     C219497  12.749   8.270   5.485  0.0787 -0.1349 -0.1091
58559DOD     C319498  12.365   8.582   5.442 -0.1645  0.1193  0.2186
58560DOD     C119499  20.703  11.634  16.980  0.3103  0.0994  0.1263
58560DOD     C219500  20.543  12.025  17.225 -0.2001 -0.2777 -0.0068
58560DOD     C319501  20.278  12.322  17.487 -0.0629  0.1870  0.2748
58561DOD     C119502  29.122  18.522  15.525  0.0334 -0.0423 -0.2401
58561DOD     C219503  28.668  18.586  15.399  0.2084  0.0745  0.2122
58561DOD     C319504  28.256  18.658  15.257  0.1346 -0.0150 -0.0060
58562DOD     C119505  13.909   0.787  12.075 -0.1283  0.2395  0.3461
58562DOD     C219506  13.727   1.073  12.318  0.2290  0.1664 -0.1196
58562DOD     C319507  13.283   1.297  12.335  0.0087 -0.1638  0.1598
58563DOD     C119508  18.321  14.627  19.231  0.2175 -0.1455  0.2046
58563DOD     C219509  18.601  14.950  19.472 -0.0053  0.0029 -0.1136
58563DOD     C319510  19.026  14.941  19.538  0.1038 -0.1971  0.0572
58564DOD     C119511  27.726   3.650   7.887  0.4142 -0.2784 -0.0061
58564DOD     C219512  28.126   3.869   7.865  0.0913  0.2296 -0.2937
58564DOD     C319513  28.495   4.115   7.663 -0.2290  0.1047 -0.1069
58565DOD     C119514  15.700  22.831   3.473 -0.2256  0.1211  0.0707
58565DOD     C219515  15.492  23.198   3.483 -0.0717  0.1806  0.0232
58565DOD     C319516  15.183  23.498   3.553 -0.2155 -0.0836 -0.2271
58566DOD     C119517   9.315  10.141  24.486 -0.0070 -0.0429 -0.1269
58566DOD     C219518   9.568  10.570  24.429  0.3061 -0.1443 -0.4168
58566DOD     C319519   9.762  10.933  24.212  0.0001  0.1665  0.1346
58567DOD     C119520  25.215  25.406  28.748 -0.0869  0.3531  0.3706
58567DOD     C219521  25.426  25.035  28.686 -0.2901 -0.1095 -0.2347
58567DOD     C319522  25.698  24.669  28.584  0.1767  0.2197  0.2143
58568DOD     C119523   5.802  26.779   0.563 -0.1446  0.1632 -0.0449
58568DOD     C219524   6.084  26.579   0.272 -0.1390  0.0401  0.1842
58568DOD     C319525   6.334  26.274  -0.015  0.3262 -0.1136 -0.2732
58569DOD     C119526   0.009   0.745  15.625  0.1238  0.0500 -0.2635
58569DOD     C219527  30.207   0.912  16.060  0.1135  0.2828  0.1859
58569DOD     C319528  29.996   0.590  16.332 -0.2723 -0.1090  0.1278
58570DOD     C119529  15.855  10.556  19.064 -0.0219  0.0652  0.1165
58570DOD     C219530  16.218  10.522  18.821 -0.0130 -0.0711 -0.3547
58570DOD     C319531  16.557  10.801  18.684 -0.0380  0.0394  0.1241
58571DOD     C119532  26.470   3.534  10.044  0.1269 -0.1363 -0.0601
58571DOD     C219533  26.463   3.723   9.624 -0.3437  0.3117  0.2372
58571DOD     C319534  26.738   3.992   9.381  0.0753 -0.0437  0.2741
58572DOD     C119535  30.228   0.381  23.605  0.2594 -0.1512  0.0021
58572DOD     C219536  -0.041   0.505  23.166 -0.2364  0.1071 -0.0491
58572DOD     C319537   0.049   0.195  22.889 -0.0836  0.1047  0.0985
58573DOD     C119538  16.302   6.669   3.176  0.0222  0.1234 -0.0224
58573DOD     C219539  15.862   6.747   3.223 -0.2592 -0.1886  0.2341
58573DOD     C319540  15.512   7.077   3.189  0.2116 -0.2895  0.0462
58574DOD     C119541   0.637   2.240  20.808 -0.0480  0.0535 -0.0324
58574DOD     C219542   0.502   1.856  20.590  0.0641  0.0569 -0.2592
58574DOD     C319543   0.362   1.627  20.215  0.1818 -0.1958 -0.1023
58575DOD     C119544   8.328  19.311  17.931  0.0943  0.0993  0.2665
58575DOD     C219545   8.146  19.711  17.695  0.1772  0.0712  0.0764
58575DOD     C319546   8.225  19.850  17.246 -0.0666 -0.0770 -0.0756
58576DOD     C119547  27.225   8.497  29.400 -0.1117  0.0092 -0.0923
58576DOD     C219548  27.393   8.922  29.552  0.2288  0.1760 -0.2332
58576DOD     C319549  27.425   9.338  29.711  0.0709  0.0688  0.0674
58577DOD     C119550  10.512  26.485   2.773 -0.1408 -0.1486 -0.0276
58577DOD     C219551  10.195  26.161   2.624 -0.2866 -0.1626 -0.0965
58577DOD     C319552  10.267  25.823   2.254  0.1985 -0.2675  0.1246
58578DOD     C119553   6.550  10.389  10.325 -0.0581  0.1444 -0.2184
58578DOD     C219554   6.832  10.218  10.032  0.1541 -0.0633 -0.0490
58578DOD     C319555   7.276  10.250  10.121  0.3972  0.0619  0.1694
58579DOD     C119556  27.365   1.691   0.931 -0.1059 -0.2528 -0.3161
58579DOD     C219557  27.475   1.810   0.470 -0.3487  0.2459  0.3623
58579DOD     C319558  27.606   1.577   0.086  0.3358  0.0535 -0.0729
58580DOD     C119559  25.016  19.252  15.843 -0.4507  0.0269 -0.2848
58580DOD     C219560  24.763  19.310  15.492  0.0728  0.2123  0.1005
58580DOD     C319561  24.735  19.232  15.065  0.0206  0.0784 -0.1242
58581DOD     C119562  24.580  15.659  28.323 -0.2676  0.0120 -0.1635
58581DOD     C219563  24.485  15.424  28.688 -0.3205  0.0494  0.1578
58581DOD     C319564  24.462  15.366  29.149  0.0595 -0.0500 -0.0039
58582DOD     C119565  19.548  27.252  27.280  0.0173  0.1211  0.0979
58582DOD     C219566  19.628  27.339  26.819  0.0858  0.0920 -0.0188
58582DOD     C319567  19.445  27.566  26.493 -0.1340 -0.0806 -0.0689
58583DOD     C119568   1.493  11.460  22.385  0.2001  0.1660  0.2819
58583DOD     C219569   1.555  11.612  22.814  0.1124 -0.0385 -0.1885
58583DOD     C319570   1.383  11.611  23.208  0.0218 -0.2400  0.2922
58584DOD     C119571  18.257  13.933  12.960 -0.0635  0.2443  0.0285
58584DOD     C219572  18.145  14.312  13.185  0.0976 -0.3989  0.1289
58584DOD     C319573  18.241  14.549  13.534  0.0792  0.0110  0.0844
58585DOD     C119574  27.188  26.018  27.526 -0.3401  0.1138  0.0752
58585DOD     C219575  26.855  26.311  27.692 -0.1923 -0.1426  0.1467
58585DOD     C319576  26.600  26.662  27.870 -0.2724 -0.2846 -0.2424
58586DOD     C119577  10.957   0.765  25.747  0.3549  0.1405 -0.2392
58586DOD     C219578  11.302   0.464  25.947 -0.0494 -0.1262 -0.0602
58586DOD     C319579  11.757   0.634  25.934  0.0094  0.0302 -0.2914
58587DOD     C119580   5.130  23.433   8.120  0.0929  0.0603  0.0807
58587DOD     C219581   4.654  23.252   8.210 -0.1328 -0.0012  0.0410
58587DOD     C319582   4.262  23.076   8.216 -0.0399  0.1051  0.3799
58588DOD     C119583  25.247  22.670  30.167  0.0123  0.1861  0.1323
58588DOD     C219584  25.580  22.520   0.140 -0.0820  0.0071  0.0928
58588DOD     C319585  25.954  22.719   0.358 -0.2349 -0.1995 -0.0693
58589DOD     C119586  28.572  16.301  30.124  0.0151  0.4098 -0.2610
58589DOD     C219587  28.165  16.166  30.337 -0.1218 -0.0895  0.1840
58589DOD     C319588  27.872  15.849  30.168  0.1222  0.0856 -0.4510
58590DOD     C119589  15.968  14.726  15.515  0.1366 -0.1041 -0.1148
58590DOD     C219590  15.608  14.626  15.253 -0.0698  0.3148 -0.1447
58590DOD     C319591  15.428  14.913  14.876 -0.0428  0.0843  0.2052
58591DOD     C119592  16.557  14.120  20.701 -0.0985 -0.1594 -0.0661
58591DOD     C219593  16.819  14.502  20.947 -0.0981 -0.1291  0.1655
58591DOD     C319594  17.145  14.837  20.915  0.1919  0.0995 -0.1472
58592DOD     C119595  25.455  10.712  13.801 -0.4421 -0.3291  0.2270
58592DOD     C219596  25.803  10.935  13.939  0.1202  0.1105 -0.2236
58592DOD     C319597  26.218  11.014  14.164 -0.2080  0.4451  0.0865
58593DOD     C119598  11.748  13.874   1.769 -0.0247 -0.0229 -0.1648
58593DOD     C219599  11.357  13.646   1.651  0.1372 -0.0833  0.3937
58593DOD     C319600  11.380  13.340   1.262 -0.4023 -0.0097 -0.0711
58594DOD     C119601  13.119  15.946   6.467 -0.0767  0.0896 -0.3351
58594DOD     C219602  13.019  15.520   6.655  0.1492 -0.0755  0.1404
58594DOD     C319603  13.097  15.293   7.054 -0.2686 -0.1533  0.1442
58595DOD     C119604   6.938   6.442   0.718 -0.0571 -0.1096  0.2539
58595DOD     C219605   6.724   6.208   0.351 -0.0636  0.1483  0.3872
58595DOD     C319606   6.590   6.291  30.234  0.3687 -0.1467 -0.2596
58596DOD     C119607  21.792   2.704   9.426 -0.1119  0.1412 -0.0868
58596DOD     C219608  22.111   2.450   9.630  0.2167 -0.1123 -0.0242
58596DOD     C319609  22.475   2.236   9.493 -0.1487 -0.0235 -0.0825
58597DOD     C119610   0.848   8.770   1.466 -0.1465  0.0134  0.0091
58597DOD     C219611   0.857   8.650   1.067  0.2173 -0.2430  0.0649
58597DOD     C319612   1.086   8.528   0.670 -0.0883  0.1848 -0.0521
58598DOD     C119613  13.277   0.833  25.498  0.0875  0.1805  0.1621
58598DOD     C219614  12.928   0.692  25.766 -0.0306 -0.0295  0.0189
58598DOD     C319615  12.573   0.560  26.032  0.2250 -0.1276  0.3169
58599DOD     C119616  25.248  23.880  28.333  0.1687 -0.4788  0.1354
58599DOD     C219617  25.264  24.332  28.455  0.0779  0.0811 -0.0365
58599DOD     C319618  25.108  24.729  28.359 -0.0563 -0.1005 -0.0528
58600DOD     C119619  18.333  19.766  17.244  0.0790  0.0913 -0.2200
58600DOD     C219620  18.760  19.877  17.013  0.0492 -0.1150  0.1026
58600DOD     C319621  19.235  19.941  17.124 -0.2612  0.0219  0.0417
58601DOD     C119622  28.346   0.541  21.519  0.1451 -0.3060  0.2750
58601DOD     C219623  28.638   0.353  21.723  0.0140  0.3235 -0.1329
58601DOD     C319624  29.034   0.370  21.864 -0.0663  0.2575  0.2808
58602DOD     C119625  26.180  26.314   9.658 -0.2968  0.0146 -0.0685
58602DOD     C219626  26.262  26.758   9.680  0.1742 -0.3976 -0.2570
58602DOD     C319627  26.365  27.227   9.729 -0.1158  0.1879 -0.0562
58603DOD     C119628   1.817  11.201   2.093 -0.2056  0.3208  0.0751
58603DOD     C219629   1.431  11.401   2.286 -0.1188 -0.0167  0.0923
58603DOD     C319630   1.204  11.270   2.698 -0.0169  0.0186  0.2763
58604DOD     C119631  24.583  10.590  30.294  0.1583  0.0574  0.0390
58604DOD     C219632  24.469  10.753  29.829 -0.0264 -0.0191 -0.0279
58604DOD     C319633  24.506  10.703  29.395  0.1028  0.0323  0.1432
58605DOD     C119634   8.818  10.229  12.181 -0.1709 -0.0534 -0.2081
58605DOD     C219635   9.063   9.792  12.244  0.0318  0.0555 -0.2571
58605DOD     C319636   8.917   9.359  12.356 -0.3275 -0.1258 -0.0391
58606DOD     C119637  23.444  25.925  29.610  0.1437 -0.3260 -0.0360
58606DOD     C219638  23.796  25.619  29.627 -0.2754 -0.0339 -0.0547
58606DOD     C319639  24.094  25.710  29.327  0.0329 -0.0042 -0.2586
58607DOD     C119640   2.865  29.831  26.531  0.0734 -0.0675 -0.5843
58607DOD     C219641   2.731  29.886  26.977  0.1584 -0.3022 -0.3182
58607DOD     C319642   2.772  30.270  27.224 -0.2897 -0.0271  0.1060
58608DOD     C119643  26.554   4.510  25.634  0.3438 -0.0372  0.0740
58608DOD     C219644  26.227   4.206  25.628 -0.0509  0.2094  0.2180
58608DOD     C319645  26.105   3.800  25.496 -0.0430  0.0267  0.2816
58609DOD     C119646  18.588  20.746   5.369  0.2823  0.1743 -0.2547
58609DOD     C219647  18.504  20.633   4.901 -0.3386  0.2323  0.5919
58609DOD     C319648  18.725  20.403   4.524  0.1815 -0.0172 -0.2258
58610DOD     C119649  25.718  15.169  22.136 -0.2370 -0.0163  0.0425
58610DOD     C219650  25.664  15.612  22.290  0.0104  0.2041 -0.1272
58610DOD     C319651  25.712  16.035  22.188  0.2322  0.0930  0.0821
58611DOD     C119652  23.594  12.255  13.840  0.1003  0.1909 -0.0861
58611DOD     C219653  23.284  12.512  13.842  0.0897 -0.2617 -0.1851
58611DOD     C319654  22.871  12.742  13.908  0.0146  0.1381 -0.2609
58612DOD     C119655  11.916  29.790  27.464 -0.2467  0.1323  0.0076
58612DOD     C219656  11.704  29.621  27.094  0.1459  0.2068  0.2561
58612DOD     C319657  11.165  29.570  27.043 -0.1415 -0.1600 -0.2374
58613DOD     C119658  24.804   8.403   7.365  0.0166 -0.2119 -0.0298
58613DOD     C219659  24.813   8.890   7.292  0.1159 -0.2023  0.1380
58613DOD     C319660  25.141   9.271   7.262 -0.1750  0.1852 -0.0789
58614DOD     C119661  10.147  14.367  11.208 -0.1914 -0.1531  0.2019
58614DOD     C219662  10.555  14.660  11.303  0.1815 -0.2457  0.0714
58614DOD     C319663  10.815  14.934  11.050 -0.1882 -0.2586  0.1366
58615DOD     C119664   9.260  22.947  18.123  0.0215 -0.3207  0.2109
58615DOD     C219665   9.497  22.893  17.668 -0.2708 -0.0728 -0.1597
58615DOD     C319666   9.752  22.479  17.577 -0.4225  0.1967 -0.1683
58616DOD     C119667  25.429  20.315  15.504  0.0364  0.1678 -0.0254
58616DOD     C219668  25.624  20.100  15.882  0.1714  0.0980 -0.2544
58616DOD     C319669  25.825  20.203  16.277 -0.1597  0.1392  0.2791
58617DOD     C119670  10.017  25.493  13.091  0.3751 -0.1433  0.1773
58617DOD     C219671  10.345  25.507  12.700 -0.0710 -0.0452  0.3585
58617DOD     C319672  10.451  25.734  12.330  0.0383  0.4114  0.0072
58618DOD     C119673  25.422   8.156  23.525  0.2123 -0.1170  0.0397
58618DOD     C219674  25.073   8.222  23.207 -0.0229 -0.0033  0.5528
58618DOD     C319675  24.856   8.602  22.981  0.1529  0.0371  0.1895
58619DOD     C119676  13.184  15.157  21.155 -0.2319 -0.1796 -0.0475
58619DOD     C219677  13.547  15.348  21.226 -0.2637 -0.0563 -0.1194
58619DOD     C319678  13.836  15.330  21.577 -0.1117  0.0540  0.0587
58620DOD     C119679   5.928  29.420   2.429  0.1116  0.2344 -0.1720
58620DOD     C219680   6.048  29.069   2.688  0.1611  0.1161 -0.1431
58620DOD     C319681   5.721  28.729   2.633  0.4692  0.1347 -0.3239
58621DOD     C119682  28.302   6.503  10.498  0.2054 -0.1181  0.0456
58621DOD     C219683  28.035   6.100  10.617  0.1106  0.3176  0.2159
58621DOD     C319684  28.077   5.724  10.871 -0.3180  0.1252  0.2341
58622DOD     C119685  13.101  27.558  21.391 -0.0539 -0.1749 -0.1038
58622DOD     C219686  13.253  27.600  21.856 -0.0691  0.1765  0.3581
58622DOD     C319687  13.295  27.739  22.314 -0.0932  0.1197 -0.0733
58623DOD     C119688  12.360  18.389  10.922  0.2644  0.1051  0.2559
58623DOD     C219689  12.079  18.004  10.987 -0.0847  0.1327  0.0171
58623DOD     C319690  11.711  17.749  10.877 -0.1931 -0.1637  0.0814
58624DOD     C119691  10.158   1.026  23.486 -0.1633 -0.1133  0.0451
58624DOD     C219692  10.118   1.441  23.315  0.3974  0.0173  0.0543
58624DOD     C319693  10.225   1.887  23.261  0.0981  0.1775  0.4867
58625DOD     C119694  13.743  10.220   8.736  0.0115 -0.2336  0.0579
58625DOD     C219695  13.965  10.397   8.322  0.2694 -0.0100  0.0411
58625DOD     C319696  14.363  10.599   8.237 -0.0214  0.1616  0.1864
58626DOD     C119697  28.086  20.132  30.223  0.0089 -0.0064 -0.0944
58626DOD     C219698  27.618  20.127  30.139  0.0434  0.0301  0.1881
58626DOD     C319699  27.193  20.297  30.140 -0.0425  0.2576 -0.1251
58627DOD     C119700   7.591  22.676   6.720 -0.1874  0.1372  0.2260
58627DOD     C219701   7.837  22.967   6.993 -0.1448 -0.4792  0.2993
58627DOD     C319702   7.714  23.162   7.413 -0.0677 -0.2849  0.1975
58628DOD     C119703  17.186  24.213  12.585  0.1448  0.2777 -0.0419
58628DOD     C219704  16.824  24.448  12.719  0.1883  0.1178  0.0374
58628DOD     C319705  16.568  24.737  12.981  0.0095 -0.1424  0.1720
58629DOD     C119706  20.346  12.196  25.299  0.1367  0.1230 -0.0785
58629DOD     C219707  20.235  11.717  25.223  0.0098 -0.2674 -0.0599
58629DOD     C319708  19.913  11.356  25.118  0.0278  0.0043 -0.0994
58630DOD     C119709   1.633   8.151  28.788  0.2846 -0.2178  0.1610
58630DOD     C219710   1.425   8.543  29.056 -0.2111  0.1666  0.0113
58630DOD     C319711   1.118   8.816  28.914  0.1853  0.0156 -0.0469
58631DOD     C119712   6.031  27.980  10.615 -0.1242 -0.1277 -0.0979
58631DOD     C219713   5.912  27.535  10.637 -0.0145 -0.1814  0.0002
58631DOD     C319714   5.960  27.065  10.735 -0.5987  0.1141  0.0917
58632DOD     C119715   2.728  21.198  27.163 -0.1531 -0.2545 -0.2442
58632DOD     C219716   2.743  20.985  26.775  0.3232 -0.1523 -0.0596
58632DOD     C319717   2.715  20.560  26.561 -0.0185 -0.0076 -0.2082
58633DOD     C119718  29.905   6.675  10.964 -0.2264  0.1842  0.0444
58633DOD     C219719  30.130   6.916  10.660 -0.0479 -0.1465 -0.0981
58633DOD     C319720  30.209   6.716  10.258  0.1113 -0.0411 -0.0852
58634DOD     C119721  21.030  12.796  20.181  0.1667  0.1162  0.0439
58634DOD     C219722  21.113  13.147  20.524  0.0723 -0.0755 -0.1656
58634DOD     C319723  21.170  13.511  20.808  0.0909 -0.0832  0.0006
58635DOD     C119724  24.837   7.317  21.052  0.0857 -0.1828  0.1113
58635DOD     C219725  24.578   7.592  20.773 -0.0164  0.0663 -0.2963
58635DOD     C319726  24.104   7.752  20.828  0.1879  0.0658  0.0842
58636DOD     C119727   4.345  22.820  14.329 -0.2066  0.1744  0.0557
58636DOD     C219728   4.250  22.387  14.458 -0.2899  0.2236  0.1351
58636DOD     C319729   4.005  22.243  14.758 -0.0692 -0.2102 -0.1560
58637DOD     C119730  24.744   0.524   0.255  0.2029  0.1216  0.2584
58637DOD     C219731  25.016   0.915   0.244 -0.3936  0.3411 -0.1403
58637DOD     C319732  25.191   1.276   0.062 -0.1978 -0.0053 -0.1553
58638DOD     C119733  27.416  13.568  27.126  0.1159  0.1523  0.1501
58638DOD     C219734  27.459  13.822  26.766 -0.3115  0.2197  0.1837
58638DOD     C319735  27.371  13.886  26.330 -0.3236  0.1168 -0.1102
58639DOD     C119736   2.848  28.147   9.479  0.0786  0.2581 -0.5618
58639DOD     C219737   2.678  28.450   9.816  0.2057  0.0539 -0.3423
58639DOD     C319738   2.827  28.867   9.998 -0.0427  0.0129  0.1640
58640DOD     C119739  27.856  11.708  15.730  0.0592  0.1005  0.0267
58640DOD     C219740  27.990  11.884  15.285  0.5187  0.0543 -0.1028
58640DOD     C319741  28.330  12.168  15.108  0.3227  0.0237  0.3619
58641DOD     C119742  28.982  29.016   0.724 -0.1364 -0.1215 -0.2036
58641DOD     C219743  28.668  29.382   0.896  0.0048  0.0087 -0.1540
58641DOD     C319744  28.322  29.677   1.073  0.0093 -0.0308  0.2716
58642DOD     C119745  19.345  19.735  27.124  0.0386 -0.2013  0.0024
58642DOD     C219746  19.485  20.016  27.507  0.1270  0.0115  0.0036
58642DOD     C319747  19.777  20.354  27.704  0.2258  0.1307  0.1844
58643DOD     C119748   0.469   2.302   3.663 -0.0850  0.5421 -0.0179
58643DOD     C219749   0.108   2.039   3.880 -0.2115 -0.1791 -0.2159
58643DOD     C319750   0.038   1.788   4.266 -0.2378  0.0150 -0.2764
58644DOD     C119751  14.439  20.734  26.076 -0.0257 -0.0817  0.2876
58644DOD     C219752  14.673  20.346  26.086  0.1161  0.0853  0.3314
58644DOD     C319753  14.936  20.011  26.331 -0.1136 -0.1042  0.0608
58645DOD     C119754  23.141  21.733   0.326  0.0682 -0.0339 -0.0436
58645DOD     C219755  22.836  22.009  -0.007 -0.1717  0.2222 -0.2650
58645DOD     C319756  22.647  22.213  29.986  0.1227 -0.1666  0.3068
58646DOD     C119757  17.831   7.461  11.137 -0.1418 -0.0134  0.0823
58646DOD     C219758  17.552   7.093  11.044  0.1780  0.0381  0.0064
58646DOD     C319759  17.176   6.889  11.220 -0.1789  0.0884  0.1977
58647DOD     C119760   4.020  13.309  18.385 -0.0302 -0.1571  0.4418
58647DOD     C219761   4.196  12.917  18.608  0.1578  0.1102  0.0206
58647DOD     C319762   3.867  12.611  18.650  0.1164  0.0040  0.0724
58648DOD     C119763  23.699   0.257  15.318 -0.1960  0.0842 -0.1259
58648DOD     C219764  24.157   0.236  15.416  0.0208  0.2879  0.0756
58648DOD     C319765  24.517   0.194  15.093 -0.2553  0.0702  0.1033
58649DOD     C119766  18.999  10.909  16.344 -0.0574 -0.3151 -0.0903
58649DOD     C219767  19.428  10.746  16.260  0.3521  0.0975  0.2640
58649DOD     C319768  19.900  10.557  16.368  0.1293 -0.0495 -0.1912
58650DOD     C119769   4.176  21.039  19.366  0.1934  0.1456 -0.0846
58650DOD     C219770   4.203  21.469  19.293  0.0177  0.0397 -0.3049
58650DOD     C319771   4.200  21.892  19.402 -0.1481  0.0432  0.0763
58651DOD     C119772   8.229  29.341  29.121  0.2213  0.1943 -0.1660
58651DOD     C219773   7.879  29.394  29.435 -0.0492 -0.1713  0.0734
58651DOD     C319774   7.455  29.521  29.563 -0.1270 -0.0393  0.0410
58652DOD     C119775   8.048  24.708  29.819 -0.1939 -0.1157 -0.2815
58652DOD     C219776   7.860  25.132  29.637  0.1607  0.1235  0.1140
58652DOD     C319777   7.762  25.537  29.730  0.0002  0.1246 -0.0149
58653DOD     C119778  12.412  20.000  23.985 -0.1298  0.2923 -0.0409
58653DOD     C219779  12.244  20.461  23.979 -0.0145 -0.0890  0.0017
58653DOD     C319780  11.921  20.773  24.066 -0.0956  0.2754 -0.1070
58654DOD     C119781  23.913  24.874  14.458 -0.2299  0.2918  0.2318
58654DOD     C219782  24.069  24.579  14.794  0.1937  0.3052 -0.3924
58654DOD     C319783  23.998  24.401  15.248  0.0555 -0.0950  0.0516
58655DOD     C119784  28.471   3.296  23.802  0.0629  0.0082 -0.1292
58655DOD     C219785  28.408   3.116  23.302 -0.1352 -0.0181  0.0269
58655DOD     C319786  28.237   3.128  22.843  0.1448 -0.1088 -0.0853
58656DOD     C119787  22.421  22.836   0.239  0.3085  0.0627  0.3202
58656DOD     C219788  22.295  23.087  30.189 -0.0565  0.0874  0.0862
58656DOD     C319789  21.944  22.913  29.919  0.0622  0.3033  0.0230
58657DOD     C119790  22.251  24.548   4.911 -0.2709  0.1945 -0.3261
58657DOD     C219791  22.092  24.217   5.178 -0.0360  0.2245  0.0677
58657DOD     C319792  22.101  23.814   5.397 -0.1876  0.4104  0.0477
58658DOD     C119793  20.437  16.697  13.696 -0.2358 -0.0966  0.4523
58658DOD     C219794  20.831  16.497  13.860  0.0655  0.2623 -0.0013
58658DOD     C319795  20.941  16.378  14.268  0.0549 -0.0580  0.1408
58659DOD     C119796  22.459  28.822  14.282  0.1691 -0.0346 -0.2404
58659DOD     C219797  22.770  28.713  14.641 -0.4197 -0.2945 -0.3506
58659DOD     C319798  23.204  28.434  14.716  0.0894  0.2401  0.1962
58660DOD     C119799  21.180   2.394   1.607 -0.4220  0.2111  0.0540
58660DOD     C219800  21.089   1.936   1.556  0.0864  0.0461 -0.0356
58660DOD     C319801  20.973   1.682   1.184  0.2008 -0.1486 -0.5875
58661DOD     C119802  19.754  15.831  24.242 -0.0375 -0.1231  0.1221
58661DOD     C219803  20.031  16.231  24.199  0.2663 -0.3405 -0.1619
58661DOD     C319804  20.254  16.666  24.132  0.0145 -0.2925 -0.0944
58662DOD     C119805  30.195   0.091  28.829  0.0697 -0.0399 -0.3156
58662DOD     C219806   0.304  30.229  28.797 -0.0406 -0.0556  0.2043
58662DOD     C319807   0.718   0.032  28.819  0.0578 -0.1331  0.1826
58663DOD     C119808  19.540  20.529  24.913  0.3738 -0.1245  0.3141
58663DOD     C219809  19.271  20.683  24.556  0.4077  0.1611 -0.0687
58663DOD     C319810  18.903  20.806  24.460  0.1807  0.1355 -0.0934
58664DOD     C119811   1.408   6.255  15.534 -0.0539  0.0926 -0.0077
58664DOD     C219812   1.197   6.062  15.116 -0.1730  0.3876 -0.0304
58664DOD     C319813   0.858   6.021  14.862  0.6108  0.0810 -0.1541
58665DOD     C119814  27.338   5.934  29.738 -0.1723 -0.1294 -0.1898
58665DOD     C219815  27.446   5.466  29.722  0.1243  0.1250 -0.1792
58665DOD     C319816  27.207   5.184  29.500 -0.0638  0.0162 -0.3347
58666DOD     C119817  13.674   5.069  24.390 -0.0549  0.0172 -0.1771
58666DOD     C219818  13.728   4.872  23.993 -0.0269 -0.0284  0.2990
58666DOD     C319819  13.746   4.438  23.842 -0.2099 -0.2364  0.0042
58667DOD     C119820   2.468  14.132   2.373 -0.2956  0.2220 -0.0824
58667DOD     C219821   2.587  13.825   2.030 -0.1025 -0.3388  0.1504
58667DOD     C319822   3.034  13.712   1.877 -0.1637  0.3141  0.1182
58668DOD     C119823  16.204   9.629  25.842  0.2670 -0.0009  0.0082
58668DOD     C219824  16.289   9.210  25.579 -0.4374  0.1942  0.1540
58668DOD     C319825  16.485   8.773  25.487 -0.2190 -0.1334  0.0369
58669DOD     C119826  23.482  24.348  11.411  0.0218  0.1569  0.1653
58669DOD     C219827  23.794  24.523  11.727  0.1261 -0.1448  0.0439
58669DOD     C319828  23.821  24.553  12.205 -0.2435  0.4001  0.1938
58670DOD     C119829  12.382  17.207   1.061 -0.1133  0.2955 -0.0642
58670DOD     C219830  12.186  17.601   1.143  0.0960 -0.0672  0.1013
58670DOD     C319831  12.132  18.002   1.000  0.1393 -0.3148  0.2238
58671DOD     C119832  10.779  11.714  13.762  0.2418  0.1119  0.0299
58671DOD     C219833  11.292  11.725  13.636 -0.0337 -0.0295  0.0261
58671DOD     C319834  11.720  11.760  13.430 -0.1293  0.1288  0.2924
58672DOD     C119835  28.529   7.861  26.857 -0.0239 -0.0642 -0.0491
58672DOD     C219836  28.760   7.794  26.507  0.2515  0.1045  0.0643
58672DOD     C319837  28.806   7.677  26.066  0.2289  0.1013 -0.0860
58673DOD     C119838  10.340  11.799  13.890 -0.0705  0.0419  0.1551
58673DOD     C219839  10.539  11.962  14.213  0.1061 -0.0730 -0.0746
58673DOD     C319840  10.584  11.801  14.646 -0.1128 -0.2387  0.2721
58674DOD     C119841   3.542  13.783  22.130  0.5419  0.1633 -0.1427
58674DOD     C219842   3.768  13.746  22.582  0.1589 -0.2538  0.3217
58674DOD     C319843   3.753  13.875  23.000 -0.0795  0.1782 -0.1895
58675DOD     C119844  14.493   7.936   7.721 -0.0891  0.2945 -0.0849
58675DOD     C219845  14.188   7.656   7.730 -0.1657  0.0001  0.0651
58675DOD     C319846  13.824   7.432   7.915 -0.6110  0.0094 -0.1543
58676DOD     C119847  22.422  10.735   8.354 -0.1732 -0.1731  0.2471
58676DOD     C219848  22.374  11.183   8.267 -0.0535 -0.1667  0.1054
58676DOD     C319849  22.403  11.434   7.893 -0.0818 -0.1739  0.1118
58677DOD     C119850  19.021   2.246  28.761  0.0495 -0.0257 -0.0670
58677DOD     C219851  19.272   1.934  28.507  0.0923 -0.2998 -0.3309
58677DOD     C319852  19.391   1.531  28.430  0.3647  0.0543  0.4826
58678DOD     C119853   9.234  29.959  12.227  0.0422 -0.3488  0.1632
58678DOD     C219854   8.920  29.591  12.195 -0.0649 -0.4017 -0.2933
58678DOD     C319855   8.650  29.236  11.926  0.1559 -0.1649 -0.0915
58679DOD     C119856  26.069  18.023   7.222 -0.1242 -0.0505 -0.1160
58679DOD     C219857  25.632  17.993   7.335  0.2292  0.1906  0.3347
58679DOD     C319858  25.265  17.808   7.571  0.3034  0.2590 -0.0886
58680DOD     C119859   5.103   9.485   3.833  0.1406  0.2163  0.4214
58680DOD     C219860   5.131   9.189   4.198  0.0429  0.0512 -0.1143
58680DOD     C319861   5.012   9.226   4.644  0.0867 -0.0970 -0.2316
58681DOD     C119862  12.256  17.843  15.965  0.1367  0.1495  0.1068
58681DOD     C219863  12.015  18.196  15.703  0.0090  0.2249  0.1577
58681DOD     C319864  11.884  18.378  15.285  0.0560 -0.0334 -0.2773
58682DOD     C119865  29.995   8.504   4.137  0.0754 -0.3251  0.2178
58682DOD     C219866  30.030   8.731   3.734  0.1030 -0.2176  0.0820
58682DOD     C319867  -0.015   8.863   3.385 -0.1185 -0.0781  0.0360
58683DOD     C119868  18.553   8.819   2.055  0.0350  0.1017  0.3372
58683DOD     C219869  19.019   8.871   2.034  0.2506 -0.4258  0.0879
58683DOD     C319870  19.445   8.827   2.010 -0.0032  0.0752  0.3682
58684DOD     C119871  15.063   8.207  30.222 -0.1258 -0.1714  0.2198
58684DOD     C219872  14.807   7.957   0.279 -0.0190 -0.1914  0.0639
58684DOD     C319873  14.402   7.896   0.523  0.0100 -0.1217  0.3018
58685DOD     C119874  28.161  29.142  10.847 -0.1478 -0.0247  0.2395
58685DOD     C219875  28.598  29.033  10.737  0.0031 -0.0253 -0.2105
58685DOD     C319876  29.056  28.867  10.640 -0.2560  0.2412 -0.1128
58686DOD     C119877  22.509  11.627  14.802 -0.0088 -0.2259 -0.0774
58686DOD     C219878  22.121  11.844  14.681 -0.0901  0.0099 -0.3628
58686DOD     C319879  21.872  12.235  14.803 -0.2472 -0.0163  0.1553
58687DOD     C119880  26.447  18.335   6.171 -0.0808 -0.1235 -0.0525
58687DOD     C219881  26.895  18.163   6.187 -0.1041  0.0154 -0.1446
58687DOD     C319882  27.161  18.089   5.817  0.0224 -0.3412  0.1076
58688DOD     C119883   7.116   8.456  15.066  0.1765  0.1326  0.1544
58688DOD     C219884   7.472   8.427  14.882 -0.2283 -0.0435  0.1284
58688DOD     C319885   7.887   8.404  14.640  0.0362 -0.1160  0.3183
58689DOD     C119886  24.605   5.730  22.596  0.3359  0.0393 -0.1708
58689DOD     C219887  24.889   5.581  22.962 -0.2010  0.0258 -0.1608
58689DOD     C319888  25.267   5.634  23.329 -0.2016  0.0296  0.0220
58690DOD     C119889   4.891  12.234   1.846  0.0718 -0.3402 -0.0858
58690DOD     C219890   5.166  12.345   1.442  0.1077  0.2535 -0.2567
58690DOD     C319891   5.383  12.263   1.049 -0.3822 -0.3121  0.0111
58691DOD     C119892  17.381  22.399  21.347 -0.0941 -0.2193 -0.0023
58691DOD     C219893  17.280  22.013  21.143 -0.2138  0.2092  0.0734
58691DOD     C319894  17.508  21.779  20.806 -0.2287  0.2227 -0.0775
58692DOD     C119895  12.682  21.887  17.139 -0.2956  0.2792 -0.0251
58692DOD     C219896  12.565  21.454  16.892 -0.2712 -0.3084 -0.0615
58692DOD     C319897  12.484  21.249  16.463  0.1804 -0.0337  0.1348
58693DOD     C119898   5.805  27.826   8.226  0.2835  0.1121  0.1165
58693DOD     C219899   5.865  27.812   7.765 -0.0387  0.1200 -0.5428
58693DOD     C319900   5.514  27.719   7.519  0.0751  0.0523  0.3610
58694DOD     C119901   6.825  18.782  13.664  0.2290  0.1195 -0.0575
58694DOD     C219902   6.656  18.520  13.340 -0.0439  0.2856 -0.0362
58694DOD     C319903   6.319  18.508  13.010  0.1353 -0.0122  0.1460
58695DOD     C119904  28.588  13.191   2.463  0.1288  0.0521  0.2126
58695DOD     C219905  28.317  13.157   2.896  0.2546 -0.2246 -0.2848
58695DOD     C319906  27.903  13.144   3.160 -0.0600 -0.0267 -0.0467
58696DOD     C119907  26.196  17.054  27.035 -0.1943  0.2982  0.2083
58696DOD     C219908  26.419  16.879  26.648 -0.0908  0.0028 -0.1463
58696DOD     C319909  26.398  16.888  26.207  0.1812  0.0741 -0.3368
58697DOD     C119910   7.649  16.020  14.097  0.0142 -0.1156  0.0327
58697DOD     C219911   7.862  16.183  13.685 -0.0843  0.0369 -0.2625
58697DOD     C319912   8.106  16.263  13.359 -0.0936 -0.0390 -0.1196
58698DOD     C119913  11.373   8.372  19.924  0.0171  0.4046 -0.0935
58698DOD     C219914  10.924   8.087  19.975  0.0594  0.2591  0.2571
58698DOD     C319915  10.489   8.150  19.957  0.3037  0.0005 -0.1412
58699DOD     C119916  17.514  26.552  19.784 -0.0898 -0.1221  0.3078
58699DOD     C219917  17.092  26.646  19.606 -0.1251 -0.1548 -0.1523
58699DOD     C319918  16.687  26.521  19.797  0.2669 -0.0828 -0.3681
58700DOD     C119919   3.352   0.056  24.107 -0.0202  0.2897  0.1606
58700DOD     C219920   3.296  30.184  23.700  0.0423 -0.2725 -0.0133
58700DOD     C319921   3.158  29.775  23.505  0.0494 -0.0699  0.0152
58701DOD     C119922  14.058  30.152   6.797  0.0844  0.3492  0.1559
58701DOD     C219923  13.819   0.112   7.036 -0.0051 -0.2087  0.0779
58701DOD     C319924  13.751   0.460   7.352 -0.1914  0.3340 -0.0300
58702DOD     C119925  29.230  18.869   5.107  0.0123 -0.1055  0.0336
58702DOD     C219926  28.833  19.137   5.223  0.0467 -0.0764  0.1096
58702DOD     C319927  28.699  19.574   5.136 -0.0080 -0.0000 -0.0211
58703DOD     C119928   1.205  10.922   5.467  0.1923 -0.0027  0.0477
58703DOD     C219929   1.259  11.017   5.913  0.0266 -0.3760  0.2391
58703DOD     C319930   1.308  11.234   6.307 -0.2814 -0.0875 -0.1421
58704DOD     C119931  21.058  23.923  15.018  0.2013  0.0935 -0.0575
58704DOD     C219932  21.233  23.483  15.201 -0.0283  0.1578 -0.1566
58704DOD     C319933  21.218  23.028  15.327 -0.0531 -0.0314  0.2202
58705DOD     C119934  29.943  18.144  16.063  0.0639 -0.2428  0.0509
58705DOD     C219935  29.567  18.445  15.936  0.2955  0.1845 -0.2043
58705DOD     C319936  29.301  18.813  16.132  0.3292 -0.1510 -0.1335
58706DOD     C119937  27.604   8.766  15.737  0.2062 -0.1085  0.1708
58706DOD     C219938  27.590   9.177  15.863 -0.1811 -0.0991  0.0478
58706DOD     C319939  27.795   9.372  16.231 -0.2126  0.1310 -0.0441
58707DOD     C119940  30.071  18.793   2.962 -0.0907 -0.3349  0.0213
58707DOD     C219941   0.113  19.132   3.031  0.2191 -0.4239 -0.2278
58707DOD     C319942   0.581  19.166   2.975 -0.0280  0.0730 -0.1433
58708DOD     C119943   1.542  22.078  27.526 -0.3787 -0.2457  0.2310
58708DOD     C219944   1.320  22.053  27.902  0.1660 -0.1532 -0.3136
58708DOD     C319945   0.918  22.100  28.195  0.0281 -0.1647  0.1406
58709DOD     C119946  18.297   3.474   4.768  0.3190 -0.2240  0.0641
58709DOD     C219947  18.308   3.190   5.140  0.0036  0.1162  0.0102
58709DOD     C319948  18.416   2.867   5.459 -0.2038  0.1153  0.2373
58710DOD     C119949  23.071   8.046  12.722 -0.1938 -0.2435  0.0426
58710DOD     C219950  23.232   7.998  12.260 -0.4319  0.0848 -0.0343
58710DOD     C319951  23.409   7.783  11.848  0.0858  0.0485 -0.0959
58711DOD     C119952   3.991   0.856   3.518  0.1857  0.1318 -0.0685
58711DOD     C219953   3.800   0.614   3.214 -0.0986  0.3585  0.1641
58711DOD     C319954   3.674   0.447   2.765 -0.1204 -0.2159  0.0608
58712DOD     C119955  25.289  15.572  25.165 -0.0768 -0.4744 -0.1620
58712DOD     C219956  25.207  15.983  25.243  0.2645 -0.2722 -0.0026
58712DOD     C319957  25.209  16.397  25.029 -0.0330 -0.2477  0.1660
58713DOD     C119958  24.635   3.854   3.370 -0.0874  0.0147  0.0404
58713DOD     C219959  24.625   3.472   3.621 -0.1788  0.0039  0.1104
58713DOD     C319960  24.623   3.032   3.719  0.2118 -0.0965 -0.0914
58714DOD     C119961   7.944  21.119  24.432 -0.1292 -0.0511  0.0412
58714DOD     C219962   7.888  20.694  24.257 -0.3649  0.1301  0.0310
58714DOD     C319963   7.811  20.585  23.783  0.2363  0.0401 -0.1245
58715DOD     C119964  13.058  29.591  16.722  0.2191 -0.0546 -0.2497
58715DOD     C219965  13.080  29.151  16.733 -0.0160  0.1043  0.0421
58715DOD     C319966  12.867  28.781  16.608  0.1488 -0.2294  0.2438
58716DOD     C119967   8.876  15.300  16.088  0.3099 -0.3142  0.2509
58716DOD     C219968   8.980  15.769  16.110 -0.0776  0.2070 -0.1492
58716DOD     C319969   8.918  16.220  15.948  0.2828 -0.0807  0.1722
58717DOD     C119970   5.104   4.584  25.206  0.4028  0.1127 -0.1663
58717DOD     C219971   4.657   4.474  25.226  0.0194 -0.1009  0.1374
58717DOD     C319972   4.239   4.454  25.039  0.0376 -0.1388 -0.1845
58718DOD     C119973   2.529  21.219   9.922  0.0302 -0.1461 -0.1819
58718DOD     C219974   2.303  21.030   9.547 -0.0851  0.1292  0.0148
58718DOD     C319975   2.405  20.861   9.140  0.1460  0.0594 -0.1967
58719DOD     C119976  25.107  22.047  12.268  0.0707 -0.0331  0.1112
58719DOD     C219977  25.290  21.974  11.872  0.1319 -0.0409  0.0222
58719DOD     C319978  25.720  21.895  11.697  0.1087  0.4582  0.3777
58720DOD     C119979  15.355  29.251   3.106 -0.1855  0.0604 -0.2636
58720DOD     C219980  14.867  29.281   3.074  0.1023  0.0547 -0.0343
58720DOD     C319981  14.467  29.389   3.071 -0.2089  0.2121 -0.0907
58721DOD     C119982  10.321   0.514  18.860  0.0903  0.1460  0.0006
58721DOD     C219983  10.657   0.743  18.614  0.0022  0.0231  0.1367
58721DOD     C319984  10.624   1.179  18.368 -0.1578  0.1710 -0.2244
58722DOD     C119985  14.994   8.484  13.614 -0.4267 -0.1783 -0.1005
58722DOD     C219986  15.384   8.323  13.402 -0.2582  0.0383  0.1496
58722DOD     C319987  15.787   8.238  13.214 -0.2631  0.1618  0.1757
58723DOD     C119988  27.665  19.618   4.180  0.2458 -0.0310 -0.0521
58723DOD     C219989  27.222  19.449   4.222  0.1386  0.1385 -0.1517
58723DOD     C319990  26.813  19.610   4.062 -0.0604  0.3437  0.3322
58724DOD     C119991   1.271  30.093   5.165 -0.0194  0.1032  0.2467
58724DOD     C219992   1.242  29.627   4.953  0.0621 -0.3512  0.1146
58724DOD     C319993   1.501  29.379   4.722  0.1552 -0.0706  0.1347
58725DOD     C119994  14.107  22.437  21.201 -0.2391 -0.0914 -0.2758
58725DOD     C219995  13.788  22.758  21.100  0.1218  0.0274  0.1226
58725DOD     C319996  13.491  22.819  20.801  0.0955  0.0964  0.0060
58726DOD     C119997  17.142  19.701   6.617 -0.2116  0.0872 -0.0470
58726DOD     C219998  16.726  19.771   6.434 -0.4602 -0.1793  0.2101
58726DOD     C319999  16.329  19.933   6.599 -0.1208  0.2421  0.0349
58727DOD     C120000   6.453  26.787  21.681  0.0777 -0.0376  0.3019
58727DOD     C220001   6.127  26.408  21.716  0.0706  0.3062  0.0666
58727DOD     C320002   5.804  26.060  21.762 -0.2842 -0.3147  0.1065
58728DOD     C120003  19.460  18.417  13.220 -0.1759  0.1040  0.1399
58728DOD     C220004  19.133  18.536  13.558  0.1003 -0.0502  0.3306
58728DOD     C320005  18.802  18.693  13.785  0.1725  0.0985  0.1737
58729DOD     C120006   2.297   6.384  10.283  0.3516 -0.2566 -0.0734
58729DOD     C220007   2.530   6.739  10.347  0.0299 -0.1092  0.0743
58729DOD     C320008   2.861   6.960  10.405 -0.2417 -0.2234 -0.2386
58730DOD     C120009  28.977  15.331  28.555  0.2188  0.1636  0.0343
58730DOD     C220010  28.732  15.652  28.731 -0.1619  0.0489  0.5200
58730DOD     C320011  28.761  16.152  28.748 -0.1737  0.0763 -0.1752
58731DOD     C120012   1.745  20.516   8.641 -0.1466 -0.1517 -0.0467
58731DOD     C220013   1.657  20.639   9.110 -0.1415  0.0107  0.1248
58731DOD     C320014   1.592  20.345   9.468  0.2310 -0.0263  0.2050
58732DOD     C120015   6.166  28.164  11.192 -0.2037  0.2740  0.0510
58732DOD     C220016   6.502  28.390  10.972 -0.0396  0.2063  0.0079
58732DOD     C320017   6.639  28.833  10.775 -0.0424  0.1995 -0.3430
58733DOD     C120018  27.749  24.295  24.187  0.2579  0.0631 -0.4208
58733DOD     C220019  27.479  24.663  24.052 -0.1006  0.1071 -0.0877
58733DOD     C320020  27.520  25.096  23.953  0.0243 -0.2455  0.0297
58734DOD     C120021  13.919   7.315  25.064 -0.2988  0.0281  0.0742
58734DOD     C220022  13.652   7.285  25.455  0.0574  0.0242  0.1970
58734DOD     C320023  13.303   7.574  25.626  0.0963  0.1471  0.1329
58735DOD     C120024  25.481   5.758  12.269 -0.4174  0.0591  0.0119
58735DOD     C220025  25.322   5.426  12.431  0.1561 -0.0147  0.0563
58735DOD     C320026  25.238   4.973  12.358 -0.3036  0.3836 -0.1617
58736DOD     C120027  26.750  25.135   4.300  0.0663  0.1945  0.1051
58736DOD     C220028  26.553  25.555   4.278 -0.1666  0.1487 -0.2968
58736DOD     C320029  26.474  25.724   4.685  0.0984 -0.0474  0.1126
58737DOD     C120030  16.996  10.817  23.911 -0.0360 -0.2748  0.0520
58737DOD     C220031  17.200  10.794  24.318 -0.1101  0.2669  0.1652
58737DOD     C320032  17.220  10.525  24.701  0.0265 -0.1735 -0.2174
58738DOD     C120033  11.271  21.578  25.422  0.0845  0.1604  0.0204
58738DOD     C220034  11.081  21.838  25.019  0.1305 -0.0553 -0.1104
58738DOD     C320035  10.949  22.154  24.630  0.0757  0.1504 -0.1159
58739DOD     C120036   7.469  18.271   3.747 -0.2158  0.0023  0.0998
58739DOD     C220037   7.433  17.834   3.672 -0.2323  0.1096 -0.1936
58739DOD     C320038   7.517  17.420   3.843  0.0111  0.2200 -0.2167
58740DOD     C120039  26.525   8.358  12.643  0.0892  0.1701 -0.1110
58740DOD     C220040  26.961   8.427  12.823  0.2527  0.4350  0.1241
58740DOD     C320041  27.206   8.770  12.924  0.1632  0.0207 -0.2346
58741DOD     C120042  17.550   2.396  12.637  0.0940  0.5004  0.1564
58741DOD     C220043  17.595   2.144  12.244  0.1084  0.3509  0.0956
58741DOD     C320044  17.437   1.927  11.853 -0.0539 -0.0113  0.2640
58742DOD     C120045  18.745  29.827  10.878 -0.0411  0.2226 -0.0776
58742DOD     C220046  18.475  29.475  10.844  0.2708  0.3437  0.1686
58742DOD     C320047  18.254  29.331  10.481 -0.0199  0.1834  0.0084
58743DOD     C120048  25.283   5.913  27.060 -0.0233  0.2194  0.1817
58743DOD     C220049  25.676   6.001  26.777 -0.0516  0.1042 -0.3113
58743DOD     C320050  25.823   6.073  26.364 -0.0381  0.0200 -0.2200
58744DOD     C120051  27.206  29.516  14.932 -0.0618 -0.3387 -0.1683
58744DOD     C220052  27.072  29.595  15.332  0.1312  0.0828 -0.0782
58744DOD     C320053  27.076  29.770  15.752  0.1535 -0.0309  0.1302
58745DOD     C120054   5.162  27.924  25.854  0.2171 -0.0286  0.2787
58745DOD     C220055   5.214  28.153  26.204  0.1323 -0.0663  0.0883
58745DOD     C320056   5.025  28.528  26.379  0.0317 -0.2867 -0.1894
58746DOD     C120057   7.782  25.378   7.009 -0.1398  0.0244 -0.2985
58746DOD     C220058   7.476  25.425   7.377  0.1074  0.0219  0.2239
58746DOD     C320059   7.112  25.357   7.629 -0.0234 -0.1036 -0.3591
58747DOD     C120060  27.941   2.685  23.954 -0.3764  0.1793  0.3109
58747DOD     C220061  27.866   2.413  24.284 -0.0652  0.0617  0.0206
58747DOD     C320062  27.698   2.357  24.735  0.2442 -0.1970  0.0376
58748DOD     C120063  27.942  20.619  30.203 -0.2035  0.2318 -0.0377
58748DOD     C220064  27.595  20.914  30.031  0.1168 -0.3179  0.1370
58748DOD     C320065  27.318  21.044  29.679 -0.2884  0.1185  0.2146
58749DOD     C120066  18.227  25.955  20.196 -0.1585 -0.2286 -0.0689
58749DOD     C220067  17.793  25.933  20.081 -0.1023 -0.4122  0.1764
58749DOD     C320068  17.428  25.916  19.768  0.1783 -0.1312 -0.1419
58750DOD     C120069  15.878  13.353   6.563  0.0238  0.1275 -0.3408
58750DOD     C220070  16.041  12.952   6.719  0.1836 -0.2160 -0.0749
58750DOD     C320071  16.068  12.565   6.502  0.5366  0.1878 -0.4799
58751DOD     C120072  27.654   8.005  26.690  0.0072 -0.4745 -0.0857
58751DOD     C220073  27.889   8.288  27.034  0.0608  0.2032 -0.0819
58751DOD     C320074  28.124   8.298  27.481  0.3462  0.2776  0.1040
58752DOD     C120075  20.040  13.096  15.482  0.0339  0.3595 -0.1071
58752DOD     C220076  20.421  13.109  15.765  0.1170  0.0477  0.0182
58752DOD     C320077  20.869  12.953  15.825 -0.0394 -0.1500  0.2196
58753DOD     C120078  27.508   9.155   1.487  0.1449  0.0130  0.2640
58753DOD     C220079  27.839   9.327   1.248  0.0370  0.6571  0.2223
58753DOD     C320080  28.169   9.515   0.992 -0.0566  0.1083  0.3407
58754DOD     C120081  20.776   2.267  21.868 -0.0127  0.6467  0.3899
58754DOD     C220082  20.339   2.301  22.153  0.0164  0.0437 -0.0401
58754DOD     C320083  19.878   2.392  22.105  0.0369 -0.0245  0.3599
58755DOD     C120084  15.901  20.831  12.820  0.2261  0.1051 -0.1809
58755DOD     C220085  15.442  20.780  12.647 -0.2067  0.0068  0.0728
58755DOD     C320086  15.230  21.154  12.442  0.3066 -0.1074  0.1727
58756DOD     C120087   5.343   2.787  11.100  0.1415  0.1826  0.0234
58756DOD     C220088   4.941   2.823  11.276 -0.2873  0.1312 -0.2016
58756DOD     C320089   4.515   2.614  11.502  0.2828 -0.2529  0.1267
58757DOD     C120090   1.854  12.945   5.037 -0.2157  0.2417 -0.2685
58757DOD     C220091   1.495  13.255   4.966  0.2406 -0.0255 -0.2220
58757DOD     C320092   1.200  13.577   5.054 -0.1937 -0.1303  0.1493
58758DOD     C120093  11.978   1.869  16.140  0.0329 -0.3924 -0.1357
58758DOD     C220094  11.914   2.325  16.041 -0.0334  0.2682 -0.4909
58758DOD     C320095  11.608   2.710  16.129  0.0995  0.0604 -0.1288
58759DOD     C120096   9.533  10.160   1.199  0.0104 -0.2347 -0.1143
58759DOD     C220097   9.824  10.210   0.857 -0.1959  0.0561 -0.1465
58759DOD     C320098  10.084   9.901   0.736 -0.1222  0.1363  0.0078
58760DOD     C120099   2.521  17.888  19.347  0.3688 -0.3008  0.1951
58760DOD     C220100   2.298  18.018  19.791  0.3008  0.1148  0.1381
58760DOD     C320101   1.943  18.253  20.042 -0.0203 -0.2544 -0.0678
58761DOD     C120102  15.230   0.485  26.281 -0.1539 -0.1189  0.1214
58761DOD     C220103  15.357   0.075  26.380 -0.0253  0.0868  0.2038
58761DOD     C320104  15.663  30.195  26.038  0.0640  0.0024  0.1268
58762DOD     C120105  25.064  21.287  14.602 -0.0350  0.0928  0.3223
58762DOD     C220106  25.111  21.135  15.074  0.0104 -0.3038 -0.0723
58762DOD     C320107  24.837  21.207  15.406  0.0978  0.0435  0.0078
58763DOD     C120108  13.365  13.787  19.178  0.1409 -0.1306  0.1801
58763DOD     C220109  13.011  13.512  18.973  0.1727  0.0936 -0.1180
58763DOD     C320110  12.912  13.040  19.037  0.1776  0.0816 -0.0219
58764DOD     C120111  27.936  22.490   7.033 -0.0407  0.0464 -0.1898
58764DOD     C220112  28.124  22.890   6.903  0.2097  0.0512  0.0413
58764DOD     C320113  28.277  23.291   7.141  0.2885  0.1986  0.0285
58765DOD     C120114  13.210   7.516   6.820 -0.5180 -0.0770 -0.1849
58765DOD     C220115  13.454   7.581   7.173 -0.3160  0.1331 -0.0781
58765DOD     C320116  13.397   7.798   7.622  0.1107 -0.0437 -0.2396
58766DOD     C120117  10.774   4.671  11.130  0.1889  0.0337 -0.2315
58766DOD     C220118  11.156   4.427  11.005  0.1300  0.0663 -0.1832
58766DOD     C320119  11.598   4.177  11.078 -0.0825  0.4000  0.2885
58767DOD     C120120  29.635  21.047  10.764  0.0103  0.2316  0.1483
58767DOD     C220121  29.669  20.867  10.350  0.0969 -0.1131  0.0639
58767DOD     C320122  30.054  20.791  10.119  0.1949 -0.0244  0.0599
58768DOD     C120123  20.516  21.257  12.099 -0.3127  0.2786  0.0656
58768DOD     C220124  20.698  20.848  12.378 -0.0571 -0.0184  0.0393
58768DOD     C320125  20.865  20.705  12.769  0.1787  0.0872  0.0889
58769DOD     C120126  23.388  17.939   2.190 -0.0591 -0.1350  0.1749
58769DOD     C220127  23.380  17.827   1.741 -0.0830  0.2296  0.0720
58769DOD     C320128  23.374  17.559   1.320  0.1959  0.1010 -0.2015
58770DOD     C120129  21.991  28.583   9.789 -0.1254  0.0381 -0.2140
58770DOD     C220130  21.565  28.711  10.057 -0.2587  0.0745  0.0140
58770DOD     C320131  21.463  29.105  10.321  0.0508 -0.2276 -0.1610
58771DOD     C120132  18.425  19.809   1.840  0.2988  0.1964  0.1935
58771DOD     C220133  18.592  19.647   1.503  0.0054 -0.2536 -0.2494
58771DOD     C320134  18.544  19.538   1.054  0.0718  0.2001  0.2010
58772DOD     C120135  16.755  14.687   6.693  0.2288 -0.2567 -0.0208
58772DOD     C220136  17.084  14.793   6.320  0.0118  0.2226  0.1727
58772DOD     C320137  17.503  14.645   6.223 -0.0663  0.1688 -0.0428
58773DOD     C120138  22.279   9.924  15.455  0.1738 -0.0374 -0.0279
58773DOD     C220139  22.034   9.720  15.774  0.0215  0.0772  0.0566
58773DOD     C320140  21.821   9.360  15.887  0.0777  0.0720  0.1365
58774DOD     C120141   5.200  19.888   6.094  0.3840 -0.1440 -0.1152
58774DOD     C220142   5.677  19.861   6.176 -0.1034 -0.2157 -0.3188
58774DOD     C320143   6.083  19.733   6.276 -0.1164  0.1343  0.0652
58775DOD     C120144   8.174  13.489   7.426 -0.2715  0.0999 -0.0459
58775DOD     C220145   8.059  13.889   7.201  0.2958  0.1487  0.0973
58775DOD     C320146   7.861  14.242   6.944  0.2185  0.0431 -0.0166
58776DOD     C120147  11.637  10.938   7.960 -0.2362  0.4516 -0.2579
58776DOD     C220148  11.427  10.831   7.574 -0.0367  0.0947  0.1456
58776DOD     C320149  11.561  10.723   7.103  0.0256 -0.0433 -0.1453
58777DOD     C120150  23.120  20.199   4.530  0.0984  0.2681  0.2843
58777DOD     C220151  23.378  20.045   4.165 -0.2854  0.0705 -0.1139
58777DOD     C320152  23.446  20.054   3.671 -0.0943  0.1271 -0.0672
58778DOD     C120153  20.308   2.991  12.880 -0.1159  0.0106  0.2008
58778DOD     C220154  20.444   2.553  13.020  0.1372 -0.1351 -0.0373
58778DOD     C320155  20.586   2.477  13.482  0.0478 -0.1331 -0.1891
58779DOD     C120156  19.187  16.313  10.335 -0.0868  0.1567 -0.3394
58779DOD     C220157  19.544  16.205  10.581 -0.0112  0.0121  0.2734
58779DOD     C320158  19.846  16.352  10.881  0.1570  0.2495 -0.4885
58780DOD     C120159  13.814  28.401   1.634  0.0470 -0.2356  0.1750
58780DOD     C220160  14.292  28.378   1.476 -0.0578 -0.0619 -0.2114
58780DOD     C320161  14.360  28.149   1.051 -0.2361 -0.0578 -0.0781
58781DOD     C120162   0.799  13.322  27.693 -0.1853  0.0044 -0.0159
58781DOD     C220163   0.683  13.476  27.301  0.0382  0.0096  0.1179
58781DOD     C320164   0.698  13.882  27.197  0.1921 -0.2643 -0.2426
58782DOD     C120165  21.468  25.654  11.574  0.1890 -0.2240 -0.0600
58782DOD     C220166  21.571  25.479  11.144  0.0753 -0.1718 -0.3561
58782DOD     C320167  21.398  25.322  10.728  0.0746 -0.0523  0.0649
58783DOD     C120168  27.390   8.676  13.716  0.2619 -0.0236 -0.2681
58783DOD     C220169  27.630   9.090  13.748 -0.1429  0.2034 -0.6135
58783DOD     C320170  28.035   9.186  13.862 -0.0257  0.0953 -0.3359
58784DOD     C120171  26.950  18.830  29.670 -0.0997 -0.3167  0.0436
58784DOD     C220172  26.547  18.959  29.535  0.2394 -0.1642  0.0332
58784DOD     C320173  26.178  19.192  29.314 -0.3184  0.2218  0.1303
58785DOD     C120174  28.682   1.740   9.434 -0.1693  0.2510  0.3023
58785DOD     C220175  28.661   1.666   8.951 -0.2435  0.0242  0.1655
58785DOD     C320176  28.468   1.865   8.597 -0.2644 -0.1117  0.1095
58786DOD     C120177  18.552  13.893  23.043 -0.3328  0.2919  0.3239
58786DOD     C220178  18.158  14.005  23.223  0.1065 -0.2169 -0.0832
58786DOD     C320179  17.922  13.817  23.593  0.1259 -0.1983  0.0778
58787DOD     C120180  18.929   0.708  24.691 -0.2752  0.0424 -0.0649
58787DOD     C220181  18.797   0.480  24.333  0.2944 -0.0366  0.2426
58787DOD     C320182  18.493   0.146  24.224 -0.0371 -0.1921  0.1993
58788DOD     C120183   3.932   4.713   6.038  0.3510  0.2943 -0.0776
58788DOD     C220184   4.099   4.548   6.479 -0.2706 -0.1897 -0.2206
58788DOD     C320185   4.500   4.334   6.622 -0.0146  0.3374  0.3298
58789DOD     C120186  25.676   1.325  23.395  0.0375  0.2504 -0.0708
58789DOD     C220187  25.754   1.801  23.173  0.2137 -0.1948 -0.1602
58789DOD     C320188  26.090   2.007  23.001 -0.1448 -0.1954 -0.0975
58790DOD     C120189  21.658  20.572  13.925 -0.0528 -0.2095  0.0253
58790DOD     C220190  21.310  20.650  14.172 -0.3907  0.0123 -0.3922
58790DOD     C320191  21.102  20.797  14.587  0.1625  0.0778  0.2203
58791DOD     C120192  27.775  12.525  29.479  0.1478 -0.3400 -0.1932
58791DOD     C220193  27.795  12.767  29.071  0.1890 -0.2308 -0.1966
58791DOD     C320194  28.090  12.827  28.682  0.1277 -0.0356 -0.2129
58792DOD     C120195  21.354  15.946   6.958 -0.2780  0.0826 -0.1549
58792DOD     C220196  21.311  15.737   6.503  0.2008  0.1233  0.1462
58792DOD     C320197  21.403  15.559   6.095  0.2749 -0.0090  0.1190
58793DOD     C120198  19.214  28.727  27.280 -0.1447 -0.0672 -0.1626
58793DOD     C220199  18.859  28.643  26.931 -0.1846  0.3397  0.3850
58793DOD     C320200  18.476  28.577  26.699 -0.0211  0.0919  0.3586
58794DOD     C120201  26.956  12.886  24.705  0.1696  0.4902 -0.2806
58794DOD     C220202  27.392  12.992  24.734  0.0337  0.0978 -0.2246
58794DOD     C320203  27.787  13.220  24.879  0.2265  0.2198  0.0997
58795DOD     C120204   9.094  16.742  23.820  0.0932  0.1931  0.2517
58795DOD     C220205   9.454  16.693  24.134  0.0140 -0.4895 -0.0644
58795DOD     C320206   9.624  16.325  24.285  0.1772 -0.0223  0.1821
58796DOD     C120207  17.474   1.162   3.698  0.0008 -0.1617  0.2024
58796DOD     C220208  17.023   0.977   3.685  0.2074  0.4449  0.5538
58796DOD     C320209  16.628   0.829   3.451 -0.0080 -0.2400  0.0542
58797DOD     C120210   2.700   5.857   8.506 -0.0097 -0.0713 -0.1367
58797DOD     C220211   3.188   5.954   8.525 -0.1624 -0.0901  0.1094
58797DOD     C320212   3.531   5.893   8.183  0.1165 -0.1052  0.0310
58798DOD     C120213  22.268  13.152  17.369 -0.2138 -0.1814 -0.1113
58798DOD     C220214  22.211  12.761  17.073 -0.1306 -0.1865  0.0412
58798DOD     C320215  22.387  12.328  17.080 -0.1350  0.2096  0.4238
58799DOD     C120216   8.327  11.386  26.652  0.0285  0.0535 -0.1089
58799DOD     C220217   8.484  11.477  27.100  0.0048  0.0227 -0.0145
58799DOD     C320218   8.634  11.312  27.529 -0.1723 -0.0444  0.0939
58800DOD     C120219   4.198  22.291  25.405 -0.1816  0.0897 -0.3540
58800DOD     C220220   4.062  22.772  25.364 -0.3081  0.0971 -0.0622
58800DOD     C320221   3.807  23.173  25.292 -0.0245 -0.1174 -0.3223
58801DOD     C120222   0.248  29.210   8.200  0.2232  0.0332  0.0885
58801DOD     C220223   0.263  29.398   8.631 -0.0934  0.0304  0.1394
58801DOD     C320224  -0.029  29.712   8.836 -0.0068  0.1208 -0.0599
58802DOD     C120225  12.380  27.632   9.471 -0.2085 -0.1710  0.3346
58802DOD     C220226  12.764  27.637   9.240 -0.1825  0.1841  0.0928
58802DOD     C320227  13.205  27.703   9.150 -0.2443 -0.0195 -0.1334
58803DOD     C120228  27.084   6.558  16.780  0.4367  0.0083  0.2312
58803DOD     C220229  27.476   6.347  16.724 -0.0979  0.1732  0.0772
58803DOD     C320230  27.512   5.904  16.662 -0.1444  0.0736 -0.1596
58804DOD     C120231   7.982  21.737  13.469  0.1811  0.4123 -0.1495
58804DOD     C220232   7.772  21.727  13.839  0.2606 -0.0177  0.2102
58804DOD     C320233   7.592  21.872  14.224 -0.3134 -0.2751 -0.1296
58805DOD     C120234   2.982  20.201   7.183 -0.0905  0.0623 -0.1337
58805DOD     C220235   2.541  20.364   7.271  0.5558 -0.0710  0.2295
58805DOD     C320236   2.287  20.820   7.282 -0.0548  0.1194  0.1345
58806DOD     C120237  10.632   4.841   2.895  0.1715 -0.0403 -0.0535
58806DOD     C220238  10.733   4.573   3.259 -0.0493  0.3039  0.1725
58806DOD     C320239  11.070   4.290   3.316 -0.2527 -0.0430 -0.2153
58807DOD     C120240  26.602  18.482  21.493 -0.2092  0.3410 -0.1274
58807DOD     C220241  26.285  18.186  21.455 -0.1073  0.0785 -0.0278
58807DOD     C320242  26.111  17.803  21.652 -0.1549  0.2366 -0.1305
58808DOD     C120243  22.702   6.431  17.406  0.0801  0.1531  0.0997
58808DOD     C220244  23.081   6.342  17.147 -0.3300 -0.0006 -0.0006
58808DOD     C320245  23.384   6.369  16.783 -0.1332 -0.4273 -0.0181
58809DOD     C120246  12.423  16.791   6.093  0.0666 -0.2817 -0.2278
58809DOD     C220247  12.324  17.207   6.216  0.1038  0.0072  0.0343
58809DOD     C320248  12.433  17.610   6.472 -0.1488 -0.0715 -0.0025
58810DOD     C120249  22.006  13.579  12.323  0.0094  0.1020 -0.3674
58810DOD     C220250  21.866  13.820  11.968 -0.1416  0.2043 -0.1327
58810DOD     C320251  21.893  14.215  11.657 -0.0544 -0.2439  0.1080
58811DOD     C120252  28.946   7.936  24.689  0.1363 -0.0449  0.1589
58811DOD     C220253  28.890   8.340  24.372 -0.0596  0.2100  0.2650
58811DOD     C320254  28.822   8.672  24.113 -0.3867  0.2763 -0.4251
58812DOD     C120255   4.073  23.747  19.953  0.2744 -0.0769 -0.1640
58812DOD     C220256   3.891  23.317  20.115  0.1803 -0.0586  0.1164
58812DOD     C320257   3.835  22.893  19.919 -0.1178 -0.2778  0.0729
58813DOD     C120258  11.306  14.651  22.881  0.2002 -0.0166  0.0021
58813DOD     C220259  11.329  14.211  23.064 -0.2332  0.1406 -0.0219
58813DOD     C320260  11.367  13.895  23.357  0.0337 -0.0324 -0.2046
58814DOD     C120261  28.072  14.949   9.714 -0.2342  0.1604  0.1803
58814DOD     C220262  28.303  14.562   9.822 -0.0234 -0.0453  0.2780
58814DOD     C320263  28.213  14.042   9.924 -0.3399 -0.0019  0.0600
58815DOD     C120264  20.404   7.943   7.785  0.1885  0.4767  0.0444
58815DOD     C220265  20.628   7.878   8.178 -0.0236  0.2150 -0.0107
58815DOD     C320266  20.689   7.735   8.640  0.2368 -0.0310 -0.1534
58816DOD     C120267  17.805  12.961  15.988 -0.0070 -0.2372 -0.1197
58816DOD     C220268  17.988  12.536  16.043 -0.2976 -0.1542 -0.0309
58816DOD     C320269  18.324  12.230  15.964  0.1322 -0.0413 -0.1228
58817DOD     C120270   5.326   0.638   9.498 -0.2183 -0.1704  0.3993
58817DOD     C220271   5.698   0.508   9.327  0.2924 -0.2903  0.2573
58817DOD     C320272   5.904   0.386   8.970  0.2152 -0.0767 -0.0061
58818DOD     C120273  11.225   9.748  25.241 -0.1781 -0.0149  0.0628
58818DOD     C220274  11.349   9.670  25.665 -0.0250 -0.0540 -0.1243
58818DOD     C320275  11.385   9.631  26.106 -0.0023 -0.0621 -0.4136
58819DOD     C120276  11.029   6.698  24.496 -0.1057  0.2791 -0.0486
58819DOD     C220277  11.295   6.706  24.867 -0.2766  0.0291 -0.0615
58819DOD     C320278  11.556   6.312  25.006  0.1347 -0.1756  0.1247
58820DOD     C120279  10.155  29.481  10.355  0.0805 -0.0296  0.1113
58820DOD     C220280  10.596  29.580  10.315 -0.1116  0.1197  0.0961
58820DOD     C320281  10.990  29.310  10.460  0.2996 -0.1355  0.2741
58821DOD     C120282  21.767   2.383   0.711  0.1949 -0.1750 -0.2129
58821DOD     C220283  21.950   2.608   0.337 -0.1643 -0.0321  0.0299
58821DOD     C320284  22.279   2.906   0.238  0.2328 -0.0324  0.1123
58822DOD     C120285   9.583   9.616  25.045 -0.0840 -0.0280 -0.2622
58822DOD     C220286   9.919   9.931  25.169  0.0266 -0.0056  0.0728
58822DOD     C320287  10.330   9.973  25.351 -0.2433  0.0084  0.1336
58823DOD     C120288  18.159  20.229  30.108 -0.1596  0.2124  0.2035
58823DOD     C220289  17.926  20.234  29.702  0.0308  0.0598  0.0454
58823DOD     C320290  17.637  20.396  29.362  0.1090  0.0069 -0.0927
58824DOD     C120291   1.591  11.909  11.655 -0.1175 -0.4738 -0.2959
58824DOD     C220292   1.462  11.747  12.077 -0.0079  0.2918  0.0020
58824DOD     C320293   1.372  11.321  12.196 -0.1617  0.1714  0.1698
58825DOD     C120294  25.687  13.211  26.324  0.1571 -0.0681 -0.2562
58825DOD     C220295  25.864  13.037  26.690 -0.0588  0.0583 -0.0136
58825DOD     C320296  25.854  13.099  27.135  0.2483 -0.2176  0.1287
58826DOD     C120297   9.397   6.402  17.812  0.0809 -0.0093 -0.1730
58826DOD     C220298   9.001   6.191  17.582 -0.0541 -0.3371 -0.0328
58826DOD     C320299   8.573   6.037  17.564  0.3691 -0.1715 -0.2321
58827DOD     C120300  27.072  27.906   8.257 -0.1325  0.2365  0.1507
58827DOD     C220301  27.331  27.492   8.220 -0.1588 -0.3107 -0.4038
58827DOD     C320302  27.403  27.110   8.418 -0.3925 -0.2450  0.3068
58828DOD     C120303  29.252   8.466  29.891 -0.1143 -0.1335  0.0153
58828DOD     C220304  29.330   8.895  29.689  0.5098 -0.0147 -0.0558
58828DOD     C320305  29.422   9.314  29.774 -0.1515 -0.2132  0.0923
58829DOD     C120306  14.255  28.638   6.567 -0.0846  0.0261 -0.2575
58829DOD     C220307  14.544  28.400   6.367  0.1687 -0.0419 -0.4487
58829DOD     C320308  14.866  28.168   6.189  0.2615  0.0464 -0.0754
58830DOD     C120309   7.163   1.928  13.942 -0.2573  0.1575 -0.1416
58830DOD     C220310   7.415   1.560  14.066 -0.1296 -0.0635 -0.0536
58830DOD     C320311   7.723   1.602  14.449 -0.2064  0.0212  0.0677
58831DOD     C120312  19.643   0.639  19.544 -0.1899 -0.1639  0.3405
58831DOD     C220313  19.442   0.214  19.396 -0.2830 -0.2207  0.1910
58831DOD     C320314  19.250  30.120  19.426 -0.0710 -0.2264  0.2677
58832DOD     C120315  15.629  25.542  13.496  0.0686  0.2167  0.2633
58832DOD     C220316  15.829  25.617  13.902 -0.2788  0.1373  0.2373
58832DOD     C320317  15.622  25.964  14.188  0.1233  0.5367  0.2490
58833DOD     C120318   0.814   4.449   9.047  0.0032 -0.1973  0.0562
58833DOD     C220319   0.518   4.762   9.163  0.0350 -0.1884 -0.1872
58833DOD     C320320   0.258   5.111   9.271  0.2817  0.0865 -0.0874
58834DOD     C120321  19.661   2.265  27.786 -0.1535 -0.1847  0.3653
58834DOD     C220322  19.694   2.014  28.206  0.0212  0.1045 -0.0759
58834DOD     C320323  19.910   1.601  28.422 -0.2176 -0.1527 -0.2080
58835DOD     C120324  16.806  15.965   5.560  0.1101 -0.0934  0.1901
58835DOD     C220325  16.524  15.767   5.238 -0.4481 -0.0549  0.0242
58835DOD     C320326  16.270  15.408   5.224 -0.2864  0.1931  0.1573
58836DOD     C120327  29.238   4.079   1.975  0.0864 -0.0476  0.2246
58836DOD     C220328  29.125   4.229   2.437  0.2898 -0.1472 -0.1681
58836DOD     C320329  28.981   4.597   2.685 -0.1468 -0.1517  0.1760
58837DOD     C120330  30.259  14.507   7.843  0.1340  0.0550  0.1237
58837DOD     C220331  -0.001  14.470   7.322 -0.4348 -0.1611 -0.0006
58837DOD     C320332  30.259  14.433   6.852 -0.0364  0.2188  0.1834
58838DOD     C120333  19.472  28.679  25.679 -0.1342  0.0098  0.1060
58838DOD     C220334  19.771  28.334  25.488  0.1111 -0.3512 -0.2452
58838DOD     C320335  20.194  28.232  25.603  0.0656 -0.1509  0.0925
58839DOD     C120336   6.608  19.554  17.069  0.0897 -0.0484  0.1769
58839DOD     C220337   6.395  19.702  16.702  0.3799  0.0954 -0.0054
58839DOD     C320338   6.156  19.761  16.347 -0.2694 -0.0207 -0.3569
58840DOD     C120339  30.153   5.418  16.292 -0.0531  0.0697  0.1475
58840DOD     C220340   0.204   5.326  15.994  0.1883 -0.0970  0.3373
58840DOD     C320341   0.611   5.191  15.804  0.0093  0.1732 -0.1684
58841DOD     C120342  23.454  26.332   9.024  0.0363  0.0723  0.3643
58841DOD     C220343  23.900  26.465   8.963 -0.3456  0.2368  0.0078
58841DOD     C320344  24.323  26.513   8.905  0.1503 -0.1003  0.0694
58842DOD     C120345  20.776  13.283   0.980  0.2020  0.2964  0.0969
58842DOD     C220346  20.486  13.715   0.913  0.2058  0.1511  0.1002
58842DOD     C320347  20.570  14.103   1.105 -0.1161 -0.0267  0.1010
58843DOD     C120348  14.993  12.030  15.806  0.4066 -0.0977  0.2177
58843DOD     C220349  14.565  11.919  15.644 -0.1827  0.0362 -0.0210
58843DOD     C320350  14.317  11.674  15.363 -0.3356 -0.2292 -0.0665
58844DOD     C120351   5.091  23.154  21.078  0.0574  0.0309 -0.2999
58844DOD     C220352   5.443  23.455  20.991  0.1123 -0.1885 -0.0006
58844DOD     C320353   5.917  23.464  20.888 -0.0446  0.1896  0.2421
58845DOD     C120354  18.706  13.847  11.951  0.3967 -0.2315  0.0517
58845DOD     C220355  18.901  13.398  12.048 -0.2217 -0.1186 -0.0240
58845DOD     C320356  19.001  12.951  11.910 -0.0300 -0.3968 -0.2032
58846DOD     C120357  23.796  11.924  11.902  0.0256  0.2697 -0.3257
58846DOD     C220358  24.022  11.783  12.246  0.2432 -0.2803 -0.0825
58846DOD     C320359  24.071  11.907  12.686 -0.0309 -0.0194  0.2102
58847DOD     C120360  20.808  14.632  26.416  0.0957  0.0666 -0.1337
58847DOD     C220361  20.415  14.640  26.120  0.2298 -0.4330 -0.2234
58847DOD     C320362  20.206  14.568  25.680 -0.2702 -0.0099  0.0906
58848DOD     C120363  17.144  14.594  24.458 -0.1474  0.1554 -0.2759
58848DOD     C220364  17.310  14.928  24.147  0.1764 -0.3750 -0.1626
58848DOD     C320365  17.121  15.340  24.103 -0.2548 -0.2356  0.2052
58849DOD     C120366   2.053  14.831  11.848  0.0616  0.3542 -0.1734
58849DOD     C220367   2.262  14.427  11.772  0.0456  0.0817  0.2111
58849DOD     C320368   2.247  13.973  11.754 -0.1445 -0.1458  0.0506
58850DOD     C120369  15.488   2.255   0.155  0.1127 -0.1604  0.0791
58850DOD     C220370  15.305   2.378  30.056  0.0975  0.1119  0.1257
58850DOD     C320371  15.395   2.118  29.693 -0.1753 -0.1783  0.0790
58851DOD     C120372  20.974  29.587  24.436  0.1672 -0.3158  0.0623
58851DOD     C220373  20.796  29.647  24.002  0.0573  0.0275  0.0128
58851DOD     C320374  20.769  29.872  23.623  0.3076 -0.0476  0.2811
58852DOD     C120375  18.746  11.993   7.229  0.0059  0.0860  0.0147
58852DOD     C220376  18.343  11.793   7.253 -0.1751 -0.3204 -0.2981
58852DOD     C320377  18.059  11.936   7.623  0.1465 -0.2207  0.3490
58853DOD     C120378  19.135  27.292  23.843  0.2083  0.0302  0.0697
58853DOD     C220379  19.221  27.756  24.046 -0.1870  0.1571 -0.1023
58853DOD     C320380  19.084  28.194  24.142  0.0482 -0.1845 -0.1459
58854DOD     C120381  23.209  15.667  15.262 -0.2366  0.1288  0.3801
58854DOD     C220382  22.867  15.517  14.931  0.2447 -0.1824  0.3542
58854DOD     C320383  22.485  15.328  14.915  0.0315  0.1635 -0.1348
58855DOD     C120384  27.130  24.084   1.363  0.0090 -0.2432 -0.1217
58855DOD     C220385  27.185  24.451   1.645  0.0937  0.1634 -0.0279
58855DOD     C320386  26.929  24.808   1.807 -0.1615  0.0953 -0.1629
58856DOD     C120387  16.386  18.755  28.036 -0.2383  0.1231  0.0656
58856DOD     C220388  16.599  18.436  28.331  0.0125  0.2439 -0.3773
58856DOD     C320389  16.773  17.997  28.470 -0.1401  0.2360  0.1748
58857DOD     C120390   2.997   7.015   2.624  0.1044 -0.1092  0.2761
58857DOD     C220391   3.476   7.123   2.622 -0.1968 -0.1086  0.1959
58857DOD     C320392   3.905   7.400   2.719  0.2365 -0.2764  0.1843
58858DOD     C120393  23.657   1.946  16.048 -0.1193  0.0231 -0.1507
58858DOD     C220394  23.695   1.533  15.883 -0.0670 -0.2110  0.1580
58858DOD     C320395  23.456   1.122  15.842 -0.2058 -0.2594  0.1698
58859DOD     C120396  18.107  24.592  18.200 -0.1694 -0.0199 -0.0164
58859DOD     C220397  17.728  24.917  18.142 -0.1354  0.1606  0.0772
58859DOD     C320398  17.350  25.107  17.937 -0.3129 -0.0265 -0.0923
58860DOD     C120399   2.950  24.094   1.004 -0.0696  0.4687 -0.3477
58860DOD     C220400   3.028  23.821   1.322 -0.0370 -0.0411  0.1212
58860DOD     C320401   2.759  23.623   1.672  0.2142  0.3029  0.0474
58861DOD     C120402   6.044  11.639  23.582 -0.1420  0.0834  0.1633
58861DOD     C220403   6.309  12.007  23.509  0.1745  0.1204 -0.2084
58861DOD     C320404   6.724  12.205  23.381 -0.2370 -0.1723  0.2135
58862DOD     C120405   2.011  12.493  21.877 -0.0359  0.0258  0.3555
58862DOD     C220406   2.183  12.184  21.527  0.0441  0.2028 -0.1050
58862DOD     C320407   2.293  11.909  21.204  0.1509 -0.1639 -0.3584
58863DOD     C120408   2.540  14.959  28.331 -0.1104  0.1358 -0.0958
58863DOD     C220409   2.904  15.196  28.062  0.2465  0.2017 -0.0951
58863DOD     C320410   3.257  15.262  27.764 -0.1232  0.2043 -0.1772
58864DOD     C120411   6.747  20.862  29.196 -0.0803 -0.6623 -0.0941
58864DOD     C220412   6.738  20.688  28.799  0.1941  0.1053  0.2700
58864DOD     C320413   7.112  20.653  28.525  0.1962  0.1656 -0.1482
58865DOD     C120414   3.436   1.169   3.882 -0.0754 -0.2307  0.2470
58865DOD     C220415   3.645   1.605   3.844 -0.2893  0.1260  0.1711
58865DOD     C320416   3.708   2.087   3.891 -0.0884  0.1196  0.1682
58866DOD     C120417  12.850  20.324  14.823  0.0208 -0.1444 -0.1898
58866DOD     C220418  12.931  20.782  14.629 -0.1639  0.0836  0.2265
58866DOD     C320419  12.961  21.226  14.523 -0.1601 -0.1587 -0.0761
58867DOD     C120420  24.206  25.229  29.383 -0.0031 -0.1876 -0.1707
58867DOD     C220421  24.391  25.273  29.024 -0.1324  0.1523 -0.4584
58867DOD     C320422  24.750  25.468  28.767  0.1863  0.0943 -0.0192
58868DOD     C120423   4.385  13.823  12.413 -0.0816 -0.3132 -0.2338
58868DOD     C220424   4.312  14.190  12.204 -0.0577 -0.0094 -0.4263
58868DOD     C320425   4.566  14.564  12.189  0.2751 -0.1891 -0.0727
58869DOD     C120426  28.362   5.603  11.456 -0.0975  0.0173  0.2993
58869DOD     C220427  28.595   5.954  11.228  0.1039 -0.1906  0.0728
58869DOD     C320428  28.497   6.161  10.860 -0.1930 -0.0597 -0.3474
58870DOD     C120429  29.119  17.183   4.907 -0.3813  0.0547 -0.2942
58870DOD     C220430  28.777  17.025   5.139  0.1465  0.0075 -0.0064
58870DOD     C320431  28.299  16.968   5.204 -0.0216 -0.1510  0.2440
58871DOD     C120432  26.977  12.968  21.965 -0.0402 -0.2442  0.0444
58871DOD     C220433  26.539  12.974  22.124 -0.1663  0.1477  0.0881
58871DOD     C320434  26.397  12.870  22.540  0.0039  0.0384  0.0038
58872DOD     C120435  20.988  24.658   8.930  0.0527  0.0858  0.0250
58872DOD     C220436  20.645  24.384   8.750 -0.0940 -0.2741  0.0280
58872DOD     C320437  20.177  24.259   8.755 -0.2817  0.0427 -0.2098
58873DOD     C120438  26.982  19.412   3.652 -0.0918 -0.2747  0.0868
58873DOD     C220439  27.450  19.363   3.790 -0.0919  0.1804  0.0564
58873DOD     C320440  27.841  19.233   3.606  0.1968  0.2000 -0.0466
58874DOD     C120441  30.167  13.611  11.961  0.0998 -0.0095  0.3103
58874DOD     C220442  29.977  14.072  11.882 -0.2707 -0.3660  0.1641
58874DOD     C320443  29.939  14.449  12.192  0.1189  0.0293  0.0865
58875DOD     C120444   9.503  17.918  21.473 -0.2046  0.0072  0.0407
58875DOD     C220445   9.813  18.025  21.119  0.2212  0.0510 -0.0086
58875DOD     C320446   9.875  18.139  20.684 -0.1648 -0.0684  0.0149
58876DOD     C120447   0.285  23.034  22.664  0.3581 -0.0259 -0.1077
58876DOD     C220448   0.342  22.652  22.877 -0.0718 -0.2506  0.0090
58876DOD     C320449   0.255  22.250  23.040 -0.1018 -0.2320  0.1413
58877DOD     C120450  27.529  11.704   5.044 -0.1506 -0.0248  0.0278
58877DOD     C220451  27.345  11.753   4.589  0.1268 -0.0576 -0.2188
58877DOD     C320452  27.115  11.639   4.194  0.2103  0.1073  0.2161
58878DOD     C120453  28.841   9.800  12.661  0.1369  0.0681 -0.0746
58878DOD     C220454  29.223   9.750  12.897 -0.3731 -0.2258  0.0770
58878DOD     C320455  29.653   9.730  13.052 -0.0100 -0.1127  0.0226
58879DOD     C120456  24.538  10.248   9.791 -0.0381  0.2647 -0.2077
58879DOD     C220457  24.567   9.955  10.111  0.1411  0.0650  0.3707
58879DOD     C320458  24.807   9.738  10.377  0.2031  0.3254 -0.1979
58880DOD     C120459  30.048  25.473  17.911 -0.0332 -0.0724 -0.0543
58880DOD     C220460  30.117  25.784  17.556  0.2042  0.0834 -0.2298
58880DOD     C320461  29.734  26.005  17.339 -0.2409 -0.1169  0.0412
58881DOD     C120462  20.253  26.621   8.321 -0.2448 -0.1811 -0.1508
58881DOD     C220463  20.095  26.997   8.539  0.0195  0.1866 -0.1477
58881DOD     C320464  19.958  27.376   8.393  0.0810 -0.0172 -0.0244
58882DOD     C120465   9.190   6.346   7.717 -0.0964 -0.0256 -0.2280
58882DOD     C220466   9.509   6.109   7.405  0.0749  0.0876  0.3721
58882DOD     C320467   9.776   5.799   7.159 -0.0481 -0.0416  0.0336
58883DOD     C120468  29.065  10.779  24.259 -0.0602 -0.1814 -0.1223
58883DOD     C220469  29.209  11.216  24.358  0.0404 -0.2577  0.3388
58883DOD     C320470  29.478  11.573  24.081  0.0672  0.1120 -0.2432
58884DOD     C120471  12.739   4.544  28.958  0.0552 -0.1234  0.1128
58884DOD     C220472  12.868   4.213  29.215 -0.0304  0.0118 -0.3555
58884DOD     C320473  12.968   4.114  29.673 -0.0480  0.1632  0.0867
58885DOD     C120474  23.820  27.163  20.748  0.4414  0.1699 -0.0425
58885DOD     C220475  23.534  27.169  20.396  0.1606 -0.0493 -0.1401
58885DOD     C320476  23.525  27.210  19.930  0.4797  0.3452 -0.1573
58886DOD     C120477   2.477   6.567   2.420 -0.2458 -0.1955  0.0569
58886DOD     C220478   2.930   6.545   2.473 -0.0785  0.3061  0.0644
58886DOD     C320479   3.371   6.661   2.663  0.0588  0.0677  0.0183
58887DOD     C120480  10.232   7.939   6.561  0.3139 -0.1289  0.0074
58887DOD     C220481  10.664   7.989   6.773 -0.2286  0.2680 -0.1426
58887DOD     C320482  11.045   8.001   6.539  0.1729  0.1665 -0.2195
58888DOD     C120483  16.638  30.168   2.396  0.0598 -0.2237 -0.2060
58888DOD     C220484  16.597  29.691   2.322 -0.2561 -0.0126  0.1216
58888DOD     C320485  16.519  29.256   2.219 -0.4147 -0.0055 -0.1479
58889DOD     C120486   3.090   5.482   8.675  0.2380 -0.5086  0.2783
58889DOD     C220487   3.454   5.441   8.314  0.0591  0.1000  0.0833
58889DOD     C320488   3.469   5.448   7.846 -0.0630 -0.1010  0.1394
58890DOD     C120489  24.828  30.170  13.401  0.1973  0.1621  0.1503
58890DOD     C220490  24.693  29.906  13.752  0.0217 -0.1835  0.0361
58890DOD     C320491  24.493  29.839  14.165 -0.1065  0.3413  0.3756
58891DOD     C120492  20.961  25.128   3.821 -0.0571 -0.2653 -0.1716
58891DOD     C220493  21.307  25.422   3.730  0.1283  0.0877 -0.0139
58891DOD     C320494  21.380  25.898   3.703 -0.3857  0.1945  0.1433
58892DOD     C120495  18.736   1.533   2.111  0.1026 -0.1317  0.1242
58892DOD     C220496  18.584   1.541   1.686 -0.0999 -0.3110 -0.0069
58892DOD     C320497  18.472   1.570   1.235  0.0086 -0.1767 -0.0981
58893DOD     C120498  16.410  27.028   0.102  0.1556  0.0623  0.1686
58893DOD     C220499  16.784  27.274  -0.004 -0.0541  0.2746 -0.0429
58893DOD     C320500  17.105  27.293  29.991 -0.1459 -0.1391 -0.1778
58894DOD     C120501  11.953  10.862   2.586 -0.1492  0.1171 -0.0370
58894DOD     C220502  12.369  10.797   2.431 -0.3284  0.0466  0.2861
58894DOD     C320503  12.659  10.690   2.055 -0.1745 -0.1067  0.0276
58895DOD     C120504  11.683  21.032   8.710 -0.2931 -0.3564  0.0912
58895DOD     C220505  11.290  20.856   8.597  0.1883  0.1695  0.1282
58895DOD     C320506  11.025  20.565   8.402  0.0523 -0.2236 -0.1021
58896DOD     C120507   2.159  28.598  15.244  0.0827 -0.0662  0.2854
58896DOD     C220508   2.010  28.448  14.812 -0.3052  0.3282  0.0499
58896DOD     C320509   2.023  28.460  14.322 -0.0219  0.0075 -0.2109
58897DOD     C120510   7.199  23.832   3.870 -0.0128 -0.0048  0.2622
58897DOD     C220511   7.086  23.509   4.199  0.0365 -0.1344  0.1721
58897DOD     C320512   6.677  23.299   4.197  0.0692  0.0782  0.0190
58898DOD     C120513   2.645  22.565  22.092 -0.4889 -0.1151  0.3614
58898DOD     C220514   3.037  22.497  22.374 -0.3751 -0.2354  0.0898
58898DOD     C320515   3.271  22.402  22.777  0.3736 -0.0229  0.4503
58899DOD     C120516  25.911   7.970  23.011 -0.0316 -0.2208  0.0953
58899DOD     C220517  25.514   7.863  23.121  0.0558 -0.2438 -0.2472
58899DOD     C320518  25.101   7.685  23.068  0.2377  0.0431  0.0553
58900DOD     C120519  18.397  24.901  14.549  0.1793  0.0944  0.0033
58900DOD     C220520  18.092  24.972  14.217  0.0596 -0.3879  0.2434
58900DOD     C320521  17.842  25.255  13.934  0.4218  0.0535  0.0511
58901DOD     C120522  15.305   0.530  20.328 -0.3513  0.0354  0.1270
58901DOD     C220523  15.634   0.239  20.406 -0.0709 -0.1105  0.0766
58901DOD     C320524  15.982  -0.026  20.572 -0.0643 -0.0822  0.0459
58902DOD     C120525   8.885  23.177  17.895  0.1187  0.0154  0.2252
58902DOD     C220526   8.929  23.272  18.341 -0.3623  0.0714 -0.2486
58902DOD     C320527   9.279  23.487  18.660 -0.1093 -0.0785 -0.2702
58903DOD     C120528  24.446   0.614  26.517  0.2293 -0.3994 -0.0703
58903DOD     C220529  24.454   0.341  26.157  0.1506 -0.0252  0.0679
58903DOD     C320530  24.488  30.310  25.772 -0.1760  0.0573 -0.1418
58904DOD     C120531  22.412   9.360   9.402  0.1861 -0.2541 -0.1710
58904DOD     C220532  22.517   9.805   9.457 -0.3103  0.1577  0.1107
58904DOD     C320533  22.701  10.111   9.223 -0.0228  0.0389  0.2209
58905DOD     C120534  10.226  27.420   0.868  0.0683  0.0339 -0.2744
58905DOD     C220535  10.508  27.404   0.462  0.2222 -0.1087 -0.0176
58905DOD     C320536  10.766  27.077   0.384  0.2611  0.2349 -0.1376
58906DOD     C120537   8.343   8.857  15.816  0.2052  0.2850  0.0402
58906DOD     C220538   8.248   8.615  16.215  0.1221  0.1336  0.1157
58906DOD     C320539   8.050   8.224  16.379  0.3524 -0.2697  0.2252
58907DOD     C120540  25.019  17.696  25.902 -0.1382  0.0499  0.2391
58907DOD     C220541  25.189  17.868  25.485  0.4287 -0.2086 -0.1811
58907DOD     C320542  25.342  17.847  25.076 -0.1872 -0.1521  0.1120
58908DOD     C120543  10.313  29.951  18.221 -0.2151 -0.1248  0.3589
58908DOD     C220544  10.397  29.474  18.199 -0.0386  0.1584  0.0164
58908DOD     C320545  10.264  29.037  18.376  0.2184  0.0496  0.3703
58909DOD     C120546   1.904  26.817   0.777 -0.0242  0.4584  0.1414
58909DOD     C220547   2.029  26.623   1.163 -0.1119 -0.1643  0.0178
58909DOD     C320548   2.324  26.616   1.509 -0.1044 -0.4320 -0.0779
58910DOD     C120549  17.570   2.109  26.929  0.0596 -0.0192 -0.2303
58910DOD     C220550  17.430   1.862  26.578  0.1273  0.0303 -0.1661
58910DOD     C320551  17.612   1.531  26.346  0.2577 -0.1629 -0.0636
58911DOD     C120552  25.558  26.208   5.994  0.1925 -0.0105  0.0258
58911DOD     C220553  25.125  26.318   6.004  0.1842 -0.0473  0.0158
58911DOD     C320554  24.754  26.064   6.106 -0.3504  0.2526  0.2388
58912DOD     C120555  22.771  27.032   3.951 -0.1067  0.0417  0.0877
58912DOD     C220556  22.956  27.389   3.841  0.2344  0.0526 -0.2292
58912DOD     C320557  22.971  27.820   3.706 -0.2201 -0.1799 -0.0551
58913DOD     C120558  10.276  29.017  21.589  0.1163 -0.2936  0.1463
58913DOD     C220559  10.392  28.794  21.927  0.0858  0.2680 -0.0964
58913DOD     C320560  10.620  28.406  22.147  0.0902  0.0530 -0.1180
58914DOD     C120561  28.590  10.898  16.619 -0.0976 -0.1346 -0.0391
58914DOD     C220562  28.164  10.920  16.492  0.0513  0.0117  0.0361
58914DOD     C320563  27.766  11.085  16.683  0.1989  0.3477 -0.2217
58915DOD     C120564  27.951   5.183   1.038 -0.3296 -0.0705 -0.1894
58915DOD     C220565  28.166   5.521   1.341 -0.2860  0.0937 -0.3375
58915DOD     C320566  27.898   5.919   1.397 -0.3404  0.1388 -0.0848
58916DOD     C120567  25.429  23.858   1.917  0.1293  0.0307  0.3581
58916DOD     C220568  25.143  24.145   1.745 -0.0715  0.0274  0.0250
58916DOD     C320569  25.022  24.576   1.727 -0.1037  0.1867  0.1339
58917DOD     C120570  13.907   9.979  16.452 -0.2330  0.0109  0.1043
58917DOD     C220571  13.592  10.301  16.662 -0.3818  0.5181  0.0992
58917DOD     C320572  13.782  10.356  17.113  0.1636 -0.1184  0.1362
58918DOD     C120573   6.031  15.131  28.001  0.0614 -0.1611 -0.2197
58918DOD     C220574   6.284  15.193  27.559  0.1097  0.1617  0.4306
58918DOD     C320575   6.407  15.274  27.098  0.1010  0.0905  0.1139
58919DOD     C120576  12.177  15.313  11.084 -0.3980  0.0085 -0.4709
58919DOD     C220577  12.257  14.831  11.190  0.2040  0.0885  0.0916
58919DOD     C320578  11.837  14.709  11.215  0.1494  0.0366  0.0819
58920DOD     C120579  24.312  14.782   1.064 -0.1873  0.3472 -0.2431
58920DOD     C220580  23.986  14.611   1.378  0.0604 -0.0924 -0.0376
58920DOD     C320581  23.784  14.181   1.432 -0.3671  0.0544 -0.2520
58921DOD     C120582  15.121  11.485   1.074 -0.0488  0.2013 -0.1918
58921DOD     C220583  14.875  11.840   0.898 -0.3607  0.0049 -0.2897
58921DOD     C320584  14.551  12.063   0.629 -0.1579 -0.0651 -0.1641
58922DOD     C120585  18.462  22.491  28.806  0.0582 -0.0489  0.0118
58922DOD     C220586  18.411  22.257  28.441  0.2804  0.0136  0.1744
58922DOD     C320587  18.488  21.803  28.311 -0.1605 -0.0782  0.1905
58923DOD     C120588  16.372   4.903  14.281 -0.3301 -0.3607 -0.0462
58923DOD     C220589  16.216   4.651  13.921  0.0814 -0.4798 -0.0836
58923DOD     C320590  16.038   4.255  13.761  0.2687 -0.1098 -0.0212
58924DOD     C120591  24.842  13.482  17.059  0.3607  0.1101 -0.2396
58924DOD     C220592  25.050  13.116  17.356 -0.2197  0.0603  0.2820
58924DOD     C320593  25.378  13.016  17.650 -0.0733  0.0819 -0.0905
58925DOD     C120594  22.774  24.472   5.532 -0.1229  0.2173  0.1518
58925DOD     C220595  22.783  24.113   5.785 -0.0612  0.1550 -0.1648
58925DOD     C320596  23.035  23.704   5.848 -0.3312 -0.2464 -0.0655
58926DOD     C120597  16.623   6.351  11.907 -0.2485 -0.2271 -0.2359
58926DOD     C220598  16.940   5.990  11.961  0.2381  0.2540  0.1102
58926DOD     C320599  16.960   5.561  12.197  0.0595 -0.1299  0.0532
58927DOD     C120600   1.363   4.618   2.105 -0.1284 -0.0861 -0.0382
58927DOD     C220601   1.057   4.930   1.963  0.0102  0.0171  0.0268
58927DOD     C320602   0.864   5.138   2.338  0.4876 -0.0738 -0.5197
58928DOD     C120603  25.361   5.295  20.574 -0.0972  0.0777  0.0882
58928DOD     C220604  25.840   5.261  20.490  0.1851  0.0290 -0.1111
58928DOD     C320605  26.223   5.155  20.728 -0.2797  0.2200  0.1566
58929DOD     C120606  21.626  27.060  14.808  0.1196  0.0378 -0.1033
58929DOD     C220607  21.615  26.923  14.354  0.0512  0.0500  0.1867
58929DOD     C320608  21.660  26.766  13.897  0.0687  0.0141 -0.1838
58930DOD     C120609  15.583   9.120  16.784 -0.0099 -0.5084  0.0118
58930DOD     C220610  15.421   9.572  16.712  0.1254  0.0230 -0.2250
58930DOD     C320611  15.205   9.984  16.583  0.1203  0.3606  0.0621
58931DOD     C120612  26.352  24.059  18.639 -0.0904 -0.3346  0.0515
58931DOD     C220613  26.542  24.230  18.998 -0.0797  0.1921 -0.0697
58931DOD     C320614  26.562  24.672  19.075 -0.2202 -0.0053 -0.1507
58932DOD     C120615   5.796  17.079  15.669  0.5752  0.2265 -0.1720
58932DOD     C220616   5.790  16.839  15.303 -0.0498 -0.0648 -0.1292
58932DOD     C320617   5.758  16.562  14.960  0.0131  0.0161  0.0166
58933DOD     C120618  26.278  22.498  29.537  0.2648 -0.2427  0.4632
58933DOD     C220619  26.542  22.580  29.164 -0.1022  0.0922  0.1131
58933DOD     C320620  27.001  22.477  29.016  0.0359  0.0684 -0.0750
58934DOD     C120621  30.041   6.554  18.349 -0.2417  0.2787  0.0216
58934DOD     C220622   0.205   6.670  18.368 -0.1960 -0.1994 -0.0692
58934DOD     C320623   0.567   6.475  18.146  0.1547 -0.0324 -0.0630
58935DOD     C120624  24.614  30.211  20.301  0.2299  0.3640 -0.0722
58935DOD     C220625  24.274  30.180  19.991 -0.1143 -0.0035  0.1402
58935DOD     C320626  24.005  30.281  19.602  0.1914  0.1471 -0.2131
58936DOD     C120627  10.102   6.924   8.086  0.4038 -0.2673  0.1095
58936DOD     C220628   9.686   7.105   8.212  0.0862  0.0394 -0.2076
58936DOD     C320629   9.540   7.522   8.448  0.0029  0.0368  0.0923
58937DOD     C120630  17.285  21.167  10.490 -0.0435 -0.0957 -0.2157
58937DOD     C220631  17.229  21.362  10.112 -0.2356  0.2711  0.0074
58937DOD     C320632  17.099  21.779   9.860  0.1708 -0.3572  0.1780
58938DOD     C120633  22.571  10.442  22.515  0.4481 -0.1599  0.1013
58938DOD     C220634  22.779  10.155  22.789 -0.0091  0.1592  0.1755
58938DOD     C320635  22.992  10.044  23.163  0.4163  0.0738 -0.2524
58939DOD     C120636  23.152   3.226   3.595 -0.1734 -0.1085  0.0868
58939DOD     C220637  23.194   3.510   3.986  0.1686  0.1601 -0.1016
58939DOD     C320638  23.164   3.944   4.228 -0.0043  0.2045 -0.1723
58940DOD     C120639  28.729  26.501  21.492 -0.1328 -0.5333  0.1769
58940DOD     C220640  28.317  26.611  21.213 -0.2165  0.1449 -0.1960
58940DOD     C320641  27.931  26.754  21.006  0.1062 -0.0383  0.1627
58941DOD     C120642  23.438  16.062   0.715 -0.0830 -0.1319  0.2289
58941DOD     C220643  23.038  15.864   0.599  0.0837  0.0605 -0.2074
58941DOD     C320644  22.726  15.548   0.492 -0.0273 -0.2304 -0.0857
58942DOD     C120645   6.216  27.809   0.620  0.0611  0.1748 -0.0918
58942DOD     C220646   6.560  28.077   0.488  0.3233 -0.0713 -0.1542
58942DOD     C320647   6.867  28.400   0.466  0.2285 -0.1426 -0.0361
58943DOD     C120648  17.676  11.485  25.376  0.0878  0.1557  0.0999
58943DOD     C220649  17.488  11.238  25.713  0.1684 -0.2493  0.0078
58943DOD     C320650  17.167  10.986  25.980  0.1019  0.3133 -0.0084
58944DOD     C120651   0.274  28.279   2.513 -0.2436  0.1659 -0.3651
58944DOD     C220652   0.673  28.047   2.705  0.0493  0.0126  0.0190
58944DOD     C320653   0.933  27.609   2.724  0.0043 -0.0395 -0.3867
58945DOD     C120654   8.909  11.654  18.199  0.0893  0.0380  0.0290
58945DOD     C220655   8.703  11.282  17.983  0.1770 -0.2702 -0.0016
58945DOD     C320656   8.564  11.199  17.541 -0.1684 -0.0680  0.0600
58946DOD     C120657  27.213  24.542  23.246  0.1568  0.1506  0.2175
58946DOD     C220658  27.230  24.830  23.629  0.2316  0.2877 -0.3574
58946DOD     C320659  27.028  25.213  23.635 -0.0453  0.0022 -0.0512
58947DOD     C120660  23.567   7.932  30.061  0.1708 -0.2191 -0.0111
58947DOD     C220661  23.368   8.344  30.021  0.2603  0.0292  0.0391
58947DOD     C320662  23.052   8.580  30.313 -0.1541 -0.0104  0.1647
58948DOD     C120663  27.147   8.357   2.859 -0.2795  0.0172  0.3686
58948DOD     C220664  27.034   8.109   3.183  0.2420 -0.0774 -0.1940
58948DOD     C320665  26.629   7.907   3.441 -0.1877  0.0367  0.2775
58949DOD     C120666  20.120  14.783   1.618 -0.0912  0.0865  0.1835
58949DOD     C220667  20.016  14.873   1.198 -0.0902  0.0183 -0.2257
58949DOD     C320668  19.672  15.139   0.989 -0.0231  0.0071 -0.0350
58950DOD     C120669  18.326   1.208   5.178 -0.1157 -0.1738  0.2698
58950DOD     C220670  18.458   1.003   5.636 -0.1883  0.0087 -0.1145
58950DOD     C320671  18.242   0.915   6.032  0.2597  0.2767  0.0043
58951DOD     C120672  19.295  11.270  11.614  0.1483 -0.3437 -0.0228
58951DOD     C220673  19.359  11.037  11.225 -0.5415  0.1822 -0.0930
58951DOD     C320674  19.646  11.024  10.800 -0.3301  0.4565  0.2355
58952DOD     C120675  10.119  19.380   5.204  0.0946  0.1199 -0.3867
58952DOD     C220676  10.092  18.944   5.420 -0.0677 -0.0882  0.2026
58952DOD     C320677   9.877  18.881   5.786 -0.2829 -0.2525 -0.1951
58953DOD     C120678  22.291  24.089  20.709 -0.3005 -0.2918  0.0182
58953DOD     C220679  22.368  23.699  21.021  0.1243  0.0892  0.1715
58953DOD     C320680  22.318  23.375  21.309  0.0245 -0.0023 -0.1037
58954DOD     C120681  15.987  27.344  23.416  0.0097 -0.1668 -0.0107
58954DOD     C220682  16.271  27.156  23.150  0.0239 -0.0030 -0.0381
58954DOD     C320683  16.564  27.003  22.844 -0.2316 -0.0505  0.0403
58955DOD     C120684  18.685  17.199   9.421  0.0285  0.1942  0.0122
58955DOD     C220685  18.581  17.449   9.752  0.0652  0.0074 -0.1693
58955DOD     C320686  18.517  17.549  10.183  0.1218 -0.2253 -0.0798
58956DOD     C120687  23.282   1.168  25.231  0.0106  0.0638  0.1555
58956DOD     C220688  23.606   1.429  24.998 -0.0373  0.0383  0.2069
58956DOD     C320689  23.835   1.858  24.937 -0.1149 -0.1980 -0.2782
58957DOD     C120690  11.799  17.180   8.909 -0.2374 -0.3995  0.2267
58957DOD     C220691  12.091  17.547   8.989  0.0464 -0.1329  0.2113
58957DOD     C320692  12.389  17.757   9.326  0.2451 -0.1890  0.1717
58958DOD     C120693   8.448   6.368  22.281 -0.2419 -0.3952  0.0254
58958DOD     C220694   8.828   6.425  22.047  0.0553 -0.0154 -0.0754
58958DOD     C320695   9.254   6.367  21.901 -0.1036  0.0422  0.0550
58959DOD     C120696   4.010   7.188  15.166 -0.3112  0.1574 -0.0020
58959DOD     C220697   3.953   7.315  14.683 -0.0157 -0.4067 -0.3136
58959DOD     C320698   3.941   7.735  14.503  0.1953 -0.0615 -0.0797
58960DOD     C120699   8.892   8.256   0.117  0.1195  0.2558 -0.0115
58960DOD     C220700   9.149   8.630   0.286  0.2488  0.4442  0.0255
58960DOD     C320701   9.142   9.020   0.242  0.2812  0.0143  0.0683
58961DOD     C120702   1.210  25.658  16.456 -0.0000  0.1209 -0.0503
58961DOD     C220703   1.620  25.533  16.687  0.1189 -0.1260 -0.2205
58961DOD     C320704   1.995  25.241  16.634  0.2089 -0.1482 -0.1438
58962DOD     C120705  24.648  18.036   1.328 -0.1002  0.1727  0.0364
58962DOD     C220706  24.304  18.235   1.058  0.1371  0.3179 -0.0295
58962DOD     C320707  24.014  18.561   1.107 -0.1923 -0.1696 -0.1815
58963DOD     C120708   2.623  15.816  12.924  0.0299 -0.2207 -0.0725
58963DOD     C220709   3.061  15.776  13.051  0.1367 -0.0245  0.1276
58963DOD     C320710   3.074  15.670  13.487  0.0214 -0.0722  0.1278
58964DOD     C120711   7.316  11.305  14.448 -0.4789  0.1503 -0.0691
58964DOD     C220712   7.173  11.379  14.020 -0.1935  0.1064 -0.0586
58964DOD     C320713   7.343  11.807  13.941 -0.4018  0.0786  0.3888
58965DOD     C120714  20.718  19.147  18.702 -0.0239 -0.1630 -0.1365
58965DOD     C220715  20.401  19.442  18.446 -0.0550 -0.0015  0.1904
58965DOD     C320716  19.959  19.395  18.359 -0.1293 -0.1384  0.0564
58966DOD     C120717  13.456   8.187  11.834 -0.0163 -0.1234 -0.0566
58966DOD     C220718  13.633   8.170  12.307  0.1240 -0.0121  0.2707
58966DOD     C320719  13.778   8.177  12.748 -0.0639 -0.2925  0.3008
58967DOD     C120720   7.340  20.232  20.003  0.2963 -0.3676  0.0992
58967DOD     C220721   7.430  20.621  20.267  0.0605  0.1098 -0.1317
58967DOD     C320722   7.717  20.989  20.358 -0.0062  0.1186 -0.0122
58968DOD     C120723   4.780  24.482  25.124  0.1885 -0.0516  0.0989
58968DOD     C220724   5.127  24.524  25.461 -0.1204 -0.0336  0.4834
58968DOD     C320725   5.112  24.678  25.882 -0.4370 -0.1576  0.1004
58969DOD     C120726   5.292  18.665  12.337 -0.0508  0.3502  0.1706
58969DOD     C220727   4.969  18.696  12.662 -0.1766 -0.0910  0.1829
58969DOD     C320728   4.668  18.714  13.036  0.0638  0.3541 -0.2991
58970DOD     C120729   4.229  15.891  27.264  0.0730  0.0131 -0.3695
58970DOD     C220730   4.680  15.857  27.129 -0.0460  0.3525  0.1422
58970DOD     C320731   5.088  15.663  27.165 -0.1980 -0.0838  0.1606
58971DOD     C120732   7.968   5.855  14.578 -0.3847  0.0319 -0.2186
58971DOD     C220733   7.748   5.636  14.176 -0.3419 -0.0305 -0.0048
58971DOD     C320734   7.279   5.664  14.104  0.2722 -0.2780  0.1653
58972DOD     C120735  24.632  26.732  24.651 -0.0355 -0.0509 -0.0454
58972DOD     C220736  24.469  26.479  24.986 -0.1057 -0.1290  0.0824
58972DOD     C320737  24.167  26.563  25.343  0.0310 -0.0188  0.1257
58973DOD     C120738   3.304   4.664  21.008 -0.0094 -0.1310  0.0610
58973DOD     C220739   3.374   4.757  21.482 -0.0811 -0.0971  0.5542
58973DOD     C320740   3.750   4.683  21.719 -0.2234 -0.0234 -0.0494
58974DOD     C120741   3.487  29.503  24.230 -0.1848 -0.1398  0.2550
58974DOD     C220742   3.147  29.558  24.529  0.1223  0.1783 -0.0085
58974DOD     C320743   2.823  29.474  24.893 -0.2360 -0.3507  0.1355
58975DOD     C120744   3.957  16.673  21.819 -0.2406  0.1752 -0.3588
58975DOD     C220745   3.644  16.707  22.132  0.0214 -0.0125 -0.0551
58975DOD     C320746   3.337  16.821  22.505 -0.2282  0.0994 -0.1453
58976DOD     C120747   6.015   5.937  25.638  0.0294 -0.1317 -0.3557
58976DOD     C220748   6.035   6.353  25.826  0.0973  0.0396  0.2296
58976DOD     C320749   5.961   6.765  25.998 -0.1829  0.1530  0.0887
58977DOD     C120750  17.986   1.874  14.010  0.1422 -0.2489  0.2178
58977DOD     C220751  18.039   2.143  14.387 -0.0575 -0.2952 -0.0452
58977DOD     C320752  18.200   2.574  14.534  0.2207  0.0943  0.3365
58978DOD     C120753  12.717  22.637  25.964 -0.3052  0.2337  0.1081
58978DOD     C220754  12.517  22.285  25.724 -0.0093  0.0525  0.0790
58978DOD     C320755  12.527  22.139  25.260 -0.2332 -0.3547 -0.1618
58979DOD     C120756  17.344  18.790  27.633 -0.1222  0.3221  0.0370
58979DOD     C220757  16.970  19.005  27.447 -0.0180 -0.1065  0.0068
58979DOD     C320758  16.570  18.927  27.184 -0.1726 -0.1126  0.2181
58980DOD     C120759  15.921  20.059   9.339 -0.1885  0.0658 -0.3367
58980DOD     C220760  16.020  19.891   8.959 -0.1299 -0.0041 -0.0657
58980DOD     C320761  16.461  19.894   8.826 -0.0870  0.0789 -0.3484
58981DOD     C120762  27.163  24.623  21.815  0.3969  0.0928  0.4821
58981DOD     C220763  27.008  24.285  22.111  0.0505 -0.0388  0.1330
58981DOD     C320764  27.130  23.904  22.410 -0.3354 -0.2089  0.0443
58982DOD     C120765  10.700  27.618  12.393  0.1190  0.1925 -0.0139
58982DOD     C220766  10.620  28.097  12.459 -0.1098  0.1359  0.1933
58982DOD     C320767  10.312  28.280  12.731 -0.1582  0.0425 -0.0663
58983DOD     C120768   1.263  27.023  28.776  0.2585 -0.2727 -0.0750
58983DOD     C220769   1.085  26.606  28.693  0.4265  0.4472  0.0191
58983DOD     C320770   0.771  26.358  28.510  0.0432  0.3661 -0.1638
58984DOD     C120771  29.861  21.507   2.249 -0.0841 -0.0083  0.1014
58984DOD     C220772  29.812  21.866   2.585 -0.1370  0.3059  0.3332
58984DOD     C320773  29.817  22.071   3.047 -0.0485 -0.0939  0.1870
58985DOD     C120774  11.079  26.314   5.084 -0.0853  0.1801 -0.4532
58985DOD     C220775  11.437  26.198   4.861 -0.0386  0.2087  0.2009
58985DOD     C320776  11.714  26.145   4.526 -0.2383  0.3418 -0.0841
58986DOD     C120777  20.004  29.397  26.409  0.0709  0.0890 -0.2352
58986DOD     C220778  20.120  28.982  26.440 -0.1607  0.1576 -0.0156
58986DOD     C320779  20.366  28.558  26.339  0.0440  0.0637  0.2290
58987DOD     C120780  16.620  10.923   0.192  0.2927 -0.4111 -0.1781
58987DOD     C220781  16.340  10.786   0.583 -0.0822 -0.0034 -0.1658
58987DOD     C320782  16.217  10.442   0.856  0.3266  0.2615 -0.2378
58988DOD     C120783  19.077  24.748  27.583  0.1507  0.0100 -0.2449
58988DOD     C220784  18.893  24.676  27.091 -0.1475  0.1698 -0.0830
58988DOD     C320785  18.948  24.612  26.691 -0.0309 -0.4639 -0.1794
58989DOD     C120786   1.015  22.659  16.221  0.0541 -0.2242  0.0990
58989DOD     C220787   1.173  22.689  16.625  0.2328 -0.4407  0.0022
58989DOD     C320788   1.404  23.031  16.898 -0.1414  0.3053  0.1063
58990DOD     C120789   6.764  28.768  12.198  0.2575  0.0574 -0.2332
58990DOD     C220790   6.607  29.179  12.091  0.2198 -0.0095 -0.0055
58990DOD     C320791   6.445  29.552  12.320  0.0632 -0.0508  0.2108
58991DOD     C120792  23.303  15.592   4.956 -0.0261 -0.1044  0.2868
58991DOD     C220793  23.608  15.271   4.935  0.1560  0.1571  0.2633
58991DOD     C320794  23.674  14.838   5.046  0.0319 -0.2409 -0.0420
58992DOD     C120795  18.128  18.293  21.021  0.2933  0.0208 -0.1897
58992DOD     C220796  18.132  18.723  21.082 -0.1867 -0.3775 -0.1186
58992DOD     C320797  18.116  19.081  20.764 -0.1594  0.1220 -0.1583
58993DOD     C120798  24.203  16.164  12.660  0.1111 -0.1165  0.3514
58993DOD     C220799  24.481  15.836  12.730 -0.1187  0.1498  0.1837
58993DOD     C320800  24.821  15.601  12.894 -0.0141  0.1421  0.1849
58994DOD     C120801   0.809  25.195  25.024  0.1099  0.0632 -0.0078
58994DOD     C220802   1.123  24.914  25.203 -0.2279 -0.0752 -0.2364
58994DOD     C320803   1.517  24.680  25.145  0.0221 -0.0219 -0.1583
58995DOD     C120804  24.993  15.658   0.290 -0.0655 -0.1049 -0.0907
58995DOD     C220805  24.913  15.609  30.164 -0.1816  0.0526  0.0154
58995DOD     C320806  24.667  15.178  30.058 -0.1774 -0.1194 -0.0331
58996DOD     C120807  18.772  30.048  23.173  0.2106 -0.0071  0.0786
58996DOD     C220808  19.194  30.051  23.355  0.1077  0.3777  0.0849
58996DOD     C320809  19.355  30.300  23.738  0.1676  0.2500 -0.1632
58997DOD     C120810   7.631  10.466   0.196  0.0524 -0.1369 -0.0938
58997DOD     C220811   7.512  10.215  30.135 -0.3746  0.2383 -0.1954
58997DOD     C320812   7.458   9.982  29.706  0.1807  0.0390  0.0501
58998DOD     C120813  16.502  24.021   6.702 -0.2712  0.3640  0.1153
58998DOD     C220814  16.245  23.864   7.058 -0.3780  0.1366 -0.0296
58998DOD     C320815  15.853  23.518   7.126 -0.0728  0.0451  0.0864
58999DOD     C120816  16.653  13.567  15.529  0.1252 -0.2824 -0.2229
58999DOD     C220817  16.548  13.994  15.685 -0.1186 -0.1898  0.2097
58999DOD     C320818  16.674  14.378  15.965  0.1002 -0.3033 -0.0714
59000DOD     C120819  22.130  30.226   4.709  0.2106 -0.0631 -0.0233
59000DOD     C220820  22.327   0.142   4.287  0.0245  0.2730 -0.0082
59000DOD     C320821  22.713   0.374   4.212 -0.0769  0.0370  0.1081
59001DOD     C120822  15.630  25.123  10.540 -0.1153 -0.1451  0.0989
59001DOD     C220823  15.442  25.060  11.030  0.1259  0.0743  0.2071
59001DOD     C320824  15.374  24.635  11.187  0.0333  0.3110 -0.0425
59002DOD     C120825  26.428   7.527   4.292  0.0164 -0.0239  0.0628
59002DOD     C220826  26.290   7.605   4.740  0.2049  0.1287 -0.0088
59002DOD     C320827  26.536   7.431   5.143  0.1899  0.1759 -0.2490
59003DOD     C120828  20.863   3.071  28.952  0.1019 -0.2057 -0.1513
59003DOD     C220829  20.784   2.637  29.177 -0.2197 -0.3336 -0.2701
59003DOD     C320830  20.963   2.239  29.402 -0.0655  0.1994 -0.2306
59004DOD     C120831  27.171  20.956  14.351 -0.0950  0.1791  0.1891
59004DOD     C220832  27.036  20.720  14.013 -0.2456 -0.2811 -0.1913
59004DOD     C320833  26.863  20.410  13.743 -0.1577  0.0108  0.1147
59005DOD     C120834  29.708   0.961  20.071  0.2124  0.2210 -0.0077
59005DOD     C220835  30.041   0.945  19.789  0.2425  0.0227  0.3779
59005DOD     C320836  30.190   1.231  19.447  0.1065  0.1593 -0.0649
59006DOD     C120837   0.445   3.134  15.670  0.0446 -0.1222 -0.2767
59006DOD     C220838   0.538   2.948  16.070  0.0944 -0.0417 -0.1406
59006DOD     C320839   0.327   2.994  16.469 -0.0440 -0.0285  0.1378
59007DOD     C120840  18.601  25.002  10.839 -0.0805  0.0866  0.2348
59007DOD     C220841  18.256  25.018  10.517  0.0616  0.1971 -0.1349
59007DOD     C320842  18.233  24.625  10.298 -0.1021  0.2177  0.1437
59008DOD     C120843  13.745  20.375  17.730 -0.3936  0.0688  0.1224
59008DOD     C220844  13.560  20.736  17.929 -0.1609 -0.0084  0.0100
59008DOD     C320845  13.152  20.916  18.129 -0.1994  0.3037  0.0420
59009DOD     C120846   2.676  15.514  10.256 -0.2447  0.0933  0.0423
59009DOD     C220847   2.844  15.195   9.979 -0.0353 -0.2077  0.0108
59009DOD     C320848   2.850  14.872   9.716 -0.0029 -0.1671 -0.2854
59010DOD     C120849  14.546   9.520  24.374 -0.0867  0.1045  0.1564
59010DOD     C220850  14.376   9.807  24.011  0.3356  0.0479 -0.2511
59010DOD     C320851  14.316  10.064  23.682 -0.3371 -0.3317  0.0888
59011DOD     C120852  21.962  30.244   8.977  0.0077  0.0989 -0.1323
59011DOD     C220853  22.189   0.340   9.026  0.1288 -0.1590 -0.0936
59011DOD     C320854  22.581   0.655   9.048 -0.0329  0.1169 -0.0469
59012DOD     C120855  14.573  14.278   2.604 -0.0741  0.0679  0.2161
59012DOD     C220856  14.772  14.728   2.656  0.0492  0.1506 -0.4404
59012DOD     C320857  15.111  15.036   2.856 -0.0184  0.0746 -0.0126
59013DOD     C120858  20.155   1.862  24.136 -0.1319 -0.1896 -0.1753
59013DOD     C220859  20.395   2.263  24.236  0.4063  0.1794  0.0324
59013DOD     C320860  20.671   2.510  24.511 -0.0978 -0.6212  0.0665
59014DOD     C120861  17.233  19.757  22.070  0.1152 -0.3852 -0.0037
59014DOD     C220862  17.001  19.915  21.720  0.3130  0.4676 -0.3422
59014DOD     C320863  16.641  20.168  21.513 -0.0351 -0.2030 -0.3194
59015DOD     C120864   0.449  10.680  29.836  0.3645 -0.0768 -0.2785
59015DOD     C220865   0.281  10.510  29.446  0.3720  0.2931 -0.2609
59015DOD     C320866   0.116  10.468  29.050 -0.1444  0.1144 -0.0495
59016DOD     C120867   4.631   7.424  19.785  0.2880  0.3106  0.0852
59016DOD     C220868   4.347   7.760  19.871 -0.0178  0.1806 -0.1263
59016DOD     C320869   4.133   8.164  19.869  0.0537  0.1035 -0.2777
59017DOD     C120870   6.494  27.453  15.305  0.2213 -0.0122 -0.0820
59017DOD     C220871   6.104  27.664  15.289  0.2063  0.2169 -0.1522
59017DOD     C320872   5.627  27.537  15.233  0.1100 -0.0225 -0.1273
59018DOD     C120873  16.344   5.395  29.841 -0.0964 -0.1867 -0.2371
59018DOD     C220874  16.641   5.633  29.547 -0.2938  0.1180 -0.0043
59018DOD     C320875  16.628   5.883  29.136  0.1196  0.1440 -0.0163
59019DOD     C120876  19.543  26.239   3.535 -0.0773 -0.0132 -0.1667
59019DOD     C220877  19.579  26.681   3.330  0.2011  0.0208  0.0110
59019DOD     C320878  19.598  27.143   3.390 -0.1357 -0.3522 -0.2560
59020DOD     C120879  16.680  20.619   5.827  0.0427  0.0171 -0.0373
59020DOD     C220880  17.010  20.531   5.545  0.1415 -0.1923 -0.2517
59020DOD     C320881  17.342  20.782   5.361 -0.1315 -0.2887  0.0230
59021DOD     C120882  27.949  21.740   2.966 -0.1772 -0.1763 -0.0460
59021DOD     C220883  27.867  21.926   3.406 -0.2038 -0.2827  0.0438
59021DOD     C320884  27.563  22.112   3.827  0.3104  0.0235 -0.0066
59022DOD     C120885  19.966  13.816   0.266 -0.4511 -0.0510  0.0807
59022DOD     C220886  19.531  13.741   0.234 -0.1226 -0.1824  0.1782
59022DOD     C320887  19.129  13.917   0.165  0.2326  0.3003  0.2545
59023DOD     C120888  27.257  16.563  16.164  0.0330  0.1249  0.2737
59023DOD     C220889  27.410  17.020  16.324  0.2732  0.3037  0.3148
59023DOD     C320890  27.160  17.327  16.541  0.1355 -0.2949 -0.0397
59024DOD     C120891  10.166   2.538  22.477 -0.1324  0.1424 -0.0727
59024DOD     C220892  10.393   2.814  22.754 -0.1218 -0.2333 -0.3244
59024DOD     C320893  10.270   2.928  23.185 -0.0083 -0.1370 -0.2821
59025DOD     C120894   4.758  23.048  20.336 -0.0033  0.0863  0.3198
59025DOD     C220895   4.735  22.586  20.362  0.2556 -0.1588  0.0895
59025DOD     C320896   4.720  22.088  20.382 -0.1440 -0.1603  0.1863
59026DOD     C120897  14.203  25.516  23.828  0.1598  0.1138 -0.0261
59026DOD     C220898  13.908  25.633  24.148  0.1778 -0.1555  0.1721
59026DOD     C320899  13.655  26.049  24.149  0.0956 -0.2030 -0.3275
59027DOD     C120900  28.435   9.154  13.489  0.1288 -0.0108  0.1174
59027DOD     C220901  28.021   8.849  13.432 -0.0319 -0.2325 -0.1120
59027DOD     C320902  27.636   8.905  13.165  0.0359  0.2707 -0.1307
59028DOD     C120903  19.143  10.732   4.726  0.0508  0.0527  0.5001
59028DOD     C220904  18.873  10.665   4.367 -0.1126  0.1368  0.2326
59028DOD     C320905  18.753  10.422   3.991  0.3074 -0.2003  0.1689
59029DOD     C120906  20.587   0.466   2.605 -0.4425 -0.1051 -0.1237
59029DOD     C220907  20.359   0.739   2.287  0.0875 -0.2035  0.2303
59029DOD     C320908  20.277   0.764   1.781 -0.0129  0.0864  0.3985
59030DOD     C120909   2.282  14.663  17.525  0.1298  0.1119 -0.2777
59030DOD     C220910   2.192  14.378  17.859 -0.0448  0.0806 -0.1993
59030DOD     C320911   2.278  14.114  18.240 -0.0843 -0.1536  0.2383
59031DOD     C120912  11.202  19.175  10.681  0.1833  0.1106  0.5449
59031DOD     C220913  11.006  19.007  11.037  0.1514 -0.1255  0.1921
59031DOD     C320914  10.816  19.161  11.459  0.0243  0.1166 -0.0431
59032DOD     C120915  24.337  28.614   2.751  0.1942  0.2234 -0.1291
59032DOD     C220916  24.543  28.907   2.399  0.1564 -0.0566  0.0074
59032DOD     C320917  24.196  29.185   2.200 -0.1825 -0.0047 -0.0807
59033DOD     C120918  11.917  14.370   1.859 -0.0534 -0.0479 -0.1990
59033DOD     C220919  11.919  14.740   2.093  0.0270 -0.2409  0.0901
59033DOD     C320920  11.839  15.237   2.059  0.1349  0.1524  0.1493
59034DOD     C120921   0.355  17.207   9.707  0.1076  0.1298  0.0520
59034DOD     C220922   0.836  17.260   9.783 -0.5216 -0.3425  0.0685
59034DOD     C320923   1.205  17.557   9.820  0.0529  0.1702 -0.2371
59035DOD     C120924  25.552  17.291  26.574  0.1376 -0.2546 -0.0681
59035DOD     C220925  25.276  17.711  26.728  0.1018  0.0803  0.1937
59035DOD     C320926  25.257  18.181  26.879 -0.0008  0.0531  0.1295
59036DOD     C120927  11.228  27.147   0.630 -0.1611 -0.0902 -0.1172
59036DOD     C220928  11.394  27.440   0.945 -0.0214  0.5534  0.1111
59036DOD     C320929  11.635  27.869   0.797 -0.0293 -0.0427 -0.2412
59037DOD     C120930   7.574   8.802   4.298  0.0868  0.0784 -0.2531
59037DOD     C220931   7.822   8.594   3.940  0.2641  0.0436 -0.1494
59037DOD     C320932   7.923   8.728   3.504 -0.0283 -0.0806 -0.0010
59038DOD     C120933  28.252   0.548  25.321  0.2496 -0.0548 -0.0522
59038DOD     C220934  28.572   0.223  25.149 -0.1017 -0.0364  0.0762
59038DOD     C320935  28.491  30.109  25.246  0.2539  0.2032 -0.0884
59039DOD     C120936  27.729  13.368  23.872 -0.1546  0.1444  0.0702
59039DOD     C220937  27.986  13.011  23.947 -0.0023  0.0251  0.3977
59039DOD     C320938  27.943  12.557  24.037  0.1567 -0.3597  0.1717
59040DOD     C120939   5.280   5.858  26.854 -0.2412 -0.2707 -0.0651
59040DOD     C220940   4.887   5.988  26.749  0.1780  0.0181 -0.0671
59040DOD     C320941   4.447   6.004  26.988  0.0001  0.4075 -0.0985
59041DOD     C120942   2.762   5.006   9.100 -0.3300  0.1388 -0.2284
59041DOD     C220943   2.707   5.187   8.671  0.0857  0.3707 -0.0009
59041DOD     C320944   2.584   5.302   8.231 -0.2596  0.2793 -0.0886
59042DOD     C120945  24.341   4.775  11.626  0.0230  0.3463  0.3357
59042DOD     C220946  24.695   4.441  11.566 -0.0173  0.0128  0.0237
59042DOD     C320947  24.913   4.081  11.691  0.0620 -0.0688  0.2529
59043DOD     C120948   0.988   4.589   6.287 -0.0573 -0.1927 -0.0398
59043DOD     C220949   0.995   4.335   5.821 -0.0007  0.1095 -0.0993
59043DOD     C320950   0.793   4.053   5.554 -0.1719 -0.2068  0.0188
59044DOD     C120951  24.864   8.956  20.179 -0.0791 -0.3022  0.1097
59044DOD     C220952  25.252   8.908  20.409  0.1498  0.1690  0.4760
59044DOD     C320953  25.621   8.979  20.644 -0.0548  0.1730 -0.2935
59045DOD     C120954   0.649  12.237  18.692 -0.2297 -0.0763 -0.0513
59045DOD     C220955   0.930  11.965  18.421 -0.1744 -0.1198 -0.1808
59045DOD     C320956   1.367  11.945  18.258 -0.0619 -0.0889  0.0811
59046DOD     C120957   0.347  13.468  11.763 -0.0934  0.0479  0.0739
59046DOD     C220958   0.534  13.067  11.575 -0.0592  0.1753 -0.2072
59046DOD     C320959   0.457  12.632  11.470 -0.2077  0.1315  0.0795
59047DOD     C120960  29.339   2.235  25.222  0.1960 -0.1000  0.2920
59047DOD     C220961  29.429   2.637  24.991  0.0001  0.2365 -0.4551
59047DOD     C320962  29.486   3.124  25.042 -0.0816  0.0146 -0.3079
59048DOD     C120963  15.973  11.466  24.907  0.0249 -0.1119 -0.0849
59048DOD     C220964  16.102  11.474  25.347 -0.0642  0.1133  0.1397
59048DOD     C320965  16.421  11.704  25.544  0.3252  0.1083 -0.1832
59049DOD     C120966  24.225   2.946  16.118 -0.1399 -0.2593 -0.0984
59049DOD     C220967  23.843   3.157  15.983 -0.0718  0.3121 -0.2298
59049DOD     C320968  23.407   3.127  15.900  0.3134 -0.0608 -0.1433
59050DOD     C120969   8.957  23.949  24.554  0.0858 -0.0564 -0.1756
59050DOD     C220970   8.782  23.538  24.792 -0.0294 -0.2375  0.2525
59050DOD     C320971   8.471  23.228  24.951  0.3268  0.2187  0.0300
59051DOD     C120972  26.839  23.588  19.863  0.0501 -0.1412 -0.0703
59051DOD     C220973  27.295  23.743  19.843 -0.4593 -0.1232  0.2691
59051DOD     C320974  27.762  23.893  19.858  0.0066  0.0319  0.0910
59052DOD     C120975  24.207  20.033  25.988  0.1780 -0.0086  0.0349
59052DOD     C220976  24.642  20.160  26.010  0.1855 -0.1919  0.1055
59052DOD     C320977  24.992  20.394  25.802  0.3794  0.0355 -0.1399
59053DOD     C120978  25.331  25.876  15.953  0.1322 -0.3482  0.3940
59053DOD     C220979  24.980  26.149  15.750 -0.1795  0.0165 -0.0067
59053DOD     C320980  24.537  26.314  15.738  0.2480 -0.4162 -0.1361
59054DOD     C120981  27.190  29.243  13.419  0.1121 -0.1631 -0.1809
59054DOD     C220982  27.591  29.308  13.544  0.0147  0.1560  0.0816
59054DOD     C320983  27.946  29.475  13.243  0.1407 -0.5524  0.0389
59055DOD     C120984   6.927  17.602   2.976  0.0010  0.2649  0.0621
59055DOD     C220985   6.667  17.462   3.328  0.2164  0.1007 -0.0588
59055DOD     C320986   6.438  17.283   3.708  0.0158 -0.0752  0.0122
59056DOD     C120987  11.639  24.998   7.884 -0.1162 -0.2759 -0.2846
59056DOD     C220988  11.582  24.601   7.652  0.1591 -0.0383  0.3982
59056DOD     C320989  11.641  24.146   7.715  0.0998  0.0487  0.0733
59057DOD     C120990  23.721   2.372   2.909 -0.1476  0.1479 -0.1245
59057DOD     C220991  24.042   2.505   3.226 -0.2069 -0.0389 -0.3088
59057DOD     C320992  24.171   2.749   3.539  0.0663  0.0337 -0.2137
59058DOD     C120993  28.875  22.606  24.451  0.1120  0.3443  0.1697
59058DOD     C220994  28.574  22.886  24.617 -0.1277 -0.1946 -0.1759
59058DOD     C320995  28.502  23.300  24.839 -0.3451 -0.1208 -0.1431
59059DOD     C120996  27.374   6.362   2.875  0.4006  0.0552  0.3013
59059DOD     C220997  27.314   6.309   3.308 -0.1914 -0.1791 -0.1440
59059DOD     C320998  27.020   6.369   3.681  0.0808  0.0781  0.1601
59060DOD     C120999  16.366  15.320  23.144  0.1616  0.1098 -0.4371
59060DOD     C221000  16.384  15.425  23.595  0.0954 -0.0109  0.3551
59060DOD     C321001  16.366  15.563  24.026  0.1255 -0.1976 -0.1188
59061DOD     C121002  27.401   2.218  19.402  0.0408 -0.1102 -0.1652
59061DOD     C221003  27.052   1.932  19.548 -0.0138  0.1847 -0.0336
59061DOD     C321004  26.868   1.616  19.833 -0.1877  0.0230 -0.0428
59062DOD     C121005   1.764   0.276  21.132  0.0812 -0.0340  0.1166
59062DOD     C221006   1.996   0.608  21.005  0.0116 -0.0479 -0.2685
59062DOD     C321007   2.034   1.129  20.949  0.0557  0.2499  0.0845
59063DOD     C121008  10.510   9.624  25.670  0.0981 -0.0250  0.1478
59063DOD     C221009  10.640   9.515  25.241 -0.0922  0.1559 -0.0472
59063DOD     C321010  10.551   9.747  24.854  0.0990 -0.1305 -0.1249
59064DOD     C121011  26.564  22.481   5.670 -0.0082  0.0470 -0.1991
59064DOD     C221012  26.180  22.264   5.607  0.2245 -0.1831  0.0575
59064DOD     C321013  25.850  22.012   5.772  0.2106 -0.0529 -0.1830
59065DOD     C121014  19.469  14.570  17.607 -0.0567 -0.3234  0.1462
59065DOD     C221015  19.336  14.713  17.200  0.4154 -0.1247 -0.1677
59065DOD     C321016  19.343  14.698  16.735  0.0280  0.1796 -0.3008
59066DOD     C121017  18.723  11.541  22.481  0.0979  0.2553 -0.0885
59066DOD     C221018  18.731  11.257  22.134 -0.1151  0.1199  0.0392
59066DOD     C321019  18.803  11.136  21.713  0.1406 -0.6343 -0.0368
59067DOD     C121020  29.856  10.823  15.963  0.3936 -0.1103 -0.1132
59067DOD     C221021  29.951  10.559  15.572 -0.3622  0.1149 -0.3981
59067DOD     C321022  30.204  10.519  15.207  0.2791 -0.0541 -0.0113
59068DOD     C121023   0.124  24.824   5.860  0.1230  0.0734 -0.3060
59068DOD     C221024   0.411  24.459   5.830 -0.0356 -0.4374  0.3327
59068DOD     C321025   0.878  24.379   5.969 -0.0943  0.1658 -0.1227
59069DOD     C121026  17.240   1.727  16.688 -0.0061 -0.3039 -0.1971
59069DOD     C221027  17.126   2.032  16.339  0.0625  0.0436 -0.1123
59069DOD     C321028  16.873   2.466  16.378  0.0919  0.1194  0.0224
59070DOD     C121029   1.282  24.259  24.964 -0.1065  0.0591 -0.1994
59070DOD     C221030   0.996  24.489  25.216 -0.1649  0.0023 -0.3077
59070DOD     C321031   0.637  24.601  25.017 -0.0567  0.1200  0.1012
59071DOD     C121032   1.316  29.232  28.961 -0.0064 -0.0867 -0.1963
59071DOD     C221033   1.406  29.681  28.905  0.0139 -0.0840 -0.0095
59071DOD     C321034   1.362  30.144  28.661 -0.1272  0.2164  0.1913
59072DOD     C121035  12.908  16.504   6.793 -0.1412 -0.0132  0.1940
59072DOD     C221036  13.314  16.767   6.804 -0.1396 -0.0045 -0.0391
59072DOD     C321037  13.697  16.635   7.116  0.0560  0.2900  0.1246
59073DOD     C121038  23.577  19.094  25.702  0.0898  0.2927 -0.0287
59073DOD     C221039  23.260  18.751  25.693  0.2861 -0.5047 -0.1624
59073DOD     C321040  23.222  18.262  25.716 -0.0711  0.0018 -0.0535
59074DOD     C121041  21.878   0.077   6.801  0.3275  0.1342  0.2569
59074DOD     C221042  21.531   0.363   7.012  0.2035  0.1192  0.2369
59074DOD     C321043  21.317   0.672   6.687 -0.1026 -0.3026 -0.2585
59075DOD     C121044  26.710  12.267  21.212 -0.0750 -0.4385  0.0565
59075DOD     C221045  26.477  12.329  20.829  0.2731  0.0931 -0.2488
59075DOD     C321046  26.470  12.129  20.377  0.5000 -0.0271 -0.0595
59076DOD     C121047  24.359  29.134   8.260 -0.0433  0.1997  0.0950
59076DOD     C221048  24.200  29.384   7.888 -0.0146 -0.0108  0.1625
59076DOD     C321049  24.346  29.309   7.437  0.2928 -0.1606  0.0903
59077DOD     C121050  10.067   4.208  13.967 -0.1485  0.0739  0.0623
59077DOD     C221051   9.747   4.188  13.614 -0.3912 -0.2437 -0.1193
59077DOD     C321052   9.546   3.767  13.538  0.1424 -0.0174 -0.0437
59078DOD     C121053  23.893  15.076  25.896  0.0780 -0.3134 -0.2623
59078DOD     C221054  24.171  15.382  25.701  0.2431 -0.0895 -0.1556
59078DOD     C321055  24.333  15.746  25.511  0.0499  0.0992  0.0868
59079DOD     C121056   9.222  16.647  17.042  0.1181 -0.2174  0.0396
59079DOD     C221057   9.549  16.300  16.930 -0.2131 -0.0963 -0.3005
59079DOD     C321058   9.658  16.039  16.551 -0.1608 -0.0772  0.0082
59080DOD     C121059  12.647   3.865   2.004 -0.1703  0.1012 -0.2059
59080DOD     C221060  12.397   3.926   1.582 -0.1798 -0.0205  0.1334
59080DOD     C321061  12.062   4.106   1.281  0.2369 -0.2573 -0.0805
59081DOD     C121062   9.063  30.178  17.700  0.1103  0.0633  0.1985
59081DOD     C221063   9.351  30.051  17.273  0.0672  0.0691  0.3573
59081DOD     C321064   9.572  30.011  16.859  0.0980 -0.2751  0.4332
59082DOD     C121065   7.188  23.074   4.528 -0.1747  0.2616  0.0506
59082DOD     C221066   6.897  23.226   4.780  0.0114 -0.0099  0.1650
59082DOD     C321067   6.431  23.440   4.699 -0.2054 -0.0662  0.2503
59083DOD     C121068   5.182  28.331  19.904 -0.1558  0.0646  0.1567
59083DOD     C221069   5.602  28.187  19.788 -0.0335 -0.0374 -0.1064
59083DOD     C321070   6.007  28.031  19.651  0.1588  0.0399 -0.3506
59084DOD     C121071  21.895  24.687   2.267 -0.1604  0.0348  0.0227
59084DOD     C221072  22.320  24.705   2.061  0.2453 -0.2972 -0.1479
59084DOD     C321073  22.617  24.966   1.805 -0.0060 -0.2986 -0.3532
59085DOD     C121074  13.157   4.525   4.495  0.1418 -0.0496 -0.0140
59085DOD     C221075  13.393   4.949   4.315  0.0961 -0.1314  0.2026
59085DOD     C321076  13.582   5.368   4.363 -0.1041  0.0238 -0.4088
59086DOD     C121077   3.225  19.811  22.338 -0.0125 -0.3534 -0.4303
59086DOD     C221078   2.829  19.559  22.189 -0.1100 -0.2097  0.0982
59086DOD     C321079   2.828  19.149  21.959 -0.1347 -0.5299 -0.0656
59087DOD     C121080   7.881   1.115   6.770  0.1322  0.3208  0.1095
59087DOD     C221081   7.491   1.292   6.958  0.1118 -0.0818 -0.2862
59087DOD     C321082   7.108   1.397   7.199  0.0690  0.2806  0.1371
59088DOD     C121083  23.080   0.225  16.164  0.0884 -0.1325 -0.1148
59088DOD     C221084  23.239   0.120  16.631 -0.0832 -0.1238 -0.1470
59088DOD     C321085  23.417  29.997  16.847 -0.0089  0.1686  0.1565
59089DOD     C121086   0.340   0.813  18.221  0.1565 -0.1225 -0.0877
59089DOD     C221087   0.763   0.700  18.151 -0.0814  0.0700 -0.1233
59089DOD     C321088   1.131   0.371  18.130  0.5117 -0.0829 -0.0602
59090DOD     C121089   0.231  18.508   4.944 -0.0858  0.0776  0.2354
59090DOD     C221090   0.514  18.868   5.214 -0.2127  0.4357  0.0450
59090DOD     C321091   0.763  19.142   5.534  0.1749  0.0895  0.2145
59091DOD     C121092  17.959  13.866  21.082  0.1435 -0.0549  0.0489
59091DOD     C221093  17.718  13.606  21.401  0.0565 -0.4857  0.2685
59091DOD     C321094  17.672  13.123  21.493 -0.2838 -0.0363 -0.1514
59092DOD     C121095  12.887   7.178  21.046  0.4934 -0.1235 -0.0982
59092DOD     C221096  13.078   7.478  20.739 -0.0332 -0.0037  0.1685
59092DOD     C321097  13.268   7.656  20.328 -0.4127  0.0280 -0.0732
59093DOD     C121098  20.828  27.090   9.210 -0.0832 -0.0666 -0.4353
59093DOD     C221099  20.416  26.986   9.424 -0.1058 -0.0995 -0.2176
59093DOD     C321100  20.201  26.749   9.734 -0.1619  0.2439 -0.5052
59094DOD     C121101  17.046   4.558  11.218 -0.1130  0.2251 -0.1204
59094DOD     C221102  17.054   4.184  10.873 -0.0077 -0.0449 -0.0480
59094DOD     C321103  17.399   3.916  10.770  0.0507  0.0021 -0.3423
59095DOD     C121104  15.691  27.650   9.890 -0.0988 -0.2462  0.1727
59095DOD     C221105  15.502  27.507   9.453  0.0273  0.2444 -0.0789
59095DOD     C321106  15.451  27.218   9.092  0.2098  0.2954  0.0134
59096DOD     C121107  14.153  21.104   4.564  0.1472  0.0803 -0.0543
59096DOD     C221108  13.744  21.188   4.484 -0.1405 -0.0597 -0.2380
59096DOD     C321109  13.476  21.500   4.720 -0.0957 -0.3170 -0.0511
59097DOD     C121110  15.153   3.850  17.480 -0.1725 -0.0404  0.1897
59097DOD     C221111  14.850   4.198  17.609  0.0272  0.3090 -0.1279
59097DOD     C321112  14.554   4.529  17.535 -0.0760 -0.1371  0.1247
59098DOD     C121113  11.942  26.701  25.610 -0.0232  0.0821  0.0519
59098DOD     C221114  12.277  26.491  25.894  0.0234  0.0801 -0.2018
59098DOD     C321115  12.523  26.165  26.147 -0.3779  0.2940  0.0218
59099DOD     C121116   7.747  10.836  19.869  0.2416  0.1841 -0.4096
59099DOD     C221117   7.274  10.754  19.675 -0.0049 -0.1643  0.0761
59099DOD     C321118   6.785  10.960  19.746 -0.3086  0.1174  0.1087
59100DOD     C121119   8.305   0.608  22.035 -0.0124  0.1473  0.1309
59100DOD     C221120   8.629   0.730  22.413 -0.3072  0.1571  0.2292
59100DOD     C321121   8.600   0.824  22.909 -0.1427 -0.1820  0.1004
59101DOD     C121122  12.568   1.427  21.390 -0.1581 -0.0085 -0.1828
59101DOD     C221123  12.334   1.627  20.997  0.1810  0.0467  0.2697
59101DOD     C321124  12.046   1.895  20.775  0.0415 -0.0602  0.0810
59102DOD     C121125   9.408   9.865  15.493 -0.1743  0.1980 -0.2750
59102DOD     C221126   9.604   9.955  15.088 -0.1533 -0.2119 -0.2049
59102DOD     C321127   9.499  10.090  14.719 -0.2191 -0.2100  0.0576
59103DOD     C121128  21.058   3.462  24.513 -0.1994  0.0503  0.0407
59103DOD     C221129  21.308   3.114  24.485  0.2849 -0.1507  0.0932
59103DOD     C321130  21.638   2.981  24.210  0.0918 -0.0499 -0.0579
59104DOD     C121131   4.194  21.481  21.539 -0.0592 -0.1428  0.3772
59104DOD     C221132   4.369  21.807  21.263 -0.0468  0.3213  0.0861
59104DOD     C321133   4.494  21.853  20.820 -0.0215 -0.1053 -0.2202
59105DOD     C121134   5.771  23.353  13.578  0.1576  0.1488  0.2881
59105DOD     C221135   5.757  22.834  13.585  0.0392  0.1157 -0.0271
59105DOD     C321136   5.623  22.394  13.535 -0.0126  0.1873 -0.3132
59106DOD     C121137  14.444   1.632  12.698 -0.1625 -0.1610 -0.1767
59106DOD     C221138  14.099   1.902  12.564  0.1863  0.1669 -0.1138
59106DOD     C321139  13.788   2.165  12.414 -0.0054  0.1906 -0.1468
59107DOD     C121140   0.076   9.347  14.788  0.1385 -0.0488 -0.1444
59107DOD     C221141   0.061   9.781  14.610 -0.4812  0.1992  0.1822
59107DOD     C321142  30.202  10.107  14.906 -0.0606 -0.3101  0.5720
59108DOD     C121143   4.725  14.367  23.922  0.2425  0.0781 -0.1073
59108DOD     C221144   4.979  14.214  23.573  0.2667  0.1017  0.2053
59108DOD     C321145   5.379  14.020  23.456 -0.0070  0.0221 -0.0700
59109DOD     C121146   3.001  16.944  11.350  0.3932  0.4493 -0.0023
59109DOD     C221147   3.038  16.699  11.731 -0.0957 -0.0123  0.0531
59109DOD     C321148   3.154  16.623  12.147 -0.1605  0.0407 -0.0470
59110DOD     C121149   8.027  22.463   4.409 -0.2602 -0.3726  0.1368
59110DOD     C221150   8.147  22.860   4.627 -0.2796 -0.2224 -0.0757
59110DOD     C321151   8.290  23.253   4.731  0.1596 -0.1140  0.1514
59111DOD     C121152   4.179  10.865  11.454 -0.3787  0.2326  0.0495
59111DOD     C221153   4.035  10.709  11.016  0.2117 -0.1028 -0.2042
59111DOD     C321154   3.963  10.909  10.617  0.2911 -0.0712 -0.0528
59112DOD     C121155  20.656  12.221  19.147  0.0633  0.0355  0.0821
59112DOD     C221156  20.962  11.929  18.951 -0.0446 -0.1409 -0.0876
59112DOD     C321157  21.411  11.764  18.732 -0.0292  0.0579 -0.0683
59113DOD     C121158  25.966   0.477  15.683 -0.0002  0.1923 -0.0350
59113DOD     C221159  25.893   0.662  16.111 -0.1461 -0.0694  0.0692
59113DOD     C321160  25.711   0.512  16.518  0.2210 -0.3607 -0.1199
59114DOD     C121161  20.595  14.896  22.753  0.0696  0.1525 -0.0633
59114DOD     C221162  20.576  15.352  22.787  0.1121  0.2572 -0.1470
59114DOD     C321163  20.717  15.784  22.989 -0.1957 -0.2447  0.1543
59115DOD     C121164  17.511  12.109  22.697  0.0257 -0.0795 -0.0142
59115DOD     C221165  17.085  12.000  22.813 -0.1794  0.1469 -0.0206
59115DOD     C321166  16.735  12.038  23.148 -0.0208  0.2884  0.0021
59116DOD     C121167   3.216  16.997  27.042  0.2591 -0.0282 -0.0767
59116DOD     C221168   3.401  16.532  27.115  0.2834  0.1395 -0.3399
59116DOD     C321169   3.787  16.237  27.100  0.3813  0.3419 -0.2005
59117DOD     C121170  22.056  21.216  10.698  0.2692  0.0824  0.0842
59117DOD     C221171  21.715  21.255  10.360 -0.0597 -0.1329 -0.1481
59117DOD     C321172  21.566  20.907  10.082  0.0357 -0.0194  0.0399
59118DOD     C121173  17.829  21.594  11.150  0.3748 -0.0378 -0.1327
59118DOD     C221174  18.081  21.613  11.532 -0.0295  0.1487  0.2811
59118DOD     C321175  18.244  21.604  11.992  0.2695  0.4984  0.0387
59119DOD     C121176  25.723   9.712  10.775 -0.4618  0.0043 -0.1857
59119DOD     C221177  25.415   9.386  10.912  0.2209 -0.0784 -0.1596
59119DOD     C321178  25.188   8.965  11.004 -0.0384 -0.0409 -0.0593
59120DOD     C121179   3.490  19.893   4.104 -0.0970 -0.0348  0.0026
59120DOD     C221180   3.693  20.147   3.772 -0.1620  0.2017  0.1115
59120DOD     C321181   3.665  20.283   3.322 -0.1188  0.0094 -0.2862
59121DOD     C121182   6.179   0.840   7.694  0.0111 -0.0248 -0.0023
59121DOD     C221183   6.153   0.974   8.175 -0.1910  0.1360  0.2483
59121DOD     C321184   6.130   0.671   8.515  0.1914  0.1037  0.0392
59122DOD     C121185  21.237   1.717  24.787  0.0123  0.1313  0.2143
59122DOD     C221186  20.844   1.532  24.903 -0.0392  0.1166  0.1699
59122DOD     C321187  20.367   1.489  24.794 -0.3765 -0.3306 -0.1018
59123DOD     C121188  17.409  27.133  20.671  0.2807  0.0754  0.0466
59123DOD     C221189  17.323  27.484  20.391 -0.0684 -0.1083 -0.0528
59123DOD     C321190  17.364  27.709  19.998 -0.1525  0.1708 -0.4123
59124DOD     C121191   5.448  29.177  21.269 -0.0218 -0.0077 -0.2085
59124DOD     C221192   5.170  29.163  20.898  0.3612 -0.2594  0.0107
59124DOD     C321193   4.999  29.094  20.489 -0.0415 -0.0008  0.2253
59125DOD     C121194  24.497   5.435  13.492 -0.1398 -0.1517 -0.3302
59125DOD     C221195  24.329   5.838  13.672  0.1683  0.0824 -0.0713
59125DOD     C321196  24.213   6.189  13.978 -0.2135 -0.0755  0.0378
59126DOD     C121197   5.691   6.150  13.693 -0.0060  0.1102  0.2611
59126DOD     C221198   5.925   5.804  13.487 -0.0849 -0.0700  0.1153
59126DOD     C321199   5.870   5.577  13.076  0.0887  0.0177  0.0370
59127DOD     C121200  25.786  16.622  10.443 -0.0335  0.3119  0.2288
59127DOD     C221201  25.902  16.736   9.976  0.2625 -0.1254  0.0533
59127DOD     C321202  26.119  16.960   9.636  0.2853  0.1540  0.0624
59128DOD     C121203  28.224   3.246  28.917  0.0365  0.4001  0.2595
59128DOD     C221204  27.815   3.259  28.705  0.0569 -0.0407 -0.3463
59128DOD     C321205  27.381   3.461  28.486  0.2457 -0.1071  0.1082
59129DOD     C121206  18.695  23.360  24.245  0.0354 -0.1060  0.2724
59129DOD     C221207  18.399  23.023  24.109 -0.1631 -0.1481 -0.0435
59129DOD     C321208  17.965  23.117  24.046  0.0115  0.1733  0.0241
59130DOD     C121209   7.793  17.554  20.215  0.0514 -0.0494  0.1420
59130DOD     C221210   7.767  18.014  20.329 -0.1607  0.1217  0.1498
59130DOD     C321211   7.974  18.289  20.604 -0.1795 -0.1585 -0.2958
59131DOD     C121212  13.215   7.900  18.288  0.0943 -0.1921 -0.1005
59131DOD     C221213  13.562   7.813  18.551  0.0294 -0.1021 -0.1507
59131DOD     C321214  13.842   7.761  18.907  0.0358 -0.1056 -0.0219
59132DOD     C121215  22.046  22.136  15.303  0.0641 -0.3861  0.2483
59132DOD     C221216  21.739  22.344  15.070 -0.1268  0.1858 -0.2698
59132DOD     C321217  21.604  22.509  14.657 -0.1911  0.0110 -0.2334
59133DOD     C121218  14.108  10.786  16.778  0.3611 -0.2869 -0.1218
59133DOD     C221219  14.126  10.346  16.741 -0.1884 -0.5186 -0.3201
59133DOD     C321220  13.967   9.950  17.012  0.1172  0.1866  0.3658
59134DOD     C121221  21.055  12.097  11.416  0.0535 -0.2341  0.1847
59134DOD     C221222  20.909  11.790  11.133  0.0645 -0.1743 -0.2342
59134DOD     C321223  20.551  11.654  10.906  0.4165 -0.0163 -0.0550
59135DOD     C121224  26.156  10.900  27.776  0.0643  0.1330  0.0411
59135DOD     C221225  26.160  10.500  27.966 -0.1419  0.1063 -0.1832
59135DOD     C321226  25.731  10.285  28.186 -0.3805  0.1753 -0.3706
59136DOD     C121227  13.450   4.215  13.546 -0.1854 -0.1291 -0.2253
59136DOD     C221228  13.888   4.176  13.308 -0.0583 -0.0564 -0.1095
59136DOD     C321229  14.238   3.869  13.395  0.2452 -0.0252  0.1212
59137DOD     C121230  20.697  11.909  27.675 -0.0181  0.0274  0.0858
59137DOD     C221231  20.667  11.479  27.794  0.2300 -0.1692  0.1350
59137DOD     C321232  20.738  11.056  27.924  0.0220 -0.0626 -0.1194
59138DOD     C121233  13.737  28.374  17.958 -0.2135  0.0818 -0.2725
59138DOD     C221234  14.143  28.549  17.779 -0.2085 -0.1380  0.0072
59138DOD     C321235  14.571  28.338  17.761  0.0317 -0.2051  0.4523
59139DOD     C121236   2.805  10.258   6.833  0.1428 -0.0076  0.1101
59139DOD     C221237   3.009  10.254   6.387 -0.0281 -0.0250 -0.0791
59139DOD     C321238   3.036  10.281   5.925 -0.6532  0.3468 -0.2321
59140DOD     C121239   4.325  28.213  18.965  0.3642 -0.2481 -0.3443
59140DOD     C221240   4.257  28.207  18.501 -0.0711  0.0088  0.1137
59140DOD     C321241   4.024  27.995  18.094 -0.1035  0.3391 -0.0565
59141DOD     C121242  13.979  25.998   6.175 -0.2195 -0.0323 -0.0698
59141DOD     C221243  14.386  26.150   6.030 -0.1403 -0.1221 -0.0875
59141DOD     C321244  14.750  26.091   5.781  0.0460  0.2777 -0.1261
59142DOD     C121245  29.601  12.959   5.812  0.1717  0.0828 -0.0511
59142DOD     C221246  29.325  13.078   6.232  0.0987 -0.0296  0.1467
59142DOD     C321247  29.315  12.941   6.672 -0.0192 -0.3638 -0.3456
59143DOD     C121248   2.760  21.502  12.629  0.2340 -0.1707 -0.1747
59143DOD     C221249   2.770  21.885  12.338  0.0490  0.0669 -0.0036
59143DOD     C321250   2.687  22.319  12.471  0.2428  0.1118 -0.0175
59144DOD     C121251   4.095  29.152   8.618  0.0885 -0.0329  0.0058
59144DOD     C221252   3.953  29.597   8.677  0.0043 -0.0908 -0.0390
59144DOD     C321253   3.685  30.005   8.717  0.1482  0.0459  0.1885
59145DOD     C121254   5.781  14.695   6.397 -0.4581  0.1665  0.1190
59145DOD     C221255   6.100  14.319   6.277  0.0569 -0.1223 -0.3913
59145DOD     C321256   6.329  14.118   5.933  0.1079 -0.0524  0.3038
59146DOD     C121257  23.602  13.092  10.691  0.0408 -0.1659 -0.1952
59146DOD     C221258  23.145  13.125  10.649 -0.2446  0.2748  0.1427
59146DOD     C321259  22.756  12.934  10.655  0.3269 -0.1498 -0.0245
59147DOD     C121260  12.150  24.073  14.885  0.1364  0.0526  0.2382
59147DOD     C221261  12.268  24.302  15.289  0.3194  0.3022  0.0312
59147DOD     C321262  12.167  24.442  15.733 -0.0966 -0.2755  0.0276
59148DOD     C121263  29.453  28.895  23.046 -0.0965  0.4775 -0.1407
59148DOD     C221264  29.012  28.912  22.886 -0.2909 -0.1634 -0.5478
59148DOD     C321265  28.574  28.895  22.873 -0.1037  0.0134 -0.2375
59149DOD     C121266  28.595  29.230  23.564  0.1214  0.1030 -0.4180
59149DOD     C221267  28.247  29.092  23.242 -0.0045  0.3062 -0.2777
59149DOD     C321268  27.830  29.018  23.168 -0.0486  0.0867  0.0025
59150DOD     C121269   9.355  11.663  25.134  0.0363  0.2094  0.0497
59150DOD     C221270   9.781  11.596  24.944  0.1271  0.1971  0.2043
59150DOD     C321271  10.181  11.319  24.996 -0.0123  0.0747  0.2495
59151DOD     C121272  21.600  23.430  26.761 -0.3585 -0.1110  0.2913
59151DOD     C221273  21.944  23.235  26.990  0.1189  0.0446 -0.2018
59151DOD     C321274  22.121  22.841  27.224  0.1372 -0.1045 -0.0373
59152DOD     C121275  20.271  25.920  15.705 -0.2210  0.0876  0.0415
59152DOD     C221276  20.251  25.941  16.149  0.1807 -0.4395  0.1528
59152DOD     C321277  20.401  26.091  16.519 -0.2831 -0.1274 -0.0299
59153DOD     C121278   6.306  21.774  13.707 -0.0555 -0.2313 -0.1710
59153DOD     C221279   6.460  21.477  13.407 -0.1341 -0.1855 -0.0691
59153DOD     C321280   6.450  21.485  12.913 -0.1354  0.0121 -0.1126
59154DOD     C121281   3.435  15.531  25.953 -0.1186  0.1712  0.2936
59154DOD     C221282   3.479  15.859  26.166  0.0854 -0.2423 -0.0107
59154DOD     C321283   3.741  16.212  26.289  0.3722 -0.0300  0.0242
59155DOD     C121284  10.125   1.037  10.906 -0.2076 -0.3634  0.0996
59155DOD     C221285  10.251   0.836  11.300  0.1568 -0.1619 -0.2229
59155DOD     C321286  10.255   0.802  11.766 -0.2024  0.2256  0.1660
59156DOD     C121287   1.520   0.691  21.151  0.2116  0.3770  0.1187
59156DOD     C221288   1.105   0.712  21.338 -0.0095 -0.1094 -0.1175
59156DOD     C321289   0.882   0.960  21.649  0.0210  0.4513  0.1683
59157DOD     C121290  12.608  25.074  18.830  0.3389  0.1609 -0.2901
59157DOD     C221291  12.636  25.369  18.512  0.3786  0.0750  0.1711
59157DOD     C321292  12.919  25.663  18.344  0.1718 -0.1055  0.0585
59158DOD     C121293   7.466  22.291  27.105 -0.0723 -0.0121  0.0414
59158DOD     C221294   7.873  22.296  26.867  0.0111  0.0627  0.2938
59158DOD     C321295   8.316  22.249  26.934  0.0920 -0.0417  0.4479
59159DOD     C121296  16.453   3.078   9.464  0.2020 -0.0441 -0.2336
59159DOD     C221297  16.376   3.221   9.897 -0.0277  0.1677  0.1661
59159DOD     C321298  16.507   3.454  10.235  0.2972  0.2734  0.2359
59160DOD     C121299  11.676  12.481  19.612 -0.2057 -0.1792  0.1039
59160DOD     C221300  11.562  12.962  19.659 -0.0662 -0.0443  0.0494
59160DOD     C321301  11.227  13.318  19.695 -0.0695 -0.0969  0.0340
59161DOD     C121302  23.935  25.409  24.576  0.1416  0.2139  0.0037
59161DOD     C221303  23.604  25.235  24.248 -0.0913 -0.2958 -0.1935
59161DOD     C321304  23.626  25.299  23.742  0.2531  0.2645 -0.1265
59162DOD     C121305  21.238   2.730   1.255  0.0129 -0.0030 -0.2483
59162DOD     C221306  21.107   3.182   1.194  0.0703  0.0634 -0.2312
59162DOD     C321307  21.062   3.355   0.777  0.0628  0.3255 -0.1125
59163DOD     C121308  19.501  11.879   0.181  0.1029  0.0585  0.1116
59163DOD     C221309  19.324  12.110   0.550  0.1867  0.2346  0.0177
59163DOD     C321310  19.266  12.422   0.787 -0.3963  0.4281 -0.0331
59164DOD     C121311   0.612   4.879   3.414  0.2302 -0.0880 -0.1399
59164DOD     C221312   0.570   4.498   3.706  0.0396  0.2909  0.0656
59164DOD     C321313   0.474   4.404   4.155 -0.4628 -0.0254  0.3754
59165DOD     C121314  11.885   8.791  13.448 -0.1018  0.2396 -0.1141
59165DOD     C221315  12.033   8.587  13.124  0.0956 -0.0937 -0.1639
59165DOD     C321316  12.244   8.267  12.822  0.0122 -0.1162 -0.3714
59166DOD     C121317  22.851   1.493   8.391  0.3297 -0.0606  0.3460
59166DOD     C221318  23.329   1.521   8.355  0.1038 -0.1124  0.2218
59166DOD     C321319  23.748   1.327   8.541 -0.1052 -0.0509 -0.1423
59167DOD     C121320  25.604   8.389  23.123 -0.1461  0.0784  0.1099
59167DOD     C221321  25.389   8.446  22.707 -0.0841 -0.4649  0.0591
59167DOD     C321322  25.641   8.543  22.317  0.0732  0.1185 -0.0351
59168DOD     C121323  17.787   6.922   4.951  0.1928 -0.2010 -0.0419
59168DOD     C221324  17.796   6.711   5.351  0.1486  0.0983 -0.1239
59168DOD     C321325  17.696   6.679   5.755 -0.2349  0.0731 -0.0349
59169DOD     C121326  24.858  14.838  13.602 -0.1387 -0.1959 -0.2028
59169DOD     C221327  24.418  14.936  13.615  0.1130 -0.0892 -0.0252
59169DOD     C321328  24.244  15.368  13.590  0.1869  0.0760 -0.0802
59170DOD     C121329  29.307   9.947  20.229 -0.0409 -0.1371 -0.1949
59170DOD     C221330  28.938   9.727  20.427  0.4203 -0.0313 -0.1983
59170DOD     C321331  28.747   9.326  20.601 -0.1409  0.0801  0.1976
59171DOD     C121332  24.927   5.363  16.734 -0.1764 -0.1387  0.1592
59171DOD     C221333  24.881   5.016  17.072 -0.2863 -0.3120 -0.1169
59171DOD     C321334  24.561   4.720  17.223 -0.1498 -0.0025  0.2839
59172DOD     C121335   0.426   7.077   9.288 -0.0973 -0.1056 -0.1840
59172DOD     C221336   0.575   6.647   9.152 -0.0968  0.2356 -0.0085
59172DOD     C321337   0.383   6.266   9.032  0.0221 -0.0678  0.1336
59173DOD     C121338   9.520   0.056  25.909 -0.1062 -0.0258 -0.1926
59173DOD     C221339   9.259  29.956  25.858  0.1092  0.1444  0.0933
59173DOD     C321340   8.952  29.588  25.713  0.2057 -0.0796  0.4777
59174DOD     C121341  29.498   8.547   4.235 -0.1445  0.0700 -0.1984
59174DOD     C221342  29.639   8.437   4.628 -0.3807  0.1660 -0.0995
59174DOD     C321343  29.700   7.996   4.777  0.0020  0.1816 -0.0507
59175DOD     C121344   0.117  24.653  20.541  0.0184  0.1832  0.4446
59175DOD     C221345   0.495  24.966  20.555  0.0485 -0.2942 -0.1492
59175DOD     C321346   0.669  25.339  20.392 -0.1272 -0.0217 -0.1319
59176DOD     C121347   1.742   3.883  27.716  0.0309 -0.0895 -0.1122
59176DOD     C221348   2.192   3.934  27.786  0.2723  0.0673 -0.1536
59176DOD     C321349   2.698   3.909  27.897  0.3627  0.1617 -0.1383
59177DOD     C121350  25.541   1.008  15.423  0.0900 -0.2237 -0.2510
59177DOD     C221351  25.956   0.807  15.309  0.2031 -0.0187  0.1130
59177DOD     C321352  26.331   0.496  15.357  0.0789  0.1849  0.0421
59178DOD     C121353  10.531   4.014   1.997  0.1962  0.1217 -0.0835
59178DOD     C221354  10.888   4.219   1.907  0.2331  0.1417  0.0821
59178DOD     C321355  11.193   4.350   1.608 -0.2365 -0.0697  0.1581
59179DOD     C121356   8.236   1.973  22.755  0.0677  0.0612 -0.1976
59179DOD     C221357   8.587   2.022  22.472 -0.4384  0.1072 -0.1076
59179DOD     C321358   8.728   1.626  22.226 -0.0531 -0.3777  0.0955
59180DOD     C121359  29.642  23.598  10.682  0.2218 -0.0872  0.1487
59180DOD     C221360  29.297  23.902  10.723 -0.0376  0.2171 -0.1947
59180DOD     C321361  28.875  23.759  10.808 -0.0101 -0.3294  0.1709
59181DOD     C121362  16.250  23.046   7.733 -0.2054  0.2520  0.1167
59181DOD     C221363  16.595  23.396   7.636 -0.2437  0.0252 -0.3083
59181DOD     C321364  16.775  23.728   7.815 -0.2943  0.0094 -0.1648
59182DOD     C121365  17.485  21.558  21.648 -0.1928 -0.0446 -0.1104
59182DOD     C221366  17.520  22.081  21.745  0.2337  0.1070 -0.2451
59182DOD     C321367  17.482  22.344  22.086  0.1169 -0.3256  0.0813
59183DOD     C121368  24.875  21.939   8.667 -0.2143 -0.1655 -0.1686
59183DOD     C221369  24.502  21.738   8.482  0.2308 -0.0634 -0.1919
59183DOD     C321370  24.076  21.618   8.618 -0.0813 -0.2318 -0.2181
59184DOD     C121371  10.345   4.477   7.821 -0.2972 -0.2256  0.0745
59184DOD     C221372   9.953   4.612   8.051 -0.2530  0.1743  0.1510
59184DOD     C321373   9.530   4.562   8.245 -0.1125  0.0302 -0.2397
59185DOD     C121374   7.766  10.322  20.659 -0.1198 -0.2233  0.0562
59185DOD     C221375   7.770  10.449  21.065  0.1629  0.0939 -0.2285
59185DOD     C321376   7.932  10.399  21.499  0.1616 -0.1859 -0.3035
59186DOD     C121377  29.814  12.602   2.147  0.0267  0.0505  0.1101
59186DOD     C221378  29.365  12.566   2.220  0.2609  0.2286 -0.1102
59186DOD     C321379  29.079  12.520   1.879 -0.0832  0.0243 -0.4607
59187DOD     C121380   2.977  21.968  10.968  0.0938  0.0228  0.1143
59187DOD     C221381   3.097  21.899  10.538 -0.0974 -0.0427 -0.3131
59187DOD     C321382   3.022  21.588  10.171 -0.0076 -0.0859  0.0161
59188DOD     C121383   9.928  21.768  12.047 -0.0557 -0.1484  0.0871
59188DOD     C221384   9.726  21.972  11.672 -0.1495 -0.1521 -0.1554
59188DOD     C321385   9.491  21.842  11.304  0.1898  0.3245  0.1160
59189DOD     C121386  14.385  17.450   5.138 -0.0805  0.0909 -0.4018
59189DOD     C221387  14.476  17.050   4.902 -0.0925  0.0435  0.0651
59189DOD     C321388  14.488  16.586   4.795 -0.0290  0.1007 -0.2201
59190DOD     C121389   9.624   1.900  12.012  0.2011 -0.0468  0.2241
59190DOD     C221390   9.509   1.586  11.683  0.2404 -0.3349  0.1715
59190DOD     C321391   9.577   1.340  11.334  0.1807  0.1016  0.5436
59191DOD     C121392  24.592  22.698  29.204 -0.1004  0.0564  0.0095
59191DOD     C221393  24.418  22.267  28.980  0.2665  0.3739  0.2040
59191DOD     C321394  24.271  21.875  28.676  0.0626  0.0266  0.0121
59192DOD     C121395   2.276   5.611   1.763  0.0198  0.2509 -0.2187
59192DOD     C221396   2.783   5.634   1.890  0.0437 -0.0228  0.0977
59192DOD     C321397   3.072   5.800   2.236  0.1692 -0.0889 -0.2327
59193DOD     C121398   3.053  26.542  14.797 -0.0834  0.1549 -0.2403
59193DOD     C221399   2.620  26.396  14.930  0.2486 -0.2762 -0.1754
59193DOD     C321400   2.136  26.426  14.911 -0.1244  0.1242 -0.1144
59194DOD     C121401  25.617  21.166  23.233  0.0959 -0.0972 -0.0181
59194DOD     C221402  25.272  21.235  23.539  0.1271  0.1092  0.0178
59194DOD     C321403  24.922  21.531  23.583 -0.3329  0.0829  0.5365
59195DOD     C121404  22.134  23.771  27.674 -0.1453 -0.0574 -0.0364
59195DOD     C221405  22.022  23.776  27.217 -0.1114  0.0521  0.3044
59195DOD     C321406  22.100  23.596  26.733 -0.1928 -0.2962  0.2069
59196DOD     C121407  13.158   6.142   7.908  0.2237  0.3297 -0.0465
59196DOD     C221408  13.175   6.253   8.376 -0.4160  0.1403  0.0379
59196DOD     C321409  13.478   6.515   8.652 -0.0841  0.0437  0.3377
59197DOD     C121410  21.206  20.788  27.112  0.1449 -0.0887 -0.0174
59197DOD     C221411  20.859  20.873  26.845 -0.0409  0.1066  0.1053
59197DOD     C321412  20.598  20.552  26.589 -0.1028 -0.0500  0.0648
59198DOD     C121413  12.485   6.428   0.279  0.0857  0.1445  0.0561
59198DOD     C221414  12.750   6.413  30.221 -0.1853 -0.0080 -0.0811
59198DOD     C321415  13.013   6.540  29.854 -0.4635  0.0965 -0.1005
59199DOD     C121416  18.995  22.343  12.866  0.0872  0.1382  0.4056
59199DOD     C221417  19.183  22.337  13.277  0.3284  0.1714 -0.2330
59199DOD     C321418  19.340  22.022  13.585  0.2597  0.2666  0.2183
59200DOD     C121419   1.398   9.337  24.823 -0.1997  0.0151  0.0336
59200DOD     C221420   1.662   9.526  24.443 -0.0643  0.0944 -0.3510
59200DOD     C321421   1.976   9.629  24.155  0.0571 -0.4881 -0.1756
59201DOD     C121422  25.792   1.267  13.193 -0.1213 -0.0582 -0.0781
59201DOD     C221423  25.783   1.413  12.779 -0.1265 -0.3681 -0.0006
59201DOD     C321424  26.009   1.402  12.368  0.1249  0.2200 -0.1151
59202DOD     C121425  15.347   4.190   2.032  0.3792 -0.0673  0.0707
59202DOD     C221426  15.541   3.799   1.861  0.1562 -0.0241  0.0877
59202DOD     C321427  15.854   3.707   1.558  0.0375 -0.2554 -0.0619
59203DOD     C121428  23.885   7.728  29.072 -0.1318 -0.3231 -0.0123
59203DOD     C221429  24.060   7.535  29.483  0.1196 -0.0125  0.0507
59203DOD     C321430  24.185   7.061  29.629  0.2066  0.0083 -0.0337
59204DOD     C121431  10.758   7.880   5.310  0.1408 -0.1001  0.0284
59204DOD     C221432  10.565   8.320   5.457  0.2559  0.0636  0.1647
59204DOD     C321433  10.316   8.710   5.243 -0.2434  0.0995 -0.0531
59205DOD     C121434   2.697  26.103  26.126  0.1823 -0.0871  0.2999
59205DOD     C221435   2.921  26.393  25.782 -0.3024 -0.4163  0.0721
59205DOD     C321436   3.226  26.569  25.473 -0.3005 -0.0935  0.1153
59206DOD     C121437  29.121   6.832   2.388  0.1915  0.2899 -0.0516
59206DOD     C221438  28.991   6.381   2.447 -0.0738  0.4242 -0.1050
59206DOD     C321439  28.916   5.965   2.611  0.0081  0.1877  0.2423
59207DOD     C121440   5.756   6.693   8.134 -0.0438  0.0992  0.0987
59207DOD     C221441   5.636   7.176   8.128  0.0981 -0.1852 -0.0860
59207DOD     C321442   5.536   7.570   8.297  0.0306 -0.4713  0.0318
59208DOD     C121443  20.703  19.702  14.740 -0.2976 -0.0494 -0.3886
59208DOD     C221444  20.813  19.281  14.905  0.0759 -0.0197  0.2183
59208DOD     C321445  21.208  19.062  14.932  0.1047  0.3275  0.0777
59209DOD     C121446  10.952   8.346   0.842  0.1132 -0.0444  0.2897
59209DOD     C221447  10.753   8.268   1.263  0.0006 -0.0695 -0.0110
59209DOD     C321448  10.442   8.334   1.683  0.2160  0.3081  0.3476
59210DOD     C121449   6.673  22.539   2.563  0.2299  0.2552  0.2906
59210DOD     C221450   6.337  22.809   2.511  0.1290  0.2933  0.0643
59210DOD     C321451   6.112  23.078   2.304 -0.2717 -0.1211  0.0373
59211DOD     C121452  26.902   7.182   6.185  0.0051  0.2388  0.4487
59211DOD     C221453  26.833   7.557   5.970  0.2696 -0.0659 -0.3554
59211DOD     C321454  26.769   8.019   6.157  0.1262  0.0299 -0.1281
59212DOD     C121455   8.447   6.537   5.125  0.1834 -0.2644  0.1361
59212DOD     C221456   8.460   6.804   4.722  0.1921 -0.0417 -0.0514
59212DOD     C321457   8.560   6.981   4.317 -0.3390 -0.0173 -0.0426
59213DOD     C121458  28.405  20.257  27.334 -0.0630  0.1350  0.0264
59213DOD     C221459  28.346  20.419  27.786 -0.0581 -0.0398  0.0666
59213DOD     C321460  28.229  20.329  28.243  0.1435 -0.0852 -0.2832
59214DOD     C121461  25.957  11.659  22.226  0.2096  0.4687 -0.3495
59214DOD     C221462  25.660  11.717  22.593 -0.1033 -0.0298 -0.2730
59214DOD     C321463  25.546  11.617  23.084 -0.1132 -0.0079  0.2764
59215DOD     C121464  28.079   7.199  24.364 -0.0254 -0.0237 -0.2154
59215DOD     C221465  27.990   7.547  24.096  0.1018 -0.1343  0.0833
59215DOD     C321466  28.153   7.916  23.834  0.2218  0.0442 -0.1308
59216DOD     C121467  21.822   2.147  13.850  0.1252  0.3678  0.1782
59216DOD     C221468  21.874   2.528  13.885  0.2568 -0.1876 -0.1362
59216DOD     C321469  21.868   3.006  13.896  0.2674  0.0759  0.0321
59217DOD     C121470   2.351   4.960  21.776 -0.2653 -0.0201  0.1064
59217DOD     C221471   1.894   5.018  21.870 -0.0508  0.0900 -0.0777
59217DOD     C321472   1.471   5.017  21.779  0.1643 -0.0682 -0.1238
59218DOD     C121473  10.162  17.687   0.780  0.1803 -0.0230 -0.3224
59218DOD     C221474  10.491  17.600   1.155  0.2032  0.1033 -0.1224
59218DOD     C321475  10.533  17.251   1.473 -0.1100  0.0481  0.1891
59219DOD     C121476  17.990  27.679  15.842  0.0601 -0.0063  0.0104
59219DOD     C221477  18.421  27.856  15.725  0.0629 -0.0525 -0.2181
59219DOD     C321478  18.775  27.588  15.578 -0.1875  0.1958  0.0188
59220DOD     C121479   6.194  18.756  24.464  0.0985 -0.1327 -0.0603
59220DOD     C221480   6.344  18.971  24.849  0.0909 -0.0405 -0.0404
59220DOD     C321481   6.344  19.106  25.288 -0.0755  0.0878  0.0281
59221DOD     C121482   3.662   5.910   9.370  0.1278 -0.0745 -0.0323
59221DOD     C221483   3.449   6.174   9.672  0.0536  0.0390 -0.3684
59221DOD     C321484   3.548   6.375  10.085 -0.0206  0.1045  0.1192
59222DOD     C121485   5.401  27.998  15.238 -0.1556  0.1205  0.0527
59222DOD     C221486   5.817  28.148  15.404 -0.1804 -0.1628  0.1198
59222DOD     C321487   6.217  28.395  15.595 -0.0923  0.2283 -0.2421
59223DOD     C121488  24.221  18.659  12.301  0.0041  0.3303  0.0316
59223DOD     C221489  24.065  19.032  12.038  0.3292  0.1299 -0.0919
59223DOD     C321490  24.358  19.389  12.006  0.3219 -0.1191 -0.0774
59224DOD     C121491  17.152   0.214  22.996  0.3930 -0.1107  0.1585
59224DOD     C221492  16.811   0.065  22.709 -0.4280 -0.2936  0.3752
59224DOD     C321493  16.579  29.951  22.674 -0.3083 -0.3051 -0.4332
59225DOD     C121494  24.728  15.909   2.747  0.0092 -0.1676  0.0307
59225DOD     C221495  25.116  16.183   2.876 -0.0417 -0.2760 -0.0274
59225DOD     C321496  25.032  16.472   3.191 -0.0035  0.0571 -0.2010
59226DOD     C121497  15.620  23.121  16.155 -0.0145 -0.1626 -0.0166
59226DOD     C221498  15.928  22.819  16.359 -0.1944  0.0968 -0.0631
59226DOD     C321499  16.283  22.872  16.673 -0.0769 -0.3890 -0.1696
59227DOD     C121500  14.600  29.535  28.663 -0.1535  0.4296  0.0126
59227DOD     C221501  14.888  29.269  28.403 -0.1542 -0.1930  0.3513
59227DOD     C321502  14.953  29.201  27.932  0.3238 -0.1318 -0.2706
59228DOD     C121503   1.271   2.020  24.793 -0.2910  0.0778  0.0345
59228DOD     C221504   1.584   1.829  24.531  0.0663 -0.1155 -0.0995
59228DOD     C321505   1.949   1.807  24.301  0.0237 -0.0049 -0.0622
59229DOD     C121506  20.091   2.600  27.043  0.3266  0.2486  0.0820
59229DOD     C221507  20.469   2.934  27.176  0.3905 -0.1205 -0.1259
59229DOD     C321508  20.556   3.418  27.172  0.1702  0.1174 -0.1629
59230DOD     C121509  23.916   5.594  12.896  0.0092  0.0214 -0.1048
59230DOD     C221510  23.937   5.893  13.228 -0.0894 -0.1057 -0.1232
59230DOD     C321511  24.027   6.410  13.310  0.0474 -0.1238 -0.1905
59231DOD     C121512  14.601  23.912   5.966 -0.0647 -0.3727 -0.0781
59231DOD     C221513  14.753  24.394   6.041 -0.3203  0.2507 -0.1067
59231DOD     C321514  14.549  24.754   6.121  0.0815 -0.3074 -0.1369
59232DOD     C121515  11.668  29.079  15.367  0.0592  0.1442 -0.0049
59232DOD     C221516  11.263  29.037  15.562  0.3680 -0.0156  0.3366
59232DOD     C321517  11.154  28.818  15.984  0.1030  0.1233  0.1390
59233DOD     C121518  20.574  12.664   1.183 -0.0836 -0.0260 -0.0996
59233DOD     C221519  20.967  12.893   1.365 -0.1342 -0.0131 -0.1533
59233DOD     C321520  21.310  13.141   1.369 -0.3706  0.0573  0.2841
59234DOD     C121521   9.549  23.261   4.959  0.1938 -0.2302  0.1468
59234DOD     C221522   9.467  23.022   5.325  0.1805 -0.1810 -0.0171
59234DOD     C321523   9.507  22.709   5.637  0.1428  0.2513  0.0168
59235DOD     C121524  18.272   4.641   5.333  0.2158  0.0808  0.0948
59235DOD     C221525  18.015   4.410   5.622  0.1016 -0.1727 -0.1468
59235DOD     C321526  18.062   3.997   5.862  0.1230  0.0121  0.2208
59236DOD     C121527   3.022   6.632  17.086 -0.1446  0.0046 -0.0683
59236DOD     C221528   2.649   6.930  16.964  0.0487  0.2716 -0.0155
59236DOD     C321529   2.213   7.127  16.976  0.0482 -0.0960  0.1222
59237DOD     C121530  11.800   3.602   1.402 -0.1292 -0.1769 -0.3131
59237DOD     C221531  11.970   3.517   0.983  0.0799 -0.0191  0.0216
59237DOD     C321532  12.067   3.172   0.616 -0.0680  0.2379 -0.3694
59238DOD     C121533  20.890  23.799   0.648 -0.1114  0.1832  0.0036
59238DOD     C221534  20.685  23.539   0.991 -0.0558  0.0043 -0.0318
59238DOD     C321535  20.319  23.196   0.984 -0.2378  0.1041 -0.1391
59239DOD     C121536  25.062   7.210  13.799 -0.0870 -0.0121 -0.2495
59239DOD     C221537  25.096   6.819  14.036 -0.1686 -0.0667 -0.1318
59239DOD     C321538  25.005   6.453  14.364 -0.3129  0.1955  0.0372
59240DOD     C121539  28.492   8.557  21.777  0.0967  0.2203 -0.3729
59240DOD     C221540  28.336   8.959  22.055 -0.1347  0.0072  0.1468
59240DOD     C321541  28.237   9.296  22.309  0.0148  0.2253  0.0687
59241DOD     C121542  16.920  14.401  29.770  0.1238 -0.2140 -0.0346
59241DOD     C221543  17.349  14.455  29.981 -0.2535 -0.2272 -0.1241
59241DOD     C321544  17.757  14.502  30.176  0.2811  0.3360  0.1413
59242DOD     C121545  25.698  11.084  27.601  0.3435  0.0269 -0.2090
59242DOD     C221546  25.723  10.621  27.687  0.0038  0.3451 -0.2300
59242DOD     C321547  25.518  10.162  27.660  0.0477 -0.1429  0.2399
59243DOD     C121548  16.627  29.530  19.999 -0.2644  0.0168  0.0598
59243DOD     C221549  16.549  29.557  19.546  0.1544 -0.2593  0.1129
59243DOD     C321550  16.615  29.535  19.085  0.1802 -0.1384  0.2531
59244DOD     C121551   3.418  22.835  19.786  0.2116 -0.0666 -0.2303
59244DOD     C221552   3.404  22.764  20.268 -0.0572 -0.0527  0.1090
59244DOD     C321553   3.289  22.558  20.631  0.0295  0.0838 -0.1972
59245DOD     C121554  25.606  29.077   3.910 -0.3123  0.1968 -0.0780
59245DOD     C221555  25.266  29.237   4.091  0.1932  0.0107  0.0157
59245DOD     C321556  25.187  29.418   4.487 -0.1188 -0.1139 -0.2723
59246DOD     C121557   7.117  15.603  10.876  0.3293 -0.1526  0.1660
59246DOD     C221558   7.017  15.932  11.185 -0.0649 -0.2266  0.1891
59246DOD     C321559   6.621  16.043  11.398  0.2040  0.1452  0.2213
59247DOD     C121560   0.797  21.025  28.194 -0.0844 -0.0527 -0.3497
59247DOD     C221561   1.239  21.176  28.395  0.0001  0.0229 -0.0769
59247DOD     C321562   1.640  21.443  28.515 -0.0768  0.1416  0.0986
59248DOD     C121563   8.313  26.802  26.528  0.0893  0.0703  0.0660
59248DOD     C221564   8.138  26.500  26.828 -0.0398  0.0703  0.0979
59248DOD     C321565   7.837  26.154  26.812 -0.3266  0.1816  0.1089
59249DOD     C121566   1.560  23.035  12.951 -0.1670 -0.0107  0.1941
59249DOD     C221567   1.914  22.817  13.171  0.3789 -0.1248  0.3407
59249DOD     C321568   2.124  22.483  13.233 -0.2133  0.2056  0.1411
59250DOD     C121569  17.970  26.405   6.109 -0.0350  0.2802  0.0876
59250DOD     C221570  18.305  26.639   6.317  0.0436  0.0918  0.0697
59250DOD     C321571  18.692  26.905   6.252 -0.2183  0.2157  0.1481
59251DOD     C121572   8.787  27.177   8.354 -0.1548 -0.1398  0.2733
59251DOD     C221573   8.966  26.723   8.322  0.0814 -0.1521 -0.1054
59251DOD     C321574   9.303  26.601   8.606  0.1558  0.2187 -0.0864
59252DOD     C121575  21.346   4.710   7.889  0.0842 -0.0228  0.0922
59252DOD     C221576  21.020   5.042   7.860  0.2152 -0.1408 -0.0271
59252DOD     C321577  20.744   5.413   8.036  0.0504  0.1056  0.2198
59253DOD     C121578   3.680   0.275  26.858 -0.2261 -0.0970  0.1017
59253DOD     C221579   3.449   0.680  27.029  0.0795 -0.2020  0.1078
59253DOD     C321580   3.633   0.968  27.399 -0.1439 -0.2010 -0.0770
59254DOD     C121581  -0.011  13.318  23.513 -0.2303 -0.0046 -0.1757
59254DOD     C221582  30.318  13.118  23.039  0.3630 -0.2588  0.1773
59254DOD     C321583   0.159  13.076  22.624  0.2884 -0.0408 -0.0014
59255DOD     C121584   3.733  22.036  14.257  0.0236  0.0699  0.0131
59255DOD     C221585   3.603  22.367  13.928  0.1770 -0.0383 -0.1371
59255DOD     C321586   3.523  22.824  14.001 -0.0336  0.0184 -0.1467
59256DOD     C121587  24.207  13.234  22.026 -0.1313  0.0695 -0.0922
59256DOD     C221588  23.754  13.061  22.087 -0.2181 -0.0376  0.2047
59256DOD     C321589  23.346  13.212  22.346 -0.1564 -0.1014 -0.2431
59257DOD     C121590  13.958  19.092  25.238 -0.3474 -0.1358 -0.1947
59257DOD     C221591  14.055  18.598  25.171  0.0423  0.1241 -0.2918
59257DOD     C321592  14.233  18.345  24.809 -0.1549  0.3821 -0.0040
59258DOD     C121593  28.039  17.298   3.362  0.0974 -0.1610 -0.1159
59258DOD     C221594  28.098  17.754   3.306  0.0361  0.2299 -0.2975
59258DOD     C321595  28.126  18.246   3.474 -0.1818  0.3143  0.1240
59259DOD     C121596  22.412  17.457  26.402 -0.0841 -0.1792  0.2331
59259DOD     C221597  22.486  16.979  26.456  0.0382 -0.1195  0.1799
59259DOD     C321598  22.789  16.632  26.497 -0.0312 -0.1763  0.0011
59260DOD     C121599  10.205  24.221   6.015  0.1095  0.1348 -0.1031
59260DOD     C221600  10.637  24.111   6.273 -0.0013  0.3249  0.0292
59260DOD     C321601  10.874  23.736   6.432  0.1001  0.0482  0.2262
59261DOD     C121602  23.737   1.117  26.138 -0.0855 -0.1056  0.2201
59261DOD     C221603  24.110   1.049  25.907 -0.2291  0.0710 -0.1263
59261DOD     C321604  24.383   0.947  25.547  0.2947 -0.1999  0.0667
59262DOD     C121605  19.015  27.182   3.432  0.1524  0.0679 -0.1309
59262DOD     C221606  18.737  26.893   3.753 -0.0287  0.0889 -0.1057
59262DOD     C321607  18.490  26.602   4.005 -0.1935 -0.2253 -0.1059
59263DOD     C121608  15.444  25.961  15.686  0.0559 -0.1570  0.0358
59263DOD     C221609  15.044  25.747  15.813 -0.0425  0.4388  0.0628
59263DOD     C321610  14.684  26.056  15.971 -0.0772 -0.1309 -0.0515
59264DOD     C121611  26.563   2.507  29.845  0.3095  0.0941 -0.1286
59264DOD     C221612  26.126   2.294  29.935 -0.0488  0.1027  0.3390
59264DOD     C321613  25.865   2.022  29.626 -0.0761 -0.0831  0.0269
59265DOD     C121614  10.055  23.253  15.810 -0.0170  0.2112 -0.0656
59265DOD     C221615   9.588  23.051  15.730 -0.1525  0.1063 -0.0338
59265DOD     C321616   9.149  22.874  15.846  0.0209 -0.0428  0.1538
59266DOD     C121617   2.949  25.827  19.545  0.3744 -0.3877  0.0270
59266DOD     C221618   2.812  25.368  19.607  0.2096 -0.2344 -0.0153
59266DOD     C321619   2.761  24.929  19.638 -0.1342  0.3028  0.0225
59267DOD     C121620  23.883  15.544  18.703 -0.0623  0.1395 -0.1810
59267DOD     C221621  23.722  15.800  18.386 -0.1552 -0.2142  0.2963
59267DOD     C321622  23.941  16.124  18.178 -0.1736  0.2588  0.1297
59268DOD     C121623  11.253  16.232   5.101 -0.0262  0.0185 -0.1865
59268DOD     C221624  11.654  15.992   4.983  0.3052  0.1210  0.2079
59268DOD     C321625  12.094  15.833   5.020  0.0393 -0.0859 -0.1117
59269DOD     C121626  25.395  22.673   7.127 -0.0578 -0.0678 -0.1050
59269DOD     C221627  25.847  22.725   6.976  0.2103  0.0761 -0.1619
59269DOD     C321628  26.275  22.689   6.860  0.1619 -0.1683  0.1054
59270DOD     C121629  21.570   6.688  20.065  0.1008  0.0491  0.0226
59270DOD     C221630  22.013   6.573  20.180  0.1664 -0.0282  0.0343
59270DOD     C321631  22.480   6.700  20.222 -0.0487 -0.0223 -0.0383
59271DOD     C121632  11.651  15.718   1.855 -0.3320  0.0229  0.1578
59271DOD     C221633  11.988  15.906   2.091 -0.0580 -0.1189  0.0332
59271DOD     C321634  12.396  16.054   2.279  0.0457  0.2041  0.0797
59272DOD     C121635  21.679  17.561  29.438  0.0324  0.1035 -0.0765
59272DOD     C221636  21.308  17.359  29.284  0.1826  0.1866  0.3706
59272DOD     C321637  20.929  17.457  29.023  0.2729  0.1525 -0.2388
59273DOD     C121638  12.097  25.755  26.565  0.2194  0.0223  0.2775
59273DOD     C221639  11.853  25.993  26.228  0.2219  0.3202  0.1341
59273DOD     C321640  11.420  26.006  26.153 -0.1691 -0.2360 -0.1088
59274DOD     C121641   7.515  20.228  25.819 -0.0567 -0.0524 -0.1026
59274DOD     C221642   7.745  20.208  26.232 -0.0956  0.2031  0.1106
59274DOD     C321643   8.013  20.201  26.585 -0.2295  0.1125  0.1423
59275DOD     C121644  30.236  16.414  16.026  0.2156 -0.0708 -0.1648
59275DOD     C221645  29.971  16.781  16.068 -0.0073 -0.1593  0.2086
59275DOD     C321646  29.624  16.884  16.302  0.2745 -0.2720 -0.2001
59276DOD     C121647   5.407  20.108  12.078 -0.3361  0.2897  0.0110
59276DOD     C221648   5.598  20.543  12.064 -0.0281  0.1379 -0.1208
59276DOD     C321649   5.555  20.977  12.139 -0.0563 -0.0506 -0.2274
59277DOD     C121650  21.816  15.738  19.794 -0.1225 -0.1950 -0.2708
59277DOD     C221651  22.080  16.036  19.489 -0.0910 -0.0772 -0.1336
59277DOD     C321652  21.912  16.245  19.063 -0.3577 -0.5259  0.1050
59278DOD     C121653  22.948  22.421   5.346 -0.1685 -0.1338 -0.2454
59278DOD     C221654  22.974  22.594   4.873  0.1076 -0.0768  0.2496
59278DOD     C321655  22.728  22.957   4.694 -0.1549 -0.0127 -0.2052
59279DOD     C121656   4.016  18.771   3.438 -0.1495  0.2011 -0.3976
59279DOD     C221657   4.457  18.947   3.515  0.0309  0.4840 -0.2835
59279DOD     C321658   4.892  18.698   3.645  0.1742  0.1087  0.0524
59280DOD     C121659  11.730  27.919   8.399  0.0720  0.1185  0.1961
59280DOD     C221660  11.936  28.309   8.256  0.1100 -0.1606 -0.0568
59280DOD     C321661  11.932  28.687   7.931 -0.1436 -0.2188 -0.1868
59281DOD     C121662  14.856   2.798  21.843 -0.0838  0.3877 -0.0125
59281DOD     C221663  15.052   3.034  22.108 -0.2083 -0.0167  0.0791
59281DOD     C321664  15.299   2.693  22.200 -0.1693  0.1000  0.1024
59282DOD     C121665  28.563   8.058  25.490 -0.0137  0.0539  0.1835
59282DOD     C221666  28.866   8.167  25.122  0.1904 -0.2651  0.1801
59282DOD     C321667  29.160   8.413  24.825  0.1258  0.2881 -0.0348
59283DOD     C121668  18.583  30.012  19.578  0.1607  0.1092  0.0700
59283DOD     C221669  18.783   0.156  19.456  0.2556  0.2627 -0.3901
59283DOD     C321670  18.884   0.561  19.695  0.0352  0.0596 -0.0223
59284DOD     C121671  21.616   1.607  21.441 -0.0903 -0.1621 -0.0300
59284DOD     C221672  22.083   1.553  21.327 -0.0022 -0.2834  0.0156
59284DOD     C321673  22.521   1.507  21.365 -0.1452 -0.0365 -0.1191
59285DOD     C121674   9.591  -0.002  10.668  0.3650 -0.4045  0.0871
59285DOD     C221675   9.127  30.248  10.622  0.0895  0.2743  0.2455
59285DOD     C321676   8.736  29.976  10.715  0.4270 -0.0535 -0.1223
59286DOD     C121677  22.214   8.205  24.831  0.1230 -0.3205 -0.3858
59286DOD     C221678  21.992   8.319  25.227 -0.0590  0.1336  0.2146
59286DOD     C321679  21.551   8.480  25.264  0.1792  0.2285 -0.1875
59287DOD     C121680  15.956  20.242  22.869  0.0655 -0.0930 -0.0343
59287DOD     C221681  16.023  20.641  22.717  0.1879 -0.1733  0.0676
59287DOD     C321682  15.931  21.005  22.960  0.0519  0.0422  0.0736
59288DOD     C121683  15.638  25.108  12.696  0.2624 -0.0897 -0.3655
59288DOD     C221684  15.513  25.241  13.108 -0.0354 -0.2375 -0.0986
59288DOD     C321685  15.204  25.578  13.206  0.0337  0.0449 -0.0518
59289DOD     C121686  12.859  25.116  12.103 -0.2195  0.1428  0.1130
59289DOD     C221687  13.134  24.944  11.688  0.2499 -0.0797 -0.2211
59289DOD     C321688  13.019  24.878  11.262  0.3248 -0.1184 -0.2909
59290DOD     C121689   7.181  27.775  19.813 -0.3013 -0.0416  0.1137
59290DOD     C221690   6.828  27.596  19.607  0.0505 -0.1155  0.1735
59290DOD     C321691   6.878  27.362  19.186  0.1153 -0.0882  0.2564
59291DOD     C121692  28.321  27.103   8.613 -0.0870 -0.1606 -0.0015
59291DOD     C221693  28.450  26.610   8.472  0.3120  0.1817  0.1898
59291DOD     C321694  28.531  26.166   8.260  0.0352  0.2734 -0.2088
59292DOD     C121695   9.324   5.215   7.464 -0.1236 -0.1621 -0.2462
59292DOD     C221696   9.455   5.403   7.046  0.3676 -0.1586  0.3449
59292DOD     C321697   9.463   5.752   6.718  0.0856  0.0890  0.0988
59293DOD     C121698  30.026   5.109  17.623 -0.1067 -0.4677  0.2837
59293DOD     C221699  29.795   5.501  17.705 -0.1724 -0.2098  0.5320
59293DOD     C321700  29.622   5.821  17.980  0.3277 -0.1887  0.2074
59294DOD     C121701  27.701   0.996  25.269  0.0481  0.0976  0.0242
59294DOD     C221702  27.394   0.723  25.061  0.0178  0.0115 -0.1913
59294DOD     C321703  27.141   0.471  24.785 -0.3544  0.0813 -0.2390
59295DOD     C121704   3.099  18.949  10.706  0.1463  0.1447 -0.1045
59295DOD     C221705   3.464  19.256  10.737  0.1169  0.2982 -0.0727
59295DOD     C321706   3.816  19.453  10.945  0.3210 -0.1612 -0.1276
59296DOD     C121707   9.992  24.001   9.118  0.0950  0.0791  0.3329
59296DOD     C221708  10.419  23.766   9.050  0.0324  0.3137 -0.0256
59296DOD     C321709  10.664  23.456   9.278 -0.0467 -0.1550  0.0168
59297DOD     C121710  23.873  29.320  19.388 -0.0511 -0.1497 -0.1514
59297DOD     C221711  23.607  29.634  19.596 -0.0411 -0.3363  0.0482
59297DOD     C321712  23.572  30.074  19.570  0.2141 -0.0032 -0.0878
59298DOD     C121713   2.030  14.802  27.126 -0.2861 -0.3046 -0.0162
59298DOD     C221714   2.429  14.729  27.366 -0.0119  0.0021 -0.0029
59298DOD     C321715   2.585  14.651  27.832 -0.1743  0.0482  0.2025
59299DOD     C121716  24.735   8.893  21.406 -0.0667  0.2455 -0.0776
59299DOD     C221717  24.565   8.602  21.118  0.0622 -0.3322  0.3574
59299DOD     C321718  24.750   8.288  20.834 -0.1671  0.2040  0.0518
59300DOD     C121719   8.949  24.299  26.394 -0.0345 -0.0973  0.0343
59300DOD     C221720   9.144  24.046  26.085  0.1653  0.0405 -0.0183
59300DOD     C321721   9.462  23.706  25.931 -0.2521  0.0365  0.0265
59301DOD     C121722  25.479   8.557  15.553 -0.1985 -0.1838  0.2068
59301DOD     C221723  25.442   8.112  15.462 -0.0336 -0.3217  0.1061
59301DOD     C321724  25.444   7.628  15.622 -0.0046  0.1049 -0.0094
59302DOD     C121725  25.083  10.563  10.617  0.0208 -0.0666 -0.1371
59302DOD     C221726  25.449  10.461  10.880 -0.2073 -0.1385 -0.1267
59302DOD     C321727  25.879  10.240  10.853  0.1687 -0.2645  0.0329
59303DOD     C121728  12.894  20.286  28.956 -0.1847 -0.1575  0.1800
59303DOD     C221729  13.156  19.945  28.706  0.0864 -0.1643 -0.3426
59303DOD     C321730  13.537  19.670  28.747 -0.1335  0.2362 -0.4888
59304DOD     C121731   3.602  19.119   8.632 -0.0040 -0.2574  0.1353
59304DOD     C221732   3.657  19.590   8.545 -0.0882  0.0652 -0.1982
59304DOD     C321733   3.749  20.035   8.546 -0.1653 -0.0152  0.0076
59305DOD     C121734  22.660  18.534  11.752  0.0791 -0.1001 -0.0005
59305DOD     C221735  22.454  18.954  11.768 -0.3792 -0.2250  0.0797
59305DOD     C321736  22.379  19.356  11.523  0.1262  0.2873 -0.0607
59306DOD     C121737  29.323  15.478  10.311 -0.2333  0.2362 -0.0630
59306DOD     C221738  29.208  15.914  10.240  0.0550  0.0825 -0.1034
59306DOD     C321739  29.073  16.309  10.463  0.2134  0.1152 -0.1121
59307DOD     C121740   0.160  15.667  28.848  0.0059 -0.1042  0.1453
59307DOD     C221741   0.462  15.395  29.030  0.1295 -0.3800  0.1670
59307DOD     C321742   0.908  15.240  28.934 -0.1388  0.0738  0.4063
59308DOD     C121743  15.907  20.069  19.610 -0.2006 -0.0529 -0.1794
59308DOD     C221744  16.000  20.055  19.153 -0.1360  0.0518  0.1760
59308DOD     C321745  16.096  20.008  18.694  0.0026  0.2002  0.2057
59309DOD     C121746  20.194  11.139   4.866 -0.0664 -0.3732  0.0149
59309DOD     C221747  19.972  10.805   4.659 -0.3890 -0.3781 -0.2412
59309DOD     C321748  19.905  10.420   4.934 -0.1933  0.2555  0.1323
59310DOD     C121749  28.803   3.735  18.889 -0.0495 -0.0929 -0.1105
59310DOD     C221750  29.104   3.795  18.627 -0.0662 -0.1587 -0.4193
59310DOD     C321751  29.315   4.182  18.523  0.1945  0.3333  0.1977
59311DOD     C121752   2.461  24.959  24.272 -0.2846  0.0776 -0.4843
59311DOD     C221753   2.940  24.877  24.198  0.2331  0.0485  0.0743
59311DOD     C321754   3.298  24.638  24.389 -0.2792 -0.1115 -0.0266
59312DOD     C121755  16.916  17.555  29.350 -0.2141 -0.2390  0.3349
59312DOD     C221756  17.065  17.172  29.083 -0.0484 -0.2766 -0.0697
59312DOD     C321757  17.276  16.761  29.075  0.1934 -0.1535 -0.0840
59313DOD     C121758  30.025  15.365  20.546 -0.0363 -0.0617 -0.2826
59313DOD     C221759   0.112  15.583  20.647 -0.0470 -0.1030  0.1255
59313DOD     C321760   0.562  15.505  20.362  0.0249 -0.1275 -0.1470
59314DOD     C121761   9.319  25.061  26.257 -0.3061  0.3215 -0.2888
59314DOD     C221762   9.016  25.329  25.923 -0.1971 -0.2863 -0.0998
59314DOD     C321763   8.816  25.407  25.525  0.3583 -0.1996 -0.0661
59315DOD     C121764   9.550  21.838  15.128 -0.1483  0.1487  0.0671
59315DOD     C221765   9.447  21.942  15.539  0.1722  0.0368  0.1467
59315DOD     C321766   8.993  22.136  15.701  0.0955  0.0067 -0.0133
59316DOD     C121767  28.633  21.175  17.401  0.0181  0.0571 -0.0243
59316DOD     C221768  28.414  21.257  16.960 -0.0161 -0.0941 -0.2773
59316DOD     C321769  28.077  21.282  16.614 -0.2423 -0.0946 -0.0255
59317DOD     C121770  24.179  18.826   3.701 -0.0375 -0.0266  0.0629
59317DOD     C221771  24.450  18.625   4.003  0.2402  0.2054 -0.3511
59317DOD     C321772  24.339  18.265   4.292  0.3674 -0.0869 -0.1313
59318DOD     C121773  29.869  16.768  23.225 -0.1387  0.0286 -0.3511
59318DOD     C221774  29.583  16.402  23.387 -0.0499  0.1140 -0.0331
59318DOD     C321775  29.285  15.978  23.406  0.0565 -0.2416 -0.0166
59319DOD     C121776  20.124   9.737  25.719 -0.0866  0.2016 -0.0786
59319DOD     C221777  20.002   9.737  25.272 -0.1325  0.1307 -0.1856
59319DOD     C321778  20.050   9.508  24.875 -0.1647 -0.1743 -0.1140
59320DOD     C121779  21.199   1.517   7.988 -0.1338 -0.1337 -0.1287
59320DOD     C221780  21.621   1.771   8.018 -0.0074 -0.2686  0.2337
59320DOD     C321781  21.749   2.227   7.992  0.0602  0.2394 -0.0691
59321DOD     C121782   5.804   0.359  29.369  0.2128 -0.0809 -0.0922
59321DOD     C221783   5.630   0.116  29.003  0.2550 -0.0459  0.0336
59321DOD     C321784   5.562  30.163  28.617  0.0246  0.1964  0.1482
59322DOD     C121785  25.377  10.114  29.489  0.0217  0.0477  0.0165
59322DOD     C221786  25.721  10.132  29.780 -0.0347  0.2501  0.1497
59322DOD     C321787  25.917   9.906  30.135  0.1752 -0.3412  0.0763
59323DOD     C121788   8.474   3.022  15.277 -0.1701  0.1957  0.1242
59323DOD     C221789   8.063   3.060  15.148 -0.1504 -0.0581  0.0500
59323DOD     C321790   7.618   3.058  14.942  0.0480  0.1628  0.0681
59324DOD     C121791   1.838   0.108  22.833 -0.1681  0.4030  0.0366
59324DOD     C221792   1.564   0.110  22.441  0.0874  0.4271 -0.1049
59324DOD     C321793   1.721  30.278  22.030  0.0781 -0.1916 -0.0801
59325DOD     C121794   5.998   3.525  17.053 -0.0066  0.0299  0.0306
59325DOD     C221795   5.777   3.206  16.774  0.3518 -0.0857  0.0146
59325DOD     C321796   5.862   3.046  16.379 -0.0687 -0.0162 -0.1862
59326DOD     C121797  15.767  10.076  26.167 -0.0188 -0.0243  0.0532
59326DOD     C221798  15.284  10.042  26.341 -0.1869 -0.3530 -0.0152
59326DOD     C321799  14.886  10.223  26.486  0.1939  0.1790 -0.0806
59327DOD     C121800  19.767  22.034  23.699 -0.2988  0.1072 -0.1946
59327DOD     C221801  19.803  21.770  24.030  0.1528  0.0827  0.0071
59327DOD     C321802  19.953  21.804  24.478  0.1747 -0.1235  0.2208
59328DOD     C121803   9.584   4.683   2.999 -0.2035  0.2503  0.0903
59328DOD     C221804   9.246   4.973   3.157  0.0984  0.2248 -0.1214
59328DOD     C321805   8.801   5.162   3.298  0.0144  0.0372 -0.0507
59329DOD     C121806   9.180   9.422  20.994  0.0766 -0.4227 -0.0253
59329DOD     C221807   8.950   9.848  21.103  0.1318  0.2073 -0.2275
59329DOD     C321808   8.850  10.097  21.512  0.3094  0.0616  0.0592
59330DOD     C121809  24.885  16.619  19.691  0.0234  0.0954  0.1567
59330DOD     C221810  25.330  16.596  19.529  0.4326  0.1756  0.0718
59330DOD     C321811  25.722  16.607  19.765  0.0264  0.1859 -0.2855
59331DOD     C121812  21.264  16.259  17.229 -0.4022 -0.2622  0.0841
59331DOD     C221813  21.043  16.354  17.618  0.1054 -0.1833 -0.4332
59331DOD     C321814  21.076  16.668  17.978  0.0819 -0.0634 -0.4138
59332DOD     C121815  13.562  14.139  19.535 -0.0322  0.1279  0.0207
59332DOD     C221816  13.277  14.275  19.196 -0.1006 -0.1514  0.1517
59332DOD     C321817  12.795  14.363  19.179  0.0623  0.2940  0.0974
59333DOD     C121818  21.311  11.565   0.949 -0.0776  0.2290  0.2345
59333DOD     C221819  21.512  11.961   1.054  0.1367 -0.1293 -0.1026
59333DOD     C321820  21.800  12.336   1.021 -0.0424 -0.0373  0.0473
59334DOD     C121821   7.865  19.403  24.642  0.1946  0.0376  0.2787
59334DOD     C221822   7.666  19.054  24.944 -0.1727  0.1824  0.1037
59334DOD     C321823   7.203  19.166  25.009  0.1073  0.2126  0.1771
59335DOD     C121824   0.645  29.875  28.604 -0.0244 -0.0048  0.0632
59335DOD     C221825   0.631  29.729  28.167 -0.1392 -0.2649  0.0290
59335DOD     C321826   0.667  29.505  27.713 -0.3021 -0.4869  0.0537
59336DOD     C121827  14.356   4.321   4.994  0.0197 -0.0443  0.3442
59336DOD     C221828  14.123   4.492   4.633 -0.3559 -0.2029  0.1623
59336DOD     C321829  14.071   4.916   4.392  0.1491  0.0073 -0.0316
59337DOD     C121830  28.211  12.568  24.842  0.0651  0.0739 -0.1164
59337DOD     C221831  28.280  12.435  25.353 -0.0504 -0.2987 -0.0450
59337DOD     C321832  28.217  12.022  25.545 -0.2002  0.1024  0.1110
59338DOD     C121833  19.046  15.029  21.291  0.0809  0.1294  0.1086
59338DOD     C221834  19.432  15.063  21.565  0.1491  0.0262 -0.1682
59338DOD     C321835  19.789  15.130  21.854  0.1857  0.1285  0.2804
59339DOD     C121836   1.739  10.489  26.839  0.0868 -0.2374 -0.2283
59339DOD     C221837   1.796  10.631  26.400  0.1243 -0.1323 -0.1560
59339DOD     C321838   1.760  10.417  26.015  0.0216  0.2662  0.2157
59340DOD     C121839  25.846  10.480  15.171  0.5096 -0.4883 -0.0943
59340DOD     C221840  25.648  10.446  14.726  0.0262 -0.0007  0.0860
59340DOD     C321841  25.738  10.436  14.263  0.3179  0.0910  0.1727
59341DOD     C121842   9.563  18.498  10.719  0.1097 -0.1271  0.2467
59341DOD     C221843   9.182  18.353  10.522 -0.2513  0.0488 -0.1390
59341DOD     C321844   8.836  18.681  10.434  0.1935  0.0255  0.0809
59342DOD     C121845   6.276   6.368  16.958  0.0717 -0.2167 -0.0792
59342DOD     C221846   6.701   6.334  16.793 -0.0576  0.1008  0.3173
59342DOD     C321847   6.967   6.217  16.402 -0.0643  0.1276 -0.0429
59343DOD     C121848  26.603   3.671  23.802 -0.2688  0.0303 -0.0444
59343DOD     C221849  26.719   3.712  23.354 -0.1518  0.1137  0.1822
59343DOD     C321850  26.990   3.812  22.997  0.0146 -0.2668  0.0794
59344DOD     C121851  14.660  18.651  11.587  0.1070 -0.1409 -0.0027
59344DOD     C221852  14.395  18.406  11.831  0.1242 -0.1611  0.1743
59344DOD     C321853  14.240  18.025  11.866 -0.1363  0.2652  0.1678
59345DOD     C121854  22.775   6.658  22.284 -0.0813  0.1970  0.0787
59345DOD     C221855  23.063   6.852  22.635 -0.0192  0.1036 -0.2044
59345DOD     C321856  23.035   6.943  23.121 -0.1383  0.1377 -0.1465
59346DOD     C121857  29.794  25.030   0.854 -0.1060  0.2560  0.3395
59346DOD     C221858  29.923  24.722   0.538 -0.1341 -0.1825 -0.2606
59346DOD     C321859  30.061  24.710   0.064  0.2097 -0.1365 -0.0983
59347DOD     C121860   9.559   3.988  13.104 -0.1263 -0.0229 -0.2587
59347DOD     C221861   9.678   4.042  12.656  0.1709 -0.1869  0.2305
59347DOD     C321862   9.810   3.843  12.276 -0.1689 -0.1169  0.0937
59348DOD     C121863   6.350  24.819   1.561  0.0283 -0.2524 -0.1199
59348DOD     C221864   6.460  25.173   1.852 -0.2510  0.1009 -0.0510
59348DOD     C321865   6.694  25.320   2.251  0.2455  0.1210  0.3824
59349DOD     C121866   2.711   7.394  28.852  0.0953  0.0937 -0.2067
59349DOD     C221867   2.887   7.843  29.030  0.2036 -0.2281  0.2832
59349DOD     C321868   3.292   8.050  29.134 -0.0263 -0.0964  0.2017
59350DOD     C121869   2.849  13.052  24.165 -0.0820  0.2409 -0.0200
59350DOD     C221870   3.004  12.766  23.859 -0.2061 -0.2276  0.0738
59350DOD     C321871   3.453  12.533  23.827  0.0660  0.0727 -0.0470
59351DOD     C121872   9.128  10.996   4.964  0.0170 -0.0636  0.0558
59351DOD     C221873   8.940  11.431   5.005  0.2222  0.1277 -0.1855
59351DOD     C321874   8.742  11.810   4.810 -0.0071  0.0044 -0.0430
59352DOD     C121875  15.089  22.437  14.986  0.2042 -0.0575  0.0979
59352DOD     C221876  14.806  22.481  14.656  0.2216 -0.3012 -0.1038
59352DOD     C321877  14.394  22.602  14.516 -0.0146  0.2753  0.1556
59353DOD     C121878  20.173  24.461  23.859  0.1852  0.1533  0.0823
59353DOD     C221879  20.177  24.950  24.031  0.0517 -0.1622  0.0195
59353DOD     C321880  20.086  25.403  23.958  0.0450  0.0204  0.3403
59354DOD     C121881  22.712  10.049  27.137  0.1355  0.2110 -0.1508
59354DOD     C221882  22.602   9.526  27.102  0.2798  0.3081  0.1030
59354DOD     C321883  22.496   9.093  26.961 -0.0433  0.0664  0.0017
59355DOD     C121884  19.386   2.424  14.166 -0.0803 -0.2415  0.1401
59355DOD     C221885  18.996   2.708  14.261  0.0631 -0.1255 -0.1677
59355DOD     C321886  18.543   2.630  14.193 -0.0279 -0.1608  0.0791
59356DOD     C121887   1.063   7.732  12.573  0.1157  0.0154 -0.0110
59356DOD     C221888   0.620   7.666  12.559 -0.0230 -0.1400 -0.0103
59356DOD     C321889   0.412   7.434  12.892  0.1905 -0.3200 -0.0444
59357DOD     C121890   0.648  23.128   2.615  0.1117  0.1709 -0.2013
59357DOD     C221891   0.850  22.967   2.991 -0.1282 -0.1333 -0.1572
59357DOD     C321892   1.322  22.842   3.099  0.2145  0.2403  0.2388
59358DOD     C121893  23.008  29.573  21.596 -0.0686  0.2468  0.1511
59358DOD     C221894  23.217  29.697  21.254 -0.0400  0.2139 -0.1575
59358DOD     C321895  23.481  29.599  20.910 -0.2960 -0.5555 -0.0935
59359DOD     C121896  11.276  18.385   4.058  0.3956 -0.1713 -0.3380
59359DOD     C221897  11.323  18.117   4.440 -0.0038  0.0987 -0.1629
59359DOD     C321898  11.195  17.864   4.819  0.1531  0.0774  0.0327
59360DOD     C121899   3.955  13.339   0.316  0.3910  0.0872 -0.0993
59360DOD     C221900   4.104  12.973   0.648  0.0569 -0.1038  0.1796
59360DOD     C321901   4.428  12.687   0.821 -0.0281  0.0709 -0.0755
59361DOD     C121902  24.826  11.838  19.994  0.0914 -0.1979 -0.1154
59361DOD     C221903  24.707  11.497  19.751 -0.0162 -0.1216 -0.3402
59361DOD     C321904  24.616  11.329  19.327 -0.1300  0.2268 -0.3283
59362DOD     C121905   9.214  16.837  13.924 -0.0223 -0.1277 -0.0528
59362DOD     C221906   8.911  17.136  13.897  0.1339 -0.0046  0.0468
59362DOD     C321907   8.434  17.062  13.839 -0.0456  0.1708 -0.1377
59363DOD     C121908  10.463   5.333   7.859  0.1143 -0.4618  0.1401
59363DOD     C221909  10.860   5.515   7.959 -0.0313 -0.1952  0.1536
59363DOD     C321910  11.085   5.506   8.345  0.0116  0.1051 -0.0807
59364DOD     C121911   2.237   1.103  25.036 -0.1017  0.2579 -0.1521
59364DOD     C221912   2.342   1.003  24.555 -0.0103  0.0093  0.2268
59364DOD     C321913   2.735   1.155  24.266 -0.2578 -0.2094  0.1274
59365DOD     C121914  13.209   6.542   3.159  0.1803  0.0728 -0.1379
59365DOD     C221915  13.253   6.820   3.506  0.0141  0.0319 -0.1745
59365DOD     C321916  13.065   7.080   3.877 -0.0037 -0.5110 -0.1350
59366DOD     C121917   7.828  28.692  18.071 -0.2067  0.0128 -0.1847
59366DOD     C221918   7.935  28.406  17.758  0.1310  0.0767 -0.1117
59366DOD     C321919   8.042  27.959  17.599 -0.2036  0.1304 -0.0341
59367DOD     C121920  11.878  19.301   6.891  0.0379  0.0419  0.2551
59367DOD     C221921  11.661  18.936   7.202 -0.3958 -0.0000  0.1126
59367DOD     C321922  11.488  18.763   7.571 -0.0592 -0.4338 -0.2761
59368DOD     C121923  20.871  12.871  17.173 -0.1692  0.0669 -0.0700
59368DOD     C221924  20.532  13.071  16.913 -0.2185 -0.2276 -0.0253
59368DOD     C321925  20.457  13.457  16.622 -0.1361 -0.0691 -0.0211
59369DOD     C121926   8.630  18.497  13.193  0.1714  0.1779 -0.0060
59369DOD     C221927   8.292  18.692  13.391 -0.0737 -0.1268  0.1228
59369DOD     C321928   7.897  18.845  13.521  0.0004 -0.0196 -0.2279
59370DOD     C121929  28.492  28.306   8.673 -0.1335  0.0732 -0.1303
59370DOD     C221930  28.882  28.233   8.893  0.0723  0.0662 -0.0273
59370DOD     C321931  29.021  28.437   9.298 -0.1872 -0.0057 -0.1159
59371DOD     C121932   3.746  21.476   5.041 -0.1848  0.2049  0.0103
59371DOD     C221933   3.908  21.754   5.409  0.0790 -0.4139 -0.2382
59371DOD     C321934   3.893  22.232   5.493 -0.1212 -0.2148 -0.1809
59372DOD     C121935  24.658   2.112   3.111  0.0570  0.1833  0.0631
59372DOD     C221936  24.544   2.539   3.131 -0.4209 -0.2509 -0.2746
59372DOD     C321937  24.317   2.930   3.045  0.0923 -0.2052  0.2433
59373DOD     C121938  17.736   4.941  26.261  0.0618 -0.2926  0.1727
59373DOD     C221939  17.842   5.390  26.375  0.0292 -0.2025  0.2123
59373DOD     C321940  18.203   5.682  26.364 -0.2505 -0.0984 -0.3914
59374DOD     C121941   5.626   7.771  17.075  0.0077  0.0369 -0.2272
59374DOD     C221942   5.702   7.578  17.468 -0.1599  0.3787  0.1188
59374DOD     C321943   5.683   7.401  17.890 -0.2745 -0.2346  0.1871
59375DOD     C121944   3.741   4.833   1.258  0.1266 -0.2013  0.0495
59375DOD     C221945   3.325   5.010   1.267  0.0545 -0.2442 -0.0742
59375DOD     C321946   3.055   5.171   0.921 -0.0155 -0.2069 -0.0056
59376DOD     C121947  27.851  10.865  22.841  0.2046 -0.0275  0.0280
59376DOD     C221948  28.180  10.862  22.500  0.1455  0.0324 -0.1309
59376DOD     C321949  28.621  10.904  22.503  0.0085  0.1489 -0.1440
59377DOD     C121950  21.001   6.953   5.202 -0.3763 -0.2537  0.2013
59377DOD     C221951  21.013   7.437   5.254 -0.3250  0.0405  0.0438
59377DOD     C321952  20.818   7.794   5.345  0.1166 -0.1302 -0.0637
59378DOD     C121953   0.561  14.292  17.522 -0.2719 -0.1112  0.0768
59378DOD     C221954   0.192  14.103  17.323  0.1521 -0.2071 -0.2437
59378DOD     C321955  30.176  14.180  17.044 -0.0676 -0.1844  0.1641
59379DOD     C121956  27.983  10.905   0.777  0.1099 -0.0467  0.1840
59379DOD     C221957  27.796  11.328   0.688 -0.1157 -0.0671 -0.4717
59379DOD     C321958  27.605  11.436   1.150  0.0952  0.1161  0.3244
59380DOD     C121959  28.817  17.658  18.418  0.0136  0.1108 -0.0364
59380DOD     C221960  28.997  17.736  17.996 -0.2247 -0.0367  0.3385
59380DOD     C321961  29.413  17.569  17.814  0.1359 -0.0038 -0.2770
59381DOD     C121962  19.019  20.154  20.438  0.2272 -0.1342  0.0861
59381DOD     C221963  18.655  19.952  20.182  0.1786 -0.0101 -0.0385
59381DOD     C321964  18.642  19.618  19.866  0.2212  0.0245 -0.0503
59382DOD     C121965  15.894  17.099   6.498 -0.0462  0.1668 -0.0138
59382DOD     C221966  16.112  16.659   6.453 -0.0462  0.2041 -0.0162
59382DOD     C321967  16.226  16.175   6.561 -0.1412  0.0262 -0.0722
59383DOD     C121968   8.413  10.635   2.040  0.2531  0.2320 -0.3107
59383DOD     C221969   8.152  10.284   1.881 -0.1301 -0.2060  0.0326
59383DOD     C321970   8.237   9.825   1.978  0.1748 -0.0498 -0.1156
59384DOD     C121971   5.204  14.799   5.193  0.1370  0.0246  0.0724
59384DOD     C221972   4.943  14.401   5.276 -0.1335  0.2453  0.2131
59384DOD     C321973   4.789  13.989   5.065  0.0615  0.0562 -0.3192
59385DOD     C121974  25.694  10.813  15.464  0.0157  0.1947  0.2088
59385DOD     C221975  25.829  11.057  15.096  0.0394 -0.3193  0.1979
59385DOD     C321976  26.059  11.357  14.769 -0.0011  0.1470  0.0764
59386DOD     C121977   8.584  21.005   3.475 -0.2467  0.4810 -0.1578
59386DOD     C221978   8.521  21.390   3.667 -0.0472 -0.0353  0.1437
59386DOD     C321979   8.356  21.350   4.091  0.0421 -0.0481 -0.1865
59387DOD     C121980  21.266  16.896  22.355  0.0626 -0.1917 -0.1628
59387DOD     C221981  21.555  17.071  22.037 -0.1536 -0.1566  0.1089
59387DOD     C321982  21.811  17.256  21.761  0.3343 -0.2114  0.0559
59388DOD     C121983  20.316   7.406  11.537 -0.1598 -0.0105  0.2423
59388DOD     C221984  20.549   7.389  11.120  0.2311 -0.2787 -0.2444
59388DOD     C321985  20.955   7.318  10.921  0.0153 -0.0211  0.2303
59389DOD     C121986  20.082   3.256   6.495 -0.2790 -0.2180  0.3041
59389DOD     C221987  20.379   2.973   6.716  0.0260 -0.0824  0.1036
59389DOD     C321988  20.749   2.647   6.715  0.1436 -0.0605  0.0957
59390DOD     C121989   4.694   8.202   3.933  0.0857 -0.1020  0.1070
59390DOD     C221990   4.396   7.849   4.015  0.3341  0.0274  0.0420
59390DOD     C321991   4.017   7.763   4.270 -0.2531  0.3616 -0.2754
59391DOD     C121992  23.296  24.791  22.260  0.1124  0.0310  0.3205
59391DOD     C221993  22.863  24.699  22.229  0.0452 -0.0997 -0.1774
59391DOD     C321994  22.443  24.614  22.063 -0.0703 -0.0392  0.0078
59392DOD     C121995  11.013  14.574  17.762 -0.0995 -0.0708 -0.0928
59392DOD     C221996  10.985  14.172  17.549  0.2250  0.0392  0.0438
59392DOD     C321997  10.716  13.805  17.667  0.1693  0.0465  0.3447
59393DOD     C121998  16.361  19.721  27.275  0.0698  0.1370  0.2035
59393DOD     C221999  16.167  19.548  27.713  0.0273 -0.0035  0.2397
59393DOD     C322000  15.990  19.483  28.077  0.0456  0.1144  0.1696
59394DOD     C122001  19.417  28.070  17.123  0.0367  0.0307 -0.0883
59394DOD     C222002  19.787  28.258  16.966  0.0508  0.0185  0.1883
59394DOD     C322003  20.261  28.345  16.968  0.1382  0.0788  0.5067
59395DOD     C122004   9.664   7.410   4.769 -0.1371 -0.0098 -0.2275
59395DOD     C222005   9.529   7.836   4.663 -0.1712  0.1181  0.2359
59395DOD     C322006   9.742   8.252   4.693  0.1032  0.1361  0.0489
59396DOD     C122007  11.894  13.364  12.963 -0.1778  0.0974 -0.0515
59396DOD     C222008  11.716  13.697  13.158 -0.1240 -0.1047  0.0865
59396DOD     C322009  11.386  13.937  13.406 -0.2607  0.1209 -0.0994
59397DOD     C122010  18.538   0.954  15.335 -0.1172 -0.1949 -0.2088
59397DOD     C222011  18.608   0.546  15.171 -0.0717 -0.1713  0.0672
59397DOD     C322012  18.925   0.233  15.045  0.0486 -0.0115  0.5140
59398DOD     C122013  25.015  12.219  11.654 -0.3261  0.0138 -0.1699
59398DOD     C222014  24.919  12.260  12.085  0.0070 -0.1570 -0.2298
59398DOD     C322015  25.171  12.059  12.501  0.1040 -0.0521 -0.1050
59399DOD     C122016  20.683   2.450  25.069  0.2032 -0.1344  0.1635
59399DOD     C222017  20.769   2.085  24.780  0.0976 -0.1600  0.1403
59399DOD     C322018  20.536   1.847  24.479 -0.0629 -0.0462  0.4939
59400DOD     C122019  12.245   8.437  13.670  0.0600  0.1504  0.1419
59400DOD     C222020  12.474   8.613  13.246  0.0586  0.3950 -0.1923
59400DOD     C322021  12.800   8.535  12.960  0.1447 -0.0663  0.0667
59401DOD     C122022  16.108  19.554  17.327 -0.3058  0.4130 -0.0216
59401DOD     C222023  16.609  19.613  17.342  0.0607  0.1800 -0.1646
59401DOD     C322024  17.081  19.699  17.365  0.1380 -0.0177 -0.0456
59402DOD     C122025  24.639   8.676  22.345  0.0945 -0.0530  0.3305
59402DOD     C222026  24.519   8.740  21.893 -0.0261  0.1156 -0.2966
59402DOD     C322027  24.374   8.430  21.542 -0.0949 -0.3328  0.4620
59403DOD     C122028   2.765   6.444  14.324  0.0532 -0.1511 -0.1575
59403DOD     C222029   2.817   6.869  14.121 -0.3377 -0.0720  0.1948
59403DOD     C322030   2.908   7.297  13.973  0.0648 -0.0315  0.1010
59404DOD     C122031   3.801   8.475  18.835  0.1887  0.1254 -0.2002
59404DOD     C222032   3.758   8.702  18.423 -0.0604  0.0167 -0.1073
59404DOD     C322033   3.779   8.644  17.956 -0.0644 -0.2420 -0.2466
59405DOD     C122034  15.518  20.557  13.141  0.1735  0.1798 -0.1461
59405DOD     C222035  15.796  20.309  12.788 -0.1999 -0.0381 -0.2769
59405DOD     C322036  16.092  20.011  12.655  0.3367  0.4529  0.4123
59406DOD     C122037  19.370  10.340  25.340  0.0356  0.0005  0.0503
59406DOD     C222038  18.967  10.466  25.368  0.0518 -0.1235 -0.1159
59406DOD     C322039  18.574  10.283  25.490 -0.1583  0.1248  0.1473
59407DOD     C122040   7.279  10.030   8.783 -0.2570 -0.0880  0.0872
59407DOD     C222041   7.553  10.016   9.160 -0.0872  0.2094 -0.0975
59407DOD     C322042   7.764   9.828   9.512 -0.0768  0.1847  0.0073
59408DOD     C122043   4.742   3.588  25.231  0.1082 -0.0372  0.1994
59408DOD     C222044   4.473   3.942  25.317  0.1375  0.1331 -0.1262
59408DOD     C322045   4.121   4.207  25.456  0.1618  0.0053 -0.1203
59409DOD     C122046  26.959  10.014  27.666 -0.0690 -0.1617  0.2597
59409DOD     C222047  26.812  10.066  27.195  0.0577 -0.0780 -0.3862
59409DOD     C322048  26.784   9.689  26.953 -0.1206 -0.1428  0.0525
59410DOD     C122049  29.195   2.689  10.758  0.0216  0.0728 -0.0623
59410DOD     C222050  29.079   3.097  11.022 -0.0159 -0.1912 -0.2299
59410DOD     C322051  28.864   3.430  11.304  0.0768  0.0657  0.1306
59411DOD     C122052   3.828   9.209  18.501  0.0106 -0.0339 -0.0691
59411DOD     C222053   4.031   9.532  18.187 -0.0640  0.1435  0.1365
59411DOD     C322054   4.318   9.812  17.950  0.1167 -0.3219  0.0543
59412DOD     C122055  24.264  15.751   4.461  0.2771 -0.0451  0.1699
59412DOD     C222056  24.164  15.852   4.028 -0.0843  0.2914  0.1553
59412DOD     C322057  24.109  16.153   3.750 -0.3684  0.0379 -0.3941
59413DOD     C122058  11.328  14.927  29.900  0.0783 -0.0098 -0.2596
59413DOD     C222059  11.364  15.367  29.836  0.2131 -0.0369  0.1483
59413DOD     C322060  11.375  15.804  29.836  0.2118  0.1957  0.1125
59414DOD     C122061  13.962   4.153   3.159  0.2792  0.1271 -0.0682
59414DOD     C222062  14.382   4.363   3.090 -0.0272  0.1716 -0.1787
59414DOD     C322063  14.699   4.534   3.392  0.1264 -0.1271 -0.1502
59415DOD     C122064  16.125   1.963  20.291 -0.0244 -0.0147 -0.1315
59415DOD     C222065  16.033   1.621  20.042  0.2889  0.1107 -0.0638
59415DOD     C322066  16.243   1.211  19.946  0.2200 -0.2093  0.1445
59416DOD     C122067  18.150   2.144  28.343  0.0752  0.1159 -0.1699
59416DOD     C222068  18.409   1.757  28.344  0.1671  0.0908 -0.1804
59416DOD     C322069  18.409   1.378  28.067 -0.0858 -0.0069 -0.0665
59417DOD     C122070  14.975  11.854  21.644 -0.2121  0.0984  0.0997
59417DOD     C222071  15.136  12.153  21.968 -0.1315 -0.2426  0.2737
59417DOD     C322072  15.181  12.572  22.173  0.1604  0.0228 -0.1632
59418DOD     C122073   1.032  10.647  29.295  0.0505  0.1764  0.0543
59418DOD     C222074   0.799  10.365  29.574 -0.0729 -0.0001 -0.1631
59418DOD     C322075   0.448  10.068  29.714 -0.0660  0.2228 -0.1918
59419DOD     C122076  28.141  16.884   2.852  0.1365  0.0942  0.2880
59419DOD     C222077  28.422  16.517   2.857 -0.1118 -0.1767 -0.1826
59419DOD     C322078  28.801  16.287   2.853 -0.1502  0.0430 -0.0511
59420DOD     C122079  12.256   4.285   5.609  0.1799  0.3236 -0.1877
59420DOD     C222080  11.891   4.057   5.482  0.0782  0.0467 -0.0343
59420DOD     C322081  11.536   3.814   5.687 -0.0777  0.1195  0.1472
59421DOD     C122082   1.802   1.427  12.303  0.2003  0.3541  0.0435
59421DOD     C222083   1.954   1.735  12.017  0.1673 -0.1457  0.0021
59421DOD     C322084   1.879   2.198  11.935 -0.0929  0.1088  0.2017
59422DOD     C122085   2.246  29.271  11.380 -0.0909  0.0304 -0.0398
59422DOD     C222086   2.356  29.134  11.816  0.0157  0.2637 -0.2329
59422DOD     C322087   2.336  28.789  12.083 -0.3320  0.1887 -0.0273
59423DOD     C122088   2.445  18.961  12.228 -0.0722 -0.2221  0.3108
59423DOD     C222089   2.565  19.325  12.435  0.1741 -0.0967  0.2399
59423DOD     C322090   2.558  19.804  12.274 -0.1057 -0.1091 -0.1263
59424DOD     C122091  13.449   2.960  29.024 -0.2079  0.2240 -0.2763
59424DOD     C222092  13.401   3.392  29.323 -0.0441 -0.0732 -0.3415
59424DOD     C322093  13.388   3.787  29.539 -0.0826  0.0611 -0.0609
59425DOD     C122094  20.392  15.841   5.017 -0.1344 -0.1216 -0.0602
59425DOD     C222095  20.611  15.533   4.756 -0.1347 -0.0916 -0.0216
59425DOD     C322096  20.911  15.340   4.365  0.1233 -0.1935 -0.0583
59426DOD     C122097  23.699  14.360   0.470  0.1465 -0.1159  0.3459
59426DOD     C222098  23.336  14.722   0.489 -0.1614  0.0808  0.1891
59426DOD     C322099  23.290  15.010   0.152  0.1354 -0.0161 -0.0454
59427DOD     C122100   9.811  24.844  22.650  0.1227  0.1598  0.3509
59427DOD     C222101   9.774  24.460  22.814 -0.3044  0.3873  0.2513
59427DOD     C322102   9.626  24.036  22.926 -0.0793  0.0860 -0.0490
59428DOD     C122103   6.454   2.066  15.079  0.1453 -0.2629 -0.2272
59428DOD     C222104   6.633   1.840  14.714  0.0441  0.0610 -0.0616
59428DOD     C322105   6.944   1.722  14.387  0.0761  0.0199  0.1218
59429DOD     C122106   6.444  14.785   5.436  0.1085  0.0402 -0.1849
59429DOD     C222107   6.231  14.672   5.036 -0.1508  0.1090  0.3513
59429DOD     C322108   5.998  14.723   4.609  0.1182  0.1227 -0.0262
59430DOD     C122109  25.499   5.312  13.384  0.0274 -0.0906  0.0894
59430DOD     C222110  25.408   5.722  13.337 -0.0489  0.0804  0.2412
59430DOD     C322111  25.789   6.040  13.227  0.0992 -0.0585 -0.2802
59431DOD     C122112  11.145  25.114  29.559  0.0610 -0.0829 -0.0886
59431DOD     C222113  11.322  24.820  29.812  0.0654 -0.0536 -0.1009
59431DOD     C322114  11.565  24.576  30.088  0.1407  0.1293  0.1708
59432DOD     C122115  15.006  14.660  28.164 -0.1042 -0.0915 -0.0941
59432DOD     C222116  15.284  14.993  28.407  0.3687 -0.0797  0.1017
59432DOD     C322117  15.325  15.455  28.478  0.1075 -0.2414  0.0765
59433DOD     C122118   5.921   6.471  28.222  0.0383  0.1497 -0.0730
59433DOD     C222119   5.945   6.424  27.813 -0.1108  0.0916  0.0397
59433DOD     C322120   5.812   6.150  27.440  0.0688  0.3239 -0.0760
59434DOD     C122121  19.489  12.477  14.568  0.0917 -0.2078 -0.1371
59434DOD     C222122  19.795  12.824  14.480  0.1796  0.0427 -0.0373
59434DOD     C322123  19.996  13.012  14.069 -0.2026  0.1236 -0.0256
59435DOD     C122124   9.417  13.532  28.224 -0.0913 -0.1495  0.3101
59435DOD     C222125   9.871  13.477  28.296 -0.1757  0.1316  0.3388
59435DOD     C322126  10.211  13.678  28.524 -0.0142 -0.2195  0.3032
59436DOD     C122127  14.942  19.426  28.327  0.0757  0.1232  0.3003
59436DOD     C222128  15.143  19.768  28.528 -0.1002  0.2237 -0.3147
59436DOD     C322129  15.435  20.146  28.607 -0.2325  0.1507  0.0081
59437DOD     C122130   0.514   9.571  28.702  0.0490 -0.4416  0.0532
59437DOD     C222131   0.565   9.540  29.210 -0.2041  0.1896  0.0897
59437DOD     C322132   0.539   9.537  29.663 -0.0438  0.1263  0.2580
59438DOD     C122133   5.412  15.898  14.394 -0.1163  0.1387  0.2225
59438DOD     C222134   5.751  16.044  14.712 -0.4954 -0.2060  0.1622
59438DOD     C322135   5.975  16.078  15.111 -0.3389 -0.0490  0.3369
59439DOD     C122136  20.334  13.188  28.795 -0.2130 -0.0529 -0.2273
59439DOD     C222137  20.047  13.270  28.451  0.3041  0.0763 -0.2783
59439DOD     C322138  19.652  13.448  28.306  0.0965  0.0554  0.1256
59440DOD     C122139  21.152   5.565  10.340 -0.1706 -0.0098  0.2132
59440DOD     C222140  21.424   5.682   9.933 -0.0912  0.3996 -0.0483
59440DOD     C322141  21.589   5.748   9.585  0.1669 -0.1342 -0.0710
59441DOD     C122142  23.603  25.729  19.279 -0.0324 -0.1606  0.0392
59441DOD     C222143  23.606  25.301  19.595 -0.0609 -0.1449  0.2591
59441DOD     C322144  23.422  24.907  19.740  0.0101 -0.1159  0.3050
59442DOD     C122145   4.313   3.168  11.522 -0.1723  0.0041 -0.1888
59442DOD     C222146   3.927   3.106  11.301  0.1848  0.1507 -0.2687
59442DOD     C322147   3.590   3.096  10.976 -0.3825 -0.0513 -0.1040
59443DOD     C122148  14.772   0.876  21.945  0.1888 -0.4939 -0.0774
59443DOD     C222149  14.635   0.956  21.444  0.0085 -0.1165 -0.0328
59443DOD     C322150  14.679   1.113  20.978 -0.1407 -0.0456 -0.5954
59444DOD     C122151  21.412   6.481  17.379  0.4649  0.1867  0.0214
59444DOD     C222152  21.594   6.596  16.976  0.2756 -0.0655  0.1584
59444DOD     C322153  21.845   6.580  16.615 -0.1474 -0.1205  0.2429
59445DOD     C122154  15.820   3.756  27.638  0.1548  0.0125  0.0217
59445DOD     C222155  15.815   4.223  27.574 -0.0514  0.4101 -0.0499
59445DOD     C322156  15.707   4.684  27.609 -0.4236  0.1200  0.4140
59446DOD     C122157  11.877  14.822  17.200  0.2264  0.0768 -0.1110
59446DOD     C222158  12.191  14.536  16.989  0.1704  0.0662 -0.0018
59446DOD     C322159  12.279  14.299  16.604  0.0548  0.0296 -0.0828
59447DOD     C122160  21.411   7.830  21.506 -0.1846 -0.1102  0.4356
59447DOD     C222161  21.104   7.778  21.865  0.2087  0.0588  0.0668
59447DOD     C322162  20.867   7.517  22.180 -0.1847  0.3882  0.2088
59448DOD     C122163  25.675  14.671  16.087 -0.0291 -0.1658 -0.1511
59448DOD     C222164  25.734  14.457  15.651  0.2374 -0.1415 -0.1716
59448DOD     C322165  25.827  14.201  15.277 -0.0432  0.0174 -0.2082
59449DOD     C122166   7.659  17.183  14.914 -0.2324 -0.1786  0.0356
59449DOD     C222167   7.253  17.361  15.119  0.2843  0.1492  0.0935
59449DOD     C322168   6.867  17.551  14.884  0.2331 -0.1368  0.3273
59450DOD     C122169   5.614  25.180  28.554  0.1452  0.0725 -0.0270
59450DOD     C222170   5.197  25.425  28.458  0.0800  0.0539  0.0556
59450DOD     C322171   4.814  25.633  28.683 -0.2233 -0.1894 -0.0792
59451DOD     C122172   9.241  11.321  22.584  0.1575  0.0045  0.3038
59451DOD     C222173   9.194  11.197  22.127 -0.0986 -0.0157  0.4012
59451DOD     C322174   9.224  11.072  21.724 -0.0903  0.2966  0.2808
59452DOD     C122175   6.691  11.192  16.132  0.3303  0.1150 -0.0826
59452DOD     C222176   6.480  10.765  16.127 -0.0587  0.1715 -0.1552
59452DOD     C322177   6.534  10.350  16.287  0.1383  0.2472 -0.0086
59453DOD     C122178  27.788   2.072  20.118 -0.0528 -0.0827 -0.2858
59453DOD     C222179  27.620   2.461  19.920 -0.4765 -0.1934 -0.2547
59453DOD     C322180  27.600   2.753  19.611 -0.1114 -0.1357  0.4305
59454DOD     C122181   8.741  30.224  13.062 -0.0761  0.2006 -0.1488
59454DOD     C222182   8.581  30.167  13.478 -0.0013  0.0995 -0.2227
59454DOD     C322183   8.348  30.021  13.840 -0.1085  0.0483  0.0862
59455DOD     C122184  22.801   0.417  15.769  0.3282  0.0419 -0.4233
59455DOD     C222185  22.653   0.149  15.406 -0.1095 -0.0881 -0.0760
59455DOD     C322186  22.237  -0.031  15.359 -0.2636 -0.3766 -0.0008
59456DOD     C122187   3.818  12.500  24.616  0.0367 -0.2444  0.1026
59456DOD     C222188   4.252  12.305  24.675 -0.1778  0.2197  0.1553
59456DOD     C322189   4.671  12.519  24.670 -0.2645 -0.1379  0.3629
59457DOD     C122190  27.798   4.676  23.286 -0.0267 -0.0552 -0.2030
59457DOD     C222191  27.438   4.443  23.539 -0.0584  0.1701 -0.1669
59457DOD     C322192  27.024   4.104  23.570  0.3907  0.1889  0.1359
59458DOD     C122193  28.106  18.339   9.210 -0.1787  0.1391 -0.0066
59458DOD     C222194  27.899  18.729   9.009 -0.1469 -0.1764  0.2039
59458DOD     C322195  27.950  19.182   9.222  0.1180 -0.0189 -0.1039
59459DOD     C122196  25.261  14.590   6.549 -0.0233 -0.0939  0.1994
59459DOD     C222197  24.828  14.485   6.502  0.2693 -0.1309 -0.0840
59459DOD     C322198  24.613  14.054   6.426 -0.0275  0.1231 -0.2533
59460DOD     C122199  14.201  16.165  22.053  0.1213 -0.1805 -0.2781
59460DOD     C222200  14.604  16.401  21.820  0.1679  0.0226  0.0491
59460DOD     C322201  14.754  16.865  21.681  0.2872 -0.0561  0.2931
59461DOD     C122202  20.969   1.679  23.157 -0.2384 -0.1550 -0.0649
59461DOD     C222203  20.716   1.830  23.485 -0.2827 -0.4557  0.3277
59461DOD     C322204  20.359   1.961  23.667 -0.0767  0.0886 -0.2946
59462DOD     C122205   2.332   3.169  24.951  0.2462  0.1121 -0.1220
59462DOD     C222206   2.362   2.734  24.800  0.1330 -0.2472 -0.1768
59462DOD     C322207   2.652   2.413  24.538 -0.1373  0.0131  0.0200
59463DOD     C122208  17.418   4.633   3.549 -0.0871 -0.0539 -0.0705
59463DOD     C222209  17.435   4.583   3.087  0.1081 -0.1489 -0.2356
59463DOD     C322210  17.477   4.800   2.680  0.2880  0.0660 -0.1315
59464DOD     C122211   4.520  15.345   2.291  0.1703  0.1646 -0.0421
59464DOD     C222212   4.310  15.070   1.944 -0.0330  0.4184 -0.1732
59464DOD     C322213   3.931  14.804   1.838  0.0649 -0.1406 -0.2466
59465DOD     C122214   9.324  14.538  20.354  0.1159  0.1565  0.2244
59465DOD     C222215   9.212  14.248  20.688 -0.0682 -0.0338  0.0345
59465DOD     C322216   8.931  13.884  20.629 -0.1367  0.1258 -0.2154
59466DOD     C122217  25.740   1.536   6.130  0.0915 -0.2276  0.4052
59466DOD     C222218  25.575   1.092   6.177 -0.0503  0.4179  0.2046
59466DOD     C322219  25.286   0.802   6.028  0.0371 -0.1676  0.0601
59467DOD     C122220  29.946  20.765  18.072  0.3817 -0.1782  0.2138
59467DOD     C222221  30.228  20.459  18.267  0.0160 -0.2143 -0.2510
59467DOD     C322222   0.160  20.158  18.526  0.0263 -0.1732  0.2403
59468DOD     C122223   3.219  14.475  17.019 -0.1119  0.0905 -0.0748
59468DOD     C222224   3.282  14.067  17.263  0.0684  0.0821 -0.0712
59468DOD     C322225   3.135  13.664  17.327 -0.0805  0.0277 -0.3904
59469DOD     C122226  27.816  10.177  21.645 -0.0900  0.0339  0.4033
59469DOD     C222227  27.445  10.254  21.363 -0.1237 -0.0266 -0.0126
59469DOD     C322228  27.064  10.530  21.459 -0.2700 -0.3926 -0.2601
59470DOD     C122229  16.965   4.350  15.082  0.0515  0.0901 -0.1803
59470DOD     C222230  16.671   4.241  15.469  0.1493 -0.1696  0.0179
59470DOD     C322231  16.668   4.255  15.958  0.0188  0.0496 -0.1382
59471DOD     C122232  27.543  23.350   5.322  0.0126 -0.1616 -0.1527
59471DOD     C222233  27.335  23.002   5.608 -0.3524 -0.2332  0.0235
59471DOD     C322234  27.188  22.549   5.705 -0.5256  0.0936  0.0904
59472DOD     C122235  18.905  27.043  10.032  0.1214  0.2320 -0.0439
59472DOD     C222236  18.581  27.337  10.158  0.0602  0.0262 -0.2986
59472DOD     C322237  18.612  27.764  10.065  0.0297  0.2977  0.1748
59473DOD     C122238  22.282  21.238  21.186 -0.2198 -0.1128  0.1317
59473DOD     C222239  22.041  21.378  20.766 -0.1127 -0.1742  0.0274
59473DOD     C322240  22.252  21.495  20.371  0.2264 -0.1245  0.1149
59474DOD     C122241  20.644  16.900  20.717 -0.0793  0.0878  0.0947
59474DOD     C222242  20.446  17.370  20.707 -0.1816  0.1570  0.0750
59474DOD     C322243  20.316  17.821  20.654  0.2008 -0.2587 -0.2152
59475DOD     C122244  12.092  29.701   5.481 -0.3364  0.1516 -0.2914
59475DOD     C222245  12.355  29.622   5.095 -0.0119 -0.1444  0.1446
59475DOD     C322246  12.633  29.701   4.706 -0.0329 -0.2932  0.0798
59476DOD     C122247   6.220   2.039  12.789 -0.1521 -0.0659 -0.0071
59476DOD     C222248   6.082   1.716  12.507  0.1410  0.0009 -0.0806
59476DOD     C322249   5.904   1.378  12.258  0.4120 -0.1892  0.0664
59477DOD     C122250  14.885   3.331   8.854 -0.1286  0.2357 -0.0222
59477DOD     C222251  15.111   3.254   9.248  0.0302  0.2306 -0.5506
59477DOD     C322252  15.364   2.917   9.460 -0.2993 -0.0073  0.1853
59478DOD     C122253  23.040   9.154  23.117  0.0271  0.4513 -0.1078
59478DOD     C222254  23.194   9.561  23.317  0.0574  0.0560  0.0063
59478DOD     C322255  23.292   9.905  23.644 -0.1658  0.0019 -0.1980
59479DOD     C122256   5.346   1.621   3.430  0.1930  0.0652  0.1242
59479DOD     C222257   5.749   1.468   3.495  0.1548 -0.0306 -0.1920
59479DOD     C322258   5.861   1.122   3.787  0.0083 -0.1603  0.2708
59480DOD     C122259   5.880  11.206  17.437 -0.0009 -0.1270 -0.2088
59480DOD     C222260   6.050  10.860  17.151 -0.0781  0.1487 -0.1269
59480DOD     C322261   6.503  10.863  17.261 -0.1380 -0.0852  0.3917
59481DOD     C122262  12.617   8.749  25.385  0.3781  0.2083  0.0331
59481DOD     C222263  12.492   8.910  25.820  0.1453  0.1698  0.0431
59481DOD     C322264  12.303   9.188  26.122  0.0108  0.2067 -0.1022
59482DOD     C122265  27.354   5.213  17.644 -0.0302 -0.1287  0.0105
59482DOD     C222266  27.482   4.823  17.483 -0.0341  0.0198  0.1784
59482DOD     C322267  27.891   4.655  17.316  0.2055  0.4837  0.1599
59483DOD     C122268  16.985  30.229  21.435  0.2612 -0.1250  0.2012
59483DOD     C222269  16.699  30.258  21.097  0.1017  0.0427  0.3477
59483DOD     C322270  16.480  30.249  20.636 -0.0812 -0.1220 -0.1714
59484DOD     C122271   6.782  11.743  22.525  0.2555 -0.2124  0.0925
59484DOD     C222272   7.061  11.441  22.622 -0.0208  0.0357 -0.2888
59484DOD     C322273   7.031  11.086  22.913  0.3587  0.1135  0.2318
59485DOD     C122274  22.036   3.609  22.035 -0.1166  0.0009 -0.0747
59485DOD     C222275  22.420   3.310  21.992 -0.0799  0.0445 -0.2861
59485DOD     C322276  22.687   3.111  21.643  0.1735  0.0324  0.1431
59486DOD     C122277   1.823  26.104   1.340 -0.1834  0.1018 -0.0346
59486DOD     C222278   2.062  26.118   0.969  0.0658 -0.1389 -0.0072
59486DOD     C322279   2.071  26.204   0.466 -0.1583  0.0590  0.0328
59487DOD     C122280  10.940  10.076   6.410  0.0046 -0.0157 -0.0842
59487DOD     C222281  10.985  10.467   6.210  0.0515  0.2553 -0.3319
59487DOD     C322282  11.330  10.602   5.896  0.0974  0.0530 -0.1994
59488DOD     C122283   6.923   0.618   9.544  0.0312  0.0777 -0.1093
59488DOD     C222284   6.835   0.935   9.822  0.2032  0.1083 -0.1847
59488DOD     C322285   6.483   1.186  10.000  0.3298 -0.0149  0.1724
59489DOD     C122286  11.898  25.844   0.121 -0.2573 -0.3211  0.0178
59489DOD     C222287  12.115  25.569  30.152  0.4321  0.0207  0.1769
59489DOD     C322288  12.441  25.238  30.152  0.0304 -0.0034 -0.0063
59490DOD     C122289   5.124  13.521  12.094  0.2061  0.2915 -0.2630
59490DOD     C222290   5.102  13.794  12.418 -0.0428 -0.1541  0.0199
59490DOD     C322291   5.248  13.966  12.811  0.1703 -0.3084 -0.1686
59491DOD     C122292   2.317  18.781  11.157  0.1557 -0.1170 -0.4988
59491DOD     C222293   2.018  18.598  11.469  0.0128  0.0078 -0.0163
59491DOD     C322294   1.568  18.657  11.588 -0.1598  0.0827 -0.0702
59492DOD     C122295  29.316  13.427  11.570  0.0483 -0.1456 -0.3381
59492DOD     C222296  29.733  13.327  11.323 -0.1156  0.0965 -0.1494
59492DOD     C322297  29.979  12.969  11.454 -0.1603 -0.2745  0.2227
59493DOD     C122298   4.210   2.025   3.641  0.1900  0.1597  0.0869
59493DOD     C222299   3.849   1.832   3.481 -0.0664 -0.4854 -0.1606
59493DOD     C322300   3.388   1.959   3.462  0.0846 -0.1337  0.0051
59494DOD     C122301  21.991   0.463  26.357 -0.1477 -0.1351 -0.0781
59494DOD     C222302  22.030   0.925  26.389  0.0264  0.0375 -0.0632
59494DOD     C322303  21.962   1.402  26.351  0.0806  0.2235  0.0128
59495DOD     C122304  10.612  17.602  25.379 -0.2080 -0.0383 -0.2071
59495DOD     C222305  10.998  17.786  25.595 -0.1479  0.0826  0.0766
59495DOD     C322306  11.369  17.890  25.823  0.0946 -0.1507 -0.3379
59496DOD     C122307  11.528  29.337  12.503 -0.0317  0.0285  0.2462
59496DOD     C222308  11.681  29.605  12.858 -0.2681  0.1436 -0.2379
59496DOD     C322309  12.102  29.795  13.006  0.1378  0.2282 -0.2125
59497DOD     C122310  12.254   6.979  24.805  0.1643  0.2389 -0.1324
59497DOD     C222311  12.267   6.919  25.269  0.1601  0.0529  0.2544
59497DOD     C322312  12.281   7.268  25.596 -0.0462 -0.0903  0.3081
59498DOD     C122313  13.946  29.887   8.360  0.1646 -0.0660 -0.0739
59498DOD     C222314  14.405  29.784   8.267 -0.1016 -0.1037  0.0500
59498DOD     C322315  14.785  29.971   8.316  0.1690  0.1373  0.0143
59499DOD     C122316  13.774  26.958   3.983  0.1944 -0.1051 -0.2662
59499DOD     C222317  13.905  27.414   3.970 -0.1356 -0.2778  0.1624
59499DOD     C322318  14.151  27.606   3.559  0.2239  0.1961 -0.1623
59500DOD     C122319  18.686  24.936  15.205  0.1449  0.1071  0.0199
59500DOD     C222320  18.938  24.687  15.520  0.0896 -0.1284  0.1705
59500DOD     C322321  19.037  24.319  15.753  0.1764 -0.0457 -0.0282
59501DOD     C122322  26.248   0.889  27.026  0.4299 -0.0168 -0.1959
59501DOD     C222323  26.268   1.342  27.247 -0.1712 -0.1748  0.1367
59501DOD     C322324  26.237   1.645  27.588  0.0969  0.1256  0.1575
59502DOD     C122325  25.114  12.993   7.136 -0.2380 -0.1789  0.0436
59502DOD     C222326  24.990  13.349   7.452  0.0839 -0.4264  0.3393
59502DOD     C322327  24.898  13.322   7.948 -0.5268  0.0862 -0.2608
59503DOD     C122328  23.647  14.012  24.765  0.0987  0.1718  0.1895
59503DOD     C222329  24.008  14.108  24.423  0.1561 -0.3950  0.0661
59503DOD     C322330  24.312  14.449  24.180 -0.0030 -0.3225  0.1676
59504DOD     C122331   4.868  13.814  10.872  0.0283 -0.0332 -0.0873
59504DOD     C222332   4.914  14.018  11.249  0.0208 -0.1624 -0.0180
59504DOD     C322333   4.699  14.202  11.604  0.0059 -0.1098 -0.0525
59505DOD     C122334  17.181  24.622  19.355  0.1430 -0.0178  0.1581
59505DOD     C222335  16.744  24.519  19.225 -0.0715 -0.1408 -0.3038
59505DOD     C322336  16.332  24.693  19.100 -0.0002  0.1251  0.0953
59506DOD     C122337   9.163  17.645  20.558  0.0641  0.0904 -0.2968
59506DOD     C222338   9.303  18.036  20.709  0.2212 -0.0133  0.0432
59506DOD     C322339   9.522  18.445  20.557 -0.1991 -0.0460  0.0837
59507DOD     C122340  19.935  15.132  14.567 -0.1349  0.0557  0.0085
59507DOD     C222341  19.718  15.366  14.154 -0.2188 -0.1808  0.0279
59507DOD     C322342  19.447  15.536  13.784 -0.2531 -0.0540  0.0049
59508DOD     C122343  16.872   0.853  14.890 -0.0768  0.0017  0.0436
59508DOD     C222344  17.293   0.911  15.037  0.1035  0.0351 -0.0130
59508DOD     C322345  17.695   0.832  15.134 -0.2445  0.2538 -0.0332
59509DOD     C122346   6.435  27.292  20.314  0.0272  0.0059 -0.0178
59509DOD     C222347   6.373  27.174  19.891 -0.3753  0.1281 -0.2022
59509DOD     C322348   6.426  27.302  19.449 -0.2817  0.2278  0.0031
59510DOD     C122349  25.134  14.446  12.524 -0.0870 -0.0731 -0.2556
59510DOD     C222350  24.715  14.460  12.710 -0.0946  0.0615 -0.3248
59510DOD     C322351  24.587  14.625  13.192  0.3443 -0.1293 -0.0554
59511DOD     C122352  13.632  10.243  29.298  0.0723 -0.0748  0.0590
59511DOD     C222353  13.923  10.670  29.240  0.1781  0.0568 -0.0902
59511DOD     C322354  14.204  10.997  29.264 -0.0926  0.0535 -0.1310
59512DOD     C122355   2.900  12.267   3.587 -0.2882  0.1945  0.0446
59512DOD     C222356   3.330  12.132   3.372  0.1915  0.0792  0.1024
59512DOD     C322357   3.782  12.187   3.240 -0.0878 -0.0434 -0.0411
59513DOD     C122358  26.307  13.147   8.576 -0.0586  0.1392 -0.2387
59513DOD     C222359  25.913  13.162   8.568 -0.2105  0.0185  0.1512
59513DOD     C322360  25.442  13.208   8.523 -0.0860  0.1881 -0.3389
59514DOD     C122361  19.882  18.341  12.851 -0.2897  0.0134  0.0328
59514DOD     C222362  20.065  18.743  12.801  0.0490  0.0468 -0.3528
59514DOD     C322363  20.049  19.183  12.577  0.1009 -0.1927 -0.2718
59515DOD     C122364  29.820  15.877  21.825 -0.1397  0.0447 -0.0055
59515DOD     C222365  29.395  15.537  21.714  0.1413 -0.2098 -0.0873
59515DOD     C322366  29.072  15.276  21.504 -0.1077  0.3016 -0.1304
59516DOD     C122367  16.367  21.949  27.222  0.1682 -0.1237 -0.1141
59516DOD     C222368  16.843  21.887  27.126 -0.0737 -0.0549 -0.0490
59516DOD     C322369  17.144  21.639  27.347 -0.0395 -0.1045  0.0106
59517DOD     C122370   4.492  15.976  14.524  0.2017  0.0437  0.0841
59517DOD     C222371   4.585  16.138  14.110  0.2940 -0.1653 -0.2438
59517DOD     C322372   4.586  15.924  13.715 -0.0316  0.2016 -0.0485
59518DOD     C122373  12.644   4.424  14.901  0.2254  0.3532 -0.3187
59518DOD     C222374  12.369   4.009  14.819 -0.1343 -0.2521 -0.0295
59518DOD     C322375  12.054   3.828  15.089 -0.3347 -0.1056 -0.1926
59519DOD     C122376  24.192   2.968  24.743 -0.0443  0.1161 -0.1656
59519DOD     C222377  24.367   3.310  25.066  0.2642 -0.1484  0.0424
59519DOD     C322378  24.707   3.640  25.219  0.1197  0.0253  0.1467
59520DOD     C122379  15.648   5.764  25.360  0.2482 -0.0099  0.2241
59520DOD     C222380  15.289   5.895  25.122  0.0455  0.1637 -0.1852
59520DOD     C322381  15.292   5.893  24.653  0.1436 -0.2715 -0.1389
59521DOD     C122382  28.705  18.841   8.907 -0.1017  0.0470  0.1759
59521DOD     C222383  28.787  18.869   8.506 -0.2999 -0.1453 -0.1391
59521DOD     C322384  29.100  18.617   8.242 -0.3418 -0.1885  0.3747
59522DOD     C122385  24.705  10.105   0.062  0.2689  0.2547  0.0809
59522DOD     C222386  24.966  10.162   0.468  0.0379  0.4423  0.2534
59522DOD     C322387  25.038  10.167   0.904  0.3503 -0.1655 -0.3650
59523DOD     C122388  15.173   0.359  27.360 -0.1699 -0.0415  0.1058
59523DOD     C222389  14.882  -0.026  27.400 -0.0265 -0.2205 -0.3070
59523DOD     C322390  14.448  30.322  27.241  0.3538 -0.0131 -0.0793
59524DOD     C122391  15.195   9.579  21.042 -0.0828 -0.2533  0.2321
59524DOD     C222392  15.067   9.641  21.436  0.0535 -0.0795  0.1115
59524DOD     C322393  14.951   9.985  21.713  0.2208  0.0690 -0.1848
59525DOD     C122394   3.326  22.832   0.099  0.2490 -0.0084  0.1716
59525DOD     C222395   2.982  22.697   0.294  0.2555  0.0771  0.1876
59525DOD     C322396   2.715  22.312   0.358 -0.0600 -0.2595 -0.0035
59526DOD     C122397   2.948  11.189  26.287 -0.5843 -0.0796  0.1366
59526DOD     C222398   2.813  10.789  26.414 -0.1762  0.2981 -0.0508
59526DOD     C322399   3.095  10.408  26.496  0.1913 -0.1596  0.1982
59527DOD     C122400   8.232  15.024   2.113 -0.1032  0.0108  0.0164
59527DOD     C222401   8.355  14.750   2.447 -0.0208 -0.1797  0.0107
59527DOD     C322402   8.689  14.652   2.694  0.0877 -0.1706 -0.4406
59528DOD     C122403   0.267   2.346  22.403 -0.0719  0.0333  0.0134
59528DOD     C222404   0.682   2.352  22.244 -0.1364  0.1503 -0.2627
59528DOD     C322405   1.106   2.304  22.030  0.0636  0.0372 -0.1136
59529DOD     C122406   1.794  23.850   3.550 -0.1207 -0.0279 -0.0280
59529DOD     C222407   1.735  23.777   3.974  0.0710 -0.0775  0.0995
59529DOD     C322408   1.749  23.431   4.361 -0.1308 -0.0881 -0.0899
59530DOD     C122409  16.191  17.162   4.976 -0.0644  0.1922 -0.0398
59530DOD     C222410  15.850  17.288   5.315 -0.2982 -0.0189  0.0525
59530DOD     C322411  15.575  17.210   5.668  0.2003 -0.2173  0.0055
59531DOD     C122412  27.076  20.880  25.648  0.0628 -0.1228  0.1413
59531DOD     C222413  27.277  21.205  25.393 -0.0153 -0.0644  0.0142
59531DOD     C322414  27.522  21.455  25.083  0.0593 -0.1826  0.1250
59532DOD     C122415  18.121   1.474  20.459 -0.3319  0.1067 -0.1889
59532DOD     C222416  18.069   1.816  20.764 -0.2610  0.1407  0.2435
59532DOD     C322417  18.242   2.203  20.559  0.0256  0.1737 -0.0880
59533DOD     C122418   8.477   2.398  21.372  0.0703 -0.1243 -0.4168
59533DOD     C222419   8.827   2.285  21.584 -0.0769  0.2337 -0.3256
59533DOD     C322420   9.276   2.189  21.649 -0.2199  0.2691 -0.1348
59534DOD     C122421  26.635   0.562   6.527  0.0881 -0.2118  0.0227
59534DOD     C222422  27.052   0.594   6.346 -0.1779 -0.2210  0.2947
59534DOD     C322423  27.457   0.812   6.167  0.1749 -0.0809 -0.1471
59535DOD     C122424  13.628   9.202  16.622 -0.3021 -0.1213  0.0250
59535DOD     C222425  13.931   9.082  16.305  0.1068 -0.2472 -0.2538
59535DOD     C322426  14.003   8.649  16.296 -0.0324  0.2022  0.0968
59536DOD     C122427  27.956   5.603  26.061  0.2303  0.0812 -0.1291
59536DOD     C222428  27.739   5.898  26.363  0.0570  0.2769 -0.3569
59536DOD     C322429  27.427   6.108  26.549 -0.0256 -0.0046 -0.0818
59537DOD     C122430  23.027  12.121  11.554 -0.1277 -0.2860  0.0952
59537DOD     C222431  23.452  12.401  11.576  0.2065 -0.2014  0.0855
59537DOD     C322432  23.894  12.402  11.787 -0.0583 -0.1459  0.3106
59538DOD     C122433  16.654  16.133  12.846 -0.0119  0.0946  0.3420
59538DOD     C222434  16.755  15.737  12.570  0.0391  0.0475 -0.0258
59538DOD     C322435  17.060  15.361  12.568  0.5416  0.0527 -0.0444
59539DOD     C122436   5.186  11.786   0.905  0.1051 -0.0108  0.5589
59539DOD     C222437   4.882  11.897   1.314 -0.0977  0.0069  0.1856
59539DOD     C322438   4.546  12.124   1.513  0.0362  0.0136  0.2041
59540DOD     C122439  11.612   3.590  24.202  0.3000 -0.3005 -0.1814
59540DOD     C222440  11.578   3.284  23.877 -0.2869 -0.3009  0.1533
59540DOD     C322441  11.795   3.245  23.476 -0.1743  0.0688  0.1854
59541DOD     C122442  22.425   4.746  27.827  0.1068  0.1508 -0.0432
59541DOD     C222443  22.568   4.722  28.252 -0.1377 -0.0929 -0.2206
59541DOD     C322444  22.962   4.830  28.436  0.2416  0.0181 -0.0207
59542DOD     C122445   5.749  21.612   8.199  0.1907  0.1523 -0.0205
59542DOD     C222446   5.492  21.980   8.259  0.0629  0.0113 -0.2897
59542DOD     C322447   5.267  22.393   8.259  0.0096 -0.2961  0.1243
59543DOD     C122448   1.684   1.011   4.129 -0.2039  0.3361 -0.1419
59543DOD     C222449   1.913   0.645   3.892  0.0718  0.0987 -0.0528
59543DOD     C322450   1.875   0.389   3.514  0.0788  0.0414  0.1168
59544DOD     C122451  11.043   0.437   7.994 -0.3776  0.0744 -0.0258
59544DOD     C222452  11.207  30.306   7.983  0.2206  0.1792 -0.0384
59544DOD     C322453  11.310  29.912   7.900 -0.0054  0.5183 -0.3057
59545DOD     C122454  15.604   3.726   6.451  0.1191 -0.1597 -0.0483
59545DOD     C222455  15.756   4.110   6.226 -0.0074 -0.1322 -0.1067
59545DOD     C322456  15.631   4.568   6.132 -0.0758  0.0134  0.0202
59546DOD     C122457   0.937  22.295   7.133 -0.0011  0.1840 -0.0207
59546DOD     C222458   1.089  22.552   7.523  0.2098  0.2116  0.0647
59546DOD     C322459   0.811  22.871   7.649 -0.2004 -0.1197 -0.0689
59547DOD     C122460  26.979   3.852  25.848  0.1977  0.3727  0.0502
59547DOD     C222461  26.625   4.121  25.967  0.0946 -0.0711  0.2071
59547DOD     C322462  26.223   4.364  26.091  0.0586  0.2693 -0.2286
59548DOD     C122463   6.023  24.203   2.686 -0.1184  0.4895 -0.1160
59548DOD     C222464   5.948  24.667   2.776 -0.0484  0.1228  0.1146
59548DOD     C322465   5.801  25.148   2.569 -0.2080 -0.0061  0.0467
59549DOD     C122466   9.273   9.413  16.081  0.3623  0.5873 -0.0679
59549DOD     C222467   9.351   8.955  16.209 -0.1641  0.1534  0.0138
59549DOD     C322468   9.215   8.527  16.147 -0.1824 -0.0587 -0.0473
59550DOD     C122469  23.753  14.862   0.845 -0.3262  0.0220 -0.0268
59550DOD     C222470  23.609  15.293   1.029  0.2566  0.1603 -0.2371
59550DOD     C322471  23.191  15.567   1.007  0.0079 -0.0219  0.2347
59551DOD     C122472  29.570  26.610   3.993  0.2824  0.0559  0.0193
59551DOD     C222473  29.738  27.049   4.057  0.2504 -0.0919 -0.2399
59551DOD     C322474  29.979  27.458   3.992  0.0592  0.0596  0.1082
59552DOD     C122475  19.258   0.558  21.452 -0.0621  0.0300 -0.1908
59552DOD     C222476  19.416   0.365  21.022  0.1555 -0.2114  0.0547
59552DOD     C322477  19.742   0.006  20.989  0.0779 -0.1403  0.0555
59553DOD     C122478  19.166  12.576  23.072 -0.3025  0.0421  0.0398
59553DOD     C222479  18.887  12.235  23.172  0.3848 -0.2562  0.1605
59553DOD     C322480  18.559  11.903  23.121  0.0305  0.0874  0.0853
59554DOD     C122481   8.008   2.454  12.332 -0.1655  0.0269  0.4268
59554DOD     C222482   7.542   2.525  12.425 -0.1762  0.0893 -0.0771
59554DOD     C322483   7.389   2.779  12.743  0.2764 -0.1093 -0.2028
59555DOD     C122484   0.979  16.139  10.487 -0.1901  0.1510  0.0250
59555DOD     C222485   0.891  16.588  10.282 -0.1240  0.0360 -0.0621
59555DOD     C322486   0.695  16.807   9.977 -0.1374  0.2108  0.1242
59556DOD     C122487  27.295  14.899  11.634 -0.2359  0.1224  0.1122
59556DOD     C222488  27.426  15.322  11.832 -0.1417  0.0929 -0.1707
59556DOD     C322489  27.470  15.333  12.261  0.1552 -0.1686  0.2283
59557DOD     C122490  14.483  20.449  29.200  0.1756 -0.3043  0.2867
59557DOD     C222491  14.942  20.493  29.414 -0.1699  0.1491  0.1188
59557DOD     C322492  15.340  20.241  29.598 -0.1559  0.0670 -0.1089
59558DOD     C122493   9.976   9.337   4.290  0.0123 -0.0838 -0.2807
59558DOD     C222494   9.527   9.555   4.337 -0.2086 -0.0986  0.0172
59558DOD     C322495   9.102   9.505   4.456 -0.0106 -0.1535 -0.0332
59559DOD     C122496   7.356  23.080  28.371 -0.2665  0.2422 -0.1303
59559DOD     C222497   7.535  23.436  28.233 -0.0210  0.0116 -0.2494
59559DOD     C322498   7.781  23.793  28.033  0.1589  0.2494  0.1349
59560DOD     C122499  12.500   0.817   4.896  0.1535  0.2259 -0.1292
59560DOD     C222500  12.910   0.758   5.016  0.1263  0.2338 -0.2182
59560DOD     C322501  13.231   0.928   5.287  0.1646  0.2071 -0.0543
59561DOD     C122502  29.306  20.547  23.923 -0.0553  0.1063 -0.0251
59561DOD     C222503  29.020  20.776  23.634  0.1035  0.1640 -0.0681
59561DOD     C322504  28.697  20.869  23.269  0.0390  0.0417 -0.0700
59562DOD     C122505   1.452  12.039  12.479  0.0299 -0.1267 -0.1059
59562DOD     C222506   1.636  12.481  12.412  0.2762  0.1755  0.1193
59562DOD     C322507   1.876  12.843  12.493 -0.0746  0.0676 -0.4164
59563DOD     C122508  28.758  15.553  21.888  0.1182 -0.3304  0.1470
59563DOD     C222509  29.101  15.312  22.117  0.3616  0.0651 -0.0231
59563DOD     C322510  29.394  15.013  22.140 -0.2659  0.2460 -0.0911
59564DOD     C122511   5.381  20.678  17.418 -0.0638  0.1496 -0.0173
59564DOD     C222512   5.688  20.945  17.218  0.0020  0.0389 -0.1444
59564DOD     C322513   5.871  21.040  16.802  0.0024  0.0937 -0.4079
59565DOD     C122514  13.613  11.178  22.449  0.3050 -0.3089 -0.0739
59565DOD     C222515  13.427  10.822  22.410  0.1618  0.3337 -0.0552
59565DOD     C322516  13.257  10.426  22.627 -0.4151  0.0326 -0.3307
59566DOD     C122517  24.947   7.898   3.431  0.1743 -0.3657  0.0526
59566DOD     C222518  25.002   7.455   3.601  0.0100 -0.3440  0.2207
59566DOD     C322519  25.014   7.163   3.952 -0.0135  0.1497  0.3203
59567DOD     C122520   0.888   4.026  11.887  0.0160 -0.1434  0.2108
59567DOD     C222521   0.960   3.872  12.334 -0.1176 -0.2350 -0.1232
59567DOD     C322522   0.624   3.893  12.678  0.1629 -0.3484 -0.1567
59568DOD     C122523   2.576  27.636   7.724 -0.0845 -0.1917  0.0881
59568DOD     C222524   2.628  27.628   8.206 -0.2415 -0.2176 -0.2382
59568DOD     C322525   2.530  27.850   8.653 -0.0796 -0.0671 -0.0569
59569DOD     C122526   8.618  15.397   7.042 -0.2161 -0.3903  0.2522
59569DOD     C222527   8.364  15.645   7.350  0.0807  0.2818  0.0390
59569DOD     C322528   8.073  15.789   7.750  0.0409 -0.3901 -0.1344
59570DOD     C122529  19.353   8.645  15.384  0.3125  0.0293 -0.1198
59570DOD     C222530  19.615   8.974  15.671  0.2239 -0.1074 -0.1534
59570DOD     C322531  19.799   9.196  16.049 -0.0049  0.0052 -0.1182
59571DOD     C122532  13.971   3.930  27.530  0.2730  0.0967  0.1548
59571DOD     C222533  13.693   3.617  27.717 -0.2364  0.1406  0.0105
59571DOD     C322534  13.453   3.274  27.932  0.4526 -0.2106  0.1328
59572DOD     C122535  18.429  20.389  27.798 -0.0331 -0.0243 -0.0014
59572DOD     C222536  18.374  20.591  28.257 -0.0062 -0.4126  0.0665
59572DOD     C322537  18.002  20.645  28.560  0.0293  0.0118 -0.1058
59573DOD     C122538  20.668   0.737   1.457  0.0700  0.3819  0.1298
59573DOD     C222539  20.942   0.361   1.562  0.2046 -0.0444 -0.1226
59573DOD     C322540  20.846   0.035   1.852 -0.2255 -0.3071  0.0912
59574DOD     C122541  27.956   1.268  11.606 -0.1322  0.2751  0.1122
59574DOD     C222542  28.227   1.451  11.948  0.1829 -0.0421 -0.2683
59574DOD     C322543  28.346   1.531  12.397  0.1188  0.0333 -0.2195
59575DOD     C122544  19.401  22.581  12.057  0.0364 -0.0044 -0.0354
59575DOD     C222545  19.781  22.525  12.363  0.0194  0.1387  0.1584
59575DOD     C322546  20.193  22.271  12.261 -0.0097  0.0968  0.5365
59576DOD     C122547  26.560   6.508   4.725  0.2138  0.3452  0.1697
59576DOD     C222548  26.139   6.736   4.681  0.0489  0.2648  0.1910
59576DOD     C322549  25.753   6.497   4.822  0.3248 -0.1915  0.0421
59577DOD     C122550  24.337  17.714  14.202 -0.2222  0.2989 -0.4318
59577DOD     C222551  24.550  18.013  14.468 -0.1414  0.0909 -0.0868
59577DOD     C322552  24.924  18.243  14.474  0.0781 -0.2168  0.0735
59578DOD     C122553  11.498  18.573  10.921  0.0348  0.0749 -0.0677
59578DOD     C222554  11.625  18.913  10.632  0.0426 -0.0437  0.0287
59578DOD     C322555  11.807  19.243  10.410  0.1976  0.1548 -0.2849
59579DOD     C122556  30.177   3.774  22.292  0.2576  0.0258 -0.1072
59579DOD     C222557   0.036   3.853  22.696 -0.4070 -0.1505  0.2988
59579DOD     C322558   0.285   4.177  23.005  0.2880  0.1806 -0.1691
59580DOD     C122559  18.542  21.449   5.912 -0.2383  0.3292  0.1569
59580DOD     C222560  18.353  21.930   5.874  0.1395  0.0367 -0.1229
59580DOD     C322561  18.192  22.351   5.818  0.1054 -0.2179 -0.1365
59581DOD     C122562  17.222   3.732  21.113 -0.1513  0.2624  0.3060
59581DOD     C222563  17.187   4.057  21.419  0.0193 -0.0265  0.0750
59581DOD     C322564  17.519   4.335  21.584  0.1222  0.2561  0.3556
59582DOD     C122565  12.716  17.987  22.207 -0.2405 -0.0121 -0.0079
59582DOD     C222566  12.311  17.876  22.282  0.0209  0.2760 -0.1231
59582DOD     C322567  11.886  17.762  22.511 -0.4096  0.1490 -0.0847
59583DOD     C122568  14.661   4.652   0.983  0.2000 -0.0947  0.3722
59583DOD     C222569  14.284   4.535   0.644 -0.0014  0.0246  0.1627
59583DOD     C322570  13.962   4.267   0.524 -0.1974  0.0518  0.2449
59584DOD     C122571  21.373  22.339   4.080 -0.1393 -0.0876  0.0944
59584DOD     C222572  21.359  22.241   4.494 -0.1002 -0.0075  0.0334
59584DOD     C322573  21.246  21.912   4.850  0.1199 -0.0997  0.0467
59585DOD     C122574  16.402   7.808  21.814  0.3907 -0.1620 -0.1228
59585DOD     C222575  16.154   7.441  22.017 -0.0125 -0.1886 -0.0968
59585DOD     C322576  15.854   7.103  22.273  0.0684 -0.3064  0.3088
59586DOD     C122577   0.084  19.585  20.182 -0.2591 -0.1922  0.1344
59586DOD     C222578   0.222  19.136  20.161 -0.2196  0.0342 -0.1179
59586DOD     C322579   0.275  18.713  20.366 -0.4557  0.1587 -0.0833
59587DOD     C122580  27.373  27.858   0.124 -0.0516 -0.3261 -0.0392
59587DOD     C222581  27.360  28.290   0.120  0.1545  0.4097  0.1833
59587DOD     C322582  27.229  28.648  30.177  0.2116  0.2162  0.0805
59588DOD     C122583   8.620   1.791  10.063  0.0826 -0.2496  0.2793
59588DOD     C222584   8.542   1.302   9.898 -0.2190 -0.1325 -0.3258
59588DOD     C322585   8.311   0.973   9.655 -0.1264  0.2487 -0.2654
59589DOD     C122586  28.214  19.100   5.743  0.1680 -0.0564  0.0841
59589DOD     C222587  28.255  18.689   5.904  0.5256 -0.0367 -0.1547
59589DOD     C322588  28.491  18.457   6.298 -0.2664 -0.0145  0.0421
59590DOD     C122589  22.176   0.069   0.070 -0.1704  0.1623 -0.0863
59590DOD     C222590  21.938   0.436   0.200 -0.1397 -0.4707  0.1591
59590DOD     C322591  21.952   0.715   0.604  0.0364  0.1659 -0.3481
59591DOD     C122592  19.784   3.547   8.233 -0.2502  0.0342  0.0760
59591DOD     C222593  19.543   3.213   8.498 -0.0125 -0.0224  0.1427
59591DOD     C322594  19.207   3.125   8.843 -0.1691 -0.2671  0.0198
59592DOD     C122595  12.985  24.699  14.098 -0.2814  0.0720 -0.1256
59592DOD     C222596  12.904  25.044  13.798  0.2439 -0.2782  0.3063
59592DOD     C322597  12.931  25.287  13.397 -0.1138  0.5123 -0.1169
59593DOD     C122598   3.473   5.373  19.839 -0.0205 -0.0377  0.3967
59593DOD     C222599   3.686   5.528  19.484  0.1791 -0.4004  0.1272
59593DOD     C322600   4.061   5.769  19.324 -0.3346 -0.2954 -0.0400
59594DOD     C122601   7.753   0.558  22.095 -0.1686  0.2089  0.1705
59594DOD     C222602   7.552   0.441  22.470 -0.1380 -0.1615 -0.0588
59594DOD     C322603   7.713   0.213  22.834 -0.1457  0.0800  0.0257
59595DOD     C122604  17.792  29.315  22.598  0.1902 -0.2950 -0.0596
59595DOD     C222605  17.865  28.891  22.796  0.1275  0.0171  0.1981
59595DOD     C322606  18.020  28.511  22.944 -0.0519 -0.2820 -0.0363
59596DOD     C122607   4.658   5.470  11.333  0.1566  0.1089 -0.3345
59596DOD     C222608   4.902   5.093  11.264 -0.0058  0.0580  0.0854
59596DOD     C322609   5.327   4.908  11.308  0.2794 -0.0217 -0.1036
59597DOD     C122610  11.181  21.979  25.729  0.3279 -0.2809 -0.1774
59597DOD     C222611  11.498  22.361  25.894 -0.0730 -0.2800 -0.1400
59597DOD     C322612  11.655  22.825  25.927 -0.2074  0.0582 -0.3328
59598DOD     C122613  14.325   4.571  11.364 -0.0367  0.2341 -0.1044
59598DOD     C222614  14.439   5.022  11.361 -0.0031 -0.2192 -0.2868
59598DOD     C322615  14.190   5.397  11.554  0.0852  0.2403 -0.0990
59599DOD     C122616  15.976   2.427  20.160  0.0072  0.3168 -0.1669
59599DOD     C222617  15.789   2.852  20.139  0.3070  0.2219 -0.1514
59599DOD     C322618  15.446   3.196  20.023  0.3220 -0.1694  0.2919
59600DOD     C122619  15.194   2.078  27.695  0.1945  0.2082  0.5014
59600DOD     C222620  14.955   1.660  27.746 -0.0285  0.0812  0.0118
59600DOD     C322621  14.853   1.330  28.070 -0.1245  0.0438  0.1367
59601DOD     C122622  28.488   3.470  12.071  0.1799 -0.2997  0.0908
59601DOD     C222623  28.431   3.467  11.632  0.1478 -0.1597  0.3052
59601DOD     C322624  28.463   3.704  11.258 -0.1205  0.2024  0.1008
59602DOD     C122625   7.875  27.823  20.315  0.1911  0.0628 -0.2956
59602DOD     C222626   7.627  27.782  20.751  0.0587  0.0834 -0.1285
59602DOD     C322627   7.226  27.861  20.995 -0.2244  0.0297 -0.1853
59603DOD     C122628   2.050  14.221  27.062 -0.1311  0.0864  0.2566
59603DOD     C222629   2.456  14.171  26.952 -0.0205  0.0381  0.4088
59603DOD     C322630   2.821  13.930  27.102 -0.0293 -0.1870  0.2109
59604DOD     C122631  14.928   6.312   1.458  0.1154 -0.0484  0.0910
59604DOD     C222632  14.669   6.440   1.129 -0.1626  0.4632  0.2659
59604DOD     C322633  14.816   6.527   0.692 -0.1922  0.2765 -0.2558
59605DOD     C122634  15.816  17.544   2.486 -0.1535 -0.2026 -0.3341
59605DOD     C222635  15.427  17.341   2.581 -0.4379 -0.0560 -0.0618
59605DOD     C322636  15.077  17.166   2.764 -0.0687  0.4129 -0.1988
59606DOD     C122637  24.692  22.111  30.104  0.1172 -0.3601  0.3033
59606DOD     C222638  24.779  22.529  29.889  0.0429  0.2333  0.0073
59606DOD     C322639  24.802  22.936  29.674  0.5011  0.1442 -0.2429
59607DOD     C122640  29.831  19.080  27.228  0.2036 -0.0579  0.1972
59607DOD     C222641  29.709  19.414  26.869 -0.1151 -0.2120  0.0223
59607DOD     C322642  29.714  19.841  26.657  0.1053  0.1705  0.1341
59608DOD     C122643  28.928  10.757  21.578 -0.0676 -0.0028 -0.1272
59608DOD     C222644  29.126  11.012  21.319  0.1692 -0.0192 -0.0402
59608DOD     C322645  29.090  11.450  21.135  0.5616  0.0403 -0.0705
59609DOD     C122646  29.249  24.396  17.313  0.1870 -0.0009 -0.0161
59609DOD     C222647  29.186  23.975  17.196 -0.2140  0.0199 -0.1081
59609DOD     C322648  29.483  23.563  17.302 -0.0929 -0.0119  0.2824
59610DOD     C122649   2.792  23.933   7.387  0.0919 -0.3595 -0.0509
59610DOD     C222650   2.715  23.560   7.583 -0.2443  0.1974  0.0580
59610DOD     C322651   2.367  23.300   7.508  0.2728 -0.2630 -0.1849
59611DOD     C122652  26.220  20.163   5.987 -0.2361  0.1892  0.0009
59611DOD     C222653  26.494  19.922   6.334  0.2507 -0.0753  0.1013
59611DOD     C322654  26.721  19.650   6.695  0.1611 -0.0281 -0.0371
59612DOD     C122655  11.438  14.711   5.021  0.1494 -0.4841 -0.1622
59612DOD     C222656  11.282  15.072   5.257 -0.2358  0.0101  0.2930
59612DOD     C322657  10.995  15.384   5.374 -0.0845 -0.0850 -0.2847
59613DOD     C122658  10.278   2.128   6.156  0.0297 -0.1118  0.0394
59613DOD     C222659   9.945   2.046   5.792  0.4001 -0.0915 -0.2046
59613DOD     C322660   9.671   1.808   5.504 -0.0863 -0.1802 -0.2764
59614DOD     C122661   9.651  22.386  12.016  0.0351 -0.1431 -0.0973
59614DOD     C222662   9.196  22.550  12.119 -0.0714  0.1433 -0.4740
59614DOD     C322663   8.727  22.729  12.234  0.2692  0.0603  0.0809
59615DOD     C122664  11.907  25.728   8.074 -0.0598 -0.1488  0.1512
59615DOD     C222665  11.955  26.217   8.015  0.1281  0.0527 -0.1260
59615DOD     C322666  12.107  26.546   8.265 -0.1660 -0.2220  0.0528
59616DOD     C122667  20.090   8.881  12.682 -0.2465  0.0739 -0.0417
59616DOD     C222668  20.519   8.886  12.890  0.2114 -0.0993  0.0284
59616DOD     C322669  20.717   8.547  13.174  0.1940 -0.0498  0.0477
59617DOD     C122670  28.388  23.501  26.592  0.0464 -0.3423  0.0556
59617DOD     C222671  28.299  23.664  26.143 -0.1416 -0.1756  0.0827
59617DOD     C322672  28.345  23.580  25.719  0.2204  0.5484  0.1993
59618DOD     C122673  21.430  27.479  20.741 -0.0747 -0.2102 -0.0263
59618DOD     C222674  20.998  27.352  20.774 -0.0549 -0.0504 -0.5125
59618DOD     C322675  20.529  27.274  20.851  0.0325  0.0886  0.3812
59619DOD     C122676   7.309  16.578  11.977  0.0317 -0.1142  0.2424
59619DOD     C222677   6.922  16.868  11.930  0.0802  0.1229  0.1036
59619DOD     C322678   6.695  17.022  12.318 -0.1351  0.2054  0.2188
59620DOD     C122679  21.389  10.467  18.755  0.1903  0.1064 -0.1259
59620DOD     C222680  21.652  10.074  18.778 -0.1928 -0.0587  0.2521
59620DOD     C322681  21.953   9.756  18.636 -0.1022 -0.2186 -0.1115
59621DOD     C122682  10.430  10.770  10.012 -0.0627  0.0894  0.0270
59621DOD     C222683  10.358  10.355   9.772  0.2380  0.1029 -0.1986
59621DOD     C322684  10.153  10.241   9.342 -0.1233 -0.1942  0.1601
59622DOD     C122685  18.476  23.670  14.754 -0.4090 -0.1667 -0.2595
59622DOD     C222686  18.158  23.422  14.510 -0.2693  0.2416 -0.0805
59622DOD     C322687  17.892  23.175  14.222  0.4140  0.2495 -0.1475
59623DOD     C122688   3.804   7.059   9.583 -0.0936 -0.0630 -0.1494
59623DOD     C222689   3.953   7.140   9.118 -0.0432  0.0989  0.0053
59623DOD     C322690   4.135   7.034   8.714 -0.1904 -0.0626 -0.3304
59624DOD     C122691  27.401  18.410  27.939  0.2389 -0.0271 -0.1963
59624DOD     C222692  27.825  18.679  27.886  0.0142  0.0998  0.1483
59624DOD     C322693  28.030  19.139  27.866 -0.2355 -0.0620 -0.4077
59625DOD     C122694   1.590   3.622  19.534  0.0541  0.2207 -0.0677
59625DOD     C222695   1.615   3.482  20.006 -0.1801 -0.2422 -0.1088
59625DOD     C322696   1.846   3.254  20.330  0.0439 -0.2276  0.0909
59626DOD     C122697  12.806  26.769   1.029 -0.0956  0.1435 -0.1195
59626DOD     C222698  12.934  27.220   0.864  0.1832 -0.2371 -0.5247
59626DOD     C322699  13.342  27.451   0.682 -0.1619  0.1493 -0.2135
59627DOD     C122700   8.269  26.121  23.129  0.1109  0.1037  0.0584
59627DOD     C222701   8.456  26.301  23.494 -0.1001 -0.0746 -0.0090
59627DOD     C322702   8.670  26.550  23.830 -0.2256 -0.0930 -0.0918
59628DOD     C122703  20.252   8.457   1.247 -0.0765 -0.1376  0.0764
59628DOD     C222704  20.336   8.849   1.488 -0.1256  0.0443  0.1740
59628DOD     C322705  20.433   9.264   1.583 -0.1306  0.0531 -0.2625
59629DOD     C122706  15.011  23.078  17.375  0.0259  0.0477 -0.5396
59629DOD     C222707  15.380  22.832  17.214  0.4409  0.2557  0.1206
59629DOD     C322708  15.725  22.591  17.442 -0.0723 -0.3924  0.2660
59630DOD     C122709  22.151   4.254   4.594  0.1248  0.0250 -0.0349
59630DOD     C222710  21.998   4.534   4.925  0.1357 -0.0562 -0.0354
59630DOD     C322711  21.636   4.845   4.967  0.2007 -0.1784  0.3522
59631DOD     C122712  17.071  14.642   7.115  0.0821  0.0776  0.1121
59631DOD     C222713  16.999  15.072   6.859  0.1387  0.0345 -0.1086
59631DOD     C322714  17.159  15.469   6.604  0.1720 -0.0383 -0.0734
59632DOD     C122715  26.175  16.411   1.655  0.0930 -0.2083 -0.2472
59632DOD     C222716  26.405  16.627   1.305 -0.3170 -0.1294 -0.0403
59632DOD     C322717  26.627  16.707   0.921 -0.0092 -0.2759  0.2683
59633DOD     C122718  23.092   0.578   6.572 -0.1281 -0.3861 -0.0144
59633DOD     C222719  23.379   0.844   6.854  0.3302  0.0320  0.3243
59633DOD     C322720  23.786   0.825   6.972  0.0717 -0.0190 -0.1314
59634DOD     C122721  17.803  12.606  27.948  0.1300  0.0327  0.3534
59634DOD     C222722  17.408  12.761  27.706 -0.0390  0.1565 -0.1265
59634DOD     C322723  17.250  13.143  27.432 -0.2287 -0.0476 -0.0281
59635DOD     C122724  18.881  15.382  19.390 -0.1039  0.2508 -0.0649
59635DOD     C222725  18.978  15.192  18.989  0.1264  0.0195 -0.2226
59635DOD     C322726  18.983  14.809  18.837  0.1674  0.0108  0.0453
59636DOD     C122727  23.625   2.294   9.000  0.0079 -0.0038 -0.1446
59636DOD     C222728  23.464   1.993   9.346 -0.1561 -0.3357 -0.0720
59636DOD     C322729  23.306   1.679   9.687  0.0528 -0.0860  0.2034
59637DOD     C122730  24.267  25.323  25.414 -0.0013  0.0662 -0.3112
59637DOD     C222731  24.228  25.042  25.756  0.0773  0.1177  0.0105
59637DOD     C322732  24.109  24.897  26.194  0.3492 -0.0294  0.0018
59638DOD     C122733  17.496   2.534  22.135 -0.2917  0.0503  0.1964
59638DOD     C222734  17.909   2.364  22.198  0.2035  0.3169  0.1012
59638DOD     C322735  18.208   2.305  21.859  0.0294  0.0401  0.3395
59639DOD     C122736  13.646  16.296  15.321 -0.0779  0.0664 -0.1123
59639DOD     C222737  13.533  16.050  14.963 -0.0367 -0.1431 -0.1048
59639DOD     C322738  13.237  16.087  14.541  0.2145 -0.2005  0.1970
59640DOD     C122739  28.349  20.606   6.752 -0.1095 -0.1837  0.4610
59640DOD     C222740  28.759  20.603   6.805  0.1301  0.2908 -0.1551
59640DOD     C322741  29.140  20.305   6.803  0.0831 -0.0640 -0.1487
59641DOD     C122742  30.114  24.236   6.953 -0.1889 -0.1236 -0.1491
59641DOD     C222743  29.933  24.324   7.351  0.1123 -0.0812 -0.1726
59641DOD     C322744  29.456  24.325   7.537 -0.3618 -0.0280 -0.0583
59642DOD     C122745  18.711  30.096  30.291 -0.0419 -0.1165  0.0970
59642DOD     C222746  19.133  29.913  30.178 -0.0299 -0.0682  0.0281
59642DOD     C322747  19.569  30.017   0.025 -0.0741 -0.1607  0.0878
59643DOD     C122748  14.572  18.740  24.785  0.0143 -0.0475  0.0782
59643DOD     C222749  14.108  18.893  24.772  0.0314  0.0695 -0.0189
59643DOD     C322750  13.752  19.174  24.822  0.4136 -0.0993  0.0248
59644DOD     C122751  17.677  22.521  16.726  0.1494  0.3474  0.1003
59644DOD     C222752  17.949  22.195  16.586  0.0181 -0.1247  0.1437
59644DOD     C322753  17.762  21.809  16.360  0.0196  0.0382 -0.2390
59645DOD     C122754  11.093   1.732  26.557 -0.0840  0.0259  0.1510
59645DOD     C222755  10.816   1.639  26.894  0.2071  0.1146 -0.1155
59645DOD     C322756  10.454   1.731  27.094 -0.0196  0.1503  0.0579
59646DOD     C122757  28.804  28.748   3.572  0.3050  0.0598  0.0484
59646DOD     C222758  28.559  29.117   3.660  0.0760 -0.1629 -0.0525
59646DOD     C322759  28.141  29.417   3.657  0.0643  0.5021 -0.2433
59647DOD     C122760  28.710   9.670   2.409 -0.2944 -0.0153 -0.1048
59647DOD     C222761  29.033   9.332   2.613  0.0464 -0.2689 -0.0784
59647DOD     C322762  29.204   8.899   2.577 -0.1751 -0.2602 -0.6301
59648DOD     C122763  23.807  25.226  22.823 -0.1787  0.5081  0.0836
59648DOD     C222764  23.481  25.475  22.783 -0.2415  0.1152 -0.1390
59648DOD     C322765  23.097  25.705  22.924 -0.1955 -0.1890  0.0364
59649DOD     C122766   2.001  26.290  18.371  0.1179  0.1657  0.0699
59649DOD     C222767   2.423  26.152  18.357 -0.0590 -0.2158 -0.0270
59649DOD     C322768   2.639  25.749  18.360 -0.3612  0.1994 -0.2027
59650DOD     C122769   7.953   3.084  11.865  0.4248 -0.0905  0.0443
59650DOD     C222770   8.325   3.324  11.808 -0.1096 -0.1292  0.1794
59650DOD     C322771   8.498   3.754  11.684 -0.1559 -0.0908 -0.2573
59651DOD     C122772   2.376  16.204  27.579 -0.2759  0.0670  0.0355
59651DOD     C222773   2.361  16.377  28.044 -0.0237 -0.1097  0.0168
59651DOD     C322774   2.235  16.798  28.272  0.0106  0.1163  0.0520
59652DOD     C122775  14.395  18.103  10.562 -0.0933  0.3180 -0.1248
59652DOD     C222776  14.372  17.687  10.281 -0.0030 -0.2324  0.0675
59652DOD     C322777  14.660  17.280  10.092  0.0966 -0.1050  0.1054
59653DOD     C122778  17.220  29.295  13.624 -0.0271  0.1291  0.0858
59653DOD     C222779  17.645  29.539  13.629 -0.1473  0.1102 -0.0372
59653DOD     C322780  17.912  29.916  13.725  0.1540  0.1794 -0.1159
59654DOD     C122781  20.304  29.432   5.953 -0.1306 -0.3256 -0.1677
59654DOD     C222782  20.448  29.445   5.519  0.1867 -0.3090 -0.2666
59654DOD     C322783  20.483  29.412   5.053 -0.1121 -0.1862  0.1917
59655DOD     C122784  12.384   3.650  19.102  0.0896 -0.0602 -0.1284
59655DOD     C222785  11.950   3.583  19.081 -0.1369  0.0031 -0.0883
59655DOD     C322786  11.579   3.693  19.272 -0.1435 -0.2057  0.0180
59656DOD     C122787   3.111  25.346  12.216 -0.2136  0.0855  0.1985
59656DOD     C222788   3.403  25.015  12.319 -0.0196  0.2099  0.0054
59656DOD     C322789   3.832  24.964  12.427 -0.0573 -0.1025  0.2495
59657DOD     C122790  17.163  15.427   0.116  0.0440  0.3072  0.0539
59657DOD     C222791  16.854  15.790   0.150 -0.0194 -0.0836  0.2179
59657DOD     C322792  16.474  16.018   0.086  0.0624  0.2533 -0.0089
59658DOD     C122793  24.836  24.467   5.536  0.0132  0.0293 -0.1755
59658DOD     C222794  24.452  24.620   5.259  0.0420  0.0797 -0.0491
59658DOD     C322795  24.075  24.466   5.100  0.0102  0.0937  0.0865
59659DOD     C122796   5.455   3.814   0.987  0.0417 -0.0018  0.1577
59659DOD     C222797   5.785   3.975   1.217  0.1066  0.1258 -0.2808
59659DOD     C322798   6.107   3.918   1.531  0.0513 -0.3508 -0.2118
59660DOD     C122799   5.225  26.682  17.713  0.1029 -0.1317  0.0908
59660DOD     C222800   4.861  26.892  17.667 -0.2081 -0.1715 -0.0599
59660DOD     C322801   4.814  27.370  17.866  0.0540  0.1387 -0.0394
59661DOD     C122802  12.100   0.333  17.111 -0.1865 -0.0030 -0.0455
59661DOD     C222803  11.671   0.429  17.042 -0.3153 -0.1216  0.0133
59661DOD     C322804  11.409   0.720  16.757  0.2373  0.1950  0.0932
59662DOD     C122805  14.380  11.184  10.827  0.0411 -0.0294  0.1589
59662DOD     C222806  14.228  10.784  10.617  0.2080  0.0297 -0.0705
59662DOD     C322807  14.025  10.626  10.243 -0.1755 -0.1221  0.0015
59663DOD     C122808   3.281  18.131  12.479  0.1271 -0.2957  0.3186
59663DOD     C222809   3.253  18.407  12.106 -0.1580  0.1454  0.0772
59663DOD     C322810   3.459  18.728  11.964 -0.2455  0.2666  0.1827
59664DOD     C122811   8.160  18.814  20.837 -0.0850  0.2351 -0.0451
59664DOD     C222812   8.273  19.104  21.146  0.1525  0.1706 -0.2895
59664DOD     C322813   8.546  19.348  21.373 -0.3573  0.0248 -0.1096
59665DOD     C122814   5.326  22.127   5.604 -0.0894  0.0952  0.2615
59665DOD     C222815   5.488  22.368   5.245 -0.1084 -0.2763 -0.3384
59665DOD     C322816   5.610  22.215   4.846 -0.0833  0.1577 -0.0619
59666DOD     C122817  14.325  11.070  12.365  0.1674  0.0001  0.2692
59666DOD     C222818  14.206  11.386  12.012 -0.5102 -0.1451  0.3149
59666DOD     C322819  14.300  11.871  11.856  0.1239 -0.1506  0.2395
59667DOD     C122820  17.579   8.335  17.743 -0.2758 -0.0672  0.1434
59667DOD     C222821  17.630   7.848  17.767  0.0076 -0.1106 -0.3570
59667DOD     C322822  17.700   7.402  17.696  0.5954 -0.0891  0.0268
59668DOD     C122823   9.083   3.814  10.526 -0.1921  0.0749 -0.1052
59668DOD     C222824   9.128   3.602  10.077 -0.1570  0.0625  0.2082
59668DOD     C322825   8.955   3.620   9.627  0.0406  0.0533 -0.1272
59669DOD     C122826  19.034  22.118   0.897  0.2511 -0.0648  0.2697
59669DOD     C222827  19.373  22.005   1.224  0.1262  0.1168  0.0672
59669DOD     C322828  19.467  21.845   1.624 -0.1061  0.0623  0.2898
59670DOD     C122829  11.197  24.046   2.621 -0.3531  0.0255  0.0113
59670DOD     C222830  10.938  24.286   2.798 -0.1183 -0.1435 -0.0455
59670DOD     C322831  10.622  24.576   3.037  0.0190 -0.3134  0.0725
59671DOD     C122832   0.153   9.782  11.174 -0.3014 -0.3589 -0.1143
59671DOD     C222833  30.256   9.758  10.772 -0.1904 -0.2064 -0.0369
59671DOD     C322834  30.120   9.932  10.350 -0.1757 -0.0186 -0.1393
59672DOD     C122835   6.298  23.839   5.019  0.3405 -0.2434  0.2564
59672DOD     C222836   6.352  23.926   4.542  0.0688 -0.0097  0.1448
59672DOD     C322837   6.061  24.033   4.237 -0.1345  0.0551  0.0433
59673DOD     C122838   8.397  13.076  24.002 -0.1711 -0.0403 -0.0228
59673DOD     C222839   8.793  12.835  24.050  0.1583 -0.0162  0.1729
59673DOD     C322840   9.172  12.847  23.822 -0.1926 -0.0431 -0.0676
59674DOD     C122841   2.744  27.646  21.336 -0.3042 -0.0737 -0.1952
59674DOD     C222842   2.649  27.745  20.879 -0.0362  0.1570  0.3196
59674DOD     C322843   2.358  27.707  20.500 -0.1480 -0.1707  0.1145
59675DOD     C122844  21.716  19.099  27.416 -0.0747 -0.1727  0.0613
59675DOD     C222845  21.973  18.785  27.229  0.1065 -0.0519 -0.5637
59675DOD     C322846  21.828  18.541  26.892  0.0552 -0.2910 -0.2209
59676DOD     C122847  10.458  13.706  21.919  0.1586  0.0900  0.0697
59676DOD     C222848  10.400  13.647  21.486  0.1241 -0.1849 -0.1942
59676DOD     C322849  10.272  14.012  21.198 -0.0231  0.1856  0.0397
59677DOD     C122850  16.860  15.724  18.734 -0.0456  0.0944 -0.0227
59677DOD     C222851  16.770  16.103  18.462  0.1214  0.1757 -0.1682
59677DOD     C322852  16.618  16.479  18.186 -0.3626  0.0650 -0.1452
59678DOD     C122853  22.384  13.088   1.987  0.0927 -0.1007  0.2667
59678DOD     C222854  22.788  13.230   1.967  0.0121 -0.0047  0.0577
59678DOD     C322855  23.226  13.097   2.171  0.3153  0.0536 -0.2924
59679DOD     C122856  17.504  18.605  30.059 -0.0245  0.4011  0.0023
59679DOD     C222857  17.458  18.096  30.088  0.1861  0.2662 -0.0923
59679DOD     C322858  17.495  17.671  30.133 -0.2382  0.2546  0.1842
59680DOD     C122859  17.923  11.268  22.053  0.0054  0.1531 -0.2484
59680DOD     C222860  17.804  11.723  21.987 -0.0008 -0.1774  0.3352
59680DOD     C322861  17.661  12.119  21.755 -0.0484 -0.0237 -0.1309
59681DOD     C122862  24.665   1.907  25.295  0.0782  0.1946  0.0583
59681DOD     C222863  24.441   1.970  25.704  0.0938 -0.0786  0.1991
59681DOD     C322864  24.015   2.142  25.997 -0.0301 -0.1380  0.2325
59682DOD     C122865  22.348  18.096  12.080 -0.2120 -0.0110  0.0536
59682DOD     C222866  21.966  18.363  12.262 -0.0329  0.2358 -0.1130
59682DOD     C322867  21.676  18.358  12.608 -0.2485 -0.1069  0.0083
59683DOD     C122868  10.944  28.488   6.743  0.2514  0.0345  0.1910
59683DOD     C222869  10.611  28.513   6.433  0.0721  0.0233  0.1280
59683DOD     C322870  10.281  28.321   6.169 -0.1319 -0.0513 -0.1591
59684DOD     C122871  18.844   7.606   7.127  0.1535  0.1126 -0.2957
59684DOD     C222872  18.460   7.649   6.946 -0.1809  0.0093 -0.1830
59684DOD     C322873  18.283   7.887   6.580  0.0140 -0.2721 -0.0171
59685DOD     C122874   5.824   7.419  24.653  0.3476 -0.2298 -0.0987
59685DOD     C222875   6.045   7.139  24.402  0.2257  0.0603  0.0691
59685DOD     C322876   6.181   7.108  23.936  0.0470 -0.0989 -0.0753
59686DOD     C122877  14.506   9.084   3.506 -0.0064  0.0388  0.2593
59686DOD     C222878  14.283   8.804   3.236 -0.0546  0.0868  0.0602
59686DOD     C322879  13.870   8.605   3.144 -0.2865 -0.0032  0.0707
59687DOD     C122880  21.269  13.414  15.723  0.2132 -0.0005 -0.2702
59687DOD     C222881  21.054  13.408  16.122 -0.0060 -0.0782 -0.0661
59687DOD     C322882  21.090  13.534  16.566  0.0410  0.1515  0.1956
59688DOD     C122883   1.256   9.984  25.684  0.0693 -0.1281 -0.0798
59688DOD     C222884   1.380   9.899  25.250 -0.2309  0.1438 -0.2210
59688DOD     C322885   1.104  10.091  24.948  0.0700  0.4602 -0.0124
59689DOD     C122886   6.050   8.959  18.466  0.0721  0.0296  0.0191
59689DOD     C222887   5.648   9.051  18.218  0.1416 -0.0387 -0.0277
59689DOD     C322888   5.215   9.072  18.381 -0.0880 -0.2629  0.1293
59690DOD     C122889  23.452  19.174  29.410  0.0603 -0.2727 -0.1125
59690DOD     C222890  23.178  19.299  29.752  0.3026  0.1023  0.0131
59690DOD     C322891  23.222  19.670  30.022 -0.0607  0.1485  0.2713
59691DOD     C122892   4.488   0.792  22.208 -0.0049 -0.2628  0.1056
59691DOD     C222893   4.743   1.062  22.446  0.1548  0.1215 -0.0233
59691DOD     C322894   4.653   1.339  22.819  0.3510 -0.0464 -0.2680
59692DOD     C122895  22.671  15.006   9.803  0.0016 -0.0620  0.0452
59692DOD     C222896  22.858  14.561   9.687  0.3631 -0.1588 -0.1227
59692DOD     C322897  22.958  14.107   9.627  0.4754  0.5072  0.0377
59693DOD     C122898  18.351  27.992   4.238  0.0201  0.1573  0.0304
59693DOD     C222899  18.652  27.604   4.180 -0.1616 -0.1198 -0.0950
59693DOD     C322900  18.925  27.229   4.035  0.0516  0.3153  0.1218
59694DOD     C122901  26.085  11.510   0.702  0.2462 -0.4242 -0.0364
59694DOD     C222902  26.141  11.312   1.134  0.0247 -0.0984  0.0815
59694DOD     C322903  25.934  11.195   1.546  0.1149 -0.0014  0.1704
59695DOD     C122904  11.912  15.166   9.936 -0.0159 -0.0789 -0.1912
59695DOD     C222905  12.030  14.867  10.277  0.2162  0.2522 -0.3848
59695DOD     C322906  12.033  14.901  10.725  0.0062 -0.1113  0.1900
59696DOD     C122907   0.608  17.738   3.684  0.2360  0.0594  0.1314
59696DOD     C222908   0.856  18.064   3.424  0.2502 -0.1994 -0.0788
59696DOD     C322909   1.170  18.380   3.246 -0.1985  0.1942  0.2961
59697DOD     C122910  24.333  14.267  17.059  0.3869  0.2134 -0.0047
59697DOD     C222911  24.635  14.450  17.313  0.0745  0.3911  0.1639
59697DOD     C322912  24.676  14.708  17.656  0.3509 -0.2037  0.2221
59698DOD     C122913  14.726   0.312  24.528  0.1065  0.1382 -0.2331
59698DOD     C222914  15.209   0.396  24.505 -0.2828  0.0231 -0.0101
59698DOD     C322915  15.627   0.459  24.592 -0.1509 -0.0421 -0.1221
59699DOD     C122916  14.106   0.954  23.196 -0.0100 -0.2471  0.2185
59699DOD     C222917  14.318   0.972  22.772  0.2960  0.1646 -0.1051
59699DOD     C322918  14.488   0.786  22.392  0.1729  0.0104 -0.3524
59700DOD     C122919   8.016  16.122   6.520  0.0994 -0.0125  0.0739
59700DOD     C222920   8.009  16.025   6.927  0.3040  0.0965 -0.2737
59700DOD     C322921   8.093  16.184   7.365 -0.0022  0.2354  0.4848
59701DOD     C122922  19.342   3.553  20.930  0.0620 -0.1927  0.0329
59701DOD     C222923  18.897   3.626  20.788 -0.1497  0.2349  0.0154
59701DOD     C322924  18.441   3.649  20.658 -0.0270  0.0020  0.1316
59702DOD     C122925  16.922   8.116   3.352 -0.0204  0.2464 -0.3392
59702DOD     C222926  17.025   7.770   3.618 -0.1400  0.2004  0.0645
59702DOD     C322927  16.835   7.476   3.973 -0.3276 -0.0726  0.0809
59703DOD     C122928  17.575   7.672   0.851  0.1430 -0.0840  0.0240
59703DOD     C222929  17.845   7.611   1.199 -0.3238 -0.1856 -0.4459
59703DOD     C322930  18.130   7.723   1.562 -0.0632 -0.2151 -0.2257
59704DOD     C122931   9.356   0.583  11.845  0.0602 -0.2500 -0.1112
59704DOD     C222932   9.783   0.394  11.886 -0.1244 -0.0349  0.3816
59704DOD     C322933  10.179   0.393  12.084  0.0307  0.3088 -0.0836
59705DOD     C122934  20.420  13.256  14.256 -0.2416  0.0432 -0.0238
59705DOD     C222935  20.387  12.871  14.483  0.0559  0.0439  0.0924
59705DOD     C322936  20.653  12.676  14.837  0.1984 -0.1580 -0.1636
59706DOD     C122937  24.555  20.907   7.856 -0.2131 -0.3285  0.1148
59706DOD     C222938  24.538  21.159   8.169  0.0986 -0.0206  0.1726
59706DOD     C322939  24.568  21.207   8.636  0.0468  0.0406  0.0246
59707DOD     C122940  25.254   2.011   7.080 -0.0942 -0.2608 -0.1039
59707DOD     C222941  25.185   1.884   6.618  0.1207  0.1289  0.2647
59707DOD     C322942  25.233   1.495   6.438  0.5209 -0.2337 -0.0088
59708DOD     C122943  11.733  17.231   5.617 -0.2370 -0.1580 -0.0911
59708DOD     C222944  11.900  17.402   6.019 -0.4518  0.0891  0.0347
59708DOD     C322945  11.911  17.740   6.309 -0.0470  0.2590 -0.2281
59709DOD     C122946  10.971   6.323   7.033  0.3829  0.0687 -0.3079
59709DOD     C222947  10.650   6.159   6.783 -0.1971 -0.4050  0.3059
59709DOD     C322948  10.470   5.774   6.625 -0.0827 -0.0288  0.0348
59710DOD     C122949  20.057  18.190  12.420  0.0961  0.0925 -0.1820
59710DOD     C222950  20.321  18.532  12.343  0.2105 -0.0932  0.1045
59710DOD     C322951  20.532  18.879  12.569  0.3402  0.0448 -0.0640
59711DOD     C122952   0.556   5.276  13.371 -0.1010 -0.1657 -0.1998
59711DOD     C222953   0.802   4.940  13.524  0.0483  0.0847 -0.0745
59711DOD     C322954   0.719   4.661  13.875  0.1612  0.1980  0.0709
59712DOD     C122955  13.044   4.918   0.063 -0.0168  0.1390  0.1051
59712DOD     C222956  13.257   5.143   0.432 -0.2448 -0.2471  0.2932
59712DOD     C322957  13.443   5.474   0.722  0.0321 -0.0464  0.2678
59713DOD     C122958  25.634   4.046  14.705  0.2309 -0.1756 -0.4529
59713DOD     C222959  25.797   3.767  15.098  0.3688  0.0807  0.1315
59713DOD     C322960  25.583   3.614  15.483  0.1309  0.0195 -0.3609
59714DOD     C122961  21.257  25.060  17.622  0.1023  0.0228  0.2078
59714DOD     C222962  21.561  24.879  17.935 -0.1340 -0.1508 -0.0163
59714DOD     C322963  21.839  24.663  18.249  0.1048 -0.2850 -0.0702
59715DOD     C122964  13.304   9.739  17.529 -0.3248 -0.1061  0.2879
59715DOD     C222965  13.697   9.732  17.782  0.1034  0.3016 -0.1066
59715DOD     C322966  13.846   9.454  18.056  0.2235 -0.0855  0.2445
59716DOD     C122967   8.438  28.545   9.028  0.2006 -0.5370 -0.1054
59716DOD     C222968   8.653  28.971   9.034 -0.2751 -0.0417  0.0639
59716DOD     C322969   8.452  29.402   9.140 -0.3027 -0.1169 -0.1885
59717DOD     C122970   0.874  18.504   1.928 -0.1171 -0.1316 -0.3563
59717DOD     C222971   1.134  18.106   1.893 -0.0979  0.0693  0.1829
59717DOD     C322972   1.331  17.671   1.796  0.0958 -0.1059 -0.0640
59718DOD     C122973  21.851  21.405  29.417  0.1888 -0.3308  0.0560
59718DOD     C222974  21.408  21.376  29.303 -0.0631  0.0755 -0.0704
59718DOD     C322975  21.091  21.712  29.349 -0.0487  0.4467 -0.0354
59719DOD     C122976   6.235  21.823  23.961 -0.0424  0.0786  0.0306
59719DOD     C222977   6.324  22.226  23.783 -0.2371 -0.0747 -0.0325
59719DOD     C322978   6.389  22.570  24.082  0.1535  0.4180 -0.0380
59720DOD     C122979   7.399   3.315  -0.021  0.1579  0.2492 -0.0937
59720DOD     C222980   7.299   3.836   0.030  0.0924 -0.0579  0.0996
59720DOD     C322981   7.221   4.241  30.119 -0.2030  0.0403  0.3438
59721DOD     C122982   5.849   0.456  18.589  0.1995 -0.0789 -0.1764
59721DOD     C222983   5.571   0.533  18.965  0.1248 -0.2053  0.0184
59721DOD     C322984   5.582   0.849  19.330 -0.1307  0.0096 -0.1224
59722DOD     C122985  18.449  19.944  18.752 -0.0150  0.1084 -0.2825
59722DOD     C222986  18.134  19.934  18.362  0.1905 -0.0693  0.3124
59722DOD     C322987  18.120  20.100  17.975 -0.1419  0.0132 -0.4335
59723DOD     C122988  15.226   8.378   6.010  0.0110  0.1716 -0.0818
59723DOD     C222989  15.674   8.340   6.081  0.0597  0.1900 -0.0425
59723DOD     C322990  15.912   8.646   6.328 -0.0782  0.0826  0.1423
59724DOD     C122991  19.631  10.268  15.313 -0.1654 -0.2044 -0.1105
59724DOD     C222992  19.584  10.778  15.339  0.2569  0.1060  0.1356
59724DOD     C322993  19.438  10.954  15.751 -0.1424  0.0203  0.1809
59725DOD     C122994   6.977  15.252   0.791  0.0372 -0.0811 -0.2816
59725DOD     C222995   7.020  15.421   0.355  0.3537 -0.1409  0.1109
59725DOD     C322996   7.257  15.333  30.236 -0.1287 -0.0955 -0.0198
59726DOD     C122997  23.273  14.387  12.879  0.2270  0.1906  0.3069
59726DOD     C222998  23.657  14.572  12.927 -0.0269 -0.0841  0.2463
59726DOD     C322999  23.828  14.816  12.502  0.1214  0.2093  0.1500
59727DOD     C123000  25.427  27.580  18.666  0.0821  0.1899 -0.1427
59727DOD     C223001  24.975  27.499  18.698 -0.1461 -0.0361 -0.0358
59727DOD     C323002  24.655  27.627  19.033 -0.2828 -0.1276 -0.1084
59728DOD     C123003  18.827  23.167   5.362 -0.2459  0.1446 -0.2356
59728DOD     C223004  18.435  23.402   5.292  0.3686  0.1829 -0.1426
59728DOD     C323005  18.279  23.763   4.978 -0.2301  0.1959 -0.0557
59729DOD     C123006  30.080   8.206  18.637  0.2895  0.2168  0.0024
59729DOD     C223007   0.120   7.975  18.591  0.1558 -0.0114  0.1135
59729DOD     C323008   0.366   7.702  18.364  0.1166  0.2979 -0.3205
59730DOD     C123009  11.609   7.165  25.702  0.1764 -0.1711  0.1356
59730DOD     C223010  11.712   7.611  25.583  0.0295 -0.1731 -0.1185
59730DOD     C323011  11.473   7.895  25.232  0.2454  0.0698  0.1123
59731DOD     C123012  19.417  23.009   2.414 -0.1989 -0.0085 -0.1110
59731DOD     C223013  19.330  23.463   2.498  0.0075  0.0694  0.0176
59731DOD     C323014  19.349  23.866   2.248 -0.0804  0.0705 -0.0676
59732DOD     C123015   0.898   9.340  24.829 -0.1299  0.1683 -0.0578
59732DOD     C223016   0.798   9.669  25.105 -0.2586 -0.0114  0.0994
59732DOD     C323017   0.864   9.988  25.386 -0.1983  0.0669  0.1382
59733DOD     C123018   2.300   8.895   2.906 -0.1143  0.0260 -0.1500
59733DOD     C223019   1.983   8.868   3.256  0.1092  0.2668  0.0655
59733DOD     C323020   1.809   9.289   3.313 -0.0470  0.0716 -0.2763
59734DOD     C123021  10.347  14.781   8.511  0.2812  0.1386  0.0295
59734DOD     C223022  10.465  14.668   8.987  0.2891  0.0244  0.0547
59734DOD     C323023  10.895  14.519   9.114  0.3313  0.0905  0.1238
59735DOD     C123024  19.331  16.812  22.685 -0.1879 -0.1464  0.0341
59735DOD     C223025  19.764  17.000  22.789 -0.2397 -0.0857  0.1517
59735DOD     C323026  20.070  17.154  23.157 -0.2130  0.2515 -0.1568
59736DOD     C123027   0.111  14.798   9.014  0.0506  0.1407  0.1385
59736DOD     C223028   0.230  14.361   9.172 -0.0169 -0.1322 -0.0282
59736DOD     C323029   0.096  13.898   9.254 -0.2551 -0.0109 -0.4513
59737DOD     C123030   7.572   7.589  16.778 -0.1585 -0.2390 -0.0345
59737DOD     C223031   7.307   7.843  16.987 -0.2548 -0.1534 -0.3042
59737DOD     C323032   6.839   7.919  17.023 -0.5579 -0.1517 -0.0657
59738DOD     C123033  23.527   3.237  25.624  0.3551  0.3686  0.2105
59738DOD     C223034  23.122   3.297  25.399  0.0869  0.5279 -0.3546
59738DOD     C323035  22.667   3.384  25.436 -0.2263  0.1790 -0.0387
59739DOD     C123036   3.463  12.036  23.626  0.1995 -0.2077  0.2133
59739DOD     C223037   3.066  12.280  23.579 -0.1386  0.0796  0.1692
59739DOD     C323038   2.644  12.045  23.628  0.2218  0.1406  0.2832
59740DOD     C123039  26.440  14.290   4.834 -0.0182 -0.1426 -0.0039
59740DOD     C223040  26.452  13.837   4.795 -0.1067  0.0356 -0.1361
59740DOD     C323041  26.337  13.399   4.864 -0.1136 -0.6102 -0.0035
59741DOD     C123042  22.126  12.553  26.127  0.4152  0.2236  0.0572
59741DOD     C223043  21.702  12.756  26.050  0.0193 -0.0284 -0.2160
59741DOD     C323044  21.346  12.476  25.982 -0.1300 -0.0768 -0.1759
59742DOD     C123045  29.481  27.886   3.633  0.1478 -0.1619  0.2568
59742DOD     C223046  29.490  28.379   3.670  0.1553  0.1221  0.0753
59742DOD     C323047  29.534  28.858   3.754 -0.2125  0.0569  0.1435
59743DOD     C123048  25.888  24.394   5.377 -0.1769 -0.0882  0.0650
59743DOD     C223049  25.916  24.328   5.868 -0.0059 -0.0238  0.2509
59743DOD     C323050  25.815  24.564   6.279 -0.1603  0.0195 -0.1184
59744DOD     C123051  18.236  24.778  12.826 -0.0331 -0.2104  0.2712
59744DOD     C223052  18.419  24.282  12.895  0.0773  0.0530 -0.5115
59744DOD     C323053  18.182  23.918  13.057 -0.0765 -0.0459  0.0697
59745DOD     C123054  18.478   6.400  19.719  0.1399  0.2726 -0.1032
59745DOD     C223055  18.760   6.394  19.439  0.0832 -0.1830  0.3337
59745DOD     C323056  18.865   6.768  19.140  0.2308  0.1903  0.1984
59746DOD     C123057  27.515  23.984  20.241 -0.1079 -0.2115  0.1351
59746DOD     C223058  27.672  24.221  20.539  0.2041 -0.2098 -0.0488
59746DOD     C323059  28.067  24.214  20.811 -0.0746 -0.2289 -0.0403
59747DOD     C123060   1.897  20.696  18.196  0.6267 -0.1475  0.1101
59747DOD     C223061   1.453  20.827  18.445  0.0398  0.2494 -0.0928
59747DOD     C323062   1.262  21.205  18.621  0.1543  0.0769  0.2375
59748DOD     C123063   9.496  23.400  23.797  0.3491  0.0207  0.1802
59748DOD     C223064   9.463  23.402  23.316  0.0229  0.3782 -0.1497
59748DOD     C323065   9.516  23.505  22.903 -0.1642  0.0700 -0.3016
59749DOD     C123066   7.297   2.305  25.670  0.0069  0.1163 -0.1530
59749DOD     C223067   7.232   2.768  25.799 -0.1403  0.2297  0.1209
59749DOD     C323068   7.181   3.163  26.042 -0.1311  0.0639 -0.2677
59750DOD     C123069  21.007  25.031   2.620  0.0706  0.0783  0.0563
59750DOD     C223070  20.689  24.933   2.982 -0.1813 -0.6400  0.1470
59750DOD     C323071  20.638  24.816   3.447 -0.0984 -0.0867 -0.1776
59751DOD     C123072  16.744   2.079   9.817  0.2589 -0.2850 -0.1769
59751DOD     C223073  16.713   2.209   9.394  0.1734 -0.0685  0.0095
59751DOD     C323074  16.447   2.352   8.960  0.1059  0.1362  0.1340
59752DOD     C123075   9.010   8.763  16.512  0.1186 -0.0532 -0.1535
59752DOD     C223076   8.775   8.690  16.126  0.0657 -0.2459 -0.0941
59752DOD     C323077   8.758   8.594  15.682  0.1467  0.2216 -0.3366
59753DOD     C123078  27.460  12.014  29.342 -0.1266 -0.1302 -0.1860
59753DOD     C223079  27.541  12.334  29.011 -0.2286 -0.3065 -0.1841
59753DOD     C323080  27.574  12.545  28.596  0.1481 -0.1497  0.1438
59754DOD     C123081  25.743   4.374   3.409 -0.0196  0.1055  0.2562
59754DOD     C223082  25.413   4.048   3.348 -0.2351 -0.0065 -0.1277
59754DOD     C323083  25.167   3.719   3.584 -0.0516  0.0471 -0.0289
59755DOD     C123084  16.556  29.220   6.492 -0.2394  0.1146 -0.1083
59755DOD     C223085  16.120  29.036   6.648  0.1208 -0.1596  0.1764
59755DOD     C323086  15.963  28.586   6.525  0.2510 -0.0154  0.2376
59756DOD     C123087  21.223  26.593  11.860  0.0527  0.2620 -0.2481
59756DOD     C223088  21.311  26.369  12.269  0.0293  0.2219 -0.1939
59756DOD     C323089  21.563  26.417  12.650 -0.0516  0.0187  0.0873
59757DOD     C123090  10.749  16.022  20.321  0.4765 -0.0454 -0.2346
59757DOD     C223091  10.662  16.300  20.698 -0.0186 -0.1935 -0.2740
59757DOD     C323092  10.908  16.222  21.140 -0.2314 -0.1366  0.2933
59758DOD     C123093  27.842  17.051   4.483 -0.1066 -0.0340  0.1315
59758DOD     C223094  27.828  17.063   4.945 -0.0875  0.0470  0.0468
59758DOD     C323095  27.750  16.873   5.292  0.1280  0.1478 -0.2705
59759DOD     C123096  26.669   9.260  20.502 -0.1073 -0.2460 -0.0194
59759DOD     C223097  26.589   9.719  20.546  0.0676  0.1787 -0.1552
59759DOD     C323098  26.452  10.141  20.593  0.1855 -0.0019 -0.1413
59760DOD     C123099   6.726  21.560  15.153 -0.3424 -0.1288  0.1440
59760DOD     C223100   7.179  21.428  15.303  0.4327 -0.2882 -0.1103
59760DOD     C323101   7.523  21.201  15.146 -0.1297  0.1037  0.0143
59761DOD     C123102  17.614  17.750  26.210  0.1308 -0.0039 -0.0440
59761DOD     C223103  17.397  17.693  26.648  0.0560 -0.0227 -0.1159
59761DOD     C323104  16.929  17.854  26.801  0.4945  0.3339 -0.0595
59762DOD     C123105   7.163  26.579  12.793 -0.3162  0.0569  0.2607
59762DOD     C223106   7.425  26.840  12.502 -0.0672  0.0228  0.2776
59762DOD     C323107   7.396  26.785  12.002 -0.1299  0.0113  0.1570
59763DOD     C123108   1.554  20.708  19.945 -0.0484  0.5086 -0.0709
59763DOD     C223109   1.337  20.596  19.514 -0.0496  0.1359 -0.0079
59763DOD     C323110   1.484  20.383  19.130 -0.2694 -0.0745 -0.2820
59764DOD     C123111  24.779  24.348  27.216 -0.0514 -0.1755  0.0935
59764DOD     C223112  24.783  24.825  27.403  0.2412  0.0811  0.1800
59764DOD     C323113  24.858  25.141  27.776  0.1977  0.2244  0.0809
59765DOD     C123114  22.328  25.117  29.729  0.1468  0.1228  0.2717
59765DOD     C223115  22.139  25.131  29.308  0.2121  0.0901 -0.1859
59765DOD     C323116  21.948  25.143  28.929  0.0589 -0.0547 -0.0740
59766DOD     C123117  12.871  13.117  26.361 -0.1868 -0.1426  0.0263
59766DOD     C223118  12.985  13.312  25.958  0.0353  0.1054  0.1010
59766DOD     C323119  12.987  13.698  25.633  0.2494 -0.0758 -0.6193
59767DOD     C123120  29.660  19.767  14.729  0.2089  0.2925  0.0933
59767DOD     C223121  29.797  19.645  15.151  0.0184  0.1818 -0.1024
59767DOD     C323122  29.755  19.438  15.531  0.0949  0.1296 -0.0067
59768DOD     C123123  26.239  25.138   9.102  0.1058  0.0084  0.1213
59768DOD     C223124  26.358  25.490   9.365 -0.0835 -0.0277  0.0903
59768DOD     C323125  26.627  25.814   9.381  0.4971 -0.5383 -0.0361
59769DOD     C123126  13.512   3.238   1.961 -0.1078 -0.3535 -0.0966
59769DOD     C223127  13.885   2.963   1.760 -0.2383  0.1425 -0.0914
59769DOD     C323128  14.131   2.609   1.981 -0.0485  0.1569 -0.0825
59770DOD     C123129  12.503  22.096  16.688 -0.0108 -0.1550 -0.1143
59770DOD     C223130  12.711  22.502  16.906 -0.2831 -0.1593 -0.0249
59770DOD     C323131  12.757  22.958  17.098  0.1113 -0.1233 -0.2739
59771DOD     C123132  13.275   3.303  12.366 -0.0355 -0.2483 -0.2218
59771DOD     C223133  13.781   3.291  12.241  0.0588  0.0478  0.1268
59771DOD     C323134  14.055   3.651  12.099  0.2149 -0.2100 -0.3918
59772DOD     C123135  24.732   6.206  13.816  0.1020 -0.1612  0.2715
59772DOD     C223136  24.682   6.050  14.304  0.3560 -0.1214  0.0720
59772DOD     C323137  24.324   6.199  14.559  0.0523 -0.0489 -0.0949
59773DOD     C123138   6.216  26.172  24.043 -0.0185  0.3434 -0.0111
59773DOD     C223139   6.295  25.924  23.658  0.0167 -0.0130 -0.0938
59773DOD     C323140   6.185  25.470  23.607 -0.3153 -0.1588  0.1875
59774DOD     C123141  17.538  24.034  24.964  0.1244 -0.0605 -0.1674
59774DOD     C223142  17.855  24.159  25.253 -0.3140  0.0277 -0.1460
59774DOD     C323143  17.989  24.167  25.748  0.3599 -0.1110 -0.2436
59775DOD     C123144  25.703   7.087  13.495 -0.2927  0.2603 -0.1702
59775DOD     C223145  26.212   7.095  13.578  0.0128  0.0458 -0.0151
59775DOD     C323146  26.633   7.248  13.769 -0.1666 -0.5044  0.0026
59776DOD     C123147  30.172  12.210  13.477 -0.1738  0.0193  0.2664
59776DOD     C223148  29.917  12.500  13.742  0.1355  0.1830  0.0992
59776DOD     C323149  29.655  12.842  13.832 -0.2182  0.1068  0.1314
59777DOD     C123150   7.588  20.921  10.875  0.0295 -0.0305 -0.2894
59777DOD     C223151   7.875  20.747  11.194  0.2944  0.0574  0.3432
59777DOD     C323152   8.194  20.345  11.232  0.2514 -0.0865  0.0470
59778DOD     C123153  19.032  20.637  12.310  0.0691  0.0494 -0.2300
59778DOD     C223154  18.763  20.931  12.019 -0.0536  0.1051 -0.0359
59778DOD     C323155  18.635  21.304  11.828  0.2933 -0.0264 -0.0073
59779DOD     C123156  14.854   9.920  24.222 -0.0057 -0.1897  0.1253
59779DOD     C223157  15.046   9.780  23.845 -0.0957 -0.1463 -0.0100
59779DOD     C323158  15.069   9.685  23.395  0.2602 -0.0592 -0.0207
59780DOD     C123159  29.243  20.610  16.298 -0.2100  0.0199 -0.0955
59780DOD     C223160  29.229  21.101  16.206 -0.0880 -0.0996  0.0758
59780DOD     C323161  29.181  21.503  16.418 -0.0493 -0.0903  0.0579
59781DOD     C123162  12.424   1.392   9.811 -0.2602 -0.1406 -0.2578
59781DOD     C223163  12.680   1.709   9.524  0.0088 -0.3726  0.0571
59781DOD     C323164  13.003   1.818   9.176  0.0093  0.0396  0.0223
59782DOD     C123165  17.764  25.182  16.351 -0.4731  0.0031  0.3028
59782DOD     C223166  17.514  25.196  16.756 -0.1547 -0.0502 -0.1898
59782DOD     C323167  17.524  25.164  17.171 -0.1030  0.1765  0.0074
59783DOD     C123168   9.559  11.237   8.483 -0.0645 -0.1366 -0.1721
59783DOD     C223169   9.142  11.015   8.406 -0.0897  0.2617  0.0950
59783DOD     C323170   9.029  10.569   8.300 -0.2640 -0.1648 -0.0196
59784DOD     C123171  30.000  12.616  18.632 -0.3641  0.0391  0.1549
59784DOD     C223172  29.925  12.221  18.658 -0.0976  0.3037 -0.1212
59784DOD     C323173  29.909  11.748  18.726  0.2932  0.1234  0.0899
59785DOD     C123174  29.541   5.131  15.485 -0.0839  0.1460 -0.0454
59785DOD     C223175  29.838   5.131  15.108  0.2472  0.0886 -0.2160
59785DOD     C323176  29.851   4.904  14.662  0.2874 -0.0148  0.0539
59786DOD     C123177   3.554   4.763  27.786 -0.0597  0.0336 -0.0921
59786DOD     C223178   3.224   4.531  28.023 -0.0897  0.0744 -0.1260
59786DOD     C323179   2.857   4.308  28.204  0.1344  0.1370 -0.2325
59787DOD     C123180  13.960  27.230  28.871  0.1585  0.2135 -0.4560
59787DOD     C223181  13.571  26.953  28.898  0.3621  0.1764 -0.1042
59787DOD     C323182  13.275  26.732  28.578  0.2462 -0.0761  0.0927
59788DOD     C123183  11.810  14.757  30.067  0.2528 -0.0142  0.0915
59788DOD     C223184  12.226  14.869  30.183  0.0223  0.2351  0.3040
59788DOD     C323185  12.492  14.810   0.237 -0.3461 -0.1972 -0.1135
59789DOD     C123186  22.342  20.995  26.972 -0.0391 -0.3397 -0.0781
59789DOD     C223187  22.631  21.183  26.629 -0.4174  0.0757 -0.0295
59789DOD     C323188  22.710  21.604  26.397 -0.1573  0.1737 -0.2553
59790DOD     C123189  23.664   1.320  25.602  0.0064  0.0673  0.1816
59790DOD     C223190  23.309   1.354  25.904  0.0709  0.3347 -0.1814
59790DOD     C323191  22.863   1.150  26.055  0.0713  0.0096  0.0622
59791DOD     C123192   0.021  15.171  15.528  0.0566  0.2333 -0.1208
59791DOD     C223193  30.174  15.367  15.095  0.1082  0.0533  0.0567
59791DOD     C323194  29.815  15.440  14.848  0.0412 -0.1848 -0.2235
59792DOD     C123195   9.519   3.555   5.683  0.0334  0.0866  0.2730
59792DOD     C223196   9.876   3.418   5.353 -0.1216 -0.0971  0.3032
59792DOD     C323197  10.178   3.256   5.072 -0.1437 -0.3967 -0.0185
59793DOD     C123198   4.824  22.898  15.264  0.2676 -0.0531 -0.1312
59793DOD     C223199   4.508  23.013  14.917  0.1603  0.0545 -0.0004
59793DOD     C323200   4.107  22.791  14.803  0.0909 -0.0561 -0.1247
59794DOD     C123201  18.599   6.637   6.058 -0.0417 -0.0016  0.0743
59794DOD     C223202  18.316   6.244   5.983 -0.1440  0.1451 -0.0207
59794DOD     C323203  18.096   5.840   6.022  0.1298 -0.2081 -0.2425
59795DOD     C123204   3.643  15.678   9.308  0.0970  0.0080  0.0284
59795DOD     C223205   3.258  15.425   9.232  0.2772 -0.2786  0.2075
59795DOD     C323206   3.191  14.945   9.347 -0.0291  0.0105  0.0425
59796DOD     C123207   0.837  11.422  29.792 -0.0865 -0.0599  0.2354
59796DOD     C223208   0.446  11.745  29.911  0.0570  0.2382  0.0751
59796DOD     C323209   0.067  11.918  29.726 -0.2144  0.1542 -0.0195
59797DOD     C123210  14.440  18.047  22.145  0.0530  0.1878  0.2485
59797DOD     C223211  14.831  18.107  22.337 -0.0304  0.0883 -0.0109
59797DOD     C323212  15.125  18.317  22.607 -0.0571  0.1492  0.3613
59798DOD     C123213  11.973  16.060  16.921 -0.1962 -0.1417 -0.1312
59798DOD     C223214  11.547  16.083  16.807 -0.1943 -0.2336 -0.2332
59798DOD     C323215  11.121  16.169  16.921  0.1211 -0.0531  0.1844
59799DOD     C123216  26.288  28.072  25.675  0.2206  0.2403  0.0241
59799DOD     C223217  25.875  28.112  25.930  0.3633 -0.1726 -0.2854
59799DOD     C323218  25.852  28.189  26.361  0.0765  0.3302 -0.0436
59800DOD     C123219   4.058  13.360  22.683 -0.1076 -0.0102  0.1603
59800DOD     C223220   4.303  13.451  22.282  0.2839  0.1432 -0.0488
59800DOD     C323221   4.544  13.386  21.856 -0.0631  0.1657 -0.1440
59801DOD     C123222  19.505   8.347  23.685 -0.1683 -0.0629 -0.1371
59801DOD     C223223  19.179   7.980  23.623 -0.1590 -0.0214 -0.1455
59801DOD     C323224  19.055   7.738  23.270 -0.0601 -0.1349 -0.0015
59802DOD     C123225   9.119  21.765  12.510  0.2163 -0.0025  0.0656
59802DOD     C223226   9.237  21.911  12.925 -0.0783  0.0615 -0.2331
59802DOD     C323227   9.439  22.119  13.266  0.2239  0.0070 -0.1759
59803DOD     C123228   5.069   3.525  27.792  0.0218  0.0128  0.0347
59803DOD     C223229   5.339   3.901  27.807 -0.2559  0.3388  0.0619
59803DOD     C323230   5.494   4.304  27.682 -0.1488  0.1720 -0.0908
59804DOD     C123231  28.227  25.981  13.846  0.1273  0.5248  0.1345
59804DOD     C223232  28.508  26.307  13.643 -0.1298  0.0338 -0.1081
59804DOD     C323233  28.944  26.285  13.514  0.2725  0.1610  0.3253
59805DOD     C123234  29.492   7.108   2.243 -0.0106  0.0088 -0.0277
59805DOD     C223235  29.903   6.846   2.517 -0.3587  0.1377 -0.0130
59805DOD     C323236   0.031   6.738   2.585  0.1125  0.0000  0.3181
59806DOD     C123237  29.463   2.588  19.005  0.0213 -0.0041 -0.0020
59806DOD     C223238  29.619   2.969  19.288  0.0290  0.1498 -0.0158
59806DOD     C323239  29.900   3.150  19.609 -0.1572  0.2774  0.0386
59807DOD     C123240  17.080  20.297  27.683 -0.0442 -0.0033  0.0436
59807DOD     C223241  17.257  20.649  27.923 -0.0918 -0.2537  0.0482
59807DOD     C323242  17.306  21.118  28.040  0.1499  0.3369 -0.0452
59808DOD     C123243  21.954  12.317  21.451  0.1359  0.1064  0.0902
59808DOD     C223244  21.535  12.097  21.469  0.0091  0.1546 -0.3092
59808DOD     C323245  21.239  12.141  21.799 -0.2443  0.0382 -0.0648
59809DOD     C123246  12.453  12.493  16.560  0.0831 -0.1525 -0.0508
59809DOD     C223247  12.455  12.590  16.125 -0.0011  0.2954  0.0797
59809DOD     C323248  12.571  12.314  15.746 -0.1749 -0.0152  0.0075
59810DOD     C123249  19.662  11.835  12.818 -0.1353  0.1554  0.0188
59810DOD     C223250  20.020  11.966  13.101  0.0773 -0.1058  0.0938
59810DOD     C323251  20.413  11.865  13.362 -0.1157  0.0483  0.2089
59811DOD     C123252  25.486  13.805  15.416  0.2916 -0.2645  0.4425
59811DOD     C223253  25.353  13.636  15.768 -0.0902 -0.1104  0.1127
59811DOD     C323254  24.928  13.393  15.759  0.0004 -0.0523  0.1716
59812DOD     C123255   1.939  10.262   3.282 -0.1907  0.3337  0.2168
59812DOD     C223256   2.192  10.670   3.136 -0.3651  0.1169 -0.2417
59812DOD     C323257   2.579  10.725   3.372 -0.1206 -0.1041 -0.0741
59813DOD     C123258  20.143  21.906  10.053 -0.2956  0.2844 -0.1460
59813DOD     C223259  19.905  22.171   9.851 -0.1902 -0.1386  0.0622
59813DOD     C323260  19.456  22.258   9.718  0.1469  0.0198 -0.1937
59814DOD     C123261   7.004  29.608  26.352  0.0909  0.1379 -0.0792
59814DOD     C223262   6.941  29.158  26.260  0.0575 -0.0537 -0.0620
59814DOD     C323263   6.995  28.831  25.905 -0.1228 -0.0764 -0.0236
59815DOD     C123264   6.596   3.646   6.680 -0.3092  0.2206  0.0463
59815DOD     C223265   6.568   4.075   6.818 -0.0937 -0.1180  0.3265
59815DOD     C323266   6.302   4.403   7.007 -0.0354 -0.0771  0.0528
59816DOD     C123267   7.159  24.678  17.806  0.3685 -0.1828  0.1210
59816DOD     C223268   7.113  25.128  17.708  0.2273 -0.0363 -0.1181
59816DOD     C323269   6.935  25.494  17.872 -0.2021  0.1644  0.3697
59817DOD     C123270  27.207  26.420  27.200  0.4426  0.2529 -0.0504
59817DOD     C223271  26.822  26.174  27.215  0.1558  0.0794  0.2898
59817DOD     C323272  26.566  25.759  27.301  0.0213 -0.0376  0.1794
59818DOD     C123273   3.633  17.083   1.966  0.0150 -0.1822  0.1566
59818DOD     C223274   4.035  16.892   1.813  0.0896  0.1828  0.0682
59818DOD     C323275   4.459  16.932   1.875  0.0480  0.0321 -0.0834
59819DOD     C123276  16.652  20.657  29.486  0.2067 -0.0136  0.1063
59819DOD     C223277  16.740  20.610  28.979  0.0544  0.0598  0.1825
59819DOD     C323278  16.661  20.387  28.564  0.0931  0.2289  0.3024
59820DOD     C123279  18.791  21.826   3.126 -0.1995  0.3134  0.1347
59820DOD     C223280  18.856  22.054   3.525 -0.2053 -0.0329 -0.0269
59820DOD     C323281  18.756  22.524   3.703  0.0055 -0.2651  0.0319
59821DOD     C123282   2.563  25.300   6.301 -0.2177  0.3049  0.0159
59821DOD     C223283   2.504  24.816   6.333  0.2831  0.0029 -0.1154
59821DOD     C323284   2.888  24.556   6.299  0.0889  0.1302  0.0890
59822DOD     C123285  20.876  12.226  22.332  0.0234  0.1143 -0.0228
59822DOD     C223286  21.067  11.805  22.268  0.2994  0.1998  0.3075
59822DOD     C323287  21.250  11.455  22.121  0.1314  0.0042  0.1841
59823DOD     C123288   5.333  12.190  29.826  0.1146 -0.1062  0.3136
59823DOD     C223289   5.547  12.327  29.445  0.4754 -0.1124 -0.1686
59823DOD     C323290   5.883  12.525  29.193 -0.0632 -0.0213  0.3325
59824DOD     C123291  10.387  13.664  28.983  0.1172  0.1376 -0.0095
59824DOD     C223292  10.563  14.004  28.777 -0.0295 -0.1298 -0.1510
59824DOD     C323293  11.048  14.080  28.692 -0.2819  0.2332  0.4042
59825DOD     C123294  29.994  22.550   5.527 -0.0462  0.1743  0.1182
59825DOD     C223295   0.113  22.557   5.772 -0.1360 -0.0856 -0.4511
59825DOD     C323296   0.327  22.873   6.062 -0.2934  0.1836 -0.1934
59826DOD     C123297  11.900  10.442  13.378 -0.1966  0.0308  0.1921
59826DOD     C223298  12.013  10.918  13.383 -0.0831  0.1255  0.1731
59826DOD     C323299  12.269  11.318  13.294 -0.2794 -0.1695  0.2101
59827DOD     C123300   7.175   9.231  25.800  0.0108 -0.0972 -0.1262
59827DOD     C223301   7.440   9.247  26.162  0.3646  0.2309  0.1716
59827DOD     C323302   7.830   9.493  26.276 -0.2524  0.0218  0.0147
59828DOD     C123303   2.484  19.794   6.377  0.2158 -0.1360  0.1334
59828DOD     C223304   2.257  20.220   6.540  0.0249 -0.0083 -0.2896
59828DOD     C323305   2.359  20.673   6.724  0.2301  0.2282 -0.1485
59829DOD     C123306  20.928  28.768  12.507 -0.0234 -0.1730 -0.0477
59829DOD     C223307  21.199  29.109  12.620 -0.0268  0.0646  0.0527
59829DOD     C323308  21.174  29.528  12.675 -0.1759  0.1808  0.0225
59830DOD     C123309  25.207   6.166  20.756  0.4905 -0.0526 -0.0623
59830DOD     C223310  25.010   5.930  20.317 -0.0472 -0.1062 -0.0377
59830DOD     C323311  25.029   5.499  20.049  0.3751  0.0111 -0.0083
59831DOD     C123312  23.029  16.318   9.509  0.0090 -0.0322 -0.1876
59831DOD     C223313  22.891  16.207   9.944 -0.0406 -0.0931 -0.0032
59831DOD     C323314  22.571  16.016  10.209  0.0429 -0.3897  0.0255
59832DOD     C123315  27.196  24.209  24.220  0.0958  0.3185  0.2016
59832DOD     C223316  26.768  24.103  24.090 -0.0647  0.0682  0.3933
59832DOD     C323317  26.628  23.937  23.636 -0.0824  0.0831 -0.0378
59833DOD     C123318  25.068  26.373  23.672  0.2309 -0.2491  0.1715
59833DOD     C223319  25.117  25.929  23.750  0.0121 -0.1178  0.3214
59833DOD     C323320  24.897  25.528  23.830  0.1256  0.3396 -0.1165
59834DOD     C123321  16.867   8.822   0.231 -0.0523  0.0150 -0.3678
59834DOD     C223322  17.314   8.596   0.064  0.0571 -0.1739 -0.1212
59834DOD     C323323  17.735   8.350  30.249  0.1037  0.1439  0.2970
59835DOD     C123324  14.719  26.507   3.088  0.0773 -0.0147 -0.0327
59835DOD     C223325  14.743  26.576   2.630  0.3729  0.2616  0.1030
59835DOD     C323326  14.955  26.671   2.153 -0.0935 -0.1302 -0.1938
59836DOD     C123327  23.925  17.392   2.169  0.1309  0.2504 -0.3348
59836DOD     C223328  23.536  17.304   1.863 -0.0059  0.0584 -0.0427
59836DOD     C323329  23.332  17.074   1.527  0.0941  0.2789  0.0385
59837DOD     C123330  27.868  29.558  28.714 -0.0022  0.0605 -0.0581
59837DOD     C223331  27.866  29.329  28.262  0.0781 -0.0886  0.0789
59837DOD     C323332  27.531  29.067  28.012  0.1558 -0.1132  0.2559
59838DOD     C123333   0.596  11.429   6.425  0.3767 -0.0578  0.1682
59838DOD     C223334   0.915  11.380   6.074  0.2143 -0.1141  0.1651
59838DOD     C323335   0.789  11.124   5.658 -0.1981 -0.0196  0.2259
59839DOD     C123336  11.454  14.523   9.291 -0.2765 -0.0098  0.3043
59839DOD     C223337  11.482  14.057   9.380  0.2361  0.2672 -0.1124
59839DOD     C323338  11.444  13.738   9.769 -0.0497  0.2361  0.3635
59840DOD     C123339  26.765   9.111   2.313 -0.3522  0.0531 -0.2558
59840DOD     C223340  26.776   8.658   2.288 -0.2728  0.0987  0.0850
59840DOD     C323341  26.944   8.236   2.379 -0.0485 -0.2481  0.0930
59841DOD     C123342  21.395  21.719  21.724  0.2144 -0.0245 -0.0709
59841DOD     C223343  21.749  21.454  21.973  0.0107  0.0665 -0.0096
59841DOD     C323344  21.738  21.141  22.362 -0.0588  0.2336 -0.0197
59842DOD     C123345  25.461   6.863  10.733  0.1468  0.1025  0.1538
59842DOD     C223346  25.824   7.138  10.884  0.0118  0.1653 -0.0028
59842DOD     C323347  26.239   7.352  10.963 -0.0874  0.1367  0.3386
59843DOD     C123348  11.862   0.832   7.619 -0.4964  0.0406  0.3900
59843DOD     C223349  11.637   0.464   7.714  0.1078 -0.0590  0.3048
59843DOD     C323350  11.574   0.089   7.455  0.1414  0.3890  0.2485
59844DOD     C123351   2.116  29.786   9.295  0.1091 -0.2121 -0.1108
59844DOD     C223352   2.563  29.670   9.455  0.3543 -0.0524  0.4313
59844DOD     C323353   3.024  29.660   9.361  0.1285 -0.0312  0.0988
59845DOD     C123354  12.156  20.362   0.735  0.0752  0.0547  0.0366
59845DOD     C223355  12.214  19.945   0.980 -0.0191 -0.1513 -0.0491
59845DOD     C323356  12.297  19.628   1.269 -0.2179  0.1805  0.0352
59846DOD     C123357  15.348  21.284  10.446 -0.2402 -0.0434 -0.0657
59846DOD     C223358  15.187  21.141  10.017  0.0357 -0.2259 -0.0196
59846DOD     C323359  15.356  20.811   9.727 -0.0776 -0.1232 -0.1815
59847DOD     C123360   6.881   6.388  28.732  0.0920  0.0185  0.2704
59847DOD     C223361   7.034   6.507  28.290  0.1057  0.1504  0.3431
59847DOD     C323362   7.289   6.341  27.913 -0.0068  0.0985 -0.1413
59848DOD     C123363  14.488  29.851  17.803  0.1470 -0.1025 -0.4942
59848DOD     C223364  14.797  29.988  17.514  0.5495 -0.6156  0.1871
59848DOD     C323365  15.168  30.204  17.285  0.1321 -0.0474 -0.1156
59849DOD     C123366  17.697   8.818  30.091 -0.4309 -0.2315 -0.0641
59849DOD     C223367  17.876   8.479  29.796 -0.0870  0.0811  0.1064
59849DOD     C323368  18.262   8.290  29.875  0.0368 -0.0034  0.0785
59850DOD     C123369   2.451  18.332  20.627 -0.1150 -0.0670  0.0888
59850DOD     C223370   2.013  18.084  20.673 -0.3347  0.1658 -0.3168
59850DOD     C323371   1.558  17.907  20.694  0.0605 -0.2051 -0.1200
59851DOD     C123372   8.509   8.786   2.859 -0.0447  0.0225  0.2407
59851DOD     C223373   8.222   8.435   3.072  0.0117 -0.0183  0.0725
59851DOD     C323374   7.766   8.359   3.214 -0.2533 -0.1131 -0.0078
59852DOD     C123375   8.661  21.243  17.637  0.0208 -0.1388 -0.1275
59852DOD     C223376   8.535  21.257  17.177 -0.0966 -0.2768  0.1149
59852DOD     C323377   8.409  21.540  16.832 -0.1378  0.0164 -0.1361
59853DOD     C123378  28.358   0.873   9.343  0.1245 -0.0094 -0.0349
59853DOD     C223379  28.347   1.302   9.080 -0.1456 -0.1713  0.0628
59853DOD     C323380  28.085   1.613   8.840  0.0865 -0.2174 -0.1515
59854DOD     C123381  16.807  23.971  12.355  0.1933  0.0528  0.0352
59854DOD     C223382  16.402  23.984  12.626 -0.2947  0.0739  0.1441
59854DOD     C323383  16.010  23.908  12.869 -0.4219  0.2084  0.0767
59855DOD     C123384  23.752   6.042  15.701 -0.0064 -0.4050  0.1476
59855DOD     C223385  23.350   5.860  15.501  0.1746  0.0378 -0.0304
59855DOD     C323386  23.164   5.464  15.378  0.0418  0.0928  0.5576
59856DOD     C123387   7.074   9.946  27.657  0.0010 -0.1570  0.0276
59856DOD     C223388   7.098  10.089  27.198 -0.1769  0.1810 -0.1818
59856DOD     C323389   7.452  10.267  26.928 -0.0726  0.2128 -0.0057
59857DOD     C123390   0.092   4.418  25.184  0.2473 -0.4079 -0.1936
59857DOD     C223391   0.110   4.310  24.759  0.0293  0.0928 -0.0889
59857DOD     C323392   0.197   4.517  24.338 -0.0791 -0.1064  0.0900
59858DOD     C123393  28.162  10.068  13.224  0.0096  0.0594 -0.1543
59858DOD     C223394  28.399  10.058  12.786  0.1418 -0.0298 -0.3175
59858DOD     C323395  28.657  10.241  12.418  0.4126 -0.1120 -0.0768
59859DOD     C123396   9.335  10.489  15.774  0.1954 -0.0325  0.0701
59859DOD     C223397   9.728  10.282  15.626  0.1797  0.0345 -0.1344
59859DOD     C323398  10.025  10.126  15.911  0.0686  0.0176  0.1903
59860DOD     C123399  25.372   5.398  29.364  0.0939 -0.0923  0.1566
59860DOD     C223400  25.516   5.435  29.821 -0.2041 -0.0418 -0.1903
59860DOD     C323401  25.405   5.659  30.279  0.3512 -0.0459  0.1528
59861DOD     C123402  10.799  27.217  29.685 -0.0276 -0.2057  0.2174
59861DOD     C223403  10.962  27.402  29.286  0.0089  0.3531 -0.3645
59861DOD     C323404  10.763  27.626  28.918  0.0949  0.1928  0.3064
59862DOD     C123405  24.852   4.221  12.837 -0.3985 -0.0544  0.1107
59862DOD     C223406  24.960   4.211  13.313  0.0121 -0.0929 -0.1517
59862DOD     C323407  25.241   4.171  13.671 -0.1264  0.1190  0.0639
59863DOD     C123408   7.689   1.992  27.520  0.2694  0.2545 -0.0372
59863DOD     C223409   7.813   1.536  27.618 -0.1007 -0.1387  0.0511
59863DOD     C323410   7.671   1.196  27.891 -0.0963  0.1167 -0.2925
59864DOD     C123411   5.111  12.962  11.585 -0.1417  0.1873 -0.0358
59864DOD     C223412   5.240  12.716  11.212 -0.0685  0.2894  0.0134
59864DOD     C323413   5.021  12.566  10.851  0.0025  0.0834  0.1497
59865DOD     C123414  27.963   1.280   6.104 -0.3080  0.2161 -0.0920
59865DOD     C223415  28.158   1.498   6.501 -0.2727  0.0440  0.2272
59865DOD     C323416  28.428   1.881   6.546 -0.0899 -0.0235 -0.0208
59866DOD     C123417  14.485   0.289  15.747  0.1069  0.0862 -0.0119
59866DOD     C223418  14.109   0.403  15.459  0.0782 -0.3906  0.3268
59866DOD     C323419  14.122   0.323  15.018  0.0133 -0.0604 -0.2726
59867DOD     C123420  13.059   4.933   7.399 -0.2585 -0.0453  0.2578
59867DOD     C223421  13.251   5.296   7.195 -0.1457 -0.0946  0.1400
59867DOD     C323422  13.264   5.681   6.966  0.2589 -0.1962  0.0438
59868DOD     C123423  20.192  23.716  29.749 -0.0890 -0.1370  0.2271
59868DOD     C223424  19.887  23.452  29.985  0.0788  0.0474 -0.0445
59868DOD     C323425  19.739  23.164   0.004  0.0740  0.0191  0.0040
59869DOD     C123426   6.019   2.810  26.722  0.0594 -0.0517 -0.0671
59869DOD     C223427   5.814   3.156  26.940 -0.0804 -0.1416  0.0079
59869DOD     C323428   5.947   3.465  27.249 -0.0809 -0.1063  0.2038
59870DOD     C123429   0.061  13.115  24.609  0.2967 -0.2811  0.0040
59870DOD     C223430   0.111  12.797  24.254 -0.2971 -0.0237 -0.0854
59870DOD     C323431   0.082  12.312  24.284 -0.0951 -0.1801 -0.1397
59871DOD     C123432   4.723  21.852  30.094  0.2010  0.0565 -0.1492
59871DOD     C223433   4.936  21.943   0.252 -0.1838 -0.4615 -0.0386
59871DOD     C323434   5.179  22.071   0.675  0.0230  0.0721 -0.0853
59872DOD     C123435  16.037  24.898  12.802 -0.3461 -0.2000  0.3382
59872DOD     C223436  16.152  24.759  13.231 -0.0153 -0.1475  0.0879
59872DOD     C323437  16.214  24.753  13.677 -0.0279 -0.1753 -0.0254
59873DOD     C123438   1.110  16.509   4.586 -0.1759 -0.0562 -0.0500
59873DOD     C223439   0.909  16.917   4.542  0.0419 -0.3837 -0.1530
59873DOD     C323440   1.077  17.358   4.454  0.0414 -0.2449  0.2196
59874DOD     C123441   2.669  18.612  17.981 -0.1915 -0.1130  0.2347
59874DOD     C223442   2.245  18.476  18.024 -0.0282 -0.0037 -0.3062
59874DOD     C323443   1.804  18.467  18.202 -0.1384 -0.1502  0.1530
59875DOD     C123444   5.497  11.504  24.324  0.1328 -0.1602  0.1977
59875DOD     C223445   5.308  11.081  24.083 -0.0193 -0.1427 -0.1126
59875DOD     C323446   5.104  11.133  23.716 -0.1653 -0.3763 -0.3159
59876DOD     C123447  15.283  22.653   0.472  0.4335 -0.3297 -0.2515
59876DOD     C223448  15.493  22.930   0.801  0.0340 -0.1322  0.1232
59876DOD     C323449  15.811  23.003   1.150  0.5122 -0.0963  0.0380
59877DOD     C123450  29.428  18.228   2.238  0.2167 -0.0538  0.4071
59877DOD     C223451  29.135  17.875   2.156 -0.0219 -0.0012  0.0021
59877DOD     C323452  28.825  17.627   1.886  0.0236  0.0884  0.2598
59878DOD     C123453  23.414   9.243   0.109  0.2115  0.0043  0.1201
59878DOD     C223454  23.644   9.305   0.476 -0.0715 -0.1287 -0.1563
59878DOD     C323455  23.784   9.081   0.874 -0.0460  0.0084 -0.0028
59879DOD     C123456   7.762  11.414  20.698 -0.1095 -0.3803  0.1309
59879DOD     C223457   7.423  11.173  20.647 -0.1255 -0.4445  0.2857
59879DOD     C323458   7.015  10.953  20.683  0.0092 -0.1350  0.3248
59880DOD     C123459  18.458  14.376   9.464 -0.2424  0.1285 -0.1644
59880DOD     C223460  18.829  14.230   9.218 -0.4945 -0.0473 -0.0906
59880DOD     C323461  19.272  14.338   9.211 -0.0306 -0.0817  0.2501
59881DOD     C123462  16.919  19.732  18.292  0.2267 -0.0708 -0.0327
59881DOD     C223463  17.309  19.780  18.034  0.0038  0.1068 -0.1777
59881DOD     C323464  17.706  19.728  17.988 -0.3152  0.1890 -0.1374
59882DOD     C123465   8.132   6.975  28.780 -0.1863 -0.0822 -0.0898
59882DOD     C223466   8.235   6.656  28.447 -0.5122 -0.1384 -0.3940
59882DOD     C323467   8.322   6.690  27.977  0.0440 -0.2105 -0.1351
59883DOD     C123468   9.840   4.636  24.927 -0.0970 -0.0640  0.1858
59883DOD     C223469   9.622   4.849  24.544 -0.2163  0.0595 -0.1811
59883DOD     C323470   9.226   4.802  24.307  0.1391 -0.1650 -0.2069
59884DOD     C123471  11.046   1.964   1.468  0.1463 -0.1851 -0.1281
59884DOD     C223472  11.110   1.667   1.801  0.0383 -0.0661  0.1179
59884DOD     C323473  10.889   1.275   1.919 -0.0303 -0.1786 -0.2296
59885DOD     C123474  16.987   1.206  25.178  0.1520  0.1550  0.1283
59885DOD     C223475  16.905   1.044  24.724  0.0763  0.0608 -0.1729
59885DOD     C323476  16.677   0.798  24.422 -0.0628  0.0388  0.0401
59886DOD     C123477  28.188   6.841  23.221  0.0544 -0.1494  0.0545
59886DOD     C223478  27.992   6.732  23.598 -0.0597  0.0106 -0.2838
59886DOD     C323479  28.003   6.322  23.862 -0.1157 -0.0280  0.1925
59887DOD     C123480  13.540  26.786  11.403  0.0215 -0.2272 -0.2040
59887DOD     C223481  13.200  26.643  11.047 -0.1258  0.0247 -0.1455
59887DOD     C323482  12.832  26.462  10.808  0.1500 -0.0374 -0.1041
59888DOD     C123483   0.568  11.023  11.553 -0.1316  0.3266  0.3371
59888DOD     C223484   0.409  10.650  11.709  0.2504  0.2592  0.4333
59888DOD     C323485  30.286  10.506  11.812 -0.0269  0.1463  0.2369
59889DOD     C123486  19.210  20.140  21.159  0.1776  0.1116 -0.2760
59889DOD     C223487  19.309  20.596  21.288  0.2578  0.0947 -0.3938
59889DOD     C323488  19.225  20.990  20.995  0.2426 -0.0614 -0.0993
59890DOD     C123489  23.451   3.870  15.103  0.0412 -0.1431  0.1389
59890DOD     C223490  23.329   3.982  14.632 -0.1213 -0.3516 -0.1290
59890DOD     C323491  23.500   3.711  14.317 -0.3855  0.2115 -0.1631
59891DOD     C123492   9.535  11.746  16.987 -0.1519 -0.1797 -0.1524
59891DOD     C223493   9.743  11.338  17.128 -0.1518 -0.2239  0.3339
59891DOD     C323494   9.968  10.969  16.980 -0.0810 -0.4266  0.0472
59892DOD     C123495  25.344  13.946  24.793 -0.1041  0.2282 -0.2085
59892DOD     C223496  25.238  14.386  24.683  0.0526 -0.0302  0.1448
59892DOD     C323497  24.974  14.719  24.849  0.1321 -0.0749  0.0155
59893DOD     C123498   7.536   8.969   2.748 -0.2411 -0.1226  0.1110
59893DOD     C223499   7.186   8.769   2.506  0.1571  0.2465 -0.2823
59893DOD     C323500   6.991   8.401   2.292 -0.2756 -0.0444 -0.2540
59894DOD     C123501   2.410  18.456  23.505  0.1723  0.2923 -0.0800
59894DOD     C223502   2.649  18.264  23.153  0.1067  0.0470  0.0232
59894DOD     C323503   2.844  18.238  22.765 -0.0810  0.5071  0.2652
59895DOD     C123504  21.200   7.911   9.363 -0.5235 -0.1270  0.0046
59895DOD     C223505  21.432   7.683   8.998  0.1322  0.1818 -0.0783
59895DOD     C323506  21.622   7.740   8.594 -0.0299  0.0311 -0.1526
59896DOD     C123507  24.077   1.029  15.657  0.0013  0.0101 -0.1274
59896DOD     C223508  23.791   1.297  15.423  0.0628 -0.1575  0.2581
59896DOD     C323509  23.697   1.627  15.137 -0.2419  0.0127  0.0138
59897DOD     C123510   1.425  27.574  13.621 -0.1168  0.0840 -0.2593
59897DOD     C223511   1.197  27.868  13.966 -0.0065  0.0037 -0.1096
59897DOD     C323512   0.901  28.132  14.272 -0.1966  0.0511  0.4237
59898DOD     C123513   8.345  18.803  23.911  0.2288  0.1666 -0.0400
59898DOD     C223514   8.708  18.912  24.087  0.2372  0.0499 -0.1452
59898DOD     C323515   9.127  19.104  24.217 -0.2134 -0.0165 -0.0342
59899DOD     C123516  29.797  28.026  26.289 -0.1112 -0.2427  0.0300
59899DOD     C223517  30.179  28.261  26.369  0.5752 -0.0073  0.0943
59899DOD     C323518   0.300  28.335  26.385  0.0875 -0.1717  0.1940
59900DOD     C123519  25.191  20.571   9.288 -0.0989  0.0360  0.1269
59900DOD     C223520  25.349  20.683   8.885 -0.3265 -0.0034 -0.1990
59900DOD     C323521  25.356  20.802   8.405 -0.0662  0.2340  0.0930
59901DOD     C123522  18.930  29.386   1.099 -0.1839  0.1061  0.0733
59901DOD     C223523  19.332  29.394   1.354  0.1191 -0.1446 -0.0394
59901DOD     C323524  19.790  29.426   1.317 -0.2134 -0.0163  0.1047
59902DOD     C123525   1.641   4.816   0.639  0.2250  0.2589  0.0327
59902DOD     C223526   1.471   4.452   0.821 -0.1158 -0.5859  0.0720
59902DOD     C323527   1.236   4.020   0.845 -0.3074 -0.1489  0.0955
59903DOD     C123528   9.573   1.608  24.093  0.0049  0.0093 -0.0684
59903DOD     C223529   9.295   1.747  24.436 -0.0577 -0.0453 -0.3652
59903DOD     C323530   8.903   1.590  24.634  0.0339 -0.3237  0.4660
59904DOD     C123531   6.072   8.922   6.317  0.0141  0.0221  0.5517
59904DOD     C223532   6.245   9.038   6.775  0.1636 -0.0598  0.0548
59904DOD     C323533   6.457   8.744   7.029 -0.1543 -0.1619 -0.0912
59905DOD     C123534  25.706  30.307   5.085  0.1083 -0.0973  0.2395
59905DOD     C223535  25.282   0.046   4.842  0.0060 -0.0945  0.1943
59905DOD     C323536  24.939   0.100   4.563 -0.2262 -0.1587 -0.2472
59906DOD     C123537  10.260  16.973  16.535 -0.0217 -0.2634  0.0034
59906DOD     C223538  10.679  16.855  16.348  0.1968 -0.0275  0.0221
59906DOD     C323539  11.147  16.858  16.242  0.2113  0.0513  0.1541
59907DOD     C123540   0.479  10.176   0.634 -0.3172 -0.0708 -0.2414
59907DOD     C223541   0.220  10.526   0.860 -0.2034  0.1311  0.0142
59907DOD     C323542   0.163  10.944   0.879 -0.1137  0.4179  0.2179
59908DOD     C123543  13.411  15.184  17.990 -0.2332  0.2341 -0.1083
59908DOD     C223544  13.345  14.779  17.872  0.2382  0.1381  0.0323
59908DOD     C323545  13.166  14.559  17.498  0.3298  0.1220  0.3541
59909DOD     C123546  10.894  25.420   8.116 -0.1897 -0.1778  0.0116
59909DOD     C223547  10.633  25.219   8.407  0.0127 -0.0808  0.0143
59909DOD     C323548  10.504  25.194   8.820  0.1754  0.2245  0.2065
59910DOD     C123549  14.837  21.386   4.223 -0.1465  0.0115 -0.0111
59910DOD     C223550  14.665  20.969   4.354  0.3230 -0.1439  0.0217
59910DOD     C323551  14.958  20.643   4.210  0.1726  0.0504 -0.1855
59911DOD     C123552  29.594  30.230  21.100  0.1132 -0.0941 -0.1866
59911DOD     C223553  29.711  29.833  21.231  0.0815 -0.1959  0.0051
59911DOD     C323554  29.823  29.528  21.539 -0.0402  0.1873  0.2484
59912DOD     C123555   8.264   7.519  24.010 -0.1524 -0.1920  0.3531
59912DOD     C223556   8.295   7.039  24.044  0.2909  0.1834  0.0940
59912DOD     C323557   8.058   6.831  24.362  0.4126  0.0539 -0.1086
59913DOD     C123558  24.549  15.450  12.444  0.0031  0.0640 -0.2279
59913DOD     C223559  24.839  15.433  12.076  0.2727  0.0871 -0.0461
59913DOD     C323560  24.906  15.471  11.604  0.1594 -0.2602 -0.0165
59914DOD     C123561  28.584   6.888  20.467  0.0593 -0.0861  0.0716
59914DOD     C223562  28.338   6.929  20.103 -0.0723  0.0860 -0.2143
59914DOD     C323563  28.198   7.342  19.993 -0.4012  0.1960  0.0124
59915DOD     C123564   3.209  20.220  28.026  0.0206 -0.0128 -0.0168
59915DOD     C223565   3.379  20.520  28.353 -0.1428  0.1941 -0.1326
59915DOD     C323566   3.610  20.672  28.691  0.0237  0.1754  0.1514
59916DOD     C123567   1.173  25.014  24.032 -0.0496 -0.2399 -0.3251
59916DOD     C223568   1.034  25.419  24.202  0.2153 -0.1646  0.0552
59916DOD     C323569   1.244  25.852  24.263  0.0678 -0.1450  0.0516
59917DOD     C123570  20.863  13.445  21.965 -0.0724 -0.1856  0.1265
59917DOD     C223571  21.110  13.743  22.224  0.0817  0.0716 -0.3389
59917DOD     C323572  20.981  14.204  22.485 -0.0873 -0.3319 -0.2310
59918DOD     C123573  20.922  20.898   8.468 -0.0543 -0.0524  0.0663
59918DOD     C223574  21.266  21.010   8.778 -0.1610  0.1506  0.0791
59918DOD     C323575  21.667  21.218   8.723 -0.1044 -0.1689  0.1169
59919DOD     C123576   0.100  14.181  19.513  0.1251  0.3924  0.1017
59919DOD     C223577  30.228  13.790  19.332  0.0522  0.2785 -0.0032
59919DOD     C323578  30.051  13.600  18.912 -0.4095 -0.0424 -0.0792
59920DOD     C123579   3.531  24.237  29.821  0.0713 -0.2650  0.0914
59920DOD     C223580   3.068  24.170  29.751 -0.2328  0.0378  0.1220
59920DOD     C323581   2.656  24.171  29.973 -0.2811  0.0834 -0.1144
59921DOD     C123582  29.553   6.576   2.085  0.0588 -0.0675 -0.1643
59921DOD     C223583  29.491   6.678   1.656  0.0517 -0.2123 -0.0750
59921DOD     C323584  29.419   6.605   1.206  0.1408 -0.0130  0.2613
59922DOD     C123585  13.972  20.539   3.867  0.1995  0.0882 -0.0851
59922DOD     C223586  14.071  20.511   4.345  0.0848 -0.2660 -0.1290
59922DOD     C323587  14.252  20.213   4.634 -0.1213 -0.1749  0.0119
59923DOD     C123588   7.628  27.378  12.204  0.1444  0.0934  0.0347
59923DOD     C223589   7.199  27.237  12.236  0.0312  0.0394 -0.1283
59923DOD     C323590   6.781  27.161  11.958  0.0286 -0.1438  0.2017
59924DOD     C123591  26.813   2.276   2.067  0.0422  0.2018  0.3128
59924DOD     C223592  26.995   1.864   2.140 -0.2733  0.0748 -0.1950
59924DOD     C323593  27.083   1.529   2.359  0.1238  0.1247 -0.1307
59925DOD     C123594   7.147   8.081   9.475  0.1639  0.0531 -0.0535
59925DOD     C223595   7.000   7.647   9.465 -0.1097 -0.1580  0.1457
59925DOD     C323596   7.085   7.235   9.578 -0.0763 -0.0779  0.1272
59926DOD     C123597   0.090  15.891  15.236  0.0990  0.0331 -0.0671
59926DOD     C223598  30.097  15.937  14.889 -0.0417 -0.1621 -0.0262
59926DOD     C323599  29.989  16.298  14.662  0.1955 -0.2260  0.0435
59927DOD     C123600  10.841  19.231   4.133  0.1368  0.0710 -0.4791
59927DOD     C223601  11.161  18.927   4.038 -0.1755  0.2040 -0.0483
59927DOD     C323602  11.547  18.806   3.837  0.0137  0.2405  0.0986
59928DOD     C123603  14.595  12.391  17.480 -0.0114 -0.1781  0.2534
59928DOD     C223604  14.689  12.648  17.104  0.2198 -0.0629 -0.2182
59928DOD     C323605  14.544  13.001  16.872  0.3245  0.1589  0.1622
59929DOD     C123606  10.065  14.437  27.396  0.1497 -0.0235 -0.1736
59929DOD     C223607  10.115  14.896  27.274  0.1151  0.0157 -0.2293
59929DOD     C323608  10.043  15.361  27.296 -0.3111 -0.2143 -0.0543
59930DOD     C123609  12.098  15.305  24.862 -0.0977 -0.1168  0.1628
59930DOD     C223610  12.261  15.354  24.432 -0.2365 -0.0159  0.0067
59930DOD     C323611  12.146  15.451  23.982 -0.0099  0.2517  0.0066
59931DOD     C123612  24.607  14.905  25.129  0.2296  0.2324 -0.2203
59931DOD     C223613  24.625  15.280  25.345  0.0865  0.0836 -0.0349
59931DOD     C323614  24.853  15.605  25.532 -0.1732 -0.0493 -0.0759
59932DOD     C123615  17.600  24.111  14.655  0.1671 -0.2707 -0.0156
59932DOD     C223616  17.458  23.747  14.941 -0.3696  0.0467  0.1746
59932DOD     C323617  17.306  23.409  15.272  0.0413 -0.0302  0.2021
59933DOD     C123618  10.990  23.086   9.202 -0.2294 -0.1363 -0.1218
59933DOD     C223619  11.033  22.850   9.590 -0.1694 -0.0257  0.3601
59933DOD     C323620  10.867  22.634   9.999 -0.3479 -0.1071 -0.0616
59934DOD     C123621   4.602  25.960  24.192  0.2451  0.1498  0.1444
59934DOD     C223622   4.172  25.944  23.965  0.2324  0.0154 -0.1955
59934DOD     C323623   3.761  25.986  23.702  0.0013 -0.4678 -0.3060
59935DOD     C123624  29.927   2.719   1.809 -0.1951  0.0453 -0.1397
59935DOD     C223625  29.445   2.815   1.888  0.1464  0.1990 -0.0035
59935DOD     C323626  29.178   3.191   2.034  0.0949 -0.4895  0.3873
59936DOD     C123627  13.028   7.751   7.285 -0.1039  0.1938  0.0537
59936DOD     C223628  13.254   8.024   7.014  0.0975 -0.2166  0.2910
59936DOD     C323629  13.194   7.973   6.597  0.1640 -0.1185 -0.3051
59937DOD     C123630   4.447  15.715  17.578 -0.1171 -0.0523 -0.2644
59937DOD     C223631   4.537  15.825  18.068  0.2209 -0.2331  0.0372
59937DOD     C323632   4.814  15.951  18.444 -0.0667 -0.1263 -0.0732
59938DOD     C123633  23.169  19.406   4.271  0.4563  0.1312 -0.3460
59938DOD     C223634  23.380  19.689   4.602  0.3318 -0.0762  0.1274
59938DOD     C323635  23.648  19.585   4.989 -0.0875  0.3444  0.0619
59939DOD     C123636   1.063  25.015  25.696 -0.0489  0.4002  0.1688
59939DOD     C223637   0.669  24.769  25.518 -0.0842 -0.0221 -0.0260
59939DOD     C323638   0.241  24.713  25.810 -0.2522  0.1271  0.3011
59940DOD     C123639  12.586  21.750  16.270  0.0854  0.0386  0.1285
59940DOD     C223640  12.680  22.083  15.978 -0.1495  0.2285  0.3444
59940DOD     C323641  12.547  22.399  15.666 -0.3387 -0.2377  0.0089
59941DOD     C123642  10.151  23.529  25.019  0.3401  0.1344  0.1515
59941DOD     C223643  10.386  23.450  24.608 -0.2976 -0.1315  0.1940
59941DOD     C323644  10.647  23.342  24.255 -0.3511  0.1760 -0.1797
59942DOD     C123645  20.732   0.822   6.561 -0.1787  0.3449 -0.0083
59942DOD     C223646  21.092   1.088   6.663  0.4157  0.0639  0.0375
59942DOD     C323647  21.522   1.149   6.598  0.1091  0.1222  0.1785
59943DOD     C123648  12.047  28.758   3.958 -0.3091  0.0394  0.1279
59943DOD     C223649  11.955  29.229   3.799  0.1609  0.0471 -0.1135
59943DOD     C323650  11.995  29.703   3.892 -0.0890  0.4471 -0.2971
59944DOD     C123651  26.257   6.699  16.774  0.2405  0.0343  0.0659
59944DOD     C223652  26.353   6.965  16.375 -0.0330  0.1880  0.2166
59944DOD     C323653  26.702   6.922  16.051  0.0364  0.1294 -0.2653
59945DOD     C123654  28.528  26.310   2.090  0.0532  0.1324 -0.0944
59945DOD     C223655  28.763  25.951   1.838 -0.1014  0.0833  0.2525
59945DOD     C323656  28.808  25.452   1.766  0.0194  0.1016  0.0416
59946DOD     C123657  12.293  24.069  17.602 -0.0092 -0.0149  0.1506
59946DOD     C223658  12.044  23.921  17.970  0.0261  0.0515  0.4059
59946DOD     C323659  11.797  23.791  18.354  0.1032  0.2545  0.1098
59947DOD     C123660   4.609  15.140  12.926 -0.2377  0.0275  0.2879
59947DOD     C223661   4.839  15.325  12.555  0.2829  0.1163 -0.1242
59947DOD     C323662   4.984  15.252  12.147  0.1872  0.2988  0.0021
59948DOD     C123663  26.140   8.498  19.709  0.0370  0.3447 -0.2949
59948DOD     C223664  26.568   8.614  19.678  0.0253 -0.0747  0.0024
59948DOD     C323665  27.024   8.730  19.660 -0.0390  0.0363 -0.1172
59949DOD     C123666  13.327  13.228  23.448  0.0465 -0.1826  0.1360
59949DOD     C223667  13.009  12.862  23.554  0.1246 -0.1105 -0.0659
59949DOD     C323668  12.579  12.662  23.526 -0.0410 -0.3441 -0.0729
59950DOD     C123669  23.836   6.403  19.123 -0.1613 -0.1738  0.0740
59950DOD     C223670  23.495   6.561  18.823 -0.2391  0.2236 -0.1597
59950DOD     C323671  23.106   6.765  18.703  0.2122 -0.0674 -0.0818
59951DOD     C123672   2.722  10.165  16.180 -0.1583 -0.1402  0.0893
59951DOD     C223673   2.689  10.422  15.809  0.0080  0.0427 -0.1455
59951DOD     C323674   2.482  10.485  15.399  0.2791  0.3657  0.1365
59952DOD     C123675  26.801  11.463   1.331  0.0036 -0.0600 -0.0454
59952DOD     C223676  26.986  11.091   1.139 -0.1980 -0.0091  0.0786
59952DOD     C323677  27.404  11.021   0.957  0.2665  0.1491  0.1027
59953DOD     C123678  14.204   7.848  10.635  0.0707 -0.0424 -0.0635
59953DOD     C223679  14.145   8.292  10.755  0.2483  0.2343  0.2707
59953DOD     C323680  13.996   8.559  11.109 -0.1895  0.0453 -0.1594
59954DOD     C123681  24.770   4.582  16.762 -0.4141  0.0273  0.2910
59954DOD     C223682  24.827   4.220  16.445  0.0262  0.0101 -0.1521
59954DOD     C323683  24.610   3.946  16.131  0.0544 -0.2257 -0.2143
59955DOD     C123684  13.629  25.992   9.111  0.0069 -0.1364  0.0494
59955DOD     C223685  13.804  26.308   8.723 -0.2239  0.1743 -0.3567
59955DOD     C323686  14.146  26.552   8.486 -0.1770 -0.0767 -0.0027
59956DOD     C123687  24.377   8.733  19.368  0.2862 -0.3341 -0.1074
59956DOD     C223688  24.112   8.988  19.038  0.1025  0.2665 -0.0566
59956DOD     C323689  23.739   9.258  19.096  0.0473  0.1798  0.0933
59957DOD     C123690   3.611  14.665  12.561  0.1413 -0.1015 -0.1100
59957DOD     C223691   3.285  14.756  12.205 -0.0771  0.5418 -0.0798
59957DOD     C323692   3.504  14.694  11.778  0.0667 -0.0555  0.1831
59958DOD     C123693   5.021  21.622  13.695  0.1780 -0.2175  0.0636
59958DOD     C223694   5.412  21.895  13.932 -0.2100 -0.0639  0.0718
59958DOD     C323695   5.502  22.334  14.061  0.1855 -0.0032 -0.0848
59959DOD     C123696   4.043  22.977   4.511  0.0781 -0.0207  0.0380
59959DOD     C223697   3.958  22.526   4.516 -0.0914  0.0544  0.0603
59959DOD     C323698   4.129  22.167   4.308 -0.1543 -0.0944 -0.2882
59960DOD     C123699  26.766  29.584  23.844  0.0255 -0.2185 -0.1336
59960DOD     C223700  26.359  29.657  24.091  0.1137 -0.2603 -0.0171
59960DOD     C323701  25.939  29.492  24.297 -0.0014  0.1120 -0.0856
59961DOD     C123702  24.504  24.048  18.835  0.0619 -0.0708  0.0546
59961DOD     C223703  24.116  24.366  18.741 -0.0241  0.2879  0.1277
59961DOD     C323704  23.656  24.324  18.884 -0.0005  0.3001  0.2223
59962DOD     C123705  19.938  10.896  15.657  0.0926  0.0683 -0.1793
59962DOD     C223706  20.001  11.022  16.122 -0.1339  0.3523 -0.1220
59962DOD     C323707  19.799  11.188  16.509 -0.0460  0.1411  0.0793
59963DOD     C123708  19.570  27.632  28.469 -0.0927 -0.0320 -0.4290
59963DOD     C223709  19.781  27.360  28.784  0.1315  0.1241 -0.0169
59963DOD     C323710  20.074  27.500  29.180  0.3824  0.1741  0.0279
59964DOD     C123711   7.593   2.233   9.259  0.0624 -0.0319 -0.0885
59964DOD     C223712   7.081   2.305   9.281  0.0334  0.2843  0.3556
59964DOD     C323713   6.864   2.395   9.638 -0.0722 -0.0598 -0.1415
59965DOD     C123714  23.093  26.024  23.309 -0.0269 -0.0033 -0.1110
59965DOD     C223715  22.664  26.033  23.114 -0.0333 -0.2287 -0.4872
59965DOD     C323716  22.425  26.106  22.711  0.1150 -0.0473 -0.1457
59966DOD     C123717  29.192  27.209  17.044  0.1270  0.3034  0.2140
59966DOD     C223718  28.902  27.592  17.095 -0.1548 -0.0939 -0.0265
59966DOD     C323719  28.533  27.745  16.825  0.2723 -0.1607 -0.0709
59967DOD     C123720   6.500  11.675  21.012 -0.3873  0.0070  0.2188
59967DOD     C223721   6.916  12.003  20.978  0.1974  0.1765 -0.0911
59967DOD     C323722   7.257  12.087  20.761  0.1170  0.1535 -0.0332
59968DOD     C123723   8.929  16.195  10.268  0.0024  0.1780 -0.0706
59968DOD     C223724   9.118  16.049   9.889  0.0667  0.1269  0.1282
59968DOD     C323725   9.518  15.972   9.669  0.0843  0.1969  0.0845
59969DOD     C123726  28.705  24.430  19.331  0.2228 -0.2297 -0.1923
59969DOD     C223727  28.548  24.825  19.494  0.0060  0.0139  0.2349
59969DOD     C323728  28.610  25.228  19.778 -0.3743 -0.1143 -0.0595
59970DOD     C123729  14.797  21.414  13.912 -0.0946  0.2277 -0.0038
59970DOD     C223730  14.639  21.439  14.327 -0.0502 -0.2054 -0.0429
59970DOD     C323731  14.251  21.618  14.540 -0.1908 -0.1233  0.1917
59971DOD     C123732  29.449   1.693  27.467  0.0144 -0.1293  0.0080
59971DOD     C223733  29.121   1.961  27.160  0.1337  0.1520  0.0674
59971DOD     C323734  29.045   2.125  26.707  0.2983 -0.1060  0.1042
59972DOD     C123735  15.656   5.218   6.933  0.2045 -0.1051  0.2210
59972DOD     C223736  15.263   5.087   6.709  0.2482 -0.0689  0.4562
59972DOD     C323737  14.992   5.132   6.326 -0.1346  0.4407  0.0828
59973DOD     C123738  11.172  21.211  18.617  0.0236  0.0676  0.0109
59973DOD     C223739  11.165  20.866  18.925  0.0271  0.0326  0.0191
59973DOD     C323740  11.259  20.738  19.363  0.1339  0.0629 -0.0564
59974DOD     C123741   6.996  29.533  16.467 -0.0616  0.1349  0.0453
59974DOD     C223742   7.312  29.188  16.596  0.1384  0.0353  0.1886
59974DOD     C323743   7.599  28.819  16.669  0.1383 -0.0142  0.1094
59975DOD     C123744  19.924  25.576   0.323  0.0390  0.0986  0.1613
59975DOD     C223745  20.352  25.796   0.216  0.1190  0.1646 -0.1066
59975DOD     C323746  20.700  26.090   0.183 -0.2580 -0.0263 -0.1703
59976DOD     C123747   7.781   7.533   7.830 -0.0699  0.0532 -0.1513
59976DOD     C223748   8.177   7.689   7.716  0.1687  0.0763 -0.1363
59976DOD     C323749   8.523   7.682   7.389  0.1069 -0.0421 -0.0784
59977DOD     C123750   3.841  21.844   7.243 -0.2401  0.0327  0.0131
59977DOD     C223751   4.139  22.130   7.169 -0.1250 -0.0183 -0.2956
59977DOD     C323752   4.183  22.419   6.822  0.2818  0.0487 -0.2911
59978DOD     C123753   5.215   4.404  20.620  0.0554  0.0575 -0.1081
59978DOD     C223754   5.510   4.131  20.957  0.2625  0.1535 -0.0792
59978DOD     C323755   5.661   3.969  21.393  0.1352 -0.2300  0.1360
59979DOD     C123756  10.937  26.501   2.263 -0.0292 -0.0652 -0.0044
59979DOD     C223757  11.315  26.199   2.242 -0.1945 -0.1164  0.1191
59979DOD     C323758  11.582  25.984   1.929 -0.3106  0.0447  0.0397
59980DOD     C123759  24.228   4.507  26.143 -0.1520  0.5151  0.0282
59980DOD     C223760  24.214   4.214  26.550  0.0621 -0.1058  0.1770
59980DOD     C323761  24.220   4.357  26.948  0.0357  0.2521  0.1474
59981DOD     C123762  26.101  21.052  19.682 -0.0145  0.1083  0.0228
59981DOD     C223763  25.726  21.030  20.016  0.0182 -0.2443  0.2311
59981DOD     C323764  25.263  21.021  19.959  0.1237 -0.2889  0.0514
59982DOD     C123765  26.671   1.270  24.744  0.0648 -0.2824  0.3205
59982DOD     C223766  26.891   1.421  24.341 -0.0901  0.2750 -0.1374
59982DOD     C323767  26.747   1.775  24.122 -0.2335 -0.3280 -0.0049
59983DOD     C123768  23.029  26.559  11.253 -0.1964 -0.0286 -0.0266
59983DOD     C223769  22.756  26.701  11.535  0.1833  0.0258 -0.3290
59983DOD     C323770  22.383  27.010  11.605 -0.0366 -0.1801 -0.1692
59984DOD     C123771  13.847  24.689  18.731 -0.0795  0.2038 -0.0496
59984DOD     C223772  14.111  24.339  18.563  0.0080  0.3707  0.0914
59984DOD     C323773  14.455  24.196  18.334 -0.1458  0.2270 -0.3476
59985DOD     C123774   5.915  16.294  15.537 -0.0282  0.0843 -0.1176
59985DOD     C223775   6.192  16.046  15.806  0.0002 -0.3371  0.3381
59985DOD     C323776   6.264  15.649  16.073 -0.2031 -0.0766  0.1833
59986DOD     C123777   7.900  22.515   9.391 -0.1906  0.0215  0.2029
59986DOD     C223778   7.894  22.571   8.925  0.4086 -0.0554 -0.3207
59986DOD     C323779   8.101  22.478   8.525 -0.2470  0.0283  0.1784
59987DOD     C123780  14.191  22.504  19.290 -0.1985 -0.1027  0.2120
59987DOD     C223781  13.740  22.578  19.427 -0.1649 -0.3414 -0.2738
59987DOD     C323782  13.301  22.697  19.351 -0.2418 -0.0339  0.1305
59988DOD     C123783  16.315  14.123   0.692  0.1355  0.1617 -0.0031
59988DOD     C223784  16.397  14.177   1.169  0.5913 -0.2423 -0.1400
59988DOD     C323785  16.605  14.439   1.457  0.0584 -0.1774 -0.1123
59989DOD     C123786   6.011  11.471   2.810  0.2967 -0.2560  0.1732
59989DOD     C223787   6.095  11.344   2.349  0.1913 -0.0130 -0.1559
59989DOD     C323788   5.900  10.894   2.113 -0.0979  0.2049  0.0380
59990DOD     C123789   6.472  15.814   5.369 -0.3322 -0.1305 -0.0848
59990DOD     C223790   6.668  15.606   5.748 -0.1950  0.0413  0.0362
59990DOD     C323791   7.020  15.419   5.854 -0.1277 -0.2114  0.3106
59991DOD     C123792  26.357   1.942  18.989  0.0394 -0.3177 -0.0508
59991DOD     C223793  26.341   1.864  18.521 -0.0958  0.0991  0.2155
59991DOD     C323794  26.451   2.041  18.136  0.0240 -0.0262  0.1913
59992DOD     C123795  21.858  25.127   6.867  0.1576  0.0077 -0.0428
59992DOD     C223796  22.141  25.445   6.877  0.4714  0.2720 -0.1169
59992DOD     C323797  22.347  25.812   7.058  0.0631 -0.1401 -0.1255
59993DOD     C123798  23.981  14.556  23.727  0.2752 -0.1025 -0.0816
59993DOD     C223799  24.381  14.329  23.593 -0.2577  0.0008  0.0945
59993DOD     C323800  24.676  13.928  23.543 -0.2896 -0.1192  0.1525
59994DOD     C123801  22.046   0.538   4.751 -0.2545  0.3165  0.2986
59994DOD     C223802  22.460   0.524   4.589 -0.1251 -0.0402  0.3678
59994DOD     C323803  22.900   0.517   4.714  0.2305  0.0766 -0.2517
59995DOD     C123804  19.010   2.803  15.637  0.0360 -0.1600  0.0071
59995DOD     C223805  19.256   2.403  15.528  0.0266 -0.3556  0.1904
59995DOD     C323806  19.400   1.982  15.455  0.3196 -0.4078  0.1912
59996DOD     C123807  24.314  18.364   2.203 -0.2394  0.0638 -0.3440
59996DOD     C223808  24.207  18.271   2.625  0.1945 -0.1763  0.0105
59996DOD     C323809  24.483  18.235   3.006  0.0669 -0.1588 -0.1282
59997DOD     C123810  13.136  17.394  28.506 -0.5280  0.1424 -0.1833
59997DOD     C223811  12.824  17.551  28.248 -0.1744  0.1213  0.2835
59997DOD     C323812  12.381  17.777  28.165  0.1363  0.2728 -0.0276
59998DOD     C123813  19.134  27.227  15.169 -0.0706 -0.3979  0.1600
59998DOD     C223814  19.169  27.085  14.752 -0.0319 -0.1269  0.1291
59998DOD     C323815  19.151  26.984  14.291 -0.0222  0.0004  0.1819
59999DOD     C123816   4.085   4.414  28.354 -0.0164  0.1304  0.2651
59999DOD     C223817   3.666   4.282  28.452 -0.0683  0.1648  0.0823
59999DOD     C323818   3.262   4.386  28.567  0.0493  0.2343  0.0040
60000DOD     C123819   0.176  18.855  27.699  0.0132  0.0716 -0.2046
60000DOD     C223820   0.602  18.865  27.445  0.1141  0.2757  0.0926
60000DOD     C323821   0.961  19.102  27.279 -0.1692 -0.0100 -0.0716
60001DOD     C123822   6.619   3.684  18.205  0.1612  0.0052  0.0707
60001DOD     C223823   6.366   3.749  18.622  0.1183  0.1591  0.0184
60001DOD     C323824   6.085   4.147  18.651  0.0760  0.0156  0.1334
60002DOD     C123825  17.281  14.906  11.647  0.1941  0.1556 -0.0347
60002DOD     C223826  17.196  15.295  11.749  0.1581  0.1271  0.0797
60002DOD     C323827  16.820  15.552  11.685 -0.2169  0.0252  0.0002
60003DOD     C123828  17.381  15.260  23.634 -0.1569  0.0352 -0.0228
60003DOD     C223829  17.050  15.591  23.661 -0.1774  0.1870 -0.0346
60003DOD     C323830  17.016  15.996  23.520 -0.1111 -0.0267  0.0868
60004DOD     C123831  11.223  21.727   4.676  0.0332  0.1845  0.1734
60004DOD     C223832  10.849  21.963   4.432  0.0502  0.1631 -0.0016
60004DOD     C323833  10.538  22.347   4.399 -0.0208  0.4167  0.0375
60005DOD     C123834  14.841   7.869   2.788 -0.0049 -0.1759  0.0681
60005DOD     C223835  14.857   8.297   2.726 -0.0973  0.2734  0.1150
60005DOD     C323836  14.714   8.638   3.064  0.2592  0.0144  0.0162
60006DOD     C123837   5.364   1.355   4.802 -0.1601  0.0467  0.3835
60006DOD     C223838   5.404   1.103   5.200 -0.2375 -0.2418  0.1099
60006DOD     C323839   5.618   1.168   5.576 -0.0008 -0.1682 -0.0163
60007DOD     C123840   2.648  24.561   0.067 -0.2082  0.2312  0.0772
60007DOD     C223841   2.581  24.105   0.173 -0.1002 -0.2666 -0.1657
60007DOD     C323842   2.764  23.631   0.220 -0.0509  0.1164  0.1130
60008DOD     C123843  29.205  13.661  19.142 -0.2271  0.0207 -0.1276
60008DOD     C223844  28.980  13.561  18.734 -0.2564  0.0746  0.2168
60008DOD     C323845  28.617  13.706  18.478 -0.0881 -0.1840  0.1129
60009DOD     C123846  13.392  29.340   8.140 -0.1380 -0.3239 -0.2208
60009DOD     C223847  12.956  29.166   8.022  0.3696  0.0218  0.0452
60009DOD     C323848  12.757  28.837   8.303  0.2254 -0.1827  0.0976
60010DOD     C123849  15.478   8.627  27.116  0.1477  0.1468  0.1797
60010DOD     C223850  15.795   8.864  26.872 -0.0144  0.1145 -0.1312
60010DOD     C323851  15.985   9.099  26.566 -0.1219 -0.1590  0.0347
60011DOD     C123852   0.878  19.864  16.871  0.0507  0.1137 -0.0736
60011DOD     C223853   1.318  19.716  16.953  0.1070 -0.1185 -0.0328
60011DOD     C323854   1.690  19.613  16.785 -0.1050  0.2556 -0.2188
60012DOD     C123855   5.598   1.781  29.904 -0.1068 -0.3665 -0.1027
60012DOD     C223856   5.985   2.024  29.750  0.1139 -0.0053  0.0733
60012DOD     C323857   6.425   1.919  29.818  0.0201 -0.1872  0.1321
60013DOD     C123858   0.813  13.328  20.874  0.0285  0.2548 -0.2522
60013DOD     C223859   0.404  13.174  21.052  0.1684  0.2223 -0.0501
60013DOD     C323860  30.318  13.091  20.886  0.2486 -0.1940 -0.1741
60014DOD     C123861   6.651  20.709   7.775 -0.2012  0.1666 -0.1145
60014DOD     C223862   6.364  21.068   7.847  0.0102 -0.0727 -0.1204
60014DOD     C323863   5.952  21.203   7.982 -0.0481  0.0171  0.1466
60015DOD     C123864  10.019  23.440  11.726 -0.0328  0.3476 -0.0184
60015DOD     C223865   9.653  23.294  11.423 -0.1654 -0.2266  0.0943
60015DOD     C323866   9.650  22.939  11.059  0.0353  0.1152 -0.0357
60016DOD     C123867  26.141  26.955  18.810  0.0910 -0.1095  0.1076
60016DOD     C223868  25.943  26.914  18.369 -0.4201 -0.0441 -0.0642
60016DOD     C323869  25.676  27.340  18.245 -0.3522  0.1852 -0.2141
60017DOD     C123870  11.722  16.391   8.530 -0.0106  0.1629 -0.2439
60017DOD     C223871  12.020  16.637   8.812 -0.0549  0.0291 -0.0875
60017DOD     C323872  12.100  16.697   9.239  0.0159  0.2967 -0.1241
60018DOD     C123873   1.088  22.678  13.691 -0.1450  0.0154  0.0145
60018DOD     C223874   1.247  23.053  13.935 -0.3168  0.1864 -0.2747
60018DOD     C323875   1.444  23.487  14.028 -0.2075  0.2165 -0.0771
60019DOD     C123876  29.725  13.544  27.207 -0.1489 -0.3332  0.0351
60019DOD     C223877  29.329  13.421  27.280 -0.2360 -0.3191 -0.1208
60019DOD     C323878  28.892  13.269  27.172 -0.0530  0.0597  0.0489
60020DOD     C123879  12.935  12.887  18.368 -0.0289  0.1401 -0.0258
60020DOD     C223880  12.456  12.794  18.360  0.0772 -0.2110 -0.0547
60020DOD     C323881  12.322  12.510  18.031  0.1934  0.1003 -0.2086
60021DOD     C123882  27.315  16.922  18.207 -0.1804  0.0362  0.2886
60021DOD     C223883  27.376  16.555  18.521 -0.1523  0.4168 -0.0696
60021DOD     C323884  27.558  16.140  18.538 -0.0314 -0.0458 -0.1501
60022DOD     C123885  20.928  27.015  10.285 -0.1897  0.0601 -0.0313
60022DOD     C223886  20.593  27.181  10.483  0.0486 -0.0603 -0.3013
60022DOD     C323887  20.456  27.579  10.338  0.0730 -0.0139 -0.0038
60023DOD     C123888  13.656  27.276  11.203  0.0476  0.1616 -0.1825
60023DOD     C223889  13.660  26.877  10.944 -0.4327 -0.0679  0.0569
60023DOD     C323890  13.926  26.503  10.909 -0.3334 -0.0241 -0.0330
60024DOD     C123891   9.036  13.387  27.997  0.1914 -0.2374 -0.2814
60024DOD     C223892   8.770  13.762  28.237  0.0790  0.1090 -0.3372
60024DOD     C323893   8.392  13.998  28.386  0.0321  0.0655 -0.0135
60025DOD     C123894   8.053  20.531   4.990 -0.0966 -0.0096  0.1731
60025DOD     C223895   8.248  20.698   4.642  0.0520 -0.1193 -0.1530
60025DOD     C323896   8.515  20.951   4.367 -0.3749 -0.1513 -0.2553
60026DOD     C123897  19.763  20.703  23.576 -0.0618 -0.0804 -0.2282
60026DOD     C223898  19.652  21.137  23.430 -0.0567 -0.1326  0.1938
60026DOD     C323899  19.783  21.313  23.034 -0.0087  0.0063 -0.0414
60027DOD     C123900  10.336  20.304  15.530  0.3712 -0.0146  0.2522
60027DOD     C223901  10.467  20.345  15.157 -0.0299 -0.0484 -0.3654
60027DOD     C323902  10.752  20.257  14.807  0.2404 -0.0494  0.3409
60028DOD     C123903   0.070   2.926   1.952 -0.1812  0.3957  0.2055
60028DOD     C223904   0.285   2.636   2.233 -0.0711 -0.0355 -0.0074
60028DOD     C323905   0.118   2.567   2.654  0.0776 -0.0816  0.1218
60029DOD     C123906  10.925   4.759  28.647 -0.2787  0.0069 -0.2161
60029DOD     C223907  10.490   4.827  28.502  0.0798  0.4243  0.0015
60029DOD     C323908  10.044   4.975  28.359  0.3219  0.2685  0.1074
60030DOD     C123909   8.754  13.680   6.595  0.0330 -0.0145 -0.1003
60030DOD     C223910   8.757  13.614   7.061 -0.2481 -0.0024 -0.0006
60030DOD     C323911   9.077  13.525   7.438  0.1305 -0.1973 -0.0752
60031DOD     C123912   6.533  24.652   0.282 -0.0306  0.0526  0.0871
60031DOD     C223913   6.863  24.538  30.268 -0.0139 -0.2049 -0.0387
60031DOD     C323914   7.250  24.287  30.067  0.4637 -0.1329 -0.0973
60032DOD     C123915  13.633   6.086  19.828 -0.2529 -0.0132 -0.5580
60032DOD     C223916  13.574   5.615  19.796  0.0388 -0.1435 -0.0982
60032DOD     C323917  13.644   5.302  19.468 -0.0090 -0.2089  0.0546
60033DOD     C123918   2.638  20.602  30.051  0.4430 -0.2287 -0.0669
60033DOD     C223919   2.669  20.974  29.711  0.1481  0.0995 -0.0971
60033DOD     C323920   2.704  21.030  29.229  0.0355 -0.0623 -0.4495
60034DOD     C123921  29.951   4.270  17.496  0.0726  0.0425 -0.2647
60034DOD     C223922  30.041   4.142  17.962 -0.1294 -0.1826 -0.0111
60034DOD     C323923  29.824   4.160  18.415 -0.0434  0.2969 -0.0905
60035DOD     C123924   2.500  20.231  19.849  0.1223 -0.1422 -0.0881
60035DOD     C223925   2.341  20.066  19.402 -0.1881 -0.0582  0.2224
60035DOD     C323926   2.024  19.795  19.211  0.2523  0.0269  0.0584
60036DOD     C123927  28.082   2.213  25.033  0.0438 -0.1227 -0.0008
60036DOD     C223928  27.646   2.195  25.236 -0.4020  0.1043 -0.0127
60036DOD     C323929  27.213   2.323  25.095 -0.2904 -0.2393  0.3321
60037DOD     C123930  13.553   6.335  16.813 -0.0370 -0.1507  0.2200
60037DOD     C223931  13.312   5.887  16.841 -0.3504  0.1031 -0.3171
60037DOD     C323932  13.023   5.698  16.505 -0.1117  0.0956  0.2649
60038DOD     C123933  17.372   1.147  24.862 -0.0179  0.3404 -0.0692
60038DOD     C223934  17.327   1.256  24.392 -0.0003  0.0716  0.1076
60038DOD     C323935  17.398   1.342  23.982  0.2136 -0.5874  0.5333
60039DOD     C123936  17.355   9.580  19.757 -0.1168 -0.1940 -0.1902
60039DOD     C223937  17.786   9.311  19.681  0.1103 -0.3889  0.0098
60039DOD     C323938  18.201   9.272  19.746  0.0066  0.2672  0.1858
60040DOD     C123939  12.271  16.739  10.244 -0.2407 -0.0921 -0.0657
60040DOD     C223940  11.880  16.802  10.421  0.0183 -0.0154  0.0705
60040DOD     C323941  11.661  16.705  10.799  0.3351  0.4833  0.0194
60041DOD     C123942   7.699  17.448   9.642 -0.1213 -0.0916  0.0069
60041DOD     C223943   7.395  17.721   9.909  0.0136  0.1440  0.1561
60041DOD     C323944   7.264  17.885  10.321  0.0304 -0.0189  0.2051
60042DOD     C123945   2.429  28.467  10.844 -0.0255  0.0595 -0.1138
60042DOD     C223946   2.049  28.691  11.040  0.2311  0.1627  0.0437
60042DOD     C323947   2.026  29.107  10.884  0.0954 -0.0578 -0.0472
60043DOD     C123948  18.140   8.730  25.776  0.0248 -0.0474 -0.1773
60043DOD     C223949  18.232   8.411  26.092  0.2201 -0.0340 -0.0007
60043DOD     C323950  18.400   7.962  26.202  0.0537  0.0423  0.0682
60044DOD     C123951  15.380  29.542  18.699 -0.0887 -0.0290  0.2870
60044DOD     C223952  15.538  29.965  18.806 -0.0994 -0.0522  0.2798
60044DOD     C323953  15.669   0.132  18.774  0.0366  0.0166  0.0762
60045DOD     C123954  12.390  11.724  15.159 -0.1504  0.1005  0.2840
60045DOD     C223955  12.328  11.861  15.585  0.1967 -0.1747  0.0034
60045DOD     C323956  12.212  11.667  16.035  0.1130 -0.0031  0.0672
60046DOD     C123957  11.599  23.608  26.353 -0.3106 -0.0510 -0.1077
60046DOD     C223958  12.072  23.654  26.089  0.0669 -0.1442  0.5253
60046DOD     C323959  12.512  23.569  25.886 -0.1177  0.1065  0.0955
60047DOD     C123960  23.210  14.976  15.542 -0.1260 -0.0488  0.2297
60047DOD     C223961  22.821  14.912  15.802  0.0724 -0.0125 -0.2266
60047DOD     C323962  22.540  15.158  16.102 -0.0287  0.3861  0.4619
60048DOD     C123963  20.023  22.742   7.774  0.1894 -0.1255  0.0921
60048DOD     C223964  20.472  22.731   7.850  0.3368  0.5603  0.3873
60048DOD     C323965  20.860  22.485   7.854 -0.0193  0.3114  0.1089
60049DOD     C123966  12.924  28.331   3.093  0.0068 -0.0763  0.0107
60049DOD     C223967  13.317  28.500   3.308 -0.2023 -0.0415  0.1699
60049DOD     C323968  13.386  28.593   3.747  0.1289  0.1483 -0.0490
60050DOD     C123969  28.273   8.359  25.836 -0.1630  0.0831 -0.0789
60050DOD     C223970  28.056   7.946  25.751  0.0895  0.2073  0.0789
60050DOD     C323971  27.622   7.792  25.761 -0.3051  0.2068 -0.3369
60051DOD     C123972  18.547  25.521  11.961 -0.2170 -0.2668  0.1766
60051DOD     C223973  18.166  25.237  11.946  0.1282  0.0314 -0.0540
60051DOD     C323974  17.758  25.030  12.065  0.0840  0.0611 -0.0998
60052DOD     C123975  24.602  11.656  16.652  0.0057  0.0063  0.1200
60052DOD     C223976  24.877  11.487  16.981 -0.1196 -0.0261  0.3578
60052DOD     C323977  24.960  11.451  17.434  0.0756  0.1280 -0.3724
60053DOD     C123978  12.932  23.952  16.976  0.0198 -0.0238  0.4227
60053DOD     C223979  13.096  24.170  16.588 -0.1044 -0.1566 -0.3156
60053DOD     C323980  13.158  24.352  16.114 -0.2054  0.0107 -0.0920
60054DOD     C123981  26.295  22.865   8.437  0.1137 -0.1448  0.0196
60054DOD     C223982  26.173  22.728   8.890 -0.0552 -0.0479  0.2264
60054DOD     C323983  26.448  22.371   8.996 -0.1521 -0.0282  0.0942
60055DOD     C123984   6.420  24.702  19.425  0.3064 -0.0018 -0.0521
60055DOD     C223985   6.712  24.449  19.719 -0.1393  0.1121 -0.0977
60055DOD     C323986   6.903  24.441  20.205  0.3767 -0.0379 -0.1545
60056DOD     C123987   6.170   1.046  26.497 -0.0090  0.1719 -0.3542
60056DOD     C223988   6.312   0.565  26.639 -0.2036  0.0996  0.1277
60056DOD     C323989   6.167   0.335  26.979  0.0676 -0.3588  0.0769
60057DOD     C123990   8.592  18.446   4.521 -0.2094 -0.1106 -0.4155
60057DOD     C223991   8.685  18.042   4.757  0.2167  0.3735 -0.1019
60057DOD     C323992   8.840  18.054   5.239  0.1354 -0.0270  0.1881
60058DOD     C123993   2.284  23.838   5.073  0.0508 -0.1085  0.3437
60058DOD     C223994   2.496  23.441   5.147  0.0530  0.0932  0.1021
60058DOD     C323995   2.737  23.069   5.050  0.0804  0.0771 -0.0936
60059DOD     C123996  18.599   0.567  22.834  0.0676  0.1637 -0.1994
60059DOD     C223997  18.368   0.535  23.282  0.4418  0.0006  0.2359
60059DOD     C323998  18.489   0.654  23.652 -0.1650 -0.0704 -0.1183
60060DOD     C123999  20.070   5.287   0.237 -0.0199 -0.1190 -0.0020
60060DOD     C224000  20.429   5.251  30.289 -0.1468 -0.2025  0.4631
60060DOD     C324001  20.603   5.011  29.880  0.3418 -0.3006  0.0387
60061DOD     C124002   0.594   8.132  10.443 -0.1857  0.1600  0.0445
60061DOD     C224003   1.028   7.951  10.389  0.2097  0.1687 -0.0407
60061DOD     C324004   1.364   8.002  10.049 -0.1856  0.2344 -0.4390
60062DOD     C124005  14.410   0.770   0.120  0.3078 -0.2534  0.3982
60062DOD     C224006  14.724   0.459  30.272 -0.2707 -0.1506 -0.0115
60062DOD     C324007  15.168   0.305   0.043 -0.3857 -0.0479 -0.0761
60063DOD     C124008  10.834   9.118  22.690 -0.0989 -0.1294 -0.3248
60063DOD     C224009  11.045   9.360  22.958 -0.2694  0.0217  0.0245
60063DOD     C324010  11.160   9.827  22.900  0.1145  0.1532  0.0849
60064DOD     C124011  26.086  27.841  15.620  0.1288  0.0656 -0.2322
60064DOD     C224012  26.545  27.702  15.561 -0.2690 -0.0066 -0.1136
60064DOD     C324013  26.986  27.457  15.536 -0.0068 -0.2744  0.0265
60065DOD     C124014  28.768  14.447   6.492 -0.0284 -0.0393 -0.1899
60065DOD     C224015  28.393  14.670   6.359 -0.3670 -0.0455 -0.0845
60065DOD     C324016  27.940  14.542   6.295  0.0562  0.0041  0.0226
60066DOD     C124017  11.554  18.758  10.003  0.0957  0.0168 -0.1675
60066DOD     C224018  11.607  19.080   9.729  0.1917  0.0448 -0.0031
60066DOD     C324019  11.748  19.493   9.585  0.2739  0.3029  0.0283
60067DOD     C124020  24.223  26.362  21.787  0.1185  0.0213 -0.2016
60067DOD     C224021  23.952  26.639  22.084 -0.0726 -0.0038  0.2456
60067DOD     C324022  23.740  27.033  22.237 -0.1702 -0.1291 -0.1011
60068DOD     C124023  15.467   9.361   8.203  0.0569  0.1455 -0.2215
60068DOD     C224024  15.641   9.700   8.473  0.0560 -0.1323 -0.0780
60068DOD     C324025  15.969   9.858   8.723 -0.1177 -0.0512 -0.2203
60069DOD     C124026  27.454  11.496  10.172  0.3860 -0.1774  0.0919
60069DOD     C224027  27.316  11.083  10.270  0.0046 -0.0494 -0.0461
60069DOD     C324028  27.523  10.670  10.207  0.1126  0.0069 -0.2658
60070DOD     C124029  22.620  23.274  20.870 -0.0906 -0.3179 -0.0673
60070DOD     C224030  22.197  23.101  20.766 -0.2699  0.0093  0.1594
60070DOD     C324031  21.801  22.771  20.667 -0.1027 -0.2230  0.0034
60071DOD     C124032  26.528  26.955   2.045 -0.1496 -0.0410  0.2432
60071DOD     C224033  26.817  26.692   2.299  0.1158 -0.2455 -0.3482
60071DOD     C324034  26.769  26.626   2.752 -0.4394  0.1473 -0.1505
60072DOD     C124035  10.515  17.683   2.851  0.4608  0.1413 -0.2851
60072DOD     C224036  10.192  17.384   2.781 -0.0514  0.1638 -0.0743
60072DOD     C324037   9.886  17.035   2.780  0.5797 -0.1323 -0.0748
60073DOD     C124038  27.644   2.542   9.999  0.0672  0.1723 -0.0711
60073DOD     C224039  27.210   2.387   9.779 -0.3037 -0.0435  0.1620
60073DOD     C324040  26.992   2.296   9.446  0.0856  0.3355  0.0866
60074DOD     C124041   1.302   6.165  29.924  0.1615  0.1739  0.1894
60074DOD     C224042   1.611   6.372  29.644 -0.1028 -0.0281 -0.3160
60074DOD     C324043   1.687   6.566  29.188  0.0807  0.1961  0.1879
60075DOD     C124044  28.286  29.158  10.362  0.0786 -0.1574  0.0259
60075DOD     C224045  27.853  29.256  10.415 -0.0749  0.1871  0.0785
60075DOD     C324046  27.715  29.314  10.843  0.3499  0.2957 -0.1683
60076DOD     C124047   9.325   4.517   3.967 -0.4929 -0.0158 -0.0481
60076DOD     C224048   8.857   4.572   4.060  0.1459 -0.3232 -0.0779
60076DOD     C324049   8.565   4.918   4.096  0.0988  0.2338 -0.0187
60077DOD     C124050   5.316  19.510  12.958  0.2187 -0.1840  0.2412
60077DOD     C224051   4.986  19.465  12.616 -0.2381 -0.1838  0.1027
60077DOD     C324052   4.912  19.627  12.213 -0.0885  0.0441  0.1225
60078DOD     C124053  26.180  20.887  11.450 -0.0052  0.1380  0.0696
60078DOD     C224054  25.866  20.527  11.420  0.1669  0.0914 -0.3831
60078DOD     C324055  25.898  20.106  11.608  0.0208 -0.0071 -0.0144
60079DOD     C124056  23.537  27.053  12.212  0.1578 -0.0808  0.1646
60079DOD     C224057  23.882  27.368  12.098  0.0257  0.2321  0.0138
60079DOD     C324058  24.117  27.694  12.365 -0.2417 -0.2111  0.2183
60080DOD     C124059  26.695  19.008   8.086  0.0252 -0.4399 -0.0679
60080DOD     C224060  26.733  19.443   8.040 -0.1408 -0.1648 -0.0063
60080DOD     C324061  26.505  19.844   8.167  0.0293 -0.1795 -0.0648
60081DOD     C124062  13.595  15.589  18.996  0.1059 -0.0501 -0.0995
60081DOD     C224063  13.821  15.455  19.435 -0.1161  0.0951 -0.0108
60081DOD     C324064  14.215  15.369  19.697 -0.1599 -0.2182 -0.3689
60082DOD     C124065   0.248  17.928  14.211 -0.3068  0.4333  0.0886
60082DOD     C224066   0.543  17.890  14.605  0.1390 -0.0155 -0.2649
60082DOD     C324067   0.859  17.594  14.661 -0.0847 -0.1843  0.1700
60083DOD     C124068  15.521   0.834  26.904 -0.2834  0.1092  0.0607
60083DOD     C224069  15.623   0.435  27.089  0.1416 -0.0042 -0.3427
60083DOD     C324070  15.897   0.120  27.332 -0.2870 -0.1251 -0.1487
60084DOD     C124071   6.369   5.674  24.326 -0.0668  0.1615 -0.0095
60084DOD     C224072   6.738   5.802  24.538  0.1518  0.0865  0.1863
60084DOD     C324073   7.152   5.684  24.635 -0.1248  0.0755  0.1354
60085DOD     C124074  16.832  23.446  26.699  0.0276 -0.1070 -0.0622
60085DOD     C224075  16.604  23.076  26.931 -0.1416  0.1784 -0.2878
60085DOD     C324076  16.140  23.109  26.817  0.1034  0.3070 -0.1183
60086DOD     C124077  13.635  16.344  28.201  0.1356  0.0187  0.1011
60086DOD     C224078  13.495  16.626  27.896 -0.0113 -0.2766  0.1713
60086DOD     C324079  13.034  16.684  27.755 -0.1583 -0.0154  0.1231
60087DOD     C124080  19.319  20.345   8.542 -0.1372  0.1055  0.4155
60087DOD     C224081  19.676  20.683   8.469 -0.2572 -0.2440  0.0335
60087DOD     C324082  19.880  21.054   8.255 -0.1724  0.2294  0.1037
60088DOD     C124083  17.779  15.184   3.302 -0.4877  0.1491 -0.0858
60088DOD     C224084  17.434  15.053   3.061  0.0108 -0.0394  0.0547
60088DOD     C324085  17.247  15.352   2.791  0.1133 -0.0823 -0.0330
60089DOD     C124086   9.872  30.246  29.114 -0.0952 -0.0159 -0.0741
60089DOD     C224087   9.783   0.208  29.450  0.2025  0.1172 -0.1004
60089DOD     C324088  10.055   0.482  29.682  0.3030 -0.0727  0.0327
60090DOD     C124089  29.762  18.941  20.606  0.0400 -0.0929 -0.2163
60090DOD     C224090  29.982  18.861  20.189 -0.2071  0.2240  0.1860
60090DOD     C324091  29.868  18.494  19.873  0.1869 -0.0891 -0.1563
60091DOD     C124092  19.436   1.970  19.793  0.3560  0.0672  0.0403
60091DOD     C224093  19.479   1.674  19.432 -0.4150  0.0644  0.0716
60091DOD     C324094  19.693   1.626  19.032 -0.0468  0.1476  0.2086
60092DOD     C124095   8.312  24.389  25.115 -0.2456 -0.0600 -0.2937
60092DOD     C224096   8.442  24.668  25.501  0.0772 -0.0323 -0.0391
60092DOD     C324097   8.237  24.560  25.894 -0.0864 -0.1017 -0.1299
60093DOD     C124098   1.661   4.236  27.026  0.1329 -0.0287  0.0902
60093DOD     C224099   1.386   4.372  27.363  0.1016 -0.2282  0.1092
60093DOD     C324100   0.965   4.388  27.611  0.0494 -0.0200  0.1576
60094DOD     C124101   5.117  25.279  27.959 -0.4137  0.3318  0.0710
60094DOD     C224102   5.214  24.968  28.297  0.0067  0.2482  0.2931
60094DOD     C324103   5.476  24.659  28.603 -0.1817 -0.0349  0.1612
60095DOD     C124104   0.508  26.721  13.551  0.0690 -0.0473  0.3029
60095DOD     C224105   0.921  26.724  13.311  0.1741 -0.0404 -0.1649
60095DOD     C324106   1.135  26.688  12.906  0.0066 -0.3097 -0.0102
60096DOD     C124107  30.101   3.628   9.191  0.1904 -0.5091 -0.1425
60096DOD     C224108  29.814   3.670   9.598 -0.0996 -0.0827  0.1551
60096DOD     C324109  29.593   3.358   9.901  0.1234 -0.3281  0.1501
60097DOD     C124110  12.232  12.505  29.283  0.0835  0.0078  0.1743
60097DOD     C224111  12.502  12.124  29.085  0.0855 -0.0131 -0.0149
60097DOD     C324112  12.369  11.646  29.021  0.0397 -0.3598 -0.1985
60098DOD     C124113  26.287  14.589   2.050 -0.3152 -0.0644  0.2805
60098DOD     C224114  26.260  14.867   2.402 -0.1095 -0.0347 -0.0665
60098DOD     C324115  26.440  14.916   2.838  0.2432  0.2567 -0.2174
60099DOD     C124116  17.331   1.403  15.985  0.3449  0.2741 -0.0080
60099DOD     C224117  17.678   1.201  15.779  0.1087  0.0250 -0.1217
60099DOD     C324118  18.093   1.139  15.505  0.2194 -0.0369 -0.1302
60100DOD     C124119  19.561  16.613   9.750  0.3852  0.0561  0.0218
60100DOD     C224120  19.665  16.477   9.311 -0.1580 -0.2219  0.0690
60100DOD     C324121  19.855  16.085   9.154  0.2086  0.0745  0.0691
60101DOD     C124122  25.355   6.990  28.798 -0.1623  0.2915  0.0772
60101DOD     C224123  24.920   7.122  28.816 -0.0356  0.0990  0.2196
60101DOD     C324124  24.797   7.397  29.148  0.1251  0.1265  0.0613
60102DOD     C124125  24.024   6.188   5.021 -0.1270  0.3509  0.1902
60102DOD     C224126  24.273   6.487   5.271 -0.1732 -0.0344  0.4188
60102DOD     C324127  24.281   6.918   5.307 -0.0828  0.0818 -0.2955
60103DOD     C124128  21.895   8.666  22.333  0.1721  0.0741 -0.3388
60103DOD     C224129  21.775   8.285  22.488  0.0967  0.0475  0.0311
60103DOD     C324130  21.781   7.779  22.495  0.0007 -0.0658 -0.0093
60104DOD     C124131  10.498   9.878  29.290 -0.0853  0.1349 -0.0327
60104DOD     C224132  10.074   9.703  29.158 -0.2922 -0.1605  0.2205
60104DOD     C324133   9.677   9.938  29.237  0.0522 -0.0046 -0.6281
60105DOD     C124134  17.123   0.091  27.973  0.0936 -0.3692  0.3608
60105DOD     C224135  17.291   0.509  27.704  0.2450 -0.0682  0.0222
60105DOD     C324136  17.587   0.626  27.417 -0.0482  0.1518  0.1869
60106DOD     C124137  24.398   8.263   7.814  0.1547  0.2160 -0.2046
60106DOD     C224138  23.959   8.105   7.821  0.1885  0.1531 -0.0416
60106DOD     C324139  23.596   7.971   7.592  0.2317  0.1772 -0.1355
60107DOD     C124140   2.290  28.522  19.472  0.0908  0.3181  0.1238
60107DOD     C224141   2.427  28.196  19.824  0.0383  0.0052  0.2806
60107DOD     C324142   2.661  28.057  20.178  0.0583 -0.3915 -0.0551
60108DOD     C124143  21.651  12.269  15.980  0.2474  0.0205 -0.1057
60108DOD     C224144  21.837  11.884  16.054  0.2013 -0.1266  0.1142
60108DOD     C324145  21.819  11.447  16.118 -0.2513  0.1968  0.1474
60109DOD     C124146  22.419  23.328   9.648  0.3131  0.0904  0.0596
60109DOD     C224147  22.847  23.458   9.504  0.1724  0.1123 -0.0897
60109DOD     C324148  23.313  23.259   9.498 -0.1353  0.4049 -0.0922
60110DOD     C124149  11.370  18.199  14.952 -0.3057  0.1489  0.0845
60110DOD     C224150  11.784  18.314  14.768  0.1605 -0.3478  0.4461
60110DOD     C324151  12.244  18.223  14.673 -0.3408  0.0058  0.3786
60111DOD     C124152   4.853  24.507  27.608 -0.1757 -0.1043  0.1042
60111DOD     C224153   4.411  24.528  27.435  0.1677  0.0786 -0.2680
60111DOD     C324154   4.207  24.744  27.138 -0.2087  0.0858 -0.1083
60112DOD     C124155  12.661  30.172  12.376  0.1990  0.0003 -0.1491
60112DOD     C224156  12.446  30.145  12.781  0.2386 -0.1143  0.3584
60112DOD     C324157  12.410   0.030  13.260 -0.1100 -0.0692  0.2775
60113DOD     C124158   2.033  20.277  28.306  0.1546  0.2615  0.2264
60113DOD     C224159   2.014  20.151  28.742 -0.3149 -0.0929 -0.4602
60113DOD     C324160   2.073  20.198  29.235 -0.2725  0.1017 -0.2823
60114DOD     C124161  13.206  17.148   1.194 -0.2412  0.2970 -0.0523
60114DOD     C224162  12.886  17.427   1.295  0.2774  0.0533  0.0202
60114DOD     C324163  12.573  17.383   1.604  0.0281  0.0047 -0.1875
60115DOD     C124164  14.616  12.997  19.205 -0.2110  0.1570 -0.1374
60115DOD     C224165  14.333  12.638  19.223  0.0636 -0.0252  0.1386
60115DOD     C324166  13.908  12.380  19.290 -0.2057  0.1005  0.1296
60116DOD     C124167  11.880   3.754   9.519 -0.2416 -0.1484 -0.3186
60116DOD     C224168  11.924   4.033   9.929  0.0018  0.0485  0.1628
60116DOD     C324169  12.407   4.002  10.109  0.0855  0.0671  0.2404
60117DOD     C124170  26.058  15.587  28.669  0.1591  0.3013  0.1495
60117DOD     C224171  26.007  15.722  28.218  0.0098 -0.2600 -0.2111
60117DOD     C324172  26.109  15.840  27.773 -0.0547 -0.1004 -0.2433
60118DOD     C124173  11.034  14.471  24.988  0.2345 -0.0621  0.2428
60118DOD     C224174  11.362  14.778  25.001  0.2944  0.0359 -0.0673
60118DOD     C324175  11.561  15.129  25.228  0.1791  0.0437  0.0721
60119DOD     C124176  23.847  11.686  20.181  0.1285  0.0385 -0.1436
60119DOD     C224177  24.057  11.673  20.624 -0.0040  0.1885  0.2178
60119DOD     C324178  24.445  11.788  20.750 -0.0896 -0.0841 -0.0481
60120DOD     C124179   6.635  21.352  24.477  0.0030  0.0499  0.2331
60120DOD     C224180   6.154  21.403  24.386  0.0532 -0.0838 -0.2359
60120DOD     C324181   5.775  21.121  24.533 -0.2981 -0.1509  0.2301
60121DOD     C124182  17.082  11.430  22.914 -0.0468 -0.2315  0.2660
60121DOD     C224183  16.671  11.463  23.156  0.0634 -0.1023 -0.0929
60121DOD     C324184  16.276  11.332  23.392  0.1372 -0.2023  0.0155
60122DOD     C124185  28.162  21.868  13.803  0.0751 -0.0362  0.1616
60122DOD     C224186  27.896  21.990  13.490 -0.1562  0.2137  0.0087
60122DOD     C324187  27.828  22.395  13.301  0.0186  0.0424 -0.0701
60123DOD     C124188  25.970   1.309  23.039  0.1437  0.0254  0.3779
60123DOD     C224189  25.989   1.569  22.698  0.1482 -0.0242 -0.0306
60123DOD     C324190  26.193   1.940  22.483 -0.4145 -0.1817  0.1586
60124DOD     C124191  11.124   8.571  29.861  0.0853  0.0287 -0.1161
60124DOD     C224192  10.991   8.717  29.446 -0.1152 -0.2048 -0.0251
60124DOD     C324193  10.757   8.918  29.118 -0.1524 -0.0357 -0.1015
60125DOD     C124194  29.299  26.592  10.075 -0.1250 -0.0171  0.1765
60125DOD     C224195  29.482  26.258   9.781  0.0568  0.0323  0.0508
60125DOD     C324196  29.857  26.039   9.530 -0.0746  0.1083  0.2974
60126DOD     C124197   9.491  10.409  29.187  0.0465 -0.3835 -0.2882
60126DOD     C224198   9.159  10.340  29.508  0.1140 -0.0712 -0.2774
60126DOD     C324199   9.114  10.210  29.974  0.1338 -0.0706  0.0524
60127DOD     C124200  29.192  10.039   5.874  0.2747 -0.1276  0.1278
60127DOD     C224201  29.460  10.434   5.834 -0.0291  0.1742  0.2300
60127DOD     C324202  29.876  10.601   5.984  0.2111  0.3037  0.0955
60128DOD     C124203  22.312  19.746   4.182 -0.1287 -0.2348 -0.0348
60128DOD     C224204  22.793  19.823   4.188 -0.0359  0.1968  0.2424
60128DOD     C324205  22.890  19.772   4.617  0.3450  0.0195  0.1221
60129DOD     C124206  15.434  14.089   0.764  0.1925  0.1040 -0.0867
60129DOD     C224207  15.152  14.120   0.398 -0.0864 -0.4059  0.1735
60129DOD     C324208  14.707  14.145   0.251 -0.0743  0.1266 -0.0600
60130DOD     C124209  27.010  26.359   3.140  0.1373  0.0506  0.1283
60130DOD     C224210  26.649  26.090   3.035 -0.0689  0.3331  0.0649
60130DOD     C324211  26.238  26.035   2.786 -0.0800 -0.0645 -0.1194
60131DOD     C124212   4.125  22.883  13.154 -0.2134 -0.1203  0.1012
60131DOD     C224213   4.229  23.324  13.260  0.1411 -0.0673  0.0206
60131DOD     C324214   4.408  23.563  13.586  0.0695 -0.1269 -0.0376
60132DOD     C124215   9.860   2.779   4.991  0.0714  0.1275 -0.3643
60132DOD     C224216   9.613   2.743   4.588 -0.2188  0.1319 -0.0042
60132DOD     C324217   9.210   2.816   4.400  0.1121 -0.0233  0.0945
60133DOD     C124218   8.372  17.664  23.273 -0.2423 -0.0985 -0.0919
60133DOD     C224219   8.122  17.446  23.682 -0.0193 -0.0932  0.2880
60133DOD     C324220   7.960  17.140  24.005 -0.0291  0.0153 -0.1324
60134DOD     C124221   7.659   6.845  21.497 -0.2917 -0.0299 -0.1286
60134DOD     C224222   7.247   7.136  21.687 -0.1245  0.1741 -0.0295
60134DOD     C324223   7.211   6.961  22.109  0.1042 -0.0451 -0.0399
60135DOD     C124224  15.312  16.673  28.697 -0.0067  0.0688  0.1371
60135DOD     C224225  15.078  16.654  29.060 -0.1244 -0.0804  0.0819
60135DOD     C324226  15.052  16.333  29.407 -0.0510 -0.1107 -0.0567
60136DOD     C124227  19.918   9.218  18.258 -0.0048 -0.1303 -0.2135
60136DOD     C224228  20.122   8.868  18.603 -0.3163  0.2277  0.4637
60136DOD     C324229  20.329   8.447  18.690  0.0491  0.1872  0.0884
60137DOD     C124230  10.188  14.141  27.786 -0.0483  0.1225  0.1680
60137DOD     C224231  10.494  14.067  27.423  0.3035 -0.1947 -0.0868
60137DOD     C324232  10.887  13.865  27.390  0.2797 -0.1381 -0.0603
60138DOD     C124233  10.111  28.143  11.261  0.1531  0.1661 -0.0703
60138DOD     C224234  10.058  27.868  11.606 -0.0494  0.0445  0.2809
60138DOD     C324235  10.262  27.490  11.692 -0.2865  0.1687 -0.1739
60139DOD     C124236   6.527  29.321   6.000 -0.0682  0.2181 -0.0989
60139DOD     C224237   6.694  29.777   5.960 -0.1507  0.1834 -0.5847
60139DOD     C324238   6.903  30.078   5.717  0.0873 -0.2207 -0.1368
60140DOD     C124239  11.843  28.443  28.866 -0.1628  0.0253  0.2449
60140DOD     C224240  12.243  28.591  28.797  0.2433 -0.2995 -0.0975
60140DOD     C324241  12.706  28.518  28.578 -0.1795  0.0227 -0.2151
60141DOD     C124242  18.750  13.808  15.265 -0.1513  0.0816 -0.0957
60141DOD     C224243  18.386  13.583  15.205 -0.0955  0.0766 -0.2797
60141DOD     C324244  17.926  13.598  15.340 -0.0568 -0.1165 -0.1153
60142DOD     C124245   8.921  27.911  26.715  0.1041 -0.2826  0.1976
60142DOD     C224246   9.115  27.829  26.300  0.0118  0.1244  0.1607
60142DOD     C324247   9.342  27.756  25.870 -0.1119 -0.1356  0.1034
60143DOD     C124248   1.466  13.016   1.115  0.0917 -0.0618  0.1226
60143DOD     C224249   1.715  13.280   1.456 -0.0234  0.1371  0.1649
60143DOD     C324250   2.109  13.351   1.612  0.0593  0.0216 -0.2224
60144DOD     C124251  28.088  14.072  12.112 -0.0367  0.0633 -0.0099
60144DOD     C224252  27.811  14.205  12.506 -0.2008  0.0553  0.1262
60144DOD     C324253  27.714  13.944  12.846 -0.0928  0.0255  0.2107
60145DOD     C124254  23.949  29.799   0.171  0.1032  0.2013  0.0142
60145DOD     C224255  23.692  29.419  30.272 -0.1760  0.2593 -0.2031
60145DOD     C324256  23.817  28.995  30.181 -0.0657 -0.0751 -0.2116
60146DOD     C124257   5.862  19.518   1.784 -0.0351 -0.1520 -0.0442
60146DOD     C224258   5.676  19.126   1.846 -0.1271 -0.3874 -0.0533
60146DOD     C324259   5.416  18.723   1.926  0.0782 -0.0592 -0.0869
60147DOD     C124260  23.708   3.387   9.666 -0.2912  0.2205  0.2046
60147DOD     C224261  23.788   2.892   9.592 -0.0735  0.1027  0.2068
60147DOD     C324262  23.739   2.432   9.526  0.0092  0.3907 -0.0070
60148DOD     C124263  10.334   5.355  23.110 -0.0200 -0.2140 -0.1540
60148DOD     C224264   9.980   5.497  23.300 -0.0357  0.0488  0.1199
60148DOD     C324265   9.714   5.916  23.295 -0.0674 -0.2012 -0.1952
60149DOD     C124266  30.013   5.288  28.486  0.1480  0.1411  0.2990
60149DOD     C224267   0.097   5.259  28.312  0.1611  0.0272  0.0945
60149DOD     C324268   0.241   5.235  27.859  0.1519 -0.0399 -0.2205
60150DOD     C124269  27.940   6.970   3.103  0.3773  0.2613  0.0417
60150DOD     C224270  28.022   7.371   3.289 -0.0022  0.3572  0.0246
60150DOD     C324271  28.116   7.771   3.533  0.0048  0.1761  0.0996
60151DOD     C124272   7.296  13.336   5.292  0.1739  0.1569  0.0908
60151DOD     C224273   7.540  13.102   5.573  0.0354  0.6408 -0.3136
60151DOD     C324274   7.919  12.792   5.643 -0.1045 -0.1533 -0.1847
60152DOD     C124275  27.569   6.571   7.658  0.2251 -0.0506  0.0247
60152DOD     C224276  27.200   6.285   7.544 -0.0110  0.2138  0.1106
60152DOD     C324277  26.803   6.034   7.569 -0.1481  0.0157 -0.2094
60153DOD     C124278  13.945   5.172  23.345 -0.3996  0.2372  0.1683
60153DOD     C224279  13.985   4.755  23.566 -0.0169 -0.0176 -0.2397
60153DOD     C324280  14.158   4.706  23.945 -0.0718  0.0848  0.5200
60154DOD     C124281   6.367  28.589  24.554  0.0360 -0.2119  0.0404
60154DOD     C224282   6.062  28.211  24.502 -0.0314  0.0322  0.1181
60154DOD     C324283   5.716  27.959  24.386 -0.0761 -0.0793 -0.1557
60155DOD     C124284  16.593  19.127   4.436  0.0079 -0.0383 -0.1163
60155DOD     C224285  16.264  18.951   4.646 -0.0508 -0.1179  0.2209
60155DOD     C324286  16.336  18.830   5.105 -0.0004  0.3213  0.0918
60156DOD     C124287   8.700  10.128  12.610  0.1418  0.1538 -0.2042
60156DOD     C224288   8.857   9.692  12.765 -0.0631  0.0113 -0.0664
60156DOD     C324289   8.969   9.259  12.897 -0.2360 -0.0057 -0.1514
60157DOD     C124290   8.445  29.640   7.395  0.3515 -0.0922  0.0983
60157DOD     C224291   8.550  29.626   7.021  0.0191 -0.0334  0.1084
60157DOD     C324292   8.891  29.661   6.790 -0.1055 -0.2508  0.3727
60158DOD     C124293   2.980  29.134  19.128 -0.2183  0.4227 -0.2573
60158DOD     C224294   3.066  29.472  18.809 -0.2872  0.3817  0.1084
60158DOD     C324295   2.817  29.823  18.582  0.2806 -0.0202 -0.0761
60159DOD     C124296   0.996   7.663  29.908  0.3053 -0.0125  0.1161
60159DOD     C224297   0.759   7.260  29.832 -0.0115  0.1157  0.1536
60159DOD     C324298   0.722   6.852  30.080  0.1083  0.2036 -0.0850
60160DOD     C124299  29.521   1.515   9.226 -0.0664 -0.0857 -0.0297
60160DOD     C224300  29.719   1.172   9.542  0.0015  0.0627  0.2567
60160DOD     C324301  30.128   1.089   9.654 -0.1137 -0.2222 -0.1402
60161DOD     C124302   1.301   9.037  11.125  0.1911  0.3557 -0.0920
60161DOD     C224303   1.273   9.517  11.171  0.4645 -0.1332  0.0891
60161DOD     C324304   1.229   9.937  10.973 -0.0346 -0.0710  0.0018
60162DOD     C124305  26.122  29.932  22.706  0.0390 -0.2015 -0.0291
60162DOD     C224306  26.153  29.647  23.121  0.1307  0.2672  0.0444
60162DOD     C324307  26.053  29.266  23.393 -0.0644 -0.3232  0.1297
60163DOD     C124308  23.858  24.050  28.155  0.0097  0.0083  0.1944
60163DOD     C224309  24.038  24.308  27.871 -0.0510 -0.2113 -0.0868
60163DOD     C324310  24.230  24.600  27.516  0.0210 -0.0357  0.3018
60164DOD     C124311   6.512  17.254  18.919  0.2878 -0.0900  0.1559
60164DOD     C224312   6.437  16.946  18.675  0.1108 -0.0504 -0.3251
60164DOD     C324313   6.372  16.679  18.287 -0.0263  0.2479 -0.0358
60165DOD     C124314  18.266  23.819  17.191  0.1682  0.0048 -0.2979
60165DOD     C224315  17.869  23.757  16.928 -0.0536 -0.1158 -0.1657
60165DOD     C324316  17.656  23.489  16.683 -0.1391  0.1219 -0.1378
60166DOD     C124317  18.534   2.551  25.255 -0.0405 -0.0462 -0.2843
60166DOD     C224318  18.834   2.215  25.256 -0.1353 -0.0694  0.3012
60166DOD     C324319  18.852   1.842  25.535 -0.1663 -0.1112  0.1882
60167DOD     C124320  21.848  10.972   5.329 -0.0440  0.0651 -0.0616
60167DOD     C224321  21.685  11.192   4.943 -0.1841  0.5021 -0.0453
60167DOD     C324322  21.767  11.538   4.601  0.1648  0.5574  0.1340
60168DOD     C124323   9.682  16.325  28.074 -0.0903 -0.1638 -0.1994
60168DOD     C224324   9.422  16.113  27.677 -0.1999 -0.0177 -0.0538
60168DOD     C324325   9.489  15.890  27.266  0.0945  0.2779  0.0991
60169DOD     C124326   0.334   3.212   1.456  0.0008 -0.1229  0.0396
60169DOD     C224327   0.459   3.164   1.029 -0.0938 -0.1290 -0.1802
60169DOD     C324328   0.519   3.353   0.616 -0.2550  0.1025 -0.0028
60170DOD     C124329   5.974  11.704  15.552  0.2443 -0.0799  0.2285
60170DOD     C224330   5.595  11.592  15.341 -0.0605 -0.2641  0.0378
60170DOD     C324331   5.285  11.457  15.019 -0.1384  0.2407 -0.0332
60171DOD     C124332   8.175   0.502   5.054  0.0351 -0.0738  0.1018
60171DOD     C224333   8.483   0.740   5.169 -0.0559  0.0244 -0.0182
60171DOD     C324334   8.940   0.705   5.189  0.0759 -0.1855 -0.0576
60172DOD     C124335   7.608  12.329  23.369  0.0325  0.1197  0.0576
60172DOD     C224336   7.601  12.712  23.086  0.1651 -0.0206 -0.2167
60172DOD     C324337   7.330  13.053  22.824 -0.2367 -0.1832 -0.2886
60173DOD     C124338  21.357  26.422  13.714  0.5130  0.5955  0.2852
60173DOD     C224339  21.102  26.579  14.035 -0.2115 -0.2690 -0.2407
60173DOD     C324340  21.025  26.387  14.468  0.2747 -0.2937  0.3677
60174DOD     C124341  26.720  23.747  21.835 -0.2748  0.0213  0.1380
60174DOD     C224342  26.644  24.170  21.823  0.2656  0.2340 -0.0713
60174DOD     C324343  26.715  24.536  21.587 -0.0848 -0.2413 -0.1386
60175DOD     C124344   1.579   6.790  11.654 -0.2565  0.1367  0.0976
60175DOD     C224345   1.648   6.989  12.063  0.3553  0.0289  0.0680
60175DOD     C324346   1.704   6.892  12.540  0.3394  0.0767 -0.0431
60176DOD     C124347  18.960   7.204  23.575 -0.1076 -0.2891  0.1225
60176DOD     C224348  19.308   7.153  23.821  0.0125 -0.0917 -0.0260
60176DOD     C324349  19.786   7.151  23.876  0.0395  0.1466 -0.1195
60177DOD     C124350   3.760   1.045  10.567 -0.1785  0.2168  0.1825
60177DOD     C224351   3.659   0.825  10.981  0.2811 -0.2765  0.0445
60177DOD     C324352   3.596   1.127  11.361  0.2922  0.1107  0.2463
60178DOD     C124353   7.879  24.388  30.225  0.2381  0.0459  0.2357
60178DOD     C224354   8.376  24.241  30.183 -0.1702  0.1039  0.1031
60178DOD     C324355   8.744  23.981  29.927  0.3201  0.0857 -0.3056
60179DOD     C124356   7.278  26.061  13.162  0.2095 -0.7371  0.1047
60179DOD     C224357   7.355  25.701  13.418  0.4302 -0.0323  0.2140
60179DOD     C324358   7.323  25.311  13.643 -0.0518  0.1090  0.2651
60180DOD     C124359   2.931  17.999  29.690  0.2530 -0.4533 -0.0613
60180DOD     C224360   3.072  18.369  29.372 -0.0806  0.0393  0.0833
60180DOD     C324361   3.128  18.676  29.088  0.0158 -0.1431 -0.1024
60181DOD     C124362   0.946  20.417  29.327 -0.0945 -0.0161 -0.0015
60181DOD     C224363   0.800  20.036  29.403 -0.1884  0.0253 -0.2588
60181DOD     C324364   0.494  19.757  29.210 -0.1478  0.3650  0.2030
60182DOD     C124365  28.220   0.576   7.198 -0.2791 -0.0669  0.2963
60182DOD     C224366  28.327   0.500   7.618  0.0790  0.3846  0.3847
60182DOD     C324367  28.211   0.213   7.949 -0.1321 -0.0553 -0.4145
60183DOD     C124368   2.533  19.366   5.814  0.0119 -0.4824  0.2448
60183DOD     C224369   2.759  19.741   5.978  0.0191  0.0032  0.0461
60183DOD     C324370   2.888  20.119   6.281  0.3675 -0.1114  0.0842
60184DOD     C124371  27.948  20.784   6.202  0.1123  0.0623 -0.1903
60184DOD     C224372  28.386  20.602   6.248  0.0063 -0.1601  0.0257
60184DOD     C324373  28.677  20.238   6.469 -0.1350 -0.0311 -0.1492
60185DOD     C124374   1.342  18.163   7.754  0.0121  0.1284  0.3902
60185DOD     C224375   1.786  18.188   7.663  0.1968  0.0524 -0.1787
60185DOD     C324376   2.070  17.851   7.882  0.0944  0.1690 -0.3202
60186DOD     C124377  24.251  19.577  22.192 -0.0814  0.0350 -0.0524
60186DOD     C224378  24.549  19.763  21.864  0.0903  0.0429  0.0168
60186DOD     C324379  24.734  19.537  21.474  0.1318 -0.3314 -0.3662
60187DOD     C124380  16.345  15.375   3.641  0.0523 -0.1809  0.0486
60187DOD     C224381  16.547  15.013   3.897 -0.2530  0.0790  0.5178
60187DOD     C324382  16.756  14.647   3.731  0.0358 -0.0551 -0.0557
60188DOD     C124383  18.047  21.795   4.282  0.0233 -0.0262  0.1965
60188DOD     C224384  17.777  22.194   4.293  0.0723  0.1124 -0.0744
60188DOD     C324385  17.724  22.606   4.039 -0.1149  0.1248 -0.2227
60189DOD     C124386  23.810   5.092  12.698  0.0365  0.0032 -0.0727
60189DOD     C224387  24.139   5.317  12.518 -0.0201  0.1398  0.1271
60189DOD     C324388  24.528   5.607  12.502  0.2207  0.1893 -0.3003
60190DOD     C124389   0.404  23.176  13.342  0.1805  0.4534 -0.1608
60190DOD     C224390   0.739  22.958  13.134  0.3491  0.6972 -0.0985
60190DOD     C324391   1.082  22.641  13.135 -0.1126  0.5299  0.0415
60191DOD     C124392  23.924  27.411   7.665  0.1870 -0.3883 -0.0655
60191DOD     C224393  24.256  27.757   7.831  0.0069  0.2276  0.0789
60191DOD     C324394  24.560  28.106   7.779  0.2557  0.1254  0.3050
60192DOD     C124395  29.936  13.969  26.107 -0.3013 -0.0880 -0.2185
60192DOD     C224396  29.729  14.326  25.962  0.0007  0.2354  0.0616
60192DOD     C324397  29.475  14.729  25.843  0.2948  0.2113 -0.0539
60193DOD     C124398  11.228  18.585   5.967 -0.1021 -0.2791  0.1798
60193DOD     C224399  10.861  18.871   5.962 -0.1785  0.1248 -0.3273
60193DOD     C324400  10.409  18.924   5.912  0.4191  0.1416  0.2228
60194DOD     C124401  10.001   3.589  13.282  0.0243 -0.0004  0.1202
60194DOD     C224402  10.122   3.234  13.547  0.2947 -0.2523  0.2525
60194DOD     C324403  10.270   2.861  13.732  0.0026  0.0407 -0.0004
60195DOD     C124404  24.560  17.514  25.937  0.0078  0.1213 -0.3067
60195DOD     C224405  24.529  17.064  26.165  0.1001 -0.4472  0.0219
60195DOD     C324406  24.393  16.699  26.375 -0.2462 -0.2321 -0.3483
60196DOD     C124407   8.775   3.181  11.714 -0.0640 -0.2995  0.2399
60196DOD     C224408   8.804   3.543  12.028  0.0866 -0.2870  0.0277
60196DOD     C324409   8.398   3.747  12.148  0.0758 -0.0368 -0.3842
60197DOD     C124410   9.219  28.225   2.075  0.1849 -0.0118  0.1140
60197DOD     C224411   8.817  28.351   1.885  0.0565  0.0242  0.0304
60197DOD     C324412   8.496  28.713   1.752 -0.0700  0.1472 -0.1554
60198DOD     C124413  19.473  10.024   5.872  0.0095 -0.3316  0.0704
60198DOD     C224414  19.156   9.788   5.631  0.2321  0.3071 -0.0126
60198DOD     C324415  18.791  10.021   5.312 -0.0611  0.0220  0.0424
60199DOD     C124416   6.954  28.176  16.300  0.3690 -0.0223  0.0504
60199DOD     C224417   6.990  27.954  16.708 -0.1526  0.1195  0.2188
60199DOD     C324418   7.137  27.570  16.996 -0.2497 -0.1899 -0.2166
60200DOD     C124419  21.800   6.346  22.203  0.1736 -0.1918  0.3125
60200DOD     C224420  22.062   6.220  21.810 -0.0013 -0.1383  0.0475
60200DOD     C324421  22.413   6.311  21.528  0.0693 -0.1604  0.1544
60201DOD     C124422   1.357  23.689  20.205 -0.2285  0.3471  0.0152
60201DOD     C224423   1.725  23.544  19.979  0.2314  0.1216  0.2162
60201DOD     C324424   2.073  23.287  19.894  0.1436 -0.0313  0.1242
60202DOD     C124425  25.700  23.664  14.679  0.1441  0.1332  0.0203
60202DOD     C224426  25.716  23.789  15.129 -0.2331 -0.1457 -0.1495
60202DOD     C324427  25.671  24.039  15.554  0.2173 -0.1829  0.1634
60203DOD     C124428  22.355  14.698  26.509 -0.0202 -0.0662 -0.1084
60203DOD     C224429  21.960  14.718  26.253 -0.3020  0.1911  0.1234
60203DOD     C324430  21.881  14.961  25.862 -0.0119  0.0643  0.1038
60204DOD     C124431  29.039  21.554   6.467  0.4357 -0.0190 -0.0049
60204DOD     C224432  29.506  21.575   6.531 -0.1094 -0.1165  0.0015
60204DOD     C324433  29.799  21.248   6.713 -0.0141  0.2208  0.1298
60205DOD     C124434  14.936  17.949  28.596  0.1344  0.1246  0.0342
60205DOD     C224435  14.907  17.998  28.119  0.1855 -0.0696  0.1308
60205DOD     C324436  15.192  17.958  27.764 -0.3110 -0.1559  0.1476
60206DOD     C124437  28.590  16.540  11.375 -0.1082  0.2668  0.0561
60206DOD     C224438  29.031  16.678  11.260  0.0532 -0.0091  0.2730
60206DOD     C324439  29.352  16.978  11.033 -0.0767  0.1838 -0.1003
60207DOD     C124440  14.447  29.193  16.271 -0.3451 -0.4302  0.1792
60207DOD     C224441  14.590  28.842  16.605 -0.0668  0.2332 -0.0969
60207DOD     C324442  15.043  28.695  16.678  0.2388  0.0081 -0.0712
60208DOD     C124443   2.111   9.054   5.154  0.2093  0.2026 -0.0698
60208DOD     C224444   2.293   8.700   5.482  0.0764 -0.0214  0.2971
60208DOD     C324445   2.513   8.511   5.803  0.0765 -0.1172  0.2200
60209DOD     C124446  11.908  19.643  11.140  0.0564 -0.3197  0.0121
60209DOD     C224447  11.483  19.818  11.100  0.1607  0.3824 -0.2341
60209DOD     C324448  11.164  19.512  11.265 -0.0641  0.1243  0.1377
60210DOD     C124449   4.051  11.194  20.711 -0.0450  0.2063  0.0733
60210DOD     C224450   3.780  10.908  20.466  0.0098  0.3264 -0.0633
60210DOD     C324451   3.510  10.664  20.215 -0.2823  0.5355  0.0752
60211DOD     C124452  17.667   7.572  24.223 -0.3030 -0.4784  0.4173
60211DOD     C224453  17.204   7.513  24.055 -0.2005 -0.1721  0.0683
60211DOD     C324454  16.950   7.132  24.028 -0.1442 -0.3584 -0.0534
60212DOD     C124455  13.393   3.162  19.179 -0.0797  0.1787 -0.1955
60212DOD     C224456  13.152   3.092  18.770 -0.0794 -0.1721 -0.5348
60212DOD     C324457  12.672   3.063  18.621 -0.0514  0.0479 -0.0857
60213DOD     C124458  10.206   4.306   9.444 -0.1107  0.1131  0.0477
60213DOD     C224459  10.210   3.859   9.251  0.0451 -0.0035 -0.2073
60213DOD     C324460  10.386   3.672   8.877 -0.2515  0.2510 -0.0050
60214DOD     C124461  10.275  26.645  24.609  0.0782 -0.1561 -0.1128
60214DOD     C224462  10.288  26.472  24.211  0.2869 -0.0788 -0.0174
60214DOD     C324463  10.414  26.345  23.721  0.1550  0.0015  0.2345
60215DOD     C124464   5.878  16.972  23.965  0.0465 -0.1515 -0.1485
60215DOD     C224465   5.449  17.031  23.846 -0.1962  0.0081 -0.1409
60215DOD     C324466   5.122  16.707  23.880 -0.1170 -0.0219 -0.1058
60216DOD     C124467   6.024  24.595  12.267 -0.0200 -0.0094  0.0213
60216DOD     C224468   6.132  24.938  11.987 -0.0963  0.1061  0.0646
60216DOD     C324469   6.019  25.431  11.933 -0.0728  0.1810 -0.2761
60217DOD     C124470   5.096   2.250  25.625  0.0929  0.3531  0.3724
60217DOD     C224471   5.175   2.325  25.151 -0.1799 -0.2581 -0.4096
60217DOD     C324472   4.957   2.563  24.806 -0.0312  0.0395  0.1312
60218DOD     C124473  21.821   9.491   3.736  0.2007 -0.1306 -0.2906
60218DOD     C224474  21.520   9.814   3.924 -0.1238 -0.0345  0.0995
60218DOD     C324475  21.615   9.921   4.340 -0.3787  0.3391 -0.0906
60219DOD     C124476   7.879   0.705  12.018 -0.1331 -0.1905 -0.0470
60219DOD     C224477   8.214   0.690  12.336  0.1004 -0.0416  0.3001
60219DOD     C324478   8.701   0.629  12.433  0.0302 -0.0341 -0.5954
60220DOD     C124479  23.600   5.163  15.227  0.1266  0.3287 -0.0308
60220DOD     C224480  23.558   4.757  15.032 -0.1498 -0.0959 -0.1952
60220DOD     C324481  23.460   4.469  14.708 -0.1298  0.0791  0.1161
60221DOD     C124482   3.656  20.818  13.562  0.0178  0.2121 -0.1053
60221DOD     C224483   3.494  20.593  13.991  0.0206 -0.1761 -0.2100
60221DOD     C324484   3.228  20.567  14.421  0.1231  0.0382  0.2564
60222DOD     C124485  29.918   8.070   5.646  0.1025 -0.1505 -0.1476
60222DOD     C224486  30.323   8.115   5.933  0.1757 -0.2161 -0.2917
60222DOD     C324487   0.362   8.227   6.209  0.1983 -0.0865  0.2842
60223DOD     C124488   7.468   0.201  29.898  0.0558  0.2215  0.2051
60223DOD     C224489   7.636  30.349  29.482 -0.3120  0.1723  0.0216
60223DOD     C324490   7.859  29.905  29.434 -0.1608  0.0274 -0.3696
60224DOD     C124491   0.089  16.665   6.110 -0.1531  0.3242  0.0717
60224DOD     C224492   0.490  16.548   5.870 -0.2440 -0.2368  0.1152
60224DOD     C324493   0.622  16.529   5.416 -0.1042  0.3739  0.2092
60225DOD     C124494  23.493  23.751   5.169  0.2317 -0.1490 -0.1767
60225DOD     C224495  23.165  23.526   5.304 -0.0056  0.0872  0.1846
60225DOD     C324496  22.713  23.564   5.496 -0.0881  0.0227  0.0399
60226DOD     C124497  10.115  30.148  12.703 -0.1918 -0.5114  0.0852
60226DOD     C224498  10.349  29.895  12.483  0.1112 -0.0082 -0.0597
60226DOD     C324499  10.622  29.656  12.227 -0.0565 -0.0426  0.0618
60227DOD     C124500  16.547  16.904  20.129  0.0284  0.1482  0.1792
60227DOD     C224501  16.358  16.650  19.788  0.2446  0.1128 -0.1210
60227DOD     C324502  16.103  16.797  19.408  0.0734  0.4441 -0.0362
60228DOD     C124503  25.602  17.246  23.769 -0.0470 -0.1654  0.0632
60228DOD     C224504  25.553  16.799  23.674  0.1804  0.1615 -0.2198
60228DOD     C324505  25.648  16.654  23.253 -0.0517 -0.4934  0.1970
60229DOD     C124506  26.150   0.376   6.284 -0.0072 -0.0121 -0.2044
60229DOD     C224507  26.236   0.621   5.894 -0.0597 -0.3699  0.1192
60229DOD     C324508  26.382   1.025   5.685  0.0783 -0.2147 -0.2723
60230DOD     C124509   8.490  18.000  27.257  0.0865  0.1376 -0.2016
60230DOD     C224510   8.875  18.281  27.068 -0.3952 -0.1137 -0.0777
60230DOD     C324511   9.316  18.496  27.259  0.1015 -0.1903 -0.0108
60231DOD     C124512  26.941   9.046   6.277  0.0259 -0.0437 -0.0359
60231DOD     C224513  26.913   9.491   6.289 -0.1615  0.0810 -0.0228
60231DOD     C324514  26.890   9.863   6.556 -0.4889  0.0599  0.1506
60232DOD     C124515  17.636  10.845  12.907 -0.5005  0.1431 -0.3845
60232DOD     C224516  17.684  11.263  12.671 -0.1748 -0.0740  0.2589
60232DOD     C324517  17.467  11.633  12.489 -0.1383  0.1949  0.0189
60233DOD     C124518  27.769  18.939   8.551 -0.0908 -0.0465  0.4202
60233DOD     C224519  27.922  19.333   8.296 -0.0992 -0.2637  0.0055
60233DOD     C324520  28.332  19.537   8.045 -0.0169 -0.0381  0.0671
60234DOD     C124521   1.380   9.776   6.135 -0.0067 -0.3098  0.4755
60234DOD     C224522   1.522   9.344   6.238  0.0784 -0.0584 -0.1534
60234DOD     C324523   1.341   8.950   6.445 -0.1018  0.3673  0.0433
60235DOD     C124524  15.292   1.193  16.684 -0.1191 -0.1987 -0.0066
60235DOD     C224525  15.094   1.425  17.050  0.0140 -0.2376  0.0080
60235DOD     C324526  15.113   1.610  17.451  0.2133 -0.0857  0.2639
60236DOD     C124527  21.711  17.306   4.598  0.1446  0.2252 -0.0323
60236DOD     C224528  21.573  16.933   4.848 -0.0976 -0.1887 -0.0123
60236DOD     C324529  21.415  16.527   4.828  0.0273  0.1897  0.0333
60237DOD     C124530   2.784   0.063   4.254 -0.1236  0.1346  0.0587
60237DOD     C224531   2.368  30.248   4.275  0.0006 -0.1084  0.0632
60237DOD     C324532   1.934   0.096   4.048 -0.3568  0.1507 -0.2445
60238DOD     C124533  10.177  26.330  27.972  0.2771 -0.0848  0.1555
60238DOD     C224534  10.117  25.903  27.813 -0.0202  0.2949 -0.0194
60238DOD     C324535  10.007  25.459  27.907  0.2560 -0.1974 -0.0311
60239DOD     C124536  29.695  18.449  29.715 -0.2528 -0.1495 -0.1086
60239DOD     C224537  29.726  18.609  30.152  0.1299  0.0955 -0.1540
60239DOD     C324538  30.033  18.723   0.115 -0.0873  0.0999  0.0389
60240DOD     C124539  26.862  27.054  11.575  0.1651  0.2367 -0.4659
60240DOD     C224540  26.665  26.648  11.523 -0.1979  0.1001 -0.3292
60240DOD     C324541  26.533  26.154  11.575  0.1905  0.0308  0.0874
60241DOD     C124542   6.642  14.153   5.378  0.1571  0.1854 -0.0823
60241DOD     C224543   6.205  14.296   5.482  0.1658  0.1714 -0.0284
60241DOD     C324544   5.924  14.624   5.473  0.1319  0.2041 -0.0686
60242DOD     C124545  26.199  18.101  28.643 -0.3807  0.0716  0.2097
60242DOD     C224546  26.622  18.042  28.792  0.0549  0.3665  0.0477
60242DOD     C324547  27.086  18.223  28.746 -0.0304  0.0339  0.1071
60243DOD     C124548   3.815   4.881   8.095 -0.2563  0.0812 -0.2220
60243DOD     C224549   3.849   5.074   7.666  0.1755 -0.0909  0.0925
60243DOD     C324550   3.996   5.172   7.212  0.1165 -0.2095  0.1126
60244DOD     C124551  15.779  17.640   3.665 -0.1039  0.1867 -0.0569
60244DOD     C224552  16.180  17.837   3.705 -0.0577  0.0840  0.0748
60244DOD     C324553  16.409  18.245   3.605  0.2903 -0.2145 -0.0789
60245DOD     C124554  18.877   3.049   7.256  0.1189 -0.0881 -0.2004
60245DOD     C224555  19.145   3.233   7.547  0.0458 -0.1873 -0.4361
60245DOD     C324556  19.456   3.558   7.501 -0.1659 -0.1673  0.1299
60246DOD     C124557   4.020  10.525  15.923  0.0624 -0.0970  0.4098
60246DOD     C224558   3.601  10.360  15.838  0.0004  0.0096  0.0575
60246DOD     C324559   3.273  10.031  15.905 -0.0927  0.0573  0.0223
60247DOD     C124560  18.614   8.597   3.314 -0.0056 -0.0023 -0.1202
60247DOD     C224561  18.209   8.854   3.458 -0.0774 -0.0461  0.0072
60247DOD     C324562  18.039   9.173   3.762 -0.1831 -0.2406 -0.2229
60248DOD     C124563  17.159  25.027  22.346 -0.0023  0.0861 -0.0440
60248DOD     C224564  17.037  25.425  22.456 -0.1533  0.1144  0.2643
60248DOD     C324565  17.285  25.797  22.419  0.2383  0.1469 -0.0792
60249DOD     C124566   0.852   4.129  13.594  0.0318 -0.0654  0.0380
60249DOD     C224567   0.511   4.429  13.487  0.2034  0.1874 -0.2924
60249DOD     C324568   0.016   4.371  13.508 -0.1529  0.2256  0.3277
60250DOD     C124569  20.500  26.626  26.632 -0.0865 -0.3920  0.0440
60250DOD     C224570  20.856  26.893  26.856 -0.0212  0.0014  0.0619
60250DOD     C324571  21.129  27.261  26.985  0.2835  0.0970 -0.2331
60251DOD     C124572  28.105  26.290  18.989 -0.0721  0.0785 -0.3787
60251DOD     C224573  28.316  26.661  18.798 -0.2430  0.0443  0.2177
60251DOD     C324574  28.552  27.032  18.887 -0.1827  0.1009 -0.3193
60252DOD     C124575   2.556  12.560  18.604  0.1018  0.1969  0.1204
60252DOD     C224576   2.449  12.885  18.278 -0.0619 -0.1191  0.1252
60252DOD     C324577   2.527  13.339  18.302  0.0361  0.0271 -0.0923
60253DOD     C124578   2.558  15.341  16.487  0.2674  0.1926 -0.1352
60253DOD     C224579   2.552  15.817  16.531 -0.2074 -0.0034  0.0834
60253DOD     C324580   2.401  16.254  16.510 -0.1759  0.1402  0.2228
60254DOD     C124581  25.845  12.846  22.761  0.1055 -0.2192 -0.0577
60254DOD     C224582  26.032  12.541  22.522  0.0453 -0.0592  0.0948
60254DOD     C324583  26.189  12.130  22.522  0.1508  0.1144 -0.3567
60255DOD     C124584  28.829   1.317  25.604 -0.1083 -0.0227 -0.0293
60255DOD     C224585  29.249   1.452  25.572  0.1878 -0.1355 -0.1579
60255DOD     C324586  29.595   1.664  25.883  0.1534  0.0794 -0.2207
60256DOD     C124587  27.361   2.412  17.295  0.2719 -0.3727  0.5888
60256DOD     C224588  26.982   2.356  17.003  0.4631  0.0923 -0.1037
60256DOD     C324589  26.572   2.508  16.924  0.1874  0.0437 -0.0529
60257DOD     C124590  28.167   2.640  13.673  0.0039 -0.3762 -0.0796
60257DOD     C224591  28.418   2.694  13.286  0.3005  0.0787  0.0092
60257DOD     C324592  28.729   2.820  12.963 -0.0932 -0.2531  0.1195
60258DOD     C124593  23.700  29.637  20.369  0.3740 -0.1587 -0.0930
60258DOD     C224594  23.461  29.675  20.039 -0.1258 -0.2106  0.1231
60258DOD     C324595  23.299  29.274  19.835 -0.4752 -0.0551 -0.3267
60259DOD     C124596  13.767   0.971  10.918 -0.2570  0.0650 -0.0960
60259DOD     C224597  13.551   0.918  11.360  0.0272  0.2147 -0.2637
60259DOD     C324598  13.549   0.640  11.739 -0.3839 -0.2218  0.2009
60260DOD     C124599   1.556  13.477  24.471  0.1943 -0.2222 -0.1457
60260DOD     C224600   1.166  13.717  24.327 -0.2217  0.2236 -0.0019
60260DOD     C324601   0.931  14.147  24.162  0.1440 -0.2235  0.1101
60261DOD     C124602  14.336   0.529  24.315  0.1205  0.1084  0.4720
60261DOD     C224603  13.930   0.671  24.152  0.1703  0.3442 -0.2552
60261DOD     C324604  13.596   0.768  23.864  0.1652  0.0975  0.2524
60262DOD     C124605  11.285   7.924  13.379 -0.3926  0.3022  0.2237
60262DOD     C224606  11.254   8.042  12.961  0.2980  0.1141  0.1348
60262DOD     C324607  11.444   8.014  12.497 -0.0165  0.0352 -0.0360
60263DOD     C124608   7.361  16.954   0.231 -0.0979  0.1716  0.4021
60263DOD     C224609   7.120  17.233  30.232 -0.0019 -0.0116  0.0694
60263DOD     C324610   6.830  17.573  30.097 -0.2853  0.1477 -0.2209
60264DOD     C124611  16.827  27.163   6.734 -0.3564  0.0690 -0.0651
60264DOD     C224612  16.731  27.424   7.156 -0.0202 -0.0824  0.0721
60264DOD     C324613  16.738  27.386   7.624  0.0223  0.0432  0.2058
60265DOD     C124614   6.246  22.695  11.968 -0.0499  0.1322  0.0738
60265DOD     C224615   5.963  23.071  12.001 -0.3290  0.2210 -0.0333
60265DOD     C324616   5.707  23.338  12.256 -0.0906 -0.2244 -0.0530
60266DOD     C124617   6.473  20.058   8.628  0.3574 -0.0960 -0.3982
60266DOD     C224618   6.051  20.307   8.563  0.1095 -0.0811  0.1357
60266DOD     C324619   5.737  20.537   8.837 -0.1075 -0.2290  0.0424
60267DOD     C124620   2.654  29.300   9.885 -0.1190  0.1799  0.1243
60267DOD     C224621   2.327  28.953   9.941  0.1058  0.1683 -0.1295
60267DOD     C324622   1.841  28.977   9.778 -0.1396 -0.1031 -0.0202
60268DOD     C124623  10.928   9.632   9.673 -0.0164  0.0020  0.0381
60268DOD     C224624  10.686   9.267   9.677 -0.0833 -0.4821  0.2325
60268DOD     C324625  10.439   8.938   9.474 -0.2569  0.1252  0.0382
60269DOD     C124626   1.921  11.101  18.565  0.1722 -0.2293  0.0065
60269DOD     C224627   1.798  11.187  18.098 -0.1219 -0.2991 -0.1383
60269DOD     C324628   1.996  11.051  17.755  0.0063 -0.1524  0.0187
60270DOD     C124629  27.522   1.034   9.759 -0.0023 -0.2347 -0.0194
60270DOD     C224630  27.772   0.962  10.144 -0.2086  0.1019  0.0451
60270DOD     C324631  28.057   0.812  10.461  0.3031 -0.0204  0.1400
60271DOD     C124632   9.230  26.107  13.342  0.1515  0.0253 -0.1735
60271DOD     C224633   9.515  26.262  12.965 -0.1269 -0.4072  0.0551
60271DOD     C324634   9.916  26.111  12.711  0.0443  0.0035 -0.3826
60272DOD     C124635   3.149   5.050  28.820 -0.0433 -0.0973  0.0668
60272DOD     C224636   2.837   5.277  29.093 -0.1276  0.0758  0.0736
60272DOD     C324637   2.417   5.331  29.235 -0.0975 -0.1354 -0.0561
60273DOD     C124638   9.779  11.103  23.652 -0.1012 -0.0495  0.2072
60273DOD     C224639  10.067  11.368  23.469 -0.0320  0.0029 -0.0998
60273DOD     C324640  10.465  11.547  23.630 -0.0883  0.0399 -0.1532
60274DOD     C124641  22.132  20.002  30.048  0.3672  0.0741  0.0369
60274DOD     C224642  22.528  20.314  30.053  0.2300  0.0073 -0.0063
60274DOD     C324643  22.679  20.770  30.153 -0.1047  0.0143 -0.2513
60275DOD     C124644  18.162  11.528  17.199 -0.1613  0.3096  0.0488
60275DOD     C224645  18.321  11.276  16.849  0.0858 -0.0814  0.3051
60275DOD     C324646  18.077  10.940  16.577  0.1190 -0.0787 -0.2846
60276DOD     C124647  30.156   0.198  26.945 -0.0055  0.2973  0.2165
60276DOD     C224648  30.285  30.100  26.735  0.6376  0.1083 -0.2829
60276DOD     C324649   0.166  29.713  26.747 -0.0179 -0.1010 -0.3014
60277DOD     C124650  15.241   7.300  28.160  0.0155  0.0042 -0.3166
60277DOD     C224651  15.425   7.043  28.499  0.2102 -0.0869  0.1931
60277DOD     C324652  15.724   6.910  28.866 -0.3780 -0.1513 -0.1651
60278DOD     C124653  22.628  10.066  24.520 -0.0062 -0.5214  0.1617
60278DOD     C224654  22.645  10.492  24.268 -0.0166 -0.2377  0.0888
60278DOD     C324655  22.787  10.752  23.844  0.2395  0.0683  0.0974
60279DOD     C124656   0.246  29.953  23.022 -0.1465 -0.1981  0.2089
60279DOD     C224657  30.180  30.131  23.194  0.1204 -0.1828  0.2692
60279DOD     C324658  29.816  30.319  23.387 -0.1677  0.2009  0.0401
60280DOD     C124659  24.351  20.227  16.565 -0.3906 -0.1780 -0.3804
60280DOD     C224660  24.412  20.027  16.999 -0.4086 -0.4129 -0.1201
60280DOD     C324661  24.599  19.770  17.347  0.0490  0.0323 -0.0385
60281DOD     C124662  10.920  18.840  18.887  0.0078 -0.1738  0.0896
60281DOD     C224663  11.241  19.217  19.031  0.0123  0.1371 -0.1101
60281DOD     C324664  11.568  19.503  18.909  0.2755 -0.3435  0.2673
60282DOD     C124665  23.127  19.352  18.718  0.1469  0.1066 -0.4865
60282DOD     C224666  23.561  19.369  18.942 -0.0353  0.2623 -0.1827
60282DOD     C324667  24.025  19.439  18.890  0.1001 -0.0084 -0.0727
60283DOD     C124668   9.809  20.089  21.215  0.3714  0.4674 -0.1279
60283DOD     C224669   9.973  20.493  21.330  0.0648 -0.3035  0.1060
60283DOD     C324670  10.214  20.777  21.023 -0.5928  0.1196  0.0639
60284DOD     C124671  22.331  13.021  29.523  0.0121  0.0586  0.1094
60284DOD     C224672  22.772  12.838  29.412  0.2461  0.0750 -0.0230
60284DOD     C324673  23.030  12.614  29.115 -0.0677  0.0873 -0.2123
60285DOD     C124674  28.601   3.542   7.722 -0.1108  0.1386  0.0364
60285DOD     C224675  28.662   3.283   7.299 -0.0740  0.0106 -0.1583
60285DOD     C324676  28.767   2.926   7.116  0.1290  0.0927 -0.0254
60286DOD     C124677  20.152   3.208  19.811 -0.0953 -0.2326 -0.0190
60286DOD     C224678  20.460   3.563  19.930  0.1250  0.0432 -0.1802
60286DOD     C324679  20.892   3.593  20.096  0.2038 -0.3678  0.3357
60287DOD     C124680  17.395  22.705  26.837 -0.0721  0.1794 -0.1026
60287DOD     C224681  17.768  22.847  26.617 -0.0190 -0.0251 -0.1266
60287DOD     C324682  18.238  22.820  26.757 -0.0556  0.0302  0.1906
60288DOD     C124683  25.834   2.452  18.458  0.2995 -0.0242  0.2423
60288DOD     C224684  25.911   2.030  18.249 -0.0909 -0.0268  0.1513
60288DOD     C324685  25.776   1.640  18.046 -0.1581 -0.1179 -0.2953
60289DOD     C124686  25.482   1.619   4.183  0.0571  0.3646  0.0591
60289DOD     C224687  25.325   2.085   4.153 -0.0596 -0.0811  0.1455
60289DOD     C324688  25.382   2.582   4.235  0.1928  0.3621  0.3293
60290DOD     C124689   2.310   3.345  22.269 -0.0186 -0.0853  0.1506
60290DOD     C224690   2.501   3.424  21.863 -0.0913  0.0166  0.1893
60290DOD     C324691   2.641   3.599  21.442  0.1350 -0.0239  0.1772
60291DOD     C124692   6.747   3.683  25.254  0.2553 -0.1458  0.0552
60291DOD     C224693   6.352   3.548  25.095  0.2127 -0.0065 -0.2888
60291DOD     C324694   5.902   3.599  24.982  0.1859  0.0435 -0.0269
60292DOD     C124695   8.169  11.103  27.235 -0.0739 -0.2911  0.1678
60292DOD     C224696   8.266  10.898  26.854 -0.4115 -0.0586  0.3396
60292DOD     C324697   8.568  10.898  26.497  0.2075  0.4897  0.3711
60293DOD     C124698  15.420   8.061   5.711 -0.3805  0.0435 -0.0682
60293DOD     C224699  15.082   7.801   5.863 -0.1039 -0.0087 -0.0322
60293DOD     C324700  15.126   7.442   6.168 -0.1307 -0.0720  0.2662
60294DOD     C124701  12.294  11.367  13.837 -0.1086 -0.0835 -0.0813
60294DOD     C224702  12.525  11.556  14.157  0.0394  0.1083  0.4163
60294DOD     C324703  12.902  11.517  14.418  0.1098  0.0683  0.0743
60295DOD     C124704   4.742  29.408  11.706  0.0362 -0.1656  0.3092
60295DOD     C224705   4.758  29.730  12.037  0.0549  0.2837 -0.0154
60295DOD     C324706   4.660  29.966  12.423 -0.0042  0.0548 -0.0617
60296DOD     C124707  24.950  19.544  28.523  0.0737 -0.3730  0.1239
60296DOD     C224708  24.516  19.772  28.624  0.0960  0.3605 -0.0669
60296DOD     C324709  24.106  19.897  28.798  0.0610 -0.1622 -0.0792
60297DOD     C124710  23.759  10.974  15.264  0.1204  0.0800  0.2638
60297DOD     C224711  23.606  10.590  15.446  0.0499  0.1305  0.1604
60297DOD     C324712  23.622  10.144  15.630  0.4991  0.0702 -0.1706
60298DOD     C124713  13.111  23.902  23.137 -0.0799  0.0135  0.0881
60298DOD     C224714  12.773  24.290  23.211 -0.0660  0.2200 -0.0656
60298DOD     C324715  12.405  24.645  23.095 -0.1126  0.3419 -0.1411
60299DOD     C124716   4.819  17.035   6.317  0.2357  0.2353  0.2697
60299DOD     C224717   5.145  17.348   6.132 -0.0805  0.2029  0.2273
60299DOD     C324718   5.371  17.680   6.308 -0.0934 -0.1904  0.4644
60300DOD     C124719  14.558  13.053  29.576 -0.0636 -0.3883 -0.0988
60300DOD     C224720  14.408  13.450  29.499 -0.1579  0.2521  0.1757
60300DOD     C324721  14.160  13.720  29.222  0.2231  0.0044 -0.0471
60301DOD     C124722  18.123   1.438  26.702 -0.2518  0.0153 -0.1948
60301DOD     C224723  18.242   1.050  26.987 -0.0717 -0.1676 -0.2931
60301DOD     C324724  18.535   0.784  27.240 -0.2934 -0.1648 -0.2367
60302DOD     C124725   8.290   1.054  13.531 -0.1765 -0.0918 -0.0215
60302DOD     C224726   8.131   0.844  13.216  0.1947  0.1027 -0.1387
60302DOD     C324727   8.045   0.700  12.790 -0.1831  0.1783 -0.2956
60303DOD     C124728   7.267  17.853  13.716 -0.0281 -0.0053 -0.0121
60303DOD     C224729   7.480  17.839  13.233  0.0798 -0.3026  0.1227
60303DOD     C324730   7.656  18.008  12.836 -0.0995 -0.2959  0.1651
60304DOD     C124731   6.483   3.225  10.537 -0.0188  0.1854  0.1057
60304DOD     C224732   6.282   3.137  10.155  0.1682  0.2130 -0.0074
60304DOD     C324733   6.160   3.163   9.673  0.1779 -0.0580 -0.1425
60305DOD     C124734  16.721  13.890  29.888 -0.1804 -0.0380  0.0908
60305DOD     C224735  16.594  13.445  29.788 -0.0887  0.0833  0.1436
60305DOD     C324736  16.733  13.041  29.926  0.2231 -0.0479  0.1365
60306DOD     C124737   4.700  11.027  13.850  0.0233  0.2090  0.4945
60306DOD     C224738   4.400  10.964  14.203 -0.1456 -0.0728  0.1463
60306DOD     C324739   4.119  10.873  14.506  0.0741  0.2202  0.0515
60307DOD     C124740  10.236  23.236  28.591 -0.0731 -0.1767  0.0327
60307DOD     C224741  10.270  23.658  28.897  0.1926  0.0218 -0.0675
60307DOD     C324742  10.059  23.862  29.316  0.1706  0.1025 -0.1699
60308DOD     C124743  17.314   3.023   8.324  0.1091  0.1364  0.2079
60308DOD     C224744  17.567   2.741   8.064  0.2771  0.0650  0.0228
60308DOD     C324745  17.763   2.319   7.875 -0.2450 -0.2222  0.1464
60309DOD     C124746  21.940  10.770  15.084  0.0769  0.4779 -0.2668
60309DOD     C224747  22.099  10.776  14.613  0.2258 -0.0381 -0.1272
60309DOD     C324748  22.004  10.513  14.280  0.0162 -0.0944  0.1704
60310DOD     C124749   6.542   0.921  25.417 -0.0865 -0.1688  0.0861
60310DOD     C224750   6.763   1.277  25.295 -0.1583 -0.0389  0.4142
60310DOD     C324751   6.539   1.702  25.263  0.1141  0.0054  0.0693
60311DOD     C124752   5.130  27.418   5.135 -0.4681  0.0074 -0.0900
60311DOD     C224753   5.304  27.739   4.834 -0.0317 -0.1928  0.0711
60311DOD     C324754   5.438  28.145   4.619  0.0493 -0.0860  0.0004
60312DOD     C124755   6.165  28.324   1.896  0.0098 -0.2010  0.1639
60312DOD     C224756   6.239  28.087   1.483  0.2822 -0.0296 -0.1931
60312DOD     C324757   6.118  27.898   1.095 -0.1167  0.0281  0.0030
60313DOD     C124758  11.131   4.910  20.822  0.2051  0.1141  0.1174
60313DOD     C224759  10.830   4.998  20.446 -0.3399 -0.0787 -0.2203
60313DOD     C324760  10.503   5.333  20.398 -0.2839 -0.0509  0.3821
60314DOD     C124761  16.771  14.291  12.888 -0.0416  0.0231  0.2294
60314DOD     C224762  17.024  14.574  12.534  0.1156 -0.2110  0.0596
60314DOD     C324763  17.344  14.934  12.533 -0.0077 -0.2119  0.0871
60315DOD     C124764  11.722  24.369  15.242 -0.0743  0.0794  0.2055
60315DOD     C224765  11.547  23.992  15.242 -0.1676 -0.2410 -0.0034
60315DOD     C324766  11.479  23.525  15.404 -0.4837 -0.0194  0.2510
60316DOD     C124767  18.152  28.961  18.636 -0.2342 -0.2306 -0.1224
60316DOD     C224768  18.271  28.677  18.276  0.0388 -0.2312 -0.2662
60316DOD     C324769  18.174  28.366  17.924 -0.2082  0.2803 -0.1058
60317DOD     C124770  29.519   3.746   6.171  0.0949  0.0083 -0.0756
60317DOD     C224771  29.975   3.723   6.061  0.0447 -0.1024  0.0230
60317DOD     C324772  -0.019   3.514   5.976  0.0813 -0.1538 -0.0029
60318DOD     C124773  27.296   8.432  22.226  0.0986  0.0525  0.1645
60318DOD     C224774  26.987   8.478  21.861  0.1933  0.0026 -0.4931
60318DOD     C324775  26.732   8.697  21.585 -0.1619 -0.1678  0.0880
60319DOD     C124776   4.916  10.449  27.073  0.0593  0.0106  0.2224
60319DOD     C224777   4.610  10.302  26.788 -0.0528  0.1708 -0.0206
60319DOD     C324778   4.547   9.815  26.724 -0.1666 -0.0076 -0.0305
60320DOD     C124779  29.922  18.610  23.273 -0.4843 -0.3396  0.1180
60320DOD     C224780  -0.009  18.823  23.100  0.0238  0.2195 -0.1099
60320DOD     C324781   0.431  18.955  22.965  0.1265  0.0396 -0.0431
60321DOD     C124782   8.512  24.401   2.865 -0.3693 -0.2323  0.1354
60321DOD     C224783   8.883  24.542   3.000  0.0950  0.4187  0.0534
60321DOD     C324784   9.357  24.565   3.049 -0.1501  0.0951 -0.1463
60322DOD     C124785   4.234   3.520  26.583  0.1706 -0.1850 -0.4391
60322DOD     C224786   4.253   3.155  26.886 -0.0855 -0.0230 -0.0588
60322DOD     C324787   4.186   2.683  26.918 -0.0946 -0.4195  0.0272
60323DOD     C124788  18.957  17.070  14.306  0.0272 -0.1350 -0.0649
60323DOD     C224789  19.330  16.988  14.082  0.0535  0.2167  0.1170
60323DOD     C324790  19.775  16.959  14.086  0.0650  0.0785  0.2275
60324DOD     C124791   9.297   9.210  10.329 -0.3506  0.2320  0.1153
60324DOD     C224792   8.846   9.246  10.381  0.1244  0.2434 -0.0294
60324DOD     C324793   8.431   9.450  10.427  0.2542  0.2332  0.2168
60325DOD     C124794   9.923   2.611  13.946 -0.0812 -0.1071 -0.0962
60325DOD     C224795  10.182   2.260  13.648  0.2092 -0.0396  0.3166
60325DOD     C324796  10.291   1.850  13.602 -0.2736  0.1599 -0.2476
60326DOD     C124797  13.889  11.503   4.648  0.4301 -0.2397  0.1538
60326DOD     C224798  13.676  11.690   4.965 -0.0253  0.0383 -0.2137
60326DOD     C324799  13.408  12.075   5.016 -0.5655 -0.0029 -0.2477
60327DOD     C124800   4.896  11.540  16.188 -0.1152  0.0101 -0.0650
60327DOD     C224801   5.035  11.270  16.578 -0.0790  0.4210 -0.2206
60327DOD     C324802   5.064  11.277  17.096 -0.3674  0.5104  0.0631
60328DOD     C124803  23.910  24.475  13.716 -0.2400 -0.1789 -0.1947
60328DOD     C224804  23.935  24.133  13.424  0.0325 -0.1771  0.0871
60328DOD     C324805  24.292  23.790  13.572 -0.0906  0.3774  0.1030
60329DOD     C124806  26.510  14.465  29.530 -0.0226 -0.0070 -0.2032
60329DOD     C224807  26.854  14.243  29.669  0.1234 -0.0129  0.0461
60329DOD     C324808  27.136  14.166  30.057 -0.2500  0.0905 -0.1138
60330DOD     C124809   0.461   8.162  16.530 -0.0230 -0.3473  0.1576
60330DOD     C224810   0.417   7.716  16.292  0.1458 -0.1282  0.3546
60330DOD     C324811   0.274   7.376  15.957  0.0866  0.3083  0.0447
60331DOD     C124812  15.489  15.815  26.433 -0.0752 -0.2031  0.0515
60331DOD     C224813  15.940  15.848  26.437  0.1346 -0.1328  0.1133
60331DOD     C324814  16.359  15.803  26.620 -0.0148  0.4757 -0.1749
60332DOD     C124815  28.886  13.711  27.427 -0.0133  0.0205  0.2309
60332DOD     C224816  29.082  13.828  27.812  0.2176 -0.2269 -0.0626
60332DOD     C324817  29.094  13.724  28.250 -0.0905 -0.2623 -0.0918
60333DOD     C124818   6.171  14.054   8.498 -0.0088 -0.4774 -0.0151
60333DOD     C224819   6.552  13.868   8.747 -0.2317 -0.2596 -0.1235
60333DOD     C324820   6.584  13.662   9.178 -0.1053 -0.2558  0.4973
60334DOD     C124821  19.876  26.868   5.787  0.1014 -0.1045  0.0766
60334DOD     C224822  19.467  26.617   5.841  0.0057  0.2730  0.2559
60334DOD     C324823  19.236  26.551   6.213  0.1372 -0.1770  0.1615
60335DOD     C124824  18.771   2.104   2.399  0.0724 -0.2503  0.1289
60335DOD     C224825  18.580   2.304   1.992  0.1964 -0.6082  0.0049
60335DOD     C324826  18.724   2.514   1.614 -0.1181  0.3043  0.4263
60336DOD     C124827  20.989   5.788  11.667 -0.0789 -0.0166 -0.2901
60336DOD     C224828  20.904   5.351  11.848  0.2135  0.1308  0.1547
60336DOD     C324829  21.018   4.916  11.958  0.0520 -0.2337  0.0572
60337DOD     C124830  12.793   1.970  15.699 -0.1852 -0.0929 -0.1615
60337DOD     C224831  13.150   2.148  15.818  0.0291 -0.0579  0.0985
60337DOD     C324832  13.636   2.070  15.894 -0.2172  0.0190 -0.1619
60338DOD     C124833  10.758  19.326  21.962 -0.4333  0.1220 -0.0829
60338DOD     C224834  10.929  19.108  22.369  0.0945  0.1610  0.2926
60338DOD     C324835  11.237  19.099  22.716 -0.1825  0.3202 -0.0251
60339DOD     C124836  17.799  14.682  11.866 -0.1760  0.0345  0.1382
60339DOD     C224837  17.442  14.642  12.136 -0.3100  0.2038 -0.2844
60339DOD     C324838  17.466  14.388  12.534 -0.2481  0.1204  0.1265
60340DOD     C124839   9.848  11.389  17.550  0.1241 -0.0117  0.1264
60340DOD     C224840   9.565  11.037  17.454  0.1433  0.0233 -0.1743
60340DOD     C324841   9.705  10.621  17.383 -0.4705 -0.0381  0.2336
60341DOD     C124842  25.646  12.597  26.739  0.2384  0.3115 -0.1972
60341DOD     C224843  25.297  12.476  27.069  0.1567 -0.2010  0.1134
60341DOD     C324844  24.949  12.232  27.303 -0.1606  0.1965  0.0801
60342DOD     C124845  20.722  11.274   0.140  0.1083 -0.0526 -0.1938
60342DOD     C224846  20.411  11.017  30.243  0.0636  0.1420 -0.0412
60342DOD     C324847  20.258  10.866  29.825  0.1706 -0.1135 -0.3473
60343DOD     C124848  21.955  13.887  14.324 -0.0528 -0.0167  0.0199
60343DOD     C224849  21.854  14.116  14.681 -0.0750  0.0736 -0.0032
60343DOD     C324850  21.619  14.498  14.912  0.1105 -0.1810  0.1180
60344DOD     C124851  15.593   2.840  24.168 -0.0435  0.2134 -0.1750
60344DOD     C224852  15.245   2.565  24.045  0.1208  0.1440  0.1063
60344DOD     C324853  14.819   2.487  23.911  0.0549  0.0489 -0.1204
60345DOD     C124854  26.677  10.129  24.026  0.1191 -0.3283  0.3564
60345DOD     C224855  27.009  10.403  23.778  0.1286 -0.3349 -0.1905
60345DOD     C324856  27.121  10.428  23.390 -0.0966  0.2034  0.0182
60346DOD     C124857   1.718   0.167   0.095  0.1971  0.1715  0.0905
60346DOD     C224858   1.537   0.261  30.024  0.1647  0.4536 -0.0488
60346DOD     C324859   1.307   0.610  29.786 -0.0551 -0.0149  0.2635
60347DOD     C124860  17.741  29.336  26.510  0.0220 -0.2631 -0.0549
60347DOD     C224861  17.288  29.268  26.673 -0.1282  0.0244 -0.2189
60347DOD     C324862  16.847  29.395  26.831  0.2899 -0.1344  0.0886
60348DOD     C124863  20.834  20.008  18.009 -0.0795 -0.0311  0.0786
60348DOD     C224864  20.741  19.561  17.976  0.2818 -0.0329  0.0734
60348DOD     C324865  20.338  19.352  17.961  0.2505 -0.0527  0.3558
60349DOD     C124866  17.535  18.544   4.361 -0.0391 -0.1209  0.4853
60349DOD     C224867  17.497  18.977   4.563 -0.1597 -0.3459  0.2295
60349DOD     C324868  17.206  19.143   4.842  0.2581  0.1185 -0.0985
60350DOD     C124869   8.026  20.743   2.842 -0.1023  0.1867  0.2249
60350DOD     C224870   8.403  20.487   2.718 -0.2636  0.3007  0.4178
60350DOD     C324871   8.524  20.146   2.460  0.0533  0.1453  0.2665
60351DOD     C124872   8.011  21.133  18.524  0.0997 -0.0688 -0.1342
60351DOD     C224873   7.911  20.790  18.827  0.3668  0.0553 -0.0454
60351DOD     C324874   8.134  20.480  19.140 -0.1086  0.3439  0.1981
60352DOD     C124875   7.292  27.680  14.994  0.2821 -0.1178  0.2146
60352DOD     C224876   7.260  27.426  15.390 -0.2085  0.0391  0.0531
60352DOD     C324877   7.372  27.328  15.833  0.1777 -0.2252 -0.2686
60353DOD     C124878  17.043   8.346  20.821 -0.0346 -0.0626 -0.0227
60353DOD     C224879  16.686   8.085  20.886 -0.2156 -0.3280  0.2359
60353DOD     C324880  16.332   7.955  21.150 -0.0136 -0.0953  0.0329
60354DOD     C124881  15.086  28.231   3.535  0.1162  0.2782 -0.1758
60354DOD     C224882  14.808  28.441   3.889  0.1814  0.0399  0.3514
60354DOD     C324883  14.578  28.425   4.318  0.2790 -0.1447  0.0453
60355DOD     C124884   6.315   4.659  16.353  0.1993  0.2144 -0.4214
60355DOD     C224885   6.342   5.028  16.056 -0.1531  0.3055  0.2663
60355DOD     C324886   6.546   5.368  15.839 -0.0048  0.1318 -0.1590
60356DOD     C124887   5.453  22.965  10.423  0.0049 -0.0210  0.2210
60356DOD     C224888   5.089  23.180  10.183 -0.0945 -0.1261  0.1988
60356DOD     C324889   4.806  23.557  10.260 -0.1063  0.3069  0.3429
60357DOD     C124890  23.759  12.532   5.110  0.0842 -0.2184 -0.2802
60357DOD     C224891  23.808  12.994   5.251  0.0618 -0.1544 -0.2543
60357DOD     C324892  24.202  13.217   5.299 -0.1889 -0.0430  0.1817
60358DOD     C124893   2.820  13.748   3.316  0.2050  0.0875  0.1062
60358DOD     C224894   3.131  13.478   3.479 -0.0381  0.0264  0.0396
60358DOD     C324895   3.500  13.416   3.745 -0.2080  0.0272  0.0905
60359DOD     C124896  17.358  14.795   7.511 -0.1528 -0.1327 -0.0110
60359DOD     C224897  17.485  14.946   7.074  0.1594 -0.1196  0.2284
60359DOD     C324898  17.451  15.086   6.639 -0.1307  0.0311  0.1720
60360DOD     C124899  11.931  29.178  14.677  0.2782 -0.3458  0.2747
60360DOD     C224900  12.134  29.422  14.305  0.3109  0.2602  0.2712
60360DOD     C324901  12.428  29.517  13.904 -0.2445  0.2480  0.0886
60361DOD     C124902  29.290  18.378   7.870 -0.0023 -0.2643 -0.1184
60361DOD     C224903  29.457  18.326   8.323 -0.0520 -0.4261 -0.0862
60361DOD     C324904  29.741  18.500   8.617 -0.3522  0.2334  0.1592
60362DOD     C124905  10.484  19.988  13.904  0.1183  0.3479 -0.0382
60362DOD     C224906  10.783  20.066  14.297  0.0356  0.0332  0.1728
60362DOD     C324907  11.081  20.267  14.456 -0.1137 -0.0951 -0.0454
60363DOD     C124908   0.784   5.673  29.061 -0.2714  0.0181 -0.0481
60363DOD     C224909   1.118   5.410  28.846  0.3414 -0.0881 -0.0296
60363DOD     C324910   1.177   5.050  28.499 -0.2130 -0.0629 -0.3200
60364DOD     C124911   0.898   7.371  17.672  0.0000  0.2554  0.0814
60364DOD     C224912   0.499   7.436  17.399 -0.2165  0.1962  0.2550
60364DOD     C324913   0.126   7.418  17.106  0.0123 -0.0307  0.0651
60365DOD     C124914  25.091  17.369  13.809  0.4071  0.3381 -0.3307
60365DOD     C224915  24.648  17.157  13.835  0.1666 -0.4045  0.2158
60365DOD     C324916  24.256  17.464  13.754 -0.1517  0.1431  0.0765
60366DOD     C124917   5.922  25.645  21.507  0.1328 -0.1075  0.0191
60366DOD     C224918   6.188  25.778  21.866 -0.0270  0.0369  0.2657
60366DOD     C324919   6.423  26.150  22.050 -0.1449 -0.2243  0.0698
60367DOD     C124920   9.484  29.491  12.689 -0.1954 -0.1048 -0.0418
60367DOD     C224921   9.529  29.417  12.230  0.0742  0.1043  0.3066
60367DOD     C324922   9.524  29.479  11.772 -0.0016  0.0429 -0.0094
60368DOD     C124923   9.595  16.052  26.648 -0.2929 -0.0887  0.2350
60368DOD     C224924   9.298  16.261  26.392 -0.0570 -0.2532  0.1764
60368DOD     C324925   8.980  16.511  26.395 -0.0393 -0.0491 -0.0552
60369DOD     C124926   0.176  12.680  27.189 -0.0038  0.1904 -0.0102
60369DOD     C224927  30.057  12.772  27.407  0.1282  0.3384 -0.2455
60369DOD     C324928  29.685  13.107  27.436  0.3009  0.3219 -0.0163
60370DOD     C124929   2.795  17.141  15.819 -0.0868 -0.1090 -0.3396
60370DOD     C224930   2.883  16.872  15.510  0.0846  0.1659 -0.1330
60370DOD     C324931   2.958  16.457  15.281  0.0263  0.1474  0.0665
60371DOD     C124932   7.477  25.543  28.366 -0.2028  0.0509 -0.0811
60371DOD     C224933   7.824  25.737  28.078  0.2720  0.1047  0.1283
60371DOD     C324934   8.056  25.824  27.694  0.2066 -0.0269  0.0873
60372DOD     C124935  24.204  26.969  27.546 -0.0608  0.1734  0.0350
60372DOD     C224936  24.617  27.183  27.410 -0.0072 -0.0231 -0.2796
60372DOD     C324937  24.937  27.157  27.149 -0.2610 -0.1724 -0.1296
60373DOD     C124938  29.703   8.080   0.702  0.0335  0.1334  0.0244
60373DOD     C224939  29.629   7.870   0.289 -0.0375  0.1257 -0.0098
60373DOD     C324940  29.384   7.780  30.227  0.1289 -0.0826 -0.0512
60374DOD     C124941   1.471  21.554  20.830 -0.4443 -0.2095 -0.0235
60374DOD     C224942   1.574  21.150  21.122 -0.1944 -0.2347 -0.0713
60374DOD     C324943   1.680  20.982  21.538 -0.1671  0.2757  0.0563
60375DOD     C124944   2.797  22.666  20.716  0.0432  0.2416  0.1592
60375DOD     C224945   2.799  22.210  20.853 -0.1402  0.0068 -0.1630
60375DOD     C324946   2.740  21.999  21.262  0.0396  0.0964 -0.0157
60376DOD     C124947   2.907  23.125  11.880 -0.3084 -0.0600  0.0516
60376DOD     C224948   3.150  23.361  11.532 -0.0279  0.0883 -0.2775
60376DOD     C324949   3.465  23.519  11.233 -0.0152  0.0639 -0.1059
60377DOD     C124950   9.541  24.243  27.796  0.2385  0.2298  0.1194
60377DOD     C224951   9.145  24.457  27.999  0.0376 -0.3139  0.0385
60377DOD     C324952   8.691  24.625  27.905  0.1336  0.3478  0.1612
60378DOD     C124953   1.636  15.456  28.121 -0.1321  0.2013  0.0234
60378DOD     C224954   1.930  15.401  27.840  0.0585 -0.3439 -0.3131
60378DOD     C324955   2.253  15.104  27.662  0.0093  0.2124 -0.2242
60379DOD     C124956  24.395  29.162  21.410 -0.0866 -0.0239 -0.2029
60379DOD     C224957  24.085  28.796  21.465  0.1180  0.2200  0.0990
60379DOD     C324958  23.819  28.465  21.501  0.4627 -0.4714 -0.0348
60380DOD     C124959  17.942  26.434  20.140  0.1915 -0.0797  0.0362
60380DOD     C224960  18.221  26.759  20.300  0.2353  0.0475 -0.0531
60380DOD     C324961  18.657  26.766  20.464  0.1940 -0.1011 -0.3577
60381DOD     C124962  10.357   4.255   6.482 -0.4267  0.3312  0.2415
60381DOD     C224963  10.207   3.827   6.506  0.0049 -0.0601 -0.0408
60381DOD     C324964   9.874   3.481   6.463 -0.1529  0.1388  0.2147
60382DOD     C124965  23.756  16.676  28.612  0.0642  0.3237 -0.0269
60382DOD     C224966  23.318  16.840  28.561 -0.1493 -0.0396  0.2347
60382DOD     C324967  22.894  16.820  28.457 -0.0125 -0.0824 -0.0200
60383DOD     C124968  26.847  25.188  18.883  0.0055 -0.1588  0.1370
60383DOD     C224969  26.562  25.465  19.171  0.0096  0.1316 -0.1582
60383DOD     C324970  26.286  25.513  19.540  0.0664  0.2751  0.0569
60384DOD     C124971  22.548   8.747   4.849  0.2791 -0.3225  0.1135
60384DOD     C224972  22.869   8.798   4.479  0.1540  0.0163 -0.1112
60384DOD     C324973  23.217   8.803   4.169  0.0736  0.0441 -0.0588
60385DOD     C124974  13.542   1.116  26.327 -0.4442 -0.1322  0.3710
60385DOD     C224975  13.868   1.475  26.182 -0.0786 -0.1446 -0.3181
60385DOD     C324976  14.146   1.833  26.221 -0.1225  0.1474  0.3400
60386DOD     C124977  26.315   5.590  20.514  0.0692 -0.0468 -0.1925
60386DOD     C224978  26.433   5.752  20.872 -0.0082  0.0502  0.2398
60386DOD     C324979  26.211   5.836  21.272  0.1814  0.0852  0.0014
60387DOD     C124980  22.409  15.107  24.926  0.0302 -0.1808 -0.1547
60387DOD     C224981  22.243  14.717  24.778 -0.0480  0.1203 -0.0348
60387DOD     C324982  22.441  14.301  24.591 -0.0098  0.2826 -0.2733
60388DOD     C124983   5.244  14.777  24.601 -0.1133 -0.0097  0.0156
60388DOD     C224984   4.840  14.676  24.317 -0.0800  0.0694  0.2431
60388DOD     C324985   4.360  14.623  24.374  0.0070  0.0390 -0.1006
60389DOD     C124986  15.080   3.712  18.514  0.1900  0.0125  0.2651
60389DOD     C224987  14.637   3.657  18.724  0.0104  0.3066 -0.2124
60389DOD     C324988  14.511   3.354  19.048  0.0021 -0.1860  0.2185
60390DOD     C124989  21.638  21.771  17.660  0.0822  0.1261  0.0998
60390DOD     C224990  21.864  21.766  18.006 -0.1232 -0.1714 -0.0158
60390DOD     C324991  21.925  21.523  18.428  0.1721 -0.3202  0.1035
60391DOD     C124992   1.863  12.329   0.762 -0.0434 -0.0019 -0.2143
60391DOD     C224993   1.986  11.893   0.847 -0.0443 -0.0957 -0.2623
60391DOD     C324994   1.788  11.743   1.173  0.0257  0.0584  0.2511
60392DOD     C124995   0.542  22.189   5.699  0.0693  0.2012  0.2705
60392DOD     C224996   0.690  22.648   5.710 -0.0305 -0.2141  0.1005
60392DOD     C324997   0.743  23.161   5.746  0.0908  0.2341 -0.0668
60393DOD     C124998  14.276  22.446  20.293  0.2021  0.0878 -0.0820
60393DOD     C224999  13.841  22.649  20.282 -0.1265 -0.0778  0.2567
60393DOD     C325000  13.608  23.032  20.151  0.0416 -0.1369 -0.2842
60394DOD     C125001  19.731   1.093  27.637 -0.0829 -0.2767  0.2213
60394DOD     C225002  19.832   0.783  28.009 -0.2270  0.2106 -0.3547
60394DOD     C325003  19.635   0.576  28.340  0.1082 -0.0742 -0.3166
60395DOD     C125004  17.844  25.808  21.067 -0.4163  0.3173  0.0245
60395DOD     C225005  18.130  25.604  21.307  0.1037  0.0434 -0.2464
60395DOD     C325006  18.260  25.306  21.597 -0.0481 -0.2034  0.1159
60396DOD     C125007  15.560  17.709   1.632  0.0094  0.2769 -0.1536
60396DOD     C225008  15.430  18.141   1.472  0.1315  0.1025  0.0936
60396DOD     C325009  15.407  18.621   1.552 -0.0531 -0.0256 -0.1687
60397DOD     C125010  19.016  12.407  13.449 -0.0501 -0.1715 -0.4099
60397DOD     C225011  19.471  12.632  13.274 -0.2766 -0.0661 -0.0816
60397DOD     C325012  19.898  12.745  13.433 -0.2161  0.5575 -0.2474
60398DOD     C125013   3.503   5.752   3.119 -0.2093 -0.0687 -0.1195
60398DOD     C225014   3.310   6.146   3.065  0.2797 -0.0632 -0.0673
60398DOD     C325015   3.042   6.490   3.013  0.0818  0.3658  0.2185
60399DOD     C125016   2.762  19.516  27.605  0.0284  0.3754  0.0321
60399DOD     C225017   3.074  19.570  27.977 -0.2114 -0.0335  0.2393
60399DOD     C325018   3.274  19.517  28.395  0.2907 -0.0751 -0.2450
60400DOD     C125019  17.074  26.695  20.573  0.1215  0.1266  0.4525
60400DOD     C225020  17.243  26.865  20.171  0.2557 -0.0761 -0.1741
60400DOD     C325021  17.430  27.077  19.721  0.0530  0.1517 -0.1671
60401DOD     C125022  21.325  27.891  10.555 -0.1204  0.1978 -0.2222
60401DOD     C225023  20.847  27.941  10.527  0.1570 -0.0413 -0.0042
60401DOD     C325024  20.369  28.020  10.478 -0.1296  0.0020 -0.3873
60402DOD     C125025  21.867  22.837  24.429  0.1106  0.0804 -0.0816
60402DOD     C225026  22.236  22.517  24.340  0.0132  0.2365  0.2311
60402DOD     C325027  22.602  22.332  24.113  0.2621 -0.0523  0.0355
60403DOD     C125028  24.148   7.911   8.653 -0.2401 -0.0696 -0.0872
60403DOD     C225029  23.728   7.781   8.740  0.1166  0.1207 -0.2507
60403DOD     C325030  23.324   7.938   8.561  0.1037  0.1600 -0.2961
60404DOD     C125031  23.675  27.117   3.330 -0.0595  0.1639  0.1375
60404DOD     C225032  23.676  27.310   3.794 -0.1069 -0.0741 -0.3247
60404DOD     C325033  23.966  27.615   4.009 -0.1617 -0.0999 -0.1525
60405DOD     C125034   4.220  14.085  13.785 -0.0527 -0.0675 -0.3382
60405DOD     C225035   4.595  14.126  14.110 -0.1537  0.0429  0.0472
60405DOD     C325036   5.056  14.195  14.299  0.0690 -0.1705 -0.2453
60406DOD     C125037  18.755   9.991  15.335 -0.0674  0.1313  0.1975
60406DOD     C225038  18.525  10.443  15.306 -0.4514  0.0432 -0.0455
60406DOD     C325039  18.237  10.773  15.249 -0.0228  0.1226  0.2409
60407DOD     C125040  13.751  29.938   3.145 -0.2200  0.2361  0.0742
60407DOD     C225041  13.971  29.729   3.496 -0.0678 -0.1190 -0.2513
60407DOD     C325042  14.258  29.414   3.558 -0.0489 -0.1139  0.3079
60408DOD     C125043  24.619   4.091  23.220  0.1226 -0.0967  0.3143
60408DOD     C225044  24.400   3.731  23.033 -0.1135 -0.3107 -0.0807
60408DOD     C325045  24.197   3.338  22.828  0.1883  0.2061  0.1871
60409DOD     C125046   7.310  25.263  20.862 -0.0089 -0.4055 -0.0501
60409DOD     C225047   6.948  25.090  21.093 -0.0016 -0.1820  0.1210
60409DOD     C325048   6.923  25.203  21.521 -0.1217  0.2432 -0.0076
60410DOD     C125049  10.540   2.442  13.924 -0.1571 -0.0997  0.4346
60410DOD     C225050  10.969   2.392  13.757  0.2947  0.2536  0.0898
60410DOD     C325051  11.361   2.417  13.498  0.1081  0.0230  0.1022
60411DOD     C125052   6.122  27.244  23.374  0.0365  0.0826  0.1570
60411DOD     C225053   6.013  27.708  23.246 -0.2324 -0.0608  0.0657
60411DOD     C325054   6.329  28.072  23.121  0.2838  0.1828 -0.1229
60412DOD     C125055  16.239  26.718  14.924  0.2932 -0.0433 -0.1970
60412DOD     C225056  16.283  26.718  14.452  0.2662 -0.1044  0.2995
60412DOD     C325057  16.675  26.469  14.252 -0.1457 -0.4600 -0.1832
60413DOD     C125058  16.203  14.473  24.650 -0.0314 -0.0096 -0.1127
60413DOD     C225059  15.889  14.618  24.999 -0.0989 -0.0329 -0.0573
60413DOD     C325060  15.575  14.773  25.248 -0.1161  0.0098  0.3085
60414DOD     C125061  10.686  15.566  25.585  0.3620  0.0904 -0.0753
60414DOD     C225062  11.108  15.795  25.715 -0.1056 -0.2979  0.0960
60414DOD     C325063  11.331  16.126  25.967  0.3683  0.1759  0.0178
60415DOD     C125064   7.022  26.009   1.441  0.0075  0.0299  0.0579
60415DOD     C225065   6.806  26.245   1.123  0.0047 -0.0447 -0.0465
60415DOD     C325066   6.350  26.261   1.083  0.1222  0.0913  0.2146
60416DOD     C125067  17.240   8.774   4.776  0.1656 -0.0411 -0.2662
60416DOD     C225068  16.866   8.738   5.036  0.2197 -0.0160 -0.1944
60416DOD     C325069  16.722   9.036   5.370  0.2224  0.0557  0.1097
60417DOD     C125070   6.425  28.787   6.754 -0.2191  0.0336  0.1115
60417DOD     C225071   6.173  28.588   7.091  0.1640  0.3038  0.2557
60417DOD     C325072   6.084  28.164   7.216 -0.2934  0.1015 -0.0581
60418DOD     C125073  28.883  25.044  12.565 -0.2642 -0.0951  0.1256
60418DOD     C225074  29.183  25.010  12.236  0.1395  0.0406 -0.0374
60418DOD     C325075  29.329  25.374  11.966 -0.0046  0.0469 -0.0193
60419DOD     C125076  22.122  20.249   4.852  0.0816  0.2318  0.1808
60419DOD     C225077  22.464  20.160   4.489  0.0868 -0.0761  0.2447
60419DOD     C325078  22.724  20.394   4.166  0.1381 -0.1794 -0.1827
60420DOD     C125079  26.592  16.948  15.793  0.1897 -0.0946  0.1919
60420DOD     C225080  26.328  16.888  15.412  0.1705 -0.0857 -0.0398
60420DOD     C325081  26.012  16.832  15.063 -0.1808 -0.1523 -0.2750
60421DOD     C125082   4.976  26.674  27.803 -0.1009  0.1327  0.1186
60421DOD     C225083   4.735  27.021  27.641 -0.0994  0.2400  0.1643
60421DOD     C325084   4.285  26.957  27.584  0.0944 -0.0564 -0.3764
60422DOD     C125085  16.277  10.522  20.902 -0.2491  0.1069 -0.0660
60422DOD     C225086  16.665  10.323  20.900 -0.2449  0.2064 -0.1514
60422DOD     C325087  16.964   9.975  21.006 -0.1220 -0.0776  0.0565
60423DOD     C125088  26.397  28.547  12.180  0.1041  0.0103  0.4397
60423DOD     C225089  26.565  28.786  12.550  0.2735 -0.1124 -0.2821
60423DOD     C325090  26.712  28.746  13.035 -0.1925 -0.1837 -0.1285
60424DOD     C125091  26.507  28.755  18.697 -0.1058 -0.1583  0.0761
60424DOD     C225092  26.576  28.354  18.484  0.1341  0.2194  0.0641
60424DOD     C325093  26.508  27.984  18.225 -0.0359 -0.0642 -0.0786
60425DOD     C125094   9.680  28.308  16.811 -0.0269  0.1384  0.1373
60425DOD     C225095   9.604  27.973  16.504  0.4027 -0.2277 -0.1096
60425DOD     C325096   9.827  27.673  16.227 -0.0446  0.0850  0.0387
60426DOD     C125097  18.600   2.059  10.306 -0.1302  0.0619  0.4422
60426DOD     C225098  18.745   2.120  10.739  0.2696 -0.2511 -0.3192
60426DOD     C325099  18.576   2.278  11.103  0.0092  0.0766 -0.1885
60427DOD     C125100  10.314   3.709  10.180  0.1060 -0.1293 -0.0081
60427DOD     C225101  10.488   3.701  10.622  0.2064  0.0006 -0.2393
60427DOD     C325102  10.674   3.902  10.973  0.1818  0.0772  0.1286
60428DOD     C125103  27.482  22.508  22.941 -0.2501  0.0028 -0.3993
60428DOD     C225104  27.923  22.520  22.751  0.1023 -0.2520  0.2287
60428DOD     C325105  28.188  22.568  22.383  0.2186  0.2152  0.3991
60429DOD     C125106   4.801  24.930  27.828 -0.1721 -0.2060 -0.1232
60429DOD     C225107   4.872  24.623  28.213  0.0839 -0.0517  0.1373
60429DOD     C325108   4.603  24.399  28.474  0.3768  0.0315  0.2109
60430DOD     C125109  21.675   3.119   3.166  0.3093 -0.1780 -0.0179
60430DOD     C225110  21.416   2.723   3.150  0.2043  0.1015 -0.3259
60430DOD     C325111  21.251   2.434   2.832  0.2672 -0.0189  0.0275
60431DOD     C125112   6.847  17.276  13.275 -0.2603 -0.0958 -0.2548
60431DOD     C225113   6.993  17.645  13.154  0.2850 -0.1927 -0.0561
60431DOD     C325114   6.984  17.971  12.826  0.3956 -0.1625 -0.2450
60432DOD     C125115  15.166  17.688  14.445  0.0016 -0.0238 -0.0997
60432DOD     C225116  15.609  17.848  14.446 -0.1045  0.0228  0.2886
60432DOD     C325117  15.888  18.166  14.678 -0.1151  0.0108  0.0246
60433DOD     C125118   2.028  10.234  15.529  0.1633  0.0147  0.1961
60433DOD     C225119   2.475   9.961  15.586  0.1786 -0.2817 -0.1554
60433DOD     C325120   2.904   9.808  15.646 -0.2573  0.4757 -0.0988
60434DOD     C125121  11.769  18.952  19.981 -0.0631  0.1011 -0.0867
60434DOD     C225122  11.852  18.888  19.507  0.0529 -0.0539 -0.3344
60434DOD     C325123  12.119  18.915  19.169 -0.1048  0.1237  0.1568
60435DOD     C125124   2.474  14.156  12.162  0.1390 -0.2272 -0.1780
60435DOD     C225125   2.616  13.707  12.004  0.1827 -0.0252 -0.0583
60435DOD     C325126   2.466  13.385  11.695  0.1166  0.2299 -0.1546
60436DOD     C125127  12.466   8.684   1.571  0.0110  0.0193  0.0062
60436DOD     C225128  12.002   8.804   1.672  0.0481  0.1110 -0.0893
60436DOD     C325129  11.568   8.829   1.809 -0.2185  0.1070  0.0872
60437DOD     C125130   5.110  11.942  28.577 -0.1593  0.1265 -0.1430
60437DOD     C225131   5.195  12.312  28.291 -0.0976  0.0107  0.1803
60437DOD     C325132   5.053  12.532  27.881 -0.1367 -0.3280  0.1618
60438DOD     C125133   4.474   8.835  16.291 -0.0752  0.2876 -0.1567
60438DOD     C225134   4.899   8.780  16.481  0.1342 -0.0321  0.0676
60438DOD     C325135   5.118   8.721  16.937  0.0835  0.3372 -0.2016
60439DOD     C125136  10.704  13.802   6.226  0.0346  0.0335 -0.1967
60439DOD     C225137  10.729  13.969   5.795 -0.0006 -0.0181  0.0311
60439DOD     C325138  11.181  13.975   5.534  0.0317 -0.0602  0.3000
60440DOD     C125139  26.606   4.123  12.427  0.0744 -0.0295 -0.0010
60440DOD     C225140  26.316   4.066  12.781 -0.0954 -0.2311 -0.0527
60440DOD     C325141  25.963   4.158  13.045 -0.3292  0.2137  0.0483
60441DOD     C125142  20.300  29.687  27.417  0.3121 -0.0177  0.0958
60441DOD     C225143  20.458  30.130  27.317 -0.0208  0.1757  0.2544
60441DOD     C325144  20.472   0.177  27.081 -0.0967  0.0423  0.0623
60442DOD     C125145  19.826   6.146  27.889  0.1631  0.1285 -0.0579
60442DOD     C225146  19.522   6.112  28.266  0.0668 -0.2748 -0.1306
60442DOD     C325147  19.219   5.884  28.559  0.1891 -0.1168  0.1232
60443DOD     C125148  27.041  24.519  17.823  0.3266 -0.3368  0.0629
60443DOD     C225149  27.187  24.484  18.287  0.0333 -0.1193 -0.1628
60443DOD     C325150  27.538  24.598  18.608  0.2018  0.1507 -0.0943
60444DOD     C125151   8.228   5.544   7.122  0.0389 -0.1356  0.2514
60444DOD     C225152   8.596   5.788   7.006 -0.0156  0.1510 -0.1672
60444DOD     C325153   8.995   5.939   6.853  0.1902 -0.0359  0.1328
60445DOD     C125154  20.606   0.879  10.422  0.2653  0.0343  0.1159
60445DOD     C225155  20.693   0.579  10.054 -0.1878 -0.0004 -0.1130
60445DOD     C325156  21.025   0.282  10.080  0.2728  0.0739  0.2892
60446DOD     C125157  26.198  17.270  28.040 -0.0963 -0.1099  0.2711
60446DOD     C225158  26.085  16.849  27.995  0.1955  0.2088  0.1293
60446DOD     C325159  26.033  16.545  28.365  0.2480 -0.0765  0.0198
60447DOD     C125160   3.236   0.225  23.190 -0.2545 -0.2168 -0.3700
60447DOD     C225161   3.084   0.334  23.614 -0.0160  0.0267  0.0129
60447DOD     C325162   2.799   0.318  23.909  0.0324 -0.3149  0.0317
60448DOD     C125163  13.678  23.657  24.578 -0.1894 -0.0832  0.1540
60448DOD     C225164  13.986  23.596  24.933  0.0495  0.3466 -0.0170
60448DOD     C325165  14.249  23.158  24.905 -0.1512 -0.3275 -0.2704
60449DOD     C125166  21.810   7.687  26.839  0.2339 -0.0255 -0.0577
60449DOD     C225167  22.057   8.002  27.011 -0.1211 -0.1584 -0.0138
60449DOD     C325168  22.145   8.287  27.376 -0.2919 -0.0116 -0.1228
60450DOD     C125169  19.165  18.613  14.882  0.2411  0.2063 -0.2514
60450DOD     C225170  19.353  18.907  15.207  0.0290 -0.2667 -0.0398
60450DOD     C325171  19.463  19.405  15.281  0.1865  0.1152  0.2286
60451DOD     C125172   6.345  18.667   5.792 -0.1171 -0.0191  0.0487
60451DOD     C225173   6.425  18.347   5.453 -0.0119 -0.0194 -0.2085
60451DOD     C325174   6.520  18.221   5.008 -0.1200 -0.2420 -0.2245
60452DOD     C125175   0.182   3.856  20.718 -0.2945 -0.0499  0.0296
60452DOD     C225176  30.041   3.683  20.732  0.0021 -0.2728 -0.2783
60452DOD     C325177  29.947   3.300  20.921 -0.3021  0.2068 -0.1351
60453DOD     C125178  11.992  25.177  25.691  0.0915 -0.1239  0.0754
60453DOD     C225179  12.024  24.700  25.810  0.0396 -0.0522  0.4055
60453DOD     C325180  12.000  24.336  26.078  0.0243 -0.0603  0.1514
60454DOD     C125181  10.061  13.296   5.659 -0.3777 -0.1200 -0.0128
60454DOD     C225182   9.872  13.642   5.790  0.0476 -0.0224  0.0181
60454DOD     C325183   9.756  14.010   5.488  0.0124  0.1309  0.1788
60455DOD     C125184   0.096  27.016   5.930 -0.2567  0.0682  0.2097
60455DOD     C225185  30.051  27.230   6.172 -0.0597  0.0108  0.3792
60455DOD     C325186  29.605  27.032   6.313 -0.2260  0.2365 -0.0790
60456DOD     C125187  13.768   3.586   3.757 -0.2068  0.3049 -0.0036
60456DOD     C225188  13.562   3.922   3.480 -0.2734 -0.0782  0.0084
60456DOD     C325189  13.464   4.201   3.060 -0.0068 -0.2635 -0.3132
60457DOD     C125190  21.684   5.836  26.213 -0.1502 -0.1026  0.0837
60457DOD     C225191  21.303   5.734  26.417 -0.1456 -0.1437 -0.1021
60457DOD     C325192  20.878   5.781  26.245  0.1644  0.0755 -0.3867
60458DOD     C125193   7.563  29.495  12.624 -0.0009  0.0138  0.1293
60458DOD     C225194   7.285  29.400  13.024  0.0979 -0.0104 -0.0141
60458DOD     C325195   6.850  29.228  13.134 -0.1442 -0.0719 -0.0015
60459DOD     C125196  22.138  24.259  18.170  0.0575 -0.0801  0.2354
60459DOD     C225197  22.146  24.461  18.558  0.0354  0.5665  0.0566
60459DOD     C325198  22.022  24.544  18.967  0.3329  0.0134 -0.0958
60460DOD     C125199  29.421  22.333  17.339  0.1559 -0.0670  0.2031
60460DOD     C225200  29.226  22.229  16.949  0.5374 -0.0625  0.1805
60460DOD     C325201  28.819  22.061  16.827  0.1486 -0.0914  0.1688
60461DOD     C125202  29.605  15.784   1.952 -0.2936  0.0360 -0.4272
60461DOD     C225203  29.416  15.422   2.169 -0.0976  0.1317  0.5179
60461DOD     C325204  29.271  15.095   2.403  0.0859 -0.0700  0.0776
60462DOD     C125205  30.067  14.533  11.631  0.2414 -0.1381  0.1636
60462DOD     C225206  29.664  14.407  11.690 -0.3322  0.1471 -0.2699
60462DOD     C325207  29.503  14.150  12.059 -0.1982 -0.1420 -0.1625
60463DOD     C125208  30.256  18.539  11.893  0.0854  0.0912 -0.0404
60463DOD     C225209  29.975  18.186  11.967 -0.2387  0.1065  0.2609
60463DOD     C325210  29.796  17.861  11.746  0.1888  0.2800  0.2129
60464DOD     C125211  12.555  18.112   0.200 -0.0798  0.0280  0.0187
60464DOD     C225212  12.094  18.154   0.347 -0.0472 -0.1210  0.0075
60464DOD     C325213  11.800  17.870   0.559 -0.2251 -0.3074  0.0562
60465DOD     C125214   1.983  27.448  29.786  0.4677  0.0460 -0.1396
60465DOD     C225215   1.818  27.405  29.353 -0.1686 -0.0360  0.2589
60465DOD     C325216   2.167  27.447  28.981  0.0931 -0.1394 -0.0121
60466DOD     C125217   1.374   0.016   5.658  0.1113  0.0526  0.0276
60466DOD     C225218   0.994  30.333   5.896  0.1738  0.0819 -0.2086
60466DOD     C325219   0.638   0.218   6.149 -0.0887  0.0814 -0.0227
60467DOD     C125220   7.588  24.548  26.300 -0.0283 -0.0027  0.1003
60467DOD     C225221   7.766  24.429  25.858  0.0588 -0.0470 -0.0708
60467DOD     C325222   7.905  24.754  25.533 -0.0654  0.1155  0.0254
60468DOD     C125223  14.890   6.000  29.205  0.0967 -0.2096  0.1552
60468DOD     C225224  15.275   6.048  29.430 -0.2142 -0.1205 -0.1312
60468DOD     C325225  15.612   6.286  29.637 -0.0710 -0.0222 -0.1293
60469DOD     C125226   8.820  21.189   4.068  0.0316  0.1278  0.5964
60469DOD     C225227   9.086  21.392   3.781  0.2307 -0.1950 -0.0786
60469DOD     C325228   9.412  21.458   3.464 -0.1021  0.1999 -0.2276
60470DOD     C125229  12.878   8.757  14.797  0.1342  0.0398 -0.0749
60470DOD     C225230  12.568   8.907  15.190 -0.0923  0.3296  0.0367
60470DOD     C325231  12.164   8.997  15.400  0.3317  0.1044 -0.1994
60471DOD     C125232  26.180  22.964  18.425  0.0424  0.2222 -0.1881
60471DOD     C225233  26.275  22.676  18.055  0.0581  0.4803 -0.2834
60471DOD     C325234  25.994  22.459  17.744  0.0661  0.0784  0.0719
60472DOD     C125235   8.688  12.268  10.681  0.2931 -0.1028  0.1430
60472DOD     C225236   8.785  11.817  10.624 -0.2762 -0.1306  0.3395
60472DOD     C325237   8.677  11.608  10.225 -0.0537 -0.2445  0.0533
60473DOD     C125238  17.479  23.985  20.188 -0.0673  0.2109 -0.0697
60473DOD     C225239  17.912  24.064  20.438  0.1995 -0.1947 -0.1205
60473DOD     C325240  18.340  23.939  20.590 -0.1020 -0.2072  0.1100
60474DOD     C125241  28.765  10.416  28.403 -0.0761 -0.5422  0.1116
60474DOD     C225242  28.620   9.955  28.422 -0.0056  0.0550 -0.0383
60474DOD     C325243  28.402   9.709  28.802 -0.3662 -0.1409  0.2459
60475DOD     C125244   6.020  20.275  11.734  0.2336  0.0133 -0.2750
60475DOD     C225245   6.297  20.167  11.363  0.1622 -0.0957 -0.1058
60475DOD     C325246   6.635  20.268  11.096 -0.1516 -0.0781 -0.1444
60476DOD     C125247  20.830   8.401  28.370  0.1284  0.2830  0.1361
60476DOD     C225248  20.585   8.074  28.465 -0.0941 -0.2420  0.2125
60476DOD     C325249  20.658   7.654  28.698  0.0354  0.0527 -0.3387
60477DOD     C125250   5.198  18.363  22.037  0.1594 -0.0266  0.0862
60477DOD     C225251   5.173  18.666  22.379 -0.1601  0.4821 -0.2712
60477DOD     C325252   4.831  18.704  22.657  0.1370 -0.1659 -0.2481
60478DOD     C125253   6.338  21.477   4.506  0.3214 -0.1132  0.4688
60478DOD     C225254   6.601  21.101   4.572  0.0567  0.2871  0.1952
60478DOD     C325255   7.030  20.950   4.695 -0.0169 -0.4636 -0.1174
60479DOD     C125256  21.683  27.954  19.761  0.0579 -0.0238  0.1826
60479DOD     C225257  22.009  28.139  19.464  0.1898 -0.1487 -0.0443
60479DOD     C325258  22.211  28.463  19.566  0.1606  0.0391 -0.1806
60480DOD     C125259   9.847   0.482  14.512 -0.2147  0.0223  0.4499
60480DOD     C225260  10.239   0.182  14.407  0.1024  0.0872  0.2012
60480DOD     C325261  10.340  30.250  14.041  0.1518  0.0744  0.1546
60481DOD     C125262  23.007   2.520   3.188 -0.1181 -0.3106 -0.1031
60481DOD     C225263  23.027   2.976   3.152  0.0332  0.2071 -0.1604
60481DOD     C325264  22.692   3.274   2.989 -0.1131  0.2219  0.0638
60482DOD     C125265   0.144   3.344  20.943  0.0106 -0.4617 -0.1242
60482DOD     C225266   0.506   3.102  21.079  0.0618  0.0839  0.3140
60482DOD     C325267   0.593   2.632  21.099  0.2454 -0.0811 -0.0204
60483DOD     C125268  18.227   2.845  13.458  0.0721  0.1520 -0.1745
60483DOD     C225269  18.529   2.902  13.788 -0.0955 -0.1644  0.1097
60483DOD     C325270  18.977   2.911  13.788 -0.3484 -0.2825 -0.0995
60484DOD     C125271   3.688   1.230   9.623 -0.0481  0.1872 -0.0773
60484DOD     C225272   3.982   0.986   9.369  0.0226 -0.0777  0.0098
60484DOD     C325273   4.369   1.039   9.161 -0.2384 -0.0545 -0.0952
60485DOD     C125274  18.640   6.555  26.471 -0.0757 -0.2033 -0.3798
60485DOD     C225275  18.382   6.623  26.139 -0.1641  0.1120 -0.0144
60485DOD     C325276  18.281   6.614  25.684 -0.1282 -0.2872 -0.1709
60486DOD     C125277   3.354  14.390  21.169 -0.2063  0.0284  0.0521
60486DOD     C225278   3.637  14.026  21.231  0.0061  0.2885  0.5144
60486DOD     C325279   4.097  13.879  21.357 -0.0043  0.3443 -0.0967
60487DOD     C125280  26.187  14.288  13.565  0.1237 -0.0957  0.2071
60487DOD     C225281  25.985  14.587  13.905  0.1076  0.3135 -0.2542
60487DOD     C325282  25.742  14.735  14.307 -0.1945 -0.0585 -0.1687
60488DOD     C125283  25.209  23.483  15.249  0.1650 -0.1986 -0.0726
60488DOD     C225284  25.276  23.790  14.884  0.1608  0.2626 -0.0689
60488DOD     C325285  25.064  24.167  14.886 -0.1181 -0.0697 -0.1458
60489DOD     C125286   9.954  20.817  11.810 -0.3142 -0.2073 -0.0995
60489DOD     C225287  10.454  20.752  11.757  0.3263 -0.0687 -0.1768
60489DOD     C325288  10.799  20.574  11.502 -0.0805  0.0530 -0.0264
60490DOD     C125289  18.751  16.630   5.558  0.2663 -0.0689 -0.1332
60490DOD     C225290  19.123  16.458   5.388  0.1256  0.1208  0.1713
60490DOD     C325291  19.243  16.362   4.914  0.0828 -0.0698 -0.2935
60491DOD     C125292  29.388  10.843  16.762 -0.1610 -0.0051 -0.1829
60491DOD     C225293  29.574  10.972  16.366 -0.2757  0.0429  0.2576
60491DOD     C325294  29.848  11.348  16.211  0.0193 -0.0278 -0.2890
60492DOD     C125295  18.915  18.638  10.957 -0.1278  0.0673  0.2463
60492DOD     C225296  18.875  18.213  10.840 -0.0923  0.3210  0.0047
60492DOD     C325297  18.561  17.867  10.648  0.2475  0.1887  0.1370
60493DOD     C125298  13.110  14.164  27.223 -0.3169  0.0609 -0.0698
60493DOD     C225299  12.805  14.399  27.545  0.2095 -0.1986  0.1639
60493DOD     C325300  12.640  14.795  27.374  0.1059  0.0524 -0.3614
60494DOD     C125301   8.435  14.321  25.431  0.0232  0.0136  0.0203
60494DOD     C225302   8.345  14.556  25.024  0.0844 -0.1276  0.0625
60494DOD     C325303   8.077  14.766  24.689 -0.1391  0.2737  0.1404
60495DOD     C125304  23.174  16.419  15.760 -0.1696  0.1715 -0.0485
60495DOD     C225305  22.739  16.276  15.771  0.1033  0.1760 -0.2439
60495DOD     C325306  22.409  16.008  15.920  0.0653  0.1004  0.2893
60496DOD     C125307  22.384   0.020  25.603 -0.0454 -0.1665 -0.0635
60496DOD     C225308  22.029  30.291  25.891  0.1625  0.1276 -0.2617
60496DOD     C325309  21.736  29.940  26.016  0.2522 -0.1527 -0.0779
60497DOD     C125310  18.478  13.098  26.251  0.0229 -0.2629  0.2636
60497DOD     C225311  18.736  12.928  25.884  0.0868  0.0375 -0.4348
60497DOD     C325312  19.217  13.003  25.742  0.0125  0.0839  0.0935
60498DOD     C125313  19.329   2.185  19.186 -0.1250 -0.3752 -0.0190
60498DOD     C225314  18.913   1.961  19.205  0.1499  0.1084  0.0932
60498DOD     C325315  18.534   1.702  19.239  0.0088  0.1600 -0.1359
60499DOD     C125316  20.005  25.060   0.494 -0.0873 -0.2091 -0.2169
60499DOD     C225317  19.991  24.661   0.372 -0.1637  0.2859  0.4691
60499DOD     C325318  19.795  24.382   0.057 -0.1046  0.0105  0.0616
60500DOD     C125319  17.923   6.977  25.068  0.0395 -0.0515  0.2515
60500DOD     C225320  17.895   6.957  25.553 -0.2219 -0.0429 -0.0031
60500DOD     C325321  17.614   6.989  25.909 -0.2461  0.2213  0.2436
60501DOD     C125322   1.205   9.057   3.986 -0.1461  0.0691  0.0958
60501DOD     C225323   0.867   9.238   3.687 -0.1378 -0.2351  0.2672
60501DOD     C325324   0.420   9.182   3.525 -0.1974  0.3040  0.2993
60502DOD     C125325   0.885  10.498  26.708  0.0115 -0.0193  0.2041
60502DOD     C225326   0.454  10.354  26.886 -0.1494  0.3750 -0.4503
60502DOD     C325327   0.060  10.098  26.850  0.1493  0.2674 -0.0808
60503DOD     C125328   9.488  26.205  28.384  0.1373  0.0436  0.0232
60503DOD     C225329   9.343  25.802  28.499  0.1944 -0.0055  0.0171
60503DOD     C325330   9.219  25.478  28.227 -0.1033  0.3075 -0.0654
60504DOD     C125331   4.871   0.840   3.985  0.0364 -0.1877  0.2836
60504DOD     C225332   4.524   0.999   3.797 -0.0821  0.1350  0.0289
60504DOD     C325333   4.291   1.373   3.613  0.0963  0.0658  0.2623
60505DOD     C125334   9.013  15.619  12.884  0.3046  0.2527 -0.3280
60505DOD     C225335   8.923  15.191  12.843 -0.0085  0.2002  0.4398
60505DOD     C325336   8.638  14.822  12.848  0.0508  0.3413 -0.0679
60506DOD     C125337  18.095   3.164   3.506  0.0493 -0.1985  0.0006
60506DOD     C225338  18.344   2.782   3.302  0.0319 -0.0029 -0.1162
60506DOD     C325339  18.612   2.417   3.292  0.0390 -0.0427 -0.0833
60507DOD     C125340   1.200   1.962  29.466 -0.0361 -0.3301 -0.0316
60507DOD     C225341   1.086   2.379  29.643  0.0256  0.3754  0.0039
60507DOD     C325342   1.045   2.825  29.569 -0.0941 -0.2403  0.4875
60508DOD     C125343  27.076  19.085  20.210  0.0393  0.3472  0.1244
60508DOD     C225344  27.351  19.127  19.807  0.1736 -0.2096 -0.2296
60508DOD     C325345  27.541  19.127  19.366 -0.1865 -0.2226 -0.3086
60509DOD     C125346  18.804  20.831  29.725  0.2155 -0.2584 -0.3588
60509DOD     C225347  18.475  20.863  29.423  0.1471 -0.0684  0.2271
60509DOD     C325348  18.441  20.931  28.958 -0.0062 -0.3449 -0.1467
60510DOD     C125349   0.064  13.402  17.435  0.2350  0.2428  0.0111
60510DOD     C225350   0.072  13.780  17.762 -0.0934  0.0214  0.2247
60510DOD     C325351  30.165  13.968  18.120  0.0882 -0.1574 -0.4085
60511DOD     C125352   2.946  20.462  16.122  0.2371 -0.1198 -0.0374
60511DOD     C225353   2.604  20.484  15.771  0.0166  0.0026 -0.4078
60511DOD     C325354   2.163  20.712  15.660  0.2062 -0.1424 -0.0153
60512DOD     C125355  13.570  20.296   2.687 -0.0560 -0.0872  0.0253
60512DOD     C225356  13.526  20.775   2.696 -0.1525  0.0051  0.0370
60512DOD     C325357  13.478  21.151   2.441 -0.3060  0.0370  0.1317
60513DOD     C125358  13.748  12.755  12.052  0.1526 -0.4699 -0.0503
60513DOD     C225359  13.908  12.659  12.463  0.3279  0.1800 -0.1207
60513DOD     C325360  14.248  12.548  12.761 -0.0352 -0.2777  0.2293
60514DOD     C125361  11.663   9.665  24.476  0.0119 -0.0186  0.0840
60514DOD     C225362  11.877   9.310  24.654 -0.1254  0.0760  0.1035
60514DOD     C325363  11.783   8.932  24.883 -0.0275  0.1607 -0.2044
60515DOD     C125364  28.998  30.127  10.636  0.0709  0.0940  0.0200
60515DOD     C225365  28.710   0.123  10.859  0.0437 -0.1541  0.2230
60515DOD     C325366  28.741   0.462  11.118 -0.0844 -0.0588 -0.3652
60516DOD     C125367   9.205  26.410   9.068 -0.0235  0.1329  0.2825
60516DOD     C225368   9.218  26.237   9.502 -0.2922  0.2357  0.2049
60516DOD     C325369   9.296  26.078   9.926 -0.0804  0.2157  0.0325
60517DOD     C125370  27.743   2.930   7.056  0.0117 -0.2755 -0.0639
60517DOD     C225371  28.063   2.987   6.684 -0.0795  0.1628 -0.0582
60517DOD     C325372  28.236   2.745   6.316 -0.2413  0.4317 -0.1369
60518DOD     C125373  14.785  28.345  15.956  0.0265 -0.3074 -0.0228
60518DOD     C225374  14.495  28.136  15.695 -0.0288 -0.0834  0.0890
60518DOD     C325375  14.330  27.696  15.596 -0.1906 -0.2498 -0.1034
60519DOD     C125376   7.227   9.320  19.623 -0.1491 -0.0432  0.2797
60519DOD     C225377   7.042   9.660  19.331 -0.2312  0.0159 -0.1692
60519DOD     C325378   6.991  10.090  19.465  0.1938  0.3005  0.2070
60520DOD     C125379   6.830  21.919  12.282 -0.1678  0.2168  0.3650
60520DOD     C225380   6.979  21.714  12.614 -0.2655 -0.2670 -0.0685
60520DOD     C325381   6.950  21.489  13.000 -0.2434 -0.0546  0.1595
60521DOD     C125382  23.904  18.568  18.378  0.0365  0.3619  0.3333
60521DOD     C225383  24.350  18.403  18.475  0.0980  0.5642 -0.0492
60521DOD     C325384  24.601  18.005  18.590 -0.4206 -0.2083 -0.3201
60522DOD     C125385   4.987  15.753  13.417  0.1704 -0.0957  0.0660
60522DOD     C225386   4.787  16.178  13.255  0.0396 -0.0804  0.0030
60522DOD     C325387   4.613  16.572  13.028  0.2270  0.2157 -0.1430
60523DOD     C125388   5.884  13.922  17.238  0.3008  0.1045 -0.1544
60523DOD     C225389   5.683  13.655  16.928  0.1952  0.1321 -0.1015
60523DOD     C325390   5.779  13.379  16.582  0.0627  0.2724 -0.2234
60524DOD     C125391  12.661   4.997  11.854 -0.0240  0.0026 -0.1936
60524DOD     C225392  12.649   4.733  12.298 -0.0816 -0.1179  0.2769
60524DOD     C325393  12.302   4.444  12.459 -0.1973 -0.0583 -0.2329
60525DOD     C125394   3.738   9.168   1.753  0.0542  0.0534  0.0772
60525DOD     C225395   3.633   8.800   1.410  0.2928 -0.1704 -0.0260
60525DOD     C325396   3.252   8.762   1.212 -0.0699  0.2538 -0.0719
60526DOD     C125397  25.969   1.739  13.722 -0.0071  0.2971 -0.5088
60526DOD     C225398  26.355   1.926  13.536  0.0801  0.1229 -0.0183
60526DOD     C325399  26.690   2.199  13.318  0.0200  0.1562  0.0088
60527DOD     C125400  17.395   5.041   6.251  0.1968 -0.0382 -0.1994
60527DOD     C225401  17.345   5.088   6.694 -0.0099  0.3159 -0.0830
60527DOD     C325402  17.393   4.833   7.111  0.1251 -0.1648  0.0385
60528DOD     C125403  23.049  24.195  29.282 -0.2709 -0.3604  0.0467
60528DOD     C225404  23.295  24.184  28.882  0.2030  0.1880 -0.0297
60528DOD     C325405  23.575  24.305  28.575  0.0269  0.1959 -0.0718
60529DOD     C125406   4.327  27.459   8.022 -0.2446  0.0672 -0.1625
60529DOD     C225407   4.592  27.260   8.352 -0.0381  0.0689 -0.0962
60529DOD     C325408   4.838  26.942   8.583 -0.2972 -0.0885 -0.0132
60530DOD     C125409  19.914   2.799  29.372 -0.4402  0.2953 -0.3765
60530DOD     C225410  19.520   2.901  29.255 -0.0030 -0.3226  0.1755
60530DOD     C325411  19.182   3.141  29.094 -0.0543 -0.1676 -0.1451
60531DOD     C125412  19.492   3.325   2.049 -0.1613  0.1066 -0.0503
60531DOD     C225413  19.361   2.911   2.024 -0.1111 -0.1705 -0.5385
60531DOD     C325414  19.042   2.494   2.103  0.1446  0.1689 -0.0256
60532DOD     C125415  27.270  16.627  17.020 -0.1959 -0.1604 -0.2649
60532DOD     C225416  26.950  16.377  17.182  0.2325 -0.0078 -0.0074
60532DOD     C325417  26.459  16.243  17.200  0.2636  0.0710  0.0021
60533DOD     C125418   6.735  29.100  18.690  0.1390 -0.3334 -0.2074
60533DOD     C225419   7.118  29.168  18.994  0.4234  0.1767 -0.1648
60533DOD     C325420   7.502  29.356  18.994 -0.1485 -0.1057  0.3081
60534DOD     C125421   6.422   2.620   9.617  0.4299  0.0689 -0.1080
60534DOD     C225422   6.374   2.606  10.035 -0.1250 -0.3198  0.4229
60534DOD     C325423   6.186   2.684  10.488  0.0044 -0.2082 -0.1917
60535DOD     C125424  12.879   2.904   3.514  0.3153  0.3600 -0.1184
60535DOD     C225425  12.717   2.493   3.721 -0.0983 -0.1406 -0.1580
60535DOD     C325426  12.696   2.330   4.168 -0.0386  0.0849 -0.3461
60536DOD     C125427  11.239   2.419  10.601 -0.0789 -0.1974  0.3772
60536DOD     C225428  11.463   2.329  10.219 -0.3183 -0.0363  0.0196
60536DOD     C325429  11.615   2.259   9.802  0.2479  0.3652 -0.3109
60537DOD     C125430   6.362  23.696  22.247  0.0070 -0.0574 -0.0110
60537DOD     C225431   6.618  23.994  22.532 -0.0277 -0.1662 -0.0365
60537DOD     C325432   6.613  24.091  22.968 -0.1856  0.1648 -0.2744
60538DOD     C125433  16.579   4.270   7.835  0.0268  0.0481 -0.0714
60538DOD     C225434  16.830   4.086   8.170  0.3436 -0.3915 -0.0573
60538DOD     C325435  17.082   4.117   8.581  0.1112  0.1119  0.2904
60539DOD     C125436  26.173   6.931  28.631  0.2987  0.0105 -0.1530
60539DOD     C225437  26.483   7.138  28.295  0.0451 -0.2987 -0.0939
60539DOD     C325438  26.860   7.421  28.235  0.1977  0.0107  0.0425
60540DOD     C125439   0.385  21.493   9.849 -0.3758  0.0321 -0.2950
60540DOD     C225440   0.402  21.581   9.453  0.1193 -0.1420 -0.3242
60540DOD     C325441   0.269  21.948   9.100 -0.2049 -0.0194  0.0425
60541DOD     C125442   9.996   8.118   1.613 -0.1718  0.1516 -0.0504
60541DOD     C225443  10.065   8.251   2.047  0.3600 -0.1320  0.1581
60541DOD     C325444  10.292   8.504   2.258  0.2091 -0.2199  0.3597
60542DOD     C125445   5.008   8.144   8.713 -0.2496  0.0694  0.3761
60542DOD     C225446   5.157   8.604   8.696  0.0829 -0.4569 -0.0166
60542DOD     C325447   5.387   8.993   8.866  0.1549  0.0176 -0.0105
60543DOD     C125448   7.199   6.680  24.881 -0.0524 -0.0711 -0.0980
60543DOD     C225449   7.133   6.427  24.466  0.1520  0.0288  0.0948
60543DOD     C325450   7.423   6.503  24.097  0.0833  0.1540 -0.0162
60544DOD     C125451  25.208  10.156  11.801 -0.2168 -0.0879  0.1343
60544DOD     C225452  25.148  10.349  11.314 -0.1342 -0.1470 -0.1412
60544DOD     C325453  25.059  10.719  11.078 -0.0873 -0.1564 -0.1761
60545DOD     C125454   9.955  15.917  13.282  0.0811  0.1238 -0.1289
60545DOD     C225455   9.648  16.214  13.140  0.1561  0.1571  0.3793
60545DOD     C325456   9.576  16.478  12.744  0.1964 -0.1580  0.2397
60546DOD     C125457  14.853   1.673  29.395 -0.2873 -0.3275  0.1744
60546DOD     C225458  15.035   2.058  29.273 -0.3057 -0.0021 -0.0596
60546DOD     C325459  15.439   2.048  29.081  0.0902 -0.1898  0.1984
60547DOD     C125460  26.829   9.077  22.650  0.0644  0.1591 -0.3478
60547DOD     C225461  26.860   9.071  23.088 -0.0216 -0.0522 -0.3001
60547DOD     C325462  26.587   8.729  23.301  0.3313 -0.0578  0.2052
60548DOD     C125463  29.619   7.977  12.329 -0.0598  0.2723  0.3363
60548DOD     C225464  29.150   8.003  12.245 -0.0476  0.0787 -0.2117
60548DOD     C325465  28.749   7.836  12.432 -0.1258  0.0370  0.2503
60549DOD     C125466   5.015  22.840  25.420  0.0035 -0.0124 -0.1139
60549DOD     C225467   5.448  22.739  25.540 -0.0735  0.0531 -0.3182
60549DOD     C325468   5.566  22.550  25.963  0.1629  0.1384 -0.2177
60550DOD     C125469   7.680  21.975  27.784 -0.1061  0.0220 -0.0517
60550DOD     C225470   7.208  22.022  27.693  0.1845 -0.0726 -0.1214
60550DOD     C325471   6.891  22.387  27.662 -0.1094  0.3490 -0.0967
60551DOD     C125472  24.236  27.234  14.947  0.1982  0.1727  0.1702
60551DOD     C225473  24.330  26.812  14.788  0.2214 -0.0425 -0.0099
60551DOD     C325474  24.512  26.650  14.388  0.1087 -0.0689  0.1728
60552DOD     C125475  12.255  18.327  12.585  0.2081 -0.0692  0.1939
60552DOD     C225476  12.576  18.199  12.961 -0.2816 -0.1155  0.1218
60552DOD     C325477  12.883  17.953  13.167  0.1630 -0.1998 -0.1492
60553DOD     C125478   7.704  10.668   9.163 -0.2402  0.0799  0.1658
60553DOD     C225479   7.405  11.015   9.103  0.3886 -0.2113 -0.0672
60553DOD     C325480   6.930  11.168   9.159  0.1101 -0.2363  0.2983
60554DOD     C125481  16.611  24.965  27.798 -0.0815  0.0845  0.0784
60554DOD     C225482  16.392  25.380  27.979  0.0457  0.3314 -0.1362
60554DOD     C325483  16.226  25.835  28.001 -0.1134  0.1165 -0.1273
60555DOD     C125484  24.100  16.107  20.462  0.2782  0.2380  0.3007
60555DOD     C225485  24.113  16.595  20.539 -0.0682 -0.1038  0.1238
60555DOD     C325486  24.406  16.958  20.466  0.1172  0.1222 -0.2075
60556DOD     C125487  20.309  17.889  15.216 -0.0439 -0.2056  0.1365
60556DOD     C225488  20.008  18.252  15.091  0.3402  0.2398  0.4070
60556DOD     C325489  19.617  18.469  15.171  0.1344  0.0656 -0.1568
60557DOD     C125490  22.198  28.975  27.805 -0.0598 -0.0087  0.1579
60557DOD     C225491  22.303  29.274  27.419 -0.1094  0.2708 -0.0325
60557DOD     C325492  22.349  29.298  26.910 -0.1235  0.5840 -0.0291
60558DOD     C125493  27.542  10.300   8.422  0.3074 -0.0352  0.0813
60558DOD     C225494  27.219  10.036   8.502  0.1371 -0.2370 -0.0204
60558DOD     C325495  27.034   9.612   8.483  0.1073 -0.1986  0.0574
60559DOD     C125496  29.136  26.498  20.111 -0.2371  0.1925 -0.0485
60559DOD     C225497  29.189  26.294  20.521  0.0718  0.1909  0.2880
60559DOD     C325498  29.123  26.124  20.939  0.0495 -0.0760 -0.1072
60560DOD     C125499  12.661  13.496  11.796  0.3013 -0.1478 -0.2255
60560DOD     C225500  12.938  13.216  12.031 -0.0482  0.0668 -0.2168
60560DOD     C325501  13.271  12.915  12.284  0.0432  0.0952 -0.1906
60561DOD     C125502   5.508  28.998  22.203  0.2533  0.1256 -0.0620
60561DOD     C225503   5.386  29.401  22.397 -0.1574 -0.0968 -0.0954
60561DOD     C325504   5.199  29.817  22.198 -0.1985 -0.0824 -0.2460
60562DOD     C125505   9.483   9.643   8.315 -0.0510  0.3979 -0.0346
60562DOD     C225506   9.369   9.873   8.707 -0.3289  0.0236  0.2408
60562DOD     C325507   9.299   9.914   9.165  0.4091  0.1015 -0.0976
60563DOD     C125508   0.283  21.089   1.114 -0.0352  0.1074 -0.0301
60563DOD     C225509   0.586  20.742   1.222  0.0908 -0.2239  0.0992
60563DOD     C325510   0.855  20.434   1.028 -0.0886 -0.1473  0.1740
60564DOD     C125511  23.745  17.405   9.115  0.1460 -0.1595  0.2927
60564DOD     C225512  24.077  17.219   9.406  0.1361  0.0199  0.1781
60564DOD     C325513  24.450  17.522   9.553 -0.0402  0.2464  0.0010
60565DOD     C125514   3.598  24.715  20.227 -0.1169 -0.1494  0.1035
60565DOD     C225515   3.460  24.374  19.943 -0.0701  0.1792  0.3163
60565DOD     C325516   3.395  24.173  19.477 -0.0153 -0.0988  0.0070
60566DOD     C125517  -0.002  10.293   9.846 -0.0100 -0.0747 -0.4425
60566DOD     C225518  29.891  10.409  10.011 -0.0800  0.1321 -0.0053
60566DOD     C325519  29.604  10.155  10.251  0.0562  0.4664 -0.1694
60567DOD     C125520   7.482   2.849  18.426  0.0753  0.0439 -0.3633
60567DOD     C225521   7.169   3.103  18.187 -0.0395  0.0807  0.1580
60567DOD     C325522   6.712   3.229  18.060  0.1901 -0.1992 -0.1348
60568DOD     C125523  22.434  18.212  25.448  0.3621 -0.0357  0.2230
60568DOD     C225524  22.625  18.606  25.316 -0.1901  0.1515  0.1184
60568DOD     C325525  22.859  18.955  25.453 -0.1019 -0.1903  0.0271
60569DOD     C125526   6.193   1.532   7.780  0.1285  0.1813 -0.1222
60569DOD     C225527   5.913   1.503   8.167  0.2454 -0.0914 -0.2503
60569DOD     C325528   5.475   1.679   8.404  0.0972  0.1600 -0.1857
60570DOD     C125529  22.827  22.421  22.544  0.5193  0.0391 -0.0920
60570DOD     C225530  22.758  21.960  22.477 -0.1105 -0.1574 -0.0654
60570DOD     C325531  22.434  21.555  22.519 -0.1047 -0.2260 -0.1713
60571DOD     C125532  21.010  19.649   9.976 -0.0623 -0.4186 -0.1500
60571DOD     C225533  20.852  19.669  10.376 -0.0878  0.1916 -0.3394
60571DOD     C325534  20.703  19.601  10.779  0.1778 -0.1427 -0.2950
60572DOD     C125535  15.437  23.449  28.469  0.0102  0.2496  0.0205
60572DOD     C225536  15.391  23.411  28.904  0.2465 -0.2073 -0.0007
60572DOD     C325537  15.211  23.172  29.276 -0.0748 -0.1452  0.1118
60573DOD     C125538  19.592  17.693  22.771  0.1479  0.2338 -0.0459
60573DOD     C225539  19.760  17.424  22.436  0.0060  0.1743  0.2197
60573DOD     C325540  19.927  17.006  22.301  0.1325  0.0598 -0.0066
60574DOD     C125541  20.069  18.496   4.412 -0.1045 -0.0276 -0.0185
60574DOD     C225542  20.240  18.103   4.648  0.1334 -0.2194 -0.0338
60574DOD     C325543  20.052  17.932   5.130  0.3914 -0.0507  0.2435
60575DOD     C125544   2.537  10.143  10.853  0.0380  0.2361  0.2003
60575DOD     C225545   2.768   9.721  10.965 -0.2585  0.0834  0.0683
60575DOD     C325546   2.894   9.341  11.182  0.0484  0.1450  0.0856
60576DOD     C125547  27.647   9.799   3.141 -0.0252 -0.0021  0.3109
60576DOD     C225548  27.756   9.384   3.252 -0.0213  0.3293  0.1792
60576DOD     C325549  27.578   9.119   3.588 -0.0032 -0.0095  0.2848
60577DOD     C125550  13.440  22.595   8.206 -0.1484 -0.0235  0.2149
60577DOD     C225551  13.857  22.652   8.127 -0.1253 -0.0260 -0.2191
60577DOD     C325552  14.256  22.384   8.154  0.3152 -0.2250  0.2722
60578DOD     C125553  16.729  17.396   8.611 -0.1973 -0.0239  0.1998
60578DOD     C225554  17.020  17.056   8.865 -0.2653 -0.2454  0.4346
60578DOD     C325555  17.361  16.821   9.038  0.0549 -0.1752 -0.2030
60579DOD     C125556   1.501  13.341  15.242  0.2622  0.1063  0.3304
60579DOD     C225557   1.258  13.413  15.579  0.0232  0.2264 -0.0568
60579DOD     C325558   1.012  13.384  15.981 -0.1297 -0.1015  0.3767
60580DOD     C125559  18.077  10.942  10.581 -0.2547 -0.1516 -0.0467
60580DOD     C225560  18.274  10.652  10.895 -0.2128 -0.1354  0.3204
60580DOD     C325561  18.021  10.430  11.145  0.1997 -0.0685 -0.0022
60581DOD     C125562   0.421  25.239  19.694 -0.1066  0.2064 -0.0012
60581DOD     C225563   0.164  25.630  19.512 -0.1314 -0.3491  0.2324
60581DOD     C325564  30.187  25.997  19.639  0.0827 -0.0154 -0.2148
60582DOD     C125565   1.490  27.243  17.194  0.3473  0.0938  0.1383
60582DOD     C225566   1.189  27.135  17.531  0.0315  0.3091  0.0423
60582DOD     C325567   0.735  27.229  17.708  0.1155  0.1072  0.0844
60583DOD     C125568   4.985  20.685  24.800 -0.1565  0.5051  0.1222
60583DOD     C225569   4.950  21.051  25.078  0.0267  0.0454  0.1129
60583DOD     C325570   4.702  21.389  25.298 -0.1570 -0.0603 -0.0393
60584DOD     C125571  28.802  25.032   4.539  0.0241  0.1858 -0.2675
60584DOD     C225572  28.400  25.239   4.541 -0.0336  0.0487 -0.0874
60584DOD     C325573  28.296  25.677   4.375 -0.1610  0.0188 -0.0077
60585DOD     C125574   7.789  28.695   9.555  0.0352 -0.1786 -0.0213
60585DOD     C225575   7.969  28.492   9.946  0.2965  0.2108 -0.1905
60585DOD     C325576   8.069  28.038  10.034  0.3281 -0.1195 -0.2444
60586DOD     C125577   0.740  27.636  12.551  0.0007 -0.1389  0.4574
60586DOD     C225578   1.059  27.378  12.768 -0.3065 -0.0547 -0.1610
60586DOD     C325579   1.403  27.078  12.654  0.0083  0.0687  0.0250
60587DOD     C125580  21.534   9.664   0.289 -0.4612  0.3012 -0.2068
60587DOD     C225581  21.962   9.818   0.104 -0.1060  0.2526  0.2689
60587DOD     C325582  22.368   9.760  30.095  0.0031 -0.0105  0.0090
60588DOD     C125583  22.790  30.292  18.462  0.1248  0.0743 -0.0614
60588DOD     C225584  22.857  29.841  18.535 -0.2083  0.0447 -0.0684
60588DOD     C325585  22.819  29.448  18.748 -0.0262 -0.3829  0.0863
60589DOD     C125586   0.599   3.840   2.084 -0.0862  0.0040 -0.1119
60589DOD     C225587   0.716   4.031   1.683 -0.1164  0.0958  0.3956
60589DOD     C325588   0.878   4.107   1.231 -0.0813  0.1215 -0.0534
60590DOD     C125589  23.281   2.650  26.760 -0.0043 -0.2551  0.2459
60590DOD     C225590  23.529   2.587  26.410  0.4960 -0.5679 -0.5209
60590DOD     C325591  23.594   2.913  26.007  0.4128 -0.0044 -0.2981
60591DOD     C125592  20.420  20.819  11.768  0.0740 -0.1858  0.2559
60591DOD     C225593  20.063  20.565  11.667  0.0541  0.2487 -0.0478
60591DOD     C325594  19.766  20.238  11.512 -0.2233  0.2109 -0.3893
60592DOD     C125595  24.520   5.856  15.451 -0.1962  0.1853 -0.1540
60592DOD     C225596  24.323   6.125  15.806  0.2564  0.0504 -0.1222
60592DOD     C325597  24.145   6.336  16.148 -0.4079 -0.0561 -0.0974
60593DOD     C125598  22.163   1.267  28.373 -0.0609 -0.3587  0.0061
60593DOD     C225599  21.765   1.096  28.192  0.1928 -0.0694 -0.0605
60593DOD     C325600  21.531   0.894  27.844 -0.2313  0.0810  0.0525
60594DOD     C125601  10.426   1.235  19.360 -0.0908 -0.0637 -0.3226
60594DOD     C225602  10.767   1.217  19.681  0.0483 -0.2080  0.1573
60594DOD     C325603  10.719   1.425  20.074  0.2908  0.1534  0.0682
60595DOD     C125604   2.956  21.394  28.790  0.3664 -0.4011 -0.1950
60595DOD     C225605   3.376  21.123  28.837 -0.1296  0.1740  0.1354
60595DOD     C325606   3.770  21.014  29.071  0.1616 -0.1951 -0.1095
60596DOD     C125607   9.427   2.513   3.569  0.0754  0.0002 -0.0570
60596DOD     C225608   9.344   2.364   4.031  0.1836  0.1340 -0.1090
60596DOD     C325609   9.531   2.264   4.438  0.2645  0.0640  0.1272
60597DOD     C125610  12.796  16.086  27.419  0.2639 -0.2879 -0.0330
60597DOD     C225611  12.842  15.640  27.385  0.2222  0.0765  0.5185
60597DOD     C325612  13.035  15.335  27.068  0.1301 -0.1205 -0.1722
60598DOD     C125613   7.486  30.126  24.007 -0.1158 -0.0681 -0.2316
60598DOD     C225614   7.753  30.126  23.653 -0.3343 -0.3928 -0.1750
60598DOD     C325615   7.890   0.143  23.354 -0.0261 -0.0011  0.0116
60599DOD     C125616  29.199   5.669   3.959 -0.3215  0.0826 -0.0509
60599DOD     C225617  29.001   6.113   3.850 -0.3721 -0.2026 -0.0520
60599DOD     C325618  29.076   6.583   3.756 -0.0798  0.0590 -0.1231
60600DOD     C125619  19.626  10.381   6.970  0.1201  0.1263 -0.0211
60600DOD     C225620  19.301  10.143   7.170  0.1090 -0.0041 -0.0866
60600DOD     C325621  19.089   9.847   7.452  0.1944 -0.0651 -0.1915
60601DOD     C125622  23.283  23.937  12.526  0.0925  0.1792  0.1372
60601DOD     C225623  23.298  24.209  12.080 -0.3706  0.0498  0.3336
60601DOD     C325624  23.207  24.561  11.802 -0.2045  0.0971  0.1178
60602DOD     C125625  24.178   5.552  27.574 -0.1235 -0.5008 -0.1745
60602DOD     C225626  24.428   5.805  27.238  0.3825 -0.1237 -0.0422
60602DOD     C325627  24.426   5.694  26.806  0.1409  0.1658 -0.1793
60603DOD     C125628  20.030   8.079  29.123 -0.0473  0.1947 -0.1331
60603DOD     C225629  20.504   8.173  29.069 -0.0851 -0.1891 -0.1473
60603DOD     C325630  20.925   8.085  28.849  0.0872  0.0517  0.0336
60604DOD     C125631  24.681  20.002  25.508  0.0881  0.1744 -0.2174
60604DOD     C225632  24.603  20.017  25.070  0.2264 -0.1071  0.4207
60604DOD     C325633  24.588  20.190  24.665  0.3943 -0.1518 -0.0630
60605DOD     C125634  24.728   3.346  22.562 -0.2875 -0.3022  0.2128
60605DOD     C225635  25.082   3.185  22.856  0.0632  0.2041 -0.0959
60605DOD     C325636  25.494   3.298  22.978  0.0780 -0.4262 -0.2948
60606DOD     C125637  12.383   4.032  17.667 -0.1623  0.0944 -0.0259
60606DOD     C225638  12.468   3.833  17.292  0.0420  0.0942  0.0096
60606DOD     C325639  12.498   3.665  16.898 -0.2378 -0.2708  0.0092
60607DOD     C125640  25.934  26.076  27.418  0.0528 -0.0455 -0.0573
60607DOD     C225641  26.101  25.660  27.325 -0.2183 -0.1647  0.0315
60607DOD     C325642  26.004  25.243  27.057  0.3750 -0.0290 -0.3206
60608DOD     C125643   9.408   4.235  23.522  0.0776 -0.0302  0.1712
60608DOD     C225644   8.969   4.327  23.272  0.3333  0.1595 -0.0339
60608DOD     C325645   8.504   4.132  23.196 -0.1860  0.1780 -0.1174
60609DOD     C125646   3.005   6.345   5.194  0.2487 -0.2052  0.1769
60609DOD     C225647   2.571   6.264   5.365 -0.1986  0.0916  0.1799
60609DOD     C325648   2.495   5.869   5.615 -0.0428  0.2292 -0.0160
60610DOD     C125649   2.499  16.718  23.041  0.0274 -0.0859  0.1346
60610DOD     C225650   2.248  17.037  22.866 -0.0510  0.1054 -0.0172
60610DOD     C325651   2.022  17.366  22.714  0.0316  0.1144 -0.1089
60611DOD     C125652   1.076   8.400   3.170 -0.3855 -0.0364  0.0135
60611DOD     C225653   0.950   8.089   2.835 -0.0667 -0.0184 -0.0155
60611DOD     C325654   0.805   7.689   2.619 -0.4453 -0.3183  0.0898
60612DOD     C125655  12.200   8.400  23.093  0.1697 -0.1855  0.2748
60612DOD     C225656  11.849   8.681  23.083 -0.3134  0.0075 -0.2565
60612DOD     C325657  11.696   8.587  23.438  0.0756  0.3764 -0.1732
60613DOD     C125658   8.443   5.664  13.505 -0.1042 -0.2512 -0.0599
60613DOD     C225659   8.556   6.030  13.799 -0.1151  0.2434 -0.1856
60613DOD     C325660   8.591   6.471  13.820  0.0444 -0.1188  0.0440
60614DOD     C125661  12.125  15.640  13.534  0.0262 -0.1360  0.3673
60614DOD     C225662  12.373  15.955  13.795  0.1627  0.0074  0.0923
60614DOD     C325663  12.561  16.348  13.895  0.0323 -0.2806 -0.0152
60615DOD     C125664   6.633  27.602  24.334 -0.3197  0.2138  0.2576
60615DOD     C225665   6.256  27.751  24.172 -0.0882  0.2720  0.1338
60615DOD     C325666   6.180  27.602  23.743  0.2139  0.0666 -0.0005
60616DOD     C125667  18.920  23.187  17.860 -0.0009  0.3252  0.3327
60616DOD     C225668  18.731  23.054  18.310 -0.1593  0.3869  0.0773
60616DOD     C325669  18.560  22.972  18.688 -0.0338  0.2787  0.2958
60617DOD     C125670   3.860  24.856   4.048  0.4030 -0.0700  0.1248
60617DOD     C225671   3.621  25.294   4.042 -0.1532  0.0761 -0.2162
60617DOD     C325672   3.733  25.767   3.929 -0.0055  0.0628  0.0857
60618DOD     C125673  28.031  19.541  22.406  0.3320 -0.1765 -0.1357
60618DOD     C225674  28.317  19.315  22.755  0.0576 -0.3870 -0.0431
60618DOD     C325675  28.221  19.120  23.150  0.1480  0.0435  0.1060
60619DOD     C125676  28.922  10.976  16.967  0.0075 -0.2700  0.2185
60619DOD     C225677  28.928  11.395  17.130  0.1614  0.0369 -0.1381
60619DOD     C325678  28.871  11.854  17.292 -0.3007 -0.0027 -0.1495
60620DOD     C125679  25.869  22.075   8.250  0.3001 -0.0311  0.0263
60620DOD     C225680  25.814  21.609   8.062 -0.2172  0.0221  0.1418
60620DOD     C325681  25.458  21.297   8.047  0.2520 -0.0510  0.2789
60621DOD     C125682  17.728   5.644   3.628 -0.2446 -0.0139 -0.0299
60621DOD     C225683  17.590   5.494   3.190  0.3166  0.3119 -0.1272
60621DOD     C325684  17.515   5.738   2.796  0.2969  0.1064  0.1165
60622DOD     C125685  19.660  27.723   0.940  0.1541 -0.3900 -0.1616
60622DOD     C225686  20.000  27.806   0.593  0.1209  0.0198 -0.0993
60622DOD     C325687  19.992  27.710   0.131  0.1857 -0.0915  0.2102
60623DOD     C125688  20.069  11.553  18.611  0.3789 -0.2917  0.0335
60623DOD     C225689  20.380  11.236  18.487  0.2645  0.1316  0.1666
60623DOD     C325690  20.515  10.727  18.446  0.1504 -0.0224  0.0116
60624DOD     C125691  16.853  18.732   5.715  0.0537  0.1523  0.2492
60624DOD     C225692  16.893  18.605   5.230  0.1995 -0.0404  0.3505
60624DOD     C325693  16.757  18.631   4.866 -0.2110 -0.2113  0.2110
60625DOD     C125694  13.909  25.788   2.724 -0.0057 -0.0737 -0.0654
60625DOD     C225695  13.790  26.247   2.561 -0.2734 -0.1068  0.2119
60625DOD     C325696  13.430  26.532   2.574 -0.1298 -0.0931 -0.2086
60626DOD     C125697   1.151   8.011   0.565 -0.0075 -0.0541  0.0078
60626DOD     C225698   1.551   7.918   0.358 -0.2491  0.2100  0.1970
60626DOD     C325699   1.780   7.584   0.162 -0.1756  0.0893 -0.0929
60627DOD     C125700  27.287   1.781   4.586  0.4455  0.0975 -0.0458
60627DOD     C225701  26.882   2.076   4.576 -0.4175 -0.1063 -0.1184
60627DOD     C325702  26.628   2.282   4.219  0.1158 -0.0523  0.2572
60628DOD     C125703  27.708  26.840  21.913  0.0683 -0.1357  0.0063
60628DOD     C225704  27.589  27.042  22.266 -0.2046  0.0367 -0.0589
60628DOD     C325705  27.246  27.215  22.522  0.0461  0.1071  0.0473
60629DOD     C125706  28.697  20.896  11.729 -0.1128 -0.2807 -0.0316
60629DOD     C225707  28.857  20.771  11.308  0.1247 -0.2906  0.0979
60629DOD     C325708  28.991  20.414  11.118 -0.2034  0.0430  0.3023
60630DOD     C125709  21.320   9.739   4.783 -0.1398 -0.2985  0.0110
60630DOD     C225710  21.090   9.611   5.198  0.0405 -0.2933 -0.2332
60630DOD     C325711  20.678   9.399   5.209  0.3057 -0.1553  0.0248
60631DOD     C125712  24.381  29.255  10.230 -0.3347  0.0061 -0.0700
60631DOD     C225713  24.762  29.106  10.409 -0.1898 -0.1790 -0.2224
60631DOD     C325714  25.158  28.813  10.535 -0.0698 -0.2006  0.0522
60632DOD     C125715  28.484  25.345  12.302  0.3455 -0.0239 -0.0819
60632DOD     C225716  28.417  25.381  11.844 -0.0467  0.2841 -0.0968
60632DOD     C325717  28.603  25.330  11.409  0.0009  0.2162  0.0287
60633DOD     C125718  26.996   4.975  29.096 -0.0554 -0.1151  0.0495
60633DOD     C225719  26.984   4.609  28.806 -0.1904 -0.2388 -0.2453
60633DOD     C325720  26.850   4.170  28.846  0.1749  0.0910  0.0421
60634DOD     C125721   6.482  17.588  20.936 -0.0842 -0.0584 -0.0490
60634DOD     C225722   6.746  17.714  21.279  0.1515 -0.0212  0.2461
60634DOD     C325723   6.963  17.526  21.624 -0.4383  0.0557  0.0563
60635DOD     C125724  27.942   5.131  26.673 -0.2112 -0.0489  0.0626
60635DOD     C225725  27.660   5.276  26.944  0.2888  0.0687  0.2588
60635DOD     C325726  27.369   5.130  27.328 -0.0450  0.2082 -0.4088
60636DOD     C125727  16.570  21.176  29.469  0.1025  0.2785 -0.0098
60636DOD     C225728  17.031  21.153  29.573 -0.3136 -0.1236  0.0905
60636DOD     C325729  17.395  21.417  29.489  0.3504  0.1834 -0.1897
60637DOD     C125730  25.332  27.600  21.816 -0.0008  0.1191  0.2786
60637DOD     C225731  25.313  27.356  22.200  0.3055 -0.3712 -0.0701
60637DOD     C325732  25.350  27.192  22.630  0.2790 -0.0967 -0.0052
60638DOD     C125733  27.329  19.137  27.302 -0.2261  0.1710  0.2605
60638DOD     C225734  27.354  18.934  26.851  0.2366  0.0516  0.1439
60638DOD     C325735  27.204  18.739  26.446  0.0728  0.0211  0.2076
60639DOD     C125736  16.936  13.260   0.943 -0.0394  0.0802  0.0329
60639DOD     C225737  17.063  12.867   0.727  0.0898 -0.0162  0.1904
60639DOD     C325738  17.350  12.699   0.376 -0.0500  0.2099  0.2200
60640DOD     C125739  17.853   9.687  14.846 -0.1429 -0.1416 -0.3602
60640DOD     C225740  17.934   9.230  14.671 -0.0164  0.2254 -0.3227
60640DOD     C325741  18.197   8.782  14.723  0.0203 -0.1618  0.1915
60641DOD     C125742   5.097   8.305  16.699  0.0712 -0.1361  0.2281
60641DOD     C225743   5.228   8.175  16.311  0.0871  0.1405 -0.0155
60641DOD     C325744   5.058   8.133  15.880 -0.1543 -0.1372 -0.3581
60642DOD     C125745  21.753  30.037  26.558  0.2638 -0.0918  0.0142
60642DOD     C225746  22.122  30.290  26.400  0.2852  0.2196  0.1423
60642DOD     C325747  22.402   0.301  26.138 -0.0745  0.1241  0.1786
60643DOD     C125748  10.250  25.209  24.896  0.0890 -0.2463 -0.2384
60643DOD     C225749  10.158  24.811  25.108 -0.3282 -0.2119 -0.0141
60643DOD     C325750  10.204  24.319  25.185 -0.1038 -0.2913  0.1283
60644DOD     C125751  29.663  25.243  15.454 -0.0891 -0.1997  0.0625
60644DOD     C225752  29.229  25.073  15.389  0.0846  0.0470 -0.3257
60644DOD     C325753  28.853  24.896  15.217  0.1217  0.1451  0.1618
60645DOD     C125754   0.573   6.140   8.563  0.0235  0.2406  0.0553
60645DOD     C225755   0.851   5.969   8.256 -0.0778  0.0328  0.0237
60645DOD     C325756   0.816   6.011   7.774  0.1158  0.0141 -0.4113
60646DOD     C125757  10.395  21.845   6.176 -0.4071 -0.1346 -0.0554
60646DOD     C225758  10.857  21.994   6.162 -0.2821 -0.2467  0.0202
60646DOD     C325759  11.302  22.042   6.205 -0.1887  0.0913 -0.0877
60647DOD     C125760   4.741  17.548   2.672 -0.0553  0.0262  0.1218
60647DOD     C225761   4.813  17.238   3.027  0.2263  0.0681  0.1218
60647DOD     C325762   4.746  17.152   3.480  0.0917 -0.2676 -0.3285
60648DOD     C125763   8.227  15.438  30.224  0.3100 -0.0206  0.6446
60648DOD     C225764   8.509  15.313  29.868  0.3244  0.0410  0.0784
60648DOD     C325765   8.878  15.201  29.682  0.2989 -0.1850 -0.0723
60649DOD     C125766   1.319  14.925  12.365  0.3011 -0.3361  0.1094
60649DOD     C225767   1.413  14.666  11.994 -0.0087  0.0059 -0.4002
60649DOD     C325768   1.549  14.782  11.598 -0.0578 -0.0658  0.4253
60650DOD     C125769  14.939  25.832  12.779  0.5353 -0.0825 -0.1431
60650DOD     C225770  15.310  26.010  12.535 -0.1519 -0.1177 -0.0119
60650DOD     C325771  15.638  26.197  12.230 -0.0780 -0.0895  0.2457
60651DOD     C125772   4.661  24.165  28.080 -0.0041 -0.1748  0.0142
60651DOD     C225773   4.583  23.701  28.267  0.0732 -0.4224  0.1993
60651DOD     C325774   4.570  23.224  28.255 -0.0809  0.0951  0.0686
60652DOD     C125775   3.673   8.517   9.251 -0.0214  0.0039 -0.0245
60652DOD     C225776   3.358   8.255   9.392  0.0987  0.1749 -0.1695
60652DOD     C325777   3.286   7.807   9.516  0.2056  0.1411  0.0422
60653DOD     C125778  30.150  12.685  24.839  0.1926 -0.3014  0.0550
60653DOD     C225779  29.703  12.710  24.989 -0.3580 -0.3811  0.1101
60653DOD     C325780  29.446  13.030  24.894  0.1406 -0.2776  0.1199
60654DOD     C125781  27.684  16.447   6.909  0.2805  0.1142 -0.1735
60654DOD     C225782  27.431  16.690   6.604  0.4015 -0.1415  0.2061
60654DOD     C325783  27.497  16.980   6.232 -0.0716 -0.0683 -0.2414
60655DOD     C125784   2.959  25.612  20.563  0.0521  0.0814  0.3812
60655DOD     C225785   2.517  25.378  20.589  0.2466  0.0572 -0.2178
60655DOD     C325786   2.288  25.168  20.266 -0.0905 -0.0944  0.0016
60656DOD     C125787  27.391  25.715  19.557  0.0919 -0.0372 -0.0199
60656DOD     C225788  27.340  25.245  19.496  0.0832 -0.1951  0.1283
60656DOD     C325789  27.091  24.873  19.247  0.0840  0.0526 -0.3407
60657DOD     C125790   3.618   8.256   1.385 -0.4911  0.0192 -0.1540
60657DOD     C225791   3.599   7.950   1.042  0.1446 -0.0683 -0.1801
60657DOD     C325792   3.961   7.665   0.905 -0.0341  0.2017 -0.1030
60658DOD     C125793   2.547  26.330  18.936  0.0600 -0.2416 -0.0001
60658DOD     C225794   2.383  26.669  19.269 -0.2956 -0.1015 -0.0228
60658DOD     C325795   2.593  27.003  19.595 -0.2736 -0.1369  0.1957
60659DOD     C125796  21.749   2.780   6.475 -0.1094 -0.1686  0.0087
60659DOD     C225797  22.123   2.572   6.192 -0.1288 -0.1806 -0.0750
60659DOD     C325798  22.543   2.368   6.168 -0.5258  0.0634 -0.4026
60660DOD     C125799  11.888  25.202   3.980 -0.1997  0.1093  0.3176
60660DOD     C225800  12.028  24.979   3.589  0.1567 -0.2007  0.1419
60660DOD     C325801  12.133  24.583   3.444  0.0770  0.0091 -0.1011
60661DOD     C125802  20.751  15.982   7.853 -0.0170  0.2717  0.0963
60661DOD     C225803  21.016  15.786   7.523 -0.0939  0.1795 -0.3010
60661DOD     C325804  20.866  15.834   7.114  0.0314  0.0274  0.0542
60662DOD     C125805   9.583   6.903  26.210 -0.1342  0.0497  0.0684
60662DOD     C225806   9.261   7.108  25.969 -0.1514 -0.0661  0.0805
60662DOD     C325807   8.949   7.280  25.658 -0.2316 -0.1058  0.1095
60663DOD     C125808  20.543   8.520  22.517  0.3828  0.2248 -0.0145
60663DOD     C225809  20.105   8.620  22.346 -0.0617  0.0301 -0.3879
60663DOD     C325810  19.784   8.602  22.003  0.0057 -0.1402  0.1053
60664DOD     C125811   9.954  12.802  25.938  0.0079  0.0287 -0.3264
60664DOD     C225812   9.693  13.185  26.078 -0.1119  0.3419  0.2344
60664DOD     C325813   9.336  13.463  26.203  0.0432  0.0329 -0.0590
60665DOD     C125814  14.323  17.844  11.036  0.1533  0.3316  0.0531
60665DOD     C225815  14.454  18.314  11.009  0.0970  0.0225 -0.0615
60665DOD     C325816  14.617  18.747  10.960  0.3959 -0.0234  0.0217
60666DOD     C125817   4.225  12.967  11.118  0.0294 -0.2148  0.3847
60666DOD     C225818   4.511  12.719  10.834  0.2320 -0.3269 -0.1274
60666DOD     C325819   4.575  12.390  10.475 -0.4666 -0.2164  0.2377
60667DOD     C125820  26.558  12.719  23.243  0.3250 -0.0655 -0.2158
60667DOD     C225821  26.254  12.993  23.032 -0.4144  0.1920 -0.0738
60667DOD     C325822  26.077  13.267  22.614 -0.1530 -0.0825 -0.0570
60668DOD     C125823  16.296   4.245  13.312 -0.3846  0.0035  0.2037
60668DOD     C225824  16.499   3.959  13.031  0.0390 -0.1212  0.0462
60668DOD     C325825  16.549   3.562  12.718 -0.0702 -0.2537  0.1245
60669DOD     C125826  12.144   9.506   2.385 -0.3783 -0.0144  0.1272
60669DOD     C225827  12.532   9.178   2.356  0.1829 -0.1053  0.0670
60669DOD     C325828  13.010   9.074   2.418  0.1288 -0.0270  0.0606
60670DOD     C125829   9.994   4.419   4.341 -0.0963  0.0224 -0.2068
60670DOD     C225830   9.958   4.664   4.715  0.1738 -0.0933 -0.1528
60670DOD     C325831   9.743   5.048   4.887 -0.3485  0.0264  0.0961
60671DOD     C125832  18.100   9.193  28.266 -0.1159  0.0257 -0.1931
60671DOD     C225833  17.825   9.622  28.404  0.0737 -0.0615  0.0224
60671DOD     C325834  17.757   9.986  28.142 -0.2379 -0.3862 -0.2448
60672DOD     C125835   0.630   5.518  25.087  0.2175 -0.1025  0.0722
60672DOD     C225836   0.659   5.963  24.958 -0.1790  0.2057  0.1402
60672DOD     C325837   0.928   6.252  24.662  0.0983  0.0405 -0.0557
60673DOD     C125838  25.110  18.627   3.481 -0.2812 -0.1194  0.1128
60673DOD     C225839  24.834  18.751   3.082  0.2139  0.1527  0.0027
60673DOD     C325840  24.773  18.930   2.646  0.0107 -0.0591  0.0978
60674DOD     C125841  29.939  16.291   6.419  0.2467  0.2194 -0.1338
60674DOD     C225842  29.975  16.774   6.323  0.0702 -0.1584  0.2244
60674DOD     C325843  29.913  17.225   6.308  0.2835  0.2955  0.3405
60675DOD     C125844  22.951  22.055   5.784  0.0699 -0.3390  0.2040
60675DOD     C225845  23.083  22.418   6.073  0.0203  0.1460 -0.1992
60675DOD     C325846  23.202  22.882   5.991 -0.1162  0.0378 -0.0282
60676DOD     C125847  12.846  26.873  13.121 -0.0878 -0.0267 -0.1752
60676DOD     C225848  12.728  26.947  12.709  0.1303  0.1528 -0.2652
60676DOD     C325849  12.775  27.352  12.456 -0.2457  0.0889 -0.0650
60677DOD     C125850  10.960  26.101  13.031 -0.1919  0.0808 -0.2274
60677DOD     C225851  10.950  26.010  12.578 -0.3088  0.0651 -0.0475
60677DOD     C325852  11.327  26.129  12.244  0.1291 -0.2592 -0.2636
60678DOD     C125853  12.166  14.876   7.587  0.3020 -0.0557  0.0092
60678DOD     C225854  12.624  14.790   7.736 -0.2556 -0.1469  0.3334
60678DOD     C325855  12.892  14.432   7.751  0.0426 -0.0952  0.1186
60679DOD     C125856  25.741  13.754  26.178 -0.1107 -0.0092 -0.0510
60679DOD     C225857  25.780  14.244  26.174 -0.1183 -0.2158  0.2869
60679DOD     C325858  25.849  14.641  25.936 -0.0688 -0.1940  0.0249
60680DOD     C125859  16.629  27.543   8.087  0.0822  0.0643  0.2231
60680DOD     C225860  16.560  27.207   8.388 -0.0965 -0.2768 -0.3492
60680DOD     C325861  16.685  26.867   8.641  0.1854 -0.1375  0.1226
60681DOD     C125862  11.760  29.670  30.069 -0.0372  0.2700  0.3083
60681DOD     C225863  12.037  30.012  29.885  0.0473  0.1458 -0.0903
60681DOD     C325864  12.233   0.050  29.687  0.1708  0.1412  0.2464
60682DOD     C125865  20.374  21.006   3.474  0.1220  0.1568 -0.1065
60682DOD     C225866  19.973  21.052   3.698  0.1765  0.3014 -0.1185
60682DOD     C325867  19.584  21.262   3.629  0.1535  0.1388  0.0512
60683DOD     C125868  25.284  12.843   9.406 -0.0139  0.0783 -0.1726
60683DOD     C225869  25.522  12.751   9.798 -0.1954  0.3440  0.0227
60683DOD     C325870  25.894  12.559  10.061 -0.3788  0.0288 -0.0379
60684DOD     C125871  15.765  16.568  13.645  0.0829 -0.0007 -0.1365
60684DOD     C225872  15.978  16.215  13.455  0.1219  0.1039  0.0708
60684DOD     C325873  16.205  16.115  13.021  0.0216  0.1774 -0.1097
60685DOD     C125874   6.894  28.040   2.075 -0.1543 -0.0279  0.2302
60685DOD     C225875   7.156  28.309   1.869 -0.1614 -0.1298  0.0266
60685DOD     C325876   7.519  28.160   1.552  0.1568 -0.0873  0.0303
60686DOD     C125877  15.701   4.832   5.671  0.0113  0.0806 -0.1139
60686DOD     C225878  15.448   4.417   5.581 -0.0261 -0.1215 -0.0748
60686DOD     C325879  15.441   3.940   5.600  0.1004 -0.0743  0.1707
60687DOD     C125880  21.878  25.579  18.663 -0.2863  0.1534 -0.1276
60687DOD     C225881  21.769  25.722  19.103  0.0652 -0.0749 -0.0781
60687DOD     C325882  21.692  26.131  19.322 -0.0766  0.1672  0.2563
60688DOD     C125883   3.076  27.617   2.794  0.3202  0.1035  0.1667
60688DOD     C225884   3.526  27.787   2.707  0.1514 -0.0979  0.1578
60688DOD     C325885   4.013  27.996   2.682  0.1184  0.0231  0.2059
60689DOD     C125886  20.411  21.589  21.357  0.1698 -0.0494 -0.0062
60689DOD     C225887  20.390  21.087  21.304 -0.1937  0.0192 -0.4437
60689DOD     C325888  20.091  20.747  21.350  0.0020  0.0054 -0.0201
60690DOD     C125889   6.617  27.492   3.820 -0.1108 -0.0264 -0.0837
60690DOD     C225890   6.692  27.138   4.111 -0.0111  0.3571 -0.2846
60690DOD     C325891   7.087  26.912   4.127  0.0206  0.1199  0.0412
60691DOD     C125892  28.884  11.665   6.925 -0.1524 -0.1450 -0.1453
60691DOD     C225893  28.512  11.579   7.172  0.2895  0.2319  0.0335
60691DOD     C325894  28.090  11.405   7.223  0.1248 -0.1393 -0.1997
60692DOD     C125895  22.233  24.873  24.616 -0.0326  0.0425  0.2623
60692DOD     C225896  22.277  25.311  24.748 -0.0538  0.3559  0.0860
60692DOD     C325897  22.345  25.697  24.909 -0.0904 -0.1265  0.0580
60693DOD     C125898  15.561   7.246   4.171 -0.0600 -0.0065 -0.0607
60693DOD     C225899  15.655   7.595   4.534 -0.2425  0.3091 -0.1270
60693DOD     C325900  15.605   7.873   4.880  0.1570 -0.0993  0.0754
60694DOD     C125901   3.709  17.974  14.247 -0.2534  0.0043 -0.2952
60694DOD     C225902   3.324  18.014  14.040  0.3400 -0.1136  0.0621
60694DOD     C325903   2.982  17.817  13.758 -0.1541 -0.0898 -0.0305
60695DOD     C125904   3.818  18.799   2.280 -0.3839  0.0051  0.1855
60695DOD     C225905   3.451  19.062   2.077  0.0087  0.4872  0.0015
60695DOD     C325906   3.120  19.279   1.895  0.0175  0.1770  0.3713
60696DOD     C125907  13.632   6.986   7.076 -0.0615 -0.3370 -0.2351
60696DOD     C225908  13.738   7.366   6.778 -0.1700  0.0083 -0.2161
60696DOD     C325909  13.746   7.682   6.430  0.0698  0.2129  0.0846
60697DOD     C125910  22.967   5.075  12.434 -0.0294  0.2642 -0.1591
60697DOD     C225911  23.300   5.274  12.149  0.0415  0.0906 -0.0146
60697DOD     C325912  23.672   5.425  12.344 -0.3643 -0.3920  0.5652
60698DOD     C125913  10.854  17.651  16.883  0.0501  0.0800  0.0268
60698DOD     C225914  10.517  17.343  16.836  0.2972  0.0491 -0.0837
60698DOD     C325915  10.051  17.327  16.958  0.2528  0.0742  0.2919
60699DOD     C125916  22.140  14.431  12.778 -0.2077  0.0477 -0.1659
60699DOD     C225917  22.298  14.175  13.130  0.1285  0.0480  0.1438
60699DOD     C325918  22.066  13.962  13.491  0.6153  0.1239 -0.3632
60700DOD     C125919  14.316  30.089  13.822 -0.0664 -0.1380 -0.0186
60700DOD     C225920  14.635  29.999  14.208  0.0416  0.2634 -0.3739
60700DOD     C325921  14.923  30.012  14.542  0.0118  0.1605  0.2069
60701DOD     C125922  20.048  28.044   4.504 -0.1410 -0.3364  0.0167
60701DOD     C225923  19.858  28.034   4.099  0.1706  0.0765 -0.2648
60701DOD     C325924  19.929  28.122   3.629  0.0988  0.1226  0.2752
60702DOD     C125925  27.821  18.987  27.414 -0.0693  0.2546  0.1830
60702DOD     C225926  27.545  18.673  27.378  0.2823  0.1049  0.1643
60702DOD     C325927  27.100  18.463  27.475  0.2589  0.1662  0.1459
60703DOD     C125928  14.152  16.181  21.123 -0.0891  0.2148 -0.1666
60703DOD     C225929  14.492  15.855  21.066  0.0139  0.0202  0.1980
60703DOD     C325930  14.774  15.663  21.420 -0.2092 -0.0479  0.2753
60704DOD     C125931  21.979   3.256  12.252  0.1595 -0.2763  0.0528
60704DOD     C225932  22.111   3.297  12.656 -0.0575 -0.1945 -0.3063
60704DOD     C325933  22.304   2.890  12.883 -0.3228  0.1129 -0.1358
60705DOD     C125934  14.173   5.765  24.301 -0.0402 -0.0433 -0.1983
60705DOD     C225935  13.992   5.425  24.533 -0.1223 -0.3280 -0.2849
60705DOD     C325936  13.955   5.148  24.893 -0.0209  0.0367 -0.2342
60706DOD     C125937  14.568  28.699   9.492 -0.0495  0.1337 -0.1724
60706DOD     C225938  14.888  28.428   9.226 -0.2569  0.1946 -0.1987
60706DOD     C325939  15.218  28.273   9.395  0.2202  0.0857  0.2666
60707DOD     C125940  19.306  28.332  12.063  0.3045 -0.0456 -0.1573
60707DOD     C225941  18.994  28.695  12.241 -0.1291  0.0852  0.2372
60707DOD     C325942  18.959  29.120  12.479  0.0285  0.0977 -0.2734
60708DOD     C125943  17.456  20.915   7.285  0.2152  0.0274 -0.0569
60708DOD     C225944  17.164  21.034   7.583 -0.2829  0.0081  0.0005
60708DOD     C325945  17.060  20.950   8.075  0.2595  0.0931  0.2200
60709DOD     C125946  26.395  19.632  19.648  0.0432 -0.0275  0.3658
60709DOD     C225947  26.520  19.322  19.304 -0.1119 -0.1046  0.3311
60709DOD     C325948  26.567  18.877  19.126  0.2372 -0.3719 -0.0402
60710DOD     C125949  26.781  20.206   5.031  0.0396 -0.1625  0.1650
60710DOD     C225950  27.163  20.125   4.765  0.2437 -0.2141  0.0704
60710DOD     C325951  27.566  19.945   4.615  0.0622  0.1426 -0.2551
60711DOD     C125952  16.572  25.915  26.735 -0.1274 -0.0702  0.1154
60711DOD     C225953  16.461  25.463  26.762  0.2685 -0.2054 -0.0820
60711DOD     C325954  16.149  25.051  26.889  0.1392 -0.1136 -0.0152
60712DOD     C125955  17.201  23.634  13.352  0.1489  0.3042  0.0816
60712DOD     C225956  17.280  23.166  13.329 -0.0609 -0.3964 -0.0373
60712DOD     C325957  16.952  22.881  13.108  0.2542 -0.0466 -0.2088
60713DOD     C125958  13.635  27.350  18.110 -0.0944 -0.0339  0.3456
60713DOD     C225959  13.800  27.527  17.694  0.0655  0.1856 -0.2058
60713DOD     C325960  14.295  27.460  17.692 -0.3389  0.0939 -0.3258
60714DOD     C125961  20.941  10.413  28.546 -0.3532 -0.2610 -0.2453
60714DOD     C225962  21.393  10.603  28.581  0.0421 -0.0802 -0.1545
60714DOD     C325963  21.830  10.480  28.671 -0.0782  0.1476 -0.2513
60715DOD     C125964  22.589  21.530   5.097 -0.1378 -0.3777 -0.1108
60715DOD     C225965  22.415  21.194   4.801  0.1264  0.0978 -0.0380
60715DOD     C325966  22.205  21.126   4.408 -0.0596  0.0110  0.2132
60716DOD     C125967  12.701   0.096   3.432 -0.1478 -0.2958 -0.0551
60716DOD     C225968  12.496  30.030   3.282 -0.0298  0.1544  0.1323
60716DOD     C325969  12.050  29.896   3.265  0.1433 -0.0036  0.2543
60717DOD     C125970  16.867  27.876  17.306 -0.2156  0.1750  0.0992
60717DOD     C225971  16.446  27.812  17.524  0.4297 -0.1163  0.3053
60717DOD     C325972  15.998  27.828  17.304 -0.1862 -0.2872  0.0176
60718DOD     C125973  10.558  18.348  10.997  0.2346  0.1871 -0.0388
60718DOD     C225974  10.244  17.983  11.100 -0.0961 -0.2222  0.0293
60718DOD     C325975  10.170  17.582  11.359  0.1126  0.1866  0.3011
60719DOD     C125976  15.763  23.579  23.390  0.0084 -0.1167  0.2564
60719DOD     C225977  15.698  23.503  23.888  0.0336  0.0886 -0.0715
60719DOD     C325978  15.459  23.738  24.238 -0.2571 -0.1067 -0.1439
60720DOD     C125979  10.234  28.030  25.494 -0.0607  0.1074 -0.1218
60720DOD     C225980   9.913  27.895  25.194 -0.0957  0.0131  0.0283
60720DOD     C325981   9.655  28.186  25.019 -0.1696 -0.0172  0.0219
60721DOD     C125982  19.199  29.852  21.549 -0.1521  0.2664 -0.0216
60721DOD     C225983  19.379  29.998  21.997  0.0344  0.0905  0.3621
60721DOD     C325984  19.802  29.781  22.140 -0.1043  0.1301  0.2560
60722DOD     C125985  15.069  21.339  24.168 -0.1740  0.1693 -0.3281
60722DOD     C225986  15.489  21.374  24.397 -0.1048  0.0281  0.0482
60722DOD     C325987  15.836  21.369  24.688 -0.2471 -0.2095 -0.4004
60723DOD     C125988  19.747   2.535  29.009 -0.0533  0.2991 -0.1153
60723DOD     C225989  20.016   2.242  29.227  0.0164  0.0229  0.0953
60723DOD     C325990  19.983   1.827  29.433 -0.2965 -0.0394  0.2739
60724DOD     C125991   8.537  27.825  15.231  0.1654 -0.1324  0.0142
60724DOD     C225992   8.867  27.519  15.266  0.0074 -0.0133 -0.0034
60724DOD     C325993   8.747  27.146  15.144 -0.0184 -0.0403  0.0712
60725DOD     C125994   0.161   0.460  21.784 -0.2075  0.2156  0.3121
60725DOD     C225995   0.574   0.562  21.502  0.0463 -0.1413 -0.2251
60725DOD     C325996   0.831   0.235  21.179  0.0947  0.0050  0.2407
60726DOD     C125997   2.679  27.905   9.935 -0.2576 -0.1074  0.1665
60726DOD     C225998   2.366  28.031   9.644  0.1207 -0.1605  0.1209
60726DOD     C325999   1.865  28.057   9.675  0.1819  0.1311 -0.0173
60727DOD     C126000  16.728  13.987  11.272 -0.0472  0.0508  0.1777
60727DOD     C226001  17.123  14.055  11.449  0.0557 -0.2382  0.0726
60727DOD     C326002  17.493  14.345  11.630  0.0274  0.0799 -0.0586
60728DOD     C126003  17.155  14.137  10.484 -0.0117 -0.1761  0.0318
60728DOD     C226004  17.102  14.094  10.055  0.1752 -0.1404 -0.0069
60728DOD     C326005  16.814  13.834   9.727  0.2007 -0.0658 -0.3546
60729DOD     C126006  11.970  17.868   7.974 -0.1394 -0.1875  0.1845
60729DOD     C226007  11.986  17.503   7.655 -0.0104  0.0556  0.1883
60729DOD     C326008  12.091  17.355   7.171 -0.1077  0.0251 -0.1556
60730DOD     C126009  21.966  20.892  20.958 -0.0250  0.0243 -0.1721
60730DOD     C226010  21.600  21.146  20.857 -0.0987  0.0042 -0.2639
60730DOD     C326011  21.325  20.996  20.536  0.2107  0.0882 -0.1142
60731DOD     C126012  28.398  16.049   6.329  0.1249 -0.2862  0.3167
60731DOD     C226013  28.527  15.650   6.600  0.0661  0.0755 -0.2776
60731DOD     C326014  28.283  15.344   6.834  0.0264  0.3462  0.1368
60732DOD     C126015   5.861  20.439  13.331  0.1570 -0.0321 -0.0333
60732DOD     C226016   6.016  20.557  12.947 -0.2262  0.1587  0.0625
60732DOD     C326017   6.401  20.445  12.783  0.0074 -0.0423 -0.0885
60733DOD     C126018  29.095  28.355  23.193 -0.1205 -0.0629  0.1240
60733DOD     C226019  29.331  28.005  23.028 -0.0192  0.2386 -0.1568
60733DOD     C326020  29.692  27.856  22.758  0.1842  0.0693  0.0544
60734DOD     C126021   5.454  26.838  18.216 -0.1996 -0.0878 -0.0977
60734DOD     C226022   5.041  26.930  18.121 -0.0496 -0.1084  0.0035
60734DOD     C326023   4.559  26.989  18.065 -0.0128  0.3336 -0.1723
60735DOD     C126024   7.483  23.822  14.471  0.2588  0.2231  0.1464
60735DOD     C226025   7.489  24.197  14.145 -0.2596 -0.1471 -0.1292
60735DOD     C326026   7.534  24.458  13.775 -0.0966  0.1759  0.2204
60736DOD     C126027   7.515  14.681  15.305  0.0091  0.0054  0.2174
60736DOD     C226028   7.628  15.137  15.357  0.0518  0.1119  0.2166
60736DOD     C326029   7.461  15.569  15.463  0.0768 -0.3347 -0.3318
60737DOD     C126030   2.465   4.271  25.133 -0.1708  0.0782  0.1607
60737DOD     C226031   2.590   4.709  25.081 -0.0534 -0.0686 -0.3674
60737DOD     C326032   2.524   5.094  24.876 -0.0152  0.1604  0.1534
60738DOD     C126033  21.670  12.980  22.950 -0.1158  0.1152 -0.1913
60738DOD     C226034  21.216  13.110  23.018  0.3551  0.0008  0.0106
60738DOD     C326035  20.798  13.017  22.761  0.1292 -0.3227 -0.3276
60739DOD     C126036   5.306  28.345  12.073  0.0211  0.1805 -0.0351
60739DOD     C226037   5.372  28.436  11.661 -0.1422 -0.0275  0.1293
60739DOD     C326038   5.230  28.330  11.256  0.2752  0.2260 -0.0081
60740DOD     C126039  29.592  28.140  13.394 -0.0215 -0.0543  0.0400
60740DOD     C226040  29.852  28.403  13.167 -0.1145 -0.3519 -0.1423
60740DOD     C326041  30.097  28.797  13.264  0.2136 -0.2391 -0.2321
60741DOD     C126042  11.845   8.761  26.006  0.5900  0.5061 -0.2856
60741DOD     C226043  11.564   8.668  25.655 -0.1795  0.1643 -0.0631
60741DOD     C326044  11.477   8.314  25.425  0.0125 -0.0211 -0.0977
60742DOD     C126045  12.677  25.026   2.857  0.0764 -0.1643  0.0667
60742DOD     C226046  12.549  25.436   2.710  0.1003  0.2206 -0.0630
60742DOD     C326047  12.163  25.676   2.515  0.3121  0.0021 -0.0169
60743DOD     C126048   9.590  16.668  22.773  0.2076 -0.0237 -0.2028
60743DOD     C226049   9.669  16.882  22.372  0.2245  0.2169  0.0795
60743DOD     C326050   9.854  16.930  21.925  0.0987 -0.0098 -0.2181
60744DOD     C126051   8.698  22.504  24.556  0.0623 -0.0427  0.1901
60744DOD     C226052   8.297  22.312  24.557  0.0189 -0.5255 -0.0297
60744DOD     C326053   7.839  22.122  24.510 -0.0417  0.0481 -0.0442
60745DOD     C126054  21.008   8.162  30.180  0.1961  0.2108 -0.0019
60745DOD     C226055  21.463   8.227  30.174 -0.2065  0.1476  0.0975
60745DOD     C326056  21.908   8.219  30.194 -0.1295  0.4142 -0.1570
60746DOD     C126057   9.674  18.208  20.089 -0.0395 -0.0867  0.0222
60746DOD     C226058   9.327  18.343  19.747 -0.1553 -0.0883 -0.1132
60746DOD     C326059   9.247  18.058  19.403 -0.1082 -0.0717 -0.2570
60747DOD     C126060  10.204  10.835  22.115  0.2057 -0.0933  0.1014
60747DOD     C226061  10.115  11.011  22.496  0.0003 -0.1789  0.1969
60747DOD     C326062  10.136  10.980  22.983  0.0047  0.1985 -0.0284
60748DOD     C126063   7.671  17.785  25.602 -0.1092  0.1065  0.1706
60748DOD     C226064   7.747  18.194  25.680 -0.1264  0.0451 -0.3043
60748DOD     C326065   7.841  18.578  25.425 -0.4403  0.0030  0.0598
60749DOD     C126066  10.546  13.679   8.306 -0.3547 -0.1052 -0.0985
60749DOD     C226067  10.102  13.576   8.455 -0.0050  0.1145 -0.0638
60749DOD     C326068   9.954  13.199   8.552 -0.1177  0.0166 -0.1104
60750DOD     C126069  18.937  16.692  22.359  0.2216  0.1583 -0.0540
60750DOD     C226070  19.296  16.745  22.126  0.3825 -0.1696  0.0146
60750DOD     C326071  19.469  16.802  21.701 -0.5067 -0.1022 -0.2498
60751DOD     C126072  20.316  15.113  21.807  0.1037  0.1721 -0.0667
60751DOD     C226073  20.265  15.242  21.367  0.0666 -0.2392  0.0895
60751DOD     C326074  20.401  15.706  21.207 -0.4034 -0.0403  0.1099
60752DOD     C126075  30.028   9.794  21.571 -0.4490 -0.0954 -0.0029
60752DOD     C226076  29.579   9.859  21.509  0.1387 -0.1884 -0.3457
60752DOD     C326077  29.188   9.998  21.270 -0.0986  0.0184  0.2844
60753DOD     C126078   6.128  17.739  21.245  0.1579 -0.2570  0.1353
60753DOD     C226079   5.971  17.742  21.680  0.0569  0.0690  0.0314
60753DOD     C326080   5.560  17.513  21.777  0.0997  0.1696  0.2336
60754DOD     C126081  25.164  29.561  16.942  0.1329  0.1029  0.0104
60754DOD     C226082  25.598  29.572  16.731  0.1527  0.0254 -0.0234
60754DOD     C326083  25.873  29.835  16.485  0.0625  0.0970  0.0884
60755DOD     C126084  26.530  13.443  28.838  0.2363  0.0684 -0.1023
60755DOD     C226085  26.561  13.411  29.296  0.0981 -0.1349  0.3379
60755DOD     C326086  26.352  13.174  29.619 -0.1538 -0.0306  0.1693
60756DOD     C126087   6.186   6.683   1.352 -0.1875  0.0087  0.1960
60756DOD     C226088   6.420   7.075   1.479 -0.3466  0.0863 -0.1098
60756DOD     C326089   6.753   7.419   1.424  0.1737 -0.1971  0.1854
60757DOD     C126090   1.899  22.792   3.669 -0.0284  0.3070 -0.0049
60757DOD     C226091   2.151  23.180   3.523  0.0542  0.1176  0.1060
60757DOD     C326092   2.212  23.571   3.455  0.0126  0.1699 -0.0090
60758DOD     C126093  28.477   5.951  26.987 -0.1235  0.1173  0.0744
60758DOD     C226094  28.540   6.007  27.435 -0.1128 -0.1184  0.1779
60758DOD     C326095  28.600   6.259  27.827 -0.2817  0.2542 -0.1157
60759DOD     C126096  28.699   9.522  22.461  0.1039 -0.2637  0.2823
60759DOD     C226097  29.120   9.543  22.263  0.0558 -0.0245  0.3044
60759DOD     C326098  29.299   9.468  21.798  0.0526  0.0674  0.1417
60760DOD     C126099  16.246  22.573  24.168 -0.1069  0.0031 -0.0564
60760DOD     C226100  16.226  22.949  24.411 -0.1318  0.3097  0.1972
60760DOD     C326101  16.011  23.250  24.688 -0.1517 -0.3003  0.0991
60761DOD     C126102   4.321  24.705  19.469 -0.1488  0.0806  0.0428
60761DOD     C226103   4.458  24.281  19.317 -0.4249  0.0362 -0.1492
60761DOD     C326104   4.375  23.871  19.513 -0.1272  0.2560 -0.0433
60762DOD     C126105   8.519  12.219   7.439  0.0322 -0.0583 -0.1133
60762DOD     C226106   9.003  12.083   7.342 -0.3297  0.1065  0.2491
60762DOD     C326107   9.427  12.227   7.082 -0.0785  0.0536  0.4949
60763DOD     C126108   1.794   4.772  27.478 -0.0270  0.1016  0.1459
60763DOD     C226109   1.995   4.611  27.061  0.1708  0.1337  0.0382
60763DOD     C326110   1.971   4.546  26.596  0.0251  0.1651  0.1680
60764DOD     C126111  23.269  30.171   3.525  0.0543 -0.0431 -0.2296
60764DOD     C226112  23.582   0.167   3.309 -0.0792 -0.2181  0.0525
60764DOD     C326113  23.905   0.481   3.131  0.1569 -0.0871  0.1887
60765DOD     C126114  21.085   2.383  23.906  0.0468  0.0287  0.1081
60765DOD     C226115  21.263   2.640  24.291  0.1163 -0.3629 -0.1320
60765DOD     C326116  21.124   2.702  24.771  0.0858  0.1034  0.0056
60766DOD     C126117  23.913   0.858  25.396 -0.0909 -0.1453  0.0344
60766DOD     C226118  24.029   1.277  25.211  0.3896  0.2963 -0.1221
60766DOD     C326119  24.225   1.465  24.887  0.1266  0.1573  0.0442
60767DOD     C126120  14.870  25.006  17.399  0.0827 -0.3422  0.0744
60767DOD     C226121  14.934  24.937  16.959  0.2221  0.0389 -0.1013
60767DOD     C326122  14.822  24.859  16.502  0.1479 -0.1345 -0.2546
60768DOD     C126123  16.054   0.690  28.098 -0.1952  0.0423 -0.4177
60768DOD     C226124  16.175   1.016  27.792  0.1315 -0.0216  0.1169
60768DOD     C326125  16.407   1.396  27.790 -0.0788  0.0170 -0.0082
60769DOD     C126126   7.200   5.965  10.962 -0.2224  0.0607  0.0557
60769DOD     C226127   6.795   6.145  11.130 -0.2101 -0.1616 -0.2858
60769DOD     C326128   6.355   6.227  11.338  0.2654 -0.1171  0.0759
60770DOD     C126129  15.518   9.540  19.326  0.1599  0.0211 -0.1751
60770DOD     C226130  15.602   9.844  19.640 -0.0836 -0.2331  0.0080
60770DOD     C326131  16.072  10.005  19.718  0.0636 -0.1923  0.1722
60771DOD     C126132   1.644  24.391   5.126 -0.2716 -0.1677  0.1181
60771DOD     C226133   1.862  24.051   5.421  0.1042 -0.2102  0.1381
60771DOD     C326134   2.066  23.676   5.557  0.1655 -0.2621 -0.1435
60772DOD     C126135  28.139  28.486  23.348 -0.1375  0.0811 -0.0295
60772DOD     C226136  28.277  28.005  23.348  0.2864 -0.1006 -0.1184
60772DOD     C326137  28.173  27.561  23.432 -0.3585  0.3293  0.4717
60773DOD     C126138  18.779  28.608  20.429  0.1620 -0.0261  0.0101
60773DOD     C226139  18.969  28.614  19.968 -0.2858 -0.0043 -0.0586
60773DOD     C326140  19.085  28.792  19.576  0.0308  0.0276 -0.2274
60774DOD     C126141  18.736  27.179   0.214 -0.1149  0.0146 -0.1240
60774DOD     C226142  18.518  26.852   0.545 -0.2126 -0.2779  0.0884
60774DOD     C326143  18.169  26.709   0.803 -0.2210 -0.2741 -0.0124
60775DOD     C126144  17.542  23.526  12.979  0.1693 -0.0416 -0.1357
60775DOD     C226145  17.741  23.883  13.272 -0.2572  0.1481 -0.0547
60775DOD     C326146  17.721  24.001  13.754 -0.4241 -0.1826  0.2432
60776DOD     C126147   3.256   5.028  21.955  0.1690 -0.1174 -0.0947
60776DOD     C226148   3.090   4.778  22.303 -0.1404  0.2226 -0.4513
60776DOD     C326149   3.334   4.446  22.593  0.0902 -0.0053  0.2939
60777DOD     C126150   2.562  15.432   5.699 -0.2088 -0.1592 -0.2209
60777DOD     C226151   2.303  15.500   5.298 -0.3333 -0.2298  0.1082
60777DOD     C326152   2.271  15.660   4.844 -0.2769  0.0609  0.0830
60778DOD     C126153  25.154   4.228  22.570 -0.4894 -0.1423  0.0758
60778DOD     C226154  25.247   4.294  22.176 -0.0793  0.0831  0.0208
60778DOD     C326155  25.674   4.406  22.011  0.0105 -0.1219  0.0823
60779DOD     C126156  13.658   3.396  24.682  0.1003  0.1274  0.2505
60779DOD     C226157  13.470   3.513  25.034  0.4063  0.1729 -0.0243
60779DOD     C326158  13.120   3.304  25.198 -0.3211  0.0004  0.1608
60780DOD     C126159   9.088  11.986   6.820 -0.0374 -0.0817  0.0704
60780DOD     C226160   9.520  11.750   6.856 -0.2108  0.1714  0.4686
60780DOD     C326161   9.688  11.316   6.923 -0.0213 -0.3301  0.4936
60781DOD     C126162  15.932   1.775  13.965  0.0762 -0.1307  0.1196
60781DOD     C226163  15.990   1.923  13.480 -0.0209  0.1537  0.1545
60781DOD     C326164  16.087   2.211  13.132 -0.2042  0.2295  0.3524
60782DOD     C126165   5.361  22.173   1.395  0.4252 -0.0346 -0.0552
60782DOD     C226166   5.558  21.886   1.066  0.2842  0.1015 -0.4998
60782DOD     C326167   5.637  21.412   1.124 -0.0047 -0.1622  0.1096
60783DOD     C126168  21.302   7.790  19.460 -0.1811  0.0753 -0.1766
60783DOD     C226169  21.715   7.919  19.346 -0.0345  0.0902  0.2085
60783DOD     C326170  21.871   8.330  19.247 -0.0893  0.0367 -0.2073
60784DOD     C126171  11.216   8.210   7.864  0.0144 -0.0205  0.4682
60784DOD     C226172  11.622   8.169   7.685 -0.3892  0.1465  0.1122
60784DOD     C326173  11.986   8.002   7.401 -0.2081 -0.0785  0.0201
60785DOD     C126174  28.411  27.258   7.025  0.0773 -0.0612  0.3199
60785DOD     C226175  28.192  26.830   7.088  0.0339  0.1108 -0.0029
60785DOD     C326176  27.775  26.716   7.162  0.0125  0.0574  0.0845
60786DOD     C126177  21.435  11.150  13.048  0.1133 -0.0681  0.1852
60786DOD     C226178  21.495  11.618  12.878  0.1782  0.0655  0.2211
60786DOD     C326179  21.748  11.902  12.683 -0.2935 -0.1156 -0.1207
60787DOD     C126180   2.975   4.348  16.282  0.2480 -0.0026  0.1306
60787DOD     C226181   3.318   4.442  15.999  0.2921 -0.1391 -0.1727
60787DOD     C326182   3.756   4.725  15.942  0.2098  0.0561  0.2191
60788DOD     C126183  25.708  21.621   2.916 -0.4172 -0.2325  0.2026
60788DOD     C226184  25.454  21.475   2.587  0.0379 -0.3252 -0.3808
60788DOD     C326185  24.971  21.557   2.621  0.1769  0.3782  0.1380
60789DOD     C126186  28.842  19.711  28.017  0.0779  0.2784  0.4357
60789DOD     C226187  29.268  19.958  27.994 -0.3408 -0.1652  0.2768
60789DOD     C326188  29.662  19.990  27.709  0.0723 -0.2328 -0.0162
60790DOD     C126189  30.317   3.874  16.234 -0.0836 -0.1337  0.1731
60790DOD     C226190   0.371   4.011  16.028  0.1560  0.1291 -0.0442
60790DOD     C326191   0.651   4.138  15.683  0.2930 -0.0179  0.1089
60791DOD     C126192   4.508  27.357  10.189 -0.1627  0.0829  0.1152
60791DOD     C226193   4.711  26.983  10.083  0.3232  0.0702 -0.2135
60791DOD     C326194   5.167  26.961   9.963  0.0358  0.2783 -0.0105
60792DOD     C126195  21.591   8.952  23.988 -0.0118 -0.2111  0.0768
60792DOD     C226196  21.520   8.800  23.562  0.0385 -0.1422 -0.1095
60792DOD     C326197  21.392   8.616  23.134  0.0580 -0.1954 -0.1778
60793DOD     C126198  24.873   0.917  28.630  0.0047 -0.1489 -0.2366
60793DOD     C226199  25.297   1.143  28.510 -0.3042  0.1101  0.0325
60793DOD     C326200  25.763   1.260  28.413  0.0357  0.0057 -0.1816
60794DOD     C126201   8.191  26.628  23.212  0.2254 -0.1476  0.1914
60794DOD     C226202   8.504  26.655  22.899 -0.0166  0.1426  0.1937
60794DOD     C326203   8.608  26.385  22.541 -0.3269 -0.0758 -0.2455
60795DOD     C126204  12.736   4.338  25.876 -0.3733 -0.0253  0.0142
60795DOD     C226205  12.833   4.794  25.660 -0.0340  0.0514  0.0018
60795DOD     C326206  12.661   5.304  25.656  0.1744 -0.0380 -0.0145
60796DOD     C126207  21.171  25.840  18.218 -0.1433 -0.0490  0.3465
60796DOD     C226208  20.732  25.689  18.182 -0.1425 -0.1578  0.1348
60796DOD     C326209  20.662  25.242  18.118  0.1878 -0.3862 -0.0604
60797DOD     C126210   6.767  20.060  12.465  0.2968 -0.0831  0.0202
60797DOD     C226211   6.929  20.453  12.239 -0.2481  0.2424  0.0827
60797DOD     C326212   7.213  20.700  12.477  0.2016  0.2269  0.3176
60798DOD     C126213  16.386  14.045   3.771 -0.1595 -0.0901  0.0516
60798DOD     C226214  16.849  14.172   3.643 -0.1000 -0.3482 -0.0644
60798DOD     C326215  17.241  14.320   3.485 -0.0894  0.2934  0.0828
60799DOD     C126216   4.747  23.884  16.886 -0.1480  0.0173  0.1880
60799DOD     C226217   4.488  23.844  16.534  0.0711 -0.1115  0.3172
60799DOD     C326218   4.289  23.687  16.166  0.2072  0.0689 -0.2051
60800DOD     C126219  13.228   3.147  10.820 -0.3435 -0.1365 -0.0670
60800DOD     C226220  13.116   2.824  11.110  0.3493  0.2283 -0.0591
60800DOD     C326221  12.778   2.434  11.169 -0.1404 -0.1166  0.0409
60801DOD     C126222   3.847  14.209   4.022 -0.3642  0.0754 -0.2452
60801DOD     C226223   3.685  13.764   4.035  0.3859 -0.2498  0.0713
60801DOD     C326224   3.597  13.391   4.299 -0.0829  0.0952 -0.0707
60802DOD     C126225  18.683   5.729  15.565 -0.0077  0.1063 -0.1634
60802DOD     C226226  18.920   5.676  15.987 -0.2177  0.0298 -0.0334
60802DOD     C326227  19.234   5.658  16.263 -0.1423  0.0711 -0.0866
60803DOD     C126228  13.919  13.322   4.994 -0.0185 -0.2938 -0.0174
60803DOD     C226229  13.773  12.925   5.210  0.1036 -0.3430 -0.0093
60803DOD     C326230  13.775  12.505   5.258  0.1081 -0.0009 -0.1086
60804DOD     C126231  10.400  19.509  29.317 -0.1730 -0.1347 -0.1065
60804DOD     C226232  10.531  19.128  29.246 -0.2291  0.0745  0.2064
60804DOD     C326233  10.379  18.692  29.236 -0.0250 -0.1012 -0.2382
60805DOD     C126234  19.815   8.155  25.434  0.0187  0.0812 -0.2233
60805DOD     C226235  19.816   8.173  24.915 -0.2582  0.0370  0.0956
60805DOD     C326236  19.903   7.875  24.519  0.1773 -0.0383  0.0959
60806DOD     C126237  28.427  29.460  15.309  0.3434 -0.1889 -0.0892
60806DOD     C226238  27.948  29.527  15.413  0.1330  0.1843  0.0250
60806DOD     C326239  27.597  29.687  15.633  0.1125  0.0675 -0.1503
60807DOD     C126240  27.384  12.346  10.527  0.0361  0.1438  0.0302
60807DOD     C226241  27.519  12.432  10.946  0.0655 -0.2269 -0.0709
60807DOD     C326242  27.598  12.214  11.373  0.2057 -0.1559 -0.3179
60808DOD     C126243  12.784   7.108  13.038 -0.0452  0.1113 -0.1498
60808DOD     C226244  12.478   7.210  12.694 -0.1435 -0.0571  0.0065
60808DOD     C326245  12.384   7.601  12.432  0.3776 -0.2869  0.1866
60809DOD     C126246  28.062  29.285   6.771  0.0609 -0.0565 -0.1556
60809DOD     C226247  28.510  29.380   6.728 -0.2167 -0.1274  0.0220
60809DOD     C326248  28.927  29.327   6.884  0.2226 -0.0328  0.0381
60810DOD     C126249  17.245  12.515   4.963 -0.1548 -0.0562  0.2102
60810DOD     C226250  17.212  12.080   5.050 -0.0540 -0.1512 -0.1349
60810DOD     C326251  16.912  11.739   5.092  0.1664 -0.1955  0.1489
60811DOD     C126252  25.897  26.323  12.283 -0.0812  0.0791 -0.1171
60811DOD     C226253  26.007  26.085  11.857 -0.2249 -0.0786  0.0038
60811DOD     C326254  26.167  25.681  11.745 -0.1557  0.0311 -0.0671
60812DOD     C126255  26.318   6.291  11.177 -0.3025  0.2630  0.1008
60812DOD     C226256  26.103   5.882  11.141 -0.1887 -0.0566 -0.2462
60812DOD     C326257  25.726   5.784  10.892 -0.1515 -0.1839  0.1456
60813DOD     C126258  29.597  14.369   8.476 -0.1343  0.1542 -0.0129
60813DOD     C226259  29.745  13.931   8.461 -0.0779  0.0548 -0.4350
60813DOD     C326260  29.618  13.488   8.380  0.0651  0.2343  0.2941
60814DOD     C126261   8.482   2.266  11.262 -0.3788 -0.2747 -0.0626
60814DOD     C226262   7.998   2.217  11.266 -0.0134 -0.3385 -0.0642
60814DOD     C326263   7.679   1.908  11.130 -0.1425 -0.1974 -0.0208
60815DOD     C126264  12.497  14.338  16.079 -0.0835 -0.2277 -0.1742
60815DOD     C226265  12.715  14.073  16.363  0.0132 -0.0581 -0.1659
60815DOD     C326266  13.128  13.913  16.368  0.1197 -0.0605 -0.0391
60816DOD     C126267  29.649  24.351  18.568 -0.2332  0.2696  0.1077
60816DOD     C226268  30.112  24.341  18.565 -0.1837  0.0817  0.0224
60816DOD     C326269   0.115  24.186  18.236  0.2302  0.0330  0.2156
60817DOD     C126270  28.949  14.054  19.828  0.3232  0.0810 -0.0104
60817DOD     C226271  28.486  14.063  19.965 -0.2116 -0.0145  0.0130
60817DOD     C326272  28.028  14.025  20.025 -0.2986  0.2459  0.0048
60818DOD     C126273  25.266   5.449  17.170  0.1958  0.0097  0.1653
60818DOD     C226274  25.007   5.836  17.079  0.1842 -0.2289  0.0164
60818DOD     C326275  24.725   6.163  17.249 -0.0221  0.0944 -0.4456
60819DOD     C126276  11.295   8.537  12.429  0.3887 -0.1447  0.0496
60819DOD     C226277  11.601   8.622  12.105 -0.1889 -0.1726  0.0763
60819DOD     C326278  11.743   8.819  11.706  0.0949 -0.1714 -0.0759
60820DOD     C126279  29.379  13.285  17.447  0.1180 -0.4333 -0.4118
60820DOD     C226280  29.604  13.490  17.087  0.0606 -0.0464  0.2212
60820DOD     C326281  30.085  13.470  16.907 -0.1193 -0.3772 -0.0445
60821DOD     C126282   0.117  16.134   5.941  0.0686  0.0556  0.0363
60821DOD     C226283   0.319  16.257   6.358  0.0860 -0.3602  0.0106
60821DOD     C326284   0.589  16.147   6.700 -0.1537 -0.0456  0.0642
60822DOD     C126285   2.467  29.546   8.982  0.1061 -0.0450  0.0897
60822DOD     C226286   2.690  29.922   9.013  0.2275  0.1160 -0.1511
60822DOD     C326287   2.832  30.316   9.178 -0.2268  0.0458 -0.1205
60823DOD     C126288  26.565   5.045  20.393  0.0881 -0.0838  0.0937
60823DOD     C226289  26.152   5.069  20.172 -0.3577 -0.0060 -0.3330
60823DOD     C326290  25.790   5.191  19.909  0.3654  0.0641  0.2054
60824DOD     C126291  23.710   3.631  14.762 -0.3549 -0.2405  0.2027
60824DOD     C226292  23.919   3.235  14.632  0.0984 -0.1038  0.3781
60824DOD     C326293  23.959   2.837  14.775  0.0859 -0.0980  0.0366
60825DOD     C126294   4.340  11.876   8.079 -0.1937  0.1440 -0.0221
60825DOD     C226295   4.253  12.298   7.865  0.6124  0.1127 -0.1644
60825DOD     C326296   3.953  12.615   7.667 -0.1214  0.1498 -0.0181
60826DOD     C126297  17.885  27.101  11.574  0.0218 -0.0163  0.5180
60826DOD     C226298  18.105  26.873  11.142 -0.0530  0.0724 -0.1045
60826DOD     C326299  17.965  26.679  10.713 -0.0527  0.2432  0.0475
60827DOD     C126300  19.396  28.721  15.542  0.0038  0.2427  0.0022
60827DOD     C226301  19.312  28.382  15.229 -0.2667  0.0614  0.1708
60827DOD     C326302  19.223  27.926  15.215  0.4140  0.0787 -0.1767
60828DOD     C126303   8.558  25.389   9.164 -0.0803  0.4135 -0.3837
60828DOD     C226304   8.188  25.592   8.953  0.1420  0.0828 -0.2600
60828DOD     C326305   7.960  26.018   8.992 -0.1568  0.2830  0.1507
60829DOD     C126306  27.598   7.577   3.480 -0.3600  0.1249  0.1531
60829DOD     C226307  27.429   8.067   3.491 -0.3588 -0.0954  0.5267
60829DOD     C326308  27.026   8.093   3.674  0.2198  0.3254  0.2932
60830DOD     C126309  20.768   1.698   7.258  0.0188 -0.1714  0.1378
60830DOD     C226310  20.930   1.398   7.601  0.1192  0.0035  0.3701
60830DOD     C326311  20.901   1.146   8.035  0.2478 -0.0326  0.0930
60831DOD     C126312  26.174   8.580   3.127 -0.0101 -0.1133  0.0963
60831DOD     C226313  26.237   8.961   3.387 -0.2872 -0.2025 -0.1278
60831DOD     C326314  26.332   9.395   3.586 -0.0200 -0.0049 -0.3458
60832DOD     C126315  12.871  16.698   3.077 -0.0703 -0.5406  0.2805
60832DOD     C226316  12.993  16.820   2.667  0.2127  0.2673 -0.0797
60832DOD     C326317  13.008  16.817   2.253  0.0083 -0.1680  0.3597
60833DOD     C126318  14.079   9.042  16.864  0.2650 -0.0742 -0.0069
60833DOD     C226319  14.415   8.929  16.550 -0.1257 -0.3062 -0.0565
60833DOD     C326320  14.861   8.699  16.645  0.1168 -0.2523  0.1077
60834DOD     C126321  -0.016  24.271   8.346 -0.0105  0.0629  0.0121
60834DOD     C226322  30.001  24.238   8.700 -0.0347  0.0313  0.1756
60834DOD     C326323  29.788  24.382   9.016 -0.2483  0.0003 -0.1852
60835DOD     C126324  21.217  12.907  21.154 -0.1824  0.0471 -0.3853
60835DOD     C226325  21.542  13.115  20.888  0.0528 -0.1193 -0.5478
60835DOD     C326326  21.528  13.380  20.530 -0.4110  0.1181 -0.3246
60836DOD     C126327  13.646   7.757  24.361  0.0151  0.0360 -0.0776
60836DOD     C226328  13.912   7.437  24.548 -0.1613  0.1498  0.2618
60836DOD     C326329  14.256   7.180  24.782  0.1851  0.1727 -0.1061
60837DOD     C126330  23.306  23.534  24.053  0.1886 -0.0299  0.2024
60837DOD     C226331  23.725  23.336  23.983  0.1684  0.0714 -0.1484
60837DOD     C326332  24.102  23.035  23.915 -0.0591 -0.2860  0.0914
60838DOD     C126333  19.650  19.094  15.647  0.2739  0.1027 -0.1306
60838DOD     C226334  19.440  18.675  15.587 -0.0639  0.1346 -0.2069
60838DOD     C326335  19.024  18.587  15.381 -0.3414  0.2204 -0.0811
60839DOD     C126336  22.401  16.896  17.810 -0.1744  0.2368  0.1050
60839DOD     C226337  22.709  17.008  18.185  0.0600 -0.1099  0.1598
60839DOD     C326338  22.809  17.100  18.642 -0.0771 -0.1194  0.1534
60840DOD     C126339  21.929   2.079   2.749  0.0280 -0.0882 -0.2450
60840DOD     C226340  21.566   2.161   2.487  0.0778 -0.2247 -0.2372
60840DOD     C326341  21.130   2.086   2.367  0.0206 -0.0053  0.2596
60841DOD     C126342  18.337   8.420   2.321  0.1503  0.0416 -0.1295
60841DOD     C226343  18.300   8.102   2.610  0.0663 -0.0131 -0.0660
60841DOD     C326344  18.060   7.848   2.858 -0.2859 -0.5199 -0.2064
60842DOD     C126345  12.190  10.781   8.036 -0.1091  0.0803  0.0593
60842DOD     C226346  11.878  10.493   7.843  0.0802 -0.3200 -0.0488
60842DOD     C326347  11.744  10.053   7.842 -0.2356  0.1672  0.0691
60843DOD     C126348   9.599   1.555  19.488  0.1677  0.3195 -0.0955
60843DOD     C226349   9.660   1.161  19.175  0.0050  0.1248  0.2193
60843DOD     C326350   9.671   0.783  18.938  0.0448 -0.1732  0.1242
60844DOD     C126351  18.551  29.371  23.897  0.0945 -0.1759 -0.0120
60844DOD     C226352  18.786  29.270  23.535 -0.4155 -0.0857  0.0925
60844DOD     C326353  18.899  29.477  23.107 -0.0089  0.1059  0.2518
60845DOD     C126354   5.074  30.146  18.056 -0.1714  0.1539  0.0906
60845DOD     C226355   4.810   0.017  17.734 -0.2290 -0.0904 -0.3625
60845DOD     C326356   4.392   0.176  17.607  0.0052  0.2636 -0.0304
60846DOD     C126357  13.918   1.638   8.722  0.0698 -0.1579  0.1720
60846DOD     C226358  13.593   1.311   8.614 -0.2485 -0.0476  0.1247
60846DOD     C326359  13.213   1.107   8.553  0.0817 -0.1094 -0.0769
60847DOD     C126360  19.359  12.463  27.561 -0.1417  0.0308  0.0258
60847DOD     C226361  19.104  12.744  27.831 -0.1074 -0.0975  0.0135
60847DOD     C326362  19.268  12.991  28.095 -0.0294 -0.0265  0.0664
60848DOD     C126363   7.379   4.583  24.020  0.0083  0.0540 -0.3946
60848DOD     C226364   6.977   4.604  24.295 -0.0355  0.1131  0.0019
60848DOD     C326365   6.755   4.431  24.694 -0.0435 -0.3413  0.2040
60849DOD     C126366   7.753  15.445  14.241 -0.2239 -0.1382  0.0434
60849DOD     C226367   7.315  15.332  14.402 -0.1822  0.2682 -0.0027
60849DOD     C326368   6.998  15.072  14.114  0.0379 -0.0268 -0.2855
60850DOD     C126369  12.388  19.296  29.403 -0.2574  0.0943 -0.2575
60850DOD     C226370  12.544  19.710  29.394 -0.1844 -0.0753  0.0966
60850DOD     C326371  12.515  20.105  29.231 -0.1906 -0.1688  0.2190
60851DOD     C126372   9.916   3.468  23.613 -0.2797 -0.1904  0.2309
60851DOD     C226373   9.777   3.106  23.344  0.3156  0.0623 -0.3169
60851DOD     C326374   9.558   3.181  22.932  0.3157 -0.0009 -0.3719
60852DOD     C126375  19.358   4.886  24.603  0.2838  0.1032 -0.2265
60852DOD     C226376  19.525   4.598  24.978  0.0172  0.2825  0.0318
60852DOD     C326377  19.768   4.255  25.208  0.2313 -0.0439 -0.0783
60853DOD     C126378  13.215   4.560   3.421  0.2662  0.1847  0.2631
60853DOD     C226379  13.531   4.885   3.495  0.0269  0.2550 -0.2742
60853DOD     C326380  13.612   5.348   3.442  0.0310  0.1227  0.2220
60854DOD     C126381   2.565  13.874  14.357 -0.1969  0.0040 -0.2154
60854DOD     C226382   2.963  13.968  14.266 -0.0824  0.3471 -0.0849
60854DOD     C326383   3.345  14.103  14.323 -0.0397  0.1597  0.0048
60855DOD     C126384  11.592   3.352   9.694  0.0006 -0.0316 -0.0104
60855DOD     C226385  11.527   3.166  10.075  0.3128 -0.0748 -0.0529
60855DOD     C326386  11.610   2.782  10.385  0.4579  0.1285 -0.0250
60856DOD     C126387  15.418   1.185  11.081 -0.2075 -0.0045 -0.1071
60856DOD     C226388  15.882   1.249  10.982 -0.5718  0.1131 -0.1181
60856DOD     C326389  16.369   1.149  10.873 -0.2757  0.1603 -0.1813
60857DOD     C126390  14.296  25.559  21.179  0.1239 -0.2444  0.4880
60857DOD     C226391  14.725  25.402  21.355  0.0622 -0.2720  0.2681
60857DOD     C326392  15.083  25.651  21.499  0.1481  0.0486  0.0294
60858DOD     C126393  11.347  27.696  21.526  0.0122  0.2320  0.2003
60858DOD     C226394  11.226  27.391  21.794  0.0762  0.1532 -0.0703
60858DOD     C326395  11.115  26.973  21.984  0.1330  0.1947  0.0499
60859DOD     C126396   4.212   6.261  18.709 -0.1218 -0.0601  0.3058
60859DOD     C226397   3.982   5.891  18.771 -0.3435  0.2695  0.4317
60859DOD     C326398   3.621   5.691  18.995  0.0259  0.0794 -0.5845
60860DOD     C126399  23.995  13.914  27.927 -0.2031  0.0705 -0.2277
60860DOD     C226400  24.457  13.868  28.076  0.0088  0.0027 -0.2868
60860DOD     C326401  24.925  13.849  27.905  0.0655 -0.0512  0.0322
60861DOD     C126402   9.464  22.718  19.665 -0.0529 -0.0070 -0.0733
60861DOD     C226403   9.523  23.055  19.958 -0.2437 -0.0565 -0.2442
60861DOD     C326404   9.747  23.230  20.266  0.0753  0.0219 -0.0932
60862DOD     C126405  28.898  26.645  13.229 -0.2473 -0.1102  0.2097
60862DOD     C226406  29.149  26.790  12.832 -0.1476 -0.2751 -0.0823
60862DOD     C326407  29.416  27.146  12.712  0.1683  0.1300  0.3157
60863DOD     C126408   6.804  26.957   6.237  0.0147 -0.1684  0.0497
60863DOD     C226409   6.839  27.233   6.575 -0.0208  0.3052 -0.1188
60863DOD     C326410   6.956  27.610   6.796 -0.0630 -0.0300  0.0294
60864DOD     C126411  21.557  26.167   6.095 -0.3421 -0.1225  0.2696
60864DOD     C226412  21.487  26.031   6.547 -0.0515 -0.0043 -0.0880
60864DOD     C326413  21.641  25.603   6.782  0.2283 -0.0743 -0.2664
60865DOD     C126414  21.867  23.609  14.562  0.0743  0.3082 -0.1592
60865DOD     C226415  22.143  23.861  14.809  0.4138  0.0430 -0.2369
60865DOD     C326416  22.447  24.188  15.017 -0.0805  0.0550  0.0782
60866DOD     C126417   2.758  10.484  22.406  0.1575 -0.0171  0.3082
60866DOD     C226418   3.065  10.742  22.665 -0.1670  0.4726 -0.2393
60866DOD     C326419   3.524  10.606  22.761  0.0804  0.0567 -0.0943
60867DOD     C126420  21.737   1.810  26.542 -0.0146  0.0949  0.2495
60867DOD     C226421  22.074   1.620  26.808 -0.3232 -0.1472 -0.0179
60867DOD     C326422  22.204   1.382  27.140  0.1263  0.1742 -0.2782
60868DOD     C126423  26.197   1.289  24.994  0.0708 -0.0809 -0.4080
60868DOD     C226424  26.120   1.393  25.450  0.0620  0.0054  0.2192
60868DOD     C326425  26.181   1.607  25.816 -0.0741  0.0725 -0.2196
60869DOD     C126426  16.061   4.976  15.499  0.0477  0.1865 -0.1768
60869DOD     C226427  15.770   4.583  15.608  0.0758 -0.1080  0.0435
60869DOD     C326428  15.551   4.279  15.399 -0.3099  0.0754  0.1483
60870DOD     C126429  12.953  12.350   9.034  0.1377 -0.0941 -0.0001
60870DOD     C226430  12.814  12.196   9.449 -0.0672 -0.1817 -0.1050
60870DOD     C326431  12.703  11.876   9.748 -0.1522 -0.0948 -0.1701
60871DOD     C126432  27.744   7.184  29.975  0.0934 -0.0941  0.0181
60871DOD     C226433  27.600   7.617  29.882  0.0313  0.0948  0.0759
60871DOD     C326434  27.818   8.079  30.015 -0.1815 -0.0318 -0.3050
60872DOD     C126435  17.181  18.601  16.260 -0.0080 -0.0320 -0.0917
60872DOD     C226436  16.884  18.668  16.625 -0.1237  0.1569 -0.0537
60872DOD     C326437  16.890  18.651  17.056 -0.2353  0.1677 -0.3884
60873DOD     C126438   6.811  19.511   9.255  0.0718 -0.1294  0.4605
60873DOD     C226439   6.965  19.374   9.697 -0.1238  0.3636 -0.2380
60873DOD     C326440   6.708  19.122  10.046 -0.2267  0.2701 -0.1857
60874DOD     C126441  17.021  21.476  28.266  0.2563 -0.1348 -0.0236
60874DOD     C226442  16.670  21.756  28.223  0.0288 -0.0727  0.0908
60874DOD     C326443  16.412  22.062  28.223 -0.1320  0.1855  0.0570
60875DOD     C126444  18.167  20.925  10.000 -0.0649  0.1001  0.2190
60875DOD     C226445  18.415  21.235   9.705  0.0457  0.2343 -0.1809
60875DOD     C326446  18.787  21.476   9.622  0.1028  0.1655 -0.1226
60876DOD     C126447  16.313  13.366  19.230 -0.2895 -0.1348  0.0677
60876DOD     C226448  15.957  13.263  19.520  0.1621  0.2093 -0.0804
60876DOD     C326449  15.514  13.472  19.608  0.1270  0.3910 -0.2732
60877DOD     C126450  15.500  23.005   2.974 -0.1350 -0.0739  0.0391
60877DOD     C226451  15.453  22.676   2.709  0.2322 -0.1027 -0.0682
60877DOD     C326452  15.505  22.316   2.491  0.1192 -0.0132 -0.2316
60878DOD     C126453   3.326  26.678   7.446  0.1524  0.0183 -0.1390
60878DOD     C226454   3.193  26.990   7.168 -0.0679 -0.2099  0.2516
60878DOD     C326455   3.133  27.348   6.869  0.0572 -0.4653  0.0187
60879DOD     C126456   2.509  26.006  17.447 -0.1067 -0.1547 -0.0367
60879DOD     C226457   2.430  25.789  17.858  0.0418 -0.3412 -0.0889
60879DOD     C326458   2.457  25.353  18.087  0.0845  0.0742 -0.0794
60880DOD     C126459   5.876  23.633   8.802 -0.0565  0.0728  0.0266
60880DOD     C226460   6.098  23.906   9.134  0.1442  0.1615 -0.0805
60880DOD     C326461   6.225  24.290   9.361  0.1592  0.0144 -0.0736
60881DOD     C126462   8.112  20.596  23.297 -0.2563 -0.0773 -0.1565
60881DOD     C226463   8.415  20.641  22.932  0.1662 -0.2512  0.0509
60881DOD     C326464   8.577  21.028  22.714  0.0874 -0.0470  0.2137
60882DOD     C126465   2.089   3.938   6.014 -0.0135 -0.3965 -0.3316
60882DOD     C226466   2.555   4.026   6.120 -0.0805 -0.0168  0.0281
60882DOD     C326467   2.859   4.192   6.414  0.6680 -0.1692 -0.1370
60883DOD     C126468  30.201  13.552  16.225  0.0048  0.1350 -0.0606
60883DOD     C226469  30.023  13.983  16.205 -0.0437 -0.0616  0.2127
60883DOD     C326470  29.788  14.253  16.544 -0.2397 -0.1441 -0.3136
60884DOD     C126471  14.778  25.575  25.304  0.0128 -0.3041 -0.2444
60884DOD     C226472  14.675  25.494  24.794  0.1429  0.2571 -0.0327
60884DOD     C326473  14.607  25.430  24.296 -0.0280 -0.3291  0.3616
60885DOD     C126474  26.890   7.036   3.183 -0.0304  0.0400  0.1152
60885DOD     C226475  26.816   6.586   3.083  0.0070 -0.0208  0.1102
60885DOD     C326476  26.915   6.141   2.967 -0.1772  0.1225  0.1535
60886DOD     C126477  16.161  29.572  23.576  0.0942 -0.2506  0.0869
60886DOD     C226478  16.252  30.028  23.531  0.3040  0.1103 -0.3137
60886DOD     C326479  16.208   0.135  23.438  0.0359  0.0945  0.0121
60887DOD     C126480  20.991   8.710   1.977 -0.3426  0.0459  0.1161
60887DOD     C226481  20.619   8.927   1.909  0.3663 -0.0851  0.0248
60887DOD     C326482  20.143   9.044   1.941  0.0209 -0.5398 -0.0441
60888DOD     C126483   9.966  30.163   4.977 -0.0235 -0.2735  0.3961
60888DOD     C226484   9.582  29.936   4.717  0.1981 -0.2391  0.2253
60888DOD     C326485   9.311  29.543   4.655  0.0976  0.2437  0.1284
60889DOD     C126486   3.375  16.318  12.918  0.2090  0.0577 -0.0054
60889DOD     C226487   3.554  16.229  13.357 -0.0558 -0.0864 -0.0680
60889DOD     C326488   3.879  16.163  13.642 -0.0004 -0.2798 -0.0471
60890DOD     C126489   1.983   1.352   2.697  0.1431 -0.0807  0.0477
60890DOD     C226490   1.899   1.168   3.083  0.3211  0.2317  0.0012
60890DOD     C326491   1.863   0.956   3.502  0.1619  0.0702  0.0402
60891DOD     C126492   6.003   4.583  16.738 -0.3692  0.2137 -0.0257
60891DOD     C226493   5.723   4.971  16.749  0.1515 -0.0929 -0.0032
60891DOD     C326494   5.672   5.356  17.037 -0.1640 -0.0233  0.1593
60892DOD     C126495  19.426  26.905   4.678 -0.0081 -0.3437  0.0956
60892DOD     C226496  19.056  26.843   4.495  0.0605 -0.0999 -0.2354
60892DOD     C326497  18.685  27.119   4.452 -0.0631  0.0151 -0.1309
60893DOD     C126498   6.346  17.555   6.061  0.2364 -0.0610  0.0867
60893DOD     C226499   5.911  17.684   6.211  0.0958  0.1787 -0.3810
60893DOD     C326500   5.794  17.781   6.634  0.0560  0.2319 -0.5121
60894DOD     C126501  10.377  25.337  23.128 -0.1873  0.1349  0.4053
60894DOD     C226502  10.289  25.688  23.442 -0.0864  0.0581 -0.0395
60894DOD     C326503  10.066  26.047  23.476  0.0242 -0.1514 -0.0893
60895DOD     C126504  29.962  12.478   8.055 -0.0052 -0.0163  0.0467
60895DOD     C226505  29.799  12.466   8.475  0.0821  0.1186  0.2450
60895DOD     C326506  29.578  12.118   8.663  0.0585  0.1012 -0.0112
60896DOD     C126507   3.554  17.810  11.507  0.1739  0.1308 -0.0280
60896DOD     C226508   3.757  17.412  11.357  0.1370  0.1805  0.2983
60896DOD     C326509   3.546  17.097  11.048 -0.0239 -0.2227 -0.2829
60897DOD     C126510  11.330  24.452  14.832  0.0235  0.0756 -0.1925
60897DOD     C226511  11.555  24.203  14.519 -0.1666 -0.1873 -0.3076
60897DOD     C326512  11.964  24.201  14.289 -0.2482  0.0538 -0.0320
60898DOD     C126513  10.095   1.915  28.366  0.0755  0.0803  0.0422
60898DOD     C226514   9.828   1.702  28.737 -0.1331  0.2079 -0.1345
60898DOD     C326515   9.508   1.404  28.878  0.0747  0.0312  0.1191
60899DOD     C126516   7.638  19.730  16.018 -0.1684 -0.4958 -0.1388
60899DOD     C226517   8.008  19.633  16.257 -0.2667 -0.1788 -0.0143
60899DOD     C326518   8.055  19.248  16.514  0.0731 -0.1155 -0.0391
60900DOD     C126519   9.820  23.068  23.258 -0.0352 -0.0772  0.3483
60900DOD     C226520   9.737  23.072  22.808 -0.2182  0.0460 -0.0368
60900DOD     C326521   9.549  23.209  22.406  0.0853  0.0436 -0.1079
60901DOD     C126522  19.462   7.369  29.531 -0.1821 -0.1169 -0.0577
60901DOD     C226523  19.074   7.139  29.492 -0.1744 -0.1532 -0.0556
60901DOD     C326524  18.641   7.158  29.601  0.0912  0.1801 -0.0118
60902DOD     C126525   2.203  25.938  29.658  0.4105 -0.0563  0.1952
60902DOD     C226526   1.753  25.861  29.623  0.1192  0.3017  0.2189
60902DOD     C326527   1.381  25.598  29.577  0.0407 -0.2058 -0.0348
60903DOD     C126528  18.948   0.870  10.971 -0.2818 -0.0703 -0.1698
60903DOD     C226529  19.097   0.821  10.496  0.1899  0.1975 -0.1849
60903DOD     C326530  19.385   0.786  10.153  0.0618 -0.1653  0.1365
60904DOD     C126531  11.800   2.389   2.769  0.1294  0.3008  0.2465
60904DOD     C226532  11.614   1.980   2.763  0.0201  0.0621 -0.2736
60904DOD     C326533  11.604   1.501   2.736  0.3320 -0.0406  0.2324
60905DOD     C126534  11.967   8.968   2.177  0.1131  0.0002 -0.0196
60905DOD     C226535  11.621   8.634   2.359 -0.3355 -0.1235 -0.0676
60905DOD     C326536  11.171   8.521   2.355  0.1069  0.2488  0.1041
60906DOD     C126537  23.420  24.209  28.131  0.0081 -0.0804  0.0087
60906DOD     C226538  23.120  23.910  28.375 -0.0911 -0.1726  0.0461
60906DOD     C326539  22.862  23.551  28.465 -0.2199 -0.2085 -0.2952
60907DOD     C126540  17.281  22.878   9.411  0.0048  0.1170 -0.2572
60907DOD     C226541  17.273  22.839   9.872  0.0644  0.1261 -0.0245
60907DOD     C326542  17.184  22.366   9.873  0.1210  0.0454  0.1225
60908DOD     C126543  21.374   9.758  13.101  0.0726  0.0022  0.3369
60908DOD     C226544  21.249   9.587  12.680 -0.0341 -0.1358 -0.0254
60908DOD     C326545  20.813   9.378  12.584  0.1470 -0.2618  0.1306
60909DOD     C126546  23.664  28.344  17.399 -0.0671 -0.0613 -0.0719
60909DOD     C226547  23.860  28.218  16.991  0.0483 -0.0654 -0.0966
60909DOD     C326548  24.032  28.423  16.644 -0.2654  0.1604 -0.0721
60910DOD     C126549  13.179  22.655  23.381  0.4983  0.1511 -0.2301
60910DOD     C226550  12.965  23.044  23.309  0.0829 -0.1527 -0.1344
60910DOD     C326551  12.765  23.460  23.141 -0.1296 -0.2135 -0.1727
60911DOD     C126552  13.329  24.025  14.104 -0.2244  0.1260 -0.0233
60911DOD     C226553  13.660  24.153  14.465 -0.1133 -0.1376  0.1153
60911DOD     C326554  13.951  24.193  14.765 -0.0800  0.4012  0.1108
60912DOD     C126555  19.698   5.657   2.764  0.0252 -0.0744 -0.1216
60912DOD     C226556  19.276   5.678   2.840 -0.0136  0.1302 -0.2126
60912DOD     C326557  18.817   5.525   2.731  0.2021  0.1098  0.1066
60913DOD     C126558   2.230   1.228  12.650 -0.1318 -0.1388 -0.0055
60913DOD     C226559   2.273   1.574  12.372 -0.3392 -0.1539 -0.0861
60913DOD     C326560   2.247   2.021  12.244  0.0178  0.1952  0.3305
60914DOD     C126561  21.385  16.482  20.921  0.1939 -0.0718 -0.0991
60914DOD     C226562  21.225  16.667  21.350  0.1237  0.3260 -0.1890
60914DOD     C326563  21.347  16.660  21.817  0.3323  0.2570  0.1055
60915DOD     C126564  19.237   7.593  10.922 -0.0417  0.1145  0.0418
60915DOD     C226565  19.304   7.853  11.263 -0.2263 -0.0347  0.1396
60915DOD     C326566  19.065   7.953  11.666  0.1262 -0.1942  0.0547
60916DOD     C126567  21.779  28.188  18.873  0.2813 -0.0166 -0.2063
60916DOD     C226568  21.893  27.804  19.113  0.0123  0.1148  0.1070
60916DOD     C326569  22.099  27.607  19.488  0.2573  0.0038 -0.0946
60917DOD     C126570  13.973   8.955   4.669 -0.0176  0.0815 -0.2243
60917DOD     C226571  13.678   9.254   4.800 -0.0736  0.1534 -0.1933
60917DOD     C326572  13.285   9.424   5.001  0.1421 -0.0479 -0.0747
60918DOD     C126573  14.746   7.017  28.622 -0.0983 -0.0103  0.0502
60918DOD     C226574  15.007   6.652  28.480 -0.1975  0.1408 -0.3735
60918DOD     C326575  15.494   6.516  28.595  0.2715 -0.0684  0.0088
60919DOD     C126576  14.425  26.490  23.652  0.0484  0.1686 -0.3045
60919DOD     C226577  14.770  26.627  23.458 -0.2838 -0.0236 -0.1363
60919DOD     C326578  15.179  26.685  23.296 -0.2809 -0.0899 -0.3444
60920DOD     C126579  23.169  20.407   6.799  0.3991 -0.0196 -0.0436
60920DOD     C226580  22.857  20.563   6.536  0.2671 -0.3288 -0.2379
60920DOD     C326581  22.522  20.537   6.164 -0.1092  0.0765  0.1481
60921DOD     C126582   0.264  27.981  17.191 -0.0421 -0.0319  0.0928
60921DOD     C226583   0.535  28.097  17.511  0.1701 -0.0565 -0.0337
60921DOD     C326584   0.821  28.082  17.911  0.1790 -0.1033  0.2187
60922DOD     C126585   0.824  13.051  24.712 -0.0154 -0.3079 -0.1395
60922DOD     C226586   0.538  13.245  24.336  0.1542 -0.0518 -0.2925
60922DOD     C326587   0.074  13.368  24.172 -0.1494 -0.1200  0.1082
60923DOD     C126588   9.120   7.051   9.611 -0.1175  0.0153 -0.0761
60923DOD     C226589   9.229   7.427   9.372 -0.1413  0.1289 -0.0458
60923DOD     C326590   9.167   7.921   9.383 -0.1524 -0.3648  0.2033
60924DOD     C126591  27.530  10.340  29.612 -0.0688 -0.0909  0.1650
60924DOD     C226592  27.754  10.314  30.019  0.2651 -0.1575 -0.0274
60924DOD     C326593  28.131  10.496  30.091  0.1569 -0.2176  0.1107
60925DOD     C126594   0.213   0.684  16.334 -0.0947 -0.1094 -0.2609
60925DOD     C226595   0.197   0.313  16.067 -0.2432  0.1563  0.0105
60925DOD     C326596   0.340  30.260  15.792 -0.1715  0.1787  0.1480
60926DOD     C126597  22.117   8.975  29.944 -0.1005  0.0325 -0.0137
60926DOD     C226598  22.401   8.684  30.084 -0.0161  0.1110 -0.1435
60926DOD     C326599  22.249   8.434   0.145 -0.1644  0.0680  0.1318
60927DOD     C126600   9.284  19.206   1.165  0.1651 -0.2482 -0.2833
60927DOD     C226601   8.749  19.192   1.037  0.0653  0.1440  0.0673
60927DOD     C326602   8.373  18.938   0.817 -0.1642  0.0089  0.1271
60928DOD     C126603  20.596   9.342  25.858  0.0091  0.2279 -0.0792
60928DOD     C226604  20.920   9.021  25.762 -0.0339 -0.0345 -0.0985
60928DOD     C326605  21.246   8.773  25.678  0.0250 -0.1561 -0.2298
60929DOD     C126606   0.715  26.157  19.556  0.2054  0.1876  0.2176
60929DOD     C226607   0.260  26.288  19.538  0.2780  0.0300 -0.0653
60929DOD     C326608   0.053  26.658  19.410 -0.0845  0.0981 -0.1293
60930DOD     C126609  26.081  16.688   8.669  0.0502  0.2893  0.1329
60930DOD     C226610  25.684  16.436   8.732 -0.1798  0.1475  0.1867
60930DOD     C326611  25.258  16.535   8.909 -0.3520  0.2297 -0.0871
60931DOD     C126612  11.085  14.861  24.594  0.0341 -0.1448  0.2206
60931DOD     C226613  11.443  15.160  24.686 -0.0011 -0.0918 -0.1440
60931DOD     C326614  11.763  15.520  24.590  0.0055  0.1617 -0.0763
60932DOD     C126615  19.397  12.387   3.162 -0.1730 -0.1683 -0.1081
60932DOD     C226616  19.629  12.026   3.127  0.1922  0.2854  0.2003
60932DOD     C326617  20.003  11.777   2.981  0.0560 -0.0114 -0.1097
60933DOD     C126618   2.053  10.796  25.852  0.1467  0.1580 -0.1263
60933DOD     C226619   2.288  10.521  26.259 -0.0767 -0.3805 -0.1995
60933DOD     C326620   2.275  10.530  26.728  0.3782 -0.1225 -0.0147
60934DOD     C126621  11.197  20.501  29.902 -0.1063  0.0450  0.1132
60934DOD     C226622  11.536  20.730  29.824  0.0542 -0.0944 -0.0562
60934DOD     C326623  11.895  21.004  29.649  0.0169  0.1754 -0.1462
60935DOD     C126624   8.479   0.435   8.989  0.0619  0.1375  0.1223
60935DOD     C226625   8.844   0.337   9.291  0.1523  0.2711 -0.3257
60935DOD     C326626   9.307   0.516   9.338  0.0113 -0.2469  0.1599
60936DOD     C126627   6.975  15.783  18.828 -0.0644  0.2153 -0.0193
60936DOD     C226628   6.741  16.162  18.618  0.1338  0.1839 -0.2126
60936DOD     C326629   6.345  16.174  18.359  0.2323  0.0944 -0.0273
60937DOD     C126630   6.007   6.084  12.502 -0.0974 -0.1751  0.0282
60937DOD     C226631   5.865   6.498  12.587  0.2329 -0.0960  0.1531
60937DOD     C326632   5.422   6.590  12.563 -0.0769 -0.2896 -0.0315
60938DOD     C126633   3.136  27.181  22.352  0.3533  0.1595  0.2021
60938DOD     C226634   3.072  27.611  22.476  0.0126 -0.1850  0.1024
60938DOD     C326635   2.933  27.816  22.882 -0.0885  0.1497  0.1948
60939DOD     C126636  16.421   4.838  26.652 -0.1719 -0.1989 -0.0431
60939DOD     C226637  16.175   5.241  26.713  0.0553 -0.1465 -0.4292
60939DOD     C326638  16.316   5.650  26.960  0.4304 -0.1458 -0.0125
60940DOD     C126639   3.293  18.391   5.249  0.1859  0.0807  0.0182
60940DOD     C226640   3.384  18.254   5.657  0.0117  0.2172 -0.3138
60940DOD     C326641   3.576  18.190   6.117 -0.1764 -0.2467  0.1335
60941DOD     C126642  26.150  20.482  11.866  0.2425  0.2999  0.0836
60941DOD     C226643  26.012  20.114  12.146 -0.3431  0.1886 -0.4502
60941DOD     C326644  26.166  19.730  12.356 -0.4030 -0.1135  0.1791
60942DOD     C126645  27.648   4.229  12.945 -0.0759 -0.0522 -0.0116
60942DOD     C226646  27.691   4.702  12.849 -0.0930 -0.3975 -0.0777
60942DOD     C326647  27.734   5.028  12.519  0.0128 -0.3440 -0.0210
60943DOD     C126648  22.316  23.572   7.325  0.0571 -0.1952 -0.1306
60943DOD     C226649  21.993  23.251   7.268 -0.0613  0.0035 -0.0365
60943DOD     C326650  21.786  22.810   7.222 -0.2340  0.0258 -0.2234
60944DOD     C126651  18.710   3.609  23.071 -0.0241  0.0042  0.1493
60944DOD     C226652  18.856   3.913  22.705 -0.0507  0.2844  0.0388
60944DOD     C326653  19.042   3.677  22.296  0.1658  0.3377 -0.0098
60945DOD     C126654   3.807  14.797  25.299 -0.1585 -0.0513  0.0671
60945DOD     C226655   3.911  14.980  24.849  0.3314 -0.4112  0.1151
60945DOD     C326656   4.060  15.060  24.422  0.0784 -0.2541  0.0517
60946DOD     C126657  13.983  18.294   7.543 -0.1971 -0.0663  0.0907
60946DOD     C226658  14.338  18.148   7.340 -0.1173  0.2807  0.0481
60946DOD     C326659  14.568  18.129   6.945 -0.1557 -0.1341 -0.0174
60947DOD     C126660  18.294  29.124  20.870  0.1228 -0.3667  0.4532
60947DOD     C226661  18.331  28.766  20.583  0.2544  0.1300 -0.2730
60947DOD     C326662  18.273  28.311  20.408  0.0954 -0.0771  0.2564
60948DOD     C126663  23.685   5.181   8.614  0.2154 -0.0580  0.0510
60948DOD     C226664  23.277   4.984   8.802 -0.2263  0.1427  0.1789
60948DOD     C326665  22.988   4.584   8.894 -0.1099 -0.3668 -0.3319
60949DOD     C126666   4.905  28.227  27.595 -0.0544 -0.1329  0.0958
60949DOD     C226667   4.933  28.334  28.036  0.1257  0.1149  0.1610
60949DOD     C326668   4.563  28.435  28.340  0.0381 -0.0314  0.0514
60950DOD     C126669   4.961  13.697  20.475  0.0482 -0.1308 -0.1303
60950DOD     C226670   5.248  13.515  20.767 -0.0124  0.0412  0.1617
60950DOD     C326671   5.442  13.125  20.777 -0.1069 -0.1394 -0.3545
60951DOD     C126672   6.889   6.431  18.759  0.2060 -0.0936 -0.1450
60951DOD     C226673   6.626   6.732  18.446  0.0131 -0.1253  0.0371
60951DOD     C326674   6.241   7.017  18.467 -0.2129 -0.0465 -0.0926
60952DOD     C126675  26.770   2.768  14.071  0.1946  0.2112  0.0546
60952DOD     C226676  26.741   2.345  14.397  0.1261  0.1431 -0.1420
60952DOD     C326677  26.879   2.131  14.793 -0.0135 -0.1724 -0.2098
60953DOD     C126678  26.437   7.468  27.878 -0.2624  0.2111 -0.0581
60953DOD     C226679  26.702   7.770  27.645 -0.2415  0.2539 -0.0745
60953DOD     C326680  27.093   7.895  27.410  0.0724  0.0590  0.0698
60954DOD     C126681  15.639  18.792  20.554 -0.0095 -0.1049 -0.1303
60954DOD     C226682  15.517  18.716  20.130  0.0051 -0.0489 -0.1915
60954DOD     C326683  15.613  18.469  19.730 -0.0681 -0.1269  0.1008
60955DOD     C126684   5.965  29.921  10.673 -0.0925 -0.0496 -0.1675
60955DOD     C226685   6.013   0.056  10.910  0.1902  0.2124 -0.1757
60955DOD     C326686   5.856   0.493  10.825 -0.2024  0.0143  0.3424
60956DOD     C126687  27.070  15.016  20.764 -0.1384 -0.1331  0.1699
60956DOD     C226688  27.364  14.659  20.913 -0.2377  0.2315  0.1237
60956DOD     C326689  27.276  14.355  21.259 -0.3153 -0.1162 -0.2164
60957DOD     C126690   6.253  27.962   2.781 -0.0336 -0.0777  0.1774
60957DOD     C226691   6.012  28.227   3.046 -0.0294  0.0056 -0.3377
60957DOD     C326692   5.551  28.355   3.122  0.1258  0.0799  0.0815
60958DOD     C126693  19.120  24.069   6.375  0.2840  0.2929  0.1046
60958DOD     C226694  18.689  24.227   6.380 -0.2453  0.0124  0.1111
60958DOD     C326695  18.264  24.427   6.363  0.1466  0.2628 -0.1558
60959DOD     C126696  12.136  19.268   9.600  0.0194  0.0518 -0.1112
60959DOD     C226697  12.075  19.175  10.014 -0.0762 -0.3620  0.2441
60959DOD     C326698  11.972  18.801  10.257 -0.1122 -0.0712  0.3010
60960DOD     C126699   3.024   7.523  21.062  0.0665 -0.1018  0.3760
60960DOD     C226700   2.799   7.312  21.391 -0.3648 -0.1486 -0.4763
60960DOD     C326701   2.480   7.016  21.559  0.2852 -0.1669  0.0080
60961DOD     C126702  17.186  26.750   5.691 -0.0097  0.0742 -0.0282
60961DOD     C226703  17.264  26.773   6.190  0.0697  0.0774 -0.1032
60961DOD     C326704  17.242  26.839   6.625 -0.1336 -0.1386 -0.0546
60962DOD     C126705  13.283   7.678  23.517  0.1964 -0.1048  0.0673
60962DOD     C226706  13.575   7.270  23.434  0.0300  0.0571 -0.0756
60962DOD     C326707  13.845   6.972  23.214  0.0088  0.1854 -0.1756
60963DOD     C126708   7.078  13.951  28.892 -0.1608  0.1863 -0.1795
60963DOD     C226709   6.998  14.277  28.583 -0.3479  0.0620  0.2845
60963DOD     C326710   7.056  14.573  28.252 -0.2897  0.0765 -0.0623
60964DOD     C126711  13.159   9.427   7.137 -0.3706 -0.0373  0.1265
60964DOD     C226712  12.765   9.503   7.350 -0.1224  0.0736 -0.3000
60964DOD     C326713  12.282   9.510   7.279 -0.0770  0.3144 -0.0123
60965DOD     C126714  10.812  22.231  15.674  0.2160  0.0480  0.1750
60965DOD     C226715  10.669  22.638  15.913 -0.0917 -0.1434 -0.0450
60965DOD     C326716  10.269  22.808  16.040  0.1706  0.2321 -0.2850
60966DOD     C126717  25.394  24.287  15.215 -0.0190 -0.2172  0.0493
60966DOD     C226718  25.818  24.522  15.229  0.2532  0.1039  0.1596
60966DOD     C326719  26.087  24.779  15.479 -0.3378 -0.3245  0.0117
60967DOD     C126720   8.248  26.099  21.811 -0.0432 -0.1339 -0.0801
60967DOD     C226721   8.419  26.390  22.050 -0.0901  0.0850 -0.0771
60967DOD     C326722   8.371  26.743  22.333  0.1076  0.2665 -0.1380
60968DOD     C126723  18.880  24.364  19.366  0.0418  0.0607  0.1435
60968DOD     C226724  18.539  24.711  19.360 -0.0846 -0.1833 -0.2302
60968DOD     C326725  18.123  24.884  19.154  0.1529 -0.1363  0.1535
60969DOD     C126726  21.837  13.993  22.927 -0.1242 -0.0302 -0.1820
60969DOD     C226727  21.958  14.072  23.349  0.4000 -0.4198  0.0875
60969DOD     C326728  22.167  13.816  23.715  0.0078  0.0092  0.0712
60970DOD     C126729   3.286  28.018  10.588  0.2990 -0.1185  0.2532
60970DOD     C226730   3.069  27.743  10.366  0.0441 -0.1607  0.2469
60970DOD     C326731   2.707  27.525  10.460 -0.0620 -0.2631  0.0005
60971DOD     C126732   4.312   7.545  29.829 -0.3997 -0.0471 -0.0316
60971DOD     C226733   4.664   7.736  29.562 -0.4110  0.2072  0.1297
60971DOD     C326734   4.962   7.992  29.344 -0.2976 -0.2314  0.1105
60972DOD     C126735   8.159  20.177  29.749  0.3343  0.0533 -0.2174
60972DOD     C226736   7.910  19.789  29.778  0.1753 -0.0315  0.1635
60972DOD     C326737   7.573  19.436  29.671  0.0919 -0.2713 -0.0499
60973DOD     C126738   6.252  23.810  16.759  0.2011 -0.0689  0.0688
60973DOD     C226739   5.958  23.520  16.496  0.2844 -0.0469  0.0743
60973DOD     C326740   5.508  23.476  16.462 -0.0188  0.0966  0.0403
60974DOD     C126741  24.393   6.440   4.119 -0.2730  0.0970 -0.0718
60974DOD     C226742  24.528   6.137   4.460 -0.2622  0.3012  0.0496
60974DOD     C326743  24.463   5.944   4.887  0.2081 -0.0626  0.0158
60975DOD     C126744  15.983  15.127  17.955  0.0437  0.3136 -0.0700
60975DOD     C226745  16.380  15.363  18.039 -0.0859 -0.0405  0.2899
60975DOD     C326746  16.787  15.128  18.031 -0.2150  0.1006  0.1934
60976DOD     C126747  22.655  24.475  18.876 -0.1387 -0.0939  0.0117
60976DOD     C226748  22.459  24.843  18.738  0.2317 -0.0525 -0.0143
60976DOD     C326749  22.251  25.033  18.397 -0.1197  0.0103 -0.0607
60977DOD     C126750   5.192  17.562  12.390 -0.0535 -0.2527  0.1059
60977DOD     C226751   5.044  17.381  12.790 -0.1671 -0.2729 -0.0063
60977DOD     C326752   4.677  17.147  12.947  0.0122 -0.0018  0.2152
60978DOD     C126753  20.244  23.826   1.757  0.2242 -0.2608  0.0844
60978DOD     C226754  20.032  23.389   1.832  0.0704 -0.1480  0.0383
60978DOD     C326755  19.876  23.043   2.129 -0.1464 -0.1436  0.2548
60979DOD     C126756  19.126  23.406  27.329  0.0223  0.0401 -0.1749
60979DOD     C226757  18.779  23.280  27.054  0.1111 -0.2143 -0.1487
60979DOD     C326758  18.547  23.391  26.595  0.1430 -0.1123  0.1277
60980DOD     C126759   6.353   6.863  16.938  0.2521 -0.2471  0.2121
60980DOD     C226760   6.135   7.291  17.077 -0.0597  0.3336 -0.1497
60980DOD     C326761   6.387   7.683  17.180 -0.2861 -0.0039 -0.0666
60981DOD     C126762  11.950  21.354  20.902  0.0330 -0.3099 -0.1943
60981DOD     C226763  11.524  21.106  20.852 -0.0132  0.1382  0.1951
60981DOD     C326764  11.127  20.924  20.683 -0.0605  0.0348  0.0807
60982DOD     C126765   5.552   5.565  17.650  0.0006  0.0463  0.2629
60982DOD     C226766   5.231   5.332  17.435  0.2059  0.0787  0.1272
60982DOD     C326767   4.866   5.179  17.167  0.0039 -0.1096 -0.1867
60983DOD     C126768  25.839  13.563   1.133  0.1635 -0.0664  0.0228
60983DOD     C226769  25.486  13.856   1.224  0.1114  0.1477  0.2563
60983DOD     C326770  25.160  14.205   1.263  0.1069 -0.1060  0.0234
60984DOD     C126771  22.902  11.574  17.383  0.0522 -0.0679  0.0932
60984DOD     C226772  23.082  11.970  17.189 -0.0420  0.1499  0.3751
60984DOD     C326773  23.183  12.354  16.974  0.0728  0.5748  0.0635
60985DOD     C126774  16.044  22.273  20.071 -0.0061 -0.0995  0.1155
60985DOD     C226775  15.775  21.890  20.102 -0.0122  0.0186 -0.2696
60985DOD     C326776  15.417  21.546  20.015 -0.0596 -0.0995 -0.2995
60986DOD     C126777  19.858   4.817  16.508  0.0363  0.0292 -0.1221
60986DOD     C226778  19.683   5.011  16.866  0.0963 -0.1250  0.2867
60986DOD     C326779  19.204   5.045  16.969  0.0329 -0.1014  0.0004
60987DOD     C126780   9.082  29.335  16.570 -0.0742  0.1479  0.0731
60987DOD     C226781   9.014  28.843  16.608 -0.0739 -0.2298 -0.1826
60987DOD     C326782   8.751  28.454  16.652  0.1584  0.2233  0.1206
60988DOD     C126783  25.593   8.484  12.693  0.0724  0.1745  0.0012
60988DOD     C226784  26.016   8.414  12.907 -0.3151 -0.2439  0.2288
60988DOD     C326785  26.399   8.539  13.102 -0.3905  0.0010  0.2035
60989DOD     C126786  16.854  29.882  21.872 -0.0595  0.0224 -0.1902
60989DOD     C226787  17.306  30.066  22.020  0.0306  0.3294  0.0795
60989DOD     C326788  17.653  30.038  22.312  0.1131 -0.2715  0.0260
60990DOD     C126789  12.475   2.024  15.334  0.2471  0.0821 -0.0093
60990DOD     C226790  12.766   1.880  14.996 -0.3355  0.1722 -0.2872
60990DOD     C326791  13.151   1.744  14.688  0.0934  0.1413  0.0653
60991DOD     C126792   2.681  28.853  27.732 -0.2197 -0.1124  0.0519
60991DOD     C226793   2.929  29.210  27.744 -0.0377 -0.1449 -0.0278
60991DOD     C326794   3.404  29.208  27.846 -0.4281 -0.1711  0.3132
60992DOD     C126795  10.664  22.293   8.170 -0.0478  0.1870 -0.0327
60992DOD     C226796  10.358  22.517   7.867 -0.2509 -0.0398  0.0327
60992DOD     C326797  10.106  22.863   7.909 -0.0929 -0.3049  0.1374
60993DOD     C126798   9.753  23.071  27.708 -0.2624 -0.2912  0.0158
60993DOD     C226799   9.789  22.654  27.556 -0.1210 -0.0238  0.3355
60993DOD     C326800  10.095  22.333  27.611  0.0878 -0.3565 -0.1521
60994DOD     C126801   4.897  22.571   2.332 -0.0648 -0.0159  0.0126
60994DOD     C226802   4.778  22.451   1.867  0.0433  0.0621  0.1241
60994DOD     C326803   4.421  22.537   1.527 -0.0743  0.0082 -0.2367
60995DOD     C126804  10.731  29.916  11.207  0.1130 -0.2232  0.1138
60995DOD     C226805  10.591   0.053  11.124 -0.2640 -0.0948 -0.3747
60995DOD     C326806  10.433   0.500  11.011 -0.0529 -0.0842  0.0448
60996DOD     C126807  29.300  19.124  29.983 -0.0371 -0.2211 -0.1885
60996DOD     C226808  29.257  19.289   0.146 -0.1467 -0.1124  0.1541
60996DOD     C326809  29.141  19.355   0.575  0.1618  0.1184  0.0009
60997DOD     C126810   5.032  15.492  23.191 -0.0387 -0.3671  0.2046
60997DOD     C226811   5.268  15.851  22.990 -0.1103  0.1092  0.1857
60997DOD     C326812   5.514  16.209  23.003 -0.0340 -0.1244 -0.0092
60998DOD     C126813  11.662  17.824  21.247  0.1917  0.0216 -0.1045
60998DOD     C226814  11.226  18.029  21.177 -0.0693 -0.0882 -0.0649
60998DOD     C326815  10.953  18.342  20.920  0.3867  0.1718 -0.0080
60999DOD     C126816  24.970  11.464   2.436 -0.0921  0.0144  0.3057
60999DOD     C226817  25.008  11.604   2.902 -0.0085 -0.0350  0.1598
60999DOD     C326818  25.001  11.403   3.328  0.3812  0.0353 -0.0055
61000DOD     C126819  10.351  21.596  12.961  0.0901 -0.0892  0.1033
61000DOD     C226820   9.984  21.316  13.010 -0.1023 -0.0571 -0.0049
61000DOD     C326821   9.983  20.842  13.050  0.1260 -0.5196  0.0123
61001DOD     C126822  15.779   1.048  16.675  0.0493  0.1954  0.0687
61001DOD     C226823  15.964   1.455  16.776 -0.3860 -0.4748 -0.3952
61001DOD     C326824  15.973   1.711  17.153 -0.2574  0.5013 -0.0544
61002DOD     C126825  26.151  21.421  16.115 -0.2748  0.0593  0.0154
61002DOD     C226826  26.417  21.471  15.686 -0.3667 -0.2455 -0.2567
61002DOD     C326827  26.517  21.241  15.331  0.1348 -0.0196 -0.1403
61003DOD     C126828  25.449   6.123  17.999 -0.0336  0.1833 -0.0046
61003DOD     C226829  25.757   6.255  18.308 -0.2391 -0.0491 -0.0382
61003DOD     C326830  26.135   6.539  18.461 -0.0112  0.0296 -0.2444
61004DOD     C126831  28.256  17.542  20.050  0.0196  0.3437  0.1048
61004DOD     C226832  27.940  17.511  20.360  0.1056  0.0015 -0.1553
61004DOD     C326833  27.844  17.127  20.658 -0.0877 -0.0906 -0.0961
61005DOD     C126834  21.861   3.152   0.342  0.1877  0.0481  0.1137
61005DOD     C226835  21.519   3.203  30.347  0.2347 -0.2033  0.0001
61005DOD     C326836  21.328   3.532  29.981 -0.1889  0.0072 -0.1032
61006DOD     C126837   6.306  16.834  10.624 -0.0610 -0.2261  0.1212
61006DOD     C226838   6.129  17.274  10.614  0.1304 -0.1674  0.1413
61006DOD     C326839   5.779  17.552  10.679 -0.0178  0.0842 -0.1032
61007DOD     C126840  22.137  17.029   5.050 -0.2172  0.1525  0.1529
61007DOD     C226841  22.525  17.234   4.871 -0.2422 -0.0525  0.2088
61007DOD     C326842  22.742  17.555   4.624 -0.1666  0.0974  0.0982
61008DOD     C126843  19.326  16.527  28.047  0.0136  0.1227 -0.2172
61008DOD     C226844  19.586  16.779  28.368  0.0256 -0.2340 -0.0541
61008DOD     C326845  19.722  17.006  28.805 -0.1870  0.1220 -0.2937
61009DOD     C126846  27.076   5.403  11.724 -0.1401 -0.1933 -0.1483
61009DOD     C226847  26.831   5.081  11.837  0.1480 -0.0610  0.0371
61009DOD     C326848  26.622   4.733  11.674 -0.2486  0.0491 -0.3048
61010DOD     C126849  28.011   4.725  20.180  0.2906  0.2734 -0.3773
61010DOD     C226850  27.734   5.072  20.045  0.0019 -0.0237 -0.1531
61010DOD     C326851  27.436   5.429  20.030 -0.0400  0.2185 -0.0899
61011DOD     C126852  21.713  17.005  21.075 -0.1442  0.1043 -0.1238
61011DOD     C226853  21.301  17.034  20.853 -0.1339  0.2060 -0.0669
61011DOD     C326854  21.014  17.294  20.617 -0.0559  0.1179  0.2569
61012DOD     C126855   7.687   4.018   9.612 -0.1528  0.2539  0.0858
61012DOD     C226856   7.749   4.179  10.128  0.1612  0.0718  0.1399
61012DOD     C326857   7.982   4.128  10.519  0.1632  0.2670  0.2155
61013DOD     C126858  19.497  25.558   8.983 -0.0749 -0.2361  0.2568
61013DOD     C226859  19.112  25.660   8.678 -0.2531 -0.1278 -0.1698
61013DOD     C326860  18.619  25.685   8.626  0.2626 -0.3836  0.1656
61014DOD     C126861   2.571   5.265  13.267 -0.2659 -0.2499 -0.1730
61014DOD     C226862   2.263   5.009  13.505  0.2707  0.0114  0.1873
61014DOD     C326863   1.843   4.846  13.613  0.2650  0.0331  0.1834
61015DOD     C126864  21.986   8.506   9.811  0.2618  0.0918 -0.2931
61015DOD     C226865  22.427   8.620   9.712 -0.0671  0.0780 -0.0720
61015DOD     C326866  22.677   8.919   9.419  0.1229  0.0665  0.1852
61016DOD     C126867  16.220   1.602   3.907 -0.0872  0.3935 -0.1432
61016DOD     C226868  16.587   1.914   4.057 -0.0380  0.0071 -0.2297
61016DOD     C326869  17.017   2.085   4.107 -0.1562 -0.0021  0.0095
61017DOD     C126870  18.789  26.224  22.483  0.1156  0.0248 -0.1631
61017DOD     C226871  18.706  26.400  22.900  0.1491 -0.0650 -0.2604
61017DOD     C326872  18.622  26.419  23.332 -0.2750  0.0852 -0.1743
61018DOD     C126873  24.556   9.880   0.875 -0.0402 -0.4058 -0.1269
61018DOD     C226874  24.439   9.878   0.430 -0.4143 -0.0198  0.0675
61018DOD     C326875  24.193  10.109   0.115  0.1310 -0.1684  0.0171
61019DOD     C126876   1.790  12.575  28.283  0.4454  0.0825 -0.0559
61019DOD     C226877   1.945  12.941  28.547  0.0421 -0.0083 -0.3727
61019DOD     C326878   2.338  12.915  28.865 -0.0070 -0.0554  0.2119
61020DOD     C126879   2.929  23.562  29.038 -0.0812  0.0445  0.0395
61020DOD     C226880   2.976  23.481  29.513 -0.1223  0.0184  0.3465
61020DOD     C326881   2.870  23.705  29.938 -0.1737 -0.2583  0.4356
61021DOD     C126882  24.283  15.414  27.154 -0.0293 -0.2344 -0.0469
61021DOD     C226883  24.424  15.255  26.712  0.0218  0.0420 -0.3090
61021DOD     C326884  24.598  14.986  26.359 -0.2888 -0.1138  0.2111
61022DOD     C126885  16.239  10.987   3.494  0.2186 -0.1750  0.4140
61022DOD     C226886  15.744  10.912   3.442 -0.2286  0.2414  0.0083
61022DOD     C326887  15.278  10.917   3.372  0.1525 -0.5803 -0.4251
61023DOD     C126888  28.040   6.180  10.138  0.0242  0.2471 -0.3283
61023DOD     C226889  28.125   5.761   9.900 -0.0200  0.2023 -0.0793
61023DOD     C326890  28.208   5.604   9.494  0.0127 -0.1988 -0.0544
61024DOD     C126891   5.596  25.433  25.542  0.1020 -0.0471 -0.3647
61024DOD     C226892   6.024  25.466  25.713 -0.1402 -0.2568 -0.1034
61024DOD     C326893   6.293  25.663  26.042  0.3395  0.0392 -0.0156
61025DOD     C126894  12.109  18.206   3.373 -0.1580  0.3295  0.1564
61025DOD     C226895  12.429  18.040   3.696  0.1727  0.3016  0.3612
61025DOD     C326896  12.918  17.969   3.621  0.1999 -0.0437 -0.0205
61026DOD     C126897  21.857  17.543  19.801  0.0289  0.1574 -0.0216
61026DOD     C226898  22.259  17.597  19.607  0.0198 -0.0005  0.1914
61026DOD     C326899  22.379  17.923  19.229  0.0210 -0.1880  0.3334
61027DOD     C126900  23.478   1.243  22.350  0.2183 -0.2886 -0.2220
61027DOD     C226901  23.018   1.177  22.161  0.1249  0.3576  0.0804
61027DOD     C326902  22.622   1.127  22.066 -0.1509  0.0003 -0.1435
61028DOD     C126903  21.189  14.766  24.021 -0.1636  0.0901  0.1897
61028DOD     C226904  21.461  14.368  24.094  0.2797 -0.0995 -0.1633
61028DOD     C326905  21.772  14.171  24.360  0.2196  0.2519 -0.0047
61029DOD     C126906  12.025  26.156  25.584 -0.1163 -0.1402 -0.1652
61029DOD     C226907  11.595  26.182  25.686  0.0689 -0.1965 -0.1471
61029DOD     C326908  11.303  26.004  25.404  0.1685 -0.0094  0.0488
61030DOD     C126909  12.890  24.194  12.062 -0.1163 -0.0807 -0.0521
61030DOD     C226910  12.844  24.597  11.938 -0.0206  0.0315  0.2023
61030DOD     C326911  12.615  24.708  11.576  0.0050 -0.3486  0.1491
61031DOD     C126912  26.281   4.919  28.312 -0.1967 -0.1486 -0.0979
61031DOD     C226913  26.356   5.313  28.587 -0.1237 -0.0195  0.0501
61031DOD     C326914  26.417   5.771  28.684 -0.0029  0.1993 -0.3951
61032DOD     C126915  11.229  10.450  23.052 -0.0544  0.0250 -0.0309
61032DOD     C226916  10.875  10.231  22.850  0.2761 -0.2727  0.1193
61032DOD     C326917  10.501  10.061  22.552  0.1639  0.1344  0.1661
61033DOD     C126918  19.108  14.444  22.894 -0.0318 -0.0614  0.1398
61033DOD     C226919  19.409  14.335  22.557 -0.2399 -0.0568  0.0803
61033DOD     C326920  19.378  14.107  22.184  0.1503  0.1002 -0.1108
61034DOD     C126921   1.090  21.395   7.681  0.2145  0.0141 -0.0363
61034DOD     C226922   0.932  21.147   7.294 -0.1969 -0.1388  0.0037
61034DOD     C326923   0.908  20.896   6.877  0.0065  0.2440 -0.4629
61035DOD     C126924  27.538  13.553  16.962 -0.0716  0.0044 -0.0813
61035DOD     C226925  27.367  13.622  17.424 -0.1733  0.0945 -0.0805
61035DOD     C326926  27.175  13.850  17.802  0.0287 -0.0854  0.0004
61036DOD     C126927  29.892   1.342  26.202  0.0751  0.0121  0.0547
61036DOD     C226928  29.651   0.947  25.982 -0.2138 -0.1878  0.2672
61036DOD     C326929  29.514   0.569  25.795  0.1065 -0.0062 -0.0301
61037DOD     C126930  17.492  10.209   4.626  0.1686  0.2593  0.2840
61037DOD     C226931  17.520  10.526   5.009 -0.0273 -0.0293 -0.1368
61037DOD     C326932  17.815  10.769   5.325 -0.0505 -0.1184  0.1233
61038DOD     C126933   9.211  24.768  10.683 -0.1123 -0.0368 -0.0259
61038DOD     C226934   9.692  24.779  10.835  0.0794 -0.2336 -0.0934
61038DOD     C326935  10.029  24.447  10.951  0.0278 -0.0530  0.4263
61039DOD     C126936  10.304  29.854  21.348 -0.0870 -0.3375  0.3115
61039DOD     C226937  10.110  29.430  21.325 -0.2346 -0.1941  0.2012
61039DOD     C326938   9.734  29.209  21.244 -0.0927 -0.0084  0.0568
61040DOD     C126939  16.517  14.953   3.396 -0.1635  0.1656  0.0249
61040DOD     C226940  16.138  15.081   3.209  0.0337  0.0298 -0.2514
61040DOD     C326941  15.650  15.176   2.965  0.0384 -0.0675  0.2223
61041DOD     C126942  25.650  27.505  29.576  0.0796  0.0975 -0.0291
61041DOD     C226943  26.032  27.500  29.779 -0.3101  0.2524 -0.0205
61041DOD     C326944  26.486  27.352  29.796  0.0284  0.2920 -0.0101
61042DOD     C126945  11.637   1.861  14.973  0.0484 -0.0737 -0.0991
61042DOD     C226946  11.439   1.492  14.849 -0.2052  0.1119 -0.1761
61042DOD     C326947  11.504   1.134  14.532  0.2696  0.1254  0.0483
61043DOD     C126948  11.098   8.293   5.246  0.0278  0.2452 -0.0633
61043DOD     C226949  11.173   8.738   5.340 -0.1422  0.2603 -0.0961
61043DOD     C326950  11.028   9.158   5.543  0.1058  0.2383 -0.0104
61044DOD     C126951  14.774   9.131  15.738 -0.1895 -0.0282 -0.0578
61044DOD     C226952  15.164   8.959  15.817  0.0198 -0.1685 -0.0900
61044DOD     C326953  15.549   8.707  15.799  0.1475 -0.2008 -0.1686
61045DOD     C126954   1.857   6.488  20.680 -0.2429 -0.0646  0.3538
61045DOD     C226955   2.183   6.851  20.645  0.0442  0.0813  0.2310
61045DOD     C326956   2.338   7.156  20.263  0.2580  0.0517 -0.2822
61046DOD     C126957   0.424  27.841   4.649 -0.1861 -0.1956 -0.0284
61046DOD     C226958   0.548  27.802   4.197  0.0113 -0.0091  0.0648
61046DOD     C326959   0.874  27.500   3.978 -0.0866 -0.1018  0.0071
61047DOD     C126960  20.191  12.307  24.247  0.0638  0.2699  0.2932
61047DOD     C226961  20.427  11.941  24.091 -0.1603 -0.1445  0.1013
61047DOD     C326962  20.412  11.459  24.100  0.3369 -0.0071 -0.1269
61048DOD     C126963   2.654  27.323  20.361  0.2767 -0.2781  0.0420
61048DOD     C226964   2.871  27.704  20.433 -0.2026  0.1309 -0.2513
61048DOD     C326965   2.943  28.142  20.665  0.1428  0.0730 -0.0886
61049DOD     C126966  25.559  14.292   6.025 -0.2549  0.0429 -0.1550
61049DOD     C226967  25.066  14.362   5.999  0.0857 -0.2513 -0.0039
61049DOD     C326968  24.651  14.357   6.050  0.2048 -0.1561  0.0642
61050DOD     C126969  12.839  12.491  19.122  0.1849 -0.2658  0.1166
61050DOD     C226970  12.704  12.045  18.916 -0.3070 -0.0404 -0.2113
61050DOD     C326971  12.668  11.588  18.984  0.0054  0.2849 -0.1418
61051DOD     C126972   9.420  11.487   1.241 -0.0133  0.0399  0.0993
61051DOD     C226973   9.559  11.080   1.403 -0.1379 -0.0431 -0.1186
61051DOD     C326974   9.335  10.635   1.298  0.1780 -0.3217  0.0074
61052DOD     C126975  29.476   5.522  22.819  0.4148 -0.1250 -0.1450
61052DOD     C226976  29.560   5.858  23.121 -0.3083  0.3267 -0.0779
61052DOD     C326977  29.633   6.243  23.430  0.2590  0.0398  0.2592
61053DOD     C126978   9.295  24.098  25.490  0.1811  0.0694  0.3005
61053DOD     C226979   8.998  23.778  25.481  0.1578  0.7133 -0.1162
61053DOD     C326980   8.794  23.380  25.338  0.0830  0.1522  0.0098
61054DOD     C126981   3.094  14.032  30.293  0.1699 -0.2004  0.1786
61054DOD     C226982   2.668  14.065  30.135  0.3598 -0.0851  0.1045
61054DOD     C326983   2.259  13.985  29.855 -0.0745 -0.2685 -0.0814
61055DOD     C126984  15.045  23.152  12.713  0.2331 -0.1415 -0.1446
61055DOD     C226985  15.371  22.819  12.749 -0.0690  0.0055  0.0263
61055DOD     C326986  15.714  22.495  12.682  0.0761  0.2149  0.0073
61056DOD     C126987  24.022  24.680  20.308  0.1267 -0.1828  0.3967
61056DOD     C226988  23.934  24.825  20.725  0.0276  0.4604 -0.3156
61056DOD     C326989  23.646  24.789  20.985  0.2776  0.0833  0.0552
61057DOD     C126990  19.140  11.998   5.039 -0.0785 -0.0106 -0.1839
61057DOD     C226991  18.870  11.654   5.214 -0.0679 -0.1200 -0.0746
61057DOD     C326992  18.698  11.232   5.377 -0.0098  0.0625  0.0014
61058DOD     C126993  28.747  19.801   3.738  0.0121 -0.3333 -0.2544
61058DOD     C226994  28.539  19.633   4.144 -0.0934 -0.3678 -0.2373
61058DOD     C326995  28.482  19.399   4.540 -0.2684 -0.0094 -0.2878
61059DOD     C126996  22.954  23.450   8.674  0.1431 -0.3815 -0.1878
61059DOD     C226997  22.966  23.000   8.667 -0.0527 -0.1615 -0.0617
61059DOD     C326998  23.199  22.629   8.766 -0.0906  0.0382  0.0087
61060DOD     C126999  23.526  15.168  11.779  0.0595  0.0742 -0.0789
61060DOD     C227000  23.247  15.415  11.480  0.1051 -0.2744 -0.1840
61060DOD     C327001  23.216  15.888  11.351 -0.0563  0.1061  0.0323
61061DOD     C127002  25.853  18.646  22.144 -0.2210  0.0956 -0.3410
61061DOD     C227003  25.761  19.062  21.891 -0.1134 -0.2311 -0.0156
61061DOD     C327004  25.396  19.251  21.806  0.5143  0.1030 -0.0781
61062DOD     C127005  16.317   2.318  13.588 -0.0019 -0.0163  0.0007
61062DOD     C227006  16.221   2.684  13.416  0.2879  0.0525  0.2314
61062DOD     C327007  15.789   2.898  13.568 -0.1405 -0.4175  0.0382
61063DOD     C127008  28.378  14.707  15.378 -0.1114 -0.0161 -0.3013
61063DOD     C227009  28.192  15.091  15.217 -0.1815 -0.1066  0.2734
61063DOD     C327010  27.860  15.236  15.044 -0.1655 -0.3446  0.1383
61064DOD     C127011  20.508  16.628   5.488  0.0744  0.1642  0.2346
61064DOD     C227012  20.837  16.889   5.250 -0.0338  0.1759 -0.1522
61064DOD     C327013  21.082  16.894   4.817  0.3008 -0.0024 -0.1975
61065DOD     C127014  15.411  20.604  12.115 -0.3207 -0.1283 -0.1078
61065DOD     C227015  15.502  20.964  11.820  0.0469 -0.2899 -0.0342
61065DOD     C327016  15.557  21.282  11.461  0.0505 -0.2021 -0.2647
61066DOD     C127017  26.145  23.537   1.347  0.1675 -0.4224 -0.0328
61066DOD     C227018  26.573  23.510   1.516  0.2462 -0.0206 -0.0735
61066DOD     C327019  26.835  23.894   1.749  0.2315  0.1435 -0.0820
61067DOD     C127020   8.087  10.802  10.153 -0.1058  0.1171 -0.1049
61067DOD     C227021   7.914  10.943  10.551 -0.0018  0.0574 -0.1850
61067DOD     C327022   7.644  11.049  10.902  0.0334 -0.0304  0.1853
61068DOD     C127023  18.882   1.796  26.766  0.0639  0.1467 -0.0120
61068DOD     C227024  18.450   1.779  26.596 -0.0296 -0.4107 -0.1485
61068DOD     C327025  18.069   1.746  26.357 -0.0522  0.0474 -0.2337
61069DOD     C127026  12.278  16.429  29.847  0.3550 -0.0448  0.0901
61069DOD     C227027  12.574  16.081  29.896  0.1308  0.0055 -0.1045
61069DOD     C327028  12.664  15.639  29.903  0.1086 -0.1544 -0.1536
61070DOD     C127029  30.194   7.734  29.789 -0.0103  0.2931  0.0053
61070DOD     C227030  30.014   8.161  29.717  0.2594 -0.3323  0.1370
61070DOD     C327031  29.769   8.549  29.725  0.1640 -0.1021  0.0102
61071DOD     C127032  18.408  30.057   8.837  0.0875 -0.0734 -0.1008
61071DOD     C227033  18.779  30.141   9.146  0.0047 -0.0915 -0.0231
61071DOD     C327034  19.095  30.142   9.447 -0.2398  0.1481 -0.1319
61072DOD     C127035  22.522   2.058  13.060  0.0632  0.0755 -0.3082
61072DOD     C227036  22.558   2.516  13.153 -0.2335  0.2725 -0.1870
61072DOD     C327037  22.613   2.967  13.288 -0.2501 -0.2759  0.0513
61073DOD     C127038  29.118   8.114   1.378 -0.1072  0.2285  0.1766
61073DOD     C227039  29.363   8.278   1.063 -0.3228  0.0186  0.1059
61073DOD     C327040  29.648   8.599   0.921 -0.0002  0.2029 -0.0230
61074DOD     C127041  12.584  27.692  27.621  0.1203  0.0623  0.1472
61074DOD     C227042  12.646  28.112  27.833  0.0092  0.1572 -0.1242
61074DOD     C327043  12.430  28.369  28.168  0.0281  0.0256 -0.1940
61075DOD     C127044  24.473  27.652   4.746 -0.1938 -0.0105 -0.0686
61075DOD     C227045  24.419  27.677   4.246  0.0822  0.1958 -0.3617
61075DOD     C327046  24.683  27.715   3.891 -0.0652 -0.1089 -0.0241
61076DOD     C127047  16.270   8.184  17.334  0.0624  0.2319 -0.0452
61076DOD     C227048  16.060   8.225  16.972  0.1382 -0.1115 -0.1435
61076DOD     C327049  15.850   8.188  16.585  0.1329  0.0628  0.0895
61077DOD     C127050  13.518  12.821   4.284 -0.1823  0.1838  0.0355
61077DOD     C227051  13.156  12.534   4.436  0.2284 -0.2273 -0.3548
61077DOD     C327052  13.075  12.056   4.478  0.1896 -0.2425  0.1659
61078DOD     C127053   4.441  11.699  27.792  0.0900 -0.0002  0.0196
61078DOD     C227054   4.185  12.007  27.484 -0.0837  0.0448 -0.0331
61078DOD     C327055   3.889  12.289  27.227  0.2185  0.0049 -0.0129
61079DOD     C127056  23.588   7.438  24.745  0.1469  0.0632  0.0932
61079DOD     C227057  23.531   7.028  24.974  0.2045  0.0574  0.0599
61079DOD     C327058  23.555   6.615  25.214 -0.1586  0.0813 -0.0149
61080DOD     C127059  25.554  15.690  16.224 -0.1478 -0.1817 -0.5411
61080DOD     C227060  25.840  15.774  15.878 -0.1347 -0.1454 -0.0808
61080DOD     C327061  26.033  15.840  15.456 -0.1218 -0.0435 -0.2850
61081DOD     C127062   6.812  24.650  19.164 -0.2167  0.1043  0.2252
61081DOD     C227063   6.989  24.210  19.170  0.1451 -0.0345  0.0974
61081DOD     C327064   7.174  24.058  19.566  0.0938 -0.3133 -0.2479
61082DOD     C127065  22.656   5.835  23.094  0.3214  0.0569  0.3044
61082DOD     C227066  23.111   5.868  22.890  0.0252  0.1764  0.0273
61082DOD     C327067  23.369   5.807  22.519 -0.0540 -0.1327  0.1037
61083DOD     C127068  20.728  18.231  24.850  0.3363 -0.0779  0.0330
61083DOD     C227069  20.668  18.347  25.287 -0.1691 -0.0290 -0.1664
61083DOD     C327070  20.499  18.631  25.633 -0.0086  0.3043 -0.3097
61084DOD     C127071  12.947  23.673  11.997 -0.1094  0.0280 -0.0087
61084DOD     C227072  13.308  23.368  12.002  0.0046  0.0321  0.0694
61084DOD     C327073  13.666  23.224  11.698  0.0948 -0.4841  0.0359
61085DOD     C127074   5.915  19.991  12.093  0.3132  0.0116  0.0535
61085DOD     C227075   5.668  20.152  12.492  0.0173 -0.1188 -0.0648
61085DOD     C327076   5.537  20.292  12.866 -0.0590  0.0327  0.2885
61086DOD     C127077  19.948  30.200   4.119 -0.3960 -0.0185  0.3991
61086DOD     C227078  20.347  30.057   4.132  0.1852  0.0316  0.1302
61086DOD     C327079  20.723   0.017   4.134 -0.1319 -0.0747 -0.0689
61087DOD     C127080   0.467  14.732   4.453 -0.0487  0.2308  0.1298
61087DOD     C227081   0.348  15.104   4.743  0.2230 -0.1340 -0.0918
61087DOD     C327082   0.315  15.345   5.129 -0.0055 -0.3064  0.1004
61088DOD     C127083   5.000  20.210   1.088  0.0053 -0.2459  0.0048
61088DOD     C227084   5.157  19.935   1.397  0.2556 -0.3821  0.1088
61088DOD     C327085   5.596  19.874   1.534 -0.0203  0.1906  0.3341
61089DOD     C127086  26.808   8.894  10.880 -0.1312  0.1450  0.0131
61089DOD     C227087  26.958   8.621  11.223  0.3206 -0.1079 -0.0506
61089DOD     C327088  27.127   8.377  11.606  0.1542  0.1249  0.2287
61090DOD     C127089   4.166  18.582  17.672 -0.2792 -0.0711 -0.1926
61090DOD     C227090   4.374  18.997  17.597  0.0092  0.0174  0.1748
61090DOD     C327091   4.275  19.455  17.687 -0.1094 -0.1364  0.2240
61091DOD     C127092  12.643  22.481  13.745  0.1158  0.1452  0.2351
61091DOD     C227093  12.704  22.618  13.251  0.1440  0.0068 -0.1979
61091DOD     C327094  12.830  22.719  12.842 -0.3536 -0.0289  0.0947
61092DOD     C127095  29.097  25.732  18.016 -0.1239  0.1846  0.0108
61092DOD     C227096  28.835  25.734  18.402  0.0586  0.0734 -0.0016
61092DOD     C327097  28.902  25.949  18.793  0.2626  0.0422  0.1318
61093DOD     C127098  26.033   9.698  13.176 -0.0608  0.3830 -0.0367
61093DOD     C227099  26.289  10.000  12.946 -0.0895 -0.4422 -0.1072
61093DOD     C327100  26.695  10.231  12.839 -0.0321  0.0647 -0.1669
61094DOD     C127101   6.422  23.616  15.472 -0.2916 -0.0923  0.1503
61094DOD     C227102   6.029  23.512  15.173 -0.0127  0.0559 -0.0107
61094DOD     C327103   5.645  23.177  15.272  0.0223 -0.1733  0.2712
61095DOD     C127104  17.960  12.794   1.630  0.2620  0.0332 -0.0501
61095DOD     C227105  17.644  12.964   1.379  0.0534 -0.3001  0.0403
61095DOD     C327106  17.283  12.872   1.112 -0.0098  0.2676 -0.2017
61096DOD     C127107  23.147   5.267  20.447  0.0648  0.0550 -0.2527
61096DOD     C227108  22.973   5.429  20.042  0.0945 -0.0013  0.2015
61096DOD     C327109  23.186   5.229  19.663 -0.0390 -0.0053 -0.0587
61097DOD     C127110   6.855  14.682   2.811  0.2389  0.0071 -0.0054
61097DOD     C227111   6.919  15.057   3.096 -0.1216  0.2329 -0.0715
61097DOD     C327112   6.873  15.472   3.352  0.1152  0.0362  0.0701
61098DOD     C127113   0.544  19.565  29.687 -0.1299  0.0130 -0.2133
61098DOD     C227114   0.310  19.226  29.462  0.0645  0.2503  0.0437
61098DOD     C327115  30.282  19.068  29.247 -0.0023  0.1794 -0.2814
61099DOD     C127116  14.149   9.444   7.867  0.1688  0.0096  0.1262
61099DOD     C227117  14.043   9.729   7.523 -0.0540  0.0070  0.0344
61099DOD     C327118  13.994   9.864   7.071  0.0271 -0.1496 -0.2438
61100DOD     C127119   1.081  12.716  18.830 -0.2040  0.1261  0.1018
61100DOD     C227120   0.957  12.823  19.283  0.2634 -0.0690 -0.2497
61100DOD     C327121   1.136  13.097  19.614  0.0514 -0.3526 -0.0110
61101DOD     C127122  20.898  14.256  27.184 -0.1455  0.1813 -0.2194
61101DOD     C227123  21.097  14.234  26.763  0.1229  0.2542  0.1726
61101DOD     C327124  21.119  14.155  26.324 -0.3694  0.0616 -0.0549
61102DOD     C127125  11.564   7.497   2.644  0.0261  0.0253 -0.0009
61102DOD     C227126  11.308   7.642   2.317  0.4200  0.0183 -0.2524
61102DOD     C327127  11.359   7.704   1.833  0.3461 -0.2060 -0.3179
61103DOD     C127128   7.948  20.122  22.203 -0.0812  0.0209  0.0297
61103DOD     C227129   8.274  19.765  22.192 -0.0680 -0.2256 -0.0190
61103DOD     C327130   8.312  19.443  21.933 -0.0950 -0.2594 -0.1803
61104DOD     C127131  29.623   1.131   2.495  0.0603  0.3234  0.0307
61104DOD     C227132  29.452   1.014   2.105  0.0301  0.2231  0.3186
61104DOD     C327133  29.568   0.613   1.847 -0.0421  0.2339 -0.0822
61105DOD     C127134  24.577  29.634  18.594  0.3218 -0.0520  0.1208
61105DOD     C227135  24.343  29.950  18.854  0.1099 -0.0339 -0.1207
61105DOD     C327136  23.949  29.858  19.112  0.1169  0.0426 -0.2510
61106DOD     C127137   4.985  14.409  19.350 -0.1143 -0.1478  0.2552
61106DOD     C227138   5.150  14.578  18.935 -0.0632 -0.3439 -0.0335
61106DOD     C327139   5.487  14.777  18.749 -0.2542 -0.3274 -0.2287
61107DOD     C127140  12.746   7.491   7.616  0.1038 -0.2018  0.0784
61107DOD     C227141  12.919   7.081   7.757  0.1214  0.0326  0.3517
61107DOD     C327142  13.031   6.666   7.524 -0.0578  0.3704 -0.2624
61108DOD     C127143   6.705  14.926  17.442 -0.2373 -0.1555  0.0421
61108DOD     C227144   6.413  14.986  17.785 -0.0955 -0.0148  0.0204
61108DOD     C327145   6.277  15.262  18.144  0.1205 -0.2163 -0.0387
61109DOD     C127146  15.939  19.340   3.048  0.1483 -0.2155  0.3272
61109DOD     C227147  16.324  19.163   2.906 -0.1394  0.0132 -0.0375
61109DOD     C327148  16.805  19.220   2.865  0.4182 -0.0449  0.0145
61110DOD     C127149  14.689  18.936   0.662  0.0377  0.1166  0.0493
61110DOD     C227150  14.603  19.328   0.388 -0.0449 -0.0803  0.0503
61110DOD     C327151  14.246  19.406   0.119 -0.0897 -0.1991  0.1775
61111DOD     C127152  18.391  18.964  16.072 -0.2326  0.1297 -0.2617
61111DOD     C227153  18.052  18.840  16.387  0.1296  0.2339  0.0188
61111DOD     C327154  17.590  18.715  16.474  0.1167  0.2196 -0.1373
61112DOD     C127155  25.754  18.257   9.121  0.1645  0.2462 -0.0108
61112DOD     C227156  25.321  18.179   8.964  0.2292 -0.0241  0.0335
61112DOD     C327157  24.906  17.967   8.833 -0.1627 -0.0201  0.1509
61113DOD     C127158   6.024  10.270  21.648 -0.0871  0.0190  0.0805
61113DOD     C227159   6.479  10.184  21.666 -0.0915 -0.3782 -0.2808
61113DOD     C327160   6.957  10.195  21.655  0.0227  0.0651 -0.2482
61114DOD     C127161   8.172   6.047  17.844  0.5263  0.0094 -0.0950
61114DOD     C227162   8.014   5.999  17.407 -0.1115  0.0548 -0.2518
61114DOD     C327163   7.863   5.681  17.107  0.1660 -0.2324 -0.2720
61115DOD     C127164  13.085   0.135  15.330  0.2412 -0.1320  0.0517
61115DOD     C227165  13.322   0.520  15.184  0.3486  0.0830  0.4564
61115DOD     C327166  13.293   0.721  14.754  0.1247 -0.1848  0.2899
61116DOD     C127167   9.863   2.317  23.214 -0.1397  0.0577  0.1118
61116DOD     C227168  10.224   2.383  22.982 -0.0918  0.0174 -0.0033
61116DOD     C327169  10.685   2.593  23.070 -0.1428  0.0355 -0.1253
61117DOD     C127170  23.893  20.926   1.979 -0.0579 -0.0006 -0.1288
61117DOD     C227171  24.225  21.260   2.153 -0.2395  0.1694  0.1960
61117DOD     C327172  24.520  21.406   2.447 -0.0604  0.1656 -0.0287
61118DOD     C127173   9.805  13.060  15.010 -0.2021 -0.0426  0.0909
61118DOD     C227174   9.837  12.888  15.460  0.1929 -0.2182 -0.0467
61118DOD     C327175  10.041  12.606  15.699 -0.1006  0.0131 -0.2501
61119DOD     C127176  28.645   2.990   1.205  0.0051 -0.3115 -0.2322
61119DOD     C227177  28.289   3.102   1.437  0.0651 -0.0853 -0.0315
61119DOD     C327178  27.960   3.418   1.304 -0.0931  0.1875  0.2879
61120DOD     C127179  23.129  23.510  20.737  0.2008  0.0729 -0.2154
61120DOD     C227180  22.864  23.178  20.484  0.0249  0.1367  0.0447
61120DOD     C327181  22.927  22.749  20.303 -0.0061 -0.1179 -0.0066
61121DOD     C127182  22.505  10.736   1.079  0.1529  0.1523 -0.0888
61121DOD     C227183  22.329  11.006   1.435 -0.0702 -0.0534  0.0641
61121DOD     C327184  22.035  11.362   1.654 -0.3761 -0.1973  0.0492
61122DOD     C127185   0.094  14.331  17.763  0.1437  0.0408 -0.1877
61122DOD     C227186  30.295  14.534  18.188  0.2096 -0.1783 -0.0143
61122DOD     C327187  30.006  14.529  18.611  0.0800 -0.1412  0.2526
61123DOD     C127188  21.623  10.064  29.561 -0.0848  0.0742  0.0231
61123DOD     C227189  21.507   9.633  29.387 -0.0467 -0.2587  0.3694
61123DOD     C327190  21.531   9.230  29.193  0.0758  0.1265  0.1044
61124DOD     C127191  25.702  19.736   6.738  0.1760  0.2951  0.1760
61124DOD     C227192  25.272  19.686   6.530  0.2251 -0.1918 -0.0230
61124DOD     C327193  24.842  19.587   6.387  0.0213  0.0740 -0.0587
61125DOD     C127194   6.145  24.032  21.971  0.4180 -0.0955  0.1395
61125DOD     C227195   5.945  24.437  21.893 -0.2273 -0.0612  0.0342
61125DOD     C327196   5.891  24.749  22.189 -0.3329 -0.1533  0.2575
61126DOD     C127197   8.235  26.767  17.446  0.1409 -0.1140  0.1798
61126DOD     C227198   8.733  26.809  17.608  0.0452  0.1189 -0.1800
61126DOD     C327199   8.964  26.930  18.032 -0.0213  0.0595  0.3885
61127DOD     C127200   0.862  18.000  13.598  0.0959  0.0072  0.1585
61127DOD     C227201   0.900  18.481  13.602 -0.2119  0.3182  0.1183
61127DOD     C327202   0.812  18.909  13.405 -0.0415 -0.1515 -0.0368
61128DOD     C127203  13.914  20.869  12.703  0.0209  0.1623  0.0091
61128DOD     C227204  13.518  21.154  12.581 -0.0955  0.0940 -0.0774
61128DOD     C327205  13.039  21.060  12.675  0.1119 -0.3258  0.2113
61129DOD     C127206  18.444  29.971   7.858 -0.0333 -0.0669 -0.2437
61129DOD     C227207  18.310   0.087   7.857 -0.0343  0.2564  0.1453
61129DOD     C327208  18.245   0.524   7.814  0.0136 -0.3112  0.0821
61130DOD     C127209  24.602  11.809   9.185 -0.0381  0.2589  0.3348
61130DOD     C227210  24.719  12.252   9.265  0.1004 -0.1138 -0.2901
61130DOD     C327211  24.774  12.702   9.350 -0.4360  0.1848  0.0386
61131DOD     C127212   2.926   5.456  27.368 -0.0398  0.0423 -0.0559
61131DOD     C227213   2.477   5.328  27.477 -0.2043 -0.2006  0.3053
61131DOD     C327214   2.028   5.325  27.492  0.3080  0.1670  0.1572
61132DOD     C127215  27.042   6.082  18.504  0.1226 -0.0305 -0.0021
61132DOD     C227216  27.413   5.895  18.690  0.1834 -0.0496  0.1353
61132DOD     C327217  27.796   5.939  18.897 -0.2530  0.0644  0.0303
61133DOD     C127218  10.072  17.931  21.607 -0.1952  0.2308  0.0204
61133DOD     C227219   9.974  17.614  21.339  0.2090 -0.1925 -0.0045
61133DOD     C327220   9.867  17.278  21.041  0.0292 -0.0241 -0.1066
61134DOD     C127221  22.522  15.288  25.420  0.0677  0.1284 -0.0752
61134DOD     C227222  22.620  14.813  25.458  0.0841 -0.4450 -0.2231
61134DOD     C327223  22.860  14.412  25.616 -0.0488  0.0064 -0.2718
61135DOD     C127224  16.950  12.132   9.566 -0.2550  0.0440  0.0585
61135DOD     C227225  17.189  12.061   9.153 -0.2411  0.2087  0.1074
61135DOD     C327226  17.121  11.789   8.867 -0.2362 -0.5276 -0.1238
61136DOD     C127227   2.031  20.308  20.625 -0.1341 -0.0662  0.0358
61136DOD     C227228   2.019  19.869  20.473 -0.1940  0.0313  0.1119
61136DOD     C327229   2.004  19.461  20.214  0.0339  0.3402  0.2730
61137DOD     C127230  18.031   1.731  28.064 -0.0213 -0.4525  0.2241
61137DOD     C227231  17.916   1.794  27.653  0.0226 -0.0894 -0.0530
61137DOD     C327232  17.887   2.128  27.351 -0.2298  0.1856  0.1914
61138DOD     C127233  29.442  27.019  17.461  0.2763  0.1814 -0.0493
61138DOD     C227234  29.149  27.340  17.619 -0.2019  0.0424  0.2036
61138DOD     C327235  28.939  27.594  17.976  0.0207  0.0195  0.0095
61139DOD     C127236  28.906  28.184  20.651 -0.3019 -0.1854  0.1055
61139DOD     C227237  28.868  27.807  20.402  0.1860  0.1909 -0.1749
61139DOD     C327238  28.695  27.552  20.015 -0.2131 -0.0268  0.1685
61140DOD     C127239  27.271  12.622   9.986  0.1321  0.3043 -0.0730
61140DOD     C227240  27.760  12.576  10.142  0.0610 -0.2256 -0.0923
61140DOD     C327241  28.067  12.292   9.946 -0.0408  0.0087  0.0174
61141DOD     C127242  21.170  26.839  13.018 -0.0012 -0.4479 -0.0120
61141DOD     C227243  21.611  26.945  12.938 -0.3187 -0.3544 -0.1363
61141DOD     C327244  21.975  27.258  12.807 -0.0249 -0.1480 -0.0163
61142DOD     C127245   9.872  16.029  12.561  0.1155  0.0220 -0.0677
61142DOD     C227246  10.136  16.433  12.453  0.0944 -0.2615  0.3185
61142DOD     C327247  10.358  16.745  12.769  0.0213 -0.0772  0.1022
61143DOD     C127248  24.544  10.362   0.698  0.3756  0.0674 -0.0183
61143DOD     C227249  24.513  10.746   0.466 -0.0834  0.1248 -0.1769
61143DOD     C327250  24.587  11.194   0.452  0.3360 -0.2445 -0.2070
61144DOD     C127251   4.414  14.449   6.157 -0.0278  0.1450  0.0429
61144DOD     C227252   4.427  14.039   6.320  0.0039  0.3468 -0.0971
61144DOD     C327253   4.416  13.678   6.596 -0.2393  0.1671 -0.2532
61145DOD     C127254  26.326   0.754  16.368 -0.1000  0.2085 -0.1900
61145DOD     C227255  26.649   0.436  16.361 -0.1337  0.0480 -0.0653
61145DOD     C327256  27.080   0.332  16.352 -0.0937 -0.1935  0.1266
61146DOD     C127257   7.918  14.971  10.029 -0.1999 -0.0671 -0.0440
61146DOD     C227258   8.033  15.395   9.906  0.0531  0.1233  0.2062
61146DOD     C327259   8.244  15.689   9.577 -0.0213 -0.0937  0.0600
61147DOD     C127260   8.294  12.776  12.958  0.0093  0.1886  0.0433
61147DOD     C227261   8.642  12.471  13.093 -0.0474  0.1341 -0.1393
61147DOD     C327262   8.986  12.370  13.428  0.2579  0.1624 -0.0511
61148DOD     C127263  23.522  22.666  11.768 -0.0433  0.1398 -0.1350
61148DOD     C227264  23.338  22.514  11.415 -0.5036 -0.1644 -0.4857
61148DOD     C327265  23.492  22.422  10.952 -0.0739 -0.0673 -0.0634
61149DOD     C127266  19.750  24.343  20.225  0.0034  0.1562 -0.3215
61149DOD     C227267  19.595  24.160  19.824  0.0877 -0.0746 -0.0008
61149DOD     C327268  19.305  24.088  19.454 -0.1915 -0.1563 -0.0130
61150DOD     C127269   6.130   4.029  17.151 -0.0655  0.0152 -0.2740
61150DOD     C227270   6.271   3.814  17.534 -0.0195 -0.2380  0.1603
61150DOD     C327271   6.596   3.493  17.682  0.0277  0.0685 -0.1758
61151DOD     C127272  19.384   4.323  14.463  0.0469  0.0774 -0.0974
61151DOD     C227273  19.091   3.987  14.379 -0.1866 -0.1693  0.0847
61151DOD     C327274  18.787   3.723  14.551 -0.2405  0.1211 -0.0601
61152DOD     C127275   7.762  26.033  21.057 -0.0071  0.0752 -0.1215
61152DOD     C227276   7.691  26.426  20.869  0.1045  0.0590  0.1003
61152DOD     C327277   7.668  26.862  20.890 -0.1011 -0.0377  0.0311
61153DOD     C127278  21.361  22.487  20.537 -0.1698  0.0254 -0.1005
61153DOD     C227279  20.916  22.648  20.385 -0.0390 -0.1602  0.0057
61153DOD     C327280  20.422  22.598  20.181 -0.2941  0.1879 -0.0869
61154DOD     C127281  12.718  22.407  23.072 -0.0694  0.0973  0.0610
61154DOD     C227282  12.991  22.735  22.893  0.0107 -0.1839  0.2944
61154DOD     C327283  13.192  23.168  22.907  0.0045  0.0800  0.0228
61155DOD     C127284  25.878   0.914  10.156  0.1263 -0.0008 -0.1086
61155DOD     C227285  25.838   0.981   9.693 -0.0599  0.2971 -0.0116
61155DOD     C327286  25.579   0.895   9.317  0.1876 -0.0383  0.3695
61156DOD     C127287  23.114  10.510  10.964  0.0823  0.2190  0.4144
61156DOD     C227288  23.340  10.239  10.690  0.0983  0.3121 -0.1065
61156DOD     C327289  23.396   9.790  10.521  0.1984 -0.1760  0.4130
61157DOD     C127290  21.084  22.734  15.906 -0.3784 -0.1378  0.0036
61157DOD     C227291  20.714  22.536  16.030 -0.0378  0.1996  0.2321
61157DOD     C327292  20.275  22.539  16.187 -0.0537  0.1899 -0.3381
61158DOD     C127293  25.521  29.070  19.776 -0.4675 -0.1448  0.0286
61158DOD     C227294  25.447  28.737  19.479 -0.1416 -0.2677  0.0219
61158DOD     C327295  25.555  28.464  19.071 -0.2783 -0.0600 -0.1534
61159DOD     C127296  19.433  19.497  22.618  0.1519 -0.0598 -0.0044
61159DOD     C227297  19.114  19.261  22.332  0.3591 -0.1918  0.1879
61159DOD     C327298  18.980  19.109  21.901  0.4241  0.0361 -0.2124
61160DOD     C127299   9.431   3.814  17.596  0.3131 -0.0942 -0.2171
61160DOD     C227300   9.309   3.945  18.034  0.0974  0.1697  0.6046
61160DOD     C327301   9.031   3.689  18.292  0.2689 -0.0048 -0.1105
61161DOD     C127302   4.362  10.962  21.090 -0.0813  0.0203  0.2189
61161DOD     C227303   4.781  11.178  21.175 -0.2982  0.4595  0.1394
61161DOD     C327304   5.073  11.527  21.351  0.1514 -0.4598  0.2610
61162DOD     C127305  20.394  14.562   9.521 -0.1401  0.0004 -0.0248
61162DOD     C227306  20.664  14.838   9.816 -0.0282  0.2434  0.1472
61162DOD     C327307  20.500  15.115  10.182 -0.1710  0.4005 -0.0956
61163DOD     C127308  13.392   2.209  24.886  0.1845  0.0191 -0.3105
61163DOD     C227309  13.077   2.360  25.161  0.1505  0.0352 -0.2299
61163DOD     C327310  12.811   2.559  25.424 -0.3434  0.0958 -0.1249
61164DOD     C127311  -0.016   5.204  10.523 -0.0884 -0.1573  0.0059
61164DOD     C227312  30.336   5.467  10.915  0.2407  0.1079  0.0097
61164DOD     C327313   0.128   5.685  11.318  0.2798  0.0626  0.0475
61165DOD     C127314   5.301  14.381   3.881 -0.1535  0.0448  0.1924
61165DOD     C227315   5.645  14.087   3.704  0.3395 -0.1561 -0.0312
61165DOD     C327316   5.937  13.903   3.359 -0.2215  0.0918 -0.4643
61166DOD     C127317  24.886  19.138   1.491 -0.0075  0.1482 -0.1170
61166DOD     C227318  24.662  18.755   1.693 -0.2636 -0.1125  0.1892
61166DOD     C327319  24.361  18.376   1.673  0.1548 -0.2821 -0.0218
61167DOD     C127320  16.866   0.009  22.182 -0.2486 -0.0733  0.1715
61167DOD     C227321  16.584   0.175  21.843  0.3237 -0.0972 -0.0903
61167DOD     C327322  16.253   0.380  21.576  0.2192  0.3436 -0.0197
61168DOD     C127323   2.850  25.992  20.030  0.0246 -0.0829 -0.2237
61168DOD     C227324   3.131  25.654  20.064 -0.0533  0.0525  0.0035
61168DOD     C327325   3.381  25.547  19.712 -0.0337 -0.2226 -0.1468
61169DOD     C127326   0.136  19.313  25.201  0.0107  0.0234 -0.2004
61169DOD     C227327   0.212  18.874  25.155  0.0851 -0.2903 -0.2207
61169DOD     C327328   0.310  18.412  25.190  0.3821  0.1250 -0.1422
61170DOD     C127329   9.796  16.099   1.526 -0.0823  0.0200 -0.2547
61170DOD     C227330   9.756  15.776   1.856  0.0172 -0.0728  0.0524
61170DOD     C327331   9.709  15.472   2.238 -0.2095 -0.0510  0.0669
61171DOD     C127332   3.305  23.939   5.352  0.2263  0.0252 -0.2705
61171DOD     C227333   3.709  23.719   5.231  0.1362  0.1103 -0.0032
61171DOD     C327334   4.149  23.925   5.344  0.0111 -0.0850  0.0148
61172DOD     C127335  17.717  29.078  18.234  0.3004  0.3440 -0.0127
61172DOD     C227336  17.971  28.859  17.909 -0.0516  0.0030 -0.0988
61172DOD     C327337  17.965  28.621  17.532 -0.1352 -0.0947 -0.2662
61173DOD     C127338  26.299  30.240  10.788 -0.0480  0.2975  0.1183
61173DOD     C227339  26.129   0.317  10.581  0.1605 -0.0887 -0.0881
61173DOD     C327340  25.943   0.712  10.647  0.3426 -0.0496  0.2626
61174DOD     C127341  25.625  24.255   1.503  0.0148  0.1885 -0.2029
61174DOD     C227342  25.317  24.519   1.254  0.3088  0.1218 -0.0836
61174DOD     C327343  25.036  24.623   0.883 -0.1364 -0.0660 -0.0757
61175DOD     C127344  10.467  16.629   9.132 -0.1837 -0.2181  0.5499
61175DOD     C227345  10.051  16.680   9.233 -0.0154  0.1882  0.0775
61175DOD     C327346   9.605  16.511   9.339 -0.0225  0.1237 -0.1556
61176DOD     C127347   7.502   2.669  15.230 -0.1830 -0.2638 -0.0576
61176DOD     C227348   7.160   2.963  15.251 -0.5141  0.0803 -0.0344
61176DOD     C327349   7.126   3.401  15.463  0.0708 -0.1187  0.0603
61177DOD     C127350  18.215   3.387  23.947 -0.0031 -0.1515 -0.4026
61177DOD     C227351  18.008   3.153  23.661  0.0260  0.0529  0.3109
61177DOD     C327352  17.791   3.211  23.263 -0.1552 -0.0033 -0.2290
61178DOD     C127353  29.466  21.550  26.891 -0.0529  0.2160  0.2329
61178DOD     C227354  29.384  21.227  26.606  0.2146  0.0060  0.2094
61178DOD     C327355  29.467  20.789  26.432 -0.1883 -0.2752  0.0308
61179DOD     C127356   3.445   5.136  11.666 -0.1310  0.1750  0.1298
61179DOD     C227357   3.755   5.324  11.344  0.0902 -0.1154 -0.2080
61179DOD     C327358   4.145   5.421  11.580  0.0062 -0.2930  0.1000
61180DOD     C127359   5.778  26.462  17.777 -0.1370 -0.1205 -0.0374
61180DOD     C227360   6.147  26.327  18.020 -0.0933 -0.1412 -0.1560
61180DOD     C327361   6.204  26.310  18.455  0.3493 -0.0632 -0.0986
61181DOD     C127362  14.510   0.772  19.131 -0.0700  0.0474  0.1538
61181DOD     C227363  14.094   0.820  19.444  0.1692  0.1330  0.3302
61181DOD     C327364  13.696   1.000  19.632 -0.2743  0.0936 -0.0606
61182DOD     C127365  12.970   9.623   8.568 -0.0298 -0.0403 -0.2437
61182DOD     C227366  12.753   9.699   8.990 -0.0963  0.4045  0.0286
61182DOD     C327367  12.422   9.576   9.305 -0.2036 -0.2342  0.3283
61183DOD     C127368  29.000  18.383   6.572  0.0345 -0.1833  0.0847
61183DOD     C227369  29.306  18.089   6.819  0.2517 -0.0675  0.1495
61183DOD     C327370  29.761  17.930   6.836  0.1670 -0.0243 -0.1660
61184DOD     C127371  19.009  15.424  20.347 -0.2040  0.1964 -0.0812
61184DOD     C227372  18.562  15.564  20.312  0.1903  0.1176  0.0705
61184DOD     C327373  18.377  15.968  20.389 -0.1217 -0.0895 -0.0878
61185DOD     C127374  11.240  24.197  23.821  0.1029  0.4107 -0.0484
61185DOD     C227375  11.319  24.045  23.388 -0.0468  0.0881  0.1177
61185DOD     C327376  11.628  24.170  23.021 -0.1499 -0.0999  0.0243
61186DOD     C127377  11.440   9.778  10.803 -0.1556  0.0073  0.1103
61186DOD     C227378  11.468   9.333  11.055 -0.3136  0.2164  0.3977
61186DOD     C327379  11.318   8.890  10.945  0.1571 -0.2176  0.3679
61187DOD     C127380  23.318  23.774  30.189  0.1456  0.0646  0.2394
61187DOD     C227381  22.883  23.597  30.265 -0.0530  0.3582  0.1164
61187DOD     C327382  22.521  23.479   0.142 -0.1215 -0.1621  0.1727
61188DOD     C127383  15.276  15.460   3.154 -0.1026  0.0012  0.0851
61188DOD     C227384  15.077  15.846   3.322  0.2700  0.0013 -0.0231
61188DOD     C327385  15.139  16.287   3.190 -0.3362  0.0062  0.1516
61189DOD     C127386  26.296   6.643   0.804  0.2497 -0.0479  0.2176
61189DOD     C227387  26.172   7.042   1.062 -0.0366  0.1125  0.2711
61189DOD     C327388  25.960   7.404   1.079  0.1156 -0.1603 -0.0844
61190DOD     C127389   2.551  14.764  18.838  0.1006  0.1079 -0.1428
61190DOD     C227390   2.437  14.945  19.213  0.3116  0.0330 -0.1157
61190DOD     C327391   2.388  15.397  19.479 -0.0087 -0.1621  0.1319
61191DOD     C127392   7.794  12.188   3.240  0.0247  0.1668 -0.5147
61191DOD     C227393   7.534  11.993   2.932  0.4354 -0.1072 -0.2080
61191DOD     C327394   7.297  11.741   2.634 -0.0876  0.2654 -0.0514
61192DOD     C127395  19.379  21.975  14.747  0.2185 -0.0652  0.4295
61192DOD     C227396  19.711  21.826  14.508 -0.0512 -0.0991 -0.2072
61192DOD     C327397  20.028  21.454  14.648  0.1222  0.0457 -0.0460
61193DOD     C127398  29.627  21.342  16.496 -0.1754 -0.2582  0.0161
61193DOD     C227399  29.784  21.659  16.784  0.3318 -0.2386  0.0367
61193DOD     C327400  29.966  21.942  17.048  0.1867 -0.2447  0.0365
61194DOD     C127401  18.803  11.711  19.738 -0.0833 -0.0469  0.1204
61194DOD     C227402  18.661  11.235  19.680  0.0399 -0.0618 -0.1930
61194DOD     C327403  18.244  11.115  19.933  0.1267  0.2519  0.0982
61195DOD     C127404  22.374  23.959  26.008 -0.0236  0.1415  0.1008
61195DOD     C227405  22.269  24.141  25.648 -0.1477  0.2710  0.0047
61195DOD     C327406  22.252  24.240  25.213 -0.1103  0.0521  0.0880
61196DOD     C127407  27.324  15.882  21.832  0.2587 -0.2124  0.4753
61196DOD     C227408  26.956  15.573  22.040  0.1558 -0.2437 -0.0494
61196DOD     C327409  26.991  15.487  22.491 -0.0423 -0.0651 -0.0739
61197DOD     C127410   7.445   2.321   3.754  0.0851  0.0277 -0.1425
61197DOD     C227411   7.041   2.533   3.849 -0.0365 -0.0296  0.1037
61197DOD     C327412   6.899   2.861   3.558  0.0863  0.0104 -0.0397
61198DOD     C127413  24.247  14.855  14.748  0.0457  0.1711  0.2301
61198DOD     C227414  23.938  14.744  15.094  0.1689 -0.3970  0.2049
61198DOD     C327415  23.773  14.689  15.532  0.1576 -0.0271 -0.5491
61199DOD     C127416  19.449  27.976  16.494  0.0199 -0.0976 -0.1017
61199DOD     C227417  19.040  27.941  16.722 -0.0536  0.1036 -0.1132
61199DOD     C327418  18.599  28.053  16.652  0.2378 -0.2803  0.0991
61200DOD     C127419  22.356  24.307   6.018 -0.0983 -0.0247  0.0876
61200DOD     C227420  22.291  24.554   5.621  0.3082 -0.2587  0.0086
61200DOD     C327421  22.057  24.942   5.328 -0.2500  0.1212 -0.0887
61201DOD     C127422   6.454   3.769  14.289 -0.0126  0.3850 -0.3059
61201DOD     C227423   6.169   3.544  13.970 -0.0087  0.1783  0.0663
61201DOD     C327424   5.899   3.303  13.663  0.2459  0.0886 -0.1638
61202DOD     C127425  10.625  18.686  25.631 -0.1416  0.0094 -0.3495
61202DOD     C227426  10.863  18.538  26.059  0.1197 -0.0242  0.3423
61202DOD     C327427  11.205  18.249  26.216  0.0766 -0.1628 -0.2308
61203DOD     C127428   6.741   6.114  10.636  0.4269  0.4717 -0.2616
61203DOD     C227429   6.492   5.647  10.557  0.0595 -0.1791 -0.1923
61203DOD     C327430   6.181   5.232  10.464  0.1428 -0.1161 -0.0926
61204DOD     C127431  27.855   1.929   5.396  0.0946 -0.0440  0.2255
61204DOD     C227432  27.840   1.722   5.845 -0.1746  0.2128 -0.0541
61204DOD     C327433  27.874   1.837   6.298 -0.0633  0.3011  0.1712
61205DOD     C127434  26.186   5.030  18.325 -0.2059 -0.1574  0.0637
61205DOD     C227435  26.176   4.630  18.047  0.1139  0.0346  0.0778
61205DOD     C327436  26.495   4.582  17.675  0.0354  0.1612 -0.1153
61206DOD     C127437   0.095  25.850  22.345 -0.1992 -0.0162  0.1015
61206DOD     C227438  29.988  25.760  22.305 -0.1249 -0.0788  0.0034
61206DOD     C327439  29.713  25.886  21.928  0.0651  0.1159 -0.0881
61207DOD     C127440  21.358  24.970   1.419 -0.1417  0.1843 -0.0904
61207DOD     C227441  21.386  25.362   1.686  0.0730 -0.1204 -0.0959
61207DOD     C327442  21.272  25.711   1.973  0.2225  0.1969  0.3286
61208DOD     C127443  15.420   0.890   7.818 -0.1968 -0.2494  0.1941
61208DOD     C227444  15.861   1.113   7.762 -0.3257 -0.1840 -0.0028
61208DOD     C327445  16.004   1.509   7.546 -0.0033  0.1795  0.2180
61209DOD     C127446  24.034  20.543  27.649  0.2438 -0.0146  0.3418
61209DOD     C227447  24.467  20.384  27.834 -0.0101 -0.1027  0.3307
61209DOD     C327448  24.900  20.265  27.915 -0.0140  0.2434  0.3455
61210DOD     C127449   2.178  14.786  28.786 -0.0349  0.1171 -0.2407
61210DOD     C227450   1.785  14.665  28.959 -0.0829 -0.0229  0.1041
61210DOD     C327451   1.536  14.661  29.375  0.1776  0.0355 -0.0875
61211DOD     C127452  23.933   0.918  22.508  0.0220 -0.1245 -0.1396
61211DOD     C227453  23.855   0.579  22.254  0.0758  0.0802 -0.3353
61211DOD     C327454  24.069   0.319  21.979  0.1278  0.2196  0.1392
61212DOD     C127455  13.099   7.603   0.628 -0.1704  0.0425  0.3022
61212DOD     C227456  13.504   7.431   0.588  0.1672 -0.1099  0.0671
61212DOD     C327457  13.779   7.276   0.300 -0.3223  0.1801 -0.0987
61213DOD     C127458  16.923  28.328   0.948 -0.2110 -0.0514  0.1406
61213DOD     C227459  16.495  28.266   1.042 -0.6341 -0.0533  0.1273
61213DOD     C327460  16.145  28.463   1.279 -0.1527 -0.0013  0.0491
61214DOD     C127461  17.280  20.281   1.422  0.0568  0.1084  0.3908
61214DOD     C227462  17.693  20.272   1.143  0.1049  0.1462 -0.0746
61214DOD     C327463  17.869  20.322   0.695  0.0435 -0.1174  0.0455
61215DOD     C127464  29.009  18.984  15.361  0.0290  0.2199  0.0005
61215DOD     C227465  28.805  18.913  15.780 -0.1258 -0.1168  0.1595
61215DOD     C327466  28.724  18.978  16.190  0.0180 -0.0119  0.1311
61216DOD     C127467  20.134   6.117  17.067 -0.0729  0.0841 -0.0540
61216DOD     C227468  20.459   5.914  16.838  0.2514 -0.1869 -0.0564
61216DOD     C327469  20.867   5.918  16.711 -0.2069  0.0554 -0.0080
61217DOD     C127470  12.593   7.451   8.228  0.1967 -0.0254  0.1211
61217DOD     C227471  12.579   6.969   8.091 -0.2331 -0.2150 -0.2387
61217DOD     C327472  12.493   6.833   7.667 -0.2421 -0.0381  0.3800
61218DOD     C127473  25.475   4.932  16.557 -0.1163 -0.1184  0.0017
61218DOD     C227474  25.015   4.967  16.431  0.2377 -0.2680  0.2442
61218DOD     C327475  24.664   4.716  16.263 -0.2117  0.1100 -0.1771
61219DOD     C127476  15.399  14.520  13.873 -0.0204  0.0190  0.1177
61219DOD     C227477  15.002  14.733  13.844  0.1511  0.0457  0.2125
61219DOD     C327478  14.591  14.844  13.657 -0.0722 -0.0615 -0.0776
61220DOD     C127479  22.953  17.926  14.135 -0.1764  0.1125  0.1510
61220DOD     C227480  23.233  18.314  14.187  0.2442 -0.2483  0.1526
61220DOD     C327481  23.187  18.762  14.121  0.1810  0.1142 -0.1002
61221DOD     C127482  21.665  16.036   2.432  0.0913 -0.2214 -0.4748
61221DOD     C227483  21.651  15.890   2.883 -0.1886  0.0755 -0.0396
61221DOD     C327484  21.392  15.690   3.253  0.1786  0.1937  0.0172
61222DOD     C127485  19.213   3.876  23.063 -0.0724  0.0620  0.1493
61222DOD     C227486  19.150   3.494  22.763 -0.3003 -0.2261  0.0956
61222DOD     C327487  19.204   3.088  22.502 -0.1344  0.3531  0.1812
61223DOD     C127488  12.378  21.947  15.458 -0.1041 -0.1304  0.0826
61223DOD     C227489  12.212  22.023  15.908 -0.1973 -0.2913  0.2749
61223DOD     C327490  12.274  22.346  16.213 -0.0812 -0.0754  0.0457
61224DOD     C127491  13.308  10.141  28.703 -0.2305 -0.1780 -0.0579
61224DOD     C227492  13.212   9.716  28.779 -0.0202  0.1273 -0.3663
61224DOD     C327493  13.519   9.311  28.737  0.2155 -0.2058 -0.1330
61225DOD     C127494  14.910  11.783  19.493 -0.3064  0.2798  0.2024
61225DOD     C227495  14.765  12.186  19.700 -0.0709  0.4276 -0.1436
61225DOD     C327496  14.374  12.328  19.560  0.2587  0.0319  0.1093
61226DOD     C127497  21.083  22.613  26.421 -0.0986 -0.1389  0.1050
61226DOD     C227498  20.961  23.053  26.533 -0.2527  0.0030 -0.1100
61226DOD     C327499  21.103  23.431  26.310 -0.0447  0.0931  0.0825
61227DOD     C127500  18.548  24.176  26.989  0.0028 -0.2916  0.1095
61227DOD     C227501  19.021  24.213  27.049 -0.0911 -0.0236 -0.0348
61227DOD     C327502  19.276  24.350  27.429 -0.0019  0.1257  0.0729
61228DOD     C127503  13.558   0.506   9.622 -0.0762 -0.1839  0.0057
61228DOD     C227504  13.928   0.245   9.620 -0.0994 -0.1647 -0.3224
61228DOD     C327505  14.288  -0.037   9.619  0.0087 -0.2941  0.1102
61229DOD     C127506   0.162   4.699   8.197  0.0203 -0.1405 -0.3549
61229DOD     C227507  30.295   5.071   8.250 -0.1142 -0.1207  0.0710
61229DOD     C327508  29.806   5.214   8.257  0.0329  0.1379 -0.1218
61230DOD     C127509   7.753   3.570  15.138  0.0640 -0.1337  0.0936
61230DOD     C227510   7.675   3.151  15.452 -0.1671 -0.0819  0.0646
61230DOD     C327511   7.564   2.750  15.710 -0.0329  0.0884 -0.2763
61231DOD     C127512  17.096  24.285  24.975  0.0938  0.0584 -0.1568
61231DOD     C227513  17.192  24.623  25.326 -0.0713 -0.0702  0.0786
61231DOD     C327514  17.173  24.950  25.674  0.1847 -0.1572 -0.2017
61232DOD     C127515  12.216  17.529   5.393  0.1530 -0.0816  0.1823
61232DOD     C227516  12.094  17.132   5.265 -0.0040 -0.0761 -0.3034
61232DOD     C327517  12.024  16.881   4.910  0.0498  0.2321 -0.1608
61233DOD     C127518  23.917   6.084  26.882  0.0241 -0.3407  0.1132
61233DOD     C227519  24.409   6.192  26.853 -0.0051  0.0649 -0.3465
61233DOD     C327520  24.815   6.359  27.008 -0.3284  0.0109 -0.0916
61234DOD     C127521   4.172  15.192   7.962 -0.1582 -0.1364  0.1410
61234DOD     C227522   4.140  15.145   7.503 -0.0855  0.2401 -0.0262
61234DOD     C327523   4.213  15.332   7.073  0.2817 -0.0811  0.2122
61235DOD     C127524  28.242  25.223   3.064 -0.3284 -0.0706  0.0836
61235DOD     C227525  28.283  24.735   3.094 -0.2467  0.1635 -0.4314
61235DOD     C327526  28.237  24.242   3.137  0.0830  0.0140 -0.3945
61236DOD     C127527  29.946  19.329   2.844  0.4108  0.0702 -0.4586
61236DOD     C227528  29.625  19.072   2.998  0.0761  0.0699 -0.1394
61236DOD     C327529  29.139  19.157   3.210  0.0285 -0.0735  0.2840
61237DOD     C127530   7.140  13.380  14.442  0.2036  0.2706  0.2139
61237DOD     C227531   6.710  13.224  14.324  0.3452  0.0120 -0.0046
61237DOD     C327532   6.272  13.334  14.130  0.4333 -0.2451  0.0580
61238DOD     C127533  11.334  29.936  20.910 -0.0139 -0.0139 -0.0263
61238DOD     C227534  11.265  30.197  21.255 -0.0156 -0.1335 -0.0680
61238DOD     C327535  11.481   0.042  21.625  0.0003 -0.2908  0.0968
61239DOD     C127536  19.639  21.253  22.548  0.2801 -0.1438 -0.0537
61239DOD     C227537  19.445  20.969  22.177 -0.0062 -0.0415  0.0180
61239DOD     C327538  19.215  20.706  21.858  0.0655  0.0408 -0.3172
61240DOD     C127539  27.322  29.464   9.682 -0.0353  0.1310  0.1164
61240DOD     C227540  27.240  29.364   9.283 -0.3398 -0.0606 -0.1362
61240DOD     C327541  26.988  29.565   8.964 -0.0513  0.0782 -0.1093
61241DOD     C127542  27.688   0.904  23.035  0.0071  0.0634 -0.1553
61241DOD     C227543  27.927   0.948  23.461  0.3059 -0.0788  0.0715
61241DOD     C327544  28.196   1.154  23.810 -0.2055  0.0581 -0.0316
61242DOD     C127545  23.592  29.065   2.869  0.3547  0.0480 -0.1056
61242DOD     C227546  23.774  28.675   2.871 -0.1420 -0.1195 -0.0977
61242DOD     C327547  23.889  28.361   3.078 -0.0453  0.1731  0.1361
61243DOD     C127548  24.517   7.583   2.423 -0.0375 -0.2212  0.0246
61243DOD     C227549  24.212   7.307   2.126 -0.3372  0.0932  0.0865
61243DOD     C327550  24.036   7.255   1.695  0.0180 -0.1510  0.2534
61244DOD     C127551  13.248  11.083   7.508 -0.2645 -0.0418 -0.2511
61244DOD     C227552  13.002  11.059   7.154 -0.0309 -0.4098  0.0664
61244DOD     C327553  12.652  10.913   6.799 -0.2509 -0.0071  0.0169
61245DOD     C127554   9.680  19.906   8.567 -0.1224  0.2517 -0.0178
61245DOD     C227555   9.770  20.127   8.137  0.0626 -0.0303 -0.1478
61245DOD     C327556   9.605  20.202   7.725  0.0406 -0.2802  0.0571
61246DOD     C127557  26.567  10.778  26.802 -0.0988  0.0280 -0.1423
61246DOD     C227558  26.557  10.729  26.330 -0.2286  0.0440  0.0879
61246DOD     C327559  26.320  10.669  25.968  0.0894  0.2218 -0.0834
61247DOD     C127560  22.345  10.644  27.462  0.0839  0.0374 -0.3157
61247DOD     C227561  22.686  10.800  27.197 -0.1359 -0.1749  0.2933
61247DOD     C327562  22.728  10.654  26.740 -0.3364 -0.0341 -0.1875
61248DOD     C127563  20.890  25.065  27.056 -0.4680  0.1675 -0.3888
61248DOD     C227564  21.095  25.469  26.904  0.1315  0.0428 -0.0460
61248DOD     C327565  21.470  25.768  26.969 -0.2131 -0.1715  0.0367
61249DOD     C127566  10.561  15.580  13.354 -0.2197  0.4659  0.0389
61249DOD     C227567  10.503  15.377  12.912 -0.0399  0.4019  0.1232
61249DOD     C327568  10.753  15.224  12.553  0.3187  0.2338  0.3772
61250DOD     C127569  23.330  20.754  16.419 -0.0856 -0.1367 -0.2000
61250DOD     C227570  23.494  20.472  16.753 -0.2174 -0.0156  0.2672
61250DOD     C327571  23.663  20.465  17.219  0.0639 -0.2193  0.1487
61251DOD     C127572   8.205  12.072  11.705  0.0292  0.0052 -0.1974
61251DOD     C227573   8.207  12.457  11.508 -0.3232 -0.0362  0.0504
61251DOD     C327574   8.409  12.861  11.416 -0.1455 -0.1281  0.1771
61252DOD     C127575   9.523  25.789   7.987 -0.1068 -0.0616 -0.2924
61252DOD     C227576   9.204  25.622   8.272  0.1725  0.2098 -0.1302
61252DOD     C327577   8.788  25.666   8.229 -0.0005  0.2423  0.0002
61253DOD     C127578  22.530  23.465   6.513  0.0513  0.0693  0.0045
61253DOD     C227579  22.301  23.351   6.878 -0.1591  0.0482  0.1193
61253DOD     C327580  22.415  22.946   7.117 -0.1660  0.0910 -0.2944
61254DOD     C127581  15.681  24.120  24.614 -0.0213  0.2616  0.1424
61254DOD     C227582  15.347  23.848  24.725  0.0540  0.2197 -0.2585
61254DOD     C327583  15.066  23.523  24.568  0.3903  0.2394 -0.1126
61255DOD     C127584  26.569   0.125   3.685 -0.2294 -0.0641  0.1518
61255DOD     C227585  26.817  30.145   3.356 -0.0992  0.0836 -0.2553
61255DOD     C327586  26.767  29.945   2.965 -0.0327 -0.0274 -0.2164
61256DOD     C127587  29.412  11.742   8.383  0.1717 -0.0874 -0.1467
61256DOD     C227588  28.908  11.811   8.333  0.1284 -0.3222  0.0362
61256DOD     C327589  28.580  12.137   8.300  0.3071 -0.0192  0.3048
61257DOD     C127590  13.456   1.399  21.276 -0.0045 -0.2232  0.2667
61257DOD     C227591  13.770   1.503  20.947 -0.3203 -0.0600  0.1427
61257DOD     C327592  14.143   1.759  20.987 -0.1152  0.0451  0.3093
61258DOD     C127593  14.546   7.998  30.174 -0.0860  0.0236  0.0173
61258DOD     C227594  14.127   7.795  30.295  0.2391  0.0209  0.0809
61258DOD     C327595  13.847   7.750   0.396 -0.0141 -0.0792  0.1641
61259DOD     C127596   6.180  25.439  12.875  0.1642  0.0624 -0.1610
61259DOD     C227597   6.008  24.978  12.914 -0.0887 -0.2705  0.0800
61259DOD     C327598   5.765  24.615  12.766  0.1291  0.0931  0.0263
61260DOD     C127599  10.298  21.108   3.147  0.1265 -0.0555 -0.2391
61260DOD     C227600  10.549  21.537   3.116 -0.0830 -0.0521 -0.4338
61260DOD     C327601  10.858  21.877   2.971 -0.2558  0.2288  0.2210
61261DOD     C127602  23.867   1.826   0.617  0.0640  0.3066 -0.1107
61261DOD     C227603  23.798   1.433   0.330 -0.0247 -0.0093  0.1628
61261DOD     C327604  24.034   1.099   0.022  0.0905 -0.1679 -0.0782
61262DOD     C127605  27.651  11.581   4.106  0.1941  0.0803  0.2636
61262DOD     C227606  27.350  11.412   3.818  0.0981  0.0120  0.1345
61262DOD     C327607  27.332  11.396   3.361 -0.1169  0.4101 -0.3359
61263DOD     C127608  14.991  12.163   3.383 -0.1189  0.0960  0.2609
61263DOD     C227609  15.156  11.717   3.471  0.0408  0.2034 -0.1791
61263DOD     C327610  15.486  11.398   3.551 -0.1848 -0.0328 -0.0836
61264DOD     C127611  28.945   6.790   7.339  0.1363  0.1175 -0.0082
61264DOD     C227612  28.761   6.381   7.231  0.0223  0.0195  0.0968
61264DOD     C327613  28.784   5.873   7.399 -0.2861  0.0922 -0.1465
61265DOD     C127614  18.081  16.545  15.922 -0.1592  0.1292  0.4473
61265DOD     C227615  17.854  16.844  16.203 -0.0706  0.0534  0.2832
61265DOD     C327616  17.581  17.033  16.519 -0.2034  0.0026  0.1011
61266DOD     C127617  19.663  11.905  10.438 -0.2603 -0.2974  0.3563
61266DOD     C227618  19.706  12.340  10.638  0.2450 -0.0216  0.0317
61266DOD     C327619  19.889  12.723  10.482 -0.0956  0.1963  0.1700
61267DOD     C127620  14.061   5.886  20.149  0.2635 -0.1380  0.2018
61267DOD     C227621  14.330   6.192  20.423 -0.0146  0.1282  0.0356
61267DOD     C327622  14.561   6.314  20.847 -0.0095 -0.2783 -0.2285
61268DOD     C127623  28.196   1.910   9.304  0.2470 -0.2401  0.0694
61268DOD     C227624  27.907   1.990   9.680  0.0731  0.2639  0.1128
61268DOD     C327625  27.828   1.897  10.162  0.1431 -0.3293  0.1278
61269DOD     C127626  25.817   4.447  16.603  0.1825 -0.0461  0.0657
61269DOD     C227627  25.752   4.061  16.288 -0.2701  0.3467 -0.1887
61269DOD     C327628  25.663   3.844  15.956 -0.0138  0.1569  0.0589
61270DOD     C127629  20.411   0.349  23.087  0.1331 -0.4903  0.1224
61270DOD     C227630  20.320   0.346  22.581 -0.1854  0.0126  0.2581
61270DOD     C327631  20.518   0.688  22.191 -0.1002  0.3344 -0.0387
61271DOD     C127632  25.137  11.496  30.002  0.2598 -0.1066 -0.2582
61271DOD     C227633  24.921  11.780  29.733  0.2547  0.0589  0.1835
61271DOD     C327634  24.798  12.072  29.433  0.1055 -0.1287  0.2513
61272DOD     C127635  18.571  14.169   2.746 -0.0902  0.1408 -0.0472
61272DOD     C227636  18.167  13.956   2.685  0.2513 -0.0613 -0.2956
61272DOD     C327637  17.763  13.714   2.563 -0.0401  0.1858 -0.0401
61273DOD     C127638  25.451   6.084  28.677 -0.0102 -0.1362  0.1223
61273DOD     C227639  24.983   6.124  28.639 -0.3520 -0.0739  0.0489
61273DOD     C327640  24.533   6.175  28.859 -0.4350 -0.0983 -0.4134
61274DOD     C127641   8.666   7.971   5.016  0.1899  0.0342 -0.0140
61274DOD     C227642   8.941   8.035   5.392  0.0636 -0.0602 -0.3611
61274DOD     C327643   9.052   8.405   5.638 -0.2310  0.1954 -0.0800
61275DOD     C127644   6.668  18.534  10.196  0.3236  0.0191  0.1143
61275DOD     C227645   6.869  18.184   9.983  0.1723 -0.0118 -0.0175
61275DOD     C327646   6.507  17.949   9.861  0.0302 -0.1081  0.1595
61276DOD     C127647   4.546   8.961  14.744  0.1285 -0.0231  0.3365
61276DOD     C227648   4.251   8.619  14.534  0.0656 -0.1589 -0.0042
61276DOD     C327649   3.938   8.282  14.578 -0.2754  0.0691  0.3339
61277DOD     C127650  23.387  24.915   4.641  0.2061 -0.2029 -0.1565
61277DOD     C227651  23.080  24.941   4.943 -0.1345 -0.2773 -0.1290
61277DOD     C327652  22.658  24.767   5.175  0.1787  0.1741 -0.0280
61278DOD     C127653  12.139  18.681   0.075  0.0014 -0.0292  0.1597
61278DOD     C227654  12.334  18.955  30.080  0.0908 -0.0437  0.3720
61278DOD     C327655  12.517  19.342  29.954 -0.1731  0.2648  0.2261
61279DOD     C127656  12.825  25.211  10.788 -0.0545  0.0019 -0.1721
61279DOD     C227657  12.577  24.876  10.947 -0.0342  0.0575 -0.2663
61279DOD     C327658  12.158  24.866  11.029  0.0076 -0.0978 -0.0671
61280DOD     C127659   6.038  17.847  12.217  0.0965  0.3066 -0.0585
61280DOD     C227660   6.469  17.667  12.378  0.0538  0.0512 -0.3912
61280DOD     C327661   6.899  17.524  12.517  0.0827  0.1292 -0.0696
61281DOD     C127662  28.480  11.093  12.300  0.0161 -0.0704 -0.2526
61281DOD     C227663  28.736  10.872  12.614 -0.1184  0.0139 -0.0796
61281DOD     C327664  29.205  10.772  12.747  0.2913 -0.0939 -0.0320
61282DOD     C127665  14.024  15.696  25.226 -0.1177  0.0985  0.0624
61282DOD     C227666  14.394  15.643  24.931  0.4732 -0.0827  0.2872
61282DOD     C327667  14.612  15.621  24.517 -0.0303 -0.2800  0.3235
61283DOD     C127668   3.091  16.290  11.004 -0.0142  0.0355  0.0517
61283DOD     C227669   3.267  16.268  11.436 -0.1528 -0.0277 -0.1124
61283DOD     C327670   3.288  16.234  11.945  0.3332  0.0774  0.1378
61284DOD     C127671  22.144  23.391  13.175  0.2950  0.3077 -0.1251
61284DOD     C227672  22.423  23.565  12.829 -0.1524  0.0107  0.0346
61284DOD     C327673  22.819  23.356  12.943  0.1149 -0.0333 -0.2687
61285DOD     C127674  18.630   2.065  23.814 -0.2506 -0.2290 -0.0124
61285DOD     C227675  18.835   2.453  23.577 -0.0522 -0.1166 -0.1092
61285DOD     C327676  18.664   2.865  23.402 -0.0366 -0.3073 -0.2362
61286DOD     C127677  21.841   0.321  28.388  0.0367 -0.0491 -0.2506
61286DOD     C227678  21.903  30.210  28.266  0.0295 -0.1214  0.3350
61286DOD     C327679  22.176  29.783  28.227  0.0112 -0.1361  0.0680
61287DOD     C127680   0.390  15.867  16.656  0.0094 -0.0464 -0.0729
61287DOD     C227681   0.437  15.376  16.687 -0.1084 -0.0057 -0.0317
61287DOD     C327682   0.704  15.038  16.494  0.1534  0.0086 -0.1251
61288DOD     C127683  19.363  16.512  15.642  0.0044 -0.0413  0.3041
61288DOD     C227684  19.270  16.398  15.244 -0.0157  0.0346 -0.1284
61288DOD     C327685  19.469  16.242  14.864  0.0273  0.1320  0.0211
61289DOD     C127686  23.318  20.213  26.436 -0.0770 -0.0900  0.0814
61289DOD     C227687  23.027  20.486  26.604 -0.1262  0.2645 -0.1711
61289DOD     C327688  22.658  20.727  26.768  0.0823  0.1646  0.0193
61290DOD     C127689   8.346  17.502  11.722  0.1350  0.2282 -0.4474
61290DOD     C227690   8.308  17.288  11.334 -0.1401 -0.3199 -0.1147
61290DOD     C327691   8.351  17.422  10.881  0.2140  0.1804  0.2687
61291DOD     C127692  16.229   1.130  13.261  0.2028 -0.1230  0.0112
61291DOD     C227693  16.278   1.555  13.350 -0.3235  0.2244 -0.0623
61291DOD     C327694  16.450   1.856  13.634 -0.2743 -0.0704 -0.1325
61292DOD     C127695   9.178  18.297   9.157 -0.0598 -0.0372  0.0963
61292DOD     C227696   8.945  18.425   8.770  0.0863  0.1609 -0.1686
61292DOD     C327697   8.758  18.409   8.329  0.0477 -0.0472  0.2837
61293DOD     C127698  13.397  14.650   8.123  0.0035 -0.3590 -0.1721
61293DOD     C227699  13.402  14.414   8.542 -0.0189  0.0418  0.2506
61293DOD     C327700  13.604  14.114   8.790  0.1462 -0.2287  0.0943
61294DOD     C127701   9.919   3.413   0.403  0.3970 -0.1358 -0.0933
61294DOD     C227702   9.628   3.323   0.098  0.1111  0.0814  0.2493
61294DOD     C327703   9.280   3.084  30.233  0.0162 -0.1074  0.1156
61295DOD     C127704   0.093  22.192   3.833  0.4250 -0.4241 -0.0453
61295DOD     C227705  30.073  22.467   3.823  0.1157 -0.2905  0.1582
61295DOD     C327706  29.729  22.624   4.093 -0.0336  0.1346  0.2082
61296DOD     C127707  17.691  11.993   7.898  0.2187 -0.3362  0.0644
61296DOD     C227708  17.940  11.761   8.247  0.4640 -0.0764 -0.1885
61296DOD     C327709  18.382  11.660   8.225 -0.1099 -0.1944  0.1002
61297DOD     C127710   3.990   0.691  22.361  0.1891 -0.0292  0.0549
61297DOD     C227711   4.003   0.604  21.888 -0.3951 -0.1072 -0.1461
61297DOD     C327712   4.328   0.916  21.665  0.0615  0.1638 -0.0339
61298DOD     C127713   4.803   5.834   2.014 -0.1265 -0.2421 -0.1219
61298DOD     C227714   4.515   5.902   2.367  0.1001  0.2316 -0.0905
61298DOD     C327715   4.311   5.874   2.784  0.1360  0.0451 -0.0338
61299DOD     C127716  29.688  18.933  22.542  0.0739  0.1501  0.0654
61299DOD     C227717  29.922  19.084  22.960  0.0677  0.0148 -0.0677
61299DOD     C327718  30.090  19.176  23.397  0.0591  0.0534 -0.0695
61300DOD     C127719  16.352   8.012   8.780 -0.1886 -0.0908 -0.1334
61300DOD     C227720  16.358   7.599   8.915  0.0364 -0.3632 -0.2708
61300DOD     C327721  16.187   7.322   9.269  0.1260  0.1610  0.2729
61301DOD     C127722   0.033  14.986  27.674  0.0919 -0.1123  0.0566
61301DOD     C227723  30.202  15.375  27.857 -0.0021 -0.2597  0.2553
61301DOD     C327724  29.886  15.704  27.929 -0.1046  0.0318 -0.0495
61302DOD     C127725  22.906   0.133  17.470  0.2867  0.1582  0.1716
61302DOD     C227726  22.618   0.397  17.722  0.1505  0.1204 -0.0306
61302DOD     C327727  22.447   0.457  18.182 -0.2557 -0.0682 -0.1369
61303DOD     C127728  17.879   3.980  10.041  0.1551  0.2388  0.0795
61303DOD     C227729  17.527   3.642   9.976 -0.3395  0.0678 -0.1043
61303DOD     C327730  17.314   3.249   9.936 -0.1979  0.0782  0.6075
61304DOD     C127731   8.312  14.405   4.560 -0.1979  0.0528  0.2383
61304DOD     C227732   8.616  14.654   4.827 -0.2289  0.0128  0.1669
61304DOD     C327733   8.893  14.583   5.209  0.0045  0.0079  0.3744
61305DOD     C127734  16.997   1.513  12.061 -0.0628 -0.1280 -0.1056
61305DOD     C227735  17.356   1.343  11.874 -0.1113  0.2721 -0.1693
61305DOD     C327736  17.669   1.455  11.549 -0.2117  0.2666 -0.0695
61306DOD     C127737  15.511   0.238  23.622  0.2673  0.0898 -0.0391
61306DOD     C227738  15.073   0.039  23.765  0.1182 -0.0162 -0.1201
61306DOD     C327739  14.923  30.304  24.203  0.0326  0.2371 -0.3005
61307DOD     C127740  26.821   5.909   0.339 -0.0431  0.0639  0.1681
61307DOD     C227741  26.810   5.691   0.775  0.0618 -0.1155 -0.1331
61307DOD     C327742  26.406   5.606   1.084  0.2212  0.0796 -0.1867
61308DOD     C127743   1.957  19.061  11.444  0.0109 -0.0762  0.1881
61308DOD     C227744   1.486  19.119  11.432  0.2176  0.0935 -0.0846
61308DOD     C327745   1.155  19.494  11.386 -0.0578 -0.2133  0.0202
61309DOD     C127746   0.691   3.967   6.571 -0.0046 -0.1979  0.0253
61309DOD     C227747   0.314   4.131   6.360 -0.0146 -0.0955 -0.2548
61309DOD     C327748  30.278   4.219   6.059 -0.1137 -0.0865 -0.1190
61310DOD     C127749  30.092  20.991  12.765  0.1430  0.1715  0.1572
61310DOD     C227750  29.693  21.214  12.684  0.0930 -0.1373 -0.2192
61310DOD     C327751  29.491  21.643  12.706  0.0284  0.3538  0.3469
61311DOD     C127752   7.726  28.810  22.615  0.0835  0.0654  0.1591
61311DOD     C227753   7.822  28.740  23.052  0.0812 -0.0988 -0.1261
61311DOD     C327754   7.790  28.992  23.419  0.1411  0.2324  0.0871
61312DOD     C127755   5.438  20.656  21.602 -0.2424  0.0926 -0.1105
61312DOD     C227756   5.160  21.042  21.722  0.0159 -0.2055  0.1931
61312DOD     C327757   4.866  21.251  22.047  0.1936  0.0573  0.3622
61313DOD     C127758  17.543  18.578  10.743 -0.2600  0.0634  0.0561
61313DOD     C227759  17.713  19.029  10.771  0.0221 -0.2351  0.2554
61313DOD     C327760  17.862  19.483  10.762 -0.1203 -0.1700  0.0008
61314DOD     C127761   6.958   7.020  17.640 -0.3385 -0.2965 -0.0604
61314DOD     C227762   6.499   7.278  17.532  0.0639 -0.2558  0.1177
61314DOD     C327763   6.169   7.596  17.697  0.2857  0.4231 -0.0965
61315DOD     C127764  15.913  25.457  28.854 -0.0720  0.2090 -0.1232
61315DOD     C227765  15.705  25.351  29.280 -0.0993  0.1138 -0.1924
61315DOD     C327766  15.981  25.049  29.510 -0.3189  0.0191 -0.3188
61316DOD     C127767  20.239   8.227   5.437  0.0569  0.1412  0.0349
61316DOD     C227768  20.082   8.555   5.132 -0.2591 -0.2921 -0.1179
61316DOD     C327769  20.141   8.815   4.723 -0.1676 -0.0837 -0.0727
61317DOD     C127770  29.346  11.425  24.828 -0.3016 -0.0635  0.5164
61317DOD     C227771  29.691  11.334  24.613 -0.1265  0.0167  0.0765
61317DOD     C327772  29.904  11.408  24.243 -0.3157 -0.0859  0.0526
61318DOD     C127773  17.797  14.188  26.261 -0.3466 -0.1806 -0.0678
61318DOD     C227774  17.427  14.490  26.238  0.2493 -0.1095 -0.0097
61318DOD     C327775  16.992  14.713  26.183  0.0986  0.0346 -0.1764
61319DOD     C127776  11.935   9.596   5.324  0.1407 -0.0419  0.1465
61319DOD     C227777  12.090   9.651   5.749 -0.2282 -0.2632 -0.1066
61319DOD     C327778  12.321   9.995   5.958 -0.0167 -0.1544 -0.2070
61320DOD     C127779  17.011  21.926  11.036 -0.0370  0.0413 -0.1964
61320DOD     C227780  16.764  21.540  11.083  0.0689  0.1203  0.1756
61320DOD     C327781  16.631  21.115  11.300  0.1295 -0.3280  0.1006
61321DOD     C127782  14.692  21.596  23.952 -0.1014 -0.0427 -0.2312
61321DOD     C227783  14.881  21.936  23.731 -0.0798  0.2236 -0.3303
61321DOD     C327784  14.773  22.190  23.336 -0.1021 -0.2995  0.1744
61322DOD     C127785  23.464   1.243  16.758  0.1196 -0.3616 -0.1902
61322DOD     C227786  23.423   0.851  17.061 -0.1344  0.0437  0.0768
61322DOD     C327787  23.208   0.439  17.150  0.2470  0.0419 -0.0451
61323DOD     C127788  11.527   2.561  14.281  0.4656 -0.2318  0.1366
61323DOD     C227789  11.827   2.875  14.114  0.0060 -0.0088 -0.0698
61323DOD     C327790  12.189   3.008  14.052 -0.0633 -0.1642  0.0368
61324DOD     C127791  16.081  16.041  22.063  0.4417 -0.1139 -0.3432
61324DOD     C227792  16.109  16.214  21.577 -0.3280 -0.1038  0.0366
61324DOD     C327793  16.233  16.301  21.132  0.0574 -0.0553  0.3944
61325DOD     C127794  17.584  17.344  11.258  0.3145  0.0652 -0.1555
61325DOD     C227795  17.827  16.936  11.144 -0.1470  0.2086 -0.1096
61325DOD     C327796  17.950  16.522  11.254 -0.1944  0.0954 -0.1172
61326DOD     C127797  14.750  24.833  21.450 -0.0593  0.2027  0.3794
61326DOD     C227798  14.515  24.600  21.116  0.2266 -0.0081  0.0242
61326DOD     C327799  14.186  24.435  20.776 -0.0873  0.2090  0.4830
61327DOD     C127800  14.742  14.682   8.257 -0.0733 -0.2761 -0.0688
61327DOD     C227801  14.268  14.835   8.338 -0.1695 -0.2009  0.0395
61327DOD     C327802  13.814  14.748   8.462 -0.0227 -0.0141  0.2519
61328DOD     C127803  11.018  26.727  11.719  0.0218 -0.0949 -0.2823
61328DOD     C227804  10.584  26.607  11.639 -0.3631  0.1575 -0.1951
61328DOD     C327805  10.341  26.981  11.688  0.2783  0.1353  0.0269
61329DOD     C127806   5.100   7.361  16.009  0.0531 -0.2572 -0.0693
61329DOD     C227807   5.058   7.071  15.641 -0.1239  0.1635  0.0457
61329DOD     C327808   5.211   7.006  15.202 -0.1296 -0.0263  0.0802
61330DOD     C127809   8.766   2.557  22.250  0.0058  0.0322  0.2475
61330DOD     C227810   8.477   2.620  22.615  0.1651  0.3795  0.3396
61330DOD     C327811   8.057   2.559  22.742  0.2183  0.2956 -0.0119
61331DOD     C127812   4.323  26.343  23.134 -0.1425 -0.2077 -0.0525
61331DOD     C227813   3.927  26.483  23.138 -0.0054  0.1275 -0.2923
61331DOD     C327814   3.513  26.667  23.064 -0.0912 -0.0222 -0.0026
61332DOD     C127815  11.134  26.505  20.711  0.1763 -0.0722  0.2753
61332DOD     C227816  10.772  26.294  20.529  0.1477 -0.1633 -0.0550
61332DOD     C327817  10.800  26.094  20.101  0.2428  0.1312 -0.3274
61333DOD     C127818  14.189  25.005  26.931 -0.2662  0.0291 -0.0581
61333DOD     C227819  14.621  24.914  26.799 -0.3426  0.1588 -0.1408
61333DOD     C327820  14.994  24.723  26.929 -0.2265 -0.0588  0.1256
61334DOD     C127821  15.332  15.098  20.861 -0.2874  0.0931 -0.1977
61334DOD     C227822  15.174  15.369  20.486  0.1265 -0.0791 -0.1762
61334DOD     C327823  15.127  15.645  20.134  0.1742  0.2355 -0.0391
61335DOD     C127824   2.322   0.480  25.669 -0.0100 -0.0860 -0.0979
61335DOD     C227825   2.047   0.329  26.065  0.2545 -0.0122  0.0511
61335DOD     C327826   2.185   0.062  26.409  0.4192 -0.1042 -0.0230
61336DOD     C127827  13.139   4.157  15.382 -0.1195  0.0929 -0.0242
61336DOD     C227828  12.984   3.717  15.425  0.1781  0.2576 -0.0524
61336DOD     C327829  12.745   3.327  15.316  0.0446 -0.3835 -0.1141
61337DOD     C127830  22.584  10.621   7.410  0.0958  0.0924 -0.2273
61337DOD     C227831  22.399  10.765   7.836 -0.2645  0.0346 -0.0775
61337DOD     C327832  22.046  10.956   7.993 -0.1296  0.3490 -0.0278
61338DOD     C127833   9.015  27.064  16.901  0.1751  0.0555 -0.1127
61338DOD     C227834   8.630  27.074  16.578 -0.2460  0.1042  0.0558
61338DOD     C327835   8.230  26.947  16.364  0.1707 -0.0635 -0.1302
61339DOD     C127836  10.625  25.607  30.205  0.0624  0.1974 -0.1198
61339DOD     C227837  10.424  25.795   0.313 -0.1342 -0.0726 -0.2812
61339DOD     C327838   9.962  25.731   0.326 -0.0947 -0.3763  0.2731
61340DOD     C127839  29.826  13.716   7.973 -0.0487 -0.1047 -0.0308
61340DOD     C227840  29.388  13.929   8.155 -0.2643  0.2339 -0.0712
61340DOD     C327841  29.114  14.290   8.092 -0.0334 -0.0134 -0.2828
61341DOD     C127842  18.406   9.864  14.288  0.0551  0.0235  0.0583
61341DOD     C227843  18.065  10.171  14.445  0.1390  0.0055 -0.1558
61341DOD     C327844  18.029  10.349  14.838 -0.0323  0.3178 -0.0642
61342DOD     C127845  19.002   8.664  20.635  0.0901  0.2068  0.2617
61342DOD     C227846  18.817   8.325  20.910  0.3425  0.1024 -0.0285
61342DOD     C327847  18.808   7.834  20.839  0.0205  0.2072  0.2816
61343DOD     C127848  12.162  13.953  21.883  0.0635 -0.1150  0.3702
61343DOD     C227849  12.596  14.059  21.719  0.1062 -0.1078 -0.0213
61343DOD     C327850  13.070  14.032  21.586  0.2695  0.0181 -0.1342
61344DOD     C127851  23.289  21.924   5.324  0.0042 -0.0045 -0.1003
61344DOD     C227852  23.571  22.034   5.641 -0.2859 -0.3156 -0.2278
61344DOD     C327853  23.751  21.750   5.950 -0.1756 -0.0347 -0.0235
61345DOD     C127854  16.112  24.288   8.378  0.0989  0.1305 -0.2666
61345DOD     C227855  16.224  24.007   8.685  0.1423  0.1907 -0.1099
61345DOD     C327856  16.404  23.595   8.868  0.1966 -0.0296 -0.1398
61346DOD     C127857  28.797   4.215   4.312 -0.1788  0.1416 -0.3332
61346DOD     C227858  28.430   4.157   4.013 -0.2055  0.2283  0.2199
61346DOD     C327859  28.102   4.426   3.751 -0.1667 -0.0149  0.0262
61347DOD     C127860  24.170  17.704  12.729 -0.1054  0.2680  0.1284
61347DOD     C227861  23.895  18.038  12.782  0.0401 -0.0686  0.2892
61347DOD     C327862  23.747  18.394  12.449  0.0034 -0.0584 -0.0247
61348DOD     C127863   2.244   0.427  24.557  0.1323  0.2113 -0.2352
61348DOD     C227864   2.410   0.020  24.441  0.0790  0.0786 -0.2750
61348DOD     C327865   2.343  29.962  24.665  0.0997  0.1033  0.1334
61349DOD     C127866   0.202  10.036  13.539  0.0301 -0.0978  0.1598
61349DOD     C227867   0.363   9.569  13.632 -0.0514 -0.1796 -0.4528
61349DOD     C327868   0.542   9.147  13.372 -0.1423  0.0338  0.0805
61350DOD     C127869  19.260  18.370  22.454  0.2321 -0.1009  0.0616
61350DOD     C227870  19.656  18.485  22.660  0.0760  0.1423  0.0493
61350DOD     C327871  20.122  18.395  22.555  0.1078  0.0211  0.1533
61351DOD     C127872  22.179   2.342   4.318 -0.0445 -0.0520 -0.1830
61351DOD     C227873  22.474   2.021   4.332 -0.0038 -0.0878  0.1934
61351DOD     C327874  22.752   1.655   4.469  0.1369 -0.1743 -0.1976
61352DOD     C127875   1.628   8.259  23.874 -0.1564  0.4355 -0.0424
61352DOD     C227876   1.886   7.916  23.720 -0.2237 -0.2030  0.0684
61352DOD     C327877   2.308   7.736  23.664 -0.1376  0.0951  0.0160
61353DOD     C127878  23.170  23.612   2.153 -0.2272  0.2031  0.1899
61353DOD     C227879  23.348  24.085   2.086 -0.2911 -0.1155  0.0168
61353DOD     C327880  23.726  24.298   1.830  0.2415  0.4375  0.1042
61354DOD     C127881  26.141   1.050  15.815 -0.2030  0.1392  0.1184
61354DOD     C227882  26.243   1.235  15.409 -0.0490  0.1870 -0.1287
61354DOD     C327883  26.127   1.324  14.986  0.0634  0.1329 -0.2227
61355DOD     C127884  19.783  10.439  17.347 -0.0553 -0.1504 -0.0265
61355DOD     C227885  19.979  10.857  17.194  0.0555  0.0018 -0.1360
61355DOD     C327886  20.381  11.076  17.309  0.1675  0.1192  0.2073
61356DOD     C127887  16.199  20.408   7.210  0.2084 -0.4918  0.1591
61356DOD     C227888  16.086  19.969   7.036  0.2106  0.2158  0.1127
61356DOD     C327889  16.207  19.501   7.017 -0.0587  0.1332 -0.3286
61357DOD     C127890  15.988  15.016  21.546 -0.0568 -0.1706  0.0826
61357DOD     C227891  16.269  14.826  21.850 -0.2730  0.2152 -0.2518
61357DOD     C327892  16.009  14.740  22.244 -0.2323 -0.0822 -0.0079
61358DOD     C127893  19.711  13.089  29.708 -0.2001 -0.0546 -0.0533
61358DOD     C227894  19.653  13.339  29.304  0.1432 -0.1112 -0.0739
61358DOD     C327895  19.744  13.094  28.897 -0.0077  0.0238 -0.1689
61359DOD     C127896  28.209  27.171  21.766 -0.1504 -0.0886  0.2002
61359DOD     C227897  27.948  26.867  21.501  0.0599  0.2278  0.0746
61359DOD     C327898  27.785  26.425  21.637 -0.1296  0.1862 -0.1291
61360DOD     C127899  23.749   2.924   6.716 -0.1397  0.0695  0.0236
61360DOD     C227900  23.429   3.116   6.997  0.2968 -0.0366 -0.1564
61360DOD     C327901  22.998   3.233   7.081  0.0111 -0.0771  0.0813
61361DOD     C127902  26.456   2.659   1.870  0.3584 -0.3402 -0.0883
61361DOD     C227903  26.917   2.682   1.841  0.1776  0.1594  0.1170
61361DOD     C327904  27.334   2.776   1.601  0.0232 -0.2056 -0.0334
61362DOD     C127905  10.279  11.185  16.673 -0.2117  0.0162 -0.2194
61362DOD     C227906   9.899  11.326  16.506  0.3010 -0.2096 -0.1344
61362DOD     C327907   9.732  11.740  16.394  0.1446 -0.2486 -0.1036
61363DOD     C127908  19.412   9.609  24.842  0.3487 -0.0535  0.0725
61363DOD     C227909  19.443   9.873  25.231 -0.0175 -0.0517 -0.2120
61363DOD     C327910  19.745  10.091  25.502  0.1981 -0.0612  0.3244
61364DOD     C127911   9.949   4.172  24.622 -0.1398 -0.0743  0.2215
61364DOD     C227912   9.529   4.269  24.417 -0.2448  0.2597 -0.4347
61364DOD     C327913   9.194   4.118  24.137  0.0899 -0.0380 -0.2051
61365DOD     C127914  25.440   3.756   5.968 -0.4589 -0.0143 -0.1733
61365DOD     C227915  25.851   3.731   6.105 -0.2293  0.2707  0.3723
61365DOD     C327916  26.162   3.383   6.117 -0.0012  0.0159  0.1856
61366DOD     C127917  10.581  28.074   1.200  0.2568  0.0230  0.1249
61366DOD     C227918  10.619  28.329   1.579 -0.1614  0.0720  0.1638
61366DOD     C327919  10.990  28.175   1.857 -0.4037 -0.3897 -0.1260
61367DOD     C127920  28.354   7.505  14.618 -0.1818 -0.1183  0.0199
61367DOD     C227921  28.646   7.402  14.224  0.3297  0.0274 -0.0286
61367DOD     C327922  29.115   7.579  14.057 -0.0906  0.2418 -0.1686
61368DOD     C127923  18.921   1.839   8.398 -0.0135  0.0686  0.0077
61368DOD     C227924  18.710   2.002   8.035  0.0872  0.0163 -0.1589
61368DOD     C327925  18.206   2.005   7.898  0.0113  0.0979  0.0268
61369DOD     C127926  12.965   4.844  17.447 -0.0861 -0.4278 -0.0150
61369DOD     C227927  12.667   5.063  17.725  0.3454  0.0604 -0.0418
61369DOD     C327928  12.596   5.365  18.092 -0.1479  0.3168 -0.1470
61370DOD     C127929  19.265  21.466  19.336  0.1535  0.1145 -0.2625
61370DOD     C227930  18.801  21.522  19.531 -0.1943 -0.1880 -0.0956
61370DOD     C327931  18.418  21.400  19.802 -0.1074  0.0023 -0.1448
61371DOD     C127932  10.223  16.663   0.333 -0.5223  0.1328 -0.0809
61371DOD     C227933   9.823  16.451   0.174 -0.1160  0.1174  0.0494
61371DOD     C327934   9.351  16.427   0.263 -0.1602 -0.0483 -0.2375
61372DOD     C127935   9.870  16.164  21.447  0.0813 -0.2141  0.1444
61372DOD     C227936   9.759  16.310  20.995  0.2028 -0.2106  0.1205
61372DOD     C327937   9.568  16.615  20.683 -0.0429 -0.0162  0.1352
61373DOD     C127938  14.790  16.464  25.145 -0.1556 -0.1917 -0.1480
61373DOD     C227939  15.131  16.154  25.338  0.1009  0.1752 -0.2615
61373DOD     C327940  15.274  15.723  25.385 -0.1647 -0.0560  0.2037
61374DOD     C127941   1.959  27.325  10.199 -0.0491 -0.2546  0.1413
61374DOD     C227942   1.569  27.370   9.955  0.3378 -0.2194  0.1927
61374DOD     C327943   1.199  27.393   9.721 -0.0653  0.2170 -0.1911
61375DOD     C127944  11.885  26.786   7.918 -0.1987  0.0611 -0.3528
61375DOD     C227945  11.526  27.044   7.840  0.1462  0.0649  0.1521
61375DOD     C327946  11.302  27.332   7.527  0.0154 -0.2122  0.0774
61376DOD     C127947  17.578   4.221  15.790 -0.3499  0.0452 -0.0257
61376DOD     C227948  17.461   4.604  16.034 -0.2653  0.1159 -0.0135
61376DOD     C327949  17.067   4.691  16.247  0.3204  0.1704  0.1419
61377DOD     C127950  27.097   4.250  21.682  0.0669 -0.3034 -0.0721
61377DOD     C227951  27.117   3.871  21.359 -0.4696  0.0038 -0.1991
61377DOD     C327952  26.904   3.502  21.407 -0.2636 -0.1596 -0.0435
61378DOD     C127953   7.942   4.919  26.320  0.1133  0.0238  0.1363
61378DOD     C227954   8.298   4.821  26.636 -0.0732 -0.1134  0.0621
61378DOD     C327955   8.329   4.560  26.980  0.1339 -0.1268  0.0424
61379DOD     C127956  15.124  10.326  22.013  0.0756 -0.0452 -0.3372
61379DOD     C227957  14.707  10.436  22.077 -0.2620  0.0353 -0.2332
61379DOD     C327958  14.356  10.770  22.097 -0.1958  0.2629 -0.3091
61380DOD     C127959  29.143  18.716  27.636 -0.0445  0.0519 -0.0661
61380DOD     C227960  29.459  18.813  27.342  0.1454  0.1825 -0.2200
61380DOD     C327961  29.782  18.604  27.044  0.2309 -0.2559 -0.3953
61381DOD     C127962  15.647  12.987   0.132  0.1446 -0.1301  0.0692
61381DOD     C227963  16.035  13.275   0.220 -0.0646 -0.1187  0.1417
61381DOD     C327964  16.300  13.479  30.215 -0.0561 -0.1773  0.1240
61382DOD     C127965  10.153   4.899  22.993 -0.3305 -0.2145 -0.0171
61382DOD     C227966  10.523   4.649  23.086 -0.0768 -0.0417  0.1837
61382DOD     C327967  10.701   4.451  23.454 -0.0483  0.1195  0.0067
61383DOD     C127968  27.481   6.094  12.333  0.2055  0.1627 -0.0504
61383DOD     C227969  27.861   6.367  12.446  0.0832 -0.0943 -0.2084
61383DOD     C327970  27.821   6.510  12.877  0.0919  0.4828  0.0425
61384DOD     C127971   8.515  14.201  29.494  0.5246 -0.4501 -0.3262
61384DOD     C227972   8.667  14.561  29.237 -0.1745 -0.1432  0.1561
61384DOD     C327973   8.831  14.987  29.212 -0.0497  0.1008 -0.1937
61385DOD     C127974  23.530  25.780  26.102 -0.1299  0.0845 -0.1090
61385DOD     C227975  23.743  25.892  26.497 -0.1760 -0.0733  0.0061
61385DOD     C327976  24.063  26.166  26.738 -0.1943 -0.0020  0.2147
61386DOD     C127977   9.360  13.650  21.410 -0.0952 -0.0638 -0.2126
61386DOD     C227978   9.286  14.132  21.276  0.2267 -0.2194 -0.2090
61386DOD     C327979   9.040  14.513  21.176 -0.0091 -0.0439  0.1697
61387DOD     C127980  23.578  20.544   2.236  0.2929  0.0289 -0.0466
61387DOD     C227981  23.778  20.216   2.446  0.2373 -0.2692  0.1494
61387DOD     C327982  23.901  19.803   2.658  0.0728 -0.0585  0.1527
61388DOD     C127983  14.589  26.962  17.855  0.1252 -0.2192 -0.2285
61388DOD     C227984  14.267  27.053  18.158 -0.0716 -0.1674 -0.4008
61388DOD     C327985  14.014  27.210  18.489  0.1567 -0.0823 -0.1367
61389DOD     C127986  12.799  11.755  14.833  0.3958  0.3093 -0.3077
61389DOD     C227987  13.051  11.364  14.907 -0.0059 -0.0595  0.0264
61389DOD     C327988  13.493  11.208  14.839  0.2329 -0.0032 -0.0339
61390DOD     C127989  28.626   9.803  21.646  0.0939 -0.0023 -0.1861
61390DOD     C227990  28.461   9.546  21.304  0.1103  0.0355  0.0608
61390DOD     C327991  28.359   9.504  20.849  0.2430  0.0944 -0.2195
61391DOD     C127992   9.388  15.117  12.207  0.1002  0.0208 -0.1708
61391DOD     C227993   9.061  14.921  12.429  0.0694 -0.3023  0.0847
61391DOD     C327994   8.589  15.060  12.404  0.1665  0.1498 -0.2505
61392DOD     C127995  30.151  16.263  16.951  0.4399  0.0140  0.0421
61392DOD     C227996  29.742  16.138  16.780  0.1854 -0.1137 -0.0936
61392DOD     C327997  29.331  16.067  16.641 -0.0984  0.0841 -0.1762
61393DOD     C127998  20.471   8.865  26.083  0.1243  0.2923  0.0658
61393DOD     C227999  20.854   8.554  25.951  0.0747 -0.1104  0.0102
61393DOD     C328000  21.277   8.341  25.886  0.0917  0.2563 -0.1149
61394DOD     C128001   6.066  18.853  17.471  0.1326  0.2162  0.2013
61394DOD     C228002   6.312  18.499  17.231 -0.1250 -0.0729  0.0202
61394DOD     C328003   6.336  18.060  17.142  0.0197  0.3417  0.0847
61395DOD     C128004   1.233   5.567  29.317 -0.4068 -0.2032  0.3693
61395DOD     C228005   1.637   5.286  29.258 -0.0386  0.1984 -0.1016
61395DOD     C328006   1.887   4.896  29.430  0.0303 -0.1491 -0.3421
61396DOD     C128007  28.601  26.319  15.544 -0.2191  0.1486 -0.1715
61396DOD     C228008  28.970  26.064  15.622 -0.0497 -0.0470  0.0642
61396DOD     C328009  29.235  25.894  15.982  0.1411  0.0488  0.0724
61397DOD     C128010  24.361  17.364  20.164 -0.0242 -0.2100  0.3612
61397DOD     C228011  23.962  17.351  20.004  0.1647 -0.2906  0.2501
61397DOD     C328012  23.567  17.294  19.874  0.1092  0.0384  0.4505
61398DOD     C128013  20.148  12.426  14.740  0.0902 -0.1276  0.0292
61398DOD     C228014  19.793  12.629  14.984 -0.2348  0.3183  0.2669
61398DOD     C328015  19.616  13.001  15.246  0.2203 -0.0850  0.0567
61399DOD     C128016  27.008   6.694  26.085 -0.0205 -0.0438 -0.0097
61399DOD     C228017  27.062   6.267  26.106  0.2457 -0.2421  0.0756
61399DOD     C328018  26.752   6.037  25.977  0.0323  0.1159  0.2378
61400DOD     C128019  16.288  19.587  18.471  0.1368  0.4249 -0.2562
61400DOD     C228020  15.825  19.645  18.362 -0.0871  0.1209 -0.0876
61400DOD     C328021  15.565  19.917  18.107  0.0430 -0.1480  0.1667
61401DOD     C128022   2.935   5.526  24.329  0.0570 -0.1056 -0.1243
61401DOD     C228023   3.235   5.824  24.521 -0.1077 -0.0346  0.0721
61401DOD     C328024   3.572   6.130  24.688 -0.0691 -0.0883 -0.1622
61402DOD     C128025  24.115   3.260  30.034 -0.1969  0.1681  0.0276
61402DOD     C228026  24.111   3.048  29.567 -0.0355 -0.2383 -0.2735
61402DOD     C328027  24.150   3.078  29.123 -0.2280 -0.0324  0.2845
61403DOD     C128028  23.871  13.582  24.438  0.0117 -0.0399  0.0053
61403DOD     C228029  23.649  13.189  24.581  0.0661  0.1180  0.1157
61403DOD     C328030  23.584  12.778  24.809 -0.1820 -0.0665 -0.1156
61404DOD     C128031  26.352  25.492  29.160 -0.2033  0.1105 -0.1104
61404DOD     C228032  26.346  25.081  28.942 -0.0736  0.1042  0.0600
61404DOD     C328033  26.190  24.734  28.624  0.1540 -0.1817  0.0854
61405DOD     C128034  13.330   2.651   7.421  0.1037  0.1645 -0.1612
61405DOD     C228035  12.924   2.557   7.171 -0.0798  0.2465 -0.0358
61405DOD     C328036  12.728   2.510   6.750  0.1038 -0.0967  0.0247
61406DOD     C128037  26.703   4.466   6.215 -0.3014 -0.1121  0.0025
61406DOD     C228038  26.386   4.175   6.339  0.0812  0.0523 -0.1728
61406DOD     C328039  26.137   3.793   6.486 -0.2999  0.0230 -0.2981
61407DOD     C128040  23.162   6.464  13.737  0.2258  0.0403 -0.0959
61407DOD     C228041  23.238   6.897  13.853  0.0671  0.0349  0.2779
61407DOD     C328042  23.424   7.394  13.896 -0.1066 -0.2951  0.0499
61408DOD     C128043  13.750   5.042   1.015  0.3246 -0.2949  0.1235
61408DOD     C228044  13.419   4.782   1.164 -0.1367  0.3471  0.1289
61408DOD     C328045  13.003   4.635   0.956 -0.1931  0.1038 -0.2011
61409DOD     C128046  22.350  29.288   8.414  0.0407  0.2725  0.1768
61409DOD     C228047  21.896  29.447   8.382 -0.1037 -0.5941 -0.0409
61409DOD     C328048  21.426  29.397   8.338 -0.3246 -0.1587 -0.5432
61410DOD     C128049  20.484   5.269  19.973 -0.2492  0.0937 -0.0326
61410DOD     C228050  20.313   5.372  20.388 -0.2330 -0.0457  0.3004
61410DOD     C328051  19.987   5.561  20.609  0.3391 -0.0271 -0.1169
61411DOD     C128052  22.756  23.809  10.894  0.1805  0.0990 -0.0310
61411DOD     C228053  22.997  23.486  10.777  0.0577  0.0630 -0.0927
61411DOD     C328054  22.975  23.121  11.050  0.0699 -0.2094  0.1178
61412DOD     C128055   0.904  22.471  15.578  0.0229 -0.0215 -0.0412
61412DOD     C228056   1.118  22.037  15.524 -0.0933  0.0429  0.2176
61412DOD     C328057   1.581  21.824  15.567 -0.0796 -0.0813  0.1724
61413DOD     C128058  15.569  28.421  25.305 -0.3405  0.0477  0.2254
61413DOD     C228059  15.420  28.004  25.494  0.2719  0.0390  0.0312
61413DOD     C328060  15.146  28.174  25.848  0.0106  0.1714  0.0543
61414DOD     C128061   4.381  14.437  14.629 -0.2136 -0.2903 -0.0655
61414DOD     C228062   4.283  14.625  15.034  0.0875  0.0641 -0.2645
61414DOD     C328063   4.402  14.855  15.389  0.0721 -0.0302  0.0182
61415DOD     C128064  21.102   8.035  12.570  0.1958 -0.0484 -0.2488
61415DOD     C228065  21.167   7.607  12.645  0.2842 -0.1537 -0.2551
61415DOD     C328066  21.430   7.269  12.439 -0.0820  0.2591 -0.0046
61416DOD     C128067   5.893  17.327   6.835  0.0231  0.0887  0.1546
61416DOD     C228068   5.916  16.918   6.624 -0.2969  0.3407  0.0325
61416DOD     C328069   5.734  16.491   6.862  0.2536  0.0042 -0.1832
61417DOD     C128070  28.931   8.710  21.926  0.2406 -0.1408 -0.1203
61417DOD     C228071  29.246   8.821  22.153  0.2477  0.2807 -0.1318
61417DOD     C328072  29.479   8.918  22.495  0.1020  0.1610  0.0303
61418DOD     C128073   0.882   3.677  25.659  0.3808 -0.0700  0.0649
61418DOD     C228074   1.266   3.633  25.466  0.0798  0.3020 -0.0497
61418DOD     C328075   1.503   3.225  25.377 -0.2644  0.2402 -0.0422
61419DOD     C128076  27.401  14.897   6.138 -0.2236 -0.0592 -0.1641
61419DOD     C228077  27.096  15.029   6.454 -0.1957  0.2955  0.1261
61419DOD     C328078  27.171  14.793   6.861 -0.2302 -0.1613  0.1550
61420DOD     C128079   4.477  12.713   8.741 -0.1717  0.0352  0.0444
61420DOD     C228080   3.996  12.822   8.727  0.1540 -0.0170  0.1706
61420DOD     C328081   3.533  12.809   8.539 -0.3016  0.2098 -0.1272
61421DOD     C128082  13.458  13.442  20.696  0.0276  0.1496  0.0544
61421DOD     C228083  13.896  13.416  20.631  0.1578 -0.0872  0.0199
61421DOD     C328084  14.402  13.293  20.686  0.3388 -0.1243  0.3265
61422DOD     C128085   7.498  20.222  23.041 -0.1026 -0.0681  0.0493
61422DOD     C228086   7.808  20.524  22.911 -0.0810 -0.2001  0.0503
61422DOD     C328087   7.987  20.785  22.554  0.1144  0.2258  0.3266
61423DOD     C128088   0.473  17.258   8.180  0.1340 -0.0552  0.0525
61423DOD     C228089   0.016  17.047   8.271 -0.0039  0.2020 -0.2336
61423DOD     C328090  30.068  16.672   8.395 -0.1956  0.3835  0.1391
61424DOD     C128091  21.322  17.733  28.409 -0.1963  0.1472 -0.0622
61424DOD     C228092  21.827  17.852  28.454 -0.2005 -0.1555 -0.2287
61424DOD     C328093  22.247  17.774  28.280 -0.1757  0.2534 -0.1754
61425DOD     C128094  28.943  20.719  15.284 -0.0005 -0.0820 -0.1585
61425DOD     C228095  29.246  21.102  15.421 -0.1548 -0.3115 -0.1160
61425DOD     C328096  29.453  21.515  15.311  0.2439  0.2004  0.0099
61426DOD     C128097   1.237   7.800   3.958 -0.2281  0.2649 -0.0623
61426DOD     C228098   1.274   7.347   3.763  0.0169 -0.0499  0.0468
61426DOD     C328099   1.301   7.178   3.315 -0.0156 -0.1216  0.1722
61427DOD     C128100  24.683  20.204  21.986 -0.1457 -0.1590 -0.1352
61427DOD     C228101  24.943  19.938  22.286 -0.0281 -0.3650 -0.0076
61427DOD     C328102  25.396  19.800  22.190 -0.0180 -0.2251 -0.2530
61428DOD     C128103  21.617  15.236   5.190  0.1445  0.0564 -0.1286
61428DOD     C228104  21.532  15.719   5.083 -0.0501  0.1051  0.0290
61428DOD     C328105  21.393  16.137   5.102  0.1261  0.1812 -0.1545
61429DOD     C128106  16.590  28.558   7.455 -0.1064 -0.1367 -0.2714
61429DOD     C228107  16.678  28.153   7.252 -0.2340  0.0840 -0.1045
61429DOD     C328108  16.998  28.040   6.865 -0.0152 -0.1933 -0.1218
61430DOD     C128109  19.248  26.152  22.798 -0.0425 -0.0396 -0.0115
61430DOD     C228110  18.911  25.824  22.840 -0.2186 -0.0944  0.1413
61430DOD     C328111  18.653  25.716  22.520 -0.0462  0.4016  0.0929
61431DOD     C128112   7.799   4.463   7.374  0.0287 -0.1359  0.2463
61431DOD     C228113   8.069   4.700   7.082  0.0593 -0.1542  0.0470
61431DOD     C328114   8.376   4.987   6.912  0.1845 -0.0914 -0.0080
61432DOD     C128115   4.412  29.956  17.691 -0.0304  0.1627 -0.0194
61432DOD     C228116   4.236  29.680  17.311 -0.1558 -0.1707  0.0990
61432DOD     C328117   4.085  29.277  17.184  0.1298 -0.0516  0.0345
61433DOD     C128118   3.606  18.176  16.458  0.0142 -0.1244  0.0169
61433DOD     C228119   3.257  18.024  16.713  0.2788 -0.0255 -0.3093
61433DOD     C328120   2.865  17.857  16.442  0.1167 -0.0696 -0.2894
61434DOD     C128121  30.033  21.263  14.578  0.0437  0.0100  0.2123
61434DOD     C228122   0.113  21.535  14.664 -0.0401 -0.0405 -0.0270
61434DOD     C328123   0.359  21.915  14.464  0.2044  0.0634 -0.0597
61435DOD     C128124   2.731  13.090  24.898 -0.2209  0.0723 -0.1002
61435DOD     C228125   2.902  12.641  24.888  0.0447  0.1278 -0.1173
61435DOD     C328126   3.041  12.182  25.030 -0.2116  0.0945  0.1194
61436DOD     C128127   1.326  13.316   2.227 -0.0936 -0.1974  0.1594
61436DOD     C228128   0.897  13.176   2.130 -0.3591 -0.0902 -0.3209
61436DOD     C328129   0.457  13.157   2.022  0.0028 -0.0971 -0.0460
61437DOD     C128130  29.770  19.072   9.749 -0.0763  0.1933  0.0486
61437DOD     C228131  29.396  19.308   9.878  0.0672 -0.4283  0.2354
61437DOD     C328132  28.970  19.512  10.039 -0.0409 -0.1178  0.0147
61438DOD     C128133  26.591  16.674  17.504 -0.0224  0.2370 -0.0895
61438DOD     C228134  27.023  16.871  17.360  0.2489  0.4576 -0.1265
61438DOD     C328135  27.141  17.137  16.979  0.2587  0.0836  0.0730
61439DOD     C128136  17.315  30.118  27.027  0.1704 -0.1118  0.0314
61439DOD     C228137  17.285  30.281  26.600 -0.0370  0.1208  0.2318
61439DOD     C328138  17.243   0.120  26.137 -0.0715 -0.1848  0.2262
61440DOD     C128139   3.900  17.573   2.147 -0.0940  0.3552  0.2245
61440DOD     C228140   4.236  17.364   1.981  0.2069 -0.1010  0.0719
61440DOD     C328141   4.580  17.363   1.654 -0.0333  0.1581 -0.1402
61441DOD     C128142  26.310   8.503   4.293 -0.0703  0.3347  0.4856
61441DOD     C228143  26.265   7.983   4.345  0.1462 -0.1138  0.0119
61441DOD     C328144  25.922   7.660   4.351  0.0499  0.1672  0.2941
61442DOD     C128145   2.518  23.491  18.137  0.3579  0.0917  0.1033
61442DOD     C228146   2.447  23.051  18.276  0.0333 -0.2937 -0.0796
61442DOD     C328147   2.595  22.980  18.703  0.1049  0.2180  0.1605
61443DOD     C128148  19.301  27.374   2.663  0.0220  0.1336 -0.1889
61443DOD     C228149  19.194  27.652   2.327 -0.1311  0.2169 -0.2596
61443DOD     C328150  18.829  27.629   1.989  0.0073 -0.0023  0.0098
61444DOD     C128151  17.614  20.412  15.500 -0.0055 -0.1610  0.0169
61444DOD     C228152  17.734  20.019  15.779 -0.1228  0.3755 -0.2138
61444DOD     C328153  17.378  19.657  15.736  0.1042 -0.1759  0.1273
61445DOD     C128154  18.429  19.792  20.692  0.1857 -0.3530 -0.3646
61445DOD     C228155  18.148  20.073  20.987 -0.1111  0.2098  0.0599
61445DOD     C328156  17.954  19.932  21.450  0.0101  0.0201  0.0997
61446DOD     C128157  16.362   7.581  24.593  0.1173  0.2038 -0.1266
61446DOD     C228158  16.260   7.843  24.220  0.0092  0.1470  0.0882
61446DOD     C328159  15.919   8.071  23.948  0.1738  0.0226 -0.0472
61447DOD     C128160   3.071   3.126  12.631  0.2039  0.1077 -0.3618
61447DOD     C228161   2.681   2.870  12.476  0.2310  0.3472 -0.1281
61447DOD     C328162   2.251   2.671  12.378  0.3068 -0.2877  0.2740
61448DOD     C128163   9.845  25.838  11.024 -0.4528 -0.1083  0.0479
61448DOD     C228164   9.735  25.998  10.634 -0.1495 -0.1006  0.0090
61448DOD     C328165   9.746  25.810  10.182  0.4736 -0.1985 -0.0613
61449DOD     C128166  13.100  27.054   7.534 -0.0243  0.1216  0.2471
61449DOD     C228167  12.957  27.486   7.541 -0.1220 -0.1037 -0.0015
61449DOD     C328168  13.106  27.824   7.781 -0.0845 -0.1624 -0.4062
61450DOD     C128169   5.637   0.250   0.772  0.1289 -0.0482 -0.2018
61450DOD     C228170   5.500  30.174   0.638  0.0501  0.0084  0.2643
61450DOD     C328171   5.496  29.745   0.475 -0.2211  0.1383 -0.0698
61451DOD     C128172   7.405   7.557  29.028 -0.0500 -0.0126  0.1519
61451DOD     C228173   7.179   7.316  28.677 -0.2335 -0.0819  0.0466
61451DOD     C328174   7.173   6.946  28.317 -0.1137 -0.1788 -0.2730
61452DOD     C128175  28.523  22.487  14.984 -0.0931 -0.1863  0.1188
61452DOD     C228176  28.945  22.390  14.841 -0.2868 -0.0642  0.0359
61452DOD     C328177  29.371  22.399  14.910 -0.0241  0.0620 -0.1825
61453DOD     C128178   9.466   4.788  28.801  0.1297 -0.4667 -0.0844
61453DOD     C228179   9.122   4.800  29.138  0.0606  0.1677 -0.0898
61453DOD     C328180   8.890   4.862  29.544  0.2052  0.3015 -0.1753
61454DOD     C128181   3.668  15.117  12.801  0.1349  0.1123 -0.0854
61454DOD     C228182   3.973  15.365  13.088 -0.0273 -0.0998 -0.3000
61454DOD     C328183   4.111  15.707  13.392  0.1232 -0.4792  0.1121
61455DOD     C128184  26.197  19.361  24.591  0.0863  0.3652 -0.0809
61455DOD     C228185  26.119  19.251  24.130 -0.2571 -0.3511 -0.1625
61455DOD     C328186  25.983  19.212  23.705  0.0930 -0.0218 -0.0776
61456DOD     C128187  19.008   0.802  14.917 -0.1039 -0.2221  0.0595
61456DOD     C228188  19.286   0.990  14.590  0.2079  0.4469  0.0707
61456DOD     C328189  19.316   1.124  14.183  0.1275  0.0657 -0.0118
61457DOD     C128190  21.048  24.299  11.469 -0.3230 -0.0783  0.2270
61457DOD     C228191  21.188  24.733  11.513 -0.1212  0.2785  0.0605
61457DOD     C328192  21.370  25.140  11.588 -0.2535  0.0469  0.1215
61458DOD     C128193  28.901  26.197   7.934  0.0398 -0.2479  0.1029
61458DOD     C228194  28.827  26.635   8.101 -0.2407  0.0671 -0.1942
61458DOD     C328195  29.004  27.061   8.073 -0.0392 -0.3775 -0.0367
61459DOD     C128196  11.632  30.187   8.998  0.0988  0.0604  0.0449
61459DOD     C228197  11.357   0.134   8.682 -0.3143  0.0725 -0.3444
61459DOD     C328198  10.981   0.062   8.390  0.1786 -0.0929  0.3798
61460DOD     C128199  18.970  20.182  24.195  0.1365 -0.1176  0.1588
61460DOD     C228200  18.934  19.912  24.596 -0.0752 -0.0134  0.0892
61460DOD     C328201  19.118  19.511  24.845 -0.0601 -0.0176  0.2084
61461DOD     C128202  25.452  29.804  17.310 -0.0930  0.2446  0.2195
61461DOD     C228203  25.864  29.838  17.044 -0.0527  0.0336  0.2708
61461DOD     C328204  26.080  29.496  16.857  0.1316  0.1414 -0.0335
61462DOD     C128205  18.435   5.550  23.771 -0.2185 -0.4447 -0.2533
61462DOD     C228206  18.846   5.544  23.495 -0.3741 -0.0299 -0.2533
61462DOD     C328207  19.117   5.132  23.460 -0.0863 -0.0568  0.1364
61463DOD     C128208   4.504  28.589  24.456 -0.0607  0.2183  0.0527
61463DOD     C228209   4.268  28.284  24.163  0.1019  0.2174  0.1334
61463DOD     C328210   4.141  27.955  23.864 -0.2221  0.0270 -0.0412
61464DOD     C128211   2.075  12.899  10.868 -0.3691 -0.0625  0.2673
61464DOD     C228212   1.838  12.667  11.224  0.4081  0.0721  0.2425
61464DOD     C328213   1.686  12.427  11.570  0.0504 -0.1553 -0.0747
61465DOD     C128214  21.626   6.482  16.197  0.0076  0.1302  0.1217
61465DOD     C228215  21.556   6.948  16.052 -0.0198  0.0379 -0.0747
61465DOD     C328216  21.121   7.040  16.180  0.0539  0.0374 -0.0327
61466DOD     C128217  30.348  25.663  26.300  0.2251 -0.0293 -0.2490
61466DOD     C228218   0.414  25.896  26.260  0.3109  0.2622 -0.2222
61466DOD     C328219   0.782  25.934  26.059 -0.0311 -0.1106  0.3332
61467DOD     C128220   7.082   0.166  18.213 -0.1212 -0.0025  0.4134
61467DOD     C228221   7.347  30.102  18.457  0.1433 -0.1753  0.2029
61467DOD     C328222   7.458  29.938  18.911  0.1113 -0.1638 -0.0596
61468DOD     C128223   9.132  28.587   6.213 -0.2875 -0.1680 -0.1685
61468DOD     C228224   8.998  28.351   6.625  0.1324 -0.1315 -0.0400
61468DOD     C328225   8.809  27.970   6.778 -0.0051 -0.1075 -0.2222
61469DOD     C128226   4.239  12.819  24.636  0.0130  0.2660 -0.0221
61469DOD     C228227   4.060  12.852  25.064 -0.0139  0.1302 -0.0486
61469DOD     C328228   3.960  12.804  25.536 -0.1370  0.3029 -0.0491
61470DOD     C128229  24.309  26.453   4.894 -0.2569  0.3062  0.0611
61470DOD     C228230  23.918  26.324   4.731 -0.2477 -0.0647  0.1123
61470DOD     C328231  23.742  26.003   4.496 -0.1704  0.1314  0.1814
61471DOD     C128232   9.933  22.553   5.219  0.3067  0.3203  0.1851
61471DOD     C228233   9.829  22.296   5.612 -0.0927  0.3100 -0.0482
61471DOD     C328234   9.918  21.922   5.948 -0.1390  0.0396  0.0293
61472DOD     C128235  29.336  21.627  11.472 -0.1118 -0.0075 -0.0163
61472DOD     C228236  29.491  21.676  10.985  0.2097 -0.0973 -0.1530
61472DOD     C328237  29.381  21.428  10.551  0.1506 -0.3201 -0.0399
61473DOD     C128238   7.687   0.670  19.961  0.0766  0.1675 -0.3471
61473DOD     C228239   7.888   0.624  19.580 -0.1301  0.2067  0.1078
61473DOD     C328240   7.652   0.467  19.224 -0.2299  0.5256  0.4473
61474DOD     C128241  12.049   4.717   1.201 -0.3797 -0.3160 -0.1655
61474DOD     C228242  12.269   4.482   1.550 -0.0938 -0.1316 -0.1892
61474DOD     C328243  12.272   4.224   1.982  0.1788  0.3210  0.1022
61475DOD     C128244   4.970   8.845   0.380 -0.1433  0.1602 -0.1049
61475DOD     C228245   5.079   8.393   0.424  0.0426  0.0450  0.0521
61475DOD     C328246   5.167   8.086   0.078 -0.3972  0.2753 -0.3360
61476DOD     C128247   8.196  10.524   2.475 -0.0454  0.2321 -0.3153
61476DOD     C228248   7.817  10.796   2.362 -0.3173 -0.0135  0.0121
61476DOD     C328249   7.558  10.956   2.025  0.3093 -0.0371 -0.0586
61477DOD     C128250  28.671  25.424  24.983 -0.0037  0.0285  0.1187
61477DOD     C228251  28.375  25.765  24.852  0.0856 -0.1584 -0.4491
61477DOD     C328252  27.970  25.709  24.604  0.1359  0.1296 -0.1296
61478DOD     C128253   6.882  15.165   2.501  0.0019 -0.1141 -0.2038
61478DOD     C228254   7.225  14.892   2.498 -0.0253 -0.1027  0.0861
61478DOD     C328255   7.473  14.479   2.349  0.2336  0.3392  0.1924
61479DOD     C128256   4.993   5.638  27.760  0.0345  0.1172  0.1610
61479DOD     C228257   5.331   5.379  27.513 -0.0213  0.0454  0.1906
61479DOD     C328258   5.604   5.495  27.117  0.0837  0.3514 -0.0581
61480DOD     C128259  17.416  22.557   2.000 -0.2229  0.0759 -0.0043
61480DOD     C228260  17.590  22.884   2.267 -0.0834 -0.0813 -0.2085
61480DOD     C328261  17.704  23.007   2.645 -0.0261  0.2741 -0.0268
61481DOD     C128262  26.565  18.562   6.627  0.3406 -0.0686 -0.0509
61481DOD     C228263  26.364  18.960   6.542 -0.3207  0.0470 -0.2183
61481DOD     C328264  26.055  19.200   6.761  0.2561  0.0815 -0.1494
61482DOD     C128265  27.222  10.771   2.496 -0.0742 -0.0385 -0.0691
61482DOD     C228266  27.469  10.728   2.130  0.1120  0.1167  0.3671
61482DOD     C328267  27.802  10.949   1.796  0.1964 -0.4176 -0.0737
61483DOD     C128268  12.941  23.197  15.294 -0.0369 -0.3429  0.2253
61483DOD     C228269  13.232  22.879  15.136 -0.2236 -0.2860  0.0102
61483DOD     C328270  13.483  22.534  14.973  0.0464  0.0462  0.2253
61484DOD     C128271  13.844  16.350  23.205 -0.0093 -0.2000  0.3081
61484DOD     C228272  13.580  15.991  23.289  0.1044  0.1231 -0.1636
61484DOD     C328273  13.595  15.626  23.012 -0.1685 -0.4015 -0.1579
61485DOD     C128274  23.984  21.240  24.605 -0.3367  0.5967 -0.0783
61485DOD     C228275  24.282  21.565  24.485  0.0825  0.3668  0.1335
61485DOD     C328276  24.599  21.887  24.584 -0.0611 -0.0152 -0.0118
61486DOD     C128277  15.948  20.967  18.594  0.0123  0.0462 -0.0370
61486DOD     C228278  16.029  21.357  18.736 -0.2151 -0.0205 -0.2113
61486DOD     C328279  16.002  21.795  18.677  0.3109  0.0516  0.3073
61487DOD     C128280   1.799  21.702   7.457  0.1250 -0.3522  0.0281
61487DOD     C228281   1.706  21.836   7.930 -0.0310  0.1025 -0.1117
61487DOD     C328282   1.559  21.897   8.379  0.1192 -0.0437  0.0477
61488DOD     C128283   0.500  29.750  25.021  0.1554 -0.3302 -0.0214
61488DOD     C228284   0.533  30.028  25.406 -0.1726 -0.2011 -0.0497
61488DOD     C328285   0.538   0.136  25.647 -0.0952 -0.3439 -0.2026
61489DOD     C128286  20.008   6.014   7.086  0.0337  0.0304 -0.0260
61489DOD     C228287  19.947   6.460   6.903 -0.0977 -0.0404 -0.0969
61489DOD     C328288  19.974   6.925   7.056  0.0126 -0.0402 -0.1046
61490DOD     C128289  20.653   0.201  24.370 -0.3220 -0.1362 -0.1277
61490DOD     C228290  20.538   0.497  24.028  0.0487 -0.0909  0.3837
61490DOD     C328291  20.441   0.635  23.581 -0.1178 -0.0079 -0.1267
61491DOD     C128292  12.733   8.811  24.856 -0.1818 -0.0556 -0.5354
61491DOD     C228293  12.753   8.872  24.402 -0.0003  0.0056  0.0128
61491DOD     C328294  12.961   8.783  24.032 -0.0548 -0.0734  0.1814
61492DOD     C128295   6.584  14.935  28.169  0.2332  0.0466 -0.0562
61492DOD     C228296   6.995  14.943  27.963  0.2273  0.4429  0.0971
61492DOD     C328297   7.255  14.937  27.571  0.2942  0.1316 -0.1567
61493DOD     C128298  12.410  30.136   4.675 -0.0300 -0.0146  0.1915
61493DOD     C228299  12.014   0.038   4.602 -0.0340 -0.0505 -0.2723
61493DOD     C328300  11.617   0.324   4.554  0.0919 -0.1058  0.1052
61494DOD     C128301  18.762   4.163  13.475 -0.1905 -0.3797 -0.2371
61494DOD     C228302  18.336   4.224  13.280  0.2508 -0.0445 -0.1384
61494DOD     C328303  17.875   4.180  13.214  0.0357  0.0527  0.5661
61495DOD     C128304  29.654  17.732   0.439  0.1944  0.0389 -0.0523
61495DOD     C228305  29.826  17.817   0.857  0.0211 -0.0289 -0.1757
61495DOD     C328306  30.011  17.553   1.210  0.1582  0.1471  0.0848
61496DOD     C128307  19.767  26.780   0.521  0.0346  0.0158  0.1531
61496DOD     C228308  19.983  26.904   0.178  0.1498  0.2029  0.0118
61496DOD     C328309  20.205  26.978  30.084  0.1177 -0.0976 -0.2821
61497DOD     C128310   2.601  10.244  19.922  0.0170  0.1066  0.0559
61497DOD     C228311   2.548  10.707  19.781  0.1639 -0.1523 -0.1816
61497DOD     C328312   2.675  10.953  19.389  0.0878 -0.2546 -0.1166
61498DOD     C128313  28.087   6.043   9.073 -0.1086 -0.1829  0.4642
61498DOD     C228314  27.807   5.760   9.289 -0.0523 -0.1508 -0.1418
61498DOD     C328315  27.672   5.551   9.682 -0.0328  0.0850  0.1783
61499DOD     C128316  22.619  27.031  20.079  0.2201 -0.0260 -0.0307
61499DOD     C228317  22.614  27.206  19.636 -0.0286  0.0266  0.1546
61499DOD     C328318  22.497  27.404  19.258 -0.0595  0.0248 -0.3380
61500DOD     C128319  29.455   2.566  16.195 -0.0530 -0.3333  0.1040
61500DOD     C228320  29.276   2.718  16.581 -0.4163 -0.0038  0.0383
61500DOD     C328321  29.329   2.892  17.037 -0.0032  0.0898  0.1228
61501DOD     C128322   0.885  14.778   6.273 -0.4220  0.2160  0.2402
61501DOD     C228323   0.659  14.477   6.047 -0.1024 -0.2090  0.0035
61501DOD     C328324   0.408  14.430   5.637  0.2879  0.1934  0.0821
61502DOD     C128325  13.723  21.869  14.751 -0.0375 -0.0035  0.2215
61502DOD     C228326  13.819  21.385  14.787  0.1248  0.0890  0.0252
61502DOD     C328327  14.245  21.183  14.929 -0.2612 -0.1102  0.0962
61503DOD     C128328  27.882   1.535   7.899  0.3288  0.1164  0.1844
61503DOD     C228329  27.990   1.987   7.956 -0.0695  0.2254 -0.1152
61503DOD     C328330  28.383   2.084   8.209  0.0273 -0.0583  0.0642
61504DOD     C128331  23.076  28.361   9.311 -0.2160 -0.0845 -0.0797
61504DOD     C228332  22.600  28.404   9.513  0.1003 -0.0232 -0.2079
61504DOD     C328333  22.271  28.189   9.829  0.0566 -0.0056 -0.0624
61505DOD     C128334  28.378  26.679  16.012 -0.0704  0.2011  0.1260
61505DOD     C228335  28.316  26.518  16.431 -0.0859 -0.3512 -0.1163
61505DOD     C328336  28.005  26.442  16.764  0.0980  0.0006  0.0328
61506DOD     C128337  18.110  22.533   5.370 -0.4054 -0.0897 -0.0839
61506DOD     C228338  18.183  22.485   4.915  0.5066  0.2660  0.0141
61506DOD     C328339  18.162  22.183   4.568  0.0303  0.1180  0.0506
61507DOD     C128340   0.400  17.977   5.142 -0.0964 -0.2773 -0.0359
61507DOD     C228341   0.532  17.938   5.603  0.0854  0.1046 -0.0283
61507DOD     C328342   0.494  17.960   6.075  0.0636  0.1850 -0.0078
61508DOD     C128343  20.710   8.877  22.275 -0.0297  0.0709 -0.1069
61508DOD     C228344  21.165   9.122  22.318 -0.1239  0.4310 -0.1550
61508DOD     C328345  21.540   9.083  21.990  0.4060 -0.0623  0.3407
61509DOD     C128346   4.527   6.622  19.160 -0.0013 -0.3265 -0.2159
61509DOD     C228347   4.411   6.992  18.919 -0.1060 -0.1408 -0.3276
61509DOD     C328348   4.297   7.397  18.730 -0.0590  0.0382  0.3074
61510DOD     C128349  11.141  19.057   8.424  0.0047  0.2356 -0.1711
61510DOD     C228350  10.836  18.724   8.535 -0.3092  0.2271 -0.3919
61510DOD     C328351  10.931  18.450   8.916 -0.1364 -0.2396 -0.1427
61511DOD     C128352   8.502   5.107  11.271  0.0295 -0.2742 -0.0138
61511DOD     C228353   8.155   5.438  11.203 -0.0335  0.1496  0.0122
61511DOD     C328354   7.963   5.701  10.866  0.1095 -0.3704  0.0810
61512DOD     C128355   4.605   9.712  10.098 -0.0101  0.1405 -0.2942
61512DOD     C228356   4.352   9.694  10.508 -0.0501  0.0311 -0.2823
61512DOD     C328357   4.362   9.901  10.918  0.0528  0.2066  0.2543
61513DOD     C128358  19.441  10.587  13.401 -0.0529 -0.0313  0.1384
61513DOD     C228359  19.132  10.456  13.628  0.3459  0.0386  0.1118
61513DOD     C328360  18.721  10.265  13.844  0.1630 -0.0933  0.1658
61514DOD     C128361  18.688  15.314  21.119 -0.0349  0.0457  0.1766
61514DOD     C228362  18.992  15.275  20.785  0.0291 -0.0348  0.0907
61514DOD     C328363  19.283  15.654  20.713  0.0132  0.0608  0.3550
61515DOD     C128364   4.962  21.409   3.833  0.2002 -0.0721  0.2311
61515DOD     C228365   4.906  20.946   3.731 -0.1121 -0.2310  0.2527
61515DOD     C328366   4.734  20.527   3.732  0.0643  0.1226 -0.1051
61516DOD     C128367   0.371   5.415  20.847 -0.0290  0.1856 -0.1001
61516DOD     C228368   0.519   5.143  20.534  0.1206  0.2192 -0.1517
61516DOD     C328369   0.690   5.029  20.128  0.0908 -0.0446 -0.0618
61517DOD     C128370  21.288   8.925  19.740  0.2294  0.0479  0.2868
61517DOD     C228371  21.770   8.785  19.631  0.2286 -0.0828  0.0121
61517DOD     C328372  22.207   8.967  19.595 -0.1280 -0.0472  0.1214
61518DOD     C128373   3.704  25.140  18.630  0.0732 -0.0953  0.2077
61518DOD     C228374   4.071  25.267  18.885 -0.0436 -0.0891 -0.0917
61518DOD     C328375   4.151  25.394  19.373  0.0404  0.2480 -0.2700
61519DOD     C128376   3.933   0.479   2.243  0.1653 -0.3631 -0.1643
61519DOD     C228377   4.129   0.760   2.544  0.0044  0.1478 -0.2945
61519DOD     C328378   4.273   0.718   2.930 -0.0824  0.0153  0.1256
61520DOD     C128379   5.921  29.257  14.929  0.1249 -0.0322 -0.0633
61520DOD     C228380   6.300  29.298  14.663  0.2120  0.0844 -0.0869
61520DOD     C328381   6.420  29.182  14.250  0.4452  0.2277 -0.1852
61521DOD     C128382  11.331  27.827  17.045 -0.1745 -0.3586  0.1200
61521DOD     C228383  10.915  27.928  17.238  0.1824 -0.0320 -0.0373
61521DOD     C328384  10.743  28.387  17.404 -0.3557 -0.1980  0.1419
61522DOD     C128385  19.220  19.824  22.980  0.1668 -0.1617 -0.0314
61522DOD     C228386  18.950  19.681  22.617 -0.1498  0.1293 -0.0974
61522DOD     C328387  19.009  19.758  22.163  0.1869 -0.1085  0.1757
61523DOD     C128388  13.983   9.905  21.721 -0.1385 -0.2263  0.3097
61523DOD     C228389  14.426  10.052  21.587  0.0312  0.1445  0.1780
61523DOD     C328390  14.719  10.308  21.364  0.1523  0.0676 -0.1610
61524DOD     C128391  10.801  19.601  19.141 -0.0705  0.2486  0.1887
61524DOD     C228392  10.489  19.303  18.984 -0.1727 -0.0178  0.2205
61524DOD     C328393  10.413  18.849  18.957 -0.2632  0.1817  0.0884
61525DOD     C128394   0.336  13.685  12.556  0.1606  0.1995 -0.3139
61525DOD     C228395   0.589  13.255  12.491  0.0133 -0.1250  0.2330
61525DOD     C328396   0.435  12.762  12.432 -0.1973  0.1805 -0.0139
61526DOD     C128397   9.461  15.246  12.700 -0.1324  0.1464 -0.3473
61526DOD     C228398   9.272  15.058  13.143  0.1467 -0.0140  0.1214
61526DOD     C328399   8.921  14.840  13.256 -0.0536  0.2136 -0.2712
61527DOD     C128400  21.965   7.016  16.316 -0.0590  0.2232  0.0705
61527DOD     C228401  22.137   6.637  16.068  0.0900 -0.2619  0.0746
61527DOD     C328402  22.083   6.149  15.896 -0.0797 -0.2528  0.2954
61528DOD     C128403   3.621  11.468  20.521 -0.2097 -0.0980  0.0780
61528DOD     C228404   3.931  11.699  20.777 -0.0193  0.1057 -0.1824
61528DOD     C328405   4.349  11.938  20.722 -0.2327 -0.0358  0.3203
61529DOD     C128406   6.272   0.358  22.841 -0.1540  0.2582  0.0340
61529DOD     C228407   6.030  -0.027  22.617  0.0418 -0.1435  0.1639
61529DOD     C328408   5.816  30.211  22.158 -0.1275  0.4342  0.0235
61530DOD     C128409  16.878   0.717  22.561 -0.3479  0.1774 -0.5436
61530DOD     C228410  17.107   0.431  22.260  0.3842 -0.0174 -0.0622
61530DOD     C328411  17.233   0.253  21.845  0.0815  0.1490 -0.0434
61531DOD     C128412  14.431  23.511  18.410 -0.1301  0.1018 -0.3768
61531DOD     C228413  14.432  23.289  18.838  0.0348  0.1079  0.3043
61531DOD     C328414  14.625  23.282  19.234  0.3601 -0.1771 -0.0795
61532DOD     C128415  19.870  17.261   2.385 -0.0357 -0.5292  0.0834
61532DOD     C228416  20.045  17.017   1.995 -0.0993  0.1142 -0.0863
61532DOD     C328417  20.366  16.693   2.042 -0.0408  0.0970 -0.1063
61533DOD     C128418  19.414  15.344   2.199  0.0177 -0.0060 -0.0796
61533DOD     C228419  19.052  15.565   2.089  0.1984 -0.0702  0.0759
61533DOD     C328420  18.665  15.791   2.228  0.2223 -0.3546 -0.0415
61534DOD     C128421  12.846  12.315  26.617 -0.2759 -0.2329  0.0096
61534DOD     C228422  12.642  12.737  26.767 -0.0458 -0.1582 -0.0728
61534DOD     C328423  12.493  13.179  26.666  0.2412 -0.1955 -0.0072
61535DOD     C128424   1.273  11.982   4.060  0.1601  0.0611 -0.0795
61535DOD     C228425   1.272  12.110   3.575  0.1116 -0.4738 -0.0794
61535DOD     C328426   1.537  12.281   3.220  0.0865 -0.2233 -0.0270
61536DOD     C128427  11.058   3.659   1.996  0.2189 -0.0580 -0.3043
61536DOD     C228428  11.230   3.510   1.661 -0.1006 -0.3032  0.0048
61536DOD     C328429  11.367   3.281   1.312  0.2387 -0.0977 -0.0056
61537DOD     C128430  27.536   0.251  24.892 -0.2232  0.0485  0.0471
61537DOD     C228431  27.589  30.146  25.149 -0.1632 -0.1265 -0.0233
61537DOD     C328432  27.561  29.691  25.242  0.2049 -0.0808  0.0389
61538DOD     C128433   1.694  27.073   1.285 -0.0718 -0.2076 -0.1228
61538DOD     C228434   1.846  26.801   1.655 -0.1365 -0.1111  0.5267
61538DOD     C328435   1.718  26.429   1.879  0.0397 -0.0240  0.3243
61539DOD     C128436  14.425  21.775  15.449 -0.1813 -0.0662 -0.2091
61539DOD     C228437  14.176  22.180  15.436  0.0481  0.3106 -0.1169
61539DOD     C328438  13.934  22.575  15.330  0.1265 -0.1749  0.1749
61540DOD     C128439   2.321  21.191  20.479  0.0350  0.1833 -0.2686
61540DOD     C228440   1.970  21.288  20.214 -0.0855  0.0930  0.2192
61540DOD     C328441   1.581  21.217  19.960 -0.0093 -0.1390 -0.0514
61541DOD     C128442  22.110  29.370   4.231 -0.1100 -0.1400  0.4184
61541DOD     C228443  22.140  29.515   4.648 -0.2693  0.1077 -0.1243
61541DOD     C328444  21.833  29.277   4.959  0.1889 -0.0189 -0.0833
61542DOD     C128445  21.974  23.238   8.716  0.0968 -0.2483 -0.3386
61542DOD     C228446  21.823  23.617   8.939  0.0457 -0.5448 -0.1518
61542DOD     C328447  21.956  23.866   9.321 -0.2283  0.0589 -0.2510
61543DOD     C128448  28.783   2.162  17.416 -0.1260 -0.1507 -0.0841
61543DOD     C228449  28.880   1.735  17.642 -0.2276 -0.0872 -0.1347
61543DOD     C328450  28.992   1.301  17.784 -0.2174  0.0982  0.0762
61544DOD     C128451  15.725  27.576   0.808  0.1401 -0.0347 -0.0765
61544DOD     C228452  15.619  28.026   0.668  0.0532 -0.2646 -0.1885
61544DOD     C328453  15.632  28.270   0.235 -0.0072  0.1969 -0.0323
61545DOD     C128454   0.339  20.934   9.002  0.1660  0.1425  0.0196
61545DOD     C228455   0.207  20.878   8.542  0.1376 -0.1946  0.1181
61545DOD     C328456   0.383  20.662   8.123 -0.0216  0.1417 -0.1985
61546DOD     C128457  16.717  26.392  13.221  0.3666  0.1911 -0.3400
61546DOD     C228458  16.349  26.342  13.542 -0.2633  0.1166  0.1503
61546DOD     C328459  15.955  26.113  13.827  0.0200  0.0672 -0.0144
61547DOD     C128460  26.608  13.386   0.110  0.1260 -0.2905 -0.1077
61547DOD     C228461  26.451  13.334   0.548  0.2294 -0.1661 -0.0223
61547DOD     C328462  26.578  12.992   0.893 -0.3460 -0.3976  0.0620
61548DOD     C128463  14.381   0.344  11.018 -0.1286 -0.1367 -0.0930
61548DOD     C228464  14.572  30.245  10.953  0.0436 -0.1479 -0.0090
61548DOD     C328465  15.004   0.012  10.825 -0.3687 -0.1752 -0.3724
61549DOD     C128466   1.229  27.250  20.758 -0.3897 -0.1608 -0.3049
61549DOD     C228467   1.004  27.613  20.585 -0.0678  0.0037  0.0031
61549DOD     C328468   0.815  28.044  20.530 -0.2758  0.0944  0.1512
61550DOD     C128469  16.258   1.067  11.438  0.2133  0.1158  0.0968
61550DOD     C228470  16.114   0.978  11.859 -0.0707 -0.0158  0.2017
61550DOD     C328471  16.072   0.615  12.166  0.0687 -0.3099 -0.1338
61551DOD     C128472   0.130   2.144  27.554 -0.1002 -0.4804 -0.0889
61551DOD     C228473   0.023   1.787  27.807 -0.1617  0.0991 -0.2592
61551DOD     C328474   0.167   1.393  27.950  0.2990 -0.1312  0.1111
61552DOD     C128475  16.014  10.846  11.303 -0.3279  0.3208  0.2397
61552DOD     C228476  15.599  10.818  11.121  0.0666 -0.1686 -0.0796
61552DOD     C328477  15.252  11.152  11.075  0.0284 -0.0830 -0.0206
61553DOD     C128478  24.607   4.280  21.116  0.1366  0.0860 -0.0456
61553DOD     C228479  24.927   4.455  20.828  0.1593  0.1654 -0.1193
61553DOD     C328480  25.242   4.770  20.627  0.0301 -0.2077  0.4055
61554DOD     C128481  12.438   2.751   4.164  0.3007 -0.0485  0.0256
61554DOD     C228482  12.457   2.469   4.557 -0.0693 -0.2232 -0.0448
61554DOD     C328483  12.667   2.379   5.004  0.2546 -0.0234  0.0149
61555DOD     C128484  19.549  16.787  20.004 -0.0947 -0.0073  0.0765
61555DOD     C228485  19.906  16.701  20.280  0.1673  0.1760  0.4252
61555DOD     C328486  20.226  16.949  20.490 -0.1948 -0.2742  0.2263
61556DOD     C128487  21.045   9.624   3.880 -0.0275 -0.1129 -0.0106
61556DOD     C228488  20.752   9.770   3.597 -0.0601  0.0445  0.0607
61556DOD     C328489  20.872   9.901   3.176 -0.1347 -0.1693  0.0271
61557DOD     C128490  19.869  27.574   3.709  0.2780  0.1351  0.0871
61557DOD     C228491  19.533  27.665   3.402 -0.3462 -0.0360  0.2563
61557DOD     C328492  19.162  27.610   3.176  0.4023 -0.0606 -0.2207
61558DOD     C128493  18.611  12.794   2.177  0.0905 -0.2804  0.0915
61558DOD     C228494  18.697  12.392   2.391  0.4396  0.2393  0.2062
61558DOD     C328495  18.561  12.213   2.766 -0.0655  0.2365  0.3411
61559DOD     C128496  26.651  16.169  18.809 -0.2569  0.4545  0.0476
61559DOD     C228497  26.996  16.231  18.485 -0.1163 -0.0313 -0.0188
61559DOD     C328498  27.099  16.435  18.127  0.0136  0.0458  0.0151
61560DOD     C128499  19.384  26.088   6.949  0.2764  0.0610 -0.2891
61560DOD     C228500  19.764  25.783   6.864 -0.5217  0.1077  0.4043
61560DOD     C328501  19.853  25.328   6.611 -0.2209  0.1235  0.0101
61561DOD     C128502  29.028  21.767  13.295  0.1268  0.1949  0.0124
61561DOD     C228503  29.336  21.893  13.710 -0.0557 -0.0448 -0.0425
61561DOD     C328504  29.290  22.292  13.971  0.0001  0.0801  0.0856
61562DOD     C128505   4.387  13.310  23.499 -0.0779 -0.0772 -0.4179
61562DOD     C228506   4.350  13.060  23.118  0.0906  0.0106 -0.2665
61562DOD     C328507   4.404  12.838  22.717 -0.2185 -0.1275  0.2358
61563DOD     C128508  11.344  17.669   3.057  0.1427  0.1548 -0.2925
61563DOD     C228509  11.437  17.190   3.042 -0.1663 -0.2279  0.4223
61563DOD     C328510  11.141  16.817   2.977 -0.0095 -0.1962  0.0100
61564DOD     C128511   7.509  21.790  23.554  0.0488  0.1048 -0.3942
61564DOD     C228512   7.450  21.462  23.195 -0.1980  0.2121  0.1763
61564DOD     C328513   7.690  21.090  23.106 -0.0462  0.3019 -0.0911
61565DOD     C128514   1.845   3.501  22.010  0.0783  0.0831  0.0107
61565DOD     C228515   1.801   3.149  22.316  0.1408 -0.0281  0.0755
61565DOD     C328516   1.457   2.875  22.482  0.2677  0.2294  0.2601
61566DOD     C128517   1.164   1.942  19.583 -0.3157  0.2668 -0.3477
61566DOD     C228518   1.223   2.367  19.253  0.1849  0.1321 -0.2030
61566DOD     C328519   1.282   2.464  18.822  0.2514  0.0491  0.0674
61567DOD     C128520   4.632  23.060   8.669  0.1484 -0.0945 -0.1148
61567DOD     C228521   5.073  23.206   8.596 -0.3237 -0.1760 -0.1319
61567DOD     C328522   5.480  23.426   8.593  0.2801 -0.1911  0.1388
61568DOD     C128523  17.077   2.744  16.922  0.1136 -0.1649 -0.1591
61568DOD     C228524  16.901   2.961  16.544  0.0368  0.2616  0.1269
61568DOD     C328525  16.548   3.250  16.393  0.0056 -0.0664  0.3303
61569DOD     C128526  18.577   8.150  24.921  0.0199 -0.2615  0.1237
61569DOD     C228527  18.763   8.599  25.003  0.3248 -0.0294  0.0038
61569DOD     C328528  18.804   9.037  25.015  0.1830  0.1930  0.1148
61570DOD     C128529  24.988  22.462   3.610 -0.0648  0.3464 -0.2286
61570DOD     C228530  25.162  22.829   3.412  0.5144 -0.0578 -0.0933
61570DOD     C328531  25.260  23.270   3.410  0.1200  0.1186  0.3268
61571DOD     C128532   7.617  12.172  20.366 -0.0458  0.1111 -0.1634
61571DOD     C228533   7.927  11.850  20.543  0.3565  0.3014 -0.0750
61571DOD     C328534   8.298  11.706  20.839 -0.1811 -0.0872 -0.0573
61572DOD     C128535  18.024  29.167  16.373 -0.2379  0.2058  0.3195
61572DOD     C228536  17.908  29.462  16.621  0.1440  0.2165  0.0188
61572DOD     C328537  17.652  29.853  16.687 -0.0824  0.0077  0.0466
61573DOD     C128538  22.009  24.149  29.824 -0.0602 -0.0150 -0.0136
61573DOD     C228539  21.680  24.283  30.119 -0.2856 -0.1054  0.3821
61573DOD     C328540  21.299  24.353  29.826  0.0225  0.3564  0.1129
61574DOD     C128541  18.303  22.576  10.239  0.0139 -0.1943 -0.1812
61574DOD     C228542  18.268  22.351   9.812 -0.1324 -0.1747  0.0799
61574DOD     C328543  18.075  22.475   9.406 -0.1717 -0.2571 -0.0313
61575DOD     C128544   4.992  14.505  21.300  0.0803  0.0376  0.1415
61575DOD     C228545   5.358  14.356  21.504  0.3090 -0.0716  0.1057
61575DOD     C328546   5.621  14.211  21.810 -0.1120 -0.0920  0.2659
61576DOD     C128547   9.076   6.852  15.392  0.0565 -0.0621 -0.0677
61576DOD     C228548   9.474   7.081  15.261  0.0786  0.1213  0.1670
61576DOD     C328549   9.800   7.364  15.357 -0.1152 -0.1945  0.1211
61577DOD     C128550  21.448  19.039  24.218  0.1400 -0.2985 -0.1012
61577DOD     C228551  21.796  18.731  24.205 -0.0163  0.1424 -0.0595
61577DOD     C328552  22.107  18.673  23.869 -0.0995  0.0029  0.0022
61578DOD     C128553  28.711  17.527  12.813  0.1929  0.1568 -0.0464
61578DOD     C228554  28.753  17.991  12.882 -0.0449 -0.3132 -0.1994
61578DOD     C328555  28.709  18.471  12.873 -0.0005  0.1332 -0.0573
61579DOD     C128556  13.202   3.409  23.203  0.0366  0.3059 -0.2405
61579DOD     C228557  13.407   3.766  23.352 -0.2305  0.0690  0.1379
61579DOD     C328558  13.536   4.165  23.185  0.2768  0.1947  0.0093
61580DOD     C128559   8.303   0.173  13.200 -0.1460  0.3500  0.0128
61580DOD     C228560   8.264  30.076  12.881 -0.1477 -0.0169  0.0796
61580DOD     C328561   8.022  29.648  12.770 -0.0818  0.1932 -0.0118
61581DOD     C128562  24.487  11.110   0.011  0.1149  0.1006 -0.3130
61581DOD     C228563  24.124  11.105  30.050 -0.0853 -0.0727 -0.2893
61581DOD     C328564  23.896  11.416  29.832 -0.2460  0.0615 -0.2528
61582DOD     C128565  11.931  19.961  13.899 -0.0069  0.2343 -0.2125
61582DOD     C228566  12.078  20.368  13.968 -0.0126  0.1970  0.5765
61582DOD     C328567  11.834  20.737  14.196  0.3800 -0.3101  0.0763
61583DOD     C128568  26.135  12.385  26.126  0.1832  0.2072 -0.1246
61583DOD     C228569  26.365  12.030  26.313 -0.0092 -0.0537  0.1289
61583DOD     C328570  26.795  11.858  26.449  0.0876  0.1224 -0.1148
61584DOD     C128571   1.812  23.350  14.328  0.0091  0.0011 -0.3124
61584DOD     C228572   2.183  23.540  14.260 -0.0829 -0.1781 -0.0188
61584DOD     C328573   2.441  23.880  14.403 -0.1265  0.1816  0.1120
61585DOD     C128574  19.560   0.250  27.951  0.1568 -0.0802 -0.0339
61585DOD     C228575  19.841   0.381  27.598  0.1048 -0.1141 -0.0538
61585DOD     C328576  19.927   0.700  27.177 -0.2032  0.0708  0.1695
61586DOD     C128577  24.114   6.035   8.449  0.0223  0.0574 -0.1453
61586DOD     C228578  23.811   6.117   8.078  0.2177  0.1533  0.0536
61586DOD     C328579  23.367   6.048   7.972  0.3335  0.0966  0.1239
61587DOD     C128580  25.652   0.294   1.910 -0.1124 -0.2062  0.2182
61587DOD     C228581  25.967   0.572   2.112 -0.1034 -0.0628  0.0953
61587DOD     C328582  26.126   0.890   2.423  0.0633 -0.2005  0.1537
61588DOD     C128583  18.783  30.221  28.976 -0.1055  0.0075 -0.3014
61588DOD     C228584  19.022  30.188  29.360 -0.1032  0.2661 -0.0718
61588DOD     C328585  19.248  30.137  29.745 -0.1729 -0.2946  0.1166
61589DOD     C128586  19.787   7.925  13.279  0.1073  0.0054 -0.0498
61589DOD     C228587  20.240   7.864  13.435 -0.3249 -0.0654 -0.1228
61589DOD     C328588  20.518   7.937  13.780  0.0556 -0.3263 -0.1191
61590DOD     C128589   2.982  22.303  25.375 -0.0544  0.0209 -0.2733
61590DOD     C228590   2.601  22.219  25.095 -0.2644  0.1372 -0.1866
61590DOD     C328591   2.319  22.153  24.728  0.1143  0.0015  0.3016
61591DOD     C128592   1.376  29.423  19.964 -0.0513 -0.0165  0.2943
61591DOD     C228593   0.956  29.622  19.857  0.3408 -0.1350  0.0577
61591DOD     C328594   0.509  29.578  20.027  0.3609 -0.1821 -0.1369
61592DOD     C128595  26.529  26.820   4.877  0.1144  0.2362 -0.0879
61592DOD     C228596  26.837  27.063   4.681  0.2487 -0.1071 -0.0727
61592DOD     C328597  27.279  26.902   4.507  0.1420 -0.0511 -0.2380
61593DOD     C128598   3.275   9.015  21.881 -0.2865 -0.3267 -0.3105
61593DOD     C228599   3.497   9.468  21.978 -0.1611 -0.0037  0.2265
61593DOD     C328600   3.767   9.885  22.031  0.2356  0.0175  0.1602
61594DOD     C128601  24.313   2.936   7.383 -0.2401  0.0991 -0.2132
61594DOD     C228602  24.679   3.188   7.503  0.1020  0.1403 -0.0588
61594DOD     C328603  25.126   3.241   7.506 -0.0660  0.0655 -0.1498
61595DOD     C128604   6.389   6.651  21.896 -0.0739 -0.2520  0.2280
61595DOD     C228605   6.351   6.582  22.346  0.0748 -0.2384  0.0428
61595DOD     C328606   6.227   6.868  22.619 -0.1528  0.2139 -0.0853
61596DOD     C128607   2.368  22.870  12.730  0.2077 -0.1065 -0.0251
61596DOD     C228608   2.693  22.506  12.962 -0.2655 -0.0920  0.1359
61596DOD     C328609   3.111  22.386  13.015 -0.1082  0.3231 -0.0795
61597DOD     C128610  17.074   8.847  19.504  0.1728 -0.1641  0.0394
61597DOD     C228611  17.497   8.981  19.430 -0.2490  0.0489  0.0629
61597DOD     C328612  17.954   9.113  19.286 -0.0872  0.0909  0.2144
61598DOD     C128613  11.544  22.238  27.394  0.2456  0.2298  0.0557
61598DOD     C228614  11.423  21.773  27.390  0.0135  0.1483  0.0279
61598DOD     C328615  11.667  21.375  27.385  0.0953  0.0879  0.2924
61599DOD     C128616  16.191  15.194  12.200 -0.0004 -0.1301  0.1518
61599DOD     C228617  16.263  14.830  11.873 -0.2761 -0.0012 -0.1815
61599DOD     C328618  16.351  14.701  11.463  0.1478  0.2446  0.2506
61600DOD     C128619   2.777   9.335  21.269 -0.1297 -0.2021 -0.0354
61600DOD     C228620   2.389   9.197  21.476 -0.1727  0.1193  0.0875
61600DOD     C328621   2.066   9.433  21.667  0.2347 -0.0793  0.0820
61601DOD     C128622   3.857   4.390   0.221 -0.1424 -0.1920 -0.0914
61601DOD     C228623   4.032   4.190  30.138  0.0219 -0.2214 -0.0467
61601DOD     C328624   4.274   3.825  29.988 -0.2340 -0.4272  0.0285
61602DOD     C128625   1.310  23.041  12.506 -0.1506 -0.2034  0.0961
61602DOD     C228626   1.034  23.206  12.866  0.0677  0.2353 -0.1781
61602DOD     C328627   0.810  23.445  13.140  0.1662 -0.0628 -0.2341
61603DOD     C128628  22.251  17.336  17.934 -0.1266 -0.2090 -0.3445
61603DOD     C228629  22.091  17.779  17.888 -0.3357 -0.3188  0.2677
61603DOD     C328630  22.123  18.258  17.804  0.1465 -0.0967  0.1162
61604DOD     C128631   4.416  11.879  10.390 -0.2005 -0.1370 -0.0402
61604DOD     C228632   4.614  12.015  10.792  0.4468  0.3550  0.1236
61604DOD     C328633   4.651  12.305  11.097 -0.1136 -0.0802 -0.1802
61605DOD     C128634  23.245  21.245   3.193  0.2189 -0.0417  0.1556
61605DOD     C228635  23.686  21.359   3.219  0.2375 -0.2251 -0.2963
61605DOD     C328636  23.939  21.726   3.416  0.1927  0.2315  0.2679
61606DOD     C128637  23.304  27.477  22.884  0.0220 -0.1406 -0.1000
61606DOD     C228638  23.621  27.495  23.230 -0.0616  0.0757  0.0116
61606DOD     C328639  23.960  27.402  23.530 -0.0944 -0.1526 -0.0440
61607DOD     C128640   7.205  17.480  17.371 -0.0585 -0.2939 -0.0026
61607DOD     C228641   6.737  17.437  17.596 -0.1808  0.3196 -0.3844
61607DOD     C328642   6.376  17.223  17.783  0.3089 -0.1175 -0.2032
61608DOD     C128643   4.408  18.005  23.368  0.2738 -0.2207 -0.2494
61608DOD     C228644   4.072  18.142  23.689 -0.2376  0.4041  0.0697
61608DOD     C328645   3.844  18.165  24.131 -0.2587  0.2870 -0.1295
61609DOD     C128646   7.631  11.096   9.536 -0.1495  0.0474 -0.4290
61609DOD     C228647   8.030  11.080   9.383  0.4580  0.0724 -0.3146
61609DOD     C328648   8.242  11.340   9.027  0.1882 -0.0849 -0.2833
61610DOD     C128649  10.247  25.523  29.639  0.0363 -0.0228 -0.1839
61610DOD     C228650   9.859  25.814  29.754  0.2106 -0.2087 -0.0383
61610DOD     C328651   9.756  26.244  29.980 -0.3209  0.0576 -0.1625
61611DOD     C128652  15.330   1.714  17.960  0.1880  0.0618  0.0733
61611DOD     C228653  15.248   2.035  18.379 -0.0541  0.1807  0.0008
61611DOD     C328654  15.298   2.155  18.830  0.1599  0.0785  0.0787
61612DOD     C128655  15.412  16.277  26.746  0.3759 -0.2909  0.0393
61612DOD     C228656  15.302  16.737  26.560 -0.1109 -0.0163  0.1625
61612DOD     C328657  15.294  17.174  26.423 -0.1972  0.0607  0.1074
61613DOD     C128658   8.678   0.807  25.904  0.3147 -0.1407  0.1692
61613DOD     C228659   8.458   0.639  25.528 -0.1811  0.1411  0.0769
61613DOD     C328660   8.163   0.483  25.180 -0.2378  0.1977 -0.0005
61614DOD     C128661  18.127  12.142   6.455 -0.0644 -0.0213  0.0566
61614DOD     C228662  18.096  11.884   6.060 -0.0323  0.0884  0.2070
61614DOD     C328663  17.996  11.726   5.658  0.1442  0.3130 -0.1351
61615DOD     C128664  13.718  17.787  10.995  0.0023 -0.0767  0.0847
61615DOD     C228665  13.628  18.004  11.367 -0.2670 -0.0677 -0.0560
61615DOD     C328666  13.421  18.074  11.783 -0.1916  0.0064 -0.0998
61616DOD     C128667  20.469  11.523   1.740  0.1430 -0.0177  0.0573
61616DOD     C228668  20.476  11.651   1.268  0.0422 -0.0692  0.2246
61616DOD     C328669  20.160  11.879   0.992  0.0129 -0.0766 -0.1357
61617DOD     C128670   0.915  13.133  12.005  0.0066 -0.0410  0.0244
61617DOD     C228671   0.854  12.637  12.132 -0.2103 -0.2262 -0.2069
61617DOD     C328672   0.714  12.355  11.831  0.1363 -0.1780 -0.0318
61618DOD     C128673   1.531  14.660  29.850 -0.2236 -0.2060 -0.1344
61618DOD     C228674   1.447  15.098  29.718  0.1157 -0.0172 -0.0376
61618DOD     C328675   1.291  15.498  29.600  0.3043  0.1466  0.1355
61619DOD     C128676  27.058  18.481  25.980  0.2938  0.0122 -0.1317
61619DOD     C228677  26.963  18.550  25.546 -0.0662  0.0253 -0.0599
61619DOD     C328678  27.037  18.562  25.104  0.0556 -0.1106 -0.0243
61620DOD     C128679   3.211  23.966   4.732  0.1695 -0.0172  0.1464
61620DOD     C228680   3.385  23.656   4.457 -0.0635  0.1366  0.0290
61620DOD     C328681   3.383  23.176   4.547  0.0114  0.0450  0.1160
61621DOD     C128682   4.809  25.511  13.682  0.2472  0.0489  0.3232
61621DOD     C228683   4.583  25.432  13.295  0.1924  0.2685 -0.1146
61621DOD     C328684   4.532  25.681  12.946  0.0254 -0.2825 -0.2202
61622DOD     C128685  13.567   4.657  25.638  0.2986  0.0637 -0.0896
61622DOD     C228686  13.213   4.509  25.907  0.2828  0.2488  0.1383
61622DOD     C328687  13.205   4.283  26.273 -0.0477  0.2803 -0.0541
61623DOD     C128688   6.622   4.745  11.333  0.0175 -0.1389  0.2826
61623DOD     C228689   6.129   4.772  11.193  0.1383  0.0155  0.0082
61623DOD     C328690   5.829   5.020  10.843 -0.0077  0.0085  0.0486
61624DOD     C128691  13.877  15.958  30.281 -0.0905 -0.0324  0.0224
61624DOD     C228692  13.679  15.478  30.094 -0.0288  0.2715 -0.0563
61624DOD     C328693  13.824  15.088  29.789 -0.0836 -0.0983 -0.1393
61625DOD     C128694  21.847  23.345  22.434 -0.4028  0.0197 -0.1062
61625DOD     C228695  21.507  23.309  22.741  0.1611 -0.3296 -0.1472
61625DOD     C328696  21.095  23.098  22.834  0.1443  0.1094  0.1624
61626DOD     C128697  14.639   8.941  14.311  0.1388  0.2092 -0.1258
61626DOD     C228698  14.641   9.363  14.492 -0.1480  0.3150  0.2938
61626DOD     C328699  14.678   9.634  14.863 -0.5428 -0.1580  0.3949
61627DOD     C128700  19.046   8.857  18.619 -0.3157  0.1336 -0.0040
61627DOD     C228701  19.464   8.866  18.352 -0.3242  0.2050 -0.1702
61627DOD     C328702  19.814   8.577  18.201 -0.1600  0.0278 -0.3729
61628DOD     C128703  14.566  12.885  16.341 -0.1130  0.3101  0.3864
61628DOD     C228704  14.177  12.641  16.239  0.3358 -0.1546 -0.0554
61628DOD     C328705  13.756  12.473  16.148 -0.0184  0.0200  0.3053
61629DOD     C128706   6.080  15.165  16.771 -0.2546 -0.3542  0.0983
61629DOD     C228707   6.322  15.271  16.392 -0.0479 -0.0866  0.0948
61629DOD     C328708   6.459  15.188  15.926 -0.2031 -0.0707 -0.0200
61630DOD     C128709  22.523  13.897  17.292 -0.0939 -0.0879 -0.0300
61630DOD     C228710  22.295  13.559  17.136  0.0862  0.3273 -0.0338
61630DOD     C328711  22.059  13.231  16.842  0.1587 -0.0061 -0.2973
61631DOD     C128712  26.463  20.359   9.885 -0.0511  0.0828  0.2270
61631DOD     C228713  26.392  20.779   9.695 -0.2657 -0.1901  0.0234
61631DOD     C328714  26.575  21.175   9.373  0.2010 -0.4791 -0.0638
61632DOD     C128715  21.981  19.949   8.549 -0.1704  0.0505  0.2380
61632DOD     C228716  21.640  20.227   8.609 -0.0913  0.0564  0.0021
61632DOD     C328717  21.668  20.696   8.723 -0.2591 -0.2757 -0.0090
61633DOD     C128718  13.707  23.397  30.108  0.1354  0.1865 -0.2772
61633DOD     C228719  13.913  22.963  30.109  0.0528  0.0271  0.0550
61633DOD     C328720  14.039  22.567  29.912  0.1063 -0.0034  0.2993
61634DOD     C128721   6.922   4.953   3.408 -0.2060  0.0624 -0.1782
61634DOD     C228722   6.792   5.065   3.839 -0.0581 -0.0708  0.1022
61634DOD     C328723   6.692   5.175   4.269  0.0889  0.0234 -0.0177
61635DOD     C128724  22.792  18.079  11.685  0.0574 -0.0135 -0.1498
61635DOD     C228725  22.806  17.656  11.925  0.2862 -0.1760 -0.0329
61635DOD     C328726  22.626  17.219  11.951 -0.1070 -0.1666  0.2498
61636DOD     C128727  27.628  10.671  23.369 -0.4997  0.0364  0.0365
61636DOD     C228728  27.532  11.020  23.670 -0.1690 -0.0837 -0.0833
61636DOD     C328729  27.644  11.485  23.687 -0.0618 -0.1123 -0.0764
61637DOD     C128730   3.060   7.739   4.213  0.0339  0.1811  0.1350
61637DOD     C228731   3.462   7.778   3.883  0.3707  0.2154 -0.1748
61637DOD     C328732   3.752   7.903   3.555 -0.0194  0.0679 -0.0263
61638DOD     C128733  18.436  18.073  28.110 -0.2812  0.2445 -0.2819
61638DOD     C228734  18.085  17.742  28.130  0.2811 -0.2049 -0.1466
61638DOD     C328735  17.656  17.602  28.056  0.1288 -0.0647 -0.2331
61639DOD     C128736   9.319  20.193   6.157 -0.0446 -0.3899  0.1148
61639DOD     C228737   9.659  20.219   5.843 -0.0607  0.1172  0.0851
61639DOD     C328738   9.609  20.072   5.395 -0.1150  0.1579  0.0828
61640DOD     C128739   5.097   1.404  28.734  0.0771 -0.1316 -0.0973
61640DOD     C228740   5.101   1.878  29.005 -0.2321 -0.1203  0.2533
61640DOD     C328741   5.018   2.243  29.236 -0.3025  0.0839 -0.2852
61641DOD     C128742  19.773  29.986  22.671  0.0608  0.0661  0.1974
61641DOD     C228743  19.864  30.287  22.292  0.0695 -0.1117 -0.0501
61641DOD     C328744  20.121   0.302  22.110  0.2205  0.1032 -0.4673
61642DOD     C128745   1.185  29.725  11.561 -0.1355  0.1282 -0.2315
61642DOD     C228746   1.453  30.064  11.344  0.3949  0.1496  0.4330
61642DOD     C328747   1.752   0.065  11.104 -0.1904 -0.0078 -0.3771
61643DOD     C128748  20.345  23.887  21.040 -0.2620 -0.1432 -0.0586
61643DOD     C228749  20.153  23.746  20.580  0.0195  0.1439 -0.0515
61643DOD     C328750  19.718  23.769  20.404  0.1768  0.0232  0.1150
61644DOD     C128751  25.282   0.201  27.657  0.1368  0.1642  0.0610
61644DOD     C228752  24.997  30.253  27.424 -0.1588  0.2304 -0.0599
61644DOD     C328753  24.584  30.175  27.264  0.4066 -0.1362 -0.1288
61645DOD     C128754   6.697  19.948   0.885 -0.0171 -0.2383 -0.2330
61645DOD     C228755   6.648  19.646   1.230  0.0857 -0.0422 -0.1182
61645DOD     C328756   6.356  19.638   1.646  0.0339 -0.2751 -0.0890
61646DOD     C128757   6.320  27.479  27.398  0.3000 -0.0408 -0.1433
61646DOD     C228758   6.186  27.059  27.340  0.1159  0.1530 -0.2299
61646DOD     C328759   5.839  26.822  27.562  0.0031 -0.2016 -0.1366
61647DOD     C128760   7.321   5.663  17.122  0.1254 -0.1184  0.0683
61647DOD     C228761   7.430   6.033  17.342 -0.2441 -0.0680  0.1883
61647DOD     C328762   7.675   6.202  17.722 -0.3348 -0.0496 -0.0225
61648DOD     C128763  11.763  14.034  18.442  0.0934 -0.0969 -0.1474
61648DOD     C228764  11.557  14.382  18.661 -0.4609 -0.1071  0.2916
61648DOD     C328765  11.317  14.805  18.647 -0.1129  0.0633 -0.2818
61649DOD     C128766  13.141  17.571   4.448 -0.1147  0.2547  0.0554
61649DOD     C228767  12.744  17.570   4.135  0.3304  0.0556  0.1344
61649DOD     C328768  12.497  17.515   3.729  0.1528  0.1674 -0.1688
61650DOD     C128769  21.980  27.144  24.497 -0.1006 -0.0176  0.0786
61650DOD     C228770  21.566  27.140  24.778 -0.5625  0.2265  0.2194
61650DOD     C328771  21.323  26.896  25.085  0.0677 -0.2584  0.0844
61651DOD     C128772  11.958   5.120  23.205 -0.0356 -0.4903  0.1611
61651DOD     C228773  12.269   4.985  23.554  0.0432 -0.2067  0.2228
61651DOD     C328774  12.514   4.608  23.712  0.0699  0.1325 -0.0308
61652DOD     C128775   6.925  25.047  15.666 -0.0055  0.0786  0.1013
61652DOD     C228776   7.070  25.242  15.225  0.1595 -0.0520 -0.0746
61652DOD     C328777   7.351  25.275  14.883 -0.0360  0.0342  0.2748
61653DOD     C128778   8.345  18.036   3.597 -0.1937 -0.1384 -0.1398
61653DOD     C228779   7.879  18.105   3.532  0.0097 -0.1098 -0.0675
61653DOD     C328780   7.591  18.003   3.194 -0.3407  0.5259 -0.3402
61654DOD     C128781   7.596   0.731  22.835 -0.1550  0.1189  0.3060
61654DOD     C228782   7.790   0.963  22.485 -0.0788 -0.0694 -0.3003
61654DOD     C328783   7.952   1.374  22.544 -0.0687 -0.2901 -0.2209
61655DOD     C128784   3.120  15.001   8.301  0.1751  0.0156  0.1159
61655DOD     C228785   3.185  15.410   8.523  0.2326 -0.1447  0.0801
61655DOD     C328786   2.839  15.712   8.685  0.2281  0.0512 -0.3349
61656DOD     C128787  17.676  18.222  21.517  0.1740 -0.3563  0.0405
61656DOD     C228788  17.684  17.836  21.201  0.3252  0.0072  0.3221
61656DOD     C328789  17.969  17.499  21.094  0.1209  0.0910 -0.2485
61657DOD     C128790  22.482  12.245  21.601 -0.1102  0.2589  0.0147
61657DOD     C228791  22.407  12.481  22.015 -0.3836 -0.0207  0.0452
61657DOD     C328792  22.278  12.773  22.341 -0.1484  0.0025  0.2900
61658DOD     C128793  16.092   3.874   9.491 -0.2486  0.2558  0.2571
61658DOD     C228794  15.947   3.921   9.070  0.0998 -0.0195 -0.4061
61658DOD     C328795  15.627   3.946   8.756 -0.1698  0.0098 -0.0323
61659DOD     C128796   8.780   2.712  26.356  0.1089  0.2707 -0.1419
61659DOD     C228797   8.623   2.739  26.814  0.1823 -0.1360 -0.0431
61659DOD     C328798   8.645   2.926  27.268  0.1354 -0.0448 -0.0449
61660DOD     C128799  25.759   6.854  30.216  0.4003 -0.1468 -0.1782
61660DOD     C228800  25.827   7.173   0.315 -0.0658 -0.2841 -0.0798
61660DOD     C328801  26.079   7.334   0.609 -0.1514 -0.0504  0.1321
61661DOD     C128802   1.847  15.885  29.843  0.0005 -0.1070 -0.0770
61661DOD     C228803   2.210  16.011  29.512  0.0926 -0.0887 -0.1056
61661DOD     C328804   2.632  15.991  29.257 -0.0662  0.1019 -0.1373
61662DOD     C128805   2.990  13.573  24.802  0.1390  0.3088  0.1461
61662DOD     C228806   3.418  13.452  24.765  0.2286  0.0677  0.3482
61662DOD     C328807   3.824  13.328  24.969  0.1437  0.2319 -0.3239
61663DOD     C128808  22.276   8.799  24.891 -0.0453 -0.3303  0.1202
61663DOD     C228809  22.624   8.557  24.708 -0.2352 -0.0735 -0.0354
61663DOD     C328810  22.922   8.436  24.307 -0.1451 -0.0790 -0.0101
61664DOD     C128811   6.405  12.945   2.335  0.0136 -0.0511  0.2925
61664DOD     C228812   6.807  12.797   2.245 -0.0110 -0.1846 -0.0110
61664DOD     C328813   7.005  12.397   1.978 -0.0595 -0.2132  0.2013
61665DOD     C128814  20.480   7.456   0.133 -0.0318 -0.1867 -0.1147
61665DOD     C228815  20.659   7.136  30.106 -0.0216  0.2711  0.1730
61665DOD     C328816  20.535   6.838  29.719  0.2892  0.1728 -0.3252
61666DOD     C128817   5.662   6.141  26.652 -0.0580 -0.2503  0.0452
61666DOD     C228818   5.938   5.925  26.943  0.0685  0.2178  0.1698
61666DOD     C328819   6.076   5.648  27.276 -0.1420  0.1714 -0.0368
61667DOD     C128820  23.329  12.738   1.156  0.2307  0.1988 -0.0601
61667DOD     C228821  23.197  13.016   1.480  0.1295 -0.3200 -0.0441
61667DOD     C328822  22.853  13.296   1.501  0.0143 -0.0967 -0.4422
61668DOD     C128823  26.585  11.885   9.198 -0.1312  0.0648 -0.0247
61668DOD     C228824  26.506  11.590   9.546  0.0066 -0.1167  0.3606
61668DOD     C328825  26.780  11.253   9.772 -0.1396 -0.0163  0.2684
61669DOD     C128826   9.533  27.035  29.975  0.0115  0.1277  0.2352
61669DOD     C228827   9.800  27.329  30.125  0.0530  0.0796  0.2675
61669DOD     C328828  10.132  27.300   0.129  0.0007 -0.0171  0.1563
61670DOD     C128829  29.588  22.501  18.340 -0.1393  0.0230 -0.0429
61670DOD     C228830  29.963  22.686  18.179  0.1790 -0.4148  0.0818
61670DOD     C328831  30.145  22.931  17.820  0.2074  0.3947 -0.1504
61671DOD     C128832  15.729  26.904  16.505 -0.5772  0.3383  0.1231
61671DOD     C228833  15.996  26.480  16.482 -0.0746 -0.0569 -0.1042
61671DOD     C328834  15.878  26.086  16.735 -0.1583  0.0401 -0.1009
61672DOD     C128835  24.401   7.949  12.681 -0.0606  0.1236  0.0797
61672DOD     C228836  24.017   7.857  12.409 -0.2660 -0.2619  0.0219
61672DOD     C328837  23.824   7.611  11.989  0.2263  0.0234  0.0916
61673DOD     C128838  22.222  14.506  15.291  0.0060  0.0968 -0.0461
61673DOD     C228839  22.558  14.366  15.544  0.1069 -0.1877 -0.2321
61673DOD     C328840  22.853  14.020  15.522 -0.0033  0.1091  0.2499
61674DOD     C128841  20.073   5.778  12.148 -0.2509 -0.1920  0.2426
61674DOD     C228842  20.210   5.437  11.846  0.0582  0.1684  0.3408
61674DOD     C328843  20.436   4.996  11.930 -0.2345 -0.1436 -0.0231
61675DOD     C128844  27.332  17.550  27.124 -0.2538  0.1386  0.3068
61675DOD     C228845  27.758  17.738  27.152  0.1245  0.0781 -0.1341
61675DOD     C328846  28.045  17.863  27.509  0.1013 -0.0065 -0.2007
61676DOD     C128847  27.652   6.906  29.167 -0.1506  0.1814  0.2869
61676DOD     C228848  27.599   7.374  28.985  0.1014 -0.1392  0.2891
61676DOD     C328849  27.905   7.578  28.678 -0.0555 -0.2474  0.0549
61677DOD     C128850   3.513  15.112  10.897  0.0709 -0.1124  0.0918
61677DOD     C228851   3.068  15.346  11.044 -0.1729  0.0434 -0.2586
61677DOD     C328852   2.679  15.502  11.149 -0.0133 -0.0805 -0.0943
61678DOD     C128853   6.228   1.420  25.721 -0.1897  0.0068  0.0186
61678DOD     C228854   6.260   1.266  25.289  0.0114  0.0580  0.1564
61678DOD     C328855   6.499   1.211  24.871  0.1429 -0.3286  0.1723
61679DOD     C128856  23.877  19.909  18.789 -0.2258 -0.0455 -0.1116
61679DOD     C228857  23.755  19.740  19.248  0.0181 -0.2177 -0.1602
61679DOD     C328858  23.735  19.373  19.479  0.2063  0.2649 -0.4809
61680DOD     C128859   9.040  19.370  22.232  0.4051  0.0434 -0.0945
61680DOD     C228860   9.270  19.601  21.916 -0.0221 -0.2142 -0.0101
61680DOD     C328861   9.582  19.774  21.694 -0.0385  0.2060  0.0945
61681DOD     C128862   7.776  26.276  18.681 -0.1820 -0.2242 -0.0479
61681DOD     C228863   7.796  26.226  18.206  0.1196  0.1447 -0.0438
61681DOD     C328864   7.739  26.074  17.771 -0.1288 -0.0086  0.1009
61682DOD     C128865   4.140  20.199  15.293 -0.0565  0.1638  0.0625
61682DOD     C228866   3.992  20.631  15.063 -0.1786 -0.0112  0.0510
61682DOD     C328867   3.780  21.065  15.098 -0.2412  0.2364  0.5007
61683DOD     C128868  11.570  17.166  18.518 -0.0355 -0.1149 -0.4135
61683DOD     C228869  12.010  16.987  18.373  0.1304 -0.2675  0.3197
61683DOD     C328870  12.352  17.081  18.116 -0.2527 -0.1077 -0.2098
61684DOD     C128871  28.868   8.136  28.823 -0.0406  0.2259  0.2317
61684DOD     C228872  28.668   8.537  28.969  0.1278  0.1073  0.2833
61684DOD     C328873  28.245   8.641  28.971  0.3188  0.0846  0.4177
61685DOD     C128874  13.658   9.785  26.766 -0.0023  0.0310  0.0022
61685DOD     C228875  13.243   9.826  26.704 -0.1773 -0.0180  0.0495
61685DOD     C328876  12.992  10.168  26.623  0.3089 -0.4259  0.1298
61686DOD     C128877   7.469   6.324  26.203 -0.0041 -0.0832  0.0122
61686DOD     C228878   7.682   5.909  26.257  0.0342 -0.3956  0.0056
61686DOD     C328879   7.751   5.462  26.411 -0.1943  0.0095  0.2491
61687DOD     C128880   1.613  29.681  22.091  0.0030  0.1398 -0.1334
61687DOD     C228881   1.814  29.938  22.457  0.3403  0.1813 -0.0315
61687DOD     C328882   2.107  30.023  22.802 -0.0268  0.2957 -0.0716
61688DOD     C128883  21.068  23.824   1.115  0.1259  0.2125 -0.0860
61688DOD     C228884  21.023  23.463   1.443 -0.0990 -0.2957 -0.0030
61688DOD     C328885  21.191  23.337   1.855 -0.1011  0.0228  0.2504
61689DOD     C128886   0.537   2.343   6.170  0.0341 -0.0496 -0.1032
61689DOD     C228887   0.549   1.898   6.189  0.0560 -0.1299  0.0390
61689DOD     C328888   0.285   1.500   6.294 -0.1457 -0.3167 -0.0332
61690DOD     C128889  20.393  26.577  16.374 -0.0951  0.3975  0.0927
61690DOD     C228890  20.770  26.775  16.633  0.3069 -0.0827 -0.1154
61690DOD     C328891  21.156  26.934  16.841  0.1085 -0.0047 -0.2145
61691DOD     C128892  15.769  28.804   6.946  0.2948 -0.1071  0.1016
61691DOD     C228893  15.528  28.957   7.298  0.0918 -0.1451  0.5477
61691DOD     C328894  15.439  29.344   7.541 -0.0696 -0.0908 -0.4639
61692DOD     C128895  16.591  29.877  17.687  0.3682  0.1294  0.0165
61692DOD     C228896  16.326  29.562  17.488  0.3576 -0.0357 -0.1217
61692DOD     C328897  15.919  29.337  17.347 -0.1273 -0.0324  0.1363
61693DOD     C128898  16.085  23.887   8.113 -0.2615  0.1441  0.2331
61693DOD     C228899  16.345  23.586   8.241  0.0476 -0.0156 -0.0193
61693DOD     C328900  16.559  23.157   8.085 -0.1371 -0.0776 -0.1215
61694DOD     C128901   7.196  10.309  26.143  0.0553  0.0149 -0.2538
61694DOD     C228902   7.128  10.461  26.556 -0.0474 -0.0411  0.2712
61694DOD     C328903   6.869  10.450  26.954 -0.1128 -0.0639 -0.1702
61695DOD     C128904  22.578  25.462  18.609 -0.0075 -0.0035  0.1011
61695DOD     C228905  22.282  25.264  18.926  0.0354  0.2349  0.1376
61695DOD     C328906  22.259  24.889  19.246 -0.0166 -0.1172 -0.0370
61696DOD     C128907  11.866  22.260  24.013 -0.1124  0.0565  0.0357
61696DOD     C228908  11.637  22.110  24.329  0.2085  0.0415 -0.1850
61696DOD     C328909  11.466  22.173  24.769  0.0641 -0.2464  0.0606
61697DOD     C128910   7.917   9.142   6.692 -0.1889 -0.3181  0.4054
61697DOD     C228911   8.171   9.494   6.790 -0.2288  0.0384 -0.0460
61697DOD     C328912   8.257   9.810   7.084 -0.0209 -0.2776 -0.1142
61698DOD     C128913   8.994   7.390   1.299  0.0536  0.3078 -0.0047
61698DOD     C228914   8.573   7.398   1.553  0.0342 -0.1274 -0.0349
61698DOD     C328915   8.574   7.371   2.028  0.0351 -0.0855  0.1099
61699DOD     C128916  23.979  12.214  14.234  0.0557 -0.0848  0.3632
61699DOD     C228917  24.433  12.073  14.177 -0.1136  0.0565  0.1296
61699DOD     C328918  24.768  11.960  13.883 -0.1855 -0.0808  0.4585
61700DOD     C128919   9.211  13.415  18.199 -0.3429 -0.0397 -0.0047
61700DOD     C228920   8.801  13.289  18.155  0.0386 -0.1300 -0.1635
61700DOD     C328921   8.395  13.017  18.079  0.0248 -0.1561  0.1308
61701DOD     C128922   3.157  19.961  13.016  0.0073 -0.0183 -0.1188
61701DOD     C228923   2.757  19.786  13.067  0.0344  0.1655  0.2785
61701DOD     C328924   2.412  19.531  12.935  0.1024 -0.2586 -0.1832
61702DOD     C128925  12.650  22.792  26.474  0.0359  0.0389  0.3919
61702DOD     C228926  12.260  23.018  26.363  0.1923 -0.0070 -0.0450
61702DOD     C328927  11.876  23.205  26.277  0.1449  0.0131  0.1247
61703DOD     C128928   0.174  29.699  28.394  0.2297 -0.0377 -0.0290
61703DOD     C228929   0.202  29.511  28.006 -0.1624 -0.1330 -0.0532
61703DOD     C328930   0.030  29.443  27.621 -0.1418  0.1465  0.0853
61704DOD     C128931  20.916   9.118  30.290 -0.0252 -0.0082 -0.0112
61704DOD     C228932  20.617   8.839  30.115  0.0519  0.0377 -0.2058
61704DOD     C328933  20.374   8.527  30.271  0.2894 -0.1217  0.6108
61705DOD     C128934  29.269  15.689  17.097  0.0886 -0.2795  0.0544
61705DOD     C228935  28.896  15.959  17.164 -0.3500  0.1306 -0.1891
61705DOD     C328936  28.738  16.403  17.288  0.1683  0.1592  0.1150
61706DOD     C128937  23.379  22.229  11.904  0.0150 -0.0661  0.2089
61706DOD     C228938  23.193  21.964  11.561  0.1499 -0.0859  0.0674
61706DOD     C328939  23.097  21.626  11.263 -0.0259 -0.0698  0.2008
61707DOD     C128940   1.688   3.028  29.176  0.0052 -0.0828 -0.0946
61707DOD     C228941   1.812   2.642  29.053 -0.1284  0.2829 -0.3423
61707DOD     C328942   1.665   2.179  29.016 -0.0855  0.0713  0.1017
61708DOD     C128943   7.147  25.031  26.657 -0.3201 -0.1598  0.1027
61708DOD     C228944   7.457  24.698  26.747 -0.2113 -0.0271  0.4126
61708DOD     C328945   7.677  24.442  27.068  0.0779 -0.0359 -0.0445
61709DOD     C128946   5.634  23.062  25.974  0.0322  0.1545 -0.0440
61709DOD     C228947   5.985  22.738  25.801 -0.1429 -0.1253 -0.0197
61709DOD     C328948   6.372  22.429  25.801 -0.0443  0.0953  0.0693
61710DOD     C128949  13.751  18.909  13.141 -0.3592 -0.0411  0.4997
61710DOD     C228950  13.890  18.703  13.516  0.2355 -0.0524 -0.2229
61710DOD     C328951  13.791  18.830  13.915  0.3132  0.1543 -0.1930
61711DOD     C128952   2.071  28.404  15.908  0.0819  0.0641  0.1741
61711DOD     C228953   1.604  28.374  15.870  0.1742 -0.0395  0.1053
61711DOD     C328954   1.185  28.492  15.727  0.2302  0.2039 -0.0619
61712DOD     C128955  14.113  14.139   0.108 -0.0713 -0.2348  0.0809
61712DOD     C228956  14.048  14.300   0.514  0.2619 -0.1774  0.1249
61712DOD     C328957  14.014  14.353   0.988  0.0647  0.2493  0.0801
61713DOD     C128958  29.026  24.959  22.762  0.1589  0.2696  0.0773
61713DOD     C228959  29.446  24.751  22.860  0.1266  0.1263  0.0359
61713DOD     C328960  29.654  24.495  23.181 -0.0077  0.0400  0.1483
61714DOD     C128961  26.362  26.156  23.868 -0.1126 -0.2452  0.1654
61714DOD     C228962  26.322  26.586  24.032 -0.0696 -0.1428  0.1019
61714DOD     C328963  26.016  26.893  24.193 -0.0677  0.0259 -0.0176
61715DOD     C128964  18.270   9.290   1.270 -0.2322  0.0097 -0.2398
61715DOD     C228965  18.472   9.301   0.838 -0.1280  0.0630  0.0555
61715DOD     C328966  18.702   9.047   0.474  0.0824  0.2341 -0.0268
61716DOD     C128967   4.180  16.808   5.017 -0.4909 -0.1584 -0.1227
61716DOD     C228968   4.315  16.980   5.425 -0.1945 -0.0411 -0.0368
61716DOD     C328969   4.514  16.980   5.832  0.0023 -0.0347 -0.1481
61717DOD     C128970  23.430   6.883   2.795 -0.0671 -0.0382 -0.1579
61717DOD     C228971  23.333   7.117   2.399  0.1061  0.2398 -0.0229
61717DOD     C328972  23.044   7.246   2.069  0.6078 -0.2488  0.2616
61718DOD     C128973   2.659  17.908  22.126  0.1658  0.1528  0.1623
61718DOD     C228974   2.216  17.914  21.957  0.2329  0.0640  0.0344
61718DOD     C328975   1.832  17.928  21.643 -0.1358  0.3756 -0.1501
61719DOD     C128976   1.001  15.703  20.328 -0.0134  0.2081 -0.1238
61719DOD     C228977   1.409  15.891  20.366 -0.2269 -0.1492  0.0502
61719DOD     C328978   1.859  15.931  20.537  0.1085 -0.0292 -0.3592
61720DOD     C128979   2.888  14.459  13.084 -0.0683 -0.1389 -0.1133
61720DOD     C228980   2.741  14.537  13.537 -0.2285 -0.0612 -0.0692
61720DOD     C328981   2.632  14.237  13.930 -0.0845  0.0871  0.2644
61721DOD     C128982   8.586  22.466  26.263  0.0120  0.0583  0.0236
61721DOD     C228983   8.154  22.501  26.435  0.0012 -0.0811 -0.3045
61721DOD     C328984   8.000  22.937  26.512 -0.0682 -0.1424 -0.1613
61722DOD     C128985  12.927  10.589  24.300 -0.2749 -0.1951 -0.0759
61722DOD     C228986  12.476  10.507  24.283 -0.4727 -0.0420  0.4494
61722DOD     C328987  12.161  10.368  24.578  0.0630  0.1647 -0.0669
61723DOD     C128988   6.376  26.129  22.914 -0.0168  0.0231  0.0270
61723DOD     C228989   6.530  26.549  22.964 -0.0063  0.2729  0.1568
61723DOD     C328990   6.857  26.956  22.834 -0.0000 -0.3296  0.2498
61724DOD     C128991  10.463  10.374  20.497  0.0829  0.1781 -0.1897
61724DOD     C228992  10.029  10.454  20.790 -0.2897 -0.0398 -0.1654
61724DOD     C328993   9.866  10.781  21.169  0.3409 -0.1377 -0.0632
61725DOD     C128994   2.462  20.013  17.917 -0.2141 -0.1310 -0.0182
61725DOD     C228995   2.439  20.237  17.519 -0.0516 -0.0569 -0.2433
61725DOD     C328996   2.656  20.649  17.378  0.0547 -0.1365 -0.1011
61726DOD     C128997  13.201  26.631  26.755 -0.1378 -0.0863  0.1496
61726DOD     C228998  13.180  26.544  27.244 -0.1608  0.1938  0.1041
61726DOD     C328999  13.270  26.344  27.635  0.0883  0.0132 -0.0892
61727DOD     C129000  17.737   4.494   8.463  0.0822 -0.1341 -0.1715
61727DOD     C229001  17.874   4.181   8.148 -0.1573  0.3088 -0.0599
61727DOD     C329002  17.992   3.782   7.904  0.2403  0.2120  0.0302
61728DOD     C129003  24.003  20.232  11.293  0.0310 -0.1202  0.1610
61728DOD     C229004  23.842  20.301  11.725  0.2189  0.0937 -0.0133
61728DOD     C329005  23.803  20.022  12.069  0.1078 -0.1518  0.1813
61729DOD     C129006  16.822  19.525  24.778 -0.0890 -0.0511  0.0520
61729DOD     C229007  16.513  19.854  24.682 -0.3862  0.1292 -0.1612
61729DOD     C329008  16.119  20.098  24.855  0.1259 -0.0174  0.1983
61730DOD     C129009   3.222  24.493  14.640  0.3231 -0.2089  0.2315
61730DOD     C229010   3.071  24.172  14.344  0.0230 -0.2335 -0.1773
61730DOD     C329011   2.877  23.698  14.424 -0.1138  0.1199  0.1161
61731DOD     C129012   2.044   3.776  19.788 -0.0287  0.0554  0.1116
61731DOD     C229013   2.305   3.464  20.006  0.0650  0.0708  0.0100
61731DOD     C329014   2.401   3.218  20.411 -0.0114  0.1551  0.1986
61732DOD     C129015  29.192  15.966  20.175  0.3434 -0.3874 -0.1963
61732DOD     C229016  28.898  15.709  20.033  0.0366 -0.0740 -0.0159
61732DOD     C329017  28.650  15.275  19.992 -0.2364  0.4562  0.0756
61733DOD     C129018   2.551   3.951  19.961  0.0574  0.0841 -0.0190
61733DOD     C229019   2.852   3.658  20.083  0.2894 -0.2509  0.0404
61733DOD     C329020   3.217   3.517  20.257 -0.2623 -0.1357  0.2085
61734DOD     C129021  28.564   9.737  25.116  0.0651  0.2725 -0.0191
61734DOD     C229022  28.323   9.399  25.101  0.1696  0.0574 -0.1732
61734DOD     C329023  28.049   9.186  25.379 -0.1250  0.1390  0.3616
61735DOD     C129024   5.547   8.611  25.095  0.1210  0.0824 -0.1593
61735DOD     C229025   5.363   8.668  24.716 -0.1823  0.0951  0.0874
61735DOD     C329026   5.196   8.541  24.258  0.0095 -0.5436  0.1369
61736DOD     C129027  21.393  19.245  28.785 -0.0945 -0.0791 -0.3456
61736DOD     C229028  21.781  19.132  28.901 -0.2465 -0.0645 -0.0202
61736DOD     C329029  22.183  18.957  29.118 -0.1893 -0.1204  0.3078
61737DOD     C129030   4.886  24.686  29.782  0.2234  0.0398  0.0725
61737DOD     C229031   5.216  24.829  30.129 -0.2145 -0.0872 -0.0971
61737DOD     C329032   5.598  24.984  30.211 -0.2858 -0.0151  0.1485
61738DOD     C129033  28.302  24.995  11.217 -0.0375  0.2312 -0.1010
61738DOD     C229034  28.289  24.513  11.297  0.6159 -0.0719  0.0724
61738DOD     C329035  28.445  24.094  11.161  0.2210  0.1052  0.0563
61739DOD     C129036  11.455   6.031  15.894  0.0467  0.1445 -0.0011
61739DOD     C229037  11.496   5.796  15.526  0.0647  0.0160 -0.1348
61739DOD     C329038  11.452   5.343  15.526 -0.3543  0.3539  0.0086
61740DOD     C129039  15.047   7.694  15.909 -0.1732  0.1236 -0.0616
61740DOD     C229040  15.318   7.931  15.667  0.1551  0.0364 -0.0072
61740DOD     C329041  15.438   7.676  15.278 -0.5891 -0.1699 -0.0266
61741DOD     C129042  24.598   0.535  10.278  0.0704  0.3731  0.1279
61741DOD     C229043  24.392   0.542  10.668 -0.0681 -0.2420  0.2438
61741DOD     C329044  24.336   0.587  11.094 -0.0089 -0.3577  0.0363
61742DOD     C129045   0.823   2.231   7.363 -0.2720  0.1732  0.1117
61742DOD     C229046   0.754   2.618   7.141 -0.1898  0.0511 -0.0968
61742DOD     C329047   0.988   2.961   6.818 -0.1687 -0.2426 -0.2688
61743DOD     C129048  21.934  29.082   9.725  0.1232  0.0204 -0.2599
61743DOD     C229049  22.032  28.996  10.170  0.1065 -0.0510  0.0523
61743DOD     C329050  21.927  28.760  10.505 -0.3625  0.0242 -0.0643
61744DOD     C129051  11.587  16.995   7.428 -0.3056 -0.0877  0.0860
61744DOD     C229052  11.648  16.782   7.805 -0.0809 -0.1539  0.0371
61744DOD     C329053  11.476  16.619   8.196 -0.1394  0.0920 -0.0098
61745DOD     C129054   7.565   8.693  22.247  0.1853 -0.1515  0.1767
61745DOD     C229055   7.127   8.847  22.243 -0.0074 -0.1347 -0.0504
61745DOD     C329056   6.833   8.783  22.599  0.3059 -0.0448 -0.0558
61746DOD     C129057   3.498  17.671  26.632  0.0043 -0.2909  0.0666
61746DOD     C229058   3.289  17.960  26.290 -0.0654  0.0506  0.0366
61746DOD     C329059   3.174  18.361  26.097  0.1217  0.1440 -0.0525
61747DOD     C129060  10.540   4.672   1.908 -0.0056 -0.0113  0.0132
61747DOD     C229061  10.207   4.774   2.289  0.1545 -0.3363 -0.0813
61747DOD     C329062   9.905   5.116   2.350 -0.2622  0.0099  0.1857
61748DOD     C129063  25.204  25.812  15.398  0.0376 -0.0529  0.0056
61748DOD     C229064  25.141  25.981  15.011  0.0052  0.2959  0.0460
61748DOD     C329065  24.896  26.275  14.735 -0.0141  0.0244 -0.0855
61749DOD     C129066   8.826  25.179  22.615  0.0682  0.1504  0.3203
61749DOD     C229067   9.048  25.547  22.395  0.0876 -0.0921  0.1699
61749DOD     C329068   9.430  25.617  22.159  0.0283 -0.4323  0.0426
61750DOD     C129069  11.318  28.051  19.185 -0.1374  0.0539  0.3213
61750DOD     C229070  11.288  28.515  19.322  0.0274 -0.0066 -0.2021
61750DOD     C329071  10.972  28.767  19.527 -0.3538 -0.0562  0.0857
61751DOD     C129072   4.185   6.447  27.428 -0.2459 -0.0110  0.3298
61751DOD     C229073   4.421   6.539  27.866  0.3323  0.1615  0.1336
61751DOD     C329074   4.461   6.840  28.201  0.0043  0.1026 -0.0392
61752DOD     C129075   7.532  16.707   5.308  0.0029  0.2035 -0.1810
61752DOD     C229076   7.907  16.594   5.045 -0.0259  0.1173  0.0938
61752DOD     C329077   7.965  16.230   4.732  0.3201 -0.0518 -0.0418
61753DOD     C129078   2.443   0.649   6.706 -0.3581 -0.2297 -0.0734
61753DOD     C229079   2.433   0.777   6.255  0.1359 -0.0950 -0.1164
61753DOD     C329080   2.314   0.538   5.885  0.0567  0.2543 -0.2129
61754DOD     C129081  26.635  19.309   8.885 -0.1975 -0.2568  0.0895
61754DOD     C229082  26.956  18.982   8.937  0.0917 -0.0170  0.0681
61754DOD     C329083  27.346  18.697   8.851  0.3920  0.1268 -0.1833
61755DOD     C129084  10.930   5.977  13.610 -0.1649 -0.0876  0.1639
61755DOD     C229085  11.234   6.344  13.585  0.1764 -0.4943  0.1553
61755DOD     C329086  11.700   6.386  13.462  0.1039  0.0907 -0.1972
61756DOD     C129087  12.229   1.791  13.398  0.2362  0.0483  0.2677
61756DOD     C229088  12.153   2.045  13.817 -0.1708  0.0928  0.2308
61756DOD     C329089  11.763   2.414  13.798  0.0082 -0.0218  0.1879
61757DOD     C129090  24.301  23.392  23.500  0.1577 -0.3334 -0.3000
61757DOD     C229091  24.129  23.263  23.087  0.3160 -0.1572  0.0357
61757DOD     C329092  23.897  23.143  22.736  0.0556 -0.0418 -0.0477
61758DOD     C129093   1.473  25.279  19.938  0.0164 -0.1746  0.1940
61758DOD     C229094   1.338  24.873  19.888 -0.0466  0.1726 -0.1548
61758DOD     C329095   1.456  24.486  20.042 -0.0096 -0.1786 -0.0214
61759DOD     C129096  21.671  16.165  11.838  0.0471  0.0401 -0.0387
61759DOD     C229097  22.063  15.897  11.796 -0.1250  0.0889 -0.0261
61759DOD     C329098  22.515  15.719  11.937 -0.0321  0.1687  0.1975
61760DOD     C129099   0.676  18.035  20.749 -0.0633 -0.2574 -0.2759
61760DOD     C229100   0.498  17.682  20.958  0.1210 -0.0334  0.0244
61760DOD     C329101   0.321  17.257  21.007  0.4136 -0.1482  0.1336
61761DOD     C129102  20.811  10.073   1.475  0.1266  0.0673 -0.0689
61761DOD     C229103  20.908   9.953   1.877  0.0030 -0.0654  0.1000
61761DOD     C329104  21.145  10.269   2.158  0.0935  0.0561 -0.1771
61762DOD     C129105  21.485   0.888  11.389  0.1966  0.0614  0.0247
61762DOD     C229106  21.820   1.010  11.719  0.3126 -0.1074 -0.2067
61762DOD     C329107  22.236   0.968  11.891 -0.0456  0.2092 -0.0982
61763DOD     C129108   8.208   4.085  14.597  0.0081 -0.0175 -0.1467
61763DOD     C229109   8.143   3.873  14.937  0.3990  0.1020 -0.0711
61763DOD     C329110   8.306   3.470  15.148  0.0744 -0.0427  0.0327
61764DOD     C129111   5.295  28.296  18.719  0.0363  0.2359 -0.2143
61764DOD     C229112   5.228  27.991  18.371 -0.1477 -0.3815  0.2360
61764DOD     C329113   5.124  27.757  17.930 -0.0105 -0.0096 -0.0177
61765DOD     C129114   4.328   1.559  11.294  0.1440 -0.2855 -0.1591
61765DOD     C229115   3.910   1.444  11.195 -0.3253 -0.0865 -0.0366
61765DOD     C329116   3.656   1.665  11.528  0.1368  0.0437 -0.0020
61766DOD     C129117   5.532   6.704  22.642 -0.1064  0.0850  0.1033
61766DOD     C229118   5.185   6.451  22.480 -0.1725  0.0297  0.0335
61766DOD     C329119   4.739   6.415  22.409 -0.0823  0.0173 -0.0688
61767DOD     C129120  13.624  29.898  20.415 -0.0417  0.0961 -0.1276
61767DOD     C229121  13.964  29.665  20.371 -0.0022 -0.1340  0.1140
61767DOD     C329122  13.956  29.385  20.003  0.0896  0.0860  0.0955
61768DOD     C129123   0.283  18.535   6.913 -0.0503 -0.0924  0.2544
61768DOD     C229124  30.235  18.621   6.562  0.3088 -0.2499  0.2007
61768DOD     C329125  30.214  18.946   6.208  0.0408 -0.1449 -0.0327
61769DOD     C129126  19.888  12.502  16.158 -0.5351  0.3318 -0.1487
61769DOD     C229127  19.530  12.299  15.896  0.2314 -0.3581 -0.0094
61769DOD     C329128  19.243  12.447  15.554  0.0059  0.1163 -0.1004
61770DOD     C129129  13.058  13.338  23.807 -0.0750  0.0192 -0.3584
61770DOD     C229130  13.491  13.586  23.890 -0.2927 -0.1000 -0.1456
61770DOD     C329131  13.606  13.875  24.285  0.1501  0.0753 -0.3330
61771DOD     C129132  29.080   4.463  29.033 -0.1535 -0.1428  0.0163
61771DOD     C229133  29.508   4.320  28.861 -0.0824  0.1229 -0.0394
61771DOD     C329134  29.712   4.291  28.415 -0.3189 -0.2243 -0.2149
61772DOD     C129135   5.059  25.647   5.588  0.0240  0.2276 -0.0278
61772DOD     C229136   5.314  26.078   5.640 -0.2377  0.0134  0.0001
61772DOD     C329137   5.724  26.286   5.563 -0.1981  0.1581 -0.2384
61773DOD     C129138  13.962   9.306   9.749 -0.0839  0.1400  0.3193
61773DOD     C229139  14.376   9.266   9.489  0.0431  0.0865 -0.1303
61773DOD     C329140  14.800   9.398   9.432 -0.0298 -0.1769 -0.5637
61774DOD     C129141  27.215  29.405   6.165 -0.1683  0.0233  0.1841
61774DOD     C229142  27.120  28.927   6.217  0.3077  0.0523  0.1393
61774DOD     C329143  27.185  28.483   6.224  0.0960 -0.2763 -0.1387
61775DOD     C129144  22.459  22.921  23.672 -0.0137 -0.0738  0.0862
61775DOD     C229145  22.274  23.362  23.511  0.0626 -0.1102  0.1171
61775DOD     C329146  21.931  23.628  23.616  0.2060 -0.4003 -0.1412
61776DOD     C129147  30.265   2.733  17.376 -0.3169  0.1235  0.0019
61776DOD     C229148   0.370   2.873  17.529 -0.0379 -0.1053 -0.3809
61776DOD     C329149   0.789   3.095  17.557  0.2671 -0.2460 -0.2047
61777DOD     C129150  26.472   7.768   5.556  0.2272 -0.0173  0.0331
61777DOD     C229151  26.869   7.822   5.438  0.2552 -0.0362  0.1353
61777DOD     C329152  27.114   7.851   5.049  0.0317 -0.0064 -0.0187
61778DOD     C129153   3.974  27.789   3.211 -0.0373 -0.2593 -0.0498
61778DOD     C229154   3.462  27.826   3.194 -0.1752  0.3193  0.3919
61778DOD     C329155   3.214  28.129   2.921  0.1932 -0.0837  0.3068
61779DOD     C129156  15.065  26.890  15.537 -0.2425  0.0739  0.2329
61779DOD     C229157  15.388  26.588  15.694 -0.2176 -0.7026  0.4076
61779DOD     C329158  15.770  26.366  15.588  0.1296  0.1318  0.0475
61780DOD     C129159  10.129  10.192   4.890 -0.1762 -0.0240  0.0564
61780DOD     C229160  10.242  10.281   4.461  0.0837 -0.0226  0.1363
61780DOD     C329161  10.175   9.978   4.153 -0.1206  0.1049 -0.4161
61781DOD     C129162  18.239  14.753  22.932 -0.0115  0.0516  0.0911
61781DOD     C229163  18.369  14.461  23.282 -0.1002  0.1099  0.2901
61781DOD     C329164  18.371  14.250  23.646  0.1013 -0.0101  0.1150
61782DOD     C129165  13.146   0.603   0.839  0.0984 -0.2451 -0.1318
61782DOD     C229166  12.670   0.460   0.850 -0.1686  0.0929  0.3122
61782DOD     C329167  12.212   0.413   0.820 -0.0999 -0.0153  0.1614
61783DOD     C129168   3.067   9.939  22.637  0.0613 -0.1036  0.1277
61783DOD     C229169   2.811   9.936  22.220  0.0002 -0.0725 -0.3341
61783DOD     C329170   2.618  10.195  21.880 -0.2902 -0.0124  0.2304
61784DOD     C129171  29.546   3.691  20.777 -0.1365 -0.2705 -0.0452
61784DOD     C229172  29.709   3.853  20.409  0.4875 -0.0777  0.1736
61784DOD     C329173  29.583   4.149  19.993  0.0602  0.2598 -0.3493
61785DOD     C129174  22.670  11.477   9.143 -0.0198 -0.1880  0.0707
61785DOD     C229175  23.001  11.616   8.828  0.0397  0.0236  0.0340
61785DOD     C329176  23.388  11.510   8.465  0.1078  0.3358  0.1522
61786DOD     C129177  22.266  21.565  27.536  0.1928  0.0171  0.0309
61786DOD     C229178  22.572  21.380  27.240 -0.2210 -0.0120 -0.2739
61786DOD     C329179  22.924  21.090  27.014  0.0911  0.0381 -0.5450
61787DOD     C129180  10.270  11.082  21.161 -0.1346 -0.2081  0.0841
61787DOD     C229181  10.587  11.256  20.902 -0.2010  0.0656 -0.1982
61787DOD     C329182  10.655  11.237  20.473 -0.2603 -0.0826  0.3605
61788DOD     C129183  20.691   2.673  16.642 -0.2036 -0.1264 -0.0165
61788DOD     C229184  20.848   2.275  16.694  0.2793 -0.0293 -0.0580
61788DOD     C329185  21.227   2.073  16.856  0.0244 -0.0199  0.1662
61789DOD     C129186  22.699  26.054  27.637  0.0673  0.0931 -0.1872
61789DOD     C229187  22.942  26.424  27.643  0.4363 -0.4437 -0.0948
61789DOD     C329188  23.322  26.548  27.736 -0.5027  0.0159 -0.2331
61790DOD     C129189  25.295  19.834   9.927 -0.6137  0.0640  0.0610
61790DOD     C229190  25.462  20.221  10.150 -0.0615  0.0324 -0.0672
61790DOD     C329191  25.722  20.549  10.142 -0.0207  0.0216  0.0443
61791DOD     C129192  18.760   5.242   6.123 -0.2584  0.0411 -0.1533
61791DOD     C229193  18.884   4.921   6.463  0.1271 -0.0665 -0.3866
61791DOD     C329194  19.101   4.553   6.675 -0.5475 -0.3135 -0.0282
61792DOD     C129195  18.818   7.009  24.030 -0.1634  0.0495  0.3625
61792DOD     C229196  18.478   7.099  23.754  0.2291 -0.1722  0.0679
61792DOD     C329197  18.023   7.236  23.773 -0.1932  0.2538  0.1796
61793DOD     C129198   2.612  20.375  13.126  0.3491  0.0865 -0.3802
61793DOD     C229199   2.683  20.093  12.702 -0.3695  0.0698 -0.4162
61793DOD     C329200   2.917  19.726  12.604  0.2148 -0.1025 -0.1567
61794DOD     C129201  24.181   3.744   9.137  0.0340  0.4705  0.3627
61794DOD     C229202  24.095   3.935   9.581 -0.0400  0.2182 -0.0174
61794DOD     C329203  23.910   4.360   9.674  0.0023  0.0219  0.2474
61795DOD     C129204   7.055  16.458   1.979  0.0219 -0.2914  0.2609
61795DOD     C229205   6.619  16.510   2.157 -0.0467  0.0736 -0.1018
61795DOD     C329206   6.359  16.148   2.366 -0.1292  0.0045 -0.1191
61796DOD     C129207   2.985   8.397  14.126  0.1192  0.2425  0.1454
61796DOD     C229208   2.562   8.478  14.264  0.0729  0.2936  0.1067
61796DOD     C329209   2.154   8.572  14.111  0.1072  0.1163  0.0019
61797DOD     C129210  15.001  19.849  21.642  0.1265 -0.0117 -0.2749
61797DOD     C229211  15.030  20.326  21.834 -0.0309 -0.0116 -0.0126
61797DOD     C329212  15.038  20.453  22.230  0.0873 -0.0030  0.0324
61798DOD     C129213   4.722  22.376  28.059  0.1951 -0.1343 -0.0171
61798DOD     C229214   4.403  22.688  28.114 -0.1076  0.0243  0.0658
61798DOD     C329215   4.109  23.084  28.235  0.0439  0.0312  0.1479
61799DOD     C129216   4.339  20.198  18.351 -0.1857 -0.4626  0.0233
61799DOD     C229217   4.245  19.835  18.168 -0.0978  0.0487 -0.0169
61799DOD     C329218   3.939  19.852  17.766 -0.4515 -0.0656  0.0938
61800DOD     C129219  24.050   5.335  11.191 -0.1186  0.0249  0.1409
61800DOD     C229220  23.754   5.148  10.887  0.0777 -0.1810 -0.0609
61800DOD     C329221  23.360   5.078  10.586 -0.2174 -0.0066 -0.2363
61801DOD     C129222  24.226   7.351  15.090 -0.2385  0.0666 -0.1243
61801DOD     C229223  23.839   7.445  14.782  0.0374  0.1938  0.0446
61801DOD     C329224  23.372   7.434  14.697  0.0680 -0.3095  0.2466
61802DOD     C129225  21.326   7.483  27.876 -0.0272  0.0047  0.3390
61802DOD     C229226  21.382   7.790  27.534 -0.2239 -0.0832 -0.0412
61802DOD     C329227  21.725   8.051  27.399 -0.3265  0.0289  0.2440
61803DOD     C129228  22.290   9.720  28.194 -0.1530 -0.0311  0.2647
61803DOD     C229229  22.392  10.115  27.951  0.0150 -0.0820 -0.0243
61803DOD     C329230  22.577  10.597  27.960 -0.0026 -0.0818 -0.1100
61804DOD     C129231  15.919   6.714  27.603  0.1299  0.2142 -0.3727
61804DOD     C229232  15.496   6.630  27.493 -0.2392  0.0164 -0.3729
61804DOD     C329233  15.165   6.819  27.231 -0.0058 -0.1906  0.2118
61805DOD     C129234  22.009  14.513  25.740  0.3241 -0.3449 -0.2003
61805DOD     C229235  22.104  14.115  25.988 -0.0473 -0.0090 -0.2712
61805DOD     C329236  22.230  14.111  26.420  0.0238  0.1517  0.1103
61806DOD     C129237   5.500  29.354   9.271 -0.4469  0.2193 -0.0245
61806DOD     C229238   5.594  29.807   9.381 -0.0712 -0.0397  0.1763
61806DOD     C329239   6.014  30.017   9.550  0.1599 -0.3015  0.0357
61807DOD     C129240   6.368  22.994   1.404  0.1280  0.2190  0.0268
61807DOD     C229241   6.222  22.894   1.831  0.1576 -0.0572  0.0604
61807DOD     C329242   5.901  22.671   2.080 -0.0953 -0.1078 -0.0979
61808DOD     C129243  18.391  18.136  29.592  0.1759 -0.2442  0.1938
61808DOD     C229244  18.424  18.455  29.892 -0.0058  0.1094  0.1839
61808DOD     C329245  18.555  18.840  30.209  0.2596  0.0414  0.1195
61809DOD     C129246   8.784  12.645  29.722 -0.0313  0.1539 -0.0232
61809DOD     C229247   8.403  12.553  30.002  0.3751 -0.3875 -0.0061
61809DOD     C329248   8.056  12.226  29.964  0.1108  0.1174 -0.1425
61810DOD     C129249  11.961  28.559  14.726  0.1502 -0.1031 -0.1221
61810DOD     C229250  11.531  28.790  14.848  0.2509  0.5027  0.1419
61810DOD     C329251  11.273  29.104  15.008 -0.0624  0.2987  0.0146
61811DOD     C129252  20.629  15.464   6.912  0.0895 -0.0126  0.0880
61811DOD     C229253  20.132  15.533   6.835  0.3037  0.1186 -0.0203
61811DOD     C329254  19.704  15.686   6.788  0.0491 -0.1113  0.0957
61812DOD     C129255  15.760  25.985   1.076 -0.0148  0.0724  0.2217
61812DOD     C229256  15.578  25.554   1.164 -0.0530  0.0408  0.1649
61812DOD     C329257  15.183  25.309   1.090  0.1631 -0.0144 -0.3077
61813DOD     C129258  16.116  27.840  10.327  0.0191  0.1154  0.0510
61813DOD     C229259  15.921  27.444  10.287  0.1506 -0.1183  0.0508
61813DOD     C329260  15.664  27.281  10.561 -0.0727  0.0330  0.0391
61814DOD     C129261   8.420  18.405  23.528  0.1403  0.3708  0.2957
61814DOD     C229262   8.853  18.495  23.481 -0.2569 -0.0812  0.1720
61814DOD     C329263   9.208  18.190  23.488 -0.1541 -0.0207 -0.0617
61815DOD     C129264  11.623  16.961  11.754  0.0656  0.0139  0.1606
61815DOD     C229265  11.271  17.265  11.571 -0.4631 -0.1146 -0.0387
61815DOD     C329266  11.011  17.500  11.246 -0.3987  0.2177 -0.3787
61816DOD     C129267  21.959  17.007  18.237 -0.0111  0.2105  0.0090
61816DOD     C229268  22.056  16.886  18.683 -0.0534  0.1297  0.1005
61816DOD     C329269  22.236  16.681  19.044  0.3936 -0.3449  0.1173
61817DOD     C129270  27.503  16.937  10.702 -0.1244 -0.1073 -0.0512
61817DOD     C229271  27.291  17.134  11.066  0.0454  0.1840  0.0390
61817DOD     C329272  27.091  17.370  11.457 -0.0535 -0.2412 -0.1270
61818DOD     C129273  18.834  27.666  19.344  0.0536  0.2800 -0.0863
61818DOD     C229274  19.140  27.551  19.018  0.2008  0.2178  0.0413
61818DOD     C329275  19.466  27.559  18.665  0.1202  0.0434 -0.1308
61819DOD     C129276  17.558  14.703   2.749  0.2575 -0.2362 -0.0085
61819DOD     C229277  17.245  14.342   2.752 -0.0424  0.3055  0.2458
61819DOD     C329278  16.996  14.111   3.107 -0.1175  0.0129 -0.1598
61820DOD     C129279  23.125  12.645  27.028 -0.0503 -0.3762  0.0079
61820DOD     C229280  22.812  12.927  27.306  0.0767 -0.1833  0.5128
61820DOD     C329281  22.377  12.758  27.369 -0.0734 -0.1068 -0.1067
61821DOD     C129282  27.878  12.793   2.703  0.0005  0.2581  0.0520
61821DOD     C229283  27.592  12.751   2.306  0.1694 -0.1471 -0.1449
61821DOD     C329284  27.423  12.998   1.929 -0.1570  0.1189  0.2079
61822DOD     C129285   5.164  28.502   2.785 -0.2058 -0.1474 -0.0813
61822DOD     C229286   4.902  28.445   2.448 -0.0129 -0.1384 -0.1525
61822DOD     C329287   4.691  28.534   2.050  0.1976  0.0264  0.1399
61823DOD     C129288   1.459  17.483  20.452 -0.0713 -0.3516 -0.3259
61823DOD     C229289   1.089  17.282  20.289 -0.2542 -0.0417  0.0900
61823DOD     C329290   0.695  17.296  20.105 -0.2910 -0.0982 -0.3216
61824DOD     C129291  21.610   1.002  23.498  0.0349  0.2437 -0.0272
61824DOD     C229292  21.407   0.574  23.705  0.0706 -0.0518  0.2567
61824DOD     C329293  21.190   0.146  23.732 -0.0967  0.0120  0.0202
61825DOD     C129294  26.637  22.611   6.241  0.0623 -0.0078  0.3186
61825DOD     C229295  26.559  22.990   5.960  0.0743 -0.0546  0.1100
61825DOD     C329296  26.742  23.063   5.533 -0.1035 -0.1607  0.2198
61826DOD     C129297  15.041  28.914  14.522  0.0870 -0.0068  0.2556
61826DOD     C229298  15.308  28.746  14.926  0.2464  0.2402 -0.3342
61826DOD     C329299  15.555  28.600  15.322 -0.0414  0.1556 -0.0817
61827DOD     C129300  11.704  25.761   5.376 -0.0407  0.0359 -0.1273
61827DOD     C229301  11.592  25.638   4.955 -0.2906 -0.0763  0.1568
61827DOD     C329302  11.823  25.318   4.661  0.2527  0.1368  0.3118
61828DOD     C129303  12.432   7.321  26.139 -0.2777  0.1478 -0.0651
61828DOD     C229304  12.770   6.951  26.226  0.1691  0.0739  0.0080
61828DOD     C329305  13.001   6.561  26.403 -0.0495  0.0995  0.0926
61829DOD     C129306  14.849  26.768   1.680  0.0330  0.0635  0.0608
61829DOD     C229307  14.522  26.707   1.949  0.2434 -0.1870 -0.2691
61829DOD     C329308  14.181  26.672   2.288 -0.0438 -0.0843  0.1051
61830DOD     C129309   7.342  18.891  10.403  0.1439 -0.0070  0.2690
61830DOD     C229310   7.715  19.106  10.225 -0.1382 -0.1508  0.0926
61830DOD     C329311   8.149  19.260  10.261  0.2188 -0.2885 -0.1784
61831DOD     C129312  20.555  14.520   8.328  0.0551 -0.2030 -0.3658
61831DOD     C229313  20.658  14.581   7.866  0.1949 -0.1511 -0.2802
61831DOD     C329314  20.861  14.835   7.502  0.2615 -0.0695 -0.1831
61832DOD     C129315   3.485   6.610  11.829  0.2582  0.1401 -0.2027
61832DOD     C229316   3.847   6.827  12.071 -0.1193 -0.0033 -0.1571
61832DOD     C329317   4.020   7.257  12.154 -0.0123  0.1515  0.2429
61833DOD     C129318   2.709  12.138  19.431 -0.0982 -0.0326  0.2349
61833DOD     C229319   2.413  12.383  19.163  0.3320  0.0643  0.1548
61833DOD     C329320   2.042  12.293  18.904  0.0366  0.2675  0.0500
61834DOD     C129321  29.606  18.670  25.239  0.2001 -0.1293  0.0090
61834DOD     C229322  29.745  18.702  24.768 -0.4566  0.2332  0.0839
61834DOD     C329323  29.883  19.005  24.553  0.3559 -0.0975  0.2055
61835DOD     C129324  22.183  24.902   0.466 -0.0153 -0.2066  0.1014
61835DOD     C229325  21.987  24.556   0.681  0.1297  0.3010 -0.1802
61835DOD     C329326  21.932  24.100   0.759  0.0298  0.0710  0.2428
61836DOD     C129327  24.978   1.367  21.648  0.2911  0.2397 -0.0049
61836DOD     C229328  24.742   1.368  21.239 -0.0190  0.3175 -0.0900
61836DOD     C329329  24.315   1.376  21.052 -0.2143 -0.1162  0.0618
61837DOD     C129330   2.273   2.882   5.222  0.2130 -0.0144 -0.0635
61837DOD     C229331   2.719   3.085   5.288 -0.0514 -0.1876 -0.0600
61837DOD     C329332   3.052   3.036   5.003  0.0625  0.0890 -0.0837
61838DOD     C129333  30.107  19.779  11.349  0.1127  0.4271 -0.0980
61838DOD     C229334   0.206  19.946  11.414  0.0730  0.4337 -0.3181
61838DOD     C329335   0.621  20.150  11.254  0.1367  0.0172  0.0500
61839DOD     C129336  19.509  21.287   3.146 -0.0605  0.0324  0.0557
61839DOD     C229337  19.488  21.490   2.669  0.0493 -0.1962  0.1872
61839DOD     C329338  19.495  21.934   2.675 -0.0381 -0.0215 -0.1053
61840DOD     C129339   0.212  29.122  23.334  0.1383  0.0067  0.5575
61840DOD     C229340  30.236  29.203  23.751 -0.0290 -0.1863 -0.1300
61840DOD     C329341  29.941  29.311  24.075  0.0607 -0.0493  0.1457
61841DOD     C129342   0.227  14.392  23.700 -0.2365 -0.2712 -0.0715
61841DOD     C229343  -0.039  14.457  24.066  0.0421 -0.1130 -0.1208
61841DOD     C329344   0.181  14.510  24.496 -0.0372 -0.2091 -0.0596
61842DOD     C129345   9.265  12.224   0.422  0.0118 -0.0725  0.1604
61842DOD     C229346   9.502  11.956   0.098 -0.3232  0.0021 -0.1098
61842DOD     C329347   9.948  11.866  30.221  0.1361 -0.0432 -0.1325
61843DOD     C129348  10.230  14.146  17.516  0.1035  0.0458 -0.1401
61843DOD     C229349  10.538  14.244  17.849 -0.0812  0.0014 -0.0706
61843DOD     C329350  10.970  14.141  18.021  0.0151  0.0301 -0.0803
61844DOD     C129351  23.653  30.029  16.206 -0.0883 -0.0448  0.0986
61844DOD     C229352  23.975  29.756  16.026  0.2892 -0.1320  0.0280
61844DOD     C329353  24.321  29.583  15.779  0.1577 -0.0900  0.0305
61845DOD     C129354   0.924   8.609  29.829 -0.0291 -0.6062  0.1587
61845DOD     C229355   0.501   8.552  29.654  0.2479 -0.3128  0.1106
61845DOD     C329356   0.238   8.357  29.354 -0.2416  0.2188  0.1866
61846DOD     C129357  16.765  12.964   5.232 -0.0709 -0.0854  0.0939
61846DOD     C229358  16.327  13.183   5.225  0.1504 -0.1555 -0.0853
61846DOD     C329359  15.976  13.500   5.231 -0.0418 -0.0156  0.3574
61847DOD     C129360  11.081  17.047  22.976 -0.0326  0.2746 -0.1886
61847DOD     C229361  10.849  17.382  22.753 -0.2241 -0.0296  0.0858
61847DOD     C329362  10.360  17.451  22.607 -0.1537 -0.0501  0.2018
61848DOD     C129363   7.716  30.165  15.370  0.2716 -0.0784 -0.0961
61848DOD     C229364   7.346  30.007  15.697  0.0990  0.2008 -0.1369
61848DOD     C329365   7.028  30.113  16.055 -0.4152  0.0086  0.0325
61849DOD     C129366  25.910  17.929  20.054  0.2710  0.0022 -0.1186
61849DOD     C229367  25.779  18.054  19.634  0.0979  0.0289 -0.2086
61849DOD     C329368  25.897  18.035  19.227  0.1632 -0.3957 -0.1246
61850DOD     C129369  12.311  25.482   5.771  0.0320 -0.0594 -0.0993
61850DOD     C229370  11.865  25.556   6.003 -0.2822  0.0061  0.2622
61850DOD     C329371  11.605  25.668   6.390  0.0500  0.0073  0.5062
61851DOD     C129372  21.888  23.640   1.561  0.1492 -0.1387 -0.1379
61851DOD     C229373  21.670  23.647   1.980  0.1134  0.1385  0.2335
61851DOD     C329374  21.228  23.719   2.143  0.0293  0.1047  0.3034
61852DOD     C129375   7.279  17.095  23.505  0.0670 -0.2209 -0.0956
61852DOD     C229376   6.920  16.934  23.271  0.1777  0.1082  0.1486
61852DOD     C329377   6.525  16.689  23.250 -0.2002 -0.2873  0.0313
61853DOD     C129378  20.786  28.960   4.364 -0.0249  0.0375 -0.2280
61853DOD     C229379  20.354  28.763   4.356  0.2459  0.2629 -0.1588
61853DOD     C329380  19.844  28.623   4.373 -0.2011 -0.0436 -0.1803
61854DOD     C129381  16.453  15.358  22.061 -0.0006  0.2730 -0.2233
61854DOD     C229382  16.549  15.232  21.607 -0.4508  0.2610 -0.2310
61854DOD     C329383  16.435  15.528  21.216  0.0282  0.0592  0.1575
61855DOD     C129384  29.756   0.551  29.748 -0.0558  0.0481 -0.1065
61855DOD     C229385  29.419   0.877  29.586  0.1436  0.2077  0.0023
61855DOD     C329386  29.386   1.289  29.379 -0.0639 -0.0614  0.0589
61856DOD     C129387   0.478  11.493  21.987 -0.0119 -0.1496  0.2847
61856DOD     C229388   0.453  11.119  21.728  0.2787 -0.1413  0.1945
61856DOD     C329389   0.511  10.889  21.317  0.1130 -0.0022  0.0232
61857DOD     C129390  13.398  30.144   2.626 -0.1575  0.0007  0.0655
61857DOD     C229391  13.555  29.720   2.714  0.1721  0.0446  0.2347
61857DOD     C329392  13.477  29.275   2.710  0.3660  0.0759  0.2032
61858DOD     C129393   0.587   9.551  12.397 -0.0080 -0.3504 -0.0764
61858DOD     C229394   0.744   9.104  12.417  0.1077  0.1353  0.1890
61858DOD     C329395   0.561   8.756  12.667 -0.4692  0.2658 -0.0331
61859DOD     C129396  22.990   7.436  14.284  0.0240 -0.1525 -0.2289
61859DOD     C229397  22.763   7.087  14.180  0.0509  0.4267 -0.2966
61859DOD     C329398  22.858   6.656  14.085  0.0883 -0.1025 -0.0429
61860DOD     C129399  10.824  27.913  27.887 -0.1449 -0.0682 -0.2237
61860DOD     C229400  10.421  27.864  28.117 -0.3004  0.2178 -0.0325
61860DOD     C329401  10.059  28.144  28.167 -0.0540 -0.4060 -0.2199
61861DOD     C129402   4.185  21.149  20.205 -0.2289 -0.1055  0.1399
61861DOD     C229403   3.879  20.805  20.163 -0.0394  0.1781  0.0065
61861DOD     C329404   3.518  20.643  19.878  0.2549  0.1604 -0.1873
61862DOD     C129405  15.534   1.157   9.079  0.1648  0.0173  0.0863
61862DOD     C229406  15.468   1.128   9.530 -0.0071  0.0493  0.0802
61862DOD     C329407  15.083   1.080   9.814 -0.1641  0.2619  0.1335
61863DOD     C129408   6.856   9.636  10.132  0.1112  0.2602 -0.5019
61863DOD     C229409   7.043   9.853   9.799 -0.1426  0.1756  0.1108
61863DOD     C329410   7.366  10.094   9.639  0.3578  0.2102 -0.1006
61864DOD     C129411  15.451   9.455  24.622 -0.1111  0.1897  0.0157
61864DOD     C229412  15.373   9.837  24.334 -0.3165  0.3080  0.1297
61864DOD     C329413  15.539  10.132  24.021  0.1692 -0.2466  0.2711
61865DOD     C129414  25.151  19.605  22.628  0.3053  0.5007 -0.0231
61865DOD     C229415  24.740  19.516  22.420  0.1996  0.2477  0.0446
61865DOD     C329416  24.400  19.153  22.416  0.0842 -0.3297 -0.3811
61866DOD     C129417   0.384  27.288  24.949 -0.1416  0.1887  0.0538
61866DOD     C229418   0.736  27.018  25.061  0.2411  0.0193  0.0289
61866DOD     C329419   1.202  27.011  25.179  0.2718  0.0468 -0.0864
61867DOD     C129420  10.317  11.540   0.735  0.2129 -0.1864 -0.0555
61867DOD     C229421  10.473  11.379   1.152 -0.1810  0.0632 -0.0712
61867DOD     C329422  10.759  11.566   1.467  0.2117  0.2724 -0.0065
61868DOD     C129423  15.495  27.384  27.365 -0.0618 -0.0097  0.3457
61868DOD     C229424  15.829  27.157  27.571 -0.0345  0.0576 -0.0390
61868DOD     C329425  16.169  27.086  27.769  0.1337  0.1777  0.0235
61869DOD     C129426   5.290  28.489   8.148 -0.1551 -0.2383 -0.1107
61869DOD     C229427   4.860  28.533   8.352 -0.0302 -0.2273 -0.0289
61869DOD     C329428   4.408  28.609   8.457 -0.0412 -0.2360  0.1497
61870DOD     C129429  26.472  23.692  28.831 -0.0935  0.1290 -0.0553
61870DOD     C229430  26.658  23.507  29.235 -0.1199  0.3597 -0.0998
61870DOD     C329431  27.107  23.300  29.297 -0.0474 -0.0997  0.1085
61871DOD     C129432   3.308   5.471   1.931 -0.4736 -0.0538 -0.1572
61871DOD     C229433   2.929   5.236   2.129 -0.2949  0.0561 -0.1479
61871DOD     C329434   2.743   4.814   2.319 -0.0450  0.0299 -0.1954
61872DOD     C129435   7.083   2.090  26.760 -0.1749  0.2215  0.0215
61872DOD     C229436   6.922   1.864  26.379  0.1019 -0.1947  0.4413
61872DOD     C329437   6.569   1.619  26.175 -0.1171 -0.1613 -0.1162
61873DOD     C129438   6.857   9.363   6.734  0.0430  0.3830 -0.1531
61873DOD     C229439   6.935   9.385   6.279  0.2819 -0.1280  0.1492
61873DOD     C329440   7.307   9.565   6.072 -0.2781  0.0043 -0.0766
61874DOD     C129441  29.343  18.952  20.938  0.1004  0.2034  0.2552
61874DOD     C229442  29.137  19.040  21.313 -0.0456 -0.0297 -0.1060
61874DOD     C329443  28.785  19.140  21.564 -0.1388  0.1691 -0.0291
61875DOD     C129444  25.202   1.069  13.856 -0.3351 -0.0136 -0.1662
61875DOD     C229445  24.951   1.403  13.715 -0.1383 -0.0463 -0.2512
61875DOD     C329446  24.451   1.541  13.810 -0.3866 -0.2251 -0.1147
61876DOD     C129447  19.639   7.479  10.673 -0.0782  0.1084 -0.1372
61876DOD     C229448  19.592   7.169  11.026  0.1226  0.0751 -0.1504
61876DOD     C329449  19.490   7.030  11.468 -0.1548 -0.2089  0.1418
61877DOD     C129450   3.842  26.847   2.140 -0.1313 -0.0927 -0.0504
61877DOD     C229451   3.921  27.154   2.504 -0.0212 -0.1908  0.2085
61877DOD     C329452   3.947  27.322   2.936 -0.2105 -0.0763  0.1282
61878DOD     C129453  27.906  26.104   9.810  0.0276  0.2543  0.0406
61878DOD     C229454  27.748  26.556   9.884 -0.3887  0.2516 -0.0050
61878DOD     C329455  27.597  26.995   9.882  0.2912  0.1919 -0.2085
61879DOD     C129456   1.601  11.446  17.301 -0.3099  0.4194 -0.3575
61879DOD     C229457   1.298  11.823  17.217 -0.0375 -0.0973  0.1341
61879DOD     C329458   0.829  11.886  17.296 -0.1332 -0.1834 -0.1546
61880DOD     C129459  11.829  11.789  18.390  0.0778 -0.0279  0.0667
61880DOD     C229460  11.963  12.239  18.562 -0.2647  0.0222  0.1323
61880DOD     C329461  12.045  12.682  18.748 -0.1633 -0.1069  0.1458
61881DOD     C129462  27.563   5.020   3.352 -0.1905 -0.1283  0.2125
61881DOD     C229463  27.965   4.794   3.367 -0.4986  0.1158  0.0419
61881DOD     C329464  28.229   4.387   3.266 -0.1237  0.1072  0.2965
61882DOD     C129465   8.130  11.577  26.220 -0.1705  0.0346 -0.3104
61882DOD     C229466   8.025  11.950  25.894 -0.2426  0.1660  0.1156
61882DOD     C329467   8.083  12.383  25.821  0.0828 -0.0312 -0.4594
61883DOD     C129468  13.292   6.905  20.023  0.0382 -0.0667 -0.1801
61883DOD     C229469  13.367   7.141  20.410 -0.0199  0.1194 -0.1260
61883DOD     C329470  13.461   6.972  20.870 -0.0167  0.2249  0.0627
61884DOD     C129471  12.169  18.209  26.747 -0.5018  0.2059  0.1488
61884DOD     C229472  12.162  17.748  26.530 -0.1631 -0.0891  0.0234
61884DOD     C329473  11.914  17.360  26.399 -0.2781  0.1484  0.1899
61885DOD     C129474  19.382  12.739  21.020  0.0113  0.5287 -0.1404
61885DOD     C229475  19.086  12.993  21.274  0.1720 -0.0680 -0.1627
61885DOD     C329476  18.974  13.174  21.704  0.3203  0.2006 -0.0248
61886DOD     C129477   1.976  10.831  15.618  0.4020 -0.0615  0.1577
61886DOD     C229478   2.269  10.855  15.903  0.2789  0.1274 -0.1523
61886DOD     C329479   2.737  10.908  15.919  0.3652 -0.1491  0.1632
61887DOD     C129480  24.410   8.242   6.325 -0.1767  0.1460  0.1065
61887DOD     C229481  24.223   8.162   5.875 -0.1741 -0.2445 -0.1376
61887DOD     C329482  24.109   8.486   5.570  0.1467 -0.2297  0.0585
61888DOD     C129483  11.626   1.833   0.221  0.2969  0.0572  0.0791
61888DOD     C229484  11.324   1.540  30.355  0.1050 -0.0187  0.2347
61888DOD     C329485  10.922   1.474  30.174  0.0520 -0.0345  0.1363
61889DOD     C129486  13.420  22.788   5.369 -0.1099 -0.0687 -0.2835
61889DOD     C229487  13.842  22.754   5.585  0.1190  0.2513 -0.2233
61889DOD     C329488  14.235  22.565   5.664  0.0277 -0.1522  0.0890
61890DOD     C129489   8.239  21.681  15.924 -0.0129 -0.0962  0.2016
61890DOD     C229490   8.006  21.316  15.993  0.3325 -0.0604  0.0168
61890DOD     C329491   8.161  20.884  15.989 -0.0526 -0.0302  0.1168
61891DOD     C129492  15.993  15.781  16.272  0.0698 -0.0822  0.1239
61891DOD     C229493  15.806  16.094  15.998 -0.0610  0.1814 -0.0582
61891DOD     C329494  15.535  16.495  16.036 -0.2512 -0.1126  0.0109
61892DOD     C129495  15.431   7.534   9.847  0.0769 -0.1619 -0.0114
61892DOD     C229496  15.191   7.960   9.820  0.2681 -0.1308 -0.0796
61892DOD     C329497  14.739   8.080   9.693  0.0232  0.3972 -0.2726
61893DOD     C129498  18.869  15.684  18.238 -0.0151 -0.0916 -0.1167
61893DOD     C229499  19.290  15.829  18.231 -0.0531  0.0503 -0.1544
61893DOD     C329500  19.616  16.082  18.012 -0.1259  0.0079 -0.0826
61894DOD     C129501  30.050   0.358   8.857 -0.0024  0.0909  0.0132
61894DOD     C229502  30.069  30.288   9.113 -0.0786  0.1957 -0.0010
61894DOD     C329503  30.079  30.171   9.606  0.1680  0.0856  0.2230
61895DOD     C129504  25.361  26.464  24.828 -0.0962 -0.0902  0.0027
61895DOD     C229505  25.657  26.331  24.506 -0.2039 -0.2286  0.2137
61895DOD     C329506  26.095  26.179  24.367 -0.0867 -0.0025 -0.0723
61896DOD     C129507   7.324  11.828  26.671  0.0575 -0.2435  0.0731
61896DOD     C229508   7.406  11.603  27.043  0.2515 -0.3089 -0.2117
61896DOD     C329509   7.354  11.258  27.237 -0.0101  0.2233  0.0241
61897DOD     C129510   9.246  25.004  21.132  0.1312 -0.0105  0.0368
61897DOD     C229511   9.080  25.300  21.462  0.2898  0.2564  0.3086
61897DOD     C329512   9.008  25.300  21.960 -0.2202 -0.0533  0.1926
61898DOD     C129513   0.139  26.406   7.368 -0.4829 -0.0836  0.3207
61898DOD     C229514  30.012  26.547   7.528  0.0844  0.1396 -0.3178
61898DOD     C329515  29.675  26.771   7.653 -0.1147  0.0282 -0.0691
61899DOD     C129516   3.524  12.576  14.146 -0.0265 -0.2599  0.1742
61899DOD     C229517   3.696  13.022  14.309  0.3544  0.1670  0.0312
61899DOD     C329518   3.917  13.403  14.156 -0.0026  0.1158  0.0394
61900DOD     C129519  27.323   9.828  29.610 -0.2577 -0.0640  0.1525
61900DOD     C229520  27.340   9.499  29.254  0.0711  0.0680 -0.1736
61900DOD     C329521  27.693   9.605  28.932 -0.1223  0.2312  0.0772
61901DOD     C129522   4.624  12.185   0.480  0.1804 -0.1821  0.0252
61901DOD     C229523   5.096  12.100   0.460  0.1412 -0.2166 -0.1577
61901DOD     C329524   5.562  11.969   0.528  0.2310  0.2847  0.1973
61902DOD     C129525  16.713   9.514   1.279 -0.0837  0.3033  0.2891
61902DOD     C229526  16.926   9.879   1.438 -0.4790 -0.1857 -0.0372
61902DOD     C329527  17.202  10.063   1.766 -0.1412 -0.0692  0.2590
61903DOD     C129528   7.623   6.703  14.915 -0.1441 -0.2853  0.1543
61903DOD     C229529   7.411   7.061  14.720 -0.1226 -0.1592 -0.2970
61903DOD     C329530   7.319   7.525  14.697 -0.0642  0.2205 -0.6531
61904DOD     C129531  16.893   0.276  27.527 -0.0604 -0.0408 -0.1116
61904DOD     C229532  16.797   0.620  27.270  0.2068 -0.0232  0.1788
61904DOD     C329533  16.566   1.010  27.399  0.0351 -0.0459  0.1642
61905DOD     C129534  12.293  22.898   3.988 -0.0879 -0.0903  0.1450
61905DOD     C229535  12.240  23.395   3.925  0.1220  0.2984  0.1491
61905DOD     C329536  12.366  23.856   3.977  0.3058 -0.2759  0.2847
61906DOD     C129537  24.971  17.546   2.172  0.0260 -0.2581 -0.2816
61906DOD     C229538  24.712  17.223   2.477  0.0664  0.1829  0.1717
61906DOD     C329539  24.345  16.895   2.628  0.0807 -0.2247  0.0442
61907DOD     C129540  10.452   3.138   3.270  0.1059 -0.0912 -0.1365
61907DOD     C229541  10.165   3.498   3.271  0.2992  0.2131 -0.3078
61907DOD     C329542  10.336   3.848   3.406 -0.2079 -0.0932  0.0495
61908DOD     C129543   5.178  21.723  21.855  0.2972 -0.1453 -0.3024
61908DOD     C229544   5.576  21.802  21.661 -0.0376 -0.3688  0.1381
61908DOD     C329545   5.689  21.994  21.263 -0.1252  0.2661 -0.0211
61909DOD     C129546  16.929  20.685  14.291  0.1759  0.2578 -0.0140
61909DOD     C229547  16.544  20.576  14.168  0.1779  0.2248  0.0967
61909DOD     C329548  16.151  20.421  14.379 -0.0368  0.1041  0.0392
61910DOD     C129549   2.924   2.892  26.161 -0.1187 -0.2265 -0.0839
61910DOD     C229550   2.728   3.294  26.369 -0.2858  0.1167  0.0631
61910DOD     C329551   2.825   3.584  26.730  0.0881 -0.0611  0.0321
61911DOD     C129552   6.172  16.417   6.509 -0.3097 -0.0509  0.2035
61911DOD     C229553   6.091  16.748   6.177  0.0316  0.0271  0.0390
61911DOD     C329554   5.991  17.223   6.022  0.1498 -0.3186 -0.2938
61912DOD     C129555   3.736   9.367  23.394 -0.0541 -0.0088 -0.2485
61912DOD     C229556   3.842   9.756  23.106  0.0912  0.1543 -0.2252
61912DOD     C329557   3.926   9.797  22.631 -0.2443  0.0676  0.1894
61913DOD     C129558  20.527   5.183  21.343 -0.1577  0.0984  0.2390
61913DOD     C229559  20.751   4.770  21.357 -0.0662 -0.0796 -0.0716
61913DOD     C329560  20.901   4.377  21.509  0.0756  0.1916  0.1159
61914DOD     C129561  22.147  23.399  28.056  0.3197 -0.3117  0.1042
61914DOD     C229562  22.137  23.657  28.461 -0.0011 -0.1809  0.2921
61914DOD     C329563  22.195  24.048  28.688  0.2621 -0.2464 -0.0588
61915DOD     C129564  26.589  21.030  10.614 -0.0167  0.3267  0.2510
61915DOD     C229565  26.161  21.021  10.610 -0.0706  0.0166 -0.0760
61915DOD     C329566  25.774  20.884  10.487 -0.0618  0.0752  0.1208
61916DOD     C129567  21.270  29.094  13.665 -0.0580 -0.0734 -0.4894
61916DOD     C229568  21.309  29.114  13.187 -0.1544  0.3553  0.0323
61916DOD     C329569  21.628  29.066  12.851 -0.4381 -0.1967 -0.2319
61917DOD     C129570  20.886  29.253  18.058 -0.1277 -0.0510  0.1007
61917DOD     C229571  20.891  29.436  18.511 -0.1370 -0.2033  0.0846
61917DOD     C329572  20.806  29.379  18.962  0.2441  0.0252  0.0339
61918DOD     C129573  22.795  27.931  10.679  0.2527  0.1239  0.3333
61918DOD     C229574  23.100  28.200  10.473  0.1647 -0.1779 -0.0006
61918DOD     C329575  23.471  28.412  10.274 -0.0680 -0.1327  0.3192
61919DOD     C129576  16.439  22.009  11.170 -0.1448 -0.1587 -0.2405
61919DOD     C229577  16.218  22.034  11.621  0.0281 -0.0488  0.2613
61919DOD     C329578  15.902  22.348  11.806 -0.1002  0.1280 -0.1664
61920DOD     C129579   0.810  23.160  13.641  0.1466  0.0164 -0.2016
61920DOD     C229580   0.787  22.953  14.056 -0.0379  0.2514 -0.1817
61920DOD     C329581   0.473  23.049  14.399 -0.0058 -0.0763 -0.0463
61921DOD     C129582   3.735  22.826  22.815 -0.0532 -0.1264  0.1933
61921DOD     C229583   3.736  22.925  23.304  0.0131 -0.1950 -0.2696
61921DOD     C329584   3.591  22.949  23.712  0.0176 -0.2069  0.2164
61922DOD     C129585   0.220   1.977   1.464  0.0100 -0.1470  0.0859
61922DOD     C229586   0.216   1.548   1.582 -0.1930 -0.0577 -0.2631
61922DOD     C329587   0.534   1.372   1.884 -0.4478  0.0497  0.1754
61923DOD     C129588  26.391   7.833   7.415 -0.0049  0.0495 -0.3364
61923DOD     C229589  26.170   8.130   7.775  0.0006 -0.1206 -0.3752
61923DOD     C329590  25.923   8.486   7.801  0.0709  0.1377 -0.2437
61924DOD     C129591  16.007  14.296   7.252  0.0858  0.0316 -0.2013
61924DOD     C229592  15.630  14.503   7.063  0.0451 -0.0058 -0.0142
61924DOD     C329593  15.415  14.737   7.414  0.1193 -0.0377 -0.1529
61925DOD     C129594  20.461  17.328   1.308 -0.2665 -0.0488  0.0388
61925DOD     C229595  20.079  17.495   1.109  0.2728 -0.0142  0.2561
61925DOD     C329596  19.754  17.229   0.879 -0.1043 -0.2831  0.0036
61926DOD     C129597   6.422   5.147  20.112 -0.0301 -0.1344 -0.1351
61926DOD     C229598   6.184   4.925  19.789 -0.1239 -0.1194 -0.0357
61926DOD     C329599   5.955   4.796  19.450 -0.0051  0.0634  0.1113
61927DOD     C129600   4.627  21.714  22.497  0.1068  0.1014  0.0571
61927DOD     C229601   4.910  22.055  22.267 -0.0394 -0.0580  0.2508
61927DOD     C329602   4.977  22.217  21.776  0.2355  0.0980 -0.1322
61928DOD     C129603   7.873  12.023   1.297 -0.2184  0.2130 -0.0383
61928DOD     C229604   7.420  12.033   1.294 -0.0129 -0.3304  0.1020
61928DOD     C329605   6.979  12.113   1.565  0.2133 -0.3458  0.2393
61929DOD     C129606   8.098  16.294  18.444 -0.0640  0.2010 -0.2387
61929DOD     C229607   7.913  16.628  18.745 -0.0971  0.3513 -0.2124
61929DOD     C329608   7.861  17.091  18.816  0.1262  0.0827 -0.0954
61930DOD     C129609  25.885   9.703  16.415 -0.2648  0.0498  0.3600
61930DOD     C229610  26.296   9.471  16.584 -0.1208 -0.1933 -0.1486
61930DOD     C329611  26.356   9.161  16.893  0.1318  0.2281  0.0793
61931DOD     C129612   5.133  11.485  26.723 -0.0646  0.1341 -0.0992
61931DOD     C229613   4.740  11.347  26.912 -0.0092 -0.1512  0.0253
61931DOD     C329614   4.400  11.494  27.191 -0.1329  0.0485  0.1206
61932DOD     C129615  29.204  17.345  29.578 -0.0369  0.2305  0.1267
61932DOD     C229616  29.606  17.184  29.641 -0.1077  0.0539  0.2108
61932DOD     C329617  30.055  17.050  29.493 -0.3754  0.1327 -0.0710
61933DOD     C129618  29.134  28.995  16.628 -0.0576  0.1775 -0.0631
61933DOD     C229619  29.426  28.820  16.384 -0.0714  0.1290  0.2780
61933DOD     C329620  29.695  28.711  16.051  0.0135  0.2605 -0.1552
61934DOD     C129621   4.509  27.380  15.595 -0.1253 -0.0353 -0.1467
61934DOD     C229622   4.304  27.324  15.180 -0.2320  0.4023 -0.1614
61934DOD     C329623   4.082  27.428  14.771 -0.1274 -0.1166  0.1816
61935DOD     C129624  21.065  26.639  15.941  0.0520 -0.1640 -0.0140
61935DOD     C229625  21.094  26.344  15.560  0.2195 -0.0206  0.0228
61935DOD     C329626  20.887  25.886  15.559  0.2626  0.2974 -0.0644
61936DOD     C129627  22.861  29.996  24.067 -0.3205 -0.2407 -0.2741
61936DOD     C229628  22.891  29.817  24.501  0.2327  0.2880  0.0230
61936DOD     C329629  23.256  29.711  24.728  0.0334 -0.0785 -0.3321
61937DOD     C129630  18.742  25.077  24.043 -0.1946  0.0423  0.3377
61937DOD     C229631  18.715  24.657  24.359 -0.1966 -0.0204 -0.0752
61937DOD     C329632  18.449  24.291  24.542  0.1164 -0.0321  0.1958
61938DOD     C129633  25.791   1.069  21.859  0.1838  0.0967  0.0434
61938DOD     C229634  26.091   0.887  22.197  0.0570 -0.3238 -0.0537
61938DOD     C329635  26.482   0.678  22.220  0.0455  0.2864 -0.1284
61939DOD     C129636  10.057  27.157  26.102 -0.0503  0.0542  0.1471
61939DOD     C229637  10.120  26.746  26.267 -0.0319  0.1909  0.0277
61939DOD     C329638  10.376  26.347  26.252  0.1631 -0.0006  0.1454
61940DOD     C129639  30.048  20.667  10.763 -0.1863  0.1795 -0.0751
61940DOD     C229640  29.768  20.348  10.623 -0.0340 -0.3737 -0.0106
61940DOD     C329641  29.755  19.918  10.384 -0.2232 -0.0269  0.0740
61941DOD     C129642   1.350  25.075  14.544  0.1862 -0.3738  0.1903
61941DOD     C229643   1.084  24.727  14.340  0.1498  0.2910  0.2384
61941DOD     C329644   0.982  24.253  14.349 -0.2799 -0.2196 -0.2955
61942DOD     C129645  30.268  19.838  18.209  0.0247  0.0129 -0.0618
61942DOD     C229646  30.170  19.601  17.824  0.2185 -0.1016 -0.2106
61942DOD     C329647  30.060  19.241  17.525 -0.0303  0.1199  0.3714
61943DOD     C129648   7.475   9.704   9.973  0.1189  0.3629  0.0491
61943DOD     C229649   7.746   9.979  10.186 -0.2577 -0.0013  0.0887
61943DOD     C329650   8.085  10.278  10.267 -0.0204 -0.2142  0.0044
61944DOD     C129651  10.721  21.173  14.985 -0.2995  0.2526  0.0000
61944DOD     C229652  10.487  20.760  14.827 -0.1105  0.1172  0.0399
61944DOD     C329653  10.161  20.426  14.734 -0.1289 -0.1244 -0.1827
61945DOD     C129654  11.946   4.787   1.789  0.2937  0.0793  0.0806
61945DOD     C229655  12.331   4.768   2.031 -0.1887  0.0817 -0.2226
61945DOD     C329656  12.738   4.547   2.122  0.1004  0.0495  0.3227
61946DOD     C129657  27.053  22.368  18.111 -0.1386 -0.0655 -0.1746
61946DOD     C229658  26.607  22.309  18.306  0.1421  0.1051  0.1172
61946DOD     C329659  26.312  22.346  18.660 -0.0875  0.0999  0.0668
61947DOD     C129660   3.276  14.378   1.293  0.0512  0.0973  0.1313
61947DOD     C229661   3.133  14.823   1.193 -0.0120 -0.2167 -0.2321
61947DOD     C329662   3.196  15.289   1.304  0.0259  0.1124 -0.3348
61948DOD     C129663  13.180   5.156   2.196 -0.3819 -0.0800 -0.0231
61948DOD     C229664  13.364   5.366   2.577 -0.1824  0.1444  0.0620
61948DOD     C329665  13.472   5.261   2.969 -0.0035  0.2897 -0.0063
61949DOD     C129666  11.806  25.301   5.534 -0.1232 -0.0456 -0.1238
61949DOD     C229667  11.975  25.329   5.121  0.0741 -0.1972 -0.1456
61949DOD     C329668  12.349  25.392   4.835 -0.2141  0.1993 -0.2806
61950DOD     C129669  11.251  15.595  10.253  0.1528 -0.0499  0.4617
61950DOD     C229670  11.076  15.162  10.180  0.1658  0.0698 -0.0578
61950DOD     C329671  10.999  14.666  10.340  0.0936  0.3337 -0.0278
61951DOD     C129672   5.429   9.401  21.062  0.0886  0.1613  0.2824
61951DOD     C229673   5.540   9.299  21.463 -0.1423 -0.0953 -0.3830
61951DOD     C329674   5.424   9.237  21.946  0.0639  0.0657  0.0402
61952DOD     C129675   7.445  10.778  25.957  0.0128 -0.0309 -0.3141
61952DOD     C229676   7.310  10.970  25.528  0.1855 -0.0296 -0.1517
61952DOD     C329677   6.981  11.221  25.375 -0.1772  0.1201 -0.1609
61953DOD     C129678   2.421   7.364   6.554 -0.1347  0.1374 -0.4183
61953DOD     C229679   2.401   6.910   6.419 -0.3491 -0.0197 -0.2207
61953DOD     C329680   2.179   6.519   6.338  0.0511  0.0369  0.1460
61954DOD     C129681  19.660   0.923  22.808 -0.1158  0.2042  0.0057
61954DOD     C229682  19.802   1.295  23.037 -0.0298  0.2294  0.1332
61954DOD     C329683  20.064   1.601  23.285 -0.0124  0.0078 -0.4856
61955DOD     C129684  27.200   5.427  19.420 -0.1014  0.0407  0.1606
61955DOD     C229685  27.389   5.794  19.752  0.1876  0.1204  0.1829
61955DOD     C329686  27.748   6.072  19.920 -0.1063 -0.1731 -0.0581
61956DOD     C129687  12.249   1.359  18.113  0.0304 -0.1690 -0.0291
61956DOD     C229688  12.224   1.722  17.810 -0.0059 -0.1034 -0.1073
61956DOD     C329689  12.101   2.159  17.663 -0.0219  0.0132 -0.0633
61957DOD     C129690  27.340  19.917  13.238 -0.3626  0.1877  0.1589
61957DOD     C229691  27.691  19.588  13.162  0.1634 -0.1554 -0.1838
61957DOD     C329692  28.003  19.287  12.978 -0.0822 -0.0665 -0.0799
61958DOD     C129693  21.383   1.279  26.642  0.0226  0.0395 -0.4361
61958DOD     C229694  21.299   1.510  26.259  0.0314  0.1194  0.1656
61958DOD     C329695  20.999   1.724  25.935  0.3646  0.0546 -0.1204
61959DOD     C129696   3.171  14.582   6.608 -0.0824 -0.0963 -0.1587
61959DOD     C229697   3.487  14.194   6.637  0.0930 -0.0592 -0.1106
61959DOD     C329698   3.346  13.777   6.544 -0.0290  0.0123  0.2014
61960DOD     C129699   5.115  18.364  22.880  0.1380  0.0394  0.1758
61960DOD     C229700   5.538  18.552  22.904 -0.1945  0.1067  0.1354
61960DOD     C329701   5.981  18.753  22.822  0.2187 -0.1261  0.0240
61961DOD     C129702  14.448  20.210  11.297 -0.1900 -0.1302  0.4414
61961DOD     C229703  14.174  19.940  11.579 -0.3230  0.0560  0.1504
61961DOD     C329704  14.022  19.741  11.963  0.3737 -0.1069 -0.0466
61962DOD     C129705  27.780   1.623  12.671  0.2422 -0.0210  0.2647
61962DOD     C229706  27.554   1.562  13.067 -0.1841 -0.1768  0.3495
61962DOD     C329707  27.233   1.693  13.436 -0.3809  0.1208  0.3588
61963DOD     C129708  25.998  28.681  13.454  0.1894  0.0619  0.1101
61963DOD     C229709  26.183  28.281  13.490  0.2703  0.0778  0.0268
61963DOD     C329710  26.463  27.829  13.418  0.0789 -0.2475 -0.0843
61964DOD     C129711   3.601  20.627  12.709 -0.0366  0.2816  0.2260
61964DOD     C229712   3.393  20.364  12.951 -0.0307 -0.1046 -0.1448
61964DOD     C329713   3.110  20.332  13.353  0.0282 -0.0573 -0.2040
61965DOD     C129714   8.534  11.670   3.175 -0.0067  0.0783 -0.0927
61965DOD     C229715   8.870  11.662   3.508  0.1386  0.1206 -0.3604
61965DOD     C329716   8.889  11.637   3.969 -0.0717 -0.0767 -0.0630
61966DOD     C129717  16.203  22.694  15.452 -0.0620 -0.2104  0.0100
61966DOD     C229718  15.917  23.071  15.384 -0.2327  0.1033  0.0851
61966DOD     C329719  15.583  23.339  15.605 -0.0990 -0.1337 -0.3350
61967DOD     C129720   1.406  24.557  10.458 -0.0907  0.1942  0.0060
61967DOD     C229721   1.654  24.367  10.113 -0.0122 -0.2982  0.1419
61967DOD     C329722   1.716  24.076   9.724 -0.2589 -0.2213 -0.1063
61968DOD     C129723   1.886   4.295   6.301  0.0366  0.3807 -0.1400
61968DOD     C229724   1.600   3.943   6.295 -0.0650  0.1185  0.0705
61968DOD     C329725   1.204   3.644   6.333  0.3070 -0.0780 -0.1110
61969DOD     C129726  15.984   7.704   1.946  0.0191 -0.0171 -0.1005
61969DOD     C229727  16.108   7.630   2.369  0.0357 -0.0909  0.1506
61969DOD     C329728  15.983   7.399   2.781  0.0101 -0.2269  0.3126
61970DOD     C129729   4.977  23.311  24.033 -0.0555  0.4436 -0.2837
61970DOD     C229730   5.021  23.492  24.445  0.4460 -0.0284  0.1464
61970DOD     C329731   5.042  23.796  24.817  0.1103 -0.2076 -0.0699
61971DOD     C129732  14.125  20.208   6.627 -0.1785 -0.1411 -0.0825
61971DOD     C229733  14.020  20.390   6.220 -0.0005 -0.1560  0.2400
61971DOD     C329734  13.835  20.804   6.097 -0.1150  0.0578 -0.0025
61972DOD     C129735  19.067   1.132   7.025 -0.2432  0.0811  0.0879
61972DOD     C229736  19.033   1.568   7.070 -0.0319 -0.0327  0.1466
61972DOD     C329737  18.844   1.988   7.007 -0.1310  0.1265  0.0457
61973DOD     C129738  14.396  22.883   8.062  0.1019  0.0080  0.1964
61973DOD     C229739  14.664  23.047   7.749 -0.2034  0.1046 -0.0055
61973DOD     C329740  14.940  23.363   7.604 -0.1499 -0.0225 -0.0184
61974DOD     C129741  23.960  24.888   7.579  0.1502  0.1370  0.0718
61974DOD     C229742  23.986  24.963   7.108  0.3996 -0.0788 -0.0094
61974DOD     C329743  23.668  24.849   6.895  0.1009  0.1022 -0.1157
61975DOD     C129744   5.265   1.672   5.392 -0.2341  0.1592  0.2173
61975DOD     C229745   5.759   1.654   5.429  0.2594 -0.2681  0.0554
61975DOD     C329746   6.141   1.441   5.614  0.3284 -0.1365 -0.1562
61976DOD     C129747  16.049  28.885  17.361 -0.0802  0.1938  0.2097
61976DOD     C229748  16.307  28.745  16.974  0.3036 -0.0129 -0.0573
61976DOD     C329749  16.706  28.649  16.704 -0.5787  0.0036 -0.1570
61977DOD     C129750  30.216  24.953  21.664 -0.0234 -0.2911  0.0827
61977DOD     C229751  30.304  24.566  21.500  0.0875 -0.1975 -0.0260
61977DOD     C329752   0.432  24.518  21.400 -0.0137  0.1163  0.0439
61978DOD     C129753  21.426   6.864   0.950 -0.2509  0.0745  0.0036
61978DOD     C229754  21.280   7.267   1.023  0.0483  0.0043  0.1504
61978DOD     C329755  21.073   7.625   1.226  0.0166 -0.3788  0.0500
61979DOD     C129756  14.987  21.777  23.081  0.0949 -0.2979  0.1943
61979DOD     C229757  15.267  22.140  23.254  0.1839  0.1053 -0.0400
61979DOD     C329758  15.166  22.351  23.625  0.0983 -0.0427  0.0397
61980DOD     C129759  23.807  17.347   1.418 -0.3610  0.1609  0.1243
61980DOD     C229760  23.935  17.047   1.718 -0.0875  0.0823 -0.0644
61980DOD     C329761  24.003  16.592   1.786 -0.2796 -0.1196  0.0232
61981DOD     C129762  12.459   4.845   2.677 -0.0656  0.0420 -0.0673
61981DOD     C229763  12.087   4.650   2.429 -0.0987 -0.1175 -0.2880
61981DOD     C329764  11.751   4.452   2.179  0.2897  0.3272 -0.3640
61982DOD     C129765   1.037  25.911  23.801 -0.1291 -0.1486 -0.1076
61982DOD     C229766   1.440  25.616  23.890 -0.1525  0.1539  0.0299
61982DOD     C329767   1.629  25.196  24.079 -0.0372 -0.0631  0.0072
61983DOD     C129768  22.413  13.736  22.628 -0.0444  0.0722  0.0964
61983DOD     C229769  22.447  13.631  22.166 -0.1138 -0.0375 -0.2614
61983DOD     C329770  22.446  13.589  21.682  0.2500 -0.2040 -0.4407
61984DOD     C129771  10.654  12.772  15.120 -0.1274 -0.2819 -0.3726
61984DOD     C229772  10.698  12.413  14.814 -0.3489 -0.0974  0.0784
61984DOD     C329773  10.646  12.399  14.349  0.1158 -0.0939 -0.0711
61985DOD     C129774  27.494   7.320  20.509  0.6726 -0.2732 -0.0825
61985DOD     C229775  27.513   7.127  20.890 -0.0511 -0.2156  0.3741
61985DOD     C329776  27.250   7.075  21.291 -0.0137 -0.1268 -0.0176
61986DOD     C129777  13.307  12.704  19.131  0.1995 -0.0166 -0.1169
61986DOD     C229778  13.427  12.261  18.978  0.0459 -0.1183  0.5789
61986DOD     C329779  13.143  11.996  18.697  0.1549 -0.0245  0.0756
61987DOD     C129780  17.396  17.644   9.835 -0.0990  0.0911  0.0344
61987DOD     C229781  17.356  17.544  10.317  0.2100 -0.1604  0.0637
61987DOD     C329782  17.594  17.354  10.711 -0.1220  0.1041 -0.0364
61988DOD     C129783  10.769  27.032   8.700 -0.1672  0.1178 -0.2863
61988DOD     C229784  10.980  27.231   8.335 -0.0850  0.1225  0.1285
61988DOD     C329785  11.216  27.388   8.005  0.3178 -0.0018 -0.1739
61989DOD     C129786  24.323   9.494   8.996 -0.0779  0.1082  0.2286
61989DOD     C229787  23.972   9.758   8.936  0.0616  0.0853  0.0090
61989DOD     C329788  23.735  10.167   9.054 -0.0674  0.4556  0.1038
61990DOD     C129789  11.114  24.672  16.307  0.0185  0.0785 -0.1366
61990DOD     C229790  10.855  25.008  16.554 -0.3180 -0.1341 -0.0821
61990DOD     C329791  10.586  24.936  16.986 -0.0017 -0.1401  0.0393
61991DOD     C129792  17.387   7.449  15.920  0.3340  0.1580 -0.0619
61991DOD     C229793  17.545   7.195  15.610 -0.0202  0.0348 -0.0008
61991DOD     C329794  17.435   7.217  15.147 -0.0204 -0.2542 -0.3663
61992DOD     C129795   3.702  19.678  28.518  0.0171 -0.0447  0.0281
61992DOD     C229796   3.349  20.007  28.606 -0.0752 -0.0533 -0.1722
61992DOD     C329797   3.022  20.218  28.646  0.0955 -0.0750  0.0680
61993DOD     C129798  27.006  20.600   2.874 -0.0124  0.0184  0.0621
61993DOD     C229799  26.988  21.010   2.572 -0.2447 -0.1855  0.1982
61993DOD     C329800  27.352  21.129   2.206  0.1874 -0.2150 -0.0003
61994DOD     C129801  10.076   9.624  17.179  0.2512 -0.3227  0.0871
61994DOD     C229802  10.050   9.609  16.716 -0.0827  0.1528  0.1062
61994DOD     C329803   9.973  10.054  16.436  0.2176 -0.0783 -0.1773
61995DOD     C129804  22.587  27.371  15.272  0.1522 -0.0969 -0.0956
61995DOD     C229805  22.491  27.735  15.022 -0.0512  0.1451 -0.1383
61995DOD     C329806  22.739  28.114  14.894  0.1745 -0.1160  0.1427
61996DOD     C129807  24.054  28.284   6.395  0.1622 -0.3790  0.2821
61996DOD     C229808  23.601  28.259   6.494  0.1956 -0.1235 -0.1076
61996DOD     C329809  23.325  28.380   6.812  0.0530 -0.0317  0.1055
61997DOD     C129810   6.538  19.346  18.357 -0.1015 -0.0449 -0.0079
61997DOD     C229811   6.246  19.056  18.191  0.0566 -0.0597 -0.1053
61997DOD     C329812   5.868  18.821  17.955  0.1450  0.1363  0.3769
61998DOD     C129813  25.008  27.370   4.102 -0.0412 -0.0250  0.0971
61998DOD     C229814  25.093  27.734   4.382 -0.3089  0.0322  0.0723
61998DOD     C329815  25.507  27.746   4.567 -0.1826 -0.2848 -0.1314
61999DOD     C129816   5.018   8.578  11.114 -0.1699 -0.1491 -0.3202
61999DOD     C229817   5.240   9.016  11.315 -0.0149  0.0605 -0.0100
61999DOD     C329818   5.657   9.117  11.410 -0.1690 -0.2971 -0.1806
62000DOD     C129819   5.579   5.900  10.411 -0.0497  0.1904 -0.1639
62000DOD     C229820   5.448   5.612  10.709 -0.0192 -0.2200 -0.0981
62000DOD     C329821   5.342   5.203  10.892 -0.3876  0.2085 -0.1335
62001DOD     C129822   3.587  20.362  15.905  0.2005 -0.1772  0.0388
62001DOD     C229823   3.823  20.625  16.156  0.1255 -0.0963 -0.0574
62001DOD     C329824   3.953  21.020  16.019 -0.1108 -0.0490 -0.0183
62002DOD     C129825  13.111  17.155  10.038  0.1624 -0.0273 -0.1896
62002DOD     C229826  13.291  17.432  10.391 -0.1377  0.0585 -0.0303
62002DOD     C329827  13.473  17.845  10.530 -0.0933 -0.0261 -0.0468
62003DOD     C129828   5.487  21.696   1.613  0.0433 -0.1318  0.0506
62003DOD     C229829   5.440  21.187   1.518 -0.3623  0.0440  0.0000
62003DOD     C329830   5.319  20.740   1.335 -0.0693  0.3752 -0.1460
62004DOD     C129831  27.354  13.754  19.423  0.0112  0.0144  0.1324
62004DOD     C229832  27.401  13.786  19.862 -0.0664 -0.0477 -0.0395
62004DOD     C329833  27.582  13.683  20.261  0.2170 -0.1111  0.3051
62005DOD     C129834   2.717  18.927  29.125 -0.1782  0.2730 -0.0545
62005DOD     C229835   2.739  18.728  29.545 -0.2695  0.3886  0.0189
62005DOD     C329836   3.065  18.560  29.835  0.1318 -0.4269  0.2032
62006DOD     C129837  27.572  27.507   5.721 -0.1702  0.1371  0.0436
62006DOD     C229838  28.024  27.329   5.553  0.0195  0.2227 -0.0664
62006DOD     C329839  28.467  27.194   5.617 -0.2145  0.2584  0.0632
62007DOD     C129840  14.149  22.427  29.293 -0.2633  0.2406  0.1931
62007DOD     C229841  14.400  22.307  28.906  0.0639 -0.4646 -0.0820
62007DOD     C329842  14.504  22.445  28.497 -0.0165 -0.1057 -0.1786
62008DOD     C129843  25.405   8.658  24.037  0.0338 -0.1922 -0.1902
62008DOD     C229844  25.056   8.999  23.983  0.0729  0.0087 -0.4143
62008DOD     C329845  24.792   9.032  23.638 -0.1304 -0.3288 -0.1281
62009DOD     C129846   3.315  20.908  19.118  0.1744 -0.0111  0.1238
62009DOD     C229847   3.656  20.910  19.409 -0.3338  0.0820  0.2547
62009DOD     C329848   3.929  20.569  19.632  0.1947 -0.0510  0.1040
62010DOD     C129849   8.586  13.236   8.534  0.1256  0.0977  0.1546
62010DOD     C229850   8.111  13.250   8.385  0.1587 -0.0401 -0.4124
62010DOD     C329851   7.648  13.150   8.203 -0.0201  0.1441  0.4131
62011DOD     C129852  28.479  24.565   4.677 -0.0083  0.1201  0.0348
62011DOD     C229853  28.488  24.096   4.832 -0.0731  0.0767  0.0517
62011DOD     C329854  28.108  23.856   4.945 -0.1792 -0.1585 -0.0883
62012DOD     C129855  10.339  17.217  20.437  0.1776  0.1308  0.0548
62012DOD     C229856   9.881  17.282  20.568 -0.3327  0.0361  0.1727
62012DOD     C329857   9.445  17.166  20.652  0.0453  0.2212 -0.0878
62013DOD     C129858   5.813   8.642   8.314  0.2802  0.0395 -0.0449
62013DOD     C229859   5.719   8.514   7.848 -0.1887 -0.2361 -0.0380
62013DOD     C329860   5.391   8.274   7.585  0.0740  0.0092  0.0378
62014DOD     C129861  10.398  21.638   4.378 -0.0446  0.0756 -0.2655
62014DOD     C229862  10.131  21.989   4.359  0.2983  0.1133  0.1161
62014DOD     C329863   9.901  22.371   4.211  0.0839  0.3846  0.2961
62015DOD     C129864  27.534   5.478  15.358  0.0623  0.0721 -0.2399
62015DOD     C229865  27.509   5.983  15.344 -0.2825 -0.1100  0.3239
62015DOD     C329866  27.384   6.463  15.433 -0.0819 -0.2984  0.1522
62016DOD     C129867  13.560  27.756   2.822  0.0649 -0.3356  0.1112
62016DOD     C229868  13.846  27.462   3.071 -0.0756 -0.2380 -0.2788
62016DOD     C329869  14.221  27.192   3.174 -0.1005  0.0060 -0.1697
62017DOD     C129870   7.768   4.142  18.134 -0.0764  0.0324 -0.0599
62017DOD     C229871   7.910   4.364  18.530 -0.1913  0.0078  0.0787
62017DOD     C329872   8.110   4.522  18.935  0.1310 -0.2089 -0.1445
62018DOD     C129873  23.237   4.518  16.224 -0.0695  0.2455 -0.0057
62018DOD     C229874  23.076   4.735  15.816 -0.1599 -0.0515  0.1664
62018DOD     C329875  22.800   5.063  15.589 -0.1102  0.0861  0.0128
62019DOD     C129876   2.320  26.838  30.278  0.1884 -0.0948  0.2495
62019DOD     C229877   2.359  26.638   0.464  0.3788  0.1107 -0.1350
62019DOD     C329878   2.396  26.843   0.864  0.2099  0.0662  0.0479
62020DOD     C129879  19.206  10.543   3.714  0.2699 -0.1479  0.0729
62020DOD     C229880  18.887  10.836   3.518  0.2035  0.0058  0.2600
62020DOD     C329881  18.532  11.138   3.571 -0.0762  0.1650  0.0980
62021DOD     C129882  18.593   4.592   8.178 -0.1892  0.2477  0.1600
62021DOD     C229883  18.999   4.588   8.412  0.0277  0.0537  0.1046
62021DOD     C329884  19.086   4.350   8.795  0.2668 -0.1141  0.0891
62022DOD     C129885  30.220  15.352   1.755 -0.0916  0.0085 -0.2779
62022DOD     C229886   0.177  15.680   1.551 -0.3607 -0.2977  0.0425
62022DOD     C329887   0.432  16.033   1.347 -0.0947  0.0614  0.3809
62023DOD     C129888  25.474  20.514  17.744 -0.2444  0.0575 -0.0413
62023DOD     C229889  25.550  20.875  17.411  0.0520  0.1331  0.0338
62023DOD     C329890  25.828  20.791  17.008 -0.0916  0.2247  0.0122
62024DOD     C129891  15.464  29.628   1.860 -0.0147 -0.1915 -0.1478
62024DOD     C229892  15.109  29.341   1.814 -0.0480 -0.0421  0.0290
62024DOD     C329893  15.046  28.896   1.852 -0.1406 -0.1983  0.2682
62025DOD     C129894  14.903  27.138  23.378  0.1190  0.0041  0.0152
62025DOD     C229895  15.070  27.529  23.126  0.1669  0.2757  0.1329
62025DOD     C329896  15.266  27.884  22.876  0.0622 -0.0303 -0.1662
62026DOD     C129897  25.198  15.379   7.131 -0.2123  0.0273  0.0973
62026DOD     C229898  25.675  15.438   7.076  0.0013  0.1452 -0.3600
62026DOD     C329899  26.132  15.321   6.978 -0.1326 -0.2194  0.2565
62027DOD     C129900   8.009   0.189  12.687  0.0700  0.2818  0.3633
62027DOD     C229901   7.719  30.223  12.929  0.0570  0.2997  0.1653
62027DOD     C329902   7.582  29.902  13.206  0.0133  0.0717 -0.1196
62028DOD     C129903  23.080  28.568  16.699  0.1382  0.3353  0.4433
62028DOD     C229904  23.283  28.825  16.391  0.2689  0.0462  0.1358
62028DOD     C329905  23.707  28.927  16.462 -0.1079  0.1509 -0.0545
62029DOD     C129906  15.805  22.454   9.747  0.1559 -0.0088 -0.2501
62029DOD     C229907  15.463  22.430  10.036 -0.0213 -0.3007 -0.2878
62029DOD     C329908  15.151  22.752  10.255  0.3451 -0.2228 -0.0094
62030DOD     C129909  25.639  16.050  15.068  0.2909 -0.1845 -0.2040
62030DOD     C229910  25.348  15.660  15.218 -0.1619  0.0638  0.1540
62030DOD     C329911  25.013  15.273  15.377 -0.0210 -0.0880  0.0416
62031DOD     C129912  23.130  21.522   1.808  0.0743  0.0206 -0.1255
62031DOD     C229913  22.973  21.077   1.842  0.3245  0.0067 -0.1044
62031DOD     C329914  23.141  20.703   1.616  0.3116  0.0487 -0.0572
62032DOD     C129915  12.090  22.608   3.634  0.1786 -0.0386 -0.2848
62032DOD     C229916  11.802  22.249   3.860  0.1646  0.2970  0.1023
62032DOD     C329917  11.690  22.327   4.321 -0.1827 -0.0801 -0.0602
62033DOD     C129918   4.672  17.778  24.266 -0.1713 -0.1270  0.1158
62033DOD     C229919   4.842  17.422  24.481  0.3621 -0.0590 -0.0502
62033DOD     C329920   5.103  17.337  24.842 -0.1821  0.0066  0.0017
62034DOD     C129921  17.071  30.286  14.861 -0.2081  0.0079  0.1203
62034DOD     C229922  17.146   0.057  14.416  0.1260  0.0152 -0.1495
62034DOD     C329923  17.441   0.332  14.200 -0.0428  0.0725 -0.0876
62035DOD     C129924  25.068  23.061  21.060 -0.1030  0.1710  0.2511
62035DOD     C229925  25.374  23.339  20.839  0.1793  0.2001 -0.2388
62035DOD     C329926  25.582  23.766  20.693  0.1994  0.0101  0.0772
62036DOD     C129927  28.781   8.603  22.868 -0.1887 -0.2395 -0.0610
62036DOD     C229928  29.092   9.018  23.023  0.0081 -0.1167 -0.1233
62036DOD     C329929  29.180   9.377  22.711 -0.2762  0.0913 -0.0823
62037DOD     C129930   9.197  22.638   3.043 -0.2719  0.1990  0.0339
62037DOD     C229931   8.781  22.598   2.875  0.2235 -0.1197  0.1687
62037DOD     C329932   8.349  22.328   2.936 -0.0461 -0.0350 -0.2495
62038DOD     C129933  20.856   8.179  27.883 -0.0696 -0.0229 -0.0006
62038DOD     C229934  21.323   8.108  27.940  0.2486  0.2200 -0.0518
62038DOD     C329935  21.741   7.884  27.907  0.1087 -0.1923  0.1555
62039DOD     C129936  28.673  10.383   6.232 -0.0970  0.1265  0.0683
62039DOD     C229937  28.710  10.739   6.574 -0.0433  0.0226  0.0356
62039DOD     C329938  28.684  10.747   7.070 -0.1257 -0.0679 -0.0164
62040DOD     C129939   5.609  21.376  17.479  0.0574  0.0887  0.4185
62040DOD     C229940   5.232  21.120  17.294  0.1659  0.1638 -0.3733
62040DOD     C329941   4.840  20.894  17.226  0.0313  0.2281 -0.1745
62041DOD     C129942   8.088  22.359  11.124 -0.1856  0.2701 -0.0411
62041DOD     C229943   7.639  22.330  10.988  0.0660 -0.1373 -0.0183
62041DOD     C329944   7.419  22.536  10.589 -0.1727 -0.0360 -0.0638
62042DOD     C129945  27.209   3.430   5.252  0.2291 -0.0998 -0.0018
62042DOD     C229946  26.796   3.653   5.326 -0.3187  0.0318  0.0745
62042DOD     C329947  26.453   3.898   5.110  0.5643  0.0034  0.0886
62043DOD     C129948  15.001  10.001   4.847  0.2587 -0.2924  0.2828
62043DOD     C229949  14.871   9.801   4.482  0.1314  0.0667  0.1720
62043DOD     C329950  14.548   9.691   4.122 -0.1833  0.0294  0.0749
62044DOD     C129951  13.477  30.370  24.474  0.0211  0.2538  0.1508
62044DOD     C229952  13.136   0.109  24.710 -0.0930 -0.1191  0.2084
62044DOD     C329953  12.667   0.243  24.635 -0.2326  0.2282  0.1550
62045DOD     C129954  10.986  12.118  20.519  0.0285 -0.4378  0.0513
62045DOD     C229955  10.957  12.562  20.427 -0.1407  0.1569 -0.0048
62045DOD     C329956  10.837  12.956  20.327  0.1994  0.0434  0.0799
62046DOD     C129957   2.266  21.594  26.255 -0.0558 -0.1673 -0.0639
62046DOD     C229958   2.499  21.196  26.394 -0.0404  0.1636  0.0888
62046DOD     C329959   2.780  20.911  26.159 -0.3298  0.1068  0.0969
62047DOD     C129960  25.870   6.440  14.979  0.1746 -0.0959  0.1451
62047DOD     C229961  25.540   6.100  14.998 -0.0503 -0.0020 -0.2001
62047DOD     C329962  25.150   5.897  15.172  0.3718 -0.0508 -0.2228
62048DOD     C129963  19.237  10.881   5.268  0.3290  0.3256  0.1897
62048DOD     C229964  19.033  10.934   5.638  0.0878  0.0928  0.2696
62048DOD     C329965  19.038  11.053   6.070  0.0625 -0.1281 -0.1333
62049DOD     C129966   7.298   0.788  24.558 -0.0254 -0.0388 -0.0073
62049DOD     C229967   7.559   0.758  24.944  0.0817  0.0539 -0.1088
62049DOD     C329968   7.673   0.459  25.282 -0.1037  0.1112 -0.0576
62050DOD     C129969  11.787  27.118   3.320 -0.2437  0.1534  0.0446
62050DOD     C229970  11.787  26.673   3.491 -0.0281 -0.0782 -0.2037
62050DOD     C329971  11.933  26.270   3.638 -0.3194 -0.0671 -0.0010
62051DOD     C129972  30.253   2.792  15.487 -0.0477 -0.0550  0.0899
62051DOD     C229973  29.937   2.773  15.101 -0.0272  0.0334 -0.1713
62051DOD     C329974  29.810   2.853  14.640  0.2820 -0.1778 -0.0720
62052DOD     C129975  18.329  18.833  13.785 -0.3239 -0.0531  0.0138
62052DOD     C229976  18.577  19.078  13.458 -0.0112 -0.0446 -0.1319
62052DOD     C329977  19.050  19.068  13.555  0.0077 -0.0637 -0.0713
62053DOD     C129978  15.736   5.079  27.351  0.1043 -0.0929  0.2232
62053DOD     C229979  15.516   4.775  27.034  0.1420  0.0337  0.1503
62053DOD     C329980  15.503   4.760  26.588  0.0106 -0.1594 -0.4021
62054DOD     C129981   6.813  17.075  14.659  0.3206 -0.1638 -0.0636
62054DOD     C229982   6.518  16.853  14.916  0.2434 -0.2801 -0.0014
62054DOD     C329983   6.071  16.959  14.946 -0.1022  0.1739 -0.0230
62055DOD     C129984   9.641  19.959   9.943  0.1416  0.0268 -0.2902
62055DOD     C229985   9.839  20.370   9.917  0.0179 -0.0111 -0.1014
62055DOD     C329986   9.695  20.809   9.784 -0.0097 -0.2401 -0.0687
62056DOD     C129987  11.974  29.745  14.712 -0.1384  0.0691 -0.0192
62056DOD     C229988  11.907  29.873  14.284 -0.1407  0.2145 -0.0281
62056DOD     C329989  12.161  29.924  13.942  0.0114  0.0576 -0.1261
62057DOD     C129990  23.336  13.171  15.146 -0.0649  0.1766 -0.0392
62057DOD     C229991  23.026  13.277  14.849  0.1634 -0.0161 -0.2931
62057DOD     C329992  22.644  13.541  14.732 -0.2527 -0.1685 -0.2342
62058DOD     C129993   3.518   8.193  23.286 -0.0066  0.1560  0.3351
62058DOD     C229994   3.610   7.755  23.229 -0.0387 -0.3029 -0.0474
62058DOD     C329995   3.752   7.430  23.465 -0.2369 -0.0733 -0.1642
62059DOD     C129996   9.573  29.832  14.459  0.2086  0.0872 -0.2224
62059DOD     C229997   9.374  30.143  14.126 -0.1145 -0.5361  0.3131
62059DOD     C329998   8.943  30.123  13.828 -0.2620  0.2034  0.0208
62060DOD     C129999  11.345   0.523  20.984 -0.1076  0.2346 -0.2221
62060DOD     C230000  11.660   0.826  21.114 -0.0053 -0.0610 -0.1038
62060DOD     C330001  11.490   1.156  21.414 -0.1156  0.0692  0.3052
62061DOD     C130002   6.157  25.633  15.548 -0.3357 -0.1309  0.1342
62061DOD     C230003   6.094  25.676  15.054  0.1214  0.1414 -0.3159
62061DOD     C330004   5.872  25.516  14.740 -0.0374 -0.0201 -0.0008
62062DOD     C130005  14.314  10.004   2.004 -0.2255  0.0772  0.1612
62062DOD     C230006  13.978   9.969   2.393  0.0211  0.2878  0.1912
62062DOD     C330007  13.548   9.768   2.493 -0.1653  0.1164  0.2442
62063DOD     C130008  28.988   5.785  12.128 -0.0781  0.0095  0.1770
62063DOD     C230009  28.764   5.923  12.457  0.0625 -0.1819 -0.0654
62063DOD     C330010  28.642   6.093  12.898 -0.3233  0.0280 -0.0520
62064DOD     C130011  28.518   4.781  21.277  0.0856  0.1406 -0.1392
62064DOD     C230012  28.699   4.438  21.565  0.0806  0.0167  0.0633
62064DOD     C330013  28.692   4.142  21.908 -0.1547  0.1036  0.0514
62065DOD     C130014  15.576  23.688  14.667 -0.1579 -0.0827 -0.1709
62065DOD     C230015  15.877  23.892  15.004 -0.0894 -0.0715  0.2002
62065DOD     C330016  16.003  24.182  15.312  0.4129 -0.1936  0.0465
62066DOD     C130017  17.760  21.075  21.435 -0.1521 -0.1554  0.0993
62066DOD     C230018  17.745  20.892  21.905  0.0054 -0.1149 -0.0078
62066DOD     C330019  18.024  20.842  22.315 -0.1714  0.1559 -0.2121
62067DOD     C130020  29.298   0.347  27.127 -0.4427  0.0217 -0.2522
62067DOD     C230021  29.763   0.501  27.251  0.0246 -0.0750 -0.1319
62067DOD     C330022  30.084   0.147  27.429 -0.1573  0.0140  0.1324
62068DOD     C130023   6.545  24.473  22.693  0.1163  0.3879  0.0546
62068DOD     C230024   6.238  24.747  22.497 -0.0509  0.2659  0.0322
62068DOD     C330025   6.386  25.121  22.336 -0.2462 -0.4671  0.0247
62069DOD     C130026   4.801   6.877   4.951  0.2271 -0.2383 -0.0005
62069DOD     C230027   5.229   6.871   5.088 -0.0257  0.3120 -0.0512
62069DOD     C330028   5.664   7.095   4.945 -0.0115  0.2447 -0.0780
62070DOD     C130029  20.922   5.980   5.385 -0.3467  0.2365 -0.2812
62070DOD     C230030  20.615   6.281   5.228 -0.1992 -0.1416 -0.2547
62070DOD     C330031  20.169   6.478   5.218  0.0511 -0.1752  0.0289
62071DOD     C130032  28.813   9.086  29.888 -0.0900 -0.0656  0.1554
62071DOD     C230033  28.805   8.678  29.666  0.1465 -0.0816 -0.0188
62071DOD     C330034  29.011   8.350  29.382  0.2803  0.0248 -0.0850
62072DOD     C130035  15.136  24.135   7.069  0.0119  0.0246  0.0387
62072DOD     C230036  14.785  24.214   6.719 -0.0175  0.0138 -0.1245
62072DOD     C330037  14.359  24.259   6.548  0.1947 -0.0478 -0.0896
62073DOD     C130038   6.227   7.857  25.364  0.1056 -0.0159  0.2633
62073DOD     C230039   6.032   8.173  25.654 -0.0153  0.2371 -0.0938
62073DOD     C330040   5.745   8.197  26.020  0.1808 -0.1025  0.2765
62074DOD     C130041  20.776  20.558   1.894  0.0158 -0.2654 -0.0798
62074DOD     C230042  20.745  20.220   1.657 -0.0820 -0.0974 -0.0348
62074DOD     C330043  20.773  19.956   1.237 -0.2378 -0.0909 -0.5063
62075DOD     C130044  14.992  19.944  22.168  0.0932  0.0618  0.2133
62075DOD     C230045  15.427  20.017  21.885 -0.0457 -0.1367 -0.0756
62075DOD     C330046  15.657  20.045  21.448  0.1683 -0.1265  0.1381
62076DOD     C130047   1.056   6.588  14.831 -0.2486 -0.2426 -0.2716
62076DOD     C230048   0.588   6.430  14.931  0.0639  0.0576  0.1377
62076DOD     C330049   0.136   6.387  14.987  0.1717 -0.2506  0.0621
62077DOD     C130050  29.964  23.674  15.808 -0.0862  0.1650  0.3474
62077DOD     C230051   0.094  23.512  15.779  0.3635 -0.1033 -0.1932
62077DOD     C330052   0.564  23.532  15.904  0.1234  0.1597 -0.2298
62078DOD     C130053  15.305   7.076  26.398  0.1478 -0.1647  0.1162
62078DOD     C230054  15.582   7.008  26.009  0.0333 -0.3436 -0.0426
62078DOD     C330055  15.675   7.154  25.589  0.0281  0.0797  0.0697
62079DOD     C130056  15.264   4.357  17.883  0.2218  0.3626 -0.1629
62079DOD     C230057  15.083   4.679  17.655 -0.1281  0.0626  0.0714
62079DOD     C330058  15.056   4.997  17.369 -0.1397  0.0271  0.0811
62080DOD     C130059  19.024  12.723  30.150 -0.2164  0.1382  0.2908
62080DOD     C230060  19.443  12.913  30.251  0.0065 -0.1764 -0.0111
62080DOD     C330061  19.464  13.425  30.182  0.1225  0.4517  0.2646
62081DOD     C130062  30.005  10.804   0.841 -0.0711  0.0805  0.2822
62081DOD     C230063  29.894  11.233   0.986  0.3531 -0.1878 -0.2072
62081DOD     C330064  29.809  11.707   0.924  0.2838  0.2474 -0.2532
62082DOD     C130065   3.670  17.777  23.788 -0.1525 -0.3632  0.4876
62082DOD     C230066   3.973  17.475  23.809  0.1151 -0.0942  0.2316
62082DOD     C330067   4.392  17.212  23.777  0.0501  0.1046 -0.1868
62083DOD     C130068  21.419  16.553   9.660 -0.2906  0.0270 -0.2430
62083DOD     C230069  21.936  16.504   9.763  0.2464  0.1822 -0.0133
62083DOD     C330070  22.389  16.400   9.911  0.2074 -0.2444  0.0665
62084DOD     C130071  14.831  10.801   0.185 -0.3477 -0.0978  0.2133
62084DOD     C230072  14.734  10.700   0.611  0.2067  0.0558  0.1413
62084DOD     C330073  14.366  10.762   0.810  0.1489 -0.0901  0.1390
62085DOD     C130074   2.922  26.961  23.739  0.0366 -0.1199  0.2485
62085DOD     C230075   2.882  27.117  24.154 -0.2341 -0.0456 -0.0002
62085DOD     C330076   2.662  27.220  24.551 -0.1045 -0.1141  0.0415
62086DOD     C130077   1.943  15.847  18.316 -0.2918  0.2192 -0.0130
62086DOD     C230078   1.904  16.201  18.606 -0.1563  0.0270  0.0553
62086DOD     C330079   1.948  16.311  19.008 -0.0788  0.1729  0.2370
62087DOD     C130080  28.526   3.051  11.020  0.0601  0.1161 -0.1662
62087DOD     C230081  28.287   3.067  11.405 -0.1581 -0.0069  0.0241
62087DOD     C330082  28.149   2.976  11.843 -0.3558  0.0920  0.1278
62088DOD     C130083  21.896  18.758   3.926  0.0264 -0.0344 -0.0865
62088DOD     C230084  22.232  18.638   3.658 -0.2303 -0.1404 -0.0227
62088DOD     C330085  22.224  18.484   3.162 -0.0460 -0.0331 -0.0020
62089DOD     C130086  16.284  24.971   1.471  0.1391 -0.0505  0.2068
62089DOD     C230087  16.023  24.703   1.169  0.1166 -0.0267 -0.1199
62089DOD     C330088  16.048  24.394   0.852  0.0226  0.1315 -0.3332
62090DOD     C130089  18.390   5.506  27.381  0.0161 -0.2379  0.1704
62090DOD     C230090  18.545   5.785  26.994  0.0479 -0.1193  0.0289
62090DOD     C330091  18.821   6.189  26.821 -0.1267  0.2770 -0.2850
62091DOD     C130092  15.079  20.603  16.647 -0.0626 -0.0788  0.2311
62091DOD     C230093  15.395  20.501  16.960  0.2445  0.1590  0.0004
62091DOD     C330094  15.738  20.608  17.212  0.1566 -0.1227  0.0902
62092DOD     C130095  17.118  27.348   5.781  0.5122  0.0207 -0.0015
62092DOD     C230096  16.859  27.003   5.958  0.2082  0.0489  0.2219
62092DOD     C330097  16.501  26.840   6.180  0.0565  0.0578 -0.2516
62093DOD     C130098   7.970   4.988   6.609 -0.2827 -0.0944  0.0209
62093DOD     C230099   8.373   4.808   6.375 -0.1320  0.0288 -0.1332
62093DOD     C330100   8.771   4.660   6.218  0.1054 -0.1894  0.1176
62094DOD     C130101  12.341   7.505   9.279  0.1222  0.1124  0.0577
62094DOD     C230102  12.497   7.277   9.647 -0.4243  0.0662 -0.0234
62094DOD     C330103  12.755   7.016   9.970 -0.1816  0.0367 -0.1231
62095DOD     C130104  27.369  26.071   6.992  0.1368 -0.1678 -0.3164
62095DOD     C230105  27.044  25.997   6.653  0.0167 -0.1399 -0.2849
62095DOD     C330106  26.764  25.729   6.391 -0.3117  0.0859 -0.3310
62096DOD     C130107   3.771  24.843  24.301  0.2385 -0.2037  0.1294
62096DOD     C230108   3.795  25.233  24.546 -0.0258 -0.3022 -0.0590
62096DOD     C330109   3.689  25.699  24.715 -0.1634 -0.1668  0.0386
62097DOD     C130110  10.617   5.530  22.170 -0.2875  0.0113 -0.1918
62097DOD     C230111  10.851   5.906  22.341  0.1990 -0.0645  0.0888
62097DOD     C330112  11.070   6.256  22.537  0.2149 -0.0382  0.1073
62098DOD     C130113   9.632   6.494   2.233  0.2080  0.1012  0.0987
62098DOD     C230114   9.938   6.600   2.615 -0.3230  0.0898  0.0148
62098DOD     C330115  10.099   6.950   2.838 -0.0004  0.3933  0.1139
62099DOD     C130116  29.209  20.818   5.222  0.0790  0.0385 -0.2079
62099DOD     C230117  29.194  20.562   4.916 -0.0166  0.0584 -0.2862
62099DOD     C330118  29.191  20.378   4.470  0.2620  0.0849 -0.0215
62100DOD     C130119  11.584  29.516  14.418 -0.0043 -0.1099 -0.1046
62100DOD     C230120  11.671  29.211  14.070  0.0527 -0.1733  0.0961
62100DOD     C330121  11.873  28.810  14.252  0.4259 -0.0780  0.0985
62101DOD     C130122  18.315  18.583   4.757  0.0008  0.0602 -0.0471
62101DOD     C230123  18.614  18.281   4.642 -0.0100  0.0272 -0.1435
62101DOD     C330124  18.822  17.866   4.568  0.1688 -0.2644  0.0415
62102DOD     C130125  18.474  20.149  26.590  0.0916  0.1129  0.0902
62102DOD     C230126  18.440  19.967  27.057 -0.2005 -0.2655 -0.0882
62102DOD     C330127  18.372  19.742  27.483 -0.3896 -0.0150  0.3653
62103DOD     C130128   8.065   3.162  15.710 -0.2106  0.1264  0.0396
62103DOD     C230129   8.155   3.582  15.575 -0.0799  0.0114 -0.1044
62103DOD     C330130   7.865   3.967  15.485  0.0876 -0.0078 -0.0101
62104DOD     C130131  14.451  17.988  21.647 -0.1755  0.0099 -0.1891
62104DOD     C230132  14.769  17.789  21.880 -0.1984  0.0930  0.1501
62104DOD     C330133  15.123  17.671  22.111  0.1819 -0.0773 -0.1607
62105DOD     C130134   1.137  24.756   6.854  0.4346  0.0650 -0.3749
62105DOD     C230135   1.158  25.160   6.926 -0.2614  0.2671  0.0752
62105DOD     C330136   1.562  25.450   6.834  0.1583  0.4965 -0.0272
62106DOD     C130137  19.450  20.689   1.425  0.2326  0.0259  0.1099
62106DOD     C230138  19.587  20.791   1.050 -0.1220  0.1473 -0.3294
62106DOD     C330139  19.535  21.133   0.737 -0.0275 -0.2376  0.3442
62107DOD     C130140  18.979  13.006   1.933  0.0354 -0.0101  0.1304
62107DOD     C230141  19.259  13.405   2.037  0.0508  0.2399 -0.0959
62107DOD     C330142  19.470  13.827   2.010 -0.3257 -0.1167  0.2099
62108DOD     C130143  19.104  11.912  21.325 -0.1556 -0.4172 -0.2365
62108DOD     C230144  19.315  12.137  21.670  0.3414 -0.1781  0.2460
62108DOD     C330145  19.623  12.326  21.963  0.0691 -0.0221  0.2228
62109DOD     C130146  19.753  10.089  18.603  0.0209 -0.1498 -0.1527
62109DOD     C230147  19.440  10.129  18.282 -0.0203  0.4133 -0.1532
62109DOD     C330148  19.052  10.036  18.025 -0.1032  0.1411 -0.0730
62110DOD     C130149   7.680  19.890  15.477 -0.2543 -0.0773 -0.0176
62110DOD     C230150   7.431  20.256  15.732  0.0204 -0.1140 -0.1072
62110DOD     C330151   7.248  20.586  16.007 -0.1092  0.4114 -0.2279
62111DOD     C130152   6.800  18.527  17.047 -0.0794  0.2404 -0.2755
62111DOD     C230153   6.405  18.726  16.825  0.1394 -0.1493 -0.2465
62111DOD     C330154   6.098  18.674  16.412 -0.2080  0.1268  0.0087
62112DOD     C130155  19.897  21.725  27.697 -0.0421  0.0682 -0.0590
62112DOD     C230156  20.091  21.323  27.652 -0.0597  0.0293 -0.1642
62112DOD     C330157  20.286  20.921  27.470 -0.0182  0.1142 -0.0338
62113DOD     C130158  19.425  14.149  25.631  0.1997 -0.0193 -0.1321
62113DOD     C230159  19.565  13.893  25.926 -0.1200  0.0090  0.0011
62113DOD     C330160  19.605  13.461  26.036 -0.2184 -0.0598 -0.2526
62114DOD     C130161  13.667  17.030  13.805  0.1412  0.1293  0.0419
62114DOD     C230162  13.399  16.807  14.124 -0.0712  0.2756  0.3876
62114DOD     C330163  13.079  16.455  14.188 -0.0271 -0.2320 -0.0895
62115DOD     C130164  11.573  21.128   2.776 -0.1489  0.1299 -0.2165
62115DOD     C230165  11.478  21.638   2.760  0.2746  0.0800  0.1579
62115DOD     C330166  11.388  21.995   3.053 -0.1721  0.0394 -0.3948
62116DOD     C130167   8.717   8.915   9.971  0.3889 -0.1982  0.1705
62116DOD     C230168   8.788   9.256   9.662 -0.2000  0.0035  0.2193
62116DOD     C330169   8.556   9.378   9.201 -0.1623  0.2536 -0.3121
62117DOD     C130170   6.480  15.610   0.748  0.1424 -0.1974 -0.2551
62117DOD     C230171   6.523  16.083   0.721 -0.1212  0.2980  0.0562
62117DOD     C330172   6.877  16.337   0.794 -0.0955 -0.0654 -0.2687
62118DOD     C130173  17.945  25.727   0.483 -0.0014  0.2894  0.1413
62118DOD     C230174  17.756  26.042   0.196 -0.0884  0.0275  0.0093
62118DOD     C330175  18.009  26.254  30.172  0.2089 -0.0566 -0.3094
62119DOD     C130176  15.664   8.292  10.847 -0.1343 -0.2793  0.5037
62119DOD     C230177  16.099   8.229  10.620 -0.0025 -0.1366  0.0662
62119DOD     C330178  16.594   8.178  10.652  0.2428  0.1452  0.0340
62120DOD     C130179  16.694  30.138   6.320 -0.2025 -0.1193  0.0997
62120DOD     C230180  16.790   0.005   5.907  0.3199 -0.2434 -0.0482
62120DOD     C330181  16.519  30.317   5.451  0.1039 -0.0097 -0.0997
62121DOD     C130182  20.165   3.376  25.867  0.3573  0.0431 -0.1749
62121DOD     C230183  19.733   3.260  25.736  0.0718  0.3679 -0.1816
62121DOD     C330184  19.246   3.184  25.769 -0.0416  0.0876 -0.1707
62122DOD     C130185  16.499  20.495   2.466  0.1800  0.0553  0.1995
62122DOD     C230186  16.482  20.038   2.604 -0.0415  0.0556 -0.1104
62122DOD     C330187  16.249  19.695   2.852 -0.1947 -0.1939 -0.0654
62123DOD     C130188   1.664  20.226  18.319 -0.0306 -0.0019  0.1729
62123DOD     C230189   1.645  20.380  17.878  0.2731 -0.1323  0.1112
62123DOD     C330190   1.739  20.198  17.463  0.2960 -0.0384  0.1172
62124DOD     C130191  24.259   4.359   9.321 -0.1721 -0.1344 -0.2488
62124DOD     C230192  23.876   4.224   9.182 -0.4434 -0.6474 -0.0152
62124DOD     C330193  23.478   4.503   9.120 -0.0072  0.0524  0.0401
62125DOD     C130194  10.132  14.543  21.110  0.2096  0.2136 -0.3703
62125DOD     C230195  10.523  14.399  20.869 -0.0146 -0.2002  0.0636
62125DOD     C330196  10.876  14.340  20.556 -0.3253  0.1390 -0.0707
62126DOD     C130197  22.231   5.088   7.736 -0.0650  0.3749  0.2948
62126DOD     C230198  21.916   5.293   7.444  0.0702 -0.3047  0.1273
62126DOD     C330199  21.552   5.493   7.310 -0.4158  0.3462 -0.1179
62127DOD     C130200  27.275   7.903  10.875  0.1373 -0.0199 -0.0621
62127DOD     C230201  27.358   8.360  11.102 -0.0884  0.2725 -0.0868
62127DOD     C330202  27.500   8.698  11.373 -0.2185  0.1435 -0.1116
62128DOD     C130203  29.841   6.724  14.733 -0.0957  0.0346  0.4220
62128DOD     C230204  30.015   7.120  14.769  0.2473  0.3260 -0.2350
62128DOD     C330205  30.051   7.514  14.571 -0.0185  0.1772 -0.1122
62129DOD     C130206   9.022  22.679  17.726 -0.0347 -0.0267  0.2161
62129DOD     C230207   8.966  22.610  17.249  0.1530 -0.0878  0.0134
62129DOD     C330208   8.817  22.670  16.832 -0.2963 -0.0289 -0.0990
62130DOD     C130209   7.601  18.708   1.996 -0.2388 -0.0589 -0.0124
62130DOD     C230210   8.049  18.607   2.006 -0.1415  0.0136 -0.0793
62130DOD     C330211   8.364  18.371   1.712  0.0016 -0.2494  0.0891
62131DOD     C130212   1.582  22.316   2.262 -0.0728  0.0471  0.0523
62131DOD     C230213   1.211  22.572   2.091  0.3614  0.2983  0.0168
62131DOD     C330214   1.244  22.918   1.786  0.1048 -0.2597  0.2142
62132DOD     C130215  28.045  28.361  26.449  0.0351 -0.0513  0.0940
62132DOD     C230216  27.687  28.454  26.167 -0.0134  0.0741 -0.0572
62132DOD     C330217  27.365  28.202  25.923 -0.0715  0.4414 -0.1568
62133DOD     C130218  26.600   5.211   4.573 -0.0734  0.0599  0.0099
62133DOD     C230219  26.143   5.324   4.609  0.1506  0.1241 -0.2617
62133DOD     C330220  25.754   5.522   4.821  0.0121 -0.0935  0.1617
62134DOD     C130221  22.729  19.326  19.036 -0.1310  0.2035 -0.1291
62134DOD     C230222  22.494  19.163  18.712 -0.2285  0.3870 -0.3201
62134DOD     C330223  22.034  19.023  18.516 -0.1119 -0.0385 -0.0060
62135DOD     C130224  14.322  21.794  16.715 -0.1493  0.0204 -0.0665
62135DOD     C230225  13.993  21.779  16.453  0.1326  0.0231  0.0317
62135DOD     C330226  13.813  21.558  16.137 -0.5052 -0.3472 -0.1660
62136DOD     C130227   7.534   7.661   4.584 -0.0597  0.1168 -0.0983
62136DOD     C230228   7.208   7.283   4.423  0.1041 -0.0220 -0.0402
62136DOD     C330229   6.799   7.085   4.351  0.0520 -0.0718 -0.1706
62137DOD     C130230   1.639   2.723   9.211  0.1596 -0.0945  0.2633
62137DOD     C230231   1.550   2.813   9.672  0.1331 -0.0718 -0.2004
62137DOD     C330232   1.278   2.882  10.111 -0.0444 -0.0503 -0.1147
62138DOD     C130233  22.801   0.906   7.634 -0.0178  0.0761 -0.0804
62138DOD     C230234  23.176   0.751   7.851  0.2297  0.2398 -0.0837
62138DOD     C330235  23.584   0.580   7.779 -0.0686 -0.0858  0.1011
62139DOD     C130236  13.109   4.264  14.907 -0.0150  0.1417  0.0100
62139DOD     C230237  13.343   3.960  14.571 -0.0689 -0.2405 -0.1159
62139DOD     C330238  13.484   3.929  14.107  0.0458 -0.0981 -0.0083
62140DOD     C130239   5.901  24.640  19.536  0.2376 -0.3595 -0.4180
62140DOD     C230240   5.922  24.247  19.416  0.2782 -0.1482 -0.2210
62140DOD     C330241   5.715  23.939  19.080  0.0375 -0.0861 -0.0889
62141DOD     C130242  15.817  28.958   5.265 -0.2667  0.1058 -0.3132
62141DOD     C230243  15.761  28.621   4.996 -0.0998 -0.1598 -0.1730
62141DOD     C330244  16.019  28.367   4.756 -0.2657 -0.2368 -0.1095
62142DOD     C130245  23.928   1.101  21.165 -0.0253  0.1272  0.2327
62142DOD     C230246  24.137   0.994  20.729 -0.1160 -0.2073 -0.2187
62142DOD     C330247  24.424   1.352  20.575  0.1255  0.1588  0.4944
62143DOD     C130248   5.006  16.687   8.154 -0.0878 -0.2377 -0.0949
62143DOD     C230249   5.389  16.426   8.296  0.1471  0.3534  0.1405
62143DOD     C330250   5.350  15.920   8.467  0.1657 -0.0642  0.2488
62144DOD     C130251  28.551  10.672  22.932  0.0900  0.1003  0.2617
62144DOD     C230252  28.748  10.885  23.262 -0.1904 -0.1191 -0.1063
62144DOD     C330253  28.504  10.912  23.664 -0.0984 -0.1914  0.1774
62145DOD     C130254  10.924  20.302  19.987 -0.0640  0.0915  0.0156
62145DOD     C230255  11.202  19.941  20.123 -0.0224  0.1469 -0.2226
62145DOD     C330256  11.654  20.015  20.212  0.2242  0.1949 -0.0258
62146DOD     C130257  22.828  13.357  20.459  0.1078 -0.1084 -0.0451
62146DOD     C230258  23.187  13.525  20.218  0.1094  0.3066  0.2978
62146DOD     C330259  23.623  13.606  20.125  0.0367 -0.0821  0.0260
62147DOD     C130260  18.446   6.387  24.903  0.0563 -0.2852 -0.1515
62147DOD     C230261  18.921   6.375  24.888 -0.3192 -0.0825  0.1167
62147DOD     C330262  19.263   6.368  25.208  0.0790 -0.0882  0.1478
62148DOD     C130263  20.488   6.451   7.115  0.1098 -0.0472  0.0897
62148DOD     C230264  20.545   6.376   7.549 -0.1223 -0.0805  0.2670
62148DOD     C330265  20.818   6.417   7.887 -0.0005  0.0469 -0.1355
62149DOD     C130266   5.063  23.234  14.182 -0.1163  0.1168 -0.2828
62149DOD     C230267   4.880  22.992  14.569  0.3865  0.1999  0.0752
62149DOD     C330268   4.624  22.616  14.693 -0.0974 -0.0516 -0.0331
62150DOD     C130269  28.738  15.340   3.096 -0.0631  0.0212  0.3806
62150DOD     C230270  28.787  15.015   3.435  0.0767 -0.1802 -0.2143
62150DOD     C330271  28.562  14.881   3.803  0.1808  0.1018 -0.1352
62151DOD     C130272  30.117  11.731   9.996  0.0380  0.0303 -0.1564
62151DOD     C230273  29.763  11.613  10.237  0.1088  0.2159  0.1144
62151DOD     C330274  29.706  11.435  10.610  0.0796 -0.0911  0.2551
62152DOD     C130275  24.724   1.757   6.380  0.1505 -0.1092 -0.0006
62152DOD     C230276  24.901   1.958   5.967  0.0445 -0.3173  0.2242
62152DOD     C330277  24.896   2.221   5.568  0.0669  0.3936  0.1955
62153DOD     C130278  22.021   3.180  22.247 -0.1023 -0.1977  0.3345
62153DOD     C230279  21.623   2.931  22.332 -0.0057 -0.0758  0.2492
62153DOD     C330280  21.305   2.813  22.668 -0.0090 -0.1208 -0.2889
62154DOD     C130281   0.774  19.021  29.355  0.2561 -0.0592  0.3078
62154DOD     C230282   0.461  18.800  29.089  0.1323 -0.2015  0.1608
62154DOD     C330283   0.029  18.583  29.178  0.0762  0.1668 -0.1018
62155DOD     C130284  19.936  13.522   2.905 -0.1433 -0.0466  0.0057
62155DOD     C230285  19.841  13.089   2.926  0.1595 -0.0142 -0.2902
62155DOD     C330286  19.736  12.790   3.287  0.1515 -0.1146 -0.0016
62156DOD     C130287  28.010   1.577  23.773 -0.1549 -0.1521  0.0894
62156DOD     C230288  27.867   1.565  24.216 -0.2287  0.2912  0.0083
62156DOD     C330289  27.828   1.881  24.564  0.2057 -0.0797 -0.0207
62157DOD     C130290  20.766  23.804  21.412  0.1172 -0.0959  0.1265
62157DOD     C230291  21.006  23.530  21.705 -0.1432 -0.0886 -0.0881
62157DOD     C330292  21.203  23.150  21.910  0.2050 -0.0704 -0.0486
62158DOD     C130293  16.251  30.217  24.167 -0.1263 -0.0331  0.0377
62158DOD     C230294  16.280  29.727  24.141 -0.2643  0.0480  0.2177
62158DOD     C330295  16.446  29.292  24.317 -0.0948 -0.0458  0.0080
62159DOD     C130296  21.465  26.008   0.870  0.0585 -0.0434  0.2369
62159DOD     C230297  21.119  26.004   1.149 -0.0597 -0.0753 -0.3657
62159DOD     C330298  20.617  25.902   1.166 -0.2811  0.0026  0.0849
62160DOD     C130299  25.946  25.351  19.022 -0.5833 -0.0509  0.0739
62160DOD     C230300  26.329  25.267  18.724  0.2437 -0.4450  0.0929
62160DOD     C330301  26.678  25.241  18.404  0.0752  0.1338 -0.1297
62161DOD     C130302  15.381  17.258   3.152 -0.2855  0.2041 -0.1718
62161DOD     C230303  15.555  16.871   3.041 -0.0957 -0.0608  0.3530
62161DOD     C330304  15.604  16.415   3.173 -0.2249 -0.0666 -0.0544
62162DOD     C130305  18.758   3.927  27.964  0.3279  0.3661 -0.1106
62162DOD     C230306  19.071   4.215  28.197 -0.3000  0.0549 -0.0791
62162DOD     C330307  19.268   4.083  28.650 -0.3334 -0.0525  0.0301
62163DOD     C130308  18.978   5.042   3.744  0.0540  0.1137 -0.1721
62163DOD     C230309  18.901   4.637   3.935 -0.1409  0.0070  0.2275
62163DOD     C330310  19.056   4.237   3.942 -0.1179  0.3658 -0.1388
62164DOD     C130311   4.531  28.623  21.403 -0.2287 -0.1129 -0.1841
62164DOD     C230312   4.252  28.501  21.024 -0.0559 -0.2414  0.0099
62164DOD     C330313   4.024  28.765  20.666  0.0939 -0.1429  0.2252
62165DOD     C130314   5.543  30.166   3.180  0.0572  0.1980  0.0325
62165DOD     C230315   5.581  29.715   3.049 -0.1298 -0.2712  0.2028
62165DOD     C330316   5.946  29.377   3.100  0.2479  0.2502 -0.1749
62166DOD     C130317   1.220   1.804   9.712 -0.2438 -0.1336  0.1470
62166DOD     C230318   0.909   1.681   9.421 -0.1308 -0.4283  0.0675
62166DOD     C330319   0.540   1.477   9.236 -0.1634  0.3217 -0.1409
62167DOD     C130320  18.263  14.325  14.158  0.1510 -0.1167  0.0035
62167DOD     C230321  18.120  14.059  14.566 -0.1576  0.0170  0.2617
62167DOD     C330322  18.094  13.701  14.882 -0.2137 -0.0687  0.0171
62168DOD     C130323  18.365   5.683   8.157  0.0638  0.2954  0.3820
62168DOD     C230324  18.680   5.799   8.436 -0.0781 -0.3544  0.1245
62168DOD     C330325  19.063   5.790   8.695  0.2609  0.1064 -0.0791
62169DOD     C130326   4.982  24.374  29.379  0.1618 -0.0295  0.0100
62169DOD     C230327   5.013  24.354  28.949 -0.1511 -0.0510 -0.1011
62169DOD     C330328   5.102  24.257  28.501 -0.1048  0.0817 -0.1014
62170DOD     C130329  24.603   7.046  20.563 -0.0836 -0.0453 -0.1401
62170DOD     C230330  24.812   7.365  20.398 -0.1486 -0.0103 -0.2275
62170DOD     C330331  25.196   7.555  20.181  0.4160 -0.0118  0.0681
62171DOD     C130332   0.336   7.283  26.964  0.1099  0.0739 -0.3093
62171DOD     C230333   0.469   7.732  26.763 -0.3643 -0.0693  0.0937
62171DOD     C330334   0.561   8.112  26.557  0.0960 -0.1904 -0.2482
62172DOD     C130335  11.230  20.615   7.829 -0.2393 -0.2495  0.0377
62172DOD     C230336  11.110  20.997   8.067  0.0357  0.1293 -0.2291
62172DOD     C330337  11.256  21.293   8.374  0.2710 -0.2559 -0.1747
62173DOD     C130338   9.697  29.790  29.352  0.0544  0.1137  0.0511
62173DOD     C230339   9.540  29.412  29.181 -0.3064 -0.2603 -0.1826
62173DOD     C330340   9.544  28.977  28.962  0.0284 -0.4870  0.0083
62174DOD     C130341   0.395  20.284   8.548 -0.1009  0.4723 -0.3553
62174DOD     C230342   0.695  20.611   8.649 -0.0988  0.0412 -0.2263
62174DOD     C330343   1.205  20.714   8.810  0.2099 -0.0029  0.3201
62175DOD     C130344  15.030  14.042  24.394 -0.0430  0.1915 -0.0231
62175DOD     C230345  15.489  13.962  24.343 -0.1021 -0.1119  0.1311
62175DOD     C330346  15.790  13.671  24.478 -0.0662  0.0253  0.1064
62176DOD     C130347  25.580  13.043  19.175 -0.0776 -0.2368 -0.0776
62176DOD     C230348  25.141  13.083  19.466 -0.0095 -0.1319  0.1110
62176DOD     C330349  24.908  12.768  19.697  0.2114  0.4090  0.0358
62177DOD     C130350  28.745  26.643  15.081 -0.0165  0.1422 -0.2395
62177DOD     C230351  29.074  26.401  15.278  0.0804 -0.0745 -0.2293
62177DOD     C330352  29.493  26.314  15.443 -0.2425 -0.1431 -0.1391
62178DOD     C130353   3.981   1.197  12.229  0.0008 -0.0052 -0.1169
62178DOD     C230354   4.106   1.028  12.621  0.0420  0.0385  0.1310
62178DOD     C330355   3.862   0.686  12.799  0.3193  0.0060  0.0938
62179DOD     C130356   5.808  15.880   0.913  0.1461 -0.0771 -0.0369
62179DOD     C230357   6.022  15.435   0.723 -0.1410 -0.1498 -0.1486
62179DOD     C330358   6.337  15.179   0.975  0.3218  0.0088 -0.0741
62180DOD     C130359  18.485  27.968   3.092 -0.1696  0.2852 -0.1192
62180DOD     C230360  18.322  27.599   2.870 -0.3142 -0.0370  0.4537
62180DOD     C330361  18.155  27.278   2.588  0.0725 -0.0036 -0.1726
62181DOD     C130362   4.030  10.449  26.976  0.4406  0.0314 -0.1169
62181DOD     C230363   4.168  10.007  26.916  0.0288  0.0302  0.0103
62181DOD     C330364   4.084   9.688  26.691  0.3177 -0.3372  0.1129
62182DOD     C130365   5.858  16.242   8.393 -0.0250 -0.1114 -0.0570
62182DOD     C230366   5.926  15.832   8.592 -0.1862  0.0124  0.1271
62182DOD     C330367   6.142  15.423   8.617 -0.0959 -0.0436 -0.2042
62183DOD     C130368  26.272  30.015   7.585  0.2398  0.0080 -0.0357
62183DOD     C230369  26.329  30.142   7.140 -0.2346 -0.2861  0.0511
62183DOD     C330370  26.039   0.057   6.828 -0.0746  0.0092 -0.1590
62184DOD     C130371  22.584   9.301   4.070 -0.0076  0.0961  0.1176
62184DOD     C230372  22.498   9.710   4.290 -0.0787 -0.1515 -0.3899
62184DOD     C330373  22.197  10.041   4.426  0.0889 -0.1523 -0.0450
62185DOD     C130374  27.196  27.742  19.806 -0.1402  0.2422 -0.1578
62185DOD     C230375  27.232  27.559  19.377 -0.0705  0.0181  0.3257
62185DOD     C330376  27.248  27.380  18.936 -0.0910 -0.1709 -0.1876
62186DOD     C130377   3.335  22.416   0.564  0.0369  0.0373 -0.0009
62186DOD     C230378   3.450  22.114   0.912 -0.1837 -0.6319  0.1684
62186DOD     C330379   3.538  21.826   1.269  0.0752  0.0272 -0.2075
62187DOD     C130380  16.928   9.931   4.439 -0.3459  0.0383  0.2258
62187DOD     C230381  17.364   9.729   4.409 -0.2103  0.1350 -0.2846
62187DOD     C330382  17.800   9.612   4.548 -0.1866 -0.1701  0.0986
62188DOD     C130383   5.551  27.762  26.167  0.0611  0.1749  0.0271
62188DOD     C230384   5.288  27.743  26.554  0.0629 -0.2906 -0.0343
62188DOD     C330385   5.235  28.094  26.872 -0.0934 -0.5048 -0.1266
62189DOD     C130386  25.112  25.809  27.891  0.1456  0.1216 -0.1278
62189DOD     C230387  24.754  25.734  27.613 -0.2405 -0.0591  0.2169
62189DOD     C330388  24.351  25.453  27.600  0.1242  0.2714 -0.0465
62190DOD     C130389  17.151  24.925  12.603  0.2075 -0.1377  0.0831
62190DOD     C230390  17.241  24.666  12.957  0.1240  0.0914  0.0656
62190DOD     C330391  17.404  24.831  13.346 -0.2832  0.1112  0.1684
62191DOD     C130392   9.315   8.947   7.280  0.0536  0.2148  0.0444
62191DOD     C230393   9.245   8.516   7.125 -0.2834 -0.1680  0.1278
62191DOD     C330394   9.272   8.151   6.809 -0.0314 -0.0309  0.1247
62192DOD     C130395  -0.006   2.763   9.493 -0.4198  0.0411 -0.2627
62192DOD     C230396  29.880   2.587   9.630 -0.0999 -0.2806  0.1844
62192DOD     C330397  29.550   2.367   9.891  0.2861 -0.1888  0.0182
62193DOD     C130398  29.804  13.299  23.708  0.2935  0.4510  0.0339
62193DOD     C230399  29.974  13.203  24.088  0.2028 -0.0257 -0.0524
62193DOD     C330400  29.880  13.105  24.539  0.1423  0.0518 -0.1603
62194DOD     C130401  25.846  12.334  16.843 -0.1369 -0.4717 -0.0460
62194DOD     C230402  25.808  12.806  16.918 -0.1646  0.2844 -0.0489
62194DOD     C330403  25.764  13.065  17.286 -0.0017  0.0093 -0.0265
62195DOD     C130404  15.038  28.008   4.045  0.0417  0.2681 -0.2106
62195DOD     C230405  15.141  28.378   4.318 -0.0130 -0.3874  0.2573
62195DOD     C330406  14.940  28.793   4.345  0.0049  0.3839 -0.3420
62196DOD     C130407  24.084  17.861   2.344 -0.1547  0.3152 -0.0174
62196DOD     C230408  23.683  17.645   2.506  0.3604  0.1932  0.2748
62196DOD     C330409  23.539  17.222   2.507  0.0260 -0.0725 -0.0223
62197DOD     C130410   8.352  27.275  17.455  0.2120  0.2048 -0.0077
62197DOD     C230411   8.026  27.141  17.708 -0.1250  0.0855 -0.1316
62197DOD     C330412   7.718  26.970  18.028  0.2624 -0.1231 -0.4797
62198DOD     C130413  12.333  18.516   3.703 -0.0633  0.1648 -0.0558
62198DOD     C230414  12.701  18.361   3.942  0.0810  0.1139 -0.0943
62198DOD     C330415  12.700  18.012   4.247  0.1442 -0.0044  0.1041
62199DOD     C130416   2.199  26.458  13.140  0.0484  0.2544 -0.1048
62199DOD     C230417   1.924  26.859  13.269  0.0959 -0.3183  0.4258
62199DOD     C330418   1.580  26.981  13.078  0.1508 -0.1933 -0.1235
62200DOD     C130419  25.962  29.546  26.817  0.2256 -0.0412 -0.3446
62200DOD     C230420  26.383  29.372  26.874 -0.0724 -0.0959 -0.0119
62200DOD     C330421  26.495  28.975  26.986  0.2737  0.1442  0.0154
62201DOD     C130422   5.754  27.151  22.006 -0.4074 -0.5357 -0.0956
62201DOD     C230423   5.812  27.596  22.239  0.1974  0.1729  0.2307
62201DOD     C330424   5.846  28.108  22.160  0.0230 -0.1554  0.2960
62202DOD     C130425   4.880  16.700  20.167 -0.3101  0.1503  0.1668
62202DOD     C230426   4.848  17.118  20.067  0.3224  0.3133 -0.0980
62202DOD     C330427   4.692  17.507  20.313  0.1032  0.0090 -0.0388
62203DOD     C130428  24.260  19.912  23.249 -0.0621  0.2040 -0.0278
62203DOD     C230429  24.164  20.371  23.308 -0.0933 -0.2733  0.1300
62203DOD     C330430  23.808  20.483  23.571  0.1676 -0.0172 -0.3404
62204DOD     C130431  19.904  21.723  20.047 -0.2498 -0.1441 -0.0978
62204DOD     C230432  19.978  21.416  19.694  0.2985 -0.0807 -0.2584
62204DOD     C330433  19.652  21.166  19.481 -0.0828 -0.0836 -0.2427
62205DOD     C130434  21.876   5.940  11.358  0.2035  0.1833  0.0970
62205DOD     C230435  22.316   6.029  11.484  0.1151 -0.3813 -0.1088
62205DOD     C330436  22.427   6.461  11.579 -0.2641 -0.1891 -0.0459
62206DOD     C130437   6.947  22.405  15.655  0.1140  0.2421 -0.2067
62206DOD     C230438   6.557  22.105  15.634 -0.0014 -0.1006 -0.0778
62206DOD     C330439   6.191  21.994  15.883 -0.2073 -0.1555  0.1902
62207DOD     C130440   6.333  21.957  15.192  0.0499  0.0221 -0.1360
62207DOD     C230441   6.774  22.138  15.167  0.1031  0.1336  0.3133
62207DOD     C330442   6.851  22.336  14.734  0.2790  0.0109 -0.0043
62208DOD     C130443  14.378  20.819  17.477  0.1137  0.1551  0.0017
62208DOD     C230444  14.231  20.507  17.793 -0.2729  0.2718  0.0822
62208DOD     C330445  14.073  20.348  18.199 -0.1573  0.2983  0.0858
62209DOD     C130446  26.752  10.023  29.598  0.1703  0.0834 -0.1686
62209DOD     C230447  26.587   9.630  29.593 -0.0027  0.3735  0.2764
62209DOD     C330448  26.823   9.205  29.600 -0.0638 -0.1534  0.0483
62210DOD     C130449  24.288  26.048   5.815  0.4060  0.2095 -0.0907
62210DOD     C230450  24.089  26.456   5.907  0.0255 -0.0327  0.2021
62210DOD     C330451  23.900  26.848   5.849  0.0606  0.1877  0.0259
62211DOD     C130452  20.084  13.541  23.793  0.0586  0.1156 -0.3038
62211DOD     C230453  19.761  13.196  23.813  0.0341 -0.3103  0.1955
62211DOD     C330454  19.745  12.742  23.969  0.0502 -0.0255 -0.1983
62212DOD     C130455  24.060   3.204  25.763  0.0656 -0.0909  0.1370
62212DOD     C230456  24.007   3.536  26.098  0.3000  0.2757  0.0290
62212DOD     C330457  24.162   3.989  26.119  0.1458 -0.2806  0.2396
62213DOD     C130458  13.477  19.803  23.369  0.6803  0.3467 -0.5629
62213DOD     C230459  13.427  19.426  23.050  0.1892 -0.1052 -0.0498
62213DOD     C330460  13.364  18.936  22.942  0.2447 -0.0967  0.2449
62214DOD     C130461  17.827  25.480  20.651 -0.1578 -0.0490  0.0607
62214DOD     C230462  17.836  25.474  20.214  0.0451  0.1221  0.1062
62214DOD     C330463  17.891  25.093  19.970  0.2613  0.1081 -0.0882
62215DOD     C130464   9.916  27.874   7.623  0.1154  0.1011 -0.1410
62215DOD     C230465  10.033  27.982   8.085  0.0627  0.2262 -0.2082
62215DOD     C330466  10.417  28.230   8.265 -0.1230  0.1250 -0.1528
62216DOD     C130467  15.680   1.337   6.669  0.1651  0.0985 -0.1052
62216DOD     C230468  15.303   1.358   6.396 -0.2407  0.4536 -0.0305
62216DOD     C330469  15.226   1.166   5.992  0.2781  0.0858 -0.0584
62217DOD     C130470  20.372   3.944  15.307  0.0132  0.0078  0.3200
62217DOD     C230471  20.582   3.629  15.535 -0.0598 -0.2306  0.0712
62217DOD     C330472  21.069   3.518  15.538 -0.3589  0.2092  0.1623
62218DOD     C130473   8.921  10.631   9.519 -0.1738  0.1965  0.0836
62218DOD     C230474   9.374  10.734   9.445 -0.2891  0.1876  0.1801
62218DOD     C330475   9.816  10.631   9.264 -0.2020 -0.2356  0.3043
62219DOD     C130476  26.332   0.939   1.359 -0.1533 -0.2093  0.1206
62219DOD     C230477  26.503   1.009   1.809  0.1247  0.1343 -0.0278
62219DOD     C330478  26.588   1.301   2.188  0.3028  0.2916  0.1792
62220DOD     C130479  29.412  10.653  21.526 -0.1321 -0.0463  0.0309
62220DOD     C230480  29.189  10.320  21.643  0.1693 -0.0562  0.4204
62220DOD     C330481  29.194   9.930  21.926 -0.0732  0.1360 -0.1823
62221DOD     C130482  26.363  29.108  12.867  0.0009  0.0489  0.2995
62221DOD     C230483  26.318  29.537  13.049  0.0275 -0.2995 -0.0158
62221DOD     C330484  26.054  29.838  12.822  0.0387 -0.0494 -0.3081
62222DOD     C130485  28.643  11.728   1.214 -0.0557 -0.3898  0.0327
62222DOD     C230486  28.981  12.094   1.408 -0.1050 -0.0347  0.0169
62222DOD     C330487  29.086  12.582   1.375 -0.2836 -0.2053 -0.2095
62223DOD     C130488   2.883  18.033   2.887  0.1346 -0.1062  0.2069
62223DOD     C230489   2.579  18.138   3.267  0.4823  0.0716  0.2235
62223DOD     C330490   2.102  18.176   3.424 -0.1017 -0.0758  0.2294
62224DOD     C130491   6.273   0.251   7.959 -0.1121  0.1569  0.1677
62224DOD     C230492   5.952   0.259   7.699  0.0288 -0.0231  0.0870
62224DOD     C330493   5.510   0.229   7.845  0.2745  0.3175  0.3501
62225DOD     C130494  27.092  28.171  17.891  0.0042  0.3112 -0.1089
62225DOD     C230495  27.178  28.621  17.957 -0.1057  0.0176 -0.1490
62225DOD     C330496  27.310  28.945  18.255 -0.0037  0.3252 -0.1265
62226DOD     C130497  25.598   9.274  17.319  0.1171  0.0864 -0.0974
62226DOD     C230498  25.236   9.545  17.344 -0.0633 -0.0346  0.0615
62226DOD     C330499  24.831   9.563  17.514 -0.2248 -0.0539 -0.4653
62227DOD     C130500   1.550   3.633   6.692 -0.3571 -0.0271 -0.2263
62227DOD     C230501   1.968   3.881   6.631 -0.1975 -0.5073 -0.0008
62227DOD     C330502   2.315   4.143   6.534 -0.0448 -0.3683  0.0363
62228DOD     C130503  15.205   2.733  21.319  0.0413 -0.2850 -0.1203
62228DOD     C230504  14.836   2.995  21.163  0.0659 -0.0499 -0.0058
62228DOD     C330505  14.370   2.891  21.232 -0.1352  0.1940  0.0792
62229DOD     C130506   3.699  22.995  18.961 -0.3695  0.3249  0.2740
62229DOD     C230507   3.994  23.321  19.126  0.2467 -0.0755 -0.1792
62229DOD     C330508   4.478  23.471  19.138  0.1533  0.2155 -0.0019
62230DOD     C130509  29.845   4.090  25.811  0.2106  0.3213 -0.1221
62230DOD     C230510  29.767   3.923  26.220  0.0072 -0.1307 -0.0970
62230DOD     C330511  29.599   4.073  26.630  0.2249 -0.1809  0.3685
62231DOD     C130512   9.950   7.744  10.454  0.0851 -0.1764 -0.1058
62231DOD     C230513   9.613   7.850  10.758  0.0145 -0.2352  0.1989
62231DOD     C330514   9.492   7.693  11.231  0.1843  0.1187  0.1235
62232DOD     C130515   9.896   3.070  27.295 -0.1487 -0.1284  0.0038
62232DOD     C230516  10.149   3.404  27.062  0.0283  0.2968  0.1342
62232DOD     C330517  10.551   3.676  27.134  0.0602  0.0487 -0.0926
62233DOD     C130518  21.578  13.839  15.534 -0.2117 -0.0310 -0.2525
62233DOD     C230519  21.644  13.804  15.075  0.0385 -0.0685  0.1033
62233DOD     C330520  21.673  13.609  14.678 -0.1916 -0.0541  0.1181
62234DOD     C130521  21.140  10.185  29.346  0.0580  0.1977  0.1542
62234DOD     C230522  21.356  10.124  28.886  0.1636 -0.1062  0.1500
62234DOD     C330523  21.718  10.014  28.582  0.2085  0.2486  0.1147
62235DOD     C130524  24.684   5.334  16.188  0.3073  0.0434 -0.0587
62235DOD     C230525  24.301   5.391  15.901 -0.2001 -0.1097 -0.1718
62235DOD     C330526  23.974   5.602  15.803  0.0158  0.2740 -0.0123
62236DOD     C130527  19.796  21.525   7.484 -0.1306 -0.2134  0.1456
62236DOD     C230528  19.333  21.456   7.581  0.0170  0.2633 -0.0533
62236DOD     C330529  18.948  21.647   7.755  0.0616 -0.2224  0.1164
62237DOD     C130530   0.031  22.536  26.790 -0.2782  0.0307 -0.0472
62237DOD     C230531  29.988  22.262  26.595  0.0639 -0.2387 -0.2033
62237DOD     C330532  29.691  21.963  26.780 -0.0650  0.0147 -0.1551
62238DOD     C130533   7.465  23.595  19.942 -0.0176 -0.1827 -0.0939
62238DOD     C230534   7.300  23.554  20.370 -0.0054  0.0327  0.2835
62238DOD     C330535   7.241  23.564  20.848  0.0183 -0.3333 -0.3141
62239DOD     C130536   9.461  17.959  16.557 -0.1386  0.3828  0.2046
62239DOD     C230537   9.235  18.046  16.188 -0.1612  0.2714 -0.2759
62239DOD     C330538   9.030  18.283  15.807  0.3067  0.0546 -0.1563
62240DOD     C130539  15.695   8.297   1.103  0.0434 -0.0537  0.1413
62240DOD     C230540  15.417   8.307   1.386 -0.1290  0.0789  0.2750
62240DOD     C330541  15.096   8.352   1.767 -0.0013  0.5075  0.0806
62241DOD     C130542  18.297  17.534  14.658  0.0220  0.2988 -0.0028
62241DOD     C230543  18.596  17.283  14.888  0.0935  0.2934  0.3414
62241DOD     C330544  18.826  16.891  14.960  0.1743  0.1580  0.2312
62242DOD     C130545  22.111  25.456  26.770  0.1496  0.4566  0.4055
62242DOD     C230546  21.887  25.084  26.756 -0.1998 -0.1849 -0.0158
62242DOD     C330547  21.764  24.863  26.327 -0.1653  0.1257 -0.1696
62243DOD     C130548   6.973   6.418   3.001 -0.0705  0.1336 -0.0497
62243DOD     C230549   6.765   6.010   3.219 -0.0386  0.0457 -0.3968
62243DOD     C330550   6.821   5.851   3.688 -0.0669 -0.1551 -0.0896
62244DOD     C130551   5.189   6.494  16.966  0.1728  0.0166  0.0621
62244DOD     C230552   5.412   6.861  16.912 -0.0911  0.0089 -0.1003
62244DOD     C330553   5.671   7.255  16.871 -0.1059 -0.0584 -0.2281
62245DOD     C130554   6.781   6.751  14.340  0.0944  0.3210 -0.0712
62245DOD     C230555   6.579   6.317  14.423 -0.1285 -0.4629  0.1136
62245DOD     C330556   6.122   6.214  14.428 -0.0563 -0.0839  0.3905
62246DOD     C130557  29.187  10.701   0.844  0.1007  0.1753 -0.0478
62246DOD     C230558  29.490  10.749   1.172 -0.0874 -0.2207 -0.1137
62246DOD     C330559  29.846  10.711   1.486  0.1334  0.4234 -0.2920
62247DOD     C130560   5.109   6.622  29.990  0.0898 -0.1910 -0.0069
62247DOD     C230561   5.464   6.909  30.058 -0.2188 -0.0650 -0.1703
62247DOD     C330562   5.764   7.222  29.815  0.2720 -0.4630  0.2896
62248DOD     C130563  24.523  15.373  24.729  0.5532 -0.1192 -0.0808
62248DOD     C230564  24.273  14.970  24.766  0.3911 -0.3029  0.2652
62248DOD     C330565  24.027  14.592  24.569  0.1329  0.2340  0.3208
62249DOD     C130566   3.867   9.863  21.178  0.1570  0.1042  0.1260
62249DOD     C230567   4.316   9.656  21.270  0.1910 -0.1771 -0.0597
62249DOD     C330568   4.484   9.534  20.909 -0.1786  0.2032 -0.2416
62250DOD     C130569   7.030  14.028  30.102 -0.1839  0.0682  0.4169
62250DOD     C230570   6.962  13.601   0.033  0.1109 -0.0278  0.0569
62250DOD     C330571   6.694  13.310   0.250 -0.0424 -0.0580 -0.0493
62251DOD     C130572  25.964  14.761   0.690  0.0028  0.2712 -0.1270
62251DOD     C230573  25.953  14.432   0.376  0.3735 -0.0523 -0.1143
62251DOD     C330574  25.891  14.478  30.232  0.1808  0.3149  0.0902
62252DOD     C130575  25.953  15.324  20.168  0.0717 -0.0702 -0.0288
62252DOD     C230576  25.588  15.602  20.137 -0.2341 -0.2724  0.2180
62252DOD     C330577  25.129  15.787  20.201 -0.3439  0.0781  0.0021
62253DOD     C130578  10.253   2.509  16.287  0.1777 -0.3995 -0.0596
62253DOD     C230579   9.853   2.408  16.034  0.1551  0.0633 -0.1492
62253DOD     C330580   9.471   2.442  15.774  0.1077  0.1131  0.0142
62254DOD     C130581  27.163  21.035  24.928  0.1717 -0.0268  0.1958
62254DOD     C230582  26.769  21.314  25.165 -0.1851  0.2207 -0.0490
62254DOD     C330583  26.376  21.373  25.086  0.0385 -0.2995  0.2984
62255DOD     C130584  19.358   0.758  17.172 -0.1549  0.0830 -0.6090
62255DOD     C230585  19.783   0.663  17.353  0.1680  0.0833 -0.0879
62255DOD     C330586  20.232   0.821  17.473  0.0167  0.0482 -0.0436
62256DOD     C130587   9.716  17.268  30.096 -0.0528  0.1829  0.0533
62256DOD     C230588   9.322  17.085  29.821  0.1438  0.1212  0.0392
62256DOD     C330589   9.017  16.988  29.557  0.2816 -0.0999  0.0958
62257DOD     C130590   4.716   5.396  27.433  0.0911  0.0199  0.0992
62257DOD     C230591   4.494   5.818  27.464 -0.0263 -0.0536 -0.0874
62257DOD     C330592   4.103   5.974  27.328  0.2650  0.2496 -0.0596
62258DOD     C130593  11.824  28.074  14.830 -0.1849 -0.1335  0.1382
62258DOD     C230594  11.825  27.944  15.262 -0.0676 -0.0547  0.0222
62258DOD     C330595  11.887  28.163  15.630 -0.2161 -0.0778  0.1182
62259DOD     C130596  28.006   5.990  11.361 -0.0445  0.0425  0.3930
62259DOD     C230597  28.314   6.118  11.730  0.1937 -0.1928  0.3602
62259DOD     C330598  28.697   6.199  12.027  0.4314  0.3178 -0.0496
62260DOD     C130599   9.414   0.675   0.108 -0.0664 -0.1956 -0.2229
62260DOD     C230600   9.386   0.949   0.510  0.3112 -0.1202 -0.0164
62260DOD     C330601   9.518   1.190   0.848  0.0891  0.0572  0.1284
62261DOD     C130602   8.469   7.801   6.110  0.3084 -0.0080  0.0651
62261DOD     C230603   8.880   8.024   6.093 -0.3396  0.0332  0.1618
62261DOD     C330604   9.073   8.478   6.146  0.3823 -0.0120  0.0020
62262DOD     C130605  16.216  17.622  15.399  0.1607  0.3421  0.1806
62262DOD     C230606  15.779  17.685  15.520  0.0340 -0.2139 -0.0858
62262DOD     C330607  15.363  17.874  15.704 -0.0049  0.0236 -0.1055
62263DOD     C130608  13.422  25.035  14.341 -0.1342 -0.0421  0.1434
62263DOD     C230609  13.677  25.154  14.647 -0.1559  0.0843 -0.3955
62263DOD     C330610  14.048  25.182  14.898 -0.0395  0.2117  0.0068
62264DOD     C130611  18.583  11.639   3.422 -0.1815  0.0783  0.2380
62264DOD     C230612  18.756  11.631   2.965  0.2852  0.0628  0.0079
62264DOD     C330613  18.815  11.854   2.551 -0.1145  0.1044 -0.3420
62265DOD     C130614  24.302  25.654  26.562 -0.1180 -0.0147 -0.3644
62265DOD     C230615  23.926  25.423  26.385 -0.3005 -0.0363  0.0961
62265DOD     C330616  23.865  25.374  25.961 -0.1469 -0.0266 -0.1262
62266DOD     C130617  17.040   6.679  22.112  0.0920 -0.2735  0.0433
62266DOD     C230618  17.133   6.953  21.748 -0.2868  0.0305  0.0357
62266DOD     C330619  17.065   7.303  21.468  0.1489  0.0279  0.2105
62267DOD     C130620  10.353   6.747  23.470 -0.0719  0.1325 -0.0441
62267DOD     C230621  10.464   7.051  23.726 -0.1457 -0.1921 -0.0219
62267DOD     C330622  10.750   7.145  24.115  0.1354  0.0363  0.0287
62268DOD     C130623  29.260  26.722  23.815  0.0970  0.0698 -0.0905
62268DOD     C230624  29.525  26.755  24.221 -0.2165  0.1018 -0.0711
62268DOD     C330625  29.605  26.688  24.705 -0.0857 -0.0509  0.1345
62269DOD     C130626  14.496   2.143  27.046  0.2606  0.1609 -0.2043
62269DOD     C230627  14.909   2.131  26.837  0.0630  0.2187 -0.1477
62269DOD     C330628  15.077   1.766  26.655  0.1499  0.0661 -0.0250
62270DOD     C130629  27.019   4.816  26.461 -0.1601  0.0507  0.2329
62270DOD     C230630  27.381   4.707  26.711 -0.0177  0.3981 -0.0281
62270DOD     C330631  27.632   4.773  27.098 -0.4142 -0.0861  0.0059
62271DOD     C130632   4.936  27.480  11.191  0.0155  0.2240 -0.0333
62271DOD     C230633   4.682  27.803  11.499  0.0456 -0.1903 -0.0176
62271DOD     C330634   4.351  28.067  11.735 -0.3290 -0.1306  0.1771
62272DOD     C130635  28.103  23.755  13.712 -0.1485 -0.0668 -0.1283
62272DOD     C230636  27.842  23.524  13.407 -0.0948 -0.0697 -0.1917
62272DOD     C330637  27.756  23.491  12.947  0.1926  0.1821  0.0102
62273DOD     C130638   5.743  27.870  11.182 -0.0495  0.2589  0.2287
62273DOD     C230639   6.005  27.622  11.545 -0.0460  0.2506  0.0414
62273DOD     C330640   6.328  27.292  11.427 -0.1387 -0.0872 -0.1462
62274DOD     C130641  19.214   0.115   2.807  0.0535 -0.3042  0.1460
62274DOD     C230642  19.378  30.111   2.537  0.2031 -0.3346  0.1248
62274DOD     C330643  19.659  29.940   2.177  0.2473 -0.0273 -0.1792
62275DOD     C130644   6.376  13.803  19.085 -0.0358 -0.1833 -0.2132
62275DOD     C230645   6.477  13.322  19.095  0.0973 -0.0270  0.2772
62275DOD     C330646   6.397  12.881  19.165 -0.1678 -0.2968 -0.0802
62276DOD     C130647   4.991   1.468  12.672 -0.1420  0.1270  0.0916
62276DOD     C230648   5.408   1.690  12.533  0.1029 -0.0289  0.1353
62276DOD     C330649   5.643   1.933  12.218  0.0029 -0.0483  0.1433
62277DOD     C130650  21.332   6.927   1.410 -0.0003  0.3694  0.2134
62277DOD     C230651  21.196   6.467   1.405  0.1881  0.0172 -0.0533
62277DOD     C330652  21.189   6.048   1.606  0.0889  0.1207 -0.0293
62278DOD     C130653   7.420   2.023   1.864  0.1183  0.0913  0.0295
62278DOD     C230654   7.881   2.094   1.883  0.1767 -0.1416  0.4613
62278DOD     C330655   8.185   2.395   1.769 -0.2344  0.0895 -0.0746
62279DOD     C130656  10.991   1.326  23.265  0.1179  0.0390 -0.1234
62279DOD     C230657  10.599   1.505  23.080  0.0424  0.0301 -0.2630
62279DOD     C330658  10.217   1.629  22.832  0.0074  0.1625  0.0576
62280DOD     C130659   2.172   4.624   2.313  0.0180  0.1554 -0.3255
62280DOD     C230660   1.750   4.738   2.506  0.2489  0.6186 -0.1517
62280DOD     C330661   1.315   4.940   2.480 -0.0190  0.0142 -0.3270
62281DOD     C130662   9.941  10.139  12.140  0.2409 -0.2259 -0.0159
62281DOD     C230663  10.318   9.824  12.067  0.1569  0.1564  0.0648
62281DOD     C330664  10.777   9.681  11.933 -0.2748 -0.1358 -0.0159
62282DOD     C130665  28.355  27.264  17.507  0.0207  0.2281  0.2871
62282DOD     C230666  28.665  27.552  17.568 -0.5255 -0.0299  0.0961
62282DOD     C330667  29.050  27.821  17.581 -0.0547 -0.0106  0.2589
62283DOD     C130668  20.997  10.370  27.489  0.1055 -0.2975  0.0172
62283DOD     C230669  20.719  10.746  27.531  0.0570  0.4928  0.1218
62283DOD     C330670  20.428  11.108  27.532 -0.1427  0.0260 -0.1719
62284DOD     C130671   4.187   6.679  15.941  0.5196 -0.0625 -0.0972
62284DOD     C230672   4.201   6.945  16.354 -0.0787  0.0438 -0.2561
62284DOD     C330673   4.345   7.111  16.802  0.1944 -0.0652 -0.1499
62285DOD     C130674  28.465   8.919  29.372  0.0863 -0.1209  0.1610
62285DOD     C230675  28.591   9.076  28.944  0.2693  0.0429  0.0310
62285DOD     C330676  28.978   9.079  28.677 -0.0118  0.0412  0.0234
62286DOD     C130677  27.828  13.811  19.580 -0.1854 -0.0146  0.2802
62286DOD     C230678  28.189  13.607  19.497  0.3180 -0.0607  0.1872
62286DOD     C330679  28.517  13.273  19.516 -0.2205 -0.0584 -0.0898
62287DOD     C130680  11.742   3.212   5.932  0.0897  0.2214 -0.0476
62287DOD     C230681  11.337   3.505   5.985 -0.1560 -0.0972 -0.2900
62287DOD     C330682  11.068   3.799   5.862 -0.0604 -0.1791  0.0257
62288DOD     C130683  10.485  10.507  21.793 -0.2214  0.1000  0.0819
62288DOD     C230684  10.165  10.352  21.468 -0.1276 -0.1016 -0.1346
62288DOD     C330685   9.981  10.037  21.147 -0.1794  0.1293 -0.3571
62289DOD     C130686   4.346  17.446   5.630  0.0173 -0.1436 -0.1297
62289DOD     C230687   4.635  17.769   5.359  0.0593  0.0604 -0.0579
62289DOD     C330688   5.106  17.775   5.212  0.1718 -0.0264  0.0017
62290DOD     C130689  23.927  22.281  25.944 -0.0404  0.2018 -0.2413
62290DOD     C230690  24.171  22.541  26.294  0.0702 -0.3570  0.3586
62290DOD     C330691  24.041  22.599  26.786  0.1073 -0.2741  0.0628
62291DOD     C130692  29.682   0.044  24.662  0.0190  0.0134  0.0179
62291DOD     C230693  30.093   0.268  24.623  0.0799  0.0548 -0.2458
62291DOD     C330694   0.205   0.123  24.616 -0.2961  0.2210  0.2482
62292DOD     C130695  10.714   6.924   1.071 -0.3777 -0.0801  0.2001
62292DOD     C230696  10.780   6.883   0.551  0.0344  0.0316 -0.1743
62292DOD     C330697  10.671   6.800   0.137 -0.0643  0.0624 -0.5266
62293DOD     C130698   5.624  21.785  23.486 -0.1758 -0.1744  0.2689
62293DOD     C230699   6.069  21.628  23.486 -0.1103 -0.0775  0.1899
62293DOD     C330700   6.521  21.638  23.512  0.2195 -0.3965  0.0288
62294DOD     C130701  10.047  23.989  20.944  0.0046  0.3450  0.0984
62294DOD     C230702   9.790  23.849  20.628  0.1398  0.3722  0.3668
62294DOD     C330703   9.398  23.791  20.347  0.1706  0.1948  0.2151
62295DOD     C130704  24.336  18.308  17.384 -0.0988 -0.2332 -0.1829
62295DOD     C230705  24.561  18.169  17.764 -0.1429  0.0009  0.1635
62295DOD     C330706  24.478  17.879  18.116  0.0227  0.3696 -0.2451
62296DOD     C130707  29.769  20.479   9.031  0.2317  0.0244 -0.0974
62296DOD     C230708  29.593  20.728   8.703  0.0624 -0.0021  0.3709
62296DOD     C330709  29.325  20.805   8.313  0.3035 -0.0193  0.0653
62297DOD     C130710  30.010  30.294   1.787 -0.1992  0.4877  0.4900
62297DOD     C230711  30.034   0.267   2.048 -0.2379  0.1839 -0.1668
62297DOD     C330712  29.767   0.556   2.337  0.0923  0.1607  0.0212
62298DOD     C130713   3.722  27.177  21.893  0.2774  0.2258 -0.2114
62298DOD     C230714   3.667  26.689  21.869 -0.1342 -0.0731 -0.0695
62298DOD     C330715   3.637  26.287  22.101 -0.0730  0.1763  0.0458
62299DOD     C130716  21.781  22.362  24.556  0.0337 -0.0698 -0.1753
62299DOD     C230717  22.203  22.222  24.740  0.0151  0.0938 -0.1044
62299DOD     C330718  22.611  22.428  24.656 -0.0891  0.0360 -0.2350
62300DOD     C130719   2.347  22.321  25.601  0.1096 -0.2302 -0.2496
62300DOD     C230720   2.002  22.672  25.556  0.1342  0.1579  0.0350
62300DOD     C330721   1.579  22.686  25.370 -0.2710 -0.0826  0.0107
62301DOD     C130722  19.601   3.051  13.648 -0.0208  0.0255 -0.2022
62301DOD     C230723  19.383   2.647  13.753 -0.1659 -0.2229  0.1755
62301DOD     C330724  19.436   2.175  13.756 -0.2039 -0.0833  0.1246
62302DOD     C130725  11.021   5.636   8.760 -0.2690 -0.0942 -0.0446
62302DOD     C230726  11.359   5.586   9.056  0.0280 -0.1272 -0.4273
62302DOD     C330727  11.702   5.451   9.306 -0.1508 -0.1710  0.0528
62303DOD     C130728  18.879  12.892  15.419  0.0776  0.2321 -0.0368
62303DOD     C230729  19.250  13.140  15.552 -0.2455 -0.1573 -0.0859
62303DOD     C330730  19.667  13.322  15.641  0.2518 -0.3125  0.0835
62304DOD     C130731   0.547  16.851  19.463  0.0509  0.0131 -0.1143
62304DOD     C230732   0.361  16.521  19.308  0.3718 -0.0300  0.1299
62304DOD     C330733  -0.000  16.211  19.210 -0.0502  0.0985  0.2550
62305DOD     C130734   3.355  27.307  28.087 -0.0745  0.4269 -0.3063
62305DOD     C230735   3.748  27.185  28.189 -0.1222 -0.1881 -0.0204
62305DOD     C330736   4.129  26.922  28.208  0.2506 -0.2066  0.2102
62306DOD     C130737   9.755  19.106  29.515 -0.0467 -0.1311  0.2263
62306DOD     C230738   9.686  19.129  29.994 -0.2446 -0.0363 -0.0160
62306DOD     C330739   9.674  19.382   0.075 -0.3514 -0.2687 -0.3099
62307DOD     C130740   3.644   9.660   4.155  0.0840 -0.1628  0.2019
62307DOD     C230741   3.300   9.887   4.274  0.3299 -0.2665 -0.0067
62307DOD     C330742   2.894  10.155   4.127 -0.0987 -0.1765 -0.1389
62308DOD     C130743  26.605  10.981   3.227 -0.1584 -0.0216  0.0924
62308DOD     C230744  26.706  11.415   3.266  0.0920  0.0279 -0.1172
62308DOD     C330745  26.447  11.802   3.095  0.4390  0.2641  0.3481
62309DOD     C130746  14.589  19.570   9.166 -0.0028 -0.0012 -0.0574
62309DOD     C230747  15.012  19.446   8.946  0.0155 -0.3797  0.0778
62309DOD     C330748  15.476  19.315   9.051  0.0714  0.3183  0.0637
62310DOD     C130749   3.481  12.028  18.715 -0.2180  0.1866  0.3755
62310DOD     C230750   3.424  12.335  18.480  0.0948  0.0410  0.1260
62310DOD     C330751   3.613  12.703  18.232 -0.0825 -0.1966 -0.1315
62311DOD     C130752   0.800  17.637   1.638 -0.2204  0.1904  0.1177
62311DOD     C230753   0.394  17.521   1.802 -0.0776  0.1232  0.1227
62311DOD     C330754   0.183  17.187   2.114 -0.0299  0.0726  0.0895
62312DOD     C130755  28.561   2.229  13.592  0.1541  0.0771  0.5550
62312DOD     C230756  28.605   2.522  13.961  0.1632 -0.1760  0.1079
62312DOD     C330757  28.464   2.914  14.247 -0.0808  0.0103  0.2650
62313DOD     C130758   4.739   2.165   8.250 -0.1827  0.2056  0.2726
62313DOD     C230759   4.865   1.709   8.231  0.0843 -0.1039  0.2642
62313DOD     C330760   5.142   1.551   7.918 -0.3785 -0.2973 -0.2964
62314DOD     C130761  12.542   5.694  19.692 -0.2992 -0.0362 -0.0508
62314DOD     C230762  12.830   5.819  19.328  0.1375 -0.1837  0.0898
62314DOD     C330763  13.054   6.174  19.062 -0.3632  0.2545 -0.0587
62315DOD     C130764  16.999  10.920   9.725 -0.2129  0.0308  0.5400
62315DOD     C230765  17.309  11.150   9.420 -0.1658  0.2721  0.2581
62315DOD     C330766  17.561  11.204   9.071 -0.1056 -0.0701 -0.0297
62316DOD     C130767  25.255   7.023  19.507 -0.0055  0.1383  0.2136
62316DOD     C230768  25.517   6.657  19.342  0.3832  0.1411  0.0551
62316DOD     C330769  25.883   6.443  19.276  0.1768  0.2422  0.2966
62317DOD     C130770  18.278   6.293   0.050  0.0697 -0.0522  0.0296
62317DOD     C230771  18.439   6.563  29.998 -0.1625  0.2586 -0.0449
62317DOD     C330772  18.282   6.815  29.636  0.1915 -0.0414  0.2637
62318DOD     C130773  20.845  15.951  22.029 -0.1833 -0.0187  0.1686
62318DOD     C230774  20.646  15.934  21.590  0.0879 -0.0873 -0.1418
62318DOD     C330775  20.522  16.254  21.254  0.3426  0.0873 -0.1038
62319DOD     C130776  29.882  23.819  24.618  0.0437 -0.1774 -0.0715
62319DOD     C230777  30.275  24.000  24.767  0.1344 -0.1028  0.1819
62319DOD     C330778   0.368  24.159  24.916  0.1105 -0.0935  0.0339
62320DOD     C130779  19.552  22.236  15.874  0.3235  0.1351  0.1131
62320DOD     C230780  19.625  21.798  16.081  0.1847 -0.0282  0.1663
62320DOD     C330781  19.936  21.492  16.085 -0.1310 -0.2367  0.1284
62321DOD     C130782  26.796  24.210  11.115  0.0214 -0.2212  0.1326
62321DOD     C230783  26.992  24.533  10.851 -0.0865  0.1797 -0.0804
62321DOD     C330784  26.859  24.873  10.558  0.0675 -0.0553 -0.1069
62322DOD     C130785   3.826  21.124  26.961  0.2050 -0.1417  0.1132
62322DOD     C230786   4.005  21.209  26.588  0.1049  0.1939  0.2952
62322DOD     C330787   4.007  21.535  26.314  0.0710 -0.1282 -0.1325
62323DOD     C130788   4.501  29.336  23.307  0.2482  0.0907 -0.2991
62323DOD     C230789   4.244  28.986  23.514 -0.1523 -0.3060  0.2554
62323DOD     C330790   3.848  28.744  23.403 -0.2619 -0.2389 -0.0743
62324DOD     C130791  20.651  28.635   3.903  0.0965 -0.1856  0.4949
62324DOD     C230792  21.027  28.490   4.170 -0.0851 -0.5604  0.3896
62324DOD     C330793  21.164  28.430   4.589 -0.1515 -0.0258 -0.0140
62325DOD     C130794  11.365   8.306  18.822  0.2041 -0.0032 -0.0865
62325DOD     C230795  11.799   8.279  19.127 -0.1801 -0.1609  0.1794
62325DOD     C330796  12.017   7.946  19.332  0.0868  0.1207  0.1174
62326DOD     C130797   6.137  13.982  18.149 -0.3658 -0.1926  0.3743
62326DOD     C230798   6.121  14.285  17.878 -0.0899 -0.0886  0.1720
62326DOD     C330799   6.152  14.683  18.046  0.1240 -0.0177  0.0071
62327DOD     C130800  28.645  14.486  16.542  0.2213 -0.0841 -0.3455
62327DOD     C230801  28.239  14.718  16.502  0.1049 -0.2530  0.0009
62327DOD     C330802  27.857  14.785  16.277  0.1632  0.0350 -0.0984
62328DOD     C130803  28.275  11.070  22.926  0.0275 -0.1953  0.0821
62328DOD     C230804  28.349  11.327  22.543  0.1534  0.0781 -0.0609
62328DOD     C330805  28.256  11.257  22.078 -0.0399 -0.0809  0.1322
62329DOD     C130806  17.475  29.978  14.605  0.0916 -0.1851  0.3897
62329DOD     C230807  17.669   0.088  14.602 -0.0661 -0.1465 -0.1236
62329DOD     C330808  17.808   0.411  14.908 -0.1124 -0.0412 -0.0431
62330DOD     C130809  12.036  15.138   0.740  0.2168 -0.1268  0.2268
62330DOD     C230810  12.084  15.275   1.206  0.0548 -0.0318 -0.4076
62330DOD     C330811  12.067  15.533   1.625  0.0293  0.1489  0.0430
62331DOD     C130812  29.619   2.158  25.792 -0.0125  0.1696 -0.1501
62331DOD     C230813  29.616   1.848  25.408 -0.0384  0.1077 -0.3171
62331DOD     C330814  29.923   1.588  25.123 -0.1876 -0.0813  0.1772
62332DOD     C130815   4.617   7.903  23.042 -0.0218 -0.0012 -0.0430
62332DOD     C230816   5.020   8.031  23.234 -0.0536  0.1897  0.0276
62332DOD     C330817   5.486   8.130  23.240  0.1527  0.1410  0.2333
62333DOD     C130818  17.805  25.986  28.659 -0.0510 -0.2791  0.0745
62333DOD     C230819  17.568  26.283  28.357 -0.1662 -0.1679  0.0928
62333DOD     C330820  17.376  26.474  27.961 -0.2129  0.0171  0.1279
62334DOD     C130821  13.977  19.301  15.208  0.1138 -0.1614 -0.2245
62334DOD     C230822  14.067  19.633  15.565 -0.1129  0.0219 -0.0077
62334DOD     C330823  14.334  19.824  15.900 -0.0004 -0.0490 -0.0594
62335DOD     C130824  19.884  19.444   5.578  0.0557 -0.1997 -0.0872
62335DOD     C230825  19.534  19.434   5.932  0.1181 -0.0203 -0.0479
62335DOD     C330826  19.593  19.570   6.354 -0.2842 -0.1075 -0.0016
62336DOD     C130827  27.915  23.138   5.488 -0.1627 -0.0985  0.2119
62336DOD     C230828  27.771  23.015   5.904  0.3923  0.0004 -0.2064
62336DOD     C330829  27.607  22.591   6.081  0.1492  0.1945 -0.1057
62337DOD     C130830   8.513   8.271   2.687 -0.1689 -0.1296  0.2942
62337DOD     C230831   8.539   8.675   2.367  0.2582 -0.1620 -0.0700
62337DOD     C330832   8.572   8.918   2.035  0.0388  0.2043 -0.0033
62338DOD     C130833  15.939  17.915   7.536  0.0221 -0.1779 -0.1838
62338DOD     C230834  16.073  17.511   7.742  0.1364  0.1569  0.1447
62338DOD     C330835  16.385  17.183   7.904  0.0266 -0.1455 -0.1720
62339DOD     C130836  26.439   7.057  19.808  0.1145  0.0117 -0.0264
62339DOD     C230837  26.524   7.231  19.363 -0.1792  0.2658 -0.1338
62339DOD     C330838  26.197   7.316  18.993  0.1009  0.0212 -0.2630
62340DOD     C130839  23.027  19.076  20.714  0.1105 -0.0782  0.2987
62340DOD     C230840  23.262  18.637  20.838  0.4282  0.2129 -0.2927
62340DOD     C330841  23.682  18.536  20.971  0.0730 -0.2207  0.1589
62341DOD     C130842  16.660   4.224  19.600  0.0523 -0.0718  0.1269
62341DOD     C230843  16.894   4.075  19.232  0.0004  0.2376 -0.4789
62341DOD     C330844  16.827   4.052  18.751 -0.1399 -0.1807 -0.2428
62342DOD     C130845  19.731  15.465  25.772 -0.2625  0.0845  0.0928
62342DOD     C230846  19.715  14.973  25.654  0.3214  0.0881 -0.2854
62342DOD     C330847  19.741  14.546  25.647 -0.1379 -0.0771  0.1362
62343DOD     C130848  24.879   4.486  19.794  0.2768 -0.2395 -0.0887
62343DOD     C230849  24.771   4.057  20.058 -0.2234  0.0057  0.0470
62343DOD     C330850  24.361   3.795  20.174 -0.3153  0.2435 -0.1046
62344DOD     C130851  11.662  20.790   9.875 -0.0056 -0.0396 -0.2031
62344DOD     C230852  11.428  20.478  10.159  0.1224 -0.1542 -0.0694
62344DOD     C330853  11.556  20.041  10.351  0.0789 -0.1997  0.2011
62345DOD     C130854  27.787  25.326  22.408 -0.0132  0.1364  0.2544
62345DOD     C230855  28.148  25.017  22.217  0.2432  0.1582 -0.2471
62345DOD     C330856  28.397  24.631  22.332 -0.3916  0.0033  0.0407
62346DOD     C130857  17.662  10.292  12.250 -0.1902 -0.2460  0.0074
62346DOD     C230858  17.551   9.992  12.597 -0.1417  0.1219 -0.0399
62346DOD     C330859  17.365   9.838  12.927 -0.1220  0.0365 -0.1689
62347DOD     C130860   8.688  18.376  11.901 -0.0562  0.1579  0.2114
62347DOD     C230861   8.615  18.169  12.299  0.0295  0.1211 -0.0122
62347DOD     C330862   8.741  17.917  12.661 -0.2384  0.1334 -0.1845
62348DOD     C130863  28.657  27.898  25.591  0.2314  0.1560 -0.1293
62348DOD     C230864  28.476  27.593  25.240 -0.1436 -0.2897  0.2580
62348DOD     C330865  28.177  27.571  24.867  0.0756 -0.0871 -0.0575
62349DOD     C130866  28.801  30.241  12.045  0.1456 -0.0678  0.0121
62349DOD     C230867  29.026   0.004  12.453  0.1377 -0.5895 -0.0611
62349DOD     C330868  29.381  30.113  12.683 -0.0485  0.0408 -0.2544
62350DOD     C130869  20.501   1.757   9.051  0.2360  0.2916 -0.2208
62350DOD     C230870  20.400   1.402   9.288  0.1759  0.1012  0.3149
62350DOD     C330871  20.512   1.197   9.688  0.4193  0.0807  0.1787
62351DOD     C130872  29.387  10.851   8.894  0.0686 -0.0095 -0.1348
62351DOD     C230873  29.096  10.540   9.108  0.1459 -0.1278  0.0284
62351DOD     C330874  28.691  10.408   9.264 -0.2739 -0.0876  0.0384
62352DOD     C130875  29.129   2.543  11.277 -0.0269  0.0481  0.1223
62352DOD     C230876  28.757   2.735  11.422  0.2594 -0.0521  0.1363
62352DOD     C330877  28.647   3.024  11.815  0.1097 -0.1996 -0.2682
62353DOD     C130878   6.011   4.232   2.057 -0.0035  0.0728 -0.0207
62353DOD     C230879   6.263   3.861   2.075 -0.2277  0.2125 -0.0068
62353DOD     C330880   6.604   3.522   2.042  0.1765  0.0410  0.2844
62354DOD     C130881   2.644  21.871  26.442 -0.2962  0.3785  0.0741
62354DOD     C230882   2.683  22.333  26.398  0.0378  0.1521  0.0064
62354DOD     C330883   2.854  22.743  26.580  0.3486 -0.1218 -0.2135
62355DOD     C130884   0.395  29.181   7.671 -0.0998  0.1413 -0.2465
62355DOD     C230885   0.778  29.325   7.485 -0.1500  0.1217 -0.2042
62355DOD     C330886   1.153  29.519   7.300 -0.2003 -0.0061 -0.1496
62356DOD     C130887  21.848   1.489  22.410  0.1735  0.0317 -0.0785
62356DOD     C230888  21.695   1.876  22.167 -0.0939  0.1086 -0.0498
62356DOD     C330889  21.776   1.949  21.742  0.0395 -0.1866 -0.2256
62357DOD     C130890   8.026  14.646   3.039 -0.0493 -0.1653 -0.0565
62357DOD     C230891   8.412  14.951   3.006  0.2030  0.3283  0.2265
62357DOD     C330892   8.815  15.164   2.849 -0.0201  0.0959 -0.3994
62358DOD     C130893   3.971  14.169  18.409 -0.0133  0.1852 -0.0148
62358DOD     C230894   3.592  14.247  18.088  0.1233  0.0363 -0.0411
62358DOD     C330895   3.337  14.065  17.789  0.0092 -0.2620  0.2726
62359DOD     C130896  11.427  29.409  24.078 -0.2440  0.0666  0.1064
62359DOD     C230897  11.821  29.690  24.084  0.1560  0.3686  0.2513
62359DOD     C330898  12.082  30.085  23.871  0.3650  0.0306 -0.0368
62360DOD     C130899   5.172   6.461  25.781  0.1498 -0.0800 -0.1237
62360DOD     C230900   5.399   6.858  25.894  0.1767  0.0547 -0.1283
62360DOD     C330901   5.487   7.106  26.267 -0.1662  0.1653 -0.3588
62361DOD     C130902  18.052   0.567   9.598  0.0514 -0.0582 -0.0112
62361DOD     C230903  18.196   0.058   9.780  0.0259 -0.0940  0.1151
62361DOD     C330904  18.227  29.913   9.920 -0.0027  0.2804 -0.2065
62362DOD     C130905  26.719  10.275  15.600  0.1077  0.0667 -0.0347
62362DOD     C230906  26.827   9.896  15.866  0.1358  0.0699  0.3264
62362DOD     C330907  27.153   9.607  15.959 -0.0173 -0.1390 -0.0457
62363DOD     C130908  28.209  17.113  25.449  0.1166 -0.2929 -0.1113
62363DOD     C230909  28.159  17.218  25.017 -0.1899 -0.1753  0.1176
62363DOD     C330910  27.700  17.302  24.944  0.1475 -0.0576  0.1338
62364DOD     C130911  18.537  29.489  17.574 -0.0646 -0.1954  0.0475
62364DOD     C230912  18.830  29.857  17.561 -0.2053  0.0257  0.0572
62364DOD     C330913  19.039  30.245  17.377 -0.0625 -0.1292  0.4355
62365DOD     C130914   6.914   4.936   9.722 -0.4500  0.1165  0.0066
62365DOD     C230915   6.485   4.928   9.735  0.0844  0.3345 -0.2841
62365DOD     C330916   6.101   5.061   9.932 -0.2327  0.1882 -0.0258
62366DOD     C130917  22.372   3.773   9.555  0.0564  0.0062  0.1867
62366DOD     C230918  22.530   3.452   9.211 -0.3035  0.1280  0.2509
62366DOD     C330919  22.864   3.181   9.002  0.1317  0.2751  0.0201
62367DOD     C130920  10.462   3.667   4.505  0.4148  0.0688 -0.1355
62367DOD     C230921  10.815   4.017   4.561  0.3260 -0.0388 -0.0780
62367DOD     C330922  11.082   3.934   4.877  0.3128  0.0048 -0.1096
62368DOD     C130923  17.706   9.120  11.875  0.3864 -0.1962 -0.3858
62368DOD     C230924  17.968   8.763  12.007  0.0903 -0.0411  0.0730
62368DOD     C330925  18.293   8.609  12.327  0.3866 -0.0634  0.0035
62369DOD     C130926  29.329  29.732  22.720 -0.0172 -0.1590  0.2006
62369DOD     C230927  29.108  29.418  23.001 -0.0272 -0.0797  0.1168
62369DOD     C330928  28.684  29.352  22.975  0.0570  0.0772  0.1902
62370DOD     C130929  23.909   1.575   5.108 -0.0051  0.0320 -0.3923
62370DOD     C230930  24.090   1.147   5.050 -0.1249 -0.4279 -0.2456
62370DOD     C330931  24.089   0.664   4.927  0.0388 -0.1602 -0.1680
62371DOD     C130932  28.444  11.339  12.815 -0.0533  0.1672 -0.0062
62371DOD     C230933  28.191  10.958  12.737  0.0315 -0.0901  0.3018
62371DOD     C330934  27.810  10.645  12.701 -0.2390 -0.1599 -0.1435
62372DOD     C130935  27.804   8.562   2.659  0.1631 -0.0163 -0.2064
62372DOD     C230936  28.236   8.368   2.602  0.1720 -0.0113  0.0496
62372DOD     C330937  28.486   7.973   2.482  0.1878  0.2419 -0.1016
62373DOD     C130938  16.994  12.400   0.633 -0.0665  0.0584 -0.2900
62373DOD     C230939  16.574  12.270   0.481 -0.1283 -0.3755  0.0840
62373DOD     C330940  16.180  12.233   0.250  0.3633  0.1457 -0.0535
62374DOD     C130941   5.962  13.486   6.488  0.2265 -0.0498  0.0721
62374DOD     C230942   6.179  13.527   6.084  0.0247 -0.1326  0.0867
62374DOD     C330943   6.392  13.682   5.691 -0.1035  0.0369 -0.0617
62375DOD     C130944  29.525  16.726   5.557  0.0600 -0.2454 -0.1623
62375DOD     C230945  29.505  16.947   5.171  0.2317  0.0061  0.0118
62375DOD     C330946  29.620  17.274   4.887  0.0658  0.3218  0.1247
62376DOD     C130947   0.132  28.646  11.773 -0.3193 -0.0644  0.1914
62376DOD     C230948   0.571  28.728  11.950  0.0352 -0.0057 -0.0044
62376DOD     C330949   1.017  28.797  12.089 -0.3004  0.2173  0.1762
62377DOD     C130950  24.214  10.281  24.587  0.0091 -0.0006 -0.2861
62377DOD     C230951  24.363  10.014  24.198 -0.1546 -0.0443 -0.2930
62377DOD     C330952  24.484   9.950  23.755 -0.3144 -0.1142  0.2493
62378DOD     C130953  30.250  27.667  17.940 -0.0443  0.0953 -0.0613
62378DOD     C230954  30.261  27.224  17.732 -0.1728 -0.0738  0.2508
62378DOD     C330955  30.371  26.804  17.811  0.3295 -0.2590 -0.3527
62379DOD     C130956  30.176   9.336  16.831 -0.0094 -0.2837  0.1229
62379DOD     C230957  29.713   9.385  16.790  0.0402  0.3190 -0.3856
62379DOD     C330958  29.369   9.499  16.477 -0.2318 -0.0950 -0.0700
62380DOD     C130959   7.794  16.340  12.624  0.1637 -0.0378  0.0259
62380DOD     C230960   7.553  16.785  12.704 -0.1102  0.0410  0.4866
62380DOD     C330961   7.201  16.948  12.371 -0.0237 -0.1535 -0.2959
62381DOD     C130962  11.977  12.512   1.279  0.0263 -0.1178 -0.2318
62381DOD     C230963  11.798  12.219   1.568 -0.0304  0.1397  0.3016
62381DOD     C330964  11.500  11.916   1.519 -0.1885 -0.4321 -0.0406
62382DOD     C130965   9.079   1.333  29.140 -0.0223  0.0521  0.0511
62382DOD     C230966   9.345   0.942  28.997 -0.0822  0.0645 -0.0330
62382DOD     C330967   9.705   0.791  28.726 -0.2990 -0.0793  0.0475
62383DOD     C130968  27.437   3.496  23.137  0.0556  0.0560 -0.0592
62383DOD     C230969  27.830   3.719  23.393 -0.0495  0.2847 -0.1182
62383DOD     C330970  28.306   3.590  23.460 -0.0685  0.4552 -0.1243
62384DOD     C130971  14.791  17.485   3.637 -0.0198 -0.2350 -0.1828
62384DOD     C230972  14.315  17.511   3.637  0.0882  0.1887 -0.0425
62384DOD     C330973  14.040  17.284   3.823  0.0165  0.2500  0.0266
62385DOD     C130974  18.425  17.313   6.743 -0.4754 -0.2977  0.0693
62385DOD     C230975  18.894  17.343   6.854 -0.1410  0.3348 -0.2381
62385DOD     C330976  19.315  17.414   7.075 -0.2116 -0.0602  0.0476
62386DOD     C130977   0.581   1.862   3.378  0.0669  0.0815  0.1204
62386DOD     C230978   0.673   1.904   3.809  0.2062 -0.1069 -0.2698
62386DOD     C330979   0.897   2.275   4.045  0.4032  0.0161 -0.0198
62387DOD     C130980   1.675   9.125   3.772 -0.0717  0.0251  0.0025
62387DOD     C230981   1.320   9.017   3.500  0.0667 -0.2429 -0.0252
62387DOD     C330982   0.979   8.897   3.215 -0.3118  0.0360 -0.0495
62388DOD     C130983   5.876  30.141  20.502  0.0159 -0.1048 -0.1258
62388DOD     C230984   6.260  -0.018  20.308 -0.0553 -0.1213  0.0725
62388DOD     C330985   6.542   0.278  20.021 -0.0683  0.0300 -0.2981
62389DOD     C130986   9.172  21.830  27.621  0.0653  0.2408 -0.2419
62389DOD     C230987   9.265  21.929  28.056  0.0437 -0.3416 -0.2089
62389DOD     C330988   9.045  22.179  28.445  0.4052  0.0533  0.0882
62390DOD     C130989  13.084  10.384  16.651  0.5183 -0.0230  0.0297
62390DOD     C230990  13.007  10.793  16.856 -0.2323 -0.2237  0.0541
62390DOD     C330991  12.853  11.185  17.025 -0.1432  0.1478  0.0389
62391DOD     C130992   1.022   1.447  22.492 -0.0099  0.1209  0.2873
62391DOD     C230993   1.456   1.276  22.495 -0.1894  0.0924  0.0190
62391DOD     C330994   1.915   1.418  22.600 -0.3364  0.1227  0.0503
62392DOD     C130995   7.566   5.168  26.901  0.4008  0.0557 -0.0758
62392DOD     C230996   7.499   5.101  27.348 -0.1160 -0.1027  0.1460
62392DOD     C330997   7.303   5.283  27.702  0.0885 -0.1101 -0.1142
62393DOD     C130998   5.808   5.803   2.926 -0.1622  0.0886  0.1475
62393DOD     C230999   5.886   5.483   3.267 -0.1291  0.1896 -0.2584
62393DOD     C331000   5.553   5.211   3.462 -0.1021 -0.0491 -0.2124
62394DOD     C131001   1.784  25.212   5.132 -0.0710  0.0727 -0.0510
62394DOD     C231002   1.429  25.291   4.764 -0.2287 -0.0051 -0.3686
62394DOD     C331003   1.404  25.494   4.329  0.3046  0.0607  0.1138
62395DOD     C131004  12.826   0.122   5.437  0.1811  0.2079 -0.1659
62395DOD     C231005  12.976   0.536   5.544 -0.0183 -0.2243 -0.0729
62395DOD     C331006  13.373   0.743   5.757 -0.2314  0.0409 -0.0558
62396DOD     C131007   9.577  22.479  15.531  0.0451  0.0839 -0.0384
62396DOD     C231008   9.899  22.190  15.438 -0.0356 -0.2208  0.0734
62396DOD     C331009  10.029  21.792  15.279 -0.0020  0.5460  0.0595
62397DOD     C131010   1.683  21.112  29.642 -0.1943 -0.1644 -0.2065
62397DOD     C231011   1.821  21.113  29.190 -0.1116 -0.3492 -0.2302
62397DOD     C331012   2.135  21.203  28.865  0.1118  0.0437 -0.2435
62398DOD     C131013  27.265  21.321  23.507 -0.0611  0.1009 -0.0315
62398DOD     C231014  27.396  20.882  23.460 -0.1267 -0.3696 -0.2819
62398DOD     C331015  27.667  20.460  23.360  0.0673  0.1261  0.2707
62399DOD     C131016   5.141   2.294   6.404  0.1003 -0.0421  0.2461
62399DOD     C231017   4.802   1.974   6.552 -0.1309  0.0292  0.0531
62399DOD     C331018   4.646   1.553   6.709  0.4509 -0.1320  0.0207
62400DOD     C131019  20.159   5.065   9.686 -0.1680  0.2323 -0.0476
62400DOD     C231020  19.922   5.252  10.067 -0.0569  0.2885  0.3005
62400DOD     C331021  19.649   5.538  10.370  0.1457 -0.0471 -0.0140
62401DOD     C131022   0.053  28.723   8.347  0.1419  0.0712  0.1387
62401DOD     C231023  30.168  29.122   8.532 -0.0842  0.1568  0.0777
62401DOD     C331024  29.859  29.335   8.768 -0.0114  0.0259 -0.2154
62402DOD     C131025  17.595  21.115  29.105  0.0900 -0.0510 -0.1883
62402DOD     C231026  17.439  20.862  28.752 -0.0820 -0.2323  0.0754
62402DOD     C331027  17.552  20.776  28.338 -0.0956  0.0766  0.0125
62403DOD     C131028  15.826  13.629  29.390  0.0681  0.2961  0.0444
62403DOD     C231029  15.948  13.502  28.971 -0.1307  0.0279 -0.0411
62403DOD     C331030  16.133  13.230  28.705  0.0173 -0.1846 -0.0816
62404DOD     C131031  16.263   5.618  15.372  0.2299 -0.1589 -0.2029
62404DOD     C231032  16.497   5.199  15.246  0.1349 -0.0017  0.2301
62404DOD     C331033  16.596   4.751  15.352  0.2082  0.2932  0.1257
62405DOD     C131034  23.740  13.447  20.822 -0.0814 -0.5887  0.1902
62405DOD     C231035  24.078  13.496  20.437  0.0010 -0.3365 -0.2805
62405DOD     C331036  24.481  13.535  20.235 -0.0832 -0.0264 -0.1004
62406DOD     C131037  17.979  18.645  30.083  0.0103  0.0552 -0.0175
62406DOD     C231038  17.916  18.224  29.912 -0.0782 -0.1060  0.0297
62406DOD     C331039  18.056  17.774  29.830  0.4249  0.5294 -0.3373
62407DOD     C131040  29.632  29.998   0.307  0.3780  0.2582  0.0187
62407DOD     C231041  29.993  30.209   0.089  0.4240 -0.1127 -0.2507
62407DOD     C331042  30.200  30.174  29.958  0.1077  0.1289  0.1453
62408DOD     C131043  20.332  16.379   2.481  0.3465  0.0601 -0.0692
62408DOD     C231044  20.611  16.694   2.598  0.0420  0.0945  0.0719
62408DOD     C331045  20.684  16.997   2.988 -0.5085 -0.2203  0.1715
62409DOD     C131046  16.181  15.757   0.810  0.1980 -0.1480 -0.0131
62409DOD     C231047  16.000  15.340   0.605  0.3530 -0.2299 -0.4784
62409DOD     C331048  15.770  14.980   0.477  0.0777  0.1182  0.1434
62410DOD     C131049   9.684  11.904   0.778 -0.1108 -0.0935  0.0273
62410DOD     C231050   9.308  11.765   0.507 -0.2051 -0.0116 -0.0530
62410DOD     C331051   9.014  11.838   0.155 -0.4311  0.4288  0.1659
62411DOD     C131052  13.318  20.753   2.091 -0.2318 -0.2436 -0.2863
62411DOD     C231053  13.760  20.809   2.164 -0.0492 -0.0417 -0.1238
62411DOD     C331054  14.163  20.518   2.033 -0.0836 -0.2038 -0.0072
62412DOD     C131055  23.580  12.065  14.440  0.0094 -0.0965  0.0977
62412DOD     C231056  23.858  12.326  14.780  0.0875  0.0971 -0.1360
62412DOD     C331057  24.078  12.422  15.216 -0.0378 -0.2341 -0.0671
62413DOD     C131058  10.146  17.705  24.506 -0.1090  0.0253 -0.1729
62413DOD     C231059  10.116  18.130  24.291  0.0481 -0.1294  0.0730
62413DOD     C331060   9.898  18.486  24.424  0.2011  0.1905 -0.0056
62414DOD     C131061   3.018  23.125  24.820 -0.1085 -0.2096  0.2651
62414DOD     C231062   2.758  23.028  25.212 -0.1848  0.1717  0.1619
62414DOD     C331063   2.648  22.700  25.555 -0.2695  0.0148 -0.1462
62415DOD     C131064   9.143  30.129  21.611 -0.0181 -0.0184 -0.0376
62415DOD     C231065   8.948  29.704  21.513  0.2606 -0.0544 -0.2191
62415DOD     C331066   8.584  29.378  21.411 -0.1458 -0.4367  0.0248
62416DOD     C131067  17.431  10.667  25.677  0.0230 -0.3179 -0.0219
62416DOD     C231068  17.010  10.515  25.598 -0.1798  0.3029  0.0865
62416DOD     C331069  16.662  10.253  25.342  0.1973 -0.3108  0.2401
62417DOD     C131070   5.297  28.011  13.462  0.2797 -0.0973  0.0513
62417DOD     C231071   4.793  28.035  13.446 -0.0749  0.0133 -0.4075
62417DOD     C331072   4.434  28.329  13.402  0.0356  0.2818 -0.1074
62418DOD     C131073  28.671  13.986  16.438  0.1536  0.0167 -0.0898
62418DOD     C231074  28.677  13.519  16.275  0.0979 -0.0345  0.2519
62418DOD     C331075  28.404  13.232  15.995 -0.1786 -0.0702  0.1617
62419DOD     C131076   7.877   1.576  13.426 -0.1673 -0.3822 -0.1232
62419DOD     C231077   7.428   1.642  13.482  0.0181 -0.0166  0.1495
62419DOD     C331078   6.935   1.699  13.456  0.0579 -0.1100  0.1481
62420DOD     C131079   2.212   6.306  15.493  0.1144  0.2934 -0.0860
62420DOD     C231080   2.516   6.612  15.633 -0.1510 -0.2786  0.1916
62420DOD     C331081   2.960   6.576  15.800  0.1363 -0.0024  0.2421
62421DOD     C131082  17.353  14.283  18.449  0.1071  0.2117 -0.1632
62421DOD     C231083  17.441  13.825  18.508  0.1819  0.0190  0.0187
62421DOD     C331084  17.532  13.380  18.539 -0.1812 -0.1320 -0.0956
62422DOD     C131085   5.521   5.151   9.256  0.5579 -0.0251  0.2059
62422DOD     C231086   5.533   5.578   9.421 -0.0804  0.0764 -0.0260
62422DOD     C331087   5.583   5.984   9.615  0.0718 -0.0847  0.0555
62423DOD     C131088   3.437  27.754  26.957  0.0413  0.3311  0.0188
62423DOD     C231089   3.791  27.455  27.075 -0.1168 -0.3777 -0.0896
62423DOD     C331090   4.243  27.365  27.232 -0.1720 -0.0853 -0.0900
62424DOD     C131091   7.224  12.659  13.750  0.3271  0.1098 -0.5170
62424DOD     C231092   7.572  12.920  13.852  0.0365 -0.1134  0.0369
62424DOD     C331093   7.987  13.132  13.973  0.1274  0.4074  0.2130
62425DOD     C131094   4.648   4.681  14.151 -0.0511 -0.0073  0.2616
62425DOD     C231095   4.647   5.027  13.888  0.0396 -0.1696  0.1196
62425DOD     C331096   4.570   5.240  13.473 -0.1877 -0.0768  0.4470
62426DOD     C131097  14.452   1.960  17.764  0.2075  0.0972 -0.0197
62426DOD     C231098  14.577   2.353  18.011 -0.1233  0.0593  0.3369
62426DOD     C331099  14.729   2.767  18.200  0.2329  0.1224 -0.0423
62427DOD     C131100  27.742  23.125   1.245  0.0437  0.0425 -0.0949
62427DOD     C231101  27.247  23.019   1.070 -0.1256 -0.2714 -0.0510
62427DOD     C331102  26.839  23.164   0.893 -0.2179 -0.1350 -0.0898
62428DOD     C131103  11.119  25.762  14.733 -0.3847  0.1073  0.0753
62428DOD     C231104  10.955  25.308  14.723 -0.1768  0.5632 -0.2013
62428DOD     C331105  11.087  24.875  14.535  0.3901  0.1041 -0.1213
62429DOD     C131106  10.459  23.446  18.691 -0.2904 -0.2446  0.0851
62429DOD     C231107  10.625  23.345  18.269 -0.0466 -0.1834  0.1723
62429DOD     C331108  10.417  23.063  17.992  0.0197 -0.2082  0.1576
62430DOD     C131109  25.591  13.796  27.200 -0.1267  0.3666  0.0646
62430DOD     C231110  25.939  13.495  27.352 -0.0268  0.0697 -0.2516
62430DOD     C331111  26.230  13.219  27.558  0.4028 -0.1377 -0.0067
62431DOD     C131112  21.112  29.453  26.922  0.1786  0.3106  0.0214
62431DOD     C231113  21.100  29.282  26.500  0.1363  0.0268  0.0366
62431DOD     C331114  21.410  29.137  26.149 -0.2943 -0.0950  0.0795
62432DOD     C131115  27.750   9.411  23.227 -0.4134  0.0046  0.2184
62432DOD     C231116  27.511   9.525  23.592 -0.0497 -0.1127 -0.0203
62432DOD     C331117  27.553   9.516  24.030  0.0156 -0.1975 -0.0318
62433DOD     C131118   2.206  18.533  17.416 -0.2924 -0.3927 -0.1900
62433DOD     C231119   2.364  18.908  17.714 -0.1154 -0.2597  0.0394
62433DOD     C331120   2.804  19.013  17.706  0.1248 -0.3760 -0.3002
62434DOD     C131121   6.605  24.883  28.827 -0.0592 -0.2916 -0.0396
62434DOD     C231122   6.587  24.588  28.519  0.3363 -0.2301  0.0235
62434DOD     C331123   6.317  24.350  28.214 -0.2173  0.2920 -0.2873
62435DOD     C131124   0.768  11.887  19.771  0.3482  0.1829  0.0387
62435DOD     C231125   0.939  11.495  19.909 -0.1684 -0.1351 -0.0448
62435DOD     C331126   0.899  11.140  20.174  0.0923  0.0079  0.0383
62436DOD     C131127   5.850   6.536   5.091 -0.1128 -0.3314 -0.3598
62436DOD     C231128   5.509   6.550   4.782  0.0449 -0.1109  0.1708
62436DOD     C331129   5.321   6.153   4.616  0.0749 -0.2881  0.2852
62437DOD     C131130  10.156  22.076  14.468 -0.1327 -0.0581  0.0026
62437DOD     C231131  10.363  21.890  14.798  0.0399 -0.2136 -0.1570
62437DOD     C331132  10.559  21.683  15.183  0.2845  0.0063  0.0768
62438DOD     C131133  10.197   7.420  29.850 -0.3354 -0.0293 -0.0365
62438DOD     C231134  10.234   7.758  30.184 -0.2294  0.0667 -0.0785
62438DOD     C331135  10.213   8.038   0.263  0.1488 -0.0324  0.1460
62439DOD     C131136   8.474  11.446   7.751  0.1582  0.0021 -0.1365
62439DOD     C231137   8.251  11.154   8.080 -0.2545  0.3305  0.0479
62439DOD     C331138   7.842  11.190   8.228  0.2196 -0.2239 -0.0241
62440DOD     C131139  27.877   6.179  13.282 -0.2321 -0.1826 -0.1381
62440DOD     C231140  28.262   5.928  13.348 -0.0169 -0.0124 -0.1905
62440DOD     C331141  28.553   5.686  13.605  0.1296  0.0200  0.0316
62441DOD     C131142  28.787  19.902  20.989 -0.0865  0.4370  0.1767
62441DOD     C231143  28.663  19.934  20.542 -0.2210  0.2923 -0.0099
62441DOD     C331144  28.546  20.022  20.099 -0.1285  0.1118 -0.1155
62442DOD     C131145  28.052   6.746  18.340  0.2407 -0.2068 -0.0047
62442DOD     C231146  27.841   6.696  18.766  0.0312  0.2086 -0.0098
62442DOD     C331147  27.608   6.409  18.943  0.0306 -0.2128 -0.5465
62443DOD     C131148   7.036  14.524  25.763 -0.0656 -0.1345 -0.0922
62443DOD     C231149   6.595  14.379  25.536 -0.1256 -0.3444 -0.0769
62443DOD     C331150   6.188  14.439  25.709  0.3279  0.1859 -0.1943
62444DOD     C131151   8.788  14.408  14.239  0.0432 -0.1228 -0.1089
62444DOD     C231152   8.615  14.232  14.660  0.0994 -0.1843  0.4633
62444DOD     C331153   8.788  13.891  14.963 -0.1057 -0.1873  0.1208
62445DOD     C131154  11.091  16.721  23.783  0.1600  0.1334  0.0884
62445DOD     C231155  11.081  17.223  23.739  0.0388  0.0841  0.3464
62445DOD     C331156  10.901  17.590  23.888 -0.1262 -0.0144 -0.1339
62446DOD     C131157   6.988  28.607  19.978 -0.1142 -0.2755 -0.3303
62446DOD     C231158   7.427  28.701  19.784  0.1305 -0.0978  0.3491
62446DOD     C331159   7.752  28.605  19.549  0.4145  0.0624 -0.0871
62447DOD     C131160   8.324  29.156  28.689 -0.1578  0.2555 -0.2772
62447DOD     C231161   8.769  28.984  28.651 -0.3743 -0.0207 -0.0956
62447DOD     C331162   9.083  28.714  28.827  0.1761 -0.0945 -0.3066
62448DOD     C131163   6.286   2.326  16.711  0.0000 -0.0938 -0.1481
62448DOD     C231164   6.088   2.765  16.705  0.0261 -0.0533  0.1819
62448DOD     C331165   6.128   3.044  17.130 -0.0283  0.1511 -0.0480
62449DOD     C131166  16.128  16.237  28.294 -0.0792 -0.0624  0.1955
62449DOD     C231167  16.321  15.822  28.496 -0.0791  0.0504  0.0392
62449DOD     C331168  15.951  15.503  28.416  0.2356  0.1841 -0.0968
62450DOD     C131169  17.349  20.786  10.909  0.1406  0.1017 -0.0416
62450DOD     C231170  16.936  21.059  10.846  0.1478  0.2133  0.2450
62450DOD     C331171  16.464  21.182  10.871 -0.3244  0.1285 -0.0859
62451DOD     C131172  17.141  28.606  29.810  0.1390 -0.1069 -0.0690
62451DOD     C231173  16.903  28.414  30.198 -0.0171  0.0635 -0.0028
62451DOD     C331174  16.521  28.195  30.337 -0.1872  0.2423  0.3590
62452DOD     C131175  28.086  13.499  19.961 -0.2369  0.0690 -0.3063
62452DOD     C231176  27.611  13.371  19.795 -0.3683  0.2662 -0.2459
62452DOD     C331177  27.174  13.251  19.745 -0.0147  0.2134  0.0421
62453DOD     C131178  28.164  24.662  17.093  0.2336  0.1730 -0.0097
62453DOD     C231179  28.300  25.044  17.226 -0.2092  0.1398  0.1712
62453DOD     C331180  28.344  25.208  17.697 -0.1110 -0.1691 -0.1032
62454DOD     C131181  28.261  18.559  18.454 -0.2405  0.0891  0.1723
62454DOD     C231182  28.070  18.447  18.862  0.0947  0.2766  0.1266
62454DOD     C331183  27.926  18.093  19.134  0.2654  0.1083  0.1149
62455DOD     C131184   4.185  16.151   5.555  0.2465 -0.0472  0.0980
62455DOD     C231185   4.432  16.410   5.246 -0.1736 -0.0268  0.0947
62455DOD     C331186   4.868  16.347   5.080 -0.1122  0.0877 -0.2323
62456DOD     C131187   5.309  17.310   8.896 -0.0618  0.0975  0.4822
62456DOD     C231188   5.567  16.856   8.953  0.0585 -0.0338  0.1945
62456DOD     C331189   5.735  16.399   8.946 -0.2206  0.0543  0.0261
62457DOD     C131190   0.233  18.290  24.693  0.0450 -0.0172  0.0205
62457DOD     C231191   0.479  18.048  24.374  0.2416  0.2000  0.1467
62457DOD     C331192   0.675  17.646  24.370 -0.1512 -0.0203  0.0455
62458DOD     C131193  22.999   6.483  22.975 -0.2985  0.1602 -0.2142
62458DOD     C231194  22.675   6.208  22.797 -0.0591  0.1148  0.3418
62458DOD     C331195  22.198   6.232  22.725 -0.1254  0.0827 -0.0631
62459DOD     C131196  10.270  26.789  27.792 -0.1656 -0.2026  0.0326
62459DOD     C231197   9.871  26.862  27.982  0.0020  0.1695  0.1477
62459DOD     C331198   9.509  26.917  28.337 -0.0905  0.0196 -0.0140
62460DOD     C131199  16.654  21.932  23.340 -0.0679  0.0166  0.0998
62460DOD     C231200  17.016  21.953  23.050  0.2525  0.1189 -0.0580
62460DOD     C331201  17.309  22.267  22.884  0.0530  0.2447 -0.1998
62461DOD     C131202   0.438  18.538  29.998 -0.0984 -0.1060 -0.0242
62461DOD     C231203   0.857  18.482  30.208 -0.0733 -0.0494 -0.0387
62461DOD     C331204   0.934  18.017  -0.008  0.3163 -0.0676 -0.1091
62462DOD     C131205  15.567  30.214   2.569 -0.1434  0.1123  0.0430
62462DOD     C231206  15.293  29.787   2.526  0.1643 -0.1848 -0.1300
62462DOD     C331207  15.022  29.654   2.168  0.2082  0.1629 -0.1246
62463DOD     C131208  12.758  16.706  15.177  0.4178 -0.0345 -0.1134
62463DOD     C231209  12.673  16.241  15.222 -0.1082  0.0360  0.1378
62463DOD     C331210  12.750  15.825  15.180 -0.0387  0.1261  0.3244
62464DOD     C131211  22.241  28.895  13.442  0.0142  0.0192 -0.0750
62464DOD     C231212  22.475  28.519  13.618  0.0880 -0.1176 -0.2219
62464DOD     C331213  22.556  28.298  13.977  0.0248  0.2514 -0.0646
62465DOD     C131214  10.014   8.730  22.438 -0.2091  0.3406 -0.1782
62465DOD     C231215  10.095   8.956  22.850  0.0748  0.3013  0.2083
62465DOD     C331216   9.895   8.778  23.223 -0.0350 -0.0467  0.2356
62466DOD     C131217  27.143  20.989   4.269 -0.4271 -0.0333 -0.1901
62466DOD     C231218  27.337  20.698   3.936  0.1355 -0.0121 -0.0898
62466DOD     C331219  27.651  20.610   3.640 -0.1229  0.1784 -0.0113
62467DOD     C131220   6.870   3.366  25.777  0.0597  0.0245 -0.1613
62467DOD     C231221   7.358   3.213  25.572  0.0065 -0.0377  0.2175
62467DOD     C331222   7.517   2.784  25.380  0.0143 -0.1463  0.1142
62468DOD     C131223  24.627  15.056  19.924 -0.2312  0.2419 -0.2793
62468DOD     C231224  24.670  15.421  20.240  0.0021 -0.1288  0.0466
62468DOD     C331225  24.531  15.850  20.175 -0.0360 -0.2360  0.1405
62469DOD     C131226  28.293   6.430   4.836  0.4812  0.3168  0.1494
62469DOD     C231227  28.701   6.598   4.867 -0.2369 -0.1875 -0.1195
62469DOD     C331228  29.149   6.692   5.072  0.3014 -0.1182  0.1173
62470DOD     C131229  11.078  28.795  22.755  0.1270 -0.0609  0.1208
62470DOD     C231230  10.673  28.814  22.986 -0.0234 -0.1043 -0.1379
62470DOD     C331231  10.263  28.753  23.136  0.1898  0.4083  0.3224
62471DOD     C131232  15.289  19.310  16.150 -0.1006 -0.1072  0.5783
62471DOD     C231233  15.465  19.458  15.731 -0.0246 -0.0828  0.0476
62471DOD     C331234  15.815  19.662  15.461  0.2500 -0.0260 -0.1804
62472DOD     C131235  24.365  18.225  10.121  0.4624  0.1041  0.0440
62472DOD     C231236  24.586  18.480   9.770 -0.2050 -0.1222  0.0571
62472DOD     C331237  25.079  18.637   9.632 -0.1826 -0.1033 -0.0140
62473DOD     C131238  17.014  14.332   9.103  0.2001 -0.0741  0.5111
62473DOD     C231239  17.111  14.757   8.911 -0.2068  0.0047 -0.3384
62473DOD     C331240  16.987  15.109   8.649  0.1712 -0.2656 -0.0032
62474DOD     C131241   5.266  15.839  23.519  0.0692  0.0435 -0.1107
62474DOD     C231242   5.622  16.158  23.550 -0.0734 -0.0602  0.0941
62474DOD     C331243   5.671  16.410  23.937 -0.1336 -0.1423 -0.0646
62475DOD     C131244  23.898   4.376  21.858  0.1072 -0.0040 -0.0132
62475DOD     C231245  23.775   4.580  21.418 -0.2551 -0.0219  0.1055
62475DOD     C331246  23.352   4.772  21.331 -0.1412 -0.3114  0.2028
62476DOD     C131247  24.246  19.614  27.125  0.0527  0.1675 -0.0039
62476DOD     C231248  24.071  19.919  26.825 -0.0794  0.4191  0.0148
62476DOD     C331249  23.840  20.350  26.807 -0.1659  0.0932  0.3524
62477DOD     C131250  17.975   7.172   0.940 -0.2358  0.1648 -0.0520
62477DOD     C231251  17.580   7.228   0.724  0.2184  0.0892  0.1662
62477DOD     C331252  17.314   7.437   0.435 -0.0367  0.1219 -0.2292
62478DOD     C131253  16.207  14.859   6.210 -0.0297  0.1766  0.3054
62478DOD     C231254  16.370  14.534   6.463 -0.2372 -0.0961  0.2014
62478DOD     C331255  16.681  14.190   6.541 -0.2009  0.0704 -0.1895
62479DOD     C131256  27.322   1.659  24.325  0.2753 -0.2403 -0.0279
62479DOD     C231257  27.123   1.496  23.896  0.0791  0.0361  0.0159
62479DOD     C331258  26.762   1.524  23.590 -0.2233 -0.2670  0.2548
62480DOD     C131259  11.672  10.997  21.255  0.0160  0.1799  0.1936
62480DOD     C231260  11.393  10.595  21.228 -0.0992 -0.1057  0.2413
62480DOD     C331261  10.947  10.373  21.225 -0.3379 -0.2318  0.0789
62481DOD     C131262  29.589   7.467   5.853 -0.1349 -0.2244  0.0352
62481DOD     C231263  29.476   7.911   5.905  0.3120  0.0635 -0.0971
62481DOD     C331264  29.478   8.322   6.102 -0.0257  0.0761  0.1865
62482DOD     C131265  22.525   8.863  15.254  0.0365  0.0315 -0.0413
62482DOD     C231266  22.085   8.866  15.062 -0.0261 -0.3198  0.0762
62482DOD     C331267  21.785   9.133  14.847  0.0674 -0.0281 -0.0662
62483DOD     C131268  23.335  18.233  21.180  0.0814 -0.0290 -0.2943
62483DOD     C231269  22.972  18.287  21.535 -0.0164 -0.2170  0.1166
62483DOD     C331270  22.552  18.509  21.611  0.1166 -0.2259 -0.1322
62484DOD     C131271  24.741  18.343  19.066  0.3949  0.1776 -0.1361
62484DOD     C231272  24.620  18.703  19.335  0.0420  0.0589  0.0869
62484DOD     C331273  24.639  19.171  19.456 -0.3114 -0.1272  0.0640
62485DOD     C131274  24.634  29.864   8.503 -0.0177 -0.2317  0.0451
62485DOD     C231275  24.524  29.759   8.066 -0.2756  0.0757 -0.0390
62485DOD     C331276  24.661  29.571   7.664  0.2650  0.0103 -0.2761
62486DOD     C131277  29.371  10.915  13.810 -0.3107  0.2659  0.3440
62486DOD     C231278  29.142  10.508  13.689  0.0497 -0.0706  0.0204
62486DOD     C331279  28.928  10.077  13.633  0.1766  0.0428  0.2873
62487DOD     C131280  13.373   9.257  22.552 -0.1026 -0.2360 -0.0855
62487DOD     C231281  13.435   8.761  22.436 -0.2622 -0.0608 -0.2067
62487DOD     C331282  13.406   8.331  22.258 -0.0427 -0.1730  0.0317
62488DOD     C131283  24.910   0.815   5.551  0.0520 -0.2104  0.2636
62488DOD     C231284  25.108   1.224   5.744 -0.1561  0.3439 -0.0590
62488DOD     C331285  25.266   1.613   5.983 -0.0760  0.1805 -0.0764
62489DOD     C131286  22.488   4.059  12.154  0.1107 -0.0444  0.0715
62489DOD     C231287  22.001   4.007  12.004 -0.0977  0.1117 -0.0626
62489DOD     C331288  21.805   3.775  11.571 -0.0364 -0.0383 -0.4057
62490DOD     C131289   5.939  15.392  29.473 -0.1468  0.0189  0.2111
62490DOD     C231290   6.074  15.094  29.779  0.1496  0.4378  0.0458
62490DOD     C331291   6.148  14.662  29.964  0.2337 -0.0314 -0.0542
62491DOD     C131292  17.798  24.394  24.762 -0.1269  0.0102  0.1185
62491DOD     C231293  17.728  24.686  25.129  0.2490  0.1113  0.0453
62491DOD     C331294  17.470  25.043  25.277  0.2352  0.1068 -0.2154
62492DOD     C131295  10.372   2.866  27.051 -0.3259  0.1283  0.1171
62492DOD     C231296  10.242   2.446  26.787  0.0051  0.0560  0.0393
62492DOD     C331297  10.331   2.368  26.349  0.0022 -0.0270  0.0100
62493DOD     C131298   3.284   3.261  11.291  0.2020 -0.1498 -0.0731
62493DOD     C231299   3.023   3.622  11.363  0.2425 -0.1589  0.0970
62493DOD     C331300   2.786   3.904  11.564 -0.1815  0.0608 -0.2763
62494DOD     C131301   5.580  14.298   3.164  0.1045 -0.1982 -0.0533
62494DOD     C231302   5.663  14.486   2.752 -0.2145  0.0625 -0.1059
62494DOD     C331303   5.598  14.808   2.453 -0.1498 -0.2320  0.0311
62495DOD     C131304  11.496  13.420  20.138 -0.2392  0.1238  0.0554
62495DOD     C231305  11.891  13.275  19.871 -0.1909 -0.2694 -0.1466
62495DOD     C331306  12.158  12.848  19.834  0.1190  0.1629  0.0873
62496DOD     C131307  27.892  28.296   4.640  0.1463 -0.1386  0.0658
62496DOD     C231308  27.934  27.912   4.931  0.2628  0.3075  0.1687
62496DOD     C331309  27.809  27.847   5.404  0.2234  0.1299  0.1264
62497DOD     C131310  23.618   4.152   4.966  0.0495  0.0473 -0.0305
62497DOD     C231311  23.573   3.754   4.743  0.2890  0.0236  0.0420
62497DOD     C331312  23.283   3.500   4.519  0.2029  0.0103  0.0257
62498DOD     C131313  21.583  14.225  12.067  0.1281 -0.0227 -0.2992
62498DOD     C231314  21.783  14.171  12.539 -0.3759  0.0834  0.0610
62498DOD     C331315  21.956  13.860  12.793  0.1842 -0.1560 -0.2638
62499DOD     C131316   2.665   2.022  18.789  0.3135  0.2418 -0.1743
62499DOD     C231317   2.363   2.315  18.798  0.0191 -0.0231 -0.0208
62499DOD     C331318   1.897   2.285  18.869  0.2502  0.0209  0.1294
62500DOD     C131319  15.091  19.420   1.848 -0.3380 -0.0976  0.2231
62500DOD     C231320  14.707  19.666   1.736  0.0055  0.2093 -0.0422
62500DOD     C331321  14.521  20.012   2.002 -0.1232 -0.0649  0.1598
62501DOD     C131322  14.123   4.258   8.561 -0.2877  0.2907  0.0010
62501DOD     C231323  14.113   4.407   8.955  0.3632 -0.1294 -0.0995
62501DOD     C331324  14.046   4.812   9.261 -0.0883  0.1215 -0.0757
62502DOD     C131325   6.572  11.210  10.635  0.0490  0.2692 -0.1243
62502DOD     C231326   6.862  10.967  10.341 -0.2346 -0.0401 -0.0711
62502DOD     C331327   7.137  10.726  10.080  0.0198  0.2616 -0.0488
62503DOD     C131328  18.754   3.003  27.456  0.1887 -0.3067 -0.1212
62503DOD     C231329  18.818   3.391  27.179  0.2507 -0.1664 -0.1988
62503DOD     C331330  18.802   3.692  26.827 -0.1810  0.0522 -0.0896
62504DOD     C131331   6.746  20.642  19.059 -0.1196 -0.0197  0.0779
62504DOD     C231332   7.130  20.470  18.927 -0.0531  0.0906  0.1822
62504DOD     C331333   7.587  20.405  18.723  0.0977 -0.0277  0.2016
62505DOD     C131334   7.673  28.814   1.268 -0.2507 -0.2562 -0.0310
62505DOD     C231335   7.780  28.337   1.194  0.3259 -0.1547  0.1576
62505DOD     C331336   8.005  27.955   1.409  0.1671  0.0371  0.2314
62506DOD     C131337  27.020  15.703  25.223  0.2719  0.2007 -0.0357
62506DOD     C231338  26.717  16.032  25.415 -0.3909 -0.0664  0.0031
62506DOD     C331339  26.608  16.471  25.453  0.0124 -0.0478  0.0227
62507DOD     C131340   6.863  12.931  21.198  0.1303 -0.2169 -0.1277
62507DOD     C231341   6.377  12.955  21.105  0.2051  0.1197 -0.2772
62507DOD     C331342   5.965  12.813  21.258  0.1235  0.0581 -0.0308
62508DOD     C131343  16.761   7.509   6.587  0.0383 -0.0273 -0.1755
62508DOD     C231344  17.145   7.683   6.723 -0.0250  0.0956  0.1765
62508DOD     C331345  17.501   7.872   6.886 -0.1316 -0.0390 -0.2746
62509DOD     C131346  12.838  26.306   9.736 -0.2017  0.5186 -0.0257
62509DOD     C231347  12.769  26.726   9.517  0.1197 -0.1321  0.0217
62509DOD     C331348  12.443  27.127   9.367 -0.1251  0.0572  0.1410
62510DOD     C131349   0.996   4.321  14.723  0.3230 -0.1775 -0.0545
62510DOD     C231350   0.776   4.632  14.412  0.0411  0.1546 -0.1437
62510DOD     C331351   0.507   4.935  14.627 -0.0055 -0.0008  0.0882
62511DOD     C131352  19.420  23.966  10.869  0.2381  0.1602 -0.0568
62511DOD     C231353  19.309  24.306  11.217 -0.0874 -0.0720  0.0971
62511DOD     C331354  19.167  24.567  11.567  0.1554  0.0020 -0.2100
62512DOD     C131355  27.492  26.675   5.914  0.0098  0.1088  0.2630
62512DOD     C231356  27.825  26.474   6.114 -0.3075 -0.0941 -0.1362
62512DOD     C331357  28.097  26.198   5.933 -0.2565 -0.0329 -0.0032
62513DOD     C131358  18.043  19.971   4.422 -0.2175 -0.0243  0.0576
62513DOD     C231359  18.364  20.059   4.784 -0.0991 -0.0616 -0.0737
62513DOD     C331360  18.736  20.171   5.023  0.3565 -0.2736 -0.0101
62514DOD     C131361  12.783  15.278  24.343 -0.0670 -0.4638  0.0924
62514DOD     C231362  12.504  15.004  24.097  0.0197 -0.3869 -0.0256
62514DOD     C331363  12.157  14.735  24.067 -0.3139  0.0461 -0.0147
62515DOD     C131364   2.907   2.273  26.459 -0.3928  0.2212  0.1630
62515DOD     C231365   2.551   1.968  26.295 -0.1605 -0.0084 -0.0032
62515DOD     C331366   2.202   1.651  26.177 -0.0673  0.2418  0.1414
62516DOD     C131367  15.562  14.621   6.143 -0.0986  0.0268 -0.1781
62516DOD     C231368  15.324  14.214   6.255 -0.1421  0.0151  0.0106
62516DOD     C331369  15.039  13.867   6.280  0.0520 -0.3480  0.3529
62517DOD     C131370  12.650   0.773  24.755  0.2483 -0.1128  0.1857
62517DOD     C231371  13.024   0.685  24.504  0.2149  0.0446  0.1233
62517DOD     C331372  13.438   0.859  24.334  0.1467  0.3590  0.1470
62518DOD     C131373  20.840  14.189  15.150  0.0555  0.1803 -0.0490
62518DOD     C231374  20.823  14.415  15.532  0.0399 -0.2793  0.0823
62518DOD     C331375  20.972  14.789  15.708 -0.2776 -0.1459 -0.2915
62519DOD     C131376  21.326  29.830  23.410  0.0328  0.0627  0.3612
62519DOD     C231377  21.206  29.903  23.849 -0.0632 -0.0570  0.0468
62519DOD     C331378  21.072  30.058  24.262  0.0534  0.1829 -0.2075
62520DOD     C131379  17.164  25.534   6.334 -0.0941 -0.0688 -0.2980
62520DOD     C231380  17.390  25.453   6.726  0.1220 -0.0635  0.1718
62520DOD     C331381  17.726  25.640   7.003 -0.1071 -0.0340 -0.1766
62521DOD     C131382  14.845  21.019  26.350  0.0414  0.2640 -0.2286
62521DOD     C231383  15.196  21.129  26.633 -0.0491  0.1074 -0.0770
62521DOD     C331384  15.215  21.479  26.972  0.3311 -0.1263 -0.2525
62522DOD     C131385  27.311   0.455   7.682  0.0612  0.0189  0.1035
62522DOD     C231386  26.864   0.333   7.672 -0.1119  0.2218  0.3633
62522DOD     C331387  26.668  30.274   7.504  0.1901 -0.1339  0.2057
62523DOD     C131388  23.967  10.561   2.325  0.2403  0.0782  0.2627
62523DOD     C231389  23.898  10.937   2.657 -0.1164 -0.1494 -0.0490
62523DOD     C331390  23.919  11.025   3.100 -0.0478  0.0177  0.1308
62524DOD     C131391  12.556  23.161   8.046 -0.2140 -0.2231 -0.2177
62524DOD     C231392  12.917  22.992   7.847  0.1080 -0.3116 -0.0769
62524DOD     C331393  13.056  22.943   7.415 -0.1626 -0.2565  0.2447
62525DOD     C131394  14.640  10.733  26.785 -0.0247  0.1505  0.0805
62525DOD     C231395  14.696  10.584  27.248 -0.0627 -0.0364  0.2216
62525DOD     C331396  14.678  10.167  27.514  0.0104  0.0009  0.0103
62526DOD     C131397  29.706  29.854  24.592 -0.1668  0.1394  0.2040
62526DOD     C231398  30.006  29.668  24.885 -0.1264  0.0648  0.0469
62526DOD     C331399  30.216  29.526  25.318  0.1147  0.3374  0.2813
62527DOD     C131400  25.508  15.202  12.961  0.0964  0.0492  0.0842
62527DOD     C231401  25.069  15.210  13.107  0.1553 -0.2576  0.0251
62527DOD     C331402  24.616  15.285  13.269  0.3456  0.0038 -0.0642
62528DOD     C131403   5.503   2.153  16.415  0.1206  0.0037  0.0514
62528DOD     C231404   5.566   2.023  15.984 -0.0750  0.0588 -0.1238
62528DOD     C331405   5.779   1.919  15.593  0.1295 -0.4912 -0.1627
62529DOD     C131406  28.445  17.161  22.826 -0.0961  0.1695  0.1437
62529DOD     C231407  28.078  16.871  22.642  0.1562  0.5046 -0.2061
62529DOD     C331408  27.743  16.854  22.302 -0.0809  0.0950  0.1191
62530DOD     C131409  21.750  17.056  10.024  0.1674  0.1849 -0.2259
62530DOD     C231410  21.919  16.752  10.320 -0.1388 -0.1883 -0.3131
62530DOD     C331411  22.235  16.399  10.372  0.2459  0.1793 -0.1123
62531DOD     C131412  23.473   6.478  12.512 -0.1922 -0.2514  0.1420
62531DOD     C231413  23.176   6.577  12.833  0.0075  0.2589  0.1393
62531DOD     C331414  22.767   6.698  12.996 -0.1271  0.1009  0.1030
62532DOD     C131415  23.395  24.071  17.726 -0.1567  0.1981  0.1376
62532DOD     C231416  23.694  24.083  17.329 -0.2828  0.0789 -0.6187
62532DOD     C331417  23.760  24.450  16.980 -0.0604  0.0115  0.1017
62533DOD     C131418  25.703  28.307  29.003  0.1627  0.0746 -0.1748
62533DOD     C231419  26.024  28.640  28.997 -0.0201  0.0286 -0.1930
62533DOD     C331420  26.418  28.589  28.735 -0.0721 -0.0673  0.1595
62534DOD     C131421  27.711  29.503   0.952  0.3146  0.1139  0.0552
62534DOD     C231422  27.779  29.035   1.108 -0.0568 -0.5923 -0.2628
62534DOD     C331423  27.637  28.633   1.279  0.1077 -0.0734 -0.2804
62535DOD     C131424  10.302  20.133  16.430 -0.1844 -0.3292 -0.0799
62535DOD     C231425  10.452  19.668  16.324 -0.0428 -0.0999  0.0176
62535DOD     C331426  10.346  19.369  15.993  0.1410 -0.0353  0.1553
62536DOD     C131427  18.031   4.320  19.753  0.1153 -0.0709  0.0349
62536DOD     C231428  18.130   4.194  20.177  0.1475 -0.1862 -0.0815
62536DOD     C331429  18.158   4.283  20.628  0.1801  0.2925  0.3016
62537DOD     C131430  12.084  12.319   5.992 -0.3242  0.0155  0.0955
62537DOD     C231431  11.696  12.513   5.931  0.0477 -0.0678  0.0815
62537DOD     C331432  11.382  12.621   5.640  0.0503  0.0227 -0.1446
62538DOD     C131433  21.457  23.872  17.019 -0.1146  0.0065  0.0610
62538DOD     C231434  21.030  23.674  17.080  0.0422 -0.1241 -0.1275
62538DOD     C331435  20.622  23.540  16.979 -0.2102 -0.0357 -0.3649
62539DOD     C131436   1.339  12.609  26.341 -0.3321 -0.0657 -0.0645
62539DOD     C231437   1.567  12.982  26.487  0.1103  0.0966 -0.3784
62539DOD     C331438   1.852  13.380  26.407 -0.0180 -0.2950 -0.2495
62540DOD     C131439  24.404  23.438   4.774 -0.0460 -0.2293  0.0203
62540DOD     C231440  24.344  23.612   4.344 -0.4537  0.0499  0.0735
62540DOD     C331441  23.974  23.845   4.183 -0.3747 -0.1062  0.1167
62541DOD     C131442  21.756   0.692   1.540  0.0529  0.1604  0.1030
62541DOD     C231443  21.546   0.881   1.898 -0.2587 -0.1614 -0.1938
62541DOD     C331444  21.591   1.270   2.126 -0.1316  0.3613  0.0731
62542DOD     C131445   5.989   0.840  14.742 -0.2286 -0.0190 -0.0627
62542DOD     C231446   5.900   1.259  14.936 -0.2434  0.0032 -0.0112
62542DOD     C331447   5.591   1.428  15.277 -0.2598 -0.0804 -0.2092
62543DOD     C131448  25.192  28.764   4.148  0.0290  0.0378  0.0729
62543DOD     C231449  25.391  28.932   4.482  0.0910 -0.2921 -0.3834
62543DOD     C331450  25.586  29.180   4.823 -0.2101 -0.0177 -0.1921
62544DOD     C131451   8.455  20.043  20.883 -0.1773  0.0214 -0.2522
62544DOD     C231452   8.094  19.978  20.701 -0.2619 -0.0187  0.2214
62544DOD     C331453   7.710  19.718  20.638  0.3402 -0.0337 -0.2876
62545DOD     C131454  15.384   9.245   8.666 -0.1632  0.1660 -0.0203
62545DOD     C231455  15.534   8.872   9.008  0.0483  0.2595  0.5981
62545DOD     C331456  15.796   8.569   9.238  0.0247 -0.0268  0.4435
62546DOD     C131457  20.400   4.895  20.947 -0.1237 -0.0318  0.2981
62546DOD     C231458  20.797   4.888  20.670 -0.2628 -0.1216 -0.3368
62546DOD     C331459  21.178   5.190  20.616 -0.0624 -0.0064 -0.2107
62547DOD     C131460  11.398  26.375   1.017 -0.4533 -0.2422  0.0339
62547DOD     C231461  11.078  26.424   1.336  0.0900  0.1016  0.1411
62547DOD     C331462  10.999  26.306   1.803  0.0548 -0.1376  0.0620
62548DOD     C131463   0.749   4.724  10.060 -0.2616  0.1986 -0.0440
62548DOD     C231464   0.602   5.096  10.225 -0.0142  0.1929 -0.0280
62548DOD     C331465   0.695   5.524  10.025 -0.3425  0.4710 -0.0065
62549DOD     C131466  22.625  23.514   8.105 -0.0022  0.3319 -0.0151
62549DOD     C231467  22.422  23.301   7.764 -0.0348 -0.0652  0.1480
62549DOD     C331468  22.304  22.829   7.728 -0.1569 -0.2139 -0.1545
62550DOD     C131469  25.711  16.970  15.418  0.1908 -0.2705  0.1044
62550DOD     C231470  25.525  17.022  14.966  0.1276  0.3251  0.0894
62550DOD     C331471  25.647  16.863  14.577  0.0119 -0.1013  0.1468
62551DOD     C131472  19.499  12.822  15.848 -0.2237 -0.0209  0.0681
62551DOD     C231473  19.862  12.562  15.634 -0.0080 -0.1004 -0.1751
62551DOD     C331474  19.930  12.238  15.272  0.4552 -0.2420  0.0837
62552DOD     C131475  14.317  26.830  14.918 -0.0435 -0.2263  0.0063
62552DOD     C231476  14.550  26.795  14.482  0.2642  0.0146  0.2703
62552DOD     C331477  14.599  26.600  14.080  0.5473 -0.0256  0.2915
62553DOD     C131478  22.369  16.907   3.755  0.0967 -0.1618  0.0170
62553DOD     C231479  22.024  16.665   3.501 -0.0197 -0.1518 -0.2543
62553DOD     C331480  21.875  16.330   3.178 -0.0756 -0.0544 -0.0019
62554DOD     C131481   9.147  18.085   6.985  0.2496  0.2075  0.3941
62554DOD     C231482   9.043  18.453   6.761  0.3144  0.0528 -0.1846
62554DOD     C331483   8.731  18.774   6.506 -0.0886 -0.2327 -0.2476
62555DOD     C131484  20.546   3.114   3.034 -0.1845  0.2443  0.2082
62555DOD     C231485  20.713   2.916   2.643 -0.3032 -0.1891  0.2793
62555DOD     C331486  20.844   2.501   2.553  0.2065  0.0756 -0.0098
62556DOD     C131487  24.423  15.850   1.675  0.0932  0.2085 -0.0065
62556DOD     C231488  24.113  15.912   1.331  0.2042  0.1001 -0.0343
62556DOD     C331489  23.761  15.728   1.064  0.1603  0.3820  0.0567
62557DOD     C131490  17.021  24.570  21.224 -0.2242  0.1922  0.3893
62557DOD     C231491  17.049  24.977  21.005 -0.2937 -0.4377 -0.0349
62557DOD     C331492  17.030  25.266  20.617 -0.3899 -0.1868 -0.0223
62558DOD     C131493  12.292  13.873  16.354 -0.0045  0.1716  0.1749
62558DOD     C231494  12.641  13.566  16.381  0.2042  0.4772  0.0042
62558DOD     C331495  12.655  13.134  16.482 -0.0549  0.0178 -0.2924
62559DOD     C131496   5.587  17.410  12.649 -0.0787  0.1399  0.0728
62559DOD     C231497   5.588  17.441  13.089  0.1576  0.2451  0.2066
62559DOD     C331498   5.530  17.725  13.479  0.1157 -0.4419  0.0540
62560DOD     C131499  19.312  29.704  10.115  0.0180 -0.0680  0.1047
62560DOD     C231500  19.105  30.088   9.942 -0.2348  0.1740 -0.1679
62560DOD     C331501  18.618  30.200  10.027 -0.0022  0.0335 -0.0911
62561DOD     C131502   0.947  11.822  12.636  0.0533 -0.0823 -0.1235
62561DOD     C231503   0.923  11.587  12.249 -0.1884 -0.4114  0.2289
62561DOD     C331504   0.736  11.387  11.865 -0.2839  0.4468  0.1368
62562DOD     C131505   8.475  21.821  21.118  0.1052  0.1397  0.1643
62562DOD     C231506   8.125  22.189  21.279 -0.0504  0.2470 -0.2323
62562DOD     C331507   7.722  22.451  21.127 -0.2119  0.0718 -0.1084
62563DOD     C131508  18.743   8.648  14.650  0.1647  0.0470  0.3517
62563DOD     C231509  18.827   8.424  14.236 -0.0131  0.0052 -0.0155
62563DOD     C331510  19.094   8.146  13.962 -0.0257  0.1766  0.1148
62564DOD     C131511  10.766  15.370  20.704 -0.2156  0.0778 -0.0214
62564DOD     C231512  10.753  15.347  21.158 -0.1555 -0.1587  0.2871
62564DOD     C331513  10.808  15.725  21.372  0.0362 -0.0777 -0.1046
62565DOD     C131514   6.409  11.259  15.581  0.1145  0.0531 -0.2141
62565DOD     C231515   5.972  11.231  15.372  0.2095  0.2536  0.0181
62565DOD     C331516   5.670  11.094  15.034 -0.0253  0.0562  0.1288
62566DOD     C131517  14.869   6.837  17.672 -0.0191  0.0570 -0.1039
62566DOD     C231518  14.733   6.462  17.604 -0.0771  0.0695 -0.1171
62566DOD     C331519  14.536   6.185  17.316  0.3350 -0.0278  0.0242
62567DOD     C131520   9.301  25.158  13.632  0.2144  0.1839 -0.0825
62567DOD     C231521   9.415  25.120  13.166  0.0766 -0.1895 -0.1403
62567DOD     C331522   9.347  24.820  12.870 -0.2076  0.3640 -0.1468
62568DOD     C131523  24.756  25.153   0.977 -0.0286  0.1762 -0.1813
62568DOD     C231524  24.625  25.579   0.867  0.1541 -0.0527 -0.2054
62568DOD     C331525  24.943  25.942   0.989 -0.0903 -0.2181 -0.0250
62569DOD     C131526  14.539  23.482  21.081  0.0651 -0.0977 -0.2038
62569DOD     C231527  14.391  23.435  20.668 -0.0848  0.2650 -0.3226
62569DOD     C331528  14.243  23.391  20.272 -0.2372 -0.1451  0.2246
62570DOD     C131529  18.329  29.677   8.187  0.0072  0.0357 -0.4040
62570DOD     C231530  18.265  29.448   7.808  0.1336 -0.0503 -0.1248
62570DOD     C331531  18.589  29.141   7.574  0.2067 -0.1286  0.3009
62571DOD     C131532   5.082  13.539   2.020 -0.0222 -0.1720  0.0946
62571DOD     C231533   4.978  13.405   2.465 -0.0765  0.2135 -0.0874
62571DOD     C331534   5.048  13.704   2.823 -0.1413  0.2927 -0.2842
62572DOD     C131535  15.750   2.119   8.149  0.2102 -0.3784 -0.0352
62572DOD     C231536  15.816   1.616   8.093  0.1393  0.0286  0.1361
62572DOD     C331537  15.603   1.274   8.173 -0.2374 -0.1408  0.1788
62573DOD     C131538   2.362  28.425  29.998 -0.0501 -0.0608  0.0723
62573DOD     C231539   2.004  28.214  29.855 -0.0398  0.3535  0.0665
62573DOD     C331540   1.926  27.864  29.538 -0.1605  0.1315  0.0408
62574DOD     C131541  28.905  18.316   9.948  0.0181 -0.1086 -0.0417
62574DOD     C231542  28.656  18.270   9.562  0.0906  0.0901 -0.0250
62574DOD     C331543  28.682  18.381   9.083  0.1636 -0.2278 -0.1223
62575DOD     C131544  22.689  29.127  11.972 -0.1702  0.0641  0.0404
62575DOD     C231545  22.743  28.668  11.830  0.2826 -0.1363 -0.3412
62575DOD     C331546  22.787  28.152  11.911 -0.0537  0.0394 -0.2427
62576DOD     C131547  18.987   6.646   1.537  0.0373 -0.3570 -0.0243
62576DOD     C231548  19.227   6.509   1.139  0.1575  0.0595 -0.0428
62576DOD     C331549  19.422   6.178   0.869  0.1846 -0.1761  0.0285
62577DOD     C131550   3.346  10.672   5.591  0.1904  0.0032 -0.1063
62577DOD     C231551   3.170  10.517   5.175  0.1494 -0.3231  0.2219
62577DOD     C331552   2.786  10.364   5.065  0.1974 -0.1610 -0.0498
62578DOD     C131553   3.399   0.726   1.492  0.2371  0.2216  0.1267
62578DOD     C231554   3.696   1.022   1.553 -0.1195  0.0962  0.0553
62578DOD     C331555   3.965   1.463   1.726 -0.2797  0.0420 -0.3171
62579DOD     C131556   2.244  17.269   7.974 -0.1385 -0.1312 -0.1226
62579DOD     C231557   2.007  17.169   7.586 -0.0189  0.1248 -0.2242
62579DOD     C331558   1.623  17.024   7.442  0.1218  0.1148 -0.1030
62580DOD     C131559  14.828   4.853  15.193 -0.1642 -0.0463  0.0823
62580DOD     C231560  15.116   4.750  14.861  0.1378 -0.3972 -0.0633
62580DOD     C331561  15.180   4.567  14.434  0.0612  0.0795 -0.1917
62581DOD     C131562  21.988  30.173   8.039 -0.0892  0.2880  0.2870
62581DOD     C231563  21.922  30.040   8.515 -0.0300  0.0890  0.0019
62581DOD     C331564  21.631  29.790   8.719  0.1792  0.2141  0.1531
62582DOD     C131565   4.586  12.728  14.145  0.0458  0.0552  0.0441
62582DOD     C231566   4.254  12.663  14.412  0.1301 -0.4288 -0.3560
62582DOD     C331567   3.833  12.453  14.537 -0.3797 -0.0656 -0.1756
62583DOD     C131568   1.834   2.823  10.473 -0.0264  0.0900 -0.1946
62583DOD     C231569   1.393   2.800  10.617  0.1535 -0.2744  0.0237
62583DOD     C331570   0.916   2.889  10.630 -0.2092 -0.0693 -0.2250
62584DOD     C131571   0.679  21.646   4.881 -0.0072  0.2050  0.0101
62584DOD     C231572   0.511  22.063   4.733  0.1654  0.3310  0.1810
62584DOD     C331573   0.372  22.499   4.848 -0.1321 -0.1196 -0.1616
62585DOD     C131574  25.954  18.699  27.990 -0.0876 -0.0319 -0.0839
62585DOD     C231575  25.592  18.949  27.871  0.3199 -0.0895  0.3297
62585DOD     C331576  25.403  19.289  28.067 -0.1480 -0.2174 -0.2302
62586DOD     C131577   2.623  25.675   4.281 -0.0055 -0.1730 -0.1730
62586DOD     C231578   2.263  25.751   4.576  0.2384 -0.1722  0.0607
62586DOD     C331579   1.823  25.535   4.630 -0.5698 -0.2586  0.0600
62587DOD     C131580   6.625   0.591  23.312 -0.2119 -0.0308  0.0585
62587DOD     C231581   6.436   0.687  23.730  0.3572 -0.1340  0.0212
62587DOD     C331582   6.378   1.026  24.007  0.2007 -0.5240 -0.4443
62588DOD     C131583  16.214   6.485  18.943 -0.0295  0.0260 -0.3064
62588DOD     C231584  15.694   6.653  18.931  0.1483  0.1227 -0.0768
62588DOD     C331585  15.212   6.699  18.989 -0.3132 -0.0012 -0.1769
62589DOD     C131586  10.435  18.228  11.528  0.3647  0.1514  0.0367
62589DOD     C231587  10.117  18.357  11.849 -0.0346  0.0255  0.2015
62589DOD     C331588   9.987  18.684  12.184  0.1386 -0.1477 -0.1234
62590DOD     C131589  19.781   6.094  22.683  0.1677 -0.1865  0.1830
62590DOD     C231590  20.131   6.355  22.783 -0.0999  0.0039  0.1844
62590DOD     C331591  20.318   6.494  23.227 -0.0967  0.0089 -0.0409
62591DOD     C131592   5.866  21.059  28.007  0.0483  0.2371  0.1278
62591DOD     C231593   5.550  20.681  28.071  0.0759  0.0452  0.3652
62591DOD     C331594   5.288  20.288  28.019  0.3530  0.0832 -0.2812
62592DOD     C131595   6.478   9.388   4.375 -0.1875 -0.3325 -0.0938
62592DOD     C231596   6.368   9.834   4.213  0.3455 -0.1757  0.0419
62592DOD     C331597   6.029  10.059   3.935 -0.1051  0.1609  0.1126
62593DOD     C131598  26.905   1.200   7.165 -0.2382  0.0406 -0.0392
62593DOD     C231599  27.263   1.064   6.947 -0.2988  0.2250 -0.0969
62593DOD     C331600  27.436   0.757   6.648 -0.0886 -0.0089 -0.2085
62594DOD     C131601  18.865   9.638  26.454 -0.0756 -0.0673  0.0933
62594DOD     C231602  18.390   9.566  26.383  0.0943  0.0473  0.2333
62594DOD     C331603  17.991   9.492  26.569 -0.0376 -0.1261 -0.1516
62595DOD     C131604  26.929  14.905   4.924 -0.0800 -0.1579  0.0360
62595DOD     C231605  26.975  14.377   4.826  0.2166  0.2071  0.0442
62595DOD     C331606  26.893  14.004   4.641 -0.1111  0.4012 -0.4104
62596DOD     C131607  17.536   8.651   9.124  0.0328  0.1655 -0.2259
62596DOD     C231608  17.698   8.943   9.452 -0.1019  0.1948 -0.1965
62596DOD     C331609  17.876   9.374   9.397  0.1399 -0.0621  0.4167
62597DOD     C131610   0.453  21.646  16.615  0.0185  0.1782 -0.4588
62597DOD     C231611   0.522  21.492  16.155  0.0430  0.1188  0.0933
62597DOD     C331612   0.446  21.149  15.793 -0.1791  0.0407 -0.0534
62598DOD     C131613   1.306   3.444  20.992 -0.2303 -0.0054  0.0556
62598DOD     C231614   0.853   3.511  21.236  0.0712 -0.1195 -0.2414
62598DOD     C331615   0.405   3.637  21.247 -0.3042  0.3121 -0.0662
62599DOD     C131616   6.577  27.984  20.523  0.0388  0.3358 -0.1177
62599DOD     C231617   6.155  28.182  20.626  0.0096 -0.0503 -0.0476
62599DOD     C331618   5.876  28.521  20.753  0.3069  0.4179 -0.1015
62600DOD     C131619  29.051  14.718  27.103 -0.3325  0.4489  0.0092
62600DOD     C231620  29.413  14.456  27.225  0.0475  0.1503  0.0062
62600DOD     C331621  29.876  14.428  27.347  0.0493 -0.1167  0.3975
62601DOD     C131622  25.991  29.663  27.768  0.2354 -0.0164  0.0029
62601DOD     C231623  26.281  29.313  27.809 -0.0934  0.1667 -0.0038
62601DOD     C331624  26.536  29.241  27.403  0.0628 -0.1793 -0.3956
62602DOD     C131625   0.741  25.609  19.657 -0.2571  0.0129 -0.3111
62602DOD     C231626   1.019  25.457  20.006  0.0042 -0.0161  0.2050
62602DOD     C331627   1.195  25.115  20.343 -0.1910 -0.3138 -0.0613
62603DOD     C131628  13.379   2.749   8.531  0.1058  0.0311  0.0022
62603DOD     C231629  13.301   2.655   8.977 -0.1456 -0.1129  0.0392
62603DOD     C331630  13.304   2.917   9.370  0.3400  0.1772 -0.1012
62604DOD     C131631  24.902  18.846   0.756  0.2779  0.0654 -0.0691
62604DOD     C231632  25.316  19.014   0.732  0.2772  0.1774  0.0008
62604DOD     C331633  25.740  19.119   0.899 -0.1556  0.0482  0.0326
62605DOD     C131634  16.060  10.131   3.715  0.3723  0.0684 -0.0356
62605DOD     C231635  15.902   9.683   3.667 -0.0054  0.2412  0.2211
62605DOD     C331636  15.866   9.247   3.435  0.2137  0.0139  0.1853
62606DOD     C131637   9.945  20.734   8.946 -0.2586  0.4131  0.1609
62606DOD     C231638   9.715  20.924   9.319  0.4763  0.1563  0.0749
62606DOD     C331639   9.674  21.299   9.563  0.1877  0.2163  0.0488
62607DOD     C131640  17.272   1.615  17.987 -0.0729  0.0195  0.0589
62607DOD     C231641  17.614   1.662  18.300  0.1841  0.1234 -0.1234
62607DOD     C331642  17.715   1.880  18.741 -0.4257  0.1259  0.0244
62608DOD     C131643   8.600  22.484  17.545  0.1116  0.0651 -0.0166
62608DOD     C231644   8.513  22.856  17.743 -0.0738  0.1168 -0.0430
62608DOD     C331645   8.194  23.149  17.881 -0.1807  0.2484  0.1289
62609DOD     C131646   1.254  12.518   6.735  0.2428 -0.2150 -0.2381
62609DOD     C231647   0.921  12.785   6.808 -0.1969 -0.2465  0.0156
62609DOD     C331648   0.469  12.995   6.850 -0.1485 -0.0492  0.1920
62610DOD     C131649   7.835  14.613   5.508  0.3150 -0.1967  0.1815
62610DOD     C231650   8.039  14.983   5.651 -0.1431  0.0529  0.2183
62610DOD     C331651   8.440  15.205   5.772  0.2098 -0.1395 -0.1653
62611DOD     C131652  15.907  29.775  12.237 -0.2193  0.0070 -0.1861
62611DOD     C231653  15.738  29.420  12.544  0.0308  0.1096 -0.2230
62611DOD     C331654  15.973  29.104  12.766 -0.0039  0.0696 -0.0180
62612DOD     C131655  24.367  26.214  16.233 -0.1164 -0.2944 -0.0438
62612DOD     C231656  23.987  26.519  16.342  0.0263  0.0155  0.0285
62612DOD     C331657  23.536  26.676  16.499 -0.0770 -0.0904  0.1643
62613DOD     C131658  22.025  13.466  19.372 -0.2181 -0.0912  0.1492
62613DOD     C231659  22.251  13.315  19.804 -0.0843 -0.0801 -0.0275
62613DOD     C331660  22.296  13.218  20.234  0.1526 -0.0004 -0.0974
62614DOD     C131661  28.053  17.651   4.305  0.3483  0.3296 -0.0490
62614DOD     C231662  28.489  17.805   4.242  0.1168 -0.1412 -0.1009
62614DOD     C331663  28.850  18.005   4.394  0.1981  0.0402  0.0187
62615DOD     C131664   6.445   1.180  20.661 -0.2799  0.0982 -0.1283
62615DOD     C231665   6.004   1.134  20.410 -0.4309 -0.2803  0.0656
62615DOD     C331666   5.715   1.116  20.068 -0.3609  0.1359 -0.0798
62616DOD     C131667   8.367   9.669  25.499 -0.0290 -0.2408 -0.1111
62616DOD     C231668   8.042   9.326  25.466  0.1167 -0.0947 -0.0550
62616DOD     C331669   7.897   9.118  25.862  0.3078 -0.0696  0.0754
62617DOD     C131670   8.324  30.239  18.342 -0.1151  0.0731 -0.0231
62617DOD     C231671   8.156  30.261  17.935 -0.2950  0.0953 -0.0153
62617DOD     C331672   8.102  29.918  17.642  0.1111  0.1711 -0.3287
62618DOD     C131673  19.674  23.518  17.344  0.0463  0.2892 -0.1246
62618DOD     C231674  19.772  23.673  16.874  0.0054  0.0903 -0.0163
62618DOD     C331675  19.965  23.968  16.560 -0.0665  0.2673  0.0425
62619DOD     C131676  14.478  26.353  21.487 -0.0259  0.0020 -0.1469
62619DOD     C231677  14.556  26.668  21.119 -0.0231  0.0086  0.1377
62619DOD     C331678  14.388  27.130  21.073  0.1587 -0.2285 -0.2820
62620DOD     C131679  16.496  18.673  17.977  0.1332  0.2075  0.0692
62620DOD     C231680  16.950  18.446  17.976  0.1434 -0.0454 -0.0677
62620DOD     C331681  17.038  18.008  17.846  0.0283  0.3221  0.1818
62621DOD     C131682   4.483  20.896  24.744  0.0640  0.1881 -0.0143
62621DOD     C231683   4.181  21.009  24.373 -0.1128 -0.0846  0.0192
62621DOD     C331684   3.764  21.284  24.357 -0.2162 -0.1275  0.0474
62622DOD     C131685  13.622   6.163   1.851 -0.3169  0.0370  0.0063
62622DOD     C231686  13.458   6.220   1.420  0.1385  0.1395  0.1280
62622DOD     C331687  13.351   6.142   1.011 -0.2302  0.2383 -0.0236
62623DOD     C131688  24.945   5.948   0.218  0.3954 -0.2202 -0.2289
62623DOD     C231689  25.343   5.911   0.467 -0.2248  0.1307  0.1344
62623DOD     C331690  25.707   6.186   0.585 -0.1301  0.0120 -0.5301
62624DOD     C131691   3.303  10.364   9.989  0.0445  0.2033  0.1738
62624DOD     C231692   3.142  10.593  10.327 -0.2439  0.0483 -0.1329
62624DOD     C331693   2.884  10.716  10.685 -0.0024  0.0209 -0.1727
62625DOD     C131694  23.939  18.159   1.448 -0.0155 -0.1474  0.2480
62625DOD     C231695  23.764  18.113   1.046  0.0627 -0.1762  0.1011
62625DOD     C331696  23.458  18.433   0.887  0.1593 -0.0750  0.2448
62626DOD     C131697  15.934  14.652  28.456  0.0043 -0.0307  0.1345
62626DOD     C231698  16.197  14.952  28.274 -0.2120  0.0409  0.1119
62626DOD     C331699  16.320  15.392  28.107  0.0433  0.0366  0.0971
62627DOD     C131700   8.513  26.781  18.554 -0.0611  0.0033 -0.4236
62627DOD     C231701   8.645  27.156  18.355  0.0526  0.0423  0.1670
62627DOD     C331702   8.549  27.498  18.566 -0.2604  0.0456 -0.0139
62628DOD     C131703  23.317  10.589  20.413  0.0885  0.2010 -0.1399
62628DOD     C231704  23.026  10.404  20.096 -0.0850  0.2098 -0.0237
62628DOD     C331705  22.864  10.213  19.702  0.0041  0.1253  0.0696
62629DOD     C131706  13.637   8.574   2.068  0.0310  0.0780 -0.0808
62629DOD     C231707  13.324   8.608   1.714 -0.0098  0.0411  0.0055
62629DOD     C331708  12.908   8.579   1.693  0.0073  0.0275  0.1155
62630DOD     C131709   1.054   4.111   8.562 -0.0427  0.2650 -0.0753
62630DOD     C231710   0.909   3.893   8.248  0.0663 -0.2086 -0.0720
62630DOD     C331711   0.521   3.756   7.930 -0.1905 -0.1425 -0.1631
62631DOD     C131712   2.303   1.505   4.779  0.5330 -0.1916  0.3656
62631DOD     C231713   2.725   1.345   4.758  0.0355 -0.2198  0.1110
62631DOD     C331714   3.184   1.469   4.827 -0.1422 -0.0451  0.0097
62632DOD     C131715  27.732  10.725  21.345 -0.1724 -0.4025  0.4129
62632DOD     C231716  27.380  10.972  21.484 -0.0844 -0.2462  0.4557
62632DOD     C331717  27.039  11.098  21.254  0.2001 -0.1962  0.2070
62633DOD     C131718  15.463  16.568  23.375 -0.1022 -0.2032  0.1397
62633DOD     C231719  15.192  16.196  23.465 -0.1508  0.1968 -0.2176
62633DOD     C331720  14.836  16.159  23.706 -0.2478 -0.0761 -0.3247
62634DOD     C131721  17.837  17.778  11.269 -0.1586 -0.2175  0.0328
62634DOD     C231722  17.545  17.949  11.612  0.1066  0.0206  0.0049
62634DOD     C331723  17.501  17.904  12.069  0.1064  0.1469  0.1976
62635DOD     C131724  18.488  13.299  23.978  0.0025 -0.2097 -0.0432
62635DOD     C231725  18.569  12.845  23.898 -0.5633  0.0019  0.2272
62635DOD     C331726  18.650  12.369  23.944  0.0439  0.1864 -0.1439
62636DOD     C131727  26.820   2.077  15.272  0.3530 -0.1372 -0.0020
62636DOD     C231728  26.999   2.208  15.657  0.1617  0.1187 -0.0271
62636DOD     C331729  27.278   2.067  15.991  0.2058 -0.1664 -0.0694
62637DOD     C131730  13.882   5.239  14.245 -0.2569 -0.0707 -0.1391
62637DOD     C231731  14.256   5.068  14.446  0.0023  0.2206  0.2713
62637DOD     C331732  14.525   5.147  14.861  0.1760  0.0157  0.1482
62638DOD     C131733  17.767  10.475   8.399 -0.0292  0.2474  0.1625
62638DOD     C231734  17.388  10.727   8.211 -0.1055 -0.2167 -0.1218
62638DOD     C331735  16.949  10.765   8.348  0.0423  0.2424 -0.1745
62639DOD     C131736   9.924  22.046  25.842  0.0222 -0.0083 -0.1196
62639DOD     C231737  10.340  22.060  26.008  0.0553 -0.2216 -0.0787
62639DOD     C331738  10.743  21.878  25.868 -0.1230  0.0253 -0.0898
62640DOD     C131739   3.975  17.465  24.703 -0.0363 -0.2036  0.2192
62640DOD     C231740   4.218  17.092  24.580  0.0562 -0.1132  0.0572
62640DOD     C331741   4.329  16.831  24.167  0.0421 -0.0579  0.1418
62641DOD     C131742   5.070  10.420  28.422  0.3715  0.2175  0.0899
62641DOD     C231743   4.713  10.663  28.379  0.3296 -0.0935 -0.0223
62641DOD     C331744   4.240  10.735  28.431 -0.1082 -0.0695 -0.1553
62642DOD     C131745  12.026  28.488  13.740 -0.0033 -0.3414 -0.0277
62642DOD     C231746  12.100  28.953  13.851 -0.0023  0.0160 -0.1379
62642DOD     C331747  12.009  29.385  13.759  0.1301  0.0431  0.1008
62643DOD     C131748  14.872  28.921  28.773  0.1796 -0.3379  0.2324
62643DOD     C231749  14.485  28.948  28.449 -0.1066  0.1840  0.1275
62643DOD     C331750  14.243  28.608  28.252  0.1028  0.0277  0.1207
62644DOD     C131751  20.145  29.093   0.907 -0.0506  0.1769 -0.0202
62644DOD     C231752  20.193  29.034   0.432  0.2194 -0.3832 -0.3179
62644DOD     C331753  20.241  28.713   0.051 -0.1392 -0.2199  0.0462
62645DOD     C131754  18.973   0.935   7.475  0.5205 -0.2082 -0.2071
62645DOD     C231755  18.662   1.315   7.336 -0.1255 -0.1076 -0.2261
62645DOD     C331756  18.471   1.643   7.115  0.0711  0.1225 -0.2737
62646DOD     C131757  28.724   3.059  16.500  0.1446 -0.3282  0.1948
62646DOD     C231758  28.649   2.674  16.168  0.0340 -0.1626 -0.0584
62646DOD     C331759  28.610   2.446  15.796  0.1777  0.3342 -0.0489
62647DOD     C131760   8.775  14.410  25.114 -0.1085  0.4459  0.0540
62647DOD     C231761   9.125  14.377  24.752 -0.0125  0.0535  0.0211
62647DOD     C331762   9.284  14.486  24.353  0.3910 -0.0983 -0.3762
62648DOD     C131763  15.861  12.283   1.123  0.0409  0.0198 -0.2031
62648DOD     C231764  15.639  12.632   0.859  0.0367  0.4258  0.0155
62648DOD     C331765  15.344  12.504   0.492 -0.2885 -0.0667 -0.1428
62649DOD     C131766   3.056  16.668  29.697 -0.1105  0.2339 -0.1881
62649DOD     C231767   3.087  17.151  29.623 -0.1730  0.2194 -0.4267
62649DOD     C331768   3.254  17.545  29.426  0.2064 -0.1324  0.2552
62650DOD     C131769  15.330  17.837  10.828  0.1339  0.4155 -0.4057
62650DOD     C231770  15.635  17.821  10.481  0.1693 -0.2792 -0.0888
62650DOD     C331771  15.999  18.123  10.289  0.0161 -0.0931 -0.1460
62651DOD     C131772  23.829  25.557  25.180 -0.2332 -0.0671  0.0320
62651DOD     C231773  23.581  25.618  25.569  0.1530  0.3295 -0.0652
62651DOD     C331774  23.224  25.931  25.714  0.0289  0.2530 -0.1051
62652DOD     C131775  22.326  18.317   9.370  0.1384  0.2854  0.2253
62652DOD     C231776  22.533  17.965   9.129 -0.1606  0.0360  0.0914
62652DOD     C331777  22.689  17.604   8.861 -0.0535 -0.0164  0.1611
62653DOD     C131778   8.536  12.213  11.173  0.0808  0.1844  0.0250
62653DOD     C231779   8.935  11.993  11.185 -0.3212 -0.3215  0.0714
62653DOD     C331780   9.184  11.760  11.511  0.1963 -0.2432 -0.0400
62654DOD     C131781  17.247   7.860  13.466  0.1156  0.0344 -0.1876
62654DOD     C231782  17.024   8.207  13.186 -0.3403  0.0475 -0.0174
62654DOD     C331783  16.899   8.360  12.790 -0.0592 -0.1042  0.2661
62655DOD     C131784   8.670  23.158  24.293  0.1219 -0.2416  0.1338
62655DOD     C231785   8.595  23.380  23.859  0.0609  0.3508  0.0107
62655DOD     C331786   8.529  23.765  23.599  0.0201 -0.2618  0.1195
62656DOD     C131787   8.344   0.205  21.798  0.2416  0.3103  0.2803
62656DOD     C231788   8.584   0.135  22.246  0.1591  0.0570 -0.1902
62656DOD     C331789   8.580   0.312  22.624 -0.3740 -0.0041 -0.0036
62657DOD     C131790   4.449   2.130  23.370 -0.0240 -0.2998  0.0909
62657DOD     C231791   4.219   2.035  22.969  0.0098 -0.0468 -0.2823
62657DOD     C331792   3.842   2.116  22.667 -0.0130 -0.2734  0.3614
62658DOD     C131793  25.069  12.714   8.066  0.0020 -0.1501  0.1091
62658DOD     C231794  25.017  12.708   8.509 -0.1594  0.1553  0.0735
62658DOD     C331795  24.727  12.901   8.866  0.2957 -0.0289 -0.2303
62659DOD     C131796   9.313  24.554  27.158  0.0779 -0.1502  0.1398
62659DOD     C231797   9.503  24.730  27.513 -0.3895 -0.0078 -0.0569
62659DOD     C331798   9.728  24.880  27.859 -0.2531  0.1868 -0.0736
62660DOD     C131799  11.223   3.984  23.482  0.2204 -0.2636  0.0975
62660DOD     C231800  11.266   3.708  23.832 -0.0348  0.2893  0.1264
62660DOD     C331801  11.023   3.277  23.891  0.1860  0.0028 -0.0196
62661DOD     C131802  25.337   1.194  21.986  0.1495 -0.0605 -0.1806
62661DOD     C231803  25.550   0.811  22.215  0.0220 -0.0828 -0.1691
62661DOD     C331804  25.858   0.468  22.296 -0.0101  0.2420 -0.3069
62662DOD     C131805  30.240  21.034   0.412 -0.2317  0.2699 -0.2072
62662DOD     C231806  29.829  20.872   0.288 -0.2689 -0.0097  0.0733
62662DOD     C331807  29.413  20.636   0.403  0.0315  0.1186  0.0292
62663DOD     C131808   0.102  16.997   3.059 -0.1220 -0.0918  0.0662
62663DOD     C231809  30.172  17.296   3.350 -0.2779 -0.1346 -0.1010
62663DOD     C331810  29.876  17.627   3.527 -0.0185 -0.2522  0.0863
62664DOD     C131811  12.473  17.666  25.751 -0.2190 -0.3000 -0.1335
62664DOD     C231812  12.374  17.365  26.142 -0.3058 -0.3028 -0.1106
62664DOD     C331813  12.425  17.338  26.605  0.0189  0.1324  0.1331
62665DOD     C131814  20.184   9.245   6.422 -0.2344  0.1429 -0.3583
62665DOD     C231815  20.138   9.300   5.989  0.1958 -0.0509  0.0616
62665DOD     C331816  19.973   9.151   5.593  0.0364 -0.0197  0.2356
62666DOD     C131817  14.623  23.568  23.058  0.1368 -0.1577 -0.3568
62666DOD     C231818  14.959  23.259  23.205 -0.3381  0.3673 -0.0251
62666DOD     C331819  15.402  23.398  23.114  0.0414  0.2546 -0.0043
62667DOD     C131820   4.435   0.602  17.908 -0.0071 -0.0210 -0.1358
62667DOD     C231821   4.642   0.638  17.526  0.0209 -0.1746  0.3284
62667DOD     C331822   4.821   0.813  17.103  0.0478 -0.0312  0.0008
62668DOD     C131823  17.615  29.582  17.180 -0.3799  0.1545  0.1518
62668DOD     C231824  17.273  29.860  17.216  0.0546  0.1533 -0.1466
62668DOD     C331825  17.227  30.288  17.008 -0.0196  0.0248 -0.1763
62669DOD     C131826   6.191  27.403   1.245  0.1220  0.2464  0.0307
62669DOD     C231827   5.780  27.260   1.375 -0.0228  0.4351  0.1033
62669DOD     C331828   5.641  27.048   1.774 -0.1929 -0.4061 -0.0156
62670DOD     C131829   5.606  28.759  21.104 -0.1701 -0.0327  0.2814
62670DOD     C231830   5.539  28.891  20.678 -0.2281  0.2731 -0.2741
62670DOD     C331831   5.489  29.118  20.256 -0.0829  0.5348 -0.4101
62671DOD     C131832   0.458  17.550  25.612  0.1633 -0.2588  0.2024
62671DOD     C231833   0.123  17.751  25.942  0.0473  0.0282 -0.2625
62671DOD     C331834  30.237  18.100  26.109  0.2061 -0.1892 -0.0897
62672DOD     C131835   3.003  14.865  27.504 -0.0169  0.1566  0.0659
62672DOD     C231836   3.246  14.678  27.174 -0.0142 -0.0328  0.1355
62672DOD     C331837   3.281  14.233  26.921  0.1558  0.1586 -0.1646
62673DOD     C131838  28.210  13.513  27.698  0.1596 -0.1424  0.0404
62673DOD     C231839  28.399  13.202  27.411 -0.2674 -0.1089  0.1164
62673DOD     C331840  28.725  12.833  27.505 -0.1293  0.1537  0.0858
62674DOD     C131841   3.688  13.728   0.464 -0.2932 -0.1608  0.0299
62674DOD     C231842   4.079  14.002   0.408  0.3421 -0.1896 -0.0622
62674DOD     C331843   4.519  14.152   0.316 -0.0772 -0.2484  0.4317
62675DOD     C131844  19.013  21.673  12.020  0.1240  0.0346  0.0379
62675DOD     C231845  18.697  21.968  11.843 -0.0554  0.2004  0.1100
62675DOD     C331846  18.320  22.098  11.717  0.1854  0.0254 -0.1701
62676DOD     C131847  24.307  13.492   0.452  0.2425 -0.1514 -0.0559
62676DOD     C231848  24.602  13.185   0.378  0.3196  0.2192  0.2498
62676DOD     C331849  24.932  12.988   0.096  0.2528 -0.1228 -0.0504
62677DOD     C131850  25.054  27.552  13.467  0.0219  0.0007 -0.0410
62677DOD     C231851  24.866  27.121  13.546  0.3145 -0.3746  0.3311
62677DOD     C331852  24.886  26.725  13.754  0.1163 -0.0405 -0.1011
62678DOD     C131853  28.410  26.198  22.166  0.1025 -0.1563  0.1328
62678DOD     C231854  28.594  26.599  22.080  0.2454 -0.2003  0.2858
62678DOD     C331855  28.601  27.059  22.210 -0.2936  0.1124 -0.2389
62679DOD     C131856  17.745   6.434  13.178  0.2246  0.1696 -0.3383
62679DOD     C231857  17.485   6.584  13.510  0.0901  0.1153  0.2928
62679DOD     C331858  17.028   6.495  13.550 -0.1453  0.0220 -0.1826
62680DOD     C131859  28.763  26.776  28.361 -0.2035 -0.1516 -0.0190
62680DOD     C231860  28.981  26.915  28.770  0.1426 -0.0474  0.2473
62680DOD     C331861  29.039  26.980  29.207  0.1114  0.0371  0.0205
62681DOD     C131862  12.605   8.794  22.481 -0.1964 -0.0919 -0.1576
62681DOD     C231863  12.267   8.989  22.818  0.1834 -0.3314  0.2256
62681DOD     C331864  11.947   9.211  23.108  0.3111 -0.1667  0.3128
62682DOD     C131865  17.993  26.341   1.672 -0.0473  0.3872  0.0097
62682DOD     C231866  17.789  25.938   1.562  0.0950 -0.1989 -0.1642
62682DOD     C331867  17.502  25.610   1.322  0.1791 -0.3043 -0.1472
62683DOD     C131868   7.467   7.005  10.717 -0.2202  0.0130 -0.2192
62683DOD     C231869   7.574   7.487  10.541 -0.2548 -0.2796 -0.2305
62683DOD     C331870   7.466   7.906  10.412 -0.0412  0.1099  0.0853
62684DOD     C131871  30.134  20.380  18.855 -0.1164 -0.4163 -0.2155
62684DOD     C231872   0.109  20.411  19.165 -0.1087  0.0264  0.0090
62684DOD     C331873   0.087  20.393  19.592 -0.0657 -0.0543 -0.0804
62685DOD     C131874  12.173  27.995  12.963  0.2144  0.0607  0.1524
62685DOD     C231875  12.058  28.445  12.873 -0.0058  0.1851  0.1000
62685DOD     C331876  11.940  28.907  12.774  0.1111  0.0254  0.0264
62686DOD     C131877  22.018   2.769   8.202 -0.4296 -0.0319 -0.5353
62686DOD     C231878  22.132   2.715   8.670 -0.1446  0.0168 -0.0445
62686DOD     C331879  22.174   2.574   9.103 -0.1401 -0.2187  0.0994
62687DOD     C131880  24.502  15.031  20.414  0.0326  0.2436  0.1667
62687DOD     C231881  24.308  15.184  20.839 -0.1057 -0.0256  0.0889
62687DOD     C331882  24.265  15.479  21.200 -0.0936 -0.0478  0.1170
62688DOD     C131883   0.405  18.265  14.972 -0.0960  0.2696 -0.1667
62688DOD     C231884   0.452  18.537  15.388 -0.1513  0.1715  0.0843
62688DOD     C331885   0.491  18.808  15.817  0.1545 -0.1340  0.1304
62689DOD     C131886   9.801   7.077  28.577  0.2102 -0.3275  0.0608
62689DOD     C231887   9.565   7.030  28.182 -0.2537 -0.1330  0.1702
62689DOD     C331888   9.726   6.959  27.784  0.4292  0.0869  0.0402
62690DOD     C131889   0.893  14.453  19.655  0.0634 -0.1149 -0.0601
62690DOD     C231890   0.582  14.137  19.641  0.5488  0.2610  0.0890
62690DOD     C331891   0.483  13.912  19.304 -0.3476  0.1457  0.1260
62691DOD     C131892  20.479  19.945  17.689  0.1711 -0.0359  0.1844
62691DOD     C231893  20.681  20.181  17.301 -0.3153 -0.2070 -0.0408
62691DOD     C331894  20.906  20.403  16.930  0.0052 -0.1664  0.1295
62692DOD     C131895  20.854  23.901   7.223 -0.0989 -0.0512  0.0291
62692DOD     C231896  21.026  23.816   6.811  0.1419 -0.1023  0.2608
62692DOD     C331897  21.131  23.594   6.411  0.1133  0.2176  0.3019
62693DOD     C131898  17.533   1.291  28.280  0.3577 -0.0712 -0.1060
62693DOD     C231899  17.243   1.636  28.251 -0.2092  0.1924 -0.5074
62693DOD     C331900  16.876   1.891  28.296 -0.0449 -0.2107  0.0412
62694DOD     C131901  21.555  29.879  15.851  0.0635 -0.0914 -0.1452
62694DOD     C231902  21.840  30.249  15.722 -0.2326  0.2067 -0.1044
62694DOD     C331903  22.168   0.312  15.827 -0.0896  0.0612  0.1527
62695DOD     C131904  20.373  18.106  19.157 -0.1161 -0.0601 -0.2863
62695DOD     C231905  20.419  18.141  19.624  0.1441  0.5673  0.2370
62695DOD     C331906  20.561  18.029  20.020 -0.1272 -0.0737  0.3570
62696DOD     C131907  26.554  18.968  17.528  0.0711 -0.1134 -0.1407
62696DOD     C231908  26.420  19.462  17.449 -0.1996 -0.3182  0.0460
62696DOD     C331909  26.306  19.807  17.780 -0.1463  0.1366  0.0247
62697DOD     C131910   9.048  24.976  27.780  0.0270 -0.0541 -0.1209
62697DOD     C231911   9.304  24.962  28.150  0.1114  0.3320  0.1316
62697DOD     C331912   9.613  24.900  28.483 -0.5412 -0.1025 -0.3710
62698DOD     C131913   1.663   4.239  14.836  0.0552 -0.1006 -0.2047
62698DOD     C231914   1.935   4.628  14.826 -0.0479 -0.2324  0.0070
62698DOD     C331915   1.832   5.011  14.568  0.0689 -0.2799 -0.2060
62699DOD     C131916   1.227  14.319   7.613 -0.2197  0.2385  0.1722
62699DOD     C231917   0.982  14.681   7.636  0.0196  0.0363  0.0045
62699DOD     C331918   1.216  15.063   7.699  0.3027  0.0628 -0.0016
62700DOD     C131919  22.865  29.968  13.598  0.2824  0.0850 -0.1400
62700DOD     C231920  22.806  29.537  13.342 -0.0657  0.2217  0.0155
62700DOD     C331921  23.038  29.156  13.398  0.1137 -0.1589  0.2028
62701DOD     C131922  10.225  29.064  15.725  0.0252  0.0399 -0.1047
62701DOD     C231923   9.775  28.940  15.525 -0.1927 -0.3236 -0.0226
62701DOD     C331924   9.589  28.500  15.480 -0.2119 -0.1596  0.0744
62702DOD     C131925  21.701  12.184   9.355  0.1592  0.1417 -0.1807
62702DOD     C231926  22.127  12.041   9.085  0.1302 -0.2074 -0.2008
62702DOD     C331927  22.515  11.925   8.873  0.1641  0.1237  0.1095
62703DOD     C131928  30.133  21.021  29.978 -0.1421  0.1903  0.1671
62703DOD     C231929  29.956  21.222  29.665  0.0335 -0.2663  0.0273
62703DOD     C331930  29.802  21.485  29.320 -0.0611  0.0719  0.2107
62704DOD     C131931  14.079  13.000  24.435  0.2136  0.0697  0.0915
62704DOD     C231932  14.286  13.192  24.089  0.0241  0.1119  0.2343
62704DOD     C331933  14.744  13.097  23.952  0.0820  0.1784 -0.2673
62705DOD     C131934   2.070  22.908   7.337  0.3442 -0.0204  0.0072
62705DOD     C231935   2.268  22.710   6.960  0.0359 -0.0637 -0.1516
62705DOD     C331936   2.717  22.737   6.817  0.0467 -0.1496 -0.1875
62706DOD     C131937  28.574  20.321   9.885  0.1222  0.0305  0.1135
62706DOD     C231938  28.920  20.519  10.173  0.0744 -0.1004 -0.0459
62706DOD     C331939  28.851  20.626  10.603  0.4141 -0.0308 -0.1444
62707DOD     C131940  20.544  29.861  20.797 -0.0464 -0.0484 -0.0954
62707DOD     C231941  20.556  29.730  20.379 -0.0789  0.1974  0.0293
62707DOD     C331942  20.739  29.410  20.072 -0.0089 -0.1886 -0.1449
62708DOD     C131943  19.186  16.208  20.788  0.1196  0.0680  0.2310
62708DOD     C231944  19.520  15.927  21.066 -0.1214  0.1273  0.0309
62708DOD     C331945  19.940  15.956  21.217  0.0120  0.3823 -0.2613
62709DOD     C131946  22.670  15.305  23.281  0.2862  0.3158 -0.1178
62709DOD     C231947  22.467  15.029  22.957  0.2934  0.0519  0.2973
62709DOD     C331948  22.141  14.746  22.719  0.0707  0.2040 -0.1105
62710DOD     C131949  12.348  25.121   4.427 -0.2817  0.0182 -0.0347
62710DOD     C231950  12.388  25.250   3.974  0.4451 -0.0248  0.0730
62710DOD     C331951  12.464  25.538   3.635  0.1077 -0.1252 -0.0114
62711DOD     C131952   7.196  10.223  13.578  0.2978 -0.1954 -0.0505
62711DOD     C231953   6.910  10.032  13.909  0.1068 -0.0957 -0.1417
62711DOD     C331954   6.626   9.683  14.051  0.1208  0.1254 -0.1005
62712DOD     C131955  16.685  20.157  13.821 -0.3454  0.2774  0.1080
62712DOD     C231956  16.466  20.510  13.662 -0.0399 -0.0608 -0.0788
62712DOD     C331957  16.367  20.934  13.551  0.1682 -0.1308  0.1770
62713DOD     C131958  18.391  12.348   7.626  0.2994 -0.2143 -0.1298
62713DOD     C231959  18.485  12.404   7.138  0.1947 -0.0040 -0.0946
62713DOD     C331960  18.509  12.100   6.780  0.0616 -0.0130  0.0090
62714DOD     C131961  13.517   2.866   4.791 -0.2561 -0.0870  0.1022
62714DOD     C231962  13.900   2.668   4.873 -0.0625 -0.2223  0.0850
62714DOD     C331963  14.301   2.717   5.076 -0.2060 -0.0461 -0.1919
62715DOD     C131964  21.657  20.366   4.799 -0.0333 -0.0236  0.0684
62715DOD     C231965  21.604  19.913   4.927  0.1597 -0.0835  0.2851
62715DOD     C331966  21.232  19.732   5.033  0.0362  0.4643 -0.2492
62716DOD     C131967   6.150  14.037  29.038 -0.2057  0.1360 -0.1812
62716DOD     C231968   6.159  14.481  29.037  0.0816 -0.2772 -0.1243
62716DOD     C331969   6.093  14.976  29.065 -0.1086  0.2078  0.2118
62717DOD     C131970   9.817  20.800  21.953  0.3237 -0.0455 -0.0268
62717DOD     C231971  10.200  20.746  22.204  0.0609  0.0131 -0.4830
62717DOD     C331972  10.262  20.508  22.608 -0.0678 -0.0024  0.0553
62718DOD     C131973  24.982  29.361  16.444  0.0681 -0.3469 -0.1063
62718DOD     C231974  24.715  29.162  16.126 -0.0950  0.1079  0.0818
62718DOD     C331975  24.239  29.165  16.063 -0.0220  0.1189  0.1764
62719DOD     C131976  24.007   9.961  23.543 -0.1419 -0.1142  0.2007
62719DOD     C231977  24.158   9.651  23.902  0.0780  0.0675 -0.0761
62719DOD     C331978  24.259   9.410  24.360 -0.0711  0.1217 -0.1727
62720DOD     C131979   9.232  15.438  17.468  0.1928 -0.3212  0.0263
62720DOD     C231980   9.066  15.007  17.366  0.0627 -0.0280  0.0444
62720DOD     C331981   9.170  14.562  17.535  0.2479  0.0962 -0.1766
62721DOD     C131982   0.377  28.500   9.138  0.1134 -0.0554 -0.0028
62721DOD     C231983   0.409  28.063   9.118 -0.1361 -0.0389  0.1836
62721DOD     C331984   0.697  27.695   9.020  0.0540  0.1918 -0.0411
62722DOD     C131985   9.382   9.079   5.028 -0.1706  0.1406  0.1848
62722DOD     C231986   9.596   9.483   4.848  0.0204 -0.1979 -0.2381
62722DOD     C331987   9.885   9.816   4.611  0.0631  0.2391 -0.1183
62723DOD     C131988   0.253  18.048   7.245 -0.2316 -0.1540 -0.0075
62723DOD     C231989   0.690  18.253   7.302 -0.0340 -0.1793 -0.0197
62723DOD     C331990   1.135  18.448   7.372 -0.3876  0.0339  0.0993
62724DOD     C131991  21.494  22.609  12.079  0.1284  0.0273 -0.0951
62724DOD     C231992  21.477  22.446  12.503  0.0261 -0.2175 -0.3300
62724DOD     C331993  21.802  22.411  12.807 -0.0859 -0.1054 -0.1328
62725DOD     C131994  27.808   6.661  30.101 -0.3447 -0.3290 -0.0442
62725DOD     C231995  27.884   6.855   0.216  0.2772 -0.0237 -0.4156
62725DOD     C331996  27.899   7.225   0.596 -0.4594 -0.1304 -0.1085
62726DOD     C131997  16.533   3.244  14.213 -0.2887 -0.2075 -0.0980
62726DOD     C231998  16.122   3.149  14.412 -0.2406 -0.2167  0.0538
62726DOD     C331999  15.699   2.997  14.573 -0.0314  0.0452 -0.1501
62727DOD     C132000  21.201   5.858  21.131  0.4559 -0.0239  0.2251
62727DOD     C232001  21.483   6.231  21.101  0.4248 -0.0224 -0.0907
62727DOD     C332002  21.387   6.727  21.264 -0.1116 -0.1182  0.1200
62728DOD     C132003  24.370   4.777  29.522  0.2873  0.1900 -0.0492
62728DOD     C232004  23.950   4.910  29.381 -0.0880 -0.1707 -0.2140
62728DOD     C332005  23.670   5.264  29.610  0.0918  0.0547 -0.0632
62729DOD     C132006  27.935  15.455  21.284  0.0542 -0.1261  0.0705
62729DOD     C232007  27.587  15.763  21.126  0.1370  0.0131  0.2371
62729DOD     C332008  27.423  16.161  21.115  0.2029  0.0570 -0.2913
62730DOD     C132009  28.666  26.870  14.093  0.2593  0.2575  0.1963
62730DOD     C232010  28.440  27.257  13.809  0.0592  0.3544  0.0216
62730DOD     C332011  28.445  27.355  13.363  0.1078 -0.1771  0.2662
62731DOD     C132012  29.999  10.072  28.957  0.0545 -0.0266  0.2182
62731DOD     C232013  30.179  10.190  29.381 -0.1917 -0.2862 -0.1753
62731DOD     C332014  30.279  10.360  29.831  0.2522 -0.2743  0.1148
62732DOD     C132015   6.983  14.605  27.323 -0.0827  0.0887 -0.1298
62732DOD     C232016   6.744  14.412  26.965 -0.2256 -0.1136 -0.0671
62732DOD     C332017   6.719  14.741  26.646  0.1071  0.1980 -0.1839
62733DOD     C132018   3.758  23.473   1.497  0.2631 -0.0453  0.1026
62733DOD     C232019   3.652  23.729   1.860  0.1758  0.0011  0.1612
62733DOD     C332020   3.623  23.836   2.311  0.1222  0.1654  0.2112
62734DOD     C132021  27.421  13.181   7.266  0.2535  0.2372 -0.1393
62734DOD     C232022  27.373  13.408   7.687  0.1981 -0.0370 -0.1427
62734DOD     C332023  27.025  13.648   7.956 -0.1226  0.2250 -0.1092
62735DOD     C132024  16.371  17.196  19.390 -0.0012 -0.1293  0.0831
62735DOD     C232025  16.256  17.676  19.518  0.0468 -0.1244 -0.1460
62735DOD     C332026  16.462  17.805  19.899  0.4131 -0.2889 -0.2042
62736DOD     C132027  17.475  24.821   5.456  0.0525 -0.1449 -0.3176
62736DOD     C232028  17.330  24.843   5.915 -0.0757 -0.0922 -0.3468
62736DOD     C332029  17.654  24.918   6.215  0.1076  0.0201 -0.4674
62737DOD     C132030  29.217  27.623  10.000  0.1496  0.3477 -0.0758
62737DOD     C232031  29.450  27.246   9.905 -0.1257  0.0290 -0.1418
62737DOD     C332032  29.888  27.148   9.878 -0.5404 -0.0406 -0.0476
62738DOD     C132033  17.953  11.215   4.719 -0.1010 -0.0395  0.0466
62738DOD     C232034  18.009  11.625   4.909 -0.1688  0.0293 -0.0997
62738DOD     C332035  17.695  12.023   5.027 -0.0683 -0.1617  0.0966
62739DOD     C132036   4.228  12.757   6.332 -0.0151 -0.2660 -0.2318
62739DOD     C232037   4.670  12.951   6.279  0.0325 -0.3467  0.2720
62739DOD     C332038   5.097  13.039   6.118 -0.1540 -0.1066  0.1324
62740DOD     C132039  23.798  21.368  17.937  0.0331 -0.0623 -0.0388
62740DOD     C232040  23.989  21.534  18.337  0.0092  0.2811  0.2759
62740DOD     C332041  24.350  21.741  18.624  0.2938  0.2404  0.2148
62741DOD     C132042  21.607  17.108  12.584  0.1347 -0.0019 -0.2905
62741DOD     C232043  21.984  17.049  12.779  0.3190  0.2733  0.2740
62741DOD     C332044  22.359  16.798  13.000  0.1174  0.0419 -0.2051
62742DOD     C132045  21.568   7.878  20.071 -0.1968 -0.0476 -0.3115
62742DOD     C232046  21.218   7.569  20.003  0.1144 -0.1890  0.1138
62742DOD     C332047  20.924   7.226  20.176  0.1594  0.2669 -0.3306
62743DOD     C132048   7.815  28.114   6.559 -0.1852 -0.0365  0.0488
62743DOD     C232049   8.089  28.499   6.457  0.2115 -0.0666  0.0556
62743DOD     C332050   8.185  28.804   6.039  0.2201 -0.1135  0.1529
62744DOD     C132051  17.761  16.332  10.217  0.0285 -0.1019  0.1797
62744DOD     C232052  17.993  16.767  10.205 -0.4105  0.1629  0.0884
62744DOD     C332053  18.233  17.153  10.082  0.2589 -0.1830  0.3709
62745DOD     C132054   6.539   0.159  26.758 -0.0299 -0.2152 -0.0221
62745DOD     C232055   6.268   0.066  26.423  0.4875  0.0436 -0.2043
62745DOD     C332056   6.008  -0.005  26.031 -0.1703 -0.2595  0.0749
62746DOD     C132057  21.688   9.938   2.526  0.1348 -0.0511 -0.3387
62746DOD     C232058  22.073   9.865   2.790  0.1699  0.0095 -0.0313
62746DOD     C332059  22.493  10.007   2.966 -0.0532 -0.0252  0.0848
62747DOD     C132060  14.166   7.312   0.005 -0.3354  0.0249 -0.3330
62747DOD     C232061  13.687   7.396  30.140 -0.0267 -0.0741  0.2032
62747DOD     C332062  13.335   7.589   0.061 -0.3679 -0.0501 -0.0442
62748DOD     C132063  16.945  22.809  11.515 -0.0688 -0.0115  0.1141
62748DOD     C232064  17.291  22.949  11.849  0.2718 -0.0033  0.0004
62748DOD     C332065  17.608  23.292  11.944  0.2706  0.3286  0.3367
62749DOD     C132066   8.643  29.904  22.349 -0.0791 -0.1750 -0.1829
62749DOD     C232067   8.335  30.170  22.592  0.1360  0.2123 -0.2127
62749DOD     C332068   7.884  30.113  22.616 -0.1995  0.0310 -0.1396
62750DOD     C132069   4.653  11.677  24.334  0.0062 -0.0257 -0.0142
62750DOD     C232070   4.995  11.401  24.421  0.0282 -0.1025  0.1337
62750DOD     C332071   5.083  10.979  24.551 -0.1741 -0.0704 -0.0039
62751DOD     C132072   6.442   9.091  17.557  0.4152  0.0293  0.5030
62751DOD     C232073   6.595   8.700  17.543  0.0786  0.0164 -0.0252
62751DOD     C332074   6.408   8.286  17.449  0.1188 -0.0061 -0.1432
62752DOD     C132075   1.843   3.537  28.894 -0.2729  0.2240  0.1183
62752DOD     C232076   1.861   3.991  29.041  0.4180  0.1850 -0.5071
62752DOD     C332077   1.974   4.491  29.029 -0.1804  0.1287 -0.1900
62753DOD     C132078  20.854   3.097   9.075  0.0114 -0.0119 -0.1054
62753DOD     C232079  20.842   3.583   8.934 -0.1354 -0.0114  0.0759
62753DOD     C332080  21.099   4.004   8.892 -0.0117 -0.0874  0.0498
62754DOD     C132081  12.964  24.251   9.515  0.0151 -0.2175  0.0162
62754DOD     C232082  12.550  24.450   9.457 -0.0456 -0.1270  0.1193
62754DOD     C332083  12.110  24.348   9.360  0.1970  0.0514 -0.0128
62755DOD     C132084  16.981  27.824  15.372 -0.1101 -0.1038  0.1650
62755DOD     C232085  17.079  27.775  14.908  0.2754  0.0571  0.0898
62755DOD     C332086  17.345  27.560  14.577 -0.3539 -0.2056  0.0696
62756DOD     C132087   6.346  12.955   4.669 -0.3540  0.0815  0.0415
62756DOD     C232088   6.767  12.786   4.766  0.0566 -0.0649 -0.3774
62756DOD     C332089   6.968  12.374   4.636 -0.1014  0.0580  0.4744
62757DOD     C132090   6.005  15.462  18.863  0.2903  0.1230 -0.1880
62757DOD     C232091   5.728  15.285  19.182 -0.1183 -0.0198  0.1252
62757DOD     C332092   5.388  15.018  19.320 -0.2458 -0.1222 -0.0329
62758DOD     C132093   5.121   3.594  24.774  0.3128 -0.1550 -0.3465
62758DOD     C232094   4.933   3.173  24.754  0.0689  0.2765  0.2075
62758DOD     C332095   4.597   2.904  24.590 -0.0399 -0.2349  0.1653
62759DOD     C132096  13.009  26.884  11.650  0.1724  0.0587 -0.1403
62759DOD     C232097  13.084  27.056  11.240 -0.1439  0.1155  0.3717
62759DOD     C332098  13.057  27.407  11.010 -0.1944  0.2116  0.3870
62760DOD     C132099   0.714  21.420  23.383 -0.0557 -0.0743 -0.1255
62760DOD     C232100   0.456  21.124  23.196  0.1499  0.1347 -0.1083
62760DOD     C332101   0.264  20.779  22.938 -0.2778 -0.1016  0.0661
62761DOD     C132102   7.044   5.205  21.194  0.1846  0.1444 -0.1661
62761DOD     C232103   7.264   4.764  21.319  0.0253 -0.0252 -0.2603
62761DOD     C332104   7.358   4.344  21.523 -0.0981 -0.0157  0.0742
62762DOD     C132105   7.564   8.740  23.175 -0.2789 -0.2533 -0.0693
62762DOD     C232106   7.960   8.924  23.020  0.2169  0.3109  0.0251
62762DOD     C332107   8.353   8.854  22.875 -0.3372  0.2995 -0.1221
62763DOD     C132108   9.594  27.968  11.820 -0.0111 -0.1478 -0.2571
62763DOD     C232109   9.649  28.142  11.397  0.2084  0.1806  0.1306
62763DOD     C332110   9.449  28.497  11.157 -0.0863  0.2805  0.0304
62764DOD     C132111  10.363   1.491  20.414 -0.4206 -0.1005  0.0315
62764DOD     C232112  10.131   1.350  20.820 -0.1716  0.1070 -0.0697
62764DOD     C332113   9.975   1.535  21.264  0.0382 -0.2767  0.0433
62765DOD     C132114  22.421  26.271   3.291 -0.1932  0.4007 -0.1076
62765DOD     C232115  22.096  25.948   3.413 -0.0969  0.1641  0.1920
62765DOD     C332116  21.833  26.110   3.753  0.0747  0.0809 -0.0107
62766DOD     C132117   7.155  13.631  19.974 -0.1658  0.0002 -0.0398
62766DOD     C232118   7.055  13.343  20.329  0.1355  0.0563 -0.0486
62766DOD     C332119   6.857  13.185  20.718  0.3197  0.2865  0.1018
62767DOD     C132120  22.826   3.073   1.841 -0.0252  0.1203  0.4955
62767DOD     C232121  22.566   2.752   1.637  0.3371  0.1143 -0.0927
62767DOD     C332122  22.204   2.500   1.769  0.0096 -0.0212 -0.3965
62768DOD     C132123  15.234  12.715  17.255 -0.2032  0.2940 -0.1122
62768DOD     C232124  15.174  12.348  17.529 -0.3207  0.3582  0.2629
62768DOD     C332125  15.439  12.085  17.873  0.0887 -0.0227  0.1926
62769DOD     C132126  15.879  24.174  28.450 -0.2522 -0.1494  0.2131
62769DOD     C232127  15.798  24.649  28.326  0.1116  0.1070  0.2443
62769DOD     C332128  15.686  25.075  28.450  0.3187  0.1819  0.2185
62770DOD     C132129  10.216  10.882  25.249  0.1963 -0.2225  0.3145
62770DOD     C232130   9.866  10.549  25.085  0.2373  0.1734 -0.1729
62770DOD     C332131   9.642  10.194  24.838  0.1071 -0.1262  0.1236
62771DOD     C132132  29.175  29.830  22.231  0.1904 -0.1876 -0.0549
62771DOD     C232133  28.996  30.097  22.573 -0.0737  0.0158  0.0894
62771DOD     C332134  28.976   0.149  22.835 -0.1753  0.0180  0.0956
62772DOD     C132135  18.061  28.717   2.945 -0.1818 -0.2020 -0.0818
62772DOD     C232136  18.485  28.481   3.042  0.0429 -0.0116 -0.2604
62772DOD     C332137  18.935  28.474   2.904  0.2803  0.0135 -0.0862
62773DOD     C132138  11.008  17.366  10.210 -0.1031 -0.2170  0.2786
62773DOD     C232139  11.399  17.203   9.953  0.2037 -0.1513 -0.2645
62773DOD     C332140  11.494  17.464   9.567 -0.1128 -0.1139 -0.0175
62774DOD     C132141  24.328  13.866   1.658 -0.3102 -0.0921  0.0787
62774DOD     C232142  24.500  13.468   1.435 -0.2361  0.0493 -0.1396
62774DOD     C332143  24.869  13.196   1.432  0.1564 -0.0134 -0.0977
62775DOD     C132144  17.667  11.323  24.905  0.1794  0.2653 -0.1417
62775DOD     C232145  17.684  10.812  24.929 -0.0785  0.3162  0.1172
62775DOD     C332146  17.515  10.498  25.185 -0.1276 -0.1319  0.0194
62776DOD     C132147  27.119  10.468   8.686  0.1281  0.0965 -0.0548
62776DOD     C232148  26.901  10.280   9.040 -0.2235 -0.1344  0.0348
62776DOD     C332149  27.038   9.933   9.296 -0.1671 -0.2594  0.1083
62777DOD     C132150   7.930   5.290   8.947  0.2882  0.0458 -0.1593
62777DOD     C232151   7.514   5.159   8.782  0.0177  0.2943  0.1780
62777DOD     C332152   7.210   4.809   8.667  0.2150  0.2271 -0.0919
62778DOD     C132153  19.984  11.693  12.096 -0.0085  0.0496  0.1959
62778DOD     C232154  20.175  11.499  12.439 -0.0220 -0.1047 -0.2982
62778DOD     C332155  20.134  11.351  12.859  0.0841 -0.0355 -0.1888
62779DOD     C132156  19.981   9.185  26.484  0.0713  0.0515 -0.0597
62779DOD     C232157  20.111   8.745  26.488 -0.2858  0.0139  0.1602
62779DOD     C332158  20.223   8.416  26.133 -0.2773  0.4343  0.1489
62780DOD     C132159  11.358  12.571  15.038  0.0286  0.1344 -0.2052
62780DOD     C232160  11.512  12.233  15.316  0.3259  0.2239  0.0173
62780DOD     C332161  11.192  11.963  15.510  0.3534 -0.1300  0.1102
62781DOD     C132162  26.198  18.363  26.089  0.0056 -0.1988 -0.0017
62781DOD     C232163  26.552  18.642  26.249 -0.5468 -0.1970  0.3340
62781DOD     C332164  26.808  19.038  26.167 -0.1413 -0.0668  0.3561
62782DOD     C132165  14.871  16.687  14.050  0.1483  0.0363 -0.1545
62782DOD     C232166  15.182  16.973  14.012 -0.1593 -0.3844  0.1195
62782DOD     C332167  15.674  16.996  13.944  0.0608  0.2372  0.3141
62783DOD     C132168  15.840   0.425  28.482  0.0271  0.1669 -0.0006
62783DOD     C232169  15.542   0.165  28.150 -0.4071  0.1490  0.0581
62783DOD     C332170  15.543   0.278  27.673 -0.1452 -0.1840  0.1410
62784DOD     C132171  25.428  23.543  25.492  0.1511 -0.0587  0.3819
62784DOD     C232172  25.593  23.137  25.242  0.0428  0.1451 -0.0016
62784DOD     C332173  25.343  22.911  24.947 -0.0662 -0.1716 -0.2259
62785DOD     C132174  15.610  22.496   3.168 -0.1516 -0.1526 -0.1191
62785DOD     C232175  15.355  22.117   3.044 -0.0807  0.1563 -0.1669
62785DOD     C332176  15.029  21.737   3.202  0.0444  0.0959  0.0058
62786DOD     C132177  11.322  15.188   8.423  0.2519 -0.1696  0.1681
62786DOD     C232178  11.528  15.629   8.375  0.1424 -0.2087  0.2386
62786DOD     C332179  11.514  16.063   8.252  0.2567  0.1096 -0.0281
62787DOD     C132180   2.603   3.969   9.402  0.1066 -0.3583 -0.1994
62787DOD     C232181   2.944   4.249   9.479 -0.1389 -0.2157  0.1054
62787DOD     C332182   3.036   4.532   9.841  0.2913 -0.2007 -0.2533
62788DOD     C132183  20.244  22.849  11.482  0.0191  0.0718  0.0250
62788DOD     C232184  20.258  22.526  11.091  0.0718  0.0952 -0.1527
62788DOD     C332185  20.175  22.071  11.088 -0.2133 -0.1188  0.3930
62789DOD     C132186   6.979  30.076   2.810  0.1457 -0.0877  0.0144
62789DOD     C232187   7.136  30.298   2.490 -0.3727  0.0440 -0.0984
62789DOD     C332188   7.076   0.440   2.463  0.1381 -0.0478 -0.3592
62790DOD     C132189  11.132   9.306  25.441  0.2471  0.4056 -0.0745
62790DOD     C232190  11.429   9.152  25.771  0.1410 -0.1221 -0.1308
62790DOD     C332191  11.371   9.015  26.230 -0.1751  0.1091  0.1873
62791DOD     C132192  11.623   5.100  15.138  0.1466  0.0457  0.2587
62791DOD     C232193  11.949   4.748  15.219 -0.2491  0.0684  0.1051
62791DOD     C332194  12.180   4.337  15.229 -0.0176  0.1622  0.1125
62792DOD     C132195  19.912  15.694  13.815  0.1327  0.1255 -0.2735
62792DOD     C232196  20.119  16.118  13.872  0.1278  0.2598  0.3183
62792DOD     C332197  20.452  16.371  14.127 -0.1356 -0.1078 -0.4137
62793DOD     C132198  20.897  30.127   9.502  0.0688 -0.2916 -0.1463
62793DOD     C232199  21.254   0.112   9.501 -0.0861 -0.2825  0.3565
62793DOD     C332200  21.513   0.194   9.824 -0.1407  0.1927  0.1645
62794DOD     C132201   4.274   0.301  10.935 -0.0646  0.1542 -0.2479
62794DOD     C232202   4.224  30.235  11.188 -0.1428  0.2118 -0.2005
62794DOD     C332203   3.883  29.970  11.428  0.1130 -0.3616 -0.1115
62795DOD     C132204  12.581  20.514  21.975 -0.4206  0.2310 -0.1577
62795DOD     C232205  12.649  20.712  21.552  0.0559 -0.0632 -0.0688
62795DOD     C332206  12.725  20.686  21.113  0.2363  0.0654 -0.1868
62796DOD     C132207  17.366  26.179   2.330 -0.0029 -0.1004 -0.3382
62796DOD     C232208  16.960  25.901   2.269 -0.2656  0.0416  0.1734
62796DOD     C332209  16.553  25.641   2.346 -0.2965 -0.0402  0.0831
62797DOD     C132210   4.265   1.292  13.109  0.3849  0.0175 -0.0069
62797DOD     C232211   4.210   0.865  13.139  0.1121 -0.1245  0.0695
62797DOD     C332212   4.086   0.489  13.469 -0.1461  0.0268  0.0172
62798DOD     C132213   1.044  16.611  19.461  0.1420 -0.1370 -0.4695
62798DOD     C232214   0.794  16.445  19.837  0.1824 -0.2815 -0.3629
62798DOD     C332215   0.600  16.228  20.187  0.0988  0.0878 -0.2228
62799DOD     C132216   8.348  12.361  15.456 -0.0593 -0.6368 -0.0567
62799DOD     C232217   8.740  12.156  15.667 -0.1465 -0.0183  0.0879
62799DOD     C332218   9.185  12.049  15.575  0.0561  0.1481 -0.0871
62800DOD     C132219  14.985  22.757  26.563  0.2215 -0.0249 -0.2205
62800DOD     C232220  15.473  22.781  26.461  0.1436  0.1128  0.3394
62800DOD     C332221  15.686  22.538  26.106  0.1741 -0.0930 -0.0623
62801DOD     C132222  18.830  27.311  11.582 -0.2597  0.2640  0.1001
62801DOD     C232223  18.754  27.342  11.121  0.0963  0.2571 -0.1699
62801DOD     C332224  18.767  27.500  10.683  0.0794 -0.0074 -0.1369
62802DOD     C132225  29.480  20.586  17.263  0.1036  0.3167  0.0935
62802DOD     C232226  29.155  20.887  17.472 -0.3379 -0.1572  0.2432
62802DOD     C332227  28.891  21.093  17.812 -0.0070 -0.0316  0.2761
62803DOD     C132228  17.779  12.009  10.844 -0.0967 -0.0861 -0.1004
62803DOD     C232229  17.606  11.570  10.781  0.1589  0.0115 -0.1971
62803DOD     C332230  17.645  11.129  10.707  0.0959  0.2158  0.0685
62804DOD     C132231   8.141  11.822  26.649  0.3656 -0.1232 -0.1038
62804DOD     C232232   7.953  11.583  27.054  0.2710  0.0014 -0.4003
62804DOD     C332233   8.108  11.526  27.483  0.1153 -0.0133 -0.0040
62805DOD     C132234   3.349   2.641  16.617  0.1094 -0.1952  0.1489
62805DOD     C232235   3.167   2.257  16.436 -0.0392  0.2490  0.0765
62805DOD     C332236   3.279   1.871  16.183 -0.0737 -0.0081 -0.0615
62806DOD     C132237  17.873   0.224   6.267 -0.1378 -0.3002 -0.2587
62806DOD     C232238  17.509   0.296   5.995 -0.0362 -0.0078  0.0071
62806DOD     C332239  17.453   0.343   5.512  0.2325  0.3067 -0.1350
62807DOD     C132240  20.747   3.945   3.689 -0.1458 -0.1799  0.0919
62807DOD     C232241  20.986   3.931   3.298 -0.2295 -0.2542 -0.2634
62807DOD     C332242  21.077   3.909   2.839  0.2286 -0.0087  0.3968
62808DOD     C132243  23.887  29.878   1.423  0.2161  0.1360 -0.3344
62808DOD     C232244  23.944  30.105   1.024  0.2813  0.2347 -0.2181
62808DOD     C332245  24.292  30.084   0.729  0.0228 -0.0425 -0.1089
62809DOD     C132246   5.170   8.998  27.658 -0.0034  0.1821 -0.1373
62809DOD     C232247   5.598   9.084  27.380  0.1046 -0.0431  0.0492
62809DOD     C332248   6.047   9.064  27.339 -0.1030  0.1106  0.5045
62810DOD     C132249  20.403   1.539  28.297  0.0795  0.2890  0.2812
62810DOD     C232250  20.791   1.374  28.547  0.2855  0.1389  0.2528
62810DOD     C332251  21.079   1.299  28.897 -0.2380  0.0265  0.1739
62811DOD     C132252   2.112  18.670   5.438  0.0444 -0.1684  0.1078
62811DOD     C232253   2.556  18.807   5.428  0.2012 -0.2200  0.1287
62811DOD     C332254   2.933  19.086   5.410 -0.1533  0.2323  0.0443
62812DOD     C132255  14.653   1.138   6.880  0.1326 -0.1067 -0.1490
62812DOD     C232256  14.344   1.350   6.543 -0.0085  0.0277  0.0679
62812DOD     C332257  14.283   1.387   6.037 -0.0600  0.0498  0.1070
62813DOD     C132258   3.446  16.830  29.444 -0.1005  0.0853  0.0522
62813DOD     C232259   3.895  16.816  29.639 -0.0513 -0.0024 -0.1272
62813DOD     C332260   4.154  17.056  29.917 -0.2142  0.1775  0.0268
62814DOD     C132261   3.727   7.504  25.853 -0.0183  0.1715  0.1132
62814DOD     C232262   4.180   7.483  25.989  0.1908  0.0286 -0.0492
62814DOD     C332263   4.669   7.468  26.095  0.1246  0.1870  0.0259
62815DOD     C132264   1.876  12.524   6.578 -0.0002  0.1206  0.2015
62815DOD     C232265   1.853  12.664   6.115  0.3186 -0.0432 -0.2727
62815DOD     C332266   1.834  12.486   5.730  0.1080 -0.0833  0.2483
62816DOD     C132267   7.675   5.691   8.595  0.1078 -0.0065 -0.0739
62816DOD     C232268   7.456   5.613   9.056  0.1153 -0.1098 -0.0418
62816DOD     C332269   7.427   5.223   9.290  0.2272 -0.0544  0.0523
62817DOD     C132270  15.625  28.494   6.141  0.3067  0.2613  0.1941
62817DOD     C232271  15.913  28.775   5.812  0.0966  0.3039 -0.0130
62817DOD     C332272  16.166  29.087   5.664  0.0734 -0.0652 -0.1434
62818DOD     C132273  24.815   3.248  11.095 -0.1420 -0.2550 -0.0785
62818DOD     C232274  24.619   2.772  11.151 -0.1431 -0.0754 -0.0716
62818DOD     C332275  24.534   2.419  11.434  0.1357  0.2491 -0.0096
62819DOD     C132276   6.790  28.550  30.280  0.2723 -0.0028  0.2703
62819DOD     C232277   7.164  28.603  30.061  0.6320 -0.1016  0.1782
62819DOD     C332278   7.556  28.429  29.875 -0.0588  0.0647 -0.0708
62820DOD     C132279  23.542   8.620   8.947 -0.0793  0.2140  0.3736
62820DOD     C232280  23.776   8.256   8.732 -0.0812 -0.2818 -0.1457
62820DOD     C332281  23.906   8.260   8.313  0.0164 -0.0050 -0.0961
62821DOD     C132282   7.863  17.947   9.792  0.1296 -0.0263 -0.2372
62821DOD     C232283   8.069  18.347   9.925 -0.0497 -0.1265  0.1331
62821DOD     C332284   8.538  18.499  10.002  0.0782 -0.0216  0.2682
62822DOD     C132285  25.454  29.799  24.525  0.1031 -0.1135  0.0858
62822DOD     C232286  25.350  29.492  24.174 -0.0097  0.0196 -0.1383
62822DOD     C332287  25.385  29.336  23.712 -0.0220 -0.1870 -0.0419
62823DOD     C132288  22.719  15.642  16.259  0.0046  0.3501 -0.1489
62823DOD     C232289  22.258  15.630  16.244  0.3455  0.0197  0.3362
62823DOD     C332290  21.776  15.584  16.379  0.1122 -0.3012 -0.0611
62824DOD     C132291   8.082  18.605  22.492 -0.3096 -0.3670 -0.2130
62824DOD     C232292   8.116  18.221  22.327 -0.2777 -0.1507 -0.0534
62824DOD     C332293   8.256  17.921  21.976  0.3350 -0.1921 -0.0434
62825DOD     C132294  21.246  15.286   8.716  0.2852 -0.0960  0.0236
62825DOD     C232295  21.556  14.958   8.548 -0.2110  0.0744  0.1441
62825DOD     C332296  22.015  14.827   8.478 -0.2238  0.1164  0.1277
62826DOD     C132297  30.114   1.814   0.897 -0.0794 -0.0254  0.0143
62826DOD     C232298  30.267   1.428   1.147  0.0398  0.0021 -0.0857
62826DOD     C332299  30.169   0.989   1.361  0.0746 -0.2663 -0.3150
62827DOD     C132300   4.386   7.461  14.960 -0.0756  0.0855 -0.2006
62827DOD     C232301   4.442   7.342  14.486 -0.1684  0.0684  0.1356
62827DOD     C332302   4.239   6.947  14.198  0.2137  0.3692  0.2823
62828DOD     C132303  17.316   3.619   9.545  0.0420 -0.0344  0.2828
62828DOD     C232304  17.647   3.291   9.466  0.1703  0.2229 -0.2326
62828DOD     C332305  17.813   3.120   9.052  0.2233 -0.2516  0.0819
62829DOD     C132306  15.611  15.405  27.090  0.0489 -0.0180  0.0985
62829DOD     C232307  15.411  15.825  27.251 -0.0876 -0.6807  0.2643
62829DOD     C332308  15.269  16.223  27.440  0.0148 -0.2086 -0.3643
62830DOD     C132309  29.963  20.983  24.945 -0.2032  0.0381  0.0904
62830DOD     C232310  30.214  20.754  25.240 -0.1871  0.0748  0.2328
62830DOD     C332311  30.315  20.774  25.699  0.1977 -0.1378 -0.0379
62831DOD     C132312  19.376   0.767   6.620 -0.0471  0.0094  0.1449
62831DOD     C232313  19.164   0.645   7.024 -0.3800  0.0318 -0.1171
62831DOD     C332314  18.875   0.441   7.357 -0.2674 -0.2075  0.1168
62832DOD     C132315   6.592   8.345  22.420 -0.0023 -0.0589  0.0274
62832DOD     C232316   6.675   7.914  22.287 -0.1902 -0.1108  0.1233
62832DOD     C332317   6.376   7.608  22.051 -0.2001 -0.0792  0.0208
62833DOD     C132318  12.245  16.125  13.017 -0.2977  0.0867  0.0951
62833DOD     C232319  12.472  16.148  13.365  0.0040  0.1060  0.0937
62833DOD     C332320  12.813  16.449  13.443  0.2435  0.0139 -0.1163
62834DOD     C132321  22.788  29.649  15.106  0.1014 -0.1735 -0.0793
62834DOD     C232322  22.786  29.186  15.160  0.0325  0.0250 -0.2326
62834DOD     C332323  23.015  28.775  15.084  0.3112  0.2269 -0.2310
62835DOD     C132324   4.097   5.639  11.110 -0.1257 -0.0712  0.0475
62835DOD     C232325   4.389   5.511  10.766 -0.0703  0.0566 -0.1303
62835DOD     C332326   4.546   5.333  10.352  0.1575 -0.0033  0.1590
62836DOD     C132327  21.059  18.406  29.913 -0.2293  0.0369 -0.0539
62836DOD     C232328  20.928  18.313  30.338  0.3504 -0.0487  0.2061
62836DOD     C332329  21.019  18.394   0.439  0.3046  0.0692  0.0687
62837DOD     C132330  30.011  26.671   6.203  0.0884 -0.0025 -0.0360
62837DOD     C232331  30.289  26.885   6.480 -0.4533  0.2708  0.1768
62837DOD     C332332  30.285  27.304   6.634 -0.0556  0.1221  0.3077
62838DOD     C132333  28.678  16.785   9.701  0.0285  0.1802 -0.1297
62838DOD     C232334  28.522  16.344   9.671 -0.1685 -0.2017  0.1876
62838DOD     C332335  28.209  15.964   9.746  0.0278  0.1917  0.0508
62839DOD     C132336  26.994  15.353   3.423 -0.1970  0.2018  0.1324
62839DOD     C232337  26.679  15.280   3.091  0.0728 -0.1153  0.2634
62839DOD     C332338  26.245  15.482   3.126 -0.0956  0.2437 -0.0618
62840DOD     C132339  11.162  15.968  21.584 -0.0236  0.0144  0.2453
62840DOD     C232340  11.157  16.327  21.811  0.2104 -0.0501 -0.0465
62840DOD     C332341  11.313  16.689  22.072 -0.3319 -0.5148  0.1117
62841DOD     C132342  17.019  15.185  15.499  0.3213  0.1226 -0.1443
62841DOD     C232343  17.310  15.044  15.180  0.0806  0.1370 -0.1983
62841DOD     C332344  17.529  14.652  15.152 -0.2193 -0.0823 -0.1629
62842DOD     C132345   8.454  24.163  24.519 -0.2189 -0.2903  0.1395
62842DOD     C232346   8.155  24.530  24.651  0.0204  0.0924  0.1423
62842DOD     C332347   7.680  24.483  24.693  0.3931  0.0095  0.0782
62843DOD     C132348  19.554   5.173  18.343  0.0058 -0.2057  0.0607
62843DOD     C232349  19.716   5.303  17.901  0.1442  0.0948  0.1526
62843DOD     C332350  19.959   5.729  17.720  0.0836 -0.0993  0.0585
62844DOD     C132351   3.129   2.810  16.140 -0.0720  0.0478  0.2359
62844DOD     C232352   2.783   2.665  16.366 -0.1439 -0.0407  0.0491
62844DOD     C332353   2.370   2.507  16.602 -0.1578  0.0431  0.0038
62845DOD     C132354  17.970   0.164  17.496  0.1284  0.1705  0.0403
62845DOD     C232355  17.960   0.589  17.328 -0.1847  0.2007  0.1479
62845DOD     C332356  17.741   0.997  17.339 -0.2106 -0.2419 -0.1373
62846DOD     C132357  17.905  26.273  17.205 -0.1903  0.0167  0.3318
62846DOD     C232358  17.997  25.955  16.878  0.1472 -0.1136 -0.0006
62846DOD     C332359  17.964  25.671  16.519  0.3434 -0.0243  0.2496
62847DOD     C132360  13.634  15.957   0.510 -0.2427 -0.0376  0.1439
62847DOD     C232361  13.744  16.333   0.265  0.0600  0.1418 -0.2175
62847DOD     C332362  13.993  16.411  30.219  0.2020 -0.1505 -0.0961
62848DOD     C132363   2.317  16.052  24.501 -0.0234 -0.0468 -0.1306
62848DOD     C232364   2.212  16.385  24.135 -0.2063  0.2312 -0.0511
62848DOD     C332365   2.209  16.828  24.214  0.0680 -0.2532 -0.0459
62849DOD     C132366   3.469  21.207  17.665  0.0297  0.1952 -0.2592
62849DOD     C232367   3.717  21.415  17.309  0.2858 -0.3034  0.0378
62849DOD     C332368   3.871  21.270  16.880  0.0148 -0.0586 -0.4197
62850DOD     C132369  29.634   0.317  15.091  0.1997  0.0397 -0.0847
62850DOD     C232370  29.778   0.548  15.452 -0.0390 -0.1970 -0.1588
62850DOD     C332371  30.058   0.428  15.839  0.0562  0.1650  0.1205
62851DOD     C132372  22.345   3.014  24.011 -0.1071 -0.0135 -0.5063
62851DOD     C232373  21.924   3.039  23.808 -0.3111 -0.1159  0.0572
62851DOD     C332374  21.584   3.236  23.521  0.0469 -0.0288  0.0689
62852DOD     C132375  25.157  29.537  14.142  0.0980 -0.0905 -0.1905
62852DOD     C232376  25.512  29.846  14.183 -0.1369 -0.2176  0.0279
62852DOD     C332377  25.630  30.254  14.067 -0.0479  0.2092  0.0653
62853DOD     C132378  14.857  22.962  24.172 -0.2002  0.2150 -0.1172
62853DOD     C232379  14.556  22.605  24.110  0.0409  0.0347 -0.0486
62853DOD     C332380  14.117  22.555  23.958 -0.0927  0.0956  0.1991
62854DOD     C132381  17.584   4.040   5.623  0.1086  0.0994 -0.2604
62854DOD     C232382  17.659   4.158   6.084  0.0307  0.2997  0.4201
62854DOD     C332383  17.606   4.335   6.524 -0.1869 -0.0113  0.0711
62855DOD     C132384   9.003  11.065   4.084 -0.0321 -0.0553  0.1438
62855DOD     C232385   8.851  11.171   4.558  0.0679  0.0415 -0.0182
62855DOD     C332386   8.481  11.350   4.735  0.0300 -0.0443 -0.0476
62856DOD     C132387  14.718  17.751   5.593  0.0155 -0.0542 -0.1060
62856DOD     C232388  14.682  18.240   5.497  0.0043  0.1226 -0.1929
62856DOD     C332389  14.853  18.555   5.256 -0.0599 -0.2039  0.0295
62857DOD     C132390  13.780  21.879   4.106  0.2186  0.0380  0.2127
62857DOD     C232391  13.718  22.327   3.935  0.1717  0.2269 -0.2073
62857DOD     C332392  13.502  22.682   4.106  0.0193  0.0689  0.0503
62858DOD     C132393  24.301  27.805   3.635  0.1861 -0.0444 -0.0758
62858DOD     C232394  23.894  27.892   3.453 -0.0474 -0.0004 -0.0509
62858DOD     C332395  23.737  27.572   3.136  0.1013 -0.0496  0.0241
62859DOD     C132396   6.793  -0.006   6.675 -0.3059 -0.2452 -0.0835
62859DOD     C232397   6.906  29.841   6.509 -0.3641  0.0301  0.0793
62859DOD     C332398   7.027  29.414   6.318  0.1731 -0.1918 -0.5508
62860DOD     C132399   6.049   3.440   8.121  0.0738 -0.1678 -0.1587
62860DOD     C232400   5.757   3.784   8.011 -0.4027  0.1112  0.1520
62860DOD     C332401   5.756   4.238   8.112 -0.0683  0.0932 -0.1332
62861DOD     C132402  22.119  18.208  10.790 -0.0005 -0.0738 -0.1175
62861DOD     C232403  22.464  17.907  10.945  0.1328 -0.1309 -0.1365
62861DOD     C332404  22.607  17.778  11.373 -0.2505  0.2625 -0.0170
62862DOD     C132405   4.901  14.061  16.014  0.1816  0.0638  0.2122
62862DOD     C232406   4.738  14.324  16.392  0.0107  0.0509  0.1702
62862DOD     C332407   4.670  14.680  16.646 -0.0848 -0.0138  0.0175
62863DOD     C132408   1.551  26.573  14.162 -0.0865  0.1534  0.0371
62863DOD     C232409   1.136  26.802  14.186  0.1933 -0.0245  0.2291
62863DOD     C332410   0.768  27.078  13.940  0.0769 -0.1135  0.1902
62864DOD     C132411   1.948   1.137  13.091 -0.0917  0.0001 -0.0181
62864DOD     C232412   2.258   1.148  13.411 -0.0252 -0.0382 -0.4170
62864DOD     C332413   2.396   1.401  13.849 -0.0947 -0.0099  0.3176
62865DOD     C132414  22.561  24.075  24.210 -0.0588 -0.3501  0.0924
62865DOD     C232415  22.321  23.645  24.287 -0.3188  0.0789  0.3232
62865DOD     C332416  22.049  23.265  24.541  0.2891 -0.2091  0.1834
62866DOD     C132417   5.430   5.121  20.033  0.0045  0.2540 -0.0444
62866DOD     C232418   5.337   5.601  19.882 -0.0642  0.2950 -0.0378
62866DOD     C332419   5.041   5.925  19.750  0.1977 -0.0270  0.0154
62867DOD     C132420   7.187   1.308   3.049 -0.2182 -0.1328  0.0809
62867DOD     C232421   7.525   1.540   3.288  0.2489  0.2240  0.0485
62867DOD     C332422   7.890   1.301   3.404  0.2209  0.2292 -0.2454
62868DOD     C132423  18.361   6.866   9.578 -0.0610  0.0095  0.3121
62868DOD     C232424  18.053   6.952   9.267  0.0857 -0.1241 -0.3243
62868DOD     C332425  17.742   6.710   8.997 -0.0006  0.3115 -0.2690
62869DOD     C132426  17.163  16.544   7.439 -0.4445  0.0077  0.2587
62869DOD     C232427  17.372  16.119   7.398 -0.0179  0.1894  0.3040
62869DOD     C332428  17.768  15.991   7.219 -0.0557  0.1109  0.2620
62870DOD     C132429  26.630   1.463  12.095  0.1710 -0.1282 -0.1026
62870DOD     C232430  26.444   1.861  12.277 -0.1201  0.2693 -0.2345
62870DOD     C332431  26.389   2.339  12.236 -0.1049 -0.0495  0.1617
62871DOD     C132432  19.350  29.561   2.504 -0.1035 -0.1734 -0.2321
62871DOD     C232433  19.198  29.815   2.143 -0.0160  0.0768 -0.0819
62871DOD     C332434  19.401  29.857   1.721  0.0261  0.0013 -0.0886
62872DOD     C132435  16.916  12.617   4.063  0.1510 -0.1458  0.0798
62872DOD     C232436  16.452  12.363   3.965 -0.2464 -0.0241  0.1707
62872DOD     C332437  16.229  11.971   4.045 -0.1057  0.1655  0.0458
62873DOD     C132438  14.527  22.368  13.209  0.0622 -0.1510  0.2069
62873DOD     C232439  14.235  22.024  12.968 -0.0367  0.1377 -0.0360
62873DOD     C332440  14.299  21.612  12.923  0.4770  0.0488 -0.1605
62874DOD     C132441   0.965   1.421  19.146 -0.0988  0.1787 -0.2320
62874DOD     C232442   1.438   1.507  19.150 -0.1392  0.1670 -0.1106
62874DOD     C332443   1.630   1.839  18.842 -0.1522  0.0421  0.0179
62875DOD     C132444  13.881   4.117  26.753  0.1359 -0.3949 -0.1029
62875DOD     C232445  13.665   4.379  27.064 -0.2748 -0.1266  0.0179
62875DOD     C332446  13.902   4.648  27.437  0.2370 -0.0551 -0.0587
62876DOD     C132447  13.371  15.505   2.615 -0.0038  0.0534 -0.0367
62876DOD     C232448  13.684  15.819   2.452  0.1568 -0.0009 -0.1636
62876DOD     C332449  13.792  16.252   2.335  0.0611 -0.3105 -0.2802
62877DOD     C132450  21.187  19.412  29.192 -0.1139  0.0271 -0.2871
62877DOD     C232451  20.878  19.312  28.858  0.1323 -0.1421 -0.3530
62877DOD     C332452  20.437  19.219  28.828 -0.0335  0.0037  0.2132
62878DOD     C132453  21.377   6.586  27.669  0.0259  0.1116 -0.1191
62878DOD     C232454  21.671   6.313  27.975 -0.0871 -0.0709  0.1045
62878DOD     C332455  21.538   6.106  28.314  0.0729  0.3378  0.1146
62879DOD     C132456  23.327  17.014  11.041 -0.0737 -0.1515 -0.2040
62879DOD     C232457  23.254  17.260  10.646 -0.1826  0.0445  0.0437
62879DOD     C332458  23.083  17.488  10.239 -0.0586  0.0455  0.0931
62880DOD     C132459   0.694   8.612   6.052  0.2516  0.0532 -0.0370
62880DOD     C232460   0.765   8.976   6.283  0.2046  0.1087  0.0223
62880DOD     C332461   0.850   9.359   6.459  0.0324 -0.0366  0.3190
62881DOD     C132462  25.164  27.626  12.333 -0.0809 -0.1644  0.1300
62881DOD     C232463  25.501  27.867  12.510 -0.2553 -0.2283 -0.2278
62881DOD     C332464  25.942  27.975  12.655  0.0378  0.0453  0.1881
62882DOD     C132465  21.747  13.408  27.807 -0.5422 -0.4034  0.2472
62882DOD     C232466  22.188  13.521  27.935 -0.2571 -0.1730 -0.1249
62882DOD     C332467  22.630  13.438  28.076 -0.1951 -0.1025  0.1680
62883DOD     C132468  18.228  27.499   4.358 -0.3013  0.1173  0.3615
62883DOD     C232469  18.114  27.608   3.878 -0.1010  0.2134 -0.0519
62883DOD     C332470  17.881  27.310   3.580 -0.2163  0.3398 -0.0453
62884DOD     C132471  16.206   5.211  13.273 -0.0923  0.2942 -0.0203
62884DOD     C232472  16.554   5.521  13.267 -0.0305 -0.0471 -0.1184
62884DOD     C332473  16.760   5.888  13.100 -0.0044  0.0845  0.1550
62885DOD     C132474  27.252  12.453  29.529  0.1259  0.3903  0.1882
62885DOD     C232475  27.304  12.240  29.903  0.2439 -0.1271  0.1789
62885DOD     C332476  27.279  11.981  30.275  0.0190 -0.2541 -0.1084
62886DOD     C132477   5.031   8.190  19.026  0.0681 -0.1626  0.0594
62886DOD     C232478   5.278   8.164  18.600  0.0175  0.1410  0.0432
62886DOD     C332479   5.601   8.188  18.325  0.0213 -0.4171 -0.1349
62887DOD     C132480   9.969  28.996   1.365  0.0131  0.1552 -0.1583
62887DOD     C232481   9.828  28.586   1.560 -0.0838  0.2447 -0.0552
62887DOD     C332482   9.829  28.105   1.520 -0.1508  0.1042  0.2938
62888DOD     C132483  27.787  21.338   6.970  0.3305  0.1111 -0.0398
62888DOD     C232484  27.389  21.253   7.248 -0.0344 -0.1486  0.2895
62888DOD     C332485  27.030  20.968   7.244 -0.0014 -0.1171  0.1337
62889DOD     C132486  29.267   9.052  21.291  0.0122  0.3205 -0.3467
62889DOD     C232487  28.953   9.117  21.632  0.1113  0.0977 -0.3252
62889DOD     C332488  28.742   9.188  22.095  0.1677  0.0812 -0.0345
62890DOD     C132489   1.346  23.130  25.504 -0.0857 -0.1882 -0.0336
62890DOD     C232490   1.774  23.131  25.654  0.3085  0.2482 -0.0339
62890DOD     C332491   2.250  23.137  25.619 -0.0597 -0.2567  0.1689
62891DOD     C132492  20.913   9.325   2.374 -0.2031  0.1774  0.1662
62891DOD     C232493  21.097   9.572   2.707 -0.3752 -0.4571  0.0414
62891DOD     C332494  21.330   9.963   2.869  0.0871  0.1745  0.3128
62892DOD     C132495  15.291  11.642  16.182 -0.0774  0.2344  0.0567
62892DOD     C232496  14.973  11.815  16.420  0.0238 -0.0614 -0.0722
62892DOD     C332497  14.822  11.716  16.848 -0.0410 -0.1046  0.1674
62893DOD     C132498  24.877  17.961   3.318  0.1145  0.4151  0.4460
62893DOD     C232499  24.712  17.663   3.535 -0.0283  0.0438 -0.1571
62893DOD     C332500  24.354  17.557   3.837  0.0510  0.2630  0.1253
62894DOD     C132501  18.332   2.646   3.979 -0.1686 -0.2501 -0.1294
62894DOD     C232502  18.346   3.099   3.906  0.0446 -0.1142 -0.1768
62894DOD     C332503  18.148   3.315   4.253  0.1586  0.2712 -0.0873
62895DOD     C132504   5.924  15.982  21.750 -0.2751 -0.1891 -0.2801
62895DOD     C232505   6.260  15.669  21.727 -0.3572  0.1129 -0.0005
62895DOD     C332506   6.748  15.616  21.948  0.1343 -0.1512  0.5023
62896DOD     C132507  16.218  30.157  12.087 -0.0613  0.0575 -0.1073
62896DOD     C232508  16.351  29.990  12.503  0.3192  0.2145  0.1082
62896DOD     C332509  16.055  29.745  12.811 -0.1287  0.1266 -0.2923
62897DOD     C132510  28.997  23.496  13.834  0.3217 -0.0621 -0.0419
62897DOD     C232511  29.404  23.573  13.740 -0.0799  0.0981 -0.3009
62897DOD     C332512  29.842  23.635  13.774 -0.0473  0.3081  0.0628
62898DOD     C132513  13.260  11.461   8.670 -0.1023 -0.1439 -0.1971
62898DOD     C232514  13.241  11.486   8.236  0.4438 -0.1589  0.3750
62898DOD     C332515  13.205  11.502   7.767 -0.2553  0.2585 -0.0064
62899DOD     C132516  27.027  11.280  22.373  0.0550  0.3681 -0.0228
62899DOD     C232517  27.354  11.511  22.169 -0.0214  0.0474  0.0383
62899DOD     C332518  27.575  11.916  22.209 -0.0457  0.0358  0.0303
62900DOD     C132519   7.481   9.758  19.669  0.0032 -0.0989  0.2018
62900DOD     C232520   7.437   9.981  19.253  0.1530 -0.0503  0.0125
62900DOD     C332521   7.585   9.817  18.869  0.2863  0.2270 -0.1568
62901DOD     C132522   1.130  20.906  23.945 -0.2542  0.0505  0.1033
62901DOD     C232523   1.019  20.533  23.716  0.1704 -0.0443  0.0767
62901DOD     C332524   1.220  20.137  23.718 -0.1799  0.1822  0.0046
62902DOD     C132525   2.777   7.785   1.683 -0.1326 -0.3348 -0.3890
62902DOD     C232526   2.685   7.503   1.273 -0.2557  0.2580 -0.0504
62902DOD     C332527   2.721   7.154   0.935 -0.2950 -0.3800 -0.0330
62903DOD     C132528   3.790  20.580  21.958 -0.1324 -0.2519 -0.0083
62903DOD     C232529   3.397  20.767  21.992  0.1586  0.0968 -0.0557
62903DOD     C332530   2.901  20.805  22.182  0.1994  0.0709 -0.0034
62904DOD     C132531  11.564  18.632  27.804 -0.0196  0.1891 -0.1238
62904DOD     C232532  11.341  19.070  27.795 -0.1588 -0.0878  0.2938
62904DOD     C332533  11.155  19.524  27.919  0.0322  0.0184  0.0267
62905DOD     C132534  22.229   7.882  27.723 -0.0170  0.1879 -0.0643
62905DOD     C232535  22.633   8.135  27.604 -0.1032 -0.2166 -0.0276
62905DOD     C332536  22.992   8.147  27.257 -0.0680 -0.0486  0.0561
62906DOD     C132537   9.210  28.170  22.589 -0.1187  0.2533  0.0644
62906DOD     C232538   9.034  27.951  22.930  0.1709 -0.1214  0.0150
62906DOD     C332539   8.823  27.985  23.357 -0.0923  0.2437  0.0508
62907DOD     C132540  24.065   3.812  10.837 -0.0980 -0.0422  0.0489
62907DOD     C232541  24.348   3.839  11.202  0.2120 -0.0589  0.0520
62907DOD     C332542  24.360   3.588  11.595 -0.1114 -0.1393 -0.1410
62908DOD     C132543   3.782  29.203  23.553 -0.2984  0.0330  0.1564
62908DOD     C232544   4.037  29.582  23.424  0.0373 -0.1168  0.1007
62908DOD     C332545   4.150  29.816  23.074  0.0114  0.2186 -0.0753
62909DOD     C132546  28.171   8.076  24.326  0.1313  0.0339  0.3676
62909DOD     C232547  27.974   8.493  24.276 -0.1263 -0.1140  0.0515
62909DOD     C332548  27.726   8.871  24.402 -0.0966  0.3443  0.4291
62910DOD     C132549   9.865  15.564  19.408  0.0563 -0.2327  0.1303
62910DOD     C232550   9.548  15.761  19.595  0.2610  0.0881 -0.0104
62910DOD     C332551   9.420  15.968  19.991 -0.2046  0.0043 -0.0682
62911DOD     C132552  11.973  20.643  25.590  0.1230 -0.3999 -0.3234
62911DOD     C232553  11.960  20.230  25.661  0.3337 -0.3860 -0.0408
62911DOD     C332554  12.062  19.888  25.963 -0.0190 -0.2290 -0.0035
62912DOD     C132555  19.916   2.269  23.522 -0.0523 -0.1500  0.0301
62912DOD     C232556  19.500   2.433  23.599 -0.0751  0.3015 -0.0142
62912DOD     C332557  19.220   2.750  23.378  0.0580  0.1473 -0.3146
62913DOD     C132558   8.426  18.412  20.940 -0.2201 -0.0709  0.0155
62913DOD     C232559   8.151  18.591  21.261 -0.1451  0.0591 -0.0421
62913DOD     C332560   7.739  18.738  21.400 -0.1500  0.1452  0.0671
62914DOD     C132561  26.090  22.881  29.801 -0.3499  0.2043  0.1322
62914DOD     C232562  25.862  22.899  29.338  0.1975  0.1627  0.0226
62914DOD     C332563  25.658  23.233  29.083  0.0125  0.0409  0.4343
62915DOD     C132564  13.349  19.057  28.488 -0.1108  0.2244  0.0617
62915DOD     C232565  13.259  18.695  28.754  0.4656 -0.0988  0.1437
62915DOD     C332566  13.257  18.625  29.129 -0.1309 -0.1431 -0.3180
62916DOD     C132567   0.193   3.244  13.091  0.0809 -0.5284 -0.0647
62916DOD     C232568   0.265   2.879  13.327  0.1107  0.0303 -0.1980
62916DOD     C332569   0.422   2.692  13.713 -0.0408  0.0741  0.1423
62917DOD     C132570   6.035  28.828  18.543  0.1989  0.1318 -0.2949
62917DOD     C232571   6.150  28.343  18.524  0.0983  0.0730  0.1477
62917DOD     C332572   5.835  28.027  18.352 -0.0807  0.3615  0.1294
62918DOD     C132573   1.182  28.330   8.685  0.0396 -0.1200 -0.0151
62918DOD     C232574   0.693  28.175   8.620  0.0636  0.1337 -0.0345
62918DOD     C332575   0.523  28.312   8.200  0.1727  0.2077  0.1661
62919DOD     C132576  21.359  11.374  13.758  0.0673  0.1178 -0.4013
62919DOD     C232577  21.231  10.947  13.925 -0.0224 -0.1117  0.0986
62919DOD     C332578  21.061  10.489  13.877 -0.0416 -0.1130 -0.1397
62920DOD     C132579   4.721  17.345  28.294  0.1516  0.1092 -0.0854
62920DOD     C232580   4.516  17.545  28.675  0.0570  0.2605  0.0104
62920DOD     C332581   4.186  17.525  29.035 -0.0753 -0.1701  0.2333
62921DOD     C132582   5.664   0.069   5.365 -0.0208  0.1310 -0.1701
62921DOD     C232583   5.796  29.979   5.525  0.1474  0.1073 -0.0076
62921DOD     C332584   6.176  29.616   5.676  0.0319 -0.6181  0.1102
62922DOD     C132585  27.034   4.521  23.827 -0.0400  0.0198  0.2879
62922DOD     C232586  27.036   4.944  23.913 -0.1187  0.2226 -0.0787
62922DOD     C332587  27.116   5.173  24.312  0.0484 -0.1548 -0.0609
62923DOD     C132588  11.359  10.952  27.052 -0.1982 -0.1134 -0.1072
62923DOD     C232589  10.934  10.802  26.809 -0.1084 -0.0982  0.0498
62923DOD     C332590  10.557  10.727  26.496  0.1758 -0.2699 -0.0369
62924DOD     C132591  14.235   8.290  15.469  0.1198 -0.0988 -0.3605
62924DOD     C232592  13.798   8.143  15.651 -0.4756  0.0006  0.0756
62924DOD     C332593  13.590   7.989  16.006 -0.3307  0.4596 -0.2131
62925DOD     C132594   9.790   8.701  21.900  0.1231  0.0870  0.2839
62925DOD     C232595   9.889   9.147  22.142  0.1727 -0.1733  0.1065
62925DOD     C332596   9.932   9.409  22.494 -0.1208 -0.0906 -0.0581
62926DOD     C132597   0.995  12.379   4.171 -0.1954 -0.1104  0.1087
62926DOD     C232598   0.718  12.736   4.139  0.4027  0.1571  0.3480
62926DOD     C332599   0.575  13.150   4.054 -0.1505  0.1206 -0.3190
62927DOD     C132600   5.127   1.141  19.085 -0.1042  0.2674 -0.0658
62927DOD     C232601   5.008   0.790  19.385 -0.2259 -0.0872  0.0311
62927DOD     C332602   5.227   0.422  19.654  0.1305 -0.2390  0.1402
62928DOD     C132603   7.066  28.925  10.081  0.1375 -0.1420 -0.0486
62928DOD     C232604   7.053  29.260  10.354  0.1375 -0.3018  0.1399
62928DOD     C332605   6.806  29.305  10.754  0.2008  0.1944 -0.1831
62929DOD     C132606  18.677   7.820   9.947  0.1802  0.1961 -0.1779
62929DOD     C232607  18.822   7.977  10.361 -0.1063  0.1541 -0.1628
62929DOD     C332608  18.791   8.394  10.486 -0.3098 -0.0571  0.0450
62930DOD     C132609  28.689  20.971  18.372 -0.3082 -0.3390 -0.0630
62930DOD     C232610  28.890  20.661  18.535  0.0468 -0.0297 -0.4210
62930DOD     C332611  29.262  20.543  18.721 -0.1355  0.0655  0.0381
62931DOD     C132612   5.252  13.159  22.349  0.4461  0.1269  0.1654
62931DOD     C232613   5.187  13.409  22.747  0.2710 -0.0846 -0.0184
62931DOD     C332614   5.319  13.597  23.121 -0.0083 -0.1620 -0.1461
62932DOD     C132615  23.268  24.624   3.153 -0.4008  0.0576  0.2432
62932DOD     C232616  23.574  24.376   2.906  0.0520  0.2196  0.0436
62932DOD     C332617  23.978  24.512   2.754 -0.1648  0.0558 -0.4765
62933DOD     C132618   7.455  18.275  14.647  0.0705  0.3412 -0.0306
62933DOD     C232619   7.002  18.194  14.577  0.1906  0.1804 -0.1020
62933DOD     C332620   6.602  17.939  14.621  0.1092 -0.1179 -0.4420
62934DOD     C132621   0.888   1.739  12.472  0.0933 -0.2542  0.0486
62934DOD     C232622   0.673   1.603  12.104 -0.1770 -0.1675 -0.0623
62934DOD     C332623   0.839   1.510  11.703 -0.4603 -0.1554  0.0099
62935DOD     C132624   2.000  19.406  24.470  0.1714  0.1945  0.1190
62935DOD     C232625   1.668  19.115  24.289 -0.0674  0.2367 -0.3241
62935DOD     C332626   1.426  18.767  24.496  0.1531 -0.0283 -0.1114
62936DOD     C132627  17.388   7.635  29.896  0.5482 -0.2523  0.0453
62936DOD     C232628  16.903   7.722  29.799  0.2175 -0.1278  0.0997
62936DOD     C332629  16.650   8.165  29.890 -0.1945  0.0485  0.0467
62937DOD     C132630   1.658  23.483   9.165  0.0470  0.0446  0.3426
62937DOD     C232631   2.003  23.561   8.814  0.3781  0.0665  0.0533
62937DOD     C332632   2.106  23.684   8.410  0.0839  0.0654 -0.1691
62938DOD     C132633  17.525  14.134   2.185 -0.1385 -0.1719  0.2975
62938DOD     C232634  17.838  14.330   2.465  0.2211 -0.1024 -0.0845
62938DOD     C332635  17.972  14.412   2.915 -0.0999 -0.1088  0.3435
62939DOD     C132636  16.243   8.342   6.067  0.0237 -0.0548  0.1180
62939DOD     C232637  16.028   7.958   6.247  0.2715 -0.1910 -0.4675
62939DOD     C332638  15.851   7.648   6.550 -0.2035 -0.0176 -0.1734
62940DOD     C132639  16.465  26.276  16.481 -0.2969 -0.4763 -0.1375
62940DOD     C232640  16.709  26.721  16.582 -0.1912  0.0001  0.2201
62940DOD     C332641  17.150  26.825  16.605  0.2730 -0.0155  0.0190
62941DOD     C132642  10.730  30.119  12.349 -0.0352 -0.0234  0.0551
62941DOD     C232643  10.369  30.105  12.061  0.0824  0.3131 -0.2593
62941DOD     C332644  10.031  30.192  11.826  0.0984  0.0935 -0.0375
62942DOD     C132645   4.566   4.717  12.093 -0.0474 -0.2972  0.0163
62942DOD     C232646   4.800   4.351  12.034 -0.4468 -0.2060 -0.1152
62942DOD     C332647   4.676   3.933  12.000  0.0966 -0.0508  0.0563
62943DOD     C132648   1.117  13.638  19.532  0.2236 -0.0503  0.1331
62943DOD     C232649   0.618  13.624  19.683  0.0139  0.3371 -0.1261
62943DOD     C332650   0.328  13.269  19.786 -0.0634  0.1377  0.1681
62944DOD     C132651  22.472  22.034  20.171  0.1176 -0.1481  0.1592
62944DOD     C232652  22.587  22.451  20.131  0.1384 -0.0202 -0.0562
62944DOD     C332653  22.771  22.739  19.779  0.1452 -0.0890  0.0201
62945DOD     C132654  13.294  27.153   2.348  0.1231  0.1527  0.1053
62945DOD     C232655  12.839  27.357   2.283 -0.1061 -0.0669  0.1645
62945DOD     C332656  12.684  27.731   2.053  0.0543  0.0116 -0.0099
62946DOD     C132657  25.503  21.718  17.471 -0.2413  0.2083  0.1979
62946DOD     C232658  25.607  22.162  17.423  0.0305 -0.2144  0.0666
62946DOD     C332659  25.753  22.583  17.303 -0.0517  0.3185  0.0931
62947DOD     C132660  21.080  11.871   2.246 -0.1195  0.0984  0.1271
62947DOD     C232661  20.913  11.536   1.991  0.0448  0.1375  0.0472
62947DOD     C332662  20.652  11.176   2.068  0.2295  0.0178 -0.0522
62948DOD     C132663  16.802  15.583  14.002 -0.1450 -0.1198  0.1720
62948DOD     C232664  17.092  15.711  13.637 -0.1216 -0.2692  0.3509
62948DOD     C332665  16.932  15.858  13.241  0.0365  0.0256  0.0863
62949DOD     C132666  19.481  19.752  28.876 -0.0234  0.0790 -0.1044
62949DOD     C232667  19.057  19.896  29.042  0.0005 -0.0699  0.0092
62949DOD     C332668  18.578  19.926  29.008 -0.2068  0.0272  0.0404
62950DOD     C132669  20.676  12.042  16.040 -0.1990 -0.1446  0.0164
62950DOD     C232670  20.833  11.613  15.919  0.0791  0.0357 -0.1403
62950DOD     C332671  20.810  11.193  15.671 -0.0272  0.1886 -0.1234
62951DOD     C132672  15.584   8.219   5.293  0.0479 -0.0505 -0.0505
62951DOD     C232673  15.984   8.501   5.212 -0.4060  0.1042  0.1240
62951DOD     C332674  16.308   8.809   5.159 -0.0324  0.3255 -0.1637
62952DOD     C132675  15.189   3.858   4.559 -0.1447  0.3208 -0.0908
62952DOD     C232676  14.894   4.036   4.220 -0.1423  0.1064  0.0066
62952DOD     C332677  14.631   4.114   3.842 -0.2187  0.0115 -0.1917
62953DOD     C132678   6.746   6.804   2.284  0.1168  0.0732 -0.0457
62953DOD     C232679   6.824   7.228   2.380  0.1463  0.1538 -0.2196
62953DOD     C332680   6.688   7.638   2.588  0.2598 -0.1424 -0.0353
62954DOD     C132681   7.852   4.622  24.902  0.0433  0.1543  0.0139
62954DOD     C232682   8.258   4.392  24.992  0.1348 -0.3556 -0.1059
62954DOD     C332683   8.709   4.343  25.090 -0.2782 -0.0118 -0.2398
62955DOD     C132684  27.275   3.932   1.832 -0.0526  0.0300  0.0206
62955DOD     C232685  27.164   4.327   1.676  0.0129  0.2418  0.0933
62955DOD     C332686  26.790   4.601   1.650  0.0687  0.3789 -0.2374
62956DOD     C132687  23.432  25.272  26.216 -0.2789 -0.2965 -0.1195
62956DOD     C232688  23.199  25.295  25.823  0.0942 -0.4402 -0.2838
62956DOD     C332689  22.864  25.468  25.577 -0.2458  0.0694  0.1619
62957DOD     C132690  24.938  19.196  12.514 -0.1065  0.1534  0.0321
62957DOD     C232691  24.500  19.204  12.463  0.3478  0.3120  0.0448
62957DOD     C332692  24.100  19.073  12.592 -0.3317  0.0224  0.1460
62958DOD     C132693  18.484  30.130  18.740 -0.1182 -0.1691  0.2197
62958DOD     C232694  18.157  29.931  19.032 -0.1773  0.0092  0.2239
62958DOD     C332695  17.898  29.583  19.234  0.0022 -0.2703 -0.2198
62959DOD     C132696  13.323  22.183   5.292  0.1596  0.2302  0.1151
62959DOD     C232697  13.483  21.772   5.326  0.1301  0.0174  0.3120
62959DOD     C332698  13.321  21.374   5.535 -0.0757 -0.1329  0.3091
62960DOD     C132699  23.344   2.256   3.948  0.1599  0.0274  0.0377
62960DOD     C232700  23.170   1.918   4.326 -0.0473  0.1297  0.3667
62960DOD     C332701  23.252   1.560   4.609 -0.0086  0.0113  0.0987
62961DOD     C132702  28.419  16.737  13.936 -0.0370 -0.0630 -0.0751
62961DOD     C232703  28.897  16.774  13.840  0.1326 -0.1316  0.0678
62961DOD     C332704  29.161  16.930  13.466 -0.2533 -0.0243  0.2382
62962DOD     C132705  18.213  15.047  19.867 -0.0231  0.3738 -0.0266
62962DOD     C232706  17.895  14.988  20.152  0.0499  0.0265 -0.3059
62962DOD     C332707  17.729  15.299  20.528  0.2816  0.1567  0.1539
62963DOD     C132708  11.700   2.914  25.985  0.1255  0.1905 -0.0950
62963DOD     C232709  11.989   2.611  25.751  0.1116  0.3311  0.4205
62963DOD     C332710  12.017   2.371  25.376 -0.2405 -0.0636  0.0846
62964DOD     C132711   0.560  12.353   6.533 -0.0099  0.1108  0.0697
62964DOD     C232712   0.664  11.993   6.264 -0.1855  0.4923  0.0100
62964DOD     C332713   0.503  11.932   5.856  0.3600  0.0291  0.0898
62965DOD     C132714  17.878   7.076  11.499  0.0679  0.0596  0.3985
62965DOD     C232715  17.993   7.315  11.860  0.0859 -0.0051 -0.4249
62965DOD     C332716  18.355   7.249  12.159  0.0694  0.0404 -0.1082
62966DOD     C132717  18.217   5.052  23.932 -0.2397 -0.0413 -0.0944
62966DOD     C232718  17.831   5.317  23.797 -0.2319 -0.0763  0.1806
62966DOD     C332719  17.556   5.714  23.879  0.2615  0.0718 -0.0423
62967DOD     C132720   7.441  15.117   4.850 -0.1475 -0.1576 -0.3601
62967DOD     C232721   7.890  15.274   4.707  0.1153 -0.2874  0.1391
62967DOD     C332722   8.263  14.990   4.772  0.1896  0.0771  0.1495
62968DOD     C132723  23.390  17.682  14.253 -0.4467  0.6534 -0.3314
62968DOD     C232724  23.269  17.728  13.793  0.1274 -0.1260  0.0987
62968DOD     C332725  23.297  17.990  13.410 -0.1984  0.1083  0.2708
62969DOD     C132726  23.978  -0.026  14.946  0.2204 -0.1649  0.1423
62969DOD     C232727  23.860  30.078  15.277  0.2029  0.0923 -0.1981
62969DOD     C332728  23.754  30.084  15.697 -0.1667 -0.1649 -0.2072
62970DOD     C132729  26.937   7.247  22.670 -0.0164 -0.1673  0.1369
62970DOD     C232730  26.899   7.630  22.387 -0.0291 -0.1706  0.0997
62970DOD     C332731  26.752   8.021  22.121  0.2486 -0.0133  0.1688
62971DOD     C132732   9.714  18.239  11.189  0.1103 -0.1311 -0.2717
62971DOD     C232733   9.603  18.523  11.463  0.2733 -0.2765 -0.0567
62971DOD     C332734   9.749  18.803  11.740 -0.3018  0.0557  0.1294
62972DOD     C132735  24.875  25.774  11.624  0.0273  0.1531 -0.1208
62972DOD     C232736  24.629  25.745  11.241 -0.0263 -0.0943 -0.2035
62972DOD     C332737  24.476  25.451  10.881  0.1074  0.0216  0.0754
62973DOD     C132738  18.622  22.300  27.549  0.0294  0.2591 -0.2310
62973DOD     C232739  18.826  22.141  27.128 -0.1287  0.0569 -0.0363
62973DOD     C332740  19.151  21.885  26.912 -0.1866  0.3451  0.3117
62974DOD     C132741   0.391   5.101   6.752 -0.0107  0.2432 -0.1029
62974DOD     C232742   0.240   5.460   7.011  0.0641 -0.0845 -0.0081
62974DOD     C332743   0.319   5.909   7.144  0.3094  0.0034 -0.2760
62975DOD     C132744   2.003  12.764  26.812  0.2466  0.1897  0.1267
62975DOD     C232745   1.807  12.405  26.540 -0.1531  0.2246 -0.1789
62975DOD     C332746   1.948  11.977  26.379 -0.1574  0.0937  0.1457
62976DOD     C132747  10.466   9.993  25.982 -0.1701 -0.1404  0.0205
62976DOD     C232748  10.713  10.114  25.630  0.0504 -0.2904  0.1012
62976DOD     C332749  10.782  10.058  25.203 -0.1761 -0.0147 -0.0235
62977DOD     C132750  17.361   5.067  15.890  0.3144  0.2624 -0.0933
62977DOD     C232751  16.944   5.145  16.176  0.2363 -0.0803  0.1382
62977DOD     C332752  16.463   5.268  16.278 -0.0023 -0.1310 -0.0326
62978DOD     C132753  12.838  11.059  15.359  0.0077  0.0077 -0.4138
62978DOD     C232754  12.763  11.210  15.783  0.0778 -0.1481  0.1597
62978DOD     C332755  12.393  11.237  16.128 -0.2939 -0.1341 -0.0936
62979DOD     C132756  20.808   3.164   6.438  0.1223  0.0221  0.0567
62979DOD     C232757  20.688   2.721   6.248  0.0427 -0.4038  0.0754
62979DOD     C332758  20.827   2.301   6.331 -0.1283  0.1315 -0.0033
62980DOD     C132759   7.497  13.367   9.743  0.0454 -0.1437 -0.1502
62980DOD     C232760   7.724  13.037   9.464  0.2717  0.0842 -0.1165
62980DOD     C332761   8.061  12.817   9.308  0.0603  0.1533  0.0948
62981DOD     C132762  14.052  25.104  28.587  0.0937 -0.1072 -0.0143
62981DOD     C232763  14.268  25.184  28.194 -0.2997 -0.1233 -0.1124
62981DOD     C332764  14.482  25.214  27.779 -0.0664 -0.0742 -0.0369
62982DOD     C132765  26.251  13.340  10.702 -0.1964  0.0523  0.0009
62982DOD     C232766  25.873  13.599  10.826 -0.0099  0.3948  0.0833
62982DOD     C332767  25.476  13.367  10.801 -0.0322 -0.1498 -0.5062
62983DOD     C132768   2.278  28.811  17.833  0.0349 -0.0958 -0.2566
62983DOD     C232769   2.572  28.651  17.501  0.1558  0.2544 -0.1012
62983DOD     C332770   2.704  28.202  17.454 -0.1307  0.0768  0.1246
62984DOD     C132771  15.698  25.561  14.443  0.0987 -0.3158 -0.4164
62984DOD     C232772  15.505  25.897  14.707 -0.0962  0.2522 -0.2772
62984DOD     C332773  15.604  26.231  14.916 -0.1276 -0.2076  0.0955
62985DOD     C132774  17.746  26.861  13.311 -0.0315  0.3247 -0.1645
62985DOD     C232775  17.766  26.851  13.754 -0.1406 -0.0295  0.0220
62985DOD     C332776  17.680  26.679  14.175 -0.2148 -0.0698 -0.0526
62986DOD     C132777  20.841   3.872  10.388  0.0515 -0.3647  0.0133
62986DOD     C232778  20.475   3.684  10.607 -0.2168 -0.2407  0.0475
62986DOD     C332779  20.128   3.426  10.446 -0.1683  0.3718 -0.3314
62987DOD     C132780   3.730  23.787  24.022  0.0179 -0.0230  0.2498
62987DOD     C232781   3.262  23.984  23.935  0.1937  0.0738  0.2418
62987DOD     C332782   2.891  23.768  23.718 -0.2601  0.2382  0.0932
62988DOD     C132783   5.407   1.410  12.082 -0.4527 -0.1336  0.0276
62988DOD     C232784   5.446   1.013  12.103  0.1504 -0.0621 -0.2369
62988DOD     C332785   5.646   0.700  11.786  0.1287 -0.0847  0.1549
62989DOD     C132786  23.653  21.305   5.765 -0.0184  0.0032  0.0835
62989DOD     C232787  23.276  21.604   5.793 -0.3309  0.1082  0.2190
62989DOD     C332788  22.825  21.501   5.800  0.0968 -0.0517 -0.2034
62990DOD     C132789  23.257  10.301   1.512  0.3313  0.1716  0.1209
62990DOD     C232790  23.000  10.426   1.875 -0.0475 -0.0212  0.1849
62990DOD     C332791  22.687  10.481   2.183 -0.1194  0.1187 -0.0222
62991DOD     C132792   3.577  28.586  10.645 -0.1311  0.0972 -0.1578
62991DOD     C232793   3.480  28.501  11.115 -0.0617 -0.2161  0.3277
62991DOD     C332794   3.078  28.580  11.473 -0.1964 -0.2729 -0.3570
62992DOD     C132795   8.815   4.572  25.528  0.0146 -0.3352 -0.2870
62992DOD     C232796   8.731   4.916  25.844  0.0842 -0.1099  0.2053
62992DOD     C332797   8.458   5.170  26.145  0.0947 -0.2450 -0.3029
62993DOD     C132798  13.674  28.351  23.802 -0.0868  0.0548 -0.1616
62993DOD     C232799  13.461  28.678  24.130 -0.2991  0.3924 -0.0822
62993DOD     C332800  13.221  29.031  24.311 -0.2742  0.1704 -0.0080
62994DOD     C132801   9.235   5.347   8.612  0.1573 -0.1763 -0.0374
62994DOD     C232802   9.053   5.509   8.264 -0.1231 -0.5522 -0.4365
62994DOD     C332803   8.960   5.700   7.859 -0.0945 -0.3339 -0.0567
62995DOD     C132804   8.836  29.194  23.986  0.2010  0.0469  0.2185
62995DOD     C232805   9.167  28.847  24.008  0.0071  0.0101  0.2362
62995DOD     C332806   9.636  28.863  24.056 -0.2080  0.2293 -0.0851
62996DOD     C132807  24.249  10.932  10.598  0.0457 -0.2543 -0.1855
62996DOD     C232808  24.592  11.120  10.361  0.0276 -0.4436 -0.0871
62996DOD     C332809  24.757  11.358   9.997  0.4222  0.1527  0.2637
62997DOD     C132810   1.783  14.036  10.993 -0.1171  0.1234 -0.2335
62997DOD     C232811   1.614  13.909  11.437  0.1564 -0.0659 -0.0800
62997DOD     C332812   1.411  13.667  11.779 -0.1001  0.1454  0.0939
62998DOD     C132813   3.716   7.124  18.208  0.0697 -0.0229  0.2430
62998DOD     C232814   3.963   6.929  18.585  0.2023 -0.1824 -0.0345
62998DOD     C332815   4.031   6.670  18.943  0.2045  0.0612 -0.0191
62999DOD     C132816   6.278   3.468   3.442 -0.2218  0.0039  0.1896
62999DOD     C232817   6.657   3.643   3.640 -0.0802  0.1119 -0.1899
62999DOD     C332818   6.664   4.085   3.780 -0.1128  0.2202 -0.0125
63000DOD     C132819   7.540  17.903  -0.100  0.2305 -0.3943 -0.3656
63000DOD     C232820   7.521  17.479   0.098  0.2216  0.0658 -0.0108
63000DOD     C332821   7.782  17.201   0.359 -0.0247  0.0870 -0.0144
63001DOD     C132822   0.733  20.310  14.982 -0.0554  0.1295 -0.3663
63001DOD     C232823   0.742  20.772  15.121 -0.0698 -0.0817 -0.1525
63001DOD     C332824   0.828  21.102  15.466 -0.0132  0.0903  0.2310
63002DOD     C132825  25.801  23.779  29.116  0.1649 -0.0287 -0.1964
63002DOD     C232826  25.743  24.230  29.186  0.1675 -0.1226  0.0527
63002DOD     C332827  25.444  24.533  29.366 -0.2463  0.1361 -0.0659
63003DOD     C132828   7.315  12.774  10.605  0.0632 -0.0249 -0.0253
63003DOD     C232829   7.403  12.309  10.509 -0.2164  0.0696 -0.0016
63003DOD     C332830   7.354  11.858  10.355  0.2802 -0.1094  0.0041
63004DOD     C132831   1.524  28.276  14.320 -0.1591  0.0501 -0.0757
63004DOD     C232832   1.682  27.966  14.577  0.2480 -0.3987 -0.0589
63004DOD     C332833   1.936  27.667  14.513 -0.0371  0.2630 -0.1985
63005DOD     C132834   3.411  19.941  11.340 -0.2137  0.1428  0.0277
63005DOD     C232835   3.224  19.573  11.153  0.0552  0.0913  0.1454
63005DOD     C332836   3.187  19.090  11.157  0.1914  0.0503  0.2539
63006DOD     C132837  25.225   4.517  29.736 -0.1576  0.3105  0.0730
63006DOD     C232838  25.415   4.094  29.714  0.0422 -0.2041  0.2489
63006DOD     C332839  25.504   3.789  29.357  0.2509  0.0907 -0.2671
63007DOD     C132840   8.264  17.930  14.025 -0.0576 -0.4371  0.0399
63007DOD     C232841   8.063  18.320  14.206 -0.1203  0.3282 -0.2813
63007DOD     C332842   7.800  18.583  14.480 -0.0345 -0.0260  0.1454
63008DOD     C132843  23.730   8.683   4.328 -0.1971  0.0282 -0.1679
63008DOD     C232844  23.600   8.682   3.809 -0.0913  0.0925  0.0725
63008DOD     C332845  23.351   8.709   3.441 -0.2253 -0.2010 -0.1097
63009DOD     C132846  20.300  17.624   7.035 -0.0410  0.1971 -0.2273
63009DOD     C232847  20.540  17.716   7.436 -0.0308  0.1174  0.0943
63009DOD     C332848  20.826  17.912   7.753 -0.2363 -0.0027 -0.1035
63010DOD     C132849  23.584  30.048  26.265  0.1335 -0.1248  0.0398
63010DOD     C232850  23.715   0.154  26.406 -0.0178  0.2696 -0.0051
63010DOD     C332851  23.574   0.584  26.494 -0.1276 -0.0564  0.1334
63011DOD     C132852  17.728  23.192  15.908 -0.1821 -0.2238 -0.1032
63011DOD     C232853  17.745  23.552  16.179  0.0455 -0.1521  0.1992
63011DOD     C332854  18.095  23.608  16.521  0.2717  0.3318 -0.2724
63012DOD     C132855   1.313  11.157  15.034  0.2207 -0.0479 -0.1426
63012DOD     C232856   1.253  11.027  15.475  0.0513  0.1060  0.3318
63012DOD     C332857   1.317  10.899  15.936  0.1265 -0.2101 -0.2579
63013DOD     C132858  26.937  13.121  24.243  0.2462 -0.2878  0.3626
63013DOD     C232859  26.650  13.404  24.040  0.1174  0.1600  0.0921
63013DOD     C332860  26.170  13.415  23.931  0.0436  0.1920  0.1406
63014DOD     C132861  25.201   8.184  29.831  0.3009  0.0255 -0.0317
63014DOD     C232862  25.497   8.297  30.175 -0.1155 -0.1878 -0.0826
63014DOD     C332863  25.913   8.125   0.060 -0.1325 -0.2317 -0.0299
63015DOD     C132864   3.152  28.503  23.318  0.0364  0.2080  0.0385
63015DOD     C232865   2.902  28.140  23.336 -0.1445  0.1749  0.2402
63015DOD     C332866   2.923  27.659  23.443  0.0839 -0.2058  0.0065
63016DOD     C132867  13.529   8.493  29.977 -0.0946 -0.2722  0.2049
63016DOD     C232868  13.749   8.333  29.587 -0.0255 -0.0034 -0.0653
63016DOD     C332869  13.510   8.330  29.179  0.0511 -0.1047 -0.0944
63017DOD     C132870  10.147   0.322   2.923 -0.0430  0.1643 -0.2273
63017DOD     C232871   9.744   0.507   2.620 -0.1071 -0.1200 -0.2630
63017DOD     C332872   9.335   0.401   2.570  0.6147  0.1944  0.0943
63018DOD     C132873  15.167  11.747   4.824  0.0878  0.2968  0.2712
63018DOD     C232874  15.443  11.668   4.522 -0.3564  0.0105  0.0739
63018DOD     C332875  15.690  11.460   4.154  0.1213 -0.1772  0.1288
63019DOD     C132876  15.124  27.316  10.627  0.2048  0.0344 -0.0852
63019DOD     C232877  14.713  27.418  10.469  0.1018 -0.0007 -0.0593
63019DOD     C332878  14.568  27.867  10.460 -0.0665 -0.1174 -0.2680
63020DOD     C132879  20.528  27.773   2.945  0.0872 -0.1587  0.1408
63020DOD     C232880  20.531  28.108   2.575 -0.0502 -0.2081  0.0227
63020DOD     C332881  20.289  28.548   2.730 -0.0838  0.1247  0.1495
63021DOD     C132882  10.561  11.862   5.105 -0.3679  0.0048  0.0324
63021DOD     C232883  10.554  11.413   4.890 -0.0833 -0.1796  0.0484
63021DOD     C332884  10.680  11.082   4.648  0.2869  0.2324 -0.1584
63022DOD     C132885   1.702  16.211  13.058  0.3830  0.0869 -0.0930
63022DOD     C232886   1.319  15.993  12.995 -0.0339 -0.0139  0.2197
63022DOD     C332887   0.960  15.909  13.281  0.0712 -0.3243  0.0294
63023DOD     C132888  24.771  19.680  12.521  0.0878 -0.0895 -0.0643
63023DOD     C232889  24.771  20.118  12.663 -0.0001 -0.2885  0.3878
63023DOD     C332890  24.629  20.495  12.894 -0.2433 -0.0340 -0.2176
63024DOD     C132891  25.722  18.575  26.119  0.2066  0.2872 -0.0067
63024DOD     C232892  25.628  18.792  26.454  0.2123  0.4242  0.0516
63024DOD     C332893  25.577  19.258  26.605  0.0711  0.0188  0.2572
63025DOD     C132894   9.449   4.191   3.122  0.1163 -0.1025 -0.1413
63025DOD     C232895   9.195   3.826   3.135 -0.1077  0.0768  0.3932
63025DOD     C332896   8.981   3.554   3.390  0.0637 -0.0110  0.2700
63026DOD     C132897   1.174   5.482  19.338  0.0022  0.0058  0.0887
63026DOD     C232898   1.485   5.548  19.681  0.2051 -0.0746  0.1092
63026DOD     C332899   1.419   5.756  20.133  0.2423 -0.0928  0.0577
63027DOD     C132900   7.973  26.044  11.102 -0.1180 -0.1069 -0.0224
63027DOD     C232901   7.678  25.757  11.282 -0.3141 -0.1323 -0.1488
63027DOD     C332902   7.219  25.887  11.266 -0.0460  0.1768  0.3049
63028DOD     C132903   9.301  23.026  19.281 -0.3398  0.1549  0.1652
63028DOD     C232904   9.649  22.787  19.055 -0.1688 -0.2808  0.1006
63028DOD     C332905  10.046  22.699  18.770  0.0635 -0.2434 -0.1029
63029DOD     C132906  13.462   7.416  27.469 -0.0551  0.2565 -0.1338
63029DOD     C232907  13.585   7.856  27.396  0.1416 -0.0040 -0.2088
63029DOD     C332908  13.523   8.261  27.185  0.0309 -0.1787 -0.3039
63030DOD     C132909  18.066  22.096  11.072 -0.0977  0.0874 -0.1797
63030DOD     C232910  18.408  21.917  11.285 -0.0492  0.0519  0.0981
63030DOD     C332911  18.793  21.669  11.414  0.0083 -0.1981 -0.2219
63031DOD     C132912   8.308   4.295  27.800  0.1544  0.3062  0.2420
63031DOD     C232913   8.744   4.524  27.893  0.1098 -0.0136  0.1345
63031DOD     C332914   9.159   4.719  27.857 -0.2505 -0.0619  0.1679
63032DOD     C132915  28.295   6.485  12.145 -0.0583  0.0177 -0.1701
63032DOD     C232916  28.469   6.343  12.502  0.2127  0.4773 -0.2077
63032DOD     C332917  28.595   6.581  12.873  0.1443 -0.2836 -0.1582
63033DOD     C132918   1.494   8.184  21.321 -0.3034  0.0752  0.2005
63033DOD     C232919   1.272   8.085  21.661  0.0833  0.0576  0.3621
63033DOD     C332920   0.860   7.831  21.816 -0.0960  0.0823 -0.1954
63034DOD     C132921  18.004  18.574  11.054 -0.3098  0.2958  0.1219
63034DOD     C232922  18.481  18.498  11.194 -0.3429 -0.4334 -0.4400
63034DOD     C332923  18.797  18.248  11.399  0.0521  0.0067  0.2135
63035DOD     C132924  29.598  16.813  19.335 -0.0901  0.2729  0.1492
63035DOD     C232925  29.447  17.201  19.433  0.0799 -0.2847 -0.3134
63035DOD     C332926  29.114  17.262  19.787 -0.0706 -0.2342 -0.0452
63036DOD     C132927  26.531  19.421  27.769  0.1560  0.0756  0.3510
63036DOD     C232928  26.354  18.991  27.797  0.0644 -0.1216  0.1712
63036DOD     C332929  26.318  18.629  27.536  0.1562  0.1604  0.0717
63037DOD     C132930  10.182  23.366  29.328  0.0986  0.1065 -0.0360
63037DOD     C232931   9.835  23.051  29.351 -0.1020 -0.1573 -0.1339
63037DOD     C332932   9.521  22.694  29.299 -0.1036  0.0118  0.2807
63038DOD     C132933  24.609   0.499   1.152  0.5164 -0.0916  0.1066
63038DOD     C232934  25.035   0.493   1.213  0.3034 -0.0011 -0.2594
63038DOD     C332935  25.227   0.317   1.548 -0.2042 -0.1830  0.1314
63039DOD     C132936  21.592  10.856  22.831  0.3284 -0.1133  0.0373
63039DOD     C232937  21.648  10.840  22.348 -0.0139 -0.1131 -0.1156
63039DOD     C332938  21.460  10.751  21.946 -0.3614 -0.1219 -0.0022
63040DOD     C132939  18.769   1.272  23.153  0.4240  0.2626  0.1502
63040DOD     C232940  18.797   0.853  23.310  0.0813 -0.0416  0.0215
63040DOD     C332941  18.967   0.568  23.651 -0.0311  0.0315 -0.1202
63041DOD     C132942  30.006  28.378   8.171  0.0433  0.1854 -0.0572
63041DOD     C232943  29.923  28.304   7.708  0.1264  0.2469 -0.2612
63041DOD     C332944  30.041  28.044   7.275 -0.0913 -0.1933 -0.1017
63042DOD     C132945   4.579   8.564  15.855  0.1490 -0.1541  0.1476
63042DOD     C232946   4.571   8.138  15.669 -0.0243 -0.1104 -0.2300
63042DOD     C332947   4.826   7.724  15.767 -0.1573  0.0094  0.0760
63043DOD     C132948  18.580  26.387   0.306 -0.2096  0.0346  0.3529
63043DOD     C232949  18.295  25.995   0.267  0.1497 -0.1198  0.0160
63043DOD     C332950  18.369  25.539   0.376 -0.3248 -0.1279  0.0427
63044DOD     C132951   4.027  23.423  11.864  0.2909 -0.1742  0.2730
63044DOD     C232952   4.136  22.993  11.711  0.1885  0.2374 -0.2554
63044DOD     C332953   4.406  22.873  11.404  0.1058  0.1412  0.1240
63045DOD     C132954  15.734  17.254  29.181 -0.0997  0.0509 -0.0797
63045DOD     C232955  15.632  17.742  29.055  0.0275 -0.1891  0.2341
63045DOD     C332956  15.668  18.157  29.017 -0.1164 -0.2829  0.2556
63046DOD     C132957  23.053  23.596  20.213  0.0904 -0.2139 -0.1258
63046DOD     C232958  22.873  23.676  19.820  0.0133  0.1425 -0.0408
63046DOD     C332959  22.663  23.972  19.597 -0.1396 -0.3183 -0.0042
63047DOD     C132960  30.073  18.317  21.248  0.1412 -0.2104  0.0404
63047DOD     C232961  29.765  18.078  21.414 -0.0912 -0.1659 -0.0036
63047DOD     C332962  29.847  17.845  21.781  0.0408 -0.2431 -0.2078
63048DOD     C132963   8.809  22.668   2.394 -0.1726 -0.1122 -0.0902
63048DOD     C232964   9.119  22.951   2.587  0.1382  0.3090  0.0834
63048DOD     C332965   9.443  23.169   2.412  0.2123  0.0262  0.2642
63049DOD     C132966  17.801  24.873   9.028  0.2644 -0.3052 -0.1818
63049DOD     C232967  18.071  25.091   8.750 -0.1874 -0.3044 -0.1258
63049DOD     C332968  18.533  25.227   8.753 -0.3413 -0.1610  0.0224
63050DOD     C132969  17.290  24.182  27.181  0.2469 -0.2567  0.1602
63050DOD     C232970  17.278  24.636  27.079  0.0305  0.1018 -0.1057
63050DOD     C332971  17.055  24.857  26.776 -0.1113 -0.0340  0.1686
63051DOD     C132972  18.163  29.341  11.319  0.0913 -0.0548 -0.1555
63051DOD     C232973  17.760  29.154  11.147  0.1133 -0.0279 -0.2888
63051DOD     C332974  17.516  28.815  10.918 -0.1462  0.2297 -0.3385
63052DOD     C132975  20.748  10.258  22.054 -0.1091  0.1403  0.2328
63052DOD     C232976  21.049  10.048  22.328  0.0728  0.1053 -0.0666
63052DOD     C332977  21.248   9.638  22.364  0.0926  0.0404  0.3011
63053DOD     C132978   8.006  19.487  25.874 -0.1283  0.0646 -0.0096
63053DOD     C232979   8.478  19.496  25.922  0.1763  0.4160  0.0435
63053DOD     C332980   8.672  19.769  26.171  0.1482 -0.2226 -0.0085
63054DOD     C132981  11.502  21.067  11.129  0.4246  0.2682  0.1596
63054DOD     C232982  11.712  21.312  11.424 -0.2350  0.2130 -0.0670
63054DOD     C332983  12.048  21.417  11.668 -0.3979 -0.1447 -0.1320
63055DOD     C132984   4.269  21.669  13.378 -0.2040  0.1592 -0.0360
63055DOD     C232985   3.984  21.987  13.224  0.1236  0.2217 -0.0995
63055DOD     C332986   3.707  22.270  13.058  0.3795  0.3655  0.3540
63056DOD     C132987  16.664  15.491   5.632  0.0823 -0.2726 -0.0504
63056DOD     C232988  16.665  15.094   5.418 -0.1343 -0.1669  0.0364
63056DOD     C332989  16.850  14.664   5.499  0.2039 -0.0629  0.3428
63057DOD     C132990  20.345   0.209  26.640  0.0651 -0.2711  0.3174
63057DOD     C232991  20.594  30.128  26.517  0.0399  0.1309 -0.0496
63057DOD     C332992  20.880  29.773  26.477  0.0374  0.2442  0.1346
63058DOD     C132993  27.711  22.363   1.775 -0.0124 -0.4487  0.2292
63058DOD     C232994  28.029  22.524   2.013  0.0923  0.4536 -0.0071
63058DOD     C332995  28.189  22.847   2.313  0.0497 -0.1437  0.2618
63059DOD     C132996  25.421  26.941  11.847 -0.0455  0.1993  0.1151
63059DOD     C232997  25.113  27.016  11.518  0.1038  0.0155 -0.2706
63059DOD     C332998  24.742  27.242  11.372  0.0453 -0.0747 -0.0212
63060DOD     C132999  24.777  24.978  23.732  0.0713 -0.0918  0.1312
63060DOD     C233000  24.927  24.528  23.808 -0.1551  0.0738 -0.2034
63060DOD     C333001  25.063  24.125  23.594 -0.1081 -0.2112 -0.0845
63061DOD     C133002   9.898   9.060  21.124  0.1378 -0.0432  0.2942
63061DOD     C233003   9.628   9.196  20.826 -0.0376 -0.1559  0.0744
63061DOD     C333004   9.461   9.130  20.402 -0.0813 -0.1924  0.0249
63062DOD     C133005   3.821  24.172   7.704  0.1148  0.0200 -0.1552
63062DOD     C233006   4.160  24.213   7.330 -0.2301 -0.2528 -0.3050
63062DOD     C333007   4.569  24.122   7.075  0.2286  0.7325 -0.1020
63063DOD     C133008  19.067   5.362  11.006  0.1406  0.4112 -0.2198
63063DOD     C233009  18.851   5.441  10.636  0.4448 -0.0718  0.2769
63063DOD     C333010  18.607   5.288  10.262  0.0757 -0.1604  0.0040
63064DOD     C133011  18.445  13.112  21.821  0.3567  0.1984 -0.2815
63064DOD     C233012  18.198  13.041  22.244  0.2658 -0.1901  0.0281
63064DOD     C333013  17.973  13.373  22.493  0.2844  0.3880  0.2389
63065DOD     C133014  25.434  14.245  14.405  0.0283 -0.2484 -0.0157
63065DOD     C233015  25.238  14.660  14.315  0.0050 -0.0044 -0.0374
63065DOD     C333016  25.191  15.066  14.060 -0.2564  0.0820 -0.0526
63066DOD     C133017  21.748  16.053  23.312  0.0993  0.1244  0.3361
63066DOD     C233018  21.298  16.088  23.485 -0.1862  0.0602 -0.1902
63066DOD     C333019  20.807  16.136  23.530  0.2861 -0.1630  0.5030
63067DOD     C133020  29.173  28.929   3.395 -0.1345 -0.0886  0.2972
63067DOD     C233021  29.056  29.102   3.807 -0.1348  0.1742 -0.2079
63067DOD     C333022  28.911  29.327   4.129 -0.3874  0.2750  0.1530
63068DOD     C133023   5.511  23.067  15.844 -0.0036 -0.0984  0.5082
63068DOD     C233024   5.320  23.005  16.247  0.2001  0.0314  0.3779
63068DOD     C333025   5.252  22.708  16.543 -0.0313  0.2999  0.2689
63069DOD     C133026   6.354  25.008   8.864 -0.0995 -0.0585 -0.2856
63069DOD     C233027   6.503  25.311   9.229  0.1311 -0.3339 -0.0235
63069DOD     C333028   6.829  25.585   9.394 -0.0233 -0.3013  0.1508
63070DOD     C133029   2.385   8.603   8.048  0.0510  0.0105  0.0532
63070DOD     C233030   2.792   8.378   8.049  0.2857 -0.3163  0.1055
63070DOD     C333031   3.115   8.131   7.825 -0.1218 -0.1843 -0.1946
63071DOD     C133032  22.782  17.424  20.113 -0.0314 -0.0232  0.0429
63071DOD     C233033  22.891  17.055  20.357 -0.3314  0.2035  0.0010
63071DOD     C333034  23.177  16.748  20.500  0.0987 -0.0321 -0.1637
63072DOD     C133035  19.146  27.427  10.046  0.0989  0.1290 -0.0942
63072DOD     C233036  18.793  27.470   9.713  0.2874  0.1179  0.1256
63072DOD     C333037  18.517  27.485   9.343  0.1443  0.0528 -0.2241
63073DOD     C133038  21.058  11.241  19.608  0.1912 -0.1792 -0.0226
63073DOD     C233039  21.323  11.520  19.854 -0.0349  0.0963  0.1792
63073DOD     C333040  21.308  11.825  20.178 -0.0001 -0.1914  0.2501
63074DOD     C133041  20.114   8.505   1.906  0.0119 -0.0827 -0.1869
63074DOD     C233042  20.137   8.236   2.298  0.2999 -0.0318 -0.0454
63074DOD     C333043  20.337   8.065   2.602 -0.0419  0.0499  0.1505
63075DOD     C133044  29.315   5.506  21.163 -0.0190 -0.0908 -0.0557
63075DOD     C233045  29.340   5.958  21.137  0.2960  0.1956 -0.1001
63075DOD     C333046  29.397   6.395  21.020 -0.0029 -0.1834 -0.0642
63076DOD     C133047  12.301  29.012  29.165 -0.1722 -0.0297  0.3061
63076DOD     C233048  12.411  29.373  29.407 -0.0565 -0.1435 -0.1715
63076DOD     C333049  12.224  29.551  29.835 -0.0845  0.0247 -0.0763
63077DOD     C133050   1.339  24.188  25.989 -0.0319  0.1852 -0.3024
63077DOD     C233051   1.338  24.636  26.170  0.1124 -0.0347  0.1297
63077DOD     C333052   1.546  25.045  26.351 -0.0531  0.0574 -0.0072
63078DOD     C133053   9.297   2.484  15.161 -0.0498  0.0803  0.0508
63078DOD     C233054   9.085   2.153  14.915 -0.1019  0.0159  0.1105
63078DOD     C333055   8.723   1.862  14.769  0.1068  0.0963  0.1608
63079DOD     C133056   0.553  23.851   8.523  0.0294  0.0860 -0.0003
63079DOD     C233057   0.110  23.835   8.610 -0.0313  0.0369 -0.2084
63079DOD     C333058  30.090  23.765   8.333 -0.0951  0.0180 -0.0573
63080DOD     C133059  20.245   2.287  10.073  0.0478  0.1545 -0.0048
63080DOD     C233060  20.586   2.051  10.217  0.0290  0.1282  0.1262
63080DOD     C333061  21.048   1.957  10.344  0.2114 -0.0106  0.4234
63081DOD     C133062  18.008  13.043   7.723 -0.1850 -0.3137 -0.2446
63081DOD     C233063  18.429  12.875   7.642  0.0472 -0.2316 -0.0372
63081DOD     C333064  18.907  12.842   7.763  0.1072 -0.0222 -0.3844
63082DOD     C133065  19.900  28.959   4.777 -0.2685 -0.1200  0.0586
63082DOD     C233066  20.202  28.609   4.837 -0.1576 -0.3045  0.0563
63082DOD     C333067  20.286  28.183   4.933 -0.3227 -0.0883  0.0012
63083DOD     C133068  12.016  24.514  20.601 -0.0155 -0.0822 -0.0999
63083DOD     C233069  12.432  24.728  20.651  0.1552  0.3362 -0.0101
63083DOD     C333070  12.771  24.925  20.848 -0.2056  0.3674  0.3759
63084DOD     C133071  15.428  28.710  10.298  0.1894  0.0168  0.0647
63084DOD     C233072  15.420  29.033  10.612 -0.0230 -0.0058 -0.1066
63084DOD     C333073  15.704  29.409  10.784  0.0142 -0.2133 -0.0042
63085DOD     C133074   9.088   8.197  15.754  0.0930  0.3807  0.1439
63085DOD     C233075   8.751   7.916  15.646 -0.1048  0.3510  0.0926
63085DOD     C333076   8.551   7.496  15.727 -0.1957 -0.1799  0.0114
63086DOD     C133077  19.018  12.779   2.512 -0.2973 -0.2700  0.2774
63086DOD     C233078  18.703  12.680   2.856  0.2438  0.6272 -0.0711
63086DOD     C333079  18.445  12.960   3.108 -0.1035  0.2236 -0.2905
63087DOD     C133080  20.795  13.545  18.233  0.0864 -0.1247 -0.0759
63087DOD     C233081  20.530  13.762  17.933 -0.1399 -0.2080 -0.2001
63087DOD     C333082  20.040  13.767  17.934  0.0280  0.0609  0.0129
63088DOD     C133083  23.389   6.883  29.229  0.1907 -0.1437  0.2222
63088DOD     C233084  23.634   7.253  29.405 -0.0300 -0.1476  0.2085
63088DOD     C333085  23.395   7.167  29.805  0.0586 -0.0493 -0.1818
63089DOD     C133086  14.018  10.346  11.186 -0.1251  0.1629  0.2916
63089DOD     C233087  13.979  10.703  11.472  0.2950  0.0390  0.1505
63089DOD     C333088  13.849  11.149  11.484 -0.4445 -0.0614  0.0100
63090DOD     C133089  10.921  28.396   0.520  0.1163  0.1221  0.2462
63090DOD     C233090  10.674  28.039   0.327  0.1959 -0.1934 -0.0908
63090DOD     C333091  10.216  28.044   0.334  0.0630  0.0134 -0.0447
63091DOD     C133092  10.642  22.542  26.082 -0.4039  0.1985 -0.0934
63091DOD     C233093  11.023  22.739  25.996  0.0135 -0.0955  0.1150
63091DOD     C333094  11.293  23.055  26.145  0.0890  0.0975 -0.2990
63092DOD     C133095  27.331   9.659   6.855  0.2446 -0.0878 -0.0284
63092DOD     C233096  27.761   9.615   6.721  0.2600  0.1385  0.0732
63092DOD     C333097  27.971   9.433   6.330 -0.1628 -0.1481 -0.2614
63093DOD     C133098  23.741  23.024   7.974 -0.0664 -0.2455 -0.1083
63093DOD     C233099  24.035  23.294   8.199 -0.0791 -0.1178 -0.2630
63093DOD     C333100  24.428  23.192   8.467 -0.0731 -0.0697 -0.1148
63094DOD     C133101  29.500  16.169  24.951  0.0080  0.0902 -0.2920
63094DOD     C233102  29.261  15.914  24.626  0.0922  0.2247 -0.0925
63094DOD     C333103  29.206  15.713  24.237 -0.1711  0.1142  0.3799
63095DOD     C133104   2.391  25.401   3.421 -0.0481  0.2845 -0.6872
63095DOD     C233105   2.363  25.844   3.422  0.0980  0.0818  0.0538
63095DOD     C333106   2.713  26.160   3.546 -0.2300  0.0660  0.1237
63096DOD     C133107   0.509   0.621   2.387  0.2384 -0.3790 -0.1512
63096DOD     C233108   0.085   0.344   2.473  0.0345  0.2442  0.0055
63096DOD     C333109  29.967   0.201   2.579  0.4259  0.3007 -0.0917
63097DOD     C133110  29.080  14.554   9.642  0.6878 -0.3025  0.1117
63097DOD     C233111  28.723  14.318   9.830  0.3840  0.1163  0.1276
63097DOD     C333112  28.661  13.810   9.941 -0.4444  0.1148  0.0087
63098DOD     C133113  19.599  26.994   9.216  0.1066 -0.0431 -0.2413
63098DOD     C233114  19.658  26.765   8.859  0.1082  0.1384 -0.0942
63098DOD     C333115  19.765  26.437   8.531  0.1642  0.3142 -0.1425
63099DOD     C133116   2.975  10.439   1.858  0.0537  0.0902 -0.0486
63099DOD     C233117   2.996  10.120   1.467  0.1458 -0.3529 -0.3885
63099DOD     C333118   2.816   9.647   1.430  0.0461  0.0356 -0.2968
63100DOD     C133119   9.762   0.677  29.228 -0.2208 -0.0151 -0.0560
63100DOD     C233120   9.879   0.375  28.894  0.3081 -0.2500  0.0235
63100DOD     C333121   9.854   0.209  28.474 -0.0323 -0.0050  0.0874
63101DOD     C133122  27.569  14.881  22.741 -0.2420 -0.1250 -0.1027
63101DOD     C233123  27.757  15.139  23.071  0.0600 -0.3802  0.1117
63101DOD     C333124  27.921  15.020  23.543 -0.2310  0.2209 -0.0024
63102DOD     C133125   2.059   1.033  24.019 -0.0463  0.0062 -0.2846
63102DOD     C233126   1.960   1.292  24.398  0.1788 -0.1288  0.2237
63102DOD     C333127   2.072   1.474  24.783 -0.1375  0.0918  0.2054
63103DOD     C133128  20.958   5.799  19.301 -0.0559 -0.0363  0.2719
63103DOD     C233129  20.672   5.586  18.984 -0.1002  0.1628  0.0892
63103DOD     C333130  20.690   5.187  18.729 -0.1624 -0.0315  0.1519
63104DOD     C133131  21.840  24.917  25.365  0.0190  0.1077 -0.1792
63104DOD     C233132  22.059  24.554  25.608 -0.0955 -0.1264  0.2315
63104DOD     C333133  22.183  24.453  26.067  0.1605 -0.0595  0.1540
63105DOD     C133134  14.308  18.986  21.964 -0.0022 -0.1885  0.0905
63105DOD     C233135  13.996  18.788  22.175  0.0915 -0.0244  0.2106
63105DOD     C333136  13.666  18.724  22.539 -0.2319  0.3255  0.1320
63106DOD     C133137   7.982  13.827  19.789  0.1163 -0.4866  0.0010
63106DOD     C233138   7.696  13.627  20.090 -0.0450  0.0227  0.2460
63106DOD     C333139   7.402  13.708  20.434  0.0935 -0.0513  0.0949
63107DOD     C133140  27.202  26.022  25.332  0.0167 -0.0583  0.0050
63107DOD     C233141  27.237  25.754  24.963 -0.0502 -0.1208 -0.0427
63107DOD     C333142  27.488  25.469  24.785 -0.1242  0.2233 -0.0985
63108DOD     C133143  28.165   0.476  27.532 -0.1745  0.1063  0.1415
63108DOD     C233144  28.265   0.446  27.011  0.1085  0.1094  0.1348
63108DOD     C333145  28.247   0.250  26.577 -0.1080  0.0417  0.2177
63109DOD     C133146   4.504  13.485  10.712  0.0460 -0.0734 -0.1185
63109DOD     C233147   4.577  13.367  10.240 -0.0777 -0.0628 -0.1385
63109DOD     C333148   4.833  13.194   9.865  0.4415  0.1524 -0.1957
63110DOD     C133149  19.930  24.741   5.998 -0.1832 -0.2599 -0.3128
63110DOD     C233150  19.602  24.754   6.333  0.1743 -0.1912 -0.0616
63110DOD     C333151  19.400  25.122   6.634  0.2322  0.0603 -0.4222
63111DOD     C133152   6.205   7.441   2.472  0.1196  0.0468  0.0162
63111DOD     C233153   5.885   7.733   2.357  0.2215  0.0405  0.0154
63111DOD     C333154   5.618   8.152   2.282  0.0454 -0.1481 -0.2455
63112DOD     C133155  28.627  18.242  11.312  0.2861  0.1002 -0.0369
63112DOD     C233156  28.339  17.963  11.535 -0.2272  0.0122 -0.0776
63112DOD     C333157  27.945  17.779  11.454 -0.0864 -0.0558  0.1386
63113DOD     C133158  15.570  18.276  13.562  0.2022  0.1939 -0.2975
63113DOD     C233159  15.226  18.379  13.863  0.0960  0.2094  0.3065
63113DOD     C333160  15.073  18.201  14.241  0.2333  0.1540  0.0097
63114DOD     C133161  16.862   4.417  18.234  0.2569  0.0035  0.1845
63114DOD     C233162  16.954   4.672  17.834 -0.1475 -0.0441  0.0505
63114DOD     C333163  16.938   5.091  17.666  0.2269  0.2236  0.0540
63115DOD     C133164  24.783  16.059  17.457 -0.1422  0.0922 -0.0865
63115DOD     C233165  24.660  16.003  17.876 -0.0531 -0.0500 -0.0055
63115DOD     C333166  24.516  16.278  18.274 -0.1078 -0.1635  0.0443
63116DOD     C133167   9.489  22.389   6.298 -0.0740 -0.3400  0.0693
63116DOD     C233168   9.024  22.319   6.197  0.2273  0.0900  0.1610
63116DOD     C333169   8.604  22.507   6.166 -0.0743  0.3421  0.1975
63117DOD     C133170   8.069   6.785   3.520 -0.3446  0.0071  0.1832
63117DOD     C233171   8.294   6.821   3.905  0.0430  0.2555 -0.3125
63117DOD     C333172   8.496   6.495   4.152  0.0965 -0.0163  0.2478
63118DOD     C133173  23.375   2.648  18.752  0.1091  0.0233 -0.2429
63118DOD     C233174  22.861   2.658  18.736 -0.0857  0.2197 -0.1504
63118DOD     C333175  22.377   2.659  18.563  0.4958  0.3524 -0.0489
63119DOD     C133176   1.045  12.775  11.692  0.2268 -0.0410 -0.1720
63119DOD     C233177   1.407  13.072  11.676 -0.2653 -0.1248  0.2509
63119DOD     C333178   1.556  13.351  11.303 -0.0571  0.3338  0.1372
63120DOD     C133179   4.415  17.823   6.577  0.0004 -0.2587  0.3411
63120DOD     C233180   4.020  18.056   6.436 -0.2512  0.1867 -0.1574
63120DOD     C333181   3.766  18.375   6.669 -0.3321  0.0009  0.1134
63121DOD     C133182  11.283   5.962  28.086  0.1845  0.0864 -0.0649
63121DOD     C233183  11.100   5.692  27.700 -0.0840 -0.0254  0.2467
63121DOD     C333184  10.839   5.357  27.530  0.0493 -0.1236 -0.2134
63122DOD     C133185  24.184   0.161   5.155  0.0881  0.0414  0.1661
63122DOD     C233186  24.341   0.592   5.353 -0.0856 -0.1055  0.2207
63122DOD     C333187  24.706   0.848   5.067  0.0429  0.2179  0.0151
63123DOD     C133188  16.025   4.742   4.036  0.1671 -0.1169  0.3577
63123DOD     C233189  15.724   4.509   4.325 -0.0136  0.1962 -0.1542
63123DOD     C333190  15.384   4.222   4.159 -0.1717  0.2097  0.1216
63124DOD     C133191   0.787   2.558  17.739  0.1363  0.0625 -0.0610
63124DOD     C233192   1.000   2.157  17.609 -0.1331 -0.1878  0.2866
63124DOD     C333193   0.988   1.733  17.439  0.1100 -0.1519 -0.0177
63125DOD     C133194  11.122  17.874   1.301  0.1310  0.0950 -0.0500
63125DOD     C233195  11.396  18.041   0.987  0.0833  0.0960 -0.1399
63125DOD     C333196  11.619  18.309   0.676 -0.2574  0.0135 -0.2230
63126DOD     C133197  19.564   3.953   5.745 -0.1708  0.0725  0.0537
63126DOD     C233198  19.750   3.539   5.710  0.0646 -0.3031  0.2374
63126DOD     C333199  19.835   3.283   6.073 -0.0188 -0.0676  0.1737
63127DOD     C133200   0.754   4.692  13.013  0.2280 -0.0586 -0.3640
63127DOD     C233201   0.667   4.499  12.613  0.2402  0.0658  0.2035
63127DOD     C333202   0.989   4.381  12.257 -0.1483  0.0495  0.0481
63128DOD     C133203   2.750  28.002   1.865 -0.1333  0.4896  0.2093
63128DOD     C233204   2.743  27.677   2.220  0.0779 -0.2130 -0.1217
63128DOD     C333205   2.564  27.518   2.650 -0.1741  0.0108  0.0814
63129DOD     C133206  26.887  10.103  19.292  0.1126  0.1964  0.1404
63129DOD     C233207  26.612  10.057  19.580 -0.2903  0.3462 -0.1789
63129DOD     C333208  26.425  10.466  19.784 -0.1234 -0.3015 -0.0396
63130DOD     C133209  15.632  16.405  25.543 -0.0994 -0.1373 -0.2480
63130DOD     C233210  15.999  16.060  25.683  0.1428  0.2055  0.1266
63130DOD     C333211  16.383  15.858  25.671  0.1216 -0.0402 -0.1273
63131DOD     C133212  16.115  24.281  16.519  0.2552 -0.1324 -0.1815
63131DOD     C233213  16.147  24.465  16.140  0.1010 -0.0102  0.2815
63131DOD     C333214  16.415  24.801  15.952  0.0497 -0.2212  0.2861
63132DOD     C133215  17.794  26.484  18.754  0.1099 -0.0646 -0.1041
63132DOD     C233216  17.855  26.701  19.183 -0.0935  0.3014 -0.1925
63132DOD     C333217  18.280  26.721  19.358  0.2711 -0.2771 -0.0551
63133DOD     C133218   7.526  26.729  21.774 -0.0836 -0.2636 -0.2056
63133DOD     C233219   7.424  27.102  21.479 -0.2016 -0.0976 -0.1176
63133DOD     C333220   7.437  27.277  21.047  0.0518  0.2170  0.1849
63134DOD     C133221  11.544  13.088  10.908  0.0637 -0.2170 -0.0952
63134DOD     C233222  11.088  13.240  10.786 -0.0204  0.3039  0.3122
63134DOD     C333223  10.791  13.529  10.581 -0.0860  0.0484 -0.1183
63135DOD     C133224  28.979   9.220  15.674  0.1834  0.0915  0.2984
63135DOD     C233225  29.426   9.312  15.882 -0.1030  0.4002  0.2093
63135DOD     C333226  29.790   9.090  15.778  0.3398 -0.1509  0.1297
63136DOD     C133227  14.874  24.046  16.258 -0.0267 -0.2051  0.1304
63136DOD     C233228  14.711  24.496  16.139 -0.1167  0.0616 -0.1747
63136DOD     C333229  14.658  24.827  15.910  0.1591  0.0843 -0.1373
63137DOD     C133230  25.822   7.133   8.930 -0.0191  0.0760  0.1954
63137DOD     C233231  25.650   6.864   9.321 -0.0873 -0.1447 -0.1245
63137DOD     C333232  25.482   6.681   9.706  0.1533  0.0545  0.0428
63138DOD     C133233  16.211  22.670   1.061 -0.1535 -0.1532  0.0465
63138DOD     C233234  16.519  22.436   0.865 -0.2246 -0.0098 -0.0145
63138DOD     C333235  16.588  22.355   0.433  0.1628  0.1121 -0.1751
63139DOD     C133236  25.762  16.358  12.735 -0.0883  0.0024  0.0228
63139DOD     C233237  25.850  15.983  13.022  0.1163 -0.4039  0.1029
63139DOD     C333238  26.182  15.927  13.382 -0.0129  0.2246 -0.3937
63140DOD     C133239  12.307   5.153   0.496 -0.1517 -0.2689  0.0071
63140DOD     C233240  11.996   4.830   0.604 -0.1156 -0.1807 -0.0510
63140DOD     C333241  11.860   4.397   0.759  0.1524 -0.0804  0.0088
63141DOD     C133242  19.778   6.118   6.198  0.2383 -0.1473 -0.0000
63141DOD     C233243  19.513   5.962   6.519 -0.0372  0.1463 -0.1563
63141DOD     C333244  19.439   5.914   7.037 -0.1176 -0.0447  0.2061
63142DOD     C133245   2.315  10.587   6.400 -0.1692  0.0429 -0.2729
63142DOD     C233246   2.191  11.049   6.310  0.1247 -0.3598  0.2481
63142DOD     C333247   1.853  11.335   6.180 -0.2389  0.0343  0.3140
63143DOD     C133248   9.694  21.960   4.640 -0.1680  0.0561  0.0989
63143DOD     C233249   9.999  22.260   4.789  0.1600  0.1387  0.0538
63143DOD     C333250  10.149  22.105   5.210 -0.1231 -0.4090  0.2053
63144DOD     C133251  13.706   8.642  11.537 -0.0187 -0.2772  0.2228
63144DOD     C233252  14.051   8.385  11.642 -0.0778 -0.1512  0.1799
63144DOD     C333253  14.401   8.155  11.672 -0.0976  0.1504 -0.3580
63145DOD     C133254  27.315   4.958  21.374 -0.1991  0.2442 -0.2670
63145DOD     C233255  27.029   4.580  21.276 -0.2034 -0.0206 -0.1951
63145DOD     C333256  26.664   4.413  21.032  0.1003  0.2063 -0.4422
63146DOD     C133257  19.826  10.800  23.381 -0.1480 -0.0189  0.0767
63146DOD     C233258  20.096  10.773  22.989 -0.2030  0.0676 -0.2718
63146DOD     C333259  20.093  10.835  22.503  0.4258 -0.0033 -0.1336
63147DOD     C133260  25.629  29.966  19.599  0.1059  0.3026 -0.1441
63147DOD     C233261  26.028  29.809  19.540 -0.0002  0.1837 -0.2545
63147DOD     C333262  26.485  29.590  19.575 -0.1021 -0.1716  0.0889
63148DOD     C133263  19.277  17.708   9.696 -0.0859  0.2138 -0.1232
63148DOD     C233264  19.013  17.568  10.015 -0.2194 -0.1857  0.0871
63148DOD     C333265  18.822  17.154  10.225 -0.0493 -0.1528 -0.1090
63149DOD     C133266  12.395  14.520  11.972 -0.0464 -0.4207  0.2017
63149DOD     C233267  12.060  14.683  12.304  0.2001  0.0420  0.0860
63149DOD     C333268  11.612  14.724  12.490 -0.3130  0.2007 -0.1784
63150DOD     C133269  22.450  25.599  15.457 -0.2370 -0.2244 -0.0632
63150DOD     C233270  22.387  25.994  15.249 -0.0922  0.0116 -0.0305
63150DOD     C333271  22.425  26.348  15.014 -0.2803 -0.1070 -0.4451
63151DOD     C133272   6.785  21.095  25.480  0.0413  0.0775 -0.1886
63151DOD     C233273   6.549  20.756  25.252  0.1972 -0.1842 -0.1897
63151DOD     C333274   6.440  20.279  25.218 -0.1200  0.0478  0.0707
63152DOD     C133275  26.843  10.000  22.118 -0.0577 -0.1022 -0.0539
63152DOD     C233276  26.343  10.131  22.114  0.3674  0.3007 -0.1235
63152DOD     C333277  26.011   9.910  21.859  0.0881 -0.0285 -0.1920
63153DOD     C133278  13.462   6.507  24.842  0.1664  0.1103 -0.2138
63153DOD     C233279  13.852   6.287  25.081 -0.1139 -0.2462 -0.0470
63153DOD     C333280  13.902   5.845  25.207 -0.1169 -0.1197  0.1977
63154DOD     C133281   0.102  26.032  13.240  0.0741  0.3487 -0.2965
63154DOD     C233282   0.189  26.520  13.154 -0.0458  0.3065  0.0807
63154DOD     C333283   0.536  26.758  12.977 -0.0008  0.0594 -0.2599
63155DOD     C133284   2.632  20.581  21.612 -0.1035 -0.0926  0.0419
63155DOD     C233285   2.458  20.149  21.613 -0.1874 -0.3793 -0.1693
63155DOD     C333286   2.470  19.686  21.717  0.3545 -0.2210 -0.0546
63156DOD     C133287  22.079  11.976  23.262 -0.1426  0.0273 -0.3275
63156DOD     C233288  22.078  11.631  23.542  0.2866 -0.3104  0.0968
63156DOD     C333289  22.258  11.382  23.867  0.2936 -0.0352  0.0271
63157DOD     C133290  10.421   3.655  13.469 -0.0371  0.1589  0.2838
63157DOD     C233291  10.172   4.068  13.505 -0.0532 -0.1795 -0.0216
63157DOD     C333292  10.002   4.421  13.220 -0.0740  0.1279 -0.0410
63158DOD     C133293  22.103  23.450  14.140  0.2998 -0.1697  0.0547
63158DOD     C233294  21.623  23.527  14.085  0.1839  0.1397 -0.0037
63158DOD     C333295  21.450  23.936  14.023  0.1328  0.2475 -0.2843
63159DOD     C133296  27.135   4.626  22.065 -0.1197  0.0216  0.2346
63159DOD     C233297  26.768   4.804  22.268 -0.0613 -0.2904 -0.1338
63159DOD     C333298  26.361   4.804  22.513 -0.1507 -0.2316 -0.0492
63160DOD     C133299  20.459  25.515  21.696 -0.3483  0.0263 -0.0321
63160DOD     C233300  20.037  25.619  21.482 -0.0978 -0.0844  0.1408
63160DOD     C333301  19.892  25.841  21.109 -0.1499  0.0434 -0.0241
63161DOD     C133302   3.889  23.802  24.561 -0.0758 -0.2111 -0.0689
63161DOD     C233303   4.184  24.065  24.329  0.4566 -0.0042  0.0045
63161DOD     C333304   4.529  24.380  24.290  0.1271 -0.1400  0.0162
63162DOD     C133305  12.385  17.341  22.480  0.1984 -0.0399  0.0021
63162DOD     C233306  11.942  17.248  22.578  0.1957 -0.0051 -0.0790
63162DOD     C333307  11.514  17.239  22.804  0.2722  0.2421 -0.1927
63163DOD     C133308   8.105   6.222   0.759 -0.0256  0.4600 -0.0380
63163DOD     C233309   7.723   5.964   0.645 -0.0269 -0.0040  0.2633
63163DOD     C333310   7.303   6.065   0.637 -0.1460  0.2743  0.0684
63164DOD     C133311  11.297  20.265  19.117 -0.1767 -0.0976  0.0922
63164DOD     C233312  11.379  19.822  19.234 -0.0331 -0.0684 -0.0884
63164DOD     C333313  11.196  19.494  19.475 -0.1785 -0.0807  0.1428
63165DOD     C133314  18.848  19.697  19.407 -0.0660  0.2896  0.3141
63165DOD     C233315  19.056  20.146  19.490 -0.0538 -0.2736  0.1246
63165DOD     C333316  19.504  20.344  19.405  0.0994 -0.1122 -0.0550
63166DOD     C133317  23.804  14.750  24.139 -0.0684 -0.0416  0.0494
63166DOD     C233318  24.210  14.950  24.028  0.3016 -0.3231 -0.3160
63166DOD     C333319  24.559  14.719  23.807  0.0814 -0.2271  0.3596
63167DOD     C133320  18.861   7.544  27.154  0.0631  0.0914 -0.0959
63167DOD     C233321  19.159   7.259  27.389 -0.1013 -0.2905  0.0365
63167DOD     C333322  19.151   6.791  27.423 -0.1709 -0.3280  0.1103
63168DOD     C133323  26.790  11.271  14.315 -0.0710  0.0199 -0.3411
63168DOD     C233324  26.467  11.086  14.588 -0.1085 -0.0370 -0.1860
63168DOD     C333325  26.228  10.881  14.902  0.2037 -0.1854  0.0036
63169DOD     C133326  16.837   1.958  24.832  0.0597 -0.0269  0.5963
63169DOD     C233327  16.459   1.821  25.053  0.3229 -0.1654 -0.2678
63169DOD     C333328  16.105   1.776  25.370 -0.2729  0.1856  0.0995
63170DOD     C133329  12.614  29.872  19.652 -0.2002  0.2813  0.1429
63170DOD     C233330  12.849  29.466  19.740  0.0743 -0.0011  0.2807
63170DOD     C333331  13.249  29.196  19.558 -0.2860 -0.2334 -0.1134
63171DOD     C133332  28.594  12.058   5.928 -0.4551  0.3353  0.2676
63171DOD     C233333  28.161  12.285   6.119  0.0457  0.3038 -0.0067
63171DOD     C333334  28.124  12.669   6.437 -0.1108  0.0564  0.0925
63172DOD     C133335  15.304  17.317  16.182 -0.1927 -0.1775  0.1432
63172DOD     C233336  15.713  17.581  16.094 -0.1636  0.1025  0.0086
63172DOD     C333337  15.879  17.970  15.915  0.2002 -0.0825 -0.1301
63173DOD     C133338  16.295  29.593   3.427  0.0529 -0.0910 -0.2548
63173DOD     C233339  16.631  29.401   3.208  0.0373  0.0545 -0.1133
63173DOD     C333340  16.959  29.143   3.084  0.2864  0.0342  0.0543
63174DOD     C133341   2.070   4.767  18.750 -0.2540 -0.2243 -0.1401
63174DOD     C233342   2.343   4.968  19.064 -0.1147  0.3047 -0.0910
63174DOD     C333343   2.769   5.064  19.189 -0.3212  0.0449  0.2425
63175DOD     C133344  27.811  23.193  30.046 -0.3688 -0.0406 -0.0219
63175DOD     C233345  27.940  22.764  30.166  0.3866  0.1146 -0.0709
63175DOD     C333346  27.941  22.592   0.227  0.0906 -0.0490  0.0647
63176DOD     C133347   7.662  26.535  25.958  0.0521 -0.0206  0.0119
63176DOD     C233348   7.741  26.141  26.281  0.0000 -0.0346 -0.3417
63176DOD     C333349   7.618  25.743  26.514 -0.0161  0.0340 -0.1162
63177DOD     C133350  28.729  10.244   6.748  0.0407  0.0352  0.1745
63177DOD     C233351  28.954  10.143   7.133  0.0082  0.0333 -0.2610
63177DOD     C333352  29.064   9.799   7.406  0.0081 -0.1898  0.2037
63178DOD     C133353  30.129  13.914  22.341  0.2270 -0.0050  0.1356
63178DOD     C233354   0.116  13.573  22.314 -0.0332  0.1008 -0.1971
63178DOD     C333355   0.539  13.753  22.196  0.1472 -0.0108  0.1598
63179DOD     C133356   8.849  27.107  27.220  0.1779  0.1147 -0.1439
63179DOD     C233357   8.581  27.230  26.829 -0.3938  0.1749 -0.4079
63179DOD     C333358   8.611  27.478  26.452  0.0397 -0.1180  0.0120
63180DOD     C133359  14.350  15.695  10.806  0.2177 -0.1435  0.3294
63180DOD     C233360  14.182  15.761  10.397 -0.1397  0.2956  0.0229
63180DOD     C333361  14.337  15.880   9.936  0.1598  0.0265 -0.2402
63181DOD     C133362  11.974  15.141  23.162 -0.0321 -0.2303 -0.1523
63181DOD     C233363  11.683  14.966  22.818  0.1322 -0.1473  0.0812
63181DOD     C333364  11.602  15.230  22.505  0.0394  0.0465 -0.2038
63182DOD     C133365  15.055  11.403  26.759 -0.0316 -0.3740 -0.1138
63182DOD     C233366  15.112  10.956  26.659 -0.0955  0.0607 -0.0247
63182DOD     C333367  15.102  10.605  26.258 -0.1186 -0.3913  0.3223
63183DOD     C133368   0.099  15.236  28.505 -0.0997 -0.0744 -0.1727
63183DOD     C233369  30.029  15.401  28.802 -0.1031  0.0102 -0.1161
63183DOD     C333370  29.603  15.232  28.733  0.0423 -0.0300  0.2134
63184DOD     C133371   7.633  20.829  11.705 -0.0345 -0.1861  0.1570
63184DOD     C233372   7.738  20.412  11.502 -0.1952  0.3021  0.0574
63184DOD     C333373   7.756  20.181  11.092  0.0321  0.0627  0.0670
63185DOD     C133374  28.974   0.088  29.522 -0.0672 -0.0520  0.2394
63185DOD     C233375  28.770   0.212  29.862  0.2943  0.0558 -0.1940
63185DOD     C333376  28.687   0.587  30.126 -0.2290  0.4531  0.2521
63186DOD     C133377   0.362   0.426   0.185 -0.0225 -0.1991  0.1481
63186DOD     C233378   0.692   0.588  30.192  0.2201  0.2288 -0.0672
63186DOD     C333379   0.907   0.869  29.856 -0.1253 -0.0274 -0.0536
63187DOD     C133380  25.960  15.635  27.396 -0.0113 -0.1007  0.1731
63187DOD     C233381  25.710  15.314  27.193 -0.0093 -0.1257 -0.2731
63187DOD     C333382  25.330  15.169  27.036  0.3427 -0.0093  0.0778
63188DOD     C133383  25.838  27.877  19.672  0.5970  0.0112 -0.1197
63188DOD     C233384  25.390  27.672  19.572  0.3995  0.1457 -0.0847
63188DOD     C333385  24.920  27.658  19.546 -0.3078  0.0607 -0.1244
63189DOD     C133386  24.164  26.360  20.821 -0.1563 -0.0820  0.3442
63189DOD     C233387  23.974  26.389  21.220  0.0483 -0.2048 -0.0622
63189DOD     C333388  23.796  26.677  21.551  0.1042  0.1350 -0.3029
63190DOD     C133389   3.059   6.777  12.399 -0.0532 -0.0682  0.2417
63190DOD     C233390   3.255   6.360  12.476  0.1057  0.1018  0.2660
63190DOD     C333391   3.667   6.300  12.665 -0.2783 -0.1264  0.0644
63191DOD     C133392  29.914  25.392  14.771 -0.0813 -0.3601 -0.2895
63191DOD     C233393  29.476  25.409  15.013 -0.2005 -0.0254 -0.0062
63191DOD     C333394  29.023  25.361  14.964  0.1925  0.2687  0.1855
63192DOD     C133395  15.164   9.005  24.392  0.1679  0.0835 -0.1201
63192DOD     C233396  15.346   9.280  24.164 -0.1866 -0.0326  0.1373
63192DOD     C333397  15.365   9.347  23.699 -0.1522 -0.0741  0.2582
63193DOD     C133398  26.636  15.823  18.350 -0.2243 -0.2762  0.0154
63193DOD     C233399  26.948  15.904  18.060  0.2810 -0.2377  0.2669
63193DOD     C333400  27.031  15.847  17.587 -0.0223 -0.0796 -0.1277
63194DOD     C133401  23.014  21.123  23.276  0.2554  0.0378 -0.0954
63194DOD     C233402  23.217  21.411  23.539  0.1939 -0.1027 -0.0128
63194DOD     C333403  23.219  21.498  23.988 -0.1614 -0.0301 -0.0132
63195DOD     C133404  24.963  13.573   1.117 -0.0386 -0.0020 -0.3135
63195DOD     C233405  25.188  13.877   0.825  0.3979 -0.2137  0.0180
63195DOD     C333406  25.662  13.981   0.740  0.0368 -0.1678 -0.0323
63196DOD     C133407  23.764  22.045  16.200  0.1488 -0.0599 -0.0735
63196DOD     C233408  23.518  21.684  16.082 -0.1179 -0.0958 -0.1047
63196DOD     C333409  23.138  21.508  16.253  0.2167 -0.3260 -0.1366
63197DOD     C133410  19.832  10.472   3.900  0.0418 -0.3288  0.0316
63197DOD     C233411  20.000  10.060   3.768 -0.1919  0.2277 -0.0800
63197DOD     C333412  20.195   9.801   3.445  0.0672  0.1541 -0.0852
63198DOD     C133413  30.299  21.795  18.513  0.2631  0.0329 -0.0980
63198DOD     C233414  29.981  21.514  18.280  0.1260 -0.1972 -0.3105
63198DOD     C333415  29.825  21.281  17.870  0.0082  0.2148 -0.0101
63199DOD     C133416   7.832  12.012   8.801  0.0906  0.1543 -0.2935
63199DOD     C233417   7.936  11.634   8.585  0.3810 -0.1975  0.0734
63199DOD     C333418   7.816  11.160   8.804 -0.0749 -0.0612  0.1367
63200DOD     C133419   8.235   8.599  24.889  0.0252 -0.1316  0.0700
63200DOD     C233420   8.250   8.170  24.710  0.0187 -0.1257  0.0493
63200DOD     C333421   8.177   7.958  24.255  0.0664  0.0411 -0.3109
63201DOD     C133422  25.977  28.654  11.925  0.0855  0.0008 -0.0435
63201DOD     C233423  25.944  28.210  11.799  0.0903  0.0635 -0.0526
63201DOD     C333424  26.356  27.911  11.687  0.2411 -0.0533 -0.0087
63202DOD     C133425  25.870  26.401  23.981  0.0248 -0.2420  0.0062
63202DOD     C233426  25.953  26.601  23.630  0.0765 -0.1305 -0.0877
63202DOD     C333427  25.928  26.991  23.328  0.2413  0.1417 -0.2721
63203DOD     C133428   5.409   7.609  23.201  0.0638 -0.0106  0.0626
63203DOD     C233429   5.012   7.620  22.923  0.0005 -0.0957 -0.1093
63203DOD     C333430   4.958   7.531  22.486 -0.0302  0.0816  0.5887
63204DOD     C133431  19.969   4.319  17.584 -0.0424 -0.1452  0.0670
63204DOD     C233432  19.888   4.847  17.654 -0.1266  0.1662  0.0390
63204DOD     C333433  20.125   5.040  18.071  0.0731  0.0903  0.3259
63205DOD     C133434  13.724  26.817  23.198  0.2026 -0.0639 -0.1062
63205DOD     C233435  14.112  26.691  22.997  0.1123  0.2612 -0.0824
63205DOD     C333436  14.442  26.392  23.115 -0.0500 -0.3857  0.0610
63206DOD     C133437   6.037  10.986   4.531  0.2004 -0.0457  0.1497
63206DOD     C233438   6.042  10.530   4.619 -0.1396  0.2079 -0.0787
63206DOD     C333439   5.980  10.127   4.443 -0.0995 -0.2324  0.4589
63207DOD     C133440  27.679  26.672   6.632 -0.2537 -0.1242  0.2035
63207DOD     C233441  27.312  26.872   6.865 -0.1368 -0.0525 -0.4178
63207DOD     C333442  27.227  27.249   7.093  0.1039  0.1841  0.0520
63208DOD     C133443   3.570  12.612   4.175 -0.0629 -0.0304 -0.0663
63208DOD     C233444   3.816  12.834   3.848  0.1618 -0.1290 -0.1133
63208DOD     C333445   4.284  12.859   3.887 -0.2471 -0.1249 -0.1107
63209DOD     C133446  25.632  23.276  15.265  0.0323  0.1824 -0.3766
63209DOD     C233447  25.465  23.297  14.800  0.1612  0.1445 -0.0578
63209DOD     C333448  25.264  22.929  14.612  0.1462 -0.3415  0.0184
63210DOD     C133449  12.697  25.684  16.091 -0.0986 -0.0042 -0.0216
63210DOD     C233450  12.569  25.543  16.577  0.0256 -0.2387 -0.0184
63210DOD     C333451  12.260  25.341  16.931 -0.1929 -0.1589 -0.0666
63211DOD     C133452  22.176  26.709  10.843 -0.2880 -0.0899  0.1433
63211DOD     C233453  21.905  27.110  10.742  0.1966  0.2084 -0.0569
63211DOD     C333454  21.571  27.398  10.691  0.0807  0.0809 -0.1428
63212DOD     C133455  15.806   8.035  15.318 -0.0957  0.1024  0.1734
63212DOD     C233456  16.231   7.938  15.460  0.1354  0.3633  0.0816
63212DOD     C333457  16.499   8.000  15.841 -0.1546  0.1840 -0.0428
63213DOD     C133458  16.919  28.328  17.088  0.2462  0.0407  0.2002
63213DOD     C233459  16.525  28.278  17.320 -0.0303  0.2034 -0.1799
63213DOD     C333460  16.103  28.416  17.477  0.0774 -0.0095  0.1657
63214DOD     C133461  14.386  28.348  16.594 -0.1247  0.0102  0.1933
63214DOD     C233462  14.589  27.925  16.774  0.3544  0.2464  0.0332
63214DOD     C333463  14.949  27.733  16.511  0.1180 -0.1165  0.1668
63215DOD     C133464  14.654   5.979   2.970  0.3029 -0.0065  0.1208
63215DOD     C233465  14.547   6.230   2.523  0.2475 -0.1753  0.1218
63215DOD     C333466  14.225   6.561   2.443 -0.0338  0.2854 -0.1480
63216DOD     C133467   3.244  27.892  24.427 -0.0190 -0.2396  0.1223
63216DOD     C233468   3.618  27.790  24.637  0.3231 -0.2624  0.0882
63216DOD     C333469   3.922  28.064  24.917  0.3440 -0.1154 -0.0810
63217DOD     C133470  20.600  29.587  25.233  0.1348 -0.1264  0.2118
63217DOD     C233471  20.979  29.673  24.960  0.0085 -0.1415 -0.2535
63217DOD     C333472  21.368  29.722  25.163  0.1499 -0.2971 -0.1585
63218DOD     C133473   9.431  12.571  15.485 -0.3042  0.0329  0.0579
63218DOD     C233474   9.426  12.617  15.032 -0.2004  0.4123 -0.3194
63218DOD     C333475   9.506  12.792  14.596 -0.1636 -0.1872  0.0306
63219DOD     C133476  28.764  19.128  10.872  0.0720 -0.1546  0.1293
63219DOD     C233477  28.902  19.570  10.651 -0.3159  0.0715 -0.1549
63219DOD     C333478  29.316  19.737  10.450 -0.6023  0.1501  0.1332
63220DOD     C133479   7.207  22.706  16.786 -0.0539  0.2780  0.0249
63220DOD     C233480   7.030  22.897  16.392  0.0911  0.1052 -0.1621
63220DOD     C333481   6.959  22.828  15.925  0.1746  0.3339 -0.0432
63221DOD     C133482  29.335  24.315   8.833  0.1489 -0.0472  0.0025
63221DOD     C233483  29.340  24.606   9.188  0.0756  0.0337 -0.2281
63221DOD     C333484  29.259  25.035   9.349 -0.1910 -0.0902 -0.1047
63222DOD     C133485   1.594   4.278  16.150  0.4411  0.3307 -0.0159
63222DOD     C233486   1.670   4.324  15.709 -0.0305 -0.0378  0.4033
63222DOD     C333487   1.971   4.116  15.394  0.0990 -0.0429 -0.0894
63223DOD     C133488   4.736  11.798   4.750  0.1444 -0.0985 -0.0829
63223DOD     C233489   4.458  11.761   4.351  0.1624  0.0951 -0.1801
63223DOD     C333490   4.194  11.655   3.996 -0.1205  0.1564 -0.0242
63224DOD     C133491   6.585  14.839  14.176  0.0738 -0.1715 -0.2171
63224DOD     C233492   6.499  14.697  13.719 -0.1161  0.1806  0.0420
63224DOD     C333493   6.589  14.331  13.534 -0.0104 -0.2190 -0.0826
63225DOD     C133494  14.956  16.269   4.148  0.2040 -0.1515  0.0165
63225DOD     C233495  15.415  16.166   4.130  0.1712  0.2690  0.0282
63225DOD     C333496  15.710  16.529   4.221 -0.1824 -0.0449  0.0780
63226DOD     C133497  29.341  14.007   7.671  0.0818 -0.2750  0.0428
63226DOD     C233498  28.931  13.929   7.460 -0.2633 -0.2869  0.1629
63226DOD     C333499  28.647  13.761   7.118  0.0982  0.0919  0.0786
63227DOD     C133500   0.595  12.196  30.250  0.1225 -0.1132 -0.0235
63227DOD     C233501   0.869  11.815  30.211 -0.2683  0.0525  0.1127
63227DOD     C333502   0.732  11.365   0.027  0.0880 -0.0694 -0.2677
63228DOD     C133503  28.178  18.957   0.664  0.1038 -0.0378  0.1216
63228DOD     C233504  27.997  19.441   0.661  0.2535  0.0855 -0.1197
63228DOD     C333505  27.886  19.917   0.569 -0.1568  0.0081 -0.1498
63229DOD     C133506  20.239   2.569  17.441  0.1344 -0.1811  0.1234
63229DOD     C233507  20.285   2.846  17.071  0.1244  0.0890  0.1924
63229DOD     C333508  20.422   3.163  16.748  0.0099  0.0076  0.1106
63230DOD     C133509  27.718  21.675   6.588 -0.1051 -0.2267  0.0837
63230DOD     C233510  27.469  22.058   6.386  0.2600 -0.2705  0.0270
63230DOD     C333511  27.161  22.386   6.290  0.1962 -0.1160  0.0727
63231DOD     C133512  24.483   8.549  15.824 -0.1534  0.1348 -0.2113
63231DOD     C233513  24.860   8.791  15.867  0.0168  0.0437  0.1201
63231DOD     C333514  25.309   8.933  15.994  0.0075  0.2270  0.2684
63232DOD     C133515   4.980  23.074  26.720  0.3443 -0.0405 -0.2062
63232DOD     C233516   4.809  23.492  26.539  0.1606 -0.2923  0.0123
63232DOD     C333517   4.608  23.824  26.251 -0.0818  0.1068  0.1406
63233DOD     C133518  11.965   9.818  13.391 -0.2372 -0.2105  0.2026
63233DOD     C233519  12.360  10.112  13.337 -0.0885  0.0127  0.3616
63233DOD     C333520  12.854  10.054  13.269  0.2364 -0.0690 -0.1052
63234DOD     C133521  30.183  17.466  12.798 -0.0008 -0.4279  0.2965
63234DOD     C233522  29.966  17.889  12.842  0.1697  0.1515 -0.4016
63234DOD     C333523  30.095  18.332  13.028 -0.3264  0.2559  0.0846
63235DOD     C133524   1.711   2.611  12.264 -0.0973  0.0872  0.0357
63235DOD     C233525   1.949   2.340  12.499 -0.0252  0.0895  0.2363
63235DOD     C333526   1.850   1.890  12.617 -0.1658 -0.0910  0.0176
63236DOD     C133527  19.060   1.873   1.323  0.1820 -0.0856  0.3298
63236DOD     C233528  19.038   1.458   1.433 -0.0654 -0.3844 -0.2793
63236DOD     C333529  18.901   1.122   1.765 -0.3900 -0.1993  0.0970
63237DOD     C133530   4.560  26.914  29.926 -0.1744  0.3296  0.0499
63237DOD     C233531   4.156  26.967  30.187  0.2292  0.1789  0.1918
63237DOD     C333532   3.913  26.856   0.265  0.2853 -0.1080 -0.0701
63238DOD     C133533   6.047  25.323  20.941 -0.3122  0.0814  0.0525
63238DOD     C233534   5.692  25.259  20.611  0.0765  0.1087  0.0962
63238DOD     C333535   5.418  24.973  20.274 -0.1471 -0.2474  0.1115
63239DOD     C133536  17.877  11.804  16.834 -0.1260  0.0542  0.2246
63239DOD     C233537  18.150  12.096  17.085  0.1223  0.3761  0.2251
63239DOD     C333538  18.263  12.412  17.282 -0.1156 -0.1593 -0.2683
63240DOD     C133539  21.721  15.753  11.490 -0.0506 -0.2333 -0.4602
63240DOD     C233540  21.326  15.646  11.326  0.0312 -0.1467  0.1834
63240DOD     C333541  21.204  15.362  11.020 -0.1783  0.1701  0.0321
63241DOD     C133542  24.413  20.521  25.720  0.1994  0.3261  0.0959
63241DOD     C233543  24.733  20.595  25.391 -0.2340 -0.1483  0.3638
63241DOD     C333544  24.722  20.574  24.909  0.2316  0.1486  0.0514
63242DOD     C133545  28.605  10.512  26.782  0.2301  0.0353 -0.0378
63242DOD     C233546  28.888  10.399  27.073 -0.3457 -0.1297  0.1296
63242DOD     C333547  29.139  10.188  27.452 -0.0210 -0.0854  0.1309
63243DOD     C133548   4.665  21.833  12.456  0.0198  0.0944  0.6450
63243DOD     C233549   5.041  22.109  12.303  0.2112  0.2201  0.1820
63243DOD     C333550   5.452  22.016  12.092  0.0084 -0.0223  0.1670
63244DOD     C133551   3.506  23.251   9.385 -0.0712 -0.2362  0.0867
63244DOD     C233552   3.868  22.884   9.324  0.2943  0.0209  0.0469
63244DOD     C333553   4.250  22.531   9.223 -0.0613 -0.0021 -0.2341
63245DOD     C133554   1.767  22.784  15.723 -0.4179  0.2620  0.0376
63245DOD     C233555   2.065  22.562  16.023  0.1959  0.1526  0.3629
63245DOD     C333556   1.984  22.154  16.204 -0.0221  0.2187  0.0214
63246DOD     C133557  13.594   4.641   0.176  0.1796  0.2333  0.0073
63246DOD     C233558  13.233   4.478  30.306  0.3147  0.1043  0.1078
63246DOD     C333559  12.847   4.343  30.071 -0.2736  0.2251 -0.0707
63247DOD     C133560   3.621  11.187   3.681  0.0074  0.0516 -0.2141
63247DOD     C233561   3.991  11.122   3.920 -0.0926  0.1774  0.3130
63247DOD     C333562   4.388  10.940   4.056  0.1660  0.3303 -0.0318
63248DOD     C133563  18.400   4.546  20.000 -0.1041 -0.3465  0.1044
63248DOD     C233564  18.865   4.612  20.105  0.2166  0.2106  0.0982
63248DOD     C333565  19.296   4.678  20.031  0.0486  0.0111  0.3602
63249DOD     C133566   9.774  26.507  17.752 -0.0462 -0.0439 -0.0050
63249DOD     C233567  10.130  26.649  17.740 -0.1441  0.0816 -0.0618
63249DOD     C333568  10.383  26.901  18.053 -0.1232 -0.1877 -0.3024
63250DOD     C133569   7.507  27.486   3.555 -0.1941 -0.1023  0.1341
63250DOD     C233570   7.525  27.857   3.239  0.2233  0.0572  0.1580
63250DOD     C333571   7.548  28.030   2.815  0.0444  0.0849  0.0917
63251DOD     C133572   3.873  22.600  20.283 -0.1339  0.0875  0.1856
63251DOD     C233573   3.808  22.194  20.632 -0.0539 -0.2064  0.2134
63251DOD     C333574   3.718  22.222  21.072  0.0435 -0.0373 -0.0313
63252DOD     C133575  30.179   9.429  10.148 -0.4846  0.0073 -0.2298
63252DOD     C233576  29.730   9.643  10.272  0.0785 -0.1959 -0.0570
63252DOD     C333577  29.303   9.748  10.214 -0.0805  0.0092  0.1316
63253DOD     C133578  27.926  17.437  24.470  0.1767  0.0929 -0.0578
63253DOD     C233579  28.168  17.283  24.098 -0.0094  0.0909 -0.3070
63253DOD     C333580  28.473  17.336  23.819  0.0362  0.0420  0.1107
63254DOD     C133581  24.695   8.529  13.024  0.0448 -0.3374 -0.1418
63254DOD     C233582  24.824   8.044  13.000  0.3364  0.2751 -0.1157
63254DOD     C333583  24.988   7.617  13.086  0.3865 -0.0425  0.1177
63255DOD     C133584  10.126  17.650   3.256 -0.2917 -0.2245  0.0140
63255DOD     C233585   9.779  17.517   3.011 -0.0654  0.0341  0.0212
63255DOD     C333586   9.341  17.367   2.821  0.1173  0.1797  0.1952
63256DOD     C133587  12.765  26.602  11.299  0.0908 -0.2004 -0.0786
63256DOD     C233588  12.859  26.391  11.719 -0.0356 -0.0287 -0.0358
63256DOD     C333589  12.720  26.626  12.089  0.0007 -0.1212 -0.0914
63257DOD     C133590  27.309  19.374   9.905  0.0285 -0.1174  0.1214
63257DOD     C233591  27.066  18.974   9.770  0.1964 -0.2564 -0.1005
63257DOD     C333592  26.647  18.822   9.919  0.0924 -0.1257 -0.0916
63258DOD     C133593  27.464  17.732   0.285 -0.1049  0.2348 -0.0327
63258DOD     C233594  27.129  17.912   0.039  0.1708 -0.2311 -0.2345
63258DOD     C333595  26.894  18.144  30.049 -0.2360 -0.4283 -0.0605
63259DOD     C133596   0.442  13.229  18.421  0.1561 -0.3959 -0.0628
63259DOD     C233597   0.498  13.327  18.867  0.0269 -0.0206 -0.0036
63259DOD     C333598   0.660  13.258  19.295 -0.2972  0.0621 -0.0503
63260DOD     C133599  11.391  26.937  14.801  0.0993  0.0813 -0.0632
63260DOD     C233600  11.250  27.383  14.819  0.1366  0.1349 -0.1429
63260DOD     C333601  10.954  27.737  14.681  0.1584  0.1024  0.0391
63261DOD     C133602   2.143  25.740   0.192 -0.1021  0.2526 -0.0255
63261DOD     C233603   1.981  25.953  30.134  0.0945 -0.0218 -0.3047
63261DOD     C333604   1.667  26.198  29.937  0.0050  0.3076 -0.0726
63262DOD     C133605   2.579   7.019  29.166  0.0129 -0.0322 -0.2208
63262DOD     C233606   2.849   7.136  29.565 -0.0778  0.2266 -0.0817
63262DOD     C333607   2.944   6.994  29.976  0.0279  0.0037  0.0678
63263DOD     C133608  16.582  29.251  23.090  0.2056  0.2070 -0.1595
63263DOD     C233609  16.948  29.026  22.872 -0.3366 -0.1497  0.2590
63263DOD     C333610  17.033  28.574  22.862 -0.0305 -0.2654 -0.2122
63264DOD     C133611  10.743  27.489  22.533  0.0264  0.1311 -0.3837
63264DOD     C233612  11.126  27.639  22.777  0.1688 -0.0003 -0.2588
63264DOD     C333613  11.385  27.921  23.051  0.0404  0.3772  0.0150
63265DOD     C133614  11.800  16.076  12.014  0.1860 -0.1314  0.3444
63265DOD     C233615  12.134  15.879  12.180 -0.2467 -0.0143 -0.1418
63265DOD     C333616  12.263  15.474  12.203  0.1890 -0.1280  0.2568
63266DOD     C133617  11.939  29.090   1.144  0.3117  0.0710  0.1808
63266DOD     C233618  12.023  29.412   1.532 -0.0474  0.1750  0.1325
63266DOD     C333619  11.903  29.729   1.901  0.0081  0.1229 -0.0553
63267DOD     C133620  18.356  13.303  18.314 -0.0780 -0.0215 -0.0657
63267DOD     C233621  18.204  13.475  17.914  0.0727 -0.1096  0.0455
63267DOD     C333622  17.956  13.688  17.576  0.1883 -0.2001 -0.1278
63268DOD     C133623  26.969  10.391  24.965 -0.0963 -0.0999 -0.2185
63268DOD     C233624  27.247  10.702  24.722  0.2184  0.1758  0.1988
63268DOD     C333625  27.529  11.106  24.661  0.0172 -0.3464  0.0948
63269DOD     C133626  18.346  20.647  29.869 -0.0187 -0.1644 -0.1258
63269DOD     C233627  18.359  20.381  29.482  0.2368  0.2779 -0.1606
63269DOD     C333628  18.738  20.208  29.441 -0.2796 -0.0279  0.0874
63270DOD     C133629  22.464  26.586   6.499  0.4715  0.0606 -0.0040
63270DOD     C233630  22.652  26.865   6.864  0.0795  0.3793 -0.3214
63270DOD     C333631  23.040  27.097   6.811 -0.3288 -0.0221 -0.0483
63271DOD     C133632   9.863  20.676  14.387  0.0286  0.1119 -0.0961
63271DOD     C233633   9.520  20.817  14.220 -0.0132  0.1925 -0.0843
63271DOD     C333634   9.054  20.749  14.068  0.0605 -0.0714  0.3349
63272DOD     C133635  26.851   8.394  22.452 -0.1150 -0.0248  0.1572
63272DOD     C233636  26.524   8.688  22.459 -0.3014  0.3120  0.2598
63272DOD     C333637  26.370   9.093  22.287 -0.2080  0.1278 -0.0502
63273DOD     C133638   9.788  26.651  15.217 -0.2143 -0.0088  0.2490
63273DOD     C233639  10.283  26.412  15.277  0.0735 -0.1118 -0.0069
63273DOD     C333640  10.677  26.328  15.028 -0.1352 -0.0311 -0.3465
63274DOD     C133641  20.372  10.532  24.431  0.2715  0.0170 -0.0491
63274DOD     C233642  19.973  10.485  24.651 -0.0934  0.1794 -0.2664
63274DOD     C333643  19.833  10.362  25.067  0.4194 -0.0818  0.3327
63275DOD     C133644  21.676   2.787  19.935 -0.1344  0.1326  0.0485
63275DOD     C233645  22.072   2.936  20.049 -0.0764 -0.2902 -0.0694
63275DOD     C333646  22.442   2.940  20.310 -0.2097 -0.1813  0.0265
63276DOD     C133647   2.022  12.259   8.311  0.0553  0.1432 -0.1766
63276DOD     C233648   1.694  12.592   8.243  0.0587 -0.2412 -0.0076
63276DOD     C333649   1.601  12.978   7.997  0.0791 -0.0277  0.2577
63277DOD     C133650  21.279  28.952  21.527 -0.2490  0.0844 -0.0471
63277DOD     C233651  21.260  29.368  21.674 -0.0442 -0.0148  0.0561
63277DOD     C333652  21.119  29.747  21.883 -0.0282  0.0187  0.0483
63278DOD     C133653   7.948  21.632  21.221 -0.1319 -0.1795  0.2155
63278DOD     C233654   7.571  21.433  21.359  0.6602  0.2361  0.1264
63278DOD     C333655   7.156  21.163  21.271 -0.2040 -0.1053  0.1759
63279DOD     C133656   2.226   5.969  13.019  0.0531  0.0970  0.2242
63279DOD     C233657   2.339   6.238  12.611  0.1794  0.0086  0.1990
63279DOD     C333658   2.757   6.388  12.485 -0.1122 -0.1448  0.1182
63280DOD     C133659   3.342  26.972  13.717 -0.2118  0.0492 -0.2288
63280DOD     C233660   3.478  27.386  13.718  0.1339 -0.0929 -0.0891
63280DOD     C333661   3.810  27.732  13.696  0.0784  0.0443  0.2258
63281DOD     C133662  25.383  15.006  25.978 -0.1425 -0.2511 -0.0289
63281DOD     C233663  25.089  15.001  26.310  0.3648  0.0666 -0.3100
63281DOD     C333664  24.898  14.971  26.754  0.0847  0.1130 -0.1783
63282DOD     C133665  12.079  19.876  10.707  0.1998 -0.1585  0.2798
63282DOD     C233666  12.435  19.663  10.896  0.2246 -0.0482  0.0363
63282DOD     C333667  12.798  19.652  11.199  0.2147  0.0070 -0.1965
63283DOD     C133668   8.673  13.883  22.311 -0.1015 -0.2255  0.1541
63283DOD     C233669   8.503  14.267  22.489  0.2883 -0.0350 -0.0788
63283DOD     C333670   8.562  14.600  22.757  0.1477  0.0020 -0.2929
63284DOD     C133671  27.653  18.508   4.362  0.2009  0.1397 -0.1025
63284DOD     C233672  27.506  18.675   3.916  0.1110  0.0545  0.2278
63284DOD     C333673  27.281  18.713   3.473 -0.0226  0.1941 -0.1064
63285DOD     C133674   8.750   5.342  10.927 -0.0286  0.1871  0.0971
63285DOD     C233675   8.573   5.597  10.568  0.1407  0.1504 -0.4206
63285DOD     C333676   8.217   5.468  10.350 -0.1321  0.1619  0.0419
63286DOD     C133677  24.513   3.453   6.347  0.2394  0.1089 -0.2423
63286DOD     C233678  24.868   3.214   6.655  0.3744 -0.2902 -0.1690
63286DOD     C333679  25.023   2.907   7.010  0.2036  0.4192 -0.0457
63287DOD     C133680   0.044  17.198   4.617 -0.0291 -0.0948 -0.1574
63287DOD     C233681   0.335  16.803   4.594  0.1041 -0.4198  0.0016
63287DOD     C333682   0.618  16.492   4.838  0.1524 -0.2988  0.3256
63288DOD     C133683  28.640  18.154  19.512 -0.0984 -0.0774 -0.1370
63288DOD     C233684  28.566  17.976  19.889  0.1422  0.2133  0.0192
63288DOD     C333685  28.708  17.532  19.903  0.0473 -0.0406 -0.2316
63289DOD     C133686  13.676  23.747  18.849  0.1930  0.2037  0.1075
63289DOD     C233687  13.258  23.894  18.940  0.2514  0.0410  0.2992
63289DOD     C333688  12.807  23.785  18.945  0.3233 -0.1944 -0.1231
63290DOD     C133689  23.227  19.360  16.827 -0.1048 -0.0538  0.0820
63290DOD     C233690  23.501  19.644  16.544 -0.1940 -0.0693 -0.2886
63290DOD     C333691  23.487  19.744  16.060 -0.1268 -0.0512  0.0674
63291DOD     C133692  16.021   2.313   9.209  0.1054 -0.0710  0.1304
63291DOD     C233693  15.830   2.045   8.840 -0.0820  0.0097 -0.0176
63291DOD     C333694  15.458   2.030   8.550  0.1130 -0.2885  0.1638
63292DOD     C133695  15.399   0.214   1.978 -0.2137  0.1668  0.0089
63292DOD     C233696  15.046  30.191   2.095 -0.0111  0.1485  0.0902
63292DOD     C333697  14.853  30.060   2.442 -0.0435  0.1185  0.1648
63293DOD     C133698  18.317  30.194  20.767 -0.0010  0.0779  0.0884
63293DOD     C233699  18.697  30.023  20.934 -0.0386  0.0403  0.4436
63293DOD     C333700  18.855  29.624  21.161  0.1793 -0.1217 -0.2178
63294DOD     C133701  10.035   4.537  27.123  0.0487  0.0268 -0.1067
63294DOD     C233702  10.485   4.646  27.027 -0.0060 -0.0014 -0.0214
63294DOD     C333703  10.770   4.662  27.405 -0.0261 -0.0572 -0.0584
63295DOD     C133704   5.817  19.320   6.125  0.2264  0.0390  0.1115
63295DOD     C233705   6.291  19.340   6.122  0.0850 -0.3616 -0.0584
63295DOD     C333706   6.566  19.702   6.024 -0.1528 -0.0793  0.2264
63296DOD     C133707  28.019  12.056  21.790 -0.2726 -0.0239 -0.3426
63296DOD     C233708  28.261  12.435  21.681 -0.0267 -0.0072 -0.3404
63296DOD     C333709  28.324  12.756  21.411 -0.1318  0.0617  0.3404
63297DOD     C133710   7.387  27.988   4.194  0.0341 -0.3741  0.0693
63297DOD     C233711   7.086  27.573   4.312 -0.2527 -0.1620  0.1127
63297DOD     C333712   6.626  27.589   4.316 -0.0808  0.1443 -0.2459
63298DOD     C133713  22.278  15.953  28.047  0.1336 -0.1039 -0.3998
63298DOD     C233714  22.342  16.243  27.651  0.3469 -0.1392 -0.0440
63298DOD     C333715  22.514  16.494  27.290 -0.1825  0.2099 -0.1942
63299DOD     C133716  23.234  19.400  28.618  0.1710  0.1510 -0.1570
63299DOD     C233717  23.114  19.244  29.064  0.2643 -0.2228  0.0801
63299DOD     C333718  23.027  18.911  29.353 -0.2030  0.2388  0.1401
63300DOD     C133719  13.901  16.675  14.105 -0.4185 -0.0671 -0.2634
63300DOD     C233720  14.091  16.648  14.526 -0.1489 -0.2754 -0.2331
63300DOD     C333721  14.344  16.382  14.884  0.1544 -0.0450 -0.0652
63301DOD     C133722  10.071   7.997  13.092  0.0447 -0.1527 -0.1604
63301DOD     C233723   9.591   7.835  13.305 -0.3281 -0.0114  0.0097
63301DOD     C333724   9.232   7.580  13.521  0.4032 -0.2994 -0.1056
63302DOD     C133725   1.724  20.851  15.428  0.0285  0.2111 -0.0288
63302DOD     C233726   1.351  20.821  15.191 -0.0156 -0.6292  0.1066
63302DOD     C333727   1.055  21.136  14.978  0.0912 -0.2229 -0.3205
63303DOD     C133728  12.821  27.327  17.627 -0.1470  0.1596 -0.0809
63303DOD     C233729  12.614  26.987  17.930 -0.0446 -0.2246 -0.2068
63303DOD     C333730  12.628  26.714  18.301  0.1912 -0.0268 -0.3423
63304DOD     C133731   0.041   2.394  28.954 -0.1580 -0.4097  0.1668
63304DOD     C233732  30.144   2.730  28.744  0.1482 -0.3696 -0.2452
63304DOD     C333733  29.951   3.188  28.866  0.0241  0.2751  0.0745
63305DOD     C133734   6.933  26.559   0.018  0.1233  0.0956 -0.2108
63305DOD     C233735   7.026  26.905   0.348 -0.1498  0.1197 -0.1237
63305DOD     C333736   6.986  27.313   0.542 -0.1847  0.0774 -0.1219
63306DOD     C133737  20.182   0.949  21.247  0.1760  0.0179 -0.2410
63306DOD     C233738  19.922   1.216  20.939  0.5116 -0.2979  0.0127
63306DOD     C333739  19.708   1.546  20.684 -0.0758 -0.0942  0.1409
63307DOD     C133740   1.594   8.649  25.285  0.4975 -0.3502  0.0402
63307DOD     C233741   1.097   8.796  25.431  0.0999 -0.1730  0.2063
63307DOD     C333742   0.630   8.788  25.402 -0.1875 -0.0559  0.1064
63308DOD     C133743   1.519  16.497  23.191  0.0476 -0.1607  0.2032
63308DOD     C233744   1.699  16.088  23.210  0.1327 -0.0993  0.2188
63308DOD     C333745   1.841  15.673  23.476 -0.1105  0.2494  0.4112
63309DOD     C133746   2.027  22.100   3.192  0.1781  0.0399 -0.1588
63309DOD     C233747   1.959  22.152   3.651  0.1134  0.1355  0.0281
63309DOD     C333748   1.951  22.276   4.100  0.0654 -0.1295  0.1230
63310DOD     C133749  12.915  15.660  12.670  0.3412  0.2539 -0.0816
63310DOD     C233750  12.993  15.233  12.829 -0.1110 -0.1327 -0.1251
63310DOD     C333751  13.293  14.843  12.841 -0.2040 -0.1265  0.1615
63311DOD     C133752   2.415  23.561  15.765  0.0939  0.1162 -0.0810
63311DOD     C233753   2.513  23.369  16.214  0.2141  0.1819  0.1325
63311DOD     C333754   2.617  23.206  16.656  0.2094 -0.1198  0.1152
63312DOD     C133755  27.425   3.836  26.401 -0.0840 -0.0454 -0.3013
63312DOD     C233756  27.651   4.268  26.405 -0.1218 -0.0888  0.1066
63312DOD     C333757  27.842   4.680  26.572  0.1341  0.0515  0.1641
63313DOD     C133758   2.379  10.136  24.346  0.0081  0.1368 -0.0386
63313DOD     C233759   1.967  10.086  24.568  0.2087  0.0842 -0.1719
63313DOD     C333760   1.794  10.130  25.005  0.3028 -0.2556  0.0716
63314DOD     C133761   2.520  11.983  30.343  0.0174 -0.0718  0.1169
63314DOD     C233762   2.389  12.192   0.404 -0.2421  0.1698 -0.1897
63314DOD     C333763   2.232  12.573   0.566 -0.3584  0.1155 -0.3262
63315DOD     C133764  21.610  21.976   3.169 -0.4403  0.1182 -0.0439
63315DOD     C233765  21.653  21.922   3.624 -0.0371 -0.2408  0.1171
63315DOD     C333766  22.073  21.976   3.759 -0.1422  0.0201 -0.1772
63316DOD     C133767   4.008  29.286   4.343 -0.0372  0.0975  0.0508
63316DOD     C233768   4.299  29.442   3.999 -0.4211  0.0664 -0.0874
63316DOD     C333769   4.480  29.850   3.861  0.0257 -0.1939 -0.1404
63317DOD     C133770  10.020  19.383  25.469 -0.0523  0.0874 -0.0525
63317DOD     C233771  10.434  19.368  25.626 -0.1216 -0.2613  0.0110
63317DOD     C333772  10.712  19.548  25.925 -0.1152  0.0903 -0.0713
63318DOD     C133773  17.928   2.076   1.922  0.0655  0.2555  0.2502
63318DOD     C233774  18.011   1.859   1.550 -0.1767 -0.0099 -0.0919
63318DOD     C333775  18.019   1.794   1.070  0.1998  0.1370 -0.0264
63319DOD     C133776  14.626  18.808  14.919  0.1927 -0.0341 -0.1403
63319DOD     C233777  14.520  18.483  15.299 -0.0688 -0.1805  0.0040
63319DOD     C333778  14.392  18.170  15.659 -0.1716 -0.1052 -0.0646
63320DOD     C133779  20.366  15.395  26.677  0.2172  0.2594  0.2333
63320DOD     C233780  20.304  14.937  26.736 -0.1111  0.0935  0.1491
63320DOD     C333781  20.581  14.592  26.853 -0.2690 -0.1699 -0.2177
63321DOD     C133782  26.717   5.950   3.339  0.3340  0.1520 -0.1305
63321DOD     C233783  26.665   5.567   3.079  0.3325  0.1828  0.0699
63321DOD     C333784  26.268   5.424   2.844  0.0723  0.0217  0.0767
63322DOD     C133785   1.160  17.153   0.532  0.0912  0.0436  0.3254
63322DOD     C233786   1.505  17.361   0.831  0.2470  0.0720  0.0107
63322DOD     C333787   1.708  17.793   0.742 -0.0776  0.4619 -0.0085
63323DOD     C133788  18.987  14.739   8.229 -0.3632 -0.1548  0.1303
63323DOD     C233789  19.396  14.721   8.494  0.0489  0.2120  0.2113
63323DOD     C333790  19.654  14.913   8.813 -0.0648  0.2882 -0.1211
63324DOD     C133791  26.071   9.953   1.221  0.0441 -0.1646  0.0165
63324DOD     C233792  25.784  10.329   1.249 -0.1274 -0.1404  0.0304
63324DOD     C333793  25.736  10.786   1.263 -0.1014  0.0003  0.0021
63325DOD     C133794   2.500  20.108  26.480 -0.0260  0.1198 -0.0880
63325DOD     C233795   2.252  20.422  26.730  0.2234 -0.1936 -0.2772
63325DOD     C333796   2.245  20.884  26.758 -0.0279  0.0015 -0.0540
63326DOD     C133797  15.684   1.426  13.273 -0.2300 -0.0932 -0.1221
63326DOD     C233798  15.979   1.366  13.710 -0.2229  0.2149  0.0042
63326DOD     C333799  16.302   1.452  14.013  0.0516  0.1453  0.5152
63327DOD     C133800   3.518  20.975   0.646 -0.4671 -0.0108  0.1408
63327DOD     C233801   3.842  21.241   0.480  0.2643 -0.4390 -0.2657
63327DOD     C333802   4.204  21.244   0.830  0.3415  0.2995 -0.1246
63328DOD     C133803  10.466   3.767  25.397 -0.0064 -0.0725  0.0551
63328DOD     C233804  10.924   3.803  25.310 -0.3353  0.2252  0.0869
63328DOD     C333805  11.394   3.985  25.174 -0.0224  0.1994 -0.0822
63329DOD     C133806   7.760   6.695   1.913 -0.1004  0.2742 -0.0808
63329DOD     C233807   8.027   6.650   1.487  0.0556 -0.2675 -0.1125
63329DOD     C333808   7.922   6.420   1.145  0.0360  0.1564  0.1631
63330DOD     C133809  12.025  23.202   9.983 -0.0770  0.0333 -0.1639
63330DOD     C233810  12.049  22.972   9.587 -0.0526  0.2571 -0.0088
63330DOD     C333811  12.338  22.634   9.477  0.0402  0.2959  0.4987
63331DOD     C133812  25.494  15.408  29.989  0.2617 -0.0955 -0.2378
63331DOD     C233813  25.305  15.198   0.037 -0.0406 -0.1553  0.3849
63331DOD     C333814  25.242  15.268   0.473  0.1072 -0.2972 -0.0073
63332DOD     C133815  16.947  20.180   2.844 -0.2456 -0.0066 -0.0763
63332DOD     C233816  17.367  20.426   2.731  0.0766  0.0053  0.0870
63332DOD     C333817  17.575  20.821   2.565 -0.1897 -0.2331 -0.0117
63333DOD     C133818   2.948  16.857  14.489  0.0609  0.0806 -0.2066
63333DOD     C233819   2.602  17.025  14.208 -0.0528 -0.0884 -0.0555
63333DOD     C333820   2.189  16.794  14.298  0.1068 -0.0684  0.1675
63334DOD     C133821   2.101   2.819  17.007  0.1421  0.0884 -0.0598
63334DOD     C233822   2.067   3.260  16.948  0.1428  0.3912 -0.3530
63334DOD     C333823   1.839   3.650  16.870  0.1103 -0.1186  0.1753
63335DOD     C133824  29.056  18.460  12.540 -0.0616 -0.0345 -0.2039
63335DOD     C233825  29.143  18.822  12.241  0.2301 -0.1355  0.1831
63335DOD     C333826  29.563  19.021  12.139  0.0123 -0.5025 -0.0374
63336DOD     C133827   4.441   2.457  24.868 -0.0898 -0.0459 -0.1745
63336DOD     C233828   4.493   2.093  24.573  0.1699 -0.0610  0.0891
63336DOD     C333829   4.225   1.779  24.394 -0.0554 -0.0057 -0.0338
63337DOD     C133830  11.179  17.212  24.705  0.1636  0.3886 -0.0556
63337DOD     C233831  11.362  17.104  24.277  0.1517  0.0861  0.2163
63337DOD     C333832  11.505  16.989  23.867  0.0504  0.1537 -0.2288
63338DOD     C133833   3.741  26.863   1.200  0.2712 -0.0271  0.0313
63338DOD     C233834   3.978  26.750   0.780 -0.0359 -0.1706 -0.1044
63338DOD     C333835   4.351  26.946   0.579  0.0159  0.2595 -0.2595
63339DOD     C133836  14.712  26.081  21.901 -0.0719 -0.0887 -0.1847
63339DOD     C233837  15.060  26.210  21.631  0.1171 -0.4311  0.0252
63339DOD     C333838  15.217  26.552  21.493 -0.2418  0.0013  0.2791
63340DOD     C133839  14.096  12.646  26.506  0.0603 -0.1763  0.2976
63340DOD     C233840  13.629  12.689  26.324  0.0578  0.1770 -0.0905
63340DOD     C333841  13.318  12.829  26.049 -0.4245 -0.0115 -0.0769
63341DOD     C133842   5.360  10.064  28.725 -0.1044  0.3808  0.0808
63341DOD     C233843   5.425   9.663  28.984 -0.0626 -0.1560 -0.1881
63341DOD     C333844   5.482   9.615  29.486  0.0239 -0.1152  0.2435
63342DOD     C133845  17.404  21.757  28.442 -0.1009 -0.1748  0.0556
63342DOD     C233846  17.016  21.847  28.695 -0.1232  0.2296  0.1535
63342DOD     C333847  16.608  22.088  28.669  0.0854 -0.0550 -0.0632
63343DOD     C133848   3.563  15.463   6.434 -0.0955 -0.3026 -0.0483
63343DOD     C233849   3.332  15.294   6.110  0.2021 -0.5267 -0.1642
63343DOD     C333850   2.966  15.141   5.843  0.0904  0.0879  0.2190
63344DOD     C133851  21.000  23.833  25.447 -0.1056 -0.2383  0.1546
63344DOD     C233852  21.250  24.061  25.827  0.3617  0.0920  0.0984
63344DOD     C333853  21.268  24.187  26.248  0.1703 -0.2432  0.0763
63345DOD     C133854   0.776  27.248  28.874 -0.2955 -0.1370 -0.1557
63345DOD     C233855   0.948  26.977  29.234  0.1138  0.1942  0.2105
63345DOD     C333856   1.175  27.071  29.651  0.0178 -0.2182  0.2420
63346DOD     C133857  12.151  16.570  13.628  0.0252 -0.2499  0.2564
63346DOD     C233858  11.981  16.154  13.546 -0.2472  0.1327  0.2996
63346DOD     C333859  11.845  15.872  13.881  0.0245 -0.0018 -0.1089
63347DOD     C133860   9.886  29.391   9.135 -0.0518  0.3606 -0.1586
63347DOD     C233861   9.848  29.408   8.695  0.1429 -0.1991 -0.0630
63347DOD     C333862   9.705  29.405   8.225  0.0722  0.1800 -0.0135
63348DOD     C133863  14.549   1.937   8.421  0.0243  0.1208  0.1278
63348DOD     C233864  14.471   1.620   8.723  0.2952  0.1115  0.0711
63348DOD     C333865  14.282   1.624   9.229  0.0102 -0.0686 -0.0323
63349DOD     C133866  12.484  15.120   9.416 -0.0771  0.3684  0.0552
63349DOD     C233867  12.436  14.930   9.810 -0.0737 -0.0182 -0.3082
63349DOD     C333868  12.483  14.766  10.265 -0.3766  0.0008 -0.3790
63350DOD     C133869  15.483  30.047   2.112 -0.1362  0.0843 -0.4406
63350DOD     C233870  15.748  29.764   2.317  0.0975  0.1306  0.1072
63350DOD     C333871  15.744  29.684   2.769 -0.0220  0.0576  0.0699
63351DOD     C133872   1.810  11.817  15.955 -0.1447  0.1306  0.1339
63351DOD     C233873   1.634  11.363  15.966 -0.0780  0.0634 -0.1443
63351DOD     C333874   1.777  11.012  16.130  0.2456  0.3030  0.1382
63352DOD     C133875  10.525  29.508  26.354 -0.0179 -0.0687  0.0775
63352DOD     C233876  10.461  30.005  26.480 -0.1389  0.1887 -0.2339
63352DOD     C333877  10.527   0.145  26.339  0.1752  0.2394  0.1932
63353DOD     C133878  10.100  22.028  13.394  0.0076 -0.1378 -0.0681
63353DOD     C233879  10.040  21.578  13.473 -0.3118  0.1217  0.1060
63353DOD     C333880   9.766  21.454  13.847 -0.0938 -0.2076 -0.1673
63354DOD     C133881  16.368  23.180  10.443 -0.0109  0.1270  0.5320
63354DOD     C233882  16.689  23.142  10.126  0.2639 -0.0455  0.0612
63354DOD     C333883  17.107  23.254  10.166 -0.0101  0.1380  0.2752
63355DOD     C133884  27.094   9.262   8.835  0.1559  0.0363 -0.0910
63355DOD     C233885  26.734   9.038   8.624 -0.0384  0.1894 -0.1803
63355DOD     C333886  26.300   8.976   8.705  0.0002 -0.2283 -0.0733
63356DOD     C133887  16.895  26.278  13.859 -0.3097 -0.0099  0.1910
63356DOD     C233888  17.019  26.096  14.199 -0.3000  0.1157 -0.0393
63356DOD     C333889  16.942  26.152  14.695  0.1579  0.0763  0.0469
63357DOD     C133890  28.387  12.138  30.235  0.0468 -0.0856  0.0436
63357DOD     C233891  28.314  12.594  30.017  0.0210  0.0077  0.2355
63357DOD     C333892  28.028  12.900  30.023  0.1405 -0.1470 -0.0565
63358DOD     C133893  12.831   9.258  15.437  0.0505 -0.1819  0.4097
63358DOD     C233894  13.236   9.307  15.573  0.3720 -0.0952  0.0635
63358DOD     C333895  13.502   9.167  15.962 -0.0923  0.0402  0.1527
63359DOD     C133896  29.671  29.872  11.530 -0.0085 -0.2132 -0.2179
63359DOD     C233897  29.849  29.738  11.104 -0.5960  0.0232 -0.0326
63359DOD     C333898  29.836  29.362  10.810  0.1297  0.5251 -0.0736
63360DOD     C133899  11.765  11.278  24.577 -0.0245  0.1477  0.1072
63360DOD     C233900  11.516  11.164  24.198 -0.1277 -0.1452 -0.5346
63360DOD     C333901  11.284  11.233  23.768 -0.1560  0.0983  0.0552
63361DOD     C133902  25.811  18.353  21.587  0.0372 -0.0526  0.0814
63361DOD     C233903  25.385  18.132  21.549 -0.1234 -0.1438 -0.0731
63361DOD     C333904  25.077  17.890  21.516  0.1852  0.2352 -0.1136
63362DOD     C133905  22.971   2.087  19.623 -0.1848 -0.0244 -0.1735
63362DOD     C233906  22.768   1.677  19.470 -0.0509  0.1259  0.1125
63362DOD     C333907  22.603   1.393  19.111  0.1422 -0.1148  0.1987
63363DOD     C133908   5.873   3.486   6.654  0.0353 -0.1258 -0.1622
63363DOD     C233909   6.117   3.462   7.024 -0.3648 -0.1133 -0.0969
63363DOD     C333910   6.508   3.641   7.135  0.0359  0.0606  0.2574
63364DOD     C133911  21.924   4.262  11.361 -0.4440 -0.2791  0.0320
63364DOD     C233912  22.200   4.123  10.939 -0.2249  0.3192  0.0044
63364DOD     C333913  22.190   3.869  10.521 -0.0370  0.0310  0.1052
63365DOD     C133914  21.409   8.373  28.852  0.1262 -0.2205  0.1545
63365DOD     C233915  21.207   8.520  29.246 -0.0729 -0.3323 -0.1846
63365DOD     C333916  20.767   8.655  29.359 -0.1226  0.3495  0.3841
63366DOD     C133917  14.191  29.711  14.403  0.1818 -0.1168  0.4709
63366DOD     C233918  13.907  30.055  14.275 -0.0043 -0.0251 -0.3162
63366DOD     C333919  13.920   0.161  14.306 -0.2481 -0.0433 -0.0324
63367DOD     C133920  13.949  15.315  20.903  0.1388 -0.0241  0.0517
63367DOD     C233921  13.653  14.968  20.913  0.1143 -0.0697 -0.0141
63367DOD     C333922  13.957  14.645  21.092  0.1121  0.1347  0.0955
63368DOD     C133923   6.155  13.944   2.407  0.1833 -0.1295 -0.0298
63368DOD     C233924   6.055  14.450   2.421 -0.1455  0.1384 -0.1616
63368DOD     C333925   6.063  14.836   2.682  0.1519 -0.2375  0.1022
63369DOD     C133926  16.764  15.968  15.929  0.0139  0.0820 -0.4312
63369DOD     C233927  16.872  15.522  15.873 -0.0128  0.1623  0.1384
63369DOD     C333928  17.236  15.231  16.005  0.1344 -0.0030  0.4340
63370DOD     C133929  19.495   0.521  12.916  0.3033  0.1474  0.0124
63370DOD     C233930  19.941   0.687  12.955  0.1316 -0.2208 -0.0476
63370DOD     C333931  20.178   0.763  13.309 -0.1929  0.1572 -0.2437
63371DOD     C133932  24.699  19.245  26.248 -0.0711 -0.0500  0.1647
63371DOD     C233933  24.572  18.913  25.988  0.2555  0.0481 -0.2011
63371DOD     C333934  24.586  18.511  25.848  0.1184 -0.2503  0.0733
63372DOD     C133935   8.526  14.221   5.116  0.0895 -0.1537  0.3684
63372DOD     C233936   8.149  14.522   5.078  0.2115 -0.0633  0.0402
63372DOD     C333937   7.780  14.717   4.816 -0.1043  0.2099  0.2963
63373DOD     C133938  22.659  26.454   9.819 -0.0833 -0.0097  0.1787
63373DOD     C233939  23.088  26.569   9.975 -0.0771  0.1552  0.0756
63373DOD     C333940  23.194  26.464  10.414  0.1311 -0.1371 -0.2178
63374DOD     C133941  26.528   2.327   9.571  0.0767  0.2084 -0.3564
63374DOD     C233942  26.293   2.667   9.319  0.1687  0.1097  0.1296
63374DOD     C333943  26.025   3.010   9.424  0.0711 -0.2303  0.0748
63375DOD     C133944  18.252   2.747  15.906  0.0653  0.0343 -0.1139
63375DOD     C233945  18.593   3.073  15.949  0.0599 -0.1765 -0.4262
63375DOD     C333946  18.963   3.315  15.789  0.2144 -0.1563  0.4192
63376DOD     C133947  18.042  24.284  11.162  0.1527 -0.0951  0.2610
63376DOD     C233948  17.935  23.874  11.257  0.0761 -0.3072 -0.1728
63376DOD     C333949  17.759  23.655  11.599  0.2753  0.0884  0.0144
63377DOD     C133950   9.305   4.916  11.346 -0.2652 -0.3847  0.1145
63377DOD     C233951   9.590   4.572  11.487  0.2070 -0.1140 -0.2758
63377DOD     C333952   9.741   4.124  11.320  0.0037 -0.0388  0.0546
63378DOD     C133953   1.215   9.096  20.845 -0.1045 -0.0722 -0.0870
63378DOD     C233954   1.102   9.352  21.207 -0.1372 -0.1339  0.2403
63378DOD     C333955   0.862   9.331  21.602  0.3720 -0.0868 -0.0434
63379DOD     C133956  19.557  11.557  14.954  0.0797  0.1793 -0.3387
63379DOD     C233957  19.727  11.401  14.538  0.0073 -0.1081  0.1904
63379DOD     C333958  19.978  11.022  14.580 -0.0204 -0.1369  0.1695
63380DOD     C133959  26.836  21.938   6.961 -0.0604 -0.0284 -0.2581
63380DOD     C233960  26.716  21.595   6.627  0.0356 -0.0770  0.0666
63380DOD     C333961  26.433  21.232   6.519  0.0973 -0.1086 -0.0249
63381DOD     C133962  20.475  13.621   5.972  0.0231 -0.2683 -0.0664
63381DOD     C233963  20.117  13.699   5.708 -0.3247 -0.2739 -0.2283
63381DOD     C333964  19.708  13.819   5.648  0.4309 -0.1603  0.0228
63382DOD     C133965  16.300  17.993   3.124 -0.0848  0.0169 -0.0854
63382DOD     C233966  15.975  18.066   2.794  0.0410  0.0865 -0.2059
63382DOD     C333967  16.102  18.044   2.340  0.1851  0.1949  0.3173
63383DOD     C133968   3.765  12.908  10.978 -0.2104  0.1776  0.2046
63383DOD     C233969   4.001  12.490  11.040 -0.2091  0.0525  0.2512
63383DOD     C333970   4.171  12.106  10.979  0.3139  0.1204 -0.0803
63384DOD     C133971  12.296   2.613  16.010  0.3929 -0.1765  0.1966
63384DOD     C233972  12.012   2.983  15.933 -0.0858 -0.1649  0.3528
63384DOD     C333973  11.653   3.228  16.073 -0.1168 -0.0829 -0.0918
63385DOD     C133974  28.205  10.047  13.710 -0.1269 -0.0522 -0.1626
63385DOD     C233975  28.102  10.116  14.151 -0.0115 -0.6642 -0.4176
63385DOD     C333976  27.839  10.303  14.456 -0.2121 -0.0661  0.2445
63386DOD     C133977  24.476  19.655  23.665 -0.0045 -0.1378 -0.0851
63386DOD     C233978  24.331  20.149  23.748 -0.1091  0.3686  0.1781
63386DOD     C333979  24.381  20.634  23.732 -0.1188 -0.2162 -0.2336
63387DOD     C133980  20.976  20.674   4.419  0.0773  0.0709  0.1108
63387DOD     C233981  21.429  20.462   4.318 -0.0117 -0.0369 -0.0693
63387DOD     C333982  21.863  20.203   4.296 -0.0090 -0.0505 -0.4544
63388DOD     C133983  22.937  12.114  10.703 -0.1263 -0.0509 -0.2363
63388DOD     C233984  22.821  12.119  10.275 -0.2260  0.0668 -0.2359
63388DOD     C333985  23.002  12.324   9.850 -0.0109  0.0718 -0.0839
63389DOD     C133986  19.254  20.667  28.103 -0.1323 -0.0159  0.5267
63389DOD     C233987  19.430  21.080  27.969  0.2503  0.1878 -0.2572
63389DOD     C333988  19.563  21.328  27.567  0.0626 -0.0539  0.2573
63390DOD     C133989  28.280  18.675  16.152 -0.2035 -0.1126 -0.0535
63390DOD     C233990  28.350  18.525  16.629  0.0026 -0.0489  0.1142
63390DOD     C333991  28.349  18.653  17.069  0.3112  0.1742  0.2604
63391DOD     C133992  14.974  18.846  24.244 -0.0945 -0.2279  0.0400
63391DOD     C233993  15.081  18.641  24.585  0.3285 -0.1443 -0.2554
63391DOD     C333994  15.193  18.587  25.033  0.1324 -0.0702 -0.1397
63392DOD     C133995  14.556   0.535  15.167  0.0850 -0.1502 -0.0484
63392DOD     C233996  14.382   0.840  15.494  0.1370  0.0211  0.3211
63392DOD     C333997  14.130   1.214  15.544 -0.5585 -0.1755 -0.0678
63393DOD     C133998  16.888  17.931  22.163  0.3807  0.3972 -0.0240
63393DOD     C233999  17.149  17.536  22.103 -0.0874  0.2213 -0.0278
63393DOD     C334000  17.473  17.227  21.885  0.2057  0.2514  0.0251
63394DOD     C134001  13.756  23.930  11.483 -0.3436 -0.1288  0.1218
63394DOD     C234002  13.712  23.710  11.912 -0.0175  0.1698 -0.0583
63394DOD     C334003  13.590  23.892  12.336 -0.0426 -0.0291  0.0070
63395DOD     C134004  19.316   5.850  27.837  0.1606  0.1119 -0.2521
63395DOD     C234005  19.356   5.721  27.395  0.2006  0.2863 -0.4136
63395DOD     C334006  19.563   5.837  26.999  0.0308  0.1516 -0.0281
63396DOD     C134007  21.113  22.741  21.687 -0.1466  0.1990 -0.0770
63396DOD     C234008  20.804  23.067  21.520  0.2294  0.1789 -0.2250
63396DOD     C334009  20.439  23.377  21.339  0.4283  0.2744  0.2368
63397DOD     C134010  24.275   6.134  25.653  0.0078  0.1362  0.1323
63397DOD     C234011  24.606   6.388  25.473  0.1536 -0.2707  0.3041
63397DOD     C334012  25.055   6.427  25.618  0.1932 -0.1411  0.1705
63398DOD     C134013  14.991  13.279  20.632 -0.4402 -0.3023  0.2259
63398DOD     C234014  15.223  13.619  20.426 -0.0978  0.1945 -0.0369
63398DOD     C334015  15.367  13.800  20.056 -0.1326  0.0637 -0.1605
63399DOD     C134016  26.015   3.042  10.484 -0.0256 -0.1220  0.0683
63399DOD     C234017  26.350   2.866  10.730  0.1406 -0.1454  0.2268
63399DOD     C334018  26.834   2.916  10.745  0.0190  0.1599  0.0115
63400DOD     C134019   3.661  19.137  11.487 -0.0668 -0.0987 -0.2449
63400DOD     C234020   3.397  19.365  11.879 -0.0756  0.0239  0.0546
63400DOD     C334021   2.984  19.471  12.132 -0.0518 -0.1542  0.2337
63401DOD     C134022  29.060   5.089  18.206  0.0284  0.5609  0.0510
63401DOD     C234023  29.135   5.511  18.356  0.2072 -0.1300  0.1011
63401DOD     C334024  28.829   5.837  18.535 -0.3339  0.4661 -0.0190
63402DOD     C134025  21.864   9.404  16.839 -0.2044  0.1477  0.0470
63402DOD     C234026  22.125   9.510  16.396  0.1017  0.0786 -0.2813
63402DOD     C334027  22.327   9.364  15.968 -0.1363  0.1518  0.1446
63403DOD     C134028  12.415   3.283   2.149  0.1258 -0.2371 -0.0074
63403DOD     C234029  11.973   3.261   2.034 -0.2932 -0.0817 -0.0758
63403DOD     C334030  11.720   3.209   1.664 -0.2452  0.0967  0.0771
63404DOD     C134031   0.057   9.143   3.811 -0.3393 -0.0334 -0.0057
63404DOD     C234032  30.197   8.966   4.250 -0.1950 -0.1630  0.3119
63404DOD     C334033  30.108   8.809   4.680  0.1732  0.0048  0.3729
63405DOD     C134034  27.196  17.418  12.305  0.1790 -0.1547  0.1861
63405DOD     C234035  27.229  17.827  12.175 -0.0505  0.0672 -0.1287
63405DOD     C334036  27.133  18.253  11.959 -0.0702  0.5211  0.1298
63406DOD     C134037   4.604  20.086  14.305 -0.2216 -0.1465  0.4340
63406DOD     C234038   5.044  20.285  14.395 -0.1445 -0.1163  0.0339
63406DOD     C334039   5.372  20.523  14.531 -0.5298  0.0829 -0.0004
63407DOD     C134040  25.643   9.721  12.736 -0.0426 -0.1218  0.4520
63407DOD     C234041  25.664   9.305  12.995  0.1193  0.0013 -0.1740
63407DOD     C334042  25.345   9.136  13.270 -0.1346 -0.1030  0.1477
63408DOD     C134043  12.563   4.137  24.266  0.1565  0.0880 -0.2687
63408DOD     C234044  12.649   4.582  24.238  0.0786 -0.0024  0.4049
63408DOD     C334045  12.330   4.917  24.046 -0.0073  0.2199 -0.1058
63409DOD     C134046   8.337  12.428  29.535 -0.1570 -0.1743  0.3759
63409DOD     C234047   8.336  12.883  29.635  0.1681 -0.0271  0.1209
63409DOD     C334048   8.368  13.348  29.643 -0.3282 -0.0734  0.3687
63410DOD     C134049   2.359   6.748  12.595  0.0686  0.5381  0.0346
63410DOD     C234050   2.411   7.128  12.921 -0.0079 -0.0154  0.0512
63410DOD     C334051   2.320   7.605  12.863  0.1445  0.0524 -0.2314
63411DOD     C134052   7.808  11.469  14.171  0.2482  0.0883 -0.0527
63411DOD     C234053   7.558  11.036  14.088  0.0540 -0.1839  0.1034
63411DOD     C334054   7.358  10.626  13.806  0.1989 -0.3224  0.1170
63412DOD     C134055  18.669  27.022  12.672 -0.1174  0.0889  0.0525
63412DOD     C234056  18.518  26.661  12.368  0.1266  0.0710  0.0211
63412DOD     C334057  18.228  26.430  12.096  0.1060  0.0319 -0.0969
63413DOD     C134058  19.247   2.227  27.374  0.1505  0.3602  0.0097
63413DOD     C234059  18.993   1.826  27.350  0.2578  0.0882 -0.2067
63413DOD     C334060  19.098   1.437  27.024  0.0332  0.1025 -0.0684
63414DOD     C134061   9.432  17.025  16.678 -0.2568  0.1698 -0.2381
63414DOD     C234062   9.248  17.158  17.089 -0.4532  0.5349 -0.2591
63414DOD     C334063   8.998  16.944  17.389  0.3998 -0.0840 -0.2465
63415DOD     C134064  26.519  16.429  22.130 -0.1431 -0.3337  0.0970
63415DOD     C234065  26.452  16.099  21.766  0.2190 -0.1630 -0.3528
63415DOD     C334066  26.205  15.937  21.428  0.0275 -0.0111  0.0908
63416DOD     C134067  12.738   2.459  22.973  0.1018 -0.1337 -0.2477
63416DOD     C234068  13.117   2.783  22.955  0.0552 -0.2568 -0.1442
63416DOD     C334069  13.213   3.138  22.637  0.2397  0.0984 -0.2165
63417DOD     C134070  28.691   0.142  26.874  0.1255  0.0205 -0.0249
63417DOD     C234071  29.094   0.086  26.725  0.1851  0.0263 -0.0085
63417DOD     C334072  29.335  30.156  26.361  0.2942  0.1713  0.1691
63418DOD     C134073   0.049  14.524  28.864 -0.2623 -0.0131 -0.0722
63418DOD     C234074   0.100  14.987  28.972  0.1139 -0.0060  0.0191
63418DOD     C334075   0.177  15.173  29.388 -0.4405  0.1468 -0.1228
63419DOD     C134076  16.292  14.250  14.634 -0.3685 -0.0083  0.0121
63419DOD     C234077  16.618  14.517  14.888 -0.3495 -0.1511 -0.1161
63419DOD     C334078  17.020  14.638  15.047 -0.2522  0.0608 -0.1188
63420DOD     C134079   4.203   6.240  21.599 -0.2528 -0.0798  0.0743
63420DOD     C234080   4.118   5.848  21.330  0.1542 -0.1765 -0.2296
63420DOD     C334081   3.980   5.501  21.036  0.2108  0.2543 -0.0113
63421DOD     C134082   2.599   0.875   7.091 -0.0846 -0.1023  0.2264
63421DOD     C234083   2.255   0.636   7.238 -0.1453  0.1165  0.0344
63421DOD     C334084   2.257   0.350   7.586  0.2373 -0.2038  0.0459
63422DOD     C134085  13.205  16.576  15.501  0.0184 -0.1528 -0.1106
63422DOD     C234086  12.760  16.441  15.696  0.0633 -0.1192 -0.0007
63422DOD     C334087  12.300  16.545  15.647  0.1352 -0.1705  0.1037
63423DOD     C134088  17.340   6.279  22.045  0.1637  0.1010  0.1643
63423DOD     C234089  17.089   5.924  22.236 -0.4125  0.0096 -0.0539
63423DOD     C334090  16.705   5.669  22.210  0.1154 -0.1469  0.1742
63424DOD     C134091  22.420   5.048  24.909 -0.0305 -0.0116  0.1368
63424DOD     C234092  21.960   4.986  24.917 -0.2067  0.0100  0.0970
63424DOD     C334093  21.561   5.148  24.939  0.0050  0.0565  0.1182
63425DOD     C134094  16.576  11.750  23.614  0.2581  0.0658 -0.1407
63425DOD     C234095  16.419  11.590  23.997  0.0341  0.0769 -0.0613
63425DOD     C334096  16.435  11.440  24.487  0.1064 -0.0645  0.0018
63426DOD     C134097   5.465  22.188   6.040 -0.1663  0.0143  0.0611
63426DOD     C234098   5.281  22.391   6.356 -0.0771 -0.0341  0.0427
63426DOD     C334099   4.966  22.600   6.590 -0.2122  0.0106  0.1439
63427DOD     C134100  22.023  13.596   3.449 -0.0958 -0.2196  0.0207
63427DOD     C234101  22.029  13.291   3.056 -0.1457 -0.1339  0.2107
63427DOD     C334102  22.180  12.864   2.988 -0.1237 -0.0005  0.1257
63428DOD     C134103   9.539   6.472   9.131  0.2680 -0.0051 -0.1132
63428DOD     C234104   9.398   6.597   9.547  0.1074  0.2400  0.0991
63428DOD     C334105   8.998   6.563   9.808  0.1845  0.1090 -0.3013
63429DOD     C134106   8.989  14.153  10.487 -0.1764 -0.0924 -0.0196
63429DOD     C234107   8.910  13.753  10.628 -0.1283  0.1903 -0.0631
63429DOD     C334108   8.857  13.294  10.568 -0.0454 -0.1348 -0.2154
63430DOD     C134109  26.452   3.307  10.544  0.2298 -0.0965  0.0387
63430DOD     C234110  26.563   3.008  10.281  0.2185  0.1585 -0.3323
63430DOD     C334111  26.640   2.744   9.855 -0.3199  0.2435  0.2900
63431DOD     C134112   2.119   9.350  11.844  0.1489  0.2415 -0.1268
63431DOD     C234113   2.386   8.946  11.945  0.1961 -0.3277  0.3141
63431DOD     C334114   2.502   8.488  12.036  0.0426 -0.0757  0.0387
63432DOD     C134115  27.139   5.178  15.332  0.1020 -0.4092 -0.4099
63432DOD     C234116  26.749   4.950  15.408 -0.1449 -0.3107  0.1205
63432DOD     C334117  26.314   5.058  15.350 -0.2713  0.3098 -0.1933
63433DOD     C134118  22.453   6.213  14.123 -0.2709 -0.1603 -0.0270
63433DOD     C234119  22.201   6.575  13.903 -0.1533  0.1528 -0.0904
63433DOD     C334120  21.846   6.813  14.031  0.0303 -0.2228 -0.0389
63434DOD     C134121  26.966  12.747   1.140 -0.1527 -0.0158  0.0219
63434DOD     C234122  26.935  12.662   1.553 -0.2675 -0.0730 -0.2853
63434DOD     C334123  26.933  12.745   2.030 -0.1774 -0.4628 -0.1313
63435DOD     C134124  27.185  29.998  15.191 -0.3945 -0.1131  0.0261
63435DOD     C234125  27.444  30.175  15.605  0.1831  0.4599 -0.2564
63435DOD     C334126  27.670  30.059  16.009 -0.0031  0.0498 -0.2063
63436DOD     C134127  13.568   9.574  22.893 -0.4125  0.0166  0.1859
63436DOD     C234128  13.954   9.744  22.809  0.4731 -0.0770  0.0861
63436DOD     C334129  14.184   9.969  22.395  0.0421 -0.0320 -0.1489
63437DOD     C134130   2.188  28.734   4.691  0.2035 -0.2160 -0.0991
63437DOD     C234131   2.339  29.148   4.492 -0.0786  0.1451 -0.0757
63437DOD     C334132   2.744  29.291   4.356  0.0787 -0.0169  0.3423
63438DOD     C134133  20.213  23.070  16.391  0.0570  0.2395  0.1752
63438DOD     C234134  20.619  23.137  16.742  0.2332 -0.1210 -0.1243
63438DOD     C334135  20.921  23.007  17.117 -0.0346  0.0062 -0.0812
63439DOD     C134136  28.066   3.150   3.572 -0.2248  0.0087 -0.0764
63439DOD     C234137  27.903   2.709   3.530 -0.2322  0.0042  0.1153
63439DOD     C334138  27.740   2.273   3.567 -0.1368  0.0182  0.3437
63440DOD     C134139   4.383  17.724  23.766 -0.0097 -0.3190  0.0410
63440DOD     C234140   4.704  17.531  23.505  0.1431 -0.1380  0.0858
63440DOD     C334141   5.208  17.524  23.512 -0.1138  0.0764 -0.0464
63441DOD     C134142  18.168  20.213   0.296 -0.1036 -0.2043 -0.1579
63441DOD     C234143  18.499  20.584   0.398 -0.0999 -0.1657  0.5719
63441DOD     C334144  18.520  20.994   0.620  0.1985  0.2308 -0.1422
63442DOD     C134145  11.778  15.439  14.171  0.2926  0.2282 -0.1612
63442DOD     C234146  11.891  14.975  14.232 -0.2245 -0.2180 -0.0105
63442DOD     C334147  11.838  14.557  14.327 -0.3431  0.3341  0.0181
63443DOD     C134148   7.561  26.517  22.361  0.1706  0.4580 -0.0467
63443DOD     C234149   7.155  26.296  22.385 -0.2789 -0.0258  0.3185
63443DOD     C334150   6.914  25.894  22.407 -0.0919 -0.0041  0.0600
63444DOD     C134151   1.680  27.098  23.614  0.0266 -0.3499 -0.0548
63444DOD     C234152   2.064  27.351  23.648 -0.0561  0.2331  0.0496
63444DOD     C334153   2.233  27.724  23.460  0.0500  0.2036  0.1599
63445DOD     C134154   2.365   0.364   3.873 -0.1329 -0.0961 -0.2056
63445DOD     C234155   2.276   0.700   3.553 -0.0940  0.0806 -0.3489
63445DOD     C334156   2.368   0.948   3.178  0.1676  0.0869  0.1217
63446DOD     C134157   2.709   7.438   9.336  0.0055 -0.2986  0.0131
63446DOD     C234158   2.926   7.620   9.751  0.0435  0.4448  0.0648
63446DOD     C334159   2.869   7.925  10.090  0.2827  0.0725  0.1286
63447DOD     C134160  25.856   7.562  10.603  0.2706  0.0499  0.2526
63447DOD     C234161  25.938   7.861  10.857 -0.1942  0.1301 -0.2315
63447DOD     C334162  25.681   8.149  11.107 -0.2329  0.3248  0.1089
63448DOD     C134163  24.330   3.699   0.425 -0.2307 -0.0861 -0.1374
63448DOD     C234164  24.286   3.373   0.724 -0.1035 -0.0978  0.1854
63448DOD     C334165  24.269   3.311   1.167 -0.0879 -0.0571  0.1547
63449DOD     C134166   5.870   0.150  23.055 -0.0503 -0.1424 -0.0774
63449DOD     C234167   5.994   0.587  23.222 -0.0612  0.1702  0.0036
63449DOD     C334168   6.251   0.952  23.353 -0.2347 -0.2613 -0.1155
63450DOD     C134169  30.084  12.270   3.219  0.3466 -0.3671  0.2293
63450DOD     C234170  29.762  12.627   3.329 -0.3130  0.1314  0.1635
63450DOD     C334171  29.522  12.976   3.516 -0.3234  0.1012 -0.0271
63451DOD     C134172  22.374  24.639  24.015 -0.3027  0.1431  0.2135
63451DOD     C234173  22.397  24.640  23.537 -0.0238 -0.0536  0.2293
63451DOD     C334174  22.551  24.919  23.164 -0.4470 -0.0002  0.0429
63452DOD     C134175  23.901  14.594  18.211 -0.0366  0.0494  0.0200
63452DOD     C234176  23.918  14.126  18.308  0.2069  0.0915 -0.1558
63452DOD     C334177  24.227  13.731  18.338 -0.1286  0.0189  0.1605
63453DOD     C134178   1.322  23.470  29.013 -0.1633  0.2992  0.1766
63453DOD     C234179   1.460  23.055  29.206  0.2046  0.0119 -0.0121
63453DOD     C334180   1.346  22.622  29.294  0.0216  0.0034  0.0342
63454DOD     C134181  29.067  20.166  20.076 -0.0789 -0.0740 -0.1606
63454DOD     C234182  29.177  19.714  20.120 -0.3158 -0.1613 -0.0735
63454DOD     C334183  29.298  19.283  20.344 -0.0364  0.2575  0.1351
63455DOD     C134184  30.028  30.227   8.501  0.1784  0.0373  0.0487
63455DOD     C234185  29.784  29.965   8.171  0.3359  0.2013 -0.2579
63455DOD     C334186  29.436  30.045   7.872  0.2071 -0.0789  0.1102
63456DOD     C134187   6.945  26.060  18.973  0.2731 -0.0023  0.0089
63456DOD     C234188   6.755  26.114  18.525 -0.0561 -0.0267  0.2046
63456DOD     C334189   6.924  26.082  18.056  0.0919 -0.1045 -0.0372
63457DOD     C134190   1.555   7.787  27.975  0.2994  0.0493  0.0330
63457DOD     C234191   1.829   7.420  28.232  0.1942  0.1939 -0.2648
63457DOD     C334192   2.040   7.034  28.394  0.2131 -0.1076 -0.1433
63458DOD     C134193  14.816   7.955  15.387  0.1036  0.1394  0.0221
63458DOD     C234194  14.654   7.578  15.343  0.0365 -0.0118 -0.2534
63458DOD     C334195  14.361   7.322  15.635  0.2538 -0.2161 -0.2571
63459DOD     C134196  25.427  13.775   5.897  0.1456  0.0031  0.4101
63459DOD     C234197  25.682  13.795   6.278 -0.1278  0.0531 -0.0153
63459DOD     C334198  26.112  13.549   6.355  0.0829  0.1522 -0.1258
63460DOD     C134199   4.024  19.149  21.082 -0.1161  0.0992 -0.2913
63460DOD     C234200   3.586  19.247  20.888  0.2378  0.2459 -0.3397
63460DOD     C334201   3.232  19.071  20.587  0.0412  0.2981  0.0047
63461DOD     C134202   4.316   5.683  22.938  0.3543  0.0352 -0.0708
63461DOD     C234203   4.189   5.330  22.574 -0.2481 -0.0711  0.1898
63461DOD     C334204   4.140   5.332  22.133  0.1033 -0.2259 -0.0653
63462DOD     C134205  24.351  12.970  28.042 -0.1128  0.0854 -0.2928
63462DOD     C234206  23.897  13.026  28.104 -0.0978 -0.0357  0.3470
63462DOD     C334207  23.585  13.063  28.439  0.0194 -0.1999  0.2508
63463DOD     C134208   6.348  22.854  19.796  0.2465  0.0174 -0.1302
63463DOD     C234209   6.297  23.157  20.114  0.1242 -0.0125  0.0663
63463DOD     C334210   6.164  23.447  20.423  0.1139  0.0750 -0.2150
63464DOD     C134211  16.467  28.411  15.044  0.3239  0.0351  0.1056
63464DOD     C234212  16.322  28.823  15.271  0.2450 -0.0906 -0.0375
63464DOD     C334213  16.313  29.214  15.515 -0.0565  0.0454 -0.2106
63465DOD     C134214   6.665   4.031  12.664 -0.0515  0.0301 -0.1430
63465DOD     C234215   6.956   4.364  12.496 -0.3226 -0.0862  0.0121
63465DOD     C334216   7.287   4.592  12.286  0.1507 -0.1698 -0.0362
63466DOD     C134217   8.559  25.503  22.238 -0.2130  0.0235  0.0487
63466DOD     C234218   8.268  25.292  22.554  0.0749 -0.0835 -0.0388
63466DOD     C334219   7.858  25.337  22.728  0.0856 -0.4752 -0.0523
63467DOD     C134220   7.299   5.259  16.615 -0.4332  0.2711 -0.1071
63467DOD     C234221   7.660   5.474  16.497 -0.1890  0.1997 -0.0028
63467DOD     C334222   8.079   5.509  16.666 -0.2155  0.0210  0.4047
63468DOD     C134223   5.273   7.818   4.166  0.1486 -0.3558  0.0595
63468DOD     C234224   4.866   7.769   4.269  0.2176  0.0325 -0.0797
63468DOD     C334225   4.525   7.537   4.422 -0.0566 -0.0634  0.1745
63469DOD     C134226   4.021  12.369  20.662 -0.0045  0.0904  0.0566
63469DOD     C234227   4.242  12.324  20.250  0.3214 -0.3347 -0.1635
63469DOD     C334228   4.353  12.685  19.962 -0.0167  0.1543 -0.5165
63470DOD     C134229   9.582  17.943  23.335  0.1971 -0.1306 -0.0835
63470DOD     C234230   9.726  17.651  22.991 -0.0079  0.2038  0.0905
63470DOD     C334231   9.848  17.220  22.816 -0.3876 -0.0183  0.0675
63471DOD     C134232  24.369  25.913   5.304 -0.0217  0.0397  0.0111
63471DOD     C234233  24.370  25.519   5.005  0.0427  0.1787  0.2156
63471DOD     C334234  24.304  25.014   4.981  0.1492  0.3450 -0.0948
63472DOD     C134235  18.958   9.558  21.935  0.1806  0.3664  0.2270
63472DOD     C234236  18.618   9.782  22.208  0.0085 -0.0292 -0.0150
63472DOD     C334237  18.196   9.801  22.240 -0.0567 -0.0488 -0.1973
63473DOD     C134238  25.876  11.380  24.817  0.0095 -0.1083  0.0308
63473DOD     C234239  25.519  11.606  24.931  0.0530  0.1015  0.0140
63473DOD     C334240  25.105  11.715  24.866  0.2239  0.1477 -0.0234
63474DOD     C134241  14.094  18.835  15.436 -0.1614 -0.0030  0.0731
63474DOD     C234242  14.155  18.880  14.944  0.1804  0.1953  0.1604
63474DOD     C334243  13.858  19.006  14.599 -0.0201 -0.1007 -0.2968
63475DOD     C134244  30.203   5.008  22.088 -0.2957  0.0050 -0.1915
63475DOD     C234245  29.892   4.790  22.333  0.1025  0.0178 -0.1417
63475DOD     C334246  29.602   4.447  22.405 -0.0976 -0.0855 -0.0661
63476DOD     C134247   9.866   7.797   8.805 -0.0301 -0.0037  0.2063
63476DOD     C234248  10.008   7.413   8.557 -0.1365  0.0805 -0.0991
63476DOD     C334249  10.126   7.429   8.135 -0.1405 -0.0692 -0.1563
63477DOD     C134250  17.237  10.093   7.139 -0.2158  0.0673  0.2613
63477DOD     C234251  17.003   9.789   6.901  0.1608  0.0931 -0.0417
63477DOD     C334252  16.578   9.720   6.742 -0.3121  0.0943 -0.1630
63478DOD     C134253   5.517   0.396  10.494 -0.1671  0.0248  0.2472
63478DOD     C234254   5.656   0.825  10.395  0.4325  0.2112  0.0504
63478DOD     C334255   5.980   1.125  10.181 -0.1774  0.0227 -0.0283
63479DOD     C134256  18.701   6.755  29.358 -0.0324  0.1557  0.0121
63479DOD     C234257  18.747   6.351  29.601  0.4381  0.1792  0.3103
63479DOD     C334258  18.902   5.969  29.824 -0.1346  0.0702  0.4363
63480DOD     C134259   0.334   3.516  15.930  0.2306 -0.1786 -0.1259
63480DOD     C234260   0.468   3.512  16.382 -0.1453 -0.2110 -0.2114
63480DOD     C334261   0.768   3.382  16.791 -0.3574  0.0584 -0.1135
63481DOD     C134262  18.751  18.071  22.380 -0.0050 -0.0684 -0.2410
63481DOD     C234263  18.915  18.402  22.041  0.0075  0.1377  0.0940
63481DOD     C334264  18.682  18.732  21.778  0.1265 -0.1923  0.1556
63482DOD     C134265  15.274  22.213  18.959  0.1882  0.2199  0.3885
63482DOD     C234266  15.624  22.242  19.297 -0.0687 -0.4913 -0.3819
63482DOD     C334267  15.919  22.557  19.598  0.3105  0.1262  0.2085
63483DOD     C134268  28.031  24.618   5.560 -0.1516 -0.2855  0.0994
63483DOD     C234269  28.247  24.588   5.950 -0.0653 -0.1344  0.2476
63483DOD     C334270  28.675  24.489   6.116 -0.0912 -0.0411 -0.2535
63484DOD     C134271   6.413  14.072  27.039  0.1113 -0.2139  0.4363
63484DOD     C234272   6.574  14.291  27.426 -0.2308 -0.3165 -0.0862
63484DOD     C334273   6.799  14.487  27.806  0.1239 -0.0498  0.3174
63485DOD     C134274  15.055  20.428  22.968  0.1249  0.0213  0.0327
63485DOD     C234275  14.714  20.580  22.645 -0.1734 -0.2338  0.0084
63485DOD     C334276  14.357  20.797  22.470  0.2581  0.4211 -0.0967
63486DOD     C134277  12.230  14.392  17.604 -0.0133 -0.0051 -0.2960
63486DOD     C234278  11.837  14.331  17.354  0.2792  0.2127 -0.4616
63486DOD     C334279  11.454  14.053  17.278 -0.2990 -0.1815  0.0245
63487DOD     C134280   8.714   8.813   1.437  0.0915 -0.2061  0.2299
63487DOD     C234281   8.704   9.233   1.550  0.0505  0.0484  0.0199
63487DOD     C334282   8.771   9.638   1.804  0.2832 -0.1783  0.1248
63488DOD     C134283  29.341  10.032  14.412 -0.3623  0.2576  0.3655
63488DOD     C234284  29.058  10.302  14.234 -0.2261  0.1369  0.2571
63488DOD     C334285  29.018  10.740  14.080 -0.1134 -0.6599 -0.3407
63489DOD     C134286  23.231  25.445   3.632  0.2956 -0.1526  0.0487
63489DOD     C234287  22.932  25.295   3.448  0.0001  0.0587  0.1426
63489DOD     C334288  22.900  24.934   3.116  0.2137 -0.2041  0.0984
63490DOD     C134289  25.897   7.289  22.591 -0.0180  0.4090  0.0212
63490DOD     C234290  25.467   7.080  22.464  0.1082  0.2403 -0.2578
63490DOD     C334291  25.335   6.697  22.619  0.3067  0.1781 -0.0034
63491DOD     C134292  12.319  17.353   0.091  0.0685  0.1740 -0.0336
63491DOD     C234293  12.041  17.753   0.060  0.0235  0.1921 -0.2763
63491DOD     C334294  12.032  18.125  30.075  0.2945  0.1183 -0.0471
63492DOD     C134295  24.534  30.071  18.350 -0.1129  0.1491 -0.2650
63492DOD     C234296  24.796   0.117  18.489 -0.0768 -0.2502 -0.0649
63492DOD     C334297  24.920   0.345  18.868  0.0848  0.0532 -0.4091
63493DOD     C134298   4.790  11.793   6.192  0.2420  0.0750 -0.0743
63493DOD     C234299   5.156  11.702   5.931 -0.0986  0.0005  0.0629
63493DOD     C334300   5.565  11.834   5.803 -0.1550 -0.2011  0.0370
63494DOD     C134301   8.125  27.771  25.254 -0.2837 -0.2697  0.0776
63494DOD     C234302   7.924  28.170  25.405 -0.1625  0.2814  0.0340
63494DOD     C334303   7.586  28.376  25.606 -0.4595 -0.1163 -0.2609
63495DOD     C134304   2.489   7.302  11.956 -0.0058  0.2928 -0.1461
63495DOD     C234305   2.772   7.672  12.056  0.2120 -0.0067  0.0020
63495DOD     C334306   3.260   7.661  12.006 -0.2450  0.0978  0.0473
63496DOD     C134307   7.122   3.741  19.327  0.0446  0.2458 -0.1710
63496DOD     C234308   6.924   3.651  18.875 -0.0036  0.0286  0.2392
63496DOD     C334309   7.011   3.471  18.453  0.0080 -0.2299  0.0528
63497DOD     C134310  23.714  24.875  18.963  0.1126  0.0877 -0.2046
63497DOD     C234311  24.152  24.957  19.027 -0.0688 -0.1736  0.0521
63497DOD     C334312  24.641  24.844  18.923 -0.1828  0.1568 -0.1595
63498DOD     C134313  13.701   3.619  28.683  0.3428 -0.1136  0.2624
63498DOD     C234314  14.127   3.527  28.454  0.1333 -0.2063  0.3068
63498DOD     C334315  14.536   3.502  28.196 -0.0425 -0.0279 -0.1116
63499DOD     C134316   0.246  19.873  15.423  0.0106 -0.2646 -0.2087
63499DOD     C234317   0.551  19.559  15.293 -0.0102 -0.2087  0.0384
63499DOD     C334318   0.956  19.487  15.282  0.2339  0.2728 -0.1568
63500DOD     C134319   9.877  26.594  23.905 -0.0552 -0.0079  0.1579
63500DOD     C234320  10.287  26.846  23.800 -0.0173 -0.1646 -0.1019
63500DOD     C334321  10.695  27.095  23.834  0.1398  0.5262 -0.1895
63501DOD     C134322   9.022  18.763  22.649  0.2205 -0.1205 -0.0420
63501DOD     C234323   9.416  18.896  22.825 -0.1277  0.1202 -0.1126
63501DOD     C334324   9.834  19.126  22.697  0.2355 -0.1312 -0.0198
63502DOD     C134325  18.654  13.531  24.737 -0.1584 -0.1941 -0.2701
63502DOD     C234326  18.451  13.714  24.356 -0.3622  0.4730  0.2891
63502DOD     C334327  18.237  13.766  23.962  0.3544  0.2092 -0.0053
63503DOD     C134328   1.584   8.524   6.671 -0.0431 -0.0492 -0.1622
63503DOD     C234329   1.656   8.451   6.212 -0.1822  0.1810  0.1464
63503DOD     C334330   1.785   8.051   5.991 -0.0783  0.1545 -0.0129
63504DOD     C134331   1.753  28.729   1.287  0.4770  0.2935 -0.0439
63504DOD     C234332   2.047  28.429   1.306  0.0887  0.2184  0.1028
63504DOD     C334333   2.309  28.080   1.430  0.0353 -0.1534  0.0870
63505DOD     C134334   4.656  19.978  18.627 -0.1645 -0.1280 -0.2736
63505DOD     C234335   4.194  19.875  18.708  0.1737  0.0767 -0.0122
63505DOD     C334336   3.799  20.126  18.688 -0.0865 -0.1889  0.0240
63506DOD     C134337   3.084  12.571   1.005 -0.3891 -0.2305  0.0131
63506DOD     C234338   3.218  12.202   0.725  0.4958 -0.2125  0.0982
63506DOD     C334339   2.917  12.117   0.361 -0.2106 -0.0028  0.2140
63507DOD     C134340  25.381  20.798  13.685  0.6241  0.0264  0.1666
63507DOD     C234341  25.580  20.507  13.363 -0.2586  0.1802  0.0823
63507DOD     C334342  25.837  20.176  13.302  0.2158 -0.0906  0.5533
63508DOD     C134343  10.915  14.297  20.001 -0.0837  0.4594  0.1837
63508DOD     C234344  10.927  14.724  20.111  0.3940 -0.1664 -0.2512
63508DOD     C334345  11.073  15.138  20.296  0.3359 -0.0673  0.1845
63509DOD     C134346  25.281   3.781  12.316 -0.1448  0.3119 -0.3323
63509DOD     C234347  25.375   3.669  11.826 -0.0203  0.1179  0.0576
63509DOD     C334348  25.287   3.429  11.450 -0.0403 -0.4329  0.0173
63510DOD     C134349  15.547   8.596  19.523 -0.1064 -0.1691  0.0254
63510DOD     C234350  15.154   8.566  19.187 -0.1745  0.2480 -0.0049
63510DOD     C334351  14.786   8.394  19.020  0.2621  0.0989 -0.1652
63511DOD     C134352  18.485  19.181  11.979  0.3109 -0.1276  0.1341
63511DOD     C234353  18.231  19.387  12.326 -0.2705 -0.1650 -0.1286
63511DOD     C334354  17.984  19.207  12.695  0.0597 -0.0943 -0.0569
63512DOD     C134355  16.404  17.650   1.678 -0.0467 -0.2782  0.2848
63512DOD     C234356  16.477  18.062   1.878 -0.0505  0.1459 -0.1639
63512DOD     C334357  16.728  18.451   2.062 -0.0856  0.1477  0.1585
63513DOD     C134358   8.613   6.794   8.895  0.0438 -0.0044 -0.0967
63513DOD     C234359   8.317   7.129   9.032  0.0680  0.1334 -0.0641
63513DOD     C334360   8.038   7.468   8.952 -0.1828  0.1294 -0.0038
63514DOD     C134361  17.596  23.234  20.651  0.3583 -0.0077  0.0296
63514DOD     C234362  17.300  23.529  20.454  0.2131 -0.2092 -0.1630
63514DOD     C334363  17.041  23.924  20.431 -0.1385 -0.0118  0.0906
63515DOD     C134364  18.533  10.695   9.696 -0.1153  0.1426  0.4747
63515DOD     C234365  18.779  10.435   9.999 -0.0144  0.4522 -0.1185
63515DOD     C334366  19.041  10.453  10.358  0.0035 -0.2829  0.0180
63516DOD     C134367  21.153   0.044  16.673 -0.4856 -0.0641 -0.0485
63516DOD     C234368  21.425   0.093  16.332  0.1807  0.4476  0.3214
63516DOD     C334369  21.836   0.234  16.108  0.2280 -0.2532 -0.4240
63517DOD     C134370  27.212  18.949  25.462  0.0092  0.0003  0.2165
63517DOD     C234371  27.439  18.857  25.878  0.0077 -0.0322  0.0975
63517DOD     C334372  27.757  19.140  26.027  0.1537 -0.0074 -0.0016
63518DOD     C134373  18.062   0.296  20.657 -0.1095  0.2906  0.0524
63518DOD     C234374  18.012   0.737  20.492 -0.0985  0.2381 -0.1549
63518DOD     C334375  17.929   1.098  20.147 -0.1148  0.0350  0.3066
63519DOD     C134376   2.558  14.139  10.702  0.1775  0.0173 -0.2139
63519DOD     C234377   2.274  13.838  10.805  0.0911  0.1114 -0.1687
63519DOD     C334378   2.302  13.363  10.747  0.0012 -0.0556 -0.0016
63520DOD     C134379  16.901   3.435  26.897 -0.0357 -0.2130  0.0883
63520DOD     C234380  16.590   3.656  27.212  0.1935 -0.0601  0.3077
63520DOD     C334381  16.135   3.737  27.267  0.0398 -0.2594  0.0151
63521DOD     C134382  29.642  29.732  14.871 -0.2675  0.2096  0.0101
63521DOD     C234383  29.973  29.660  15.228 -0.0477  0.0380 -0.0428
63521DOD     C334384  30.160  29.815  15.648  0.1312  0.0236  0.2640
63522DOD     C134385  20.537  22.864  13.965  0.2595 -0.1580  0.0781
63522DOD     C234386  20.815  22.542  13.900 -0.3223  0.2696 -0.0528
63522DOD     C334387  20.900  22.203  14.161  0.1523 -0.3954  0.2463
63523DOD     C134388  29.672  28.127  17.176 -0.0984 -0.3335 -0.1136
63523DOD     C234389  29.956  28.457  17.027 -0.2096  0.1094  0.5046
63523DOD     C334390   0.148  28.508  16.834  0.0032 -0.0130  0.0326
63524DOD     C134391   6.788  18.024   2.250  0.2467 -0.1012  0.3755
63524DOD     C234392   6.982  18.421   2.157  0.0557  0.1836 -0.0769
63524DOD     C334393   7.358  18.519   2.403 -0.0857  0.1220  0.1888
63525DOD     C134394  21.905   6.074  14.825  0.1557  0.4208 -0.1364
63525DOD     C234395  21.642   6.296  15.089  0.0073 -0.2321 -0.1245
63525DOD     C334396  21.450   6.701  15.305 -0.1279  0.0722 -0.2585
63526DOD     C134397  14.100  27.578  28.417 -0.3213 -0.1627  0.2364
63526DOD     C234398  13.706  27.488  28.521  0.0560  0.0839 -0.1273
63526DOD     C334399  13.394  27.201  28.440 -0.2708 -0.2802  0.1607
63527DOD     C134400  26.079  12.811   7.907 -0.0680  0.0506 -0.1611
63527DOD     C234401  26.297  12.689   8.324  0.1355 -0.0927 -0.2933
63527DOD     C334402  26.216  12.486   8.792  0.0667 -0.1009  0.0189
63528DOD     C134403  13.880  20.655  24.393 -0.2179 -0.2456  0.0702
63528DOD     C234404  14.287  20.692  24.165 -0.2542  0.1627  0.1059
63528DOD     C334405  14.738  20.633  23.951  0.3495  0.1645  0.3274
63529DOD     C134406   9.316   0.121  20.009 -0.2406  0.0077  0.3383
63529DOD     C234407   8.876   0.091  20.054 -0.2725 -0.0199 -0.1494
63529DOD     C334408   8.548   0.204  20.334 -0.0966  0.1163  0.5320
63530DOD     C134409  17.451  17.001  29.520 -0.4138 -0.0019  0.2641
63530DOD     C234410  17.915  17.075  29.449 -0.0123 -0.2507  0.1494
63530DOD     C334411  18.409  16.956  29.569  0.3374 -0.3920 -0.0430
63531DOD     C134412  17.158  19.449   2.550 -0.0715  0.0651  0.4269
63531DOD     C234413  16.803  19.132   2.376 -0.3736 -0.0228  0.3426
63531DOD     C334414  16.294  19.027   2.322 -0.0974  0.0535  0.2261
63532DOD     C134415  22.830   3.071   9.681  0.1252 -0.1342 -0.3040
63532DOD     C234416  23.227   3.247   9.473 -0.2670  0.1030  0.0335
63532DOD     C334417  23.450   3.343   9.082  0.0660  0.3298  0.1323
63533DOD     C134418   8.049   8.777  17.446  0.0350 -0.0555  0.0339
63533DOD     C234419   8.476   8.692  17.380 -0.4217 -0.3334  0.0595
63533DOD     C334420   8.880   8.756  17.233 -0.0557 -0.1743  0.1127
63534DOD     C134421  16.708  20.779  22.192  0.1131 -0.1345  0.2061
63534DOD     C234422  16.562  20.844  22.636 -0.0140 -0.0820  0.0999
63534DOD     C334423  16.491  21.047  23.018  0.4871 -0.1097 -0.2314
63535DOD     C134424  28.498  11.172  21.646 -0.0711  0.3331 -0.1085
63535DOD     C234425  28.043  10.972  21.647 -0.2089  0.1638  0.1587
63535DOD     C334426  27.668  11.168  21.848  0.0716  0.1511 -0.0133
63536DOD     C134427   1.291   4.496  25.085 -0.0087 -0.2107  0.0093
63536DOD     C234428   1.525   4.127  25.246  0.2620 -0.3298  0.0732
63536DOD     C334429   1.992   4.192  25.336 -0.0386  0.0298 -0.0724
63537DOD     C134430  14.860   5.667   8.720 -0.1479 -0.1319  0.0884
63537DOD     C234431  14.903   6.080   8.484 -0.2224 -0.0317  0.3128
63537DOD     C334432  14.727   6.474   8.272  0.0264  0.0833  0.1717
63538DOD     C134433  15.028   0.227  27.829 -0.1205  0.2126 -0.0283
63538DOD     C234434  15.198  30.170  28.003  0.4520  0.0877  0.0712
63538DOD     C334435  14.928  29.775  28.182  0.3061  0.1493  0.2288
63539DOD     C134436  21.237   3.409  11.585 -0.2721 -0.1261 -0.0187
63539DOD     C234437  21.570   3.116  11.464 -0.0720  0.3273 -0.1773
63539DOD     C334438  21.961   3.309  11.558 -0.3206  0.3700  0.3776
63540DOD     C134439  13.607   8.559   5.436  0.1920  0.2744  0.4310
63540DOD     C234440  13.645   8.750   4.974  0.0859 -0.1047 -0.0855
63540DOD     C334441  13.268   8.802   4.713 -0.1931 -0.1788 -0.1236
63541DOD     C134442   2.605   6.178   1.106 -0.0620 -0.2057  0.4074
63541DOD     C234443   2.861   6.388   1.397  0.0833  0.0072 -0.2550
63541DOD     C334444   3.178   6.697   1.531  0.1969 -0.2289 -0.1533
63542DOD     C134445   9.747  24.029   6.588 -0.0578  0.2843  0.3155
63542DOD     C234446   9.754  24.352   6.256  0.1062 -0.2476  0.3217
63542DOD     C334447   9.735  24.623   5.851  0.5609 -0.0683 -0.0173
63543DOD     C134448   4.916   3.289  15.040  0.0288 -0.1002 -0.2547
63543DOD     C234449   5.380   3.315  14.994  0.2502  0.3094 -0.1971
63543DOD     C334450   5.858   3.219  15.022 -0.0547 -0.3804 -0.1289
63544DOD     C134451   4.086   1.216  15.157 -0.1861  0.2571  0.0705
63544DOD     C234452   3.802   1.427  14.850  0.2618  0.0940 -0.1433
63544DOD     C334453   3.351   1.543  14.756 -0.1435  0.3127 -0.0763
63545DOD     C134454  21.849  14.984   4.483 -0.0894  0.0233  0.2179
63545DOD     C234455  22.041  15.065   4.925  0.0383 -0.1007 -0.0905
63545DOD     C334456  22.356  15.124   5.292  0.0309  0.0560 -0.0395
63546DOD     C134457  16.147  26.769  21.106 -0.1437 -0.3618 -0.2133
63546DOD     C234458  15.968  26.717  20.646 -0.0120  0.2408  0.1198
63546DOD     C334459  15.986  26.649  20.184 -0.0903 -0.2700 -0.4266
63547DOD     C134460  25.167  16.266  11.110  0.1887 -0.2890  0.1134
63547DOD     C234461  24.711  16.123  10.997  0.0118 -0.1761 -0.0586
63547DOD     C334462  24.548  16.072  10.596 -0.1962  0.2306  0.0920
63548DOD     C134463  22.295  12.882   8.732 -0.3970  0.0001 -0.2224
63548DOD     C234464  22.181  12.673   9.157  0.2132 -0.2388  0.2502
63548DOD     C334465  22.165  12.437   9.540 -0.0869  0.1025 -0.1704
63549DOD     C134466  19.965   7.597   6.507  0.1106 -0.2290 -0.0818
63549DOD     C234467  19.672   7.979   6.643  0.2222 -0.0516 -0.0274
63549DOD     C334468  19.577   8.240   7.048  0.2133 -0.1076 -0.3289
63550DOD     C134469  16.863   8.646  25.900  0.1063  0.1126  0.0260
63550DOD     C234470  16.725   9.110  25.851 -0.1510  0.3535  0.0861
63550DOD     C334471  16.682   9.562  25.639 -0.1309  0.1483 -0.0355
63551DOD     C134472   8.168  28.476  30.228 -0.1000  0.2160 -0.1046
63551DOD     C234473   8.422  28.107  30.351  0.1397 -0.0366  0.3701
63551DOD     C334474   8.477  27.697   0.163 -0.0419  0.1770  0.2076
63552DOD     C134475  28.526  27.030  16.509 -0.0743  0.0133  0.1873
63552DOD     C234476  28.614  27.196  16.904 -0.2144  0.1563  0.1371
63552DOD     C334477  28.751  27.059  17.305  0.1162  0.2088  0.1172
63553DOD     C134478  16.209   8.069   5.272  0.3467  0.2477  0.2300
63553DOD     C234479  16.343   8.407   5.555 -0.3137  0.1504 -0.1664
63553DOD     C334480  16.609   8.681   5.852 -0.0129 -0.0619  0.4364
63554DOD     C134481  25.491   2.880  29.221 -0.0678 -0.1458  0.2276
63554DOD     C234482  25.210   3.036  28.845  0.0709  0.1918  0.1241
63554DOD     C334483  24.887   3.338  28.915  0.0764  0.0636 -0.1828
63555DOD     C134484  22.952   5.926  12.762 -0.2046  0.4009  0.0698
63555DOD     C234485  22.491   5.897  12.826  0.1613 -0.0293 -0.0349
63555DOD     C334486  22.040   5.899  12.805  0.2250  0.0249  0.0991
63556DOD     C134487   4.082  19.660  14.873  0.1044  0.2917  0.2295
63556DOD     C234488   4.468  19.644  14.566  0.1673  0.2209  0.0479
63556DOD     C334489   4.666  19.660  14.147  0.2440  0.1187 -0.2466
63557DOD     C134490   7.239   8.488   4.100 -0.0463  0.3253 -0.1677
63557DOD     C234491   7.395   8.153   3.823  0.0079  0.2346 -0.0949
63557DOD     C334492   7.487   7.947   3.441  0.0065 -0.1705 -0.1750
63558DOD     C134493   7.533   5.653  11.143 -0.2994  0.2341  0.1066
63558DOD     C234494   7.721   5.213  11.137 -0.1370 -0.0414 -0.5419
63558DOD     C334495   8.000   5.047  11.483  0.1112 -0.0738 -0.0236
63559DOD     C134496  27.426  12.913  26.549 -0.2950 -0.2188  0.2248
63559DOD     C234497  27.502  12.549  26.824 -0.0741 -0.0113 -0.0471
63559DOD     C334498  27.653  12.092  26.798 -0.3068 -0.2207  0.0833
63560DOD     C134499  13.552  21.330  17.954 -0.0862  0.0897 -0.0798
63560DOD     C234500  13.425  21.646  18.175  0.4570 -0.2329 -0.1944
63560DOD     C334501  13.195  22.088  18.103  0.0401  0.1617  0.2815
63561DOD     C134502   6.875  21.384  18.482  0.1024  0.0872  0.2610
63561DOD     C234503   7.315  21.569  18.560 -0.2649 -0.0817 -0.1430
63561DOD     C334504   7.782  21.611  18.534 -0.1630  0.1405  0.0859
63562DOD     C134505  26.439  26.089  26.891  0.1558  0.0956  0.2547
63562DOD     C234506  26.004  26.084  26.923 -0.1122  0.1971  0.0444
63562DOD     C334507  25.684  26.226  26.668 -0.2169 -0.2518  0.0320
63563DOD     C134508  10.775   9.663  16.013 -0.0586 -0.0011  0.4196
63563DOD     C234509  11.239   9.459  15.979  0.1691 -0.0787  0.0612
63563DOD     C334510  11.708   9.484  15.980 -0.0141  0.2835 -0.0936
63564DOD     C134511   3.576  15.760   5.953 -0.1999  0.0737  0.2606
63564DOD     C234512   3.235  15.910   6.227 -0.2226 -0.1057  0.0271
63564DOD     C334513   2.845  16.041   6.079 -0.0930 -0.1488 -0.0486
63565DOD     C134514   4.773  21.968   5.739 -0.1858 -0.2261 -0.0390
63565DOD     C234515   5.035  21.996   6.105 -0.1376 -0.1934 -0.0401
63565DOD     C334516   5.348  21.860   6.435  0.1167  0.4894 -0.0410
63566DOD     C134517  27.220   6.403   9.869 -0.0576  0.0250 -0.4192
63566DOD     C234518  27.659   6.282   9.777 -0.1223 -0.0194 -0.0079
63566DOD     C334519  28.099   6.187   9.665 -0.2527  0.2909  0.5346
63567DOD     C134520  25.123   6.102  18.412  0.1967 -0.4123 -0.1349
63567DOD     C234521  24.796   6.162  18.091 -0.1593 -0.3055 -0.3135
63567DOD     C334522  24.474   6.225  17.740 -0.1968 -0.0974  0.1059
63568DOD     C134523   0.460  18.171   0.092  0.0870  0.0281  0.0070
63568DOD     C234524   0.565  17.759   0.288 -0.1599 -0.1786  0.1331
63568DOD     C334525   0.357  17.328   0.354  0.3569 -0.0521  0.3199
63569DOD     C134526   1.721  11.065  14.708 -0.2966 -0.1826 -0.1826
63569DOD     C234527   1.826  10.648  14.505  0.1307 -0.3448 -0.0106
63569DOD     C334528   1.883  10.219  14.425 -0.2449 -0.2303  0.0599
63570DOD     C134529  21.829   8.964  24.942  0.0678 -0.0139 -0.0367
63570DOD     C234530  21.827   8.923  25.361 -0.0259 -0.0171  0.5034
63570DOD     C334531  21.725   8.621  25.725 -0.1239  0.4108  0.1958
63571DOD     C134532   7.224   5.555  12.950  0.0672  0.0916 -0.0185
63571DOD     C234533   7.500   5.250  12.675  0.0237  0.2219  0.0089
63571DOD     C334534   7.997   5.228  12.627 -0.1505  0.0328 -0.0696
63572DOD     C134535   6.462   5.227   9.308  0.2585 -0.0447  0.2471
63572DOD     C234536   6.380   5.503   9.682 -0.0863  0.0254 -0.0256
63572DOD     C334537   6.373   5.864   9.983  0.0010 -0.0226 -0.3515
63573DOD     C134538   7.555  11.441  11.980  0.1079  0.3173 -0.1507
63573DOD     C234539   7.228  11.579  11.707  0.0170  0.0167  0.0735
63573DOD     C334540   6.774  11.561  11.566 -0.1001  0.3722  0.0148
63574DOD     C134541  28.785   3.689  16.607  0.2107 -0.1988 -0.1702
63574DOD     C234542  28.774   3.388  17.016 -0.0013 -0.0825  0.1433
63574DOD     C334543  28.735   3.134  17.374 -0.0373  0.0072 -0.2629
63575DOD     C134544  10.603  29.444  26.877  0.0525 -0.1214  0.2158
63575DOD     C234545  10.793  29.842  26.856 -0.0917  0.1403  0.0505
63575DOD     C334546  10.733  30.314  26.763  0.0067  0.2869  0.2085
63576DOD     C134547   8.735  12.368  20.340 -0.0610 -0.0622 -0.2260
63576DOD     C234548   8.329  12.282  20.547 -0.3178  0.0351  0.0027
63576DOD     C334549   8.279  12.295  20.992  0.0623  0.2841  0.0148
63577DOD     C134550  28.441   9.073   3.379  0.3603  0.1767  0.0008
63577DOD     C234551  28.325   9.439   3.082  0.1571 -0.3392 -0.2161
63577DOD     C334552  28.307   9.673   2.744 -0.0906  0.1394  0.1334
63578DOD     C134553   7.686  22.966  17.986 -0.0288  0.1304  0.2218
63578DOD     C234554   8.046  22.896  18.329  0.3616 -0.2797  0.0447
63578DOD     C334555   7.940  22.591  18.714 -0.1365 -0.0048 -0.0719
63579DOD     C134556   8.461  28.864  16.662 -0.2999  0.2368 -0.0640
63579DOD     C234557   8.154  29.077  16.420  0.1700  0.1983  0.3526
63579DOD     C334558   8.151  29.487  16.193  0.1441 -0.2691 -0.3173
63580DOD     C134559  16.522  16.362  25.755 -0.2507  0.0751  0.0878
63580DOD     C234560  16.170  16.369  26.069 -0.0909 -0.2918 -0.1969
63580DOD     C334561  15.730  16.222  26.119 -0.0753  0.1607  0.2473
63581DOD     C134562   9.360   2.622   8.865 -0.1485  0.1245 -0.1513
63581DOD     C234563   9.248   2.343   9.286 -0.1951  0.1227  0.0391
63581DOD     C334564   9.231   2.464   9.744  0.1863  0.3038 -0.0150
63582DOD     C134565  25.136   5.953   9.274 -0.2261  0.2061  0.2606
63582DOD     C234566  24.745   5.793   9.560  0.3425  0.0733  0.0156
63582DOD     C334567  24.242   5.762   9.602 -0.4444 -0.3213  0.1490
63583DOD     C134568   8.102   0.324   4.040  0.0889  0.2597  0.0667
63583DOD     C234569   8.481   0.089   3.820 -0.0906 -0.0679  0.3524
63583DOD     C334570   8.915   0.209   3.760  0.4509 -0.2989 -0.0118
63584DOD     C134571  23.774  25.123  25.497 -0.1013 -0.2074  0.4476
63584DOD     C234572  23.713  24.922  25.910 -0.0096  0.4316 -0.0276
63584DOD     C334573  23.616  24.830  26.338 -0.1246 -0.3298  0.1534
63585DOD     C134574  25.623   3.329  23.544 -0.2229 -0.2708  0.0174
63585DOD     C234575  26.012   3.544  23.637  0.0808  0.2334  0.3963
63585DOD     C334576  26.272   3.906  23.480  0.2995 -0.2053  0.0698
63586DOD     C134577  29.316  12.766  26.728  0.0831 -0.0321  0.4904
63586DOD     C234578  29.671  12.490  26.480  0.1083  0.2646 -0.1351
63586DOD     C334579  29.851  12.073  26.236 -0.1853 -0.1163 -0.0352
63587DOD     C134580  25.664  29.028  19.112  0.2128  0.1014  0.0828
63587DOD     C234581  25.626  29.501  19.049  0.0850 -0.0678  0.1593
63587DOD     C334582  25.718  29.980  19.032  0.0620  0.2757  0.0675
63588DOD     C134583  15.164   7.489   0.996  0.2034  0.0450  0.0774
63588DOD     C234584  15.091   7.611   0.554  0.1436 -0.3342  0.0110
63588DOD     C334585  15.238   8.080   0.380  0.3742 -0.0689  0.2178
63589DOD     C134586  13.286  24.333  15.567 -0.1261 -0.0110  0.0633
63589DOD     C234587  13.327  24.795  15.429 -0.0715  0.1764  0.1379
63589DOD     C334588  13.394  25.247  15.493  0.2478  0.1511 -0.2329
63590DOD     C134589  14.967  27.409  21.270 -0.1638  0.1091  0.1938
63590DOD     C234590  14.636  27.750  21.233  0.0130  0.2083 -0.1782
63590DOD     C334591  14.477  28.222  21.358 -0.2573  0.2104  0.2823
63591DOD     C134592  19.966  14.840  17.250  0.1259 -0.1064 -0.0713
63591DOD     C234593  19.627  15.038  17.538 -0.0075 -0.0716  0.0861
63591DOD     C334594  19.636  15.299  17.949  0.0112  0.0820 -0.0892
63592DOD     C134595  26.807  27.309   8.057 -0.0311  0.0063 -0.0563
63592DOD     C234596  26.556  26.962   8.297 -0.2053 -0.2150  0.0597
63592DOD     C334597  26.355  26.946   8.731 -0.3134  0.0634  0.2835
63593DOD     C134598  23.963  26.154  15.969  0.1579 -0.0435 -0.2056
63593DOD     C234599  23.908  25.975  16.433 -0.3158  0.2463  0.3528
63593DOD     C334600  24.067  25.771  16.803 -0.2019  0.3793 -0.0766
63594DOD     C134601  29.390  18.918  29.436  0.0842  0.1439  0.2891
63594DOD     C234602  29.443  19.364  29.557  0.0921 -0.3193  0.0161
63594DOD     C334603  29.247  19.752  29.691  0.0403  0.2816 -0.1952
63595DOD     C134604  20.823  21.385  10.720  0.2581  0.1347 -0.2826
63595DOD     C234605  20.504  21.206  10.387 -0.0387 -0.1503 -0.1293
63595DOD     C334606  20.200  20.901  10.507 -0.1706 -0.0278 -0.0301
63596DOD     C134607  16.426   1.355  25.355 -0.0373  0.1309 -0.1887
63596DOD     C234608  16.197   0.974  25.466 -0.3487  0.1212  0.2021
63596DOD     C334609  16.185   0.575  25.242  0.0170  0.0578 -0.0427
63597DOD     C134610  13.990  28.596   7.145  0.0601  0.1188 -0.2278
63597DOD     C234611  13.828  29.025   7.397 -0.1740  0.0922 -0.2619
63597DOD     C334612  13.481  29.168   7.680  0.1458 -0.2416 -0.0998
63598DOD     C134613   0.870  23.817  16.206 -0.0641 -0.0896  0.0085
63598DOD     C234614   1.097  24.199  16.132  0.0166 -0.0992  0.0075
63598DOD     C334615   1.518  24.304  15.935 -0.1633  0.0602  0.0977
63599DOD     C134616  27.986  13.559   5.524  0.1611 -0.2389 -0.0676
63599DOD     C234617  27.563  13.644   5.698  0.0733  0.2148 -0.1679
63599DOD     C334618  27.536  13.802   6.099  0.2725 -0.0579  0.1081
63600DOD     C134619   9.178   5.521   3.369  0.1746 -0.0134  0.2037
63600DOD     C234620   9.117   5.438   2.911 -0.2783  0.3145 -0.1464
63600DOD     C334621   8.950   5.174   2.513 -0.1554 -0.0455  0.0452
63601DOD     C134622  27.299  15.020  24.999 -0.0157 -0.3137 -0.0285
63601DOD     C234623  26.974  14.708  25.144 -0.3227 -0.2155 -0.0075
63601DOD     C334624  26.755  14.396  25.384 -0.2480  0.2255 -0.0513
63602DOD     C134625   4.114  23.516   1.997  0.2739 -0.1076  0.1297
63602DOD     C234626   4.144  23.979   2.002  0.0825  0.0199  0.2261
63602DOD     C334627   4.350  24.350   2.189  0.2459 -0.0080 -0.0902
63603DOD     C134628  18.474  10.470   6.880  0.1378  0.3278 -0.2605
63603DOD     C234629  18.061  10.368   7.072 -0.0053  0.0998  0.0435
63603DOD     C334630  17.863   9.979   6.782 -0.1854  0.0172  0.6989
63604DOD     C134631   8.358   8.360   1.087  0.0687 -0.1137 -0.1259
63604DOD     C234632   8.809   8.459   1.007 -0.0238  0.0078  0.0696
63604DOD     C334633   9.135   8.563   1.342  0.4933  0.2316  0.3462
63605DOD     C134634  17.568   4.668  28.480  0.2035 -0.0658 -0.0047
63605DOD     C234635  17.575   4.926  28.908  0.3908  0.2217  0.2836
63605DOD     C334636  17.660   4.784  29.293  0.6104  0.0563  0.1295
63606DOD     C134637  20.795   5.721   6.730  0.1123  0.1383 -0.2721
63606DOD     C234638  20.855   6.060   6.375  0.1965  0.2296 -0.1077
63606DOD     C334639  20.937   6.458   6.147 -0.2401  0.2381  0.2126
63607DOD     C134640  22.804  21.730  26.998  0.0049  0.0826 -0.0013
63607DOD     C234641  22.514  21.958  26.697  0.1560  0.1637  0.1717
63607DOD     C334642  22.165  21.792  26.453 -0.2328 -0.1521 -0.2738
63608DOD     C134643   3.614  23.201  20.504 -0.1491  0.1035 -0.2779
63608DOD     C234644   3.693  23.394  20.884 -0.0022  0.0089  0.0396
63608DOD     C334645   3.717  23.547  21.309 -0.1052 -0.1665  0.2071
63609DOD     C134646  10.457  11.582  24.703 -0.0407  0.0525 -0.1602
63609DOD     C234647  10.929  11.623  24.597  0.1356  0.3486 -0.0279
63609DOD     C334648  11.396  11.571  24.707  0.4454 -0.0597  0.0524
63610DOD     C134649  25.043  10.871  21.034  0.0378  0.1917 -0.2128
63610DOD     C234650  24.967  10.525  21.349 -0.2291 -0.0751 -0.2125
63610DOD     C334651  24.935  10.068  21.260  0.0118  0.3279 -0.2277
63611DOD     C134652  29.004   7.400  27.515 -0.2298  0.1378  0.0029
63611DOD     C234653  29.420   7.371  27.296  0.0634 -0.0136 -0.0784
63611DOD     C334654  29.730   7.056  27.258  0.2032 -0.0325  0.0647
63612DOD     C134655  18.713  14.272  28.432  0.0514 -0.3390  0.4469
63612DOD     C234656  18.951  14.657  28.464 -0.0927 -0.2108 -0.1170
63612DOD     C334657  18.979  15.014  28.187  0.0393  0.1584 -0.1668
63613DOD     C134658  21.882   5.015  18.786  0.2393  0.1925 -0.1626
63613DOD     C234659  21.580   5.277  18.595 -0.2394 -0.2705 -0.0382
63613DOD     C334660  21.562   5.459  18.158  0.0251 -0.1201 -0.0527
63614DOD     C134661  24.310  26.917   3.497 -0.0390  0.4824 -0.2214
63614DOD     C234662  24.566  26.554   3.634 -0.3245 -0.3326 -0.0186
63614DOD     C334663  24.456  26.180   3.841  0.1593  0.3770 -0.1110
63615DOD     C134664  20.893  19.707   4.620 -0.2592  0.1918 -0.0965
63615DOD     C234665  21.081  19.578   4.208  0.1372  0.0449 -0.1079
63615DOD     C334666  21.034  19.266   3.914  0.0801 -0.2351 -0.1749
63616DOD     C134667  30.212  16.543  11.873 -0.4879  0.0774  0.0304
63616DOD     C234668  29.924  16.721  11.565 -0.0055 -0.3226 -0.0724
63616DOD     C334669  29.731  16.700  11.165 -0.0789 -0.0359 -0.2996
63617DOD     C134670  13.078   2.089  21.053 -0.0110 -0.1319 -0.0279
63617DOD     C234671  13.300   1.700  20.881 -0.1303  0.4739 -0.0308
63617DOD     C334672  13.413   1.593  20.441  0.1525  0.2212 -0.0023
63618DOD     C134673  15.350  11.371  22.742  0.1640  0.0050  0.0064
63618DOD     C234674  14.961  11.136  22.800 -0.3151  0.0552  0.0493
63618DOD     C334675  14.505  11.106  22.674  0.1881 -0.3636  0.0327
63619DOD     C134676  23.374   1.887  21.087 -0.1000 -0.1292  0.0309
63619DOD     C234677  23.477   1.447  21.132  0.0331  0.1154  0.0457
63619DOD     C334678  23.582   1.061  21.479 -0.0612 -0.1274 -0.1135
63620DOD     C134679  28.408   7.510   9.595  0.0482 -0.3617  0.1764
63620DOD     C234680  27.963   7.747   9.651  0.0830  0.0831 -0.0552
63620DOD     C334681  27.571   7.988   9.652 -0.1649 -0.0634 -0.0212
63621DOD     C134682  24.731   5.884   9.003  0.0854  0.0773  0.2719
63621DOD     C234683  24.424   6.168   8.807  0.0799 -0.0323 -0.1285
63621DOD     C334684  23.923   6.159   8.885 -0.2604  0.1748  0.0151
63622DOD     C134685  25.081   3.060   5.878 -0.1012  0.1693  0.1931
63622DOD     C234686  24.664   3.104   5.979 -0.1323 -0.2661  0.0139
63622DOD     C334687  24.185   3.200   6.041 -0.0704  0.1727 -0.1163
63623DOD     C134688   1.685  19.114  24.808 -0.2219 -0.2284 -0.2120
63623DOD     C234689   1.754  19.056  25.246  0.1119 -0.1104 -0.1281
63623DOD     C334690   2.036  19.037  25.649  0.2749  0.1895 -0.0531
63624DOD     C134691  17.921  17.529  17.527 -0.3952 -0.0920 -0.1692
63624DOD     C234692  17.912  17.747  17.914 -0.1203 -0.1185 -0.0494
63624DOD     C334693  17.620  17.822  18.304 -0.0304  0.1259  0.1345
63625DOD     C134694  29.631   8.640  11.719 -0.1287 -0.0755  0.1012
63625DOD     C234695  29.988   8.843  11.798 -0.2522  0.2402 -0.1377
63625DOD     C334696   0.135   8.964  11.761 -0.2255  0.0031 -0.2025
63626DOD     C134697  20.575  16.703   4.837 -0.0558  0.0454  0.4088
63626DOD     C234698  20.478  16.669   4.365  0.2529 -0.0577 -0.3184
63626DOD     C334699  20.485  16.686   3.914 -0.1737 -0.2107 -0.2298
63627DOD     C134700  26.917   0.837  14.671  0.2259 -0.1868 -0.0778
63627DOD     C234701  27.170   1.180  14.414  0.2171  0.1676  0.2987
63627DOD     C334702  27.445   1.426  14.103  0.1516 -0.0241  0.0706
63628DOD     C134703  29.879  26.119  28.803 -0.2439 -0.3789  0.3066
63628DOD     C234704  30.023  26.442  28.472  0.1622 -0.2594  0.2078
63628DOD     C334705  30.177  26.785  28.262 -0.1911 -0.0003  0.3302
63629DOD     C134706  27.385   0.950  20.413 -0.1651 -0.2040 -0.1992
63629DOD     C234707  27.717   1.254  20.337  0.0422  0.0626  0.0910
63629DOD     C334708  28.160   1.258  20.373  0.1361  0.1379 -0.1029
63630DOD     C134709   9.580  29.856   6.973 -0.2176  0.2009  0.3368
63630DOD     C234710   9.859  30.079   7.266 -0.0764 -0.2228 -0.0063
63630DOD     C334711  10.120   0.133   7.502 -0.2111 -0.0095 -0.1190
63631DOD     C134712  13.859  30.359  24.752  0.1022  0.4119 -0.0170
63631DOD     C234713  13.960   0.190  24.393  0.2393 -0.4005 -0.2494
63631DOD     C334714  14.133   0.277  23.919 -0.1126  0.0100  0.0739
63632DOD     C134715  22.131  18.202  12.950 -0.1669  0.2027  0.0898
63632DOD     C234716  21.780  18.423  13.159 -0.2403 -0.0098  0.0124
63632DOD     C334717  21.332  18.552  12.946 -0.1421  0.1353 -0.0509
63633DOD     C134718  17.844  30.079   4.779 -0.1661 -0.2058  0.3731
63633DOD     C234719  17.362  30.032   4.793  0.0316  0.1065  0.0107
63633DOD     C334720  16.931  30.096   4.980  0.1288  0.1071  0.1601
63634DOD     C134721   9.368  21.880  19.044 -0.2385 -0.0026  0.0928
63634DOD     C234722   9.348  21.419  19.162 -0.3325 -0.1047 -0.0887
63634DOD     C334723   9.475  21.056  19.267 -0.0624  0.0456  0.1189
63635DOD     C134724   7.716  19.123   4.260 -0.0366  0.1607 -0.1019
63635DOD     C234725   8.025  19.416   4.188 -0.0623  0.0186  0.2973
63635DOD     C334726   8.134  19.860   4.243 -0.1831  0.1826 -0.0804
63636DOD     C134727  24.596  24.774  20.423  0.1576  0.0744  0.1427
63636DOD     C234728  24.986  24.531  20.680  0.1927  0.0505  0.1315
63636DOD     C334729  24.908  24.088  20.794 -0.2504 -0.1038  0.3392
63637DOD     C134730  16.013  21.295  13.906 -0.2629 -0.1500  0.1761
63637DOD     C234731  15.922  21.717  14.177  0.3137  0.0198 -0.0162
63637DOD     C334732  15.887  21.973  14.591  0.1634 -0.0985  0.1596
63638DOD     C134733  19.856  24.129  13.471  0.2482 -0.0762 -0.0251
63638DOD     C234734  19.774  24.130  13.918  0.0400 -0.1142 -0.1274
63638DOD     C334735  20.122  24.311  14.113 -0.1560  0.2373  0.2306
63639DOD     C134736   1.132  29.208   8.165 -0.2425 -0.0227 -0.1880
63639DOD     C234737   0.836  29.441   7.944  0.5428  0.1779  0.0582
63639DOD     C334738   0.354  29.591   7.936 -0.1704 -0.0555 -0.0470
63640DOD     C134739  17.273  13.492   6.518  0.2703  0.0248 -0.0774
63640DOD     C234740  17.275  13.963   6.550  0.0701 -0.1440 -0.2728
63640DOD     C334741  17.205  14.409   6.632  0.0774  0.2255 -0.0239
63641DOD     C134742  19.812  11.473   6.408  0.0672  0.1741 -0.0087
63641DOD     C234743  19.345  11.572   6.525  0.0458 -0.0459  0.1544
63641DOD     C334744  18.902  11.513   6.351 -0.0067  0.1638  0.1153
63642DOD     C134745  20.582  22.006  12.589  0.1236 -0.0424  0.3425
63642DOD     C234746  20.502  21.906  12.088  0.0663  0.2651 -0.3371
63642DOD     C334747  20.141  21.967  11.847  0.3045  0.1664 -0.2484
63643DOD     C134748  13.116   1.632  24.206 -0.0068  0.2847  0.3845
63643DOD     C234749  12.688   1.815  24.225 -0.0997 -0.1080 -0.0570
63643DOD     C334750  12.221   1.961  24.063 -0.2411  0.3151  0.1051
63644DOD     C134751   5.017  28.359  21.689 -0.1732 -0.4836  0.2619
63644DOD     C234752   4.740  28.089  21.444  0.2123 -0.1670 -0.0398
63644DOD     C334753   4.483  27.788  21.636 -0.2042 -0.1413  0.0731
63645DOD     C134754   1.925   5.565  16.175 -0.2314 -0.0504 -0.0888
63645DOD     C234755   1.974   5.987  16.235  0.0198 -0.1072 -0.0996
63645DOD     C334756   1.542   6.173  16.337  0.0305 -0.0498 -0.0780
63646DOD     C134757  22.900  23.901   3.914  0.2216 -0.1203  0.0340
63646DOD     C234758  22.930  23.849   4.390 -0.1298 -0.0915 -0.2649
63646DOD     C334759  23.075  23.925   4.848  0.0748 -0.0550 -0.0175
63647DOD     C134760  24.291  24.799  23.645 -0.0553 -0.4779  0.2667
63647DOD     C234761  24.360  25.234  23.518  0.3559  0.0326  0.1211
63647DOD     C334762  24.186  25.575  23.790 -0.0725  0.0987 -0.0092
63648DOD     C134763   5.619  24.258  18.684  0.1230  0.0967  0.0644
63648DOD     C234764   6.024  24.415  18.829 -0.0771  0.1250 -0.3174
63648DOD     C334765   6.389  24.213  19.195  0.3973  0.2005 -0.5117
63649DOD     C134766  16.796  25.478  25.514 -0.0215 -0.0029  0.1680
63649DOD     C234767  16.607  25.174  25.844 -0.2741 -0.2240  0.1112
63649DOD     C334768  16.302  24.984  26.206  0.0108  0.1476 -0.1976
63650DOD     C134769  11.202   4.082   8.502 -0.1590 -0.0231  0.1813
63650DOD     C234770  10.824   4.235   8.362  0.1346  0.0529  0.2323
63650DOD     C334771  10.433   4.551   8.432  0.0219 -0.0085 -0.2624
63651DOD     C134772  27.708  16.220   0.182  0.2448  0.3927  0.1614
63651DOD     C234773  27.764  16.539  30.190  0.1121 -0.2180 -0.0064
63651DOD     C334774  27.854  16.672  29.755 -0.0157  0.2824 -0.0042
63652DOD     C134775  29.711  18.218  28.157 -0.1214 -0.0939  0.2042
63652DOD     C234776  29.354  17.949  28.433 -0.0674 -0.4101  0.0424
63652DOD     C334777  29.118  17.833  28.815 -0.2084  0.1144  0.2414
63653DOD     C134778  26.463  15.325   4.504  0.0452  0.2320  0.0523
63653DOD     C234779  26.861  15.343   4.688 -0.4258 -0.0609  0.2820
63653DOD     C334780  27.285  15.241   4.669 -0.0216 -0.0854  0.0036
63654DOD     C134781  21.950  29.697  12.113  0.3189  0.2065 -0.1012
63654DOD     C234782  22.228  29.500  12.472 -0.0816  0.0757  0.1208
63654DOD     C334783  22.488  29.623  12.870  0.0878 -0.3244  0.0519
63655DOD     C134784  15.561  20.332  19.263  0.1003  0.1191  0.1704
63655DOD     C234785  15.120  20.256  19.184  0.0808 -0.1500 -0.0294
63655DOD     C334786  14.659  20.244  19.276 -0.1368  0.0125  0.1229
63656DOD     C134787  26.843   6.599  12.595 -0.0697 -0.0846  0.4404
63656DOD     C234788  26.417   6.697  12.836  0.1878 -0.0024  0.2382
63656DOD     C334789  26.069   6.369  12.953 -0.1467 -0.0613  0.2183
63657DOD     C134790  26.452  17.718   4.830 -0.2059 -0.1213  0.1420
63657DOD     C234791  26.495  18.161   5.122 -0.1478  0.0296 -0.1247
63657DOD     C334792  26.490  18.368   5.559  0.0622  0.1610 -0.1496
63658DOD     C134793  19.127  24.744  11.077 -0.1708 -0.0801  0.1900
63658DOD     C234794  18.804  24.859  11.360  0.0957 -0.2967 -0.1935
63658DOD     C334795  18.494  24.972  11.646  0.0085  0.1887 -0.1250
63659DOD     C134796  22.653   3.830  16.537  0.0627 -0.2963 -0.3152
63659DOD     C234797  22.423   4.240  16.702 -0.2508 -0.2939  0.1127
63659DOD     C334798  22.102   4.577  16.800  0.0558 -0.2712 -0.1517
63660DOD     C134799  12.371  14.691  13.052  0.1484  0.0134  0.1216
63660DOD     C234800  11.934  14.756  12.927  0.0076  0.0204 -0.3391
63660DOD     C334801  11.489  14.724  13.006  0.2387 -0.2382  0.1553
63661DOD     C134802  16.455  20.522  19.106 -0.0954 -0.1240  0.1944
63661DOD     C234803  16.419  20.828  18.727 -0.0760 -0.1051 -0.1220
63661DOD     C334804  16.430  21.124  18.371  0.3048 -0.2455 -0.0356
63662DOD     C134805   2.407  21.677  13.231 -0.1193 -0.2167 -0.0661
63662DOD     C234806   2.274  21.478  12.830 -0.1924  0.2253  0.1044
63662DOD     C334807   2.040  21.069  12.754 -0.1590 -0.1866  0.0810
63663DOD     C134808   0.404   8.972  23.568  0.1285  0.0862 -0.2822
63663DOD     C234809   0.551   9.336  23.846 -0.0545 -0.0588 -0.0447
63663DOD     C334810   0.240   9.632  24.071 -0.1057  0.2737 -0.2898
63664DOD     C134811  15.609  10.873   9.135  0.1405  0.2696  0.0906
63664DOD     C234812  15.226  10.802   9.433  0.0013  0.0769  0.1884
63664DOD     C334813  14.918  10.430   9.420  0.0869 -0.0042  0.0354
63665DOD     C134814   1.217   7.613  18.386 -0.0022 -0.0434  0.0753
63665DOD     C234815   1.155   7.988  18.659  0.1527  0.1797 -0.0520
63665DOD     C334816   1.394   8.353  18.769 -0.1018 -0.0503  0.1503
63666DOD     C134817   8.788  26.970  12.187  0.2050 -0.1481 -0.1816
63666DOD     C234818   8.380  26.791  12.202 -0.1122 -0.0728 -0.2944
63666DOD     C334819   7.924  26.892  12.240  0.3004 -0.0586 -0.0518
63667DOD     C134820  18.053  16.993  12.521  0.1544 -0.1618 -0.3493
63667DOD     C234821  18.025  16.713  12.198 -0.1293 -0.1335  0.1914
63667DOD     C334822  17.806  16.803  11.770  0.2390  0.0310  0.0918
63668DOD     C134823  30.110  29.560   1.571 -0.0085  0.1038 -0.0701
63668DOD     C234824  29.907  29.522   1.147  0.1384 -0.1048 -0.0116
63668DOD     C334825  29.737  29.797   0.788 -0.2001  0.0848 -0.2843
63669DOD     C134826  16.837  29.166   6.917 -0.4636  0.2495  0.2723
63669DOD     C234827  17.205  29.422   6.713  0.0781 -0.3022  0.1464
63669DOD     C334828  17.454  29.830   6.777  0.0026  0.0670 -0.0789
63670DOD     C134829  23.852  28.813  22.385 -0.1223 -0.0892 -0.3601
63670DOD     C234830  23.788  28.390  22.198  0.0347  0.2915 -0.0773
63670DOD     C334831  23.847  27.931  22.338 -0.0389 -0.1240 -0.1047
63671DOD     C134832   1.368   2.520  15.434 -0.1565 -0.1375 -0.0503
63671DOD     C234833   1.302   2.897  15.674  0.1612  0.3837  0.3031
63671DOD     C334834   1.342   3.184  16.025  0.0528 -0.0918 -0.1088
63672DOD     C134835   6.051  24.357  14.567 -0.1695 -0.3416  0.1676
63672DOD     C234836   6.109  24.641  14.960 -0.1659 -0.3466 -0.1811
63672DOD     C334837   6.295  24.763  15.439  0.1544 -0.1060  0.1124
63673DOD     C134838  27.047   6.303  13.962  0.0760  0.1954  0.0329
63673DOD     C234839  27.228   6.159  13.553  0.2746  0.0696 -0.1289
63673DOD     C334840  27.396   5.814  13.279 -0.0922 -0.2041 -0.2119
63674DOD     C134841  26.451  26.339  12.387  0.0303 -0.1663 -0.0154
63674DOD     C234842  26.581  26.053  12.030 -0.2756 -0.1824 -0.2879
63674DOD     C334843  26.753  25.716  11.728  0.1591  0.0130 -0.1402
63675DOD     C134844   5.036   5.975  30.197 -0.4061 -0.0928  0.1155
63675DOD     C234845   5.395   6.263  30.198 -0.1225 -0.1665  0.0056
63675DOD     C334846   5.759   6.399  30.041  0.1562  0.2365 -0.0147
63676DOD     C134847   8.204  11.422  22.181 -0.1824  0.1360  0.0260
63676DOD     C234848   8.355  11.416  21.741  0.0328 -0.1682  0.1128
63676DOD     C334849   8.495  11.377  21.290  0.1908 -0.2374  0.0462
63677DOD     C134850  11.457  18.973   4.981  0.0038  0.0791  0.0709
63677DOD     C234851  11.010  19.123   5.129  0.0806  0.1288  0.2190
63677DOD     C334852  10.618  19.370   5.204 -0.0781  0.0586  0.0135
63678DOD     C134853  12.798  14.473  20.077  0.2085 -0.1909  0.1591
63678DOD     C234854  13.000  14.383  20.518 -0.0622  0.0244 -0.3259
63678DOD     C334855  13.112  14.488  20.931  0.2533  0.3502  0.2364
63679DOD     C134856   4.480  28.159   3.622  0.0277  0.1267 -0.4011
63679DOD     C234857   4.766  28.284   3.276 -0.0187 -0.0861  0.1038
63679DOD     C334858   5.153  28.549   3.345  0.1332 -0.2450  0.2554
63680DOD     C134859   0.718  30.251  19.711  0.0603  0.0127 -0.1581
63680DOD     C234860   0.241  30.266  19.557  0.1940 -0.1236 -0.4032
63680DOD     C334861  30.276   0.299  19.540  0.0123  0.2717 -0.0127
63681DOD     C134862   2.808  10.062  10.363 -0.4336  0.3459 -0.1497
63681DOD     C234863   3.210   9.841  10.231 -0.1286 -0.2480 -0.2388
63681DOD     C334864   3.565   9.546  10.330  0.1143 -0.1889 -0.0504
63682DOD     C134865  22.615  26.786  16.395 -0.1946 -0.0674 -0.0321
63682DOD     C234866  22.567  27.230  16.242 -0.3821 -0.1931 -0.1817
63682DOD     C334867  22.375  27.647  16.195  0.0098  0.1611  0.0799
63683DOD     C134868   5.656   7.540  19.670  0.3916 -0.1131  0.3096
63683DOD     C234869   5.435   7.206  19.903  0.1737  0.2114 -0.1608
63683DOD     C334870   5.407   7.033  20.316 -0.2137  0.2977 -0.1594
63684DOD     C134871   2.844   7.630  22.386  0.0076 -0.2551  0.1862
63684DOD     C234872   2.616   8.019  22.485  0.3075  0.1276 -0.1093
63684DOD     C334873   2.195   8.147  22.695  0.1927  0.1143 -0.2993
63685DOD     C134874  22.053  11.481  10.352  0.1017  0.0061  0.0953
63685DOD     C234875  21.707  11.637  10.137  0.1978 -0.0830 -0.0285
63685DOD     C334876  21.614  11.727   9.690  0.3106 -0.0475 -0.1060
63686DOD     C134877  15.001  27.453   2.952  0.0528  0.1956 -0.1176
63686DOD     C234878  14.901  27.901   2.814  0.0882  0.1375  0.0048
63686DOD     C334879  15.047  28.290   2.688 -0.0934  0.0465 -0.0390
63687DOD     C134880  21.270  28.783  10.800 -0.0819  0.0062  0.2221
63687DOD     C234881  21.361  29.044  11.206  0.1336  0.1484  0.0354
63687DOD     C334882  21.435  29.247  11.651 -0.0923 -0.0018 -0.0087
63688DOD     C134883  18.532   8.008  23.590 -0.0590  0.1303 -0.1149
63688DOD     C234884  18.456   8.488  23.544 -0.0327  0.1172  0.2612
63688DOD     C334885  18.599   8.969  23.592 -0.0200  0.0857  0.1896
63689DOD     C134886  29.448  23.522  24.486  0.0717 -0.0130  0.2243
63689DOD     C234887  29.309  23.796  24.855  0.0346 -0.1205 -0.0107
63689DOD     C334888  29.135  23.701  25.301  0.0206 -0.2469 -0.2140
63690DOD     C134889  19.930   2.191   4.357  0.2041  0.1304 -0.0997
63690DOD     C234890  20.157   2.384   4.700 -0.0994 -0.1242  0.3643
63690DOD     C334891  20.369   2.365   5.081  0.0858  0.0083 -0.2481
63691DOD     C134892  19.849   1.067  29.975 -0.0216  0.0210 -0.1226
63691DOD     C234893  20.254   0.939  29.787  0.1766  0.2206  0.0127
63691DOD     C334894  20.618   1.185  29.872 -0.1252 -0.1160  0.0244
63692DOD     C134895   6.628  22.203  29.260 -0.0595  0.0775 -0.1841
63692DOD     C234896   6.303  21.962  29.495 -0.0322  0.1308  0.1803
63692DOD     C334897   5.798  21.991  29.506 -0.2453 -0.0060 -0.3125
63693DOD     C134898  11.632  19.097  29.253 -0.1321  0.2459 -0.1239
63693DOD     C234899  11.642  18.917  29.650 -0.4041 -0.0401  0.3948
63693DOD     C334900  11.679  19.025  30.126 -0.2209  0.1418  0.0971
63694DOD     C134901   1.237  29.650  22.813  0.3493  0.1325  0.2085
63694DOD     C234902   1.411  29.390  22.474 -0.1445 -0.0311  0.0677
63694DOD     C334903   1.419  28.917  22.482  0.1776 -0.2786 -0.0212
63695DOD     C134904   5.960   9.380   1.944  0.1728  0.3086 -0.2896
63695DOD     C234905   6.334   9.121   1.801  0.2916 -0.1589 -0.1639
63695DOD     C334906   6.595   9.021   1.428 -0.2645  0.2839  0.1498
63696DOD     C134907  28.046   1.419   6.994  0.0961  0.1098  0.0761
63696DOD     C234908  27.801   1.348   7.419 -0.1961  0.0221 -0.1103
63696DOD     C334909  27.609   1.767   7.588 -0.1408 -0.2883 -0.3478
63697DOD     C134910   0.771  12.580  16.462 -0.1152  0.0748 -0.2719
63697DOD     C234911   0.353  12.453  16.541 -0.4895  0.1273  0.1830
63697DOD     C334912   0.019  12.161  16.546 -0.0025 -0.1307 -0.3851
63698DOD     C134913  18.013   0.943  27.454  0.1602  0.0059 -0.1161
63698DOD     C234914  17.876   0.886  27.931  0.1847  0.0425 -0.2115
63698DOD     C334915  17.527   0.682  28.149  0.1169 -0.3597 -0.3637
63699DOD     C134916   4.509  22.022  21.676 -0.2457  0.2792 -0.0053
63699DOD     C234917   4.750  21.631  21.666  0.0782 -0.1657  0.0056
63699DOD     C334918   5.134  21.507  21.392  0.0091  0.0553  0.1924
63700DOD     C134919  24.208   6.443   7.962 -0.0880  0.1259 -0.1348
63700DOD     C234920  24.524   6.434   7.580 -0.1101 -0.0984  0.0426
63700DOD     C334921  24.910   6.228   7.356  0.0427 -0.1320  0.2402
63701DOD     C134922  14.614   5.500  10.761  0.3074 -0.2105 -0.1257
63701DOD     C234923  14.901   5.145  10.897  0.1498  0.0161  0.0951
63701DOD     C334924  14.764   4.699  11.102 -0.1386  0.0675 -0.2192
63702DOD     C134925   3.627  10.805  25.968  0.1637 -0.0680  0.0817
63702DOD     C234926   3.145  10.730  26.007  0.2901  0.2500  0.1739
63702DOD     C334927   2.733  10.543  26.028  0.0225  0.3567 -0.3829
63703DOD     C134928  28.738   1.168   7.804  0.0041  0.1030 -0.1411
63703DOD     C234929  28.316   1.138   7.963  0.0442  0.0612  0.1154
63703DOD     C334930  27.850   1.028   7.971  0.0551 -0.1863 -0.0852
63704DOD     C134931   2.982   9.867   0.994 -0.3105 -0.1917  0.1151
63704DOD     C234932   3.311  10.156   1.115 -0.0382  0.2196  0.1321
63704DOD     C334933   3.566  10.547   1.002  0.2333 -0.0057  0.2911
63705DOD     C134934  12.746   4.622  20.096  0.0118 -0.4110 -0.3748
63705DOD     C234935  12.348   4.472  20.325  0.1050  0.1688  0.1152
63705DOD     C334936  12.040   4.168  20.539  0.2623 -0.1429  0.0496
63706DOD     C134937  12.648  13.272  23.537  0.0430  0.1334  0.1894
63706DOD     C234938  12.803  13.109  23.100  0.0900  0.1082 -0.4054
63706DOD     C334939  12.546  12.952  22.758 -0.3735  0.0583 -0.0807
63707DOD     C134940  21.474  16.183   5.693 -0.0075  0.0948  0.2922
63707DOD     C234941  21.565  16.090   6.135 -0.0011 -0.4924 -0.0655
63707DOD     C334942  21.597  16.169   6.543 -0.0623  0.4796  0.2163
63708DOD     C134943  27.837   9.473  19.349 -0.0038  0.3985 -0.3059
63708DOD     C234944  28.236   9.313  19.273 -0.4528  0.1502  0.2730
63708DOD     C334945  28.618   9.316  19.059 -0.1179 -0.0484 -0.0773
63709DOD     C134946  17.464  16.608   3.670 -0.1866  0.0420 -0.0514
63709DOD     C234947  17.089  16.391   3.456 -0.0900 -0.1234 -0.1099
63709DOD     C334948  16.602  16.301   3.512 -0.0240 -0.1920 -0.0962
63710DOD     C134949   7.282  22.994   6.411 -0.0946 -0.0956  0.0729
63710DOD     C234950   7.300  23.043   5.948 -0.0432 -0.2544 -0.1953
63710DOD     C334951   7.183  23.405   5.672  0.2812  0.0351 -0.0391
63711DOD     C134952  25.452  19.817   1.458  0.1489  0.2700 -0.1024
63711DOD     C234953  25.503  20.211   1.612 -0.0361 -0.1959  0.0488
63711DOD     C334954  25.755  20.578   1.594  0.0859 -0.2350 -0.1357
63712DOD     C134955  28.355   7.982  11.851  0.1920 -0.4260  0.0951
63712DOD     C234956  27.947   8.086  12.017  0.2434  0.1309  0.2314
63712DOD     C334957  27.480   8.172  11.969 -0.3632 -0.1606 -0.2516
63713DOD     C134958   9.525  19.970  15.001  0.1895 -0.1161 -0.0915
63713DOD     C234959   9.967  19.914  14.750  0.2153  0.2711 -0.0714
63713DOD     C334960  10.419  19.947  14.627 -0.2188 -0.0800  0.0412
63714DOD     C134961  19.532  17.690  23.255  0.0694 -0.2133 -0.1093
63714DOD     C234962  19.459  17.328  23.514 -0.1727 -0.1750  0.0655
63714DOD     C334963  19.490  17.070  23.922  0.0017 -0.0502 -0.0989
63715DOD     C134964   3.808  19.377   6.978  0.3743  0.0107 -0.1584
63715DOD     C234965   3.633  19.131   7.328  0.0686  0.4532 -0.0372
63715DOD     C334966   3.637  18.744   7.540  0.0793  0.0366 -0.1505
63716DOD     C134967  28.155  14.331   4.770  0.0345  0.0401 -0.1164
63716DOD     C234968  28.341  14.728   4.637 -0.0518 -0.1109  0.0259
63716DOD     C334969  28.351  14.947   4.244 -0.0915  0.1855  0.1862
63717DOD     C134970  19.523  22.711  11.567 -0.2059  0.2911  0.1595
63717DOD     C234971  19.178  22.980  11.377  0.1964 -0.1898 -0.0062
63717DOD     C334972  19.035  23.405  11.187  0.0322 -0.0051  0.1146
63718DOD     C134973   5.249   6.339  26.784  0.3272 -0.0916  0.1612
63718DOD     C234974   5.295   6.642  27.107 -0.0251  0.1105 -0.0030
63718DOD     C334975   5.567   6.578  27.480  0.2450  0.1734 -0.1110
63719DOD     C134976   3.363  18.377  10.627 -0.1576  0.3889 -0.1191
63719DOD     C234977   3.684  18.500  10.348  0.1433 -0.1660  0.2746
63719DOD     C334978   3.877  18.836  10.020 -0.0906  0.1694  0.0808
63720DOD     C134979  29.332   3.720   1.509  0.2294  0.0288  0.0874
63720DOD     C234980  28.878   3.639   1.531 -0.0737 -0.0758 -0.1603
63720DOD     C334981  28.676   3.330   1.646  0.0692 -0.0126 -0.2201
63721DOD     C134982   9.692  21.513  10.985 -0.1018  0.0555 -0.0134
63721DOD     C234983   9.805  21.451  11.431  0.2117 -0.2338 -0.0976
63721DOD     C334984   9.574  21.536  11.824 -0.0139 -0.1645  0.0514
63722DOD     C134985  11.828   3.532  21.842 -0.2013 -0.1640 -0.5653
63722DOD     C234986  11.528   3.550  21.493  0.2134 -0.1190 -0.1482
63722DOD     C334987  11.256   3.559  21.154  0.2734  0.3872  0.3474
63723DOD     C134988  29.830  26.162  14.294  0.0201  0.1360 -0.1773
63723DOD     C234989  30.285  26.162  14.469 -0.3761  0.1402 -0.2162
63723DOD     C334990   0.342  26.182  14.304  0.0729 -0.5057  0.1280
63724DOD     C134991   6.155  13.794  10.603 -0.0060  0.4086 -0.1583
63724DOD     C234992   6.127  14.189  10.827  0.0270 -0.0215 -0.0981
63724DOD     C334993   5.719  14.529  10.818 -0.2082 -0.0117  0.0375
63725DOD     C134994   5.642  27.763   9.462 -0.2678 -0.0241 -0.0009
63725DOD     C234995   5.453  27.314   9.316  0.1166 -0.1095  0.0494
63725DOD     C334996   5.451  26.872   9.193  0.0857 -0.2507 -0.2015
63726DOD     C134997  21.843  16.949  25.713  0.3089  0.1285  0.0742
63726DOD     C234998  21.839  16.532  25.938 -0.0986  0.2257  0.1356
63726DOD     C334999  21.906  16.095  26.004 -0.0886  0.3018 -0.0554
63727DOD     C135000   0.609  11.105  18.629 -0.2802  0.1506  0.1459
63727DOD     C235001   0.499  10.996  19.049 -0.3332  0.2735  0.0405
63727DOD     C335002   0.305  11.344  19.340 -0.1082  0.1271  0.2853
63728DOD     C135003  16.470  26.520  17.536 -0.1141 -0.1130 -0.2618
63728DOD     C235004  16.654  26.404  17.899  0.1117  0.3678  0.1724
63728DOD     C335005  17.031  26.109  18.062 -0.0067  0.1428 -0.2990
63729DOD     C135006  20.222  27.408   0.445 -0.0778  0.0382 -0.0518
63729DOD     C235007  19.749  27.313   0.438 -0.0505  0.1350 -0.2445
63729DOD     C335008  19.314  27.101   0.260 -0.0968  0.3965 -0.0145
63730DOD     C135009   1.441  13.008  19.980  0.2991  0.2839 -0.2218
63730DOD     C235010   1.830  12.849  20.212  0.1402 -0.1133  0.5138
63730DOD     C335011   1.939  12.382  20.096 -0.0430 -0.1761 -0.1329
63731DOD     C135012  19.457  23.502  15.025  0.2200  0.0048 -0.0203
63731DOD     C235013  19.722  23.891  15.126  0.1782 -0.2054  0.1675
63731DOD     C335014  19.991  24.042  14.793 -0.2313  0.0322 -0.2567
63732DOD     C135015  14.864  26.991  17.371 -0.0911 -0.2796  0.0194
63732DOD     C235016  14.722  27.414  17.455  0.1019  0.5599 -0.2172
63732DOD     C335017  14.365  27.556  17.234 -0.0126 -0.0526  0.0740
63733DOD     C135018   0.406  11.183  26.736 -0.0576 -0.2168 -0.1339
63733DOD     C235019   0.223  11.583  26.625 -0.1652 -0.0829 -0.4803
63733DOD     C335020   0.441  12.024  26.602  0.3799 -0.1641  0.4010
63734DOD     C135021  25.135  28.729   6.400  0.1775  0.1229 -0.2781
63734DOD     C235022  25.107  28.393   6.741 -0.0126 -0.1087  0.1441
63734DOD     C335023  25.074  27.965   6.915  0.1366  0.3042 -0.2976
63735DOD     C135024  21.432  27.628   5.980  0.2279 -0.0264  0.1965
63735DOD     C235025  21.033  27.587   5.693  0.2753  0.1695 -0.1196
63735DOD     C335026  20.947  27.573   5.189  0.0212  0.0457 -0.2458
63736DOD     C135027  15.725   0.529  25.086  0.1609 -0.0933  0.1133
63736DOD     C235028  15.275   0.638  24.977  0.2286  0.0812  0.1255
63736DOD     C335029  15.280   0.943  24.620  0.0470  0.0501 -0.0643
63737DOD     C135030  23.563  12.869  20.839  0.1618 -0.0873 -0.0565
63737DOD     C235031  23.830  12.557  20.567  0.0984 -0.1562  0.0697
63737DOD     C335032  24.110  12.173  20.495  0.0420  0.1450  0.0152
63738DOD     C135033   1.104  24.482   7.375  0.2337 -0.1370  0.0711
63738DOD     C235034   1.506  24.768   7.289 -0.1702 -0.1398 -0.0578
63738DOD     C335035   1.601  24.984   6.943 -0.0149 -0.0949  0.1577
63739DOD     C135036   3.241  22.391  10.940  0.0590 -0.1014 -0.0755
63739DOD     C235037   3.524  22.316  11.309 -0.2445 -0.0065 -0.0567
63739DOD     C335038   3.864  22.599  11.472  0.1903  0.1296  0.0600
63740DOD     C135039  30.193   5.099   5.882 -0.1372  0.1253  0.1172
63740DOD     C235040  29.855   5.353   5.694  0.0869  0.0537  0.2639
63740DOD     C335041  29.600   5.285   5.248 -0.0614  0.1712  0.0556
63741DOD     C135042   4.063  17.953   2.603 -0.2401 -0.0947 -0.1123
63741DOD     C235043   4.487  18.019   2.467 -0.2000 -0.1165 -0.0089
63741DOD     C335044   4.900  17.911   2.399  0.0678  0.1862  0.2018
63742DOD     C135045  21.039  26.067  17.647  0.0446  0.2149  0.4084
63742DOD     C235046  21.195  25.895  17.274  0.0734  0.1369  0.0523
63742DOD     C335047  21.459  25.759  16.928 -0.0601  0.0588  0.2108
63743DOD     C135048   0.479  20.799  28.573  0.0011  0.1315  0.1217
63743DOD     C235049   0.110  20.727  28.733  0.4513  0.0898  0.2593
63743DOD     C335050  30.175  20.456  29.009 -0.2532 -0.3926 -0.3221
63744DOD     C135051  10.093  19.974   1.855 -0.1649  0.1030 -0.0808
63744DOD     C235052  10.285  20.173   2.227  0.1759  0.1472 -0.2578
63744DOD     C335053  10.230  20.271   2.674  0.1052  0.2131  0.2367
63745DOD     C135054  19.285   4.728  14.879 -0.3846  0.0916 -0.2393
63745DOD     C235055  19.049   4.535  15.231 -0.1287  0.1166 -0.2909
63745DOD     C335056  18.911   4.531  15.669 -0.2698  0.1466 -0.0318
63746DOD     C135057  16.460   6.645   5.393 -0.2184 -0.0387 -0.1261
63746DOD     C235058  16.589   6.957   5.724 -0.1854  0.2797 -0.1567
63746DOD     C335059  16.994   7.173   5.869  0.1916 -0.0761 -0.3530
63747DOD     C135060  10.499  19.532   7.654 -0.0832 -0.1321  0.3630
63747DOD     C235061  10.457  19.330   8.064  0.2075 -0.5637  0.2883
63747DOD     C335062  10.594  19.218   8.473  0.0462  0.1100 -0.1602
63748DOD     C135063  25.343   0.634  30.305  0.2490 -0.2170  0.0400
63748DOD     C235064  25.029   0.414  30.088 -0.1057 -0.2866 -0.2515
63748DOD     C335065  24.601   0.297  30.100  0.0642 -0.2356 -0.1590
63749DOD     C135066  13.482   2.796   6.359 -0.0078  0.0395 -0.1121
63749DOD     C235067  13.521   2.321   6.344  0.3036 -0.2035  0.3551
63749DOD     C335068  13.638   1.876   6.308  0.2039 -0.3471  0.0882
63750DOD     C135069  16.294   9.511   8.877 -0.1733 -0.1349 -0.1570
63750DOD     C235070  16.735   9.515   8.886  0.0550  0.0510 -0.0860
63750DOD     C335071  17.023   9.341   8.612 -0.1540 -0.0114  0.2509
63751DOD     C135072   2.637  17.777  12.637  0.3953 -0.3821  0.3441
63751DOD     C235073   2.454  18.243  12.723 -0.1549  0.3089 -0.2498
63751DOD     C335074   2.209  18.512  12.430 -0.0532 -0.2447 -0.2958
63752DOD     C135075   9.944  22.011  28.877 -0.3100  0.2733 -0.1232
63752DOD     C235076   9.798  22.456  28.760 -0.0522  0.0076 -0.0235
63752DOD     C335077  10.008  22.836  28.873  0.1446 -0.0894 -0.0102
63753DOD     C135078  13.522   3.614  18.193  0.1960 -0.3780  0.0986
63753DOD     C235079  13.288   3.239  18.064  0.0878  0.0739 -0.1918
63753DOD     C335080  12.857   3.166  18.157 -0.0236  0.2778  0.1450
63754DOD     C135081   3.943  26.007  23.173 -0.0525 -0.1907 -0.2228
63754DOD     C235082   4.272  25.893  22.861 -0.0700 -0.1386 -0.1587
63754DOD     C335083   4.600  26.054  22.558 -0.1821 -0.0255 -0.1490
63755DOD     C135084  17.934  26.037  21.455  0.1234  0.1810  0.0233
63755DOD     C235085  18.275  26.208  21.727 -0.2332 -0.1463  0.0461
63755DOD     C335086  18.575  26.090  22.068 -0.1973 -0.0986 -0.3061
63756DOD     C135087  26.745   2.728  14.686 -0.0183 -0.0293 -0.0860
63756DOD     C235088  26.308   2.584  14.821 -0.0371 -0.0806 -0.2566
63756DOD     C335089  25.861   2.720  14.908  0.1216 -0.0228  0.1911
63757DOD     C135090   1.838  27.364  28.043  0.0983 -0.0539 -0.1901
63757DOD     C235091   1.500  27.103  27.860  0.0618 -0.0318  0.0451
63757DOD     C335092   1.168  26.803  27.791 -0.0529  0.2245 -0.2829
63758DOD     C135093  29.237  27.899   6.774  0.1599  0.1813 -0.0415
63758DOD     C235094  28.882  27.577   6.658  0.1007 -0.0939 -0.1028
63758DOD     C335095  28.422  27.531   6.604  0.2724 -0.1250  0.1954
63759DOD     C135096  28.273  21.143  21.690  0.0011 -0.1556  0.0927
63759DOD     C235097  28.153  21.469  21.405  0.0615 -0.1676  0.2759
63759DOD     C335098  28.233  21.737  20.957 -0.1302 -0.2360 -0.3294
63760DOD     C135099   8.467  29.598  24.952 -0.1899  0.0504 -0.3419
63760DOD     C235100   8.613  29.314  24.670 -0.0008 -0.0199 -0.0297
63760DOD     C335101   8.861  28.967  24.457 -0.2447 -0.0851 -0.0461
63761DOD     C135102   4.023   4.135  20.350 -0.0500 -0.0248  0.0622
63761DOD     C235103   4.117   4.375  20.720  0.1758 -0.0688 -0.2586
63761DOD     C335104   3.832   4.501  21.077 -0.0367 -0.1150 -0.3290
63762DOD     C135105  15.985  22.628  26.656  0.0332 -0.1657  0.1040
63762DOD     C235106  16.407  22.753  26.528  0.1456 -0.1241  0.0040
63762DOD     C335107  16.679  22.971  26.170  0.0450 -0.1497  0.2488
63763DOD     C135108  25.554  12.725  25.038 -0.2147 -0.3763 -0.1961
63763DOD     C235109  25.460  13.003  25.414 -0.2631  0.4469  0.1969
63763DOD     C335110  25.112  13.293  25.545 -0.0771  0.0052 -0.3383
63764DOD     C135111  13.342  14.194  20.198  0.0663  0.2339  0.3188
63764DOD     C235112  13.652  13.897  19.989 -0.0599  0.0856  0.0026
63764DOD     C335113  13.877  13.520  19.806 -0.1498 -0.0630  0.3869
63765DOD     C135114   4.976   8.392   3.058  0.3458 -0.1881 -0.0810
63765DOD     C235115   4.838   8.739   2.731  0.0936  0.1013 -0.0355
63765DOD     C335116   5.162   9.031   2.477 -0.0140 -0.1280  0.1917
63766DOD     C135117  16.946   4.932  28.470  0.1532 -0.2603  0.0043
63766DOD     C235118  17.443   5.143  28.443  0.3279 -0.2061 -0.1172
63766DOD     C335119  17.892   5.162  28.601  0.0428 -0.1765  0.3320
63767DOD     C135120   1.057  21.362  25.045 -0.0621 -0.0880 -0.1475
63767DOD     C235121   0.712  21.174  25.364  0.5088 -0.1391 -0.1634
63767DOD     C335122   0.425  20.845  25.226 -0.1685  0.0383 -0.5018
63768DOD     C135123  16.388   1.583  22.447  0.0582  0.1147 -0.4906
63768DOD     C235124  16.396   1.471  21.959  0.1545  0.0988 -0.1221
63768DOD     C335125  16.126   1.351  21.594 -0.0704 -0.0400  0.0918
63769DOD     C135126   3.449   3.040  25.400  0.2611 -0.1713 -0.0576
63769DOD     C235127   3.825   3.325  25.496  0.2130 -0.2066  0.2290
63769DOD     C335128   4.079   3.713  25.618 -0.0775 -0.0322  0.1091
63770DOD     C135129  11.374  18.740  16.770 -0.0431 -0.2998 -0.0071
63770DOD     C235130  11.458  18.724  16.319  0.3265 -0.0687  0.1611
63770DOD     C335131  11.800  18.682  15.959  0.0811  0.0629 -0.1556
63771DOD     C135132  13.283   4.453  29.809  0.1015  0.1013 -0.0899
63771DOD     C235133  13.711   4.567  30.002 -0.2293  0.2268  0.0936
63771DOD     C335134  14.033   4.939  30.041  0.1457  0.2095  0.0821
63772DOD     C135135  19.388   1.281   7.555  0.0239  0.0269 -0.1368
63772DOD     C235136  19.801   1.429   7.428  0.0716  0.2221 -0.0116
63772DOD     C335137  20.064   1.141   7.178  0.0009 -0.0143 -0.1172
63773DOD     C135138  12.087  18.913  20.427  0.0919 -0.1736  0.0186
63773DOD     C235139  12.218  18.636  20.763 -0.0517  0.2912 -0.3635
63773DOD     C335140  12.473  18.578  21.172 -0.1614 -0.1238 -0.1913
63774DOD     C135141   4.051  29.424  28.311  0.2674  0.1906 -0.0331
63774DOD     C235142   3.803  29.859  28.309 -0.0052 -0.0117 -0.1429
63774DOD     C335143   3.578  30.106  27.936 -0.0260 -0.1473  0.0303
63775DOD     C135144  14.070  16.125   7.848 -0.0238  0.0688  0.0144
63775DOD     C235145  13.847  16.255   7.505  0.2320 -0.0853 -0.0070
63775DOD     C335146  14.014  16.277   7.057  0.1640 -0.0958 -0.2335
63776DOD     C135147  13.746  14.772  13.779 -0.0391  0.1183 -0.0190
63776DOD     C235148  13.314  14.622  13.884 -0.0877  0.0848 -0.0064
63776DOD     C335149  12.823  14.555  13.927 -0.0295  0.1010 -0.2700
63777DOD     C135150  29.894  12.484  14.685  0.0605 -0.1612 -0.0945
63777DOD     C235151  29.449  12.587  14.837  0.2385 -0.0509  0.0381
63777DOD     C335152  29.075  12.892  14.975  0.0570  0.0615  0.0479
63778DOD     C135153  24.620   7.245  30.191 -0.0843 -0.1438 -0.2410
63778DOD     C235154  24.560   6.858   0.224  0.1118 -0.0565 -0.0156
63778DOD     C335155  24.146   6.590   0.200 -0.1429 -0.2213  0.0299
63779DOD     C135156  27.344   6.959  16.838  0.1714 -0.1384  0.2821
63779DOD     C235157  27.528   7.306  16.601  0.3773  0.1082  0.2480
63779DOD     C335158  27.611   7.672  16.270 -0.3218 -0.2126 -0.1404
63780DOD     C135159   0.190  24.212  14.806  0.0692 -0.1254  0.0442
63780DOD     C235160   0.337  24.123  14.317  0.0407  0.1537  0.1494
63780DOD     C335161   0.414  24.317  13.915  0.0095 -0.0313 -0.0233
63781DOD     C135162  11.892  22.546  20.574  0.0544 -0.1092 -0.0234
63781DOD     C235163  11.814  22.849  20.190 -0.1343 -0.2242  0.4010
63781DOD     C335164  11.539  23.074  19.929  0.2462 -0.0499 -0.4992
63782DOD     C135165   9.833  25.160  12.770 -0.0184 -0.2926 -0.2723
63782DOD     C235166   9.878  24.723  12.836 -0.0259  0.3927  0.1706
63782DOD     C335167  10.075  24.458  12.600  0.3152 -0.4336  0.0059
63783DOD     C135168  30.215  17.720  29.541  0.2103  0.0678 -0.0144
63783DOD     C235169  30.150  17.351  29.869 -0.0173 -0.0433 -0.1465
63783DOD     C335170   0.153  17.024  29.811 -0.2171 -0.0560  0.2611
63784DOD     C135171  12.482   2.166  10.240  0.1413  0.0153 -0.2553
63784DOD     C235172  12.330   1.920   9.901  0.2123  0.1612 -0.1066
63784DOD     C335173  11.989   1.610   9.931 -0.0679  0.2252 -0.0686
63785DOD     C135174  15.487   0.219  24.140  0.4185 -0.0902  0.2580
63785DOD     C235175  15.177   0.492  24.006 -0.2383 -0.1691 -0.0681
63785DOD     C335176  15.141   0.605  23.577 -0.2777 -0.1343 -0.1710
63786DOD     C135177  14.031   1.606  20.513  0.0203 -0.1586 -0.0593
63786DOD     C235178  14.185   1.188  20.341 -0.1636 -0.0604 -0.0407
63786DOD     C335179  14.352   0.720  20.314 -0.0313  0.3058 -0.0738
63787DOD     C135180  19.274   2.683  28.867  0.5308  0.3969  0.1676
63787DOD     C235181  19.323   2.805  28.417  0.3735  0.1676  0.0565
63787DOD     C335182  19.267   2.930  27.986  0.2418 -0.1199  0.2032
63788DOD     C135183  19.650  26.377   9.321  0.2484  0.1875  0.0478
63788DOD     C235184  19.859  26.336   9.780  0.0612  0.2876  0.2506
63788DOD     C335185  20.199  26.427  10.148  0.2248 -0.3889 -0.1769
63789DOD     C135186  24.668   6.556  15.469 -0.1386 -0.2166  0.1001
63789DOD     C235187  24.695   6.415  15.954 -0.0658  0.1052  0.2762
63789DOD     C335188  24.590   6.309  16.383 -0.2003  0.1976 -0.6311
63790DOD     C135189   6.301  16.913  15.402 -0.0307 -0.1709 -0.0639
63790DOD     C235190   6.189  16.543  15.201  0.1218  0.1871  0.2463
63790DOD     C335191   6.226  16.368  14.767 -0.1329  0.0468  0.3730
63791DOD     C135192  10.881   3.445  10.864 -0.0466 -0.1876 -0.3159
63791DOD     C235193  10.833   3.566  11.346 -0.0976 -0.2380  0.0278
63791DOD     C335194  10.804   3.683  11.781 -0.0298  0.2702  0.0274
63792DOD     C135195   6.413  20.764  21.516  0.3230 -0.0918  0.0005
63792DOD     C235196   6.575  20.602  21.955  0.1931 -0.0796  0.0775
63792DOD     C335197   6.611  20.464  22.380  0.2307  0.0610  0.1644
63793DOD     C135198  18.692  28.638  16.762  0.0995 -0.2437  0.1806
63793DOD     C235199  19.026  28.892  16.983  0.2757  0.1697 -0.0423
63793DOD     C335200  19.342  28.649  17.223  0.1179 -0.0320 -0.2095
63794DOD     C135201  11.554  20.018  23.448  0.0739  0.0608 -0.0080
63794DOD     C235202  11.272  20.169  23.754 -0.0808 -0.0655 -0.0199
63794DOD     C335203  11.094  20.490  24.101  0.3112  0.2415 -0.1269
63795DOD     C135204   4.574  26.641  13.107  0.0368 -0.0229 -0.2224
63795DOD     C235205   4.775  26.422  12.727  0.2706 -0.1351  0.1685
63795DOD     C335206   4.908  26.284  12.305 -0.0340 -0.0127  0.0763
63796DOD     C135207  30.356  12.668  11.715  0.2551 -0.0969 -0.2836
63796DOD     C235208   0.189  12.337  12.000  0.0434  0.0023 -0.2623
63796DOD     C335209   0.529  12.246  12.321 -0.0254 -0.1784  0.1276
63797DOD     C135210  14.956  12.497   2.586 -0.2755 -0.1279  0.0040
63797DOD     C235211  14.714  12.311   2.244  0.4311  0.0342 -0.0470
63797DOD     C335212  14.631  12.146   1.780 -0.1168  0.2760 -0.1617
63798DOD     C135213  29.453  12.804  12.125 -0.0075  0.0441 -0.5712
63798DOD     C235214  29.818  12.727  12.439  0.1941 -0.0831  0.0573
63798DOD     C335215  30.075  12.801  12.818  0.0887  0.0289 -0.1931
63799DOD     C135216  13.614   0.251  21.140 -0.2741 -0.1685  0.0486
63799DOD     C235217  13.855   0.478  21.484  0.0200  0.1566 -0.0201
63799DOD     C335218  13.865   0.951  21.615 -0.1947  0.1608  0.2397
63800DOD     C135219  30.266  21.062  14.983 -0.2615  0.2358 -0.1791
63800DOD     C235220   0.171  20.687  14.879 -0.1223  0.1342 -0.3628
63800DOD     C335221   0.228  20.544  14.431  0.1443 -0.1332 -0.1870
63801DOD     C135222   6.199  29.242   0.529 -0.0420 -0.1880 -0.0991
63801DOD     C235223   6.245  29.537   0.858  0.0623 -0.2566  0.1627
63801DOD     C335224   6.067  29.698   1.240 -0.0323 -0.0225 -0.4697
63802DOD     C135225  25.671  27.478  21.464 -0.1931 -0.0950 -0.3482
63802DOD     C235226  26.165  27.548  21.596  0.1767  0.0582 -0.0849
63802DOD     C335227  26.379  27.479  22.027 -0.1448  0.1077 -0.0980
63803DOD     C135228   3.392   4.475  26.652 -0.0535 -0.1862 -0.3033
63803DOD     C235229   3.732   4.210  26.529  0.0261  0.2397  0.3306
63803DOD     C335230   4.024   3.884  26.225  0.3101  0.2297  0.2309
63804DOD     C135231  16.965  24.183   7.126 -0.2479 -0.0633 -0.2112
63804DOD     C235232  16.536  24.195   7.290  0.2080  0.0718  0.0225
63804DOD     C335233  16.055  24.239   7.354  0.0839  0.0398 -0.0934
63805DOD     C135234  23.641   6.419  26.514  0.2460  0.2089 -0.2817
63805DOD     C235235  23.533   6.593  26.117 -0.1724 -0.0317 -0.0585
63805DOD     C335236  23.687   6.749  25.676 -0.0103  0.0264 -0.1997
63806DOD     C135237  26.717  15.177   4.028  0.1973 -0.0248  0.0938
63806DOD     C235238  26.537  14.803   4.169  0.1581  0.1777 -0.0812
63806DOD     C335239  26.715  14.431   4.412 -0.0652 -0.0002  0.2790
63807DOD     C135240  19.711   7.740  25.082 -0.0074  0.1954 -0.1914
63807DOD     C235241  19.857   7.587  25.529  0.1209 -0.0858  0.0061
63807DOD     C335242  20.069   7.599  25.938  0.0352 -0.1718  0.1671
63808DOD     C135243   2.418  19.351  24.141  0.0453  0.2226  0.3085
63808DOD     C235244   2.102  19.015  24.026  0.0749 -0.1376 -0.3607
63808DOD     C335245   1.986  18.704  23.701  0.3021  0.0917  0.1801
63809DOD     C135246  19.279   4.922  11.084 -0.0867 -0.0813 -0.1602
63809DOD     C235247  19.245   5.078  10.637  0.5288  0.1490 -0.4066
63809DOD     C335248  19.051   4.866  10.256 -0.0340 -0.3495  0.1994
63810DOD     C135249  22.777  18.464   5.116 -0.0886  0.1881 -0.2792
63810DOD     C235250  23.184  18.277   4.975  0.2121 -0.2687  0.2603
63810DOD     C335251  23.523  18.037   4.682  0.1855  0.1178 -0.0890
63811DOD     C135252   7.110   8.342  24.867  0.0472 -0.0105 -0.1500
63811DOD     C235253   7.391   8.661  24.589  0.0625  0.1243  0.0892
63811DOD     C335254   7.798   8.833  24.791 -0.0095  0.0092  0.2232
63812DOD     C135255  20.882  25.098  25.913  0.0774  0.0590  0.1482
63812DOD     C235256  21.163  25.289  25.646  0.2869 -0.1389  0.0443
63812DOD     C335257  21.606  25.427  25.464 -0.0679 -0.2703  0.0180
63813DOD     C135258   3.665   6.317   2.249 -0.1174  0.1173 -0.1112
63813DOD     C235259   3.908   5.922   2.444  0.1215  0.0471  0.1340
63813DOD     C335260   3.825   5.585   2.767 -0.3996 -0.0479  0.0200
63814DOD     C135261  26.887   7.374  12.280  0.3250 -0.2738  0.3921
63814DOD     C235262  26.554   7.025  12.185  0.2251  0.1955  0.3169
63814DOD     C335263  26.457   6.628  12.339 -0.1682 -0.1356  0.0176
63815DOD     C135264  12.914  12.870  27.745  0.0089  0.0927  0.1553
63815DOD     C235265  12.818  13.317  27.820  0.1002  0.2002  0.1072
63815DOD     C335266  12.522  13.684  27.879 -0.1104  0.0885 -0.6605
63816DOD     C135267   0.242   6.887  10.961 -0.1179 -0.1911  0.1558
63816DOD     C235268   0.043   6.656  11.275 -0.3061 -0.1956  0.0100
63816DOD     C335269   0.059   6.213  11.338  0.3875 -0.1826 -0.0680
63817DOD     C135270  25.918  28.330  13.052  0.0816  0.1565 -0.0172
63817DOD     C235271  25.668  27.913  13.099  0.3147 -0.0570  0.2986
63817DOD     C335272  25.570  27.471  13.372 -0.1144 -0.0150 -0.0186
63818DOD     C135273  21.535  10.559  20.850  0.0307 -0.4004 -0.2337
63818DOD     C235274  21.524  10.196  20.537  0.0672  0.0654  0.0234
63818DOD     C335275  21.512   9.790  20.403 -0.4243  0.2185 -0.0838
63819DOD     C135276  12.135  21.699  17.430  0.0571  0.0363  0.0578
63819DOD     C235277  11.881  22.061  17.631 -0.0287 -0.0324  0.0309
63819DOD     C335278  11.559  22.343  17.860 -0.1433  0.0211  0.2094
63820DOD     C135279   6.875   2.548  19.743 -0.1224  0.2247  0.2913
63820DOD     C235280   6.697   2.267  20.004  0.0684 -0.0789 -0.2671
63820DOD     C335281   6.446   1.861  19.888 -0.0160 -0.2752  0.0610
63821DOD     C135282  16.891   7.593   8.873 -0.3147 -0.3534  0.0179
63821DOD     C235283  17.123   7.854   9.177 -0.0723 -0.2065 -0.3511
63821DOD     C335284  17.375   7.754   9.596  0.0932 -0.2184 -0.0708
63822DOD     C135285   0.742  23.395  15.059  0.0344 -0.1285 -0.1992
63822DOD     C235286   1.115  23.585  14.806  0.1177  0.0813 -0.2282
63822DOD     C335287   1.297  23.764  14.426  0.0978  0.0921  0.1663
63823DOD     C135288   0.168  20.914  12.328 -0.1552  0.0363  0.0086
63823DOD     C235289  30.028  20.792  12.293  0.0920 -0.0425  0.2478
63823DOD     C335290  29.723  21.117  12.235 -0.0787  0.1494  0.0202
63824DOD     C135291  17.741  17.099   8.921  0.3628 -0.3070  0.2011
63824DOD     C235292  17.442  17.004   8.572 -0.1750 -0.1023 -0.1589
63824DOD     C335293  17.143  17.284   8.429 -0.0624  0.0273 -0.0148
63825DOD     C135294  14.029  15.455   3.203 -0.0304 -0.0733  0.2656
63825DOD     C235295  14.164  15.266   3.617  0.0793 -0.1012 -0.0829
63825DOD     C335296  14.131  15.054   4.064  0.2437 -0.0712 -0.1332
63826DOD     C135297  17.676   4.680   5.904  0.2001 -0.0813  0.0688
63826DOD     C235298  17.829   4.741   6.371 -0.3271 -0.0100  0.2911
63826DOD     C335299  18.013   4.928   6.765  0.2794 -0.2263 -0.1151
63827DOD     C135300  13.893  10.544  18.121  0.2375 -0.1192  0.1485
63827DOD     C235301  14.359  10.494  18.142  0.2763  0.0068 -0.0772
63827DOD     C335302  14.697  10.285  17.931  0.2242  0.3124  0.1409
63828DOD     C135303  24.595   0.095   9.071 -0.0616  0.3449  0.1300
63828DOD     C235304  24.878   0.187   9.463 -0.1911 -0.0386  0.3777
63828DOD     C335305  25.263   0.136   9.745  0.2083  0.0601 -0.2153
63829DOD     C135306  12.667  22.981  27.878 -0.2166  0.0837  0.3470
63829DOD     C235307  13.079  23.159  27.727  0.0655  0.0509 -0.1403
63829DOD     C335308  13.507  22.963  27.689  0.1690 -0.0487  0.0833
63830DOD     C135309  29.112   0.251  19.308 -0.3010 -0.3023 -0.2958
63830DOD     C235310  29.038  30.222  19.025  0.4516 -0.0219  0.2190
63830DOD     C335311  28.836  29.863  18.829  0.1521  0.1982 -0.0402
63831DOD     C135312  23.190  15.866  24.787 -0.1212  0.1176 -0.1130
63831DOD     C235313  23.214  16.102  25.153 -0.1015  0.0340 -0.1498
63831DOD     C335314  23.378  16.526  25.207  0.0899 -0.1091  0.0407
63832DOD     C135315  24.458   4.830  22.077 -0.0680 -0.1014  0.3097
63832DOD     C235316  24.114   4.883  21.847 -0.0275  0.1992  0.2505
63832DOD     C335317  23.761   5.041  21.678 -0.1801  0.2076  0.0871
63833DOD     C135318  29.937   8.505  25.373  0.1844 -0.0881  0.1206
63833DOD     C235319  30.245   8.748  25.621 -0.0059  0.0141 -0.1289
63833DOD     C335320   0.091   8.925  25.996  0.2136  0.0241  0.0682
63834DOD     C135321  21.776   2.289  26.543  0.1619 -0.1565 -0.0496
63834DOD     C235322  21.365   2.437  26.656 -0.2672  0.0616  0.2943
63834DOD     C335323  21.243   2.881  26.792  0.1437 -0.0273  0.2588
63835DOD     C135324   0.922  19.865   8.532  0.0303  0.1192  0.1037
63835DOD     C235325   1.265  20.164   8.476 -0.2818  0.3109  0.3164
63835DOD     C335326   1.666  20.197   8.232 -0.0319  0.2633 -0.1530
63836DOD     C135327  12.667   9.939  16.358 -0.2791 -0.1445  0.2725
63836DOD     C235328  13.024   9.699  16.465  0.1330  0.2550 -0.0232
63836DOD     C335329  13.259   9.357  16.328  0.1551 -0.0711  0.2762
63837DOD     C135330  28.256  21.674  21.840  0.1115  0.4944  0.1037
63837DOD     C235331  28.440  22.053  21.641  0.0164 -0.1228  0.0616
63837DOD     C335332  28.573  22.529  21.658  0.2622  0.4098 -0.1275
63838DOD     C135333   7.421  28.040  13.979 -0.0199  0.0998  0.3578
63838DOD     C235334   7.718  28.406  14.083  0.0930 -0.0202  0.0650
63838DOD     C335335   7.984  28.789  14.198 -0.2473 -0.1253 -0.3196
63839DOD     C135336  29.927  28.141   8.690  0.2314  0.0494 -0.0408
63839DOD     C235337  29.611  28.116   8.367 -0.2156 -0.1498  0.2616
63839DOD     C335338  29.657  27.953   7.963  0.4298 -0.1431  0.2531
63840DOD     C135339   8.077  13.554   7.911  0.1044 -0.1890 -0.1666
63840DOD     C235340   8.523  13.667   8.027  0.4406 -0.2758  0.3732
63840DOD     C335341   8.903  13.830   7.801 -0.0110  0.1137  0.2688
63841DOD     C135342   4.073  20.482   0.059 -0.5304  0.0952 -0.0682
63841DOD     C235343   4.336  20.632  29.982 -0.0704  0.1490  0.3222
63841DOD     C335344   4.172  20.692  29.568 -0.5580 -0.1068  0.1398
63842DOD     C135345   1.848   7.319  29.450  0.2575  0.0786 -0.1807
63842DOD     C235346   1.768   7.188  29.869 -0.1477 -0.1123  0.0712
63842DOD     C335347   1.987   6.986  30.171  0.0935 -0.5853  0.0530
63843DOD     C135348   3.876   4.093  16.093 -0.3001  0.1919  0.0136
63843DOD     C235349   4.269   4.210  15.880  0.1406  0.1622 -0.0129
63843DOD     C335350   4.608   3.899  15.753 -0.2454 -0.1501  0.1684
63844DOD     C135351   5.336   3.669   5.801 -0.0842 -0.1839  0.0631
63844DOD     C235352   5.110   3.722   5.371 -0.2183 -0.0966 -0.1869
63844DOD     C335353   4.877   3.430   5.056  0.0412 -0.2846 -0.0157
63845DOD     C135354  13.188   9.165  23.659  0.1207 -0.1019 -0.1712
63845DOD     C235355  12.830   9.193  23.448 -0.0867 -0.3457  0.0744
63845DOD     C335356  12.522   9.332  23.093 -0.2207  0.0412  0.2271
63846DOD     C135357   0.029  17.815  22.022 -0.0377 -0.0661  0.1401
63846DOD     C235358   0.290  18.159  21.852  0.0791  0.0013 -0.1115
63846DOD     C335359   0.706  18.337  21.739  0.0609 -0.2704  0.3988
63847DOD     C135360  21.057  12.124  19.508  0.2860  0.1454 -0.0367
63847DOD     C235361  21.364  12.392  19.711  0.3278  0.0457 -0.1710
63847DOD     C335362  21.484  12.819  19.862  0.1060  0.0792  0.2918
63848DOD     C135363  10.923  18.633   6.405 -0.1007  0.2417  0.0253
63848DOD     C235364  10.967  18.214   6.148 -0.3243  0.0168  0.3111
63848DOD     C335365  11.422  18.004   6.010 -0.1230 -0.5890  0.2231
63849DOD     C135366   5.234   4.314  15.479  0.1475  0.0582  0.0587
63849DOD     C235367   4.821   4.118  15.277  0.0284  0.0039  0.2917
63849DOD     C335368   4.308   4.032  15.338 -0.3334  0.0737  0.0679
63850DOD     C135369  13.730  19.940  12.286  0.1037 -0.0585  0.3708
63850DOD     C235370  13.678  20.313  12.594  0.1537  0.0404  0.1933
63850DOD     C335371  13.381  20.181  12.965  0.4091 -0.0465 -0.1209
63851DOD     C135372   7.951   3.584   9.580  0.0074  0.0050 -0.2837
63851DOD     C235373   7.766   3.308   9.912 -0.0109 -0.1073 -0.0245
63851DOD     C335374   7.421   3.199  10.154  0.1035  0.1407  0.0393
63852DOD     C135375  11.285  29.950  18.502 -0.1396 -0.0902 -0.4458
63852DOD     C235376  11.067  30.222  18.843 -0.0061 -0.2127 -0.1507
63852DOD     C335377  10.722  30.118  19.225  0.2210  0.0378  0.0433
63853DOD     C135378  13.816  26.991  26.069 -0.0632 -0.2435 -0.1718
63853DOD     C235379  13.357  26.941  26.204  0.3637 -0.1065  0.0120
63853DOD     C335380  12.969  26.755  26.320 -0.4532 -0.4585 -0.1897
63854DOD     C135381   3.213  23.732   9.584  0.2047 -0.0293  0.0329
63854DOD     C235382   2.987  23.320   9.625  0.2802 -0.2134  0.2242
63854DOD     C335383   2.552  23.162   9.525  0.1426  0.0026 -0.3424
63855DOD     C135384  15.681  12.482  12.588 -0.3266  0.2128  0.0552
63855DOD     C235385  15.461  12.201  12.897 -0.0036  0.0491 -0.2313
63855DOD     C335386  15.506  11.840  13.185  0.0028 -0.1077  0.1992
63856DOD     C135387  15.469  24.952  19.421  0.3907  0.1473 -0.1125
63856DOD     C235388  15.648  25.056  19.841  0.1063  0.0662  0.1968
63856DOD     C335389  15.670  24.958  20.265  0.0556  0.0906 -0.1079
63857DOD     C135390  28.544  19.391   3.470 -0.0907 -0.0256  0.1870
63857DOD     C235391  28.941  19.258   3.722  0.1491 -0.2156  0.0241
63857DOD     C335392  29.164  18.955   3.961 -0.2125 -0.3493  0.0848
63858DOD     C135393  30.081  27.019   3.491  0.1064 -0.0476  0.3925
63858DOD     C235394  30.127  26.707   3.863  0.0689  0.1178  0.0793
63858DOD     C335395  30.216  26.270   3.851  0.0061 -0.0012 -0.0878
63859DOD     C135396  15.571   1.726   4.592  0.1400  0.1580 -0.1109
63859DOD     C235397  15.478   2.142   4.832 -0.0791  0.1208 -0.1160
63859DOD     C335398  15.534   2.344   5.243  0.0944 -0.0280  0.1259
63860DOD     C135399  20.992   1.858   4.283  0.3713 -0.2377 -0.1760
63860DOD     C235400  21.192   1.473   4.371 -0.2263 -0.0545 -0.1820
63860DOD     C335401  21.131   1.040   4.503  0.1314  0.4354  0.3858
63861DOD     C135402  30.000  29.124  28.646 -0.0921  0.0027 -0.3303
63861DOD     C235403  29.901  28.750  28.870 -0.0520 -0.0349  0.1502
63861DOD     C335404  30.000  28.288  28.753 -0.0343  0.0048  0.2142
63862DOD     C135405  28.189  29.350  13.882 -0.2693 -0.1159 -0.1926
63862DOD     C235406  28.235  28.865  13.832 -0.0918 -0.1609  0.1540
63862DOD     C335407  28.123  28.527  13.568 -0.1820  0.0340 -0.4324
63863DOD     C135408   1.193  14.570  27.125  0.0428  0.0048 -0.1955
63863DOD     C235409   1.040  14.245  27.382  0.1007  0.2353  0.2553
63863DOD     C335410   0.984  13.817  27.592  0.2438  0.1625  0.0588
63864DOD     C135411   0.477   5.029   1.049 -0.0782  0.2132  0.1421
63864DOD     C235412   0.850   5.391   1.008  0.0989 -0.2793  0.0963
63864DOD     C335413   0.998   5.773   1.155  0.1935  0.1849 -0.0939
63865DOD     C135414   0.728  10.495   2.138  0.2351  0.2188 -0.0727
63865DOD     C235415   1.253  10.375   2.144 -0.3276  0.0995  0.1555
63865DOD     C335416   1.519  10.154   1.760 -0.2597 -0.0351 -0.0152
63866DOD     C135417  18.176  20.119   7.927  0.3481 -0.1048 -0.1556
63866DOD     C235418  18.317  20.014   7.478 -0.0593  0.3665 -0.2673
63866DOD     C335419  18.470  19.620   7.197  0.1527 -0.0587  0.0464
63867DOD     C135420  10.885  14.417  21.791  0.1929 -0.2665 -0.1865
63867DOD     C235421  10.965  14.166  22.190  0.0958  0.4523  0.2713
63867DOD     C335422  11.089  13.767  22.327  0.1717 -0.0972 -0.0610
63868DOD     C135423  26.421  15.173  23.533 -0.0611 -0.1932  0.1474
63868DOD     C235424  26.634  14.893  23.191  0.0110  0.1395 -0.0755
63868DOD     C335425  26.454  14.504  22.985 -0.2058 -0.1121  0.0358
63869DOD     C135426  28.729   1.131  23.976 -0.4006  0.4286 -0.1601
63869DOD     C235427  28.985   1.158  24.416  0.0521  0.0458  0.0423
63869DOD     C335428  29.004   1.456  24.740  0.0601  0.0412  0.1655
63870DOD     C135429  22.534   5.056  13.742 -0.1466  0.1110 -0.0528
63870DOD     C235430  23.041   5.045  13.827 -0.0850 -0.2530 -0.0254
63870DOD     C335431  23.519   5.101  13.912  0.0209 -0.0441 -0.0114
63871DOD     C135432  29.990  30.119  25.109 -0.1318 -0.1693 -0.0597
63871DOD     C235433  29.901   0.265  25.141 -0.3891  0.0764  0.2800
63871DOD     C335434  29.764   0.673  25.336 -0.1835 -0.0069 -0.0440
63872DOD     C135435  24.231  13.977  10.709  0.1354  0.0276  0.1338
63872DOD     C235436  24.167  14.354  10.894  0.1145  0.1355 -0.0768
63872DOD     C335437  24.053  14.420  11.333 -0.0721 -0.0608  0.0366
63873DOD     C135438  21.248   6.719   4.219  0.1639 -0.0044 -0.2566
63873DOD     C235439  21.433   7.095   4.397  0.1877 -0.1978 -0.2078
63873DOD     C335440  21.599   7.474   4.568 -0.0716 -0.0014  0.1390
63874DOD     C135441  22.146  14.477  20.806 -0.0588 -0.3004 -0.2187
63874DOD     C235442  21.859  14.841  20.666  0.2512 -0.3169 -0.1133
63874DOD     C335443  21.904  15.291  20.870 -0.0127 -0.1169 -0.1082
63875DOD     C135444  25.066  18.682  25.107  0.1482 -0.4181  0.3923
63875DOD     C235445  25.458  18.890  25.236 -0.2403  0.0628  0.1813
63875DOD     C335446  25.873  18.810  25.296 -0.0461  0.1386 -0.2084
63876DOD     C135447  10.800   4.296  27.925  0.0941 -0.0554  0.1514
63876DOD     C235448  10.620   4.327  28.370 -0.0283  0.1924  0.2910
63876DOD     C335449  10.689   4.354  28.795 -0.2605 -0.0420 -0.1298
63877DOD     C135450  17.040  16.313  12.535 -0.1333 -0.0857  0.0528
63877DOD     C235451  17.254  16.099  12.153 -0.1207 -0.1263 -0.0446
63877DOD     C335452  17.125  15.957  11.742 -0.4270  0.2339  0.0771
63878DOD     C135453  17.331  25.489  25.645 -0.0776 -0.0666 -0.0618
63878DOD     C235454  17.301  25.241  26.053 -0.0735 -0.0644  0.2561
63878DOD     C335455  17.311  24.934  26.363  0.1857 -0.0490 -0.0323
63879DOD     C135456  25.469   1.947   5.356  0.3275 -0.1365  0.1393
63879DOD     C235457  25.668   1.612   5.603 -0.2062 -0.2883  0.0130
63879DOD     C335458  26.061   1.395   5.607  0.2537 -0.0855  0.1541
63880DOD     C135459  14.842  20.076  20.213 -0.2200  0.1043  0.0708
63880DOD     C235460  14.704  19.686  20.458  0.3618  0.1954 -0.0198
63880DOD     C335461  14.767  19.208  20.318 -0.0206 -0.0238  0.2338
63881DOD     C135462   6.716   9.261  27.667  0.0304  0.1702 -0.4417
63881DOD     C235463   6.641   9.650  27.832 -0.1458 -0.0205  0.3050
63881DOD     C335464   6.771   9.986  28.069 -0.0616 -0.0248  0.1105
63882DOD     C135465   6.806  12.486  25.197 -0.2547 -0.1157 -0.0498
63882DOD     C235466   6.865  12.958  25.290 -0.1176  0.0608  0.1286
63882DOD     C335467   6.745  13.116  25.723  0.1158  0.0236 -0.1110
63883DOD     C135468  19.368  15.730  19.014 -0.0215  0.2353  0.2684
63883DOD     C235469  19.698  15.475  19.225  0.1159  0.0867  0.2823
63883DOD     C335470  20.124  15.437  19.293  0.0464 -0.0380 -0.4077
63884DOD     C135471  13.471  15.498  12.934  0.0771  0.1537 -0.0875
63884DOD     C235472  13.556  15.384  12.514  0.3373 -0.0650 -0.0387
63884DOD     C335473  13.436  15.218  12.072 -0.0489 -0.4294  0.1169
63885DOD     C135474  18.797   9.020  28.798  0.0592  0.1201  0.0735
63885DOD     C235475  19.167   8.981  29.106 -0.5053  0.4070  0.0408
63885DOD     C335476  19.603   8.896  29.055  0.2726  0.2357 -0.0198
63886DOD     C135477   8.803  18.895  11.977  0.0389 -0.3621 -0.3567
63886DOD     C235478   9.181  19.005  12.217 -0.1974  0.1390  0.0650
63886DOD     C335479   9.553  18.964  12.517  0.1502 -0.1337  0.1121
63887DOD     C135480   3.012  18.527   2.552  0.2371  0.0516  0.0879
63887DOD     C235481   2.815  18.928   2.719 -0.1344  0.2977  0.0971
63887DOD     C335482   2.505  19.257   2.809  0.1189 -0.3506 -0.3609
63888DOD     C135483  29.841  29.411  25.695  0.3013 -0.0504  0.0137
63888DOD     C235484  30.164  29.704  25.798 -0.0104 -0.3176  0.3306
63888DOD     C335485  30.080  30.085  26.030 -0.0797  0.3398  0.1067
63889DOD     C135486  27.849   7.609   8.646  0.1030  0.0567  0.3690
63889DOD     C235487  27.796   8.066   8.412 -0.3475  0.1615 -0.0436
63889DOD     C335488  27.685   8.488   8.469 -0.1011  0.0276 -0.0135
63890DOD     C135489  17.610   5.835  19.868  0.1024 -0.0273  0.3092
63890DOD     C235490  17.482   6.199  20.137  0.3001 -0.0796 -0.3459
63890DOD     C335491  17.148   6.402  20.320  0.0228 -0.0674 -0.2260
63891DOD     C135492   1.667  22.109   4.906 -0.0106 -0.0667 -0.2361
63891DOD     C235493   2.089  22.018   4.837  0.1973 -0.1023 -0.2466
63891DOD     C335494   2.367  22.043   4.431  0.1477  0.1121 -0.1561
63892DOD     C135495  12.504   4.008  23.803  0.4433  0.1174 -0.0560
63892DOD     C235496  12.268   4.209  23.491  0.0304  0.1064  0.0797
63892DOD     C335497  12.261   4.616  23.294  0.0002  0.0182  0.2089
63893DOD     C135498  23.065   5.037   2.445 -0.0858  0.0502 -0.4227
63893DOD     C235499  23.287   4.618   2.419 -0.0349 -0.1412  0.2065
63893DOD     C335500  23.486   4.139   2.413  0.2271 -0.1155 -0.2040
63894DOD     C135501   3.382  14.624  10.832 -0.1928  0.0071 -0.1498
63894DOD     C235502   2.987  14.835  11.019 -0.4688 -0.1878  0.2044
63894DOD     C335503   2.692  15.066  11.299  0.0432  0.2886 -0.2705
63895DOD     C135504   5.453  14.971  10.737  0.1955 -0.1742 -0.2161
63895DOD     C235505   5.404  15.179  10.343  0.1300 -0.1857 -0.2128
63895DOD     C335506   5.329  14.975   9.910  0.0814 -0.0118  0.0980
63896DOD     C135507  21.385  17.587   1.688 -0.1790 -0.2449 -0.1981
63896DOD     C235508  21.464  17.771   1.291 -0.1254 -0.0017  0.0438
63896DOD     C335509  21.810  17.731   0.926 -0.2032 -0.3255 -0.0254
63897DOD     C135510  12.885  22.624   8.185  0.2363  0.0926  0.0376
63897DOD     C235511  12.689  22.146   8.136  0.3462 -0.1632  0.0756
63897DOD     C335512  12.893  21.721   8.199 -0.3076  0.0250  0.0220
63898DOD     C135513  18.526  18.994   1.266 -0.1046 -0.1732 -0.1861
63898DOD     C235514  18.346  18.723   1.672 -0.1192  0.1073  0.5086
63898DOD     C335515  18.189  18.311   1.931 -0.1880 -0.2291 -0.1824
63899DOD     C135516  28.929   6.617  29.842  0.1317 -0.0491 -0.0744
63899DOD     C235517  28.999   6.283  30.151 -0.2891 -0.2066  0.2439
63899DOD     C335518  29.054   6.001   0.167 -0.0310  0.0668  0.4494
63900DOD     C135519  14.585  15.395  13.914 -0.1377  0.0081  0.1225
63900DOD     C235520  14.924  15.542  13.717 -0.2782 -0.1371 -0.0537
63900DOD     C335521  15.154  15.937  13.575 -0.1098  0.1599  0.2708
63901DOD     C135522  28.923  19.058  19.693  0.1711 -0.2072 -0.3868
63901DOD     C235523  28.889  19.011  20.163 -0.1263 -0.0699 -0.0803
63901DOD     C335524  28.902  18.965  20.646 -0.1082 -0.1562  0.1559
63902DOD     C135525  16.133  16.068  19.393  0.2973  0.0212 -0.1110
63902DOD     C235526  15.751  16.393  19.366 -0.0005 -0.0959  0.3800
63902DOD     C335527  15.528  16.813  19.299 -0.1040 -0.0005 -0.0645
63903DOD     C135528   9.933  28.384  15.176  0.2440  0.4587 -0.2517
63903DOD     C235529   9.661  28.747  15.063 -0.1185  0.2459 -0.0322
63903DOD     C335530   9.553  28.921  14.709 -0.2581  0.2125 -0.3357
63904DOD     C135531   8.546   0.771  23.895  0.0852  0.1290 -0.2638
63904DOD     C235532   8.651   1.202  23.807 -0.1626 -0.0363 -0.3049
63904DOD     C335533   8.754   1.621  23.601  0.2959 -0.1855 -0.0121
63905DOD     C135534   8.295   5.986   2.975  0.1662  0.3470  0.1335
63905DOD     C235535   8.286   5.727   2.545 -0.2420 -0.1876  0.1763
63905DOD     C335536   8.090   5.991   2.216  0.0403  0.2188  0.1551
63906DOD     C135537   1.034  20.155   4.190  0.1760  0.1022  0.2268
63906DOD     C235538   0.870  20.638   4.195  0.0283  0.0063 -0.1076
63906DOD     C335539   0.813  21.107   4.286  0.0793 -0.0276  0.0557
63907DOD     C135540  10.566  29.813  28.022  0.2278 -0.1133  0.0183
63907DOD     C235541  10.359  30.116  28.310 -0.1433 -0.0140  0.1170
63907DOD     C335542  10.267  30.272  28.749 -0.0610  0.3385 -0.0212
63908DOD     C135543   6.726   9.127  16.309  0.0930  0.2257 -0.0071
63908DOD     C235544   6.504   8.711  16.171 -0.1593 -0.1098  0.0307
63908DOD     C335545   6.233   8.364  16.010 -0.0580  0.2025 -0.2197
63909DOD     C135546  12.589  28.641  26.868  0.2540 -0.0990  0.0810
63909DOD     C235547  13.039  28.460  26.780  0.1218 -0.0347 -0.0373
63909DOD     C335548  13.354  28.179  26.928 -0.1310 -0.1554 -0.1331
63910DOD     C135549  16.396  13.154  14.077 -0.0279 -0.0060 -0.0849
63910DOD     C235550  16.467  13.548  14.309  0.1214 -0.0508 -0.1106
63910DOD     C335551  16.410  13.586  14.802  0.0092 -0.0709  0.3121
63911DOD     C135552   7.466  16.069  23.545 -0.1879  0.2674  0.1279
63911DOD     C235553   7.396  16.225  23.076  0.3854 -0.2216  0.0886
63911DOD     C335554   7.058  16.416  22.755  0.2039 -0.0441 -0.1377
63912DOD     C135555  29.082  24.439  25.081  0.5042 -0.0161 -0.3037
63912DOD     C235556  29.011  24.138  24.719 -0.0496  0.0871 -0.1918
63912DOD     C335557  28.992  23.899  24.311  0.1142 -0.1914  0.0949
63913DOD     C135558  10.778  13.168   7.299 -0.0853  0.2524 -0.0390
63913DOD     C235559  11.146  13.103   7.649  0.1522  0.0521  0.2077
63913DOD     C335560  11.475  13.193   7.963 -0.1077 -0.0291 -0.0491
63914DOD     C135561   2.300  21.360  17.478 -0.1981 -0.0867  0.4943
63914DOD     C235562   2.128  20.938  17.327 -0.0850  0.2729  0.1301
63914DOD     C335563   1.759  20.694  17.430  0.1314  0.4495 -0.0199
63915DOD     C135564  22.722  25.264  25.064 -0.0952  0.0603 -0.0763
63915DOD     C235565  22.662  24.948  25.435  0.0688 -0.1363 -0.0569
63915DOD     C335566  22.567  24.580  25.702  0.0764 -0.1571  0.1839
63916DOD     C135567   1.385  15.650   8.964  0.1758  0.2516 -0.0407
63916DOD     C235568   1.257  16.131   8.991  0.1365 -0.2371  0.1883
63916DOD     C335569   1.412  16.522   8.855 -0.2775  0.0718 -0.0098
63917DOD     C135570  14.639  24.596  28.068 -0.3904  0.5429  0.2343
63917DOD     C235571  14.196  24.654  28.205  0.4550  0.1913  0.0267
63917DOD     C335572  13.826  24.345  28.122  0.0283  0.1904 -0.0057
63918DOD     C135573  20.046  21.266  10.157 -0.2207  0.0958 -0.1712
63918DOD     C235574  20.022  21.330   9.669  0.0926  0.1647 -0.1329
63918DOD     C335575  20.244  21.667   9.368  0.1360  0.2286 -0.0829
63919DOD     C135576   5.578  16.751   9.435 -0.2259 -0.3064 -0.1229
63919DOD     C235577   5.284  16.506   9.225 -0.0308  0.0193  0.3516
63919DOD     C335578   5.190  16.277   8.877  0.1887  0.2373  0.0551
63920DOD     C135579  24.242  15.615   4.976  0.3177  0.1553  0.1513
63920DOD     C235580  24.557  15.772   4.841 -0.3771 -0.1724  0.1627
63920DOD     C335581  25.008  15.761   4.846 -0.1078 -0.0016 -0.0264
63921DOD     C135582  25.450  22.259   4.861  0.0343 -0.1161  0.1999
63921DOD     C235583  25.215  21.858   4.804  0.0866 -0.1453 -0.0415
63921DOD     C335584  25.250  21.393   4.831  0.1689 -0.1401 -0.1499
63922DOD     C135585  21.867   9.639  12.990  0.1474  0.0908 -0.0686
63922DOD     C235586  21.669   9.233  12.755  0.2050 -0.2027  0.0353
63922DOD     C335587  21.721   9.292  12.335 -0.1612  0.4280  0.4359
63923DOD     C135588   6.973  24.555  24.425 -0.0917 -0.4650 -0.0917
63923DOD     C235589   7.230  24.769  24.704 -0.0299 -0.0279  0.0031
63923DOD     C335590   7.372  24.866  25.112 -0.0438 -0.0631  0.0069
63924DOD     C135591  11.126  26.030  15.290  0.0930  0.2575  0.0434
63924DOD     C235592  11.390  26.389  15.500 -0.1823 -0.4436 -0.0285
63924DOD     C335593  11.569  26.461  15.905 -0.2171  0.3833 -0.2125
63925DOD     C135594  23.763   6.527  22.174 -0.1719 -0.2087  0.1423
63925DOD     C235595  23.904   6.950  21.922 -0.1274  0.1294  0.0714
63925DOD     C335596  23.904   7.357  21.629 -0.2110  0.1546 -0.0722
63926DOD     C135597  18.098  11.538  24.726  0.2341 -0.1574 -0.0297
63926DOD     C235598  18.526  11.756  24.602  0.1083  0.1966  0.1631
63926DOD     C335599  18.793  12.135  24.423  0.2778  0.2250  0.1151
63927DOD     C135600   5.098  20.999  28.277 -0.0393 -0.0936  0.0019
63927DOD     C235601   5.561  21.080  28.485  0.0375  0.2257  0.0385
63927DOD     C335602   5.936  20.786  28.471  0.1263 -0.0179  0.5578
63928DOD     C135603  28.709  27.279   8.435  0.1838  0.1600  0.0428
63928DOD     C235604  28.760  27.183   8.906  0.0225 -0.1219  0.3545
63928DOD     C335605  28.919  27.208   9.330 -0.1353 -0.2811 -0.4869
63929DOD     C135606  11.009  20.609  25.573  0.1912 -0.1874 -0.1594
63929DOD     C235607  10.600  20.400  25.451  0.1346 -0.1900 -0.0725
63929DOD     C335608  10.151  20.344  25.570  0.4182 -0.0604 -0.1101
63930DOD     C135609  23.690  23.089  13.607  0.1403 -0.3858  0.1832
63930DOD     C235610  23.741  23.039  13.151 -0.0312 -0.0790  0.2382
63930DOD     C335611  23.996  23.194  12.796  0.0916 -0.0059  0.1853
63931DOD     C135612  18.477   7.272   4.337 -0.2327  0.0565 -0.4596
63931DOD     C235613  18.518   6.887   4.676  0.0766  0.2050  0.0568
63931DOD     C335614  18.708   6.680   5.042 -0.0234  0.0641 -0.1934
63932DOD     C135615   1.297  13.388  23.239 -0.1525 -0.1722 -0.0223
63932DOD     C235616   0.874  13.226  23.376  0.1007 -0.3166 -0.2000
63932DOD     C335617   0.789  13.033  23.789  0.0779 -0.1176  0.1114
63933DOD     C135618  28.753  28.842   7.717 -0.2098  0.0573 -0.1684
63933DOD     C235619  28.729  28.497   7.496  0.5197  0.3062  0.1123
63933DOD     C335620  28.671  28.409   7.025  0.4704 -0.0517  0.0887
63934DOD     C135621   1.583  23.581  25.790  0.0461 -0.0464  0.4693
63934DOD     C235622   1.743  23.952  25.618  0.3320 -0.0917 -0.0043
63934DOD     C335623   1.847  24.303  25.330  0.3593  0.0633  0.2307
63935DOD     C135624   2.291  15.432  21.042 -0.0207  0.0919 -0.1162
63935DOD     C235625   2.108  15.846  21.074 -0.1041  0.0965  0.0351
63935DOD     C335626   2.098  16.313  21.192 -0.0078 -0.1134 -0.0159
63936DOD     C135627   2.699  21.429   2.667  0.2297  0.1543 -0.3441
63936DOD     C235628   2.305  21.534   2.919  0.0303 -0.0045 -0.0722
63936DOD     C335629   2.048  21.274   3.195  0.1263  0.0319  0.0668
63937DOD     C135630   7.112  12.918   9.691 -0.1898 -0.1959 -0.1364
63937DOD     C235631   7.138  13.100   9.209  0.1910 -0.0130 -0.2427
63937DOD     C335632   7.096  13.129   8.754 -0.1104 -0.2338 -0.0111
63938DOD     C135633  29.816  24.239   5.958 -0.1883  0.0683  0.2035
63938DOD     C235634  29.430  24.480   5.920 -0.0523  0.1456 -0.0817
63938DOD     C335635  29.272  24.948   5.845  0.1297  0.3386  0.2153
63939DOD     C135636  17.157  12.212  24.241 -0.1115  0.1487  0.0995
63939DOD     C235637  17.495  12.068  24.545  0.0816 -0.2691  0.2012
63939DOD     C335638  17.724  11.670  24.454 -0.0147  0.0404  0.2114
63940DOD     C135639  11.326   9.356   1.413 -0.0710 -0.0158 -0.1152
63940DOD     C235640  11.639   9.030   1.289 -0.1351 -0.0871 -0.0046
63940DOD     C335641  12.108   8.903   1.220 -0.1618 -0.1164  0.2641
63941DOD     C135642  15.045  17.424  17.464  0.0172  0.0503 -0.0412
63941DOD     C235643  15.258  17.350  17.040  0.0708  0.0568 -0.1819
63941DOD     C335644  15.516  17.241  16.613 -0.1087 -0.0022  0.2137
63942DOD     C135645   4.746  26.272  15.509  0.0480  0.0577 -0.0479
63942DOD     C235646   4.394  26.037  15.607 -0.0945 -0.0606 -0.1048
63942DOD     C335647   4.384  25.772  15.991 -0.0800  0.0660 -0.4494
63943DOD     C135648  16.787  28.074   5.954  0.1390  0.0624  0.0702
63943DOD     C235649  16.899  27.686   6.209  0.0037  0.4467  0.0335
63943DOD     C335650  16.620  27.343   6.312  0.0811 -0.2467  0.1056
63944DOD     C135651  15.070  19.748  24.560 -0.0962  0.1714  0.0717
63944DOD     C235652  15.072  20.132  24.803  0.1328 -0.2569 -0.0111
63944DOD     C335653  14.742  20.413  25.010  0.7591 -0.1837 -0.4860
63945DOD     C135654  17.818   6.439  11.926  0.0718  0.1133  0.2098
63945DOD     C235655  18.153   6.796  11.847 -0.0140 -0.1800 -0.0158
63945DOD     C335656  18.618   6.856  11.937  0.0282 -0.0228 -0.0317
63946DOD     C135657   4.873   2.684   5.233 -0.0459  0.2727 -0.0790
63946DOD     C235658   4.748   2.837   5.646 -0.2464 -0.0060 -0.3063
63946DOD     C335659   4.623   2.985   6.107 -0.0429 -0.1509  0.2396
63947DOD     C135660  21.217   3.235  19.992 -0.0511 -0.0239  0.1038
63947DOD     C235661  21.018   3.211  20.388  0.3246 -0.5443 -0.0865
63947DOD     C335662  20.682   3.015  20.649  0.0958  0.1285  0.2262
63948DOD     C135663  18.382  16.845  30.059  0.1725 -0.0669 -0.1416
63948DOD     C235664  18.467  16.536   0.069 -0.0570  0.0645 -0.0437
63948DOD     C335665  18.494  16.235   0.425  0.0660 -0.0090 -0.2294
63949DOD     C135666  14.484   6.077  19.949 -0.1291  0.1272 -0.1262
63949DOD     C235667  14.348   5.632  19.742 -0.0924 -0.2987  0.2494
63949DOD     C335668  14.578   5.245  19.611  0.0716 -0.1792  0.2878
63950DOD     C135669  21.498   2.776   0.318 -0.2813 -0.0165 -0.1176
63950DOD     C235670  21.319   2.734  30.247 -0.1781 -0.0880  0.1619
63950DOD     C335671  21.388   2.944  29.856 -0.1906 -0.1363 -0.0505
63951DOD     C135672  22.597   9.826  12.621  0.0268 -0.1015  0.0742
63951DOD     C235673  22.858   9.976  13.045  0.1356 -0.2192 -0.1245
63951DOD     C335674  22.985  10.337  13.328  0.3126  0.0686 -0.0823
63952DOD     C135675  14.588  24.111  17.718 -0.0761 -0.2373 -0.0600
63952DOD     C235676  14.614  24.555  17.482 -0.0181 -0.0603  0.0504
63952DOD     C335677  14.407  24.862  17.246  0.0971  0.1182  0.1718
63953DOD     C135678  10.732  25.890  23.673 -0.3012 -0.1261  0.1233
63953DOD     C235679  11.144  26.096  23.590 -0.2884  0.2365 -0.0024
63953DOD     C335680  11.591  26.183  23.386 -0.1254  0.0446  0.1123
63954DOD     C135681  13.359   1.025   9.026  0.0282 -0.1131  0.0114
63954DOD     C235682  13.722   0.746   9.035  0.3086  0.1412  0.0893
63954DOD     C335683  14.084   0.551   8.693 -0.3542 -0.1422 -0.3090
63955DOD     C135684   5.377  22.318  24.141 -0.1173 -0.2287  0.0337
63955DOD     C235685   5.487  22.515  24.587 -0.1846  0.2666 -0.0834
63955DOD     C335686   5.384  22.798  25.048 -0.0982  0.0432  0.0997
63956DOD     C135687  29.116   8.196   3.044  0.1095 -0.1925  0.0874
63956DOD     C235688  29.251   8.081   3.475 -0.2841  0.2654  0.2311
63956DOD     C335689  29.419   7.871   3.829 -0.1492  0.1376 -0.0749
63957DOD     C135690  18.408  11.669  16.225 -0.0311  0.2428  0.2579
63957DOD     C235691  18.622  12.066  16.321 -0.0580 -0.1304 -0.0514
63957DOD     C335692  18.963  12.385  16.382 -0.0045  0.0100 -0.2432
63958DOD     C135693  17.235  10.404   0.777 -0.0117  0.3008 -0.1188
63958DOD     C235694  17.333   9.988   0.600 -0.1993  0.5026  0.0295
63958DOD     C335695  17.737   9.682   0.515 -0.0211 -0.1709  0.1494
63959DOD     C135696  20.800   8.813   8.734 -0.4768  0.3520  0.4379
63959DOD     C235697  20.893   9.015   8.310 -0.0502  0.0272 -0.0504
63959DOD     C335698  21.081   9.029   7.852 -0.1689 -0.0239  0.1730
63960DOD     C135699   5.713   9.153  18.778  0.0203 -0.3779 -0.2315
63960DOD     C235700   6.060   8.974  18.996 -0.1222  0.1663 -0.0586
63960DOD     C335701   6.441   8.669  19.029  0.1384  0.4006 -0.1793
63961DOD     C135702  23.761  14.910  23.133 -0.0372  0.0175  0.0331
63961DOD     C235703  24.170  15.125  23.021  0.2225  0.1116  0.1847
63961DOD     C335704  24.623  15.060  23.058 -0.2276 -0.0741  0.2491
63962DOD     C135705   1.041  25.066   2.396  0.2563 -0.1080  0.0749
63962DOD     C235706   0.845  25.025   1.934 -0.1053 -0.0779  0.2897
63962DOD     C335707   0.659  25.318   1.632  0.0633  0.2254  0.0807
63963DOD     C135708   6.466  22.845  27.886 -0.2844 -0.1825 -0.0896
63963DOD     C235709   6.324  22.878  28.361  0.0783  0.0352 -0.3949
63963DOD     C335710   6.183  22.951  28.808  0.2189  0.1644  0.1585
63964DOD     C135711   2.355  23.041  24.789 -0.1345  0.3293 -0.0402
63964DOD     C235712   2.098  23.404  24.693 -0.0521 -0.3565 -0.0013
63964DOD     C335713   2.138  23.854  24.515 -0.1904 -0.0591 -0.1210
63965DOD     C135714   1.871  23.609   3.125  0.0577  0.4879 -0.1015
63965DOD     C235715   1.396  23.502   3.035 -0.2837  0.0239 -0.1191
63965DOD     C335716   1.020  23.418   2.738  0.1429 -0.0727 -0.3226
63966DOD     C135717  15.067   7.370  21.935 -0.2877 -0.1385  0.0380
63966DOD     C235718  14.614   7.296  21.959  0.1121  0.1461 -0.1646
63966DOD     C335719  14.175   7.264  22.114  0.0066 -0.0252  0.2963
63967DOD     C135720  29.653  20.484  17.671 -0.0542  0.0086 -0.1951
63967DOD     C235721  29.844  20.903  17.496 -0.0535  0.1141  0.0228
63967DOD     C335722  29.903  21.352  17.265  0.2151  0.1238 -0.2752
63968DOD     C135723  19.903  21.819  16.509 -0.0570 -0.3034 -0.1631
63968DOD     C235724  20.262  22.142  16.525  0.1259 -0.2025 -0.1140
63968DOD     C335725  20.698  22.210  16.420 -0.1370  0.3038  0.0049
63969DOD     C135726  25.371  23.331  21.899 -0.0954 -0.1676 -0.1256
63969DOD     C235727  25.508  22.903  22.058  0.0692 -0.2452  0.0127
63969DOD     C335728  25.489  22.493  22.094  0.0348  0.1868 -0.0106
63970DOD     C135729   8.097   3.153  30.347  0.1370 -0.1433  0.2700
63970DOD     C235730   7.953   3.475  29.990  0.3762 -0.1252 -0.0019
63970DOD     C335731   8.035   3.708  29.570  0.0493 -0.0039  0.0384
63971DOD     C135732   3.659  11.162   6.581  0.0921  0.1355 -0.0493
63971DOD     C235733   3.688  11.022   7.001  0.2333  0.1510 -0.0659
63971DOD     C335734   3.997  10.909   7.417  0.2528  0.2697 -0.0114
63972DOD     C135735  28.939   1.747   4.008 -0.0997  0.0283 -0.1334
63972DOD     C235736  28.840   2.188   3.931 -0.1273  0.0920  0.3274
63972DOD     C335737  29.163   2.510   4.034  0.1722 -0.0967  0.1414
63973DOD     C135738  29.064  17.390   8.050 -0.0955  0.1081 -0.0189
63973DOD     C235739  28.997  17.072   7.755 -0.1081 -0.0511  0.2464
63973DOD     C335740  28.929  16.854   7.302 -0.1778 -0.0898  0.0082
63974DOD     C135741   6.723   3.022  14.658 -0.0666 -0.1836 -0.0346
63974DOD     C235742   6.253   2.955  14.555 -0.0422 -0.1359  0.0058
63974DOD     C335743   5.899   3.287  14.491  0.0440  0.1036 -0.2308
63975DOD     C135744  21.075  13.425   3.275 -0.0576  0.1245  0.0739
63975DOD     C235745  21.219  13.073   3.520 -0.0260 -0.2147  0.2578
63975DOD     C335746  21.021  12.794   3.830  0.0792 -0.0649 -0.1547
63976DOD     C135747  27.952  14.431  30.031 -0.2904 -0.0563  0.1488
63976DOD     C235748  27.803  14.819  29.840 -0.2682 -0.0969 -0.2124
63976DOD     C335749  27.866  15.288  30.011  0.2916  0.0567 -0.0461
63977DOD     C135750   5.715   5.638   6.725 -0.1832  0.0956 -0.3694
63977DOD     C235751   6.124   5.555   6.493  0.2921  0.2321 -0.0845
63977DOD     C335752   6.317   5.181   6.353 -0.2364 -0.0468 -0.0474
63978DOD     C135753   8.059   1.286  23.943 -0.0862  0.0776  0.2213
63978DOD     C235754   8.045   0.813  23.921 -0.0547 -0.0743  0.2886
63978DOD     C335755   8.286   0.481  24.195 -0.0359  0.4340  0.1519
63979DOD     C135756  17.000  18.535   3.484 -0.0113 -0.3431 -0.2143
63979DOD     C235757  17.223  18.396   3.099 -0.2105 -0.0146 -0.1668
63979DOD     C335758  17.595  18.343   2.795  0.0927 -0.0913 -0.2996
63980DOD     C135759   7.376  15.212  16.314  0.0011 -0.4109 -0.2969
63980DOD     C235760   7.078  15.382  16.655 -0.1928  0.0164 -0.1227
63980DOD     C335761   6.869  15.291  17.078  0.1239 -0.0786 -0.4424
63981DOD     C135762  20.027   7.208  19.867  0.1447 -0.1398  0.0357
63981DOD     C235763  20.030   7.583  19.566 -0.2735  0.0787  0.0348
63981DOD     C335764  20.165   8.021  19.570  0.3113  0.2279  0.0893
63982DOD     C135765   2.188  23.238  13.487  0.0798  0.1127 -0.0563
63982DOD     C235766   2.310  23.215  13.054  0.1066 -0.1172 -0.1568
63982DOD     C335767   2.745  23.238  12.823  0.1295  0.4553  0.1513
63983DOD     C135768  21.133  17.118   1.679 -0.0546 -0.0704 -0.3452
63983DOD     C235769  21.270  17.399   2.121 -0.1280  0.1477 -0.0338
63983DOD     C335770  21.324  17.686   2.479 -0.3041 -0.1255 -0.0630
63984DOD     C135771  10.556  11.105  22.242 -0.0187 -0.4274 -0.1856
63984DOD     C235772  10.834  11.450  22.428  0.1977  0.0569  0.0721
63984DOD     C335773  11.101  11.578  22.801  0.0213 -0.0104 -0.0741
63985DOD     C135774  28.027  18.653  26.223 -0.0221  0.0593 -0.1203
63985DOD     C235775  28.105  18.419  26.622  0.2585 -0.0220  0.0393
63985DOD     C335776  28.409  18.409  26.960 -0.2330 -0.1475 -0.0166
63986DOD     C135777   8.692   4.510  11.917 -0.1613 -0.1277 -0.1390
63986DOD     C235778   8.800   4.119  12.148 -0.1886  0.0369  0.2736
63986DOD     C335779   8.864   3.737  12.475  0.0593 -0.0899 -0.1341
63987DOD     C135780   5.819  28.197  23.985 -0.1636 -0.1026  0.0643
63987DOD     C235781   5.953  28.645  23.925  0.1053 -0.0159  0.0848
63987DOD     C335782   6.008  29.068  23.688  0.1022 -0.0122 -0.3779
63988DOD     C135783   1.342  21.064   4.219 -0.0986  0.2608  0.0317
63988DOD     C235784   1.703  21.312   4.359  0.1956 -0.2098 -0.0083
63988DOD     C335785   1.932  21.582   4.638 -0.0551  0.2670  0.1292
63989DOD     C135786  28.285  19.575  21.921  0.3602  0.1465 -0.1647
63989DOD     C235787  28.479  19.645  21.499  0.0946  0.3208  0.2063
63989DOD     C335788  28.857  19.483  21.227  0.1685 -0.0163  0.3125
63990DOD     C135789  12.937   2.962  24.843 -0.5000 -0.0143 -0.0983
63990DOD     C235790  12.541   2.786  24.901  0.0538  0.1562 -0.0279
63990DOD     C335791  12.061   2.836  24.706 -0.1641  0.1019 -0.2106
63991DOD     C135792   9.547   3.600  25.862 -0.0896  0.1960  0.2256
63991DOD     C235793   9.518   4.070  25.778  0.2868 -0.0385 -0.1199
63991DOD     C335794   9.340   4.492  25.734  0.0646  0.6068 -0.1010
63992DOD     C135795   0.583  13.179   3.237 -0.1487  0.1123 -0.1455
63992DOD     C235796   0.360  13.530   3.001 -0.0132  0.1119 -0.0235
63992DOD     C335797   0.077  13.830   2.824  0.1987 -0.2304 -0.0466
63993DOD     C135798   8.509   4.127   1.769  0.1201 -0.1225  0.2746
63993DOD     C235799   8.639   4.294   2.248 -0.0027  0.2620  0.0636
63993DOD     C335800   8.719   4.626   2.618 -0.1517  0.0986  0.0674
63994DOD     C135801  10.417  11.549  24.160  0.2727 -0.2650  0.1465
63994DOD     C235802  10.017  11.526  23.930  0.1210 -0.0439 -0.3566
63994DOD     C335803   9.561  11.511  24.019 -0.1069  0.1322  0.0588
63995DOD     C135804   0.062  12.612  29.466 -0.1288  0.2752 -0.0453
63995DOD     C235805   0.493  12.803  29.521  0.3925  0.1667  0.0337
63995DOD     C335806   0.848  13.093  29.595  0.0967 -0.1596  0.1853
63996DOD     C135807   6.252  24.675  17.576  0.1062  0.1281  0.1083
63996DOD     C235808   6.134  24.492  17.937  0.3368 -0.0890  0.0423
63996DOD     C335809   6.132  24.249  18.322 -0.1502  0.0815 -0.4752
63997DOD     C135810  16.075   3.704  25.875  0.3376 -0.1907  0.0484
63997DOD     C235811  16.555   3.779  25.716  0.1824 -0.0618 -0.1956
63997DOD     C335812  16.829   3.462  25.578 -0.1554  0.2437  0.1844
63998DOD     C135813  20.931   1.539  22.662 -0.0403  0.4595 -0.0392
63998DOD     C235814  20.663   1.882  22.695  0.0174  0.0618  0.0181
63998DOD     C335815  20.189   2.093  22.603 -0.2634  0.0431  0.1329
63999DOD     C135816   4.154  18.866  25.902 -0.1747  0.3344  0.4748
63999DOD     C235817   4.260  18.492  25.630 -0.1392  0.1940  0.2699
63999DOD     C335818   4.174  18.083  25.498  0.2303  0.1614 -0.2882
64000DOD     C135819   2.239   0.487  18.570 -0.2014 -0.4038 -0.2390
64000DOD     C235820   2.066   0.182  18.961 -0.2675 -0.0283  0.2941
64000DOD     C335821   2.145   0.092  19.409 -0.3939 -0.0328 -0.1337
64001DOD     C135822   3.248   5.303  25.258  0.3299 -0.2322  0.1702
64001DOD     C235823   3.607   5.003  25.372 -0.0124 -0.1437  0.1151
64001DOD     C335824   3.901   4.650  25.407 -0.1868  0.1488  0.1339
64002DOD     C135825  19.496  11.072  14.839  0.0994 -0.1807 -0.0764
64002DOD     C235826  19.864  11.132  15.098 -0.3053 -0.0997 -0.1238
64002DOD     C335827  20.315  11.034  15.053  0.2792  0.1209 -0.1956
64003DOD     C135828  22.955   4.903  16.381  0.0799 -0.1349  0.2325
64003DOD     C235829  22.651   4.909  16.027  0.0212 -0.0994  0.2413
64003DOD     C335830  22.396   4.788  15.619  0.1886 -0.1805  0.3578
64004DOD     C135831  24.767   8.519   6.866 -0.0622  0.1180  0.2297
64004DOD     C235832  24.643   8.943   6.588  0.3026 -0.1934  0.2539
64004DOD     C335833  24.764   9.359   6.366 -0.0821  0.1809 -0.1667
64005DOD     C135834   3.475  25.389   6.458 -0.0881  0.0148 -0.1738
64005DOD     C235835   3.907  25.492   6.715 -0.0294 -0.1467  0.0054
64005DOD     C335836   4.260  25.740   6.807 -0.2190 -0.1651 -0.2074
64006DOD     C135837  24.186  27.486  18.958 -0.0475 -0.2063  0.0831
64006DOD     C235838  23.749  27.519  19.100 -0.0778  0.0645 -0.1747
64006DOD     C335839  23.329  27.696  19.211  0.0332  0.1607 -0.0107
64007DOD     C135840  18.651  18.376  14.166 -0.1434  0.0277 -0.1770
64007DOD     C235841  18.854  18.211  14.572  0.4082  0.0956  0.0007
64007DOD     C335842  18.894  17.732  14.788 -0.2374 -0.0964  0.0053
64008DOD     C135843  10.889  16.910   0.735 -0.1332  0.0895  0.1098
64008DOD     C235844  10.652  17.059   1.020  0.0326  0.2294  0.0286
64008DOD     C335845  10.209  17.142   1.007  0.1270 -0.0318 -0.3953
64009DOD     C135846   2.423   5.135   2.058  0.1449  0.0949 -0.1675
64009DOD     C235847   2.586   5.217   1.627 -0.0260  0.1029  0.1153
64009DOD     C335848   2.621   5.166   1.185  0.0611 -0.2068 -0.0841
64010DOD     C135849  24.839  13.269   2.317  0.0206 -0.2788  0.0500
64010DOD     C235850  24.500  13.558   2.379 -0.4436  0.2379  0.3827
64010DOD     C335851  24.112  13.789   2.308 -0.1086  0.3518  0.1779
64011DOD     C135852   1.085  23.917   8.731 -0.1838  0.3650  0.0742
64011DOD     C235853   0.981  24.108   8.267  0.1605 -0.0435  0.0359
64011DOD     C335854   0.811  24.214   7.784  0.3716  0.0820 -0.2636
64012DOD     C135855  19.527  15.246   3.185 -0.3053  0.3030 -0.1352
64012DOD     C235856  19.145  15.392   2.962 -0.3865 -0.0271  0.1522
64012DOD     C335857  18.824  15.723   2.891  0.0742  0.0854 -0.2538
64013DOD     C135858   2.120  23.078   4.067 -0.1812 -0.2327  0.1797
64013DOD     C235859   1.726  23.269   3.890 -0.0265  0.2287 -0.1000
64013DOD     C335860   1.329  23.439   3.778 -0.1923 -0.1285 -0.5945
64014DOD     C135861  19.840  28.889  15.981 -0.0465  0.2966 -0.0340
64014DOD     C235862  19.584  29.312  16.022  0.0213  0.1252 -0.1342
64014DOD     C335863  19.682  29.705  15.750 -0.1968  0.2637 -0.3187
64015DOD     C135864  11.594   6.675  24.038 -0.0399 -0.2143  0.2519
64015DOD     C235865  11.703   7.119  24.103  0.2666  0.2241  0.0185
64015DOD     C335866  11.681   7.514  23.791  0.1495 -0.0592 -0.1805
64016DOD     C135867  16.736   9.567  17.854 -0.1836 -0.1917  0.0946
64016DOD     C235868  17.084   9.248  17.856 -0.0670  0.0844  0.1175
64016DOD     C335869  17.448   9.110  18.096  0.2666  0.0781 -0.0498
64017DOD     C135870  10.310  19.774   2.882 -0.2601 -0.1827 -0.0077
64017DOD     C235871  10.833  19.731   2.875 -0.0514  0.2317 -0.1839
64017DOD     C335872  11.302  19.882   2.818 -0.0963  0.4294  0.0937
64018DOD     C135873  25.172   5.214   1.163 -0.0145 -0.3193 -0.0601
64018DOD     C235874  25.162   4.956   1.535 -0.1122 -0.0829  0.1303
64018DOD     C335875  25.113   4.547   1.757  0.2393  0.0553  0.2708
64019DOD     C135876   7.464  29.367  11.669 -0.2327 -0.1650  0.1454
64019DOD     C235877   7.298  28.985  11.391 -0.0383  0.0503  0.0802
64019DOD     C335878   7.083  28.987  10.988 -0.1307 -0.0076 -0.1745
64020DOD     C135879   7.109  22.683  23.353 -0.0260  0.2941 -0.1037
64020DOD     C235880   7.188  23.141  23.256 -0.1479 -0.2298  0.0667
64020DOD     C335881   7.497  23.477  23.445 -0.2705  0.1009  0.1654
64021DOD     C135882  29.418   1.555  12.805  0.0991 -0.1150  0.2476
64021DOD     C235883  29.341   1.922  13.125 -0.1824  0.0335 -0.1373
64021DOD     C335884  28.996   2.056  13.432  0.0376  0.2843  0.2369
64022DOD     C135885  20.831   3.865  14.464  0.0266 -0.0677  0.0004
64022DOD     C235886  21.283   3.962  14.428  0.0855  0.2055  0.0663
64022DOD     C335887  21.651   4.015  14.112 -0.2599 -0.0683  0.0594
64023DOD     C135888  23.740   9.092  20.710 -0.1114 -0.1274 -0.1824
64023DOD     C235889  23.940   9.118  21.151  0.1353 -0.0719  0.2547
64023DOD     C335890  24.351   9.233  21.380  0.1865 -0.0803  0.1155
64024DOD     C135891  10.711  13.337  17.970  0.0516 -0.0805 -0.0957
64024DOD     C235892  10.983  13.538  18.287  0.4394  0.1508  0.2461
64024DOD     C335893  11.134  13.548  18.671  0.1481  0.0675 -0.1481
64025DOD     C135894   9.396  18.970  22.317 -0.2188 -0.0619 -0.3147
64025DOD     C235895   9.246  18.517  22.169  0.2001  0.1696  0.1121
64025DOD     C335896   8.833  18.262  22.015  0.3401 -0.1612 -0.1192
64026DOD     C135897  13.875   9.643  18.670  0.0028  0.2951 -0.1753
64026DOD     C235898  13.964   9.966  18.330 -0.1613  0.0261  0.3617
64026DOD     C335899  14.298   9.996  18.000 -0.2155  0.4542 -0.2742
64027DOD     C135900   2.809  20.652   6.984  0.1720  0.0793 -0.3101
64027DOD     C235901   3.188  20.523   6.687  0.0501 -0.2155  0.1042
64027DOD     C335902   3.494  20.477   6.290  0.0505 -0.3797  0.1882
64028DOD     C135903  27.349   4.230   0.899  0.0665  0.1061 -0.1677
64028DOD     C235904  27.509   4.058   0.521 -0.1758 -0.0271 -0.0815
64028DOD     C335905  27.900   3.925   0.285 -0.1793  0.0436  0.1530
64029DOD     C135906   8.318   3.956   8.659 -0.2131  0.1700  0.1522
64029DOD     C235907   8.266   3.490   8.536 -0.0859  0.2329 -0.0393
64029DOD     C335908   8.059   3.071   8.392  0.3014  0.0115  0.1185
64030DOD     C135909  27.642  21.181   7.924 -0.3414 -0.4232  0.3499
64030DOD     C235910  27.531  21.582   8.106  0.1229  0.3641  0.2250
64030DOD     C335911  27.762  21.835   8.411 -0.0347  0.1505  0.1687
64031DOD     C135912  17.667  24.542  19.072 -0.2088 -0.0414  0.1988
64031DOD     C235913  18.018  24.252  18.941 -0.1584  0.0187  0.3859
64031DOD     C335914  18.423  24.313  19.178  0.0491 -0.0224  0.0651
64032DOD     C135915  10.875   0.353  21.730  0.2029 -0.3235  0.1036
64032DOD     C235916  10.503   0.610  21.521 -0.1895 -0.0359 -0.1684
64032DOD     C335917  10.535   0.654  21.028  0.2207 -0.3410  0.0787
64033DOD     C135918  24.236   1.471  15.182 -0.0194  0.2783  0.1881
64033DOD     C235919  24.095   1.038  15.085 -0.0815  0.0999 -0.1927
64033DOD     C335920  24.206   0.589  15.044  0.0359  0.4919  0.0731
64034DOD     C135921  11.090  19.639  27.279  0.0759 -0.1425  0.1712
64034DOD     C235922  10.900  19.461  26.878 -0.0395  0.0874  0.0314
64034DOD     C335923  10.788  19.392  26.409 -0.3224 -0.1410  0.1882
64035DOD     C135924   7.703  23.339  26.346 -0.1132  0.2348  0.1890
64035DOD     C235925   8.057  23.483  26.492  0.1465 -0.0831  0.1201
64035DOD     C335926   8.495  23.440  26.252 -0.4054 -0.0829 -0.1513
64036DOD     C135927  14.197  24.289  10.102 -0.2624  0.3031 -0.2367
64036DOD     C235928  13.923  24.639  10.333  0.0868  0.0592 -0.0041
64036DOD     C335929  13.685  24.783  10.716  0.1470  0.0352 -0.1415
64037DOD     C135930  13.100  27.112  14.925 -0.1424 -0.2385  0.0554
64037DOD     C235931  13.468  26.752  15.108  0.4707  0.0146  0.0637
64037DOD     C335932  13.851  26.668  14.821 -0.4131 -0.1353 -0.2024
64038DOD     C135933  14.475  29.335  19.974  0.0598  0.1362 -0.1262
64038DOD     C235934  14.364  29.452  19.505  0.0109 -0.1308  0.0280
64038DOD     C335935  14.204  29.168  19.178  0.0956 -0.0943 -0.0800
64039DOD     C135936   0.196   1.826  25.744  0.2449 -0.0284 -0.3595
64039DOD     C235937  30.134   1.432  25.742 -0.1655  0.2515 -0.1659
64039DOD     C335938  29.728   1.348  25.511  0.0948 -0.0495 -0.3387
64040DOD     C135939   7.165  18.736  28.479  0.0916 -0.0652  0.0833
64040DOD     C235940   7.172  19.194  28.467  0.3774  0.0498  0.1164
64040DOD     C335941   6.963  19.467  28.730 -0.1434 -0.1448 -0.1181
64041DOD     C135942  29.096  26.974   0.867 -0.2158 -0.1266 -0.0898
64041DOD     C235943  28.875  26.639   0.561 -0.0870 -0.0694 -0.1837
64041DOD     C335944  28.506  26.377   0.661  0.1808  0.1992 -0.2682
64042DOD     C135945   7.649  17.733   1.004 -0.0012 -0.1972  0.0407
64042DOD     C235946   7.845  17.295   0.972 -0.0254  0.1295 -0.1069
64042DOD     C335947   8.104  16.934   1.121 -0.1985 -0.3819 -0.0480
64043DOD     C135948  18.562  25.440  28.063 -0.0536  0.1597  0.2087
64043DOD     C235949  18.638  25.880  27.933 -0.0604 -0.0396  0.0321
64043DOD     C335950  18.270  26.146  27.735 -0.1152  0.1500 -0.2836
64044DOD     C135951  27.617  22.603  17.579 -0.0726  0.1534 -0.1983
64044DOD     C235952  27.954  22.477  17.330  0.2062 -0.0883 -0.4361
64044DOD     C335953  28.336  22.198  17.220 -0.2116 -0.0354 -0.1583
64045DOD     C135954   1.139  18.999   6.869  0.0789  0.0172  0.0299
64045DOD     C235955   1.120  18.932   7.357 -0.0335 -0.0095  0.0589
64045DOD     C335956   0.938  18.751   7.733 -0.5367  0.0283  0.0214
64046DOD     C135957  25.758  12.888   5.185 -0.2916  0.1742  0.1015
64046DOD     C235958  25.890  13.310   5.237  0.3028 -0.2554 -0.0812
64046DOD     C335959  26.195  13.619   5.322 -0.0908  0.2735 -0.2486
64047DOD     C135960   3.906  15.607   2.879  0.2303  0.0082 -0.4491
64047DOD     C235961   3.888  15.146   3.003 -0.3599  0.0162  0.0308
64047DOD     C335962   3.943  14.727   2.988 -0.1224  0.4874  0.2407
64048DOD     C135963   3.239  12.561  16.678 -0.2072 -0.1215 -0.2535
64048DOD     C235964   3.310  12.961  16.472 -0.0901  0.0105  0.2608
64048DOD     C335965   3.711  13.151  16.280  0.2186 -0.2080  0.1346
64049DOD     C135966  14.673  27.016   9.029  0.1295 -0.1480 -0.2457
64049DOD     C235967  15.068  26.970   9.311 -0.0883  0.0454 -0.0054
64049DOD     C335968  15.463  26.982   9.551 -0.1284  0.2193 -0.0312
64050DOD     C135969  29.541  11.316  21.074 -0.1422 -0.1667  0.1017
64050DOD     C235970  29.949  11.493  20.894  0.2006 -0.1490  0.1252
64050DOD     C335971  30.273  11.772  21.102  0.1166 -0.3934 -0.0877
64051DOD     C135972  16.305  21.775  12.948 -0.0261  0.2356  0.1623
64051DOD     C235973  16.726  21.744  12.843 -0.0958 -0.2352  0.1966
64051DOD     C335974  17.202  21.953  12.899 -0.1441  0.0314  0.4930
64052DOD     C135975  14.340   6.839  27.243 -0.0838  0.0555 -0.1373
64052DOD     C235976  14.689   6.627  27.063 -0.1287  0.1871 -0.0683
64052DOD     C335977  14.871   6.307  26.743  0.0419  0.3445  0.2846
64053DOD     C135978   0.869  13.900   4.887 -0.0431  0.1999 -0.1833
64053DOD     C235979   1.120  14.047   5.271  0.1156  0.0564 -0.1028
64053DOD     C335980   1.289  14.420   5.527  0.0801  0.0848  0.0755
64054DOD     C135981   1.941   1.176   5.123 -0.0217  0.3000  0.0826
64054DOD     C235982   2.322   1.427   5.290  0.0326 -0.1968 -0.3454
64054DOD     C335983   2.404   1.863   5.324 -0.0089 -0.2270  0.1354
64055DOD     C135984  28.941   0.898   9.641  0.0168 -0.0587 -0.0933
64055DOD     C235985  29.372   0.864   9.805  0.1357 -0.1781  0.2864
64055DOD     C335986  29.583   0.589  10.089  0.0319  0.0664  0.3035
64056DOD     C135987  22.340   4.280   7.603 -0.2822  0.0314 -0.0702
64056DOD     C235988  22.242   4.299   7.174  0.1097 -0.1010  0.2068
64056DOD     C335989  22.016   4.126   6.774 -0.1327  0.0042 -0.1406
64057DOD     C135990  22.612  23.876   3.034  0.0472 -0.1659  0.1244
64057DOD     C235991  22.173  23.983   2.767  0.2471 -0.0757 -0.2318
64057DOD     C335992  21.836  23.839   2.501  0.0393  0.1059 -0.0515
64058DOD     C135993  12.519  27.210  15.059  0.0646  0.1715 -0.1236
64058DOD     C235994  12.492  26.817  15.348  0.2314 -0.0112 -0.1452
64058DOD     C335995  12.478  26.517  15.689 -0.0101 -0.0568 -0.0037
64059DOD     C135996  26.528  11.446  10.801 -0.3488  0.0511  0.0755
64059DOD     C235997  26.742  11.319  11.208  0.0287 -0.0937 -0.0529
64059DOD     C335998  26.529  10.977  11.455 -0.0847  0.0094  0.0424
64060DOD     C135999  19.753   6.053  14.389  0.2411 -0.0565  0.0937
64060DOD     C236000  19.805   6.031  13.940  0.1000 -0.1846 -0.0323
64060DOD     C336001  19.576   5.983  13.529  0.2857  0.3471  0.1150
64061DOD     C136002  24.340  11.953  26.211 -0.0510 -0.2058 -0.2716
64061DOD     C236003  24.488  12.371  26.026  0.2101  0.1285  0.0355
64061DOD     C336004  24.717  12.740  26.197  0.3059 -0.0885  0.0072
64062DOD     C136005  15.721  11.708  20.915 -0.0438  0.0561 -0.0127
64062DOD     C236006  15.673  11.463  20.461  0.0687 -0.0969  0.0738
64062DOD     C336007  15.651  11.660  20.062  0.0560  0.1575  0.0687
64063DOD     C136008   3.088  15.606  14.032 -0.3116 -0.2345  0.0586
64063DOD     C236009   3.239  15.603  14.489  0.1502  0.1929 -0.0540
64063DOD     C336010   3.503  15.685  14.840 -0.0524 -0.3530  0.1950
64064DOD     C136011  22.956  17.436  26.342 -0.2956  0.0534  0.2241
64064DOD     C236012  23.303  17.551  26.598  0.1251  0.1400  0.1047
64064DOD     C336013  23.688  17.784  26.579 -0.1831  0.2999  0.1578
64065DOD     C136014  24.740   4.211  24.357  0.2534  0.1379  0.2475
64065DOD     C236015  24.459   3.901  24.105  0.0489 -0.5256 -0.2033
64065DOD     C336016  24.332   3.474  24.061 -0.0063  0.0838 -0.0630
64066DOD     C136017  28.501   1.650  25.704  0.0936  0.0994  0.1880
64066DOD     C236018  28.424   1.433  25.294  0.1784 -0.0154 -0.0974
64066DOD     C336019  28.201   1.012  25.184  0.2155 -0.1507  0.4061
64067DOD     C136020  10.740  25.777  29.770 -0.1738 -0.1103  0.1604
64067DOD     C236021  10.756  26.281  29.721  0.1931  0.2260 -0.1418
64067DOD     C336022  10.554  26.719  29.773 -0.1529  0.1992  0.1773
64068DOD     C136023  27.943  29.054  25.295  0.1347  0.0785  0.1074
64068DOD     C236024  28.017  28.665  25.347  0.0154 -0.1591  0.1246
64068DOD     C336025  28.290  28.360  25.408  0.1224  0.1379 -0.1824
64069DOD     C136026   2.224  20.983  21.428  0.0332  0.1246 -0.0432
64069DOD     C236027   2.066  21.236  21.097  0.0228  0.0561 -0.2707
64069DOD     C336028   1.871  21.298  20.685 -0.2441 -0.2598 -0.2291
64070DOD     C136029  20.959  14.836  21.402  0.0645  0.1261  0.4966
64070DOD     C236030  21.328  15.096  21.465 -0.2225  0.1537 -0.1224
64070DOD     C336031  21.449  15.242  21.871  0.3306  0.0202  0.1876
64071DOD     C136032  15.715  20.055  11.515 -0.1179 -0.4372  0.1487
64071DOD     C236033  15.482  19.852  11.903 -0.2268 -0.0034  0.1073
64071DOD     C336034  15.250  19.760  12.303  0.0409 -0.1342 -0.3193
64072DOD     C136035  14.615   5.894   4.038  0.0427 -0.0132 -0.1317
64072DOD     C236036  14.726   5.548   4.380  0.0653 -0.1146 -0.4256
64072DOD     C336037  14.917   5.237   4.642  0.0604 -0.0089  0.1014
64073DOD     C136038  27.559  23.940  27.137  0.0454  0.3400  0.0317
64073DOD     C236039  27.095  23.819  27.024 -0.5060 -0.1278 -0.1516
64073DOD     C336040  26.706  23.748  26.857 -0.0136 -0.0288 -0.2419
64074DOD     C136041  26.988  20.901  23.800  0.1629  0.2161  0.0024
64074DOD     C236042  27.303  21.234  23.992 -0.3639 -0.2307 -0.3273
64074DOD     C336043  27.431  21.540  24.365  0.3359  0.1441 -0.3914
64075DOD     C136044   0.474  11.022   3.286  0.0636  0.0879  0.1797
64075DOD     C236045   0.116  10.948   3.013  0.2257  0.1470  0.1595
64075DOD     C336046  30.359  10.677   2.684  0.2309 -0.0074 -0.0685
64076DOD     C136047   0.643  13.149  28.256 -0.0724  0.0882  0.0195
64076DOD     C236048   0.898  13.502  28.358  0.0943 -0.0679  0.0939
64076DOD     C336049   1.368  13.466  28.530 -0.2482 -0.0032  0.1258
64077DOD     C136050   0.943   5.121  21.816 -0.2299 -0.1269  0.1127
64077DOD     C236051   1.007   5.054  21.362 -0.2811 -0.1888  0.4056
64077DOD     C336052   0.879   5.291  20.970 -0.2482 -0.0032  0.1095
64078DOD     C136053   5.877  13.994   7.158 -0.1785  0.2623 -0.1020
64078DOD     C236054   5.654  13.835   6.772 -0.1691  0.0137 -0.1486
64078DOD     C336055   5.620  13.812   6.311 -0.0650  0.2121  0.0142
64079DOD     C136056  14.098  23.244   9.748 -0.0093  0.0298  0.1077
64079DOD     C236057  14.431  23.387  10.004 -0.0421  0.1173  0.1355
64079DOD     C336058  14.835  23.152  10.147  0.2028 -0.2727  0.0168
64080DOD     C136059   7.015   8.654  19.106 -0.4017  0.0847  0.2665
64080DOD     C236060   7.394   8.756  18.837  0.2282 -0.2248 -0.3569
64080DOD     C336061   7.655   9.035  18.561 -0.0451  0.0220  0.1983
64081DOD     C136062   3.255   7.342   1.747 -0.0124  0.0310 -0.0607
64081DOD     C236063   2.844   7.227   1.696 -0.1493 -0.0752 -0.2177
64081DOD     C336064   2.665   6.826   1.590 -0.1852 -0.0320 -0.0004
64082DOD     C136065  23.970  18.906   5.409 -0.2395  0.0143  0.3078
64082DOD     C236066  23.839  18.889   5.875 -0.0588  0.0182 -0.1057
64082DOD     C336067  23.702  18.728   6.304 -0.0335 -0.3532 -0.2454
64083DOD     C136068   4.499  30.126  25.012 -0.2342 -0.4611 -0.1921
64083DOD     C236069   4.454   0.299  25.072  0.0210 -0.0773 -0.0490
64083DOD     C336070   4.288   0.755  24.938  0.3319 -0.2772 -0.0637
64084DOD     C136071  30.205   2.682  14.534  0.0696 -0.1941  0.1488
64084DOD     C236072   0.244   2.410  14.565  0.0327  0.0406 -0.1761
64084DOD     C336073   0.729   2.463  14.462  0.4274 -0.2470  0.0937
64085DOD     C136074   1.762  28.449  17.767 -0.1832 -0.1049 -0.0048
64085DOD     C236075   1.773  28.430  18.241 -0.1171  0.0886 -0.1297
64085DOD     C336076   1.650  28.121  18.547 -0.0490 -0.0149  0.1091
64086DOD     C136077  10.680  11.425  29.244  0.0871 -0.0630  0.0588
64086DOD     C236078  10.564  11.278  28.806 -0.0580 -0.1655 -0.0820
64086DOD     C336079  10.915  11.132  28.558  0.1861 -0.1317 -0.0369
64087DOD     C136080  23.183   8.056   1.628  0.0437 -0.0658  0.2465
64087DOD     C236081  23.646   7.988   1.759  0.0221  0.1875  0.0635
64087DOD     C336082  23.994   7.765   2.001  0.2579  0.0348 -0.2530
64088DOD     C136083  19.169   6.275  22.966 -0.1279  0.4717  0.0421
64088DOD     C236084  19.087   6.659  23.214  0.2768  0.2061  0.0915
64088DOD     C336085  18.775   7.011  23.145  0.1423  0.0187 -0.0333
64089DOD     C136086  20.056  19.302  27.184 -0.1092  0.1713  0.0939
64089DOD     C236087  20.378  19.610  27.331 -0.0829  0.2072  0.0146
64089DOD     C336088  20.664  19.876  27.598 -0.0530  0.0014  0.0977
64090DOD     C136089  24.370  20.227  22.877  0.0991  0.4346  0.0822
64090DOD     C236090  24.701  20.191  23.191 -0.1199 -0.3914 -0.0455
64090DOD     C336091  24.827  20.384  23.639  0.0482 -0.0774  0.0688
64091DOD     C136092   8.213  29.482   9.746 -0.2053 -0.0650 -0.1652
64091DOD     C236093   7.969  29.880   9.827 -0.0503  0.1262 -0.1219
64091DOD     C336094   7.552  30.050   9.700  0.1521  0.0848  0.1589
64092DOD     C136095  23.467   2.748  27.471  0.0059 -0.1341 -0.0717
64092DOD     C236096  23.440   2.381  27.194  0.0615 -0.0926 -0.0774
64092DOD     C336097  23.307   2.167  26.814  0.0667 -0.0852  0.3510
64093DOD     C136098  27.688  17.449  16.812 -0.1132  0.0919  0.2247
64093DOD     C236099  27.455  17.509  17.235  0.1942  0.4238 -0.0757
64093DOD     C336100  27.324  17.260  17.660 -0.1208 -0.1490  0.4271
64094DOD     C136101  15.719  30.104  24.225 -0.0952  0.0942 -0.0069
64094DOD     C236102  15.763  30.066  23.761 -0.0931 -0.1464  0.1025
64094DOD     C336103  15.754  30.204  23.351 -0.0462 -0.0826 -0.0289
64095DOD     C136104  19.135  24.483  23.527 -0.0052 -0.0953  0.0314
64095DOD     C236105  19.001  24.060  23.581 -0.2258  0.1881 -0.0316
64095DOD     C336106  18.537  23.935  23.690 -0.2035 -0.1114  0.0588
64096DOD     C136107  11.912   5.968  27.810 -0.0378  0.2264 -0.2177
64096DOD     C236108  11.741   6.368  27.647 -0.0743 -0.3110 -0.1601
64096DOD     C336109  12.047   6.724  27.603  0.1212  0.2448  0.0930
64097DOD     C136110  26.327  29.649   9.364  0.4856 -0.0933 -0.0866
64097DOD     C236111  26.803  29.514   9.517 -0.1193 -0.0241  0.1761
64097DOD     C336112  26.897  29.115   9.695  0.0216 -0.1295  0.1870
64098DOD     C136113  19.363  10.927   0.836  0.0791  0.0322 -0.2056
64098DOD     C236114  19.250  11.145   1.251 -0.0036  0.0625  0.1920
64098DOD     C336115  19.016  10.975   1.601  0.1197  0.4302 -0.2032
64099DOD     C136116  12.118  11.946  11.773  0.1764 -0.1791  0.1679
64099DOD     C236117  12.275  11.533  11.810 -0.4925  0.1193  0.1356
64099DOD     C336118  12.495  11.261  11.544 -0.1851 -0.0799 -0.1376
64100DOD     C136119  20.088  26.049  12.095  0.0228  0.2635  0.1568
64100DOD     C236120  20.343  26.410  12.095 -0.1468  0.1465 -0.3031
64100DOD     C336121  20.644  26.728  12.072 -0.0761 -0.0256 -0.0483
64101DOD     C136122  27.347   7.002   9.888 -0.0926 -0.0020 -0.0156
64101DOD     C236123  27.739   6.720   9.917  0.1154  0.0357 -0.0011
64101DOD     C336124  27.913   6.604   9.496  0.2020  0.0367 -0.1242
64102DOD     C136125  21.793  21.690   7.035 -0.1628 -0.3436  0.2544
64102DOD     C236126  21.793  21.347   6.711  0.1641  0.1902 -0.2979
64102DOD     C336127  21.432  21.145   6.483 -0.3791 -0.2114 -0.1802
64103DOD     C136128  19.038   9.395  16.122 -0.1202 -0.2334  0.0369
64103DOD     C236129  18.896   9.115  16.465 -0.1210 -0.2117 -0.2353
64103DOD     C336130  18.949   9.053  16.976 -0.0569  0.1313 -0.0886
64104DOD     C136131  17.119   2.097   2.335  0.3205  0.0826  0.0558
64104DOD     C236132  17.503   2.395   2.233 -0.0468 -0.3532 -0.0670
64104DOD     C336133  17.615   2.839   2.046 -0.1077 -0.1908 -0.0998
64105DOD     C136134   4.942  25.710  29.167 -0.4356  0.1927  0.0062
64105DOD     C236135   5.078  25.253  29.085 -0.2039 -0.3265  0.3178
64105DOD     C336136   5.080  24.903  28.773 -0.1455 -0.1805  0.1358
64106DOD     C136137  15.844   9.606  17.358 -0.1902  0.5761 -0.3435
64106DOD     C236138  15.450   9.349  17.266 -0.0770  0.0647  0.1713
64106DOD     C336139  15.104   9.090  17.010  0.0529 -0.1162  0.3056
64107DOD     C136140   6.990   5.073  17.069  0.2190  0.0578 -0.0864
64107DOD     C236141   6.850   5.499  16.861 -0.0494 -0.0618  0.1763
64107DOD     C336142   6.975   5.939  16.886  0.2018 -0.0476 -0.0169
64108DOD     C136143  12.130  12.467   8.184  0.0368 -0.0323  0.1753
64108DOD     C236144  11.984  12.513   8.608 -0.1467  0.2419 -0.0334
64108DOD     C336145  12.007  12.378   9.025  0.0957 -0.0371 -0.3256
64109DOD     C136146  27.372   0.712   1.040 -0.2481  0.2450 -0.3468
64109DOD     C236147  27.358   1.126   0.754 -0.0488 -0.1295  0.1181
64109DOD     C336148  27.255   1.411   0.353 -0.0039  0.0002 -0.0215
64110DOD     C136149   0.323   9.994   4.039  0.0758  0.0039 -0.1414
64110DOD     C236150   0.329   9.857   4.449  0.2957  0.3186  0.0185
64110DOD     C336151   0.484   9.484   4.639 -0.2558 -0.0541 -0.4993
64111DOD     C136152  26.667   5.710  10.107  0.1465 -0.1575  0.0437
64111DOD     C236153  26.243   5.861  10.032  0.1182 -0.1816  0.0290
64111DOD     C336154  25.801   5.967   9.948  0.2498 -0.0888 -0.3540
64112DOD     C136155  18.093   2.020  14.902 -0.1827 -0.0712 -0.0474
64112DOD     C236156  18.550   1.861  14.916 -0.2219  0.1224 -0.2908
64112DOD     C336157  18.580   1.470  14.641 -0.0069  0.1851 -0.2554
64113DOD     C136158   5.315  14.939  16.675 -0.1126  0.4610  0.1205
64113DOD     C236159   5.573  15.274  16.747 -0.1469  0.1012  0.3785
64113DOD     C336160   5.581  15.713  16.705 -0.1627 -0.1970  0.0027
64114DOD     C136161  22.495  14.371   4.700 -0.0146 -0.4748 -0.1114
64114DOD     C236162  22.837  14.721   4.682  0.0002 -0.0337  0.3927
64114DOD     C336163  23.337  14.760   4.637  0.2203 -0.0181  0.1810
64115DOD     C136164  14.024  27.093  22.374  0.2004 -0.3006 -0.2526
64115DOD     C236165  14.327  26.732  22.395 -0.1405 -0.1474  0.0515
64115DOD     C336166  14.674  26.709  22.737 -0.0373 -0.1417 -0.0199
64116DOD     C136167   3.717   7.001   7.010 -0.1351  0.0729  0.1991
64116DOD     C236168   4.006   7.199   7.354  0.2011  0.1200 -0.0053
64116DOD     C336169   4.247   7.160   7.769  0.0603 -0.2314 -0.0842
64117DOD     C136170   9.153   8.722  22.291 -0.1475 -0.1657  0.0276
64117DOD     C236171   9.060   9.174  22.413  0.0769 -0.0504  0.3149
64117DOD     C336172   8.814   9.567  22.245 -0.1681  0.0404  0.0653
64118DOD     C136173  15.416  23.162   8.330 -0.0929 -0.1005  0.2622
64118DOD     C236174  15.008  22.946   8.261 -0.0357  0.2776  0.0274
64118DOD     C336175  14.645  22.638   8.370 -0.0200  0.0819  0.1519
64119DOD     C136176   7.178   9.289   4.546  0.1938  0.3159 -0.2040
64119DOD     C236177   7.214   9.722   4.770 -0.1427 -0.2218  0.0053
64119DOD     C336178   7.359   9.959   5.161 -0.1388 -0.0129  0.0104
64120DOD     C136179  17.861  14.059  17.130 -0.1024  0.1088  0.3492
64120DOD     C236180  17.898  13.836  16.675  0.0290 -0.0564 -0.2085
64120DOD     C336181  18.165  13.739  16.257  0.0317  0.2916 -0.4499
64121DOD     C136182  15.317   0.819  10.746 -0.3941 -0.0562  0.2260
64121DOD     C236183  15.553   1.104  10.544  0.2741 -0.4783 -0.0665
64121DOD     C336184  15.854   1.437  10.470  0.1349  0.0979 -0.3412
64122DOD     C136185  19.129  10.320  11.759  0.1679  0.0379  0.2575
64122DOD     C236186  19.306  10.750  11.737  0.1227  0.1879  0.1973
64122DOD     C336187  19.104  11.027  12.047 -0.2763 -0.1379  0.3441
64123DOD     C136188   9.016  17.421  20.086  0.0332  0.3124 -0.0335
64123DOD     C236189   9.132  17.033  20.268  0.2316  0.3310  0.2060
64123DOD     C336190   9.134  16.755  20.652 -0.0515  0.0900  0.0149
64124DOD     C136191   7.761  13.416  12.181 -0.1721  0.1350  0.3281
64124DOD     C236192   7.780  13.252  11.736 -0.1546 -0.0152  0.0763
64124DOD     C336193   7.897  12.988  11.376 -0.2300 -0.0996  0.2922
64125DOD     C136194   7.520   8.802  20.822 -0.2743 -0.0434  0.1366
64125DOD     C236195   7.786   9.197  20.807 -0.0622  0.1579 -0.2696
64125DOD     C336196   7.796   9.510  21.063  0.0290 -0.0832  0.3542
64126DOD     C136197   0.686  27.110  12.549  0.0160 -0.0918  0.4517
64126DOD     C236198   1.023  26.878  12.370  0.1637  0.0708  0.0268
64126DOD     C336199   1.197  26.534  12.079 -0.0766 -0.0851 -0.0041
64127DOD     C136200  28.429   9.494  15.934 -0.1304 -0.0386  0.0359
64127DOD     C236201  28.085   9.432  15.666 -0.3570  0.2615 -0.0577
64127DOD     C336202  27.769   9.194  15.416  0.1028  0.0426 -0.0215
64128DOD     C136203   4.651  27.110  22.057  0.2033 -0.0640  0.3045
64128DOD     C236204   4.959  26.793  22.195  0.0197 -0.2384  0.1887
64128DOD     C336205   5.294  26.513  22.305 -0.1532  0.1095 -0.1020
64129DOD     C136206   9.479   6.319  15.166  0.0562  0.1364 -0.2289
64129DOD     C236207   9.626   6.119  15.549 -0.1994  0.0294 -0.2089
64129DOD     C336208   9.779   6.423  15.885 -0.2319 -0.1358 -0.2605
64130DOD     C136209   5.613  15.847  11.646 -0.1041  0.2163  0.2105
64130DOD     C236210   5.788  15.691  11.997 -0.0049  0.0215  0.0345
64130DOD     C336211   5.673  15.809  12.414 -0.0921 -0.2553  0.1470
64131DOD     C136212  26.327  19.577  16.203 -0.3358  0.0940  0.0685
64131DOD     C236213  26.349  19.531  15.756 -0.0319  0.0125  0.0389
64131DOD     C336214  26.115  19.561  15.346  0.1406 -0.0652  0.0754
64132DOD     C136215  21.352   1.664   3.839 -0.0413  0.0632  0.1741
64132DOD     C236216  20.980   1.329   3.753  0.0657  0.1079 -0.1487
64132DOD     C336217  20.578   1.103   3.610  0.1073  0.0784 -0.2092
64133DOD     C136218  14.461  19.658  18.693  0.1533 -0.1077  0.1628
64133DOD     C236219  14.823  19.764  18.989  0.0051  0.1170 -0.1565
64133DOD     C336220  15.275  19.825  18.891 -0.1758 -0.0281 -0.2689
64134DOD     C136221   8.516  27.288  13.803  0.2366  0.1793 -0.1195
64134DOD     C236222   8.438  27.516  13.423  0.1192 -0.0643 -0.2517
64134DOD     C336223   8.097  27.800  13.192  0.0627  0.1831  0.0892
64135DOD     C136224  13.636  25.113  27.393 -0.0234  0.1430 -0.0018
64135DOD     C236225  13.285  24.878  27.275 -0.1652  0.1811 -0.1206
64135DOD     C336226  13.266  24.547  26.941 -0.0646  0.0698  0.2501
64136DOD     C136227  24.448   9.935   5.751  0.3201  0.1002 -0.0526
64136DOD     C236228  24.697   9.815   6.166 -0.0940 -0.1254 -0.0573
64136DOD     C336229  25.094   9.751   6.348  0.2287 -0.4148  0.0009
64137DOD     C136230  29.678   1.560  13.297  0.1133  0.0271  0.0032
64137DOD     C236231  29.918   1.560  12.934  0.0800 -0.0679  0.3591
64137DOD     C336232  30.345   1.395  12.701  0.1570 -0.0707  0.1273
64138DOD     C136233  20.319  21.743   7.766  0.3139 -0.0147 -0.2677
64138DOD     C236234  20.249  21.842   7.318  0.2155  0.1292 -0.0958
64138DOD     C336235  20.002  21.932   6.904 -0.1654 -0.2371  0.1436
64139DOD     C136236  16.833   0.157   1.981  0.0286  0.1689  0.4334
64139DOD     C236237  16.374   0.241   2.085  0.2522 -0.2078  0.1330
64139DOD     C336238  15.879   0.065   2.092 -0.1743  0.1232 -0.0110
64140DOD     C136239   1.792  15.284  15.185  0.2885  0.1866  0.1148
64140DOD     C236240   2.085  15.615  15.170  0.1929  0.0552  0.0572
64140DOD     C336241   2.489  15.668  14.879  0.0851  0.0499 -0.1111
64141DOD     C136242  22.516  16.576  18.401 -0.2964  0.0041 -0.1311
64141DOD     C236243  22.731  16.480  18.006 -0.1446 -0.3710  0.0728
64141DOD     C336244  23.045  16.350  17.681 -0.0324 -0.2753 -0.2751
64142DOD     C136245   1.089   0.575   1.810 -0.0783 -0.3170 -0.1441
64142DOD     C236246   0.606   0.406   1.901 -0.0171  0.3632 -0.2511
64142DOD     C336247   0.155   0.471   2.010 -0.1657 -0.2294 -0.0151
64143DOD     C136248   1.530   5.149  20.426 -0.0677  0.0773 -0.1455
64143DOD     C236249   1.711   4.782  20.706 -0.0494 -0.0767  0.0750
64143DOD     C336250   1.980   4.615  21.032 -0.3220 -0.0367  0.0706
64144DOD     C136251  26.658  20.338  11.933  0.1003 -0.0761 -0.1023
64144DOD     C236252  26.363  19.990  11.770  0.0529 -0.1066  0.1390
64144DOD     C336253  26.413  19.539  11.818  0.1281 -0.0203  0.2284
64145DOD     C136254  23.450  16.445  28.907 -0.2052  0.0892 -0.1426
64145DOD     C236255  23.090  16.380  28.641  0.3832 -0.2090  0.0926
64145DOD     C336256  22.778  16.092  28.398 -0.1297  0.1718  0.0307
64146DOD     C136257  23.101  24.740   9.457 -0.0261 -0.0569  0.0789
64146DOD     C236258  23.379  25.047   9.278 -0.2925  0.0962  0.3081
64146DOD     C336259  23.747  24.981   8.966 -0.0785  0.0205  0.0245
64147DOD     C136260  28.476  26.862  12.898  0.0234  0.3452  0.1748
64147DOD     C236261  28.154  27.167  13.007  0.0977 -0.0216  0.3273
64147DOD     C336262  27.890  27.373  12.704  0.1210  0.1117 -0.2959
64148DOD     C136263  15.947   9.629  12.333  0.3823  0.1190 -0.0005
64148DOD     C236264  16.091  10.068  12.412 -0.1405  0.2184  0.1021
64148DOD     C336265  16.123  10.418  12.147 -0.3433  0.4520 -0.4849
64149DOD     C136266  27.116  26.204  24.540 -0.2902  0.3018 -0.1357
64149DOD     C236267  26.871  26.121  24.957  0.0518  0.1178  0.4676
64149DOD     C336268  26.659  25.759  25.123 -0.0483 -0.0551  0.0705
64150DOD     C136269  19.169  21.080   3.400  0.0569 -0.3401  0.2894
64150DOD     C236270  18.717  21.066   3.313 -0.0076 -0.0471 -0.1295
64150DOD     C336271  18.490  21.342   3.035 -0.3756  0.0379  0.1652
64151DOD     C136272  13.774   4.537   5.885  0.2617  0.0257  0.0004
64151DOD     C236273  13.851   4.865   5.585  0.0180  0.0362  0.0070
64151DOD     C336274  13.518   5.005   5.273  0.1037  0.1141  0.1859
64152DOD     C136275  19.837   5.171   1.557 -0.2288 -0.0473  0.0839
64152DOD     C236276  20.166   4.936   1.360 -0.2570 -0.0013  0.0124
64152DOD     C336277  20.344   4.558   1.225 -0.3956  0.2494  0.2091
64153DOD     C136278  27.257  23.037  16.664 -0.0530  0.1343 -0.0432
64153DOD     C236279  27.569  22.711  16.579 -0.0496  0.0025  0.2408
64153DOD     C336280  28.068  22.875  16.466  0.2177  0.0925  0.0312
64154DOD     C136281  19.332  29.276  29.021  0.0805  0.2254  0.2320
64154DOD     C236282  19.316  29.688  29.244 -0.1503 -0.1209 -0.1229
64154DOD     C336283  19.513  30.112  29.330  0.0201 -0.1907 -0.1163
64155DOD     C136284   8.948  29.048   7.810 -0.1449  0.0252  0.1502
64155DOD     C236285   9.101  29.471   7.702 -0.1957 -0.3285  0.3572
64155DOD     C336286   9.184  29.615   7.240 -0.1978 -0.0277 -0.0377
64156DOD     C136287  20.613  27.894   9.369  0.0237 -0.1239  0.1596
64156DOD     C236288  20.978  27.729   9.033 -0.0624 -0.0783  0.1543
64156DOD     C336289  21.441  27.827   9.014 -0.1144  0.1021 -0.1753
64157DOD     C136290   7.037   1.614  21.077  0.2260 -0.2044 -0.3565
64157DOD     C236291   7.218   1.964  21.367 -0.2897  0.1144 -0.2387
64157DOD     C336292   7.512   2.322  21.536  0.2728 -0.0945  0.3908
64158DOD     C136293  29.622  20.165  24.014  0.3129 -0.0547  0.1183
64158DOD     C236294  29.648  19.722  24.130 -0.1305  0.0471 -0.1523
64158DOD     C336295  29.934  19.335  24.235  0.1871 -0.0741  0.0352
64159DOD     C136296  11.824  21.251   0.661 -0.0818  0.2147  0.0840
64159DOD     C236297  12.001  21.667   0.503 -0.3976 -0.0115 -0.1796
64159DOD     C336298  12.376  21.835   0.362 -0.1475 -0.1038 -0.1715
64160DOD     C136299  26.206  13.901   7.239 -0.1276  0.3087  0.2876
64160DOD     C236300  26.411  14.153   6.920 -0.2220  0.0220 -0.0953
64160DOD     C336301  26.815  14.405   6.842 -0.0754  0.1093  0.0933
64161DOD     C136302  21.780  21.706  20.482  0.1575  0.1460 -0.0599
64161DOD     C236303  22.011  21.832  20.052  0.2529 -0.0476 -0.1985
64161DOD     C336304  22.428  21.701  19.745 -0.0008 -0.1378 -0.2206
64162DOD     C136305   6.778   5.450  24.905 -0.4161 -0.2190 -0.0363
64162DOD     C236306   6.584   5.552  25.309  0.1539 -0.2382  0.1594
64162DOD     C336307   6.221   5.431  25.570  0.2938 -0.3182  0.1652
64163DOD     C136308   3.846   6.689  17.576 -0.3291 -0.1974  0.0559
64163DOD     C236309   4.175   6.368  17.681  0.1475 -0.2203 -0.2566
64163DOD     C336310   4.633   6.288  17.696 -0.2618  0.1991  0.1423
64164DOD     C136311  11.245  17.782   9.897  0.1397  0.0281 -0.0837
64164DOD     C236312  11.685  17.869  10.030  0.1290 -0.0711 -0.2041
64164DOD     C336313  11.977  17.759  10.370 -0.0504  0.0001  0.3653
64165DOD     C136314  25.420  18.472  27.219  0.1316  0.2192 -0.0742
64165DOD     C236315  25.730  18.239  26.894 -0.2672  0.2236  0.2326
64165DOD     C336316  25.936  18.404  26.532  0.1882  0.1372 -0.1335
64166DOD     C136317  30.086  12.341  20.303  0.0475  0.2399 -0.0969
64166DOD     C236318  29.733  12.582  20.564  0.1413  0.1510  0.1907
64166DOD     C336319  29.307  12.514  20.451  0.0304 -0.0348 -0.0292
64167DOD     C136320   4.720   6.932   3.062  0.0074 -0.2856  0.0481
64167DOD     C236321   4.721   6.964   3.555 -0.1119 -0.0883  0.1636
64167DOD     C336322   4.609   7.001   4.001 -0.1581 -0.1360  0.0042
64168DOD     C136323   2.039  19.798   3.194  0.2603  0.1523  0.0349
64168DOD     C236324   2.477  19.699   3.378  0.0261 -0.1826  0.1490
64168DOD     C336325   2.806  19.397   3.557  0.1746  0.1287 -0.1764
64169DOD     C136326  25.183  21.603  21.117 -0.0843 -0.1118  0.0046
64169DOD     C236327  25.534  21.679  20.851  0.0236  0.1768  0.2463
64169DOD     C336328  25.945  21.478  20.771  0.2820 -0.2643  0.3024
64170DOD     C136329  29.503   3.153  21.556 -0.1229  0.2237  0.0053
64170DOD     C236330  30.013   3.242  21.381  0.0575 -0.0018 -0.1528
64170DOD     C336331  30.241   3.637  21.261  0.0230 -0.3565 -0.0392
64171DOD     C136332  29.985  22.648   6.382  0.0360 -0.3425 -0.0061
64171DOD     C236333   0.139  22.537   6.381 -0.2607  0.1316 -0.0290
64171DOD     C336334   0.492  22.399   6.156  0.2517  0.2218  0.0572
64172DOD     C136335  23.935  21.847  26.171  0.2947  0.2428  0.0867
64172DOD     C236336  23.691  21.616  26.408 -0.1615  0.0094  0.0972
64172DOD     C336337  23.598  21.315  26.761  0.0822 -0.0467 -0.1078
64173DOD     C136338  22.618   5.973  15.623  0.1630  0.0508 -0.4466
64173DOD     C236339  22.331   6.304  15.465 -0.3243  0.0719 -0.1416
64173DOD     C336340  21.944   6.537  15.593 -0.0067  0.0454  0.0456
64174DOD     C136341  24.709   3.090  10.584 -0.1610  0.0342 -0.1065
64174DOD     C236342  24.406   2.745  10.626 -0.2217  0.1165 -0.0018
64174DOD     C336343  24.120   2.379  10.506  0.1770  0.3564 -0.1521
64175DOD     C136344  29.941  15.625   6.203  0.3188  0.2090  0.0305
64175DOD     C236345  29.841  15.985   5.944  0.0823  0.0418 -0.0210
64175DOD     C336346  30.007  16.439   5.877 -0.0747 -0.2907  0.1721
64176DOD     C136347  17.771   8.215   9.284  0.1132 -0.1802  0.1078
64176DOD     C236348  18.111   8.499   9.453 -0.2557  0.1929  0.0911
64176DOD     C336349  18.535   8.470   9.628 -0.0010 -0.0956 -0.0888
64177DOD     C136350   4.043  12.424  23.677  0.2447 -0.0538  0.2571
64177DOD     C236351   4.302  12.287  24.070  0.0032 -0.0364  0.0486
64177DOD     C336352   4.156  11.946  24.297 -0.0435  0.2197 -0.3021
64178DOD     C136353  26.950  13.892  25.316  0.1364 -0.1014  0.0454
64178DOD     C236354  27.153  13.754  24.996 -0.0329  0.0995  0.0959
64178DOD     C336355  27.406  13.541  24.657 -0.0180  0.2167 -0.3719
64179DOD     C136356  19.575  26.035   8.909  0.1508 -0.0806 -0.3143
64179DOD     C236357  19.278  26.354   8.886 -0.2613  0.0087  0.3086
64179DOD     C336358  18.888  26.639   8.905 -0.0133 -0.1475 -0.2245
64180DOD     C136359  20.286  22.898  21.655  0.0886  0.0518  0.0541
64180DOD     C236360  20.519  23.256  21.837 -0.1311 -0.0782  0.0300
64180DOD     C336361  20.771  23.375  22.191 -0.2147 -0.2679  0.1336
64181DOD     C136362   3.753  18.196   4.314 -0.3610  0.0654  0.2918
64181DOD     C236363   4.034  17.794   4.439 -0.0241 -0.0537 -0.4162
64181DOD     C336364   4.389  17.723   4.645 -0.2533  0.0629  0.0655
64182DOD     C136365  23.142  10.636   0.538 -0.3018 -0.3303 -0.0600
64182DOD     C236366  22.995  10.872   0.935 -0.0420 -0.0758  0.1965
64182DOD     C336367  22.896  11.324   0.882 -0.1548 -0.0871  0.2097
64183DOD     C136368   1.795  14.361  18.287  0.3056 -0.2262 -0.0389
64183DOD     C236369   1.339  14.442  18.072  0.1225  0.2430  0.0104
64183DOD     C336370   0.858  14.486  18.153 -0.3322  0.4370 -0.0266
64184DOD     C136371   2.608  27.265  23.502 -0.2016  0.0761 -0.0388
64184DOD     C236372   2.499  26.969  23.125 -0.2387  0.4328  0.1005
64184DOD     C336373   2.227  26.674  22.921 -0.1302  0.0291 -0.1309
64185DOD     C136374  11.090   8.413   6.253 -0.1354  0.0719  0.1337
64185DOD     C236375  10.685   8.633   6.298 -0.0344  0.0124  0.2354
64185DOD     C336376  10.294   8.820   6.324  0.5717  0.0020 -0.2198
64186DOD     C136377   6.791  27.843  15.392 -0.3149  0.2862 -0.1230
64186DOD     C236378   6.765  27.895  14.917  0.3326 -0.2306 -0.0943
64186DOD     C336379   6.497  27.836  14.532  0.2236  0.1214 -0.1379
64187DOD     C136380  13.409  16.832   4.940  0.0435  0.1461 -0.0887
64187DOD     C236381  13.243  17.034   5.335  0.0669  0.3018 -0.0560
64187DOD     C336382  13.465  17.216   5.737 -0.0249 -0.1026  0.1167
64188DOD     C136383   1.903  10.597   4.877  0.1032 -0.0377  0.1191
64188DOD     C236384   2.025  10.344   4.519 -0.1282 -0.2388 -0.3462
64188DOD     C336385   2.460  10.479   4.390 -0.2180 -0.3571 -0.0528
64189DOD     C136386  23.999  27.001  19.032  0.1225 -0.1093 -0.2280
64189DOD     C236387  23.706  26.942  18.695  0.1218  0.1552  0.0413
64189DOD     C336388  23.266  26.844  18.512  0.3642  0.1041  0.0261
64190DOD     C136389  12.079  10.502  13.811 -0.1337 -0.4703 -0.2580
64190DOD     C236390  11.899  10.325  14.205  0.0476  0.0305 -0.2001
64190DOD     C336391  12.057   9.886  14.338 -0.2549  0.0926  0.1212
64191DOD     C136392  20.912   3.316  12.025  0.1279 -0.1502  0.0858
64191DOD     C236393  21.094   2.838  12.014  0.2138 -0.1631  0.1043
64191DOD     C336394  21.174   2.569  12.323  0.1297 -0.1260  0.0495
64192DOD     C136395   5.297   3.978  22.170  0.2418  0.2610 -0.0297
64192DOD     C236396   4.954   4.298  22.218 -0.0852 -0.0449 -0.0240
64192DOD     C336397   4.584   4.561  22.130 -0.1436 -0.0948  0.2994
64193DOD     C136398   9.529   9.098   2.072  0.2608  0.1557 -0.3077
64193DOD     C236399   9.603   9.016   2.542  0.2400  0.0092 -0.2533
64193DOD     C336400   9.689   9.012   3.000  0.3404  0.1860  0.1443
64194DOD     C136401  23.794   2.844   5.734  0.3133 -0.2538  0.1406
64194DOD     C236402  23.662   3.218   5.588 -0.0589 -0.1262  0.1436
64194DOD     C336403  23.317   3.561   5.626 -0.1565  0.0177 -0.0311
64195DOD     C136404  25.634  26.681   9.040  0.0674  0.0884 -0.5670
64195DOD     C236405  25.851  26.394   8.707 -0.0614 -0.2774  0.1283
64195DOD     C336406  25.947  25.924   8.537 -0.0722  0.0403  0.0350
64196DOD     C136407   4.681   8.520   8.925 -0.1041  0.1606  0.4051
64196DOD     C236408   4.349   8.873   8.879  0.0032 -0.3344  0.1232
64196DOD     C336409   3.846   8.784   8.813 -0.0890  0.0170  0.3639
64197DOD     C136410   6.361  16.362  21.654  0.2222  0.3309  0.1477
64197DOD     C236411   6.030  16.269  21.352 -0.1128 -0.2070 -0.2585
64197DOD     C336412   5.662  15.996  21.195  0.0906 -0.3366  0.1209
64198DOD     C136413  23.975  16.301  26.915  0.2492  0.0219  0.0728
64198DOD     C236414  24.108  16.282  26.545 -0.1042  0.1136  0.2914
64198DOD     C336415  24.192  15.985  26.217  0.3619 -0.0454  0.0558
64199DOD     C136416  26.030  22.633   3.150  0.0971 -0.1996 -0.1221
64199DOD     C236417  26.134  22.972   3.470 -0.1907  0.0564 -0.3751
64199DOD     C336418  26.259  23.356   3.758 -0.0144  0.1256  0.1518
64200DOD     C136419  19.140  10.178   4.433 -0.1934  0.0909  0.0839
64200DOD     C236420  18.951   9.826   4.723  0.0342 -0.0656  0.1615
64200DOD     C336421  18.957   9.497   5.017 -0.1225  0.1105  0.0390
64201DOD     C136422  13.002   9.092  12.289  0.2439  0.1757  0.2325
64201DOD     C236423  12.843   9.049  12.734  0.0265 -0.0700  0.1323
64201DOD     C336424  12.863   8.966  13.183  0.1675  0.1239  0.1998
64202DOD     C136425  17.061   9.787   7.836 -0.1341  0.3780 -0.5048
64202DOD     C236426  17.346   9.488   7.696 -0.0673 -0.2351  0.1733
64202DOD     C336427  17.324   9.158   7.312  0.2291  0.2302 -0.0991
64203DOD     C136428  18.972   4.271  14.764  0.3567  0.1574 -0.0713
64203DOD     C236429  18.725   3.973  15.011  0.1966 -0.1691  0.0123
64203DOD     C336430  18.297   3.822  14.996  0.1186  0.1538 -0.1008
64204DOD     C136431   4.698   4.553   5.301 -0.0018  0.0153 -0.1352
64204DOD     C236432   4.499   4.483   4.919  0.2417  0.2827  0.3504
64204DOD     C336433   4.669   4.486   4.414 -0.1333  0.0230  0.1167
64205DOD     C136434  23.860   9.116  10.379  0.1399  0.1326 -0.0296
64205DOD     C236435  24.072   9.324  10.011  0.1791  0.0181 -0.0323
64205DOD     C336436  24.306   9.694   9.826  0.0425 -0.4106  0.3836
64206DOD     C136437  18.460  29.442  24.456  0.0120  0.0414  0.1814
64206DOD     C236438  18.775  29.536  24.801 -0.0465 -0.1903  0.1671
64206DOD     C336439  18.894  29.682  25.190 -0.0471 -0.1578 -0.0303
64207DOD     C136440  23.489  22.056  26.209  0.0818  0.0814 -0.1559
64207DOD     C236441  23.399  21.856  25.778  0.2856 -0.0120 -0.0727
64207DOD     C336442  23.109  21.549  25.546 -0.0680  0.2643 -0.1123
64208DOD     C136443   5.342  16.580  28.958 -0.0238 -0.0534  0.3209
64208DOD     C236444   5.280  17.110  29.051 -0.3539  0.3214 -0.2613
64208DOD     C336445   5.615  17.414  29.156  0.0581 -0.0175 -0.1333
64209DOD     C136446   3.015   7.398   2.272  0.3116  0.0325 -0.3532
64209DOD     C236447   3.472   7.386   2.207 -0.1953 -0.2621 -0.3618
64209DOD     C336448   3.814   7.702   2.319  0.0028  0.0601  0.1920
64210DOD     C136449  23.417  14.963   4.127  0.1129 -0.2989  0.0078
64210DOD     C236450  23.079  15.042   3.820 -0.0425 -0.0023 -0.2714
64210DOD     C336451  23.072  15.196   3.387 -0.0541  0.0151 -0.2550
64211DOD     C136452  27.915  29.661  19.788  0.0219  0.0025 -0.1470
64211DOD     C236453  27.601  29.399  19.958  0.2283  0.0030 -0.1592
64211DOD     C336454  27.295  29.092  19.881  0.1865  0.5076  0.0232
64212DOD     C136455  26.443   4.750  11.192  0.0924 -0.1738  0.0257
64212DOD     C236456  26.204   5.149  11.303 -0.2911 -0.0740  0.0715
64212DOD     C336457  25.792   5.416  11.241  0.0253 -0.1218 -0.0164
64213DOD     C136458  21.847  19.613  19.780 -0.0113 -0.0581 -0.2557
64213DOD     C236459  21.674  19.462  20.192  0.1149 -0.0106 -0.0874
64213DOD     C336460  21.725  19.496  20.663 -0.1167  0.1037  0.1876
64214DOD     C136461  18.899  10.048  18.503 -0.2781  0.0917 -0.1928
64214DOD     C236462  19.309   9.809  18.666 -0.3600  0.0548 -0.1661
64214DOD     C336463  19.519   9.545  19.026 -0.3320  0.1374 -0.3207
64215DOD     C136464  29.731  10.438  17.468  0.2109 -0.0512  0.1339
64215DOD     C236465  30.104  10.647  17.291  0.3098  0.0297  0.2085
64215DOD     C336466   0.192  10.394  17.227  0.0491 -0.1377 -0.2326
64216DOD     C136467  11.142  29.176  29.551  0.1215  0.0891 -0.1160
64216DOD     C236468  10.777  28.944  29.625  0.3177  0.1115 -0.2111
64216DOD     C336469  10.701  28.883  30.124 -0.0291  0.1469 -0.1180
64217DOD     C136470  23.254  21.908  27.507 -0.1286  0.0768 -0.1122
64217DOD     C236471  23.046  21.524  27.674 -0.1524 -0.1450  0.0477
64217DOD     C336472  22.922  21.052  27.560 -0.1659  0.2212 -0.2626
64218DOD     C136473  12.631   9.771  27.765  0.0790 -0.0230 -0.0800
64218DOD     C236474  12.810  10.175  27.975  0.1555 -0.4288  0.2809
64218DOD     C336475  13.159  10.330  28.269  0.0875 -0.3474 -0.0185
64219DOD     C136476  25.202   3.325  30.122  0.3588  0.0822  0.1589
64219DOD     C236477  25.065   3.255   0.223  0.1393 -0.0203  0.4198
64219DOD     C336478  24.785   3.185   0.535 -0.1983  0.1729  0.2193
64220DOD     C136479  15.853  27.712  29.851  0.3543 -0.2027 -0.0571
64220DOD     C236480  16.135  27.342  30.053  0.2026 -0.2551  0.0895
64220DOD     C336481  15.937  26.857  30.017  0.0896  0.0890 -0.2224
64221DOD     C136482  20.033  26.300  11.542  0.0095  0.2173 -0.2309
64221DOD     C236483  19.591  26.218  11.651  0.3329 -0.2258 -0.1819
64221DOD     C336484  19.253  26.234  11.993 -0.0903  0.0939  0.0729
64222DOD     C136485  11.897  13.164  12.397  0.2499  0.1468  0.2206
64222DOD     C236486  11.483  13.048  12.241  0.4414  0.1355 -0.2099
64222DOD     C336487  11.297  13.303  11.886 -0.0101  0.0537  0.0140
64223DOD     C136488   1.809  21.867  28.281  0.2310 -0.1040 -0.1703
64223DOD     C236489   1.895  22.162  27.915 -0.2041 -0.1575 -0.1528
64223DOD     C336490   1.920  22.574  28.023  0.1493 -0.1483  0.0933
64224DOD     C136491  29.982  27.751  28.551 -0.0031 -0.0915 -0.1521
64224DOD     C236492   0.106  27.781  28.585 -0.1562  0.1225 -0.0307
64224DOD     C336493   0.510  28.031  28.415 -0.3972 -0.0953  0.0668
64225DOD     C136494  13.635  27.026  13.397  0.1489 -0.0672 -0.0820
64225DOD     C236495  13.166  27.190  13.332 -0.1566  0.0089  0.0212
64225DOD     C336496  12.722  27.126  13.545  0.5123  0.2145 -0.0734
64226DOD     C136497   1.475  14.434  17.069 -0.1413  0.1201  0.0289
64226DOD     C236498   1.506  14.873  16.832 -0.1319 -0.1127 -0.2130
64226DOD     C336499   1.220  15.184  16.698 -0.2382 -0.1438 -0.1512
64227DOD     C136500  21.087   1.305  20.273  0.1784  0.2677 -0.1941
64227DOD     C236501  21.389   1.150  20.562  0.0400  0.0882 -0.4627
64227DOD     C336502  21.713   1.159  20.904  0.2441  0.0213  0.0529
64228DOD     C136503  16.332   2.669   5.280 -0.2111  0.1557  0.0379
64228DOD     C236504  15.855   2.665   5.310  0.0356  0.0057  0.2756
64228DOD     C336505  15.495   2.944   5.417 -0.2852  0.1820 -0.1003
64229DOD     C136506   7.341   5.723  14.577  0.0379  0.1303 -0.0074
64229DOD     C236507   6.908   5.967  14.618 -0.1272 -0.0048  0.0634
64229DOD     C336508   6.432   5.821  14.644  0.1195  0.1367  0.1710
64230DOD     C136509  28.715   6.942  25.097  0.1960  0.1265 -0.0112
64230DOD     C236510  28.694   6.714  25.508  0.4483  0.1650 -0.2778
64230DOD     C336511  28.628   6.784  25.947  0.0003 -0.0612 -0.1005
64231DOD     C136512   9.205  16.449  19.603  0.2071  0.3444  0.0767
64231DOD     C236513   8.888  16.730  19.385  0.2458 -0.1410  0.0263
64231DOD     C336514   8.949  17.186  19.584  0.1377 -0.0047  0.0253
64232DOD     C136515   6.514  12.153  18.113  0.1112 -0.1844  0.1581
64232DOD     C236516   6.245  11.933  18.361  0.0303  0.3114  0.1720
64232DOD     C336517   6.195  11.441  18.343  0.2685 -0.0587 -0.0698
64233DOD     C136518  14.400  15.367   9.916 -0.2249 -0.0910  0.1440
64233DOD     C236519  14.681  15.612   9.663 -0.1372 -0.0996  0.0318
64233DOD     C336520  15.115  15.762   9.554 -0.0032  0.0598  0.1733
64234DOD     C136521  21.265  21.132  21.731 -0.0483  0.0529  0.1722
64234DOD     C236522  21.333  21.322  21.320 -0.3128 -0.0239 -0.0892
64234DOD     C336523  21.641  21.553  21.076  0.0093  0.2379 -0.0593
64235DOD     C136524  22.610  14.412  17.042  0.0633  0.1403 -0.0183
64235DOD     C236525  22.211  14.369  17.238 -0.0147  0.0952 -0.3086
64235DOD     C336526  21.795  14.325  17.510 -0.0255  0.3468 -0.0392
64236DOD     C136527  25.169  16.892  23.334 -0.1108  0.0031 -0.1129
64236DOD     C236528  25.257  16.456  23.504 -0.1294 -0.3074  0.3537
64236DOD     C336529  25.254  16.038  23.511 -0.1860 -0.0559 -0.1978
64237DOD     C136530   3.614   3.746  24.787  0.2360 -0.0848 -0.2173
64237DOD     C236531   3.388   3.612  24.462 -0.2626  0.0222  0.0629
64237DOD     C336532   3.148   3.379  24.200  0.1127  0.1042  0.1383
64238DOD     C136533   8.293   6.386   3.314  0.0408 -0.0916  0.2644
64238DOD     C236534   8.597   6.636   3.569 -0.3854 -0.2599  0.2744
64238DOD     C336535   8.798   6.885   3.891  0.2628  0.4450 -0.1346
64239DOD     C136536   3.772  26.361   0.539 -0.1495  0.1381  0.0651
64239DOD     C236537   3.611  26.466   0.953 -0.1941  0.3221 -0.1254
64239DOD     C336538   3.253  26.728   1.108  0.0221  0.0182  0.0241
64240DOD     C136539  24.577  10.850  13.382 -0.2455  0.1281 -0.0653
64240DOD     C236540  24.284  11.135  13.656 -0.2449  0.0693 -0.0308
64240DOD     C336541  24.443  11.500  13.899 -0.1780 -0.0483 -0.3934
64241DOD     C136542   5.680  20.165  25.367  0.2054  0.1801  0.2482
64241DOD     C236543   5.834  20.158  25.769  0.1415  0.2111  0.0005
64241DOD     C336544   5.970  19.857  26.054 -0.0442 -0.0765  0.2309
64242DOD     C136545   0.475  22.362  14.632 -0.1521  0.3302 -0.3365
64242DOD     C236546   0.795  22.564  14.398  0.0054  0.2229  0.3517
64242DOD     C336547   1.209  22.727  14.300  0.1572 -0.2108 -0.0584
64243DOD     C136548   0.560   4.071  20.964 -0.2416  0.0463  0.2148
64243DOD     C236549   0.281   4.454  20.872  0.0330 -0.1885 -0.2469
64243DOD     C336550  30.285   4.669  20.565  0.1622 -0.0272  0.1468
64244DOD     C136551  26.243  14.810  28.465  0.0140  0.0264  0.0773
64244DOD     C236552  26.091  14.449  28.693  0.2337 -0.4009  0.2618
64244DOD     C336553  25.846  14.025  28.621  0.0433  0.2458 -0.2542
64245DOD     C136554  17.850  22.377  13.826  0.0742  0.0320  0.1394
64245DOD     C236555  17.948  22.798  13.863  0.1212 -0.2896  0.3189
64245DOD     C336556  18.174  23.182  13.715  0.3967  0.1802  0.2174
64246DOD     C136557  14.971   9.912   9.272 -0.0926 -0.0555  0.2645
64246DOD     C236558  14.899  10.155   8.874 -0.1469  0.4119 -0.2183
64246DOD     C336559  15.162  10.291   8.485  0.0922 -0.1862 -0.1971
64247DOD     C136560   8.259   7.790  17.543  0.0971  0.0426  0.1952
64247DOD     C236561   8.251   7.872  17.099 -0.1448 -0.0593 -0.0275
64247DOD     C336562   8.472   7.879  16.697  0.1040  0.2105  0.2509
64248DOD     C136563  24.045   8.937  24.476  0.1231  0.0395 -0.3026
64248DOD     C236564  23.858   9.230  24.774  0.1786 -0.1048  0.0208
64248DOD     C336565  23.572   9.163  25.142  0.3936 -0.0021 -0.1250
64249DOD     C136566  19.549  11.483  27.693  0.1218 -0.0943  0.0530
64249DOD     C236567  19.070  11.586  27.826  0.0352 -0.0386  0.0932
64249DOD     C336568  18.658  11.759  27.818 -0.1861 -0.3257  0.0446
64250DOD     C136569  30.181  21.225  21.386 -0.2446 -0.1512 -0.3094
64250DOD     C236570   0.094  20.890  21.420 -0.3444  0.3460 -0.4050
64250DOD     C336571   0.331  20.718  21.745 -0.0510 -0.0498 -0.1480
64251DOD     C136572  25.969  18.438  19.973 -0.0014 -0.0479 -0.2564
64251DOD     C236573  26.223  18.539  20.334 -0.2541  0.0928  0.1532
64251DOD     C336574  26.606  18.372  20.491  0.0084  0.1425  0.2337
64252DOD     C136575  29.423   3.771  29.068  0.2923 -0.2349  0.0945
64252DOD     C236576  29.855   3.610  29.178 -0.3103  0.0643 -0.1544
64252DOD     C336577  30.217   3.590  28.880 -0.0973 -0.0923 -0.0637
64253DOD     C136578  12.578   8.521   9.108 -0.1718 -0.1293  0.3447
64253DOD     C236579  13.033   8.508   9.115 -0.1255 -0.0830 -0.0843
64253DOD     C336580  13.432   8.498   9.371  0.0452 -0.1009  0.2900
64254DOD     C136581   9.115  17.770  21.101  0.1797 -0.0009 -0.0382
64254DOD     C236582   9.008  17.866  21.521 -0.3430  0.2589 -0.3867
64254DOD     C336583   8.672  17.650  21.767 -0.2411 -0.2086  0.2131
64255DOD     C136584  18.202  23.920  11.877  0.0496 -0.3182  0.0111
64255DOD     C236585  18.505  24.228  12.153 -0.2797  0.2510  0.1868
64255DOD     C336586  18.507  24.525  12.446  0.1509  0.0653 -0.0315
64256DOD     C136587  23.615  24.467  20.317 -0.0650 -0.0377 -0.2864
64256DOD     C236588  23.538  24.914  20.194  0.0550 -0.0360 -0.0906
64256DOD     C336589  23.427  25.336  20.102  0.0541  0.0020  0.0135
64257DOD     C136590  25.247  17.651   4.805 -0.4061 -0.1912 -0.1754
64257DOD     C236591  25.498  17.273   4.632  0.0702  0.0551 -0.0729
64257DOD     C336592  25.649  17.055   4.300 -0.3936  0.2119 -0.0010
64258DOD     C136593  29.926  16.018  11.169  0.0710  0.2943  0.0201
64258DOD     C236594  29.642  15.680  11.106  0.2058  0.2858  0.0384
64258DOD     C336595  29.774  15.251  10.960 -0.1423 -0.3413  0.1199
64259DOD     C136596  27.917  16.241  14.454  0.1072  0.0872 -0.0928
64259DOD     C236597  27.794  15.807  14.380 -0.2579  0.1356  0.2042
64259DOD     C336598  27.965  15.405  14.253 -0.1720  0.2136  0.2733
64260DOD     C136599  26.982   1.526  23.114 -0.1194  0.4404  0.0536
64260DOD     C236600  27.294   1.810  23.189  0.2502  0.3583  0.0066
64260DOD     C336601  27.575   1.748  23.493  0.2180 -0.1182 -0.3428
64261DOD     C136602   9.808  26.683  25.792 -0.4331  0.2942 -0.0939
64261DOD     C236603  10.051  26.296  25.789 -0.2029 -0.2542  0.2664
64261DOD     C336604  10.374  25.930  25.893 -0.3273  0.2785 -0.1806
64262DOD     C136605  22.299  29.411  16.503  0.0092 -0.0330 -0.2392
64262DOD     C236606  22.322  29.130  16.866 -0.0027 -0.1763 -0.1404
64262DOD     C336607  22.376  28.857  17.217 -0.2773 -0.2099 -0.0416
64263DOD     C136608  16.133  10.348  16.433 -0.2071 -0.1510 -0.0163
64263DOD     C236609  15.985  10.572  16.112  0.0196  0.0703  0.0958
64263DOD     C336610  15.745  10.864  15.859 -0.3551 -0.1600 -0.1802
64264DOD     C136611  26.648  25.137  11.752 -0.0229 -0.2043  0.2512
64264DOD     C236612  27.035  25.284  11.468 -0.1458 -0.1836 -0.1313
64264DOD     C336613  27.462  25.114  11.584 -0.2327  0.0080 -0.1343
64265DOD     C136614  14.612  20.140  11.806 -0.1876 -0.2258  0.0024
64265DOD     C236615  14.758  20.089  12.218 -0.2407 -0.1711 -0.0125
64265DOD     C336616  15.145  20.240  12.463 -0.3737  0.1572 -0.0328
64266DOD     C136617  16.289  11.682  12.508 -0.2788 -0.1464 -0.1373
64266DOD     C236618  16.791  11.561  12.497  0.2218 -0.2570 -0.2415
64266DOD     C336619  17.083  11.719  12.792 -0.2959  0.0956 -0.1842
64267DOD     C136620   1.770  27.940   2.511 -0.1955 -0.1771 -0.1324
64267DOD     C236621   1.967  28.135   2.174 -0.1891 -0.0533  0.0716
64267DOD     C336622   1.876  28.504   1.883  0.3293  0.2214  0.1522
64268DOD     C136623  27.475  16.417  24.328  0.3139  0.1308  0.3215
64268DOD     C236624  27.487  16.416  24.762  0.0070 -0.0659 -0.0646
64268DOD     C336625  27.547  16.399  25.200  0.0028 -0.0949  0.2608
64269DOD     C136626  29.548  23.466  27.641  0.0984  0.1661  0.0134
64269DOD     C236627  29.918  23.798  27.531 -0.0596 -0.3987 -0.0415
64269DOD     C336628  30.279  23.991  27.653  0.2396 -0.1620  0.0888
64270DOD     C136629   2.950  14.417  14.625 -0.0953  0.1691  0.0079
64270DOD     C236630   3.010  14.731  14.310 -0.2058 -0.0915  0.1876
64270DOD     C336631   2.950  15.162  14.234 -0.1089 -0.1138  0.0855
64271DOD     C136632  16.056  15.561  17.549  0.2138  0.0678  0.0387
64271DOD     C236633  16.311  15.336  17.198  0.0473  0.2832  0.1150
64271DOD     C336634  16.194  15.289  16.727 -0.0456  0.1971 -0.2075
64272DOD     C136635  28.411  14.368  28.304 -0.1246  0.2193 -0.1934
64272DOD     C236636  28.787  14.341  28.623  0.0500 -0.0560 -0.1068
64272DOD     C336637  28.843  14.515  29.004  0.1608 -0.2639 -0.2429
64273DOD     C136638   1.230  14.154  19.206  0.1614  0.3019  0.1158
64273DOD     C236639   1.313  13.843  18.767 -0.2030  0.1003 -0.0507
64273DOD     C336640   1.599  13.456  18.746  0.0276 -0.1421  0.0171
64274DOD     C136641  20.813   3.865  20.597 -0.3333  0.1573 -0.0453
64274DOD     C236642  20.815   3.472  20.883 -0.0000 -0.0050  0.2590
64274DOD     C336643  20.612   3.141  21.096  0.0589 -0.3312 -0.2441
64275DOD     C136644   3.369  26.963  24.503  0.2860  0.1335 -0.5488
64275DOD     C236645   3.260  27.359  24.733  0.1028  0.3599 -0.0334
64275DOD     C336646   3.402  27.595  25.083 -0.0630 -0.1044  0.1254
64276DOD     C136647  23.976  17.971   9.936  0.2286  0.1622 -0.3290
64276DOD     C236648  23.510  18.024  10.080  0.0073 -0.0862  0.0978
64276DOD     C336649  23.094  18.032  10.247 -0.2201  0.1363  0.0109
64277DOD     C136650   0.107   5.935   4.888 -0.0806 -0.3242 -0.0903
64277DOD     C236651   0.023   6.066   5.333 -0.4965  0.0590 -0.1668
64277DOD     C336652  30.215   5.781   5.702 -0.0573 -0.2235 -0.5287
64278DOD     C136653  15.408   9.195  25.763 -0.0439 -0.0235 -0.2537
64278DOD     C236654  15.250   9.294  25.326  0.0987  0.0789  0.1902
64278DOD     C336655  15.194   9.181  24.885  0.2379  0.4327 -0.0336
64279DOD     C136656  11.896   4.682  28.493  0.0031 -0.3168  0.3565
64279DOD     C236657  12.404   4.627  28.549 -0.0579  0.2754  0.1912
64279DOD     C336658  12.527   4.171  28.626  0.6634  0.0028 -0.3003
64280DOD     C136659  24.384   7.988  20.549  0.0390 -0.2100 -0.1522
64280DOD     C236660  24.004   8.254  20.715 -0.1762  0.3837 -0.1078
64280DOD     C336661  23.608   8.170  20.886  0.0765  0.3371  0.1013
64281DOD     C136662  13.193   9.904   8.120 -0.2006  0.4065 -0.0685
64281DOD     C236663  12.743  10.026   8.206 -0.0150  0.1690 -0.1135
64281DOD     C336664  12.342  10.285   8.124  0.0624  0.3580 -0.0306
64282DOD     C136665  15.729   3.400   3.423 -0.3347 -0.3110  0.0049
64282DOD     C236666  15.758   3.372   3.878  0.0368 -0.3105  0.0332
64282DOD     C336667  16.201   3.296   4.079 -0.1435  0.0049  0.0572
64283DOD     C136668  30.222  28.236   9.102 -0.4964 -0.2191 -0.1236
64283DOD     C236669  30.217  27.920   9.383  0.2545 -0.1604  0.0477
64283DOD     C336670  30.141  27.480   9.472  0.0135 -0.1940  0.0742
64284DOD     C136671   8.972  27.286  14.718  0.1008 -0.2082  0.0477
64284DOD     C236672   8.963  26.816  14.806  0.0128 -0.0030  0.1438
64284DOD     C336673   8.878  26.360  14.751  0.3242  0.1807  0.1849
64285DOD     C136674   6.959  30.296  27.004 -0.0706  0.1149  0.0761
64285DOD     C236675   7.072   0.167  26.615  0.0540 -0.0500 -0.0394
64285DOD     C336676   7.475   0.209  26.437  0.0045 -0.1150 -0.1987
64286DOD     C136677  17.835  17.883  16.929 -0.0464 -0.0798  0.2433
64286DOD     C236678  17.540  18.222  17.052 -0.0122  0.0540  0.1382
64286DOD     C336679  17.377  18.606  16.914  0.0254 -0.1926 -0.0386
64287DOD     C136680  24.808  23.731   5.563 -0.0155 -0.1149 -0.1337
64287DOD     C236681  24.983  23.367   5.492 -0.0403  0.0444 -0.1898
64287DOD     C336682  25.346  23.107   5.256 -0.1279 -0.0915 -0.0255
64288DOD     C136683   2.611  21.694  19.718 -0.0314  0.2064  0.0119
64288DOD     C236684   2.156  21.778  19.566 -0.0641 -0.1341 -0.1030
64288DOD     C336685   2.033  22.149  19.320 -0.3078  0.3248  0.1241
64289DOD     C136686  22.496  14.590  12.280 -0.3225 -0.0402  0.3027
64289DOD     C236687  22.460  14.774  11.824  0.2162  0.0505  0.1576
64289DOD     C336688  22.481  15.011  11.436  0.1098 -0.1945 -0.0854
64290DOD     C136689  24.910  26.031  18.101  0.2034 -0.1382  0.0396
64290DOD     C236690  24.740  25.695  17.870 -0.1966 -0.0675 -0.2631
64290DOD     C336691  24.560  25.323  17.937  0.0691 -0.1123 -0.1349
64291DOD     C136692  11.351  13.470  13.678  0.3306 -0.0625  0.2070
64291DOD     C236693  11.077  13.369  13.286  0.2107  0.0968  0.3140
64291DOD     C336694  10.841  13.625  12.985 -0.2398  0.3336 -0.3398
64292DOD     C136695  29.481  24.707  29.718 -0.1297 -0.0595 -0.1690
64292DOD     C236696  29.579  25.029  29.437 -0.3212 -0.2395  0.0165
64292DOD     C336697  29.716  25.310  29.113  0.0515  0.0368 -0.1358
64293DOD     C136698  11.857  29.837   9.879  0.3824  0.0376 -0.0840
64293DOD     C236699  12.234  29.505   9.996 -0.0734 -0.1494  0.0480
64293DOD     C336700  12.518  29.546  10.361 -0.0673  0.1255  0.4677
64294DOD     C136701  16.133   6.926   2.689 -0.0798 -0.0418  0.0583
64294DOD     C236702  15.758   6.677   2.674 -0.2372  0.3150 -0.1066
64294DOD     C336703  15.473   6.316   2.827 -0.0399 -0.1972 -0.0381
64295DOD     C136704  18.232  14.633  24.159  0.0668 -0.0025 -0.1330
64295DOD     C236705  17.839  14.627  24.391 -0.2563  0.0621  0.0023
64295DOD     C336706  17.755  14.404  24.783 -0.2288  0.1186  0.3221
64296DOD     C136707  15.368  20.796  20.244 -0.0867 -0.2691  0.2085
64296DOD     C236708  15.487  21.179  20.388  0.0641  0.0506 -0.0020
64296DOD     C336709  15.437  21.250  20.841  0.1830  0.0111 -0.0238
64297DOD     C136710  11.329   8.067   1.511  0.3665 -0.1116  0.1745
64297DOD     C236711  11.542   7.767   1.238 -0.0038 -0.1310  0.3492
64297DOD     C336712  11.975   7.901   1.126 -0.1218  0.0770  0.3433
64298DOD     C136713  13.471  21.811  21.095 -0.1452 -0.2120 -0.3290
64298DOD     C236714  13.534  22.211  21.286  0.4574  0.1571 -0.3843
64298DOD     C336715  13.792  22.448  21.573  0.2345  0.0545 -0.1327
64299DOD     C136716   0.822  12.724  29.046 -0.3410 -0.0393 -0.1241
64299DOD     C236717   0.772  13.163  28.944  0.4377  0.0260 -0.4861
64299DOD     C336718   0.972  13.561  28.851 -0.2385 -0.1967  0.2828
64300DOD     C136719  15.807   6.102  29.223 -0.0416 -0.0740 -0.1767
64300DOD     C236720  15.524   6.071  28.887  0.2061 -0.3486 -0.0272
64300DOD     C336721  15.132   6.292  28.840  0.1235 -0.2154 -0.2248
64301DOD     C136722  18.138  10.707  25.089 -0.4750  0.3726 -0.1723
64301DOD     C236723  18.305  10.390  24.754 -0.0933 -0.0390 -0.2760
64301DOD     C336724  18.460   9.962  24.644  0.1281  0.0537 -0.0397
64302DOD     C136725  21.387  26.763   0.194  0.2940 -0.0350 -0.1096
64302DOD     C236726  21.842  26.886   0.090 -0.1779  0.0035  0.0504
64302DOD     C336727  22.139  27.179  30.152  0.0284  0.2051 -0.1420
64303DOD     C136728  28.357   3.094   3.961 -0.1668 -0.1467 -0.1056
64303DOD     C236729  28.779   3.346   4.025  0.1304  0.2327 -0.1053
64303DOD     C336730  28.933   3.314   4.397 -0.0328 -0.0143  0.0750
64304DOD     C136731   0.411  29.037   6.540 -0.1262  0.4153  0.2687
64304DOD     C236732   0.090  28.703   6.443 -0.2589  0.2306 -0.0273
64304DOD     C336733  30.222  28.288   6.494 -0.2056 -0.0899  0.0608
64305DOD     C136734  22.753   7.280  26.977  0.0378  0.0103  0.2406
64305DOD     C236735  22.586   6.882  26.993 -0.0199  0.4181  0.2040
64305DOD     C336736  22.454   6.469  27.189 -0.0832 -0.2017  0.0240
64306DOD     C136737  12.466  18.897   7.401  0.0168 -0.1883 -0.2398
64306DOD     C236738  12.517  19.002   6.932 -0.2699 -0.1534  0.3983
64306DOD     C336739  12.396  18.892   6.522  0.0394  0.0952  0.0142
64307DOD     C136740  10.671   4.391   2.387 -0.2644 -0.1969 -0.0076
64307DOD     C236741  10.997   4.415   2.788  0.2726  0.2192  0.1148
64307DOD     C336742  11.133   4.781   3.052 -0.0104  0.0630  0.1411
64308DOD     C136743  20.507  25.719  12.612  0.0730  0.0809 -0.0933
64308DOD     C236744  20.261  26.125  12.622 -0.0283 -0.2379  0.2177
64308DOD     C336745  19.949  26.516  12.540  0.1562  0.2651 -0.1093
64309DOD     C136746   4.868   0.878   5.260  0.1604  0.3282 -0.1271
64309DOD     C236747   4.405   0.966   5.222 -0.0418  0.0329 -0.0380
64309DOD     C336748   4.160   1.064   4.790  0.2859  0.1842 -0.0751
64310DOD     C136749   0.349  13.355  21.958 -0.0362 -0.0695 -0.1652
64310DOD     C236750   0.481  12.920  22.143  0.3621 -0.1140  0.1192
64310DOD     C336751   0.615  12.470  22.244 -0.5467 -0.1197 -0.1327
64311DOD     C136752  25.597  25.288  18.078  0.0091 -0.1090  0.2767
64311DOD     C236753  25.786  25.423  18.484 -0.0495 -0.2754 -0.0907
64311DOD     C336754  26.143  25.725  18.734 -0.2366  0.0947  0.0563
64312DOD     C136755  23.582   6.185  27.911  0.1087 -0.1181  0.0488
64312DOD     C236756  23.902   6.183  27.573 -0.0274  0.0008 -0.2618
64312DOD     C336757  24.135   6.593  27.470  0.3149 -0.3303  0.2815
64313DOD     C136758  22.928  19.237  13.940 -0.0792  0.2533 -0.1919
64313DOD     C236759  22.889  19.136  14.450  0.0749 -0.4703  0.0837
64313DOD     C336760  22.535  19.344  14.665 -0.2448 -0.0612 -0.0993
64314DOD     C136761   2.869  23.704  26.018 -0.0905 -0.1728  0.1405
64314DOD     C236762   2.540  23.555  25.694  0.0381 -0.2344 -0.0172
64314DOD     C336763   2.074  23.585  25.630  0.5227 -0.0879  0.0092
64315DOD     C136764  18.042  15.010  29.597  0.1242 -0.0491 -0.0127
64315DOD     C236765  18.387  15.151  29.850  0.3156 -0.1993 -0.2186
64315DOD     C336766  18.691  15.177  30.139 -0.0075  0.0623  0.1222
64316DOD     C136767  13.933  14.200  15.186 -0.1406  0.0616 -0.1993
64316DOD     C236768  14.091  13.793  15.372  0.2405 -0.2552 -0.1276
64316DOD     C336769  14.151  13.337  15.211 -0.1253  0.1572  0.0670
64317DOD     C136770  29.155   8.871  30.256 -0.0985 -0.2003  0.3118
64317DOD     C236771  29.240   8.431   0.105  0.0249 -0.1701  0.0296
64317DOD     C336772  29.223   8.180   0.486  0.0051  0.3842  0.2491
64318DOD     C136773   3.331   4.631  10.413 -0.0138 -0.1070 -0.3537
64318DOD     C236774   3.216   4.632  10.885  0.1068 -0.4316  0.0695
64318DOD     C336775   2.914   4.688  11.245  0.1776 -0.2145 -0.3162
64319DOD     C136776   5.612   1.618   7.761  0.1616 -0.0961  0.1673
64319DOD     C236777   5.648   1.961   8.038  0.2042 -0.1870 -0.1702
64319DOD     C336778   5.305   2.166   8.295 -0.0582  0.2706  0.0209
64320DOD     C136779  15.057  27.562   5.916 -0.3097  0.1930 -0.0231
64320DOD     C236780  15.516  27.617   5.942  0.3854  0.0259 -0.2127
64320DOD     C336781  15.886  27.946   6.010  0.0664  0.0480  0.0973
64321DOD     C136782  25.329  12.067  21.649 -0.1779  0.0276  0.1077
64321DOD     C236783  25.632  12.391  21.546 -0.1438 -0.1766  0.0409
64321DOD     C336784  25.704  12.693  21.153  0.0482 -0.1072  0.3221
64322DOD     C136785   9.078  17.847  24.016 -0.2132  0.0875  0.3009
64322DOD     C236786   8.745  17.695  23.761  0.2324 -0.1750 -0.0480
64322DOD     C336787   8.311  17.954  23.762 -0.0696 -0.1615  0.0093
64323DOD     C136788  10.498  19.691  15.120  0.0596  0.0350  0.1173
64323DOD     C236789  10.692  19.493  15.511 -0.2490 -0.0776  0.1208
64323DOD     C336790  10.868  19.600  15.972 -0.1147 -0.1671  0.2796
64324DOD     C136791  26.055  10.285   1.803  0.0049  0.2259  0.1557
64324DOD     C236792  26.025  10.237   2.248 -0.2187 -0.0082 -0.1322
64324DOD     C336793  26.059  10.006   2.695 -0.0930  0.1732  0.1908
64325DOD     C136794  10.298  16.347   7.982  0.0807 -0.1234 -0.1366
64325DOD     C236795  10.450  16.215   8.380  0.1821  0.1250 -0.2211
64325DOD     C336796  10.320  16.301   8.813  0.1447  0.2209 -0.1165
64326DOD     C136797  13.712   8.730  13.621  0.3077  0.1889 -0.1601
64326DOD     C236798  13.776   8.890  14.087  0.1520 -0.0399  0.2163
64326DOD     C336799  14.001   8.756  14.447 -0.0481 -0.0011  0.1922
64327DOD     C136800  25.927   2.143   8.761 -0.5088 -0.0133 -0.2323
64327DOD     C236801  25.722   2.022   9.119 -0.2905 -0.0328  0.0553
64327DOD     C336802  25.338   1.796   9.127  0.0976 -0.2183 -0.1266
64328DOD     C136803   8.208  18.439  28.256 -0.1261  0.1053 -0.2341
64328DOD     C236804   7.755  18.616  28.366  0.0165  0.1801 -0.0420
64328DOD     C336805   7.467  18.928  28.104 -0.2098 -0.1055  0.1750
64329DOD     C136806  24.886  21.488  17.661 -0.0683 -0.1452  0.1130
64329DOD     C236807  24.676  21.461  17.245  0.2838  0.2067 -0.0820
64329DOD     C336808  24.574  21.160  16.859 -0.2433  0.0130  0.0288
64330DOD     C136809  10.568  27.532  27.336 -0.0244 -0.2835 -0.3456
64330DOD     C236810  10.373  27.864  27.511 -0.2145  0.1219  0.1257
64330DOD     C336811   9.915  28.007  27.563 -0.1166 -0.0592 -0.1486
64331DOD     C136812   1.670  24.027  15.033  0.1710  0.0051  0.0984
64331DOD     C236813   1.659  24.453  15.165 -0.2481  0.0702  0.0264
64331DOD     C336814   1.993  24.776  15.253 -0.1162  0.0582  0.1206
64332DOD     C136815   0.084   1.874   7.200  0.0981  0.0382 -0.0924
64332DOD     C236816   0.355   1.813   6.860 -0.1985 -0.0130 -0.3294
64332DOD     C336817   0.742   1.619   6.719 -0.2535 -0.0138 -0.0792
64333DOD     C136818   9.300  15.485  15.755 -0.0165  0.0734 -0.0541
64333DOD     C236819   9.395  15.076  15.958  0.0633  0.1397  0.0615
64333DOD     C336820   9.566  14.672  16.196  0.2802 -0.0094  0.0884
64334DOD     C136821   8.582  25.376  16.650  0.0621 -0.0811 -0.0860
64334DOD     C236822   8.829  25.106  16.399  0.3521  0.2339  0.0612
64334DOD     C336823   8.955  24.648  16.387  0.1015 -0.1121 -0.2428
64335DOD     C136824   9.455  28.493  11.771  0.0958  0.0063 -0.3534
64335DOD     C236825   9.615  28.333  12.153  0.0700 -0.0321 -0.1438
64335DOD     C336826  10.020  28.219  12.338 -0.4037 -0.3333 -0.1886
64336DOD     C136827   8.791  21.036   6.677 -0.1474 -0.1912  0.0854
64336DOD     C236828   9.087  21.362   6.910 -0.0331  0.0447 -0.0311
64336DOD     C336829   9.351  21.614   7.187 -0.1931 -0.0926  0.3673
64337DOD     C136830  14.977  10.713  21.731 -0.0219  0.1965  0.2672
64337DOD     C236831  15.060  10.623  21.235 -0.2017  0.2021 -0.0743
64337DOD     C336832  15.422  10.728  20.904  0.1607  0.1625  0.1311
64338DOD     C136833   4.414   3.486  24.847 -0.1966  0.0480  0.2740
64338DOD     C236834   3.950   3.293  24.954 -0.0139 -0.0235  0.1295
64338DOD     C336835   3.528   3.281  24.894 -0.1861  0.0139  0.0247
64339DOD     C136836  29.766   0.856  26.445  0.4648  0.3344 -0.2172
64339DOD     C236837  29.593   1.231  26.718  0.0430 -0.1514  0.1976
64339DOD     C336838  29.377   1.517  27.029  0.1504 -0.1127  0.4218
64340DOD     C136839   1.106  19.454  14.076  0.0272  0.1622  0.3168
64340DOD     C236840   0.895  19.801  14.300  0.2590 -0.3346  0.2374
64340DOD     C336841   0.565  20.026  14.462 -0.0284 -0.4755 -0.2335
64341DOD     C136842  19.050  28.386  13.610 -0.0716 -0.1326  0.1015
64341DOD     C236843  19.411  28.664  13.413 -0.0387  0.3999  0.2006
64341DOD     C336844  19.595  28.971  13.072  0.0485  0.1650 -0.1210
64342DOD     C136845  25.734   1.200   6.657  0.0979  0.0677  0.3734
64342DOD     C236846  25.717   1.026   7.157  0.0687 -0.0428 -0.1043
64342DOD     C336847  25.853   0.800   7.532  0.0239 -0.1165  0.0623
64343DOD     C136848   3.846  21.793   4.540  0.1275 -0.3451  0.1249
64343DOD     C236849   3.464  22.106   4.591 -0.2954  0.0413  0.1146
64343DOD     C336850   3.232  22.491   4.699  0.1850 -0.1482  0.2261
64344DOD     C136851  11.775  28.477   9.091 -0.1033 -0.1166 -0.0346
64344DOD     C236852  11.577  28.863   9.320  0.1584  0.1789 -0.3226
64344DOD     C336853  11.344  29.063   9.696 -0.1288  0.1264 -0.0678
64345DOD     C136854  25.635  20.972   4.124  0.2448  0.3273 -0.0711
64345DOD     C236855  25.568  20.551   4.313  0.1198 -0.1214  0.3222
64345DOD     C336856  25.768  20.336   4.643  0.2497 -0.1547  0.0156
64346DOD     C136857   9.359  10.098   1.757 -0.2379  0.0815  0.2135
64346DOD     C236858   9.031  10.215   1.403 -0.0352  0.0583 -0.4887
64346DOD     C336859   8.880  10.360   0.991  0.2301 -0.0756 -0.1446
64347DOD     C136860  11.537  27.032  15.245  0.3505 -0.1688  0.0921
64347DOD     C236861  11.320  26.839  15.687 -0.0016 -0.1569 -0.0067
64347DOD     C336862  11.059  26.598  15.942  0.2560  0.2677  0.2214
64348DOD     C136863  14.255  29.049  24.034 -0.0458 -0.1271  0.0361
64348DOD     C236864  13.998  28.712  24.245  0.1961 -0.0723  0.0655
64348DOD     C336865  13.962  28.282  24.352  0.1134  0.2526 -0.0544
64349DOD     C136866  22.668  11.292  24.666  0.1446  0.0548 -0.1640
64349DOD     C236867  22.747  11.004  25.020 -0.0473 -0.0273 -0.3528
64349DOD     C336868  22.970  10.572  25.153  0.2320  0.0999  0.1438
64350DOD     C136869  18.630  12.409   8.028 -0.2444 -0.0758 -0.6759
64350DOD     C236870  19.094  12.362   7.891 -0.0441 -0.0018  0.2419
64350DOD     C336871  19.501  12.096   7.916 -0.2049 -0.1407  0.2344
64351DOD     C136872   9.635  17.480  16.690 -0.2054 -0.0516 -0.0684
64351DOD     C236873   9.246  17.500  16.587  0.2808 -0.0570 -0.1300
64351DOD     C336874   8.845  17.412  16.349  0.1019 -0.2613  0.2534
64352DOD     C136875   9.606   4.492  18.775 -0.5015  0.1315 -0.0949
64352DOD     C236876   9.923   4.178  18.875  0.0545 -0.3052  0.0674
64352DOD     C336877  10.139   3.830  19.067  0.0486 -0.0211  0.3572
64353DOD     C136878  21.414  12.623   7.361  0.1286 -0.3868  0.2146
64353DOD     C236879  20.989  12.699   7.078  0.0767  0.2493  0.2616
64353DOD     C336880  20.555  12.554   7.036 -0.0782 -0.0590  0.1701
64354DOD     C136881  19.053   6.590  11.924 -0.1061 -0.3275 -0.0172
64354DOD     C236882  19.417   6.872  12.095 -0.2569  0.4331  0.0046
64354DOD     C336883  19.577   7.150  12.487 -0.0253 -0.3541 -0.2291
64355DOD     C136884  22.068  21.101  10.016  0.1950  0.0143 -0.0109
64355DOD     C236885  21.927  20.688   9.782  0.1901  0.1075  0.0586
64355DOD     C336886  21.832  20.187   9.658 -0.1199 -0.0219 -0.2097
64356DOD     C136887   4.240   7.054   3.040 -0.1776 -0.1624 -0.0660
64356DOD     C236888   4.302   6.717   2.788  0.2138 -0.0842  0.3387
64356DOD     C336889   4.152   6.347   2.558 -0.0170  0.0914  0.0387
64357DOD     C136890  26.832   9.543  29.140  0.2363 -0.1721  0.1331
64357DOD     C236891  26.740   9.257  28.775  0.0241 -0.2669 -0.0413
64357DOD     C336892  26.904   8.908  28.526  0.0462 -0.0799  0.0557
64358DOD     C136893  30.239  11.318   3.242 -0.0656 -0.0140 -0.1240
64358DOD     C236894  30.346  11.567   2.892  0.0492  0.0955 -0.3191
64358DOD     C336895   0.268  11.725   2.579  0.1121 -0.3225 -0.1332
64359DOD     C136896  17.057  16.877  23.736  0.1650  0.1200 -0.0633
64359DOD     C236897  17.391  16.527  23.669  0.1505  0.1680  0.0108
64359DOD     C336898  17.577  16.363  23.250 -0.3551  0.2108  0.2198
64360DOD     C136899   4.219  17.624   6.177  0.1336 -0.2576  0.0781
64360DOD     C236900   4.691  17.491   6.009  0.3046 -0.1886 -0.1101
64360DOD     C336901   4.969  17.272   5.692  0.1193 -0.0421  0.1234
64361DOD     C136902   7.599  22.739   4.588 -0.4814  0.0934  0.2119
64361DOD     C236903   7.447  22.704   5.066  0.3373  0.2311 -0.0920
64361DOD     C336904   7.461  22.905   5.407 -0.0558 -0.2350 -0.2269
64362DOD     C136905  24.433  18.239   0.314  0.2543  0.3359  0.1512
64362DOD     C236906  23.987  18.306   0.126  0.2549 -0.0062  0.0592
64362DOD     C336907  23.554  18.279  30.243 -0.2780 -0.1613  0.1611
64363DOD     C136908  28.122   5.913  27.801  0.1331 -0.0565 -0.0218
64363DOD     C236909  28.311   5.706  28.175  0.0343 -0.0466  0.2564
64363DOD     C336910  28.434   5.413  28.505 -0.0834  0.1298 -0.0434
64364DOD     C136911  20.331  13.160   2.222  0.1630 -0.1513  0.1335
64364DOD     C236912  20.007  13.354   2.386 -0.0985  0.1647  0.1470
64364DOD     C336913  19.590  13.599   2.458  0.3890 -0.0027  0.0351
64365DOD     C136914   4.934   0.568  11.370 -0.4647 -0.0527 -0.0903
64365DOD     C236915   4.599   0.674  11.036 -0.1303 -0.1283  0.4548
64365DOD     C336916   4.209   0.941  10.953  0.0460  0.2377 -0.1083
64366DOD     C136917  25.885  23.549   4.174  0.3601 -0.0638  0.0775
64366DOD     C236918  25.895  23.127   3.957 -0.1960 -0.2557 -0.0692
64366DOD     C336919  25.912  22.660   3.817 -0.0131 -0.0747 -0.1238
64367DOD     C136920   1.926   8.061   1.894 -0.1287 -0.0088  0.3423
64367DOD     C236921   1.704   7.711   1.644 -0.0953  0.0974  0.0978
64367DOD     C336922   1.713   7.269   1.802  0.3263  0.2983  0.0437
64368DOD     C136923  30.226   3.111  24.276  0.2220  0.0480 -0.0745
64368DOD     C236924  29.944   2.772  24.017  0.1095 -0.0061 -0.0854
64368DOD     C336925  29.762   2.400  23.866  0.0844  0.0224 -0.1687
64369DOD     C136926  24.902   3.623  11.887  0.0785 -0.0249 -0.3562
64369DOD     C236927  24.881   3.644  11.373  0.2077  0.0276 -0.0926
64369DOD     C336928  24.909   3.966  11.031  0.2054  0.1086 -0.1342
64370DOD     C136929  17.781  24.937  14.652 -0.0207  0.0719 -0.1814
64370DOD     C236930  17.581  24.892  14.238  0.2830  0.2973  0.0744
64370DOD     C336931  17.384  24.678  13.862 -0.0078 -0.4302  0.0775
64371DOD     C136932   9.962  25.917  16.246  0.0351  0.0691  0.0620
64371DOD     C236933   9.791  26.003  16.667  0.2056  0.1510  0.0214
64371DOD     C336934   9.747  25.998  17.102 -0.0218 -0.3098 -0.0547
64372DOD     C136935  14.061   7.967  24.613  0.1734 -0.3057  0.0356
64372DOD     C236936  13.912   8.201  24.201  0.0003 -0.1938 -0.0602
64372DOD     C336937  13.688   8.066  23.824 -0.1797 -0.0738  0.0780
64373DOD     C136938   2.333   0.165  22.737 -0.0172  0.3119  0.0371
64373DOD     C236939   2.275   0.434  22.367 -0.0032  0.2116  0.0072
64373DOD     C336940   2.086   0.627  21.930  0.0396  0.0576  0.1729
64374DOD     C136941  20.288   0.306  27.516  0.2546  0.2195 -0.2116
64374DOD     C236942  20.574   0.303  27.939  0.2081  0.0376  0.0972
64374DOD     C336943  20.956   0.298  28.045  0.0471  0.2708  0.0648
64375DOD     C136944   4.953   6.581  28.659  0.0573 -0.0327 -0.0794
64375DOD     C236945   4.960   6.628  28.184 -0.0663 -0.0423  0.3051
64375DOD     C336946   5.128   6.882  27.776 -0.1604 -0.1369 -0.2339
64376DOD     C136947  18.284  21.059  11.533 -0.0392  0.1358 -0.1618
64376DOD     C236948  18.772  21.041  11.477 -0.1585 -0.1570  0.1739
64376DOD     C336949  19.077  20.716  11.685  0.0906 -0.0596 -0.0256
64377DOD     C136950  10.734  27.844  26.177 -0.0454 -0.0113  0.2852
64377DOD     C236951  10.474  28.133  25.910  0.3246  0.0262  0.2297
64377DOD     C336952  10.401  28.513  25.649 -0.3211 -0.1355  0.2130
64378DOD     C136953  16.493   7.521  25.159  0.0157  0.0473  0.0086
64378DOD     C236954  16.917   7.579  25.251  0.1024  0.0654  0.0997
64378DOD     C336955  17.381   7.583  25.296  0.0852 -0.3583 -0.0508
64379DOD     C136956   2.947  20.541   1.189  0.0201  0.1932  0.0987
64379DOD     C236957   2.656  20.230   0.910 -0.1167  0.1115  0.2039
64379DOD     C336958   2.830  19.943   0.552  0.1573  0.0467 -0.0182
64380DOD     C136959   4.154  30.217  28.351 -0.0258 -0.0682  0.0625
64380DOD     C236960   3.873   0.231  28.249 -0.1083 -0.1577 -0.2054
64380DOD     C336961   3.723   0.665  28.452 -0.1801  0.1670  0.2674
64381DOD     C136962  16.200  14.176  13.125 -0.2028 -0.1107  0.2471
64381DOD     C236963  16.610  14.048  13.329 -0.0871 -0.1776  0.2861
64381DOD     C336964  17.035  14.319  13.412  0.0970  0.2208  0.1681
64382DOD     C136965  20.809  24.978   2.088 -0.2670  0.0080 -0.0451
64382DOD     C236966  20.456  24.776   2.443  0.0772 -0.2275 -0.0118
64382DOD     C336967  20.104  24.890   2.724 -0.0032  0.1000 -0.1579
64383DOD     C136968   0.081  14.149  20.316 -0.1126  0.0906 -0.0889
64383DOD     C236969   0.318  13.834  20.597  0.0201  0.0548  0.3294
64383DOD     C336970   0.476  13.729  21.004  0.1689 -0.2880 -0.0594
64384DOD     C136971  21.497  13.479   9.187 -0.0319  0.0686  0.1341
64384DOD     C236972  21.285  13.858   9.274 -0.0477  0.0642  0.0510
64384DOD     C336973  20.819  13.925   9.179  0.5383  0.2413  0.0253
64385DOD     C136974  17.134  14.338   5.110 -0.0581 -0.1463 -0.1769
64385DOD     C236975  17.299  14.661   5.327  0.0801 -0.0573  0.2266
64385DOD     C336976  17.457  15.037   5.296 -0.0694 -0.4620 -0.2750
64386DOD     C136977  19.201  12.919   8.259 -0.2936 -0.2140  0.3536
64386DOD     C236978  19.608  13.188   8.395  0.0942 -0.1952 -0.2564
64386DOD     C336979  20.070  13.349   8.325  0.0497  0.0344 -0.1412
64387DOD     C136980  28.021  25.122  13.147 -0.0640 -0.2213 -0.0569
64387DOD     C236981  27.838  24.667  13.232 -0.1272  0.0455 -0.0068
64387DOD     C336982  27.521  24.386  13.062 -0.0213 -0.2054 -0.0138
64388DOD     C136983  17.713   3.255   0.599 -0.0061  0.0902  0.0155
64388DOD     C236984  17.812   2.909   0.296 -0.2383  0.0058  0.2440
64388DOD     C336985  18.208   2.657   0.271 -0.3980 -0.0415  0.1045
64389DOD     C136986  11.654  11.855  21.661  0.0765  0.0981 -0.0200
64389DOD     C236987  11.908  11.469  21.683 -0.1209 -0.0461 -0.3520
64389DOD     C336988  12.037  11.046  21.668 -0.0868  0.1930  0.1474
64390DOD     C136989  14.788  19.624  19.855  0.0528  0.1438 -0.2101
64390DOD     C236990  15.225  19.660  19.885  0.3902  0.1536  0.2279
64390DOD     C336991  15.535  19.376  19.713 -0.1293  0.1310 -0.1262
64391DOD     C136992  19.738  18.232   1.267 -0.1053 -0.0479  0.1475
64391DOD     C236993  19.608  18.249   1.735 -0.0690 -0.1832 -0.0449
64391DOD     C336994  19.277  18.530   1.869  0.0190  0.0774 -0.1698
64392DOD     C136995  14.526   0.782  23.330 -0.1776 -0.0366  0.2229
64392DOD     C236996  14.679   0.709  23.716  0.0740 -0.2109 -0.2276
64392DOD     C336997  14.657   0.350  24.018  0.2548  0.0144  0.3535
64393DOD     C136998  11.848  19.653   6.544 -0.0463 -0.0872  0.1246
64393DOD     C236999  12.152  19.606   6.237  0.1571 -0.1030  0.3402
64393DOD     C337000  12.492  19.584   5.921  0.1251 -0.2984  0.2024
64394DOD     C137001  20.102   3.412   9.523 -0.1493 -0.1325  0.3457
64394DOD     C237002  19.692   3.620   9.519  0.3375 -0.0639  0.0369
64394DOD     C337003  19.281   3.523   9.333  0.1705 -0.1410  0.1790
64395DOD     C137004  16.507  23.752  27.491 -0.0549  0.0296  0.1323
64395DOD     C237005  16.300  24.197  27.469 -0.1162  0.1137  0.0070
64395DOD     C337006  16.243  24.659  27.576  0.1620 -0.0966 -0.1212
64396DOD     C137007   1.385  25.531   0.407  0.1394  0.2097 -0.0902
64396DOD     C237008   0.935  25.350   0.418  0.2513 -0.0044  0.2505
64396DOD     C337009   0.474  25.276   0.321  0.0523 -0.1327  0.1167
64397DOD     C137010  13.437   4.257  25.338  0.0385  0.2546  0.0536
64397DOD     C237011  13.200   4.283  24.930  0.1356 -0.0533 -0.1046
64397DOD     C337012  12.998   4.339  24.481 -0.0167  0.2349 -0.0331
64398DOD     C137013  28.501  25.408  10.399 -0.0346  0.4923  0.1390
64398DOD     C237014  28.562  24.988  10.675 -0.0598 -0.2361  0.1895
64398DOD     C337015  28.480  24.536  10.752  0.0095  0.2324  0.1878
64399DOD     C137016   7.314  11.796  16.789  0.0346  0.3083  0.2312
64399DOD     C237017   6.831  11.867  16.748  0.0353 -0.0513  0.3278
64399DOD     C337018   6.579  12.186  17.031 -0.1588  0.0700 -0.0268
64400DOD     C137019   1.644   2.669   3.817  0.1162 -0.0669  0.0399
64400DOD     C237020   1.908   2.603   4.204 -0.0209 -0.0669 -0.0033
64400DOD     C337021   1.835   2.298   4.549 -0.1250 -0.1935  0.2192
64401DOD     C137022  10.299  23.225  20.152 -0.0588 -0.1037 -0.0926
64401DOD     C237023  10.516  23.125  20.576  0.4256 -0.1105 -0.0098
64401DOD     C337024  10.605  23.002  21.021  0.0162  0.0025 -0.0254
64402DOD     C137025  11.603  15.741  27.520 -0.3466  0.2398 -0.1786
64402DOD     C237026  11.659  15.450  27.884  0.1335  0.0145 -0.1474
64402DOD     C337027  11.417  15.119  28.203  0.0569 -0.0803 -0.2905
64403DOD     C137028  21.053   6.946  18.176  0.3850 -0.2000 -0.1489
64403DOD     C237029  20.675   6.787  18.420 -0.0674  0.0319  0.0488
64403DOD     C337030  20.426   6.693  18.812 -0.4746 -0.1217  0.4322
64404DOD     C137031   3.933  27.715   6.866  0.0103  0.0915 -0.2138
64404DOD     C237032   3.642  27.362   6.942  0.0468  0.0897 -0.3637
64404DOD     C337033   3.621  26.881   6.967 -0.0668  0.2777  0.1893
64405DOD     C137034  20.755   7.252  29.140  0.0099  0.1789  0.0318
64405DOD     C237035  21.042   7.405  28.808 -0.1468 -0.0236 -0.1744
64405DOD     C337036  21.531   7.186  28.731  0.2974 -0.2073  0.2244
64406DOD     C137037  25.179  16.740  14.670 -0.1956  0.2311  0.0461
64406DOD     C237038  24.967  16.963  14.999 -0.0765 -0.1159 -0.3334
64406DOD     C337039  25.096  17.389  14.899  0.1133 -0.0055 -0.2395
64407DOD     C137040  12.999  18.252  28.900 -0.1090 -0.1577  0.1043
64407DOD     C237041  12.825  18.522  28.540  0.1248 -0.2289 -0.0288
64407DOD     C337042  12.941  18.457  28.094 -0.2571 -0.1540 -0.0544
64408DOD     C137043  18.746  17.668  16.449 -0.1464 -0.0697 -0.3007
64408DOD     C237044  18.640  18.131  16.491  0.0466  0.2492 -0.0261
64408DOD     C337045  18.908  18.435  16.714  0.2502  0.0289 -0.1838
64409DOD     C137046   6.741   9.441  24.933 -0.2598 -0.1104  0.0989
64409DOD     C237047   6.493   9.096  25.161  0.2640  0.1703 -0.3051
64409DOD     C337048   6.064   9.036  25.135  0.0448 -0.0398  0.1803
64410DOD     C137049   2.725  16.414  15.786  0.0018 -0.0222 -0.3405
64410DOD     C237050   2.698  16.042  16.044 -0.2740  0.0197  0.0754
64410DOD     C337051   3.024  15.743  16.255  0.1213 -0.0508 -0.2055
64411DOD     C137052   2.447  15.083  22.760 -0.2891 -0.0624  0.3274
64411DOD     C237053   2.121  15.276  22.529 -0.2901  0.2798 -0.0337
64411DOD     C337054   1.888  15.639  22.252  0.2514  0.3124 -0.1033
64412DOD     C137055  16.466  10.043  23.797  0.0978  0.0081  0.0203
64412DOD     C237056  16.012   9.893  23.871 -0.1819 -0.1939 -0.0513
64412DOD     C337057  15.639   9.793  23.586 -0.1902  0.0953  0.3331
64413DOD     C137058  12.535  15.073   0.824 -0.2149 -0.3474 -0.3223
64413DOD     C237059  12.261  14.802   1.127 -0.3839  0.2206  0.0398
64413DOD     C337060  12.052  14.789   1.518 -0.1647 -0.0379 -0.1327
64414DOD     C137061  26.461  24.136   7.963 -0.1130  0.0484  0.1327
64414DOD     C237062  26.871  24.064   8.235 -0.0575  0.0937  0.2210
64414DOD     C337063  27.272  23.866   8.362  0.0353  0.0195 -0.1924
64415DOD     C137064   3.586  29.936  11.017  0.0316  0.1579  0.2723
64415DOD     C237065   3.973  29.660  10.936  0.2738  0.0441 -0.1671
64415DOD     C337066   4.373  29.488  10.687  0.0111 -0.1375 -0.0541
64416DOD     C137067   7.178   0.747  26.649  0.4039 -0.2612 -0.1127
64416DOD     C237068   7.680   0.686  26.479  0.2197  0.0927  0.0777
64416DOD     C337069   7.696   0.564  26.029  0.2980 -0.1234  0.0830
64417DOD     C137070  22.318  23.975   6.420 -0.4136 -0.1190 -0.1205
64417DOD     C237071  22.555  24.186   6.749 -0.1483 -0.1016 -0.2534
64417DOD     C337072  22.847  24.407   7.048  0.0419 -0.1471  0.4437
64418DOD     C137073  28.763  19.180   1.450  0.2675 -0.1259 -0.1964
64418DOD     C237074  28.762  19.365   1.867  0.2114 -0.0135  0.0683
64418DOD     C337075  28.332  19.400   2.095  0.0858  0.1343  0.1797
64419DOD     C137076  18.526  25.433  17.371 -0.2888  0.1968  0.1074
64419DOD     C237077  18.058  25.446  17.528 -0.6264  0.0126 -0.1373
64419DOD     C337078  17.839  25.300  17.836 -0.0694  0.0673 -0.3250
64420DOD     C137079  27.544   6.207   0.949  0.2101  0.0718 -0.1654
64420DOD     C237080  27.523   6.567   0.642 -0.2016 -0.0475  0.1167
64420DOD     C337081  27.400   7.000   0.464  0.1256 -0.1626  0.0429
64421DOD     C137082   7.496  21.959  -0.076  0.1228  0.0765 -0.4236
64421DOD     C237083   7.772  21.590   0.153  0.0076  0.0591  0.1587
64421DOD     C337084   8.059  21.348   0.441  0.1736 -0.0237  0.0369
64422DOD     C137085  28.397  15.074   7.985 -0.0828 -0.0757 -0.1504
64422DOD     C237086  28.319  14.681   8.024 -0.1079  0.0968  0.0962
64422DOD     C337087  28.597  14.474   8.303  0.3552  0.1710  0.1460
64423DOD     C137088   5.886  12.381   9.812 -0.0624 -0.2056  0.3008
64423DOD     C237089   6.302  12.307   9.646  0.0347 -0.0972 -0.0721
64423DOD     C337090   6.476  12.343   9.268  0.0535  0.0357  0.0317
64424DOD     C137091  25.532  18.860   3.597 -0.4352  0.0886  0.2644
64424DOD     C237092  25.797  19.146   3.761  0.2190  0.1267 -0.0039
64424DOD     C337093  25.611  19.415   4.090  0.0818  0.1131  0.1205
64425DOD     C137094  18.503   5.448  29.763 -0.0629 -0.2115  0.0550
64425DOD     C237095  18.148   5.178  29.978  0.2058 -0.1709 -0.1334
64425DOD     C337096  17.900   5.224  30.349  0.1615 -0.1622  0.2436
64426DOD     C137097  25.374  16.338  17.384  0.0609  0.0919 -0.3514
64426DOD     C237098  25.473  16.435  16.950  0.0412  0.0747 -0.0808
64426DOD     C337099  25.711  16.352  16.582  0.2672 -0.1510  0.0127
64427DOD     C137100  13.885  21.166   9.385 -0.1649 -0.2468 -0.3559
64427DOD     C237101  13.601  21.210   9.762 -0.0405  0.1781  0.0652
64427DOD     C337102  13.397  21.446  10.107 -0.3528 -0.1368  0.0192
64428DOD     C137103   1.993  24.426  18.153 -0.0989 -0.4524 -0.0270
64428DOD     C237104   1.697  24.696  18.410 -0.0847  0.1152 -0.1405
64428DOD     C337105   1.454  24.992  18.225  0.0447 -0.0212 -0.0621
64429DOD     C137106  16.916   1.294  13.004 -0.4088 -0.2952 -0.2043
64429DOD     C237107  16.459   1.387  12.878  0.0483 -0.0471 -0.1158
64429DOD     C337108  16.081   1.407  12.589  0.2496  0.0715 -0.4183
64430DOD     C137109  27.417  24.516   2.865 -0.1275  0.0446  0.0682
64430DOD     C237110  27.063  24.537   3.186  0.3496  0.4340  0.2561
64430DOD     C337111  26.633  24.660   3.170 -0.0939  0.3713  0.0489
64431DOD     C137112  11.862  13.144   7.038 -0.0590 -0.2086  0.0120
64431DOD     C237113  11.898  13.543   7.222 -0.0475  0.0177  0.3217
64431DOD     C337114  11.860  14.049   7.269 -0.2019 -0.0518 -0.1106
64432DOD     C137115  28.475  10.324  19.020 -0.3360  0.0686 -0.1449
64432DOD     C237116  28.291  10.065  18.724  0.0311  0.1294 -0.2146
64432DOD     C337117  28.564   9.748  18.515  0.1901  0.0322 -0.1728
64433DOD     C137118   4.562  11.116  19.334 -0.3588 -0.1151  0.1462
64433DOD     C237119   4.931  11.317  19.530  0.0439  0.3184 -0.3841
64433DOD     C337120   5.187  11.610  19.466 -0.0054 -0.0698  0.2584
64434DOD     C137121  14.384  20.691   5.799 -0.0778  0.1897 -0.0651
64434DOD     C237122  14.557  20.587   6.227 -0.1069 -0.1855 -0.4656
64434DOD     C337123  14.645  20.354   6.618  0.1702 -0.1057  0.1149
64435DOD     C137124   6.544  25.643  23.019  0.2237  0.1525  0.0443
64435DOD     C237125   6.148  25.787  23.177  0.1572 -0.0869 -0.0426
64435DOD     C337126   5.804  25.775  23.469 -0.0558  0.0274  0.0546
64436DOD     C137127  28.535  30.224   7.726 -0.1307 -0.2369 -0.0377
64436DOD     C237128  28.486  29.942   7.348 -0.1591 -0.0676 -0.0831
64436DOD     C337129  28.337  29.784   6.944  0.0391  0.0117 -0.1456
64437DOD     C137130  23.562  10.347  29.454  0.2547 -0.0035  0.3468
64437DOD     C237131  23.152  10.197  29.283  0.0216 -0.2071  0.1744
64437DOD     C337132  22.755   9.962  29.173 -0.0535 -0.0003 -0.0201
64438DOD     C137133   8.402  16.515  20.693  0.0671  0.1395 -0.4416
64438DOD     C237134   8.251  16.408  21.113 -0.2498 -0.2337  0.0634
64438DOD     C337135   7.998  16.620  21.449  0.0051  0.5302 -0.0919
64439DOD     C137136  21.378  22.761   8.545  0.0917 -0.1230 -0.1010
64439DOD     C237137  21.717  22.820   8.873 -0.2043 -0.0536 -0.0410
64439DOD     C337138  22.118  22.758   9.165  0.1088 -0.1554  0.0445
64440DOD     C137139  28.329   9.891   0.376  0.0995 -0.2375 -0.2185
64440DOD     C237140  28.316   9.393   0.383 -0.1371  0.0816 -0.0591
64440DOD     C337141  28.429   8.905   0.411  0.0128 -0.1350  0.2355
64441DOD     C137142  16.421  10.160   6.654  0.1880  0.1231 -0.0301
64441DOD     C237143  16.050   9.835   6.754  0.0424  0.0544  0.1848
64441DOD     C337144  15.723   9.498   6.895 -0.1190 -0.2266 -0.2278
64442DOD     C137145   2.667   8.175  11.680 -0.0123 -0.1911  0.0449
64442DOD     C237146   2.620   7.716  11.571  0.0064  0.0603 -0.0272
64442DOD     C337147   2.999   7.419  11.634 -0.0452  0.2373  0.1954
64443DOD     C137148  19.053  21.122  30.274  0.3109  0.2329 -0.0825
64443DOD     C237149  18.722  21.400   0.175 -0.1460 -0.0941 -0.2092
64443DOD     C337150  18.462  21.488   0.529  0.2342 -0.3155  0.2633
64444DOD     C137151  19.587   2.406  23.122 -0.0491 -0.2329 -0.1880
64444DOD     C237152  19.168   2.272  23.257 -0.0849 -0.2072 -0.2132
64444DOD     C337153  18.698   2.176  23.212 -0.4391 -0.1146 -0.0237
64445DOD     C137154   9.911   8.062  13.762  0.0204 -0.3016 -0.0730
64445DOD     C237155   9.617   7.753  13.804 -0.0736  0.1993 -0.2184
64445DOD     C337156   9.370   7.420  14.005 -0.0624 -0.0277 -0.0855
64446DOD     C137157  14.395  17.724  29.170 -0.2511  0.3272 -0.0856
64446DOD     C237158  14.395  17.576  28.750  0.0954  0.1797  0.0332
64446DOD     C337159  14.149  17.703  28.369 -0.0064 -0.1132  0.2581
64447DOD     C137160  29.747  22.572  24.065  0.0206  0.0105  0.0466
64447DOD     C237161  29.876  22.376  24.451 -0.0724 -0.0590  0.2034
64447DOD     C337162  29.923  22.677  24.835  0.2290 -0.2230 -0.0061
64448DOD     C137163  24.214   3.354  23.518  0.1462  0.2284 -0.1237
64448DOD     C237164  24.386   3.001  23.794  0.2387 -0.4042  0.0573
64448DOD     C337165  24.757   2.675  23.786 -0.1239 -0.2471  0.0636
64449DOD     C137166  13.837  29.540   6.909  0.0682  0.0141  0.0750
64449DOD     C237167  13.521  29.324   6.623 -0.1481 -0.2025  0.1862
64449DOD     C337168  13.284  29.143   6.212 -0.0336 -0.0288 -0.0567
64450DOD     C137169   7.931  24.528   9.671 -0.1188  0.2831 -0.4378
64450DOD     C237170   7.654  24.756   9.449 -0.3480 -0.2005 -0.1177
64450DOD     C337171   7.611  24.811   9.017 -0.1538  0.0262  0.1201
64451DOD     C137172  11.436  18.233  25.288  0.1930 -0.1021 -0.0656
64451DOD     C237173  11.752  18.211  25.569  0.2660 -0.1413 -0.2786
64451DOD     C337174  12.170  18.091  25.564  0.0298  0.0714  0.0480
64452DOD     C137175  12.516   5.987  17.454 -0.1983 -0.3000 -0.1194
64452DOD     C237176  12.499   6.415  17.192  0.3243 -0.0131  0.1015
64452DOD     C337177  12.172   6.661  17.003 -0.0817 -0.0174  0.0094
64453DOD     C137178   4.934   0.835  12.632  0.0511 -0.1069  0.1616
64453DOD     C237179   5.361   0.684  12.541  0.0015  0.4596 -0.0333
64453DOD     C337180   5.562   0.431  12.173 -0.5010 -0.0912 -0.0326
64454DOD     C137181   6.037  15.683   5.646  0.1081  0.0116  0.1453
64454DOD     C237182   5.646  15.566   5.459  0.2761  0.0759 -0.1503
64454DOD     C337183   5.426  15.254   5.155 -0.0380 -0.0049  0.3841
64455DOD     C137184  19.356   8.103  12.086  0.1386  0.0546  0.1072
64455DOD     C237185  19.442   8.300  11.680 -0.1812  0.0631 -0.2709
64455DOD     C337186  19.643   8.368  11.261 -0.0965  0.0864 -0.0502
64456DOD     C137187  12.841  26.129   5.353  0.1167 -0.0893 -0.1976
64456DOD     C237188  13.302  26.128   5.335  0.1423 -0.1979  0.0462
64456DOD     C337189  13.479  26.099   5.700 -0.1026  0.3388 -0.1648
64457DOD     C137190  25.030  13.702   3.247 -0.1904 -0.0466  0.0247
64457DOD     C237191  24.844  14.123   3.168 -0.1682 -0.1006  0.2577
64457DOD     C337192  24.610  14.586   3.203 -0.0312  0.0534 -0.1540
64458DOD     C137193  29.512  25.530  16.254  0.1723  0.0936  0.3218
64458DOD     C237194  29.846  25.306  15.971  0.3693  0.1283  0.0694
64458DOD     C337195  29.990  24.832  15.896 -0.5270 -0.2999  0.0351
64459DOD     C137196   6.768  29.800   7.465  0.1581  0.0938  0.0671
64459DOD     C237197   6.327  29.774   7.320 -0.0885 -0.2052  0.3264
64459DOD     C337198   6.015  29.989   7.030 -0.0203  0.1863  0.1473
64460DOD     C137199  25.527  17.090  19.658 -0.0160  0.0209 -0.4708
64460DOD     C237200  25.618  17.188  20.085 -0.0676  0.0523 -0.1595
64460DOD     C337201  25.968  17.446  20.250  0.0295  0.1532  0.2882
64461DOD     C137202  16.167   1.879  22.836 -0.1254  0.3093  0.3930
64461DOD     C237203  16.405   2.059  22.462 -0.3744  0.0208 -0.3603
64461DOD     C337204  16.758   1.858  22.230 -0.0166 -0.0137  0.0216
64462DOD     C137205   3.171  30.322  29.556  0.0803  0.1035  0.0167
64462DOD     C237206   2.812  30.011  29.538  0.0539  0.0725  0.0674
64462DOD     C337207   2.437  29.853  29.282  0.2674 -0.0846 -0.0600
64463DOD     C137208  15.738   6.108  24.781 -0.1283  0.1138  0.1770
64463DOD     C237209  15.895   5.940  24.382  0.0459 -0.0044  0.3877
64463DOD     C337210  16.089   6.025  23.914  0.1486 -0.0667  0.1398
64464DOD     C137211   0.091  20.781  20.932  0.0455 -0.0389  0.1198
64464DOD     C237212  30.217  20.432  20.683 -0.2904 -0.1970 -0.0699
64464DOD     C337213  29.900  20.164  20.508  0.1342 -0.2961  0.0124
64465DOD     C137214  20.085  14.315  27.605 -0.1293 -0.0736  0.1378
64465DOD     C237215  20.526  14.462  27.623 -0.1432  0.0012 -0.0141
64465DOD     C337216  20.733  14.608  27.958  0.1148  0.2498 -0.1905
64466DOD     C137217   6.073  20.117  14.724 -0.1072 -0.0618 -0.1157
64466DOD     C237218   6.360  20.465  14.742  0.0035 -0.3634 -0.0657
64466DOD     C337219   6.624  20.865  14.625 -0.0422  0.0585  0.1563
64467DOD     C137220  18.883  15.065  13.731 -0.0069 -0.2671  0.1727
64467DOD     C237221  18.416  14.995  13.559  0.0361  0.1075  0.3075
64467DOD     C337222  17.998  15.100  13.486  0.0477 -0.1325  0.0668
64468DOD     C137223   3.056  18.878  23.132  0.0639  0.1281 -0.3023
64468DOD     C237224   2.622  18.770  23.054 -0.1443  0.2389  0.1718
64468DOD     C337225   2.219  18.879  23.222 -0.0340 -0.0751  0.0161
64469DOD     C137226  13.559  26.208   0.430 -0.0689 -0.1280  0.0005
64469DOD     C237227  13.528  26.455   0.807  0.0164 -0.0383 -0.3894
64469DOD     C337228  13.312  26.826   1.090  0.0720 -0.1092  0.3262
64470DOD     C137229   6.078  18.058  13.059  0.0616  0.0873  0.0338
64470DOD     C237230   6.012  17.801  13.423 -0.1558 -0.0008 -0.0372
64470DOD     C337231   5.865  17.427  13.628  0.4215 -0.0235  0.1094
64471DOD     C137232   1.173  19.142  13.722 -0.0910  0.0449  0.1104
64471DOD     C237233   1.144  18.963  14.157  0.0395  0.0723  0.5014
64471DOD     C337234   0.873  18.929  14.530  0.0152  0.3932  0.1865
64472DOD     C137235   5.830  13.807  24.906 -0.0153  0.1470  0.0056
64472DOD     C237236   5.848  13.554  24.502  0.1394  0.1181  0.1331
64472DOD     C337237   5.768  13.412  24.056  0.0887 -0.0284 -0.0473
64473DOD     C137238  16.061  14.785   7.290  0.0553  0.3143  0.0731
64473DOD     C237239  15.750  15.078   7.134 -0.0227 -0.2286  0.2260
64473DOD     C337240  15.262  15.114   6.990  0.3820  0.0578  0.0377
64474DOD     C137241  26.197   6.857  10.297 -0.0018 -0.2284 -0.1631
64474DOD     C237242  26.516   7.071  10.004  0.0245 -0.0098  0.3021
64474DOD     C337243  26.523   7.302   9.495  0.0549 -0.1195 -0.1115
64475DOD     C137244  22.815  19.612  16.861 -0.0260  0.1465  0.4807
64475DOD     C237245  22.556  19.522  17.251  0.0460 -0.0018  0.0971
64475DOD     C337246  22.113  19.402  17.266 -0.1276 -0.3477 -0.0900
64476DOD     C137247   9.879   7.522   6.381  0.2577  0.0101  0.1792
64476DOD     C237248   9.784   7.124   6.573 -0.0035 -0.1390  0.1488
64476DOD     C337249   9.359   6.924   6.468  0.2155  0.2868 -0.3668
64477DOD     C137250  17.598   8.694  26.076 -0.4072  0.1388 -0.3812
64477DOD     C237251  17.898   8.718  26.457 -0.2481 -0.1429 -0.1061
64477DOD     C337252  18.196   8.692  26.853 -0.0708  0.1536 -0.2858
64478DOD     C137253  20.977  28.449  14.870 -0.0487  0.1909  0.1404
64478DOD     C237254  21.011  28.920  14.848 -0.0341 -0.3225  0.0743
64478DOD     C337255  21.138  29.232  15.135 -0.0402  0.1015 -0.1500
64479DOD     C137256  13.339  21.044  15.871  0.0455 -0.0639 -0.0205
64479DOD     C237257  13.232  21.483  15.794  0.0294 -0.2405 -0.0872
64479DOD     C337258  13.132  21.958  15.846 -0.0608 -0.1586  0.0322
64480DOD     C137259  13.676  17.388   0.584  0.1063 -0.0545 -0.1746
64480DOD     C237260  13.256  17.174   0.711 -0.1849  0.0737  0.1640
64480DOD     C337261  13.085  16.748   0.816  0.0046 -0.0174  0.2439
64481DOD     C137262   7.704   7.698  17.243 -0.0811 -0.1508 -0.1104
64481DOD     C237263   7.793   7.743  17.651  0.0992 -0.1058  0.2189
64481DOD     C337264   7.889   7.540  18.096  0.0126 -0.0908 -0.1330
64482DOD     C137265  26.531  24.185  28.083  0.2189  0.0639 -0.2978
64482DOD     C237266  26.246  24.528  27.830 -0.2514  0.0771  0.0072
64482DOD     C337267  26.017  24.917  27.978 -0.2305  0.2343 -0.3527
64483DOD     C137268  17.716  29.579   5.004 -0.1703  0.0169  0.1161
64483DOD     C237269  18.111  29.652   5.221  0.0622  0.0853 -0.4214
64483DOD     C337270  18.533  29.555   5.219 -0.0180 -0.0805  0.0508
64484DOD     C137271   4.008  19.116  15.094  0.0680 -0.0250 -0.2629
64484DOD     C237272   4.096  18.674  15.187 -0.1344 -0.1244 -0.2135
64484DOD     C337273   3.920  18.206  15.244  0.0334  0.1942 -0.0125
64485DOD     C137274  29.854  19.276  28.439 -0.1222  0.0016  0.0702
64485DOD     C237275  29.437  19.021  28.462 -0.0888 -0.0223 -0.0197
64485DOD     C337276  29.400  18.563  28.443 -0.0725  0.2740  0.1164
64486DOD     C137277   8.978   0.437  16.993 -0.3523 -0.1333 -0.0851
64486DOD     C237278   8.977   0.859  16.721 -0.0084  0.1766  0.0328
64486DOD     C337279   8.873   1.080  16.373  0.1197 -0.2516  0.0023
64487DOD     C137280  24.620   1.129  29.739  0.0663  0.1736  0.0337
64487DOD     C237281  24.295   1.454  29.927  0.1737  0.0008  0.0069
64487DOD     C337282  24.210   1.926  30.046  0.2133  0.2460 -0.0866
64488DOD     C137283   0.542  27.421   5.002  0.0229 -0.1928 -0.1841
64488DOD     C237284   0.130  27.695   5.101 -0.1579  0.2980  0.1998
64488DOD     C337285  30.203  28.046   5.366  0.2669 -0.3476  0.1914
64489DOD     C137286  22.249   9.811  29.555  0.0523 -0.1121 -0.1088
64489DOD     C237287  21.912   9.747  29.879 -0.0936  0.1633 -0.0700
64489DOD     C337288  21.481   9.879  30.138  0.0364 -0.0232 -0.0602
64490DOD     C137289  27.578   9.889  27.442 -0.3199 -0.1337  0.0554
64490DOD     C237290  27.735   9.829  27.844 -0.4545 -0.0605 -0.0023
64490DOD     C337291  27.560   9.612  28.227 -0.0224  0.1400 -0.0718
64491DOD     C137292  11.620   8.320  29.550 -0.1097 -0.0530 -0.3240
64491DOD     C237293  11.690   7.963  29.867  0.0899  0.3946 -0.0035
64491DOD     C337294  12.029   7.724  30.097  0.1207 -0.0997  0.1377
64492DOD     C137295  27.783   2.555   5.539 -0.0461  0.0482 -0.0016
64492DOD     C237296  27.817   2.955   5.360 -0.1621  0.2809  0.3926
64492DOD     C337297  27.656   3.393   5.495 -0.0727 -0.1000  0.0859
64493DOD     C137298  24.940  16.517   1.413  0.2213  0.1255 -0.1587
64493DOD     C237299  25.072  16.789   1.750 -0.1057  0.1773  0.1442
64493DOD     C337300  25.330  17.144   1.935 -0.0200 -0.2834 -0.1198
64494DOD     C137301  21.296  26.378  25.449  0.1028  0.0474 -0.1719
64494DOD     C237302  21.529  26.291  25.023 -0.1557  0.3261 -0.0138
64494DOD     C337303  21.975  26.172  24.927  0.0599  0.1439  0.1206
64495DOD     C137304  16.191   6.696  18.483 -0.0515  0.0464 -0.1054
64495DOD     C237305  16.315   7.127  18.362  0.2324 -0.0618  0.1144
64495DOD     C337306  16.454   7.557  18.316 -0.1592 -0.0204  0.2481
64496DOD     C137307   6.281  28.741  11.982 -0.3322 -0.2580 -0.0390
64496DOD     C237308   5.905  28.802  12.164 -0.1871  0.1146  0.0744
64496DOD     C337309   5.833  28.994  12.582 -0.0256 -0.0660  0.1177
64497DOD     C137310  24.346   3.745  25.684 -0.0070  0.2648  0.0454
64497DOD     C237311  23.939   3.574  25.471  0.2152 -0.1522 -0.0163
64497DOD     C337312  23.540   3.606  25.196 -0.2577 -0.0810  0.0810
64498DOD     C137313   4.076  14.178   1.366  0.3251  0.0368 -0.1472
64498DOD     C237314   3.934  13.860   1.613  0.0266 -0.0291  0.0619
64498DOD     C337315   3.651  13.606   1.875 -0.0154  0.4620  0.0307
64499DOD     C137316  18.982  12.956  12.918 -0.0493  0.2450  0.1259
64499DOD     C237317  18.595  12.642  12.875 -0.1180 -0.1097 -0.0153
64499DOD     C337318  18.407  12.207  12.949 -0.1849 -0.0370  0.2333
64500DOD     C137319  15.193   4.364  30.265 -0.0683 -0.1927 -0.0103
64500DOD     C237320  15.191   4.277   0.406 -0.2032  0.1624  0.2364
64500DOD     C337321  15.245   4.551   0.786 -0.3538 -0.1615 -0.0885
64501DOD     C137322   2.907  12.927  10.251 -0.2520 -0.1359  0.1361
64501DOD     C237323   3.135  12.803  10.647  0.1261  0.1833 -0.0833
64501DOD     C337324   3.259  13.088  10.944  0.0015 -0.1680  0.0539
64502DOD     C137325  26.790   7.958  14.232 -0.0557  0.0997 -0.1625
64502DOD     C237326  26.423   7.714  14.096 -0.0099  0.2432 -0.1024
64502DOD     C337327  26.244   7.652  13.708  0.0985 -0.4523  0.4627
64503DOD     C137328  15.289   3.515  21.040 -0.2276 -0.2046 -0.0311
64503DOD     C237329  15.341   3.703  21.457  0.0286 -0.1745 -0.0549
64503DOD     C337330  15.298   3.772  21.917 -0.2266  0.1865  0.0820
64504DOD     C137331   3.464  12.339   9.301 -0.0881 -0.0954 -0.1530
64504DOD     C237332   3.761  12.734   9.251 -0.0868  0.1210  0.4827
64504DOD     C337333   3.513  13.152   9.367  0.1240  0.0747 -0.0440
64505DOD     C137334   7.224   1.558  25.352  0.1591  0.2208  0.1423
64505DOD     C237335   7.251   1.926  25.050 -0.0897 -0.0129  0.0243
64505DOD     C337336   7.431   2.206  24.738 -0.2719  0.3465 -0.0470
64506DOD     C137337   8.312  28.664   5.086  0.0841  0.2669  0.2142
64506DOD     C237338   7.833  28.538   5.078  0.3388  0.0595 -0.1398
64506DOD     C337339   7.470  28.628   5.405 -0.0658  0.4154 -0.2692
64507DOD     C137340  21.363   9.917  25.657  0.2826 -0.3814  0.1143
64507DOD     C237341  21.440  10.310  25.431  0.1925 -0.0029 -0.2721
64507DOD     C337342  21.695  10.716  25.374 -0.1330 -0.0511 -0.0102
64508DOD     C137343  27.790   4.917  18.072  0.2164 -0.0689  0.1919
64508DOD     C237344  27.884   5.118  18.464 -0.2633  0.0346 -0.0861
64508DOD     C337345  27.861   5.390  18.833  0.1112 -0.1201 -0.0747
64509DOD     C137346   9.455  23.417  19.598  0.0148  0.2229 -0.0073
64509DOD     C237347   9.670  23.742  19.871 -0.2723  0.2074 -0.1854
64509DOD     C337348   9.991  23.732  20.169 -0.3011  0.1939  0.0769
64510DOD     C137349   4.203  17.648   3.056 -0.2279 -0.1182 -0.0624
64510DOD     C237350   3.771  17.755   3.161 -0.1672 -0.1920 -0.1933
64510DOD     C337351   3.350  17.598   3.150  0.0880 -0.4334  0.1689
64511DOD     C137352  25.034  14.115  13.073 -0.0465 -0.2440 -0.1717
64511DOD     C237353  25.141  14.401  13.419 -0.1862  0.1873  0.0988
64511DOD     C337354  25.322  14.510  13.827  0.3531  0.0681 -0.2661
64512DOD     C137355   4.567  29.485  13.166 -0.1916 -0.2469 -0.0304
64512DOD     C237356   4.919  29.511  12.979  0.0018  0.3106  0.2147
64512DOD     C337357   5.359  29.712  12.946 -0.0975 -0.2506  0.3121
64513DOD     C137358  15.212  24.511  12.400 -0.0615  0.2428  0.0022
64513DOD     C237359  14.739  24.545  12.303 -0.1311  0.0066  0.0464
64513DOD     C337360  14.298  24.572  12.135  0.2127 -0.3080 -0.0830
64514DOD     C137361  30.081  14.077   1.710  0.0401  0.0777  0.1853
64514DOD     C237362  29.823  14.193   1.346 -0.0686 -0.2514 -0.0731
64514DOD     C337363  29.840  14.190   0.862  0.1514  0.1397  0.0004
64515DOD     C137364   8.300  21.026   6.326 -0.3784 -0.3553  0.0929
64515DOD     C237365   8.225  21.463   6.445 -0.2155 -0.1976 -0.2254
64515DOD     C337366   8.328  21.957   6.472  0.0286 -0.1679  0.0291
64516DOD     C137367  25.409  13.121  29.680  0.2104  0.1621  0.1934
64516DOD     C237368  25.491  12.679  29.611  0.2835 -0.0313  0.3554
64516DOD     C337369  25.201  12.291  29.724 -0.0680 -0.0965  0.1521
64517DOD     C137370   8.969  29.364  15.429 -0.3944  0.0110 -0.0390
64517DOD     C237371   8.555  29.474  15.316  0.2401  0.4551  0.1184
64517DOD     C337372   8.281  29.792  15.180 -0.1848  0.3632 -0.2015
64518DOD     C137373  10.074   1.915  11.806  0.0201  0.0506  0.0532
64518DOD     C237374  10.435   1.733  11.575 -0.2241  0.2156  0.1206
64518DOD     C337375  10.844   1.580  11.498 -0.3054  0.0669 -0.0938
64519DOD     C137376   5.878  25.948  19.894 -0.0672 -0.0102  0.2273
64519DOD     C237377   5.906  26.201  19.404 -0.0513 -0.1585 -0.2274
64519DOD     C337378   5.848  26.588  19.224  0.2341  0.1300  0.1325
64520DOD     C137379   3.092  26.333  26.945  0.1843 -0.0900  0.0535
64520DOD     C237380   3.300  26.164  27.386  0.0983 -0.0773  0.0800
64520DOD     C337381   3.560  26.077  27.785  0.0193 -0.0996 -0.0189
64521DOD     C137382  16.157  16.138  20.360  0.0963 -0.1432 -0.2823
64521DOD     C237383  15.919  16.182  20.782  0.0669 -0.0088  0.0696
64521DOD     C337384  15.798  15.808  21.159 -0.3417  0.0440  0.0023
64522DOD     C137385  26.104  18.913  26.317  0.0074 -0.0186  0.0055
64522DOD     C237386  26.174  19.317  26.159 -0.0726 -0.0805 -0.0502
64522DOD     C337387  26.113  19.589  25.804  0.1315 -0.0556  0.1290
64523DOD     C137388  13.251  10.006  19.174  0.0485  0.1996 -0.0829
64523DOD     C237389  13.371  10.413  18.954 -0.2161 -0.0559  0.2792
64523DOD     C337390  13.731  10.713  18.929  0.0318 -0.3264 -0.2968
64524DOD     C137391   3.293  24.221   0.736 -0.1624 -0.3160  0.1301
64524DOD     C237392   3.357  24.494   0.347  0.2088  0.0227 -0.2816
64524DOD     C337393   3.618  24.574  -0.049  0.3107 -0.2063 -0.2591
64525DOD     C137394   8.159  10.275  15.451 -0.0071  0.0433 -0.0731
64525DOD     C237395   8.121   9.942  15.110  0.2619 -0.0916  0.0467
64525DOD     C337396   8.424   9.704  14.835 -0.1119  0.1497  0.4162
64526DOD     C137397  11.534   8.302  10.193 -0.0248 -0.2026  0.0210
64526DOD     C237398  11.661   7.904  10.369 -0.1464  0.0419 -0.1419
64526DOD     C337399  11.999   7.738  10.700  0.3323 -0.0434 -0.2509
64527DOD     C137400   4.990  25.218  20.084  0.1700  0.1963  0.1365
64527DOD     C237401   4.955  24.774  19.915  0.1387  0.0067 -0.1095
64527DOD     C337402   4.704  24.448  19.756  0.1044 -0.2070  0.0670
64528DOD     C137403   4.452   2.319  23.937 -0.1129 -0.2395 -0.0557
64528DOD     C237404   4.731   2.592  23.748  0.1707  0.0912 -0.0555
64528DOD     C337405   4.848   2.553  23.265 -0.0685  0.5387  0.2376
64529DOD     C137406   7.915   2.097  28.755  0.0723 -0.0720 -0.3190
64529DOD     C237407   8.393   1.972  28.716  0.0349  0.0430 -0.0173
64529DOD     C337408   8.798   1.772  28.931 -0.1090 -0.1461 -0.1171
64530DOD     C137409  28.618  18.330   3.535 -0.2449  0.1417  0.0253
64530DOD     C237410  28.426  18.355   3.888  0.2762 -0.0749 -0.2387
64530DOD     C337411  28.228  18.732   4.169  0.1462  0.0045 -0.1240
64531DOD     C137412  10.815   9.622   3.305 -0.2876 -0.0115 -0.1063
64531DOD     C237413  11.275   9.657   3.246  0.1334  0.0293  0.2841
64531DOD     C337414  11.545  10.048   3.116 -0.2423  0.0788 -0.2218
64532DOD     C137415  29.648  27.652  10.776 -0.0474 -0.2214 -0.1133
64532DOD     C237416  29.899  28.015  10.953  0.1304  0.4568 -0.0269
64532DOD     C337417  30.315  28.218  11.067 -0.1224  0.1472  0.1485
64533DOD     C137418  15.560  12.688   6.573  0.0473 -0.1529 -0.2756
64533DOD     C237419  15.643  12.452   6.149  0.2384  0.1701 -0.0937
64533DOD     C337420  15.465  12.072   5.891 -0.2028 -0.1001  0.2715
64534DOD     C137421   0.553  22.026  15.425  0.1551  0.0167  0.0457
64534DOD     C237422   0.778  22.181  15.074  0.1366 -0.2922  0.0132
64534DOD     C337423   0.823  21.993  14.605  0.1300  0.2925  0.0543
64535DOD     C137424   9.257  19.185  20.723 -0.0638  0.1529  0.1792
64535DOD     C237425   9.433  19.231  21.132 -0.1104  0.1305 -0.2361
64535DOD     C337426   9.806  19.429  21.293 -0.1417  0.0190  0.2718
64536DOD     C137427  30.231  20.519  17.139  0.0405  0.2413  0.1850
64536DOD     C237428  29.896  20.439  16.837  0.4446 -0.2017 -0.2011
64536DOD     C337429  29.481  20.316  16.832 -0.1899 -0.1584  0.1390
64537DOD     C137430  21.630   6.386   3.476  0.1223 -0.0640 -0.0354
64537DOD     C237431  21.676   6.346   3.042 -0.4902 -0.2069 -0.1090
64537DOD     C337432  21.852   6.622   2.647 -0.0147 -0.0287  0.0154
64538DOD     C137433  17.361  29.686  15.404 -0.0713  0.2316  0.1792
64538DOD     C237434  17.342  29.643  15.874  0.0393  0.0138  0.2647
64538DOD     C337435  17.367  29.537  16.344  0.0320  0.3943  0.0850
64539DOD     C137436   2.111  14.994  19.863  0.1362  0.0363  0.2975
64539DOD     C237437   2.596  14.986  19.689 -0.0193  0.1009  0.0432
64539DOD     C337438   2.999  15.179  19.796  0.3642  0.0760 -0.1861
64540DOD     C137439   3.292   5.158  12.119 -0.0793  0.0293  0.3257
64540DOD     C237440   3.180   5.509  12.370  0.1689 -0.0890 -0.0294
64540DOD     C337441   2.892   5.796  12.468 -0.2510 -0.0773  0.0532
64541DOD     C137442  22.530   7.640   0.522  0.2233  0.2417 -0.2324
64541DOD     C237443  22.863   7.603   0.213  0.1477  0.0085  0.2255
64541DOD     C337444  23.357   7.735   0.155 -0.2810 -0.1158  0.3109
64542DOD     C137445   4.256   4.966  17.570 -0.3052 -0.0376 -0.1911
64542DOD     C237446   4.030   5.430  17.658 -0.0765  0.3530 -0.0493
64542DOD     C337447   3.901   5.903  17.739  0.1220  0.3563 -0.0598
64543DOD     C137448  28.832  29.373   6.216  0.0384 -0.1222 -0.1450
64543DOD     C237449  28.977  28.974   6.388 -0.0065 -0.0079  0.0540
64543DOD     C337450  28.948  28.845   6.853 -0.2129  0.2042  0.3297
64544DOD     C137451   3.335  19.674  29.341 -0.0420 -0.0096 -0.0687
64544DOD     C237452   3.184  19.554  28.949 -0.0686  0.0597  0.1301
64544DOD     C337453   3.097  19.150  28.768 -0.1266  0.2768 -0.0732
64545DOD     C137454  15.647  12.084   4.662 -0.4125  0.1729  0.1079
64545DOD     C237455  16.016  11.858   4.506  0.2559 -0.1716  0.1000
64545DOD     C337456  16.358  11.613   4.384  0.0921  0.0592 -0.0474
64546DOD     C137457   3.094   7.442   0.792  0.0103  0.0904  0.4894
64546DOD     C237458   3.462   7.186   0.625 -0.2789  0.1068 -0.0222
64546DOD     C337459   3.779   6.925   0.416  0.1251 -0.0810  0.3993
64547DOD     C137460  17.249   6.988  13.412 -0.0916 -0.1943 -0.1309
64547DOD     C237461  17.249   6.619  13.054 -0.1690 -0.1772 -0.1736
64547DOD     C337462  17.357   6.326  12.676 -0.3743  0.0631  0.2552
64548DOD     C137463  29.497   2.335   6.482  0.0756 -0.1438 -0.0736
64548DOD     C237464  29.511   2.831   6.412  0.0624 -0.1650  0.3288
64548DOD     C337465  29.319   3.204   6.174  0.0190 -0.0596  0.0268
64549DOD     C137466   6.079  28.429  21.305 -0.1179 -0.0766  0.0901
64549DOD     C237467   5.829  28.604  21.691 -0.1991  0.1003  0.0442
64549DOD     C337468   5.520  28.508  21.993  0.1711 -0.2039  0.0899
64550DOD     C137469  12.090  17.716  14.643 -0.1403  0.2095 -0.3116
64550DOD     C237470  12.497  17.743  14.476  0.1031 -0.2394 -0.1156
64550DOD     C337471  12.905  17.705  14.280 -0.0563 -0.0844  0.2748
64551DOD     C137472  15.309  11.517  15.254  0.0678 -0.0235  0.0926
64551DOD     C237473  15.621  11.168  15.293  0.0945  0.4623 -0.0910
64551DOD     C337474  16.027  11.083  15.514 -0.2968 -0.0186 -0.0050
64552DOD     C137475   0.255   6.776   0.852  0.2513  0.0707 -0.1583
64552DOD     C237476   0.074   6.386   0.677 -0.1002 -0.3441 -0.1664
64552DOD     C337477  30.274   5.973   0.856 -0.1210  0.4871  0.0378
64553DOD     C137478   9.154   4.576  22.709 -0.0151  0.0170 -0.0569
64553DOD     C237479   9.238   4.901  22.452  0.1411  0.3382  0.0463
64553DOD     C337480   9.404   5.362  22.574  0.0989  0.0566  0.0350
64554DOD     C137481   5.571   4.212   1.893  0.0476  0.1457  0.0990
64554DOD     C237482   5.386   4.091   1.525 -0.0384  0.0658 -0.1113
64554DOD     C337483   5.079   4.161   1.196  0.0112  0.0566 -0.0529
64555DOD     C137484   2.396  16.595  15.130 -0.1226  0.0463 -0.1808
64555DOD     C237485   2.655  16.271  14.903 -0.1136 -0.0172  0.1001
64555DOD     C337486   3.051  16.023  14.608 -0.0343  0.0285 -0.1070
64556DOD     C137487  22.246  27.234  23.545 -0.3323  0.2603 -0.2588
64556DOD     C237488  21.966  27.595  23.730 -0.2089 -0.0429 -0.0627
64556DOD     C337489  21.873  27.931  24.041  0.1307 -0.2610 -0.2643
64557DOD     C137490  25.726   3.902   5.569  0.1450  0.0481  0.0031
64557DOD     C237491  25.702   3.487   5.277 -0.1195 -0.1133 -0.0078
64557DOD     C337492  25.757   2.980   5.276 -0.2015 -0.1943 -0.1142
64558DOD     C137493   8.482  25.452  23.051  0.1355  0.0843 -0.0122
64558DOD     C237494   8.598  25.775  23.336 -0.0742 -0.1344 -0.1630
64558DOD     C337495   8.839  26.076  23.136  0.1604  0.2727 -0.0031
64559DOD     C137496  14.548   1.727  27.459 -0.2512 -0.0357 -0.1927
64559DOD     C237497  14.269   1.699  27.075  0.4345  0.1260  0.1092
64559DOD     C337498  14.167   1.954  26.701 -0.0981 -0.3016 -0.0249
64560DOD     C137499  18.955   0.884  20.471  0.3220  0.2333  0.2001
64560DOD     C237500  19.262   0.934  20.102  0.1314  0.0728 -0.3621
64560DOD     C337501  19.654   0.706  20.078 -0.2032 -0.4436  0.0183
64561DOD     C137502   6.978  10.376  27.798  0.1318  0.0184  0.0370
64561DOD     C237503   6.733  10.498  27.423 -0.1110  0.1836  0.1827
64561DOD     C337504   6.360  10.824  27.296  0.0503 -0.1336 -0.1425
64562DOD     C137505  25.512   9.041  19.270  0.1321  0.4075 -0.0676
64562DOD     C237506  25.245   9.345  19.466 -0.3911  0.1022  0.1347
64562DOD     C337507  25.050   9.720  19.660 -0.0316 -0.0231  0.0355
64563DOD     C137508   2.107  23.686   1.844  0.0769 -0.1517  0.2476
64563DOD     C237509   1.633  23.591   1.654 -0.0982 -0.0610  0.0452
64563DOD     C337510   1.562  23.724   1.195  0.2709  0.1718  0.0132
64564DOD     C137511   5.540  21.446  16.903  0.2779  0.1343  0.0346
64564DOD     C237512   5.479  21.454  16.344 -0.0369 -0.0889 -0.2802
64564DOD     C337513   5.461  21.100  15.989  0.1398  0.1296 -0.2231
64565DOD     C137514  10.684   0.565   9.346 -0.0319  0.1686  0.0821
64565DOD     C237515  10.298   0.499   9.202 -0.1437 -0.0705  0.0774
64565DOD     C337516   9.905   0.625   8.998 -0.0996 -0.1777 -0.1386
64566DOD     C137517  14.395  27.973   9.685  0.2716  0.1466  0.1308
64566DOD     C237518  14.222  27.582   9.893  0.2086  0.0704  0.1391
64566DOD     C337519  14.077  27.118   9.995 -0.2958 -0.1829 -0.2149
64567DOD     C137520  19.153   1.651  13.633 -0.3946  0.1737  0.2475
64567DOD     C237521  19.346   1.261  13.474 -0.0397 -0.1078  0.1329
64567DOD     C337522  19.460   0.953  13.160  0.0565  0.0200  0.1053
64568DOD     C137523   8.767  13.040  17.508 -0.0002  0.1177 -0.0823
64568DOD     C237524   8.365  13.118  17.229  0.0042  0.1616  0.1782
64568DOD     C337525   8.219  12.886  16.805  0.0408 -0.0097 -0.1980
64569DOD     C137526   7.274  23.842  25.104  0.1452 -0.1038  0.0060
64569DOD     C237527   7.586  23.959  24.755 -0.0761 -0.2032 -0.2753
64569DOD     C337528   7.996  24.077  24.729  0.0175 -0.0680  0.0151
64570DOD     C137529   5.721   6.933   3.640  0.0376  0.2859 -0.0903
64570DOD     C237530   5.789   6.747   4.057  0.2288  0.0115 -0.1502
64570DOD     C337531   5.595   6.459   4.316  0.1673  0.1617 -0.3179
64571DOD     C137532  14.594   8.168   3.148  0.0859  0.1111  0.0814
64571DOD     C237533  14.556   8.419   3.553  0.1005  0.0584 -0.0925
64571DOD     C337534  14.746   8.694   3.914 -0.2072 -0.4490 -0.0570
64572DOD     C137535  27.480  14.174  13.249  0.0017  0.0899  0.3268
64572DOD     C237536  27.345  14.292  12.839 -0.1112  0.0157  0.3119
64572DOD     C337537  27.028  14.539  12.538 -0.0572 -0.1170 -0.0173
64573DOD     C137538  10.847   3.292   8.998 -0.2098 -0.1734  0.0007
64573DOD     C237539  10.758   3.755   9.211  0.1205  0.1238  0.0317
64573DOD     C337540  10.848   4.057   9.593 -0.0929  0.0440  0.0501
64574DOD     C137541  22.680   3.641  14.739 -0.3643  0.2636 -0.2571
64574DOD     C237542  23.000   3.598  15.073 -0.1359  0.1224  0.0481
64574DOD     C337543  23.014   3.254  15.394  0.2766  0.1706  0.0599
64575DOD     C137544   2.247  22.546  12.338 -0.1112 -0.1369 -0.1159
64575DOD     C237545   2.226  22.999  12.239 -0.1726 -0.1706 -0.0299
64575DOD     C337546   2.553  23.344  12.103  0.0949 -0.0739 -0.0673
64576DOD     C137547  26.128  13.479   6.907 -0.0457 -0.0363  0.1028
64576DOD     C237548  26.034  13.895   6.718  0.1866 -0.1529  0.2828
64576DOD     C337549  25.776  14.230   6.554 -0.4455 -0.1468 -0.2734
64577DOD     C137550  10.341  23.429  10.992  0.0517  0.2955  0.0593
64577DOD     C237551  10.767  23.427  11.105 -0.0178 -0.2943 -0.1877
64577DOD     C337552  11.168  23.595  11.141  0.3702 -0.1648 -0.0882
64578DOD     C137553  13.881  11.888   4.268 -0.1013 -0.2664 -0.1892
64578DOD     C237554  14.301  11.880   4.417 -0.1943 -0.1323 -0.3973
64578DOD     C337555  14.654  12.192   4.259 -0.0035 -0.0790  0.0146
64579DOD     C137556  13.343   5.618  22.091  0.0997  0.0688  0.0057
64579DOD     C237557  13.131   5.814  21.713  0.0004  0.1563  0.0078
64579DOD     C337558  13.169   5.966  21.320  0.1186  0.0854  0.1685
64580DOD     C137559   4.004  14.448   7.458  0.0588 -0.0223 -0.2754
64580DOD     C237560   4.147  14.333   7.940 -0.1160  0.0163  0.1424
64580DOD     C337561   4.350  14.138   8.255  0.0498  0.0813 -0.4122
64581DOD     C137562  17.684   8.979   3.550 -0.0323 -0.3451 -0.1232
64581DOD     C237563  17.306   8.719   3.579  0.0570  0.0670  0.2217
64581DOD     C337564  16.861   8.963   3.415 -0.1252 -0.0335  0.1363
64582DOD     C137565  14.011  27.177  21.892  0.2228  0.0835 -0.0152
64582DOD     C237566  13.990  26.666  21.970  0.1307 -0.1774 -0.2118
64582DOD     C337567  13.767  26.245  21.934  0.2648 -0.1293 -0.0139
64583DOD     C137568  10.053  27.991  16.751 -0.2578  0.1312  0.1124
64583DOD     C237569  10.084  27.771  17.172  0.0878  0.2586  0.0019
64583DOD     C337570  10.281  27.544  17.596  0.0698 -0.4163  0.1161
64584DOD     C137571   1.909  26.580   3.345 -0.3261  0.0279 -0.2775
64584DOD     C237572   1.812  26.166   3.379  0.1455 -0.0722  0.0588
64584DOD     C337573   1.474  25.834   3.324 -0.0327  0.2545  0.2061
64585DOD     C137574  26.748  24.823  27.353  0.3827 -0.0302  0.3317
64585DOD     C237575  26.934  24.402  27.079  0.1614  0.0920  0.0616
64585DOD     C337576  27.001  24.212  26.695 -0.4140 -0.0360 -0.1146
64586DOD     C137577   4.403  25.470   3.082 -0.3044 -0.2115  0.3049
64586DOD     C237578   4.198  25.866   2.976  0.1338  0.1357  0.2075
64586DOD     C337579   3.765  26.103   2.922 -0.0465 -0.0455 -0.2133
64587DOD     C137580   4.138  15.356  25.730  0.1358 -0.0794  0.0809
64587DOD     C237581   3.808  15.225  26.037 -0.2892  0.3821  0.1625
64587DOD     C337582   3.364  14.988  26.066  0.0046 -0.2239 -0.0751
64588DOD     C137583  20.218   6.052  14.252 -0.0434  0.1295 -0.1219
64588DOD     C237584  20.662   6.146  14.221 -0.0042  0.2199  0.0994
64588DOD     C337585  21.030   5.861  14.335 -0.1648  0.1924  0.1039
64589DOD     C137586  22.171   2.835   4.664  0.1728 -0.2436 -0.0473
64589DOD     C237587  21.965   2.828   4.272  0.0775  0.1886  0.1778
64589DOD     C337588  21.554   2.863   4.093  0.0310  0.3449  0.0777
64590DOD     C137589   7.740  21.653  15.478 -0.0051 -0.0010  0.3640
64590DOD     C237590   7.730  21.813  15.009 -0.1333 -0.2109 -0.0161
64590DOD     C337591   7.788  21.594  14.596  0.2537  0.3832  0.1444
64591DOD     C137592  14.250  19.024  17.351  0.1960 -0.1088  0.2204
64591DOD     C237593  14.080  18.612  17.262 -0.1037 -0.2502  0.2330
64591DOD     C337594  14.254  18.153  17.166 -0.2491  0.3707  0.2426
64592DOD     C137595   0.049  21.066  18.220  0.1529  0.2537  0.2029
64592DOD     C237596   0.315  21.462  18.278 -0.2465  0.3927  0.2688
64592DOD     C337597   0.677  21.423  17.946 -0.0086  0.0358 -0.1978
64593DOD     C137598   7.684   0.346   8.822  0.4112  0.0159 -0.2375
64593DOD     C237599   7.524  30.325   9.109 -0.0326 -0.0917  0.2917
64593DOD     C337600   7.176  30.045   9.295 -0.0560  0.1864 -0.0605
64594DOD     C137601  28.964  12.458  14.750  0.1960  0.0427 -0.0650
64594DOD     C237602  29.223  12.121  14.722 -0.1260  0.1183  0.0364
64594DOD     C337603  29.538  12.005  15.028  0.2894 -0.0471  0.1195
64595DOD     C137604  15.935  16.616  27.857  0.3913  0.0317  0.1593
64595DOD     C237605  15.979  16.865  27.407 -0.0951 -0.0811 -0.1601
64595DOD     C337606  15.751  17.037  27.029  0.0693  0.1260  0.0191
64596DOD     C137607  22.597  24.065   1.804 -0.1994  0.2034  0.0735
64596DOD     C237608  22.812  23.936   2.189 -0.5675  0.1351  0.0664
64596DOD     C337609  22.920  23.688   2.551  0.0271  0.0393 -0.0448
64597DOD     C137610  27.026  12.254  25.494 -0.0862 -0.1994  0.1443
64597DOD     C237611  27.326  12.529  25.652 -0.2284  0.5077  0.1342
64597DOD     C337612  27.791  12.653  25.639  0.2596  0.1193  0.0984
64598DOD     C137613  12.753   0.050  20.570  0.3897  0.1431 -0.1550
64598DOD     C237614  12.916   0.264  20.256 -0.0444 -0.2350 -0.1208
64598DOD     C337615  13.167   0.684  20.168  0.0779 -0.0089 -0.0266
64599DOD     C137616   6.998  12.133  10.803 -0.0330  0.1698  0.1956
64599DOD     C237617   6.948  12.129  10.335 -0.1012 -0.0323  0.2040
64599DOD     C337618   6.721  12.359   9.998  0.1621 -0.3453 -0.0666
64600DOD     C137619  22.914  25.231   8.479  0.3195 -0.2801 -0.1614
64600DOD     C237620  22.759  24.818   8.515 -0.1739 -0.1571 -0.2036
64600DOD     C337621  22.889  24.416   8.662  0.1829 -0.0268  0.0810
64601DOD     C137622   9.777  12.030  14.684 -0.0018  0.0862  0.0227
64601DOD     C237623   9.925  11.733  14.342 -0.1079  0.0227  0.0713
64601DOD     C337624  10.244  11.440  14.246  0.0034 -0.3063 -0.0205
64602DOD     C137625   6.769   7.536   1.953  0.3041 -0.2080  0.1411
64602DOD     C237626   6.594   7.098   1.915 -0.2127  0.1297  0.3703
64602DOD     C337627   6.548   6.661   1.765  0.2119 -0.0556 -0.1738
64603DOD     C137628  23.791   3.785  16.886  0.0347 -0.0971 -0.0174
64603DOD     C237629  23.581   3.417  17.136 -0.5935  0.1477  0.0513
64603DOD     C337630  23.604   3.251  17.548  0.0148  0.2335  0.2146
64604DOD     C137631  21.667  28.568  28.763  0.0546  0.3110  0.0815
64604DOD     C237632  21.538  28.304  29.155 -0.0486  0.0409 -0.0024
64604DOD     C337633  21.179  28.297  29.349 -0.2778 -0.2002  0.0883
64605DOD     C137634  25.817  15.756  30.019  0.1554 -0.0574 -0.1838
64605DOD     C237635  26.010  16.021   0.010  0.0695 -0.1376  0.0408
64605DOD     C337636  26.222  16.338   0.341  0.0811  0.0197  0.1394
64606DOD     C137637   7.193  22.006  18.658 -0.2677  0.1856  0.1091
64606DOD     C237638   7.261  22.434  18.647 -0.2031  0.1789  0.1008
64606DOD     C337639   7.382  22.796  18.437 -0.2230  0.1837 -0.1408
64607DOD     C137640  27.460  15.946  24.571 -0.2281  0.1220  0.1001
64607DOD     C237641  27.477  15.890  25.042 -0.2299 -0.0104 -0.0097
64607DOD     C337642  27.572  15.623  25.375 -0.1327  0.3548  0.1573
64608DOD     C137643   0.355  25.246  16.471 -0.2001  0.2812  0.2588
64608DOD     C237644   0.725  25.487  16.626  0.1380 -0.1184 -0.1154
64608DOD     C337645   1.097  25.597  16.967 -0.0497  0.0163  0.1499
64609DOD     C137646   7.888  28.967  28.277  0.0562 -0.0236 -0.1446
64609DOD     C237647   7.449  28.916  28.427 -0.1750 -0.1368 -0.0240
64609DOD     C337648   7.152  29.202  28.611  0.1761  0.1815  0.2166
64610DOD     C137649   5.164  21.445  18.908  0.2173 -0.4417 -0.3877
64610DOD     C237650   5.057  21.563  18.451 -0.5519 -0.2376  0.0411
64610DOD     C337651   4.938  21.411  17.991  0.0355 -0.2606 -0.0070
64611DOD     C137652  23.108  18.649  11.425 -0.1979  0.0627 -0.2614
64611DOD     C237653  22.820  19.016  11.298  0.2181 -0.2068  0.0020
64611DOD     C337654  22.504  19.268  11.054 -0.1943  0.1118 -0.1108
64612DOD     C137655   3.837   1.048   8.268 -0.2295 -0.2495  0.0954
64612DOD     C237656   3.650   0.760   8.587 -0.1903 -0.0158 -0.1096
64612DOD     C337657   3.778   0.617   9.063  0.1632  0.1862 -0.0180
64613DOD     C137658   3.825  25.940   5.834  0.1286  0.2691 -0.1292
64613DOD     C237659   4.291  25.815   5.827 -0.0082 -0.2131  0.3694
64613DOD     C337660   4.569  25.482   5.929  0.1813  0.2099 -0.1191
64614DOD     C137661  12.282   4.338  30.264  0.0206 -0.1305  0.2015
64614DOD     C237662  12.107   3.961   0.229  0.1675  0.1542 -0.1017
64614DOD     C337663  11.826   3.584   0.267 -0.0683  0.1722  0.0802
64615DOD     C137664  23.101  11.172  17.115 -0.2119 -0.2782  0.0809
64615DOD     C237665  23.536  11.261  17.269 -0.2506 -0.0389  0.2648
64615DOD     C337666  23.976  11.356  17.385  0.0409 -0.2310  0.3445
64616DOD     C137667  10.652   4.307   9.210 -0.0470 -0.0127  0.0472
64616DOD     C237668  11.071   4.129   9.094 -0.1802  0.0142 -0.2478
64616DOD     C337669  11.531   4.190   8.941  0.2270 -0.4187 -0.4420
64617DOD     C137670  21.740  17.911  21.102 -0.0713 -0.0606 -0.3942
64617DOD     C237671  21.627  18.001  20.630  0.0453 -0.2666 -0.1264
64617DOD     C337672  21.649  17.966  20.168  0.2623  0.0072 -0.2124
64618DOD     C137673  18.077  24.600  26.629 -0.1158  0.1018 -0.2054
64618DOD     C237674  18.249  24.932  26.331  0.0807  0.0933 -0.1697
64618DOD     C337675  18.332  25.351  26.170  0.1867  0.0443  0.1446
64619DOD     C137676   1.719   7.167  20.298  0.1008 -0.0968  0.1358
64619DOD     C237677   1.412   6.767  20.331 -0.0048 -0.2431  0.1141
64619DOD     C337678   0.991   6.614  20.449 -0.0142 -0.0083  0.2613
64620DOD     C137679   1.562  14.993   6.218 -0.0669  0.2042 -0.1671
64620DOD     C237680   1.344  14.736   5.897 -0.2644 -0.0078 -0.2459
64620DOD     C337681   0.938  14.679   5.700 -0.0742  0.1393  0.2014
64621DOD     C137682  19.983   5.618  14.263  0.0854 -0.1325  0.2252
64621DOD     C237683  20.394   5.414  14.102 -0.0498  0.3304 -0.0162
64621DOD     C337684  20.592   5.033  14.070  0.1559 -0.0395  0.3506
64622DOD     C137685  25.037  25.794  28.410  0.1457 -0.0234  0.3941
64622DOD     C237686  25.342  26.200  28.300  0.1414 -0.1417 -0.0111
64622DOD     C337687  25.637  26.416  28.055  0.0611 -0.3688  0.2254
64623DOD     C137688  20.598   8.029  12.640 -0.1096 -0.0449  0.0170
64623DOD     C237689  20.675   8.481  12.671  0.1759  0.1828  0.2799
64623DOD     C337690  20.774   8.863  12.432  0.2112  0.0357 -0.2938
64624DOD     C137691  14.933  12.279  16.239 -0.4158  0.0875 -0.0581
64624DOD     C237692  14.562  12.368  16.491  0.0185 -0.3735 -0.0009
64624DOD     C337693  14.200  12.563  16.725 -0.3753 -0.0085 -0.0658
64625DOD     C137694  13.581   9.981  19.775  0.0275  0.0495 -0.0255
64625DOD     C237695  13.948   9.935  19.549 -0.3552  0.0243  0.0478
64625DOD     C337696  14.214  10.206  19.332 -0.2029 -0.1509  0.2953
64626DOD     C137697  27.119  23.769  24.403  0.1618  0.4358  0.1074
64626DOD     C237698  26.670  23.585  24.294 -0.4758  0.2304 -0.1109
64626DOD     C337699  26.277  23.354  24.432 -0.1311 -0.0683 -0.3830
64627DOD     C137700  25.861  28.404  14.209  0.1396  0.0363  0.1125
64627DOD     C237701  26.258  28.546  13.931 -0.1304  0.2566  0.0449
64627DOD     C337702  26.457  28.724  13.570 -0.0472  0.1666  0.1826
64628DOD     C137703  11.205   2.536  20.244 -0.0289 -0.2334 -0.1288
64628DOD     C237704  10.890   2.631  19.922  0.2222  0.1540  0.0194
64628DOD     C337705  10.608   2.606  19.584 -0.1817  0.5028  0.0508
64629DOD     C137706  15.827  18.601   0.651 -0.1308  0.0186 -0.0710
64629DOD     C237707  16.124  18.633   0.334 -0.0376 -0.1405 -0.3397
64629DOD     C337708  16.519  18.535   0.085  0.1991  0.1702  0.1407
64630DOD     C137709   2.116   8.603  24.515  0.0040 -0.0100 -0.2727
64630DOD     C237710   1.942   8.829  24.160 -0.4149 -0.0693 -0.0210
64630DOD     C337711   1.719   9.180  24.068  0.0431  0.2325  0.3275
64631DOD     C137712   6.764  18.135  19.553 -0.2858 -0.0527 -0.1447
64631DOD     C237713   6.925  17.931  19.211 -0.2702  0.2587  0.0160
64631DOD     C337714   7.106  17.439  19.196  0.1765  0.1005  0.2271
64632DOD     C137715   2.260  14.496   4.420  0.0308 -0.1034  0.2489
64632DOD     C237716   1.919  14.493   4.093 -0.0416 -0.2024 -0.4038
64632DOD     C337717   1.501  14.389   4.187  0.3991  0.2121  0.1425
64633DOD     C137718  18.780  20.304  28.158  0.2203  0.0062  0.2938
64633DOD     C237719  18.864  19.773  28.170 -0.0255  0.1030 -0.0535
64633DOD     C337720  18.849  19.548  28.630  0.1038  0.1180 -0.1422
64634DOD     C137721  21.504   9.426  23.790 -0.2394  0.0984  0.0390
64634DOD     C237722  21.030   9.481  23.674 -0.2802  0.3049 -0.1418
64634DOD     C337723  20.679   9.618  23.494 -0.0028 -0.0951 -0.2275
64635DOD     C137724  26.896  11.846  25.936 -0.0347  0.1909 -0.0250
64635DOD     C237725  26.695  11.475  25.685 -0.2568  0.3034  0.1605
64635DOD     C337726  26.406  11.544  25.312 -0.0409 -0.1695 -0.1525
64636DOD     C137727   8.270  25.985   6.631 -0.1093  0.0335 -0.0053
64636DOD     C237728   7.853  26.197   6.751 -0.2221 -0.0517 -0.2621
64636DOD     C337729   7.527  26.435   6.894 -0.1562 -0.2835 -0.4992
64637DOD     C137730  28.098  28.891  18.583  0.1083  0.1392 -0.0931
64637DOD     C237731  27.915  28.657  18.945 -0.0935 -0.0402  0.2625
64637DOD     C337732  27.648  28.603  19.320  0.1402  0.1831  0.0772
64638DOD     C137733  20.928  25.474   1.035  0.0019  0.0346  0.0902
64638DOD     C237734  21.383  25.515   1.140 -0.0082  0.2849  0.2448
64638DOD     C337735  21.577  25.797   1.475 -0.4607  0.3015  0.0366
64639DOD     C137736   3.427   6.956  24.054  0.0397 -0.1974 -0.1065
64639DOD     C237737   3.512   7.396  23.986  0.1160  0.2021  0.4877
64639DOD     C337738   3.241   7.736  24.204  0.1456 -0.2104  0.1808
64640DOD     C137739   2.358  18.333  26.217 -0.0482 -0.2684 -0.3147
64640DOD     C237740   2.764  18.585  26.247  0.2177  0.0157  0.1800
64640DOD     C337741   3.100  18.577  26.566 -0.0369 -0.1137  0.2731
64641DOD     C137742  28.657  17.224   0.569 -0.1014 -0.0703 -0.1329
64641DOD     C237743  28.414  17.618   0.515 -0.1090  0.0351 -0.1109
64641DOD     C337744  28.098  17.826   0.226 -0.0390 -0.0493 -0.1677
64642DOD     C137745   1.305  22.884   2.546  0.0724  0.1706 -0.1678
64642DOD     C237746   1.026  23.075   2.212  0.2345  0.2655  0.1990
64642DOD     C337747   0.602  23.230   2.010 -0.0726  0.1869 -0.1318
64643DOD     C137748   9.402  11.910  27.145  0.0655 -0.2246 -0.0110
64643DOD     C237749   9.234  11.504  27.091  0.3526  0.2022 -0.0665
64643DOD     C337750   9.265  11.108  26.828  0.0746 -0.2660  0.0288
64644DOD     C137751   7.494  10.333   5.478 -0.1032 -0.0353  0.0319
64644DOD     C237752   7.530  10.459   5.060  0.1825 -0.1448  0.0029
64644DOD     C337753   7.222  10.814   4.887  0.1277 -0.1599 -0.1702
64645DOD     C137754  29.765  18.446  10.414  0.4674 -0.2394  0.2766
64645DOD     C237755  29.537  18.705  10.042  0.0294 -0.1358 -0.0037
64645DOD     C337756  29.188  18.858   9.744 -0.3248 -0.1567  0.0188
64646DOD     C137757  26.559  21.386  22.379  0.0511 -0.1514 -0.0430
64646DOD     C237758  26.423  20.965  22.490  0.2460  0.2072 -0.2660
64646DOD     C337759  26.229  20.553  22.396  0.1455  0.0939 -0.0454
64647DOD     C137760   2.584  25.897  20.405  0.0569 -0.3832 -0.0067
64647DOD     C237761   2.589  25.521  20.103 -0.1399 -0.1293  0.1215
64647DOD     C337762   2.410  25.230  19.801 -0.0881 -0.0949  0.1972
64648DOD     C137763  19.305  18.597   8.318  0.0726  0.3494  0.0096
64648DOD     C237764  19.610  18.894   8.120  0.2458  0.0992 -0.1298
64648DOD     C337765  19.936  19.165   8.055 -0.1265  0.3502  0.0755
64649DOD     C137766  11.882  27.717   6.976 -0.0878 -0.0564 -0.2044
64649DOD     C237767  11.759  27.537   6.605 -0.1258 -0.1294 -0.1549
64649DOD     C337768  11.536  27.460   6.224  0.0678  0.0095  0.0548
64650DOD     C137769  24.752   2.813   5.532  0.0739 -0.0002  0.0894
64650DOD     C237770  24.826   2.653   5.110  0.1428  0.0429 -0.0168
64650DOD     C337771  24.499   2.489   4.767 -0.1340  0.3237  0.0469
64651DOD     C137772  30.109   5.164  25.022  0.1854 -0.1874  0.2526
64651DOD     C237773  30.256   4.898  25.337  0.1843  0.1102 -0.0659
64651DOD     C337774  30.152   4.897  25.790 -0.1761 -0.2768  0.3504
64652DOD     C137775  18.470  24.148  10.295 -0.0542 -0.0132 -0.0139
64652DOD     C237776  18.513  24.423   9.905 -0.1657  0.2624 -0.2298
64652DOD     C337777  18.821  24.697   9.719  0.1759 -0.0400  0.2856
64653DOD     C137778  16.464   9.197   8.187 -0.3741 -0.0962 -0.0725
64653DOD     C237779  16.475   9.538   7.910  0.2501 -0.0475  0.4720
64653DOD     C337780  16.451   9.528   7.422 -0.0051 -0.0176 -0.0645
64654DOD     C137781  12.961   0.567  27.383 -0.0041  0.0073  0.0968
64654DOD     C237782  13.452   0.501  27.431 -0.0334 -0.2044  0.3042
64654DOD     C337783  13.766   0.784  27.273 -0.1569 -0.0957  0.0262
64655DOD     C137784  24.141  22.671  24.285  0.1163 -0.1699 -0.0866
64655DOD     C237785  23.980  22.290  24.069 -0.2507  0.2210 -0.3485
64655DOD     C337786  23.952  21.868  23.957  0.2089  0.0244 -0.4223
64656DOD     C137787  19.887  15.638  18.772  0.0176 -0.0239  0.1195
64656DOD     C237788  20.076  16.003  18.721 -0.0037 -0.0379  0.1214
64656DOD     C337789  20.299  16.264  18.424 -0.0999  0.0836  0.1601
64657DOD     C137790   4.749   3.489   7.695  0.1058  0.0355 -0.0915
64657DOD     C237791   5.159   3.600   7.861 -0.2748 -0.4719  0.1446
64657DOD     C337792   5.303   3.728   8.290  0.1036  0.2163  0.4765
64658DOD     C137793   2.036  11.160   9.430  0.0253  0.4185  0.1663
64658DOD     C237794   2.408  11.519   9.312  0.1210  0.0315 -0.1458
64658DOD     C337795   2.610  11.945   9.231  0.1362  0.2325  0.1122
64659DOD     C137796  24.661  13.082  20.740 -0.0296  0.0613 -0.1753
64659DOD     C237797  24.554  13.535  20.751 -0.0165  0.2459 -0.2703
64659DOD     C337798  24.340  13.941  20.591  0.4033  0.1328  0.1216
64660DOD     C137799  29.764  25.995   2.788 -0.0219  0.1522 -0.0329
64660DOD     C237800  29.604  26.201   3.135 -0.1265 -0.2053 -0.2437
64660DOD     C337801  29.570  26.325   3.595  0.2019 -0.1029  0.0471
64661DOD     C137802  10.739  23.487  20.109  0.3052 -0.3348  0.3230
64661DOD     C237803  10.870  23.593  19.674  0.2476  0.0404  0.0227
64661DOD     C337804  10.862  23.573  19.190 -0.3815  0.4734  0.4061
64662DOD     C137805  26.537   1.867  10.814 -0.2343 -0.1936  0.0984
64662DOD     C237806  26.599   2.067  10.354 -0.4698  0.1793  0.0652
64662DOD     C337807  26.790   2.083   9.942 -0.1709 -0.2432 -0.1385
64663DOD     C137808  19.735  20.798   5.465 -0.0320 -0.0559  0.0071
64663DOD     C237809  19.967  20.463   5.332 -0.0031 -0.1148  0.0046
64663DOD     C337810  20.103  20.301   4.935 -0.0887  0.4722  0.1289
64664DOD     C137811  13.761  13.182  12.381  0.2883  0.2067  0.1300
64664DOD     C237812  14.170  12.971  12.225 -0.0149  0.0654  0.0892
64664DOD     C337813  14.232  12.866  11.739  0.0486  0.2236 -0.2949
64665DOD     C137814  13.389   8.446   7.861  0.2452 -0.2905  0.2481
64665DOD     C237815  13.817   8.334   8.123  0.1008 -0.2701 -0.0112
64665DOD     C337816  14.108   8.002   8.103 -0.3541  0.2523  0.0816
64666DOD     C137817  28.773  21.649  25.581 -0.2156  0.2591  0.3436
64666DOD     C237818  28.442  21.370  25.353  0.1763  0.3024 -0.0760
64666DOD     C337819  28.100  21.242  25.058  0.1581  0.1409 -0.0437
64667DOD     C137820  14.484  19.528  28.585 -0.1775  0.0137 -0.1336
64667DOD     C237821  14.306  19.095  28.644 -0.0393  0.1502 -0.0581
64667DOD     C337822  13.905  18.897  28.737  0.2413 -0.1817 -0.0206
64668DOD     C137823  24.710  28.454  26.800  0.2835  0.0229  0.0032
64668DOD     C237824  24.856  28.369  26.315  0.3192  0.0136  0.2402
64668DOD     C337825  24.993  28.530  25.866 -0.0231  0.0905 -0.0480
64669DOD     C137826  11.575   4.204  30.131  0.3529  0.0322 -0.0977
64669DOD     C237827  11.713   4.247   0.246  0.0604  0.3487 -0.2095
64669DOD     C337828  11.716   3.961   0.588  0.0185 -0.0288  0.0173
64670DOD     C137829   2.103  27.906   0.519  0.0298  0.3320 -0.0119
64670DOD     C237830   2.453  27.644   0.337  0.1551 -0.0436 -0.0645
64670DOD     C337831   2.896  27.624   0.234  0.3386  0.0514 -0.0185
64671DOD     C137832  10.533  25.800   6.353  0.1118 -0.1918  0.2140
64671DOD     C237833  10.159  25.576   6.279  0.1471 -0.1035  0.4970
64671DOD     C337834   9.825  25.258   6.182  0.0001  0.0057  0.0239
64672DOD     C137835  29.957  19.057   0.959  0.1735  0.0334  0.0296
64672DOD     C237836   0.079  19.118   0.862  0.0592 -0.2515  0.0907
64672DOD     C337837   0.482  18.963   1.101 -0.2170  0.1866  0.0951
64673DOD     C137838  22.536  16.952  28.933 -0.2221  0.1863 -0.0870
64673DOD     C237839  22.828  17.318  29.010  0.1319 -0.0705 -0.0231
64673DOD     C337840  23.027  17.749  28.874  0.1863  0.2128 -0.2398
64674DOD     C137841   8.385  11.481   6.480  0.0992 -0.0701  0.1911
64674DOD     C237842   8.326  11.059   6.386  0.1764 -0.2982 -0.2808
64674DOD     C337843   8.508  10.634   6.441  0.6481  0.1191  0.0160
64675DOD     C137844  18.260  14.992  17.137 -0.2671  0.0712 -0.2947
64675DOD     C237845  18.406  14.645  16.939 -0.2396 -0.0934 -0.1422
64675DOD     C337846  18.457  14.235  17.086 -0.2300 -0.1617  0.1386
64676DOD     C137847  17.239   3.522   4.086 -0.2266  0.3276 -0.1151
64676DOD     C237848  16.961   3.122   4.163 -0.5603  0.2859  0.0354
64676DOD     C337849  16.528   2.856   4.091 -0.1378  0.0217 -0.0249
64677DOD     C137850  29.112  17.818   8.247  0.2352  0.2362 -0.0700
64677DOD     C237851  29.200  18.039   8.610  0.2642  0.1268 -0.4993
64677DOD     C337852  29.459  18.239   8.977 -0.1010 -0.1734  0.1277
64678DOD     C137853  17.813   9.994  23.776 -0.4722  0.3550 -0.0075
64678DOD     C237854  17.894  10.408  23.941 -0.1125  0.0723  0.2274
64678DOD     C337855  18.085  10.888  23.989 -0.0574 -0.0083 -0.1900
64679DOD     C137856  17.091  10.267  27.567  0.0904 -0.1443  0.1699
64679DOD     C237857  16.714  10.429  27.281 -0.3513 -0.4506  0.0534
64679DOD     C337858  16.462  10.246  26.872  0.0273  0.0858  0.0040
64680DOD     C137859   4.293   2.462  26.432  0.0313 -0.0091 -0.4689
64680DOD     C237860   4.605   2.679  26.672  0.2001  0.2070 -0.2942
64680DOD     C337861   5.030   2.746  26.781 -0.0989 -0.1264  0.0524
64681DOD     C137862  14.958  26.955  21.393 -0.2221 -0.1537 -0.2185
64681DOD     C237863  14.815  26.679  21.720  0.1696  0.1129 -0.1783
64681DOD     C337864  14.699  26.501  22.179  0.1459  0.3808  0.2878
64682DOD     C137865  13.019  13.755   2.908 -0.0325  0.1391  0.1169
64682DOD     C237866  13.392  14.049   2.931  0.1362 -0.3372  0.3141
64682DOD     C337867  13.700  14.321   3.174 -0.0046 -0.0055 -0.3316
64683DOD     C137868   7.847  16.591   7.597  0.1473  0.4774 -0.0476
64683DOD     C237869   8.106  16.942   7.779 -0.1368  0.0777  0.2198
64683DOD     C337870   8.364  17.286   7.837 -0.0475 -0.2087  0.1422
64684DOD     C137871   3.157   0.728  20.196  0.1469 -0.0072 -0.0568
64684DOD     C237872   3.477   0.476  19.997  0.2323 -0.1354 -0.2455
64684DOD     C337873   3.747   0.206  20.151  0.0387 -0.0290  0.1042
64685DOD     C137874   9.414  14.639  17.085  0.0201 -0.1082  0.1009
64685DOD     C237875   9.558  14.878  17.422 -0.0338 -0.2882 -0.1076
64685DOD     C337876   9.347  15.095  17.823  0.1063 -0.0534  0.1137
64686DOD     C137877  25.999  23.364  12.065  0.0146 -0.2222 -0.0264
64686DOD     C237878  25.620  23.034  12.089  0.0565 -0.3283 -0.1524
64686DOD     C337879  25.435  22.638  12.097  0.0726 -0.3943 -0.0506
64687DOD     C137880   2.309  13.698  14.803  0.1142 -0.0445 -0.0237
64687DOD     C237881   2.283  13.453  14.400 -0.0136 -0.1518  0.3247
64687DOD     C337882   2.009  13.055  14.195 -0.0322 -0.2128 -0.2814
64688DOD     C137883  20.080  22.432   7.288  0.1386 -0.3740  0.2057
64688DOD     C237884  20.486  22.657   7.307 -0.0660  0.0718 -0.0565
64688DOD     C337885  20.865  22.617   7.406  0.0181 -0.0050  0.2360
64689DOD     C137886  29.540  18.953   7.093  0.2526  0.0061 -0.2690
64689DOD     C237887  29.812  18.622   7.215 -0.0425 -0.1153  0.1747
64689DOD     C337888  30.018  18.404   7.609  0.1710  0.0530  0.0065
64690DOD     C137889  22.051  10.251  28.252  0.4099  0.1285  0.0199
64690DOD     C237890  21.759   9.921  28.051  0.2414 -0.1079 -0.3271
64690DOD     C337891  21.951   9.619  27.771 -0.2363  0.0037  0.1674
64691DOD     C137892  14.383  25.976   0.864 -0.0489  0.0800  0.0301
64691DOD     C237893  14.605  25.618   0.680  0.3833  0.3125 -0.2035
64691DOD     C337894  14.615  25.390   0.334 -0.2053 -0.1101 -0.1578
64692DOD     C137895  26.298  10.431   3.600  0.1917  0.1227 -0.0753
64692DOD     C237896  26.703  10.669   3.533  0.0544 -0.0363 -0.1767
64692DOD     C337897  26.981  11.103   3.503  0.1596  0.2123 -0.1181
64693DOD     C137898   0.302  20.894  15.393  0.1013 -0.1376  0.3569
64693DOD     C237899  30.233  21.128  15.524 -0.1237  0.0603  0.0441
64693DOD     C337900  29.972  21.510  15.559 -0.1451  0.2256 -0.1855
64694DOD     C137901   7.526  24.385   6.289 -0.2285  0.1015  0.0182
64694DOD     C237902   7.336  24.471   5.937 -0.1060 -0.1402 -0.3035
64694DOD     C337903   7.270  24.509   5.525  0.2383 -0.1702  0.2263
64695DOD     C137904  18.540   0.071  21.900  0.3037  0.2450  0.0187
64695DOD     C237905  18.353  30.016  21.655  0.0884 -0.2267 -0.0616
64695DOD     C337906  18.255  29.859  21.243  0.0870 -0.0406  0.0571
64696DOD     C137907  27.360   2.769  11.494  0.0045  0.2599 -0.0148
64696DOD     C237908  26.948   2.825  11.245 -0.0288 -0.2458 -0.1690
64696DOD     C337909  26.476   2.868  11.259 -0.1305 -0.0819  0.1127
64697DOD     C137910   4.560   2.991  21.725 -0.0366 -0.3030  0.2833
64697DOD     C237911   4.747   3.296  22.032  0.0237  0.0093 -0.1812
64697DOD     C337912   4.724   3.018  22.408  0.0539 -0.3498  0.0911
64698DOD     C137913  21.644  17.737   2.064 -0.1426  0.3457 -0.3056
64698DOD     C237914  21.947  17.726   2.452  0.1158  0.6043 -0.1082
64698DOD     C337915  22.184  17.405   2.722  0.2782  0.2487  0.0320
64699DOD     C137916  22.349  20.424  27.849  0.1621 -0.1975  0.4531
64699DOD     C237917  22.181  20.823  28.023  0.0254 -0.1114 -0.1484
64699DOD     C337918  21.995  21.265  27.905  0.0291  0.0602  0.0884
64700DOD     C137919  10.097   3.534  24.619 -0.3022 -0.1628 -0.2754
64700DOD     C237920  10.171   3.446  25.096 -0.0778  0.1643 -0.1207
64700DOD     C337921  10.362   3.254  25.418 -0.0076  0.1513  0.2344
64701DOD     C137922  13.376  17.261  20.589 -0.0305 -0.2784  0.1603
64701DOD     C237923  13.265  17.692  20.336  0.2090  0.0685  0.2155
64701DOD     C337924  13.478  18.084  20.226  0.0552 -0.1593  0.1575
64702DOD     C137925  12.947  10.093  17.427 -0.0560 -0.0396  0.1084
64702DOD     C237926  12.653   9.754  17.360  0.0842 -0.1465 -0.0985
64702DOD     C337927  12.485   9.586  16.965  0.2213 -0.0710 -0.0439
64703DOD     C137928   1.085  13.455  25.479 -0.0568  0.1500  0.0706
64703DOD     C237929   1.094  13.065  25.765  0.2980 -0.0313  0.2633
64703DOD     C337930   1.136  13.015  26.222 -0.1628 -0.1947 -0.2855
64704DOD     C137931   6.227  17.378   1.909 -0.1380  0.1763 -0.1113
64704DOD     C237932   6.513  17.664   1.794  0.2092 -0.1485 -0.2263
64704DOD     C337933   6.833  17.968   1.782 -0.0802  0.0272 -0.0778
64705DOD     C137934  19.818  23.302   2.655  0.1349 -0.3046 -0.1474
64705DOD     C237935  19.976  23.501   3.028 -0.1512  0.1391 -0.0741
64705DOD     C337936  20.048  23.428   3.472  0.3303  0.3010  0.0703
64706DOD     C137937  16.481  14.385  27.217  0.1661 -0.2904 -0.0301
64706DOD     C237938  16.596  14.624  26.830  0.1440 -0.2230  0.1369
64706DOD     C337939  16.764  14.973  26.539 -0.1780 -0.2651  0.3098
64707DOD     C137940  15.826  21.516  20.932  0.2558  0.2612  0.0968
64707DOD     C237941  15.555  21.880  21.003  0.0711 -0.2224  0.1182
64707DOD     C337942  15.213  22.139  21.208 -0.0036  0.3916  0.1073
64708DOD     C137943   9.452  28.447   2.393 -0.3118 -0.3305  0.3639
64708DOD     C237944   9.230  28.808   2.679  0.0121 -0.1301  0.2150
64708DOD     C337945   9.043  29.118   3.029 -0.3646  0.1254  0.0045
64709DOD     C137946   5.620  20.561  13.820  0.0198 -0.0434  0.0430
64709DOD     C237947   5.532  20.145  14.089  0.1823  0.1069 -0.0023
64709DOD     C337948   5.198  19.851  14.074 -0.1852 -0.1101 -0.3781
64710DOD     C137949  16.608  27.316  21.916 -0.0662 -0.0563  0.2493
64710DOD     C237950  16.955  27.084  21.669  0.2444 -0.1170 -0.0531
64710DOD     C337951  17.265  26.821  21.539 -0.2718  0.1104 -0.1419
64711DOD     C137952  27.140   5.337  22.313  0.1385 -0.1224  0.0439
64711DOD     C237953  27.340   5.762  22.321 -0.1048 -0.1340  0.2132
64711DOD     C337954  27.360   6.220  22.231  0.0069 -0.0864  0.0230
64712DOD     C137955   4.342   4.557   2.857 -0.1981  0.1970  0.1262
64712DOD     C237956   4.286   4.899   2.526 -0.1985  0.0163 -0.1427
64712DOD     C337957   4.294   4.993   2.097  0.1900  0.3399  0.2320
64713DOD     C137958  26.969  28.652  10.151 -0.1101  0.0528  0.1095
64713DOD     C237959  26.856  28.576   9.710 -0.3252  0.0960 -0.4583
64713DOD     C337960  26.553  28.719   9.393 -0.1251  0.0417 -0.0402
64714DOD     C137961   9.713  19.979  23.955 -0.0426 -0.1856  0.2668
64714DOD     C237962   9.756  20.391  24.121 -0.2039 -0.2789  0.1019
64714DOD     C337963   9.894  20.849  24.273  0.2908  0.0088 -0.2183
64715DOD     C137964   0.094  13.655   8.022  0.1791 -0.1639 -0.0902
64715DOD     C237965  30.224  14.075   8.180  0.2562  0.0150  0.1425
64715DOD     C337966  30.087  14.373   8.560 -0.1189  0.0657  0.1420
64716DOD     C137967  16.921  16.271  30.284  0.0830  0.0738  0.0888
64716DOD     C237968  16.749  16.609  29.945 -0.0021 -0.0512 -0.0565
64716DOD     C337969  16.532  17.084  29.873 -0.0050 -0.0534  0.0600
64717DOD     C137970  21.038  26.358   0.035 -0.1140 -0.2223 -0.0804
64717DOD     C237971  21.124  26.514  29.943 -0.0904 -0.0142 -0.0042
64717DOD     C337972  21.248  26.865  29.650 -0.1752 -0.1181  0.1211
64718DOD     C137973  10.340   5.082  29.923 -0.0679 -0.0251 -0.1813
64718DOD     C237974  10.534   4.676  29.853  0.2925 -0.5023  0.2850
64718DOD     C337975  10.680   4.217  29.752 -0.1828 -0.1763 -0.2448
64719DOD     C137976   4.046  19.222  21.602 -0.0188  0.1117 -0.0600
64719DOD     C237977   3.663  19.302  21.419  0.3258 -0.2641  0.0074
64719DOD     C337978   3.208  19.383  21.231 -0.4138  0.3112  0.2545
64720DOD     C137979  11.052  26.129  14.168  0.3073 -0.1626  0.0629
64720DOD     C237980  11.432  26.060  14.361 -0.1711  0.1954  0.2455
64720DOD     C337981  11.578  25.814  14.688  0.1831  0.1792 -0.2443
64721DOD     C137982   0.829   3.923   9.606  0.0111 -0.4588 -0.1904
64721DOD     C237983   0.990   4.113  10.016 -0.1102 -0.3766 -0.1204
64721DOD     C337984   1.291   4.484  10.151 -0.0612 -0.0914 -0.0521
64722DOD     C137985   1.980   6.184  26.191 -0.0602 -0.0708 -0.0139
64722DOD     C237986   1.960   6.672  26.138  0.1562 -0.0529  0.1585
64722DOD     C337987   1.946   7.144  26.090 -0.1636  0.1255  0.0833
64723DOD     C137988  22.432  24.875  10.030  0.1056 -0.2100 -0.0223
64723DOD     C237989  21.998  25.078  10.031 -0.0609  0.2695  0.0457
64723DOD     C337990  21.726  24.858   9.683 -0.1175  0.2347 -0.4189
64724DOD     C137991  10.406  26.363   9.996 -0.0169 -0.0838  0.0251
64724DOD     C237992  10.399  26.809   9.857 -0.0440  0.3392 -0.1688
64724DOD     C337993  10.147  27.209   9.787  0.6532 -0.0729  0.2659
64725DOD     C137994  26.975   4.420   4.998  0.1351 -0.0450  0.0366
64725DOD     C237995  26.947   4.841   4.796  0.2149 -0.2246  0.1207
64725DOD     C337996  27.178   5.167   4.544 -0.0401  0.4377 -0.2028
64726DOD     C137997   3.071  21.320  27.508 -0.2233  0.0250  0.1760
64726DOD     C237998   3.139  20.928  27.810 -0.1333  0.2800 -0.0997
64726DOD     C337999   2.941  20.654  28.174 -0.1193 -0.0171  0.0922
64727DOD     C138000  26.110  21.620  17.475  0.0881 -0.1699  0.0412
64727DOD     C238001  25.939  21.916  17.747  0.0452  0.0041 -0.1252
64727DOD     C338002  25.602  22.193  17.959 -0.0061 -0.1865  0.2775
64728DOD     C138003  14.635   2.560   7.463  0.2701 -0.1104 -0.1655
64728DOD     C238004  14.853   2.296   7.153 -0.3081 -0.1852 -0.3758
64728DOD     C338005  15.114   2.085   6.821 -0.0933  0.0254  0.1502
64729DOD     C138006  30.057  29.323   5.131  0.2737 -0.0352  0.0750
64729DOD     C238007  30.187  29.092   5.518 -0.0830 -0.1454 -0.2893
64729DOD     C338008   0.195  28.822   5.719 -0.0293  0.0288  0.0872
64730DOD     C138009  13.964  10.218  24.578 -0.3142 -0.0226  0.1438
64730DOD     C238010  13.514  10.366  24.619 -0.1238 -0.1593  0.1938
64730DOD     C338011  13.094  10.371  24.744 -0.2055  0.0464 -0.0755
64731DOD     C138012   1.702  10.865   8.534  0.0536 -0.0788 -0.1289
64731DOD     C238013   2.030  10.553   8.404 -0.0947 -0.0108 -0.2351
64731DOD     C338014   2.452  10.606   8.127  0.0886 -0.0784 -0.1603
64732DOD     C138015   4.732   5.911  10.134  0.2074 -0.0795  0.2020
64732DOD     C238016   4.470   5.920   9.712  0.2326  0.0221  0.1497
64732DOD     C338017   4.357   6.070   9.232 -0.4142 -0.0625  0.1968
64733DOD     C138018  24.147  26.598   3.100  0.1607 -0.0328 -0.2248
64733DOD     C238019  24.318  26.236   3.338  0.2028 -0.4537 -0.2847
64733DOD     C338020  24.632  25.869   3.341  0.1012  0.0600 -0.2548
64734DOD     C138021   4.576   8.655  10.335  0.1287 -0.0783 -0.3583
64734DOD     C238022   4.378   9.046  10.549 -0.1733  0.2853 -0.2323
64734DOD     C338023   4.219   9.374  10.914  0.0904 -0.1988 -0.0414
64735DOD     C138024   4.808   7.478   3.883 -0.0844  0.0193  0.3679
64735DOD     C238025   5.093   7.354   4.272 -0.4707  0.0839 -0.2142
64735DOD     C338026   5.223   7.226   4.703 -0.2559 -0.0899 -0.1841
64736DOD     C138027  10.283   4.431   1.251 -0.1422 -0.3124 -0.1613
64736DOD     C238028  10.242   4.210   1.640  0.2934  0.3551  0.0579
64736DOD     C338029  10.111   4.345   2.026  0.0391  0.0517 -0.1764
64737DOD     C138030  20.084  20.329  30.138  0.0551 -0.2276 -0.2082
64737DOD     C238031  20.057  20.797  30.188  0.2620 -0.0070  0.1591
64737DOD     C338032  20.230  21.242  30.171 -0.2749 -0.1777  0.0365
64738DOD     C138033  23.317  14.537  27.486  0.1239 -0.1556 -0.0258
64738DOD     C238034  23.707  14.664  27.436  0.1054  0.3499  0.3467
64738DOD     C338035  24.056  14.906  27.208 -0.0774 -0.0580  0.0108
64739DOD     C138036  24.100  17.135  12.417 -0.0282  0.1547  0.0863
64739DOD     C238037  24.061  16.748  12.699  0.1262 -0.0681 -0.2355
64739DOD     C338038  23.827  16.523  13.068  0.2808  0.3732 -0.2565
64740DOD     C138039  18.682   7.413  11.795 -0.1878 -0.0511  0.0913
64740DOD     C238040  18.874   7.796  12.084 -0.0829 -0.1455  0.0220
64740DOD     C338041  19.046   7.871  12.543 -0.1586  0.2477 -0.0493
64741DOD     C138042   6.850  14.887   8.933 -0.0580  0.3518  0.0279
64741DOD     C238043   6.873  15.246   9.177 -0.0897  0.1988  0.0581
64741DOD     C338044   7.102  15.633   9.264  0.0356  0.0701 -0.2870
64742DOD     C138045  11.452   1.901  10.595 -0.1320 -0.1496 -0.1588
64742DOD     C238046  11.745   2.267  10.690  0.2732  0.2621 -0.0458
64742DOD     C338047  11.923   2.405  10.294  0.1271 -0.3845  0.1644
64743DOD     C138048  13.868   2.677  22.873  0.1460  0.1001  0.2636
64743DOD     C238049  14.178   2.868  22.598  0.0218  0.0593  0.1557
64743DOD     C338050  14.572   2.877  22.282 -0.0536 -0.1602 -0.2036
64744DOD     C138051   5.457  10.074  20.164 -0.2144 -0.2027 -0.3106
64744DOD     C238052   5.144  10.224  20.530 -0.1427 -0.0476  0.0060
64744DOD     C338053   4.698  10.412  20.602 -0.0900 -0.0473  0.2222
64745DOD     C138054  12.825   3.149  13.055 -0.3542 -0.3643  0.2899
64745DOD     C238055  12.580   3.179  13.450  0.1182 -0.2304 -0.0742
64745DOD     C338056  12.286   2.801  13.630  0.0415 -0.0356 -0.0704
64746DOD     C138057   6.197   7.449   1.889  0.0278 -0.2112  0.0407
64746DOD     C238058   5.694   7.453   1.860 -0.1122  0.1023 -0.3202
64746DOD     C338059   5.265   7.589   1.808  0.0507 -0.0917  0.0581
64747DOD     C138060   3.456   4.046   9.443  0.1819  0.1068 -0.4364
64747DOD     C238061   3.187   4.149   9.064  0.0001 -0.0004 -0.0818
64747DOD     C338062   3.103   3.995   8.615  0.2296 -0.0547 -0.0365
64748DOD     C138063  21.862  17.558  10.896 -0.2033 -0.3650 -0.1183
64748DOD     C238064  21.987  17.774  10.562 -0.0430  0.1445 -0.2814
64748DOD     C338065  22.205  17.944  10.174 -0.1330 -0.2647  0.2366
64749DOD     C138066  17.466  14.354   5.814 -0.2467  0.0450 -0.1425
64749DOD     C238067  17.961  14.306   5.684 -0.1684  0.1990 -0.2427
64749DOD     C338068  18.376  14.445   5.649  0.0256 -0.0292 -0.2427
64750DOD     C138069   5.132   2.508  13.460 -0.1803  0.1700  0.0226
64750DOD     C238070   5.473   2.233  13.372  0.3016  0.1148 -0.1232
64750DOD     C338071   5.812   2.330  13.681  0.1468 -0.0107 -0.1486
64751DOD     C138072  15.678   4.629  20.108 -0.2515  0.1551  0.3017
64751DOD     C238073  15.385   4.957  20.038  0.0074 -0.1978 -0.3033
64751DOD     C338074  15.226   5.392  20.242 -0.4217 -0.1006  0.2796
64752DOD     C138075   1.868   7.464   8.653 -0.2866  0.0753  0.1537
64752DOD     C238076   1.649   7.123   8.365  0.4754 -0.3210 -0.0305
64752DOD     C338077   1.752   6.830   7.982  0.1444 -0.0759 -0.3585
64753DOD     C138078   9.233  18.700  13.449  0.0272 -0.0554  0.1179
64753DOD     C238079   8.971  18.853  13.156  0.2578 -0.2555 -0.1456
64753DOD     C338080   8.577  18.930  12.887 -0.0377 -0.2591  0.0433
64754DOD     C138081   8.120   0.580   2.917  0.2122  0.2469  0.0319
64754DOD     C238082   8.467   0.629   2.597  0.0468 -0.0474  0.0072
64754DOD     C338083   8.437   0.867   2.204  0.1690  0.1173  0.2543
64755DOD     C138084  13.375  28.695  12.430 -0.0377  0.2814 -0.0219
64755DOD     C238085  12.976  28.864  12.307  0.2025 -0.2630  0.2708
64755DOD     C338086  12.785  29.208  12.001 -0.2324  0.0351 -0.1787
64756DOD     C138087  11.456  26.406  13.092 -0.0733  0.0929  0.0087
64756DOD     C238088  11.282  26.126  13.455 -0.2805 -0.2351 -0.0980
64756DOD     C338089  10.801  26.015  13.603  0.0304 -0.1126  0.1624
64757DOD     C138090  17.983  19.097  27.229  0.1161 -0.2005 -0.2543
64757DOD     C238091  18.218  19.220  27.576  0.2877  0.3020  0.0668
64757DOD     C338092  18.265  19.086  28.039 -0.2731 -0.1211  0.2638
64758DOD     C138093  24.216  19.732  11.273 -0.0408 -0.0906 -0.0537
64758DOD     C238094  23.775  19.766  11.424  0.0174 -0.1828  0.0499
64758DOD     C338095  23.284  19.855  11.391  0.0615 -0.3250  0.1098
64759DOD     C138096  21.769   9.761  14.628 -0.1817  0.2052  0.1507
64759DOD     C238097  21.385   9.424  14.804  0.2053  0.0223  0.2230
64759DOD     C338098  20.969   9.259  14.936  0.0120  0.0124  0.0951
64760DOD     C138099  10.854   0.935  24.184 -0.1608  0.1843  0.3137
64760DOD     C238100  11.262   0.718  24.106 -0.1660 -0.2865 -0.0887
64760DOD     C338101  11.727   0.715  24.196  0.1177 -0.1392 -0.3938
64761DOD     C138102   9.937  18.015  11.560  0.3208 -0.0220  0.1842
64761DOD     C238103  10.267  17.803  11.825  0.2411  0.1059  0.1169
64761DOD     C338104  10.488  17.503  12.118  0.1271  0.0117 -0.2893
64762DOD     C138105   3.931  13.623   5.200  0.1643 -0.0942  0.1778
64762DOD     C238106   3.727  13.891   4.851  0.0163 -0.1320 -0.0659
64762DOD     C338107   3.867  14.001   4.439  0.2296 -0.0653  0.3959
64763DOD     C138108  24.916  14.492  27.286 -0.2208  0.0142  0.0650
64763DOD     C238109  25.166  14.183  27.564  0.2050 -0.1343  0.2315
64763DOD     C338110  25.313  14.255  28.004  0.0300 -0.1513 -0.2001
64764DOD     C138111   6.784   5.283  27.545 -0.0846 -0.1746 -0.0698
64764DOD     C238112   6.855   5.034  27.151  0.2045  0.0716 -0.0752
64764DOD     C338113   7.014   4.864  26.744 -0.0951  0.0868 -0.1036
64765DOD     C138114   2.730   1.267  11.281 -0.0753  0.0529  0.0173
64765DOD     C238115   2.722   1.236  10.822 -0.0589  0.0943  0.1638
64765DOD     C338116   2.421   1.247  10.527  0.1466 -0.2034 -0.0533
64766DOD     C138117   6.764  28.581  29.759  0.0298 -0.0065  0.0699
64766DOD     C238118   6.342  28.581  29.894  0.2494  0.0409 -0.1820
64766DOD     C338119   6.205  28.898  30.201  0.1727  0.0442  0.1219
64767DOD     C138120  10.974  15.030  25.927 -0.2272 -0.2635 -0.1494
64767DOD     C238121  11.184  15.414  26.085  0.2289  0.0854 -0.0257
64767DOD     C338122  11.591  15.370  26.245  0.3618 -0.1026  0.2307
64768DOD     C138123  10.422  24.395  23.342  0.2394  0.0507  0.2900
64768DOD     C238124  10.340  24.150  23.719  0.1018 -0.3013  0.0229
64768DOD     C338125  10.239  24.207  24.196  0.0531 -0.0474 -0.0077
64769DOD     C138126  12.601  10.679   0.096 -0.3433 -0.0096  0.1914
64769DOD     C238127  12.433  10.249  30.311  0.3089 -0.1267  0.2466
64769DOD     C338128  12.542   9.820   0.118  0.2246  0.2881 -0.2091
64770DOD     C138129   6.840  16.757  24.341 -0.0681  0.0400 -0.0584
64770DOD     C238130   7.154  16.538  24.108  0.1416 -0.2282 -0.0772
64770DOD     C338131   7.548  16.260  24.094 -0.0940  0.0693 -0.1400
64771DOD     C138132   6.923  18.983  25.384 -0.1811 -0.0427 -0.1166
64771DOD     C238133   6.800  18.770  25.047 -0.0476 -0.0485  0.1555
64771DOD     C338134   6.566  18.523  24.744  0.3122  0.1713 -0.2093
64772DOD     C138135   7.320   1.991  22.979  0.2044 -0.1540  0.1300
64772DOD     C238136   7.617   1.740  22.785 -0.1412 -0.0122  0.1527
64772DOD     C338137   7.851   1.873  22.429  0.2176 -0.2894 -0.2238
64773DOD     C138138  13.105  20.344   9.210  0.2445  0.0204 -0.1850
64773DOD     C238139  12.950  20.553   8.780 -0.3826 -0.0484  0.3994
64773DOD     C338140  12.875  21.048   8.718  0.0654  0.0928 -0.1990
64774DOD     C138141  23.294   1.004   1.037  0.0105 -0.2703  0.1132
64774DOD     C238142  23.330   0.870   1.535 -0.1016 -0.1672  0.0433
64774DOD     C338143  23.492   0.885   1.981  0.0310  0.2377 -0.1313
64775DOD     C138144  12.299  22.852  12.979 -0.4108  0.1729 -0.0344
64775DOD     C238145  12.415  22.712  12.522 -0.0333  0.3355  0.0902
64775DOD     C338146  12.683  22.398  12.405 -0.0231  0.1489  0.2037
64776DOD     C138147   6.043  16.114  24.849  0.0652  0.0909 -0.1903
64776DOD     C238148   5.825  16.212  25.225 -0.1773 -0.0070  0.1125
64776DOD     C338149   5.734  16.033  25.694 -0.0726  0.2678 -0.0717
64777DOD     C138150   2.806  19.642  26.694 -0.2559 -0.0805 -0.2077
64777DOD     C238151   2.432  19.840  26.905  0.0498  0.2265  0.0194
64777DOD     C338152   2.088  20.139  27.101 -0.0202  0.2654 -0.0879
64778DOD     C138153  19.319  28.315   7.438  0.1585 -0.0412 -0.0683
64778DOD     C238154  18.909  28.402   7.378  0.0262 -0.3563  0.2149
64778DOD     C338155  18.607  28.736   7.221 -0.2056  0.2045 -0.1783
64779DOD     C138156  16.342  14.752  23.730  0.0576  0.2440 -0.1115
64779DOD     C238157  16.043  15.016  23.499  0.4280 -0.1086 -0.0421
64779DOD     C338158  15.660  14.957  23.246 -0.2054 -0.1199  0.2478
64780DOD     C138159   3.814   3.542  22.282 -0.0385 -0.0432  0.0723
64780DOD     C238160   3.992   3.851  22.566 -0.0923  0.1456  0.1189
64780DOD     C338161   3.837   4.219  22.549  0.0380 -0.1734  0.2064
64781DOD     C138162  17.572  10.406   6.991  0.4862 -0.1326  0.2497
64781DOD     C238163  17.544  10.333   7.482  0.2248 -0.2297  0.1024
64781DOD     C338164  17.682  10.451   7.887 -0.0032  0.1022 -0.0404
64782DOD     C138165   0.602   9.001   4.018 -0.0900  0.0568  0.0322
64782DOD     C238166   0.678   8.710   3.606  0.0808  0.2221 -0.1857
64782DOD     C338167   0.604   8.409   3.282 -0.3175 -0.1086 -0.1384
64783DOD     C138168  16.981  25.154   3.049  0.1274 -0.0046  0.0000
64783DOD     C238169  16.761  24.866   3.334 -0.4847  0.3180 -0.0232
64783DOD     C338170  16.583  24.771   3.737 -0.1893  0.0842 -0.1900
64784DOD     C138171  29.932   9.075  28.805  0.0060 -0.1440 -0.0061
64784DOD     C238172  30.070   9.101  28.350  0.2292  0.0231  0.1765
64784DOD     C338173  29.877   9.344  28.042 -0.0988  0.0317 -0.0381
64785DOD     C138174  25.112   2.816   6.337  0.0457 -0.2382  0.2404
64785DOD     C238175  25.290   2.498   6.642 -0.1752  0.0202  0.2112
64785DOD     C338176  25.691   2.211   6.730  0.0169 -0.4818  0.0134
64786DOD     C138177   3.456   6.478   7.615  0.2313 -0.0989 -0.0474
64786DOD     C238178   3.487   6.803   7.956  0.3292 -0.3588  0.0237
64786DOD     C338179   3.707   6.727   8.398 -0.0011  0.2072  0.1983
64787DOD     C138180   0.280  21.712   2.092  0.1249  0.1935  0.4666
64787DOD     C238181   0.436  21.479   2.479 -0.2152  0.1410  0.1623
64787DOD     C338182   0.563  21.347   2.893 -0.1988  0.1638  0.1697
64788DOD     C138183   8.119  11.199  20.984 -0.1355 -0.0665  0.3579
64788DOD     C238184   7.659  10.994  21.104  0.0388 -0.1984 -0.1180
64788DOD     C338185   7.162  10.950  21.179 -0.0911 -0.0568 -0.0606
64789DOD     C138186  29.099  10.509  21.085  0.1204 -0.0853 -0.3930
64789DOD     C238187  29.569  10.352  21.186  0.0393 -0.0971  0.0325
64789DOD     C338188  29.967  10.267  21.395  0.3049 -0.1447 -0.1188
64790DOD     C138189  19.358  12.104  10.943  0.0565 -0.0139 -0.0583
64790DOD     C238190  19.584  12.515  11.124 -0.1676  0.1491 -0.0239
64790DOD     C338191  19.816  12.910  11.319 -0.2732 -0.0529  0.2184
64791DOD     C138192  22.325  25.452   5.245 -0.1470  0.0546  0.0556
64791DOD     C238193  22.004  25.774   5.457 -0.1076  0.0009 -0.1348
64791DOD     C338194  21.740  26.171   5.541  0.0451  0.1141 -0.1049
64792DOD     C138195  10.883  21.379  25.126  0.1415  0.0896 -0.0307
64792DOD     C238196  11.145  20.950  25.115  0.0794  0.2393  0.1124
64792DOD     C338197  10.899  20.551  25.065 -0.0469  0.3550  0.2137
64793DOD     C138198  25.671  26.171  26.199  0.3554  0.1410 -0.2051
64793DOD     C238199  25.635  26.602  26.324  0.2087 -0.0782 -0.3825
64793DOD     C338200  25.390  27.007  26.337 -0.1366  0.0080  0.0530
64794DOD     C138201   5.218   8.666  28.243 -0.3451  0.1971 -0.2842
64794DOD     C238202   5.428   8.271  28.429  0.0519 -0.1334 -0.1763
64794DOD     C338203   5.473   7.852  28.291  0.0774  0.4583 -0.1464
64795DOD     C138204  23.749   2.364   6.484 -0.1746 -0.2234  0.2396
64795DOD     C238205  24.045   1.995   6.462 -0.2370  0.1137  0.1988
64795DOD     C338206  24.291   1.781   6.099 -0.0378  0.0237 -0.3376
64796DOD     C138207   4.036  27.795  18.828 -0.0718  0.0519 -0.1494
64796DOD     C238208   4.210  27.560  18.440 -0.0525 -0.0861 -0.1045
64796DOD     C338209   4.312  27.513  18.043 -0.2364 -0.1316 -0.0939
64797DOD     C138210   2.521  22.274  23.795  0.2021  0.0676 -0.0324
64797DOD     C238211   2.705  22.650  23.597  0.3188  0.1665  0.0479
64797DOD     C338212   3.144  22.719  23.679 -0.2187 -0.3139  0.1849
64798DOD     C138213  28.673  15.034   8.474 -0.0486 -0.0551  0.2897
64798DOD     C238214  28.449  15.442   8.468 -0.1543 -0.1064  0.1745
64798DOD     C338215  28.087  15.545   8.230 -0.3104  0.0065 -0.0549
64799DOD     C138216  17.318  20.279  21.272 -0.1179 -0.0417  0.0051
64799DOD     C238217  17.253  20.754  21.194 -0.0800  0.2651  0.0818
64799DOD     C338218  16.975  21.023  20.953  0.2796 -0.0324  0.0397
64800DOD     C138219  24.489   8.927   9.882  0.0348  0.0280  0.0252
64800DOD     C238220  24.283   8.564   9.625  0.0487 -0.2639 -0.2145
64800DOD     C338221  23.905   8.283   9.632  0.1061  0.1854  0.0177
64801DOD     C138222  17.979  17.667  23.112 -0.2010  0.0242 -0.1194
64801DOD     C238223  17.705  17.676  22.723  0.0428 -0.1050 -0.0973
64801DOD     C338224  17.686  17.530  22.256 -0.1558 -0.1997 -0.1407
64802DOD     C138225   9.165  22.148  17.541 -0.0331  0.2570 -0.0620
64802DOD     C238226   9.138  22.280  17.969  0.1602 -0.0719 -0.1523
64802DOD     C338227   9.294  22.522  18.358 -0.2299 -0.0449 -0.2400
64803DOD     C138228  26.231  12.316  29.291 -0.2828  0.0813  0.0059
64803DOD     C238229  26.681  12.325  29.441  0.2000 -0.0909  0.3796
64803DOD     C338230  26.858  12.440  29.811  0.0026 -0.1246  0.0859
64804DOD     C138231   1.146  14.300  29.577  0.4223 -0.0379 -0.1222
64804DOD     C238232   0.720  14.459  29.313  0.0601 -0.1444 -0.0221
64804DOD     C338233   0.626  14.842  29.119 -0.1229 -0.0925  0.0892
64805DOD     C138234   5.126  12.978   6.740 -0.1445 -0.2216  0.2943
64805DOD     C238235   4.794  12.641   6.649 -0.1151 -0.1185  0.0693
64805DOD     C338236   4.882  12.212   6.522 -0.3385  0.0898  0.2231
64806DOD     C138237   2.043  28.279   6.795  0.0652  0.1284  0.1257
64806DOD     C238238   1.947  28.243   7.280  0.1659  0.0684 -0.2051
64806DOD     C338239   1.826  28.207   7.753 -0.1009 -0.4216 -0.0313
64807DOD     C138240  11.843  15.291   8.278 -0.1980 -0.1111 -0.0816
64807DOD     C238241  11.804  15.333   8.785  0.1197  0.4773  0.0859
64807DOD     C338242  11.484  15.110   9.018 -0.0899  0.0920 -0.2654
64808DOD     C138243  23.873  24.831   8.060 -0.0996  0.0429  0.0031
64808DOD     C238244  24.105  24.387   8.194  0.4324  0.0016 -0.2009
64808DOD     C338245  24.175  23.955   8.164 -0.0647  0.2623 -0.1341
64809DOD     C138246  21.621   8.424   0.318  0.0909  0.0041 -0.3162
64809DOD     C238247  21.748   8.069   0.342  0.1000  0.2086 -0.0096
64809DOD     C338248  21.563   7.719   0.622  0.0450 -0.0310 -0.0982
64810DOD     C138249   2.574  20.613  25.443  0.2838 -0.0519  0.0315
64810DOD     C238250   2.324  20.957  25.226 -0.0000 -0.0930  0.1928
64810DOD     C338251   2.088  21.274  24.999  0.1910  0.0881  0.2366
64811DOD     C138252  21.601  11.567  20.752 -0.1023 -0.2891 -0.2846
64811DOD     C238253  21.136  11.603  20.708 -0.0021  0.0695  0.0032
64811DOD     C338254  20.856  11.373  21.011  0.1250  0.2089  0.1124
64812DOD     C138255  29.924  17.561   0.011  0.2958  0.0781  0.0077
64812DOD     C238256  30.182  17.163   0.028 -0.0633  0.0723 -0.0705
64812DOD     C338257  30.311  16.749  30.269  0.0414 -0.0855  0.1600
64813DOD     C138258   7.338  25.330  22.775  0.1276  0.0699  0.1347
64813DOD     C238259   7.101  25.616  23.042  0.0243 -0.0150  0.0929
64813DOD     C338260   6.842  26.002  22.867  0.0800  0.1565 -0.0908
64814DOD     C138261   3.008  22.131   9.483  0.0340 -0.1705  0.1440
64814DOD     C238262   2.642  21.939   9.249  0.0386 -0.3340 -0.0409
64814DOD     C338263   2.308  21.747   9.022 -0.3549 -0.1148 -0.1094
64815DOD     C138264   1.916  20.253  16.506 -0.3060  0.0656  0.0372
64815DOD     C238265   1.855  20.264  16.053 -0.0218  0.1679 -0.1014
64815DOD     C338266   1.732  20.324  15.615 -0.0460 -0.0959 -0.1131
64816DOD     C138267  10.719  11.995   7.362 -0.0602  0.0845  0.1027
64816DOD     C238268  10.529  12.378   7.548  0.0360  0.1148 -0.0449
64816DOD     C338269  10.507  12.734   7.248  0.2543 -0.0368  0.0819
64817DOD     C138270  24.451   1.657  26.065  0.0675 -0.0170 -0.1150
64817DOD     C238271  24.831   1.931  26.207  0.0992 -0.1052 -0.4217
64817DOD     C338272  25.288   2.150  26.155  0.1995  0.0419 -0.1729
64818DOD     C138273   9.519   8.627  11.234  0.1827 -0.0328  0.0949
64818DOD     C238274   9.327   8.223  11.289  0.2686 -0.0622  0.2591
64818DOD     C338275   8.910   7.944  11.235  0.2213  0.1252  0.5245
64819DOD     C138276  14.054  19.307  27.715  0.0044  0.0518  0.0194
64819DOD     C238277  14.109  19.452  27.309  0.0894  0.1771  0.0817
64819DOD     C338278  14.212  19.372  26.861 -0.0270 -0.0651  0.2171
64820DOD     C138279  29.815  14.944  17.731 -0.0709 -0.0992  0.2709
64820DOD     C238280  29.891  14.544  17.958 -0.0413  0.1901 -0.2533
64820DOD     C338281  29.696  14.240  18.277 -0.0293  0.3837 -0.1247
64821DOD     C138282  20.248  23.687  17.684 -0.0158  0.2595 -0.1834
64821DOD     C238283  19.753  23.638  17.794 -0.0169  0.1927  0.0818
64821DOD     C338284  19.322  23.514  17.759 -0.0094 -0.0266 -0.1020
64822DOD     C138285  24.194   2.625  19.106 -0.0035 -0.0697 -0.1622
64822DOD     C238286  23.711   2.651  19.137 -0.0925  0.3040  0.0958
64822DOD     C338287  23.478   2.222  19.144 -0.0963 -0.4006  0.0721
64823DOD     C138288  20.827  23.930  20.903 -0.3231 -0.2238  0.3303
64823DOD     C238289  20.697  23.731  20.497  0.1816  0.1322  0.0632
64823DOD     C338290  20.653  23.474  20.064  0.1219  0.0446  0.1454
64824DOD     C138291  28.930   5.991   0.865  0.1464  0.0323  0.3634
64824DOD     C238292  29.308   6.062   1.181  0.0145  0.1394 -0.2129
64824DOD     C338293  29.696   6.252   1.441 -0.1087  0.1275 -0.1567
64825DOD     C138294  13.936   9.011   2.107  0.0175 -0.0394 -0.2180
64825DOD     C238295  14.222   9.299   1.905 -0.1799  0.0847 -0.0769
64825DOD     C338296  14.458   9.156   1.564 -0.1536 -0.0763 -0.3426
64826DOD     C138297  14.823   7.835  17.667  0.2980 -0.0403  0.0051
64826DOD     C238298  14.528   7.814  17.340 -0.1273 -0.1666 -0.2576
64826DOD     C338299  14.137   7.880  17.085  0.0289 -0.0363 -0.1486
64827DOD     C138300  23.499  26.179  25.072  0.0968 -0.0855  0.1756
64827DOD     C238301  23.224  25.838  25.103  0.1212  0.1936 -0.0857
64827DOD     C338302  23.336  25.423  25.236  0.0666  0.2401  0.0754
64828DOD     C138303  24.176   7.137  13.660 -0.1055  0.1474  0.1811
64828DOD     C238304  24.571   6.963  13.851  0.2035  0.0206 -0.0137
64828DOD     C338305  24.532   6.600  14.137 -0.3509 -0.3382 -0.2514
64829DOD     C138306  14.177  13.034  21.863 -0.1379 -0.1333 -0.1758
64829DOD     C238307  14.406  13.110  22.251 -0.1803  0.0082 -0.1841
64829DOD     C338308  14.746  12.793  22.293 -0.4691 -0.0252 -0.0918
64830DOD     C138309   5.747  13.624  19.797 -0.0481  0.0173  0.0639
64830DOD     C238310   5.490  13.685  19.410  0.1242  0.1054 -0.0147
64830DOD     C338311   5.065  13.679  19.270  0.1911 -0.0207  0.3528
64831DOD     C138312  10.387  17.213   3.199  0.1510 -0.1652 -0.0841
64831DOD     C238313  10.068  17.253   3.609  0.3248 -0.2016  0.4107
64831DOD     C338314  10.205  17.155   4.057  0.2512 -0.1124 -0.0003
64832DOD     C138315  22.871  17.880  13.540 -0.2939  0.0336  0.1401
64832DOD     C238316  22.597  17.492  13.573 -0.1133 -0.3564  0.1017
64832DOD     C338317  22.115  17.423  13.622 -0.2439 -0.0671 -0.1273
64833DOD     C138318   5.926  29.577   7.934 -0.1147 -0.2925  0.0335
64833DOD     C238319   5.685  29.258   8.148  0.1033  0.0285 -0.0707
64833DOD     C338320   5.578  28.832   7.944 -0.0125 -0.2590  0.0029
64834DOD     C138321   6.928   2.750  23.008 -0.0380 -0.0468  0.2139
64834DOD     C238322   7.283   2.967  22.686  0.1539 -0.2373  0.2105
64834DOD     C338323   7.683   2.750  22.488  0.3646 -0.1661 -0.0214
64835DOD     C138324  29.136   8.049  11.268 -0.1504  0.2510  0.1146
64835DOD     C238325  28.834   8.153  10.908  0.1567  0.0563 -0.0616
64835DOD     C338326  28.753   8.522  10.649 -0.1750  0.1405  0.0665
64836DOD     C138327   3.762  19.057  16.841 -0.0490  0.0030 -0.3576
64836DOD     C238328   4.183  18.994  16.716 -0.1246  0.0390 -0.0163
64836DOD     C338329   4.423  18.590  16.774  0.2694  0.2345 -0.1827
64837DOD     C138330   4.361   6.408  24.143  0.3441 -0.4107 -0.0226
64837DOD     C238331   4.005   6.365  24.454  0.0299 -0.0839  0.1182
64837DOD     C338332   3.857   6.484  24.867 -0.3214 -0.0491  0.1591
64838DOD     C138333  24.400   4.987  20.401 -0.1028  0.1809  0.3944
64838DOD     C238334  24.553   5.267  20.100  0.0162 -0.0215 -0.2704
64838DOD     C338335  24.808   5.183  19.698 -0.0206 -0.1779  0.1211
64839DOD     C138336   7.716   0.552  24.393 -0.0543 -0.0831 -0.2649
64839DOD     C238337   7.335   0.278  24.373  0.1032 -0.2370 -0.0951
64839DOD     C338338   7.034   0.121  24.026 -0.2000 -0.0981 -0.0376
64840DOD     C138339   9.337  15.311  14.878 -0.0722 -0.0856 -0.1703
64840DOD     C238340   9.198  15.525  15.280 -0.1244  0.1416 -0.2933
64840DOD     C338341   8.980  15.847  15.549 -0.0985  0.1838  0.0519
64841DOD     C138342  18.812  29.469  25.850  0.0859 -0.1015 -0.0849
64841DOD     C238343  18.507  29.764  25.713  0.0915  0.1204  0.1092
64841DOD     C338344  18.104  29.809  26.018  0.0445  0.2024  0.1508
64842DOD     C138345   7.865  20.244  14.615 -0.1736 -0.0648 -0.0700
64842DOD     C238346   7.680  20.192  15.002 -0.2099  0.1295 -0.3133
64842DOD     C338347   7.273  20.224  15.258  0.1995  0.2548 -0.0403
64843DOD     C138348  30.260   7.543   5.101 -0.1033  0.0869 -0.1676
64843DOD     C238349  30.307   7.836   4.826  0.0913  0.2441 -0.1119
64843DOD     C338350  30.128   8.190   4.566 -0.0319  0.0937  0.0841
64844DOD     C138351  24.990   7.315  16.835  0.1051  0.3615 -0.2162
64844DOD     C238352  25.129   7.263  16.370  0.0162  0.0742  0.1725
64844DOD     C338353  24.891   7.133  15.969 -0.0495  0.1223 -0.1077
64845DOD     C138354  11.999  19.656  24.734  0.0008 -0.0854 -0.4144
64845DOD     C238355  11.680  19.873  24.545 -0.0473 -0.2751  0.1835
64845DOD     C338356  11.262  20.066  24.724 -0.0656  0.3018  0.1038
64846DOD     C138357  27.822  21.158  15.809  0.2463  0.1105 -0.0011
64846DOD     C238358  28.001  20.882  15.490 -0.0675 -0.1006 -0.0135
64846DOD     C338359  28.072  20.877  15.017  0.1796 -0.2647  0.0100
64847DOD     C138360  20.273  23.502   9.515 -0.1993  0.1460  0.2269
64847DOD     C238361  19.928  23.765   9.527 -0.3259  0.0762 -0.0203
64847DOD     C338362  19.696  24.140   9.658 -0.3473  0.1152  0.1851
64848DOD     C138363   8.266   7.519  18.521  0.0332  0.2320  0.1260
64848DOD     C238364   8.571   7.289  18.186 -0.0956  0.0160 -0.0811
64848DOD     C338365   8.594   6.913  17.899  0.0081 -0.2341 -0.0059
64849DOD     C138366   5.667   8.642   2.362 -0.0783 -0.2537  0.0464
64849DOD     C238367   5.523   8.977   2.076  0.1918  0.0561 -0.1908
64849DOD     C338368   5.636   9.112   1.717 -0.1269 -0.2074  0.1341
64850DOD     C138369   5.122  27.702   0.224 -0.1989  0.1794 -0.0591
64850DOD     C238370   5.314  27.725   0.661  0.1931  0.3754  0.0851
64850DOD     C338371   5.449  27.318   0.960 -0.0015 -0.3020 -0.0583
64851DOD     C138372  21.141   4.086  18.173 -0.0178 -0.1530 -0.0757
64851DOD     C238373  21.513   3.937  17.923  0.3439 -0.1905  0.0574
64851DOD     C338374  21.742   4.102  17.551  0.0842  0.0829  0.1341
64852DOD     C138375  25.694  24.793   5.150 -0.1211  0.1724 -0.1546
64852DOD     C238376  25.355  24.993   4.899  0.1773 -0.1508  0.2219
64852DOD     C338377  24.868  25.008   5.010 -0.2110 -0.1411  0.0404
64853DOD     C138378  28.339   1.934  28.734 -0.2947 -0.4586 -0.1114
64853DOD     C238379  28.479   2.225  29.071  0.1774  0.1332  0.0026
64853DOD     C338380  28.393   2.672  28.923 -0.1448  0.0978 -0.0312
64854DOD     C138381  20.872   5.086  24.530  0.0274 -0.1054 -0.3498
64854DOD     C238382  21.375   5.059  24.462 -0.1043  0.1501  0.0802
64854DOD     C338383  21.780   5.341  24.539  0.0043  0.5329 -0.1064
64855DOD     C138384  16.179   0.333  12.934  0.0658  0.1172  0.2119
64855DOD     C238385  15.849   0.494  12.581  0.0071 -0.2358  0.2094
64855DOD     C338386  15.427   0.659  12.560 -0.2605  0.0213 -0.1822
64856DOD     C138387  15.170   5.574  10.733 -0.2337 -0.1273 -0.1180
64856DOD     C238388  15.233   5.165  10.412  0.2190 -0.2425 -0.2146
64856DOD     C338389  15.377   4.724  10.420 -0.2551  0.2266 -0.1421
64857DOD     C138390  18.242  15.069  15.244 -0.1522  0.3172  0.0277
64857DOD     C238391  18.590  14.933  14.947  0.0987  0.3227 -0.1278
64857DOD     C338392  18.713  14.501  15.029  0.0747  0.2059  0.2436
64858DOD     C138393  10.984   5.321  20.113 -0.0245  0.0904  0.2804
64858DOD     C238394  10.671   4.952  19.983 -0.0958 -0.2154  0.0842
64858DOD     C338395  10.509   4.524  20.174 -0.2550  0.0500 -0.0622
64859DOD     C138396   4.750  23.831  28.735 -0.1618  0.1288 -0.0666
64859DOD     C238397   4.552  24.177  28.943 -0.0944 -0.0276 -0.0484
64859DOD     C338398   4.469  24.593  29.124 -0.0870  0.1168 -0.2277
64860DOD     C138399  27.432   7.049   4.295  0.0477 -0.0405 -0.1658
64860DOD     C238400  27.742   6.918   3.966 -0.1444  0.0789  0.2418
64860DOD     C338401  28.099   6.787   3.649 -0.0934 -0.2768  0.2779
64861DOD     C138402   0.184  17.752  30.116 -0.3456 -0.0407  0.1661
64861DOD     C238403   0.510  17.447  30.184  0.1177 -0.0305  0.2827
64861DOD     C338404   0.588  17.002  30.144  0.0244  0.1262  0.1134
64862DOD     C138405  14.071  15.691   0.822  0.3136  0.5464 -0.0916
64862DOD     C238406  13.775  15.516   1.122  0.1454 -0.1681  0.0132
64862DOD     C338407  13.504  15.205   1.278  0.1866 -0.1016 -0.0529
64863DOD     C138408  18.708   9.865  15.874 -0.1172 -0.0540 -0.1217
64863DOD     C238409  18.699  10.325  15.729 -0.0256 -0.2338 -0.2252
64863DOD     C338410  18.589  10.788  15.734 -0.0263  0.4557  0.4252
64864DOD     C138411  27.836  12.067  10.332  0.1021  0.3540  0.0948
64864DOD     C238412  28.107  12.368  10.572 -0.0654 -0.0270  0.1578
64864DOD     C338413  28.527  12.461  10.899  0.0235 -0.1890 -0.0898
64865DOD     C138414   5.117  15.096   6.613  0.1147  0.0849  0.1740
64865DOD     C238415   5.134  15.438   6.312  0.0828  0.1028 -0.0463
64865DOD     C338416   5.359  15.409   5.883  0.0809 -0.0313 -0.0918
64866DOD     C138417   9.537   4.705   4.390  0.2213  0.1984  0.2165
64866DOD     C238418   9.158   4.387   4.442 -0.1419 -0.1955  0.0604
64866DOD     C338419   9.214   3.963   4.280 -0.0391 -0.2720  0.0554
64867DOD     C138420  27.838  10.346  10.870 -0.0725  0.0176 -0.1463
64867DOD     C238421  27.455  10.113  10.787 -0.0950  0.2395  0.2345
64867DOD     C338422  27.093   9.845  10.704  0.1123 -0.0808  0.0795
64868DOD     C138423  23.024   5.737   1.795 -0.2040 -0.1886  0.1139
64868DOD     C238424  22.620   5.647   1.609 -0.3402  0.0037  0.4245
64868DOD     C338425  22.345   5.369   1.283 -0.2259  0.2615 -0.2428
64869DOD     C138426  20.975  21.315  23.001  0.1494  0.1351  0.1682
64869DOD     C238427  21.174  21.741  23.045  0.3284 -0.1796 -0.1952
64869DOD     C338428  21.392  22.107  22.828  0.1469 -0.1890  0.2268
64870DOD     C138429  24.563   5.867  24.412 -0.1330  0.2304 -0.2303
64870DOD     C238430  24.299   5.587  24.118 -0.1140  0.0689 -0.2996
64870DOD     C338431  23.945   5.356  23.968  0.0848  0.1082  0.2705
64871DOD     C138432  23.971   3.808  27.326  0.0127 -0.1015  0.1285
64871DOD     C238433  23.783   4.280  27.306 -0.1055  0.0474 -0.2342
64871DOD     C338434  23.746   4.564  26.990 -0.1879 -0.3897  0.1685
64872DOD     C138435   6.795  29.052  30.146 -0.1752 -0.0348  0.1391
64872DOD     C238436   6.499  29.077  29.816  0.0351  0.0101 -0.0957
64872DOD     C338437   6.265  29.323  29.556  0.2878 -0.1639  0.0860
64873DOD     C138438   5.357  10.166  24.932  0.1602  0.3246  0.0247
64873DOD     C238439   5.714   9.844  24.915  0.1446 -0.1201 -0.1100
64873DOD     C338440   5.833   9.489  25.160 -0.1194 -0.1571 -0.3200
64874DOD     C138441   8.829   7.334   0.668  0.1173  0.0406  0.3178
64874DOD     C238442   9.218   7.401   0.873 -0.0051 -0.0043  0.2568
64874DOD     C338443   9.504   7.695   1.108 -0.2254 -0.1675 -0.2456
64875DOD     C138444  27.448  21.338  14.042 -0.1468  0.0335  0.0649
64875DOD     C238445  27.524  21.156  13.582  0.2095 -0.2271 -0.1373
64875DOD     C338446  27.857  21.092  13.324 -0.1370 -0.1257 -0.0485
64876DOD     C138447  19.859  23.354   9.298  0.0649  0.0847  0.0818
64876DOD     C238448  19.908  23.023   9.605  0.0493 -0.1837 -0.1839
64876DOD     C338449  19.788  22.705   9.899  0.2633 -0.4084 -0.6111
64877DOD     C138450   1.063  28.328   5.440  0.1547  0.1628 -0.0063
64877DOD     C238451   1.251  28.717   5.152 -0.0495 -0.0611  0.2419
64877DOD     C338452   1.129  29.111   5.045 -0.1369 -0.0872 -0.0034
64878DOD     C138453  29.621  27.315  26.436 -0.0579 -0.1876  0.1104
64878DOD     C238454  29.569  26.911  26.219  0.0104  0.0469 -0.0427
64878DOD     C338455  29.600  26.451  26.332 -0.2279 -0.1384 -0.3834
64879DOD     C138456  21.612  23.630  13.615  0.0243  0.0439  0.3431
64879DOD     C238457  21.867  23.315  13.665  0.2985  0.1023  0.3649
64879DOD     C338458  21.604  22.972  13.920 -0.5230 -0.1076 -0.1257
64880DOD     C138459  26.037  16.247  23.866 -0.0352  0.0897  0.1418
64880DOD     C238460  25.757  16.229  23.480 -0.2989 -0.1132  0.1465
64880DOD     C338461  25.506  15.992  23.111  0.3145  0.0538  0.1904
64881DOD     C138462  19.657   2.289   9.312 -0.0753  0.0955 -0.0353
64881DOD     C238463  19.354   2.066   9.607 -0.1176  0.1032 -0.3382
64881DOD     C338464  19.228   1.744   9.929  0.0401  0.0376  0.0006
64882DOD     C138465   1.065  26.715   8.304  0.1503 -0.3925 -0.0561
64882DOD     C238466   0.975  26.279   8.421 -0.0141 -0.1408  0.2015
64882DOD     C338467   0.772  25.849   8.411 -0.0156  0.0791 -0.0997
64883DOD     C138468  15.175   5.447  24.401 -0.3003 -0.0209  0.1307
64883DOD     C238469  14.782   5.360  24.187 -0.1135 -0.2663 -0.2432
64883DOD     C338470  14.329   5.204  24.264  0.1652  0.3179 -0.1867
64884DOD     C138471   8.945   8.886  14.270 -0.0208  0.2086 -0.1995
64884DOD     C238472   8.751   8.849  14.676 -0.0277 -0.1809 -0.0091
64884DOD     C338473   8.392   9.092  14.883 -0.2002  0.0339  0.2383
64885DOD     C138474  26.515   9.495   8.419  0.1602  0.1929 -0.1142
64885DOD     C238475  26.083   9.306   8.379  0.3141 -0.2255 -0.0653
64885DOD     C338476  25.667   9.319   8.286 -0.2253  0.2692 -0.0520
64886DOD     C138477  10.082   3.262  15.555 -0.0645  0.0085 -0.0799
64886DOD     C238478   9.870   3.069  15.172  0.1528  0.0308 -0.0775
64886DOD     C338479   9.904   2.931  14.723  0.0007 -0.0194  0.1084
64887DOD     C138480   5.667   3.518   9.639  0.2240  0.0621 -0.2274
64887DOD     C238481   5.942   3.870   9.537 -0.0716 -0.0762  0.0426
64887DOD     C338482   6.265   4.075   9.804 -0.1927 -0.1173  0.0552
64888DOD     C138483  20.255   8.385  10.360  0.1247  0.0539  0.0800
64888DOD     C238484  20.168   8.616  10.755  0.2036 -0.0608  0.0639
64888DOD     C338485  20.134   8.360  11.134 -0.2247 -0.1721  0.0035
64889DOD     C138486   5.216   0.715  13.176  0.1384 -0.2973 -0.1252
64889DOD     C238487   5.288   1.069  12.918 -0.0538  0.0046  0.1415
64889DOD     C338488   5.664   1.117  12.574  0.0238 -0.0033 -0.1405
64890DOD     C138489  30.055  11.754  19.342 -0.1699 -0.3036  0.2297
64890DOD     C238490   0.139  11.675  19.616  0.1355 -0.0800  0.0317
64890DOD     C338491   0.475  11.357  19.822 -0.2125  0.0431  0.2974
64891DOD     C138492  29.666  26.662   8.338  0.1997 -0.1385 -0.2406
64891DOD     C238493  30.026  26.538   8.060  0.1123 -0.1903 -0.3924
64891DOD     C338494   0.054  26.248   7.917  0.1269  0.2952 -0.4610
64892DOD     C138495  24.601  10.349  20.936 -0.3287  0.0044 -0.2149
64892DOD     C238496  24.189  10.635  20.905  0.0267  0.0256  0.0705
64892DOD     C338497  24.020  11.006  21.163 -0.0423  0.2130  0.0998
64893DOD     C138498   7.991  22.769   9.832 -0.0165 -0.0817 -0.2587
64893DOD     C238499   7.589  22.844   9.694  0.0082 -0.0599 -0.0549
64893DOD     C338500   7.165  22.664   9.657  0.1713 -0.2081  0.2731
64894DOD     C138501   9.007  25.008   9.466 -0.1377  0.1498 -0.1834
64894DOD     C238502   8.783  24.805   9.815 -0.1872 -0.0977 -0.0596
64894DOD     C338503   8.902  24.856  10.239 -0.3902 -0.2484  0.0001
64895DOD     C138504   3.622   0.179   0.055 -0.2884 -0.1772  0.1437
64895DOD     C238505   3.233  30.320  30.235  0.2960  0.3058  0.0563
64895DOD     C338506   3.136  29.955  29.935 -0.0268 -0.0079 -0.0521
64896DOD     C138507   6.722  19.695  21.533 -0.0911  0.1441 -0.0536
64896DOD     C238508   6.315  19.953  21.637  0.1281 -0.0549 -0.0220
64896DOD     C338509   6.067  20.289  21.586 -0.1331  0.4968 -0.0213
64897DOD     C138510  27.025   0.580  29.506  0.0586  0.0364 -0.1352
64897DOD     C238511  26.592   0.654  29.663 -0.2748 -0.1199 -0.2115
64897DOD     C338512  26.446   0.989  29.940 -0.0338  0.1027  0.0741
64898DOD     C138513   0.168   7.120  11.763  0.0956 -0.2072 -0.2116
64898DOD     C238514  30.291   7.518  11.730 -0.2114 -0.2600 -0.0431
64898DOD     C338515  30.248   7.983  11.746  0.1478  0.0253 -0.1842
64899DOD     C138516  16.542   2.190  17.538  0.0193  0.2774 -0.4600
64899DOD     C238517  16.839   2.422  17.724 -0.0638 -0.1463  0.1883
64899DOD     C338518  16.932   2.618  18.156  0.0630 -0.3310 -0.0593
64900DOD     C138519   0.542   6.008  16.322 -0.0715 -0.2259  0.2518
64900DOD     C238520   0.339   6.357  16.580 -0.0896  0.0517  0.0801
64900DOD     C338521  30.246   6.652  16.510  0.2015 -0.0653  0.2778
64901DOD     C138522  28.344  20.527  18.271 -0.2101 -0.0430  0.2127
64901DOD     C238523  28.681  20.446  17.979 -0.0213 -0.1133  0.1380
64901DOD     C338524  29.065  20.409  17.694  0.0242 -0.1099 -0.3032
64902DOD     C138525  13.117  23.095  20.006 -0.0114  0.1280  0.0431
64902DOD     C238526  12.690  23.101  20.169 -0.1320 -0.3575  0.0038
64902DOD     C338527  12.259  23.185  20.318  0.0131 -0.3170  0.0437
64903DOD     C138528  21.226  25.706   8.755 -0.4216 -0.1862 -0.1858
64903DOD     C238529  20.991  25.373   8.566 -0.0936 -0.1009 -0.2570
64903DOD     C338530  20.602  25.120   8.600 -0.0787 -0.1921  0.1673
64904DOD     C138531  22.352  20.081   0.448 -0.2090 -0.1319 -0.3139
64904DOD     C238532  22.144  20.315   0.141  0.0900 -0.0443 -0.2590
64904DOD     C338533  22.102  20.498  29.999 -0.1723 -0.3104  0.0143
64905DOD     C138534  15.150  15.421  24.543  0.0688  0.5477  0.0288
64905DOD     C238535  15.038  15.542  24.067  0.2374 -0.0233 -0.2359
64905DOD     C338536  15.061  15.730  23.623 -0.1135  0.1351  0.1583
64906DOD     C138537  21.693  20.541  14.464  0.1625  0.2062 -0.1348
64906DOD     C238538  21.606  20.965  14.685 -0.3813 -0.0322 -0.0651
64906DOD     C338539  21.268  21.025  15.041 -0.1402 -0.0144 -0.1065
64907DOD     C138540  27.538  11.466  16.869 -0.1886  0.2261  0.2140
64907DOD     C238541  27.214  11.304  16.613 -0.0860  0.1616  0.2096
64907DOD     C338542  27.131  11.480  16.163  0.1326  0.0869  0.0081
64908DOD     C138543  27.871  11.559  21.967  0.1427 -0.0329 -0.0985
64908DOD     C238544  27.788  11.621  21.514  0.1242 -0.1308  0.4663
64908DOD     C338545  27.613  11.289  21.175 -0.2221  0.0623 -0.1921
64909DOD     C138546  29.506  19.491  16.540 -0.2071  0.0293 -0.0680
64909DOD     C238547  29.428  19.098  16.772 -0.2703  0.1246 -0.0757
64909DOD     C338548  29.462  18.813  17.129  0.2772  0.0724  0.1043
64910DOD     C138549   1.454  11.892   2.328  0.0539  0.0328  0.0934
64910DOD     C238550   1.214  12.346   2.370  0.0118 -0.3064 -0.0207
64910DOD     C338551   1.022  12.791   2.549 -0.1538 -0.1934 -0.1615
64911DOD     C138552  20.590  23.163  23.674 -0.2418 -0.1413  0.0820
64911DOD     C238553  21.001  23.007  23.807 -0.2528  0.1076 -0.0942
64911DOD     C338554  21.393  22.963  24.063  0.1348 -0.0511  0.0196
64912DOD     C138555  22.162   3.562  14.761  0.1116 -0.1721  0.2070
64912DOD     C238556  21.747   3.327  14.645  0.0022  0.1683  0.2029
64912DOD     C338557  21.711   2.890  14.398 -0.0818  0.2162 -0.0136
64913DOD     C138558   6.275  22.154  24.574 -0.2424 -0.0533 -0.2363
64913DOD     C238559   6.151  21.714  24.757 -0.0692  0.1588  0.0337
64913DOD     C338560   5.766  21.598  24.691  0.5707  0.1850 -0.2000
64914DOD     C138561  27.981  13.862  23.831  0.1261  0.3253  0.1044
64914DOD     C238562  28.097  13.625  23.482  0.3702  0.1171 -0.0556
64914DOD     C338563  28.186  13.270  23.143  0.0713 -0.0011  0.5062
64915DOD     C138564  16.957   8.053  25.525  0.2356  0.0275 -0.0435
64915DOD     C238565  17.237   7.807  25.722 -0.0924  0.4181  0.4946
64915DOD     C338566  17.442   7.512  25.994 -0.1637 -0.1699  0.2631
64916DOD     C138567  28.821  24.642   2.950 -0.0412 -0.0399  0.2667
64916DOD     C238568  28.650  24.322   2.707 -0.3275  0.0134 -0.2234
64916DOD     C338569  28.163  24.329   2.589 -0.1658 -0.1230 -0.2690
64917DOD     C138570   8.860  25.663  28.849  0.0714  0.0300  0.3395
64917DOD     C238571   8.560  25.379  28.600 -0.2455  0.1004  0.0171
64917DOD     C338572   8.562  25.076  28.211 -0.2891  0.1259 -0.1861
64918DOD     C138573  29.725  17.803  25.017  0.0835 -0.2872  0.1558
64918DOD     C238574  29.649  18.020  25.393 -0.0634 -0.2952 -0.0083
64918DOD     C338575  29.820  18.382  25.605 -0.0650  0.1937  0.2270
64919DOD     C138576  28.433  25.678  15.560 -0.1043 -0.1567 -0.0453
64919DOD     C238577  28.290  26.032  15.819 -0.0263 -0.0380  0.2159
64919DOD     C338578  27.976  26.344  15.995  0.1137 -0.4884  0.2749
64920DOD     C138579  10.581  21.604  30.089  0.1520 -0.2039  0.0542
64920DOD     C238580  10.120  21.579  30.186  0.0945  0.0798 -0.2917
64920DOD     C338581   9.802  21.330   0.152  0.1214  0.0998 -0.1047
64921DOD     C138582  15.311   4.306  17.317  0.0478  0.0416  0.0985
64921DOD     C238583  15.590   3.954  17.255  0.2918  0.2501  0.3725
64921DOD     C338584  16.024   4.008  16.975 -0.0045  0.2213 -0.0116
64922DOD     C138585   7.977   6.877  11.483 -0.1522  0.1862  0.0912
64922DOD     C238586   7.745   6.611  11.764  0.1931 -0.0262  0.2937
64922DOD     C338587   7.554   6.472  12.108  0.0784 -0.1174 -0.0469
64923DOD     C138588  23.247  13.167  18.432  0.2636  0.1079 -0.2707
64923DOD     C238589  23.298  13.468  18.758  0.0922 -0.0342 -0.2158
64923DOD     C338590  23.405  13.744  19.128  0.0381  0.1969 -0.4204
64924DOD     C138591  29.996   5.341   7.757 -0.2855  0.0446 -0.1204
64924DOD     C238592  30.037   5.140   7.371  0.2388 -0.1005  0.2302
64924DOD     C338593  30.237   5.124   6.940 -0.0738  0.0352  0.3008
64925DOD     C138594  22.263   9.393  19.164 -0.1618 -0.1755  0.0243
64925DOD     C238595  21.931   9.733  19.187 -0.2351  0.0043  0.0079
64925DOD     C338596  21.571  10.007  19.257 -0.0302 -0.1390 -0.0188
64926DOD     C138597   1.609  26.047   0.188  0.4130  0.0413  0.1838
64926DOD     C238598   1.265  26.015   0.510 -0.0325 -0.1959  0.1173
64926DOD     C338599   1.176  26.388   0.783 -0.0352  0.0075  0.1216
64927DOD     C138600   9.853  11.851  18.458  0.2023  0.1670 -0.0632
64927DOD     C238601   9.711  11.640  18.866  0.0527 -0.0383 -0.2592
64927DOD     C338602   9.755  11.409  19.272  0.1162  0.0489  0.0119
64928DOD     C138603  13.141   7.619   6.256 -0.2507  0.3464  0.0310
64928DOD     C238604  13.420   7.301   6.348  0.0773 -0.1332 -0.2663
64928DOD     C338605  13.869   7.201   6.314  0.1250 -0.0444  0.1209
64929DOD     C138606  14.119   7.925  18.433  0.0705 -0.0160  0.2058
64929DOD     C238607  14.459   8.174  18.717  0.2817 -0.1729  0.0970
64929DOD     C338608  14.681   8.514  18.480 -0.0074  0.1313 -0.1934
64930DOD     C138609  10.043  24.210  12.081  0.0655  0.1227 -0.3653
64930DOD     C238610  10.082  23.963  11.733 -0.1685 -0.1415 -0.1465
64930DOD     C338611   9.880  23.764  11.362 -0.0547 -0.0784 -0.0326
64931DOD     C138612  26.303  23.809  19.229  0.0859 -0.2343 -0.2838
64931DOD     C238613  26.005  23.473  19.315 -0.1549  0.0224  0.1007
64931DOD     C338614  25.757  23.169  19.519  0.0145 -0.2108  0.2332
64932DOD     C138615  30.176  19.073   3.479  0.1486  0.0041 -0.0189
64932DOD     C238616  30.052  18.578   3.475  0.0031  0.1938  0.0819
64932DOD     C338617  29.934  18.121   3.493 -0.0534 -0.1493 -0.4574
64933DOD     C138618  23.633  26.573  13.241  0.3352 -0.3838  0.1628
64933DOD     C238619  23.669  26.152  13.061 -0.0565 -0.1465 -0.1452
64933DOD     C338620  23.606  25.719  13.247 -0.5329  0.2393  0.1416
64934DOD     C138621  16.161   0.857   8.177 -0.1429 -0.2477  0.3214
64934DOD     C238622  16.440   0.630   7.845  0.0104 -0.0526 -0.1883
64934DOD     C338623  16.439   0.576   7.315 -0.0646 -0.2180  0.1896
64935DOD     C138624   5.889  15.186  12.086 -0.3429 -0.1876 -0.1267
64935DOD     C238625   5.743  15.262  12.537 -0.0653  0.2012  0.1531
64935DOD     C338626   5.645  15.100  12.966  0.2049 -0.0376  0.0131
64936DOD     C138627   4.658  23.692  23.924 -0.0417  0.0764 -0.1941
64936DOD     C238628   4.585  23.749  24.397 -0.3396 -0.2072 -0.1013
64936DOD     C338629   4.406  23.539  24.807 -0.4835 -0.2444 -0.4538
64937DOD     C138630  13.689   4.094  30.105  0.0140  0.0602 -0.0034
64937DOD     C238631  13.724   3.652  30.144  0.2334  0.1360 -0.1170
64937DOD     C338632  13.525   3.310   0.144  0.2550 -0.2682 -0.2877
64938DOD     C138633  11.457   0.520  20.013  0.2717  0.0631 -0.0335
64938DOD     C238634  11.811   0.701  19.753  0.0973  0.2269  0.1447
64938DOD     C338635  12.235   0.599  19.807  0.1403 -0.1407  0.0748
64939DOD     C138636  14.061  23.918  28.893  0.1545 -0.1587  0.3590
64939DOD     C238637  13.791  24.126  28.601  0.2074 -0.0260 -0.0839
64939DOD     C338638  13.387  24.162  28.339  0.1190 -0.0702  0.0699
64940DOD     C138639  12.168   8.704   9.845  0.4369 -0.1435  0.0881
64940DOD     C238640  12.567   8.930   9.701  0.0796 -0.0025  0.1485
64940DOD     C338641  12.643   9.079   9.251 -0.0124  0.0155  0.1966
64941DOD     C138642  18.157  12.272  26.090  0.0888 -0.0355 -0.1789
64941DOD     C238643  17.726  12.527  26.147  0.1124 -0.1949 -0.1242
64941DOD     C338644  17.582  12.869  25.900 -0.2107  0.2525 -0.1838
64942DOD     C138645  12.385  14.394   9.870 -0.2390 -0.2137 -0.1942
64942DOD     C238646  12.786  14.602   9.820 -0.0578  0.1174 -0.0951
64942DOD     C338647  12.905  14.996   9.610  0.0206 -0.1456  0.0297
64943DOD     C138648  16.337   7.393  14.377 -0.0121  0.0983  0.0231
64943DOD     C238649  16.567   7.057  14.600 -0.0054  0.0661 -0.2577
64943DOD     C338650  16.801   6.587  14.704 -0.1529 -0.1115  0.0616
64944DOD     C138651  20.276   9.423  20.576 -0.0922 -0.2741  0.0522
64944DOD     C238652  20.757   9.503  20.644 -0.0237  0.0301 -0.0373
64944DOD     C338653  21.232   9.348  20.413  0.1903  0.1560 -0.1035
64945DOD     C138654  23.987  27.652  17.798  0.1163  0.1850 -0.1051
64945DOD     C238655  24.033  27.419  17.398 -0.0100 -0.0569 -0.0471
64945DOD     C338656  24.054  27.053  17.161 -0.2326  0.1693 -0.1317
64946DOD     C138657   2.969  21.744  25.202 -0.0210  0.2114 -0.0860
64946DOD     C238658   2.966  21.520  24.756 -0.1100  0.4162  0.0340
64946DOD     C338659   3.039  21.546  24.309  0.0674  0.1543  0.2342
64947DOD     C138660  26.874  23.514   6.118 -0.1405 -0.0886  0.2087
64947DOD     C238661  27.106  23.915   6.334  0.0218 -0.2135  0.0457
64947DOD     C338662  27.169  24.181   6.785  0.2975 -0.3209 -0.0481
64948DOD     C138663   6.348   4.244  14.560 -0.1342 -0.1165  0.1813
64948DOD     C238664   6.802   4.130  14.463 -0.3631  0.3567 -0.2489
64948DOD     C338665   7.040   3.833  14.172  0.1656  0.1471  0.2754
64949DOD     C138666  27.365   0.986  17.938  0.0621  0.1278 -0.0386
64949DOD     C238667  27.432   1.275  17.598 -0.0451 -0.2894  0.0945
64949DOD     C338668  27.119   1.584  17.428 -0.2332 -0.3328  0.0045
64950DOD     C138669  29.200   8.711  20.177 -0.1430  0.0775 -0.0226
64950DOD     C238670  29.537   8.747  19.866 -0.3026  0.1176 -0.2926
64950DOD     C338671  29.842   9.042  19.737 -0.1140  0.2385 -0.1157
64951DOD     C138672   6.778  20.827   5.694  0.2993  0.1295  0.3716
64951DOD     C238673   6.666  21.001   5.239  0.1675 -0.2235  0.2003
64951DOD     C338674   6.586  21.409   4.967  0.2459  0.0075 -0.0134
64952DOD     C138675   7.215  14.528  21.134  0.1640 -0.0819  0.1944
64952DOD     C238676   7.627  14.310  21.079  0.1833 -0.1911  0.1228
64952DOD     C338677   8.021  14.153  20.951 -0.0226  0.1783 -0.2325
64953DOD     C138678   3.198   1.854   0.822 -0.2935 -0.1381 -0.2625
64953DOD     C238679   3.078   1.832   0.367  0.1713 -0.2868  0.2173
64953DOD     C338680   3.202   2.052   0.001  0.1387 -0.0795  0.0618
64954DOD     C138681  19.666  23.640  22.220 -0.2400 -0.0820  0.1209
64954DOD     C238682  19.670  23.465  22.679 -0.0306  0.0840 -0.0701
64954DOD     C338683  19.760  23.576  23.139 -0.0423  0.1332  0.0201
64955DOD     C138684  23.583  26.657  20.934 -0.2554 -0.0862 -0.0060
64955DOD     C238685  23.260  26.767  20.639 -0.2217 -0.0228  0.1087
64955DOD     C338686  23.059  27.071  20.342 -0.1787 -0.3207 -0.0795
64956DOD     C138687  26.458   2.128   8.577  0.0761  0.0796  0.3385
64956DOD     C238688  26.739   1.789   8.791 -0.2806 -0.0719  0.1457
64956DOD     C338689  26.659   1.490   9.117 -0.0619  0.1848  0.0755
64957DOD     C138690   5.825  12.915  28.690  0.1398  0.1373  0.2638
64957DOD     C238691   6.068  13.053  29.104 -0.0289  0.0778  0.1023
64957DOD     C338692   6.484  13.254  29.246 -0.1369 -0.0746 -0.0492
64958DOD     C138693  26.221   4.139   8.679 -0.2340 -0.0650  0.0262
64958DOD     C238694  26.212   3.675   8.624 -0.0785 -0.1254 -0.0237
64958DOD     C338695  26.198   3.247   8.531 -0.1733 -0.0354 -0.0649
64959DOD     C138696   7.812  14.035  21.394  0.1767 -0.2197 -0.1206
64959DOD     C238697   8.227  13.805  21.457 -0.0842  0.1943 -0.2944
64959DOD     C338698   8.373  13.338  21.447  0.1020 -0.0062  0.0466
64960DOD     C138699  22.034  23.679   4.368  0.0822  0.2401  0.0732
64960DOD     C238700  21.860  24.080   4.246  0.3794  0.3691 -0.0049
64960DOD     C338701  21.670  24.412   4.047  0.1276 -0.0709  0.0214
64961DOD     C138702   0.594   3.907  13.180 -0.0035  0.1691  0.2371
64961DOD     C238703   0.667   3.466  13.119  0.3275  0.1035  0.1267
64961DOD     C338704   0.794   3.075  13.309  0.3475  0.0425 -0.1278
64962DOD     C138705  19.240  25.645  21.201  0.0622  0.1804 -0.2499
64962DOD     C238706  19.008  26.026  21.175 -0.5263  0.2232 -0.2846
64962DOD     C338707  19.053  26.493  21.125 -0.1381  0.0850 -0.1243
  30.31787  30.31787  30.31787
